G2POcore-PETIM in water
201256
    1aaa     O1    1   3.289  11.136   5.398 -0.9225  0.2819 -0.0066
    1aaa     C1    2   3.246  11.007   5.345 -0.3257  0.2812  0.2186
    1aaa     H1    3   3.248  11.001   5.235 -1.3774  0.2394  0.1860
    1aaa     H2    4   3.141  10.994   5.377 -0.5797 -0.5631 -0.8811
    1aaa     C2    5   3.213  11.250   5.340  0.2074  0.8641 -0.9044
    1aaa     H3    6   3.106  11.236   5.357  0.1447  0.6457 -1.4414
    1aaa     H4    7   3.226  11.261   5.231  0.7457 -1.7160 -1.1750
    1aaa     C3    8   3.338  10.894   5.397  0.1000 -0.7928  0.2281
    1aaa     H5    9   3.378  10.913   5.498 -0.3143 -1.7660  0.5906
    1aaa     H6   10   3.422  10.883   5.328 -0.3471  0.1737 -0.4831
    1aaa     C4   11   3.257  11.381   5.412 -0.0633  0.5648  0.6270
    1aaa     H7   12   3.356  11.412   5.376  0.3668 -2.5399 -1.3238
    1aaa     H8   13   3.284  11.370   5.517  2.2799 -0.4755 -0.0257
    1aaa     C5   14   3.256  10.766   5.406 -0.5568 -0.5384 -0.2830
    1aaa     H9   15   3.180  10.776   5.483 -0.0970 -0.3629  0.1553
    1aaa    H10   16   3.208  10.751   5.310  3.7175  2.1019 -3.1978
    1aaa     C6   17   3.153  11.500   5.387 -0.4458  0.1257 -0.0918
    1aaa    H11   18   3.058  11.474   5.435  0.5914 -3.3338  0.3532
    1aaa    H12   19   3.143  11.523   5.281  1.2044  1.8258  0.0812
    1aaa     N1   20   3.326  10.629   5.435  0.1717 -0.4941 -0.2925
    1aaa     N2   21   3.178  11.639   5.455 -0.1905  0.0956  0.3619
    1aaa     C7   22   3.056  11.727   5.411 -0.4020 -0.2404 -0.5658
    1aaa    H13   23   3.078  11.746   5.305 -0.2581 -1.7714 -0.8207
    1aaa    H14   24   2.966  11.667   5.423 -0.7488  0.4074  0.1645
    1aaa     C8   25   3.314  11.700   5.417 -0.0440  0.0760  0.1768
    1aaa    H15   26   3.311  11.792   5.475  1.6814 -0.3904  1.0791
    1aaa    H16   27   3.397  11.634   5.444 -0.6363 -1.2750 -1.1733
    1aaa     C9   28   3.372  10.643   5.579 -0.2287 -0.3130 -0.4043
    1aaa    H17   29   3.444  10.725   5.588 -0.0768 -0.5703  0.8741
    1aaa    H18   30   3.290  10.671   5.644  0.9130 -1.7553  1.7806
    1aaa    C10   31   3.204  10.534   5.440 -0.1292  0.3281  0.2681
    1aaa    H19   32   3.235  10.442   5.490  1.9921  0.5670 -0.5037
    1aaa    H20   33   3.124  10.578   5.501  0.1814  0.2639  0.7242
    1aaa    C11   34   3.041  11.864   5.489  0.0060  0.3863  0.2329
    1aaa    H21   35   3.039  11.839   5.596  1.0590  0.1536  0.2013
    1aaa    H22   36   3.121  11.936   5.468  0.9131 -1.0450 -1.5465
    1aaa    C12   37   3.336  11.738   5.271 -0.9290 -0.0016 -0.1186
    1aaa    H23   38   3.355  11.640   5.225 -1.1794  0.6955 -1.8096
    1aaa    H24   39   3.251  11.791   5.226 -1.3547 -0.0140  0.6644
    1aaa    C13   40   3.441  10.515   5.631 -0.1374  0.6461  0.4592
    1aaa    H25   41   3.379  10.430   5.603 -2.0833  2.7024 -1.9122
    1aaa    H26   42   3.528  10.514   5.564  0.8245  1.0397  1.6518
    1aaa    C14   43   3.138  10.508   5.304 -0.7275 -0.1914  0.2056
    1aaa    H27   44   3.068  10.586   5.272  0.9396 -0.0869 -3.6566
    1aaa    H28   45   3.217  10.506   5.229 -0.7464  0.9088  0.1436
    1aaa    C15   46   3.057  10.383   5.302  0.8319  0.4448 -0.4162
    1aaa    H29   47   3.131  10.302   5.313  0.0901 -0.2087 -0.1780
    1aaa    H30   48   2.984  10.384   5.384  2.0404 -1.6408  0.7732
    1aaa    C16   49   3.484  10.519   5.783  0.1769 -0.3100 -0.1084
    1aaa    H31   50   3.553  10.603   5.798 -1.6250  1.2370 -0.0693
    1aaa    H32   51   3.400  10.546   5.849 -1.1777 -1.0033 -1.4838
    1aaa    C17   52   3.469  11.820   5.261  0.6826  0.2500 -0.2706
    1aaa    H33   53   3.447  11.921   5.298  1.5313  0.3723 -0.0898
    1aaa    H34   54   3.550  11.776   5.320 -0.0716 -1.5713 -0.5338
    1aaa    C18   55   2.912  11.939   5.451  0.5061 -0.9980 -0.3338
    1aaa    H35   56   2.910  11.954   5.342 -1.1809 -1.7406 -0.4308
    1aaa    H36   57   2.831  11.873   5.481 -0.5879  0.9414  1.2514
    1aaa    H38   58   3.392  10.593   5.365 -0.9802  0.6831 -2.0814
    1aaa    H37   59   3.171  11.623   5.557  0.4575 -2.4010  0.0951
    2bbb     N1   60   2.841   9.999   4.870 -0.3282 -0.4095 -0.2851
    2bbb     C1   61   2.887   9.858   4.834  0.6133  0.2568 -0.2053
    2bbb     H1   62   2.812   9.814   4.769 -1.5525  3.1211  0.1314
    2bbb     H2   63   2.880   9.803   4.928 -1.2919  0.0080 -0.4548
    2bbb     C2   64   2.691  10.010   4.873  1.0013 -0.0447 -0.3932
    2bbb     H3   65   2.651  10.099   4.920 -1.5153 -1.5930  0.6170
    2bbb     H4   66   2.652   9.927   4.932 -0.1903 -0.4190 -1.6425
    2bbb     C3   67   2.904  10.050   4.999 -0.2398  0.3734 -0.2840
    2bbb     H5   68   3.007  10.015   5.009 -0.6112 -0.4354  1.0015
    2bbb     H6   69   2.852   9.999   5.080  0.8836  0.1154  0.3039
    2bbb     C4   70   2.901  10.199   5.022  0.4584  0.2257 -0.7830
    2bbb     H7   71   2.800  10.234   4.999  0.3942  0.3985 -0.2494
    2bbb     H8   72   2.965  10.252   4.950  0.5621 -1.0773 -1.6883
    2bbb     C5   73   3.020   9.833   4.772  0.0732  0.6389  0.0297
    2bbb     H9   74   3.091   9.868   4.847  0.0524 -0.6565  0.6777
    2bbb    H10   75   3.032   9.887   4.677  0.6835 -1.2656 -1.0199
    2bbb     C6   76   2.630  10.008   4.736 -0.3683  0.9077  0.6326
    2bbb    H11   77   2.655   9.916   4.683  0.6481  1.3312  0.3434
    2bbb    H12   78   2.669  10.077   4.660  0.7190 -0.4333 -0.0551
    2bbb     C7   79   2.936  10.229   5.173 -0.4824 -0.3370 -0.7696
    2bbb    H13   80   3.002  10.153   5.216  1.7528  1.5217 -0.7363
    2bbb    H14   81   2.843  10.225   5.231  0.3444 -0.6862  0.5657
    2bbb     C8   82   2.476  10.018   4.742  0.6622 -0.0295  0.6218
    2bbb    H15   83   2.432   9.981   4.835 -0.3746  1.7721  0.8919
    2bbb    H16   84   2.441  10.122   4.742  1.5899  0.3374 -1.0814
    2bbb     C9   85   3.055   9.679   4.747  0.0726 -0.3799  0.9438
    2bbb    H17   86   3.049   9.621   4.840 -0.8104 -0.5431  0.7890
    2bbb    H18   87   3.153   9.666   4.700  0.3990  1.4924  1.0342
    2bbb     O1   88   2.992  10.361   5.182  0.2062 -0.2976 -0.2490
    2bbb    H19   89   2.881  10.062   4.798  2.3752 -0.8074  0.7423
    3bbb     N1   90   3.799  10.124   6.128 -0.0598 -0.5454  0.5895
    3bbb     C1   91   3.857  10.137   6.267 -0.5230 -0.0820  0.0578
    3bbb     H1   92   3.784  10.126   6.347  0.3051  1.8214  1.1535
    3bbb     H2   93   3.893  10.240   6.267 -0.8403  0.0425 -0.9285
    3bbb     C2   94   3.708  10.008   6.110  0.3769 -0.0776 -0.7782
    3bbb     H3   95   3.763   9.915   6.123  1.9963  0.6993 -1.7486
    3bbb     H4   96   3.669  10.020   6.009  0.2394  2.8560 -0.4657
    3bbb     C3   97   3.726  10.249   6.093 -0.0798 -0.8531 -0.2984
    3bbb     H5   98   3.802  10.326   6.093 -0.3832 -0.5113  1.2622
    3bbb     H6   99   3.667  10.259   6.185 -0.7854 -0.5124 -0.7813
    3bbb     C4  100   3.631  10.256   5.970 -0.0486  0.0273 -0.4559
    3bbb     H7  101   3.550  10.182   5.985 -1.1833  1.3283  0.1108
    3bbb     H8  102   3.697  10.229   5.887  1.2766  2.9008 -0.4344
    3bbb     C5  103   3.980  10.048   6.288  0.2908 -0.0509  0.1860
    3bbb     H9  104   4.055  10.066   6.209 -0.4324  0.4148 -0.4192
    3bbb    H10  105   3.947   9.944   6.284  3.2041 -1.0843  0.3591
    3bbb     C6  106   3.580  10.005   6.202 -0.3753 -0.5468  0.0356
    3bbb    H11  107   3.540  10.107   6.212 -0.6259 -0.8008  2.0058
    3bbb    H12  108   3.605   9.985   6.307 -0.9068  0.7297  0.4279
    3bbb     C7  109   3.569  10.397   5.947  0.1468  0.0534  0.2975
    3bbb    H13  110   3.632  10.482   5.973 -0.2490  1.6530 -3.3776
    3bbb    H14  111   3.473  10.399   6.000 -1.6780 -2.5333 -2.5064
    3bbb     C8  112   3.480   9.899   6.151  0.2241 -0.3286  0.1820
    3bbb    H15  113   3.422   9.922   6.061 -2.2433 -0.7045  1.5790
    3bbb    H16  114   3.527   9.801   6.139 -1.7556 -1.2421 -0.5126
    3bbb     C9  115   4.043  10.073   6.432 -1.1216 -0.4379  0.2398
    3bbb    H17  116   3.973  10.023   6.499  0.7094 -0.7988  1.9951
    3bbb    H18  117   4.044  10.178   6.464  1.4384 -0.7272  1.4255
    3bbb     O1  118   3.542  10.394   5.809  0.3042 -0.4680  0.1859
    3bbb    H19  119   3.877  10.121   6.061 -1.5615  0.8115 -1.3414
    4bbb     N1  120   3.852  12.042   4.819  0.1344 -0.1892 -0.2560
    4bbb     C1  121   3.967  12.140   4.844 -0.0018  0.2556 -0.0236
    4bbb     H1  122   4.016  12.156   4.748  0.5880 -2.8557 -0.3690
    4bbb     H2  123   4.037  12.090   4.913  2.1062  1.6943 -1.0134
    4bbb     C2  124   3.881  11.936   4.718  0.3324 -0.3632  0.2492
    4bbb     H3  125   3.803  11.860   4.708 -2.1338  2.3103 -4.7673
    4bbb     H4  126   3.973  11.886   4.747  0.0216 -1.0138  0.1278
    4bbb     C3  127   3.828  11.983   4.955 -0.3284 -0.1471 -0.2984
    4bbb     H5  128   3.823  12.064   5.028  2.1431  0.4654 -0.7288
    4bbb     H6  129   3.911  11.922   4.991  0.5351  0.0927 -1.7803
    4bbb     C4  130   3.699  11.900   4.963  0.2834 -0.2616 -0.0178
    4bbb     H7  131   3.705  11.794   4.935  0.7909 -0.6969  1.6094
    4bbb     H8  132   3.630  11.959   4.902 -0.1080  1.3202  1.8691
    4bbb     C5  133   3.928  12.282   4.907  0.0461  0.3454  0.7128
    4bbb     H9  134   3.842  12.266   4.972 -1.3883 -2.1871 -1.6063
    4bbb    H10  135   3.893  12.347   4.826 -0.8006 -3.3659 -2.1293
    4bbb     C6  136   3.891  12.009   4.575  0.5571 -0.4542 -0.0409
    4bbb    H11  137   3.940  12.107   4.575  1.4691 -0.8943 -0.9958
    4bbb    H12  138   3.789  12.015   4.534 -1.0413 -2.0315  3.3102
    4bbb     C7  139   3.651  11.886   5.113 -0.3328 -0.0295 -0.2602
    4bbb    H13  140   3.641  11.985   5.158 -0.8950 -1.5038  3.1660
    4bbb    H14  141   3.722  11.826   5.172 -0.0907 -0.7482 -1.2471
    4bbb     C8  142   3.968  11.922   4.476 -0.4650 -0.4618  0.1335
    4bbb    H15  143   4.069  11.896   4.512 -0.1434  1.5142  0.7962
    4bbb    H16  144   3.916  11.825   4.477 -0.0387 -0.6907  1.4163
    4bbb     C9  145   4.054  12.339   4.969  0.9034 -0.1454  0.1041
    4bbb    H17  146   4.081  12.266   5.047 -0.9409 -2.7773 -1.5740
    4bbb    H18  147   4.040  12.443   5.001  2.6947  0.1772 -0.0155
    4bbb     O1  148   3.520  11.827   5.123  0.1644  0.5455 -0.1026
    4bbb    H19  149   3.771  12.095   4.784 -1.1227 -1.3704  0.7578
    5bbb     N1  150   2.628  12.423   5.745 -0.3638 -0.1219  0.1004
    5bbb     C1  151   2.480  12.437   5.794  0.0518 -0.5876 -0.4035
    5bbb     H1  152   2.456  12.351   5.858 -1.3849 -0.5765 -0.8888
    5bbb     H2  153   2.412  12.435   5.709 -1.1590  2.2224  0.3585
    5bbb     C2  154   2.724  12.467   5.857 -0.5278  0.3632  0.1235
    5bbb     H3  155   2.688  12.562   5.897 -0.6999  1.2182 -1.9429
    5bbb     H4  156   2.817  12.500   5.811 -0.4088  1.4502  1.0942
    5bbb     C3  157   2.643  12.284   5.676 -0.1834 -0.4106 -0.1335
    5bbb     H5  158   2.548  12.267   5.624 -0.4033 -0.1498  0.1782
    5bbb     H6  159   2.651  12.218   5.762  2.4900  0.6751  0.5582
    5bbb     C4  160   2.773  12.271   5.591 -0.4779  0.1352  0.0677
    5bbb     H7  161   2.866  12.274   5.649  0.0636 -0.5910 -0.7415
    5bbb     H8  162   2.781  12.359   5.526 -0.6018 -0.3050 -0.5515
    5bbb     C5  163   2.451  12.571   5.876 -0.0682 -0.1142  0.3125
    5bbb     H9  164   2.468  12.652   5.805  2.2683 -0.3134  0.5702
    5bbb    H10  165   2.511  12.585   5.967  1.7235  3.4360 -1.2205
    5bbb     C6  166   2.770  12.360   5.964  0.0763 -0.6027 -0.5031
    5bbb    H11  167   2.858  12.391   6.022 -0.3464  0.9994 -0.6861
    5bbb    H12  168   2.798  12.269   5.910  0.6064 -0.7394 -0.0151
    5bbb     C7  169   2.772  12.134   5.511  0.3799 -0.7850  0.5881
    5bbb    H13  170   2.738  12.140   5.407 -1.2381  0.0456  1.1288
    5bbb    H14  171   2.696  12.072   5.560 -1.5951  0.6232 -0.5706
    5bbb     C8  172   2.669  12.336   6.080  0.0577  0.0869  0.5691
    5bbb    H15  173   2.570  12.323   6.036  0.4911  0.8098 -0.6597
    5bbb    H16  174   2.700  12.253   6.145 -2.8979 -0.2120  1.7359
    5bbb     C9  175   2.299  12.577   5.914 -0.4573 -0.3051 -0.4308
    5bbb    H17  176   2.297  12.662   5.984  2.5594  0.9391 -1.6677
    5bbb    H18  177   2.258  12.492   5.969 -0.1600  1.0312  1.9980
    5bbb     O1  178   2.903  12.070   5.514 -0.2171 -0.0886  0.0922
    5bbb    H19  179   2.632  12.491   5.669 -1.8043  1.1405  1.0937
    6bbb     N1  180   2.062   9.901   4.284  0.7391 -0.3785 -0.2270
    6bbb     C1  181   2.130   9.979   4.174  0.1152 -0.1026  0.3432
    6bbb     H1  182   2.070   9.974   4.083  0.3406  0.7154  0.1381
    6bbb     H2  183   2.222   9.930   4.144  0.7122  1.7776 -1.1207
    6bbb     C2  184   2.095   9.754   4.279 -0.2630 -0.5193 -0.5318
    6bbb     H3  185   2.061   9.725   4.378 -0.8201  0.7360 -0.3309
    6bbb     H4  186   2.204   9.749   4.274 -0.1825 -0.6230  0.9383
    6bbb     C3  187   2.096   9.953   4.432  0.0628  0.6152 -0.4755
    6bbb     H5  188   2.031   9.913   4.510  2.5180  0.8051  1.8037
    6bbb     H6  189   2.094  10.061   4.443  2.3323  0.5949  0.7062
    6bbb     C4  190   2.235   9.915   4.481  0.0766  0.1499 -0.0615
    6bbb     H7  191   2.303   9.943   4.400 -0.1287  1.9461  0.3332
    6bbb     H8  192   2.237   9.808   4.503 -0.6950  0.2808  0.6962
    6bbb     C5  193   2.157  10.137   4.194  0.3674  0.0454 -0.6503
    6bbb     H9  194   2.235  10.166   4.122  1.0164 -0.5852 -0.2168
    6bbb    H10  195   2.193  10.160   4.295  0.3379  0.1468 -0.6632
    6bbb     C6  196   2.030   9.670   4.166 -0.0290  0.3046 -0.2939
    6bbb    H11  197   2.070   9.569   4.175  1.5384  0.9032 -0.2704
    6bbb    H12  198   2.073   9.711   4.073 -0.6291  0.6999 -0.4099
    6bbb     C7  199   2.286   9.993   4.604  0.0076  0.3593  0.4195
    6bbb    H13  200   2.229   9.965   4.693 -0.0207  1.6197  0.8099
    6bbb    H14  201   2.277  10.101   4.592  0.4870  0.6977  2.6946
    6bbb     C8  202   1.877   9.683   4.155 -0.0139  0.0077  0.3008
    6bbb    H15  203   1.849   9.789   4.145  0.8284  0.2503  0.3961
    6bbb    H16  204   1.847   9.631   4.064  1.0189  1.5585 -0.9852
    6bbb     C9  205   2.019  10.210   4.178 -0.5787 -0.1708 -0.5477
    6bbb    H17  206   2.036  10.318   4.191 -0.1091 -0.2813 -0.2205
    6bbb    H18  207   1.941  10.171   4.244 -0.4253 -0.7564 -0.7036
    6bbb     O1  208   2.417   9.953   4.628 -0.3124  0.0945 -0.8538
    6bbb    H19  209   1.961   9.916   4.267  0.4004 -2.4184 -0.2034
    7bbb     N1  210   3.133   9.430   4.311  0.1568 -0.2992 -0.3191
    7bbb     C1  211   3.080   9.307   4.237 -0.0763 -0.0540  0.4529
    7bbb     H1  212   3.150   9.299   4.153 -0.6947  0.8880 -0.1692
    7bbb     H2  213   2.983   9.325   4.190  0.2015 -0.8895 -0.4844
    7bbb     C2  214   3.168   9.547   4.223  0.7189 -0.1244  0.2092
    7bbb     H3  215   3.077   9.589   4.179  0.8197 -1.4957 -1.3991
    7bbb     H4  216   3.225   9.515   4.136 -0.0289 -1.8129  0.3019
    7bbb     C3  217   3.027   9.470   4.406 -0.4636  0.3165 -0.2500
    7bbb     H5  218   2.929   9.438   4.372  0.1655 -0.4104 -1.4248
    7bbb     H6  219   3.014   9.579   4.401 -1.3983  0.2663  0.7192
    7bbb     C4  220   3.046   9.422   4.553 -0.5644  0.4750  0.5513
    7bbb     H7  221   3.143   9.458   4.589  1.1604 -1.8425 -1.4631
    7bbb     H8  222   3.055   9.314   4.564  1.0469  0.3401 -1.5463
    7bbb     C5  223   3.077   9.171   4.310 -0.1220  0.6772  0.0512
    7bbb     H9  224   3.008   9.165   4.394 -1.1957 -1.0600 -0.9008
    7bbb    H10  225   3.176   9.164   4.357 -1.0018  0.0076  1.8916
    7bbb     C6  226   3.260   9.644   4.294 -0.2713 -1.0306 -0.5198
    7bbb    H11  227   3.357   9.595   4.305 -1.0778 -3.1396 -2.0083
    7bbb    H12  228   3.216   9.652   4.394 -1.9132  0.7223 -1.3066
    7bbb     C7  229   2.938   9.477   4.653  0.3479 -0.2500  0.4155
    7bbb    H13  230   2.947   9.433   4.753  0.5776  1.2299  1.0682
    7bbb    H14  231   2.841   9.449   4.608  0.1463  0.7787  0.1926
    7bbb     C8  232   3.268   9.778   4.224  0.2913  0.4520  0.0472
    7bbb    H15  233   3.172   9.830   4.216  1.2365  2.1604 -0.6271
    7bbb    H16  234   3.337   9.840   4.282 -1.3271  0.5104  1.9897
    7bbb     C9  235   3.035   9.049   4.220  0.1587 -0.3833 -0.4092
    7bbb    H17  236   3.037   8.960   4.285 -2.0738 -0.6861 -0.6576
    7bbb    H18  237   3.097   9.039   4.130 -0.4004  0.8274 -0.9489
    7bbb     O1  238   2.954   9.623   4.660  0.0076  0.3332  0.6372
    7bbb    H19  239   3.224   9.400   4.347 -0.0785 -0.7579 -0.0943
    8bbb     N1  240   3.122   9.730   6.569  0.1816 -0.6013 -0.0197
    8bbb     C1  241   3.016   9.623   6.559  0.1374  0.5071  0.0312
    8bbb     H1  242   3.071   9.530   6.572  0.7188  0.9183  0.6434
    8bbb     H2  243   2.973   9.634   6.460 -3.1409 -1.0636  1.1463
    8bbb     C2  244   3.199   9.706   6.696 -0.6584 -0.6219 -0.6346
    8bbb     H3  245   3.287   9.647   6.675 -0.4371 -1.0891  1.3928
    8bbb     H4  246   3.136   9.637   6.752  0.6771 -1.3041  0.0747
    8bbb     C3  247   3.217   9.716   6.452  0.1309 -0.5949  0.1494
    8bbb     H5  248   3.242   9.610   6.447  0.7359 -0.5627  1.8307
    8bbb     H6  249   3.314   9.758   6.480  0.2811 -0.8940  0.0821
    8bbb     C4  250   3.174   9.773   6.323 -0.4515  0.0093  0.4177
    8bbb     H7  251   3.118   9.864   6.346  0.9285  0.3104  2.9638
    8bbb     H8  252   3.098   9.704   6.284 -0.2501  0.6703 -1.2657
    8bbb     C5  253   2.894   9.632   6.655  0.9667 -0.3016 -0.0089
    8bbb     H9  254   2.886   9.737   6.685 -0.2308 -0.1531 -0.7560
    8bbb    H10  255   2.917   9.576   6.746  1.8081 -1.7329 -1.0553
    8bbb     C6  256   3.233   9.818   6.797 -0.0077 -0.1039 -0.3136
    8bbb    H11  257   3.264   9.908   6.744  0.7784  0.4079  0.9704
    8bbb    H12  258   3.327   9.799   6.849  0.0003  2.5544  0.7983
    8bbb     C7  259   3.285   9.800   6.219 -0.7754 -0.4108  0.1381
    8bbb    H13  260   3.232   9.834   6.130 -0.0604  0.6693  0.1104
    8bbb    H14  261   3.335   9.708   6.187  1.2125  0.9510 -0.8141
    8bbb     C8  262   3.117   9.838   6.898 -1.0562 -1.3652 -0.3282
    8bbb    H15  263   3.132   9.939   6.939  0.9381 -1.1311 -1.5192
    8bbb    H16  264   3.018   9.845   6.851 -0.9985 -2.6081 -0.6693
    8bbb     C9  265   2.760   9.591   6.591 -0.0687  0.0380  0.0784
    8bbb    H17  266   2.739   9.486   6.614 -0.8618  0.7459  2.8575
    8bbb    H18  267   2.777   9.602   6.483  0.0113  2.5170  0.2778
    8bbb     O1  268   3.389   9.893   6.256  0.1264  0.2916  0.0148
    8bbb    H19  269   3.093   9.829   6.571  3.2792  0.4336 -0.2660
    9bbb     N1  270   4.650   9.869   6.308 -0.1177 -0.3920  1.3846
    9bbb     C1  271   4.724   9.967   6.395 -0.1136 -0.0732 -0.2703
    9bbb     H1  272   4.700   9.935   6.497  0.3287 -1.6599 -0.6280
    9bbb     H2  273   4.674  10.062   6.380  0.2688 -0.0079 -1.2067
    9bbb     C2  274   4.660   9.723   6.351  0.2007  0.6940 -0.0595
    9bbb     H3  275   4.599   9.722   6.441 -0.5174  1.9499 -0.5046
    9bbb     H4  276   4.761   9.698   6.386 -0.1190 -1.6891 -0.6803
    9bbb     C3  277   4.507   9.920   6.269 -0.0353 -0.1436  0.0446
    9bbb     H5  278   4.470   9.863   6.184  2.2663 -2.9929  0.7561
    9bbb     H6  279   4.524  10.020   6.230  0.8548 -0.6981 -1.0576
    9bbb     C4  280   4.401   9.915   6.385 -0.2068  0.2291  0.6680
    9bbb     H7  281   4.436   9.954   6.481  0.8422  0.5145  0.1820
    9bbb     H8  282   4.368   9.812   6.400 -0.8248  0.6294  2.3135
    9bbb     C5  283   4.876   9.986   6.373  0.1214  0.2376 -0.6112
    9bbb     H9  284   4.908  10.039   6.282 -1.3960  2.5155  0.1064
    9bbb    H10  285   4.924   9.887   6.381 -0.5958 -0.0009  1.3346
    9bbb     C6  286   4.612   9.610   6.257  0.4173  0.5123  0.0523
    9bbb    H11  287   4.502   9.611   6.248  0.3745 -1.8967 -0.4336
    9bbb    H12  288   4.643   9.513   6.296  1.6664  0.3031 -1.3708
    9bbb     C7  289   4.275  10.004   6.342 -0.7258  0.0892 -0.4551
    9bbb    H13  290   4.232   9.950   6.257 -0.4880 -1.0577  0.1409
    9bbb    H14  291   4.311  10.106   6.325 -1.5140  0.5834  0.6886
    9bbb     C8  292   4.671   9.633   6.115  0.4468 -0.3601  0.4285
    9bbb    H15  293   4.662   9.542   6.054  0.4450 -0.7410  0.9891
    9bbb    H16  294   4.620   9.719   6.070  1.0787 -1.5239 -2.8012
    9bbb     C9  295   4.942  10.055   6.498 -0.6993 -0.2822  0.0961
    9bbb    H17  296   4.908  10.013   6.594  1.5525 -0.9947  0.6471
    9bbb    H18  297   4.916  10.161   6.497  0.1406 -0.0703 -0.0164
    9bbb     O1  298   4.175  10.004   6.445 -0.2007  0.2919 -0.5010
    9bbb    H19  299   4.705   9.882   6.222 -0.2744 -0.4914  1.2684
   10bbb     N1  300   4.089  12.134   3.973  0.0721 -0.0509 -0.3429
   10bbb     C1  301   4.149  12.265   4.023 -0.0960 -0.0152  0.7022
   10bbb     H1  302   4.256  12.252   4.009 -0.5190 -2.1099 -1.2543
   10bbb     H2  303   4.118  12.272   4.127  1.5017 -1.3637  1.3072
   10bbb     C2  304   4.155  12.096   3.840  0.4668 -0.1538 -0.1840
   10bbb     H3  305   4.248  12.040   3.851  0.9097  0.6454  0.2305
   10bbb     H4  306   4.178  12.177   3.772 -1.2015 -2.5295 -3.8987
   10bbb     C3  307   4.116  12.025   4.073  0.2253 -0.6965 -0.4235
   10bbb     H5  308   4.140  12.085   4.161  0.1919  1.8921 -2.0684
   10bbb     H6  309   4.211  11.975   4.053  0.0045 -1.7607  1.0137
   10bbb     C4  310   4.010  11.913   4.093  0.2190  0.6487  0.7183
   10bbb     H7  311   4.026  11.824   4.032 -0.4880  0.7520  0.3766
   10bbb     H8  312   3.915  11.954   4.057 -0.5245 -1.0877  0.6326
   10bbb     C5  313   4.113  12.392   3.952  0.2847 -0.2902  0.1165
   10bbb     H9  314   4.148  12.380   3.849  2.4738  2.0322  0.4811
   10bbb    H10  315   4.161  12.483   3.992  0.9610 -0.2161 -0.8381
   10bbb     C6  316   4.054  12.007   3.767 -0.1776 -0.5121  0.1923
   10bbb    H11  317   3.963  12.067   3.760  0.3502  0.2056 -0.8079
   10bbb    H12  318   4.025  11.925   3.833 -1.2154  0.5944  1.1693
   10bbb     C7  319   4.008  11.871   4.242 -0.4116  0.3698 -0.5341
   10bbb    H13  320   4.112  11.839   4.254 -0.0565  1.4045 -0.7830
   10bbb    H14  321   3.941  11.784   4.252 -0.9894  0.7048 -1.3734
   10bbb     C8  322   4.117  11.954   3.640 -0.7368 -0.7382  0.3097
   10bbb    H15  323   4.213  11.906   3.664 -0.4611 -0.2873  0.1332
   10bbb    H16  324   4.049  11.884   3.590 -3.3564  1.7913  0.1053
   10bbb     C9  325   3.956  12.417   3.937  0.5745 -0.0703  0.5075
   10bbb    H17  326   3.921  12.516   3.904 -1.4571 -0.4352  1.3941
   10bbb    H18  327   3.915  12.416   4.039 -1.3777  3.3766 -0.0629
   10bbb     O1  328   3.966  11.979   4.342  0.2780 -0.3691 -0.3333
   10bbb    H19  329   3.994  12.172   3.959  0.4603  0.5024 -1.7210
   11bbb     N1  330   4.530  12.506   5.079  0.1119  0.1008 -0.0147
   11bbb     C1  331   4.612  12.611   5.013 -0.6486 -1.1176  0.0931
   11bbb     H1  332   4.683  12.652   5.085 -2.8492 -0.4846  2.0385
   11bbb     H2  333   4.545  12.691   4.979  1.4369 -0.1401 -1.9659
   11bbb     C2  334   4.485  12.575   5.207  0.1137  0.2226  0.4722
   11bbb     H3  335   4.431  12.668   5.192  0.6305  0.3859 -0.4130
   11bbb     H4  336   4.576  12.597   5.263 -0.2263 -0.9792  1.5518
   11bbb     C3  337   4.419  12.467   4.980 -0.1129 -0.6713  0.5990
   11bbb     H5  338   4.455  12.474   4.877 -0.4623 -1.1879  0.4421
   11bbb     H6  339   4.339  12.538   5.002 -0.8957 -1.9734  2.1868
   11bbb     C4  340   4.371  12.326   4.995 -0.6913  0.3502 -1.0096
   11bbb     H7  341   4.324  12.315   5.093  0.8888 -1.7098 -0.4121
   11bbb     H8  342   4.464  12.268   5.007  0.4335  2.4713  1.2378
   11bbb     C5  343   4.702  12.574   4.888  0.3937  0.1531  0.2190
   11bbb     H9  344   4.641  12.550   4.801 -1.8815  1.0030  1.4995
   11bbb    H10  345   4.753  12.483   4.922  2.0753  1.7410  2.3091
   11bbb     C6  346   4.404  12.489   5.309 -0.5471 -0.5471  0.6339
   11bbb    H11  347   4.449  12.390   5.325 -0.3648 -0.8496 -1.4165
   11bbb    H12  348   4.306  12.464   5.268 -0.5051  0.9294 -0.4618
   11bbb     C7  349   4.275  12.277   4.882  0.6074  0.3569  0.8964
   11bbb    H13  350   4.244  12.174   4.902  0.8941 -0.8399 -3.6250
   11bbb    H14  351   4.319  12.270   4.781  1.4211  4.1308  0.8430
   11bbb     C8  352   4.380  12.571   5.443  0.2745  0.5806  0.0516
   11bbb    H15  353   4.317  12.660   5.429  1.1471  1.3558  0.9993
   11bbb    H16  354   4.321  12.506   5.509  0.3390  2.4829  2.0776
   11bbb     C9  355   4.812  12.672   4.857 -0.2035 -0.4124 -0.2853
   11bbb    H17  356   4.858  12.709   4.950  0.1547  0.6818 -0.8776
   11bbb    H18  357   4.766  12.763   4.817 -2.5310 -1.7984 -0.9067
   11bbb     O1  358   4.152  12.354   4.865  0.2953  0.5512  0.4741
   11bbb    H19  359   4.596  12.428   5.093  1.2186  0.7429 -1.3487
   12bbb     N1  360   2.475  12.670   6.586  0.3936  0.0824 -0.6252
   12bbb     C1  361   2.405  12.643   6.717 -0.3818  0.2967  0.0251
   12bbb     H1  362   2.412  12.739   6.769 -1.4592  1.5119 -1.9303
   12bbb     H2  363   2.452  12.565   6.777 -0.7247  0.7658  0.9148
   12bbb     C2  364   2.601  12.758   6.608  0.3110  0.7692 -0.0989
   12bbb     H3  365   2.562  12.842   6.665 -1.4925 -0.2973  0.3036
   12bbb     H4  366   2.630  12.769   6.503 -1.6918  1.6574 -0.6123
   12bbb     C3  367   2.512  12.535   6.523  0.0597  0.3109 -0.0982
   12bbb     H5  368   2.423  12.472   6.528  1.9152 -2.4167  1.4047
   12bbb     H6  369   2.595  12.487   6.577 -1.1461 -0.4567  1.1560
   12bbb     C4  370   2.569  12.540   6.375  0.4738 -0.0291 -0.2411
   12bbb     H7  371   2.663  12.598   6.379  1.1867 -1.2071  0.7565
   12bbb     H8  372   2.490  12.590   6.318 -0.9375 -0.2617  1.4348
   12bbb     C5  373   2.253  12.604   6.690  0.1098 -0.9691 -0.4745
   12bbb     H9  374   2.248  12.502   6.652  0.7434 -0.6310 -1.5240
   12bbb    H10  375   2.216  12.676   6.615 -1.0927  0.1847  1.1394
   12bbb     C6  376   2.714  12.696   6.694  0.8152  0.1961  0.4722
   12bbb    H11  377   2.766  12.618   6.636  1.8770  1.6412 -0.5671
   12bbb    H12  378   2.682  12.662   6.794 -1.1495 -0.1806 -0.2462
   12bbb     C7  379   2.592  12.410   6.285  0.4365 -0.4101  0.3900
   12bbb    H13  380   2.495  12.362   6.267 -0.5212  0.4690  2.7740
   12bbb    H14  381   2.641  12.324   6.332 -3.6601 -2.4958  1.3572
   12bbb     C8  382   2.807  12.814   6.719 -0.3520 -0.7622 -0.1568
   12bbb    H15  383   2.906  12.772   6.743 -0.0791  0.3972  0.8816
   12bbb    H16  384   2.827  12.865   6.624 -0.4359 -0.4856 -0.0266
   12bbb     C9  385   2.166  12.612   6.812  0.1948  0.5844 -0.7822
   12bbb    H17  386   2.068  12.566   6.798  0.8634 -0.6348 -1.6741
   12bbb    H18  387   2.136  12.716   6.832 -0.3679  0.7500 -2.3449
   12bbb     O1  388   2.660  12.449   6.166  0.0440  0.2931 -0.2687
   12bbb    H19  389   2.417  12.723   6.519 -0.3684 -0.5446 -0.4744
   13bbb     N1  390   1.934  12.833   5.554  0.2711 -0.6307 -0.4638
   13bbb     C1  391   1.786  12.852   5.597 -0.6355  0.3646  0.3706
   13bbb     H1  392   1.756  12.759   5.644  1.1492 -2.1253 -2.9947
   13bbb     H2  393   1.723  12.880   5.513 -0.2753  1.1055  0.3341
   13bbb     C2  394   1.988  12.966   5.493 -0.2954 -0.0133  0.9098
   13bbb     H3  395   1.997  13.035   5.577  1.7793 -1.2213  1.7622
   13bbb     H4  396   1.919  12.999   5.415  1.6472 -0.6747 -1.1997
   13bbb     C3  397   2.027  12.798   5.674  0.4649 -0.0375  0.5130
   13bbb     H5  398   2.047  12.883   5.740  0.5258  0.5667 -0.2665
   13bbb     H6  399   2.124  12.767   5.635  0.6048 -1.2617  1.7570
   13bbb     C4  400   1.984  12.670   5.748 -0.3455 -0.0176  0.6714
   13bbb     H7  401   1.985  12.582   5.684  1.6236 -0.6171  1.4571
   13bbb     H8  402   1.881  12.677   5.786 -0.4060  1.0108  0.3695
   13bbb     C5  403   1.767  12.968   5.705 -0.2742  0.3916 -0.1902
   13bbb     H9  404   1.811  13.065   5.679 -0.0710  0.8872  1.8172
   13bbb    H10  405   1.824  12.939   5.795 -1.9470 -1.5261  0.3487
   13bbb     C6  406   2.135  12.968   5.438 -0.1665  0.3408 -0.1670
   13bbb    H11  407   2.140  12.911   5.344  2.4233  1.2135 -0.6365
   13bbb    H12  408   2.213  12.923   5.500  0.0041  1.5555  0.5213
   13bbb     C7  409   2.087  12.642   5.862  0.3197  0.5966 -0.3502
   13bbb    H13  410   2.048  12.555   5.916 -1.9206  2.3959  1.0948
   13bbb    H14  411   2.082  12.723   5.935 -1.8404  2.0786 -2.0329
   13bbb     C8  412   2.164  13.114   5.407 -0.9449  0.4296 -0.4505
   13bbb    H15  413   2.092  13.164   5.341  0.6356  2.9912 -0.3865
   13bbb    H16  414   2.151  13.175   5.497 -0.6881  0.2126 -0.2661
   13bbb     C9  415   1.615  12.996   5.737 -0.0286  0.4110 -0.9435
   13bbb    H17  416   1.609  13.057   5.828  0.2276  0.4966 -0.9851
   13bbb    H18  417   1.553  12.907   5.754  0.0809  0.2441 -1.3955
   13bbb     O1  418   2.221  12.614   5.804 -0.1404 -0.0224  0.2084
   13bbb    H19  419   1.938  12.756   5.486  3.1608 -0.5652 -0.5142
   14bbb     N1  420   1.386   9.544   4.520 -0.2340  0.5840  0.4916
   14bbb     C1  421   1.236   9.535   4.500 -0.1409  0.1094 -0.0247
   14bbb     H1  422   1.204   9.513   4.602  0.9488 -1.6884 -0.0207
   14bbb     H2  423   1.223   9.446   4.439  0.8658 -1.6378  2.1405
   14bbb     C2  424   1.441   9.427   4.597 -0.5902  0.4704  0.6652
   14bbb     H3  425   1.390   9.422   4.693  1.6478 -0.5341  1.8821
   14bbb     H4  426   1.541   9.465   4.617 -0.8019  1.0210  0.6887
   14bbb     C3  427   1.454   9.550   4.384 -0.6226 -0.0919 -0.7193
   14bbb     H5  428   1.416   9.647   4.353  0.2201  1.4230  2.5494
   14bbb     H6  429   1.429   9.466   4.318 -2.4132  0.8307 -1.2836
   14bbb     C4  430   1.610   9.572   4.392 -0.4130 -0.1055 -0.0024
   14bbb     H7  431   1.663   9.478   4.415  0.5115  0.4354  0.1210
   14bbb     H8  432   1.646   9.633   4.476  1.1103 -0.5991 -0.2558
   14bbb     C5  433   1.156   9.653   4.444  0.2751  0.6080 -0.6124
   14bbb     H9  434   1.155   9.668   4.336 -2.2361 -0.7437 -0.8651
   14bbb    H10  435   1.182   9.745   4.497 -2.1759 -0.7448  3.3809
   14bbb     C6  436   1.447   9.289   4.528  0.2980  0.6921 -0.1848
   14bbb    H11  437   1.502   9.226   4.599  0.5621  0.6988 -0.3852
   14bbb    H12  438   1.505   9.300   4.436  1.6936  0.6670  0.6614
   14bbb     C7  439   1.668   9.623   4.262 -0.5552  0.4300  0.2156
   14bbb    H13  440   1.625   9.716   4.222  0.5536  0.0189 -2.0917
   14bbb    H14  441   1.645   9.549   4.184 -1.0190 -2.0096  2.5351
   14bbb     C8  442   1.307   9.230   4.501  0.2492 -0.1453 -0.7621
   14bbb    H15  443   1.268   9.259   4.403  0.8809 -3.3569 -2.0964
   14bbb    H16  444   1.326   9.122   4.495  0.5689 -0.1853  0.6218
   14bbb     C9  445   1.016   9.622   4.481 -0.6258 -0.6499 -0.0268
   14bbb    H17  446   1.003   9.636   4.589  1.3309  2.2252 -0.0530
   14bbb    H18  447   0.977   9.524   4.450 -1.1403 -0.0370 -1.3959
   14bbb     O1  448   1.809   9.625   4.268 -0.4965  0.0777 -0.0274
   14bbb    H19  449   1.413   9.629   4.571  0.4070  0.1488  0.8891
   15bbb     N1  450   1.815  10.273   3.738  1.1150  0.4748 -0.1147
   15bbb     C1  451   1.880  10.348   3.626  0.2046 -0.6131 -0.6822
   15bbb     H1  452   1.827  10.443   3.621 -0.9831 -1.1788  0.4088
   15bbb     H2  453   1.863  10.292   3.534 -1.1013  0.3312 -1.0433
   15bbb     C2  454   1.666  10.271   3.716  0.2785  0.0130 -0.0302
   15bbb     H3  455   1.615  10.196   3.777  0.7489  0.3384  0.7839
   15bbb     H4  456   1.661  10.248   3.609 -1.1817  0.4438 -0.0753
   15bbb     C3  457   1.871  10.135   3.757  0.0757  0.3008 -0.4496
   15bbb     H5  458   1.980  10.146   3.758  0.3514 -1.7284  2.4564
   15bbb     H6  459   1.834  10.089   3.666 -2.2138  0.1616  0.4715
   15bbb     C4  460   1.828  10.068   3.888  0.7307  0.4431  0.1556
   15bbb     H7  461   1.879   9.972   3.903 -0.1103  0.0912  0.8611
   15bbb     H8  462   1.720  10.047   3.887  0.5350  1.3639  0.5808
   15bbb     C5  463   2.030  10.375   3.645  0.0984  0.2743  0.3020
   15bbb     H9  464   2.089  10.283   3.655 -0.5528 -0.0627  1.1814
   15bbb    H10  465   2.045  10.432   3.737 -2.0711 -1.6598  2.0026
   15bbb     C6  466   1.584  10.396   3.730  0.0792  0.6262  0.0970
   15bbb    H11  467   1.479  10.369   3.714  0.8074 -1.5350 -1.4385
   15bbb    H12  468   1.617  10.467   3.654 -1.4921 -0.8819 -2.1004
   15bbb     C7  469   1.848  10.151   4.020 -0.5917  0.4950 -0.3565
   15bbb    H13  470   1.808  10.091   4.102  0.7880  1.3338  0.9910
   15bbb    H14  471   1.790  10.244   4.021  0.4654  1.2912 -3.2407
   15bbb     C8  472   1.591  10.453   3.879 -0.5975 -0.4758 -0.2957
   15bbb    H15  473   1.537  10.392   3.952  1.9936  0.9917  3.0966
   15bbb    H16  474   1.544  10.553   3.884  0.5256  0.0377  0.1709
   15bbb     C9  475   2.084  10.435   3.511  0.2792  0.7038 -0.6573
   15bbb    H17  476   2.060  10.542   3.504  0.7270  1.2878  3.7463
   15bbb    H18  477   2.193  10.421   3.518  0.2677  1.1362  0.7884
   15bbb     O1  478   1.988  10.182   4.038 -0.1866  0.2264  0.1121
   15bbb    H19  479   1.820  10.327   3.826 -2.2173  1.3272 -0.2843
   16bbb     N1  480   3.507   9.738   3.669  0.5932 -0.2841  0.3540
   16bbb     C1  481   3.662   9.766   3.661 -0.1079  0.3121  0.0096
   16bbb     H1  482   3.700   9.721   3.568 -2.0325  3.7593 -2.6725
   16bbb     H2  483   3.705   9.724   3.752 -0.9670  1.8595  1.1810
   16bbb     C2  484   3.474   9.593   3.662 -0.1067 -0.0799  0.8398
   16bbb     H3  485   3.366   9.585   3.671  0.0531 -1.1648  2.0729
   16bbb     H4  486   3.524   9.543   3.745  3.7691  1.1417 -0.5451
   16bbb     C3  487   3.465   9.773   3.816 -0.0336  0.0437  1.1714
   16bbb     H5  488   3.491   9.878   3.828 -0.5977  0.1651  1.3804
   16bbb     H6  489   3.520   9.710   3.886 -0.5819 -0.6414  1.0013
   16bbb     C4  490   3.314   9.774   3.850  0.0728 -0.3310 -0.1401
   16bbb     H7  491   3.268   9.676   3.831 -1.5143  0.1409  0.9716
   16bbb     H8  492   3.275   9.845   3.776  0.3490  1.0343  0.9733
   16bbb     C5  493   3.697   9.913   3.645 -0.6198  0.1270  0.6741
   16bbb     H9  494   3.802   9.926   3.672 -0.4814 -1.4169  0.9459
   16bbb    H10  495   3.664   9.982   3.723 -0.7836  0.2287  0.5191
   16bbb     C6  496   3.520   9.515   3.538  0.2337 -0.1554  0.3663
   16bbb    H11  497   3.499   9.408   3.550 -0.9530 -0.1248 -1.0623
   16bbb    H12  498   3.627   9.531   3.522  0.1023 -0.3326 -0.8188
   16bbb     C7  499   3.279   9.830   3.989 -0.2972 -0.8237  0.3083
   16bbb    H13  500   3.169   9.831   3.989 -0.3595  0.0459 -2.4124
   16bbb    H14  501   3.317   9.932   4.003 -1.1917 -0.5980  1.2618
   16bbb     C8  502   3.454   9.565   3.414 -0.2674 -0.7675 -0.0702
   16bbb    H15  503   3.346   9.549   3.423 -0.5114  0.8480  0.1632
   16bbb    H16  504   3.478   9.670   3.396 -1.2556 -0.3230  1.0884
   16bbb     C9  505   3.674   9.964   3.504  0.4152  0.9899  0.0754
   16bbb    H17  506   3.729  10.059   3.511  2.1603 -0.0513  1.1088
   16bbb    H18  507   3.566   9.968   3.486 -0.2554 -1.8607  2.6265
   16bbb     O1  508   3.324   9.743   4.094  0.0911 -0.5223 -0.1824
   16bbb    H19  509   3.457   9.783   3.591 -0.7295  0.2353  1.4733
   17bbb     N1  510   2.768   8.625   4.151  0.2421 -1.0021  0.4006
   17bbb     C1  511   2.712   8.573   4.018 -0.6632 -0.2411  0.7821
   17bbb     H1  512   2.767   8.620   3.937 -0.7480 -0.8714  0.3447
   17bbb     H2  513   2.609   8.609   4.007 -0.8227 -1.2472 -1.7595
   17bbb     C2  514   2.907   8.570   4.169 -0.2215  0.5081 -1.1863
   17bbb     H3  515   2.980   8.632   4.118  0.8006  1.4555  1.2934
   17bbb     H4  516   2.908   8.466   4.138 -0.4843  0.4824 -1.1157
   17bbb     C3  517   2.762   8.779   4.156 -0.4378  0.0016 -0.1528
   17bbb     H5  518   2.802   8.808   4.254 -1.2686 -2.4149  0.9961
   17bbb     H6  519   2.655   8.802   4.153 -0.9022 -1.8764  0.5077
   17bbb     C4  520   2.838   8.866   4.043  0.7420  0.1745 -0.9088
   17bbb     H7  521   2.797   8.841   3.944  0.5079  1.1043 -1.0552
   17bbb     H8  522   2.941   8.830   4.044 -0.2060 -2.8477  0.9966
   17bbb     C5  523   2.725   8.426   3.985  0.0676 -0.6114  0.4047
   17bbb     H9  524   2.700   8.365   4.072 -0.2362 -0.1891  0.6167
   17bbb    H10  525   2.828   8.403   3.957 -0.0432  0.8141 -1.3746
   17bbb     C6  526   2.969   8.572   4.316 -0.0603  0.5380 -0.6982
   17bbb    H11  527   2.967   8.672   4.362  0.6602  1.3387 -2.3545
   17bbb    H12  528   3.074   8.545   4.303 -0.0932  0.8918 -1.7777
   17bbb     C7  529   2.838   9.018   4.072  0.1263  0.0028 -0.4074
   17bbb    H13  530   2.737   9.059   4.069  1.3716  3.4026 -0.6151
   17bbb    H14  531   2.897   9.072   3.997  1.8094  0.6463  1.2664
   17bbb     C8  532   2.913   8.478   4.421 -0.2835 -0.1939 -0.2631
   17bbb    H15  533   2.937   8.520   4.519  0.5609  2.5188 -1.5369
   17bbb    H16  534   2.804   8.483   4.417 -0.4050 -1.3018  0.8338
   17bbb     C9  535   2.635   8.380   3.869  0.4360 -0.1433 -0.3271
   17bbb    H17  536   2.647   8.273   3.848 -0.0365 -0.3032  0.1877
   17bbb    H18  537   2.655   8.429   3.773 -1.1916 -1.3246 -1.3142
   17bbb     O1  538   2.895   9.058   4.202  0.4400  0.5702 -0.0182
   17bbb    H19  539   2.705   8.588   4.224 -0.3179  1.1473  1.0896
   18bbb     N1  540   3.065   9.591   7.487  0.5050  0.5766  0.5447
   18bbb     C1  541   3.038   9.681   7.616  0.3668  0.1414 -0.3113
   18bbb     H1  542   3.038   9.607   7.697 -1.2324  0.9349  0.4741
   18bbb     H2  543   2.940   9.727   7.606 -0.6986 -2.2321 -1.9186
   18bbb     C2  544   2.982   9.462   7.491  0.1460  0.2521  0.5514
   18bbb     H3  545   2.892   9.496   7.441  0.2754  0.8362  0.7113
   18bbb     H4  546   2.957   9.446   7.596 -1.1479 -0.9248  0.0991
   18bbb     C3  547   3.031   9.684   7.367  0.1909  0.1237 -0.2924
   18bbb     H5  548   3.060   9.779   7.410  1.4203 -0.2150 -0.3409
   18bbb     H6  549   2.922   9.686   7.359  0.0140  0.3644  1.8320
   18bbb     C4  550   3.094   9.663   7.223  0.1578 -0.4662  0.4269
   18bbb     H7  551   3.073   9.562   7.184 -0.3483 -0.6667  1.2047
   18bbb     H8  552   3.203   9.675   7.216  0.0389  0.8577  0.5404
   18bbb     C5  553   3.141   9.795   7.641  0.4490 -0.0840  0.1761
   18bbb     H9  554   3.114   9.831   7.741 -1.7424 -2.1771  0.4369
   18bbb    H10  555   3.115   9.881   7.579 -0.3360  0.2482  0.9315
   18bbb     C6  556   3.044   9.328   7.430  0.1642 -0.3438  0.9924
   18bbb    H11  557   3.153   9.329   7.445  0.3797  2.3302 -0.0647
   18bbb    H12  558   3.024   9.330   7.322  0.0785  0.6196  1.0185
   18bbb     C7  559   3.054   9.762   7.112 -0.2526  0.5839 -0.3531
   18bbb    H13  560   3.068   9.865   7.148  1.9480  0.1190  0.2557
   18bbb    H14  561   2.949   9.748   7.085 -0.0194 -0.6227 -0.7112
   18bbb     C8  562   2.970   9.206   7.497 -0.3606  0.6591  0.2668
   18bbb    H15  563   2.867   9.212   7.459  0.3147  0.4741 -1.6666
   18bbb    H16  564   3.018   9.111   7.469  0.5122  0.6219  1.7443
   18bbb     C9  565   3.286   9.765   7.632 -0.4146  0.0180  0.6637
   18bbb    H17  566   3.302   9.717   7.535 -1.0603  0.3450  0.3896
   18bbb    H18  567   3.291   9.689   7.712  1.6473  0.6473  1.1993
   18bbb     O1  568   3.128   9.739   6.995  0.2451 -0.3792  0.1559
   18bbb    H19  569   3.162   9.557   7.489 -0.4067 -2.2542  0.9946
   19bbb     N1  570   2.228   9.779   6.830 -0.0385  0.0529  0.2447
   19bbb     C1  571   2.094   9.720   6.776 -0.5876  0.1680  0.1305
   19bbb     H1  572   2.102   9.611   6.774  0.9776 -0.1051  5.7668
   19bbb     H2  573   2.091   9.768   6.678 -0.1823 -0.6279 -0.2889
   19bbb     C2  574   2.229   9.766   6.982  0.5288 -0.3653  0.1093
   19bbb     H3  575   2.237   9.661   7.009 -2.3230 -0.6844  0.0425
   19bbb     H4  576   2.130   9.796   7.019 -1.3220 -2.5408 -2.6811
   19bbb     C3  577   2.342   9.696   6.775 -0.4926 -0.0167 -0.5016
   19bbb     H5  578   2.312   9.593   6.794 -1.3846  0.0093 -1.6001
   19bbb     H6  579   2.424   9.723   6.841 -1.4862  2.4311 -0.1583
   19bbb     C4  580   2.405   9.711   6.628 -0.1585  0.5802  0.0897
   19bbb     H7  581   2.434   9.811   6.594 -0.7174  0.9916  0.7942
   19bbb     H8  582   2.324   9.676   6.563  0.5004 -1.4107  0.2678
   19bbb     C5  583   1.958   9.769   6.840  0.3343 -0.7465 -0.0832
   19bbb     H9  584   1.946   9.878   6.842 -0.9710 -0.8578 -0.7560
   19bbb    H10  585   1.948   9.736   6.944 -0.5072 -0.2869 -0.0129
   19bbb     C6  586   2.341   9.846   7.051 -0.4970  0.4082  0.2605
   19bbb    H11  587   2.433   9.790   7.029 -1.1697 -0.3205 -0.7987
   19bbb    H12  588   2.325   9.856   7.159  1.0351  3.1272  0.3250
   19bbb     C7  589   2.522   9.609   6.600  0.3575 -0.0415  0.2472
   19bbb    H13  590   2.527   9.588   6.492  3.4303  0.2902  0.2374
   19bbb    H14  591   2.505   9.513   6.649  0.6013  0.3477  1.1116
   19bbb     C8  592   2.356   9.990   7.005  0.8273 -0.0209 -0.2025
   19bbb    H15  593   2.431  10.042   7.066  0.3264  0.6403 -0.1312
   19bbb    H16  594   2.393   9.979   6.903  2.0254 -0.3869  0.2541
   19bbb     C9  595   1.845   9.700   6.752  0.9961 -0.1460  0.0182
   19bbb    H17  596   1.874   9.604   6.708  1.6396  0.0333  0.0387
   19bbb    H18  597   1.814   9.772   6.675  3.4309  1.5351  0.4959
   19bbb     O1  598   2.650   9.671   6.639  0.4856 -0.1043 -0.0295
   19bbb    H19  599   2.230   9.880   6.809 -0.1899  0.4110  1.8423
   20bbb     N1  600   5.220   9.566   6.058  0.5302 -0.2938 -0.0900
   20bbb     C1  601   5.244   9.420   6.079  0.2428 -0.0879  0.0008
   20bbb     H1  602   5.269   9.388   5.978  1.9132  0.4991  0.2001
   20bbb     H2  603   5.146   9.378   6.104  0.3945 -0.9111 -0.7224
   20bbb     C2  604   5.316   9.629   5.958 -0.5332 -0.0714 -0.3611
   20bbb     H3  605   5.412   9.640   6.008 -0.6187 -1.5021  0.1666
   20bbb     H4  606   5.281   9.731   5.940  3.2470  1.4767  0.0217
   20bbb     C3  607   5.079   9.585   6.001  0.4850 -0.1379  0.1599
   20bbb     H5  608   5.021   9.500   6.037  2.9228 -1.1445  1.9746
   20bbb     H6  609   5.087   9.572   5.893 -0.8793  2.2306 -0.2948
   20bbb     C4  610   5.015   9.720   6.027 -0.0208  0.1201 -0.5209
   20bbb     H7  611   5.059   9.794   5.960  1.3388 -0.6068 -0.4668
   20bbb     H8  612   5.044   9.757   6.127  0.6845  1.4484 -1.1890
   20bbb     C5  613   5.350   9.376   6.183  0.0539  0.0235 -0.2184
   20bbb     H9  614   5.293   9.370   6.277 -2.0888  1.3740 -1.3437
   20bbb    H10  615   5.428   9.453   6.188 -0.8442  0.8727  2.0623
   20bbb     C6  616   5.344   9.550   5.825  0.0641 -0.0669 -0.0272
   20bbb    H11  617   5.252   9.513   5.779  0.0840  0.5573 -0.5829
   20bbb    H12  618   5.415   9.467   5.840  0.1152  0.2056  1.3742
   20bbb     C7  619   4.863   9.716   6.014  0.2065 -0.1845 -0.0697
   20bbb    H13  620   4.824   9.657   5.930 -1.6882 -0.2733  0.8189
   20bbb    H14  621   4.837   9.820   5.993  1.5313  0.5120  1.4975
   20bbb     C8  622   5.424   9.646   5.735 -0.2739  0.2578  0.3086
   20bbb    H15  623   5.374   9.743   5.728 -1.3032 -0.3458 -1.5489
   20bbb    H16  624   5.519   9.657   5.789 -1.4402 -2.0876  3.1299
   20bbb     C9  625   5.408   9.229   6.161 -0.2666 -0.8555 -0.2898
   20bbb    H17  626   5.494   9.234   6.093  0.9552  0.1896  1.2609
   20bbb    H18  627   5.329   9.167   6.117  0.0486 -0.6299 -1.2023
   20bbb     O1  628   4.809   9.669   6.135 -0.6157 -0.2861 -0.0103
   20bbb    H19  629   5.229   9.618   6.147  0.9690  2.5237 -1.6579
   21bbb     N1  630   5.192   9.878   6.887 -0.6271 -0.3551 -0.6638
   21bbb     C1  631   5.080   9.914   6.982  0.7185 -0.1844 -0.3957
   21bbb     H1  632   5.018   9.825   6.992  1.4392 -0.7231 -0.6049
   21bbb     H2  633   5.016   9.985   6.930  0.3840 -1.1412 -1.3397
   21bbb     C2  634   5.245   9.734   6.897 -0.3441 -0.1722  0.4941
   21bbb     H3  635   5.306   9.723   6.807  0.9647  0.9316  1.2092
   21bbb     H4  636   5.158   9.668   6.898  0.8563 -1.8092  1.0908
   21bbb     C3  637   5.152   9.916   6.749 -0.6671 -0.4946  0.6545
   21bbb     H5  638   5.049   9.887   6.728 -0.5621 -0.7540  0.4849
   21bbb     H6  639   5.223   9.865   6.684 -1.4423  1.1797 -1.5865
   21bbb     C4  640   5.165  10.072   6.722 -0.0237  0.7102  0.0385
   21bbb     H7  641   5.252  10.104   6.781 -0.5586  0.5479  0.9351
   21bbb     H8  642   5.078  10.130   6.756 -1.0100 -0.4648 -0.4026
   21bbb     C5  643   5.115   9.958   7.130  0.2332 -0.2726 -0.7911
   21bbb     H9  644   5.155   9.869   7.180  1.1247 -0.2462 -1.4344
   21bbb    H10  645   5.025   9.986   7.185  0.5704  0.3797 -0.5553
   21bbb     C6  646   5.335   9.705   7.022 -1.0899  0.1055 -0.0370
   21bbb    H11  647   5.286   9.731   7.117  0.5930  0.5233  0.7653
   21bbb    H12  648   5.424   9.769   7.015 -1.0489 -0.0918 -2.1146
   21bbb     C7  649   5.181  10.105   6.567 -0.0178  0.0427  0.4223
   21bbb    H13  650   5.286  10.086   6.541 -0.3293 -1.3645  0.0985
   21bbb    H14  651   5.164  10.212   6.553  0.6270  0.0266 -0.5903
   21bbb     C8  652   5.376   9.561   7.027  0.3653 -0.2016 -0.0272
   21bbb    H15  653   5.405   9.515   6.931  2.3555  0.7550  0.0674
   21bbb    H16  654   5.460   9.552   7.097  0.7173 -3.0999 -0.6891
   21bbb     C9  655   5.216  10.073   7.141  0.7387  0.8545  0.0529
   21bbb    H17  656   5.227  10.094   7.248 -0.1761  0.7527  0.1750
   21bbb    H18  657   5.192  10.167   7.090  0.2847  0.2223 -0.9134
   21bbb     O1  658   5.085  10.030   6.481 -0.8231 -0.1479  0.5277
   21bbb    H19  659   5.270   9.940   6.915 -2.8075  2.0758  0.4120
   22bbb     N1  660   4.309  12.438   3.369 -0.2058 -0.2086  0.1044
   22bbb     C1  661   4.383  12.546   3.440 -0.1623  0.3190 -0.0115
   22bbb     H1  662   4.409  12.626   3.371  4.1879 -0.6997  0.1161
   22bbb     H2  663   4.482  12.511   3.471  0.1510  1.7752  0.6897
   22bbb     C2  664   4.354  12.430   3.226  0.3232 -0.2304 -0.0429
   22bbb     H3  665   4.321  12.525   3.185  0.2285 -0.3879 -0.3354
   22bbb     H4  666   4.294  12.354   3.174  0.1867  0.8570 -1.5202
   22bbb     C3  667   4.306  12.307   3.452 -0.0771  0.0205  0.2600
   22bbb     H5  668   4.246  12.326   3.542  0.1790 -0.2969  0.4976
   22bbb     H6  669   4.402  12.269   3.485  0.0459 -0.6725 -0.8871
   22bbb     C4  670   4.237  12.197   3.373  0.1512 -0.1419  0.1196
   22bbb     H7  671   4.301  12.179   3.286 -0.5262 -1.3091 -0.1619
   22bbb     H8  672   4.140  12.230   3.336  0.0145  1.1684  1.5548
   22bbb     C5  673   4.309  12.610   3.570 -0.0790  0.6322 -0.0628
   22bbb     H9  674   4.291  12.528   3.641 -0.2723  0.4901 -0.2769
   22bbb    H10  675   4.211  12.643   3.535  0.3164  2.8981  0.8015
   22bbb     C6  676   4.505  12.411   3.197 -0.5365  0.2997 -0.3049
   22bbb    H11  677   4.560  12.333   3.251  0.6838  1.3241 -0.0068
   22bbb    H12  678   4.553  12.505   3.227 -0.5085  0.2358 -0.1481
   22bbb     C7  679   4.218  12.057   3.441 -0.4453  0.4257  0.6010
   22bbb    H13  680   4.317  12.013   3.458 -0.3501  0.6941  0.7615
   22bbb    H14  681   4.168  11.990   3.370 -0.9484  0.7339  0.6577
   22bbb     C8  682   4.530  12.380   3.046  0.4314  0.1132 -0.0953
   22bbb    H15  683   4.638  12.390   3.028  0.5672  2.8613  1.5842
   22bbb    H16  684   4.503  12.275   3.029 -1.1398 -0.1359  3.0796
   22bbb     C9  685   4.382  12.722   3.642  0.4173 -0.2325  0.9105
   22bbb    H17  686   4.484  12.689   3.664 -0.1601 -1.1235  2.4419
   22bbb    H18  687   4.326  12.756   3.731  0.2720  4.4058 -0.6945
   22bbb     O1  688   4.152  12.068   3.562  0.3491  0.5277 -0.5607
   22bbb    H19  689   4.212  12.472   3.364 -0.1610  0.1017  1.1801
   23bbb     N1  690   3.654  12.275   3.488  0.4513 -0.3020  0.5618
   23bbb     C1  691   3.643  12.387   3.373  0.3963 -0.3570 -0.0698
   23bbb     H1  692   3.632  12.322   3.286  1.0211 -0.7746  0.1547
   23bbb     H2  693   3.737  12.441   3.365 -1.4375  2.9214 -1.2586
   23bbb     C2  694   3.762  12.181   3.435  0.4395  0.2136 -0.0267
   23bbb     H3  695   3.853  12.239   3.452  0.8149 -0.4060  0.1390
   23bbb     H4  696   3.757  12.176   3.326  0.3798 -0.7111  0.0081
   23bbb     C3  697   3.703  12.330   3.618 -0.0081 -0.1912  0.0400
   23bbb     H5  698   3.650  12.425   3.632  1.8264  0.8103  0.5727
   23bbb     H6  699   3.804  12.370   3.608 -0.9289  2.3708  0.0779
   23bbb     C4  700   3.679  12.253   3.750 -0.2445  0.0512 -0.2340
   23bbb     H7  701   3.704  12.147   3.742  0.1467  0.2128 -1.3777
   23bbb     H8  702   3.571  12.254   3.770  0.0922 -1.4410  2.0220
   23bbb     C5  703   3.530  12.485   3.372  0.0791 -0.1786  0.2678
   23bbb     H9  704   3.552  12.553   3.456  0.1154 -0.8142  0.7779
   23bbb    H10  705   3.430  12.449   3.397 -0.0232  1.2476  2.1676
   23bbb     C6  706   3.773  12.039   3.475 -0.0420  0.2040  0.5483
   23bbb    H11  707   3.809  12.028   3.577 -0.6650 -0.7580  0.6837
   23bbb    H12  708   3.857  11.990   3.425 -0.1185  0.6111  0.0119
   23bbb     C7  709   3.746  12.306   3.872  0.5002 -0.6167 -0.9537
   23bbb    H13  710   3.720  12.242   3.958 -0.5326  0.0656 -0.7456
   23bbb    H14  711   3.705  12.406   3.892  1.1395 -0.3369 -1.0314
   23bbb     C8  712   3.639  11.958   3.453  0.0622 -0.2294 -0.4575
   23bbb    H15  713   3.651  11.849   3.458  0.8629 -0.1181  0.2859
   23bbb    H16  714   3.577  11.982   3.540  1.1462  0.4992  0.1272
   23bbb     C9  715   3.532  12.577   3.244 -0.4136  0.4436  0.1163
   23bbb    H17  716   3.557  12.513   3.159  0.3795  1.0807 -0.1360
   23bbb    H18  717   3.605  12.658   3.256  1.7243 -1.5024  1.0649
   23bbb     O1  718   3.891  12.310   3.853  0.4467 -0.0344  0.0593
   23bbb    H19  719   3.572  12.214   3.499  0.3037 -0.3254 -0.6015
   24bbb     N1  720   4.770  12.741   5.904 -0.1035  0.4661 -0.1961
   24bbb     C1  721   4.766  12.754   6.055  0.1985 -0.5543 -0.1822
   24bbb     H1  722   4.869  12.765   6.091  0.1430 -1.4005  0.2564
   24bbb     H2  723   4.719  12.670   6.107 -0.1817  0.8699  1.9121
   24bbb     C2  724   4.891  12.640   5.870  0.7399 -0.0561 -0.3061
   24bbb     H3  725   4.902  12.632   5.761 -0.8131  0.2252 -0.4999
   24bbb     H4  726   4.860  12.538   5.895 -1.6142  0.7868  0.4692
   24bbb     C3  727   4.633  12.697   5.848  0.3805  0.1299  0.3488
   24bbb     H5  728   4.560  12.767   5.890  0.5155 -0.5539  1.7784
   24bbb     H6  729   4.623  12.596   5.888  0.5560  0.1516  0.4513
   24bbb     C4  730   4.622  12.686   5.694 -0.8047 -0.2254 -0.0655
   24bbb     H7  731   4.691  12.607   5.661 -0.3802  0.1655 -0.1307
   24bbb     H8  732   4.660  12.780   5.652  0.7939  0.1230  1.9843
   24bbb     C5  733   4.686  12.883   6.091  0.3510 -0.4853 -0.4200
   24bbb     H9  734   4.683  12.900   6.200 -1.3506  1.2217 -0.6900
   24bbb    H10  735   4.583  12.880   6.055  0.6883  1.5431 -1.6790
   24bbb     C6  736   5.017  12.673   5.939 -0.0592  0.1018 -0.3324
   24bbb    H11  737   5.015  12.655   6.047 -1.5285 -0.0264 -0.3582
   24bbb    H12  738   5.038  12.780   5.929  0.5870  0.2815  2.1926
   24bbb     C7  739   4.485  12.664   5.638 -0.3621 -0.0230 -0.0940
   24bbb    H13  740   4.422  12.752   5.622  2.4352  2.3251  0.9271
   24bbb    H14  741   4.421  12.609   5.708 -2.2820  0.0205 -1.7507
   24bbb     C8  742   5.133  12.593   5.880  0.8061 -0.0404 -0.4899
   24bbb    H15  743   5.097  12.504   5.827 -3.2424  1.3068 -0.3891
   24bbb    H16  744   5.192  12.657   5.813  1.5227 -1.9552 -1.7367
   24bbb     C9  745   4.772  13.004   6.048  0.1337  0.3030  0.6331
   24bbb    H17  746   4.875  13.002   6.084  0.1471 -0.9469  0.5424
   24bbb    H18  747   4.731  13.097   6.090  1.2338  1.9760 -1.7862
   24bbb     O1  748   4.511  12.598   5.509  0.0796  0.4540 -0.1741
   24bbb    H19  749   4.797  12.824   5.850  1.1085  0.2199 -0.0126
   25bbb     N1  750   5.386  12.653   4.568 -0.9852 -0.1623 -0.0358
   25bbb     C1  751   5.465  12.585   4.682 -0.2028 -0.6773  0.5490
   25bbb     H1  752   5.398  12.507   4.716 -2.1470  0.7167  0.1106
   25bbb     H2  753   5.468  12.656   4.765 -0.9992  0.1333 -0.0889
   25bbb     C2  754   5.372  12.563   4.450 -0.1795  0.1793  0.7109
   25bbb     H3  755   5.289  12.493   4.453 -0.2036  0.1884  0.3500
   25bbb     H4  756   5.467  12.515   4.428 -0.6049 -1.2957  1.9925
   25bbb     C3  757   5.250  12.708   4.626 -1.1982 -0.0065 -0.0287
   25bbb     H5  758   5.217  12.777   4.548 -0.7516  0.4635  0.1887
   25bbb     H6  759   5.277  12.773   4.710  1.0104  0.9814 -1.3872
   25bbb     C4  760   5.132  12.612   4.662 -0.2410  0.4949  0.0933
   25bbb     H7  761   5.169  12.522   4.713  1.4581  1.2988  0.3540
   25bbb     H8  762   5.085  12.584   4.567  0.0710  0.9027 -0.1857
   25bbb     C5  763   5.601  12.527   4.639  0.0477  0.1416  0.2644
   25bbb     H9  764   5.584  12.445   4.568  0.1001 -0.0578  0.4797
   25bbb    H10  765   5.645  12.483   4.730  0.6842  1.2441  0.5047
   25bbb     C6  766   5.340  12.645   4.323  0.8084  0.3899 -0.3792
   25bbb    H11  767   5.247  12.704   4.320  1.1883  1.0757  0.6491
   25bbb    H12  768   5.320  12.569   4.247  1.2870 -0.5273  0.3911
   25bbb     C7  769   5.036  12.682   4.758 -0.1080 -0.3662 -0.7647
   25bbb    H13  770   5.017  12.784   4.724 -0.2461 -0.2883 -0.4527
   25bbb    H14  771   5.079  12.696   4.858 -1.3163  2.6851 -0.5874
   25bbb     C8  772   5.452  12.741   4.291 -0.5186 -0.2354  0.0883
   25bbb    H15  773   5.549  12.690   4.285  0.2418  1.1800 -0.3009
   25bbb    H16  774   5.432  12.790   4.195  0.2269 -1.7651 -0.8863
   25bbb     C9  775   5.694  12.639   4.585 -0.1796 -0.3442 -0.1487
   25bbb    H17  776   5.711  12.703   4.672 -1.1086 -0.3630  0.0555
   25bbb    H18  777   5.649  12.703   4.508  2.9436  1.3325 -0.7437
   25bbb     O1  778   4.915  12.613   4.773 -0.6173  0.6625  0.3675
   25bbb    H19  779   5.442  12.730   4.529  0.6312 -1.6369 -0.7779
   26bbb     N1  780   2.799  13.325   7.078 -0.2784 -0.3814 -0.5727
   26bbb     C1  781   2.745  13.275   7.211 -0.0481 -0.0110 -0.4396
   26bbb     H1  782   2.656  13.213   7.201  0.7368 -0.9387 -2.1304
   26bbb     H2  783   2.695  13.360   7.260  2.0008  0.9400  0.1086
   26bbb     C2  784   2.901  13.437   7.091 -0.6792 -0.1322  0.5164
   26bbb     H3  785   2.998  13.405   7.129 -0.0491 -1.1823 -1.7694
   26bbb     H4  786   2.858  13.510   7.160 -2.1501 -1.6489  1.2794
   26bbb     C3  787   2.864  13.212   6.993 -0.4761 -0.4193 -0.5676
   26bbb     H5  788   2.957  13.179   7.039  0.2710 -0.1455 -1.8191
   26bbb     H6  789   2.902  13.251   6.899  0.4765  0.8008  0.2950
   26bbb     C4  790   2.775  13.090   6.967  0.2494 -0.2568 -0.1376
   26bbb     H7  791   2.676  13.130   6.942 -0.1014 -1.0382 -0.0512
   26bbb     H8  792   2.763  13.026   7.056 -1.0227 -0.3759 -0.3727
   26bbb     C5  793   2.840  13.204   7.315 -0.1254 -0.1552  0.2983
   26bbb     H9  794   2.920  13.276   7.339 -1.1333  0.3350  2.3226
   26bbb    H10  795   2.882  13.114   7.268  0.6586  1.0926 -1.5432
   26bbb     C6  796   2.922  13.510   6.959  0.6802 -0.1795  0.2214
   26bbb    H11  797   2.822  13.518   6.914  0.2009 -2.0362  0.8968
   26bbb    H12  798   2.984  13.449   6.893  0.3794 -0.0349 -0.1971
   26bbb     C7  799   2.828  13.015   6.843 -0.3327  0.2791 -0.2311
   26bbb    H13  800   2.934  12.985   6.851 -0.7898 -1.2123  0.7522
   26bbb    H14  801   2.812  13.067   6.748  0.6101 -0.5612 -0.8774
   26bbb     C8  802   2.992  13.650   6.975  0.2230  0.3223 -0.1800
   26bbb    H15  803   2.970  13.711   6.888  0.8750  1.7446  0.6166
   26bbb    H16  804   2.938  13.700   7.056 -1.0657  0.8640 -1.3410
   26bbb     C9  805   2.764  13.168   7.441  0.3467 -0.4013  0.4428
   26bbb    H17  806   2.835  13.131   7.516  1.4999 -1.1336 -0.9570
   26bbb    H18  807   2.703  13.079   7.420  0.3987 -0.1730 -0.7263
   26bbb     O1  808   2.755  12.892   6.827  0.5473 -0.1458 -0.5738
   26bbb    H19  809   2.719  13.366   7.027 -0.3764 -0.0047 -0.1220
   27bbb     N1  810   1.868  12.668   7.203  0.2622  0.0522 -0.0958
   27bbb     C1  811   1.758  12.682   7.097  0.8767 -0.0468  0.4810
   27bbb     H1  812   1.804  12.698   6.999  3.3502  2.9421  1.9589
   27bbb     H2  813   1.704  12.774   7.122 -1.4784 -1.2392  0.1223
   27bbb     C2  814   1.803  12.682   7.344 -0.3063  0.0776 -0.1155
   27bbb     H3  815   1.727  12.603   7.349 -0.8560  0.6259  0.5125
   27bbb     H4  816   1.764  12.783   7.357 -0.7198 -0.4585  5.2321
   27bbb     C3  817   1.947  12.535   7.193 -0.3336  0.2239  0.1195
   27bbb     H5  818   1.863  12.466   7.199  0.5137 -0.6803  3.2093
   27bbb     H6  819   2.012  12.523   7.279  0.9318 -1.3676 -1.0081
   27bbb     C4  820   2.032  12.506   7.070  0.7861  0.4861  1.2392
   27bbb     H7  821   1.971  12.519   6.980 -1.7318 -5.4680  1.6444
   27bbb     H8  822   2.059  12.400   7.071 -0.7483 -0.0111 -1.2190
   27bbb     C5  823   1.649  12.573   7.088 -0.3496 -0.2645 -0.2537
   27bbb     H9  824   1.604  12.565   7.188 -2.0294  0.1216 -0.9446
   27bbb    H10  825   1.701  12.477   7.075  0.2481  0.1476 -0.9578
   27bbb     C6  826   1.891  12.664   7.468  0.2839  0.0146  0.6547
   27bbb    H11  827   1.965  12.745   7.475 -0.6434  0.8090  1.6167
   27bbb    H12  828   1.932  12.563   7.458 -0.2438 -0.0548 -1.1707
   27bbb     C7  829   2.164  12.589   7.056  0.0525  0.4872  0.0048
   27bbb    H13  830   2.233  12.558   7.135 -0.3647  0.5953  0.4172
   27bbb    H14  831   2.146  12.696   7.074  0.7065  0.4378  1.0727
   27bbb     C8  832   1.819  12.669   7.607  0.4353  0.0494 -0.6919
   27bbb    H15  833   1.728  12.731   7.601  0.1760 -0.2893 -0.2984
   27bbb    H16  834   1.877  12.724   7.682  1.1637 -0.8153 -0.6063
   27bbb     C9  835   1.549  12.584   6.980  0.2936 -0.0985 -0.0163
   27bbb    H17  836   1.597  12.647   6.904 -3.0316  1.6779 -0.8336
   27bbb    H18  837   1.514  12.486   6.945 -3.8155  1.2671 -0.3552
   27bbb     O1  838   2.229  12.564   6.929 -0.4675 -0.3600 -0.3790
   27bbb    H19  839   1.939  12.743   7.208 -1.0059  1.2316  1.9768
   28bbb     N1  840   2.502  13.515   5.373 -0.3584 -0.0719 -0.2055
   28bbb     C1  841   2.531  13.502   5.522 -0.1770 -0.7956  0.1703
   28bbb     H1  842   2.481  13.409   5.550 -0.7082 -0.4132  0.5292
   28bbb     H2  843   2.483  13.593   5.560  1.2695 -0.5911  1.5988
   28bbb     C2  844   2.558  13.642   5.318 -0.0806 -0.1094  0.4703
   28bbb     H3  845   2.663  13.632   5.291 -0.2327  1.3633 -0.8623
   28bbb     H4  846   2.548  13.706   5.405 -0.6503 -0.8251  0.9383
   28bbb     C3  847   2.555  13.395   5.289 -0.4788  0.0950  0.0136
   28bbb     H5  848   2.664  13.388   5.298 -0.5018 -0.3068  0.0005
   28bbb     H6  849   2.535  13.405   5.182  2.4003 -0.3899 -0.6582
   28bbb     C4  850   2.503  13.253   5.328 -0.0229 -0.6607 -0.1499
   28bbb     H7  851   2.550  13.221   5.422  0.7348 -3.1233 -1.2752
   28bbb     H8  852   2.555  13.182   5.263 -0.4009 -0.2970 -0.8544
   28bbb     C5  853   2.679  13.511   5.568  0.1367  0.0456  0.1497
   28bbb     H9  854   2.731  13.597   5.526  1.4082 -0.9279 -0.3441
   28bbb    H10  855   2.735  13.422   5.537  0.8168  0.5798 -0.1533
   28bbb     C6  856   2.475  13.716   5.208  0.3875  0.4084  0.3587
   28bbb    H11  857   2.385  13.757   5.256  0.7554 -0.2620  1.6662
   28bbb    H12  858   2.461  13.648   5.123  2.1716  1.5176 -0.8966
   28bbb     C7  859   2.348  13.249   5.323 -0.7690 -0.0873  0.4448
   28bbb    H13  860   2.311  13.265   5.221 -1.0171 -1.1627  0.3492
   28bbb    H14  861   2.304  13.321   5.393 -1.5936 -1.1560  1.0655
   28bbb     C8  862   2.556  13.837   5.151 -0.1736  0.2744  0.0036
   28bbb    H15  863   2.595  13.892   5.237  2.4070 -0.7049 -0.4554
   28bbb    H16  864   2.638  13.804   5.086 -1.9101 -2.1695 -1.1268
   28bbb     C9  865   2.682  13.526   5.718 -0.0406 -0.2372  0.1301
   28bbb    H17  866   2.782  13.531   5.765 -0.8315 -1.1174  2.0416
   28bbb    H18  867   2.640  13.429   5.749 -0.0478 -0.4421 -0.4977
   28bbb     O1  868   2.305  13.124   5.373  0.2963  0.2974  0.5521
   28bbb    H19  869   2.399  13.518   5.369 -0.3103  0.4694 -1.6154
   29bbb     N1  870   1.156  12.937   5.518  0.1447  0.9127  0.0092
   29bbb     C1  871   1.128  12.840   5.631 -0.2644 -0.7349 -0.1543
   29bbb     H1  872   1.095  12.892   5.721 -0.1026 -0.7474 -0.0875
   29bbb     H2  873   1.215  12.777   5.653 -0.5842 -1.0851  0.1285
   29bbb     C2  874   1.053  13.050   5.528 -0.6723 -0.1973  0.0997
   29bbb     H3  875   1.060  13.095   5.628 -2.3059  0.7087 -0.1441
   29bbb     H4  876   0.956  13.000   5.538 -0.2571 -0.6885  2.0975
   29bbb     C3  877   1.295  12.995   5.527 -0.1098  0.0576  0.7865
   29bbb     H5  878   1.308  13.059   5.440  0.8311  0.1190  0.9684
   29bbb     H6  879   1.370  12.917   5.514 -1.0704 -1.3202  2.8139
   29bbb     C4  880   1.325  13.072   5.660 -0.0824  0.9987  0.2886
   29bbb     H7  881   1.326  13.003   5.745 -1.0909  1.0702  0.3679
   29bbb     H8  882   1.250  13.147   5.688 -1.3313  0.2423 -0.9196
   29bbb     C5  883   1.037  12.733   5.578 -0.7758  0.7799 -0.1791
   29bbb     H9  884   1.087  12.671   5.504 -1.9313  0.4812 -0.7354
   29bbb    H10  885   0.951  12.776   5.526 -0.3762  0.3706 -1.1869
   29bbb     C6  886   1.046  13.154   5.412 -0.2246  0.0487 -0.5571
   29bbb    H11  887   1.127  13.227   5.401  1.4430 -1.7152 -0.4996
   29bbb    H12  888   0.951  13.206   5.430 -1.0306 -1.1342 -1.2468
   29bbb     C7  889   1.459  13.154   5.651 -0.5124  0.6077 -0.2614
   29bbb    H13  890   1.466  13.212   5.744 -2.2952  0.7241 -0.1703
   29bbb    H14  891   1.449  13.231   5.573  0.5325  1.7491  0.6797
   29bbb     C8  892   1.018  13.086   5.279  0.8025  0.3767  0.3340
   29bbb    H15  893   1.036  13.156   5.197 -3.2509  0.6376 -0.5082
   29bbb    H16  894   1.091  13.007   5.256  0.0517 -0.5764  1.1034
   29bbb     C9  895   0.999  12.644   5.696  1.1368 -0.6722 -0.1170
   29bbb    H17  896   1.085  12.625   5.760  2.3443 -0.8678 -1.7410
   29bbb    H18  897   0.972  12.548   5.650  1.2970  0.3155 -2.4535
   29bbb     O1  898   1.572  13.069   5.623  0.2257 -0.5692  0.8090
   29bbb    H19  899   1.139  12.881   5.433 -2.4112 -2.3946  2.4444
   30bbb     N1  900   0.964   9.276   4.988 -0.2127 -0.1000  0.8347
   30bbb     C1  901   0.949   9.390   5.092  0.0037 -0.6340  0.3400
   30bbb     H1  902   0.858   9.376   5.150 -2.0107 -1.0316 -2.6870
   30bbb     H2  903   0.941   9.480   5.032  1.9705 -0.9101 -0.4003
   30bbb     C2  904   0.837   9.244   4.903  0.8283 -0.4997  0.3514
   30bbb     H3  905   0.849   9.151   4.847  0.1174  0.3326 -1.2660
   30bbb     H4  906   0.812   9.327   4.836 -1.6826 -0.5228  1.1260
   30bbb     C3  907   1.078   9.293   4.886  0.1213 -0.2220 -1.3702
   30bbb     H5  908   1.154   9.357   4.929  0.7445 -1.2305 -0.9468
   30bbb     H6  909   1.034   9.357   4.809 -0.0174 -0.7402 -1.7302
   30bbb     C4  910   1.134   9.163   4.824 -0.2122 -0.2690  0.2937
   30bbb     H7  911   1.056   9.109   4.767 -0.9249  1.3267 -0.3283
   30bbb     H8  912   1.165   9.099   4.906  0.5906 -0.7664 -0.3827
   30bbb     C5  913   1.060   9.418   5.185 -0.4445 -0.4875 -0.4127
   30bbb     H9  914   1.025   9.499   5.251 -2.6504  1.0841 -3.2694
   30bbb    H10  915   1.139   9.464   5.125 -0.0753  0.6293  0.8778
   30bbb     C6  916   0.716   9.226   4.990  0.4540 -0.1326 -0.1422
   30bbb    H11  917   0.697   9.319   5.044 -1.2453 -0.0360 -0.8367
   30bbb    H12  918   0.733   9.144   5.062  0.3606 -0.7564 -0.8169
   30bbb     C7  919   1.258   9.179   4.730  0.6403  0.1140 -0.4097
   30bbb    H13  920   1.306   9.084   4.703  0.6426  0.3513 -1.2890
   30bbb    H14  921   1.332   9.237   4.787 -0.4808  1.3068 -0.1122
   30bbb     C8  922   0.589   9.200   4.902  0.3808 -0.0985 -0.1945
   30bbb    H15  923   0.506   9.204   4.973  0.5623 -2.8926  0.2769
   30bbb    H16  924   0.589   9.286   4.834 -1.6307  0.1777  0.1142
   30bbb     C9  925   1.117   9.301   5.269 -0.0011  0.3244  0.7155
   30bbb    H17  926   1.215   9.328   5.311  0.1568 -2.0904  2.0733
   30bbb    H18  927   1.132   9.212   5.207  0.1645  0.3122  0.7740
   30bbb     O1  928   1.215   9.256   4.613 -0.6076  0.1880  0.5527
   30bbb    H19  929   0.987   9.193   5.045  1.4212 -1.1344 -1.2077
   31bbb     N1  930   0.603  10.053   4.391 -0.2043 -0.2437 -0.0608
   31bbb     C1  931   0.654  10.194   4.428  0.4760 -0.0440 -0.0651
   31bbb     H1  932   0.570  10.261   4.409 -1.3700 -0.9387  3.8842
   31bbb     H2  933   0.742  10.219   4.368  0.2988  1.1331  0.1415
   31bbb     C2  934   0.563  10.043   4.241 -0.5219  0.7059  0.1281
   31bbb     H3  935   0.527   9.944   4.215  2.4537  0.0186 -1.9501
   31bbb     H4  936   0.653  10.063   4.182 -1.0230 -0.4807 -1.0644
   31bbb     C3  937   0.713   9.956   4.422  0.7402 -0.1529  0.4735
   31bbb     H5  938   0.732   9.957   4.530  0.2219  2.3546  0.6041
   31bbb     H6  939   0.800   9.995   4.370 -0.0342 -0.2688 -0.9632
   31bbb     C4  940   0.707   9.809   4.374  0.1464  0.2904  0.3687
   31bbb     H7  941   0.724   9.809   4.265 -0.2823 -1.4157  0.2775
   31bbb     H8  942   0.600   9.785   4.370 -0.1332  1.4802  0.2308
   31bbb     C5  943   0.669  10.217   4.580 -0.1259  0.2104  0.7321
   31bbb     H9  944   0.763  10.169   4.609  0.5206  1.3218  0.5430
   31bbb    H10  945   0.591  10.167   4.638  0.7879 -2.5318 -0.2621
   31bbb     C6  946   0.445  10.132   4.198  0.0741 -0.4799 -0.1054
   31bbb    H11  947   0.465  10.235   4.228  3.8196 -0.9882 -0.4551
   31bbb    H12  948   0.347  10.106   4.241  0.7038 -0.5473  1.3441
   31bbb     C7  949   0.796   9.703   4.451  0.5704  0.5975  0.0436
   31bbb    H13  950   0.767   9.603   4.418 -1.1261  0.7753  0.8570
   31bbb    H14  951   0.761   9.707   4.555  0.1615  0.6358 -0.0944
   31bbb     C8  952   0.423  10.138   4.051  0.2847  0.3097 -0.2782
   31bbb    H15  953   0.341  10.207   4.027 -1.1684 -1.3183 -0.1970
   31bbb    H16  954   0.507  10.185   3.997  0.5753 -0.4355 -0.4890
   31bbb     C9  955   0.677  10.368   4.604 -0.3202  0.3969  0.6426
   31bbb    H17  956   0.764  10.413   4.556 -1.8952  1.3273 -1.4993
   31bbb    H18  957   0.689  10.388   4.711  3.8552  1.0786  0.1934
   31bbb     O1  958   0.937   9.726   4.419  0.4551 -0.2035  0.5631
   31bbb    H19  959   0.521  10.035   4.451  0.2516 -0.3951  0.5256
   32bbb     N1  960   1.865  10.906   4.064 -0.2160 -0.4877  0.1851
   32bbb     C1  961   1.853  10.926   4.217  0.1503  0.0966 -0.4287
   32bbb     H1  962   1.931  10.865   4.262 -1.4960 -0.8282  1.3057
   32bbb     H2  963   1.758  10.883   4.250  0.8354  0.5881  2.3677
   32bbb     C2  964   1.983  10.980   4.003  0.1032  0.6460  0.1617
   32bbb     H3  965   1.962  11.083   4.033  0.4378  0.1000  2.3928
   32bbb     H4  966   1.963  10.966   3.896  3.0858  0.5044 -0.4571
   32bbb     C3  967   1.877  10.749   4.042  0.3211 -0.2671 -0.0699
   32bbb     H5  968   1.959  10.696   4.090  0.2667 -0.9835 -0.7366
   32bbb     H6  969   1.901  10.738   3.936 -0.7855 -2.8517 -0.1475
   32bbb     C4  970   1.743  10.671   4.058 -0.6330 -0.6799 -0.4410
   32bbb     H7  971   1.662  10.690   3.986 -0.3091  1.7205 -0.2346
   32bbb     H8  972   1.706  10.694   4.159  1.6270  1.0762  0.0588
   32bbb     C5  973   1.855  11.065   4.273  0.5469  0.6393 -0.5066
   32bbb     H9  974   1.952  11.106   4.240  0.3096  2.4087  0.8629
   32bbb    H10  975   1.861  11.052   4.381  2.3656  0.3846 -0.5934
   32bbb     C6  976   2.130  10.937   4.034 -0.0813 -0.2138  0.1254
   32bbb    H11  977   2.152  10.833   4.009  0.6757  0.2576 -1.2413
   32bbb    H12  978   2.156  10.954   4.139 -0.7635  0.0155  0.2650
   32bbb     C7  979   1.772  10.521   4.042 -0.6323  0.3690 -0.2119
   32bbb    H13  980   1.717  10.461   4.116 -0.5496 -0.0381 -0.4786
   32bbb    H14  981   1.879  10.498   4.055 -1.0217 -1.0338  0.7629
   32bbb     C8  982   2.227  11.024   3.954 -0.4639  0.7229  0.6013
   32bbb    H15  983   2.192  11.127   3.960 -1.6951  0.3474  0.2292
   32bbb    H16  984   2.326  11.006   3.999 -0.6215  0.0695  0.6958
   32bbb     C9  985   1.734  11.155   4.235 -0.3990  0.0274 -0.1128
   32bbb    H17  986   1.753  11.186   4.132 -1.4461  1.5302  0.1153
   32bbb    H18  987   1.739  11.247   4.295  1.6496 -0.0126 -0.1447
   32bbb     O1  988   1.736  10.469   3.911  0.1190 -0.0569 -0.1008
   32bbb    H19  989   1.781  10.938   4.014  0.4184 -2.1054 -2.1074
   33bbb     N1  990   2.109  10.271   2.961  0.2792 -0.3795 -0.0269
   33bbb     C1  991   1.965  10.239   2.921 -0.3565  0.2967 -0.1200
   33bbb     H1  992   1.936  10.164   2.994  1.2479  1.0679  1.3653
   33bbb     H2  993   1.971  10.201   2.818 -0.3874 -1.2959  0.4403
   33bbb     C2  994   2.152  10.383   2.870 -0.1046 -0.3479  0.2778
   33bbb     H3  995   2.127  10.477   2.920  0.9648 -0.9386  2.0243
   33bbb     H4  996   2.098  10.369   2.776 -0.0738 -2.5352  0.5358
   33bbb     C3  997   2.121  10.312   3.111 -0.3677  0.2344  0.7496
   33bbb     H5  998   2.063  10.401   3.137  0.0233  1.4060 -2.0582
   33bbb     H6  999   2.228  10.329   3.125 -0.1230 -1.5538  1.2852
   33bbb     C4 1000   2.080  10.204   3.204 -0.4884 -0.2770  0.0619
   33bbb     H7 1001   2.106  10.099   3.185 -4.1826 -1.4257  0.6370
   33bbb     H8 1002   1.971  10.203   3.197 -0.7154  3.0898  1.2495
   33bbb     C5 1003   1.862  10.358   2.939  0.5495  0.6570  0.1580
   33bbb     H9 1004   1.877  10.433   2.861 -0.3721  0.8697  0.1785
   33bbb    H10 1005   1.863  10.402   3.039  2.8211  0.3629  0.3210
   33bbb     C6 1006   2.306  10.385   2.852  0.2987  0.4609  0.0345
   33bbb    H11 1007   2.353  10.290   2.824 -0.3459  0.1120  0.1191
   33bbb    H12 1008   2.357  10.401   2.948  1.9988 -1.3592 -0.4816
   33bbb     C7 1009   2.111  10.250   3.346 -0.2481 -0.8424 -0.2780
   33bbb    H13 1010   2.219  10.252   3.367 -0.2080 -2.7559 -0.1206
   33bbb    H14 1011   2.070  10.172   3.411  1.4288 -0.5677  1.2005
   33bbb     C8 1012   2.339  10.487   2.740 -0.4172 -0.3369  0.4100
   33bbb    H15 1013   2.304  10.584   2.779  1.2170  0.0768  0.9289
   33bbb    H16 1014   2.448  10.499   2.733 -0.4043 -0.6783 -0.0010
   33bbb     C9 1015   1.716  10.304   2.910 -0.7269 -0.7510 -0.2184
   33bbb    H17 1016   1.655  10.395   2.902 -0.2472 -0.3119  0.8605
   33bbb    H18 1017   1.698  10.237   2.995  0.3334  0.5130  1.0773
   33bbb     O1 1018   2.040  10.366   3.386 -0.0320  0.1463  0.0212
   33bbb    H19 1019   2.169  10.189   2.947  2.8188  0.9585  2.2715
   34bbb     N1 1020   3.464   9.214   2.922  0.2048  0.0252 -0.9438
   34bbb     C1 1021   3.416   9.279   2.796 -0.0871 -0.2002 -0.1344
   34bbb     H1 1022   3.462   9.373   2.766  1.5619 -0.5053  1.2659
   34bbb     H2 1023   3.311   9.301   2.812 -0.3827 -0.7223 -1.2519
   34bbb     C2 1024   3.611   9.165   2.919  0.0803 -0.3787  0.1297
   34bbb     H3 1025   3.681   9.248   2.924 -0.8339  0.3619  1.3799
   34bbb     H4 1026   3.615   9.114   2.823 -1.2946 -0.1077 -0.0910
   34bbb     C3 1027   3.436   9.301   3.045  0.3721 -0.1570 -0.4105
   34bbb     H5 1028   3.449   9.239   3.134 -1.3551  1.4882  1.0742
   34bbb     H6 1029   3.333   9.335   3.035  0.7528  0.6646 -1.7975
   34bbb     C4 1030   3.518   9.431   3.065 -0.2876  0.0771  0.4282
   34bbb     H7 1031   3.536   9.472   2.965  1.4839  0.8738  1.0364
   34bbb     H8 1032   3.618   9.389   3.087  0.7603  2.0508 -0.3145
   34bbb     C5 1033   3.415   9.179   2.681 -0.0721 -0.0541  0.6690
   34bbb     H9 1034   3.373   9.086   2.722  1.2329 -0.7687  0.4575
   34bbb    H10 1035   3.512   9.147   2.640  0.3671  2.3985 -0.3570
   34bbb     C6 1036   3.645   9.072   3.038  0.2424 -0.1438 -0.9188
   34bbb    H11 1037   3.564   9.001   3.053  0.4671 -0.0282  1.3049
   34bbb    H12 1038   3.638   9.133   3.130  0.0490 -1.3342 -0.1241
   34bbb     C7 1039   3.467   9.532   3.174  0.3104  0.0473 -0.1142
   34bbb    H13 1040   3.360   9.545   3.158 -0.7422 -1.2891  4.4520
   34bbb    H14 1041   3.512   9.632   3.163  0.1466  0.2943  1.2811
   34bbb     C8 1042   3.779   8.997   3.029  0.2484 -0.8996 -0.0447
   34bbb    H15 1043   3.788   8.924   3.110  3.3283  0.2187  0.7905
   34bbb    H16 1044   3.789   8.935   2.939  1.7847 -2.2752  1.0072
   34bbb     C9 1045   3.340   9.239   2.568  0.1243  0.3962 -0.1003
   34bbb    H17 1046   3.407   9.299   2.506  0.2836 -0.8132 -1.1227
   34bbb    H18 1047   3.250   9.287   2.608 -0.1154 -0.6835  0.6939
   34bbb     O1 1048   3.501   9.483   3.309  0.0659  0.0011  0.1869
   34bbb    H19 1049   3.398   9.135   2.927 -2.6265  2.2469 -0.0176
   35bbb     N1 1050   4.016  10.183   3.223 -0.4991 -0.4805 -0.0880
   35bbb     C1 1051   4.010  10.320   3.286 -0.3842  0.3179  0.8917
   35bbb     H1 1052   4.025  10.304   3.393 -0.5777 -0.6728  0.7811
   35bbb     H2 1053   3.907  10.356   3.287 -0.7554 -0.5611 -0.9385
   35bbb     C2 1054   4.150  10.117   3.260  0.5409 -0.4571 -0.7379
   35bbb     H3 1055   4.140  10.049   3.345 -0.8459 -1.4123 -1.6242
   35bbb     H4 1056   4.218  10.197   3.292  0.4035  0.0286 -1.6319
   35bbb     C3 1057   3.906  10.090   3.284  0.2523  0.2139 -0.6985
   35bbb     H5 1058   3.831  10.156   3.327  0.5008 -1.6171  3.0281
   35bbb     H6 1059   3.953  10.059   3.378  1.0158 -0.3339 -1.2534
   35bbb     C4 1060   3.846   9.978   3.199 -0.0695 -0.5109 -0.1433
   35bbb     H7 1061   3.925   9.903   3.186 -0.2592 -0.3032 -3.5488
   35bbb     H8 1062   3.839  10.022   3.098  1.6209 -1.8111 -0.8717
   35bbb     C5 1063   4.090  10.433   3.217 -0.4217 -0.1908 -0.1938
   35bbb     H9 1064   4.088  10.412   3.109  2.6454 -1.2465 -0.1472
   35bbb    H10 1065   4.195  10.436   3.246 -0.6275 -1.6515  0.8022
   35bbb     C6 1066   4.221  10.047   3.141  0.0639 -0.2751 -0.1865
   35bbb    H11 1067   4.252  10.125   3.070 -0.2883 -1.6181 -1.9002
   35bbb    H12 1068   4.151   9.980   3.090 -1.8852  0.0603  1.9083
   35bbb     C7 1069   3.719   9.915   3.251  0.3486 -0.0242 -0.0492
   35bbb    H13 1070   3.691   9.825   3.195  0.6094  1.2833 -2.3725
   35bbb    H14 1071   3.639   9.990   3.253  2.0556  2.0633  4.6407
   35bbb     C8 1072   4.337   9.961   3.200 -0.0137 -1.0003  0.7286
   35bbb    H15 1073   4.302   9.895   3.281  1.5458 -1.8227  0.7724
   35bbb    H16 1074   4.375   9.893   3.123  0.1636 -2.0464  1.7126
   35bbb     C9 1075   4.024  10.573   3.251 -0.2143 -0.1580 -0.3178
   35bbb    H17 1076   4.086  10.651   3.205 -0.7902  0.3362 -0.2649
   35bbb    H18 1077   4.024  10.594   3.358 -0.7432 -0.9663 -0.1540
   35bbb     O1 1078   3.736   9.874   3.399  0.3610 -0.7253 -0.3943
   35bbb    H19 1079   4.005  10.190   3.121  1.6579 -1.0211 -0.3934
   36bbb     N1 1080   3.141   7.925   4.447  0.4231  0.3889  0.2093
   36bbb     C1 1081   3.276   7.889   4.391 -0.3262 -0.2144  0.1577
   36bbb     H1 1082   3.299   7.785   4.415  0.4108 -0.0247  0.2870
   36bbb     H2 1083   3.354   7.947   4.441 -0.1575  0.8551 -1.2836
   36bbb     C2 1084   3.153   7.893   4.597  0.3332  1.1071  0.5062
   36bbb     H3 1085   3.074   7.947   4.650 -0.4917 -0.7907  1.3205
   36bbb     H4 1086   3.253   7.922   4.628 -0.3210  1.7118  2.2024
   36bbb     C3 1087   3.099   8.072   4.444  0.5520  0.5036 -0.0682
   36bbb     H5 1088   3.119   8.105   4.342  1.2940  2.0014  0.5401
   36bbb     H6 1089   3.155   8.130   4.517 -0.2746  3.0375 -1.3505
   36bbb     C4 1090   2.948   8.110   4.475 -0.5642  0.0438  0.3833
   36bbb     H7 1091   2.917   8.045   4.558  0.1461 -1.8777 -0.7772
   36bbb     H8 1092   2.877   8.072   4.401 -0.6194 -1.0331  0.9606
   36bbb     C5 1093   3.282   7.919   4.239  0.1529  0.0580  0.1437
   36bbb     H9 1094   3.293   8.025   4.213 -0.5616 -0.3072 -1.8937
   36bbb    H10 1095   3.196   7.882   4.182  2.2574  0.0684 -3.4123
   36bbb     C6 1096   3.134   7.746   4.632 -0.8652  0.1418  0.0877
   36bbb    H11 1097   3.177   7.674   4.561  0.6456  0.4308  0.6862
   36bbb    H12 1098   3.027   7.721   4.635 -0.6767 -0.8074 -0.5111
   36bbb     C7 1099   2.918   8.261   4.513  0.1616  0.8525  0.2080
   36bbb    H13 1100   2.973   8.276   4.607  1.2511 -1.2469 -0.0364
   36bbb    H14 1101   2.810   8.275   4.523 -0.0806  1.3166 -2.3275
   36bbb     C8 1102   3.200   7.707   4.764  0.4504 -0.0057 -0.0526
   36bbb    H15 1103   3.185   7.598   4.769  0.2921 -0.0763 -1.5459
   36bbb    H16 1104   3.307   7.733   4.759  0.8236 -1.6463 -2.0388
   36bbb     C9 1105   3.410   7.863   4.163  0.1926 -0.2789 -0.4809
   36bbb    H17 1106   3.500   7.897   4.216 -0.0561  0.5371 -0.5576
   36bbb    H18 1107   3.423   7.907   4.063  2.2894 -0.8432 -0.5225
   36bbb     O1 1108   2.971   8.344   4.403  0.0571  0.2629 -0.1159
   36bbb    H19 1109   3.068   7.871   4.399  1.6277  0.8539 -2.3105
   37bbb     N1 1110   2.275   8.164   3.778  0.2930 -0.1797  0.4442
   37bbb     C1 1111   2.302   8.040   3.855  0.2657 -0.3612  0.0902
   37bbb     H1 1112   2.259   7.952   3.806  0.3654 -0.4291  0.1267
   37bbb     H2 1113   2.253   8.048   3.952 -0.5431 -1.8619 -0.1605
   37bbb     C2 1114   2.165   8.148   3.687  0.5745 -0.0433  0.5213
   37bbb     H3 1115   2.160   8.249   3.647  0.1097  1.1983  3.4761
   37bbb     H4 1116   2.077   8.118   3.745  0.0016 -0.5291 -0.5752
   37bbb     C3 1117   2.229   8.277   3.875  0.4764  1.0295 -0.5014
   37bbb     H5 1118   2.285   8.267   3.968  0.7584  2.9798 -0.4267
   37bbb     H6 1119   2.123   8.275   3.901  1.0621  1.4289  2.2222
   37bbb     C4 1120   2.265   8.423   3.825 -0.0070  0.2136 -0.0871
   37bbb     H7 1121   2.227   8.497   3.895 -1.1613 -0.1516 -0.3042
   37bbb     H8 1122   2.210   8.438   3.731  1.5866 -0.3010 -1.1541
   37bbb     C5 1123   2.454   8.013   3.858  0.2283 -0.1663 -0.0809
   37bbb     H9 1124   2.479   7.979   3.960  0.2843  0.2803  0.0564
   37bbb    H10 1125   2.514   8.102   3.837 -0.0464  0.5188  1.7982
   37bbb     C6 1126   2.174   8.063   3.561  0.7256 -0.3355  0.2741
   37bbb    H11 1127   2.192   7.958   3.586  0.0139  0.0546  2.7374
   37bbb    H12 1128   2.260   8.097   3.502 -0.2267 -0.0070 -0.9718
   37bbb     C7 1129   2.415   8.442   3.796 -0.0117 -0.9207 -0.3138
   37bbb    H13 1130   2.427   8.544   3.759 -1.3514 -1.2821 -1.8673
   37bbb    H14 1131   2.442   8.383   3.708  2.1098  1.9476 -1.7379
   37bbb     C8 1132   2.060   8.066   3.461 -0.1562 -0.9383 -0.6336
   37bbb    H15 1133   2.040   8.173   3.443 -0.4802 -1.0083 -0.6899
   37bbb    H16 1134   2.087   8.010   3.371 -0.3529  0.7937 -1.8268
   37bbb     C9 1135   2.485   7.895   3.760  0.2445 -0.1512 -0.4328
   37bbb    H17 1136   2.591   7.868   3.750  0.5369  1.3180 -1.6841
   37bbb    H18 1137   2.457   7.936   3.663 -1.6590  2.3848  1.0536
   37bbb     O1 1138   2.497   8.400   3.909  0.5855 -0.1887  0.1140
   37bbb    H19 1139   2.360   8.197   3.729 -0.0784  2.8778  1.6608
   38bbb     N1 1140   3.071   9.174   8.072 -0.4046  0.1899  0.2291
   38bbb     C1 1141   2.964   9.132   8.175 -0.1073 -0.5245 -0.6374
   38bbb     H1 1142   2.868   9.144   8.125 -0.8712 -3.5685 -0.0874
   38bbb     H2 1143   2.978   9.205   8.255  1.8083 -1.5252  0.0306
   38bbb     C2 1144   3.208   9.143   8.129  0.5970  0.0013 -0.7042
   38bbb     H3 1145   3.224   9.042   8.090 -0.9433  0.5182 -2.9144
   38bbb     H4 1146   3.197   9.142   8.237 -0.2866 -1.1173 -0.7854
   38bbb     C3 1147   3.057   9.123   7.928  0.2511  0.2293 -0.5976
   38bbb     H5 1148   3.061   9.015   7.941 -0.7836  0.3161  0.6649
   38bbb     H6 1149   3.136   9.154   7.860  1.2187  0.2979  0.5399
   38bbb     C4 1150   2.922   9.145   7.863 -0.1259 -0.3816  0.1572
   38bbb     H7 1151   2.885   9.248   7.871  0.1336 -0.2066 -0.8349
   38bbb     H8 1152   2.849   9.087   7.922 -0.1969 -0.2993  0.1499
   38bbb     C5 1153   2.960   8.984   8.218 -0.0686 -0.5184  0.0256
   38bbb     H9 1154   2.976   8.923   8.129  1.2460 -1.2054  0.7146
   38bbb    H10 1155   2.855   8.965   8.246  0.0323 -0.6232  0.3304
   38bbb     C6 1156   3.318   9.241   8.098  0.0259  0.5683  0.2118
   38bbb    H11 1157   3.288   9.338   8.140  2.3795  1.1584  0.6659
   38bbb    H12 1158   3.334   9.245   7.989  2.3758  1.0613  0.5137
   38bbb     C7 1159   2.932   9.107   7.714 -0.5014  0.5377 -0.4349
   38bbb    H13 1160   2.832   9.082   7.677  0.0963 -2.1950 -0.3813
   38bbb    H14 1161   2.992   9.018   7.691  0.5742  0.5288  2.0845
   38bbb     C8 1162   3.447   9.204   8.162 -0.0987 -0.6957 -0.5315
   38bbb    H15 1163   3.515   9.279   8.118  0.6488 -0.3523  1.1338
   38bbb    H16 1164   3.446   9.223   8.270  1.1214 -0.2594 -0.5775
   38bbb     C9 1165   3.050   8.955   8.340 -0.5267 -0.5859  0.1769
   38bbb    H17 1166   3.082   9.047   8.390  0.2827 -1.0931  0.6292
   38bbb    H18 1167   3.138   8.896   8.309  0.2575  0.1964  0.8626
   38bbb     O1 1168   2.990   9.217   7.640  0.0443 -0.2866  0.2121
   38bbb    H19 1169   3.070   9.277   8.067 -0.6277  0.1342 -1.0764
   39bbb     N1 1170   3.594   9.941   8.020 -0.0036 -0.1808 -0.3448
   39bbb     C1 1171   3.600  10.080   8.082 -0.2542 -0.0155 -0.1913
   39bbb     H1 1172   3.585  10.068   8.189  2.7577 -1.1232  0.1953
   39bbb     H2 1173   3.512  10.128   8.039  0.2301  1.3100  0.2448
   39bbb     C2 1174   3.476   9.870   8.094 -0.0663  0.0785  0.1168
   39bbb     H3 1175   3.459   9.779   8.036 -0.0150  0.7081 -0.9239
   39bbb     H4 1176   3.387   9.933   8.090 -1.5451 -1.9166  0.4556
   39bbb     C3 1177   3.549   9.966   7.875  0.1447 -1.1985 -0.9509
   39bbb     H5 1178   3.600  10.054   7.836 -0.3746 -2.1172 -4.0472
   39bbb     H6 1179   3.441   9.986   7.875  0.0551 -1.5287  0.7108
   39bbb     C4 1180   3.572   9.845   7.788  0.2652  0.0312  0.1855
   39bbb     H7 1181   3.544   9.754   7.842 -1.1475  0.0227 -0.5195
   39bbb     H8 1182   3.680   9.835   7.774  0.2669  0.7860 -0.3686
   39bbb     C5 1183   3.727  10.165   8.054 -0.0389 -0.1027  0.5717
   39bbb     H9 1184   3.731  10.198   7.950 -0.3588 -1.3551  0.1413
   39bbb    H10 1185   3.812  10.108   8.094  0.6199 -1.0295 -1.9728
   39bbb     C6 1186   3.508   9.818   8.231  0.2740 -0.4187 -0.4537
   39bbb    H11 1187   3.527   9.902   8.298  1.1859 -2.1051  1.5001
   39bbb    H12 1188   3.593   9.748   8.226  0.3948 -0.2455 -0.8658
   39bbb     C7 1189   3.508   9.849   7.645 -0.1687  0.3556  0.2379
   39bbb    H13 1190   3.532   9.751   7.602 -2.7200 -1.2851  2.2691
   39bbb    H14 1191   3.557   9.931   7.591 -0.4503  0.6386  0.4127
   39bbb     C8 1192   3.400   9.726   8.283  0.7077  0.2643  0.0612
   39bbb    H15 1193   3.301   9.756   8.247 -0.3641 -1.0815  1.7422
   39bbb    H16 1194   3.422   9.628   8.240 -2.4644 -0.2412 -0.6587
   39bbb     C9 1195   3.710  10.291   8.127 -0.3664 -0.3611  0.4710
   39bbb    H17 1196   3.623  10.339   8.080 -0.4437 -0.4185  0.5550
   39bbb    H18 1197   3.804  10.345   8.113  0.2934 -1.2254  1.3317
   39bbb     O1 1198   3.370   9.878   7.654  0.1965  0.2537 -0.0957
   39bbb    H19 1199   3.681   9.886   8.022  1.1647  1.5888  0.5897
   40bbb     N1 1200   1.909  10.374   7.079  0.2433 -0.0368 -0.3390
   40bbb     C1 1201   1.863  10.384   7.231 -0.0558  0.3099  0.7803
   40bbb     H1 1202   1.869  10.281   7.266 -2.0422 -0.4449 -0.8920
   40bbb     H2 1203   1.765  10.432   7.234  0.0385  0.8990 -2.2458
   40bbb     C2 1204   1.934  10.514   7.026 -0.8475  0.2246  0.5598
   40bbb     H3 1205   1.975  10.506   6.925  0.9990  2.1803  1.0768
   40bbb     H4 1206   2.005  10.564   7.092 -0.5761  1.7812 -0.8340
   40bbb     C3 1207   2.045  10.297   7.078  0.2516  0.0851 -0.0752
   40bbb     H5 1208   2.036  10.228   7.162 -0.9486  1.6408  1.1486
   40bbb     H6 1209   2.130  10.361   7.104  0.4602 -0.2162 -0.0110
   40bbb     C4 1210   2.073  10.224   6.944 -0.3830  0.0605 -0.7611
   40bbb     H7 1211   2.054  10.295   6.862 -0.5477  0.1903 -0.6114
   40bbb     H8 1212   2.001  10.145   6.920 -1.7614  1.2092 -0.5321
   40bbb     C5 1213   1.952  10.454   7.329 -0.7403 -0.3863  0.1601
   40bbb     H9 1214   1.969  10.559   7.303  1.7092 -0.4729  1.0949
   40bbb    H10 1215   2.053  10.410   7.325 -1.0809 -1.1116 -2.2401
   40bbb     C6 1216   1.808  10.598   7.020  0.3922  0.0231  0.1745
   40bbb    H11 1217   1.837  10.694   6.976 -1.6380  1.2408  1.3262
   40bbb    H12 1218   1.771  10.620   7.121  1.2921 -0.9072  0.7253
   40bbb     C7 1219   2.223  10.170   6.936 -0.2290 -0.2925 -0.0196
   40bbb    H13 1220   2.292  10.250   6.965  0.1937  0.9511 -3.8096
   40bbb    H14 1221   2.241  10.159   6.828  0.9834  1.2590 -0.0117
   40bbb     C8 1222   1.685  10.537   6.948 -0.5017  0.1633 -0.6859
   40bbb    H15 1223   1.710  10.480   6.858  1.0210  1.0459 -0.8463
   40bbb    H16 1224   1.640  10.457   7.009  0.0545 -1.1687 -1.9575
   40bbb     C9 1225   1.886  10.439   7.466  0.0228  0.3057  0.5859
   40bbb    H17 1226   1.875  10.332   7.486  0.8956  0.0823 -0.0593
   40bbb    H18 1227   1.788  10.488   7.461 -0.4745 -0.7066  0.0567
   40bbb     O1 1228   2.229  10.050   7.015  0.1276 -0.6208 -0.7130
   40bbb    H19 1229   1.846  10.318   7.020 -0.2391  1.6665 -1.5448
   41bbb     N1 1230   1.276   9.480   6.950  0.2049  0.7757 -0.2028
   41bbb     C1 1231   1.144   9.453   6.874 -0.3191 -0.1675  0.6244
   41bbb     H1 1232   1.107   9.549   6.837  2.6846  1.0202  0.4363
   41bbb     H2 1233   1.074   9.423   6.952 -0.6017 -1.4630 -0.1010
   41bbb     C2 1234   1.320   9.356   7.011  0.1763  0.6166  0.1095
   41bbb     H3 1235   1.414   9.372   7.064 -0.8578  0.7256  1.9832
   41bbb     H4 1236   1.341   9.291   6.926 -0.5777  2.6651 -1.7247
   41bbb     C3 1237   1.373   9.526   6.843 -0.1173  0.5260 -0.3460
   41bbb     H5 1238   1.329   9.611   6.790 -0.1241 -0.9193 -2.8005
   41bbb     H6 1239   1.402   9.448   6.772  0.7217  0.9682 -0.5152
   41bbb     C4 1240   1.519   9.559   6.899  0.8618  0.9486 -0.0622
   41bbb     H7 1241   1.559   9.466   6.942 -1.2604 -1.0370 -2.0795
   41bbb     H8 1242   1.509   9.635   6.978  0.5186  0.1408  0.6880
   41bbb     C5 1243   1.138   9.341   6.763 -0.8861  1.0404 -0.4889
   41bbb     H9 1244   1.189   9.250   6.798 -0.3227  1.5401  0.0231
   41bbb    H10 1245   1.191   9.375   6.673 -1.2963  2.1424 -0.3202
   41bbb     C6 1246   1.218   9.289   7.113 -0.8281 -0.1847 -0.9245
   41bbb    H11 1247   1.116   9.280   7.073 -2.1597  2.0572  1.6136
   41bbb    H12 1248   1.196   9.355   7.198 -3.5509 -2.4461  0.2885
   41bbb     C7 1249   1.613   9.615   6.787 -0.3357  0.3761  0.3656
   41bbb    H13 1250   1.573   9.688   6.715  1.7327  0.8593 -0.3734
   41bbb    H14 1251   1.637   9.531   6.721 -2.8021  0.5455 -0.8587
   41bbb     C8 1252   1.278   9.153   7.159 -0.5089  0.3601  0.4943
   41bbb    H15 1253   1.363   9.171   7.225 -0.3508  1.2444  0.0669
   41bbb    H16 1254   1.207   9.093   7.218  0.8889 -1.2272  0.6332
   41bbb     C9 1255   0.993   9.302   6.713 -0.9256  0.2680  0.4482
   41bbb    H17 1256   1.004   9.219   6.642 -3.4241 -1.1144  1.5336
   41bbb    H18 1257   0.947   9.386   6.659  0.7717  0.4349 -0.8074
   41bbb     O1 1258   1.733   9.674   6.840 -0.0713  0.7806  0.2911
   41bbb    H19 1259   1.256   9.553   7.020  0.2812  1.5781 -0.9903
   42bbb     N1 1260   5.617   9.599   5.165 -0.2534 -0.9650 -0.1205
   42bbb     C1 1261   5.499   9.664   5.086  0.5136 -0.1407  0.0386
   42bbb     H1 1262   5.529   9.765   5.056  2.3652 -1.1697 -1.8219
   42bbb     H2 1263   5.412   9.673   5.152  0.0351 -0.0824 -0.5921
   42bbb     C2 1264   5.743   9.584   5.075 -0.1530  0.0493  0.1218
   42bbb     H3 1265   5.780   9.674   5.025  2.7540 -0.2293  1.5239
   42bbb     H4 1266   5.718   9.509   5.001  1.9986 -0.7858  0.1561
   42bbb     C3 1267   5.632   9.653   5.303  0.1888  0.0039 -0.5492
   42bbb     H5 1268   5.592   9.755   5.296 -2.8398 -0.9551  1.0926
   42bbb     H6 1269   5.736   9.654   5.334  0.2292  0.6556 -0.6781
   42bbb     C4 1270   5.536   9.581   5.391 -0.3897 -0.6016 -1.3704
   42bbb     H7 1271   5.579   9.485   5.423  0.1233 -0.0862 -0.4606
   42bbb     H8 1272   5.439   9.561   5.343 -0.4752 -2.8498 -0.4081
   42bbb     C5 1273   5.453   9.583   4.967  0.1110  0.1339 -0.4148
   42bbb     H9 1274   5.400   9.497   5.011  1.1396 -0.4385 -0.2734
   42bbb    H10 1275   5.538   9.544   4.910  0.3758 -0.2499  0.2306
   42bbb     C6 1276   5.875   9.526   5.146  0.0954  0.0824 -0.0539
   42bbb    H11 1277   5.845   9.433   5.197 -2.5529  1.1377  0.4350
   42bbb    H12 1278   5.918   9.595   5.220  2.8017 -0.8137 -0.6679
   42bbb     C7 1279   5.518   9.661   5.525  0.3648  0.5087  0.2507
   42bbb    H13 1280   5.473   9.756   5.494 -0.8337 -0.4791 -1.1744
   42bbb    H14 1281   5.615   9.682   5.573 -1.0132  1.2223  2.9520
   42bbb     C8 1282   5.977   9.483   5.038  0.0858 -0.2256  0.6717
   42bbb    H15 1283   6.065   9.435   5.081 -0.0961 -1.9961 -0.8226
   42bbb    H16 1284   5.928   9.413   4.969 -0.7757  2.1692 -1.3136
   42bbb     C9 1285   5.365   9.663   4.878  0.4862  0.4890  0.1937
   42bbb    H17 1286   5.425   9.750   4.851  1.0937  0.1458  0.4149
   42bbb    H18 1287   5.287   9.698   4.948  1.5718 -0.7195  2.1067
   42bbb     O1 1288   5.429   9.584   5.612  0.0381 -0.1957  0.6921
   42bbb    H19 1289   5.586   9.502   5.179  2.1954 -2.0251 -1.3966
   43bbb     N1 1290   5.785   9.050   6.549  0.8011  0.1713 -0.0937
   43bbb     C1 1291   5.848   8.919   6.530 -0.4023 -0.0148 -0.2708
   43bbb     H1 1292   5.774   8.840   6.512 -0.9806 -0.7573  4.1726
   43bbb     H2 1293   5.890   8.898   6.629 -0.6168  2.1647  0.3215
   43bbb     C2 1294   5.877   9.161   6.590 -1.2072  0.2154 -0.4015
   43bbb     H3 1295   5.955   9.180   6.515  1.2686  1.6573  2.3385
   43bbb     H4 1296   5.929   9.117   6.675 -0.1384 -0.2831 -1.2797
   43bbb     C3 1297   5.711   9.088   6.419 -0.2603  0.5758  0.3420
   43bbb     H5 1298   5.784   9.094   6.338  0.4347 -1.8201  0.7002
   43bbb     H6 1299   5.669   9.188   6.426 -1.3949  0.2508 -1.2904
   43bbb     C4 1300   5.584   9.002   6.387 -1.0801  0.2290 -0.5372
   43bbb     H7 1301   5.531   9.006   6.483  1.0948  0.9998  0.7052
   43bbb     H8 1302   5.610   8.898   6.361  0.6739  0.8825 -1.5549
   43bbb     C5 1303   5.958   8.913   6.423 -0.2215 -0.3298 -0.1807
   43bbb     H9 1304   6.041   8.981   6.444 -1.2559  0.7778  0.4569
   43bbb    H10 1305   5.918   8.943   6.325  1.2058  3.0793  0.1539
   43bbb     C6 1306   5.813   9.292   6.628  0.2678  0.3811 -0.0061
   43bbb    H11 1307   5.724   9.281   6.692  2.5594 -1.8868  3.0924
   43bbb    H12 1308   5.770   9.343   6.541  1.2427 -1.8953 -1.9203
   43bbb     C7 1309   5.521   9.055   6.258  0.3229  0.6836  0.1729
   43bbb    H13 1310   5.459   8.978   6.212  0.6237  0.2180  0.5333
   43bbb    H14 1311   5.601   9.086   6.189 -0.8397  0.8137 -1.1585
   43bbb     C8 1312   5.907   9.375   6.715  0.3887 -0.7723 -0.1701
   43bbb    H15 1313   5.861   9.473   6.736  2.7676  1.3706 -3.7270
   43bbb    H16 1314   5.933   9.330   6.811 -0.2318 -0.1232  0.3164
   43bbb     C9 1315   6.018   8.768   6.424 -0.1850 -0.4834  0.3713
   43bbb    H17 1316   6.084   8.763   6.337 -1.0822  1.0606 -0.4347
   43bbb    H18 1317   5.931   8.703   6.409 -0.6148 -0.5632  2.7519
   43bbb     O1 1318   5.444   9.170   6.288 -0.5888 -0.9228  0.6810
   43bbb    H19 1319   5.715   9.046   6.624  1.0579  1.0422  0.1931
   44bbb     N1 1320   5.078   9.192   7.367  0.4065  0.7749  0.3861
   44bbb     C1 1321   5.141   9.170   7.503 -0.0214 -0.5926  0.7017
   44bbb     H1 1322   5.071   9.119   7.569 -1.1876  0.8040  0.5911
   44bbb     H2 1323   5.163   9.269   7.543 -1.4410  0.2577 -0.5016
   44bbb     C2 1324   4.934   9.250   7.360 -0.1367  0.2149  0.3356
   44bbb     H3 1325   4.912   9.249   7.254  2.3152 -2.3111 -0.2718
   44bbb     H4 1326   4.942   9.353   7.396  0.7664  0.0535  0.6398
   44bbb     C3 1327   5.165   9.288   7.283 -0.5822  0.1287  0.1242
   44bbb     H5 1328   5.271   9.273   7.305 -0.6527 -0.8265 -0.1477
   44bbb     H6 1329   5.145   9.392   7.309 -0.0463  0.6945 -1.6195
   44bbb     C4 1330   5.156   9.278   7.130  0.2446  0.4720 -0.0218
   44bbb     H7 1331   5.060   9.322   7.101  0.7136  1.3660 -0.2564
   44bbb     H8 1332   5.160   9.172   7.100 -1.8555  0.6530 -1.1054
   44bbb     C5 1333   5.266   9.082   7.492 -0.4701  0.6334  0.3801
   44bbb     H9 1334   5.348   9.124   7.432 -1.9916  1.9744 -0.8493
   44bbb    H10 1335   5.231   8.996   7.434 -2.0292  2.1076 -0.9750
   44bbb     C6 1336   4.821   9.173   7.432 -0.8678  0.0955 -0.0989
   44bbb    H11 1337   4.828   9.186   7.541  0.2985  1.4169 -0.3049
   44bbb    H12 1338   4.835   9.066   7.412  0.8215  0.2916 -0.0957
   44bbb     C7 1339   5.272   9.339   7.057  0.0335  0.4103  0.0589
   44bbb    H13 1340   5.264   9.328   6.949  2.8145  4.4887 -0.7977
   44bbb    H14 1341   5.367   9.301   7.097 -0.5626 -0.5736  0.5715
   44bbb     C8 1342   4.682   9.213   7.384  0.4183 -0.1138 -0.0467
   44bbb    H15 1343   4.604   9.152   7.432  0.4070  0.8870  1.2614
   44bbb    H16 1344   4.663   9.320   7.397  0.8067  0.1285 -1.3653
   44bbb     C9 1345   5.316   9.044   7.630  0.5527 -1.1805 -0.9229
   44bbb    H17 1346   5.394   8.971   7.608  0.3905 -0.6953 -3.3578
   44bbb    H18 1347   5.242   8.989   7.690  2.4589 -1.6904  1.1241
   44bbb     O1 1348   5.264   9.484   7.089 -0.6556  0.2133  0.1163
   44bbb    H19 1349   5.090   9.095   7.336 -0.0707  0.4595  1.1651
   45bbb     N1 1350   5.808  10.108   6.935 -0.1667 -0.3038  0.0572
   45bbb     C1 1351   5.827   9.956   6.915 -0.1798  0.1900  1.0372
   45bbb     H1 1352   5.758   9.926   6.835  0.4069  0.1915  0.5250
   45bbb     H2 1353   5.801   9.906   7.008 -0.3763 -1.7958 -0.0075
   45bbb     C2 1354   5.790  10.180   6.799 -0.0512 -0.3993  0.0205
   45bbb     H3 1355   5.690  10.167   6.757  0.8607  0.4449 -2.6510
   45bbb     H4 1356   5.856  10.142   6.721 -2.4569 -0.9561 -1.8490
   45bbb     C3 1357   5.699  10.135   7.034 -0.2895  0.5608  0.2957
   45bbb     H5 1358   5.674  10.240   7.046 -1.6876  0.7695 -3.3296
   45bbb     H6 1359   5.731  10.092   7.129 -2.2560  1.1756  1.2696
   45bbb     C4 1360   5.567  10.060   7.008 -0.0971 -0.2081  0.1970
   45bbb     H7 1361   5.573   9.952   7.025  0.4104 -0.6105 -2.1250
   45bbb     H8 1362   5.523  10.073   6.908 -3.5270 -0.1012  1.6043
   45bbb     C5 1363   5.972   9.928   6.875  0.4141 -0.0931  0.2304
   45bbb     H9 1364   6.010   9.998   6.800  3.5055 -2.3627 -0.5059
   45bbb    H10 1365   5.993   9.830   6.831 -1.6954 -0.8130  0.7110
   45bbb     C6 1366   5.813  10.332   6.800 -0.1235 -0.5306 -0.2334
   45bbb    H11 1367   5.735  10.366   6.869 -1.1492 -3.2227  0.0649
   45bbb    H12 1368   5.793  10.373   6.700  1.2425 -0.5120 -0.5202
   45bbb     C7 1369   5.448  10.117   7.084  0.8959 -0.6622 -0.7698
   45bbb    H13 1370   5.438  10.218   7.042 -0.9360 -0.0424  0.9786
   45bbb    H14 1371   5.482  10.133   7.188 -0.9245 -0.5111 -0.1583
   45bbb     C8 1372   5.955  10.368   6.851 -0.6776 -0.0008 -0.1494
   45bbb    H15 1373   5.972  10.333   6.953 -1.8591  1.6679  0.6705
   45bbb    H16 1374   6.021  10.316   6.781  0.5091  1.7214 -0.3630
   45bbb     C9 1375   6.071   9.952   6.991  0.7532 -0.8142 -0.3533
   45bbb    H17 1376   6.168   9.943   6.939  0.7363  1.9116 -1.0309
   45bbb    H18 1377   6.068   9.873   7.066  0.3524 -0.2638  0.2246
   45bbb     O1 1378   5.337  10.026   7.083 -0.1695 -0.3655  0.0341
   45bbb    H19 1379   5.900  10.140   6.968 -0.1953  0.8124 -0.8824
   46bbb     N1 1380   4.424  12.604   2.467 -0.0034 -0.0035  0.2511
   46bbb     C1 1381   4.432  12.751   2.485  0.0708 -0.6691  0.2325
   46bbb     H1 1382   4.408  12.792   2.387  4.1935 -1.8090 -1.4464
   46bbb     H2 1383   4.534  12.773   2.518  0.5952 -0.8153 -1.2193
   46bbb     C2 1384   4.504  12.577   2.347 -0.6168  0.5984 -0.0218
   46bbb     H3 1385   4.610  12.571   2.374 -0.9459  0.6457  1.3528
   46bbb     H4 1386   4.489  12.654   2.271  2.4051  1.6033  0.2890
   46bbb     C3 1387   4.485  12.532   2.582  0.2733  1.3145  0.0391
   46bbb     H5 1388   4.593  12.551   2.578  0.6806 -0.6951  0.6228
   46bbb     H6 1389   4.475  12.429   2.548  3.9542  1.1728 -1.0662
   46bbb     C4 1390   4.428  12.545   2.722  0.3163 -0.0515 -0.7133
   46bbb     H7 1391   4.318  12.544   2.724  0.2243  2.5983 -0.1584
   46bbb     H8 1392   4.454  12.644   2.762 -1.1061  0.0603 -0.0028
   46bbb     C5 1393   4.333  12.821   2.588  0.4612 -0.4403 -0.1296
   46bbb     H9 1394   4.399  12.855   2.670 -0.2820  0.2829  0.1736
   46bbb    H10 1395   4.267  12.750   2.640  1.1171 -0.7936  0.2473
   46bbb     C6 1396   4.471  12.445   2.270  0.4032 -0.8091 -0.5580
   46bbb    H11 1397   4.374  12.466   2.222  1.2842  2.1388 -1.2197
   46bbb    H12 1398   4.473  12.364   2.345 -1.1815 -1.4624 -1.1768
   46bbb     C7 1399   4.494  12.437   2.813 -0.3350  0.5078  0.0329
   46bbb    H13 1400   4.603  12.436   2.803 -0.2600 -0.2065  0.7541
   46bbb    H14 1401   4.460  12.338   2.781  1.3156 -0.7376  1.8751
   46bbb     C8 1402   4.578  12.402   2.163  0.2969  0.2468  0.3037
   46bbb    H15 1403   4.678  12.444   2.181 -0.7893  2.5194  1.4131
   46bbb    H16 1404   4.589  12.293   2.158 -2.1784 -0.0082 -0.9730
   46bbb     C9 1405   4.262  12.948   2.529  0.2283 -0.3756  0.0155
   46bbb    H17 1406   4.344  13.011   2.491 -1.1747  2.2353  1.0546
   46bbb    H18 1407   4.197  13.007   2.594  1.2331  0.6666  0.1143
   46bbb     O1 1408   4.460  12.465   2.951 -0.1661  0.2389  0.2795
   46bbb    H19 1409   4.328  12.570   2.451 -0.2206 -1.1564  3.3589
   47bbb     N1 1410   4.553  13.162   3.306 -0.4301 -0.1716 -0.2029
   47bbb     C1 1411   4.666  13.163   3.207 -0.2956 -0.0087 -0.1892
   47bbb     H1 1412   4.756  13.165   3.270  0.2212 -2.0439 -0.8013
   47bbb     H2 1413   4.662  13.260   3.156  1.8367 -1.2135 -2.9343
   47bbb     C2 1414   4.421  13.170   3.239 -0.8842 -0.2629 -0.5209
   47bbb     H3 1415   4.336  13.142   3.301 -0.9329 -1.9101 -1.2589
   47bbb     H4 1416   4.415  13.089   3.167  1.2970 -1.0316  0.0616
   47bbb     C3 1417   4.544  13.034   3.392 -0.7447  0.4627 -0.2896
   47bbb     H5 1418   4.642  12.994   3.417 -0.6851  0.5450 -0.3927
   47bbb     H6 1419   4.489  12.956   3.338 -0.1069 -0.5720  0.5079
   47bbb     C4 1420   4.463  13.069   3.521  0.5620  0.4313  0.4995
   47bbb     H7 1421   4.364  13.102   3.486  1.2657  0.2093 -1.8745
   47bbb     H8 1422   4.505  13.154   3.577 -0.3032 -0.2638  2.2782
   47bbb     C5 1423   4.678  13.049   3.105 -0.4653  0.5721  0.4881
   47bbb     H9 1424   4.581  13.042   3.055  0.6107  0.0570 -1.6242
   47bbb    H10 1425   4.699  12.948   3.143 -2.0796 -0.9550 -2.3276
   47bbb     C6 1426   4.387  13.304   3.172 -0.4501 -0.2882  0.2141
   47bbb    H11 1427   4.296  13.300   3.110 -0.1895 -0.0100 -0.1894
   47bbb    H12 1428   4.459  13.322   3.091 -0.2861  2.1802  0.8242
   47bbb     C7 1429   4.458  12.947   3.613  0.1503 -0.0583  0.4614
   47bbb    H13 1430   4.404  12.988   3.699  1.4144  1.1597  0.7115
   47bbb    H14 1431   4.555  12.918   3.655 -0.1970 -0.5728  0.9190
   47bbb     C8 1432   4.372  13.411   3.280 -0.2352 -0.3940 -0.2211
   47bbb    H15 1433   4.340  13.510   3.245  1.2013  0.4134  0.6619
   47bbb    H16 1434   4.290  13.380   3.347  1.2590 -0.9260  1.4153
   47bbb     C9 1435   4.774  13.064   2.986 -0.0960  0.4835 -0.6994
   47bbb    H17 1436   4.748  13.155   2.930  0.4987  1.4008  0.4543
   47bbb    H18 1437   4.757  12.981   2.916 -1.2885  0.8751 -0.8938
   47bbb     O1 1438   4.389  12.834   3.554  0.0890  0.4944 -0.6761
   47bbb    H19 1439   4.567  13.246   3.365 -0.8012 -0.7572  0.7521
   48bbb     N1 1440   3.294  11.932   3.008 -0.0315  0.4300  0.0199
   48bbb     C1 1441   3.152  11.859   3.035 -0.1035  0.0894  1.0377
   48bbb     H1 1442   3.166  11.751   3.047  0.6412  0.0507 -0.0360
   48bbb     H2 1443   3.094  11.865   2.943 -2.3208 -0.5570  2.3140
   48bbb     C2 1444   3.269  12.073   2.960  0.4422  0.3435 -0.0094
   48bbb     H3 1445   3.360  12.133   2.965  1.7168 -1.4525 -0.4737
   48bbb     H4 1446   3.206  12.108   3.042  2.5450  1.2214  1.3350
   48bbb     C3 1447   3.387  11.931   3.121 -0.0266  0.7653  0.3348
   48bbb     H5 1448   3.404  11.824   3.128 -0.2426  0.7684  0.9775
   48bbb     H6 1449   3.341  11.969   3.212 -0.0851 -0.9295  1.0378
   48bbb     C4 1450   3.528  11.994   3.096 -0.1223 -0.2451 -0.1828
   48bbb     H7 1451   3.517  12.101   3.073 -1.1989 -0.6729 -1.7594
   48bbb     H8 1452   3.567  11.947   3.005 -1.6280 -0.9491 -0.4880
   48bbb     C5 1453   3.068  11.920   3.144  0.0749 -0.6796  0.0401
   48bbb     H9 1454   3.123  11.964   3.228 -1.0221 -1.5603  1.2762
   48bbb    H10 1455   2.998  11.849   3.191 -0.9993  1.0747  1.2327
   48bbb     C6 1456   3.212  12.083   2.815  0.0493 -0.2938 -0.2184
   48bbb    H11 1457   3.162  12.180   2.805 -0.2603 -0.5509 -1.3734
   48bbb    H12 1458   3.132  12.012   2.788 -2.4026  1.7538  1.1433
   48bbb     C7 1459   3.625  11.958   3.214  0.4039  0.2772 -0.6708
   48bbb    H13 1460   3.719  12.011   3.191  0.1601  1.6097  1.1871
   48bbb    H14 1461   3.640  11.851   3.227  0.3923 -0.0614 -2.9290
   48bbb     C8 1462   3.326  12.066   2.713 -0.3954 -0.0174 -0.3234
   48bbb    H15 1463   3.295  12.114   2.619  0.9868  2.9101  0.5788
   48bbb    H16 1464   3.410  12.127   2.747 -1.2542  1.4043 -0.6319
   48bbb     C9 1465   2.975  12.036   3.092 -0.4615 -0.4635 -0.2111
   48bbb    H17 1466   3.029  12.128   3.067 -0.7342 -0.3273 -0.3104
   48bbb    H18 1467   2.900  12.068   3.166  0.9842  1.4750  0.5124
   48bbb     O1 1468   3.576  12.004   3.338  0.2034 -0.1743  0.9140
   48bbb    H19 1469   3.342  11.888   2.928 -0.7484  1.6714 -1.1480
   49bbb     N1 1470   3.065  12.888   2.973 -0.2912  0.3954 -0.2261
   49bbb     C1 1471   3.022  12.965   2.857  0.2447  0.1837 -0.3712
   49bbb     H1 1472   2.918  12.997   2.863 -0.7037 -2.5820 -0.8301
   49bbb     H2 1473   3.026  12.898   2.772 -0.6515 -1.4425  0.8057
   49bbb     C2 1474   2.948  12.792   3.008  0.1211 -0.8078 -0.2437
   49bbb     H3 1475   2.985  12.701   3.054 -0.7468 -0.2774  1.5866
   49bbb     H4 1476   2.906  12.771   2.909  0.3477 -0.0948 -0.4968
   49bbb     C3 1477   3.194  12.811   2.954  0.7310  0.1901  0.2503
   49bbb     H5 1478   3.276  12.881   2.932 -1.1031  1.9232 -1.5131
   49bbb     H6 1479   3.186  12.740   2.872  0.7304 -1.5622  1.7242
   49bbb     C4 1480   3.231  12.736   3.081 -0.3597 -0.1049 -0.0508
   49bbb     H7 1481   3.178  12.640   3.080 -0.1889 -0.2102  0.7113
   49bbb     H8 1482   3.190  12.790   3.167  1.6072  2.2987 -0.4967
   49bbb     C5 1483   3.120  13.078   2.821 -0.0792 -0.0471 -1.1447
   49bbb     H9 1484   3.214  13.024   2.808  0.3552  0.6339 -0.8851
   49bbb    H10 1485   3.143  13.146   2.904  0.0017  1.5726 -2.4336
   49bbb     C6 1486   2.833  12.847   3.092 -0.1541  0.0117  0.2279
   49bbb    H11 1487   2.751  12.775   3.100  0.7831 -0.9171  1.7777
   49bbb    H12 1488   2.792  12.941   3.053 -0.4767  0.3484  1.3558
   49bbb     C7 1489   3.382  12.712   3.103 -0.5495  0.1254  0.1353
   49bbb    H13 1490   3.442  12.804   3.103  0.6545 -0.6159 -0.9170
   49bbb    H14 1491   3.427  12.660   3.017 -0.5782  0.2815  0.0257
   49bbb     C8 1492   2.899  12.867   3.228  0.5306 -0.7575 -0.1608
   49bbb    H15 1493   2.817  12.896   3.294 -1.9914  0.7470 -3.5889
   49bbb    H16 1494   2.948  12.778   3.267  0.5708  0.4667  2.8262
   49bbb     C9 1495   3.078  13.143   2.694  0.5758  0.0541  0.1565
   49bbb    H17 1496   3.152  13.220   2.668 -1.0884  1.2744 -1.1582
   49bbb    H18 1497   2.988  13.205   2.706 -0.1156 -0.6125 -1.4565
   49bbb     O1 1498   3.404  12.639   3.230 -0.2909 -0.5081 -0.2409
   49bbb    H19 1499   3.070  12.950   3.056  1.5635  0.0914 -0.0541
   50bbb     N1 1500   5.386  12.350   6.297 -0.1641  0.0108 -0.1170
   50bbb     C1 1501   5.267  12.299   6.369  0.2663  0.5927 -0.4006
   50bbb     H1 1502   5.297  12.258   6.466  1.0830 -0.1724 -0.9642
   50bbb     H2 1503   5.212  12.220   6.317 -0.8713  1.8099 -1.1259
   50bbb     C2 1504   5.516  12.267   6.289 -0.7595 -0.1971 -0.3083
   50bbb     H3 1505   5.588  12.327   6.232  0.7142  0.6572  2.2762
   50bbb     H4 1506   5.492  12.176   6.235 -0.1690 -1.5555  1.6048
   50bbb     C3 1507   5.335  12.364   6.155  0.3704 -0.2348 -0.0273
   50bbb     H5 1508   5.228  12.388   6.150  0.6125  1.3131  1.5726
   50bbb     H6 1509   5.347  12.270   6.101  3.2624  0.6377 -1.0838
   50bbb     C4 1510   5.413  12.470   6.074 -0.2934 -0.2051 -0.0727
   50bbb     H7 1511   5.508  12.420   6.050 -0.1106 -1.5553  3.0386
   50bbb     H8 1512   5.426  12.561   6.134  0.1135  1.5626 -2.6606
   50bbb     C5 1513   5.156  12.412   6.397  0.3279  0.0617 -0.5708
   50bbb     H9 1514   5.078  12.367   6.459  2.3602 -0.0090  2.0988
   50bbb    H10 1515   5.107  12.451   6.307  0.5445 -0.2086 -0.8079
   50bbb     C6 1516   5.587  12.219   6.416 -0.2914  0.2035  0.0658
   50bbb    H11 1517   5.513  12.170   6.480 -0.5565  2.3784  1.5279
   50bbb    H12 1518   5.616  12.304   6.479  2.0364  0.5489 -1.3594
   50bbb     C7 1519   5.346  12.502   5.946  0.1880 -0.5387 -0.7164
   50bbb    H13 1520   5.323  12.407   5.895 -2.3873 -0.2945 -0.1390
   50bbb    H14 1521   5.401  12.575   5.885  0.1245  0.3782  0.2963
   50bbb     C8 1522   5.710  12.129   6.379  0.1778 -0.2801 -0.6527
   50bbb    H15 1523   5.704  12.038   6.441  1.8834  1.6157  2.5161
   50bbb    H16 1524   5.701  12.106   6.272 -0.9745  2.7156 -1.2837
   50bbb     C9 1525   5.218  12.535   6.460 -0.3146 -0.5828  0.2792
   50bbb    H17 1526   5.142  12.603   6.499  0.9623  1.6656 -0.9400
   50bbb    H18 1527   5.267  12.586   6.376  0.0359  0.4965  1.1209
   50bbb     O1 1528   5.222  12.569   5.988 -0.2617  0.0996  0.0594
   50bbb    H19 1529   5.403  12.437   6.350 -1.7746 -0.5595  1.4376
   51bbb     N1 1530   4.959  13.478   5.828 -0.0443 -0.0351 -0.1388
   51bbb     C1 1531   5.050  13.542   5.724  0.3619 -0.1082 -0.1234
   51bbb     H1 1532   5.000  13.521   5.629  1.2046 -4.5979  0.2095
   51bbb     H2 1533   5.143  13.488   5.741 -0.0777 -0.4650  1.2759
   51bbb     C2 1534   4.822  13.541   5.806  0.2417 -0.2165 -0.1396
   51bbb     H3 1535   4.752  13.458   5.812  0.3297 -0.2742  0.0888
   51bbb     H4 1536   4.820  13.588   5.707 -0.5529  0.7198  0.3044
   51bbb     C3 1537   4.959  13.333   5.800 -0.0537 -0.4936  0.1241
   51bbb     H5 1538   5.062  13.297   5.793 -0.3756 -1.1698 -1.5876
   51bbb     H6 1539   4.919  13.331   5.699  0.2200  0.4435 -0.0092
   51bbb     C4 1540   4.885  13.238   5.903  0.0649 -0.5638  0.5652
   51bbb     H7 1541   4.783  13.276   5.918 -0.0505 -0.6589  0.0398
   51bbb     H8 1542   4.937  13.225   5.998 -1.5453 -0.3808  1.5019
   51bbb     C5 1543   5.096  13.691   5.736  0.6334 -0.3800 -0.1579
   51bbb     H9 1544   5.126  13.706   5.840  2.0948  2.1215 -0.8658
   51bbb    H10 1545   5.005  13.752   5.727 -0.4148 -1.3001  2.9615
   51bbb     C6 1546   4.776  13.646   5.907 -0.1264 -0.0704 -0.4026
   51bbb    H11 1547   4.690  13.702   5.869  0.6807  3.1238  2.0267
   51bbb    H12 1548   4.854  13.720   5.926 -0.7866 -0.0003  2.6450
   51bbb     C7 1549   4.869  13.105   5.838 -0.0417  0.3105  0.9506
   51bbb    H13 1550   4.964  13.059   5.809 -2.1124 -2.7709 -1.6501
   51bbb    H14 1551   4.816  13.125   5.744  1.2326  1.4510  0.4303
   51bbb     C8 1552   4.726  13.581   6.041  0.3823 -0.2295  0.7473
   51bbb    H15 1553   4.706  13.655   6.119 -0.8800 -0.0012  0.2288
   51bbb    H16 1554   4.639  13.516   6.030  0.5590 -0.3854  0.2113
   51bbb     C9 1555   5.199  13.738   5.631  0.2708  0.3770  0.5778
   51bbb    H17 1556   5.159  13.707   5.534 -2.6025  0.8375  1.5054
   51bbb    H18 1557   5.287  13.675   5.651  1.2297  1.6870  0.6337
   51bbb     O1 1558   4.778  13.012   5.903  0.2882 -0.3881  0.1580
   51bbb    H19 1559   4.993  13.491   5.925 -0.1295 -1.8977  0.1614
   52bbb     N1 1560   5.629  13.264   4.188 -0.2024  0.4385  0.5620
   52bbb     C1 1561   5.478  13.323   4.184 -0.4177 -0.1298  0.0079
   52bbb     H1 1562   5.451  13.360   4.283  2.6421  1.1427  0.4973
   52bbb     H2 1563   5.412  13.240   4.160  0.3155 -0.7547  0.0815
   52bbb     C2 1564   5.737  13.379   4.225  0.6755  0.3448  0.3212
   52bbb     H3 1565   5.715  13.454   4.148 -1.8171  0.1994  0.7885
   52bbb     H4 1566   5.840  13.345   4.217  0.0537 -1.7386  0.5513
   52bbb     C3 1567   5.646  13.154   4.299  0.6023 -0.4364 -0.6023
   52bbb     H5 1568   5.633  13.199   4.398 -2.8283  3.2885 -2.4190
   52bbb     H6 1569   5.744  13.107   4.295 -0.5690 -3.2006  0.7453
   52bbb     C4 1570   5.551  13.039   4.285 -0.1309  0.4797  0.1415
   52bbb     H7 1571   5.560  13.002   4.182  0.8975  1.5879 -0.1932
   52bbb     H8 1572   5.449  13.074   4.308 -0.1062 -0.7025  2.2677
   52bbb     C5 1573   5.461  13.441   4.084  0.0826  0.1518  0.1710
   52bbb     H9 1574   5.513  13.418   3.990  2.9547  0.8160  1.4837
   52bbb    H10 1575   5.517  13.528   4.121  1.6989 -0.3003 -1.1036
   52bbb     C6 1576   5.722  13.441   4.361  0.1248 -0.0791  0.7277
   52bbb    H11 1577   5.741  13.367   4.439  1.6322  0.1312  0.5751
   52bbb    H12 1578   5.623  13.481   4.387 -0.5268 -1.5858  0.6603
   52bbb     C7 1579   5.564  12.938   4.397  0.0723 -0.1963 -0.0741
   52bbb    H13 1580   5.563  12.991   4.493  0.5471 -1.2799  0.5454
   52bbb    H14 1581   5.658  12.885   4.376  0.5898  1.1688 -1.3387
   52bbb     C8 1582   5.813  13.559   4.377  0.3691 -0.5073 -0.5827
   52bbb    H15 1583   5.795  13.641   4.307  0.7557  0.0806  0.0028
   52bbb    H16 1584   5.808  13.602   4.478 -0.5330  1.7420 -1.5239
   52bbb     C9 1585   5.316  13.455   4.058  0.6464  0.0079 -0.1994
   52bbb    H17 1586   5.260  13.486   4.147 -0.2336  0.4552 -0.8969
   52bbb    H18 1587   5.285  13.362   4.009  1.9329 -1.3602  1.4537
   52bbb     O1 1588   5.454  12.847   4.397 -0.3597 -0.2935 -0.2465
   52bbb    H19 1589   5.651  13.228   4.094  0.8544 -0.1106  1.0060
   53bbb     N1 1590   6.094  12.419   4.277 -0.5352  0.4208 -0.6626
   53bbb     C1 1591   6.016  12.338   4.169 -0.1134 -0.1710 -0.4134
   53bbb     H1 1592   6.089  12.264   4.136 -0.1843 -0.3412 -0.1881
   53bbb     H2 1593   6.002  12.406   4.085 -1.7057 -0.1951 -0.2008
   53bbb     C2 1594   6.218  12.479   4.205  0.1212 -0.1373 -0.6504
   53bbb     H3 1595   6.266  12.554   4.269 -0.4972 -1.2208  1.1469
   53bbb     H4 1596   6.183  12.534   4.118 -0.3281  0.3421 -0.1710
   53bbb     C3 1597   6.005  12.524   4.331 -0.4026 -0.3511  0.1610
   53bbb     H5 1598   5.905  12.483   4.351 -0.2432 -0.4422  0.7644
   53bbb     H6 1599   5.999  12.605   4.258 -1.6200  0.0352  0.6531
   53bbb     C4 1600   6.051  12.588   4.465  0.0887  0.1099  0.4538
   53bbb     H7 1601   6.139  12.652   4.450  0.0617  0.2735  0.9814
   53bbb     H8 1602   6.080  12.508   4.534  0.3076  1.0818  1.5122
   53bbb     C5 1603   5.881  12.264   4.205 -0.0688 -0.7782 -0.7829
   53bbb     H9 1604   5.841  12.212   4.118 -1.1705  0.7837 -1.2574
   53bbb    H10 1605   5.806  12.344   4.213  1.1980  0.2959  1.1619
   53bbb     C6 1606   6.319  12.368   4.177  0.3468 -0.0374 -0.5307
   53bbb    H11 1607   6.389  12.426   4.115  0.4337  0.9835  0.4981
   53bbb    H12 1608   6.284  12.278   4.124 -0.6623 -1.4136  2.2485
   53bbb     C7 1609   5.929  12.663   4.524 -0.2332  0.6235  0.1818
   53bbb    H13 1610   5.911  12.744   4.452  1.0214  0.2419 -0.5904
   53bbb    H14 1611   5.944  12.701   4.625 -1.7246 -1.3374  1.2131
   53bbb     C8 1612   6.392  12.327   4.311  0.1467 -0.1297 -0.4170
   53bbb    H15 1613   6.477  12.262   4.287  1.1651  1.1611 -0.3884
   53bbb    H16 1614   6.448  12.415   4.344  2.4355 -1.4099 -0.6455
   53bbb     C9 1615   5.877  12.191   4.337  0.3253  0.4384  0.2353
   53bbb    H17 1616   5.772  12.163   4.350 -0.9012  3.6610 -1.5339
   53bbb    H18 1617   5.896  12.262   4.418 -1.5125 -0.0692  1.1463
   53bbb     O1 1618   5.814  12.579   4.535 -0.3201  0.4649  0.2427
   53bbb    H19 1619   6.121  12.357   4.355 -2.4504  1.9678  1.3714
   54bbb     N1 1620   3.569  13.789   7.179 -0.0486  0.5241 -0.0427
   54bbb     C1 1621   3.641  13.923   7.191  0.3123 -0.4203 -0.3914
   54bbb     H1 1622   3.710  13.912   7.275  1.0413  0.1940 -0.9012
   54bbb     H2 1623   3.564  13.999   7.205  0.5106 -0.4373  0.9014
   54bbb     C2 1624   3.538  13.743   7.322  0.1406 -0.0648 -0.2877
   54bbb     H3 1625   3.445  13.686   7.316 -0.0987  0.4409 -2.0405
   54bbb     H4 1626   3.529  13.830   7.387  0.1323 -1.0230  1.0317
   54bbb     C3 1627   3.442  13.816   7.096 -0.1991  0.5014  0.5613
   54bbb     H5 1628   3.470  13.852   6.997  0.3422 -0.7443  0.2385
   54bbb     H6 1629   3.397  13.906   7.138 -2.3764 -0.7000  0.9455
   54bbb     C4 1630   3.345  13.695   7.077 -0.5056 -0.6198 -0.1740
   54bbb     H7 1631   3.349  13.620   7.158  1.4852  0.8029  1.1265
   54bbb     H8 1632   3.376  13.649   6.983 -0.7030  0.6125 -0.8548
   54bbb     C5 1633   3.742  13.963   7.082  0.1912  0.9374 -0.6370
   54bbb     H9 1634   3.699  13.990   6.985  0.8733 -0.4139 -1.3511
   54bbb    H10 1635   3.810  13.877   7.077  1.7168  1.9933  1.0382
   54bbb     C6 1636   3.636  13.642   7.381  0.5158  0.5131  0.2267
   54bbb    H11 1637   3.606  13.610   7.481  1.4187  0.8360  0.6095
   54bbb    H12 1638   3.739  13.679   7.380  0.4578  0.7554 -2.1695
   54bbb     C7 1639   3.197  13.739   7.065 -0.0699 -0.4880  0.0691
   54bbb    H13 1640   3.187  13.825   6.999  0.8876  0.4184  1.0683
   54bbb    H14 1641   3.162  13.770   7.164 -1.0334  0.7838 -0.6368
   54bbb     C8 1642   3.644  13.512   7.299  0.1407 -0.1597  0.3376
   54bbb    H15 1643   3.712  13.434   7.336 -0.4045 -0.5977  0.4265
   54bbb    H16 1644   3.546  13.466   7.286  0.6020 -0.4582 -2.9045
   54bbb     C9 1645   3.827  14.086   7.128 -0.1336  0.4220 -0.1215
   54bbb    H17 1646   3.914  14.089   7.062  0.3752  0.1066  0.5322
   54bbb    H18 1647   3.866  14.069   7.229 -0.3782  0.5423 -0.0047
   54bbb     O1 1648   3.131  13.631   6.999  0.2037 -0.1638 -0.1295
   54bbb    H19 1649   3.627  13.711   7.143  0.0414  0.4280  0.2974
   55bbb     N1 1650   2.690  13.528   7.807  0.7318 -0.2142 -0.4823
   55bbb     C1 1651   2.610  13.516   7.936 -0.3711  0.4005 -0.5682
   55bbb     H1 1652   2.680  13.552   8.011  0.7415  0.2771 -1.5225
   55bbb     H2 1653   2.570  13.415   7.943 -1.3316  0.6489 -1.9177
   55bbb     C2 1654   2.816  13.441   7.824 -0.3562  0.6982  0.1032
   55bbb     H3 1655   2.786  13.338   7.808  0.6413  0.5488 -0.9561
   55bbb     H4 1656   2.846  13.431   7.929  4.9394  0.0726 -1.1955
   55bbb     C3 1657   2.610  13.500   7.688  0.4738 -0.1411  0.2316
   55bbb     H5 1658   2.671  13.517   7.599  1.1984 -1.5657  0.4278
   55bbb     H6 1659   2.530  13.573   7.693  0.0170 -0.6734  0.9472
   55bbb     C4 1660   2.533  13.355   7.667 -0.0485  0.1216  0.0043
   55bbb     H7 1661   2.450  13.373   7.596 -1.3920 -0.2794  1.4144
   55bbb     H8 1662   2.488  13.316   7.759  0.0216  0.7708  0.3196
   55bbb     C5 1663   2.482  13.606   7.936  0.1688 -0.4703 -0.0670
   55bbb     H9 1664   2.419  13.577   7.851 -1.0467  0.2771  0.5499
   55bbb    H10 1665   2.500  13.713   7.920  1.8558 -0.7278 -0.0530
   55bbb     C6 1666   2.943  13.482   7.741  0.0178 -0.4093  0.5160
   55bbb    H11 1667   2.987  13.566   7.797  0.3991  0.3605 -0.8867
   55bbb    H12 1668   2.916  13.526   7.644 -1.5201 -1.1294  0.5912
   55bbb     C7 1669   2.632  13.237   7.617  0.6193  0.2780 -0.7447
   55bbb    H13 1670   2.573  13.145   7.613 -0.1899  0.6061  1.7786
   55bbb    H14 1671   2.707  13.226   7.696 -1.3082 -1.8659  0.9403
   55bbb     C8 1672   3.049  13.368   7.711 -0.1077  0.7206 -0.0191
   55bbb    H15 1673   3.012  13.297   7.636 -0.2021  1.5108 -0.7348
   55bbb    H16 1674   3.133  13.413   7.657  1.4102 -1.7510  0.1534
   55bbb     C9 1675   2.402  13.573   8.065 -0.0412 -0.4867  0.6557
   55bbb    H17 1676   2.358  13.474   8.049 -3.1869  0.6253  1.5828
   55bbb    H18 1677   2.316  13.640   8.076 -0.0773 -0.5739  0.9210
   55bbb     O1 1678   2.681  13.269   7.491  0.3869  0.5380 -0.1088
   55bbb    H19 1679   2.731  13.620   7.785  0.5201 -0.1417 -0.5768
   56bbb     N1 1680   1.774  12.168   7.887 -0.3593 -0.1000 -0.9053
   56bbb     C1 1681   1.647  12.112   7.957  0.3379 -0.1782 -0.1499
   56bbb     H1 1682   1.552  12.148   7.918 -0.7753 -1.4526  1.2752
   56bbb     H2 1683   1.653  12.152   8.058  0.8888  1.8103 -0.9232
   56bbb     C2 1684   1.775  12.116   7.741  0.3482  0.3548  0.0686
   56bbb     H3 1685   1.681  12.156   7.702 -1.0462 -2.0411  0.7949
   56bbb     H4 1686   1.772  12.007   7.749 -0.1680  0.4395  1.3780
   56bbb     C3 1687   1.780  12.313   7.886  0.0473 -0.5110 -0.1161
   56bbb     H5 1688   1.869  12.335   7.827  0.4856 -0.8903  0.4001
   56bbb     H6 1689   1.794  12.345   7.989 -0.1284 -0.5918 -0.0682
   56bbb     C4 1690   1.661  12.388   7.825  0.1456 -0.1284 -0.5141
   56bbb     H7 1691   1.594  12.403   7.910  0.5326  2.9202 -0.6229
   56bbb     H8 1692   1.603  12.339   7.747 -1.6908  1.7281 -0.3976
   56bbb     C5 1693   1.630  11.957   7.967 -0.1391 -0.4862 -0.6915
   56bbb     H9 1694   1.647  11.907   7.871  0.8989 -1.4616 -0.0191
   56bbb    H10 1695   1.524  11.937   7.984 -0.4187  1.2295 -0.2186
   56bbb     C6 1696   1.892  12.142   7.648  0.4442 -0.6063  0.4932
   56bbb    H11 1697   1.983  12.101   7.693 -0.8688 -2.1748  1.8209
   56bbb    H12 1698   1.916  12.248   7.631 -0.0205 -0.5141  0.4103
   56bbb     C7 1699   1.703  12.534   7.782 -0.3103  0.3126  0.8043
   56bbb    H13 1700   1.755  12.577   7.868 -1.3924 -0.3796  1.8313
   56bbb    H14 1701   1.614  12.597   7.767  0.6895  1.4826 -0.3664
   56bbb     C8 1702   1.865  12.076   7.510 -0.0013  0.3477  0.3045
   56bbb    H15 1703   1.845  11.969   7.515 -0.9217  0.1858 -3.7616
   56bbb    H16 1704   1.768  12.113   7.475 -1.1230 -2.9363 -0.3584
   56bbb     C9 1705   1.720  11.901   8.079  0.6466 -0.2382 -0.3724
   56bbb    H17 1706   1.822  11.934   8.054  0.6152  0.9121  0.9003
   56bbb    H18 1707   1.714  11.792   8.081  1.2739 -0.2725  0.0443
   56bbb     O1 1708   1.788  12.532   7.659 -0.6999 -0.0985  0.0994
   56bbb    H19 1709   1.852  12.126   7.939 -2.2442  0.0778  2.3215
   57bbb     N1 1710   1.224  13.005   7.104 -0.0013  0.0560 -0.2855
   57bbb     C1 1711   1.193  12.935   7.237  0.0853  0.4869  0.1051
   57bbb     H1 1712   1.281  12.947   7.301 -0.8591 -0.6668  1.6994
   57bbb     H2 1713   1.174  12.830   7.210  0.9808  0.5930 -1.0400
   57bbb     C2 1714   1.289  13.138   7.138  0.7577 -0.0195  0.0825
   57bbb     H3 1715   1.385  13.118   7.186  0.1557  1.1962  1.9051
   57bbb     H4 1716   1.226  13.184   7.214  2.0260 -0.3960  1.4178
   57bbb     C3 1717   1.313  12.914   7.029  0.1656  0.1250  0.4399
   57bbb     H5 1718   1.395  12.882   7.094 -1.3557 -0.1650  2.3273
   57bbb     H6 1719   1.357  12.967   6.945  2.9686  0.8614  2.2201
   57bbb     C4 1720   1.240  12.792   6.959 -0.4936 -0.0637  0.3802
   57bbb     H7 1721   1.175  12.829   6.879  2.1479  2.2498 -0.8768
   57bbb     H8 1722   1.176  12.750   7.038 -2.2033  1.5962 -0.0342
   57bbb     C5 1723   1.069  12.999   7.306 -0.9566 -0.3939  0.2653
   57bbb     H9 1724   0.990  12.990   7.230  1.4614 -2.6526 -2.2133
   57bbb    H10 1725   1.084  13.106   7.321 -0.3922 -0.3543 -0.4960
   57bbb     C6 1726   1.314  13.228   7.012  0.1040  0.2756 -0.2263
   57bbb    H11 1727   1.223  13.260   6.961 -0.8877 -1.4870  0.3537
   57bbb    H12 1728   1.364  13.170   6.933  1.4958 -0.1155  0.8940
   57bbb     C7 1729   1.348  12.699   6.918 -0.6294  0.0320 -0.2601
   57bbb    H13 1730   1.407  12.739   6.835  0.1396  1.4856  0.9435
   57bbb    H14 1731   1.306  12.607   6.876  1.7468 -0.6008 -1.4500
   57bbb     C8 1732   1.417  13.344   7.049  0.4741  0.1220  0.1047
   57bbb    H15 1733   1.493  13.299   7.114  0.1788 -0.7292 -0.1271
   57bbb    H16 1734   1.465  13.379   6.956  0.6736 -0.1097  0.1177
   57bbb     C9 1735   1.029  12.931   7.434 -0.4889 -0.5754  0.6040
   57bbb    H17 1736   1.108  12.932   7.510 -0.9941  0.7052  1.1471
   57bbb    H18 1737   0.998  12.830   7.405 -0.3784  0.0329 -1.9465
   57bbb     O1 1738   1.438  12.661   7.023 -0.2055  0.0621 -0.9939
   57bbb    H19 1739   1.139  13.021   7.048 -0.4150  0.0387  0.3275
   58bbb     N1 1740   2.183  14.251   4.950  0.4323  0.8179  0.1280
   58bbb     C1 1741   2.093  14.177   4.852 -0.3166  1.0378 -0.2838
   58bbb     H1 1742   2.155  14.134   4.773 -1.5642 -0.0839 -0.6858
   58bbb     H2 1743   2.027  14.254   4.812 -0.2969 -0.3151 -3.1895
   58bbb     C2 1744   2.098  14.325   5.051  0.0020 -0.2701  0.7195
   58bbb     H3 1745   2.081  14.248   5.127  0.0325 -0.0248  0.9765
   58bbb     H4 1746   2.004  14.351   5.003  0.8071  1.2203 -0.1149
   58bbb     C3 1747   2.288  14.158   5.020  0.1331 -0.8094  0.5345
   58bbb     H5 1748   2.229  14.075   5.059 -0.4031 -0.7152 -0.0582
   58bbb     H6 1749   2.327  14.208   5.109 -2.4462  0.5199  1.0354
   58bbb     C4 1750   2.399  14.093   4.930  0.2814  0.4666  0.1738
   58bbb     H7 1751   2.432  14.162   4.853 -2.1116 -0.2237 -1.6097
   58bbb     H8 1752   2.336  14.022   4.874 -1.0454  1.8738 -0.2069
   58bbb     C5 1753   2.012  14.053   4.894 -0.2903  0.5083 -0.1673
   58bbb     H9 1754   2.080  13.979   4.937  1.4134  1.1104 -1.6880
   58bbb    H10 1755   1.971  14.005   4.805 -4.5496 -0.0981  1.8705
   58bbb     C6 1756   2.155  14.445   5.125 -0.4517 -0.0485  0.4142
   58bbb    H11 1757   2.212  14.413   5.213  0.1996  0.5958  0.2349
   58bbb    H12 1758   2.071  14.499   5.172 -1.4266 -1.0100 -0.1880
   58bbb     C7 1759   2.510  14.023   5.008  0.7521  0.2453 -0.3288
   58bbb    H13 1760   2.544  14.088   5.089 -0.0293 -0.2079  0.3847
   58bbb    H14 1761   2.600  14.008   4.947  0.1859  0.2933 -1.1936
   58bbb     C8 1762   2.248  14.540   5.046  0.1625  0.5291 -0.7854
   58bbb    H15 1763   2.263  14.628   5.111  0.3860  1.7405 -2.4107
   58bbb    H16 1764   2.343  14.490   5.023 -0.5282 -2.0577  1.4612
   58bbb     C9 1765   1.888  14.093   4.975 -0.6453  0.5881  0.7476
   58bbb    H17 1766   1.923  14.114   5.077  4.0390 -0.6513 -0.3501
   58bbb    H18 1767   1.822  14.005   4.976  0.3799 -0.2018  0.9701
   58bbb     O1 1768   2.451  13.902   5.069 -0.1160  0.2615 -0.0004
   58bbb    H19 1769   2.232  14.318   4.888 -0.0735  0.8414 -0.2486
   59bbb     N1 1770   2.377  14.011   5.908  0.6863 -0.1390 -0.0184
   59bbb     C1 1771   2.363  14.013   6.061 -0.2585 -0.9417 -0.3268
   59bbb     H1 1772   2.448  14.067   6.102  0.1795 -0.7742 -1.4238
   59bbb     H2 1773   2.368  13.907   6.089 -0.2763 -0.4699  1.5981
   59bbb     C2 1774   2.417  14.147   5.864  0.4847  0.1719 -0.2581
   59bbb     H3 1775   2.499  14.190   5.922 -0.7808  3.1903 -0.5398
   59bbb     H4 1776   2.333  14.212   5.887  0.6027 -0.0791  0.9450
   59bbb     C3 1777   2.482  13.902   5.862  0.0078  0.5180  0.1430
   59bbb     H5 1778   2.572  13.920   5.922  2.5973 -0.8222 -3.0330
   59bbb     H6 1779   2.494  13.903   5.754 -1.9509 -1.8899 -0.1881
   59bbb     C4 1780   2.449  13.756   5.888  0.9289 -0.0864  0.6392
   59bbb     H7 1781   2.360  13.733   5.828  1.8910  0.5282 -1.0871
   59bbb     H8 1782   2.412  13.749   5.991  1.5408  2.7834  1.1278
   59bbb     C5 1783   2.228  14.072   6.101  0.1786  0.3391 -0.0437
   59bbb     H9 1784   2.151  14.018   6.045  1.3028 -1.6213  0.2115
   59bbb    H10 1785   2.226  14.181   6.086  0.4906  0.6332  1.7663
   59bbb     C6 1786   2.455  14.158   5.714 -0.2699 -0.2652 -0.0880
   59bbb    H11 1787   2.379  14.101   5.659  0.5286 -2.2835  0.7827
   59bbb    H12 1788   2.554  14.117   5.689 -0.1893  0.5623 -1.1872
   59bbb     C7 1789   2.556  13.656   5.883  0.2181  0.2818 -0.0350
   59bbb    H13 1790   2.515  13.562   5.920 -1.7837  1.0119 -0.3031
   59bbb    H14 1791   2.637  13.684   5.952 -1.6804  0.9994  2.0138
   59bbb     C8 1792   2.448  14.305   5.675  0.3423 -0.0468 -0.5725
   59bbb    H15 1793   2.454  14.307   5.565 -0.2180 -1.8773 -0.6748
   59bbb    H16 1794   2.359  14.356   5.712  0.1886 -2.2567  2.4986
   59bbb     C9 1795   2.194  14.045   6.251 -0.1120 -0.8988  0.0936
   59bbb    H17 1796   2.264  14.089   6.324 -0.4870 -0.4848  0.2110
   59bbb    H18 1797   2.177  13.937   6.259  0.9432 -1.0197  0.9746
   59bbb     O1 1798   2.599  13.641   5.743 -0.0643  0.0342 -0.2916
   59bbb    H19 1799   2.287  13.988   5.862 -0.9719  1.0950  2.3361
   60bbb     N1 1800   0.690  13.029   4.942 -0.5408 -0.0915  0.1354
   60bbb     C1 1801   0.634  13.162   4.907  0.0721 -0.4434  0.9169
   60bbb     H1 1802   0.681  13.245   4.960 -0.9901  0.1051  1.0391
   60bbb     H2 1803   0.528  13.163   4.933 -0.2798  1.1921 -0.4104
   60bbb     C2 1804   0.838  13.025   4.926 -0.3099  0.4663  0.3951
   60bbb     H3 1805   0.884  13.100   4.991 -0.4003  1.7162 -0.9235
   60bbb     H4 1806   0.860  13.065   4.827 -1.1964 -0.0376 -0.0160
   60bbb     C3 1807   0.647  12.980   5.080 -0.6214 -0.2464 -0.3821
   60bbb     H5 1808   0.716  12.899   5.103  0.4135  0.2671 -1.5574
   60bbb     H6 1809   0.544  12.946   5.082 -0.8917  0.5530  1.3900
   60bbb     C4 1810   0.639  13.078   5.202 -0.0827 -0.4272 -0.2406
   60bbb     H7 1811   0.601  13.024   5.290 -2.4485  2.4295  0.6758
   60bbb     H8 1812   0.564  13.155   5.178  0.7318  0.9272  1.3572
   60bbb     C5 1813   0.633  13.208   4.757 -0.8522  0.1836  0.0267
   60bbb     H9 1814   0.734  13.238   4.729 -1.1007  1.3291  0.2709
   60bbb    H10 1815   0.581  13.304   4.746 -0.5926  0.3071 -0.1330
   60bbb     C6 1816   0.911  12.887   4.930  0.1872 -0.1232 -0.0837
   60bbb    H11 1817   0.872  12.819   5.006 -0.0784  0.9044  0.7260
   60bbb    H12 1818   1.015  12.911   4.958  0.4780  0.7365 -1.7358
   60bbb     C7 1819   0.771  13.143   5.243 -0.2441  0.2670  0.0372
   60bbb    H13 1820   0.746  13.201   5.333 -2.4813 -0.6690  0.0620
   60bbb    H14 1821   0.803  13.209   5.162  2.2837 -1.1081 -0.1842
   60bbb     C8 1822   0.910  12.811   4.794  0.0199 -0.7557  0.3345
   60bbb    H15 1823   0.958  12.872   4.717 -1.8781 -0.3233 -0.5552
   60bbb    H16 1824   0.968  12.718   4.804  2.1490  0.2326 -1.8368
   60bbb     C9 1825   0.582  13.101   4.657  0.1705  0.2617  0.1288
   60bbb    H17 1826   0.474  13.120   4.649 -0.2641 -1.0015  2.2073
   60bbb    H18 1827   0.582  13.000   4.698  0.9911  0.0128 -0.4554
   60bbb     O1 1828   0.876  13.041   5.268  0.5802 -0.2058  1.5648
   60bbb    H19 1829   0.654  12.967   4.867  0.7044  1.0073 -1.4478
   61bbb     N1 1830   0.554  12.826   6.032  0.1083  0.2342 -0.2856
   61bbb     C1 1831   0.539  12.969   6.004  0.4555 -0.5810 -0.2655
   61bbb     H1 1832   0.442  12.983   6.052  1.1394 -1.2346  1.3540
   61bbb     H2 1833   0.528  13.000   5.900 -0.3246  1.9578  0.4796
   61bbb     C2 1834   0.434  12.749   5.976 -0.6360  0.1289  0.0077
   61bbb     H3 1835   0.456  12.645   6.000 -1.8218 -0.3342 -0.8616
   61bbb     H4 1836   0.417  12.770   5.871  0.3895  1.3018  0.0491
   61bbb     C3 1837   0.678  12.785   5.949 -0.6281  0.4181 -0.2968
   61bbb     H5 1838   0.759  12.832   6.006 -0.5930  1.7209 -1.3737
   61bbb     H6 1839   0.667  12.828   5.850  0.7547  1.0500 -0.1968
   61bbb     C4 1840   0.711  12.633   5.935  0.1605  0.1696 -0.4214
   61bbb     H7 1841   0.636  12.585   5.871  1.1448 -1.8623 -0.1149
   61bbb     H8 1842   0.700  12.601   6.040  1.0056  1.5955  0.1325
   61bbb     C5 1843   0.632  13.066   6.079 -0.0700  0.3685 -0.8032
   61bbb     H9 1844   0.738  13.050   6.057  1.3338  1.0786  4.1421
   61bbb    H10 1845   0.623  13.041   6.186 -0.3768  0.2844 -0.8473
   61bbb     C6 1846   0.296  12.779   6.036 -0.3174 -0.1977  0.1828
   61bbb    H11 1847   0.253  12.871   5.995 -3.4066 -1.7108 -0.2538
   61bbb    H12 1848   0.310  12.788   6.144 -0.9353 -2.9607  0.5695
   61bbb     C7 1849   0.854  12.615   5.883  0.7294 -0.3168  0.3110
   61bbb    H13 1850   0.877  12.508   5.876  1.3364 -0.1405 -0.5356
   61bbb    H14 1851   0.909  12.656   5.969 -1.2634  2.0264  0.5872
   61bbb     C8 1852   0.202  12.667   6.000  0.1099  0.1307 -0.7389
   61bbb    H15 1853   0.103  12.703   6.031 -0.6520 -1.9909 -0.5322
   61bbb    H16 1854   0.192  12.656   5.892 -1.1118 -0.2708 -0.5960
   61bbb     C9 1855   0.595  13.209   6.033 -0.4226  0.2814 -0.4404
   61bbb    H17 1856   0.591  13.217   5.924 -1.0344 -0.2252 -0.4627
   61bbb    H18 1857   0.675  13.270   6.078  0.3838 -0.1383 -1.2616
   61bbb     O1 1858   0.882  12.699   5.766 -0.5784  0.0115  0.1858
   61bbb    H19 1859   0.574  12.818   6.132 -0.5792  0.7280 -0.1060
   62bbb     N1 1860   0.276   8.741   4.677 -0.1380  0.1801 -0.1991
   62bbb     C1 1861   0.144   8.742   4.592  0.3545 -0.0050 -0.6019
   62bbb     H1 1862   0.097   8.648   4.620  1.1632  0.3999  2.5100
   62bbb     H2 1863   0.178   8.744   4.489  3.8699  1.4380  0.4332
   62bbb     C2 1864   0.328   8.599   4.686 -0.4841 -0.3029  0.0184
   62bbb     H3 1865   0.248   8.539   4.727 -1.1766  0.0124 -0.8422
   62bbb     H4 1866   0.412   8.600   4.756 -1.3545 -1.6779  1.1154
   62bbb     C3 1867   0.380   8.836   4.612  0.0351 -0.1991 -0.2078
   62bbb     H5 1868   0.317   8.924   4.610  0.4251  0.1428  1.2789
   62bbb     H6 1869   0.405   8.793   4.515 -4.3114  0.4141 -1.7966
   62bbb     C4 1870   0.500   8.882   4.700  0.3167 -0.3274  0.1601
   62bbb     H7 1871   0.593   8.870   4.643  1.1903  4.5969  0.0893
   62bbb     H8 1872   0.519   8.818   4.788  3.0947  0.5321  0.2998
   62bbb     C5 1873   0.056   8.864   4.629 -0.4906  0.8567  0.9923
   62bbb     H9 1874   0.126   8.946   4.648  0.1923  0.4152  0.4275
   62bbb    H10 1875  -0.005   8.849   4.719 -0.2112  2.3820  1.4593
   62bbb     C6 1876   0.380   8.533   4.560 -0.3362  0.4787  0.1486
   62bbb    H11 1877   0.487   8.549   4.544  0.1103 -2.1631  0.0554
   62bbb    H12 1878   0.321   8.560   4.471 -2.1296 -0.6726  0.9176
   62bbb     C7 1879   0.497   9.037   4.737 -0.1537 -0.1291 -0.3430
   62bbb    H13 1880   0.404   9.058   4.790 -0.2904  2.1153 -1.3497
   62bbb    H14 1881   0.495   9.107   4.653  0.8000  3.7742  2.6200
   62bbb     C8 1882   0.375   8.381   4.570  0.4831 -0.0470 -0.7445
   62bbb    H15 1883   0.399   8.347   4.469 -1.3718 -0.2046 -1.1810
   62bbb    H16 1884   0.449   8.351   4.645  3.0062  0.3020 -2.9799
   62bbb     C9 1885  -0.038   8.899   4.512 -0.2585 -0.0034  0.7498
   62bbb    H17 1886   0.027   8.892   4.424  0.5937  1.1405  1.2641
   62bbb    H18 1887  -0.071   9.004   4.509 -0.3926 -0.0335  1.1343
   62bbb     O1 1888   0.600   9.069   4.833 -0.6250  0.5449 -0.2328
   62bbb    H19 1889   0.264   8.773   4.774  0.9815  1.5984 -0.4951
   63bbb     N1 1890   0.848   9.404   5.553 -0.0578 -0.1987  0.2323
   63bbb     C1 1891   0.701   9.399   5.518 -0.0291  0.5199 -0.0881
   63bbb     H1 1892   0.679   9.303   5.472 -1.5327  0.7260  0.1399
   63bbb     H2 1893   0.686   9.467   5.435  1.4732  1.3220  0.2540
   63bbb     C2 1894   0.890   9.539   5.609  0.2566 -0.4538 -0.3476
   63bbb     H3 1895   0.880   9.535   5.718 -1.8354  1.0546 -0.4256
   63bbb     H4 1896   0.823   9.619   5.578  0.7879  0.3328  0.4912
   63bbb     C3 1897   0.891   9.292   5.644 -0.0493  0.5472  1.0453
   63bbb     H5 1898   0.811   9.273   5.715  0.7137  0.4274  1.8971
   63bbb     H6 1899   0.965   9.336   5.712  2.0134 -0.0044 -0.7225
   63bbb     C4 1900   0.956   9.162   5.574 -0.1035 -0.0767 -0.5186
   63bbb     H7 1901   0.884   9.104   5.515 -1.1600  0.2827  0.3873
   63bbb     H8 1902   0.984   9.092   5.654  0.1029  0.1443 -0.3969
   63bbb     C5 1903   0.601   9.434   5.627 -0.4085  0.2087  0.3502
   63bbb     H9 1904   0.645   9.510   5.693  1.4554 -1.4731  1.1860
   63bbb    H10 1905   0.586   9.352   5.698  2.6566 -0.8477 -0.0445
   63bbb     C6 1906   1.034   9.571   5.564  0.3792  0.0091 -1.1882
   63bbb    H11 1907   1.042   9.576   5.455  1.3936  0.8938 -1.0893
   63bbb    H12 1908   1.104   9.492   5.595  0.9918  0.3015 -1.8097
   63bbb     C7 1909   1.074   9.192   5.483  0.7656 -0.1235 -1.0882
   63bbb    H13 1910   1.116   9.101   5.438 -0.2221 -0.3466 -1.5866
   63bbb    H14 1911   1.154   9.252   5.529  1.9684 -1.2715 -1.6194
   63bbb     C8 1912   1.086   9.702   5.625  0.0693 -0.2842 -0.2773
   63bbb    H15 1913   1.184   9.737   5.589 -0.0109  2.6514  2.0541
   63bbb    H16 1914   1.013   9.778   5.595 -0.7520 -0.9580 -0.0278
   63bbb     C9 1915   0.465   9.477   5.570  0.3126 -0.5460 -0.3591
   63bbb    H17 1916   0.422   9.406   5.500  1.1265 -0.7232 -0.6875
   63bbb    H18 1917   0.482   9.571   5.516 -3.0276  0.4265  0.0947
   63bbb     O1 1918   1.018   9.271   5.373  0.2149 -0.2942 -0.1768
   63bbb    H19 1919   0.901   9.397   5.465  0.7498 -1.2681  0.7846
   64bbb     N1 1920   0.300   9.658   3.758 -0.0333  0.9239 -0.1086
   64bbb     C1 1921   0.172   9.584   3.789 -0.3958  0.1142 -0.3684
   64bbb     H1 1922   0.136   9.550   3.692  0.9443 -1.2586 -0.4201
   64bbb     H2 1923   0.108   9.665   3.824  1.3860  2.0517 -1.3690
   64bbb     C2 1924   0.309   9.673   3.606 -0.2603  0.0662  0.3809
   64bbb     H3 1925   0.223   9.729   3.569  0.5039  0.6804 -0.5030
   64bbb     H4 1926   0.307   9.580   3.549 -0.3272  1.1676 -1.4805
   64bbb     C3 1927   0.296   9.798   3.820  0.6794 -0.2371 -0.7421
   64bbb     H5 1928   0.222   9.851   3.759  1.8784  0.1881 -1.8594
   64bbb     H6 1929   0.389   9.850   3.801  0.2968  1.6638  2.0993
   64bbb     C4 1930   0.265   9.797   3.973  1.1018  0.4958  1.0028
   64bbb     H7 1931   0.334   9.730   4.025  2.3383 -1.7925 -3.1033
   64bbb     H8 1932   0.169   9.749   3.997  1.9860 -1.1451  1.3774
   64bbb     C5 1933   0.182   9.463   3.886 -0.8593  0.0102  0.2958
   64bbb     H9 1934   0.232   9.496   3.977  1.1696 -0.3835 -0.6246
   64bbb    H10 1935   0.257   9.400   3.837 -0.8277  0.7605 -0.6696
   64bbb     C6 1936   0.445   9.728   3.557 -0.7605  0.7559 -0.2847
   64bbb    H11 1937   0.482   9.809   3.621 -1.8210  0.4245  0.7838
   64bbb    H12 1938   0.427   9.785   3.465  1.1734  0.7059 -0.7370
   64bbb     C7 1939   0.269   9.938   4.038  0.2897 -0.1934 -0.7447
   64bbb    H13 1940   0.249   9.934   4.146  2.0654  0.0535 -0.3657
   64bbb    H14 1941   0.184   9.991   3.994  0.3013 -0.6365 -1.3079
   64bbb     C8 1942   0.550   9.621   3.528 -0.0203 -0.7814 -0.0361
   64bbb    H15 1943   0.643   9.672   3.499 -0.3243 -0.5319 -0.5883
   64bbb    H16 1944   0.586   9.562   3.613  0.7649  2.0062  1.6984
   64bbb     C9 1945   0.047   9.388   3.915 -0.2015 -0.0653 -0.8453
   64bbb    H17 1946  -0.018   9.445   3.982 -0.1250 -0.6987 -0.2250
   64bbb    H18 1947   0.064   9.298   3.976 -1.0379  1.6188  2.0198
   64bbb     O1 1948   0.398  10.001   4.012  0.8071 -0.4417  0.0450
   64bbb    H19 1949   0.377   9.601   3.795 -0.6565 -0.3289 -0.6658
   65bbb     N1 1950   0.182  10.598   4.397  1.1775  0.3559  0.0267
   65bbb     C1 1951   0.107  10.677   4.510 -0.4665 -0.2898  0.0176
   65bbb     H1 1952   0.097  10.600   4.587 -0.0786  0.1891  0.5510
   65bbb     H2 1953   0.016  10.706   4.457  0.1407  1.4934 -0.1117
   65bbb     C2 1954   0.197  10.685   4.269 -0.5005 -0.3342  0.4539
   65bbb     H3 1955   0.234  10.606   4.203 -0.7470  0.8750 -1.1945
   65bbb     H4 1956   0.277  10.759   4.279 -0.5636 -0.2849  0.5972
   65bbb     C3 1957   0.315  10.546   4.440 -0.4374  0.4046  0.1823
   65bbb     H5 1958   0.364  10.632   4.485  0.2514 -1.3572  3.0725
   65bbb     H6 1959   0.368  10.506   4.354 -2.8476  2.3091 -2.3574
   65bbb     C4 1960   0.313  10.431   4.548 -0.4491  0.0827 -0.0321
   65bbb     H7 1961   0.296  10.332   4.504  0.9188 -0.2342  0.1178
   65bbb     H8 1962   0.234  10.442   4.624 -0.3279  0.4101  0.0493
   65bbb     C5 1963   0.177  10.791   4.577  0.1099 -0.9159  0.0664
   65bbb     H9 1964   0.191  10.861   4.494 -2.6265 -0.9712 -0.5520
   65bbb    H10 1965   0.271  10.748   4.614 -0.9903 -1.9855  1.8420
   65bbb     C6 1966   0.076  10.741   4.195 -0.0259  0.3474 -0.4107
   65bbb    H11 1967   0.034  10.822   4.256 -0.7653 -1.2082  1.2169
   65bbb    H12 1968  -0.004  10.666   4.196 -0.9099  1.2509  1.6110
   65bbb     C7 1969   0.442  10.423   4.636 -0.3416  0.3211  0.0978
   65bbb    H13 1970   0.437  10.328   4.690 -1.3436 -0.3865 -1.1786
   65bbb    H14 1971   0.442  10.500   4.713  2.2466 -0.1301  0.6288
   65bbb     C8 1972   0.107  10.774   4.052  0.7964 -0.0750  0.0004
   65bbb    H15 1973   0.193  10.842   4.054  1.0952 -0.4518 -0.0892
   65bbb    H16 1974   0.124  10.682   3.994 -1.2355  0.2921 -1.2932
   65bbb     C9 1975   0.103  10.857   4.688  0.1597  0.0399 -0.2310
   65bbb    H17 1976   0.153  10.953   4.709  1.5251 -0.6411 -0.2383
   65bbb    H18 1977   0.100  10.795   4.779 -0.9662 -0.1886 -0.4138
   65bbb     O1 1978   0.559  10.429   4.552 -1.1062 -0.1631  0.1507
   65bbb    H19 1979   0.124  10.516   4.375  1.7693 -0.4027  1.2104
   66bbb     N1 1980   2.066  11.091   3.496 -0.5625  0.7159  0.2897
   66bbb     C1 1981   2.121  11.160   3.373 -0.4632  0.6997 -0.0436
   66bbb     H1 1982   2.121  11.090   3.289 -0.2287  1.1532 -0.4269
   66bbb     H2 1983   2.224  11.186   3.399 -0.1468 -0.0716 -0.4614
   66bbb     C2 1984   1.923  11.029   3.483  0.1377 -0.4098  0.6174
   66bbb     H3 1985   1.925  10.948   3.409  1.5613 -1.1332  1.3958
   66bbb     H4 1986   1.867  11.107   3.432  1.9991 -1.3035 -3.1430
   66bbb     C3 1987   2.151  10.964   3.522 -0.1809  0.9921 -0.1716
   66bbb     H5 1988   2.151  10.898   3.435 -0.3161 -0.7161  1.0791
   66bbb     H6 1989   2.097  10.905   3.596 -1.8822  1.2564 -1.1423
   66bbb     C4 1990   2.293  10.998   3.579 -0.1916  0.3940 -0.2187
   66bbb     H7 1991   2.349  11.060   3.508  1.0676 -0.3766  0.0876
   66bbb     H8 1992   2.362  10.914   3.590  2.1621  2.4499  2.2328
   66bbb     C5 1993   2.045  11.281   3.327 -0.4823  0.2960 -0.8097
   66bbb     H9 1994   2.041  11.359   3.404  0.8965 -1.0788  0.7138
   66bbb    H10 1995   1.940  11.255   3.308 -0.9755  2.0587 -0.6885
   66bbb     C6 1996   1.851  10.988   3.610  0.4699 -0.4520 -0.9410
   66bbb    H11 1997   1.852  11.070   3.683 -3.0313 -0.8131 -0.3497
   66bbb    H12 1998   1.889  10.896   3.657 -0.8239 -1.9665 -2.7317
   66bbb     C7 1999   2.286  11.071   3.716  0.1160  0.1956 -0.0993
   66bbb    H13 2000   2.245  11.172   3.709  0.3440  0.3848  1.0732
   66bbb    H14 2001   2.387  11.087   3.756 -0.8635  1.6526  1.9485
   66bbb     C8 2002   1.700  10.953   3.580 -0.0837 -0.1024 -0.0969
   66bbb    H15 2003   1.692  10.870   3.509  0.1441 -1.6504  1.6303
   66bbb    H16 2004   1.655  10.922   3.676  0.4481  0.0594  0.2059
   66bbb     C9 2005   2.107  11.344   3.200 -0.0113  0.1996 -0.1815
   66bbb    H17 2006   2.201  11.396   3.220 -0.2983 -0.2785  2.8226
   66bbb    H18 2007   2.045  11.426   3.163  1.8681  2.0646  0.6249
   66bbb     O1 2008   2.219  10.983   3.811  0.2883 -0.0259  0.4496
   66bbb    H19 2009   2.082  11.163   3.568  1.4748  2.5895 -1.8646
   67bbb     N1 2010   1.176  11.050   4.368  0.1475  0.2555  0.7686
   67bbb     C1 2011   1.129  11.078   4.509  0.2583 -0.2368  0.0258
   67bbb     H1 2012   1.023  11.058   4.517 -0.1489  1.9338  0.8329
   67bbb     H2 2013   1.131  11.187   4.511  0.2430 -0.0678 -3.3688
   67bbb     C2 2014   1.063  11.095   4.273  0.1944 -0.7042 -0.2534
   67bbb     H3 2015   1.074  11.201   4.253  1.7413 -0.8367 -0.2311
   67bbb     H4 2016   0.973  11.091   4.334  0.5255 -3.0312  0.1896
   67bbb     C3 2017   1.300  11.131   4.334  0.6789  0.4893  0.6034
   67bbb     H5 2018   1.380  11.098   4.400 -0.6193 -3.2312  0.5572
   67bbb     H6 2019   1.271  11.236   4.340  1.8842  0.8329  0.6382
   67bbb     C4 2020   1.359  11.107   4.195  0.6516 -0.7523  0.7755
   67bbb     H7 2021   1.292  11.148   4.119  0.0349 -3.3201 -0.1510
   67bbb     H8 2022   1.370  10.999   4.177  0.9416 -0.3874 -1.5053
   67bbb     C5 2023   1.216  11.024   4.629  0.5289 -0.4190  0.3523
   67bbb     H9 2024   1.238  11.105   4.700 -0.6919 -1.2006  1.6872
   67bbb    H10 2025   1.311  10.988   4.590  1.0717 -1.1370  2.2210
   67bbb     C6 2026   1.040  11.011   4.142 -0.8667 -0.5760  0.2233
   67bbb    H11 2027   1.023  10.908   4.173 -0.2607  0.0283  2.8799
   67bbb    H12 2028   1.133  11.010   4.084 -1.4759 -2.0491 -0.7702
   67bbb     C7 2029   1.498  11.175   4.183 -1.4244  0.3135 -0.4363
   67bbb    H13 2030   1.501  11.278   4.221  0.7288 -0.2182  1.0120
   67bbb    H14 2031   1.515  11.173   4.075 -0.6534  1.6646 -0.3685
   67bbb     C8 2032   0.926  11.071   4.047  0.3244 -0.3916  0.1113
   67bbb    H15 2033   0.932  11.178   4.022  1.6073 -0.2511  0.9374
   67bbb    H16 2034   0.934  11.015   3.953 -1.0375 -1.3084  0.5194
   67bbb     C9 2035   1.155  10.909   4.715 -0.0109 -0.0983  0.3504
   67bbb    H17 2036   1.052  10.938   4.742  0.2133  0.7693  0.3091
   67bbb    H18 2037   1.205  10.899   4.812  0.5836  2.2042  0.3506
   67bbb     O1 2038   1.603  11.090   4.241  0.0132 -0.2118  0.5642
   67bbb    H19 2039   1.183  10.948   4.357 -0.1627  0.3713 -0.8560
   68bbb     N1 2040   2.190  10.262   2.259 -0.2627 -0.9082 -0.2876
   68bbb     C1 2041   2.280  10.162   2.194 -0.4363 -0.6007 -0.2394
   68bbb     H1 2042   2.345  10.218   2.126 -0.4707 -0.4799 -0.1726
   68bbb     H2 2043   2.215  10.106   2.127 -1.1780  2.0022 -1.8500
   68bbb     C2 2044   2.068  10.200   2.334 -0.1684 -0.2394  0.8540
   68bbb     H3 2045   2.007  10.266   2.397 -1.3102 -1.9426  1.6265
   68bbb     H4 2046   2.102  10.112   2.388  1.3015  0.0955  0.5126
   68bbb     C3 2047   2.272  10.358   2.344  0.0651  0.0728 -0.2021
   68bbb     H5 2048   2.365  10.387   2.295  1.4167  0.2558  2.2679
   68bbb     H6 2049   2.294  10.305   2.438 -0.5220  0.2398  0.0287
   68bbb     C4 2050   2.212  10.489   2.384  0.9873 -0.3918  0.0636
   68bbb     H7 2051   2.104  10.475   2.400  0.1720 -0.8942 -4.4697
   68bbb     H8 2052   2.218  10.565   2.305  0.9892 -0.1461  0.3007
   68bbb     C5 2053   2.353  10.069   2.293  0.1960 -0.0150 -0.0314
   68bbb     H9 2054   2.293  10.036   2.378  1.9561 -0.2478  1.1778
   68bbb    H10 2055   2.425  10.133   2.345  0.4006  0.4862 -0.9026
   68bbb     C6 2056   1.968  10.161   2.227 -0.6574  0.0311  0.4716
   68bbb    H11 2057   2.017  10.161   2.129 -0.5780  2.0041  0.4745
   68bbb    H12 2058   1.897  10.244   2.217  0.3358  0.7028 -1.3550
   68bbb     C7 2059   2.289  10.542   2.509  0.6486 -0.7783 -0.1450
   68bbb    H13 2060   2.251  10.637   2.548 -0.0513 -0.7399 -0.8947
   68bbb    H14 2061   2.393  10.565   2.482  0.8803  1.3383  2.1406
   68bbb     C8 2062   1.894  10.035   2.261 -0.2477 -0.3422 -0.5531
   68bbb    H15 2063   1.850  10.029   2.361  0.8631  0.1777 -0.0093
   68bbb    H16 2064   1.812  10.032   2.189 -0.1207  1.7078 -0.8538
   68bbb     C9 2065   2.420   9.943   2.231 -0.1992 -0.3065  0.1910
   68bbb    H17 2066   2.450   9.876   2.312  0.9718  0.1290  0.1275
   68bbb    H18 2067   2.511   9.972   2.177 -1.7948  2.2230 -1.3713
   68bbb     O1 2068   2.277  10.445   2.609 -0.5474 -0.4264  0.0160
   68bbb    H19 2069   2.154  10.314   2.178 -0.3989 -0.4544  0.0678
   69bbb     N1 2070   1.372  10.424   2.598  0.1285  0.2830 -0.7640
   69bbb     C1 2071   1.423  10.553   2.531 -0.1457  0.1881 -1.0772
   69bbb     H1 2072   1.490  10.595   2.607 -0.4968 -2.0414  0.5723
   69bbb     H2 2073   1.329  10.607   2.529 -1.8966 -2.5915  0.1039
   69bbb     C2 2074   1.281  10.348   2.511 -0.2174 -0.1862 -0.0233
   69bbb     H3 2075   1.253  10.263   2.572  0.0540 -1.0897 -1.1151
   69bbb     H4 2076   1.330  10.305   2.423 -0.9321 -0.4381 -0.3050
   69bbb     C3 2077   1.491  10.342   2.643  0.6857  1.4485  0.0311
   69bbb     H5 2078   1.574  10.401   2.682 -0.0826  3.1832 -0.8731
   69bbb     H6 2079   1.522  10.305   2.544 -1.6416  1.0334 -0.5971
   69bbb     C4 2080   1.468  10.229   2.752  0.0028  0.0697  0.3519
   69bbb     H7 2081   1.389  10.164   2.713 -0.7286  1.2633 -0.2091
   69bbb     H8 2082   1.436  10.266   2.850 -0.0823 -0.3611  0.4900
   69bbb     C5 2083   1.499  10.534   2.401  0.0085 -0.0253 -0.4238
   69bbb     H9 2084   1.458  10.460   2.330  0.5703  0.3589 -1.1704
   69bbb    H10 2085   1.599  10.492   2.420  0.0221  0.2613  0.1428
   69bbb     C6 2086   1.154  10.427   2.470  0.4649 -0.5697 -0.2415
   69bbb    H11 2087   1.176  10.517   2.412 -2.7471 -0.0642 -0.8149
   69bbb    H12 2088   1.121  10.463   2.568  1.3521 -2.4493  0.8138
   69bbb     C7 2089   1.596  10.140   2.774  0.7650 -0.5642  0.0380
   69bbb    H13 2090   1.616  10.090   2.679  0.1198  1.7160 -1.3800
   69bbb    H14 2091   1.584  10.074   2.861  1.3137  0.1288  0.6585
   69bbb     C8 2092   1.039  10.345   2.403 -0.2346  0.4646  0.0600
   69bbb    H15 2093   1.029  10.246   2.447  1.0300 -0.9668 -2.6123
   69bbb    H16 2094   0.944  10.400   2.407  0.0856  1.2612 -1.8617
   69bbb     C9 2095   1.506  10.672   2.324 -0.1302 -0.6711  0.2533
   69bbb    H17 2096   1.405  10.705   2.299 -0.0822 -0.2307  0.6324
   69bbb    H18 2097   1.551  10.657   2.224  0.9683 -0.3747  0.6827
   69bbb     O1 2098   1.715  10.229   2.789  0.0361 -0.0124  0.2535
   69bbb    H19 2099   1.317  10.454   2.680 -1.2423 -1.8621 -0.8385
   70bbb     N1 2100   4.315   9.230   3.125  0.5511  0.0248  0.2307
   70bbb     C1 2101   4.395   9.178   3.248  0.2215  0.0609 -0.0947
   70bbb     H1 2102   4.498   9.167   3.213  0.7410  0.0026  1.4069
   70bbb     H2 2103   4.342   9.086   3.273 -3.3652  1.9399  0.0117
   70bbb     C2 2104   4.396   9.219   2.997 -0.2153 -0.0392 -0.1305
   70bbb     H3 2105   4.427   9.115   2.993 -1.4758 -0.4083 -0.8850
   70bbb     H4 2106   4.483   9.281   3.019 -0.0558 -0.1051 -0.5550
   70bbb     C3 2107   4.189   9.142   3.102  0.1075 -0.5049  0.3281
   70bbb     H5 2108   4.213   9.041   3.133 -2.3911 -1.1762  0.3361
   70bbb     H6 2109   4.154   9.143   2.999 -0.7586  2.6633  0.5488
   70bbb     C4 2110   4.068   9.174   3.195 -0.1026  0.0164 -0.1698
   70bbb     H7 2111   4.035   9.276   3.171 -0.0059  0.0267 -0.2591
   70bbb     H8 2112   4.088   9.182   3.303 -0.0841  2.3771 -0.2987
   70bbb     C5 2113   4.399   9.277   3.362 -0.1899 -0.1793 -0.8323
   70bbb     H9 2114   4.298   9.308   3.392  0.2442  0.6218 -0.1492
   70bbb    H10 2115   4.454   9.368   3.333  1.5722 -0.7376  0.6033
   70bbb     C6 2116   4.329   9.262   2.861  0.7720  0.4827  0.8784
   70bbb    H11 2117   4.293   9.365   2.870 -0.9457  0.2297 -2.1095
   70bbb    H12 2118   4.240   9.202   2.836 -0.1285  1.3520  1.9007
   70bbb     C7 2119   3.954   9.075   3.182 -0.3738  0.2027 -0.0891
   70bbb    H13 2120   3.890   9.089   3.271  1.1562  1.0882  0.9104
   70bbb    H14 2121   3.993   8.973   3.179 -1.6681 -0.3150 -0.1558
   70bbb     C8 2122   4.423   9.250   2.744  0.5866  0.6565  0.3874
   70bbb    H15 2123   4.353   9.265   2.661  0.1101  1.0218  0.8489
   70bbb    H16 2124   4.504   9.324   2.751 -0.8927  2.4515 -0.5601
   70bbb     C9 2125   4.482   9.227   3.481  0.8673  0.9303 -0.1196
   70bbb    H17 2126   4.493   9.292   3.569  2.6662  0.3468  0.1262
   70bbb    H18 2127   4.586   9.212   3.449  0.2641  1.2544 -2.4059
   70bbb     O1 2128   3.886   9.099   3.059  0.2018 -0.6079  0.7258
   70bbb    H19 2129   4.289   9.327   3.146 -0.3242 -0.4038  1.2559
   71bbb     N1 2130   3.138   8.876   2.492  0.1268 -0.4662  0.1312
   71bbb     C1 2131   3.046   8.803   2.578  0.1620  0.4050  0.7603
   71bbb     H1 2132   3.114   8.743   2.638 -1.4518  0.3798  2.7003
   71bbb     H2 2133   2.987   8.744   2.508  0.6961 -1.8901  2.1447
   71bbb     C2 2134   3.222   8.777   2.416  0.0865  0.2715  0.1825
   71bbb     H3 2135   3.285   8.843   2.357 -1.6025  1.4302 -0.3700
   71bbb     H4 2136   3.159   8.722   2.346 -1.0538  1.8630 -0.0850
   71bbb     C3 2137   3.069   8.953   2.377  0.9916  0.0659 -0.6296
   71bbb     H5 2138   2.982   9.004   2.419  1.6205  0.7874 -0.1921
   71bbb     H6 2139   3.048   8.871   2.308 -0.3990 -0.8457  0.7981
   71bbb     C4 2140   3.155   9.056   2.306 -0.4783 -0.0744 -0.0978
   71bbb     H7 2141   3.098   9.099   2.223 -0.8759  2.5590  1.3989
   71bbb     H8 2142   3.241   9.003   2.264  0.1026 -0.2440  1.2462
   71bbb     C5 2143   2.961   8.892   2.672  0.2585 -0.2206 -0.4042
   71bbb     H9 2144   2.903   8.969   2.621 -1.6534 -0.6590  1.0009
   71bbb    H10 2145   3.034   8.930   2.746  1.2592 -0.9567 -0.9821
   71bbb     C6 2146   3.315   8.683   2.497 -0.8496 -0.2319  0.4463
   71bbb    H11 2147   3.251   8.610   2.549  0.8617 -1.6061  0.7105
   71bbb    H12 2148   3.363   8.742   2.576 -0.3388  0.0840 -0.0941
   71bbb     C7 2149   3.201   9.171   2.392 -0.6774 -0.8651 -0.0979
   71bbb    H13 2150   3.123   9.235   2.436  1.2663  2.8420 -1.6183
   71bbb    H14 2151   3.239   9.250   2.327 -2.8456  0.7967  0.5358
   71bbb     C8 2152   3.415   8.609   2.409 -0.0461  0.5579  0.8022
   71bbb    H15 2153   3.352   8.538   2.355 -0.2718  2.0508 -1.0079
   71bbb    H16 2154   3.465   8.674   2.336 -0.8568  0.4942  0.1879
   71bbb     C9 2155   2.856   8.807   2.761 -0.1521 -0.0707 -0.5370
   71bbb    H17 2156   2.784   8.871   2.813  0.5834  0.8803 -0.6660
   71bbb    H18 2157   2.917   8.746   2.829 -0.7213  0.2209  0.2351
   71bbb     O1 2158   3.298   9.124   2.486 -0.1270  0.2677 -0.0248
   71bbb    H19 2159   3.192   8.945   2.547 -3.0881  2.1629  0.3295
   72bbb     N1 2160   4.751  10.223   3.551  0.9387  0.1670  0.0766
   72bbb     C1 2161   4.738  10.357   3.490 -0.1911 -0.7672  0.0938
   72bbb     H1 2162   4.691  10.415   3.569 -0.0957 -3.3122  2.1127
   72bbb     H2 2163   4.673  10.344   3.403 -1.5775  1.7114  0.6482
   72bbb     C2 2164   4.719  10.241   3.694 -0.4181 -0.1880  1.0715
   72bbb     H3 2165   4.612  10.260   3.699 -0.7469 -1.4013 -0.3389
   72bbb     H4 2166   4.778  10.323   3.734 -0.2973 -0.3581  1.2453
   72bbb     C3 2167   4.646  10.123   3.488 -0.3036 -0.5742  0.0568
   72bbb     H5 2168   4.553  10.179   3.501  0.8690  1.6898 -0.7802
   72bbb     H6 2169   4.637  10.028   3.541 -1.5642  0.3817  1.6685
   72bbb     C4 2170   4.657  10.096   3.333  0.2837 -0.6888  0.6010
   72bbb     H7 2171   4.757  10.068   3.298 -0.8364 -0.4812 -3.1410
   72bbb     H8 2172   4.644  10.191   3.280  3.1870 -1.0573 -0.9917
   72bbb     C5 2173   4.872  10.410   3.422  0.2883 -0.1473 -0.3956
   72bbb     H9 2174   4.857  10.516   3.397 -3.8102 -0.7689 -1.1887
   72bbb    H10 2175   4.889  10.346   3.334 -0.2745 -1.3913  0.3736
   72bbb     C6 2176   4.741  10.115   3.790 -0.3663 -0.6347  0.4539
   72bbb    H11 2177   4.848  10.107   3.814 -0.6658  1.0017  2.7430
   72bbb    H12 2178   4.701  10.022   3.749  0.2999 -1.6547  2.0246
   72bbb     C7 2179   4.567   9.987   3.282  0.0733 -0.5027 -0.6782
   72bbb    H13 2180   4.561   9.906   3.356 -1.0854  0.3282  0.1773
   72bbb    H14 2181   4.608   9.956   3.185  0.6008 -0.0423 -0.6109
   72bbb     C8 2182   4.679  10.146   3.927  0.8878 -0.1286 -0.6059
   72bbb    H15 2183   4.577  10.186   3.923  0.3636 -1.5247 -2.3286
   72bbb    H16 2184   4.670  10.054   3.986  0.8491  1.2771  1.7030
   72bbb     C9 2185   4.995  10.405   3.519  0.1550  0.8493  0.0901
   72bbb    H17 2186   5.022  10.300   3.539  0.1073  0.5339 -1.3310
   72bbb    H18 2187   4.976  10.454   3.615 -0.6389 -1.4266  1.1661
   72bbb     O1 2188   4.436  10.050   3.264 -0.6528 -0.2647  0.6451
   72bbb    H19 2189   4.846  10.184   3.539  1.4312  1.2292  0.3741
   73bbb     N1 2190   3.800  11.050   3.037  0.0173  0.9556  0.2965
   73bbb     C1 2191   3.926  11.077   2.957 -0.5520 -0.1897 -0.0299
   73bbb     H1 2192   3.897  11.097   2.853  0.4806  0.8835 -0.1317
   73bbb     H2 2193   3.979  10.982   2.956 -0.7755 -0.3484 -1.9884
   73bbb     C2 2194   3.673  11.011   2.957  0.0890  0.7848  0.2927
   73bbb     H3 2195   3.590  11.032   3.025 -0.1367  1.6031 -0.2189
   73bbb     H4 2196   3.677  10.904   2.934 -0.0113  0.8770 -0.1639
   73bbb     C3 2197   3.819  10.942   3.145 -0.0025  0.2449 -0.5579
   73bbb     H5 2198   3.721  10.936   3.192 -0.6224  0.8287 -1.7415
   73bbb     H6 2199   3.892  10.975   3.220 -1.9010  0.7715  1.1548
   73bbb     C4 2200   3.868  10.806   3.104 -0.5338  1.1419 -0.2610
   73bbb     H7 2201   3.978  10.807   3.111 -0.4969 -0.5068 -0.2715
   73bbb     H8 2202   3.838  10.774   3.003 -1.4034  0.5880  0.1657
   73bbb     C5 2203   4.027  11.192   2.997 -0.3532 -0.3482 -0.3003
   73bbb     H9 2204   4.026  11.177   3.105 -0.8536 -2.3148 -0.5299
   73bbb    H10 2205   3.993  11.292   2.968 -0.5453 -0.5042 -0.6272
   73bbb     C6 2206   3.641  11.105   2.831 -0.3116  0.9945  0.9182
   73bbb    H11 2207   3.548  11.066   2.788  0.0594  0.1073  0.8846
   73bbb    H12 2208   3.716  11.077   2.757 -2.5058  2.4126 -2.0431
   73bbb     C7 2209   3.828  10.707   3.223 -0.3521 -0.2793 -0.8229
   73bbb    H13 2210   3.719  10.702   3.232 -0.3435  2.0170  1.5803
   73bbb    H14 2211   3.876  10.747   3.313  1.1167 -0.2129 -1.6069
   73bbb     C8 2212   3.637  11.253   2.857 -0.7534 -0.0534 -0.2704
   73bbb    H15 2213   3.732  11.283   2.901 -1.3917 -1.7269  2.4728
   73bbb    H16 2214   3.609  11.307   2.765 -2.7234  0.2309  0.4457
   73bbb     C9 2215   4.174  11.166   2.934  0.3012  0.2397 -0.6485
   73bbb    H17 2216   4.244  11.241   2.972  2.5391 -1.0457 -1.9885
   73bbb    H18 2217   4.162  11.162   2.825 -0.3971 -3.2925 -0.5623
   73bbb     O1 2218   3.887  10.579   3.206  0.5207  0.7761  0.1125
   73bbb    H19 2219   3.778  11.139   3.084  4.5122  3.2649 -1.4172
   74bbb     N1 2220   3.111   7.896   5.361 -0.3659  0.0673  0.3209
   74bbb     C1 2221   3.042   7.810   5.469 -0.7907  0.0673  0.2303
   74bbb     H1 2222   3.043   7.875   5.557  0.4094  1.1973 -0.5877
   74bbb     H2 2223   3.114   7.729   5.482 -0.1445  0.5248 -0.4429
   74bbb     C2 2224   3.222   7.973   5.432  0.2161  0.9144 -0.0758
   74bbb     H3 2225   3.279   7.892   5.477 -2.5626 -0.5190  1.1557
   74bbb     H4 2226   3.187   8.030   5.518  1.7131  1.9408 -0.1087
   74bbb     C3 2227   3.148   7.792   5.251 -0.0753 -0.3903 -0.0624
   74bbb     H5 2228   3.077   7.709   5.252 -0.2230 -0.2687 -0.3055
   74bbb     H6 2229   3.252   7.762   5.260 -0.1628 -1.5473 -2.2096
   74bbb     C4 2230   3.137   7.849   5.104  0.6890  0.1493 -0.3368
   74bbb     H7 2231   3.194   7.943   5.099 -2.2680  2.1927  1.2758
   74bbb     H8 2232   3.036   7.888   5.088  0.6099  0.5469  1.0457
   74bbb     C5 2233   2.905   7.760   5.433 -0.7264  1.2292  0.2898
   74bbb     H9 2234   2.900   7.710   5.336 -0.2502 -1.3613  1.5320
   74bbb    H10 2235   2.839   7.847   5.422 -1.9256  0.1237 -1.9318
   74bbb     C6 2236   3.298   8.064   5.340 -0.6559 -0.4176  0.3188
   74bbb    H11 2237   3.235   8.131   5.280  0.5800 -1.4584 -2.2455
   74bbb    H12 2238   3.340   7.998   5.263 -2.3419 -0.0594 -0.9660
   74bbb     C7 2239   3.180   7.756   4.991 -0.4555  0.1843 -0.2129
   74bbb    H13 2240   3.138   7.659   5.018  0.7788 -0.3674 -0.2194
   74bbb    H14 2241   3.289   7.748   5.000 -0.3490  1.0171 -0.6108
   74bbb     C8 2242   3.419   8.134   5.410  0.0778 -0.0523 -0.1789
   74bbb    H15 2243   3.467   8.064   5.479 -1.2200 -1.6288 -0.8349
   74bbb    H16 2244   3.498   8.151   5.335  0.0011 -1.3889 -0.5874
   74bbb     C9 2245   2.854   7.655   5.530  0.8473 -0.1115  0.4672
   74bbb    H17 2246   2.867   7.697   5.630 -0.1468  0.4394  0.3836
   74bbb    H18 2247   2.919   7.569   5.510 -0.3527 -0.9619  0.0819
   74bbb     O1 2248   3.133   7.787   4.860 -0.4759 -0.2079  0.0478
   74bbb    H19 2249   3.051   7.965   5.313 -0.0243 -1.2650 -2.1655
   75bbb     N1 2250   3.695   7.478   4.357  0.1500  0.4867  0.3405
   75bbb     C1 2251   3.790   7.376   4.297 -0.2064  0.1369  0.0881
   75bbb     H1 2252   3.888   7.418   4.320 -0.5089 -0.8549  3.9218
   75bbb     H2 2253   3.770   7.366   4.191  1.3956  0.6785 -0.2872
   75bbb     C2 2254   3.768   7.546   4.470  0.2326 -0.0571 -0.7092
   75bbb     H3 2255   3.702   7.631   4.486  0.5330 -0.0629  0.6950
   75bbb     H4 2256   3.855   7.597   4.429 -0.6846  1.5259 -0.7536
   75bbb     C3 2257   3.653   7.577   4.250  0.2237  0.0407  0.1895
   75bbb     H5 2258   3.739   7.627   4.206 -0.5520  1.4222  0.1729
   75bbb     H6 2259   3.606   7.663   4.298  0.7544  0.2792  0.2848
   75bbb     C4 2260   3.553   7.521   4.144  1.1772 -0.3145  0.1664
   75bbb     H7 2261   3.476   7.468   4.202  1.4531 -1.0903 -0.1703
   75bbb     H8 2262   3.606   7.452   4.078  0.6255 -1.9885  1.3904
   75bbb     C5 2263   3.796   7.235   4.354  0.3537  0.1892 -0.2986
   75bbb     H9 2264   3.695   7.195   4.368 -0.0950  1.9852  2.4892
   75bbb    H10 2265   3.842   7.240   4.454  0.9395  0.4006 -0.5728
   75bbb     C6 2266   3.783   7.464   4.601 -0.3523  0.2880  0.0478
   75bbb    H11 2267   3.870   7.398   4.615  1.5617  2.2051 -2.0097
   75bbb    H12 2268   3.695   7.400   4.615  0.6212 -0.7746  1.5693
   75bbb     C7 2269   3.485   7.647   4.064  0.8002 -0.3636  0.8477
   75bbb    H13 2270   3.418   7.614   3.984  0.0086  3.1552 -0.0878
   75bbb    H14 2271   3.546   7.722   4.013 -1.6807  0.4590 -1.0787
   75bbb     C8 2272   3.776   7.570   4.723 -0.3014 -0.0018  0.2104
   75bbb    H15 2273   3.671   7.599   4.731  0.4478  2.6182  1.5323
   75bbb    H16 2274   3.802   7.517   4.816 -0.8206 -0.0641  0.3198
   75bbb     C9 2275   3.879   7.146   4.263 -0.2555  0.3076  0.0778
   75bbb    H17 2276   3.978   7.191   4.249 -0.2333 -0.0543 -1.1068
   75bbb    H18 2277   3.825   7.151   4.167 -1.6701 -0.6876  0.8004
   75bbb     O1 2278   3.394   7.718   4.158 -0.3765 -0.0416  0.0524
   75bbb    H19 2279   3.612   7.427   4.390 -0.3437  1.0707  0.0242
   76bbb     N1 2280   1.586   7.847   3.304 -0.2082 -0.4094  0.8400
   76bbb     C1 2281   1.448   7.778   3.304 -0.0629 -0.8983  0.5177
   76bbb     H1 2282   1.431   7.761   3.411 -0.1025  2.6959  1.2093
   76bbb     H2 2283   1.453   7.686   3.247 -0.2391  0.7553 -2.3734
   76bbb     C2 2284   1.627   7.902   3.169 -0.6036  0.2609  0.1270
   76bbb     H3 2285   1.726   7.942   3.191 -1.1446  1.8888 -0.2594
   76bbb     H4 2286   1.556   7.979   3.141 -0.6282  0.1284 -0.1716
   76bbb     C3 2287   1.588   7.963   3.413  0.4037 -0.8848  0.0910
   76bbb     H5 2288   1.498   7.941   3.470 -0.3956  1.1684 -0.2974
   76bbb     H6 2289   1.575   8.055   3.355  1.7988 -1.3314 -0.9878
   76bbb     C4 2290   1.707   7.961   3.511 -0.3084 -0.8974 -0.3099
   76bbb     H7 2291   1.731   7.859   3.543 -0.8490 -1.0174 -0.2719
   76bbb     H8 2292   1.699   8.029   3.597  0.4500  2.0472 -2.4105
   76bbb     C5 2293   1.337   7.880   3.266  0.7848  0.1251  0.0004
   76bbb     H9 2294   1.351   7.928   3.169 -3.9259  2.3166  0.1675
   76bbb    H10 2295   1.317   7.958   3.341 -2.2691 -1.1123  0.6055
   76bbb     C6 2296   1.618   7.819   3.043 -0.3204  0.1427 -0.1299
   76bbb    H11 2297   1.521   7.773   3.019  0.0657 -0.9434  0.3258
   76bbb    H12 2298   1.679   7.729   3.062 -0.3871  0.4628  1.8438
   76bbb     C7 2299   1.837   7.999   3.437 -0.6712  0.3503  0.5372
   76bbb    H13 2300   1.825   8.101   3.398  0.2379  0.9854  1.8524
   76bbb    H14 2301   1.864   7.925   3.361 -2.6110 -0.0717  0.2083
   76bbb     C8 2302   1.688   7.893   2.919  0.9099  0.1133 -0.4582
   76bbb    H15 2303   1.631   7.976   2.877  0.9959  1.6024  2.1852
   76bbb    H16 2304   1.779   7.947   2.948 -0.5391  2.0931  0.6401
   76bbb     C9 2305   1.206   7.795   3.259 -0.2285 -0.8575  0.0752
   76bbb    H17 2306   1.188   7.734   3.349  0.8088 -2.7204 -0.9069
   76bbb    H18 2307   1.223   7.726   3.175  0.6079 -0.6981  0.1065
   76bbb     O1 2308   1.952   8.005   3.526  0.7412 -0.1978 -0.1632
   76bbb    H19 2309   1.657   7.777   3.330  0.3253  0.5977  2.2263
   77bbb     N1 2310   2.024   7.573   3.822 -0.0985  0.0353  0.3642
   77bbb     C1 2311   2.002   7.479   3.701 -0.1666  0.4255  0.8015
   77bbb     H1 2312   2.091   7.416   3.694  0.5974  1.6293 -2.2529
   77bbb     H2 2313   2.005   7.547   3.616  2.5646 -1.8462 -1.1070
   77bbb     C2 2314   2.050   7.489   3.945 -0.6669  0.2304  0.1599
   77bbb     H3 2315   2.120   7.413   3.910 -1.8229 -0.0367 -1.7465
   77bbb     H4 2316   1.956   7.439   3.965 -0.8844  0.7902  0.5474
   77bbb     C3 2317   2.152   7.658   3.798  0.2473 -0.0913 -0.4671
   77bbb     H5 2318   2.173   7.722   3.884  0.8094  0.3795 -0.9436
   77bbb     H6 2319   2.131   7.727   3.715 -0.4259  0.1746 -0.0831
   77bbb     C4 2320   2.285   7.582   3.768  0.1565  0.1825 -0.3463
   77bbb     H7 2321   2.272   7.508   3.688  0.3409  0.6331 -0.8014
   77bbb     H8 2322   2.311   7.531   3.862 -0.9882  0.9309  0.3982
   77bbb     C5 2323   1.871   7.388   3.668 -0.0336 -0.0632 -0.7029
   77bbb     H9 2324   1.880   7.356   3.564 -1.2182  1.8652 -1.4457
   77bbb    H10 2325   1.778   7.444   3.668 -1.0894 -1.7393 -0.3225
   77bbb     C6 2326   2.074   7.572   4.069 -0.2843 -0.2502  0.2796
   77bbb    H11 2327   2.172   7.621   4.074 -1.2969  1.8374  0.7162
   77bbb    H12 2328   2.064   7.499   4.151  1.5284  0.8620  1.5548
   77bbb     C7 2329   2.397   7.673   3.718  0.5142 -0.1334 -0.0935
   77bbb    H13 2330   2.375   7.720   3.621  0.2782  1.5428  0.7418
   77bbb    H14 2331   2.495   7.624   3.717  2.5642  3.6134 -0.3859
   77bbb     C8 2332   1.966   7.681   4.100 -0.4087  0.4276 -0.1733
   77bbb    H15 2333   1.986   7.762   4.029  2.3859  1.1703  1.2972
   77bbb    H16 2334   1.867   7.643   4.073 -0.4080  0.6691 -0.5205
   77bbb     C9 2335   1.860   7.269   3.765  0.3366  0.2374 -0.6456
   77bbb    H17 2336   1.774   7.206   3.738 -0.5512  0.0592  2.2449
   77bbb    H18 2337   1.842   7.306   3.867 -1.0976 -0.4576 -0.6110
   77bbb     O1 2338   2.405   7.787   3.812  0.1906 -0.5729  0.5871
   77bbb    H19 2339   1.946   7.640   3.826 -0.4341 -0.3987  1.3905
   78bbb     N1 2340   3.709   8.703   8.001  0.0914  0.1672  0.1835
   78bbb     C1 2341   3.625   8.641   7.887  0.1123 -0.7086 -0.8110
   78bbb     H1 2342   3.524   8.620   7.922 -0.4593  1.2216 -1.1868
   78bbb     H2 2343   3.667   8.541   7.875 -0.6167 -1.5614  2.5999
   78bbb     C2 2344   3.858   8.684   7.971 -0.6499  0.8140  0.1578
   78bbb     H3 2345   3.886   8.747   7.887  1.2789 -0.1243  0.0397
   78bbb     H4 2346   3.857   8.580   7.939 -0.5296  1.0171 -0.5235
   78bbb     C3 2347   3.666   8.847   8.001  0.9002 -0.2691 -0.0364
   78bbb     H5 2348   3.562   8.857   7.972  1.2932 -0.5372 -1.6220
   78bbb     H6 2349   3.715   8.900   7.919  0.4566 -1.2516 -0.9608
   78bbb     C4 2350   3.693   8.926   8.128 -0.2239  0.2591  0.4176
   78bbb     H7 2351   3.799   8.944   8.148 -0.6567  1.3493  1.9466
   78bbb     H8 2352   3.653   8.866   8.211  0.8408 -1.5262 -0.3209
   78bbb     C5 2353   3.614   8.719   7.751  0.0001  0.2178  0.5341
   78bbb     H9 2354   3.709   8.741   7.701  0.1548 -2.0550 -0.2820
   78bbb    H10 2355   3.570   8.815   7.779 -3.1071 -2.0144  4.3653
   78bbb     C6 2356   3.968   8.707   8.080  0.4299  0.1775 -0.5397
   78bbb    H11 2357   3.986   8.813   8.103  0.5836  0.3755 -1.5255
   78bbb    H12 2358   4.063   8.677   8.034  0.4131 -0.7795  0.0104
   78bbb     C7 2359   3.624   9.067   8.115  0.2944  0.1688 -0.1083
   78bbb    H13 2360   3.652   9.107   8.017  0.2458 -0.7451 -0.5028
   78bbb    H14 2361   3.668   9.135   8.189 -1.0723  2.2335 -1.1015
   78bbb     C8 2362   3.948   8.625   8.208  0.4890 -0.0985 -0.1977
   78bbb    H15 2363   3.952   8.517   8.188  1.0419 -0.5272  1.9231
   78bbb    H16 2364   4.034   8.643   8.273  0.9559 -2.7532  0.0485
   78bbb     C9 2365   3.525   8.650   7.643  0.0106  0.5352 -0.1880
   78bbb    H17 2366   3.537   8.687   7.541  3.4648 -2.4590 -1.0751
   78bbb    H18 2367   3.423   8.665   7.681  0.0740 -2.1275  1.2905
   78bbb     O1 2368   3.480   9.068   8.131 -0.1446 -0.2902 -0.5014
   78bbb    H19 2369   3.679   8.661   8.090  0.5629  3.3553  1.9864
   79bbb     N1 2370   2.858   8.615   8.449 -0.0597  0.5467  0.2478
   79bbb     C1 2371   2.905   8.526   8.333 -0.1135 -0.3780  0.1119
   79bbb     H1 2372   2.817   8.513   8.271 -2.2607 -0.8340  3.0264
   79bbb     H2 2373   2.927   8.428   8.377 -0.2631 -0.7943 -0.7223
   79bbb     C2 2374   2.721   8.566   8.492  0.2001  0.6324 -0.2672
   79bbb     H3 2375   2.704   8.612   8.589 -0.0096 -0.7508  0.3794
   79bbb     H4 2376   2.730   8.460   8.516  0.0175  0.7463  0.3019
   79bbb     C3 2377   2.966   8.610   8.561  0.5104  0.3416 -0.0390
   79bbb     H5 2378   3.066   8.614   8.517  0.7250  0.6472  0.4632
   79bbb     H6 2379   2.963   8.523   8.626  2.4441 -0.4065 -0.8694
   79bbb     C4 2380   2.955   8.739   8.644  0.2883 -0.7970  0.1108
   79bbb     H7 2381   3.021   8.722   8.730  0.3253  0.8418  0.4314
   79bbb     H8 2382   2.851   8.758   8.676 -1.1166 -0.6346 -4.0030
   79bbb     C5 2383   3.029   8.573   8.260 -0.2054 -0.0838 -0.8327
   79bbb     H9 2384   3.121   8.570   8.320 -0.0433  2.5559 -0.8066
   79bbb    H10 2385   3.012   8.681   8.248  1.4323  0.5035  1.5090
   79bbb     C6 2386   2.602   8.592   8.388 -0.2516 -0.3734 -0.9573
   79bbb    H11 2387   2.632   8.543   8.295  1.4019 -2.2456  0.4579
   79bbb    H12 2388   2.598   8.699   8.362 -3.3090  0.0637  0.8747
   79bbb     C7 2389   3.017   8.862   8.569  0.4334  0.4089  0.8496
   79bbb    H13 2390   3.122   8.834   8.554  0.1400 -0.6633  0.7324
   79bbb    H14 2391   3.024   8.951   8.633  1.1364  0.6019  0.5130
   79bbb     C8 2392   2.454   8.549   8.425  0.1842 -0.1300 -0.0475
   79bbb    H15 2393   2.383   8.557   8.342 -0.6520  2.3181  0.8357
   79bbb    H16 2394   2.455   8.441   8.444 -1.8693 -0.1723  0.0281
   79bbb     C9 2395   3.060   8.491   8.131  0.4372  0.0073 -0.4125
   79bbb    H17 2396   3.101   8.393   8.160  0.4187 -0.0593 -0.6097
   79bbb    H18 2397   3.147   8.540   8.085  2.4262 -0.9517  2.0420
   79bbb     O1 2398   2.967   8.887   8.433 -0.5705 -0.0934  0.3642
   79bbb    H19 2399   2.851   8.715   8.424  3.9338  1.1494  0.8179
   80bbb     N1 2400   3.416   9.634   8.873  0.2525  0.0228 -0.0981
   80bbb     C1 2401   3.555   9.591   8.916  0.2187 -0.1341  0.0086
   80bbb     H1 2402   3.624   9.658   8.864  0.4044  0.7676  1.3427
   80bbb     H2 2403   3.565   9.494   8.868  0.6800  0.7736 -1.7873
   80bbb     C2 2404   3.361   9.764   8.937  0.6819  0.7509  0.1638
   80bbb     H3 2405   3.346   9.736   9.041  3.4185 -0.6860  0.2624
   80bbb     H4 2406   3.263   9.769   8.889  1.8826  0.5721 -2.5101
   80bbb     C3 2407   3.428   9.656   8.722  0.6624  0.5536  0.6789
   80bbb     H5 2408   3.502   9.596   8.669 -0.2598  2.4609 -3.0989
   80bbb     H6 2409   3.472   9.754   8.707  0.2927  0.3334 -2.3791
   80bbb     C4 2410   3.301   9.663   8.632  0.3299  0.4236  0.1934
   80bbb     H7 2411   3.264   9.765   8.648  1.1374  0.5833  1.1700
   80bbb     H8 2412   3.231   9.600   8.689  1.6927 -0.1398  1.3300
   80bbb     C5 2413   3.588   9.583   9.068  0.3226  0.1987  0.6166
   80bbb     H9 2414   3.522   9.513   9.121  0.5433 -0.0168  0.6114
   80bbb    H10 2415   3.578   9.687   9.100 -0.6278 -0.1224  1.4203
   80bbb     C6 2416   3.446   9.890   8.924  0.4500  0.1863  0.3102
   80bbb    H11 2417   3.489   9.907   8.825 -2.1883 -0.3553 -1.0418
   80bbb    H12 2418   3.531   9.883   8.992  1.3387  1.8563 -0.5619
   80bbb     C7 2419   3.312   9.628   8.479  0.1548  0.0913  0.1773
   80bbb    H13 2420   3.215   9.625   8.429  0.4371  1.7360 -0.5471
   80bbb    H14 2421   3.355   9.528   8.462  0.0599  0.1427 -0.3877
   80bbb     C8 2422   3.357  10.008   8.969  0.3026  0.3182  0.0239
   80bbb    H15 2423   3.322  10.007   9.073  0.9462  0.8023  0.2545
   80bbb    H16 2424   3.414  10.101   8.957  0.6590  0.0203 -0.6341
   80bbb     C9 2425   3.732   9.526   9.082  0.0829 -0.0066  0.8525
   80bbb    H17 2426   3.804   9.557   9.005  0.5601 -2.1288  0.3785
   80bbb    H18 2427   3.723   9.417   9.069 -3.3347  0.1143  1.3603
   80bbb     O1 2428   3.403   9.729   8.424  0.1369 -0.1954  0.0174
   80bbb    H19 2429   3.355   9.554   8.893  1.3003 -0.3109  2.0459
   81bbb     N1 2430   3.957  10.405   8.452  0.4587  0.1676 -0.1280
   81bbb     C1 2431   3.969  10.532   8.534 -0.9718 -0.3783 -0.2794
   81bbb     H1 2432   3.880  10.588   8.504 -2.0412 -0.2485  2.7339
   81bbb     H2 2433   4.053  10.578   8.482  0.6045 -1.3768  1.2377
   81bbb     C2 2434   4.088  10.334   8.458 -0.0015 -0.2954 -0.2625
   81bbb     H3 2435   4.130  10.350   8.558 -0.0523 -0.3497 -0.2317
   81bbb     H4 2436   4.152  10.388   8.388  0.5846  0.6945  0.9985
   81bbb     C3 2437   3.841  10.328   8.516 -0.2919 -0.1364 -0.1266
   81bbb     H5 2438   3.853  10.317   8.624 -0.3469 -1.4668 -0.2384
   81bbb     H6 2439   3.856  10.226   8.479 -0.3029  0.3784 -1.6096
   81bbb     C4 2440   3.698  10.380   8.484  0.2707 -0.1571 -0.2720
   81bbb     H7 2441   3.694  10.486   8.512  0.6087 -0.5308  1.3119
   81bbb     H8 2442   3.613  10.338   8.541  0.1259 -1.7302 -1.5956
   81bbb     C5 2443   3.999  10.531   8.691  0.0126  0.3123 -0.2202
   81bbb     H9 2444   4.080  10.458   8.703  0.3631  0.6151 -0.7096
   81bbb    H10 2445   3.914  10.492   8.748  1.9815 -2.0661  1.2976
   81bbb     C6 2446   4.093  10.181   8.424 -0.5997 -0.2960 -0.1308
   81bbb    H11 2447   4.028  10.129   8.495  1.9397  0.4673  2.9416
   81bbb    H12 2448   4.193  10.138   8.431  0.1964  1.3055 -1.1077
   81bbb     C7 2449   3.667  10.393   8.334  0.4445  0.1419  0.4755
   81bbb    H13 2450   3.717  10.481   8.291 -1.2379  0.6186 -0.6119
   81bbb    H14 2451   3.561  10.414   8.319  0.2725 -0.5956  0.6234
   81bbb     C8 2452   4.046  10.159   8.279 -0.0594 -0.0506  0.0533
   81bbb    H15 2453   4.041  10.050   8.263 -0.7456 -0.0237  0.0831
   81bbb    H16 2454   3.947  10.202   8.263 -1.1295 -1.2161  2.9517
   81bbb     C9 2455   4.047  10.666   8.735  0.3119 -0.1256 -0.2905
   81bbb    H17 2456   4.125  10.708   8.670 -0.6570  1.0433 -0.7465
   81bbb    H18 2457   4.090  10.664   8.836  0.7575 -0.9380 -0.4929
   81bbb     O1 2458   3.691  10.263   8.272 -0.1009 -0.5624  0.4413
   81bbb    H19 2459   3.932  10.433   8.356 -0.9731  0.3171  0.2765
   82bbb     N1 2460   1.679  10.834   6.735 -0.2480 -0.4536  0.0779
   82bbb     C1 2461   1.801  10.839   6.647  0.0409  0.9106 -0.2462
   82bbb     H1 2462   1.819  10.734   6.623  0.5832  1.0946 -0.6729
   82bbb     H2 2463   1.883  10.879   6.707 -0.6385  1.1229  0.5558
   82bbb     C2 2464   1.655  10.968   6.803  1.2160 -0.2260  0.1397
   82bbb     H3 2465   1.555  10.967   6.846  1.5166  0.2505  0.8655
   82bbb     H4 2466   1.655  11.051   6.732  1.3350 -0.2991  0.0532
   82bbb     C3 2467   1.556  10.796   6.666 -0.1950 -0.3057  0.0773
   82bbb     H5 2468   1.587  10.719   6.596 -1.5942  0.0880 -1.0198
   82bbb     H6 2469   1.526  10.884   6.610  0.3595  0.7633  1.4020
   82bbb     C4 2470   1.438  10.747   6.762 -0.0368  0.3944  0.3934
   82bbb     H7 2471   1.347  10.720   6.706 -0.4766  0.2305  1.1677
   82bbb     H8 2472   1.399  10.828   6.824  0.5674  0.2795  0.9277
   82bbb     C5 2473   1.787  10.909   6.506 -0.3042 -0.4815  0.3025
   82bbb     H9 2474   1.730  11.001   6.523 -1.5329 -0.9224 -1.2662
   82bbb    H10 2475   1.720  10.859   6.436 -0.4473  1.5475 -1.1038
   82bbb     C6 2476   1.758  10.995   6.914 -0.1151 -0.3139 -0.1604
   82bbb    H11 2477   1.859  11.001   6.874  0.5831  0.4795  1.6309
   82bbb    H12 2478   1.758  10.907   6.979 -0.5618 -0.1628  0.0525
   82bbb     C7 2479   1.468  10.612   6.840 -0.2261  0.6598 -0.8006
   82bbb    H13 2480   1.493  10.529   6.772 -0.8692  0.7071 -1.1106
   82bbb    H14 2481   1.383  10.575   6.898  1.2340 -1.8368 -0.1018
   82bbb     C8 2482   1.733  11.126   6.991  0.4226 -0.1653 -1.0637
   82bbb    H15 2483   1.642  11.115   7.051  0.5924  1.3069 -0.4871
   82bbb    H16 2484   1.818  11.143   7.058  2.1128 -1.2795 -2.8199
   82bbb     C9 2485   1.918  10.942   6.439 -0.2483  0.7794  0.3206
   82bbb    H17 2486   2.005  10.914   6.500  1.4880 -0.9239 -2.6592
   82bbb    H18 2487   1.930  11.050   6.424  4.7843  0.2802 -1.4014
   82bbb     O1 2488   1.587  10.642   6.924  0.4716 -0.6156 -0.0924
   82bbb    H19 2489   1.683  10.769   6.815 -2.7999  0.0503  0.7141
   83bbb     N1 2490   2.208  10.607   7.956  0.2365 -0.0554  0.4365
   83bbb     C1 2491   2.286  10.512   8.048 -0.0350  0.0523 -0.0394
   83bbb     H1 2492   2.385  10.547   8.078  0.8873 -1.0754 -1.5906
   83bbb     H2 2493   2.297  10.421   7.990  2.9923  0.3158 -0.0422
   83bbb     C2 2494   2.283  10.719   7.889  0.1754 -0.2227  0.2690
   83bbb     H3 2495   2.332  10.768   7.973 -0.1075  1.2640 -0.3967
   83bbb     H4 2496   2.218  10.786   7.833 -0.3612  0.6391  1.8498
   83bbb     C3 2497   2.133  10.521   7.854 -0.4223 -0.3362 -0.4971
   83bbb     H5 2498   2.094  10.440   7.915  0.3098 -0.3716 -0.0643
   83bbb     H6 2499   2.207  10.487   7.782 -0.4714  1.3423 -1.3886
   83bbb     C4 2500   2.011  10.594   7.791  1.1323  0.3567  0.3606
   83bbb     H7 2501   2.049  10.688   7.749 -0.2978  1.0732  0.6275
   83bbb     H8 2502   1.946  10.618   7.876  2.5512 -0.8685  1.8952
   83bbb     C5 2503   2.208  10.476   8.169 -0.0188  0.2389 -0.0755
   83bbb     H9 2504   2.117  10.423   8.140 -0.1653  0.4213  0.0429
   83bbb    H10 2505   2.171  10.568   8.215  0.1167  0.4989 -0.4765
   83bbb     C6 2506   2.400  10.683   7.798 -0.0430  0.5762  0.3328
   83bbb    H11 2507   2.371  10.596   7.738  0.4435 -1.2388  2.6027
   83bbb    H12 2508   2.489  10.644   7.849  0.7253 -0.6826 -1.8295
   83bbb     C7 2509   1.920  10.514   7.689 -0.3533 -0.3853  0.6723
   83bbb    H13 2510   1.822  10.562   7.688  0.1790  0.8087  1.8876
   83bbb    H14 2511   1.914  10.409   7.722 -1.4404  0.0630  1.9977
   83bbb     C8 2512   2.439  10.801   7.707 -0.2216  0.7612  0.3545
   83bbb    H15 2513   2.495  10.878   7.761  0.9446 -0.7812  1.4344
   83bbb    H16 2514   2.503  10.763   7.627  1.5971  2.0545  1.1434
   83bbb     C9 2515   2.285  10.390   8.270  0.2821 -0.3614  0.3694
   83bbb    H17 2516   2.335  10.465   8.334 -0.6269  0.1217  0.5288
   83bbb    H18 2517   2.359  10.334   8.212  0.3975  0.6806 -0.5156
   83bbb     O1 2518   1.971  10.511   7.557  0.3476 -0.0765  0.0514
   83bbb    H19 2519   2.127  10.650   8.003 -0.5370  0.0418 -0.9454
   84bbb     N1 2520   1.466   8.711   6.901 -0.1606 -0.0412 -0.2383
   84bbb     C1 2521   1.437   8.676   7.047  0.2627 -0.4185 -0.2032
   84bbb     H1 2522   1.487   8.753   7.106 -1.5342  0.8146 -0.2300
   84bbb     H2 2523   1.468   8.574   7.073  2.3733 -0.6995 -3.2774
   84bbb     C2 2524   1.407   8.603   6.801 -0.2829  0.0337  0.3308
   84bbb     H3 2525   1.393   8.651   6.704 -1.8497 -1.8266 -0.4428
   84bbb     H4 2526   1.312   8.571   6.845  0.3239 -2.0850  0.1729
   84bbb     C3 2527   1.411   8.852   6.868  0.1438  1.0676  0.4180
   84bbb     H5 2528   1.304   8.861   6.891 -0.2262 -0.3706 -0.6032
   84bbb     H6 2529   1.410   8.852   6.759  1.3099  1.6646  0.3893
   84bbb     C4 2530   1.498   8.970   6.919  0.4672  0.6756 -0.2526
   84bbb     H7 2531   1.474   9.052   6.850 -2.3137  1.1025  1.0865
   84bbb     H8 2532   1.606   8.950   6.919  0.3677 -0.0956  1.7017
   84bbb     C5 2533   1.287   8.678   7.086 -0.3387 -0.2074 -0.5034
   84bbb     H9 2534   1.242   8.599   7.024  2.7113 -1.8247 -0.8400
   84bbb    H10 2535   1.243   8.774   7.057  2.7054  0.8172 -2.1939
   84bbb     C6 2536   1.498   8.478   6.788  0.8850  0.4677 -0.3132
   84bbb    H11 2537   1.424   8.397   6.782  0.9497 -0.4211  5.3018
   84bbb    H12 2538   1.552   8.460   6.883 -0.3710  1.2992  0.5892
   84bbb     C7 2539   1.440   9.018   7.060 -0.2721 -0.7257  0.0036
   84bbb    H13 2540   1.514   9.088   7.098 -1.2499  1.5819 -2.0687
   84bbb    H14 2541   1.436   8.937   7.134  1.3590 -1.1661 -0.3635
   84bbb     C8 2542   1.595   8.478   6.670 -0.7611  0.1385 -0.1225
   84bbb    H15 2543   1.558   8.501   6.569 -0.0212 -0.5277 -0.5591
   84bbb    H16 2544   1.674   8.549   6.697 -2.3698  1.9095  0.1336
   84bbb     C9 2545   1.271   8.641   7.237  0.2900  0.2062  0.4745
   84bbb    H17 2546   1.285   8.533   7.243 -2.9620 -0.4233 -1.0059
   84bbb    H18 2547   1.167   8.656   7.269 -0.1756  1.0063 -1.2757
   84bbb     O1 2548   1.316   9.082   7.045 -0.0645  0.1904 -0.0827
   84bbb    H19 2549   1.568   8.703   6.886 -0.0134 -0.1178  0.7201
   85bbb     N1 2550   0.512   9.443   6.885 -0.1666 -0.4228  0.1500
   85bbb     C1 2551   0.494   9.429   7.036  0.7255 -0.8021  0.2817
   85bbb     H1 2552   0.424   9.509   7.062 -1.3880 -2.5500  0.2699
   85bbb     H2 2553   0.589   9.446   7.087  0.2937  0.3448  0.7454
   85bbb     C2 2554   0.505   9.594   6.845  0.4996  0.8035 -0.5636
   85bbb     H3 2555   0.414   9.642   6.881 -1.5555 -2.0759 -1.5810
   85bbb     H4 2556   0.506   9.596   6.736  1.6550 -1.8077 -0.6775
   85bbb     C3 2557   0.645   9.385   6.834  0.2623 -0.3304  0.5161
   85bbb     H5 2558   0.719   9.431   6.899 -0.8481  0.8223  1.0271
   85bbb     H6 2559   0.658   9.407   6.728  0.0440 -1.2721  0.2865
   85bbb     C4 2560   0.665   9.229   6.836  0.1639  0.0576  0.3778
   85bbb     H7 2561   0.581   9.181   6.785 -0.0872  1.6494 -0.8137
   85bbb     H8 2562   0.639   9.198   6.937 -2.7305  2.2394  0.4119
   85bbb     C5 2563   0.423   9.297   7.089 -0.5813 -0.3261  0.5795
   85bbb     H9 2564   0.469   9.199   7.067  0.2423  0.1446  0.1673
   85bbb    H10 2565   0.323   9.300   7.044 -0.6352 -0.7147  0.6639
   85bbb     C6 2566   0.622   9.679   6.902  0.0650  0.6641 -0.7546
   85bbb    H11 2567   0.723   9.644   6.878  0.2930 -0.0086  1.0081
   85bbb    H12 2568   0.612   9.672   7.011  1.0974  1.2238 -0.6125
   85bbb     C7 2569   0.800   9.175   6.784 -0.5752 -0.3892 -0.2634
   85bbb    H13 2570   0.800   9.177   6.674  1.6503 -1.2371 -0.3234
   85bbb    H14 2571   0.816   9.075   6.824 -1.4614 -1.2243 -1.8993
   85bbb     C8 2572   0.610   9.829   6.871  0.7062 -0.0772 -0.2811
   85bbb    H15 2573   0.686   9.875   6.936 -1.4492  1.5698  1.2459
   85bbb    H16 2574   0.626   9.854   6.765  0.7922 -2.1989 -0.7968
   85bbb     C9 2575   0.421   9.302   7.239  0.0198  0.1642  0.2711
   85bbb    H17 2576   0.346   9.233   7.279  1.5917  0.1297  3.4720
   85bbb    H18 2577   0.389   9.402   7.273  2.1363  1.6096 -1.7375
   85bbb     O1 2578   0.915   9.261   6.823  0.5201 -0.2653 -0.3242
   85bbb    H19 2579   0.423   9.407   6.849 -2.0117  0.9008  2.9889
   86bbb     N1 2580   6.229   9.942   4.791  0.0042  0.1370 -0.6224
   86bbb     C1 2581   6.274  10.010   4.918 -0.1894 -0.5372 -0.3023
   86bbb     H1 2582   6.186  10.009   4.983 -0.3848  1.2828 -0.4786
   86bbb     H2 2583   6.286  10.117   4.898 -0.8763  0.0299  1.9609
   86bbb     C2 2584   6.315   9.966   4.674  0.0505  0.3156  0.2209
   86bbb     H3 2585   6.404   9.904   4.677 -0.8353 -0.9633  0.6893
   86bbb     H4 2586   6.356  10.067   4.676  0.1289  0.3025 -0.3423
   86bbb     C3 2587   6.225   9.795   4.825  0.6887 -0.0601  0.0892
   86bbb     H5 2588   6.232   9.775   4.932 -0.6716 -0.9390  0.0348
   86bbb     H6 2589   6.326   9.763   4.798  1.0087  0.2008  0.9714
   86bbb     C4 2590   6.111   9.703   4.758 -0.0643  0.5497  0.0068
   86bbb     H7 2591   6.132   9.678   4.654  0.4968  1.0856 -0.0104
   86bbb     H8 2592   6.013   9.751   4.746 -1.1384 -1.9244 -2.0378
   86bbb     C5 2593   6.399   9.950   4.994  0.3242 -0.2235 -0.5702
   86bbb     H9 2594   6.479   9.928   4.922 -0.5186 -1.0915 -1.2641
   86bbb    H10 2595   6.378   9.857   5.048  1.1763  0.0995  0.3383
   86bbb     C6 2596   6.249   9.949   4.534 -0.7274  0.4549  0.0619
   86bbb    H11 2597   6.168  10.019   4.509 -1.4152 -1.0855 -2.3661
   86bbb    H12 2598   6.224   9.843   4.518 -2.1151  0.6165  0.9767
   86bbb     C7 2599   6.086   9.571   4.837 -0.1445 -0.5885  0.2911
   86bbb    H13 2600   6.177   9.512   4.855 -0.3857 -0.8134  0.8085
   86bbb    H14 2601   6.024   9.507   4.773 -1.5706  0.4189  0.6031
   86bbb     C8 2602   6.360   9.985   4.430 -0.5625  0.2235 -0.1579
   86bbb    H15 2603   6.385  10.092   4.435 -0.9037  0.3313 -0.6519
   86bbb    H16 2604   6.452   9.929   4.450 -0.3048  0.9902  0.8977
   86bbb     C9 2605   6.432  10.041   5.117  0.4381  0.1042  1.2761
   86bbb    H17 2606   6.525  10.010   5.166  0.5031 -0.5970  0.7218
   86bbb    H18 2607   6.350  10.029   5.188 -0.5551 -0.3129  0.0890
   86bbb     O1 2608   6.026   9.605   4.967  0.0237  0.1292 -0.0387
   86bbb    H19 2609   6.138   9.979   4.760 -0.1896  0.7901  0.6497
   87bbb     N1 2610   5.001   9.314   4.625  0.0051 -0.2609 -0.3351
   87bbb     C1 2611   4.976   9.185   4.709  0.2329  0.3617 -0.7352
   87bbb     H1 2612   4.906   9.123   4.652  0.7041 -1.4395  0.5582
   87bbb     H2 2613   4.928   9.224   4.799  0.8614  1.3465 -0.8153
   87bbb     C2 2614   4.869   9.377   4.608  0.5291 -0.4160  0.3830
   87bbb     H3 2615   4.888   9.480   4.579 -1.8664 -0.6697 -2.5764
   87bbb     H4 2616   4.828   9.382   4.710 -1.7546  1.3256 -0.5235
   87bbb     C3 2617   5.077   9.410   4.712 -0.8457  0.7010  0.2883
   87bbb     H5 2618   5.170   9.357   4.731 -0.4567  0.5800 -1.7537
   87bbb     H6 2619   5.024   9.430   4.805 -1.6318 -2.0166  0.4845
   87bbb     C4 2620   5.130   9.524   4.625  0.1849  0.2035  0.0208
   87bbb     H7 2621   5.052   9.576   4.568  1.8378  1.8731 -0.8240
   87bbb     H8 2622   5.189   9.484   4.542 -1.0743  0.3123 -0.9663
   87bbb     C5 2623   5.101   9.098   4.754  0.0408 -0.5576 -0.9332
   87bbb     H9 2624   5.070   9.009   4.810 -1.5484 -0.7514 -2.0301
   87bbb    H10 2625   5.159   9.160   4.823 -1.1251 -0.3679 -0.0831
   87bbb     C6 2626   4.760   9.313   4.518 -0.1051 -0.1960  0.3885
   87bbb    H11 2627   4.697   9.242   4.573 -1.1718  0.6777  0.3246
   87bbb    H12 2628   4.816   9.250   4.448 -1.1597 -1.7095  0.8611
   87bbb     C7 2629   5.207   9.632   4.700 -0.2264 -0.0705  0.0021
   87bbb    H13 2630   5.139   9.695   4.759  2.5669  2.1667  1.0415
   87bbb    H14 2631   5.247   9.698   4.622  1.1165 -2.0773 -1.0989
   87bbb     C8 2632   4.659   9.412   4.451  0.9828 -0.0001  0.5097
   87bbb    H15 2633   4.701   9.467   4.366  1.1495  0.5769  0.9528
   87bbb    H16 2634   4.567   9.365   4.416  0.0726  2.7298 -1.0826
   87bbb     C9 2635   5.189   9.055   4.636  0.7621 -0.1520  0.8277
   87bbb    H17 2636   5.273   8.989   4.663  0.0284 -1.5364 -0.1433
   87bbb    H18 2637   5.228   9.148   4.592  0.1751 -0.7664 -1.0792
   87bbb     O1 2638   5.316   9.572   4.770  0.3266 -0.6139 -0.1556
   87bbb    H19 2639   5.052   9.305   4.536  0.6689  0.8308 -0.0889
   88bbb     N1 2640   6.355   9.452   6.415  0.0986 -0.8047  0.2376
   88bbb     C1 2641   6.417   9.321   6.363 -0.3135 -0.5340 -1.2694
   88bbb     H1 2642   6.469   9.367   6.278  0.1481 -3.5393 -2.7453
   88bbb     H2 2643   6.335   9.256   6.331  0.0082 -1.4360 -0.3109
   88bbb     C2 2644   6.254   9.515   6.304 -0.7901 -0.1083 -0.1744
   88bbb     H3 2645   6.320   9.524   6.217  1.1127  1.3138  1.3283
   88bbb     H4 2646   6.223   9.617   6.324 -2.6129 -0.8084  0.7485
   88bbb     C3 2647   6.283   9.405   6.545  0.2487 -0.7254  0.3441
   88bbb     H5 2648   6.343   9.337   6.606 -0.7737  1.6214  4.3215
   88bbb     H6 2649   6.196   9.351   6.508 -1.5035  2.1162  0.0483
   88bbb     C4 2650   6.239   9.527   6.638 -0.4280 -0.0668 -1.0341
   88bbb     H7 2651   6.205   9.612   6.577 -0.3808 -0.4395 -1.5923
   88bbb     H8 2652   6.327   9.556   6.696 -1.8146  0.1781  1.0314
   88bbb     C5 2653   6.516   9.243   6.455  0.9250  0.0974  0.0044
   88bbb     H9 2654   6.552   9.163   6.391  0.7082  0.8216 -1.0430
   88bbb    H10 2655   6.466   9.190   6.537  1.9912  0.0728  0.6533
   88bbb     C6 2656   6.134   9.429   6.256 -0.8986  1.0304  1.0190
   88bbb    H11 2657   6.054   9.423   6.330 -1.3181  4.0042  0.9629
   88bbb    H12 2658   6.172   9.327   6.246  1.3766  1.9730 -1.2055
   88bbb     C7 2659   6.132   9.472   6.724 -0.1494  0.3015  0.3365
   88bbb    H13 2660   6.094   9.548   6.794 -2.2695  0.5151 -0.9623
   88bbb    H14 2661   6.175   9.393   6.786  0.8766 -0.1407 -0.9005
   88bbb     C8 2662   6.068   9.478   6.125 -0.0106 -0.5556 -0.2532
   88bbb    H15 2663   6.118   9.451   6.031  1.7982  0.3290  0.3980
   88bbb    H16 2664   5.973   9.425   6.113 -0.7301  0.6876 -0.2877
   88bbb     C9 2665   6.639   9.319   6.514  0.2717  0.0487  0.2543
   88bbb    H17 2666   6.607   9.388   6.592 -0.6899 -0.8726  0.6911
   88bbb    H18 2667   6.689   9.377   6.435  0.8886  1.4412  1.6062
   88bbb     O1 2668   6.023   9.422   6.644 -0.4749 -0.2084 -0.0540
   88bbb    H19 2669   6.431   9.517   6.437 -1.8650  1.7725 -0.1478
   89bbb     N1 2670   6.221   8.473   6.948  0.1834 -0.0242 -0.2103
   89bbb     C1 2671   6.365   8.525   6.937 -0.2351  0.8085  0.1252
   89bbb     H1 2672   6.407   8.527   7.037 -0.9718 -0.0613  0.4668
   89bbb     H2 2673   6.366   8.629   6.903 -0.1789  1.4003  1.8603
   89bbb     C2 2674   6.136   8.557   7.047  0.0251  0.1647  0.4855
   89bbb     H3 2675   6.145   8.663   7.024 -1.8116  0.4344  0.8011
   89bbb     H4 2676   6.158   8.526   7.150  1.2826  0.2494  0.2560
   89bbb     C3 2677   6.159   8.463   6.810 -0.2501 -0.1122 -1.1752
   89bbb     H5 2678   6.056   8.427   6.816 -0.0203 -0.9403 -1.9846
   89bbb     H6 2679   6.209   8.392   6.745 -0.4106 -1.4203  0.0874
   89bbb     C4 2680   6.149   8.598   6.730 -0.2870  0.2067  0.6485
   89bbb     H7 2681   6.256   8.619   6.715 -1.0021  2.8660 -1.4101
   89bbb     H8 2682   6.107   8.679   6.790 -0.5253  0.0196  0.7335
   89bbb     C5 2683   6.460   8.439   6.861  0.4959  0.3941  0.3365
   89bbb     H9 2684   6.450   8.467   6.755 -2.9407  2.9346  1.1543
   89bbb    H10 2685   6.426   8.337   6.881 -0.2871  0.7195  0.6676
   89bbb     C6 2686   5.990   8.526   7.042 -0.2589  0.9080  0.4163
   89bbb    H11 2687   5.979   8.417   7.041  0.7284  0.7815 -1.5222
   89bbb    H12 2688   5.948   8.562   6.947  1.5618 -1.9845 -1.6482
   89bbb     C7 2689   6.094   8.598   6.575  0.0002  0.1301 -0.0822
   89bbb    H13 2690   5.991   8.563   6.563 -0.9510  2.0115  1.8357
   89bbb    H14 2691   6.164   8.541   6.514  1.1382  0.9366  0.4228
   89bbb     C8 2692   5.906   8.571   7.157 -0.8080 -0.1184 -0.3833
   89bbb    H15 2693   5.920   8.679   7.169 -1.6279 -0.0815  0.2884
   89bbb    H16 2694   5.803   8.546   7.129 -0.6700 -4.4955  2.1514
   89bbb     C9 2695   6.596   8.449   6.920 -0.4586  0.4818 -0.9887
   89bbb    H17 2696   6.633   8.552   6.913  1.4083 -0.0123  0.6249
   89bbb    H18 2697   6.664   8.391   6.856 -0.5187  0.7155 -1.2666
   89bbb     O1 2698   6.079   8.737   6.552 -0.4355 -0.0071 -0.2919
   89bbb    H19 2699   6.218   8.383   6.998 -1.4672 -0.5795 -1.2238
   90bbb     N1 2700   4.259   9.018   7.196  0.0619 -0.3688  0.4993
   90bbb     C1 2701   4.221   9.024   7.060 -0.2934  0.4355  0.2912
   90bbb     H1 2702   4.270   8.942   7.006  1.0283  1.1560  0.3442
   90bbb     H2 2703   4.263   9.114   7.015  0.2454 -0.0910 -0.2762
   90bbb     C2 2704   4.245   8.870   7.243  0.2677  0.4219 -0.1659
   90bbb     H3 2705   4.304   8.808   7.176  0.3564 -0.8651  1.0581
   90bbb     H4 2706   4.138   8.850   7.230  0.4333 -0.3869 -0.3160
   90bbb     C3 2707   4.406   9.057   7.218 -0.9006 -0.7614  0.7343
   90bbb     H5 2708   4.460   9.018   7.132 -0.5973  1.2001 -0.0166
   90bbb     H6 2709   4.442   9.023   7.315  1.8794  3.0210  1.2485
   90bbb     C4 2710   4.441   9.205   7.206 -0.0921 -0.2691 -0.2367
   90bbb     H7 2711   4.412   9.251   7.301  0.0424 -2.0117  0.6821
   90bbb     H8 2712   4.378   9.255   7.131  0.7558  2.5540  0.7805
   90bbb     C5 2713   4.070   9.022   7.032  0.8195 -0.4232  0.5369
   90bbb     H9 2714   4.021   9.104   7.087  1.5747  0.5848 -0.2612
   90bbb    H10 2715   4.005   8.939   7.063 -0.2001  0.4290  0.7658
   90bbb     C6 2716   4.279   8.849   7.395  0.5565 -0.8881 -0.0930
   90bbb    H11 2717   4.210   8.917   7.447  1.2551 -0.7007  0.6098
   90bbb    H12 2718   4.382   8.874   7.421  0.2562  0.8132 -0.4376
   90bbb     C7 2719   4.583   9.239   7.161  0.2379  0.0572  0.5410
   90bbb    H13 2720   4.600   9.346   7.143 -0.5018 -0.0935 -1.2757
   90bbb    H14 2721   4.593   9.191   7.064  2.2003  1.5203 -0.0443
   90bbb     C8 2722   4.252   8.703   7.438 -0.2040 -0.1905  0.8278
   90bbb    H15 2723   4.272   8.687   7.545 -2.4716  0.0290  1.3423
   90bbb    H16 2724   4.147   8.679   7.423 -0.2007  0.0439  0.4221
   90bbb     C9 2725   4.056   9.035   6.880  0.1762 -0.4650 -0.0156
   90bbb    H17 2726   4.107   9.127   6.850 -1.8850  1.1680  1.1646
   90bbb    H18 2727   3.953   9.065   6.855  0.4667 -0.0388 -0.7270
   90bbb     O1 2728   4.683   9.187   7.245  0.1988  0.3378  0.4936
   90bbb    H19 2729   4.194   9.067   7.260  0.2886 -0.0343  0.4787
   91bbb     N1 2730   5.751   9.063   7.917  0.6496  0.3188 -0.3717
   91bbb     C1 2731   5.788   9.129   8.051  0.3519  0.4247  0.7523
   91bbb     H1 2732   5.786   9.053   8.129 -0.0418 -0.0626  0.2714
   91bbb     H2 2733   5.712   9.206   8.064 -1.3762 -0.7679 -1.5870
   91bbb     C2 2734   5.738   8.909   7.928  0.4161  1.1038  0.0821
   91bbb     H3 2735   5.710   8.883   7.826 -2.0791  1.7644  0.5527
   91bbb     H4 2736   5.657   8.895   7.999 -1.2291  0.8307 -1.7764
   91bbb     C3 2737   5.626   9.129   7.870  0.1494 -0.0696  0.8782
   91bbb     H5 2738   5.638   9.234   7.898  0.2897  0.7831 -2.0901
   91bbb     H6 2739   5.539   9.091   7.924 -0.5754  1.7077  1.0187
   91bbb     C4 2740   5.612   9.129   7.710  0.4559  0.0321  0.2488
   91bbb     H7 2741   5.621   9.026   7.675  0.6619  0.8969 -2.4222
   91bbb     H8 2742   5.702   9.177   7.671  0.5811 -0.4095 -0.0112
   91bbb     C5 2743   5.941   9.175   8.042 -0.0302 -0.3093 -0.2020
   91bbb     H9 2744   5.960   9.243   7.959 -0.9129  1.0646  0.6867
   91bbb    H10 2745   6.005   9.087   8.027 -2.1433 -1.6929 -1.8096
   91bbb     C6 2746   5.865   8.825   7.962 -0.5798 -0.4020 -0.8044
   91bbb    H11 2747   5.912   8.870   8.050 -0.3114  0.9622 -1.6236
   91bbb    H12 2748   5.948   8.835   7.892  2.2358 -1.3131  2.1300
   91bbb     C7 2749   5.488   9.208   7.652  0.3517 -0.1118 -0.1260
   91bbb    H13 2750   5.490   9.219   7.542 -1.0193  0.3476 -0.1267
   91bbb    H14 2751   5.501   9.310   7.690 -0.3091 -0.2071  0.3722
   91bbb     C8 2752   5.848   8.673   7.966 -0.3501  1.2235 -0.2255
   91bbb    H15 2753   5.753   8.652   8.016 -1.6019  2.8640 -1.7982
   91bbb    H16 2754   5.837   8.642   7.861  0.3976  0.4012 -0.0731
   91bbb     C9 2755   5.991   9.248   8.172  0.3690 -0.0839 -0.9282
   91bbb    H17 2756   5.951   9.197   8.260 -1.2979 -0.2826 -1.7494
   91bbb    H18 2757   5.945   9.347   8.175 -1.8518 -1.0557 -1.1621
   91bbb     O1 2758   5.359   9.165   7.694  0.0054 -0.0246 -0.3152
   91bbb    H19 2759   5.824   9.089   7.850  0.3291 -0.6569 -1.1050
   92bbb     N1 2760   6.126  10.728   6.729  0.7301 -0.4635 -0.2288
   92bbb     C1 2761   6.105  10.825   6.611 -0.5965 -0.3992 -0.2477
   92bbb     H1 2762   6.151  10.773   6.528 -1.0611 -0.0639 -0.7185
   92bbb     H2 2763   6.156  10.921   6.630  0.9715 -0.7507 -2.3611
   92bbb     C2 2764   6.271  10.699   6.751 -0.0098 -0.1998 -0.0847
   92bbb     H3 2765   6.315  10.797   6.764  2.3495 -0.7244 -3.1060
   92bbb     H4 2766   6.317  10.666   6.658 -2.6878 -1.5116 -1.0710
   92bbb     C3 2767   6.073  10.791   6.867  0.2388 -0.3287 -0.0688
   92bbb     H5 2768   6.064  10.899   6.852 -1.1694  0.0186  2.5552
   92bbb     H6 2769   6.143  10.761   6.946  0.8364  1.3475  0.0751
   92bbb     C4 2770   5.932  10.739   6.907 -0.4006  0.4311 -0.5258
   92bbb     H7 2771   5.871  10.739   6.816 -0.8099 -1.7286 -0.2952
   92bbb     H8 2772   5.882  10.802   6.982 -0.0900 -0.2588  0.2819
   92bbb     C5 2773   5.964  10.865   6.575  1.0364 -0.0686  0.3841
   92bbb     H9 2774   5.914  10.908   6.663  1.0370  1.4561 -0.3224
   92bbb    H10 2775   5.900  10.782   6.542 -0.2990  0.9860  0.2288
   92bbb     C6 2776   6.317  10.599   6.858  0.5755  0.1678 -0.2644
   92bbb    H11 2777   6.247  10.517   6.881  0.1893  0.8045  0.9488
   92bbb    H12 2778   6.345  10.662   6.943  1.2561  0.9611 -1.0635
   92bbb     C7 2779   5.930  10.588   6.940  0.5730  0.3774 -0.1911
   92bbb    H13 2780   5.830  10.563   6.979  1.3742 -0.3418  1.5066
   92bbb    H14 2781   6.006  10.578   7.018  0.5636 -0.6476 -0.2998
   92bbb     C8 2782   6.446  10.519   6.822  0.0980 -0.2154  0.3820
   92bbb    H15 2783   6.525  10.587   6.787  0.5022 -0.1899  1.2985
   92bbb    H16 2784   6.480  10.467   6.912 -0.3900 -1.5141 -0.1599
   92bbb     C9 2785   5.954  10.958   6.455 -0.8400  0.1353 -0.1516
   92bbb    H17 2786   5.967  11.059   6.497  1.6874 -0.2356  0.1160
   92bbb    H18 2787   5.851  10.960   6.418 -1.0406 -1.7556  0.2126
   92bbb     O1 2788   5.968  10.509   6.829 -0.1308 -0.0640 -0.1198
   92bbb    H19 2789   6.070  10.644   6.709 -0.6659  0.9395 -2.8201
   93bbb     N1 2790   6.126  10.434   7.396  0.2889  0.5444 -0.1412
   93bbb     C1 2791   5.973  10.439   7.415 -0.2383  0.0658  0.5690
   93bbb     H1 2792   5.928  10.449   7.317 -1.1400 -0.5314  0.9102
   93bbb     H2 2793   5.949  10.535   7.461 -1.5193  0.4941 -0.9504
   93bbb     C2 2794   6.190  10.450   7.536 -0.5489 -0.8716 -0.3614
   93bbb     H3 2795   6.212  10.348   7.568  0.8295 -0.2104  0.9177
   93bbb     H4 2796   6.121  10.495   7.607 -0.6819 -1.0881 -0.3516
   93bbb     C3 2797   6.170  10.306   7.325 -0.5412  0.1090 -0.1085
   93bbb     H5 2798   6.159  10.224   7.395  1.9492 -0.9871 -0.8917
   93bbb     H6 2799   6.276  10.318   7.301 -0.8017  1.8310 -0.5287
   93bbb     C4 2800   6.110  10.262   7.194  0.0136  0.6699  0.3079
   93bbb     H7 2801   6.137  10.324   7.108 -1.7099 -0.5309 -1.1674
   93bbb     H8 2802   6.002  10.269   7.212  0.1443  1.7481  0.7073
   93bbb     C5 2803   5.904  10.325   7.497 -0.7097 -0.2727 -0.1935
   93bbb     H9 2804   5.901  10.343   7.605 -0.4446 -1.3308 -0.0058
   93bbb    H10 2805   5.960  10.233   7.479 -0.4691 -0.2133  0.2209
   93bbb     C6 2806   6.322  10.530   7.525 -0.1289  0.3447  0.6573
   93bbb    H11 2807   6.354  10.501   7.425 -3.8339 -0.1094 -0.5676
   93bbb    H12 2808   6.393  10.502   7.604 -2.0594  2.4463  3.3521
   93bbb     C7 2809   6.141  10.117   7.152  0.2117 -0.0357  0.2844
   93bbb    H13 2810   6.104  10.060   7.239  1.5499  0.1975  1.0389
   93bbb    H14 2811   6.243  10.079   7.134  0.0218 -0.6267  0.4314
   93bbb     C8 2812   6.286  10.679   7.518 -0.2420  0.4546  0.8472
   93bbb    H15 2813   6.206  10.695   7.446 -1.8580 -0.7401  2.2890
   93bbb    H16 2814   6.250  10.712   7.617 -1.4115  0.2005  0.5141
   93bbb     C9 2815   5.770  10.292   7.440 -0.0366 -0.3406  0.3776
   93bbb    H17 2816   5.784  10.253   7.339  0.7849 -2.0267  1.1109
   93bbb    H18 2817   5.714  10.387   7.442  1.8866  0.8757  0.0015
   93bbb     O1 2818   6.058  10.094   7.037  0.4024  0.2271  0.1680
   93bbb    H19 2819   6.152  10.514   7.337  1.1422  1.5727  1.5372
   94bbb     N1 2820   4.769  12.131   1.726 -0.2842  0.4011  0.1486
   94bbb     C1 2821   4.805  12.120   1.578  0.1509  0.4414 -0.7986
   94bbb     H1 2822   4.848  12.021   1.562 -0.5361  0.0493 -0.2967
   94bbb     H2 2823   4.881  12.197   1.568  0.3587  0.2992 -0.3259
   94bbb     C2 2824   4.875  12.090   1.820 -0.1180 -0.0644  0.3264
   94bbb     H3 2825   4.835  12.123   1.916 -0.0981 -2.2164  1.1256
   94bbb     H4 2826   4.961  12.154   1.800 -1.6477  2.1542  0.4375
   94bbb     C3 2827   4.733  12.276   1.752  0.0306 -0.0814 -0.3559
   94bbb     H5 2828   4.678  12.310   1.665 -0.4386  0.2314  0.0567
   94bbb     H6 2829   4.828  12.329   1.761 -0.1583  0.3902 -1.0962
   94bbb     C4 2830   4.651  12.291   1.882 -0.1834 -0.2124 -0.1039
   94bbb     H7 2831   4.691  12.233   1.966  1.3008 -0.1321 -0.7298
   94bbb     H8 2832   4.552  12.245   1.868 -0.4923  0.7888 -1.4433
   94bbb     C5 2833   4.696  12.136   1.469  0.3834 -0.2465 -0.1390
   94bbb     H9 2834   4.639  12.229   1.481 -1.4480 -1.3805  0.3043
   94bbb    H10 2835   4.620  12.058   1.478 -1.9256  2.0182  1.4368
   94bbb     C6 2836   4.904  11.943   1.829  0.3511  0.3687  0.2635
   94bbb    H11 2837   4.930  11.904   1.730 -0.9884  1.6785 -0.6364
   94bbb    H12 2838   4.812  11.899   1.870  0.4143  0.9579  1.0442
   94bbb     C7 2839   4.635  12.442   1.929  0.5003  0.2712  0.1303
   94bbb    H13 2840   4.597  12.503   1.845 -1.5457  1.7136  1.9957
   94bbb    H14 2841   4.734  12.475   1.963  0.3896 -0.5805  1.3248
   94bbb     C8 2842   5.031  11.913   1.916 -0.6686  1.0722 -0.6051
   94bbb    H15 2843   5.014  11.951   2.018 -0.2033 -2.3751  0.9082
   94bbb    H16 2844   5.042  11.804   1.926 -0.9883  1.1113  0.3274
   94bbb     C9 2845   4.765  12.111   1.336 -0.4787  0.2713 -0.5609
   94bbb    H17 2846   4.687  12.111   1.259  2.0438 -0.4790 -3.3172
   94bbb    H18 2847   4.808  12.010   1.333  0.3238  0.5500  0.6647
   94bbb     O1 2848   4.535  12.455   2.036 -0.5035 -0.7073  0.2790
   94bbb    H19 2849   4.688  12.068   1.744 -0.7936  1.1382  0.4756
   95bbb     N1 2850   3.886  12.873   2.123  0.6197  0.4079  0.1142
   95bbb     C1 2851   3.836  12.999   2.050 -0.0739  0.2711 -0.4911
   95bbb     H1 2852   3.785  13.059   2.125 -1.5583  0.6847 -1.7884
   95bbb     H2 2853   3.756  12.978   1.980 -1.1427 -0.3583  0.8691
   95bbb     C2 2854   3.947  12.773   2.031 -0.7256  0.0931  0.0248
   95bbb     H3 2855   3.961  12.684   2.093  0.6662  0.8696  0.8877
   95bbb     H4 2856   4.042  12.809   1.992 -0.9200 -0.2572 -0.7863
   95bbb     C3 2857   3.977  12.908   2.238  0.1476 -0.2982 -0.1189
   95bbb     H5 2858   3.922  12.992   2.280  1.2078  1.2046 -1.5959
   95bbb     H6 2859   4.076  12.925   2.195  0.2487  0.8745  0.5340
   95bbb     C4 2860   3.986  12.789   2.344  0.1313 -0.0179  1.2412
   95bbb     H7 2861   4.047  12.714   2.294  1.1544  0.5747  1.5732
   95bbb     H8 2862   3.886  12.746   2.359 -0.2906  0.9146  1.2352
   95bbb     C5 2863   3.937  13.104   1.992  0.3788  0.0626 -0.0985
   95bbb     H9 2864   4.025  13.051   1.954 -0.8674 -1.3267 -1.1467
   95bbb    H10 2865   3.970  13.161   2.080  0.1039  1.2524 -0.7341
   95bbb     C6 2866   3.866  12.742   1.904 -0.4634  0.6104  0.2436
   95bbb    H11 2867   3.872  12.823   1.830 -1.8281  1.0120  0.5401
   95bbb    H12 2868   3.756  12.738   1.912 -0.5400  0.3468 -0.8566
   95bbb     C7 2869   4.058  12.837   2.472 -0.3935  0.2946  0.3791
   95bbb    H13 2870   4.079  12.758   2.545  3.4156 -0.3231 -1.1420
   95bbb    H14 2871   4.004  12.910   2.533  1.5581  1.1028  1.1959
   95bbb     C8 2872   3.932  12.623   1.834  0.2944  0.2068  0.4544
   95bbb    H15 2873   4.036  12.652   1.814  0.5838  0.9565  2.7165
   95bbb    H16 2874   3.936  12.534   1.898 -1.5191 -0.6344 -0.5275
   95bbb     C9 2875   3.869  13.190   1.890 -0.5310  0.0288  0.3251
   95bbb    H17 2876   3.843  13.146   1.793  1.3187  1.3143 -0.8358
   95bbb    H18 2877   3.937  13.271   1.863 -0.4302  0.1251  0.8551
   95bbb     O1 2878   4.177  12.915   2.425 -0.1409  0.0754 -0.4756
   95bbb    H19 2879   3.799  12.829   2.158  0.1375  0.1129 -1.3778
   96bbb     N1 2880   4.430  13.859   3.340  0.1748  0.0124  0.5686
   96bbb     C1 2881   4.519  13.968   3.392  0.7072  0.5277  0.0608
   96bbb     H1 2882   4.457  14.055   3.370  1.2526  0.5469 -1.5072
   96bbb     H2 2883   4.605  13.977   3.326  1.4612 -0.5273  0.8767
   96bbb     C2 2884   4.414  13.882   3.189  0.2108 -0.6037 -0.2695
   96bbb     H3 2885   4.381  13.793   3.135 -0.2047 -0.4542 -0.2717
   96bbb     H4 2886   4.507  13.920   3.147  0.3355 -1.1920 -0.5399
   96bbb     C3 2887   4.487  13.719   3.354 -0.0082  0.4189 -0.4683
   96bbb     H5 2888   4.595  13.711   3.341 -0.0905 -1.6963 -0.1699
   96bbb     H6 2889   4.449  13.673   3.263 -2.3588 -0.8234  1.0322
   96bbb     C4 2890   4.433  13.635   3.475 -0.2990 -0.1125 -0.4186
   96bbb     H7 2891   4.324  13.635   3.466 -0.2570  0.4440 -1.0737
   96bbb     H8 2892   4.459  13.688   3.567 -2.5352  1.2993 -0.5334
   96bbb     C5 2893   4.562  13.958   3.543  0.4495 -0.1721  0.9311
   96bbb     H9 2894   4.651  13.894   3.546  0.3394 -0.4832 -1.1943
   96bbb    H10 2895   4.471  13.924   3.594 -0.7393  0.3651 -0.7637
   96bbb     C6 2896   4.320  13.994   3.140  0.4731  0.0617  0.1358
   96bbb    H11 2897   4.347  14.095   3.175  0.4317 -0.0660  0.5352
   96bbb    H12 2898   4.217  13.978   3.173 -0.1558  1.3437 -1.1184
   96bbb     C7 2899   4.494  13.489   3.484 -0.2463 -0.0993 -0.3054
   96bbb    H13 2900   4.438  13.430   3.559 -0.0012 -0.3761 -0.3373
   96bbb    H14 2901   4.595  13.503   3.524 -0.8501  0.7759  0.9829
   96bbb     C8 2902   4.321  14.009   2.987  0.1165  0.1783 -0.1384
   96bbb    H15 2903   4.282  13.917   2.941  0.2384  0.3180 -0.5285
   96bbb    H16 2904   4.259  14.094   2.955  2.5635  2.1285 -0.0394
   96bbb     C9 2905   4.606  14.093   3.602 -0.4819 -1.0772  0.2501
   96bbb    H17 2906   4.699  14.124   3.553  0.2055  1.4058  2.9238
   96bbb    H18 2907   4.630  14.071   3.706  0.7470 -2.0840 -0.2167
   96bbb     O1 2908   4.495  13.420   3.356  0.0331  0.5096  0.3334
   96bbb    H19 2909   4.340  13.867   3.389 -1.1092 -1.8105 -1.3407
   97bbb     N1 2910   5.351  12.998   3.052  0.4222 -0.5065  0.7635
   97bbb     C1 2911   5.399  12.858   3.097  0.2992 -0.9965  0.2900
   97bbb     H1 2912   5.320  12.823   3.164 -0.7366  0.9114  0.1351
   97bbb     H2 2913   5.483  12.875   3.164 -0.8856 -2.7217  2.3313
   97bbb     C2 2914   5.443  13.057   2.950  1.0317 -0.1360  0.2298
   97bbb     H3 2915   5.386  13.148   2.929 -1.4855 -1.7411 -0.3925
   97bbb     H4 2916   5.442  13.007   2.853 -1.1924  2.5093 -1.2641
   97bbb     C3 2917   5.209  12.992   2.994  0.2065 -0.7145  1.2108
   97bbb     H5 2918   5.148  12.912   3.035  0.0997 -1.5348 -0.4689
   97bbb     H6 2919   5.212  12.960   2.890 -1.6753 -1.8352  1.4684
   97bbb     C4 2920   5.133  13.130   3.004  0.7055  0.4195 -0.7623
   97bbb     H7 2921   5.194  13.207   2.956  3.5065  0.6174  2.6575
   97bbb     H8 2922   5.129  13.165   3.108  0.1844 -0.0745 -0.6059
   97bbb     C5 2923   5.416  12.748   2.997 -0.1134 -0.4272  0.3455
   97bbb     H9 2924   5.466  12.790   2.909  2.5047  1.5660  2.5801
   97bbb    H10 2925   5.312  12.725   2.971 -0.0549 -1.4397  0.9254
   97bbb     C6 2926   5.585  13.090   2.997  0.1161  0.1447 -0.5436
   97bbb    H11 2927   5.650  13.001   2.998  0.5869  0.4867 -0.3517
   97bbb    H12 2928   5.570  13.123   3.100  0.1490  0.1945 -0.5548
   97bbb     C7 2929   4.994  13.129   2.942  0.2489  0.2204  0.2910
   97bbb    H13 2930   5.005  13.091   2.840  0.7399  1.4446 -0.1347
   97bbb    H14 2931   4.951  13.229   2.933  2.2294  1.0760 -0.1945
   97bbb     C8 2932   5.643  13.205   2.908 -0.3541  0.1249  0.1204
   97bbb    H15 2933   5.692  13.155   2.824 -1.2562 -0.1889 -0.2341
   97bbb    H16 2934   5.562  13.270   2.873 -0.4286  0.1184  0.2757
   97bbb     C9 2935   5.495  12.625   3.050  0.4939 -0.4912 -0.5280
   97bbb    H17 2936   5.450  12.538   3.000 -1.1398  1.0407 -1.8225
   97bbb    H18 2937   5.479  12.619   3.159 -0.4070  2.7625 -0.3809
   97bbb     O1 2938   4.908  13.060   3.033 -0.6158  0.2774  0.2866
   97bbb    H19 2939   5.344  13.057   3.136  2.3366  1.2651 -0.2313
   98bbb     N1 2940   3.365  11.735   2.296 -0.1550  0.6003  0.5379
   98bbb     C1 2941   3.285  11.610   2.270 -0.8265  0.4021  0.0664
   98bbb     H1 2942   3.304  11.576   2.168  1.4269  0.7443  0.3065
   98bbb     H2 2943   3.179  11.632   2.281 -0.7811 -0.0506  1.6757
   98bbb     C2 2944   3.322  11.840   2.182  0.3706 -0.1933 -0.5354
   98bbb     H3 2945   3.385  11.928   2.183  1.0917 -0.7035 -0.3718
   98bbb     H4 2946   3.229  11.885   2.217  0.0089 -1.1345 -0.2504
   98bbb     C3 2947   3.337  11.806   2.425 -0.1249  1.3534 -0.6637
   98bbb     H5 2948   3.354  11.738   2.508 -0.1873  2.2806  0.1288
   98bbb     H6 2949   3.232  11.833   2.434 -1.0267 -1.9788  0.0933
   98bbb     C4 2950   3.430  11.919   2.460 -0.6477  0.1306 -0.0754
   98bbb     H7 2951   3.378  12.013   2.439  0.5627  0.5552 -1.2739
   98bbb     H8 2952   3.513  11.907   2.389  0.2302 -1.2671  1.1347
   98bbb     C5 2953   3.324  11.494   2.365 -0.0227  0.6464 -0.9622
   98bbb     H9 2954   3.292  11.523   2.466  1.2026  1.5838 -0.8219
   98bbb    H10 2955   3.430  11.470   2.379 -0.4957 -0.3864  1.3009
   98bbb     C6 2956   3.310  11.786   2.041  0.0937  0.3565  0.2305
   98bbb    H11 2957   3.282  11.857   1.962 -0.3890 -0.9680 -0.8249
   98bbb    H12 2958   3.243  11.701   2.027  2.7936 -1.6416 -1.7833
   98bbb     C7 2959   3.473  11.913   2.607  0.2588  0.6053  0.2416
   98bbb    H13 2960   3.530  12.006   2.622 -1.0893  1.3613  0.8971
   98bbb    H14 2961   3.535  11.825   2.626 -1.6939 -1.1136 -0.9050
   98bbb     C8 2962   3.446  11.752   1.982 -0.2790 -0.1274  0.0589
   98bbb    H15 2963   3.431  11.741   1.874  0.7155 -1.0391  0.0036
   98bbb    H16 2964   3.515  11.838   1.987  0.9431 -1.1488  1.7695
   98bbb     C9 2965   3.259  11.358   2.324 -0.0212 -0.4670 -0.7574
   98bbb    H17 2966   3.151  11.380   2.320 -0.0261  0.4708  2.0765
   98bbb    H18 2967   3.275  11.293   2.411 -0.1730  2.6012  1.7358
   98bbb     O1 2968   3.362  11.930   2.697  0.1891  0.9499 -0.1800
   98bbb    H19 2969   3.467  11.725   2.286 -0.2151  1.1590 -0.7915
   99bbb     N1 2970   2.735  11.960   2.560 -0.3413  0.7082 -0.2931
   99bbb     C1 2971   2.656  11.839   2.531  0.0637  0.3712 -0.0661
   99bbb     H1 2972   2.635  11.838   2.424  1.3152 -2.0693 -0.3673
   99bbb     H2 2973   2.560  11.851   2.582  0.6480 -1.3971  1.5883
   99bbb     C2 2974   2.683  12.078   2.478 -0.2544 -0.2405  0.3218
   99bbb     H3 2975   2.731  12.168   2.518  0.3930 -0.0497 -0.8377
   99bbb     H4 2976   2.577  12.102   2.486 -0.4321  0.0926 -2.3288
   99bbb     C3 2977   2.715  11.981   2.707  0.2059  0.4561  0.3696
   99bbb     H5 2978   2.738  11.890   2.762 -0.1580  1.5190  2.4181
   99bbb     H6 2979   2.608  12.001   2.717 -0.0804 -0.2828 -1.0496
   99bbb     C4 2980   2.798  12.099   2.773  0.1321 -0.1980 -0.6358
   99bbb     H7 2981   2.767  12.199   2.742 -0.9383 -0.8273 -1.6892
   99bbb     H8 2982   2.898  12.085   2.729 -0.0802  1.0536 -1.5839
   99bbb     C5 2983   2.713  11.698   2.571 -0.1917 -1.0243 -1.0810
   99bbb     H9 2984   2.676  11.668   2.670  1.9285 -0.0719  0.0760
   99bbb    H10 2985   2.822  11.711   2.573 -0.1453 -1.0658  2.3247
   99bbb     C6 2986   2.706  12.080   2.325 -0.2077  0.0825  0.2147
   99bbb    H11 2987   2.670  11.984   2.286 -1.6196  0.5298  0.3707
   99bbb    H12 2988   2.813  12.086   2.304 -0.0679  2.9312  1.2618
   99bbb     C7 2989   2.811  12.104   2.925 -0.5408  0.2568 -0.3486
   99bbb    H13 2990   2.713  12.080   2.969 -0.8978  0.7220 -0.8781
   99bbb    H14 2991   2.856  12.201   2.946  0.7592 -0.4174  0.0956
   99bbb     C8 2992   2.647  12.200   2.251  1.0504 -0.1290 -0.0198
   99bbb    H15 2993   2.682  12.297   2.289  0.8597 -0.8222  2.0206
   99bbb    H16 2994   2.686  12.188   2.149 -0.9103 -0.9846 -0.7265
   99bbb     C9 2995   2.698  11.595   2.466 -0.3308  0.1801 -0.5835
   99bbb    H17 2996   2.590  11.596   2.451 -0.0382  0.7716 -3.0548
   99bbb    H18 2997   2.725  11.496   2.506  1.3606  1.1284  0.7855
   99bbb     O1 2998   2.904  12.004   2.975 -0.1869 -0.8167  0.7838
   99bbb    H19 2999   2.836  11.959   2.543 -0.1303  1.5449  0.8093
  100bbb     N1 3000   3.380  13.172   3.458 -0.3730  0.8661 -0.5776
  100bbb     C1 3001   3.361  13.319   3.452 -0.3368 -0.3481 -0.0924
  100bbb     H1 3002   3.462  13.360   3.449  0.2106 -1.6579 -0.5790
  100bbb     H2 3003   3.309  13.349   3.543  0.6854  0.5855  0.2087
  100bbb     C2 3004   3.452  13.137   3.582 -0.4297  0.1525 -0.2761
  100bbb     H3 3005   3.441  13.031   3.606  0.7276  0.0800 -0.0028
  100bbb     H4 3006   3.421  13.194   3.670  2.7279  1.2423  0.2574
  100bbb     C3 3007   3.255  13.090   3.452 -0.1768 -0.2644 -0.8803
  100bbb     H5 3008   3.180  13.134   3.517  2.3234 -0.1317  2.1528
  100bbb     H6 3009   3.286  12.998   3.502  1.4551  0.5222 -0.3603
  100bbb     C4 3010   3.203  13.042   3.320 -0.0455  0.9203  0.4041
  100bbb     H7 3011   3.265  12.958   3.288  1.6509  1.9862  0.7016
  100bbb     H8 3012   3.199  13.120   3.243  0.2751  1.3465  0.8100
  100bbb     C5 3013   3.280  13.382   3.335 -0.2675 -0.0827  0.3521
  100bbb     H9 3014   3.172  13.365   3.337 -0.3636 -0.9351 -3.5963
  100bbb    H10 3015   3.319  13.346   3.239 -0.3120  0.8904 -0.0436
  100bbb     C6 3016   3.602  13.163   3.582  0.3386  0.3182  0.4253
  100bbb    H11 3017   3.616  13.271   3.595  3.3271 -0.1113  1.4679
  100bbb    H12 3018   3.636  13.130   3.482 -0.7506 -1.5039  0.6079
  100bbb     C7 3019   3.061  12.990   3.345 -0.0469 -0.8410  0.0929
  100bbb    H13 3020   3.014  13.062   3.412  0.1770 -2.6175  2.2946
  100bbb    H14 3021   3.069  12.896   3.401 -1.4766 -1.4803 -0.7272
  100bbb     C8 3022   3.673  13.102   3.703 -0.3185  0.1016  0.0607
  100bbb    H15 3023   3.657  12.993   3.707  5.0150 -0.9135  2.4605
  100bbb    H16 3024   3.781  13.116   3.696 -0.1435 -1.4736 -1.1344
  100bbb     C9 3025   3.306  13.536   3.332 -0.2677  0.5132  0.3946
  100bbb    H17 3026   3.411  13.564   3.326 -0.1628  0.6779  2.3129
  100bbb    H18 3027   3.271  13.581   3.426  1.8849 -0.6520  1.8336
  100bbb     O1 3028   2.995  12.972   3.218  0.5511  0.3726 -0.5861
  100bbb    H19 3029   3.440  13.148   3.377 -1.4857 -1.1463 -0.8877
  101bbb     N1 3030   2.687  13.118   2.337 -0.8198  0.1100  0.3012
  101bbb     C1 3031   2.613  13.165   2.217  0.0951  0.4243  0.6070
  101bbb     H1 3032   2.526  13.224   2.245  0.6445  1.0471  1.0088
  101bbb     H2 3033   2.589  13.074   2.161  1.2343  1.3341 -1.4613
  101bbb     C2 3034   2.589  13.064   2.448 -0.5486 -0.1150  0.1397
  101bbb     H3 3035   2.646  12.993   2.508  0.3017  1.1653  0.8868
  101bbb     H4 3036   2.506  13.023   2.390 -2.3522  1.9140  1.1163
  101bbb     C3 3037   2.791  13.014   2.307  0.3732 -0.9389 -0.2111
  101bbb     H5 3038   2.851  13.051   2.224 -0.1829 -1.9375 -1.1010
  101bbb     H6 3039   2.742  12.923   2.271  0.2223 -0.0689 -2.3696
  101bbb     C4 3040   2.899  12.985   2.423 -0.6338 -0.2972  0.1588
  101bbb     H7 3041   2.958  12.900   2.387 -0.7006  0.2910 -1.4106
  101bbb     H8 3042   2.850  12.950   2.515 -0.4352 -0.4095  0.2219
  101bbb     C5 3043   2.698  13.247   2.122 -0.7483  0.0790 -0.0733
  101bbb     H9 3044   2.788  13.193   2.089 -0.2986 -1.1897  2.9153
  101bbb    H10 3045   2.736  13.336   2.173 -0.8478 -0.2809  0.6489
  101bbb     C6 3046   2.523  13.173   2.541  0.2926 -0.8032  0.4819
  101bbb    H11 3047   2.465  13.246   2.484 -0.5050 -0.3049  1.8913
  101bbb    H12 3048   2.598  13.233   2.593  0.8475 -1.8346  0.9051
  101bbb     C7 3049   3.001  13.092   2.473  0.5718  0.0195 -0.4525
  101bbb    H13 3050   2.942  13.181   2.497  2.1561  1.0186 -0.0777
  101bbb    H14 3051   3.088  13.120   2.412  1.2421 -0.5642  0.2016
  101bbb     C8 3052   2.428  13.114   2.649 -0.0976  0.5946 -0.1196
  101bbb    H15 3053   2.482  13.033   2.699 -0.1609 -0.3118 -1.4623
  101bbb    H16 3054   2.406  13.186   2.729 -0.0107  0.8189 -0.2956
  101bbb     C9 3055   2.625  13.285   1.988 -0.0693 -0.2845  0.1224
  101bbb    H17 3056   2.596  13.192   1.937  1.6113 -1.2391  0.8143
  101bbb    H18 3057   2.692  13.332   1.916 -0.7080 -0.1646 -0.4031
  101bbb     O1 3058   3.062  13.042   2.597 -0.5430 -0.8092 -0.2112
  101bbb    H19 3059   2.725  13.203   2.381  0.0497 -0.7915  1.3335
  102bbb     N1 3060   6.217  12.369   6.477  0.0291 -0.4001 -0.3923
  102bbb     C1 3061   6.262  12.481   6.392  0.1884  0.2317 -0.0058
  102bbb     H1 3062   6.293  12.562   6.459  1.3568  0.2151 -0.5144
  102bbb     H2 3063   6.176  12.520   6.337  0.8559  0.3171 -1.0091
  102bbb     C2 3064   6.147  12.414   6.605  0.7116 -1.0200  0.2325
  102bbb     H3 3065   6.116  12.322   6.654 -3.0938 -0.7268 -1.2905
  102bbb     H4 3066   6.054  12.465   6.578  2.3624  2.1029 -0.0557
  102bbb     C3 3067   6.126  12.293   6.385  0.1983  0.6682  0.1090
  102bbb     H5 3068   6.178  12.287   6.289 -1.8578  0.4254 -1.0508
  102bbb     H6 3069   6.032  12.348   6.379 -1.0594 -1.4327 -0.5633
  102bbb     C4 3070   6.085  12.152   6.439 -0.1165  0.0942 -0.1284
  102bbb     H7 3071   6.089  12.155   6.548  0.1318 -0.3924 -0.1224
  102bbb     H8 3072   6.161  12.083   6.398  0.3554  0.5138  0.0233
  102bbb     C5 3073   6.368  12.460   6.272  0.6929  0.3236 -0.3117
  102bbb     H9 3074   6.396  12.552   6.218 -1.2252  0.5857 -0.9778
  102bbb    H10 3075   6.335  12.386   6.198  0.3593 -0.7634  0.8944
  102bbb     C6 3076   6.231  12.498   6.707 -0.3721  0.4365  0.3227
  102bbb    H11 3077   6.211  12.605   6.691 -0.0935  0.8557  2.4276
  102bbb    H12 3078   6.336  12.478   6.684 -0.8061 -0.2570 -1.1453
  102bbb     C7 3079   5.945  12.108   6.390 -0.8134  0.1843  0.4414
  102bbb    H13 3080   5.922  12.009   6.432  0.1118 -0.1011  0.2867
  102bbb    H14 3081   5.964  12.100   6.283  5.1227 -1.8436  1.2673
  102bbb     C8 3082   6.212  12.460   6.855  0.9010 -0.5344 -0.5659
  102bbb    H15 3083   6.108  12.470   6.886  1.9371 -1.2919  3.7594
  102bbb    H16 3084   6.236  12.354   6.868  1.9395 -0.0754  1.6512
  102bbb     C9 3085   6.493  12.395   6.330 -0.1759  0.0588 -0.2125
  102bbb    H17 3086   6.481  12.288   6.348  1.3511 -0.1652 -0.3417
  102bbb    H18 3087   6.527  12.437   6.425  2.6271  0.5693 -1.3473
  102bbb     O1 3088   5.833  12.198   6.415  0.6364  0.1847 -0.0400
  102bbb    H19 3089   6.293  12.311   6.514  1.4709  2.5035  1.5742
  103bbb     N1 3090   5.484  12.393   6.933  0.4640  0.1537 -0.9137
  103bbb     C1 3091   5.544  12.504   7.028  0.3243  0.0418  0.1710
  103bbb     H1 3092   5.457  12.554   7.072  1.4774  1.8656  0.4705
  103bbb     H2 3093   5.605  12.569   6.966  2.1164 -2.8113 -1.2975
  103bbb     C2 3094   5.421  12.276   7.009  0.1067  0.9081  0.4552
  103bbb     H3 3095   5.499  12.227   7.068 -0.3055 -0.0776  0.2028
  103bbb     H4 3096   5.389  12.206   6.931 -2.5956  1.5092  0.9288
  103bbb     C3 3097   5.389  12.450   6.833  0.5372 -0.0819 -0.2716
  103bbb     H5 3098   5.313  12.512   6.882  0.7785 -0.5559  0.7049
  103bbb     H6 3099   5.342  12.367   6.780 -0.3366  0.0147  0.3243
  103bbb     C4 3100   5.468  12.533   6.726 -0.6184  0.7970 -0.2596
  103bbb     H7 3101   5.525  12.466   6.660 -1.6977 -0.4829  0.0708
  103bbb     H8 3102   5.532  12.605   6.779  1.2488 -1.8932  1.3637
  103bbb     C5 3103   5.624  12.443   7.155  0.3389  0.1125  0.4321
  103bbb     H9 3104   5.704  12.371   7.135  1.1445  0.7764  1.2082
  103bbb    H10 3105   5.552  12.381   7.210  1.1850 -2.3636 -1.1223
  103bbb     C6 3106   5.303  12.307   7.101  0.2826 -0.6976  0.1004
  103bbb    H11 3107   5.230  12.360   7.039 -0.1193 -0.6911  0.5692
  103bbb    H12 3108   5.335  12.382   7.175  0.7225  1.3383 -2.0350
  103bbb     C7 3109   5.374  12.599   6.637 -0.6720 -0.0492  0.5452
  103bbb    H13 3110   5.430  12.668   6.571 -0.7254 -1.3632 -0.9356
  103bbb    H14 3111   5.301  12.664   6.685 -0.3652 -0.2081  1.2350
  103bbb     C8 3112   5.240  12.197   7.183  0.0846  0.3898 -0.5750
  103bbb    H15 3113   5.147  12.233   7.228  0.5951  1.0759 -0.0477
  103bbb    H16 3114   5.203  12.119   7.115  0.9541  0.0142 -0.6247
  103bbb     C9 3115   5.676  12.555   7.246 -0.0978 -0.2718  0.2354
  103bbb    H17 3116   5.739  12.514   7.326 -0.0525  0.3010  0.4988
  103bbb    H18 3117   5.597  12.614   7.296 -2.1495  1.2107 -4.2375
  103bbb     O1 3118   5.309  12.497   6.567 -0.5704 -0.6489 -0.2747
  103bbb    H19 3119   5.561  12.351   6.878  0.4057 -0.3674 -0.6011
  104bbb     N1 3120   4.791  13.707   6.484 -0.1423  0.3527 -0.2454
  104bbb     C1 3121   4.668  13.772   6.440 -0.0584  0.1458  0.1915
  104bbb     H1 3122   4.636  13.840   6.519  1.5881 -1.4761  2.3813
  104bbb     H2 3123   4.591  13.697   6.417 -1.5014  1.0005  1.9947
  104bbb     C2 3124   4.758  13.625   6.607  0.4866 -0.0343  0.9582
  104bbb     H3 3125   4.679  13.560   6.571 -0.2363  2.3162 -2.1767
  104bbb     H4 3126   4.729  13.693   6.687  1.0149  1.7089 -0.2672
  104bbb     C3 3127   4.852  13.611   6.378  0.1634 -0.2659  0.0688
  104bbb     H5 3128   4.947  13.575   6.418  0.1434  0.0137  0.3774
  104bbb     H6 3129   4.871  13.679   6.295 -0.1867 -1.0308 -0.6490
  104bbb     C4 3130   4.767  13.483   6.334 -0.2646 -0.1569 -0.5452
  104bbb     H7 3131   4.666  13.510   6.303 -0.0991  1.3876  0.1494
  104bbb     H8 3132   4.760  13.408   6.413  1.4516  1.0824  0.8923
  104bbb     C5 3133   4.689  13.864   6.322 -0.0032 -0.2213 -0.1548
  104bbb     H9 3134   4.595  13.880   6.266  0.0161  1.4075  0.2271
  104bbb    H10 3135   4.760  13.829   6.246  1.0691  1.3402  0.1010
  104bbb     C6 3136   4.876  13.556   6.675 -0.8204 -0.2818  0.0537
  104bbb    H11 3137   4.967  13.616   6.666 -1.2356  0.4218  0.4163
  104bbb    H12 3138   4.892  13.468   6.612 -1.0188  0.7822 -1.5637
  104bbb     C7 3139   4.825  13.417   6.213 -0.4494 -0.1933 -0.2071
  104bbb    H13 3140   4.772  13.326   6.183  2.8808 -3.4659  2.8040
  104bbb    H14 3141   4.922  13.381   6.251  0.1190 -0.8518 -2.1766
  104bbb     C8 3142   4.855  13.518   6.827  0.1299  0.4682  0.6170
  104bbb    H15 3143   4.947  13.475   6.868  0.8333  2.8835  1.8227
  104bbb    H16 3144   4.853  13.613   6.883 -0.2965  0.7984  0.0496
  104bbb     C9 3145   4.726  14.004   6.371  0.2366 -0.3300 -0.6642
  104bbb    H17 3146   4.663  14.034   6.455  0.8103 -0.0729 -0.3184
  104bbb    H18 3147   4.710  14.074   6.287 -1.4812 -0.0931 -0.1712
  104bbb     O1 3148   4.843  13.508   6.095  0.0758  0.0163  0.1215
  104bbb    H19 3149   4.863  13.779   6.502  0.5384 -0.5531  0.8082
  105bbb     N1 3150   5.394  14.048   5.507  0.1857 -0.3846  0.0542
  105bbb     C1 3151   5.319  14.173   5.484 -0.4362  0.8700 -0.2334
  105bbb     H1 3152   5.395  14.250   5.472 -1.2023  1.6342 -0.3638
  105bbb     H2 3153   5.260  14.212   5.568  1.0016  1.6877  0.4315
  105bbb     C2 3154   5.494  14.035   5.398  0.0309  0.2383  0.5378
  105bbb     H3 3155   5.584  14.095   5.413  0.6341  0.0303 -1.7690
  105bbb     H4 3156   5.449  14.067   5.304  0.1951  1.4499  0.8551
  105bbb     C3 3157   5.463  14.082   5.639  0.2335 -0.7727 -0.2255
  105bbb     H5 3158   5.502  14.184   5.630 -0.4754 -0.3272  1.3161
  105bbb     H6 3159   5.545  14.012   5.651  2.2255  1.5891  0.7607
  105bbb     C4 3160   5.359  14.062   5.758  1.1334  0.0481  0.1464
  105bbb     H7 3161   5.283  14.141   5.749  0.9662 -0.1655 -0.4152
  105bbb     H8 3162   5.407  14.084   5.854 -0.2402  0.5418  0.7532
  105bbb     C5 3163   5.225  14.180   5.364 -0.0456 -0.5636 -0.4805
  105bbb     H9 3164   5.124  14.144   5.386  0.0195 -1.0787 -0.9823
  105bbb    H10 3165   5.269  14.140   5.271 -0.3019 -1.4607 -0.2229
  105bbb     C6 3166   5.549  13.894   5.375 -0.3013  0.0971 -0.7246
  105bbb    H11 3167   5.468  13.822   5.388  0.1458 -0.6776 -2.0229
  105bbb    H12 3168   5.625  13.871   5.450  0.9191 -0.1957 -2.0077
  105bbb     C7 3169   5.302  13.916   5.767 -0.4757 -0.0869  0.2304
  105bbb    H13 3170   5.228  13.918   5.848 -0.6487  5.1194  0.2945
  105bbb    H14 3171   5.390  13.856   5.792  1.0886  1.7987 -0.4473
  105bbb     C8 3172   5.599  13.877   5.235  0.1930 -0.5315 -0.0847
  105bbb    H15 3173   5.519  13.909   5.167 -0.4995 -0.3301  0.8083
  105bbb    H16 3174   5.693  13.934   5.234  0.5488 -0.8929  2.8464
  105bbb     C9 3175   5.199  14.328   5.344  0.3987  0.2815  0.0921
  105bbb    H17 3176   5.127  14.340   5.262 -0.5302 -1.9135  0.5410
  105bbb    H18 3177   5.292  14.382   5.320 -0.9468  2.2057 -1.0187
  105bbb     O1 3178   5.236  13.879   5.645  0.5569 -0.0174 -0.2045
  105bbb    H19 3179   5.332  13.966   5.504 -0.3583  0.0526 -1.1289
  106bbb     N1 3180   6.384  13.441   4.432  0.1898  0.4176  0.5117
  106bbb     C1 3181   6.424  13.375   4.563 -0.1877  0.3371 -0.3055
  106bbb     H1 3182   6.463  13.275   4.547  1.4488  0.2357  3.2516
  106bbb     H2 3183   6.346  13.371   4.639  0.2033 -0.3620  0.0738
  106bbb     C2 3184   6.439  13.357   4.315  0.2298  0.1877  0.0109
  106bbb     H3 3185   6.547  13.352   4.321  0.2780  2.0690  3.4322
  106bbb     H4 3186   6.414  13.420   4.229 -0.4968 -1.6342 -1.1883
  106bbb     C3 3187   6.230  13.456   4.426 -0.3833 -0.1986  1.3486
  106bbb     H5 3188   6.202  13.519   4.511 -1.1726  0.3052  0.7286
  106bbb     H6 3189   6.182  13.359   4.433  0.2390 -0.5841  0.4019
  106bbb     C4 3190   6.184  13.538   4.313 -0.0657  0.3189  0.3449
  106bbb     H7 3191   6.179  13.458   4.237  2.6259 -1.3490  1.7531
  106bbb     H8 3192   6.255  13.616   4.283 -0.2242 -0.0454 -1.0886
  106bbb     C5 3193   6.537  13.452   4.634  0.1402  0.1189  0.3899
  106bbb     H9 3194   6.500  13.548   4.671 -1.7820 -0.0769 -0.8525
  106bbb    H10 3195   6.622  13.475   4.568 -0.1751  1.3991  0.4073
  106bbb     C6 3196   6.383  13.214   4.297 -0.2046  0.4759  0.5736
  106bbb    H11 3197   6.274  13.225   4.292 -0.2584 -0.1419  0.2657
  106bbb    H12 3198   6.411  13.153   4.383  0.5973 -1.3622 -0.9227
  106bbb     C7 3199   6.045  13.594   4.349 -0.8545 -0.3014  0.2366
  106bbb    H13 3200   6.017  13.667   4.271 -1.2425 -1.1245 -0.4126
  106bbb    H14 3201   6.055  13.659   4.437 -1.8418 -0.4393  0.4640
  106bbb     C8 3202   6.437  13.151   4.168 -0.1754 -0.7715 -0.8505
  106bbb    H15 3203   6.431  13.226   4.089  0.0596 -0.8893 -0.9813
  106bbb    H16 3204   6.543  13.131   4.190 -0.5185  0.2247  2.0943
  106bbb     C9 3205   6.586  13.374   4.760  0.2723  0.1350 -0.0268
  106bbb    H17 3206   6.657  13.301   4.719  0.2256  1.7082 -3.2106
  106bbb    H18 3207   6.504  13.335   4.821  0.2118  0.9271  0.4114
  106bbb     O1 3208   5.940  13.496   4.369  0.4280  0.0253 -0.0732
  106bbb    H19 3209   6.432  13.532   4.437 -1.3667  1.2493  1.0346
  107bbb     N1 3210   5.239  13.848   3.999 -0.0045 -0.3774 -0.2791
  107bbb     C1 3211   5.301  13.964   3.918  0.3762  0.4819  0.2217
  107bbb     H1 3212   5.226  14.042   3.902 -0.5755 -0.8113 -1.9572
  107bbb     H2 3213   5.314  13.914   3.822 -1.5176 -3.1042  1.6501
  107bbb     C2 3214   5.193  13.888   4.145 -0.8075  0.4256  0.6449
  107bbb     H3 3215   5.100  13.944   4.134  0.2658  1.9679 -0.9593
  107bbb     H4 3216   5.277  13.941   4.189  1.4163 -1.5963 -0.8713
  107bbb     C3 3217   5.125  13.794   3.912  0.4644 -0.7887  0.6113
  107bbb     H5 3218   5.091  13.885   3.863  0.2877 -0.8831  0.5564
  107bbb     H6 3219   5.047  13.753   3.978 -1.0116 -1.9635 -1.7370
  107bbb     C4 3220   5.160  13.682   3.811  0.3421  0.0345  0.7953
  107bbb     H7 3221   5.251  13.704   3.754  0.0226 -0.6114  0.0065
  107bbb     H8 3222   5.074  13.686   3.743  0.4374 -1.5451  0.5462
  107bbb     C5 3223   5.434  14.026   3.960  0.0688 -0.0666 -0.6729
  107bbb     H9 3224   5.507  13.945   3.972  0.5674  0.1737 -1.9928
  107bbb    H10 3225   5.420  14.072   4.059 -1.6959  0.2020 -1.0025
  107bbb     C6 3226   5.163  13.764   4.227 -0.0010 -0.3277 -0.8845
  107bbb    H11 3227   5.253  13.707   4.252 -0.0599  0.6927  1.9873
  107bbb    H12 3228   5.087  13.701   4.179 -0.3400 -1.2963  0.8684
  107bbb     C7 3229   5.172  13.549   3.883 -0.9023  0.2432 -0.6244
  107bbb    H13 3230   5.186  13.473   3.805  2.8730  0.2128 -0.0984
  107bbb    H14 3231   5.089  13.530   3.951  0.7790  1.1325  1.7896
  107bbb     C8 3232   5.115  13.809   4.369  0.3881  0.3310  0.2991
  107bbb    H15 3233   5.018  13.861   4.362 -1.4000 -2.2743  3.0344
  107bbb    H16 3234   5.092  13.727   4.438  1.6464 -1.0656 -0.9062
  107bbb     C9 3235   5.490  14.126   3.856 -0.4352 -0.0801  0.0674
  107bbb    H17 3236   5.528  14.080   3.764  1.1831  2.6310 -0.7674
  107bbb    H18 3237   5.576  14.181   3.897  0.8040 -1.4880 -0.5417
  107bbb     O1 3238   5.295  13.561   3.963  0.1440  0.0417  0.6646
  107bbb    H19 3239   5.314  13.778   3.998  1.3198  0.9815 -0.4191
  108bbb     N1 3240   6.551  11.995   4.715 -0.1034  0.0479 -0.6469
  108bbb     C1 3241   6.481  11.871   4.661  0.4441  0.3757  0.4864
  108bbb     H1 3242   6.555  11.790   4.666  0.8750  0.8125  1.3637
  108bbb     H2 3243   6.452  11.885   4.557  1.3638  1.5669  0.3770
  108bbb     C2 3244   6.689  12.000   4.646  0.0278  0.3394  0.0352
  108bbb     H3 3245   6.685  11.987   4.537  2.1206  2.8406 -0.4213
  108bbb     H4 3246   6.752  11.921   4.688  1.6389  1.9373  0.7611
  108bbb     C3 3247   6.462  12.112   4.689  0.1981  0.0777 -0.4818
  108bbb     H5 3248   6.521  12.199   4.717 -0.9101  1.1866 -1.4538
  108bbb     H6 3249   6.380  12.118   4.761 -0.9187  0.3373 -1.7187
  108bbb     C4 3250   6.405  12.137   4.549 -0.7472  0.2376  0.5349
  108bbb     H7 3251   6.344  12.055   4.510 -1.0558  0.8653 -0.3253
  108bbb     H8 3252   6.491  12.137   4.481 -0.0766  1.2128  1.3404
  108bbb     C5 3253   6.356  11.830   4.742 -0.4773  0.0649 -0.0523
  108bbb     H9 3254   6.309  11.739   4.704  0.3559 -0.3129 -0.1896
  108bbb    H10 3255   6.277  11.906   4.737 -0.7314 -0.1239  0.8392
  108bbb     C6 3256   6.768  12.126   4.686  0.1810  0.5432 -1.0636
  108bbb    H11 3257   6.766  12.143   4.794  1.4605 -3.0112 -0.3474
  108bbb    H12 3258   6.743  12.221   4.635  5.1690  2.3545 -0.7713
  108bbb     C7 3259   6.342  12.270   4.529  0.0710  0.7021 -0.6209
  108bbb    H13 3260   6.414  12.350   4.550 -0.2926  0.9856 -0.4430
  108bbb    H14 3261   6.257  12.281   4.598 -0.2757 -0.5887 -0.8140
  108bbb     C8 3262   6.913  12.100   4.650  0.1147 -0.7094 -1.1304
  108bbb    H15 3263   6.921  12.095   4.541 -0.9838  0.0174 -1.2605
  108bbb    H16 3264   6.969  12.184   4.693 -0.8554 -0.5569 -0.1317
  108bbb     C9 3265   6.385  11.797   4.891  0.6792  0.0377  0.0735
  108bbb    H17 3266   6.412  11.881   4.956 -0.9381  0.7334 -0.1041
  108bbb    H18 3267   6.462  11.719   4.898  0.2722 -0.2924  1.0782
  108bbb     O1 3268   6.294  12.275   4.400  0.5214  0.5821  0.0982
  108bbb    H19 3269   6.563  11.985   4.817 -1.3121 -0.6146 -0.5519
  109bbb     N1 3270   6.009  11.641   4.364 -0.1602 -0.2853 -0.1580
  109bbb     C1 3271   6.056  11.567   4.490 -0.0502 -0.4914  0.4101
  109bbb     H1 3272   6.145  11.622   4.522  0.0602  0.2267 -1.0249
  109bbb     H2 3273   6.090  11.467   4.465  0.1739 -0.0618 -1.1826
  109bbb     C2 3274   5.892  11.567   4.303 -0.7711  0.3636  0.1187
  109bbb     H3 3275   5.808  11.578   4.372 -0.2548 -0.6514  0.9395
  109bbb     H4 3276   5.931  11.465   4.299 -0.0607  0.5264  1.7780
  109bbb     C3 3277   5.960  11.778   4.380  0.0507 -0.4298 -0.1190
  109bbb     H5 3278   5.874  11.775   4.448 -0.8917  0.4510 -1.2415
  109bbb     H6 3279   5.931  11.815   4.282  0.9549  1.1060  0.1736
  109bbb     C4 3280   6.053  11.881   4.443 -0.0512 -0.0250 -0.0409
  109bbb     H7 3281   6.142  11.887   4.379  1.3674  1.4822  1.9633
  109bbb     H8 3282   6.088  11.845   4.541 -0.6228  0.7101  0.4476
  109bbb     C5 3283   5.959  11.579   4.613  0.5492  0.4760  0.3109
  109bbb     H9 3284   5.855  11.550   4.596  0.2473  1.5579  0.2574
  109bbb    H10 3285   5.946  11.679   4.655 -1.7873  0.2907  0.1424
  109bbb     C6 3286   5.840  11.614   4.162  0.0667 -0.0620  0.9006
  109bbb    H11 3287   5.917  11.613   4.084 -1.2073  0.8499 -0.4310
  109bbb    H12 3288   5.783  11.708   4.163  0.3596  0.1192  1.8786
  109bbb     C7 3289   5.986  12.023   4.454  0.1383 -0.2800  0.8296
  109bbb    H13 3290   6.041  12.097   4.514 -0.9013  1.6427 -0.4669
  109bbb    H14 3291   5.890  12.004   4.504  0.6441  0.0786  1.9949
  109bbb     C8 3292   5.739  11.510   4.116 -0.1348  0.0875 -0.6549
  109bbb    H15 3293   5.784  11.410   4.120  0.5649  0.4337  1.2331
  109bbb    H16 3294   5.649  11.498   4.178  0.5931 -0.0884  0.3888
  109bbb     C9 3295   6.004  11.478   4.722 -0.1134 -0.0214 -0.2784
  109bbb    H17 3296   6.064  11.529   4.798 -0.2940  0.0083 -0.1540
  109bbb    H18 3297   6.076  11.406   4.680  0.7812 -0.6267  2.1336
  109bbb     O1 3298   5.969  12.079   4.329  0.3819 -0.1628  0.4485
  109bbb    H19 3299   6.089  11.636   4.300  0.9137 -0.2270  1.1589
  110bbb     N1 3300   3.988  13.668   6.872 -0.1569  0.3552 -0.0578
  110bbb     C1 3301   4.121  13.721   6.922 -0.3803 -0.5241  0.3166
  110bbb     H1 3302   4.198  13.712   6.844 -1.0139 -1.7323 -0.2049
  110bbb     H2 3303   4.139  13.659   7.010  1.3260  0.6705  0.8476
  110bbb     C2 3304   4.017  13.581   6.752  0.1984 -0.4382 -0.1246
  110bbb     H3 3305   4.073  13.647   6.685  0.6825 -1.1695 -0.4429
  110bbb     H4 3306   3.920  13.564   6.706 -0.3293  0.3497  0.6514
  110bbb     C3 3307   3.918  13.590   6.981 -0.8521  0.7324 -0.3518
  110bbb     H5 3308   3.903  13.649   7.072 -0.7083 -0.2218  0.2983
  110bbb     H6 3309   3.987  13.513   7.014 -1.4213  0.2710 -0.2290
  110bbb     C4 3310   3.783  13.521   6.945  0.3310 -0.2371  0.7802
  110bbb     H7 3311   3.814  13.446   6.870  2.2755  0.2883  1.0074
  110bbb     H8 3312   3.706  13.585   6.901  1.3741  1.6393  1.5754
  110bbb     C5 3313   4.128  13.867   6.971  0.3363 -0.1710 -0.4148
  110bbb     H9 3314   4.052  13.874   7.050  1.0929  0.9050  0.2468
  110bbb    H10 3315   4.089  13.922   6.884  0.5048 -2.1422 -1.7983
  110bbb     C6 3316   4.092  13.450   6.765 -0.5173  0.6273 -0.1385
  110bbb    H11 3317   4.035  13.374   6.818  0.1199  0.3887  0.2193
  110bbb    H12 3318   4.193  13.445   6.808 -0.7734 -0.2856  0.3750
  110bbb     C7 3319   3.733  13.445   7.072  0.0462 -0.2952 -0.9613
  110bbb    H13 3320   3.809  13.376   7.111 -0.1539 -0.6687 -1.2278
  110bbb    H14 3321   3.640  13.397   7.040 -0.6983 -0.6249  1.4571
  110bbb     C8 3322   4.115  13.400   6.621 -0.4303 -0.1223  0.0304
  110bbb    H15 3323   4.172  13.469   6.558 -0.8881 -1.0787 -1.4691
  110bbb    H16 3324   4.165  13.302   6.621  0.1463  0.1232 -2.0013
  110bbb     C9 3325   4.266  13.920   7.001 -0.0609 -0.3964 -0.7048
  110bbb    H17 3326   4.270  14.030   6.995  3.8151 -0.0114  3.3571
  110bbb    H18 3327   4.329  13.889   6.917 -1.3809 -2.0041 -1.1462
  110bbb     O1 3328   3.690  13.549   7.164  0.5112 -0.1422 -0.0206
  110bbb    H19 3329   3.928  13.745   6.840 -1.9674 -1.7612 -2.2385
  111bbb     N1 3330   3.715  14.714   7.128  0.4698 -0.0067  0.0041
  111bbb     C1 3331   3.624  14.764   7.248 -0.0720 -0.2839 -0.6325
  111bbb     H1 3332   3.631  14.873   7.257 -1.3860 -0.3888  2.8910
  111bbb     H2 3333   3.667  14.735   7.344 -0.4451 -0.6893 -0.5874
  111bbb     C2 3334   3.816  14.818   7.093  0.2887  0.0496  0.0475
  111bbb     H3 3335   3.863  14.781   7.002  1.9373 -1.1254  1.3204
  111bbb     H4 3336   3.888  14.817   7.175 -1.6500 -2.5506  1.8787
  111bbb     C3 3337   3.783  14.575   7.165 -0.5663  0.0187  0.1232
  111bbb     H5 3338   3.824  14.588   7.265  2.2699 -0.6992 -0.8652
  111bbb     H6 3339   3.859  14.559   7.089 -1.5633 -1.0223 -0.6762
  111bbb     C4 3340   3.698  14.441   7.163 -0.0039  0.4471  0.6838
  111bbb     H7 3341   3.637  14.442   7.071  0.4767  0.2197  0.3589
  111bbb     H8 3342   3.623  14.448   7.242  0.3604  1.2726  0.9609
  111bbb     C5 3343   3.480  14.719   7.225 -0.1105  0.9999  0.4070
  111bbb     H9 3344   3.479  14.610   7.235  0.9954  1.0798  1.7160
  111bbb    H10 3345   3.441  14.731   7.123  0.3242 -1.8796 -0.1948
  111bbb     C6 3346   3.762  14.964   7.054  0.0790 -0.3231 -0.1518
  111bbb    H11 3347   3.700  14.996   7.139 -1.6142  0.9064 -1.7940
  111bbb    H12 3348   3.695  14.968   6.968 -0.3228 -1.1688  0.1100
  111bbb     C7 3349   3.793  14.322   7.180 -0.2007 -0.7751  0.5333
  111bbb    H13 3350   3.807  14.307   7.287 -0.9628 -1.2628  0.5639
  111bbb    H14 3351   3.894  14.344   7.143  0.2744 -1.2303  1.5302
  111bbb     C8 3352   3.887  15.064   7.023  0.0600  0.2049 -0.0939
  111bbb    H15 3353   3.958  15.043   7.105 -1.1143 -1.8536  0.4619
  111bbb    H16 3354   3.929  15.046   6.923 -0.4022  0.1681 -0.2823
  111bbb     C9 3355   3.383  14.774   7.327  0.5216 -0.2478  0.0300
  111bbb    H17 3356   3.427  14.769   7.428  2.1763  1.5024 -0.5323
  111bbb    H18 3357   3.296  14.708   7.335 -0.7070  1.5131  2.7356
  111bbb     O1 3358   3.745  14.203   7.116  0.3610  0.0853 -0.3370
  111bbb    H19 3359   3.646  14.712   7.051  0.3967  2.9702 -0.1542
  112bbb     N1 3360   3.393  12.939   8.017 -0.1484  0.1060 -0.3645
  112bbb     C1 3361   3.439  12.803   7.962  0.8733 -0.4878 -0.6928
  112bbb     H1 3362   3.363  12.777   7.889 -0.9973  0.5765  0.7923
  112bbb     H2 3363   3.436  12.731   8.044  2.5500  0.3585  0.1522
  112bbb     C2 3364   3.501  12.997   8.121 -0.1602 -0.3652  0.2573
  112bbb     H3 3365   3.454  13.065   8.192 -0.7356 -0.9432  0.4458
  112bbb     H4 3366   3.576  13.045   8.059 -0.6687 -2.0158 -1.7572
  112bbb     C3 3367   3.366  13.035   7.907 -0.4158  0.0777 -0.3098
  112bbb     H5 3368   3.331  12.970   7.826 -1.8318  0.7516 -0.2651
  112bbb     H6 3369   3.460  13.079   7.875 -0.6972  1.9241  1.2587
  112bbb     C4 3370   3.253  13.131   7.938  1.1014 -0.0370  0.3310
  112bbb     H7 3371   3.289  13.202   8.013  1.2042 -1.1462  1.3609
  112bbb     H8 3372   3.167  13.072   7.972  1.8868 -0.5313  1.4973
  112bbb     C5 3373   3.582  12.810   7.897  0.3097 -0.0810 -0.5726
  112bbb     H9 3374   3.647  12.871   7.961 -2.3486  1.5031  0.8089
  112bbb    H10 3375   3.586  12.873   7.807  0.5920  2.9840  1.4046
  112bbb     C6 3376   3.565  12.898   8.219  0.0737  0.6374  0.5184
  112bbb    H11 3377   3.653  12.846   8.179  0.4900  1.5634  0.2115
  112bbb    H12 3378   3.488  12.827   8.250  1.5413 -1.0556  0.4427
  112bbb     C7 3379   3.199  13.191   7.804  0.5851 -0.4525  0.4137
  112bbb    H13 3380   3.152  13.114   7.742  0.8597  1.0133 -1.7299
  112bbb    H14 3381   3.283  13.232   7.746 -1.3641  2.0876 -0.8031
  112bbb     C8 3382   3.612  12.978   8.343 -0.1642 -0.5443  0.1460
  112bbb    H15 3383   3.536  13.039   8.393  3.1711  2.0152  2.5683
  112bbb    H16 3384   3.639  12.906   8.421 -0.9416  0.7139  1.6359
  112bbb     C9 3385   3.651  12.672   7.882  0.2956 -0.3698 -0.0147
  112bbb    H17 3386   3.741  12.690   7.822  0.4623  1.9027  0.8032
  112bbb    H18 3387   3.581  12.608   7.828 -1.3607  0.2496  1.3181
  112bbb     O1 3388   3.105  13.295   7.827 -0.0756 -0.4485  0.1195
  112bbb    H19 3389   3.300  12.940   8.061 -0.5102  2.0529 -1.0523
  113bbb     N1 3390   2.571  13.691   8.611 -0.7541 -0.0745 -0.7126
  113bbb     C1 3391   2.590  13.840   8.644 -0.7061 -0.5338 -0.4424
  113bbb     H1 3392   2.496  13.892   8.622  0.7231  1.5308 -2.1916
  113bbb     H2 3393   2.661  13.883   8.573 -1.5797  0.7852 -0.5644
  113bbb     C2 3394   2.482  13.621   8.718  0.2285  0.1200  0.9572
  113bbb     H3 3395   2.380  13.635   8.680  0.1441  1.3713  1.5867
  113bbb     H4 3396   2.480  13.677   8.811 -1.4237  0.1293  0.9525
  113bbb     C3 3397   2.517  13.673   8.469  0.4035  0.5513  0.2618
  113bbb     H5 3398   2.416  13.715   8.460  0.0068 -0.5153 -0.4041
  113bbb     H6 3399   2.507  13.566   8.451  1.8966  0.5912 -1.0698
  113bbb     C4 3400   2.601  13.722   8.355 -0.0476  1.0335  0.0919
  113bbb     H7 3401   2.691  13.660   8.361 -1.3628 -1.2120 -1.7583
  113bbb     H8 3402   2.631  13.827   8.367  1.6826  0.3801  1.9169
  113bbb     C5 3403   2.645  13.879   8.779 -0.5740  0.2146  0.4838
  113bbb     H9 3404   2.742  13.835   8.806 -2.1579 -3.2265  1.0769
  113bbb    H10 3405   2.580  13.840   8.858 -0.6086 -2.9350 -0.9512
  113bbb     C6 3406   2.512  13.468   8.746  0.2391  0.7380 -0.4104
  113bbb    H11 3407   2.595  13.460   8.816 -0.8622 -1.6772  0.7241
  113bbb    H12 3408   2.535  13.408   8.656  0.0620 -1.7191  1.0933
  113bbb     C7 3409   2.536  13.711   8.215 -0.4254 -0.7607 -0.6523
  113bbb    H13 3410   2.616  13.739   8.145 -0.7925  1.3601 -0.2766
  113bbb    H14 3411   2.457  13.787   8.213 -0.5132 -0.8309 -3.2391
  113bbb     C8 3412   2.388  13.390   8.795 -0.0462 -1.0328 -0.1222
  113bbb    H15 3413   2.300  13.395   8.729 -0.0569  0.5718 -0.0273
  113bbb    H16 3414   2.408  13.282   8.804  0.2070 -0.8667  1.6186
  113bbb     C9 3415   2.647  14.034   8.797 -0.2995 -0.1988 -0.1755
  113bbb    H17 3416   2.562  14.076   8.742  0.2132  0.1246 -0.7280
  113bbb    H18 3417   2.741  14.077   8.761 -0.2583  0.7417  1.0179
  113bbb     O1 3418   2.490  13.570   8.187  0.1773  0.3486  0.0624
  113bbb    H19 3419   2.661  13.642   8.626 -1.4177 -1.8634 -2.1884
  114bbb     N1 3420   2.317  12.046   7.155 -0.5505 -0.1413 -0.1618
  114bbb     C1 3421   2.436  12.083   7.250 -0.1268  0.4496  0.0534
  114bbb     H1 3422   2.528  12.073   7.191  0.6696  1.0722  1.1680
  114bbb     H2 3423   2.435  12.002   7.322 -0.1777 -2.5503 -3.0306
  114bbb     C2 3424   2.354  11.919   7.084 -0.4429 -0.0125 -0.0998
  114bbb     H3 3425   2.360  11.846   7.165  3.1816  0.5976  0.3456
  114bbb     H4 3426   2.458  11.922   7.050 -0.1419 -0.9504  0.6939
  114bbb     C3 3427   2.196  12.030   7.240 -0.2432  0.0415 -0.1228
  114bbb     H5 3428   2.222  12.074   7.336 -1.5956 -0.2289  0.3813
  114bbb     H6 3429   2.184  11.922   7.254  0.0217  0.0951  0.5578
  114bbb     C4 3430   2.063  12.098   7.193 -0.3642 -0.1099  0.3631
  114bbb     H7 3431   2.039  12.076   7.089 -0.2090 -0.2596  0.3581
  114bbb     H8 3432   2.076  12.206   7.204  0.4342 -0.1225 -0.3350
  114bbb     C5 3433   2.444  12.222   7.311  0.2520  0.0569  0.4507
  114bbb     H9 3434   2.402  12.233   7.412 -3.6737 -1.3970 -0.8060
  114bbb    H10 3435   2.382  12.296   7.258  0.7952 -0.4235 -0.8952
  114bbb     C6 3436   2.263  11.866   6.976 -0.3640 -0.1434 -0.1147
  114bbb    H11 3437   2.261  11.932   6.889  0.5759  0.2946  0.1780
  114bbb    H12 3438   2.161  11.874   7.016  0.6813  2.4324  2.3814
  114bbb     C7 3439   1.949  12.061   7.283  0.0798  0.3692 -0.2550
  114bbb    H13 3440   1.934  11.953   7.279  0.6820  0.3315 -2.1109
  114bbb    H14 3441   1.854  12.108   7.255 -0.8173 -1.0824  0.2492
  114bbb     C8 3442   2.304  11.719   6.940  1.0293 -0.5073 -0.3454
  114bbb    H15 3443   2.280  11.644   7.016  0.3914 -1.7480 -1.7183
  114bbb    H16 3444   2.244  11.688   6.854  0.8038  0.3047 -0.4894
  114bbb     C9 3445   2.596  12.250   7.314 -0.3930  0.8979  0.0526
  114bbb    H17 3446   2.666  12.203   7.244  0.8455  0.9447  1.2103
  114bbb    H18 3447   2.644  12.221   7.409  0.4876 -0.5083 -0.7909
  114bbb     O1 3448   1.971  12.104   7.418 -0.1644  0.2571  0.1457
  114bbb    H19 3449   2.320  12.125   7.089  1.5328 -0.5665 -0.6334
  115bbb     N1 3450   1.446  11.881   8.536  0.6391 -0.4031  0.4562
  115bbb     C1 3451   1.432  11.917   8.682  0.0111 -0.3941  0.2662
  115bbb     H1 3452   1.535  11.905   8.716  0.4356 -1.7806 -1.3311
  115bbb     H2 3453   1.371  11.847   8.738 -0.6311 -1.1219 -1.2994
  115bbb     C2 3454   1.299  11.868   8.483 -0.2066  0.8588  0.6098
  115bbb     H3 3455   1.245  11.963   8.477 -1.0446  0.3392 -0.4046
  115bbb     H4 3456   1.253  11.792   8.547  1.2303 -0.8916 -0.3211
  115bbb     C3 3457   1.521  11.986   8.445  0.7651  0.3487 -0.0555
  115bbb     H5 3458   1.492  12.088   8.473  0.4922  0.3542 -0.3496
  115bbb     H6 3459   1.487  11.966   8.344 -0.7413  0.5308  0.3813
  115bbb     C4 3460   1.670  11.966   8.447  0.1775  0.4626  0.2202
  115bbb     H7 3461   1.691  11.907   8.538 -2.0963  2.1296  1.9599
  115bbb     H8 3462   1.717  12.065   8.454  2.6218 -0.4960 -1.3570
  115bbb     C5 3463   1.386  12.064   8.711 -0.1408 -0.9335 -0.1821
  115bbb     H9 3464   1.296  12.089   8.654  0.5901  1.8229 -0.3134
  115bbb    H10 3465   1.468  12.128   8.674 -0.0863 -0.0749  1.3268
  115bbb     C6 3466   1.291  11.807   8.341 -0.1098 -0.1707 -0.6202
  115bbb    H11 3467   1.366  11.728   8.333 -0.7497 -0.9007  0.3425
  115bbb    H12 3468   1.323  11.888   8.274  0.0262  0.9845  0.7806
  115bbb     C7 3469   1.737  11.902   8.325  0.1126 -0.2496 -0.2785
  115bbb    H13 3470   1.724  11.793   8.328  0.2680 -0.2436  1.6184
  115bbb    H14 3471   1.845  11.923   8.323 -0.0696  1.1202  1.8845
  115bbb     C8 3472   1.154  11.754   8.315 -0.2229 -0.2975  0.2702
  115bbb    H15 3473   1.157  11.706   8.216  2.6596  1.6927 -0.7449
  115bbb    H16 3474   1.117  11.684   8.390 -1.3826 -0.0025 -0.0021
  115bbb     C9 3475   1.358  12.094   8.859 -0.0568  0.4212 -0.8262
  115bbb    H17 3476   1.345  12.203   8.857 -0.9308  0.3166 -2.5375
  115bbb    H18 3477   1.452  12.070   8.911  0.0611 -1.7286 -1.8915
  115bbb     O1 3478   1.673  11.961   8.202 -0.2709  0.6405  0.0515
  115bbb    H19 3479   1.482  11.785   8.527 -1.8602 -1.5601  1.7248
  116bbb     N1 3480   1.288  13.869   7.393  0.5592 -0.2560 -0.4224
  116bbb     C1 3481   1.360  14.003   7.387  0.4708 -0.6572  0.6619
  116bbb     H1 3482   1.303  14.078   7.442  0.2453  0.6428 -1.2721
  116bbb     H2 3483   1.356  14.032   7.282 -0.7623  1.1105  1.1394
  116bbb     C2 3484   1.145  13.893   7.344 -0.1874  0.2680  0.5747
  116bbb     H3 3485   1.097  13.795   7.354 -2.4421  1.2087 -0.4475
  116bbb     H4 3486   1.159  13.930   7.243 -0.5827  0.4794  0.5973
  116bbb     C3 3487   1.365  13.781   7.302 -0.3942 -0.0304  0.3618
  116bbb     H5 3488   1.442  13.750   7.373 -1.1327  0.0003  1.1945
  116bbb     H6 3489   1.419  13.836   7.225  1.6642 -2.6228 -0.2051
  116bbb     C4 3490   1.299  13.651   7.249  0.2388 -0.5588 -0.0634
  116bbb     H7 3491   1.223  13.681   7.176  1.5204  0.8018 -0.8927
  116bbb     H8 3492   1.259  13.601   7.338 -0.5830 -0.0535 -0.1500
  116bbb     C5 3493   1.507  14.011   7.427 -0.1867 -0.8749  0.0046
  116bbb     H9 3494   1.566  13.957   7.351  3.4041  2.6299 -0.0366
  116bbb    H10 3495   1.520  13.962   7.524 -0.0003 -1.7513 -0.4504
  116bbb     C6 3496   1.044  13.976   7.428  0.2962 -0.3130 -0.9643
  116bbb    H11 3497   1.061  14.084   7.435 -1.6348  0.0318 -1.0525
  116bbb    H12 3498   1.052  13.934   7.529  2.8700 -0.4301 -1.1512
  116bbb     C7 3499   1.402  13.565   7.167 -0.2368 -0.4610 -0.2157
  116bbb    H13 3500   1.484  13.532   7.232  0.0003  0.7237  0.1173
  116bbb    H14 3501   1.449  13.624   7.088  0.6460 -2.7938 -1.5391
  116bbb     C8 3502   0.901  13.968   7.376 -0.7988  1.6791  0.2939
  116bbb    H15 3503   0.827  14.019   7.440 -1.7148  0.2373  0.4174
  116bbb    H16 3504   0.892  14.028   7.284 -0.5634  1.0947 -0.1156
  116bbb     C9 3505   1.563  14.151   7.418 -0.3007 -0.0444  0.8305
  116bbb    H17 3506   1.673  14.146   7.423 -0.3177  0.5351  3.1580
  116bbb    H18 3507   1.527  14.222   7.494 -0.6026  1.0204 -0.2876
  116bbb     O1 3508   1.332  13.447   7.107 -0.1466  0.3571  0.5286
  116bbb    H19 3509   1.292  13.827   7.487 -0.9356 -0.1721 -0.2916
  117bbb     N1 3510   0.480  13.023   7.582 -0.2062 -0.0207 -0.0003
  117bbb     C1 3511   0.379  12.992   7.472 -1.0917 -0.1270  0.0571
  117bbb     H1 3512   0.282  13.035   7.499 -0.9138 -0.0126  0.5192
  117bbb     H2 3513   0.367  12.884   7.464 -0.1201 -0.1369 -1.5716
  117bbb     C2 3514   0.433  12.964   7.714 -0.1395  0.2773 -0.2159
  117bbb     H3 3515   0.334  13.000   7.743 -0.7399 -1.2775 -0.1963
  117bbb     H4 3516   0.494  13.008   7.793 -1.5154  1.6255  0.1520
  117bbb     C3 3517   0.618  12.977   7.558  0.4507  0.4227 -0.4330
  117bbb     H5 3518   0.637  13.017   7.458  3.1712 -0.3628 -0.3114
  117bbb     H6 3519   0.618  12.868   7.550  1.9105  0.4077 -0.5180
  117bbb     C4 3520   0.730  13.014   7.654  0.2375  0.1512  0.5548
  117bbb     H7 3521   0.717  12.985   7.759 -0.0158  3.2633  1.5096
  117bbb     H8 3522   0.745  13.123   7.653  0.3247  0.1628  1.9247
  117bbb     C5 3523   0.416  13.049   7.333  0.2450  0.1227 -0.2484
  117bbb     H9 3524   0.520  13.023   7.309  1.2685  1.7121  2.0474
  117bbb    H10 3525   0.415  13.158   7.328 -1.0264  0.0852 -1.1187
  117bbb     C6 3526   0.428  12.809   7.722  0.2706 -0.3451 -0.3438
  117bbb    H11 3527   0.528  12.776   7.691  0.1852 -1.3738  0.4235
  117bbb    H12 3528   0.344  12.779   7.658  1.4238  1.7260 -3.0087
  117bbb     C7 3529   0.876  12.965   7.605 -0.4269  0.5444  0.2788
  117bbb    H13 3530   0.880  12.858   7.630 -0.5900  0.9957  2.5005
  117bbb    H14 3531   0.957  13.009   7.664  1.2121  3.3715 -3.6654
  117bbb     C8 3532   0.396  12.753   7.865  0.5001 -0.1354 -0.1585
  117bbb    H15 3533   0.442  12.654   7.880  3.4358  1.1403  0.0102
  117bbb    H16 3534   0.430  12.836   7.928 -0.3926 -0.7387  1.1615
  117bbb     C9 3535   0.308  12.993   7.230 -0.2254  0.0239  0.4250
  117bbb    H17 3536   0.287  13.067   7.152  0.4176  0.9431  1.1085
  117bbb    H18 3537   0.211  12.976   7.279 -0.6584  1.9091  0.2782
  117bbb     O1 3538   0.910  13.002   7.473  0.1681 -0.0180 -0.3840
  117bbb    H19 3539   0.479  13.126   7.587 -1.6193  0.0175 -0.6806
  118bbb     N1 3540   2.487  14.911   4.938  0.3835  0.1286 -0.2958
  118bbb     C1 3541   2.560  14.920   5.068  0.1293 -0.6236 -0.2792
  118bbb     H1 3542   2.666  14.902   5.054  0.4205 -0.1698  1.1364
  118bbb     H2 3543   2.531  14.846   5.142 -0.8220  0.3026  0.3095
  118bbb     C2 3544   2.571  14.958   4.821  0.2555  0.2613 -0.2666
  118bbb     H3 3545   2.590  15.063   4.845 -2.2048  0.3969  1.5020
  118bbb     H4 3546   2.512  14.951   4.730  0.6013  0.1000 -0.4816
  118bbb     C3 3547   2.431  14.771   4.907 -0.0450 -0.2885 -0.5778
  118bbb     H5 3548   2.412  14.729   5.006 -1.9997 -0.9589 -1.1914
  118bbb     H6 3549   2.514  14.713   4.866  0.0735 -0.5678  0.0433
  118bbb     C4 3550   2.300  14.755   4.817 -0.1722  0.5996  0.5550
  118bbb     H7 3551   2.325  14.793   4.717 -0.0356  1.0455  0.7550
  118bbb     H8 3552   2.216  14.813   4.856  0.1670  1.3239  0.2238
  118bbb     C5 3553   2.552  15.062   5.135  0.2301 -0.6931 -1.3825
  118bbb     H9 3554   2.448  15.094   5.149  0.5181  0.0305 -0.8710
  118bbb    H10 3555   2.603  15.139   5.076 -1.4163  0.1109 -1.8193
  118bbb     C6 3556   2.706  14.899   4.798 -0.0638  0.5379 -0.1400
  118bbb    H11 3557   2.698  14.794   4.770  2.1974 -0.1354  1.4899
  118bbb    H12 3558   2.779  14.885   4.878  0.7543 -2.1410 -1.2442
  118bbb     C7 3559   2.234  14.615   4.798 -0.1225 -0.6690 -0.2329
  118bbb    H13 3560   2.306  14.539   4.767 -1.1940 -1.7615 -0.1053
  118bbb    H14 3561   2.150  14.638   4.731 -0.0549  0.7593  0.1233
  118bbb     C8 3562   2.790  14.970   4.692 -0.5804 -0.6048 -0.0254
  118bbb    H15 3563   2.772  14.919   4.597  0.8203 -0.4890 -0.3691
  118bbb    H16 3564   2.772  15.077   4.678  0.2822 -0.6202 -1.4670
  118bbb     C9 3565   2.615  15.065   5.277  0.5724  1.1489 -0.6847
  118bbb    H17 3566   2.724  15.066   5.272  0.5787  0.9504 -0.5932
  118bbb    H18 3567   2.588  14.973   5.330 -2.0245  0.7347 -2.5007
  118bbb     O1 3568   2.169  14.573   4.926  0.5545  0.1778  0.0436
  118bbb    H19 3569   2.399  14.966   4.937 -0.4875 -1.0359  2.3257
  119bbb     N1 3570   1.496  14.590   4.982 -0.1366 -0.4411 -0.6948
  119bbb     C1 3571   1.414  14.557   4.864 -0.3776  0.3989  1.0490
  119bbb     H1 3572   1.310  14.545   4.894  0.2606 -0.2448  3.1084
  119bbb     H2 3573   1.439  14.457   4.827 -2.1308  0.7997 -1.5456
  119bbb     C2 3574   1.406  14.668   5.082 -0.5703 -0.2176 -0.1211
  119bbb     H3 3575   1.367  14.751   5.023  1.7680  0.3827 -0.9370
  119bbb     H4 3576   1.474  14.712   5.155  0.5540 -1.4878 -0.3570
  119bbb     C3 3577   1.553  14.459   5.038  0.1029 -0.1745 -0.1882
  119bbb     H5 3578   1.470  14.389   5.031 -0.4572  0.1143  2.4908
  119bbb     H6 3579   1.580  14.482   5.142 -0.3371 -0.0651 -0.0994
  119bbb     C4 3580   1.677  14.403   4.963 -0.2817 -0.5226 -1.2680
  119bbb     H7 3581   1.766  14.465   4.980  0.6887 -2.4496  1.4938
  119bbb     H8 3582   1.651  14.390   4.858  1.4625 -2.6079 -1.5164
  119bbb     C5 3583   1.440  14.656   4.737 -0.0197 -0.4784  0.0619
  119bbb     H9 3584   1.548  14.673   4.726  0.0193  0.5592  1.7646
  119bbb    H10 3585   1.404  14.756   4.764  3.3353  0.1025  3.2266
  119bbb     C6 3586   1.292  14.600   5.170 -0.6481  0.7966 -0.2234
  119bbb    H11 3587   1.324  14.520   5.238 -1.0161 -0.1235 -1.0990
  119bbb    H12 3588   1.234  14.543   5.096 -0.6379 -0.3930  0.6572
  119bbb     C7 3589   1.703  14.250   4.992  0.1758 -0.5978  0.2189
  119bbb    H13 3590   1.611  14.193   4.972 -0.2717  0.6528 -1.4876
  119bbb    H14 3591   1.704  14.243   5.102 -2.3356  0.6588  0.3708
  119bbb     C8 3592   1.202  14.703   5.245 -0.6656  0.5041  0.0422
  119bbb    H15 3593   1.180  14.786   5.177  0.1106  0.8962  0.2555
  119bbb    H16 3594   1.110  14.655   5.281  0.0523  0.0252  1.2983
  119bbb     C9 3595   1.373  14.603   4.605 -0.3097  0.0089  0.1194
  119bbb    H17 3596   1.416  14.518   4.550 -1.0238 -1.0706  1.1955
  119bbb    H18 3597   1.368  14.685   4.533 -0.3243 -0.3278 -0.2675
  119bbb     O1 3598   1.825  14.211   4.927  0.2116  0.5746  0.1289
  119bbb    H19 3599   1.572  14.655   4.959  0.1140 -1.0680 -1.6929
  120bbb     N1 3600   2.974  14.553   5.687  0.4307  0.2421 -0.0066
  120bbb     C1 3601   3.038  14.464   5.790 -0.2326  0.1292  0.4008
  120bbb     H1 3602   3.054  14.369   5.738  0.3442 -0.0828  0.9543
  120bbb     H2 3603   2.962  14.451   5.866 -2.4625  4.4713 -0.7681
  120bbb     C2 3604   3.065  14.560   5.566  0.7776 -0.1454  0.0782
  120bbb     H3 3605   3.157  14.605   5.604  2.5975 -1.5238 -2.4170
  120bbb     H4 3606   3.021  14.638   5.505 -0.7479 -0.0847  1.1958
  120bbb     C3 3607   2.837  14.498   5.651  0.6354  0.8157  0.3691
  120bbb     H5 3608   2.832  14.389   5.655 -0.0584  0.8597  1.2927
  120bbb     H6 3609   2.809  14.537   5.553 -1.1263 -0.6412  0.2304
  120bbb     C4 3610   2.722  14.556   5.730 -0.0501 -0.3592 -0.5192
  120bbb     H7 3611   2.716  14.665   5.718  1.2530 -0.2148  0.0556
  120bbb     H8 3612   2.738  14.535   5.837 -1.0695  1.6246  0.0696
  120bbb     C5 3613   3.174  14.502   5.854 -0.6976 -0.2707 -0.5378
  120bbb     H9 3614   3.249  14.521   5.777 -0.0317  1.6637  0.5364
  120bbb    H10 3615   3.218  14.424   5.917 -2.1591 -0.0409  0.8296
  120bbb     C6 3616   3.090  14.437   5.475  0.8534 -0.7128 -0.2859
  120bbb    H11 3617   2.996  14.397   5.434 -0.5998  2.4887 -0.3564
  120bbb    H12 3618   3.132  14.359   5.540  0.4587 -0.5725  0.1480
  120bbb     C7 3619   2.584  14.498   5.688 -0.5226  0.0949 -0.3316
  120bbb    H13 3620   2.572  14.511   5.579 -0.5299  1.0058 -0.2241
  120bbb    H14 3621   2.509  14.558   5.741  0.7749 -0.6082  2.4573
  120bbb     C8 3622   3.184  14.488   5.369  0.4289  0.3916  0.0198
  120bbb    H15 3623   3.132  14.552   5.296  0.5427  0.7857  0.2759
  120bbb    H16 3624   3.267  14.546   5.411  1.2992  2.4114 -3.9761
  120bbb     C9 3625   3.167  14.632   5.939  0.2262 -0.6844  0.6921
  120bbb    H17 3626   3.107  14.623   6.030  0.4433 -0.5376  0.8491
  120bbb    H18 3627   3.124  14.711   5.876  0.8051 -0.6946  0.2796
  120bbb     O1 3628   2.566  14.361   5.729 -0.5236  0.1483 -0.4988
  120bbb    H19 3629   2.963  14.648   5.726  0.6687  0.5116 -0.5816
  121bbb     N1 3630   1.926  14.366   6.249  0.8416 -0.0127 -0.1174
  121bbb     C1 3631   1.789  14.350   6.173  0.5146  0.6803 -0.0244
  121bbb     H1 3632   1.753  14.452   6.182  0.2482  0.7602 -1.6466
  121bbb     H2 3633   1.722  14.292   6.236  1.3561 -2.2073 -1.5963
  121bbb     C2 3634   1.997  14.501   6.226  0.1311 -0.2554 -0.2552
  121bbb     H3 3635   1.939  14.583   6.268 -1.3125 -0.8192 -1.0752
  121bbb     H4 3636   1.996  14.518   6.118 -0.0957  0.1133 -0.1966
  121bbb     C3 3637   1.896  14.333   6.393 -0.3191  0.0736 -0.6179
  121bbb     H5 3638   1.811  14.389   6.431 -1.3300 -2.0629  0.4679
  121bbb     H6 3639   1.985  14.366   6.446 -1.3382 -1.1843  2.0621
  121bbb     C4 3640   1.890  14.188   6.434  0.4790 -0.3264  0.3066
  121bbb     H7 3641   1.803  14.143   6.385  0.7641 -0.0784 -0.4518
  121bbb     H8 3642   1.868  14.184   6.541  0.3818 -0.1673  0.2933
  121bbb     C5 3643   1.801  14.299   6.029 -0.1060  0.3545 -0.7357
  121bbb     H9 3644   1.868  14.360   5.968 -0.5716  3.8355  1.8993
  121bbb    H10 3645   1.702  14.301   5.982  0.2638  2.0078 -1.5276
  121bbb     C6 3646   2.138  14.490   6.276  0.1810  0.3935 -0.5160
  121bbb    H11 3647   2.190  14.401   6.239  0.1912 -0.0879  0.6389
  121bbb    H12 3648   2.134  14.483   6.385 -0.0050  1.9506 -0.3944
  121bbb     C7 3649   2.022  14.104   6.419 -0.2800 -0.1056 -0.3767
  121bbb    H13 3650   2.005  14.000   6.447  0.5443 -0.4910 -1.2443
  121bbb    H14 3651   2.089  14.153   6.491 -0.8610 -0.8085  0.6592
  121bbb     C8 3652   2.216  14.610   6.238 -0.5339  0.1451 -0.9457
  121bbb    H15 3653   2.320  14.595   6.269  0.1046 -1.0393 -3.4033
  121bbb    H16 3654   2.221  14.620   6.129  0.4986 -1.3673 -1.0610
  121bbb     C9 3655   1.834  14.149   6.021 -0.5197  0.0777  0.2795
  121bbb    H17 3656   1.938  14.122   6.040  0.0239  0.6728 -1.5730
  121bbb    H18 3657   1.813  14.126   5.916 -2.2113 -1.0322  0.8232
  121bbb     O1 3658   2.063  14.118   6.280  0.0285  0.3983  0.8353
  121bbb    H19 3659   1.983  14.282   6.231 -0.5547 -1.5720  2.2262
  122bbb     N1 3660   0.590  12.448   4.782 -0.1251  0.2535  0.1105
  122bbb     C1 3661   0.556  12.340   4.681  0.5203 -0.0768 -0.2120
  122bbb     H1 3662   0.578  12.375   4.579  1.0288 -0.8126 -0.3639
  122bbb     H2 3663   0.451  12.314   4.690  0.7058 -0.4827  0.9406
  122bbb     C2 3664   0.574  12.390   4.923  0.9358 -0.2854  0.2354
  122bbb     H3 3665   0.613  12.458   4.998 -0.2365  2.1462 -1.2200
  122bbb     H4 3666   0.634  12.300   4.935  1.7100  0.3488  1.1779
  122bbb     C3 3667   0.729  12.503   4.767  0.6144 -0.0502 -0.6571
  122bbb     H5 3668   0.788  12.413   4.786  1.2077  0.5760  0.5829
  122bbb     H6 3669   0.737  12.567   4.855 -3.8261  3.1727 -2.2245
  122bbb     C4 3670   0.773  12.583   4.632 -0.5718  0.0832 -0.0988
  122bbb     H7 3671   0.728  12.540   4.542 -2.6983  1.2544  0.3334
  122bbb     H8 3672   0.881  12.565   4.625 -0.8890 -1.2066 -3.4987
  122bbb     C5 3673   0.634  12.207   4.687  0.1341  0.4045 -0.6719
  122bbb     H9 3674   0.623  12.156   4.784  2.2448  0.5512 -0.2949
  122bbb    H10 3675   0.741  12.231   4.682 -0.5086  3.4691 -1.4300
  122bbb     C6 3676   0.430  12.374   4.965 -0.1840  0.2190 -1.0402
  122bbb    H11 3677   0.370  12.301   4.910  0.6009 -0.8349 -0.5193
  122bbb    H12 3678   0.368  12.464   4.952 -1.7413 -0.3404  1.6875
  122bbb     C7 3679   0.736  12.737   4.630 -0.1174  0.4691  0.5061
  122bbb    H13 3680   0.628  12.757   4.622  0.1407  2.3193  1.1955
  122bbb    H14 3681   0.780  12.786   4.543 -3.0639  1.6546 -0.4307
  122bbb     C8 3682   0.425  12.341   5.117  0.9154 -0.6645 -0.2616
  122bbb    H15 3683   0.471  12.420   5.178 -0.3011  0.7775 -1.1424
  122bbb    H16 3684   0.322  12.344   5.155  0.8208 -0.3308 -0.5388
  122bbb     C9 3685   0.603  12.114   4.560 -0.2207  0.1358 -0.1387
  122bbb    H17 3686   0.617  12.163   4.463 -1.5361 -0.7724 -0.8078
  122bbb    H18 3687   0.500  12.081   4.575 -0.4628  1.2440  0.7629
  122bbb     O1 3688   0.772  12.793   4.761 -0.2905  0.2332  0.1255
  122bbb    H19 3689   0.524  12.526   4.770  0.2390  0.5266 -0.1297
  123bbb     N1 3690   0.710  13.376   4.410  0.3057 -0.2191  0.0229
  123bbb     C1 3691   0.842  13.450   4.383  0.4845 -0.0949 -0.1906
  123bbb     H1 3692   0.842  13.533   4.454 -3.4961  0.4688 -0.5858
  123bbb     H2 3693   0.829  13.487   4.282 -0.1162 -1.2777 -0.5693
  123bbb     C2 3694   0.601  13.481   4.406  0.5157  0.0702 -0.0368
  123bbb     H3 3695   0.566  13.471   4.303 -0.6730  2.3948  0.0549
  123bbb     H4 3696   0.642  13.578   4.434 -0.4440  0.6198 -0.4741
  123bbb     C3 3697   0.670  13.281   4.298 -0.2275  0.3904  0.7706
  123bbb     H5 3698   0.719  13.324   4.210  1.3361 -0.1543  1.3615
  123bbb     H6 3699   0.563  13.295   4.280  0.0715  2.3208  0.2103
  123bbb     C4 3700   0.710  13.135   4.306  0.5823  0.4895 -0.2624
  123bbb     H7 3701   0.817  13.119   4.319  0.3631 -0.8548  0.1135
  123bbb     H8 3702   0.694  13.078   4.214 -1.5069 -1.9661  1.4562
  123bbb     C5 3703   0.965  13.366   4.392  0.7638 -0.6723  0.8688
  123bbb     H9 3704   0.954  13.303   4.302 -0.7767  0.3373  0.2961
  123bbb    H10 3705   0.978  13.312   4.486 -1.0840 -1.4075  0.7634
  123bbb     C6 3706   0.490  13.457   4.513 -0.4700 -0.0170  0.2656
  123bbb    H11 3707   0.533  13.461   4.613 -1.5633 -0.5625  0.7743
  123bbb    H12 3708   0.452  13.354   4.513  0.4024 -0.4251  3.2559
  123bbb     C7 3709   0.625  13.059   4.410 -0.0804 -0.0298  0.2468
  123bbb    H13 3710   0.648  12.956   4.380  0.5339  1.5335 -6.1221
  123bbb    H14 3711   0.518  13.078   4.396 -0.2425  0.8892  2.3546
  123bbb     C8 3712   0.387  13.575   4.507  0.0153 -0.4557 -0.3291
  123bbb    H15 3713   0.307  13.561   4.581  0.7183 -1.0494  0.3330
  123bbb    H16 3714   0.442  13.668   4.528  1.7453 -1.8114  1.5355
  123bbb     C9 3715   1.083  13.452   4.375 -0.9835 -0.3417 -0.3156
  123bbb    H17 3716   1.068  13.509   4.283  0.7632  1.3013  0.3591
  123bbb    H18 3717   1.166  13.381   4.371 -0.7625 -0.1653  0.6842
  123bbb     O1 3718   0.665  13.118   4.535  0.0096 -0.5276  0.2493
  123bbb    H19 3719   0.715  13.333   4.504 -2.4978  1.5089  1.1211
  124bbb     N1 3720  -0.130  12.315   6.202  0.4779 -0.5401  0.6921
  124bbb     C1 3721  -0.238  12.392   6.126 -0.1762 -0.2316  0.0028
  124bbb     H1 3722  -0.221  12.386   6.018 -1.7236 -0.2420 -0.2741
  124bbb     H2 3723  -0.220  12.493   6.162  1.0022 -0.9722  1.6054
  124bbb     C2 3724  -0.146  12.167   6.176  0.0511  0.1927  0.0981
  124bbb     H3 3725  -0.250  12.146   6.202  0.5909  0.3694  2.6318
  124bbb     H4 3726  -0.079  12.120   6.248  1.2628  3.8159  1.5666
  124bbb     C3 3727   0.012  12.359   6.168  0.3848 -0.0991 -0.6480
  124bbb     H5 3728   0.029  12.363   6.061  1.8204 -0.4432 -0.4629
  124bbb     H6 3729   0.078  12.299   6.232 -1.4732 -1.0492  0.4688
  124bbb     C4 3730   0.050  12.501   6.221  0.6794 -0.2382  1.0268
  124bbb     H7 3731   0.018  12.506   6.326 -0.5124  0.5732  0.6453
  124bbb     H8 3732  -0.008  12.575   6.164  0.3181 -1.1349  0.1880
  124bbb     C5 3733  -0.387  12.350   6.138  0.2124  0.5209 -0.5753
  124bbb     H9 3734  -0.418  12.361   6.243  2.0573 -2.0456  0.3418
  124bbb    H10 3735  -0.406  12.246   6.109  2.2992  0.0442 -0.3765
  124bbb     C6 3736  -0.107  12.108   6.042  0.3577 -0.2393  0.2821
  124bbb    H11 3737  -0.021  12.164   6.004 -0.1997  0.5905  0.2074
  124bbb    H12 3738  -0.188  12.131   5.971  0.7299 -1.3774 -0.5420
  124bbb     C7 3739   0.198  12.540   6.210  0.1370 -0.8900  0.2730
  124bbb    H13 3740   0.262  12.465   6.258 -1.2143 -0.9010  2.1810
  124bbb    H14 3741   0.218  12.632   6.267  0.5397 -2.0555  2.0961
  124bbb     C8 3742  -0.080  11.956   6.039  0.1688 -0.0849 -0.1648
  124bbb    H15 3743  -0.068  11.923   5.935 -0.0830 -3.1233  0.6632
  124bbb    H16 3744   0.006  11.923   6.099  1.3538 -1.4409 -2.4542
  124bbb     C9 3745  -0.468  12.416   6.024 -0.9292 -0.3162 -0.6072
  124bbb    H17 3746  -0.573  12.386   6.032 -1.6511  1.8292 -1.2579
  124bbb    H18 3747  -0.434  12.378   5.926 -3.2789  1.4363 -2.2019
  124bbb     O1 3748   0.245  12.546   6.070  0.0867 -0.2517  0.5887
  124bbb    H19 3749  -0.146  12.319   6.304  1.3446  0.0753  0.8155
  125bbb     N1 3750   0.123  13.610   6.146 -0.5058 -0.2431  0.2514
  125bbb     C1 3751   0.109  13.759   6.140 -0.1448  0.6907 -0.2556
  125bbb     H1 3752   0.182  13.789   6.215 -1.9422  2.8583  0.7805
  125bbb     H2 3753   0.010  13.786   6.178 -0.1516 -0.8544  0.9314
  125bbb     C2 3754   0.037  13.553   6.032  0.0221 -0.2660  0.7026
  125bbb     H3 3755   0.048  13.444   6.034 -0.9758 -0.3972  3.3633
  125bbb     H4 3756   0.076  13.587   5.936 -2.3141  0.6047 -0.0253
  125bbb     C3 3757   0.268  13.563   6.130 -0.5853 -0.0491 -0.0511
  125bbb     H5 3758   0.328  13.612   6.207 -0.5115  1.3150 -0.9340
  125bbb     H6 3759   0.302  13.596   6.032  3.2060 -0.0744  1.0933
  125bbb     C4 3760   0.297  13.411   6.125  0.0210 -0.1106  0.0183
  125bbb     H7 3761   0.223  13.362   6.061 -1.0784  0.3267  0.9108
  125bbb     H8 3762   0.294  13.362   6.223  0.9288 -1.0861 -0.4322
  125bbb     C5 3763   0.150  13.841   6.017 -0.0723  0.2787  0.1042
  125bbb     H9 3764   0.106  13.789   5.931  0.1973  0.3815 -0.1013
  125bbb    H10 3765   0.260  13.846   6.016 -0.0554  0.6094 -2.1689
  125bbb     C6 3766  -0.112  13.596   6.040 -0.0972  0.0436 -0.7935
  125bbb    H11 3767  -0.124  13.705   6.040 -0.1625  0.0473  0.1643
  125bbb    H12 3768  -0.151  13.573   6.140  0.0586 -0.5379 -0.8651
  125bbb     C7 3769   0.432  13.382   6.067 -0.7455 -0.0930  0.0778
  125bbb    H13 3770   0.502  13.444   6.124  1.9845  0.1160 -3.2397
  125bbb    H14 3771   0.431  13.411   5.962 -1.5350  0.0939  0.1292
  125bbb     C8 3772  -0.206  13.533   5.936 -0.8670 -0.9654  0.6788
  125bbb    H15 3773  -0.208  13.424   5.955 -0.4993 -0.9242  0.9692
  125bbb    H16 3774  -0.308  13.571   5.939 -0.7452 -0.3176 -1.6978
  125bbb     C9 3775   0.092  13.983   6.010  1.0629  0.1117  0.2292
  125bbb    H17 3776   0.120  14.035   5.917 -1.0331 -0.0277 -0.5152
  125bbb    H18 3777   0.114  14.037   6.103 -0.0506 -2.9785  2.4291
  125bbb     O1 3778   0.467  13.240   6.089 -0.5596  0.6109  0.6567
  125bbb    H19 3779   0.077  13.565   6.227  1.7592  0.1244  1.8547
  126ccc     C1 3780   0.053   8.192   4.790 -0.2842 -0.5340 -0.1361
  126ccc     H1 3781  -0.046   8.235   4.805 -0.1626 -0.2633 -0.1178
  126ccc     H2 3782   0.134   8.249   4.836  0.4457 -1.5545 -0.1010
  126ccc     C2 3783   0.090   8.173   4.638 -0.5043  0.1406 -1.0630
  126ccc     H3 3784   0.056   8.075   4.602 -0.4177 -0.8714  1.4115
  126ccc     H4 3785   0.030   8.238   4.573  0.3419  0.3733 -1.6278
  126ccc     C3 3786   0.234   8.206   4.606  0.2963  0.0772 -0.7237
  126ccc     H5 3787   0.251   8.164   4.506  0.8519 -1.5696  0.0256
  126ccc     H6 3788   0.306   8.170   4.680 -1.1120  0.0927  0.7026
  126ccc     N1 3789   0.036   8.060   4.865 -0.2482 -0.1850  0.6641
  126ccc     H7 3790  -0.035   7.999   4.822  0.1403  0.4791 -0.9824
  126ccc     H8 3791   0.121   8.003   4.854 -1.1497 -1.3371 -0.7524
  126ccc     O1 3792   0.243   8.343   4.605  0.2609  0.0412  0.2671
  126ccc    H17 3793   0.020   8.077   4.965 -1.6583 -1.4668  0.7034
  127ccc     C1 3794  -0.336   8.575   4.445  0.6205 -0.3121 -0.0956
  127ccc     H1 3795  -0.270   8.572   4.531  0.1043  2.5496  0.5010
  127ccc     H2 3796  -0.288   8.521   4.364  0.8804  2.4832 -1.9605
  127ccc     C2 3797  -0.345   8.724   4.395  0.2088  0.1065  0.4255
  127ccc     H3 3798  -0.399   8.726   4.300 -1.5645 -2.7162  1.2641
  127ccc     H4 3799  -0.406   8.783   4.464 -1.0946  0.4900 -1.0240
  127ccc     C3 3800  -0.213   8.792   4.378 -0.0576 -0.1920  0.1796
  127ccc     H5 3801  -0.245   8.893   4.352  1.0805  0.3750  0.9291
  127ccc     H6 3802  -0.151   8.745   4.300 -0.0362 -0.1776  0.1885
  127ccc     N1 3803  -0.469   8.510   4.483  0.2866  0.0080 -0.8564
  127ccc     H7 3804  -0.525   8.485   4.400  1.4088 -0.3730 -1.5153
  127ccc     H8 3805  -0.452   8.417   4.525 -0.7978  0.6595  1.1739
  127ccc     O1 3806  -0.140   8.793   4.503 -0.1767 -0.5544 -0.3081
  127ccc    H17 3807  -0.520   8.568   4.552 -2.0907  0.0827 -2.5206
  128ccc     C1 3808   1.368   9.880   5.925 -0.8570  0.1278  1.0583
  128ccc     H1 3809   1.313   9.926   6.007 -1.7115 -1.8403  1.6526
  128ccc     H2 3810   1.378   9.958   5.850  2.3541 -2.2726 -1.2653
  128ccc     C2 3811   1.280   9.768   5.864  0.3588  0.3471  0.0607
  128ccc     H3 3812   1.334   9.724   5.778  2.2200 -0.6753  1.6758
  128ccc     H4 3813   1.280   9.693   5.944  0.2196 -1.1354 -1.2605
  128ccc     C3 3814   1.137   9.802   5.833  1.3785 -0.0565 -0.2752
  128ccc     H5 3815   1.118   9.891   5.773 -0.1175  0.9444  1.5613
  128ccc     H6 3816   1.096   9.813   5.934  1.5550  0.4198 -0.2511
  128ccc     N1 3817   1.502   9.832   5.968  0.5562  0.0315 -0.2612
  128ccc     H7 3818   1.546   9.782   5.890  1.8893  0.2525  0.3237
  128ccc     H8 3819   1.567   9.906   5.998  0.4206  1.4707 -3.1849
  128ccc     O1 3820   1.085   9.682   5.767  0.6024 -0.6878 -0.4618
  128ccc    H17 3821   1.493   9.770   6.050  0.6994  0.5970  0.1902
  129ccc     C1 3822   0.192   9.542   5.892  0.4331  0.2304  0.3718
  129ccc     H1 3823   0.262   9.580   5.966 -2.1463  1.7437  2.1884
  129ccc     H2 3824   0.223   9.439   5.872 -1.7367 -0.8613  2.1079
  129ccc     C2 3825   0.187   9.629   5.764  0.4954 -0.6380 -0.1478
  129ccc     H3 3826   0.107   9.611   5.692 -0.1568  0.2645  0.3333
  129ccc     H4 3827   0.159   9.725   5.810 -1.0112 -1.6489  1.1587
  129ccc     C3 3828   0.322   9.631   5.696  0.2183  0.0945  0.5502
  129ccc     H5 3829   0.393   9.691   5.754 -0.2006  0.1051  1.0582
  129ccc     H6 3830   0.308   9.683   5.600 -3.3692 -0.9005  0.3797
  129ccc     N1 3831   0.058   9.534   5.968  0.0956  0.1665  1.2191
  129ccc     H7 3832  -0.015   9.488   5.911  0.8243  0.1672  0.2637
  129ccc     H8 3833   0.056   9.475   6.053 -0.9398 -3.8288 -1.3147
  129ccc     O1 3834   0.373   9.496   5.680  0.5318 -0.4642  1.0179
  129ccc    H17 3835   0.017   9.625   5.993  1.4060  0.9730  0.5240
  130ccc     C1 3836   0.540   9.468   3.138 -0.1562 -0.0881  0.0659
  130ccc     H1 3837   0.607   9.553   3.142 -1.7115  1.2014 -0.3767
  130ccc     H2 3838   0.438   9.503   3.153 -0.9905 -1.0784 -2.7283
  130ccc     C2 3839   0.562   9.366   3.256  0.2904  0.4868  0.8101
  130ccc     H3 3840   0.470   9.311   3.281 -0.2617  0.1946 -1.6765
  130ccc     H4 3841   0.643   9.297   3.227 -1.5521 -1.2250 -0.5533
  130ccc     C3 3842   0.608   9.439   3.385  0.0737  0.2860 -0.0292
  130ccc     H5 3843   0.709   9.483   3.376 -0.1427  0.4930 -1.8656
  130ccc     H6 3844   0.605   9.363   3.464 -1.9365 -0.9815 -1.2389
  130ccc     N1 3845   0.546   9.410   2.994  0.3470  0.2309 -0.5894
  130ccc     H7 3846   0.497   9.320   2.996 -0.4986  0.6845  1.4070
  130ccc     H8 3847   0.510   9.476   2.923 -3.1935 -1.7707 -0.8535
  130ccc     O1 3848   0.511   9.536   3.417  0.4738 -0.5558 -0.0252
  130ccc    H17 3849   0.643   9.380   2.975  0.2173 -0.6265  0.0946
  131ccc     C1 3850  -0.337   9.185   3.666 -0.3427  0.4402  0.0311
  131ccc     H1 3851  -0.407   9.267   3.682  1.2187  1.6958  0.7029
  131ccc     H2 3852  -0.349   9.120   3.753 -1.5705 -1.7377 -1.6713
  131ccc     C2 3853  -0.196   9.239   3.675 -0.7433 -0.8400 -0.6112
  131ccc     H3 3854  -0.135   9.151   3.654  0.5382 -0.9963  3.1471
  131ccc     H4 3855  -0.194   9.312   3.592  0.3547 -1.8000 -1.4628
  131ccc     C3 3856  -0.150   9.285   3.819  0.1269  0.1455  0.0956
  131ccc     H5 3857  -0.142   9.193   3.880  1.4235  0.0286 -0.2286
  131ccc     H6 3858  -0.229   9.353   3.853  0.1206 -0.3984  1.2213
  131ccc     N1 3859  -0.376   9.124   3.533 -0.0614  0.3242  0.0567
  131ccc     H7 3860  -0.475   9.096   3.533  0.4306 -1.6862  1.6747
  131ccc     H8 3861  -0.368   9.197   3.460 -1.1076 -0.9942 -1.4556
  131ccc     O1 3862  -0.024   9.354   3.797 -0.4780  0.3909  0.6177
  131ccc    H17 3863  -0.314   9.053   3.491  2.5811  3.2958 -1.5742
  132ccc     C1 3864  -0.165  10.974   3.670 -0.2002 -0.4217  0.1029
  132ccc     H1 3865  -0.189  10.871   3.641  1.2106  0.0073 -3.1020
  132ccc     H2 3866  -0.086  11.014   3.606 -1.8010 -1.9871 -3.1112
  132ccc     C2 3867  -0.133  10.955   3.822 -0.1445 -0.7257  0.5550
  132ccc     H3 3868  -0.111  11.054   3.863 -1.5726 -0.1533 -0.0017
  132ccc     H4 3869  -0.218  10.905   3.870  0.3787 -2.5203 -0.3002
  132ccc     C3 3870  -0.011  10.865   3.851  0.0332  0.0989 -0.3217
  132ccc     H5 3871   0.082  10.915   3.822  0.2483 -1.0049 -1.6699
  132ccc     H6 3872  -0.020  10.766   3.805 -0.1408  0.7355 -1.7272
  132ccc     N1 3873  -0.281  11.066   3.656  0.2387 -0.2565 -0.6028
  132ccc     H7 3874  -0.361  11.034   3.713 -0.7856  0.1811 -1.7544
  132ccc     H8 3875  -0.261  11.161   3.689 -2.8765  0.0624  0.7215
  132ccc     O1 3876  -0.007  10.851   3.993 -0.2229  0.5871  0.2972
  132ccc    H17 3877  -0.308  11.071   3.557 -0.4248 -0.1159 -0.4216
  133ccc     C1 3878  -0.240  11.091   4.662  0.5732 -0.4414  0.9562
  133ccc     H1 3879  -0.205  11.104   4.559  1.6677 -0.7575  1.2763
  133ccc     H2 3880  -0.163  11.141   4.722 -0.7815  0.1647  2.2281
  133ccc     C2 3881  -0.268  10.947   4.695 -0.1268 -0.0947  0.5406
  133ccc     H3 3882  -0.341  10.935   4.777  0.1543 -1.0654  0.6653
  133ccc     H4 3883  -0.320  10.909   4.606  1.1624  0.0868 -0.3107
  133ccc     C3 3884  -0.130  10.876   4.733 -0.6305 -0.3929 -0.1967
  133ccc     H5 3885  -0.132  10.767   4.748  0.5207 -0.5287 -0.9166
  133ccc     H6 3886  -0.103  10.928   4.826  0.1566 -0.0984 -0.5862
  133ccc     N1 3887  -0.356  11.185   4.656  0.4117  0.4145  0.4214
  133ccc     H7 3888  -0.341  11.274   4.607  2.2039 -0.4739 -0.7780
  133ccc     H8 3889  -0.437  11.131   4.623  0.5272  0.3376  0.2611
  133ccc     O1 3890  -0.021  10.901   4.639 -0.1253 -0.3773  0.4529
  133ccc    H17 3891  -0.390  11.210   4.750 -0.3260  2.0271 -0.2313
  134ccc     C1 3892   1.394  11.261   3.529  0.3506 -0.4545  0.6377
  134ccc     H1 3893   1.482  11.286   3.588 -0.9972  0.2653  2.4526
  134ccc     H2 3894   1.322  11.212   3.595 -0.6616  1.9962  1.4512
  134ccc     C2 3895   1.432  11.166   3.416 -0.5199 -0.0810 -0.1469
  134ccc     H3 3896   1.350  11.143   3.348  0.8132  0.7659 -2.1304
  134ccc     H4 3897   1.505  11.210   3.347 -1.6434 -0.2304 -1.4596
  134ccc     C3 3898   1.499  11.035   3.478  1.1978 -0.2605  0.4660
  134ccc     H5 3899   1.495  10.968   3.391 -0.1202  1.6056 -0.9947
  134ccc     H6 3900   1.442  10.991   3.560  0.0499 -0.0541 -0.2017
  134ccc     N1 3901   1.339  11.399   3.496  0.6592 -0.0863 -0.3355
  134ccc     H7 3902   1.325  11.460   3.578 -0.6202  2.4204 -2.2641
  134ccc     H8 3903   1.403  11.452   3.435  2.4463 -0.3624  1.1958
  134ccc     O1 3904   1.636  11.063   3.523  0.0582 -0.2239  0.0726
  134ccc    H17 3905   1.246  11.402   3.452  0.0291 -1.6187  0.8031
  135ccc     C1 3906   2.271  11.207   2.758 -0.4829 -0.8092 -0.3902
  135ccc     H1 3907   2.376  11.219   2.786  0.0974 -0.3973 -2.5086
  135ccc     H2 3908   2.247  11.308   2.726  0.8533 -0.8731 -1.7110
  135ccc     C2 3909   2.183  11.165   2.874 -0.9333  0.0749  0.7792
  135ccc     H3 3910   2.083  11.143   2.834 -1.2345 -2.2506  2.5593
  135ccc     H4 3911   2.205  11.072   2.928  0.3483 -0.2471 -0.2733
  135ccc     C3 3912   2.178  11.280   2.981 -0.4860 -0.0840 -0.3035
  135ccc     H5 3913   2.131  11.371   2.941 -0.9424 -0.0245  0.3444
  135ccc     H6 3914   2.282  11.303   3.007 -0.0138 -3.3179  1.2108
  135ccc     N1 3915   2.271  11.123   2.637 -0.6559  0.5346  0.0570
  135ccc     H7 3916   2.311  11.031   2.658 -1.7397  0.5649  2.6268
  135ccc     H8 3917   2.177  11.101   2.600  0.1716 -2.0282 -0.7123
  135ccc     O1 3918   2.114  11.235   3.103  0.2717 -0.2560 -0.2730
  135ccc    H17 3919   2.327  11.169   2.564  1.0943  0.8422  1.5288
  136ccc     C1 3920   0.460  11.172   3.987 -0.3059 -0.4723 -0.7370
  136ccc     H1 3921   0.375  11.197   4.051  0.3919  1.4356 -0.4965
  136ccc     H2 3922   0.426  11.093   3.920 -1.0249 -0.8791  0.0823
  136ccc     C2 3923   0.574  11.132   4.082 -0.7115  0.3387  0.2087
  136ccc     H3 3924   0.616  11.217   4.137  2.4604 -1.5816  1.0260
  136ccc     H4 3925   0.539  11.060   4.157  0.1703 -0.8270 -0.4516
  136ccc     C3 3926   0.694  11.074   4.013 -0.2258 -0.3645  0.1092
  136ccc     H5 3927   0.727  11.158   3.950 -3.6797  0.5334 -0.6831
  136ccc     H6 3928   0.659  10.996   3.945  0.2151  2.0815 -3.1884
  136ccc     N1 3929   0.488  11.288   3.887  0.1962 -0.2589 -0.5806
  136ccc     H7 3930   0.525  11.369   3.938 -1.2772 -1.5542  2.8773
  136ccc     H8 3931   0.567  11.277   3.822  0.2739  2.9210 -1.1873
  136ccc     O1 3932   0.793  11.043   4.105  0.0601 -0.0952  0.0222
  136ccc    H17 3933   0.403  11.314   3.836  0.1319  0.3370 -0.1773
  137ccc     C1 3934   1.280  10.536   4.568  0.0632  0.0679 -0.1291
  137ccc     H1 3935   1.337  10.626   4.542  0.8199  0.0343  1.3219
  137ccc     H2 3936   1.308  10.464   4.491 -0.0570  1.3910 -1.4718
  137ccc     C2 3937   1.132  10.555   4.590  0.6361  0.3044 -0.6227
  137ccc     H3 3938   1.081  10.579   4.495  0.9219 -0.4875 -0.9894
  137ccc     H4 3939   1.089  10.458   4.618 -0.6126  0.0538 -3.0529
  137ccc     C3 3940   1.099  10.671   4.688  0.1177 -0.0494 -0.7308
  137ccc     H5 3941   1.145  10.652   4.785 -1.4321  1.9573  0.4811
  137ccc     H6 3942   0.991  10.681   4.703  0.3533  1.2030  0.3174
  137ccc     N1 3943   1.353  10.479   4.688 -0.7823  0.7670  0.1177
  137ccc     H7 3944   1.319  10.384   4.711 -0.0089  0.9380  2.2324
  137ccc     H8 3945   1.451  10.469   4.658 -0.8026  0.5069  0.1301
  137ccc     O1 3946   1.159  10.793   4.629  0.2968 -0.1249  0.1082
  137ccc    H17 3947   1.354  10.543   4.768 -0.6613  1.4446 -0.4232
  138ccc     C1 3948   1.972   9.558   2.213 -0.2692 -0.7372  0.1527
  138ccc     H1 3949   1.893   9.540   2.140 -1.8382  0.6813  1.4092
  138ccc     H2 3950   1.922   9.550   2.310 -2.0275 -0.5186 -0.7096
  138ccc     C2 3951   2.043   9.693   2.199  0.6452  1.0672  0.4119
  138ccc     H3 3952   2.126   9.693   2.271 -1.1974 -2.4960  2.8312
  138ccc     H4 3953   2.069   9.711   2.094 -0.8174 -1.7291 -0.5151
  138ccc     C3 3954   1.936   9.794   2.253  0.4576  1.0576  0.3306
  138ccc     H5 3955   1.917   9.767   2.358  0.7675 -2.6107 -0.3929
  138ccc     H6 3956   1.841   9.781   2.200 -1.9954  2.1092  4.0452
  138ccc     N1 3957   2.067   9.441   2.212  0.3704 -0.2995 -0.2536
  138ccc     H7 3958   2.116   9.425   2.122 -0.8589  0.0147 -1.0096
  138ccc     H8 3959   2.134   9.447   2.290 -0.9549  0.1020  0.8923
  138ccc     O1 3960   1.991   9.924   2.247 -0.2221  0.4164  0.4568
  138ccc    H17 3961   2.004   9.362   2.231  1.5633 -1.0366  0.7059
  139ccc     C1 3962   2.442   9.872   1.862 -1.0375  0.2824 -0.7515
  139ccc     H1 3963   2.419   9.970   1.904  1.1742 -0.1027  1.6251
  139ccc     H2 3964   2.353   9.830   1.816 -0.2962 -1.6979 -0.4776
  139ccc     C2 3965   2.487   9.772   1.970  0.2590 -0.5082 -0.1004
  139ccc     H3 3966   2.514   9.675   1.925  0.2656 -0.6807  0.2720
  139ccc     H4 3967   2.577   9.810   2.020 -1.4980  0.1705  2.8063
  139ccc     C3 3968   2.365   9.755   2.070  0.3110 -0.5105  0.1645
  139ccc     H5 3969   2.383   9.683   2.151 -1.3001 -1.2453 -0.0951
  139ccc     H6 3970   2.274   9.724   2.018 -0.3438 -1.8810  2.0244
  139ccc     N1 3971   2.531   9.900   1.746  0.2779 -0.7957 -0.2223
  139ccc     H7 3972   2.554   9.819   1.686  0.2202  0.9265 -2.7471
  139ccc     H8 3973   2.495   9.979   1.689  1.5970  0.5587  0.7334
  139ccc     O1 3974   2.335   9.885   2.137  0.2011 -0.1688 -0.4058
  139ccc    H17 3975   2.621   9.941   1.773 -0.2615  2.1388 -2.3391
  140ccc     C1 3976   0.930  10.410   2.022 -0.9654  0.3652  0.3008
  140ccc     H1 3977   0.957  10.451   1.925  1.8307  0.6937  1.1300
  140ccc     H2 3978   0.962  10.481   2.099 -1.5561  0.2415  0.6630
  140ccc     C2 3979   1.019  10.290   2.042 -0.7036 -0.5500  0.3643
  140ccc     H3 3980   0.989  10.216   1.968 -1.4452  0.1918 -0.0839
  140ccc     H4 3981   1.123  10.319   2.022 -0.8935  0.3880  0.6632
  140ccc     C3 3982   1.002  10.235   2.181  0.1312  0.3675 -0.9194
  140ccc     H5 3983   1.046  10.135   2.195  0.3969  0.7742  1.5422
  140ccc     H6 3984   0.897  10.222   2.213  0.7036 -1.3311  0.4578
  140ccc     N1 3985   0.781  10.381   2.018  0.4326  1.0850  0.1828
  140ccc     H7 3986   0.728  10.467   1.999 -1.0687  0.4735  1.3225
  140ccc     H8 3987   0.751  10.309   1.950  1.5667 -0.4086  1.2112
  140ccc     O1 3988   1.075  10.325   2.266 -0.6250 -0.3345 -0.4692
  140ccc    H17 3989   0.749  10.340   2.107 -1.0057  1.1589 -0.2749
  141ccc     C1 3990   1.575  10.957   2.615  0.2675  0.0904  0.6208
  141ccc     H1 3991   1.623  11.017   2.692  0.8088  0.4579  0.0021
  141ccc     H2 3992   1.535  10.861   2.647 -1.1760 -0.5036 -2.5162
  141ccc     C2 3993   1.673  10.949   2.493  0.8908 -0.1138  0.0780
  141ccc     H3 3994   1.696  11.055   2.477  1.1131 -0.1262  0.3199
  141ccc     H4 3995   1.760  10.888   2.521  0.6974 -1.0122 -1.1474
  141ccc     C3 3996   1.616  10.883   2.364  0.5529 -0.0349 -0.6747
  141ccc     H5 3997   1.692  10.890   2.285 -0.5128  2.2602 -1.6218
  141ccc     H6 3998   1.536  10.947   2.324  1.7996  0.3244 -2.7680
  141ccc     N1 3999   1.449  11.030   2.581 -0.2148  0.1491  0.3328
  141ccc     H7 4000   1.466  11.110   2.519  1.7970  0.2128  0.8756
  141ccc     H8 4001   1.382  10.963   2.541 -1.7739  2.5265 -1.2488
  141ccc     O1 4002   1.570  10.763   2.410 -0.5408  0.1229 -0.0954
  141ccc    H17 4003   1.414  11.074   2.667 -0.5547 -0.5856  0.5814
  142ccc     C1 4004   4.569   8.844   2.596 -0.4982  0.5753  0.2229
  142ccc     H1 4005   4.488   8.848   2.670 -0.2105 -1.0523  0.6538
  142ccc     H2 4006   4.624   8.754   2.623  1.2440  1.3490 -0.5678
  142ccc     C2 4007   4.659   8.966   2.617  0.0541 -0.7499 -0.6437
  142ccc     H3 4008   4.716   8.956   2.710  0.7532  0.9244 -0.8636
  142ccc     H4 4009   4.741   8.960   2.544 -1.0801 -0.5631 -1.9765
  142ccc     C3 4010   4.583   9.110   2.628 -0.2870  0.1737 -0.4172
  142ccc     H5 4011   4.545   9.140   2.530  0.5872  1.1394 -0.4713
  142ccc     H6 4012   4.656   9.188   2.651  0.1244 -0.1680 -0.5421
  142ccc     N1 4013   4.516   8.840   2.459  0.1292  0.0780 -0.1336
  142ccc     H7 4014   4.439   8.908   2.448 -0.7147 -0.5464  1.6423
  142ccc     H8 4015   4.593   8.861   2.394 -0.3150  1.5113 -0.2347
  142ccc     O1 4016   4.489   9.119   2.732  0.3730 -0.1232  0.1591
  142ccc    H17 4017   4.484   8.743   2.445  2.0893 -0.6618  0.3054
  143ccc     C1 4018   4.511   8.829   3.770 -0.1347 -0.3861 -0.2479
  143ccc     H1 4019   4.489   8.887   3.860 -1.5783  0.2194 -0.9464
  143ccc     H2 4020   4.615   8.815   3.741 -0.5189 -1.7148 -1.0750
  143ccc     C2 4021   4.440   8.900   3.654  0.4526 -0.0053 -0.1494
  143ccc     H3 4022   4.437   8.834   3.566  1.9105 -0.5732  0.1993
  143ccc     H4 4023   4.335   8.912   3.683  0.6431 -0.9429  1.0177
  143ccc     C3 4024   4.508   9.029   3.618 -0.3941 -0.6758 -0.4110
  143ccc     H5 4025   4.606   9.004   3.575  0.2918  2.2235 -0.7861
  143ccc     H6 4026   4.519   9.090   3.708 -1.3323  1.3132 -1.5730
  143ccc     N1 4027   4.457   8.689   3.789 -0.3211  0.0642  0.0060
  143ccc     H7 4028   4.523   8.630   3.842 -0.1685 -1.1002 -1.4331
  143ccc     H8 4029   4.362   8.695   3.828 -1.6981 -1.1099 -2.8726
  143ccc     O1 4030   4.428   9.098   3.518  0.1274  0.1349 -0.6259
  143ccc    H17 4031   4.439   8.645   3.698 -0.4774  1.5593 -0.7212
  144ccc     C1 4032   3.868   8.541   2.605 -0.5413 -0.0942 -0.1133
  144ccc     H1 4033   3.865   8.646   2.635 -0.7521 -0.0418 -0.3176
  144ccc     H2 4034   3.906   8.524   2.504 -1.0122 -2.9450  0.0948
  144ccc     C2 4035   3.720   8.499   2.583 -0.8574  0.4606  0.6970
  144ccc     H3 4036   3.713   8.393   2.557  2.0805  0.2951  0.2778
  144ccc     H4 4037   3.655   8.500   2.671 -1.1033 -2.3013  0.6339
  144ccc     C3 4038   3.641   8.580   2.476 -0.2974  0.9814  0.0167
  144ccc     H5 4039   3.677   8.543   2.379  1.9298 -0.9744  1.4689
  144ccc     H6 4040   3.651   8.688   2.491 -0.3763  0.9458  0.3362
  144ccc     N1 4041   3.930   8.446   2.709 -0.8673 -0.3733 -0.0327
  144ccc     H7 4042   3.926   8.347   2.682 -0.4545 -0.5201  0.4429
  144ccc     H8 4043   4.029   8.470   2.718 -0.5310 -1.0677 -1.5085
  144ccc     O1 4044   3.506   8.542   2.491  0.6371 -0.5838  0.1984
  144ccc    H17 4045   3.890   8.457   2.803  2.2636 -0.7885  1.4665
  145ccc     C1 4046   2.631   8.492   2.520  0.1266 -0.0659  0.2187
  145ccc     H1 4047   2.664   8.400   2.569 -0.9968 -0.9184 -0.5702
  145ccc     H2 4048   2.715   8.528   2.459  0.1793  1.6481  1.2377
  145ccc     C2 4049   2.581   8.596   2.627  0.0520  0.3257 -0.6303
  145ccc     H3 4050   2.552   8.692   2.583  2.8122  1.4219 -0.2579
  145ccc     H4 4051   2.493   8.563   2.683  0.6589  0.2447  0.3111
  145ccc     C3 4052   2.699   8.623   2.721  0.4370  0.5512  0.2352
  145ccc     H5 4053   2.757   8.534   2.748  1.4419  0.6282 -1.5770
  145ccc     H6 4054   2.639   8.661   2.805  0.1026  2.8278 -0.9581
  145ccc     N1 4055   2.523   8.456   2.425 -0.3316 -0.0856 -0.1783
  145ccc     H7 4056   2.446   8.523   2.440  1.7199  2.3862 -0.1390
  145ccc     H8 4057   2.555   8.464   2.327 -0.7686  0.8257 -0.2539
  145ccc     O1 4058   2.782   8.726   2.664  0.5455 -0.1279  0.4930
  145ccc    H17 4059   2.493   8.357   2.435 -1.5356  0.0173 -2.2161
  146ccc     C1 4060   4.787  10.376   4.359 -0.2610 -0.0065  0.5883
  146ccc     H1 4061   4.805  10.277   4.400 -2.4563 -0.4887  0.5041
  146ccc     H2 4062   4.690  10.417   4.389 -0.7492 -1.6680  1.3700
  146ccc     C2 4063   4.790  10.370   4.201  0.0704 -0.0196 -0.1775
  146ccc     H3 4064   4.758  10.467   4.161 -1.2588  1.0358  3.0838
  146ccc     H4 4065   4.891  10.346   4.166 -0.4712 -1.0221 -1.1147
  146ccc     C3 4066   4.711  10.251   4.143  0.5621 -0.5918  0.4981
  146ccc     H5 4067   4.604  10.270   4.162  0.0276 -2.9493  0.1038
  146ccc     H6 4068   4.747  10.161   4.194  1.2312 -0.4703  0.2518
  146ccc     N1 4069   4.902  10.456   4.411 -0.6295 -0.1791  0.1212
  146ccc     H7 4070   4.920  10.538   4.351 -1.7629 -0.5474 -0.7419
  146ccc     H8 4071   4.882  10.482   4.509  0.2010 -2.7843  1.0633
  146ccc     O1 4072   4.747  10.242   4.006  0.5493  0.0499  0.1799
  146ccc    H17 4073   4.985  10.395   4.414  0.9468  1.7231 -1.8354
  147ccc     C1 4074   5.282  10.671   3.391 -0.3167  0.5826 -0.3093
  147ccc     H1 4075   5.224  10.732   3.460 -2.2557 -0.5911 -0.8122
  147ccc     H2 4076   5.214  10.630   3.315 -0.7315 -1.0767  0.8972
  147ccc     C2 4077   5.335  10.549   3.464 -0.0248 -0.5335  0.0848
  147ccc     H3 4078   5.398  10.485   3.401 -0.2496  0.2917 -1.0248
  147ccc     H4 4079   5.398  10.591   3.544  0.8403 -2.1809  0.3070
  147ccc     C3 4080   5.225  10.475   3.536 -0.3461 -0.8705 -0.2222
  147ccc     H5 4081   5.189  10.538   3.617 -1.7209 -1.9950  0.0886
  147ccc     H6 4082   5.263  10.382   3.580  0.1042 -0.6851 -0.2147
  147ccc     N1 4083   5.385  10.763   3.328 -0.0421  0.4344  0.2603
  147ccc     H7 4084   5.350  10.846   3.277  1.8950  0.7877 -0.6096
  147ccc     H8 4085   5.459  10.782   3.396  0.0328 -0.4026  0.4155
  147ccc     O1 4086   5.110  10.461   3.452 -0.4670 -0.1118 -0.4844
  147ccc    H17 4087   5.446  10.713   3.261  0.2796  0.2056  0.7218
  148ccc     C1 4088   3.318  11.334   3.146 -0.1349  0.3682  0.1173
  148ccc     H1 4089   3.373  11.410   3.201  0.0733  0.5559 -0.3447
  148ccc     H2 4090   3.377  11.242   3.157  0.6704  0.8902  0.2790
  148ccc     C2 4091   3.317  11.390   2.997  0.4075 -0.5819  0.3217
  148ccc     H3 4092   3.265  11.324   2.927 -2.8115  0.3669  1.6355
  148ccc     H4 4093   3.273  11.490   2.988  2.5113  0.2554 -1.7593
  148ccc     C3 4094   3.464  11.408   2.935 -0.2962  0.9915  1.0093
  148ccc     H5 4095   3.528  11.474   2.994  0.4846  0.1415  1.1356
  148ccc     H6 4096   3.462  11.437   2.829 -0.8348 -0.8374  0.4852
  148ccc     N1 4097   3.182  11.308   3.211  0.4262 -0.4546  0.4271
  148ccc     H7 4098   3.131  11.396   3.197  1.4602  0.0052 -0.6288
  148ccc     H8 4099   3.120  11.240   3.165  0.3934 -0.4548  0.4733
  148ccc     O1 4100   3.525  11.274   2.940 -0.0901 -0.1961 -0.0015
  148ccc    H17 4101   3.189  11.296   3.313 -3.2623  1.6952  1.1222
  149ccc     C1 4102   4.364  10.874   3.170 -0.0054 -0.3488 -0.1710
  149ccc     H1 4103   4.382  10.770   3.198 -0.7772 -0.3670  0.3025
  149ccc     H2 4104   4.257  10.896   3.161 -0.0403 -0.5401 -0.2366
  149ccc     C2 4105   4.425  10.897   3.030 -0.3602 -0.6293 -0.5153
  149ccc     H3 4106   4.534  10.901   3.038 -0.4169 -0.9477  0.5606
  149ccc     H4 4107   4.405  10.807   2.969 -1.3251 -1.1260  0.4938
  149ccc     C3 4108   4.365  11.026   2.961 -0.2557 -0.5585 -0.5046
  149ccc     H5 4109   4.393  11.038   2.856  1.0739 -2.0240 -0.3435
  149ccc     H6 4110   4.416  11.108   3.013  0.3261 -1.4292  0.3322
  149ccc     N1 4111   4.419  10.969   3.272 -0.3926 -0.3013  0.1393
  149ccc     H7 4112   4.427  10.927   3.365  0.9375 -1.2921 -0.3763
  149ccc     H8 4113   4.510  11.011   3.247 -0.0191 -1.3586 -0.3721
  149ccc     O1 4114   4.222  11.037   2.973  0.0912 -0.8448 -0.0329
  149ccc    H17 4115   4.359  11.052   3.273  0.0232  0.0047 -0.0257
  150ccc     C1 4116   3.199   8.453   5.581  0.2885  0.2363  0.2214
  150ccc     H1 4117   3.096   8.436   5.613 -0.3721 -0.0562 -1.8898
  150ccc     H2 4118   3.204   8.414   5.479 -1.9187 -1.1926  0.5775
  150ccc     C2 4119   3.305   8.385   5.669 -0.2661  0.1954 -0.0147
  150ccc     H3 4120   3.401   8.433   5.650 -0.0420 -0.8201 -1.5646
  150ccc     H4 4121   3.275   8.378   5.775  0.5983  2.9778  0.4992
  150ccc     C3 4122   3.328   8.246   5.616 -0.1553 -0.7591  1.0382
  150ccc     H5 4123   3.234   8.190   5.614 -0.9057  0.4598  0.6606
  150ccc     H6 4124   3.393   8.182   5.677  1.9680  0.6960  0.4173
  150ccc     N1 4125   3.225   8.603   5.559 -0.1262  0.0481 -0.2008
  150ccc     H7 4126   3.158   8.670   5.599  0.9968  0.5550  0.8989
  150ccc     H8 4127   3.319   8.626   5.595 -0.1727 -0.1606  0.0601
  150ccc     O1 4128   3.372   8.255   5.467  0.5338  0.2636 -0.0774
  150ccc    H17 4129   3.229   8.617   5.457  0.4338 -1.5478 -0.4262
  151ccc     C1 4130   2.479   7.322   5.504  0.4323 -0.6882  0.5684
  151ccc     H1 4131   2.491   7.269   5.409 -1.0495 -0.0087 -0.0418
  151ccc     H2 4132   2.370   7.328   5.500  0.4118 -0.4506  1.3781
  151ccc     C2 4133   2.526   7.468   5.491  0.0212  0.1547 -0.2080
  151ccc     H3 4134   2.509   7.504   5.389 -0.8816 -1.8419 -0.8148
  151ccc     H4 4135   2.466   7.530   5.558  0.2567  0.9641 -0.7323
  151ccc     C3 4136   2.678   7.482   5.520 -0.6218 -0.2658  0.4856
  151ccc     H5 4137   2.734   7.422   5.447  3.2551  3.8202 -0.3838
  151ccc     H6 4138   2.703   7.459   5.624 -0.6034  2.5393  1.1980
  151ccc     N1 4139   2.517   7.244   5.619  0.0884  0.0274  0.0020
  151ccc     H7 4140   2.614   7.210   5.614  0.0607 -0.1931  0.9216
  151ccc     H8 4141   2.516   7.301   5.705 -0.3910 -0.1581  0.1212
  151ccc     O1 4142   2.721   7.616   5.491 -0.6322  0.1502  0.1705
  151ccc    H17 4143   2.447   7.170   5.632 -0.4143  0.3982 -0.5070
  152ccc     C1 4144   4.001   7.916   4.953  0.0018 -0.2495 -0.2304
  152ccc     H1 4145   3.921   7.985   4.979 -1.0158 -1.7024  0.6592
  152ccc     H2 4146   4.066   7.972   4.886  1.4640 -1.3979  0.1512
  152ccc     C2 4147   3.968   7.784   4.884 -0.1375  0.7576  0.0237
  152ccc     H3 4148   4.060   7.743   4.842 -0.0857  1.5929 -0.7002
  152ccc     H4 4149   3.934   7.706   4.954  0.9597  2.0325  2.0756
  152ccc     C3 4150   3.864   7.800   4.769 -1.0032  0.2004 -0.2310
  152ccc     H5 4151   3.912   7.879   4.711  1.6725 -0.6486  0.7115
  152ccc     H6 4152   3.765   7.814   4.814 -0.6447  1.8047  0.1144
  152ccc     N1 4153   4.065   7.885   5.082 -0.2790 -0.3609 -0.5516
  152ccc     H7 4154   4.008   7.827   5.145 -0.1268  0.4612  0.3681
  152ccc     H8 4155   4.153   7.834   5.065 -1.4469 -2.3120 -1.1357
  152ccc     O1 4156   3.860   7.684   4.682  0.0521 -0.4060 -0.3003
  152ccc    H17 4157   4.087   7.968   5.140  1.3827 -3.8674  4.5775
  153ccc     C1 4158   3.799   6.764   4.380  0.3835  0.1399  0.5305
  153ccc     H1 4159   3.723   6.742   4.304  0.0198 -0.8600  1.1628
  153ccc     H2 4160   3.783   6.857   4.435  1.4712 -0.7593  2.4542
  153ccc     C2 4161   3.934   6.777   4.315 -0.3451 -0.1437 -0.8698
  153ccc     H3 4162   4.010   6.773   4.394 -0.1992  0.7888 -0.9470
  153ccc     H4 4163   3.965   6.699   4.245  1.8316 -0.3610  0.2712
  153ccc     C3 4164   3.954   6.919   4.243  0.1224  0.6334  0.3211
  153ccc     H5 4165   3.921   6.919   4.139 -1.9711 -2.5784  0.8212
  153ccc     H6 4166   4.061   6.942   4.243 -0.4440  3.6788  0.6681
  153ccc     N1 4167   3.781   6.650   4.480  0.0110 -0.0054 -0.1658
  153ccc     H7 4168   3.838   6.677   4.562  0.0390 -2.5869  0.7402
  153ccc     H8 4169   3.682   6.641   4.510 -0.1360  0.0068 -0.6512
  153ccc     O1 4170   3.885   7.018   4.321  0.2926  0.3058  0.3394
  153ccc    H17 4171   3.820   6.566   4.437 -0.8653 -0.7266  0.3944
  154ccc     C1 4172   1.790   7.751   2.512 -0.7746  0.4329 -0.7501
  154ccc     H1 4173   1.855   7.720   2.430  0.1899 -2.4425  0.9687
  154ccc     H2 4174   1.776   7.859   2.501  0.8227  0.8754  0.9706
  154ccc     C2 4175   1.870   7.726   2.642 -0.4390  0.2019  0.2518
  154ccc     H3 4176   1.862   7.620   2.670  1.8028  0.5132  2.4677
  154ccc     H4 4177   1.976   7.738   2.614 -0.9016 -0.4375 -1.9700
  154ccc     C3 4178   1.832   7.827   2.747  0.6182  0.1128 -0.3279
  154ccc     H5 4179   1.825   7.928   2.705 -0.3086  1.0660  1.9880
  154ccc     H6 4180   1.911   7.823   2.823  0.1690 -1.0369  0.0807
  154ccc     N1 4181   1.652   7.694   2.509  0.1928 -0.1320  0.1804
  154ccc     H7 4182   1.612   7.716   2.416 -1.0402  0.7981  0.8942
  154ccc     H8 4183   1.654   7.591   2.513  0.6765 -0.1259  0.1872
  154ccc     O1 4184   1.710   7.792   2.813  0.0552  0.1651  0.3096
  154ccc    H17 4185   1.593   7.740   2.580  0.9273  0.8972  0.1513
  155ccc     C1 4186   0.781   7.865   2.995  0.6377  0.1890  0.1348
  155ccc     H1 4187   0.731   7.949   2.946  1.2221 -0.5657 -1.8502
  155ccc     H2 4188   0.710   7.819   3.064  1.4869 -0.1686  0.7833
  155ccc     C2 4189   0.898   7.914   3.083 -1.2393 -0.4004 -0.2604
  155ccc     H3 4190   0.975   7.951   3.014 -0.4416 -0.1954  0.7085
  155ccc     H4 4191   0.867   7.997   3.147  2.2584  1.8162 -1.1173
  155ccc     C3 4192   0.982   7.812   3.167  0.2524  1.0255  0.4121
  155ccc     H5 4193   1.016   7.729   3.105  0.9634 -1.2193  3.5810
  155ccc     H6 4194   0.917   7.776   3.248 -1.9340  0.7244 -1.3793
  155ccc     N1 4195   0.811   7.757   2.892  0.8778  0.0401 -0.1563
  155ccc     H7 4196   0.870   7.795   2.817  1.1676  2.4426  1.1934
  155ccc     H8 4197   0.861   7.688   2.949  0.9118  2.3254  2.8538
  155ccc     O1 4198   1.098   7.880   3.212 -0.0452 -0.1722  0.1272
  155ccc    H17 4199   0.731   7.712   2.844 -0.2009 -0.9919  2.4220
  156ccc     C1 4200   2.119   7.928   4.351 -0.5718 -1.1367 -0.4864
  156ccc     H1 4201   2.112   7.975   4.253  0.8115 -0.3275 -0.2255
  156ccc     H2 4202   2.186   7.842   4.342  0.9212  0.0063 -0.8228
  156ccc     C2 4203   1.981   7.886   4.397 -0.3404  0.9808  1.1994
  156ccc     H3 4204   1.990   7.803   4.467  1.4533 -0.3356 -0.4779
  156ccc     H4 4205   1.921   7.967   4.440 -0.4616  0.0926  2.7844
  156ccc     C3 4206   1.904   7.826   4.282 -0.1547 -0.2687 -0.0215
  156ccc     H5 4207   1.886   7.905   4.208 -0.1449 -1.0102 -0.8416
  156ccc     H6 4208   1.803   7.791   4.306  0.0622 -1.0588 -0.2194
  156ccc     N1 4209   2.191   8.022   4.441 -0.0335 -0.4716  0.0620
  156ccc     H7 4210   2.141   8.111   4.457  0.8725  0.5557 -2.2996
  156ccc     H8 4211   2.216   7.983   4.533 -1.3163  0.1955  0.7162
  156ccc     O1 4212   1.983   7.720   4.235 -0.0307  0.1372  0.0457
  156ccc    H17 4213   2.284   8.048   4.403  0.8675 -2.2242  0.9578
  157ccc     C1 4214   2.114   6.863   3.913  0.6722  0.2164 -0.0084
  157ccc     H1 4215   2.031   6.794   3.924  0.8983  0.0469  0.7594
  157ccc     H2 4216   2.132   6.904   4.013  3.8963 -2.3025  0.6290
  157ccc     C2 4217   2.090   6.979   3.809  0.0832 -0.2946 -0.5572
  157ccc     H3 4218   2.178   7.041   3.792 -1.8790  2.1467 -2.7041
  157ccc     H4 4219   2.059   6.945   3.709 -0.3427  2.1257 -1.3248
  157ccc     C3 4220   1.962   7.064   3.843  0.4421 -0.1816  0.2406
  157ccc     H5 4221   1.959   7.098   3.947 -0.9116  0.0840  0.1368
  157ccc     H6 4222   1.867   7.014   3.824 -2.1919  4.1354  0.7033
  157ccc     N1 4223   2.225   6.775   3.879 -0.3249  0.1496 -0.0697
  157ccc     H7 4224   2.218   6.691   3.939 -1.3667  0.9681  1.0168
  157ccc     H8 4225   2.231   6.733   3.785  1.1537  0.9424 -0.3553
  157ccc     O1 4226   1.978   7.184   3.763 -0.0555 -0.4120  1.0718
  157ccc    H17 4227   2.320   6.811   3.896 -0.8562  1.9585 -0.7079
  158ccc     C1 4228   3.592   8.600   8.546  0.6674  0.1479 -0.0310
  158ccc     H1 4229   3.578   8.496   8.514 -1.0332  0.4455 -0.3379
  158ccc     H2 4230   3.498   8.647   8.575  0.6046 -0.3577  0.6288
  158ccc     C2 4231   3.666   8.685   8.443  0.2014  0.8688 -0.3529
  158ccc     H3 4232   3.600   8.693   8.356  0.9688  1.7615 -0.8766
  158ccc     H4 4233   3.679   8.788   8.479 -1.4659  0.5183  1.4359
  158ccc     C3 4234   3.798   8.625   8.404 -0.5422  0.4020  0.3340
  158ccc     H5 4235   3.782   8.517   8.388 -0.1263 -0.1116  2.9736
  158ccc     H6 4236   3.879   8.641   8.475  0.8533  0.8104 -1.2840
  158ccc     N1 4237   3.680   8.581   8.667 -0.1009  0.5057  0.0329
  158ccc     H7 4238   3.632   8.538   8.747 -0.0221  0.8626  0.2758
  158ccc     H8 4239   3.764   8.524   8.651 -1.0276 -0.3748 -2.1411
  158ccc     O1 4240   3.829   8.679   8.276  0.7772  0.4766 -0.0875
  158ccc    H17 4241   3.712   8.676   8.693 -1.3616  0.7868  0.6384
  159ccc     C1 4242   3.487   8.266   7.517  0.0139 -0.0114  0.3347
  159ccc     H1 4243   3.445   8.219   7.428  1.8632  1.4628 -1.4293
  159ccc     H2 4244   3.416   8.319   7.581 -0.7887  1.2828 -1.5385
  159ccc     C2 4245   3.588   8.379   7.457 -0.0455 -0.1799 -0.4763
  159ccc     H3 4246   3.667   8.330   7.399  2.8311  1.0173  2.1620
  159ccc     H4 4247   3.541   8.445   7.383 -1.2691  1.0777  1.3481
  159ccc     C3 4248   3.647   8.463   7.570  0.2267  0.0031  0.3184
  159ccc     H5 4249   3.720   8.539   7.539  0.4361 -0.1144  0.5251
  159ccc     H6 4250   3.695   8.396   7.642  0.8934  1.9823  1.8118
  159ccc     N1 4251   3.556   8.161   7.586 -0.2853  0.1215  0.4795
  159ccc     H7 4252   3.590   8.193   7.678  0.0302  0.4520  0.2484
  159ccc     H8 4253   3.491   8.081   7.591 -0.7939  0.5222  0.4566
  159ccc     O1 4254   3.537   8.510   7.647  0.2429 -0.2859 -0.2443
  159ccc    H17 4255   3.636   8.131   7.529  0.1905  1.5904  0.3236
  160ccc     C1 4256   2.401   8.585   8.846 -0.7115  0.1113  0.9140
  160ccc     H1 4257   2.480   8.651   8.809  0.0221 -1.6262 -0.8055
  160ccc     H2 4258   2.443   8.485   8.836  2.8472  1.5494 -0.2068
  160ccc     C2 4259   2.275   8.585   8.752 -0.3612 -0.1111 -0.0214
  160ccc     H3 4260   2.200   8.514   8.788 -0.5885 -1.3178 -2.6558
  160ccc     H4 4261   2.221   8.681   8.758  0.3771  0.4397 -1.5360
  160ccc     C3 4262   2.295   8.550   8.604  0.0951 -0.3492  0.6379
  160ccc     H5 4263   2.206   8.578   8.547 -0.2417 -2.5518  0.0018
  160ccc     H6 4264   2.312   8.442   8.594 -1.4443 -0.4528 -1.7237
  160ccc     N1 4265   2.375   8.627   8.985 -0.0286 -0.2482  0.0862
  160ccc     H7 4266   2.455   8.639   9.048 -0.5759  1.0458  0.5719
  160ccc     H8 4267   2.320   8.713   8.994 -2.1716 -1.4719 -0.5118
  160ccc     O1 4268   2.410   8.610   8.549  0.1585 -0.1245 -0.1411
  160ccc    H17 4269   2.319   8.562   9.042 -1.0905  2.5767  2.5082
  161ccc     C1 4270   2.876   8.366   7.693  0.0958  0.2989  0.0674
  161ccc     H1 4271   2.948   8.284   7.696  0.6889  0.8144  0.2619
  161ccc     H2 4272   2.930   8.435   7.628  1.6760 -2.0305 -1.2131
  161ccc     C2 4273   2.843   8.420   7.835  0.1081 -0.3471 -0.1862
  161ccc     H3 4274   2.820   8.527   7.834 -1.0901 -0.5223  2.4548
  161ccc     H4 4275   2.751   8.373   7.871  0.8687  0.5726  3.2523
  161ccc     C3 4276   2.966   8.405   7.926  0.3292 -1.0054 -0.1988
  161ccc     H5 4277   3.051   8.450   7.873 -0.4010 -0.1665 -0.6886
  161ccc     H6 4278   2.992   8.301   7.948  0.2238 -0.7989  0.9598
  161ccc     N1 4279   2.760   8.307   7.614  0.4137  0.2016 -0.1596
  161ccc     H7 4280   2.790   8.311   7.515  0.9189  2.4981  0.0227
  161ccc     H8 4281   2.740   8.211   7.645  1.4112  0.4381  1.3155
  161ccc     O1 4282   2.945   8.484   8.043  0.0102  0.4200 -0.2766
  161ccc    H17 4283   2.678   8.369   7.606  0.3556  0.1741  0.1972
  162ccc     C1 4284   2.956  10.041   8.802  0.5105 -0.6497 -0.1236
  162ccc     H1 4285   2.997   9.944   8.829 -0.8046 -0.4384  3.1075
  162ccc     H2 4286   2.892  10.031   8.714  0.2367  2.5566 -0.3880
  162ccc     C2 4287   3.077  10.142   8.778  0.5759  0.1537 -0.1688
  162ccc     H3 4288   3.121  10.102   8.686  2.9896 -3.1969  2.1928
  162ccc     H4 4289   3.039  10.244   8.761  0.6034  0.3374  0.8083
  162ccc     C3 4290   3.172  10.137   8.897 -0.1774  0.2043  0.3092
  162ccc     H5 4291   3.121  10.143   8.994 -0.3714  1.4348  0.1498
  162ccc     H6 4292   3.238  10.225   8.894 -0.1598  0.1991 -2.7022
  162ccc     N1 4293   2.853  10.084   8.912 -0.9384  0.4490  0.6631
  162ccc     H7 4294   2.767  10.029   8.896  0.1018 -0.5290 -2.1177
  162ccc     H8 4295   2.889  10.067   9.007  1.4737 -1.4630 -0.4760
  162ccc     O1 4296   3.246  10.017   8.885 -0.9284 -0.4366  0.0753
  162ccc    H17 4297   2.840  10.186   8.909 -0.1013  0.5439  0.0541
  163ccc     C1 4298   3.875   9.519   9.487  0.3773 -0.8653  0.1811
  163ccc     H1 4299   3.775   9.551   9.458  1.3957  0.5682 -1.9921
  163ccc     H2 4300   3.914   9.587   9.563  0.9566 -0.5479 -0.3871
  163ccc     C2 4301   3.972   9.526   9.370 -0.1751 -0.4003  0.1027
  163ccc     H3 4302   4.015   9.626   9.359 -0.4309 -0.0580  1.8834
  163ccc     H4 4303   4.057   9.464   9.401 -0.5098 -0.4552  0.9413
  163ccc     C3 4304   3.919   9.487   9.228 -1.1629  0.7163 -0.3223
  163ccc     H5 4305   3.915   9.377   9.227  1.3045  0.5483  0.8348
  163ccc     H6 4306   3.995   9.510   9.151 -1.9819 -1.1202 -1.7688
  163ccc     N1 4307   3.866   9.387   9.543 -0.5123  0.7788  0.4509
  163ccc     H7 4308   3.853   9.310   9.475 -0.2145  0.7737  0.3966
  163ccc     H8 4309   3.957   9.360   9.582  0.9903  2.7208 -1.4417
  163ccc     O1 4310   3.797   9.556   9.205  0.0743 -0.2520 -0.0547
  163ccc    H17 4311   3.800   9.376   9.621 -0.7206  2.2698  0.5186
  164ccc     C1 4312   4.258   9.992   8.021  1.0422 -0.8116  0.5186
  164ccc     H1 4313   4.247   9.911   7.950 -2.9783 -1.9086  2.1048
  164ccc     H2 4314   4.253   9.950   8.121  1.1704  1.1980  1.4257
  164ccc     C2 4315   4.126  10.072   7.986  0.1545  0.4075  0.4585
  164ccc     H3 4316   4.124  10.090   7.878  1.4041 -1.2526  0.1099
  164ccc     H4 4317   4.035  10.018   8.015 -0.6580  0.1149 -2.3380
  164ccc     C3 4318   4.112  10.210   8.066 -0.8434  0.2845  0.2949
  164ccc     H5 4319   4.012  10.254   8.054 -0.2222  1.4010 -1.1586
  164ccc     H6 4320   4.176  10.283   8.014  1.1961 -2.4843 -1.3829
  164ccc     N1 4321   4.388  10.070   8.001  0.2892  0.3860  0.0719
  164ccc     H7 4322   4.408  10.140   8.073 -2.1742  1.7035 -0.4253
  164ccc     H8 4323   4.464  10.002   8.015  0.1004  0.3340  0.8398
  164ccc     O1 4324   4.149  10.205   8.200  0.3496 -0.4031  0.1656
  164ccc    H17 4325   4.379  10.102   7.903 -1.5258 -2.8605 -0.9693
  165ccc     C1 4326   3.708  10.883   8.753 -0.0751  0.1208 -0.2889
  165ccc     H1 4327   3.689  10.776   8.763 -3.3964  0.3255 -2.7761
  165ccc     H2 4328   3.728  10.902   8.647  1.4882  2.6514  0.3842
  165ccc     C2 4329   3.823  10.937   8.838  0.9111  0.5503 -0.1072
  165ccc     H3 4330   3.818  11.046   8.833 -0.6113  0.5426  0.7379
  165ccc     H4 4331   3.813  10.896   8.939 -0.7432  0.5916 -0.2294
  165ccc     C3 4332   3.950  10.888   8.775 -0.5936 -0.3499  0.3628
  165ccc     H5 4333   4.031  10.907   8.848  0.0048  1.6665 -0.7434
  165ccc     H6 4334   3.979  10.936   8.681  0.4878  1.4420  1.5425
  165ccc     N1 4335   3.581  10.942   8.779 -0.5034  0.1790 -0.2891
  165ccc     H7 4336   3.550  10.933   8.876  0.3554  0.9225  0.0666
  165ccc     H8 4337   3.581  11.042   8.754 -1.7542  0.1477 -0.5048
  165ccc     O1 4338   3.932  10.744   8.743 -0.5110 -0.0065  0.1305
  165ccc    H17 4339   3.502  10.903   8.725 -0.7871  0.9777 -0.4633
  166ccc     C1 4340   1.598  11.419   6.729 -0.7365  0.1121 -0.2975
  166ccc     H1 4341   1.501  11.382   6.763  0.4022 -2.2531  0.6081
  166ccc     H2 4342   1.654  11.334   6.690  1.5798  0.9589  0.9587
  166ccc     C2 4343   1.673  11.472   6.853 -0.3168  0.3701  0.0443
  166ccc     H3 4344   1.773  11.509   6.824 -0.2354  2.5000  2.6247
  166ccc     H4 4345   1.608  11.552   6.890 -2.1958  0.3532 -2.9392
  166ccc     C3 4346   1.691  11.364   6.957  0.2468 -0.0631  0.7235
  166ccc     H5 4347   1.592  11.355   7.003  0.6095 -2.7541  1.1300
  166ccc     H6 4348   1.765  11.396   7.032  0.7339  0.7404 -0.0779
  166ccc     N1 4349   1.581  11.524   6.626 -0.1350  0.0462 -0.6864
  166ccc     H7 4350   1.525  11.603   6.662  2.0063  1.3183  0.0348
  166ccc     H8 4351   1.670  11.565   6.594 -1.1459  1.7297 -1.4723
  166ccc     O1 4352   1.727  11.240   6.895 -0.8002 -0.2197 -0.6567
  166ccc    H17 4353   1.533  11.486   6.544 -1.0951  1.5391 -0.8558
  167ccc     C1 4354   1.874  10.888   6.013 -0.1828  0.2149  0.1035
  167ccc     H1 4355   1.892  10.986   5.970 -0.8912  0.2915 -0.0354
  167ccc     H2 4356   1.784  10.900   6.074 -0.9207 -1.8660 -0.4841
  167ccc     C2 4357   2.000  10.835   6.087  0.2932 -0.2871  0.1483
  167ccc     H3 4358   1.997  10.727   6.103 -0.0254  0.2096  5.0042
  167ccc     H4 4359   2.086  10.862   6.024 -1.6525  2.4660 -1.5431
  167ccc     C3 4360   2.024  10.903   6.223 -0.3055 -0.1591 -0.2844
  167ccc     H5 4361   2.023  11.011   6.204  0.4212 -0.2626 -0.9371
  167ccc     H6 4362   2.121  10.874   6.267 -1.3507 -1.0877  1.5371
  167ccc     N1 4363   1.837  10.793   5.902 -0.3803  0.4149 -0.0123
  167ccc     H7 4364   1.839  10.694   5.930  1.7414  0.7638  1.2618
  167ccc     H8 4365   1.742  10.819   5.870 -0.3864 -0.0646 -0.4004
  167ccc     O1 4366   1.914  10.875   6.309  0.0507  0.2858 -0.2798
  167ccc    H17 4367   1.905  10.808   5.827 -0.3088  1.1852  0.1959
  168ccc     C1 4368   2.172  10.953   7.406  0.4674 -0.2045  0.0591
  168ccc     H1 4369   2.156  10.854   7.449 -0.2645  0.0372  0.3594
  168ccc     H2 4370   2.244  10.947   7.324  0.9227  1.4655  0.3112
  168ccc     C2 4371   2.212  11.044   7.521  0.0461  0.0708 -0.5644
  168ccc     H3 4372   2.228  11.144   7.479 -1.2860 -0.4254 -2.3622
  168ccc     H4 4373   2.132  11.049   7.596 -1.1434  0.7426 -1.8431
  168ccc     C3 4374   2.338  10.988   7.602  0.4621 -0.7503  0.5076
  168ccc     H5 4375   2.357  11.054   7.687  0.4972 -2.1690  1.6404
  168ccc     H6 4376   2.414  10.990   7.523 -0.2441  0.1306 -0.1762
  168ccc     N1 4377   2.035  10.985   7.355 -0.1321  0.0807  0.1440
  168ccc     H7 4378   2.028  11.072   7.299 -0.6289  0.1449  0.2978
  168ccc     H8 4379   2.004  10.903   7.301 -0.8018  0.8913 -0.7576
  168ccc     O1 4380   2.316  10.852   7.643 -0.3760 -0.6074 -0.2706
  168ccc    H17 4381   1.966  10.992   7.431  0.1057  2.1045  0.2397
  169ccc     C1 4382   2.049  10.095   8.465  0.6449 -0.1472 -0.0579
  169ccc     H1 4383   2.066  10.013   8.396  2.6320 -2.0099  2.4694
  169ccc     H2 4384   1.997  10.181   8.421 -0.6570 -0.6086  0.5145
  169ccc     C2 4385   2.186  10.134   8.525  0.7693 -0.5441 -0.8158
  169ccc     H3 4386   2.153  10.175   8.621 -2.2621  0.8702 -2.3165
  169ccc     H4 4387   2.233  10.039   8.552 -0.0721 -1.5635 -2.6785
  169ccc     C3 4388   2.277  10.227   8.443  0.0105  0.4720 -0.3759
  169ccc     H5 4389   2.346  10.169   8.380  1.9495  1.6876  0.5420
  169ccc     H6 4390   2.333  10.294   8.509  0.9748  0.4330 -1.1309
  169ccc     N1 4391   1.955  10.028   8.567 -0.0718  0.4973  0.8530
  169ccc     H7 4392   1.959  10.081   8.655 -0.7258  0.2113  1.0636
  169ccc     H8 4393   1.854  10.028   8.544  0.1057 -0.2264 -0.0036
  169ccc     O1 4394   2.198  10.310   8.359  0.3293  0.5622  0.2433
  169ccc    H17 4395   1.976   9.928   8.582  1.0435  0.4596 -0.7270
  170ccc     C1 4396   1.832   8.135   6.779  0.0850 -0.0879  0.3173
  170ccc     H1 4397   1.729   8.149   6.811  0.6683  0.8259  1.8912
  170ccc     H2 4398   1.910   8.185   6.837  1.8850  0.3207 -2.2426
  170ccc     C2 4399   1.838   8.192   6.637 -0.1913  0.2827 -0.6309
  170ccc     H3 4400   1.939   8.167   6.603 -0.8397 -0.7711 -1.8488
  170ccc     H4 4401   1.774   8.131   6.571  2.0268 -3.0465  0.0353
  170ccc     C3 4402   1.796   8.338   6.631  0.2903 -0.4189 -0.4151
  170ccc     H5 4403   1.799   8.387   6.533  0.7677  2.5964  1.0129
  170ccc     H6 4404   1.867   8.393   6.693 -0.0660  0.3179 -0.6536
  170ccc     N1 4405   1.856   7.988   6.785  0.2502 -0.5525  0.2362
  170ccc     H7 4406   1.789   7.948   6.719  0.2626 -0.6213  0.2650
  170ccc     H8 4407   1.951   7.957   6.761  0.6120  1.4320 -1.1125
  170ccc     O1 4408   1.659   8.346   6.674 -0.0012 -0.1649 -0.0570
  170ccc    H17 4409   1.835   7.950   6.879 -0.5794 -1.7227 -0.4021
  171ccc     C1 4410   1.444   8.909   7.534  0.6606  0.3220 -0.1964
  171ccc     H1 4411   1.364   8.929   7.605 -0.8394  0.2827 -1.7823
  171ccc     H2 4412   1.410   8.928   7.432  1.2450 -2.5785 -1.0295
  171ccc     C2 4413   1.477   8.755   7.525 -0.3510 -0.7225 -0.1369
  171ccc     H3 4414   1.573   8.755   7.472 -0.9850 -0.8136 -1.2965
  171ccc     H4 4415   1.492   8.712   7.625 -3.2540  0.5862  0.9767
  171ccc     C3 4416   1.374   8.673   7.455  0.0356  0.0283 -0.2242
  171ccc     H5 4417   1.274   8.677   7.501  0.2160 -1.7077  0.3885
  171ccc     H6 4418   1.400   8.566   7.457  0.1992  0.0742  0.5319
  171ccc     N1 4419   1.551   8.997   7.568  0.1237 -0.3888 -0.4066
  171ccc     H7 4420   1.631   8.985   7.504  0.7789 -2.4948  0.7418
  171ccc     H8 4421   1.524   9.097   7.569  0.3195 -0.3326  1.3776
  171ccc     O1 4422   1.360   8.718   7.319  0.1914 -0.7456  0.3001
  171ccc    H17 4423   1.595   8.986   7.660 -0.8909  0.9555  0.2837
  172ccc     C1 4424   0.367  10.052   7.141 -0.2188  0.1665 -0.2148
  172ccc     H1 4425   0.456  10.107   7.170 -0.3030  0.2112 -0.0416
  172ccc     H2 4426   0.381   9.946   7.159 -0.2272  0.2537  0.3262
  172ccc     C2 4427   0.348  10.080   6.990 -0.1212 -0.2202  0.0979
  172ccc     H3 4428   0.253  10.031   6.966  0.3085 -0.2039 -1.7287
  172ccc     H4 4429   0.331  10.186   6.966  0.4275 -0.1200  0.1294
  172ccc     C3 4430   0.463  10.029   6.896 -0.0308  0.2355 -0.1352
  172ccc     H5 4431   0.552  10.085   6.930 -1.1926  1.8961  0.2956
  172ccc     H6 4432   0.454  10.053   6.789  3.3324 -0.4319 -0.6832
  172ccc     N1 4433   0.257  10.104   7.239 -0.0580 -0.2768 -0.3044
  172ccc     H7 4434   0.168  10.054   7.224 -0.4394  0.5408 -0.8862
  172ccc     H8 4435   0.282  10.086   7.337  1.4470 -0.3692 -0.6683
  172ccc     O1 4436   0.479   9.885   6.915 -0.0459 -0.0828  0.0719
  172ccc    H17 4437   0.232  10.204   7.239  1.2384  0.0837 -1.4746
  173ccc     C1 4438   0.566   9.122   7.623  0.8720 -0.2533  0.2881
  173ccc     H1 4439   0.481   9.168   7.674  2.1636  1.2867  1.1518
  173ccc     H2 4440   0.654   9.176   7.659  1.0984 -0.4102 -0.0233
  173ccc     C2 4441   0.550   9.125   7.471  0.2636 -0.2079 -0.0517
  173ccc     H3 4442   0.620   9.054   7.426  1.6772  0.0724  1.6312
  173ccc     H4 4443   0.449   9.093   7.443 -0.2870  0.0217  1.5854
  173ccc     C3 4444   0.584   9.264   7.421  0.1064 -0.3870 -0.5246
  173ccc     H5 4445   0.693   9.280   7.427  0.1353 -0.4306 -0.9355
  173ccc     H6 4446   0.521   9.337   7.472  0.9243 -1.0564  1.5996
  173ccc     N1 4447   0.586   8.985   7.681 -0.0842 -0.0727  0.2127
  173ccc     H7 4448   0.665   8.939   7.633 -0.8493  0.2102 -1.3850
  173ccc     H8 4449   0.602   8.986   7.783  2.5032  1.3646 -0.1348
  173ccc     O1 4450   0.554   9.270   7.283  0.2655 -0.4170 -0.4457
  173ccc    H17 4451   0.499   8.930   7.674 -0.8507  1.0070  0.9084
  174ccc     C1 4452   6.407   9.988   3.929  0.8595 -0.1197  0.3868
  174ccc     H1 4453   6.349  10.076   3.900 -0.2105 -0.8879  0.1248
  174ccc     H2 4454   6.399   9.924   3.841  1.6537  1.7578 -1.1067
  174ccc     C2 4455   6.344   9.922   4.055 -0.5776  0.7364  0.7361
  174ccc     H3 4456   6.235   9.930   4.050 -0.7840 -1.4686  0.6894
  174ccc     H4 4457   6.370   9.816   4.048  0.9179  1.1831 -1.8048
  174ccc     C3 4458   6.394   9.979   4.194 -0.1365 -1.1195  0.6161
  174ccc     H5 4459   6.386  10.088   4.197  0.3187 -1.0390 -0.7529
  174ccc     H6 4460   6.494   9.935   4.208  0.6897  0.5991  0.3614
  174ccc     N1 4461   6.549  10.029   3.926 -0.4925 -0.4030  0.4120
  174ccc     H7 4462   6.621   9.960   3.950  2.8303  2.1195 -1.3845
  174ccc     H8 4463   6.573  10.073   3.836  1.9464 -0.7212  0.8281
  174ccc     O1 4464   6.315   9.940   4.305 -0.1536 -0.2329 -0.1091
  174ccc    H17 4465   6.562  10.114   3.983 -0.2495  1.1433 -1.8236
  175ccc     C1 4466   6.403  10.530   5.188  0.0295  0.2958  0.2504
  175ccc     H1 4467   6.431  10.498   5.288 -0.2380  0.8672  0.5151
  175ccc     H2 4468   6.300  10.566   5.182 -0.0076  0.2422  0.5634
  175ccc     C2 4469   6.428  10.417   5.085 -0.5222 -0.5917  0.6911
  175ccc     H3 4470   6.356  10.428   5.003  1.7203 -3.0004 -1.8082
  175ccc     H4 4471   6.529  10.437   5.046  0.3306  0.1262  3.0525
  175ccc     C3 4472   6.416  10.279   5.160  0.0765  0.0272  0.8658
  175ccc     H5 4473   6.317  10.268   5.205 -0.1745  1.6501  0.7599
  175ccc     H6 4474   6.492  10.274   5.239  0.0923  0.2941  0.8681
  175ccc     N1 4475   6.474  10.656   5.156 -0.2462 -0.0107 -0.1436
  175ccc     H7 4476   6.575  10.641   5.169 -0.3755 -0.1639  0.7674
  175ccc     H8 4477   6.473  10.696   5.061  1.9158  1.6835  0.4550
  175ccc     O1 4478   6.453  10.178   5.063  0.1073 -0.1392 -0.4547
  175ccc    H17 4479   6.459  10.733   5.222 -0.8935 -0.6339  0.4575
  176ccc     C1 4480   4.444   9.640   4.747 -0.0867 -0.3641  0.1479
  176ccc     H1 4481   4.511   9.564   4.787 -0.2134 -0.4784  0.1473
  176ccc     H2 4482   4.347   9.596   4.721  0.0614 -0.3880 -0.3812
  176ccc     C2 4483   4.492   9.700   4.622 -0.6079  0.2477 -0.4439
  176ccc     H3 4484   4.415   9.774   4.597  0.6334  1.2538 -1.4056
  176ccc     H4 4485   4.584   9.757   4.637 -1.8958  2.5166 -0.7592
  176ccc     C3 4486   4.520   9.598   4.506  0.1935  0.5466  0.4395
  176ccc     H5 4487   4.557   9.651   4.417  1.5374 -1.3294 -0.1829
  176ccc     H6 4488   4.430   9.544   4.477  1.6021 -0.5574 -2.2022
  176ccc     N1 4489   4.429   9.736   4.859  0.1538 -0.2683  0.4827
  176ccc     H7 4490   4.520   9.769   4.893  0.6543 -0.6213 -0.4778
  176ccc     H8 4491   4.377   9.820   4.829 -0.7513 -0.9297  0.1554
  176ccc     O1 4492   4.614   9.504   4.548 -0.6085 -0.5459 -0.5019
  176ccc    H17 4493   4.373   9.695   4.935 -2.9832  4.3402  1.0873
  177ccc     C1 4494   5.148   8.808   4.202 -0.0884 -0.5317  0.6528
  177ccc     H1 4495   5.230   8.864   4.157 -0.1718 -0.8181  0.1385
  177ccc     H2 4496   5.081   8.765   4.128 -1.1953 -0.1165  1.3716
  177ccc     C2 4497   5.078   8.907   4.303  0.1469  0.1772  0.2697
  177ccc     H3 4498   5.054   8.990   4.235 -0.3040 -1.7333 -2.0327
  177ccc     H4 4499   4.988   8.867   4.351  1.3866  0.3141  2.8905
  177ccc     C3 4500   5.174   8.954   4.415  0.3514  0.0173  1.1235
  177ccc     H5 4501   5.247   9.019   4.364 -1.2424 -0.6289 -2.2717
  177ccc     H6 4502   5.235   8.871   4.453  0.1132 -0.7704 -0.1447
  177ccc     N1 4503   5.216   8.702   4.280 -0.0298 -0.2321 -0.1933
  177ccc     H7 4504   5.257   8.625   4.224 -0.0169 -0.0221 -0.4746
  177ccc     H8 4505   5.294   8.746   4.331 -1.5044  0.5111  1.5075
  177ccc     O1 4506   5.106   8.994   4.534  0.0518  0.0080  0.2128
  177ccc    H17 4507   5.153   8.649   4.342 -1.4011  2.1486  0.5374
  178ccc     C1 4508   5.982   9.902   6.162 -0.3392 -0.3580 -0.3224
  178ccc     H1 4509   6.001   9.837   6.248  0.3664 -1.0631 -0.9961
  178ccc     H2 4510   5.874   9.914   6.172 -0.8635 -4.8191  1.9557
  178ccc     C2 4511   6.031   9.822   6.034  0.0279  0.3891 -0.2554
  178ccc     H3 4512   6.004   9.878   5.943  2.0985  0.8087 -0.6624
  178ccc     H4 4513   6.140   9.824   6.026  0.1360 -1.7883  0.0693
  178ccc     C3 4514   5.995   9.676   6.022  0.3873  0.1895 -0.3525
  178ccc     H5 4515   6.045   9.633   5.934  2.2219 -0.9772  1.1780
  178ccc     H6 4516   5.887   9.660   6.016  0.0188  2.1917  0.4162
  178ccc     N1 4517   6.057  10.029   6.190  0.0293 -0.0618  0.2902
  178ccc     H7 4518   6.039  10.050   6.290  0.0722 -0.8062  0.4594
  178ccc     H8 4519   6.157  10.025   6.167  0.1381  1.1881  0.4621
  178ccc     O1 4520   6.049   9.619   6.140 -0.2714 -0.1346  0.4034
  178ccc    H17 4521   6.032  10.107   6.128 -1.4560 -1.8137 -1.4150
  179ccc     C1 4522   6.786   9.251   6.874 -0.6136 -0.1521  0.3647
  179ccc     H1 4523   6.822   9.148   6.863 -0.4686  0.0268 -1.0520
  179ccc     H2 4524   6.677   9.256   6.864 -0.5471 -1.4731 -1.6342
  179ccc     C2 4525   6.840   9.343   6.752  0.1455 -0.0058 -0.6633
  179ccc     H3 4526   6.787   9.439   6.747 -0.2478 -0.2959 -3.8985
  179ccc     H4 4527   6.945   9.366   6.775  0.2873  0.1830 -1.4729
  179ccc     C3 4528   6.855   9.272   6.617 -0.3306  0.5767  0.6081
  179ccc     H5 4529   6.918   9.185   6.637 -0.2255  0.6757  0.7089
  179ccc     H6 4530   6.906   9.334   6.542 -1.3835 -1.3957 -1.8592
  179ccc     N1 4531   6.803   9.288   7.013 -0.3217 -0.3194 -0.6647
  179ccc     H7 4532   6.903   9.285   7.036 -0.5986 -0.3296  0.6022
  179ccc     H8 4533   6.768   9.385   7.020 -1.8279 -0.9434  1.0759
  179ccc     O1 4534   6.728   9.229   6.571 -0.0361 -0.3350 -0.1578
  179ccc    H17 4535   6.748   9.232   7.080  0.2719  0.2054  0.2868
  180ccc     C1 4536   5.890   8.327   7.495  0.7109 -0.2524  0.5305
  180ccc     H1 4537   5.850   8.304   7.396 -0.1496  1.1427  0.5269
  180ccc     H2 4538   5.805   8.352   7.559  1.5970 -0.0988  1.6979
  180ccc     C2 4539   5.981   8.442   7.503 -0.6372  0.1330 -0.0746
  180ccc     H3 4540   5.986   8.481   7.606  1.6550  0.2536 -0.1831
  180ccc     H4 4541   6.081   8.414   7.468 -0.9790 -0.0062 -0.9778
  180ccc     C3 4542   5.943   8.552   7.405 -0.1138  0.3650 -0.2648
  180ccc     H5 4543   6.002   8.644   7.416  0.3629  0.2110 -1.3444
  180ccc     H6 4544   5.837   8.582   7.410  0.4830  2.6078  0.3068
  180ccc     N1 4545   5.944   8.199   7.556 -0.5588 -0.4715  0.1179
  180ccc     H7 4546   5.881   8.119   7.542 -1.0643 -0.2246  0.8822
  180ccc     H8 4547   6.037   8.173   7.521  0.8078  3.1192  0.6603
  180ccc     O1 4548   5.966   8.503   7.272  0.3448 -0.7656 -0.2952
  180ccc    H17 4549   5.954   8.224   7.656  0.9576 -1.5700  0.2672
  181ccc     C1 4550   6.705   8.179   7.258 -0.5456 -0.3725 -0.0189
  181ccc     H1 4551   6.598   8.174   7.240 -0.9152  1.4553  1.3818
  181ccc     H2 4552   6.720   8.160   7.364  0.4306  2.2429  0.3962
  181ccc     C2 4553   6.747   8.327   7.235 -0.0202 -0.3523 -0.0864
  181ccc     H3 4554   6.693   8.399   7.298  0.6381 -0.0755  0.1653
  181ccc     H4 4555   6.854   8.331   7.259  0.2021  0.6783 -1.1558
  181ccc     C3 4556   6.742   8.377   7.087  0.2574  0.0448  0.8405
  181ccc     H5 4557   6.792   8.302   7.024  0.3897  1.4998 -0.8832
  181ccc     H6 4558   6.804   8.466   7.071  0.0811  0.0777  0.3139
  181ccc     N1 4559   6.781   8.075   7.179  1.2026 -0.1470  0.2398
  181ccc     H7 4560   6.742   7.980   7.180  0.4581  0.1391 -0.8263
  181ccc     H8 4561   6.781   8.088   7.077  0.3656  1.1593  0.3893
  181ccc     O1 4562   6.603   8.399   7.047  0.2801  0.2678 -0.0993
  181ccc    H17 4563   6.879   8.068   7.211  0.8594 -0.2643  1.3185
  182ccc     C1 4564   4.503   8.360   7.316  0.3732 -0.0550  0.7545
  182ccc     H1 4565   4.501   8.360   7.426 -0.0931 -0.1785  0.7489
  182ccc     H2 4566   4.567   8.436   7.273  1.9477 -2.0376 -0.5854
  182ccc     C2 4567   4.359   8.376   7.265 -0.0615 -0.3436  0.3482
  182ccc     H3 4568   4.366   8.420   7.165  0.3278 -0.2084  0.4298
  182ccc     H4 4569   4.301   8.284   7.252 -3.3109  1.6570 -0.4819
  182ccc     C3 4570   4.274   8.467   7.358 -0.3367 -0.4071 -0.6144
  182ccc     H5 4571   4.271   8.429   7.461 -2.8263  1.1865 -0.0080
  182ccc     H6 4572   4.173   8.462   7.315 -1.0387 -0.7010  1.0058
  182ccc     N1 4573   4.567   8.232   7.274  0.1342  0.1395  0.4478
  182ccc     H7 4574   4.660   8.218   7.317  1.7378  1.5412 -2.3032
  182ccc     H8 4575   4.514   8.149   7.303  1.1388 -1.4535 -1.9733
  182ccc     O1 4576   4.327   8.608   7.353  0.1581 -0.0869  0.5398
  182ccc    H17 4577   4.579   8.231   7.172  0.6394 -0.7830  0.5054
  183ccc     C1 4578   3.893   8.690   6.577 -0.8539 -0.5141 -0.2954
  183ccc     H1 4579   3.937   8.707   6.479 -1.7816 -1.4646 -0.9060
  183ccc     H2 4580   3.816   8.766   6.589  1.5217  1.9124  0.5855
  183ccc     C2 4581   3.995   8.728   6.689 -0.6732 -0.4564  0.3677
  183ccc     H3 4582   3.956   8.704   6.789 -0.2092  2.0181  1.2175
  183ccc     H4 4583   4.086   8.670   6.666 -1.2371 -1.3083  0.2280
  183ccc     C3 4584   4.021   8.885   6.693 -0.3948 -0.4869 -0.1374
  183ccc     H5 4585   3.922   8.931   6.704 -0.5774 -1.3136  2.3105
  183ccc     H6 4586   4.070   8.928   6.604 -2.0302  0.1316 -0.7703
  183ccc     N1 4587   3.840   8.557   6.576  0.2596 -0.2547 -0.0424
  183ccc     H7 4588   3.921   8.506   6.539  0.3221  0.2282 -0.5843
  183ccc     H8 4589   3.813   8.524   6.670  0.7057 -0.3038  0.0688
  183ccc     O1 4590   4.092   8.915   6.813 -0.4273  0.2284  0.0798
  183ccc    H17 4591   3.761   8.536   6.514  0.1587 -0.7746  0.2563
  184ccc     C1 4592   6.226   8.585   8.174  0.5765 -0.6079  0.2890
  184ccc     H1 4593   6.214   8.596   8.066  0.5015  0.1333  0.3654
  184ccc     H2 4594   6.294   8.500   8.178 -0.4232 -1.4185  0.3255
  184ccc     C2 4595   6.088   8.542   8.228 -0.0650  0.4735  0.2998
  184ccc     H3 4596   6.076   8.437   8.197  0.6734  0.6181 -0.5339
  184ccc     H4 4597   6.079   8.537   8.337  2.1522 -1.1508  0.4854
  184ccc     C3 4598   5.979   8.640   8.170 -0.6996  0.1833 -0.2392
  184ccc     H5 4599   6.000   8.746   8.191  0.5020 -0.0315 -0.2951
  184ccc     H6 4600   5.881   8.622   8.216 -0.5351 -0.3849 -0.0975
  184ccc     N1 4601   6.278   8.719   8.221  0.1745 -0.5880 -0.0664
  184ccc     H7 4602   6.278   8.721   8.324 -1.8530 -0.9195 -0.0192
  184ccc     H8 4603   6.373   8.732   8.182 -0.8860 -0.5028 -2.8002
  184ccc     O1 4604   5.968   8.618   8.028 -0.7877  0.3790  0.3278
  184ccc    H17 4605   6.233   8.805   8.188  0.2789  0.2980  1.9482
  185ccc     C1 4606   6.403   9.169   8.213  0.8066 -0.8832  0.3600
  185ccc     H1 4607   6.352   9.108   8.138  0.9094  1.4434 -1.6958
  185ccc     H2 4608   6.411   9.128   8.314  1.3371  3.1605  2.1271
  185ccc     C2 4609   6.357   9.318   8.220 -0.6483  1.0428  0.3115
  185ccc     H3 4610   6.430   9.364   8.287  1.3942 -0.9131 -0.4698
  185ccc     H4 4611   6.369   9.352   8.117 -0.4491 -2.8089 -1.0864
  185ccc     C3 4612   6.210   9.325   8.261  0.4621  0.1270  0.0997
  185ccc     H5 4613   6.184   9.431   8.249  2.0669  0.5435  0.0625
  185ccc     H6 4614   6.189   9.289   8.362 -3.2213 -0.0232 -0.5825
  185ccc     N1 4615   6.546   9.160   8.168  0.2392 -0.1412  0.4144
  185ccc     H7 4616   6.610   9.220   8.222 -0.8561  2.2687 -0.7985
  185ccc     H8 4617   6.581   9.063   8.163  0.2550 -0.1164  0.0166
  185ccc     O1 4618   6.132   9.243   8.168 -0.2005 -0.4790  0.1835
  185ccc    H17 4619   6.556   9.193   8.071 -1.1379 -0.0094  0.3003
  186ccc     C1 4620   6.351  10.233   6.522  0.5660 -0.2281 -0.3338
  186ccc     H1 4621   6.327  10.218   6.416  1.4461  1.1753 -0.7665
  186ccc     H2 4622   6.273  10.303   6.551  0.4750 -0.1498 -0.7544
  186ccc     C2 4623   6.485  10.301   6.533  0.5497  0.2763 -0.2766
  186ccc     H3 4624   6.558  10.229   6.495 -1.3065 -0.8128 -2.0092
  186ccc     H4 4625   6.486  10.386   6.463 -1.3291  0.7616  0.2307
  186ccc     C3 4626   6.521  10.355   6.674 -0.8071  0.6055  0.2690
  186ccc     H5 4627   6.609  10.419   6.667  1.2173 -1.8249  1.8660
  186ccc     H6 4628   6.549  10.276   6.745 -0.5396 -1.0243 -1.5475
  186ccc     N1 4629   6.328  10.109   6.605 -0.4675  0.3507  0.0038
  186ccc     H7 4630   6.395  10.034   6.583 -0.5036  0.7413 -1.5729
  186ccc     H8 4631   6.342  10.135   6.703 -1.9223 -1.0965  0.6312
  186ccc     O1 4632   6.409  10.427   6.719 -0.0299 -0.0124 -0.5691
  186ccc    H17 4633   6.230  10.081   6.586 -0.0096  0.0581 -2.2036
  187ccc     C1 4634   6.132  10.685   6.084 -0.3241 -0.0805  0.6186
  187ccc     H1 4635   6.060  10.613   6.123 -0.6346 -0.8686 -1.3113
  187ccc     H2 4636   6.235  10.661   6.113 -0.4435  0.0900  1.1996
  187ccc     C2 4637   6.101  10.822   6.145 -0.4894  0.2234  0.2283
  187ccc     H3 4638   6.198  10.872   6.156 -0.4925  0.4831 -0.7907
  187ccc     H4 4639   6.041  10.890   6.083 -2.0433  0.7861  2.2231
  187ccc     C3 4640   6.034  10.812   6.282  0.2671  1.1320  0.1205
  187ccc     H5 4641   6.074  10.729   6.343 -0.8236 -1.1440 -2.0618
  187ccc     H6 4642   5.932  10.787   6.249  1.5163 -5.3714 -0.3040
  187ccc     N1 4643   6.122  10.669   5.930 -0.7610  0.1750 -0.9981
  187ccc     H7 4644   6.157  10.574   5.912 -1.3640  0.0057 -1.3138
  187ccc     H8 4645   6.032  10.688   5.883 -1.6956 -0.0856  0.6009
  187ccc     O1 4646   6.049  10.939   6.350 -0.1826 -0.1586  0.2336
  187ccc    H17 4647   6.190  10.735   5.891  1.4140 -0.6616  1.1589
  188ccc     C1 4648   6.544  10.910   7.256  0.8961 -0.6153 -0.6865
  188ccc     H1 4649   6.484  10.983   7.202  1.1814 -0.5996 -0.9834
  188ccc     H2 4650   6.503  10.811   7.241  1.3548 -0.4946 -2.9985
  188ccc     C2 4651   6.510  10.951   7.401 -0.4179 -0.3882  0.1518
  188ccc     H3 4652   6.590  10.910   7.464  1.6691 -1.2317 -2.8131
  188ccc     H4 4653   6.510  11.060   7.413 -2.7470 -0.3127 -0.0504
  188ccc     C3 4654   6.375  10.887   7.445  0.2774 -0.0288  0.1259
  188ccc     H5 4655   6.302  10.909   7.366  0.2183 -1.1987 -0.1634
  188ccc     H6 4656   6.348  10.940   7.537  1.0080  1.8409 -0.6885
  188ccc     N1 4657   6.687  10.916   7.215 -0.3771  0.3733 -0.6217
  188ccc     H7 4658   6.704  11.001   7.159 -1.0006  0.4685 -0.6744
  188ccc     H8 4659   6.748  10.915   7.298 -2.0139  1.4320  0.6675
  188ccc     O1 4660   6.402  10.745   7.464  0.3205 -0.1005 -0.5202
  188ccc    H17 4661   6.713  10.840   7.150 -0.4395  2.5214 -3.3679
  189ccc     C1 4662   5.596  10.058   7.743  0.2916  0.2811  0.1039
  189ccc     H1 4663   5.549  10.151   7.777  1.6635  1.5287 -1.2588
  189ccc     H2 4664   5.703  10.072   7.733  0.4152 -0.7759 -0.1760
  189ccc     C2 4665   5.539  10.040   7.594 -0.4084 -0.3035 -0.3454
  189ccc     H3 4666   5.584   9.949   7.553 -0.4439 -0.8975  0.8691
  189ccc     H4 4667   5.430  10.031   7.598 -0.4368  0.1502 -0.0742
  189ccc     C3 4668   5.580  10.154   7.498 -0.3435 -0.0279 -0.1582
  189ccc     H5 4669   5.509  10.233   7.526 -2.0537 -1.8441  0.9733
  189ccc     H6 4670   5.576  10.115   7.396 -0.7470 -1.3359  0.3347
  189ccc     N1 4671   5.556   9.956   7.847  0.9502  0.2056 -0.6422
  189ccc     H7 4672   5.590   9.865   7.811  0.3111 -0.0747 -0.5502
  189ccc     H8 4673   5.600   9.974   7.938 -1.4669 -2.1883  1.1856
  189ccc     O1 4674   5.716  10.196   7.526 -0.5174  0.6077 -0.1023
  189ccc    H17 4675   5.454   9.960   7.859  0.9870  2.3624 -0.6665
  190ccc     C1 4676   5.333  12.206   1.903  0.1704 -0.3702  0.2013
  190ccc     H1 4677   5.333  12.227   2.010 -0.4054 -1.1644  0.3602
  190ccc     H2 4678   5.242  12.239   1.853  0.9134  0.2532 -0.8075
  190ccc     C2 4679   5.362  12.055   1.879  0.4346 -0.2302  0.1364
  190ccc     H3 4680   5.368  12.030   1.772  0.3706  1.8478 -0.3994
  190ccc     H4 4681   5.462  12.017   1.902  0.2139 -1.3909 -0.7452
  190ccc     C3 4682   5.263  11.972   1.947  0.4430 -0.6563 -0.3862
  190ccc     H5 4683   5.236  12.019   2.042 -1.5870 -0.1619 -1.1610
  190ccc     H6 4684   5.298  11.869   1.962  0.0677 -0.6640  0.5416
  190ccc     N1 4685   5.426  12.297   1.847 -0.0951  0.2782 -0.1350
  190ccc     H7 4686   5.524  12.276   1.871 -0.3177 -0.3242  0.2512
  190ccc     H8 4687   5.423  12.289   1.744  0.6949 -0.6897 -0.0988
  190ccc     O1 4688   5.144  11.980   1.857 -0.1739 -1.0945 -0.6706
  190ccc    H17 4689   5.397  12.393   1.871  0.7275  0.3385  0.6656
  191ccc     C1 4690   5.103  12.336   1.225  0.2289  0.2324 -0.0457
  191ccc     H1 4691   5.136  12.244   1.274  1.5077  0.7602  0.1363
  191ccc     H2 4692   5.070  12.407   1.301  0.1725  0.5287 -0.3430
  191ccc     C2 4693   4.985  12.307   1.128  0.1615 -0.1533  0.0570
  191ccc     H3 4694   4.916  12.391   1.117 -0.7383 -0.7858  0.6968
  191ccc     H4 4695   5.031  12.284   1.031  2.8402 -0.2202  1.2414
  191ccc     C3 4696   4.915  12.176   1.171 -0.5753 -0.3271 -1.0035
  191ccc     H5 4697   4.990  12.096   1.176 -0.0105  0.1863 -1.1233
  191ccc     H6 4698   4.843  12.150   1.092 -0.7278  0.9856 -1.3300
  191ccc     N1 4699   5.223  12.392   1.156 -0.1315 -0.1514  0.7745
  191ccc     H7 4700   5.290  12.431   1.223 -0.1507  1.3728 -0.0605
  191ccc     H8 4701   5.268  12.312   1.108 -0.5133 -0.8521  1.5519
  191ccc     O1 4702   4.860  12.212   1.298 -0.5714 -0.3616  0.3679
  191ccc    H17 4703   5.207  12.467   1.088  3.1326 -0.6517 -0.7368
  192ccc     C1 4704   3.984  12.393   1.392 -0.0548  0.3654 -0.3794
  192ccc     H1 4705   3.955  12.291   1.419  1.3295  0.0205 -0.1396
  192ccc     H2 4706   4.089  12.391   1.421  0.1540 -2.4509 -1.0112
  192ccc     C2 4707   3.906  12.492   1.479 -0.0991 -0.3188  0.4739
  192ccc     H3 4708   3.938  12.586   1.434 -0.7889 -1.0107 -1.5330
  192ccc     H4 4709   3.799  12.493   1.457 -0.0732  0.5392  0.3427
  192ccc     C3 4710   3.932  12.489   1.631  0.0632  0.4975  0.1214
  192ccc     H5 4711   4.040  12.509   1.633 -0.1518  1.6998  2.0583
  192ccc     H6 4712   3.900  12.390   1.666  0.1201 -0.2499 -1.7892
  192ccc     N1 4713   3.971  12.413   1.246 -0.5330 -0.2239  0.7739
  192ccc     H7 4714   4.005  12.508   1.222 -0.1295  0.4530  3.6378
  192ccc     H8 4715   4.033  12.353   1.190 -0.1844  1.0486 -0.2574
  192ccc     O1 4716   3.861  12.590   1.710 -0.0288 -0.3940  0.0591
  192ccc    H17 4717   3.876  12.411   1.209 -0.6766 -0.5084  1.1478
  193ccc     C1 4718   3.466  13.468   1.871  0.1256 -0.4414  0.3222
  193ccc     H1 4719   3.544  13.543   1.853  0.4517 -0.5071  1.3882
  193ccc     H2 4720   3.382  13.512   1.926 -0.7630 -1.2927 -0.3255
  193ccc     C2 4721   3.540  13.361   1.939  0.2122 -0.0216  0.2865
  193ccc     H3 4722   3.575  13.404   2.034 -0.0853 -1.5491  1.1314
  193ccc     H4 4723   3.477  13.278   1.975 -0.1062  0.7100  1.4620
  193ccc     C3 4724   3.662  13.313   1.858  0.0619 -0.1896  0.2631
  193ccc     H5 4725   3.719  13.393   1.808 -2.1496  1.1383 -0.2650
  193ccc     H6 4726   3.630  13.240   1.783  0.2304 -1.2953  1.2346
  193ccc     N1 4727   3.415  13.423   1.735  0.2207  0.0123  0.2417
  193ccc     H7 4728   3.353  13.342   1.751  0.1763 -0.0894 -0.4099
  193ccc     H8 4729   3.364  13.502   1.693 -0.2037  0.8610  2.2136
  193ccc     O1 4730   3.747  13.238   1.954 -0.2059  0.2106 -0.1375
  193ccc    H17 4731   3.481  13.386   1.666 -1.4342 -2.4793 -0.1434
  194ccc     C1 4732   4.681  14.196   2.818  0.0609  1.0580 -0.5982
  194ccc     H1 4733   4.787  14.192   2.793  0.6655 -5.3388  1.1106
  194ccc     H2 4734   4.672  14.207   2.926 -0.6716 -2.0403 -0.2444
  194ccc     C2 4735   4.636  14.051   2.779  0.5805 -0.4474 -0.1860
  194ccc     H3 4736   4.627  14.049   2.670 -0.1892  1.3014 -0.1945
  194ccc     H4 4737   4.715  13.980   2.806  1.9184  1.0071 -0.0737
  194ccc     C3 4738   4.488  14.018   2.825 -0.1625  0.3239 -0.7314
  194ccc     H5 4739   4.458  13.918   2.792 -1.4038  0.5173 -0.2332
  194ccc     H6 4740   4.422  14.086   2.769  0.3168  0.8346 -0.6831
  194ccc     N1 4741   4.602  14.299   2.746  0.1991 -0.3019 -0.6691
  194ccc     H7 4742   4.603  14.393   2.788  0.5321  0.0875 -1.5256
  194ccc     H8 4743   4.639  14.318   2.652  0.8013  0.8169 -0.2258
  194ccc     O1 4744   4.462  14.041   2.960  0.4345 -0.0502 -0.1379
  194ccc    H17 4745   4.504  14.275   2.727 -0.4463 -0.1737  2.1085
  195ccc     C1 4746   4.312  14.412   3.632  0.1685 -0.5309  0.2315
  195ccc     H1 4747   4.301  14.421   3.740 -1.7128 -0.2204  0.0504
  195ccc     H2 4748   4.283  14.308   3.616  3.8778 -1.6038 -0.2467
  195ccc     C2 4749   4.451  14.436   3.582  0.6867  1.0871 -0.1275
  195ccc     H3 4750   4.459  14.437   3.472  0.3792 -1.1852 -0.2244
  195ccc     H4 4751   4.488  14.534   3.613 -2.1679  2.1385  0.2417
  195ccc     C3 4752   4.554  14.326   3.627 -0.3535 -0.9358  0.1048
  195ccc     H5 4753   4.576  14.329   3.735  0.7286  0.4859 -0.1231
  195ccc     H6 4754   4.648  14.352   3.577  0.2113 -0.9172  1.1450
  195ccc     N1 4755   4.205  14.519   3.591 -0.8863 -0.4193  0.3559
  195ccc     H7 4756   4.205  14.539   3.490  1.4229 -0.3477  0.3061
  195ccc     H8 4757   4.110  14.503   3.627 -1.0035 -1.0431 -0.2119
  195ccc     O1 4758   4.509  14.195   3.582  0.2552  0.2634  0.6665
  195ccc    H17 4759   4.247  14.605   3.630  0.3037 -0.6280 -0.4044
  196ccc     C1 4760   5.985  13.569   2.910  0.4562 -0.1645  0.4916
  196ccc     H1 4761   6.031  13.532   2.817 -0.1064 -1.4399  0.7067
  196ccc     H2 4762   6.057  13.612   2.980  1.1668 -0.5015 -0.0097
  196ccc     C2 4763   5.911  13.455   2.977 -0.6255  0.4362  0.7599
  196ccc     H3 4764   5.991  13.393   3.020  0.1335  2.3846  2.3297
  196ccc     H4 4765   5.874  13.498   3.071  0.1688  0.3789  1.1113
  196ccc     C3 4766   5.805  13.375   2.888 -0.0665 -0.4340 -0.2436
  196ccc     H5 4767   5.848  13.331   2.797 -0.8041  0.8375 -1.2477
  196ccc     H6 4768   5.731  13.450   2.858 -1.8510 -1.1618  2.0217
  196ccc     N1 4769   5.895  13.689   2.900  0.1945 -0.0302 -0.3264
  196ccc     H7 4770   5.840  13.713   2.984  0.0964  1.3391 -0.7442
  196ccc     H8 4771   5.958  13.770   2.892  0.2169  0.0804  0.8759
  196ccc     O1 4772   5.741  13.282   2.981 -0.0405 -0.9822  0.3743
  196ccc    H17 4773   5.829  13.688   2.821 -0.7538  0.2690  0.4427
  197ccc     C1 4774   5.840  12.514   2.840  0.2279  0.3023  0.5274
  197ccc     H1 4775   5.756  12.567   2.797 -0.1199 -0.0058  0.8203
  197ccc     H2 4776   5.826  12.409   2.813 -1.3857  0.1532  1.7888
  197ccc     C2 4777   5.838  12.524   2.997 -0.0890 -0.2319 -0.1624
  197ccc     H3 4778   5.888  12.434   3.034 -1.7343 -0.4054  1.8225
  197ccc     H4 4779   5.897  12.610   3.031  0.3551 -0.9972  1.0806
  197ccc     C3 4780   5.701  12.530   3.066  0.0445  0.1402  0.2163
  197ccc     H5 4781   5.722  12.525   3.174  2.3603 -3.1880 -0.2076
  197ccc     H6 4782   5.644  12.441   3.035 -0.7236  0.6826  0.0409
  197ccc     N1 4783   5.980  12.556   2.784  0.3136 -0.7021 -0.1668
  197ccc     H7 4784   6.002  12.638   2.842 -2.0683 -0.2780  0.2004
  197ccc     H8 4785   6.053  12.484   2.797 -0.4521 -1.3873  0.4298
  197ccc     O1 4786   5.632  12.644   3.016 -0.5764  0.0996 -1.1150
  197ccc    H17 4787   5.977  12.587   2.686 -0.9954 -0.4764 -0.0683
  198ccc     C1 4788   3.714  11.327   1.938 -0.4809  0.0945 -0.2941
  198ccc     H1 4789   3.818  11.359   1.939 -0.4008 -0.1040 -1.1783
  198ccc     H2 4790   3.694  11.321   1.830 -1.5893  0.4050 -0.1240
  198ccc     C2 4791   3.601  11.410   2.004  0.1493 -0.0817  0.1328
  198ccc     H3 4792   3.513  11.344   2.001  0.4463 -0.4635 -2.8928
  198ccc     H4 4793   3.621  11.425   2.111 -0.5870  0.8383  0.1513
  198ccc     C3 4794   3.563  11.543   1.939 -0.4941  0.6305 -0.2995
  198ccc     H5 4795   3.500  11.521   1.852 -0.4599  0.7466 -0.3544
  198ccc     H6 4796   3.655  11.592   1.905  1.0499 -0.4974  1.9433
  198ccc     N1 4797   3.707  11.190   1.984 -0.0991 -0.1108  0.0420
  198ccc     H7 4798   3.704  11.197   2.086  2.4078 -2.9667  0.4644
  198ccc     H8 4799   3.617  11.153   1.951 -0.7412  1.4628 -0.0626
  198ccc     O1 4800   3.498  11.631   2.035 -0.0523  0.1409 -0.4650
  198ccc    H17 4801   3.789  11.132   1.960 -0.6346 -0.7641 -0.2570
  199ccc     C1 4802   3.344  10.921   2.230  0.2725  0.0588 -0.0782
  199ccc     H1 4803   3.384  10.900   2.131  0.5424  1.9344 -0.4105
  199ccc     H2 4804   3.238  10.897   2.221  0.1536 -0.6510  2.5567
  199ccc     C2 4805   3.364  11.075   2.255  0.4029 -0.5837 -0.1145
  199ccc     H3 4806   3.338  11.084   2.361  0.3790 -0.6742 -0.1126
  199ccc     H4 4807   3.470  11.100   2.244  0.4533 -0.5016  0.5344
  199ccc     C3 4808   3.276  11.176   2.171  0.3293  0.3317  0.3696
  199ccc     H5 4809   3.169  11.158   2.189  0.8363 -1.5900  1.7843
  199ccc     H6 4810   3.299  11.158   2.066  0.6734 -0.2729  0.5411
  199ccc     N1 4811   3.408  10.831   2.337  0.1192  0.2750 -0.0377
  199ccc     H7 4812   3.370  10.735   2.331 -1.5007  0.8306  0.7209
  199ccc     H8 4813   3.511  10.836   2.342  0.2242 -1.0684 -0.3716
  199ccc     O1 4814   3.312  11.311   2.197 -0.1219 -0.5774 -0.3059
  199ccc    H17 4815   3.372  10.848   2.432  0.2577 -2.0866  0.5170
  200ccc     C1 4816   2.218  12.157   2.311  0.1747  0.0766  0.3899
  200ccc     H1 4817   2.258  12.147   2.412  1.6341 -1.6004 -0.3042
  200ccc     H2 4818   2.255  12.071   2.255 -0.2071 -0.9206  1.6203
  200ccc     C2 4819   2.286  12.281   2.238 -0.6712 -1.1120  0.4025
  200ccc     H3 4820   2.277  12.287   2.129 -2.4465  1.1319  0.5863
  200ccc     H4 4821   2.221  12.364   2.270 -0.2189 -0.8301  0.6031
  200ccc     C3 4822   2.437  12.311   2.264  0.9714 -0.2900  0.4715
  200ccc     H5 4823   2.436  12.343   2.369 -0.9818 -1.3265  0.8101
  200ccc     H6 4824   2.478  12.391   2.200 -3.1872  1.6975 -0.0322
  200ccc     N1 4825   2.073  12.157   2.311  0.0046 -0.0450  0.2223
  200ccc     H7 4826   2.040  12.137   2.216  1.0370 -3.8944  0.4944
  200ccc     H8 4827   2.041  12.068   2.351  0.1164 -0.5553 -0.7885
  200ccc     O1 4828   2.502  12.189   2.245 -0.4446 -0.5703  0.5830
  200ccc    H17 4829   2.027  12.234   2.362 -0.4708 -1.8805  2.8062
  201ccc     C1 4830   2.625  11.711   2.130 -0.3659  0.7781  0.4641
  201ccc     H1 4831   2.685  11.748   2.046 -2.3705 -2.6166 -2.7509
  201ccc     H2 4832   2.633  11.777   2.216 -0.4142  0.6445  0.5704
  201ccc     C2 4833   2.667  11.562   2.155 -0.3893 -0.0984  0.6778
  201ccc     H3 4834   2.595  11.518   2.224 -0.3828 -1.9965 -0.4624
  201ccc     H4 4835   2.670  11.493   2.070 -2.1276  0.5513  0.0466
  201ccc     C3 4836   2.798  11.548   2.238  0.1753  0.1915 -0.4769
  201ccc     H5 4837   2.881  11.569   2.170 -0.0096  1.6834 -0.2762
  201ccc     H6 4838   2.814  11.445   2.272  0.2428  0.0469 -0.9492
  201ccc     N1 4839   2.482  11.693   2.086 -0.6810 -0.8430 -0.1561
  201ccc     H7 4840   2.440  11.625   2.152  0.7977 -1.2718  0.3773
  201ccc     H8 4841   2.440  11.787   2.090 -0.7363 -0.8563 -0.4199
  201ccc     O1 4842   2.785  11.634   2.358  0.6027 -0.4595 -0.3944
  201ccc    H17 4843   2.481  11.648   1.993 -0.1976 -1.6192  0.2038
  202ccc     C1 4844   3.451  13.197   4.069 -0.3079 -0.5934  0.0745
  202ccc     H1 4845   3.389  13.107   4.065 -3.3333  1.3053  0.5917
  202ccc     H2 4846   3.419  13.250   3.979  2.3141 -1.9782 -1.8262
  202ccc     C2 4847   3.607  13.178   4.065 -0.4136 -0.0385  0.4721
  202ccc     H3 4848   3.657  13.275   4.069 -1.3243  0.3972  2.1089
  202ccc     H4 4849   3.632  13.120   4.154  0.0109 -2.2901 -1.0138
  202ccc     C3 4850   3.659  13.094   3.944  0.1068 -0.3972  0.4456
  202ccc     H5 4851   3.644  12.986   3.938  1.6898 -0.6085 -0.2771
  202ccc     H6 4852   3.768  13.104   3.955  0.3330 -1.7673 -0.2748
  202ccc     N1 4853   3.393  13.287   4.169  0.6039 -0.0594  0.0663
  202ccc     H7 4854   3.453  13.369   4.189 -0.3000  0.3255  1.3031
  202ccc     H8 4855   3.295  13.312   4.151 -0.0954 -1.7219  1.2962
  202ccc     O1 4856   3.611  13.152   3.818  0.3006 -0.1425 -0.5053
  202ccc    H17 4857   3.394  13.244   4.263 -0.6116  1.8179  0.9960
  203ccc     C1 4858   3.007  13.745   3.059  0.3190  0.1321  0.8523
  203ccc     H1 4859   2.965  13.818   3.128  0.7085  1.6272 -0.4303
  203ccc     H2 4860   2.972  13.643   3.072  0.9873 -0.2951 -0.5210
  203ccc     C2 4861   3.164  13.756   3.062  0.0389  0.4389  0.0624
  203ccc     H3 4862   3.201  13.692   2.982 -0.5464  1.4570 -1.0466
  203ccc     H4 4863   3.193  13.857   3.031  0.1037 -0.2040 -2.1371
  203ccc     C3 4864   3.233  13.730   3.198  0.5517  0.0757  0.1302
  203ccc     H5 4865   3.190  13.784   3.283  1.1094  0.3872  0.2157
  203ccc     H6 4866   3.331  13.767   3.168  0.3991  0.4088  0.0341
  203ccc     N1 4867   2.946  13.787   2.927  0.0548  0.1113  0.0967
  203ccc     H7 4868   2.967  13.884   2.900  0.1947  0.3924  1.1514
  203ccc     H8 4869   2.987  13.736   2.848  1.5016  1.0520  0.2065
  203ccc     O1 4870   3.228  13.588   3.223 -0.9352  0.3565 -0.0658
  203ccc    H17 4871   2.844  13.788   2.939  0.1603  1.7400  1.2067
  204ccc     C1 4872   2.002  12.937   2.644  0.1694  0.8317  0.0361
  204ccc     H1 4873   1.978  12.966   2.747 -1.0936 -0.8858  0.2726
  204ccc     H2 4874   2.070  12.851   2.636 -2.0643 -0.9805 -0.6233
  204ccc     C2 4875   2.052  13.066   2.560  0.3093  0.4896  0.2405
  204ccc     H3 4876   2.069  13.054   2.452  0.3325 -1.6290  0.4436
  204ccc     H4 4877   1.965  13.132   2.566 -1.3937 -1.6303  0.1229
  204ccc     C3 4878   2.177  13.117   2.639  0.4703  0.1551  0.3703
  204ccc     H5 4879   2.173  13.105   2.748 -0.6471  0.3709  0.3716
  204ccc     H6 4880   2.177  13.224   2.618  2.1932  0.1380  0.1500
  204ccc     N1 4881   1.870  12.891   2.583 -0.7565  0.0833  0.1034
  204ccc     H7 4882   1.788  12.952   2.596 -0.6939 -0.0072  1.0056
  204ccc     H8 4883   1.884  12.873   2.483  1.1353 -0.1227  0.3676
  204ccc     O1 4884   2.303  13.068   2.583 -0.0082  0.1114  0.3943
  204ccc    H17 4885   1.835  12.802   2.623 -0.1130 -0.6411 -0.9018
  205ccc     C1 4886   2.448  13.650   2.051 -0.6914 -0.1509  0.0328
  205ccc     H1 4887   2.536  13.687   1.997 -0.5381  1.3144  1.2120
  205ccc     H2 4888   2.476  13.608   2.147 -0.6212  0.6826  0.3886
  205ccc     C2 4889   2.369  13.544   1.980 -0.2807 -0.6530 -0.0815
  205ccc     H3 4890   2.294  13.519   2.056 -0.8406  1.7361  0.2608
  205ccc     H4 4891   2.314  13.586   1.895 -0.4247 -0.6907 -0.0065
  205ccc     C3 4892   2.450  13.434   1.921  0.3439 -0.6720 -0.4730
  205ccc     H5 4893   2.519  13.475   1.846 -1.1934 -0.1857 -1.6707
  205ccc     H6 4894   2.400  13.357   1.862 -2.6799  1.0497 -0.3537
  205ccc     N1 4895   2.364  13.780   2.070 -0.9174  0.2213  0.5023
  205ccc     H7 4896   2.402  13.827   2.154  2.0680  1.2609 -1.2436
  205ccc     H8 4897   2.386  13.846   1.994 -0.0871 -1.2964 -0.6277
  205ccc     O1 4898   2.516  13.363   2.025  0.4463  0.3564  0.6720
  205ccc    H17 4899   2.262  13.771   2.080 -1.4367  3.0985 -0.9605
  206ccc     C1 4900   6.532  12.518   7.105 -0.2790  0.5654  0.3149
  206ccc     H1 4901   6.540  12.521   6.996  1.1218 -3.6218  0.1447
  206ccc     H2 4902   6.548  12.416   7.139 -1.7629  0.7484  1.6668
  206ccc     C2 4903   6.395  12.569   7.156  0.4822  0.3075  0.1496
  206ccc     H3 4904   6.388  12.553   7.264 -2.6076 -0.5118 -0.0745
  206ccc     H4 4905   6.384  12.676   7.136 -0.5554  0.1240 -0.3325
  206ccc     C3 4906   6.277  12.506   7.083 -0.3835 -0.3655  0.4303
  206ccc     H5 4907   6.187  12.555   7.122 -0.3761 -0.6559  0.8262
  206ccc     H6 4908   6.263  12.398   7.099 -1.0997 -0.0718  2.0079
  206ccc     N1 4909   6.653  12.593   7.163  0.0263  0.5041  0.2569
  206ccc     H7 4910   6.635  12.633   7.256  0.1750  0.8785  0.1276
  206ccc     H8 4911   6.739  12.536   7.170 -0.1851  0.1400 -0.0340
  206ccc     O1 4912   6.283  12.541   6.945 -0.8509  0.3926 -0.3023
  206ccc    H17 4913   6.673  12.672   7.100 -0.8465  1.2467  0.8839
  207ccc     C1 4914   6.819  12.367   6.032 -0.1728 -0.1046 -1.0374
  207ccc     H1 4915   6.733  12.302   6.043 -1.8750  2.4125  2.1921
  207ccc     H2 4916   6.911  12.318   6.000  0.9957  2.0191 -1.1800
  207ccc     C2 4917   6.832  12.427   6.174  0.2500 -0.3600 -0.4719
  207ccc     H3 4918   6.927  12.388   6.211 -0.7398 -1.0191  1.5919
  207ccc     H4 4919   6.843  12.536   6.166 -1.0479  0.0319  1.8555
  207ccc     C3 4920   6.723  12.388   6.281  0.5913 -0.6049 -0.1342
  207ccc     H5 4921   6.745  12.446   6.371  2.4104 -1.1727 -0.1777
  207ccc     H6 4922   6.732  12.282   6.309  0.6963  0.1374  2.9688
  207ccc     N1 4923   6.808  12.460   5.914  0.0162 -0.2119  0.1152
  207ccc     H7 4924   6.836  12.431   5.820 -1.1917 -0.7212 -0.1114
  207ccc     H8 4925   6.718  12.511   5.915  0.3509  0.3956 -0.4222
  207ccc     O1 4926   6.589  12.414   6.229 -0.6280 -1.0170 -0.0253
  207ccc    H17 4927   6.866  12.545   5.921 -1.8333  1.2220 -0.9302
  208ccc     C1 4928   5.533  12.039   7.413 -0.5974 -0.5908  0.6332
  208ccc     H1 4929   5.550  12.113   7.335  0.4243 -1.8778 -0.4298
  208ccc     H2 4930   5.536  11.950   7.350  0.8941  0.4544 -0.8444
  208ccc     C2 4931   5.394  12.042   7.481 -1.7744  0.4182  1.0064
  208ccc     H3 4932   5.368  11.960   7.550  1.1431 -1.1369  0.4275
  208ccc     H4 4933   5.385  12.130   7.546  0.0129  1.4127 -0.0194
  208ccc     C3 4934   5.291  12.052   7.372 -0.4652 -0.2128  0.1044
  208ccc     H5 4935   5.190  12.074   7.408 -0.4800 -2.8271  1.8953
  208ccc     H6 4936   5.280  11.962   7.309  0.4997 -1.5359  1.7506
  208ccc     N1 4937   5.652  12.042   7.501  0.8675  0.1315 -0.2902
  208ccc     H7 4938   5.614  12.093   7.582 -0.0252 -1.4124  0.3023
  208ccc     H8 4939   5.684  11.950   7.535  1.3168  0.2540 -0.3654
  208ccc     O1 4940   5.335  12.156   7.289 -0.1407 -0.2578 -0.2668
  208ccc    H17 4941   5.728  12.096   7.456  2.8224 -1.9850  0.2474
  209ccc     C1 4942   5.902  12.975   7.253  0.0565  0.5064  0.8000
  209ccc     H1 4943   5.919  12.965   7.360  1.9494  1.7238  0.6676
  209ccc     H2 4944   5.809  13.031   7.238 -0.2218 -0.0418  0.4752
  209ccc     C2 4945   5.892  12.844   7.181 -0.0612 -0.4637  0.1271
  209ccc     H3 4946   5.882  12.854   7.072  1.0233  0.9116  0.1274
  209ccc     H4 4947   5.983  12.784   7.193 -0.9265 -2.2325 -1.6229
  209ccc     C3 4948   5.773  12.762   7.234  0.6125 -0.5510  0.6902
  209ccc     H5 4949   5.688  12.821   7.197  1.7713  0.0108 -1.2279
  209ccc     H6 4950   5.773  12.754   7.343 -0.6746 -0.9210  0.6762
  209ccc     N1 4951   6.007  13.076   7.206  0.1110  0.1155  0.2806
  209ccc     H7 4952   5.975  13.128   7.123 -0.0667 -1.1765 -0.4888
  209ccc     H8 4953   6.027  13.144   7.280  1.3141 -2.0193  2.0329
  209ccc     O1 4954   5.764  12.637   7.168  0.8825  0.4343  0.0392
  209ccc    H17 4955   6.098  13.029   7.194  0.5187  0.6270  1.2784
  210ccc     C1 4956   4.522  13.206   7.030 -0.8074  0.1529  0.2219
  210ccc     H1 4957   4.536  13.240   7.132  0.6835  0.8622 -0.1887
  210ccc     H2 4958   4.595  13.127   7.009  0.5595  0.6013  2.8614
  210ccc     C2 4959   4.547  13.322   6.935  0.1635 -0.0053 -0.0527
  210ccc     H3 4960   4.549  13.292   6.829  1.0093 -2.2254  0.5373
  210ccc     H4 4961   4.461  13.389   6.943 -0.3940 -0.4023 -2.0950
  210ccc     C3 4962   4.673  13.408   6.964 -0.6496 -0.3696  0.3019
  210ccc     H5 4963   4.751  13.345   7.009 -2.1612 -0.7519  2.5328
  210ccc     H6 4964   4.653  13.495   7.027  1.2818  1.8631 -1.9544
  210ccc     N1 4965   4.388  13.136   7.002 -0.0593 -0.1239 -0.8825
  210ccc     H7 4966   4.381  13.038   7.032  0.2317 -0.4894 -1.9293
  210ccc     H8 4967   4.305  13.185   7.038  0.6699  0.0804  0.5933
  210ccc     O1 4968   4.720  13.446   6.831 -0.4212 -0.2755 -0.2297
  210ccc    H17 4969   4.370  13.131   6.900 -2.6369  2.2460 -0.6468
  211ccc     C1 4970   5.135  14.126   6.322  0.5974 -0.1673  0.2377
  211ccc     H1 4971   5.098  14.210   6.263 -1.7689  1.3415  3.5552
  211ccc     H2 4972   5.126  14.031   6.269  3.0862 -0.0955 -0.4655
  211ccc     C2 4973   5.068  14.121   6.461  0.2814  0.0808 -0.6238
  211ccc     H3 4974   5.094  14.029   6.515 -0.6608  0.8259  1.1562
  211ccc     H4 4975   5.114  14.202   6.518 -2.0160  1.9342 -1.2575
  211ccc     C3 4976   4.914  14.133   6.460  0.4431 -0.0277  0.0994
  211ccc     H5 4977   4.889  14.224   6.404 -1.0785 -0.6330 -0.2452
  211ccc     H6 4978   4.872  14.139   6.561 -1.9651 -1.8404 -0.6910
  211ccc     N1 4979   5.287  14.142   6.329  0.1534  0.7860 -0.2924
  211ccc     H7 4980   5.330  14.160   6.237 -2.0302  1.8398 -1.1643
  211ccc     H8 4981   5.318  14.213   6.397  0.8573 -2.3646  3.0243
  211ccc     O1 4982   4.867  14.011   6.399 -0.2686  0.1967  0.2450
  211ccc    H17 4983   5.328  14.050   6.352 -1.7129  0.2087  0.9322
  212ccc     C1 4984   5.736  13.480   5.229 -0.0240  0.3059  0.4681
  212ccc     H1 4985   5.742  13.539   5.321  0.0673  0.1736  0.5476
  212ccc     H2 4986   5.804  13.396   5.237  2.9412  2.2810 -1.7664
  212ccc     C2 4987   5.747  13.562   5.097  0.4315  0.3587  0.2420
  212ccc     H3 4988   5.850  13.575   5.060  1.3097 -1.2750  1.9134
  212ccc     H4 4989   5.710  13.500   5.014  1.4144 -0.6896  0.5556
  212ccc     C3 4990   5.669  13.694   5.096  0.2247  0.1585  0.2806
  212ccc     H5 4991   5.591  13.700   5.020 -0.1591  0.1332  0.6636
  212ccc     H6 4992   5.742  13.771   5.071  0.0988  0.1322 -0.1619
  212ccc     N1 4993   5.592  13.415   5.236  0.5626 -0.4673  0.4647
  212ccc     H7 4994   5.576  13.352   5.156 -2.3497  0.9246 -0.1591
  212ccc     H8 4995   5.573  13.361   5.321 -1.6799 -1.1149 -0.3790
  212ccc     O1 4996   5.618  13.733   5.226  0.2132 -0.5846  0.2095
  212ccc    H17 4997   5.522  13.487   5.213  0.5670 -1.6385 -4.2405
  213ccc     C1 4998   5.077  14.678   5.627  1.0177  0.0667 -0.3718
  213ccc     H1 4999   5.088  14.771   5.569 -2.0615  0.9006  0.2131
  213ccc     H2 5000   5.173  14.627   5.639  1.2867  0.2228 -1.6293
  213ccc     C2 5001   4.998  14.570   5.546  0.3523 -0.1513 -0.0734
  213ccc     H3 5002   4.965  14.492   5.616 -1.4727 -1.1926 -1.9999
  213ccc     H4 5003   4.902  14.611   5.512 -0.3264  0.6159  2.4876
  213ccc     C3 5004   5.081  14.513   5.433  0.4816  0.2059 -0.1152
  213ccc     H5 5005   5.164  14.573   5.394  0.2018 -0.4963 -1.9220
  213ccc     H6 5006   5.007  14.511   5.351 -0.7914  0.7311  0.9733
  213ccc     N1 5007   5.006  14.724   5.755 -0.6340  0.2134  0.1012
  213ccc     H7 5008   4.926  14.786   5.736 -0.0726  0.3191 -2.4226
  213ccc     H8 5009   4.968  14.645   5.807  0.1202 -0.4609 -0.3453
  213ccc     O1 5010   5.129  14.375   5.458 -0.7296 -0.3144 -0.1654
  213ccc    H17 5011   5.080  14.765   5.814 -0.5484  0.3571 -0.1015
  214ccc     C1 5012   6.541  12.734   4.039  0.2848  0.0222  0.0066
  214ccc     H1 5013   6.504  12.708   3.940  0.1108  1.9069 -0.4675
  214ccc     H2 5014   6.482  12.683   4.115  0.2344  0.7962  0.4933
  214ccc     C2 5015   6.540  12.887   4.045  0.0752  0.3854  0.2126
  214ccc     H3 5016   6.585  12.926   4.137  1.4438 -1.3235  0.3301
  214ccc     H4 5017   6.592  12.926   3.957  1.1602 -1.7850 -0.1772
  214ccc     C3 5018   6.401  12.944   4.028  0.8389 -0.7197 -0.7440
  214ccc     H5 5019   6.327  12.863   4.026  1.3104 -1.1958  0.2598
  214ccc     H6 5020   6.394  12.997   3.932 -0.9698  2.1396  0.8414
  214ccc     N1 5021   6.681  12.677   4.042  0.4870 -0.5080 -0.1327
  214ccc     H7 5022   6.685  12.575   4.028 -1.0766 -0.8258  1.3641
  214ccc     H8 5023   6.736  12.728   3.971 -0.0540 -0.0586 -0.2375
  214ccc     O1 5024   6.360  13.031   4.138 -0.5073  0.1457  0.4421
  214ccc    H17 5025   6.722  12.698   4.134  0.9021  0.7939 -0.5884
  215ccc     C1 5026   6.734  13.670   5.000 -0.3238 -0.2047  0.4799
  215ccc     H1 5027   6.635  13.663   5.047 -1.5443 -2.2444 -2.1472
  215ccc     H2 5028   6.717  13.682   4.893  0.3510 -3.0143 -0.0242
  215ccc     C2 5029   6.824  13.539   5.006 -0.8318  0.1128 -0.7283
  215ccc     H3 5030   6.920  13.568   4.962 -1.5424  1.5133 -1.4260
  215ccc     H4 5031   6.847  13.510   5.110 -0.5988 -2.7994 -1.4952
  215ccc     C3 5032   6.754  13.419   4.938 -0.0641  0.6176  0.3056
  215ccc     H5 5033   6.706  13.366   5.021  0.5200 -1.4121 -0.5990
  215ccc     H6 5034   6.828  13.351   4.894 -0.7923 -0.2059  0.3346
  215ccc     N1 5035   6.804  13.788   5.057 -0.2086 -0.2040  0.1773
  215ccc     H7 5036   6.867  13.765   5.135  0.4095 -0.8821 -0.5067
  215ccc     H8 5037   6.867  13.822   4.983 -0.1478  0.8889  0.7180
  215ccc     O1 5038   6.667  13.468   4.833 -0.4805  0.1379 -0.0635
  215ccc    H17 5039   6.742  13.866   5.083  1.8778  1.2031  1.1630
  216ccc     C1 5040   5.276  14.128   4.570  0.5452 -0.2624 -0.0587
  216ccc     H1 5041   5.182  14.169   4.606  0.9259 -0.1679  0.8670
  216ccc     H2 5042   5.267  14.118   4.462  0.3710 -1.9631  0.0838
  216ccc     C2 5043   5.291  13.986   4.636 -0.1672  0.0565  0.1100
  216ccc     H3 5044   5.391  13.946   4.615  0.0835  0.6205  0.1975
  216ccc     H4 5045   5.280  13.986   4.745  1.7021 -1.6799  0.3620
  216ccc     C3 5046   5.187  13.900   4.569  0.9215 -0.0406 -0.7332
  216ccc     H5 5047   5.088  13.945   4.575  1.2303  0.4931  1.0071
  216ccc     H6 5048   5.183  13.803   4.620 -0.8643  0.4804  0.2109
  216ccc     N1 5049   5.386  14.226   4.598  0.1860  0.0663 -0.5885
  216ccc     H7 5050   5.415  14.231   4.697  0.9194 -0.5946 -0.7602
  216ccc     H8 5051   5.473  14.203   4.548  0.6326 -0.6430  0.4640
  216ccc     O1 5052   5.219  13.884   4.432 -0.8870 -0.6752  0.2508
  216ccc    H17 5053   5.357  14.322   4.574 -2.5983 -0.6609 -0.4179
  217ccc     C1 5054   5.171  14.471   3.816 -0.2214  0.5449 -0.1229
  217ccc     H1 5055   5.210  14.476   3.918 -1.2312  0.8323  0.2611
  217ccc     H2 5056   5.106  14.383   3.807  0.9930 -0.4236  0.2145
  217ccc     C2 5057   5.295  14.436   3.730  0.0456 -0.0880 -0.3761
  217ccc     H3 5058   5.261  14.391   3.636  1.0212 -0.8175 -0.3938
  217ccc     H4 5059   5.325  14.536   3.699 -0.0097  0.1796  0.3952
  217ccc     C3 5060   5.410  14.359   3.805  0.1868 -0.6496  0.0724
  217ccc     H5 5061   5.427  14.406   3.903 -0.0355 -0.8418  0.2037
  217ccc     H6 5062   5.504  14.366   3.748 -0.5356 -0.1345 -1.0701
  217ccc     N1 5063   5.091  14.596   3.798  0.4139 -0.3481  0.0496
  217ccc     H7 5064   5.076  14.601   3.696 -2.3203 -0.3462  0.3870
  217ccc     H8 5065   5.000  14.594   3.846  0.3286 -2.2034 -0.1406
  217ccc     O1 5066   5.387  14.214   3.813  0.6257  0.0426  0.0787
  217ccc    H17 5067   5.146  14.680   3.824  1.7515 -1.1739 -0.0107
  218ccc     C1 5068   7.214  11.726   4.782 -0.6059  0.4175 -0.1911
  218ccc     H1 5069   7.314  11.767   4.766 -0.4082  0.6061  1.4233
  218ccc     H2 5070   7.183  11.684   4.686  1.1462  0.7778 -0.9561
  218ccc     C2 5071   7.113  11.834   4.819 -0.1045 -0.3547  0.4090
  218ccc     H3 5072   7.016  11.786   4.841 -2.0491  1.7606 -2.6741
  218ccc     H4 5073   7.136  11.878   4.917  0.6281 -1.2640  0.6510
  218ccc     C3 5074   7.092  11.941   4.709 -0.3244  0.0603 -0.0669
  218ccc     H5 5075   7.114  11.894   4.612  0.8468  0.7815 -0.1688
  218ccc     H6 5076   7.159  12.025   4.731 -1.0626  0.1952  1.7898
  218ccc     N1 5077   7.229  11.613   4.877  0.7086 -0.3414  0.3669
  218ccc     H7 5078   7.290  11.541   4.837  0.1194  0.1790 -1.5914
  218ccc     H8 5079   7.263  11.655   4.965  0.3636  1.5330 -0.3298
  218ccc     O1 5080   6.956  11.978   4.723  0.0164  0.2262  0.4009
  218ccc    H17 5081   7.142  11.560   4.897  0.4014 -0.6747 -1.6489
  219ccc     C1 5082   6.131  11.571   5.251 -0.2069  0.0052  0.3244
  219ccc     H1 5083   6.108  11.666   5.298  0.1146  1.5202 -2.3844
  219ccc     H2 5084   6.221  11.532   5.299 -0.6271  0.4212  1.4628
  219ccc     C2 5085   6.151  11.600   5.101 -0.9427 -0.2534  0.0157
  219ccc     H3 5086   6.151  11.508   5.040  1.3011  0.6910 -1.5700
  219ccc     H4 5087   6.059  11.650   5.069  0.3605  1.2496 -1.5825
  219ccc     C3 5088   6.273  11.684   5.071  0.3409 -0.4150  0.2517
  219ccc     H5 5089   6.350  11.606   5.077 -0.3889 -1.0463  2.1561
  219ccc     H6 5090   6.288  11.756   5.153 -2.7654  0.6579 -0.0035
  219ccc     N1 5091   6.021  11.482   5.288  0.5339  0.2754 -0.0892
  219ccc     H7 5092   5.943  11.508   5.226 -0.1300 -2.9351 -0.7678
  219ccc     H8 5093   6.047  11.382   5.279 -0.9183 -0.1979  0.7886
  219ccc     O1 5094   6.263  11.739   4.937 -0.1282 -0.7069  0.1154
  219ccc    H17 5095   5.993  11.499   5.385  1.2442  0.8950  0.0188
  220ccc     C1 5096   5.670  11.511   3.696 -0.3913 -0.6712 -0.4685
  220ccc     H1 5097   5.704  11.413   3.729  0.2951  0.7461  3.6090
  220ccc     H2 5098   5.753  11.579   3.715  1.9760 -3.1823 -1.0049
  220ccc     C2 5099   5.553  11.535   3.784  0.0606 -0.4378 -0.0093
  220ccc     H3 5100   5.525  11.641   3.780  0.2070 -0.4171 -0.5932
  220ccc     H4 5101   5.467  11.482   3.743 -0.2180 -0.9648  1.2250
  220ccc     C3 5102   5.579  11.480   3.930 -0.2111 -0.5377 -0.1489
  220ccc     H5 5103   5.568  11.371   3.938 -1.1899 -0.6735 -2.4277
  220ccc     H6 5104   5.500  11.521   3.994  1.4355 -1.6794  2.7882
  220ccc     N1 5105   5.644  11.515   3.548  0.1319 -0.2382 -0.1781
  220ccc     H7 5106   5.702  11.573   3.486 -0.9983  0.1937 -0.8709
  220ccc     H8 5107   5.641  11.422   3.504 -1.2021  0.7848 -2.4459
  220ccc     O1 5108   5.692  11.544   3.984 -0.4279 -0.0660  0.0160
  220ccc    H17 5109   5.556  11.566   3.531 -0.2912 -1.6772 -2.8373
  221ccc     C1 5110   5.747  11.143   4.837 -0.5545 -0.3872  0.2733
  221ccc     H1 5111   5.829  11.071   4.841  0.2563  0.5712  1.5576
  221ccc     H2 5112   5.746  11.173   4.732  0.6555 -1.9409 -0.2238
  221ccc     C2 5113   5.787  11.257   4.934  0.2374  0.7042 -0.2471
  221ccc     H3 5114   5.707  11.332   4.937  0.4276  0.8797  2.5863
  221ccc     H4 5115   5.797  11.206   5.030 -0.8645 -1.2137 -1.0901
  221ccc     C3 5116   5.920  11.329   4.900  0.0145 -0.8272 -0.0614
  221ccc     H5 5117   5.995  11.254   4.875 -1.4432 -1.0147 -4.9241
  221ccc     H6 5118   5.948  11.402   4.977  1.7307  0.9152 -2.1782
  221ccc     N1 5119   5.621  11.067   4.876  0.0120  0.1261  0.8389
  221ccc     H7 5120   5.539  11.129   4.871  1.1077  1.5616 -0.6023
  221ccc     H8 5121   5.615  10.985   4.813 -0.4997  0.2660  0.6984
  221ccc     O1 5122   5.896  11.405   4.775 -0.6075  0.3220 -0.3103
  221ccc    H17 5123   5.636  11.042   4.975 -0.8759 -0.6049  0.8018
  222ccc     C1 5124   3.831  13.234   6.247  0.0593  0.4196  0.0211
  222ccc     H1 5125   3.866  13.135   6.276 -0.5925  0.9994  3.1435
  222ccc     H2 5126   3.891  13.278   6.168 -2.1152  1.6657 -1.0296
  222ccc     C2 5127   3.837  13.322   6.381  0.2572  0.3414  1.1192
  222ccc     H3 5128   3.816  13.427   6.359 -2.7469 -0.3564  0.1130
  222ccc     H4 5129   3.762  13.282   6.451 -0.4016 -1.8277 -0.6903
  222ccc     C3 5130   3.975  13.307   6.439 -0.0464  0.7184  0.1458
  222ccc     H5 5131   4.047  13.341   6.363 -0.8421  0.5111 -0.7244
  222ccc     H6 5132   3.995  13.203   6.466 -1.2236 -0.2922 -2.5341
  222ccc     N1 5133   3.690  13.229   6.181  0.3861 -0.2228  0.2889
  222ccc     H7 5134   3.672  13.313   6.125 -0.4792 -1.1279 -0.8501
  222ccc     H8 5135   3.671  13.151   6.116  1.6305 -0.7813  0.5601
  222ccc     O1 5136   3.984  13.384   6.559 -0.0049 -0.8169 -0.3205
  222ccc    H17 5137   3.609  13.220   6.243  1.7967 -3.4746  1.9001
  223ccc     C1 5138   4.487  13.812   7.374 -0.4174 -0.1425  0.2462
  223ccc     H1 5139   4.580  13.778   7.328  0.2565  1.0244  0.7208
  223ccc     H2 5140   4.400  13.755   7.342 -2.1718  0.5494  3.3779
  223ccc     C2 5141   4.460  13.951   7.319  0.3361  0.3932 -0.3769
  223ccc     H3 5142   4.372  13.988   7.373  0.7710 -0.2249  0.8027
  223ccc     H4 5143   4.544  14.017   7.346  2.0623 -2.2052  1.0765
  223ccc     C3 5144   4.441  13.955   7.170 -0.7615  0.3962  0.7809
  223ccc     H5 5145   4.533  13.908   7.134 -1.4300 -0.2688 -0.1221
  223ccc     H6 5146   4.452  14.059   7.137  2.9231  0.0032  0.3552
  223ccc     N1 5147   4.489  13.810   7.526 -0.4720 -0.2316 -0.3726
  223ccc     H7 5148   4.397  13.839   7.561 -0.3403  0.8403 -0.8629
  223ccc     H8 5149   4.510  13.714   7.558  2.7669  0.3648 -0.3862
  223ccc     O1 5150   4.313  13.889   7.132 -0.6190  0.0093 -0.1704
  223ccc    H17 5151   4.563  13.869   7.567 -1.1054  0.0357  0.4271
  224ccc     C1 5152   3.835  15.489   6.898  0.3735 -0.6157 -1.0192
  224ccc     H1 5153   3.777  15.580   6.914  2.0888  0.0294  2.5559
  224ccc     H2 5154   3.784  15.407   6.847 -0.1515 -1.2520  0.4557
  224ccc     C2 5155   3.881  15.446   7.041 -0.3627  0.1307 -0.0918
  224ccc     H3 5156   3.950  15.519   7.086 -0.4615  0.1301  0.0619
  224ccc     H4 5157   3.797  15.441   7.112  0.8141 -0.4351  1.3348
  224ccc     C3 5158   3.938  15.302   7.024 -0.5617  0.1014  0.0935
  224ccc     H5 5159   4.007  15.276   7.105 -0.2767 -1.3160 -0.5746
  224ccc     H6 5160   4.002  15.297   6.935 -0.8079  2.2078 -0.2612
  224ccc     N1 5161   3.961  15.534   6.822  0.4158  0.1858  0.5044
  224ccc     H7 5162   4.024  15.578   6.890 -1.1202  0.7225  1.6582
  224ccc     H8 5163   4.013  15.448   6.798  1.3490  1.5445 -2.8404
  224ccc     O1 5164   3.838  15.199   7.028  0.3502 -0.1812 -0.7166
  224ccc    H17 5165   3.954  15.589   6.736  1.8174  0.5325  0.5913
  225ccc     C1 5166   3.113  15.189   7.444  0.4187 -0.6907 -0.4561
  225ccc     H1 5167   3.165  15.205   7.538 -0.1730  1.2882 -0.4208
  225ccc     H2 5168   3.024  15.127   7.457 -0.7031  0.8255 -0.5793
  225ccc     C2 5169   3.216  15.113   7.356  0.1183 -0.0971 -0.4877
  225ccc     H3 5170   3.179  15.110   7.253 -0.2515  1.3253 -0.4280
  225ccc     H4 5171   3.309  15.171   7.347 -0.6944  1.7359  1.7058
  225ccc     C3 5172   3.246  14.963   7.397 -0.4211  0.1439 -0.1538
  225ccc     H5 5173   3.156  14.903   7.378 -1.2828  1.6595 -1.0385
  225ccc     H6 5174   3.264  14.960   7.505 -1.1030  1.5111  0.0220
  225ccc     N1 5175   3.068  15.326   7.407  0.3815 -1.2229 -0.5933
  225ccc     H7 5176   3.150  15.382   7.379  2.1617 -1.1418  3.9583
  225ccc     H8 5177   3.000  15.324   7.330 -0.3306  0.7989 -0.0907
  225ccc     O1 5178   3.348  14.909   7.307  0.3672  0.0670  0.1716
  225ccc    H17 5179   3.014  15.375   7.480  0.1599  0.8228 -2.0289
  226ccc     C1 5180   4.009  13.108   8.353  0.9176  0.9368 -0.0321
  226ccc     H1 5181   3.972  13.027   8.290  0.9059 -0.1327  1.3021
  226ccc     H2 5182   4.033  13.061   8.448  1.9050 -0.1434 -0.7828
  226ccc     C2 5183   3.901  13.223   8.371 -0.2311 -0.0141  0.4317
  226ccc     H3 5184   3.943  13.291   8.445 -3.7167  2.2056  0.5503
  226ccc     H4 5185   3.884  13.281   8.279  1.1533 -0.9986 -0.5123
  226ccc     C3 5186   3.770  13.162   8.421 -0.3083  0.0228  0.4580
  226ccc     H5 5187   3.697  13.242   8.442 -1.7534 -1.5839  1.9181
  226ccc     H6 5188   3.790  13.104   8.512 -1.0734 -0.7308  0.1538
  226ccc     N1 5189   4.141  13.141   8.297  0.2580 -0.0939 -0.5183
  226ccc     H7 5190   4.123  13.168   8.200  0.8517  0.8242 -0.3795
  226ccc     H8 5191   4.189  13.223   8.335 -0.0332  0.0446 -0.4407
  226ccc     O1 5192   3.717  13.073   8.316  0.7648 -0.2761  0.1478
  226ccc    H17 5193   4.207  13.064   8.318  0.3193  0.1532  0.2344
  227ccc     C1 5194   3.900  12.466   8.178  0.1961 -0.3992 -0.1946
  227ccc     H1 5195   3.933  12.567   8.151  0.9184 -0.3591  0.7985
  227ccc     H2 5196   3.952  12.393   8.117  0.3003 -0.2172 -0.3248
  227ccc     C2 5197   3.748  12.449   8.146 -0.0442  0.0666  0.3679
  227ccc     H3 5198   3.714  12.346   8.163 -2.6680  1.4076  4.5932
  227ccc     H4 5199   3.686  12.511   8.212  0.4658  2.0634 -0.9292
  227ccc     C3 5200   3.715  12.489   8.007 -0.2556 -0.2541  0.1786
  227ccc     H5 5201   3.628  12.430   7.977 -0.7090  0.5818 -0.1840
  227ccc     H6 5202   3.798  12.483   7.937  1.0970  4.4573  0.9839
  227ccc     N1 5203   3.940  12.440   8.319  0.2515  0.0661 -0.4601
  227ccc     H7 5204   3.928  12.525   8.376  1.7570  2.0398 -2.8945
  227ccc     H8 5205   3.877  12.366   8.354  0.3380 -0.0726 -0.5994
  227ccc     O1 5206   3.683  12.631   8.011  0.8659  0.1794 -0.0642
  227ccc    H17 5207   4.039  12.413   8.320 -0.5085 -3.4137  2.0428
  228ccc     C1 5208   2.123  13.561   9.068  0.1661  0.0339 -0.0682
  228ccc     H1 5209   2.035  13.522   9.018  0.3639 -1.3492  0.6240
  228ccc     H2 5210   2.166  13.622   8.988  0.6559  1.9091  1.5424
  228ccc     C2 5211   2.214  13.445   9.115  0.4700  0.1165  0.2096
  228ccc     H3 5212   2.304  13.475   9.169 -1.1366  0.7488  2.6946
  228ccc     H4 5213   2.153  13.371   9.168 -1.1503  1.2673  0.0088
  228ccc     C3 5214   2.264  13.367   8.995 -0.0800  0.7288 -0.0353
  228ccc     H5 5215   2.180  13.356   8.926 -0.9978 -1.0408  1.2796
  228ccc     H6 5216   2.294  13.270   9.036 -2.0067  0.1461  0.1141
  228ccc     N1 5217   2.076  13.645   9.191  0.6398 -0.4330  0.2610
  228ccc     H7 5218   1.989  13.699   9.176  1.2212  0.1842 -1.0393
  228ccc     H8 5219   2.056  13.579   9.268  0.0561  1.9859  2.3360
  228ccc     O1 5220   2.363  13.441   8.928 -0.4628 -0.2531 -0.9125
  228ccc    H17 5221   2.149  13.706   9.231  1.5716 -0.8270 -0.7916
  229ccc     C1 5222   2.509  14.144   9.198  0.3671  0.0548 -0.1536
  229ccc     H1 5223   2.526  14.037   9.186  1.8186  0.3869 -1.3696
  229ccc     H2 5224   2.412  14.176   9.161  0.6276  1.0130 -0.0282
  229ccc     C2 5225   2.623  14.209   9.116  0.1606 -0.5352 -0.2137
  229ccc     H3 5226   2.611  14.316   9.137 -1.5098 -0.6196 -0.5607
  229ccc     H4 5227   2.723  14.183   9.152 -0.2608 -1.7132  0.1585
  229ccc     C3 5228   2.608  14.190   8.963  0.6295 -0.0784  0.4854
  229ccc     H5 5229   2.679  14.254   8.909 -0.5175  0.8907  0.0699
  229ccc     H6 5230   2.507  14.220   8.931 -0.0331 -3.1470 -0.6777
  229ccc     N1 5231   2.521  14.157   9.349  0.3540 -0.6165  0.5603
  229ccc     H7 5232   2.478  14.245   9.380 -0.4591  0.7819 -3.8230
  229ccc     H8 5233   2.482  14.084   9.411  1.0772 -0.0417  1.7219
  229ccc     O1 5234   2.632  14.056   8.933  0.0800 -0.0172 -0.3867
  229ccc    H17 5235   2.622  14.162   9.368  0.2551  1.6239  0.7961
  230ccc     C1 5236   2.743  11.692   6.994 -0.2672  0.2959 -1.1114
  230ccc     H1 5237   2.720  11.643   7.089 -1.2067  1.4205 -0.7269
  230ccc     H2 5238   2.725  11.798   7.012 -1.0848  0.0914 -0.6617
  230ccc     C2 5239   2.668  11.610   6.885 -0.4365 -0.3665  0.0610
  230ccc     H3 5240   2.679  11.674   6.796 -1.6605  1.0513  0.8964
  230ccc     H4 5241   2.719  11.514   6.866  4.9561  2.4387 -1.8182
  230ccc     C3 5242   2.522  11.590   6.922  1.0246 -0.2427  0.2989
  230ccc     H5 5243   2.519  11.560   7.027  0.4244  3.4065  1.4659
  230ccc     H6 5244   2.480  11.511   6.859  2.0155 -0.5317 -0.0089
  230ccc     N1 5245   2.894  11.677   6.968 -0.7093 -0.0391  0.1875
  230ccc     H7 5246   2.929  11.581   6.951 -2.3889 -0.3671 -1.7313
  230ccc     H8 5247   2.913  11.733   6.884 -1.7516  0.5568  0.3338
  230ccc     O1 5248   2.445  11.714   6.908  0.2756 -0.5096  0.5734
  230ccc    H17 5249   2.951  11.716   7.044 -0.2886 -1.6574  0.7575
  231ccc     C1 5250   2.986  12.465   7.263  0.2601  0.6369  0.3997
  231ccc     H1 5251   2.969  12.572   7.250 -0.4255  0.2650 -2.1764
  231ccc     H2 5252   3.042  12.432   7.176 -0.0413 -2.0240  1.1481
  231ccc     C2 5253   2.853  12.388   7.255 -0.0765 -0.0311  0.0175
  231ccc     H3 5254   2.825  12.416   7.152 -1.1564  0.3454  0.3942
  231ccc     H4 5255   2.860  12.279   7.255 -1.1040 -0.1172 -0.6295
  231ccc     C3 5256   2.740  12.444   7.343  0.3125 -0.2607  0.1753
  231ccc     H5 5257   2.739  12.553   7.335  0.0047 -0.2627  0.1646
  231ccc     H6 5258   2.768  12.415   7.445 -0.3459  0.7762  0.6594
  231ccc     N1 5259   3.055  12.436   7.392  0.0024  0.9868 -0.2310
  231ccc     H7 5260   3.009  12.480   7.472  1.1973  2.9581 -0.5654
  231ccc     H8 5261   3.040  12.336   7.411 -1.0177  1.3275  0.8141
  231ccc     O1 5262   2.610  12.392   7.309  0.0654 -0.6405  0.1417
  231ccc    H17 5263   3.157  12.455   7.396 -0.2152  2.0524  0.4947
  232ccc     C1 5264   0.757  11.981   8.393  0.6647 -0.0347 -0.0776
  232ccc     H1 5265   0.817  12.049   8.453  0.3069  2.6688 -2.5924
  232ccc     H2 5266   0.743  11.887   8.447  0.5064 -0.7065 -1.2481
  232ccc     C2 5267   0.832  11.954   8.266  0.1262  0.1035  0.3127
  232ccc     H3 5268   0.759  11.946   8.184 -1.5685  0.9772  1.6662
  232ccc     H4 5269   0.897  12.033   8.229  0.8509 -0.8954 -0.6061
  232ccc     C3 5270   0.923  11.822   8.281 -0.1630 -0.5011  0.9846
  232ccc     H5 5271   0.910  11.768   8.187 -0.5646 -0.1607  0.8411
  232ccc     H6 5272   0.879  11.759   8.359 -1.8272  0.2174  0.6841
  232ccc     N1 5273   0.616  12.042   8.373 -0.1514 -0.6280 -0.1399
  232ccc     H7 5274   0.623  12.131   8.320 -1.6453  0.6265  1.6452
  232ccc     H8 5275   0.538  11.996   8.323 -0.3772  1.9872 -2.4707
  232ccc     O1 5276   1.058  11.858   8.311  0.5777 -0.0901 -0.3278
  232ccc    H17 5277   0.566  12.067   8.459 -2.7356  0.9189 -1.9203
  233ccc     C1 5278   1.118  11.772   8.950  0.1127  0.0825  0.1307
  233ccc     H1 5279   1.210  11.714   8.941 -0.5292 -1.1776  1.2309
  233ccc     H2 5280   1.107  11.812   8.849  2.3597  0.6321  0.0688
  233ccc     C2 5281   1.117  11.892   9.051  0.2366  0.2945 -0.4199
  233ccc     H3 5282   1.031  11.959   9.036  0.5739  0.8321  0.0240
  233ccc     H4 5283   1.123  11.866   9.157  1.2015  0.1316 -0.5086
  233ccc     C3 5284   1.238  11.977   9.028 -0.1405  0.2205  0.4588
  233ccc     H5 5285   1.328  11.924   9.064 -0.4153 -1.4710 -1.2008
  233ccc     H6 5286   1.229  12.069   9.086  4.7905 -0.0214  2.0845
  233ccc     N1 5287   1.008  11.680   8.962 -0.9640 -0.2774 -0.1803
  233ccc     H7 5288   1.007  11.624   9.049  2.4886 -0.3327 -0.0699
  233ccc     H8 5289   0.918  11.731   8.955 -0.1647  0.9785 -1.8050
  233ccc     O1 5290   1.244  12.010   8.891 -0.1046  0.2046 -0.0928
  233ccc    H17 5291   1.005  11.623   8.876  0.0640  0.3027 -0.6096
  234ccc     C1 5292   0.825  13.623   7.165  0.4970 -0.2229  0.0853
  234ccc     H1 5293   0.906  13.610   7.237  0.0598  1.4038  0.9318
  234ccc     H2 5294   0.848  13.709   7.102 -0.0925 -0.2762 -0.2095
  234ccc     C2 5295   0.706  13.665   7.244  0.0753 -0.3701  0.0231
  234ccc     H3 5296   0.624  13.670   7.172 -0.4119  0.0844  0.5949
  234ccc     H4 5297   0.680  13.599   7.327  0.2424  0.3332  0.6562
  234ccc     C3 5298   0.730  13.812   7.293  0.3140 -0.0001 -0.0843
  234ccc     H5 5299   0.649  13.832   7.364 -0.1308 -1.3562 -0.1947
  234ccc     H6 5300   0.717  13.887   7.214  0.7673  2.8800  2.3702
  234ccc     N1 5301   0.810  13.501   7.084 -0.4546 -0.0169  0.1680
  234ccc     H7 5302   0.719  13.494   7.036  0.2965 -2.6799 -1.1068
  234ccc     H8 5303   0.886  13.482   7.016  0.2598  2.5194  0.1658
  234ccc     O1 5304   0.865  13.829   7.356  0.2572 -0.3198 -0.1382
  234ccc    H17 5305   0.818  13.422   7.150  1.4438 -1.4732 -1.6665
  235ccc     C1 5306   1.647  14.486   7.076 -0.5178  0.0116 -0.0286
  235ccc     H1 5307   1.738  14.448   7.031 -0.1559  1.5483 -0.6631
  235ccc     H2 5308   1.668  14.541   7.168  1.5987 -0.2406 -0.3169
  235ccc     C2 5309   1.559  14.368   7.112  0.1171  1.0411 -0.2106
  235ccc     H3 5310   1.458  14.404   7.136  0.0529 -0.1750  1.6056
  235ccc     H4 5311   1.542  14.291   7.036  0.0040 -0.0513  0.8916
  235ccc     C3 5312   1.618  14.298   7.232 -0.1007 -0.2113  0.5219
  235ccc     H5 5313   1.641  14.370   7.311 -2.4462 -1.4860  2.4650
  235ccc     H6 5314   1.715  14.260   7.198  1.0381  1.7323  1.4013
  235ccc     N1 5315   1.582  14.587   6.982 -0.1347 -0.0650  0.2963
  235ccc     H7 5316   1.640  14.667   6.951 -2.7303  1.6719 -0.4304
  235ccc     H8 5317   1.548  14.538   6.898 -0.0597  0.2436  0.0844
  235ccc     O1 5318   1.532  14.192   7.276  0.6339  0.2514 -0.1741
  235ccc    H17 5319   1.496  14.625   7.026  0.3225 -1.3794  2.4691
  236ccc     C1 5320  -0.014  12.686   8.143 -0.2742 -0.2319 -0.4804
  236ccc     H1 5321  -0.120  12.710   8.145 -0.7097 -2.0682  0.8274
  236ccc     H2 5322   0.037  12.755   8.211 -0.5989 -2.4715  2.2158
  236ccc     C2 5323   0.049  12.699   7.998 -0.2127  0.9100 -0.3203
  236ccc     H3 5324   0.002  12.630   7.927  0.6083 -1.0060  0.9253
  236ccc     H4 5325   0.028  12.794   7.947 -2.1321 -1.1791 -3.7547
  236ccc     C3 5326   0.199  12.684   7.997  0.0075 -0.2285 -0.1721
  236ccc     H5 5327   0.212  12.576   8.013 -4.4293 -0.9720 -0.4827
  236ccc     H6 5328   0.235  12.746   8.081  0.7308 -0.7653 -0.0688
  236ccc     N1 5329  -0.009  12.549   8.205 -0.1370 -0.3787 -0.0036
  236ccc     H7 5330  -0.091  12.542   8.267 -1.4219  1.2906 -1.4184
  236ccc     H8 5331  -0.021  12.469   8.141 -0.4979 -1.0029  0.8152
  236ccc     O1 5332   0.253  12.738   7.869 -0.1061  0.9321 -0.1560
  236ccc    H17 5333   0.077  12.533   8.260  0.9988 -1.0145 -1.8850
  237ccc     C1 5334   0.449  12.602   7.080 -0.5933  0.7290 -0.8543
  237ccc     H1 5335   0.373  12.527   7.100  0.4940 -0.0922  0.3578
  237ccc     H2 5336   0.488  12.646   7.172 -0.6659 -1.3230  0.2078
  237ccc     C2 5337   0.389  12.719   6.995  0.1612 -0.4771  0.1101
  237ccc     H3 5338   0.471  12.784   6.964 -0.3863  0.8180  1.2581
  237ccc     H4 5339   0.348  12.680   6.901 -0.6271 -0.2788  0.3569
  237ccc     C3 5340   0.294  12.819   7.067  0.1996 -0.5100  0.1016
  237ccc     H5 5341   0.206  12.761   7.101  0.9367 -0.9896  1.2681
  237ccc     H6 5342   0.256  12.888   6.991  2.2313  1.5735  0.8552
  237ccc     N1 5343   0.563  12.522   7.014  0.4775  0.0538 -0.1176
  237ccc     H7 5344   0.635  12.588   6.982  0.2693 -0.7205 -2.3398
  237ccc     H8 5345   0.605  12.454   7.079 -1.4483 -0.9182  0.1859
  237ccc     O1 5346   0.366  12.877   7.172  0.0430  0.1907 -0.0660
  237ccc    H17 5347   0.528  12.472   6.931 -1.4089  0.1170  0.5762
  238ccc     C1 5348   3.261  15.070   4.604 -0.1154  0.1334 -0.1856
  238ccc     H1 5349   3.258  15.172   4.643 -1.9243  0.0230  0.0656
  238ccc     H2 5350   3.216  15.075   4.505 -0.6433  0.3203  0.0547
  238ccc     C2 5351   3.166  14.987   4.693 -0.1246 -0.1955  0.0022
  238ccc     H3 5352   3.166  14.881   4.665 -0.4126  0.1504 -1.3727
  238ccc     H4 5353   3.188  14.996   4.800  0.9217  0.5330 -0.2569
  238ccc     C3 5354   3.022  15.034   4.661  0.2592 -0.3355  0.4364
  238ccc     H5 5355   3.008  15.024   4.553  0.9440  1.3897  0.1581
  238ccc     H6 5356   3.028  15.139   4.690  0.0527  0.2336 -1.4749
  238ccc     N1 5357   3.393  15.011   4.600 -0.3492  0.3741  0.2186
  238ccc     H7 5358   3.384  14.919   4.555 -2.0527 -1.3610  3.7009
  238ccc     H8 5359   3.459  15.077   4.557  0.2165  1.2834  2.3505
  238ccc     O1 5360   2.928  14.960   4.732  0.1507  0.3462 -0.3480
  238ccc    H17 5361   3.420  14.993   4.698 -2.0932  2.8650  1.2671
  239ccc     C1 5362   2.393  15.305   5.559  0.2070  0.4270  0.2586
  239ccc     H1 5363   2.402  15.231   5.638  1.1134 -0.5861 -0.7667
  239ccc     H2 5364   2.335  15.270   5.474 -0.0385  2.2346 -0.3719
  239ccc     C2 5365   2.536  15.333   5.526 -0.0526 -0.6299  0.5464
  239ccc     H3 5366   2.531  15.424   5.466 -1.6078  0.3480  2.0632
  239ccc     H4 5367   2.584  15.363   5.620 -1.7364 -1.6644  1.8108
  239ccc     C3 5368   2.619  15.218   5.469 -0.7270  0.4796 -0.4748
  239ccc     H5 5369   2.598  15.131   5.532 -0.7523 -0.0430 -1.1917
  239ccc     H6 5370   2.726  15.239   5.456 -0.5745  0.4674  0.6986
  239ccc     N1 5371   2.323  15.417   5.623 -0.0027 -0.0253 -0.7545
  239ccc     H7 5372   2.305  15.489   5.551  1.2796  0.1207 -0.9648
  239ccc     H8 5373   2.241  15.374   5.668 -1.6907  1.5031 -2.1779
  239ccc     O1 5374   2.562  15.180   5.344  0.3602  0.7003  0.2436
  239ccc    H17 5375   2.387  15.451   5.696 -0.7351 -0.3701  0.0548
  240ccc     C1 5376   1.426  14.963   5.524  0.9960 -0.0042  0.2353
  240ccc     H1 5377   1.486  14.915   5.446  0.2371 -2.1385  0.8956
  240ccc     H2 5378   1.493  14.964   5.610  1.0390  0.9219  0.1952
  240ccc     C2 5379   1.294  14.891   5.556 -0.2752 -0.3122  0.2118
  240ccc     H3 5380   1.324  14.797   5.605  1.8576  1.0165  1.6327
  240ccc     H4 5381   1.228  14.935   5.631 -0.6636 -1.5846  0.6435
  240ccc     C3 5382   1.205  14.847   5.438  0.8424  0.0267 -0.4952
  240ccc     H5 5383   1.175  14.932   5.376 -0.9144  0.0507  0.3236
  240ccc     H6 5384   1.118  14.807   5.491  1.3555  1.9097  1.9313
  240ccc     N1 5385   1.403  15.110   5.496  0.3979 -0.1563  0.0192
  240ccc     H7 5386   1.342  15.155   5.565  0.3978 -0.7761  0.4240
  240ccc     H8 5387   1.489  15.167   5.490 -0.4019  0.9601 -1.5458
  240ccc     O1 5388   1.282  14.755   5.358 -0.5984  0.8626  0.2650
  240ccc    H17 5389   1.353  15.124   5.407 -2.8186 -0.2350  1.6758
  241ccc     C1 5390   1.008  14.329   4.463  0.1431  0.1801  0.0992
  241ccc     H1 5391   1.072  14.274   4.393  0.8146  2.9501 -1.6131
  241ccc     H2 5392   0.951  14.405   4.411 -0.1616 -1.0660 -1.4586
  241ccc     C2 5393   1.104  14.378   4.571  0.0281 -0.4267 -0.4625
  241ccc     H3 5394   1.063  14.365   4.672  2.1451 -0.9152  0.3884
  241ccc     H4 5395   1.188  14.307   4.575 -0.6896 -1.2321  1.6787
  241ccc     C3 5396   1.154  14.529   4.543 -0.6663  0.5109  0.4749
  241ccc     H5 5397   1.077  14.606   4.531 -0.8596  0.3893  0.9102
  241ccc     H6 5398   1.217  14.517   4.454 -0.3148 -1.1251  0.9063
  241ccc     N1 5399   0.900  14.232   4.511 -0.2340 -0.0721 -0.8989
  241ccc     H7 5400   0.847  14.211   4.425  0.0789  3.6025 -2.1768
  241ccc     H8 5401   0.942  14.150   4.558 -2.4187 -1.3057 -0.9691
  241ccc     O1 5402   1.242  14.569   4.646 -0.1467  0.0572  0.7589
  241ccc    H17 5403   0.842  14.267   4.588 -2.5509 -0.2911 -2.4614
  242ccc     C1 5404   3.211  14.198   5.089  0.0780 -0.4255  0.3163
  242ccc     H1 5405   3.155  14.270   5.029 -0.0746  0.4000  1.4355
  242ccc     H2 5406   3.161  14.165   5.180 -0.2643  2.1505  1.1343
  242ccc     C2 5407   3.349  14.258   5.129  1.2397  0.0016 -0.2119
  242ccc     H3 5408   3.410  14.191   5.192  0.3359 -0.8193 -0.2030
  242ccc     H4 5409   3.417  14.276   5.045  2.6401  0.3211  0.9389
  242ccc     C3 5410   3.330  14.389   5.205  0.4873 -0.3802  0.4873
  242ccc     H5 5411   3.292  14.464   5.134 -0.0972 -0.5465  0.6270
  242ccc     H6 5412   3.421  14.427   5.253 -0.4961  3.1466 -0.1499
  242ccc     N1 5413   3.220  14.069   5.009  0.9222 -0.1541 -0.4756
  242ccc     H7 5414   3.128  14.056   4.965  0.7974 -2.8774  0.3903
  242ccc     H8 5415   3.279  14.071   4.925 -0.7274  0.4632 -1.6844
  242ccc     O1 5416   3.234  14.371   5.307  0.0213  0.6302  0.1054
  242ccc    H17 5417   3.241  13.978   5.052  0.3299 -0.9496 -1.7900
  243ccc     C1 5418   3.566  14.738   6.104  0.6933 -0.2117 -0.1839
  243ccc     H1 5419   3.569  14.662   6.025 -0.7989 -2.6411  1.9254
  243ccc     H2 5420   3.528  14.708   6.202  0.2777  1.1926  0.0943
  243ccc     C2 5421   3.450  14.833   6.063  0.0721 -0.2218  0.0927
  243ccc     H3 5422   3.450  14.922   6.127 -1.7306 -1.4926  1.9742
  243ccc     H4 5423   3.480  14.865   5.962  1.2829 -1.8764 -0.1056
  243ccc     C3 5424   3.304  14.777   6.057 -0.1692  0.4030  0.3565
  243ccc     H5 5425   3.240  14.859   6.022 -0.8998  1.1571  3.2534
  243ccc     H6 5426   3.265  14.752   6.156 -1.3041 -1.4500 -0.4854
  243ccc     N1 5427   3.696  14.813   6.111 -0.2796  0.3174 -0.0249
  243ccc     H7 5428   3.695  14.912   6.141 -0.0711 -0.0880  1.4014
  243ccc     H8 5429   3.769  14.766   6.166 -0.3834 -2.3525 -1.9654
  243ccc     O1 5430   3.296  14.673   5.961  0.0458 -0.4096  0.4355
  243ccc    H17 5431   3.733  14.814   6.015  0.7724  0.4035  0.3789
  244ccc     C1 5432   2.132  14.956   6.494  0.5794 -0.4827  0.0876
  244ccc     H1 5433   2.228  14.948   6.546  0.0764  1.3892  1.3852
  244ccc     H2 5434   2.087  14.861   6.525  1.7743 -1.8002 -1.9064
  244ccc     C2 5435   2.148  14.972   6.336  0.3537  0.1728 -0.5611
  244ccc     H3 5436   2.046  14.959   6.299  0.1380 -2.6548  0.7372
  244ccc     H4 5437   2.177  15.073   6.307 -2.0457  0.4800 -2.1389
  244ccc     C3 5438   2.229  14.856   6.275 -0.1761 -0.2503 -0.4328
  244ccc     H5 5439   2.331  14.855   6.316 -1.4346  0.5187  3.1150
  244ccc     H6 5440   2.224  14.881   6.168 -0.1779 -0.4310 -0.4744
  244ccc     N1 5441   2.047  15.060   6.548 -0.8570  0.2057 -0.1256
  244ccc     H7 5442   2.071  15.152   6.509  1.7870 -0.9678 -1.5218
  244ccc     H8 5443   1.946  15.044   6.541 -0.7630 -0.1415 -0.8491
  244ccc     O1 5444   2.159  14.732   6.299  0.2746 -0.0044 -0.3018
  244ccc    H17 5445   2.071  15.068   6.648 -1.5334  0.8198 -0.0066
  245ccc     C1 5446   1.793  13.820   6.345 -0.0738 -0.5034  0.0667
  245ccc     H1 5447   1.851  13.905   6.381 -0.5895 -0.1036 -0.0378
  245ccc     H2 5448   1.857  13.746   6.297  1.3087  1.1677 -0.7863
  245ccc     C2 5449   1.705  13.878   6.237 -0.3434  0.1265 -0.1655
  245ccc     H3 5450   1.634  13.800   6.209  1.0664 -1.3547  0.2547
  245ccc     H4 5451   1.651  13.957   6.290  0.3313  0.2494  0.3494
  245ccc     C3 5452   1.772  13.929   6.105  0.5094  0.0685  0.1786
  245ccc     H5 5453   1.724  13.898   6.011  1.6795 -0.4977 -0.2639
  245ccc     H6 5454   1.879  13.909   6.090  0.2529 -0.4990 -1.0182
  245ccc     N1 5455   1.726  13.770   6.472  0.5841  0.5306 -0.1146
  245ccc     H7 5456   1.662  13.689   6.467 -1.2451  1.7176  2.0920
  245ccc     H8 5457   1.797  13.741   6.541  0.3687 -0.2359 -0.1945
  245ccc     O1 5458   1.756  14.067   6.105  0.1140  0.1259 -1.0544
  245ccc    H17 5459   1.670  13.843   6.517 -2.0383 -1.0940 -0.5022
  246ccc     C1 5460   0.451  11.943   5.205  0.0982  0.2939  0.0193
  246ccc     H1 5461   0.451  11.964   5.098  0.5899 -0.2539 -0.0940
  246ccc     H2 5462   0.352  11.971   5.242 -2.1043 -2.0239 -3.5555
  246ccc     C2 5463   0.568  12.029   5.273  0.1380  0.1255 -0.7022
  246ccc     H3 5464   0.581  11.989   5.374 -0.1673  0.1919 -0.6350
  246ccc     H4 5465   0.667  12.020   5.227  0.7364  2.1749  0.0639
  246ccc     C3 5466   0.524  12.177   5.276 -0.3683  0.4660 -0.0352
  246ccc     H5 5467   0.610  12.238   5.307 -1.6486  3.0771 -1.3128
  246ccc     H6 5468   0.443  12.187   5.349  1.2829  1.2555  1.7683
  246ccc     N1 5469   0.462  11.796   5.233  0.3175 -0.0493 -0.6076
  246ccc     H7 5470   0.379  11.756   5.188 -0.2282  0.2595  0.1107
  246ccc     H8 5471   0.536  11.744   5.183 -0.0760 -1.5561  0.3355
  246ccc     O1 5472   0.479  12.209   5.140  0.4024 -0.7874 -1.1774
  246ccc    H17 5473   0.447  11.775   5.333 -1.4334 -2.1638 -1.2505
  247ccc     C1 5474   0.922  11.909   4.739  0.3423 -0.7348 -0.0817
  247ccc     H1 5475   0.886  11.929   4.841 -1.3072  0.6432 -0.8665
  247ccc     H2 5476   0.938  12.002   4.685 -1.0002  0.0156  0.7261
  247ccc     C2 5477   0.811  11.834   4.655  0.2702  0.4717 -0.3737
  247ccc     H3 5478   0.855  11.799   4.561  2.2201 -1.1872  1.0570
  247ccc     H4 5479   0.798  11.737   4.705  0.2424 -0.0194 -1.3083
  247ccc     C3 5480   0.677  11.907   4.658  1.0227  0.1588  0.3885
  247ccc     H5 5481   0.651  11.942   4.758 -2.5984  1.2470 -0.7616
  247ccc     H6 5482   0.591  11.845   4.629  0.9284  0.6161 -0.3510
  247ccc     N1 5483   1.042  11.821   4.752  0.6055 -0.5145 -0.4792
  247ccc     H7 5484   1.120  11.871   4.797  0.8170 -2.5638  1.6010
  247ccc     H8 5485   1.023  11.741   4.814  0.7208  0.0394  0.2935
  247ccc     O1 5486   0.701  12.008   4.567  0.2642 -0.5517  0.3167
  247ccc    H17 5487   1.076  11.782   4.663 -0.2310 -2.1370 -0.1227
  248ccc     C1 5488   0.245  13.774   4.114 -0.4666 -0.5869 -0.4075
  248ccc     H1 5489   0.279  13.870   4.152 -1.0830 -1.0811  1.5046
  248ccc     H2 5490   0.186  13.785   4.023 -0.4221 -2.1552 -0.6588
  248ccc     C2 5491   0.158  13.708   4.229  0.0100  0.7676 -0.0146
  248ccc     H3 5492   0.070  13.771   4.247 -1.1157 -1.4591  2.9751
  248ccc     H4 5493   0.125  13.608   4.198  1.1478  1.0792 -2.4979
  248ccc     C3 5494   0.232  13.689   4.368 -0.5944 -0.3137 -0.2431
  248ccc     H5 5495   0.157  13.679   4.447  0.4483  1.6453  1.0941
  248ccc     H6 5496   0.279  13.786   4.391  0.7209 -1.0216  0.1709
  248ccc     N1 5497   0.363  13.695   4.071  1.1813  0.0566 -0.3270
  248ccc     H7 5498   0.344  13.594   4.057  1.1055 -0.4540  2.8451
  248ccc     H8 5499   0.396  13.730   3.980  0.4976  1.8169  0.0755
  248ccc     O1 5500   0.325  13.579   4.373 -0.5476  0.2720  0.4336
  248ccc    H17 5501   0.436  13.706   4.143  0.3804 -1.2525  0.7166
  249ccc     C1 5502   1.319  13.631   4.710  0.0857  0.5341 -0.1006
  249ccc     H1 5503   1.418  13.613   4.668 -0.2742 -0.1778 -0.6695
  249ccc     H2 5504   1.264  13.537   4.714 -0.3917  0.8023 -0.2970
  249ccc     C2 5505   1.250  13.707   4.592 -0.0820  0.0120 -0.3457
  249ccc     H3 5506   1.156  13.740   4.636  0.2778 -1.1101  1.3547
  249ccc     H4 5507   1.311  13.793   4.563 -0.2475  0.2086 -0.1151
  249ccc     C3 5508   1.225  13.622   4.464  0.0744  0.7212  0.8850
  249ccc     H5 5509   1.315  13.565   4.438  1.2234  1.4395  3.1436
  249ccc     H6 5510   1.203  13.695   4.385 -1.4665  0.4736  1.0435
  249ccc     N1 5511   1.323  13.698   4.843  0.0377 -0.1801 -0.0272
  249ccc     H7 5512   1.394  13.773   4.843 -0.5667  0.4227 -1.0137
  249ccc     H8 5513   1.238  13.750   4.871  0.9892  0.4101  2.0118
  249ccc     O1 5514   1.113  13.538   4.487 -0.5974 -0.0230  0.3163
  249ccc    H17 5515   1.352  13.639   4.922  1.8318  1.0605  0.3053
  250ccc     C1 5516  -0.131  11.556   6.227  0.1896  0.5721  0.1723
  250ccc     H1 5517  -0.101  11.515   6.131  2.3103  0.2538  0.9218
  250ccc     H2 5518  -0.237  11.534   6.241 -0.3101  1.7906 -1.3988
  250ccc     C2 5519  -0.107  11.707   6.215  0.4546 -0.5156  0.2875
  250ccc     H3 5520  -0.129  11.764   6.306  0.1480  0.5382 -0.4272
  250ccc     H4 5521   0.000  11.724   6.199  0.6317 -1.5441  0.3158
  250ccc     C3 5522  -0.194  11.752   6.096 -0.1371  0.6120  0.5079
  250ccc     H5 5523  -0.296  11.713   6.111  0.2829 -1.1525 -0.9292
  250ccc     H6 5524  -0.146  11.706   6.009  1.7443  1.7116  0.9020
  250ccc     N1 5525  -0.041  11.490   6.335 -0.6118  0.0186  0.3770
  250ccc     H7 5526  -0.063  11.390   6.335 -0.4929 -0.0129 -0.4622
  250ccc     H8 5527   0.057  11.505   6.305 -0.6243 -2.3418 -1.0485
  250ccc     O1 5528  -0.197  11.897   6.092 -0.2595  0.5743  0.1025
  250ccc    H17 5529  -0.049  11.534   6.427  0.6073 -0.2340  0.6257
  251ccc     C1 5530  -0.718  12.690   5.811 -0.4981  0.4497  0.0660
  251ccc     H1 5531  -0.676  12.628   5.733  1.7305 -3.0161  3.6410
  251ccc     H2 5532  -0.694  12.796   5.801  0.7370  0.1807  0.0917
  251ccc     C2 5533  -0.664  12.635   5.942  0.5649  0.2015  0.0085
  251ccc     H3 5534  -0.691  12.701   6.026  2.9536  1.8133 -0.4022
  251ccc     H4 5535  -0.704  12.534   5.957  1.2758 -0.2913 -1.2793
  251ccc     C3 5536  -0.515  12.641   5.942 -0.0751 -0.2660  0.9354
  251ccc     H5 5537  -0.488  12.746   5.954 -2.3095  0.6177 -0.8694
  251ccc     H6 5538  -0.489  12.612   5.839 -1.9277  1.5185 -0.1145
  251ccc     N1 5539  -0.863  12.663   5.804 -0.5031 -0.7030  0.6904
  251ccc     H7 5540  -0.912  12.695   5.888  0.7031  1.9655  0.4537
  251ccc     H8 5541  -0.909  12.699   5.719 -0.4274 -1.9003  0.1164
  251ccc     O1 5542  -0.451  12.556   6.039  0.3847 -0.0549  0.4924
  251ccc    H17 5543  -0.875  12.561   5.797  2.9227 -1.1505 -1.1383
  252ccc     C1 5544  -0.205  13.471   5.435 -1.7150 -0.3485  0.6048
  252ccc     H1 5545  -0.307  13.433   5.446 -0.9590 -2.3876  0.9978
  252ccc     H2 5546  -0.147  13.379   5.424 -2.3091 -0.5710 -0.9127
  252ccc     C2 5547  -0.167  13.555   5.560  0.5719 -0.3565 -0.2770
  252ccc     H3 5548  -0.058  13.566   5.547  0.5499  0.2050  0.0097
  252ccc     H4 5549  -0.214  13.653   5.556  0.6084 -0.3857 -2.5179
  252ccc     C3 5550  -0.196  13.489   5.693 -0.0390 -0.1784 -0.7485
  252ccc     H5 5551  -0.143  13.393   5.706  1.4438  0.5389 -1.2594
  252ccc     H6 5552  -0.304  13.472   5.694 -0.0091 -0.9086 -3.0492
  252ccc     N1 5553  -0.204  13.560   5.311  0.0366  0.0815 -0.2549
  252ccc     H7 5554  -0.282  13.627   5.308 -0.7493 -0.8405 -1.5785
  252ccc     H8 5555  -0.116  13.611   5.301 -0.7022  2.4101  3.2728
  252ccc     O1 5556  -0.148  13.566   5.802 -0.4907  0.3478 -0.5939
  252ccc    H17 5557  -0.221  13.500   5.229 -0.3440  2.0797 -1.7170
  253ccc     C1 5558  -0.350  14.167   5.876  0.2626  0.5274 -0.6352
  253ccc     H1 5559  -0.304  14.222   5.794  3.1478 -0.1856  0.3910
  253ccc     H2 5560  -0.354  14.236   5.960  1.5710  0.5453 -0.5785
  253ccc     C2 5561  -0.265  14.043   5.916  0.1168  0.0594  0.6730
  253ccc     H3 5562  -0.325  13.990   5.992  0.7232 -0.6379  0.6732
  253ccc     H4 5563  -0.247  13.979   5.829  0.6484  0.1182  0.7400
  253ccc     C3 5564  -0.121  14.085   5.958  0.6484 -0.7359 -1.0208
  253ccc     H5 5565  -0.120  14.162   6.036  1.9839  0.4382 -2.1359
  253ccc     H6 5566  -0.063  14.137   5.880  3.1206 -1.7669  0.0099
  253ccc     N1 5567  -0.489  14.136   5.828  0.0743 -0.1826  0.6238
  253ccc     H7 5568  -0.548  14.088   5.898  0.7112  0.3948  1.5931
  253ccc     H8 5569  -0.532  14.217   5.780 -0.7281 -0.5031  0.7917
  253ccc     O1 5570  -0.054  13.970   6.003 -0.1567  0.1481 -0.2280
  253ccc    H17 5571  -0.486  14.065   5.753  1.8559  0.9596 -0.4399
  254SOL     OW 5572   6.770   2.600   6.589  0.5332 -0.0243  0.0721
  254SOL    HW1 5573   6.680   2.569   6.599  0.0364  0.1025 -2.9495
  254SOL    HW2 5574   6.763   2.672   6.525  2.7207  0.3477  0.1804
  255SOL     OW 5575   6.674   5.734   9.159 -0.1517 -0.3836 -0.1220
  255SOL    HW1 5576   6.653   5.823   9.132 -0.8355 -0.3078  0.6339
  255SOL    HW2 5577   6.769   5.734   9.172  0.0112 -0.0762 -1.2115
  256SOL     OW 5578   8.478   0.621   5.971  0.2892 -0.0101 -0.3895
  256SOL    HW1 5579   8.555   0.669   5.999  0.5885 -1.0859  0.7363
  256SOL    HW2 5580   8.506   0.529   5.969 -0.7003 -0.3183 -0.8605
  257SOL     OW 5581  10.936   1.211   8.112  0.4516 -0.0058 -0.5199
  257SOL    HW1 5582  10.981   1.256   8.040  0.5462  1.4518  0.4125
  257SOL    HW2 5583  10.860   1.171   8.071 -0.8238  2.7936 -1.1175
  258SOL     OW 5584   0.704   8.478   0.231  0.3136 -0.1739 -0.0340
  258SOL    HW1 5585   0.750   8.521   0.159  0.0499  0.8586  0.3892
  258SOL    HW2 5586   0.686   8.549   0.293  1.1500 -1.1573  1.3826
  259SOL     OW 5587  12.111  11.506   3.268 -0.4450 -0.1702  0.4523
  259SOL    HW1 5588  12.102  11.573   3.200  0.4022  0.5534  1.0430
  259SOL    HW2 5589  12.023  11.500   3.307 -1.5780 -2.1872 -2.1112
  260SOL     OW 5590  10.232   4.821   0.830  0.0673 -0.5158 -0.5100
  260SOL    HW1 5591  10.213   4.914   0.839  0.4271 -0.6454  2.4697
  260SOL    HW2 5592  10.187   4.796   0.749 -2.3714  1.6602  0.0236
  261SOL     OW 5593  10.188   7.892   1.893  0.4904 -0.2500 -0.5834
  261SOL    HW1 5594  10.240   7.862   1.819  1.5075  0.7656 -0.3104
  261SOL    HW2 5595  10.149   7.974   1.863 -1.2082 -1.1155 -0.8737
  262SOL     OW 5596  12.629   4.212   5.753 -0.5969 -0.2048 -0.3729
  262SOL    HW1 5597  12.706   4.187   5.803  1.5030  2.0684 -2.1959
  262SOL    HW2 5598  12.574   4.260   5.815  0.9909  0.8573  0.2776
  263SOL     OW 5599  11.258   5.989   6.321  0.1397  0.0945  0.2383
  263SOL    HW1 5600  11.252   5.900   6.356 -0.3546 -0.2390 -0.6378
  263SOL    HW2 5601  11.350   6.014   6.335  0.9224 -1.4628 -1.5386
  264SOL     OW 5602  10.942   7.812   2.349 -0.2959  0.3758  0.4935
  264SOL    HW1 5603  10.996   7.788   2.424 -1.2046  1.8803  1.6673
  264SOL    HW2 5604  10.888   7.734   2.333 -0.6337  0.3015  1.8972
  265SOL     OW 5605   1.151   6.331   9.543  0.5965  0.0776  0.3010
  265SOL    HW1 5606   1.068   6.293   9.515 -0.0386 -0.3193  2.5263
  265SOL    HW2 5607   1.143   6.340   9.638  2.1480  2.4011  0.3047
  266SOL     OW 5608   9.767   5.195   8.821 -0.2985  0.7661 -0.1212
  266SOL    HW1 5609   9.786   5.287   8.802 -0.0260  0.5933 -0.7138
  266SOL    HW2 5610   9.672   5.189   8.817 -0.4063  1.2818  1.1799
  267SOL     OW 5611   1.218   4.500   3.754 -0.0738 -0.4004  0.0100
  267SOL    HW1 5612   1.144   4.546   3.793 -0.1781  0.0276 -0.6907
  267SOL    HW2 5613   1.226   4.420   3.807 -1.5562 -0.8562 -0.4004
  268SOL     OW 5614   0.398  11.845   4.449  0.3508 -0.5423 -0.7778
  268SOL    HW1 5615   0.433  11.756   4.462 -1.8297 -1.5835 -1.5032
  268SOL    HW2 5616   0.303  11.834   4.458  0.1090  1.9967  0.4306
  269SOL     OW 5617   3.721   9.526  12.129 -0.1320 -0.2147  0.3807
  269SOL    HW1 5618   3.753   9.579  12.055 -1.8552  0.6834  0.2227
  269SOL    HW2 5619   3.725   9.436  12.098 -0.3179  0.1135 -0.6258
  270SOL     OW 5620  10.911   8.090   9.033 -0.1081  0.0887 -0.1126
  270SOL    HW1 5621  10.933   8.089   8.940 -0.2816  1.5942 -0.1981
  270SOL    HW2 5622  10.993   8.069   9.077 -0.0075 -0.5640 -0.5929
  271SOL     OW 5623   2.559   4.895   5.936 -0.0044 -0.4525 -0.1519
  271SOL    HW1 5624   2.524   4.945   5.862 -0.1103  0.4399  0.4789
  271SOL    HW2 5625   2.611   4.959   5.985 -0.1832 -0.9476  0.7021
  272SOL     OW 5626   3.956   6.846   2.057 -0.3904 -0.4142  0.2907
  272SOL    HW1 5627   3.888   6.779   2.059  0.6479 -1.4987  0.9619
  272SOL    HW2 5628   3.951   6.888   2.143  1.6329 -2.4987  1.5390
  273SOL     OW 5629   3.001   9.993   5.989  0.0152 -0.2699  0.1619
  273SOL    HW1 5630   3.084  10.023   6.025  1.1242 -0.5947 -1.9423
  273SOL    HW2 5631   2.960  10.072   5.953  0.6882 -0.5033 -1.1524
  274SOL     OW 5632  10.890   9.841   1.804 -0.3465 -0.0939 -0.1207
  274SOL    HW1 5633  10.914   9.803   1.888 -1.5852 -0.0001  0.2933
  274SOL    HW2 5634  10.954   9.806   1.743  1.3496  0.8087  1.0628
  275SOL     OW 5635   4.062   8.671   7.108  0.3307 -0.0195  0.0673
  275SOL    HW1 5636   4.158   8.669   7.098  0.5404  0.1970  1.7846
  275SOL    HW2 5637   4.035   8.580   7.093  0.7769 -0.0574 -0.5638
  276SOL     OW 5638   2.513   4.832  10.971 -0.1316 -0.2522  0.8457
  276SOL    HW1 5639   2.503   4.817  11.065  0.9478 -0.1098  0.9983
  276SOL    HW2 5640   2.424   4.831  10.936 -0.5658  0.0504  1.9267
  277SOL     OW 5641   0.907   7.715  11.103 -0.2123 -0.3161 -0.2451
  277SOL    HW1 5642   0.857   7.714  11.184 -0.1484  2.5940 -0.0625
  277SOL    HW2 5643   0.985   7.663  11.122 -0.7436 -0.6240  1.1735
  278SOL     OW 5644   1.188  11.353   3.968  0.1639  0.0730  0.0915
  278SOL    HW1 5645   1.166  11.289   3.900  0.5591 -0.4925  0.4873
  278SOL    HW2 5646   1.264  11.399   3.933  0.6799 -0.5613  0.3567
  279SOL     OW 5647   0.838   2.280   4.703 -0.1664 -0.6221 -0.0893
  279SOL    HW1 5648   0.799   2.299   4.617  0.5694 -0.2262 -0.3443
  279SOL    HW2 5649   0.931   2.266   4.684 -0.0247 -0.6665  0.6300
  280SOL     OW 5650  12.519   7.084   9.486  0.2359  0.2929  0.4766
  280SOL    HW1 5651  12.477   7.139   9.551  0.0269  3.6047 -2.1764
  280SOL    HW2 5652  12.446   7.050   9.433  0.5016 -0.8692  0.8268
  281SOL     OW 5653   1.752   9.791   0.737  0.2611 -0.0188 -0.4356
  281SOL    HW1 5654   1.674   9.828   0.695 -1.1487  0.1619  2.1210
  281SOL    HW2 5655   1.766   9.708   0.692 -1.2295  0.0952 -1.1805
  282SOL     OW 5656  10.632   2.488   0.166  0.0560  0.3415  0.3712
  282SOL    HW1 5657  10.567   2.421   0.188  0.6499 -0.2333  0.4069
  282SOL    HW2 5658  10.631   2.548   0.240 -0.2179  0.1657  0.5103
  283SOL     OW 5659  11.318   5.779   1.280  0.2729  0.4878 -0.8930
  283SOL    HW1 5660  11.352   5.864   1.308  0.3564  0.7982 -1.9258
  283SOL    HW2 5661  11.230   5.798   1.247  0.1641  0.1137 -0.8235
  284SOL     OW 5662   7.338   7.383   8.326 -0.0840  0.0551 -0.5169
  284SOL    HW1 5663   7.376   7.306   8.367 -0.5885 -0.0066 -0.1677
  284SOL    HW2 5664   7.244   7.374   8.339 -0.2432  0.0999 -1.5725
  285SOL     OW 5665   7.422   2.496  11.624 -0.2697  0.2201  0.0022
  285SOL    HW1 5666   7.349   2.554  11.602  0.1103  0.2116 -1.3797
  285SOL    HW2 5667   7.430   2.437  11.549  0.7610 -0.1902  0.4082
  286SOL     OW 5668   3.910   5.002   1.689 -0.0508  0.7430  0.4395
  286SOL    HW1 5669   3.998   5.024   1.657  0.1736 -0.8021 -0.0946
  286SOL    HW2 5670   3.924   4.973   1.779  0.3955 -1.7562 -0.3489
  287SOL     OW 5671   4.929   5.682  10.291  0.0085  0.0082  0.0303
  287SOL    HW1 5672   4.879   5.681  10.209 -0.0356 -3.1115 -0.0362
  287SOL    HW2 5673   4.863   5.688  10.359 -0.2024 -0.4657 -0.1266
  288SOL     OW 5674   6.227   1.062   4.669  0.0905  0.3781 -0.3868
  288SOL    HW1 5675   6.301   1.040   4.727 -0.4918  0.4980  0.4193
  288SOL    HW2 5676   6.162   1.101   4.728 -0.9614 -0.4900 -0.9347
  289SOL     OW 5677   5.182  11.764  12.637 -0.0637 -0.3724 -0.5937
  289SOL    HW1 5678   5.130  11.805  12.568 -2.3310 -1.5237  0.3308
  289SOL    HW2 5679   5.140  11.679  12.652  1.6836 -1.0764  0.7172
  290SOL     OW 5680  11.995   0.904  11.076 -0.2942 -0.0199  0.2777
  290SOL    HW1 5681  12.036   0.821  11.100  1.2634  0.2436 -1.2454
  290SOL    HW2 5682  11.904   0.881  11.057  0.0224 -1.3101  0.1961
  291SOL     OW 5683   7.644  11.630   8.973  0.0808 -0.3272  0.1219
  291SOL    HW1 5684   7.642  11.665   8.884  0.4375 -1.4061 -0.3309
  291SOL    HW2 5685   7.552  11.622   8.998 -0.0107  0.6555  0.1375
  292SOL     OW 5686   3.384  10.808   6.749  0.0098  0.2996 -0.4981
  292SOL    HW1 5687   3.305  10.826   6.698 -0.6728  0.3110  0.5269
  292SOL    HW2 5688   3.416  10.724   6.717  1.2154  1.5651 -2.8878
  293SOL     OW 5689   2.583   8.289   8.594 -1.1058 -0.8116 -0.3595
  293SOL    HW1 5690   2.613   8.238   8.669  0.3539  0.3174 -0.1331
  293SOL    HW2 5691   2.557   8.223   8.529 -1.2618 -1.8094  0.6750
  294SOL     OW 5692  10.387   2.423   3.902 -0.6249  0.1969  0.3199
  294SOL    HW1 5693  10.464   2.370   3.884 -0.5170  0.4472  0.0214
  294SOL    HW2 5694  10.417   2.490   3.963 -0.4381  0.6955 -0.3109
  295SOL     OW 5695   0.434   7.394   2.141  0.2395  0.1070  0.3868
  295SOL    HW1 5696   0.344   7.422   2.157 -0.4877 -2.4107  1.0277
  295SOL    HW2 5697   0.479   7.412   2.223  0.8444  2.8343 -0.4036
  296SOL     OW 5698  12.480  10.790   9.998 -0.1363  0.0004 -0.0641
  296SOL    HW1 5699  12.499  10.815  10.089  1.3572  0.0603 -0.3586
  296SOL    HW2 5700  12.480  10.694   9.999 -0.9334 -0.0007  0.1457
  297SOL     OW 5701   3.218  10.874   3.853  0.1707 -0.2085  0.0424
  297SOL    HW1 5702   3.211  10.880   3.758 -0.0865 -0.5357  0.0383
  297SOL    HW2 5703   3.259  10.956   3.880 -0.9714  0.4605 -0.2250
  298SOL     OW 5704   4.567  10.229  12.554 -0.1553  0.8516 -0.1597
  298SOL    HW1 5705   4.631  10.191  12.494 -0.7503  0.5938 -0.6462
  298SOL    HW2 5706   4.487  10.237  12.502 -0.3563  1.7322  0.2639
  299SOL     OW 5707   8.656   6.886  11.451  0.3854 -0.3137  0.3723
  299SOL    HW1 5708   8.661   6.851  11.540 -0.4413 -0.5597  0.3302
  299SOL    HW2 5709   8.592   6.831  11.407 -1.0683  1.3108  0.3515
  300SOL     OW 5710  10.189  12.358   5.223  0.1042 -0.1528  0.1203
  300SOL    HW1 5711  10.197  12.321   5.311  0.1945 -0.9051 -0.1909
  300SOL    HW2 5712  10.095  12.366   5.208  0.0974  1.1034  0.7293
  301SOL     OW 5713  10.580   4.794   6.114  0.3344  0.4772 -0.1838
  301SOL    HW1 5714  10.600   4.747   6.195  1.1492  0.9874 -0.0716
  301SOL    HW2 5715  10.485   4.792   6.108  0.2263  0.9046  1.0839
  302SOL     OW 5716   9.494   1.303   4.635  0.8807 -0.1923 -0.3436
  302SOL    HW1 5717   9.509   1.209   4.632 -0.8051 -0.4796 -0.5305
  302SOL    HW2 5718   9.459   1.326   4.549 -0.8337  0.1792  0.3994
  303SOL     OW 5719  10.651   7.268   1.336  0.7033  0.4090 -0.1935
  303SOL    HW1 5720  10.597   7.198   1.301  0.7572  0.6975 -0.8730
  303SOL    HW2 5721  10.634   7.343   1.279 -0.0529  1.2326  1.0641
  304SOL     OW 5722   0.897   2.709   7.248 -0.4134 -0.0201  0.6498
  304SOL    HW1 5723   0.930   2.779   7.191  0.3739 -0.1779  0.8871
  304SOL    HW2 5724   0.976   2.662   7.275 -0.9249 -0.9273  0.5902
  305SOL     OW 5725   9.353   0.813   7.990 -0.0407  0.2519  0.3877
  305SOL    HW1 5726   9.299   0.813   8.070 -1.2632  0.3267 -0.4072
  305SOL    HW2 5727   9.419   0.880   8.006  0.7219 -0.8223  1.9649
  306SOL     OW 5728  11.577   5.983   3.524  0.5270  0.6825 -0.0605
  306SOL    HW1 5729  11.651   5.983   3.464 -0.7221 -0.4461 -1.7097
  306SOL    HW2 5730  11.593   5.910   3.584  0.9250  0.6982 -0.1480
  307SOL     OW 5731   4.923   7.503   4.818 -0.3951  0.2798  0.0035
  307SOL    HW1 5732   4.938   7.428   4.760 -1.7659  0.6048 -0.8001
  307SOL    HW2 5733   4.970   7.480   4.898 -0.3751 -1.2286 -0.4033
  308SOL     OW 5734   6.853   4.503   7.951 -0.1523  0.3080  0.0453
  308SOL    HW1 5735   6.829   4.591   7.980  0.1896  0.1000  1.0113
  308SOL    HW2 5736   6.906   4.516   7.872 -1.4546  0.8808 -0.7633
  309SOL     OW 5737   5.904   1.127   7.860 -0.1105  0.1544  0.3344
  309SOL    HW1 5738   5.820   1.081   7.867 -0.9014  0.9010 -2.6570
  309SOL    HW2 5739   5.880   1.220   7.861  0.8731  0.4187  0.8221
  310SOL     OW 5740   5.417   0.418  11.975 -0.2423 -0.3297 -0.0557
  310SOL    HW1 5741   5.495   0.456  12.014  0.3422  2.9888 -3.7586
  310SOL    HW2 5742   5.449   0.345  11.922  0.1276  0.0904 -0.4110
  311SOL     OW 5743  10.558   7.514   9.979 -0.5771  0.2380  0.1091
  311SOL    HW1 5744  10.494   7.564   9.928  1.0128 -0.4212 -2.7616
  311SOL    HW2 5745  10.643   7.544   9.947  0.5347 -0.3981  2.2936
  312SOL     OW 5746   5.112  11.871   3.867 -0.4531  0.2721  0.4916
  312SOL    HW1 5747   5.095  11.906   3.779 -2.4856  2.0955  1.5128
  312SOL    HW2 5748   5.193  11.913   3.894 -0.2419  0.3243 -0.1892
  313SOL     OW 5749   4.231   5.552   9.811 -0.6772 -0.5514  0.0025
  313SOL    HW1 5750   4.249   5.637   9.849  1.0446 -0.8065 -0.1853
  313SOL    HW2 5751   4.168   5.570   9.741  0.0809  0.6377 -0.3930
  314SOL     OW 5752  10.689  11.509   0.212 -0.5930  0.4279 -0.3390
  314SOL    HW1 5753  10.619  11.570   0.236 -1.9377 -1.3471  0.4958
  314SOL    HW2 5754  10.761  11.530   0.272 -0.7728  1.5761 -0.4946
  315SOL     OW 5755   3.370   7.783   5.635  0.1063  0.4805  0.6849
  315SOL    HW1 5756   3.405   7.759   5.549 -0.0085 -1.2830  1.0902
  315SOL    HW2 5757   3.411   7.721   5.695 -0.7609  0.8890  1.7194
  316SOL     OW 5758  10.123  10.007   0.795  0.3658  0.1231 -0.5800
  316SOL    HW1 5759  10.158   9.918   0.784  0.8616  0.3395 -0.7503
  316SOL    HW2 5760  10.051   9.996   0.858  1.5613 -0.1431  0.7962
  317SOL     OW 5761   7.264   0.869  10.727  0.9389  0.4031  0.3581
  317SOL    HW1 5762   7.322   0.795  10.743  1.4627  0.1898 -2.2136
  317SOL    HW2 5763   7.268   0.884  10.633 -2.5339  0.9067  0.1282
  318SOL     OW 5764   7.802   2.557   5.292 -0.3160  0.5751  0.3929
  318SOL    HW1 5765   7.725   2.514   5.329 -0.4146  1.5401  1.3821
  318SOL    HW2 5766   7.769   2.641   5.260  0.0465  0.3409 -0.6177
  319SOL     OW 5767  10.890   4.107   8.886  0.4958  0.0854  0.2651
  319SOL    HW1 5768  10.843   4.030   8.854  1.0157 -0.5485  0.9711
  319SOL    HW2 5769  10.949   4.131   8.814  0.3079 -0.1621  0.0289
  320SOL     OW 5770   7.492   8.604   0.152 -0.8967  0.0685 -1.0398
  320SOL    HW1 5771   7.460   8.541   0.088  0.0206 -0.7801 -0.6979
  320SOL    HW2 5772   7.422   8.610   0.217 -0.1207 -2.4469  0.1751
  321SOL     OW 5773  11.958   7.543   6.630  0.1647 -0.5955 -0.1494
  321SOL    HW1 5774  12.012   7.569   6.555 -1.0233 -0.7797 -1.1039
  321SOL    HW2 5775  11.981   7.605   6.699 -0.3004  1.0052 -1.3686
  322SOL     OW 5776  11.251   2.100   1.717  0.1479  0.3850  0.2519
  322SOL    HW1 5777  11.245   2.140   1.631  0.7579  0.0490  0.0493
  322SOL    HW2 5778  11.323   2.146   1.761 -0.5636  0.9820  0.8189
  323SOL     OW 5779  10.147   6.273   2.985 -0.3002 -0.4210 -0.3333
  323SOL    HW1 5780  10.117   6.197   2.935  1.0725 -2.3537  1.5824
  323SOL    HW2 5781  10.075   6.293   3.045 -0.0809 -1.2261  0.2087
  324SOL     OW 5782   2.218   1.417  11.540  0.2199  0.0193  0.4081
  324SOL    HW1 5783   2.141   1.469  11.564  0.7007  0.6812  0.5558
  324SOL    HW2 5784   2.292   1.467  11.574  0.7038 -0.7207  0.4566
  325SOL     OW 5785   3.872  10.447  10.475 -0.2151 -0.2289 -0.0438
  325SOL    HW1 5786   3.810  10.377  10.499 -0.3382 -0.6611 -1.4905
  325SOL    HW2 5787   3.940  10.402  10.424 -1.4706  0.9359 -2.9880
  326SOL     OW 5788   8.093   5.234   0.641  0.2936 -0.0392  0.4714
  326SOL    HW1 5789   8.184   5.209   0.653 -0.0016 -1.0653  0.6403
  326SOL    HW2 5790   8.058   5.170   0.579 -0.5107 -0.1294  1.0116
  327SOL     OW 5791  11.912   9.149   2.518 -0.3717  0.1305  0.1835
  327SOL    HW1 5792  11.882   9.166   2.607 -0.5223  0.3031  0.0996
  327SOL    HW2 5793  11.870   9.066   2.495 -0.4177  0.1395  0.2334
  328SOL     OW 5794   6.941   3.063   3.801  0.2631 -0.3049  0.0636
  328SOL    HW1 5795   7.015   3.072   3.742  1.7507 -1.8350  1.5797
  328SOL    HW2 5796   6.900   2.980   3.776  0.9480 -1.0013  1.1694
  329SOL     OW 5797   9.342   5.126  11.746  0.1974  0.5379  0.3348
  329SOL    HW1 5798   9.260   5.160  11.711  0.1542 -0.0420 -0.1407
  329SOL    HW2 5799   9.380   5.077  11.673  0.6455  0.2472  0.7621
  330SOL     OW 5800   2.051   8.381   9.306  0.0066  0.4908 -0.1267
  330SOL    HW1 5801   2.137   8.392   9.347 -0.1377 -0.8716  0.6190
  330SOL    HW2 5802   1.989   8.407   9.374 -0.2180 -1.1416  0.3442
  331SOL     OW 5803  10.882  11.418   4.990 -0.2167  0.3363 -0.0307
  331SOL    HW1 5804  10.895  11.331   5.027  1.9596  0.7224  0.2904
  331SOL    HW2 5805  10.808  11.409   4.930  0.7881 -2.0497 -1.0275
  332SOL     OW 5806   1.856   0.039   8.811 -0.1868  0.2876  0.0863
  332SOL    HW1 5807   1.775   0.051   8.763  0.1595 -1.4056 -1.0090
  332SOL    HW2 5808   1.851  -0.050   8.846  1.3001  0.0280 -0.2663
  333SOL     OW 5809  11.808   9.813   5.755 -0.0325 -0.0560  0.3932
  333SOL    HW1 5810  11.780   9.821   5.846 -0.1744 -0.4138  0.3849
  333SOL    HW2 5811  11.727   9.814   5.705  0.0340 -0.0370  0.2851
  334SOL     OW 5812   2.303   7.698   4.514  0.0647  0.2533 -0.3478
  334SOL    HW1 5813   2.253   7.617   4.519 -0.6275  0.5934 -1.3481
  334SOL    HW2 5814   2.268   7.751   4.586  0.3331 -0.2320  0.1427
  335SOL     OW 5815   2.740   5.233   9.329 -0.0202 -0.0550 -0.0675
  335SOL    HW1 5816   2.751   5.303   9.393 -2.6322 -0.8829  1.4359
  335SOL    HW2 5817   2.733   5.279   9.245 -1.1207  1.4814  0.8096
  336SOL     OW 5818  11.552   7.269   1.758 -0.2311  0.1990 -0.3281
  336SOL    HW1 5819  11.502   7.346   1.783  0.2262  0.5142 -0.3789
  336SOL    HW2 5820  11.541   7.264   1.663  1.7411  1.6561 -0.7092
  337SOL     OW 5821  10.178  12.189   6.522 -0.0987 -1.1300  0.4003
  337SOL    HW1 5822  10.084  12.202   6.508 -0.4431 -0.7233  2.7499
  337SOL    HW2 5823  10.206  12.135   6.447 -2.5818 -2.9071  0.6259
  338SOL     OW 5824   1.294   7.538  12.443  0.4788 -0.1256 -0.2135
  338SOL    HW1 5825   1.213   7.517  12.491 -0.5829  1.0657 -1.3876
  338SOL    HW2 5826   1.295   7.477  12.369  0.4051  0.1566 -0.4503
  339SOL     OW 5827   9.111   6.862  12.310  0.1425  0.5517 -0.1152
  339SOL    HW1 5828   9.153   6.934  12.355  1.0141  0.9273 -1.4735
  339SOL    HW2 5829   9.067   6.902  12.235 -0.5954 -0.1470 -0.0735
  340SOL     OW 5830   1.275   6.527   6.819  0.2365 -0.0281  0.2473
  340SOL    HW1 5831   1.187   6.509   6.785  0.1987  0.8593 -0.1712
  340SOL    HW2 5832   1.260   6.569   6.904  0.2346  0.6599 -0.0901
  341SOL     OW 5833   3.872  11.009  12.079 -0.1899  0.1515  0.0011
  341SOL    HW1 5834   3.872  10.955  12.158 -0.5014  2.0675  1.3912
  341SOL    HW2 5835   3.965  11.029  12.063 -0.1971  0.6102  0.5144
  342SOL     OW 5836  10.885   7.852   8.295 -0.5874  0.4721 -0.1149
  342SOL    HW1 5837  10.834   7.869   8.216 -2.1146 -0.3140  0.6583
  342SOL    HW2 5838  10.966   7.902   8.283 -0.5255 -0.0860 -2.4067
  343SOL     OW 5839   4.116  10.739   3.555  0.5534 -0.1657  0.1174
  343SOL    HW1 5840   4.113  10.643   3.566 -0.1044 -0.1884 -0.2026
  343SOL    HW2 5841   4.110  10.773   3.644 -3.1369 -0.3730  0.1151
  344SOL     OW 5842   1.650   6.579  11.044  0.5477 -0.1283  0.2799
  344SOL    HW1 5843   1.589   6.636  10.998  1.1841  0.7383  0.4772
  344SOL    HW2 5844   1.609   6.564  11.129  0.3262 -0.0581  0.1878
  345SOL     OW 5845   7.061  11.545   2.594 -0.2405 -0.1382  0.0861
  345SOL    HW1 5846   7.060  11.572   2.502  1.0103  0.3056  0.1764
  345SOL    HW2 5847   7.115  11.466   2.595 -0.3467 -0.2059  0.4197
  346SOL     OW 5848  10.093   9.257   9.906  0.4406 -0.3245  0.5123
  346SOL    HW1 5849  10.137   9.314   9.970  0.5742  1.4703 -1.0934
  346SOL    HW2 5850  10.037   9.316   9.856 -1.2804 -2.0310  0.3038
  347SOL     OW 5851   0.375   5.985  10.187 -0.0737  0.6293  0.3333
  347SOL    HW1 5852   0.314   5.947  10.124 -0.7400 -2.4240  2.5848
  347SOL    HW2 5853   0.460   5.985  10.142 -0.8108  0.1583 -1.1164
  348SOL     OW 5854   8.127   8.577  12.558  0.5404  0.3134 -0.0535
  348SOL    HW1 5855   8.095   8.639  12.493 -0.4092 -0.1878 -0.0746
  348SOL    HW2 5856   8.178   8.513  12.507  0.1935  0.1859 -0.2431
  349SOL     OW 5857   8.948   7.214   9.335  0.1310  0.4223 -0.0581
  349SOL    HW1 5858   8.922   7.125   9.361  1.1069  0.5887  1.5617
  349SOL    HW2 5859   8.991   7.250   9.412 -1.0718  2.6673 -0.3519
  350SOL     OW 5860   0.614   7.092   0.111 -0.3232 -0.4020  0.3408
  350SOL    HW1 5861   0.540   7.046   0.151 -0.2724 -0.8989 -0.1193
  350SOL    HW2 5862   0.622   7.053   0.024 -0.9955  1.2864 -0.5198
  351SOL     OW 5863  10.124  11.240   3.246  0.1751  0.4635  0.1870
  351SOL    HW1 5864  10.159  11.297   3.178  0.7874  1.5032  1.3351
  351SOL    HW2 5865  10.133  11.152   3.211 -0.1802  1.0108 -1.3532
  352SOL     OW 5866   7.769   2.673  12.558  0.6081  0.3036  0.8028
  352SOL    HW1 5867   7.836   2.634  12.502 -1.1215 -0.2418 -1.0373
  352SOL    HW2 5868   7.808   2.755  12.589  2.3048 -0.2534  0.2571
  353SOL     OW 5869  12.092   4.920   8.993  0.3816 -0.2124 -0.1187
  353SOL    HW1 5870  12.107   4.906   9.087 -0.5751  0.0582  0.0801
  353SOL    HW2 5871  12.152   4.990   8.969 -0.9567  1.2967  0.7988
  354SOL     OW 5872   4.393   2.506   0.306 -0.2030 -0.6881  0.1427
  354SOL    HW1 5873   4.387   2.445   0.232 -0.6985 -0.7474  0.2288
  354SOL    HW2 5874   4.424   2.452   0.379  1.1233 -0.4531 -0.2200
  355SOL     OW 5875   9.817   4.617   1.683  0.2382  0.0798  0.0426
  355SOL    HW1 5876   9.745   4.593   1.626  0.6982 -0.9418 -0.1212
  355SOL    HW2 5877   9.785   4.601   1.772 -1.0080  3.0333  0.2514
  356SOL     OW 5878   8.852   1.268   1.930  0.0630  0.3889 -0.3816
  356SOL    HW1 5879   8.788   1.230   1.870 -0.2220  0.3866 -0.0781
  356SOL    HW2 5880   8.802   1.289   2.008  0.4448  0.3398 -0.1230
  357SOL     OW 5881   0.563   5.771   2.889  0.0918  0.5406  0.2740
  357SOL    HW1 5882   0.612   5.773   2.807 -0.4193  1.8966 -0.0218
  357SOL    HW2 5883   0.620   5.817   2.951 -0.6301  1.8682 -0.0018
  358SOL     OW 5884   9.759   3.233   2.352 -0.2010 -0.7074  0.5030
  358SOL    HW1 5885   9.778   3.324   2.373 -0.0921 -0.1158 -1.9192
  358SOL    HW2 5886   9.829   3.183   2.395  1.9726  0.7060 -1.1908
  359SOL     OW 5887   2.050   8.600   3.574 -0.4393 -0.1274  0.5371
  359SOL    HW1 5888   2.042   8.624   3.666 -2.1633 -1.4763  0.8064
  359SOL    HW2 5889   2.038   8.682   3.526 -0.4332  0.4478  1.5012
  360SOL     OW 5890   6.716   7.595  11.834  0.9289 -0.1647 -0.5160
  360SOL    HW1 5891   6.630   7.614  11.871  1.4659 -0.5549  0.9738
  360SOL    HW2 5892   6.700   7.527  11.769  0.2113 -0.7029  0.2180
  361SOL     OW 5893  10.135   1.279   6.826  0.0518  0.2894 -0.3811
  361SOL    HW1 5894  10.100   1.193   6.805  1.4728 -0.6245  0.8469
  361SOL    HW2 5895  10.176   1.269   6.912 -2.7060  3.0509  1.4768
  362SOL     OW 5896   0.133   5.054   3.889 -0.4044 -0.2173 -0.0079
  362SOL    HW1 5897   0.158   4.965   3.913  2.0774  0.8831  2.0259
  362SOL    HW2 5898   0.131   5.054   3.793 -0.1445 -2.3687 -0.0582
  363SOL     OW 5899   1.974   3.742   7.524 -0.0781  0.3544  0.2108
  363SOL    HW1 5900   1.985   3.837   7.535  0.6163  0.6386 -2.2858
  363SOL    HW2 5901   1.973   3.729   7.430  1.2526 -2.3042  0.4765
  364SOL     OW 5902   4.962   5.662   1.392 -0.2871  0.4240 -0.0960
  364SOL    HW1 5903   5.006   5.721   1.331 -0.0705  2.2610  1.7310
  364SOL    HW2 5904   4.929   5.719   1.461 -0.1319 -1.5818  1.7522
  365SOL     OW 5905   3.921   4.687   4.862  0.0984  0.5115 -0.3122
  365SOL    HW1 5906   3.920   4.647   4.775  3.7264  1.1509 -0.7738
  365SOL    HW2 5907   3.890   4.776   4.848 -0.3620  0.2917 -0.7328
  366SOL     OW 5908   7.971   5.389   0.283  0.5496  0.1142  0.0820
  366SOL    HW1 5909   7.924   5.373   0.201 -1.1599  0.7460  0.9032
  366SOL    HW2 5910   7.947   5.316   0.340 -0.3380  0.9946  0.8742
  367SOL     OW 5911   8.150   1.673   7.901  0.3912 -0.4388 -0.3785
  367SOL    HW1 5912   8.057   1.657   7.887  0.4089 -1.3030  0.3703
  367SOL    HW2 5913   8.195   1.608   7.847  0.5455 -0.3880 -0.3137
  368SOL     OW 5914   7.705  12.389   9.515 -0.3221 -0.3211 -0.0733
  368SOL    HW1 5915   7.661  12.418   9.596 -0.0212  0.2530 -0.1146
  368SOL    HW2 5916   7.676  12.298   9.504  1.9411 -1.4677  2.3227
  369SOL     OW 5917   8.193  11.235   6.044 -0.2205 -0.5123  0.2665
  369SOL    HW1 5918   8.255  11.224   6.115 -1.2143 -0.6413  1.1456
  369SOL    HW2 5919   8.118  11.279   6.084 -0.9447 -0.9001 -0.6144
  370SOL     OW 5920   5.784   2.175  11.990 -0.4349 -0.0097 -0.2367
  370SOL    HW1 5921   5.848   2.158  11.921  0.5593  2.1918  0.0512
  370SOL    HW2 5922   5.724   2.101  11.986  1.9597 -2.0669 -0.6797
  371SOL     OW 5923   0.814   8.721   1.238  0.2617  0.4757 -0.3454
  371SOL    HW1 5924   0.857   8.699   1.156 -1.5305  0.6165 -1.3844
  371SOL    HW2 5925   0.860   8.670   1.304  1.9084  0.5477 -1.3816
  372SOL     OW 5926   0.305   4.047   6.164  0.1077 -0.0327 -0.6853
  372SOL    HW1 5927   0.341   4.132   6.187  0.0170  0.1068 -1.0438
  372SOL    HW2 5928   0.297   4.000   6.247 -2.8381  1.4403  0.0174
  373SOL     OW 5929   6.460   9.380   9.814  0.3277 -0.1212 -0.3187
  373SOL    HW1 5930   6.373   9.414   9.833  0.9036  1.0544  0.3545
  373SOL    HW2 5931   6.519   9.453   9.833  1.5729 -1.2880  0.4960
  374SOL     OW 5932   3.120   4.546   4.081 -0.1950 -1.2284 -0.1141
  374SOL    HW1 5933   3.037   4.576   4.045 -0.9497 -2.8188  0.2446
  374SOL    HW2 5934   3.185   4.568   4.013 -0.4839  2.0223  0.5083
  375SOL     OW 5935   7.867   4.835   6.050  0.0877  0.9337 -0.2395
  375SOL    HW1 5936   7.825   4.801   6.129  1.1108  0.1675 -0.0010
  375SOL    HW2 5937   7.934   4.894   6.082  1.1103 -0.0689 -0.4695
  376SOL     OW 5938   4.449   2.288   6.898 -0.0826 -0.1279 -0.0687
  376SOL    HW1 5939   4.420   2.264   6.810  0.6772 -1.7567  0.0772
  376SOL    HW2 5940   4.486   2.207   6.934  1.7158  1.0438  0.9019
  377SOL     OW 5941   6.284   4.760   9.681  0.1618 -0.4387 -0.2576
  377SOL    HW1 5942   6.229   4.772   9.758 -0.3187 -0.6298 -0.5618
  377SOL    HW2 5943   6.223   4.731   9.613  0.5899 -0.3386 -0.6884
  378SOL     OW 5944   0.720   8.184  11.795  0.1841 -0.4010 -0.4026
  378SOL    HW1 5945   0.662   8.256  11.769  0.4362  0.0749  0.3104
  378SOL    HW2 5946   0.664   8.122  11.839  0.3773  0.6419  1.4193
  379SOL     OW 5947   4.201   1.996  10.866 -0.7054 -0.1684  0.1343
  379SOL    HW1 5948   4.153   1.913  10.870  2.6490 -2.3368 -0.2035
  379SOL    HW2 5949   4.244   1.995  10.780  1.1970  0.7850  1.0132
  380SOL     OW 5950   2.410   1.501   5.371 -0.0532 -0.2969 -1.5453
  380SOL    HW1 5951   2.386   1.412   5.395  0.8592 -0.1291  0.1324
  380SOL    HW2 5952   2.343   1.556   5.412  1.6563  0.0089  1.0701
  381SOL     OW 5953   5.676   1.271   2.909  0.0034 -0.0032 -0.1533
  381SOL    HW1 5954   5.603   1.209   2.918 -2.1357  2.0785 -1.9799
  381SOL    HW2 5955   5.670   1.325   2.988 -0.0210 -0.2426  0.0107
  382SOL     OW 5956   3.944   5.201  10.822 -0.2322  0.4191  0.1137
  382SOL    HW1 5957   3.940   5.129  10.760 -1.4556  2.4644 -2.3885
  382SOL    HW2 5958   3.852   5.219  10.844 -0.0734  2.0180 -0.3911
  383SOL     OW 5959   9.642   7.187   9.205  0.2340  0.5605  0.1858
  383SOL    HW1 5960   9.591   7.267   9.200  2.1404  1.8749  0.6278
  383SOL    HW2 5961   9.666   7.168   9.114  1.1527  1.4512  0.2325
  384SOL     OW 5962  11.277  10.529   2.705  0.2658  0.1849 -0.1072
  384SOL    HW1 5963  11.370  10.554   2.699  0.5484 -1.1939 -2.8126
  384SOL    HW2 5964  11.271  10.483   2.789  1.7604  1.1647  0.5956
  385SOL     OW 5965  11.724   2.367  10.724 -0.2846 -0.4882 -0.3782
  385SOL    HW1 5966  11.764   2.384  10.809  2.5119 -2.1715 -1.2134
  385SOL    HW2 5967  11.726   2.451  10.678  1.5830 -0.3044 -0.0296
  386SOL     OW 5968  12.110   5.328   0.368 -0.2351 -0.0820 -0.0535
  386SOL    HW1 5969  12.167   5.270   0.418  1.7522  0.7769 -1.2054
  386SOL    HW2 5970  12.098   5.404   0.425  1.4672  0.5998 -0.5440
  387SOL     OW 5971   3.511   4.119  10.894 -0.5281 -0.4226  0.1187
  387SOL    HW1 5972   3.604   4.123  10.917 -0.0020  1.7001 -2.0197
  387SOL    HW2 5973   3.494   4.027  10.876  1.3665 -0.7299 -0.2219
  388SOL     OW 5974   6.696   4.350   3.523  0.7963  0.2985 -0.0842
  388SOL    HW1 5975   6.778   4.399   3.523  0.5222  0.9069 -2.6751
  388SOL    HW2 5976   6.723   4.258   3.515  1.2380  0.2626  1.5380
  389SOL     OW 5977   9.572  12.626  11.036  0.2136  0.3050  0.7288
  389SOL    HW1 5978   9.597  12.704  10.986 -0.6472 -0.5653 -1.1450
  389SOL    HW2 5979   9.532  12.661  11.116  0.0515  1.7956  0.0403
  390SOL     OW 5980   9.006   3.770   4.475 -0.5859 -0.7152 -0.1398
  390SOL    HW1 5981   8.989   3.769   4.569 -2.1640 -0.6911 -0.3987
  390SOL    HW2 5982   9.067   3.697   4.461 -0.8300 -1.1150  0.8135
  391SOL     OW 5983  11.640   9.175  11.075  0.1277  0.1214  0.0768
  391SOL    HW1 5984  11.604   9.171  10.987  0.9202  0.1467 -0.2576
  391SOL    HW2 5985  11.566   9.201  11.130 -1.4984 -3.8709  0.1019
  392SOL     OW 5986   0.470   6.525   8.979  0.2848  0.0949  0.5559
  392SOL    HW1 5987   0.401   6.582   9.013  0.7701  0.8953  0.1937
  392SOL    HW2 5988   0.552   6.569   9.001  0.6323  0.7117 -1.7566
  393SOL     OW 5989   3.090   1.057   8.866 -0.1986 -0.4690 -0.0185
  393SOL    HW1 5990   3.180   1.034   8.846 -0.4970 -1.2968 -0.4746
  393SOL    HW2 5991   3.092   1.151   8.883  1.1839 -0.8584  2.4322
  394SOL     OW 5992   5.065  10.482  10.963 -0.4052  0.1570 -0.5131
  394SOL    HW1 5993   5.118  10.430  10.902  0.6037 -0.1017  0.5546
  394SOL    HW2 5994   5.129  10.528  11.017 -1.2818  0.4019  0.3363
  395SOL     OW 5995   7.160   9.538   7.827 -0.4271  0.1326  0.2364
  395SOL    HW1 5996   7.172   9.619   7.777  0.1965 -0.6488 -0.9278
  395SOL    HW2 5997   7.249   9.510   7.849 -0.6274 -0.3484  0.4596
  396SOL     OW 5998  10.238  11.798   8.528  0.2415  0.4811 -0.0112
  396SOL    HW1 5999  10.318  11.844   8.553 -0.6791  1.5771  1.0822
  396SOL    HW2 6000  10.167  11.854   8.561 -0.9790 -0.4035 -1.0358
  397SOL     OW 6001  10.716   1.760  11.534 -0.1674  0.1881  0.6464
  397SOL    HW1 6002  10.628   1.786  11.505  0.0532  1.4982  1.0841
  397SOL    HW2 6003  10.730   1.810  11.614  1.0428  0.1317  0.4808
  398SOL     OW 6004   7.862  11.150   8.559 -0.1447 -0.1108 -0.2644
  398SOL    HW1 6005   7.839  11.220   8.620  0.0063 -0.7217  0.5049
  398SOL    HW2 6006   7.822  11.071   8.595  2.3973 -1.0823  0.7181
  399SOL     OW 6007   4.015   9.329   1.398  0.0779  0.3783  0.2843
  399SOL    HW1 6008   4.011   9.422   1.374 -0.3431  0.2736 -0.0796
  399SOL    HW2 6009   4.058   9.287   1.323 -0.3189  0.1905  0.1580
  400SOL     OW 6010   0.577   2.026  10.538 -0.0403  0.0667  0.1248
  400SOL    HW1 6011   0.537   2.011  10.452 -0.5000  2.4404 -0.1451
  400SOL    HW2 6012   0.512   1.995  10.601 -1.9291  2.7377 -0.3337
  401SOL     OW 6013   5.465   1.861   9.214 -0.2758  0.1999  0.8019
  401SOL    HW1 6014   5.523   1.879   9.288 -0.4132  1.4453  0.6362
  401SOL    HW2 6015   5.515   1.803   9.157 -0.2793 -1.0255  1.9970
  402SOL     OW 6016   6.437   5.850   3.104  0.1568  0.0100 -1.0894
  402SOL    HW1 6017   6.355   5.824   3.063  0.3655 -0.0181 -1.4906
  402SOL    HW2 6018   6.413   5.871   3.194 -0.6403  1.9622 -1.7067
  403SOL     OW 6019  12.019   7.512   1.801  0.3533 -0.0150  0.4824
  403SOL    HW1 6020  11.960   7.480   1.733 -0.5006 -0.2600  1.3183
  403SOL    HW2 6021  12.106   7.483   1.773 -0.1928 -1.6462  0.3719
  404SOL     OW 6022   9.553  11.058   4.817 -0.1428 -0.2210 -0.1987
  404SOL    HW1 6023   9.495  11.083   4.745 -0.6674  0.4871  0.4594
  404SOL    HW2 6024   9.530  10.967   4.836 -0.8546 -0.0244 -0.1139
  405SOL     OW 6025   8.438  12.618   7.614  0.6563 -0.2971  0.3968
  405SOL    HW1 6026   8.458  12.561   7.540  0.9743  0.9597 -0.5233
  405SOL    HW2 6027   8.376  12.682   7.578  1.2198  0.6385  1.0658
  406SOL     OW 6028  10.532   4.915   4.047  0.0025 -0.1451 -0.2415
  406SOL    HW1 6029  10.558   5.002   4.018 -0.5074  0.5946  1.4246
  406SOL    HW2 6030  10.459   4.930   4.107  0.2229 -1.6777  0.4581
  407SOL     OW 6031   1.679  11.944   2.398 -0.1392 -0.0102  0.4932
  407SOL    HW1 6032   1.597  11.960   2.445 -0.7986 -1.5304 -0.0607
  407SOL    HW2 6033   1.742  11.921   2.466 -0.0505  1.4996  0.9604
  408SOL     OW 6034  11.291   7.240   5.639  0.2186  0.5982  0.3812
  408SOL    HW1 6035  11.257   7.247   5.728  1.6940  0.1138  1.0187
  408SOL    HW2 6036  11.358   7.172   5.644 -0.3020 -0.1107 -1.3178
  409SOL     OW 6037   9.523   6.354   6.768 -0.5260  0.3996 -0.2167
  409SOL    HW1 6038   9.443   6.332   6.720 -0.0113 -0.7346 -0.5965
  409SOL    HW2 6039   9.545   6.443   6.739  1.1441 -1.0558 -4.1799
  410SOL     OW 6040   0.590   4.268   9.321 -0.3448  0.1128 -0.3127
  410SOL    HW1 6041   0.626   4.192   9.277  1.2623  1.7323 -1.9574
  410SOL    HW2 6042   0.608   4.253   9.414 -0.5392 -1.7092 -0.5441
  411SOL     OW 6043   1.413   9.546  11.393  0.9480  0.1621  0.0479
  411SOL    HW1 6044   1.319   9.566  11.391  0.9438  0.2652  1.0513
  411SOL    HW2 6045   1.417   9.450  11.394  0.8990  0.1211 -1.1505
  412SOL     OW 6046   0.298  12.645   7.380 -0.5813 -0.2618  0.2322
  412SOL    HW1 6047   0.215  12.690   7.365  0.1590  0.8452 -0.7620
  412SOL    HW2 6048   0.276  12.552   7.377 -2.0762 -0.0129  1.8401
  413SOL     OW 6049   1.630   8.280   9.461  0.4442 -0.1793  0.4013
  413SOL    HW1 6050   1.610   8.310   9.550  0.9641  2.7546 -0.3578
  413SOL    HW2 6051   1.564   8.322   9.407  0.6331 -1.2730 -0.7110
  414SOL     OW 6052   1.760  10.574   3.458  0.4969  0.3833  0.2019
  414SOL    HW1 6053   1.794  10.626   3.531 -0.7982  0.8039  0.5254
  414SOL    HW2 6054   1.665  10.587   3.461  0.4382  0.8484 -1.8614
  415SOL     OW 6055   0.291   0.561   2.510  0.1663 -0.5950 -0.1345
  415SOL    HW1 6056   0.199   0.570   2.485  0.0682 -1.8281 -0.3021
  415SOL    HW2 6057   0.308   0.637   2.566 -0.6746  0.1647 -0.8711
  416SOL     OW 6058   3.265   5.650   9.473 -0.3564 -0.0296  0.6794
  416SOL    HW1 6059   3.260   5.558   9.447  2.6154  0.2978 -1.5690
  416SOL    HW2 6060   3.175   5.674   9.494 -1.3940 -3.1256  0.2723
  417SOL     OW 6061   8.239   8.319   3.987 -0.1650  0.4064  0.2003
  417SOL    HW1 6062   8.155   8.307   4.030  1.2323 -1.2867  2.6779
  417SOL    HW2 6063   8.275   8.400   4.025  0.0417  0.2145  0.4160
  418SOL     OW 6064   6.365  11.983   2.331  0.6217  0.5006  0.3880
  418SOL    HW1 6065   6.426  11.965   2.258 -1.4329  0.3559 -1.3906
  418SOL    HW2 6066   6.371  12.077   2.344 -0.6951  0.9364 -1.6671
  419SOL     OW 6067   1.894   7.280   4.311 -0.0772  0.1238 -0.4820
  419SOL    HW1 6068   1.967   7.219   4.305 -0.5874 -0.5219 -0.1699
  419SOL    HW2 6069   1.835   7.242   4.375 -1.3388 -0.0612 -1.6951
  420SOL     OW 6070  11.706   9.720   2.228  0.4475 -0.0616 -0.3995
  420SOL    HW1 6071  11.686   9.806   2.264  0.6735 -0.6500  1.2021
  420SOL    HW2 6072  11.796   9.728   2.196  0.4963  0.2691 -0.1837
  421SOL     OW 6073   7.363   2.831   4.660 -0.1659 -0.1778 -0.1376
  421SOL    HW1 6074   7.352   2.915   4.616  1.3800 -0.8785 -2.0024
  421SOL    HW2 6075   7.437   2.843   4.719  1.2182 -0.6584 -1.7124
  422SOL     OW 6076  10.459   9.733   6.055 -0.2224 -0.1436 -0.1101
  422SOL    HW1 6077  10.402   9.784   5.997  0.0084  1.8718  1.3407
  422SOL    HW2 6078  10.486   9.658   6.001 -1.9211  0.3488 -1.7809
  423SOL     OW 6079   5.988   3.171   5.045  1.1515 -0.4541  0.4903
  423SOL    HW1 6080   6.008   3.121   5.124  0.2078  0.3843  1.2992
  423SOL    HW2 6081   5.979   3.261   5.076 -1.2195 -0.3791 -0.1971
  424SOL     OW 6082   1.113   7.801   3.938  0.2542 -0.0041 -0.4987
  424SOL    HW1 6083   1.197   7.815   3.982  0.0881  0.9907 -0.4738
  424SOL    HW2 6084   1.055   7.768   4.007  0.4729 -0.1615 -0.3890
  425SOL     OW 6085  11.896   2.131   7.686 -0.2721 -0.1083  0.0044
  425SOL    HW1 6086  11.980   2.177   7.686  0.5648 -1.5906  0.2927
  425SOL    HW2 6087  11.848   2.170   7.759  0.3485  0.4316  0.1384
  426SOL     OW 6088  12.633  10.640  12.353 -0.6650  0.6108 -0.3366
  426SOL    HW1 6089  12.591  10.578  12.293 -1.5000 -1.8145  2.5199
  426SOL    HW2 6090  12.580  10.719  12.346 -1.0997  0.1970 -2.2860
  427SOL     OW 6091   6.570  11.571   6.413  0.5041  0.4466 -0.0528
  427SOL    HW1 6092   6.485  11.594   6.451 -0.0249 -1.4234  0.0007
  427SOL    HW2 6093   6.571  11.614   6.328 -0.6731  0.1763 -0.2182
  428SOL     OW 6094   0.878   1.971   2.071 -0.4167 -0.0453 -0.2170
  428SOL    HW1 6095   0.970   1.946   2.066 -0.1609  0.8407 -0.1732
  428SOL    HW2 6096   0.839   1.907   2.130  0.8040  1.2122  2.1129
  429SOL     OW 6097   4.468   2.639   1.482 -0.4643  0.7821  0.4423
  429SOL    HW1 6098   4.486   2.621   1.575 -0.2124  2.2684  0.7115
  429SOL    HW2 6099   4.464   2.735   1.477  0.0716  0.7478 -1.1793
  430SOL     OW 6100  10.350   7.528   9.036 -0.0323 -0.1104 -0.3559
  430SOL    HW1 6101  10.280   7.535   9.100  0.6066  1.8542  0.1975
  430SOL    HW2 6102  10.429   7.511   9.088  0.1625 -0.7219 -0.8323
  431SOL     OW 6103   3.136   7.371   6.226  0.1944  0.4175  0.2228
  431SOL    HW1 6104   3.214   7.400   6.178 -0.0182 -0.7380 -0.8782
  431SOL    HW2 6105   3.130   7.277   6.207 -1.4038  0.4672  0.3528
  432SOL     OW 6106   9.782   9.562   8.019  0.4787 -0.4672  0.3954
  432SOL    HW1 6107   9.860   9.612   8.042 -0.2826  1.1069 -0.3280
  432SOL    HW2 6108   9.744   9.609   7.945 -0.8742 -1.4979  0.3997
  433SOL     OW 6109  11.510   8.618   5.824  0.2424  0.3530  0.6514
  433SOL    HW1 6110  11.545   8.687   5.766  0.6024 -0.3508  0.0165
  433SOL    HW2 6111  11.570   8.619   5.899 -0.2473  1.2963  1.0446
  434SOL     OW 6112   2.285   3.349   9.406  0.4283  0.2168  0.6106
  434SOL    HW1 6113   2.263   3.256   9.411 -1.5923  0.5974 -0.2174
  434SOL    HW2 6114   2.373   3.350   9.367  0.7630 -1.3467  1.2454
  435SOL     OW 6115   8.459   5.079   3.320 -0.0953  0.4476  0.0007
  435SOL    HW1 6116   8.488   5.130   3.244 -0.6716  0.2463 -0.3646
  435SOL    HW2 6117   8.521   5.101   3.389 -0.1644  1.4232 -0.2386
  436SOL     OW 6118   2.069   7.346   0.977 -0.3012 -0.6635  0.6057
  436SOL    HW1 6119   2.007   7.351   1.049  0.2917 -3.9002  1.5392
  436SOL    HW2 6120   2.138   7.408   1.000 -2.7487  2.5612 -0.1764
  437SOL     OW 6121  12.238   3.335   9.699 -0.4241  0.2492 -0.2893
  437SOL    HW1 6122  12.282   3.356   9.781 -2.0188  1.9711  0.1913
  437SOL    HW2 6123  12.294   3.269   9.658  1.6258  1.0370  1.0821
  438SOL     OW 6124   9.245   9.096   4.631 -0.0165  0.3043  0.0738
  438SOL    HW1 6125   9.164   9.119   4.585  0.0579 -0.1377 -0.2868
  438SOL    HW2 6126   9.311   9.087   4.561  0.0046 -0.7847  0.2194
  439SOL     OW 6127   7.999  10.817   4.040  0.1987 -0.0524 -0.1450
  439SOL    HW1 6128   7.937  10.838   3.971 -1.2110  1.1684  1.4179
  439SOL    HW2 6129   8.019  10.724   4.028  0.0099  0.1398 -2.1573
  440SOL     OW 6130   6.730   2.484   3.240  0.0759 -0.9217  0.5824
  440SOL    HW1 6131   6.819   2.455   3.220  0.3610  0.6125 -0.5389
  440SOL    HW2 6132   6.694   2.512   3.156 -0.7113  0.4158  1.3203
  441SOL     OW 6133   1.441   5.744  10.812  0.7666  0.2109  0.5353
  441SOL    HW1 6134   1.434   5.669  10.871  2.5354 -0.8240 -0.4642
  441SOL    HW2 6135   1.519   5.791  10.841  3.1739 -1.6844 -2.2548
  442SOL     OW 6136   4.852   9.368   0.678  0.0593 -0.3924 -0.5364
  442SOL    HW1 6137   4.926   9.311   0.701  1.0364  0.2927 -1.8657
  442SOL    HW2 6138   4.838   9.352   0.585 -1.1081 -0.0868 -0.4197
  443SOL     OW 6139   2.261  11.276   7.886 -0.6989 -0.3934 -0.4269
  443SOL    HW1 6140   2.263  11.371   7.872  0.2270 -0.2305  0.7253
  443SOL    HW2 6141   2.336  11.244   7.836 -1.1971 -0.5745 -1.0771
  444SOL     OW 6142   8.323   1.020   8.404 -0.0918 -0.0936  0.1007
  444SOL    HW1 6143   8.281   1.106   8.413 -0.4223 -0.0088 -1.8852
  444SOL    HW2 6144   8.308   0.995   8.313  1.2382 -1.6298  0.2628
  445SOL     OW 6145   9.252   8.187   1.952 -0.1940  0.0277  0.3237
  445SOL    HW1 6146   9.341   8.155   1.967  0.2044  0.6965 -0.5720
  445SOL    HW2 6147   9.203   8.157   2.029  0.3193 -2.0846 -0.1171
  446SOL     OW 6148  10.483   3.785   7.958 -0.2852 -0.2203  0.4894
  446SOL    HW1 6149  10.567   3.810   7.998 -0.7194 -1.4960  2.3113
  446SOL    HW2 6150  10.442   3.869   7.936  0.1861  0.5550  2.3431
  447SOL     OW 6151   8.496   9.959   5.257 -0.2360 -0.0697 -0.6646
  447SOL    HW1 6152   8.494   9.928   5.167  2.9239  1.1064 -1.2765
  447SOL    HW2 6153   8.484   9.880   5.310 -1.6944 -0.8448 -2.0611
  448SOL     OW 6154   8.869   7.633   5.543 -0.3144  0.2243  0.3337
  448SOL    HW1 6155   8.898   7.585   5.620  0.3910  2.0369  1.2553
  448SOL    HW2 6156   8.792   7.683   5.572 -1.5044 -0.8618 -0.8041
  449SOL     OW 6157   8.631   8.725   7.714 -0.0852  0.0675  0.2328
  449SOL    HW1 6158   8.660   8.700   7.802  1.4631  0.0558 -0.2603
  449SOL    HW2 6159   8.710   8.722   7.661 -1.0495 -0.1892 -1.2411
  450SOL     OW 6160  10.601   0.034   7.265 -0.3200  0.2532 -0.0000
  450SOL    HW1 6161  10.638   0.034   7.177 -0.6853  2.3209 -0.2247
  450SOL    HW2 6162  10.508   0.015   7.252 -0.5041  1.2102 -0.1639
  451SOL     OW 6163  12.372   6.440   6.316 -0.1159  0.3961  0.2261
  451SOL    HW1 6164  12.363   6.345   6.310  0.8216  0.3791 -1.4604
  451SOL    HW2 6165  12.326   6.473   6.239  0.1187  1.2708  0.4549
  452SOL     OW 6166   6.446   8.854   3.528 -0.5344  0.3935 -0.1995
  452SOL    HW1 6167   6.478   8.934   3.488  1.1408 -0.0242  0.2186
  452SOL    HW2 6168   6.524   8.799   3.538 -1.2761 -0.4419  1.4623
  453SOL     OW 6169  12.088   7.201  10.746 -0.0172 -0.7077 -0.4195
  453SOL    HW1 6170  12.001   7.187  10.783 -0.1290  2.1705  0.6858
  453SOL    HW2 6171  12.137   7.121  10.770 -0.8369 -0.1897  3.8707
  454SOL     OW 6172  10.186   2.451   4.769 -0.2007  0.0526 -0.0995
  454SOL    HW1 6173  10.181   2.393   4.693  1.3287  0.0636 -0.2481
  454SOL    HW2 6174  10.277   2.481   4.770 -0.5545  1.1842  0.9122
  455SOL     OW 6175   3.120   9.805   2.850 -0.1975 -0.2307  0.4111
  455SOL    HW1 6176   3.097   9.884   2.899 -1.7452  0.1380 -0.8452
  455SOL    HW2 6177   3.153   9.837   2.766  0.2665 -0.9090  0.3239
  456SOL     OW 6178  10.542  10.142   6.675  0.5116 -0.4694  0.5214
  456SOL    HW1 6179  10.551  10.237   6.665 -0.6921 -0.5431 -2.7145
  456SOL    HW2 6180  10.477  10.131   6.744  0.2486  1.1102  0.5583
  457SOL     OW 6181   4.342   6.418   0.918 -0.2276  0.6523 -0.0458
  457SOL    HW1 6182   4.392   6.461   0.848 -0.8524  1.9827  0.2944
  457SOL    HW2 6183   4.251   6.429   0.893 -0.4214  0.1731  0.4302
  458SOL     OW 6184  11.080   0.026   9.426 -0.0299 -0.7657  1.0317
  458SOL    HW1 6185  11.011  -0.038   9.444  0.1551 -1.0315  0.7940
  458SOL    HW2 6186  11.097   0.018   9.333  0.1475 -0.5219  1.0423
  459SOL     OW 6187   6.345   0.154   3.741 -0.1418  0.3549 -0.0124
  459SOL    HW1 6188   6.323   0.117   3.655  0.7965  0.0932 -0.1489
  459SOL    HW2 6189   6.293   0.234   3.746 -0.2564  0.3397 -0.7979
  460SOL     OW 6190  10.688   2.857   1.816  0.0229 -0.1529  0.0718
  460SOL    HW1 6191  10.671   2.774   1.769  0.5957 -0.7010  0.8177
  460SOL    HW2 6192  10.702   2.921   1.746 -0.0533 -0.7612 -0.5170
  461SOL     OW 6193   3.227   6.249  11.847  0.0614 -0.2800  0.4175
  461SOL    HW1 6194   3.317   6.216  11.838  0.3613  0.3985  0.8497
  461SOL    HW2 6195   3.232   6.312  11.919 -0.9453 -0.8908  1.0572
  462SOL     OW 6196   4.155   9.134   5.474  0.2835  0.0416 -0.4318
  462SOL    HW1 6197   4.192   9.219   5.499  0.3182 -0.3025  0.7886
  462SOL    HW2 6198   4.157   9.083   5.555  0.6323 -1.2630 -1.2332
  463SOL     OW 6199   9.811   1.996   1.148 -0.4854  0.1123 -0.0786
  463SOL    HW1 6200   9.877   2.062   1.129 -0.9462  0.6746  0.2149
  463SOL    HW2 6201   9.853   1.913   1.127  0.5299  0.4097  0.6996
  464SOL     OW 6202   5.543   0.230   1.470  0.3564 -0.5144 -0.6593
  464SOL    HW1 6203   5.451   0.255   1.462  0.7318  0.5064 -2.2092
  464SOL    HW2 6204   5.583   0.258   1.388  2.3634  0.4011  0.5506
  465SOL     OW 6205  12.571   0.654   9.780  0.5509 -0.5841 -0.2109
  465SOL    HW1 6206  12.539   0.598   9.850 -1.6084 -0.3536 -0.9482
  465SOL    HW2 6207  12.642   0.705   9.820 -2.1643  1.3445  2.5924
  466SOL     OW 6208   4.419   3.286   2.779 -0.0008 -0.2873  0.4482
  466SOL    HW1 6209   4.432   3.210   2.835 -0.7188  0.4982  1.7435
  466SOL    HW2 6210   4.500   3.295   2.730  0.9482 -0.5639  1.9232
  467SOL     OW 6211   3.518   4.171  11.187  0.1149 -0.0714 -0.2654
  467SOL    HW1 6212   3.559   4.085  11.187 -2.2233 -1.2733  1.5984
  467SOL    HW2 6213   3.465   4.172  11.107  0.6822 -0.0388 -0.6535
  468SOL     OW 6214  12.374   5.812   9.515  0.0047 -0.4834 -0.2646
  468SOL    HW1 6215  12.409   5.820   9.426 -0.2998 -0.0579 -0.3500
  468SOL    HW2 6216  12.380   5.719   9.535  0.7510 -0.4773 -0.4529
  469SOL     OW 6217   3.217   9.389   9.730  0.1279 -0.2290 -0.3599
  469SOL    HW1 6218   3.158   9.324   9.767 -0.6502  1.9148  2.5597
  469SOL    HW2 6219   3.304   9.353   9.743 -0.3088 -1.0134  0.4811
  470SOL     OW 6220  12.599   8.804   6.790 -0.6373 -0.1613  0.0615
  470SOL    HW1 6221  12.603   8.899   6.780  0.0954  0.1076  2.4198
  470SOL    HW2 6222  12.506   8.785   6.804 -0.6330  0.3853  0.8854
  471SOL     OW 6223   6.336   6.163   5.264  0.7165  0.2289 -0.2594
  471SOL    HW1 6224   6.242   6.149   5.253  0.4598  2.7504 -2.1465
  471SOL    HW2 6225   6.343   6.225   5.336  0.7574  1.5486 -1.3743
  472SOL     OW 6226  11.496   2.751   7.027  0.3371  0.0934 -0.7285
  472SOL    HW1 6227  11.582   2.720   6.997  0.6576  0.3977 -0.1364
  472SOL    HW2 6228  11.434   2.692   6.984  0.7898  0.3579 -1.7916
  473SOL     OW 6229   0.298   1.976   3.901 -0.6837 -0.4317 -0.6576
  473SOL    HW1 6230   0.259   1.889   3.904 -0.2487 -0.6247 -0.4114
  473SOL    HW2 6231   0.385   1.964   3.939 -1.2834  0.4713  1.1198
  474SOL     OW 6232   0.906   7.240  12.077 -0.6323  0.2366  0.1996
  474SOL    HW1 6233   0.972   7.189  12.029 -1.0757  1.0901 -1.4155
  474SOL    HW2 6234   0.839   7.258  12.011 -2.2569 -0.1976  1.6889
  475SOL     OW 6235   3.869   6.095   3.906 -0.5323 -0.1334 -0.6701
  475SOL    HW1 6236   3.916   6.178   3.902 -0.4706 -0.1196  0.1705
  475SOL    HW2 6237   3.899   6.054   3.987 -1.0974 -0.6511 -0.7149
  476SOL     OW 6238   7.011   4.539  12.311  0.2651  0.2318  0.1966
  476SOL    HW1 6239   7.062   4.617  12.335 -0.2216  0.9680 -1.0319
  476SOL    HW2 6240   7.053   4.508  12.230  0.1551 -0.5128  0.4179
  477SOL     OW 6241   6.304   9.855   2.236 -0.0622  0.7927  0.0356
  477SOL    HW1 6242   6.296   9.814   2.322 -0.0737 -1.3486 -0.9177
  477SOL    HW2 6243   6.217   9.894   2.220 -0.8723 -0.9577 -0.0106
  478SOL     OW 6244   5.198   8.100   5.167 -0.1910 -0.3179  0.3687
  478SOL    HW1 6245   5.225   8.065   5.083 -0.3297 -1.0941  0.6390
  478SOL    HW2 6246   5.103   8.111   5.159 -0.3984 -1.5826  0.8298
  479SOL     OW 6247  11.856   4.201   8.297  0.4362  0.7112  0.2952
  479SOL    HW1 6248  11.849   4.292   8.266  0.0361  0.7253  0.4200
  479SOL    HW2 6249  11.767   4.167   8.292  0.4142  0.6195  1.1587
  480SOL     OW 6250   4.768  10.906   7.032  0.1458 -0.5043 -0.4683
  480SOL    HW1 6251   4.751  10.842   6.963  0.8022 -2.1864  0.8730
  480SOL    HW2 6252   4.834  10.965   6.994  2.3297 -2.8342 -0.5131
  481SOL     OW 6253   2.307   7.151  11.106  0.3339 -0.3889  0.2000
  481SOL    HW1 6254   2.270   7.095  11.038 -0.2000  0.3459 -0.1154
  481SOL    HW2 6255   2.232   7.188  11.152  0.6823 -1.0860  1.3807
  482SOL     OW 6256  11.519   4.349  11.851  0.2548  0.2742 -0.0420
  482SOL    HW1 6257  11.614   4.352  11.858  0.3293 -0.7458 -0.4526
  482SOL    HW2 6258  11.488   4.330  11.940  0.3811  1.3128  0.2358
  483SOL     OW 6259   8.723   0.510  11.430  0.0673 -0.1723 -0.4647
  483SOL    HW1 6260   8.675   0.479  11.353 -2.1670 -0.7440  1.0453
  483SOL    HW2 6261   8.655   0.531  11.494  1.7998  1.0699  1.0991
  484SOL     OW 6262   7.169  12.521   5.207 -0.2815  0.2280  0.4609
  484SOL    HW1 6263   7.253  12.546   5.246  0.2421 -3.5866  2.3043
  484SOL    HW2 6264   7.193  12.480   5.124 -0.3877 -0.0826  0.5817
  485SOL     OW 6265   7.227   0.009   3.161 -1.1081 -0.1402 -0.3674
  485SOL    HW1 6266   7.258   0.003   3.251 -1.1356 -0.5207 -0.3813
  485SOL    HW2 6267   7.278   0.080   3.122 -0.7526 -0.2990 -0.1919
  486SOL     OW 6268   1.602   4.444  11.108  0.2196 -0.1555  0.2260
  486SOL    HW1 6269   1.519   4.401  11.090  0.9653 -1.9359  0.8556
  486SOL    HW2 6270   1.657   4.425  11.032 -0.1760  1.7533 -0.5990
  487SOL     OW 6271   9.659   5.012   8.162 -0.2609  0.0591 -0.6756
  487SOL    HW1 6272   9.687   5.044   8.247 -0.3069 -1.2746 -0.1248
  487SOL    HW2 6273   9.680   5.082   8.101  0.5203  0.7095  0.3161
  488SOL     OW 6274   6.824   4.039  11.104  0.1227  0.5120  0.4587
  488SOL    HW1 6275   6.734   4.019  11.132  0.9387 -2.0648  1.6258
  488SOL    HW2 6276   6.841   3.977  11.033  0.7209  1.5934 -0.3696
  489SOL     OW 6277   3.201   6.955   0.439 -0.2956 -0.2068 -0.0882
  489SOL    HW1 6278   3.214   7.038   0.485  0.9752 -1.1871  1.4103
  489SOL    HW2 6279   3.146   6.903   0.498  0.7063 -1.2052 -0.0142
  490SOL     OW 6280   4.768  11.755   5.380  0.6087  0.0250 -0.0329
  490SOL    HW1 6281   4.749  11.680   5.323  2.2046  0.6325 -1.4629
  490SOL    HW2 6282   4.748  11.724   5.468  0.2919 -1.7475 -0.6771
  491SOL     OW 6283   4.844   7.775   2.883  0.3117 -0.2450  0.3890
  491SOL    HW1 6284   4.840   7.681   2.903  0.4230  0.1334  2.4876
  491SOL    HW2 6285   4.937   7.793   2.871  0.2660 -0.4486 -0.2782
  492SOL     OW 6286  11.177   6.878   4.574 -0.3125 -0.5180  0.6577
  492SOL    HW1 6287  11.230   6.946   4.615 -0.4976  0.5806 -0.8123
  492SOL    HW2 6288  11.237   6.833   4.515 -0.8733  0.5456 -0.7992
  493SOL     OW 6289   3.375   9.460   5.415  1.2295  0.1032  0.1170
  493SOL    HW1 6290   3.470   9.450   5.422  0.9419 -2.4993  1.2988
  493SOL    HW2 6291   3.349   9.395   5.350  0.1987  0.5568  0.0655
  494SOL     OW 6292   2.974   4.856   1.524 -0.7499 -0.4751 -0.5416
  494SOL    HW1 6293   2.983   4.810   1.441  1.7356 -1.1347  0.0258
  494SOL    HW2 6294   3.032   4.931   1.517 -1.0731 -0.1275  0.3475
  495SOL     OW 6295  12.082  10.726   4.748 -0.0111 -0.2667  0.2532
  495SOL    HW1 6296  12.084  10.766   4.661  1.2475 -0.1125  0.3376
  495SOL    HW2 6297  12.057  10.798   4.806 -2.3784 -0.7021 -0.1083
  496SOL     OW 6298   0.426   3.805   8.518  0.0280 -0.4566  0.3216
  496SOL    HW1 6299   0.331   3.814   8.519  0.0153 -0.2795 -1.1274
  496SOL    HW2 6300   0.448   3.769   8.604 -1.0121  2.5627  1.9666
  497SOL     OW 6301  12.078   2.452   3.645 -0.4573 -0.4394  0.5055
  497SOL    HW1 6302  12.065   2.373   3.594 -0.8076 -0.4579  0.6204
  497SOL    HW2 6303  12.155   2.434   3.699 -1.2765 -1.1899  1.4662
  498SOL     OW 6304  10.940   8.622   6.221  0.4780  0.0358 -0.0624
  498SOL    HW1 6305  11.012   8.683   6.207  0.3848 -0.0457 -0.9908
  498SOL    HW2 6306  10.918   8.590   6.133 -0.0809 -0.6353  0.3065
  499SOL     OW 6307   2.808  10.422  10.408  0.0387 -0.3112 -0.1137
  499SOL    HW1 6308   2.809  10.482  10.333 -1.1959 -1.2385 -0.9090
  499SOL    HW2 6309   2.870  10.353  10.385 -1.0185 -1.0786 -0.7179
  500SOL     OW 6310   6.756   8.385   8.074  0.6304 -0.6475 -0.3787
  500SOL    HW1 6311   6.828   8.436   8.037 -0.0478  1.8694  1.4790
  500SOL    HW2 6312   6.796   8.337   8.146  0.7102 -0.3085 -0.1938
  501SOL     OW 6313  11.348  12.558   7.441  0.2811  0.1547 -0.0117
  501SOL    HW1 6314  11.363  12.602   7.358  1.5642 -2.2989 -1.1888
  501SOL    HW2 6315  11.359  12.465   7.422 -1.1739 -0.6687  2.5450
  502SOL     OW 6316   3.931   6.083   4.938  0.5760  0.1876 -0.8986
  502SOL    HW1 6317   3.957   6.150   4.874  0.7121 -0.9608 -2.0875
  502SOL    HW2 6318   3.845   6.054   4.907  1.0925 -1.0934 -1.1653
  503SOL     OW 6319   0.099   4.443  11.168  0.2777 -0.0836 -0.0703
  503SOL    HW1 6320   0.070   4.492  11.091 -1.5346 -0.0870  0.5592
  503SOL    HW2 6321   0.076   4.498  11.242  0.5629 -0.7656  0.5397
  504SOL     OW 6322   2.534   0.033   4.860  0.2027 -0.1135 -0.0575
  504SOL    HW1 6323   2.476   0.078   4.921  0.5099  0.4072 -0.1379
  504SOL    HW2 6324   2.475  -0.014   4.801 -0.0981 -0.5282  0.5656
  505SOL     OW 6325   9.929  11.093   6.187 -0.1591  0.1898 -0.2196
  505SOL    HW1 6326   9.873  11.046   6.126 -1.0340  1.5317 -0.4691
  505SOL    HW2 6327   9.973  11.159   6.134 -0.5811  1.0683  0.4929
  506SOL     OW 6328   6.408   0.870   9.654 -0.0575  0.0151 -0.2223
  506SOL    HW1 6329   6.349   0.856   9.728  0.3468 -0.2635  0.0478
  506SOL    HW2 6330   6.393   0.961   9.628 -1.3377 -0.3315 -0.8004
  507SOL     OW 6331  10.497   3.504  12.252 -0.1189  0.8363  0.1101
  507SOL    HW1 6332  10.414   3.533  12.216 -0.2928  0.6608  0.3683
  507SOL    HW2 6333  10.493   3.527  12.344  0.3935  1.4372 -0.0113
  508SOL     OW 6334   3.479   7.181   6.908 -0.0983 -0.2574  0.2128
  508SOL    HW1 6335   3.435   7.191   6.823 -3.5410  0.0179  1.8346
  508SOL    HW2 6336   3.465   7.089   6.931  0.6307 -0.2822  0.5784
  509SOL     OW 6337   5.507   4.744   4.169  0.4388 -1.1050 -0.1302
  509SOL    HW1 6338   5.485   4.833   4.197  0.0750 -0.8914 -1.0351
  509SOL    HW2 6339   5.430   4.692   4.193  0.8215 -1.2650  0.7718
  510SOL     OW 6340  11.326   7.093   5.399  0.3209  0.1558  0.1321
  510SOL    HW1 6341  11.383   7.018   5.419  1.8164  1.4455  0.9231
  510SOL    HW2 6342  11.309   7.133   5.484 -2.6964 -0.7503  0.0662
  511SOL     OW 6343  11.152   8.256   6.305  0.0790 -0.6291  0.0722
  511SOL    HW1 6344  11.065   8.295   6.294 -0.4022 -1.7065 -0.0317
  511SOL    HW2 6345  11.186   8.247   6.216  0.0645 -0.7326  0.0776
  512SOL     OW 6346   3.217  11.473  11.400  0.0242 -0.1360 -0.7087
  512SOL    HW1 6347   3.124  11.495  11.405 -0.1231 -0.9379  0.3519
  512SOL    HW2 6348   3.253  11.536  11.337 -0.9073  1.2766  0.1150
  513SOL     OW 6349   2.662   2.508   3.566  0.2443  0.0299  0.4571
  513SOL    HW1 6350   2.628   2.525   3.478  0.8012  0.9213  0.4068
  513SOL    HW2 6351   2.584   2.482   3.616 -0.1618  0.0053 -0.1698
  514SOL     OW 6352   2.253  11.911   3.457  0.0831 -0.0343  0.3281
  514SOL    HW1 6353   2.209  11.975   3.514  0.8244  1.5657 -0.8316
  514SOL    HW2 6354   2.341  11.904   3.492  0.2600  0.2308 -0.0637
  515SOL     OW 6355   4.917  11.516   5.727 -0.2648 -0.9941  0.0913
  515SOL    HW1 6356   4.891  11.433   5.687  1.4836 -0.9455 -1.2958
  515SOL    HW2 6357   5.011  11.523   5.707  0.4823 -0.3750  3.2466
  516SOL     OW 6358   6.435   9.768   5.697  0.0005  0.3845  0.4737
  516SOL    HW1 6359   6.486   9.795   5.773  0.4498 -0.2902  0.4203
  516SOL    HW2 6360   6.464   9.825   5.626  1.1992 -0.4395  0.2723
  517SOL     OW 6361  11.425  12.054   8.763 -0.0081 -0.4091  0.1988
  517SOL    HW1 6362  11.352  12.094   8.809 -1.7161 -0.9453 -1.8670
  517SOL    HW2 6363  11.436  12.107   8.684  0.4334 -1.5356 -0.5303
  518SOL     OW 6364  10.154  11.522   3.551 -0.3766 -0.2543  0.2059
  518SOL    HW1 6365  10.094  11.474   3.495  0.4823 -0.9523 -0.1444
  518SOL    HW2 6366  10.103  11.596   3.584 -0.9593  0.0547 -1.3183
  519SOL     OW 6367   8.276   1.306   0.361 -0.1481  0.1834  0.2477
  519SOL    HW1 6368   8.293   1.398   0.385  1.1541 -0.1874  0.8572
  519SOL    HW2 6369   8.332   1.290   0.286 -0.2501 -0.1664  0.2448
  520SOL     OW 6370   2.537   5.465   5.658  0.1268  0.1769  0.1056
  520SOL    HW1 6371   2.622   5.503   5.634 -0.1145  0.2000 -0.7084
  520SOL    HW2 6372   2.474   5.508   5.601 -0.4248  0.0727  0.6301
  521SOL     OW 6373   5.184  11.152   2.297 -0.0056 -0.4485 -0.0698
  521SOL    HW1 6374   5.101  11.113   2.324  0.6123 -1.0899  0.9843
  521SOL    HW2 6375   5.216  11.095   2.227  0.5177 -1.4379  0.9355
  522SOL     OW 6376  11.728   0.185   9.371 -0.1686 -0.1597 -0.1990
  522SOL    HW1 6377  11.775   0.174   9.454 -1.5299 -1.1984  0.4766
  522SOL    HW2 6378  11.796   0.200   9.306  1.0870 -1.3927  0.7819
  523SOL     OW 6379   5.998   3.024   9.532 -0.0630 -0.4696  0.3907
  523SOL    HW1 6380   6.094   3.030   9.534 -0.1364  1.0798  1.9456
  523SOL    HW2 6381   5.970   3.094   9.474 -0.2752 -1.5050 -0.8142
  524SOL     OW 6382   3.527   5.254  11.087 -0.1806  0.3907 -0.1489
  524SOL    HW1 6383   3.450   5.303  11.059 -0.2385 -0.4879 -1.6230
  524SOL    HW2 6384   3.493   5.194  11.154 -0.1257  2.2040  1.6042
  525SOL     OW 6385   4.775   9.331   2.854  0.3943  0.7138 -0.0255
  525SOL    HW1 6386   4.726   9.407   2.823  0.2108  0.2586 -0.8972
  525SOL    HW2 6387   4.839   9.314   2.785  1.5138  1.0399  0.9061
  526SOL     OW 6388  12.536   1.793   0.280  0.0235 -0.6729  0.0908
  526SOL    HW1 6389  12.517   1.787   0.374 -0.9318  0.3771 -0.0020
  526SOL    HW2 6390  12.532   1.703   0.249 -0.7682 -0.9305  0.8754
  527SOL     OW 6391   7.663   8.790   2.606 -0.5180 -0.4589  0.5627
  527SOL    HW1 6392   7.654   8.760   2.516 -1.7519  0.7816  0.2419
  527SOL    HW2 6393   7.578   8.827   2.628  0.0108 -0.0012  1.9704
  528SOL     OW 6394   6.328   3.038  10.557 -0.3945 -0.5667 -0.3175
  528SOL    HW1 6395   6.411   3.063  10.598 -0.0598  0.2728 -1.4530
  528SOL    HW2 6396   6.337   2.944  10.540  0.5342 -0.3877 -0.8888
  529SOL     OW 6397   3.021   0.665   9.925  0.5580  0.3608 -0.6393
  529SOL    HW1 6398   3.021   0.760   9.917 -1.1581  0.4710  0.1198
  529SOL    HW2 6399   2.949   0.646   9.986  0.8639 -1.4253 -0.7668
  530SOL     OW 6400   6.806   0.064   0.441 -0.0612 -0.0422 -0.3713
  530SOL    HW1 6401   6.791   0.027   0.528 -2.3947 -0.1930 -0.7611
  530SOL    HW2 6402   6.744   0.137   0.435 -0.4906 -0.4922 -2.1468
  531SOL     OW 6403   9.033   3.413   0.817  0.2648 -0.2413  0.2302
  531SOL    HW1 6404   8.965   3.363   0.773 -1.8709  2.0152  0.7239
  531SOL    HW2 6405   9.042   3.372   0.903 -0.6145 -0.4525  0.2227
  532SOL     OW 6406  11.563   6.660   4.279  0.1364  0.3461 -0.4085
  532SOL    HW1 6407  11.547   6.702   4.194  0.1385 -1.4267 -1.3443
  532SOL    HW2 6408  11.501   6.587   4.281  1.5278 -0.8708  0.1703
  533SOL     OW 6409  11.210   3.756  12.412 -0.4116 -0.6695 -0.3956
  533SOL    HW1 6410  11.259   3.680  12.443  1.1781 -0.0546 -1.2968
  533SOL    HW2 6411  11.230   3.761  12.319 -0.9657  0.5035 -0.4632
  534SOL     OW 6412   9.303   1.766   0.756  0.1101 -0.1366  0.0042
  534SOL    HW1 6413   9.251   1.771   0.676 -0.3429 -2.2481  0.0958
  534SOL    HW2 6414   9.390   1.795   0.731 -0.5640  1.4198 -0.6707
  535SOL     OW 6415   4.284   9.854   7.349  0.1793 -0.3520  0.3532
  535SOL    HW1 6416   4.255   9.766   7.371  0.1920 -0.0807  1.5383
  535SOL    HW2 6417   4.326   9.845   7.263  1.3371 -1.7600  1.0256
  536SOL     OW 6418   4.547   1.496   0.957  0.3820  0.1737  0.1885
  536SOL    HW1 6419   4.553   1.589   0.978 -0.7834  0.0887  1.0030
  536SOL    HW2 6420   4.558   1.451   1.041 -1.2718 -0.3146  0.1823
  537SOL     OW 6421   1.971   6.656   8.821  0.1140 -0.3092 -0.2996
  537SOL    HW1 6422   1.934   6.567   8.815 -2.1574  0.5661 -0.1675
  537SOL    HW2 6423   1.940   6.699   8.742 -0.2908  0.8758  0.4871
  538SOL     OW 6424   6.066   1.758  12.069 -0.5873  0.0312 -0.2794
  538SOL    HW1 6425   6.025   1.689  12.122 -0.0043 -0.6845 -0.7411
  538SOL    HW2 6426   6.102   1.819  12.133 -1.6024  0.2251  0.1355
  539SOL     OW 6427   6.530   8.697   8.084 -0.2685 -0.2919 -0.0737
  539SOL    HW1 6428   6.524   8.690   7.989 -0.0750 -1.4332 -0.0162
  539SOL    HW2 6429   6.623   8.690   8.103  0.2135  4.0307 -0.0443
  540SOL     OW 6430   0.186   0.375   1.457  0.2845 -0.3768 -0.1744
  540SOL    HW1 6431   0.211   0.284   1.446  2.8624  0.3232 -0.7003
  540SOL    HW2 6432   0.099   0.372   1.498  0.1458 -3.0231 -0.5412
  541SOL     OW 6433  11.015   3.416  12.122 -0.1907 -0.6410 -0.6679
  541SOL    HW1 6434  11.065   3.449  12.196  1.5500  1.2867 -2.5743
  541SOL    HW2 6435  10.928   3.453  12.133  0.1305 -0.1418  0.2518
  542SOL     OW 6436   6.795  10.782  11.226  0.3630 -0.2991  0.1559
  542SOL    HW1 6437   6.887  10.793  11.249 -0.0335  0.7718  1.3304
  542SOL    HW2 6438   6.776  10.853  11.165  0.2399 -0.3243  0.1637
  543SOL     OW 6439   2.653  11.224   8.665 -0.1564  0.1826 -0.3566
  543SOL    HW1 6440   2.727  11.264   8.712  0.4744 -0.0523 -1.1254
  543SOL    HW2 6441   2.593  11.197   8.734 -0.0433  1.3767  0.2392
  544SOL     OW 6442  11.340   5.794   2.225  0.3423  0.2915 -0.3750
  544SOL    HW1 6443  11.423   5.833   2.253  0.7635 -0.4493 -0.5403
  544SOL    HW2 6444  11.274   5.861   2.241  0.8395  0.5456  0.6643
  545SOL     OW 6445   3.069   1.869   1.588  0.3227  0.5718 -0.1995
  545SOL    HW1 6446   3.140   1.933   1.592  1.7154 -0.7348 -1.9905
  545SOL    HW2 6447   3.106   1.789   1.626 -0.8897  0.3828  0.6563
  546SOL     OW 6448   8.357   7.944   1.079  0.1783 -0.0055  0.8785
  546SOL    HW1 6449   8.277   7.951   1.028  0.5052  0.8889  0.4563
  546SOL    HW2 6450   8.411   7.880   1.033  0.6404  1.0988 -0.1562
  547SOL     OW 6451   0.835   3.811   2.633  0.3704 -0.3403  0.6640
  547SOL    HW1 6452   0.820   3.736   2.575 -1.1924 -0.7503  1.5641
  547SOL    HW2 6453   0.910   3.785   2.687 -1.6537 -2.3566  2.6685
  548SOL     OW 6454  10.484   2.573   1.505  0.5428 -0.6628  0.3249
  548SOL    HW1 6455  10.421   2.546   1.573  0.2488  1.7307  1.1046
  548SOL    HW2 6456  10.437   2.559   1.423 -0.3854 -0.5556  0.8153
  549SOL     OW 6457  10.532  10.967  12.130  0.2680 -0.1247 -0.1905
  549SOL    HW1 6458  10.619  10.940  12.158  0.7817  3.1157  1.9044
  549SOL    HW2 6459  10.545  11.056  12.096 -1.8497 -0.6129 -2.6151
  550SOL     OW 6460   6.908   3.993   4.013 -0.2327 -0.8888 -0.3284
  550SOL    HW1 6461   6.909   4.072   3.960  0.1314  0.2601  1.2933
  550SOL    HW2 6462   6.818   3.987   4.044  0.1710  0.1225  1.1975
  551SOL     OW 6463  10.943   3.136   1.579  0.0431  0.4876 -0.2593
  551SOL    HW1 6464  10.991   3.120   1.660 -1.0625  0.5739  0.4337
  551SOL    HW2 6465  11.011   3.146   1.512  0.9756  0.5169  0.6689
  552SOL     OW 6466   6.667  10.328   2.873  0.3028  0.2414 -0.4163
  552SOL    HW1 6467   6.615  10.347   2.950  1.0723 -0.0495  0.1902
  552SOL    HW2 6468   6.626  10.379   2.803  0.9274  2.3362  0.6612
  553SOL     OW 6469   0.091   3.228  11.040  0.3860  0.5426 -0.6521
  553SOL    HW1 6470   0.015   3.184  11.001 -0.1185 -0.1715  1.0699
  553SOL    HW2 6471   0.164   3.169  11.023 -0.1304 -0.5900  0.8658
  554SOL     OW 6472   8.510   8.740   5.494 -0.0526  0.2747 -0.3527
  554SOL    HW1 6473   8.540   8.673   5.555  0.8149 -0.7140 -1.8041
  554SOL    HW2 6474   8.534   8.823   5.535 -1.2063 -0.2540  1.5063
  555SOL     OW 6475   6.778   4.262   3.107  0.0308  0.0561 -0.2059
  555SOL    HW1 6476   6.753   4.214   3.186  1.4818 -1.6405 -0.7088
  555SOL    HW2 6477   6.873   4.252   3.103  0.1240  1.2017 -1.5057
  556SOL     OW 6478   5.773   5.392   9.846  0.2457  0.1384  0.7712
  556SOL    HW1 6479   5.687   5.371   9.881  0.2396  0.4983  0.9797
  556SOL    HW2 6480   5.800   5.314   9.799 -0.5219  0.2870  0.0625
  557SOL     OW 6481   7.295   1.916  11.275 -0.0394  0.1484 -0.5029
  557SOL    HW1 6482   7.221   1.969  11.249 -0.6341  0.1882  1.1326
  557SOL    HW2 6483   7.333   1.962  11.349  0.8430 -0.5245 -0.5138
  558SOL     OW 6484   9.026  10.991   7.559 -0.2585 -0.9286  0.3668
  558SOL    HW1 6485   8.999  10.956   7.474 -1.4193  2.2744 -0.7126
  558SOL    HW2 6486   8.973  10.944   7.623 -1.0316 -1.7923 -0.8708
  559SOL     OW 6487   9.732   5.645   5.815 -0.0826 -0.0411  0.0133
  559SOL    HW1 6488   9.661   5.656   5.877  0.1049  0.7855  0.0819
  559SOL    HW2 6489   9.690   5.647   5.729 -0.0025  1.8344 -0.0127
  560SOL     OW 6490   6.142   3.598   0.432 -0.0942  0.2423  0.1778
  560SOL    HW1 6491   6.104   3.525   0.383  0.1367  1.1037 -1.3563
  560SOL    HW2 6492   6.222   3.619   0.383  1.7507 -0.7112  2.5934
  561SOL     OW 6493   6.976   4.119  12.104 -0.1657 -0.2640  0.0540
  561SOL    HW1 6494   7.063   4.082  12.121 -0.4078 -0.4416  0.9392
  561SOL    HW2 6495   6.923   4.089  12.178 -1.5834 -2.0419 -1.5788
  562SOL     OW 6496  11.230   2.170   7.740  0.0438 -0.9085  0.5871
  562SOL    HW1 6497  11.235   2.234   7.669  2.3897  0.0921  1.5415
  562SOL    HW2 6498  11.161   2.202   7.798  1.5334  1.1632  1.3337
  563SOL     OW 6499  12.061   9.826  10.126 -0.2801  0.4846  0.2155
  563SOL    HW1 6500  12.039   9.908  10.081 -0.6673  0.2262 -0.0656
  563SOL    HW2 6501  11.986   9.809  10.182 -0.7790 -0.3601 -0.6906
  564SOL     OW 6502   1.273   5.463   7.377  0.6198 -0.1197  0.4015
  564SOL    HW1 6503   1.351   5.519   7.381  1.3199 -0.9663 -0.6438
  564SOL    HW2 6504   1.295   5.388   7.433 -0.6284  0.9624  2.4473
  565SOL     OW 6505   5.421   7.176   1.313 -0.1801 -0.4851 -0.3506
  565SOL    HW1 6506   5.422   7.243   1.245 -0.9388  1.4862  1.4793
  565SOL    HW2 6507   5.329   7.167   1.336  0.1239 -0.6448  0.8492
  566SOL     OW 6508   8.237  10.356  11.992  0.1688  0.2772  0.5868
  566SOL    HW1 6509   8.311  10.313  11.948 -0.4883  0.9359 -1.2238
  566SOL    HW2 6510   8.247  10.331  12.084  0.0414 -3.4201 -0.2635
  567SOL     OW 6511   9.416   1.692   2.489 -0.1092  0.1405  0.0248
  567SOL    HW1 6512   9.504   1.708   2.454 -0.3122  0.2098 -0.4483
  567SOL    HW2 6513   9.413   1.597   2.503 -0.6948 -0.1710 -1.9587
  568SOL     OW 6514   6.715   7.332  12.506 -0.3378  0.2145 -0.3735
  568SOL    HW1 6515   6.789   7.306  12.451  2.2619  0.1701  2.8398
  568SOL    HW2 6516   6.643   7.275  12.478  1.1766 -0.6812 -2.7669
  569SOL     OW 6517   4.417   8.570   5.836 -0.2097 -0.0622 -0.0304
  569SOL    HW1 6518   4.323   8.554   5.841 -0.0215 -2.3327 -2.0889
  569SOL    HW2 6519   4.431   8.645   5.893 -3.4885  1.3426 -0.8149
  570SOL     OW 6520   4.630  12.269   6.260  0.1055  0.5647  0.4468
  570SOL    HW1 6521   4.652  12.275   6.353  1.6171 -1.2989  0.2926
  570SOL    HW2 6522   4.554  12.211   6.258 -0.5778  1.4496  0.5755
  571SOL     OW 6523   1.575   6.329  11.586  0.0669 -0.6888 -0.1893
  571SOL    HW1 6524   1.631   6.407  11.584  0.0102 -0.5863  1.1047
  571SOL    HW2 6525   1.573   6.298  11.496  5.1029 -2.7465  0.0696
  572SOL     OW 6526   0.878   4.171   7.527 -0.2206 -0.0149  0.2404
  572SOL    HW1 6527   0.914   4.253   7.493 -2.0585  1.5672  1.8028
  572SOL    HW2 6528   0.795   4.161   7.480  0.3623 -1.4571 -0.5191
  573SOL     OW 6529  12.204   7.287   7.575 -0.0104  0.3025  0.7075
  573SOL    HW1 6530  12.205   7.335   7.658  0.4759 -2.1380  2.2206
  573SOL    HW2 6531  12.156   7.207   7.594 -0.5298 -0.0201 -1.6223
  574SOL     OW 6532   9.981  11.914   5.967  0.3143  0.0348 -0.0245
  574SOL    HW1 6533   9.928  11.867   5.903 -1.6050  2.1818 -0.0980
  574SOL    HW2 6534  10.012  11.992   5.922 -2.0035  2.1868  1.8471
  575SOL     OW 6535   8.585  11.923   3.355 -0.5556 -0.1415  0.2681
  575SOL    HW1 6536   8.626  11.849   3.310 -0.8353  0.0844 -0.3773
  575SOL    HW2 6537   8.545  11.974   3.284  1.2972  1.6924  0.4248
  576SOL     OW 6538   9.081   7.402   7.899  0.0002 -0.2885  0.1298
  576SOL    HW1 6539   9.104   7.491   7.927 -1.2491 -0.0672  0.5134
  576SOL    HW2 6540   9.162   7.367   7.862  0.7109  0.7430  0.6546
  577SOL     OW 6541   5.491   8.380   8.719 -0.4147  0.7905  0.2993
  577SOL    HW1 6542   5.492   8.475   8.731  0.2429  0.6959  1.1576
  577SOL    HW2 6543   5.577   8.360   8.682  0.0785  0.3818  1.6070
  578SOL     OW 6544   3.059   7.403  10.915 -0.5438  0.1226  0.2642
  578SOL    HW1 6545   3.066   7.331  10.852  0.0768 -0.3686  0.8838
  578SOL    HW2 6546   3.109   7.474  10.875  0.5945 -0.4760  0.5808
  579SOL     OW 6547   3.618   1.193   6.376  0.6852 -0.1381  0.7048
  579SOL    HW1 6548   3.606   1.262   6.441 -3.2089  0.1585 -0.0378
  579SOL    HW2 6549   3.607   1.239   6.292  2.4515 -1.0197 -0.0459
  580SOL     OW 6550   5.557   3.331  11.758  0.0620  0.3160 -0.6004
  580SOL    HW1 6551   5.531   3.321  11.850 -0.0247  0.8663 -0.5590
  580SOL    HW2 6552   5.519   3.256  11.714  0.8981 -0.4695 -0.0218
  581SOL     OW 6553  10.459  11.470  10.958  0.2125 -0.3541 -0.1380
  581SOL    HW1 6554  10.381  11.414  10.957  1.4817 -2.2388  0.6627
  581SOL    HW2 6555  10.427  11.555  10.988 -1.8754 -0.4482 -1.8931
  582SOL     OW 6556   7.888   4.711   9.263 -0.1892  0.1431  0.5681
  582SOL    HW1 6557   7.841   4.674   9.188  0.6318 -0.3324  0.2701
  582SOL    HW2 6558   7.828   4.776   9.299 -1.6704 -1.4511  1.0945
  583SOL     OW 6559  10.266   5.093   3.589  0.0793 -0.0447  0.1150
  583SOL    HW1 6560  10.352   5.075   3.552  1.9225  1.7545  3.0783
  583SOL    HW2 6561  10.230   5.162   3.534  1.9715  1.3749  0.5569
  584SOL     OW 6562   9.500   8.967   9.760 -0.1060 -0.2396 -0.1361
  584SOL    HW1 6563   9.428   9.017   9.722  1.0778  3.0121  1.4703
  584SOL    HW2 6564   9.579   9.006   9.722  0.8906 -1.4180  0.6491
  585SOL     OW 6565   7.661   5.184  10.746  0.2520  0.0587  0.2395
  585SOL    HW1 6566   7.694   5.106  10.700 -0.7473 -0.2116 -0.0503
  585SOL    HW2 6567   7.712   5.187  10.827  2.8232  1.1473 -1.2894
  586SOL     OW 6568   8.039   4.227   4.731 -0.4128  0.5644 -0.7501
  586SOL    HW1 6569   7.951   4.259   4.751 -0.4694  0.0530 -0.1745
  586SOL    HW2 6570   8.069   4.186   4.812  1.3774  2.9573 -0.0700
  587SOL     OW 6571   2.003   1.891   8.459  0.2788 -0.1251  0.5045
  587SOL    HW1 6572   2.039   1.803   8.463  0.7156  0.0715  0.9816
  587SOL    HW2 6573   2.068   1.946   8.501  0.0062  0.4302  0.2164
  588SOL     OW 6574   6.932   6.501   6.454 -0.4712 -0.5421 -0.7811
  588SOL    HW1 6575   6.882   6.431   6.497  0.3716 -1.2465 -0.9127
  588SOL    HW2 6576   6.933   6.476   6.362  1.3063 -1.3222 -0.5924
  589SOL     OW 6577   9.886   4.961   3.104 -0.3823 -0.1694 -0.6212
  589SOL    HW1 6578   9.929   4.951   3.190 -1.5054 -3.1791 -0.2989
  589SOL    HW2 6579   9.955   4.941   3.041  0.0144  0.3627 -0.3688
  590SOL     OW 6580   0.031   0.778   6.341  0.0062  0.1049  0.0303
  590SOL    HW1 6581  -0.029   0.767   6.415  1.8106 -0.7375  1.4737
  590SOL    HW2 6582   0.021   0.698   6.290  0.7575 -0.6095  0.9639
  591SOL     OW 6583   2.687   0.349   2.832 -0.1717 -0.0315 -0.0082
  591SOL    HW1 6584   2.688   0.288   2.758 -1.0619  1.2565 -1.1089
  591SOL    HW2 6585   2.619   0.315   2.890 -1.1552  0.2865 -0.9542
  592SOL     OW 6586   9.901   5.862  12.130 -0.1993 -0.6273  0.1660
  592SOL    HW1 6587   9.951   5.826  12.057 -0.8665  1.5104 -1.4375
  592SOL    HW2 6588   9.967   5.891  12.193  0.4785 -0.2820 -0.6923
  593SOL     OW 6589   9.980  11.808   4.786  0.1409 -0.1174 -0.2579
  593SOL    HW1 6590  10.045  11.740   4.767  1.9284  0.9545  1.6625
  593SOL    HW2 6591   9.936  11.778   4.865 -0.6325 -0.0665 -0.6562
  594SOL     OW 6592   8.873   4.703   1.963 -0.2596 -0.3041 -0.2041
  594SOL    HW1 6593   8.892   4.618   2.003  0.8276  0.3776  0.8077
  594SOL    HW2 6594   8.927   4.705   1.884  1.2586  0.1999  0.8053
  595SOL     OW 6595   9.400   3.815   3.006 -0.2557 -0.2997  0.2584
  595SOL    HW1 6596   9.461   3.742   3.001 -0.2228 -0.2328 -0.4805
  595SOL    HW2 6597   9.317   3.780   2.974 -0.2264 -0.0017 -0.1547
  596SOL     OW 6598   2.163   4.537   5.361 -0.4677 -0.1243  0.6720
  596SOL    HW1 6599   2.143   4.631   5.355 -1.2178 -0.2976  0.3526
  596SOL    HW2 6600   2.182   4.511   5.271 -3.6800 -0.9936  0.1088
  597SOL     OW 6601   8.502   5.780  10.409  0.3319  0.3559 -0.7259
  597SOL    HW1 6602   8.454   5.730  10.342  0.8425 -0.1971 -0.6914
  597SOL    HW2 6603   8.438   5.793  10.479  0.4402 -1.1082 -0.3103
  598SOL     OW 6604   1.941   3.645  10.862  0.0690 -0.3698  0.5669
  598SOL    HW1 6605   1.932   3.731  10.821 -1.3938 -0.9279 -0.3870
  598SOL    HW2 6606   2.002   3.597  10.807  2.3774  0.5956  2.1335
  599SOL     OW 6607  11.474   2.034   9.907 -0.3908 -0.5295 -0.6840
  599SOL    HW1 6608  11.468   2.124   9.876  0.6027  0.0725  0.7534
  599SOL    HW2 6609  11.410   2.028   9.978  1.1616 -0.2154  0.8042
  600SOL     OW 6610  10.693   7.731   9.166  0.3144 -0.0677 -0.0688
  600SOL    HW1 6611  10.632   7.735   9.239 -0.4744 -2.1561 -0.5329
  600SOL    HW2 6612  10.780   7.736   9.206 -0.0949 -1.4657  1.0822
  601SOL     OW 6613   3.445   5.955   0.492 -0.1352  0.2671  0.1457
  601SOL    HW1 6614   3.413   5.953   0.402 -0.7967  1.4354  0.3287
  601SOL    HW2 6615   3.374   5.996   0.542 -0.6497 -2.1625  1.5858
  602SOL     OW 6616   2.798   5.490   0.230 -0.3169  0.5727  0.0829
  602SOL    HW1 6617   2.774   5.458   0.143  0.1688  0.0920  0.1234
  602SOL    HW2 6618   2.854   5.422   0.266  0.0836  1.1103  0.4850
  603SOL     OW 6619   4.682   0.372  12.003  0.3550  0.3821  0.2338
  603SOL    HW1 6620   4.637   0.320  11.936 -0.3450  0.0625  0.9285
  603SOL    HW2 6621   4.765   0.397  11.963 -0.5867  1.3060 -1.2351
  604SOL     OW 6622   2.806   0.313   4.263  0.0598 -0.1729  0.4797
  604SOL    HW1 6623   2.773   0.342   4.348  2.1943  0.4487  1.1512
  604SOL    HW2 6624   2.856   0.234   4.283  0.3569 -0.1682 -0.2341
  605SOL     OW 6625   5.264   3.088   7.909 -0.3451  0.6115 -0.0181
  605SOL    HW1 6626   5.247   2.995   7.927 -2.6334  0.5997 -1.6485
  605SOL    HW2 6627   5.253   3.131   7.993  2.0124 -0.6581  1.0411
  606SOL     OW 6628   1.538   3.035   9.906  1.5628 -0.3082  0.2577
  606SOL    HW1 6629   1.461   3.082   9.872  1.9295  0.2876  0.2374
  606SOL    HW2 6630   1.525   2.945   9.877 -0.5249 -0.8733  2.5520
  607SOL     OW 6631   6.422   1.077   6.033  0.2782  0.2147  0.1276
  607SOL    HW1 6632   6.426   0.990   5.991 -3.7549 -0.0648 -0.0911
  607SOL    HW2 6633   6.405   1.058   6.125 -1.6060  0.6613 -0.0834
  608SOL     OW 6634   3.223   8.893   7.473 -0.0497 -0.3314  0.4372
  608SOL    HW1 6635   3.135   8.865   7.497 -0.8639  0.1922 -1.6944
  608SOL    HW2 6636   3.266   8.813   7.440 -0.5264 -0.1724 -0.6124
  609SOL     OW 6637   4.189  12.124   1.721  0.0305 -0.2847  0.4103
  609SOL    HW1 6638   4.199  12.071   1.800 -0.2220 -1.9248 -0.6026
  609SOL    HW2 6639   4.228  12.071   1.651  0.9262  1.4301 -0.4820
  610SOL     OW 6640   3.788   6.532   9.597  0.1566 -0.3816 -0.1158
  610SOL    HW1 6641   3.768   6.444   9.565  0.5099 -0.0215 -1.3878
  610SOL    HW2 6642   3.882   6.542   9.582  0.1372  0.1813  0.1099
  611SOL     OW 6643   2.952  10.640   4.564  0.3758 -0.1330 -0.2077
  611SOL    HW1 6644   2.900  10.632   4.484 -0.8140 -1.3175  0.6339
  611SOL    HW2 6645   2.888  10.636   4.635  1.5755 -1.5706  0.8721
  612SOL     OW 6646   9.173   7.014  10.885  0.5628  0.0398  0.0368
  612SOL    HW1 6647   9.208   7.081  10.827 -2.2367  1.6122  0.0015
  612SOL    HW2 6648   9.232   7.014  10.961  2.3639  0.2973 -1.3016
  613SOL     OW 6649   3.533   1.013   9.712 -0.3752  0.1276  0.3810
  613SOL    HW1 6650   3.581   0.935   9.685 -1.8770 -0.7153  0.0285
  613SOL    HW2 6651   3.582   1.046   9.787 -0.3161 -1.7989  1.2444
  614SOL     OW 6652   6.345   5.511   4.022  0.7071  0.5149 -0.6164
  614SOL    HW1 6653   6.377   5.433   4.065 -0.6056  0.1130 -0.3072
  614SOL    HW2 6654   6.418   5.542   3.970  2.4297  1.0998  1.9635
  615SOL     OW 6655   0.274   1.115   0.150 -0.5790  0.1347 -0.8708
  615SOL    HW1 6656   0.215   1.181   0.187 -2.4330 -1.7156 -0.3738
  615SOL    HW2 6657   0.220   1.038   0.137  1.2446 -0.9628 -2.5744
  616SOL     OW 6658   5.975  12.617  10.844  0.1162  0.3712 -0.2254
  616SOL    HW1 6659   5.925  12.538  10.864  2.5856 -0.9837  1.0202
  616SOL    HW2 6660   5.986  12.615  10.749  0.4218 -0.9772 -0.1745
  617SOL     OW 6661   1.018   6.301  10.004 -0.4890 -0.1535  0.0416
  617SOL    HW1 6662   1.096   6.322  10.056  0.3223 -1.9404 -0.3675
  617SOL    HW2 6663   0.945   6.315  10.064  0.3106 -0.5332  1.1524
  618SOL     OW 6664   9.858   8.883   4.052  0.2636  0.2237 -0.5543
  618SOL    HW1 6665   9.847   8.974   4.081  1.4033  0.2591 -0.1996
  618SOL    HW2 6666   9.943   8.857   4.086  0.2288 -0.7765 -1.1982
  619SOL     OW 6667  10.939   5.966   8.205 -0.3325  0.1379 -0.1753
  619SOL    HW1 6668  10.856   6.006   8.177 -0.0096  0.8695 -0.1063
  619SOL    HW2 6669  10.952   5.997   8.294 -0.5111 -0.8449  0.2131
  620SOL     OW 6670   8.681   4.912   6.684  0.3248 -0.1305 -0.3247
  620SOL    HW1 6671   8.603   4.879   6.639  0.8630 -0.2202 -1.2150
  620SOL    HW2 6672   8.750   4.849   6.663  0.7370  0.1517  0.1350
  621SOL     OW 6673   8.284   7.413  10.780  0.2153  0.5107  0.2171
  621SOL    HW1 6674   8.320   7.328  10.754  1.3933  1.0313  0.0958
  621SOL    HW2 6675   8.191   7.395  10.798  0.3642 -0.7225 -0.1469
  622SOL     OW 6676   7.969   9.884   4.908  0.5914 -0.2773  0.4021
  622SOL    HW1 6677   7.990   9.963   4.858 -0.0730  0.3844  1.1417
  622SOL    HW2 6678   7.884   9.857   4.874  1.5749 -1.7029 -1.0668
  623SOL     OW 6679   6.261   0.876  10.383  0.0435 -0.1851 -0.3010
  623SOL    HW1 6680   6.197   0.937  10.347  0.6525  0.3808 -0.4353
  623SOL    HW2 6681   6.209   0.818  10.439 -0.8211 -0.6864 -1.5656
  624SOL     OW 6682   7.479   1.347   7.964 -0.0417  0.5358 -0.2101
  624SOL    HW1 6683   7.436   1.262   7.973 -0.2408  0.8328  3.1344
  624SOL    HW2 6684   7.570   1.330   7.991  0.3046  1.1069 -1.0101
  625SOL     OW 6685   7.011   6.880   4.830  0.0621 -0.1374  0.1989
  625SOL    HW1 6686   6.948   6.808   4.829  0.4376 -0.6458  3.2362
  625SOL    HW2 6687   6.967   6.950   4.879  0.6739  0.7649 -0.4936
  626SOL     OW 6688   8.221   4.999   0.188 -0.3169  0.0044  0.5603
  626SOL    HW1 6689   8.189   4.917   0.149 -0.9808  0.6546 -0.2820
  626SOL    HW2 6690   8.194   4.994   0.279 -1.2617 -0.2624  0.2734
  627SOL     OW 6691   1.725   4.787   1.257  0.1523  0.3077  0.0577
  627SOL    HW1 6692   1.639   4.808   1.222  0.3162  0.0005 -0.5317
  627SOL    HW2 6693   1.714   4.791   1.352 -1.2300 -2.4822  0.1034
  628SOL     OW 6694   3.332   3.236   1.158 -0.4583 -0.5571  0.4353
  628SOL    HW1 6695   3.351   3.318   1.113 -0.8863 -0.8914 -0.3825
  628SOL    HW2 6696   3.309   3.175   1.088 -0.6463 -1.2391  1.0722
  629SOL     OW 6697   5.368   0.872   8.515  0.2932  0.0907  0.2659
  629SOL    HW1 6698   5.351   0.777   8.515  3.3699 -0.5581  0.5607
  629SOL    HW2 6699   5.379   0.894   8.607  0.1072  0.6296  0.1576
  630SOL     OW 6700   0.713   4.463   9.071 -0.4694 -0.4814 -0.2512
  630SOL    HW1 6701   0.631   4.498   9.104 -0.1943 -1.4979  1.6691
  630SOL    HW2 6702   0.767   4.452   9.149  0.9465 -1.2241 -1.2961
  631SOL     OW 6703   1.437  10.744   4.827  0.4318  0.1254 -0.8279
  631SOL    HW1 6704   1.426  10.815   4.891  1.5645 -0.5827  0.1824
  631SOL    HW2 6705   1.482  10.785   4.753  0.9285  0.5070 -0.3194
  632SOL     OW 6706   8.911   4.237   5.880  0.0641 -0.2004  0.7971
  632SOL    HW1 6707   8.900   4.236   5.975  2.4170 -1.0400  1.1192
  632SOL    HW2 6708   8.868   4.156   5.850 -0.9876  0.2373  1.0564
  633SOL     OW 6709   7.621   6.125   1.108 -0.1588  0.0664  0.3790
  633SOL    HW1 6710   7.607   6.153   1.017 -0.0023  1.4904  0.7715
  633SOL    HW2 6711   7.701   6.072   1.104 -0.3653 -0.2119 -0.3670
  634SOL     OW 6712   6.364   0.021  10.011 -0.1099  0.1765  0.0464
  634SOL    HW1 6713   6.351   0.116  10.009 -0.6431  0.1044 -0.1498
  634SOL    HW2 6714   6.441   0.007   9.956 -0.6794  0.4070 -0.8421
  635SOL     OW 6715   3.403  11.459   9.890 -0.6557 -0.0864 -0.1928
  635SOL    HW1 6716   3.482  11.511   9.876 -0.3803 -0.1340  1.1106
  635SOL    HW2 6717   3.332  11.515   9.859 -0.5264  1.7524  2.5249
  636SOL     OW 6718   0.091  11.702   3.687 -0.4582  0.5236  0.0586
  636SOL    HW1 6719   0.152  11.754   3.739 -0.7495  0.1824  0.7533
  636SOL    HW2 6720   0.071  11.757   3.611  0.2511  0.8777  0.1252
  637SOL     OW 6721   0.715   0.896   3.696  0.4827  0.0591 -0.5241
  637SOL    HW1 6722   0.776   0.835   3.655  1.1095  1.1738 -1.2999
  637SOL    HW2 6723   0.671   0.939   3.623 -2.0754 -1.4648  0.0086
  638SOL     OW 6724   0.719  10.060  10.085  0.2069 -0.0218 -0.0075
  638SOL    HW1 6725   0.746   9.982  10.038  1.8112 -0.1256  0.9981
  638SOL    HW2 6726   0.769  10.057  10.166 -1.6490  0.7049  1.2416
  639SOL     OW 6727   0.468   8.564   2.472 -0.1708 -0.2177 -0.3996
  639SOL    HW1 6728   0.505   8.478   2.453  1.0004 -0.1905  1.5396
  639SOL    HW2 6729   0.542   8.624   2.465 -0.5730  0.3496  0.1318
  640SOL     OW 6730   5.309   5.578   3.479  0.1654 -0.1169 -0.6410
  640SOL    HW1 6731   5.306   5.671   3.456 -0.0341 -0.0643 -0.4102
  640SOL    HW2 6732   5.346   5.535   3.402  1.4151  0.3020 -0.2952
  641SOL     OW 6733   4.128   8.463   5.442  0.4065  0.3374  0.6368
  641SOL    HW1 6734   4.189   8.443   5.371  1.8445  1.0094  1.6322
  641SOL    HW2 6735   4.043   8.471   5.399  0.9981 -0.6417 -0.7942
  642SOL     OW 6736   1.035   0.530   2.032 -0.0773  0.9772  0.1565
  642SOL    HW1 6737   1.013   0.467   2.100  0.6614 -0.1270 -0.5875
  642SOL    HW2 6738   1.028   0.615   2.074 -0.2655  0.3526  1.4206
  643SOL     OW 6739   5.992  11.074   8.299  0.4602  0.2457  0.1968
  643SOL    HW1 6740   5.977  10.992   8.251  1.4227  0.7694 -1.0704
  643SOL    HW2 6741   6.018  11.046   8.386  3.2472 -0.9377 -0.8881
  644SOL     OW 6742   3.553  10.417   1.273  0.3987  0.1887 -0.1665
  644SOL    HW1 6743   3.481  10.459   1.320 -0.4326 -1.4704  0.1307
  644SOL    HW2 6744   3.611  10.384   1.342  1.8226  2.0397 -0.4021
  645SOL     OW 6745   0.663   5.386  11.235  0.0090  0.0236  0.2244
  645SOL    HW1 6746   0.752   5.353  11.239  0.4024  1.0161 -0.1263
  645SOL    HW2 6747   0.632   5.384  11.326 -0.0291 -1.4070  0.1932
  646SOL     OW 6748  10.032   4.329  10.216  0.0628  0.1191  0.5663
  646SOL    HW1 6749  10.082   4.266  10.164 -0.0420 -0.3255  0.9965
  646SOL    HW2 6750   9.965   4.277  10.259 -1.0351  0.7708 -0.3052
  647SOL     OW 6751   5.712  12.053  10.932 -0.4141 -0.6589 -0.5234
  647SOL    HW1 6752   5.740  12.041  10.842  2.0924  0.1828  0.0584
  647SOL    HW2 6753   5.638  12.114  10.927 -0.3466 -0.6707 -1.9954
  648SOL     OW 6754  11.103   7.128   2.084  0.2018 -0.1927 -0.3288
  648SOL    HW1 6755  11.077   7.057   2.026  1.7456  0.3227 -1.7346
  648SOL    HW2 6756  11.044   7.200   2.062 -2.3806 -1.3597  2.1444
  649SOL     OW 6757   9.422   3.499   6.878  0.4148  0.0719 -0.6768
  649SOL    HW1 6758   9.350   3.449   6.917  0.8208  0.5267  0.7466
  649SOL    HW2 6759   9.479   3.520   6.952  0.5867  2.0804 -1.3141
  650SOL     OW 6760   7.413   9.144   7.327  0.1694  0.1571 -0.0529
  650SOL    HW1 6761   7.322   9.133   7.354 -0.0395  0.9824 -0.3803
  650SOL    HW2 6762   7.451   9.057   7.337 -0.3138  0.0696  1.3081
  651SOL     OW 6763   9.439   9.298  12.081 -0.4264  0.0214  0.3550
  651SOL    HW1 6764   9.448   9.365  12.013 -1.3967 -0.3043 -0.1181
  651SOL    HW2 6765   9.358   9.321  12.127  2.0074  2.4140  3.9261
  652SOL     OW 6766   0.097   1.347   8.551  0.2500 -0.3152  0.4730
  652SOL    HW1 6767   0.131   1.282   8.489  1.2217 -0.0804  0.7333
  652SOL    HW2 6768   0.041   1.403   8.497  0.3254 -0.6787  0.0016
  653SOL     OW 6769   4.530  11.453  10.967  0.0324  0.4579  0.1556
  653SOL    HW1 6770   4.486  11.371  10.987  1.5762 -0.6674 -0.8470
  653SOL    HW2 6771   4.563  11.442  10.878  0.8355  1.9131  0.2324
  654SOL     OW 6772  10.927   3.488   0.663  0.0641  0.1509  1.1602
  654SOL    HW1 6773  10.844   3.515   0.703 -0.7584 -1.4797  0.6257
  654SOL    HW2 6774  10.952   3.409   0.710  0.1698 -0.6004 -0.1229
  655SOL     OW 6775  11.349   7.738   9.467  0.5429 -0.3525  0.2477
  655SOL    HW1 6776  11.275   7.734   9.527 -1.1799  2.4227 -1.4638
  655SOL    HW2 6777  11.322   7.684   9.392 -0.0639  1.1307 -0.6321
  656SOL     OW 6778   7.913   0.241   8.482  0.8003  0.6347  0.3832
  656SOL    HW1 6779   7.822   0.251   8.455  0.6310 -0.1860  0.5982
  656SOL    HW2 6780   7.965   0.265   8.405  0.4541  2.4524  0.6894
  657SOL     OW 6781  11.831   1.138   8.572 -0.7046  0.2473 -0.0245
  657SOL    HW1 6782  11.780   1.217   8.585 -0.3357  0.2176  1.8185
  657SOL    HW2 6783  11.919   1.169   8.552 -1.0181  0.2831 -1.4674
  658SOL     OW 6784   6.400   6.810  10.942  0.4437  0.1173 -0.3367
  658SOL    HW1 6785   6.366   6.899  10.928 -0.7297 -0.0696  1.0915
  658SOL    HW2 6786   6.358   6.758  10.873  0.7682  0.5633 -0.8850
  659SOL     OW 6787   9.173   8.407   7.120  0.0585  0.2398 -0.1438
  659SOL    HW1 6788   9.237   8.457   7.171  2.1784 -2.5304  0.1230
  659SOL    HW2 6789   9.196   8.424   7.029  0.1648  0.4553 -0.0783
  660SOL     OW 6790   4.206   2.716   0.765  0.2137 -0.3401  0.5870
  660SOL    HW1 6791   4.258   2.637   0.783  0.4828  0.1052  1.9300
  660SOL    HW2 6792   4.263   2.788   0.792 -0.1971  0.2973 -0.2185
  661SOL     OW 6793   1.277   0.405   3.707 -0.0727  0.1079  0.2250
  661SOL    HW1 6794   1.295   0.317   3.676  2.2556  0.9187 -0.9892
  661SOL    HW2 6795   1.364   0.443   3.722 -0.9853  2.3373  0.2613
  662SOL     OW 6796  11.987   1.617   8.799  0.1799 -0.1593 -0.4575
  662SOL    HW1 6797  12.073   1.579   8.814  0.4071  0.5530  0.1099
  662SOL    HW2 6798  11.925   1.552   8.832  0.4847 -0.7333 -0.9961
  663SOL     OW 6799   2.442  10.667   8.402  0.2929 -0.3197 -0.0173
  663SOL    HW1 6800   2.370  10.720   8.435  0.6110  0.7239 -0.9203
  663SOL    HW2 6801   2.520  10.704   8.442  0.4277 -0.7926  0.1672
  664SOL     OW 6802   8.119  12.595   5.490  0.4349  0.1483  0.1673
  664SOL    HW1 6803   8.161  12.512   5.512  0.0932 -0.1915 -0.4468
  664SOL    HW2 6804   8.034  12.570   5.454  0.7877  0.7127 -1.0852
  665SOL     OW 6805   3.639  12.617   9.359  0.1901  0.0317  0.2124
  665SOL    HW1 6806   3.665  12.705   9.332  0.0069 -0.2123 -0.7996
  665SOL    HW2 6807   3.668  12.561   9.287  0.5093 -0.7737  0.9465
  666SOL     OW 6808  12.141   2.796   0.323  0.2958 -0.1568 -0.2939
  666SOL    HW1 6809  12.179   2.750   0.398 -1.5101  0.8462  1.3466
  666SOL    HW2 6810  12.090   2.729   0.278  0.4875 -0.5285  0.0319
  667SOL     OW 6811   1.364  12.297   1.950 -0.3212  0.1389  0.4354
  667SOL    HW1 6812   1.348  12.379   1.998  1.0150  1.1513 -0.7675
  667SOL    HW2 6813   1.301  12.298   1.879 -0.7235 -0.2032  0.7808
  668SOL     OW 6814  10.141   5.956   2.440  0.0996 -0.1006  0.1367
  668SOL    HW1 6815  10.067   5.915   2.485 -1.3091  0.5939 -1.4134
  668SOL    HW2 6816  10.113   5.961   2.348  1.3545  1.7725 -0.2062
  669SOL     OW 6817   2.026   1.248   3.824  0.1722  0.2174  0.0990
  669SOL    HW1 6818   2.019   1.155   3.800  1.2165 -0.0796  0.8893
  669SOL    HW2 6819   2.109   1.277   3.786  0.4883  0.4732  0.9624
  670SOL     OW 6820   7.027  10.153  11.412 -0.3136  0.5337 -0.3789
  670SOL    HW1 6821   6.938  10.162  11.378 -0.7008  0.1391  0.4803
  670SOL    HW2 6822   7.056  10.243  11.428 -1.3644  0.6296  1.2733
  671SOL     OW 6823   2.513   3.600   1.047 -0.1317  0.0229 -0.1745
  671SOL    HW1 6824   2.554   3.662   1.107  0.8049 -1.2610  0.5551
  671SOL    HW2 6825   2.439   3.648   1.010  0.5581  1.5657  0.3548
  672SOL     OW 6826   3.202   9.857  11.174  0.6896 -0.7495 -0.0705
  672SOL    HW1 6827   3.149   9.933  11.148 -0.7057 -1.8239 -0.5558
  672SOL    HW2 6828   3.292   9.888  11.173  0.0129  1.5919  2.2412
  673SOL     OW 6829   7.569   8.000   8.486  0.2311  0.2911 -0.5064
  673SOL    HW1 6830   7.570   8.086   8.527  0.4382 -0.2919  0.7766
  673SOL    HW2 6831   7.642   8.002   8.424  1.2055  0.5368  0.6251
  674SOL     OW 6832   2.203   4.226   6.521  0.4183 -0.2383 -0.6060
  674SOL    HW1 6833   2.263   4.228   6.446 -0.5211 -2.4284 -1.5100
  674SOL    HW2 6834   2.117   4.243   6.483  0.0043 -0.7737  0.0660
  675SOL     OW 6835   3.528  11.142   6.462  0.2215 -0.4991  0.0311
  675SOL    HW1 6836   3.529  11.179   6.374  3.9185 -1.9591 -0.7429
  675SOL    HW2 6837   3.481  11.060   6.453  0.0721 -0.3624 -0.4607
  676SOL     OW 6838   5.377   8.242   1.815  0.1848  0.0754  0.2587
  676SOL    HW1 6839   5.444   8.176   1.834  0.0184 -0.2437 -0.2240
  676SOL    HW2 6840   5.298   8.208   1.857 -0.2130 -0.6909 -1.0445
  677SOL     OW 6841   7.445   2.372   2.063 -0.2521  0.0505  0.0602
  677SOL    HW1 6842   7.513   2.310   2.090  0.0042  0.6282  0.7920
  677SOL    HW2 6843   7.465   2.392   1.971  0.0801 -0.4073  0.0308
  678SOL     OW 6844   9.365   6.847   6.158 -0.8088  0.1913 -0.1535
  678SOL    HW1 6845   9.317   6.873   6.236  0.3265  1.3088  0.1978
  678SOL    HW2 6846   9.347   6.753   6.149 -0.4766 -0.1006  1.7978
  679SOL     OW 6847   0.647   1.259   6.611 -0.0953  0.1454  0.2804
  679SOL    HW1 6848   0.588   1.186   6.630 -1.6933  0.6784 -2.1692
  679SOL    HW2 6849   0.734   1.226   6.632 -1.0906 -1.1754  2.6348
  680SOL     OW 6850  11.907  11.027   5.777  0.1287 -0.4728  0.2656
  680SOL    HW1 6851  11.965  10.955   5.799 -1.1616 -1.2197  1.3696
  680SOL    HW2 6852  11.843  11.029   5.848  0.7658  2.4929  0.8667
  681SOL     OW 6853   4.466   4.209   9.382 -0.6006 -0.5104  0.3238
  681SOL    HW1 6854   4.438   4.170   9.299 -1.7075  0.7070  0.1016
  681SOL    HW2 6855   4.397   4.272   9.404  0.1457 -0.1261  1.6909
  682SOL     OW 6856   9.130   9.178   0.382  0.3040 -0.4476 -0.2773
  682SOL    HW1 6857   9.080   9.160   0.302  1.4518  1.2347 -1.4378
  682SOL    HW2 6858   9.072   9.151   0.453 -2.3682  1.5314 -1.5459
  683SOL     OW 6859   6.328   5.461   7.628  0.1407 -0.0727 -0.1010
  683SOL    HW1 6860   6.348   5.377   7.669 -0.5003 -0.2206 -0.0843
  683SOL    HW2 6861   6.240   5.482   7.657  0.0615  0.3079 -0.5943
  684SOL     OW 6862   6.783   2.831  10.061  0.1061 -0.6079 -0.1874
  684SOL    HW1 6863   6.751   2.920  10.077  1.3331 -0.1501 -0.1609
  684SOL    HW2 6864   6.855   2.842   9.999 -0.5727 -1.7304 -1.2292
  685SOL     OW 6865   9.325   3.633  11.425 -0.0141  0.1551  0.0800
  685SOL    HW1 6866   9.231   3.616  11.437 -0.3446  1.2735 -0.7299
  685SOL    HW2 6867   9.339   3.619  11.331  0.9381 -1.3216  0.4051
  686SOL     OW 6868  10.816  11.631   3.144 -0.3085 -0.4293 -0.0233
  686SOL    HW1 6869  10.752  11.618   3.214 -0.9189 -0.2634 -0.5382
  686SOL    HW2 6870  10.764  11.627   3.064  0.2126  0.4243 -0.4127
  687SOL     OW 6871  10.725   9.022  10.193 -0.0109  0.1444 -0.5766
  687SOL    HW1 6872  10.747   9.080  10.120 -1.5013  1.4559 -0.0482
  687SOL    HW2 6873  10.682   9.079  10.256  1.0377 -0.9960  1.2617
  688SOL     OW 6874   4.458   3.713   8.606 -0.1156  0.2027  0.2346
  688SOL    HW1 6875   4.445   3.637   8.662  0.3842 -0.1832 -0.1577
  688SOL    HW2 6876   4.468   3.677   8.518 -1.2502  0.8216 -0.1686
  689SOL     OW 6877   6.304   7.009   1.221  0.1292  0.0593 -0.2468
  689SOL    HW1 6878   6.385   7.054   1.244  1.0027 -1.7197  0.3906
  689SOL    HW2 6879   6.322   6.917   1.239 -1.4045 -0.6314 -1.9294
  690SOL     OW 6880   1.747  10.780   8.696  0.2497  0.0490  0.6369
  690SOL    HW1 6881   1.674  10.724   8.723  0.3646 -1.1630 -1.3466
  690SOL    HW2 6882   1.737  10.787   8.601  1.8518  1.1496  0.5185
  691SOL     OW 6883   6.560  10.301   7.890  0.3317  0.5743 -0.1421
  691SOL    HW1 6884   6.505  10.233   7.931 -0.1071  1.4405  0.7360
  691SOL    HW2 6885   6.502  10.376   7.879  0.8208  0.8327 -1.0869
  692SOL     OW 6886   6.008   4.038  12.316  0.1551  0.3272  0.7328
  692SOL    HW1 6887   6.008   4.045  12.221 -1.3951  0.3585  0.6996
  692SOL    HW2 6888   6.013   4.128  12.347  2.2183  0.2515  0.7412
  693SOL     OW 6889   4.281  10.587   3.926  0.1539  0.0886 -0.1286
  693SOL    HW1 6890   4.193  10.570   3.959  0.5253 -1.3343  0.2084
  693SOL    HW2 6891   4.306  10.506   3.881  1.8846 -0.1856  1.1888
  694SOL     OW 6892   2.400  11.539  12.221 -0.2615  0.5640 -0.1750
  694SOL    HW1 6893   2.395  11.450  12.255  0.9545  0.0241 -1.3410
  694SOL    HW2 6894   2.420  11.529  12.128  0.2786  2.0616 -0.2522
  695SOL     OW 6895   8.401   2.791   3.766  0.4815 -0.2086  0.1226
  695SOL    HW1 6896   8.486   2.767   3.804 -0.3277 -0.8885  1.5855
  695SOL    HW2 6897   8.341   2.724   3.798 -0.9447  1.2040  0.4992
  696SOL     OW 6898   5.348  10.718   8.223 -0.0726 -0.4914 -0.1980
  696SOL    HW1 6899   5.302  10.672   8.153 -0.1069  0.2335 -0.6540
  696SOL    HW2 6900   5.438  10.727   8.192 -0.1232 -0.0376 -0.2163
  697SOL     OW 6901   8.164   7.100   5.003 -0.4456  0.2860  0.2756
  697SOL    HW1 6902   8.101   7.054   4.948 -0.1856  0.8135 -0.4729
  697SOL    HW2 6903   8.247   7.094   4.956 -0.6539  2.6191 -0.5127
  698SOL     OW 6904  10.432   4.462   9.335 -0.2574 -0.6208 -0.3106
  698SOL    HW1 6905  10.450   4.422   9.250  2.9109 -0.2393  0.0801
  698SOL    HW2 6906  10.463   4.397   9.399  0.5694  0.4784  0.4343
  699SOL     OW 6907   8.162   3.866   7.171 -0.6482  0.4585  0.2937
  699SOL    HW1 6908   8.067   3.860   7.178 -0.7424  1.6043  0.2185
  699SOL    HW2 6909   8.187   3.931   7.237  0.0951  0.0809  0.3951
  700SOL     OW 6910  10.427   7.989   7.296 -0.4179 -0.0769  0.3898
  700SOL    HW1 6911  10.481   7.972   7.219 -0.3072  0.8563  0.2558
  700SOL    HW2 6912  10.480   8.044   7.353 -1.6282  1.9094 -0.2993
  701SOL     OW 6913   7.396   1.814   7.491  0.7423  0.2568 -0.3223
  701SOL    HW1 6914   7.488   1.841   7.491  1.0523 -0.5911  1.5762
  701SOL    HW2 6915   7.358   1.857   7.568 -0.4202  0.4762 -1.0001
  702SOL     OW 6916  10.592   2.978   4.702 -0.2003 -0.2759 -0.0772
  702SOL    HW1 6917  10.621   2.897   4.659  1.1079  1.4173 -2.6319
  702SOL    HW2 6918  10.598   2.958   4.796  0.8404 -2.8874 -0.6013
  703SOL     OW 6919   4.334  11.768   4.001  0.3630 -0.1522 -0.1058
  703SOL    HW1 6920   4.293  11.730   4.078 -0.3104  0.1956 -0.2872
  703SOL    HW2 6921   4.331  11.698   3.935  1.3549 -0.6084  0.3095
  704SOL     OW 6922   3.285   5.059   5.295 -0.2806 -0.1310 -0.0883
  704SOL    HW1 6923   3.214   5.114   5.264 -0.8033 -0.3399  0.7043
  704SOL    HW2 6924   3.250   5.016   5.373  0.0240 -1.7557 -0.7893
  705SOL     OW 6925   1.714   7.068  10.115 -0.0479  0.0952 -0.4819
  705SOL    HW1 6926   1.705   7.134  10.045  1.9141 -1.6172 -2.5305
  705SOL    HW2 6927   1.773   7.109  10.178  0.8427  0.4890 -1.5292
  706SOL     OW 6928   1.589   1.658   3.965 -0.0614  0.1554  0.4528
  706SOL    HW1 6929   1.684   1.643   3.959 -0.0479 -0.0931  1.2537
  706SOL    HW2 6930   1.576   1.699   4.050 -0.5172  1.5678 -0.2697
  707SOL     OW 6931   8.236   3.005  10.224 -0.1066 -0.4843  0.5364
  707SOL    HW1 6932   8.161   2.982  10.279  0.3587 -0.2488  1.2949
  707SOL    HW2 6933   8.311   2.998  10.283  0.7631 -2.8028 -0.7240
  708SOL     OW 6934  10.744  11.112  12.015  0.1996 -0.1733 -0.3355
  708SOL    HW1 6935  10.814  11.177  12.014  0.2369  0.0636  3.3239
  708SOL    HW2 6936  10.785  11.033  12.049 -0.4994 -1.2977 -1.9647
  709SOL     OW 6937   8.415   8.826   6.010  0.4451  0.6761 -0.2439
  709SOL    HW1 6938   8.464   8.803   6.089  3.2194 -0.6672 -2.2191
  709SOL    HW2 6939   8.360   8.900   6.037  1.0264  0.0708  2.9782
  710SOL     OW 6940   4.583   2.436   3.966  0.0927  0.0861 -0.2594
  710SOL    HW1 6941   4.614   2.386   4.042  0.2702 -0.8988 -0.9509
  710SOL    HW2 6942   4.617   2.524   3.980  0.0932 -0.0651  0.8181
  711SOL     OW 6943  11.826   6.082  12.142 -0.4336  0.0318 -0.4867
  711SOL    HW1 6944  11.858   6.131  12.065 -0.4695  2.2593  0.8166
  711SOL    HW2 6945  11.814   6.149  12.209  1.9185 -2.0951  2.3062
  712SOL     OW 6946   0.265   7.374   2.507 -0.2431 -0.7573  0.5556
  712SOL    HW1 6947   0.291   7.429   2.580 -0.3931 -1.7745  1.3911
  712SOL    HW2 6948   0.223   7.435   2.445  0.7646  0.2715  0.8442
  713SOL     OW 6949   8.203  12.404   2.998 -0.3132 -0.0293 -0.2404
  713SOL    HW1 6950   8.293  12.376   2.979 -0.4212 -0.7654  0.3074
  713SOL    HW2 6951   8.150  12.360   2.932 -0.3850 -0.4161  0.0739
  714SOL     OW 6952   3.685  12.298   2.438  0.0551  0.2315 -0.0408
  714SOL    HW1 6953   3.752  12.257   2.384 -1.8922 -3.3555 -0.0440
  714SOL    HW2 6954   3.621  12.332   2.375 -0.7308 -1.2714 -0.1109
  715SOL     OW 6955   5.209  10.737   8.460 -0.2871  0.1407 -0.5542
  715SOL    HW1 6956   5.189  10.672   8.527 -1.4229  1.0829  0.0646
  715SOL    HW2 6957   5.275  10.696   8.405  0.4957 -0.7584  0.9923
  716SOL     OW 6958   7.604   2.664   0.109  0.5163  0.0583 -0.0098
  716SOL    HW1 6959   7.517   2.699   0.089  0.4376  0.0155  0.2516
  716SOL    HW2 6960   7.656   2.681   0.030  0.1373 -0.3735 -0.3570
  717SOL     OW 6961   4.509   2.944   3.823 -0.5087 -0.2236  0.1693
  717SOL    HW1 6962   4.427   2.985   3.794  0.7732  1.2889 -1.5844
  717SOL    HW2 6963   4.508   2.954   3.918 -2.2635 -0.0745  0.1664
  718SOL     OW 6964   9.815   7.258   1.239  0.3066  0.0674 -0.1331
  718SOL    HW1 6965   9.855   7.180   1.278  0.0182  0.2639  0.5687
  718SOL    HW2 6966   9.723   7.233   1.226  0.4572 -0.0867 -0.9400
  719SOL     OW 6967   4.990   8.182  10.649 -0.0120 -0.0304 -0.3133
  719SOL    HW1 6968   5.043   8.110  10.615  0.7566 -0.1081  1.0107
  719SOL    HW2 6969   5.048   8.258  10.645  0.3060 -0.1514  1.3101
  720SOL     OW 6970   0.020   5.688   6.034  0.3426 -0.2359 -0.0777
  720SOL    HW1 6971   0.021   5.755   6.101  0.1523 -0.6606  0.3566
  720SOL    HW2 6972   0.095   5.632   6.054  0.3412 -0.3079 -0.2702
  721SOL     OW 6973   7.677   3.855  12.138 -0.1732 -0.2461 -0.4281
  721SOL    HW1 6974   7.709   3.807  12.215 -1.6116 -0.4769  0.0497
  721SOL    HW2 6975   7.752   3.908  12.110  0.4848 -0.4248  0.9118
  722SOL     OW 6976   0.393   3.865  10.414 -0.3489 -0.3683  0.1937
  722SOL    HW1 6977   0.471   3.828  10.373  0.0803 -0.9252  1.4552
  722SOL    HW2 6978   0.421   3.949  10.448 -0.9002  0.4371 -1.2489
  723SOL     OW 6979  10.005  11.787   4.090 -0.4700  0.2572  0.1283
  723SOL    HW1 6980   9.933  11.762   4.031 -1.8138  0.1333  1.7258
  723SOL    HW2 6981   9.962  11.834   4.161  1.2519  1.4767  0.4199
  724SOL     OW 6982   8.248   5.437  10.406  0.0264 -0.1537  0.0138
  724SOL    HW1 6983   8.175   5.435  10.344  0.7943 -1.1705 -0.8818
  724SOL    HW2 6984   8.219   5.498  10.474 -1.6269 -0.4934 -0.3462
  725SOL     OW 6985   2.736   7.713  11.876 -0.0647  0.0923 -0.5217
  725SOL    HW1 6986   2.654   7.762  11.872 -1.1735 -1.4490  1.3237
  725SOL    HW2 6987   2.795   7.769  11.926 -0.7115  0.3417 -0.0160
  726SOL     OW 6988   8.787   9.751   2.757 -0.2966  0.4344  0.0151
  726SOL    HW1 6989   8.752   9.666   2.727 -0.3187  0.0776  1.0069
  726SOL    HW2 6990   8.853   9.728   2.822 -0.4136  1.1859  0.4087
  727SOL     OW 6991   4.346  12.391   6.761  0.1282 -0.2379  0.3324
  727SOL    HW1 6992   4.313  12.378   6.850 -2.0296 -0.0439 -0.3853
  727SOL    HW2 6993   4.433  12.430   6.773 -0.6289  0.9719  2.3537
  728SOL     OW 6994   3.933   0.871   1.890 -0.2418  0.4539 -0.2166
  728SOL    HW1 6995   3.968   0.824   1.814 -1.9168  0.2634 -0.8958
  728SOL    HW2 6996   3.874   0.936   1.852 -4.2973 -2.2345  0.9452
  729SOL     OW 6997  12.093   0.754   7.251 -0.2247 -0.1462 -0.2936
  729SOL    HW1 6998  11.998   0.764   7.239 -0.0642 -0.1144 -1.6283
  729SOL    HW2 6999  12.129   0.759   7.163  0.9238 -1.2130  0.0920
  730SOL     OW 7000   2.334   3.544   8.398 -0.4226 -0.1588  0.4576
  730SOL    HW1 7001   2.329   3.491   8.318 -0.3827 -1.0871  1.0667
  730SOL    HW2 7002   2.357   3.482   8.467 -0.1595  0.6911  1.1468
  731SOL     OW 7003   5.342   2.171   1.593 -0.1050  0.7602 -0.2037
  731SOL    HW1 7004   5.271   2.155   1.654  1.3534 -1.0808  1.1312
  731SOL    HW2 7005   5.300   2.170   1.507 -1.8017  0.6073  0.5861
  732SOL     OW 7006   4.077   7.814   5.568  0.0285 -0.1484  0.3494
  732SOL    HW1 7007   3.994   7.808   5.615  0.0407  2.7353  0.9401
  732SOL    HW2 7008   4.089   7.728   5.528 -3.7459 -0.3755 -0.6266
  733SOL     OW 7009   8.631   6.573   3.429 -0.0788  0.0456 -0.2036
  733SOL    HW1 7010   8.725   6.592   3.434 -0.0366 -0.0829 -0.5056
  733SOL    HW2 7011   8.591   6.635   3.490  0.5953 -2.7433  3.4216
  734SOL     OW 7012   9.094  11.936  12.344  0.1702 -0.3367 -0.3092
  734SOL    HW1 7013   9.179  11.924  12.302  0.3179  0.5149 -0.2739
  734SOL    HW2 7014   9.031  11.903  12.280  0.3400  1.5298 -1.5117
  735SOL     OW 7015   8.641  10.495  12.491 -0.3233  0.0287  0.7399
  735SOL    HW1 7016   8.652  10.571  12.548 -1.2284 -0.7298  1.9786
  735SOL    HW2 7017   8.547  10.477  12.492 -0.1039 -1.2259  0.6521
  736SOL     OW 7018   5.392  10.910   6.026  0.3924  0.3644  0.6025
  736SOL    HW1 7019   5.403  10.960   5.946 -0.6497 -1.8829 -1.0745
  736SOL    HW2 7020   5.481  10.901   6.062  1.0057  0.6947 -0.7797
  737SOL     OW 7021   2.448   1.345  11.821 -0.3771  0.0710  0.0915
  737SOL    HW1 7022   2.367   1.391  11.846  0.6119  1.4933  0.8046
  737SOL    HW2 7023   2.418   1.260  11.788 -2.2796  1.1656 -1.1813
  738SOL     OW 7024  11.191   3.487   8.425  0.1961  0.3837 -0.0153
  738SOL    HW1 7025  11.255   3.417   8.434  2.2008  2.0406 -0.4824
  738SOL    HW2 7026  11.178   3.520   8.514  0.5764  0.5240 -0.0114
  739SOL     OW 7027   4.453   2.973   2.186  0.1041 -0.6611  0.4194
  739SOL    HW1 7028   4.403   3.049   2.155  1.3822 -0.3099 -0.8918
  739SOL    HW2 7029   4.393   2.927   2.245 -1.2324  0.5280  0.0413
  740SOL     OW 7030   5.815  11.810  12.408 -0.7609  0.3105 -0.2346
  740SOL    HW1 7031   5.813  11.891  12.358  1.3010  0.6916  0.2058
  740SOL    HW2 7032   5.904  11.775  12.394 -1.5275 -1.7865 -0.2803
  741SOL     OW 7033  10.454   6.459   2.169 -0.0203  0.1523 -0.5608
  741SOL    HW1 7034  10.501   6.542   2.160  0.3151  0.2570  1.7274
  741SOL    HW2 7035  10.517   6.393   2.138  0.7047  0.5252  0.0723
  742SOL     OW 7036   8.911  10.841   7.999  0.7168  0.3667  0.1486
  742SOL    HW1 7037   8.911  10.862   7.906 -1.1804  0.3425  0.1222
  742SOL    HW2 7038   8.820  10.847   8.026  1.1451 -0.2432  1.8811
  743SOL     OW 7039   6.374   0.245  11.126 -0.0303  0.1992 -0.0378
  743SOL    HW1 7040   6.455   0.195  11.115  0.7473  1.2429  0.7975
  743SOL    HW2 7041   6.305   0.179  11.124  0.7402 -0.6178 -1.7832
  744SOL     OW 7042   5.930   9.112  11.968  0.2202 -0.2772  0.0347
  744SOL    HW1 7043   5.847   9.140  12.009 -0.4392  0.1312 -1.5052
  744SOL    HW2 7044   5.950   9.028  12.009 -1.1745 -0.5732  0.1610
  745SOL     OW 7045   4.437  10.084   8.288 -0.0786  0.3516 -0.0441
  745SOL    HW1 7046   4.454  10.049   8.375 -2.5673  0.6057  0.6240
  745SOL    HW2 7047   4.439  10.179   8.299 -0.3940  0.3861 -0.2485
  746SOL     OW 7048   6.099   0.791  10.823 -0.5900 -0.3256 -0.0188
  746SOL    HW1 7049   6.076   0.853  10.754  0.6396 -1.1282 -1.2006
  746SOL    HW2 7050   6.180   0.751  10.793  0.6176  0.1080  2.4533
  747SOL     OW 7051   6.153  11.187  10.370  0.0303 -0.2557  0.1234
  747SOL    HW1 7052   6.077  11.242  10.349  0.2692 -0.3268 -0.9937
  747SOL    HW2 7053   6.139  11.107  10.321  0.2923 -0.7246  0.7949
  748SOL     OW 7054   4.264   2.422   4.328  0.1601  0.2129 -0.4120
  748SOL    HW1 7055   4.357   2.420   4.304  0.4762 -0.2626  0.7804
  748SOL    HW2 7056   4.228   2.341   4.293  0.4696 -0.1681  0.1447
  749SOL     OW 7057   2.886   7.142   6.315 -0.3401 -0.1073  1.2613
  749SOL    HW1 7058   2.956   7.128   6.251 -0.0577 -1.1057  1.7699
  749SOL    HW2 7059   2.822   7.196   6.269 -0.3700 -1.2024 -0.0386
  750SOL     OW 7060   3.954  10.245  10.310  0.6361  0.3706  0.4289
  750SOL    HW1 7061   4.014  10.218  10.241  0.2895 -1.2240  0.7133
  750SOL    HW2 7062   3.948  10.169  10.369 -0.2733  1.1284  1.3691
  751SOL     OW 7063   4.104   5.264   0.945  0.3560 -0.3704  0.3416
  751SOL    HW1 7064   4.061   5.231   0.866  0.1914  0.4493  0.0720
  751SOL    HW2 7065   4.105   5.190   1.006 -3.1028  0.0112  1.0631
  752SOL     OW 7066   1.971  10.217   5.267 -0.2624  0.1366 -0.0224
  752SOL    HW1 7067   1.924  10.248   5.189  0.8792 -1.1491 -1.2898
  752SOL    HW2 7068   1.928  10.135   5.290  0.0710 -0.0231  0.0471
  753SOL     OW 7069   5.309   2.855   1.674  0.1790  0.5047 -0.0478
  753SOL    HW1 7070   5.251   2.868   1.599 -0.8026  1.2032  0.7930
  753SOL    HW2 7071   5.340   2.765   1.666  0.7368  0.8209 -1.7192
  754SOL     OW 7072   4.433   2.227  12.090 -0.3299  0.2316 -0.1888
  754SOL    HW1 7073   4.464   2.137  12.080  2.5239  1.0168  0.6013
  754SOL    HW2 7074   4.457   2.250  12.180 -0.2535  2.0370 -0.6481
  755SOL     OW 7075   0.050   9.756   3.356 -0.4757 -0.0406 -0.3628
  755SOL    HW1 7076   0.120   9.808   3.318  0.2895 -1.4904 -1.0044
  755SOL    HW2 7077  -0.021   9.760   3.291 -0.1946 -0.2988 -0.6842
  756SOL     OW 7078   5.046   8.875   5.322  0.6388 -0.6985 -1.0314
  756SOL    HW1 7079   4.954   8.875   5.298  0.6720 -0.7543 -1.1576
  756SOL    HW2 7080   5.047   8.898   5.415  0.6538  1.7207 -1.5790
  757SOL     OW 7081  11.469   7.628  10.737  0.5764 -0.0180 -0.8266
  757SOL    HW1 7082  11.412   7.703  10.721 -0.2378 -0.4212  0.1063
  757SOL    HW2 7083  11.411   7.551  10.730  0.9113 -0.4122  0.4668
  758SOL     OW 7084   6.200   9.441   9.155 -0.7838 -0.0879  0.2382
  758SOL    HW1 7085   6.207   9.532   9.183 -1.7014 -0.3976  1.5662
  758SOL    HW2 7086   6.119   9.409   9.196 -0.5153 -1.4821 -0.2526
  759SOL     OW 7087  11.510  11.472   1.288  0.6236  0.0972  0.6261
  759SOL    HW1 7088  11.548  11.515   1.365 -2.1231  0.7193  1.7753
  759SOL    HW2 7089  11.441  11.532   1.259 -0.1636 -1.3706 -0.6855
  760SOL     OW 7090   8.211   2.351   4.174 -0.5190 -0.2917 -0.1530
  760SOL    HW1 7091   8.223   2.270   4.125 -0.7272  0.3118 -1.2277
  760SOL    HW2 7092   8.152   2.404   4.120  0.2097  0.8809  0.1577
  761SOL     OW 7093   1.346   8.348   8.717 -0.0538  0.1968 -0.1534
  761SOL    HW1 7094   1.421   8.337   8.658 -1.2175 -1.0810 -1.4886
  761SOL    HW2 7095   1.270   8.350   8.659 -1.1329  0.5480  1.2224
  762SOL     OW 7096   0.735   0.951   8.860 -0.5122  0.2374  0.5550
  762SOL    HW1 7097   0.662   0.893   8.881  0.0780 -0.4662  0.6952
  762SOL    HW2 7098   0.723   0.973   8.768 -0.6897 -0.1773  0.4770
  763SOL     OW 7099   2.566   7.220  11.192 -0.4917  0.1417 -0.1451
  763SOL    HW1 7100   2.490   7.188  11.143  0.6880  0.6209 -2.4236
  763SOL    HW2 7101   2.635   7.157  11.174  0.7244  1.7429 -1.4050
  764SOL     OW 7102   7.312   4.498   3.587 -0.5174 -0.0489 -0.0168
  764SOL    HW1 7103   7.221   4.489   3.615 -0.6721  0.5237 -0.3202
  764SOL    HW2 7104   7.311   4.574   3.528  0.5591  1.4521  1.8027
  765SOL     OW 7105   0.471   8.886   1.302 -0.1330 -0.3967 -0.8259
  765SOL    HW1 7106   0.411   8.889   1.376  0.7143  0.2435 -0.1446
  765SOL    HW2 7107   0.449   8.963   1.250  0.4014  0.1085 -0.3192
  766SOL     OW 7108   1.438   4.346   8.972  0.0238  0.6672  0.2884
  766SOL    HW1 7109   1.493   4.409   8.925  0.4185  0.2759  0.2145
  766SOL    HW2 7110   1.356   4.392   8.987 -1.3028 -0.1030 -3.4552
  767SOL     OW 7111   2.449   8.122   0.053 -0.5652 -0.4117 -0.0957
  767SOL    HW1 7112   2.532   8.144   0.009 -1.9065  0.5124 -2.3065
  767SOL    HW2 7113   2.468   8.041   0.100  0.8602 -1.9101 -2.9543
  768SOL     OW 7114   1.413   0.023   7.920  0.2217 -0.5950  0.4285
  768SOL    HW1 7115   1.399   0.090   7.853 -2.1301 -0.8004  0.6395
  768SOL    HW2 7116   1.465   0.067   7.987 -0.0536  0.5627 -0.0924
  769SOL     OW 7117   8.293   6.401   1.018 -0.0003 -0.0494  0.5997
  769SOL    HW1 7118   8.253   6.314   1.030 -1.1933 -0.5916 -4.7239
  769SOL    HW2 7119   8.222   6.462   1.039 -1.3204 -0.7354 -1.5292
  770SOL     OW 7120   3.529   6.394   5.412 -0.4292 -0.2032  0.2547
  770SOL    HW1 7121   3.491   6.476   5.381  0.9760  0.6067  0.6013
  770SOL    HW2 7122   3.469   6.364   5.479 -2.7878 -1.2647 -2.1565
  771SOL     OW 7123   8.887   9.206   3.271  0.3452  0.1998  0.5805
  771SOL    HW1 7124   8.927   9.215   3.357  0.6117 -1.3861  0.6549
  771SOL    HW2 7125   8.809   9.261   3.275  1.1323  1.3044  1.3100
  772SOL     OW 7126   0.727   3.012   9.195  0.1938 -0.0544 -0.1625
  772SOL    HW1 7127   0.730   3.041   9.286 -0.8122 -0.5377  0.0434
  772SOL    HW2 7128   0.644   3.046   9.162 -0.6972 -1.9998 -0.1187
  773SOL     OW 7129   1.006   1.365   2.678  0.2276 -0.7226  0.3842
  773SOL    HW1 7130   0.945   1.323   2.618  1.6333 -0.3131 -1.4294
  773SOL    HW2 7131   0.954   1.431   2.724 -0.8041 -0.7492 -0.7086
  774SOL     OW 7132  11.350  10.130  11.002 -0.2092  0.0056  0.4078
  774SOL    HW1 7133  11.376  10.060  11.062 -0.5271 -1.5720 -1.2051
  774SOL    HW2 7134  11.419  10.196  11.011  0.1179 -0.4946  1.9569
  775SOL     OW 7135   4.573   8.799   0.663  0.2866  0.1186 -0.2152
  775SOL    HW1 7136   4.483   8.780   0.692 -0.6570  1.8077 -1.8104
  775SOL    HW2 7137   4.614   8.712   0.653 -1.1833 -0.6929  0.4915
  776SOL     OW 7138   7.095   8.152  10.214 -0.0666  0.4623  0.0913
  776SOL    HW1 7139   7.031   8.093  10.174  1.4625 -0.2406 -1.4748
  776SOL    HW2 7140   7.078   8.146  10.308 -0.5503 -1.7902 -0.0801
  777SOL     OW 7141  11.796   1.428   6.988 -0.3204 -0.0777 -0.1022
  777SOL    HW1 7142  11.713   1.379   6.989  0.0148 -0.6518  0.8170
  777SOL    HW2 7143  11.799   1.472   7.073  0.2731  0.0136 -0.1692
  778SOL     OW 7144   0.805   2.338  11.521 -0.0190  0.4832  0.1343
  778SOL    HW1 7145   0.847   2.364  11.439 -0.7385 -0.8347 -0.6922
  778SOL    HW2 7146   0.852   2.387  11.588  0.2517  1.9956 -1.0999
  779SOL     OW 7147   6.907   0.828   7.382  0.3810  0.0870  0.3101
  779SOL    HW1 7148   6.913   0.844   7.288 -0.1101  1.2033  0.4593
  779SOL    HW2 7149   6.813   0.826   7.401  0.4751  0.1682  0.8231
  780SOL     OW 7150  10.242  11.578   9.770  0.2436  0.3583 -0.8463
  780SOL    HW1 7151  10.160  11.533   9.791  0.8668 -0.3916  0.1185
  780SOL    HW2 7152  10.277  11.531   9.695  0.9521 -0.9044  0.2329
  781SOL     OW 7153   1.398   5.494   3.252 -0.0879  0.0882 -0.3906
  781SOL    HW1 7154   1.483   5.452   3.265 -0.6588 -0.9140  0.1973
  781SOL    HW2 7155   1.337   5.442   3.305 -1.7953 -1.6446 -3.7333
  782SOL     OW 7156   9.391   9.707   4.885 -0.4822  0.3096 -0.7154
  782SOL    HW1 7157   9.406   9.730   4.793  0.8077  0.4125 -0.4987
  782SOL    HW2 7158   9.331   9.774   4.917 -0.7503  0.4141 -1.4207
  783SOL     OW 7159  10.801   8.383   2.554  0.3611  0.3167  0.7965
  783SOL    HW1 7160  10.777   8.291   2.549  0.8855  0.2237 -0.3877
  783SOL    HW2 7161  10.892   8.386   2.525  0.6593  1.0933  1.7431
  784SOL     OW 7162   0.416   5.173   4.621  0.4290 -0.5917  0.0298
  784SOL    HW1 7163   0.442   5.258   4.657  0.0022 -0.0289 -0.9388
  784SOL    HW2 7164   0.321   5.171   4.633  0.4822 -1.0747  0.3526
  785SOL     OW 7165   4.921   4.721   5.602  0.6946 -0.1349  0.2277
  785SOL    HW1 7166   4.858   4.721   5.530  1.2874  0.7682 -0.3165
  785SOL    HW2 7167   4.900   4.643   5.653 -1.6785  0.8032  0.8145
  786SOL     OW 7168   0.551   4.677  12.464  0.2598  0.2613  0.0312
  786SOL    HW1 7169   0.473   4.718  12.428  0.6636 -1.1578 -2.7670
  786SOL    HW2 7170   0.618   4.689  12.396  1.8076 -0.5607  1.3391
  787SOL     OW 7171  11.980  11.927  11.316 -0.1851  0.6782  0.1712
  787SOL    HW1 7172  11.905  11.979  11.344 -0.2056  0.1106  1.2112
  787SOL    HW2 7173  11.954  11.837  11.330  0.5112  0.4541  0.0730
  788SOL     OW 7174   8.181  11.632   3.713 -0.1772 -0.5111 -0.5200
  788SOL    HW1 7175   8.100  11.677   3.738  0.9334  0.5973  1.3646
  788SOL    HW2 7176   8.251  11.692   3.740  1.3195 -2.3930  0.0038
  789SOL     OW 7177  10.529   1.192  12.479 -0.3467  0.3544  0.2089
  789SOL    HW1 7178  10.460   1.195  12.412 -1.1767  0.2753  1.0345
  789SOL    HW2 7179  10.501   1.123  12.539  2.2286 -2.2264 -1.2651
  790SOL     OW 7180  12.060   8.282   6.756 -0.5001 -0.0464 -0.4073
  790SOL    HW1 7181  12.003   8.207   6.774 -0.7361  0.2395  0.0451
  790SOL    HW2 7182  12.014   8.357   6.795  0.6204  0.0561  0.7795
  791SOL     OW 7183   6.665   2.792   5.567  0.0742  0.1559  0.2622
  791SOL    HW1 7184   6.625   2.878   5.552 -0.8387 -0.3425 -0.2548
  791SOL    HW2 7185   6.636   2.739   5.493 -2.2530 -1.5985  2.2791
  792SOL     OW 7186   3.943   0.999   4.279 -0.3595  0.0915  0.0065
  792SOL    HW1 7187   3.920   0.934   4.346  1.8561 -1.6417 -0.7648
  792SOL    HW2 7188   4.029   1.031   4.306  0.8791 -1.1180 -2.2436
  793SOL     OW 7189   0.933  12.242   6.462  0.0595 -0.2583  0.2252
  793SOL    HW1 7190   0.982  12.198   6.393  1.4247  1.2288  0.1668
  793SOL    HW2 7191   0.907  12.172   6.522  0.9924 -1.2706 -0.5107
  794SOL     OW 7192   2.313   0.395   4.610  0.3173  0.7143  0.1190
  794SOL    HW1 7193   2.360   0.319   4.577  1.9883  1.5869  0.3953
  794SOL    HW2 7194   2.381   0.453   4.644 -1.0565  1.4385  1.8006
  795SOL     OW 7195   7.557   2.586  12.353 -0.2409 -0.4883 -0.3492
  795SOL    HW1 7196   7.623   2.579  12.285  0.0823 -1.2250  0.0316
  795SOL    HW2 7197   7.598   2.639  12.421 -1.3832  2.2959 -1.6663
  796SOL     OW 7198   2.392   2.590   9.638 -0.2762 -0.2988 -0.5761
  796SOL    HW1 7199   2.396   2.646   9.716  0.6712 -0.0130 -0.8247
  796SOL    HW2 7200   2.305   2.606   9.602 -0.9008 -0.7596  0.6552
  797SOL     OW 7201   0.443   5.686   9.987  0.5172 -0.0046 -0.7182
  797SOL    HW1 7202   0.371   5.627  10.012  0.9027  0.1875  0.9848
  797SOL    HW2 7203   0.522   5.636  10.006  0.9000  1.5243  2.3110
  798SOL     OW 7204  10.713  10.313   0.361 -0.1492  0.5632  0.1966
  798SOL    HW1 7205  10.793  10.288   0.316 -1.2890 -1.4955 -0.8017
  798SOL    HW2 7206  10.659  10.352   0.293 -1.2881 -1.1760  0.0469
  799SOL     OW 7207  12.101   4.974   2.778  0.0867 -0.0068 -0.3575
  799SOL    HW1 7208  12.175   4.913   2.785 -3.2692 -4.4922  0.8355
  799SOL    HW2 7209  12.088   4.985   2.684  1.8518  0.3541 -0.5842
  800SOL     OW 7210   8.904   6.193  11.247  0.5004 -1.0873 -0.0924
  800SOL    HW1 7211   8.969   6.161  11.309  0.5359 -1.7121 -0.4479
  800SOL    HW2 7212   8.824   6.204  11.299  0.7003 -0.9889  0.1956
  801SOL     OW 7213   2.572   2.684   9.995  0.1256  0.2549  0.7670
  801SOL    HW1 7214   2.600   2.721  10.079 -1.1057 -0.0674  1.3449
  801SOL    HW2 7215   2.532   2.757   9.949 -0.7626  0.0530  1.1972
  802SOL     OW 7216   9.168   6.658  10.478  0.0542 -0.4866  0.0530
  802SOL    HW1 7217   9.084   6.669  10.434 -0.0492 -1.1138  0.0789
  802SOL    HW2 7218   9.204   6.577  10.442  0.8571  0.0086 -0.2838
  803SOL     OW 7219  10.725   0.385  10.106  0.2759  0.1663  0.1917
  803SOL    HW1 7220  10.811   0.425  10.116  0.5078 -0.6659  1.6937
  803SOL    HW2 7221  10.664   0.457  10.120  0.6953  0.6865 -0.5395
  804SOL     OW 7222  11.268   0.677   8.590 -0.0010 -0.0251  0.1557
  804SOL    HW1 7223  11.254   0.641   8.502 -1.6949 -0.5426  0.5894
  804SOL    HW2 7224  11.334   0.745   8.578  0.4474 -0.6843 -1.3602
  805SOL     OW 7225   4.870   7.590  12.206 -0.1676  0.1341  0.2700
  805SOL    HW1 7226   4.927   7.514  12.216 -0.6671 -0.4087 -0.8680
  805SOL    HW2 7227   4.786   7.554  12.178 -0.4979  1.0879 -0.0102
  806SOL     OW 7228   4.862   5.677   9.758  0.2703  0.3246 -0.2946
  806SOL    HW1 7229   4.873   5.582   9.765 -0.2750  0.1155 -1.8894
  806SOL    HW2 7230   4.893   5.698   9.670 -0.1865  1.5380 -0.1772
  807SOL     OW 7231  10.210   3.091   2.500  0.0562 -0.2261  0.2543
  807SOL    HW1 7232  10.236   3.024   2.436  0.9291 -0.6239  1.0014
  807SOL    HW2 7233  10.276   3.085   2.569  1.0562  2.4599 -0.3612
  808SOL     OW 7234  10.186   1.841   9.982  0.5110  0.4758  0.2410
  808SOL    HW1 7235  10.176   1.747   9.965 -1.0809 -0.0243  3.2589
  808SOL    HW2 7236  10.127   1.883   9.919 -0.9224 -0.7904  0.6807
  809SOL     OW 7237   1.516   0.099  11.843 -0.3526 -0.5914 -0.5520
  809SOL    HW1 7238   1.474   0.087  11.928 -2.5867  2.7086 -1.0433
  809SOL    HW2 7239   1.466   0.043  11.784 -1.3768  0.1009 -0.3657
  810SOL     OW 7240   3.483   5.076   6.596  0.0340  0.0943  0.5895
  810SOL    HW1 7241   3.522   5.147   6.545  0.9202 -0.7958 -0.0072
  810SOL    HW2 7242   3.391   5.076   6.569  0.0160  0.9949  0.5993
  811SOL     OW 7243  12.597   5.657   1.599  0.2354 -0.3041 -1.2088
  811SOL    HW1 7244  12.673   5.677   1.545  1.1837  0.0563  0.2227
  811SOL    HW2 7245  12.614   5.570   1.635  0.8572  0.4842  0.5234
  812SOL     OW 7246   1.651  12.578   5.429  0.9432 -0.3532  0.0012
  812SOL    HW1 7247   1.669  12.583   5.335  0.3029 -0.1335 -0.1154
  812SOL    HW2 7248   1.623  12.488   5.443  1.4564 -0.5058  0.0614
  813SOL     OW 7249   3.354   0.028   4.633 -0.2003 -0.6442  0.1929
  813SOL    HW1 7250   3.390   0.114   4.655  0.1375 -1.1359  1.6453
  813SOL    HW2 7251   3.269   0.047   4.593  0.8912  0.4614 -1.7678
  814SOL     OW 7252   2.183   6.077  10.584 -0.2259 -0.1807 -0.0994
  814SOL    HW1 7253   2.170   6.159  10.538 -1.2399  0.2123  0.8188
  814SOL    HW2 7254   2.121   6.081  10.658  0.8976 -1.0312  0.9347
  815SOL     OW 7255   5.565  11.324  11.366 -0.1621  0.8403 -0.4724
  815SOL    HW1 7256   5.476  11.293  11.382  0.8281 -1.6819  0.7308
  815SOL    HW2 7257   5.605  11.256  11.313  1.4600  1.2083  0.2226
  816SOL     OW 7258   0.770   6.977   6.750  0.4833  0.4293 -0.4405
  816SOL    HW1 7259   0.859   6.971   6.714  1.4137  0.9676  1.6131
  816SOL    HW2 7260   0.713   6.952   6.678  2.3003  0.1605 -1.8495
  817SOL     OW 7261  12.115   8.584   7.363 -0.1665  0.3034 -0.3298
  817SOL    HW1 7262  12.046   8.630   7.410 -1.5001 -1.3267 -0.6111
  817SOL    HW2 7263  12.164   8.537   7.431 -1.1151 -0.7813 -0.3566
  818SOL     OW 7264  10.030   0.315   4.125  1.0886  0.1359 -0.2360
  818SOL    HW1 7265  10.020   0.265   4.206  1.5788 -0.3011 -0.4314
  818SOL    HW2 7266  10.073   0.396   4.152 -0.8579  1.0568  0.2722
  819SOL     OW 7267   8.498  11.198  12.549 -0.4750 -0.2342 -0.5617
  819SOL    HW1 7268   8.457  11.222  12.465 -2.9847  1.0096  0.8882
  819SOL    HW2 7269   8.447  11.246  12.614 -0.3336 -3.1556  1.9173
  820SOL     OW 7270   0.802   1.561   2.814  0.2103 -0.2495  0.4286
  820SOL    HW1 7271   0.719   1.577   2.768  0.0244 -1.2496  0.3900
  820SOL    HW2 7272   0.777   1.516   2.895  0.5509  1.3779  1.4764
  821SOL     OW 7273   7.201   8.948   7.881 -0.4280  0.1496 -0.3481
  821SOL    HW1 7274   7.286   8.916   7.852 -0.7056 -2.5542  1.4300
  821SOL    HW2 7275   7.221   9.024   7.936  0.4949  1.6614 -2.6461
  822SOL     OW 7276   0.971  10.252   7.117 -0.4029  0.0893  0.5711
  822SOL    HW1 7277   0.979  10.330   7.172 -1.2827 -0.8403  2.1052
  822SOL    HW2 7278   1.046  10.198   7.141 -0.3083  0.0646  0.2132
  823SOL     OW 7279   8.304  11.245   8.796  0.1257 -0.4302 -0.2713
  823SOL    HW1 7280   8.390  11.266   8.760 -0.4137  2.3475 -0.1122
  823SOL    HW2 7281   8.321  11.231   8.890  0.5811 -1.4878 -0.4859
  824SOL     OW 7282   5.730  11.976   4.192 -0.2722 -0.1293  0.8239
  824SOL    HW1 7283   5.783  12.011   4.265 -1.1771 -3.5133  3.3488
  824SOL    HW2 7284   5.787  11.983   4.116  1.8158  1.0812  2.3893
  825SOL     OW 7285  10.940  10.098   6.489  0.4328 -0.8025  0.4847
  825SOL    HW1 7286  10.889  10.104   6.409  0.6351  1.5692  0.4693
  825SOL    HW2 7287  11.029  10.079   6.459  0.1592 -1.8632  0.3090
  826SOL     OW 7288   0.279  11.503  11.722  0.3904  0.0737  0.4117
  826SOL    HW1 7289   0.212  11.565  11.694 -1.6037 -0.7118  2.9811
  826SOL    HW2 7290   0.359  11.555  11.730 -0.8686  2.0197  1.0897
  827SOL     OW 7291   3.717   3.007  12.320  0.1884 -0.2434 -0.3049
  827SOL    HW1 7292   3.632   3.049  12.331  0.5721  0.4495  0.1159
  827SOL    HW2 7293   3.775   3.054  12.380  0.5641 -1.6322  0.4695
  828SOL     OW 7294   9.804   1.643   9.763 -0.5878  0.1672 -0.0833
  828SOL    HW1 7295   9.729   1.629   9.821 -0.5126 -2.4126 -0.4978
  828SOL    HW2 7296   9.861   1.568   9.778 -0.2411 -0.2828 -2.9981
  829SOL     OW 7297  10.468   2.938   6.629 -0.0445  0.3608 -0.5749
  829SOL    HW1 7298  10.447   3.003   6.563  0.4334  0.6598 -0.4347
  829SOL    HW2 7299  10.513   2.987   6.698 -0.4485  0.0394 -0.0690
  830SOL     OW 7300   7.911   0.726  12.535 -0.0425  0.2711  0.1923
  830SOL    HW1 7301   7.913   0.686  12.622  2.1033 -0.2097 -0.0134
  830SOL    HW2 7302   7.924   0.652  12.475  1.3017  0.9243 -0.3508
  831SOL     OW 7303   8.312   9.721  11.442 -0.3120  0.2266  0.2205
  831SOL    HW1 7304   8.347   9.736  11.354 -0.2434 -0.9939  0.0170
  831SOL    HW2 7305   8.371   9.769  11.500  0.6143 -0.2903 -0.2748
  832SOL     OW 7306   7.483  11.973   9.000  0.1303  0.0618 -0.2304
  832SOL    HW1 7307   7.520  12.052   9.037  0.0417  0.6995 -1.4507
  832SOL    HW2 7308   7.411  11.950   9.059  0.7972  0.2899  0.6952
  833SOL     OW 7309   5.605  12.541   0.530  0.2047  0.4696 -0.1771
  833SOL    HW1 7310   5.640  12.611   0.476 -0.3520  1.0775  0.2310
  833SOL    HW2 7311   5.521  12.520   0.490 -0.0096  0.6209  0.1860
  834SOL     OW 7312   6.267   8.834   7.089 -0.0526  0.1254 -0.2724
  834SOL    HW1 7313   6.283   8.925   7.062  0.0219  0.5189  1.0409
  834SOL    HW2 7314   6.354   8.794   7.093  0.0860  0.5363  0.9706
  835SOL     OW 7315   0.451  11.144  10.025 -0.0859 -0.0376  0.5651
  835SOL    HW1 7316   0.368  11.190  10.039 -1.3323 -2.2441  0.9958
  835SOL    HW2 7317   0.452  11.076  10.092  0.8362 -1.6705 -1.0084
  836SOL     OW 7318   1.768   7.726   3.830  0.0796  0.3795 -0.4336
  836SOL    HW1 7319   1.684   7.698   3.792  0.7868 -1.2475 -0.8861
  836SOL    HW2 7320   1.745   7.763   3.915 -1.0377 -0.6542 -0.2633
  837SOL     OW 7321   7.021   6.113   7.997  0.2827 -0.1218 -0.5516
  837SOL    HW1 7322   6.983   6.133   7.911 -1.5360 -2.0277 -0.2673
  837SOL    HW2 7323   7.107   6.076   7.978  1.2257  2.2576 -1.3283
  838SOL     OW 7324   0.696   1.070  11.661 -0.0476 -0.0065 -0.1324
  838SOL    HW1 7325   0.638   1.142  11.635  0.2922  0.1981 -0.3442
  838SOL    HW2 7326   0.649   0.991  11.636 -0.8468  0.0994  0.9791
  839SOL     OW 7327   6.069   0.622   9.569 -0.1830 -0.4246  0.4993
  839SOL    HW1 7328   6.002   0.561   9.600  0.7549 -1.7276  0.0959
  839SOL    HW2 7329   6.115   0.573   9.500 -1.0978  1.7233 -1.7718
  840SOL     OW 7330   5.673   0.728   7.532 -0.1664 -0.0675 -0.1145
  840SOL    HW1 7331   5.644   0.817   7.516 -0.9148 -0.2061  0.4444
  840SOL    HW2 7332   5.736   0.736   7.603 -1.4918 -0.1591  1.1085
  841SOL     OW 7333  12.590  12.553  12.128 -0.2245 -0.5328 -0.1791
  841SOL    HW1 7334  12.680  12.524  12.116  0.4838  1.8303 -1.1453
  841SOL    HW2 7335  12.577  12.558  12.222  0.7756 -0.6021 -0.0353
  842SOL     OW 7336   5.055  11.243   0.395  0.2002 -0.4940 -0.0420
  842SOL    HW1 7337   5.023  11.200   0.474  1.2530  0.0485  0.7064
  842SOL    HW2 7338   5.008  11.327   0.392 -0.0410 -0.6331 -0.1402
  843SOL     OW 7339   5.077   8.999   9.039 -0.6741 -0.2472 -0.1918
  843SOL    HW1 7340   5.015   8.954   9.096  0.1600  0.2386  1.1281
  843SOL    HW2 7341   5.035   9.082   9.018  0.4651  1.1907  2.7169
  844SOL     OW 7342  11.585   5.877   4.476  0.0634 -0.2760  0.0519
  844SOL    HW1 7343  11.665   5.928   4.487  0.3708 -0.0374 -2.5483
  844SOL    HW2 7344  11.564   5.844   4.563  1.6717  1.5918  1.2020
  845SOL     OW 7345   7.558   8.288   9.342  0.0761  0.2233 -0.4188
  845SOL    HW1 7346   7.539   8.310   9.433  0.9159  0.0238 -0.1847
  845SOL    HW2 7347   7.495   8.339   9.291 -1.2070 -0.6036  0.3160
  846SOL     OW 7348  12.292  10.797   7.751  0.1286  0.3645 -0.2016
  846SOL    HW1 7349  12.256  10.760   7.670  3.3497 -0.5452 -1.3813
  846SOL    HW2 7350  12.385  10.812   7.731  0.9750  0.4952  3.2058
  847SOL     OW 7351   5.840   1.581   2.000 -0.2280 -0.6900 -0.2716
  847SOL    HW1 7352   5.872   1.500   1.960  0.4090 -0.5666 -0.0199
  847SOL    HW2 7353   5.747   1.584   1.977 -0.2644 -1.5149 -0.2474
  848SOL     OW 7354  10.918   3.682   1.044  0.3267 -0.5396  0.3564
  848SOL    HW1 7355  10.877   3.764   1.071  0.1181 -0.5107 -0.0330
  848SOL    HW2 7356  10.857   3.614   1.074 -0.0594 -0.4923 -0.2984
  849SOL     OW 7357   6.788   5.557   1.011  0.4132 -0.6462  0.0685
  849SOL    HW1 7358   6.732   5.540   0.935 -0.2529 -1.3458  0.6961
  849SOL    HW2 7359   6.807   5.470   1.047  3.7763 -0.6929 -1.3755
  850SOL     OW 7360   2.238   9.744  11.112  0.4290 -0.1780  0.2900
  850SOL    HW1 7361   2.199   9.684  11.175  0.5112 -0.4705  0.0647
  850SOL    HW2 7362   2.331   9.744  11.134  0.5697 -0.8308 -0.2781
  851SOL     OW 7363  12.254  12.155   6.769  0.4319  0.1656 -0.0730
  851SOL    HW1 7364  12.189  12.089   6.744 -0.2173  0.1437  1.5537
  851SOL    HW2 7365  12.202  12.230   6.797  1.1494  0.8889 -0.6655
  852SOL     OW 7366   6.369   9.080   6.775  0.0568  0.1827  0.2231
  852SOL    HW1 7367   6.295   9.044   6.727 -1.0443  0.1044  1.9187
  852SOL    HW2 7368   6.398   9.008   6.831  0.5683  0.6298  0.5426
  853SOL     OW 7369   2.430   3.558   2.936 -0.1888  0.2173  0.0133
  853SOL    HW1 7370   2.500   3.618   2.910 -0.9883  1.6451  1.0126
  853SOL    HW2 7371   2.369   3.612   2.986 -0.3181 -1.6798  2.0802
  854SOL     OW 7372   3.287   1.989  11.425  0.0125 -0.1391 -0.8115
  854SOL    HW1 7373   3.306   2.036  11.345 -2.2189 -0.9018 -1.8776
  854SOL    HW2 7374   3.276   1.898  11.398 -1.5879 -0.2870  0.1692
  855SOL     OW 7375  10.504   1.775   5.476  0.2787  0.1769 -0.8640
  855SOL    HW1 7376  10.537   1.686   5.474  0.0153  0.0395  0.2895
  855SOL    HW2 7377  10.571   1.827   5.432  1.5908 -0.2377  0.5630
  856SOL     OW 7378   7.646   0.497  10.531 -0.2265  0.4375  0.6060
  856SOL    HW1 7379   7.592   0.506  10.453 -1.2613 -2.3418  0.9129
  856SOL    HW2 7380   7.583   0.482  10.602  0.8256 -0.1132  1.4534
  857SOL     OW 7381   0.004   2.264   7.717  0.6142  0.5791  0.7927
  857SOL    HW1 7382   0.056   2.335   7.753  0.3634  0.3911  1.5578
  857SOL    HW2 7383   0.047   2.184   7.750 -0.7299  0.4374  2.2996
  858SOL     OW 7384   1.850   1.814  11.399  0.5473  0.0368  0.4308
  858SOL    HW1 7385   1.819   1.847  11.314  1.2369  0.7300  0.4394
  858SOL    HW2 7386   1.923   1.756  11.376 -2.2672 -3.8342  0.1709
  859SOL     OW 7387   0.776  11.491   0.205 -0.4644  0.1610 -0.0514
  859SOL    HW1 7388   0.730  11.448   0.277  1.9684  0.6736  1.9238
  859SOL    HW2 7389   0.774  11.584   0.227  0.7020  0.2821 -0.4064
  860SOL     OW 7390   3.861   0.780  12.048 -0.2169 -0.6128 -0.1734
  860SOL    HW1 7391   3.911   0.858  12.022 -0.2452 -0.6867 -0.4505
  860SOL    HW2 7392   3.802   0.812  12.117  0.7010 -0.6789  0.6631
  861SOL     OW 7393   3.409   6.652  10.883  0.9681  0.2942  0.0690
  861SOL    HW1 7394   3.425   6.620  10.794 -1.4933  0.2874 -0.4440
  861SOL    HW2 7395   3.335   6.712  10.874 -0.0260 -0.4870  2.2152
  862SOL     OW 7396   4.311  12.387   8.881  0.7829  0.4085  0.7965
  862SOL    HW1 7397   4.288  12.298   8.908  0.1698  0.3314  0.0403
  862SOL    HW2 7398   4.313  12.436   8.964 -0.3725  0.0186  1.0729
  863SOL     OW 7399   2.508   0.548   4.674  0.2778  0.2826 -0.2741
  863SOL    HW1 7400   2.539   0.638   4.671 -0.3812  0.5003 -2.2813
  863SOL    HW2 7401   2.570   0.502   4.730  1.8439  1.5430 -0.9172
  864SOL     OW 7402  11.729   4.531   1.659 -0.3291  0.8989 -0.6741
  864SOL    HW1 7403  11.674   4.560   1.587 -0.2878  0.1922 -0.9924
  864SOL    HW2 7404  11.671   4.478   1.714  0.0699  0.0016 -1.1050
  865SOL     OW 7405   6.263   4.809   5.044 -0.5971  0.0569 -0.0934
  865SOL    HW1 7406   6.201   4.866   5.090  0.5294  1.7946 -0.6157
  865SOL    HW2 7407   6.279   4.853   4.960  1.6563 -0.0518  0.2045
  866SOL     OW 7408   8.689   1.306   4.376 -0.0393 -0.2280  0.3600
  866SOL    HW1 7409   8.685   1.375   4.442 -0.2620  0.1757 -0.0734
  866SOL    HW2 7410   8.704   1.226   4.427 -0.2705  0.0656  0.9029
  867SOL     OW 7411   2.524   5.567  12.485  0.3956 -0.5065  0.5480
  867SOL    HW1 7412   2.479   5.619  12.552  1.9785  1.1172  0.4511
  867SOL    HW2 7413   2.610   5.609  12.477  0.9469 -1.8518 -1.1394
  868SOL     OW 7414   2.217   5.549   2.985 -0.2220 -0.1619 -0.2272
  868SOL    HW1 7415   2.296   5.602   2.974 -0.7769  0.5791 -0.7930
  868SOL    HW2 7416   2.227   5.508   3.071  0.6124  0.1908 -0.1471
  869SOL     OW 7417  12.134   2.334   4.779  0.1350  0.0235 -0.7928
  869SOL    HW1 7418  12.099   2.374   4.699  0.2065 -0.5612 -1.1293
  869SOL    HW2 7419  12.204   2.393   4.806  0.1320  0.2130 -1.1819
  870SOL     OW 7420  11.366   2.317   1.283  0.0478  0.2129  0.0593
  870SOL    HW1 7421  11.371   2.411   1.264  0.9336  0.1387 -0.1052
  870SOL    HW2 7422  11.302   2.310   1.354  0.6001  1.0318  0.6535
  871SOL     OW 7423   5.569   4.757   0.874  0.0806 -0.4163 -0.0562
  871SOL    HW1 7424   5.483   4.732   0.910  0.1865 -1.1434 -0.2824
  871SOL    HW2 7425   5.556   4.845   0.840 -0.2550 -0.0517  0.9825
  872SOL     OW 7426   3.510   8.906   5.845 -0.1449  0.3245  0.0090
  872SOL    HW1 7427   3.556   8.943   5.920 -0.4667 -1.5754  1.2150
  872SOL    HW2 7428   3.427   8.954   5.841 -0.1155  0.4478  0.8642
  873SOL     OW 7429  12.428   4.565   2.477  0.5515  0.4220 -0.1063
  873SOL    HW1 7430  12.420   4.608   2.563  0.2356 -0.4582  0.3159
  873SOL    HW2 7431  12.462   4.478   2.497  1.1295  0.4500 -0.9502
  874SOL     OW 7432   1.792   6.334   6.295  0.4050 -0.1744  0.1222
  874SOL    HW1 7433   1.727   6.277   6.335 -2.7052  2.8161 -0.2594
  874SOL    HW2 7434   1.816   6.395   6.365  0.0784  0.9309 -0.7041
  875SOL     OW 7435   0.516   6.050   3.449  0.2789  0.0165 -0.1362
  875SOL    HW1 7436   0.425   6.033   3.427  0.0370 -0.2516  0.9944
  875SOL    HW2 7437   0.561   6.053   3.365 -0.8164  0.4419 -0.7310
  876SOL     OW 7438   7.325   6.946   2.303 -0.3416 -0.4414  0.6804
  876SOL    HW1 7439   7.245   6.904   2.334  0.4834 -2.0295  0.7677
  876SOL    HW2 7440   7.345   6.901   2.221 -0.2242  0.8419 -0.0155
  877SOL     OW 7441   1.980   6.939   2.319 -0.1130 -0.1851  0.9035
  877SOL    HW1 7442   1.980   6.870   2.252 -0.1048 -1.2012  1.9186
  877SOL    HW2 7443   2.062   6.986   2.305 -1.6367  1.9430 -2.0600
  878SOL     OW 7444   9.434   6.553   9.636 -0.1166  0.1308 -0.7047
  878SOL    HW1 7445   9.524   6.522   9.625 -0.2603 -0.9536  0.7467
  878SOL    HW2 7446   9.398   6.556   9.548  1.3375  0.6024 -1.3121
  879SOL     OW 7447   6.811   7.017   9.647 -0.3439  0.1320 -0.0250
  879SOL    HW1 7448   6.820   7.061   9.563 -0.4008 -0.6449 -0.4428
  879SOL    HW2 7449   6.792   7.088   9.709  0.4226  0.7988 -0.5328
  880SOL     OW 7450  10.867   1.472   2.065  0.2046 -0.0813 -0.0627
  880SOL    HW1 7451  10.794   1.460   2.126 -1.0706 -0.6448 -1.6334
  880SOL    HW2 7452  10.882   1.566   2.064 -1.8901  0.3007 -1.1925
  881SOL     OW 7453   0.695   5.288   6.151  0.1461  0.5313  0.6769
  881SOL    HW1 7454   0.631   5.243   6.095  2.6567 -0.3979 -1.6898
  881SOL    HW2 7455   0.719   5.222   6.216  0.3322  0.0778  0.1633
  882SOL     OW 7456   3.414   1.138   8.994 -0.3281 -0.2519 -0.2836
  882SOL    HW1 7457   3.364   1.172   9.069 -0.1395 -0.6038  0.0095
  882SOL    HW2 7458   3.466   1.067   9.032  0.4681  0.1780 -0.5724
  883SOL     OW 7459   6.604   4.826   8.370  0.3589 -0.0957 -0.1141
  883SOL    HW1 7460   6.681   4.776   8.343 -0.6003 -0.2783 -2.8429
  883SOL    HW2 7461   6.578   4.874   8.291 -3.2293 -1.2676  0.1650
  884SOL     OW 7462  11.214  12.359  12.074  0.3675 -0.7468  0.9490
  884SOL    HW1 7463  11.241  12.273  12.043 -1.5948 -1.2004  0.3100
  884SOL    HW2 7464  11.248  12.420  12.008  1.2383 -1.0868  1.0758
  885SOL     OW 7465  10.562   2.039   9.601 -0.4865  0.3135 -0.2310
  885SOL    HW1 7466  10.480   2.078   9.572 -1.3658 -1.3681 -0.0981
  885SOL    HW2 7467  10.579   1.969   9.539 -0.7785 -1.3333  1.4595
  886SOL     OW 7468   4.570  11.414   8.700 -0.6951 -0.1245 -0.1538
  886SOL    HW1 7469   4.475  11.416   8.705 -0.6919  0.3652 -0.2206
  886SOL    HW2 7470   4.600  11.445   8.785 -0.5764 -1.3366  0.2756
  887SOL     OW 7471   6.403   7.265   5.684  0.0417 -0.8061 -0.8738
  887SOL    HW1 7472   6.443   7.221   5.609 -2.6892 -1.3697 -2.1467
  887SOL    HW2 7473   6.311   7.277   5.658 -0.4839  1.0470  1.5061
  888SOL     OW 7474   4.036   7.304  10.049  0.1553 -0.7687 -0.2134
  888SOL    HW1 7475   4.130   7.316  10.037 -0.1877  2.4361 -0.5253
  888SOL    HW2 7476   4.014   7.231   9.992  2.1293 -0.1376 -1.9077
  889SOL     OW 7477   7.678   1.095   2.908  0.5517  0.3071  0.2317
  889SOL    HW1 7478   7.661   1.172   2.962  0.2385  0.9529 -0.7680
  889SOL    HW2 7479   7.633   1.023   2.953  0.3441  0.8175  0.8507
  890SOL     OW 7480   1.060   3.840   6.555  0.1070  0.0312  0.0529
  890SOL    HW1 7481   1.113   3.905   6.509 -1.5665  1.6823  0.3449
  890SOL    HW2 7482   1.036   3.882   6.637 -0.8885 -1.0080  0.3247
  891SOL     OW 7483  10.647   8.575   4.887  0.0071  0.2284  0.1263
  891SOL    HW1 7484  10.682   8.582   4.976  0.1670 -0.6180  0.1441
  891SOL    HW2 7485  10.668   8.485   4.861 -0.7249  0.2239 -0.4745
  892SOL     OW 7486   4.470   4.082   0.984  0.0407 -0.3363  0.4724
  892SOL    HW1 7487   4.471   3.990   0.961  0.1246 -0.3289  0.4439
  892SOL    HW2 7488   4.492   4.128   0.903  0.1023 -0.2972  0.5107
  893SOL     OW 7489   7.895   5.668  10.574  0.5127  0.0462  0.9838
  893SOL    HW1 7490   7.898   5.579  10.540 -1.8405  0.2776 -0.0366
  893SOL    HW2 7491   7.928   5.722  10.503  0.4173  0.1032  0.9816
  894SOL     OW 7492   4.007   4.288  11.154  0.2033 -0.2271  0.5682
  894SOL    HW1 7493   3.922   4.327  11.137 -0.1151 -1.9123 -2.1684
  894SOL    HW2 7494   4.051   4.286  11.069  2.8187  0.1409  1.8040
  895SOL     OW 7495   5.393  12.595   5.455  0.0784  0.1396 -0.2630
  895SOL    HW1 7496   5.410  12.528   5.388  1.9177  2.7668 -2.6559
  895SOL    HW2 7497   5.304  12.625   5.436 -0.7483 -1.4810  0.8056
  896SOL     OW 7498   8.248   3.327   5.375  0.1663  0.6223  0.4404
  896SOL    HW1 7499   8.153   3.321   5.362  0.2158 -0.9817  0.6533
  896SOL    HW2 7500   8.274   3.241   5.406  1.5175  1.4293  1.7073
  897SOL     OW 7501   5.375  12.264   9.272 -0.0019 -0.0731 -0.2330
  897SOL    HW1 7502   5.322  12.307   9.205  0.9588  0.5647 -0.6156
  897SOL    HW2 7503   5.466  12.278   9.243  0.4538  0.5612  1.3886
  898SOL     OW 7504   2.875   0.552   1.706 -0.2872  0.0524 -0.1586
  898SOL    HW1 7505   2.840   0.463   1.704  0.4710 -0.2436 -0.8250
  898SOL    HW2 7506   2.845   0.591   1.623 -2.2038  1.0722  0.9424
  899SOL     OW 7507   5.217  11.687   2.620 -0.4720 -0.5118 -0.2670
  899SOL    HW1 7508   5.286  11.621   2.620 -0.7634 -0.8544 -2.1636
  899SOL    HW2 7509   5.160  11.661   2.693 -0.4374 -2.2006 -0.8030
  900SOL     OW 7510   2.751   2.516   2.948 -0.3033 -0.4952  0.4882
  900SOL    HW1 7511   2.759   2.611   2.950 -0.4265 -0.4720 -0.0345
  900SOL    HW2 7512   2.824   2.484   3.000  0.8689 -0.1691 -0.9116
  901SOL     OW 7513   5.672   8.240   1.436 -0.2435 -0.1054 -0.4649
  901SOL    HW1 7514   5.759   8.207   1.459  0.1943  0.5006 -1.2087
  901SOL    HW2 7515   5.615   8.165   1.447  0.3115 -0.4153  0.3969
  902SOL     OW 7516   3.101  11.290   4.574  0.2194  0.9761  0.6426
  902SOL    HW1 7517   3.054  11.272   4.493 -0.6025 -1.4968  1.5772
  902SOL    HW2 7518   3.035  11.327   4.633  0.0053 -0.1141  1.1255
  903SOL     OW 7519   9.525   4.043   3.720 -0.2548 -0.9380  0.7482
  903SOL    HW1 7520   9.454   4.005   3.668  0.6255 -1.7829  0.1143
  903SOL    HW2 7521   9.588   4.075   3.654 -0.5795  0.9349  1.2698
  904SOL     OW 7522   5.737   7.112  12.548  0.3130  0.1834  0.8443
  904SOL    HW1 7523   5.710   7.032  12.593 -0.9877 -1.1215 -2.0212
  904SOL    HW2 7524   5.829   7.123  12.573  0.7872 -2.6861  0.7327
  905SOL     OW 7525   7.161  10.303   0.499 -0.2168 -0.3500  0.0403
  905SOL    HW1 7526   7.097  10.335   0.562 -0.2536 -0.4087  0.0322
  905SOL    HW2 7527   7.243  10.298   0.549  0.1087  1.1023 -0.3114
  906SOL     OW 7528   2.821  10.984  10.569 -0.8848  0.0588 -0.2917
  906SOL    HW1 7529   2.875  10.916  10.609 -1.3251  0.1787  0.5319
  906SOL    HW2 7530   2.733  10.945  10.566 -0.7689 -0.1408 -1.6266
  907SOL     OW 7531  11.660   3.908  11.261 -0.3417  0.1418 -0.2815
  907SOL    HW1 7532  11.686   3.899  11.352 -0.2983 -2.1402 -0.4634
  907SOL    HW2 7533  11.736   3.878  11.211 -0.7363  0.3765 -1.0470
  908SOL     OW 7534   0.850   9.263   6.365  0.0916  0.4792 -0.9019
  908SOL    HW1 7535   0.812   9.334   6.416 -0.4863  1.8069 -3.0605
  908SOL    HW2 7536   0.779   9.200   6.352  0.6428 -0.6687  1.1395
  909SOL     OW 7537   2.546   1.883   3.619  0.0057 -0.2731 -0.2533
  909SOL    HW1 7538   2.566   1.966   3.662  0.4812 -1.4809  2.0551
  909SOL    HW2 7539   2.625   1.860   3.571 -0.1595  0.6217 -0.9725
  910SOL     OW 7540   2.421   4.519  10.695  0.8105 -0.1392  0.2448
  910SOL    HW1 7541   2.384   4.580  10.631  0.1140 -0.9239 -0.1326
  910SOL    HW2 7542   2.361   4.524  10.770 -0.5988 -1.9827 -0.6677
  911SOL     OW 7543   4.447   5.203   7.134  0.5470 -0.0466 -0.1539
  911SOL    HW1 7544   4.389   5.223   7.061  1.2227  1.2932 -0.3599
  911SOL    HW2 7545   4.493   5.124   7.106 -0.1250 -0.2865 -0.6098
  912SOL     OW 7546   6.787   3.069   8.317 -0.2340 -0.4640 -0.2290
  912SOL    HW1 7547   6.784   3.067   8.221 -1.6177 -1.2658 -0.1856
  912SOL    HW2 7548   6.696   3.077   8.344 -0.0436 -2.0006  1.0389
  913SOL     OW 7549  11.582   8.095   0.290 -0.5840 -0.2263 -0.3768
  913SOL    HW1 7550  11.536   8.083   0.207  0.1364  1.2455 -1.0125
  913SOL    HW2 7551  11.523   8.147   0.343 -1.8265 -2.6433  0.7640
  914SOL     OW 7552   5.609   9.751   8.336 -0.3258 -0.7072 -0.7612
  914SOL    HW1 7553   5.560   9.819   8.383  1.4073  0.4143 -0.5007
  914SOL    HW2 7554   5.680   9.727   8.395 -0.9947 -2.9510 -0.7630
  915SOL     OW 7555   3.648   5.826   9.485  0.4145 -0.3371 -0.0472
  915SOL    HW1 7556   3.729   5.811   9.436 -0.0114  0.8559 -1.2073
  915SOL    HW2 7557   3.578   5.813   9.420 -0.3292 -1.2706  0.9133
  916SOL     OW 7558  12.547   7.271   9.219 -0.5506  0.1022  0.4044
  916SOL    HW1 7559  12.587   7.327   9.286 -0.9885 -1.3151  1.9128
  916SOL    HW2 7560  12.516   7.194   9.267 -1.0307 -0.9056 -1.4157
  917SOL     OW 7561   0.590   0.002  11.572 -0.3052  0.1695  0.1061
  917SOL    HW1 7562   0.563   0.084  11.615 -0.3092 -0.1718  0.7707
  917SOL    HW2 7563   0.684  -0.003  11.589 -0.3241 -0.0139  0.1524
  918SOL     OW 7564  11.778   0.074   6.792  0.9017 -0.0005  1.0738
  918SOL    HW1 7565  11.776   0.108   6.882  0.6853  2.2013  0.2782
  918SOL    HW2 7566  11.700   0.111   6.750  1.4687 -0.2733 -0.2692
  919SOL     OW 7567   4.751  11.080   1.736  0.3319 -0.3010  0.0788
  919SOL    HW1 7568   4.669  11.107   1.777 -0.5055 -1.7042 -0.6128
  919SOL    HW2 7569   4.738  11.094   1.643  1.8191  1.7971  0.1125
  920SOL     OW 7570   8.844   1.112  11.277 -0.1804  0.3763  0.0233
  920SOL    HW1 7571   8.900   1.097  11.202 -1.1849  0.1351 -0.7060
  920SOL    HW2 7572   8.783   1.038  11.277 -1.0339  1.0525  0.2809
  921SOL     OW 7573   6.772   7.962   9.499 -0.2527 -0.6510  0.7385
  921SOL    HW1 7574   6.862   7.942   9.524 -0.4292 -0.1492  1.8182
  921SOL    HW2 7575   6.723   7.884   9.521 -0.2557 -0.5396  1.1296
  922SOL     OW 7576   8.829   0.928   8.994  0.5311 -1.2675  0.2300
  922SOL    HW1 7577   8.851   1.012   9.034 -0.2613 -0.6658 -0.5709
  922SOL    HW2 7578   8.901   0.870   9.019  1.9514  0.0751 -0.6022
  923SOL     OW 7579   2.134   9.061   5.743  0.0379  0.1714  0.0833
  923SOL    HW1 7580   2.158   9.152   5.763  1.2708 -0.0345 -0.3810
  923SOL    HW2 7581   2.078   9.035   5.816 -1.2083  1.6279 -0.2856
  924SOL     OW 7582   3.288   5.146   4.191  0.9896 -0.0822 -0.2705
  924SOL    HW1 7583   3.336   5.181   4.267 -1.8764  0.6869  1.3352
  924SOL    HW2 7584   3.240   5.071   4.226 -0.9576  0.7216 -1.0971
  925SOL     OW 7585   1.904   6.323   7.319 -0.0893  0.2057  0.1939
  925SOL    HW1 7586   1.820   6.340   7.361 -0.7613 -0.6794 -0.7264
  925SOL    HW2 7587   1.882   6.267   7.244  1.1486  1.1313 -0.8966
  926SOL     OW 7588   0.920   1.641   8.177  0.7525  0.5335  0.3153
  926SOL    HW1 7589   0.968   1.559   8.165  0.4450  0.5373 -1.1237
  926SOL    HW2 7590   0.979   1.709   8.145  0.0063  0.5813 -1.0377
  927SOL     OW 7591   3.043   5.447   0.004  0.3578 -0.1152  0.1571
  927SOL    HW1 7592   3.035   5.366  -0.047 -0.2638 -0.1737  0.3449
  927SOL    HW2 7593   3.075   5.512  -0.058 -0.1848 -0.2404 -0.2546
  928SOL     OW 7594   0.257   8.763   0.073 -0.0456 -0.1352 -0.0286
  928SOL    HW1 7595   0.314   8.828   0.032 -0.0431 -0.6980 -0.9492
  928SOL    HW2 7596   0.293   8.679   0.046 -0.8858 -0.5052 -0.0300
  929SOL     OW 7597   4.039   3.101   8.530  0.0769  0.9373  0.5813
  929SOL    HW1 7598   4.121   3.062   8.500  0.1491 -0.4101  2.4177
  929SOL    HW2 7599   4.066   3.163   8.598 -0.3085  1.9045 -0.1228
  930SOL     OW 7600   9.134   3.411  10.560  0.4387  0.2029 -0.0866
  930SOL    HW1 7601   9.135   3.348  10.487  0.0453 -0.3063  0.3435
  930SOL    HW2 7602   9.218   3.397  10.604  0.8186  0.7300 -0.6097
  931SOL     OW 7603   4.464   0.498   1.327  0.2293  0.2332  0.3371
  931SOL    HW1 7604   4.389   0.443   1.304  0.3613  0.2291 -0.0897
  931SOL    HW2 7605   4.451   0.519   1.420 -0.1629  0.0209  0.3313
  932SOL     OW 7606   4.612   5.646   2.744  1.1109 -0.2712  0.3070
  932SOL    HW1 7607   4.575   5.673   2.660  0.5933 -0.3877  0.4922
  932SOL    HW2 7608   4.639   5.729   2.786 -0.1561 -0.0415  0.7249
  933SOL     OW 7609   8.600   3.973   4.690 -0.6624  0.7809 -0.6302
  933SOL    HW1 7610   8.558   3.906   4.637  0.6651 -0.4992 -0.1238
  933SOL    HW2 7611   8.643   4.030   4.626 -0.4962  0.2394 -1.0072
  934SOL     OW 7612   1.281   1.662  10.584  0.3559 -0.1707 -0.2832
  934SOL    HW1 7613   1.286   1.746  10.539 -0.2636 -0.2116 -0.4433
  934SOL    HW2 7614   1.298   1.682  10.676 -0.7496  0.2857 -0.1652
  935SOL     OW 7615  10.115   8.126   1.734  1.0901 -0.4805  0.3052
  935SOL    HW1 7616  10.061   8.075   1.674  0.5150  0.5984 -0.1341
  935SOL    HW2 7617  10.079   8.215   1.730  2.0795 -0.0147  0.9999
  936SOL     OW 7618  12.286   2.546  12.246  0.1273  0.4329  0.0694
  936SOL    HW1 7619  12.193   2.565  12.264  0.2108  1.2306 -0.3032
  936SOL    HW2 7620  12.295   2.560  12.152  0.4724 -0.3361 -0.0103
  937SOL     OW 7621  12.493   5.695   5.645  0.5347 -0.3653 -0.6115
  937SOL    HW1 7622  12.570   5.747   5.668  0.7473 -0.2308 -1.5948
  937SOL    HW2 7623  12.515   5.654   5.561 -0.3671 -0.5227 -0.7887
  938SOL     OW 7624  11.077   6.813   8.098 -0.0761  0.1685  0.2420
  938SOL    HW1 7625  11.133   6.886   8.123 -1.9142  2.3949 -1.5952
  938SOL    HW2 7626  10.988   6.842   8.120 -0.9603 -1.0275 -1.4714
  939SOL     OW 7627   7.144   0.255  12.449  0.3250  0.4625 -0.2627
  939SOL    HW1 7628   7.214   0.308  12.412  2.2320 -1.1979  0.7251
  939SOL    HW2 7629   7.136   0.181  12.388 -0.5036  0.5855 -0.3090
  940SOL     OW 7630   2.526   1.511   0.629 -0.5893 -0.7846  0.5922
  940SOL    HW1 7631   2.450   1.569   0.638  0.2087  0.3678  0.1704
  940SOL    HW2 7632   2.516   1.472   0.542 -0.8856 -0.9347  0.6900
  941SOL     OW 7633  10.741   2.597   6.383  0.6832 -0.3051 -0.1493
  941SOL    HW1 7634  10.769   2.584   6.292  0.8795  1.5416 -0.3965
  941SOL    HW2 7635  10.646   2.607   6.377  0.7168  0.0253 -0.2024
  942SOL     OW 7636   3.097   3.582   6.225 -0.7195  0.2096  0.0544
  942SOL    HW1 7637   3.032   3.631   6.275 -2.8701 -0.5176 -1.8535
  942SOL    HW2 7638   3.105   3.630   6.143 -0.6430 -0.9986 -0.6637
  943SOL     OW 7639   8.780   5.011   3.136 -0.4501  0.1117  0.1157
  943SOL    HW1 7640   8.839   4.941   3.165 -0.0453  0.5605  0.3970
  943SOL    HW2 7641   8.782   5.075   3.207 -2.5856 -0.6096  0.8836
  944SOL     OW 7642   9.959   3.261   7.148 -0.2941  0.0474 -0.0848
  944SOL    HW1 7643   9.905   3.305   7.213 -1.5782  0.4716 -1.3759
  944SOL    HW2 7644   9.938   3.306   7.066  0.0585 -1.5126 -1.0639
  945SOL     OW 7645   4.110  10.608  10.473  0.0513 -0.2829 -0.4592
  945SOL    HW1 7646   4.108  10.699  10.502  1.3376 -0.4737  0.3007
  945SOL    HW2 7647   4.023  10.593  10.436 -1.2663  0.3686  2.1132
  946SOL     OW 7648   5.291  11.786   9.982 -0.9632  0.2615 -0.2013
  946SOL    HW1 7649   5.351  11.712   9.994 -0.0768  1.0364  0.3388
  946SOL    HW2 7650   5.221  11.770  10.046 -0.4237  0.2200  0.3964
  947SOL     OW 7651   6.563   5.893   2.693  0.2455 -0.1289  0.0078
  947SOL    HW1 7652   6.620   5.866   2.621  0.0997  0.0167 -0.1670
  947SOL    HW2 7653   6.535   5.812   2.734 -1.6232 -0.3950 -1.6260
  948SOL     OW 7654   9.400   6.335  10.777 -0.2925  0.5022  0.0495
  948SOL    HW1 7655   9.310   6.360  10.801 -0.2385  0.9881 -0.2370
  948SOL    HW2 7656   9.453   6.366  10.850 -0.4339 -0.4235  0.5555
  949SOL     OW 7657   3.106  10.264  12.219 -0.1164 -0.0843 -0.5644
  949SOL    HW1 7658   3.183  10.233  12.268 -2.2284 -0.7874  2.6456
  949SOL    HW2 7659   3.108  10.359  12.229 -0.4644 -0.2032  1.0244
  950SOL     OW 7660   3.156  11.680   3.946  0.1205 -0.4009  0.3606
  950SOL    HW1 7661   3.122  11.708   4.031  1.2245  0.7658  0.4435
  950SOL    HW2 7662   3.251  11.679   3.957  0.3703  1.0905 -1.2251
  951SOL     OW 7663   9.452   1.218  11.577 -0.1337 -0.7947  0.0635
  951SOL    HW1 7664   9.401   1.296  11.561  1.1455  0.1458  0.3791
  951SOL    HW2 7665   9.401   1.168  11.641 -1.2791 -0.5633 -0.6576
  952SOL     OW 7666   3.786   9.019   1.734 -0.1201  0.0692 -0.1380
  952SOL    HW1 7667   3.877   9.046   1.722 -0.0002 -0.1639  0.2372
  952SOL    HW2 7668   3.752   9.011   1.645  0.8890 -2.0538 -0.4100
  953SOL     OW 7669   9.539   0.808   5.310  0.3075  0.2768 -0.3173
  953SOL    HW1 7670   9.463   0.811   5.253 -0.0072  1.0713  0.1269
  953SOL    HW2 7671   9.556   0.715   5.324 -0.1265  0.0888 -1.0104
  954SOL     OW 7672   2.572   8.705   9.815 -0.3729  0.0100 -0.0751
  954SOL    HW1 7673   2.477   8.700   9.812 -0.3664  0.4066 -2.5712
  954SOL    HW2 7674   2.600   8.615   9.832 -1.1721 -0.4890 -1.2802
  955SOL     OW 7675   6.357  10.766   6.390  0.0010  0.3674  0.4979
  955SOL    HW1 7676   6.440  10.735   6.354 -0.3290  0.0153  0.0269
  955SOL    HW2 7677   6.365  10.861   6.390  0.3315  0.3404  0.2698
  956SOL     OW 7678   8.769   4.838   3.392 -0.5062  0.0534  0.2174
  956SOL    HW1 7679   8.717   4.759   3.409 -0.5016  0.2035  0.9809
  956SOL    HW2 7680   8.720   4.908   3.436 -0.4120  0.4475 -0.2937
  957SOL     OW 7681  12.134   7.842  11.118 -0.3253 -0.4383 -0.1054
  957SOL    HW1 7682  12.047   7.808  11.139 -0.0430 -0.8588  0.3810
  957SOL    HW2 7683  12.119   7.897  11.041 -1.5870  2.0726  1.7734
  958SOL     OW 7684   8.565   9.001  11.052  0.8460  0.4720  0.1758
  958SOL    HW1 7685   8.570   9.078  11.109  1.3418  1.0303 -0.5929
  958SOL    HW2 7686   8.625   9.022  10.980  0.6740 -0.4689 -0.2451
  959SOL     OW 7687  11.299   4.394   4.947  0.1296 -0.6885 -0.3595
  959SOL    HW1 7688  11.244   4.386   4.869 -0.9455 -0.3817  0.3516
  959SOL    HW2 7689  11.280   4.315   4.998  2.2195 -1.8318 -1.2403
  960SOL     OW 7690  10.417   3.225   9.582 -1.1106  0.7563 -0.1268
  960SOL    HW1 7691  10.483   3.244   9.515  0.2598  0.6309  1.1504
  960SOL    HW2 7692  10.334   3.251   9.541 -0.2292  1.4606 -1.5605
  961SOL     OW 7693   5.411  11.758   4.598  0.0191  0.2026 -0.2735
  961SOL    HW1 7694   5.392  11.849   4.621  1.1279  0.2239  0.6294
  961SOL    HW2 7695   5.348  11.707   4.649 -0.6995  0.4604 -0.8896
  962SOL     OW 7696   3.956   1.291   3.709 -0.1976 -0.2547 -0.1682
  962SOL    HW1 7697   3.892   1.304   3.640 -1.3769 -1.5926  0.6396
  962SOL    HW2 7698   3.911   1.315   3.790  1.2083  1.4542  0.1832
  963SOL     OW 7699   2.129   8.470   2.805  0.0636 -0.0124 -0.2416
  963SOL    HW1 7700   2.203   8.431   2.851  1.3441  1.0289 -1.3175
  963SOL    HW2 7701   2.085   8.397   2.762  0.1086 -0.7177  0.8873
  964SOL     OW 7702   4.540  10.912  10.989  0.2867  0.0121  0.2481
  964SOL    HW1 7703   4.499  10.881  10.908  0.2252  2.1427 -0.6080
  964SOL    HW2 7704   4.588  10.837  11.022 -1.7538 -1.6811 -0.3787
  965SOL     OW 7705   8.410   6.193   6.160 -0.0605  0.0847  0.4147
  965SOL    HW1 7706   8.441   6.250   6.231 -0.8427  0.5811  0.3611
  965SOL    HW2 7707   8.315   6.198   6.164 -0.2184  2.3512 -2.3792
  966SOL     OW 7708   2.350   4.526   3.036  0.7903 -0.4220 -0.3427
  966SOL    HW1 7709   2.346   4.432   3.021 -1.0687 -0.2491 -1.3459
  966SOL    HW2 7710   2.269   4.560   2.996  2.0139  1.7525 -1.1629
  967SOL     OW 7711   3.012   7.749   3.972 -0.0909 -0.4215  0.4260
  967SOL    HW1 7712   3.044   7.660   3.984  1.1282 -0.1223 -0.4276
  967SOL    HW2 7713   3.063   7.784   3.899 -1.1902  0.6748  0.1349
  968SOL     OW 7714   7.051   0.080  12.247  0.2072 -0.5327  0.0356
  968SOL    HW1 7715   6.974   0.063  12.302  0.0392  0.8392  0.2748
  968SOL    HW2 7716   7.031   0.164  12.204  0.9459 -0.8877 -1.0403
  969SOL     OW 7717  10.083   9.092   5.949 -0.5906  0.2233  0.2717
  969SOL    HW1 7718  10.008   9.128   5.902  0.6896  3.4688  0.4712
  969SOL    HW2 7719  10.156   9.150   5.927  1.2579 -1.2201  2.1735
  970SOL     OW 7720   6.639   9.521   1.133 -0.1620 -0.0928 -0.8428
  970SOL    HW1 7721   6.544   9.517   1.147  0.0640 -0.7151  0.8035
  970SOL    HW2 7722   6.676   9.499   1.219  1.4881  2.6871 -0.7431
  971SOL     OW 7723   8.470  10.827   7.612 -0.7005 -0.1298 -0.0679
  971SOL    HW1 7724   8.540  10.892   7.614 -0.6131 -0.1634  2.8461
  971SOL    HW2 7725   8.390  10.877   7.598 -0.4374  0.3548  0.1431
  972SOL     OW 7726  11.980  12.263   9.940 -0.8715 -0.2548 -0.3627
  972SOL    HW1 7727  12.010  12.253  10.030 -0.3412  1.4158 -0.3193
  972SOL    HW2 7728  11.885  12.260   9.946 -0.8190 -1.2465  0.0936
  973SOL     OW 7729   1.214  11.437   5.208  0.4705  0.0135 -0.6456
  973SOL    HW1 7730   1.203  11.437   5.303  1.3143 -0.3822 -0.5400
  973SOL    HW2 7731   1.188  11.525   5.181  0.9282  0.3620  0.0381
  974SOL     OW 7732   4.325   9.963  11.745  0.0660 -0.5179 -0.0527
  974SOL    HW1 7733   4.292   9.935  11.830  0.0570 -0.5093 -0.0530
  974SOL    HW2 7734   4.341   9.882  11.697  0.0032 -0.5215 -0.0680
  975SOL     OW 7735  11.780   6.638   3.529 -0.3725  0.5904 -0.1618
  975SOL    HW1 7736  11.766   6.721   3.574 -0.6741  1.4709 -1.7737
  975SOL    HW2 7737  11.785   6.662   3.436  1.0061 -1.0166 -0.5638
  976SOL     OW 7738   2.954  10.854   0.874  0.4247 -0.8400  0.3203
  976SOL    HW1 7739   2.863  10.860   0.843  0.2221  1.8949  1.1314
  976SOL    HW2 7740   3.006  10.873   0.796  0.0005  3.2262  0.7849
  977SOL     OW 7741   5.375  10.161   0.452  0.0896 -0.5690  0.1082
  977SOL    HW1 7742   5.404  10.248   0.482  2.1823 -1.2222  0.0754
  977SOL    HW2 7743   5.330  10.178   0.369  0.0102  0.5287  0.3589
  978SOL     OW 7744  11.899   0.484   8.011  0.1875 -0.3368  0.3597
  978SOL    HW1 7745  11.989   0.452   8.003  0.4028  0.5301 -1.1535
  978SOL    HW2 7746  11.854   0.446   7.936 -0.3035  0.4210  0.2555
  979SOL     OW 7747  11.085  10.340   5.734  0.3013 -0.0610  0.0204
  979SOL    HW1 7748  11.065  10.349   5.641 -1.0871 -0.3569  0.2674
  979SOL    HW2 7749  11.180  10.351   5.739  0.3826  0.1193 -1.4030
  980SOL     OW 7750   1.466   9.698   1.089  0.1543  0.1089 -0.3747
  980SOL    HW1 7751   1.439   9.746   1.011 -1.4032 -0.8894 -0.5112
  980SOL    HW2 7752   1.494   9.612   1.057 -0.7968 -0.4256  0.1356
  981SOL     OW 7753   9.367   8.112   8.187 -0.2865 -0.0156  0.5409
  981SOL    HW1 7754   9.363   8.045   8.119  0.7172 -0.3856  0.8305
  981SOL    HW2 7755   9.330   8.069   8.264  0.1376 -0.1641  0.6640
  982SOL     OW 7756   6.754  11.111   4.528 -0.4690 -0.0606 -0.0518
  982SOL    HW1 7757   6.724  11.061   4.453  3.3526 -0.6056 -1.4398
  982SOL    HW2 7758   6.740  11.054   4.603  1.7878 -2.4750 -1.3203
  983SOL     OW 7759   3.177   6.221   2.398  0.2219 -0.2066 -0.3242
  983SOL    HW1 7760   3.214   6.204   2.312 -1.6411  0.6226 -1.3707
  983SOL    HW2 7761   3.176   6.317   2.404  0.5911 -0.2652  0.7457
  984SOL     OW 7762   8.847   8.090   1.737 -0.0105 -0.1744  0.7228
  984SOL    HW1 7763   8.751   8.101   1.739  0.0841  0.8990  0.1563
  984SOL    HW2 7764   8.860   8.002   1.703 -0.7949  0.7725 -2.3945
  985SOL     OW 7765   8.096   0.664   2.306 -0.2797  0.4902  0.5952
  985SOL    HW1 7766   8.052   0.629   2.384 -0.7435 -1.4296 -0.4671
  985SOL    HW2 7767   8.030   0.720   2.265  0.3167  2.3890  2.0671
  986SOL     OW 7768   6.938  10.753   7.202 -0.1761 -0.1219 -0.0481
  986SOL    HW1 7769   6.925  10.795   7.287  0.8767  2.3670 -1.0060
  986SOL    HW2 7770   7.033  10.756   7.189 -0.1068 -2.3954 -0.4441
  987SOL     OW 7771   8.623  11.622   5.852 -0.0850 -0.3327  0.0715
  987SOL    HW1 7772   8.542  11.606   5.901 -0.5629 -0.8121 -0.8408
  987SOL    HW2 7773   8.686  11.559   5.888 -0.1732 -0.1072  0.6319
  988SOL     OW 7774  12.565   6.040   4.621 -0.0175 -0.3311 -0.1897
  988SOL    HW1 7775  12.547   6.040   4.715  1.1102 -0.7918  0.0457
  988SOL    HW2 7776  12.481   6.019   4.580 -0.8345  1.1537  0.6301
  989SOL     OW 7777   7.804   2.883   7.371  0.0813 -0.1104  0.2846
  989SOL    HW1 7778   7.891   2.877   7.412  2.0813  0.8279 -3.3618
  989SOL    HW2 7779   7.806   2.817   7.302 -1.7401  0.5570 -0.4610
  990SOL     OW 7780   1.426   1.075  12.169  0.1905  0.1475  0.2320
  990SOL    HW1 7781   1.402   1.156  12.124  0.0283  0.5553  1.0367
  990SOL    HW2 7782   1.374   1.076  12.250 -1.4775 -1.8208 -0.7271
  991SOL     OW 7783   3.937   1.522   0.399  0.0772 -0.5684 -0.2255
  991SOL    HW1 7784   3.916   1.614   0.379  1.2073 -0.2238  0.0833
  991SOL    HW2 7785   4.018   1.527   0.450 -0.5830 -1.6671  0.9769
  992SOL     OW 7786   7.923   5.166   2.307  0.4528  0.0550 -0.7347
  992SOL    HW1 7787   7.952   5.089   2.356 -1.4403  0.3148  0.9219
  992SOL    HW2 7788   7.839   5.140   2.269 -0.2264  1.2677 -0.1307
  993SOL     OW 7789   1.760   5.191   6.405 -0.2271  0.1357 -0.1420
  993SOL    HW1 7790   1.819   5.119   6.429 -1.0684 -1.0786 -1.6220
  993SOL    HW2 7791   1.692   5.189   6.472 -0.6247 -0.9247 -0.5560
  994SOL     OW 7792   1.339   2.385   1.085 -0.4277 -0.1997 -0.8890
  994SOL    HW1 7793   1.348   2.477   1.106 -1.3005 -0.4641  0.8160
  994SOL    HW2 7794   1.246   2.375   1.061 -0.6582 -0.8268  0.1746
  995SOL     OW 7795   6.021   0.127   9.157  0.0349 -0.0333 -0.4931
  995SOL    HW1 7796   6.041   0.207   9.107  0.0564 -0.9896 -2.0881
  995SOL    HW2 7797   5.985   0.067   9.092  1.4375 -1.8698  0.3519
  996SOL     OW 7798   9.406  10.279   8.833  0.2583  0.4450  0.2654
  996SOL    HW1 7799   9.399  10.200   8.780 -0.2926  0.8972 -0.3587
  996SOL    HW2 7800   9.499  10.285   8.856  0.7583  0.8912 -1.6907
  997SOL     OW 7801  12.631  12.086   4.005  0.0530  0.0209 -0.1267
  997SOL    HW1 7802  12.688  12.121   4.074 -0.2671 -0.2872  0.2985
  997SOL    HW2 7803  12.546  12.073   4.048 -0.7062  1.6346 -1.0518
  998SOL     OW 7804  10.965   9.678   7.568  0.3412 -0.2200  0.4769
  998SOL    HW1 7805  11.051   9.652   7.602  0.4065 -1.9473 -0.8831
  998SOL    HW2 7806  10.943   9.758   7.617  3.0742  0.7542  0.2794
  999SOL     OW 7807  12.157  11.217   4.166 -0.5068 -0.5228 -0.6050
  999SOL    HW1 7808  12.252  11.221   4.156 -0.8003  0.7426 -4.7374
  999SOL    HW2 7809  12.128  11.307   4.153 -2.3109 -0.8368  0.8756
 1000SOL     OW 7810   6.561   5.648   3.494  0.7164 -0.2193 -0.1818
 1000SOL    HW1 7811   6.611   5.686   3.566  1.1044  0.5431 -0.8351
 1000SOL    HW2 7812   6.576   5.553   3.501  0.8421 -0.1424  0.6568
 1001SOL     OW 7813   1.666   1.714  11.561  0.0892  0.1050  0.8567
 1001SOL    HW1 7814   1.670   1.618  11.554  0.2503  0.0300  1.7843
 1001SOL    HW2 7815   1.736   1.745  11.503  1.9266 -0.4763  2.6206
 1002SOL     OW 7816   3.036   9.370   2.093  0.1619  0.1401 -0.3791
 1002SOL    HW1 7817   3.127   9.344   2.082  0.1661  0.6752 -1.9955
 1002SOL    HW2 7818   3.031   9.457   2.052 -0.5529  1.2493  1.9180
 1003SOL     OW 7819   4.818   2.228   7.430 -0.0100 -0.9641  0.4603
 1003SOL    HW1 7820   4.742   2.260   7.381  0.2242  0.1613  0.7964
 1003SOL    HW2 7821   4.797   2.246   7.522  1.4620  1.2666  0.4434
 1004SOL     OW 7822   4.003   2.823   9.418  0.2511  0.0741  0.1475
 1004SOL    HW1 7823   3.988   2.781   9.333 -2.6145  0.4257  0.3795
 1004SOL    HW2 7824   3.999   2.751   9.481 -0.6161  0.1738  0.2130
 1005SOL     OW 7825   9.562   9.140   0.540  0.0449  0.1573 -0.7466
 1005SOL    HW1 7826   9.602   9.095   0.615  0.0413 -1.0383 -1.4326
 1005SOL    HW2 7827   9.479   9.173   0.573  0.1895 -0.0817 -0.1347
 1006SOL     OW 7828   9.953  11.227   5.325  0.1487  0.1988  0.6326
 1006SOL    HW1 7829   9.955  11.317   5.357 -0.9120 -0.3345  2.3558
 1006SOL    HW2 7830   9.862  11.213   5.298  0.4948 -0.1151 -0.4048
 1007SOL     OW 7831   3.059  10.597   6.862 -0.4052  0.1579  0.1412
 1007SOL    HW1 7832   3.038  10.687   6.839 -2.3126 -0.3111 -0.1409
 1007SOL    HW2 7833   2.992  10.572   6.926 -0.2584 -1.2083 -0.1917
 1008SOL     OW 7834   6.174   1.830   5.313 -0.0705 -0.3726  0.0507
 1008SOL    HW1 7835   6.193   1.737   5.300  0.3859 -0.3230  0.3436
 1008SOL    HW2 7836   6.260   1.871   5.325 -0.1167  0.3855 -1.9030
 1009SOL     OW 7837   9.812   7.575  12.620 -0.0959 -0.3044 -0.3594
 1009SOL    HW1 7838   9.829   7.660  12.661  0.3416 -1.6357  2.4385
 1009SOL    HW2 7839   9.899   7.544  12.594 -0.2381 -0.0089 -1.2297
 1010SOL     OW 7840   1.466   6.969   6.391 -0.5216 -1.0614 -0.1420
 1010SOL    HW1 7841   1.426   7.037   6.337  2.3990  1.5207  0.6621
 1010SOL    HW2 7842   1.431   6.984   6.479  1.3405  0.6296  0.3812
 1011SOL     OW 7843   3.929   3.949   6.361 -0.3860  0.1479  0.5633
 1011SOL    HW1 7844   3.963   3.923   6.275 -0.9632 -0.2598  0.4514
 1011SOL    HW2 7845   3.951   4.042   6.368  0.9162 -0.1544  0.5867
 1012SOL     OW 7846   9.025   0.826  11.235 -0.4427 -0.2883 -0.6802
 1012SOL    HW1 7847   9.113   0.856  11.257  0.0863 -2.7620  0.8289
 1012SOL    HW2 7848   9.014   0.853  11.143  1.1421  1.6157 -0.3963
 1013SOL     OW 7849   2.484  10.844   2.594 -0.2730  0.1999  0.4914
 1013SOL    HW1 7850   2.565  10.793   2.584 -0.8892 -1.1125  1.7855
 1013SOL    HW2 7851   2.480  10.864   2.687 -0.8763  1.2443  0.2520
 1014SOL     OW 7852   5.377   9.775  10.937  0.3478  0.4236 -0.2793
 1014SOL    HW1 7853   5.289   9.750  10.906 -0.0731  0.0515  1.1596
 1014SOL    HW2 7854   5.404   9.844  10.876 -1.3098  1.1702 -0.2414
 1015SOL     OW 7855   6.343   5.925   9.395  0.0835  0.3987  0.6964
 1015SOL    HW1 7856   6.276   5.873   9.351  1.6062 -0.7804 -0.2946
 1015SOL    HW2 7857   6.320   6.016   9.374 -0.7781 -0.0170 -0.2212
 1016SOL     OW 7858   8.049   6.729  10.384  0.3739 -0.5224  0.2327
 1016SOL    HW1 7859   7.999   6.808  10.360  1.5630 -0.1527 -1.1594
 1016SOL    HW2 7860   8.071   6.743  10.477  2.2673  1.8117 -0.4595
 1017SOL     OW 7861   7.176  10.538   8.548 -0.2900 -0.0508  0.4081
 1017SOL    HW1 7862   7.246  10.561   8.609  0.5723  0.2590 -0.6609
 1017SOL    HW2 7863   7.219  10.484   8.481 -0.8622  0.8799 -0.7481
 1018SOL     OW 7864   3.704   8.657   4.663  0.0298  0.1015  0.0759
 1018SOL    HW1 7865   3.754   8.595   4.609 -1.0674 -2.2235  1.5403
 1018SOL    HW2 7866   3.693   8.734   4.608  1.9490 -0.7848 -1.6661
 1019SOL     OW 7867   3.430   5.650   5.989 -0.3376 -0.3266 -0.2970
 1019SOL    HW1 7868   3.470   5.596   6.056 -1.9454 -1.7203 -0.3746
 1019SOL    HW2 7869   3.452   5.607   5.907  1.0019  0.9543 -0.6510
 1020SOL     OW 7870   9.834   6.374  11.516  0.2684 -0.6062 -0.4991
 1020SOL    HW1 7871   9.876   6.419  11.442  1.7907 -0.9785  0.1085
 1020SOL    HW2 7872   9.900   6.373  11.584 -0.9833 -0.6206  0.7568
 1021SOL     OW 7873  12.058   8.121   4.358  0.0163  0.0322 -0.1163
 1021SOL    HW1 7874  12.015   8.048   4.405 -0.1532 -0.7207 -1.3981
 1021SOL    HW2 7875  12.036   8.106   4.266  1.1724  0.9249 -0.5510
 1022SOL     OW 7876   3.270   6.612   8.879  0.1814  0.3816  0.3698
 1022SOL    HW1 7877   3.363   6.604   8.859 -0.2340 -2.2205 -0.9893
 1022SOL    HW2 7878   3.240   6.522   8.890 -2.3617  1.0926 -0.0889
 1023SOL     OW 7879   9.280   4.484   6.474 -0.2377 -0.5232  0.7589
 1023SOL    HW1 7880   9.296   4.395   6.505 -1.5772 -1.4003 -0.8972
 1023SOL    HW2 7881   9.362   4.510   6.433 -0.0493 -1.2592  0.6520
 1024SOL     OW 7882   3.037   5.450   4.528 -0.0909 -0.1547  0.0520
 1024SOL    HW1 7883   2.963   5.511   4.535  0.3369  0.6173 -1.6081
 1024SOL    HW2 7884   3.112   5.500   4.561  0.0053 -0.3111  0.0709
 1025SOL     OW 7885   6.469   5.904   3.374  0.0913 -0.0388 -0.0788
 1025SOL    HW1 7886   6.494   5.959   3.449  0.1042  0.2243 -0.2734
 1025SOL    HW2 7887   6.490   5.815   3.402 -1.5686 -0.1630  0.9395
 1026SOL     OW 7888   9.414   0.890   1.663  0.2363 -0.0164 -0.1980
 1026SOL    HW1 7889   9.407   0.902   1.568 -1.8979  0.5392 -0.0214
 1026SOL    HW2 7890   9.336   0.840   1.686 -0.9568  2.4931  1.6369
 1027SOL     OW 7891   2.499   2.006   9.376  0.2446 -0.1195 -0.1664
 1027SOL    HW1 7892   2.587   2.039   9.357  0.1241 -0.1798 -0.8472
 1027SOL    HW2 7893   2.448   2.083   9.399  0.6905 -0.1834  1.0997
 1028SOL     OW 7894   3.195   1.706  11.749 -0.0345  0.2592  0.3037
 1028SOL    HW1 7895   3.277   1.754  11.734 -0.3465  1.0981  1.1940
 1028SOL    HW2 7896   3.147   1.760  11.812 -0.0095 -1.6600  2.0909
 1029SOL     OW 7897  11.988   0.892   5.558 -0.6951  0.0276 -0.1628
 1029SOL    HW1 7898  11.908   0.928   5.520 -1.4330 -0.4241  0.9075
 1029SOL    HW2 7899  11.987   0.799   5.533 -0.8020 -0.1037  0.3207
 1030SOL     OW 7900   2.207  10.011   6.639  0.5232 -0.2729  0.2209
 1030SOL    HW1 7901   2.226  10.105   6.639  0.8354 -0.3280 -0.3775
 1030SOL    HW2 7902   2.235   9.981   6.553  2.2451 -1.2823  1.0725
 1031SOL     OW 7903   3.237   7.208  11.036 -0.2201 -0.0739 -0.1168
 1031SOL    HW1 7904   3.252   7.298  11.066 -1.3414  0.5448 -1.3049
 1031SOL    HW2 7905   3.144   7.206  11.011 -0.8991 -2.2679  2.1512
 1032SOL     OW 7906   2.728   4.905   3.646 -0.3787 -0.3128  0.1331
 1032SOL    HW1 7907   2.771   4.904   3.732  0.3574 -0.4259 -0.2317
 1032SOL    HW2 7908   2.763   4.983   3.603  0.1210 -0.8887 -0.5041
 1033SOL     OW 7909   2.204   2.985   3.385  0.0481  0.1081 -0.2941
 1033SOL    HW1 7910   2.192   3.074   3.420  1.3557 -0.1455  0.8803
 1033SOL    HW2 7911   2.289   2.988   3.342 -0.5131 -0.2313 -1.4583
 1034SOL     OW 7912   6.934   0.343   9.897  0.3275 -0.1993  0.5186
 1034SOL    HW1 7913   6.897   0.273   9.844  0.8944 -0.2955  0.2346
 1034SOL    HW2 7914   6.881   0.345   9.976  0.1122 -0.7398  0.3880
 1035SOL     OW 7915   6.533   5.540   5.304  0.1873 -0.4869 -0.0621
 1035SOL    HW1 7916   6.627   5.534   5.317  0.1627 -0.4765  0.1390
 1035SOL    HW2 7917   6.498   5.466   5.354  0.1399 -0.9336 -0.7549
 1036SOL     OW 7918  11.525   5.830   1.084  0.2210  0.5483  0.7548
 1036SOL    HW1 7919  11.537   5.759   1.148 -2.6187  1.0399  1.9744
 1036SOL    HW2 7920  11.498   5.905   1.137 -1.3358  1.2334 -0.9226
 1037SOL     OW 7921   9.552   7.191   1.125  0.0906  0.0364 -0.5304
 1037SOL    HW1 7922   9.505   7.111   1.149  0.5137 -0.2245 -0.5710
 1037SOL    HW2 7923   9.567   7.183   1.031 -1.2911  0.9159 -0.8639
 1038SOL     OW 7924   5.083   7.948  11.338 -0.3890  0.5995  0.1549
 1038SOL    HW1 7925   5.036   7.886  11.394 -1.0879  0.1566 -0.8963
 1038SOL    HW2 7926   5.163   7.968  11.386  0.3423 -1.8875  0.0962
 1039SOL     OW 7927   4.243   9.904   4.743 -0.1818 -0.0747 -0.0883
 1039SOL    HW1 7928   4.262   9.925   4.652 -0.3052  0.6337  0.0458
 1039SOL    HW2 7929   4.149   9.887   4.745 -0.0200 -1.0502 -0.2685
 1040SOL     OW 7930   1.686   3.160   5.836  0.5980 -0.0087  0.6353
 1040SOL    HW1 7931   1.768   3.205   5.858  0.1428  1.6561 -0.8311
 1040SOL    HW2 7932   1.634   3.227   5.791 -1.2329 -1.2761  0.7924
 1041SOL     OW 7933  10.450   8.012  11.293  0.3210 -0.2041 -0.3187
 1041SOL    HW1 7934  10.513   8.065  11.342  0.3909  0.3655 -1.0034
 1041SOL    HW2 7935  10.437   8.060  11.211  0.6105 -1.4054 -1.0933
 1042SOL     OW 7936   1.544   1.159   2.103  0.0621 -0.3948  0.8755
 1042SOL    HW1 7937   1.519   1.073   2.135 -0.0474 -0.7801 -0.1911
 1042SOL    HW2 7938   1.460   1.204   2.088  0.1307  0.5033  2.9387
 1043SOL     OW 7939   2.698   7.533  10.465 -0.5422  0.3775  0.1458
 1043SOL    HW1 7940   2.687   7.622  10.432  1.9461  0.3873 -0.8568
 1043SOL    HW2 7941   2.691   7.477  10.388 -1.3926 -0.2572  0.6634
 1044SOL     OW 7942   2.413   6.861   9.868  0.1555 -0.1071  0.1773
 1044SOL    HW1 7943   2.335   6.906   9.899  0.3401 -0.6109  1.4190
 1044SOL    HW2 7944   2.404   6.771   9.900  1.0551 -0.2783 -0.0090
 1045SOL     OW 7945   2.911   9.925   9.882 -0.1296  0.1890  0.0732
 1045SOL    HW1 7946   2.897  10.000   9.824 -0.6357  0.7750  0.9290
 1045SOL    HW2 7947   2.831   9.874   9.875 -0.3664  0.4858  0.5704
 1046SOL     OW 7948   5.453   3.153   9.500  0.0551 -0.8303 -0.2575
 1046SOL    HW1 7949   5.489   3.073   9.539 -0.9558 -0.6968  1.0336
 1046SOL    HW2 7950   5.456   3.217   9.571 -0.8650 -0.2614 -0.7154
 1047SOL     OW 7951   6.147   9.453   9.780 -0.0263 -0.0172  0.4026
 1047SOL    HW1 7952   6.178   9.540   9.806  0.0236 -0.3948  1.6732
 1047SOL    HW2 7953   6.105   9.418   9.858 -0.5560 -0.9167 -0.2638
 1048SOL     OW 7954   7.485  12.114  12.446 -0.2284  0.5103 -0.2990
 1048SOL    HW1 7955   7.521  12.158  12.523  0.3046  0.1686 -0.3498
 1048SOL    HW2 7956   7.539  12.036  12.435 -0.9749 -0.0122 -0.3837
 1049SOL     OW 7957  11.455   2.713   7.724 -0.1145  0.0517  0.6187
 1049SOL    HW1 7958  11.489   2.769   7.655 -2.1080  0.0620 -0.4322
 1049SOL    HW2 7959  11.363   2.738   7.733 -0.6754 -1.9784  1.1885
 1050SOL     OW 7960   6.666   3.706  10.148 -0.3545  0.1937  0.3981
 1050SOL    HW1 7961   6.743   3.671  10.193 -1.0882 -0.7686  0.9370
 1050SOL    HW2 7962   6.699   3.734  10.062  0.5062 -0.6565  0.4329
 1051SOL     OW 7963   0.610   4.378   0.394  0.4038 -0.2918 -0.2390
 1051SOL    HW1 7964   0.699   4.400   0.424  0.7168  0.8110 -1.8145
 1051SOL    HW2 7965   0.620   4.296   0.346  0.0823 -1.5091  1.6727
 1052SOL     OW 7966   7.622   0.798  11.252  0.0889 -0.1286 -0.1311
 1052SOL    HW1 7967   7.601   0.874  11.199 -1.5154 -0.6250 -0.2437
 1052SOL    HW2 7968   7.658   0.834  11.333  0.4919  0.6886 -0.6569
 1053SOL     OW 7969  11.711   2.200   6.780 -0.6112  0.2753  0.1649
 1053SOL    HW1 7970  11.685   2.146   6.855 -0.8111  0.4724  0.2407
 1053SOL    HW2 7971  11.799   2.232   6.802 -0.6880  0.3699  0.3364
 1054SOL     OW 7972   8.122  10.592  11.454  0.1537  0.0407  0.2716
 1054SOL    HW1 7973   8.035  10.623  11.430  0.3546  0.4785  0.0987
 1054SOL    HW2 7974   8.107  10.534  11.529 -0.6165 -2.2152 -1.4829
 1055SOL     OW 7975  11.745   7.412  11.117  0.3031 -0.4783 -0.8448
 1055SOL    HW1 7976  11.713   7.333  11.161 -0.8557 -0.7459 -2.1101
 1055SOL    HW2 7977  11.803   7.453  11.182 -1.2545 -0.8860  0.9013
 1056SOL     OW 7978   6.652   3.619  12.486  0.1332  0.0617  0.6416
 1056SOL    HW1 7979   6.576   3.591  12.435 -0.9094 -0.9181  2.6141
 1056SOL    HW2 7980   6.679   3.541  12.533  3.0845  0.1035 -0.7654
 1057SOL     OW 7981  10.819   4.510   2.707 -0.1339 -0.4055  0.3749
 1057SOL    HW1 7982  10.738   4.558   2.723  0.0496  0.5956 -1.4059
 1057SOL    HW2 7983  10.844   4.534   2.618  0.8630 -2.5618 -0.0046
 1058SOL     OW 7984   6.973   0.360   3.957  0.2103 -0.5006  0.5209
 1058SOL    HW1 7985   6.911   0.401   3.897  0.9286  0.1048  0.1800
 1058SOL    HW2 7986   7.055   0.405   3.941  1.2620 -2.6313 -0.4975
 1059SOL     OW 7987   6.241   3.921  11.096 -0.1528 -0.0280  0.3120
 1059SOL    HW1 7988   6.285   3.925  11.011  0.4003  1.2034  0.6278
 1059SOL    HW2 7989   6.151   3.950  11.077  0.0874  0.6801  0.2008
 1060SOL     OW 7990   9.947   1.276   8.191  0.2094 -0.1763 -0.2423
 1060SOL    HW1 7991   9.871   1.219   8.183  0.3069 -0.2277 -0.8277
 1060SOL    HW2 7992  10.022   1.216   8.191  0.2809 -0.0867 -0.2541
 1061SOL     OW 7993   2.909  11.128   0.377  0.0432 -0.4864 -0.3930
 1061SOL    HW1 7994   2.946  11.145   0.464 -0.3777 -3.8818  0.6116
 1061SOL    HW2 7995   2.835  11.188   0.370  1.2240  1.1907  0.7340
 1062SOL     OW 7996  10.519   0.020  11.865 -0.3660 -0.2456  0.0912
 1062SOL    HW1 7997  10.445  -0.032  11.895 -0.0385 -0.4732  0.5059
 1062SOL    HW2 7998  10.510   0.103  11.912  0.0822 -0.5597  0.7423
 1063SOL     OW 7999   2.297   0.753   1.551 -0.5952 -0.2826 -0.1261
 1063SOL    HW1 8000   2.208   0.764   1.585 -0.5596 -1.8709  0.5665
 1063SOL    HW2 8001   2.306   0.822   1.485 -2.9235 -1.1000 -1.3980
 1064SOL     OW 8002   9.601   8.903   1.782  0.2667  0.0968  0.4526
 1064SOL    HW1 8003   9.552   8.870   1.857  1.0087 -0.7162  0.6063
 1064SOL    HW2 8004   9.693   8.902   1.811  0.6749 -1.1690 -0.7655
 1065SOL     OW 8005   7.480   3.817   3.994  0.1164  0.4424  0.3058
 1065SOL    HW1 8006   7.386   3.822   4.009  0.1528  1.8508  0.2008
 1065SOL    HW2 8007   7.518   3.883   4.052  1.2187 -1.1771  1.5445
 1066SOL     OW 8008   7.757   6.857   2.036 -0.3446  0.0571  0.2729
 1066SOL    HW1 8009   7.693   6.928   2.034 -0.2612  0.1126 -0.5284
 1066SOL    HW2 8010   7.841   6.901   2.049 -0.4053  0.0226  0.8032
 1067SOL     OW 8011  10.361   0.429   0.289 -0.4079 -0.4674 -0.3100
 1067SOL    HW1 8012  10.306   0.495   0.330  1.8044  1.2691  0.0609
 1067SOL    HW2 8013  10.315   0.346   0.304 -1.7973  0.6166  1.9071
 1068SOL     OW 8014  10.679   6.953   1.609  0.4370 -0.1087 -0.0571
 1068SOL    HW1 8015  10.628   7.034   1.614 -0.6115 -0.7894  0.8160
 1068SOL    HW2 8016  10.707   6.947   1.518 -1.9164 -0.2018 -0.8403
 1069SOL     OW 8017   4.603   5.590   3.283 -0.3818  0.6121  0.6253
 1069SOL    HW1 8018   4.681   5.609   3.232 -1.2583  1.1399 -0.5609
 1069SOL    HW2 8019   4.634   5.535   3.355  0.9395  0.1244 -0.2864
 1070SOL     OW 8020   0.383   3.019   3.486 -0.3500 -0.0995  0.2372
 1070SOL    HW1 8021   0.412   2.941   3.532  1.8106  0.6211  0.2271
 1070SOL    HW2 8022   0.306   2.991   3.437 -0.2609 -1.9235  1.0593
 1071SOL     OW 8023   2.883   5.567   8.982  0.1698  0.0001  0.0094
 1071SOL    HW1 8024   2.849   5.504   9.045 -1.5948  0.5152 -0.3774
 1071SOL    HW2 8025   2.885   5.519   8.899 -3.4628  0.9832 -0.8171
 1072SOL     OW 8026   1.787   8.592  11.098 -0.2206 -0.4017 -0.7733
 1072SOL    HW1 8027   1.799   8.683  11.124 -1.1526 -0.3960 -0.3233
 1072SOL    HW2 8028   1.720   8.558  11.158  2.3609 -2.3333  1.2456
 1073SOL     OW 8029   0.981   3.999   1.721 -0.2394  0.0675  0.2105
 1073SOL    HW1 8030   1.053   3.945   1.689  0.2111  1.2106 -0.7458
 1073SOL    HW2 8031   1.017   4.087   1.727 -0.6314  0.1554  2.7890
 1074SOL     OW 8032   2.776   7.196   0.995 -0.0479 -0.2389  0.1031
 1074SOL    HW1 8033   2.725   7.180   0.915  0.0418 -0.2508  0.0488
 1074SOL    HW2 8034   2.710   7.207   1.063 -0.1173 -0.5153  0.0803
 1075SOL     OW 8035   1.912   3.827   2.527  0.1885 -0.7529 -0.2806
 1075SOL    HW1 8036   1.853   3.883   2.578  0.7355 -0.9111  0.5408
 1075SOL    HW2 8037   1.854   3.781   2.466 -0.4301 -0.2807 -0.0640
 1076SOL     OW 8038   3.740   3.235  11.683  0.3896 -0.2308 -0.1312
 1076SOL    HW1 8039   3.805   3.274  11.741 -0.8475  0.5371  0.8135
 1076SOL    HW2 8040   3.740   3.291  11.605  0.7893 -0.1819 -0.0949
 1077SOL     OW 8041   0.297   9.003   6.696 -0.0742 -0.0699 -0.1906
 1077SOL    HW1 8042   0.367   8.998   6.631  0.0354  2.3844 -0.3452
 1077SOL    HW2 8043   0.223   8.957   6.656  0.3200  0.4642 -1.5813
 1078SOL     OW 8044   4.474   6.482  12.521 -0.0631  0.4190  0.8701
 1078SOL    HW1 8045   4.532   6.411  12.548 -0.7290 -0.4321  0.1189
 1078SOL    HW2 8046   4.531   6.539  12.468  0.1886 -0.2018  0.4618
 1079SOL     OW 8047   2.670   1.753   1.388  0.1411 -0.3158 -0.2928
 1079SOL    HW1 8048   2.665   1.822   1.322 -1.6525 -0.4633 -0.3568
 1079SOL    HW2 8049   2.578   1.730   1.406  0.6768 -2.2225  0.2143
 1080SOL     OW 8050   3.877   0.462   4.974  0.0515 -0.3814  0.7219
 1080SOL    HW1 8051   3.955   0.429   5.019 -0.5115 -2.0051  0.5506
 1080SOL    HW2 8052   3.900   0.552   4.951  1.9135 -0.8488  0.6006
 1081SOL     OW 8053  10.607   0.588   9.779  0.1732  0.3832 -0.0878
 1081SOL    HW1 8054  10.663   0.613   9.852 -1.0536 -0.1611  1.0660
 1081SOL    HW2 8055  10.518   0.601   9.811 -0.3989 -0.6513 -1.1914
 1082SOL     OW 8056  12.302   9.955  10.099  0.0420 -0.1758  0.3747
 1082SOL    HW1 8057  12.223   9.925  10.143  0.4642 -1.0281  0.5844
 1082SOL    HW2 8058  12.311   9.897  10.023 -0.0932  0.5859 -0.2334
 1083SOL     OW 8059   5.571   2.007   5.571 -0.3308  0.4641  0.1718
 1083SOL    HW1 8060   5.647   2.028   5.625  1.5033 -1.9206 -1.3034
 1083SOL    HW2 8061   5.518   1.948   5.625 -0.4844  1.0865  0.7127
 1084SOL     OW 8062  11.808   5.435   0.068 -0.0663  0.0618  0.2482
 1084SOL    HW1 8063  11.837   5.348   0.096  0.8618  0.1741 -0.3129
 1084SOL    HW2 8064  11.876   5.494   0.100 -0.9987  0.6733  1.1673
 1085SOL     OW 8065   9.545   4.337   8.058 -0.1516  0.6057 -1.0023
 1085SOL    HW1 8066   9.486   4.411   8.073 -0.3801  0.2701 -0.1454
 1085SOL    HW2 8067   9.575   4.312   8.146 -3.1962 -2.8324 -0.6889
 1086SOL     OW 8068   1.507   0.455   2.913  0.0729 -0.1996 -0.0374
 1086SOL    HW1 8069   1.413   0.446   2.923 -0.2436  0.6575 -1.7470
 1086SOL    HW2 8070   1.518   0.534   2.859  1.7213 -0.7477 -0.5775
 1087SOL     OW 8071   8.855   7.698   3.911 -0.1954 -0.3729  0.1140
 1087SOL    HW1 8072   8.785   7.658   3.860  0.7946 -1.0777 -0.7389
 1087SOL    HW2 8073   8.933   7.646   3.889  0.3282 -0.4918  2.1088
 1088SOL     OW 8074  10.098   5.487  10.078 -0.2745  0.0281 -0.0670
 1088SOL    HW1 8075  10.118   5.404  10.034  0.0092 -0.0196  0.1454
 1088SOL    HW2 8076  10.002   5.489  10.082 -0.3217  0.2392 -1.0572
 1089SOL     OW 8077   2.288   9.030   7.944 -0.0228  0.2276  0.0137
 1089SOL    HW1 8078   2.373   8.989   7.926 -0.5871 -1.0861  0.1827
 1089SOL    HW2 8079   2.300   9.075   8.028 -0.0412 -1.7497  1.1502
 1090SOL     OW 8080  10.977  11.371   1.486 -0.1035  0.0110  0.4936
 1090SOL    HW1 8081  10.945  11.297   1.434 -0.4878  0.8334 -0.4811
 1090SOL    HW2 8082  11.060  11.395   1.443 -0.2132  0.4341  0.5177
 1091SOL     OW 8083   7.959  11.730   1.095 -0.0032  0.7179 -0.3784
 1091SOL    HW1 8084   7.934  11.822   1.107 -0.4660  0.6038 -0.4307
 1091SOL    HW2 8085   7.888  11.693   1.042 -0.3449  0.0882  0.4904
 1092SOL     OW 8086   1.334   7.488   8.734  0.0103  0.1720 -0.1224
 1092SOL    HW1 8087   1.425   7.481   8.761  0.1543 -0.8526 -0.8194
 1092SOL    HW2 8088   1.338   7.500   8.639 -0.5800  0.1801 -0.1496
 1093SOL     OW 8089   9.776   5.010   7.057  0.4766  0.2534 -0.2060
 1093SOL    HW1 8090   9.798   5.074   7.124 -0.2829 -1.5323  1.8728
 1093SOL    HW2 8091   9.789   5.056   6.974  0.5423  2.8562  1.1571
 1094SOL     OW 8092   5.193  10.624   9.734 -0.1168 -0.0023  0.1972
 1094SOL    HW1 8093   5.212  10.653   9.645 -0.5178 -0.4397 -0.0283
 1094SOL    HW2 8094   5.271  10.574   9.760  0.4169  0.9338  0.4505
 1095SOL     OW 8095   2.641   8.127  12.224 -0.3640 -0.4373 -0.3258
 1095SOL    HW1 8096   2.735   8.118  12.207 -0.2654 -1.5245  0.6058
 1095SOL    HW2 8097   2.607   8.038  12.213 -1.3935  0.0386 -1.1693
 1096SOL     OW 8098   8.266   5.221   1.837 -0.2317  0.1377 -0.1330
 1096SOL    HW1 8099   8.344   5.275   1.843 -1.3967  1.7488  1.7012
 1096SOL    HW2 8100   8.286   5.156   1.769  2.2608  1.1401 -0.4350
 1097SOL     OW 8101   1.161   6.714  11.935  0.0497 -0.3174  0.1645
 1097SOL    HW1 8102   1.145   6.690  11.844 -2.1261 -0.0795  0.4398
 1097SOL    HW2 8103   1.078   6.696  11.980 -0.4935  3.8551  1.1852
 1098SOL     OW 8104   9.408   0.247   3.899  0.0380  0.7009  0.0792
 1098SOL    HW1 8105   9.387   0.176   3.838 -0.0235 -0.7161  1.6733
 1098SOL    HW2 8106   9.373   0.326   3.858 -2.1013 -0.5559 -0.6497
 1099SOL     OW 8107   0.052   1.637   9.688 -0.5095 -0.2691  0.2794
 1099SOL    HW1 8108   0.055   1.561   9.630 -1.4903 -1.2653  1.4898
 1099SOL    HW2 8109  -0.040   1.644   9.714 -0.6876  2.0363 -0.6748
 1100SOL     OW 8110  11.242   3.895   3.601  0.1141 -0.5606 -0.1167
 1100SOL    HW1 8111  11.198   3.966   3.648 -0.6221 -1.3508  0.4131
 1100SOL    HW2 8112  11.319   3.875   3.654 -0.9694 -1.7786  1.0756
 1101SOL     OW 8113   6.397   5.268   1.810  0.1075  0.1323  0.1522
 1101SOL    HW1 8114   6.405   5.317   1.728 -3.4155 -1.9332 -1.6990
 1101SOL    HW2 8115   6.360   5.184   1.784  0.5748 -1.3751  3.7428
 1102SOL     OW 8116   3.037   4.523   5.057 -0.3980  0.0794 -0.6208
 1102SOL    HW1 8117   3.114   4.493   5.009 -0.0645  0.0387 -0.0634
 1102SOL    HW2 8118   3.070   4.587   5.120 -0.9296  0.6494 -0.9059
 1103SOL     OW 8119   5.717   0.928   7.172 -0.5178 -0.0985 -0.0881
 1103SOL    HW1 8120   5.730   0.884   7.088 -1.7908 -0.1376 -0.2837
 1103SOL    HW2 8121   5.626   0.912   7.194 -0.7647  1.6453  0.3124
 1104SOL     OW 8122   2.127   1.650  10.183  0.4560 -0.2768  0.4233
 1104SOL    HW1 8123   2.162   1.592  10.117  2.1802  0.0155  1.0390
 1104SOL    HW2 8124   2.095   1.592  10.252 -1.3636 -0.5803 -0.6095
 1105SOL     OW 8125   2.380   5.644   1.225 -0.1090 -0.1151  0.0415
 1105SOL    HW1 8126   2.317   5.612   1.290  0.5909  0.5045  1.0454
 1105SOL    HW2 8127   2.437   5.703   1.274  1.3607 -0.7839 -0.8186
 1106SOL     OW 8128  11.500  12.117   5.463  0.2725  0.4642  0.1512
 1106SOL    HW1 8129  11.594  12.115   5.447  0.6658  3.3769  1.5557
 1106SOL    HW2 8130  11.462  12.136   5.377  0.9729 -0.1785 -0.3186
 1107SOL     OW 8131  11.035  11.695  10.270  0.3690 -0.2235 -0.0053
 1107SOL    HW1 8132  11.064  11.608  10.243 -1.0057 -0.2245 -1.6289
 1107SOL    HW2 8133  10.954  11.679  10.318  0.3193  0.1304  0.0282
 1108SOL     OW 8134   3.492   3.435   2.267  0.0656 -0.1904 -0.1356
 1108SOL    HW1 8135   3.401   3.457   2.286 -0.9791 -2.1532 -2.2158
 1108SOL    HW2 8136   3.504   3.348   2.306  0.6934 -0.3972 -0.7654
 1109SOL     OW 8137   5.595   0.272   2.445 -0.2892  0.0208  0.3239
 1109SOL    HW1 8138   5.536   0.218   2.497 -0.7288  0.5777  0.4135
 1109SOL    HW2 8139   5.609   0.222   2.365 -0.3609 -0.4118  0.5808
 1110SOL     OW 8140   5.972   6.532   0.282  0.2013  0.5383 -0.3380
 1110SOL    HW1 8141   5.962   6.451   0.233  2.6631  0.3309 -0.6043
 1110SOL    HW2 8142   5.950   6.509   0.372  0.5688 -0.3320 -0.4678
 1111SOL     OW 8143   3.188   0.567  12.506  0.2071  0.1181  0.3536
 1111SOL    HW1 8144   3.218   0.585  12.595  1.4561 -2.0525  0.4530
 1111SOL    HW2 8145   3.257   0.512  12.469 -1.3926 -0.9757 -1.1312
 1112SOL     OW 8146   6.374   7.528   1.038  0.5565  0.1332 -0.1098
 1112SOL    HW1 8147   6.334   7.477   0.968  0.7690  0.8074 -0.7260
 1112SOL    HW2 8148   6.339   7.616   1.027  0.3221  0.1768  0.8461
 1113SOL     OW 8149  11.908   0.044   0.023  0.2035  0.3180  0.7908
 1113SOL    HW1 8150  11.831   0.097   0.040 -0.3965  0.3672 -1.7130
 1113SOL    HW2 8151  11.970   0.104  -0.020  1.9148  0.4132  3.1665
 1114SOL     OW 8152   0.599  12.012  11.161  0.5127 -0.2422  0.5908
 1114SOL    HW1 8153   0.530  12.051  11.215  1.3519  0.8516  0.9177
 1114SOL    HW2 8154   0.636  11.943  11.216  1.0696  0.5763  1.2851
 1115SOL     OW 8155   5.296   8.254   4.810  0.1681 -0.7685 -0.6740
 1115SOL    HW1 8156   5.344   8.299   4.879 -0.2494  1.4882 -1.7501
 1115SOL    HW2 8157   5.289   8.164   4.840 -0.1133  0.1353  2.2745
 1116SOL     OW 8158   0.011  11.065   4.363  0.0485  0.3684 -0.0118
 1116SOL    HW1 8159   0.056  11.087   4.282  0.1913 -0.8239 -0.2842
 1116SOL    HW2 8160  -0.043  11.141   4.383  1.0207  1.2035 -0.4982
 1117SOL     OW 8161  10.524   8.345  10.946  0.5719 -0.7069 -0.2998
 1117SOL    HW1 8162  10.545   8.322  10.855 -1.0557  0.0247 -0.9052
 1117SOL    HW2 8163  10.429   8.341  10.950  0.5041  0.9671  0.8933
 1118SOL     OW 8164   9.758   3.979  12.368 -0.1668 -0.3946  0.2487
 1118SOL    HW1 8165   9.788   4.052  12.421 -0.5806  0.0515 -0.1232
 1118SOL    HW2 8166   9.831   3.917  12.368  0.4507  0.3312 -0.0202
 1119SOL     OW 8167   9.445   0.499   7.081  0.3678  0.2382 -0.5077
 1119SOL    HW1 8168   9.487   0.493   6.995  3.4437  0.8006  0.8358
 1119SOL    HW2 8169   9.449   0.591   7.104 -0.4980  0.1041  0.2544
 1120SOL     OW 8170   5.770   3.919  10.716  0.5492  0.3341 -0.0442
 1120SOL    HW1 8171   5.758   3.915  10.811  2.8417 -0.4535  0.2940
 1120SOL    HW2 8172   5.712   3.852  10.681  0.2839  0.0598  0.8989
 1121SOL     OW 8173   4.406  10.884   5.242  0.1134 -0.0267 -0.2669
 1121SOL    HW1 8174   4.347  10.876   5.317  1.4296 -3.1648  0.5884
 1121SOL    HW2 8175   4.478  10.938   5.274 -0.8637  1.4664 -0.4390
 1122SOL     OW 8176   8.943   4.636   2.931  0.4062  0.8138  0.0069
 1122SOL    HW1 8177   8.901   4.721   2.917  1.0301  1.3324  1.1800
 1122SOL    HW2 8178   8.907   4.605   3.015  0.8738  0.3414  0.0368
 1123SOL     OW 8179  11.345  10.569   0.540  0.0110  0.1252  0.0174
 1123SOL    HW1 8180  11.405  10.521   0.596  2.3542 -1.0487 -3.2003
 1123SOL    HW2 8181  11.349  10.524   0.455 -2.9627  1.9847 -1.2934
 1124SOL     OW 8182   6.250   6.738   4.569  0.1016  0.0812 -0.4106
 1124SOL    HW1 8183   6.215   6.827   4.557 -0.4814 -0.1896 -0.7633
 1124SOL    HW2 8184   6.344   6.748   4.557 -0.0866  0.4230 -1.8823
 1125SOL     OW 8185   9.710   6.538   7.238  0.2311 -0.4516  0.4033
 1125SOL    HW1 8186   9.692   6.446   7.219  0.1047 -0.5041  0.7772
 1125SOL    HW2 8187   9.624   6.580   7.233  0.2450 -0.4081  0.5284
 1126SOL     OW 8188   1.736   7.596   7.923 -0.1278  1.0793 -0.4307
 1126SOL    HW1 8189   1.799   7.553   7.865  0.1412 -1.3278  1.5226
 1126SOL    HW2 8190   1.761   7.688   7.921  2.3500  0.4649 -1.0747
 1127SOL     OW 8191  11.549   4.486   5.541  0.2029  0.0930  0.7077
 1127SOL    HW1 8192  11.562   4.416   5.605 -1.2308  0.0905  1.0327
 1127SOL    HW2 8193  11.473   4.534   5.574 -2.3372 -1.4713 -2.2865
 1128SOL     OW 8194   8.770   0.366   7.868  0.0153 -0.0021  0.1726
 1128SOL    HW1 8195   8.709   0.315   7.816  1.2515 -0.8681 -0.4884
 1128SOL    HW2 8196   8.756   0.337   7.958  0.4913 -1.3390 -0.1548
 1129SOL     OW 8197   2.939   1.656   6.043  0.2897  0.1393  0.0606
 1129SOL    HW1 8198   2.880   1.627   5.972 -0.0420  0.3200  0.2587
 1129SOL    HW2 8199   2.914   1.602   6.118 -1.8353  2.3535  1.0661
 1130SOL     OW 8200   9.254   6.325   7.317 -0.4299  0.0570  0.0576
 1130SOL    HW1 8201   9.228   6.408   7.278  2.5818  1.2161  0.2060
 1130SOL    HW2 8202   9.294   6.276   7.245  3.0203  1.2493  0.9286
 1131SOL     OW 8203   5.889  12.440   5.376  0.4859  0.0991  0.1304
 1131SOL    HW1 8204   5.984  12.442   5.365  0.4450  0.2253 -0.1862
 1131SOL    HW2 8205   5.869  12.518   5.428  0.5329  0.1671  0.0451
 1132SOL     OW 8206   9.653  10.509   5.163  0.6743  0.2730  0.1114
 1132SOL    HW1 8207   9.715  10.483   5.094  0.6610  0.1633  0.1391
 1132SOL    HW2 8208   9.644  10.430   5.217  0.3339  0.2148 -0.0263
 1133SOL     OW 8209   5.345   8.319  10.807 -1.1350  0.4036  0.4554
 1133SOL    HW1 8210   5.281   8.352  10.870 -2.3622  0.7144 -0.9043
 1133SOL    HW2 8211   5.305   8.335  10.722 -0.3127 -1.6157 -0.3654
 1134SOL     OW 8212  10.964   9.075   3.618 -0.2481  0.0156 -0.7265
 1134SOL    HW1 8213  10.942   9.164   3.589  2.2322  1.0513  0.2471
 1134SOL    HW2 8214  10.894   9.020   3.582 -2.1231  2.3859 -0.9856
 1135SOL     OW 8215  10.584   5.208   6.196 -0.1744 -0.7384 -0.1751
 1135SOL    HW1 8216  10.509   5.151   6.181 -0.0727 -0.4761 -1.9399
 1135SOL    HW2 8217  10.546   5.288   6.233 -0.4942 -1.3832  0.9160
 1136SOL     OW 8218   9.669  10.316  10.180  0.6286  0.2875  0.3987
 1136SOL    HW1 8219   9.689  10.270  10.262  0.3274 -0.2496  0.1767
 1136SOL    HW2 8220   9.737  10.384  10.174  2.1674 -1.2102 -0.1214
 1137SOL     OW 8221   1.885   6.436   2.438  0.1427  0.2051  0.8919
 1137SOL    HW1 8222   1.925   6.481   2.363  1.2093 -0.0108  1.3172
 1137SOL    HW2 8223   1.944   6.454   2.511 -0.5492 -0.1198  1.5473
 1138SOL     OW 8224   7.334  12.243  11.167 -0.1185 -0.1277 -0.3328
 1138SOL    HW1 8225   7.378  12.282  11.092 -1.4498  0.1701 -0.9854
 1138SOL    HW2 8226   7.386  12.271  11.242 -0.2939  1.8737 -0.8958
 1139SOL     OW 8227  10.828   4.239   2.719  0.2436  0.1443  0.1458
 1139SOL    HW1 8228  10.851   4.246   2.812 -1.3331  0.6889  0.5397
 1139SOL    HW2 8229  10.800   4.328   2.695 -0.0035 -0.1453 -0.6589
 1140SOL     OW 8230   1.273   7.819   0.276 -0.0146 -0.4037  0.0343
 1140SOL    HW1 8231   1.340   7.840   0.341 -0.9323  1.2489  0.4988
 1140SOL    HW2 8232   1.200   7.785   0.328 -0.0261 -0.9569 -0.3384
 1141SOL     OW 8233   0.375   5.850   8.692 -0.0716 -0.2112 -0.3815
 1141SOL    HW1 8234   0.346   5.790   8.760 -0.5136  1.2132  0.7433
 1141SOL    HW2 8235   0.447   5.804   8.648 -1.5195 -2.2611 -0.7599
 1142SOL     OW 8236   7.329   9.803   7.790 -0.3906  0.2087 -0.5676
 1142SOL    HW1 8237   7.374   9.808   7.705  1.1242  1.2804  0.2589
 1142SOL    HW2 8238   7.393   9.762   7.848 -1.4892 -0.6942  0.0525
 1143SOL     OW 8239   7.188   7.258  10.001 -0.1277 -0.4434 -0.8155
 1143SOL    HW1 8240   7.258   7.316   9.970 -1.0083  0.6719 -0.8305
 1143SOL    HW2 8241   7.161   7.209   9.923  2.0578 -2.5279 -0.3716
 1144SOL     OW 8242   3.118  12.054  11.927 -0.5319  0.4238  0.3593
 1144SOL    HW1 8243   3.106  11.992  11.856  1.9790  1.3350 -1.0105
 1144SOL    HW2 8244   3.110  12.140  11.886 -0.8737  0.9946  1.5723
 1145SOL     OW 8245   4.792   1.746  10.986  0.1235  0.8325  0.4011
 1145SOL    HW1 8246   4.751   1.780  10.906  0.0673  0.9833  0.4933
 1145SOL    HW2 8247   4.726   1.758  11.054 -1.5465 -3.1737 -0.2719
 1146SOL     OW 8248   9.713   0.974   5.996  0.1659  0.2307 -0.3503
 1146SOL    HW1 8249   9.719   0.895   5.943 -0.4599  0.6759 -1.1299
 1146SOL    HW2 8250   9.624   0.971   6.033  0.7799 -0.3463  1.1511
 1147SOL     OW 8251   4.007   6.066   4.171  0.4923 -0.5763  0.3832
 1147SOL    HW1 8252   4.092   6.053   4.129  0.7769  2.2926 -0.1483
 1147SOL    HW2 8253   4.008   6.009   4.247  1.9373 -2.3087 -0.8561
 1148SOL     OW 8254   4.184   8.397   3.541  0.1614 -0.1401 -0.1813
 1148SOL    HW1 8255   4.173   8.362   3.453  0.7677  0.6569 -0.5784
 1148SOL    HW2 8256   4.250   8.466   3.532  2.1045 -1.6771  1.2900
 1149SOL     OW 8257   2.925   8.167  12.194 -0.0092  0.4947  0.1309
 1149SOL    HW1 8258   2.894   8.254  12.170 -1.2329 -0.5351 -2.3362
 1149SOL    HW2 8259   3.006   8.155  12.144 -0.3086 -0.0751 -0.2403
 1150SOL     OW 8260   3.691  11.393   9.304  0.1694 -0.2661  0.2886
 1150SOL    HW1 8261   3.608  11.395   9.255 -0.3809  1.0934  1.2023
 1150SOL    HW2 8262   3.664  11.379   9.395  0.9918 -0.4798  0.5045
 1151SOL     OW 8263  12.335   3.606  10.489 -0.3996  0.2690 -0.1725
 1151SOL    HW1 8264  12.370   3.596  10.578  0.2106 -1.6632 -0.5709
 1151SOL    HW2 8265  12.399   3.662  10.445  0.5885 -0.7134 -0.0326
 1152SOL     OW 8266   1.702   8.401   2.482 -0.3616 -0.4419 -0.3630
 1152SOL    HW1 8267   1.746   8.454   2.549 -0.6319 -0.7526  0.0607
 1152SOL    HW2 8268   1.704   8.457   2.404 -0.5026  0.1329  0.0330
 1153SOL     OW 8269  10.138  12.500  10.654  0.3876 -0.1657 -0.6806
 1153SOL    HW1 8270  10.129  12.515  10.749  1.7091 -2.5470 -0.1026
 1153SOL    HW2 8271  10.219  12.545  10.631  0.4291 -0.1554 -0.5193
 1154SOL     OW 8272   4.700   2.201   0.426 -0.0433 -0.2250 -0.5204
 1154SOL    HW1 8273   4.713   2.178   0.518  1.6285 -0.0343 -0.6789
 1154SOL    HW2 8274   4.638   2.136   0.394 -0.1106 -0.7250  0.5718
 1155SOL     OW 8275   8.270   6.198   9.677 -0.2485 -0.0684 -0.4794
 1155SOL    HW1 8276   8.360   6.220   9.655 -0.1569 -1.2789 -1.4865
 1155SOL    HW2 8277   8.224   6.282   9.680  1.2929  0.7945  2.1529
 1156SOL     OW 8278   7.550   0.635  12.625 -0.3294  0.1052 -0.4358
 1156SOL    HW1 8279   7.611   0.586  12.681 -0.3499  0.0615 -0.4516
 1156SOL    HW2 8280   7.490   0.568  12.591 -1.7645  0.4235  1.3219
 1157SOL     OW 8281   1.920   5.967  11.241  0.0846 -0.5526 -0.1920
 1157SOL    HW1 8282   1.839   5.951  11.290  0.9640 -0.8830  1.2272
 1157SOL    HW2 8283   1.893   6.020  11.166 -1.5251 -1.1395 -0.0571
 1158SOL     OW 8284   9.535   9.701  11.800  0.3278  0.3282 -0.5947
 1158SOL    HW1 8285   9.496   9.771  11.853 -0.7492 -0.5717 -0.1461
 1158SOL    HW2 8286   9.601   9.662  11.858 -0.2739 -0.1238 -0.2041
 1159SOL     OW 8287   2.205   8.101  10.356  0.2778 -0.4671 -0.4865
 1159SOL    HW1 8288   2.173   8.157  10.427  0.5876  0.8824 -1.3812
 1159SOL    HW2 8289   2.299   8.092  10.372  0.2021 -0.8749 -0.2561
 1160SOL     OW 8290  10.241  11.353   3.002 -0.1914  0.0068 -0.2677
 1160SOL    HW1 8291  10.275  11.434   2.964 -1.6065  0.6615 -0.1968
 1160SOL    HW2 8292  10.316  11.294   3.004  0.5263  0.8287 -1.6706
 1161SOL     OW 8293  10.365  10.514   2.987 -0.4190 -0.4525  0.6549
 1161SOL    HW1 8294  10.406  10.458   2.921 -0.7932 -0.4832  0.4434
 1161SOL    HW2 8295  10.428  10.518   3.058 -0.2000 -0.7796  0.4797
 1162SOL     OW 8296   5.214   7.152   9.472  0.0764 -0.1509  0.0575
 1162SOL    HW1 8297   5.238   7.059   9.469  1.5283  0.2119 -0.5117
 1162SOL    HW2 8298   5.298   7.198   9.479 -0.4771  1.1858 -1.4051
 1163SOL     OW 8299   3.043   4.059   4.841 -0.1969 -0.5758 -0.1487
 1163SOL    HW1 8300   3.135   4.037   4.854  0.0119  0.3520  0.0426
 1163SOL    HW2 8301   3.021   4.115   4.916 -1.3435 -1.9817  0.6284
 1164SOL     OW 8302   6.541   2.447  11.862  0.0047  0.2430  0.0162
 1164SOL    HW1 8303   6.539   2.353  11.875 -3.6995  0.1903  0.0766
 1164SOL    HW2 8304   6.528   2.484  11.949 -2.3219  0.5962 -0.4077
 1165SOL     OW 8305   9.899   9.897   5.669 -0.6012  0.1672 -0.7567
 1165SOL    HW1 8306   9.900   9.946   5.587  0.1368 -0.3687 -1.0718
 1165SOL    HW2 8307   9.890   9.806   5.643 -0.4744  0.0016 -0.2337
 1166SOL     OW 8308   9.946   5.936   4.823 -0.2884  0.2070 -0.4303
 1166SOL    HW1 8309   9.987   6.004   4.769  1.4240  1.7972  2.6160
 1166SOL    HW2 8310   9.858   5.926   4.786 -0.0744  2.9580 -1.9459
 1167SOL     OW 8311  10.511   6.982   7.756 -0.1661  0.4297  0.7281
 1167SOL    HW1 8312  10.548   6.913   7.811 -3.1556 -2.2543 -0.3330
 1167SOL    HW2 8313  10.454   7.031   7.815  0.7351  1.0332  1.1261
 1168SOL     OW 8314   5.423  10.217   5.166  0.2988 -0.3665  0.2230
 1168SOL    HW1 8315   5.447  10.274   5.092  0.9225  1.5475  1.7970
 1168SOL    HW2 8316   5.354  10.265   5.211  1.7650 -0.1016  2.3727
 1169SOL     OW 8317   5.847  10.862   2.513 -0.0514  0.4476 -0.4079
 1169SOL    HW1 8318   5.895  10.780   2.499  0.0817  0.1104  1.6840
 1169SOL    HW2 8319   5.767  10.836   2.559  0.6882  1.5663  1.6614
 1170SOL     OW 8320   2.559  10.167   7.263 -0.4555  0.4482 -0.7636
 1170SOL    HW1 8321   2.596  10.080   7.275 -0.2352  0.5978 -0.3663
 1170SOL    HW2 8322   2.562  10.181   7.168  1.8300  1.0306 -0.6556
 1171SOL     OW 8323  11.860  11.359   1.263 -0.0211 -0.1458  0.1500
 1171SOL    HW1 8324  11.831  11.450   1.258  1.2330  0.2503 -0.2224
 1171SOL    HW2 8325  11.873  11.343   1.356  0.0326  0.1420  0.1929
 1172SOL     OW 8326   4.795   0.191  11.686 -0.3578 -0.1073 -0.8026
 1172SOL    HW1 8327   4.890   0.200  11.694 -0.3278 -0.1253 -1.1086
 1172SOL    HW2 8328   4.781   0.170  11.593 -0.5621 -1.2526 -0.5379
 1173SOL     OW 8329   8.852   1.192  10.074 -0.4687  0.0591  0.7240
 1173SOL    HW1 8330   8.776   1.136  10.058 -0.8217  0.6263  0.4087
 1173SOL    HW2 8331   8.876   1.225   9.988  1.4027 -1.7131  0.4721
 1174SOL     OW 8332   8.043   0.018   9.906  0.4628 -0.2024 -0.6191
 1174SOL    HW1 8333   8.063  -0.075   9.915  1.5772  0.1236  0.6130
 1174SOL    HW2 8334   8.122   0.063   9.937 -0.1508  1.1537 -0.9440
 1175SOL     OW 8335   2.416   7.277   9.332 -0.2256  0.3864  0.2742
 1175SOL    HW1 8336   2.321   7.282   9.338 -0.2746  0.8467 -0.6961
 1175SOL    HW2 8337   2.441   7.354   9.281  0.6776  0.3077  0.5806
 1176SOL     OW 8338   6.548   2.946   5.304  0.6093 -0.3525  0.1897
 1176SOL    HW1 8339   6.487   2.878   5.333  1.3866 -1.1152  0.0535
 1176SOL    HW2 8340   6.491   3.019   5.278 -0.2859 -1.2511 -0.4701
 1177SOL     OW 8341   3.618   0.900   5.403  0.3432  0.2346 -0.3093
 1177SOL    HW1 8342   3.624   0.977   5.459  1.4832 -0.2940  0.3286
 1177SOL    HW2 8343   3.650   0.931   5.317 -0.7278  0.8584 -0.5029
 1178SOL     OW 8344   5.077  11.479   0.767 -0.3695  0.5434  0.0975
 1178SOL    HW1 8345   5.116  11.560   0.735 -0.5083  0.1892 -0.9815
 1178SOL    HW2 8346   5.127  11.458   0.846  0.6361  0.8929 -0.4269
 1179SOL     OW 8347   6.203   1.808   7.099 -0.2210 -0.1053 -0.7969
 1179SOL    HW1 8348   6.144   1.811   7.023  0.4182 -0.4618 -1.3127
 1179SOL    HW2 8349   6.187   1.722   7.138  0.4314 -0.4791 -1.3310
 1180SOL     OW 8350   1.505   8.714   4.180  0.1639 -0.1297 -0.5490
 1180SOL    HW1 8351   1.491   8.635   4.232 -0.1585  1.6445  2.2761
 1180SOL    HW2 8352   1.442   8.707   4.108 -0.3259 -2.0773  0.0032
 1181SOL     OW 8353  12.126  12.613   7.083  0.3096 -0.3646 -0.4079
 1181SOL    HW1 8354  12.206  12.584   7.125 -0.0716 -0.0597  0.5598
 1181SOL    HW2 8355  12.141  12.706   7.066  0.4537 -0.4822 -0.9356
 1182SOL     OW 8356   8.760   0.484   0.733  0.5166  0.2602 -0.0715
 1182SOL    HW1 8357   8.792   0.565   0.693  0.0981  0.9444  0.9502
 1182SOL    HW2 8358   8.796   0.414   0.677  0.8143  1.1404 -1.0134
 1183SOL     OW 8359   3.660   2.678  11.984  0.3179 -0.4191 -0.1391
 1183SOL    HW1 8360   3.696   2.740  12.047  0.3984 -1.5494  0.9714
 1183SOL    HW2 8361   3.683   2.592  12.020 -0.0472 -1.0940 -1.4808
 1184SOL     OW 8362  10.351   4.392  11.192 -0.1176 -0.5587 -0.2508
 1184SOL    HW1 8363  10.353   4.306  11.152  0.2780 -0.4911 -0.3763
 1184SOL    HW2 8364  10.442   4.420  11.195 -0.1754 -0.4142  0.3711
 1185SOL     OW 8365  11.129   2.881   4.156 -0.1900  0.0237 -0.8209
 1185SOL    HW1 8366  11.109   2.835   4.237 -0.2271 -0.9488 -1.3639
 1185SOL    HW2 8367  11.065   2.951   4.151 -0.9321 -0.6275 -0.5851
 1186SOL     OW 8368  10.225   2.142   7.072  0.0141 -0.0611  0.2112
 1186SOL    HW1 8369  10.272   2.224   7.063  0.3433 -0.3116 -0.4285
 1186SOL    HW2 8370  10.134   2.168   7.086 -0.2699  0.4407 -2.1126
 1187SOL     OW 8371  12.630   3.957   3.471  0.1248  0.3913 -0.1377
 1187SOL    HW1 8372  12.719   3.922   3.471  0.4527  1.1950  0.6055
 1187SOL    HW2 8373  12.599   3.944   3.381  0.3086 -1.5632  0.0291
 1188SOL     OW 8374   8.699   8.302   3.085 -0.5615 -0.4088 -0.2632
 1188SOL    HW1 8375   8.650   8.354   3.150 -1.1621 -0.1854 -0.8814
 1188SOL    HW2 8376   8.791   8.325   3.101 -0.7423  0.0904  0.1254
 1189SOL     OW 8377   6.836  11.553   6.503 -0.4375  0.0003 -0.1781
 1189SOL    HW1 8378   6.866  11.483   6.445  0.9078  0.3638  0.0408
 1189SOL    HW2 8379   6.744  11.566   6.480 -0.0583 -0.1669 -1.9382
 1190SOL     OW 8380   6.141   5.644  12.336  0.2541 -0.7477 -0.0556
 1190SOL    HW1 8381   6.105   5.559  12.311 -0.2512 -0.5686  0.0477
 1190SOL    HW2 8382   6.067   5.691  12.374  0.8629 -0.8011  1.2468
 1191SOL     OW 8383  10.772  11.391   9.686 -0.0261  0.2964 -0.1032
 1191SOL    HW1 8384  10.762  11.463   9.749 -1.6319  0.0290 -0.0164
 1191SOL    HW2 8385  10.814  11.431   9.610  2.6367  0.4843  1.3429
 1192SOL     OW 8386  10.745   1.360  11.662 -0.4007  0.5485 -0.1703
 1192SOL    HW1 8387  10.711   1.271  11.655  2.4035 -0.6370 -0.1469
 1192SOL    HW2 8388  10.729   1.385  11.753  0.3109 -0.6442  0.3053
 1193SOL     OW 8389   1.749  11.301   8.714 -0.3261 -0.8824 -0.4372
 1193SOL    HW1 8390   1.792  11.359   8.777  0.5288 -1.6428 -0.3058
 1193SOL    HW2 8391   1.789  11.323   8.630 -1.3555  0.0221 -0.7156
 1194SOL     OW 8392   6.529   6.911  11.707 -0.5580  0.0204 -0.0298
 1194SOL    HW1 8393   6.528   6.819  11.680 -0.8057  0.0080  0.0207
 1194SOL    HW2 8394   6.524   6.960  11.625  0.6100  0.0023 -0.1307
 1195SOL     OW 8395   8.790   1.085   4.073  0.1579 -0.9112 -0.0829
 1195SOL    HW1 8396   8.776   1.001   4.029  3.5561 -1.7018  0.0341
 1195SOL    HW2 8397   8.783   1.064   4.166  0.6524 -1.0090 -0.0644
 1196SOL     OW 8398   1.399   1.772   0.062  0.2585 -0.4541 -0.2711
 1196SOL    HW1 8399   1.454   1.718   0.005  0.3066 -0.8756  0.1651
 1196SOL    HW2 8400   1.455   1.792   0.137  0.4200  0.6576 -0.6710
 1197SOL     OW 8401   8.277   7.899  12.535  0.6562  0.3771 -0.3430
 1197SOL    HW1 8402   8.217   7.827  12.557  1.6552 -0.3761  0.0086
 1197SOL    HW2 8403   8.233   7.947  12.465 -0.3065 -0.2191 -0.1607
 1198SOL     OW 8404  12.577   2.212   0.464 -0.0342 -0.5253 -0.4295
 1198SOL    HW1 8405  12.553   2.304   0.452 -0.7724 -0.7446 -0.6524
 1198SOL    HW2 8406  12.530   2.166   0.395 -1.5493 -1.3828  1.1045
 1199SOL     OW 8407  12.232  10.984  11.125  0.1849 -0.5772 -0.0697
 1199SOL    HW1 8408  12.312  11.036  11.115  1.9737 -3.0862  0.4538
 1199SOL    HW2 8409  12.254  10.916  11.188 -2.8218 -0.6061  1.1420
 1200SOL     OW 8410   1.242   7.435  10.946 -0.4336  0.5507  0.4558
 1200SOL    HW1 8411   1.270   7.351  10.982  2.0902  1.2224  0.3100
 1200SOL    HW2 8412   1.158   7.417  10.904 -0.4724 -1.6372  1.3317
 1201SOL     OW 8413   4.392   4.051   4.606  0.2832  0.1542  0.1610
 1201SOL    HW1 8414   4.370   4.083   4.519 -0.1926  0.3437  0.3465
 1201SOL    HW2 8415   4.325   3.985   4.625 -0.3615  0.9989  0.8812
 1202SOL     OW 8416   5.595   0.488  10.380  0.4321 -0.3346  0.1125
 1202SOL    HW1 8417   5.580   0.553  10.311 -2.4745 -0.0101  0.9114
 1202SOL    HW2 8418   5.658   0.427  10.342  3.1540  2.7290 -0.7706
 1203SOL     OW 8419   6.392   7.399   4.855 -0.4358  0.0402  0.0346
 1203SOL    HW1 8420   6.389   7.454   4.934 -2.0401  0.3370 -0.1940
 1203SOL    HW2 8421   6.484   7.375   4.846  0.3072  2.5315  0.2466
 1204SOL     OW 8422  11.415   1.379   7.548 -0.3358  0.5438  0.2753
 1204SOL    HW1 8423  11.481   1.334   7.601  1.0288 -2.8811 -3.7762
 1204SOL    HW2 8424  11.464   1.443   7.497 -0.5172 -0.3287 -1.0282
 1205SOL     OW 8425   0.632   3.759  10.350  0.4310  0.0780  0.0772
 1205SOL    HW1 8426   0.657   3.723  10.435 -0.8004  1.0185  0.8604
 1205SOL    HW2 8427   0.675   3.701  10.286  0.0216 -1.6439  1.2929
 1206SOL     OW 8428  12.432  12.564  11.446 -0.2900 -0.0837  0.5099
 1206SOL    HW1 8429  12.394  12.613  11.373 -0.6232 -1.7571 -0.5015
 1206SOL    HW2 8430  12.508  12.615  11.472 -0.5431  0.8937 -0.5638
 1207SOL     OW 8431  10.703   8.080   7.801 -0.0264  0.1604  0.2468
 1207SOL    HW1 8432  10.759   8.155   7.780 -1.0738  0.3645 -2.2340
 1207SOL    HW2 8433  10.614   8.115   7.795 -0.4861 -0.7335  1.5689
 1208SOL     OW 8434  10.735   8.456   8.617 -0.2393  0.9408  0.4065
 1208SOL    HW1 8435  10.657   8.421   8.659 -0.7921  3.0897  1.2629
 1208SOL    HW2 8436  10.705   8.533   8.569  1.1606  1.1224 -0.2478
 1209SOL     OW 8437   4.632  10.502   7.328  0.3247 -0.0277 -0.3432
 1209SOL    HW1 8438   4.625  10.597   7.332 -2.0242 -0.0225 -2.2417
 1209SOL    HW2 8439   4.632  10.481   7.234 -1.8185 -1.9696 -0.0178
 1210SOL     OW 8440   6.056   5.125   5.763 -0.1738 -0.1618  0.2128
 1210SOL    HW1 8441   6.059   5.217   5.737  0.4193 -0.0682  0.5812
 1210SOL    HW2 8442   6.006   5.082   5.694  2.0867 -0.0776 -1.6278
 1211SOL     OW 8443  11.941   4.673   9.160 -0.2114 -0.5391 -0.2989
 1211SOL    HW1 8444  11.928   4.662   9.254 -1.0355 -0.5140 -0.4045
 1211SOL    HW2 8445  11.892   4.752   9.138 -0.4884 -0.8582 -0.8463
 1212SOL     OW 8446  11.727   3.845   6.544  0.8843 -0.0094 -0.1314
 1212SOL    HW1 8447  11.776   3.819   6.621 -0.7004  1.6512  1.5424
 1212SOL    HW2 8448  11.641   3.805   6.555  0.7520 -0.0944 -1.2733
 1213SOL     OW 8449   6.100   1.508  10.587 -0.2702  0.0204 -0.4008
 1213SOL    HW1 8450   6.047   1.581  10.555 -0.8523 -0.3832 -0.3634
 1213SOL    HW2 8451   6.056   1.480  10.667 -1.0508 -1.4815 -1.3089
 1214SOL     OW 8452   0.363   5.691  11.194 -0.1034 -0.5832 -0.5084
 1214SOL    HW1 8453   0.376   5.758  11.261  1.0422  0.1153 -1.3915
 1214SOL    HW2 8454   0.346   5.739  11.114  0.2632 -1.3548 -1.0681
 1215SOL     OW 8455   7.831   9.933   1.792 -0.4831 -0.3464  0.4850
 1215SOL    HW1 8456   7.784   9.935   1.875 -1.1320 -1.1383  0.1421
 1215SOL    HW2 8457   7.865  10.022   1.782 -1.8229  0.2170  0.7863
 1216SOL     OW 8458   2.384   4.440  12.307  0.0770 -0.0902  0.2234
 1216SOL    HW1 8459   2.342   4.476  12.229 -0.8179  0.5488  0.9688
 1216SOL    HW2 8460   2.358   4.347  12.307  0.4476 -0.2046 -0.4528
 1217SOL     OW 8461   8.749   3.718   1.992  0.7491  0.1346 -0.3926
 1217SOL    HW1 8462   8.844   3.727   1.987  0.7977 -0.3414 -0.3411
 1217SOL    HW2 8463   8.724   3.766   2.071  1.0325 -0.3832  0.0129
 1218SOL     OW 8464  11.987  11.027  11.647 -0.2363 -0.1005  0.1202
 1218SOL    HW1 8465  11.897  11.026  11.617 -0.0166 -0.6848 -0.5378
 1218SOL    HW2 8466  11.980  11.012  11.742 -0.8535  0.4702  0.1746
 1219SOL     OW 8467  10.518   8.921   2.651  0.0336  0.4304 -0.3214
 1219SOL    HW1 8468  10.429   8.885   2.651  0.9409 -2.0483  1.1458
 1219SOL    HW2 8469  10.552   8.900   2.564 -0.0620 -0.8000 -0.0846
 1220SOL     OW 8470  10.294   2.524   1.695 -0.5811  0.4921  0.4761
 1220SOL    HW1 8471  10.349   2.536   1.773 -0.7002  0.1286  0.6161
 1220SOL    HW2 8472  10.244   2.606   1.688 -0.6361  0.4897  0.8323
 1221SOL     OW 8473   4.248   1.939   4.789 -0.2822 -0.7320  0.0889
 1221SOL    HW1 8474   4.188   1.868   4.766 -0.5059 -1.0337  1.4940
 1221SOL    HW2 8475   4.307   1.900   4.854  1.2398 -0.3445 -1.0328
 1222SOL     OW 8476   5.008   9.390  11.577 -0.3986  0.2082 -0.4649
 1222SOL    HW1 8477   5.014   9.485  11.582  0.9094  0.0943  0.3815
 1222SOL    HW2 8478   5.098   9.359  11.588 -0.9872 -1.1846  0.7278
 1223SOL     OW 8479   1.336   1.986  11.906 -0.6732  0.3638 -0.4684
 1223SOL    HW1 8480   1.323   1.914  11.844 -0.4886  0.7654 -0.9793
 1223SOL    HW2 8481   1.410   2.035  11.871 -1.3192  1.2919 -0.5926
 1224SOL     OW 8482   1.606   3.338   6.103  0.3100  0.4876  0.7633
 1224SOL    HW1 8483   1.596   3.418   6.052 -1.4353 -0.2042 -0.0853
 1224SOL    HW2 8484   1.637   3.273   6.039 -0.0039  0.0723  1.0267
 1225SOL     OW 8485   1.026   9.590   2.002 -0.1027 -0.0638  0.5267
 1225SOL    HW1 8486   1.027   9.641   1.921 -3.5293  1.4930  1.3089
 1225SOL    HW2 8487   1.024   9.499   1.973  0.6473  0.3892 -1.0435
 1226SOL     OW 8488   7.767   4.352   6.176  0.2117 -0.1922  0.1583
 1226SOL    HW1 8489   7.707   4.319   6.109 -1.1172  1.7440  0.3170
 1226SOL    HW2 8490   7.722   4.333   6.259 -0.1545  1.1458  0.2841
 1227SOL     OW 8491   7.420   1.093   7.310  0.3978 -0.6754  0.3304
 1227SOL    HW1 8492   7.513   1.076   7.325  0.8012 -0.0885 -1.3128
 1227SOL    HW2 8493   7.415   1.125   7.220 -1.2601  0.3981  0.7409
 1228SOL     OW 8494   4.182   1.299   0.784  0.5559  0.7862  0.5946
 1228SOL    HW1 8495   4.257   1.327   0.731 -1.6232  2.0798 -2.1089
 1228SOL    HW2 8496   4.131   1.244   0.725 -0.9231  0.4539  2.1182
 1229SOL     OW 8497   9.110   8.540   3.774 -0.0828 -0.1707 -0.4490
 1229SOL    HW1 8498   9.041   8.533   3.708  0.4204  1.4157 -1.1976
 1229SOL    HW2 8499   9.084   8.478   3.842 -1.8897 -0.1096 -1.0222
 1230SOL     OW 8500   3.229  10.550   9.850  0.3267  1.0714 -0.0946
 1230SOL    HW1 8501   3.315  10.517   9.876 -0.0779  1.0502  1.2898
 1230SOL    HW2 8502   3.218  10.519   9.760  1.6628  0.8864 -0.2219
 1231SOL     OW 8503   2.737   1.562   3.406 -0.1595  0.4269  0.5487
 1231SOL    HW1 8504   2.707   1.629   3.468 -2.1423 -0.3948  0.5372
 1231SOL    HW2 8505   2.746   1.483   3.459  0.6708  0.3114  0.2542
 1232SOL     OW 8506  10.315   0.512   9.547 -0.2329 -0.1590 -0.4275
 1232SOL    HW1 8507  10.347   0.435   9.593 -1.1639  0.2496  0.9674
 1232SOL    HW2 8508  10.395   0.559   9.521  0.3162 -0.5337  0.5512
 1233SOL     OW 8509   0.832   9.418   5.930 -0.4323 -0.3505 -0.1617
 1233SOL    HW1 8510   0.808   9.465   6.010 -1.1886 -0.3047 -0.4043
 1233SOL    HW2 8511   0.919   9.382   5.948 -0.6761 -0.5056  0.7526
 1234SOL     OW 8512   7.557   7.374   3.462  0.6378  0.6792 -0.0691
 1234SOL    HW1 8513   7.538   7.432   3.388  0.7838  0.5965 -0.1712
 1234SOL    HW2 8514   7.488   7.393   3.525 -0.2159 -0.1438 -0.7348
 1235SOL     OW 8515   3.107  11.402   8.233  0.1379  0.0305 -0.1528
 1235SOL    HW1 8516   3.081  11.324   8.183 -1.5327 -0.2746  1.1384
 1235SOL    HW2 8517   3.154  11.456   8.169  0.0426 -1.3560 -1.4592
 1236SOL     OW 8518   9.425   6.282   5.893 -0.6388 -0.0181 -0.6144
 1236SOL    HW1 8519   9.509   6.328   5.895 -0.7544  0.1769  0.4808
 1236SOL    HW2 8520   9.425   6.236   5.809  0.6564 -0.1940 -0.5403
 1237SOL     OW 8521  11.267  10.195  11.769  0.6569  0.3430 -0.2518
 1237SOL    HW1 8522  11.312  10.116  11.798 -0.6486 -0.2031  0.3694
 1237SOL    HW2 8523  11.321  10.267  11.800  0.7728 -0.2863  1.0461
 1238SOL     OW 8524   7.336   6.851   8.822  0.3076 -0.3136  0.0617
 1238SOL    HW1 8525   7.320   6.772   8.873  0.3121 -0.8591 -0.7724
 1238SOL    HW2 8526   7.425   6.840   8.788  1.6902  1.6009  2.6910
 1239SOL     OW 8527   9.181   3.069   3.689  0.2698  0.0578 -0.1268
 1239SOL    HW1 8528   9.200   3.069   3.595 -2.0284  0.9117 -0.6640
 1239SOL    HW2 8529   9.232   2.995   3.724  1.6115  0.0624 -1.9154
 1240SOL     OW 8530   1.595   0.269   8.368 -1.4010  0.0569 -0.1890
 1240SOL    HW1 8531   1.638   0.322   8.434 -0.8401 -0.1871 -0.3539
 1240SOL    HW2 8532   1.553   0.332   8.310 -1.6516  0.2810  0.2318
 1241SOL     OW 8533   2.374   8.023   7.403  0.3636 -0.2613 -0.0520
 1241SOL    HW1 8534   2.328   8.104   7.384 -0.3926 -0.9986 -1.6560
 1241SOL    HW2 8535   2.420   8.002   7.321  3.3132  0.2268  1.3330
 1242SOL     OW 8536   7.919   2.958   0.453 -0.0157  0.0867 -0.4696
 1242SOL    HW1 8537   7.964   3.031   0.411  1.1638 -0.1065  0.3976
 1242SOL    HW2 8538   7.979   2.884   0.443 -1.3668 -0.8848 -1.6919
 1243SOL     OW 8539   5.221   1.632   4.099  1.3735 -0.1726  0.3385
 1243SOL    HW1 8540   5.164   1.695   4.143  0.0231 -1.8421  1.0837
 1243SOL    HW2 8541   5.306   1.643   4.142  1.4174  1.6905 -0.1333
 1244SOL     OW 8542   4.274  11.310   2.558 -0.1830  0.0969 -0.8367
 1244SOL    HW1 8543   4.305  11.253   2.487  0.3444 -0.1548 -0.4093
 1244SOL    HW2 8544   4.350  11.324   2.613 -0.7235 -0.1624 -0.0086
 1245SOL     OW 8545   5.345   4.929   4.674  0.3814 -0.2252  0.2738
 1245SOL    HW1 8546   5.388   4.943   4.758  1.2062 -0.5790 -0.0790
 1245SOL    HW2 8547   5.277   4.864   4.691 -0.6246  0.9871  1.0239
 1246SOL     OW 8548  12.330  10.740   1.140  0.0983 -0.0593  0.1426
 1246SOL    HW1 8549  12.336  10.834   1.123  0.3227  0.3348  2.1442
 1246SOL    HW2 8550  12.237  10.721   1.133 -0.3404  0.9345  2.4245
 1247SOL     OW 8551   6.215   2.127   5.133 -0.4752  0.4141  0.5270
 1247SOL    HW1 8552   6.294   2.084   5.102 -0.5893  1.0315 -0.6810
 1247SOL    HW2 8553   6.246   2.206   5.178 -0.3543  0.0645  1.0572
 1248SOL     OW 8554   0.992   6.324   4.560  0.2216  0.4805 -0.1633
 1248SOL    HW1 8555   0.935   6.262   4.514 -1.3776  1.5325  0.3412
 1248SOL    HW2 8556   1.031   6.273   4.630  0.4112 -0.4127 -0.8966
 1249SOL     OW 8557   9.825   0.219  10.085 -0.4831  0.0391 -0.4232
 1249SOL    HW1 8558   9.858   0.213  10.175  1.3870 -0.0211 -1.0729
 1249SOL    HW2 8559   9.901   0.245  10.033 -1.2134 -1.1429 -2.1719
 1250SOL     OW 8560  10.111   1.067  10.779 -0.0490 -0.1793 -0.0191
 1250SOL    HW1 8561  10.057   1.142  10.753  0.5158 -0.4054 -1.9411
 1250SOL    HW2 8562  10.104   1.006  10.707  1.2304 -1.0649  0.5705
 1251SOL     OW 8563   5.200   6.022   7.039  0.1479  0.0054 -0.1333
 1251SOL    HW1 8564   5.255   6.090   7.078 -0.5527 -0.0206  0.9676
 1251SOL    HW2 8565   5.110   6.050   7.059 -0.1984 -0.5017 -0.9357
 1252SOL     OW 8566   3.608   5.700   1.504  0.0008 -0.1206  0.5375
 1252SOL    HW1 8567   3.621   5.663   1.417 -3.0182 -0.8760  0.2880
 1252SOL    HW2 8568   3.623   5.627   1.564 -0.2639 -0.2318  0.4689
 1253SOL     OW 8569   6.144   4.760   0.470 -0.8577 -0.2021  0.0802
 1253SOL    HW1 8570   6.122   4.809   0.390  1.5136 -1.5424 -1.5368
 1253SOL    HW2 8571   6.133   4.823   0.541 -2.5354  1.2139 -1.3379
 1254SOL     OW 8572  10.490   3.186   5.294 -0.0763 -0.1269 -0.4323
 1254SOL    HW1 8573  10.572   3.136   5.302  1.1206  1.7287 -0.2883
 1254SOL    HW2 8574  10.426   3.134   5.342  1.5621 -0.5630  1.4618
 1255SOL     OW 8575   8.099  10.328   6.719  0.5650 -0.1460 -0.2984
 1255SOL    HW1 8576   8.089  10.281   6.802 -2.2871 -0.6600 -0.8256
 1255SOL    HW2 8577   8.069  10.417   6.739  2.7347  0.6140 -0.1317
 1256SOL     OW 8578   1.870  12.302   6.006 -0.1771 -0.4906 -0.1950
 1256SOL    HW1 8579   1.860  12.207   6.018  3.4892 -0.9728  0.2243
 1256SOL    HW2 8580   1.893  12.334   6.093  0.6544  0.4454 -0.7573
 1257SOL     OW 8581   1.661   4.714   6.255  0.2073  0.1789  0.4768
 1257SOL    HW1 8582   1.644   4.696   6.347 -0.7088  1.0375  0.4874
 1257SOL    HW2 8583   1.756   4.727   6.250  0.4219 -1.0425  1.0728
 1258SOL     OW 8584  12.449   7.026   2.241 -0.2830 -0.7068 -0.7462
 1258SOL    HW1 8585  12.518   6.969   2.276  0.2605 -0.2793 -1.0896
 1258SOL    HW2 8586  12.375   6.967   2.224  0.3006 -1.3305 -1.1858
 1259SOL     OW 8587   2.863   5.968   1.302  0.1076 -0.3942 -0.3700
 1259SOL    HW1 8588   2.782   5.996   1.260 -0.1689 -0.4123  0.1487
 1259SOL    HW2 8589   2.852   5.874   1.317  0.2679 -0.4173 -0.3908
 1260SOL     OW 8590   5.410   4.946   9.811  0.0616  0.2085  0.3045
 1260SOL    HW1 8591   5.476   4.984   9.869  1.4331  0.7242 -1.4992
 1260SOL    HW2 8592   5.380   5.020   9.757 -0.7626 -0.3505 -0.0266
 1261SOL     OW 8593  11.814   2.775   2.477  0.0100 -0.5301 -0.1893
 1261SOL    HW1 8594  11.776   2.692   2.508 -0.9717 -0.1453 -0.3321
 1261SOL    HW2 8595  11.776   2.842   2.534  1.3549 -0.2230  0.4042
 1262SOL     OW 8596   6.346  11.160  11.196 -0.0528  0.5161  0.5494
 1262SOL    HW1 8597   6.357  11.200  11.282 -1.1438 -0.8518  1.3654
 1262SOL    HW2 8598   6.419  11.099  11.189 -0.5430 -0.1241  0.9606
 1263SOL     OW 8599   2.638   3.320   4.615 -0.1804  0.0397 -0.7837
 1263SOL    HW1 8600   2.661   3.321   4.522  2.5221  0.8252 -0.1962
 1263SOL    HW2 8601   2.627   3.412   4.638  1.3708  0.0481  0.0907
 1264SOL     OW 8602   9.693   7.352   8.695  0.6802 -0.5029 -0.3176
 1264SOL    HW1 8603   9.728   7.305   8.770  1.3297  0.5234  0.0492
 1264SOL    HW2 8604   9.717   7.444   8.711 -1.4768  0.1315 -0.4566
 1265SOL     OW 8605   6.007   9.748  11.306  0.1258 -0.3680  0.2071
 1265SOL    HW1 8606   5.925   9.710  11.274  1.5947 -2.7727 -0.9643
 1265SOL    HW2 8607   6.008   9.837  11.271 -1.9572 -0.2682  0.2810
 1266SOL     OW 8608   1.227   5.109  11.555  0.6451  0.1183  0.2303
 1266SOL    HW1 8609   1.285   5.053  11.606  1.1412 -1.8168 -2.2766
 1266SOL    HW2 8610   1.157   5.050  11.526  0.4134  1.1208 -1.3370
 1267SOL     OW 8611   8.909  10.247   8.973  0.1252  0.2984  0.3304
 1267SOL    HW1 8612   9.003  10.240   8.988  0.2174  0.1412 -0.2752
 1267SOL    HW2 8613   8.876  10.159   8.986  0.3130  0.0098 -1.0248
 1268SOL     OW 8614   7.083  10.427  11.352  0.0483  0.0509 -0.2644
 1268SOL    HW1 8615   7.078  10.513  11.393  0.1447 -0.1729  0.2166
 1268SOL    HW2 8616   7.167  10.427  11.307  0.1799  0.0996 -0.0195
 1269SOL     OW 8617  11.928   9.843   3.161 -0.1074  0.1184  0.1789
 1269SOL    HW1 8618  11.997   9.904   3.186  1.4503 -2.3073  2.2556
 1269SOL    HW2 8619  11.888   9.816   3.244 -0.4246 -1.9743 -0.5783
 1270SOL     OW 8620  10.244   8.335   6.759  0.5177 -0.2386 -0.1104
 1270SOL    HW1 8621  10.279   8.376   6.838 -1.4757  1.5584 -0.0682
 1270SOL    HW2 8622  10.189   8.264   6.792 -0.8749  0.9436  0.2483
 1271SOL     OW 8623   9.471  11.760   8.821 -0.0434  1.3148 -0.7861
 1271SOL    HW1 8624   9.535  11.778   8.889  1.2035  0.5165 -1.7124
 1271SOL    HW2 8625   9.421  11.685   8.855  1.5808 -0.0887 -1.3528
 1272SOL     OW 8626   3.976  11.739   2.875 -0.4113  0.1817  0.3709
 1272SOL    HW1 8627   3.908  11.805   2.862 -0.3667  0.5702  1.8562
 1272SOL    HW2 8628   3.977  11.725   2.970  0.2439 -1.2586  0.1800
 1273SOL     OW 8629   4.898   9.286   2.365 -0.0672  0.3593  0.1858
 1273SOL    HW1 8630   4.930   9.357   2.310  1.1302  1.1780  1.8143
 1273SOL    HW2 8631   4.940   9.207   2.330 -0.4242  0.6342 -0.8826
 1274SOL     OW 8632   7.226  11.587   1.544  0.0773  0.2854 -0.1100
 1274SOL    HW1 8633   7.214  11.581   1.638  2.9030 -1.5983  0.2669
 1274SOL    HW2 8634   7.178  11.511   1.509  0.0330  0.2894 -0.0585
 1275SOL     OW 8635   5.741   5.221   3.853 -0.1206 -0.1670  0.7046
 1275SOL    HW1 8636   5.738   5.315   3.834  0.4255 -0.3705 -0.4397
 1275SOL    HW2 8637   5.694   5.213   3.937 -0.2563  1.1046  0.7800
 1276SOL     OW 8638   7.389   2.287   3.891  0.9164 -0.3141  0.1049
 1276SOL    HW1 8639   7.421   2.352   3.827  0.8556 -0.1421  0.2490
 1276SOL    HW2 8640   7.360   2.213   3.837 -1.1128  0.6610 -0.2293
 1277SOL     OW 8641   4.943   8.738  11.585 -0.3516  0.5498 -0.6241
 1277SOL    HW1 8642   4.924   8.828  11.610  0.7690  0.3937  0.9527
 1277SOL    HW2 8643   4.952   8.691  11.668  1.0160 -0.5734 -1.3593
 1278SOL     OW 8644  10.429   5.443   1.408  0.1208 -0.2532 -0.2386
 1278SOL    HW1 8645  10.396   5.464   1.496  1.1186  0.2275  0.0371
 1278SOL    HW2 8646  10.516   5.482   1.405 -0.8248  1.9451 -2.3458
 1279SOL     OW 8647  11.510   0.021   6.947 -0.2439  0.0256 -0.0920
 1279SOL    HW1 8648  11.428   0.047   6.905 -0.7605 -0.4833  0.5780
 1279SOL    HW2 8649  11.545  -0.048   6.891 -1.1188 -0.9139  0.4679
 1280SOL     OW 8650   3.166   6.479   7.650 -0.8808  0.6992 -0.1667
 1280SOL    HW1 8651   3.135   6.446   7.734 -2.4514 -1.7818 -1.5975
 1280SOL    HW2 8652   3.251   6.437   7.637 -1.4743 -0.3917 -0.6044
 1281SOL     OW 8653   2.297   0.416   3.536  0.6874 -0.4010 -0.2376
 1281SOL    HW1 8654   2.280   0.427   3.442  0.5931  0.3024 -0.1503
 1281SOL    HW2 8655   2.217   0.375   3.570  1.7708 -3.2523 -0.8878
 1282SOL     OW 8656   5.137   2.337  12.341 -0.3453 -0.2907  0.1866
 1282SOL    HW1 8657   5.160   2.297  12.425  1.5207  1.7499  0.7470
 1282SOL    HW2 8658   5.113   2.427  12.363 -0.6233  0.0579 -1.3949
 1283SOL     OW 8659   3.153   9.388   7.760 -0.3699  0.7042  0.6527
 1283SOL    HW1 8660   3.235   9.361   7.720 -0.7670  2.2959 -1.4179
 1283SOL    HW2 8661   3.086   9.338   7.714 -1.0198  4.0721 -2.5464
 1284SOL     OW 8662   1.704  10.283  11.187  0.2300  0.1996  0.1609
 1284SOL    HW1 8663   1.758  10.335  11.246  1.3407 -0.4070 -0.2824
 1284SOL    HW2 8664   1.652  10.348  11.138 -1.0350  0.6841  2.0586
 1285SOL     OW 8665   4.638   4.206   0.741 -0.6316  0.3295  0.2940
 1285SOL    HW1 8666   4.697   4.196   0.667  0.1768 -2.1756  1.1460
 1285SOL    HW2 8667   4.558   4.242   0.703 -0.1029 -0.4766 -1.7341
 1286SOL     OW 8668   9.415  11.308   0.427  0.0677  0.1725  0.6256
 1286SOL    HW1 8669   9.461  11.361   0.491  0.0208  0.2720  0.5776
 1286SOL    HW2 8670   9.324  11.307   0.457  0.5446 -2.2109  2.1949
 1287SOL     OW 8671   5.276   8.031   7.611 -0.7437  0.3233 -0.2265
 1287SOL    HW1 8672   5.198   7.977   7.603 -1.2984  0.9216  1.0069
 1287SOL    HW2 8673   5.299   8.028   7.704 -0.8354  2.2604 -0.1090
 1288SOL     OW 8674   4.875   9.825   7.402  0.5217  0.0706  0.0342
 1288SOL    HW1 8675   4.860   9.801   7.310  0.2661  1.0124 -0.1765
 1288SOL    HW2 8676   4.789   9.851   7.435  0.8917  1.3098  0.0634
 1289SOL     OW 8677   7.007  11.250   3.680  0.5744 -0.3236 -0.2894
 1289SOL    HW1 8678   6.969  11.235   3.767 -0.2331  1.6960 -0.2539
 1289SOL    HW2 8679   7.100  11.230   3.691  0.6210  0.5896  1.2369
 1290SOL     OW 8680   9.434  11.314   5.051 -0.5397  0.2852 -0.2442
 1290SOL    HW1 8681   9.371  11.378   5.084 -1.6187 -0.4065 -0.8958
 1290SOL    HW2 8682   9.420  11.313   4.957 -1.0403 -1.3739 -0.1893
 1291SOL     OW 8683   2.043   2.024   0.834 -0.1948  0.2338  0.3021
 1291SOL    HW1 8684   2.016   2.010   0.925  1.0821 -1.3584  0.4756
 1291SOL    HW2 8685   2.074   1.939   0.804 -2.0355  0.2919 -2.1702
 1292SOL     OW 8686   6.697   6.926   5.720 -0.3462 -0.5414 -0.0899
 1292SOL    HW1 8687   6.741   6.960   5.642  1.2527 -0.2856  0.8624
 1292SOL    HW2 8688   6.646   7.000   5.753 -0.8191 -0.5724 -0.7317
 1293SOL     OW 8689   5.710   3.881   4.633  0.0171  0.0673  0.3972
 1293SOL    HW1 8690   5.705   3.972   4.604 -1.6911  0.1561  0.9010
 1293SOL    HW2 8691   5.781   3.881   4.698 -0.4453  1.1903  0.9244
 1294SOL     OW 8692   6.524   4.510   1.391 -0.3030  0.4001 -0.1883
 1294SOL    HW1 8693   6.438   4.467   1.391 -0.6608  1.0464 -1.5797
 1294SOL    HW2 8694   6.552   4.505   1.299  0.8918  0.6920  0.1564
 1295SOL     OW 8695   7.243   7.886   0.110  0.1744 -0.2217 -0.1914
 1295SOL    HW1 8696   7.152   7.856   0.109 -0.0578  0.3237  1.7479
 1295SOL    HW2 8697   7.261   7.911   0.019 -1.7609  0.1251 -0.5050
 1296SOL     OW 8698  12.217  10.121   4.345 -0.1449 -0.0669 -0.5083
 1296SOL    HW1 8699  12.295  10.066   4.348 -0.3356 -0.3375 -0.4569
 1296SOL    HW2 8700  12.192  10.122   4.252 -0.2568 -0.2349 -0.4814
 1297SOL     OW 8701   0.603   3.473  11.545 -0.5266  0.0076 -0.1836
 1297SOL    HW1 8702   0.653   3.457  11.465 -1.9792 -0.1913 -1.0802
 1297SOL    HW2 8703   0.615   3.566  11.563 -0.3612  0.0955 -0.7359
 1298SOL     OW 8704   5.494   2.441   5.583 -0.6469  0.0144  0.3016
 1298SOL    HW1 8705   5.531   2.406   5.664 -2.6453 -1.7018  0.5609
 1298SOL    HW2 8706   5.527   2.382   5.515 -1.2307 -0.2862  0.2704
 1299SOL     OW 8707  12.104   5.013   1.033  0.4679 -0.1282  0.3873
 1299SOL    HW1 8708  12.143   5.054   0.956  0.8146 -0.8393  0.1756
 1299SOL    HW2 8709  12.077   5.087   1.089  0.2487  0.3902 -0.3884
 1300SOL     OW 8710   2.298   7.237  11.487  0.0844  0.1663 -0.2894
 1300SOL    HW1 8711   2.394   7.240  11.493  0.1523  0.7416 -1.4521
 1300SOL    HW2 8712   2.272   7.173  11.553  1.1875  0.8093  0.8143
 1301SOL     OW 8713  10.120   9.256   5.565  0.1019 -0.0836 -0.0504
 1301SOL    HW1 8714  10.051   9.253   5.498 -1.4316 -1.4810  1.4853
 1301SOL    HW2 8715  10.083   9.209   5.639  1.9731  0.9037  1.5981
 1302SOL     OW 8716   0.565   5.828  12.188  0.2456 -0.1135  0.3739
 1302SOL    HW1 8717   0.652   5.792  12.204  0.4859 -0.4934 -1.5903
 1302SOL    HW2 8718   0.534   5.782  12.110 -1.1177  1.0683  0.1863
 1303SOL     OW 8719   3.759   7.491   0.652 -0.3941 -0.1351  0.1819
 1303SOL    HW1 8720   3.776   7.585   0.657  2.7502 -0.6811  2.7981
 1303SOL    HW2 8721   3.753   7.473   0.559  0.9741  2.3666 -0.4856
 1304SOL     OW 8722   5.893   0.318   6.830 -0.0472  0.0493  0.1019
 1304SOL    HW1 8723   5.822   0.364   6.875  1.9125  1.5450  1.8533
 1304SOL    HW2 8724   5.848   0.257   6.771 -2.7683 -0.3504  2.3765
 1305SOL     OW 8725   1.685   5.160   1.305 -0.3214 -0.7211 -0.2255
 1305SOL    HW1 8726   1.737   5.229   1.345 -0.2382 -0.5790 -0.5836
 1305SOL    HW2 8727   1.700   5.084   1.361 -2.3608  0.1570  1.6718
 1306SOL     OW 8728   0.224  10.654   6.261 -0.4573 -0.0887  0.1641
 1306SOL    HW1 8729   0.280  10.719   6.219 -2.6383  2.7603  1.3185
 1306SOL    HW2 8730   0.254  10.570   6.226  3.7783  1.2589 -0.0232
 1307SOL     OW 8731   9.006   6.233   5.354 -0.2240  0.6591 -0.3350
 1307SOL    HW1 8732   9.100   6.214   5.352  0.0232  1.8342 -1.9487
 1307SOL    HW2 8733   9.001   6.328   5.356 -1.3614  0.6583 -1.7240
 1308SOL     OW 8734   2.644   5.098   7.876 -0.3303 -0.6105 -0.2964
 1308SOL    HW1 8735   2.577   5.135   7.818  0.6231  0.4423 -0.7737
 1308SOL    HW2 8736   2.616   5.124   7.964  0.0364  0.8588 -0.5842
 1309SOL     OW 8737   6.974   2.857  12.362 -0.2682  0.0507  0.3943
 1309SOL    HW1 8738   6.941   2.768  12.351  0.6738 -0.2236 -0.3586
 1309SOL    HW2 8739   7.013   2.879  12.277 -0.3936  1.1457  0.5993
 1310SOL     OW 8740   2.551   9.170   5.528  0.3806  0.0740 -0.4670
 1310SOL    HW1 8741   2.559   9.127   5.613 -0.3203 -0.8431 -0.8478
 1310SOL    HW2 8742   2.486   9.239   5.542 -1.1961 -1.3068 -0.6910
 1311SOL     OW 8743   5.065   4.764   4.063 -0.2378 -0.1703  0.3303
 1311SOL    HW1 8744   4.989   4.707   4.074 -1.2311  0.9270 -0.6093
 1311SOL    HW2 8745   5.140   4.705   4.072 -1.1977 -1.3552  0.8482
 1312SOL     OW 8746   1.789  11.894   0.396  0.1577  0.1068  0.0249
 1312SOL    HW1 8747   1.782  11.915   0.489 -1.5081  1.8077 -0.4156
 1312SOL    HW2 8748   1.781  11.979   0.352  0.5871 -0.6930 -1.7019
 1313SOL     OW 8749  10.834   0.122   5.136 -0.2583 -0.3314  0.1956
 1313SOL    HW1 8750  10.744   0.151   5.122 -0.4363  0.5086  2.5640
 1313SOL    HW2 8751  10.878   0.137   5.052 -1.5102  2.3966 -0.0640
 1314SOL     OW 8752  10.241   2.422   3.586  0.2512 -1.0579  0.6829
 1314SOL    HW1 8753  10.183   2.498   3.583  0.1653 -1.1526 -0.6986
 1314SOL    HW2 8754  10.254   2.406   3.679  0.5585  0.8595  1.0207
 1315SOL     OW 8755   4.788  11.005   8.996  0.3870  0.2845 -0.4370
 1315SOL    HW1 8756   4.785  11.080   9.055  1.2950 -1.3493  1.8276
 1315SOL    HW2 8757   4.701  11.002   8.957 -0.5573  0.9519  1.5045
 1316SOL     OW 8758   9.489   9.506   1.034  0.1693 -0.2904  0.2312
 1316SOL    HW1 8759   9.515   9.578   0.977 -2.5638  1.4715  1.0129
 1316SOL    HW2 8760   9.412   9.467   0.991 -0.3200 -0.6517  1.3787
 1317SOL     OW 8761   5.409   4.194   6.431  0.0037  0.3928  0.5955
 1317SOL    HW1 8762   5.390   4.145   6.351  3.0620 -1.4048  0.8184
 1317SOL    HW2 8763   5.444   4.277   6.401 -1.3606  0.8385  0.1586
 1318SOL     OW 8764   4.389   7.638   6.135  0.0872  0.0918 -0.0699
 1318SOL    HW1 8765   4.464   7.600   6.089  1.1894  0.9761  0.9370
 1318SOL    HW2 8766   4.401   7.610   6.226 -0.8306  0.2230  0.0968
 1319SOL     OW 8767   2.599   3.699   9.940  0.3172 -0.3064 -0.2182
 1319SOL    HW1 8768   2.601   3.794   9.941 -0.8961 -0.2771 -0.2125
 1319SOL    HW2 8769   2.604   3.674  10.032  0.0348 -0.2373 -0.1850
 1320SOL     OW 8770   7.718   1.717   0.884 -0.0398 -0.2333 -0.6335
 1320SOL    HW1 8771   7.739   1.679   0.799 -0.5745 -1.1744 -0.3543
 1320SOL    HW2 8772   7.660   1.654   0.926 -1.0431  0.9354 -0.1954
 1321SOL     OW 8773   1.041   5.767   4.356  0.0313  0.3105  0.8481
 1321SOL    HW1 8774   0.978   5.818   4.407 -1.2124  0.1417 -0.4809
 1321SOL    HW2 8775   1.123   5.775   4.406 -0.9457  0.7575  2.4724
 1322SOL     OW 8776   4.763   3.145   0.274 -0.2677 -0.4236  0.2518
 1322SOL    HW1 8777   4.840   3.196   0.299  0.5159 -2.0314  1.2086
 1322SOL    HW2 8778   4.779   3.119   0.183 -0.0884 -0.0653  0.1779
 1323SOL     OW 8779   4.034  10.809   3.794 -0.6095  0.0816 -0.2455
 1323SOL    HW1 8780   4.109  10.863   3.818 -0.8563 -0.2024  1.2298
 1323SOL    HW2 8781   4.021  10.750   3.868 -2.1966  0.0327 -0.5156
 1324SOL     OW 8782   0.352   8.168  11.361  0.4795 -0.0464  0.5312
 1324SOL    HW1 8783   0.360   8.121  11.444 -0.3125 -0.1781  0.5450
 1324SOL    HW2 8784   0.351   8.260  11.386 -1.6788 -0.1165  0.8826
 1325SOL     OW 8785   9.902   6.307   0.958 -0.1995  0.2222 -0.2847
 1325SOL    HW1 8786   9.902   6.374   1.027  0.6399 -0.2410  0.1735
 1325SOL    HW2 8787   9.813   6.273   0.958  0.2835 -1.2251  2.0214
 1326SOL     OW 8788   0.429  11.975   7.618  0.1798  0.5643  0.2579
 1326SOL    HW1 8789   0.498  12.001   7.557 -0.8461 -0.2196 -1.3140
 1326SOL    HW2 8790   0.423  11.880   7.608 -0.4964  0.5044  1.0897
 1327SOL     OW 8791   7.992   9.000   4.427 -0.0178  0.9198 -0.0770
 1327SOL    HW1 8792   7.918   9.012   4.368 -0.6354  0.4265  0.5664
 1327SOL    HW2 8793   7.994   9.080   4.480 -0.0215  0.9874 -0.1799
 1328SOL     OW 8794  11.151   3.422   8.840 -0.7228 -0.0661 -0.2500
 1328SOL    HW1 8795  11.194   3.346   8.803 -1.5029 -0.4023 -0.4863
 1328SOL    HW2 8796  11.095   3.455   8.769 -1.3254 -0.0144  0.2400
 1329SOL     OW 8797   0.196  10.499  11.687 -0.3716 -0.0669 -0.2070
 1329SOL    HW1 8798   0.247  10.453  11.621 -0.4568  1.4360 -1.3856
 1329SOL    HW2 8799   0.221  10.591  11.676 -2.1526  0.5124  0.2461
 1330SOL     OW 8800   1.737   3.586   3.377 -0.2476  1.2286  0.2717
 1330SOL    HW1 8801   1.734   3.587   3.473  1.0733 -0.0465  0.3530
 1330SOL    HW2 8802   1.829   3.599   3.356 -0.0941 -1.0652 -0.7275
 1331SOL     OW 8803  11.870   8.161   8.619  0.1687  0.2904  0.2329
 1331SOL    HW1 8804  11.948   8.105   8.612 -0.7789 -0.8493 -2.1169
 1331SOL    HW2 8805  11.797   8.100   8.629 -0.7709  1.1163 -1.2025
 1332SOL     OW 8806   2.602   9.309   8.793  0.6587  0.0324 -0.2751
 1332SOL    HW1 8807   2.557   9.276   8.714 -0.4912  2.0034 -0.5054
 1332SOL    HW2 8808   2.535   9.306   8.861  0.8491  0.8635 -0.0490
 1333SOL     OW 8809   6.933   1.922   5.405  0.4057 -0.0223  0.6724
 1333SOL    HW1 8810   7.006   1.921   5.344  1.0680  3.5327  1.1717
 1333SOL    HW2 8811   6.963   1.978   5.477 -1.9125 -0.5070  2.1273
 1334SOL     OW 8812   6.535  10.053   8.995 -0.0574 -0.4931  0.1344
 1334SOL    HW1 8813   6.564  10.033   8.906  0.1908 -0.6872  0.2586
 1334SOL    HW2 8814   6.602  10.114   9.029  0.6272 -1.5226  0.6873
 1335SOL     OW 8815   3.196  11.486   2.722  0.2345 -0.1694  0.4438
 1335SOL    HW1 8816   3.163  11.575   2.737  2.2568  1.0642 -1.8142
 1335SOL    HW2 8817   3.117  11.435   2.703 -0.8273  1.5103  0.0423
 1336SOL     OW 8818   8.212   3.442   5.840  0.0880 -0.1534 -0.2792
 1336SOL    HW1 8819   8.250   3.404   5.761 -0.3652  0.1832 -0.6639
 1336SOL    HW2 8820   8.209   3.369   5.902  2.3276  0.0443  0.1348
 1337SOL     OW 8821   2.737   2.503   9.073  0.3531  0.2213 -0.0782
 1337SOL    HW1 8822   2.657   2.459   9.043  1.1321 -1.2707 -0.0039
 1337SOL    HW2 8823   2.806   2.470   9.016  0.5576  3.6546 -2.0844
 1338SOL     OW 8824  10.104   3.016   1.629 -0.2268  0.3690 -0.6636
 1338SOL    HW1 8825  10.163   3.056   1.565 -0.5632  0.6498 -0.7978
 1338SOL    HW2 8826  10.019   3.013   1.585 -0.3798  0.2329 -0.3618
 1339SOL     OW 8827   2.681   4.098   4.789 -0.0556  0.3513  0.0423
 1339SOL    HW1 8828   2.753   4.131   4.736  1.4882  0.5530  2.1558
 1339SOL    HW2 8829   2.666   4.166   4.854 -3.4085  1.1261 -1.3447
 1340SOL     OW 8830   6.458   5.544   2.129 -0.2195  0.1887  0.7624
 1340SOL    HW1 8831   6.451   5.454   2.096  0.2755  0.2965  0.3605
 1340SOL    HW2 8832   6.488   5.595   2.053  1.1299  0.4059  1.4190
 1341SOL     OW 8833   0.246   9.830   4.409  0.2381 -0.1720  0.0248
 1341SOL    HW1 8834   0.299   9.892   4.460 -0.7481  1.6780 -1.0958
 1341SOL    HW2 8835   0.163   9.825   4.457  0.1638 -0.2791 -0.1159
 1342SOL     OW 8836   7.767   5.852  10.743  0.2200  0.2475 -0.3742
 1342SOL    HW1 8837   7.822   5.784  10.705  1.8173  0.8937  0.6856
 1342SOL    HW2 8838   7.766   5.922  10.677  1.0546  0.4077 -0.2301
 1343SOL     OW 8839  11.694  11.316  11.627  0.2753  0.0497  0.0807
 1343SOL    HW1 8840  11.722  11.407  11.620  1.8093 -0.4137 -0.3767
 1343SOL    HW2 8841  11.726  11.288  11.713 -1.0579  0.2034  0.6390
 1344SOL     OW 8842   7.164   1.151   2.955  0.2330 -0.0928  0.7044
 1344SOL    HW1 8843   7.132   1.062   2.943 -0.5403  0.0372  1.6505
 1344SOL    HW2 8844   7.239   1.158   2.896 -0.7140 -0.8170 -0.6284
 1345SOL     OW 8845   6.990   8.905  10.248 -0.3479 -0.6382  0.0172
 1345SOL    HW1 8846   6.937   8.955  10.309  0.7465  1.5780 -0.7274
 1345SOL    HW2 8847   6.937   8.900  10.169  0.2231  1.0297 -0.5172
 1346SOL     OW 8848   6.061   0.150  12.143  0.1690  0.4085 -0.2247
 1346SOL    HW1 8849   6.060   0.237  12.182  2.8286  0.2129  0.4305
 1346SOL    HW2 8850   6.042   0.090  12.215  0.2934  0.3220 -0.2638
 1347SOL     OW 8851   2.926   1.585   3.791  0.2609 -0.2549 -0.1331
 1347SOL    HW1 8852   2.840   1.615   3.821  0.6067  1.1459 -0.4813
 1347SOL    HW2 8853   2.969   1.664   3.760  1.3065 -1.1077 -0.8983
 1348SOL     OW 8854   1.596   7.980  12.084 -0.4357 -0.6289 -0.2946
 1348SOL    HW1 8855   1.507   7.976  12.049 -0.6613  1.4152 -0.0529
 1348SOL    HW2 8856   1.586   8.016  12.172  0.4419 -2.6149  0.6806
 1349SOL     OW 8857  10.094   0.481   3.572  0.0084  0.4974  0.0231
 1349SOL    HW1 8858  10.171   0.443   3.612 -0.5298 -0.1128  0.4920
 1349SOL    HW2 8859  10.088   0.439   3.486 -0.5714 -0.4961  0.5289
 1350SOL     OW 8860   9.289   6.872   4.345  0.5712  0.4354  0.3171
 1350SOL    HW1 8861   9.263   6.941   4.284  1.5008  2.1339  1.7312
 1350SOL    HW2 8862   9.279   6.912   4.432  2.4071 -0.7352  1.1374
 1351SOL     OW 8863  12.307   9.940   8.825  0.1990  0.1724  0.0218
 1351SOL    HW1 8864  12.391   9.905   8.798 -0.6368 -1.2636 -0.8531
 1351SOL    HW2 8865  12.249   9.924   8.750 -1.2881 -0.5091  1.2447
 1352SOL     OW 8866   5.970   0.713   5.434  0.6049  0.4779 -0.2946
 1352SOL    HW1 8867   5.961   0.808   5.425  0.0389  0.4993  0.3833
 1352SOL    HW2 8868   6.059   0.694   5.403  0.2935  1.0606 -1.6161
 1353SOL     OW 8869   0.669   3.231   7.919  0.8886  0.0374  0.2136
 1353SOL    HW1 8870   0.756   3.229   7.882  0.6003  0.8638 -0.5198
 1353SOL    HW2 8871   0.647   3.138   7.933  1.8354 -0.1759  0.3350
 1354SOL     OW 8872   7.261   7.280   2.853 -0.1713  0.2465 -0.3040
 1354SOL    HW1 8873   7.303   7.363   2.833  1.6375 -0.9533 -1.8209
 1354SOL    HW2 8874   7.233   7.247   2.767 -1.3053 -0.4997  0.3282
 1355SOL     OW 8875   4.966   1.491   2.637 -0.1396  0.6371  0.0011
 1355SOL    HW1 8876   4.934   1.501   2.547 -0.6348  2.7295  0.3490
 1355SOL    HW2 8877   5.005   1.404   2.639 -0.8544  0.2088 -2.0062
 1356SOL     OW 8878   8.843   0.687   1.796  0.1110 -0.1166  0.8788
 1356SOL    HW1 8879   8.785   0.711   1.868 -1.2086 -0.6020  0.0206
 1356SOL    HW2 8880   8.905   0.759   1.790 -0.2852  0.3355  1.9469
 1357SOL     OW 8881   6.458   0.376  12.468  0.4998 -0.1332 -0.1805
 1357SOL    HW1 8882   6.472   0.304  12.407 -1.3405 -0.0468 -0.7746
 1357SOL    HW2 8883   6.546   0.409  12.488  1.2174 -1.0058 -1.7522
 1358SOL     OW 8884   4.472   9.588   9.264  0.0540 -0.2204  0.4890
 1358SOL    HW1 8885   4.427   9.571   9.347  0.4139 -0.3805  0.6510
 1358SOL    HW2 8886   4.556   9.625   9.290  0.6335 -1.3284  0.2318
 1359SOL     OW 8887   9.008   8.524   1.449  0.4313  0.4820 -0.2255
 1359SOL    HW1 8888   9.040   8.556   1.534 -1.5494  0.4680  0.5697
 1359SOL    HW2 8889   8.917   8.553   1.445 -0.3936 -1.9871 -1.0577
 1360SOL     OW 8890  11.613   8.068   8.916  0.0797  0.3906  0.4823
 1360SOL    HW1 8891  11.607   7.973   8.918  0.0204  0.3989  0.6540
 1360SOL    HW2 8892  11.612   8.090   8.823 -1.6577  0.3326  0.4434
 1361SOL     OW 8893   4.522   7.924  12.215 -0.1461 -0.1846 -0.0709
 1361SOL    HW1 8894   4.541   7.913  12.308  1.3577  0.9791 -0.1948
 1361SOL    HW2 8895   4.544   7.839  12.176 -0.6347 -0.6276  0.5934
 1362SOL     OW 8896   6.012   8.590   2.908  0.7133 -0.2498  0.0112
 1362SOL    HW1 8897   5.996   8.496   2.914  1.0907 -0.2485  1.3262
 1362SOL    HW2 8898   5.927   8.628   2.887  0.2629 -0.7731  0.8565
 1363SOL     OW 8899  11.445   1.895   4.924 -0.0018  0.0147 -0.0506
 1363SOL    HW1 8900  11.350   1.893   4.918  0.0939 -2.0968 -1.9509
 1363SOL    HW2 8901  11.476   1.837   4.855  2.7087  0.9077  0.2570
 1364SOL     OW 8902   5.937  11.802   7.235  0.4775 -0.0190  0.6988
 1364SOL    HW1 8903   5.850  11.776   7.204 -0.5564 -0.0845  3.3145
 1364SOL    HW2 8904   5.919  11.856   7.312  2.7676  0.5248  0.9172
 1365SOL     OW 8905   7.691   5.281  12.434 -0.1282  0.0874  0.1786
 1365SOL    HW1 8906   7.714   5.353  12.375  0.7090  0.3935  0.8658
 1365SOL    HW2 8907   7.677   5.206  12.376  1.6027  0.1396 -0.3639
 1366SOL     OW 8908   0.647  12.555   7.580  0.3215  0.2396 -0.3001
 1366SOL    HW1 8909   0.623  12.463   7.593 -0.9428  0.6664  0.5999
 1366SOL    HW2 8910   0.674  12.586   7.667  1.0185  0.6593 -0.6519
 1367SOL     OW 8911   3.797   0.602   7.481  0.1664  0.9548  0.1363
 1367SOL    HW1 8912   3.809   0.523   7.534 -0.7179  1.9621  1.9492
 1367SOL    HW2 8913   3.720   0.585   7.427  0.1018  0.4991  0.3736
 1368SOL     OW 8914   4.256   5.172   2.743  0.4711  0.2081 -0.5610
 1368SOL    HW1 8915   4.230   5.085   2.712 -0.1980  0.6339 -1.2176
 1368SOL    HW2 8916   4.179   5.206   2.789  0.7231  0.4685 -0.3252
 1369SOL     OW 8917   9.054   0.269   2.846  0.6713  0.1243 -0.2761
 1369SOL    HW1 8918   9.070   0.342   2.906 -0.1745 -0.0868  0.2216
 1369SOL    HW2 8919   9.013   0.202   2.901 -1.6623  0.5377 -1.3686
 1370SOL     OW 8920   8.698  11.393   1.278 -0.0528  0.0823  0.1614
 1370SOL    HW1 8921   8.782  11.377   1.235 -1.5676 -4.6299 -1.7222
 1370SOL    HW2 8922   8.653  11.455   1.220  1.4690  1.4237  0.3479
 1371SOL     OW 8923   0.524   0.052   8.117  0.1304  0.1254  0.0446
 1371SOL    HW1 8924   0.476   0.090   8.191 -0.8129  0.3236 -0.6519
 1371SOL    HW2 8925   0.569   0.127   8.078 -2.5486  0.8430 -1.9540
 1372SOL     OW 8926   7.784   7.736   6.219  0.7455  0.1306 -0.0063
 1372SOL    HW1 8927   7.813   7.649   6.192  0.7745  0.1298  0.0274
 1372SOL    HW2 8928   7.852   7.767   6.279 -0.6012 -0.9808  2.2170
 1373SOL     OW 8929   3.415   1.862   2.459  0.6445 -0.0538  0.9458
 1373SOL    HW1 8930   3.373   1.794   2.510  0.4465 -0.5323  0.1702
 1373SOL    HW2 8931   3.378   1.944   2.492 -0.1218 -0.4088  0.9787
 1374SOL     OW 8932  12.053   2.039   7.976  0.5097  0.2225  0.0060
 1374SOL    HW1 8933  12.107   1.960   7.988 -1.4130 -0.8132  3.1543
 1374SOL    HW2 8934  11.981   2.010   7.920 -0.0888 -0.2460  0.9970
 1375SOL     OW 8935   4.215   0.600   5.242  0.8865 -0.4453  0.2470
 1375SOL    HW1 8936   4.243   0.625   5.330  1.0352  2.5348 -0.5303
 1375SOL    HW2 8937   4.293   0.615   5.188  0.1772 -0.0678 -0.6943
 1376SOL     OW 8938   6.503   7.084   5.477 -0.1647  0.2973 -0.1707
 1376SOL    HW1 8939   6.527   6.993   5.497  0.9289  0.2793 -1.4172
 1376SOL    HW2 8940   6.523   7.094   5.384 -2.4761  1.1421 -0.6551
 1377SOL     OW 8941   2.697  12.155   9.191 -0.1296  0.1965  0.2018
 1377SOL    HW1 8942   2.624  12.120   9.242 -2.0634  2.0535 -1.1327
 1377SOL    HW2 8943   2.765  12.171   9.257 -0.8996 -1.5062  1.5100
 1378SOL     OW 8944   7.480   9.637  11.034 -0.1172  0.3322  0.1389
 1378SOL    HW1 8945   7.404   9.685  11.066  0.4576  1.5320 -0.2151
 1378SOL    HW2 8946   7.507   9.583  11.108 -1.2914 -0.0952  0.2715
 1379SOL     OW 8947   3.698   1.666   5.432 -0.6221  0.1809  0.1007
 1379SOL    HW1 8948   3.722   1.710   5.350  1.9650  0.6440  1.0150
 1379SOL    HW2 8949   3.691   1.573   5.408 -1.6094  0.5050 -0.9484
 1380SOL     OW 8950  10.678   9.935   6.160 -0.4223 -0.1626 -0.1579
 1380SOL    HW1 8951  10.734  10.013   6.162  0.3542 -0.7111 -0.0299
 1380SOL    HW2 8952  10.682   9.905   6.069  0.2635 -0.7382  0.0519
 1381SOL     OW 8953   8.612   3.458   3.561  0.2761  0.3426 -0.5350
 1381SOL    HW1 8954   8.642   3.405   3.487  0.2620  0.1465 -0.4005
 1381SOL    HW2 8955   8.674   3.438   3.631 -0.0104  0.1398 -0.3369
 1382SOL     OW 8956  11.223  10.998   1.322  0.4482  0.2836 -0.2973
 1382SOL    HW1 8957  11.287  10.958   1.381  0.8605  0.9159 -0.2954
 1382SOL    HW2 8958  11.141  10.955   1.342  0.7464 -0.0788  0.1727
 1383SOL     OW 8959   6.817   9.633  10.916  0.2673 -0.0684  0.0299
 1383SOL    HW1 8960   6.756   9.564  10.942 -0.1630  0.6089  0.8676
 1383SOL    HW2 8961   6.769   9.685  10.852  0.1392  0.1736  0.3200
 1384SOL     OW 8962   4.935   9.308   2.652  0.3255  0.6006 -0.2710
 1384SOL    HW1 8963   4.996   9.380   2.667  0.1290  0.6311  0.4173
 1384SOL    HW2 8964   4.926   9.304   2.557  0.8372  1.0642 -0.3444
 1385SOL     OW 8965   6.420   2.065   2.024  0.0272 -0.2489 -0.2437
 1385SOL    HW1 8966   6.354   1.997   2.034 -0.0337 -0.1465  0.0713
 1385SOL    HW2 8967   6.381   2.142   2.066  0.6115 -0.3665  0.5352
 1386SOL     OW 8968   1.198   3.290   5.944 -0.0299 -0.1129  0.5533
 1386SOL    HW1 8969   1.115   3.246   5.923 -0.3996  0.3829  0.9471
 1386SOL    HW2 8970   1.197   3.297   6.039  0.8425 -0.8175  0.6223
 1387SOL     OW 8971   4.913   4.549   8.775 -0.7250 -0.4248  0.1016
 1387SOL    HW1 8972   4.970   4.531   8.700 -0.1478 -1.4667  0.7726
 1387SOL    HW2 8973   4.969   4.596   8.837 -0.6113 -1.3964  0.7380
 1388SOL     OW 8974   3.272  11.229  11.236 -0.1593 -0.2109  0.1273
 1388SOL    HW1 8975   3.252  11.284  11.312  1.7478  0.3110  0.3272
 1388SOL    HW2 8976   3.227  11.271  11.163  1.2475  1.7084  0.2693
 1389SOL     OW 8977   0.647  10.539   8.905 -0.0937 -0.1884 -0.3950
 1389SOL    HW1 8978   0.719  10.598   8.925 -0.7656  0.5192 -0.0090
 1389SOL    HW2 8979   0.632  10.550   8.811  0.3570 -0.4130 -0.4964
 1390SOL     OW 8980   0.258  11.006   9.420  0.2297 -0.2999  0.2265
 1390SOL    HW1 8981   0.242  11.043   9.333 -1.1761 -0.5073  0.3747
 1390SOL    HW2 8982   0.182  10.951   9.437  0.8739 -0.9082  1.2595
 1391SOL     OW 8983   7.353   5.364   1.946  0.1599  0.0575  0.0981
 1391SOL    HW1 8984   7.351   5.309   1.867 -0.2668 -0.3135  0.3587
 1391SOL    HW2 8985   7.314   5.309   2.014  2.6942 -0.5316  1.1654
 1392SOL     OW 8986  10.736   2.204   2.078  0.2523  0.1050 -0.1477
 1392SOL    HW1 8987  10.646   2.176   2.096  0.2718 -1.2692 -1.9106
 1392SOL    HW2 8988  10.728   2.298   2.060 -0.9845 -0.1483 -1.0748
 1393SOL     OW 8989  12.601   2.472   3.038  0.0754  0.4657 -0.4331
 1393SOL    HW1 8990  12.583   2.469   3.132  0.5731  0.4433 -0.3355
 1393SOL    HW2 8991  12.536   2.532   3.002  0.7686  1.5767  0.1352
 1394SOL     OW 8992   1.534   8.743  12.338 -0.4682  0.7681 -0.0553
 1394SOL    HW1 8993   1.455   8.759  12.286  0.4885 -0.6201 -2.0751
 1394SOL    HW2 8994   1.606   8.768  12.280  0.7012 -1.9895  0.0443
 1395SOL     OW 8995   2.238  10.556   7.132  0.0389 -0.4323 -0.1387
 1395SOL    HW1 8996   2.269  10.518   7.049  0.5092  1.6278 -0.9658
 1395SOL    HW2 8997   2.314  10.603   7.166 -0.5047 -0.2600  0.8594
 1396SOL     OW 8998   7.375  10.795   7.739  0.4436  0.2767 -0.2840
 1396SOL    HW1 8999   7.295  10.833   7.777  0.9942  1.0768  0.0924
 1396SOL    HW2 9000   7.360  10.800   7.645 -0.2628 -0.2712 -0.2142
 1397SOL     OW 9001  10.552   5.487  10.707 -0.0398  0.5882  0.2446
 1397SOL    HW1 9002  10.486   5.437  10.756  0.4116 -0.5770 -0.3166
 1397SOL    HW2 9003  10.631   5.433  10.711  1.2216  2.3928  1.7338
 1398SOL     OW 9004   2.648   8.090   4.195 -0.3025  0.1487  0.0819
 1398SOL    HW1 9005   2.727   8.089   4.141 -0.5476  0.1752 -0.2785
 1398SOL    HW2 9006   2.604   8.172   4.172 -0.1367  0.4214  0.7174
 1399SOL     OW 9007   3.379   9.923   0.486  0.3639  0.1399  0.1066
 1399SOL    HW1 9008   3.401  10.008   0.447  2.8291 -1.3813 -2.1865
 1399SOL    HW2 9009   3.435   9.916   0.563  1.4956 -0.0671 -0.7069
 1400SOL     OW 9010   5.682   1.475  10.185 -0.3429 -0.1293  0.7307
 1400SOL    HW1 9011   5.761   1.433  10.217  0.7744  1.3413  0.0049
 1400SOL    HW2 9012   5.699   1.569  10.193 -1.2454  0.2575 -1.1943
 1401SOL     OW 9013   3.578   9.642  11.707 -0.0185  0.1534 -0.0574
 1401SOL    HW1 9014   3.563   9.560  11.660 -2.8473 -0.1751  1.1955
 1401SOL    HW2 9015   3.523   9.706  11.662  0.0993  0.7043  0.5565
 1402SOL     OW 9016   6.694   4.386   6.978 -0.0068 -0.9510  0.0715
 1402SOL    HW1 9017   6.699   4.386   6.882  4.1881 -0.4169  0.1281
 1402SOL    HW2 9018   6.694   4.479   7.002  1.5945 -1.0516  0.5637
 1403SOL     OW 9019   3.729   2.498   2.679 -0.2686 -0.2757  0.0057
 1403SOL    HW1 9020   3.648   2.531   2.639  0.2837  0.8478 -0.2317
 1403SOL    HW2 9021   3.751   2.421   2.626  1.1329  1.8756 -2.8691
 1404SOL     OW 9022   9.745   5.949   3.064  0.4024 -0.3603  0.4780
 1404SOL    HW1 9023   9.679   5.963   3.132  0.4904 -2.0906  0.9734
 1404SOL    HW2 9024   9.818   5.906   3.110  0.8617 -0.6694 -0.5133
 1405SOL     OW 9025   1.902   1.773   1.252  0.6096 -0.1540 -0.0514
 1405SOL    HW1 9026   1.862   1.841   1.198 -0.1487 -0.3966  0.1989
 1405SOL    HW2 9027   1.989   1.761   1.213 -0.4978 -1.5410 -2.3461
 1406SOL     OW 9028  11.579   5.599   8.021 -0.4127  0.3522 -0.2085
 1406SOL    HW1 9029  11.499   5.610   8.073 -0.0411  2.0493  0.0569
 1406SOL    HW2 9030  11.594   5.686   7.982  1.3584  0.0859 -0.1749
 1407SOL     OW 9031   5.656   5.786   9.395  0.3658  0.4850  0.1831
 1407SOL    HW1 9032   5.587   5.721   9.392  0.0150  0.8711 -0.2844
 1407SOL    HW2 9033   5.651   5.823   9.483  2.0793 -1.7040  1.3117
 1408SOL     OW 9034   6.187   7.857   9.118 -0.6775 -0.1946  0.8185
 1408SOL    HW1 9035   6.200   7.853   9.023  1.6959  0.8915  1.0254
 1408SOL    HW2 9036   6.092   7.863   9.129 -1.1482 -1.9223 -1.3842
 1409SOL     OW 9037   2.401   8.198  11.751  0.0682 -0.0256 -0.6649
 1409SOL    HW1 9038   2.413   8.106  11.775 -2.4109  0.4067  3.1884
 1409SOL    HW2 9039   2.473   8.244  11.793 -1.1011  0.1277  1.3002
 1410SOL     OW 9040   2.499  11.888   1.231  0.2578 -0.2226 -0.1841
 1410SOL    HW1 9041   2.475  11.800   1.260  0.4639  0.0072  0.7079
 1410SOL    HW2 9042   2.416  11.932   1.215  0.1519 -0.9123 -1.7214
 1411SOL     OW 9043   4.346  11.829  11.988 -0.2087  0.0492  0.2623
 1411SOL    HW1 9044   4.378  11.777  11.914 -2.2983 -0.3095 -0.4551
 1411SOL    HW2 9045   4.425  11.862  12.030  1.0779 -0.9405 -1.2659
 1412SOL     OW 9046   9.843   4.233   7.066 -0.1413 -0.4743 -0.2629
 1412SOL    HW1 9047   9.850   4.151   7.017 -0.0946 -1.2207  0.9463
 1412SOL    HW2 9048   9.804   4.295   7.004 -0.0757 -1.3722 -1.2302
 1413SOL     OW 9049  10.228   8.704   1.116  0.7552 -0.4060  1.1969
 1413SOL    HW1 9050  10.181   8.635   1.070  1.2741  0.7090 -1.1502
 1413SOL    HW2 9051  10.284   8.658   1.178  1.0296 -2.1048 -0.2367
 1414SOL     OW 9052   3.640   1.686  11.123  0.2254 -0.3193 -0.1026
 1414SOL    HW1 9053   3.656   1.700  11.216  0.2250 -0.3461 -0.0984
 1414SOL    HW2 9054   3.652   1.772  11.083 -2.5518  0.3228  0.2833
 1415SOL     OW 9055   0.818   4.267  10.637  0.0843  0.1961  0.0417
 1415SOL    HW1 9056   0.821   4.359  10.613 -0.3212  0.9045  2.4289
 1415SOL    HW2 9057   0.756   4.263  10.709 -0.7584 -2.1558 -0.7168
 1416SOL     OW 9058   0.826   9.192  10.648  0.1024 -0.1796 -0.4881
 1416SOL    HW1 9059   0.849   9.280  10.677 -0.6831 -0.0689 -0.1868
 1416SOL    HW2 9060   0.736   9.180  10.676 -0.0249 -0.8233 -1.1430
 1417SOL     OW 9061  11.351   7.247   7.112 -0.2237 -0.3699  0.3584
 1417SOL    HW1 9062  11.426   7.190   7.129 -0.2600 -0.4378  0.2954
 1417SOL    HW2 9063  11.352   7.311   7.183  0.7542  0.5270 -0.4389
 1418SOL     OW 9064   5.896   9.371  11.862  0.1298 -0.3346 -0.7534
 1418SOL    HW1 9065   5.896   9.276  11.875  0.5289 -0.1424  0.7453
 1418SOL    HW2 9066   5.866   9.382  11.771  0.6863 -1.9087 -1.1618
 1419SOL     OW 9067  11.787  10.118   7.774 -0.2394 -0.0687 -0.0426
 1419SOL    HW1 9068  11.738  10.196   7.747 -0.5952 -0.0160  0.7306
 1419SOL    HW2 9069  11.719  10.054   7.797  0.0486  0.0682  1.2277
 1420SOL     OW 9070   9.482  12.600   2.424  0.4226  0.1865 -0.0213
 1420SOL    HW1 9071   9.439  12.648   2.353 -2.4359 -0.9319  0.8024
 1420SOL    HW2 9072   9.552  12.658   2.454 -2.5891  3.7894  0.7472
 1421SOL     OW 9073   0.594  10.381   0.672  0.0541  0.5482  0.1854
 1421SOL    HW1 9074   0.686  10.369   0.695 -0.0716  0.3359  0.6019
 1421SOL    HW2 9075   0.565  10.295   0.641  0.2682  0.8833 -0.9650
 1422SOL     OW 9076   4.233   8.116   9.839 -0.2034  0.5303 -0.2225
 1422SOL    HW1 9077   4.250   8.109   9.745  1.5811  2.3158 -0.1004
 1422SOL    HW2 9078   4.306   8.167   9.873 -1.3426  0.8124  1.9915
 1423SOL     OW 9079   2.873  10.179   9.741  0.0050  0.1064  0.0555
 1423SOL    HW1 9080   2.795  10.181   9.685  2.1253  0.4417 -3.1705
 1423SOL    HW2 9081   2.873  10.263   9.786 -0.5693  0.8621 -1.3053
 1424SOL     OW 9082   9.556   1.873   5.410  0.0751 -0.2702 -0.0490
 1424SOL    HW1 9083   9.569   1.921   5.328 -1.3877  0.5936  0.1772
 1424SOL    HW2 9084   9.625   1.807   5.411 -1.0437 -1.6788 -2.9765
 1425SOL     OW 9085   2.643   5.782  10.962 -0.0264 -0.1420 -0.6454
 1425SOL    HW1 9086   2.551   5.774  10.939 -0.0363 -0.2374 -0.5696
 1425SOL    HW2 9087   2.649   5.868  11.005  0.4715  1.3668 -3.4297
 1426SOL     OW 9088   8.826  10.889   5.312  0.3213  0.2616 -0.2844
 1426SOL    HW1 9089   8.806  10.922   5.225 -1.0059  0.2503 -0.0131
 1426SOL    HW2 9090   8.819  10.967   5.369 -0.6500 -0.0534  0.0513
 1427SOL     OW 9091   5.806   3.835   8.965 -0.0474  0.1816  0.1320
 1427SOL    HW1 9092   5.802   3.831   8.869 -1.0615 -0.9688  0.1938
 1427SOL    HW2 9093   5.896   3.860   8.984 -0.4029  2.8502 -1.1378
 1428SOL     OW 9094  10.946  10.190   3.069 -0.4609  0.7001  0.0783
 1428SOL    HW1 9095  10.916  10.138   3.144 -0.9737  2.1882  0.9528
 1428SOL    HW2 9096  11.028  10.150   3.043 -0.2599  0.1497  1.4687
 1429SOL     OW 9097   9.270   7.741   3.239 -0.0541 -0.2057  0.1073
 1429SOL    HW1 9098   9.290   7.831   3.263  2.7536 -0.5041 -0.8111
 1429SOL    HW2 9099   9.337   7.689   3.283  1.7981 -1.2775 -3.5937
 1430SOL     OW 9100  12.331  10.216   1.809  0.5751  0.1051 -1.0493
 1430SOL    HW1 9101  12.319  10.251   1.898  2.9500  1.3263 -1.1463
 1430SOL    HW2 9102  12.326  10.121   1.820 -0.2949  0.2671  0.1813
 1431SOL     OW 9103   9.507   1.034   9.019  0.0910 -0.0297  0.0161
 1431SOL    HW1 9104   9.468   0.953   8.987 -1.9830  1.2096 -0.7779
 1431SOL    HW2 9105   9.536   1.079   8.939  0.6594  0.2972  0.4022
 1432SOL     OW 9106  10.866   9.279   8.797  0.0481  0.3778  0.1495
 1432SOL    HW1 9107  10.948   9.317   8.766  0.7762  1.9707  3.5746
 1432SOL    HW2 9108  10.807   9.353   8.807 -1.0199 -0.4330  0.0062
 1433SOL     OW 9109  11.125   8.256   4.795  0.0953 -0.3906 -0.3149
 1433SOL    HW1 9110  11.187   8.184   4.783 -1.0440 -1.3804 -0.4345
 1433SOL    HW2 9111  11.125   8.273   4.889 -0.9342 -1.7747 -0.0349
 1434SOL     OW 9112   8.966   7.590   4.346  0.0979  0.5996  0.5483
 1434SOL    HW1 9113   8.885   7.636   4.367 -0.6490 -0.5486  0.2339
 1434SOL    HW2 9114   9.006   7.644   4.278 -1.0558  0.5124 -0.2336
 1435SOL     OW 9115   7.080   3.452   2.471 -0.8172  0.0174  0.0927
 1435SOL    HW1 9116   7.006   3.452   2.409  0.5148 -0.3418 -1.5642
 1435SOL    HW2 9117   7.157   3.462   2.416  0.4520 -0.4928  1.7098
 1436SOL     OW 9118   6.646   0.903   7.373  0.1893 -0.1740 -0.7953
 1436SOL    HW1 9119   6.550   0.907   7.379  0.1728 -1.5646  0.2517
 1436SOL    HW2 9120   6.673   0.994   7.387 -0.9730  0.2605 -1.1824
 1437SOL     OW 9121  10.614   2.897   3.275  0.4872 -0.3841 -0.1959
 1437SOL    HW1 9122  10.608   2.861   3.186 -0.6142 -0.7618  0.0199
 1437SOL    HW2 9123  10.708   2.897   3.294  0.8126  0.4573 -1.6599
 1438SOL     OW 9124   6.499   4.505   1.824  0.4966 -0.2961  0.3523
 1438SOL    HW1 9125   6.444   4.549   1.760 -0.7140  0.2204  1.6967
 1438SOL    HW2 9126   6.472   4.541   1.908  1.2050 -1.8006  1.2739
 1439SOL     OW 9127   2.000   4.947  10.718 -0.4058 -0.6100  0.3506
 1439SOL    HW1 9128   1.980   4.959  10.811 -0.1091 -0.5586  0.4074
 1439SOL    HW2 9129   2.061   5.018  10.697  2.0486 -2.4392  0.8809
 1440SOL     OW 9130  11.868   2.720   8.260 -0.0160 -0.1809  0.3648
 1440SOL    HW1 9131  11.808   2.752   8.327 -1.1305 -0.8311 -0.3046
 1440SOL    HW2 9132  11.845   2.628   8.249  0.7389 -0.3029 -0.3017
 1441SOL     OW 9133   8.552   6.279   4.352 -0.1632  0.1648  0.0020
 1441SOL    HW1 9134   8.583   6.197   4.315 -0.0218  0.2261 -0.0165
 1441SOL    HW2 9135   8.474   6.255   4.403 -0.9393  0.2241 -1.1383
 1442SOL     OW 9136  12.342   0.785  11.987  0.1804  0.3486 -0.7929
 1442SOL    HW1 9137  12.375   0.755  12.072 -1.3877 -2.0715 -0.9461
 1442SOL    HW2 9138  12.309   0.873  12.005 -1.4372 -0.6262  1.5300
 1443SOL     OW 9139   3.169   0.764  10.992 -0.1728 -0.1984  0.0268
 1443SOL    HW1 9140   3.193   0.846  10.949 -0.2930  1.2678  2.5675
 1443SOL    HW2 9141   3.079   0.747  10.964  0.3009 -0.2497 -1.5704
 1444SOL     OW 9142  11.605   8.889   9.396  0.2930 -0.1119 -0.1790
 1444SOL    HW1 9143  11.591   8.971   9.349  0.8353 -0.6184 -1.2408
 1444SOL    HW2 9144  11.697   8.869   9.383  0.3898 -0.4190  0.8710
 1445SOL     OW 9145   4.524  11.901   5.406 -0.0970 -0.5393  0.2289
 1445SOL    HW1 9146   4.600  11.849   5.381 -0.6638 -1.1130 -0.3681
 1445SOL    HW2 9147   4.491  11.859   5.486 -0.9658 -1.5757 -0.6362
 1446SOL     OW 9148   4.761   0.516   8.927 -0.3722 -0.3450  0.3784
 1446SOL    HW1 9149   4.841   0.484   8.968 -0.3654  0.2490  0.8388
 1446SOL    HW2 9150   4.691   0.476   8.978 -0.3616 -0.0998  0.5932
 1447SOL     OW 9151   4.408  12.631   1.139  0.3041 -0.1371  0.5554
 1447SOL    HW1 9152   4.446  12.644   1.226  0.9484 -1.6793  0.5330
 1447SOL    HW2 9153   4.315  12.654   1.149  0.7033  1.3213  1.2094
 1448SOL     OW 9154   4.260   8.091   9.567  0.3901  0.0879 -0.1541
 1448SOL    HW1 9155   4.252   8.141   9.486  0.3213 -1.0763 -0.8862
 1448SOL    HW2 9156   4.183   8.034   9.569  0.1242  0.4586  0.9915
 1449SOL     OW 9157   6.340   3.529   8.313  0.6899 -0.4364  0.2444
 1449SOL    HW1 9158   6.419   3.539   8.365  0.4495 -1.4721  0.8340
 1449SOL    HW2 9159   6.364   3.466   8.244  0.8492  0.5085 -0.5777
 1450SOL     OW 9160  11.780   4.814  10.988 -0.1444  0.2119 -0.0233
 1450SOL    HW1 9161  11.790   4.767  11.070 -0.3006  1.6087  0.8333
 1450SOL    HW2 9162  11.868   4.841  10.964 -0.0794 -0.3371 -0.3986
 1451SOL     OW 9163   7.723   5.518   6.048 -0.9341  0.3133 -0.0437
 1451SOL    HW1 9164   7.655   5.586   6.043 -1.1200  0.0463 -1.6455
 1451SOL    HW2 9165   7.750   5.505   5.957 -1.0769 -1.9202  0.1838
 1452SOL     OW 9166   4.882   2.365  12.560 -0.0152 -0.1742  0.7466
 1452SOL    HW1 9167   4.866   2.281  12.604 -1.1005 -0.7056 -0.5942
 1452SOL    HW2 9168   4.800   2.384  12.514  0.1677  1.6953  1.1106
 1453SOL     OW 9169   1.506   9.895   6.456 -0.7343  0.7046 -0.1170
 1453SOL    HW1 9170   1.504   9.935   6.543 -1.0829 -0.5325  0.4708
 1453SOL    HW2 9171   1.597   9.865   6.445 -0.2549  2.3199 -0.9048
 1454SOL     OW 9172   0.236   6.002   6.559  0.0984 -0.1907 -0.2561
 1454SOL    HW1 9173   0.280   6.003   6.644  0.2219 -0.3111 -0.3187
 1454SOL    HW2 9174   0.147   5.970   6.578 -1.6070  4.3631  0.6772
 1455SOL     OW 9175   9.155   8.195   3.297  0.1217 -0.0742 -0.3121
 1455SOL    HW1 9176   9.173   8.103   3.317 -0.8066 -0.3913 -0.8772
 1455SOL    HW2 9177   9.220   8.243   3.347  0.1024 -1.0033  0.6488
 1456SOL     OW 9178   2.337   7.189  12.613 -0.3474 -0.2339 -0.0380
 1456SOL    HW1 9179   2.394   7.223  12.682  0.3039 -1.6902  0.1741
 1456SOL    HW2 9180   2.259   7.159  12.659  0.6571 -2.5046  0.3230
 1457SOL     OW 9181  11.959   7.406   1.269 -0.4637  0.1543  0.2721
 1457SOL    HW1 9182  12.047   7.437   1.286  0.1986  0.1375 -2.5694
 1457SOL    HW2 9183  11.966   7.311   1.270 -0.1246  0.1351 -1.0139
 1458SOL     OW 9184  12.073   7.298   2.562  0.2365  0.7241  0.2502
 1458SOL    HW1 9185  11.980   7.280   2.553  0.0717  1.7414 -0.2367
 1458SOL    HW2 9186  12.089   7.372   2.503  0.9787  1.7846  1.7115
 1459SOL     OW 9187  10.739   6.050  10.964  0.1315 -0.3737 -0.1831
 1459SOL    HW1 9188  10.763   6.041  11.056 -0.1249 -1.9644 -0.2417
 1459SOL    HW2 9189  10.769   6.138  10.940  1.5919 -0.5013  1.0026
 1460SOL     OW 9190   3.924   2.610   9.584 -0.6023 -0.5179  0.3921
 1460SOL    HW1 9191   3.948   2.533   9.531  0.5897  0.5675 -0.7160
 1460SOL    HW2 9192   3.995   2.619   9.647 -0.6919 -0.2850  0.4616
 1461SOL     OW 9193   4.856   5.764   3.483 -0.1715  0.1891 -0.3985
 1461SOL    HW1 9194   4.890   5.691   3.534 -0.4269  0.4254  0.1178
 1461SOL    HW2 9195   4.850   5.731   3.393  1.4755  0.1476 -0.5381
 1462SOL     OW 9196   0.433   9.595   7.591  0.1823  0.1396 -0.3821
 1462SOL    HW1 9197   0.371   9.590   7.664 -0.9714  1.1592 -1.2462
 1462SOL    HW2 9198   0.438   9.688   7.570  1.8556  0.0567 -0.5012
 1463SOL     OW 9199   1.308   9.351   0.725 -0.3175  0.3071  0.3354
 1463SOL    HW1 9200   1.243   9.331   0.658  0.5427  0.9300 -0.7200
 1463SOL    HW2 9201   1.341   9.266   0.754  0.5817  0.0407 -1.3476
 1464SOL     OW 9202   9.515  11.339   7.764 -0.5633  0.3734 -0.1609
 1464SOL    HW1 9203   9.584  11.398   7.733  0.8344 -1.4579 -0.7214
 1464SOL    HW2 9204   9.441  11.359   7.707  0.3765  0.5385 -1.3972
 1465SOL     OW 9205   0.289   3.425   7.967  1.2590 -0.4795  0.2572
 1465SOL    HW1 9206   0.207   3.377   7.971  2.3505 -2.3338  1.9520
 1465SOL    HW2 9207   0.262   3.517   7.968 -0.9130 -0.8312 -3.5125
 1466SOL     OW 9208   5.566   0.265  11.239  0.3029 -0.4246  0.2322
 1466SOL    HW1 9209   5.599   0.192  11.188  0.4855 -0.0624 -0.1734
 1466SOL    HW2 9210   5.610   0.257  11.324  0.8342 -0.3985 -0.0396
 1467SOL     OW 9211  11.185   9.487   8.344  0.1892 -0.0652 -0.2811
 1467SOL    HW1 9212  11.091   9.502   8.352  0.0936 -0.8122  0.1257
 1467SOL    HW2 9213  11.192   9.419   8.277  0.3067 -1.2883  0.9280
 1468SOL     OW 9214   8.068   0.259   6.860 -0.2034 -0.1048 -0.4757
 1468SOL    HW1 9215   8.092   0.203   6.934  3.4371  0.2194 -1.2285
 1468SOL    HW2 9216   7.978   0.286   6.879  0.0676 -1.1737  3.0951
 1469SOL     OW 9217   4.098   3.284   3.378 -0.1321 -0.5079 -0.1964
 1469SOL    HW1 9218   4.032   3.239   3.430 -2.7457  1.6758 -1.3534
 1469SOL    HW2 9219   4.101   3.373   3.414  2.6824 -0.6743  0.1774
 1470SOL     OW 9220  12.361   0.236   2.254 -0.6080  0.4048 -0.4485
 1470SOL    HW1 9221  12.397   0.268   2.337 -1.8463  1.9736 -0.4590
 1470SOL    HW2 9222  12.288   0.181   2.280 -0.6391  0.4275 -0.4889
 1471SOL     OW 9223   4.526   7.675   2.057  0.1854  0.5600 -0.5645
 1471SOL    HW1 9224   4.471   7.737   2.008 -0.8662 -0.6284 -0.9253
 1471SOL    HW2 9225   4.464   7.616   2.099  1.1825 -1.2589 -1.5451
 1472SOL     OW 9226   4.670   9.870   5.816 -0.4297  0.2658  0.5062
 1472SOL    HW1 9227   4.660   9.810   5.742 -0.9746  0.9841 -0.0108
 1472SOL    HW2 9228   4.737   9.932   5.789 -1.7122  1.4610 -0.0274
 1473SOL     OW 9229   8.448   4.899   8.307 -0.5036 -0.3928 -0.1599
 1473SOL    HW1 9230   8.519   4.950   8.346 -1.0829 -0.3277  0.8440
 1473SOL    HW2 9231   8.370   4.953   8.319 -1.1576 -1.5412  1.1002
 1474SOL     OW 9232   6.272   6.553  10.128 -0.2845 -0.5804 -0.0241
 1474SOL    HW1 9233   6.232   6.565  10.041  1.2213  1.4061 -0.5107
 1474SOL    HW2 9234   6.322   6.472  10.120  0.4685 -0.0302 -1.3285
 1475SOL     OW 9235   0.587   9.931   8.662  0.2390  0.4857  0.1052
 1475SOL    HW1 9236   0.606   9.867   8.593  0.2156  0.1892  0.3744
 1475SOL    HW2 9237   0.499   9.909   8.693  0.3493  0.4617  0.4046
 1476SOL     OW 9238   5.041   1.793  11.168 -0.1731 -0.4919 -0.2306
 1476SOL    HW1 9239   5.123   1.790  11.119 -0.6548 -1.2260 -1.0285
 1476SOL    HW2 9240   4.979   1.745  11.113 -0.9243 -0.6749  0.7548
 1477SOL     OW 9241   6.400   9.740   0.829 -0.1877  0.7005 -0.5494
 1477SOL    HW1 9242   6.337   9.766   0.895  0.5047  0.8915  0.0491
 1477SOL    HW2 9243   6.394   9.644   0.826 -1.0567  0.7585 -1.0691
 1478SOL     OW 9244   4.594   1.607   4.929 -0.3777  0.4524  0.2255
 1478SOL    HW1 9245   4.536   1.533   4.909 -0.7334  0.8683 -0.3026
 1478SOL    HW2 9246   4.682   1.568   4.932 -0.5018  0.0925 -0.5264
 1479SOL     OW 9247   3.975   5.752   8.597  0.1254 -0.3604  0.0149
 1479SOL    HW1 9248   4.004   5.836   8.633 -0.3088 -0.1992  0.0039
 1479SOL    HW2 9249   4.036   5.688   8.633 -0.7256 -0.3078  1.6763
 1480SOL     OW 9250   3.294  12.120   6.502  0.0561 -0.5438  0.6675
 1480SOL    HW1 9251   3.380  12.160   6.513  0.4213 -1.4954  1.3776
 1480SOL    HW2 9252   3.241  12.158   6.572  0.3182 -1.0555  1.1514
 1481SOL     OW 9253  10.701   0.558  12.077 -0.7376 -0.8518  0.4256
 1481SOL    HW1 9254  10.618   0.600  12.056 -0.5121 -1.2130 -1.3658
 1481SOL    HW2 9255  10.686   0.517  12.163 -1.4861  1.3870  1.4325
 1482SOL     OW 9256   2.534   4.785   0.923 -0.2173  0.0522 -0.2669
 1482SOL    HW1 9257   2.521   4.836   0.842 -0.0255  0.1105 -0.2617
 1482SOL    HW2 9258   2.531   4.694   0.894  0.6231  0.0839 -0.4603
 1483SOL     OW 9259   5.564  12.142   1.577  0.0590 -0.0967  0.3019
 1483SOL    HW1 9260   5.532  12.061   1.536 -0.9487 -0.0976  1.0590
 1483SOL    HW2 9261   5.650  12.155   1.539 -0.3582 -0.7470 -0.9177
 1484SOL     OW 9262   0.621   3.241   2.453  0.6279  0.1358 -0.1954
 1484SOL    HW1 9263   0.527   3.222   2.457  1.0024 -2.3457 -1.1359
 1484SOL    HW2 9264   0.643   3.236   2.360  1.6702  0.9746 -0.0242
 1485SOL     OW 9265  11.086   0.848   5.505 -0.4021 -0.1979  0.2527
 1485SOL    HW1 9266  11.050   0.935   5.525  0.0088 -0.0435  0.3436
 1485SOL    HW2 9267  11.023   0.809   5.444  0.9137  1.3815 -2.2956
 1486SOL     OW 9268   8.482   7.656   8.666 -0.3998 -0.5967  0.1371
 1486SOL    HW1 9269   8.466   7.602   8.588 -0.9667 -0.2224 -0.0135
 1486SOL    HW2 9270   8.518   7.595   8.730  0.8452 -0.7457 -0.6802
 1487SOL     OW 9271   6.085   7.137   7.294  0.3737  0.0615  0.0846
 1487SOL    HW1 9272   6.028   7.098   7.228  1.6597  2.1130 -2.4451
 1487SOL    HW2 9273   6.039   7.216   7.322  0.5299  0.0174  0.4663
 1488SOL     OW 9274  11.825   4.279   6.484 -0.1509 -0.1821  1.0935
 1488SOL    HW1 9275  11.746   4.245   6.526 -1.8845  2.0482 -0.1376
 1488SOL    HW2 9276  11.870   4.201   6.452 -2.1887 -1.5174  1.2702
 1489SOL     OW 9277  12.290   3.199   8.610 -0.3490 -0.3480  0.0912
 1489SOL    HW1 9278  12.297   3.271   8.673  0.4035  0.0719 -0.4518
 1489SOL    HW2 9279  12.325   3.123   8.656  0.6223  0.0517  0.0509
 1490SOL     OW 9280   4.175   7.735   0.113  0.3669 -0.3437 -0.1523
 1490SOL    HW1 9281   4.231   7.775   0.046  3.6165 -0.3995  2.2864
 1490SOL    HW2 9282   4.218   7.755   0.196 -2.9379 -1.0901  1.9279
 1491SOL     OW 9283   9.956  10.434  10.181 -0.1825 -0.4865 -0.5291
 1491SOL    HW1 9284   9.980  10.491  10.255  0.3605 -2.8539  1.2393
 1491SOL    HW2 9285   9.943  10.495  10.108 -0.4792  1.9758  1.4038
 1492SOL     OW 9286   8.301   3.664   8.243  0.4923 -0.4903  0.4821
 1492SOL    HW1 9287   8.325   3.675   8.335  0.4665 -2.0251  0.7020
 1492SOL    HW2 9288   8.314   3.750   8.204  2.7631 -0.3467  1.4136
 1493SOL     OW 9289   0.094   9.335   0.466 -0.3532  0.5317 -0.6005
 1493SOL    HW1 9290   0.001   9.323   0.486 -0.3467  1.6473  0.2187
 1493SOL    HW2 9291   0.138   9.321   0.550  0.2856 -0.5590 -1.1018
 1494SOL     OW 9292   9.586   1.129   5.287  0.3453 -0.5954 -0.6775
 1494SOL    HW1 9293   9.671   1.168   5.309 -0.0138 -0.1672 -0.0162
 1494SOL    HW2 9294   9.608   1.058   5.228  1.1274 -0.1742 -0.9171
 1495SOL     OW 9295   5.416   9.614  11.644 -0.5529  0.1712 -0.2828
 1495SOL    HW1 9296   5.409   9.679  11.574 -0.0259  0.2662 -0.2494
 1495SOL    HW2 9297   5.338   9.629  11.698 -0.4105  0.8032 -0.2485
 1496SOL     OW 9298   0.238   2.966   3.788 -0.0148 -0.5049 -0.4077
 1496SOL    HW1 9299   0.144   2.946   3.790 -0.1012 -0.3461 -1.9127
 1496SOL    HW2 9300   0.272   2.930   3.870 -1.9682  2.4773  1.9208
 1497SOL     OW 9301   8.405  11.461   5.941 -0.4878 -0.7602  0.9270
 1497SOL    HW1 9302   8.435  11.370   5.936  1.3513 -0.3744  3.1103
 1497SOL    HW2 9303   8.336  11.468   5.874 -1.1393 -3.9036  1.1241
 1498SOL     OW 9304   4.250   9.592   2.700  0.1654 -0.1618  0.1071
 1498SOL    HW1 9305   4.170   9.550   2.731 -1.8986  3.2087 -0.2148
 1498SOL    HW2 9306   4.264   9.554   2.613 -0.6658 -1.2993  0.4453
 1499SOL     OW 9307   8.391  10.380   9.958 -0.3463  0.5842  0.0785
 1499SOL    HW1 9308   8.365  10.430   9.880  0.8260  0.2265 -0.5598
 1499SOL    HW2 9309   8.377  10.440  10.030 -0.9038  1.1235 -0.4619
 1500SOL     OW 9310   8.147   1.902   7.221  0.3728 -0.1857 -0.2789
 1500SOL    HW1 9311   8.090   1.978   7.223  0.5957 -0.0293  0.8305
 1500SOL    HW2 9312   8.088   1.828   7.202 -0.1153  0.0418  0.3293
 1501SOL     OW 9313   1.406  11.998  10.864 -0.0170 -0.0317 -0.1016
 1501SOL    HW1 9314   1.393  12.064  10.795 -1.1859 -2.4390 -2.3669
 1501SOL    HW2 9315   1.321  11.992  10.907  0.4525  0.7900  0.9955
 1502SOL     OW 9316   4.397   4.339   0.044 -0.1911  0.3948 -0.0623
 1502SOL    HW1 9317   4.357   4.425   0.036 -0.2074  0.4837  0.9140
 1502SOL    HW2 9318   4.447   4.343   0.125 -0.8784 -0.7947  0.4438
 1503SOL     OW 9319   7.610   5.665   5.689  0.2778  0.3293  0.3323
 1503SOL    HW1 9320   7.619   5.728   5.618  0.4963  1.6726  1.5000
 1503SOL    HW2 9321   7.699   5.637   5.709  0.0756 -1.8484 -1.3952
 1504SOL     OW 9322   4.292  12.615   0.612 -0.0650 -0.5277  0.2531
 1504SOL    HW1 9323   4.324  12.586   0.697  1.3669 -0.0290 -0.0884
 1504SOL    HW2 9324   4.320  12.548   0.550  1.6195  0.5849 -0.2563
 1505SOL     OW 9325   4.912  10.633   4.031 -0.1553  0.4562  0.1623
 1505SOL    HW1 9326   4.837  10.690   4.044 -1.0940 -0.9071  1.0402
 1505SOL    HW2 9327   4.914  10.617   3.936 -0.5834  1.0158  0.0564
 1506SOL     OW 9328   6.011   7.204   3.861 -0.3222 -0.3468 -0.4482
 1506SOL    HW1 9329   5.941   7.236   3.917 -1.8194  0.3175 -2.5652
 1506SOL    HW2 9330   5.973   7.203   3.773  2.7288  1.3794 -1.9414
 1507SOL     OW 9331  11.285   8.640   4.429 -0.4685  0.0858  0.0279
 1507SOL    HW1 9332  11.315   8.730   4.417  1.3913 -0.6949 -2.0088
 1507SOL    HW2 9333  11.204   8.634   4.379 -1.7832  1.0995  1.9222
 1508SOL     OW 9334   8.084   2.257   2.942  1.0426 -0.3002 -0.0031
 1508SOL    HW1 9335   8.138   2.185   2.975  0.9606 -0.6241 -0.5594
 1508SOL    HW2 9336   8.082   2.244   2.847 -0.8119 -0.8553  0.0789
 1509SOL     OW 9337   4.516   6.524   4.252 -0.1233 -0.3073 -0.2708
 1509SOL    HW1 9338   4.518   6.606   4.301  0.7171 -0.8151  0.5673
 1509SOL    HW2 9339   4.489   6.550   4.164 -2.0981  0.5719  0.5148
 1510SOL     OW 9340   0.904  12.343  12.488 -0.7830  0.1870  0.2851
 1510SOL    HW1 9341   0.823  12.357  12.439 -1.0505  0.1712  0.7187
 1510SOL    HW2 9342   0.973  12.378  12.431 -1.1233  0.4538  0.0348
 1511SOL     OW 9343  11.194   1.337   8.354  0.7726  0.2035  0.2181
 1511SOL    HW1 9344  11.110   1.383   8.350  0.8963  0.6366  1.7230
 1511SOL    HW2 9345  11.173   1.254   8.397  0.9200 -0.2268 -0.5307
 1512SOL     OW 9346   1.125  12.082   9.745  0.3953  0.3477 -0.2847
 1512SOL    HW1 9347   1.075  12.038   9.676 -0.1872 -1.1644  1.0361
 1512SOL    HW2 9348   1.079  12.165   9.758 -1.0254 -0.4305 -0.0311
 1513SOL     OW 9349  12.381   3.990  11.757  0.3405  0.1863 -0.4786
 1513SOL    HW1 9350  12.311   4.056  11.755  0.0716 -0.0781 -0.0782
 1513SOL    HW2 9351  12.336   3.908  11.739  0.2248 -0.2402  1.4859
 1514SOL     OW 9352   0.585  11.404  10.592  0.5457 -0.0952 -0.0282
 1514SOL    HW1 9353   0.622  11.407  10.680 -0.2206  1.1776  0.2781
 1514SOL    HW2 9354   0.656  11.373  10.536  1.4832  0.5083  0.8182
 1515SOL     OW 9355   4.468   1.777   7.225 -0.3858 -0.1606 -0.3025
 1515SOL    HW1 9356   4.545   1.758   7.279  0.8899  0.9020 -1.6493
 1515SOL    HW2 9357   4.460   1.872   7.229  0.4980  0.1044 -2.8574
 1516SOL     OW 9358   2.377   2.333   7.340 -0.3765 -0.7335 -0.0187
 1516SOL    HW1 9359   2.348   2.244   7.357  0.6400 -0.7698  1.7499
 1516SOL    HW2 9360   2.313   2.367   7.277 -1.4235 -2.3356  0.1147
 1517SOL     OW 9361  10.258   2.344   4.995 -0.1225 -0.2698 -0.5249
 1517SOL    HW1 9362  10.280   2.423   5.044  0.5946 -0.7624 -0.0383
 1517SOL    HW2 9363  10.222   2.376   4.912  2.3041  0.5970 -1.3251
 1518SOL     OW 9364   2.224   2.293   3.859  0.5777 -0.3221 -0.3151
 1518SOL    HW1 9365   2.163   2.223   3.879  2.8581 -2.5302 -0.6235
 1518SOL    HW2 9366   2.202   2.320   3.770  0.0723 -1.0804 -0.4230
 1519SOL     OW 9367   0.106   7.796   0.986  0.4984 -1.0485 -0.2849
 1519SOL    HW1 9368   0.071   7.782   0.898  1.8454  0.4621 -1.1141
 1519SOL    HW2 9369   0.103   7.710   1.027 -1.4142 -1.5290 -1.3185
 1520SOL     OW 9370  11.913   9.767   2.716 -0.1051 -0.3884  0.2904
 1520SOL    HW1 9371  11.841   9.824   2.690 -0.5939 -1.6572 -1.2801
 1520SOL    HW2 9372  11.987   9.796   2.664 -0.4864 -1.4661 -0.8915
 1521SOL     OW 9373   4.995   4.501   7.668  0.0379 -0.4466 -0.5182
 1521SOL    HW1 9374   5.061   4.434   7.651  0.9303  0.1212  0.5246
 1521SOL    HW2 9375   4.921   4.453   7.705  1.2016 -0.7607  1.5880
 1522SOL     OW 9376  10.357  12.344  10.155 -0.2901  0.1783 -0.0100
 1522SOL    HW1 9377  10.393  12.403  10.089  0.9479 -0.3161  0.1900
 1522SOL    HW2 9378  10.316  12.402  10.219 -1.0892  0.6846 -0.9617
 1523SOL     OW 9379  12.385   6.786   8.206 -0.0158  0.0729  0.1918
 1523SOL    HW1 9380  12.459   6.844   8.225 -1.0011  2.0045 -1.4154
 1523SOL    HW2 9381  12.308   6.844   8.210 -1.2530 -1.4692 -0.0246
 1524SOL     OW 9382   1.647   0.019  10.860  0.3577  0.4819  0.1272
 1524SOL    HW1 9383   1.683  -0.007  10.945  0.6068  0.8367  0.1315
 1524SOL    HW2 9384   1.719   0.005  10.798  0.0761 -0.0838 -0.0817
 1525SOL     OW 9385   2.677   0.050   9.460 -0.2986  0.2910 -0.0858
 1525SOL    HW1 9386   2.583   0.056   9.444 -0.3642 -0.4388  0.0024
 1525SOL    HW2 9387   2.709  -0.010   9.392 -0.0078 -0.0103  0.3177
 1526SOL     OW 9388   0.972   1.426   4.732 -0.1015 -0.5713 -0.3925
 1526SOL    HW1 9389   0.940   1.452   4.819  1.1722  1.7500 -0.5280
 1526SOL    HW2 9390   1.018   1.343   4.747  0.8566  0.2176  1.3542
 1527SOL     OW 9391   6.292   0.125   7.850 -0.0694  0.1680  0.2009
 1527SOL    HW1 9392   6.209   0.161   7.819  0.1159  0.9396  0.5667
 1527SOL    HW2 9393   6.289   0.136   7.945  1.0082  1.4772  0.1204
 1528SOL     OW 9394   8.162   8.110   6.450 -0.1666  0.4819 -0.4492
 1528SOL    HW1 9395   8.250   8.079   6.428 -0.2473 -0.8614  0.9411
 1528SOL    HW2 9396   8.176   8.199   6.483  0.3076  1.2967 -2.7175
 1529SOL     OW 9397   4.235   3.693   5.047 -0.4439 -0.1973  0.1757
 1529SOL    HW1 9398   4.169   3.657   5.106 -1.6577 -0.2375 -1.1519
 1529SOL    HW2 9399   4.193   3.769   5.007  0.9472  0.8037  0.5542
 1530SOL     OW 9400   4.042   9.346   7.645 -0.1786 -0.2191 -0.7570
 1530SOL    HW1 9401   4.137   9.353   7.633 -0.1084 -2.0908 -1.7628
 1530SOL    HW2 9402   4.025   9.384   7.731  1.3226  1.1182 -1.0176
 1531SOL     OW 9403   6.147   9.496  11.409 -0.0067  0.3233  0.0958
 1531SOL    HW1 9404   6.118   9.428  11.348  0.9087  1.1894 -1.3505
 1531SOL    HW2 9405   6.071   9.552  11.421  0.3567  1.3046 -1.8922
 1532SOL     OW 9406   8.888   8.474  11.727  0.2131 -0.0013 -0.4395
 1532SOL    HW1 9407   8.965   8.525  11.704  0.0440  1.7387  2.3516
 1532SOL    HW2 9408   8.923   8.398  11.775  0.2659  0.0343 -0.4214
 1533SOL     OW 9409  11.358  10.749   9.430 -0.3631  0.2538 -0.3673
 1533SOL    HW1 9410  11.348  10.799   9.348  1.9929 -2.0657 -2.2312
 1533SOL    HW2 9411  11.330  10.661   9.408  1.6677 -0.7672  0.8800
 1534SOL     OW 9412  11.438   6.690   4.962  0.5998 -0.0479  0.5270
 1534SOL    HW1 9413  11.368   6.670   4.900  2.2889 -0.4276 -1.3771
 1534SOL    HW2 9414  11.518   6.673   4.913  2.0549 -1.3911  3.1627
 1535SOL     OW 9415   7.501   0.713  11.526  0.1352  0.3689  0.0419
 1535SOL    HW1 9416   7.574   0.695  11.467 -1.3198 -0.2831 -1.6439
 1535SOL    HW2 9417   7.519   0.659  11.603  1.6449  0.5828 -0.1244
 1536SOL     OW 9418   6.424   7.753  12.354 -0.0275  0.1566 -0.2124
 1536SOL    HW1 9419   6.369   7.749  12.433 -1.5192  0.2042 -1.2151
 1536SOL    HW2 9420   6.462   7.666  12.347 -1.0271 -0.2949 -0.2077
 1537SOL     OW 9421   9.596   8.454   9.316 -1.1028 -0.4985 -0.3951
 1537SOL    HW1 9422   9.653   8.496   9.380 -0.1650 -2.1512 -0.0857
 1537SOL    HW2 9423   9.552   8.527   9.272 -1.1940  0.7215  1.5668
 1538SOL     OW 9424   1.634   0.586   4.629 -0.0975 -0.5447  0.4588
 1538SOL    HW1 9425   1.683   0.654   4.674 -0.5943  0.2513 -0.1837
 1538SOL    HW2 9426   1.608   0.525   4.699  0.6561 -0.2726  0.9822
 1539SOL     OW 9427   9.437   6.690  11.468 -0.2341 -0.6655 -0.2376
 1539SOL    HW1 9428   9.401   6.603  11.488  0.9755 -1.0960  0.1228
 1539SOL    HW2 9429   9.494   6.710  11.542  0.6394 -0.2083 -1.0218
 1540SOL     OW 9430  11.688   1.784   0.780 -0.3606  0.0356  0.0438
 1540SOL    HW1 9431  11.766   1.807   0.829 -0.3680  1.3402 -0.5187
 1540SOL    HW2 9432  11.701   1.823   0.693 -1.5374  0.1151 -0.1221
 1541SOL     OW 9433  11.419   0.736   4.547  0.0408  0.1309  0.0523
 1541SOL    HW1 9434  11.413   0.658   4.492 -0.7942 -0.6071  1.1431
 1541SOL    HW2 9435  11.340   0.732   4.602 -0.7234  2.4506 -0.7684
 1542SOL     OW 9436   9.541   3.976   2.375  0.0237 -0.1797  0.3209
 1542SOL    HW1 9437   9.555   3.882   2.382 -0.8026 -0.3749 -0.5789
 1542SOL    HW2 9438   9.473   3.986   2.309  2.7792  1.2306 -2.5499
 1543SOL     OW 9439  11.650   1.443   9.636 -0.1485  0.3224  0.3058
 1543SOL    HW1 9440  11.583   1.391   9.591  2.1466 -0.9094 -1.9967
 1543SOL    HW2 9441  11.657   1.522   9.584  2.9075 -1.3452 -2.1452
 1544SOL     OW 9442   0.200   5.434   9.138  0.0489  0.0577  0.3741
 1544SOL    HW1 9443   0.123   5.445   9.082 -1.6990  0.2936  2.6586
 1544SOL    HW2 9444   0.222   5.522   9.167 -2.7034 -0.2578  4.3862
 1545SOL     OW 9445   8.143   9.006   5.807  0.2397  0.1560 -0.4969
 1545SOL    HW1 9446   8.097   9.066   5.866  0.7378  1.5508 -1.4858
 1545SOL    HW2 9447   8.089   9.006   5.727  1.1480  0.6330 -1.1202
 1546SOL     OW 9448  11.794   2.264  10.068  0.4281  0.1856 -0.1797
 1546SOL    HW1 9449  11.803   2.299   9.979  0.0993 -0.1718 -0.3589
 1546SOL    HW2 9450  11.772   2.172  10.055 -1.0016  0.4469  0.2538
 1547SOL     OW 9451   7.329   9.052   1.295 -1.0221  0.2111  0.2072
 1547SOL    HW1 9452   7.340   9.116   1.366 -0.1115  1.8564 -1.3266
 1547SOL    HW2 9453   7.236   9.032   1.295 -1.5447  2.4330  0.0280
 1548SOL     OW 9454   6.736  11.890   3.138 -0.3473 -0.0670  0.3105
 1548SOL    HW1 9455   6.752  11.805   3.097 -1.5805 -0.0872 -0.1694
 1548SOL    HW2 9456   6.779  11.953   3.079  0.7916 -0.3580  0.8037
 1549SOL     OW 9457   9.416   9.734   2.097 -1.0699  0.1025  0.4702
 1549SOL    HW1 9458   9.325   9.737   2.127 -0.4297  0.8120  2.5212
 1549SOL    HW2 9459   9.439   9.825   2.080 -0.5957 -0.0161  0.4538
 1550SOL     OW 9460  11.567   3.323  12.499 -0.4638  0.6172  0.2559
 1550SOL    HW1 9461  11.615   3.365  12.570  1.4349 -0.1422 -0.4838
 1550SOL    HW2 9462  11.519   3.251  12.540 -1.0775  1.4607  1.0395
 1551SOL     OW 9463  11.054   9.677  10.566 -0.2991 -0.0539 -0.2348
 1551SOL    HW1 9464  11.046   9.772  10.562  1.6017  0.1533 -0.3895
 1551SOL    HW2 9465  11.054   9.656  10.659 -3.7334 -0.2983 -0.1787
 1552SOL     OW 9466  11.788   0.613  12.564 -0.0165  0.3705  0.2270
 1552SOL    HW1 9467  11.741   0.531  12.578  1.2929 -0.2821  1.0316
 1552SOL    HW2 9468  11.720   0.677  12.545 -1.1202 -0.7668  0.2274
 1553SOL     OW 9469   4.067   6.772   8.543  0.1243 -0.2608  0.2841
 1553SOL    HW1 9470   4.078   6.837   8.613  0.3705 -0.2636  0.2469
 1553SOL    HW2 9471   4.156   6.745   8.521  0.0046 -1.0460  0.7108
 1554SOL     OW 9472  11.485  12.076   6.920  0.0452 -0.4096 -0.0398
 1554SOL    HW1 9473  11.394  12.053   6.903  0.1413 -0.0825 -1.0458
 1554SOL    HW2 9474  11.481  12.159   6.967 -0.1568  0.2954 -1.2629
 1555SOL     OW 9475   0.708   3.300   7.372 -0.3381  0.0228  0.0527
 1555SOL    HW1 9476   0.669   3.277   7.457 -1.2019  2.7558  0.5043
 1555SOL    HW2 9477   0.635   3.297   7.310 -0.7098  2.0846  0.2966
 1556SOL     OW 9478   7.606   1.857   1.203  0.8240 -0.1592  0.5035
 1556SOL    HW1 9479   7.611   1.944   1.243  0.3673 -0.2581  0.7827
 1556SOL    HW2 9480   7.559   1.804   1.267  2.3870 -1.0145  0.9925
 1557SOL     OW 9481   6.708  10.602   3.576 -0.2407  0.0133 -0.9521
 1557SOL    HW1 9482   6.701  10.542   3.651  0.5515  2.2021  0.9822
 1557SOL    HW2 9483   6.627  10.653   3.579  0.2425  0.7924 -0.9463
 1558SOL     OW 9484   8.325   1.369   6.476 -0.3716 -0.0006  0.0455
 1558SOL    HW1 9485   8.388   1.439   6.491 -0.8777  0.4589  0.0464
 1558SOL    HW2 9486   8.254   1.410   6.428  0.5104 -1.1105 -2.3411
 1559SOL     OW 9487  10.898   4.866   2.517 -0.4026 -0.3203 -0.5128
 1559SOL    HW1 9488  10.930   4.776   2.516 -0.9063 -0.4981 -1.3882
 1559SOL    HW2 9489  10.879   4.886   2.426  0.2808  0.8849 -0.4184
 1560SOL     OW 9490   4.996   3.923   0.489  0.1266 -0.5873  0.3543
 1560SOL    HW1 9491   5.061   3.923   0.419  0.1462 -2.4601  0.3389
 1560SOL    HW2 9492   5.043   3.957   0.565  1.3407 -2.3952  0.4790
 1561SOL     OW 9493   5.024   7.823  10.819 -0.1727  0.1590  0.0117
 1561SOL    HW1 9494   4.957   7.885  10.850 -0.1824  0.1529  0.0022
 1561SOL    HW2 9495   5.086   7.816  10.892  0.1855  0.6884 -0.2321
 1562SOL     OW 9496   6.106  11.533   8.699 -0.4773 -0.4851  0.1139
 1562SOL    HW1 9497   6.196  11.500   8.699 -0.0291  0.6882  0.2128
 1562SOL    HW2 9498   6.055  11.464   8.742  0.4376 -1.0047  0.3861
 1563SOL     OW 9499   7.652  11.654  12.489 -0.1548 -0.6858 -0.1448
 1563SOL    HW1 9500   7.585  11.600  12.529 -1.7286  0.9983 -0.3574
 1563SOL    HW2 9501   7.636  11.648  12.395  0.1182 -0.4138 -0.2135
 1564SOL     OW 9502   0.217   7.001   6.365  0.0168 -0.4022 -0.1102
 1564SOL    HW1 9503   0.154   6.934   6.388 -0.1776  0.0653  0.7520
 1564SOL    HW2 9504   0.242   7.041   6.448  0.7220  0.0664 -0.5316
 1565SOL     OW 9505   5.770   4.155   9.614  0.5473 -0.6259  0.0561
 1565SOL    HW1 9506   5.772   4.063   9.642 -2.1325 -0.6149  0.5872
 1565SOL    HW2 9507   5.793   4.204   9.693  1.5904 -0.8230 -0.1211
 1566SOL     OW 9508   3.550   6.310   8.255 -0.0838  0.1650 -0.3618
 1566SOL    HW1 9509   3.508   6.293   8.339  1.1351 -2.0681 -0.1395
 1566SOL    HW2 9510   3.632   6.355   8.277  1.0834 -1.9676 -0.1430
 1567SOL     OW 9511  10.505   0.389   5.125  0.5671 -1.1983  0.7763
 1567SOL    HW1 9512  10.549   0.397   5.041  0.4482  3.0935  0.8969
 1567SOL    HW2 9513  10.412   0.392   5.104  0.5030 -1.6172  0.9933
 1568SOL     OW 9514  12.261  12.589   3.624 -0.0506 -0.0569 -0.2421
 1568SOL    HW1 9515  12.206  12.576   3.702 -1.0251 -1.2107 -1.0765
 1568SOL    HW2 9516  12.328  12.521   3.631 -2.3080 -2.7580 -2.1685
 1569SOL     OW 9517   1.612   6.478   6.020  0.0956  0.3103 -0.4979
 1569SOL    HW1 9518   1.701   6.442   6.020 -0.6769 -1.7162 -1.8399
 1569SOL    HW2 9519   1.577   6.455   6.107  0.7134  0.7515 -0.1230
 1570SOL     OW 9520   6.625  12.302   4.995 -0.7562  0.7011  0.0850
 1570SOL    HW1 9521   6.710  12.331   4.961 -0.0525 -0.5863  0.6961
 1570SOL    HW2 9522   6.602  12.369   5.059  1.4593 -0.6111  2.4145
 1571SOL     OW 9523  11.103  11.050   6.518 -0.0647 -0.5939  0.3600
 1571SOL    HW1 9524  11.109  11.115   6.448  0.9440 -0.2865  0.7188
 1571SOL    HW2 9525  11.070  10.971   6.474 -0.7299 -0.0249 -0.1928
 1572SOL     OW 9526   1.447   1.193   4.274  0.6855  0.7393  0.1174
 1572SOL    HW1 9527   1.471   1.102   4.294 -0.0050  0.9074  1.8943
 1572SOL    HW2 9528   1.358   1.187   4.239  1.3838  0.5744 -1.7110
 1573SOL     OW 9529   1.846   4.220   2.006 -0.2708 -0.7760  0.2031
 1573SOL    HW1 9530   1.800   4.155   2.058 -1.1235  0.2283  0.7469
 1573SOL    HW2 9531   1.781   4.290   1.992  0.7393  0.1498 -0.0039
 1574SOL     OW 9532   7.950  11.898   9.601  0.2910 -0.0853 -0.1253
 1574SOL    HW1 9533   7.906  11.909   9.516 -3.1331  1.5109  1.6496
 1574SOL    HW2 9534   7.922  11.812   9.632 -0.1952  0.1974  0.2408
 1575SOL     OW 9535   4.748  11.805  11.061 -0.1697  0.1883  0.4079
 1575SOL    HW1 9536   4.793  11.763  11.135  0.0559 -0.7265 -0.2348
 1575SOL    HW2 9537   4.801  11.782  10.985 -1.7532 -1.0049 -0.3926
 1576SOL     OW 9538   5.379   9.166   3.350 -0.4311  0.4276  0.0182
 1576SOL    HW1 9539   5.399   9.259   3.360  0.5638  0.3886 -1.3586
 1576SOL    HW2 9540   5.411   9.144   3.263  2.8214 -2.0531  1.6115
 1577SOL     OW 9541   2.938   8.117   9.122 -0.3441 -0.1866 -0.5871
 1577SOL    HW1 9542   3.010   8.160   9.167  0.3548 -0.2273 -1.6440
 1577SOL    HW2 9543   2.870   8.107   9.189  0.0990  1.0869  0.0831
 1578SOL     OW 9544  11.595   6.918   9.903  0.1215  0.3781 -0.4711
 1578SOL    HW1 9545  11.544   6.867   9.965  1.2808  0.8826  0.9355
 1578SOL    HW2 9546  11.665   6.859   9.874 -0.2837  0.2164 -1.1519
 1579SOL     OW 9547   8.118  10.156   7.763 -0.1804 -0.0304  0.0317
 1579SOL    HW1 9548   8.144  10.192   7.848 -0.4589 -0.5123  0.3245
 1579SOL    HW2 9549   8.043  10.100   7.783 -1.2701  1.1107 -0.7627
 1580SOL     OW 9550   3.515  12.110   2.212  0.3240 -0.0639  0.1515
 1580SOL    HW1 9551   3.508  12.205   2.220 -1.8636 -0.0815 -0.7796
 1580SOL    HW2 9552   3.602  12.096   2.175  0.6084  1.5842  0.0974
 1581SOL     OW 9553   4.302   1.588  11.091  0.5004 -0.6560 -0.2633
 1581SOL    HW1 9554   4.207   1.601  11.096  0.4191 -1.7193  2.2739
 1581SOL    HW2 9555   4.336   1.673  11.063 -1.0077  0.7022  1.7858
 1582SOL     OW 9556   2.100   0.627   1.144  0.4566 -0.3741  0.7009
 1582SOL    HW1 9557   2.091   0.705   1.199 -0.8987 -0.0174  0.0044
 1582SOL    HW2 9558   2.192   0.602   1.154  0.5505  0.4121  2.1218
 1583SOL     OW 9559   4.561   7.517   5.963 -0.2573  0.0648 -0.2586
 1583SOL    HW1 9560   4.501   7.479   5.899  0.1115  0.2111 -0.6932
 1583SOL    HW2 9561   4.629   7.451   5.975 -0.5379 -0.1344  0.2930
 1584SOL     OW 9562  10.918   7.428   2.866 -0.0473 -0.2309 -0.0182
 1584SOL    HW1 9563  10.876   7.460   2.787 -0.8496 -0.5149  0.2851
 1584SOL    HW2 9564  10.908   7.333   2.863  1.4922 -0.3954 -0.4462
 1585SOL     OW 9565  10.383   1.995   2.655  0.9356  0.0226 -0.2207
 1585SOL    HW1 9566  10.409   2.065   2.715 -0.6217  0.3999  0.0511
 1585SOL    HW2 9567  10.340   1.930   2.711  0.0912  0.0559 -0.8155
 1586SOL     OW 9568   3.960   7.437   6.575 -0.2474 -0.1096  0.3366
 1586SOL    HW1 9569   3.935   7.346   6.558  0.6352 -0.1840 -0.6645
 1586SOL    HW2 9570   3.933   7.453   6.666 -1.0886 -1.1273  0.2819
 1587SOL     OW 9571   4.650   0.129   1.890  0.0734  0.4537 -0.0929
 1587SOL    HW1 9572   4.706   0.076   1.834  0.3820  1.0847 -0.3954
 1587SOL    HW2 9573   4.646   0.214   1.847 -0.9118  0.5018  0.0586
 1588SOL     OW 9574   2.601  10.238  10.166 -0.1186  0.0728 -0.3294
 1588SOL    HW1 9575   2.640  10.152  10.181  1.1736  0.8370  1.0602
 1588SOL    HW2 9576   2.676  10.297  10.162 -0.9854  1.1457 -1.2233
 1589SOL     OW 9577   5.876  11.768   9.476  0.0282  0.0420 -0.0721
 1589SOL    HW1 9578   5.933  11.696   9.503 -0.0914 -0.4279 -1.0127
 1589SOL    HW2 9579   5.876  11.828   9.550  2.3724  0.4638 -0.3400
 1590SOL     OW 9580   9.844   2.454   8.846  0.1631  0.0921  0.4890
 1590SOL    HW1 9581   9.893   2.417   8.919  2.2265  1.7146  0.0161
 1590SOL    HW2 9582   9.789   2.522   8.886 -3.7160 -3.1537  1.3760
 1591SOL     OW 9583   1.496  10.621   5.524  0.0694  0.5741  0.1009
 1591SOL    HW1 9584   1.529  10.585   5.442 -0.9594 -0.5217  0.1383
 1591SOL    HW2 9585   1.574  10.630   5.579  0.6493  0.4681 -0.6829
 1592SOL     OW 9586  11.281  11.232  11.631  0.2811  0.4885  0.2035
 1592SOL    HW1 9587  11.357  11.263  11.581  0.0277  0.1910 -0.3737
 1592SOL    HW2 9588  11.218  11.304  11.627  0.2000  0.4031 -0.0339
 1593SOL     OW 9589  10.828  10.832  10.804 -0.5735 -0.2141 -0.2577
 1593SOL    HW1 9590  10.867  10.754  10.841 -0.3313 -0.3101 -0.7008
 1593SOL    HW2 9591  10.795  10.882  10.879 -1.6782 -1.2346 -0.0372
 1594SOL     OW 9592   3.453  10.803   0.906 -0.0032  0.0584 -1.0794
 1594SOL    HW1 9593   3.497  10.732   0.953 -1.5155 -0.6685 -0.6898
 1594SOL    HW2 9594   3.523  10.845   0.855  1.4301  0.0465  0.7804
 1595SOL     OW 9595   1.894   3.013   7.530  0.4978 -0.5587 -0.0900
 1595SOL    HW1 9596   1.910   3.107   7.525 -0.4499 -0.4225 -0.8582
 1595SOL    HW2 9597   1.803   3.006   7.559  1.2744 -1.2724  2.3981
 1596SOL     OW 9598  11.658   6.480   0.193 -0.1669  0.2659 -0.3748
 1596SOL    HW1 9599  11.567   6.500   0.215 -0.2560  0.1021 -0.6001
 1596SOL    HW2 9600  11.709   6.541   0.247 -0.3131 -1.2948  1.6444
 1597SOL     OW 9601   7.207   7.308  11.364  0.2795 -0.2218 -0.6001
 1597SOL    HW1 9602   7.296   7.273  11.368  0.7514  0.8847 -1.2170
 1597SOL    HW2 9603   7.164   7.273  11.443  1.2289 -0.8175 -0.3353
 1598SOL     OW 9604   3.565   0.298   2.755  0.1978 -0.8238  0.0762
 1598SOL    HW1 9605   3.510   0.224   2.782 -0.3268 -0.6028 -0.3741
 1598SOL    HW2 9606   3.532   0.323   2.669 -0.0060  0.2965  0.4607
 1599SOL     OW 9607   1.823  11.314   4.581 -0.2628 -0.4869  0.0109
 1599SOL    HW1 9608   1.895  11.251   4.590 -1.1576 -1.6973 -0.9125
 1599SOL    HW2 9609   1.863  11.390   4.539  0.6756 -0.7661  0.3788
 1600SOL     OW 9610  10.455  11.777   2.530 -0.2511 -0.4705 -0.1351
 1600SOL    HW1 9611  10.462  11.697   2.478 -2.1560 -0.7856  0.0171
 1600SOL    HW2 9612  10.390  11.830   2.485  0.1751  0.5136  0.3735
 1601SOL     OW 9613   6.166   9.269  10.803  0.3160 -0.2793  0.1632
 1601SOL    HW1 9614   6.171   9.239  10.894  2.1645 -0.9403 -0.1199
 1601SOL    HW2 9615   6.229   9.215  10.756  1.3873  1.8625 -1.0035
 1602SOL     OW 9616  11.290  12.525  12.279  0.5988  0.3759 -0.4661
 1602SOL    HW1 9617  11.271  12.458  12.213 -0.6117  1.2626 -1.0491
 1602SOL    HW2 9618  11.359  12.578  12.239  1.6418 -0.5497  0.0436
 1603SOL     OW 9619   9.045   0.392   0.262 -0.3919  0.4779 -0.2174
 1603SOL    HW1 9620   9.088   0.327   0.317 -2.1318 -0.4399  0.1324
 1603SOL    HW2 9621   9.074   0.477   0.297  0.8380 -0.0879  0.1912
 1604SOL     OW 9622  12.633  12.144  12.581  0.1720 -0.8023 -0.5332
 1604SOL    HW1 9623  12.686  12.144  12.661  0.7725 -0.5600 -0.9309
 1604SOL    HW2 9624  12.652  12.228  12.539  1.1849 -1.6209 -1.7928
 1605SOL     OW 9625  12.098   7.287   0.797  0.1596  0.3094 -0.2524
 1605SOL    HW1 9626  12.177   7.339   0.786  0.8430 -0.8499 -0.9586
 1605SOL    HW2 9627  12.122   7.199   0.770 -1.7701  0.2170 -1.9245
 1606SOL     OW 9628   6.360   9.951  10.749  0.6715  0.3545 -0.0647
 1606SOL    HW1 9629   6.426   9.951  10.819  1.6765  0.3017 -1.0010
 1606SOL    HW2 9630   6.324   9.862  10.751  1.2974  0.0947 -0.1675
 1607SOL     OW 9631   4.807   7.469   6.883  0.2248  0.0472 -0.3250
 1607SOL    HW1 9632   4.825   7.406   6.813 -1.4259  0.0605 -0.7979
 1607SOL    HW2 9633   4.883   7.462   6.941  2.1407  0.7244 -2.5774
 1608SOL     OW 9634   3.869   5.186   5.959 -0.0104  0.7205  0.6210
 1608SOL    HW1 9635   3.864   5.282   5.967  0.1938  0.7018  1.0297
 1608SOL    HW2 9636   3.778   5.158   5.947 -0.3114  0.8253  2.3711
 1609SOL     OW 9637   9.715   0.486   7.261  0.0038 -0.0392  0.1326
 1609SOL    HW1 9638   9.795   0.435   7.245 -0.3794 -0.0053 -2.2223
 1609SOL    HW2 9639   9.662   0.473   7.183 -1.6509  1.1888  0.9881
 1610SOL     OW 9640   4.288   3.600   6.535  0.3516 -0.3297  0.0749
 1610SOL    HW1 9641   4.377   3.629   6.555 -0.0624  0.6727  0.4989
 1610SOL    HW2 9642   4.232   3.673   6.559 -0.5680 -0.7949 -0.5629
 1611SOL     OW 9643   9.248   7.084   0.075 -0.7795 -0.6255  0.3422
 1611SOL    HW1 9644   9.165   7.061   0.117 -1.2914 -0.9916 -0.8214
 1611SOL    HW2 9645   9.313   7.080   0.145 -1.3072 -2.9504  0.7792
 1612SOL     OW 9646   0.979   5.885   9.257  0.4815  0.5219  0.2543
 1612SOL    HW1 9647   1.069   5.858   9.241  0.6240  2.1106 -2.0650
 1612SOL    HW2 9648   0.972   5.972   9.218 -1.6777  1.0717  1.6839
 1613SOL     OW 9649   3.218   2.666   8.539 -0.2246  0.1575 -0.5054
 1613SOL    HW1 9650   3.126   2.683   8.559  0.1171  1.2726  0.1933
 1613SOL    HW2 9651   3.215   2.611   8.460 -1.5240 -1.9770  0.9432
 1614SOL     OW 9652   9.645   4.621   3.475 -0.2876  0.0350  0.1600
 1614SOL    HW1 9653   9.597   4.615   3.558  0.0415 -0.2758  0.3292
 1614SOL    HW2 9654   9.578   4.644   3.410 -0.3507  1.6546  0.7299
 1615SOL     OW 9655  11.226   5.059  11.636 -0.5164  0.0862  0.0434
 1615SOL    HW1 9656  11.216   4.967  11.613 -0.7794  0.0370  0.3442
 1615SOL    HW2 9657  11.300   5.089  11.583 -0.1658 -0.4043  0.2419
 1616SOL     OW 9658   2.325   4.472   4.000 -0.2092 -0.7051 -0.0078
 1616SOL    HW1 9659   2.379   4.397   3.975  1.4025  0.7575 -1.1722
 1616SOL    HW2 9660   2.335   4.534   3.928  2.6331  2.7204  2.9476
 1617SOL     OW 9661   1.569   8.514   4.996 -0.0783 -0.1802 -0.5003
 1617SOL    HW1 9662   1.583   8.422   5.015  2.5326  0.5312  1.5056
 1617SOL    HW2 9663   1.542   8.552   5.080  0.0961  1.0825 -0.9973
 1618SOL     OW 9664   9.306   5.189   6.505  0.5269 -0.3179  0.6121
 1618SOL    HW1 9665   9.239   5.247   6.540 -0.2166 -1.3069  0.8720
 1618SOL    HW2 9666   9.369   5.179   6.577  1.4007  1.2162  0.1166
 1619SOL     OW 9667   8.788   8.825   9.565 -0.1984  0.0444 -0.1825
 1619SOL    HW1 9668   8.865   8.824   9.623 -0.4320  0.6872  0.1433
 1619SOL    HW2 9669   8.824   8.802   9.479 -0.1850 -3.2297  0.5665
 1620SOL     OW 9670   2.291   3.871   7.849 -0.4918 -0.0944 -0.3374
 1620SOL    HW1 9671   2.214   3.815   7.848 -0.4404 -0.1567 -0.8671
 1620SOL    HW2 9672   2.344   3.841   7.776 -2.3110  3.1882 -3.3326
 1621SOL     OW 9673   0.322   5.723   2.079 -0.0650 -0.0275  0.2542
 1621SOL    HW1 9674   0.393   5.785   2.059 -0.6568  0.5720 -0.0182
 1621SOL    HW2 9675   0.366   5.652   2.126  0.9299 -0.2717 -0.9826
 1622SOL     OW 9676  10.492   4.959   1.816 -0.2535  0.3811 -0.0869
 1622SOL    HW1 9677  10.398   4.979   1.817 -0.9070 -2.2531 -0.1864
 1622SOL    HW2 9678  10.527   5.005   1.892 -2.4602 -1.7720  2.4562
 1623SOL     OW 9679  10.112  12.141  10.867 -0.1121 -0.2457  0.3153
 1623SOL    HW1 9680  10.036  12.178  10.820  0.2565 -0.5187 -0.5190
 1623SOL    HW2 9681  10.086  12.143  10.959 -0.9762  0.0361  0.0805
 1624SOL     OW 9682   5.893  11.356   0.943 -0.5223 -0.0172 -0.1681
 1624SOL    HW1 9683   5.913  11.433   0.996  0.3360  0.2029 -0.7807
 1624SOL    HW2 9684   5.893  11.388   0.853  0.8896 -0.9039 -0.5267
 1625SOL     OW 9685   8.283   6.072   6.625 -0.6127  0.2067  0.2702
 1625SOL    HW1 9686   8.192   6.098   6.611 -0.5168  0.1735 -0.4278
 1625SOL    HW2 9687   8.319   6.140   6.683 -1.0866  0.2021  0.5741
 1626SOL     OW 9688  11.589   4.589  10.858  0.2841 -0.4867  0.1959
 1626SOL    HW1 9689  11.606   4.529  10.786  1.2344  1.0919 -0.9568
 1626SOL    HW2 9690  11.613   4.676  10.824  0.0715  0.4062  2.1644
 1627SOL     OW 9691   8.881   6.737   2.248  0.1450  0.3082 -0.5613
 1627SOL    HW1 9692   8.929   6.683   2.186 -0.2207 -0.7090  0.0170
 1627SOL    HW2 9693   8.793   6.743   2.211 -0.4383 -1.3717  0.4468
 1628SOL     OW 9694  10.783   7.041  10.318 -0.4211  0.0393  0.1985
 1628SOL    HW1 9695  10.748   7.096  10.388  0.1823  0.0646  0.4819
 1628SOL    HW2 9696  10.841   6.980  10.362  0.7955  0.7368 -0.3982
 1629SOL     OW 9697   7.515  12.337   6.508 -0.0246 -0.6346 -0.1013
 1629SOL    HW1 9698   7.577  12.408   6.490  0.7511 -1.3042 -0.1612
 1629SOL    HW2 9699   7.512  12.286   6.427 -0.5843 -0.6658 -0.0650
 1630SOL     OW 9700  11.602   2.182   1.377 -0.3789  0.0003  0.6217
 1630SOL    HW1 9701  11.534   2.217   1.319  0.1415 -0.9932 -0.6449
 1630SOL    HW2 9702  11.663   2.137   1.318  0.9655  0.1981  1.8063
 1631SOL     OW 9703  10.609   0.559   0.290 -0.0187 -0.1028 -0.2882
 1631SOL    HW1 9704  10.534   0.501   0.304 -0.5415  0.4522 -0.7260
 1631SOL    HW2 9705  10.647   0.529   0.207  0.1633 -0.2975 -0.1348
 1632SOL     OW 9706   2.142   4.251   2.638  0.1990  0.0612  0.0193
 1632SOL    HW1 9707   2.054   4.257   2.603 -0.3653 -1.5395  1.0596
 1632SOL    HW2 9708   2.139   4.304   2.718  0.0993 -0.1885  0.1830
 1633SOL     OW 9709   5.017  11.231   8.600 -0.6735 -0.3101 -0.3586
 1633SOL    HW1 9710   5.090  11.293   8.592 -1.2222  0.4963  0.5889
 1633SOL    HW2 9711   4.939  11.287   8.599 -1.1466 -0.8837  1.4643
 1634SOL     OW 9712   4.570   1.664   8.357 -0.3992  0.1167 -0.2415
 1634SOL    HW1 9713   4.485   1.621   8.351 -0.7699  0.6908  0.7005
 1634SOL    HW2 9714   4.554   1.743   8.408 -0.0686  2.2818 -3.2276
 1635SOL     OW 9715   6.836   9.256   0.424  0.2532 -0.4855 -0.5235
 1635SOL    HW1 9716   6.840   9.249   0.328  0.7669 -1.2622 -0.4573
 1635SOL    HW2 9717   6.847   9.349   0.442 -1.9193 -0.0312 -1.3002
 1636SOL     OW 9718   3.975   7.373   1.452 -0.2649 -0.3779 -0.4940
 1636SOL    HW1 9719   4.025   7.331   1.522 -0.2632 -1.1081 -0.9266
 1636SOL    HW2 9720   3.961   7.304   1.387 -2.6051 -0.4391  0.0045
 1637SOL     OW 9721  10.181   7.520   7.680 -0.2253 -0.1081 -0.5205
 1637SOL    HW1 9722  10.202   7.488   7.592 -0.8500  0.8437 -1.0274
 1637SOL    HW2 9723  10.159   7.441   7.729  0.9849 -0.7482 -0.9538
 1638SOL     OW 9724  11.061   2.228   2.959  0.0892  0.3115  0.2818
 1638SOL    HW1 9725  11.084   2.287   2.887  1.7598  1.2264  1.4819
 1638SOL    HW2 9726  11.119   2.255   3.031  0.5210 -2.4497  1.0630
 1639SOL     OW 9727  10.838   1.083   6.957  0.2551  0.4575 -0.0380
 1639SOL    HW1 9728  10.857   0.998   6.918 -0.0301  0.4369 -0.1377
 1639SOL    HW2 9729  10.920   1.110   6.999  0.5199  0.4033 -0.5120
 1640SOL     OW 9730   1.656   7.377  11.910  0.1431  0.3484  0.3355
 1640SOL    HW1 9731   1.616   7.457  11.877  0.1738 -0.6064 -2.3114
 1640SOL    HW2 9732   1.623   7.309  11.851  0.9628 -1.4250  1.8285
 1641SOL     OW 9733   3.700  11.000   2.424  0.3448  0.3559 -0.4032
 1641SOL    HW1 9734   3.669  10.920   2.467  0.7326  1.5714  2.3427
 1641SOL    HW2 9735   3.793  10.984   2.409  0.4889  0.3722  0.4103
 1642SOL     OW 9736   4.615   0.553   0.754  0.1594  0.0147  0.2968
 1642SOL    HW1 9737   4.543   0.583   0.699 -2.2498 -0.5200  2.9462
 1642SOL    HW2 9738   4.645   0.472   0.713 -1.7814 -0.5590 -0.0638
 1643SOL     OW 9739   5.707  11.091  11.246  0.2320  0.3838  0.2498
 1643SOL    HW1 9740   5.776  11.085  11.179  0.5147  0.5464  0.5221
 1643SOL    HW2 9741   5.716  11.010  11.296  1.0144  0.9272  1.0288
 1644SOL     OW 9742   2.399   8.758  12.507 -0.5868  0.0575  0.1267
 1644SOL    HW1 9743   2.369   8.672  12.476  0.2467  0.1226 -0.9178
 1644SOL    HW2 9744   2.411   8.746  12.601  0.4040 -1.2638 -0.1315
 1645SOL     OW 9745   1.619   5.464   6.512  0.1708 -0.0314 -0.1949
 1645SOL    HW1 9746   1.595   5.423   6.429  0.2450  0.5831 -0.5269
 1645SOL    HW2 9747   1.539   5.458   6.566  0.9711 -3.0872  0.8116
 1646SOL     OW 9748   9.221  10.851   2.939  0.7004 -0.3425  0.0971
 1646SOL    HW1 9749   9.207  10.757   2.949  2.1080 -0.6504 -0.6210
 1646SOL    HW2 9750   9.276  10.876   3.013  0.2512 -0.0574  0.3390
 1647SOL     OW 9751   1.812   6.694   9.483  0.2326 -0.0398 -0.6531
 1647SOL    HW1 9752   1.906   6.708   9.469 -0.1021  0.5707 -2.6625
 1647SOL    HW2 9753   1.778   6.779   9.510  0.2406 -0.2756  0.1347
 1648SOL     OW 9754   0.761   9.438   4.674 -0.5997  0.0618  0.5099
 1648SOL    HW1 9755   0.676   9.410   4.641 -0.9554  1.3027  0.2938
 1648SOL    HW2 9756   0.823   9.412   4.607 -1.0883  0.9329 -0.3100
 1649SOL     OW 9757   4.194   8.065  11.952 -0.0121  0.3253  0.0918
 1649SOL    HW1 9758   4.153   8.097  11.872 -1.2395 -3.2214 -0.8585
 1649SOL    HW2 9759   4.279   8.030  11.924 -0.7795 -1.6484  0.1109
 1650SOL     OW 9760   1.200   1.331   2.494  0.4447  0.0849 -0.3839
 1650SOL    HW1 9761   1.158   1.379   2.423  0.0004 -0.5281 -0.5386
 1650SOL    HW2 9762   1.133   1.323   2.562  0.9127  0.8132  0.1921
 1651SOL     OW 9763   3.098   5.051   1.055  0.1044  0.1804  0.3925
 1651SOL    HW1 9764   3.191   5.037   1.039  0.5954  1.9424  1.3826
 1651SOL    HW2 9765   3.082   5.141   1.028 -1.2101  0.0756  0.7273
 1652SOL     OW 9766   0.345   8.428   7.976 -0.5182 -0.5910  0.6899
 1652SOL    HW1 9767   0.326   8.508   7.928 -0.0821 -0.2531  1.0722
 1652SOL    HW2 9768   0.354   8.361   7.908 -1.4813 -0.4498  0.4085
 1653SOL     OW 9769  10.499   1.422   4.553  0.1884 -0.2038 -0.2667
 1653SOL    HW1 9770  10.434   1.471   4.603  0.6960  2.1649 -1.7607
 1653SOL    HW2 9771  10.570   1.406   4.615  0.0295  1.0553  0.2609
 1654SOL     OW 9772   9.934  10.496   1.217  0.9597 -0.6991  0.3289
 1654SOL    HW1 9773   9.891  10.520   1.300  1.6601  0.7642  0.2946
 1654SOL    HW2 9774  10.027  10.508   1.234  1.1767 -1.2862 -0.4033
 1655SOL     OW 9775   3.904   7.235  12.293 -0.4115  0.3395  0.2531
 1655SOL    HW1 9776   3.828   7.292  12.305 -0.3561  0.3058  0.8294
 1655SOL    HW2 9777   3.868   7.156  12.252 -0.4651  0.8288 -0.6569
 1656SOL     OW 9778   6.758   2.076   3.662  0.1357 -0.1607  0.3074
 1656SOL    HW1 9779   6.740   2.127   3.583  1.7876  1.5132  0.9211
 1656SOL    HW2 9780   6.679   2.083   3.714 -1.0614 -1.4690 -1.2478
 1657SOL     OW 9781  10.155   7.406  10.779 -0.6875  0.1580 -0.2808
 1657SOL    HW1 9782  10.073   7.368  10.747 -1.4031  1.0210  0.4621
 1657SOL    HW2 9783  10.157   7.384  10.872 -2.0982  3.4324  0.6606
 1658SOL     OW 9784   8.465   1.898  11.717 -0.1021  0.0245  0.1316
 1658SOL    HW1 9785   8.550   1.930  11.745 -0.5515  1.2878  0.0985
 1658SOL    HW2 9786   8.440   1.833  11.783  0.7626 -0.1603  0.2786
 1659SOL     OW 9787   5.349   2.341   0.274 -0.2074  0.4818 -0.4283
 1659SOL    HW1 9788   5.402   2.269   0.240 -0.5665  0.5809 -1.2185
 1659SOL    HW2 9789   5.262   2.304   0.285 -0.0991  0.4525  0.4066
 1660SOL     OW 9790   4.618   7.880   0.145  0.0941  0.3680 -0.3651
 1660SOL    HW1 9791   4.598   7.796   0.105 -1.1969  0.8758 -0.8275
 1660SOL    HW2 9792   4.598   7.944   0.077 -0.2752  1.1260  0.4359
 1661SOL     OW 9793  12.013   3.464   6.972  0.2564  0.4974 -0.6866
 1661SOL    HW1 9794  12.010   3.545   7.023 -2.4252  0.0778  0.0022
 1661SOL    HW2 9795  12.045   3.398   7.034  0.0666  0.5934 -0.4810
 1662SOL     OW 9796   1.587   2.494   4.287  0.6023 -0.5931 -1.1097
 1662SOL    HW1 9797   1.551   2.437   4.220 -1.0729 -1.7465  0.6487
 1662SOL    HW2 9798   1.521   2.494   4.357  1.4277  1.9606 -0.1945
 1663SOL     OW 9799   2.619   3.283   7.909 -0.0798  0.5710  0.1085
 1663SOL    HW1 9800   2.540   3.241   7.943 -0.1722  0.6013 -0.0638
 1663SOL    HW2 9801   2.596   3.376   7.901 -0.1506  0.5245 -0.2812
 1664SOL     OW 9802   7.751  10.488   7.023 -0.3025  1.2723 -0.5447
 1664SOL    HW1 9803   7.785  10.476   7.112 -0.4981  0.7906 -0.5315
 1664SOL    HW2 9804   7.661  10.455   7.027 -0.1580  0.8114 -1.0353
 1665SOL     OW 9805   8.215   2.881   6.577 -0.0445  0.1420  0.0086
 1665SOL    HW1 9806   8.144   2.929   6.535  0.9245  0.5545 -1.2232
 1665SOL    HW2 9807   8.266   2.845   6.504  1.2822  0.2636  0.8437
 1666SOL     OW 9808   4.616  10.027  11.056  0.1889 -0.0858 -0.3003
 1666SOL    HW1 9809   4.623   9.990  10.968 -0.8741 -3.0790  0.7176
 1666SOL    HW2 9810   4.696   9.999  11.100  0.0754  0.1739  0.0756
 1667SOL     OW 9811   2.341  12.579  11.172  0.7471 -0.2823  0.0318
 1667SOL    HW1 9812   2.382  12.545  11.252 -1.3295 -0.8877  0.8945
 1667SOL    HW2 9813   2.306  12.664  11.197 -1.2176 -1.1040  0.2633
 1668SOL     OW 9814  11.023   9.729   5.135 -0.5226 -0.6286  0.4384
 1668SOL    HW1 9815  11.094   9.788   5.158 -2.6597  2.9852 -1.2922
 1668SOL    HW2 9816  10.964   9.732   5.210 -0.9462  0.0318  0.0892
 1669SOL     OW 9817   8.957  11.397   9.813 -0.3218  0.0856  0.0798
 1669SOL    HW1 9818   8.920  11.411   9.900 -0.5107 -1.8022  0.3409
 1669SOL    HW2 9819   8.881  11.388   9.756 -0.2368 -0.2565  0.0141
 1670SOL     OW 9820   0.645   4.739   1.639 -0.4749  0.0899 -0.4236
 1670SOL    HW1 9821   0.712   4.735   1.571 -0.1071 -0.8037 -0.0291
 1670SOL    HW2 9822   0.567   4.701   1.598 -0.1736 -0.7159 -0.2730
 1671SOL     OW 9823   5.721   3.623   0.239 -0.8521 -0.2933 -0.6677
 1671SOL    HW1 9824   5.712   3.529   0.251  0.7413 -0.3049  0.9061
 1671SOL    HW2 9825   5.735   3.657   0.328 -0.8911  1.3690 -1.2633
 1672SOL     OW 9826   3.746   1.217  11.352 -0.2060  0.6054  0.1092
 1672SOL    HW1 9827   3.655   1.189  11.361 -0.0330  0.0416  0.1772
 1672SOL    HW2 9828   3.750   1.260  11.266  0.0389 -1.7717 -1.1566
 1673SOL     OW 9829  11.109   2.472   8.745 -0.1350 -0.0829  0.2264
 1673SOL    HW1 9830  11.138   2.386   8.717 -1.2566  0.0941 -1.6535
 1673SOL    HW2 9831  11.020   2.458   8.778  0.1141  0.1851  1.0420
 1674SOL     OW 9832   3.871   0.809   4.447  0.3024  0.3464  0.4962
 1674SOL    HW1 9833   3.776   0.809   4.452  0.1802  1.0766 -1.0722
 1674SOL    HW2 9834   3.898   0.883   4.502 -0.1729  1.2275 -0.4194
 1675SOL     OW 9835   4.577   4.362   5.720 -0.5400 -0.4702  0.1397
 1675SOL    HW1 9836   4.553   4.289   5.663  0.1981 -0.7561  0.1883
 1675SOL    HW2 9837   4.503   4.422   5.713 -0.7773 -0.8244 -0.5699
 1676SOL     OW 9838   0.172  11.016   9.126 -0.4233  0.1641 -0.1798
 1676SOL    HW1 9839   0.102  11.081   9.136 -0.0498  0.3756  1.3601
 1676SOL    HW2 9840   0.127  10.937   9.097 -1.2844  0.3734  0.5133
 1677SOL     OW 9841   1.527   9.990   6.740 -0.5366  0.1986  0.2706
 1677SOL    HW1 9842   1.441   9.958   6.713 -0.6405  0.6377  0.0599
 1677SOL    HW2 9843   1.547   9.943   6.821 -0.9031 -0.0184  0.2349
 1678SOL     OW 9844   9.635   5.609   9.573  0.6418 -0.6570 -0.3511
 1678SOL    HW1 9845   9.668   5.550   9.507  1.0810 -1.1504  0.2976
 1678SOL    HW2 9846   9.637   5.559   9.654 -0.6005 -0.3177 -0.0827
 1679SOL     OW 9847   4.267   3.683   8.964 -0.6491  0.0052  0.4525
 1679SOL    HW1 9848   4.271   3.727   9.049 -0.5027  0.6774  0.1033
 1679SOL    HW2 9849   4.179   3.645   8.961 -1.0455  0.9160  0.4456
 1680SOL     OW 9850   8.682  11.701  11.791  0.1802  0.5979  0.3689
 1680SOL    HW1 9851   8.601  11.726  11.746  0.2146  1.3081  0.6911
 1680SOL    HW2 9852   8.665  11.718  11.883 -0.7917 -3.1868  1.0619
 1681SOL     OW 9853   2.300   2.484   6.071  0.7030  0.1278  0.4066
 1681SOL    HW1 9854   2.363   2.550   6.044  0.3216 -0.4162 -2.0116
 1681SOL    HW2 9855   2.298   2.421   5.999 -0.6075 -1.3296  1.6269
 1682SOL     OW 9856   8.530   8.289   3.603 -0.5545  0.6843  0.0923
 1682SOL    HW1 9857   8.567   8.218   3.656 -0.0976 -0.5464 -1.8182
 1682SOL    HW2 9858   8.444   8.305   3.641 -1.8149 -2.7316 -1.0045
 1683SOL     OW 9859   6.009   4.291   1.295 -0.5255  0.8529 -0.3753
 1683SOL    HW1 9860   6.050   4.206   1.282 -2.3306  0.0685 -1.2489
 1683SOL    HW2 9861   5.939   4.275   1.358 -1.0404  1.6441 -0.7308
 1684SOL     OW 9862  12.452  11.728   3.687 -0.2735  0.2353 -0.5423
 1684SOL    HW1 9863  12.545  11.706   3.680  0.8450  3.6948  1.2676
 1684SOL    HW2 9864  12.414  11.654   3.734  1.6818 -0.9679 -0.7352
 1685SOL     OW 9865   8.166   4.978   5.202  0.0485  0.3428 -0.2393
 1685SOL    HW1 9866   8.075   4.969   5.175 -0.3146  2.7191 -0.0758
 1685SOL    HW2 9867   8.214   4.992   5.120  0.2478 -0.6797 -0.3057
 1686SOL     OW 9868   5.215   1.819   2.170  0.6325  0.1778  0.5693
 1686SOL    HW1 9869   5.293   1.764   2.175  1.6584  1.4996 -0.1712
 1686SOL    HW2 9870   5.190   1.835   2.261  1.1797 -0.3261  0.8081
 1687SOL     OW 9871   1.133   7.222   8.210  0.0677 -0.4965  0.3070
 1687SOL    HW1 9872   1.169   7.309   8.191  0.2439 -0.7914 -0.7664
 1687SOL    HW2 9873   1.039   7.238   8.225  0.5590  0.2782  3.1555
 1688SOL     OW 9874   7.512   5.918   3.248  0.3418 -0.0796 -0.5247
 1688SOL    HW1 9875   7.542   5.946   3.161  1.1495 -1.4749 -0.7226
 1688SOL    HW2 9876   7.501   5.824   3.241  2.5440 -0.5783  1.4622
 1689SOL     OW 9877   0.446   4.573   2.840 -0.6137 -0.0018  0.1027
 1689SOL    HW1 9878   0.531   4.576   2.795 -1.1198  1.8774 -0.8521
 1689SOL    HW2 9879   0.399   4.501   2.798 -0.5173  0.7746 -1.4032
 1690SOL     OW 9880   0.619   9.575   8.097  0.9857  0.1882  0.0123
 1690SOL    HW1 9881   0.613   9.671   8.099 -1.7229  0.1713 -1.8741
 1690SOL    HW2 9882   0.534   9.545   8.130  2.0416 -1.6328  1.2175
 1691SOL     OW 9883   0.496  10.550   0.137 -0.1103 -0.4421  0.0368
 1691SOL    HW1 9884   0.546  10.627   0.110  0.4206 -1.0002 -0.6096
 1691SOL    HW2 9885   0.554  10.504   0.199 -1.0461  0.4719  1.6653
 1692SOL     OW 9886  11.324   9.209   9.278 -0.2859 -0.4138  0.3693
 1692SOL    HW1 9887  11.243   9.233   9.323 -0.5949 -1.9414  0.6706
 1692SOL    HW2 9888  11.355   9.131   9.324  0.6404 -0.6422 -0.6021
 1693SOL     OW 9889  10.586   6.578   3.427 -0.1588 -0.1258  0.1426
 1693SOL    HW1 9890  10.560   6.658   3.473 -4.2796 -0.9446 -0.4397
 1693SOL    HW2 9891  10.558   6.591   3.337  0.4568 -1.6820 -0.3144
 1694SOL     OW 9892   0.902   6.325   5.977  0.5303 -0.4784  0.2374
 1694SOL    HW1 9893   0.973   6.382   5.947  1.8020 -1.2878  1.6060
 1694SOL    HW2 9894   0.938   6.279   6.053 -1.0043 -1.9344  0.1353
 1695SOL     OW 9895   6.014   3.068   8.711 -0.1519  0.7810  0.4955
 1695SOL    HW1 9896   5.953   3.141   8.699 -0.7978  0.1155 -0.4403
 1695SOL    HW2 9897   6.099   3.105   8.687 -0.6836  0.8787 -1.4500
 1696SOL     OW 9898   7.834   1.918  12.122  0.1536  0.0278  0.7045
 1696SOL    HW1 9899   7.834   2.009  12.149  2.3189 -0.5804  3.1215
 1696SOL    HW2 9900   7.920   1.885  12.148  0.0360 -2.3383 -1.5086
 1697SOL     OW 9901   2.475   9.140  10.424 -0.4555 -0.2437  0.3326
 1697SOL    HW1 9902   2.497   9.225  10.463 -0.2233 -0.6410  1.0989
 1697SOL    HW2 9903   2.383   9.127  10.445 -0.7015  0.1651 -0.4640
 1698SOL     OW 9904   6.953   9.829   0.632 -0.5173 -0.0248  0.0660
 1698SOL    HW1 9905   6.946   9.902   0.571 -0.1642 -0.5921 -0.6779
 1698SOL    HW2 9906   7.041   9.795   0.619  0.1848  0.8520  2.1045
 1699SOL     OW 9907   4.231  12.267  10.591  0.3122  0.0401  0.5002
 1699SOL    HW1 9908   4.170  12.230  10.527  0.0739  0.2960  0.5765
 1699SOL    HW2 9909   4.190  12.349  10.618  0.3671 -0.1112  1.0495
 1700SOL     OW 9910   4.280  11.358  12.266 -0.4129 -0.0526 -0.1964
 1700SOL    HW1 9911   4.291  11.298  12.340 -0.4692  1.3803  1.0289
 1700SOL    HW2 9912   4.338  11.431  12.286 -0.8402  0.6109 -1.3094
 1701SOL     OW 9913   1.055   8.317   9.652 -0.5795 -0.0085  0.1707
 1701SOL    HW1 9914   0.984   8.288   9.710 -1.2606  3.4254  1.3330
 1701SOL    HW2 9915   1.119   8.357   9.711  1.5358 -1.4508 -1.0343
 1702SOL     OW 9916   2.547   2.039   7.344 -0.3484 -0.4382 -0.3446
 1702SOL    HW1 9917   2.584   2.074   7.263  1.3926  1.1201  1.0219
 1702SOL    HW2 9918   2.603   1.965   7.367 -0.2248 -0.2613 -0.0667
 1703SOL     OW 9919   3.532   8.974   5.099 -0.3183  0.1335  0.4077
 1703SOL    HW1 9920   3.455   8.960   5.156 -1.2982  0.8387 -0.7011
 1703SOL    HW2 9921   3.504   8.940   5.014  0.6964  0.2013  0.0435
 1704SOL     OW 9922   2.545   2.581   2.626  0.1352 -0.0508  0.1291
 1704SOL    HW1 9923   2.574   2.671   2.610 -2.0498  0.6373 -0.2312
 1704SOL    HW2 9924   2.489   2.560   2.552 -0.3044 -1.3085  0.7873
 1705SOL     OW 9925   7.669  12.484   0.304 -0.3401 -0.0314  0.4035
 1705SOL    HW1 9926   7.743  12.530   0.344 -1.1309 -0.2815  2.2510
 1705SOL    HW2 9927   7.663  12.401   0.352 -1.8296 -0.0071  0.3090
 1706SOL     OW 9928   4.361   7.615   2.599 -0.0322  0.0988 -0.2474
 1706SOL    HW1 9929   4.335   7.626   2.507  1.7946  0.5569 -0.7467
 1706SOL    HW2 9930   4.345   7.700   2.639  1.5085  0.6615 -0.7818
 1707SOL     OW 9931  12.041   2.630   5.964  0.5331 -0.1324 -0.1436
 1707SOL    HW1 9932  12.075   2.676   6.041  2.5366 -1.3835 -0.1951
 1707SOL    HW2 9933  12.024   2.700   5.901  2.3703  0.6849  0.1869
 1708SOL     OW 9934   3.908   1.164   8.640 -0.0238  0.3606 -0.5929
 1708SOL    HW1 9935   3.974   1.214   8.591 -0.0465  0.5648 -0.4209
 1708SOL    HW2 9936   3.955   1.088   8.673  0.5563  1.3188  0.9016
 1709SOL     OW 9937   5.005   7.770   2.125  0.1118  0.4423  0.2118
 1709SOL    HW1 9938   4.984   7.701   2.062 -0.1030 -0.9634  1.7467
 1709SOL    HW2 9939   4.924   7.820   2.135 -1.1224 -1.7384  2.1960
 1710SOL     OW 9940   7.329   9.616   1.684 -0.0350  0.0102  0.0182
 1710SOL    HW1 9941   7.316   9.684   1.618 -1.2355 -0.4710 -0.2646
 1710SOL    HW2 9942   7.241   9.594   1.713  0.4424 -0.1998  1.3745
 1711SOL     OW 9943  10.759   3.272   0.916 -0.5623  0.1711  0.5989
 1711SOL    HW1 9944  10.674   3.315   0.926 -1.2646 -0.9362 -0.4075
 1711SOL    HW2 9945  10.764   3.250   0.823  1.3767  1.2999  0.3802
 1712SOL     OW 9946  10.830  10.940   8.089  0.2373 -0.1451 -0.0225
 1712SOL    HW1 9947  10.925  10.937   8.103  0.2120 -0.1889  0.1475
 1712SOL    HW2 9948  10.798  10.858   8.126  0.1281 -0.1115 -0.0424
 1713SOL     OW 9949  11.488  10.265   3.805  0.6435  0.3219 -0.1573
 1713SOL    HW1 9950  11.580  10.272   3.780  0.0863 -0.9305 -2.9224
 1713SOL    HW2 9951  11.460  10.181   3.770 -1.2863  0.1026  1.7204
 1714SOL     OW 9952  11.475   6.397   0.846  0.3771 -0.7193 -0.0143
 1714SOL    HW1 9953  11.493   6.395   0.752  0.6481  0.2016  0.0022
 1714SOL    HW2 9954  11.548   6.446   0.883 -0.3538  0.0062  0.5049
 1715SOL     OW 9955   9.430  11.835   5.563  0.7390 -0.1780 -0.2633
 1715SOL    HW1 9956   9.502  11.848   5.625  0.8396  0.8889 -0.5851
 1715SOL    HW2 9957   9.359  11.891   5.596  0.3109 -0.6621 -0.3528
 1716SOL     OW 9958   8.571   3.832   1.806 -0.4362  0.2283  0.3602
 1716SOL    HW1 9959   8.616   3.765   1.858  1.1470  0.2750 -0.8527
 1716SOL    HW2 9960   8.484   3.797   1.791 -0.3412 -0.5709  1.5384
 1717SOL     OW 9961  10.461  11.229   0.826 -0.5846  0.0594  0.2254
 1717SOL    HW1 9962  10.506  11.228   0.911  0.1979 -1.2026 -0.1731
 1717SOL    HW2 9963  10.461  11.321   0.800 -1.1392  0.5128  1.7419
 1718SOL     OW 9964  10.184  10.056   3.754  0.3108 -0.2527 -0.6173
 1718SOL    HW1 9965  10.267  10.072   3.710  0.0117  0.4769 -0.9263
 1718SOL    HW2 9966  10.155  10.142   3.784 -1.3053 -0.1643 -2.2612
 1719SOL     OW 9967   7.760   6.593   4.017 -0.5477 -0.3218  0.4370
 1719SOL    HW1 9968   7.684   6.611   3.962  2.0200 -0.7394 -3.6779
 1719SOL    HW2 9969   7.799   6.679   4.033 -0.5070 -0.3265  0.3606
 1720SOL     OW 9970  12.427   4.153   7.247 -0.5032 -0.4148 -0.3214
 1720SOL    HW1 9971  12.375   4.105   7.311 -1.0445  0.3281 -0.1909
 1720SOL    HW2 9972  12.370   4.224   7.217  0.5181  0.6048  0.0512
 1721SOL     OW 9973   4.309   3.565   2.955 -0.4206  0.0296  0.1782
 1721SOL    HW1 9974   4.238   3.622   2.926 -1.6843 -0.6941  1.6812
 1721SOL    HW2 9975   4.266   3.482   2.976  1.4036 -1.6669 -2.2881
 1722SOL     OW 9976   6.499   6.697   3.781 -0.1358 -0.1004  0.4166
 1722SOL    HW1 9977   6.418   6.715   3.734 -0.3851 -0.1285  0.8332
 1722SOL    HW2 9978   6.475   6.631   3.847  0.0150  0.5898  1.1750
 1723SOL     OW 9979   5.655   2.460   2.708 -0.4151  0.3400  0.0447
 1723SOL    HW1 9980   5.653   2.497   2.620  0.7373  1.1494  0.3483
 1723SOL    HW2 9981   5.733   2.497   2.749 -0.2786 -0.9397  1.0171
 1724SOL     OW 9982  10.470   5.459   2.143 -0.2990 -0.2732 -0.1262
 1724SOL    HW1 9983  10.531   5.494   2.208  0.1779 -0.0633 -0.6801
 1724SOL    HW2 9984  10.427   5.536   2.106  0.1324 -0.3192 -0.7411
 1725SOL     OW 9985   0.508   9.540   4.231  1.2486 -0.4323  0.4576
 1725SOL    HW1 9986   0.558   9.579   4.158  1.9139 -1.7883  0.1650
 1725SOL    HW2 9987   0.422   9.582   4.226  1.3427 -0.3596 -0.9925
 1726SOL     OW 9988   9.553   4.492   6.340 -0.4557 -0.7625 -0.2553
 1726SOL    HW1 9989   9.551   4.401   6.311 -0.3879 -1.5280  1.9038
 1726SOL    HW2 9990   9.626   4.496   6.401  0.0145  0.9601 -0.8862
 1727SOL     OW 9991   1.805   5.835   7.682  0.1135 -0.0630  0.7177
 1727SOL    HW1 9992   1.747   5.864   7.612  0.2703  1.1199  1.0364
 1727SOL    HW2 9993   1.835   5.748   7.656  1.9909  1.2291 -1.8501
 1728SOL     OW 9994   6.672   6.989   6.586  0.9080 -0.2767 -0.1162
 1728SOL    HW1 9995   6.765   7.003   6.602  0.7177 -0.5669  1.3698
 1728SOL    HW2 9996   6.628   7.058   6.635  0.3360 -0.0018 -0.9902
 1729SOL     OW 9997   2.300   1.469  10.090 -0.0679  0.0143 -0.1810
 1729SOL    HW1 9998   2.355   1.393  10.107  1.7340  0.8968 -1.6527
 1729SOL    HW2 9999   2.325   1.532  10.157  0.7430  0.4069 -0.8354
 1730SOL     OW10000   9.092   7.353   4.872  0.1954 -0.8003 -0.0306
 1730SOL    HW110001   9.135   7.303   4.942 -0.0940 -2.1808 -0.8104
 1730SOL    HW210002   9.153   7.424   4.853  0.9857 -1.2948  0.5690
 1731SOL     OW10003   0.413   2.397  10.111  0.5687 -0.2176  0.0537
 1731SOL    HW110004   0.351   2.325  10.125 -0.0745  0.1768 -0.6667
 1731SOL    HW210005   0.376   2.470  10.160  1.4932 -0.5033  1.2101
 1732SOL     OW10006  10.130   9.996   1.960  0.6450  0.3405 -0.4714
 1732SOL    HW110007  10.068   9.979   1.889 -0.8325  1.9527  0.3561
 1732SOL    HW210008  10.124   9.918   2.016  0.6095 -0.2266 -1.2409
 1733SOL     OW10009  10.495   3.398   0.940  0.7515  0.2995 -0.3713
 1733SOL    HW110010  10.468   3.449   1.016  2.5370 -1.0289  1.2868
 1733SOL    HW210011  10.414   3.379   0.892 -0.3977  1.3381  1.0853
 1734SOL     OW10012  12.137   2.654   0.555  0.7639  0.0920  0.2496
 1734SOL    HW110013  12.201   2.592   0.590  1.2965 -0.5562 -1.7317
 1734SOL    HW210014  12.073   2.665   0.625  0.9254 -2.3188  0.8648
 1735SOL     OW10015   5.235   7.914  12.249 -0.1791  0.2691  0.5226
 1735SOL    HW110016   5.310   7.932  12.192  0.6691  0.3166  1.5994
 1735SOL    HW210017   5.249   7.824  12.279 -0.6422  0.2200  0.5879
 1736SOL     OW10018   7.356  10.632   8.731  0.1714 -0.3067 -0.0175
 1736SOL    HW110019   7.338  10.700   8.796  0.9100 -0.9633  0.9202
 1736SOL    HW210020   7.401  10.564   8.781 -0.5607 -1.4904 -0.9302
 1737SOL     OW10021   0.539   9.668   4.665 -0.4199  0.0489 -0.1290
 1737SOL    HW110022   0.582   9.620   4.735  0.1167  2.3346  1.2126
 1737SOL    HW210023   0.469   9.610   4.634  1.0826 -2.1211  0.3676
 1738SOL     OW10024  12.118  12.043   0.170 -0.1864 -0.2877 -0.1098
 1738SOL    HW110025  12.119  11.962   0.119 -0.2467  0.6644 -1.6802
 1738SOL    HW210026  12.207  12.052   0.204 -0.5200 -1.6870  1.2520
 1739SOL     OW10027   0.465   8.340   7.597 -0.1202 -0.5128  0.5364
 1739SOL    HW110028   0.436   8.283   7.668 -2.6040  0.5726  0.5117
 1739SOL    HW210029   0.426   8.304   7.519  1.7261 -1.0838 -0.1826
 1740SOL     OW10030   1.588   8.876   5.999  0.2466 -0.1107  0.0979
 1740SOL    HW110031   1.526   8.878   6.072  1.2875 -1.1749  1.0512
 1740SOL    HW210032   1.535   8.892   5.922 -0.9875  0.4192  1.0276
 1741SOL     OW10033   1.399  11.253  11.665 -0.2509  0.1586 -0.2008
 1741SOL    HW110034   1.404  11.192  11.739  0.9653  1.9541  1.3029
 1741SOL    HW210035   1.412  11.339  11.705 -1.9407  1.4415 -2.2202
 1742SOL     OW10036   7.634   7.283   4.161 -0.1783 -0.5722 -0.2104
 1742SOL    HW110037   7.665   7.359   4.209 -0.4470  0.1599 -1.1571
 1742SOL    HW210038   7.680   7.209   4.200  2.1405  0.3517 -1.0062
 1743SOL     OW10039  11.789  10.723   7.108 -0.1394 -0.1314  0.2132
 1743SOL    HW110040  11.745  10.806   7.094 -0.1308 -0.1944 -0.2049
 1743SOL    HW210041  11.841  10.736   7.187 -0.5936  0.0694  0.4819
 1744SOL     OW10042   6.510   1.516   6.793 -0.7765  0.4592  0.1824
 1744SOL    HW110043   6.481   1.500   6.883 -1.5332 -0.2679 -0.1653
 1744SOL    HW210044   6.467   1.446   6.742  2.2093 -1.1939 -0.2972
 1745SOL     OW10045   7.026   0.920   8.092  0.2863  0.7774 -0.1029
 1745SOL    HW110046   6.996   0.830   8.077 -1.6211  1.3687 -0.2090
 1745SOL    HW210047   7.057   0.949   8.006  0.9352  0.2198 -0.0626
 1746SOL     OW10048  10.703   5.748   7.868  0.4057  0.6545  0.0258
 1746SOL    HW110049  10.674   5.811   7.933 -0.9934  2.5370 -2.2694
 1746SOL    HW210050  10.747   5.800   7.801 -0.3965 -0.8066 -1.7487
 1747SOL     OW10051   3.156  12.309   0.278 -0.5565  0.4558 -0.0446
 1747SOL    HW110052   3.196  12.247   0.217 -0.2002 -0.7630  1.3701
 1747SOL    HW210053   3.089  12.259   0.324 -3.0260  2.1716 -1.5511
 1748SOL     OW10054   4.061   0.784  11.745 -0.0521 -0.0762 -0.5846
 1748SOL    HW110055   4.076   0.701  11.790  0.0865 -0.8394 -1.9819
 1748SOL    HW210056   4.135   0.792  11.685 -0.0884  1.0464 -0.4921
 1749SOL     OW10057  11.205  10.660  11.929 -0.6254 -0.4667  0.3930
 1749SOL    HW110058  11.137  10.696  11.986  0.1451  1.5566  0.0870
 1749SOL    HW210059  11.170  10.671  11.841  0.1026  0.6350  0.2310
 1750SOL     OW10060   8.372   6.793  11.709 -0.0602  0.5691 -0.1765
 1750SOL    HW110061   8.388   6.768  11.618 -0.7302  2.9030 -1.0273
 1750SOL    HW210062   8.316   6.871  11.702  0.1898  1.0325  2.2367
 1751SOL     OW10063  10.967   1.145   9.397  0.1391 -0.2157 -0.2278
 1751SOL    HW110064  10.926   1.090   9.465 -1.1514 -0.3093 -1.0668
 1751SOL    HW210065  11.046   1.096   9.373  1.6257  0.6581  2.4094
 1752SOL     OW10066   4.531  12.222   3.986 -0.2358  0.0412  0.5472
 1752SOL    HW110067   4.563  12.132   3.995  0.6731  0.4425  1.5495
 1752SOL    HW210068   4.495  12.243   4.073  2.8069  1.8322  1.5132
 1753SOL     OW10069   0.471   0.465   0.216  0.5993  0.1092  0.7390
 1753SOL    HW110070   0.539   0.501   0.159  0.6351 -0.1199  0.6356
 1753SOL    HW210071   0.389   0.493   0.176  0.5854 -1.1463 -0.1764
 1754SOL     OW10072   9.087   5.060   5.003 -0.0790  0.6305  0.2717
 1754SOL    HW110073   9.154   5.052   5.072 -0.2311  2.1283  0.6253
 1754SOL    HW210074   9.117   5.001   4.934  0.7444  0.0437  1.1021
 1755SOL     OW10075  12.379   2.392   0.640 -0.0589  0.5613 -0.5222
 1755SOL    HW110076  12.379   2.305   0.599 -1.3650 -0.1717  0.9170
 1755SOL    HW210077  12.453   2.389   0.701 -0.3885  0.2362 -0.1197
 1756SOL     OW10078   9.154   7.395  10.138 -0.2438 -0.3768 -0.0520
 1756SOL    HW110079   9.182   7.480  10.106  0.2060 -1.2535 -2.1642
 1756SOL    HW210080   9.230   7.359  10.184 -0.2041  0.0527  0.2195
 1757SOL     OW10081   4.206   1.197   1.969  0.1719 -0.1570 -0.1069
 1757SOL    HW110082   4.282   1.249   1.942  0.4996 -0.7319 -0.2888
 1757SOL    HW210083   4.131   1.246   1.935  0.5692 -1.1592 -2.6507
 1758SOL     OW10084   3.491  10.979   4.008 -0.4442  0.7553  0.8706
 1758SOL    HW110085   3.577  10.972   4.050 -0.3084  0.7198  0.5898
 1758SOL    HW210086   3.444  11.044   4.061  0.1345  1.5752  0.4010
 1759SOL     OW10087  10.147   0.762   7.045  0.3907  0.0600 -0.4170
 1759SOL    HW110088  10.148   0.716   7.129  1.7410  0.8802  0.0242
 1759SOL    HW210089  10.201   0.839   7.058 -1.9712  1.9568 -1.0927
 1760SOL     OW10090  11.126   2.614   4.853  0.4105 -0.2680  0.1007
 1760SOL    HW110091  11.092   2.535   4.895  2.2732 -0.2907  1.7059
 1760SOL    HW210092  11.048   2.669   4.837 -0.4682 -0.2355  3.6760
 1761SOL     OW10093   2.685   3.815  11.776 -0.1126  0.0241 -0.8398
 1761SOL    HW110094   2.648   3.740  11.730 -1.3531  0.7583 -1.0906
 1761SOL    HW210095   2.609   3.867  11.803  0.5632 -0.1173  1.6228
 1762SOL     OW10096   9.692   1.678   6.490  0.3619 -0.0451 -0.4128
 1762SOL    HW110097   9.616   1.717   6.446  0.6624  1.0864  0.0285
 1762SOL    HW210098   9.717   1.743   6.555  0.3719 -1.3777  0.9481
 1763SOL     OW10099  11.350   5.357   0.635  0.2007 -0.4883 -0.5596
 1763SOL    HW110100  11.349   5.355   0.730  0.0131  0.4035 -0.5394
 1763SOL    HW210101  11.258   5.358   0.609  0.2504 -0.8185 -0.7566
 1764SOL     OW10102   5.643   6.518   8.690  0.1455 -0.1728 -0.3816
 1764SOL    HW110103   5.603   6.494   8.774 -1.1353  0.1378 -0.8656
 1764SOL    HW210104   5.661   6.612   8.699  0.8398 -0.3287 -0.1377
 1765SOL     OW10105   6.741   4.421   5.662  0.3532  0.4350  0.0350
 1765SOL    HW110106   6.665   4.385   5.707  0.6054  0.8373  0.7944
 1765SOL    HW210107   6.809   4.427   5.729  1.1604 -0.2053 -0.7041
 1766SOL     OW10108   2.452   8.317   4.158  0.2860  0.2832 -0.4312
 1766SOL    HW110109   2.481   8.349   4.072 -0.5507  1.1397 -0.4169
 1766SOL    HW210110   2.480   8.385   4.219  0.8483 -0.3107 -0.0201
 1767SOL     OW10111  11.516  10.654   4.291  0.3208  0.0196  0.2362
 1767SOL    HW110112  11.495  10.614   4.376  0.2853 -1.0296 -0.2470
 1767SOL    HW210113  11.596  10.609   4.263  0.5536  0.6373 -0.1051
 1768SOL     OW10114  11.956   2.790   9.372 -0.4912 -0.0492 -0.9455
 1768SOL    HW110115  11.999   2.708   9.395  1.4676  1.5825  1.8749
 1768SOL    HW210116  11.883   2.798   9.434  0.4543  1.1077  0.0769
 1769SOL     OW10117  10.708   8.162   1.303 -0.1896  0.1392  0.8568
 1769SOL    HW110118  10.652   8.184   1.377  0.5210  0.9538  1.1790
 1769SOL    HW210119  10.771   8.099   1.338 -1.0912 -1.0331  0.4093
 1770SOL     OW10120   3.575   9.061   0.415  0.1816  0.2769 -0.4807
 1770SOL    HW110121   3.597   9.111   0.336  0.9225  0.5461 -0.1138
 1770SOL    HW210122   3.639   8.990   0.416  0.9205  0.9321  0.4783
 1771SOL     OW10123   4.980   9.984   9.771 -0.5000  0.1059  0.0909
 1771SOL    HW110124   4.924   9.933   9.712  0.5200  1.0206 -1.7702
 1771SOL    HW210125   5.020   9.920   9.829 -1.9424 -0.7717  0.1706
 1772SOL     OW10126  10.167   4.434   9.138 -0.5593  0.5483  0.2876
 1772SOL    HW110127  10.262   4.446   9.143 -0.4937  0.8002 -1.1180
 1772SOL    HW210128  10.132   4.500   9.197  0.0904  2.0208 -0.8943
 1773SOL     OW10129   8.795   8.758   4.279  0.1965  0.1798 -0.5097
 1773SOL    HW110130   8.812   8.807   4.359  0.3177 -2.7211  1.3883
 1773SOL    HW210131   8.701   8.769   4.264 -0.3428 -1.2326  1.5261
 1774SOL     OW10132  12.134   9.330   1.868  0.0914  0.3385  0.3549
 1774SOL    HW110133  12.227   9.308   1.864 -0.5521 -2.6908 -1.8939
 1774SOL    HW210134  12.101   9.279   1.942 -0.0101  0.3477  0.3158
 1775SOL     OW10135   0.748   2.059  12.277  0.3205  0.2572  0.2510
 1775SOL    HW110136   0.796   2.123  12.224 -1.8275  0.4899 -1.5978
 1775SOL    HW210137   0.816   2.005  12.317  2.1534  0.3117 -2.4683
 1776SOL     OW10138   9.040   7.739   0.573  0.3605  0.0269  0.5434
 1776SOL    HW110139   8.964   7.692   0.608 -1.3239  2.1639 -0.0126
 1776SOL    HW210140   9.059   7.806   0.638  2.9383 -1.4540  1.4806
 1777SOL     OW10141   6.875   5.190  11.508 -0.5801 -0.2886  0.1725
 1777SOL    HW110142   6.873   5.256  11.578 -0.4819 -1.6194  1.4895
 1777SOL    HW210143   6.788   5.193  11.469 -0.1639  1.5185 -0.6888
 1778SOL     OW10144   8.306   4.450  12.618  0.6741 -0.3205  0.8248
 1778SOL    HW110145   8.369   4.501  12.668  0.6604  0.1957  0.3277
 1778SOL    HW210146   8.316   4.481  12.528  0.4905 -1.0229  0.5555
 1779SOL     OW10147   7.046  12.311   0.752 -0.0485 -0.0758  0.0403
 1779SOL    HW110148   7.054  12.313   0.848  1.5558 -2.0047  0.0117
 1779SOL    HW210149   7.100  12.384   0.722 -0.0387  0.1449  0.5821
 1780SOL     OW10150   8.393  10.411   6.373 -0.2463 -0.2073  0.4248
 1780SOL    HW110151   8.416  10.447   6.288  1.2612  2.0698  1.6845
 1780SOL    HW210152   8.303  10.381   6.363 -0.1005 -0.0210 -1.9569
 1781SOL     OW10153   4.534   1.147   4.729  0.0617 -0.1182 -0.4289
 1781SOL    HW110154   4.441   1.134   4.748 -0.0940  0.9488 -0.4292
 1781SOL    HW210155   4.579   1.094   4.794 -0.5222  0.6224  0.6114
 1782SOL     OW10156   3.966   6.799   8.266 -0.4899  0.6164  0.1606
 1782SOL    HW110157   4.044   6.854   8.265  1.3115 -1.7466  0.1433
 1782SOL    HW210158   3.957   6.773   8.358 -1.1651  0.7524  0.1334
 1783SOL     OW10159   9.807   6.649   0.411  0.0969 -0.4824  1.0424
 1783SOL    HW110160   9.827   6.573   0.466  1.4937 -1.5126 -0.7711
 1783SOL    HW210161   9.770   6.611   0.331 -0.8379  0.8974  0.7783
 1784SOL     OW10162   6.657   0.821  10.136 -0.1490 -0.1552 -0.0613
 1784SOL    HW110163   6.705   0.903  10.126  0.0195 -0.1285  0.8263
 1784SOL    HW210164   6.606   0.834  10.217 -1.1250 -0.4346 -0.6130
 1785SOL     OW10165   9.411  12.278   4.513 -0.1876 -0.0509 -0.0381
 1785SOL    HW110166   9.372  12.356   4.552  0.1455 -0.4440  1.1197
 1785SOL    HW210167   9.375  12.275   4.424  1.3064  2.5074 -0.8182
 1786SOL     OW10168   9.900   3.927   9.516  0.2339 -0.0732  0.2178
 1786SOL    HW110169   9.899   3.883   9.601 -1.0312  1.5121  1.0826
 1786SOL    HW210170   9.835   3.997   9.525  1.1869  1.1037 -1.5322
 1787SOL     OW10171   9.165  10.450   8.804 -0.3765 -0.1488  0.8449
 1787SOL    HW110172   9.173  10.497   8.887 -0.9677  1.7349 -0.1119
 1787SOL    HW210173   9.237  10.387   8.805  0.2215  0.5112  2.3485
 1788SOL     OW10174   9.918   9.207   6.737 -0.3403 -0.4249  0.0490
 1788SOL    HW110175   9.977   9.281   6.725 -0.0751 -0.5600  0.5174
 1788SOL    HW210176   9.842   9.245   6.782 -1.2449  0.0392 -1.7983
 1789SOL     OW10177   8.255   0.928   3.731  0.5959 -0.1358 -0.0418
 1789SOL    HW110178   8.304   0.929   3.813  1.4238  0.9044 -0.5244
 1789SOL    HW210179   8.278   1.010   3.688 -0.6613 -0.1648 -0.8372
 1790SOL     OW10180   1.944   0.661  11.021 -0.1445 -0.1943  0.0246
 1790SOL    HW110181   1.887   0.702  11.087  1.7261  0.4433  1.3307
 1790SOL    HW210182   1.899   0.579  10.999 -0.6802 -0.6298  2.4183
 1791SOL     OW10183  10.628   9.875   2.928  0.1970  0.1442  0.0152
 1791SOL    HW110184  10.534   9.862   2.944 -0.0364  1.5840 -0.0042
 1791SOL    HW210185  10.640   9.970   2.933  2.0031 -0.1276  1.8562
 1792SOL     OW10186   9.559   3.535   0.478  0.1094 -0.3368 -0.1206
 1792SOL    HW110187   9.508   3.539   0.397  0.5892 -2.4296 -0.5781
 1792SOL    HW210188   9.567   3.626   0.506 -1.9870  0.2280 -1.2065
 1793SOL     OW10189   8.748  11.095  11.142  0.2068 -0.4011 -0.2932
 1793SOL    HW110190   8.738  11.135  11.229 -0.8419  2.5939 -1.6676
 1793SOL    HW210191   8.833  11.125  11.112 -0.5891  0.8700 -1.3494
 1794SOL     OW10192  12.271   6.396   3.511 -0.0024  0.9398 -0.2245
 1794SOL    HW110193  12.355   6.418   3.550  0.3254  1.0408 -0.9665
 1794SOL    HW210194  12.210   6.461   3.547  0.5310  1.7753 -0.7766
 1795SOL     OW10195   2.438   6.782   2.085  0.4414  0.0019 -0.2067
 1795SOL    HW110196   2.459   6.855   2.144 -0.5111 -1.2126  1.7704
 1795SOL    HW210197   2.384   6.821   2.016 -0.0508  1.1788  0.7962
 1796SOL     OW10198   7.225  12.609   1.108  0.1856  0.0919  0.6561
 1796SOL    HW110199   7.170  12.578   1.180 -1.3116  1.3895  0.1184
 1796SOL    HW210200   7.255  12.529   1.065 -2.7376 -0.7405 -0.0777
 1797SOL     OW10201  12.261  11.465   8.372 -0.0001  0.5158  0.8104
 1797SOL    HW110202  12.252  11.424   8.458 -0.2701 -0.8338  0.1632
 1797SOL    HW210203  12.355  11.465   8.356  0.1625  1.8264  1.5664
 1798SOL     OW10204   6.356   2.318  10.445 -0.2882  0.1303 -0.4839
 1798SOL    HW110205   6.313   2.276  10.520 -0.6783 -0.1388 -0.8551
 1798SOL    HW210206   6.324   2.269  10.369  1.7379 -0.9763 -0.6824
 1799SOL     OW10207   7.009   1.179   0.524 -0.3510 -0.2244  0.3691
 1799SOL    HW110208   7.101   1.199   0.543 -0.3515  1.5515 -1.2429
 1799SOL    HW210209   7.012   1.093   0.481  0.4641 -0.4678  0.8857
 1800SOL     OW10210   7.743  11.207  11.143  0.4012 -0.4435 -0.1204
 1800SOL    HW110211   7.658  11.180  11.107  0.8749 -1.3219 -0.6061
 1800SOL    HW210212   7.770  11.133  11.199  1.1536 -0.4619 -0.4973
 1801SOL     OW10213  12.324   0.342   6.881  0.0207  0.3561  0.7526
 1801SOL    HW110214  12.249   0.395   6.855  1.8905  2.3535 -0.8981
 1801SOL    HW210215  12.291   0.287   6.952 -2.6470  2.0632  0.9554
 1802SOL     OW10216   4.920  10.732  11.762 -0.1872 -0.2610  0.6622
 1802SOL    HW110217   4.947  10.823  11.778 -0.5943  0.1852 -0.9806
 1802SOL    HW210218   4.932  10.688  11.847 -1.3950  1.6627  1.9030
 1803SOL     OW10219  11.212   7.547   6.483 -0.3700  0.4410 -0.0307
 1803SOL    HW110220  11.256   7.524   6.565 -0.8587 -0.0995  0.0834
 1803SOL    HW210221  11.251   7.632   6.459  1.7072 -0.6028 -0.6342
 1804SOL     OW10222   8.538   8.740   6.245  0.3842 -0.3267  0.4509
 1804SOL    HW110223   8.591   8.698   6.313 -1.6357 -3.8895  0.0651
 1804SOL    HW210224   8.448   8.730   6.275 -0.3801  0.9163 -1.2705
 1805SOL     OW10225   0.818   3.995  12.260 -0.0771  0.8704  1.0954
 1805SOL    HW110226   0.857   3.918  12.217 -0.6070  1.0384  0.2806
 1805SOL    HW210227   0.851   3.992  12.349  0.2197 -0.0957  0.9667
 1806SOL     OW10228   4.976  10.868  11.171 -0.4844  0.6562 -0.3191
 1806SOL    HW110229   4.943  10.806  11.106 -1.1533 -0.7531  1.2568
 1806SOL    HW210230   4.951  10.954  11.137 -2.8073 -0.1481 -0.8928
 1807SOL     OW10231   3.088   2.859   8.288 -0.2638 -0.6248  0.5008
 1807SOL    HW110232   3.015   2.799   8.273 -1.6415  0.7977  1.2394
 1807SOL    HW210233   3.046   2.943   8.306  1.5892  0.3687  0.3595
 1808SOL     OW10234   1.694  10.206   6.714 -0.7507  0.3813 -0.6052
 1808SOL    HW110235   1.626  10.142   6.732 -1.1451  0.9669  0.0419
 1808SOL    HW210236   1.731  10.228   6.799  0.0890  0.2550 -0.9215
 1809SOL     OW10237  10.240   2.358   7.660 -0.1187 -0.0082  0.3020
 1809SOL    HW110238  10.295   2.282   7.679 -0.8192 -0.2226  1.5898
 1809SOL    HW210239  10.259   2.379   7.569  1.3608 -0.6767  0.4242
 1810SOL     OW10240   4.342   0.962   5.504  0.7269 -0.1250 -0.2359
 1810SOL    HW110241   4.411   0.975   5.569  1.5180 -1.6881 -0.7123
 1810SOL    HW210242   4.385   0.977   5.420  0.4067 -0.7699 -0.5218
 1811SOL     OW10243   6.014   2.395   5.198 -0.2336  0.1016 -0.1554
 1811SOL    HW110244   6.038   2.448   5.122  0.5501  1.4084  0.9661
 1811SOL    HW210245   6.098   2.368   5.236 -0.5950 -2.4465 -0.9780
 1812SOL     OW10246   7.846   4.026   3.503  0.2897 -0.2007  0.1536
 1812SOL    HW110247   7.883   3.944   3.534 -0.2050 -0.9761 -1.2365
 1812SOL    HW210248   7.757   4.004   3.477 -0.2227  1.0286  0.7752
 1813SOL     OW10249   9.939   8.843   3.616  1.4448 -0.8754 -0.0189
 1813SOL    HW110250   9.928   8.748   3.613  0.6257 -0.7788 -0.1078
 1813SOL    HW210251  10.012   8.859   3.555  1.3075 -1.3997 -0.3323
 1814SOL     OW10252  10.038   7.064  12.439  0.0950 -0.4706  0.3089
 1814SOL    HW110253  10.001   6.976  12.439 -1.4915  0.1727  0.0293
 1814SOL    HW210254  10.118   7.056  12.491 -0.0288 -2.0657  0.2997
 1815SOL     OW10255   4.811   2.265   2.608  0.1336 -0.1197  0.2985
 1815SOL    HW110256   4.857   2.301   2.684  0.4305  0.9113 -0.3462
 1815SOL    HW210257   4.813   2.336   2.543  0.4887 -1.1986 -0.9279
 1816SOL     OW10258   5.652   5.993   5.065  0.3130  0.5630  0.7977
 1816SOL    HW110259   5.592   5.919   5.074  0.4422  0.4274  0.5173
 1816SOL    HW210260   5.612   6.062   5.119  0.3512  0.1949  1.3046
 1817SOL     OW10261  10.961   2.666   3.098  0.4625  0.2384  0.8106
 1817SOL    HW110262  11.022   2.740   3.093 -0.2197  0.8633  1.4900
 1817SOL    HW210263  10.989   2.618   3.176 -0.4395  1.0350  1.6576
 1818SOL     OW10264   7.330   5.191   1.726  0.1617  0.3758  0.5682
 1818SOL    HW110265   7.411   5.207   1.677 -0.3515  1.5885  0.0726
 1818SOL    HW210266   7.310   5.099   1.711  0.4391  0.5309 -0.8810
 1819SOL     OW10267   1.017   4.246   5.821  0.0247  0.0273 -0.0432
 1819SOL    HW110268   0.952   4.217   5.885  1.3690  0.0472  1.3860
 1819SOL    HW210269   0.978   4.323   5.779  0.1630  1.7539  2.7418
 1820SOL     OW10270   9.348   2.897   8.923 -0.2367  0.0526 -0.1259
 1820SOL    HW110271   9.324   2.984   8.889  0.7569 -0.3088 -1.7988
 1820SOL    HW210272   9.443   2.899   8.930 -0.2801 -0.5596  0.8899
 1821SOL     OW10273  11.701  11.009   9.553  0.1770  0.0616  0.4548
 1821SOL    HW110274  11.669  11.003   9.463 -2.9627 -0.3959  1.4830
 1821SOL    HW210275  11.681  10.923   9.591  2.5922 -0.1819  1.3084
 1822SOL     OW10276   7.275   6.163   9.703  0.3345 -0.3908  0.0364
 1822SOL    HW110277   7.190   6.139   9.740  0.2118  0.8247  0.5700
 1822SOL    HW210278   7.267   6.141   9.610 -0.4354 -0.6051  0.1458
 1823SOL     OW10279   7.471   9.275   7.616  0.0014 -0.1424 -0.1921
 1823SOL    HW110280   7.564   9.260   7.634 -0.8061 -1.2060  3.9366
 1823SOL    HW210281   7.448   9.206   7.553  1.8264 -0.1720 -0.9159
 1824SOL     OW10282  11.760   3.997   0.280 -0.2714  0.5720 -0.1651
 1824SOL    HW110283  11.714   4.079   0.260 -1.2982  0.2150  0.6485
 1824SOL    HW210284  11.826   4.023   0.344 -1.0524  0.6627  0.6218
 1825SOL     OW10285   8.072   5.355   5.360  0.4174  0.3456 -0.5197
 1825SOL    HW110286   8.139   5.288   5.372  1.0286  0.8890 -0.8688
 1825SOL    HW210287   8.068   5.401   5.444 -0.2713 -0.3621 -0.1552
 1826SOL     OW10288   7.692   8.487  11.712 -0.2560  0.2478 -0.1966
 1826SOL    HW110289   7.631   8.435  11.660  0.6941  0.1004 -1.2137
 1826SOL    HW210290   7.658   8.576  11.709 -0.2074  0.2394 -1.0861
 1827SOL     OW10291  10.022   1.752  10.901 -0.1424  0.2076 -0.1077
 1827SOL    HW110292  10.024   1.689  10.829  0.1078  1.8819 -1.6320
 1827SOL    HW210293   9.945   1.727  10.951  0.5898 -2.0120  0.0460
 1828SOL     OW10294  11.558   6.960   7.710 -0.2913  0.5625 -0.3949
 1828SOL    HW110295  11.469   6.926   7.707 -0.7617  1.7984 -1.6100
 1828SOL    HW210296  11.596   6.923   7.789 -0.9563 -2.2283 -1.2800
 1829SOL     OW10297  12.470   6.671   8.567  0.2603 -0.1278  0.3712
 1829SOL    HW110298  12.527   6.645   8.494 -0.7982  0.3778 -0.6715
 1829SOL    HW210299  12.414   6.739   8.530 -3.3083 -2.8082  0.2715
 1830SOL     OW10300   4.223  10.878   4.051  0.1176 -0.3226  0.0789
 1830SOL    HW110301   4.316  10.871   4.028  0.2158  0.2043  0.2997
 1830SOL    HW210302   4.189  10.789   4.042  0.3609 -0.3024 -1.2031
 1831SOL     OW10303   7.777   0.686   9.130  0.2983  0.2218 -0.4065
 1831SOL    HW110304   7.689   0.715   9.156 -0.5637 -0.1589 -2.6666
 1831SOL    HW210305   7.792   0.607   9.182 -1.3486 -0.5223 -0.9905
 1832SOL     OW10306   4.244  11.064   9.946 -0.4011 -0.1458  0.0640
 1832SOL    HW110307   4.325  11.051   9.995  0.8874  0.4991 -1.7793
 1832SOL    HW210308   4.217  10.975   9.921 -0.1987 -0.3572  0.5742
 1833SOL     OW10309  11.927   7.982   5.359 -0.2604  0.3272 -0.3470
 1833SOL    HW110310  11.908   8.061   5.309 -1.5313 -0.4027 -1.0532
 1833SOL    HW210311  11.842   7.953   5.391  0.2921 -0.3228  0.5976
 1834SOL     OW10312  10.076   0.450   2.310 -0.2076  0.3825 -0.6389
 1834SOL    HW110313  10.127   0.382   2.354  0.3076  1.7492  0.9978
 1834SOL    HW210314  10.141   0.509   2.273 -0.6213  0.8995 -0.5609
 1835SOL     OW10315   2.553  10.566   3.180 -0.0641  0.1331  0.8079
 1835SOL    HW110316   2.571  10.486   3.131  0.5538  0.3243  0.7038
 1835SOL    HW210317   2.636  10.586   3.223  0.8597  2.4954 -1.7764
 1836SOL     OW10318  12.167   4.818   8.328  0.4228 -0.1312  0.4814
 1836SOL    HW110319  12.195   4.908   8.311  1.5199 -0.7145 -1.0047
 1836SOL    HW210320  12.248   4.769   8.343 -0.0172 -1.1623 -0.3284
 1837SOL     OW10321  10.991  11.377   4.345 -0.0443  0.3751  0.3382
 1837SOL    HW110322  10.990  11.466   4.310 -1.5737  0.5175  0.6649
 1837SOL    HW210323  10.938  11.327   4.283  2.4225 -0.8114 -0.9553
 1838SOL     OW10324   3.906   0.696  10.672  0.4122 -0.2397  0.0875
 1838SOL    HW110325   3.833   0.698  10.735 -0.8766 -2.6415 -1.1743
 1838SOL    HW210326   3.878   0.754  10.602  0.6900  0.4576  0.5413
 1839SOL     OW10327   9.811   4.750  10.590  0.1380  0.5273 -0.2884
 1839SOL    HW110328   9.864   4.796  10.525  1.1222  1.7937  1.3297
 1839SOL    HW210329   9.874   4.697  10.639 -0.7187 -1.1269 -0.9123
 1840SOL     OW10330   4.104   8.158   2.791  0.4854  0.7692 -0.4133
 1840SOL    HW110331   4.081   8.077   2.836 -1.3069  1.2025 -0.5019
 1840SOL    HW210332   4.129   8.218   2.861 -0.2620  0.7922 -0.1591
 1841SOL     OW10333  10.192   2.670   7.780  0.4501  0.0758  0.6772
 1841SOL    HW110334  10.178   2.630   7.695  4.1266 -0.4975  0.1768
 1841SOL    HW210335  10.145   2.754   7.776  1.0786  0.3733 -2.1743
 1842SOL     OW10336   1.559   3.960  11.679  0.6609  0.2270  0.0051
 1842SOL    HW110337   1.627   3.921  11.624 -0.7175 -1.5151 -0.5245
 1842SOL    HW210338   1.503   4.008  11.619 -0.3672 -0.9874 -0.0537
 1843SOL     OW10339   1.179  10.685  12.122 -0.1100 -0.1316 -0.1982
 1843SOL    HW110340   1.241  10.628  12.169 -0.7292  0.1741  1.0450
 1843SOL    HW210341   1.229  10.719  12.048  0.5051 -1.6916 -0.5380
 1844SOL     OW10342  12.599   4.639   3.010  0.3109 -0.0962  0.1222
 1844SOL    HW110343  12.665   4.570   3.010 -1.1917 -1.5724 -0.4096
 1844SOL    HW210344  12.623   4.694   3.085  3.3964  0.7163 -1.3021
 1845SOL     OW10345   4.196   7.700   3.327  0.1885 -0.8296  0.1300
 1845SOL    HW110346   4.200   7.769   3.394  0.7648 -1.2313  0.5234
 1845SOL    HW210347   4.235   7.739   3.249  2.2071 -1.2624  0.8670
 1846SOL     OW10348   6.733   9.469   4.748  0.1204 -0.3597 -0.2002
 1846SOL    HW110349   6.758   9.391   4.698 -2.2694 -1.6266  0.4136
 1846SOL    HW210350   6.683   9.435   4.822  0.7600  1.6756  1.2461
 1847SOL     OW10351  11.807  11.944   0.972  0.6028  0.5072 -0.1486
 1847SOL    HW110352  11.769  12.023   0.932 -0.9476  0.5749  1.3140
 1847SOL    HW210353  11.877  11.977   1.028 -0.3746  0.9456  0.8574
 1848SOL     OW10354   3.933   7.560  10.328  0.0177  0.0441 -0.4663
 1848SOL    HW110355   3.923   7.538  10.421  1.9111 -0.9280 -0.4550
 1848SOL    HW210356   3.929   7.476  10.282  0.1090  0.4160 -1.1671
 1849SOL     OW10357   0.763   6.240   2.711 -0.5290 -0.1172 -0.0788
 1849SOL    HW110358   0.797   6.151   2.699 -0.1540 -0.1497  1.1070
 1849SOL    HW210359   0.697   6.250   2.643  0.3103 -0.8465 -1.0374
 1850SOL     OW10360   7.264   0.034  11.594 -0.0752 -0.1117  0.1665
 1850SOL    HW110361   7.281  -0.054  11.630 -0.8696  0.1776  1.2758
 1850SOL    HW210362   7.257   0.090  11.671 -1.7008  0.5454 -0.4289
 1851SOL     OW10363  10.073   6.460   6.621 -0.1004  0.2956 -0.2155
 1851SOL    HW110364  10.082   6.408   6.701  0.6176  1.2653  0.3559
 1851SOL    HW210365  10.149   6.518   6.621  1.8060 -1.8626 -3.2919
 1852SOL     OW10366  10.024   5.853   8.370  0.2461 -0.1866  0.3022
 1852SOL    HW110367  10.016   5.891   8.283 -0.2751 -1.3799 -0.1821
 1852SOL    HW210368   9.962   5.903   8.423  0.4288  0.4188 -0.0374
 1853SOL     OW10369   5.589  11.239  10.980 -0.0785 -0.0578  0.1622
 1853SOL    HW110370   5.629  11.325  10.997 -1.2332  0.3131  1.1601
 1853SOL    HW210371   5.500  11.248  11.012 -0.8758 -0.9795 -1.6677
 1854SOL     OW10372   8.795   8.612   1.710 -0.0440  0.1430  0.0194
 1854SOL    HW110373   8.809   8.657   1.793  3.1256  0.1995 -0.4156
 1854SOL    HW210374   8.749   8.532   1.734 -0.4539  0.8244  1.6330
 1855SOL     OW10375   5.895   2.722   7.722 -0.6662 -0.4458  0.0473
 1855SOL    HW110376   5.866   2.636   7.751  1.3559 -0.8251  1.1236
 1855SOL    HW210377   5.986   2.710   7.697 -0.8838  1.0121 -1.6600
 1856SOL     OW10378   9.121   4.078   5.196 -0.1260  0.1371  0.0956
 1856SOL    HW110379   9.196   4.073   5.255  0.3699  0.3237 -0.5132
 1856SOL    HW210380   9.057   4.018   5.234 -0.1669  0.9210  1.3139
 1857SOL     OW10381   8.021   7.398  10.198 -0.4239  0.2199 -0.4209
 1857SOL    HW110382   7.991   7.324  10.145 -2.5472  1.2283 -0.7264
 1857SOL    HW210383   8.043   7.466  10.135 -0.3367  0.5073 -0.0838
 1858SOL     OW10384  12.384  11.390   1.772 -0.2117 -0.1281  0.2298
 1858SOL    HW110385  12.465  11.440   1.785  0.5246 -0.3875 -2.5665
 1858SOL    HW210386  12.414  11.299   1.765 -0.6841 -0.2232 -0.8621
 1859SOL     OW10387   8.826  10.557   3.490  0.2413  0.5113 -0.2181
 1859SOL    HW110388   8.878  10.602   3.424 -1.2656  1.1033 -1.0403
 1859SOL    HW210389   8.874  10.570   3.571  1.7281  0.4306 -1.0558
 1860SOL     OW10390  11.486   3.557   0.720 -0.3233 -0.0069  0.0258
 1860SOL    HW110391  11.462   3.469   0.692 -0.9437  0.4135 -0.7978
 1860SOL    HW210392  11.412   3.587   0.773  0.0673 -0.1281  0.6531
 1861SOL     OW10393   2.520   7.620  11.157 -0.6590 -0.2027 -0.0693
 1861SOL    HW110394   2.546   7.712  11.150 -0.3203 -0.3274 -0.4504
 1861SOL    HW210395   2.592   7.571  11.117 -0.5687 -0.6727  0.6449
 1862SOL     OW10396  10.929   2.241   3.251  0.2542  0.3952 -0.0861
 1862SOL    HW110397  10.969   2.273   3.170  1.6429  0.7993  0.7263
 1862SOL    HW210398  10.976   2.286   3.321  0.4666 -1.4259  1.0132
 1863SOL     OW10399  12.382   2.633   8.037 -0.0163 -0.2538 -0.4960
 1863SOL    HW110400  12.305   2.628   8.093  0.6364  0.3619  0.5012
 1863SOL    HW210401  12.420   2.546   8.040  0.4218 -0.0473  0.6641
 1864SOL     OW10402   2.941  12.298   4.749 -0.2454  0.1873 -0.4162
 1864SOL    HW110403   2.972  12.258   4.830  1.1209  1.3198 -0.3490
 1864SOL    HW210404   3.015  12.348   4.717 -1.0771  0.5402 -1.8758
 1865SOL     OW10405   7.926   1.073   2.087  0.1268  0.5265 -0.1007
 1865SOL    HW110406   7.899   1.082   2.178 -0.3946  0.7434 -0.2712
 1865SOL    HW210407   8.019   1.049   2.091  0.2614  1.1059  0.4769
 1866SOL     OW10408   1.211   3.382   3.243  0.2196  0.2145  0.2760
 1866SOL    HW110409   1.258   3.451   3.196 -0.7100  0.4595 -0.3183
 1866SOL    HW210410   1.215   3.306   3.185 -2.2118  0.9400 -0.9438
 1867SOL     OW10411   3.430   3.884   2.731 -0.6117  0.5497 -0.3285
 1867SOL    HW110412   3.452   3.830   2.807 -1.8429  1.6622  0.8735
 1867SOL    HW210413   3.488   3.960   2.739 -1.0669  0.8901 -0.2192
 1868SOL     OW10414   2.120   1.900   7.168 -0.0303  0.4876  0.4774
 1868SOL    HW110415   2.196   1.853   7.133  0.9878  1.0225  1.8877
 1868SOL    HW210416   2.055   1.831   7.184  0.3147 -0.0358 -0.3156
 1869SOL     OW10417   2.594   9.187   7.971 -0.1656 -0.2482  0.2319
 1869SOL    HW110418   2.579   9.095   7.950  0.2769 -0.3374  0.2832
 1869SOL    HW210419   2.599   9.190   8.066 -0.3901 -0.1358  0.2403
 1870SOL     OW10420   6.533   0.731   5.563  0.1559  0.0455 -0.5018
 1870SOL    HW110421   6.620   0.752   5.598 -0.0557  2.2408 -1.1793
 1870SOL    HW210422   6.548   0.657   5.504  0.9043 -2.1779  2.2532
 1871SOL     OW10423  12.053   3.682  10.107  0.2233 -0.6950  0.2212
 1871SOL    HW110424  12.137   3.672  10.062  0.1255  0.1831 -0.1925
 1871SOL    HW210425  12.073   3.732  10.186  0.3953 -2.2406  1.1981
 1872SOL     OW10426   5.428  12.280   9.730  0.0393 -0.2614 -0.2922
 1872SOL    HW110427   5.386  12.336   9.664 -0.4885 -1.7169 -1.2346
 1872SOL    HW210428   5.428  12.333   9.810 -0.6585  0.9844 -1.0799
 1873SOL     OW10429   0.977  10.973  10.557 -0.4131 -0.1229  0.1554
 1873SOL    HW110430   0.935  11.018  10.631 -0.4185 -1.7178  1.1796
 1873SOL    HW210431   1.030  11.041  10.515 -0.9260  0.9919  1.2222
 1874SOL     OW10432   9.846   5.633   6.142 -0.1233  0.2013  0.5861
 1874SOL    HW110433   9.773   5.675   6.098 -0.1331 -0.6460 -0.2311
 1874SOL    HW210434   9.833   5.539   6.127  0.1158 -0.0967  2.0248
 1875SOL     OW10435   1.243   8.789   8.036 -0.6143 -0.2762 -0.0017
 1875SOL    HW110436   1.233   8.696   8.055 -0.0787 -0.1774  0.8289
 1875SOL    HW210437   1.160   8.815   7.997 -1.4048 -0.7274  1.3367
 1876SOL     OW10438   7.630   9.379   9.375  0.0611  0.1650  0.2309
 1876SOL    HW110439   7.699   9.335   9.425 -0.2208  0.9586  1.3801
 1876SOL    HW210440   7.587   9.435   9.440 -0.8571  0.6165 -0.7481
 1877SOL     OW10441   5.053   0.365   1.855  0.0400  0.5814 -0.0117
 1877SOL    HW110442   5.052   0.279   1.813 -1.2500  1.2002 -1.3246
 1877SOL    HW210443   5.043   0.346   1.948  1.1942 -0.7435 -0.1311
 1878SOL     OW10444   1.259   6.371   6.074 -0.0234  0.3697 -0.3646
 1878SOL    HW110445   1.215   6.286   6.075  0.1023  0.2943 -1.1241
 1878SOL    HW210446   1.316   6.369   6.151 -1.4683  0.5439  0.7673
 1879SOL     OW10447  12.641   7.518   2.335 -0.2661 -0.5504  0.2280
 1879SOL    HW110448  12.574   7.585   2.321  1.0831  0.9740  0.6711
 1879SOL    HW210449  12.641   7.503   2.430  0.2969 -0.2097  0.2892
 1880SOL     OW10450   5.890   0.884   2.030  0.0591  0.1827 -0.4356
 1880SOL    HW110451   5.982   0.897   2.007 -0.1506  1.0658 -0.8192
 1880SOL    HW210452   5.892   0.833   2.111  0.8867  0.3549 -0.3446
 1881SOL     OW10453   4.611  10.887  11.584  0.1908  0.6280 -0.2959
 1881SOL    HW110454   4.636  10.795  11.591 -0.3954  0.4599 -0.3777
 1881SOL    HW210455   4.623  10.909  11.492 -0.1120  0.5014 -0.3670
 1882SOL     OW10456  12.191   2.381  10.965 -0.4197  0.3591 -0.3061
 1882SOL    HW110457  12.235   2.453  10.921  0.4759  0.7643  1.2013
 1882SOL    HW210458  12.249   2.357  11.037 -1.3440 -0.9736  0.0415
 1883SOL     OW10459   3.834   5.917   8.190  0.9511 -0.0221  0.1530
 1883SOL    HW110460   3.761   5.967   8.154  0.9315  0.0950  0.3570
 1883SOL    HW210461   3.892   5.903   8.115  0.9366  0.2729  0.0855
 1884SOL     OW10462   6.864   3.601   5.031  0.4268 -0.2280  0.1283
 1884SOL    HW110463   6.820   3.517   5.044  0.8496 -0.3342  0.9808
 1884SOL    HW210464   6.926   3.586   4.960  2.6489 -1.5588  2.1552
 1885SOL     OW10465   3.321  11.523  11.949  0.1224 -0.8235 -0.5136
 1885SOL    HW110466   3.364  11.440  11.932  0.0197 -1.1560  0.7343
 1885SOL    HW210467   3.369  11.587  11.896 -0.2604 -1.7611 -2.0631
 1886SOL     OW10468   5.010   9.593   7.468  0.2600 -0.2426 -0.4759
 1886SOL    HW110469   4.965   9.675   7.446  1.2593  1.4593  3.1623
 1886SOL    HW210470   5.099   9.605   7.433 -0.4044 -1.2277 -2.6986
 1887SOL     OW10471   7.235   1.328  10.207 -0.2118  0.4663 -0.3461
 1887SOL    HW110472   7.284   1.309  10.127 -0.8382 -0.2574 -0.5727
 1887SOL    HW210473   7.266   1.414  10.234  1.0080  0.1322 -0.6091
 1888SOL     OW10474  11.567   1.977   7.163  0.1655  0.0616 -0.0411
 1888SOL    HW110475  11.564   1.882   7.176  2.1635 -0.0583 -0.1908
 1888SOL    HW210476  11.568   2.013   7.252  0.8893 -0.1526  0.0483
 1889SOL     OW10477  12.430   0.000   8.418  0.0893 -0.0105  0.1630
 1889SOL    HW110478  12.445  -0.081   8.466  1.6171  0.0775 -0.1117
 1889SOL    HW210479  12.335   0.011   8.419 -0.1397 -1.7218  0.3106
 1890SOL     OW10480   3.621   4.427   0.594 -0.3804 -0.5050 -0.1894
 1890SOL    HW110481   3.573   4.438   0.676 -1.4749  1.6293 -1.0289
 1890SOL    HW210482   3.657   4.339   0.599  0.2674 -0.1874  2.9229
 1891SOL     OW10483  10.450   7.418   8.110  0.1879  0.5578 -0.4579
 1891SOL    HW110484  10.397   7.448   8.184  2.2963  1.7623  0.6333
 1891SOL    HW210485  10.457   7.323   8.123  0.1699  0.6971  0.6633
 1892SOL     OW10486   4.037   7.148  10.453 -0.1222  0.2521 -0.0064
 1892SOL    HW110487   4.040   7.072  10.395  0.3510  1.0073 -1.0107
 1892SOL    HW210488   4.026   7.223  10.394  0.9296  1.1053  0.8146
 1893SOL     OW10489   5.328   0.635   3.656  0.7144 -0.1581  0.0169
 1893SOL    HW110490   5.318   0.722   3.618 -0.7464 -0.1311  0.4090
 1893SOL    HW210491   5.241   0.612   3.687  1.5650 -0.7220  2.2082
 1894SOL     OW10492   6.637   2.872   7.562  0.3024 -0.1717  0.4031
 1894SOL    HW110493   6.572   2.907   7.623  1.5485  0.4461  1.4045
 1894SOL    HW210494   6.673   2.796   7.606  0.6790 -0.1710  0.1014
 1895SOL     OW10495   0.581   4.870   0.013 -0.5935 -0.1715  0.1643
 1895SOL    HW110496   0.621   4.810  -0.050 -1.5519  0.2492 -0.8952
 1895SOL    HW210497   0.637   4.866   0.090  0.7433 -0.5308 -0.8019
 1896SOL     OW10498  12.549   3.403   2.304  0.1050  0.6648  0.3983
 1896SOL    HW110499  12.529   3.315   2.271 -2.2619  1.4267 -0.3947
 1896SOL    HW210500  12.591   3.447   2.230 -1.2413  1.0269 -0.1759
 1897SOL     OW10501   8.287   4.361   9.577 -0.1599 -0.3883 -0.0318
 1897SOL    HW110502   8.364   4.364   9.634 -1.1087 -1.5852  1.3623
 1897SOL    HW210503   8.226   4.424   9.615 -0.0918  0.1866 -0.8438
 1898SOL     OW10504   4.578   7.608   0.059  0.0288 -0.1026  0.3769
 1898SOL    HW110505   4.532   7.524   0.062  0.5266 -0.3646  0.7391
 1898SOL    HW210506   4.660   7.593   0.106 -0.0878  0.7192  0.8575
 1899SOL     OW10507  11.599   2.768  12.118 -0.5422  0.6627 -0.0070
 1899SOL    HW110508  11.650   2.687  12.127  2.3900  2.5616  2.2069
 1899SOL    HW210509  11.532   2.762  12.186 -1.0212 -0.2706 -0.5334
 1900SOL     OW10510   7.576   3.203  12.231  0.4431 -0.6520  0.4668
 1900SOL    HW110511   7.524   3.277  12.263  0.5458 -0.3754 -0.0027
 1900SOL    HW210512   7.511   3.141  12.197  0.2902 -1.1866  1.6565
 1901SOL     OW10513   8.236  11.749  10.483 -0.3709 -0.2718 -0.0730
 1901SOL    HW110514   8.217  11.696  10.560  2.1803 -1.2205  0.0126
 1901SOL    HW210515   8.328  11.775  10.494 -0.0659 -0.0342 -2.5281
 1902SOL     OW10516   4.718   2.713   8.496 -0.3451  0.4113  0.0011
 1902SOL    HW110517   4.813   2.717   8.509 -0.2056  0.0353 -0.8463
 1902SOL    HW210518   4.704   2.748   8.408 -0.9671  0.2567  0.0358
 1903SOL     OW10519  10.589   4.211   8.079  0.2686 -0.3883 -0.1610
 1903SOL    HW110520  10.628   4.293   8.109  1.7719 -0.6103 -1.3644
 1903SOL    HW210521  10.499   4.234   8.058  1.3266  1.7274 -3.0642
 1904SOL     OW10522   3.545   8.265   3.771  0.0481 -0.5671  0.1559
 1904SOL    HW110523   3.525   8.214   3.849  1.4185  0.3807  1.1643
 1904SOL    HW210524   3.521   8.355   3.795  2.5923  0.1300  0.3788
 1905SOL     OW10525   2.672   2.271  11.216  0.0430 -0.2827 -0.4480
 1905SOL    HW110526   2.737   2.282  11.285 -0.5626  0.1524  0.0600
 1905SOL    HW210527   2.601   2.331  11.240  0.0849  0.3190 -1.7534
 1906SOL     OW10528   2.522   4.784   8.605 -0.2135  0.8439  0.0791
 1906SOL    HW110529   2.591   4.840   8.640 -1.0542  1.4397  0.8291
 1906SOL    HW210530   2.442   4.834   8.618 -0.9759 -0.4677  0.6197
 1907SOL     OW10531   5.874   4.122   6.713  0.3295  0.4439  0.0811
 1907SOL    HW110532   5.941   4.153   6.775  0.8890 -0.6598  0.0502
 1907SOL    HW210533   5.796   4.113   6.767  0.8154 -0.5230  0.6535
 1908SOL     OW10534  10.068   4.079   6.401  0.2561 -0.1063  0.3351
 1908SOL    HW110535  10.124   4.077   6.479 -0.2797 -1.9750  0.7265
 1908SOL    HW210536  10.010   4.004   6.412 -1.5258  1.0597 -0.6608
 1909SOL     OW10537  10.023   6.559  10.106  0.1605  0.4048  0.3838
 1909SOL    HW110538  10.085   6.544  10.178 -1.3411 -0.2069  1.6057
 1909SOL    HW210539   9.990   6.472  10.084  0.7407  0.5637 -1.2207
 1910SOL     OW10540   4.459   8.374   9.944  0.1625 -0.0248 -0.4434
 1910SOL    HW110541   4.383   8.394   9.890  0.1869 -1.7910 -1.1982
 1910SOL    HW210542   4.431   8.302  10.001  0.4395  1.1587  1.2762
 1911SOL     OW10543   9.485   4.630   5.972  0.3078  0.1855 -0.4449
 1911SOL    HW110544   9.480   4.677   6.056 -0.4603  0.5418 -0.6841
 1911SOL    HW210545   9.579   4.626   5.953  0.3625  2.1978 -0.7410
 1912SOL     OW10546   2.297   3.230  12.270  0.2878  0.7189  0.0216
 1912SOL    HW110547   2.296   3.176  12.192  1.0549  1.3290 -0.4268
 1912SOL    HW210548   2.340   3.176  12.336  0.8085  0.6742 -0.3484
 1913SOL     OW10549   8.403   6.231  12.258  0.2494  0.5187  0.4479
 1913SOL    HW110550   8.363   6.194  12.337  0.1469 -0.2886  0.0295
 1913SOL    HW210551   8.334   6.282  12.217 -0.1965 -0.3900  0.0378
 1914SOL     OW10552   1.434   6.434  12.259  0.5189 -0.1162  0.1125
 1914SOL    HW110553   1.411   6.350  12.297  2.0697  0.2695  2.0415
 1914SOL    HW210554   1.365   6.494  12.289 -1.3225 -0.8387 -2.3187
 1915SOL     OW10555   9.914   2.720   0.040 -0.1853 -0.0371  0.3093
 1915SOL    HW110556   9.898   2.778   0.114 -0.4878 -0.5624  0.6605
 1915SOL    HW210557   9.833   2.723  -0.011  0.5905  1.6098 -0.9155
 1916SOL     OW10558   5.617   1.336   1.347 -0.0738 -0.0682  0.1097
 1916SOL    HW110559   5.578   1.308   1.429  1.1923 -1.0914  0.3969
 1916SOL    HW210560   5.602   1.264   1.286  1.0117 -0.3345  0.1298
 1917SOL     OW10561  10.735   7.545   7.740  0.6100  0.3405 -0.2043
 1917SOL    HW110562  10.781   7.627   7.726 -3.9268  3.1065 -0.9110
 1917SOL    HW210563  10.698   7.553   7.828 -1.7104  0.1693 -1.0985
 1918SOL     OW10564  11.556   0.661  11.592 -0.1152 -0.7057  0.0820
 1918SOL    HW110565  11.612   0.615  11.529 -1.0201  0.0222 -1.3125
 1918SOL    HW210566  11.563   0.753  11.566 -1.6349 -0.5567  0.1321
 1919SOL     OW10567   0.534  10.530   4.083  0.3776 -0.3532 -0.1908
 1919SOL    HW110568   0.564  10.459   4.026 -0.3867 -2.0859  1.4479
 1919SOL    HW210569   0.608  10.547   4.142 -0.0296 -1.0749  0.5586
 1920SOL     OW10570   5.230   7.766   3.519 -0.1247  0.4883  0.2489
 1920SOL    HW110571   5.179   7.728   3.591  0.2061  1.6997  1.1598
 1920SOL    HW210572   5.264   7.849   3.555  3.0243 -0.5308 -0.0242
 1921SOL     OW10573   8.229  12.545   6.985 -0.1953  0.5645 -0.2990
 1921SOL    HW110574   8.258  12.512   6.900 -0.0967 -0.8353  0.2632
 1921SOL    HW210575   8.140  12.511   6.995  0.1312 -0.0566  0.5636
 1922SOL     OW10576  11.299   1.687   9.622 -0.2737 -0.2202 -0.3546
 1922SOL    HW110577  11.362   1.755   9.644 -0.7145 -0.5717  2.3502
 1922SOL    HW210578  11.225   1.734   9.583  0.3240  0.5627 -0.5683
 1923SOL     OW10579   9.785   6.639   9.841  0.3408 -0.5085  0.6197
 1923SOL    HW110580   9.830   6.564   9.801  1.6322 -0.8436  2.5275
 1923SOL    HW210581   9.705   6.602   9.879  1.7597 -1.3837  3.0007
 1924SOL     OW10582   3.954   6.371   4.179 -0.4550 -0.0179 -0.9456
 1924SOL    HW110583   3.976   6.281   4.158  0.6546 -0.0828  0.3814
 1924SOL    HW210584   3.928   6.369   4.271  0.7959  1.1879 -0.5359
 1925SOL     OW10585   0.751  11.410  10.835  0.3506 -0.3159  0.4837
 1925SOL    HW110586   0.715  11.491  10.872  0.0819  0.1788 -0.8049
 1925SOL    HW210587   0.840  11.434  10.809  0.6675 -0.7641  1.1421
 1926SOL     OW10588  12.472   9.851   9.107  0.3509 -0.3054  0.3081
 1926SOL    HW110589  12.387   9.808   9.099  0.6823 -0.9645  0.2772
 1926SOL    HW210590  12.535   9.779   9.114  0.8719  0.1785  0.6835
 1927SOL     OW10591   0.116   7.678   6.196 -0.7194 -0.5837  0.2490
 1927SOL    HW110592   0.111   7.685   6.291 -2.5701 -0.4305  0.1618
 1927SOL    HW210593   0.208   7.654   6.179 -0.6400 -1.8238  2.1269
 1928SOL     OW10594  11.775   8.679   4.574 -0.0510 -0.3364  0.5826
 1928SOL    HW110595  11.861   8.648   4.546  0.1190  0.5252  0.1221
 1928SOL    HW210596  11.743   8.611   4.634  0.1593 -1.5583 -0.6446
 1929SOL     OW10597   7.776   5.390   6.776  0.7562  0.3207 -0.2432
 1929SOL    HW110598   7.779   5.351   6.689 -1.3089  1.5362 -0.9247
 1929SOL    HW210599   7.692   5.363   6.812  1.0456  0.8576  0.8835
 1930SOL     OW10600   3.636   4.470   6.753 -0.4728 -0.4592 -0.1695
 1930SOL    HW110601   3.573   4.521   6.703  0.7977 -0.0183 -1.3959
 1930SOL    HW210602   3.613   4.486   6.844 -1.5706  0.3852 -0.5656
 1931SOL     OW10603   9.040   2.026  10.668  0.4259  0.3471 -0.2484
 1931SOL    HW110604   9.047   1.933  10.647  0.1851  0.5011 -1.0502
 1931SOL    HW210605   8.951   2.037  10.701  0.2755  0.3802 -0.6554
 1932SOL     OW10606   2.202   1.204   5.109 -0.2677  0.2535  0.3622
 1932SOL    HW110607   2.291   1.224   5.081 -0.1301  1.1167  1.3725
 1932SOL    HW210608   2.170   1.142   5.044  1.2934 -0.5874  0.3694
 1933SOL     OW10609   7.090   1.792   9.972 -0.1242  0.1771  0.2383
 1933SOL    HW110610   7.068   1.885   9.980  1.8837  0.8073 -0.8606
 1933SOL    HW210611   7.157   1.778  10.039 -2.5866 -1.3321  2.5616
 1934SOL     OW10612   0.122   2.589   0.390  0.4871 -0.0004  0.3982
 1934SOL    HW110613   0.041   2.632   0.417 -0.1922 -0.9092 -0.1265
 1934SOL    HW210614   0.098   2.538   0.313  1.8999  0.8623 -0.6574
 1935SOL     OW10615  12.155   9.065   4.563  0.3348  0.7781  0.1936
 1935SOL    HW110616  12.156   9.149   4.608  0.6668  0.7782  0.1817
 1935SOL    HW210617  12.217   9.011   4.612  0.3947  0.6540 -0.0209
 1936SOL     OW10618   6.422   8.074   7.056 -0.4211  1.0010  0.4301
 1936SOL    HW110619   6.382   8.144   7.109 -3.1862 -0.0479 -0.0918
 1936SOL    HW210620   6.414   8.106   6.966 -0.8741  0.4061  0.2582
 1937SOL     OW10621   3.829   7.416   9.142 -0.2352 -0.1145 -0.2011
 1937SOL    HW110622   3.897   7.481   9.161 -1.1956  1.0573 -0.6295
 1937SOL    HW210623   3.757   7.467   9.106 -1.4584 -1.2982  0.4842
 1938SOL     OW10624   7.648   8.115  10.328 -0.1736  0.1323 -0.5586
 1938SOL    HW110625   7.633   8.064  10.249 -0.4854 -0.0409 -0.3921
 1938SOL    HW210626   7.694   8.055  10.387 -0.3058  0.1246 -0.4607
 1939SOL     OW10627   3.468   0.137  10.008  0.3509  0.6428 -0.0675
 1939SOL    HW110628   3.494   0.198  10.078  0.9879 -1.0601  1.2441
 1939SOL    HW210629   3.377   0.160   9.989  0.4341  1.7101  0.7125
 1940SOL     OW10630  11.254  12.596  11.470  0.1313 -0.1631  0.1987
 1940SOL    HW110631  11.294  12.525  11.520  0.4789  0.6717  1.1503
 1940SOL    HW210632  11.327  12.651  11.444 -0.3336  1.8214  2.6461
 1941SOL     OW10633   7.893   0.327   5.345 -0.4855 -0.5152  0.0264
 1941SOL    HW110634   7.880   0.283   5.261  1.8489 -0.8519 -0.2219
 1941SOL    HW210635   7.987   0.348   5.347 -0.3365 -1.0479  2.7793
 1942SOL     OW10636   1.408   2.891  11.023  0.1456 -0.1357  0.2090
 1942SOL    HW110637   1.364   2.876  11.107 -1.1721 -0.2615 -0.4728
 1942SOL    HW210638   1.501   2.883  11.043 -0.0896  0.7718  1.8417
 1943SOL     OW10639   4.372   3.624   4.815  0.1942  0.5809 -1.0670
 1943SOL    HW110640   4.295   3.586   4.771  0.2527  1.1479 -1.6715
 1943SOL    HW210641   4.336   3.667   4.893 -0.1207  0.9289 -1.3980
 1944SOL     OW10642  10.609   1.829   7.196  0.1681 -0.0268  0.2176
 1944SOL    HW110643  10.576   1.751   7.240  1.8239 -0.4337  0.8121
 1944SOL    HW210644  10.568   1.827   7.110 -0.5508 -1.0248  0.5619
 1945SOL     OW10645   9.603   5.904   1.194  0.5611  1.1181 -0.2667
 1945SOL    HW110646   9.540   5.970   1.220  0.6282  0.8494  0.5915
 1945SOL    HW210647   9.557   5.850   1.129 -1.4495 -1.3112  2.8643
 1946SOL     OW10648  10.459   0.045   4.843 -0.0706 -0.0530 -0.6163
 1946SOL    HW110649  10.390   0.112   4.841  1.4946  1.6896 -3.2967
 1946SOL    HW210650  10.419  -0.031   4.801 -1.1254  0.0578  0.1632
 1947SOL     OW10651   9.960   8.693   6.087  0.3082 -0.6063 -0.1193
 1947SOL    HW110652   9.978   8.758   6.020 -0.9038 -0.5321 -0.3770
 1947SOL    HW210653  10.021   8.715   6.158  0.5272  0.2505 -0.5649
 1948SOL     OW10654  10.364   9.799   9.732  0.0859  0.2294  0.2918
 1948SOL    HW110655  10.293   9.862   9.742 -0.0504 -0.0319  0.9917
 1948SOL    HW210656  10.324   9.715   9.753 -0.2091 -0.3754 -2.2870
 1949SOL     OW10657  10.544   0.125   0.560 -0.6533  0.1615 -0.2198
 1949SOL    HW110658  10.450   0.109   0.566 -0.4472 -1.7127 -1.1426
 1949SOL    HW210659  10.560   0.145   0.468 -0.0620 -0.3891 -0.2513
 1950SOL     OW10660   3.243   2.479   2.872 -0.5551  0.0068  0.5556
 1950SOL    HW110661   3.265   2.406   2.814 -2.5718 -1.8125  1.9153
 1950SOL    HW210662   3.185   2.534   2.820 -2.8355 -1.9226  0.8772
 1951SOL     OW10663   3.474  10.217   9.436 -0.2591  0.3804  0.3141
 1951SOL    HW110664   3.516  10.240   9.353  0.2414 -0.2146  0.3946
 1951SOL    HW210665   3.476  10.298   9.487  0.4387  0.4612  0.1663
 1952SOL     OW10666   4.208  10.556   8.161 -0.1600  0.7318  0.7115
 1952SOL    HW110667   4.261  10.563   8.081  0.3075 -0.2962  0.9119
 1952SOL    HW210668   4.264  10.593   8.230  0.4332 -0.5865  0.9673
 1953SOL     OW10669   8.033   0.070  10.383 -0.1988  0.6128 -0.0192
 1953SOL    HW110670   8.053   0.137  10.448  0.2441  0.7094 -0.2520
 1953SOL    HW210671   8.112   0.017  10.378 -1.1955 -1.1353  1.5724
 1954SOL     OW10672   3.915   1.144   0.061  0.8333  0.1067 -0.4957
 1954SOL    HW110673   3.938   1.231   0.095  0.6786  0.4710 -1.2873
 1954SOL    HW210674   3.981   1.127  -0.007  0.4320 -0.0762 -0.8442
 1955SOL     OW10675   0.063  11.926   6.561  0.1236 -0.2258 -0.1345
 1955SOL    HW110676   0.131  11.918   6.627 -0.2298  1.2679  0.4568
 1955SOL    HW210677  -0.009  11.971   6.605 -0.9941 -1.1447 -0.9379
 1956SOL     OW10678   7.296   9.237   0.929 -0.2805  0.4947 -0.1184
 1956SOL    HW110679   7.340   9.157   0.957 -0.8265  0.4181  0.5312
 1956SOL    HW210680   7.278   9.284   1.011 -0.3648  1.0702 -0.4648
 1957SOL     OW10681   8.756   5.950   2.094 -0.6466  0.0723  0.7143
 1957SOL    HW110682   8.731   5.863   2.065 -0.9806  0.5427 -0.4595
 1957SOL    HW210683   8.851   5.949   2.096 -0.5980  0.1457 -0.8149
 1958SOL     OW10684   0.700   2.965   5.161 -0.5342 -0.7003  0.2897
 1958SOL    HW110685   0.734   3.016   5.235 -0.7996  0.5679 -0.4404
 1958SOL    HW210686   0.634   2.907   5.200  0.7781 -1.5579  1.3604
 1959SOL     OW10687   6.935   4.950  11.130  0.7501  0.1114  0.1907
 1959SOL    HW110688   7.000   5.015  11.157  0.0090  0.6728  0.6721
 1959SOL    HW210689   6.893   4.922  11.211 -0.8680  1.1389 -0.2479
 1960SOL     OW10690   7.730   4.338  10.708  0.1765 -0.7367  0.0768
 1960SOL    HW110691   7.715   4.324  10.615  0.1603  0.2403 -0.0800
 1960SOL    HW210692   7.824   4.355  10.716  0.5887 -2.9497  0.5426
 1961SOL     OW10693   7.087   7.873   9.209 -0.1625 -0.1740  0.9096
 1961SOL    HW110694   7.054   7.848   9.122  0.0482  0.5282  0.6220
 1961SOL    HW210695   7.051   7.807   9.268  0.2053 -1.0244  0.2038
 1962SOL     OW10696  11.978   1.245   8.974  0.2914  0.4375  0.0070
 1962SOL    HW110697  12.017   1.174   8.922 -2.5746 -1.1858 -0.1454
 1962SOL    HW210698  11.914   1.284   8.915 -0.6800  0.7681  1.2579
 1963SOL     OW10699   4.012  10.519   9.762  0.0137  0.0266 -0.4953
 1963SOL    HW110700   4.099  10.507   9.801 -0.4840 -0.6056  0.4532
 1963SOL    HW210701   3.960  10.448   9.797 -1.2853  1.2274  0.1161
 1964SOL     OW10702  10.343   1.257   9.853 -0.4089 -0.6217 -0.0566
 1964SOL    HW110703  10.249   1.244   9.849 -0.2383 -1.6379 -1.6597
 1964SOL    HW210704  10.354   1.345   9.888 -1.9620 -0.2173 -0.5399
 1965SOL     OW10705   7.508  12.407   0.082  0.4400 -0.4243  0.3447
 1965SOL    HW110706   7.514  12.459   0.162  1.7804 -0.3745  0.2306
 1965SOL    HW210707   7.414  12.393   0.069  0.2336 -1.2915  2.4727
 1966SOL     OW10708   4.109   9.798   3.762  0.0954 -0.5622 -0.2980
 1966SOL    HW110709   4.196   9.794   3.722 -0.4417 -2.4534 -1.4151
 1966SOL    HW210710   4.049   9.797   3.688 -0.9254  1.7996  0.4104
 1967SOL     OW10711   1.916   9.163   5.984 -0.1445 -0.7036 -0.4168
 1967SOL    HW110712   1.876   9.221   5.920 -2.8980 -0.0564  1.7328
 1967SOL    HW210713   1.876   9.077   5.968 -0.6919 -0.5859  0.2758
 1968SOL     OW10714   0.154   7.189   6.120  0.0632  0.6592  0.2131
 1968SOL    HW110715   0.203   7.271   6.126  1.8619 -0.3925  0.4411
 1968SOL    HW210716   0.178   7.140   6.199 -1.7080  0.2681  0.5501
 1969SOL     OW10717   4.353   9.006   4.414 -0.5800  0.1395  0.2022
 1969SOL    HW110718   4.401   8.991   4.333 -0.1398 -0.4029  0.5545
 1969SOL    HW210719   4.319   8.920   4.439 -1.4691  0.4639  0.1258
 1970SOL     OW10720   0.837   7.774   0.428 -0.6980  0.0070  0.0839
 1970SOL    HW110721   0.814   7.848   0.372 -0.8118 -0.9727 -1.1923
 1970SOL    HW210722   0.780   7.702   0.399 -0.8515 -0.5025  1.5403
 1971SOL     OW10723  11.120   1.857  12.385 -0.3510  0.4920 -0.7531
 1971SOL    HW110724  11.081   1.850  12.298 -1.1536  2.1450 -0.5595
 1971SOL    HW210725  11.045   1.861  12.444  0.1783 -1.1834  0.1172
 1972SOL     OW10726  12.608   4.630   4.898 -0.1231 -0.3775 -0.3359
 1972SOL    HW110727  12.533   4.571   4.899  0.6596 -1.4887 -2.0499
 1972SOL    HW210728  12.582   4.702   4.839 -0.1078 -0.3863 -0.3540
 1973SOL     OW10729  11.015   3.071   3.620  0.2253 -0.4701  0.0802
 1973SOL    HW110730  11.029   2.982   3.589  2.9133 -0.2555  0.4266
 1973SOL    HW210731  11.074   3.124   3.567 -1.1220  1.1125  0.0624
 1974SOL     OW10732   4.534   5.012   0.428  0.0204 -0.7860 -0.2616
 1974SOL    HW110733   4.574   5.093   0.397 -3.3577  0.6494 -1.2696
 1974SOL    HW210734   4.537   4.953   0.352  1.0661 -1.0953 -0.0016
 1975SOL     OW10735   1.613   7.319   2.034  0.1786 -0.2773 -0.5083
 1975SOL    HW110736   1.651   7.406   2.048  1.2117 -0.6780 -0.7374
 1975SOL    HW210737   1.634   7.298   1.943  0.1618 -0.8728 -0.3777
 1976SOL     OW10738   0.081  10.437   9.471  0.3832 -0.5345 -0.0627
 1976SOL    HW110739   0.135  10.360   9.457  1.3419 -0.0345  0.7301
 1976SOL    HW210740   0.134  10.493   9.529 -1.3149 -0.4015  1.4693
 1977SOL     OW10741   8.712   1.817  10.185 -0.3386 -0.0389  0.0597
 1977SOL    HW110742   8.716   1.852  10.096 -0.8292  0.8752  0.3792
 1977SOL    HW210743   8.682   1.726  10.174  1.0237 -0.4090 -0.7942
 1978SOL     OW10744  12.475   6.620   9.497 -0.1251 -0.0704 -0.1671
 1978SOL    HW110745  12.437   6.578   9.420 -0.2981 -0.5768  0.1921
 1978SOL    HW210746  12.401   6.634   9.557  0.3175 -1.6161  0.7895
 1979SOL     OW10747   2.203   8.679  10.724 -0.5286 -0.0278 -0.5258
 1979SOL    HW110748   2.111   8.703  10.740 -0.5336  0.7057 -1.5372
 1979SOL    HW210749   2.215   8.693  10.630  0.8740  0.7872 -0.2549
 1980SOL     OW10750   8.919   3.604   8.180  0.4613 -0.3065 -0.1180
 1980SOL    HW110751   8.862   3.543   8.227 -1.6062  0.2169 -1.7455
 1980SOL    HW210752   8.952   3.663   8.248 -1.6682 -0.1192  0.8587
 1981SOL     OW10753   6.398   0.848   2.101 -0.2944 -0.1328 -0.3798
 1981SOL    HW110754   6.329   0.783   2.082 -0.6845  0.5230 -1.3083
 1981SOL    HW210755   6.448   0.853   2.019 -1.1649  1.7870 -0.8636
 1982SOL     OW10756   9.641   8.675   6.299 -0.2691  0.2928 -0.2206
 1982SOL    HW110757   9.575   8.734   6.261 -0.0423 -0.2285 -1.4782
 1982SOL    HW210758   9.719   8.729   6.307 -0.6661  0.7520  0.7219
 1983SOL     OW10759   8.962  12.266  10.273 -0.0054  0.2056 -0.4665
 1983SOL    HW110760   8.889  12.304  10.323  0.1984 -2.5887  2.2482
 1983SOL    HW210761   9.039  12.314  10.305 -0.2104  0.5333 -0.4494
 1984SOL     OW10762   8.292  10.601  11.814  0.2616  0.3039 -0.1553
 1984SOL    HW110763   8.294  10.541  11.740 -0.9388 -1.6948  1.3351
 1984SOL    HW210764   8.264  10.684  11.776 -0.6045 -0.7246 -1.8980
 1985SOL     OW10765  10.896   4.135   8.371  0.4449  0.5177 -0.1224
 1985SOL    HW110766  10.934   4.082   8.301  0.6375  1.1331 -0.4839
 1985SOL    HW210767  10.926   4.224   8.354  0.5111  0.6731  0.7572
 1986SOL     OW10768   5.756  11.549   3.212  0.0640 -0.2254  0.0318
 1986SOL    HW110769   5.774  11.467   3.259 -1.4082 -0.2432  0.5988
 1986SOL    HW210770   5.788  11.618   3.271 -1.0765 -0.2872  0.7646
 1987SOL     OW10771   3.570  11.770   9.711  0.2487  0.4872  0.2401
 1987SOL    HW110772   3.610  11.740   9.630  0.0286  1.1072 -0.1011
 1987SOL    HW210773   3.498  11.827   9.683 -1.2300 -1.0067  0.8144
 1988SOL     OW10774   9.890   9.835   4.571  0.1560  0.1929  0.3710
 1988SOL    HW110775   9.945   9.857   4.496 -0.3946 -2.3107 -0.8687
 1988SOL    HW210776   9.935   9.762   4.613 -0.5683  0.2624  1.3017
 1989SOL     OW10777   7.257   5.306  11.529 -0.4152 -0.0591  0.0185
 1989SOL    HW110778   7.332   5.338  11.578  0.1416  0.5190 -1.1838
 1989SOL    HW210779   7.212   5.247  11.590 -1.0717  2.3972  2.0410
 1990SOL     OW10780   0.244   2.734   7.219 -0.0441 -0.0629  0.7620
 1990SOL    HW110781   0.164   2.709   7.173 -0.0962  0.2912  0.6588
 1990SOL    HW210782   0.265   2.658   7.273  0.4486 -0.7777 -0.4041
 1991SOL     OW10783  11.587   1.712   1.234  0.2733  0.0018  0.2031
 1991SOL    HW110784  11.575   1.793   1.184  1.3689 -0.0448 -0.1523
 1991SOL    HW210785  11.500   1.694   1.271  0.0042  1.3212  0.2717
 1992SOL     OW10786   1.832  11.039   9.625  0.1569 -0.0513 -0.2136
 1992SOL    HW110787   1.805  10.952   9.596 -0.0607 -0.3879  0.9529
 1992SOL    HW210788   1.910  11.023   9.679  0.0902  0.4693  0.0427
 1993SOL     OW10789   9.376  11.368   0.154 -0.5039  0.4096 -0.1720
 1993SOL    HW110790   9.375  11.407   0.242  2.1030  0.4749 -0.0887
 1993SOL    HW210791   9.464  11.387   0.121 -1.3984  0.3402 -2.8052
 1994SOL     OW10792   9.106   9.603   0.770 -0.1276 -0.8651 -0.2083
 1994SOL    HW110793   9.072   9.564   0.690 -2.6640  2.8883 -1.2143
 1994SOL    HW210794   9.169   9.669   0.740 -0.9156  0.4264  0.8730
 1995SOL     OW10795   8.997   7.985   9.774  0.4206 -0.6239 -0.5282
 1995SOL    HW110796   8.971   8.070   9.737  0.1011 -1.1384 -1.4921
 1995SOL    HW210797   9.010   8.004   9.868 -0.4024  0.3239 -0.5852
 1996SOL     OW10798  11.055   4.695   1.000  0.1032  0.7798  0.0580
 1996SOL    HW110799  11.097   4.775   1.031  0.1289 -0.0050  2.2515
 1996SOL    HW210800  10.989   4.676   1.067  1.0986 -1.7993  0.4239
 1997SOL     OW10801  11.320   4.269   5.476 -0.2491 -0.3145  0.2368
 1997SOL    HW110802  11.276   4.326   5.413 -0.8205 -0.1540  0.7693
 1997SOL    HW210803  11.299   4.180   5.446 -2.2391 -0.2764  1.3012
 1998SOL     OW10804   7.695   6.384   2.077 -0.4911  0.1020 -0.0647
 1998SOL    HW110805   7.604   6.355   2.072  0.1792 -1.9867 -1.4419
 1998SOL    HW210806   7.735   6.326   2.142  0.1812 -0.0195 -0.5736
 1999SOL     OW10807   6.959   6.310  12.267  0.6481  0.5674 -0.4595
 1999SOL    HW110808   6.872   6.331  12.300  0.1749 -1.3220 -0.3697
 1999SOL    HW210809   7.019   6.358  12.324 -0.2730 -0.0727  1.1162
 2000SOL     OW10810   8.061   9.584   3.572  0.1604 -0.3475  0.0171
 2000SOL    HW110811   8.036   9.557   3.660  0.9440  0.3453  0.4780
 2000SOL    HW210812   8.077   9.679   3.580 -2.8584  0.4159 -1.6008
 2001SOL     OW10813   1.738   5.480  11.086  0.5346 -0.4345 -0.0871
 2001SOL    HW110814   1.802   5.549  11.067  1.1973 -0.8211  0.6892
 2001SOL    HW210815   1.663   5.527  11.123  0.2518  0.0429 -1.2063
 2002SOL     OW10816   1.017   8.283   3.042 -0.4688  0.6120  0.4741
 2002SOL    HW110817   1.005   8.315   2.953  0.8618  1.0470  0.4289
 2002SOL    HW210818   1.050   8.194   3.031 -0.9137  0.4366  0.5472
 2003SOL     OW10819   3.804   4.924   4.819  0.2067 -0.2284  0.4820
 2003SOL    HW110820   3.835   4.945   4.731 -1.9715  0.5084 -0.1961
 2003SOL    HW210821   3.871   4.958   4.878  0.8902  0.8455 -0.8634
 2004SOL     OW10822   5.255   6.630   4.613 -0.1075  0.5001  0.0019
 2004SOL    HW110823   5.232   6.543   4.646 -2.2696  0.6374 -0.9731
 2004SOL    HW210824   5.325   6.613   4.549 -0.0470 -0.4381  0.3019
 2005SOL     OW10825   2.409   8.686   0.953 -0.0787  0.1383 -0.6339
 2005SOL    HW110826   2.360   8.605   0.965  1.3131 -0.7465 -0.6858
 2005SOL    HW210827   2.344   8.756   0.966 -1.5017 -0.9710 -1.4344
 2006SOL     OW10828   9.164  10.291   1.599 -0.1049  0.0625 -0.1223
 2006SOL    HW110829   9.153  10.242   1.518  0.5676  0.8135 -0.6882
 2006SOL    HW210830   9.253  10.326   1.594 -0.1952  0.4469  0.7600
 2007SOL     OW10831   4.405   6.305   6.293  0.3631 -0.6829  0.4584
 2007SOL    HW110832   4.329   6.284   6.239 -0.9219  1.8943  1.1082
 2007SOL    HW210833   4.480   6.290   6.235 -0.8772  0.5028 -1.5769
 2008SOL     OW10834   3.471   5.944   1.479  0.2401 -0.0926  0.1087
 2008SOL    HW110835   3.547   5.887   1.481  0.5283  0.2791 -0.2344
 2008SOL    HW210836   3.489   6.007   1.409 -1.0768 -0.9532 -1.0487
 2009SOL     OW10837  10.926   1.395   9.649 -0.3349 -0.3729  0.2571
 2009SOL    HW110838  10.857   1.332   9.669  0.0712 -1.4133 -1.4702
 2009SOL    HW210839  10.934   1.448   9.729 -1.8157 -1.4370  1.1501
 2010SOL     OW10840  11.180  11.626   2.928  0.0538  0.5036 -0.7080
 2010SOL    HW110841  11.127  11.566   2.979 -0.2740 -1.1210 -2.8296
 2010SOL    HW210842  11.264  11.631   2.975 -0.7328  0.3058  0.7619
 2011SOL     OW10843  10.226   1.182   8.242  0.2465 -0.3298  0.3063
 2011SOL    HW110844  10.234   1.181   8.338 -0.2255  1.0962  0.3768
 2011SOL    HW210845  10.260   1.267   8.216 -1.4306  0.0784 -0.6246
 2012SOL     OW10846   0.817  10.266   4.117  0.6012  0.0383 -0.0393
 2012SOL    HW110847   0.861  10.318   4.185 -2.7510  0.1861  2.2498
 2012SOL    HW210848   0.822  10.321   4.039  1.1044  1.7303  1.1156
 2013SOL     OW10849   3.121   3.327   5.563  0.3373  0.3142 -0.1515
 2013SOL    HW110850   3.087   3.245   5.599 -0.1329  0.3911 -0.4120
 2013SOL    HW210851   3.152   3.304   5.475 -0.9817  0.6729 -0.7266
 2014SOL     OW10852   5.114  11.806   4.121  0.2280  0.8864 -0.6942
 2014SOL    HW110853   5.100  11.839   4.032 -1.8208  2.1873  0.0365
 2014SOL    HW210854   5.166  11.874   4.164  2.0124 -0.1647 -1.0987
 2015SOL     OW10855   8.071   3.208   6.700 -0.4488  0.1305  0.1595
 2015SOL    HW110856   8.059   3.279   6.763  1.3804  1.2844 -0.7247
 2015SOL    HW210857   8.127   3.145   6.746  0.5891  0.8026 -0.1547
 2016SOL     OW10858   5.168  12.600   3.159 -0.5276  0.5057  0.2118
 2016SOL    HW110859   5.210  12.514   3.154  0.7924  1.1352  0.1821
 2016SOL    HW210860   5.116  12.596   3.239 -2.2933 -1.0871 -0.9339
 2017SOL     OW10861  10.260  11.192   6.325 -0.2360  0.3540 -0.0243
 2017SOL    HW110862  10.253  11.118   6.264 -0.5699  0.0375  0.3938
 2017SOL    HW210863  10.182  11.185   6.380  1.7376 -1.5455  2.8629
 2018SOL     OW10864   0.974   5.785   5.602  0.5154 -0.2527  0.3000
 2018SOL    HW110865   0.956   5.822   5.515 -1.4541 -0.1925  0.6934
 2018SOL    HW210866   0.926   5.702   5.603 -0.6492  0.3894  1.7962
 2019SOL     OW10867   3.394   8.100   5.003  0.4029 -0.0359 -0.0100
 2019SOL    HW110868   3.488   8.116   4.998  0.9145 -2.7803 -0.8518
 2019SOL    HW210869   3.357   8.149   4.929  1.1420  1.0338  0.3061
 2020SOL     OW10870  10.924   5.080  11.232 -0.0811  0.3848  0.2104
 2020SOL    HW110871  10.850   5.117  11.184  0.6564  1.9788  0.2436
 2020SOL    HW210872  10.985   5.153  11.242  0.9908 -0.6070  1.1866
 2021SOL     OW10873   6.388   1.212   4.494  0.1142  0.1036 -0.1392
 2021SOL    HW110874   6.336   1.267   4.435 -0.7965 -0.8934 -0.2961
 2021SOL    HW210875   6.326   1.186   4.563  1.1473  1.1957  1.2454
 2022SOL     OW10876   6.588   2.899   6.982 -0.1397  0.3191 -0.2118
 2022SOL    HW110877   6.604   2.935   6.895 -0.2172  1.4145  0.2061
 2022SOL    HW210878   6.504   2.937   7.008 -1.0436 -1.4372 -0.3739
 2023SOL     OW10879  10.440  11.279   8.767  0.2738 -0.0982 -0.0601
 2023SOL    HW110880  10.516  11.253   8.715  0.1605  1.9359 -1.3758
 2023SOL    HW210881  10.469  11.357   8.815 -0.6722  0.1005  0.2153
 2024SOL     OW10882   9.580   9.755   7.856 -0.0936  0.3741  0.8168
 2024SOL    HW110883   9.511   9.712   7.805  1.6406  0.0218 -1.4155
 2024SOL    HW210884   9.550   9.845   7.867 -0.5842  0.4682 -0.8926
 2025SOL     OW10885   9.907  10.027   0.947  0.3116  0.1505  0.4946
 2025SOL    HW110886   9.867  10.108   0.978 -2.0823 -0.1565 -1.4488
 2025SOL    HW210887   9.910   9.970   1.024 -2.2601  0.5543  0.9763
 2026SOL     OW10888   3.341  12.129   5.418  0.5076 -0.0951  0.0072
 2026SOL    HW110889   3.342  12.107   5.511 -0.7930  0.0905  0.0905
 2026SOL    HW210890   3.403  12.201   5.409 -0.8129  1.2621  1.1224
 2027SOL     OW10891   6.837   3.079   6.540  0.1240  0.6405  0.4124
 2027SOL    HW110892   6.902   3.075   6.469 -0.8091  1.5392 -0.5385
 2027SOL    HW210893   6.863   3.155   6.591 -0.0072  0.8267  0.2042
 2028SOL     OW10894   1.541   0.691   3.695 -0.2885 -0.0820 -0.3078
 2028SOL    HW110895   1.635   0.711   3.704 -0.5485  1.0729  0.0544
 2028SOL    HW210896   1.518   0.725   3.608 -0.2406 -0.9792 -0.6850
 2029SOL     OW10897   5.061   9.157   5.173 -0.4604 -0.0637 -0.2053
 2029SOL    HW110898   5.033   9.069   5.150  0.2885 -0.0357 -1.2939
 2029SOL    HW210899   5.157   9.152   5.177 -0.4738 -0.2516  3.8177
 2030SOL     OW10900  12.526   7.901   8.373  0.0598 -0.1488  0.3136
 2030SOL    HW110901  12.575   7.965   8.424  1.6821 -0.4948 -0.7431
 2030SOL    HW210902  12.514   7.943   8.288  0.1821 -0.8175 -0.0362
 2031SOL     OW10903   8.636   4.308   3.333  0.1212 -0.1829 -0.7576
 2031SOL    HW110904   8.623   4.297   3.239 -0.7392 -0.2501 -0.6416
 2031SOL    HW210905   8.547   4.303   3.370  0.2819  1.4453 -0.1033
 2032SOL     OW10906   3.469   5.334   6.502  0.1443  0.1077 -0.2492
 2032SOL    HW110907   3.390   5.379   6.473 -1.0821 -0.2104  2.3392
 2032SOL    HW210908   3.530   5.404   6.524  0.0217  0.3808 -0.7481
 2033SOL     OW10909   6.446   3.729   4.358  0.4065  0.0084 -0.1170
 2033SOL    HW110910   6.454   3.779   4.439 -2.1377 -0.7531  0.7152
 2033SOL    HW210911   6.437   3.795   4.289  1.7095  0.6583  0.3145
 2034SOL     OW10912   3.092   3.145   8.656  0.0461 -0.3979 -0.0428
 2034SOL    HW110913   3.109   3.232   8.693 -0.7169 -0.3391  0.1855
 2034SOL    HW210914   3.173   3.123   8.609 -0.5739  1.5016 -2.1898
 2035SOL     OW10915   5.763   8.973   0.798  0.0588  0.0295 -0.4318
 2035SOL    HW110916   5.677   9.015   0.801  0.0529  0.1894 -1.9396
 2035SOL    HW210917   5.798   8.983   0.887 -1.9268 -1.0548  0.5374
 2036SOL     OW10918   6.891   4.667   9.600  0.5706  0.3166 -0.0843
 2036SOL    HW110919   6.970   4.692   9.552  0.3560 -0.6650 -0.9623
 2036SOL    HW210920   6.924   4.623   9.679  0.9037  0.8807  0.0969
 2037SOL     OW10921  10.650   3.266   4.740  0.4504  0.0534  0.1673
 2037SOL    HW110922  10.619   3.180   4.770  0.1003 -0.1167 -0.6486
 2037SOL    HW210923  10.585   3.327   4.773 -0.0214 -0.1501 -0.3688
 2038SOL     OW10924   4.147   4.238   8.320  0.6436  0.1431  0.4418
 2038SOL    HW110925   4.126   4.217   8.411  1.8814 -0.5067  0.6018
 2038SOL    HW210926   4.065   4.271   8.283  0.2555  0.9532  1.9440
 2039SOL     OW10927  11.702   5.587   7.480  0.0678  0.2020 -0.9808
 2039SOL    HW110928  11.667   5.499   7.494 -1.2629  0.7979 -0.3131
 2039SOL    HW210929  11.794   5.574   7.458  0.2667 -1.2889  0.5247
 2040SOL     OW10930   5.945   0.836   3.655  0.1605 -0.3626  0.1170
 2040SOL    HW110931   5.917   0.903   3.592 -0.2443  0.7184  1.3881
 2040SOL    HW210932   5.879   0.767   3.646 -0.0442 -0.1034 -0.4592
 2041SOL     OW10933  12.606   2.948   4.704 -0.8905  0.1695 -0.2001
 2041SOL    HW110934  12.544   2.876   4.711 -0.3567 -0.2063  0.8834
 2041SOL    HW210935  12.678   2.913   4.650 -0.7199 -0.0429  0.1667
 2042SOL     OW10936   7.107   7.971   6.029 -0.5201 -0.0656  0.3430
 2042SOL    HW110937   7.033   7.932   6.075 -0.7048  0.1767  0.2553
 2042SOL    HW210938   7.184   7.928   6.067 -0.6255  0.5859  1.3427
 2043SOL     OW10939   5.079   6.601   1.095  0.5441 -0.1323 -0.0643
 2043SOL    HW110940   5.086   6.688   1.135  3.5860 -1.5446  2.9796
 2043SOL    HW210941   5.007   6.559   1.141  1.0300 -0.2023  0.6397
 2044SOL     OW10942   8.830   5.298   2.353 -0.3876 -0.3266  0.0929
 2044SOL    HW110943   8.773   5.223   2.334 -0.9315  0.2855 -0.7411
 2044SOL    HW210944   8.776   5.375   2.335  0.3880  0.2709  0.2649
 2045SOL     OW10945   6.387   5.635   5.897  0.4817  0.1541 -0.2836
 2045SOL    HW110946   6.327   5.690   5.946  0.6857  0.8168 -0.7741
 2045SOL    HW210947   6.469   5.684   5.895  0.9227 -0.5443 -0.0001
 2046SOL     OW10948  11.002   5.612  12.138 -0.1340  0.0941 -0.1214
 2046SOL    HW110949  11.083   5.629  12.090 -1.4336  2.7379 -1.6872
 2046SOL    HW210950  10.942   5.680  12.106 -2.4500 -0.7114  2.1906
 2047SOL     OW10951   4.344  12.053   8.182  0.0863 -0.5282  0.2454
 2047SOL    HW110952   4.289  12.043   8.105 -0.5203 -0.6765  0.6921
 2047SOL    HW210953   4.311  11.988   8.244  0.3988 -0.2346  0.7253
 2048SOL     OW10954   2.265   6.796   9.067  0.0787  0.0013 -0.0686
 2048SOL    HW110955   2.278   6.703   9.049  0.3651 -0.1748  0.9665
 2048SOL    HW210956   2.353   6.833   9.070 -0.0521  0.4086 -0.9218
 2049SOL     OW10957   8.801   6.558  11.796  0.1949 -0.1900  0.9205
 2049SOL    HW110958   8.767   6.481  11.842 -1.4337  1.2146  2.2276
 2049SOL    HW210959   8.888   6.532  11.766 -0.8206 -2.9916  0.0668
 2050SOL     OW10960   4.136   5.476   7.501 -0.1762  0.7660  0.1013
 2050SOL    HW110961   4.161   5.564   7.527  0.8996  0.6011 -0.3152
 2050SOL    HW210962   4.132   5.480   7.405  0.6878  0.1788  0.0255
 2051SOL     OW10963   9.850   1.802   5.521 -0.3864 -0.1337  0.1433
 2051SOL    HW110964   9.936   1.761   5.519 -0.0486  0.5762 -1.2416
 2051SOL    HW210965   9.821   1.793   5.612  0.7885 -1.0923  0.4473
 2052SOL     OW10966   7.896   3.995   9.526  0.0031  0.4769 -0.2332
 2052SOL    HW110967   7.983   4.013   9.488  0.7103 -0.6057  0.8167
 2052SOL    HW210968   7.871   4.078   9.568  1.6867  0.1363  1.6067
 2053SOL     OW10969   2.620  12.258  12.282 -0.0359  0.0500  0.0047
 2053SOL    HW110970   2.670  12.204  12.221 -0.1224  0.3111 -0.2990
 2053SOL    HW210971   2.549  12.201  12.311 -0.1322 -0.0001 -0.3229
 2054SOL     OW10972   3.836   5.918   8.823  0.3780 -0.0426  0.1262
 2054SOL    HW110973   3.859   5.888   8.911 -0.1436  1.5360  0.8430
 2054SOL    HW210974   3.780   5.849   8.788  0.8550 -0.8395  0.9105
 2055SOL     OW10975   7.296   8.136   8.425  0.6208  0.6263 -0.2309
 2055SOL    HW110976   7.347   8.089   8.492  0.6092 -1.9771 -1.8743
 2055SOL    HW210977   7.300   8.078   8.348 -2.7659  1.4903 -1.2114
 2056SOL     OW10978   7.344  11.324  10.898  0.2158  0.0723 -0.3980
 2056SOL    HW110979   7.375  11.287  10.980  1.0044 -2.3290 -1.6686
 2056SOL    HW210980   7.394  11.404  10.887  0.6444  0.0366  1.0737
 2057SOL     OW10981  11.264   3.188  12.228 -0.4004 -0.2554  0.1977
 2057SOL    HW110982  11.335   3.125  12.236 -0.0746  0.1208  0.2771
 2057SOL    HW210983  11.199   3.144  12.173 -0.0867 -0.5810  0.0861
 2058SOL     OW10984  10.543   4.665   5.783  0.3014  0.5274  0.2871
 2058SOL    HW110985  10.482   4.738   5.793  0.5044  0.8849 -0.8951
 2058SOL    HW210986  10.618   4.703   5.738  0.4447 -0.3923 -0.2795
 2059SOL     OW10987   3.648   8.126   2.481  0.1530  0.4362 -0.1101
 2059SOL    HW110988   3.699   8.146   2.559 -0.4448  0.6108  0.2499
 2059SOL    HW210989   3.593   8.052   2.507 -0.8885  1.2249  0.0288
 2060SOL     OW10990   5.079   8.091  11.636  0.8634  0.3612 -0.5521
 2060SOL    HW110991   5.084   8.036  11.714 -2.0688  2.1395  1.0766
 2060SOL    HW210992   5.148   8.156  11.647  1.1760 -0.0548 -0.0344
 2061SOL     OW10993   8.217   2.323   5.207  0.1590 -0.4855  0.3289
 2061SOL    HW110994   8.297   2.271   5.209  0.2491 -0.4912 -1.5053
 2061SOL    HW210995   8.232   2.393   5.270  0.6215 -1.8253  1.7708
 2062SOL     OW10996   1.910   4.480  10.953 -0.2727 -0.4434  0.6754
 2062SOL    HW110997   1.981   4.434  10.997  0.5811 -1.2808 -1.4087
 2062SOL    HW210998   1.935   4.479  10.860 -2.2162  0.6943  0.0758
 2063SOL     OW10999   1.211   2.775   6.347  0.1324  0.2787 -0.0763
 2063SOL    HW111000   1.250   2.716   6.412 -1.5280 -1.6914 -0.7629
 2063SOL    HW211001   1.267   2.852   6.348  1.2827 -0.4940  2.2833
 2064SOL     OW11002   2.250   4.641   2.381 -0.1974 -0.3582  1.0116
 2064SOL    HW111003   2.262   4.578   2.452 -2.5935 -1.4039  0.5761
 2064SOL    HW211004   2.200   4.713   2.421  0.0253 -0.0851  0.8048
 2065SOL     OW11005   3.684   6.485   4.292 -0.2173 -0.3691  0.4874
 2065SOL    HW111006   3.750   6.436   4.340 -0.5638  0.0531  1.4255
 2065SOL    HW211007   3.713   6.482   4.201  0.3442 -1.3614  0.6857
 2066SOL     OW11008   0.265  11.003   3.643  0.1144 -0.3215 -0.0806
 2066SOL    HW111009   0.319  10.983   3.566  0.2552 -1.0195  0.1971
 2066SOL    HW211010   0.304  10.952   3.714 -0.0971  0.2190  0.4325
 2067SOL     OW11011   2.647  10.896   5.337 -0.5271 -0.1894 -0.0963
 2067SOL    HW111012   2.630  10.880   5.429 -2.0114  0.9582 -0.1366
 2067SOL    HW211013   2.579  10.847   5.291  0.6613 -1.3999 -0.6737
 2068SOL     OW11014   2.840   1.277   7.242  0.1626  0.6509 -0.1339
 2068SOL    HW111015   2.875   1.350   7.192 -0.2128  1.3268  0.5742
 2068SOL    HW211016   2.756   1.309   7.277 -0.2946 -0.3178 -0.3057
 2069SOL     OW11017   1.301   4.755  12.060  0.6577  0.2485 -0.4377
 2069SOL    HW111018   1.223   4.703  12.078  1.1516  0.1831  1.7866
 2069SOL    HW211019   1.270   4.845  12.056  0.6555  0.5107  2.7578
 2070SOL     OW11020  12.386   3.464   2.984  0.5756 -0.3440 -0.5545
 2070SOL    HW111021  12.423   3.525   2.920 -0.6377  1.5310  0.4174
 2070SOL    HW211022  12.456   3.403   3.003  2.4400  1.7057 -0.4288
 2071SOL     OW11023   9.208  12.624  11.202  0.4949  0.2676 -0.5916
 2071SOL    HW111024   9.168  12.683  11.266  1.0962  1.1111 -0.9718
 2071SOL    HW211025   9.200  12.670  11.118  1.7518  0.2201 -0.7647
 2072SOL     OW11026   9.931   7.944   0.904  0.0276  0.2984  0.4001
 2072SOL    HW111027  10.024   7.945   0.881  0.4148 -0.4990  1.8576
 2072SOL    HW211028   9.887   7.921   0.822  1.1562  0.1259 -0.1804
 2073SOL     OW11029   6.988   7.032  12.243 -1.0340  0.3724  0.1515
 2073SOL    HW111030   6.980   7.105  12.304 -3.2728  0.4257 -0.1349
 2073SOL    HW211031   6.903   6.988  12.246  0.2126 -2.2426  0.2928
 2074SOL     OW11032   6.012  11.338   1.981 -0.3051  0.2742  0.4153
 2074SOL    HW111033   6.028  11.411   1.921  2.0675 -0.9102 -0.5190
 2074SOL    HW211034   6.009  11.379   2.067 -2.9081  1.9041 -0.3083
 2075SOL     OW11035   1.887   4.311   3.386  0.4535 -0.0871  0.1997
 2075SOL    HW111036   1.871   4.273   3.300  1.0244 -2.7708  1.1741
 2075SOL    HW211037   1.897   4.405   3.370 -1.5061 -0.1954 -2.3496
 2076SOL     OW11038   3.090  11.863  10.053  0.2684  0.0313  0.5288
 2076SOL    HW111039   3.084  11.913   9.971  0.1678 -1.0974 -0.1628
 2076SOL    HW211040   3.183  11.843  10.063 -0.0671 -2.6536 -1.0662
 2077SOL     OW11041   5.116   9.923   1.356 -0.1048 -0.8315 -0.1538
 2077SOL    HW111042   5.210   9.907   1.349 -0.0557 -0.4028 -0.5407
 2077SOL    HW211043   5.104  10.012   1.321 -0.7397 -1.1534 -0.7716
 2078SOL     OW11044   6.792   8.716  12.032 -0.3358  0.3257 -0.4413
 2078SOL    HW111045   6.737   8.783  11.991 -0.5921 -0.4486 -1.3880
 2078SOL    HW211046   6.730   8.650  12.062  0.0215 -0.1463 -0.7421
 2079SOL     OW11047   1.691  10.189  10.047 -0.7019  0.0538 -0.1635
 2079SOL    HW111048   1.768  10.133  10.040 -0.9170 -0.4499  1.1571
 2079SOL    HW211049   1.722  10.265  10.097 -1.2437 -0.5804  1.1956
 2080SOL     OW11050   3.904   7.645   1.406 -0.4382  0.1949  0.4077
 2080SOL    HW111051   3.931   7.553   1.405  3.7507  1.1989  1.1790
 2080SOL    HW211052   3.889   7.665   1.499  0.2943  0.6308  0.4431
 2081SOL     OW11053  12.158  10.509  11.213 -0.4140 -0.3923  0.6430
 2081SOL    HW111054  12.247  10.535  11.236  0.1786 -1.6102 -0.1377
 2081SOL    HW211055  12.122  10.471  11.293  0.7816 -2.4175  0.2806
 2082SOL     OW11056   1.264   8.626   4.029 -0.1643 -0.1549 -0.1370
 2082SOL    HW111057   1.223   8.674   3.958 -0.3847 -0.8513 -0.4895
 2082SOL    HW211058   1.198   8.564   4.058  0.5319 -1.1250 -0.5490
 2083SOL     OW11059  11.264  12.356   2.162 -0.0440  0.5504 -0.6265
 2083SOL    HW111060  11.242  12.441   2.123  0.9679  0.6216 -1.0849
 2083SOL    HW211061  11.289  12.377   2.252 -2.2805  0.3988  0.0747
 2084SOL     OW11062   6.966   1.728   0.186  0.7865 -0.2019 -0.2801
 2084SOL    HW111063   6.951   1.810   0.140  0.1130 -0.3455 -0.3246
 2084SOL    HW211064   6.927   1.661   0.129  1.7839 -0.6144 -0.4934
 2085SOL     OW11065   7.499  11.608   0.985 -0.7532  0.0687 -0.1903
 2085SOL    HW111066   7.441  11.643   1.052 -1.7493 -0.9751 -0.4740
 2085SOL    HW211067   7.450  11.536   0.946  0.2694 -0.0835 -1.2559
 2086SOL     OW11068   5.172   2.194  12.578 -0.3399  0.0192 -0.5099
 2086SOL    HW111069   5.233   2.148  12.636  0.3924  1.0217 -0.4553
 2086SOL    HW211070   5.100   2.220  12.635 -0.1611  0.0164 -0.2794
 2087SOL     OW11071   9.289   4.047   2.198 -0.0838  0.2128  0.2354
 2087SOL    HW111072   9.254   4.095   2.123  0.9215  2.3534  1.0659
 2087SOL    HW211073   9.234   4.074   2.272  0.7009  0.3500  0.7786
 2088SOL     OW11074   1.985   3.237   1.063  0.1470  0.6509 -0.6420
 2088SOL    HW111075   1.989   3.147   1.095 -0.4148  0.6336 -0.6136
 2088SOL    HW211076   1.987   3.229   0.968  2.0029  0.7108 -0.6445
 2089SOL     OW11077   7.801   9.513   3.347  0.0016  0.6075 -0.0753
 2089SOL    HW111078   7.816   9.606   3.359 -0.9076  0.6692  0.6473
 2089SOL    HW211079   7.709   9.499   3.370  0.4175 -0.6533  0.9561
 2090SOL     OW11080   5.474   8.266   3.055 -0.2416 -0.0002 -0.7255
 2090SOL    HW111081   5.533   8.246   2.983 -0.1651  0.2573 -0.7347
 2090SOL    HW211082   5.531   8.275   3.132 -0.4389 -1.6372 -0.3398
 2091SOL     OW11083   3.635   7.463   1.361 -0.5274 -0.1809 -0.1325
 2091SOL    HW111084   3.730   7.471   1.354 -0.3063 -1.2721  1.1422
 2091SOL    HW211085   3.601   7.513   1.287  1.0559 -0.2523 -0.9507
 2092SOL     OW11086  12.166   8.705   8.493 -0.9637 -0.0836  0.4718
 2092SOL    HW111087  12.112   8.627   8.505 -1.2948 -0.1363 -1.1671
 2092SOL    HW211088  12.191   8.731   8.582 -0.8594 -2.0328  1.0570
 2093SOL     OW11089   4.378   4.702  12.464 -0.2599  0.1585  0.0261
 2093SOL    HW111090   4.386   4.656  12.548 -1.4080 -1.4099 -0.6642
 2093SOL    HW211091   4.296   4.669  12.426 -0.6919  2.1933 -0.9228
 2094SOL     OW11092   7.379  10.469   6.297 -0.2494 -0.4962 -0.1449
 2094SOL    HW111093   7.430  10.423   6.230  0.4656  0.5390 -0.3465
 2094SOL    HW211094   7.395  10.562   6.279 -0.5637 -0.1885  1.0721
 2095SOL     OW11095   0.259   8.719   9.518 -0.2247  0.6651 -0.1511
 2095SOL    HW111096   0.300   8.676   9.593 -0.4502  1.8074  0.6424
 2095SOL    HW211097   0.314   8.694   9.443  0.1227 -0.3060  0.4172
 2096SOL     OW11098   9.484   5.271   7.766 -0.0515 -0.0494 -0.0588
 2096SOL    HW111099   9.514   5.358   7.738 -1.8211  1.1813  1.5766
 2096SOL    HW211100   9.430   5.240   7.693 -0.0014  0.5635 -0.3665
 2097SOL     OW11101   8.641   9.200   8.758  0.0009  0.0471 -0.3439
 2097SOL    HW111102   8.710   9.216   8.822 -1.9616  1.4527  1.5760
 2097SOL    HW211103   8.608   9.112   8.777 -1.1395  0.7731  1.2538
 2098SOL     OW11104   2.236  11.103   0.778  0.1663  0.1410  0.2758
 2098SOL    HW111105   2.203  11.114   0.689 -0.9982 -0.7136  0.5810
 2098SOL    HW211106   2.164  11.061   0.825  1.3399 -0.8737  1.2212
 2099SOL     OW11107   0.597   3.412  12.506  0.4489  0.1951 -0.2792
 2099SOL    HW111108   0.561   3.500  12.495  1.7547  0.7855 -0.0881
 2099SOL    HW211109   0.583   3.393  12.599 -0.9045 -0.3101 -0.5715
 2100SOL     OW11110   1.318   8.622   1.535 -0.7757  0.5766  0.1503
 2100SOL    HW111111   1.314   8.526   1.538  0.2211  0.4693 -0.8830
 2100SOL    HW211112   1.368   8.646   1.613  2.1479 -0.0631 -1.3734
 2101SOL     OW11113   4.576   3.790   6.823 -0.1453 -0.1451  0.1400
 2101SOL    HW111114   4.663   3.807   6.786 -0.2396  0.2091  0.0730
 2101SOL    HW211115   4.590   3.795   6.918 -0.0251 -0.4409  0.1400
 2102SOL     OW11116   3.256   7.056   4.303  0.2194  0.2556 -0.0051
 2102SOL    HW111117   3.246   7.147   4.332 -0.1126  0.9792 -2.2411
 2102SOL    HW211118   3.291   7.062   4.215  0.5823 -1.8306 -0.0664
 2103SOL     OW11119  10.857  10.723   7.240  0.2432 -0.0162  0.1908
 2103SOL    HW111120  10.828  10.634   7.258 -1.0417  0.4246  0.4089
 2103SOL    HW211121  10.936  10.712   7.187 -1.6377 -1.3258 -2.6065
 2104SOL     OW11122   2.157  11.922   3.833  0.0957 -0.1991 -0.0513
 2104SOL    HW111123   2.231  11.941   3.890 -0.0626 -0.7146  0.3336
 2104SOL    HW211124   2.146  11.827   3.839 -0.7703 -0.0974  0.1356
 2105SOL     OW11125   7.720  10.213   9.317 -0.3951  0.2269  0.1564
 2105SOL    HW111126   7.758  10.180   9.236  0.7972  0.5406  0.5600
 2105SOL    HW211127   7.627  10.195   9.310 -0.1492 -0.7253 -0.8081
 2106SOL     OW11128  12.528   7.677   6.426  0.0031 -0.6388 -0.1759
 2106SOL    HW111129  12.516   7.726   6.508 -0.0780 -1.9144  0.5962
 2106SOL    HW211130  12.622   7.657   6.425  0.2423  0.4366 -1.0382
 2107SOL     OW11131   8.189   2.044   5.730  0.2716  0.4243  0.8204
 2107SOL    HW111132   8.261   1.985   5.711  1.1829  2.0424 -1.1070
 2107SOL    HW211133   8.110   1.990   5.719  1.0097 -0.2424 -2.0607
 2108SOL     OW11134   5.896   6.309   0.180  0.3877  0.0364  0.1810
 2108SOL    HW111135   5.905   6.216   0.158 -1.6258  0.1030 -1.3538
 2108SOL    HW211136   5.908   6.354   0.096 -0.2239  1.0050  0.5971
 2109SOL     OW11137   0.899   8.665   2.982  0.6783  0.0477  0.1462
 2109SOL    HW111138   0.934   8.614   2.909  2.4990 -1.3132  1.8467
 2109SOL    HW211139   0.840   8.605   3.027  2.1099 -0.3538  1.6141
 2110SOL     OW11140   2.600   5.249   7.555 -0.0386  0.5791 -0.8001
 2110SOL    HW111141   2.693   5.230   7.540 -0.0406 -0.0329 -0.1200
 2110SOL    HW211142   2.557   5.217   7.476  0.2733  0.2932 -0.8612
 2111SOL     OW11143   5.045   0.481   4.659 -0.1584 -0.0901 -0.1198
 2111SOL    HW111144   5.042   0.452   4.750 -1.1304  0.6507  0.0884
 2111SOL    HW211145   5.135   0.462   4.632  0.6678  1.2423  1.5065
 2112SOL     OW11146   4.610  11.685   1.898 -0.1596  0.7277 -0.1056
 2112SOL    HW111147   4.571  11.770   1.882 -1.4117 -0.1474 -2.0827
 2112SOL    HW211148   4.656  11.663   1.817 -1.0148 -1.0379 -0.1660
 2113SOL     OW11149  12.355   4.557   6.455  0.1819  0.3486  0.4083
 2113SOL    HW111150  12.285   4.520   6.402 -0.3526  1.7338  0.1105
 2113SOL    HW211151  12.312   4.627   6.506  1.1304  0.5048  1.0223
 2114SOL     OW11152  10.263   0.653  11.015 -0.3758  0.2241  0.7804
 2114SOL    HW111153  10.282   0.677  11.106  0.6792  0.8764  0.4086
 2114SOL    HW211154  10.171   0.673  11.003 -0.2691  1.1437  1.4085
 2115SOL     OW11155   8.268   5.932   8.393 -0.4834  0.1437 -0.5057
 2115SOL    HW111156   8.252   5.996   8.462  0.5772  0.1131 -0.2162
 2115SOL    HW211157   8.240   5.976   8.313  2.4451  1.9813 -0.6625
 2116SOL     OW11158   5.122   5.292   3.563  0.2225  0.3998 -0.4952
 2116SOL    HW111159   5.159   5.259   3.645 -0.3728  0.6682 -0.1152
 2116SOL    HW211160   5.186   5.267   3.496 -0.1657 -1.4535 -0.2235
 2117SOL     OW11161   9.542   0.361   8.797 -0.3592  0.3287  0.3864
 2117SOL    HW111162   9.634   0.352   8.824 -0.9289 -0.0346  2.3885
 2117SOL    HW211163   9.544   0.354   8.702  1.6358 -0.1382  0.4201
 2118SOL     OW11164  10.298   7.625   3.447  0.4385  0.0970  0.0634
 2118SOL    HW111165  10.218   7.594   3.404 -0.1415  1.4020  0.1629
 2118SOL    HW211166  10.366   7.617   3.380  0.3819 -1.5742  0.1584
 2119SOL     OW11167   1.661   7.357  11.486 -0.4082 -0.2526  0.2458
 2119SOL    HW111168   1.752   7.339  11.509 -0.1664  1.1179  0.4513
 2119SOL    HW211169   1.610   7.320  11.558  0.1691  1.4222  1.5814
 2120SOL     OW11170   8.009  10.026   4.642 -0.4809  0.3473 -0.2410
 2120SOL    HW111171   8.057   9.951   4.609  0.7040  1.3609 -0.9348
 2120SOL    HW211172   7.923  10.019   4.601 -0.4157 -0.6700 -0.2215
 2121SOL     OW11173   3.690   8.788   9.447  0.9856 -0.0122  0.9625
 2121SOL    HW111174   3.736   8.847   9.506  0.0326  0.0910  1.6238
 2121SOL    HW211175   3.624   8.842   9.405  1.3577 -0.1906  0.1202
 2122SOL     OW11176   0.464  11.355   5.119 -0.1236 -0.2045 -0.6660
 2122SOL    HW111177   0.479  11.408   5.197 -1.8614 -0.1894 -0.3185
 2122SOL    HW211178   0.369  11.348   5.111  0.0291 -1.6542 -1.8016
 2123SOL     OW11179   6.818   9.803  11.127 -0.0897 -0.1250  0.0386
 2123SOL    HW111180   6.742   9.801  11.185 -0.8666  1.7398 -0.8261
 2123SOL    HW211181   6.795   9.744  11.055  0.0764 -0.9563  0.6470
 2124SOL     OW11182   5.934   0.294  10.054 -0.5705 -0.1497 -0.1306
 2124SOL    HW111183   5.977   0.292   9.968 -1.7800  1.5067 -0.8213
 2124SOL    HW211184   6.005   0.314  10.115  0.0678  0.0749 -0.9258
 2125SOL     OW11185   6.894   6.512   1.077  0.2227  0.2169  0.0219
 2125SOL    HW111186   6.984   6.486   1.059  0.2343  1.0951 -1.3318
 2125SOL    HW211187   6.900   6.560   1.160  0.8354 -0.5532  0.4359
 2126SOL     OW11188   7.000  11.951   0.383 -0.1192 -0.1946  0.4026
 2126SOL    HW111189   6.983  12.002   0.304  0.5082 -0.8721 -0.1792
 2126SOL    HW211190   7.095  11.944   0.387 -0.1164  0.1713  1.4512
 2127SOL     OW11191   8.765  11.101   4.481  0.4191  0.2816 -0.3354
 2127SOL    HW111192   8.780  11.190   4.450 -0.7609 -0.4370 -3.2204
 2127SOL    HW211193   8.841  11.051   4.451  0.1910 -0.0621 -0.3486
 2128SOL     OW11194   3.984   2.191   2.400 -0.1870 -0.1042 -0.1605
 2128SOL    HW111195   4.046   2.191   2.327 -0.4835 -0.6415 -0.4171
 2128SOL    HW211196   4.023   2.250   2.464  1.1139 -1.1870  0.1033
 2129SOL     OW11197   5.335   1.487   2.476 -0.2658 -0.9086  0.3725
 2129SOL    HW111198   5.425   1.518   2.469 -0.0271 -1.5447  0.6167
 2129SOL    HW211199   5.294   1.546   2.540 -0.4739  0.3738 -0.8834
 2130SOL     OW11200   6.111   0.347   5.150  0.8208 -0.2037  0.1703
 2130SOL    HW111201   6.191   0.295   5.148  1.3027  0.5216  0.1890
 2130SOL    HW211202   6.066   0.320   5.230  0.1369 -1.9269 -0.7363
 2131SOL     OW11203  11.510   7.854   9.235 -0.4626 -0.4881 -0.0367
 2131SOL    HW111204  11.497   7.774   9.288  0.4939  0.5290  1.8344
 2131SOL    HW211205  11.546   7.917   9.297 -0.2496  1.1031 -1.7296
 2132SOL     OW11206   6.090   5.777   7.874 -0.1516  0.6076 -0.0824
 2132SOL    HW111207   6.084   5.855   7.930  1.3193  0.1984  0.6976
 2132SOL    HW211208   6.118   5.811   7.789 -2.1905  1.2080 -0.5677
 2133SOL     OW11209   9.167   7.141  12.138  0.2281  0.0920 -0.3300
 2133SOL    HW111210   9.130   7.185  12.061  0.1164  0.9921  0.2191
 2133SOL    HW211211   9.190   7.213  12.197 -0.8704 -0.6035  1.0048
 2134SOL     OW11212   6.416   2.751  11.513 -0.3119 -0.2214  0.3808
 2134SOL    HW111213   6.421   2.683  11.446  0.1630 -0.7711  0.9517
 2134SOL    HW211214   6.420   2.702  11.596  1.5442  0.5965  0.8090
 2135SOL     OW11215   1.750   4.949  12.399 -1.1021 -0.2205 -0.5851
 2135SOL    HW111216   1.804   4.924  12.474 -1.5932 -0.2675 -0.2408
 2135SOL    HW211217   1.734   5.043  12.412  0.5501  0.2661 -1.7522
 2136SOL     OW11218   2.687  11.801   0.608 -1.0219 -0.4170  0.0180
 2136SOL    HW111219   2.660  11.782   0.697  0.6597  0.7328  0.8293
 2136SOL    HW211220   2.672  11.720   0.560 -1.0572 -1.3601  1.5690
 2137SOL     OW11221  11.370   6.680  11.277  0.2607 -0.4922  0.0537
 2137SOL    HW111222  11.440   6.725  11.324 -1.1628 -1.1767  3.0971
 2137SOL    HW211223  11.414   6.633  11.207  3.3105 -2.7707  3.1486
 2138SOL     OW11224  11.211   5.051   6.764 -0.0498 -0.6520  0.2683
 2138SOL    HW111225  11.141   5.028   6.825  0.0688 -1.6413  0.0374
 2138SOL    HW211226  11.201   4.990   6.691  1.4132 -1.1985  0.4983
 2139SOL     OW11227  10.844   2.197  11.952  0.0531  0.0995 -0.4525
 2139SOL    HW111228  10.857   2.174  11.860 -1.2051 -0.0875 -0.6016
 2139SOL    HW211229  10.921   2.164  11.997 -0.3967 -1.9183 -1.0808
 2140SOL     OW11230  10.295   0.136   6.929 -0.1991  0.3898 -0.1800
 2140SOL    HW111231  10.357   0.094   6.869 -2.2544 -0.0209 -2.1358
 2140SOL    HW211232  10.211   0.128   6.886 -1.3738  2.6026  1.5121
 2141SOL     OW11233   6.858   1.132   7.747 -0.5446 -0.2088 -0.7766
 2141SOL    HW111234   6.845   1.208   7.804 -0.6152 -0.4213 -0.5052
 2141SOL    HW211235   6.769   1.106   7.722 -0.4705  0.6740 -2.0518
 2142SOL     OW11236   8.887  11.856   2.441  0.0331 -0.0584 -0.4246
 2142SOL    HW111237   8.950  11.926   2.460  0.2827 -0.1182 -1.0225
 2142SOL    HW211238   8.823  11.862   2.513  1.0627 -0.4137  0.5533
 2143SOL     OW11239   3.861   7.642   9.638  0.4233 -0.3559  0.2237
 2143SOL    HW111240   3.776   7.638   9.594  0.9000 -1.4445 -0.6298
 2143SOL    HW211241   3.839   7.648   9.731 -0.6951 -4.5827  0.4338
 2144SOL     OW11242   3.683   5.339   1.268  0.1103 -0.0368  0.3525
 2144SOL    HW111243   3.687   5.417   1.324  1.7886 -0.4284  0.8527
 2144SOL    HW211244   3.683   5.373   1.179  0.3294  0.5641  0.5738
 2145SOL     OW11245   8.954  10.146   6.353  0.6678 -0.1004 -1.2096
 2145SOL    HW111246   8.989  10.201   6.282  1.2900  2.3498  0.8517
 2145SOL    HW211247   8.923  10.208   6.419 -3.8823 -2.1618 -1.0121
 2146SOL     OW11248   7.852   7.505   4.640  0.4746 -0.4629  0.2219
 2146SOL    HW111249   7.881   7.516   4.730  1.4714 -0.3125 -0.1109
 2146SOL    HW211250   7.823   7.414   4.635 -1.7524  0.1027  1.2798
 2147SOL     OW11251   5.054  11.876   9.025  0.4154 -0.2790 -0.0556
 2147SOL    HW111252   5.013  11.825   9.094  0.6520 -0.5362 -0.1045
 2147SOL    HW211253   4.981  11.918   8.980 -0.0182 -2.3721 -1.4514
 2148SOL     OW11254   8.259   4.276   8.496  0.1206 -0.0962 -0.6011
 2148SOL    HW111255   8.238   4.286   8.588  0.8158 -0.9190 -0.3341
 2148SOL    HW211256   8.184   4.230   8.458  0.4188 -0.9852 -0.1424
 2149SOL     OW11257   5.330   4.931   8.456  0.2968  0.4824  0.0447
 2149SOL    HW111258   5.246   4.892   8.479 -0.7238  1.1583 -2.2413
 2149SOL    HW211259   5.376   4.940   8.539 -0.5234 -2.9261  1.0164
 2150SOL     OW11260   1.673   3.942   7.257 -0.3351  0.7687  0.1693
 2150SOL    HW111261   1.716   3.905   7.180 -1.3656 -0.3693  0.1112
 2150SOL    HW211262   1.649   3.866   7.310 -2.1503  1.3705  0.2565
 2151SOL     OW11263   0.611   6.228   9.927  0.3548 -0.0260 -0.1163
 2151SOL    HW111264   0.553   6.221   9.851 -0.5167  2.4745  0.2391
 2151SOL    HW211265   0.615   6.321   9.947  1.6112 -0.4690  2.1254
 2152SOL     OW11266   0.595   1.226   1.775 -0.3662  0.1996 -0.0284
 2152SOL    HW111267   0.634   1.177   1.847 -0.0606 -0.4308 -0.6213
 2152SOL    HW211268   0.526   1.279   1.817 -1.2979 -1.3700  0.5009
 2153SOL     OW11269   2.459   8.276  12.079 -0.2682 -0.3218  0.4782
 2153SOL    HW111270   2.459   8.197  12.025  2.4819 -0.3044  0.3069
 2153SOL    HW211271   2.508   8.251  12.158  0.2070  1.0447  0.6423
 2154SOL     OW11272   2.320   3.228   6.516 -0.0033 -0.1872  0.3911
 2154SOL    HW111273   2.379   3.301   6.496 -1.7750  0.9434 -1.0414
 2154SOL    HW211274   2.376   3.151   6.518  1.5140  0.8304 -0.8730
 2155SOL     OW11275  10.845   0.122  10.126 -0.6237 -0.1276 -0.2795
 2155SOL    HW111276  10.820   0.040  10.169 -0.6025  0.3545  0.6554
 2155SOL    HW211277  10.764   0.173  10.121 -1.0013 -0.7975 -2.2811
 2156SOL     OW11278   6.018   5.252   3.058 -0.2511 -0.3789  0.8056
 2156SOL    HW111279   6.038   5.246   2.965  0.2635 -1.6443  0.9811
 2156SOL    HW211280   6.011   5.346   3.075  1.9690  0.0056 -0.0515
 2157SOL     OW11281  10.794   9.637   2.991 -0.3921  0.5145 -0.0137
 2157SOL    HW111282  10.869   9.694   2.972  0.2262 -0.6413 -1.2145
 2157SOL    HW211283  10.719   9.686   2.957 -0.1140  1.3654  0.5446
 2158SOL     OW11284   4.812  12.630   1.743 -0.0118  0.2953 -0.0970
 2158SOL    HW111285   4.851  12.711   1.710  0.1842 -0.1805 -1.0753
 2158SOL    HW211286   4.887  12.572   1.758 -0.2945 -0.5378 -1.7469
 2159SOL     OW11287   1.691  11.552  10.466  0.3746  0.0154 -0.2825
 2159SOL    HW111288   1.690  11.464  10.429 -0.6452  0.0194 -0.2973
 2159SOL    HW211289   1.765  11.596  10.424  0.5725 -0.6657 -0.6560
 2160SOL     OW11290   4.093   6.468   0.889 -0.6203 -0.7647  0.8452
 2160SOL    HW111291   4.020   6.528   0.873  1.2467  1.1929 -1.0638
 2160SOL    HW211292   4.059   6.382   0.865 -2.4222  0.0064  0.4324
 2161SOL     OW11293   0.880   5.518   5.873  0.2568  0.1088  0.7631
 2161SOL    HW111294   0.928   5.436   5.862 -0.9749 -0.7594  1.5773
 2161SOL    HW211295   0.854   5.542   5.785 -0.9318 -1.3901  0.6536
 2162SOL     OW11296   0.479   8.023   8.559 -0.0688 -0.1412 -0.4299
 2162SOL    HW111297   0.434   8.095   8.516 -0.0207 -0.6045 -1.2690
 2162SOL    HW211298   0.538   8.066   8.622 -0.5359  0.5169 -0.4296
 2163SOL     OW11299   4.600  10.790   7.396  0.2104 -0.2706  0.0544
 2163SOL    HW111300   4.552  10.870   7.377 -0.9894 -1.4804 -2.3540
 2163SOL    HW211301   4.561  10.757   7.477 -0.2841  0.7858  0.2602
 2164SOL     OW11302  12.378  12.555   0.695 -0.1493  0.1515  0.1186
 2164SOL    HW111303  12.431  12.572   0.617  0.1555  0.4700  0.3873
 2164SOL    HW211304  12.430  12.592   0.767  0.5688 -1.9472  0.7498
 2165SOL     OW11305   2.975   0.609   5.612 -0.9284 -0.2374  0.5642
 2165SOL    HW111306   2.981   0.516   5.593  4.3322 -0.3631  1.4460
 2165SOL    HW211307   3.013   0.652   5.535 -3.9327  1.3838 -0.1589
 2166SOL     OW11308   6.198   3.675   5.311  0.7539  0.4011  0.3641
 2166SOL    HW111309   6.142   3.714   5.377  1.5447 -0.3600  1.5199
 2166SOL    HW211310   6.281   3.722   5.319  0.4318  1.2920 -1.1051
 2167SOL     OW11311   1.901   0.234   4.107 -0.3069 -0.2949 -0.3749
 2167SOL    HW111312   1.992   0.218   4.131 -0.2018 -1.6810 -1.5667
 2167SOL    HW211313   1.851   0.167   4.153 -0.8372  0.8515  0.7794
 2168SOL     OW11314   5.100   9.076   3.365  0.0395 -0.5104  0.0962
 2168SOL    HW111315   5.190   9.096   3.391  0.2883  1.9627 -2.2138
 2168SOL    HW211316   5.100   9.085   3.270 -2.5094 -1.1055 -0.0264
 2169SOL     OW11317   4.017   8.817   2.779 -0.0138 -0.2681  0.1517
 2169SOL    HW111318   4.109   8.825   2.803 -0.4519  0.3315  1.7323
 2169SOL    HW211319   4.007   8.875   2.703  0.9929 -0.7013 -0.3285
 2170SOL     OW11320   5.487   5.714  10.261 -0.5428 -0.1892  0.1329
 2170SOL    HW111321   5.397   5.693  10.286 -1.2779  2.1016 -0.3102
 2170SOL    HW211322   5.542   5.662  10.320 -2.1533 -1.2200  0.7714
 2171SOL     OW11323   9.361   4.029  11.307  0.5260  0.0797  0.0748
 2171SOL    HW111324   9.407   4.044  11.224  1.2978 -1.9724  0.0660
 2171SOL    HW211325   9.274   3.997  11.281 -0.9294  3.5467  0.0986
 2172SOL     OW11326   2.700  10.815   6.436  0.3698  0.8631 -0.0315
 2172SOL    HW111327   2.619  10.767   6.420  0.7346  0.7008 -1.5394
 2172SOL    HW211328   2.672  10.899   6.473 -0.4563  0.6473 -0.1531
 2173SOL     OW11329   6.394   8.297  10.723 -0.1534 -0.2332 -0.3286
 2173SOL    HW111330   6.356   8.209  10.719  1.2849 -0.8528 -0.8866
 2173SOL    HW211331   6.479   8.289  10.680  0.1778  1.3506 -0.0382
 2174SOL     OW11332   1.143   4.207   6.557 -0.2889 -0.2695 -0.4585
 2174SOL    HW111333   1.175   4.250   6.478  1.2518 -0.3801  0.0779
 2174SOL    HW211334   1.097   4.276   6.604  0.1178  0.1936 -0.7269
 2175SOL     OW11335   0.785   9.411   8.480 -0.1707 -0.0706 -0.0410
 2175SOL    HW111336   0.809   9.356   8.554  0.7249  1.1654  0.6327
 2175SOL    HW211337   0.693   9.393   8.465  0.0003 -1.4209  0.4271
 2176SOL     OW11338   4.634   7.580  11.136  0.2789 -0.6620 -0.4242
 2176SOL    HW111339   4.697   7.614  11.071 -1.2661  0.2783 -1.4885
 2176SOL    HW211340   4.562   7.545  11.084 -0.8821 -0.1434  0.7778
 2177SOL     OW11341   2.903   4.681   2.282  0.1055  0.1380  0.2521
 2177SOL    HW111342   2.978   4.622   2.274  0.0406  0.1080 -0.1522
 2177SOL    HW211343   2.839   4.648   2.219 -0.0547  0.4505  0.2473
 2178SOL     OW11344   2.712   3.068  11.654  0.4939  0.0198 -0.5705
 2178SOL    HW111345   2.707   2.973  11.669  2.5842 -0.0355  0.0991
 2178SOL    HW211346   2.769   3.100  11.724 -0.6440  1.8974 -0.4246
 2179SOL     OW11347   2.273   1.309   8.393  0.2043  0.1836 -0.0845
 2179SOL    HW111348   2.217   1.310   8.470 -2.0578  2.8866 -1.5505
 2179SOL    HW211349   2.338   1.378   8.410 -0.4281  0.9313 -0.6169
 2180SOL     OW11350   9.054   1.107   8.128 -0.1434  0.3810  0.6438
 2180SOL    HW111351   8.990   1.155   8.075  0.3406  2.3057  1.7252
 2180SOL    HW211352   9.122   1.172   8.148  0.4594 -0.7067  2.3174
 2181SOL     OW11353   9.087   1.067   4.915 -0.2872  0.8141 -0.8679
 2181SOL    HW111354   9.168   1.064   4.863 -0.6600 -2.9867 -1.5471
 2181SOL    HW211355   9.116   1.048   5.005 -0.2800  0.9030 -0.8515
 2182SOL     OW11356   2.461   6.269   5.183 -0.2473 -0.5553  0.5708
 2182SOL    HW111357   2.488   6.180   5.206  0.8498 -0.9931 -2.0518
 2182SOL    HW211358   2.543   6.318   5.175 -0.6395 -0.0905 -0.8443
 2183SOL     OW11359   8.625   2.024   8.745 -0.0323  0.5463  0.2108
 2183SOL    HW111360   8.658   2.032   8.834  1.6526  1.2083 -0.4192
 2183SOL    HW211361   8.609   1.930   8.734  1.4214  0.2037  0.6863
 2184SOL     OW11362   7.752   9.646   2.726 -0.4225 -0.3896 -0.1790
 2184SOL    HW111363   7.805   9.575   2.763 -1.6971 -1.4600 -0.3501
 2184SOL    HW211364   7.688   9.666   2.794 -1.0726 -0.4993 -0.7592
 2185SOL     OW11365  12.381   5.247   9.455  0.5928 -0.1581  0.1302
 2185SOL    HW111366  12.393   5.170   9.510  1.6837  0.5114  0.8626
 2185SOL    HW211367  12.291   5.239   9.422  0.4709 -1.3947  0.7117
 2186SOL     OW11368   0.737   0.713   6.636  0.2487  0.8383  0.4185
 2186SOL    HW111369   0.745   0.622   6.608  0.3029  1.2184 -0.8682
 2186SOL    HW211370   0.659   0.715   6.691  0.4871 -0.0555  0.8092
 2187SOL     OW11371   8.673   1.368   2.149 -0.0094 -0.6005 -0.2314
 2187SOL    HW111372   8.745   1.349   2.209 -0.7678  1.7767  1.5615
 2187SOL    HW211373   8.647   1.458   2.169 -2.1386 -0.6600 -2.2427
 2188SOL     OW11374   0.289   8.982   0.697  0.0278 -0.0849 -0.1514
 2188SOL    HW111375   0.293   9.053   0.761 -0.8948 -1.4949  1.5470
 2188SOL    HW211376   0.196   8.961   0.690  0.1586 -0.2833 -1.6231
 2189SOL     OW11377   5.799   8.979   3.312 -0.1369 -0.3245  0.1078
 2189SOL    HW111378   5.760   8.894   3.327 -0.8910 -0.3205 -1.6050
 2189SOL    HW211379   5.740   9.023   3.251  1.0160  0.8342 -0.2376
 2190SOL     OW11380   5.825   2.772   9.275  0.4634  0.0622 -0.4185
 2190SOL    HW111381   5.856   2.735   9.358  3.0737  1.7119 -0.5368
 2190SOL    HW211382   5.808   2.864   9.295 -0.8980  0.0259 -1.2870
 2191SOL     OW11383   8.214   9.373   0.660 -0.2669  0.1565 -0.8926
 2191SOL    HW111384   8.205   9.296   0.604 -1.5407 -1.2264  1.0732
 2191SOL    HW211385   8.216   9.447   0.599 -2.5568 -1.1701 -2.7364
 2192SOL     OW11386  12.028   5.822   1.679 -0.1465  0.2185  0.1532
 2192SOL    HW111387  11.986   5.893   1.727 -1.3972 -1.6459  1.9792
 2192SOL    HW211388  11.997   5.833   1.589 -1.2714  1.2747  0.6325
 2193SOL     OW11389   3.826   8.250   8.822 -0.2288  0.1933  0.0905
 2193SOL    HW111390   3.909   8.208   8.842 -0.1871 -0.3264 -1.1057
 2193SOL    HW211391   3.801   8.294   8.903  0.6871 -0.5204  0.7749
 2194SOL     OW11392   7.476   7.763   5.345  0.3446  0.3521 -0.0750
 2194SOL    HW111393   7.381   7.775   5.341  0.4004  0.6681 -0.6250
 2194SOL    HW211394   7.511   7.827   5.283  0.8198 -0.7766 -1.0139
 2195SOL     OW11395   7.044   9.010   0.134  0.4414 -0.2835 -0.1774
 2195SOL    HW111396   7.132   8.977   0.152  0.6051  0.0184 -0.4126
 2195SOL    HW211397   7.000   8.938   0.089  0.9691 -0.0049 -1.1617
 2196SOL     OW11398  11.365  11.499   2.294  0.3878  0.1022 -0.2822
 2196SOL    HW111399  11.416  11.580   2.296  1.2927 -0.4672  0.8114
 2196SOL    HW211400  11.373  11.463   2.382 -0.3488 -0.9686 -0.6299
 2197SOL     OW11401   4.121   1.711   1.585  0.4376 -0.4370  0.0996
 2197SOL    HW111402   4.051   1.762   1.626  0.6933 -0.3549  0.4445
 2197SOL    HW211403   4.077   1.658   1.519  0.3250  1.3006 -1.3118
 2198SOL     OW11404  11.206   3.923   8.781 -0.0119 -0.0050  0.3109
 2198SOL    HW111405  11.136   3.884   8.729  0.0116  1.1822 -0.6579
 2198SOL    HW211406  11.207   4.015   8.755  0.7155  0.3989  1.6455
 2199SOL     OW11407   2.858  10.551  10.637 -1.0055 -0.3754 -0.2010
 2199SOL    HW111408   2.841  10.496  10.713 -1.9110  0.2996  0.0965
 2199SOL    HW211409   2.831  10.498  10.562  0.0549 -1.1112 -0.0856
 2200SOL     OW11410   3.991   1.043   5.665 -0.5421  0.0570 -0.0276
 2200SOL    HW111411   3.902   1.074   5.650 -0.2501  0.7941 -0.3184
 2200SOL    HW211412   4.029   1.036   5.577 -0.0072  0.7185  0.1398
 2201SOL     OW11413   6.080   9.396   7.774 -0.4457  0.4094 -0.7301
 2201SOL    HW111414   6.126   9.319   7.806 -1.5260  0.1073  0.1564
 2201SOL    HW211415   6.148   9.463   7.765  0.6135 -0.7987 -2.1314
 2202SOL     OW11416   1.972   7.025   2.567  0.0594  0.2875 -0.2880
 2202SOL    HW111417   1.883   7.007   2.597 -0.0674 -1.2435 -1.4612
 2202SOL    HW211418   1.972   7.000   2.475  1.6780  0.3853 -0.3463
 2203SOL     OW11419   4.675   2.368  11.715 -0.5570 -0.0607 -0.0027
 2203SOL    HW111420   4.622   2.324  11.782  1.9701 -3.0129  0.3130
 2203SOL    HW211421   4.716   2.441  11.761  0.5263 -1.5720  1.5642
 2204SOL     OW11422   0.686   6.768   0.492 -0.5072  0.0162  0.5462
 2204SOL    HW111423   0.619   6.703   0.510  0.5035 -0.8818  1.1656
 2204SOL    HW211424   0.752   6.754   0.559  1.6816 -1.0236 -1.6635
 2205SOL     OW11425   9.324   0.016   4.614  0.5690 -0.1234 -0.2791
 2205SOL    HW111426   9.387   0.048   4.549  0.5029 -0.2286 -0.3977
 2205SOL    HW211427   9.245   0.067   4.597  1.2628  1.5887  1.3133
 2206SOL     OW11428   1.799   9.900   7.415 -0.0879 -0.6099 -0.2099
 2206SOL    HW111429   1.871   9.912   7.477 -0.4386 -0.5356  0.1837
 2206SOL    HW211430   1.756   9.820   7.444 -0.9094 -0.0019  0.3041
 2207SOL     OW11431  10.821   0.108   6.304  0.3589 -0.2572  0.0875
 2207SOL    HW111432  10.844   0.196   6.335 -1.1619 -0.5403  2.2038
 2207SOL    HW211433  10.735   0.119   6.264  1.1693 -0.4084 -1.8259
 2208SOL     OW11434   3.195   1.246   5.254 -0.0063 -0.4476 -0.0227
 2208SOL    HW111435   3.113   1.225   5.209 -0.4965  0.1814  0.5580
 2208SOL    HW211436   3.189   1.203   5.339 -0.6033  1.1606  0.7945
 2209SOL     OW11437   1.368   0.570   9.545 -0.0014 -0.2238  0.3491
 2209SOL    HW111438   1.329   0.631   9.482 -0.9074  1.7810  2.7226
 2209SOL    HW211439   1.351   0.484   9.507 -1.6618  0.8307 -1.5255
 2210SOL     OW11440   7.474   8.527   5.268 -0.2909 -0.6982 -0.0156
 2210SOL    HW111441   7.463   8.613   5.308  0.0963 -1.0126  0.7781
 2210SOL    HW211442   7.386   8.490   5.266 -0.4233 -0.3814 -0.1485
 2211SOL     OW11443   2.200   6.474   5.788 -0.0333  0.3055  0.6888
 2211SOL    HW111444   2.217   6.385   5.756 -0.3160  0.2008  0.8272
 2211SOL    HW211445   2.150   6.515   5.717  0.6910  0.5766  0.3310
 2212SOL     OW11446  11.828   9.414   9.606  0.1206 -0.2814 -0.5031
 2212SOL    HW111447  11.757   9.439   9.665  0.3971  0.0028 -0.2895
 2212SOL    HW211448  11.903   9.466   9.635  0.2120 -0.0044 -1.2142
 2213SOL     OW11449   4.509   3.588   3.214  0.5011  0.0051  0.1390
 2213SOL    HW111450   4.423   3.552   3.193  1.1444 -1.3731 -0.2488
 2213SOL    HW211451   4.559   3.580   3.133  1.3793 -0.4211  0.7053
 2214SOL     OW11452   5.219  11.027   9.452  0.3281 -0.0826  0.6669
 2214SOL    HW111453   5.226  10.940   9.412  0.7874 -0.3755  1.3635
 2214SOL    HW211454   5.234  11.088   9.380 -1.0158 -0.5559 -0.0429
 2215SOL     OW11455  12.579   2.065   6.383 -0.1003 -0.6793 -0.3121
 2215SOL    HW111456  12.671   2.083   6.401 -0.0502 -0.9493 -0.2826
 2215SOL    HW211457  12.573   2.064   6.288 -0.2358  0.1267 -0.3194
 2216SOL     OW11458  10.697   1.248   9.736 -0.2256 -0.0455 -0.2562
 2216SOL    HW111459  10.664   1.240   9.826  0.5826 -0.9888 -0.0221
 2216SOL    HW211460  10.621   1.227   9.681 -0.6065  0.0648  0.2210
 2217SOL     OW11461  11.131   9.467   0.485  0.2309  0.1839 -0.0361
 2217SOL    HW111462  11.102   9.376   0.483 -0.1941  0.3223 -0.3172
 2217SOL    HW211463  11.180   9.475   0.567  0.5987 -0.3934 -0.1961
 2218SOL     OW11464   3.773  10.041  12.108  0.0190 -0.5962 -0.2553
 2218SOL    HW111465   3.722  10.067  12.185  1.5108  1.4505  0.1291
 2218SOL    HW211466   3.721   9.971  12.068 -2.3032  0.3080  0.9372
 2219SOL     OW11467   7.805   9.613   9.371 -0.5317  0.8775  0.2742
 2219SOL    HW111468   7.754   9.535   9.389  0.1844  0.3116 -0.1007
 2219SOL    HW211469   7.888   9.581   9.335  0.5015  1.7150  1.7750
 2220SOL     OW11470   2.636   9.107  10.154 -0.3388 -0.1136 -0.6933
 2220SOL    HW111471   2.630   9.105  10.249 -2.6337  2.3871 -0.6625
 2220SOL    HW211472   2.602   9.022  10.125  1.6919 -1.4736  0.6408
 2221SOL     OW11473   9.551   7.935   5.847 -0.3514  0.5486 -0.3635
 2221SOL    HW111474   9.463   7.967   5.867 -0.3227  0.9926 -0.9192
 2221SOL    HW211475   9.556   7.937   5.751  0.5453  1.3111 -0.3185
 2222SOL     OW11476   6.526   7.644   6.121 -0.1600  0.2973  0.5868
 2222SOL    HW111477   6.485   7.568   6.080 -1.0014  0.2599  1.4497
 2222SOL    HW211478   6.458   7.680   6.178  0.9365  0.3957  1.8820
 2223SOL     OW11479   4.705   8.425  12.344 -0.2118 -0.1092 -0.9703
 2223SOL    HW111480   4.706   8.329  12.336  1.3767 -0.1174 -1.2058
 2223SOL    HW211481   4.665   8.442  12.429  1.8220 -1.1518  0.2876
 2224SOL     OW11482   0.127  10.576   7.393 -0.1964 -0.1030 -0.6030
 2224SOL    HW111483   0.049  10.535   7.355 -0.7698 -0.1343  0.5509
 2224SOL    HW211484   0.140  10.656   7.341 -1.5940  0.4148 -0.2256
 2225SOL     OW11485   6.126  11.560  10.660 -0.1175  1.0991 -0.2985
 2225SOL    HW111486   6.180  11.597  10.730  0.2840  0.0276 -0.0210
 2225SOL    HW211487   6.151  11.467  10.657 -1.0235  0.8656 -1.0380
 2226SOL     OW11488  11.196   2.240   1.977  0.1225 -0.4966  0.4252
 2226SOL    HW111489  11.268   2.235   2.040  0.4532 -0.8100  0.0241
 2226SOL    HW211490  11.221   2.180   1.907 -0.5877 -0.7007  0.3391
 2227SOL     OW11491  11.854   3.061   2.076  0.8263 -0.1315  0.2717
 2227SOL    HW111492  11.936   3.023   2.046  0.9513 -0.2681  0.7789
 2227SOL    HW211493  11.865   3.071   2.170 -0.6415 -2.4857  0.7845
 2228SOL     OW11494   9.949   5.107   0.032 -0.5720  0.3666  0.0852
 2228SOL    HW111495   9.961   5.047  -0.042 -0.6123  0.4888 -0.0189
 2228SOL    HW211496  10.016   5.080   0.095  0.3063  1.0802 -0.5154
 2229SOL     OW11497  10.445   2.482   1.927 -0.2068 -0.3876 -0.0481
 2229SOL    HW111498  10.534   2.468   1.959 -0.8159  0.5446  2.3122
 2229SOL    HW211499  10.397   2.404   1.953 -0.3485 -0.3574 -0.2140
 2230SOL     OW11500   0.697   3.894   9.811 -0.0525  0.3350 -0.1887
 2230SOL    HW111501   0.682   3.812   9.763 -2.0627  0.7438 -0.3719
 2230SOL    HW211502   0.618   3.905   9.864  0.7207  1.5486  0.7609
 2231SOL     OW11503   2.261   2.740   2.846 -0.1471 -0.0945 -0.1375
 2231SOL    HW111504   2.302   2.655   2.863  1.2063  0.6383  0.5050
 2231SOL    HW211505   2.283   2.792   2.923 -0.3526  1.0508 -0.8374
 2232SOL     OW11506   5.852   4.134   2.857  0.0444 -0.3436  0.0867
 2232SOL    HW111507   5.935   4.120   2.812  0.8931  0.6390  1.2658
 2232SOL    HW211508   5.792   4.165   2.790  0.9615  0.0341 -0.5692
 2233SOL     OW11509   0.303   0.154   5.303 -0.2984 -0.2764  0.0040
 2233SOL    HW111510   0.281   0.120   5.390 -1.6214 -1.4796 -0.7525
 2233SOL    HW211511   0.385   0.110   5.281 -1.5457 -2.4728 -0.5967
 2234SOL     OW11512   6.220   9.599  10.392  0.1985 -0.8095 -0.0254
 2234SOL    HW111513   6.313   9.589  10.413  0.3846  1.6489  0.6296
 2234SOL    HW211514   6.175   9.585  10.476  0.0935 -0.7572 -0.0724
 2235SOL     OW11515   1.465   7.679   6.557 -0.6062 -0.1237  0.0717
 2235SOL    HW111516   1.505   7.617   6.618 -0.7113  1.5852  2.0118
 2235SOL    HW211517   1.414   7.625   6.497 -0.5080 -1.9204  1.5219
 2236SOL     OW11518  10.660   8.877   5.712  0.4953  0.7697 -0.1035
 2236SOL    HW111519  10.719   8.838   5.776  0.0078  0.6078  0.2517
 2236SOL    HW211520  10.670   8.971   5.725 -0.7843  0.7413  1.3308
 2237SOL     OW11521   9.880   1.873   6.720 -0.2938  0.3389  0.0217
 2237SOL    HW111522   9.851   1.946   6.666  1.2570  1.1727  0.2447
 2237SOL    HW211523   9.915   1.914   6.799  2.9013 -0.3494 -0.8622
 2238SOL     OW11524   5.244  10.681   9.477  0.3498 -0.0134  0.2649
 2238SOL    HW111525   5.292  10.598   9.473  0.3307 -0.2724  3.2411
 2238SOL    HW211526   5.268  10.726   9.396  3.0829 -1.4842  0.1155
 2239SOL     OW11527   2.655   7.002  12.417  0.3866 -0.4261  0.5713
 2239SOL    HW111528   2.621   7.029  12.502 -0.8695 -4.8919  1.7934
 2239SOL    HW211529   2.739   6.961  12.437  0.6408 -0.4581 -0.5035
 2240SOL     OW11530   4.187  10.414   6.830 -0.5461  0.3752  0.2066
 2240SOL    HW111531   4.099  10.435   6.862 -0.5246 -1.8230  1.9495
 2240SOL    HW211532   4.214  10.338   6.881  1.0550 -1.1256 -2.6065
 2241SOL     OW11533   2.512   3.755   3.296  0.4719 -0.0943  0.3757
 2241SOL    HW111534   2.419   3.751   3.314  0.5021  1.0802  0.8986
 2241SOL    HW211535   2.540   3.664   3.289 -0.6115 -0.4561  0.7234
 2242SOL     OW11536   8.866  11.701  12.115 -0.1057  0.1864  0.1081
 2242SOL    HW111537   8.904  11.619  12.148 -0.7090 -0.4843 -0.7997
 2242SOL    HW211538   8.772  11.690  12.128 -0.1836  0.7652  0.0280
 2243SOL     OW11539   1.546   4.181   8.037 -0.0626 -0.5440  0.1309
 2243SOL    HW111540   1.475   4.118   8.053 -0.7870 -0.0101 -0.8760
 2243SOL    HW211541   1.626   4.131   8.054 -0.6616 -1.2398  1.0217
 2244SOL     OW11542   4.158   7.810  12.034 -0.4345 -0.9041  0.1003
 2244SOL    HW111543   4.151   7.887  11.977 -3.0074 -1.7459 -0.9068
 2244SOL    HW211544   4.205   7.840  12.111  0.3561  1.1393 -1.1127
 2245SOL     OW11545   6.773   3.409   1.331 -0.1253  0.0148 -0.5592
 2245SOL    HW111546   6.792   3.316   1.340  0.7469  0.2039 -0.3796
 2245SOL    HW211547   6.837   3.452   1.387 -0.0209  0.7679 -1.2438
 2246SOL     OW11548  12.339   1.371  10.108  0.3468 -0.0111  0.2798
 2246SOL    HW111549  12.405   1.435  10.135  0.0273  1.0085 -1.1862
 2246SOL    HW211550  12.255   1.408  10.136  0.2044 -0.0354 -0.0983
 2247SOL     OW11551   3.704   4.511   3.434  0.4018 -0.5821 -0.2234
 2247SOL    HW111552   3.689   4.577   3.502  2.3187  0.2017 -0.4883
 2247SOL    HW211553   3.677   4.554   3.353 -1.2173 -1.2634 -0.0812
 2248SOL     OW11554   5.077  10.980   8.747  0.3304 -0.4001  0.2509
 2248SOL    HW111555   4.985  10.997   8.766  0.9939  0.9750  2.5730
 2248SOL    HW211556   5.092  11.022   8.662 -1.3519 -1.4514 -0.6176
 2249SOL     OW11557  10.294   8.631   1.608 -0.7456 -0.6204  0.0457
 2249SOL    HW111558  10.343   8.576   1.547 -0.0247  0.2619 -0.1999
 2249SOL    HW211559  10.345   8.629   1.689  1.3973  2.5450 -1.0185
 2250SOL     OW11560   7.772   8.420   9.172  0.0796  0.2131  0.3070
 2250SOL    HW111561   7.721   8.381   9.244 -0.3680 -0.0176 -0.1265
 2250SOL    HW211562   7.752   8.514   9.178 -1.4294 -0.0053 -0.6215
 2251SOL     OW11563  10.560   0.206   7.622  0.0467 -0.1260 -0.5475
 2251SOL    HW111564  10.538   0.192   7.529  1.0627  0.8153 -0.9493
 2251SOL    HW211565  10.631   0.145   7.639  0.2410  0.0970 -0.5520
 2252SOL     OW11566   4.501   6.556   1.521 -0.1929  0.0944 -0.2305
 2252SOL    HW111567   4.532   6.538   1.433 -0.4275 -1.6668  0.0257
 2252SOL    HW211568   4.509   6.651   1.530 -0.5045  0.3418 -2.2534
 2253SOL     OW11569   3.574   2.908   8.970  0.4535 -0.1658  0.1357
 2253SOL    HW111570   3.533   2.925   8.886  0.0943 -0.3878  0.2655
 2253SOL    HW211571   3.658   2.955   8.966 -0.3661  1.3836  0.3751
 2254SOL     OW11572   8.411   3.928  10.730 -0.3718 -0.4277 -0.2779
 2254SOL    HW111573   8.415   4.018  10.763  0.6269 -1.1447  1.7220
 2254SOL    HW211574   8.501   3.896  10.737 -0.1146 -0.7503 -3.6306
 2255SOL     OW11575   2.635   3.398  10.529  0.3582  0.0902 -0.2171
 2255SOL    HW111576   2.673   3.448  10.456  2.1500  1.2733  1.4258
 2255SOL    HW211577   2.708   3.345  10.562 -0.9304 -1.9239 -0.4701
 2256SOL     OW11578   9.163   7.185   7.208  0.8345 -0.3056  0.1300
 2256SOL    HW111579   9.109   7.152   7.136  0.7650 -1.4431  0.6891
 2256SOL    HW211580   9.108   7.176   7.286  1.2549  0.0250  0.4727
 2257SOL     OW11581   7.984   5.107   1.555  0.2869 -0.0280 -0.7615
 2257SOL    HW111582   7.900   5.063   1.543  0.4982 -0.2798 -1.3932
 2257SOL    HW211583   8.030   5.093   1.472  0.9552  0.0972 -0.4224
 2258SOL     OW11584   0.066  12.394  11.615  0.2664  0.2816  0.3277
 2258SOL    HW111585   0.005  12.449  11.664 -0.2156  1.0437 -1.0719
 2258SOL    HW211586   0.151  12.438  11.626  0.7425 -1.0384  2.6726
 2259SOL     OW11587   4.622   2.624  12.232  0.0466  0.1281  0.4098
 2259SOL    HW111588   4.582   2.643  12.317 -1.0675 -0.3495  0.0176
 2259SOL    HW211589   4.716   2.618  12.250  0.1809  2.9004  1.0728
 2260SOL     OW11590   8.087  11.460   5.383  0.4075  0.6687 -0.2826
 2260SOL    HW111591   7.995  11.433   5.382  0.2097  1.2672  0.7570
 2260SOL    HW211592   8.134  11.386   5.344 -0.4491  0.1217 -0.3014
 2261SOL     OW11593   8.547   7.589   7.348  0.3658 -0.7620 -0.4522
 2261SOL    HW111594   8.628   7.538   7.356  1.1995  0.7112  1.3136
 2261SOL    HW211595   8.479   7.532   7.385  1.4070 -0.3962  2.2185
 2262SOL     OW11596   0.338   6.362   7.446  0.1517 -0.1695  0.5088
 2262SOL    HW111597   0.405   6.398   7.506  0.5445  1.7684 -0.9805
 2262SOL    HW211598   0.389   6.322   7.375 -0.2735  0.0027  0.1052
 2263SOL     OW11599   4.463   3.968   7.363  0.3330  0.1529  0.1393
 2263SOL    HW111600   4.439   3.980   7.455  3.1055 -1.4724  1.2167
 2263SOL    HW211601   4.462   3.874   7.349  1.6605  0.2599 -0.9352
 2264SOL     OW11602   2.431   1.142   0.081 -0.1877  0.1642  0.2183
 2264SOL    HW111603   2.518   1.173   0.055 -1.0666  2.5254 -0.1584
 2264SOL    HW211604   2.371   1.192   0.026 -1.8786  0.8830  2.5675
 2265SOL     OW11605   1.812   5.465   5.368 -0.0572 -0.0372  0.1828
 2265SOL    HW111606   1.729   5.466   5.321 -0.0488 -0.7428  0.1472
 2265SOL    HW211607   1.792   5.508   5.451  0.1233  1.9626 -0.7590
 2266SOL     OW11608   7.596   5.149   0.290 -0.5641  0.0303  0.2836
 2266SOL    HW111609   7.612   5.151   0.196  0.9644 -1.1906  0.4712
 2266SOL    HW211610   7.533   5.220   0.305 -0.5998  0.4582 -1.5930
 2267SOL     OW11611   4.781   5.557   4.807  0.2884  0.6562 -0.1237
 2267SOL    HW111612   4.746   5.495   4.871 -1.9056 -1.5663 -3.2315
 2267SOL    HW211613   4.726   5.635   4.817 -2.4223 -0.9626 -1.5389
 2268SOL     OW11614   0.796  11.996   9.895  0.1469 -0.0496  0.1589
 2268SOL    HW111615   0.811  11.996   9.800 -1.5493 -0.5227 -0.1535
 2268SOL    HW211616   0.801  11.904   9.920  1.9611  0.2013  0.8017
 2269SOL     OW11617   8.531   1.145  10.881  0.2348 -0.4166  0.1321
 2269SOL    HW111618   8.503   1.079  10.818 -0.4533  0.3426 -0.3805
 2269SOL    HW211619   8.581   1.096  10.947 -2.0033 -1.8000  0.9071
 2270SOL     OW11620   9.755   8.665  11.313 -0.0150 -0.3928 -0.5877
 2270SOL    HW111621   9.740   8.706  11.398  0.6780  0.8379 -1.0337
 2270SOL    HW211622   9.769   8.739  11.253  2.9325 -1.2710 -1.1284
 2271SOL     OW11623   8.230   7.042  12.463  1.0515 -0.2386 -0.6495
 2271SOL    HW111624   8.149   6.992  12.471 -0.3024  2.0777  1.8644
 2271SOL    HW211625   8.258   7.058  12.553  2.7931  1.3347 -1.3952
 2272SOL     OW11626   4.375   3.181  10.536  0.4524 -0.2041  0.7165
 2272SOL    HW111627   4.450   3.127  10.560 -0.0304 -1.3595 -0.2842
 2272SOL    HW211628   4.306   3.119  10.513  0.0510  0.8020 -0.9713
 2273SOL     OW11629   7.969   1.420   6.774  0.7918  0.0511 -0.1146
 2273SOL    HW111630   7.923   1.442   6.693 -1.8669 -0.3393  1.1977
 2273SOL    HW211631   7.977   1.325   6.771 -0.1492 -0.0568  0.4705
 2274SOL     OW11632   1.135   8.702   1.952 -0.7674  0.3916  0.0365
 2274SOL    HW111633   1.143   8.624   1.898 -0.8229  1.1557 -1.1243
 2274SOL    HW211634   1.073   8.678   2.021 -0.4305 -0.7187 -0.0364
 2275SOL     OW11635   1.024   1.223   8.007 -0.6709 -0.0288  0.1476
 2275SOL    HW111636   0.939   1.194   7.973 -1.9115  1.3488  1.8659
 2275SOL    HW211637   1.036   1.311   7.970 -0.4380  0.1456  0.6323
 2276SOL     OW11638   4.000   7.506   7.523 -0.3929 -0.0126  0.2285
 2276SOL    HW111639   3.992   7.504   7.428  0.9979  2.3589 -0.0422
 2276SOL    HW211640   4.070   7.444   7.543  1.2735  1.4558 -0.6906
 2277SOL     OW11641   3.158   0.409  10.280 -0.1040 -0.7003  0.6454
 2277SOL    HW111642   3.154   0.505  10.278  0.7841 -0.6598  0.2825
 2277SOL    HW211643   3.088   0.381  10.220 -0.5587 -0.2947  0.9754
 2278SOL     OW11644   3.018  11.551   1.310 -0.1924 -0.4345 -0.1339
 2278SOL    HW111645   2.953  11.511   1.367  0.6172 -1.4885  0.0780
 2278SOL    HW211646   3.037  11.484   1.244  0.0694  0.1633 -0.6788
 2279SOL     OW11647  12.131   9.222   3.995 -0.4695  0.2206  0.5615
 2279SOL    HW111648  12.060   9.283   4.015 -2.1335 -1.0986 -0.9881
 2279SOL    HW211649  12.127   9.158   4.066  0.7865  1.4258  1.7756
 2280SOL     OW11650  11.684   0.450   7.784  0.0820 -0.4801 -0.0406
 2280SOL    HW111651  11.589   0.455   7.776 -0.0200 -1.1103  0.7016
 2280SOL    HW211652  11.713   0.541   7.774 -0.6525 -0.1795  0.4704
 2281SOL     OW11653   9.136   5.080  11.318  0.3352  0.1965  0.3516
 2281SOL    HW111654   9.138   5.046  11.407  2.0264  1.5700  0.9016
 2281SOL    HW211655   9.052   5.125  11.311 -0.0671 -0.4371  1.0307
 2282SOL     OW11656   6.172   5.667   7.336  0.5257  0.0327 -0.2676
 2282SOL    HW111657   6.147   5.598   7.275  1.0603 -0.6525  0.2640
 2282SOL    HW211658   6.098   5.673   7.397  0.4176  0.0292 -0.3978
 2283SOL     OW11659   7.618   5.216   5.203  0.1986  0.1343 -0.1847
 2283SOL    HW111660   7.601   5.246   5.114  2.5324  1.0783 -0.3917
 2283SOL    HW211661   7.710   5.236   5.218 -0.0131 -0.3877  2.3125
 2284SOL     OW11662   9.282  11.494  10.019 -0.4648  0.3597 -0.4820
 2284SOL    HW111663   9.197  11.536  10.034 -1.4519 -1.5424 -0.5030
 2284SOL    HW211664   9.288  11.485   9.924  0.5741  1.9976 -0.6203
 2285SOL     OW11665   6.182   2.904   4.757 -0.1901 -0.4164 -0.5324
 2285SOL    HW111666   6.177   2.996   4.782 -0.8837 -0.5297 -0.2323
 2285SOL    HW211667   6.271   2.893   4.723  1.8012 -0.7313  3.9726
 2286SOL     OW11668   0.012   5.882  12.300 -0.0749 -0.0060 -0.2388
 2286SOL    HW111669  -0.041   5.931  12.237  0.1180 -1.1889 -1.3689
 2286SOL    HW211670   0.093   5.934  12.308  0.5510 -0.5634 -2.1785
 2287SOL     OW11671   3.987   6.215   1.252 -0.5789  0.8119 -0.2344
 2287SOL    HW111672   4.020   6.301   1.279 -0.3149  0.7835 -0.4689
 2287SOL    HW211673   4.009   6.209   1.159 -2.3545  1.3191 -0.7190
 2288SOL     OW11674   5.834  12.466   8.162  0.0256  0.2343 -0.4986
 2288SOL    HW111675   5.911  12.410   8.165 -1.1888 -1.5122 -0.7266
 2288SOL    HW211676   5.833  12.500   8.072  0.8221  0.7281 -0.3317
 2289SOL     OW11677   8.825   4.802   3.746  0.6293 -0.5695 -0.4360
 2289SOL    HW111678   8.799   4.713   3.771  1.7036 -0.7483  0.0908
 2289SOL    HW211679   8.874   4.790   3.664  2.6953 -0.7592  0.7666
 2290SOL     OW11680   6.742  11.628   3.035 -0.3401 -0.1112 -0.2877
 2290SOL    HW111681   6.774  11.646   2.947  0.1634  2.8387  0.3680
 2290SOL    HW211682   6.731  11.533   3.039  2.2742 -0.6271 -2.6220
 2291SOL     OW11683   0.973  10.247   6.090 -0.0390  0.6957 -1.0627
 2291SOL    HW111684   0.944  10.337   6.101  0.4874  0.7106  0.3669
 2291SOL    HW211685   0.927  10.198   6.158  1.3916  0.2986 -0.3459
 2292SOL     OW11686   9.718   5.391  11.730  0.3321 -0.2347  0.2938
 2292SOL    HW111687   9.641   5.441  11.759  0.6321 -1.2643  3.2241
 2292SOL    HW211688   9.784   5.458  11.710 -0.8023  0.6103 -0.8364
 2293SOL     OW11689   8.738  12.395  10.417  0.0606 -0.3655 -0.1001
 2293SOL    HW111690   8.725  12.435  10.503 -0.1130  0.4786 -0.5085
 2293SOL    HW211691   8.782  12.463  10.366  0.8656 -1.1332 -0.4585
 2294SOL     OW11692   5.610   6.370   2.725  0.5644  0.6805 -0.1622
 2294SOL    HW111693   5.601   6.343   2.633 -0.5895 -0.1400  0.1645
 2294SOL    HW211694   5.601   6.465   2.723  3.0778  0.9852 -1.1627
 2295SOL     OW11695   8.548  12.544   2.668 -0.5814 -0.2034 -0.2778
 2295SOL    HW111696   8.487  12.475   2.695  0.3904 -0.1723  2.2537
 2295SOL    HW211697   8.634  12.503   2.673 -0.1444  0.6365 -0.7359
 2296SOL     OW11698  11.344   0.661   6.307 -0.1020 -0.4348 -0.3860
 2296SOL    HW111699  11.425   0.694   6.347 -0.1025 -1.7548  0.7694
 2296SOL    HW211700  11.281   0.733   6.320  0.8131  0.5498 -1.1772
 2297SOL     OW11701   6.277   8.891  12.450  0.5318  0.5219 -0.3254
 2297SOL    HW111702   6.293   8.983  12.428  0.6360  0.6924  0.4367
 2297SOL    HW211703   6.298   8.885  12.543 -3.5503  0.7530  0.8441
 2298SOL     OW11704   2.899   0.963  10.863  0.2796  0.3687 -0.2046
 2298SOL    HW111705   2.995   0.969  10.857  0.1796  1.4830 -0.9158
 2298SOL    HW211706   2.868   0.991  10.777 -0.6774 -0.4762 -0.1396
 2299SOL     OW11707   9.788  10.463   2.756 -0.6519 -0.2567  0.1645
 2299SOL    HW111708   9.698  10.485   2.731 -0.8332 -1.2207 -0.0466
 2299SOL    HW211709   9.842  10.520   2.701 -1.1103 -0.5114 -0.5624
 2300SOL     OW11710  10.262  11.939   4.559  0.5567  0.0080 -0.7160
 2300SOL    HW111711  10.217  12.021   4.580 -0.5038 -0.5132 -0.8685
 2300SOL    HW211712  10.274  11.896   4.643 -1.8366 -1.1403 -0.8784
 2301SOL     OW11713   3.439  12.571  11.661 -0.4450 -0.1939 -0.1380
 2301SOL    HW111714   3.443  12.666  11.659 -0.3664 -0.1327  1.6962
 2301SOL    HW211715   3.444  12.548  11.753  0.3782 -2.0260 -0.5865
 2302SOL     OW11716   4.630   6.005  10.359  0.6527 -0.5868  0.3153
 2302SOL    HW111717   4.719   6.034  10.341  0.9541 -2.6408 -1.9699
 2302SOL    HW211718   4.576   6.083  10.346  1.8068 -0.0336 -1.4809
 2303SOL     OW11719   3.172  11.425   8.497  0.0657 -0.1896  0.3121
 2303SOL    HW111720   3.162  11.332   8.476 -0.4722 -0.4940  1.7622
 2303SOL    HW211721   3.142  11.471   8.419  1.3545 -1.2210 -0.8324
 2304SOL     OW11722   3.960   6.502   0.391 -0.3218 -0.4166 -0.0643
 2304SOL    HW111723   4.015   6.573   0.424 -1.4387  0.3281  0.2487
 2304SOL    HW211724   4.012   6.423   0.405  0.2228  0.1473  1.2146
 2305SOL     OW11725   4.951   7.328  10.343  0.3995 -0.4541 -0.0392
 2305SOL    HW111726   5.000   7.276  10.406  2.3137  0.6546 -0.5082
 2305SOL    HW211727   5.018   7.365  10.285 -1.1071  0.2746 -1.4243
 2306SOL     OW11728   4.006   0.238   3.583  0.1072 -0.1320  0.0892
 2306SOL    HW111729   3.941   0.294   3.539  1.2074  0.9532 -0.1947
 2306SOL    HW211730   3.971   0.150   3.573  0.2970  0.0209 -3.0798
 2307SOL     OW11731  12.198  11.634   2.079  0.0373 -0.0356 -0.1636
 2307SOL    HW111732  12.109  11.670   2.079 -0.0167 -0.0809  1.3809
 2307SOL    HW211733  12.214  11.610   1.988 -1.5396 -0.0403 -0.4770
 2308SOL     OW11734   5.269   9.982   5.826  0.4689 -0.1680  0.0587
 2308SOL    HW111735   5.354  10.022   5.805  0.7843 -1.7390 -2.0348
 2308SOL    HW211736   5.209  10.017   5.760 -0.4111  0.5282  1.2007
 2309SOL     OW11737  11.781   5.054   7.430  0.4775 -0.0846 -0.1270
 2309SOL    HW111738  11.726   5.073   7.353  2.8787 -0.6712 -2.1138
 2309SOL    HW211739  11.843   4.988   7.399  1.9359  0.1093  2.1766
 2310SOL     OW11740   1.281   1.094   5.366 -0.1109 -0.2644 -0.0869
 2310SOL    HW111741   1.279   1.161   5.298  0.7293 -0.2504 -0.1076
 2310SOL    HW211742   1.336   1.131   5.435 -0.3272 -0.5964  0.2691
 2311SOL     OW11743   4.209   9.357   8.115  0.7171 -0.1231  0.2900
 2311SOL    HW111744   4.219   9.267   8.147 -0.0675 -0.6157 -0.7674
 2311SOL    HW211745   4.199   9.410   8.194  1.3035 -0.9511  0.9302
 2312SOL     OW11746   6.704   5.962   1.277  0.5790 -0.6896 -0.0458
 2312SOL    HW111747   6.787   5.937   1.316  1.5640  0.8782 -1.0171
 2312SOL    HW211748   6.722   5.969   1.183 -0.2116  1.1149 -0.1257
 2313SOL     OW11749   6.027   6.376   9.387 -0.7405 -0.1612  0.6270
 2313SOL    HW111750   6.114   6.410   9.408 -1.0077  1.3357 -0.5324
 2313SOL    HW211751   6.032   6.353   9.294 -1.8646  0.9113  0.2838
 2314SOL     OW11752  10.128   1.798   1.453  0.0142 -0.1139 -0.2181
 2314SOL    HW111753  10.137   1.740   1.377  0.4658 -0.2113 -0.0968
 2314SOL    HW211754  10.215   1.837   1.463  0.0931 -0.4652  0.5326
 2315SOL     OW11755   0.788  10.357   6.660  0.0988  0.0997 -0.3297
 2315SOL    HW111756   0.778  10.364   6.755 -0.9500  1.2863 -0.5130
 2315SOL    HW211757   0.827  10.440   6.633  0.5562 -0.2992 -0.9248
 2316SOL     OW11758   3.057   8.987   3.144  0.4254 -0.2825  0.2520
 2316SOL    HW111759   2.963   9.005   3.145  0.0136 -2.0152  2.8842
 2316SOL    HW211760   3.064   8.898   3.111  1.2023 -0.0706 -0.1900
 2317SOL     OW11761   2.723  11.442   7.939 -0.1780 -0.4172  0.4973
 2317SOL    HW111762   2.733  11.383   8.014 -0.1038  0.0613  0.8672
 2317SOL    HW211763   2.644  11.411   7.894 -2.1567  1.2226  2.5877
 2318SOL     OW11764   0.272   8.278   2.989 -0.7258  0.0164 -0.0176
 2318SOL    HW111765   0.339   8.217   3.019  1.9455  2.1050 -1.2859
 2318SOL    HW211766   0.269   8.346   3.056 -1.6160 -0.0631  0.0354
 2319SOL     OW11767   0.980   8.460   6.400 -0.1224 -0.4146  0.3160
 2319SOL    HW111768   0.963   8.447   6.494 -0.4955 -0.1733  0.2842
 2319SOL    HW211769   0.928   8.393   6.356  0.1267 -0.5893  0.2832
 2320SOL     OW11770   0.771   9.211   5.282 -0.3700  0.3776  0.1573
 2320SOL    HW111771   0.765   9.119   5.309  1.8656 -0.3192 -1.3998
 2320SOL    HW211772   0.864   9.232   5.291 -0.2648  1.4431 -2.5582
 2321SOL     OW11773  10.725  12.604   4.769  0.6301 -0.2853 -0.3484
 2321SOL    HW111774  10.641  12.638   4.738  0.2066 -2.3387 -1.5854
 2321SOL    HW211775  10.772  12.682   4.801 -1.5301  0.9652 -0.0549
 2322SOL     OW11776   2.856  10.358   2.294  0.3888 -0.0110 -0.8052
 2322SOL    HW111777   2.924  10.297   2.323 -1.0955 -2.0275 -1.2833
 2322SOL    HW211778   2.877  10.440   2.337  2.3511 -0.9293  0.1182
 2323SOL     OW11779   8.217   7.891   5.277  0.4087 -0.0820  0.2596
 2323SOL    HW111780   8.268   7.906   5.198 -0.8031 -0.2559 -0.5762
 2323SOL    HW211781   8.169   7.973   5.291 -0.9850 -0.7410 -0.4207
 2324SOL     OW11782   5.393   4.169   6.981  0.2016  0.3129 -0.1027
 2324SOL    HW111783   5.369   4.087   7.024  1.2945  0.3966  0.6807
 2324SOL    HW211784   5.341   4.235   7.026  0.3900  0.2402  0.2169
 2325SOL     OW11785   2.875   6.592   1.675 -0.6620 -0.2649 -0.0592
 2325SOL    HW111786   2.885   6.500   1.650  1.7436  0.0237 -0.3737
 2325SOL    HW211787   2.933   6.603   1.750 -0.4618  1.1389 -0.4054
 2326SOL     OW11788   1.068   0.967   9.596  0.1896  0.5756  0.3455
 2326SOL    HW111789   1.127   0.985   9.669  1.6230 -3.4428  0.4507
 2326SOL    HW211790   0.984   0.949   9.638  0.3000  0.9743  0.7464
 2327SOL     OW11791   3.411   8.750  10.609  0.1746  0.0146  0.1722
 2327SOL    HW111792   3.339   8.772  10.549  1.6924  2.8028 -0.7951
 2327SOL    HW211793   3.479   8.712  10.552  0.8375  0.7502  0.4624
 2328SOL     OW11794   8.854   9.592  11.838  0.3335  0.7557 -0.7272
 2328SOL    HW111795   8.830   9.605  11.746  0.9382  2.5539 -0.6679
 2328SOL    HW211796   8.771   9.578  11.883  0.1108 -1.6475 -1.6937
 2329SOL     OW11797   6.104   5.757  11.976 -0.6670  0.3955 -0.2006
 2329SOL    HW111798   6.151   5.681  11.943  0.7282  0.4037  1.6358
 2329SOL    HW211799   6.042   5.721  12.039 -1.1810  0.6471 -0.5524
 2330SOL     OW11800   8.453   5.125   3.950 -0.0386 -0.0621 -0.5120
 2330SOL    HW111801   8.390   5.138   4.021 -0.2924  0.0582 -0.7539
 2330SOL    HW211802   8.489   5.038   3.964 -0.8301 -0.4480 -0.8090
 2331SOL     OW11803  10.238   2.829   6.699 -0.0786 -0.0763  0.0683
 2331SOL    HW111804  10.319   2.857   6.657 -0.3617 -0.8056 -0.9897
 2331SOL    HW211805  10.254   2.844   6.792  1.1046  0.1975 -0.1551
 2332SOL     OW11806  11.334   8.478   9.211 -0.0763 -0.2972 -0.1511
 2332SOL    HW111807  11.256   8.480   9.267 -1.1774  1.2264 -1.6271
 2332SOL    HW211808  11.319   8.548   9.147  3.6175  1.7497  0.9400
 2333SOL     OW11809   9.932  11.160   8.318  0.0835 -0.1495 -0.4623
 2333SOL    HW111810   9.933  11.084   8.376 -0.9939 -0.9445 -1.4470
 2333SOL    HW211811   9.975  11.229   8.368  1.2703 -1.4531  0.3855
 2334SOL     OW11812  11.933  11.706   2.060 -0.0857  0.5124 -0.4681
 2334SOL    HW111813  11.865  11.678   1.998 -1.8477  2.0621  0.6608
 2334SOL    HW211814  11.906  11.669   2.144  2.3476 -1.6791 -0.5209
 2335SOL     OW11815  11.644  10.185  10.872 -0.3588 -0.4479 -0.5469
 2335SOL    HW111816  11.631  10.234  10.953  4.0595  1.4431 -0.6694
 2335SOL    HW211817  11.639  10.250  10.802  0.0099 -1.2278 -1.3350
 2336SOL     OW11818   9.073  11.600   1.254  0.4057  0.0959 -0.3303
 2336SOL    HW111819   9.167  11.584   1.267  0.0902  0.0439  2.4753
 2336SOL    HW211820   9.032  11.514   1.267 -0.1021  0.2350 -0.9511
 2337SOL     OW11821   7.472   3.534  10.226 -0.2704 -0.4049 -0.4240
 2337SOL    HW111822   7.458   3.465  10.162 -1.0478 -0.6536  0.0051
 2337SOL    HW211823   7.489   3.489  10.308  0.2812 -0.0856 -0.3546
 2338SOL     OW11824   6.396   5.093  12.052 -0.5975 -0.4463  0.0859
 2338SOL    HW111825   6.411   5.187  12.051 -0.5028 -0.4544 -1.6457
 2338SOL    HW211826   6.349   5.077  12.134  1.7090  0.7046  1.7553
 2339SOL     OW11827   3.714   0.018   8.881 -0.0352 -0.2200 -0.3061
 2339SOL    HW111828   3.642   0.074   8.908  0.7292  0.6104  0.0678
 2339SOL    HW211829   3.699  -0.065   8.925 -1.2237 -0.3481 -0.9254
 2340SOL     OW11830   3.405  11.777  10.643 -0.3228 -0.6213  0.5563
 2340SOL    HW111831   3.407  11.768  10.739 -1.7467  0.7426  0.7741
 2340SOL    HW211832   3.317  11.811  10.625  0.5194  0.8392 -1.0651
 2341SOL     OW11833   8.640  11.175   7.759  0.9722  0.0534  0.2513
 2341SOL    HW111834   8.725  11.208   7.787  1.2812 -0.8737  0.4435
 2341SOL    HW211835   8.660  11.121   7.682  0.4140  0.7186 -0.3817
 2342SOL     OW11836   0.686  10.869   1.861 -0.4165  0.3044  0.1475
 2342SOL    HW111837   0.707  10.937   1.797 -0.5851 -0.8196 -1.1356
 2342SOL    HW211838   0.593  10.880   1.879 -0.1341  1.3583  1.1328
 2343SOL     OW11839   9.347   8.832  11.797  0.5331 -0.3663 -0.0472
 2343SOL    HW111840   9.338   8.740  11.824  0.6906  0.0594  1.5727
 2343SOL    HW211841   9.414   8.831  11.728  0.6687 -1.4360  0.0820
 2344SOL     OW11842   7.922   3.167  12.114  0.1073  0.1923 -0.0631
 2344SOL    HW111843   8.006   3.170  12.069 -0.4845  0.6196 -1.1888
 2344SOL    HW211844   7.939   3.205  12.201  1.3608 -1.0349  0.2559
 2345SOL     OW11845   1.207   7.082  10.136  0.0946  0.1806  0.0186
 2345SOL    HW111846   1.222   7.008  10.077  1.4108 -0.0585  0.6193
 2345SOL    HW211847   1.175   7.042  10.217  1.9234  0.1252  0.7470
 2346SOL     OW11848  10.500   6.721   2.139  0.2363  0.4563 -0.1323
 2346SOL    HW111849  10.482   6.786   2.070 -0.6093  0.7360  0.3312
 2346SOL    HW211850  10.500   6.772   2.220  2.4373  0.3273  0.0038
 2347SOL     OW11851   8.125   1.013   7.588  0.1214  0.2462 -0.3855
 2347SOL    HW111852   8.197   1.076   7.594 -0.5795  1.1532 -1.2519
 2347SOL    HW211853   8.155   0.950   7.523  0.9362 -0.5057  0.6761
 2348SOL     OW11854  12.039   7.140  11.119  0.1634  0.2927 -0.3885
 2348SOL    HW111855  12.033   7.229  11.084  2.5899  0.2928 -0.9699
 2348SOL    HW211856  12.132   7.126  11.134 -0.2993 -1.6067  1.2127
 2349SOL     OW11857   0.192   9.576   5.066 -0.3437 -0.5699 -0.0518
 2349SOL    HW111858   0.123   9.513   5.047  0.5480 -1.3095 -0.9652
 2349SOL    HW211859   0.206   9.623   4.983 -1.3614  1.2590  0.7437
 2350SOL     OW11860  10.137  10.746   5.594  0.4742 -0.4615  0.4422
 2350SOL    HW111861  10.173  10.823   5.637 -2.1547  0.3901  1.3129
 2350SOL    HW211862  10.165  10.754   5.503 -0.0355  1.7426  0.4229
 2351SOL     OW11863   4.260   2.369   8.885  0.3781 -0.0403 -0.1015
 2351SOL    HW111864   4.314   2.353   8.962  0.4993  0.3429 -0.1083
 2351SOL    HW211865   4.286   2.456   8.854 -0.0873  0.0560 -0.2298
 2352SOL     OW11866   1.274  11.025  10.044 -0.0311 -0.3424 -0.0467
 2352SOL    HW111867   1.193  10.992  10.004  0.1370 -1.1292  0.2507
 2352SOL    HW211868   1.260  11.014  10.138  1.8189 -3.9725 -0.0303
 2353SOL     OW11869   4.812   5.215  10.372 -0.1038 -0.0480  0.0595
 2353SOL    HW111870   4.721   5.240  10.385  0.0023  0.9184 -0.8607
 2353SOL    HW211871   4.810   5.152  10.300 -0.1815 -1.2566  1.0950
 2354SOL     OW11872   9.729   8.316   8.512  0.4501 -0.0728 -0.1874
 2354SOL    HW111873   9.786   8.239   8.520 -0.3124 -0.6058  0.2272
 2354SOL    HW211874   9.752   8.354   8.428  3.8730  1.7093  1.3371
 2355SOL     OW11875   3.827   2.813   1.305  0.1123  0.0683 -0.2538
 2355SOL    HW111876   3.763   2.769   1.249  0.2186 -0.1750 -0.1849
 2355SOL    HW211877   3.909   2.766   1.288  0.4135  0.7918 -0.8355
 2356SOL     OW11878   9.987  10.022   7.198  0.4423 -0.7178 -0.1267
 2356SOL    HW111879   9.965   9.934   7.229 -0.6880 -0.4644 -0.1742
 2356SOL    HW211880   9.913  10.076   7.225  1.3628  0.3404  0.3706
 2357SOL     OW11881   0.404   1.247   8.301  0.0103 -0.4067  0.5676
 2357SOL    HW111882   0.463   1.199   8.243  0.6041 -0.6654  1.3686
 2357SOL    HW211883   0.432   1.338   8.294 -1.2526 -0.1070 -1.1156
 2358SOL     OW11884  10.914   0.714  11.789 -0.4064 -0.6126 -0.5139
 2358SOL    HW111885  10.992   0.756  11.826 -0.2413 -0.5408 -0.9383
 2358SOL    HW211886  10.946   0.629  11.758  0.3202  0.7133 -3.8175
 2359SOL     OW11887   2.283   9.186   3.596  0.4184  0.4869  0.0623
 2359SOL    HW111888   2.314   9.270   3.564 -1.3226  0.8653 -0.7244
 2359SOL    HW211889   2.280   9.130   3.518 -0.5806  0.3807  0.1682
 2360SOL     OW11890   6.056   1.943  10.781  0.5168 -0.0292 -0.0747
 2360SOL    HW111891   6.113   2.010  10.742  1.0501 -0.0174  0.6817
 2360SOL    HW211892   5.969   1.982  10.780  0.7825  0.5848  0.1403
 2361SOL     OW11893   8.529   1.910  12.194  0.0162 -0.0657  0.9275
 2361SOL    HW111894   8.457   1.949  12.244 -0.9838 -2.5585  1.5841
 2361SOL    HW211895   8.502   1.819  12.180  2.4551 -0.7192 -0.0075
 2362SOL     OW11896   4.611   9.676  12.557 -0.3665  0.5306  0.1918
 2362SOL    HW111897   4.649   9.763  12.557 -2.3136  1.4707  1.4470
 2362SOL    HW211898   4.605   9.652  12.649 -1.6806 -0.0300 -0.0043
 2363SOL     OW11899   8.329   9.522   6.692 -0.2561 -0.1027  0.6734
 2363SOL    HW111900   8.284   9.510   6.608 -0.3521 -2.3941  0.9980
 2363SOL    HW211901   8.418   9.545   6.667 -0.4039 -0.2702 -0.0593
 2364SOL     OW11902   5.598   5.025  10.002  0.1950 -0.5914 -0.0267
 2364SOL    HW111903   5.591   5.120   9.994  1.7836 -0.5388 -1.0440
 2364SOL    HW211904   5.684   5.010  10.040  0.0094 -1.6453  0.0214
 2365SOL     OW11905   4.357   5.909  12.124  0.5329 -0.1607 -0.2582
 2365SOL    HW111906   4.416   5.865  12.185  0.8422 -0.4706 -0.7778
 2365SOL    HW211907   4.407   5.917  12.043 -0.6282 -1.7757 -1.1876
 2366SOL     OW11908   6.044  12.628   0.099  0.2926 -0.2881 -0.1663
 2366SOL    HW111909   5.959  12.633   0.056 -0.6420  1.4075  1.7163
 2366SOL    HW211910   6.078  12.717   0.096  1.3297 -0.6490  0.3763
 2367SOL     OW11911   1.018   7.728  12.227 -0.5584  0.1735  0.0804
 2367SOL    HW111912   1.067   7.647  12.220  0.3147  0.8184 -1.7183
 2367SOL    HW211913   1.034   7.757  12.317  0.8581 -0.5706  0.1022
 2368SOL     OW11914   7.761   3.075   5.234 -0.5256 -0.3947  0.1409
 2368SOL    HW111915   7.794   3.164   5.223 -1.9454  0.1487  0.0135
 2368SOL    HW211916   7.812   3.040   5.307 -2.8851  2.1295  3.3258
 2369SOL     OW11917  11.376  11.253   7.588 -0.0474  0.3417  0.2244
 2369SOL    HW111918  11.445  11.287   7.644 -0.6143  1.8383  0.0473
 2369SOL    HW211919  11.350  11.327   7.534 -0.2090 -0.7989 -1.3311
 2370SOL     OW11920   4.151   1.641   8.282  0.2254  0.0239  0.5273
 2370SOL    HW111921   4.222   1.594   8.326  0.0452 -0.0625  0.7254
 2370SOL    HW211922   4.126   1.710   8.344 -0.6247 -0.6448  0.9423
 2371SOL     OW11923   8.060   1.138   1.549  0.3596  0.6533  0.5598
 2371SOL    HW111924   8.154   1.134   1.530  0.0297 -0.5702 -1.0938
 2371SOL    HW211925   8.021   1.174   1.469 -0.8661 -2.1191 -0.2355
 2372SOL     OW11926   7.776  10.826   6.300  0.3120 -0.0327 -0.2325
 2372SOL    HW111927   7.722  10.813   6.378 -1.6291 -0.3615 -1.5728
 2372SOL    HW211928   7.743  10.907   6.261 -0.4599 -1.1492 -2.0027
 2373SOL     OW11929   6.450  11.218  12.610 -0.3028  0.1937 -0.0426
 2373SOL    HW111930   6.493  11.150  12.557  0.7836 -0.8116  2.0241
 2373SOL    HW211931   6.361  11.184  12.625 -0.4842  0.2934 -0.8276
 2374SOL     OW11932   0.194   8.450   0.878 -0.1092 -0.0187 -0.1011
 2374SOL    HW111933   0.267   8.511   0.868  0.2204 -0.5876 -1.4763
 2374SOL    HW211934   0.175   8.421   0.789 -1.4406 -0.5575  0.3295
 2375SOL     OW11935  10.101  12.590  10.897  0.2204 -0.7244 -0.0041
 2375SOL    HW111936  10.031  12.543  10.942 -0.9029 -0.0879 -1.0427
 2375SOL    HW211937  10.169  12.601  10.964 -2.0507  1.6853  2.1138
 2376SOL     OW11938   5.032  11.241   3.742 -0.5248  0.2641 -0.3822
 2376SOL    HW111939   5.075  11.309   3.691 -0.7934  0.0960 -0.8332
 2376SOL    HW211940   5.004  11.285   3.822  1.1057  0.2193  0.2521
 2377SOL     OW11941   0.386   1.051  10.591  0.0001 -0.5292 -0.7453
 2377SOL    HW111942   0.339   1.134  10.591  0.7910 -0.0708 -1.0361
 2377SOL    HW211943   0.463   1.066  10.535 -0.2796 -1.7057 -1.4975
 2378SOL     OW11944   6.255   3.886   0.942  0.2309  0.6173  0.2839
 2378SOL    HW111945   6.194   3.908   0.871  1.9458  2.1674 -0.8191
 2378SOL    HW211946   6.295   3.804   0.915  1.1779  1.4052 -0.8262
 2379SOL     OW11947   9.584   7.068   5.737 -0.1637 -0.3026 -0.2016
 2379SOL    HW111948   9.507   7.088   5.791  0.6614  1.0927  0.5236
 2379SOL    HW211949   9.657   7.109   5.784  1.0165 -1.4786 -0.9443
 2380SOL     OW11950  11.474   3.178  11.011 -0.2319 -0.3124  0.7594
 2380SOL    HW111951  11.481   3.134  11.096  0.8513  0.7103  1.2345
 2380SOL    HW211952  11.380   3.184  10.995 -0.4354 -2.3667  0.8747
 2381SOL     OW11953   9.550   8.836   5.902 -0.0833  0.0842 -0.2924
 2381SOL    HW111954   9.590   8.752   5.926  0.9789  0.5423 -0.3831
 2381SOL    HW211955   9.607   8.902   5.942 -1.5800  0.7691  0.8033
 2382SOL     OW11956   6.140   5.400   5.347  0.3401  0.3099  0.1522
 2382SOL    HW111957   6.129   5.493   5.325  0.4294  0.1184 -0.7733
 2382SOL    HW211958   6.107   5.353   5.270 -1.4660 -0.4863  1.3646
 2383SOL     OW11959   1.561   6.684   3.510  0.3632 -0.1322 -0.1125
 2383SOL    HW111960   1.528   6.595   3.505 -0.0942  0.1127 -2.4263
 2383SOL    HW211961   1.483   6.739   3.519  0.4528  0.1498 -0.9349
 2384SOL     OW11962   0.346   8.050   1.979 -0.5246 -0.1050  0.1244
 2384SOL    HW111963   0.296   8.062   2.060 -0.9026 -0.0784 -0.1094
 2384SOL    HW211964   0.405   8.125   1.976  0.7273 -0.9901  1.2450
 2385SOL     OW11965   9.461  11.646   2.607  0.0610 -0.2993 -0.4194
 2385SOL    HW111966   9.422  11.733   2.619 -0.5467 -0.4228 -1.4071
 2385SOL    HW211967   9.553  11.664   2.587 -0.2349  0.1691 -1.4099
 2386SOL     OW11968  11.208   7.748   0.523  0.2457 -0.0229 -0.2146
 2386SOL    HW111969  11.283   7.698   0.491  0.3146 -0.3426  0.4343
 2386SOL    HW211970  11.138   7.684   0.530  0.6450 -0.2938  1.7128
 2387SOL     OW11971   8.228   9.441   8.912 -0.5337 -0.3743  0.0339
 2387SOL    HW111972   8.170   9.449   8.987 -1.2678 -3.1202 -0.1376
 2387SOL    HW211973   8.315   9.426   8.951 -0.6018 -0.0936  0.3032
 2388SOL     OW11974  10.193   9.542  10.345  1.1188  0.0417  0.6185
 2388SOL    HW111975  10.156   9.498  10.269  2.7308  1.3352 -0.9768
 2388SOL    HW211976  10.118   9.588  10.384  0.2583 -0.7099 -0.1106
 2389SOL     OW11977   5.932   3.104  12.347  0.2382 -0.0826 -0.1751
 2389SOL    HW111978   5.881   3.055  12.283 -0.8252  2.7751 -1.7190
 2389SOL    HW211979   5.879   3.102  12.427 -0.4467 -0.2814 -0.6248
 2390SOL     OW11980   9.853  10.548   5.874 -0.1919  0.1776  0.2914
 2390SOL    HW111981   9.904  10.523   5.797 -0.8668  1.4102 -0.5848
 2390SOL    HW211982   9.821  10.466   5.910 -0.2693 -0.3927 -1.0362
 2391SOL     OW11983   2.495  10.871   8.842  0.2529  0.6400  0.0849
 2391SOL    HW111984   2.553  10.901   8.912  0.6397 -1.9833  0.9669
 2391SOL    HW211985   2.430  10.817   8.886 -0.7627  0.6272 -1.3539
 2392SOL     OW11986   8.641   3.027   1.600  0.0841 -0.3554 -0.4594
 2392SOL    HW111987   8.721   3.041   1.550 -0.5553 -1.8299 -2.0080
 2392SOL    HW211988   8.607   2.943   1.568 -0.5262 -1.2621  2.3127
 2393SOL     OW11989   5.898   0.727   7.694  0.2270  0.2067 -0.0500
 2393SOL    HW111990   5.936   0.813   7.675 -0.5400  0.2694 -1.4205
 2393SOL    HW211991   5.927   0.707   7.783  0.0996  2.0496  0.4321
 2394SOL     OW11992   8.790   6.245   8.454  0.0700  0.7196 -0.1724
 2394SOL    HW111993   8.851   6.207   8.517  0.3129  1.0778 -0.1888
 2394SOL    HW211994   8.788   6.182   8.381 -1.6251 -0.6294  0.9731
 2395SOL     OW11995  11.720   2.573   1.816 -0.1093  0.4868 -0.3049
 2395SOL    HW111996  11.737   2.494   1.763  0.1660 -0.1116  0.6578
 2395SOL    HW211997  11.799   2.626   1.805  0.5820 -0.3107  0.6683
 2396SOL     OW11998   4.311   0.556   8.043  0.0106 -0.3043 -0.3094
 2396SOL    HW111999   4.265   0.616   7.985  0.2360 -0.3244 -0.5106
 2396SOL    HW212000   4.347   0.489   7.985 -1.1263 -1.2308  0.0197
 2397SOL     OW12001   5.392   0.039   0.403 -0.0938  0.3554 -0.3389
 2397SOL    HW112002   5.374   0.078   0.318  0.6545  2.2078  0.3072
 2397SOL    HW212003   5.324   0.073   0.461  0.5061  0.6372  0.2171
 2398SOL     OW12004  10.692   2.416   5.026 -0.1005 -1.0180  0.0493
 2398SOL    HW112005  10.775   2.451   4.995 -0.1454 -0.6630  0.3277
 2398SOL    HW212006  10.651   2.379   4.948  0.0870 -0.7289 -0.1880
 2399SOL     OW12007   0.385   4.247   0.152  0.4972  0.0711  0.2136
 2399SOL    HW112008   0.390   4.302   0.073 -1.2362  0.9330  0.6784
 2399SOL    HW212009   0.462   4.273   0.203 -0.1584  1.9555  0.3273
 2400SOL     OW12010   1.279   3.243   6.193 -0.6453 -0.5071 -0.0234
 2400SOL    HW112011   1.285   3.315   6.257 -1.4969  0.0403 -0.5339
 2400SOL    HW212012   1.352   3.185   6.215 -0.3264  0.1859  0.8111
 2401SOL     OW12013  12.449  12.403   2.017 -0.1020  0.6273 -0.1405
 2401SOL    HW112014  12.373  12.362   2.059  0.0537  0.4460 -0.0355
 2401SOL    HW212015  12.431  12.397   1.923 -1.6604  3.2783 -0.1187
 2402SOL     OW12016   3.818   0.095   3.134 -0.3896  0.4587 -0.0504
 2402SOL    HW112017   3.747   0.144   3.091 -0.1499  1.1385  0.3150
 2402SOL    HW212018   3.838   0.146   3.212 -0.3050 -0.3705  0.4789
 2403SOL     OW12019   4.298   1.075   4.045 -0.1561 -0.1342 -0.9149
 2403SOL    HW112020   4.357   1.044   4.113 -1.8666 -0.7710  0.3706
 2403SOL    HW212021   4.279   1.166   4.069 -0.6691 -0.3234 -0.5756
 2404SOL     OW12022   2.049   5.190   3.593  0.3349  0.1095  0.6100
 2404SOL    HW112023   1.957   5.207   3.569  0.5901  2.0400  0.7853
 2404SOL    HW212024   2.087   5.278   3.601  2.8739 -0.6526 -1.9441
 2405SOL     OW12025   4.008   6.711   7.610  0.7155  0.0830  0.0294
 2405SOL    HW112026   3.959   6.640   7.651  1.7877 -1.1635 -0.8014
 2405SOL    HW212027   3.941   6.777   7.589 -0.1106 -0.0114  2.0837
 2406SOL     OW12028   1.611   1.920   6.335 -0.2668  0.0383 -0.0943
 2406SOL    HW112029   1.563   1.850   6.379  0.3528 -1.3625 -1.5679
 2406SOL    HW212030   1.697   1.919   6.377  0.6000 -1.8399 -1.7549
 2407SOL     OW12031   3.627   6.625   8.985  0.5598 -0.2833 -0.0025
 2407SOL    HW112032   3.602   6.533   8.981 -1.6487  0.1134  2.0567
 2407SOL    HW212033   3.626   6.646   9.078 -0.9569  2.2783 -0.4903
 2408SOL     OW12034   4.837   8.222   7.419 -0.3561  0.0548  0.2302
 2408SOL    HW112035   4.877   8.269   7.492 -2.1526 -1.1822  2.1406
 2408SOL    HW212036   4.872   8.133   7.425  0.6531  0.2881 -1.4393
 2409SOL     OW12037   4.560   8.536   5.608 -0.3034  0.1684  0.3772
 2409SOL    HW112038   4.500   8.542   5.683 -1.0154 -2.2324  0.0781
 2409SOL    HW212039   4.644   8.512   5.646 -0.4920 -0.3427  0.4770
 2410SOL     OW12040   5.896   5.338   8.973 -0.0520  0.2736 -0.4668
 2410SOL    HW112041   5.985   5.373   8.969 -0.1630  1.4507  3.2982
 2410SOL    HW212042   5.909   5.243   8.973  1.4940  0.3896  2.0267
 2411SOL     OW12043   7.548   1.107  12.361  0.1337  0.7327  0.4164
 2411SOL    HW112044   7.613   1.136  12.298 -2.1718  2.1221 -1.5214
 2411SOL    HW212045   7.590   1.036  12.409  2.9636  1.4738 -0.7842
 2412SOL     OW12046   8.344  10.547   9.742  0.0546  0.3994  0.1075
 2412SOL    HW112047   8.267  10.575   9.693 -0.7358 -1.9907 -0.1073
 2412SOL    HW212048   8.410  10.615   9.724 -1.3219  1.4006 -1.3703
 2413SOL     OW12049   9.683  11.674   9.850 -0.0494  0.1360 -0.1505
 2413SOL    HW112050   9.667  11.620   9.927 -0.4425 -1.1575 -1.0989
 2413SOL    HW212051   9.616  11.742   9.854 -0.0464  0.0965  0.6693
 2414SOL     OW12052   8.169  11.877   1.841 -0.1499  0.2153  0.1344
 2414SOL    HW112053   8.223  11.886   1.920 -1.0771  0.3826  0.7616
 2414SOL    HW212054   8.214  11.932   1.776  1.6812 -1.3971 -0.0652
 2415SOL     OW12055   5.771  11.512  11.352  0.1066  0.5034 -0.4906
 2415SOL    HW112056   5.684  11.472  11.353  0.3127  0.0627 -0.0676
 2415SOL    HW212057   5.819  11.463  11.285  0.3728 -0.0077  0.0592
 2416SOL     OW12058   9.879   1.073   3.166 -0.3148  0.6659  0.0836
 2416SOL    HW112059   9.947   1.006   3.164 -0.6645  0.2502  1.2195
 2416SOL    HW212060   9.841   1.072   3.078 -0.0006 -0.2949 -0.0474
 2417SOL     OW12061  11.440   9.924  11.199 -0.0542  0.4461 -0.5244
 2417SOL    HW112062  11.535   9.936  11.206 -0.1609  1.7225 -0.9027
 2417SOL    HW212063  11.420   9.853  11.259  0.7514  2.2436  2.0453
 2418SOL     OW12064   9.594   7.916   6.130  0.0256 -0.2842 -0.3635
 2418SOL    HW112065   9.624   7.916   6.039  2.2358  1.2995  0.2644
 2418SOL    HW212066   9.588   8.009   6.154 -0.4427 -0.6623  1.1222
 2419SOL     OW12067   4.836   6.945  10.865 -0.4601  0.3373 -0.5160
 2419SOL    HW112068   4.803   6.935  10.776  3.0943  2.1378 -2.2696
 2419SOL    HW212069   4.845   7.040  10.876  0.8715  0.0770  0.9951
 2420SOL     OW12070   5.285   7.576  11.916  0.1899  0.8792  0.6370
 2420SOL    HW112071   5.284   7.670  11.898  1.8234  1.1974  2.0219
 2420SOL    HW212072   5.378   7.552  11.913 -0.2502 -0.9300 -0.7017
 2421SOL     OW12073  11.560   4.757   9.332  0.2822  0.3170  0.1905
 2421SOL    HW112074  11.538   4.850   9.328  1.5785  0.7653  1.8903
 2421SOL    HW212075  11.517   4.726   9.412 -0.0091 -0.5085 -0.2805
 2422SOL     OW12076  10.993   8.206  10.442 -0.5594  0.6536 -0.2688
 2422SOL    HW112077  10.987   8.110  10.446 -0.9475  0.7201  1.4301
 2422SOL    HW212078  11.009   8.225  10.349 -3.5247 -0.8767 -1.2483
 2423SOL     OW12079  12.330  10.685   8.375  0.2741 -0.5487 -0.3328
 2423SOL    HW112080  12.248  10.707   8.419 -0.0106 -2.0319 -0.0745
 2423SOL    HW212081  12.325  10.590   8.361  2.1593 -0.7468  0.1353
 2424SOL     OW12082   6.376   7.584   8.852 -0.5260 -0.8934  0.4731
 2424SOL    HW112083   6.433   7.636   8.909 -0.6384  0.3616 -0.5046
 2424SOL    HW212084   6.296   7.636   8.846 -0.5526 -1.0484 -0.7394
 2425SOL     OW12085   8.950   3.889  10.400  0.1719  0.3708 -0.0067
 2425SOL    HW112086   9.036   3.930  10.401  0.4583 -0.1988 -0.5090
 2425SOL    HW212087   8.960   3.812  10.456 -0.0612  0.4073  0.0852
 2426SOL     OW12088   4.386  11.942   1.408 -0.5219  0.3208 -0.0716
 2426SOL    HW112089   4.372  12.029   1.446  0.7238  1.3121 -1.7107
 2426SOL    HW212090   4.299  11.901   1.408 -1.7608  2.6830 -1.7697
 2427SOL     OW12091   0.713   7.976   5.684  0.3259 -0.2781  0.4228
 2427SOL    HW112092   0.731   7.896   5.635  1.3588  0.4638 -0.4581
 2427SOL    HW212093   0.734   7.953   5.775  0.1821 -1.1290  0.2540
 2428SOL     OW12094  11.404   9.182   1.055  1.0782  0.6354  0.4056
 2428SOL    HW112095  11.324   9.139   1.024  2.0459  0.3967 -1.9106
 2428SOL    HW212096  11.377   9.271   1.076  0.0985  0.3961  0.2226
 2429SOL     OW12097   7.582  10.439   5.791  0.1383 -0.5966  0.1446
 2429SOL    HW112098   7.637  10.363   5.771  0.6861  0.2835 -1.9242
 2429SOL    HW212099   7.507  10.430   5.732 -0.1942  0.0496  0.4619
 2430SOL     OW12100   7.912   3.793   7.807  0.1238  0.0866 -0.3600
 2430SOL    HW112101   7.894   3.816   7.715  0.6696 -1.9655 -1.0370
 2430SOL    HW212102   7.848   3.844   7.857 -1.1307  0.2018 -1.9782
 2431SOL     OW12103   4.534   6.687   8.237  0.8925 -0.0976 -0.0944
 2431SOL    HW112104   4.627   6.674   8.217  1.1229  1.7656 -0.4269
 2431SOL    HW212105   4.488   6.653   8.160  1.2534 -1.3456  0.2173
 2432SOL     OW12106   4.557   9.915   5.261  0.2397  0.3679  0.1661
 2432SOL    HW112107   4.489   9.967   5.219  0.0199 -0.5639 -0.6701
 2432SOL    HW212108   4.626   9.978   5.282 -1.1265  1.4493  1.6382
 2433SOL     OW12109   1.796   6.035   4.380  0.2836 -0.3470 -0.2072
 2433SOL    HW112110   1.733   6.096   4.419 -0.1404  0.0224 -1.4326
 2433SOL    HW212111   1.837   6.084   4.309  1.1515 -0.9576 -0.1424
 2434SOL     OW12112   6.004  12.111   2.182  0.8648  0.1737  0.2339
 2434SOL    HW112113   6.045  12.092   2.267  3.0361  0.1907 -0.7367
 2434SOL    HW212114   6.074  12.097   2.118 -1.0072 -0.9358 -1.6993
 2435SOL     OW12115   4.046  10.699   5.320 -0.1464 -0.1530 -0.3092
 2435SOL    HW112116   3.996  10.735   5.393 -0.8056  1.2818 -1.4413
 2435SOL    HW212117   4.113  10.645   5.362 -1.6163 -0.8249  1.2855
 2436SOL     OW12118   9.721   2.803   0.930 -0.1408 -0.2925  0.4019
 2436SOL    HW112119   9.638   2.804   0.882  0.1892 -0.7473 -0.1886
 2436SOL    HW212120   9.704   2.747   1.006 -0.9545  1.2085  1.3835
 2437SOL     OW12121   5.495  10.183   9.726  0.4268 -0.2138  0.6043
 2437SOL    HW112122   5.437  10.136   9.786 -1.2791 -0.3135 -1.0152
 2437SOL    HW212123   5.466  10.155   9.639 -1.1403  4.1836 -0.5214
 2438SOL     OW12124   8.436   8.579   5.254  0.2796 -0.0920 -0.3047
 2438SOL    HW112125   8.411   8.495   5.292 -1.7550  0.5540 -0.0596
 2438SOL    HW212126   8.456   8.635   5.329 -1.0382  0.3839 -0.2718
 2439SOL     OW12127   5.371   6.222   4.952  0.1482  0.0282 -0.3642
 2439SOL    HW112128   5.433   6.173   4.898 -1.3532 -1.4133 -0.8582
 2439SOL    HW212129   5.323   6.155   5.000 -1.1911  1.0708 -0.1977
 2440SOL     OW12130  12.143   7.629   4.713  0.0172 -0.0279 -0.2234
 2440SOL    HW112131  12.079   7.697   4.736 -0.2626 -0.6143  0.8023
 2440SOL    HW212132  12.090   7.554   4.687  0.3033 -0.1921 -0.3324
 2441SOL     OW12133   3.073   5.666   3.811  0.2506 -0.1144  0.3822
 2441SOL    HW112134   3.155   5.678   3.860  0.4809 -2.1611  0.5665
 2441SOL    HW212135   3.087   5.586   3.760 -2.2654 -1.5573  1.7903
 2442SOL     OW12136  10.260   0.600  12.140 -0.1978  0.1850  0.0119
 2442SOL    HW112137  10.181   0.633  12.097  0.7013  0.8218 -1.2070
 2442SOL    HW212138  10.327   0.666  12.122  1.1467 -1.3299 -0.7790
 2443SOL     OW12139   6.684   3.685   6.147  0.1464  0.4663  0.4283
 2443SOL    HW112140   6.727   3.669   6.063  1.6831  0.7258  1.1149
 2443SOL    HW212141   6.746   3.650   6.212 -0.7427  0.7854  1.4718
 2444SOL     OW12142   5.565   8.446   1.871  0.1257  0.0198 -0.1610
 2444SOL    HW112143   5.490   8.436   1.812  0.2022  0.5342 -0.3511
 2444SOL    HW212144   5.638   8.464   1.813  0.5940 -1.3825 -0.0479
 2445SOL     OW12145   7.737  10.136   9.069  0.3546 -0.3358  0.3430
 2445SOL    HW112146   7.792  10.075   9.019 -1.3066 -1.3893 -0.2914
 2445SOL    HW212147   7.683  10.179   9.002 -1.5254 -1.3631  1.1467
 2446SOL     OW12148  10.474   5.597   7.830 -0.2544 -0.1246  0.2210
 2446SOL    HW112149  10.554   5.640   7.860 -0.7738  0.1482  1.2716
 2446SOL    HW212150  10.441   5.653   7.761  2.0879 -1.8497 -2.5379
 2447SOL     OW12151   7.844   3.947   0.076 -0.7164  0.4768 -0.1597
 2447SOL    HW112152   7.917   3.924   0.132 -0.9033 -0.3318 -0.2427
 2447SOL    HW212153   7.879   4.013   0.016 -0.0918  0.1754 -0.1252
 2448SOL     OW12154  12.067   6.462   2.076 -0.5457 -0.2621  0.2297
 2448SOL    HW112155  12.086   6.502   2.160  0.4324 -0.5269  0.1411
 2448SOL    HW212156  12.024   6.379   2.098  0.5931 -0.7974  0.5123
 2449SOL     OW12157   4.915   2.583   6.488 -0.6998 -0.1318  0.2287
 2449SOL    HW112158   4.985   2.531   6.449 -0.4614  1.0335 -0.9422
 2449SOL    HW212159   4.929   2.574   6.583  0.3487 -0.8121  0.0277
 2450SOL     OW12160   4.565   4.640   8.025 -0.4906 -0.2890  0.2263
 2450SOL    HW112161   4.528   4.556   8.052 -0.6431 -0.7190 -1.2382
 2450SOL    HW212162   4.651   4.643   8.067 -0.1678 -1.5262 -0.2993
 2451SOL     OW12163  11.793  10.644   3.144 -0.4632 -0.3008 -0.3344
 2451SOL    HW112164  11.710  10.597   3.150 -0.7755  0.3533  1.0017
 2451SOL    HW212165  11.802  10.687   3.230  0.4413  0.9904 -1.0398
 2452SOL     OW12166   2.660  11.092   2.476  0.2098 -0.3660  0.4151
 2452SOL    HW112167   2.639  11.003   2.449 -0.7923  0.2907 -1.0858
 2452SOL    HW212168   2.584  11.144   2.450  1.5321  1.2459 -0.4210
 2453SOL     OW12169  11.220   4.266   4.448 -0.2298 -0.7663 -0.3499
 2453SOL    HW112170  11.171   4.263   4.529  1.1390 -1.7927  0.4901
 2453SOL    HW212171  11.173   4.328   4.393 -1.0456  0.1386  1.3096
 2454SOL     OW12172   7.012   0.342   5.377  0.3523 -0.4377  0.2100
 2454SOL    HW112173   7.020   0.365   5.285 -0.5282  1.8443  0.6451
 2454SOL    HW212174   6.943   0.275   5.379 -0.6086  0.4917 -0.6735
 2455SOL     OW12175   9.803   6.427   2.736 -0.3772 -0.2920 -0.9890
 2455SOL    HW112176   9.760   6.350   2.700 -0.2021  0.4981 -3.0592
 2455SOL    HW212177   9.870   6.449   2.671  1.0678  0.3217  0.6399
 2456SOL     OW12178   6.825   7.182   2.488 -0.2504 -0.0398 -0.6833
 2456SOL    HW112179   6.750   7.235   2.515 -0.8194 -0.1536 -1.9938
 2456SOL    HW212180   6.901   7.233   2.516 -0.7590  1.7830 -2.3701
 2457SOL     OW12181   6.032   7.228   5.981  1.1230 -0.1789  0.2198
 2457SOL    HW112182   6.046   7.163   5.912 -1.0535  0.6342 -1.1061
 2457SOL    HW212183   5.956   7.197   6.029  1.2061  0.4339  0.7564
 2458SOL     OW12184   6.590   1.057   7.685  0.0427 -0.2577  0.3272
 2458SOL    HW112185   6.516   1.019   7.636 -0.2911  0.2795  0.4097
 2458SOL    HW212186   6.581   1.151   7.672  0.1258 -0.1293  1.1761
 2459SOL     OW12187   1.222   2.096   7.406 -0.0239  0.5038  0.3514
 2459SOL    HW112188   1.226   2.155   7.331  0.2629 -1.4386 -1.2429
 2459SOL    HW212189   1.131   2.068   7.410 -0.2643  1.3736  1.3982
 2460SOL     OW12190   0.784   6.109   6.278  0.1586  0.2740 -0.5714
 2460SOL    HW112191   0.699   6.137   6.311  0.3195 -0.7320  0.7753
 2460SOL    HW212192   0.846   6.169   6.320  0.2676 -0.2906  0.0955
 2461SOL     OW12193   9.894   1.253   1.294  0.5022 -0.3895  0.1766
 2461SOL    HW112194   9.808   1.256   1.252  0.2264 -1.4937  0.6222
 2461SOL    HW212195   9.896   1.331   1.349 -0.9126 -1.1695  1.4259
 2462SOL     OW12196   8.330   4.030   5.326  0.0296  0.1060 -0.3287
 2462SOL    HW112197   8.356   4.121   5.312  1.0610 -0.2153 -0.5996
 2462SOL    HW212198   8.235   4.030   5.318  0.1129  0.9732 -1.4923
 2463SOL     OW12199   4.615  12.041   7.921  0.0902  0.8134  0.6825
 2463SOL    HW112200   4.593  12.120   7.971 -1.6052  1.7230 -1.3558
 2463SOL    HW212201   4.640  12.073   7.834  1.1082 -0.8242  0.3131
 2464SOL     OW12202   1.813   6.732   4.537  0.3047  0.4511  0.0753
 2464SOL    HW112203   1.744   6.696   4.481  1.0307 -0.0510 -0.5175
 2464SOL    HW212204   1.769   6.749   4.621 -0.8192  1.2885 -0.6543
 2465SOL     OW12205   4.710   9.791   3.565  0.1278 -0.1493 -0.2750
 2465SOL    HW112206   4.628   9.754   3.533  0.2160  0.0249 -0.7058
 2465SOL    HW212207   4.764   9.801   3.487 -0.0764  1.3422 -0.2627
 2466SOL     OW12208   0.364   7.011   0.168  0.0056 -0.4940  0.5159
 2466SOL    HW112209   0.316   7.061   0.102 -0.2974 -0.3553  0.8403
 2466SOL    HW212210   0.316   7.025   0.249  0.1045 -1.0464  0.6781
 2467SOL     OW12211   5.722   3.392   3.315  0.3333 -0.2506  0.9667
 2467SOL    HW112212   5.771   3.420   3.393 -0.6297 -1.7509  2.1936
 2467SOL    HW212213   5.688   3.305   3.339 -2.7331  0.5953  0.1281
 2468SOL     OW12214   4.983   5.346  11.454  0.6096 -0.5411  0.2686
 2468SOL    HW112215   5.052   5.406  11.428  1.5257 -1.9148 -0.5971
 2468SOL    HW212216   4.957   5.376  11.542  1.3060  0.8404  0.0255
 2469SOL     OW12217   7.290   9.402  12.577 -0.5740  0.1778 -0.4362
 2469SOL    HW112218   7.256   9.455  12.505  1.1517  1.0084 -0.6948
 2469SOL    HW212219   7.385   9.417  12.574 -0.3959 -0.3829  1.5253
 2470SOL     OW12220   7.337   1.743   8.408 -0.2717  0.7443  0.2631
 2470SOL    HW112221   7.246   1.771   8.416 -0.3899  0.3403  0.3436
 2470SOL    HW212222   7.332   1.649   8.390  0.1272  0.7349  0.1825
 2471SOL     OW12223   1.362   4.042   7.491  0.0342 -0.4231 -0.2641
 2471SOL    HW112224   1.455   4.017   7.493 -0.4172 -2.1743  0.9446
 2471SOL    HW212225   1.350   4.098   7.567 -0.2198 -1.4921  0.4932
 2472SOL     OW12226   7.457   4.257   3.582 -0.5951 -0.4799 -0.1568
 2472SOL    HW112227   7.416   4.336   3.617 -1.5049 -0.1829 -1.8152
 2472SOL    HW212228   7.440   4.260   3.488  0.3035 -2.1022 -0.4127
 2473SOL     OW12229   5.223   6.450   2.751 -0.1162  0.2261 -0.0478
 2473SOL    HW112230   5.294   6.444   2.686  0.1784  1.5378  0.1191
 2473SOL    HW212231   5.206   6.360   2.777 -0.6337 -0.4061 -2.3626
 2474SOL     OW12232  10.712   1.645   8.208 -0.0804 -0.2813  0.0523
 2474SOL    HW112233  10.622   1.644   8.239  0.4707 -0.4370  1.7108
 2474SOL    HW212234  10.709   1.699   8.129 -1.9456 -1.8569 -1.0532
 2475SOL     OW12235   0.955   6.322   3.784  0.7371 -0.2198  0.6965
 2475SOL    HW112236   0.949   6.229   3.806  1.6807 -0.3601  0.3766
 2475SOL    HW212237   1.028   6.329   3.723  1.2241  0.8467  1.3610
 2476SOL     OW12238   9.469   4.932  10.817 -0.0693 -0.0583 -0.3938
 2476SOL    HW112239   9.536   4.958  10.753  1.4575 -0.2410  1.0663
 2476SOL    HW212240   9.395   4.989  10.797  0.6743  0.4922 -1.7638
 2477SOL     OW12241   0.464   3.285   8.164  0.2563 -0.0564 -1.1184
 2477SOL    HW112242   0.514   3.299   8.244  1.2944 -0.3484 -1.6937
 2477SOL    HW212243   0.373   3.301   8.189  0.5472 -0.2617  0.1439
 2478SOL     OW12244   9.604   4.664   3.067 -0.4452  0.4228 -0.5391
 2478SOL    HW112245   9.631   4.573   3.053  3.2335  1.2567  0.0147
 2478SOL    HW212246   9.539   4.659   3.137  1.5770 -1.6831  1.3713
 2479SOL     OW12247   5.848   3.551   8.746 -0.6784  0.1701  0.1362
 2479SOL    HW112248   5.756   3.567   8.766 -0.9350 -1.7871  0.7192
 2479SOL    HW212249   5.887   3.639   8.742 -2.1169  0.9765  2.0773
 2480SOL     OW12250  10.645   8.924   7.071 -0.2022 -0.4931 -0.3021
 2480SOL    HW112251  10.607   8.981   7.004 -2.2268 -1.9828 -0.5185
 2480SOL    HW212252  10.650   8.980   7.149 -1.6436  0.1544 -0.6346
 2481SOL     OW12253   0.251   6.136   8.825 -0.2396  0.0540  0.6108
 2481SOL    HW112254   0.223   6.101   8.741  0.7388 -0.3123  0.4327
 2481SOL    HW212255   0.254   6.231   8.812 -2.3005  0.2244  0.9195
 2482SOL     OW12256   2.219   2.936   5.946 -0.5551 -0.2861  0.1255
 2482SOL    HW112257   2.127   2.963   5.943 -1.0103 -1.5970  1.1171
 2482SOL    HW212258   2.226   2.884   6.026  1.0990 -0.0949  0.1446
 2483SOL     OW12259   2.050   3.560   2.245 -0.5395 -0.1960  0.1490
 2483SOL    HW112260   1.983   3.493   2.261 -0.9141 -0.1272 -1.0241
 2483SOL    HW212261   2.001   3.639   2.225 -0.1231 -0.1127 -0.6015
 2484SOL     OW12262   9.561  10.021   7.825 -0.1706  0.5814 -0.6469
 2484SOL    HW112263   9.468  10.044   7.826 -0.2023  0.4911  0.8588
 2484SOL    HW212264   9.590  10.037   7.915  0.8001 -1.3278 -0.5883
 2485SOL     OW12265  12.020   3.047  11.317 -0.3648  0.0735  0.3631
 2485SOL    HW112266  12.098   2.992  11.319 -0.2058  0.3168  0.8911
 2485SOL    HW212267  12.003   3.069  11.408 -2.0531 -1.3749  0.4566
 2486SOL     OW12268   6.934  10.381  11.606 -0.1806  0.2477  0.4169
 2486SOL    HW112269   6.925  10.420  11.519  0.7354  0.0798  0.2342
 2486SOL    HW212270   6.880  10.302  11.602  1.0450 -0.5854 -0.5332
 2487SOL     OW12271   6.309   2.333   8.403  0.6887 -0.6934 -0.1820
 2487SOL    HW112272   6.349   2.271   8.464  0.1786 -0.1575  0.7144
 2487SOL    HW212273   6.219   2.304   8.394  0.4303 -0.0733  0.2875
 2488SOL     OW12274   7.811   6.268   8.594  0.1045  0.1187  0.0713
 2488SOL    HW112275   7.882   6.286   8.532  0.2855  3.4789  1.0589
 2488SOL    HW212276   7.732   6.263   8.540  0.6901 -0.7184 -0.7415
 2489SOL     OW12277  11.169   8.029   9.085 -0.4173 -0.0371  0.0009
 2489SOL    HW112278  11.155   7.942   9.123  1.1414 -0.3142  0.0322
 2489SOL    HW212279  11.240   8.016   9.023  1.5662  1.6259  1.7538
 2490SOL     OW12280   2.423   8.302   6.915 -0.3588  0.2554  0.0776
 2490SOL    HW112281   2.352   8.248   6.950 -1.7451  1.2246 -1.1452
 2490SOL    HW212282   2.477   8.241   6.864 -2.5058  0.1038 -2.2080
 2491SOL     OW12283   6.211  12.187  11.501 -0.0235  0.2786 -0.1673
 2491SOL    HW112284   6.171  12.273  11.493 -1.1267 -0.1341  0.6485
 2491SOL    HW212285   6.146  12.134  11.547  1.2376 -0.5719  0.7165
 2492SOL     OW12286  10.172   8.166   4.750  0.2254 -0.2670  0.3357
 2492SOL    HW112287  10.211   8.098   4.695 -0.4500 -0.5468  0.1821
 2492SOL    HW212288  10.210   8.248   4.718  1.5439 -0.6216  0.9659
 2493SOL     OW12289   5.012   6.312  10.030 -0.3331 -0.6185  0.1103
 2493SOL    HW112290   5.105   6.321  10.049 -0.3474  0.3130 -0.2023
 2493SOL    HW212291   4.971   6.301  10.116 -0.0902  0.5856  0.3963
 2494SOL     OW12292   1.595   3.431   2.438 -0.1887 -0.7725  0.1238
 2494SOL    HW112293   1.619   3.426   2.530 -0.0422 -0.7270  0.0879
 2494SOL    HW212294   1.499   3.434   2.439 -0.2248  2.9924  0.4997
 2495SOL     OW12295  11.816   3.519   2.067 -0.1371  0.1222 -0.5357
 2495SOL    HW112296  11.790   3.466   1.992  1.0923 -1.0711 -0.1493
 2495SOL    HW212297  11.888   3.572   2.035 -0.9493  1.1299 -0.7435
 2496SOL     OW12298   8.796   9.258  10.136 -0.3933 -0.7110  0.7756
 2496SOL    HW112299   8.763   9.236  10.049  1.4480 -0.3823 -0.0732
 2496SOL    HW212300   8.732   9.320  10.172 -1.4928 -1.3183 -0.0862
 2497SOL     OW12301   7.711   7.524   1.804 -0.0470  0.2402 -0.5644
 2497SOL    HW112302   7.681   7.608   1.839  1.3866 -0.5250  2.8194
 2497SOL    HW212303   7.804   7.538   1.786  0.5690 -0.9789  1.4553
 2498SOL     OW12304   8.394  11.333   3.894  0.6856  0.2904  0.1587
 2498SOL    HW112305   8.411  11.249   3.851 -0.3278 -0.1759  0.6014
 2498SOL    HW212306   8.307  11.358   3.863 -0.1419 -0.1309  1.9652
 2499SOL     OW12307   8.425   7.588   5.057  0.5403 -0.2209 -0.6467
 2499SOL    HW112308   8.351   7.576   5.116  0.3473  0.6093 -0.6967
 2499SOL    HW212309   8.421   7.681   5.033  1.3027 -0.2814 -1.0442
 2500SOL     OW12310   3.962   3.044   3.757 -0.6998 -0.4200  0.9147
 2500SOL    HW112311   3.915   2.976   3.710 -0.9790 -0.4686  1.2663
 2500SOL    HW212312   3.909   3.123   3.746  0.4015  0.1425 -0.8384
 2501SOL     OW12313   5.247   4.931   3.210  0.2279  0.5507 -0.0177
 2501SOL    HW112314   5.256   4.878   3.131 -0.4001  1.0033 -0.3971
 2501SOL    HW212315   5.207   4.871   3.274 -0.2935  0.4996 -0.3848
 2502SOL     OW12316   1.400   5.321   1.831  0.3450 -0.2578 -0.2880
 2502SOL    HW112317   1.349   5.371   1.766  0.4400  0.3720  0.1086
 2502SOL    HW212318   1.363   5.233   1.828 -0.9430  0.2409  0.1490
 2503SOL     OW12319   0.580   7.968   7.270 -0.2025 -0.2685 -0.5054
 2503SOL    HW112320   0.635   8.040   7.302 -0.7740  1.1370 -2.4623
 2503SOL    HW212321   0.627   7.889   7.294  0.4037  0.7206  1.8429
 2504SOL     OW12322   5.955   9.135   1.411 -1.0338  0.4520  0.8540
 2504SOL    HW112323   5.933   9.127   1.503 -1.3983  2.4135  0.9766
 2504SOL    HW212324   5.871   9.146   1.366 -0.7887  0.5334  0.4055
 2505SOL     OW12325   9.987   9.185   8.273 -0.0392  0.5491 -0.0539
 2505SOL    HW112326   9.917   9.195   8.207  0.2060  0.2824 -0.3598
 2505SOL    HW212327   9.970   9.099   8.312 -0.9940  1.2742  1.2014
 2506SOL     OW12328   4.316   5.582   4.304  0.4016  0.1599  0.1658
 2506SOL    HW112329   4.396   5.597   4.254  0.7318 -0.2437  0.5729
 2506SOL    HW212330   4.344   5.535   4.382  0.1602  2.2315  1.5964
 2507SOL     OW12331   5.298   6.325   8.327  0.1294 -0.3168 -0.2396
 2507SOL    HW112332   5.263   6.250   8.375  2.5032 -0.0650  2.1728
 2507SOL    HW212333   5.383   6.295   8.295  1.2170  1.3240  0.9510
 2508SOL     OW12334   3.727   5.378   7.052  0.0477 -0.3772  0.3775
 2508SOL    HW112335   3.759   5.400   7.140 -2.3053 -1.9730  1.7663
 2508SOL    HW212336   3.771   5.296   7.030  1.7078  0.7350 -0.6258
 2509SOL     OW12337   0.471   8.359   6.130 -0.0275  0.1322 -0.1134
 2509SOL    HW112338   0.435   8.433   6.082 -1.7201 -0.1595  0.6060
 2509SOL    HW212339   0.461   8.384   6.222 -1.4196 -1.2894  0.1675
 2510SOL     OW12340   2.891  11.208   4.377  0.4901 -0.6384 -0.5817
 2510SOL    HW112341   2.893  11.121   4.417 -0.5630 -0.7030 -0.6614
 2510SOL    HW212342   2.810  11.248   4.408  0.6822  0.1005 -0.9996
 2511SOL     OW12343   4.157   9.708   8.120  0.5167  0.1341 -0.4254
 2511SOL    HW112344   4.075   9.739   8.081  0.2068 -1.3127 -0.9857
 2511SOL    HW212345   4.140   9.705   8.214 -0.0049  0.0404 -0.5207
 2512SOL     OW12346   2.206   6.273   7.514  0.0087 -0.2420 -0.0274
 2512SOL    HW112347   2.238   6.348   7.565  2.3984 -0.5761 -0.9231
 2512SOL    HW212348   2.277   6.253   7.454  0.4156 -4.5866  1.5874
 2513SOL     OW12349   9.117  11.501   5.878  0.5104 -0.0262 -0.6831
 2513SOL    HW112350   9.137  11.575   5.820  2.3081 -0.0843 -0.1946
 2513SOL    HW212351   9.194  11.444   5.872  0.1783 -0.6676  0.7763
 2514SOL     OW12352   8.769   9.114   1.344  0.1736 -0.1884  0.0904
 2514SOL    HW112353   8.857   9.148   1.330  0.0186  0.3770  0.4890
 2514SOL    HW212354   8.780   9.045   1.409  0.4025 -0.5143 -0.2895
 2515SOL     OW12355   2.533   4.791   4.707  0.0110  0.1211 -0.0808
 2515SOL    HW112356   2.449   4.745   4.711 -2.2566  3.8564 -0.3168
 2515SOL    HW212357   2.560   4.801   4.798 -0.7915  0.5283  0.1153
 2516SOL     OW12358   9.005  10.154   4.480 -0.0706  0.0034 -0.2033
 2516SOL    HW112359   8.959  10.235   4.458  0.3417  0.2319 -0.2217
 2516SOL    HW212360   8.992  10.146   4.575 -1.0221 -0.4776 -0.3571
 2517SOL     OW12361   7.962   4.823   8.483 -0.3430 -0.5397  0.0465
 2517SOL    HW112362   7.911   4.851   8.559  1.5151  3.6556  0.0110
 2517SOL    HW212363   7.914   4.858   8.408  0.2971 -0.4440 -0.3258
 2518SOL     OW12364   9.149  10.077   2.622  0.5560  0.0313  0.0634
 2518SOL    HW112365   9.109  10.104   2.705 -0.0198  0.2365 -0.2786
 2518SOL    HW212366   9.126   9.985   2.612 -1.6804  0.6573 -1.1652
 2519SOL     OW12367   2.694   9.881   7.026 -0.3439 -0.7211 -0.0248
 2519SOL    HW112368   2.675   9.940   6.953 -1.4356  0.5496  1.2179
 2519SOL    HW212369   2.709   9.796   6.985  1.0490  0.3483 -1.8528
 2520SOL     OW12370   2.897   4.110  10.796  0.2029 -0.2976  0.4389
 2520SOL    HW112371   2.908   4.046  10.866  0.1102 -0.2984  0.4535
 2520SOL    HW212372   2.839   4.177  10.834  0.9953  0.2436  0.7267
 2521SOL     OW12373   9.179   4.400   0.033  0.1234 -0.1118  0.6653
 2521SOL    HW112374   9.194   4.494   0.035 -0.6548  0.0415  0.0072
 2521SOL    HW212375   9.193   4.371   0.123 -1.3782  0.9219  1.2679
 2522SOL     OW12376   9.158   9.464   2.761  0.3146  0.4945 -0.2326
 2522SOL    HW112377   9.175   9.370   2.773 -0.6125  0.4728  1.2110
 2522SOL    HW212378   9.226   9.493   2.700  1.8703 -0.7226  0.8181
 2523SOL     OW12379   2.220   9.896   1.467  0.7306 -0.1224 -0.0994
 2523SOL    HW112380   2.155   9.937   1.523  0.1263 -0.2937 -0.6574
 2523SOL    HW212381   2.198   9.803   1.467  0.8629 -0.1586 -0.4324
 2524SOL     OW12382   8.111   2.946  10.448 -0.2519 -0.3727 -0.0254
 2524SOL    HW112383   8.205   2.944  10.466 -0.0252  0.8403 -0.9762
 2524SOL    HW212384   8.070   2.925  10.532  0.8550 -0.5297  0.4882
 2525SOL     OW12385   3.590   6.365  11.250  0.0751 -0.4118  0.4016
 2525SOL    HW112386   3.534   6.413  11.188 -0.4246 -0.5982  0.7062
 2525SOL    HW212387   3.528   6.321  11.309  0.5400 -0.9041  0.5254
 2526SOL     OW12388   3.545   0.021   1.501 -0.2528 -0.5424 -0.1249
 2526SOL    HW112389   3.635   0.042   1.476 -0.3319 -0.7497 -0.5976
 2526SOL    HW212390   3.522  -0.054   1.446 -0.9417 -0.0729 -0.4908
 2527SOL     OW12391  12.321   6.062   5.145  0.5102  0.2053 -0.0342
 2527SOL    HW112392  12.342   6.131   5.207  0.1956 -0.4289  0.7993
 2527SOL    HW212393  12.399   6.006   5.144  0.1072 -0.3932  0.6498
 2528SOL     OW12394  12.153  11.599   8.736  0.4352  0.8578 -0.4183
 2528SOL    HW112395  12.192  11.630   8.818  0.4247 -0.0203 -0.0737
 2528SOL    HW212396  12.211  11.529   8.707 -0.1204  0.4783 -0.6285
 2529SOL     OW12397   1.465   6.660   9.362 -0.3019 -0.4251  0.5469
 2529SOL    HW112398   1.474   6.737   9.307  2.6320 -1.9653 -1.3907
 2529SOL    HW212399   1.484   6.691   9.451  1.2203  1.0308 -0.2394
 2530SOL     OW12400   1.507   6.853  11.363  0.2163 -0.0168 -0.4683
 2530SOL    HW112401   1.523   6.759  11.375 -1.0641 -0.7709 -3.6603
 2530SOL    HW212402   1.594   6.893  11.369  0.8554 -1.4222  0.4410
 2531SOL     OW12403   1.817  11.630  11.387  0.3756 -0.2016  0.3336
 2531SOL    HW112404   1.794  11.685  11.312  1.0723 -0.1143  0.1806
 2531SOL    HW212405   1.798  11.684  11.464 -3.4195 -1.3522  0.4354
 2532SOL     OW12406  11.218   5.375   6.422 -0.1154 -0.1335  0.3460
 2532SOL    HW112407  11.301   5.415   6.449  0.1152 -0.7955  0.6264
 2532SOL    HW212408  11.203   5.409   6.334  0.6549 -0.3049  0.1384
 2533SOL     OW12409  11.571   4.858   0.973 -0.4051 -0.2071  0.3249
 2533SOL    HW112410  11.500   4.900   0.924  0.0752  1.0655  0.6783
 2533SOL    HW212411  11.587   4.917   1.046 -1.0378 -2.0225  1.9996
 2534SOL     OW12412   1.044   7.458   7.071 -0.6541  0.5467 -0.1514
 2534SOL    HW112413   1.102   7.487   7.000 -1.3309  0.0197 -0.9381
 2534SOL    HW212414   1.102   7.414   7.133 -0.0145  1.2296 -0.2530
 2535SOL     OW12415   9.164   9.896   4.040  0.4863 -0.4271  0.0123
 2535SOL    HW112416   9.180   9.836   4.113  0.8763 -2.0928 -1.4055
 2535SOL    HW212417   9.074   9.878   4.013 -0.1913  1.2263  0.9446
 2536SOL     OW12418   3.322   9.252   3.359  0.0123  0.1194  0.2116
 2536SOL    HW112419   3.363   9.336   3.337 -1.0871  0.8540  0.8996
 2536SOL    HW212420   3.228   9.268   3.353 -0.2098 -1.1945 -0.0950
 2537SOL     OW12421   3.701   7.038   0.594 -0.6368  0.1936 -0.2276
 2537SOL    HW112422   3.720   7.058   0.685 -0.3236  0.0924 -0.2674
 2537SOL    HW212423   3.771   6.978   0.568 -0.7488  0.1875 -0.5204
 2538SOL     OW12424   4.550   4.492  10.578 -0.0957  0.1609  0.3381
 2538SOL    HW112425   4.618   4.559  10.589  0.3724 -0.2544 -0.0059
 2538SOL    HW212426   4.575   4.422  10.637  1.2947 -1.1804 -1.7074
 2539SOL     OW12427  12.451   6.522   7.085  0.1114 -0.1162 -0.3616
 2539SOL    HW112428  12.400   6.517   7.004  0.3009  0.6013 -0.5278
 2539SOL    HW212429  12.468   6.430   7.108  2.8806 -0.3638 -2.8849
 2540SOL     OW12430   0.688   6.252   1.689  0.7697 -0.3882  0.5867
 2540SOL    HW112431   0.712   6.285   1.603 -3.0835 -1.1104 -0.9260
 2540SOL    HW212432   0.687   6.330   1.745 -1.1646  0.9418 -1.1727
 2541SOL     OW12433   5.075   9.115   0.061 -0.2776  0.1443 -0.1576
 2541SOL    HW112434   5.080   9.020   0.060  0.7312  0.1945 -0.6142
 2541SOL    HW212435   5.164   9.145   0.078 -0.1655  1.0084 -1.9705
 2542SOL     OW12436   8.614  11.502   0.315  1.3120 -0.4758  0.2212
 2542SOL    HW112437   8.595  11.456   0.397  2.1838  0.2633  0.8653
 2542SOL    HW212438   8.642  11.589   0.343  1.0723 -0.0289 -0.9016
 2543SOL     OW12439   9.085   9.209  11.861  0.2805 -0.1306 -0.0407
 2543SOL    HW112440   9.103   9.302  11.854  2.0616 -0.4252  0.2408
 2543SOL    HW212441   8.999   9.204  11.903 -0.0874  1.3704 -0.5694
 2544SOL     OW12442  12.245   0.766  12.315 -0.4021  0.2678 -0.0526
 2544SOL    HW112443  12.182   0.791  12.382 -2.5025  0.8530 -2.1136
 2544SOL    HW212444  12.199   0.700  12.263  0.4794  1.0583 -1.9155
 2545SOL     OW12445   0.999   8.422  10.039 -0.2893  0.4986 -0.1972
 2545SOL    HW112446   1.063   8.493  10.032  0.1795  0.5841  3.3721
 2545SOL    HW212447   1.052   8.343  10.053 -0.9027 -0.2178 -1.6603
 2546SOL     OW12448   3.125  12.289  10.332  0.2355 -0.2640  0.5650
 2546SOL    HW112449   3.170  12.244  10.403  0.5656  0.4002  0.7767
 2546SOL    HW212450   3.138  12.232  10.256 -0.8993 -1.4524  1.2006
 2547SOL     OW12451   2.956   9.276  10.935 -0.0593  0.1737 -0.3578
 2547SOL    HW112452   2.924   9.213  10.999  1.3810 -0.0209  0.2077
 2547SOL    HW212453   2.935   9.361  10.973 -1.7987  0.0793 -1.0149
 2548SOL     OW12454   1.638   2.853   3.184  0.5098  0.3035 -0.2305
 2548SOL    HW112455   1.574   2.803   3.133  0.3865 -0.1347  0.3455
 2548SOL    HW212456   1.691   2.899   3.118  0.5823 -0.5324 -0.7611
 2549SOL     OW12457   4.790   8.197  11.145 -0.4851 -0.0526 -0.7578
 2549SOL    HW112458   4.752   8.281  11.169  1.9229  1.5343 -2.1173
 2549SOL    HW212459   4.848   8.174  11.218 -1.8582 -1.1165  0.0654
 2550SOL     OW12460   2.533   5.166  12.048 -0.0591  0.3238 -0.8820
 2550SOL    HW112461   2.539   5.090  11.989 -2.2783 -0.3638 -0.3002
 2550SOL    HW212462   2.465   5.142  12.111  0.3020  2.1928  0.2799
 2551SOL     OW12463   4.344   8.655   7.013  0.2025  0.2646  0.0221
 2551SOL    HW112464   4.435   8.630   7.031  0.1153 -0.2497 -0.2396
 2551SOL    HW212465   4.329   8.630   6.922 -0.4985 -0.5702  0.3511
 2552SOL     OW12466   9.157   1.286   0.643 -0.4612  0.4994  0.4926
 2552SOL    HW112467   9.186   1.285   0.551  1.7484  1.0626  1.1122
 2552SOL    HW212468   9.075   1.336   0.642 -0.4342  0.5691 -1.1534
 2553SOL     OW12469   4.390   8.754   8.637  0.0630  0.5660 -0.0795
 2553SOL    HW112470   4.456   8.714   8.580  1.4913 -0.3314  2.1009
 2553SOL    HW212471   4.421   8.736   8.726 -2.6530  0.9460  1.0225
 2554SOL     OW12472   0.846  11.957   0.803  0.2259  0.7594 -0.4224
 2554SOL    HW112473   0.842  11.883   0.865 -1.8950  0.6666 -0.6045
 2554SOL    HW212474   0.935  11.991   0.813  0.1818  0.3343  2.1973
 2555SOL     OW12475   5.046  10.966   3.727 -0.1542 -0.5140 -0.0750
 2555SOL    HW112476   5.028  11.055   3.759 -1.1658 -0.3345 -1.0804
 2555SOL    HW212477   5.097  10.980   3.647 -0.1914 -0.8473 -0.1561
 2556SOL     OW12478  10.271   4.660   1.299 -0.2519 -0.4599  0.2539
 2556SOL    HW112479  10.260   4.644   1.205 -1.1074 -2.2425  0.6210
 2556SOL    HW212480  10.311   4.579   1.332 -0.9754 -0.2809  1.6084
 2557SOL     OW12481   7.176   8.919   5.854  0.0274  0.0735  0.1351
 2557SOL    HW112482   7.140   8.981   5.790 -0.7609 -0.1799  0.3259
 2557SOL    HW212483   7.187   8.971   5.933 -1.6622 -0.2485  0.6263
 2558SOL     OW12484   9.772  10.364   3.778 -0.2232  0.4099  0.7463
 2558SOL    HW112485   9.701  10.300   3.771 -0.9501  1.0202  2.0671
 2558SOL    HW212486   9.834  10.324   3.838  0.7535 -0.2619 -0.6546
 2559SOL     OW12487   0.932  10.602   0.138 -0.0250  0.2044  0.0281
 2559SOL    HW112488   0.894  10.591   0.051  0.8507  1.3144 -0.5228
 2559SOL    HW212489   0.965  10.691   0.139  0.8384 -0.1004  1.1658
 2560SOL     OW12490   8.077   2.737   1.098 -0.0806 -0.2866  0.0211
 2560SOL    HW112491   7.984   2.738   1.075 -0.1471 -0.2143  0.2886
 2560SOL    HW212492   8.096   2.645   1.116  0.0247 -0.3748 -0.5293
 2561SOL     OW12493  10.270   5.397   6.142  0.5318 -0.3472 -0.7335
 2561SOL    HW112494  10.232   5.455   6.209 -1.2197 -1.5131 -0.6778
 2561SOL    HW212495  10.223   5.419   6.062  0.4302 -1.1082 -0.8896
 2562SOL     OW12496   5.690   8.764   7.037  0.0251 -0.2638  0.3083
 2562SOL    HW112497   5.683   8.813   7.119  2.0561  0.3047  0.2082
 2562SOL    HW212498   5.600   8.742   7.014 -0.6680  0.4220  2.1685
 2563SOL     OW12499   9.053  12.410   9.313 -0.0925 -0.1124 -0.0535
 2563SOL    HW112500   8.978  12.362   9.277  0.7479 -1.7587  0.2971
 2563SOL    HW212501   9.108  12.342   9.353  0.8963  1.2191  0.9323
 2564SOL     OW12502   2.800   3.499   9.834 -0.0608 -0.3791  0.2939
 2564SOL    HW112503   2.733   3.560   9.864 -0.6382  0.1295 -1.8703
 2564SOL    HW212504   2.831   3.535   9.751  0.1227 -2.6155 -0.6856
 2565SOL     OW12505   1.488   4.055  12.414  0.1254 -0.0804 -0.4271
 2565SOL    HW112506   1.416   4.026  12.359  0.4445 -0.7216 -0.5106
 2565SOL    HW212507   1.564   4.058  12.356 -0.1548  2.2509 -0.7641
 2566SOL     OW12508   7.531  10.017   2.176 -0.2998 -0.6161 -0.4163
 2566SOL    HW112509   7.493  10.033   2.262 -2.7309  1.7904 -1.7749
 2566SOL    HW212510   7.474   9.951   2.136 -2.1012  1.6086 -1.7543
 2567SOL     OW12511   1.955  10.402   8.618  0.2759 -0.5028 -0.3896
 2567SOL    HW112512   1.888  10.345   8.656 -0.6101  0.0321 -1.1060
 2567SOL    HW212513   1.989  10.452   8.693 -2.2229  1.3436 -0.3541
 2568SOL     OW12514   7.516   2.487   6.786  0.3638  0.0860  0.1960
 2568SOL    HW112515   7.452   2.483   6.716 -0.3985 -2.4604  0.9411
 2568SOL    HW212516   7.549   2.398   6.794  2.6198  0.9157  1.1332
 2569SOL     OW12517   2.123   8.658  12.214  0.2291  0.0432 -0.1877
 2569SOL    HW112518   2.191   8.707  12.168  0.4639 -0.4738 -0.3971
 2569SOL    HW212519   2.140   8.567  12.192 -0.4482 -0.1035 -0.1215
 2570SOL     OW12520   1.562   7.346  10.376 -0.5161  0.1449 -0.1733
 2570SOL    HW112521   1.477   7.392  10.377  0.5314  2.1914  0.6578
 2570SOL    HW212522   1.611   7.389  10.306  0.2589 -0.2076  0.1475
 2571SOL     OW12523   2.440   9.403   6.245  0.5002 -0.0236  0.2118
 2571SOL    HW112524   2.453   9.345   6.169  1.9430  0.1927  0.2639
 2571SOL    HW212525   2.514   9.464   6.241  1.3714 -0.8356  2.5387
 2572SOL     OW12526   6.818  10.784   4.902 -0.2925 -0.0541  0.1689
 2572SOL    HW112527   6.770  10.799   4.820  0.1696 -0.4131 -0.1727
 2572SOL    HW212528   6.823  10.870   4.943  1.0078  0.4902 -1.0278
 2573SOL     OW12529   5.543   5.288   0.053 -0.5470  0.1025 -0.1316
 2573SOL    HW112530   5.527   5.352   0.122 -2.4516  0.7291 -1.0746
 2573SOL    HW212531   5.538   5.203   0.097  0.6223  0.5334  0.8869
 2574SOL     OW12532  10.646   2.378  12.542  0.1577  1.0048  0.1366
 2574SOL    HW112533  10.650   2.286  12.568 -0.2692  0.7762 -0.5837
 2574SOL    HW212534  10.650   2.426  12.625 -0.4791  0.3142  0.5826
 2575SOL     OW12535   1.111  12.173   4.112  0.0812 -0.4429  0.9182
 2575SOL    HW112536   1.141  12.248   4.163  1.1036 -0.1349 -0.0973
 2575SOL    HW212537   1.071  12.212   4.034  1.6784 -0.9367 -0.1921
 2576SOL     OW12538   1.578   0.354   7.248 -0.5069  0.0592  0.3623
 2576SOL    HW112539   1.617   0.399   7.173 -1.2711  1.7248  0.9097
 2576SOL    HW212540   1.650   0.345   7.311 -0.0592 -0.6154 -0.2273
 2577SOL     OW12541   3.481  11.519   7.859 -0.1105 -0.2076 -0.1816
 2577SOL    HW112542   3.451  11.494   7.947 -0.1384 -0.2790 -0.2116
 2577SOL    HW212543   3.569  11.481   7.852 -0.6104 -1.3027 -0.6710
 2578SOL     OW12544   1.490  11.775   6.657 -0.4718 -0.0810 -0.3524
 2578SOL    HW112545   1.465  11.813   6.741 -0.2640  1.2409 -0.8556
 2578SOL    HW212546   1.479  11.847   6.594  1.5954 -0.3332 -1.0736
 2579SOL     OW12547   6.537   2.288   0.112 -0.5931  0.0545  0.4614
 2579SOL    HW112548   6.514   2.355   0.177  0.0400 -1.0480  1.8825
 2579SOL    HW212549   6.632   2.281   0.119 -0.7092 -1.4189  0.7886
 2580SOL     OW12550   6.177   1.226  12.100  0.0434  0.4199  0.2924
 2580SOL    HW112551   6.262   1.213  12.141  0.3555  2.2357  0.3105
 2580SOL    HW212552   6.136   1.298  12.149  0.1229  2.1592 -1.9968
 2581SOL     OW12553   9.217   2.208  10.580  0.2459  0.7642 -0.2605
 2581SOL    HW112554   9.217   2.282  10.641  2.1122  0.3854  0.2544
 2581SOL    HW212555   9.146   2.152  10.611 -0.3890  1.7281  0.0921
 2582SOL     OW12556   3.677   0.034   1.016  0.1152  0.2677 -0.2787
 2582SOL    HW112557   3.721   0.059   0.935  2.2749 -0.0468  0.7274
 2582SOL    HW212558   3.670  -0.061   1.013  2.7476 -0.0542  1.0279
 2583SOL     OW12559   1.357   0.656   1.038 -0.2692 -0.7005 -0.0998
 2583SOL    HW112560   1.414   0.579   1.032 -0.3361 -0.6836 -1.2162
 2583SOL    HW212561   1.347   0.685   0.947 -1.3082 -0.1470  0.1785
 2584SOL     OW12562  12.261   5.447   7.796 -0.0407  0.3832 -0.3468
 2584SOL    HW112563  12.284   5.494   7.716  1.8262 -0.1355 -0.1505
 2584SOL    HW212564  12.174   5.480   7.818  0.4942  2.5141 -1.1300
 2585SOL     OW12565   0.370   6.627   0.390 -0.2837 -0.3549 -0.5071
 2585SOL    HW112566   0.371   6.700   0.327  0.9655 -0.8971 -1.1549
 2585SOL    HW212567   0.331   6.664   0.469 -0.3157  0.8238 -1.0519
 2586SOL     OW12568   3.048   4.681   9.327  0.1547 -0.1023  0.8282
 2586SOL    HW112569   3.079   4.736   9.399  2.0390 -0.2028  0.1269
 2586SOL    HW212570   3.126   4.659   9.277 -1.1469  0.5843 -1.7168
 2587SOL     OW12571   5.061   2.249   3.700  0.1817 -0.0802  0.1534
 2587SOL    HW112572   5.120   2.324   3.689  1.3815 -1.1301 -0.9181
 2587SOL    HW212573   4.975   2.288   3.711  0.8223  1.4672 -0.0814
 2588SOL     OW12574   8.836   4.072   3.671 -0.2304 -0.3601 -0.3216
 2588SOL    HW112575   8.884   4.033   3.598  0.8919  1.8620 -0.8554
 2588SOL    HW212576   8.863   4.164   3.671 -1.7773  0.1595  1.6337
 2589SOL     OW12577   3.286  12.214  10.547  0.4079 -0.6320 -0.0806
 2589SOL    HW112578   3.341  12.285  10.514 -1.3117  0.0605 -1.6401
 2589SOL    HW212579   3.229  12.256  10.611 -0.9311 -0.4246 -1.3442
 2590SOL     OW12580   5.033  12.169   2.450 -0.1433  0.4330 -0.0441
 2590SOL    HW112581   5.039  12.148   2.357  2.0110 -0.4373  0.2444
 2590SOL    HW212582   4.974  12.103   2.486  1.1082 -0.9047 -0.3610
 2591SOL     OW12583   0.158   6.077   4.000 -0.6470 -0.5467 -0.4634
 2591SOL    HW112584   0.177   6.110   3.912 -1.1359  2.8190  0.5476
 2591SOL    HW212585   0.239   6.034   4.028 -0.1481 -0.7754 -2.1539
 2592SOL     OW12586   3.144   1.520   4.098  0.7087 -0.1773  0.0460
 2592SOL    HW112587   3.196   1.440   4.107  0.6405 -0.0126  2.4334
 2592SOL    HW212588   3.160   1.548   4.008  1.1044 -2.6025 -0.7297
 2593SOL     OW12589   1.894   2.580  10.066 -0.1089  0.1992  0.2532
 2593SOL    HW112590   1.902   2.675  10.071 -0.7810  0.3046 -0.4279
 2593SOL    HW212591   1.922   2.548  10.152  0.1039  1.0081  0.4905
 2594SOL     OW12592   2.783  10.627   1.412  0.4834  0.2635 -0.0928
 2594SOL    HW112593   2.775  10.542   1.369  2.1221 -0.2084  0.4769
 2594SOL    HW212594   2.778  10.690   1.340 -0.4896 -0.3059 -0.5488
 2595SOL     OW12595   8.370   5.192   9.720  0.1141  0.4106 -0.2913
 2595SOL    HW112596   8.322   5.266   9.756  2.3698  2.4776 -1.2821
 2595SOL    HW212597   8.345   5.189   9.627  0.4616  0.2905 -0.3826
 2596SOL     OW12598   2.428   6.847   3.103 -0.0024  0.7924  0.2795
 2596SOL    HW112599   2.417   6.823   3.196 -2.4277  0.1355 -0.1054
 2596SOL    HW212600   2.339   6.867   3.073  0.5864  0.1031 -2.1414
 2597SOL     OW12601   3.189   3.044   7.215  0.0133 -0.2734  0.9227
 2597SOL    HW112602   3.260   2.980   7.212  0.2803  0.0148  1.0198
 2597SOL    HW212603   3.142   3.023   7.296  0.1710 -0.2714  1.0154
 2598SOL     OW12604   6.094  12.191   3.877  0.0567 -0.1812 -0.1271
 2598SOL    HW112605   6.116  12.128   3.809 -1.6774  0.6362 -1.5391
 2598SOL    HW212606   6.080  12.137   3.956  2.6142 -1.0842 -0.2080
 2599SOL     OW12607   8.283   4.317   1.225  0.1715  0.3371  0.0902
 2599SOL    HW112608   8.372   4.307   1.258 -0.4730 -1.2605  1.4320
 2599SOL    HW212609   8.271   4.244   1.164 -0.7137 -0.3596  1.0804
 2600SOL     OW12610   8.154   0.776   4.314  0.4542 -0.0034  0.5700
 2600SOL    HW112611   8.177   0.857   4.269 -0.6321  1.1109  1.9202
 2600SOL    HW212612   8.077   0.744   4.267  1.2753 -0.6421 -0.3786
 2601SOL     OW12613   8.071   8.060   2.032 -0.0272 -0.3255 -0.0613
 2601SOL    HW112614   8.070   8.131   2.097  0.1168 -0.3484 -0.0332
 2601SOL    HW212615   7.982   8.057   1.998 -0.3942 -1.0282  0.9205
 2602SOL     OW12616  11.253   0.935   6.927  0.0750  0.0357 -0.0041
 2602SOL    HW112617  11.224   0.897   7.010  0.8988 -2.1859 -0.6464
 2602SOL    HW212618  11.260   0.860   6.868  2.3956  1.1233 -1.2375
 2603SOL     OW12619   5.305   5.036   4.024 -0.4621 -0.0552  0.4396
 2603SOL    HW112620   5.233   5.098   4.036 -1.1405 -0.9679  1.4317
 2603SOL    HW212621   5.275   4.979   3.953  0.5774  1.2751 -1.1327
 2604SOL     OW12622   7.353  10.830   2.307 -0.3344 -0.0412  0.7865
 2604SOL    HW112623   7.384  10.756   2.256 -2.7438 -0.4491 -0.2133
 2604SOL    HW212624   7.369  10.805   2.398  2.3438 -0.0815  0.3861
 2605SOL     OW12625   5.337   8.926   9.498  0.6406 -0.1145 -0.4452
 2605SOL    HW112626   5.311   9.012   9.466  2.0933  0.6394  0.3096
 2605SOL    HW212627   5.332   8.869   9.421  0.4789  0.8183 -1.1462
 2606SOL     OW12628   9.669   1.846  11.646  0.1072  0.4167  0.1332
 2606SOL    HW112629   9.622   1.771  11.682  0.3328  0.6301  0.8851
 2606SOL    HW212630   9.660   1.836  11.551 -1.4076  0.4304  0.2575
 2607SOL     OW12631   4.210   9.190  10.021  0.2098 -0.7142 -0.2606
 2607SOL    HW112632   4.166   9.133  10.084 -0.7269 -2.1934 -2.1273
 2607SOL    HW212633   4.299   9.199  10.055 -0.7653  0.2182  2.2637
 2608SOL     OW12634  10.498   7.485   3.005 -0.3005  0.1895 -0.5959
 2608SOL    HW112635  10.541   7.399   3.001  0.3526  0.4940 -0.2857
 2608SOL    HW212636  10.420   7.475   2.950  0.0852 -0.4257 -1.0532
 2609SOL     OW12637   7.693  11.257   6.340  0.0261  0.0189  0.0784
 2609SOL    HW112638   7.768  11.242   6.398 -0.8931 -0.5926  1.1612
 2609SOL    HW212639   7.711  11.340   6.296  0.8527  0.3857  1.0918
 2610SOL     OW12640   8.956   9.222   2.564  0.1594  0.1545 -0.2532
 2610SOL    HW112641   9.049   9.208   2.582 -0.3920 -0.7520  2.3752
 2610SOL    HW212642   8.920   9.250   2.648 -1.9095  0.7812 -1.2906
 2611SOL     OW12643   4.631   3.242   4.007 -0.0618 -0.4486 -0.5532
 2611SOL    HW112644   4.632   3.244   4.102  0.5968 -0.1126 -0.5571
 2611SOL    HW212645   4.628   3.334   3.981 -1.4610 -0.5594 -0.8678
 2612SOL     OW12646   4.266   2.804   7.527  0.2630  0.1167 -0.0854
 2612SOL    HW112647   4.296   2.763   7.608  0.9661  1.2158  0.2235
 2612SOL    HW212648   4.330   2.776   7.462 -0.0200 -0.3582 -0.1660
 2613SOL     OW12649   4.983   8.532   4.816  0.1370 -0.8153  0.1349
 2613SOL    HW112650   4.904   8.480   4.833  1.3235 -3.3870 -1.6714
 2613SOL    HW212651   5.037   8.518   4.893 -0.3330 -0.6748  0.4991
 2614SOL     OW12652   2.619   1.732   4.392  0.9765  0.3394 -0.4020
 2614SOL    HW112653   2.628   1.640   4.367  0.0692 -0.7679  2.8918
 2614SOL    HW212654   2.639   1.733   4.486  0.3943  3.4293 -0.2302
 2615SOL     OW12655   9.219   0.223   0.421 -0.0598 -0.4519  0.5143
 2615SOL    HW112656   9.292   0.257   0.370 -0.7057  0.5509  0.2406
 2615SOL    HW212657   9.260   0.186   0.500  0.7008  0.5561  0.6134
 2616SOL     OW12658   7.827  12.011   4.133 -0.2960  0.0489 -0.2885
 2616SOL    HW112659   7.800  12.050   4.049  0.5762 -0.2581 -0.7297
 2616SOL    HW212660   7.824  11.917   4.117  1.2632 -0.0037 -0.4654
 2617SOL     OW12661   7.859   3.236   0.172  0.1763  0.2003  0.1856
 2617SOL    HW112662   7.909   3.312   0.142  0.8402 -0.2938  0.0142
 2617SOL    HW212663   7.922   3.164   0.171 -0.4293 -0.3419  0.4022
 2618SOL     OW12664   0.816  11.189  11.852  0.2649 -0.3688  0.2620
 2618SOL    HW112665   0.765  11.220  11.927  0.6736 -1.0795  0.8454
 2618SOL    HW212666   0.768  11.112  11.820  0.3981 -0.4071  0.1513
 2619SOL     OW12667   9.308   7.575  11.903 -0.2667 -0.2005  0.4700
 2619SOL    HW112668   9.401   7.596  11.897 -0.5378  1.2636  0.9028
 2619SOL    HW212669   9.289   7.575  11.997 -0.7001 -0.4997  0.3887
 2620SOL     OW12670   7.518   8.156   6.646  0.4485  0.2913  0.0244
 2620SOL    HW112671   7.601   8.110   6.634  0.4012  0.0485  0.6378
 2620SOL    HW212672   7.540   8.248   6.630  0.3883  0.0032 -1.9890
 2621SOL     OW12673   2.396  12.179   3.669  0.7072  0.7958  0.0402
 2621SOL    HW112674   2.309  12.194   3.632  0.1981 -1.0549  0.4069
 2621SOL    HW212675   2.404  12.244   3.739 -1.4205 -0.5248  1.6348
 2622SOL     OW12676   9.882   5.213   9.105  0.1586  0.6543 -0.3323
 2622SOL    HW112677   9.847   5.230   9.017 -0.8136  0.9363  0.0968
 2622SOL    HW212678   9.962   5.164   9.089 -1.4903 -1.9656 -1.3097
 2623SOL     OW12679   4.980   2.016   2.825  0.3920 -0.6667  0.2130
 2623SOL    HW112680   5.020   2.088   2.776 -0.0216  0.2458  1.1875
 2623SOL    HW212681   5.055   1.963   2.855  0.8178  0.3365  0.9752
 2624SOL     OW12682   4.166   2.707   3.622  0.2468  0.3247 -0.4929
 2624SOL    HW112683   4.143   2.672   3.708  0.4192  1.5604  0.0682
 2624SOL    HW212684   4.105   2.664   3.562  0.7709 -1.3096  0.0751
 2625SOL     OW12685   7.111   1.085  11.984 -0.8114 -0.6694 -0.2275
 2625SOL    HW112686   7.149   1.130  11.908 -0.6997  0.1731  0.3164
 2625SOL    HW212687   7.164   1.007  11.994 -0.2764 -0.3481 -0.4962
 2626SOL     OW12688   6.330   8.875   9.990 -0.1255 -0.5885 -0.1073
 2626SOL    HW112689   6.331   8.902   9.898 -1.0294 -0.7482 -0.1749
 2626SOL    HW212690   6.339   8.957  10.039 -0.0039 -0.4662 -0.3329
 2627SOL     OW12691   1.133   5.284   8.806  0.0178  0.4530  0.8648
 2627SOL    HW112692   1.210   5.291   8.749 -0.3452 -0.1235  0.2909
 2627SOL    HW212693   1.169   5.260   8.891  0.4444 -0.3534  0.4697
 2628SOL     OW12694  11.118  10.999   9.796  0.0241 -0.1350  0.9216
 2628SOL    HW112695  11.044  11.057   9.811 -0.0149 -0.4913  2.2410
 2628SOL    HW212696  11.194  11.057   9.796 -0.3411  0.5879 -2.8432
 2629SOL     OW12697   7.300   1.821   9.510 -0.0247  0.1488 -0.1670
 2629SOL    HW112698   7.238   1.776   9.567  1.4000 -0.7751  0.7152
 2629SOL    HW212699   7.349   1.880   9.568  1.7161 -1.0924 -0.2749
 2630SOL     OW12700   8.144   9.179   0.497  0.0835 -0.0467  0.5287
 2630SOL    HW112701   8.167   9.152   0.408 -0.4103  0.2653  0.3030
 2630SOL    HW212702   8.190   9.117   0.554  1.3053  0.4167  0.0914
 2631SOL     OW12703   1.410  10.909   3.127  0.3667 -0.2421 -0.0687
 2631SOL    HW112704   1.365  10.832   3.161  0.0032 -0.7431 -1.5985
 2631SOL    HW212705   1.344  10.954   3.074  1.2861 -0.3068 -1.3172
 2632SOL     OW12706   6.846   9.773   8.221 -0.4707 -0.4855  0.1324
 2632SOL    HW112707   6.765   9.773   8.272  0.2674 -0.1162  1.3492
 2632SOL    HW212708   6.871   9.866   8.215  1.0032 -0.7095  1.7277
 2633SOL     OW12709   1.582   9.311   4.134  0.6680  0.3267 -0.2294
 2633SOL    HW112710   1.632   9.258   4.196  1.3233 -0.3327 -1.2849
 2633SOL    HW212711   1.639   9.319   4.058 -0.5062  0.2271 -1.1557
 2634SOL     OW12712   9.160   1.003   0.646  0.8977  0.2170  0.0640
 2634SOL    HW112713   9.089   1.007   0.582  0.1144 -0.2337  0.8899
 2634SOL    HW212714   9.166   1.093   0.680  1.0512  0.3638 -0.3364
 2635SOL     OW12715   7.494   5.587   1.857 -0.3213  0.0405  0.2808
 2635SOL    HW112716   7.445   5.521   1.905  0.8698  0.4970  2.2177
 2635SOL    HW212717   7.428   5.652   1.831 -1.1847 -0.8895  0.0849
 2636SOL     OW12718   5.616   7.062   3.965 -0.6494 -0.1015 -0.0327
 2636SOL    HW112719   5.674   6.986   3.964 -0.5849 -0.0656  0.4380
 2636SOL    HW212720   5.565   7.052   4.046  1.8653  2.1938  2.0386
 2637SOL     OW12721   6.056   4.732   7.729 -0.2298  0.8580  0.0025
 2637SOL    HW112722   6.039   4.666   7.663 -0.8066 -0.2993  1.2635
 2637SOL    HW212723   6.152   4.741   7.731 -0.1998  0.7488 -0.8127
 2638SOL     OW12724   0.442  11.886   2.079 -0.9127  0.2115  0.0404
 2638SOL    HW112725   0.452  11.853   2.168  2.1889  0.8015  0.0185
 2638SOL    HW212726   0.358  11.849   2.049 -1.9681 -0.1544  3.0744
 2639SOL     OW12727   8.286   4.987   2.536  0.2267  0.1669 -0.2539
 2639SOL    HW112728   8.290   5.049   2.608 -0.1337 -0.0120 -0.0764
 2639SOL    HW212729   8.357   4.925   2.554  0.3965  0.3520 -0.2733
 2640SOL     OW12730   1.973   0.030  12.305  0.2286  0.2873  0.7474
 2640SOL    HW112731   1.929   0.086  12.369 -1.5757 -2.2884  1.8930
 2640SOL    HW212732   2.063   0.023  12.338 -0.0359  0.9194  1.6401
 2641SOL     OW12733   7.084   6.332   9.087  0.7674 -0.3176 -0.0223
 2641SOL    HW112734   7.016   6.388   9.125  0.0090 -0.4227 -1.1808
 2641SOL    HW212735   7.166   6.371   9.118  0.2077  0.2108  0.8545
 2642SOL     OW12736   0.544   5.033   8.378  0.0104  0.0726  0.0111
 2642SOL    HW112737   0.610   5.102   8.367  0.8831 -0.9354 -1.5987
 2642SOL    HW212738   0.519   5.009   8.288  1.9207 -3.6742  0.2581
 2643SOL     OW12739   2.409   0.490   1.659 -0.5523  0.5842 -0.1983
 2643SOL    HW112740   2.367   0.573   1.636 -0.1585  0.9640  0.4400
 2643SOL    HW212741   2.342   0.442   1.708 -1.1264  0.0936 -1.4127
 2644SOL     OW12742   4.853   0.296   7.557 -0.1349 -0.0201  0.3995
 2644SOL    HW112743   4.923   0.308   7.492 -1.2494  1.4935 -0.6027
 2644SOL    HW212744   4.803   0.221   7.524  1.7363 -2.0480  1.8807
 2645SOL     OW12745   4.346   5.225   6.350 -0.0315  0.1388  0.0399
 2645SOL    HW112746   4.349   5.153   6.288 -1.7666  1.2252 -1.3840
 2645SOL    HW212747   4.352   5.183   6.436 -2.5154 -1.8829 -0.6504
 2646SOL     OW12748   2.096   3.460   8.730 -0.2085  0.5045  0.3567
 2646SOL    HW112749   2.172   3.402   8.724  0.0914  0.9598 -0.1932
 2646SOL    HW212750   2.126   3.533   8.784  0.0860  1.2155 -0.7437
 2647SOL     OW12751   2.560   9.851   2.966  0.1428  0.4015 -0.2894
 2647SOL    HW112752   2.583   9.789   3.035 -1.2034 -0.0334 -0.2005
 2647SOL    HW212753   2.639   9.860   2.914  0.7739 -0.3029  0.5216
 2648SOL     OW12754  10.333   2.869   2.392 -0.3265 -0.0094  0.1585
 2648SOL    HW112755  10.310   2.925   2.318  0.3515  0.9333  0.6485
 2648SOL    HW212756  10.406   2.816   2.360 -1.6014 -1.3655 -0.6340
 2649SOL     OW12757   0.942   0.448   0.706 -0.4242 -0.8407 -0.3092
 2649SOL    HW112758   0.890   0.370   0.723  0.6616 -1.1177  2.3074
 2649SOL    HW212759   1.026   0.415   0.673  0.1135 -0.8890  0.9986
 2650SOL     OW12760   9.751  11.165   5.004  0.2429 -0.2981  0.3074
 2650SOL    HW112761   9.831  11.130   4.965 -0.3515 -0.0431 -1.1908
 2650SOL    HW212762   9.687  11.164   4.933 -0.4475  1.6371  0.8471
 2651SOL     OW12763  10.837   2.683   1.981 -0.2974 -0.4761  0.0217
 2651SOL    HW112764  10.773   2.748   1.954 -0.2556  0.2552  1.5991
 2651SOL    HW212765  10.887   2.664   1.901 -1.5354 -0.0185 -0.8966
 2652SOL     OW12766   6.444   7.529   5.347  0.2702 -0.4161  0.2589
 2652SOL    HW112767   6.468   7.589   5.417 -1.1701 -1.5435  1.8082
 2652SOL    HW212768   6.348   7.522   5.353  0.2643 -1.7035 -0.8284
 2653SOL     OW12769  10.052   8.505   4.981 -0.1922  0.0344 -0.1728
 2653SOL    HW112770   9.984   8.461   4.931 -0.4018  0.8394 -0.6073
 2653SOL    HW212771  10.057   8.593   4.944  0.6079  0.2068  0.3090
 2654SOL     OW12772   0.578   4.418  12.133  0.5064  0.1598 -0.3341
 2654SOL    HW112773   0.491   4.455  12.150  0.1012 -1.6054  1.9476
 2654SOL    HW212774   0.561   4.341  12.080  0.7256  0.0576 -0.2558
 2655SOL     OW12775   0.118   8.176   4.254 -0.8974 -0.4033  0.4047
 2655SOL    HW112776   0.039   8.228   4.270  0.0862  0.9966  0.9386
 2655SOL    HW212777   0.086   8.087   4.241 -2.4546 -0.1724  2.1968
 2656SOL     OW12778  11.384   9.740   2.998 -0.1050  0.3527  0.6830
 2656SOL    HW112779  11.361   9.827   3.032 -2.6875  0.4744 -1.0677
 2656SOL    HW212780  11.338   9.734   2.914  0.3558 -2.5425  0.5332
 2657SOL     OW12781  10.891   0.026  10.894 -0.2584  0.4878  0.1621
 2657SOL    HW112782  10.855   0.106  10.931 -0.9974  0.4726 -0.5141
 2657SOL    HW212783  10.904  -0.032  10.970  1.3650  1.6268  0.8148
 2658SOL     OW12784   6.075   5.718   3.744 -0.3072  0.5842  0.0376
 2658SOL    HW112785   6.165   5.709   3.714 -0.0719  0.4217  0.7665
 2658SOL    HW212786   6.068   5.808   3.776  0.1905  0.0455  1.8007
 2659SOL     OW12787  10.120   5.259   4.630  0.1094  0.2226 -0.0593
 2659SOL    HW112788  10.078   5.277   4.546  1.0035  0.6374 -0.4366
 2659SOL    HW212789  10.097   5.334   4.684 -0.1858  0.1236 -0.0478
 2660SOL     OW12790   0.264   4.394   2.339 -0.2923  0.4275  0.4391
 2660SOL    HW112791   0.358   4.401   2.356  0.0152 -0.5755 -0.7173
 2660SOL    HW212792   0.236   4.319   2.393  0.0274 -0.6402 -0.8189
 2661SOL     OW12793   9.220   1.767   7.904  0.6856  0.5631  0.1454
 2661SOL    HW112794   9.264   1.683   7.889 -1.0564 -0.3691 -0.0320
 2661SOL    HW212795   9.184   1.760   7.992  1.2055  1.4777  0.4465
 2662SOL     OW12796   5.222  12.517   2.354  0.5482  0.4075 -0.0011
 2662SOL    HW112797   5.156  12.488   2.417 -0.1522  1.4058 -0.2394
 2662SOL    HW212798   5.282  12.572   2.404  0.7101  0.1847  0.0480
 2663SOL     OW12799   7.298  12.117   6.607  0.0107 -0.5708  0.3971
 2663SOL    HW112800   7.339  12.203   6.616  1.3282 -0.9473 -1.3929
 2663SOL    HW212801   7.335  12.081   6.526 -0.1405 -3.0012  1.3074
 2664SOL     OW12802   7.576  12.591   8.213 -0.2369  0.0913  0.4023
 2664SOL    HW112803   7.659  12.637   8.211  0.9644 -1.9529  0.0216
 2664SOL    HW212804   7.558  12.576   8.306 -1.1024  2.0072  0.5885
 2665SOL     OW12805   0.824   1.075   3.276 -0.3905 -0.1128 -0.0460
 2665SOL    HW112806   0.783   1.000   3.320  2.1605 -1.4651  0.1811
 2665SOL    HW212807   0.775   1.151   3.308 -2.5406 -1.5767  0.3383
 2666SOL     OW12808   4.369   1.526  10.832 -0.5961 -0.0969 -0.3398
 2666SOL    HW112809   4.333   1.521  10.921 -0.6441 -1.8248 -0.4120
 2666SOL    HW212810   4.388   1.619  10.819  1.3267 -0.0295  2.2231
 2667SOL     OW12811   1.318   7.324  11.509  0.4240  0.3685 -0.6074
 2667SOL    HW112812   1.309   7.411  11.549  0.0149 -0.0530  0.2437
 2667SOL    HW212813   1.345   7.342  11.419 -0.0845  1.4000 -0.5738
 2668SOL     OW12814   7.071   5.690   1.737 -0.1683 -0.4499 -0.1074
 2668SOL    HW112815   6.990   5.644   1.760 -0.2458  0.4329  1.6117
 2668SOL    HW212816   7.065   5.706   1.643 -2.2697  0.0892  0.0806
 2669SOL     OW12817   1.907   9.576   3.817 -0.3789  0.5425 -0.3289
 2669SOL    HW112818   1.914   9.591   3.723 -1.5232 -0.9125 -0.6731
 2669SOL    HW212819   1.997   9.558   3.845 -0.2608 -0.8227 -1.4910
 2670SOL     OW12820   0.285   9.885   1.864  0.6821 -0.1906 -0.4102
 2670SOL    HW112821   0.245   9.835   1.935  1.7907 -1.8514 -0.8837
 2670SOL    HW212822   0.378   9.889   1.887  0.6682  1.4230 -0.5546
 2671SOL     OW12823  12.021  10.385   2.605  0.0041 -0.0326  0.0963
 2671SOL    HW112824  12.017  10.419   2.516  1.1442  0.4154  0.1988
 2671SOL    HW212825  12.062  10.299   2.596  1.1463  0.4734  0.2838
 2672SOL     OW12826   8.380  10.250   6.668 -0.1603 -0.4299  0.2816
 2672SOL    HW112827   8.305  10.263   6.725  0.5879  1.2786  0.9373
 2672SOL    HW212828   8.444  10.204   6.722  0.5145  1.1099  0.8467
 2673SOL     OW12829  11.285   5.771   4.235 -0.0885 -0.5797  0.1312
 2673SOL    HW112830  11.277   5.684   4.195  2.0010 -1.2095  0.9511
 2673SOL    HW212831  11.251   5.760   4.323  2.2740 -1.2349  1.0217
 2674SOL     OW12832   1.821  10.110   8.227  0.0727 -0.8037 -0.1924
 2674SOL    HW112833   1.788  10.089   8.314  0.9027  1.1907  0.6538
 2674SOL    HW212834   1.886  10.041   8.209 -0.2119 -1.3216  0.6997
 2675SOL     OW12835   3.505   2.324  12.215  0.0489 -0.2872  0.1440
 2675SOL    HW112836   3.482   2.286  12.300  0.1193  2.1816  1.3264
 2675SOL    HW212837   3.421   2.334  12.170  0.0015 -1.4713 -0.0879
 2676SOL     OW12838   5.601   2.094   1.427 -0.0824 -0.2762 -0.0509
 2676SOL    HW112839   5.606   2.098   1.523 -0.4906 -1.3871  0.0254
 2676SOL    HW212840   5.589   2.185   1.400  0.9656  0.1658  0.8916
 2677SOL     OW12841  10.662  10.384   7.547  0.4599  0.0214  0.0427
 2677SOL    HW112842  10.667  10.317   7.478 -0.1947  0.2939 -0.2713
 2677SOL    HW212843  10.588  10.357   7.601  0.9850 -0.2017  0.6599
 2678SOL     OW12844  10.057   4.118   5.725 -0.0539 -0.1321 -0.0688
 2678SOL    HW112845   9.967   4.149   5.724 -0.0737  0.0136  2.2776
 2678SOL    HW212846  10.109   4.192   5.757  0.3884 -1.2459  1.9714
 2679SOL     OW12847   5.305   9.047   2.912 -0.1505 -0.3596  0.1433
 2679SOL    HW112848   5.317   8.956   2.885  0.7453 -0.5595  1.1795
 2679SOL    HW212849   5.343   9.098   2.841  2.2573 -0.8796  0.9515
 2680SOL     OW12850  12.101   2.357   1.647 -0.4295 -0.4021  0.4856
 2680SOL    HW112851  12.030   2.294   1.663 -1.3668  0.9067  1.7143
 2680SOL    HW212852  12.134   2.378   1.734  0.4225  0.2159  0.0283
 2681SOL     OW12853   7.289  11.303   9.720  0.1757 -0.1223 -0.6456
 2681SOL    HW112854   7.300  11.211   9.744  1.0153  0.1270 -0.0347
 2681SOL    HW212855   7.199  11.323   9.747  0.1557 -0.6286 -0.3112
 2682SOL     OW12856   2.510  12.262   0.484 -0.3638  0.1929  0.4212
 2682SOL    HW112857   2.503  12.222   0.571  0.5973 -0.3648  0.2578
 2682SOL    HW212858   2.554  12.195   0.431  1.2821  1.4502  0.1408
 2683SOL     OW12859   0.876  10.537  12.541  0.3154 -0.2126  0.1508
 2683SOL    HW112860   0.873  10.445  12.513  0.1248  0.2351 -1.3585
 2683SOL    HW212861   0.954  10.573  12.498 -0.0464  0.5385  0.1151
 2684SOL     OW12862   8.044   3.379   7.686  0.4334  0.2993  0.6015
 2684SOL    HW112863   8.088   3.460   7.656  0.7404 -0.1427 -0.1916
 2684SOL    HW212864   8.061   3.316   7.615 -1.5011  0.1121  0.2695
 2685SOL     OW12865   3.454   5.651   4.163  0.1619  0.4948 -0.0952
 2685SOL    HW112866   3.502   5.584   4.113  1.0025 -0.0586  1.3728
 2685SOL    HW212867   3.519   5.720   4.178  0.5098 -0.1282  1.6535
 2686SOL     OW12868   0.441   5.342   2.445 -0.3523  0.2504  0.0356
 2686SOL    HW112869   0.436   5.247   2.431 -0.2914  0.3424 -0.6525
 2686SOL    HW212870   0.527   5.355   2.486 -1.0651 -0.1594  1.7257
 2687SOL     OW12871   4.832   1.663   2.142 -0.5801  0.7887  0.6483
 2687SOL    HW112872   4.738   1.658   2.124 -0.3627  0.3638 -0.4385
 2687SOL    HW212873   4.871   1.690   2.059  0.3873 -0.3273  0.7142
 2688SOL     OW12874   4.278   1.254  11.263 -0.3710 -0.4693 -0.5306
 2688SOL    HW112875   4.353   1.214  11.219  1.3763  1.9027  0.0867
 2688SOL    HW212876   4.308   1.342  11.286 -2.9927  0.1823  0.7661
 2689SOL     OW12877   6.373   3.508  11.377 -0.5479  0.2758 -0.1040
 2689SOL    HW112878   6.330   3.591  11.358 -0.5919  0.4138  0.5826
 2689SOL    HW212879   6.439   3.499  11.308  1.0618  2.0266  1.0893
 2690SOL     OW12880  10.733   8.303  10.441  0.3583 -0.7187 -0.5354
 2690SOL    HW112881  10.821   8.265  10.447 -0.0751 -1.5869  1.0598
 2690SOL    HW212882  10.674   8.227  10.451 -0.5490  0.0995  0.5724
 2691SOL     OW12883   3.237   4.773  10.959 -0.4935  0.1443 -0.3463
 2691SOL    HW112884   3.202   4.852  10.916 -1.5110 -0.2029 -0.1715
 2691SOL    HW212885   3.254   4.801  11.049 -1.9001 -0.1022  0.0224
 2692SOL     OW12886   4.895  12.599   7.682 -0.1738  0.2585 -0.0862
 2692SOL    HW112887   4.835  12.622   7.611 -0.6885 -1.6374 -0.3246
 2692SOL    HW212888   4.839  12.558   7.748  0.4652  1.0081  0.9442
 2693SOL     OW12889   4.110   5.510   7.223 -0.0046  0.2013  0.4628
 2693SOL    HW112890   4.063   5.577   7.274 -2.1085 -1.3544  0.6987
 2693SOL    HW212891   4.080   5.522   7.133  0.7162  0.4595  0.2490
 2694SOL     OW12892   8.910   3.632   7.287 -0.1369  0.4925  0.2092
 2694SOL    HW112893   8.826   3.651   7.329 -0.0074  0.1103  0.6463
 2694SOL    HW212894   8.889   3.619   7.195 -0.6135  0.0431  0.3777
 2695SOL     OW12895   8.072   4.094   8.754 -0.1066 -0.1626 -0.0459
 2695SOL    HW112896   8.037   4.023   8.807 -0.7796  0.2372  0.0497
 2695SOL    HW212897   8.012   4.167   8.768 -0.2891 -0.0401 -1.3244
 2696SOL     OW12898   7.261  10.480   4.839  0.0856  0.3509 -0.5256
 2696SOL    HW112899   7.193  10.545   4.824  1.3682  1.5332 -1.5342
 2696SOL    HW212900   7.269  10.434   4.755  0.5901  0.2963 -0.4514
 2697SOL     OW12901  11.536  10.888  11.118 -0.1811  0.4280  0.0623
 2697SOL    HW112902  11.472  10.864  11.185  0.8646 -0.7114  0.6989
 2697SOL    HW212903  11.619  10.850  11.150  0.4633  0.3870 -1.5822
 2698SOL     OW12904   1.602  11.313   3.115 -0.1812  0.1474  0.4131
 2698SOL    HW112905   1.524  11.367   3.103 -0.4512 -0.3201  0.0675
 2698SOL    HW212906   1.672  11.376   3.134 -0.4354  0.6342 -0.2569
 2699SOL     OW12907  12.093  10.713   8.093  0.3757 -0.4195  0.1735
 2699SOL    HW112908  12.042  10.785   8.131 -0.3396 -1.1365  0.5999
 2699SOL    HW212909  12.095  10.646   8.161  3.5677  0.2996  0.9314
 2700SOL     OW12910   8.022   8.066   7.126 -0.3999 -0.3802  0.3351
 2700SOL    HW112911   7.947   8.024   7.168 -0.1006 -0.2102  1.0744
 2700SOL    HW212912   8.028   8.152   7.169 -0.5964  0.1541 -0.6732
 2701SOL     OW12913   4.789  10.782  10.448  0.0316  0.0375  0.1673
 2701SOL    HW112914   4.816  10.693  10.424 -1.6600  0.1586 -2.6493
 2701SOL    HW212915   4.845  10.840  10.396 -1.8558  0.3975 -1.6244
 2702SOL     OW12916   6.482  12.202   9.146  0.1350  0.3908 -0.4251
 2702SOL    HW112917   6.531  12.268   9.194  1.6789 -0.0163 -1.3499
 2702SOL    HW212918   6.391  12.218   9.167  0.7294  0.0778  2.8056
 2703SOL     OW12919   6.604  12.377  10.161 -0.1564  0.0862 -0.4184
 2703SOL    HW112920   6.645  12.309  10.107  0.7686 -0.0170  0.3734
 2703SOL    HW212921   6.516  12.343  10.179  0.3441 -1.0087  0.1025
 2704SOL     OW12922  10.134   0.724   9.451  0.3522 -0.3225 -0.0396
 2704SOL    HW112923  10.206   0.745   9.511 -0.5799  1.3783  0.5658
 2704SOL    HW212924  10.131   0.629   9.448  1.7277 -0.4233  1.0108
 2705SOL     OW12925  12.147   0.580   3.317 -0.2109  0.1989 -0.3219
 2705SOL    HW112926  12.171   0.583   3.224  0.0198  1.5702 -0.2457
 2705SOL    HW212927  12.118   0.490   3.332 -0.8251  0.1109 -1.8666
 2706SOL     OW12928   6.253   9.614   5.107 -0.1513 -0.0190  0.4084
 2706SOL    HW112929   6.165   9.608   5.069  0.0902  1.4782 -0.4184
 2706SOL    HW212930   6.312   9.599   5.034  0.3037  1.2605  0.4990
 2707SOL     OW12931   8.567   3.734   4.146  0.2356  0.4935 -0.8476
 2707SOL    HW112932   8.627   3.678   4.195  0.4221  0.1621 -1.4364
 2707SOL    HW212933   8.530   3.793   4.211 -1.9391 -1.9471  0.2888
 2708SOL     OW12934   4.219   7.125  10.892  0.2438  0.4041  0.0865
 2708SOL    HW112935   4.267   7.131  10.809  1.4216  1.1570  0.7906
 2708SOL    HW212936   4.129   7.107  10.866  0.8184 -0.6628 -1.2978
 2709SOL     OW12937   6.453   1.660   9.253  0.0296 -0.1817  0.4401
 2709SOL    HW112938   6.450   1.696   9.164 -0.1205 -0.5199  0.3058
 2709SOL    HW212939   6.536   1.692   9.289  0.4950 -0.7166 -0.1148
 2710SOL     OW12940   4.726  12.033  10.745 -0.3181  0.2282 -0.2554
 2710SOL    HW112941   4.801  12.029  10.685 -0.5233 -1.4837 -0.4494
 2710SOL    HW212942   4.673  11.957  10.722 -1.4375  0.6676  0.7805
 2711SOL     OW12943  11.742  12.428   4.409  0.1487 -0.8004 -0.0416
 2711SOL    HW112944  11.769  12.464   4.324 -0.0660 -3.5005 -1.3707
 2711SOL    HW212945  11.822  12.424   4.460  0.2976  0.7834 -0.0988
 2712SOL     OW12946   3.883   0.238   8.574  0.1624 -0.1458  0.2161
 2712SOL    HW112947   3.859   0.284   8.655  1.6325 -1.5700  1.5067
 2712SOL    HW212948   3.855   0.148   8.588 -1.0041 -0.1222 -1.5510
 2713SOL     OW12949   8.413   3.941  11.611 -0.1105 -0.4037  0.2982
 2713SOL    HW112950   8.418   3.916  11.703 -1.2890  0.0851  0.5087
 2713SOL    HW212951   8.504   3.940  11.581  0.2195 -1.2904  1.2622
 2714SOL     OW12952  11.794   7.064   6.891 -0.3654 -0.1357 -0.1073
 2714SOL    HW112953  11.736   7.065   6.816  2.3292 -1.7142 -2.4043
 2714SOL    HW212954  11.782   6.978   6.931 -0.5785  0.0708  0.2895
 2715SOL     OW12955   7.797   8.187   1.999  0.2747 -0.1172 -0.0923
 2715SOL    HW112956   7.852   8.217   2.072  1.3036 -0.0330 -0.8889
 2715SOL    HW212957   7.733   8.128   2.040  1.3550 -0.7237  0.7521
 2716SOL     OW12958   0.718   4.517   3.774 -0.5047 -0.2908  0.1799
 2716SOL    HW112959   0.773   4.593   3.791 -0.5827 -0.3847  0.8815
 2716SOL    HW212960   0.658   4.513   3.850 -2.5334  0.7195 -1.2623
 2717SOL     OW12961   0.967  10.599   5.977  0.2623  0.4788  0.5573
 2717SOL    HW112962   1.028  10.534   5.940 -0.0426 -1.5429  3.2685
 2717SOL    HW212963   0.882  10.576   5.938  0.6765  1.4395 -1.0038
 2718SOL     OW12964   9.080   1.194   1.784  0.2406 -0.4258  0.1567
 2718SOL    HW112965   9.079   1.098   1.789  0.7684 -0.5265 -1.1358
 2718SOL    HW212966   8.993   1.220   1.814  0.7545 -1.1613  2.4616
 2719SOL     OW12967   4.642  11.960  10.350  0.2732  0.5508  0.4487
 2719SOL    HW112968   4.631  11.975  10.256 -0.1505 -0.0320  0.3989
 2719SOL    HW212969   4.585  12.025  10.392  0.7694  1.0730  0.3118
 2720SOL     OW12970   1.395  11.006   7.078 -0.4277  0.5487  0.3456
 2720SOL    HW112971   1.444  10.924   7.087 -0.4662  0.4847 -0.0171
 2720SOL    HW212972   1.417  11.055   7.157  1.0852  0.9940 -0.3185
 2721SOL     OW12973   1.281  12.127   5.802 -0.0584  0.2347 -0.0476
 2721SOL    HW112974   1.193  12.161   5.790  1.4911  3.9521 -2.8163
 2721SOL    HW212975   1.293  12.066   5.729  0.1109  0.8003 -0.4923
 2722SOL     OW12976  10.137   5.535   6.325 -0.0872 -0.0475  0.2301
 2722SOL    HW112977  10.122   5.540   6.420 -1.6140  2.0238 -0.0383
 2722SOL    HW212978  10.099   5.617   6.291 -4.6267 -2.9158 -2.7735
 2723SOL     OW12979   6.654   5.185   2.327  0.2389 -0.0566 -0.3258
 2723SOL    HW112980   6.640   5.122   2.398 -2.1113  1.4113  0.6141
 2723SOL    HW212981   6.745   5.212   2.337  0.2584 -0.6642  1.4973
 2724SOL     OW12982   3.254   7.222   1.599  0.1320 -0.8545  0.2509
 2724SOL    HW112983   3.312   7.255   1.530 -1.5765  2.5024  0.2184
 2724SOL    HW212984   3.236   7.132   1.573  1.1858 -0.3698 -2.5612
 2725SOL     OW12985   4.355  10.086   7.458  0.0985 -0.3846 -0.2778
 2725SOL    HW112986   4.368  10.141   7.381 -2.2966 -0.3437 -0.7549
 2725SOL    HW212987   4.322  10.003   7.423 -1.5380 -0.1874  0.6575
 2726SOL     OW12988  10.684   8.046  11.455  0.2096 -0.4970 -0.0060
 2726SOL    HW112989  10.682   7.954  11.482 -0.9899 -0.0172  1.6910
 2726SOL    HW212990  10.734   8.090  11.524 -0.3602  0.3175 -0.1038
 2727SOL     OW12991  10.860   0.340   6.447 -0.5913  0.1333 -0.7509
 2727SOL    HW112992  10.858   0.294   6.531 -3.6934  0.3663 -0.5808
 2727SOL    HW212993  10.945   0.383   6.446  0.8644 -2.4020  0.8125
 2728SOL     OW12994   2.179   1.399   3.282  0.3249 -0.0114 -0.1760
 2728SOL    HW112995   2.105   1.452   3.312  1.5250 -0.3597  4.0796
 2728SOL    HW212996   2.142   1.341   3.216 -2.4600  1.8222 -0.3819
 2729SOL     OW12997   1.534   6.069   5.438 -0.9887  0.3378  0.4974
 2729SOL    HW112998   1.585   6.091   5.516 -2.6384  1.1158  1.4028
 2729SOL    HW212999   1.589   6.006   5.391  1.6726  2.5400  0.4111
 2730SOL     OW13000   6.622   9.666   8.352  0.0891  0.8842 -0.3491
 2730SOL    HW113001   6.623   9.601   8.423 -1.8778  0.1851 -0.9074
 2730SOL    HW213002   6.628   9.750   8.397  2.7385  0.3907  0.3931
 2731SOL     OW13003   4.045   6.850   5.231 -0.0471  0.3431  0.4541
 2731SOL    HW113004   4.103   6.884   5.299 -2.0109  1.9215  1.4312
 2731SOL    HW213005   4.023   6.761   5.261  0.9726  0.1351  0.6206
 2732SOL     OW13006   3.718   3.445  10.535  0.1201  0.3968  0.0606
 2732SOL    HW113007   3.734   3.417  10.445 -1.8217  0.5630 -0.3613
 2732SOL    HW213008   3.663   3.523  10.528  0.2630  0.6591  1.3938
 2733SOL     OW13009   8.189  12.119   3.883  0.6347 -0.0913 -0.6048
 2733SOL    HW113010   8.275  12.158   3.899  0.4160  0.0168  0.3981
 2733SOL    HW213011   8.128  12.176   3.929 -0.1512  0.5965 -2.4149
 2734SOL     OW13012  10.409   4.158   8.683  0.1534  0.6310 -0.1817
 2734SOL    HW113013  10.346   4.202   8.626  0.3976 -0.0474 -0.9940
 2734SOL    HW213014  10.482   4.219   8.689  0.3943  0.4503 -1.1193
 2735SOL     OW13015   9.122   1.026   9.430  0.6196  0.3884  0.5279
 2735SOL    HW113016   9.171   0.962   9.377  0.5888  1.1347 -0.4270
 2735SOL    HW213017   9.067   1.072   9.366  0.2003  0.9601  1.2954
 2736SOL     OW13018  11.845   0.599  10.924 -0.0368 -0.2455 -0.2874
 2736SOL    HW113019  11.827   0.669  10.862  0.8176  1.2978  1.1268
 2736SOL    HW213020  11.856   0.521  10.870  0.5367  0.9960 -2.0453
 2737SOL     OW13021   9.875  10.573   7.951 -0.4376 -0.4240 -0.5616
 2737SOL    HW113022   9.905  10.495   7.997 -0.3246 -1.1066 -1.7448
 2737SOL    HW213023   9.805  10.541   7.894 -1.2270  0.5678 -0.1852
 2738SOL     OW13024   2.414   3.233   7.311  0.1562 -0.2431 -0.5658
 2738SOL    HW113025   2.431   3.303   7.374  0.8004  0.4358 -1.4638
 2738SOL    HW213026   2.344   3.268   7.255 -1.0177 -1.1763  0.2610
 2739SOL     OW13027   9.857  12.411   2.721  0.5073 -0.5494 -0.2164
 2739SOL    HW113028   9.863  12.355   2.799 -0.3935 -1.6611 -0.9061
 2739SOL    HW213029   9.857  12.349   2.648 -0.3242  0.3711 -1.0212
 2740SOL     OW13030   4.956   7.982   2.490 -1.0260  0.6783  0.5006
 2740SOL    HW113031   5.012   7.915   2.452 -0.8680  1.2154 -0.2242
 2740SOL    HW213032   4.886   7.933   2.534 -0.1831  0.0150  1.1360
 2741SOL     OW13033   1.278   6.701   4.167  0.0613  0.4107  0.2108
 2741SOL    HW113034   1.205   6.658   4.123 -2.2422  2.4979  1.6641
 2741SOL    HW213035   1.257   6.696   4.261  2.4304  0.0820  0.8071
 2742SOL     OW13036   7.229  11.708   3.601 -0.6505 -0.2704  0.0416
 2742SOL    HW113037   7.164  11.639   3.616  0.8934 -2.0002 -0.6466
 2742SOL    HW213038   7.204  11.747   3.517  0.5160 -2.7112 -1.5807
 2743SOL     OW13039   3.922   5.365  12.068  0.3936  0.3785 -0.3486
 2743SOL    HW113040   3.906   5.357  12.162  0.2049  2.2865 -0.1746
 2743SOL    HW213041   3.885   5.285  12.031  0.6051 -0.4883  1.1975
 2744SOL     OW13042  10.858   5.201   2.107  0.4013 -0.5032  0.3835
 2744SOL    HW113043  10.940   5.171   2.146 -1.0551 -3.6148  1.3408
 2744SOL    HW213044  10.859   5.165   2.018 -0.4638 -1.7227  0.8459
 2745SOL     OW13045   3.860   5.621   5.425  0.7440 -0.0673 -0.3608
 2745SOL    HW113046   3.866   5.527   5.441  0.7344  0.1964  1.4105
 2745SOL    HW213047   3.782   5.632   5.371 -2.4312 -0.7234  3.6085
 2746SOL     OW13048   8.569   1.449  11.785  0.7301  0.4088 -0.3198
 2746SOL    HW113049   8.576   1.498  11.703  1.1992  1.0960  0.1190
 2746SOL    HW213050   8.658   1.447  11.820  0.7084 -0.7145 -0.2898
 2747SOL     OW13051   7.223  10.414   7.570 -0.3785  0.1481  0.6575
 2747SOL    HW113052   7.200  10.324   7.594 -0.6463  0.3903  1.3433
 2747SOL    HW213053   7.316  10.422   7.591  0.4146 -0.8218 -2.0861
 2748SOL     OW13054  11.350   1.342   1.196 -0.5341 -0.4415  0.3199
 2748SOL    HW113055  11.413   1.346   1.269 -0.6269  0.9567  0.3569
 2748SOL    HW213056  11.265   1.334   1.239 -0.6507  1.0623  0.4331
 2749SOL     OW13057   3.431   0.197  11.955 -0.6868 -0.3120  0.7089
 2749SOL    HW113058   3.469   0.284  11.965 -0.8712 -0.2725  1.0868
 2749SOL    HW213059   3.416   0.188  11.860 -0.2872 -0.1005  0.6238
 2750SOL     OW13060   1.653   3.759   1.785 -0.0471  0.5923  0.3659
 2750SOL    HW113061   1.729   3.711   1.816 -1.3266 -1.1748  0.9058
 2750SOL    HW213062   1.651   3.744   1.691  0.4960  1.0450  0.2694
 2751SOL     OW13063   1.748   7.205  12.331 -0.4095  0.6467 -0.6643
 2751SOL    HW113064   1.691   7.281  12.344 -2.9023 -0.6392 -2.9429
 2751SOL    HW213065   1.795   7.224  12.250  0.6884  0.6790 -0.0392
 2752SOL     OW13066   6.448   6.440   8.063  0.3311  0.2082 -0.2641
 2752SOL    HW113067   6.504   6.471   8.134 -0.1540 -1.3741  0.8694
 2752SOL    HW213068   6.489   6.358   8.035 -1.6249 -1.2417  0.9221
 2753SOL     OW13069  12.339   7.150   3.590  0.6923  0.6322 -0.6174
 2753SOL    HW113070  12.264   7.129   3.534  1.3989 -0.2436 -1.2774
 2753SOL    HW213071  12.302   7.201   3.662 -0.5879 -0.0615 -0.7516
 2754SOL     OW13072  10.321   2.139   9.518  0.1909  0.1846 -0.0794
 2754SOL    HW113073  10.234   2.110   9.546  0.5907 -0.5196  0.4784
 2754SOL    HW213074  10.304   2.207   9.453 -0.9283 -2.8122 -3.2700
 2755SOL     OW13075   9.685   1.480   9.564 -0.5854 -0.5698  0.0346
 2755SOL    HW113076   9.760   1.426   9.542  1.2940  1.8958 -0.0944
 2755SOL    HW213077   9.720   1.544   9.627 -2.8850 -0.0667  0.8997
 2756SOL     OW13078   8.703   9.003   7.271 -0.2088  0.4967  0.3876
 2756SOL    HW113079   8.792   9.007   7.305 -0.2032 -1.5977  0.7092
 2756SOL    HW213080   8.648   8.984   7.347 -0.9021  1.3450  0.1197
 2757SOL     OW13081   9.063  10.793   2.176 -0.7833  0.0214 -0.0198
 2757SOL    HW113082   8.983  10.833   2.209 -0.1231  1.9215 -0.6043
 2757SOL    HW213083   9.126  10.802   2.248  0.1465  2.5986 -1.0299
 2758SOL     OW13084   5.374   3.742   0.554 -0.2416  0.4756  0.0699
 2758SOL    HW113085   5.283   3.715   0.546 -0.7057  1.9830 -0.0776
 2758SOL    HW213086   5.387   3.755   0.648 -0.0328 -0.1677  0.1358
 2759SOL     OW13087   1.995   2.540  11.597 -0.3474 -0.3044  0.2385
 2759SOL    HW113088   2.001   2.482  11.522 -0.5781 -1.5338  1.1372
 2759SOL    HW213089   2.085   2.546  11.630 -0.1116  0.8486 -0.5548
 2760SOL     OW13090   9.553   3.672   2.615 -0.4864  0.0830 -0.2344
 2760SOL    HW113091   9.467   3.713   2.612 -0.6035  0.0112  1.2719
 2760SOL    HW213092   9.583   3.686   2.705  1.1579  0.2668 -0.7742
 2761SOL     OW13093   0.063   6.301   8.277  0.2767  0.0582 -0.2042
 2761SOL    HW113094   0.002   6.318   8.206  0.2590 -0.5359 -0.3418
 2761SOL    HW213095   0.145   6.278   8.233  0.3680  0.0449 -0.0301
 2762SOL     OW13096   5.292   0.511   2.285 -0.2243  0.2100  0.0781
 2762SOL    HW113097   5.199   0.535   2.283 -0.1827  0.3297 -1.0020
 2762SOL    HW213098   5.338   0.592   2.304 -0.2988  0.2987 -0.1159
 2763SOL     OW13099   8.604   3.999   0.967 -0.4868 -0.2308  0.0989
 2763SOL    HW113100   8.595   4.085   1.009 -0.6542  0.3320 -1.0450
 2763SOL    HW213101   8.693   3.970   0.990 -0.0204  0.7553 -0.3994
 2764SOL     OW13102  10.907   3.706   3.870  0.2537 -0.1111  0.0742
 2764SOL    HW113103  10.857   3.699   3.952  0.8401  0.5716  0.5066
 2764SOL    HW213104  10.952   3.622   3.862 -0.9355 -0.7265 -0.3143
 2765SOL     OW13105   5.581   1.257   8.535  0.3709  0.3479  0.4336
 2765SOL    HW113106   5.672   1.227   8.531  0.1730 -0.1816 -0.3664
 2765SOL    HW213107   5.579   1.319   8.608  0.8168 -1.5675  2.1640
 2766SOL     OW13108   0.284   4.868   5.959  0.4471 -0.3934 -0.4395
 2766SOL    HW113109   0.315   4.835   5.875  1.3452 -1.6315  0.3453
 2766SOL    HW213110   0.198   4.827   5.970  1.5221 -2.5093  0.4909
 2767SOL     OW13111  11.488   9.335   2.882  0.3327  0.2399  0.4966
 2767SOL    HW113112  11.478   9.280   2.805 -0.6183 -1.4883  1.8056
 2767SOL    HW213113  11.454   9.283   2.954  1.8564  1.5240  2.2273
 2768SOL     OW13114   7.075   8.009   3.403 -0.8896  0.5952  0.4855
 2768SOL    HW113115   7.117   8.065   3.468 -0.6923  1.5575 -0.4318
 2768SOL    HW213116   7.040   8.071   3.338 -2.7775 -0.2344  0.6576
 2769SOL     OW13117   9.014  10.093   6.974 -0.2799  0.3727 -0.5510
 2769SOL    HW113118   8.982  10.181   6.954 -1.0223  0.4712  0.9415
 2769SOL    HW213119   9.105  10.105   7.000 -0.3555  0.6945 -0.4332
 2770SOL     OW13120   1.558   5.651   4.418 -0.3902  1.0700 -0.4369
 2770SOL    HW113121   1.588   5.727   4.369  0.2790  0.9375 -0.2439
 2770SOL    HW213122   1.481   5.682   4.466  0.6376  2.0080  0.6687
 2771SOL     OW13123   5.963   3.897   9.995 -0.5139 -0.4563  0.3165
 2771SOL    HW113124   5.915   3.916   9.914 -1.2739  0.2799  0.9282
 2771SOL    HW213125   5.994   3.807   9.984 -0.5020 -0.3285 -0.8404
 2772SOL     OW13126  11.824   3.542  11.334 -0.1906  0.2516 -0.1306
 2772SOL    HW113127  11.778   3.487  11.398  1.4595 -0.2465  0.6794
 2772SOL    HW213128  11.916   3.516  11.342  0.4669  2.2906 -0.5799
 2773SOL     OW13129   5.473   2.489   3.617  0.8545 -0.3120  0.0367
 2773SOL    HW113130   5.552   2.440   3.595  0.5702 -0.2730 -1.0992
 2773SOL    HW213131   5.496   2.536   3.698  2.0600 -0.1248 -0.3990
 2774SOL     OW13132   5.304   4.898   5.701 -0.3763 -0.7272  0.2546
 2774SOL    HW113133   5.318   4.810   5.666  1.2929  0.6301 -2.9193
 2774SOL    HW213134   5.209   4.912   5.695 -0.6844 -2.2793  0.9406
 2775SOL     OW13135   0.092   7.959  12.057  0.0184  0.1586 -0.1795
 2775SOL    HW113136   0.013   7.907  12.071 -0.0149  0.2823  0.0946
 2775SOL    HW213137   0.136   7.915  11.984 -0.2843  0.0687 -0.3120
 2776SOL     OW13138   1.875   6.468   6.536 -0.1723  0.5987 -0.5515
 2776SOL    HW113139   1.961   6.510   6.529  1.0815 -1.8157 -0.8854
 2776SOL    HW213140   1.859   6.462   6.630 -0.6718  2.2870 -0.4995
 2777SOL     OW13141  10.950   7.418   3.651  0.2074 -0.3818 -0.0640
 2777SOL    HW113142  11.044   7.413   3.640  0.2466  0.1883 -0.0020
 2777SOL    HW213143  10.918   7.330   3.629  0.4391  0.2140 -3.1448
 2778SOL     OW13144   2.804   3.789   6.139 -0.7810  0.1525  0.1054
 2778SOL    HW113145   2.874   3.839   6.179 -0.4839 -0.1318 -0.0516
 2778SOL    HW213146   2.757   3.750   6.213 -1.0715  0.7293  0.2313
 2779SOL     OW13147   6.852   3.762   1.152  0.5573  0.0235 -0.0149
 2779SOL    HW113148   6.781   3.713   1.111  0.6607  1.1728 -1.6852
 2779SOL    HW213149   6.926   3.701   1.153  0.4097 -0.2048 -1.1530
 2780SOL     OW13150   7.685   8.341   3.663  0.2609 -0.5198  0.6759
 2780SOL    HW113151   7.668   8.417   3.718  2.4073 -0.2326  1.0193
 2780SOL    HW213152   7.719   8.377   3.581  0.6823 -1.0842  0.5971
 2781SOL     OW13153   4.152   2.348   3.439  0.8648 -0.0511 -0.3787
 2781SOL    HW113154   4.088   2.288   3.475 -1.0013  1.8937 -0.2858
 2781SOL    HW213155   4.102   2.427   3.418  2.8620  0.8327 -2.1907
 2782SOL     OW13156   7.489   0.652  10.738 -0.1845 -0.0520 -0.1551
 2782SOL    HW113157   7.557   0.719  10.730  1.5088 -1.5976  0.4824
 2782SOL    HW213158   7.493   0.625  10.830  0.6479 -2.4091 -0.7956
 2783SOL     OW13159   3.907   5.439   6.077 -1.1146 -0.2041 -0.2490
 2783SOL    HW113160   3.829   5.424   6.131 -0.9827  4.1439  1.5479
 2783SOL    HW213161   3.980   5.427   6.137 -0.8763  2.7185  0.1955
 2784SOL     OW13162  11.461  12.331  11.389  0.3692  0.2052 -0.8309
 2784SOL    HW113163  11.528  12.395  11.365  1.3747 -0.5273 -0.0716
 2784SOL    HW213164  11.510  12.255  11.421 -0.8169  0.2741  1.3782
 2785SOL     OW13165   4.586   8.686   1.028  0.4094  0.2854  0.8711
 2785SOL    HW113166   4.673   8.677   0.989 -0.4629  0.5595 -1.2790
 2785SOL    HW213167   4.538   8.610   0.996 -0.0626 -0.0751  2.3600
 2786SOL     OW13168  10.743   9.494   2.711 -0.1689 -0.5007  0.2257
 2786SOL    HW113169  10.663   9.538   2.741 -0.5294 -0.3297 -0.9374
 2786SOL    HW213170  10.812   9.529   2.767 -0.7746 -0.0021  0.6746
 2787SOL     OW13171   5.075   0.897   9.127  0.8594  0.0062 -0.0338
 2787SOL    HW113172   5.127   0.931   9.054 -0.2398  2.7233  0.3145
 2787SOL    HW213173   5.120   0.817   9.155  1.4493 -0.9883 -3.4677
 2788SOL     OW13174   2.137  12.518   0.828 -0.2957  0.3863 -0.6285
 2788SOL    HW113175   2.179  12.594   0.789  0.9446  0.1426  0.1697
 2788SOL    HW213176   2.133  12.453   0.758 -0.4843  0.8512 -1.0487
 2789SOL     OW13177   2.465   8.896  12.217 -0.3594  0.3969 -0.7060
 2789SOL    HW113178   2.438   8.861  12.302 -2.0152  1.3438 -0.7936
 2789SOL    HW213179   2.383   8.902  12.167  0.3958  1.1351 -1.8860
 2790SOL     OW13180  12.273   9.709   0.653 -0.0824  0.2951 -0.0991
 2790SOL    HW113181  12.216   9.635   0.675  0.3794  0.2319  0.9120
 2790SOL    HW213182  12.331   9.718   0.728 -0.3508  1.9096 -0.0487
 2791SOL     OW13183   7.397   5.372   7.291  0.1254  0.2218 -0.1389
 2791SOL    HW113184   7.419   5.428   7.216  1.6129  1.5336  1.1929
 2791SOL    HW213185   7.455   5.296   7.281  0.3696  0.4237 -0.3029
 2792SOL     OW13186  12.115   4.241  12.018  0.2304 -0.1010  0.1450
 2792SOL    HW113187  12.070   4.322  12.043  0.4014  0.2668 -0.7035
 2792SOL    HW213188  12.207   4.259  12.033  0.1720 -0.5984  1.1795
 2793SOL     OW13189   1.530   1.752   4.202 -0.3724  0.1851 -0.0297
 2793SOL    HW113190   1.489   1.837   4.216 -0.2616 -0.0851  2.4145
 2793SOL    HW213191   1.596   1.745   4.271  1.1437 -1.0113 -1.5103
 2794SOL     OW13192   5.983   5.530   8.186 -1.0010 -0.2406  0.4415
 2794SOL    HW113193   5.991   5.621   8.156 -1.3063 -0.3964 -0.1131
 2794SOL    HW213194   6.072   5.496   8.182 -0.4199  0.7604  3.0266
 2795SOL     OW13195   9.287  12.164   5.106 -0.2451  0.4082 -0.1125
 2795SOL    HW113196   9.358  12.227   5.093 -0.6419  1.0732  0.8221
 2795SOL    HW213197   9.323  12.080   5.077  0.5156  0.9453 -0.7614
 2796SOL     OW13198   1.884   1.480   8.824  0.2373  0.4863 -0.0595
 2796SOL    HW113199   1.922   1.428   8.754 -0.1597 -1.0188  0.8045
 2796SOL    HW213200   1.844   1.555   8.779 -1.6552 -1.3804 -1.6901
 2797SOL     OW13201   5.807   9.422   0.232 -0.6616  0.1760  0.4279
 2797SOL    HW113202   5.750   9.487   0.273  0.2490  0.0919  1.9192
 2797SOL    HW213203   5.831   9.363   0.304 -1.2818 -1.6966 -0.8496
 2798SOL     OW13204   5.386   7.348   8.413 -0.1101  0.6111 -0.0605
 2798SOL    HW113205   5.406   7.292   8.488  0.0436  1.0310  0.2150
 2798SOL    HW213206   5.309   7.308   8.373 -0.4580  0.6279  0.5773
 2799SOL     OW13207   3.854   3.454   8.586 -0.1397  0.1170  0.0194
 2799SOL    HW113208   3.848   3.401   8.507 -0.0971  0.4638 -0.2210
 2799SOL    HW213209   3.768   3.448   8.626 -0.4801  0.7494 -0.5902
 2800SOL     OW13210   7.823   8.380  12.355 -0.2476 -0.6896 -0.1383
 2800SOL    HW113211   7.753   8.368  12.290  0.4472  2.5696 -1.7062
 2800SOL    HW213212   7.790   8.449  12.413  0.9951 -0.2523  0.0761
 2801SOL     OW13213   0.184   9.125   4.444  0.1229 -0.1594  0.2289
 2801SOL    HW113214   0.157   9.174   4.366  0.2666 -1.4919 -0.6819
 2801SOL    HW213215   0.230   9.049   4.410  1.3831 -0.0792  1.6631
 2802SOL     OW13216   7.688   4.139   1.014 -0.2635 -0.2138  0.0402
 2802SOL    HW113217   7.760   4.200   1.031  0.8145 -1.1104 -1.0282
 2802SOL    HW213218   7.617   4.168   1.070  0.2936  1.8611 -0.2571
 2803SOL     OW13219   7.969   6.472   5.084 -0.1861  0.0307  0.0164
 2803SOL    HW113220   8.052   6.447   5.125 -0.5524  2.2963  2.3879
 2803SOL    HW213221   7.995   6.530   5.012  0.3324  1.6005  1.4107
 2804SOL     OW13222   1.192   2.308   6.473  0.2103  0.1332  0.0343
 2804SOL    HW113223   1.274   2.277   6.434  0.5269  0.3997  0.4894
 2804SOL    HW213224   1.212   2.320   6.566 -0.6444 -0.8432  0.3555
 2805SOL     OW13225   9.831   4.130   7.320 -0.5909 -0.1026 -0.3944
 2805SOL    HW113226   9.842   4.158   7.229 -0.1774 -0.9286 -0.6112
 2805SOL    HW213227   9.792   4.206   7.364  0.6732  0.8674 -0.8939
 2806SOL     OW13228   3.564   8.258   8.314 -0.5785  0.0049  0.2518
 2806SOL    HW113229   3.585   8.258   8.408 -0.5699 -1.2095  0.2651
 2806SOL    HW213230   3.596   8.174   8.283 -0.4658  0.4493 -0.8839
 2807SOL     OW13231   8.172  10.999   5.228  0.1659 -0.4830  0.2707
 2807SOL    HW113232   8.228  10.932   5.189  0.9026 -0.2548  0.9191
 2807SOL    HW213233   8.092  10.953   5.253 -0.5027 -0.5758 -1.8428
 2808SOL     OW13234   3.336   8.049   1.682  0.2178 -0.3370  0.2437
 2808SOL    HW113235   3.251   8.013   1.655  0.0988 -0.8552  1.2456
 2808SOL    HW213236   3.399   8.005   1.625  0.0323 -1.8492  1.1566
 2809SOL     OW13237  10.412   3.503  10.474 -0.2463  0.2316 -0.9056
 2809SOL    HW113238  10.325   3.470  10.451 -0.6203  0.3656  0.2707
 2809SOL    HW213239  10.473   3.438  10.439 -0.7766  0.4579 -2.2964
 2810SOL     OW13240   2.791   3.144   5.816  0.1169 -0.4078 -0.0444
 2810SOL    HW113241   2.838   3.193   5.883 -0.3944 -0.0471  0.0548
 2810SOL    HW213242   2.747   3.210   5.763  2.2739 -0.5242 -2.1324
 2811SOL     OW13243   4.885   3.344   3.616 -0.1372 -0.0465 -0.1617
 2811SOL    HW113244   4.839   3.261   3.627 -0.8788  0.2606 -0.8401
 2811SOL    HW213245   4.817   3.406   3.591  0.7150  0.2972 -1.7429
 2812SOL     OW13246   9.775   5.911  10.261  0.3496  0.1687 -0.1378
 2812SOL    HW113247   9.844   5.950  10.316 -0.5025  1.1997  0.2224
 2812SOL    HW213248   9.697   5.913  10.316 -0.8370  2.3418 -1.7295
 2813SOL     OW13249   0.623  10.545   6.391  0.0756  0.1312  0.0701
 2813SOL    HW113250   0.612  10.467   6.336  0.7088 -0.5078  0.8321
 2813SOL    HW213251   0.556  10.537   6.458 -0.2395  0.5564 -0.1851
 2814SOL     OW13252   6.686   0.530   2.095  0.2713 -0.4387 -0.0940
 2814SOL    HW113253   6.727   0.455   2.139 -0.0126 -0.4996  0.0675
 2814SOL    HW213254   6.643   0.492   2.019 -0.8867 -0.6270  0.6272
 2815SOL     OW13255   3.718   2.359   5.176 -0.4703  0.1007  0.3585
 2815SOL    HW113256   3.686   2.428   5.118  0.6222  1.2723  1.0754
 2815SOL    HW213257   3.684   2.383   5.262  0.7608  0.3412  0.7973
 2816SOL     OW13258   6.880   7.465  11.610  0.7079  0.5939 -0.6116
 2816SOL    HW113259   6.794   7.424  11.609  0.1812  1.6836 -0.8470
 2816SOL    HW213260   6.932   7.412  11.550  0.2006 -0.0495 -0.4949
 2817SOL     OW13261   0.616   9.917  11.688 -0.2511  0.7981  0.3340
 2817SOL    HW113262   0.653   9.931  11.776  3.3778 -0.5330 -0.7737
 2817SOL    HW213263   0.586   9.826  11.690 -2.9358  1.6038  0.9370
 2818SOL     OW13264  12.365   8.207   3.982 -0.4542  0.2289 -0.5194
 2818SOL    HW113265  12.289   8.265   3.975  0.1735  1.3541  1.3844
 2818SOL    HW213266  12.391   8.191   3.891 -1.3636  1.9923 -1.1391
 2819SOL     OW13267   1.355   9.615   8.434 -0.3901  0.0022  0.8041
 2819SOL    HW113268   1.425   9.552   8.449 -0.4545  0.5635  4.5565
 2819SOL    HW213269   1.397   9.686   8.386  0.6244 -1.2602 -0.2367
 2820SOL     OW13270   7.262   9.841  12.280  0.4949  0.2332  0.3345
 2820SOL    HW113271   7.311   9.915  12.314  1.6940  0.4494 -1.6915
 2820SOL    HW213272   7.210   9.878  12.208 -0.4114 -0.5420  0.5667
 2821SOL     OW13273   1.943  12.066   8.788  0.6242 -0.0016  0.0263
 2821SOL    HW113274   1.871  12.087   8.847 -1.1014  0.0654 -1.9678
 2821SOL    HW213275   2.022  12.096   8.834 -0.8504  2.3874  1.2062
 2822SOL     OW13276   0.108   9.982   9.317  0.6575  0.4811  0.6963
 2822SOL    HW113277   0.133   9.893   9.290 -1.3872  0.2985 -0.9116
 2822SOL    HW213278   0.020   9.971   9.353  0.5353  1.8171  0.8269
 2823SOL     OW13279   1.180   3.145  12.355 -0.1099 -0.0722  0.3795
 2823SOL    HW113280   1.103   3.179  12.399 -1.4782 -0.9660 -1.2279
 2823SOL    HW213281   1.182   3.190  12.271  1.1741  0.0024  0.4295
 2824SOL     OW13282   7.134   0.843   3.179  0.3762  0.4644 -0.2046
 2824SOL    HW113283   7.059   0.786   3.193 -0.8177  1.9961 -0.1532
 2824SOL    HW213284   7.135   0.860   3.084 -0.6657  2.1200  0.0369
 2825SOL     OW13285   0.195   1.746   8.330 -0.0039 -0.0504 -0.2681
 2825SOL    HW113286   0.244   1.665   8.341 -1.0993 -0.5528  1.3092
 2825SOL    HW213287   0.192   1.785   8.417  2.1562  2.7604 -1.2762
 2826SOL     OW13288   1.887  10.466   8.345 -0.4115  0.2000 -0.2219
 2826SOL    HW113289   1.920  10.444   8.433 -1.1759  0.2740  0.0854
 2826SOL    HW213290   1.818  10.402   8.329  0.3981 -0.4625 -1.1971
 2827SOL     OW13291  12.172   9.374   7.207  0.3642  0.1381 -0.2669
 2827SOL    HW113292  12.209   9.372   7.119 -1.5041 -0.0896 -1.0892
 2827SOL    HW213293  12.186   9.464   7.237  1.2212  0.1540 -0.6756
 2828SOL     OW13294   7.969   6.887   1.407 -0.0815 -0.1479  0.2526
 2828SOL    HW113295   7.938   6.954   1.346  0.3251  1.9982  2.2665
 2828SOL    HW213296   7.891   6.861   1.456  0.0836  0.3124  0.7745
 2829SOL     OW13297   1.683   5.964   0.413  0.0490 -0.3790  0.2547
 2829SOL    HW113298   1.693   6.036   0.475  1.9006  0.8041 -1.2882
 2829SOL    HW213299   1.772   5.946   0.383 -0.6438 -1.7650 -1.1081
 2830SOL     OW13300   9.054   4.025   6.521 -0.2526 -0.6177  0.6435
 2830SOL    HW113301   9.017   4.111   6.539  1.6567  0.5789 -0.6432
 2830SOL    HW213302   9.093   4.034   6.433 -1.0079 -3.1722 -0.0414
 2831SOL     OW13303   5.400  10.768  10.756 -0.4819 -0.5287  0.2221
 2831SOL    HW113304   5.426  10.731  10.840  0.9649 -1.8277 -0.7356
 2831SOL    HW213305   5.339  10.839  10.778  1.2610  0.4033  2.4492
 2832SOL     OW13306   0.957  12.342   7.729  0.6135 -0.3657 -0.0173
 2832SOL    HW113307   1.040  12.294   7.737  0.0176 -1.3817  0.1673
 2832SOL    HW213308   0.891  12.274   7.717 -0.1711  0.4502 -0.4091
 2833SOL     OW13309   7.650   5.493   5.366 -0.1215 -0.3479  0.0131
 2833SOL    HW113310   7.697   5.464   5.444  1.9158 -1.0335 -1.3795
 2833SOL    HW213311   7.717   5.500   5.298 -1.5048  1.9783 -1.2575
 2834SOL     OW13312   5.535  10.119   4.778 -0.2585  0.0501  0.1982
 2834SOL    HW113313   5.450  10.081   4.801 -1.7264  3.1362  0.3805
 2834SOL    HW213314   5.546  10.192   4.839  2.6695 -0.3515  0.2829
 2835SOL     OW13315   7.966  11.845   2.175  0.3442  0.2055 -0.1815
 2835SOL    HW113316   8.025  11.912   2.209 -1.3553  1.7643 -0.1021
 2835SOL    HW213317   7.939  11.796   2.252  0.3971  0.4549 -0.0007
 2836SOL     OW13318  11.934   2.712   2.872  0.0981  0.4393 -0.6662
 2836SOL    HW113319  11.949   2.643   2.808 -1.6103 -0.4292 -0.1993
 2836SOL    HW213320  11.979   2.682   2.951  0.6050  0.5844 -0.8985
 2837SOL     OW13321   0.877   5.451  11.514 -0.1500  0.1650  0.8184
 2837SOL    HW113322   0.786   5.427  11.495 -0.2212  0.9143  0.1462
 2837SOL    HW213323   0.870   5.534  11.562  0.1864  0.3579  0.5378
 2838SOL     OW13324   3.720   7.619   5.030  0.3917  0.0950 -0.0275
 2838SOL    HW113325   3.719   7.694   5.088  1.2773 -0.7113  1.0725
 2838SOL    HW213326   3.635   7.577   5.042  0.8866 -0.5597  1.3931
 2839SOL     OW13327   7.413   0.958   2.259  0.8805  0.0642  0.1562
 2839SOL    HW113328   7.399   1.043   2.302  2.7438  0.2597  0.4821
 2839SOL    HW213329   7.396   0.894   2.328 -0.7115  0.1284 -0.1378
 2840SOL     OW13330   3.585   9.591   1.843 -0.2354 -0.3855 -0.1152
 2840SOL    HW113331   3.502   9.629   1.814 -0.0930 -0.9370 -1.3047
 2840SOL    HW213332   3.560   9.526   1.908 -0.5472  1.0282  1.2427
 2841SOL     OW13333  11.719   2.926   4.610  0.3056 -0.5990  0.0460
 2841SOL    HW113334  11.729   2.981   4.688 -0.0926  0.4046 -0.5862
 2841SOL    HW213335  11.705   2.838   4.644 -3.2612  0.2784  1.2593
 2842SOL     OW13336   4.493   5.724   2.495  0.2832  0.2554 -0.2652
 2842SOL    HW113337   4.399   5.735   2.512  0.6744  0.4173  2.1873
 2842SOL    HW213338   4.497   5.660   2.424 -1.6781 -0.0294 -0.1817
 2843SOL     OW13339   8.892  10.612  10.039 -0.1366  0.0497  0.0726
 2843SOL    HW113340   8.979  10.623  10.077 -1.1669 -0.1824  2.7537
 2843SOL    HW213341   8.901  10.536   9.981  0.9837 -1.5722  2.1722
 2844SOL     OW13342   6.736   3.863   6.474  0.0412 -0.3442 -0.3511
 2844SOL    HW113343   6.806   3.878   6.411 -1.3207 -0.3339 -1.9507
 2844SOL    HW213344   6.656   3.872   6.423 -1.1223 -0.9831  1.2640
 2845SOL     OW13345   4.997   1.952   7.145  0.1872 -0.1586  0.2793
 2845SOL    HW113346   4.908   1.915   7.138  1.4074 -3.4095  0.1177
 2845SOL    HW213347   5.055   1.877   7.129  3.0065  1.1849  3.2029
 2846SOL     OW13348   0.709  10.732   0.864 -0.1419  0.4851  0.0623
 2846SOL    HW113349   0.770  10.697   0.799  1.1395  1.4701  0.6860
 2846SOL    HW213350   0.653  10.792   0.815  0.5262  0.8833 -0.2301
 2847SOL     OW13351   8.480   8.295  12.282 -0.7358 -0.0781 -0.0525
 2847SOL    HW113352   8.530   8.278  12.362 -0.1858  1.1877 -0.1012
 2847SOL    HW213353   8.526   8.244  12.215 -0.8125 -0.6276  0.2979
 2848SOL     OW13354   3.825   3.794   2.516 -0.3149  0.0500  0.7089
 2848SOL    HW113355   3.882   3.868   2.499  1.0220 -1.2540 -0.8634
 2848SOL    HW213356   3.881   3.717   2.506 -1.7086 -1.2082  1.9942
 2849SOL     OW13357   2.073  10.973   7.874 -0.7369  0.5044 -0.2134
 2849SOL    HW113358   2.030  11.058   7.878 -1.8082 -0.0113 -0.3824
 2849SOL    HW213359   2.048  10.930   7.956 -0.3773  0.2601 -0.2277
 2850SOL     OW13360   8.929   4.037   4.470  0.3123 -0.3038 -0.1891
 2850SOL    HW113361   9.003   4.096   4.481  1.8988 -0.8504 -5.2405
 2850SOL    HW213362   8.968   3.949   4.472 -0.7582 -0.7867  0.2013
 2851SOL     OW13363   3.701  11.116   0.061 -0.4652 -0.0348  0.0273
 2851SOL    HW113364   3.649  11.188   0.025 -0.1918 -1.1514 -2.8389
 2851SOL    HW213365   3.772  11.103  -0.003  0.8495 -1.3479  1.6563
 2852SOL     OW13366   2.259   7.418  12.457  0.1050  0.1810  0.7896
 2852SOL    HW113367   2.200   7.393  12.385  0.2898  1.7304  0.0427
 2852SOL    HW213368   2.268   7.339  12.510 -0.4708 -0.8548 -0.5984
 2853SOL     OW13369   6.144  11.614   6.327  0.6440  0.2336 -0.1014
 2853SOL    HW113370   6.138  11.700   6.285  0.6937  0.2161 -0.1446
 2853SOL    HW213371   6.202  11.627   6.402  0.7683  0.2047 -0.1920
 2854SOL     OW13372  11.002  12.257  12.221 -0.4418  0.2310  0.0660
 2854SOL    HW113373  11.049  12.270  12.138  0.0789  1.9266  0.5838
 2854SOL    HW213374  10.923  12.310  12.212  0.0136  1.0647  0.9568
 2855SOL     OW13375   1.028   4.004  10.423 -0.2111 -0.4115 -0.2928
 2855SOL    HW113376   0.952   3.957  10.388  0.3622 -1.3199 -0.3228
 2855SOL    HW213377   1.063   3.947  10.491  2.1305 -1.3618 -2.1686
 2856SOL     OW13378   9.174   7.359   1.790  0.5547 -0.7468 -0.4282
 2856SOL    HW113379   9.098   7.366   1.732 -0.0013  0.5988  0.4275
 2856SOL    HW213380   9.227   7.436   1.771  0.1260 -0.0122  1.1370
 2857SOL     OW13381  12.309   7.151  12.506 -0.5525  0.3635 -0.5322
 2857SOL    HW113382  12.268   7.177  12.588  0.0868  1.4546 -0.5401
 2857SOL    HW213383  12.241   7.162  12.440 -0.4123  1.7118 -0.4754
 2858SOL     OW13384   8.764   5.233  10.423  0.0412  0.4097  0.7195
 2858SOL    HW113385   8.712   5.222  10.503 -0.7870  1.6018  0.3782
 2858SOL    HW213386   8.824   5.304  10.443  0.0315  0.5148  0.3787
 2859SOL     OW13387   6.804  12.409  12.040  0.0808 -0.3292 -0.4903
 2859SOL    HW113388   6.713  12.382  12.045  0.0666 -0.1001  0.7368
 2859SOL    HW213389   6.855  12.330  12.060  0.0910 -0.0537  0.6648
 2860SOL     OW13390   8.396   9.942   9.329  0.0086  0.1867 -0.0155
 2860SOL    HW113391   8.360   9.994   9.257  0.9192  0.8126 -0.0230
 2860SOL    HW213392   8.491   9.951   9.321  0.1263  0.6016  1.5178
 2861SOL     OW13393   5.476   6.685   8.133  0.2856  0.2076  0.2662
 2861SOL    HW113394   5.528   6.752   8.175  1.7755 -1.6961  1.6366
 2861SOL    HW213395   5.400   6.674   8.190  0.6298 -0.0748  0.6708
 2862SOL     OW13396  12.415   0.084   4.884 -0.6699  0.0133  0.1815
 2862SOL    HW113397  12.449  -0.003   4.905 -1.9635 -0.2688  1.2286
 2862SOL    HW213398  12.489   0.143   4.898 -0.1671 -0.7579  0.8450
 2863SOL     OW13399   3.810   8.530  11.227  0.1180 -0.1535  0.3875
 2863SOL    HW113400   3.872   8.501  11.293  0.7841 -0.5761 -0.4090
 2863SOL    HW213401   3.843   8.495  11.144 -1.1620 -0.3685 -0.0643
 2864SOL     OW13402   8.887   3.061   1.461  0.0783 -0.7096  0.3556
 2864SOL    HW113403   8.921   3.143   1.425  0.5324 -1.6921 -1.5577
 2864SOL    HW213404   8.946   3.041   1.533  0.1130  0.5033  0.6920
 2865SOL     OW13405   9.775  10.048   9.552  0.2999  0.2723  0.4088
 2865SOL    HW113406   9.697  10.062   9.606 -1.4650 -1.5208 -1.5212
 2865SOL    HW213407   9.768  10.115   9.484  0.3263 -0.0610  0.0824
 2866SOL     OW13408   0.886   2.843  11.606 -0.0218  0.0328  0.8295
 2866SOL    HW113409   0.930   2.878  11.683  1.3119 -1.5112  0.8273
 2866SOL    HW213410   0.874   2.750  11.626  1.6591 -0.7437 -1.3293
 2867SOL     OW13411  12.241   6.123   0.556  0.3620 -0.8095 -0.6660
 2867SOL    HW113412  12.207   6.085   0.474  2.0002  0.2843 -1.9233
 2867SOL    HW213413  12.291   6.052   0.596  0.5851 -0.9905 -1.2530
 2868SOL     OW13414  10.855   5.216   9.550 -0.3718 -0.1485 -0.1492
 2868SOL    HW113415  10.848   5.269   9.629  0.5916  0.1508 -0.2435
 2868SOL    HW213416  10.777   5.236   9.499  0.1143  1.4264 -0.3193
 2869SOL     OW13417   5.211   6.955   6.238  0.1919 -0.3207  0.4401
 2869SOL    HW113418   5.201   7.032   6.182  0.4650 -0.6715 -0.0942
 2869SOL    HW213419   5.122   6.935   6.267  0.1841  0.5424  1.0619
 2870SOL     OW13420  11.049   6.874  11.054 -0.2447 -0.5017 -0.0349
 2870SOL    HW113421  11.080   6.819  11.126  2.6846  0.9277 -0.0684
 2870SOL    HW213422  11.049   6.816  10.978 -1.3581 -1.4870  0.6791
 2871SOL     OW13423  12.024   5.709  11.848  0.3927 -0.3864 -0.4020
 2871SOL    HW113424  11.975   5.784  11.815 -0.4761 -1.7036 -2.3363
 2871SOL    HW213425  11.961   5.637  11.847  1.0403 -1.0673  1.9383
 2872SOL     OW13426   6.298  10.906   4.447  0.0464  0.1858 -0.0176
 2872SOL    HW113427   6.355  10.832   4.423 -0.8682 -0.5387  0.0040
 2872SOL    HW213428   6.215  10.887   4.404  0.0374  1.6289 -0.6791
 2873SOL     OW13429  10.016   4.567   1.904  0.3130 -0.0587 -0.2088
 2873SOL    HW113430  10.000   4.492   1.847 -1.3029  1.1555 -1.4502
 2873SOL    HW213431  10.047   4.529   1.986  0.1777 -2.0252 -1.0264
 2874SOL     OW13432   2.807   1.311  10.146 -0.3344 -0.0578  0.2836
 2874SOL    HW113433   2.764   1.396  10.149  1.7947  1.0907  0.3374
 2874SOL    HW213434   2.814   1.284  10.238  1.1800  0.9426  0.5012
 2875SOL     OW13435   1.979   6.777   7.349 -0.6613  0.2141  0.0979
 2875SOL    HW113436   1.989   6.789   7.255  1.0115 -1.1054  0.0512
 2875SOL    HW213437   1.998   6.862   7.387  1.1863  0.1891 -0.6599
 2876SOL     OW13438   1.936   3.358   9.922 -0.0973  0.7737 -0.3071
 2876SOL    HW113439   1.902   3.446   9.906  0.9074  1.1460 -0.4503
 2876SOL    HW213440   2.023   3.358   9.882  0.3680  0.0713  0.6524
 2877SOL     OW13441   7.552  12.448   1.174 -0.2529 -0.2507  0.1727
 2877SOL    HW113442   7.498  12.397   1.114  0.2126 -0.0274 -0.4433
 2877SOL    HW213443   7.563  12.391   1.251  0.3218 -1.1027 -0.5277
 2878SOL     OW13444   0.034   2.992   5.675 -0.0095 -0.6269  0.0337
 2878SOL    HW113445   0.116   3.042   5.675  0.8582 -1.9548  1.3709
 2878SOL    HW213446   0.054   2.916   5.620 -0.3314 -0.9634  0.3806
 2879SOL     OW13447  10.086  10.156   3.426  0.1068 -0.3278 -0.1382
 2879SOL    HW113448  10.071  10.205   3.345 -0.8919 -1.0030 -0.3825
 2879SOL    HW213449  10.176  10.175   3.450 -0.1862  1.4622 -0.3343
 2880SOL     OW13450   6.451   1.836  10.695 -0.1403  0.0045  0.3597
 2880SOL    HW113451   6.432   1.877  10.779  3.1688 -1.5996  2.0997
 2880SOL    HW213452   6.459   1.742  10.715  0.4229 -0.4714 -1.8109
 2881SOL     OW13453   7.074   4.073   5.261 -0.0805  0.4258  0.2706
 2881SOL    HW113454   7.162   4.045   5.286  0.3860  1.2877 -0.3699
 2881SOL    HW213455   7.086   4.120   5.178 -1.6772 -3.1541 -2.2636
 2882SOL     OW13456   9.596   5.562   9.242 -0.3924 -0.2363  0.2576
 2882SOL    HW113457   9.543   5.486   9.266 -1.0795  0.4078  0.8471
 2882SOL    HW213458   9.533   5.626   9.210 -0.0847  0.7892  1.5940
 2883SOL     OW13459   0.218   0.603  10.622 -0.1558 -0.2373 -0.1294
 2883SOL    HW113460   0.249   0.566  10.540 -2.1492 -1.8456 -0.2363
 2883SOL    HW213461   0.157   0.672  10.596  1.1220  1.0246  0.0683
 2884SOL     OW13462   5.484  11.114   5.548 -0.5986  0.1304  0.0545
 2884SOL    HW113463   5.415  11.075   5.494 -0.4461  1.1963 -0.9455
 2884SOL    HW213464   5.480  11.066   5.631  0.0022 -2.4476 -1.3052
 2885SOL     OW13465   0.640   3.967   2.313 -0.2674 -0.1331  0.1684
 2885SOL    HW113466   0.724   3.942   2.273  0.0410 -0.2874  0.8984
 2885SOL    HW213467   0.608   3.886   2.353  0.2048  0.3630  1.6076
 2886SOL     OW13468  11.630   1.520   0.195  0.1128  0.5832  0.1637
 2886SOL    HW113469  11.666   1.546   0.111  0.7554 -1.6676 -0.3194
 2886SOL    HW213470  11.706   1.512   0.253  0.2381 -2.0544 -0.2639
 2887SOL     OW13471   9.953   3.930  10.897 -0.0150  0.2646 -0.0837
 2887SOL    HW113472   9.890   3.866  10.863 -0.4323  0.8683 -0.4540
 2887SOL    HW213473  10.035   3.908  10.851 -0.0273 -0.3186  0.1651
 2888SOL     OW13474  10.097   9.069   4.718 -0.1906  0.0256  0.0674
 2888SOL    HW113475  10.034   9.121   4.769  0.7543 -0.0867  1.3946
 2888SOL    HW213476  10.143   9.133   4.664 -0.4228  0.3007  0.1938
 2889SOL     OW13477   5.490  10.591   5.182  0.2494  0.0499  0.2279
 2889SOL    HW113478   5.418  10.529   5.194  2.0559 -2.4300 -1.0036
 2889SOL    HW213479   5.549  10.576   5.256  0.7010  0.3195 -0.0707
 2890SOL     OW13480   6.718  11.493  11.545  0.2167 -0.0975  0.5815
 2890SOL    HW113481   6.717  11.466  11.453  0.5755  0.3112  0.4556
 2890SOL    HW213482   6.670  11.576  11.547  2.4525  1.2929  0.2999
 2891SOL     OW13483  11.888  12.571   1.075  0.1075  0.2757  0.1985
 2891SOL    HW113484  11.864  12.479   1.062 -0.8747  0.7558 -1.7126
 2891SOL    HW213485  11.983  12.573   1.065 -0.0364 -0.2857 -1.6722
 2892SOL     OW13486   9.146   0.098  10.976  0.1054  0.1755 -0.1505
 2892SOL    HW113487   9.218   0.131  10.923  0.1447  0.8612  0.3200
 2892SOL    HW213488   9.077   0.164  10.967 -0.4260 -0.4066 -0.4884
 2893SOL     OW13489  10.876   6.437   5.888  0.2879 -0.1794 -0.5382
 2893SOL    HW113490  10.970   6.451   5.878  0.0979  1.4397 -0.3125
 2893SOL    HW213491  10.851   6.385   5.811  1.3049 -0.3820 -0.7447
 2894SOL     OW13492   8.293  12.330   1.424  0.0582  0.3945 -0.2071
 2894SOL    HW113493   8.263  12.293   1.507 -0.8707 -0.3234 -0.8492
 2894SOL    HW213494   8.226  12.394   1.401  0.2695  0.5279 -0.4472
 2895SOL     OW13495   9.897  11.483   0.302  0.3714  0.0365 -0.5638
 2895SOL    HW113496   9.953  11.430   0.359 -0.0539  0.1020 -0.0761
 2895SOL    HW213497   9.912  11.447   0.214 -2.4220 -3.3049  0.0825
 2896SOL     OW13498  10.968  10.601  11.493 -0.3329 -0.0032  0.2907
 2896SOL    HW113499  10.950  10.673  11.432 -0.8370 -0.2061  0.1901
 2896SOL    HW213500  11.022  10.540  11.442 -0.8569 -0.2318 -0.0026
 2897SOL     OW13501   3.168  10.229   0.148 -0.3630  0.1310 -0.4309
 2897SOL    HW113502   3.202  10.159   0.093 -0.2323 -0.2003  0.0599
 2897SOL    HW213503   3.231  10.300   0.140 -0.6710  0.3273 -1.1989
 2898SOL     OW13504   9.831  10.186   6.921  0.4799 -0.6431 -0.4826
 2898SOL    HW113505   9.920  10.152   6.917  0.5052 -0.6527  0.0816
 2898SOL    HW213506   9.836  10.259   6.982  0.1234 -0.5749 -0.5340
 2899SOL     OW13507   4.815   8.705   5.023 -0.2716 -0.1936  0.4781
 2899SOL    HW113508   4.741   8.686   4.965 -0.9939  0.3430  1.1933
 2899SOL    HW213509   4.839   8.620   5.060 -0.6525 -0.3499  0.3787
 2900SOL     OW13510  10.104  10.766   7.207 -0.0021  0.3650 -0.5046
 2900SOL    HW113511  10.012  10.758   7.182 -0.2104  1.8838 -0.2983
 2900SOL    HW213512  10.150  10.706   7.148 -1.0650 -0.0787 -0.9090
 2901SOL     OW13513   6.627  11.258   2.354 -0.3368  0.3498  0.2607
 2901SOL    HW113514   6.595  11.168   2.362  2.4494 -1.0650 -2.3616
 2901SOL    HW213515   6.720  11.251   2.376 -0.3548  2.9876  1.5581
 2902SOL     OW13516   0.325   1.560   3.253 -0.4609 -0.7201  0.1753
 2902SOL    HW113517   0.340   1.624   3.183 -1.2645 -2.1473 -1.3636
 2902SOL    HW213518   0.283   1.611   3.323 -0.6203  0.5440 -0.7988
 2903SOL     OW13519  12.566   8.032   6.886  0.2601  0.0005 -0.4313
 2903SOL    HW113520  12.617   8.050   6.965  0.4276 -1.7042 -0.1305
 2903SOL    HW213521  12.480   8.006   6.919 -0.0940  0.5836 -0.8708
 2904SOL     OW13522   3.576   5.350   7.529 -0.2112 -0.7745  0.2215
 2904SOL    HW113523   3.591   5.353   7.624  1.7710 -1.7316 -0.0132
 2904SOL    HW213524   3.497   5.297   7.519 -0.6161 -0.4247  1.3330
 2905SOL     OW13525   0.299  11.376   9.333  0.3266  0.0175  0.7026
 2905SOL    HW113526   0.333  11.306   9.277  1.2470  0.5589  0.5634
 2905SOL    HW213527   0.205  11.376   9.317  0.4871 -0.2891 -0.3199
 2906SOL     OW13528  12.400   9.031   6.096 -0.5003 -0.1902  0.1301
 2906SOL    HW113529  12.323   9.051   6.042  0.1289  0.0994 -0.6877
 2906SOL    HW213530  12.384   8.943   6.129 -0.7019 -0.5469 -0.8931
 2907SOL     OW13531  12.552   2.714  10.115  0.2389 -0.1083  0.0956
 2907SOL    HW113532  12.500   2.787  10.080  1.0329 -0.3359 -1.6864
 2907SOL    HW213533  12.641   2.749  10.120  0.7927 -1.1535 -1.6040
 2908SOL     OW13534   7.422  12.310   7.592  0.0311 -0.6177  0.2761
 2908SOL    HW113535   7.449  12.229   7.549 -1.7412 -0.2089 -1.8014
 2908SOL    HW213536   7.457  12.380   7.536  0.9401  0.0580  1.6471
 2909SOL     OW13537   1.208   5.186   5.268 -0.1634  0.0992  0.3226
 2909SOL    HW113538   1.253   5.234   5.197 -1.2113  0.2400 -0.2660
 2909SOL    HW213539   1.157   5.254   5.313 -2.5284 -0.5444 -1.1869
 2910SOL     OW13540  10.050   7.758   5.375  0.2378 -0.2254 -0.3360
 2910SOL    HW113541  10.139   7.723   5.379  0.6382  0.5600 -2.0322
 2910SOL    HW213542  10.047   7.811   5.296 -1.6707 -0.0081 -0.1740
 2911SOL     OW13543   8.676   4.336   9.746  0.1731  0.5453  0.3571
 2911SOL    HW113544   8.691   4.289   9.664 -1.2867  1.0725 -0.2536
 2911SOL    HW213545   8.638   4.420   9.719 -1.4166  0.2730  1.5960
 2912SOL     OW13546   9.084  11.548   8.221  0.0868  0.4232  0.3713
 2912SOL    HW113547   9.171  11.567   8.255 -0.4994  2.4348  0.9007
 2912SOL    HW213548   9.064  11.622   8.163 -0.7899 -0.6129 -0.6991
 2913SOL     OW13549   8.292   1.175   6.878 -0.0047 -0.5055 -0.1973
 2913SOL    HW113550   8.339   1.258   6.875 -0.5049 -0.2403 -0.8092
 2913SOL    HW213551   8.358   1.108   6.858  0.8227 -0.4522  2.0773
 2914SOL     OW13552   8.532   1.909   5.961  0.3092  0.0195 -0.2752
 2914SOL    HW113553   8.624   1.936   5.959  0.0599  0.8789 -1.1248
 2914SOL    HW213554   8.494   1.948   5.882 -0.8655 -0.0507  0.2307
 2915SOL     OW13555   6.851   5.307   1.694 -0.3824  0.5049  1.1870
 2915SOL    HW113556   6.896   5.280   1.775  0.5411  1.3653  0.9733
 2915SOL    HW213557   6.853   5.402   1.696  0.5479  0.5320 -0.3517
 2916SOL     OW13558   1.378   4.029  11.244  0.9186  0.7708 -0.3569
 2916SOL    HW113559   1.375   3.936  11.270  0.1975  0.8968  0.0496
 2916SOL    HW213560   1.417   4.028  11.157  2.6031  0.2452  0.3476
 2917SOL     OW13561   8.666   6.351  11.004  0.5893 -0.8868  0.2210
 2917SOL    HW113562   8.654   6.322  10.914  0.5267 -0.1061 -0.0291
 2917SOL    HW213563   8.581   6.338  11.046  0.1415  0.3184 -0.2946
 2918SOL     OW13564   4.916   5.829   0.404 -0.1013 -0.3595 -0.3633
 2918SOL    HW113565   4.920   5.744   0.360  0.3543 -1.5150  1.7842
 2918SOL    HW213566   4.831   5.830   0.447 -0.6937  0.9112 -1.4564
 2919SOL     OW13567   1.098   2.042   2.608 -0.1242  0.4436 -0.2273
 2919SOL    HW113568   1.005   2.059   2.627 -0.4120 -0.6478 -0.6174
 2919SOL    HW213569   1.111   1.950   2.633  0.4651  0.1314 -1.6335
 2920SOL     OW13570   8.708   6.971   6.555  0.7318 -0.1151 -0.4973
 2920SOL    HW113571   8.643   6.993   6.488  1.3592 -1.3474 -1.5374
 2920SOL    HW213572   8.792   6.996   6.517  0.9775  0.6536  0.4911
 2921SOL     OW13573  12.038   6.309   6.141 -0.0106  0.4301  0.1052
 2921SOL    HW113574  11.964   6.308   6.081  0.2496  2.1220 -0.3093
 2921SOL    HW213575  12.029   6.391   6.189  0.4764 -0.3143  1.5200
 2922SOL     OW13576   6.108   1.090  10.685 -0.1398 -0.8329  0.1195
 2922SOL    HW113577   6.037   1.041  10.643 -1.1700 -0.1652  1.0083
 2922SOL    HW213578   6.128   1.160  10.624  1.5372 -2.4630 -1.2884
 2923SOL     OW13579   7.939   9.666   5.398 -0.1519 -0.0077  0.5796
 2923SOL    HW113580   7.847   9.693   5.391 -0.3214 -0.9130 -2.0347
 2923SOL    HW213581   7.935   9.574   5.425 -0.0446 -0.0762  0.3714
 2924SOL     OW13582   1.949   7.893   9.446  0.1722 -0.4895  0.8724
 2924SOL    HW113583   1.913   7.805   9.430 -1.1865 -0.5208  3.5093
 2924SOL    HW213584   1.886   7.952   9.407  1.0986 -0.6394 -0.9272
 2925SOL     OW13585   8.108   6.283   5.266  0.2756 -0.6044 -0.7658
 2925SOL    HW113586   8.183   6.230   5.241  0.2126 -1.6412  1.0820
 2925SOL    HW213587   8.146   6.362   5.304  0.5007 -1.3548  0.6513
 2926SOL     OW13588   0.622  12.001   3.216  0.2472 -0.1496  0.0394
 2926SOL    HW113589   0.584  11.979   3.131  1.4069 -1.4766 -0.1736
 2926SOL    HW213590   0.600  12.093   3.229  0.9076  0.3645 -2.1680
 2927SOL     OW13591   7.299   1.049   6.475 -0.6655 -0.0112 -0.1926
 2927SOL    HW113592   7.322   1.120   6.535  0.2898  0.8199 -1.5110
 2927SOL    HW213593   7.204   1.051   6.471 -0.6921  0.5725  0.5154
 2928SOL     OW13594  11.603   8.669   0.636  0.3308  0.3124  0.5774
 2928SOL    HW113595  11.650   8.666   0.720 -0.4821 -1.6154  1.0350
 2928SOL    HW213596  11.533   8.604   0.646  1.5157 -1.6107 -2.3410
 2929SOL     OW13597   6.032   0.079   6.871  0.4751 -0.0361  0.3664
 2929SOL    HW113598   6.124   0.105   6.860 -0.1208  1.2099 -2.1675
 2929SOL    HW213599   5.982   0.158   6.854 -1.1179 -0.1050  3.8369
 2930SOL     OW13600   8.674   6.137   0.464 -0.0914 -0.1739  0.6106
 2930SOL    HW113601   8.602   6.196   0.488 -0.0216  0.4823 -0.7315
 2930SOL    HW213602   8.633   6.070   0.409  0.4932  0.8262 -1.0823
 2931SOL     OW13603   9.318   5.764   5.602  0.6685 -0.7175 -0.1390
 2931SOL    HW113604   9.401   5.717   5.617  2.7741  2.8168  0.4155
 2931SOL    HW213605   9.324   5.794   5.512 -0.8422 -1.7528 -0.6191
 2932SOL     OW13606   5.878   4.314   4.683 -0.6073 -0.2520 -0.6978
 2932SOL    HW113607   5.963   4.346   4.651  0.1041 -1.7346 -0.3872
 2932SOL    HW213608   5.897   4.280   4.770 -2.2663  2.6207  0.9645
 2933SOL     OW13609   3.997   6.823   9.292  0.1399 -0.1238 -0.2504
 2933SOL    HW113610   3.935   6.794   9.358  0.9922 -0.8106  0.2786
 2933SOL    HW213611   3.988   6.760   9.221  0.9072 -0.8064  0.2438
 2934SOL     OW13612   6.330   2.253   0.578 -0.2823 -0.2770 -0.1667
 2934SOL    HW113613   6.236   2.236   0.585 -0.3515  0.6174  1.4667
 2934SOL    HW213614   6.337   2.348   0.577  0.6255 -0.3310  0.1797
 2935SOL     OW13615   5.557   0.511   9.543 -0.3061 -0.0244  0.1627
 2935SOL    HW113616   5.495   0.438   9.536 -0.4226  0.1692 -1.1492
 2935SOL    HW213617   5.617   0.499   9.469 -0.4511  1.3084 -0.2067
 2936SOL     OW13618   2.840   5.392   9.980  0.3427  0.3087 -0.0115
 2936SOL    HW113619   2.783   5.415   9.907  0.3564  0.3552 -0.0082
 2936SOL    HW213620   2.927   5.383   9.941  0.4459  0.8509  0.0789
 2937SOL     OW13621  11.604   1.838   7.483  0.3083 -0.2691  0.1174
 2937SOL    HW113622  11.659   1.862   7.558  1.5811 -0.4521 -0.7250
 2937SOL    HW213623  11.560   1.919   7.459  1.8416  0.4350 -0.4909
 2938SOL     OW13624   6.748   4.343  10.287  0.1520 -0.3730  0.6375
 2938SOL    HW113625   6.659   4.316  10.263  0.0960 -1.0014  1.4841
 2938SOL    HW213626   6.737   4.431  10.324 -0.1857 -0.5994  1.0976
 2939SOL     OW13627   9.545   1.847  10.559  0.5015 -0.3289  0.3942
 2939SOL    HW113628   9.555   1.800  10.476 -0.3510  0.5921 -0.2513
 2939SOL    HW213629   9.462   1.815  10.595  0.1243  0.3518  0.1513
 2940SOL     OW13630  11.411   1.389   0.258  0.4167  0.1600 -0.1386
 2940SOL    HW113631  11.342   1.424   0.201 -0.6236 -2.3652 -0.5506
 2940SOL    HW213632  11.485   1.448   0.245 -0.4939  0.9035 -2.4332
 2941SOL     OW13633  11.285  12.425   3.751  0.6728 -0.3962  0.2738
 2941SOL    HW113634  11.258  12.387   3.835 -1.6546  0.6151  0.0718
 2941SOL    HW213635  11.347  12.494   3.775 -1.7895  1.5387  1.4945
 2942SOL     OW13636  10.511   8.485  10.246  0.7096 -0.1844  0.3411
 2942SOL    HW113637  10.509   8.579  10.227  1.0608 -0.5546 -1.7386
 2942SOL    HW213638  10.422   8.455  10.227  0.7366 -0.3702  0.5033
 2943SOL     OW13639  11.588  12.487   2.984 -0.0142  0.3414 -0.2314
 2943SOL    HW113640  11.668  12.435   2.973 -0.2152  0.0987 -0.5587
 2943SOL    HW213641  11.547  12.487   2.898 -1.6365 -1.6430  0.4440
 2944SOL     OW13642   7.262   3.927   8.359  0.3644  0.3795  0.5779
 2944SOL    HW113643   7.353   3.897   8.369 -0.1258 -1.2246  0.5288
 2944SOL    HW213644   7.239   3.902   8.269  0.1523  1.6142  0.2759
 2945SOL     OW13645   8.609   4.711   6.277 -0.0530  0.2421  0.2523
 2945SOL    HW113646   8.578   4.681   6.192  0.4205 -1.6850  0.6992
 2945SOL    HW213647   8.599   4.635   6.334  1.1485  0.9856  1.5209
 2946SOL     OW13648   4.218   3.832   4.654 -0.2068 -0.1950 -0.2999
 2946SOL    HW113649   4.279   3.775   4.608 -0.5879 -1.1906  0.3863
 2946SOL    HW213650   4.162   3.772   4.704 -0.5325  0.7901  0.5582
 2947SOL     OW13651   8.942  11.756   4.581 -0.1860 -0.1643  0.2719
 2947SOL    HW113652   8.893  11.704   4.518 -1.6128  1.8150 -0.3435
 2947SOL    HW213653   8.886  11.759   4.659  0.1163  0.0510  0.4865
 2948SOL     OW13654   7.755   7.320   2.571 -0.3618 -0.0175  0.3377
 2948SOL    HW113655   7.808   7.384   2.618 -0.3164  0.0116  0.2455
 2948SOL    HW213656   7.816   7.278   2.510 -1.1001  2.2732 -2.1316
 2949SOL     OW13657  11.201  11.275   0.907  0.4822 -0.0637 -0.0375
 2949SOL    HW113658  11.231  11.198   0.955 -0.6347  0.2245  1.1676
 2949SOL    HW213659  11.126  11.244   0.856 -0.2721  0.3067  0.8187
 2950SOL     OW13660   4.281   7.133  10.586 -0.1637 -0.0556 -0.3602
 2950SOL    HW113661   4.194   7.144  10.548 -0.0213 -0.5610 -0.8366
 2950SOL    HW213662   4.318   7.057  10.541 -0.0770 -0.8055  0.9405
 2951SOL     OW13663   3.846   8.324   9.830  0.1114 -0.5935  0.2118
 2951SOL    HW113664   3.912   8.353   9.893 -1.7211  1.3728  1.3627
 2951SOL    HW213665   3.832   8.399   9.773  0.2466 -1.6584 -1.3014
 2952SOL     OW13666   5.806   2.001   6.886 -0.0866 -0.2827 -0.6930
 2952SOL    HW113667   5.892   1.962   6.904 -0.0657  1.1332  3.3133
 2952SOL    HW213668   5.745   1.928   6.893  0.5364 -0.7612 -0.0595
 2953SOL     OW13669   5.390   6.096  10.164 -0.2966 -0.3070 -0.1605
 2953SOL    HW113670   5.468   6.087  10.109  0.8418  1.0830  1.1115
 2953SOL    HW213671   5.354   6.182  10.142 -0.0259  0.1195  0.9448
 2954SOL     OW13672   0.665  11.350   0.408  0.1577  0.1229 -0.2181
 2954SOL    HW113673   0.729  11.331   0.477  0.6537 -0.1931 -0.7622
 2954SOL    HW213674   0.618  11.268   0.395 -0.0687  0.2371 -0.1143
 2955SOL     OW13675   6.055   7.178   3.309  0.2845  0.3522  0.2173
 2955SOL    HW113676   6.035   7.233   3.233 -2.5681  0.9375  1.2685
 2955SOL    HW213677   6.071   7.091   3.271 -1.6199  0.5041 -1.0889
 2956SOL     OW13678   2.981   7.611   6.646  0.2854 -0.0387 -0.4916
 2956SOL    HW113679   2.921   7.582   6.715 -0.4365  0.0648 -1.0633
 2956SOL    HW213680   2.976   7.542   6.579 -0.8444  0.9877 -1.5048
 2957SOL     OW13681  12.462   9.411   0.167 -0.6845  0.3685 -0.1140
 2957SOL    HW113682  12.432   9.476   0.103  0.4418  1.9090  0.8631
 2957SOL    HW213683  12.557   9.423   0.171 -0.0076 -3.0885 -1.7292
 2958SOL     OW13684   0.881  11.520   8.521 -0.1173 -0.2588 -0.2902
 2958SOL    HW113685   0.800  11.547   8.478 -0.5091  0.1992  0.7155
 2958SOL    HW213686   0.912  11.446   8.469 -0.1848  0.7205 -1.7837
 2959SOL     OW13687   1.963   1.433   8.324  0.4033  0.0130 -0.0461
 2959SOL    HW113688   1.981   1.366   8.259  0.3857  0.7245 -0.8009
 2959SOL    HW213689   2.023   1.413   8.396  0.9780 -0.3267 -0.6065
 2960SOL     OW13690  10.812   4.656   6.538 -0.1752 -0.3496  0.2930
 2960SOL    HW113691  10.836   4.618   6.622 -1.6466 -0.4289  0.7056
 2960SOL    HW213692  10.845   4.746   6.542  0.6643 -0.6626  0.5287
 2961SOL     OW13693  12.250   2.066   2.458 -0.2846 -0.5713 -0.2325
 2961SOL    HW113694  12.309   2.044   2.386 -1.4625 -0.1347 -1.3612
 2961SOL    HW213695  12.252   1.988   2.514 -1.1684 -1.9141 -1.9755
 2962SOL     OW13696   8.132   2.440   6.016  0.1959  0.0909 -0.4909
 2962SOL    HW113697   8.059   2.463   5.958 -0.6871  0.1696  0.6062
 2962SOL    HW213698   8.159   2.353   5.987 -0.8459 -0.2690 -0.4501
 2963SOL     OW13699   8.168   5.339   5.992 -0.0721 -0.3803 -0.1547
 2963SOL    HW113700   8.126   5.413   5.949  0.6826  0.5020  0.5668
 2963SOL    HW213701   8.255   5.371   6.016  0.3072 -1.5332  0.1032
 2964SOL     OW13702   4.767  11.734  10.451  0.1161  0.1463 -0.1829
 2964SOL    HW113703   4.753  11.679  10.375 -1.9492 -0.8508  0.8376
 2964SOL    HW213704   4.718  11.814  10.433  0.1308  0.1587 -0.1678
 2965SOL     OW13705   4.103  12.448  11.726  0.5575  0.3871  0.3189
 2965SOL    HW113706   4.161  12.440  11.802  3.0600 -0.2409 -1.5071
 2965SOL    HW213707   4.037  12.380  11.740  3.5446 -2.9169 -0.0517
 2966SOL     OW13708   7.361   1.283  12.368  0.1240  0.5413 -0.1464
 2966SOL    HW113709   7.425   1.212  12.362 -0.9630 -0.4632 -0.2508
 2966SOL    HW213710   7.351   1.298  12.462 -0.9401 -0.6910 -0.0383
 2967SOL     OW13711   9.140   4.832   6.872 -0.5093  0.5298  0.2606
 2967SOL    HW113712   9.046   4.847   6.870 -0.4829  0.6360 -0.6590
 2967SOL    HW213713   9.160   4.815   6.964 -1.6327 -0.8104  0.2887
 2968SOL     OW13714  11.479   3.991   5.171  0.0052  0.3133 -0.5018
 2968SOL    HW113715  11.496   3.897   5.163 -0.6058  0.1722 -0.1308
 2968SOL    HW213716  11.409   3.998   5.236  2.3427  1.2133  2.1217
 2969SOL     OW13717  10.688   1.014   0.434 -0.1370  0.0941  0.1760
 2969SOL    HW113718  10.680   1.000   0.528  2.9129  0.1513  0.5526
 2969SOL    HW213719  10.746   1.090   0.426 -0.8559  0.5007 -1.7588
 2970SOL     OW13720   0.164   4.986   6.222 -0.0761 -0.3081  0.2715
 2970SOL    HW113721   0.149   4.963   6.314 -0.0147  0.7362  0.5574
 2970SOL    HW213722   0.087   5.036   6.197  1.6246  2.9471  1.0170
 2971SOL     OW13723   8.870   1.579  11.414  0.6444  0.5096 -0.0334
 2971SOL    HW113724   8.924   1.600  11.338  0.4496  0.1502 -0.2696
 2971SOL    HW213725   8.867   1.660  11.464  0.6540  0.7854 -0.4797
 2972SOL     OW13726   2.561   6.067   2.072 -0.3731  0.1124 -0.7497
 2972SOL    HW113727   2.497   6.137   2.083  1.8968  2.2495 -0.1469
 2972SOL    HW213728   2.614   6.095   1.998  1.1298 -0.4783  0.0531
 2973SOL     OW13729   8.089   5.897   1.276 -0.1774  0.1775  0.2647
 2973SOL    HW113730   8.130   5.951   1.343  0.4104 -1.8442  1.6289
 2973SOL    HW213731   8.008   5.866   1.317  0.3091 -1.2828  0.1998
 2974SOL     OW13732   4.436  11.102  11.302  0.1550  0.7796  0.6319
 2974SOL    HW113733   4.414  11.009  11.303 -1.1061  0.9453 -2.2733
 2974SOL    HW213734   4.359  11.145  11.265  1.6951  2.6324 -0.6274
 2975SOL     OW13735  10.098   9.642  12.446  0.3367  0.2502 -0.6043
 2975SOL    HW113736  10.009   9.676  12.447 -0.6278 -2.0737 -1.0644
 2975SOL    HW213737  10.128   9.656  12.357  0.4970  1.1333 -0.4208
 2976SOL     OW13738  10.966   8.457  10.011  0.4471 -0.1397  0.2609
 2976SOL    HW113739  10.935   8.548  10.008 -0.3325 -0.3963  0.5292
 2976SOL    HW213740  10.914   8.416  10.080 -0.6637 -1.3302 -1.2223
 2977SOL     OW13741  12.186   6.934   7.017  0.1365  0.1280 -0.5636
 2977SOL    HW113742  12.250   6.993   7.057 -1.3636  0.6317  1.2719
 2977SOL    HW213743  12.144   6.987   6.949 -0.6271  0.9529  0.5152
 2978SOL     OW13744   3.295   7.392   7.742  0.0225  0.1690  0.0038
 2978SOL    HW113745   3.349   7.432   7.810 -0.6781  1.7521 -0.3440
 2978SOL    HW213746   3.206   7.395   7.777 -0.5584  2.2452 -1.4766
 2979SOL     OW13747   1.309   7.055   9.411 -0.1729 -0.9283 -0.1880
 2979SOL    HW113748   1.360   6.988   9.366 -0.0073  0.8230 -2.8382
 2979SOL    HW213749   1.370   7.096   9.472 -0.1458 -2.7580  1.0860
 2980SOL     OW13750   7.328  12.270   4.248 -0.0535  0.3422 -0.0665
 2980SOL    HW113751   7.298  12.220   4.323 -1.1719  0.7572 -0.2157
 2980SOL    HW213752   7.250  12.313   4.215  0.2993 -0.2637 -1.8098
 2981SOL     OW13753   9.483   9.383   6.247 -0.0928  0.6653 -0.0901
 2981SOL    HW113754   9.413   9.431   6.290  0.6160  1.1565  0.5297
 2981SOL    HW213755   9.443   9.299   6.223 -0.6175  0.5357  1.1595
 2982SOL     OW13756   3.684   1.593   3.366 -0.1350 -0.5180 -0.3947
 2982SOL    HW113757   3.698   1.666   3.305 -2.0431  2.9542  2.8820
 2982SOL    HW213758   3.592   1.568   3.353  0.1073 -1.4062 -0.4848
 2983SOL     OW13759   9.006   2.245   1.374 -0.2663 -0.0435  0.2680
 2983SOL    HW113760   8.921   2.286   1.358 -0.4482 -1.0404 -1.7260
 2983SOL    HW213761   8.989   2.181   1.443 -1.6212 -1.4279 -1.2605
 2984SOL     OW13762   7.651   0.477   1.193 -0.1389 -0.2705 -0.5369
 2984SOL    HW113763   7.579   0.536   1.171 -0.0170  0.2535  0.4176
 2984SOL    HW213764   7.646   0.467   1.288  0.2262 -1.3155 -0.6171
 2985SOL     OW13765   7.219   6.739   9.808 -0.0476 -0.4820  0.1474
 2985SOL    HW113766   7.282   6.759   9.877  0.2887  0.2369 -0.3504
 2985SOL    HW213767   7.190   6.650   9.826  0.3291 -0.4388  0.9855
 2986SOL     OW13768   5.681   6.529   9.333  0.0445 -0.2965  0.6695
 2986SOL    HW113769   5.685   6.571   9.419  3.9553  0.9549  0.0557
 2986SOL    HW213770   5.609   6.574   9.288  0.2830  1.6469  2.0809
 2987SOL     OW13771   7.673   2.799   5.296 -0.1169 -0.5341  0.3101
 2987SOL    HW113772   7.657   2.860   5.225  0.0091 -0.7222  0.1199
 2987SOL    HW213773   7.630   2.839   5.372 -0.0463 -0.2170  0.1853
 2988SOL     OW13774   8.948  12.474   7.146  0.2777 -0.0203 -0.8301
 2988SOL    HW113775   8.974  12.415   7.217  1.3637 -0.6674 -1.7261
 2988SOL    HW213776   9.000  12.553   7.160  1.1783 -0.4925 -1.3899
 2989SOL     OW13777   7.444  11.088   0.088 -0.3162 -0.4686 -0.4628
 2989SOL    HW113778   7.466  11.026   0.158  0.6423  0.2196 -0.1479
 2989SOL    HW213779   7.525  11.098   0.038 -0.7082 -0.1407 -1.0441
 2990SOL     OW13780   8.368   2.224   2.792  0.1321  0.0513 -0.0452
 2990SOL    HW113781   8.400   2.312   2.773 -0.0863  0.2621  0.5557
 2990SOL    HW213782   8.446   2.175   2.820  0.1017  0.2936  0.4662
 2991SOL     OW13783   2.921   9.227  12.450 -0.2936 -0.4934 -0.5847
 2991SOL    HW113784   2.956   9.250  12.536  0.6311 -0.5775 -0.9192
 2991SOL    HW213785   2.842   9.176  12.468  0.1123 -0.8506  0.2125
 2992SOL     OW13786  11.979  10.955   3.962 -0.3276  0.0466 -0.7850
 2992SOL    HW113787  11.977  10.862   3.937 -2.1921 -0.5366  1.2310
 2992SOL    HW213788  11.897  10.968   4.009  0.0166  2.6979 -0.8129
 2993SOL     OW13789  11.611   1.313   5.770  0.3576  0.2696 -0.1999
 2993SOL    HW113790  11.517   1.301   5.786  0.1385  2.9169  0.9436
 2993SOL    HW213791  11.635   1.388   5.823  3.0632 -0.0531 -0.8365
 2994SOL     OW13792   8.562   5.912   0.302  0.0940 -0.7605 -0.4699
 2994SOL    HW113793   8.469   5.910   0.280  0.5545 -0.0369 -2.6768
 2994SOL    HW213794   8.605   5.948   0.225  1.9048  1.9803  1.6080
 2995SOL     OW13795   1.971  12.450   1.782  0.2669 -0.1832 -0.5816
 2995SOL    HW113796   1.969  12.540   1.815 -1.8442 -0.6563  0.7663
 2995SOL    HW213797   1.962  12.460   1.687  1.3930  1.0388 -0.5970
 2996SOL     OW13798   4.875   3.653   3.072 -0.0200  0.0456 -0.3741
 2996SOL    HW113799   4.790   3.638   3.029 -1.3213  0.8496  1.7479
 2996SOL    HW213800   4.939   3.642   3.002 -1.8191 -1.1488 -1.9555
 2997SOL     OW13801   5.536   6.701  11.605 -0.0136  0.4480 -0.3336
 2997SOL    HW113802   5.585   6.696  11.523 -1.2579  1.0394 -1.1308
 2997SOL    HW213803   5.496   6.614  11.615  2.7182 -0.7582  1.3637
 2998SOL     OW13804   0.923   9.566   9.020  0.3750 -0.1145  0.4194
 2998SOL    HW113805   0.886   9.654   9.009  0.3370 -0.1379  0.3632
 2998SOL    HW213806   1.018   9.581   9.021  0.3554  0.0836  1.7482
 2999SOL     OW13807   8.602  10.778  12.186 -0.1020 -0.5042 -0.4286
 2999SOL    HW113808   8.631  10.826  12.109  1.7389  0.0620  0.5646
 2999SOL    HW213809   8.529  10.724  12.155 -0.8154  1.2997 -2.0523
 3000SOL     OW13810   4.356   1.444   6.605  0.1479 -0.1270  0.1937
 3000SOL    HW113811   4.278   1.406   6.564  0.3125 -0.8643  0.5367
 3000SOL    HW213812   4.321   1.495   6.678  0.0159 -1.3289  1.0172
 3001SOL     OW13813  12.407  10.296   1.545 -0.6602 -0.5636  0.3385
 3001SOL    HW113814  12.382  10.283   1.636 -0.9876 -0.9036  0.1998
 3001SOL    HW213815  12.326  10.321   1.501 -0.9454 -2.4018 -0.2603
 3002SOL     OW13816   4.371   9.924   8.489 -0.1700  0.1548  0.1295
 3002SOL    HW113817   4.371   9.947   8.582  2.0286 -0.7464  0.4180
 3002SOL    HW213818   4.288   9.879   8.476 -0.1512 -0.4807  1.8836
 3003SOL     OW13819   7.065  11.832   8.281  0.1037  0.1640  0.5483
 3003SOL    HW113820   7.072  11.918   8.324 -3.5547  1.9333 -1.8398
 3003SOL    HW213821   7.117  11.841   8.201 -0.1729  0.1098  0.3619
 3004SOL     OW13822   6.537   2.085  10.552 -0.3822  0.3889 -0.7905
 3004SOL    HW113823   6.498   2.014  10.602  0.4187  0.2342 -0.3692
 3004SOL    HW213824   6.495   2.164  10.584  1.6900  0.5597  1.7921
 3005SOL     OW13825   8.103   9.033   4.747  0.1735 -0.0415  0.0970
 3005SOL    HW113826   8.118   8.964   4.682  0.6443  0.0725  0.0796
 3005SOL    HW213827   8.181   9.087   4.742  0.3766 -0.2334  1.0139
 3006SOL     OW13828   5.314   0.724   5.804 -0.8525 -0.2047 -0.7510
 3006SOL    HW113829   5.337   0.666   5.877  1.8941 -0.3979 -1.6761
 3006SOL    HW213830   5.342   0.676   5.726  0.5486  1.8813 -1.6094
 3007SOL     OW13831   2.084   6.279   3.018 -0.3502 -0.5067 -0.0530
 3007SOL    HW113832   2.167   6.324   3.002  0.1518 -1.6304 -0.7766
 3007SOL    HW213833   2.091   6.247   3.108  0.2607 -1.0564 -0.2767
 3008SOL     OW13834   3.665  12.095   8.002 -0.0151 -0.0130  0.6015
 3008SOL    HW113835   3.746  12.116   8.049  0.3488 -0.4592  0.1770
 3008SOL    HW213836   3.644  12.006   8.029  0.3390 -0.3667 -0.2790
 3009SOL     OW13837  11.275   3.428   4.196 -0.2426  0.0816  0.2803
 3009SOL    HW113838  11.222   3.350   4.207  0.1375 -0.0336  1.4328
 3009SOL    HW213839  11.279   3.442   4.102 -2.4279  0.1766  0.1537
 3010SOL     OW13840   2.177   2.732   9.531 -0.0693  0.1589 -0.1500
 3010SOL    HW113841   2.086   2.758   9.544 -0.2725 -0.9688  0.9387
 3010SOL    HW213842   2.176   2.675   9.454 -0.1037  0.9486 -0.7449
 3011SOL     OW13843  11.104   1.334   3.302  0.3614 -0.2689 -0.6241
 3011SOL    HW113844  11.085   1.263   3.363 -1.0165 -1.5225 -2.4078
 3011SOL    HW213845  11.199   1.334   3.296  0.7994  1.5525  3.2916
 3012SOL     OW13846   9.524   5.652   7.826  0.1133  0.4144  0.2222
 3012SOL    HW113847   9.571   5.588   7.878 -1.2592 -0.8699 -0.0517
 3012SOL    HW213848   9.446   5.673   7.877 -1.2509 -0.8533 -1.2070
 3013SOL     OW13849  10.503  12.175   9.496 -0.3829  0.4558 -0.1603
 3013SOL    HW113850  10.482  12.228   9.419 -0.3317  1.1751  0.3090
 3013SOL    HW213851  10.429  12.189   9.555  0.3710  1.2970  0.6244
 3014SOL     OW13852   4.960  10.361   9.094  0.2009  0.2035 -0.1511
 3014SOL    HW113853   4.984  10.328   9.007 -0.4429  1.1328 -0.6957
 3014SOL    HW213854   4.879  10.315   9.116  0.4275 -0.1202  0.0188
 3015SOL     OW13855   8.499   7.401   9.401  0.1986 -0.7924  0.0350
 3015SOL    HW113856   8.573   7.357   9.361  0.2375 -0.7898  0.1036
 3015SOL    HW213857   8.425   7.382   9.343  0.1309 -1.2801  0.2815
 3016SOL     OW13858   4.229   6.530   8.203  0.2637  0.7736 -0.2269
 3016SOL    HW113859   4.276   6.475   8.140  1.5480 -0.1959  1.4722
 3016SOL    HW213860   4.172   6.468   8.250  1.1407  0.9705  1.1762
 3017SOL     OW13861   4.850  10.857   9.515  0.0474  0.1705  0.0569
 3017SOL    HW113862   4.822  10.858   9.423  0.0547  2.2549  0.0336
 3017SOL    HW213863   4.942  10.832   9.512  0.0444  0.2095 -0.5028
 3018SOL     OW13864   7.850   9.310  11.848 -0.2757  0.1249 -0.2874
 3018SOL    HW113865   7.764   9.317  11.806 -0.7268  0.6955  0.7169
 3018SOL    HW213866   7.874   9.400  11.870 -0.4772 -0.2374  1.5103
 3019SOL     OW13867   8.061   9.047   7.243  0.2439 -0.2748 -0.1698
 3019SOL    HW113868   8.155   9.049   7.227  0.5136 -0.4716  1.2787
 3019SOL    HW213869   8.047   9.108   7.316 -1.0475  1.3681 -1.7074
 3020SOL     OW13870   7.149   9.872   9.731 -0.9747  0.4488 -0.4539
 3020SOL    HW113871   7.123   9.930   9.659 -2.2617 -0.7568 -1.0078
 3020SOL    HW213872   7.134   9.925   9.810 -0.0607  1.5970 -1.0266
 3021SOL     OW13873   3.105   9.431   6.900 -0.2470 -0.1377  0.2343
 3021SOL    HW113874   3.155   9.499   6.945  0.3238 -0.1968 -0.3010
 3021SOL    HW213875   3.096   9.361   6.964 -1.5080  0.7425  1.0588
 3022SOL     OW13876   5.396   7.163   8.980  0.2986 -0.0694  0.3842
 3022SOL    HW113877   5.316   7.209   9.007  0.7460  0.3798  0.9642
 3022SOL    HW213878   5.364   7.092   8.924 -0.3530  1.3749 -1.1748
 3023SOL     OW13879  11.721   9.375   7.369 -0.1259 -0.3588  0.2960
 3023SOL    HW113880  11.652   9.338   7.424 -0.9501 -0.6961 -0.9369
 3023SOL    HW213881  11.800   9.326   7.395 -0.9841 -2.3373 -0.5821
 3024SOL     OW13882   8.966   4.427   9.478  0.2249  0.3766 -0.4581
 3024SOL    HW113883   9.055   4.455   9.497  0.8456 -0.6883 -1.6871
 3024SOL    HW213884   8.968   4.399   9.386 -1.1766 -0.4265 -0.2799
 3025SOL     OW13885  11.832   9.081   5.470 -0.5114 -0.2206 -0.3675
 3025SOL    HW113886  11.745   9.057   5.500 -0.3645  0.8221  0.9789
 3025SOL    HW213887  11.856   9.012   5.408 -1.5838 -1.4625  0.5529
 3026SOL     OW13888  10.013   1.524   6.285  0.3503  0.2418  0.0466
 3026SOL    HW113889  10.075   1.596   6.282  1.2503 -0.4606  1.0417
 3026SOL    HW213890  10.059   1.455   6.333 -1.3383 -0.1753  1.1242
 3027SOL     OW13891  12.121  11.566   9.153  0.5974  0.3559 -0.1459
 3027SOL    HW113892  12.099  11.613   9.234 -2.0051 -1.3235  0.2637
 3027SOL    HW213893  12.210  11.534   9.167  0.3461  0.4018  1.9407
 3028SOL     OW13894   7.136   0.149   6.297  0.3185  0.1976  0.4591
 3028SOL    HW113895   7.222   0.131   6.260 -0.4893  1.3486 -2.2237
 3028SOL    HW213896   7.126   0.244   6.292 -1.4892  0.0205 -0.2684
 3029SOL     OW13897   1.707   0.068   4.007  0.0319  0.2473 -0.0499
 3029SOL    HW113898   1.651   0.113   3.944 -0.1421 -1.4540 -1.1923
 3029SOL    HW213899   1.662   0.078   4.091 -0.5621  1.2128 -0.4770
 3030SOL     OW13900   8.117  11.925   0.358 -0.2617  0.0350 -0.1098
 3030SOL    HW113901   8.209  11.950   0.370 -0.1031 -0.9627  0.9473
 3030SOL    HW213902   8.116  11.830   0.371 -1.5375  0.1191  0.5909
 3031SOL     OW13903   0.761   2.449  10.698  0.4194 -0.2547 -0.7141
 3031SOL    HW113904   0.830   2.508  10.669  0.5765 -0.3608 -0.5603
 3031SOL    HW213905   0.704   2.439  10.622 -1.0613  2.1473 -0.0223
 3032SOL     OW13906   1.181  10.753   3.201  0.0578  0.2167  0.5344
 3032SOL    HW113907   1.221  10.674   3.238 -0.4537 -0.4401 -0.2971
 3032SOL    HW213908   1.109  10.721   3.147  1.3215  1.0619 -1.7754
 3033SOL     OW13909   2.431  11.494   4.250  0.1976 -0.4024  0.5486
 3033SOL    HW113910   2.479  11.484   4.168 -0.0859 -2.4654  0.5867
 3033SOL    HW213911   2.395  11.407   4.268 -0.5298  0.2242  2.3893
 3034SOL     OW13912   6.421   8.775   0.744  0.3000 -0.3117  0.5448
 3034SOL    HW113913   6.461   8.700   0.700  0.7991  1.0140 -1.4056
 3034SOL    HW213914   6.483   8.846   0.730  0.6121  0.1643  3.7114
 3035SOL     OW13915   8.229  11.477   5.718  0.0166  0.1789 -0.5373
 3035SOL    HW113916   8.253  11.409   5.655 -1.4607 -1.8798  0.9910
 3035SOL    HW213917   8.216  11.555   5.664  3.2556 -0.2405 -2.1826
 3036SOL     OW13918   9.474   0.708  12.444 -0.2067  0.3782 -1.2487
 3036SOL    HW113919   9.437   0.628  12.407  1.3003 -1.1771  0.4289
 3036SOL    HW213920   9.405   0.743  12.499 -0.4039 -0.6010 -0.8467
 3037SOL     OW13921   1.092   4.189   2.674 -0.2907 -0.7842 -0.2389
 3037SOL    HW113922   1.124   4.132   2.604 -0.8548 -1.0672 -0.2705
 3037SOL    HW213923   1.020   4.140   2.714 -1.7911  0.5172 -1.2382
 3038SOL     OW13924  11.074   0.125   2.364 -0.3177  0.3355  0.0493
 3038SOL    HW113925  11.045   0.210   2.330 -0.9442  1.1116  2.3308
 3038SOL    HW213926  11.012   0.062   2.326 -0.1675  0.9427 -1.2532
 3039SOL     OW13927   8.337  10.040   7.612  1.4086 -0.5726  0.0967
 3039SOL    HW113928   8.249  10.059   7.644  0.8326  0.5837 -1.9521
 3039SOL    HW213929   8.393  10.049   7.689 -0.0336  0.5454  1.0755
 3040SOL     OW13930  12.349   5.888   0.121 -0.3047  0.1110 -0.0958
 3040SOL    HW113931  12.440   5.904   0.144 -0.6067  2.7067 -0.4589
 3040SOL    HW213932  12.335   5.795   0.141  2.5151 -0.4682 -0.4856
 3041SOL     OW13933   9.145   9.028   1.888  0.1097 -0.2045  0.0405
 3041SOL    HW113934   9.096   9.098   1.931  1.7537  2.1372 -1.6102
 3041SOL    HW213935   9.083   8.989   1.827 -0.5598  0.5986  0.1891
 3042SOL     OW13936   3.189  11.062   4.271 -0.3548 -0.6950 -0.1755
 3042SOL    HW113937   3.101  11.028   4.290 -0.1876 -0.8810  0.3024
 3042SOL    HW213938   3.221  11.091   4.357 -0.2802  0.1672 -0.4867
 3043SOL     OW13939   0.213   7.287  11.924  0.0640 -0.5982  0.7925
 3043SOL    HW113940   0.278   7.319  11.862  0.9494 -1.7747  1.0738
 3043SOL    HW213941   0.155   7.361  11.939  1.0426  0.3212  0.1432
 3044SOL     OW13942   7.353   7.526  10.811 -0.9397 -0.2908 -0.1485
 3044SOL    HW113943   7.285   7.483  10.862 -1.6336  1.9446  0.9569
 3044SOL    HW213944   7.416   7.457  10.792 -0.5934 -1.2905  3.8216
 3045SOL     OW13945  10.381   0.270   2.121 -0.1321 -0.2672 -0.2687
 3045SOL    HW113946  10.287   0.267   2.107  0.1000 -1.9868 -1.8286
 3045SOL    HW213947  10.411   0.346   2.072 -0.7931  0.8924  1.0730
 3046SOL     OW13948  12.244   3.212   5.235 -0.2630 -0.3434 -0.7564
 3046SOL    HW113949  12.256   3.126   5.276  0.3558  0.4060  0.7256
 3046SOL    HW213950  12.162   3.244   5.271  1.5761  1.4881  2.2862
 3047SOL     OW13951   7.500   0.081   1.671 -0.3295 -0.3089  0.1970
 3047SOL    HW113952   7.444   0.004   1.681 -0.5369 -0.2952 -0.7532
 3047SOL    HW213953   7.569   0.053   1.612 -0.1192  0.0886  0.2516
 3048SOL     OW13954   0.111   0.652   2.785  0.3645  0.1612  0.3213
 3048SOL    HW113955   0.166   0.701   2.846  0.2464  0.6437  0.0380
 3048SOL    HW213956   0.024   0.651   2.826  0.3637  0.1978  0.3202
 3049SOL     OW13957   6.202   1.748   2.790 -0.4667  0.3249  0.8574
 3049SOL    HW113958   6.209   1.674   2.730 -0.9526 -0.3832  1.6459
 3049SOL    HW213959   6.116   1.786   2.771 -0.5699  0.1743  1.0214
 3050SOL     OW13960  10.693  11.394   6.454  0.5061  0.1342 -0.0517
 3050SOL    HW113961  10.618  11.380   6.395  1.8651 -1.1249 -1.5726
 3050SOL    HW213962  10.705  11.310   6.498 -0.5328  1.0770  2.1953
 3051SOL     OW13963   1.311   0.722   3.950 -0.1387 -0.5362 -0.4147
 3051SOL    HW113964   1.387   0.725   3.892 -1.0427 -0.7367 -1.6415
 3051SOL    HW213965   1.266   0.805   3.934 -1.4502 -1.4167 -1.5008
 3052SOL     OW13966   2.141   8.735   2.808  0.2685 -0.2057  0.1094
 3052SOL    HW113967   2.133   8.640   2.810  0.4231 -0.2595 -1.3340
 3052SOL    HW213968   2.051   8.767   2.798  0.3678 -0.2886 -1.2561
 3053SOL     OW13969   7.391   4.258   3.329 -0.0629  0.3531  0.3582
 3053SOL    HW113970   7.422   4.269   3.239  0.8390  1.1927  0.7490
 3053SOL    HW213971   7.301   4.293   3.328  0.4141  1.6263  0.0634
 3054SOL     OW13972  12.437   5.174  10.077  0.5266 -0.7563  0.2833
 3054SOL    HW113973  12.459   5.199   9.987  0.0160 -1.1467  0.0439
 3054SOL    HW213974  12.492   5.099  10.095  1.8674  0.3375  0.9073
 3055SOL     OW13975   9.362   3.391   9.678  0.5619  0.3860  0.0114
 3055SOL    HW113976   9.326   3.336   9.748  2.1397  0.7803  1.1726
 3055SOL    HW213977   9.286   3.441   9.647 -0.4327 -0.7472  0.5147
 3056SOL     OW13978   7.328   0.609   4.872 -0.1221  0.4068 -0.0484
 3056SOL    HW113979   7.404   0.632   4.818  0.3537  1.7386  1.1183
 3056SOL    HW213980   7.257   0.596   4.810  0.4313  1.7758 -1.0243
 3057SOL     OW13981   1.273   0.681   9.279  0.7225 -0.7721 -0.4473
 3057SOL    HW113982   1.343   0.731   9.237  1.2826 -1.7163 -0.6680
 3057SOL    HW213983   1.311   0.595   9.293 -0.7806 -1.6917 -1.6863
 3058SOL     OW13984   2.401   2.576  11.904 -0.0079 -0.1232  0.1198
 3058SOL    HW113985   2.423   2.613  11.818  1.5016 -0.3467  0.3898
 3058SOL    HW213986   2.459   2.501  11.914  1.3129  1.0555  2.1640
 3059SOL     OW13987   3.337   4.484   5.588  0.0190 -0.3267  0.2363
 3059SOL    HW113988   3.394   4.559   5.573  0.1354 -0.7377 -1.6729
 3059SOL    HW213989   3.262   4.499   5.529 -0.1763 -1.4591  0.1764
 3060SOL     OW13990   6.548   3.977   9.854  0.1658 -0.9294 -0.2140
 3060SOL    HW113991   6.506   4.003   9.936  0.6462 -0.8695  0.0150
 3060SOL    HW213992   6.563   4.060   9.807  1.7540 -0.7547  0.5447
 3061SOL     OW13993   1.472   8.475   5.395  0.3184  0.0230 -0.3689
 3061SOL    HW113994   1.499   8.397   5.443 -0.3832 -0.0738 -0.1194
 3061SOL    HW213995   1.418   8.442   5.323 -0.3601  0.2983  0.0042
 3062SOL     OW13996   1.323   3.769  10.246  0.2194 -0.4078  0.8589
 3062SOL    HW113997   1.234   3.782  10.216  1.1822 -0.1088 -2.1524
 3062SOL    HW213998   1.351   3.856  10.276 -0.6210 -0.6255  2.3857
 3063SOL     OW13999   3.210   8.245   2.357 -0.3600  0.1709  0.1776
 3063SOL    HW114000   3.243   8.169   2.309  0.4973  0.2324  0.6619
 3063SOL    HW214001   3.121   8.221   2.382 -1.3261  0.6239 -2.5246
 3064SOL     OW14002   0.873   9.924   3.284  0.4465  0.4162 -0.0049
 3064SOL    HW114003   0.895   9.982   3.211  1.6972 -1.7291 -1.4457
 3064SOL    HW214004   0.783   9.895   3.266  0.4660  0.5142 -0.2654
 3065SOL     OW14005   3.647  10.565   0.483  0.1080  0.3827 -0.5676
 3065SOL    HW114006   3.630  10.471   0.491  0.2837  0.2679 -1.4714
 3065SOL    HW214007   3.581  10.606   0.539  0.4676 -0.3043  0.3751
 3066SOL     OW14008  10.460   5.570   7.322 -0.4021  0.3330  0.4263
 3066SOL    HW114009  10.496   5.554   7.409  1.3914 -0.8161 -0.4632
 3066SOL    HW214010  10.487   5.660   7.301  1.9068 -0.4356 -0.1414
 3067SOL     OW14011  10.945  10.627   7.603  0.8968  0.1779 -0.0775
 3067SOL    HW114012  10.854  10.656   7.594  0.9030  0.3063  0.2712
 3067SOL    HW214013  10.939  10.538   7.637  0.9171  0.7850  1.6190
 3068SOL     OW14014   2.193   1.643   6.756 -0.0696 -0.2306 -0.4565
 3068SOL    HW114015   2.252   1.709   6.717 -0.5459  0.1164 -0.5965
 3068SOL    HW214016   2.233   1.559   6.733  1.9416 -0.0242  1.8287
 3069SOL     OW14017   5.792   1.642   4.530  0.3987 -0.8473  0.2103
 3069SOL    HW114018   5.712   1.621   4.483 -0.5907  0.3032  1.2790
 3069SOL    HW214019   5.811   1.733   4.507  1.0528 -0.9106  0.4554
 3070SOL     OW14020   5.075  10.425   1.374 -0.4818 -0.0958  0.1272
 3070SOL    HW114021   5.064  10.458   1.285 -2.7664 -0.6066  0.1451
 3070SOL    HW214022   5.161  10.456   1.401  0.3510 -0.0936 -2.3114
 3071SOL     OW14023  11.910  11.223   3.030 -0.4016  0.0379  0.1163
 3071SOL    HW114024  11.864  11.200   2.949 -0.2194  1.0825 -0.3016
 3071SOL    HW214025  11.965  11.297   3.006  2.4021 -1.8441  0.3282
 3072SOL     OW14026   6.801   4.839  11.359  0.2028 -0.3124  0.4677
 3072SOL    HW114027   6.804   4.884  11.444  0.2226  0.0220  0.2904
 3072SOL    HW214028   6.713   4.801  11.356 -0.4660  1.1813 -0.1231
 3073SOL     OW14029   5.286   8.804   2.398 -0.3061  0.2696 -0.4118
 3073SOL    HW114030   5.218   8.841   2.456  0.5855 -0.9308  1.4832
 3073SOL    HW214031   5.362   8.793   2.455  0.2444 -2.0996 -1.4976
 3074SOL     OW14032   1.410   8.926  12.630  0.3168 -0.0620 -0.2021
 3074SOL    HW114033   1.471   8.968  12.569 -0.9294 -0.6682 -1.9490
 3074SOL    HW214034   1.368   8.999  12.675 -0.6472  0.5882 -2.0309
 3075SOL     OW14035   3.824  11.851   7.313  0.1585  0.3195 -0.3061
 3075SOL    HW114036   3.768  11.912   7.362 -1.4117 -0.8208 -0.6161
 3075SOL    HW214037   3.834  11.892   7.227 -0.2613  0.4980 -0.2724
 3076SOL     OW14038  12.049   4.668  12.408  0.1269 -0.0812  0.7179
 3076SOL    HW114039  12.078   4.741  12.353 -0.3377 -0.2259  0.2706
 3076SOL    HW214040  12.067   4.697  12.498  1.1235  0.0538  0.4892
 3077SOL     OW14041   2.859   3.205   7.357  0.3730 -0.1936 -0.5349
 3077SOL    HW114042   2.825   3.190   7.445  2.5108  0.3074  0.4525
 3077SOL    HW214043   2.849   3.121   7.313 -1.2429 -0.3011 -0.0103
 3078SOL     OW14044   8.215   3.946   7.852  0.2638  0.7077 -0.1154
 3078SOL    HW114045   8.153   3.873   7.851 -0.0535  0.9627  0.6473
 3078SOL    HW214046   8.287   3.917   7.796 -0.5049  0.3800 -0.9509
 3079SOL     OW14047   6.194   1.505   6.202  0.0674 -0.1189 -1.1769
 3079SOL    HW114048   6.165   1.584   6.157  3.4500  0.5432 -2.5253
 3079SOL    HW214049   6.208   1.532   6.293  0.2287  0.5920 -1.4088
 3080SOL     OW14050   0.077  12.624   2.658  0.9089  0.0052  0.3024
 3080SOL    HW114051   0.159  12.582   2.632  0.9975  0.2110  0.2452
 3080SOL    HW214052   0.098  12.670   2.740  0.7207 -0.3561  0.5567
 3081SOL     OW14053  12.420   7.337  10.849 -0.3962 -0.4233  0.1224
 3081SOL    HW114054  12.508   7.374  10.845 -1.2865  1.8893  0.2892
 3081SOL    HW214055  12.433   7.248  10.880  1.8791 -0.1867  0.0429
 3082SOL     OW14056   2.793   2.918   0.087 -0.2369 -0.3347 -0.1107
 3082SOL    HW114057   2.749   2.999   0.061  0.5089 -0.3078 -1.3741
 3082SOL    HW214058   2.752   2.895   0.171 -0.3816  1.3996  0.3428
 3083SOL     OW14059   9.889   5.594   8.552  0.0586 -0.0423 -0.3683
 3083SOL    HW114060   9.922   5.564   8.636  1.1793  0.9367 -0.4357
 3083SOL    HW214061   9.810   5.643   8.573  0.1604 -0.0726  0.0892
 3084SOL     OW14062   6.787  10.559   6.372 -0.2302  0.6331 -0.2651
 3084SOL    HW114063   6.775  10.583   6.280 -2.9807 -0.9546 -0.4345
 3084SOL    HW214064   6.800  10.464   6.370 -1.0895  0.4764  1.0307
 3085SOL     OW14065  11.686  10.844   7.961  0.7289  0.2639  0.0995
 3085SOL    HW114066  11.688  10.900   7.883  0.9878 -1.8337 -1.4836
 3085SOL    HW214067  11.610  10.787   7.947  0.4208  0.2348  1.7063
 3086SOL     OW14068   1.263   9.875   9.671  0.1299  0.1802 -0.3051
 3086SOL    HW114069   1.212   9.954   9.690  0.3166  0.6660 -1.7132
 3086SOL    HW214070   1.255   9.863   9.576  1.8594 -0.2730 -0.4226
 3087SOL     OW14071   3.358   2.975  10.680  1.0203 -0.4329 -0.2710
 3087SOL    HW114072   3.414   3.046  10.651 -0.0316 -0.3066 -2.1251
 3087SOL    HW214073   3.379   2.902  10.622 -0.7968 -0.3287 -1.1465
 3088SOL     OW14074   5.760   5.668  10.960 -0.1533 -0.1251  1.2269
 3088SOL    HW114075   5.748   5.753  10.918 -0.8215 -0.0966  1.4573
 3088SOL    HW214076   5.690   5.663  11.025 -1.3510 -1.6340 -0.0740
 3089SOL     OW14077   7.541   8.351   8.298 -0.1371 -0.0347  0.3854
 3089SOL    HW114078   7.456   8.328   8.335 -0.2096  0.4142  0.5013
 3089SOL    HW214079   7.600   8.282   8.330 -0.5843 -0.7396 -0.2684
 3090SOL     OW14080   8.992   5.315   3.550 -0.2700  0.1309  0.0002
 3090SOL    HW114081   9.026   5.395   3.510 -1.7099 -0.1503 -1.9103
 3090SOL    HW214082   9.021   5.320   3.641  0.5084  2.3324 -0.3032
 3091SOL     OW14083  11.597   7.069   2.300 -0.5236 -0.5258  0.3757
 3091SOL    HW114084  11.669   7.106   2.249 -1.1427 -0.1845 -0.2651
 3091SOL    HW214085  11.619   6.977   2.309 -1.8134 -1.3371 -3.1330
 3092SOL     OW14086   4.471   5.803   0.232  0.4523  0.2594  0.3703
 3092SOL    HW114087   4.437   5.718   0.203  0.1580  0.4761  0.0720
 3092SOL    HW214088   4.493   5.849   0.150  0.8837  0.3588  0.5398
 3093SOL     OW14089   3.117   6.535   7.228  0.3513 -0.0553 -0.7795
 3093SOL    HW114090   3.116   6.534   7.324  0.2005  0.2331 -0.7773
 3093SOL    HW214091   3.111   6.627   7.205  2.5106  0.0689 -1.0587
 3094SOL     OW14092   9.847  11.279   7.933  0.3555 -0.4131  0.5742
 3094SOL    HW114093   9.879  11.265   7.844 -1.3050  0.5667 -0.2197
 3094SOL    HW214094   9.923  11.315   7.980  2.3130 -4.0679  0.5858
 3095SOL     OW14095   6.593   7.641   6.903  0.7004 -0.4183 -0.2211
 3095SOL    HW114096   6.607   7.714   6.963 -2.3825  0.4623 -0.4207
 3095SOL    HW214097   6.611   7.677   6.816  0.8905 -0.4150 -0.1810
 3096SOL     OW14098   3.540   6.848   5.452  0.4588  0.0839 -0.0116
 3096SOL    HW114099   3.579   6.818   5.370 -2.6518 -2.2278 -0.8577
 3096SOL    HW214100   3.528   6.942   5.439  2.8510  0.3248 -0.8773
 3097SOL     OW14101   7.167   8.768   2.282 -0.1748 -0.0619  0.1816
 3097SOL    HW114102   7.180   8.861   2.304 -2.3893  0.5029 -0.5558
 3097SOL    HW214103   7.252   8.739   2.249  1.2051  1.0558  2.4717
 3098SOL     OW14104   5.076   3.627   2.918 -0.4400  0.7453 -0.0756
 3098SOL    HW114105   5.128   3.695   2.874  0.4202  0.6998  0.8305
 3098SOL    HW214106   5.089   3.548   2.865  1.9708  0.2555  1.1182
 3099SOL     OW14107   8.370  11.310   7.762 -0.2286  0.8225 -1.0780
 3099SOL    HW114108   8.392  11.401   7.742 -0.5998  1.0817 -0.3404
 3099SOL    HW214109   8.446  11.277   7.809 -1.0134  1.4900  0.7858
 3100SOL     OW14110   5.545   4.617   7.657  0.1555  0.3752 -0.4228
 3100SOL    HW114111   5.517   4.591   7.570 -1.5044  3.0080 -0.8039
 3100SOL    HW214112   5.555   4.712   7.651 -1.7120  0.9105  2.6312
 3101SOL     OW14113  12.193   5.558  10.310 -0.1290  0.6375 -0.3933
 3101SOL    HW114114  12.133   5.585  10.380  0.3014  1.4529 -0.3242
 3101SOL    HW214115  12.215   5.639  10.265  1.0457  0.3725 -0.3211
 3102SOL     OW14116   4.123   6.437   1.335 -0.4699 -0.5226 -0.0099
 3102SOL    HW114117   4.143   6.444   1.429 -2.9198  0.0145  0.5576
 3102SOL    HW214118   4.208   6.430   1.293  0.8060  0.8708  2.1273
 3103SOL     OW14119   3.059   5.854   9.267  0.2870  0.1718 -0.4819
 3103SOL    HW114120   3.094   5.808   9.191 -2.6952  0.2490 -2.0616
 3103SOL    HW214121   3.000   5.792   9.308 -0.5426  1.1687 -0.1168
 3104SOL     OW14122   3.482   0.580  10.180 -0.7421  0.4724  0.4082
 3104SOL    HW114123   3.416   0.621  10.236 -2.2142 -0.6476 -0.4379
 3104SOL    HW214124   3.486   0.635  10.102 -1.8231 -0.2441 -0.1902
 3105SOL     OW14125   9.370   2.307   3.017  0.2680  0.1534  0.0590
 3105SOL    HW114126   9.278   2.282   3.033  1.0124 -1.9582  1.6162
 3105SOL    HW214127   9.365   2.378   2.953 -2.4154 -0.4235 -0.5174
 3106SOL     OW14128   9.896   0.508  11.055  0.5622 -0.5303 -0.4462
 3106SOL    HW114129   9.978   0.514  11.104  0.5911  0.4362 -0.5792
 3106SOL    HW214130   9.906   0.573  10.985 -1.0279  0.9609  0.6219
 3107SOL     OW14131   6.067   5.178   7.685 -0.0111 -0.3177  0.2408
 3107SOL    HW114132   6.055   5.104   7.744 -0.2291  1.4294  2.4990
 3107SOL    HW214133   6.049   5.255   7.738  2.0450  1.4934 -1.4800
 3108SOL     OW14134   9.337   4.182   8.906  0.2699  0.5093 -0.0796
 3108SOL    HW114135   9.294   4.147   8.984  0.8900 -0.1539 -0.0268
 3108SOL    HW214136   9.294   4.266   8.891  0.7857  1.1120  1.5504
 3109SOL     OW14137   6.974   7.940   0.382  0.4809  0.5026  0.0210
 3109SOL    HW114138   7.023   7.877   0.328 -0.5040  0.2562 -0.6176
 3109SOL    HW214139   6.886   7.940   0.344 -0.3802  0.0152  1.8858
 3110SOL     OW14140  10.428   0.375  10.363 -0.3620  0.2326 -0.4145
 3110SOL    HW114141  10.496   0.341  10.305 -0.5050  0.9710 -1.0358
 3110SOL    HW214142  10.469   0.380  10.449  0.2529  0.3185 -0.7105
 3111SOL     OW14143  12.253   3.023   4.257 -0.4567  0.6718  0.2118
 3111SOL    HW114144  12.189   2.959   4.229  1.3469 -0.7461 -0.8743
 3111SOL    HW214145  12.251   3.019   4.353 -1.2948 -0.0410  0.1753
 3112SOL     OW14146   1.941   4.819   1.668  0.5808 -0.4280 -0.0737
 3112SOL    HW114147   1.979   4.885   1.726  2.3529 -1.3076 -0.1333
 3112SOL    HW214148   1.941   4.739   1.721 -0.9055 -0.5339 -0.2151
 3113SOL     OW14149   1.407   1.455  11.291  0.1107 -0.2319  0.1768
 3113SOL    HW114150   1.384   1.446  11.384  1.4318 -0.7710  0.4681
 3113SOL    HW214151   1.472   1.386  11.276  0.1504  0.0625 -1.0764
 3114SOL     OW14152  10.562   9.375   1.150  0.3766  0.1733 -0.0003
 3114SOL    HW114153  10.561   9.304   1.086  0.6880  0.5691 -0.4535
 3114SOL    HW214154  10.477   9.370   1.193  0.8406 -1.2106  0.8088
 3115SOL     OW14155  10.011   7.875   2.561  0.1086  0.0324 -0.4816
 3115SOL    HW114156  10.011   7.889   2.466  1.2860 -0.7386 -0.6102
 3115SOL    HW214157  10.075   7.937   2.595  0.6374 -0.5765 -0.3457
 3116SOL     OW14158   7.896   6.484  10.042 -0.2537  0.7108 -0.1761
 3116SOL    HW114159   7.921   6.406   9.992  0.9234  1.6737 -1.1859
 3116SOL    HW214160   7.879   6.551   9.975 -0.2396  1.5989  0.6749
 3117SOL     OW14161   1.826  11.196   6.172 -0.0188 -0.5022 -0.4403
 3117SOL    HW114162   1.755  11.165   6.117 -0.5551  0.9075 -0.5719
 3117SOL    HW214163   1.818  11.291   6.171  1.5332 -0.3337 -0.0115
 3118SOL     OW14164   3.028  10.176   2.398 -0.4695  0.5457 -0.0407
 3118SOL    HW114165   3.056  10.092   2.361 -2.2108 -0.0131 -0.1508
 3118SOL    HW214166   3.107  10.211   2.440  2.0164  1.6842 -4.8930
 3119SOL     OW14167   7.558   2.023  10.048  0.4209  0.1408  0.2189
 3119SOL    HW114168   7.464   2.040  10.052  0.3597 -0.3590  3.2813
 3119SOL    HW214169   7.597   2.106  10.021 -0.8595  0.3931 -0.9186
 3120SOL     OW14170  10.589   9.390   1.483  0.2500  0.5208 -0.0457
 3120SOL    HW114171  10.627   9.474   1.461 -0.4167  0.8447  0.0136
 3120SOL    HW214172  10.551   9.403   1.570  1.6958 -0.3539  0.7653
 3121SOL     OW14173   2.112  12.162  12.180 -0.3199  0.0622  0.1087
 3121SOL    HW114174   2.042  12.116  12.134 -0.1719 -1.4557  1.3523
 3121SOL    HW214175   2.156  12.213  12.111  0.6397 -3.0143 -1.7544
 3122SOL     OW14176   9.918   0.018   5.578 -0.0543 -0.5299  0.0361
 3122SOL    HW114177   9.858   0.034   5.651  1.1951  0.1044  0.9518
 3122SOL    HW214178   9.947   0.104   5.551  0.9839 -0.8509  0.0823
 3123SOL     OW14179   3.185   4.040   0.582  0.1154 -0.2033 -0.5651
 3123SOL    HW114180   3.096   4.056   0.550  0.4044  0.8359 -0.8861
 3123SOL    HW214181   3.181   4.062   0.675  0.4272  1.6119 -0.9299
 3124SOL     OW14182   6.418   2.584   2.638 -0.2065 -0.1165  0.2736
 3124SOL    HW114183   6.424   2.568   2.544 -1.8798 -0.5137  0.2192
 3124SOL    HW214184   6.418   2.497   2.677  0.6829  0.0520  0.6793
 3125SOL     OW14185   1.248   2.219   0.467  0.5599 -0.3216  0.5546
 3125SOL    HW114186   1.256   2.289   0.402  0.9257 -0.5380  0.3612
 3125SOL    HW214187   1.306   2.246   0.539  2.4606 -1.4590 -0.4611
 3126SOL     OW14188   3.576   3.361   4.201 -0.0451  0.9128 -0.2379
 3126SOL    HW114189   3.515   3.303   4.248 -0.2078  1.6475  0.4898
 3126SOL    HW214190   3.527   3.443   4.191 -0.1009  0.7020 -1.9435
 3127SOL     OW14191   2.429  12.497   4.479 -0.0805  0.6378  0.2036
 3127SOL    HW114192   2.460  12.407   4.476  0.8918  0.9722 -0.1755
 3127SOL    HW214193   2.459  12.535   4.397 -1.4328  1.0194 -0.1466
 3128SOL     OW14194   6.915  10.985   2.579  0.4161  0.2449  0.1514
 3128SOL    HW114195   6.981  10.916   2.581  0.8351  0.5920 -0.8473
 3128SOL    HW214196   6.929  11.029   2.495 -1.7549 -0.3587 -0.6198
 3129SOL     OW14197   7.064  12.145  10.669 -0.1616 -0.2634  0.8555
 3129SOL    HW114198   7.074  12.101  10.585 -1.2828 -1.3806  1.2773
 3129SOL    HW214199   6.976  12.182  10.667 -0.6797 -1.3629  1.9902
 3130SOL     OW14200   3.156   9.419   0.793  0.1467 -0.6099 -0.9216
 3130SOL    HW114201   3.068   9.456   0.785  0.2641 -0.4280 -1.4282
 3130SOL    HW214202   3.198   9.438   0.709  1.0658  0.3047 -0.2750
 3131SOL     OW14203   6.165   5.964  10.370 -0.2721 -0.0171 -0.7571
 3131SOL    HW114204   6.070   5.952  10.372 -0.4319 -0.1853 -4.0652
 3131SOL    HW214205   6.197   5.892  10.316  1.7489  0.1635  0.1262
 3132SOL     OW14206   5.207   5.171   9.646 -0.0637  0.2070 -0.0721
 3132SOL    HW114207   5.289   5.211   9.676  0.1621  0.3649 -0.8883
 3132SOL    HW214208   5.160   5.150   9.727  0.8623 -0.0600  0.4121
 3133SOL     OW14209  12.587   6.251  12.320 -0.3508 -0.1581 -0.2952
 3133SOL    HW114210  12.624   6.193  12.386 -0.8866 -1.1644 -0.8458
 3133SOL    HW214211  12.599   6.339  12.355 -1.5303 -0.7093  1.6275
 3134SOL     OW14212  10.636   0.191   2.209  0.2684  0.8246  0.0469
 3134SOL    HW114213  10.551   0.211   2.171  0.5764  1.1749 -0.4766
 3134SOL    HW214214  10.642   0.096   2.205 -0.4604  0.7384  0.8982
 3135SOL     OW14215   2.698   0.814   6.321 -0.0283 -0.4394 -0.3844
 3135SOL    HW114216   2.715   0.897   6.277 -0.4700  0.1833  0.5881
 3135SOL    HW214217   2.723   0.829   6.412  1.9140 -2.0202 -0.5765
 3136SOL     OW14218   1.970   0.336   0.698  0.2530 -0.3820 -0.9679
 3136SOL    HW114219   1.950   0.276   0.626 -0.1971 -0.7003 -0.5842
 3136SOL    HW214220   2.042   0.295   0.745 -0.0520 -0.6251 -0.7080
 3137SOL     OW14221  10.155   5.976   2.845 -0.6074 -0.0603  0.1135
 3137SOL    HW114222  10.222   5.952   2.781  0.0488  0.2504  0.6709
 3137SOL    HW214223  10.200   5.973   2.929 -1.6496 -1.1988  0.6595
 3138SOL     OW14224   2.559   9.847  10.370 -0.4730 -0.1681  0.5962
 3138SOL    HW114225   2.533   9.757  10.392  1.1531 -1.2537 -1.5799
 3138SOL    HW214226   2.501   9.871  10.298 -2.9064  1.7702  2.9668
 3139SOL     OW14227   6.570   2.011  10.292 -0.2703 -0.0079 -0.0758
 3139SOL    HW114228   6.548   2.030  10.383 -0.4598  0.1062 -0.1462
 3139SOL    HW214229   6.632   2.079  10.267  1.0306 -0.9412  0.4575
 3140SOL     OW14230   5.743   5.597  10.030 -0.7690  0.6393 -0.1107
 3140SOL    HW114231   5.788   5.523   9.989  1.3488  1.3340  0.7951
 3140SOL    HW214232   5.679   5.557  10.088  0.7850 -0.5589  0.8784
 3141SOL     OW14233  11.465   6.539  11.071 -0.0557 -0.1781 -0.0010
 3141SOL    HW114234  11.418   6.456  11.075 -2.0587  0.8952 -0.2033
 3141SOL    HW214235  11.463   6.563  10.978 -0.8996  0.8443  0.2665
 3142SOL     OW14236   0.771   4.969   7.351 -0.0883  0.4253  0.6319
 3142SOL    HW114237   0.828   5.004   7.419  0.6071 -0.4746  0.5337
 3142SOL    HW214238   0.748   4.881   7.381  0.5336 -0.1361 -0.4443
 3143SOL     OW14239  11.162   4.505   9.449 -0.1545 -0.3445 -0.7074
 3143SOL    HW114240  11.069   4.524   9.460  0.0571  0.2814  0.1093
 3143SOL    HW214241  11.206   4.574   9.499  0.7484 -0.5745 -1.1765
 3144SOL     OW14242   8.170  11.524   4.139  0.2160  0.7217 -0.1250
 3144SOL    HW114243   8.113  11.584   4.187  0.0742 -0.8776  1.8451
 3144SOL    HW214244   8.255  11.568   4.139  0.3191  0.6465  2.0313
 3145SOL     OW14245  12.083   1.809  12.496  0.6526  0.3790  0.1183
 3145SOL    HW114246  12.066   1.903  12.487  0.5336  0.3089 -0.4118
 3145SOL    HW214247  11.998   1.767  12.478  0.8251  0.1466 -0.1738
 3146SOL     OW14248   3.909   3.526   5.436 -0.2491  0.1399 -0.0022
 3146SOL    HW114249   3.827   3.574   5.432 -0.0206  0.7451  1.6851
 3146SOL    HW214250   3.891   3.453   5.495  0.8533  1.2571  1.7925
 3147SOL     OW14251   8.915   5.292  11.891 -0.0485 -0.0645  0.2116
 3147SOL    HW114252   8.822   5.285  11.912  0.0406 -1.0981  0.3131
 3147SOL    HW214253   8.953   5.210  11.923  0.8939  0.3343  0.1451
 3148SOL     OW14254   7.190  11.968   2.015 -0.5290 -0.4592  0.5063
 3148SOL    HW114255   7.171  12.012   1.932 -0.5168 -0.3932  0.5381
 3148SOL    HW214256   7.282  11.987   2.031 -0.3764 -0.9716  0.2362
 3149SOL     OW14257  11.182  10.428   3.367 -0.1203 -0.2691  0.4549
 3149SOL    HW114258  11.104  10.472   3.401 -0.4603 -0.9333  0.5499
 3149SOL    HW214259  11.205  10.365   3.435 -0.5825 -1.3439 -0.3488
 3150SOL     OW14260   6.221  10.090   5.981 -0.6079 -0.3065  0.1631
 3150SOL    HW114261   6.189  10.119   5.895 -0.3433  1.2084  0.5509
 3150SOL    HW214262   6.307  10.053   5.963 -0.7638 -0.4603 -0.2901
 3151SOL     OW14263   7.672  12.357   1.414  0.3914 -0.1947  0.1342
 3151SOL    HW114264   7.660  12.266   1.385 -0.1727 -0.3397  0.8106
 3151SOL    HW214265   7.719  12.350   1.497  0.5192  0.1387  0.0899
 3152SOL     OW14266   2.075  11.573  11.293 -0.0859  0.0805  0.4595
 3152SOL    HW114267   2.059  11.478  11.293 -0.6942  0.1739  1.1198
 3152SOL    HW214268   1.991  11.611  11.321 -0.3920  0.9268 -1.4794
 3153SOL     OW14269   2.666   1.704  12.407 -0.2600 -0.7622 -0.5045
 3153SOL    HW114270   2.599   1.738  12.347 -0.3876  1.4719  0.7850
 3153SOL    HW214271   2.735   1.770  12.406  0.1715 -1.1482  1.0560
 3154SOL     OW14272  10.576   3.236   6.061 -0.8950 -0.2047  0.0180
 3154SOL    HW114273  10.610   3.193   6.139 -1.8942 -0.0616  0.5590
 3154SOL    HW214274  10.481   3.229   6.070 -1.0652  1.2693 -0.3593
 3155SOL     OW14275  11.186   7.668   7.839 -0.0499  0.2440  0.1880
 3155SOL    HW114276  11.246   7.648   7.911 -2.5557 -0.8847  2.1437
 3155SOL    HW214277  11.154   7.756   7.858  0.6092  0.6719 -0.6095
 3156SOL     OW14278   2.607  11.500   4.053  0.5628 -0.9445 -0.3745
 3156SOL    HW114279   2.632  11.486   3.962 -1.5487  0.7353 -1.3213
 3156SOL    HW214280   2.683  11.541   4.094  0.8125  0.3033 -1.9988
 3157SOL     OW14281   4.175   2.874   2.238  0.1398 -0.0740  0.3596
 3157SOL    HW114282   4.184   2.813   2.311  0.0708  0.3379  0.7196
 3157SOL    HW214283   4.136   2.952   2.277 -1.0739 -0.2932 -0.3472
 3158SOL     OW14284   2.571   8.323   6.475  0.3770  0.5048  0.7759
 3158SOL    HW114285   2.553   8.236   6.510 -1.8439  0.4837 -0.2360
 3158SOL    HW214286   2.526   8.383   6.535 -1.5632  0.6073 -0.6581
 3159SOL     OW14287   0.313   7.071   5.247 -0.1038  0.3760  0.5930
 3159SOL    HW114288   0.330   7.138   5.181  1.2355  0.8264  1.3641
 3159SOL    HW214289   0.344   6.990   5.207 -0.4058  0.4474  0.2091
 3160SOL     OW14290  12.031   7.990   7.720 -0.1390  0.0416 -0.7694
 3160SOL    HW114291  12.078   8.032   7.648 -0.3654  0.8360 -0.4671
 3160SOL    HW214292  12.065   7.901   7.723  2.3853  0.9362  0.3092
 3161SOL     OW14293   9.237  10.212   7.136  0.2320  0.5388  0.1974
 3161SOL    HW114294   9.322  10.207   7.180  0.9644  0.0563 -1.2377
 3161SOL    HW214295   9.189  10.280   7.185  1.2833  0.5552  1.2526
 3162SOL     OW14296  10.159   7.354  11.718 -0.2945 -0.9562 -0.2214
 3162SOL    HW114297  10.193   7.351  11.629  1.1181 -2.1443  0.3096
 3162SOL    HW214298  10.071   7.392  11.709  0.7431  1.2709 -1.7799
 3163SOL     OW14299   2.035   4.371  11.658  0.2230  0.3355  0.5564
 3163SOL    HW114300   1.973   4.313  11.702 -1.2032  1.0984 -0.4148
 3163SOL    HW214301   1.981   4.437  11.615  1.6961  0.9166 -0.4726
 3164SOL     OW14302   6.444  10.214   7.057  0.2409  0.2003  0.6541
 3164SOL    HW114303   6.502  10.151   7.100  0.6684 -0.3817 -0.7075
 3164SOL    HW214304   6.504  10.282   7.024 -0.0311  0.4325  0.6368
 3165SOL     OW14305   6.446   0.198  12.207 -0.1609 -0.7621  0.5439
 3165SOL    HW114306   6.397   0.272  12.173 -0.1734  0.1362  2.3790
 3165SOL    HW214307   6.525   0.195  12.154  1.5804  2.8687  2.5723
 3166SOL     OW14308   0.488   0.361   0.626  0.1986  0.0761 -0.0651
 3166SOL    HW114309   0.403   0.359   0.670 -1.1970 -0.1450 -2.6406
 3166SOL    HW214310   0.493   0.448   0.586  1.4001  0.2436  0.3996
 3167SOL     OW14311   2.582   9.338  10.823 -0.6051  0.0392 -0.7921
 3167SOL    HW114312   2.584   9.312  10.915 -3.0150 -0.0322 -0.7015
 3167SOL    HW214313   2.597   9.433  10.825 -2.1317  0.2952 -0.1439
 3168SOL     OW14314   7.190   5.675   8.628 -0.3107  0.3017  0.6019
 3168SOL    HW114315   7.108   5.690   8.675 -0.2294  2.6122  0.1251
 3168SOL    HW214316   7.205   5.756   8.579  0.0566 -1.5989 -2.7759
 3169SOL     OW14317   3.718   5.279   4.619  0.0801 -0.1486  0.1390
 3169SOL    HW114318   3.715   5.195   4.573 -1.4325 -0.2753  0.4173
 3169SOL    HW214319   3.798   5.321   4.588  0.7955 -1.6258 -0.1138
 3170SOL     OW14320   1.951   9.983  10.685  0.0011  0.4349 -0.1617
 3170SOL    HW114321   1.955   9.966  10.590 -2.1865  0.6312 -0.3533
 3170SOL    HW214322   1.994   9.907  10.725 -1.0510 -0.7970 -1.2720
 3171SOL     OW14323   2.404   2.051   8.705  0.2395  0.2772 -0.1264
 3171SOL    HW114324   2.322   2.012   8.677  1.0562 -0.5723 -1.3995
 3171SOL    HW214325   2.454   2.066   8.624  1.6785  0.0028  0.6659
 3172SOL     OW14326   3.401   7.097   8.107 -0.2854 -0.6597 -0.2215
 3172SOL    HW114327   3.465   7.111   8.177 -0.6705  0.8235 -0.1304
 3172SOL    HW214328   3.380   7.004   8.111  1.5181 -1.0906  0.0348
 3173SOL     OW14329   8.528   8.782   9.734  0.0851 -0.0344 -0.4288
 3173SOL    HW114330   8.607   8.836   9.731 -0.7546  1.2055 -1.1466
 3173SOL    HW214331   8.542   8.714   9.668  0.3506  0.4821 -0.9045
 3174SOL     OW14332   7.553   4.316   2.245 -0.0800  0.3672 -0.1778
 3174SOL    HW114333   7.626   4.333   2.185 -0.2875  0.2647 -0.4631
 3174SOL    HW214334   7.554   4.389   2.306  1.2147 -0.3807  0.7714
 3175SOL     OW14335   9.912  11.984   0.039  0.2263  0.2377  0.1442
 3175SOL    HW114336   9.902  11.917  -0.029 -0.2170 -1.0182  1.3899
 3175SOL    HW214337   9.895  12.067  -0.005  0.5920 -0.4856 -1.4046
 3176SOL     OW14338  11.478   5.608   2.879 -0.0834  0.0665  0.5238
 3176SOL    HW114339  11.515   5.694   2.860 -0.0798  0.2020  1.1329
 3176SOL    HW214340  11.553   5.555   2.908  0.4261 -0.9387 -2.3202
 3177SOL     OW14341   8.960   8.845  12.604  0.3233 -0.1713 -0.0442
 3177SOL    HW114342   9.033   8.907  12.611  1.1312 -0.9840 -0.9748
 3177SOL    HW214343   8.890   8.895  12.562  0.9139  0.1504 -0.6637
 3178SOL     OW14344   3.793   9.291  11.580 -0.2743 -0.2187  0.2373
 3178SOL    HW114345   3.772   9.280  11.673 -1.2950  1.0106  0.1782
 3178SOL    HW214346   3.840   9.211  11.557 -0.7873 -0.9499  1.5855
 3179SOL     OW14347   4.739   5.462   3.460  0.0370  0.2038 -0.5337
 3179SOL    HW114348   4.818   5.504   3.426 -0.1671 -0.6782 -2.2018
 3179SOL    HW214349   4.767   5.372   3.481  0.2067  0.7488  1.9644
 3180SOL     OW14350   8.571   0.573   1.354  0.4733  0.3145 -0.3907
 3180SOL    HW114351   8.654   0.596   1.396  0.8037 -0.4145 -0.6205
 3180SOL    HW214352   8.544   0.492   1.398 -1.4566  1.8713  1.5174
 3181SOL     OW14353   9.462   0.117  12.634 -0.7440  0.0636 -0.3952
 3181SOL    HW114354   9.431   0.201  12.600 -0.0697 -0.3398 -2.0983
 3181SOL    HW214355   9.384   0.062  12.634 -0.9912  0.4084 -0.1902
 3182SOL     OW14356   8.594   4.443   6.900  0.2284 -0.0665  0.3246
 3182SOL    HW114357   8.534   4.506   6.861 -1.5441 -1.1558  1.1155
 3182SOL    HW214358   8.669   4.441   6.841 -0.3907  1.5508 -0.5794
 3183SOL     OW14359   6.077   4.733   5.700  0.3844 -0.4164  0.2916
 3183SOL    HW114360   6.095   4.719   5.793  0.0619 -0.6330  0.3206
 3183SOL    HW214361   6.151   4.692   5.655  0.7851  0.0985  0.4632
 3184SOL     OW14362   5.644  11.809   0.734 -0.1269  0.2904  0.4216
 3184SOL    HW114363   5.594  11.733   0.704  1.3010 -0.7537  0.5826
 3184SOL    HW214364   5.675  11.851   0.654  1.1770 -0.7682  0.3438
 3185SOL     OW14365   0.859   8.912  10.946 -0.0797 -0.4090  0.1712
 3185SOL    HW114366   0.852   8.858  11.025  2.9264  0.6661  1.2993
 3185SOL    HW214367   0.929   8.872  10.896 -0.1156  0.4831 -0.6173
 3186SOL     OW14368   4.276   6.369   9.204  0.3634  0.0472 -0.6855
 3186SOL    HW114369   4.193   6.412   9.224  0.7539 -0.1592  1.7910
 3186SOL    HW214370   4.329   6.435   9.161 -0.4188  0.7781 -0.5402
 3187SOL     OW14371   1.799   1.153  10.780  0.6195  0.1360 -0.1354
 3187SOL    HW114372   1.797   1.117  10.692 -2.0040  1.9974 -0.9516
 3187SOL    HW214373   1.770   1.244  10.771  0.1492  0.3761  2.6260
 3188SOL     OW14374   5.881   6.234   6.520 -0.0737  0.2559 -0.1403
 3188SOL    HW114375   5.797   6.231   6.474  0.1863  0.8792 -0.6653
 3188SOL    HW214376   5.943   6.194   6.460  0.1063  0.2812  0.0273
 3189SOL     OW14377  11.431   2.711  10.415  0.2321  0.0492 -0.3783
 3189SOL    HW114378  11.482   2.779  10.458 -1.4301  0.5834  0.8773
 3189SOL    HW214379  11.386   2.756  10.343  0.0086  0.0344 -0.2496
 3190SOL     OW14380   7.586   6.489   5.521  0.6964 -0.2156  0.2190
 3190SOL    HW114381   7.607   6.397   5.505 -0.4846 -0.4471 -0.0606
 3190SOL    HW214382   7.629   6.536   5.449 -0.6614 -0.8014 -1.0375
 3191SOL     OW14383   5.133   0.581  11.791 -0.1619 -0.4999 -0.0282
 3191SOL    HW114384   5.177   0.513  11.741  0.0505 -0.4830  0.1332
 3191SOL    HW214385   5.110   0.648  11.726  0.5395 -0.2567 -0.0322
 3192SOL     OW14386   8.950   6.932  11.501 -0.3638 -0.4014  0.3690
 3192SOL    HW114387   8.974   6.979  11.421 -0.1496 -0.8533  0.1626
 3192SOL    HW214388   8.856   6.946  11.510 -0.6587 -1.4801 -0.7209
 3193SOL     OW14389   5.834   3.302   1.924 -0.4486 -0.6523  0.0805
 3193SOL    HW114390   5.907   3.355   1.894 -0.6108  0.6870  1.8753
 3193SOL    HW214391   5.756   3.353   1.902 -0.7609 -1.3120 -0.3798
 3194SOL     OW14392   5.276  12.633   7.221 -0.2188 -0.2938 -0.0085
 3194SOL    HW114393   5.322  12.715   7.237 -0.5051  0.2168 -1.6275
 3194SOL    HW214394   5.281  12.586   7.304 -1.0799  1.8504  1.3301
 3195SOL     OW14395   4.972   1.327   0.263  0.0542 -0.6422  0.3720
 3195SOL    HW114396   5.030   1.315   0.188  0.8863  0.6758  0.7641
 3195SOL    HW214397   5.026   1.306   0.339  0.4719  1.7189  0.8245
 3196SOL     OW14398   5.300   1.982   7.412  0.1139 -0.5903 -0.1303
 3196SOL    HW114399   5.385   1.952   7.444 -0.0450 -1.1529 -0.2208
 3196SOL    HW214400   5.321   2.034   7.334  0.2790 -2.2891 -1.2822
 3197SOL     OW14401   6.124  10.941   3.871  0.0012 -0.0557 -0.0070
 3197SOL    HW114402   6.126  11.035   3.892  1.1811  0.1993 -1.1065
 3197SOL    HW214403   6.064  10.935   3.797 -0.1793 -0.2009  0.1499
 3198SOL     OW14404   9.524  11.458   0.660 -0.4894  0.4730 -0.2451
 3198SOL    HW114405   9.467  11.531   0.684  0.1102  1.0289 -0.4851
 3198SOL    HW214406   9.600  11.500   0.619 -0.1273 -0.2857 -0.3549
 3199SOL     OW14407   0.027  12.455  10.543  0.3052  0.4908  0.0940
 3199SOL    HW114408   0.047  12.499  10.461 -0.6978  1.9063  0.5681
 3199SOL    HW214409   0.023  12.362  10.520  1.1502  0.7535 -1.2127
 3200SOL     OW14410   8.308   1.306   9.129 -0.1988  0.1949 -0.2893
 3200SOL    HW114411   8.254   1.377   9.094 -0.7435 -0.7682 -1.4778
 3200SOL    HW214412   8.395   1.344   9.136 -0.3118  0.7696 -1.6454
 3201SOL     OW14413   1.389   4.776   1.013  0.3170 -0.6920  0.0398
 3201SOL    HW114414   1.453   4.726   1.064  1.6768  1.1378  0.2404
 3201SOL    HW214415   1.311   4.720   1.009  1.8599 -2.9511 -0.0968
 3202SOL     OW14416  10.782   1.194   6.430  0.1517  0.3194 -0.2342
 3202SOL    HW114417  10.792   1.231   6.517 -1.1300 -0.0612  0.0895
 3202SOL    HW214418  10.775   1.100   6.444 -0.3276  0.2773 -0.7101
 3203SOL     OW14419   8.507   6.688  12.020 -0.1573 -0.1428  0.2107
 3203SOL    HW114420   8.567   6.618  12.049 -1.6294 -1.3570  0.4376
 3203SOL    HW214421   8.538   6.766  12.066  0.8403 -0.8860  0.8520
 3204SOL     OW14422   5.723   9.278  11.264  0.2290 -0.4307 -0.3726
 3204SOL    HW114423   5.716   9.222  11.341  0.2702 -0.9256 -0.7206
 3204SOL    HW214424   5.706   9.219  11.190  0.8389 -0.1065 -0.7809
 3205SOL     OW14425   9.858  12.412   9.908 -0.2938 -0.2018 -0.2514
 3205SOL    HW114426   9.922  12.364   9.961 -1.6157 -1.1693  0.5146
 3205SOL    HW214427   9.826  12.348   9.845 -0.2925  0.3617 -0.8397
 3206SOL     OW14428   8.072   0.954   9.282 -0.1835 -0.5879 -0.5397
 3206SOL    HW114429   8.150   0.965   9.226 -0.2127 -0.9145 -0.6488
 3206SOL    HW214430   8.069   0.860   9.299  0.6779 -0.3360  1.2425
 3207SOL     OW14431   5.184   0.146  10.200  0.1748 -0.3542 -0.2492
 3207SOL    HW114432   5.231   0.229  10.201  1.2789 -0.9587  0.7191
 3207SOL    HW214433   5.101   0.165  10.157  0.4359  1.2276 -0.0876
 3208SOL     OW14434   4.833   6.545   8.204  0.3214  0.1671 -0.3109
 3208SOL    HW114435   4.889   6.482   8.249 -1.1439  0.1541  1.6119
 3208SOL    HW214436   4.772   6.492   8.153 -1.2998 -0.0959  1.7743
 3209SOL     OW14437  11.188   3.122   6.255 -0.8550 -0.0461  0.0948
 3209SOL    HW114438  11.233   3.088   6.333 -3.1997 -1.1437  1.0754
 3209SOL    HW214439  11.220   3.068   6.183 -0.5272 -0.7204  0.7358
 3210SOL     OW14440   2.152  11.126   0.515  0.0990 -0.1371 -0.3275
 3210SOL    HW114441   2.094  11.070   0.464 -0.6379 -0.0760  0.4226
 3210SOL    HW214442   2.236  11.122   0.469 -0.8520  0.9220 -2.2448
 3211SOL     OW14443   1.927   9.421   7.301  0.4252  0.1884  0.2144
 3211SOL    HW114444   1.939   9.513   7.280  0.8758  0.2887  0.8756
 3211SOL    HW214445   1.845   9.417   7.349  1.1399  0.4901  1.5292
 3212SOL     OW14446   2.092   7.378   9.914 -0.2074  0.3521  0.0892
 3212SOL    HW114447   2.048   7.346   9.835  0.3710  1.6548 -0.8074
 3212SOL    HW214448   2.149   7.306   9.941 -1.7623 -0.8169  0.4350
 3213SOL     OW14449   2.237   7.165   4.688  0.0845  0.3723 -0.8938
 3213SOL    HW114450   2.318   7.171   4.638 -0.1894 -0.6915 -1.4784
 3213SOL    HW214451   2.178   7.227   4.645  0.5881  1.1873 -0.4353
 3214SOL     OW14452   9.885   0.865   7.557  0.3245  0.3241 -0.7128
 3214SOL    HW114453   9.841   0.940   7.517 -1.5939 -1.3870 -1.9860
 3214SOL    HW214454   9.900   0.804   7.485  0.7276 -1.0490  0.4868
 3215SOL     OW14455   3.083   9.155   1.760 -0.2790 -0.3535 -0.2989
 3215SOL    HW114456   2.999   9.142   1.804 -0.4528  0.9612 -0.2050
 3215SOL    HW214457   3.139   9.194   1.826 -0.4582  1.3803 -1.1082
 3216SOL     OW14458   2.642  11.507   7.303 -0.2969 -0.0204  0.1779
 3216SOL    HW114459   2.634  11.417   7.273 -0.2568 -0.4379  1.3468
 3216SOL    HW214460   2.726  11.538   7.269 -1.0200  0.1404 -1.5769
 3217SOL     OW14461  10.934   0.470   8.150  0.3715 -0.1277  0.3747
 3217SOL    HW114462  10.949   0.380   8.122 -0.0822  0.2483 -1.1832
 3217SOL    HW214463  10.882   0.463   8.230  0.8772 -1.2381  0.6192
 3218SOL     OW14464   7.960   2.503   0.887 -0.3183 -0.1460  0.4921
 3218SOL    HW114465   7.941   2.530   0.977 -0.7932 -1.0685  0.6810
 3218SOL    HW214466   7.976   2.409   0.893  2.7327  0.2585  0.0810
 3219SOL     OW14467   0.145   7.145   2.047 -0.1686 -0.4634  0.1070
 3219SOL    HW114468   0.135   7.239   2.056 -0.1876 -0.4464 -0.0790
 3219SOL    HW214469   0.062   7.109   2.077 -0.9736 -0.2982 -1.7889
 3220SOL     OW14470   1.318   9.172   6.502  0.6545  0.2295 -0.1275
 3220SOL    HW114471   1.413   9.184   6.510  1.0891 -2.2642 -0.7104
 3220SOL    HW214472   1.305   9.078   6.516 -1.1947 -0.3053 -4.1339
 3221SOL     OW14473   6.516   4.385  10.757 -1.1139  0.3621  0.3645
 3221SOL    HW114474   6.578   4.316  10.734 -1.1155  0.9980 -1.7787
 3221SOL    HW214475   6.448   4.341  10.808 -0.3792 -0.9133  0.2753
 3222SOL     OW14476   7.731   6.688  10.577  0.4236  0.4594 -0.2550
 3222SOL    HW114477   7.692   6.601  10.572  1.5621 -0.1331  0.5661
 3222SOL    HW214478   7.797   6.680  10.646 -0.9516  2.5988  1.3849
 3223SOL     OW14479  12.250  10.782   2.353 -0.0176 -0.2362  0.1080
 3223SOL    HW114480  12.177  10.763   2.294  0.2320 -0.2533 -0.1999
 3223SOL    HW214481  12.216  10.764   2.440 -0.3440 -0.3590 -0.0431
 3224SOL     OW14482   0.535   6.737  12.419 -0.1017  0.7981 -0.3273
 3224SOL    HW114483   0.446   6.714  12.448 -0.2998  1.3247 -0.4980
 3224SOL    HW214484   0.535   6.833  12.418  0.6578  0.8072  0.2249
 3225SOL     OW14485  10.187   6.678   3.363  0.2138 -0.2721 -0.4875
 3225SOL    HW114486  10.224   6.687   3.451  1.1120  1.4001 -0.9866
 3225SOL    HW214487  10.171   6.584   3.353  2.2651 -0.7984  0.6123
 3226SOL     OW14488   5.459   8.239   9.830 -0.2498 -0.1662  0.1849
 3226SOL    HW114489   5.397   8.218   9.900 -0.7534  1.5260  0.2851
 3226SOL    HW214490   5.450   8.166   9.768 -2.3241  0.0032  0.2200
 3227SOL     OW14491  11.256   0.346   7.229  0.2642 -0.2690  0.2675
 3227SOL    HW114492  11.220   0.323   7.143 -0.0502  1.6084 -0.1620
 3227SOL    HW214493  11.345   0.311   7.227  0.3312 -0.0912 -0.9223
 3228SOL     OW14494   9.136   0.846   6.802 -0.4766  0.5058  0.0347
 3228SOL    HW114495   9.100   0.772   6.754  1.9281  0.4960 -1.9365
 3228SOL    HW214496   9.161   0.810   6.887 -0.3291 -0.6784 -0.4948
 3229SOL     OW14497  10.206   3.350   0.267 -0.5448  0.4611 -0.2652
 3229SOL    HW114498  10.292   3.324   0.300  0.5077  4.5682  0.8100
 3229SOL    HW214499  10.197   3.302   0.185  2.1284 -1.1573  0.2545
 3230SOL     OW14500   2.750   5.577   9.718 -0.0686 -0.2579  0.0368
 3230SOL    HW114501   2.763   5.671   9.712  1.6696 -0.4259  0.4860
 3230SOL    HW214502   2.682   5.558   9.653  0.5655  1.1195 -1.0903
 3231SOL     OW14503   4.357  10.937  11.639  0.7760 -0.5190  0.3602
 3231SOL    HW114504   4.435  10.918  11.587  0.3254 -2.0564  0.2113
 3231SOL    HW214505   4.390  10.985  11.715  1.5467  1.0074 -0.8882
 3232SOL     OW14506   2.292   6.606  11.358 -0.3713  0.2842  0.0925
 3232SOL    HW114507   2.304   6.667  11.431 -0.7858 -0.5409  0.8750
 3232SOL    HW214508   2.377   6.604  11.314  0.4100 -0.4397  1.5539
 3233SOL     OW14509   1.367  10.089   8.022 -0.2114 -0.1721  0.2504
 3233SOL    HW114510   1.302  10.136   7.970 -1.5522 -2.5192 -0.3365
 3233SOL    HW214511   1.316  10.030   8.076  1.4034 -2.4125 -0.5283
 3234SOL     OW14512   2.830  11.986   7.798 -0.5969 -0.5646 -0.1656
 3234SOL    HW114513   2.811  11.908   7.851 -0.5850 -2.0191 -2.1568
 3234SOL    HW214514   2.860  11.950   7.714  0.2733  1.6248 -0.8472
 3235SOL     OW14515   4.335   8.556   6.765  0.2009  0.0391 -0.3026
 3235SOL    HW114516   4.406   8.492   6.771  2.1167  1.8833 -1.7738
 3235SOL    HW214517   4.345   8.595   6.678 -1.4898  1.6482  0.1626
 3236SOL     OW14518   4.500  10.236   9.342 -0.0043 -0.2535  0.6826
 3236SOL    HW114519   4.438  10.163   9.331 -1.7860  1.1399  0.9438
 3236SOL    HW214520   4.472  10.278   9.423  0.1564  1.4534 -0.1085
 3237SOL     OW14521   4.566   6.695   1.129 -0.4209  0.2831 -0.0924
 3237SOL    HW114522   4.555   6.763   1.062 -2.3089  0.6220  0.5140
 3237SOL    HW214523   4.567   6.613   1.080  0.2291  0.6403 -0.6910
 3238SOL     OW14524   7.055   4.502   7.087 -0.2049 -0.9692 -0.1417
 3238SOL    HW114525   7.030   4.594   7.095 -2.2108 -1.4231 -0.5642
 3238SOL    HW214526   7.053   4.468   7.176  1.6442 -0.3808  0.1596
 3239SOL     OW14527   9.347   7.607   2.521  0.7467 -0.1399  0.4191
 3239SOL    HW114528   9.265   7.560   2.536 -0.3103  2.0081  1.9123
 3239SOL    HW214529   9.344   7.629   2.428  0.5670 -1.6823  0.0295
 3240SOL     OW14530   3.741   2.444  12.102  0.6114  0.3244 -0.1704
 3240SOL    HW114531   3.686   2.411  12.173 -0.1174  0.3810 -0.6927
 3240SOL    HW214532   3.827   2.459  12.142  0.1352  0.6314  0.7640
 3241SOL     OW14533   9.886   3.447   7.361  0.6691 -0.7107 -0.0672
 3241SOL    HW114534   9.858   3.539   7.355 -1.9832 -1.4772 -0.8100
 3241SOL    HW214535   9.824   3.408   7.423  2.9434 -1.6605  1.7419
 3242SOL     OW14536  11.268  11.385  12.030  0.5985  0.3084  0.1973
 3242SOL    HW114537  11.295  11.406  12.120  1.1377  1.8082 -0.2792
 3242SOL    HW214538  11.326  11.313  12.004  1.2422  0.6506  0.6595
 3243SOL     OW14539   0.705   5.297   9.136  0.2795  0.3180 -0.1297
 3243SOL    HW114540   0.671   5.295   9.225  1.6202  0.1531  0.4063
 3243SOL    HW214541   0.629   5.277   9.081 -0.2220 -1.3117  1.0716
 3244SOL     OW14542   5.067  10.998   9.684 -0.5906 -0.3638 -0.2356
 3244SOL    HW114543   5.124  11.010   9.607 -1.4375 -2.6977 -1.3145
 3244SOL    HW214544   5.127  10.975   9.755 -0.0754 -2.5401 -1.2984
 3245SOL     OW14545   3.068   9.471   8.011 -0.2423  0.3704  0.3594
 3245SOL    HW114546   3.116   9.492   7.931  0.4651 -0.4772  0.5429
 3245SOL    HW214547   3.116   9.517   8.080 -0.1904  0.2081  0.4331
 3246SOL     OW14548  10.875   2.268   5.813 -0.0493  0.4443  0.1964
 3246SOL    HW114549  10.966   2.298   5.816 -0.5660  2.0908  2.4461
 3246SOL    HW214550  10.826   2.342   5.777 -0.8323  0.8254  1.9173
 3247SOL     OW14551   7.846  11.917   3.070  0.2411  0.8204  0.3787
 3247SOL    HW114552   7.847  11.847   3.135 -0.4925  1.1092  0.7173
 3247SOL    HW214553   7.836  11.998   3.121 -1.6331  0.9564 -0.1216
 3248SOL     OW14554   2.477   2.220   9.997  0.3531 -0.4811  0.0799
 3248SOL    HW114555   2.516   2.170  10.069  1.0212  0.7723  0.6148
 3248SOL    HW214556   2.423   2.286  10.039  2.8062  1.9937 -0.3790
 3249SOL     OW14557   4.804   6.646   7.067 -0.2814  0.0539 -0.0690
 3249SOL    HW114558   4.885   6.627   7.019  0.3180  1.1806  0.4474
 3249SOL    HW214559   4.831   6.644   7.159 -0.9036  0.1717  0.1159
 3250SOL     OW14560   6.680  10.099   9.368  0.6152  0.0060 -0.0214
 3250SOL    HW114561   6.674  10.151   9.289 -0.0434  1.0469  0.6938
 3250SOL    HW214562   6.763  10.125   9.408  0.6909 -0.1211 -0.0956
 3251SOL     OW14563  10.194   5.708   0.686  0.1757  0.0339  0.2075
 3251SOL    HW114564  10.139   5.753   0.750  0.0542 -1.0837  0.9305
 3251SOL    HW214565  10.133   5.651   0.638  0.3410  0.5158 -0.5895
 3252SOL     OW14566  10.813   9.897  10.907  0.5819 -0.3654 -0.5008
 3252SOL    HW114567  10.882   9.958  10.933  1.1801 -1.2173 -0.0182
 3252SOL    HW214568  10.845   9.858  10.826  0.9475 -1.1551  0.0053
 3253SOL     OW14569   9.440   4.235  12.585 -0.4554  0.1551 -0.5976
 3253SOL    HW114570   9.352   4.231  12.623  0.6334  2.6950  2.6728
 3253SOL    HW214571   9.493   4.181  12.645  0.3428 -1.1106 -2.3666
 3254SOL     OW14572   5.293   1.098   1.007 -0.2440  0.6145  0.5284
 3254SOL    HW114573   5.294   1.012   1.049  1.2533  0.3503 -0.0083
 3254SOL    HW214574   5.200   1.121   1.003 -0.5485 -0.1571  2.3135
 3255SOL     OW14575   7.525   8.378   2.350  0.0230  0.7098 -0.0959
 3255SOL    HW114576   7.590   8.330   2.401 -1.3135 -0.9739  0.1344
 3255SOL    HW214577   7.564   8.383   2.262  0.6579  0.1309  0.1366
 3256SOL     OW14578  10.714   4.485  12.545 -0.2221 -0.1730  0.0252
 3256SOL    HW114579  10.704   4.578  12.524 -0.4665 -0.6663 -2.4003
 3256SOL    HW214580  10.806   4.466  12.526 -0.3231 -0.5587 -0.0745
 3257SOL     OW14581   2.162   3.632   8.934  0.0570  0.4144  0.3067
 3257SOL    HW114582   2.092   3.697   8.937  0.5477  1.0300 -0.9127
 3257SOL    HW214583   2.149   3.579   9.013 -0.1053  2.2309  1.5501
 3258SOL     OW14584   5.750   6.857   4.751 -0.1453  0.6032 -0.8171
 3258SOL    HW114585   5.832   6.821   4.715 -0.0401  0.4983 -0.4801
 3258SOL    HW214586   5.776   6.893   4.836 -0.2897  1.3095 -1.0732
 3259SOL     OW14587   1.901   2.075   2.318  0.4881  0.2837 -0.7457
 3259SOL    HW114588   1.883   2.040   2.232 -2.1193  1.5074 -0.8138
 3259SOL    HW214589   1.900   1.999   2.377  0.9319 -0.3894 -1.5961
 3260SOL     OW14590   6.279   0.403  12.128  0.1053  0.9839  0.1539
 3260SOL    HW114591   6.188   0.384  12.102  0.7348  0.3353 -1.7415
 3260SOL    HW214592   6.281   0.498  12.140 -0.9122  0.9610  0.6098
 3261SOL     OW14593   5.638   3.250   5.061  0.7380  0.2176  0.0243
 3261SOL    HW114594   5.691   3.243   4.981  1.7374 -0.1396  0.7003
 3261SOL    HW214595   5.697   3.289   5.125  0.3800 -0.7593  0.9676
 3262SOL     OW14596   9.740   3.683   4.268  0.4168  0.0845  0.0263
 3262SOL    HW114597   9.669   3.696   4.332  0.4603  1.9587 -0.2755
 3262SOL    HW214598   9.712   3.607   4.217 -0.2871 -0.5872  1.3586
 3263SOL     OW14599   7.355   2.914   1.377  0.1163 -0.5036  0.3382
 3263SOL    HW114600   7.314   2.926   1.463  1.4450 -1.5728  1.1741
 3263SOL    HW214601   7.443   2.881   1.397  0.8941  0.3666 -1.4064
 3264SOL     OW14602   0.156   6.356  11.187  0.0350 -0.3278 -0.3640
 3264SOL    HW114603   0.097   6.326  11.117 -1.4196  0.2428  0.5666
 3264SOL    HW214604   0.106   6.424  11.232  1.7826  0.8305 -0.0763
 3265SOL     OW14605   1.311   6.654   6.324  0.0282  0.0368 -0.6027
 3265SOL    HW114606   1.305   6.669   6.419 -1.5071 -1.4756 -0.4035
 3265SOL    HW214607   1.257   6.722   6.286 -1.8842 -1.1160 -0.1255
 3266SOL     OW14608   5.280   7.950   8.509 -0.7877 -0.0125  0.0363
 3266SOL    HW114609   5.336   8.024   8.490 -1.1037  0.6123  1.4214
 3266SOL    HW214610   5.323   7.904   8.581 -1.9765  0.4244  1.0616
 3267SOL     OW14611   9.781   1.669   4.764  0.2381  0.2913  0.2020
 3267SOL    HW114612   9.792   1.762   4.781 -1.2910  0.5833 -0.2497
 3267SOL    HW214613   9.865   1.641   4.727  0.9260  1.3336  0.9257
 3268SOL     OW14614   0.944   0.396   7.992  0.9206 -0.0822  0.3855
 3268SOL    HW114615   0.990   0.417   7.911  1.1304 -0.5264  0.3875
 3268SOL    HW214616   0.968   0.467   8.052  0.9094  0.1495  0.1173
 3269SOL     OW14617   7.635   2.529   8.275 -0.0688 -0.1895 -0.2523
 3269SOL    HW114618   7.550   2.524   8.232  1.0439 -1.2119 -2.4888
 3269SOL    HW214619   7.641   2.619   8.306 -1.4685  0.2403 -1.1439
 3270SOL     OW14620   1.776   1.939   8.859 -0.0615  0.4247 -0.2014
 3270SOL    HW114621   1.756   2.031   8.840  3.2483  1.3974  0.3391
 3270SOL    HW214622   1.758   1.930   8.953  0.2350  0.7030 -0.1190
 3271SOL     OW14623  11.338   4.778   4.241  0.0703  0.1514 -0.1714
 3271SOL    HW114624  11.318   4.720   4.166  0.8942  1.0288 -1.1072
 3271SOL    HW214625  11.422   4.746   4.273 -0.8251 -0.9780  1.1834
 3272SOL     OW14626   1.251  11.409   5.511 -0.0481 -0.2378  0.4544
 3272SOL    HW114627   1.262  11.504   5.509  1.8487 -0.3773  1.9984
 3272SOL    HW214628   1.192  11.394   5.585 -1.3097 -0.2218 -0.5216
 3273SOL     OW14629   5.953  10.764   9.058  0.5624  0.3924  0.1938
 3273SOL    HW114630   5.877  10.767   9.116  0.7968  0.8444  0.4900
 3273SOL    HW214631   6.010  10.835   9.090  0.4524  1.0143 -0.9270
 3274SOL     OW14632   5.566   9.268   2.217  0.6741  0.4210 -0.1021
 3274SOL    HW114633   5.606   9.326   2.282  0.5324  0.6138 -0.1866
 3274SOL    HW214634   5.499   9.321   2.175  1.7996  0.7956 -1.4847
 3275SOL     OW14635   9.460   2.715   6.401  0.2245 -0.3630 -0.1544
 3275SOL    HW114636   9.480   2.694   6.310 -0.5906 -0.1636 -0.3877
 3275SOL    HW214637   9.420   2.635   6.436  0.4213 -0.3973 -0.0045
 3276SOL     OW14638   8.883   9.760   0.049  0.2517 -0.4492  0.1809
 3276SOL    HW114639   8.932   9.834   0.013  0.3473 -0.6884 -0.1871
 3276SOL    HW214640   8.878   9.778   0.143 -1.1133  0.8434 -0.0948
 3277SOL     OW14641   6.320   0.842   2.703  0.0066 -0.3908  0.7047
 3277SOL    HW114642   6.384   0.830   2.633  1.0128  4.0627  0.5848
 3277SOL    HW214643   6.236   0.849   2.658  0.0143 -1.8346  0.4270
 3278SOL     OW14644  12.629   3.050   9.244 -0.3708  0.0077  0.2745
 3278SOL    HW114645  12.672   2.977   9.200  0.4861 -0.1010  1.2606
 3278SOL    HW214646  12.582   3.096   9.174  0.6280 -0.3747 -0.6769
 3279SOL     OW14647   7.247   9.003   3.977 -0.0038  0.0236 -0.7883
 3279SOL    HW114648   7.212   8.943   3.911 -1.1622 -0.0500 -0.1285
 3279SOL    HW214649   7.185   9.076   3.978 -0.2416 -0.1813  0.5211
 3280SOL     OW14650   0.741  12.312  12.271  0.7458  0.6507 -0.6220
 3280SOL    HW114651   0.661  12.266  12.299 -0.0913  2.8240  0.8401
 3280SOL    HW214652   0.711  12.372  12.203  1.0712  1.5964  0.0520
 3281SOL     OW14653   8.168   1.628   9.016 -0.0934 -0.5779 -0.3225
 3281SOL    HW114654   8.167   1.696   9.083  1.4289 -2.2963  1.5779
 3281SOL    HW214655   8.259   1.626   8.986 -0.0686 -1.8492 -0.2085
 3282SOL     OW14656  11.805   0.387   3.508 -0.0960  0.4119 -0.4135
 3282SOL    HW114657  11.741   0.406   3.576 -0.0961 -1.3195  0.1003
 3282SOL    HW214658  11.761   0.412   3.427 -0.6751  1.0521  0.0791
 3283SOL     OW14659   4.996   6.766   8.166  0.8673  0.3184 -0.0657
 3283SOL    HW114660   4.937   6.703   8.208  0.7910  0.4353  0.0039
 3283SOL    HW214661   4.973   6.762   8.073  1.1690 -0.0822 -0.1243
 3284SOL     OW14662  11.938  11.113   2.401 -0.2118 -0.7983  0.4486
 3284SOL    HW114663  11.963  11.184   2.460 -0.2901  0.4189 -0.8936
 3284SOL    HW214664  12.015  11.102   2.344 -0.9987 -0.1895 -0.7888
 3285SOL     OW14665   8.618   5.016   5.883 -0.0504  0.0604  0.4717
 3285SOL    HW114666   8.697   4.993   5.932 -0.5862 -0.1203  1.2580
 3285SOL    HW214667   8.585   4.933   5.850  0.3811  0.1916 -0.3467
 3286SOL     OW14668   4.402   1.439   7.844 -0.5228 -0.4548 -0.5233
 3286SOL    HW114669   4.384   1.351   7.812  1.2762 -0.2654 -2.3062
 3286SOL    HW214670   4.479   1.467   7.793  0.1168  1.4146  1.3363
 3287SOL     OW14671   9.051   4.696   2.641 -0.6774  0.7103 -0.1360
 3287SOL    HW114672   9.015   4.638   2.574  1.2090  1.4973 -1.9421
 3287SOL    HW214673   8.985   4.765   2.650 -0.6475  0.9985 -1.7885
 3288SOL     OW14674   9.904  12.129   8.297  0.1514 -0.3806  0.1630
 3288SOL    HW114675   9.841  12.197   8.274 -0.8124 -0.3649  2.5124
 3288SOL    HW214676   9.944  12.103   8.214 -2.0861  0.4798 -1.2668
 3289SOL     OW14677   8.907   3.103   0.285 -0.0726  0.0784 -0.0016
 3289SOL    HW114678   8.859   3.027   0.254  1.6246 -1.5824  1.2156
 3289SOL    HW214679   8.926   3.153   0.206 -0.3774 -1.2772 -0.9733
 3290SOL     OW14680   6.428   9.512   4.937  0.8977  0.4672  0.3078
 3290SOL    HW114681   6.453   9.428   4.897  1.0961  0.5198  0.3211
 3290SOL    HW214682   6.511   9.551   4.965  0.8016  0.6489  0.3405
 3291SOL     OW14683   0.659   7.206   3.833 -0.6826  0.4404 -0.4333
 3291SOL    HW114684   0.587   7.185   3.774 -1.5725  0.9195  0.4535
 3291SOL    HW214685   0.617   7.230   3.916  0.5019  0.4558  0.1977
 3292SOL     OW14686   9.481  11.544   3.399 -0.1508 -0.1088  0.1668
 3292SOL    HW114687   9.452  11.545   3.308 -2.7699 -1.1843  0.9025
 3292SOL    HW214688   9.418  11.599   3.445  0.7554 -0.0867  1.4400
 3293SOL     OW14689   8.591  10.720  11.483  0.2491 -0.0960 -0.0707
 3293SOL    HW114690   8.596  10.678  11.569  1.6342 -2.2090 -1.0898
 3293SOL    HW214691   8.515  10.681  11.440 -0.3943  0.8964  0.1338
 3294SOL     OW14692   3.839   4.597   0.537 -0.4971 -0.8081  0.7335
 3294SOL    HW114693   3.839   4.622   0.630 -0.6766  3.7479 -0.2428
 3294SOL    HW214694   3.747   4.578   0.518 -0.7010 -0.3248  1.1925
 3295SOL     OW14695  10.954  12.136   2.788  0.3496 -0.4266  0.4510
 3295SOL    HW114696  10.867  12.133   2.827 -0.0909 -0.6154 -0.5218
 3295SOL    HW214697  11.011  12.162   2.860 -0.5674  0.1328  0.9995
 3296SOL     OW14698   2.028   6.265  10.440  0.4405  0.5256 -0.2264
 3296SOL    HW114699   1.986   6.344  10.407  2.0905  2.9046  2.8234
 3296SOL    HW214700   1.964   6.228  10.500  0.5801  1.0315  0.2488
 3297SOL     OW14701   7.590   6.761  12.462  0.0418  0.3002 -0.7426
 3297SOL    HW114702   7.599   6.836  12.521  1.1550 -0.3817 -0.0018
 3297SOL    HW214703   7.605   6.684  12.518 -0.4076 -0.4511 -1.6172
 3298SOL     OW14704   3.791   4.766   1.181  0.8063 -0.3486 -0.2885
 3298SOL    HW114705   3.883   4.787   1.198  0.3583 -0.1310  2.2128
 3298SOL    HW214706   3.785   4.671   1.195  0.4042 -0.1460  1.1143
 3299SOL     OW14707  11.698  10.994   5.394  0.2168  0.4950 -0.2653
 3299SOL    HW114708  11.617  10.944   5.378  1.3910 -0.7602 -2.8950
 3299SOL    HW214709  11.683  11.078   5.350  0.0299  0.6058  0.0066
 3300SOL     OW14710   1.757   1.833   3.087 -0.5097  0.3931 -0.7079
 3300SOL    HW114711   1.796   1.759   3.041 -1.1613 -0.6761  0.4014
 3300SOL    HW214712   1.665   1.832   3.058 -0.9273 -0.2945  0.5638
 3301SOL     OW14713   1.103  11.745   7.123 -0.3556  0.3267  0.3969
 3301SOL    HW114714   1.069  11.814   7.067  1.0704  1.1474  0.4873
 3301SOL    HW214715   1.176  11.708   7.073 -0.0295  0.0465  1.0750
 3302SOL     OW14716  11.873   5.143   4.348 -0.7647 -0.0315  0.0829
 3302SOL    HW114717  11.788   5.113   4.381 -1.3542 -1.4770 -2.4824
 3302SOL    HW214718  11.854   5.225   4.303 -0.9373 -0.5977 -0.9077
 3303SOL     OW14719   7.204   6.213   6.003  0.1406  0.2024 -0.0494
 3303SOL    HW114720   7.116   6.237   6.032  1.0972  1.0432  2.4290
 3303SOL    HW214721   7.217   6.125   6.038  0.4355  0.2469 -0.0475
 3304SOL     OW14722   7.809   1.184   4.816  0.0134  0.3958 -0.4345
 3304SOL    HW114723   7.748   1.167   4.744 -1.0828 -0.9127  0.7446
 3304SOL    HW214724   7.768   1.143   4.892  3.3324 -2.5651  0.0312
 3305SOL     OW14725   6.929   9.774  12.315  0.2151 -0.0039  0.2074
 3305SOL    HW114726   6.912   9.867  12.299  1.9737  0.1242 -1.2236
 3305SOL    HW214727   7.007   9.772  12.370  1.3987 -0.6097 -1.4163
 3306SOL     OW14728  11.626   9.418   7.705  0.2644 -0.7767  0.7265
 3306SOL    HW114729  11.629   9.331   7.745  1.8178  0.1079  2.6968
 3306SOL    HW214730  11.696   9.467   7.747  0.6020  0.9416 -1.6030
 3307SOL     OW14731   1.163   3.653   2.050 -0.0255  0.1494  0.3598
 3307SOL    HW114732   1.106   3.717   2.008  0.2800  1.3440  1.6563
 3307SOL    HW214733   1.227   3.631   1.983 -0.9848  0.0962 -0.5715
 3308SOL     OW14734   0.689   4.450   2.995  0.4630 -0.1235 -0.4067
 3308SOL    HW114735   0.622   4.517   2.979  0.0113 -0.7668 -1.3203
 3308SOL    HW214736   0.727   4.433   2.908  2.1984  0.6015  0.1720
 3309SOL     OW14737  12.486   1.128   8.340 -0.0184 -0.1345  0.1308
 3309SOL    HW114738  12.509   1.088   8.424  0.8597  0.1702  0.0483
 3309SOL    HW214739  12.405   1.177   8.357 -0.9433 -1.6585  0.3083
 3310SOL     OW14740   1.890   5.210   0.396 -0.5699 -0.5559 -0.1926
 3310SOL    HW114741   1.910   5.149   0.325  1.2792 -2.1854  1.5876
 3310SOL    HW214742   1.804   5.183   0.428 -0.1515 -1.7068  0.0030
 3311SOL     OW14743  10.313   3.876   0.789  0.2135 -0.3529  0.0370
 3311SOL    HW114744  10.309   3.958   0.838  0.2239 -0.2599 -0.1159
 3311SOL    HW214745  10.378   3.893   0.721  0.1515 -0.4598 -0.0480
 3312SOL     OW14746   2.989   5.569   3.423  0.3179  0.3408 -0.0349
 3312SOL    HW114747   3.048   5.631   3.380  1.7450 -0.8509  0.1309
 3312SOL    HW214748   3.037   5.539   3.500 -1.6528  1.4079  1.7314
 3313SOL     OW14749   2.892   3.305   7.983 -0.1943 -0.3977  0.6187
 3313SOL    HW114750   2.806   3.273   7.958 -0.2387  0.3920 -0.3040
 3313SOL    HW214751   2.890   3.308   8.079 -2.5354  3.0322  0.6487
 3314SOL     OW14752   4.329  11.468   0.859 -0.1493  0.3486  0.2020
 3314SOL    HW114753   4.276  11.469   0.938  1.3782  0.2285  1.2865
 3314SOL    HW214754   4.417  11.490   0.889  0.6796 -0.7013 -1.3016
 3315SOL     OW14755   7.947   3.010  10.669  0.2683  0.1670 -0.5395
 3315SOL    HW114756   7.880   3.033  10.733 -1.8023 -0.0024 -2.5205
 3315SOL    HW214757   8.007   3.085  10.669 -0.7715  1.0281  0.2351
 3316SOL     OW14758   4.919   1.689   6.018  0.2002  0.2140  0.1507
 3316SOL    HW114759   4.865   1.698   6.097  1.6269 -1.6440  1.4503
 3316SOL    HW214760   4.869   1.632   5.960 -0.3964  0.7261  0.1528
 3317SOL     OW14761   4.954   5.454   3.849  0.2647 -0.3726 -0.2860
 3317SOL    HW114762   4.979   5.493   3.765 -0.4235  0.6705 -0.0196
 3317SOL    HW214763   4.971   5.522   3.914  0.2035 -0.9492  0.3514
 3318SOL     OW14764   5.147   0.305   3.694  0.4151 -0.3539 -0.6532
 3318SOL    HW114765   5.193   0.309   3.778  1.2221 -0.0355 -1.1069
 3318SOL    HW214766   5.145   0.395   3.663 -1.6074 -0.1451 -0.0819
 3319SOL     OW14767   6.058   4.563   9.195 -0.4461  0.1636  0.1895
 3319SOL    HW114768   6.070   4.515   9.113  0.0851  0.0011  0.3550
 3319SOL    HW214769   5.990   4.628   9.176 -0.6203 -0.1504 -0.2570
 3320SOL     OW14770   9.858   3.906   8.442 -0.0953 -0.1276  0.0341
 3320SOL    HW114771   9.931   3.967   8.456 -1.2831  1.1627  0.9569
 3320SOL    HW214772   9.802   3.950   8.379 -1.2464  0.0312  1.1219
 3321SOL     OW14773  10.700   1.450   2.692 -0.4863 -0.2585  0.6792
 3321SOL    HW114774  10.662   1.364   2.675  0.4085 -0.5004 -0.2158
 3321SOL    HW214775  10.725   1.448   2.784 -0.4342 -0.9831  0.6530
 3322SOL     OW14776   3.343   4.673   1.959  0.3041  0.3353 -0.2089
 3322SOL    HW114777   3.396   4.650   2.036  1.7301 -0.2629 -1.3413
 3322SOL    HW214778   3.366   4.608   1.893 -1.9222  0.0080 -0.7502
 3323SOL     OW14779   4.207   4.242  11.352 -0.1872  0.3697 -0.4269
 3323SOL    HW114780   4.140   4.180  11.322 -0.3884 -0.9924  2.4553
 3323SOL    HW214781   4.182   4.325  11.312 -1.5291 -0.8166 -2.2226
 3324SOL     OW14782   8.078   0.106   2.475  0.2970 -0.4548 -0.0012
 3324SOL    HW114783   8.090   0.199   2.456  1.3160 -0.3125  1.2400
 3324SOL    HW214784   8.142   0.061   2.421 -0.1718 -0.4408 -0.5746
 3325SOL     OW14785   1.872   5.862   0.094  0.2613 -0.2569 -0.4726
 3325SOL    HW114786   1.867   5.946   0.050  0.8567  0.0513  0.0322
 3325SOL    HW214787   1.883   5.884   0.187 -0.9687 -0.8908 -0.1568
 3326SOL     OW14788   9.874   5.673   9.772 -0.2419 -0.6615 -0.4101
 3326SOL    HW114789   9.857   5.715   9.856 -0.3098 -0.1225 -0.6851
 3326SOL    HW214790   9.838   5.734   9.708  1.3231 -0.2366 -0.9249
 3327SOL     OW14791   1.299   0.686   2.318 -0.3233 -0.1338 -0.3077
 3327SOL    HW114792   1.365   0.747   2.285 -0.8803 -0.3073 -1.8271
 3327SOL    HW214793   1.221   0.705   2.266 -1.2845 -0.3856  0.9975
 3328SOL     OW14794   7.848   6.698   0.012 -0.2878 -0.3795 -0.9304
 3328SOL    HW114795   7.844   6.625  -0.049 -0.5150  0.1012 -1.5081
 3328SOL    HW214796   7.936   6.695   0.049 -0.3876 -1.0966 -0.7505
 3329SOL     OW14797  10.276  11.650   0.215  0.2308  0.1161  0.5973
 3329SOL    HW114798  10.189  11.681   0.192  0.8427  1.5798  0.1705
 3329SOL    HW214799  10.275  11.557   0.191 -1.4031 -0.0620  1.2154
 3330SOL     OW14800   9.986   9.270   4.364  0.0017  0.7148 -0.2360
 3330SOL    HW114801   9.947   9.339   4.418 -1.1636 -1.2638  1.6061
 3330SOL    HW214802  10.079   9.290   4.364 -0.2217  1.9582  0.7454
 3331SOL     OW14803   6.145  10.547   9.903 -0.2801 -0.0019  0.2527
 3331SOL    HW114804   6.093  10.467   9.907 -0.7007  0.2648  0.1443
 3331SOL    HW214805   6.095  10.611   9.954 -2.0957  1.3897 -2.9064
 3332SOL     OW14806   4.224   9.727   7.684 -0.0683  0.3863  0.4796
 3332SOL    HW114807   4.273   9.712   7.765 -0.0134 -1.4955  0.1573
 3332SOL    HW214808   4.286   9.770   7.625  0.0585  1.2786  1.2598
 3333SOL     OW14809  10.510   6.352  12.040  0.3845  0.0916 -0.0199
 3333SOL    HW114810  10.529   6.355  11.947  0.8498 -0.5160  0.0506
 3333SOL    HW214811  10.553   6.273  12.072  1.8069  1.2412  1.0572
 3334SOL     OW14812   8.691   5.989  10.706  0.1071 -0.0415  0.0453
 3334SOL    HW114813   8.693   6.031  10.620  1.8052 -0.0555  0.0434
 3334SOL    HW214814   8.776   6.009  10.745  0.7312 -2.8234  0.3533
 3335SOL     OW14815   8.999  12.334  11.964 -0.5269  0.1181 -0.5181
 3335SOL    HW114816   9.080  12.288  11.986 -0.8328 -0.0857  0.2263
 3335SOL    HW214817   9.021  12.427  11.972  0.1784  0.1381 -2.3288
 3336SOL     OW14818   2.146  10.563  12.520 -0.1243 -0.4131 -0.1367
 3336SOL    HW114819   2.140  10.635  12.582 -1.1511 -0.2018 -0.4639
 3336SOL    HW214820   2.102  10.596  12.441  0.6456 -0.8869 -0.7847
 3337SOL     OW14821   0.488   9.018   8.316 -0.0833  0.1050 -0.1430
 3337SOL    HW114822   0.416   8.998   8.256 -0.7796 -0.7698  0.9358
 3337SOL    HW214823   0.567   8.997   8.267 -0.6221 -0.1090 -0.9310
 3338SOL     OW14824   5.709   3.509   1.388 -0.0377 -0.3394  0.5786
 3338SOL    HW114825   5.776   3.475   1.329  1.0343  0.3160  1.3941
 3338SOL    HW214826   5.642   3.544   1.329  2.1044  2.5468 -0.3830
 3339SOL     OW14827  11.967  10.954   5.444  0.0017 -0.2381 -0.4494
 3339SOL    HW114828  11.873  10.954   5.428  0.0508 -0.4583 -0.7486
 3339SOL    HW214829  11.987  11.045   5.467 -0.3182 -0.2367 -0.1538
 3340SOL     OW14830  11.963   0.953   0.467 -0.2763  0.4235 -0.7000
 3340SOL    HW114831  12.031   0.982   0.527  0.4345  0.0986 -1.3264
 3340SOL    HW214832  11.984   0.997   0.384  0.6750 -1.5834 -1.6032
 3341SOL     OW14833   4.461   1.883   8.816  0.0756  0.3287 -0.1695
 3341SOL    HW114834   4.410   1.851   8.891 -1.3127  0.1894 -1.1155
 3341SOL    HW214835   4.513   1.955   8.851 -1.8548  1.4442  0.5944
 3342SOL     OW14836   1.567   5.615   1.241 -0.2370 -0.4789 -0.6495
 3342SOL    HW114837   1.655   5.649   1.255 -0.3570  0.3072 -1.6695
 3342SOL    HW214838   1.581   5.530   1.199  0.0326 -0.4044 -0.7122
 3343SOL     OW14839   2.364   4.117   2.518 -0.4422 -0.1072  0.0741
 3343SOL    HW114840   2.362   4.144   2.427  0.0631  2.2503  0.7097
 3343SOL    HW214841   2.280   4.144   2.554 -0.1205  0.1976  0.6185
 3344SOL     OW14842   6.761   6.025   2.819  0.0976  0.4059 -0.8504
 3344SOL    HW114843   6.679   5.985   2.789 -0.8714  0.2608  1.7234
 3344SOL    HW214844   6.733   6.100   2.873  1.4934 -0.7342  1.6433
 3345SOL     OW14845   9.079   7.532   0.060  0.4895  0.0670  0.0303
 3345SOL    HW114846   9.012   7.570   0.003 -0.4509 -0.2277  0.9142
 3345SOL    HW214847   9.146   7.600   0.066 -0.1931  0.7698 -0.0625
 3346SOL     OW14848   0.819   1.622  12.329  0.2804 -0.4803 -0.2910
 3346SOL    HW114849   0.746   1.590  12.277  0.7740 -1.9632 -0.0934
 3346SOL    HW214850   0.890   1.561  12.313  1.2574  0.4985  0.1303
 3347SOL     OW14851   7.625  10.461   3.470  0.0175 -0.1658 -0.0487
 3347SOL    HW114852   7.612  10.531   3.535 -0.0918 -0.5935  0.3949
 3347SOL    HW214853   7.536  10.436   3.444  0.0675  0.9233 -1.3783
 3348SOL     OW14854   4.752   9.578   2.070  0.3894  0.3066 -0.3144
 3348SOL    HW114855   4.665   9.608   2.093 -0.6393 -1.0392 -2.1850
 3348SOL    HW214856   4.810   9.650   2.094 -1.3294  1.5797  0.1604
 3349SOL     OW14857   3.762  10.589  11.686  0.1914 -0.4232  0.1503
 3349SOL    HW114858   3.740  10.626  11.772  0.2252  0.7481 -0.3382
 3349SOL    HW214859   3.799  10.503  11.707  0.0686 -0.2198  1.3049
 3350SOL     OW14860  12.441   9.011   4.024 -0.2523  0.7387 -0.1835
 3350SOL    HW114861  12.410   8.969   3.944  0.8282 -0.9229  0.2224
 3350SOL    HW214862  12.376   8.989   4.090  0.8316 -1.3358  0.2819
 3351SOL     OW14863   8.172   6.129   0.738  0.2749 -0.1346 -0.0609
 3351SOL    HW114864   8.227   6.107   0.813 -0.7732  0.7066  0.9911
 3351SOL    HW214865   8.214   6.085   0.664  1.5832 -0.6221  0.9301
 3352SOL     OW14866   1.487  11.722   5.638  0.3119  0.0216  0.5320
 3352SOL    HW114867   1.511  11.674   5.559 -1.0905  0.1393 -0.0074
 3352SOL    HW214868   1.424  11.788   5.607 -0.1996  0.1154  1.7249
 3353SOL     OW14869   4.588   4.798  10.019  0.4871  0.0127  0.1006
 3353SOL    HW114870   4.535   4.745   9.960  2.2302 -0.7449 -0.8852
 3353SOL    HW214871   4.592   4.884   9.977  1.1471 -0.3272 -0.5589
 3354SOL     OW14872   3.213   2.978   4.462  0.5874  0.0147  0.2527
 3354SOL    HW114873   3.186   2.902   4.514 -0.4341  1.2052  1.5655
 3354SOL    HW214874   3.148   2.985   4.393 -1.0581  1.3265  1.8455
 3355SOL     OW14875   3.392  11.935  11.616  0.3143  0.2136  0.3615
 3355SOL    HW114876   3.380  11.960  11.524 -0.2811  0.3309  0.4642
 3355SOL    HW214877   3.305  11.947  11.655  0.6595  0.5488  1.0327
 3356SOL     OW14878  12.157   6.973   2.040 -0.6700 -0.2002  0.9632
 3356SOL    HW114879  12.230   6.983   1.979 -0.3327  0.9018  1.5373
 3356SOL    HW214880  12.180   6.897   2.093 -1.7920 -2.3429 -1.3801
 3357SOL     OW14881  10.510   1.122  10.646 -0.0895  0.3649  0.1105
 3357SOL    HW114882  10.440   1.176  10.682 -0.6404 -0.0249 -0.3604
 3357SOL    HW214883  10.590   1.172  10.663 -0.6750  1.8898 -1.3311
 3358SOL     OW14884   7.791   2.155   5.739 -0.6035 -0.4322 -0.5943
 3358SOL    HW114885   7.748   2.159   5.824 -1.1216 -0.4757 -0.8524
 3358SOL    HW214886   7.756   2.230   5.690 -0.7654 -0.7559 -0.9782
 3359SOL     OW14887   5.417   3.387   0.432 -0.1387 -0.4680 -0.2250
 3359SOL    HW114888   5.377   3.442   0.365 -1.6661 -2.8308 -1.3885
 3359SOL    HW214889   5.345   3.359   0.488  1.0560  1.1669  2.3404
 3360SOL     OW14890   9.692   2.660   7.436  0.2271  0.0372  0.3392
 3360SOL    HW114891   9.677   2.689   7.346  1.4636  0.8847  0.3866
 3360SOL    HW214892   9.774   2.702   7.462 -0.3724  0.2260  2.0467
 3361SOL     OW14893   4.255  10.086  11.497  0.3879 -0.5384 -0.5189
 3361SOL    HW114894   4.276  10.030  11.572  2.4416  1.4116  0.4783
 3361SOL    HW214895   4.170  10.125  11.519  1.5081  0.9341  1.4499
 3362SOL     OW14896   3.919   9.891   5.888 -0.5063  0.5638 -0.2842
 3362SOL    HW114897   3.962   9.836   5.823 -0.1527 -0.3211  0.6815
 3362SOL    HW214898   3.874   9.830   5.946  1.0119  1.1732  1.6220
 3363SOL     OW14899   4.848   8.435   2.960  0.1341 -0.0396 -0.5314
 3363SOL    HW114900   4.841   8.339   2.965 -2.0571 -0.0558 -2.3651
 3363SOL    HW214901   4.837   8.465   3.050 -0.3529 -1.4712 -0.0894
 3364SOL     OW14902   7.428   1.701   1.340  0.1450 -0.0073  0.1064
 3364SOL    HW114903   7.401   1.736   1.425  1.0369  0.3566  0.2505
 3364SOL    HW214904   7.493   1.634   1.361 -0.4284 -0.6987 -0.2501
 3365SOL     OW14905   9.901   2.451   4.949  0.3783  0.1254  0.3657
 3365SOL    HW114906   9.958   2.517   4.990 -0.3194  2.2418 -1.8037
 3365SOL    HW214907   9.813   2.475   4.977 -0.0145  1.0515 -1.5155
 3366SOL     OW14908  11.979   0.630  11.557  0.4639  0.5294 -0.5881
 3366SOL    HW114909  11.955   0.679  11.635 -2.0514 -0.1533 -0.8438
 3366SOL    HW214910  12.030   0.692  11.505 -1.6827  2.5726 -0.4288
 3367SOL     OW14911   5.182  10.832   9.904 -0.6666  0.0580  0.5895
 3367SOL    HW114912   5.187  10.757   9.844 -0.5751  0.6960 -0.2163
 3367SOL    HW214913   5.166  10.793   9.990 -2.8694 -0.7896 -0.1204
 3368SOL     OW14914   7.158   3.754   2.371  0.2810  0.1612  0.5968
 3368SOL    HW114915   7.233   3.743   2.429  0.8969 -2.3196 -0.5273
 3368SOL    HW214916   7.082   3.734   2.426  0.7632 -0.9421  0.8789
 3369SOL     OW14917   9.101  11.086  12.015  0.2416 -0.8087  0.4844
 3369SOL    HW114918   9.113  11.041  11.931 -1.7676 -1.3014  0.4067
 3369SOL    HW214919   9.006  11.097  12.023  0.4507  0.0962  2.2595
 3370SOL     OW14920   2.046  12.470   1.510 -0.1037  0.4016  0.4921
 3370SOL    HW114921   2.104  12.396   1.530 -0.0464  0.4747  0.5966
 3370SOL    HW214922   1.994  12.440   1.435  1.7411  1.2057 -1.2111
 3371SOL     OW14923   7.224   7.830   4.101  0.0777  0.1085 -0.5987
 3371SOL    HW114924   7.159   7.842   4.171  0.0405 -2.2964 -0.1399
 3371SOL    HW214925   7.304   7.869   4.136  0.9540 -3.6217  2.3140
 3372SOL     OW14926  10.173   4.818  11.115 -0.5489  0.0754  0.0639
 3372SOL    HW114927  10.208   4.888  11.061 -0.0216 -0.9102 -0.9068
 3372SOL    HW214928  10.200   4.738  11.071 -1.1118 -0.7461  1.1638
 3373SOL     OW14929   1.786   7.532   4.382 -0.5013  0.0919 -0.0872
 3373SOL    HW114930   1.700   7.526   4.341 -0.0955  1.0787 -1.1198
 3373SOL    HW214931   1.829   7.450   4.358 -0.3896  0.5110 -1.3856
 3374SOL     OW14932   1.028   0.405   5.896  0.3760  0.0561  0.3740
 3374SOL    HW114933   1.096   0.470   5.880  1.4255 -1.3932 -1.5706
 3374SOL    HW214934   1.076   0.327   5.925 -0.7650 -0.1523  1.8039
 3375SOL     OW14935   2.143   3.664  12.050  0.6195  0.1735  0.2703
 3375SOL    HW114936   2.119   3.712  12.129 -0.6515  0.5089 -0.2967
 3375SOL    HW214937   2.174   3.731  11.989 -0.3934  0.1945 -0.2405
 3376SOL     OW14938   4.198   7.227   7.179  0.2406 -0.6914 -0.1781
 3376SOL    HW114939   4.246   7.231   7.262 -0.0460 -0.9673  0.0031
 3376SOL    HW214940   4.267   7.219   7.113  0.4661 -0.6107  0.0426
 3377SOL     OW14941   1.751   3.206   8.533 -0.0207 -0.0750 -0.2284
 3377SOL    HW114942   1.700   3.129   8.559 -0.8380 -0.3809 -2.4622
 3377SOL    HW214943   1.791   3.237   8.614 -0.4396 -2.2774  0.9066
 3378SOL     OW14944   0.687   2.287   4.472 -0.0042 -0.2846 -0.2674
 3378SOL    HW114945   0.619   2.250   4.529 -0.9359  1.0798 -0.4497
 3378SOL    HW214946   0.656   2.271   4.383  0.5582 -0.7826 -0.3844
 3379SOL     OW14947   1.993   2.932   9.259  0.0824  0.2441 -0.3485
 3379SOL    HW114948   1.917   2.948   9.203 -0.0114 -1.7803 -0.8577
 3379SOL    HW214949   2.068   2.948   9.203 -0.0046 -0.9118 -0.8028
 3380SOL     OW14950  11.454   3.149   9.642 -0.6537 -0.1292  0.2954
 3380SOL    HW114951  11.422   3.237   9.622 -0.6021 -0.3519 -0.8313
 3380SOL    HW214952  11.540   3.164   9.681 -1.4154  0.3932  1.8318
 3381SOL     OW14953   0.452  12.529   8.618  0.0495 -0.1646  0.5238
 3381SOL    HW114954   0.448  12.442   8.658  0.3802 -0.6946 -0.5525
 3381SOL    HW214955   0.418  12.516   8.530  0.0885  0.8131  0.3556
 3382SOL     OW14956   1.368  10.872   2.029  0.4272 -0.3811 -0.2706
 3382SOL    HW114957   1.462  10.855   2.024  0.4992 -0.0461 -0.1262
 3382SOL    HW214958   1.327  10.786   2.020  0.7693 -0.6209  0.4090
 3383SOL     OW14959   0.459   7.826   0.741  0.3407 -0.0891 -0.1040
 3383SOL    HW114960   0.423   7.754   0.792 -0.3385  0.8451  0.7635
 3383SOL    HW214961   0.510   7.783   0.672  1.3369 -1.3740  1.3779
 3384SOL     OW14962  12.211   8.746   3.054  0.4865 -0.0493 -0.5175
 3384SOL    HW114963  12.273   8.732   2.982 -0.8219 -1.2713 -1.4798
 3384SOL    HW214964  12.140   8.798   3.015  0.1162 -0.0861  0.0919
 3385SOL     OW14965   3.430   5.577   3.576 -0.0940  0.0516  0.1059
 3385SOL    HW114966   3.445   5.664   3.538 -1.2671 -0.7132 -2.3542
 3385SOL    HW214967   3.510   5.528   3.556  0.3400  0.3840  0.9918
 3386SOL     OW14968   7.244  12.313   0.090  0.2065  0.0822 -0.0291
 3386SOL    HW114969   7.209  12.242   0.037 -0.7661 -2.4569  3.6614
 3386SOL    HW214970   7.180  12.384   0.080 -0.3342 -0.5626 -1.5262
 3387SOL     OW14971   7.976  11.588   1.625 -0.9290 -0.3763  0.2541
 3387SOL    HW114972   7.942  11.677   1.640  0.2270  0.2544 -0.6235
 3387SOL    HW214973   7.924  11.532   1.682 -1.9292  0.8232  0.5669
 3388SOL     OW14974   4.091   7.261   0.506 -0.0100 -0.6285  0.2507
 3388SOL    HW114975   4.009   7.224   0.474  0.0783 -1.0707  0.5232
 3388SOL    HW214976   4.152   7.252   0.433 -0.3892  0.3291 -0.1869
 3389SOL     OW14977   8.800   7.084   7.204  0.0481 -0.0274 -0.0189
 3389SOL    HW114978   8.726   7.144   7.198  1.5815  1.9924  0.3605
 3389SOL    HW214979   8.835   7.098   7.292  1.2230 -0.5122 -0.3984
 3390SOL     OW14980   3.419  12.204   0.396 -0.0581  0.0510  0.1110
 3390SOL    HW114981   3.473  12.197   0.318  1.9735  0.6459  1.3889
 3390SOL    HW214982   3.334  12.236   0.364  0.9538  1.0098 -1.7500
 3391SOL     OW14983   4.400   9.303   2.047  0.2587 -0.0964 -0.3636
 3391SOL    HW114984   4.492   9.295   2.072  0.1245  0.8065  0.4946
 3391SOL    HW214985   4.353   9.312   2.131 -0.7308 -1.5071 -0.7215
 3392SOL     OW14986   4.485  10.540  10.059 -0.2753  0.1610  0.0516
 3392SOL    HW114987   4.494  10.509  10.149  0.8065 -1.6877 -0.6238
 3392SOL    HW214988   4.490  10.635  10.065  0.5640  0.0437  1.8816
 3393SOL     OW14989   9.849  10.140  12.139 -0.3075 -0.5480  0.3151
 3393SOL    HW114990   9.937  10.131  12.103 -0.2224 -0.8087  0.5887
 3393SOL    HW214991   9.801  10.063  12.108 -0.3768 -0.5177  0.3452
 3394SOL     OW14992   6.959   0.547  12.345 -0.0468 -0.4119  0.1440
 3394SOL    HW114993   6.985   0.550  12.437 -0.5570 -1.5661  0.3386
 3394SOL    HW214994   6.863   0.549  12.346 -0.0499  1.1326 -0.4514
 3395SOL     OW14995   0.970   4.332   2.389  0.0753  0.2884  0.3075
 3395SOL    HW114996   0.887   4.284   2.386 -0.2538  0.7822  1.0297
 3395SOL    HW214997   1.029   4.283   2.332 -0.9284  0.3494 -0.8141
 3396SOL     OW14998   2.225   3.990   9.079  1.1674 -0.3949 -0.1578
 3396SOL    HW114999   2.175   3.914   9.108 -0.4997  1.0977  1.1328
 3396SOL    HW215000   2.283   4.010   9.152  0.8479  0.1658 -0.0492
 3397SOL     OW15001   4.900   5.385   0.339  0.1529 -0.0842 -0.5362
 3397SOL    HW115002   4.848   5.377   0.419 -0.4068 -1.7456 -1.0269
 3397SOL    HW215003   4.973   5.324   0.352  0.9312  0.7983 -0.6634
 3398SOL     OW15004   4.996   1.941   3.502 -0.0097  0.1708 -0.4515
 3398SOL    HW115005   5.072   1.920   3.448  0.7189  2.3105 -0.3818
 3398SOL    HW215006   4.944   2.001   3.448 -1.4248 -0.8809 -0.3054
 3399SOL     OW15007   1.429   4.105  11.515  0.2204  0.9591  0.1852
 3399SOL    HW115008   1.449   4.079  11.425  0.2980 -0.0970  0.4948
 3399SOL    HW215009   1.334   4.094  11.523  0.1324  1.5743  0.0841
 3400SOL     OW15010   6.229   8.137   8.123  0.2125  0.5716  0.0454
 3400SOL    HW115011   6.299   8.166   8.181  0.0958 -0.2905  0.6310
 3400SOL    HW215012   6.179   8.075   8.175  0.7113 -1.0102 -1.2856
 3401SOL     OW15013   8.072  12.223  10.785  0.2646  0.0060 -0.6683
 3401SOL    HW115014   7.979  12.219  10.810  0.2054  0.1572 -0.8636
 3401SOL    HW215015   8.084  12.312  10.751  0.1933 -0.3979 -1.7791
 3402SOL     OW15016   9.231   0.379   1.366 -0.0130  0.0838  0.6022
 3402SOL    HW115017   9.211   0.408   1.277 -0.5899  1.7123  1.2167
 3402SOL    HW215018   9.321   0.348   1.362 -0.4984 -1.2645 -0.8369
 3403SOL     OW15019   9.591   0.128  11.476  0.0288  0.5206  0.5506
 3403SOL    HW115020   9.607   0.041  11.512 -0.0913 -0.1792 -0.9980
 3403SOL    HW215021   9.677   0.169  11.474  0.5246 -0.4991 -0.9531
 3404SOL     OW15022  10.517   0.881   1.203 -0.3730 -0.0587  0.2708
 3404SOL    HW115023  10.507   0.797   1.158 -0.9352 -0.2142  0.6795
 3404SOL    HW215024  10.560   0.860   1.286  0.1100  0.1497  0.0773
 3405SOL     OW15025   6.080   5.531   2.581  0.4675 -0.2657 -0.4365
 3405SOL    HW115026   6.114   5.464   2.521  1.3034 -0.6880  0.4852
 3405SOL    HW215027   5.987   5.536   2.560  0.6911 -0.5706 -1.6103
 3406SOL     OW15028   1.524   5.970  10.326  0.8820  0.2002 -0.5270
 3406SOL    HW115029   1.474   5.891  10.346  2.3899 -0.6461  0.1252
 3406SOL    HW215030   1.507   5.987  10.233  0.2289 -0.6516 -0.5728
 3407SOL     OW15031  12.265   9.500   3.998 -0.8170 -0.1932  0.2819
 3407SOL    HW115032  12.180   9.459   4.012 -0.0074 -2.2176 -0.2655
 3407SOL    HW215033  12.251   9.562   3.926 -1.8413 -0.4585  0.2431
 3408SOL     OW15034   9.216   4.011   6.291  0.4101  1.1064 -0.2944
 3408SOL    HW115035   9.166   4.020   6.210  0.1254  2.4520  0.0070
 3408SOL    HW215036   9.304   3.986   6.262 -0.0450  0.1751 -0.9187
 3409SOL     OW15037   2.990   5.142   8.605 -0.2715  0.1916  0.7662
 3409SOL    HW115038   2.931   5.095   8.546  1.0571  0.7513 -1.0676
 3409SOL    HW215039   3.043   5.073   8.645  0.4600 -0.0458 -0.5611
 3410SOL     OW15040  11.243   2.838   5.862 -0.0100 -0.2072 -0.5139
 3410SOL    HW115041  11.225   2.908   5.799  1.7711  0.0676 -0.7630
 3410SOL    HW215042  11.275   2.883   5.939  0.7020 -0.7166 -0.5044
 3411SOL     OW15043   4.684   6.309   4.242 -0.1980  0.5061 -0.4249
 3411SOL    HW115044   4.667   6.239   4.305 -0.9000  1.5401  0.5960
 3411SOL    HW215045   4.601   6.356   4.236 -0.1492  0.4261 -2.1663
 3412SOL     OW15046   9.954   4.579   6.671  0.6061 -0.2273 -0.3010
 3412SOL    HW115047   9.946   4.657   6.727 -0.4226 -0.5278 -0.0177
 3412SOL    HW215048  10.038   4.540   6.697  0.8379  0.4506 -0.0123
 3413SOL     OW15049   0.215   1.610   7.575  0.6655  0.1903  0.0050
 3413SOL    HW115050   0.186   1.520   7.592 -0.6753  0.7184  0.7444
 3413SOL    HW215051   0.279   1.628   7.644  0.0276  0.1823  0.6182
 3414SOL     OW15052   8.793   0.524  10.345 -0.2388 -0.0277  0.6072
 3414SOL    HW115053   8.794   0.497  10.253 -0.5102 -1.9122  1.1151
 3414SOL    HW215054   8.750   0.609  10.345 -1.3331 -0.5471 -0.8704
 3415SOL     OW15055  12.253   0.618   6.385 -0.3512 -0.7407  0.2509
 3415SOL    HW115056  12.258   0.523   6.373  0.2550 -1.0201  2.3538
 3415SOL    HW215057  12.218   0.629   6.473  1.2133  0.9516  0.7082
 3416SOL     OW15058   6.423   6.580  11.999  0.1090 -0.2188  0.0500
 3416SOL    HW115059   6.366   6.657  11.992 -0.1334 -0.3425  0.5971
 3416SOL    HW215060   6.388   6.531  12.073  1.3957  0.1005  0.9120
 3417SOL     OW15061   1.465   3.864   5.439  0.2784 -0.2723 -0.0493
 3417SOL    HW115062   1.444   3.839   5.529 -0.3667 -1.1401 -0.4304
 3417SOL    HW215063   1.560   3.850   5.432  0.0022 -2.5210 -0.1723
 3418SOL     OW15064   7.119  12.446   5.893  0.3816  0.2763  0.1185
 3418SOL    HW115065   7.134  12.540   5.905 -0.5921  0.4699 -0.0757
 3418SOL    HW215066   7.189  12.417   5.835  1.7941  0.4906  1.6624
 3419SOL     OW15067  11.718   6.105   1.359  0.2805  0.1602 -0.5003
 3419SOL    HW115068  11.737   6.180   1.415  2.2744 -0.5692 -0.1011
 3419SOL    HW215069  11.729   6.138   1.270 -0.2047  0.6584 -0.3823
 3420SOL     OW15070   8.064  10.788  10.525 -0.1608  0.1025 -0.1120
 3420SOL    HW115071   7.975  10.800  10.558  0.3624  1.8014  0.7762
 3420SOL    HW215072   8.120  10.810  10.599  1.0248 -2.2379 -0.2591
 3421SOL     OW15073   8.238   0.998   9.703 -0.5262  0.7119  0.3913
 3421SOL    HW115074   8.268   1.076   9.656  0.0244  1.9899  2.6893
 3421SOL    HW215075   8.148   1.019   9.729  0.2275  1.5017  2.6490
 3422SOL     OW15076   9.017   8.178   5.682  0.2101 -0.2870  0.0434
 3422SOL    HW115077   8.943   8.135   5.638 -1.3259  1.9816  0.2400
 3422SOL    HW215078   9.025   8.262   5.638  1.3418  0.3551  1.4213
 3423SOL     OW15079   2.375   5.096  11.110  0.2932 -0.0097 -0.2880
 3423SOL    HW115080   2.308   5.034  11.138  0.3306  0.4530  0.8984
 3423SOL    HW215081   2.458   5.057  11.140  0.4929 -0.2197 -1.0877
 3424SOL     OW15082   5.358   7.876  12.615  0.4249  0.2655  0.1798
 3424SOL    HW115083   5.310   7.951  12.581 -1.0264 -0.0087  1.5175
 3424SOL    HW215084   5.296   7.804  12.610  1.7727 -0.9019 -1.0403
 3425SOL     OW15085   1.889   5.551   1.639  0.4158 -0.0315 -0.3636
 3425SOL    HW115086   1.797   5.526   1.642  0.5633 -1.1173 -2.6260
 3425SOL    HW215087   1.927   5.512   1.717 -0.4718 -2.3252 -0.9813
 3426SOL     OW15088   6.271  11.373   8.472  0.5722 -0.0220 -0.1274
 3426SOL    HW115089   6.192  11.405   8.427  0.5488  0.7927  0.4782
 3426SOL    HW215090   6.238  11.308   8.535  0.5616 -0.8566 -0.9648
 3427SOL     OW15091  10.092   5.757   4.286  0.3585 -0.7641 -0.1583
 3427SOL    HW115092  10.075   5.697   4.359  1.1304  0.6127  1.1894
 3427SOL    HW215093  10.069   5.843   4.319 -0.6428 -0.2477 -2.0433
 3428SOL     OW15094   9.066   5.727   2.296 -0.0702  0.2934 -0.2338
 3428SOL    HW115095   8.990   5.672   2.315  1.5314 -2.6384 -1.6573
 3428SOL    HW215096   9.142   5.671   2.312  1.7228  2.2299 -1.3945
 3429SOL     OW15097   9.214  10.132  11.028  0.4844  0.0824 -0.1746
 3429SOL    HW115098   9.303  10.121  11.062  1.0300  2.8745 -0.5272
 3429SOL    HW215099   9.222  10.121  10.934  0.0152 -1.7329 -0.0498
 3430SOL     OW15100   4.724   7.129   1.610 -0.4548 -0.1200  0.2923
 3430SOL    HW115101   4.635   7.155   1.589 -0.2869  0.1574 -0.0769
 3430SOL    HW215102   4.756   7.084   1.532  0.0223  0.5435  0.0952
 3431SOL     OW15103  11.789  10.243   3.311 -0.0838 -0.1606  0.1986
 3431SOL    HW115104  11.713  10.186   3.321 -0.2493  0.3050  1.8263
 3431SOL    HW215105  11.863  10.183   3.305 -0.5410 -0.6291 -1.5699
 3432SOL     OW15106   4.853   6.775   0.895  0.3602 -0.0230 -0.1701
 3432SOL    HW115107   4.758   6.783   0.886  0.3265 -0.5258 -0.3232
 3432SOL    HW215108   4.869   6.681   0.887  0.8873  0.0781 -0.3060
 3433SOL     OW15109   8.010   3.911   2.042  0.0402  0.0190 -0.1612
 3433SOL    HW115110   7.983   3.826   2.078 -1.6993  0.7625  0.3823
 3433SOL    HW215111   7.997   3.973   2.113  0.1382  0.9440 -0.9245
 3434SOL     OW15112  12.060   5.552   1.699  1.0083  0.5961 -0.2800
 3434SOL    HW115113  12.125   5.517   1.760 -1.1286  0.2708  2.0098
 3434SOL    HW215114  12.064   5.647   1.712  2.1148  0.7197 -1.3858
 3435SOL     OW15115   1.694   8.398   4.068 -0.3290 -0.0532  0.1936
 3435SOL    HW115116   1.624   8.413   4.004 -0.7186 -1.2718  0.2969
 3435SOL    HW215117   1.757   8.343   4.021  0.5548  1.0020  0.1166
 3436SOL     OW15118   9.742   9.370  12.592  0.0865 -0.2699  0.7048
 3436SOL    HW115119   9.759   9.285  12.551  0.2408 -0.0490  0.3090
 3436SOL    HW215120   9.675   9.352  12.658  0.5653 -0.8181  1.0579
 3437SOL     OW15121   6.063   0.854   0.958 -0.2114 -0.3814  0.3071
 3437SOL    HW115122   6.107   0.911   1.022  0.1036  1.1612 -1.2145
 3437SOL    HW215123   6.131   0.834   0.893 -0.8840 -0.7547 -0.2911
 3438SOL     OW15124   4.106  10.467   0.286  0.1098 -0.7211  0.0266
 3438SOL    HW115125   4.113  10.437   0.377 -0.2359  0.5280  0.4889
 3438SOL    HW215126   4.014  10.492   0.276  0.0798 -1.1021 -0.7690
 3439SOL     OW15127   3.160  11.924   9.234 -0.0501  0.1102 -0.1479
 3439SOL    HW115128   3.193  11.847   9.188 -0.1074  0.5256 -0.9066
 3439SOL    HW215129   3.231  11.987   9.228 -0.8156  0.8898 -1.4864
 3440SOL     OW15130   1.129   9.431  12.151 -0.1244 -0.4863  0.9479
 3440SOL    HW115131   1.175   9.370  12.208  1.1516 -0.0444  0.4479
 3440SOL    HW215132   1.156   9.406  12.062 -1.3893 -0.6210  0.5807
 3441SOL     OW15133   4.930   7.056   8.190  0.0663 -0.4664  0.3072
 3441SOL    HW115134   4.925   6.962   8.210 -0.1130 -0.0082  2.6845
 3441SOL    HW215135   4.840   7.080   8.168  0.2296 -0.9577 -0.9642
 3442SOL     OW15136   9.735   1.392   2.567  0.6495  0.2050  0.1097
 3442SOL    HW115137   9.680   1.367   2.493  0.3957 -3.1077  1.2746
 3442SOL    HW215138   9.815   1.427   2.527 -1.1325  2.6771 -1.5997
 3443SOL     OW15139   0.929   9.406  12.610 -0.6115 -0.6899 -0.3493
 3443SOL    HW115140   0.904   9.393  12.701  0.0029 -0.1198 -0.0945
 3443SOL    HW215141   1.014   9.363  12.602 -0.0322  0.4182 -0.3005
 3444SOL     OW15142   3.270   8.696   4.110 -0.1695 -0.0908 -0.3978
 3444SOL    HW115143   3.220   8.750   4.050 -0.2849 -1.3149 -1.4419
 3444SOL    HW215144   3.295   8.619   4.059 -0.8633 -1.5107  1.2722
 3445SOL     OW15145  11.814   3.207   0.982  0.1939  0.3913  0.2829
 3445SOL    HW115146  11.859   3.174   1.060 -0.8481 -0.7862  0.4124
 3445SOL    HW215147  11.737   3.253   1.015 -0.1979 -0.0224 -0.0272
 3446SOL     OW15148  12.415   2.760   4.641  0.5201 -0.5992 -0.3887
 3446SOL    HW115149  12.452   2.785   4.556  1.2929  0.2398  0.1752
 3446SOL    HW215150  12.321   2.772   4.630  0.7430  1.4184 -0.5623
 3447SOL     OW15151   9.439   5.200   5.280 -0.2132 -0.4048 -0.0463
 3447SOL    HW115152   9.482   5.233   5.201 -0.6807  2.4843  0.7999
 3447SOL    HW215153   9.509   5.161   5.332  0.5131 -0.0907 -0.7861
 3448SOL     OW15154  11.420   3.063  10.060 -0.5019 -0.3009 -0.3553
 3448SOL    HW115155  11.375   3.120  10.122  0.9825 -1.5804  2.0072
 3448SOL    HW215156  11.353   3.001  10.032 -1.0506 -0.0395  0.3571
 3449SOL     OW15157   9.030   1.658   8.124  0.3697  0.4786  0.0263
 3449SOL    HW115158   8.976   1.711   8.066  2.3868  1.7453 -0.8050
 3449SOL    HW215159   8.975   1.583   8.147 -0.8927  0.4792 -2.6511
 3450SOL     OW15160   0.857   2.406   4.942  0.2090  0.1443 -0.1120
 3450SOL    HW115161   0.830   2.358   4.864 -0.1597 -2.2103  1.3612
 3450SOL    HW215162   0.777   2.450   4.972 -0.2257 -0.7694  0.1252
 3451SOL     OW15163   7.326   3.709  12.447  0.3081  0.1162  0.1432
 3451SOL    HW115164   7.402   3.766  12.451  0.9495 -0.7182  0.0178
 3451SOL    HW215165   7.361   3.623  12.424 -0.8043  0.0053 -1.2953
 3452SOL     OW15166   8.043   8.839   5.211 -0.0225 -0.0266 -0.0858
 3452SOL    HW115167   8.030   8.889   5.130  1.9641  0.1469 -0.3528
 3452SOL    HW215168   8.120   8.879   5.251 -0.4315 -0.7031  1.4434
 3453SOL     OW15169   9.052   4.771  11.261 -0.0838 -0.5160 -0.4236
 3453SOL    HW115170   9.070   4.775  11.355  0.4286 -1.7489 -0.4502
 3453SOL    HW215171   9.130   4.808  11.220 -0.1947 -0.2252 -0.3738
 3454SOL     OW15172   9.257   2.333  10.002 -0.6561  0.3391  0.0959
 3454SOL    HW115173   9.241   2.306  10.092  0.3763  3.1975  1.2465
 3454SOL    HW215174   9.172   2.364   9.971 -0.6782  0.9316  0.7165
 3455SOL     OW15175   7.408   9.591   7.236 -0.1133  0.4294  0.3525
 3455SOL    HW115176   7.376   9.608   7.147 -0.7362  1.0614  0.6909
 3455SOL    HW215177   7.473   9.660   7.250 -1.9736  2.0649  1.3809
 3456SOL     OW15178   2.760   7.903   6.605 -0.1415  0.1125  0.6789
 3456SOL    HW115179   2.709   7.955   6.668  0.4569 -0.2807  1.5136
 3456SOL    HW215180   2.769   7.817   6.647  0.7481  0.0136  0.3154
 3457SOL     OW15181   3.038   2.212   5.048 -0.1097  0.0929  0.6537
 3457SOL    HW115182   3.101   2.142   5.031 -0.2790  0.0803  0.0725
 3457SOL    HW215183   3.092   2.287   5.073  0.2645  0.5441 -1.3467
 3458SOL     OW15184   2.296   2.947   7.497 -0.0227 -0.0873  0.1426
 3458SOL    HW115185   2.303   3.037   7.527  1.7269 -0.7910  2.0469
 3458SOL    HW215186   2.299   2.894   7.577  1.6014 -1.9443 -1.0563
 3459SOL     OW15187   8.522  11.606   8.084 -0.2666  0.3031 -0.2750
 3459SOL    HW115188   8.558  11.522   8.054 -1.2754 -0.6680  1.0912
 3459SOL    HW215189   8.585  11.671   8.055  2.0434 -1.1994  1.0781
 3460SOL     OW15190  12.004   9.288   7.434 -0.6504 -0.0702 -0.3776
 3460SOL    HW115191  12.043   9.323   7.354 -2.2602  1.2199 -0.6679
 3460SOL    HW215192  12.060   9.216   7.459  0.9438  0.6697 -1.6479
 3461SOL     OW15193   6.348   6.181   1.614  0.3791  0.4971 -0.1254
 3461SOL    HW115194   6.298   6.121   1.560 -0.0631  0.6696  0.0941
 3461SOL    HW215195   6.431   6.192   1.567  0.1707  0.2983 -0.5407
 3462SOL     OW15196   0.744   9.354   8.185 -0.2804  0.1248 -0.2898
 3462SOL    HW115197   0.754   9.397   8.270  0.7280  1.2879 -0.9706
 3462SOL    HW215198   0.700   9.420   8.131 -0.6302 -0.4911 -0.7578
 3463SOL     OW15199   5.156   0.761   8.279  0.2434 -0.2107  1.0052
 3463SOL    HW115200   5.180   0.854   8.278  1.0574 -0.4113  1.1506
 3463SOL    HW215201   5.210   0.723   8.348  0.1202 -0.8538  0.7546
 3464SOL     OW15202   2.785   6.781   7.202 -0.6221 -0.8523 -0.6494
 3464SOL    HW115203   2.780   6.800   7.296  0.1511  0.3334 -0.8275
 3464SOL    HW215204   2.694   6.771   7.175 -0.9353  0.2646 -0.0573
 3465SOL     OW15205  10.870  11.300  11.148  0.2585  0.5466  0.0550
 3465SOL    HW115206  10.928  11.246  11.095 -0.0266 -1.2671  1.4866
 3465SOL    HW215207  10.806  11.335  11.085  0.7360 -0.4098 -1.0058
 3466SOL     OW15208   8.875   6.158   0.686  0.0420  0.1571 -0.1259
 3466SOL    HW115209   8.850   6.076   0.730  0.9780 -1.2893 -2.1110
 3466SOL    HW215210   8.807   6.172   0.620 -0.4094  1.3230  0.5596
 3467SOL     OW15211   3.617  10.762   2.152  0.0911  0.1236 -0.1887
 3467SOL    HW115212   3.616  10.668   2.130 -1.1279  0.1844 -0.4605
 3467SOL    HW215213   3.709  10.780   2.175  0.4036 -1.0650 -0.4177
 3468SOL     OW15214   6.581  12.165   8.368  0.2285 -0.1564 -0.6220
 3468SOL    HW115215   6.658  12.180   8.313 -0.4502  0.7050 -1.3841
 3468SOL    HW215216   6.616  12.156   8.456  1.5100 -3.1169 -1.2965
 3469SOL     OW15217   0.684   7.608   0.279  0.3204 -0.4123  0.5456
 3469SOL    HW115218   0.646   7.524   0.255 -1.4568  0.7714 -1.0698
 3469SOL    HW215219   0.657   7.668   0.209  1.7781  1.4509  1.4744
 3470SOL     OW15220   3.783  11.326   3.148  0.2343 -0.2379 -0.1034
 3470SOL    HW115221   3.773  11.412   3.105 -0.3895  0.1087  0.7068
 3470SOL    HW215222   3.767  11.344   3.241  1.4399 -1.0011  0.2740
 3471SOL     OW15223   6.114  12.233   0.540  0.4141  0.0792 -0.1371
 3471SOL    HW115224   6.023  12.250   0.514  0.0447  1.2746  1.7286
 3471SOL    HW215225   6.107  12.196   0.628  1.6877 -1.2992 -0.5898
 3472SOL     OW15226   9.635   0.065   9.123 -0.0108 -0.1086 -0.5361
 3472SOL    HW115227   9.601  -0.013   9.167  0.6185 -0.0022  0.1484
 3472SOL    HW215228   9.665   0.033   9.037 -1.2612 -0.3102 -0.9180
 3473SOL     OW15229   4.172   5.472   8.948  0.0713 -0.5912  0.2569
 3473SOL    HW115230   4.138   5.485   9.037  0.4714 -1.0290  0.4785
 3473SOL    HW215231   4.266   5.455   8.961 -0.2840 -3.1437 -0.0393
 3474SOL     OW15232  10.928   4.580   2.457 -0.0342 -0.0901  0.1383
 3474SOL    HW115233  11.011   4.596   2.411 -0.2410 -0.4691 -0.3849
 3474SOL    HW215234  10.872   4.541   2.390  0.3473 -2.7347  1.2441
 3475SOL     OW15235   8.178   1.753  10.078 -0.0979 -0.2231  0.3643
 3475SOL    HW115236   8.093   1.796  10.085  0.4311  0.8519  0.5460
 3475SOL    HW215237   8.211   1.778   9.992  0.5014  0.2909  0.7358
 3476SOL     OW15238  11.515   2.102  11.944  0.1008  0.0762 -0.8736
 3476SOL    HW115239  11.479   2.032  11.999  0.8727 -0.8393 -1.5221
 3476SOL    HW215240  11.459   2.103  11.867  0.7824 -0.6069 -1.3835
 3477SOL     OW15241   0.091   4.171   9.441  0.1248 -0.2278 -0.3258
 3477SOL    HW115242   0.096   4.266   9.433 -0.7252 -0.2333 -1.0770
 3477SOL    HW215243   0.017   4.156   9.501 -0.7592 -0.4283 -1.4326
 3478SOL     OW15244   1.647   8.053  11.376 -0.7953 -0.1883  0.5037
 3478SOL    HW115245   1.689   8.079  11.294 -2.1986  1.2607  0.1950
 3478SOL    HW215246   1.647   7.958  11.374  0.5730 -0.1983 -0.4429
 3479SOL     OW15247   9.254  10.474   6.970  0.1897  0.4090  0.4245
 3479SOL    HW115248   9.284  10.516   7.050 -1.1390 -0.7843  1.6000
 3479SOL    HW215249   9.221  10.389   6.998 -0.8054  0.1772 -1.3055
 3480SOL     OW15250   7.800   4.888   4.013  0.1147 -0.1577  0.1104
 3480SOL    HW115251   7.856   4.895   4.091 -1.6187 -0.5420  1.4324
 3480SOL    HW215252   7.712   4.910   4.044 -0.7974 -1.2979 -1.5294
 3481SOL     OW15253   9.200   3.211   6.795  0.0912 -0.1940 -0.3492
 3481SOL    HW115254   9.244   3.152   6.857 -0.2443 -0.9283 -0.7887
 3481SOL    HW215255   9.167   3.152   6.727 -1.8014  0.2835  0.0918
 3482SOL     OW15256   7.407   2.308   5.725  0.4372 -0.2060  0.1321
 3482SOL    HW115257   7.370   2.283   5.640 -0.6519  0.5119  0.3747
 3482SOL    HW215258   7.458   2.387   5.707  0.8257 -0.4804  0.0189
 3483SOL     OW15259  11.113  10.666   4.358  0.2783 -0.1722 -0.4439
 3483SOL    HW115260  11.158  10.617   4.290  0.7129 -1.5135  0.7449
 3483SOL    HW215261  11.180  10.725   4.394 -0.0277  0.7463 -1.3269
 3484SOL     OW15262   7.036   4.113  10.530  0.3195  0.0464 -0.2884
 3484SOL    HW115263   7.094   4.037  10.538  0.7943  0.3102 -1.1059
 3484SOL    HW215264   7.091   4.181  10.490 -0.4454  0.4300 -0.7037
 3485SOL     OW15265   2.834   5.981   9.555  0.0466 -0.1448  0.2108
 3485SOL    HW115266   2.927   5.999   9.545  0.3347 -0.7865  1.5231
 3485SOL    HW215267   2.792   6.066   9.546  0.8026  0.2217  0.0894
 3486SOL     OW15268   1.767   8.090   0.883  0.5240  0.5325 -0.3418
 3486SOL    HW115269   1.690   8.048   0.844  0.2279  0.9176 -0.1777
 3486SOL    HW215270   1.842   8.044   0.845  0.2106  0.1763 -0.5258
 3487SOL     OW15271   6.455   9.396  11.385 -0.2476  0.0902 -0.3447
 3487SOL    HW115272   6.403   9.407  11.306 -1.0203 -0.5005  0.0678
 3487SOL    HW215273   6.391   9.398  11.457  0.1970 -1.3650  0.1243
 3488SOL     OW15274   5.525   2.873   6.564  0.0829  0.2417  1.0700
 3488SOL    HW115275   5.557   2.957   6.598  2.9038 -1.2279  2.3825
 3488SOL    HW215276   5.602   2.816   6.563 -0.9749 -1.4644 -2.9548
 3489SOL     OW15277   5.015   2.200   7.795  0.1113 -0.1893 -0.2771
 3489SOL    HW115278   5.003   2.134   7.727  2.9727  0.1890 -1.2605
 3489SOL    HW215279   5.084   2.164   7.851  1.2268  1.6064 -0.4392
 3490SOL     OW15280   1.567   1.293   0.984 -0.0517  0.2261 -0.0830
 3490SOL    HW115281   1.481   1.304   0.944  0.0100  0.7697 -0.0830
 3490SOL    HW215282   1.584   1.378   1.026 -0.2022 -0.3907  1.2649
 3491SOL     OW15283   5.385   5.649   5.635 -0.0585 -0.0321 -0.1358
 3491SOL    HW115284   5.459   5.600   5.672 -1.0090 -0.5015  1.2361
 3491SOL    HW215285   5.354   5.595   5.563  1.8332  0.8946 -1.7459
 3492SOL     OW15286  12.199   5.831  11.684 -0.2751  0.6153 -0.3907
 3492SOL    HW115287  12.286   5.846  11.721 -0.4777 -0.2800  0.4845
 3492SOL    HW215288  12.163   5.760  11.737 -1.1063  0.2221 -1.4669
 3493SOL     OW15289   7.666   3.160   7.955 -0.1195  0.0154  0.8409
 3493SOL    HW115290   7.669   3.067   7.977 -0.4923 -0.8488 -2.2758
 3493SOL    HW215291   7.753   3.179   7.920 -0.7685  0.1426 -0.7833
 3494SOL     OW15292  11.143   5.023   7.559 -0.1853 -0.1979  0.4170
 3494SOL    HW115293  11.107   5.001   7.645  0.3951 -1.5475  0.3415
 3494SOL    HW215294  11.169   4.939   7.522 -1.1580  0.2589 -1.4227
 3495SOL     OW15295   1.876   7.454   5.629 -0.2066 -0.7616 -0.5368
 3495SOL    HW115296   1.843   7.382   5.575 -0.6225 -0.2010 -1.0406
 3495SOL    HW215297   1.802   7.514   5.637 -0.1399 -0.7940  0.6132
 3496SOL     OW15298  12.082   1.344  12.509  0.0145 -0.1970 -0.2809
 3496SOL    HW115299  12.107   1.421  12.459 -1.3954  1.7156  1.7538
 3496SOL    HW215300  12.066   1.276  12.443  0.8913  1.3423 -2.1685
 3497SOL     OW15301   8.682  11.492   9.364  0.4250 -0.1725 -0.0594
 3497SOL    HW115302   8.656  11.545   9.288  0.7831 -1.3119 -0.9960
 3497SOL    HW215303   8.634  11.410   9.354  1.1168 -0.6569  0.5038
 3498SOL     OW15304   2.379   4.517   7.562  0.3016 -0.1835  0.3061
 3498SOL    HW115305   2.413   4.603   7.537  0.7740 -0.6131 -0.5655
 3498SOL    HW215306   2.456   4.460   7.559  0.2832 -0.3760  2.2361
 3499SOL     OW15307   0.034   4.297  12.084 -0.1941 -0.2071 -0.0532
 3499SOL    HW115308  -0.035   4.347  12.127 -1.1928 -0.4643 -1.3100
 3499SOL    HW215309   0.029   4.210  12.122  0.6153  0.2284  1.1132
 3500SOL     OW15310   7.108   2.490   8.507 -0.8161  0.2174  0.2239
 3500SOL    HW115311   7.067   2.523   8.428 -0.9624 -2.1342 -0.7620
 3500SOL    HW215312   7.198   2.470   8.481 -0.7815 -0.3201  0.7238
 3501SOL     OW15313   3.202   5.942  10.748  0.0754  0.2754  0.5529
 3501SOL    HW115314   3.205   5.909  10.838 -1.8682 -0.5489  0.3690
 3501SOL    HW215315   3.126   5.999  10.746 -0.1857 -0.0812 -0.6736
 3502SOL     OW15316   2.986   1.737   4.504  0.0145  0.0356  0.2365
 3502SOL    HW115317   3.028   1.734   4.590 -0.7459 -0.7884  0.5950
 3502SOL    HW215318   2.935   1.656   4.499 -1.5623  1.0023 -0.1549
 3503SOL     OW15319  11.674   3.533   8.408 -0.2794  0.4252  0.1092
 3503SOL    HW115320  11.767   3.541   8.429 -0.6149  0.6362  1.6067
 3503SOL    HW215321  11.646   3.623   8.391 -0.6423  0.6241  1.6681
 3504SOL     OW15322   2.452   0.294   6.852  0.4904 -0.4702  0.0331
 3504SOL    HW115323   2.441   0.369   6.911  0.5324 -0.6339  0.2534
 3504SOL    HW215324   2.544   0.298   6.824  0.4981 -0.4491  0.0618
 3505SOL     OW15325   0.025  10.085   7.912 -0.3526 -0.3049  0.0157
 3505SOL    HW115326   0.008  10.166   7.863 -0.1450 -0.7708 -0.8294
 3505SOL    HW215327   0.100  10.106   7.967  0.5339 -0.3105 -1.1587
 3506SOL     OW15328   8.911   9.866   3.956 -0.7797 -0.4222 -0.3419
 3506SOL    HW115329   8.872   9.822   3.880 -1.9573 -0.1377  0.0698
 3506SOL    HW215330   8.856   9.840   4.030 -1.3018  1.4312 -0.0263
 3507SOL     OW15331   8.345   7.997   6.948  0.7708  0.3213 -0.0579
 3507SOL    HW115332   8.410   8.067   6.939  0.8637  0.3932  0.9736
 3507SOL    HW215333   8.262   8.040   6.930  0.8364  0.6973  0.4757
 3508SOL     OW15334   3.220   9.998  12.248  0.4432  0.0085  0.7336
 3508SOL    HW115335   3.138   9.976  12.203  0.7538  0.0721  0.1185
 3508SOL    HW215336   3.222   9.939  12.323  0.4933 -0.9793 -0.0186
 3509SOL     OW15337   6.820  11.607   1.539  0.2415  0.0783 -0.2552
 3509SOL    HW115338   6.732  11.577   1.560  0.8903 -1.2663  0.6732
 3509SOL    HW215339   6.861  11.622   1.625  1.9851 -2.6275 -0.5114
 3510SOL     OW15340   4.415   2.594   8.115 -0.0646 -0.7554 -0.2510
 3510SOL    HW115341   4.388   2.511   8.154  4.0159 -2.0056  0.4925
 3510SOL    HW215342   4.399   2.659   8.183 -0.3160 -1.5233  0.4370
 3511SOL     OW15343   3.789   6.632  11.646  0.5937 -0.3426  0.5942
 3511SOL    HW115344   3.872   6.586  11.640  1.3172  0.8246  1.3723
 3511SOL    HW215345   3.807   6.721  11.614 -0.1073  0.2158  1.6842
 3512SOL     OW15346   7.000   1.541   9.871  0.0112 -0.2119 -0.0707
 3512SOL    HW115347   7.038   1.618   9.914 -1.2983  0.6761 -0.4461
 3512SOL    HW215348   6.906   1.549   9.886 -0.6117  0.4556 -3.4755
 3513SOL     OW15349   0.089   2.018   1.555  0.4140 -0.2620  0.0772
 3513SOL    HW115350   0.154   1.973   1.501  0.5701 -1.2964  1.1073
 3513SOL    HW215351   0.023   1.952   1.574  0.4500  0.0254  1.3030
 3514SOL     OW15352   7.484  12.218   3.817  0.4997  0.0563  0.2447
 3514SOL    HW115353   7.399  12.261   3.807  0.4919  0.0781  0.4021
 3514SOL    HW215354   7.481  12.178   3.904  0.5672 -0.1277  0.1643
 3515SOL     OW15355  11.374   7.765   9.012 -0.0642  0.5374 -0.5230
 3515SOL    HW115356  11.426   7.689   8.984  0.4198 -0.4816  2.7625
 3515SOL    HW215357  11.432   7.812   9.072 -1.1408  2.3431 -0.8469
 3516SOL     OW15358   8.563   1.239   9.684  0.0440 -0.2432 -0.0219
 3516SOL    HW115359   8.589   1.300   9.615  0.2990  0.0946  0.3670
 3516SOL    HW215360   8.494   1.186   9.644 -0.1843  0.3007 -0.3679
 3517SOL     OW15361   6.879   1.838   2.830  0.7681 -0.0881  0.4714
 3517SOL    HW115362   6.917   1.770   2.886  0.6822 -0.3932  0.1658
 3517SOL    HW215363   6.818   1.791   2.774  0.3155  0.3236  0.6096
 3518SOL     OW15364   5.837   4.677  10.495 -0.0921 -0.1755  0.0613
 3518SOL    HW115365   5.885   4.747  10.538  0.7558 -1.0700  0.6069
 3518SOL    HW215366   5.840   4.699  10.402  0.1627  0.5035  0.2240
 3519SOL     OW15367   7.467   0.841   5.927  0.2622 -0.3058  0.0549
 3519SOL    HW115368   7.548   0.889   5.946 -1.2207  2.5427 -0.3172
 3519SOL    HW215369   7.407   0.868   5.996 -1.8323  1.6292 -2.3219
 3520SOL     OW15370   9.489   6.531   1.169  0.1799 -0.1541  0.0475
 3520SOL    HW115371   9.526   6.613   1.137  1.5479 -1.8184 -3.0030
 3520SOL    HW215372   9.557   6.495   1.227 -0.9675  1.3348  2.5029
 3521SOL     OW15373   3.599   8.406   4.332  0.1030  0.0262 -0.0122
 3521SOL    HW115374   3.611   8.483   4.277 -3.0438  0.7898  0.1636
 3521SOL    HW215375   3.662   8.417   4.404 -0.3758  2.5500  0.0960
 3522SOL     OW15376   5.866   1.383   7.374  0.1873  0.7915  0.1422
 3522SOL    HW115377   5.823   1.349   7.295  1.3377  1.1470 -0.6418
 3522SOL    HW215378   5.837   1.323   7.443  0.9314 -0.8825 -0.9429
 3523SOL     OW15379   6.761   4.686   5.553 -0.4740  1.0898  0.0233
 3523SOL    HW115380   6.742   4.594   5.570 -0.3253  1.1195  0.3647
 3523SOL    HW215381   6.688   4.733   5.592 -0.8825  1.0832 -0.7325
 3524SOL     OW15382   8.314   3.401   8.597 -0.0857  0.3344 -0.0124
 3524SOL    HW115383   8.345   3.407   8.506  1.6158  0.0883  0.5169
 3524SOL    HW215384   8.324   3.489   8.631 -0.1731  0.3001  0.0999
 3525SOL     OW15385  11.680   6.362  11.779 -0.0281  0.4058 -0.2908
 3525SOL    HW115386  11.595   6.333  11.811  0.6881 -1.0112  0.4503
 3525SOL    HW215387  11.742   6.298  11.815  1.2652  0.9753 -1.4133
 3526SOL     OW15388   1.876   4.189   5.493 -0.2792 -0.4152  0.2318
 3526SOL    HW115389   1.851   4.268   5.542 -1.6345 -0.1467 -0.8489
 3526SOL    HW215390   1.971   4.198   5.480 -0.0770  0.0599  1.7728
 3527SOL     OW15391   7.126   9.539   4.344  0.5804  0.2619  0.1282
 3527SOL    HW115392   7.079   9.500   4.418  0.6065 -0.6334 -0.3028
 3527SOL    HW215393   7.072   9.517   4.268  1.2563 -0.0306 -0.2744
 3528SOL     OW15394   0.847   7.018   1.860  0.4456  0.1797  0.5298
 3528SOL    HW115395   0.806   6.941   1.819  4.0305 -0.4607 -2.3987
 3528SOL    HW215396   0.917   6.981   1.913  2.2839  1.3318 -0.9952
 3529SOL     OW15397   7.171  11.934   4.379  0.3638  0.0329 -0.5452
 3529SOL    HW115398   7.220  11.899   4.304  0.5191 -1.0156  0.0323
 3529SOL    HW215399   7.229  11.923   4.454 -0.5238 -0.7428  0.0585
 3530SOL     OW15400  10.025  12.412   6.734 -0.0346  0.5947 -0.6563
 3530SOL    HW115401  10.085  12.448   6.668  1.1905  0.2673  0.2554
 3530SOL    HW215402   9.985  12.336   6.690 -0.4374  1.3141 -1.5657
 3531SOL     OW15403   7.324  11.308   4.055  0.4787 -0.0687  0.0309
 3531SOL    HW115404   7.331  11.217   4.084 -0.8969  0.5258  2.4864
 3531SOL    HW215405   7.393  11.317   3.988  1.4446 -2.5578  0.5708
 3532SOL     OW15406   4.708   9.894   0.774 -0.0635  0.0376  0.2107
 3532SOL    HW115407   4.790   9.935   0.748 -0.4267  0.0284 -1.0038
 3532SOL    HW215408   4.643   9.928   0.713 -0.9410 -0.0769  1.0547
 3533SOL     OW15409   7.080  12.534  10.440  0.0623 -0.2753 -0.2165
 3533SOL    HW115410   6.995  12.492  10.455 -0.6883  0.8115 -1.2593
 3533SOL    HW215411   7.143  12.461  10.441 -1.0125 -1.2385 -0.4984
 3534SOL     OW15412   4.003   3.378   4.209  0.0485 -0.0999  0.3289
 3534SOL    HW115413   4.087   3.390   4.165 -0.0293 -1.8893 -0.4342
 3534SOL    HW215414   3.959   3.310   4.157 -1.8555  0.7732  0.7288
 3535SOL     OW15415   7.020  11.094   5.545  0.3897  0.3963 -0.2501
 3535SOL    HW115416   7.037  11.165   5.607 -1.3063 -0.1997  0.9843
 3535SOL    HW215417   6.972  11.134   5.473 -0.3706  0.5472  0.3375
 3536SOL     OW15418   2.262   0.401   7.149  0.3639  0.0098 -0.8146
 3536SOL    HW115419   2.180   0.377   7.106 -0.0600  0.3575 -0.2330
 3536SOL    HW215420   2.235   0.462   7.218  1.0235 -0.4925 -0.0992
 3537SOL     OW15421   8.465   9.875   1.829 -0.1784  0.5957 -0.2480
 3537SOL    HW115422   8.498   9.962   1.807  0.2112  0.3170 -0.8161
 3537SOL    HW215423   8.482   9.823   1.750  0.9143 -0.3538  0.5814
 3538SOL     OW15424   2.080   9.908  10.432  0.4306 -0.3731  0.4185
 3538SOL    HW115425   2.109   9.998  10.416 -2.0556  0.3292 -0.7423
 3538SOL    HW215426   2.092   9.864  10.348  0.0472 -0.6267  0.4959
 3539SOL     OW15427   4.159   3.994   5.822 -1.0547 -0.0075  0.3777
 3539SOL    HW115428   4.144   3.909   5.780 -0.9282 -0.2580  0.8326
 3539SOL    HW215429   4.083   4.046   5.797 -1.2024 -0.2988  0.2078
 3540SOL     OW15430  10.080   9.549   3.520 -1.0193  0.0841 -0.2270
 3540SOL    HW115431  10.079   9.569   3.426  0.3165  0.2027 -0.2263
 3540SOL    HW215432  10.090   9.634   3.562  0.8431 -0.1818 -0.0830
 3541SOL     OW15433   1.362   9.035  10.230 -0.6421  0.8085  0.1845
 3541SOL    HW115434   1.439   9.081  10.196 -0.6834  0.5518 -0.2640
 3541SOL    HW215435   1.366   9.049  10.325  0.0412  0.6591  0.1859
 3542SOL     OW15436   2.012  11.183   5.857  0.2712  0.1617  0.3379
 3542SOL    HW115437   2.015  11.272   5.892  0.1369  0.3833 -0.2047
 3542SOL    HW215438   1.987  11.194   5.766 -0.4170 -0.4788  0.4405
 3543SOL     OW15439   0.074   2.160  11.910 -0.2154  0.0878  0.2883
 3543SOL    HW115440   0.069   2.080  11.858 -0.9284  1.3800 -1.7338
 3543SOL    HW215441   0.142   2.142  11.975  0.2827 -1.8216 -0.6987
 3544SOL     OW15442  10.266   0.115   0.244  0.2627 -0.0614  0.4690
 3544SOL    HW115443  10.349   0.137   0.201 -0.4989 -0.0511 -1.0713
 3544SOL    HW215444  10.259   0.020   0.234  0.9255 -0.3424  2.2384
 3545SOL     OW15445  11.349   7.255   4.928  0.3353 -0.8986  0.0842
 3545SOL    HW115446  11.270   7.202   4.924  0.3300 -0.8312 -1.4714
 3545SOL    HW215447  11.398   7.222   5.003 -1.5911 -0.2942  1.6716
 3546SOL     OW15448   5.423   0.867   7.682 -0.2621  0.2139  0.6807
 3546SOL    HW115449   5.515   0.880   7.661 -0.6393  1.5276 -0.2601
 3546SOL    HW215450   5.395   0.794   7.627  0.1071  0.0679  0.6865
 3547SOL     OW15451   7.890   7.898  12.175  0.3523  0.2004  0.3156
 3547SOL    HW115452   7.973   7.915  12.219 -0.6541 -0.4369  2.6761
 3547SOL    HW215453   7.871   7.805  12.193 -0.2922 -0.0050 -1.2434
 3548SOL     OW15454   6.209  10.077  12.281 -0.1243  0.3457  0.2862
 3548SOL    HW115455   6.150  10.018  12.235  0.0490 -1.1855  1.9236
 3548SOL    HW215456   6.152  10.144  12.319 -0.6579 -0.2512  0.5686
 3549SOL     OW15457   0.454   2.513   8.593 -0.3433  0.1259 -0.2161
 3549SOL    HW115458   0.413   2.426   8.589  0.2942 -0.1321 -1.3806
 3549SOL    HW215459   0.548   2.496   8.589 -0.2278  0.8944 -1.0393
 3550SOL     OW15460  12.378   5.461   9.000  0.5943  0.1069  0.0433
 3550SOL    HW115461  12.356   5.553   9.016  0.2842 -0.0355  0.4483
 3550SOL    HW215462  12.297   5.414   9.017  0.9691 -0.3292  0.6395
 3551SOL     OW15463  11.756   9.337   6.015 -0.1113 -0.5492 -0.1336
 3551SOL    HW115464  11.700   9.415   6.015 -0.3311 -0.6547  2.0656
 3551SOL    HW215465  11.838   9.366   6.054  0.6062 -0.9416 -1.2909
 3552SOL     OW15466   4.501   9.641   2.130  0.1074  0.1705 -0.1234
 3552SOL    HW115467   4.484   9.735   2.123 -0.6289  0.0405 -0.1517
 3552SOL    HW215468   4.443   9.611   2.199  0.6382 -0.1970  0.1672
 3553SOL     OW15469  11.145  12.437   2.803 -0.1656  0.3030  0.2244
 3553SOL    HW115470  11.157  12.352   2.844 -0.8504  0.7219  1.3390
 3553SOL    HW215471  11.096  12.488   2.867  0.9997  1.8283 -0.0476
 3554SOL     OW15472   0.448   9.126  12.173 -0.1203 -0.0317 -0.6635
 3554SOL    HW115473   0.479   9.206  12.130  0.4392 -0.2098 -0.6101
 3554SOL    HW215474   0.510   9.058  12.145 -0.2160 -0.3144 -0.2165
 3555SOL     OW15475   0.285   4.295  11.393 -0.1272  0.4421  0.0976
 3555SOL    HW115476   0.341   4.370  11.374  0.5356 -0.2226 -0.6594
 3555SOL    HW215477   0.298   4.279  11.487 -1.1450  1.9410  0.5271
 3556SOL     OW15478   8.082   5.267  10.812  0.0480  0.0071  0.3959
 3556SOL    HW115479   8.130   5.308  10.740  0.4655  0.7954  1.1004
 3556SOL    HW215480   8.003   5.321  10.822  1.0920  1.3859  2.0079
 3557SOL     OW15481   2.598  12.647   0.309 -0.6241  0.0349 -0.5275
 3557SOL    HW115482   2.681  12.616   0.345 -2.0016 -1.8276  1.2545
 3557SOL    HW215483   2.620  12.731   0.268  1.5092  1.5252  3.1410
 3558SOL     OW15484   1.889   4.126   0.912  0.5620 -0.0576 -0.2495
 3558SOL    HW115485   1.915   4.074   0.836  0.2752  0.9533 -1.0538
 3558SOL    HW215486   1.879   4.062   0.982  0.4894 -1.0495 -1.1428
 3559SOL     OW15487   1.182   6.686   3.054  0.0368  0.0916 -0.2243
 3559SOL    HW115488   1.133   6.755   3.099 -0.2815  1.2362 -2.1787
 3559SOL    HW215489   1.114   6.625   3.024  0.3161 -1.1259  1.4799
 3560SOL     OW15490   4.468  10.363   8.402 -0.0788 -0.2905 -0.1514
 3560SOL    HW115491   4.559  10.386   8.380  0.0835 -0.3668  0.4300
 3560SOL    HW215492   4.422  10.447   8.406 -0.0654 -0.2622 -0.5876
 3561SOL     OW15493   4.567   6.015   2.419  0.6624  0.3700 -0.0262
 3561SOL    HW115494   4.494   5.956   2.437  0.9452 -0.3722 -1.2158
 3561SOL    HW215495   4.644   5.958   2.421  1.0015  0.8042 -0.6583
 3562SOL     OW15496  10.490   2.701  10.998 -0.3851  0.0920  0.0553
 3562SOL    HW115497  10.554   2.728  10.932 -1.0436  0.3310 -0.4992
 3562SOL    HW215498  10.413   2.754  10.979 -0.4420  0.5125  1.3187
 3563SOL     OW15499   2.632   3.069   0.609  0.0063 -0.2291 -0.2934
 3563SOL    HW115500   2.588   2.986   0.627  1.7679 -0.9694  0.9717
 3563SOL    HW215501   2.624   3.081   0.515 -1.2388 -1.2619 -0.3469
 3564SOL     OW15502   2.560   2.178   9.141 -0.4476  0.0703 -0.3448
 3564SOL    HW115503   2.520   2.263   9.126  0.7726  0.5780 -0.8572
 3564SOL    HW215504   2.653   2.190   9.119 -0.2500 -1.3880 -0.4521
 3565SOL     OW15505   3.487   1.041   4.678 -0.2692 -0.1662 -0.6960
 3565SOL    HW115506   3.418   0.974   4.676  0.8388 -1.3850 -3.6960
 3565SOL    HW215507   3.563   0.996   4.715 -0.4527  0.5571  0.6253
 3566SOL     OW15508   2.960   1.774   5.111  0.8321 -0.0667 -0.3409
 3566SOL    HW115509   2.977   1.851   5.166  1.8811  0.2674 -1.0975
 3566SOL    HW215510   3.018   1.786   5.035 -0.4470 -0.6054 -1.4350
 3567SOL     OW15511   2.472   7.230   6.620 -0.0282  0.0037 -0.1590
 3567SOL    HW115512   2.549   7.211   6.565  1.6892  1.6383  1.5477
 3567SOL    HW215513   2.501   7.213   6.709 -1.6279  0.8051  0.5535
 3568SOL     OW15514   2.987   7.409   0.892 -0.1548 -0.2996 -0.9339
 3568SOL    HW115515   3.012   7.496   0.924  0.4705 -0.6214 -0.5245
 3568SOL    HW215516   2.893   7.417   0.873 -0.1902  0.3516 -0.5311
 3569SOL     OW15517   6.848   0.127   7.278  0.0472  0.2033  0.1996
 3569SOL    HW115518   6.915   0.084   7.331  0.3361  1.0344  0.5288
 3569SOL    HW215519   6.803   0.186   7.339  1.0318  1.9081 -0.6447
 3570SOL     OW15520   1.596   7.601  12.204 -0.4504 -0.8731  0.5878
 3570SOL    HW115521   1.625   7.611  12.113  2.2103  0.3818  1.4891
 3570SOL    HW215522   1.506   7.634  12.203  0.1701  1.0058 -1.2521
 3571SOL     OW15523   9.036   5.085   7.727 -0.5710  0.3649  0.2861
 3571SOL    HW115524   8.966   5.087   7.661  1.2380  2.1867 -1.7218
 3571SOL    HW215525   9.002   5.138   7.799 -1.5841  0.5925 -0.3349
 3572SOL     OW15526   5.520   2.185   9.419 -0.1354  0.0027 -0.0987
 3572SOL    HW115527   5.515   2.097   9.455 -0.4056 -0.6797 -1.6981
 3572SOL    HW215528   5.613   2.205   9.415 -0.0971  0.0327  0.7853
 3573SOL     OW15529   0.609   5.317  10.368 -0.2650  0.6673  0.7177
 3573SOL    HW115530   0.543   5.263  10.325 -1.1942  0.8332  1.8959
 3573SOL    HW215531   0.644   5.260  10.437 -0.1274  1.0354  0.9535
 3574SOL     OW15532   7.975   1.966   7.945  0.4891  0.7064 -0.1761
 3574SOL    HW115533   8.007   1.961   7.855  0.4002  1.9138 -0.2858
 3574SOL    HW215534   8.055   1.962   7.998  0.6103  0.8930 -0.3418
 3575SOL     OW15535  11.242  12.010   6.826  0.2216  0.4262  0.3324
 3575SOL    HW115536  11.227  12.100   6.795 -0.2507  1.1972  2.6302
 3575SOL    HW215537  11.157  11.967   6.815  0.4106  0.2775 -0.6366
 3576SOL     OW15538   0.227  11.636   4.171 -0.5100  0.4340  0.1621
 3576SOL    HW115539   0.148  11.674   4.134 -0.5958 -0.6553 -0.8302
 3576SOL    HW215540   0.199  11.598   4.254 -1.3815 -1.1355 -0.7968
 3577SOL     OW15541   2.362   0.984   3.657 -0.0432  0.0694 -0.6111
 3577SOL    HW115542   2.388   1.025   3.574 -0.5288 -0.2226 -0.9153
 3577SOL    HW215543   2.330   1.056   3.711 -0.0246  0.2208 -0.8020
 3578SOL     OW15544  10.019   2.324   6.086 -0.5643  0.3624 -0.2252
 3578SOL    HW115545  10.003   2.403   6.138  0.9187  0.7993 -0.3939
 3578SOL    HW215546   9.944   2.319   6.027 -0.9994  1.2697  0.2282
 3579SOL     OW15547   5.435   3.471   9.840  0.3476  0.7485  0.2635
 3579SOL    HW115548   5.487   3.543   9.876  0.0228  1.2270 -0.2101
 3579SOL    HW215549   5.374   3.513   9.780 -0.5771  0.1968  0.7889
 3580SOL     OW15550   9.212   6.472   6.902  0.2084  0.3937 -0.4799
 3580SOL    HW115551   9.264   6.417   6.960 -1.2081 -1.8441 -1.2248
 3580SOL    HW215552   9.277   6.522   6.852  1.5324 -0.2483  0.5366
 3581SOL     OW15553   4.737   8.381   9.037  0.2133 -0.5228  0.0311
 3581SOL    HW115554   4.701   8.350   9.120  0.8718  1.1604  0.9973
 3581SOL    HW215555   4.831   8.363   9.044  0.5469  1.2549  0.4562
 3582SOL     OW15556   8.839   8.673   2.943 -0.2753 -0.1649  0.0430
 3582SOL    HW115557   8.780   8.644   3.013 -0.1316  0.9438  0.6322
 3582SOL    HW215558   8.813   8.763   2.924  0.0590 -0.2610 -0.9490
 3583SOL     OW15559   2.865  11.313  10.152  0.0024  0.0476 -0.1182
 3583SOL    HW115560   2.810  11.315  10.230  1.6110  1.9639  1.0570
 3583SOL    HW215561   2.929  11.244  10.169 -1.3054 -1.4644 -1.0339
 3584SOL     OW15562   9.499   7.688   5.426  0.1253  0.1435  0.4919
 3584SOL    HW115563   9.586   7.680   5.463 -0.2999 -1.4931  1.2295
 3584SOL    HW215564   9.440   7.687   5.502 -0.6860 -2.0031 -0.1077
 3585SOL     OW15565   7.015  11.122   0.323 -0.6323  0.0886 -0.2859
 3585SOL    HW115566   6.961  11.045   0.305 -0.4496  0.1793 -1.2831
 3585SOL    HW215567   7.082  11.121   0.255 -0.1775  0.7232  0.1363
 3586SOL     OW15568  11.723   1.355   6.736 -0.7000  0.0574  0.0011
 3586SOL    HW115569  11.768   1.403   6.666 -0.8933  0.1633 -0.0524
 3586SOL    HW215570  11.767   1.384   6.816  1.1491 -1.8597 -0.2280
 3587SOL     OW15571  10.937   2.328   9.301 -0.0414 -0.0333 -0.1759
 3587SOL    HW115572  10.863   2.318   9.361  3.1946 -1.8618  4.1189
 3587SOL    HW215573  10.936   2.249   9.248 -1.3816  0.2355 -0.5923
 3588SOL     OW15574   0.006  12.534   2.234  0.0834  0.2509 -0.5105
 3588SOL    HW115575   0.083  12.491   2.198 -0.7221 -0.7743 -1.0563
 3588SOL    HW215576  -0.002  12.615   2.183  1.0082  0.5648 -0.1807
 3589SOL     OW15577  10.182   9.355  11.025  0.6978 -0.4471  0.4742
 3589SOL    HW115578  10.244   9.367  11.097  0.6075  1.4973  0.2610
 3589SOL    HW215579  10.238   9.337  10.949  0.8868 -0.6549  0.6584
 3590SOL     OW15580   3.520  11.003   1.988  0.1613  0.3560  0.2440
 3590SOL    HW115581   3.572  10.931   2.025 -0.4824 -0.7777 -0.9597
 3590SOL    HW215582   3.466  10.961   1.921 -1.2413  1.7492  0.4508
 3591SOL     OW15583   3.409   9.953   5.670  0.0450  0.3684 -0.4149
 3591SOL    HW115584   3.387   9.874   5.621 -0.5329  0.9725 -1.1485
 3591SOL    HW215585   3.344   9.956   5.741  0.8907 -0.5121  0.4281
 3592SOL     OW15586   1.488   6.353  10.041  0.0513 -0.0704 -0.7358
 3592SOL    HW115587   1.393   6.351  10.049 -0.0402 -1.0150 -1.7373
 3592SOL    HW215588   1.512   6.445  10.052 -0.7971 -0.0340  1.1263
 3593SOL     OW15589   6.614   8.462  11.680 -0.1032 -0.2016 -0.6193
 3593SOL    HW115590   6.554   8.528  11.717 -0.0414 -0.0914 -0.7163
 3593SOL    HW215591   6.653   8.421  11.757 -2.0593 -1.9290 -0.4587
 3594SOL     OW15592   4.523  11.330   2.686  0.9106 -0.0931  0.0860
 3594SOL    HW115593   4.509  11.343   2.780  1.3267 -1.5387  0.3725
 3594SOL    HW215594   4.571  11.408   2.658 -3.3798  2.8962 -0.0295
 3595SOL     OW15595   9.082   1.956   1.989 -0.2765 -0.4324  0.1908
 3595SOL    HW115596   9.113   1.870   1.959  0.4515 -0.6230  1.4384
 3595SOL    HW215597   9.111   2.016   1.920  2.1327 -0.7327  0.8511
 3596SOL     OW15598   0.558   1.745   9.665 -0.0054  0.0025 -0.2117
 3596SOL    HW115599   0.538   1.697   9.745 -0.3477  0.3246 -0.0994
 3596SOL    HW215600   0.499   1.820   9.667  0.5792  0.4704 -0.3443
 3597SOL     OW15601   4.175   5.965   8.281 -0.0113 -0.2596 -0.1469
 3597SOL    HW115602   4.165   5.878   8.243 -1.6290  0.2781 -1.0300
 3597SOL    HW215603   4.114   6.020   8.232  0.6232  1.2776  0.7176
 3598SOL     OW15604   5.369   6.429  11.569  0.7344  0.5797 -0.2255
 3598SOL    HW115605   5.411   6.344  11.585  0.4499  0.5578  0.4146
 3598SOL    HW215606   5.374   6.440  11.474 -1.8369 -1.5305 -0.7217
 3599SOL     OW15607  10.457  12.615   3.516 -0.9711 -0.2091  0.5216
 3599SOL    HW115608  10.479  12.550   3.448 -0.1276  1.4586 -0.8869
 3599SOL    HW215609  10.406  12.681   3.469  0.8755  1.7365  1.1336
 3600SOL     OW15610   7.543  11.902   3.707  0.2703 -0.1847  0.3157
 3600SOL    HW115611   7.616  11.871   3.762  0.5438  0.5553  0.3775
 3600SOL    HW215612   7.570  11.989   3.679 -0.4199 -0.0693  0.0039
 3601SOL     OW15613   2.973   3.868  11.739  0.1884  0.0767  0.0900
 3601SOL    HW115614   2.881   3.869  11.766 -0.5056 -1.1783 -2.0608
 3601SOL    HW215615   2.976   3.921  11.660  1.2238 -0.2538 -0.1116
 3602SOL     OW15616   3.418   3.587   4.150  0.0592 -0.2860 -0.0182
 3602SOL    HW115617   3.325   3.604   4.163  0.0816 -0.2760  0.1357
 3602SOL    HW215618   3.458   3.673   4.142  0.1990 -0.2415  0.9468
 3603SOL     OW15619   0.492   7.299  11.718 -0.2350  0.6212 -0.2586
 3603SOL    HW115620   0.498   7.394  11.717 -0.0645  0.6496  1.2415
 3603SOL    HW215621   0.568   7.271  11.770  0.2585 -0.4037 -1.4592
 3604SOL     OW15622   3.675   0.355   7.027  0.7978  0.9589 -0.0419
 3604SOL    HW115623   3.584   0.382   7.039 -0.2555 -2.1448 -0.1599
 3604SOL    HW215624   3.709   0.344   7.116  0.7415  1.1370  0.0022
 3605SOL     OW15625   6.054   6.941   0.244  0.0364 -0.5136  0.1691
 3605SOL    HW115626   5.998   6.864   0.247  2.0174 -2.1588 -1.6928
 3605SOL    HW215627   6.143   6.906   0.243  1.1327  1.9495  2.1242
 3606SOL     OW15628   2.337   2.078   6.746 -0.0168  0.4302  0.3237
 3606SOL    HW115629   2.243   2.099   6.751 -0.0830 -0.1029  2.1153
 3606SOL    HW215630   2.363   2.064   6.837  1.9862  1.2684 -0.0636
 3607SOL     OW15631   3.833   5.235   0.553  0.3877  0.1859  0.2864
 3607SOL    HW115632   3.795   5.322   0.564 -0.8534 -0.3057  0.0345
 3607SOL    HW215633   3.822   5.215   0.460  0.3250 -0.3819  0.4064
 3608SOL     OW15634   4.389   1.435   1.340 -0.8191 -0.5032  0.2016
 3608SOL    HW115635   4.310   1.475   1.304 -0.7581  0.1519  0.7810
 3608SOL    HW215636   4.362   1.346   1.364 -0.9466 -0.8324 -1.1028
 3609SOL     OW15637  12.084   5.124  10.243  0.3685 -0.2800 -0.2826
 3609SOL    HW115638  12.107   5.046  10.294  0.7189  0.6138  0.9525
 3609SOL    HW215639  12.014   5.094  10.185 -1.1362 -0.9797  1.7795
 3610SOL     OW15640   1.945   3.132   6.909  0.1921 -0.3218 -0.2123
 3610SOL    HW115641   2.009   3.202   6.894 -0.6899  0.5242 -0.1790
 3610SOL    HW215642   1.867   3.178   6.941 -0.0385 -1.4505  0.9326
 3611SOL     OW15643  11.889   8.496   9.204  0.3247 -0.6037 -0.2831
 3611SOL    HW115644  11.923   8.584   9.220  0.5452 -0.8411  0.6015
 3611SOL    HW215645  11.800   8.498   9.238 -0.8702  0.2033 -3.1576
 3612SOL     OW15646   1.690   7.558   4.989  0.3254 -0.6271 -0.1838
 3612SOL    HW115647   1.627   7.534   5.056 -0.3895  0.9404 -0.2686
 3612SOL    HW215648   1.668   7.502   4.914 -0.5846 -0.5138 -0.0084
 3613SOL     OW15649   5.626   7.669   7.830 -0.0187  0.2016  0.3080
 3613SOL    HW115650   5.581   7.640   7.751  0.9118 -1.1960  0.2559
 3613SOL    HW215651   5.663   7.589   7.867  0.6165  1.0147  1.4787
 3614SOL     OW15652   0.766   3.033   0.008 -0.1830  0.2049  0.3507
 3614SOL    HW115653   0.674   3.056   0.023  0.3063  1.5488  1.4549
 3614SOL    HW215654   0.785   2.968   0.076  0.7676  2.9762  2.9549
 3615SOL     OW15655   1.898   9.358   4.303 -0.3543  0.8517 -0.3631
 3615SOL    HW115656   1.911   9.328   4.213 -2.8584  2.2214 -1.2859
 3615SOL    HW215657   1.853   9.442   4.294  0.4265  1.6481  2.1799
 3616SOL     OW15658  10.095   7.762   0.598 -0.4663  0.0938  0.7263
 3616SOL    HW115659  10.146   7.842   0.582 -1.2802  1.0458  2.6144
 3616SOL    HW215660  10.004   7.788   0.586 -0.6533 -1.0396 -0.4541
 3617SOL     OW15661   1.537  11.858   2.159  0.2773 -0.2554 -0.6794
 3617SOL    HW115662   1.528  11.952   2.173  2.4837 -0.0131 -0.5994
 3617SOL    HW215663   1.556  11.849   2.065  2.1458 -0.4145 -0.3087
 3618SOL     OW15664   9.310   6.773   8.831 -0.1385 -0.4557 -0.5717
 3618SOL    HW115665   9.306   6.691   8.880 -1.9164 -0.4839 -0.6968
 3618SOL    HW215666   9.229   6.775   8.780 -0.7192  1.9087  0.3034
 3619SOL     OW15667   2.719  11.334   0.425 -0.1206  0.0451 -0.0115
 3619SOL    HW115668   2.684  11.287   0.500 -1.0943 -0.1892 -0.5891
 3619SOL    HW215669   2.641  11.369   0.380  0.5176  1.4097 -0.1199
 3620SOL     OW15670   7.915   0.915   6.587 -0.1331  0.1629  0.8565
 3620SOL    HW115671   7.873   0.830   6.576  0.5629 -0.0887  0.0129
 3620SOL    HW215672   7.842   0.977   6.595 -0.6786 -0.3040 -0.2834
 3621SOL     OW15673  10.664  12.473   6.026  0.2876  0.5108 -0.0280
 3621SOL    HW115674  10.616  12.475   6.108  0.2248  0.2003 -0.0550
 3621SOL    HW215675  10.676  12.379   6.007 -0.1489  0.5684 -0.6298
 3622SOL     OW15676   3.594   8.185   1.082  0.4497 -0.3429 -0.0774
 3622SOL    HW115677   3.617   8.131   1.158 -1.1994  0.6098  1.1663
 3622SOL    HW215678   3.653   8.260   1.087 -0.2462  0.1684  0.8318
 3623SOL     OW15679  11.730   4.326   7.387  0.4621 -0.3598  0.1157
 3623SOL    HW115680  11.661   4.262   7.402  0.7247 -0.7728 -0.4216
 3623SOL    HW215681  11.811   4.276   7.388  0.7096  0.0308  0.1335
 3624SOL     OW15682   7.958   1.793   8.310 -0.1731  0.1714 -0.6069
 3624SOL    HW115683   7.914   1.855   8.368  0.6272 -0.6852  0.9712
 3624SOL    HW215684   8.044   1.780   8.350 -0.9066 -3.3062  0.1743
 3625SOL     OW15685   6.854   8.333   2.879 -0.1162  0.3567 -0.2394
 3625SOL    HW115686   6.867   8.380   2.962 -0.9672 -1.1118  0.7854
 3625SOL    HW215687   6.942   8.308   2.851  0.1124 -0.4504  1.0739
 3626SOL     OW15688  10.947   2.310   4.539  0.0874 -0.3741  0.5077
 3626SOL    HW115689  10.952   2.217   4.558  2.6804 -0.4269 -0.0438
 3626SOL    HW215690  10.867   2.340   4.583 -1.2539 -2.9702 -0.0121
 3627SOL     OW15691   5.383   8.309  12.085  0.1937  0.3004  0.4790
 3627SOL    HW115692   5.438   8.375  12.043 -0.8207  1.3491  0.7500
 3627SOL    HW215693   5.356   8.349  12.167  1.1435 -1.2336  1.5973
 3628SOL     OW15694   4.368  10.173   1.186 -0.0304  0.4663  0.3110
 3628SOL    HW115695   4.413  10.177   1.101  0.9883 -0.6406  0.7639
 3628SOL    HW215696   4.388  10.085   1.219 -0.5110  0.8424  1.6453
 3629SOL     OW15697   2.251   1.313   4.220 -0.0880 -0.6161  0.1498
 3629SOL    HW115698   2.276   1.390   4.169  1.0174  0.7392  2.5577
 3629SOL    HW215699   2.167   1.337   4.260 -0.5204 -1.3076 -0.3364
 3630SOL     OW15700   7.789  11.956  12.179 -0.2590  0.0853 -0.2423
 3630SOL    HW115701   7.829  11.893  12.239  1.4986  1.7656  0.4440
 3630SOL    HW215702   7.719  11.997  12.231 -2.7899 -2.5626 -1.3135
 3631SOL     OW15703   2.841   1.105   8.020 -0.0110  0.1080  0.3235
 3631SOL    HW115704   2.840   1.163   7.944  1.4784  1.0647  0.9756
 3631SOL    HW215705   2.836   1.165   8.095  1.1061 -0.6202  1.0011
 3632SOL     OW15706   1.316   2.916  12.488  0.4419 -0.1912 -0.6721
 3632SOL    HW115707   1.241   2.883  12.538  0.3223  0.9787 -0.0467
 3632SOL    HW215708   1.280   2.985  12.433  1.0549  0.3870 -0.3663
 3633SOL     OW15709   6.528   5.772   5.435 -0.2957 -0.4171  0.3025
 3633SOL    HW115710   6.612   5.772   5.481  0.0569 -0.3016 -0.3347
 3633SOL    HW215711   6.532   5.695   5.378  0.0294  0.4551 -0.8958
 3634SOL     OW15712   9.922   6.218   5.189  0.1550  0.6826  0.1509
 3634SOL    HW115713   9.828   6.207   5.182  0.5094 -2.8610 -0.5440
 3634SOL    HW215714   9.949   6.250   5.103 -0.1719 -0.7204 -0.4883
 3635SOL     OW15715   0.097   9.807   5.383 -0.2853 -0.0251  0.2445
 3635SOL    HW115716   0.068   9.722   5.417  2.1909 -0.4933  1.4829
 3635SOL    HW215717   0.162   9.785   5.316 -2.3681  0.9494 -2.2571
 3636SOL     OW15718  11.030   1.527   6.459 -0.5982  0.4422 -0.3891
 3636SOL    HW115719  11.092   1.481   6.516 -0.2552  0.4378 -0.7612
 3636SOL    HW215720  11.049   1.619   6.473 -0.7984  0.4514 -0.1806
 3637SOL     OW15721   4.146   1.984   7.253 -0.2360 -0.7676 -0.1160
 3637SOL    HW115722   4.110   2.047   7.316 -0.7048  0.1089 -1.2238
 3637SOL    HW215723   4.152   1.902   7.302 -1.0969 -0.2458  0.9167
 3638SOL     OW15724   2.040   5.906   8.443 -0.2961 -0.2826  0.5448
 3638SOL    HW115725   2.030   5.840   8.512  0.4904  0.3782  1.3047
 3638SOL    HW215726   1.950   5.936   8.426 -0.5800 -1.0094  0.7089
 3639SOL     OW15727   3.554   4.010  11.714  0.2867 -0.2414  0.4217
 3639SOL    HW115728   3.591   3.946  11.653 -0.6129  0.8011 -1.3244
 3639SOL    HW215729   3.529   3.959  11.791  1.5904 -1.6035 -0.0073
 3640SOL     OW15730   2.005   0.086   1.583 -0.2023  0.1430  0.4149
 3640SOL    HW115731   2.028  -0.002   1.554 -1.1788  0.4267 -1.3654
 3640SOL    HW215732   1.943   0.072   1.654 -0.8987 -0.6210 -0.3216
 3641SOL     OW15733   8.603   9.757   9.825 -0.0667 -0.3001  0.0314
 3641SOL    HW115734   8.687   9.802   9.823  0.5995 -1.2712  2.5800
 3641SOL    HW215735   8.538   9.827   9.836  0.7701  0.2267  1.9638
 3642SOL     OW15736   3.741   9.612   5.321  0.6429 -0.3188  0.1118
 3642SOL    HW115737   3.767   9.598   5.230 -0.8473 -1.4675 -0.1797
 3642SOL    HW215738   3.686   9.690   5.318 -0.5222 -1.1164 -0.2468
 3643SOL     OW15739   0.445  12.378   7.387  0.3843 -0.1218 -0.3300
 3643SOL    HW115740   0.386  12.353   7.458  0.1481  0.6131 -0.2506
 3643SOL    HW215741   0.387  12.398   7.313  0.4486  1.4377  0.0030
 3644SOL     OW15742  10.291   6.484  11.005  0.6534 -0.5541  0.0468
 3644SOL    HW115743  10.225   6.549  10.979 -1.5953 -2.1007  1.4473
 3644SOL    HW215744  10.287   6.484  11.101  2.2970 -1.1553  0.1439
 3645SOL     OW15745   5.458   9.421   8.778 -0.5681 -0.1225  0.2925
 3645SOL    HW115746   5.378   9.458   8.741 -0.7689  1.1355  1.8659
 3645SOL    HW215747   5.446   9.326   8.771 -1.3857  0.0563 -1.0945
 3646SOL     OW15748   6.513  10.979   3.673  0.1750  0.0901 -0.2903
 3646SOL    HW115749   6.552  10.971   3.586 -1.1827  0.9697 -1.0369
 3646SOL    HW215750   6.429  11.022   3.657  0.0264  0.5674  1.4998
 3647SOL     OW15751   3.673   9.179   0.164  0.1852 -0.1704  0.0506
 3647SOL    HW115752   3.759   9.145   0.186  0.3293 -0.0530 -0.3189
 3647SOL    HW215753   3.650   9.136   0.082  0.0616  0.0840 -0.0517
 3648SOL     OW15754   6.161  10.587   9.008  0.2900 -0.2058 -0.5825
 3648SOL    HW115755   6.073  10.624   9.021  0.0072 -1.4410  1.4272
 3648SOL    HW215756   6.183  10.610   8.918 -2.1862 -0.0446 -1.2264
 3649SOL     OW15757   0.007   3.441   8.498 -0.3006  0.1413 -0.4066
 3649SOL    HW115758  -0.053   3.515   8.485 -0.8166 -0.0656  0.6465
 3649SOL    HW215759   0.088   3.481   8.530 -0.8337  0.2254  0.9242
 3650SOL     OW15760   9.030   2.699   7.953 -0.0936  0.1513  0.0029
 3650SOL    HW115761   9.123   2.685   7.972  0.4867  2.0238 -1.1834
 3650SOL    HW215762   8.985   2.667   8.031  1.8041  2.3270  2.1776
 3651SOL     OW15763   3.644   3.121  10.926 -0.2513 -0.7856  0.0290
 3651SOL    HW115764   3.697   3.086  10.854  0.7087 -1.2124  0.9019
 3651SOL    HW215765   3.597   3.195  10.888  0.7476 -0.5863 -0.8683
 3652SOL     OW15766   7.137   8.160   3.625  0.3106  0.0092  0.4314
 3652SOL    HW115767   7.069   8.123   3.681 -0.4996  0.4385 -0.2230
 3652SOL    HW215768   7.218   8.150   3.674 -0.1537 -0.9647  1.0251
 3653SOL     OW15769  11.461   0.993   8.210 -0.0356  0.3566  0.3240
 3653SOL    HW115770  11.482   0.932   8.140 -1.5645  0.4286 -0.2279
 3653SOL    HW215771  11.535   0.986   8.271 -0.2193 -2.1767  0.3746
 3654SOL     OW15772  10.841  10.820   5.483 -0.0860 -0.7545 -0.2105
 3654SOL    HW115773  10.855  10.751   5.547 -1.4613  1.0267  2.1504
 3654SOL    HW215774  10.886  10.896   5.519 -3.0827  1.0082  0.1157
 3655SOL     OW15775   2.810   0.585   2.924  0.0787  0.0180  0.1662
 3655SOL    HW115776   2.759   0.505   2.909 -0.9884  0.1105  2.7599
 3655SOL    HW215777   2.764   0.653   2.875 -0.4125 -0.5107 -0.1210
 3656SOL     OW15778   2.492  11.039   5.011  0.0353 -0.4088 -0.5538
 3656SOL    HW115779   2.415  11.096   5.012  0.0118 -0.4461 -0.0602
 3656SOL    HW215780   2.457  10.951   5.026  0.2092 -0.3759  0.0807
 3657SOL     OW15781   6.733  11.415   5.656  0.2358 -0.2970  0.3110
 3657SOL    HW115782   6.678  11.338   5.641 -0.0535 -0.1431  0.5747
 3657SOL    HW215783   6.796  11.414   5.584 -2.4496  1.6343 -2.2823
 3658SOL     OW15784   8.958  10.540   2.122  0.4832 -0.4509 -0.4134
 3658SOL    HW115785   8.977  10.630   2.095  2.4705 -1.0835 -1.3507
 3658SOL    HW215786   9.044  10.504   2.145 -0.3182 -2.0193  0.2890
 3659SOL     OW15787   9.933   9.613   4.727 -0.2989  0.4859 -0.1424
 3659SOL    HW115788   9.885   9.542   4.684  0.6854 -0.4042  0.1719
 3659SOL    HW215789   9.893   9.619   4.814  0.5154 -0.6698  0.3399
 3660SOL     OW15790   1.505   7.085   1.159 -0.1274 -0.9781 -0.1161
 3660SOL    HW115791   1.571   7.132   1.209  0.4054 -1.2416 -0.5511
 3660SOL    HW215792   1.443   7.152   1.130  1.2211 -0.3440 -1.6619
 3661SOL     OW15793   8.444   2.928   2.021  0.3113  0.0729 -0.2702
 3661SOL    HW115794   8.456   2.990   1.950  1.1927  0.8607  0.5326
 3661SOL    HW215795   8.457   2.979   2.101  1.6019 -1.2174  0.4161
 3662SOL     OW15796   7.023   3.354   6.340  0.2092  0.2251  0.0363
 3662SOL    HW115797   7.077   3.345   6.419  3.3821  0.5527 -1.9208
 3662SOL    HW215798   7.079   3.321   6.269 -3.0817 -1.6055 -1.9549
 3663SOL     OW15799   9.719   9.187   5.039 -0.0572 -0.1812  0.3410
 3663SOL    HW115800   9.795   9.201   4.982 -0.5930 -1.2216 -0.6547
 3663SOL    HW215801   9.749   9.124   5.104 -0.3957 -1.5724 -0.7984
 3664SOL     OW15802  10.009   4.691  10.866  0.2004 -0.5630 -0.3572
 3664SOL    HW115803  10.069   4.616  10.874  0.7125 -0.2165 -0.8426
 3664SOL    HW215804   9.968   4.699  10.952  2.5207  0.5917  0.7163
 3665SOL     OW15805   6.487   7.633  11.986  0.2269 -0.2772  0.5177
 3665SOL    HW115806   6.456   7.683  12.062 -0.2041  0.5678 -0.1971
 3665SOL    HW215807   6.416   7.570  11.970  0.7114 -1.0513  1.3378
 3666SOL     OW15808  11.706   4.093  12.066 -0.4526  0.4457  0.1480
 3666SOL    HW115809  11.631   4.145  12.035  0.1216  0.2957 -1.6025
 3666SOL    HW215810  11.686   4.004  12.038  0.6562  0.5099 -0.8936
 3667SOL     OW15811   3.110   0.669   4.077  0.0454 -0.6479  0.1966
 3667SOL    HW115812   3.047   0.630   4.137 -1.3724  1.2000  0.0150
 3667SOL    HW215813   3.057   0.706   4.007  1.4352 -0.1428 -0.6382
 3668SOL     OW15814   1.978   1.698   7.247 -0.1819  0.0468  0.1896
 3668SOL    HW115815   1.990   1.621   7.302 -1.1772 -0.5774 -0.4290
 3668SOL    HW215816   1.926   1.758   7.301  0.2660  0.1337  0.5305
 3669SOL     OW15817  10.712   6.934  10.917  0.5627  0.3591 -0.5070
 3669SOL    HW115818  10.769   6.982  10.977  0.2402  1.7591 -1.2651
 3669SOL    HW215819  10.712   6.987  10.837 -0.0392 -0.7835 -1.2922
 3670SOL     OW15820   9.070  11.120   0.612  0.3557 -0.1031 -0.1098
 3670SOL    HW115821   9.159  11.136   0.582  0.4490  0.8704  0.6409
 3670SOL    HW215822   9.080  11.090   0.702 -0.1138  0.8473  0.2644
 3671SOL     OW15823  12.224   9.272   0.223 -0.0402 -0.1692 -0.2938
 3671SOL    HW115824  12.253   9.184   0.249  0.8554 -0.4814 -2.1676
 3671SOL    HW215825  12.296   9.306   0.170 -0.8726  1.2360 -0.5620
 3672SOL     OW15826   6.671  12.323   3.229  0.4076 -0.5900  0.0102
 3672SOL    HW115827   6.597  12.332   3.168  0.5638  0.3949 -0.0394
 3672SOL    HW215828   6.748  12.345   3.177  0.5981 -0.2943  0.4141
 3673SOL     OW15829   3.736   5.030  12.484  0.3605  0.3801 -0.1989
 3673SOL    HW115830   3.704   5.076  12.407  0.8530  0.1270 -0.5547
 3673SOL    HW215831   3.828   5.012  12.466  1.3913  3.0301  1.6893
 3674SOL     OW15832   0.541   4.820   1.011  0.2521 -0.0714  0.1910
 3674SOL    HW115833   0.447   4.808   1.002 -0.4407  3.8234  0.2316
 3674SOL    HW215834   0.550   4.910   1.043  4.0638  0.4262 -1.7500
 3675SOL     OW15835   0.276   9.007   9.398 -0.1047  0.0996  0.6250
 3675SOL    HW115836   0.263   8.923   9.443 -0.5108  0.1235  0.5623
 3675SOL    HW215837   0.252   8.989   9.307  1.8887 -0.2569  0.1332
 3676SOL     OW15838  12.203   1.065   7.035 -0.6648  0.0621  0.2019
 3676SOL    HW115839  12.263   1.133   7.065  0.5965  0.2630 -2.4766
 3676SOL    HW215840  12.116   1.098   7.059  0.0555  1.6076  0.8225
 3677SOL     OW15841   8.087  11.113   0.385  0.5613 -0.2889 -0.1625
 3677SOL    HW115842   8.015  11.053   0.366  0.2306 -0.1810  0.6828
 3677SOL    HW215843   8.159  11.084   0.329 -0.0635 -0.5471 -0.8376
 3678SOL     OW15844  10.938   7.596   3.238 -0.0924 -0.4117 -0.4586
 3678SOL    HW115845  10.861   7.652   3.244 -0.6072 -1.2253  1.0542
 3678SOL    HW215846  10.988   7.616   3.317  0.4268 -1.0554 -0.6109
 3679SOL     OW15847   7.208   9.310  10.825 -0.0983 -0.0362 -0.3677
 3679SOL    HW115848   7.273   9.374  10.856  0.1864 -0.1104 -0.8017
 3679SOL    HW215849   7.140   9.363  10.784 -0.1103  0.0192 -0.2755
 3680SOL     OW15850   2.629   1.837   3.343 -0.5371  0.1455  0.1366
 3680SOL    HW115851   2.664   1.898   3.279 -0.6493 -0.2270 -0.2927
 3680SOL    HW215852   2.629   1.752   3.297  0.4711 -0.3564  1.0208
 3681SOL     OW15853   6.627   5.919   0.032 -0.0422  0.0195 -0.0347
 3681SOL    HW115854   6.603   5.845  -0.023 -1.0785 -0.6973  1.3049
 3681SOL    HW215855   6.553   5.979   0.025  0.4148  0.5405 -0.4495
 3682SOL     OW15856  11.589  12.410   6.851 -0.5076  0.1319  0.2288
 3682SOL    HW115857  11.560  12.341   6.910 -1.7932  0.1257 -0.3802
 3682SOL    HW215858  11.675  12.380   6.820 -0.1819 -0.2461  1.4409
 3683SOL     OW15859   8.917   0.733   3.638  0.3206  0.6262  0.2150
 3683SOL    HW115860   8.949   0.643   3.642  0.9279  0.7367 -1.5019
 3683SOL    HW215861   8.979   0.782   3.693  0.0042  0.0203  1.1335
 3684SOL     OW15862   1.009   2.693   7.583  0.0636  0.4336 -0.6128
 3684SOL    HW115863   1.030   2.666   7.493  0.8624 -0.3232 -0.2160
 3684SOL    HW215864   0.972   2.781   7.574  0.6473  0.5904 -1.6388
 3685SOL     OW15865   0.902   6.502   5.329 -0.0610  0.8395  0.5263
 3685SOL    HW115866   0.940   6.530   5.246 -1.3045 -0.1840 -0.4366
 3685SOL    HW215867   0.977   6.489   5.387  0.9216  0.5458 -0.7622
 3686SOL     OW15868   0.916   5.795   3.778  0.2042  0.0250 -0.0117
 3686SOL    HW115869   0.940   5.731   3.845  0.1323 -1.0159 -0.9613
 3686SOL    HW215870   0.921   5.747   3.696 -0.5235  1.0617 -0.6827
 3687SOL     OW15871  12.393   7.760  11.758 -0.7052 -0.2055  0.5454
 3687SOL    HW115872  12.488   7.755  11.744 -0.5171  0.8028  1.3211
 3687SOL    HW215873  12.355   7.722  11.679  0.3438 -1.1378  0.4662
 3688SOL     OW15874  11.848   8.286   2.308  0.0451 -0.1608  0.1827
 3688SOL    HW115875  11.870   8.364   2.257  3.5889 -0.8685  0.3769
 3688SOL    HW215876  11.821   8.320   2.394  1.3247  0.8899  0.1976
 3689SOL     OW15877  11.159  12.628   3.238  0.6508  0.4942  0.2650
 3689SOL    HW115878  11.112  12.705   3.208  2.3132  1.3319 -0.3160
 3689SOL    HW215879  11.151  12.630   3.333 -0.0175  0.9081  0.2011
 3690SOL     OW15880   9.297   6.001   6.733 -0.3639 -1.2666 -0.8541
 3690SOL    HW115881   9.311   6.026   6.824 -1.8405 -2.6450 -0.1989
 3690SOL    HW215882   9.298   6.083   6.685 -0.8867 -0.3647  0.6027
 3691SOL     OW15883  11.152   6.279   3.180  0.3127  0.2710 -0.1060
 3691SOL    HW115884  11.224   6.287   3.243  1.3420  0.4507 -1.2625
 3691SOL    HW215885  11.113   6.194   3.199 -0.1511  0.8042  1.5128
 3692SOL     OW15886   4.312   2.759   0.471 -0.3245  0.8537  0.4485
 3692SOL    HW115887   4.341   2.812   0.397 -1.3046 -0.7055 -1.1472
 3692SOL    HW215888   4.368   2.681   0.468 -1.8601 -0.2910 -0.1450
 3693SOL     OW15889   3.970   9.094  11.543 -0.2254 -0.6091 -0.5812
 3693SOL    HW115890   4.049   9.104  11.597  0.4967 -0.1544 -1.6708
 3693SOL    HW215891   3.999   9.040  11.469 -0.5447  0.6966 -1.7017
 3694SOL     OW15892  10.592   2.594   0.427 -0.5221  0.5445  0.3217
 3694SOL    HW115893  10.525   2.575   0.492 -0.2693  3.5113  1.6332
 3694SOL    HW215894  10.675   2.572   0.470 -0.4033  1.6901  0.7013
 3695SOL     OW15895   8.570   0.506  10.160  0.4241 -0.5220  0.3919
 3695SOL    HW115896   8.627   0.431  10.143  0.7535 -0.0951 -0.4525
 3695SOL    HW215897   8.555   0.503  10.254  3.2116  0.2709  0.9745
 3696SOL     OW15898   1.334   6.348  11.833 -0.0996 -0.6389  0.5941
 3696SOL    HW115899   1.276   6.390  11.897  1.0390 -0.4363  1.5399
 3696SOL    HW215900   1.422   6.363  11.868  0.5620 -0.5029 -1.0578
 3697SOL     OW15901  11.953   3.435  10.186 -0.0638 -0.2616 -0.4293
 3697SOL    HW115902  11.974   3.527  10.201  0.6764 -0.1482 -2.0049
 3697SOL    HW215903  11.906   3.434  10.103  1.1276 -1.4357 -1.1245
 3698SOL     OW15904   1.004   6.260   6.372  0.3041  0.2026 -0.2169
 3698SOL    HW115905   1.031   6.241   6.462  1.5617  1.8136 -0.2195
 3698SOL    HW215906   0.948   6.337   6.379 -2.4117 -1.6088 -0.5091
 3699SOL     OW15907   5.151  11.072   6.945  0.2923  0.0135  0.4861
 3699SOL    HW115908   5.156  10.984   6.983  1.1573 -0.0467  0.2487
 3699SOL    HW215909   5.066  11.074   6.902  0.1632 -0.6311  0.6953
 3700SOL     OW15910   8.561   1.645   8.048  0.8756 -0.0785 -0.2315
 3700SOL    HW115911   8.532   1.706   7.980  0.1681 -0.4429 -0.2596
 3700SOL    HW215912   8.547   1.558   8.010  0.3168 -0.2887  0.4398
 3701SOL     OW15913   4.914  12.351   6.173 -0.0073 -0.0449 -0.1715
 3701SOL    HW115914   4.961  12.269   6.158  1.4803  1.0052 -1.5369
 3701SOL    HW215915   4.822  12.324   6.180 -0.0230 -1.6283 -3.7986
 3702SOL     OW15916  11.000   2.909   8.789 -0.4950  0.3466  0.0078
 3702SOL    HW115917  11.054   2.831   8.800 -2.0435 -0.9921 -1.3636
 3702SOL    HW215918  10.936   2.904   8.859  0.1535  1.1050  0.6833
 3703SOL     OW15919  11.582   6.340   2.293  0.3185  0.1391 -0.3311
 3703SOL    HW115920  11.532   6.343   2.211  0.2950  1.4197 -0.2817
 3703SOL    HW215921  11.601   6.247   2.305 -0.6764 -0.2048 -1.1848
 3704SOL     OW15922   6.479   7.318   0.077  0.3655 -0.8470 -0.2031
 3704SOL    HW115923   6.461   7.265  -0.000  0.6905  0.2092 -1.0273
 3704SOL    HW215924   6.575   7.322   0.082  0.3432 -0.1923 -0.2518
 3705SOL     OW15925   0.094   8.251  12.001  0.6917  0.2871 -0.2308
 3705SOL    HW115926   0.164   8.248  11.935  2.3697 -0.7311  1.5139
 3705SOL    HW215927   0.065   8.160  12.009  0.0583  0.5048  0.0249
 3706SOL     OW15928  11.844   0.924   8.730  0.0247  0.5262  0.0571
 3706SOL    HW115929  11.846   0.991   8.661  0.4822 -0.0677 -0.5169
 3706SOL    HW215930  11.761   0.940   8.776 -0.1648  1.0925 -0.4610
 3707SOL     OW15931   0.817   5.645   0.241 -0.1107 -0.0843 -0.2084
 3707SOL    HW115932   0.893   5.626   0.187 -1.2634 -0.8980 -1.6267
 3707SOL    HW215933   0.785   5.730   0.208  1.5458  1.5221  2.0509
 3708SOL     OW15934   3.212   2.604   8.076  0.2887  0.3825  0.0954
 3708SOL    HW115935   3.203   2.668   8.147 -0.0618 -0.7298  1.0819
 3708SOL    HW215936   3.219   2.519   8.121  0.1950 -0.3317 -1.2005
 3709SOL     OW15937   6.409   8.502  10.082 -0.3058 -0.4008 -0.1296
 3709SOL    HW115938   6.439   8.422  10.125 -2.7882 -1.5693 -0.3698
 3709SOL    HW215939   6.427   8.487   9.989  0.6346  0.0377 -0.0367
 3710SOL     OW15940   6.358   9.473   7.571 -0.4619  0.0216 -0.1049
 3710SOL    HW115941   6.309   9.531   7.513 -1.7696 -0.7392  0.2139
 3710SOL    HW215942   6.445   9.512   7.575 -1.1868  1.7293 -0.2298
 3711SOL     OW15943   3.444   9.005   7.605  0.5966 -0.1153 -0.0345
 3711SOL    HW115944   3.369   8.960   7.569  0.2265  0.2877  0.2212
 3711SOL    HW215945   3.430   9.004   7.700 -0.0468  1.5712 -0.0683
 3712SOL     OW15946   7.398   9.324   1.799 -0.0199 -0.2932  0.5799
 3712SOL    HW115947   7.488   9.294   1.793 -0.0290 -0.2652  0.2849
 3712SOL    HW215948   7.384   9.375   1.718 -0.4090 -0.6033  0.4507
 3713SOL     OW15949   5.397   4.508   2.185  0.4171 -0.0941 -0.2003
 3713SOL    HW115950   5.409   4.577   2.250  0.6275  0.7626 -1.1063
 3713SOL    HW215951   5.453   4.436   2.215 -0.7638 -0.3782  1.4250
 3714SOL     OW15952   2.163   9.362   5.798 -0.6827  0.0377  0.0666
 3714SOL    HW115953   2.091   9.393   5.743 -0.5323  0.6216  0.1964
 3714SOL    HW215954   2.158   9.416   5.877 -0.1000  0.0895  0.0695
 3715SOL     OW15955  10.199   4.020   7.694  0.1079  0.1824 -0.2245
 3715SOL    HW115956  10.131   3.958   7.721  0.7607  0.0377  1.1803
 3715SOL    HW215957  10.281   3.977   7.716  0.6316  0.8171 -0.8753
 3716SOL     OW15958   5.249   6.015   8.915  0.4116  0.6225 -0.3764
 3716SOL    HW115959   5.211   6.103   8.914  1.0048  0.8826 -1.1565
 3716SOL    HW215960   5.242   5.985   8.824  1.3339  0.3597 -0.3717
 3717SOL     OW15961   6.296  10.297   4.623  0.2415  0.1497 -0.5624
 3717SOL    HW115962   6.325  10.376   4.667 -2.8011  3.1742 -3.4346
 3717SOL    HW215963   6.211  10.278   4.662  0.4217 -1.0665 -0.7096
 3718SOL     OW15964  12.199   0.030   3.267  0.3992  0.5185  0.1617
 3718SOL    HW115965  12.261   0.053   3.197 -0.9929  0.7879 -1.0177
 3718SOL    HW215966  12.211   0.099   3.333  0.1532  1.5592 -0.8496
 3719SOL     OW15967   8.260  10.700   0.939 -0.6434  0.2662 -0.1318
 3719SOL    HW115968   8.282  10.770   1.000 -0.0988 -0.1703  0.1860
 3719SOL    HW215969   8.183  10.732   0.892 -1.6904  0.2040  1.4668
 3720SOL     OW15970  10.311  11.645   1.578 -0.1451 -0.5967  0.3388
 3720SOL    HW115971  10.340  11.555   1.591 -1.0922 -1.1430 -1.1055
 3720SOL    HW215972  10.321  11.660   1.484  0.8341  1.1207  0.6811
 3721SOL     OW15973  11.618  10.506   6.784 -0.0186 -0.1677  0.3692
 3721SOL    HW115974  11.654  10.500   6.872 -0.7269 -1.2712  0.6006
 3721SOL    HW215975  11.528  10.534   6.797 -0.0016  0.0913 -0.0399
 3722SOL     OW15976  12.537   1.529   5.634  0.5771  0.3046  0.0746
 3722SOL    HW115977  12.484   1.534   5.555 -1.9100 -1.3877  1.4557
 3722SOL    HW215978  12.522   1.612   5.679 -2.3249 -0.6616  1.1335
 3723SOL     OW15979   4.917  12.578  12.541  0.2986 -0.1492  0.0354
 3723SOL    HW115980   4.949  12.668  12.532  0.1058  0.0380  1.1558
 3723SOL    HW215981   4.994  12.527  12.566  0.3016 -0.2088 -0.0931
 3724SOL     OW15982  11.530  11.998   0.671 -0.5296 -0.2967  0.1000
 3724SOL    HW115983  11.579  11.944   0.609  1.2146 -0.2592  1.3695
 3724SOL    HW215984  11.454  11.945   0.695 -0.3618 -0.9758 -0.8221
 3725SOL     OW15985  11.079   1.702   3.191  0.1926 -0.2509 -0.3802
 3725SOL    HW115986  11.063   1.714   3.284  2.1490 -0.9266  0.0806
 3725SOL    HW215987  11.023   1.628   3.166  0.9042 -1.1573  0.6546
 3726SOL     OW15988   4.884   8.540  11.824  0.2385 -0.0569 -0.0204
 3726SOL    HW115989   4.942   8.504  11.891  0.7692  0.3490 -0.2514
 3726SOL    HW215990   4.836   8.609  11.869  0.7265  0.3402 -0.0886
 3727SOL     OW15991  10.899   5.916  10.809 -0.4589  0.6345  0.0829
 3727SOL    HW115992  10.832   5.933  10.875 -0.7213  2.4181 -0.6059
 3727SOL    HW215993  10.865   5.841  10.760 -0.2020 -0.8145  1.9744
 3728SOL     OW15994   2.649   7.938   3.169 -0.3647  0.7698  0.4721
 3728SOL    HW115995   2.673   7.845   3.175 -2.2757  0.1725 -0.4234
 3728SOL    HW215996   2.591   7.952   3.244  1.1106  1.6942  1.5004
 3729SOL     OW15997   7.795   4.188   6.733 -0.4705 -0.2760  0.5604
 3729SOL    HW115998   7.824   4.259   6.676 -1.6652 -0.0390  0.2291
 3729SOL    HW215999   7.875   4.138   6.750  0.4667  1.3237  1.0837
 3730SOL     OW16000  10.250   8.487  10.204 -0.2669  0.0075  0.5178
 3730SOL    HW116001  10.198   8.427  10.150 -0.3379  1.1747 -0.7567
 3730SOL    HW216002  10.217   8.574  10.182  1.0556  0.6503  0.9851
 3731SOL     OW16003   9.874   3.217   9.772 -0.0336 -0.0551  0.5306
 3731SOL    HW116004   9.842   3.128   9.786 -0.0874  0.0403  1.0124
 3731SOL    HW216005   9.796   3.266   9.746  0.4815 -0.8167 -2.9940
 3732SOL     OW16006   5.401   1.174  10.325 -0.0548  0.2490 -0.1600
 3732SOL    HW116007   5.382   1.093  10.373 -1.8831  1.2107  0.8450
 3732SOL    HW216008   5.364   1.158  10.238 -1.7289  0.4845  0.4710
 3733SOL     OW16009   1.443   8.921   7.867 -0.0088  0.1605 -0.6547
 3733SOL    HW116010   1.516   8.878   7.912  0.8765  0.5628 -1.6520
 3733SOL    HW216011   1.374   8.927   7.933  0.3627 -1.4578 -0.0724
 3734SOL     OW16012  11.219   0.284   4.204  0.1365  0.9584 -0.0436
 3734SOL    HW116013  11.268   0.364   4.223 -1.1064  1.7160  0.0371
 3734SOL    HW216014  11.136   0.294   4.250 -0.9457  0.6268 -1.8302
 3735SOL     OW16015   2.928   4.942  10.233 -0.4020 -0.2021  1.1820
 3735SOL    HW116016   2.832   4.945  10.234 -0.5300 -2.3817  0.6092
 3735SOL    HW216017   2.952   4.904  10.318 -0.1917 -1.4875  0.5730
 3736SOL     OW16018   5.964   0.010   9.740  0.3779  0.2273 -0.1809
 3736SOL    HW116019   6.052   0.045   9.752  0.3313  0.5415 -0.7424
 3736SOL    HW216020   5.956  -0.006   9.646 -0.0105 -0.2096 -0.0798
 3737SOL     OW16021  11.472  11.696   1.490  0.3389 -0.0286  0.2443
 3737SOL    HW116022  11.459  11.685   1.584 -1.4276 -1.8729 -0.1583
 3737SOL    HW216023  11.542  11.762   1.483  0.6267  0.0294  2.8164
 3738SOL     OW16024   2.921   3.008   0.924  0.4975 -0.4085  0.5886
 3738SOL    HW116025   2.957   3.091   0.894 -0.7615  0.2632  0.8817
 3738SOL    HW216026   2.924   2.951   0.847  1.9228 -0.3168  0.5397
 3739SOL     OW16027   2.464   0.263   2.965 -0.2697  0.3625  0.0126
 3739SOL    HW116028   2.376   0.227   2.965 -0.1988  0.1825  0.2802
 3739SOL    HW216029   2.466   0.323   3.039 -0.5153  1.2451 -0.6872
 3740SOL     OW16030   4.922   4.601  11.273  0.1248  0.6160  0.1705
 3740SOL    HW116031   5.000   4.628  11.321 -0.6786 -0.8248  2.4487
 3740SOL    HW216032   4.849   4.639  11.322 -0.7780 -1.6674  0.6946
 3741SOL     OW16033   8.732   4.305   0.796  0.0252  0.3060 -0.1056
 3741SOL    HW116034   8.771   4.390   0.811 -0.9216  0.5552  1.0953
 3741SOL    HW216035   8.709   4.272   0.883  3.0475 -2.5524 -0.1738
 3742SOL     OW16036  12.170   0.537  12.148  0.2583  0.2520  0.2596
 3742SOL    HW116037  12.081   0.501  12.151  0.5779 -0.6091  0.0269
 3742SOL    HW216038  12.217   0.490  12.216  0.2112  1.6988  1.3246
 3743SOL     OW16039   1.269   7.145   3.633  0.9298  0.4177  0.2796
 3743SOL    HW116040   1.181   7.106   3.631  1.6143 -1.3556  1.3946
 3743SOL    HW216041   1.267   7.203   3.709 -0.4649  3.7229 -2.0774
 3744SOL     OW16042   5.056  11.837   8.285  0.1874 -0.1651  0.1948
 3744SOL    HW116043   4.994  11.839   8.212  0.1506  0.7681  0.2348
 3744SOL    HW216044   5.006  11.871   8.359 -0.2800 -2.6168  1.0979
 3745SOL     OW16045   8.821   2.858   6.815 -1.0428 -0.4953 -0.4711
 3745SOL    HW116046   8.764   2.901   6.878 -0.6740  0.5839 -0.8414
 3745SOL    HW216047   8.773   2.780   6.787 -1.2099 -0.9878  1.1167
 3746SOL     OW16048  11.253  10.674   4.975  1.0354 -0.5227  0.1664
 3746SOL    HW116049  11.269  10.661   4.882 -0.7929 -0.6917 -0.1495
 3746SOL    HW216050  11.265  10.768   4.988  1.2027 -0.4830 -0.2459
 3747SOL     OW16051   9.892  10.624   8.615  0.2277  0.0745  0.2539
 3747SOL    HW116052   9.824  10.629   8.683  0.5216 -1.4653  0.7017
 3747SOL    HW216053   9.974  10.639   8.662  0.4462 -1.1427  0.3090
 3748SOL     OW16054  10.168   9.060   9.268  0.2770 -0.0394 -0.3133
 3748SOL    HW116055  10.259   9.037   9.248  0.6637  0.6878  0.5592
 3748SOL    HW216056  10.152   9.141   9.220  0.6682  0.7927  0.9261
 3749SOL     OW16057   0.669   9.324   4.296  0.1868 -0.2539 -0.4004
 3749SOL    HW116058   0.619   9.402   4.270  0.0837 -0.7326 -1.7423
 3749SOL    HW216059   0.740   9.319   4.232 -0.2362 -1.6602 -0.8048
 3750SOL     OW16060   9.123   4.949   8.662 -0.3281  0.2103  0.1913
 3750SOL    HW116061   9.085   4.861   8.658  0.4624 -0.2382  1.8190
 3750SOL    HW216062   9.146   4.969   8.571 -0.1059 -1.4501 -0.1462
 3751SOL     OW16063   1.972   4.024   8.493 -0.6844  0.1072  0.1226
 3751SOL    HW116064   2.004   4.077   8.420 -0.6528  0.2675  0.2525
 3751SOL    HW216065   1.936   3.945   8.452  0.4808 -0.3850  0.0212
 3752SOL     OW16066   8.640  12.184  12.579 -0.3477 -0.0435  0.3989
 3752SOL    HW116067   8.558  12.149  12.615  0.0986 -0.9973  0.5101
 3752SOL    HW216068   8.642  12.154  12.489  1.5498 -3.1475  1.3367
 3753SOL     OW16069  11.050   9.362   9.631 -0.8229  0.2228 -0.2623
 3753SOL    HW116070  10.987   9.292   9.647  0.6346 -1.5758 -1.8509
 3753SOL    HW216071  11.044   9.379   9.537  0.4948  0.5156 -0.3129
 3754SOL     OW16072   2.688   8.522   6.854  0.6478 -0.0133 -0.5839
 3754SOL    HW116073   2.755   8.541   6.789 -0.6729  0.8934 -1.7341
 3754SOL    HW216074   2.611   8.568   6.823 -0.6761 -1.4510  0.4254
 3755SOL     OW16075   7.618   6.434   7.047 -0.2627 -0.1380 -0.0277
 3755SOL    HW116076   7.623   6.484   7.129 -3.0291  1.0076 -0.4622
 3755SOL    HW216077   7.538   6.383   7.056  0.1496 -1.0749 -1.4802
 3756SOL     OW16078   5.433  12.422  11.194 -0.2754  0.2285 -0.5521
 3756SOL    HW116079   5.518  12.384  11.172 -0.0019  1.5983 -2.0344
 3756SOL    HW216080   5.375  12.391  11.124 -0.7918  0.0563 -0.0542
 3757SOL     OW16081   2.220  11.596   1.061  0.1979  0.2637 -0.1376
 3757SOL    HW116082   2.136  11.555   1.082  0.3457  0.2335  0.4215
 3757SOL    HW216083   2.219  11.678   1.110  1.0689 -0.3734  0.9976
 3758SOL     OW16084   8.789   0.001   5.856  0.5405 -0.2403  0.3631
 3758SOL    HW116085   8.817  -0.069   5.798  1.4108 -0.3383  0.8767
 3758SOL    HW216086   8.778  -0.041   5.942  0.9073  0.2132  0.6382
 3759SOL     OW16087   5.765   7.765   0.200  0.0663  0.1954  0.3909
 3759SOL    HW116088   5.834   7.798   0.142 -0.0563  0.7533  0.5540
 3759SOL    HW216089   5.748   7.676   0.169  0.6917  0.1351  0.2003
 3760SOL     OW16090   3.515  11.851   7.776  0.0456 -0.9835 -0.1194
 3760SOL    HW116091   3.533  11.844   7.869  0.0833 -1.4839 -0.1599
 3760SOL    HW216092   3.497  11.761   7.748  0.6949 -0.9356 -0.7258
 3761SOL     OW16093   5.332  11.173  10.540 -0.0785  0.2123 -0.4847
 3761SOL    HW116094   5.257  11.165  10.599 -0.1223  0.0125 -0.5663
 3761SOL    HW216095   5.366  11.261  10.556 -1.8053  1.2732 -2.2053
 3762SOL     OW16096   2.483   6.735  12.195 -0.2836  0.5954  0.5171
 3762SOL    HW116097   2.557   6.707  12.249  2.1992  0.8721 -2.4669
 3762SOL    HW216098   2.485   6.831  12.199  1.6212  0.7537 -1.9405
 3763SOL     OW16099  10.890  11.126   0.424 -0.1558 -0.7894  0.5688
 3763SOL    HW116100  10.857  11.213   0.402 -0.9506 -1.2889 -0.3348
 3763SOL    HW216101  10.857  11.070   0.353 -1.2186 -2.1594  2.0653
 3764SOL     OW16102  12.017   1.167  11.076  0.4398 -0.3130  0.5522
 3764SOL    HW116103  11.932   1.194  11.110  0.7197  2.0861 -0.4349
 3764SOL    HW216104  12.005   1.076  11.048 -1.7707 -0.0541  0.5198
 3765SOL     OW16105   1.262   9.780   8.836 -0.3435  0.3066  0.0115
 3765SOL    HW116106   1.276   9.713   8.769  0.0804  1.6713 -1.3466
 3765SOL    HW216107   1.212   9.736   8.904 -0.1594 -1.3532 -0.8612
 3766SOL     OW16108   8.000   6.202   1.918  0.3741  0.3761  0.5701
 3766SOL    HW116109   7.963   6.132   1.972 -0.2525  2.1030  2.5313
 3766SOL    HW216110   8.089   6.173   1.898 -0.6012 -2.0120 -0.7400
 3767SOL     OW16111  11.025   6.793   9.725  0.4257 -0.1889 -0.6668
 3767SOL    HW116112  11.120   6.803   9.726  0.2256  2.6566 -0.8073
 3767SOL    HW216113  11.002   6.792   9.632  0.2351  0.3928 -0.6265
 3768SOL     OW16114   9.867   0.264  10.850  0.0131 -0.2072 -0.6185
 3768SOL    HW116115   9.893   0.356  10.846 -1.5604  0.3006  0.0371
 3768SOL    HW216116   9.929   0.219  10.793  1.5108  1.0831 -0.0842
 3769SOL     OW16117   9.535   4.973   0.315 -0.0930  0.0582 -0.6360
 3769SOL    HW116118   9.624   4.945   0.338 -0.1916  0.5832  0.4857
 3769SOL    HW216119   9.537   5.069   0.326 -0.9069  0.0315 -0.1771
 3770SOL     OW16120   0.119   3.181   6.614 -0.0266  0.3837 -0.1852
 3770SOL    HW116121   0.051   3.134   6.564  1.7186 -0.7287 -1.6376
 3770SOL    HW216122   0.144   3.254   6.558 -1.6358  2.2554  1.4013
 3771SOL     OW16123  11.076   0.298   9.511 -0.0712 -0.1702  0.1705
 3771SOL    HW116124  11.091   0.205   9.531 -2.6840 -0.9047 -0.8904
 3771SOL    HW216125  11.078   0.303   9.416 -1.1787  0.6083  0.1687
 3772SOL     OW16126   1.685  11.026   3.882 -0.0594  0.3503 -0.0849
 3772SOL    HW116127   1.701  11.115   3.851 -1.9418  0.1422 -1.8703
 3772SOL    HW216128   1.590  11.018   3.883  0.0694 -1.4930  0.5036
 3773SOL     OW16129  12.022   3.889  10.626 -0.1105  0.3911 -0.2242
 3773SOL    HW116130  12.076   3.810  10.615 -0.8395 -0.1216 -0.1443
 3773SOL    HW216131  11.934   3.857  10.645 -0.2380  1.2345  0.7256
 3774SOL     OW16132  11.516   9.143   2.217  0.1214  0.3456 -0.3618
 3774SOL    HW116133  11.594   9.189   2.184  0.1282 -0.5222 -1.6053
 3774SOL    HW216134  11.470   9.114   2.139 -1.3320  0.6045  0.3659
 3775SOL     OW16135   0.191   4.079   5.886  0.0164  0.4496 -0.4660
 3775SOL    HW116136   0.230   4.166   5.895 -1.0315  0.9587 -0.7571
 3775SOL    HW216137   0.236   4.026   5.952  2.5813  0.5009 -2.0363
 3776SOL     OW16138   6.216   2.205   9.915 -0.1740  0.6249 -0.3990
 3776SOL    HW116139   6.188   2.279   9.968 -0.5344  0.2928 -0.1174
 3776SOL    HW216140   6.308   2.191   9.938 -0.9475 -1.0893  2.0569
 3777SOL     OW16141   3.558  12.199   7.687 -0.1596 -0.6100 -0.3870
 3777SOL    HW116142   3.561  12.128   7.751  0.6151 -1.5185 -1.4089
 3777SOL    HW216143   3.507  12.164   7.614 -1.0132  0.4074 -0.2988
 3778SOL     OW16144  10.221   3.803   3.916  0.4459 -0.1772 -0.3130
 3778SOL    HW116145  10.140   3.853   3.914  0.8919  0.5600 -0.5043
 3778SOL    HW216146  10.195   3.713   3.896 -0.3348  0.0266 -0.2303
 3779SOL     OW16147   8.722   3.751   7.592 -0.4505 -0.5960  0.1811
 3779SOL    HW116148   8.808   3.757   7.548 -0.1922 -0.9761  0.6222
 3779SOL    HW216149   8.684   3.837   7.581 -0.2964 -0.6156 -0.6058
 3780SOL     OW16150  12.376   3.421   5.720  0.4223  0.1265  0.1651
 3780SOL    HW116151  12.443   3.463   5.775  1.4149  0.0278 -0.9217
 3780SOL    HW216152  12.327   3.493   5.682  0.6717  0.2349  0.0483
 3781SOL     OW16153   3.093   6.436   5.851  0.4759  0.3675 -0.2615
 3781SOL    HW116154   3.065   6.348   5.825 -0.2581  0.3409  0.5534
 3781SOL    HW216155   3.083   6.437   5.946 -0.3831  1.6170 -0.3404
 3782SOL     OW16156   3.781  10.514   2.082  0.1768 -0.3597  0.1590
 3782SOL    HW116157   3.830  10.463   2.017 -0.1922 -0.7413  0.1723
 3782SOL    HW216158   3.709  10.456   2.108 -0.1438  0.1051  0.3128
 3783SOL     OW16159   3.630   2.696   1.155 -0.5363 -0.4379 -0.3034
 3783SOL    HW116160   3.680   2.717   1.077 -0.8189 -0.0663 -0.3886
 3783SOL    HW216161   3.547   2.742   1.143 -0.0765  0.7475  0.8438
 3784SOL     OW16162   2.444   2.370   3.384 -0.3533  0.0861 -0.0661
 3784SOL    HW116163   2.452   2.279   3.357 -1.6886 -0.0421 -0.0780
 3784SOL    HW216164   2.350   2.389   3.380 -0.0371  1.6750 -0.7663
 3785SOL     OW16165   6.598   5.611   0.166  0.4446 -0.1272  0.0294
 3785SOL    HW116166   6.553   5.560   0.234  0.9900 -0.0510  0.4569
 3785SOL    HW216167   6.622   5.693   0.210 -2.5213  1.5861 -1.2776
 3786SOL     OW16168  10.028  11.655  11.357  0.3201 -0.1537 -0.1441
 3786SOL    HW116169  10.116  11.692  11.368 -0.0840  0.6765  0.3554
 3786SOL    HW216170  10.001  11.630  11.445 -0.1667  0.1113 -0.2157
 3787SOL     OW16171   2.087   2.453   7.972 -0.5606  0.0566  0.1977
 3787SOL    HW116172   2.002   2.441   7.929 -0.0093 -1.7411 -0.4900
 3787SOL    HW216173   2.123   2.364   7.978  0.5819  0.5839  1.9419
 3788SOL     OW16174   7.178   7.561   5.507 -0.4105 -0.3887  0.3169
 3788SOL    HW116175   7.131   7.621   5.450  0.6524 -0.1471 -0.3281
 3788SOL    HW216176   7.181   7.479   5.457  1.2543  0.0542 -0.4054
 3789SOL     OW16177  12.346   5.710   2.762  0.0696  0.4399 -0.5678
 3789SOL    HW116178  12.339   5.657   2.683 -1.8277 -0.8151  0.3580
 3789SOL    HW216179  12.411   5.665   2.816 -1.4512 -1.0127  0.1680
 3790SOL     OW16180   0.409  11.718   7.527  0.3433 -0.1864 -0.1733
 3790SOL    HW116181   0.478  11.708   7.461 -0.2430 -0.7660 -0.7042
 3790SOL    HW216182   0.328  11.716   7.478 -0.1146 -0.8795  0.5932
 3791SOL     OW16183  10.506   4.458   0.786 -0.9152  0.8421 -0.6005
 3791SOL    HW116184  10.488   4.438   0.695  0.9774  0.7346 -0.9958
 3791SOL    HW216185  10.501   4.554   0.791 -3.6312  0.7579 -0.1583
 3792SOL     OW16186  10.939   0.786   8.437 -0.9975 -0.2799 -0.4169
 3792SOL    HW116187  10.909   0.698   8.458 -3.1530  0.5437  0.1376
 3792SOL    HW216188  11.009   0.804   8.500 -0.4851 -1.5826 -0.5855
 3793SOL     OW16189   7.250   0.035   9.047 -0.5085 -0.8455  0.5925
 3793SOL    HW116190   7.338   0.042   9.009 -1.7728 -0.6524 -2.5914
 3793SOL    HW216191   7.241   0.114   9.100  1.5776 -1.4070  1.9372
 3794SOL     OW16192   9.513  11.888   4.250 -0.0284 -0.2099  0.6349
 3794SOL    HW116193   9.494  11.802   4.212 -1.8289  0.0243  0.9054
 3794SOL    HW216194   9.496  11.949   4.178 -1.3690  0.0761  1.1545
 3795SOL     OW16195   7.144   6.096   9.453 -0.0975  0.8031  1.0080
 3795SOL    HW116196   7.163   6.056   9.368  0.1545 -0.5228  1.6644
 3795SOL    HW216197   7.048   6.095   9.458 -0.0964  0.3444  0.9853
 3796SOL     OW16198  10.985   6.593   2.982 -0.6942  0.5143 -0.0482
 3796SOL    HW116199  11.066   6.609   3.032 -1.1824  0.3161  0.8214
 3796SOL    HW216200  10.947   6.680   2.970  0.2436  0.7636 -1.5332
 3797SOL     OW16201   3.601   6.894   8.115  0.0266  0.6920 -0.0951
 3797SOL    HW116202   3.685   6.939   8.108  2.7930 -3.9543 -1.6705
 3797SOL    HW216203   3.550   6.925   8.040  1.2551  2.0074 -0.4267
 3798SOL     OW16204   7.858   3.818   6.559  0.2551  0.5591 -0.0680
 3798SOL    HW116205   7.810   3.749   6.605  1.4379 -0.9865 -1.0237
 3798SOL    HW216206   7.791   3.874   6.521 -0.7467 -0.1691  0.5798
 3799SOL     OW16207   5.255   3.767   4.229  0.4100  0.7152 -0.4796
 3799SOL    HW116208   5.265   3.849   4.277  1.1720 -0.6335  1.8188
 3799SOL    HW216209   5.175   3.727   4.265 -0.2035  0.6274 -1.8876
 3800SOL     OW16210   9.335   4.357   6.857 -0.0657  0.4606 -0.2427
 3800SOL    HW116211   9.360   4.446   6.831 -0.3636  0.2694 -1.2171
 3800SOL    HW216212   9.402   4.331   6.921  0.7246  0.9391 -0.8596
 3801SOL     OW16213   6.856   8.936  12.306 -0.3007 -0.1176 -0.1520
 3801SOL    HW116214   6.950   8.922  12.312  0.0916  2.6222  2.5428
 3801SOL    HW216215   6.846   9.007  12.242 -0.6777 -1.1015 -1.2144
 3802SOL     OW16216   1.989   0.910   4.584 -0.1305  0.2785  0.1233
 3802SOL    HW116217   1.944   0.865   4.512 -1.6135  1.0852  0.5188
 3802SOL    HW216218   2.056   0.963   4.540 -0.8937  0.6177 -0.6533
 3803SOL     OW16219  10.938   7.068   4.169  0.1399 -0.5205 -0.2266
 3803SOL    HW116220  10.941   6.973   4.164  1.0008 -0.5184  0.0231
 3803SOL    HW216221  10.896   7.096   4.088 -1.0327 -1.1476  0.1446
 3804SOL     OW16222  10.070   5.850  11.863  0.4451  0.8310  0.6782
 3804SOL    HW116223  10.097   5.779  11.805  0.2515  0.5161  0.9720
 3804SOL    HW216224  10.149   5.871  11.914  1.1467  2.3197 -0.9089
 3805SOL     OW16225   5.161  12.070  11.476 -0.1286 -0.4589  0.2097
 3805SOL    HW116226   5.203  12.003  11.423 -1.1265 -0.1336 -1.0471
 3805SOL    HW216227   5.186  12.049  11.566  2.9131 -0.1195 -0.4483
 3806SOL     OW16228   6.481   8.327   4.059  0.1411  0.1973 -0.0661
 3806SOL    HW116229   6.420   8.323   3.985  1.2543  1.0846 -1.0860
 3806SOL    HW216230   6.427   8.313   4.136 -1.2202  0.2208 -0.9848
 3807SOL     OW16231   4.644   2.017   6.669 -0.0861 -0.0954 -0.3101
 3807SOL    HW116232   4.636   2.068   6.588 -1.8702 -1.0556 -0.7723
 3807SOL    HW216233   4.557   2.017   6.707  0.1140 -1.8726  0.2428
 3808SOL     OW16234   0.779   3.523   0.647  0.3760  0.1484  0.0145
 3808SOL    HW116235   0.738   3.437   0.655 -3.4059  1.8639  0.9809
 3808SOL    HW216236   0.828   3.533   0.729  2.4414 -1.6633 -0.8701
 3809SOL     OW16237   9.332   0.799   4.248  0.5208 -0.3821 -0.2747
 3809SOL    HW116238   9.272   0.754   4.189 -0.4283 -0.4220  0.6939
 3809SOL    HW216239   9.387   0.852   4.189  2.2459 -3.3007 -1.5369
 3810SOL     OW16240   9.412   0.638   4.976  0.0301  0.2456  0.2476
 3810SOL    HW116241   9.432   0.550   5.008 -1.8747 -0.6099 -0.7128
 3810SOL    HW216242   9.386   0.687   5.054  1.4253  0.0865  0.8383
 3811SOL     OW16243   9.316  10.116   6.637 -1.1904 -0.0763  0.0500
 3811SOL    HW116244   9.231  10.141   6.673 -0.5694  0.4289  1.2643
 3811SOL    HW216245   9.362  10.078   6.712 -0.4345 -0.5431 -0.6464
 3812SOL     OW16246   6.436   0.467   9.383 -0.0642  0.2562 -0.7255
 3812SOL    HW116247   6.460   0.539   9.441  1.0115  0.2160 -1.0957
 3812SOL    HW216248   6.357   0.498   9.339  0.9535  1.6848 -1.6466
 3813SOL     OW16249  10.811  10.630  11.128 -0.0550  0.0195 -0.7340
 3813SOL    HW116250  10.872  10.605  11.058  1.0754 -0.3374  0.3501
 3813SOL    HW216251  10.849  10.709  11.167  0.5294 -0.9925  0.8632
 3814SOL     OW16252   0.074  10.649   0.647 -0.8503 -0.0334  0.1143
 3814SOL    HW116253   0.058  10.701   0.568 -2.0026  0.9152  0.9144
 3814SOL    HW216254  -0.011  10.608   0.665 -0.7289  0.1126  1.0713
 3815SOL     OW16255   5.817   0.441   5.288 -0.0304 -0.4207  0.3843
 3815SOL    HW116256   5.764   0.512   5.323  1.4105  1.1176 -0.3545
 3815SOL    HW216257   5.903   0.454   5.328  0.5907 -0.9502 -0.7255
 3816SOL     OW16258   2.228   0.128   3.016  0.1701 -0.0905 -0.0128
 3816SOL    HW116259   2.223   0.079   3.098 -1.7762 -0.3628 -0.2305
 3816SOL    HW216260   2.149   0.101   2.968  0.2518  1.5319 -1.1316
 3817SOL     OW16261  10.112   7.249   2.979 -0.1056 -0.0910  0.2242
 3817SOL    HW116262  10.042   7.310   2.960  0.1180 -0.3386 -1.5936
 3817SOL    HW216263  10.093   7.173   2.924  3.2371  1.0956 -2.9762
 3818SOL     OW16264  12.056  11.505   5.290 -0.1401 -0.0830  0.1915
 3818SOL    HW116265  12.134  11.519   5.343 -0.8549  1.1804  0.9505
 3818SOL    HW216266  12.069  11.560   5.212 -0.0374 -0.2888  0.0625
 3819SOL     OW16267   3.012   8.223  11.229  0.5037 -0.1920  0.5628
 3819SOL    HW116268   3.047   8.207  11.316 -0.4178  1.5906  1.3140
 3819SOL    HW216269   3.047   8.309  11.205  0.8662 -0.7195 -0.9081
 3820SOL     OW16270  11.791   5.362   5.201  0.6223  0.0764 -1.2786
 3820SOL    HW116271  11.829   5.344   5.115 -0.7573 -2.8490 -1.3998
 3820SOL    HW216272  11.698   5.342   5.191  0.4738 -0.6100  0.9443
 3821SOL     OW16273   1.261   1.587   7.012 -0.5097  0.0498  0.5602
 3821SOL    HW116274   1.242   1.668   6.965  2.5596  2.0622  2.4442
 3821SOL    HW216275   1.215   1.596   7.095 -0.6365 -0.4616  0.5507
 3822SOL     OW16276   5.292   9.348  12.437 -0.5251 -0.0793  0.6898
 3822SOL    HW116277   5.256   9.382  12.519  2.2304  1.2971  1.4287
 3822SOL    HW216278   5.342   9.421  12.400  0.9604 -1.6429 -0.5492
 3823SOL     OW16279   8.458   7.052   8.765 -0.1839 -0.3989 -0.0920
 3823SOL    HW116280   8.533   7.077   8.819  0.0735 -0.6986 -0.3083
 3823SOL    HW216281   8.431   7.133   8.723  0.3015 -0.3738 -0.3606
 3824SOL     OW16282   0.391   1.942  10.728 -0.2041  0.0832 -0.7141
 3824SOL    HW116283   0.337   1.894  10.666  0.3862  0.1395 -1.2751
 3824SOL    HW216284   0.329   1.999  10.774 -0.5320  0.6379 -1.8150
 3825SOL     OW16285   4.295   4.977  12.218 -0.0330  0.7188 -0.0885
 3825SOL    HW116286   4.319   5.027  12.297 -0.7037  0.3649  0.3465
 3825SOL    HW216287   4.308   5.039  12.146  1.3583  0.8001  0.2016
 3826SOL     OW16288  10.335   0.653   0.117  0.4048 -0.1598  0.2565
 3826SOL    HW116289  10.305   0.726   0.172  0.6689  0.9726 -1.0481
 3826SOL    HW216290  10.363   0.586   0.180 -1.7625  0.0167  1.5205
 3827SOL     OW16291  10.090  10.032   6.862 -0.1355  0.1142 -0.1033
 3827SOL    HW116292  10.059   9.984   6.785 -0.3508  0.0913 -0.0026
 3827SOL    HW216293  10.088   9.967   6.933 -0.3934  0.2617  0.0254
 3828SOL     OW16294   0.950  11.559   0.677  0.8431  0.4281  0.6854
 3828SOL    HW116295   0.965  11.544   0.583  0.3141  1.3822  0.4266
 3828SOL    HW216296   0.919  11.475   0.710 -1.0063  0.5959 -0.4584
 3829SOL     OW16297   7.894   3.886   8.539  0.1664 -0.0906  0.0198
 3829SOL    HW116298   7.921   3.892   8.630  2.2480 -0.6128 -0.5086
 3829SOL    HW216299   7.836   3.811   8.536 -1.9125  1.3685  1.2960
 3830SOL     OW16300   6.087   9.461   0.776 -0.1242 -0.2533  0.1255
 3830SOL    HW116301   6.006   9.417   0.750 -0.5544  0.6922 -0.1444
 3830SOL    HW216302   6.121   9.500   0.696 -0.5056  1.1312  0.6154
 3831SOL     OW16303   7.421   5.750   5.898 -0.6049  0.4379  0.1083
 3831SOL    HW116304   7.501   5.728   5.850 -0.1876  0.3351  0.8424
 3831SOL    HW216305   7.430   5.843   5.920 -1.1643  0.6970 -0.6928
 3832SOL     OW16306   2.208   9.047   3.954  0.0329 -0.3574 -0.0546
 3832SOL    HW116307   2.131   9.050   3.897  1.0640 -0.4014 -1.5023
 3832SOL    HW216308   2.175   9.014   4.037 -1.5434 -0.1923 -0.5814
 3833SOL     OW16309   1.107   4.175   4.997  0.3061 -0.2566 -0.8612
 3833SOL    HW116310   1.029   4.227   5.015 -1.6164 -3.7463  2.3265
 3833SOL    HW216311   1.179   4.238   4.999 -2.1597  2.8266 -1.8127
 3834SOL     OW16312   4.735   0.845   1.515 -0.1530 -0.6435  0.0860
 3834SOL    HW116313   4.818   0.884   1.541 -0.6343 -0.1386  0.9328
 3834SOL    HW216314   4.669   0.892   1.567 -0.8429 -1.9233  0.4231
 3835SOL     OW16315   0.802   3.702   3.763  0.3880  0.2653 -0.0349
 3835SOL    HW116316   0.798   3.612   3.795 -0.6481  0.3606  0.1395
 3835SOL    HW216317   0.896   3.723   3.761  0.6008 -0.5880  0.5453
 3836SOL     OW16318   3.343   2.138   2.500  0.5397  0.0687 -0.8009
 3836SOL    HW116319   3.332   2.154   2.407 -0.0397 -0.7181 -0.8817
 3836SOL    HW216320   3.256   2.153   2.537  1.0936  1.8831 -0.1308
 3837SOL     OW16321  12.079   6.741   3.393  0.3937 -1.0517 -0.4722
 3837SOL    HW116322  12.046   6.711   3.478  0.8046 -0.9527 -0.2774
 3837SOL    HW216323  12.003   6.734   3.335  0.4421 -2.3954 -0.4135
 3838SOL     OW16324   7.114   2.839   7.979  0.7601  0.6511  0.4898
 3838SOL    HW116325   7.176   2.908   7.957 -0.3316  1.6394  0.4145
 3838SOL    HW216326   7.167   2.759   7.981  2.4255  1.7052  2.4049
 3839SOL     OW16327   1.446   8.820   1.138 -0.3589 -0.1165  0.0428
 3839SOL    HW116328   1.464   8.913   1.151 -1.1216 -0.1074  1.2583
 3839SOL    HW216329   1.484   8.778   1.215  0.0148 -0.8258 -0.5192
 3840SOL     OW16330   6.207   9.589  11.727  0.2330  0.0937 -0.2494
 3840SOL    HW116331   6.207   9.661  11.791 -2.5585 -1.2830  1.4856
 3840SOL    HW216332   6.158   9.624  11.653 -0.6990  0.1684  0.3841
 3841SOL     OW16333  11.074   3.343   8.241  0.4301  0.0860 -0.3830
 3841SOL    HW116334  11.112   3.406   8.302  2.0955  1.7575 -2.9439
 3841SOL    HW216335  10.997   3.387   8.204 -0.4284 -0.8108  0.2811
 3842SOL     OW16336  10.804   4.765   8.141  0.0875  0.2289  0.0358
 3842SOL    HW116337  10.710   4.774   8.154 -0.0291  0.3213 -0.7976
 3842SOL    HW216338  10.834   4.713   8.215 -0.6110  0.2435  0.3348
 3843SOL     OW16339   7.314  11.352   4.775 -0.1546 -0.0576 -0.0235
 3843SOL    HW116340   7.278  11.282   4.829 -0.4963  0.2550  0.1574
 3843SOL    HW216341   7.307  11.319   4.686  1.2386 -0.9472  0.1738
 3844SOL     OW16342   5.139  10.704   6.797 -0.2146 -0.4502  0.0345
 3844SOL    HW116343   5.231  10.696   6.773 -0.1318 -1.4178  0.6045
 3844SOL    HW216344   5.139  10.710   6.892 -0.7844 -1.6013  0.1233
 3845SOL     OW16345   9.060   0.148   0.104 -0.1592  0.2093  0.0873
 3845SOL    HW116346   9.110   0.138   0.023 -1.5471 -0.4964 -0.7063
 3845SOL    HW216347   9.069   0.241   0.126 -0.6108  0.6430 -1.4563
 3846SOL     OW16348  11.656   9.157   6.283  0.5291  0.3568 -0.6333
 3846SOL    HW116349  11.690   9.244   6.304  1.3813 -0.2771  0.7795
 3846SOL    HW216350  11.635   9.162   6.190 -0.4723  2.3858 -0.3603
 3847SOL     OW16351   1.044   5.647   0.877 -0.3501  0.6812 -0.1843
 3847SOL    HW116352   1.074   5.721   0.930  1.2920  1.6315 -2.2805
 3847SOL    HW216353   0.963   5.677   0.837  0.8403  1.8988 -1.8661
 3848SOL     OW16354   0.560   8.713   9.920  0.2546 -0.0407 -0.3857
 3848SOL    HW116355   0.556   8.692  10.013 -2.0739  1.9257  0.0624
 3848SOL    HW216356   0.538   8.806   9.915  0.1870 -0.1230 -2.9096
 3849SOL     OW16357   2.410   1.866  12.492 -0.4016  0.1850 -0.2273
 3849SOL    HW116358   2.458   1.903  12.566 -1.7905 -0.7905  1.2384
 3849SOL    HW216359   2.344   1.932  12.471 -0.5716  0.0814 -0.0150
 3850SOL     OW16360   2.093  12.084   6.741  0.3487  0.2334 -0.4608
 3850SOL    HW116361   2.118  11.999   6.705 -1.0582 -0.9910  1.2836
 3850SOL    HW216362   2.002  12.096   6.713  0.5904  1.2717 -0.8436
 3851SOL     OW16363   2.740   9.392   7.682  0.6591  0.1799 -0.0417
 3851SOL    HW116364   2.759   9.410   7.774 -0.8286  1.6528  0.0392
 3851SOL    HW216365   2.811   9.336   7.653  1.3888  0.0275  1.8938
 3852SOL     OW16366   8.678   4.978   7.990 -0.2174 -0.2564  0.2792
 3852SOL    HW116367   8.582   4.977   7.988 -0.2511  1.3928 -0.6828
 3852SOL    HW216368   8.700   5.048   8.052  0.3890 -0.6100  0.4781
 3853SOL     OW16369   4.360   1.284   5.757  0.7895  0.3684 -0.1377
 3853SOL    HW116370   4.368   1.323   5.670  0.3358  2.2338  0.6242
 3853SOL    HW216371   4.268   1.259   5.764  0.5257  1.4014  0.2625
 3854SOL     OW16372   2.092   6.223   3.296 -0.0381 -0.8265  0.8030
 3854SOL    HW116373   2.044   6.268   3.365  1.5931  2.3991  0.0408
 3854SOL    HW216374   2.178   6.205   3.334  0.0449 -1.3259  0.3891
 3855SOL     OW16375  11.929   8.962   1.491  0.0064 -0.6110  0.4983
 3855SOL    HW116376  11.988   8.887   1.479 -0.2955 -1.2655  2.5804
 3855SOL    HW216377  11.896   8.951   1.580 -1.1701  1.2386  0.3296
 3856SOL     OW16378  12.463   2.916   9.926 -0.3507 -0.8099 -0.1940
 3856SOL    HW116379  12.529   2.929   9.858 -0.0251 -1.1063  0.0660
 3856SOL    HW216380  12.380   2.918   9.879 -0.2711  1.0514 -0.3425
 3857SOL     OW16381   0.252   5.780   4.932  0.6065  0.5258 -0.0209
 3857SOL    HW116382   0.246   5.698   4.883 -1.4337  0.7525 -0.2415
 3857SOL    HW216383   0.316   5.763   5.000 -0.9018 -1.8267  0.9401
 3858SOL     OW16384   5.302   2.730  11.085 -0.2423 -0.2036  0.5953
 3858SOL    HW116385   5.341   2.646  11.112 -1.1781 -0.3333  1.6093
 3858SOL    HW216386   5.317   2.733  10.990 -0.1008 -1.4800  0.5487
 3859SOL     OW16387  10.248   8.758  10.859 -0.6225 -0.0766  0.3063
 3859SOL    HW116388  10.231   8.711  10.941  0.5881 -0.9160  0.1067
 3859SOL    HW216389  10.282   8.843  10.887 -2.7490  0.7133  0.6677
 3860SOL     OW16390   9.248   9.085   8.432 -0.0048  0.1058  0.7108
 3860SOL    HW116391   9.205   9.112   8.351  1.8651  0.5917 -0.1816
 3860SOL    HW216392   9.312   9.154   8.449  0.0463 -0.2921  2.2963
 3861SOL     OW16393   3.756  11.884   3.867 -0.0199  0.0215 -0.0616
 3861SOL    HW116394   3.732  11.809   3.812 -0.6056 -0.2443  0.5410
 3861SOL    HW216395   3.698  11.877   3.943  0.6215  0.5143  0.4802
 3862SOL     OW16396   2.073   4.333  12.335  0.3193  0.1634 -0.5096
 3862SOL    HW116397   2.047   4.411  12.285 -1.0586 -0.4189 -0.7255
 3862SOL    HW216398   2.008   4.327  12.405  0.5761 -0.6459 -0.3381
 3863SOL     OW16399   5.772   3.381   4.640 -0.0347 -0.1005 -0.1339
 3863SOL    HW116400   5.699   3.357   4.583 -0.2940 -1.2945  0.6723
 3863SOL    HW216401   5.844   3.323   4.613 -1.1214 -3.1569  2.8604
 3864SOL     OW16402   5.057   4.971   0.914 -0.3434  0.6255 -0.1063
 3864SOL    HW116403   5.022   4.883   0.897  0.6392  0.6279 -2.5548
 3864SOL    HW216404   5.006   5.028   0.856 -0.7010  1.6457  1.1672
 3865SOL     OW16405   6.053   5.414   7.220 -0.0251 -0.0575  0.1364
 3865SOL    HW116406   6.113   5.384   7.288 -1.1614  0.5111  1.4235
 3865SOL    HW216407   6.021   5.334   7.179  1.4458 -0.3730 -0.4534
 3866SOL     OW16408   5.632  12.174   4.580 -0.2773  0.1453  0.0955
 3866SOL    HW116409   5.722  12.198   4.598  0.1196 -1.5089  0.5419
 3866SOL    HW216410   5.633  12.078   4.577 -1.5057  0.1198 -2.7289
 3867SOL     OW16411   6.338  12.545   3.818 -0.1002 -0.7622 -0.1753
 3867SOL    HW116412   6.343  12.640   3.823  0.6546 -0.8510  3.3723
 3867SOL    HW216413   6.245  12.525   3.829 -0.4572 -0.4850 -2.2897
 3868SOL     OW16414   9.551   5.696   6.122  0.2242  0.1732 -0.3202
 3868SOL    HW116415   9.581   5.636   6.190 -0.6129  0.1942  0.0787
 3868SOL    HW216416   9.456   5.696   6.131  0.0616 -0.2068 -1.8181
 3869SOL     OW16417   9.513   9.798   2.568  0.6667 -0.0394  0.0495
 3869SOL    HW116418   9.524   9.797   2.663  0.9351 -2.6798  0.0635
 3869SOL    HW216419   9.452   9.726   2.551 -2.5854  2.8366 -1.5127
 3870SOL     OW16420   1.119  11.817  10.439  0.3450  0.3099 -0.3191
 3870SOL    HW116421   1.030  11.849  10.451  0.6676  1.7788 -1.4253
 3870SOL    HW216422   1.172  11.866  10.503  0.2798 -1.0920  0.8427
 3871SOL     OW16423   6.879   4.223   2.834 -0.1348  0.1916 -0.0558
 3871SOL    HW116424   6.870   4.318   2.843  0.2615  0.2706 -0.4580
 3871SOL    HW216425   6.959   4.211   2.782  2.3734 -0.4799  3.5698
 3872SOL     OW16426   6.223   7.502  12.003  0.1543  0.6852  0.1122
 3872SOL    HW116427   6.166   7.445  11.951  0.2529  0.6414  0.0533
 3872SOL    HW216428   6.163   7.566  12.042  0.1968  1.3070 -0.8203
 3873SOL     OW16429   1.159   3.145   0.332  0.1371 -0.4617  0.2571
 3873SOL    HW116430   1.170   3.151   0.427 -0.1589 -3.4242  0.5814
 3873SOL    HW216431   1.097   3.073   0.320 -0.4273  0.3297 -2.1914
 3874SOL     OW16432   9.587  10.059   5.945  0.1574  0.4338  0.3787
 3874SOL    HW116433   9.674  10.071   5.907  0.8579 -0.9476  1.4695
 3874SOL    HW216434   9.533  10.126   5.902  1.6504  1.0678 -0.5984
 3875SOL     OW16435   9.531   5.289   6.915 -0.4165 -0.2778  0.5271
 3875SOL    HW116436   9.452   5.343   6.917 -1.5627 -1.6733 -2.1051
 3875SOL    HW216437   9.502   5.204   6.882  1.9752 -1.2920  0.7706
 3876SOL     OW16438   9.948  11.423   0.027  0.1860 -0.0475  0.2869
 3876SOL    HW116439   9.971  11.332   0.007 -0.4294 -0.3609  0.9792
 3876SOL    HW216440   9.950  11.467  -0.058 -0.1729 -0.8591 -0.1516
 3877SOL     OW16441   6.637   4.384   6.696  0.1465  0.4755 -0.5076
 3877SOL    HW116442   6.568   4.448   6.714  0.4530  0.6314  0.1722
 3877SOL    HW216443   6.681   4.417   6.618  1.2912  1.9635  0.7050
 3878SOL     OW16444  10.274   6.289   0.915  0.4198 -0.3737  0.0433
 3878SOL    HW116445  10.310   6.201   0.921 -1.6488 -1.2190  0.7647
 3878SOL    HW216446  10.183   6.280   0.942  0.5420  2.2433  1.7656
 3879SOL     OW16447   3.898   1.494   6.403 -0.0653 -0.2334 -0.1123
 3879SOL    HW116448   3.972   1.434   6.399 -0.9623 -1.3627 -0.6716
 3879SOL    HW216449   3.916   1.559   6.335  0.4618 -0.4362 -0.1708
 3880SOL     OW16450   9.651   2.145   5.924  0.1431  0.1001  0.3417
 3880SOL    HW116451   9.609   2.142   6.010  1.2477  0.1500  0.8947
 3880SOL    HW216452   9.673   2.053   5.906 -0.0928  0.0889  0.0966
 3881SOL     OW16453  10.812   1.434   7.858  0.3859 -0.2314 -0.5259
 3881SOL    HW116454  10.809   1.524   7.891  1.4069 -0.4782  0.3034
 3881SOL    HW216455  10.795   1.442   7.764 -0.6430  0.7009 -0.2814
 3882SOL     OW16456   4.957   8.841   3.153  0.2757 -0.1627  0.3272
 3882SOL    HW116457   5.008   8.910   3.196 -0.9488  0.5632  0.6530
 3882SOL    HW216458   4.924   8.882   3.073  0.2430 -0.6471  0.0890
 3883SOL     OW16459   4.926   6.743   6.161  0.0794  0.0383  0.5385
 3883SOL    HW116460   4.905   6.829   6.125 -1.3415 -0.3976  0.2597
 3883SOL    HW216461   4.869   6.734   6.237  1.6370  0.1267  1.7539
 3884SOL     OW16462   3.596   4.364   2.123  0.0600  0.2152 -0.1915
 3884SOL    HW116463   3.543   4.382   2.201  0.5739 -1.3902  0.5818
 3884SOL    HW216464   3.670   4.423   2.130  1.1556 -1.2641  1.6849
 3885SOL     OW16465  10.111   6.927   8.206  0.1558 -0.7455  0.0401
 3885SOL    HW116466  10.153   6.880   8.278  2.3662  1.0977  0.0752
 3885SOL    HW216467  10.147   6.888   8.127  0.0620 -0.7781  0.0141
 3886SOL     OW16468   3.780  12.047  12.123  0.4671  0.1296 -0.1700
 3886SOL    HW116469   3.864  12.039  12.077  0.7854 -0.3553  0.4709
 3886SOL    HW216470   3.804  12.045  12.216 -0.2749 -0.1999  0.0176
 3887SOL     OW16471   8.094  10.057   0.313  0.1328  0.4534 -0.2084
 3887SOL    HW116472   8.141  10.031   0.234 -3.1209  2.0981 -2.9718
 3887SOL    HW216473   8.075  10.150   0.299 -1.4852  0.5187  1.9979
 3888SOL     OW16474   3.445   1.292   9.443  0.0537  0.2806  0.6690
 3888SOL    HW116475   3.393   1.287   9.363  1.2125  3.4343 -0.4040
 3888SOL    HW216476   3.381   1.307   9.512 -0.8345 -1.1606  0.2223
 3889SOL     OW16477  12.475   9.820   2.525 -0.4643  0.0295  0.3050
 3889SOL    HW116478  12.390   9.790   2.556 -0.9798  0.2297 -0.8803
 3889SOL    HW216479  12.502   9.755   2.460  1.3237 -1.2432  2.1892
 3890SOL     OW16480   5.772   3.926   8.378  0.0760 -0.0083 -0.2514
 3890SOL    HW116481   5.866   3.915   8.362  0.1929 -0.5191  0.7065
 3890SOL    HW216482   5.748   4.002   8.325  0.1278 -2.2687 -3.8391
 3891SOL     OW16483   2.692   5.186  11.134 -0.2114 -0.6815 -0.7610
 3891SOL    HW116484   2.643   5.258  11.096  0.9801  0.3070 -0.4648
 3891SOL    HW216485   2.637   5.155  11.206  0.3334  1.5915  0.7326
 3892SOL     OW16486   4.154   3.501   2.448  0.1232  0.6921  0.1255
 3892SOL    HW116487   4.060   3.490   2.466 -0.0495 -0.4614 -1.2389
 3892SOL    HW216488   4.198   3.454   2.518 -0.3247  0.8855  0.5431
 3893SOL     OW16489   8.622   8.517   8.033  0.1280  0.8715  0.2848
 3893SOL    HW116490   8.705   8.555   8.007  0.5840  0.9029  1.6716
 3893SOL    HW216491   8.562   8.591   8.039  0.1625  0.9323 -0.1493
 3894SOL     OW16492   5.510   1.544  11.112  0.3438 -0.0113 -0.4238
 3894SOL    HW116493   5.505   1.470  11.051  0.7837  0.5552 -1.1690
 3894SOL    HW216494   5.458   1.517  11.187 -1.4737 -0.1450 -1.6649
 3895SOL     OW16495   9.913  11.874   7.715  0.2208  0.0735  0.3409
 3895SOL    HW116496   9.876  11.956   7.685  3.6038  1.8065  0.3494
 3895SOL    HW216497   9.919  11.819   7.637 -2.4161 -0.4425  0.4062
 3896SOL     OW16498  10.660   2.698  12.179  0.0059 -0.1703 -0.0386
 3896SOL    HW116499  10.611   2.779  12.198  0.2694 -0.0659  0.1988
 3896SOL    HW216500  10.685   2.665  12.265  1.3658  0.4014 -0.1943
 3897SOL     OW16501   7.276   4.348   4.718  0.5307 -0.0754  0.0111
 3897SOL    HW116502   7.181   4.345   4.711  0.5137 -0.3190  0.3413
 3897SOL    HW216503   7.304   4.257   4.720  0.9150 -0.0406 -1.7926
 3898SOL     OW16504   0.175   0.801   1.251  0.0886  0.5238  0.6828
 3898SOL    HW116505   0.198   0.888   1.286  0.6392  1.5148 -1.8862
 3898SOL    HW216506   0.256   0.750   1.259  0.1245  0.6463  1.1041
 3899SOL     OW16507  12.195   6.876   1.682  0.0495  0.0170 -0.2736
 3899SOL    HW116508  12.265   6.863   1.619 -0.2308 -1.4260 -0.3149
 3899SOL    HW216509  12.232   6.935   1.748  2.0460 -2.2432  0.8021
 3900SOL     OW16510   8.793  10.215  10.541  0.5427  0.6786 -0.4192
 3900SOL    HW116511   8.820  10.250  10.626  0.1424 -0.6270  0.2759
 3900SOL    HW216512   8.774  10.292  10.488  1.3418  1.5320  0.4873
 3901SOL     OW16513   3.073   6.798  12.030 -0.4272  0.0937 -0.2281
 3901SOL    HW116514   3.050   6.706  12.020 -0.0581  0.2065 -2.7199
 3901SOL    HW216515   3.003   6.846  11.986  1.2629  0.7521 -2.3851
 3902SOL     OW16516  11.302   9.577   5.623  0.1445 -0.1873  0.5746
 3902SOL    HW116517  11.305   9.482   5.636  1.0051 -0.0574  1.3776
 3902SOL    HW216518  11.343   9.613   5.701  0.1087  0.8430  0.1280
 3903SOL     OW16519  10.814   7.618   1.964  0.5753  0.0195  0.1821
 3903SOL    HW116520  10.892   7.564   1.946  1.0674  0.9312 -0.5250
 3903SOL    HW216521  10.812   7.626   2.059  1.2991 -0.1034  0.2153
 3904SOL     OW16522   1.480  12.543   0.105  0.1764  0.3790  0.5724
 3904SOL    HW116523   1.405  12.561   0.162 -1.9150 -1.0052 -1.5606
 3904SOL    HW216524   1.503  12.452   0.123  0.7560  0.5185  0.5480
 3905SOL     OW16525  12.630   0.814   4.447  0.5331  0.0356 -0.2081
 3905SOL    HW116526  12.657   0.740   4.393  0.0682  0.6806 -1.3573
 3905SOL    HW216527  12.602   0.881   4.384 -0.2156  0.7368  0.8414
 3906SOL     OW16528   7.841   7.897   1.812  0.2459  0.3379 -0.6175
 3906SOL    HW116529   7.769   7.838   1.831  0.3571  0.0027 -1.2192
 3906SOL    HW216530   7.801   7.984   1.812  0.0480  0.2572  0.0859
 3907SOL     OW16531   5.529   2.041   6.602  0.1608 -0.0978 -0.2443
 3907SOL    HW116532   5.595   1.990   6.555 -1.0685 -0.0269 -2.1736
 3907SOL    HW216533   5.467   2.068   6.535 -0.3257  2.2724  1.0470
 3908SOL     OW16534   5.762  10.222   1.361 -0.0553 -0.2433  0.1261
 3908SOL    HW116535   5.775  10.203   1.268 -0.7329  2.1607 -0.5389
 3908SOL    HW216536   5.808  10.305   1.375 -0.6804 -0.1389  1.7495
 3909SOL     OW16537   8.951  10.874   8.847 -0.2853 -0.4281 -0.4273
 3909SOL    HW116538   8.990  10.807   8.790  2.9340  1.4607 -0.6636
 3909SOL    HW216539   8.934  10.948   8.789  0.7801  0.6684  0.6094
 3910SOL     OW16540  10.403   2.755  12.621  0.1903 -0.0121  0.0892
 3910SOL    HW116541  10.390   2.678  12.676  0.7658 -1.6763 -1.9986
 3910SOL    HW216542  10.314   2.786  12.603 -0.0118  0.8682  2.2450
 3911SOL     OW16543   4.817   4.140   0.541  0.9726  0.1614  0.0520
 3911SOL    HW116544   4.855   4.215   0.496  0.0809 -0.4593 -1.8377
 3911SOL    HW216545   4.866   4.064   0.508 -0.5160 -0.4324 -0.8653
 3912SOL     OW16546   6.786   3.359   6.653 -0.0570  0.7315  0.0112
 3912SOL    HW116547   6.713   3.344   6.592 -0.0448 -1.2200  0.4065
 3912SOL    HW216548   6.829   3.438   6.619 -0.9511  0.5749 -1.6151
 3913SOL     OW16549   9.848   7.902  10.590  0.6404 -0.4261 -0.0082
 3913SOL    HW116550   9.801   7.846  10.529 -0.4909 -0.3600  0.7765
 3913SOL    HW216551   9.814   7.990  10.575 -0.0913 -0.4980  1.1067
 3914SOL     OW16552   8.296   9.354   5.397  0.1642 -0.7106 -1.0264
 3914SOL    HW116553   8.304   9.437   5.445 -0.3029 -0.6569 -1.0364
 3914SOL    HW216554   8.263   9.292   5.463 -2.1594 -0.2350 -1.6600
 3915SOL     OW16555   5.971   9.850   1.628  0.5626 -0.6518  0.0430
 3915SOL    HW116556   6.016   9.920   1.579  0.5678 -1.4299 -1.1076
 3915SOL    HW216557   6.020   9.771   1.606 -0.5704 -1.3117 -0.1837
 3916SOL     OW16558   8.489   1.299   7.449 -0.1096 -0.5922  0.2032
 3916SOL    HW116559   8.552   1.292   7.521  1.1383  0.4469 -0.7356
 3916SOL    HW216560   8.479   1.394   7.436  0.6446 -0.7395 -1.7608
 3917SOL     OW16561  12.630   3.264   9.654  0.0384  1.2660 -0.1082
 3917SOL    HW116562  12.696   3.291   9.590  0.0039  1.4419 -0.0701
 3917SOL    HW216563  12.679   3.248   9.734  0.1378  0.6274 -0.2951
 3918SOL     OW16564   7.682   1.006   8.158 -0.1759  0.4140 -0.5979
 3918SOL    HW116565   7.676   1.021   8.064  1.6380 -2.4049 -1.2784
 3918SOL    HW216566   7.765   1.045   8.184  0.5269 -0.9657 -0.7064
 3919SOL     OW16567  10.157   8.861   7.735  0.0446  0.0439  0.4631
 3919SOL    HW116568  10.068   8.849   7.703  0.3097 -0.2755 -0.1675
 3919SOL    HW216569  10.172   8.956   7.728 -0.6170  0.2476  1.5953
 3920SOL     OW16570   5.511   0.511   6.250  0.3447 -0.2352  0.1228
 3920SOL    HW116571   5.503   0.603   6.275 -1.5774 -0.2046 -0.4962
 3920SOL    HW216572   5.441   0.466   6.297 -0.8060 -0.8139 -1.9991
 3921SOL     OW16573   5.121   3.040   7.448  0.0848  0.0735  0.0456
 3921SOL    HW116574   5.100   3.119   7.497  0.6938 -0.5592  1.3768
 3921SOL    HW216575   5.046   2.982   7.463 -0.2612  0.3007 -0.7496
 3922SOL     OW16576   8.770   6.061   7.259  0.0218  0.0136 -0.3225
 3922SOL    HW116577   8.831   5.993   7.228  0.1492  0.1136 -0.2927
 3922SOL    HW216578   8.757   6.040   7.352  0.0275  0.0041 -0.3237
 3923SOL     OW16579   0.741   9.081  11.284 -0.5367  0.1822  0.1202
 3923SOL    HW116580   0.805   9.153  11.283 -0.2354 -0.0104  1.9911
 3923SOL    HW216581   0.684   9.100  11.210  1.1258  0.8665 -1.0618
 3924SOL     OW16582   4.985   5.591  11.913 -0.3163 -0.1037 -0.1268
 3924SOL    HW116583   5.017   5.666  11.862 -1.3155  0.1357 -0.4207
 3924SOL    HW216584   5.046   5.585  11.987  1.7660 -1.0640 -1.8170
 3925SOL     OW16585  12.379  11.997   8.422 -0.0475 -0.1963  0.1358
 3925SOL    HW116586  12.424  11.915   8.405 -1.4351 -1.1586  0.8886
 3925SOL    HW216587  12.292  11.971   8.453  0.3208  1.4809  2.9051
 3926SOL     OW16588   7.765   6.476   1.013 -0.6234 -0.5069 -0.6636
 3926SOL    HW116589   7.825   6.533   1.062  0.2899 -0.1840 -2.0768
 3926SOL    HW216590   7.805   6.389   1.017  0.7314 -0.0616 -2.6766
 3927SOL     OW16591   2.363  12.061   0.219 -0.1965 -0.3898  1.0888
 3927SOL    HW116592   2.339  11.992   0.158  0.9364 -1.5309  1.8815
 3927SOL    HW216593   2.401  12.015   0.295 -0.9328  1.0092  2.3664
 3928SOL     OW16594   2.119   7.323   3.126  0.2821  0.1639 -0.7975
 3928SOL    HW116595   2.110   7.294   3.036  2.6393 -1.1340 -0.7025
 3928SOL    HW216596   2.073   7.258   3.178 -0.5505  0.5774 -1.0003
 3929SOL     OW16597   3.000  11.180   6.050 -0.7760 -0.0385  0.0300
 3929SOL    HW116598   3.073  11.132   6.090 -0.2651  0.0196 -0.8006
 3929SOL    HW216599   2.968  11.121   5.981 -1.3059  0.0724  0.1803
 3930SOL     OW16600   1.089   7.609   1.287 -0.0735  0.7814  0.1900
 3930SOL    HW116601   1.058   7.666   1.216 -1.7216  0.5413  0.6920
 3930SOL    HW216602   1.056   7.649   1.367  1.0741  0.5902  0.7895
 3931SOL     OW16603  10.889   9.889   9.609 -0.5590  0.3042 -0.2104
 3931SOL    HW116604  10.818   9.859   9.665  1.7129  0.1050  2.7791
 3931SOL    HW216605  10.952   9.817   9.610  0.4228  1.1083 -1.4693
 3932SOL     OW16606   3.138   1.165   8.116  0.4044 -0.1959 -0.4229
 3932SOL    HW116607   3.223   1.129   8.094 -0.2419 -2.2402  0.1685
 3932SOL    HW216608   3.097   1.184   8.032  0.8602 -0.6654 -0.7554
 3933SOL     OW16609   4.300   5.026   4.751 -0.5914 -0.4337 -0.5298
 3933SOL    HW116610   4.377   5.054   4.801 -0.6423 -0.6644 -0.3180
 3933SOL    HW216611   4.312   4.931   4.741 -0.1297 -0.2608 -1.7424
 3934SOL     OW16612   6.298   8.698  11.026 -0.2895 -0.0473 -0.1375
 3934SOL    HW116613   6.250   8.624  10.989 -0.8939  0.8196 -1.1358
 3934SOL    HW216614   6.270   8.702  11.118 -0.9283 -0.5085 -0.3088
 3935SOL     OW16615   3.480   5.545   9.684 -0.1080  0.3137 -0.3119
 3935SOL    HW116616   3.422   5.545   9.608 -0.8703 -2.9259  0.1455
 3935SOL    HW216617   3.432   5.593   9.751 -1.5029 -0.7685 -0.4982
 3936SOL     OW16618   3.941   8.429  11.973  0.2698  0.8779  0.1657
 3936SOL    HW116619   3.980   8.448  11.887  0.9221  1.5200  0.5975
 3936SOL    HW216620   4.001   8.469  12.036 -0.5294  0.9497  0.8941
 3937SOL     OW16621   2.296   6.998   6.295  0.5492  0.0264 -0.2966
 3937SOL    HW116622   2.233   7.013   6.224 -1.1452 -0.2805  1.0683
 3937SOL    HW216623   2.246   7.017   6.375  2.1989 -0.2769  0.8495
 3938SOL     OW16624   9.775   4.699   2.466  0.0141  0.7665 -0.2178
 3938SOL    HW116625   9.750   4.790   2.483  0.7430  0.6673  1.5623
 3938SOL    HW216626   9.699   4.648   2.492 -0.1214  0.8103 -0.5190
 3939SOL     OW16627  11.243   0.546   2.589 -0.1826 -0.1397 -0.1709
 3939SOL    HW116628  11.207   0.570   2.504 -0.8353 -0.6331 -0.0509
 3939SOL    HW216629  11.165   0.532   2.644  0.2230 -0.1587  0.4051
 3940SOL     OW16630   0.839   9.762   6.579  0.0652 -0.1275  0.3718
 3940SOL    HW116631   0.845   9.771   6.483  0.8558  0.1753  0.4456
 3940SOL    HW216632   0.748   9.738   6.594  0.1309 -1.0143 -0.5178
 3941SOL     OW16633   8.120  11.519   7.866 -0.2412 -0.3391 -0.4520
 3941SOL    HW116634   8.109  11.586   7.933 -0.5526 -1.5969  0.7913
 3941SOL    HW216635   8.209  11.531   7.834 -0.4984  1.0533 -0.7151
 3942SOL     OW16636   7.252   7.533   6.476  0.1860  0.0817  0.0781
 3942SOL    HW116637   7.259   7.438   6.467  0.3648  0.1656 -0.7600
 3942SOL    HW216638   7.289   7.567   6.395 -1.8595  0.8081 -0.5975
 3943SOL     OW16639   0.582   4.242   7.148 -0.2195 -0.4690 -0.3357
 3943SOL    HW116640   0.602   4.198   7.065 -1.7480  1.3147 -1.7499
 3943SOL    HW216641   0.513   4.305   7.126 -0.7051  0.0653  2.3199
 3944SOL     OW16642   8.616  10.501   0.765 -0.0417  0.2643  0.3830
 3944SOL    HW116643   8.680  10.451   0.815 -1.1073 -0.3281  1.1961
 3944SOL    HW216644   8.549  10.527   0.829 -0.9195  0.3548 -0.5365
 3945SOL     OW16645   3.073   0.735  11.583 -0.5104  0.6905  0.1625
 3945SOL    HW116646   2.994   0.736  11.529 -1.3252  1.1839  1.3263
 3945SOL    HW216647   3.092   0.828  11.600  0.4123  0.5829 -0.2286
 3946SOL     OW16648   9.668   0.888   5.531  0.3752  0.0882  0.3057
 3946SOL    HW116649   9.638   0.853   5.447  0.2003  1.4229 -0.2077
 3946SOL    HW216650   9.709   0.972   5.509  1.3265 -0.0586  1.4285
 3947SOL     OW16651   3.810  12.549   2.567 -0.2958  0.4713  0.2089
 3947SOL    HW116652   3.813  12.458   2.539  1.6834  0.9228 -1.2929
 3947SOL    HW216653   3.884  12.559   2.627 -0.5124  1.0752  0.3866
 3948SOL     OW16654   5.060   7.276   2.200  0.3097 -0.3616  0.4077
 3948SOL    HW116655   5.032   7.222   2.274  0.6222  0.4109  1.0987
 3948SOL    HW216656   5.045   7.366   2.228  0.2801 -0.0571 -0.5362
 3949SOL     OW16657   9.339   3.062   7.356  0.0649 -0.2991  0.1008
 3949SOL    HW116658   9.255   3.104   7.337  1.6495  3.0227 -0.2272
 3949SOL    HW216659   9.325   2.970   7.332 -3.0612  0.3733 -1.1946
 3950SOL     OW16660   5.003   2.389   1.949  0.2911  0.1830 -0.0214
 3950SOL    HW116661   5.035   2.321   1.889  0.9950 -0.5164  1.1061
 3950SOL    HW216662   4.911   2.368   1.963  0.1425  0.3054 -0.7957
 3951SOL     OW16663   4.070   3.969   6.956  0.2163 -0.0068  0.2111
 3951SOL    HW116664   4.105   4.024   7.026  1.5332  0.0339 -0.4489
 3951SOL    HW216665   4.146   3.949   6.901 -0.6020 -0.8813 -0.6391
 3952SOL     OW16666  10.661   7.241   0.847 -0.2912  0.6411 -0.1817
 3952SOL    HW116667  10.629   7.170   0.792 -1.2982  0.0130  1.1493
 3952SOL    HW216668  10.669   7.316   0.787 -0.1054 -0.3346 -1.4169
 3953SOL     OW16669   0.399  10.383   8.422 -0.3367  0.2339 -0.0539
 3953SOL    HW116670   0.322  10.419   8.378 -0.5943 -2.0652 -1.6227
 3953SOL    HW216671   0.367  10.355   8.508 -0.5615  1.7703  0.4104
 3954SOL     OW16672   5.101   7.678   3.753  0.3520  0.1737 -0.0567
 3954SOL    HW116673   5.058   7.594   3.768 -2.2826  1.5393  0.8848
 3954SOL    HW216674   5.150   7.695   3.834  1.9087 -0.9213 -0.7192
 3955SOL     OW16675  10.290   1.123   5.315  0.7020 -0.2221 -0.0436
 3955SOL    HW116676  10.210   1.083   5.280  0.2234 -0.1648  0.9627
 3955SOL    HW216677  10.277   1.123   5.410  1.4833  0.6673  0.0694
 3956SOL     OW16678   8.743   4.541   0.459  0.1714  0.1807  0.0927
 3956SOL    HW116679   8.739   4.534   0.555  1.1107 -1.2273  0.0640
 3956SOL    HW216680   8.712   4.630   0.440 -1.4107 -0.0106  1.5842
 3957SOL     OW16681   8.416  12.254   3.919  0.1029  0.2696  0.0267
 3957SOL    HW116682   8.436  12.272   3.827 -0.0587 -1.7262 -0.4372
 3957SOL    HW216683   8.497  12.217   3.955  0.3315  1.5044  0.8542
 3958SOL     OW16684   3.852  11.260   3.638  0.1328  0.1304 -0.3904
 3958SOL    HW116685   3.846  11.236   3.731  0.4843  0.1483 -0.3621
 3958SOL    HW216686   3.924  11.323   3.634 -0.9922  1.4477 -0.4193
 3959SOL     OW16687   0.503   6.089   1.851 -0.1237 -0.1033  0.1034
 3959SOL    HW116688   0.578   6.117   1.798  1.1508 -1.4675  1.0788
 3959SOL    HW216689   0.465   6.171   1.883  0.5289  0.6493 -0.9674
 3960SOL     OW16690   6.976   0.990   1.260  0.1965 -0.1158  0.2268
 3960SOL    HW116691   6.938   1.007   1.174  0.4294  0.0470  0.1563
 3960SOL    HW216692   6.963   0.896   1.274 -0.7438  0.0297  0.4496
 3961SOL     OW16693   4.407   2.567   9.099 -0.2348 -0.4305  0.0133
 3961SOL    HW116694   4.498   2.584   9.122 -0.0460 -2.6920  1.1851
 3961SOL    HW216695   4.393   2.617   9.018  1.2156  2.0689  1.1880
 3962SOL     OW16696   9.119   0.797   9.880 -0.0528 -0.2977  0.2558
 3962SOL    HW116697   9.104   0.774   9.788 -0.0181 -2.0815  0.6623
 3962SOL    HW216698   9.043   0.849   9.905  1.1296  2.4476 -1.4522
 3963SOL     OW16699   4.904   8.514  12.130  0.0540  0.1605 -0.0198
 3963SOL    HW116700   4.987   8.478  12.100  0.4702  0.3246  0.9038
 3963SOL    HW216701   4.849   8.437  12.145  0.1618  0.0312 -0.2819
 3964SOL     OW16702   4.337   6.109   1.437 -0.5459 -0.2443  0.1193
 3964SOL    HW116703   4.284   6.078   1.510  0.9970 -0.2666  1.2681
 3964SOL    HW216704   4.382   6.031   1.405  0.2998  0.1047  0.4372
 3965SOL     OW16705   8.670   6.888   0.489 -0.0711 -0.0319  0.2113
 3965SOL    HW116706   8.740   6.951   0.474 -0.1980 -0.3292 -2.1250
 3965SOL    HW216707   8.679   6.825   0.417 -0.4767 -2.2245  1.9663
 3966SOL     OW16708   2.575   5.841   0.576  0.1719  0.2677 -0.6802
 3966SOL    HW116709   2.495   5.796   0.550 -0.3727  0.2504  0.8963
 3966SOL    HW216710   2.612   5.786   0.646  1.3174  0.5156 -1.0654
 3967SOL     OW16711   0.483   0.994   7.502 -0.2213  0.0000 -0.1898
 3967SOL    HW116712   0.450   1.076   7.538 -1.7916 -0.2544 -0.9604
 3967SOL    HW216713   0.564   0.977   7.550  0.1549  2.0107 -0.0613
 3968SOL     OW16714   1.142  11.985  10.951 -0.3522  0.2992 -0.0296
 3968SOL    HW116715   1.092  12.066  10.960  0.9708  1.1576 -0.0282
 3968SOL    HW216716   1.078  11.915  10.961 -1.9664  1.3176 -2.3658
 3969SOL     OW16717   8.700   2.923   3.136 -0.2961  0.5877  0.8039
 3969SOL    HW116718   8.678   2.864   3.208  1.6444  0.4826  1.3628
 3969SOL    HW216719   8.703   3.010   3.176  0.2736  0.5960  0.7567
 3970SOL     OW16720   7.617  10.653   1.163 -0.1260 -0.1141 -0.0446
 3970SOL    HW116721   7.616  10.573   1.215  3.0717  0.5150  1.2203
 3970SOL    HW216722   7.553  10.638   1.093 -0.1085 -3.4653  0.5369
 3971SOL     OW16723   0.956   0.818   5.320  0.1411 -0.1088  0.4667
 3971SOL    HW116724   1.033   0.819   5.263  0.1631 -2.0290  0.4074
 3971SOL    HW216725   0.966   0.896   5.375  1.8045  0.0075  0.0491
 3972SOL     OW16726   3.667   8.233  11.841  0.0834 -0.1790  0.1671
 3972SOL    HW116727   3.700   8.321  11.854  1.1514 -0.5638  0.1129
 3972SOL    HW216728   3.591   8.244  11.783  1.7951  0.4637 -2.0765
 3973SOL     OW16729   0.002   3.772   8.113  0.0718 -0.0093  1.1260
 3973SOL    HW116730  -0.080   3.768   8.162  0.3012 -1.0807  1.4489
 3973SOL    HW216731  -0.023   3.749   8.023 -0.0260 -0.0572  1.1657
 3974SOL     OW16732   1.390   3.907   4.773  0.6410 -0.0347  0.4177
 3974SOL    HW116733   1.417   3.903   4.865  0.0745 -1.3071  0.5508
 3974SOL    HW216734   1.471   3.894   4.723  0.6672 -1.4646  0.7837
 3975SOL     OW16735   5.806   3.653  11.428  0.3734 -0.1289 -0.1120
 3975SOL    HW116736   5.895   3.651  11.463  0.8937  1.7503 -1.1617
 3975SOL    HW216737   5.781   3.746  11.431 -0.9219 -0.3961 -1.3226
 3976SOL     OW16738   7.995  10.330   0.330 -0.2431 -0.6862  0.1137
 3976SOL    HW116739   8.083  10.335   0.369 -0.0673 -1.2423 -0.2014
 3976SOL    HW216740   7.985  10.412   0.283  0.2672 -0.7865 -0.1744
 3977SOL     OW16741   1.361   6.632   4.625  0.0722 -0.8297 -0.1820
 3977SOL    HW116742   1.294   6.565   4.608 -1.6989  0.6662  0.5730
 3977SOL    HW216743   1.389   6.614   4.715  0.2447 -1.0775 -0.2830
 3978SOL     OW16744   1.914   6.522   0.661  1.2680 -0.4093  0.1328
 3978SOL    HW116745   1.897   6.431   0.637 -2.3798  0.4620 -1.2557
 3978SOL    HW216746   2.009   6.532   0.649  1.2647 -2.8859 -4.0486
 3979SOL     OW16747   7.413  11.714   5.494 -0.2995 -0.0568  0.2030
 3979SOL    HW116748   7.482  11.664   5.539  1.1106  2.1833  0.7017
 3979SOL    HW216749   7.429  11.697   5.401 -0.3161 -1.0885  0.3738
 3980SOL     OW16750   4.487   6.872   2.230  0.7389 -0.5031 -0.0023
 3980SOL    HW116751   4.414   6.834   2.180  1.0050  0.5315 -1.2361
 3980SOL    HW216752   4.452   6.954   2.264  1.2662 -0.0659 -0.4902
 3981SOL     OW16753   3.840   0.432   5.516  0.2562 -0.1782 -0.4664
 3981SOL    HW116754   3.878   0.463   5.433  0.2003 -0.1515 -0.4819
 3981SOL    HW216755   3.747   0.451   5.508  0.1493 -0.7452 -0.6584
 3982SOL     OW16756   1.081   0.308   3.436  0.5322 -0.2528 -0.0303
 3982SOL    HW116757   1.133   0.228   3.422  0.6599 -0.2612  0.4886
 3982SOL    HW216758   1.141   0.379   3.412  0.5346 -0.2984 -0.1593
 3983SOL     OW16759   0.138   0.504   6.552 -0.8681  0.3068  0.2252
 3983SOL    HW116760   0.047   0.481   6.572 -0.0577 -2.8307  0.7835
 3983SOL    HW216761   0.162   0.445   6.480  1.2305 -0.1366  1.2302
 3984SOL     OW16762   4.819   0.279   5.099  0.1267 -0.3126  0.0238
 3984SOL    HW116763   4.902   0.263   5.144  1.3455  0.8729 -1.6765
 3984SOL    HW216764   4.753   0.277   5.168  1.7056 -0.2216  1.5954
 3985SOL     OW16765   7.566   7.133   2.645 -0.5112  0.1194  0.2605
 3985SOL    HW116766   7.551   7.104   2.555  0.0466  1.4823 -0.2938
 3985SOL    HW216767   7.636   7.198   2.638  0.6797 -0.8977  1.8753
 3986SOL     OW16768   6.717   8.385   3.180  0.3786  0.1361  0.5498
 3986SOL    HW116769   6.800   8.420   3.149  0.2787 -0.1756 -0.0916
 3986SOL    HW216770   6.739   8.333   3.257  0.8953 -0.5840 -0.0674
 3987SOL     OW16771   7.226  10.015   4.570 -0.5576  0.2815  0.1605
 3987SOL    HW116772   7.244   9.980   4.657  0.9621  0.2054 -0.1600
 3987SOL    HW216773   7.177   9.946   4.526 -0.0712 -0.2825  0.4827
 3988SOL     OW16774   7.142   5.570  11.040 -0.0177  0.3773 -0.1779
 3988SOL    HW116775   7.172   5.660  11.025 -1.4517  0.6582 -1.5465
 3988SOL    HW216776   7.070   5.579  11.102 -0.2339  0.1757 -0.4012
 3989SOL     OW16777   7.772   3.332   5.158  0.3957 -0.3475 -0.4811
 3989SOL    HW116778   7.707   3.402   5.146  0.8902 -0.0518 -1.5293
 3989SOL    HW216779   7.845   3.358   5.102  1.4544 -0.6461  0.7224
 3990SOL     OW16780   2.598  10.156  12.349  0.1998 -0.2446  0.2288
 3990SOL    HW116781   2.610  10.211  12.426  0.9715  1.2555 -0.9054
 3990SOL    HW216782   2.508  10.123  12.357  0.9369 -1.8871  2.8064
 3991SOL     OW16783   0.879   8.728   9.815 -0.3326  0.4610  0.3626
 3991SOL    HW116784   0.797   8.693   9.850 -1.6930  0.6422 -2.3723
 3991SOL    HW216785   0.893   8.810   9.864 -1.9169  0.5508  0.7047
 3992SOL     OW16786   8.151  11.769  11.709  0.0191  0.2264  0.0743
 3992SOL    HW116787   8.076  11.799  11.759 -1.3148  0.2993 -1.8699
 3992SOL    HW216788   8.126  11.682  11.677  1.1512 -0.1550  0.1552
 3993SOL     OW16789  11.582  11.614   1.829 -0.4903  0.1481  0.9203
 3993SOL    HW116790  11.572  11.607   1.923 -0.3634 -2.9893  0.8075
 3993SOL    HW216791  11.673  11.589   1.812 -0.6108  0.3225 -0.0579
 3994SOL     OW16792   5.879   0.505   2.194  0.1167  0.1026 -0.0767
 3994SOL    HW116793   5.857   0.545   2.278  1.0129  0.0898  0.1731
 3994SOL    HW216794   5.920   0.421   2.216  1.4162  0.6074 -0.4621
 3995SOL     OW16795   7.508   5.962  12.149  0.1033 -0.1073 -0.2782
 3995SOL    HW116796   7.447   5.888  12.150 -1.8350  1.3921 -0.1230
 3995SOL    HW216797   7.526   5.978  12.057 -2.7521  1.6641 -0.6433
 3996SOL     OW16798   6.789   2.157   5.360 -0.1401  0.5839  0.0924
 3996SOL    HW116799   6.749   2.158   5.273 -1.2380  0.2475  0.5878
 3996SOL    HW216800   6.836   2.074   5.363  1.8810  1.5985 -1.0270
 3997SOL     OW16801   6.709   9.758  10.328 -0.2465 -0.0523 -0.4959
 3997SOL    HW116802   6.776   9.818  10.360  0.6224 -1.3495  0.1930
 3997SOL    HW216803   6.758   9.688  10.285 -1.1796 -0.7911 -0.3894
 3998SOL     OW16804  12.366   7.356   0.792 -0.0247 -0.8867 -0.1287
 3998SOL    HW116805  12.436   7.407   0.833 -0.6861  1.4036 -1.6899
 3998SOL    HW216806  12.397   7.340   0.702 -0.7896 -1.3450 -0.3222
 3999SOL     OW16807   7.564   2.617   1.462 -0.0558  0.0662 -0.6157
 3999SOL    HW116808   7.635   2.673   1.431 -0.9724  0.7858 -1.4582
 3999SOL    HW216809   7.550   2.554   1.392 -0.6977  0.3599 -0.7612
 4000SOL     OW16810   6.941  10.381   2.753  0.2980 -0.9184  0.2516
 4000SOL    HW116811   6.853  10.351   2.776  0.0594  0.1842  0.8393
 4000SOL    HW216812   6.966  10.440   2.825  0.8421  0.0655 -0.7106
 4001SOL     OW16813   9.848   3.998   5.268 -0.1274  0.0160  0.3020
 4001SOL    HW116814   9.937   3.961   5.267 -0.9940 -2.1843  0.1759
 4001SOL    HW216815   9.834   4.027   5.178  0.7127  1.1112  0.4936
 4002SOL     OW16816  12.410   9.821   7.498 -0.2107  0.1670  0.3243
 4002SOL    HW116817  12.341   9.768   7.539  0.8714 -0.8144  0.9474
 4002SOL    HW216818  12.387   9.911   7.520  0.3472 -0.2882  3.2910
 4003SOL     OW16819   8.480   5.297   5.448 -0.0014 -0.1347  0.4633
 4003SOL    HW116820   8.514   5.216   5.486  0.5213  0.3796  1.1424
 4003SOL    HW216821   8.408   5.322   5.507  0.3023  0.2575  0.6767
 4004SOL     OW16822   3.081  11.438  11.018 -0.0906  0.1426  0.1074
 4004SOL    HW116823   3.116  11.527  11.028 -0.7494  0.7692 -2.3204
 4004SOL    HW216824   3.154  11.388  10.982 -0.6602  0.6703 -1.9514
 4005SOL     OW16825  11.833   4.303  12.544  0.1556 -0.2424  0.3205
 4005SOL    HW116826  11.885   4.244  12.599  1.0658  0.5195  0.3084
 4005SOL    HW216827  11.872   4.295  12.457  0.4418  0.5428  0.3695
 4006SOL     OW16828   1.290   5.326   5.801 -0.3441 -0.5100 -0.0084
 4006SOL    HW116829   1.333   5.241   5.790 -0.0530 -0.5243  1.1334
 4006SOL    HW216830   1.202   5.313   5.764 -0.4429 -1.4316  0.5213
 4007SOL     OW16831   4.611   1.167   0.836  0.6138 -0.0207 -0.0187
 4007SOL    HW116832   4.613   1.108   0.761  1.9645 -0.3023  0.2141
 4007SOL    HW216833   4.637   1.113   0.911  2.4087  0.9168  0.1143
 4008SOL     OW16834   2.265   7.550   3.141  0.1818 -0.2772 -0.1261
 4008SOL    HW116835   2.192   7.491   3.124  0.0971  0.2269 -1.6626
 4008SOL    HW216836   2.342   7.493   3.142  0.3402 -0.3118 -3.4542
 4009SOL     OW16837   4.893  11.633  11.807  0.2427  0.0540 -0.0885
 4009SOL    HW116838   4.866  11.542  11.816 -1.2617  0.3936 -0.7089
 4009SOL    HW216839   4.936  11.637  11.722  1.7085 -0.3629  0.6135
 4010SOL     OW16840   7.354   1.693   0.649 -0.6320  0.5394  0.1265
 4010SOL    HW116841   7.367   1.649   0.565 -1.9626  0.7243 -0.2005
 4010SOL    HW216842   7.354   1.786   0.628 -1.0804  0.5841  0.3210
 4011SOL     OW16843   9.659  11.434   3.153 -0.2632 -0.3514  0.2783
 4011SOL    HW116844   9.676  11.527   3.168 -0.1762 -0.5727  1.7326
 4011SOL    HW216845   9.746  11.394   3.149 -0.2950 -0.3408 -0.5952
 4012SOL     OW16846   3.795  10.998   9.683 -0.0317 -0.0284  0.8120
 4012SOL    HW116847   3.750  11.047   9.752 -0.4687 -1.5334  1.6204
 4012SOL    HW216848   3.813  10.912   9.721 -0.6968 -1.0659 -1.0926
 4013SOL     OW16849  10.685  12.144  12.082  0.1713 -0.2786  0.0980
 4013SOL    HW116850  10.679  12.113  11.991 -0.7278 -0.8071  0.3225
 4013SOL    HW216851  10.726  12.072  12.130 -2.0628 -1.2728  0.6487
 4014SOL     OW16852   9.804   2.836   4.450 -0.8266 -0.4552 -0.2651
 4014SOL    HW116853   9.879   2.786   4.416  0.1595  1.0196 -0.3753
 4014SOL    HW216854   9.730   2.775   4.445  0.6589 -2.5894  1.4700
 4015SOL     OW16855  12.101   4.861   1.859  0.3905  0.5095 -0.5296
 4015SOL    HW116856  12.149   4.782   1.834  1.7132  1.2633 -0.4933
 4015SOL    HW216857  12.096   4.858   1.954 -0.6793 -0.1312 -0.5867
 4016SOL     OW16858   6.166   8.989  10.925 -0.2773 -0.0601  0.4706
 4016SOL    HW116859   6.094   8.968  10.984  1.1016  0.2277  2.3507
 4016SOL    HW216860   6.164   8.920  10.859 -0.6250 -1.6360  2.0470
 4017SOL     OW16861   2.477  12.113  11.781  0.0404 -0.0115 -0.4048
 4017SOL    HW116862   2.457  12.023  11.755 -0.7668  0.3755 -1.2037
 4017SOL    HW216863   2.531  12.148  11.710  1.0672 -0.1149  0.3083
 4018SOL     OW16864   0.659   8.468   8.987  0.3589 -0.1089  0.1378
 4018SOL    HW116865   0.639   8.560   9.007 -0.4657 -0.4691  1.0588
 4018SOL    HW216866   0.709   8.472   8.905  1.5372  1.2585  0.8650
 4019SOL     OW16867   4.803   7.983   5.850  0.1396 -0.2057 -0.1090
 4019SOL    HW116868   4.745   8.056   5.829 -1.5153 -1.4549 -0.0610
 4019SOL    HW216869   4.877   8.023   5.895 -0.1353  1.5695 -1.1654
 4020SOL     OW16870   6.452   1.830   7.336  0.1869 -0.1993 -0.1660
 4020SOL    HW116871   6.378   1.830   7.396  0.3017  1.9592  0.0528
 4020SOL    HW216872   6.501   1.909   7.358  1.0932 -0.1667 -2.0700
 4021SOL     OW16873  10.864   1.457  10.891 -0.6808 -0.3415  0.0822
 4021SOL    HW116874  10.838   1.399  10.963 -0.4113  0.7732  1.1063
 4021SOL    HW216875  10.782   1.495  10.861 -0.8349 -1.0722 -0.4571
 4022SOL     OW16876   3.850   9.203   9.753 -0.1749 -0.1035 -0.5277
 4022SOL    HW116877   3.906   9.236   9.823 -1.3529  1.7127 -0.3860
 4022SOL    HW216878   3.784   9.150   9.797  0.1764 -0.5168 -0.4858
 4023SOL     OW16879   8.658   9.157   5.195 -0.9455  0.2724  0.0714
 4023SOL    HW116880   8.684   9.242   5.232 -1.0817 -0.0613  0.9534
 4023SOL    HW216881   8.572   9.139   5.234 -0.7487 -0.4464  0.1872
 4024SOL     OW16882   1.033   0.517   8.525  0.0696 -0.1985  0.0429
 4024SOL    HW116883   1.093   0.554   8.460  0.7084  2.8562  2.1542
 4024SOL    HW216884   0.948   0.554   8.503  0.2015  0.4838  0.6541
 4025SOL     OW16885   6.406   4.732   3.718  0.1334 -0.5394 -0.3385
 4025SOL    HW116886   6.343   4.737   3.646  0.2587  2.1958 -0.3809
 4025SOL    HW216887   6.471   4.668   3.689  1.3537  1.9034 -3.7719
 4026SOL     OW16888   8.004   2.074   8.603 -0.4131 -0.3910  0.0917
 4026SOL    HW116889   7.942   2.005   8.583  0.4396 -1.3545  0.6864
 4026SOL    HW216890   8.083   2.028   8.632  0.2627  0.8202  0.2437
 4027SOL     OW16891   1.761   5.081   9.223 -0.0184 -0.3027 -0.2143
 4027SOL    HW116892   1.693   5.148   9.216  1.4079  1.0933 -1.4441
 4027SOL    HW216893   1.802   5.097   9.308  0.8449  0.9759 -0.8354
 4028SOL     OW16894   9.087   6.620   8.402 -0.1906 -0.4330 -0.1255
 4028SOL    HW116895   9.175   6.589   8.424 -0.9791 -1.8267  1.2612
 4028SOL    HW216896   9.066   6.685   8.469  0.4011  1.2174 -1.4622
 4029SOL     OW16897   1.219   9.006   8.409 -0.3439 -0.4628 -0.4318
 4029SOL    HW116898   1.303   9.046   8.432 -1.1576  0.9406  0.2453
 4029SOL    HW216899   1.227   8.982   8.317  0.1482  1.4438 -0.9190
 4030SOL     OW16900   4.808   8.236  12.068 -0.0871 -0.1034 -0.1482
 4030SOL    HW116901   4.865   8.195  12.004  0.6118  1.9640 -0.9317
 4030SOL    HW216902   4.845   8.210  12.153 -0.5899 -2.2585 -0.5420
 4031SOL     OW16903   0.012   0.792   3.832 -0.3410 -0.3473 -0.2199
 4031SOL    HW116904   0.046   0.879   3.815 -0.6470  0.2788  2.0512
 4031SOL    HW216905  -0.083   0.803   3.834 -0.3880 -0.7589 -0.0992
 4032SOL     OW16906   7.227   1.779   0.235 -0.0146  0.0763 -0.0823
 4032SOL    HW116907   7.296   1.799   0.172 -0.0026  1.2275  0.2683
 4032SOL    HW216908   7.149   1.761   0.182  0.2181  0.1373 -0.4441
 4033SOL     OW16909  11.485   4.719   7.405 -0.4231 -0.0553 -0.3379
 4033SOL    HW116910  11.509   4.793   7.460 -2.8838  0.2299  0.4753
 4033SOL    HW216911  11.525   4.643   7.447  0.2327  0.5402  0.1206
 4034SOL     OW16912   7.876   5.497  11.377 -0.3915 -0.6762  0.2551
 4034SOL    HW116913   7.843   5.559  11.312 -0.6012 -0.6415  0.3923
 4034SOL    HW216914   7.952   5.456  11.336 -1.1275 -1.4007 -0.4108
 4035SOL     OW16915   9.913   9.111   9.017 -0.2543 -0.3006  0.8373
 4035SOL    HW116916   9.842   9.128   9.079 -0.1417  2.2406  0.3843
 4035SOL    HW216917   9.984   9.168   9.046  0.5151 -0.5496 -0.4765
 4036SOL     OW16918   2.917  11.591  11.644 -0.0734 -0.2484 -0.4356
 4036SOL    HW116919   2.890  11.566  11.556 -0.7500 -0.7817 -0.0927
 4036SOL    HW216920   2.853  11.658  11.670  0.3691  0.2011 -0.5017
 4037SOL     OW16921   8.953   6.975  10.334 -0.2831 -0.2819  0.0015
 4037SOL    HW116922   9.035   6.959  10.381 -0.0208  1.7214  0.3401
 4037SOL    HW216923   8.974   7.047  10.274 -2.5341  2.8490  2.6011
 4038SOL     OW16924  10.078  11.609   5.652 -0.0138 -0.0587  0.6819
 4038SOL    HW116925  10.060  11.701   5.632  0.2203 -0.1787 -0.1026
 4038SOL    HW216926  10.168  11.608   5.683  0.2134 -0.1129  0.0323
 4039SOL     OW16927   1.469   8.338  12.038 -0.6452  0.0774  0.0998
 4039SOL    HW116928   1.518   8.387  12.104 -1.2420  1.0892 -0.1884
 4039SOL    HW216929   1.513   8.252  12.035 -0.4171  0.1095  1.5689
 4040SOL     OW16930  11.778  12.345   1.375 -0.2981 -0.2787  0.1195
 4040SOL    HW116931  11.834  12.272   1.349 -2.4421 -1.2404 -2.1833
 4040SOL    HW216932  11.791  12.410   1.306 -1.4765 -0.2261 -0.0587
 4041SOL     OW16933   4.106  11.923  11.482 -0.4840  0.1758  0.3175
 4041SOL    HW116934   4.044  11.933  11.410  0.5219  0.1919 -0.5587
 4041SOL    HW216935   4.095  12.004  11.533 -1.3885  0.0471  0.3543
 4042SOL     OW16936   8.455   1.867   9.196 -0.1736  0.2585  0.1588
 4042SOL    HW116937   8.482   1.777   9.174  0.5685  0.6907 -0.7589
 4042SOL    HW216938   8.443   1.910   9.112 -1.7624  0.6837  0.5847
 4043SOL     OW16939   6.433   2.805   5.903 -0.2444 -0.2472  0.1850
 4043SOL    HW116940   6.458   2.773   5.990  0.1560  0.6716  0.4079
 4043SOL    HW216941   6.420   2.899   5.914  1.1729  0.1331 -1.0530
 4044SOL     OW16942   6.580   8.163   1.751  0.4400  0.1878 -0.1264
 4044SOL    HW116943   6.528   8.083   1.748 -0.9891  1.0984 -0.3093
 4044SOL    HW216944   6.666   8.137   1.717 -0.0421 -1.2228 -0.3191
 4045SOL     OW16945   6.372   4.217   1.128  0.1300 -0.4874  0.3680
 4045SOL    HW116946   6.382   4.124   1.148 -0.4181 -0.2208  2.0784
 4045SOL    HW216947   6.354   4.257   1.213  1.1327  1.3045 -0.2336
 4046SOL     OW16948   4.261   6.338   7.085 -0.2628  0.2951  0.3252
 4046SOL    HW116949   4.239   6.386   7.005 -0.4257 -0.2509  0.0397
 4046SOL    HW216950   4.336   6.386   7.122  0.1346  0.2564 -0.4179
 4047SOL     OW16951   9.800   2.455  11.825 -0.5414  0.1234 -0.4115
 4047SOL    HW116952   9.826   2.513  11.754  0.6966 -0.1499 -0.2044
 4047SOL    HW216953   9.866   2.385  11.824 -0.5471  0.0818  0.9594
 4048SOL     OW16954  10.819  10.791  11.733  0.2681 -0.4561  0.2343
 4048SOL    HW116955  10.757  10.736  11.685  0.4217 -0.5491  0.1423
 4048SOL    HW216956  10.795  10.779  11.825 -0.8113  0.6546  0.1229
 4049SOL     OW16957   3.813   4.164   9.175  0.0255 -0.1857 -0.3807
 4049SOL    HW116958   3.799   4.241   9.120 -1.4412  0.8463  1.3332
 4049SOL    HW216959   3.805   4.197   9.264  1.2527 -2.0013  0.4541
 4050SOL     OW16960   7.106   2.389  12.547  0.7322 -0.0847  0.0117
 4050SOL    HW116961   7.191   2.418  12.580  0.9239 -2.3533  1.7739
 4050SOL    HW216962   7.043   2.452  12.583  1.4673  0.3607  0.5327
 4051SOL     OW16963   6.647  10.934   8.544 -0.4301 -0.0343  0.5570
 4051SOL    HW116964   6.734  10.897   8.557 -0.7136 -0.2777  1.8732
 4051SOL    HW216965   6.663  11.026   8.523  0.1913 -0.4277 -0.8350
 4052SOL     OW16966  10.134  10.266   2.883 -0.5151 -0.0362  0.0499
 4052SOL    HW116967  10.194  10.285   2.955 -0.4187 -1.7527  0.4581
 4052SOL    HW216968  10.185  10.283   2.804  0.1100 -0.2723  0.3998
 4053SOL     OW16969   5.497   7.238   3.336  0.6291  0.4203 -0.2883
 4053SOL    HW116970   5.511   7.306   3.401  1.1475  0.8047 -0.7901
 4053SOL    HW216971   5.552   7.264   3.262 -0.6851  0.5006 -1.2676
 4054SOL     OW16972   2.084   9.854   2.995 -0.3776 -0.8079 -0.0799
 4054SOL    HW116973   1.989   9.862   2.983 -0.0684  1.0836 -1.9825
 4054SOL    HW216974   2.103   9.761   2.985 -2.2041 -1.4903  2.1778
 4055SOL     OW16975   2.831   5.953   0.288  0.0307  0.4459 -0.3481
 4055SOL    HW116976   2.790   5.879   0.244 -3.0737  2.1290 -0.5410
 4055SOL    HW216977   2.856   5.920   0.374 -2.0090 -0.6442 -0.1316
 4056SOL     OW16978   0.327   3.443  12.392 -0.0151 -0.3037  0.1687
 4056SOL    HW116979   0.342   3.493  12.312 -1.3080 -0.5657 -0.2655
 4056SOL    HW216980   0.403   3.385  12.399  0.5491  0.3575 -0.3659
 4057SOL     OW16981   1.439   8.871   3.282  0.1227 -0.3456  0.3407
 4057SOL    HW116982   1.407   8.831   3.363  0.1579  0.4554  0.7592
 4057SOL    HW216983   1.454   8.962   3.305  1.6940 -0.4517 -0.1320
 4058SOL     OW16984   2.522   1.481  12.068  0.1918 -0.2187  0.8069
 4058SOL    HW116985   2.484   1.418  12.129 -0.7994 -1.3244 -0.8779
 4058SOL    HW216986   2.570   1.428  12.004  1.2919  0.9058  0.6501
 4059SOL     OW16987   5.451  10.692   4.339  0.1924 -0.7752 -0.4234
 4059SOL    HW116988   5.367  10.722   4.373  1.2733  0.3082  1.4783
 4059SOL    HW216989   5.430  10.616   4.286 -1.7355 -2.3622  2.3777
 4060SOL     OW16990   2.080   5.588   2.190  0.4889  0.6060 -0.1573
 4060SOL    HW116991   2.114   5.600   2.279  0.2694 -1.2755  0.2052
 4060SOL    HW216992   2.074   5.494   2.178 -4.3027  0.6560 -0.2637
 4061SOL     OW16993  11.807  11.513   2.614  0.1791 -0.6513  0.0802
 4061SOL    HW116994  11.870  11.584   2.624  1.0436 -1.2256 -1.0616
 4061SOL    HW216995  11.732  11.553   2.570  1.3560 -0.7533 -2.1555
 4062SOL     OW16996   2.311   5.483   9.406  0.5706 -0.1752 -0.5881
 4062SOL    HW116997   2.312   5.387   9.406 -1.3721 -0.2421  0.5367
 4062SOL    HW216998   2.237   5.506   9.350 -0.6404  0.5456  1.1955
 4063SOL     OW16999   6.456   8.633   7.229  0.0046  0.5579 -0.3845
 4063SOL    HW117000   6.513   8.703   7.262 -0.7760  1.0200  0.0128
 4063SOL    HW217001   6.373   8.646   7.275 -0.5640  0.1556 -1.2705
 4064SOL     OW17002  11.134   7.077   8.208  0.0290  0.2735  0.8469
 4064SOL    HW117003  11.155   7.130   8.131 -0.6063 -0.8685 -0.1373
 4064SOL    HW217004  11.063   7.124   8.251  1.4747  1.7942  1.7039
 4065SOL     OW17005   8.311  12.039   9.419 -0.5766 -0.3519 -0.4964
 4065SOL    HW117006   8.376  12.108   9.433 -1.3229  0.4443 -0.8276
 4065SOL    HW217007   8.348  11.983   9.352  1.3393 -1.9803  1.7547
 4066SOL     OW17008   3.890   9.655   2.295  0.0295 -0.5993  0.3280
 4066SOL    HW117009   3.936   9.603   2.361 -1.9614 -2.5282  0.2899
 4066SOL    HW217010   3.823   9.702   2.345  0.9537  1.0010  0.1578
 4067SOL     OW17011   1.733   7.158  10.703 -1.0311 -0.1806  0.3712
 4067SOL    HW117012   1.682   7.218  10.757 -0.8184  0.1818  0.1825
 4067SOL    HW217013   1.797   7.119  10.763 -1.7795 -0.9371  0.6891
 4068SOL     OW17014  12.515   1.909   3.107 -0.4209 -0.1623 -0.6602
 4068SOL    HW117015  12.524   1.816   3.086  0.2550  0.3135 -2.7379
 4068SOL    HW217016  12.453   1.942   3.042 -0.4419  0.8906 -0.1209
 4069SOL     OW17017   9.517   9.448   7.658 -0.4159 -0.0680 -0.0992
 4069SOL    HW117018   9.466   9.504   7.716 -2.0405 -0.0013 -1.5208
 4069SOL    HW217019   9.566   9.390   7.717 -0.5218  1.2433  1.3365
 4070SOL     OW17020   9.574   3.236  10.320 -0.4713 -0.2209 -0.2630
 4070SOL    HW117021   9.497   3.246  10.264 -0.9007  0.3337  0.4029
 4070SOL    HW217022   9.602   3.146  10.307 -2.5558 -1.1523  1.1175
 4071SOL     OW17023   1.227   3.835   9.391 -0.8084  0.1945  0.0885
 4071SOL    HW117024   1.171   3.765   9.357 -3.2934  1.1620  1.8395
 4071SOL    HW217025   1.279   3.793   9.460 -1.9485 -0.0524  0.8216
 4072SOL     OW17026   2.979   0.585  12.338 -0.7720 -0.3432  0.2791
 4072SOL    HW117027   2.967   0.677  12.316  2.7322  0.1040 -0.2872
 4072SOL    HW217028   3.054   0.584  12.397  1.2377 -2.9777 -2.0457
 4073SOL     OW17029  12.280   6.898  12.290  0.1616  0.0273 -0.2462
 4073SOL    HW117030  12.281   6.859  12.203 -0.9888 -1.5932  0.4056
 4073SOL    HW217031  12.372   6.898  12.317  0.4558 -0.0300 -1.2084
 4074SOL     OW17032  12.310   0.796   4.751 -0.0393  0.0154  0.4200
 4074SOL    HW117033  12.295   0.744   4.672 -1.3846  0.8889  0.0672
 4074SOL    HW217034  12.295   0.735   4.823  0.2424 -0.5478  0.0062
 4075SOL     OW17035  11.406  11.395   9.203  0.1297 -0.0970  0.1692
 4075SOL    HW117036  11.418  11.442   9.285 -0.7250  0.3296  0.0684
 4075SOL    HW217037  11.420  11.462   9.135  0.1498 -0.2812 -0.0087
 4076SOL     OW17038   3.875  10.898   7.424  0.1580  0.1140  0.0745
 4076SOL    HW117039   3.853  10.856   7.341  1.5673  0.2580 -0.4036
 4076SOL    HW217040   3.822  10.851   7.489 -0.6995 -0.2339 -0.8471
 4077SOL     OW17041   6.358   1.266   7.371  0.3179  0.4121 -0.0933
 4077SOL    HW117042   6.423   1.297   7.434 -0.0119 -0.6881  0.8215
 4077SOL    HW217043   6.369   1.323   7.295  0.0900  2.4373  1.3019
 4078SOL     OW17044   8.427   2.887   4.176 -0.0616 -0.0724  0.2928
 4078SOL    HW117045   8.454   2.808   4.223  0.6876 -0.8432 -1.3681
 4078SOL    HW217046   8.345   2.913   4.219  0.8280 -0.4194  2.3328
 4079SOL     OW17047  10.730   9.509   6.089  0.4539  0.3767 -0.6204
 4079SOL    HW117048  10.713   9.548   6.175  0.0583  1.2494 -1.0841
 4079SOL    HW217049  10.694   9.420   6.095 -0.7230  0.8606 -0.2924
 4080SOL     OW17050   9.687  11.360   5.693 -0.0628 -0.3762 -0.3149
 4080SOL    HW117051   9.627  11.307   5.641  0.5547 -1.7290  0.3047
 4080SOL    HW217052   9.723  11.299   5.757  2.6388  0.1386 -1.2112
 4081SOL     OW17053   9.009   7.331   3.206 -0.4994 -0.6000  0.3591
 4081SOL    HW117054   8.914   7.333   3.200 -0.4923 -0.0023  0.3594
 4081SOL    HW217055   9.038   7.410   3.160  0.0543 -1.2853 -0.5142
 4082SOL     OW17056  10.495   4.207   1.832  0.0800 -0.3666 -0.3120
 4082SOL    HW117057  10.533   4.193   1.745  1.7736  0.2305  0.2847
 4082SOL    HW217058  10.421   4.266   1.817 -0.6989 -1.5942 -1.5325
 4083SOL     OW17059  12.184   2.043   5.663  0.3205  0.0182  0.3941
 4083SOL    HW117060  12.146   2.131   5.671  1.4742  0.4656  1.3622
 4083SOL    HW217061  12.190   2.028   5.569 -0.9716  0.4798  0.2152
 4084SOL     OW17062   4.683   8.436  11.478  0.3536 -0.1316  0.5709
 4084SOL    HW117063   4.686   8.483  11.394 -0.5939  0.5022  0.8820
 4084SOL    HW217064   4.757   8.471  11.527  1.0090 -0.6150 -0.0500
 4085SOL     OW17065   9.777   3.983  10.226  0.1087  0.3451 -0.1304
 4085SOL    HW117066   9.698   3.954  10.273 -0.0329  2.2900  0.9384
 4085SOL    HW217067   9.820   4.044  10.287  1.9883  0.0008 -1.0478
 4086SOL     OW17068   6.544  10.176   6.173  0.2129  0.3699 -0.4341
 4086SOL    HW117069   6.624  10.131   6.200 -1.1059 -2.0977 -0.3941
 4086SOL    HW217070   6.525  10.142   6.086 -0.0652  2.0112 -1.0485
 4087SOL     OW17071   2.921   3.227   3.522  0.1327 -0.4859 -0.0880
 4087SOL    HW117072   2.904   3.233   3.616 -0.1094 -0.7187 -0.1161
 4087SOL    HW217073   3.003   3.179   3.516 -0.3236 -1.2977 -0.0204
 4088SOL     OW17074   4.617   1.223   6.756  0.0874  0.0023 -0.9156
 4088SOL    HW117075   4.605   1.193   6.845  1.0789 -0.4760 -0.9287
 4088SOL    HW217076   4.610   1.319   6.762  1.0226  0.0399 -0.1660
 4089SOL     OW17077   2.125   0.637   3.657  0.4534 -0.1189  0.0065
 4089SOL    HW117078   2.087   0.601   3.577 -0.9774 -0.2001  0.7009
 4089SOL    HW217079   2.131   0.563   3.717  0.6499  0.1312  0.3001
 4090SOL     OW17080  10.239   6.915   6.901 -0.0372  0.0360 -0.3897
 4090SOL    HW117081  10.287   6.884   6.977  0.7185  0.3668 -0.7253
 4090SOL    HW217082  10.176   6.978   6.937  1.4601  1.5014 -0.1874
 4091SOL     OW17083  10.127   1.379   6.504 -0.1181  0.1216 -0.0488
 4091SOL    HW117084  10.038   1.407   6.524  0.7918  2.0278  1.7111
 4091SOL    HW217085  10.168   1.363   6.589  0.5910 -3.1713 -0.8483
 4092SOL     OW17086   5.018   4.950   6.850  0.0765 -0.4655 -0.0953
 4092SOL    HW117087   5.020   4.868   6.800 -0.2731 -1.9044  2.0773
 4092SOL    HW217088   4.936   4.991   6.825  0.4624 -0.5115 -1.5566
 4093SOL     OW17089   6.698  12.576   0.212 -0.0833 -0.4377  0.2641
 4093SOL    HW117090   6.616  12.582   0.260  0.9163 -0.5912  2.1065
 4093SOL    HW217091   6.760  12.628   0.264  1.1778 -0.9685 -0.6360
 4094SOL     OW17092  10.152  11.296  12.433 -0.3280  0.3111 -0.9208
 4094SOL    HW117093  10.238  11.255  12.433  0.8186  1.9707  4.1562
 4094SOL    HW217094  10.165  11.379  12.387 -0.3709 -0.9717 -3.4291
 4095SOL     OW17095  10.168   9.181   3.520  0.4695 -0.5296  0.4263
 4095SOL    HW117096  10.151   9.087   3.534 -2.5657  0.1487  2.2923
 4095SOL    HW217097  10.138   9.198   3.431  0.5482 -1.2282  0.2603
 4096SOL     OW17098   2.427  12.515   1.497 -0.3863 -0.0136  0.3405
 4096SOL    HW117099   2.457  12.426   1.478  2.3098  0.8500  0.1623
 4096SOL    HW217100   2.349  12.526   1.442 -0.9987 -2.3202  0.6045
 4097SOL     OW17101   2.032   2.958  11.093  0.2712 -0.1826  0.2912
 4097SOL    HW117102   2.081   2.985  11.015  0.8634  0.6097  0.9161
 4097SOL    HW217103   1.979   3.035  11.116 -1.0299 -0.9039 -0.1687
 4098SOL     OW17104   4.186   7.553   5.364 -0.2465  0.6275 -0.2094
 4098SOL    HW117105   4.108   7.578   5.315  0.2332 -0.2856 -1.5183
 4098SOL    HW217106   4.258   7.570   5.304  0.3373 -0.8087  0.0490
 4099SOL     OW17107   7.152  12.297   7.000  0.0772  0.1438 -0.2533
 4099SOL    HW117108   7.072  12.269   7.043  1.4639 -1.9991  1.1200
 4099SOL    HW217109   7.166  12.232   6.931  1.3290 -0.3531  0.4396
 4100SOL     OW17110  12.167   0.578   0.970 -0.0862 -0.5055 -0.2383
 4100SOL    HW117111  12.212   0.584   0.885 -1.2995  0.5136 -0.8436
 4100SOL    HW217112  12.074   0.587   0.948 -0.4151 -0.1663  1.2065
 4101SOL     OW17113   7.839  10.716  11.169  0.2913  0.0203 -0.4191
 4101SOL    HW117114   7.820  10.808  11.184 -0.8094 -0.3497  0.6218
 4101SOL    HW217115   7.821  10.674  11.253  0.9644 -1.1174 -0.8211
 4102SOL     OW17116   6.818  10.457   9.118  0.6293 -0.4999 -0.3006
 4102SOL    HW117117   6.805  10.471   9.212  2.7511  1.4070 -0.1905
 4102SOL    HW217118   6.744  10.501   9.076  0.0705 -0.7092  0.4520
 4103SOL     OW17119   5.066   8.848   1.501 -0.5160  0.0386 -0.3493
 4103SOL    HW117120   5.015   8.919   1.539 -1.2720 -0.9981  0.6240
 4103SOL    HW217121   5.018   8.823   1.422 -0.1662  0.6874 -0.7783
 4104SOL     OW17122   9.436   9.798   3.954 -0.1729  0.0815  0.1760
 4104SOL    HW117123   9.342   9.811   3.945 -0.3700 -1.4779 -0.2022
 4104SOL    HW217124   9.472   9.822   3.868 -0.2531  0.3218  0.2078
 4105SOL     OW17125   7.914   6.029   0.262  0.2374 -0.2279  0.1591
 4105SOL    HW117126   7.872   6.106   0.224 -1.2056 -0.4721  1.1664
 4105SOL    HW217127   7.966   6.063   0.335 -0.4519 -0.1897  0.6453
 4106SOL     OW17128   0.578   4.531   6.484 -0.2385  0.0921 -0.2759
 4106SOL    HW117129   0.673   4.530   6.475 -0.1466 -1.5667  0.4997
 4106SOL    HW217130   0.561   4.482   6.564 -1.7194  1.1540  0.0966
 4107SOL     OW17131   2.863   0.507   4.070  0.0480  0.4946  0.3946
 4107SOL    HW117132   2.861   0.433   4.131  0.0554 -0.2513 -0.4795
 4107SOL    HW217133   2.805   0.572   4.109 -0.3474 -0.1735  0.9431
 4108SOL     OW17134   5.884   6.523   5.653  0.2996 -0.0805 -0.2892
 4108SOL    HW117135   5.804   6.561   5.688 -0.6030  0.5894 -2.8381
 4108SOL    HW217136   5.879   6.539   5.558  2.3392 -2.0938 -0.8336
 4109SOL     OW17137  11.177   2.332  10.482  0.0389  0.1532  0.1067
 4109SOL    HW117138  11.131   2.385  10.417 -0.2412  0.7465  0.7846
 4109SOL    HW217139  11.162   2.376  10.565  0.5702 -0.4848  0.5556
 4110SOL     OW17140   6.842   2.333   4.505 -0.4646 -0.0046  0.1881
 4110SOL    HW117141   6.825   2.404   4.567  2.0115  0.8761 -0.0364
 4110SOL    HW217142   6.919   2.288   4.540 -1.7759 -2.4877  0.1745
 4111SOL     OW17143   6.275   6.982   3.500  0.2913  0.6663 -0.3807
 4111SOL    HW117144   6.302   7.073   3.505 -1.3077  1.1134  1.2761
 4111SOL    HW217145   6.288   6.948   3.589 -0.1259 -0.4193 -0.7163
 4112SOL     OW17146   0.377   1.231   8.988  0.7769 -0.4373 -0.2282
 4112SOL    HW117147   0.333   1.198   9.067 -0.7596 -0.7449 -1.1858
 4112SOL    HW217148   0.468   1.244   9.016  0.5031 -1.5100  1.3233
 4113SOL     OW17149   9.037   5.335   0.748  0.1070  0.2947  1.1177
 4113SOL    HW117150   9.093   5.260   0.725  0.3763  0.6399  0.6438
 4113SOL    HW217151   8.978   5.345   0.674  0.0260  0.5091  1.2119
 4114SOL     OW17152  10.321   6.152  11.920  0.1379  0.3074 -0.1346
 4114SOL    HW117153  10.333   6.091  11.993  0.2302  1.2385  0.6423
 4114SOL    HW217154  10.296   6.096  11.847  1.6211 -0.8321  0.1824
 4115SOL     OW17155   4.508   2.616  11.978 -0.8115 -0.1870  0.3154
 4115SOL    HW117156   4.510   2.709  11.956 -2.1472 -0.3121 -0.4532
 4115SOL    HW217157   4.546   2.611  12.066 -2.5127  1.3698  1.2113
 4116SOL     OW17158   6.181  11.560   2.427 -0.8008 -0.0355 -0.1854
 4116SOL    HW117159   6.177  11.533   2.519 -1.1482  0.9893  0.1123
 4116SOL    HW217160   6.185  11.656   2.430 -0.8610  0.0132 -1.2421
 4117SOL     OW17161  12.170   1.369   4.698  0.4967 -0.0289 -0.2463
 4117SOL    HW117162  12.233   1.309   4.660  1.7411 -0.1377  1.8285
 4117SOL    HW217163  12.202   1.456   4.674  0.1438 -0.1050 -1.0522
 4118SOL     OW17164   0.245   4.468   6.142  0.5148 -0.1441  0.0091
 4118SOL    HW117165   0.302   4.394   6.160 -0.3996 -1.0286 -0.6279
 4118SOL    HW217166   0.264   4.531   6.212  2.7645 -0.0856 -0.5698
 4119SOL     OW17167   4.863   9.130   0.247  0.2533 -0.4486  0.2111
 4119SOL    HW117168   4.828   9.042   0.233 -1.4828  0.1964  0.1867
 4119SOL    HW217169   4.951   9.127   0.210 -0.5040 -1.6111 -1.6850
 4120SOL     OW17170   4.652   4.974  11.085 -0.1098  0.0612 -0.4864
 4120SOL    HW117171   4.715   4.946  11.019 -1.4739 -0.9499 -1.3883
 4120SOL    HW217172   4.568   4.975  11.040 -0.6912  1.9915  0.5313
 4121SOL     OW17173  12.258   2.341   0.008 -0.0328 -0.3580  0.0066
 4121SOL    HW117174  12.346   2.378   0.001 -0.4319  0.6054 -0.0175
 4121SOL    HW217175  12.200   2.409  -0.025 -1.1597  0.6224  3.6027
 4122SOL     OW17176   0.917  11.437  11.856  0.6969 -0.2855 -0.2511
 4122SOL    HW117177   1.008  11.435  11.826  0.1338 -0.7095 -2.0575
 4122SOL    HW217178   0.891  11.345  11.859  0.6683 -0.2592  1.4982
 4123SOL     OW17179  10.880   5.927   1.619 -0.4389 -0.1943 -0.6069
 4123SOL    HW117180  10.837   5.974   1.548  0.9002  0.4084 -1.0504
 4123SOL    HW217181  10.970   5.915   1.589 -0.3614 -1.7411  0.1381
 4124SOL     OW17182   9.350   0.261   9.273 -0.4476  0.2136 -0.3654
 4124SOL    HW117183   9.384   0.259   9.184 -3.0199  0.8216 -1.4474
 4124SOL    HW217184   9.333   0.169   9.294 -0.4196  0.1197 -0.7426
 4125SOL     OW17185   1.412   9.073   5.189  0.7983 -0.3080  0.2319
 4125SOL    HW117186   1.346   9.013   5.225 -0.6820  1.3707  0.4511
 4125SOL    HW217187   1.456   9.109   5.266  0.8515 -0.2138  0.1576
 4126SOL     OW17188   5.135   3.017   9.932 -0.2563 -0.4343 -0.2320
 4126SOL    HW117189   5.159   3.109   9.943 -0.5183 -0.5732  2.1144
 4126SOL    HW217190   5.054   3.019   9.882 -0.3351  0.6290 -0.0844
 4127SOL     OW17191   0.669   4.396   3.515 -0.1431 -0.1392  0.2544
 4127SOL    HW117192   0.589   4.346   3.500 -0.2793  0.1021  0.1576
 4127SOL    HW217193   0.659   4.429   3.605 -0.4019  0.3285  0.0603
 4128SOL     OW17194   3.265   0.308   4.492 -0.1409  0.2572 -0.0896
 4128SOL    HW117195   3.261   0.387   4.547 -3.1721 -0.0661  0.3209
 4128SOL    HW217196   3.229   0.336   4.408 -1.2160 -0.6683  0.0537
 4129SOL     OW17197   0.042  12.019   5.358  0.3144  0.3977  0.2433
 4129SOL    HW117198   0.077  12.024   5.270 -0.7134 -2.4441 -0.4060
 4129SOL    HW217199  -0.053  12.032   5.347 -0.0144 -1.3752  0.6777
 4130SOL     OW17200  11.047   4.391   1.911 -0.1924  0.1494 -0.0911
 4130SOL    HW117201  11.016   4.324   1.972  0.3564  1.3682  1.5920
 4130SOL    HW217202  10.977   4.399   1.846 -1.0674 -0.7581  0.7129
 4131SOL     OW17203   8.036   6.454   0.427 -0.0996 -0.3667 -0.2038
 4131SOL    HW117204   8.101   6.485   0.364  0.2698 -0.3117  0.2040
 4131SOL    HW217205   7.985   6.532   0.448 -1.9929 -0.8801 -2.4748
 4132SOL     OW17206   2.023   5.842   1.153 -0.6575  0.0980 -0.0929
 4132SOL    HW117207   2.001   5.934   1.142  0.2376  0.1990 -1.1859
 4132SOL    HW217208   2.108   5.832   1.109  0.2502 -0.8127  1.7267
 4133SOL     OW17209  10.674   9.549   6.359  0.2316  0.3303 -0.6739
 4133SOL    HW117210  10.691   9.637   6.393 -2.5500  0.8936 -0.4843
 4133SOL    HW217211  10.721   9.491   6.419 -0.5915  1.5674  1.2834
 4134SOL     OW17212   1.150   6.519   3.968 -0.2606 -0.6798 -0.1415
 4134SOL    HW117213   1.136   6.476   3.884 -2.8436 -0.7233  0.2316
 4134SOL    HW217214   1.129   6.453   4.034  0.6900 -0.3310  0.5429
 4135SOL     OW17215   2.646   7.016   8.810  0.0636 -0.4470 -0.0858
 4135SOL    HW117216   2.557   7.023   8.775  0.9575 -2.0870 -3.0486
 4135SOL    HW217217   2.635   6.975   8.896 -2.0698  0.3109  0.0625
 4136SOL     OW17218   7.134   7.459  12.327 -0.3778 -0.5832 -0.0179
 4136SOL    HW117219   7.177   7.444  12.411 -1.6478  0.6484  0.8980
 4136SOL    HW217220   7.204   7.488  12.269  0.7467 -2.6373  0.2273
 4137SOL     OW17221  12.446  11.944  10.234  0.3646 -0.2256 -0.0445
 4137SOL    HW117222  12.404  12.001  10.169  3.4842  0.0952 -1.9983
 4137SOL    HW217223  12.452  11.997  10.313  1.3272  1.4977 -1.1990
 4138SOL     OW17224  11.462   5.995  12.223  0.0940  0.1247  0.1072
 4138SOL    HW117225  11.367   5.998  12.206 -0.0616 -1.7575  0.4231
 4138SOL    HW217226  11.502   5.999  12.136 -0.2931  0.3798 -0.0644
 4139SOL     OW17227   0.442   4.749  11.076 -0.0057  0.7599 -0.3462
 4139SOL    HW117228   0.435   4.748  10.981 -0.0714 -0.0289 -0.3398
 4139SOL    HW217229   0.394   4.827  11.103  0.3646  1.2211 -0.9831
 4140SOL     OW17230   6.957  10.275   0.699  0.3963  0.3757  0.4612
 4140SOL    HW117231   6.924  10.196   0.656 -2.9775  2.2402 -0.6904
 4140SOL    HW217232   6.971  10.248   0.790 -0.9780 -1.4650  0.1744
 4141SOL     OW17233   2.378   8.357  10.597  0.1478  0.0209  0.1631
 4141SOL    HW117234   2.437   8.363  10.672 -0.3708  0.0705  0.5750
 4141SOL    HW217235   2.409   8.424  10.537  1.5120 -1.0243 -0.3601
 4142SOL     OW17236  12.574  10.238  12.074 -0.1090  0.4202  0.3819
 4142SOL    HW117237  12.541  10.151  12.094  1.8081 -0.3132  0.5664
 4142SOL    HW217238  12.503  10.281  12.026 -0.5535 -1.7464 -1.0132
 4143SOL     OW17239   7.105   8.912   8.508  0.1171 -0.1511 -0.1745
 4143SOL    HW117240   7.025   8.894   8.557 -1.0609  1.2247 -1.5070
 4143SOL    HW217241   7.168   8.940   8.575 -1.1469  0.7767  0.6621
 4144SOL     OW17242   1.454   5.689   3.803  0.1697 -0.3029  0.0062
 4144SOL    HW117243   1.397   5.624   3.761  0.1211 -0.8774  0.9385
 4144SOL    HW217244   1.455   5.664   3.895  0.0332  1.1224  0.4111
 4145SOL     OW17245   5.308   8.825   5.117  0.2818 -0.6257  0.3526
 4145SOL    HW117246   5.216   8.821   5.091  0.1810 -2.6366  0.8942
 4145SOL    HW217247   5.356   8.820   5.034 -0.0679  0.3281  0.0749
 4146SOL     OW17248   4.896   6.575  12.512  0.1287 -0.0941 -0.2425
 4146SOL    HW117249   4.897   6.613  12.600  0.0412 -0.8765  0.1089
 4146SOL    HW217250   4.959   6.627  12.462  0.0766  0.4461  0.2436
 4147SOL     OW17251   6.170   2.826   5.008 -0.5142  0.1502  0.1539
 4147SOL    HW117252   6.176   2.846   4.914 -0.7500 -0.7202 -0.0572
 4147SOL    HW217253   6.239   2.879   5.048  0.0036  0.0612 -0.5942
 4148SOL     OW17254   6.193  12.597   9.299 -0.3800 -0.0737 -0.2110
 4148SOL    HW117255   6.282  12.631   9.309  0.1137 -1.3087 -0.2148
 4148SOL    HW217256   6.141  12.673   9.274  0.9697  0.4067 -1.7694
 4149SOL     OW17257   1.490   6.415  10.603 -0.7411  0.3474 -0.0178
 4149SOL    HW117258   1.535   6.399  10.687 -1.6546  0.9261  0.5942
 4149SOL    HW217259   1.475   6.327  10.567  0.2168  0.1166  0.1125
 4150SOL     OW17260   4.420   7.628  12.298 -0.1988 -0.1150 -0.6766
 4150SOL    HW117261   4.370   7.548  12.313  0.8768 -0.6346  0.2939
 4150SOL    HW217262   4.486   7.604  12.234  0.8224 -0.3238  0.4318
 4151SOL     OW17263   7.210   6.151   7.549  0.5564  0.1658  0.0982
 4151SOL    HW117264   7.128   6.189   7.580  0.9191  1.7313 -0.7405
 4151SOL    HW217265   7.230   6.082   7.612 -0.2569  1.2409  1.6026
 4152SOL     OW17266   3.248   6.535  11.507 -0.6655  0.3941 -0.1291
 4152SOL    HW117267   3.294   6.572  11.431  0.4509 -0.7060 -0.0208
 4152SOL    HW217268   3.278   6.588  11.581  1.9929 -1.4312  0.2414
 4153SOL     OW17269   2.337   1.339   0.465  0.6240 -0.1912 -0.1513
 4153SOL    HW117270   2.282   1.324   0.388  0.5570 -0.1260 -0.1156
 4153SOL    HW217271   2.419   1.295   0.444  0.5554 -0.2977 -0.2007
 4154SOL     OW17272   5.605  10.364   1.021  0.1221  0.0414  0.2124
 4154SOL    HW117273   5.614  10.458   1.008  1.5987 -0.2737 -1.4531
 4154SOL    HW217274   5.567  10.332   0.939  2.9017 -1.1989 -0.6920
 4155SOL     OW17275   4.128   2.751   1.987  0.3742  0.3610  0.4651
 4155SOL    HW117276   4.223   2.744   1.978  0.3141  0.9031 -0.7947
 4155SOL    HW217277   4.115   2.805   2.066  1.0661 -0.7151  1.3412
 4156SOL     OW17278   6.725   2.648   2.288 -0.4882 -0.2144  0.3027
 4156SOL    HW117279   6.699   2.633   2.198 -0.4777  0.2426  0.2224
 4156SOL    HW217280   6.818   2.623   2.291 -0.8585 -1.6039  0.5332
 4157SOL     OW17281   2.630   4.097   1.532 -0.1436  0.0341 -0.1592
 4157SOL    HW117282   2.669   4.147   1.461  0.2425 -0.6951 -0.4692
 4157SOL    HW217283   2.666   4.009   1.523  1.6643  0.4279  2.2716
 4158SOL     OW17284  10.837  11.038   7.156 -0.8723  0.2628  0.1165
 4158SOL    HW117285  10.764  11.044   7.217 -1.0043  0.3374 -0.0490
 4158SOL    HW217286  10.915  11.054   7.209 -0.8787 -0.9452  0.5259
 4159SOL     OW17287   8.483   4.684   0.772 -0.3059  0.4951 -0.1343
 4159SOL    HW117288   8.462   4.772   0.739 -2.5219  0.2588  0.5146
 4159SOL    HW217289   8.420   4.627   0.728  1.8537 -1.0198 -1.4707
 4160SOL     OW17290  12.575   8.689  11.268 -0.1985  0.1100  0.6392
 4160SOL    HW117291  12.608   8.779  11.269 -3.4519  1.4427  1.2847
 4160SOL    HW217292  12.573   8.662  11.359  3.2495 -1.7824  0.3063
 4161SOL     OW17293   6.736   8.342  12.320  0.5720  0.4494 -0.8044
 4161SOL    HW117294   6.728   8.270  12.382  0.2994 -0.7537 -2.1685
 4161SOL    HW217295   6.830   8.352  12.306  0.5958 -0.0695 -1.0529
 4162SOL     OW17296   1.704  11.668   2.302 -0.1975 -0.4523  0.7742
 4162SOL    HW117297   1.775  11.701   2.357 -2.2626  1.6507  2.4026
 4162SOL    HW217298   1.646  11.743   2.291 -2.3086 -2.1326 -0.2310
 4163SOL     OW17299   8.917   6.424  10.056  0.4119  0.5121  0.1644
 4163SOL    HW117300   8.886   6.346  10.010 -0.2756  0.6282  0.4225
 4163SOL    HW217301   8.842   6.484  10.054  0.9179  1.1457  0.0082
 4164SOL     OW17302   8.639   9.685  12.328 -0.3202 -0.0962 -0.2751
 4164SOL    HW117303   8.697   9.755  12.359 -1.0521 -0.2693  1.6373
 4164SOL    HW217304   8.690   9.605  12.341 -0.7202 -0.1932  0.8319
 4165SOL     OW17305   6.585   5.682   4.520  0.4406 -0.4131 -0.0822
 4165SOL    HW117306   6.563   5.628   4.444 -2.0014 -1.6319  1.3644
 4165SOL    HW217307   6.545   5.767   4.502 -1.4095 -1.1348  0.3770
 4166SOL     OW17308   2.145   7.359   5.449 -0.1008  0.0014  0.0605
 4166SOL    HW117309   2.072   7.303   5.476 -0.2894 -0.6233 -1.5849
 4166SOL    HW217310   2.173   7.402   5.529 -1.9870 -0.0785  0.8260
 4167SOL     OW17311   2.154   5.221  12.153  0.5794  0.0775  0.1507
 4167SOL    HW117312   2.187   5.244  12.067  0.8896 -0.7852  0.0290
 4167SOL    HW217313   2.110   5.137  12.140 -3.4722  2.0401 -0.1176
 4168SOL     OW17314   6.674   6.553   5.575 -0.1902 -0.2211  0.0158
 4168SOL    HW117315   6.673   6.551   5.671  1.0263 -2.0763  0.0406
 4168SOL    HW217316   6.707   6.467   5.550  1.8373  1.0239 -2.0170
 4169SOL     OW17317   6.725   8.950   8.201  0.0385  0.5233 -0.1340
 4169SOL    HW117318   6.728   8.857   8.180 -0.4543 -0.2939  2.9395
 4169SOL    HW217319   6.815   8.973   8.222  0.1636  0.7711 -0.9135
 4170SOL     OW17320   2.190   4.681   8.079  0.2236 -0.3498  0.1144
 4170SOL    HW117321   2.123   4.737   8.117  0.7334 -0.2371  0.8531
 4170SOL    HW217322   2.228   4.634   8.153  3.6327  2.3790  0.3386
 4171SOL     OW17323   0.618   3.132  10.562 -0.4823  0.1457 -0.0657
 4171SOL    HW117324   0.543   3.099  10.611 -1.7619  0.5904 -1.6228
 4171SOL    HW217325   0.657   3.055  10.521 -0.7897  0.0322 -0.1494
 4172SOL     OW17326   8.847  10.006   9.115 -0.7984  0.0173 -0.0600
 4172SOL    HW117327   8.864   9.951   9.039  0.4414 -0.3521  0.4596
 4172SOL    HW217328   8.927   9.999   9.168 -0.6637  2.1684  0.1103
 4173SOL     OW17329   8.550   6.659  11.298  0.3670 -0.0530  0.4491
 4173SOL    HW117330   8.504   6.598  11.356  1.2311  0.7354  2.0564
 4173SOL    HW217331   8.486   6.682  11.231  0.2438 -3.2286 -0.6624
 4174SOL     OW17332   2.066   8.581   1.344  0.5142 -0.3199  0.0578
 4174SOL    HW117333   2.148   8.555   1.302  0.8358 -1.3128  1.2213
 4174SOL    HW217334   2.048   8.669   1.311  0.9271 -0.9059 -1.8251
 4175SOL     OW17335  12.597   3.729   9.204 -0.1071 -0.1120 -0.1503
 4175SOL    HW117336  12.664   3.798   9.197 -0.8850  0.5351 -1.7355
 4175SOL    HW217337  12.519   3.769   9.166  0.0144 -2.6233 -3.4502
 4176SOL     OW17338   9.617   4.982   4.456 -0.0269 -0.2420 -0.6022
 4176SOL    HW117339   9.538   5.036   4.460 -0.2530 -0.6664  1.4976
 4176SOL    HW217340   9.689   5.045   4.445 -0.6172  0.1159 -3.1039
 4177SOL     OW17341   4.682   6.601   6.680 -0.4385 -0.2369  0.3405
 4177SOL    HW117342   4.734   6.520   6.681 -1.1141 -0.7246 -1.0754
 4177SOL    HW217343   4.631   6.597   6.761  2.5473  0.8839  2.4539
 4178SOL     OW17344   9.709  10.107   0.487  0.1118 -0.1161  0.3623
 4178SOL    HW117345   9.615  10.123   0.479  0.2660 -0.0566 -2.3227
 4178SOL    HW217346   9.718  10.012   0.481  0.2241 -0.1002  0.2607
 4179SOL     OW17347   7.239   4.384  11.180  0.8808 -0.2534  0.7183
 4179SOL    HW117348   7.271   4.403  11.268  1.0365  1.3559  0.3579
 4179SOL    HW217349   7.161   4.332  11.193 -0.1926  1.5432  1.9179
 4180SOL     OW17350   4.429   2.646   7.315 -0.6483 -0.0511  0.0344
 4180SOL    HW117351   4.464   2.615   7.398 -1.3739 -0.3640  0.2381
 4180SOL    HW217352   4.471   2.590   7.249  2.6942  2.4648 -0.2409
 4181SOL     OW17353  11.944  11.382   3.536  0.2222 -0.5513  0.1809
 4181SOL    HW117354  11.991  11.327   3.598 -1.5881 -0.9832  1.2392
 4181SOL    HW217355  11.910  11.455   3.588 -1.8258 -1.2232 -0.1154
 4182SOL     OW17356  10.840   5.993  10.049  0.1881  0.2944 -0.0493
 4182SOL    HW117357  10.775   5.961   9.986 -2.3695  0.4262  2.3602
 4182SOL    HW217358  10.865   5.916  10.099  2.4781  0.1244 -1.3063
 4183SOL     OW17359  11.017   7.254   0.296 -0.0645  0.4787  0.0935
 4183SOL    HW117360  11.025   7.327   0.357 -1.4225 -0.4339  1.4333
 4183SOL    HW217361  11.019   7.176   0.351 -0.0511 -0.4472 -1.1639
 4184SOL     OW17362   1.701   0.764   8.294  0.3764 -0.1441 -0.2047
 4184SOL    HW117363   1.744   0.760   8.208  1.7802  2.4894  0.2619
 4184SOL    HW217364   1.633   0.831   8.284  0.0092 -0.3986  0.5168
 4185SOL     OW17365   9.517  12.475   8.339  0.0946 -0.1321 -0.0160
 4185SOL    HW117366   9.451  12.417   8.301 -0.0015  0.4316 -0.7511
 4185SOL    HW217367   9.484  12.563   8.320  1.3627  0.1620 -0.9720
 4186SOL     OW17368   3.258  11.968   4.334  0.5543  0.2731 -0.5166
 4186SOL    HW117369   3.294  12.048   4.372  0.7340  0.0767 -0.2720
 4186SOL    HW217370   3.263  11.981   4.239  0.5101  0.5827 -0.4775
 4187SOL     OW17371   9.383   8.499   7.289  0.4034  0.1243  0.1032
 4187SOL    HW117372   9.369   8.563   7.359 -0.1395 -0.7558  0.8278
 4187SOL    HW217373   9.476   8.506   7.269  0.4883  0.6675  0.6391
 4188SOL     OW17374   2.434   3.436  10.278 -0.5292  0.3045 -0.1714
 4188SOL    HW117375   2.466   3.354  10.314 -0.6167  0.3784  0.0810
 4188SOL    HW217376   2.512   3.489  10.265 -0.1906 -0.6891 -2.6398
 4189SOL     OW17377   5.256   5.739   2.514 -0.2133  0.1141 -0.2342
 4189SOL    HW117378   5.243   5.746   2.419 -0.1853  0.8369 -0.1905
 4189SOL    HW217379   5.317   5.667   2.525  1.2483  1.2149 -0.8873
 4190SOL     OW17380   3.786   0.037  12.144 -0.0577 -0.5903 -0.3276
 4190SOL    HW117381   3.746   0.102  12.202  0.5434 -1.2730  0.8932
 4190SOL    HW217382   3.821  -0.030  12.203  1.4403 -0.8355 -1.4297
 4191SOL     OW17383   1.481  11.671  12.161  0.1320  0.5442  0.2603
 4191SOL    HW117384   1.471  11.577  12.175 -1.3565  0.8922  1.9714
 4191SOL    HW217385   1.393  11.701  12.136  0.4681  1.5581  0.2282
 4192SOL     OW17386   6.461  10.924   1.492 -0.0569  0.0519  0.0096
 4192SOL    HW117387   6.512  10.882   1.422 -0.4033 -0.0977 -0.1547
 4192SOL    HW217388   6.504  10.895   1.572 -1.3112 -2.0676 -0.0046
 4193SOL     OW17389   2.383   9.020   5.308 -0.2608  0.4303  0.3947
 4193SOL    HW117390   2.329   8.957   5.355 -0.1067  0.3265  0.4320
 4193SOL    HW217391   2.415   9.079   5.377 -1.7272  1.5535  0.1847
 4194SOL     OW17392   1.864   5.402   6.275 -0.5655  0.1253  0.5403
 4194SOL    HW117393   1.817   5.330   6.317  0.2927 -2.5280 -2.6929
 4194SOL    HW217394   1.949   5.405   6.320 -0.1070 -1.8411 -0.1143
 4195SOL     OW17395  11.804   1.074  11.512  0.0357 -0.0399  0.2422
 4195SOL    HW117396  11.880   1.028  11.549  1.1580  0.0489 -1.8153
 4195SOL    HW217397  11.738   1.005  11.503  0.4798 -0.5005  0.4144
 4196SOL     OW17398   5.927  11.148   2.968 -0.3488  0.5721  0.1631
 4196SOL    HW117399   5.884  11.234   2.963 -0.3108  0.6274  0.7336
 4196SOL    HW217400   5.985  11.147   2.892 -1.2049  0.5744 -0.5104
 4197SOL     OW17401   8.288  11.162  11.288  0.1991 -0.2686 -0.1426
 4197SOL    HW117402   8.255  11.077  11.317  0.5755 -0.8003 -1.1887
 4197SOL    HW217403   8.211  11.218  11.281  0.1530  0.1077  2.4463
 4198SOL     OW17404   5.935   6.007   8.762 -0.2053 -0.1812 -0.5237
 4198SOL    HW117405   5.939   5.955   8.681 -0.1978  0.6162 -1.0406
 4198SOL    HW217406   5.977   6.090   8.739 -0.1275  0.0173  0.3274
 4199SOL     OW17407   4.030   0.580  11.887 -0.6152  0.4409 -0.5336
 4199SOL    HW117408   3.970   0.626  11.946  0.0225  0.6842 -0.0675
 4199SOL    HW217409   4.051   0.499  11.933  0.0031  0.7004 -0.3426
 4200SOL     OW17410   7.861   9.368   0.992 -0.1747  0.3117  0.0258
 4200SOL    HW117411   7.886   9.452   1.032 -0.1833 -0.6168  2.0897
 4200SOL    HW217412   7.944   9.330   0.963  0.0999  0.1273  1.0014
 4201SOL     OW17413   0.458   5.292  12.357 -0.1305  0.1544  0.2136
 4201SOL    HW117414   0.549   5.295  12.327  0.1173 -0.9868  0.7650
 4201SOL    HW217415   0.463   5.256  12.446 -0.9726  1.9610  1.0317
 4202SOL     OW17416  11.363   4.891   2.661 -0.0195 -0.0315  0.4803
 4202SOL    HW117417  11.292   4.925   2.607 -0.0811  0.3861  0.8290
 4202SOL    HW217418  11.422   4.848   2.598  0.4368  1.3496 -0.0612
 4203SOL     OW17419  12.140   0.997   9.243 -0.2350 -0.3478  0.0287
 4203SOL    HW117420  12.112   0.924   9.188 -0.9246  0.4594 -0.7406
 4203SOL    HW217421  12.219   1.030   9.201  0.8084 -1.4329  1.1064
 4204SOL     OW17422   9.594   2.613   2.485 -0.2290 -0.5632 -0.0729
 4204SOL    HW117423   9.600   2.690   2.429  0.2095 -0.5005  0.0536
 4204SOL    HW217424   9.573   2.647   2.572 -3.4510 -0.8290 -0.6404
 4205SOL     OW17425   7.774  11.307   5.328  0.4277 -0.0442 -0.4992
 4205SOL    HW117426   7.824  11.244   5.276  0.0528 -0.1063 -0.7907
 4205SOL    HW217427   7.684  11.274   5.326  0.3710  0.0652  0.0250
 4206SOL     OW17428   4.763   1.110   9.339 -0.8582 -0.6235  0.1070
 4206SOL    HW117429   4.676   1.095   9.377 -1.4158 -1.9149 -1.5906
 4206SOL    HW217430   4.787   1.027   9.298 -0.0504  0.4962 -1.8397
 4207SOL     OW17431  10.513   8.352   8.749  0.3966 -0.1836 -0.3821
 4207SOL    HW117432  10.510   8.278   8.808  0.1769 -1.0265 -1.4127
 4207SOL    HW217433  10.428   8.394   8.758  0.3156 -0.3865 -0.2033
 4208SOL     OW17434   2.537   1.462  10.630  0.2935 -0.5613 -0.1151
 4208SOL    HW117435   2.502   1.551  10.623 -0.5313 -1.0178 -3.3650
 4208SOL    HW217436   2.530   1.442  10.723 -1.3912  2.0342  0.4451
 4209SOL     OW17437   1.458   4.987   7.154 -0.4740 -0.0301  0.0799
 4209SOL    HW117438   1.491   4.939   7.079  1.0070 -0.4368  0.9558
 4209SOL    HW217439   1.520   5.059   7.167 -1.4248  0.8052  0.1449
 4210SOL     OW17440   0.637   4.571   2.659  0.3801 -0.0751  0.0468
 4210SOL    HW117441   0.676   4.659   2.661 -1.0239  0.5646  0.2105
 4210SOL    HW217442   0.707   4.515   2.626  1.0521  1.2328 -0.8376
 4211SOL     OW17443   9.643   3.583   7.769  0.6950  0.3145  0.5256
 4211SOL    HW117444   9.671   3.531   7.694 -1.0715  2.8528 -2.1239
 4211SOL    HW217445   9.569   3.535   7.805  0.0266  0.1541 -0.9535
 4212SOL     OW17446   9.851   6.439   0.611  0.6812 -0.1722  0.4904
 4212SOL    HW117447   9.916   6.410   0.675  1.7798 -1.0004 -0.9314
 4212SOL    HW217448   9.768   6.437   0.658  1.1053 -2.9156  1.3315
 4213SOL     OW17449   6.127   6.488   0.879 -0.0370  0.1354 -0.0380
 4213SOL    HW117450   6.072   6.565   0.863 -1.0291 -0.5182  0.1005
 4213SOL    HW217451   6.179   6.512   0.956 -2.8212 -0.5129  2.2556
 4214SOL     OW17452   8.425   7.335  12.359 -0.3180  0.5338  0.3919
 4214SOL    HW117453   8.398   7.425  12.341  0.4651  0.8659  0.8653
 4214SOL    HW217454   8.412   7.290  12.275 -1.8021  0.8032  0.4590
 4215SOL     OW17455   2.086   9.269   8.315 -0.1300 -0.1454 -0.4907
 4215SOL    HW117456   2.101   9.176   8.296  1.5886  0.4343 -2.3587
 4215SOL    HW217457   2.112   9.279   8.407 -0.0171 -1.4522 -0.3551
 4216SOL     OW17458   8.912  10.847   7.334  0.0282 -0.3703 -0.2139
 4216SOL    HW117459   8.958  10.768   7.363  0.0291 -0.2168  0.2174
 4216SOL    HW217460   8.945  10.864   7.246 -0.8632 -1.5487 -0.8102
 4217SOL     OW17461   5.917   9.692   0.523  0.3822 -0.3314  0.3134
 4217SOL    HW117462   5.953   9.744   0.595 -0.3457 -1.0362  1.2113
 4217SOL    HW217463   5.970   9.613   0.522  2.2648  0.8189 -1.8059
 4218SOL     OW17464   9.388   1.171  12.001 -0.0984 -0.1839  0.6304
 4218SOL    HW117465   9.390   1.132  11.913 -0.1841 -2.5016  1.6012
 4218SOL    HW217466   9.314   1.129  12.045  0.1482  0.6846  1.9235
 4219SOL     OW17467   3.039   3.775   1.110  0.1562 -0.0789  0.0995
 4219SOL    HW117468   3.028   3.868   1.090 -0.3589 -0.2511 -0.4431
 4219SOL    HW217469   3.082   3.774   1.196 -2.8536  0.6774  1.7479
 4220SOL     OW17470   7.977  11.822  12.312 -0.4612 -0.7672 -0.6547
 4220SOL    HW117471   7.963  11.794  12.403  1.0219 -3.8718 -1.2254
 4220SOL    HW217472   8.066  11.857  12.311 -1.4448  1.9414 -0.4572
 4221SOL     OW17473  10.570   6.314   4.107  0.2548 -0.8539  0.4531
 4221SOL    HW117474  10.633   6.272   4.049  0.3592 -1.2220  0.8318
 4221SOL    HW217475  10.504   6.247   4.123 -0.7861 -0.1575 -0.7553
 4222SOL     OW17476   8.075   9.194   7.482  0.0396  0.6891  0.2876
 4222SOL    HW117477   8.007   9.246   7.525 -0.1190  0.5501  0.2067
 4222SOL    HW217478   8.104   9.133   7.550 -0.9275 -0.2197 -0.0927
 4223SOL     OW17479   3.439   0.505  11.977  0.3921  0.4460  0.3593
 4223SOL    HW117480   3.359   0.456  11.997 -0.1073  1.5903  1.2441
 4223SOL    HW217481   3.413   0.567  11.909  0.2107  1.6025  1.4517
 4224SOL     OW17482   3.670   0.923   3.070 -0.0224  0.3571  0.0185
 4224SOL    HW117483   3.631   0.928   2.983 -0.3853 -0.5361  0.1201
 4224SOL    HW217484   3.627   0.993   3.119 -1.2327 -0.3404  0.0051
 4225SOL     OW17485   8.884   6.220   1.517 -0.0237  0.0081 -0.1657
 4225SOL    HW117486   8.952   6.269   1.564 -0.6014  0.3529  0.3242
 4225SOL    HW217487   8.855   6.279   1.448 -0.4670  0.2119  0.1974
 4226SOL     OW17488   5.879   6.981   4.426 -0.4724  0.4391  0.1080
 4226SOL    HW117489   5.801   7.022   4.465 -0.1177  0.5441  0.7198
 4226SOL    HW217490   5.952   7.020   4.473 -0.0552  0.1867 -0.3261
 4227SOL     OW17491   6.397   0.302   8.582  0.2334  0.9105  0.0308
 4227SOL    HW117492   6.381   0.233   8.517 -0.5565  0.2805  0.8595
 4227SOL    HW217493   6.468   0.267   8.635 -0.6492  0.3712  0.9026
 4228SOL     OW17494  10.909   5.181   7.520  0.0501  0.0935 -0.3854
 4228SOL    HW117495  10.976   5.113   7.517 -0.7679 -0.7494 -0.1986
 4228SOL    HW217496  10.844   5.153   7.455 -0.1992  0.8113 -0.4588
 4229SOL     OW17497  12.290   1.536   8.846  0.4221  0.0921 -0.7881
 4229SOL    HW117498  12.346   1.545   8.923  0.7572  0.6353 -1.0912
 4229SOL    HW217499  12.297   1.443   8.821  0.3550 -0.0730 -0.2030
 4230SOL     OW17500   9.833   8.693  10.181  0.1264  0.1338 -0.1867
 4230SOL    HW117501   9.880   8.640  10.246 -0.2063  0.4306  0.2987
 4230SOL    HW217502   9.748   8.651  10.173 -0.4487  1.0432  0.8100
 4231SOL     OW17503   3.682   2.714  12.437 -0.3491 -0.4587  0.2739
 4231SOL    HW117504   3.601   2.663  12.443 -0.6363  0.0430  0.7318
 4231SOL    HW217505   3.690   2.736  12.344  0.2297 -2.0419 -0.0975
 4232SOL     OW17506  11.330   1.583   3.371  0.1197 -0.2290  0.1106
 4232SOL    HW117507  11.380   1.505   3.346 -1.1295 -1.0793  0.1850
 4232SOL    HW217508  11.264   1.551   3.432  1.3473  1.3604  2.4341
 4233SOL     OW17509   9.476   6.211   0.638 -0.6206  0.2587  0.7138
 4233SOL    HW117510   9.482   6.149   0.711  1.3706 -0.1887  0.2136
 4233SOL    HW217511   9.382   6.228   0.629 -0.9233  0.7033  3.6616
 4234SOL     OW17512  10.507   3.825   1.732  0.4026  0.3484  0.4406
 4234SOL    HW117513  10.528   3.750   1.675 -3.1719  0.4597 -1.2853
 4234SOL    HW217514  10.414   3.816   1.749  0.2161  3.5186  1.6174
 4235SOL     OW17515   9.776   5.201  10.469 -0.2685 -0.2452  0.2040
 4235SOL    HW117516   9.840   5.185  10.539  0.4130 -2.5798 -0.8423
 4235SOL    HW217517   9.828   5.237  10.397 -0.8602  1.5551  0.6360
 4236SOL     OW17518   6.931   4.821   0.792 -0.7972 -0.2660 -0.2564
 4236SOL    HW117519   7.005   4.804   0.733  0.8314 -1.3614  1.9772
 4236SOL    HW217520   6.956   4.900   0.839 -0.4975 -1.2000  1.2247
 4237SOL     OW17521   1.558  11.157   2.168  0.1057 -0.5076  0.1240
 4237SOL    HW117522   1.563  11.202   2.083  2.4689 -2.4403 -0.8645
 4237SOL    HW217523   1.467  11.130   2.175 -0.2390  0.0600 -1.6037
 4238SOL     OW17524   9.593   9.987   1.493  0.0111 -0.1020 -0.6405
 4238SOL    HW117525   9.530   9.974   1.422  0.7758  0.5867 -1.4555
 4238SOL    HW217526   9.604  10.082   1.499 -0.2759 -0.1313  0.6149
 4239SOL     OW17527   6.817   1.853   3.323  0.3752 -0.3665  0.0027
 4239SOL    HW117528   6.791   1.760   3.322 -0.9677 -0.0589  1.9182
 4239SOL    HW217529   6.744   1.898   3.281 -0.3117  0.0712  1.5924
 4240SOL     OW17530   2.112  11.054  11.742  0.0650 -0.2518 -0.8761
 4240SOL    HW117531   2.134  10.961  11.730 -0.2207 -0.7055  1.5586
 4240SOL    HW217532   2.040  11.070  11.680  0.0638 -1.6845 -1.2831
 4241SOL     OW17533   5.966   4.835   0.904  0.4457  0.5133 -0.6980
 4241SOL    HW117534   5.907   4.761   0.887  1.0292 -0.6973  2.0781
 4241SOL    HW217535   5.913   4.897   0.952  0.9416  0.1802  0.3033
 4242SOL     OW17536   9.195   5.018   4.268  0.0660 -0.0097 -0.2477
 4242SOL    HW117537   9.124   5.047   4.325  1.3265  0.5000  1.1445
 4242SOL    HW217538   9.273   5.019   4.324  0.8262 -2.7574 -1.0763
 4243SOL     OW17539   9.156   1.052   9.793 -0.4284 -0.6961  0.5048
 4243SOL    HW117540   9.113   0.967   9.789  0.1069 -0.9386 -0.3200
 4243SOL    HW217541   9.085   1.115   9.787 -0.8559 -1.0715  1.3805
 4244SOL     OW17542   2.027  12.501   9.232  0.4705 -0.1553 -0.0129
 4244SOL    HW117543   2.000  12.591   9.252  1.5441  0.0935  0.4437
 4244SOL    HW217544   1.948  12.449   9.241 -0.0976  0.7051  0.0594
 4245SOL     OW17545   9.914   9.199  10.783 -0.3725 -0.2222  0.0169
 4245SOL    HW117546   9.990   9.141  10.775  1.5353  2.1739 -0.5769
 4245SOL    HW217547   9.887   9.190  10.874  1.4932 -0.1978  0.6208
 4246SOL     OW17548   7.817  11.478   7.034 -0.1916  0.4258 -0.2561
 4246SOL    HW117549   7.761  11.509   7.105  1.0387  1.3002  0.3817
 4246SOL    HW217550   7.889  11.432   7.079 -0.9475 -1.7107 -1.0917
 4247SOL     OW17551   9.235   0.761   0.722  0.4877  0.2661  0.5951
 4247SOL    HW117552   9.273   0.741   0.636 -0.1319 -0.4508  0.4733
 4247SOL    HW217553   9.208   0.852   0.716  0.6078  0.2717  0.0902
 4248SOL     OW17554  10.794   3.796  11.259  0.0385 -0.5130 -0.0357
 4248SOL    HW117555  10.758   3.760  11.339 -1.3647  2.3479  0.7495
 4248SOL    HW217556  10.745   3.753  11.188 -1.5070 -0.2364  0.8284
 4249SOL     OW17557   5.850   3.216   0.464  0.4047 -0.3330 -0.0764
 4249SOL    HW117558   5.837   3.279   0.534 -2.1745 -0.1016 -0.6688
 4249SOL    HW217559   5.851   3.268   0.383  0.1919 -0.8709 -0.4348
 4250SOL     OW17560  10.161  10.170   9.426  0.1239  0.2919  0.0146
 4250SOL    HW117561  10.230  10.118   9.469  0.9258  0.9310 -0.4712
 4250SOL    HW217562  10.115  10.213   9.498  0.3913  0.0514  0.3335
 4251SOL     OW17563   7.442  10.591  12.551  0.3542 -0.5880 -0.4198
 4251SOL    HW117564   7.434  10.634  12.465  1.8500  0.2412 -0.1845
 4251SOL    HW217565   7.408  10.503  12.536  0.0313 -0.2775 -1.7130
 4252SOL     OW17566  11.181   4.590  12.604 -0.3060  0.2120 -0.3149
 4252SOL    HW117567  11.198   4.639  12.685 -1.1698  1.3444 -0.7922
 4252SOL    HW217568  11.102   4.631  12.568  0.1964 -0.1344 -1.8508
 4253SOL     OW17569  11.740  10.032   5.348  0.2615  0.1161  0.0794
 4253SOL    HW117570  11.775  10.103   5.294  3.9257 -2.9804 -2.2251
 4253SOL    HW217571  11.722   9.961   5.285 -2.5273 -1.3132  2.2666
 4254SOL     OW17572   2.350   3.431  11.111  0.1010  0.2930 -0.3539
 4254SOL    HW117573   2.258   3.407  11.106  0.0098  0.8432 -1.4230
 4254SOL    HW217574   2.384   3.417  11.023  0.4653  2.3423 -0.5826
 4255SOL     OW17575   8.641   2.666   3.844  0.4411  0.1949  0.2215
 4255SOL    HW117576   8.679   2.688   3.929 -1.6744 -0.2373  1.3666
 4255SOL    HW217577   8.651   2.572   3.836 -2.6574 -0.4103  1.8720
 4256SOL     OW17578   6.020  11.398   2.262  0.1582 -0.0253  0.0768
 4256SOL    HW117579   5.931  11.395   2.298  0.3252  0.0281  0.5043
 4256SOL    HW217580   6.074  11.426   2.336  0.3614  1.1716 -0.5103
 4257SOL     OW17581   7.647   0.267  11.124  0.2100  0.1309  0.2196
 4257SOL    HW117582   7.615   0.357  11.136  1.4935  0.7642 -0.8571
 4257SOL    HW217583   7.646   0.253  11.029  2.4818 -0.0207  0.1743
 4258SOL     OW17584   6.849   6.319  10.574  0.0241  0.5307  0.1917
 4258SOL    HW117585   6.866   6.242  10.628 -1.1576 -0.3370 -0.6241
 4258SOL    HW217586   6.924   6.324  10.515  1.1638  1.2959  1.6372
 4259SOL     OW17587   5.486   9.701   9.825 -0.1867 -0.4640 -0.5413
 4259SOL    HW117588   5.507   9.620   9.777  0.1783  0.6652 -2.3554
 4259SOL    HW217589   5.472   9.671   9.915  2.1488 -2.2789 -0.6680
 4260SOL     OW17590   4.727   0.947   4.797  0.5240  0.5310 -0.0655
 4260SOL    HW117591   4.766   0.903   4.721  0.6913  2.0540 -0.9064
 4260SOL    HW217592   4.802   0.981   4.846  0.3854  0.0918  0.4679
 4261SOL     OW17593  11.261   4.707   1.788  0.0867  0.1159  0.0087
 4261SOL    HW117594  11.335   4.647   1.796 -0.6298 -0.6977  0.8766
 4261SOL    HW217595  11.297   4.793   1.812  0.7071 -0.3029  0.6181
 4262SOL     OW17596   5.195   6.741  12.172 -1.5897  0.5569  0.7656
 4262SOL    HW117597   5.145   6.673  12.216 -1.2154 -0.4388 -0.3165
 4262SOL    HW217598   5.180   6.727  12.079  0.6776  0.2107  0.3874
 4263SOL     OW17599  11.656  11.438   2.860  0.6029 -0.1810 -0.3621
 4263SOL    HW117600  11.573  11.391   2.852 -0.0454  1.1137 -1.8267
 4263SOL    HW217601  11.698  11.426   2.774  0.9309  0.9369 -0.3764
 4264SOL     OW17602   7.538   8.071  10.699 -0.1853  0.0641  0.3929
 4264SOL    HW117603   7.469   8.015  10.736 -1.6672  0.6417 -1.3540
 4264SOL    HW217604   7.502   8.160  10.708 -0.7444  0.2170 -2.5525
 4265SOL     OW17605  11.234   7.198   1.099  0.4771  0.2889 -0.0555
 4265SOL    HW117606  11.226   7.256   1.174 -0.1761 -1.2855  1.1405
 4265SOL    HW217607  11.176   7.124   1.119 -0.0650  0.0332 -2.3172
 4266SOL     OW17608   0.259  10.151   1.331  0.2334  0.5757 -0.4454
 4266SOL    HW117609   0.200  10.165   1.406 -0.7840  1.6814 -1.4142
 4266SOL    HW217610   0.318  10.226   1.332  0.5074  0.3617 -0.4937
 4267SOL     OW17611   9.235   7.247  11.440 -0.5325  0.1480  1.0322
 4267SOL    HW117612   9.237   7.178  11.507 -0.1149  0.1228  0.9993
 4267SOL    HW217613   9.170   7.218  11.377 -0.0553 -0.4337  0.7960
 4268SOL     OW17614   0.838   6.226   7.968  0.0721 -0.1052 -0.7350
 4268SOL    HW117615   0.776   6.157   7.942  0.5037 -0.7132 -0.1812
 4268SOL    HW217616   0.805   6.305   7.925 -1.5043 -0.2517  0.1107
 4269SOL     OW17617   9.096   8.960   6.450  0.4569  0.1019 -0.8527
 4269SOL    HW117618   9.100   9.046   6.407  0.7122 -1.2203 -3.6943
 4269SOL    HW217619   9.183   8.949   6.489  0.1800  1.4002  0.2125
 4270SOL     OW17620   4.796  10.750  10.004 -0.0589  0.5176  0.2420
 4270SOL    HW117621   4.790  10.655   9.989  0.9332  0.3857  0.5983
 4270SOL    HW217622   4.858  10.759  10.076 -0.2285  1.4418  0.2874
 4271SOL     OW17623   6.570   0.684   3.172 -0.4212 -0.6715  0.3809
 4271SOL    HW117624   6.544   0.630   3.097  1.0392 -0.4167 -0.3469
 4271SOL    HW217625   6.646   0.733   3.141 -1.0821  1.0536  1.3540
 4272SOL     OW17626   8.161  11.916   7.717 -0.2463 -0.1342  0.3912
 4272SOL    HW117627   8.076  11.877   7.733 -0.0663 -0.6230  0.1867
 4272SOL    HW217628   8.143  11.992   7.662 -0.8552  1.4918  2.7008
 4273SOL     OW17629   4.939   9.427   1.120 -0.3031 -0.4097 -0.0582
 4273SOL    HW117630   4.872   9.458   1.182  0.0261 -0.0915  0.1434
 4273SOL    HW217631   4.934   9.332   1.125  1.4948 -0.4672  2.4448
 4274SOL     OW17632   3.853   4.146   0.177  0.3125 -0.2602  0.3061
 4274SOL    HW117633   3.879   4.067   0.224  1.2750  0.0327  0.2741
 4274SOL    HW217634   3.899   4.141   0.094  0.0981  0.1626  0.1615
 4275SOL     OW17635   5.050   8.515   4.399 -0.2415 -0.3481 -0.1981
 4275SOL    HW117636   5.084   8.442   4.450  0.4516 -0.6914 -1.1312
 4275SOL    HW217637   4.971   8.481   4.358 -0.2859 -0.3619 -0.1025
 4276SOL     OW17638  11.133  10.769  11.657 -0.1546 -0.3763  0.0371
 4276SOL    HW117639  11.053  10.740  11.613  0.4539  0.7430 -1.9513
 4276SOL    HW217640  11.153  10.853  11.615  2.0833 -0.6595  0.4475
 4277SOL     OW17641   9.163   6.833   0.250  0.2058  0.2784 -0.0807
 4277SOL    HW117642   9.166   6.852   0.343 -2.6574  0.0783  0.1300
 4277SOL    HW217643   9.205   6.747   0.241 -1.8945 -1.0040  1.4964
 4278SOL     OW17644   5.651   4.690   2.122  0.1951 -0.4110 -0.0955
 4278SOL    HW117645   5.571   4.707   2.073 -0.1586  0.5584  0.7698
 4278SOL    HW217646   5.673   4.599   2.103 -0.5765 -0.3942 -1.0970
 4279SOL     OW17647   5.944   3.304   0.890  0.4233  0.0034  0.1288
 4279SOL    HW117648   5.939   3.209   0.901  0.9742  0.1546  2.2667
 4279SOL    HW217649   5.911   3.320   0.802 -0.0397 -2.1318 -0.1488
 4280SOL     OW17650   2.703   0.820   9.762 -0.3503  0.0532 -0.3961
 4280SOL    HW117651   2.613   0.849   9.781  0.3127  2.7831 -0.9574
 4280SOL    HW217652   2.749   0.901   9.740  2.1427 -1.3563 -0.6241
 4281SOL     OW17653  10.299  10.105   7.642 -0.0152 -0.9346 -0.2402
 4281SOL    HW117654  10.216  10.058   7.645 -0.2621 -0.5662 -0.9949
 4281SOL    HW217655  10.313  10.122   7.549  0.6060 -0.4627 -0.0646
 4282SOL     OW17656  11.693   5.598   3.475  0.2513 -0.2686  0.3418
 4282SOL    HW117657  11.660   5.644   3.553  1.1368  2.0714 -0.5856
 4282SOL    HW217658  11.618   5.594   3.416  0.4516  1.1816 -0.0559
 4283SOL     OW17659  11.755   7.856  12.095 -0.5577 -0.0553  0.0703
 4283SOL    HW117660  11.748   7.873  12.189  1.4791  1.1472  0.0725
 4283SOL    HW217661  11.823   7.916  12.065 -1.5082 -0.0461 -2.2962
 4284SOL     OW17662   0.891   1.413   9.227  0.2727  0.3274  0.2178
 4284SOL    HW117663   0.930   1.436   9.311  1.0928  0.8036 -0.2803
 4284SOL    HW217664   0.949   1.346   9.191 -0.2395 -0.0882  0.1521
 4285SOL     OW17665   3.598   2.610   8.573  0.2490  0.1207 -0.1696
 4285SOL    HW117666   3.534   2.563   8.627  0.1770 -1.5032 -1.5771
 4285SOL    HW217667   3.559   2.612   8.486 -0.1581  3.6776 -0.0662
 4286SOL     OW17668   3.822  12.440   7.219  0.0906 -0.0758  0.3425
 4286SOL    HW117669   3.908  12.411   7.246 -0.1516  0.6501  1.9789
 4286SOL    HW217670   3.790  12.371   7.161  2.2787  0.2722 -1.4020
 4287SOL     OW17671   6.627  10.637   3.022 -0.9262  0.3938 -0.1998
 4287SOL    HW117672   6.611  10.676   3.108 -1.8318  1.0007 -0.6195
 4287SOL    HW217673   6.684  10.699   2.978  0.2701 -0.3495  0.2597
 4288SOL     OW17674   0.171   4.938   8.940 -0.5631 -0.8329  0.0559
 4288SOL    HW117675   0.243   4.949   9.002 -1.0925  0.3002  0.4882
 4288SOL    HW217676   0.209   4.888   8.868  1.5778  2.3227 -1.2132
 4289SOL     OW17677   1.529   3.673   2.121 -0.0067  0.3143 -0.0788
 4289SOL    HW117678   1.527   3.747   2.061  1.1450  1.0428  0.7318
 4289SOL    HW217679   1.594   3.613   2.084 -1.6567 -0.8131 -1.2716
 4290SOL     OW17680   5.562   4.556   5.139 -0.3847 -0.2828 -0.5128
 4290SOL    HW117681   5.615   4.514   5.072  1.8712 -0.9801  1.5326
 4290SOL    HW217682   5.516   4.484   5.182  0.4963 -0.2407  0.5418
 4291SOL     OW17683  12.435   4.894   8.762 -0.1985 -0.5515  0.4109
 4291SOL    HW117684  12.464   4.914   8.851  1.6264 -0.4739 -0.1524
 4291SOL    HW217685  12.352   4.848   8.773 -1.4467  1.8787  2.0136
 4292SOL     OW17686   3.487   3.164   2.300  0.3575 -0.0812  0.2877
 4292SOL    HW117687   3.528   3.088   2.341  0.9138 -0.9433 -1.7694
 4292SOL    HW217688   3.393   3.152   2.315  0.5570 -0.1992  1.5408
 4293SOL     OW17689   4.281   0.561   1.744  0.3274  0.3438 -0.1123
 4293SOL    HW117690   4.333   0.497   1.792 -1.8012 -0.4013  1.3527
 4293SOL    HW217691   4.240   0.614   1.812  0.8941  2.3689 -1.2787
 4294SOL     OW17692   7.993   1.154  12.091  0.1597 -0.1751  0.2325
 4294SOL    HW117693   8.076   1.201  12.087 -0.4133  0.8239 -0.1791
 4294SOL    HW217694   8.016   1.070  12.130  1.0702  0.7317  1.7435
 4295SOL     OW17695   5.482   2.250   5.872  0.7974  0.0113  0.2018
 4295SOL    HW117696   5.441   2.331   5.841 -0.5642 -0.4649  0.6934
 4295SOL    HW217697   5.557   2.237   5.814  0.5639  1.1952 -0.3884
 4296SOL     OW17698   6.536   1.280  11.162 -0.6382  0.1609  0.2132
 4296SOL    HW117699   6.489   1.225  11.099 -0.0746 -0.7801  0.6023
 4296SOL    HW217700   6.471   1.346  11.189 -0.9449  0.4457 -1.1723
 4297SOL     OW17701   3.849   7.786  11.916 -0.1564 -0.1055 -0.1871
 4297SOL    HW117702   3.867   7.874  11.950  2.1550 -0.5213 -0.2025
 4297SOL    HW217703   3.791   7.747  11.981 -0.9355  1.2903  0.0029
 4298SOL     OW17704   0.362   9.078   2.214 -1.0454  0.0382  0.5403
 4298SOL    HW117705   0.343   9.091   2.121  0.2168 -0.9771  0.1216
 4298SOL    HW217706   0.337   9.161   2.254 -0.2300  1.0538 -0.9274
 4299SOL     OW17707   0.855  11.759   3.121  0.3148  0.3513  0.0322
 4299SOL    HW117708   0.828  11.846   3.092 -0.0283  0.6092  1.0891
 4299SOL    HW217709   0.805  11.699   3.066  1.1801  0.7963 -1.2890
 4300SOL     OW17710   2.621   6.809   3.512  0.0556  0.0073 -0.1377
 4300SOL    HW117711   2.624   6.886   3.455  1.3854  1.2388  1.4909
 4300SOL    HW217712   2.711   6.776   3.514 -0.0548 -0.2831  0.8526
 4301SOL     OW17713   7.764   4.833   6.309  0.1750  0.2506 -0.0160
 4301SOL    HW117714   7.673   4.815   6.335 -0.8188  1.2183 -2.4991
 4301SOL    HW217715   7.809   4.749   6.322 -1.4219 -0.6667 -0.1084
 4302SOL     OW17716   5.776  11.788   4.979  0.4730  0.0094 -0.3230
 4302SOL    HW117717   5.714  11.782   4.907 -1.5575 -1.6960  1.4348
 4302SOL    HW217718   5.763  11.877   5.014 -0.6946 -0.1769 -0.2474
 4303SOL     OW17719  11.314   1.399   4.790 -0.1248  0.2335 -0.3234
 4303SOL    HW117720  11.298   1.408   4.696 -0.7342 -0.4096 -0.2886
 4303SOL    HW217721  11.407   1.378   4.797 -0.1516 -0.0441 -0.8017
 4304SOL     OW17722   5.654  11.637   9.527  0.5303  0.1735  0.2789
 4304SOL    HW117723   5.690  11.570   9.586  2.4501  0.2917 -0.6610
 4304SOL    HW217724   5.730  11.690   9.502 -0.6552  1.6405 -0.3757
 4305SOL     OW17725   9.455   9.234   3.511 -0.0606 -0.4584  0.8242
 4305SOL    HW117726   9.513   9.159   3.521  0.4278 -0.3014 -0.5671
 4305SOL    HW217727   9.422   9.227   3.421  0.9783  1.6580  0.2068
 4306SOL     OW17728   4.863   7.380   2.408 -0.4314 -0.3169 -0.0259
 4306SOL    HW117729   4.817   7.410   2.486  0.5357 -1.3305  0.9757
 4306SOL    HW217730   4.924   7.313   2.440  0.7100 -0.0493 -1.5027
 4307SOL     OW17731   8.574  12.611   6.712  0.1222 -0.2381 -0.8521
 4307SOL    HW117732   8.539  12.661   6.786  0.1816 -2.2303  0.5985
 4307SOL    HW217733   8.630  12.673   6.666  0.5180  0.9398  1.0836
 4308SOL     OW17734   7.305   0.029  12.643 -0.1352  0.1792 -0.0264
 4308SOL    HW117735   7.358   0.069  12.574  0.5244  1.9511  1.4369
 4308SOL    HW217736   7.358   0.039  12.722 -0.5661 -2.4184  0.6827
 4309SOL     OW17737   4.556   0.349   6.776 -0.2693 -0.0981  0.2618
 4309SOL    HW117738   4.535   0.256   6.778  0.0229 -0.1788 -0.1475
 4309SOL    HW217739   4.651   0.352   6.763 -0.3322  0.2526 -0.1669
 4310SOL     OW17740  11.364  11.338  10.215 -0.2115 -1.1207  0.2715
 4310SOL    HW117741  11.457  11.315  10.211 -0.7130 -3.7261  1.3410
 4310SOL    HW217742  11.354  11.409  10.151  1.9913 -2.7444 -2.1173
 4311SOL     OW17743   9.661   5.624   0.866 -0.0564 -0.0997 -0.1912
 4311SOL    HW117744   9.710   5.690   0.915 -0.4639  0.1136 -0.0577
 4311SOL    HW217745   9.667   5.651   0.775  0.9784 -0.6753 -0.3130
 4312SOL     OW17746   1.949   5.047   0.637 -0.1167 -0.6694 -0.7046
 4312SOL    HW117747   1.980   5.094   0.714  0.2578 -0.1862 -1.1332
 4312SOL    HW217748   1.932   5.116   0.572  0.1687 -1.1025 -1.2529
 4313SOL     OW17749   5.979   2.413   7.879 -0.2383  0.2315  0.3828
 4313SOL    HW117750   5.974   2.386   7.787 -0.7922 -0.7905  0.7012
 4313SOL    HW217751   5.889   2.408   7.911  0.2541 -1.6243  1.5743
 4314SOL     OW17752   0.389   7.524  11.464  0.0407 -0.3632  0.2818
 4314SOL    HW117753   0.388   7.519  11.559  0.6671 -0.1928  0.2985
 4314SOL    HW217754   0.303   7.559  11.441  1.1605  3.2773  1.0138
 4315SOL     OW17755   4.635   8.798  10.677 -0.7411  0.9728  0.2548
 4315SOL    HW117756   4.572   8.850  10.726 -1.8064 -0.9285  0.9989
 4315SOL    HW217757   4.656   8.851  10.601 -1.2368  2.7658  1.3149
 4316SOL     OW17758   7.241  12.341   7.943  0.2500 -0.0055 -0.0687
 4316SOL    HW117759   7.281  12.416   7.987  1.8855 -2.0762  2.2139
 4316SOL    HW217760   7.161  12.323   7.993  0.0512 -0.0158 -0.3860
 4317SOL     OW17761   5.718   9.301   5.909  0.5602  0.5584  0.1125
 4317SOL    HW117762   5.761   9.247   5.976  1.4629  0.2940 -0.6473
 4317SOL    HW217763   5.718   9.389   5.945  1.7886  0.5682  0.1370
 4318SOL     OW17764  10.485  12.100   2.383  0.9042 -0.3492  0.1569
 4318SOL    HW117765  10.395  12.077   2.406  0.3272  0.6838 -0.9562
 4318SOL    HW217766  10.524  12.017   2.356 -0.2364 -0.5544 -0.9479
 4319SOL     OW17767   6.332   2.070   5.993 -0.2529  0.0056  0.8411
 4319SOL    HW117768   6.242   2.066   5.962  0.0462  0.2160 -0.0708
 4319SOL    HW217769   6.355   2.163   5.990  0.1905 -0.1137  0.4930
 4320SOL     OW17770   3.782   6.023   4.509  0.3005  0.5132  0.0800
 4320SOL    HW117771   3.689   6.040   4.492  0.2593  0.6485  0.4319
 4320SOL    HW217772   3.825   6.108   4.494  0.3986  0.3973 -0.2987
 4321SOL     OW17773   1.974   1.874  10.567 -0.2980  0.0922  0.2256
 4321SOL    HW117774   1.968   1.958  10.523 -0.2658  1.4912  2.7126
 4321SOL    HW217775   1.949   1.892  10.658  2.9083 -1.8341  1.6820
 4322SOL     OW17776   0.422  12.480  11.811  0.2884  0.0319  0.3651
 4322SOL    HW117777   0.499  12.423  11.803  0.5636  0.4723 -0.2065
 4322SOL    HW217778   0.455  12.567  11.791 -0.0486  0.4697  1.6540
 4323SOL     OW17779   7.956  10.777   5.821 -0.1960  0.5346  0.2385
 4323SOL    HW117780   7.980  10.856   5.871  0.6181 -0.5593  1.6706
 4323SOL    HW217781   7.975  10.800   5.730  1.3343  1.5508  0.7667
 4324SOL     OW17782   4.539   2.227  11.514 -0.0233  0.5573  0.0017
 4324SOL    HW117783   4.589   2.265  11.586  0.5929  0.4071 -0.3430
 4324SOL    HW217784   4.495   2.302  11.474  0.0186  0.7059  0.2296
 4325SOL     OW17785   9.852   4.154   0.754  0.5547  0.0127 -0.0910
 4325SOL    HW117786   9.927   4.182   0.702  1.3285 -0.3995  0.7658
 4325SOL    HW217787   9.843   4.221   0.821 -0.3884  0.5021 -0.6989
 4326SOL     OW17788   1.570  11.206   4.606 -0.5389  0.3665  0.4959
 4326SOL    HW117789   1.651  11.247   4.575  0.0489 -0.6249  0.6807
 4326SOL    HW217790   1.505  11.230   4.540 -0.1254  1.2656  0.4044
 4327SOL     OW17791   5.564   4.887   8.317 -0.4120  0.0512  0.3777
 4327SOL    HW117792   5.489   4.912   8.371 -1.5628 -2.2662 -0.0062
 4327SOL    HW217793   5.575   4.793   8.335  0.5019 -0.3159 -1.8196
 4328SOL     OW17794   2.221   3.857   3.925  0.1202 -0.4600 -0.4017
 4328SOL    HW117795   2.165   3.921   3.968 -1.2324 -1.3640 -0.7590
 4328SOL    HW217796   2.307   3.871   3.964  0.2852  2.6005 -1.5333
 4329SOL     OW17797   3.142   4.258   0.300 -0.3960  0.0349 -0.2254
 4329SOL    HW117798   3.055   4.220   0.284 -0.6023  0.9137 -1.2328
 4329SOL    HW217799   3.201   4.207   0.244 -0.5947  0.8348 -1.1791
 4330SOL     OW17800   6.812  10.354   1.858 -0.0892 -0.1915  0.0051
 4330SOL    HW117801   6.731  10.304   1.848  0.2674 -0.7718 -0.0429
 4330SOL    HW217802   6.841  10.372   1.768  0.3510 -0.8507  0.0056
 4331SOL     OW17803   7.618   4.170   9.472  0.1330  0.2430  0.4632
 4331SOL    HW117804   7.703   4.189   9.510  0.6603  0.2068 -0.6641
 4331SOL    HW217805   7.630   4.180   9.378 -0.7822 -0.9790  0.1795
 4332SOL     OW17806   3.994   3.617   0.608  0.2631  0.6650 -0.5749
 4332SOL    HW117807   4.048   3.695   0.620  0.7113  0.3787 -0.7190
 4332SOL    HW217808   4.006   3.594   0.516  0.9966 -0.2141 -0.2658
 4333SOL     OW17809   3.860   2.183   5.465  0.0538  0.3060  0.1469
 4333SOL    HW117810   3.917   2.253   5.433  0.7647 -0.0437  0.6278
 4333SOL    HW217811   3.773   2.222   5.467  0.1835  0.7046 -1.0603
 4334SOL     OW17812   2.587   3.503  11.203  0.4449 -0.0600 -0.0475
 4334SOL    HW117813   2.509   3.520  11.149  3.3316  2.6137 -3.8731
 4334SOL    HW217814   2.621   3.421  11.170  0.3960 -0.1787  0.1913
 4335SOL     OW17815   3.396   0.125   6.550 -0.0708  0.3186  0.0528
 4335SOL    HW117816   3.471   0.120   6.491  0.2931  0.2130  0.5131
 4335SOL    HW217817   3.335   0.185   6.507 -0.4966 -0.9348 -1.1869
 4336SOL     OW17818   5.897   1.036   7.596  0.1349  0.3278  0.0171
 4336SOL    HW117819   5.833   1.028   7.526  0.2922  2.4887 -0.4187
 4336SOL    HW217820   5.866   1.108   7.650  0.5033 -0.7011  1.6803
 4337SOL     OW17821  12.302   5.961   4.581 -0.5658 -0.2730  0.1473
 4337SOL    HW117822  12.281   5.874   4.615  1.0995 -0.0629  1.9035
 4337SOL    HW217823  12.232   6.018   4.613  0.9030 -0.0961  3.3985
 4338SOL     OW17824   5.401   4.122   0.566 -0.1879 -0.1116  0.0007
 4338SOL    HW117825   5.363   4.194   0.516  0.1487 -0.6626 -1.0653
 4338SOL    HW217826   5.327   4.064   0.584 -0.1092 -0.5239 -0.9370
 4339SOL     OW17827   0.506   3.661   8.299  0.5200  0.6458  0.2949
 4339SOL    HW117828   0.448   3.736   8.286 -0.9795 -0.4155  0.4585
 4339SOL    HW217829   0.447   3.592   8.330  2.0969 -0.1702  1.5734
 4340SOL     OW17830   5.419   3.144   0.248  0.4098 -0.0785  0.6599
 4340SOL    HW117831   5.402   3.110   0.336 -1.9001 -1.5267 -0.2353
 4340SOL    HW217832   5.450   3.068   0.198 -0.2621  0.2157 -0.2423
 4341SOL     OW17833   7.006   7.440  10.620 -0.4945 -0.1415  0.1424
 4341SOL    HW117834   6.917   7.437  10.655 -1.1856  1.0436 -1.4479
 4341SOL    HW217835   7.015   7.360  10.569 -0.4895 -0.4661  0.6481
 4342SOL     OW17836   7.541   1.485  10.423  0.3540  0.0577 -0.2375
 4342SOL    HW117837   7.599   1.436  10.482  0.4811 -2.0294 -1.9465
 4342SOL    HW217838   7.494   1.545  10.480  0.8392 -1.4743  1.9247
 4343SOL     OW17839   7.199  10.360   9.010  0.5876 -0.0279 -0.5342
 4343SOL    HW117840   7.283  10.347   8.966  1.2532 -1.1242  0.9888
 4343SOL    HW217841   7.135  10.320   8.952  1.1460  0.4640 -1.5181
 4344SOL     OW17842   1.001   3.088   5.383  0.0639  0.2474 -0.3398
 4344SOL    HW117843   1.079   3.137   5.354 -0.1364  0.9015  0.2036
 4344SOL    HW217844   0.927   3.143   5.358 -0.1248  0.7995  1.3060
 4345SOL     OW17845   7.521   9.556   5.816 -0.0484 -0.1736  0.2972
 4345SOL    HW117846   7.538   9.485   5.879 -0.9293 -0.1221  0.6126
 4345SOL    HW217847   7.490   9.629   5.870 -1.6359 -0.4038 -0.2619
 4346SOL     OW17848   4.461   4.830   5.086 -0.0318 -0.6703  0.3921
 4346SOL    HW117849   4.503   4.759   5.039 -0.8562 -0.1764 -1.1640
 4346SOL    HW217850   4.371   4.832   5.052 -0.4609  0.1401  1.5030
 4347SOL     OW17851   3.975   9.262  12.439 -0.3006  0.1518  0.6222
 4347SOL    HW117852   3.927   9.345  12.440 -0.4681  0.0605  0.2582
 4347SOL    HW217853   3.973   9.234  12.348  1.0755  0.5126  0.4511
 4348SOL     OW17854   6.688   3.803  10.860  0.4093  0.0321 -0.1505
 4348SOL    HW117855   6.728   3.869  10.803  0.0710 -0.0979 -0.5456
 4348SOL    HW217856   6.618   3.765  10.807  1.1713 -1.2716 -0.2586
 4349SOL     OW17857   7.094   6.306   2.569  0.2307  0.3827  0.5715
 4349SOL    HW117858   7.039   6.228   2.572  0.7383 -0.3600 -3.7070
 4349SOL    HW217859   7.181   6.273   2.546  1.2575  2.0079  1.8811
 4350SOL     OW17860   6.969   1.257   9.794 -0.0160 -0.0214 -0.2950
 4350SOL    HW117861   6.959   1.327   9.859  0.7063  0.9203 -1.1609
 4350SOL    HW217862   7.003   1.183   9.844 -2.5057 -0.4078  1.0026
 4351SOL     OW17863   4.651   1.602  11.302 -0.1073  1.1246  0.1603
 4351SOL    HW117864   4.721   1.547  11.265 -0.9860  0.8093 -1.0999
 4351SOL    HW217865   4.652   1.681  11.248  1.3253  2.5640  2.1190
 4352SOL     OW17866   0.575   0.221  11.037  0.4493 -0.4995 -0.2929
 4352SOL    HW117867   0.515   0.157  11.076 -1.4683  1.5169  0.2897
 4352SOL    HW217868   0.638   0.239  11.106 -0.9033  0.5029  0.7614
 4353SOL     OW17869   5.904   9.067   9.429 -0.3574  0.4454  0.3214
 4353SOL    HW117870   5.904   8.993   9.368  1.3797 -0.2385  1.0725
 4353SOL    HW217871   5.993   9.102   9.424 -0.3726  0.8002  1.9253
 4354SOL     OW17872   7.220   4.619   0.445  0.1625 -0.1238  0.1527
 4354SOL    HW117873   7.209   4.705   0.486  0.4603  0.1937 -0.4140
 4354SOL    HW217874   7.198   4.633   0.353 -0.1522 -0.7457  0.1282
 4355SOL     OW17875   7.820  11.108   1.384 -0.0542 -0.3044  0.1460
 4355SOL    HW117876   7.847  11.179   1.442 -0.3755  0.4123 -0.5755
 4355SOL    HW217877   7.725  11.105   1.390  0.0293 -1.8931  1.5736
 4356SOL     OW17878   5.302   1.642  10.566  0.5836  0.0848 -0.1494
 4356SOL    HW117879   5.269   1.696  10.494  0.8384  0.1122 -0.2470
 4356SOL    HW217880   5.305   1.554  10.530  0.2415  0.0164 -0.0140
 4357SOL     OW17881   7.950  10.288   9.634 -0.2831 -0.0046 -0.0919
 4357SOL    HW117882   7.939  10.379   9.661 -0.2849 -0.5233  1.7719
 4357SOL    HW217883   8.012  10.292   9.562  1.2289  1.3238  1.2126
 4358SOL     OW17884   8.105   1.990   0.808 -0.5590  0.0385 -0.0570
 4358SOL    HW117885   8.050   2.057   0.767 -1.2133 -0.0385  0.6769
 4358SOL    HW217886   8.173   1.972   0.743 -2.2175 -0.9245 -1.6297
 4359SOL     OW17887  12.208   2.508   5.741  0.0688 -0.7197  0.2012
 4359SOL    HW117888  12.156   2.542   5.814 -0.2494 -0.0418 -0.3248
 4359SOL    HW217889  12.221   2.584   5.683 -0.1338 -1.3541 -0.7045
 4360SOL     OW17890  12.397   4.990   1.573 -0.2028  0.2109 -0.6796
 4360SOL    HW117891  12.473   5.046   1.589  0.9343 -1.8626  1.8657
 4360SOL    HW217892  12.334   5.015   1.641 -0.0780 -0.8732 -0.1442
 4361SOL     OW17893   2.319  10.355  11.711  0.3150 -0.4589  0.0229
 4361SOL    HW117894   2.362  10.430  11.752 -1.8645 -0.3723  2.4124
 4361SOL    HW217895   2.344  10.360  11.619  1.0792  2.6140  0.2861
 4362SOL     OW17896   9.885   4.888   9.115 -0.6698  0.1151  0.6414
 4362SOL    HW117897   9.855   4.805   9.077 -0.1977 -0.5121  1.5968
 4362SOL    HW217898   9.813   4.914   9.173 -0.2207 -0.3772  1.4342
 4363SOL     OW17899   3.359   7.318  11.758  0.0080  0.2024 -0.5822
 4363SOL    HW117900   3.433   7.375  11.737  1.0437 -0.7929  0.2675
 4363SOL    HW217901   3.305   7.371  11.817 -0.6711  1.4012 -2.2000
 4364SOL     OW17902   4.989   1.347   8.097 -0.1088  0.4917 -0.2749
 4364SOL    HW117903   4.935   1.268   8.099  0.6281 -0.0229 -0.5466
 4364SOL    HW217904   4.937   1.409   8.044  0.0562 -0.3791 -1.4992
 4365SOL     OW17905   3.048   1.065  12.132  0.6050 -0.3616 -0.1690
 4365SOL    HW117906   3.076   1.046  12.043 -0.5906 -1.0903 -0.4168
 4365SOL    HW217907   2.959   1.097  12.123 -0.4629 -2.7447  0.8834
 4366SOL     OW17908  10.408   2.639  10.306 -0.5781 -0.3617 -0.4192
 4366SOL    HW117909  10.395   2.729  10.335 -0.6564  0.2783 -2.3194
 4366SOL    HW217910  10.498   2.618  10.330 -1.0315 -0.3835  1.4608
 4367SOL     OW17911   7.051   3.517  11.948 -0.4082  0.2561 -0.2359
 4367SOL    HW117912   6.964   3.497  11.914 -0.7695  2.8301 -0.9929
 4367SOL    HW217913   7.103   3.540  11.871  1.0467 -1.3620  0.1849
 4368SOL     OW17914   3.914   4.967   4.578 -0.0175  0.2774  0.6013
 4368SOL    HW117915   3.965   4.888   4.558  0.4469  1.0690 -1.6768
 4368SOL    HW217916   3.980   5.036   4.586 -0.5796  1.1464 -1.4870
 4369SOL     OW17917   0.634   2.434  11.167 -0.3211 -0.1413  0.2147
 4369SOL    HW117918   0.626   2.395  11.080 -0.5962  0.3377  0.0185
 4369SOL    HW217919   0.698   2.379  11.213  0.6416  0.2285 -0.6516
 4370SOL     OW17920   5.291   9.797   8.320  0.7660  0.3735  0.4737
 4370SOL    HW117921   5.241   9.786   8.400  1.5806 -1.4784  0.7770
 4370SOL    HW217922   5.305   9.708   8.287  1.7311  0.9916 -0.9202
 4371SOL     OW17923   8.484   4.657  12.058 -0.4659 -0.3259  0.1298
 4371SOL    HW117924   8.516   4.677  12.146  1.6904 -2.2176 -0.1235
 4371SOL    HW217925   8.402   4.609  12.073 -0.1268 -0.6295  1.1064
 4372SOL     OW17926   5.426  11.930  11.007  0.6337  0.3005 -0.3116
 4372SOL    HW117927   5.356  11.988  11.035 -0.2003 -1.1465  0.7190
 4372SOL    HW217928   5.390  11.842  11.016  1.7513 -0.3937 -2.1285
 4373SOL     OW17929   3.906   2.295  10.693  0.2035 -0.5302 -0.0580
 4373SOL    HW117930   3.863   2.375  10.664 -0.1855 -0.6850  0.0884
 4373SOL    HW217931   3.971   2.324  10.757 -0.0060 -0.3426  0.0709
 4374SOL     OW17932  12.327   5.696   4.614  0.1169  0.9726 -0.0804
 4374SOL    HW117933  12.290   5.688   4.702 -0.7265  0.0268 -0.4958
 4374SOL    HW217934  12.395   5.629   4.610 -0.8531 -0.0220 -0.6100
 4375SOL     OW17935   9.638   3.267   6.783 -0.4732 -0.2738  0.6823
 4375SOL    HW117936   9.607   3.305   6.701  0.2883 -1.3320 -0.1281
 4375SOL    HW217937   9.681   3.339   6.828 -0.1481  0.1361 -0.2542
 4376SOL     OW17938   9.723   9.737   3.500 -0.3212  0.7429  0.6059
 4376SOL    HW117939   9.786   9.700   3.439 -0.4781  0.0314  0.8698
 4376SOL    HW217940   9.648   9.762   3.445 -1.3520 -1.8374  0.7287
 4377SOL     OW17941   3.795   1.169   2.837  0.1326 -0.1981  0.1956
 4377SOL    HW117942   3.717   1.186   2.889 -0.9080 -0.1209 -1.3295
 4377SOL    HW217943   3.799   1.242   2.775  0.6168 -0.9203 -0.6490
 4378SOL     OW17944   2.316   7.413   1.401 -0.1245  0.1851 -0.3337
 4378SOL    HW117945   2.361   7.405   1.485 -0.6600  1.9022  0.1674
 4378SOL    HW217946   2.226   7.386   1.418 -1.2948  4.0936  0.7534
 4379SOL     OW17947   6.075  12.064   8.991 -0.2526 -0.5239  0.2910
 4379SOL    HW117948   6.038  11.981   9.021  0.9734 -0.8150  1.0642
 4379SOL    HW217949   6.148  12.039   8.934  0.1052  0.0125  0.5047
 4380SOL     OW17950   0.542   7.158   1.918  0.2778  0.1184 -0.0857
 4380SOL    HW117951   0.464   7.212   1.908 -0.9624 -1.7518 -1.1648
 4380SOL    HW217952   0.612   7.219   1.939 -1.0880  2.0775 -1.0042
 4381SOL     OW17953   4.149   7.831   6.392  0.5618  0.4608 -0.2481
 4381SOL    HW117954   4.075   7.774   6.370 -0.5264  1.1994  1.3488
 4381SOL    HW217955   4.194   7.786   6.463  1.4609  0.2147 -0.9414
 4382SOL     OW17956   6.698   0.486  12.541 -0.6454  0.5428  0.9443
 4382SOL    HW117957   6.676   0.557  12.481 -0.7678  0.9374  1.4500
 4382SOL    HW217958   6.730   0.530  12.619 -1.2298  0.0544  1.4652
 4383SOL     OW17959   7.853   6.257   9.860  0.3377 -0.2506 -0.4787
 4383SOL    HW117960   7.892   6.266   9.773  0.0642 -0.6546 -0.6461
 4383SOL    HW217961   7.834   6.164   9.869  2.0617 -0.5235  0.7767
 4384SOL     OW17962   4.358  11.655   5.349 -0.2955  0.2545  0.3001
 4384SOL    HW117963   4.433  11.596   5.343 -0.5252  0.0745 -1.0600
 4384SOL    HW217964   4.396  11.742   5.351 -0.0251  0.1423  0.1076
 4385SOL     OW17965   9.328   1.162   4.855 -0.7059  0.2828  0.1835
 4385SOL    HW117966   9.356   1.252   4.872  2.0925 -0.5587  0.6477
 4385SOL    HW217967   9.404   1.121   4.812 -2.1554 -1.6815 -0.7118
 4386SOL     OW17968   0.729   3.293   6.855  0.0623  0.4186  0.2995
 4386SOL    HW117969   0.686   3.245   6.783  1.6980  0.8447 -1.0291
 4386SOL    HW217970   0.765   3.371   6.813  0.5506  0.9964  1.7318
 4387SOL     OW17971   6.525   1.761   0.882  0.0729  0.0643 -0.3282
 4387SOL    HW117972   6.572   1.775   0.964  1.0684 -2.0687 -0.4749
 4387SOL    HW217973   6.593   1.757   0.815 -0.7728  2.4195 -1.4152
 4388SOL     OW17974   2.101   5.840   0.680  0.4616 -0.4215  0.1497
 4388SOL    HW117975   2.046   5.764   0.661 -0.2998 -0.1375  1.1113
 4388SOL    HW217976   2.145   5.817   0.762  0.4977  0.0237  0.2567
 4389SOL     OW17977   7.096   0.197   0.977 -0.1777 -0.1778 -0.2786
 4389SOL    HW117978   7.112   0.136   1.049 -0.2991 -0.0654 -0.1561
 4389SOL    HW217979   7.051   0.270   1.017  2.1182  1.1488  0.0782
 4390SOL     OW17980  11.140  11.865   8.883  0.5392  0.0272 -0.4005
 4390SOL    HW117981  11.131  11.847   8.977 -1.1822 -0.0430 -0.5411
 4390SOL    HW217982  11.130  11.960   8.876  0.0349 -0.0330 -0.5564
 4391SOL     OW17983   8.604   7.859   9.840  0.0300  0.0591 -0.5958
 4391SOL    HW117984   8.667   7.830   9.775  0.3588 -1.9058  0.5020
 4391SOL    HW217985   8.655   7.913   9.901  0.1273  0.4078 -0.9876
 4392SOL     OW17986   3.308   0.115   9.586 -0.1483  0.1487 -0.5236
 4392SOL    HW117987   3.254   0.167   9.645  0.6205  0.2353  0.1177
 4392SOL    HW217988   3.384   0.169   9.569  0.2090 -0.3725 -0.6118
 4393SOL     OW17989  10.564   2.886   7.262  0.0489 -0.4106  0.0358
 4393SOL    HW117990  10.497   2.948   7.291 -1.4044 -1.6378 -0.5648
 4393SOL    HW217991  10.636   2.941   7.230 -1.0018  0.9514 -0.0811
 4394SOL     OW17992   7.956   4.249  10.988 -0.7101  0.0808  0.1972
 4394SOL    HW117993   8.042   4.290  10.986  0.0359 -1.2040  2.4406
 4394SOL    HW217994   7.898   4.319  11.019 -0.3105  0.6897 -0.4052
 4395SOL     OW17995  12.620  11.691   5.259  0.3109  0.0523  0.5329
 4395SOL    HW117996  12.617  11.644   5.343 -0.9877  0.1080  0.5337
 4395SOL    HW217997  12.565  11.768   5.273  0.2553  0.1679 -0.3043
 4396SOL     OW17998   2.076   2.795   8.850 -0.8023  0.0900 -0.2606
 4396SOL    HW117999   2.026   2.716   8.829 -1.7220  0.5403  0.1923
 4396SOL    HW218000   2.015   2.867   8.832 -0.9597  0.5846  1.9779
 4397SOL     OW18001   9.802   9.266   6.165  0.7680  0.3757 -0.7433
 4397SOL    HW118002   9.728   9.324   6.183 -0.5609 -1.9000  2.0396
 4397SOL    HW218003   9.864   9.285   6.236  2.3764  1.3974 -2.3532
 4398SOL     OW18004   2.573   9.961   9.569 -0.0260  0.1716 -0.5288
 4398SOL    HW118005   2.523   9.973   9.489 -1.5683 -0.0421  0.3600
 4398SOL    HW218006   2.549   9.873   9.599 -0.9885  0.9554  1.1385
 4399SOL     OW18007   9.233   4.141   0.415  0.4655 -0.2999  0.1037
 4399SOL    HW118008   9.295   4.100   0.355  1.3694  0.8105  0.2451
 4399SOL    HW218009   9.286   4.167   0.490 -0.3543 -0.1880  0.6612
 4400SOL     OW18010   7.122  11.478   2.854  0.0301 -1.0395 -0.7119
 4400SOL    HW118011   7.098  11.504   2.766  2.2904  0.0657 -1.0606
 4400SOL    HW218012   7.168  11.395   2.843 -0.2441 -1.2272 -0.4780
 4401SOL     OW18013  11.017  12.276  10.641 -0.1134 -0.1311 -0.0779
 4401SOL    HW118014  10.962  12.225  10.582  0.7761  1.5562 -2.5406
 4401SOL    HW218015  11.106  12.246  10.622  0.0986 -0.8760  1.8580
 4402SOL     OW18016   9.727   4.302   2.713  0.0859 -0.0103  0.2131
 4402SOL    HW118017   9.705   4.228   2.657 -0.3338  0.0168  0.3349
 4402SOL    HW218018   9.719   4.268   2.802  0.5030  0.0151  0.2612
 4403SOL     OW18019   4.588   4.441   1.851  0.8137  0.5635 -0.1533
 4403SOL    HW118020   4.580   4.496   1.929 -2.8018 -0.9962  0.7902
 4403SOL    HW218021   4.543   4.490   1.783  1.8038  0.8403 -0.6180
 4404SOL     OW18022   1.404   0.661  10.097 -0.2006  0.1366  0.0050
 4404SOL    HW118023   1.324   0.713  10.092 -0.3760 -0.2222 -1.4133
 4404SOL    HW218024   1.392   0.592  10.031  1.7611  0.7780 -1.1094
 4405SOL     OW18025   1.251   7.037   1.825  0.2589 -0.0196  0.6716
 4405SOL    HW118026   1.188   7.004   1.890 -0.1692 -1.6490 -0.5121
 4405SOL    HW218027   1.253   7.131   1.840 -0.1667 -0.2803  2.7353
 4406SOL     OW18028   8.898   0.855   6.360  0.1345  0.3452  0.0747
 4406SOL    HW118029   8.894   0.916   6.434 -1.9788 -0.0987  0.4097
 4406SOL    HW218030   8.921   0.771   6.400  1.5390  0.5823 -0.1766
 4407SOL     OW18031  10.423  10.142   2.972  0.0461  0.4005  0.4939
 4407SOL    HW118032  10.478  10.121   3.047 -0.7086  0.5941  1.1141
 4407SOL    HW218033  10.467  10.217   2.931  0.6351  0.0926  0.5508
 4408SOL     OW18034   3.247  11.576   5.743  0.1690  0.2893  0.7521
 4408SOL    HW118035   3.264  11.653   5.798  0.7524 -0.8036  2.1762
 4408SOL    HW218036   3.172  11.534   5.784 -2.4472  1.8593 -2.0287
 4409SOL     OW18037   1.377   2.902   0.139 -0.1932 -0.1079  0.1233
 4409SOL    HW118038   1.282   2.891   0.140 -0.3977  1.2095 -0.9651
 4409SOL    HW218039   1.404   2.871   0.052 -0.2446  3.2377 -1.2622
 4410SOL     OW18040  11.962   5.185   1.435  0.3615  0.2451  0.0091
 4410SOL    HW118041  12.047   5.213   1.470 -0.4066  1.2864  1.1148
 4410SOL    HW218042  11.961   5.218   1.345  2.1736 -2.0546 -0.9606
 4411SOL     OW18043   6.511   6.921   8.000  0.3718 -0.5014 -0.8536
 4411SOL    HW118044   6.507   6.835   7.959  2.1653 -0.5491 -1.0420
 4411SOL    HW218045   6.549   6.978   7.932  0.7381  0.0547 -0.2011
 4412SOL     OW18046   9.150   1.329   2.036 -0.1296 -0.5739 -0.1661
 4412SOL    HW118047   9.184   1.268   1.969 -0.0268  1.7343 -2.3627
 4412SOL    HW218048   9.055   1.322   2.029 -0.1276  0.2169 -1.1410
 4413SOL     OW18049   4.475   1.601  10.113 -0.3921  0.3191 -0.0279
 4413SOL    HW118050   4.414   1.643  10.174  0.2004  2.4464 -0.8245
 4413SOL    HW218051   4.543   1.666  10.099  0.7025 -1.0185 -1.1868
 4414SOL     OW18052   2.552   8.528  12.071 -0.4420  0.2621 -0.2772
 4414SOL    HW118053   2.514   8.441  12.059  0.8509 -0.2329 -0.9663
 4414SOL    HW218054   2.493   8.587  12.023 -2.3446  0.0818  1.6856
 4415SOL     OW18055  11.925  11.722  10.190 -0.1758  0.2082  0.1676
 4415SOL    HW118056  11.834  11.698  10.169  0.0151 -0.1793 -0.2420
 4415SOL    HW218057  11.940  11.686  10.277 -0.2232 -0.2737 -0.0193
 4416SOL     OW18058   8.803   3.830   6.038 -0.5608 -0.1889  0.1629
 4416SOL    HW118059   8.743   3.849   6.110 -1.8619 -0.6928 -0.7508
 4416SOL    HW218060   8.762   3.870   5.961 -0.1226 -1.2031 -0.6265
 4417SOL     OW18061   6.621  10.213  10.447  0.0121 -0.2553 -0.6477
 4417SOL    HW118062   6.651  10.299  10.476  0.9998 -0.4510 -1.0553
 4417SOL    HW218063   6.607  10.224  10.353  1.4175 -0.8821 -0.9454
 4418SOL     OW18064   4.118  11.850  11.820  0.7680  0.2629  0.0415
 4418SOL    HW118065   4.172  11.818  11.893  0.8635 -0.2057 -0.2297
 4418SOL    HW218066   4.148  11.940  11.806  1.0806  0.1973  0.2700
 4419SOL     OW18067   4.335   6.567   9.497 -0.3650  0.3171 -0.2738
 4419SOL    HW118068   4.418   6.588   9.455  0.1602 -0.7299  0.2136
 4419SOL    HW218069   4.355   6.566   9.591 -0.5680 -1.3986 -0.2305
 4420SOL     OW18070   8.465   8.463   0.644 -0.2334  0.2138 -0.4018
 4420SOL    HW118071   8.492   8.493   0.557  2.0954  0.2165  0.2625
 4420SOL    HW218072   8.472   8.540   0.700  0.1947 -0.2168  0.1580
 4421SOL     OW18073   9.187   0.399  11.762  0.1227 -0.3269 -0.0906
 4421SOL    HW118074   9.263   0.351  11.729  0.9012  1.5417 -1.1621
 4421SOL    HW218075   9.223   0.482  11.793 -1.4547  0.5493 -0.4949
 4422SOL     OW18076   1.702   4.555   7.734 -0.5261 -0.0665  0.5917
 4422SOL    HW118077   1.770   4.547   7.801  0.7610  0.5109 -0.5896
 4422SOL    HW218078   1.629   4.599   7.778  0.3580  0.4658  1.5674
 4423SOL     OW18079   2.708   0.453   9.399 -0.0873 -0.3191 -0.2101
 4423SOL    HW118080   2.696   0.373   9.450  0.6377  0.4549  1.2609
 4423SOL    HW218081   2.632   0.457   9.341 -1.4828 -0.7494  1.5043
 4424SOL     OW18082   8.397  10.591   7.483  0.1798 -0.6400  0.2914
 4424SOL    HW118083   8.351  10.553   7.558 -1.3534 -0.1089 -0.3479
 4424SOL    HW218084   8.438  10.670   7.519  0.3933 -0.9832  0.8176
 4425SOL     OW18085   1.460   0.309   7.929  0.2348  0.4518 -0.2494
 4425SOL    HW118086   1.514   0.262   7.992  0.5227  1.7015  0.4568
 4425SOL    HW218087   1.477   0.401   7.946 -1.8582  0.8847 -0.2269
 4426SOL     OW18088  11.822  12.305   9.460  0.2239  0.0083 -0.0170
 4426SOL    HW118089  11.756  12.367   9.429  0.6684  0.9214  0.7948
 4426SOL    HW218090  11.880  12.358   9.516  1.3849 -0.8586 -0.3572
 4427SOL     OW18091   3.723   5.439   7.320  0.2264  0.2332 -0.2527
 4427SOL    HW118092   3.672   5.513   7.287 -1.7494 -1.6531 -1.7323
 4427SOL    HW218093   3.682   5.418   7.405  1.7800  1.6803  0.9339
 4428SOL     OW18094  10.737   0.861   9.177 -0.0280  0.1701  0.2515
 4428SOL    HW118095  10.749   0.880   9.270  2.2187  0.9042 -0.1140
 4428SOL    HW218096  10.826   0.851   9.144 -0.7634  0.3766 -1.9150
 4429SOL     OW18097  11.734   8.853   3.811  0.2362  0.2186  0.1197
 4429SOL    HW118098  11.686   8.936   3.815  0.4613  0.3260  0.8280
 4429SOL    HW218099  11.799   8.860   3.881 -0.2571 -0.8735  0.7082
 4430SOL     OW18100   6.990   0.642   7.563  0.5222 -0.2132 -1.2028
 4430SOL    HW118101   6.964   0.713   7.504 -1.0961 -0.6223 -1.0498
 4430SOL    HW218102   7.081   0.661   7.586  0.2304  1.6362 -1.4185
 4431SOL     OW18103   1.577   7.898   8.903 -0.3655 -0.0536 -0.4839
 4431SOL    HW118104   1.517   7.973   8.909 -0.6316 -0.3766  1.6637
 4431SOL    HW218105   1.531   7.827   8.948  1.7794 -0.1887  1.6712
 4432SOL     OW18106   9.701   8.801   7.973 -0.1134  0.2319 -0.3079
 4432SOL    HW118107   9.645   8.824   7.899  0.2288 -0.0579 -0.6637
 4432SOL    HW218108   9.756   8.730   7.940  0.1014  0.1572  0.2007
 4433SOL     OW18109   6.217  12.209   2.020 -0.0903 -0.0248 -0.0229
 4433SOL    HW118110   6.249  12.297   2.043 -0.2103 -0.0340  0.1803
 4433SOL    HW218111   6.295  12.163   1.988  0.8882 -1.1085  3.4945
 4434SOL     OW18112   9.881  11.454   2.640  0.1436 -0.5029  0.2977
 4434SOL    HW118113   9.834  11.385   2.688 -0.6932  1.4878  2.5078
 4434SOL    HW218114   9.826  11.471   2.563 -0.3602 -1.3069  0.4569
 4435SOL     OW18115   6.608   8.254   6.290  0.0550 -0.1001  0.4567
 4435SOL    HW118116   6.653   8.338   6.278  0.0390 -0.2989 -1.3707
 4435SOL    HW218117   6.678   8.193   6.315  0.3685  0.1271  0.1565
 4436SOL     OW18118   2.514  10.009   1.482  0.2493 -0.3198 -0.2902
 4436SOL    HW118119   2.603  10.044   1.488 -0.5232  1.9041 -0.7149
 4436SOL    HW218120   2.511   9.965   1.397  1.0564 -0.8511 -0.0581
 4437SOL     OW18121  10.635  11.456  10.709  0.4093  0.0979 -0.3320
 4437SOL    HW118122  10.700  11.520  10.738  0.2006 -0.1420  0.6885
 4437SOL    HW218123  10.558  11.474  10.763  0.1356 -0.6109 -0.4770
 4438SOL     OW18124   6.549   5.758   4.814  1.0067 -0.4429  0.2323
 4438SOL    HW118125   6.523   5.720   4.898  3.0470  0.0502  1.1453
 4438SOL    HW218126   6.545   5.685   4.752  1.0270 -1.1945  1.1002
 4439SOL     OW18127   1.680  12.429   8.158 -0.2745  0.0199 -0.4366
 4439SOL    HW118128   1.587  12.420   8.140 -0.2948  0.6565 -0.6754
 4439SOL    HW218129   1.709  12.340   8.180 -0.9495 -0.1655 -0.2797
 4440SOL     OW18130   8.494   7.955   8.143 -0.1726  0.5540  0.4945
 4440SOL    HW118131   8.439   7.954   8.064  0.6204 -0.1020 -0.0782
 4440SOL    HW218132   8.438   7.991   8.211 -0.0032  3.9703 -0.9940
 4441SOL     OW18133   3.866   7.328   7.899 -0.0480 -0.8927  0.5512
 4441SOL    HW118134   3.899   7.409   7.940 -0.2857 -0.2273 -0.5272
 4441SOL    HW218135   3.945   7.277   7.882  0.1199 -0.8311  1.1020
 4442SOL     OW18136  10.917   9.316  12.568  0.6107 -0.0538  0.5785
 4442SOL    HW118137  10.997   9.366  12.585  0.8538 -0.0976 -0.4109
 4442SOL    HW218138  10.869   9.321  12.651  1.2764  0.6201  0.9466
 4443SOL     OW18139   6.046   3.132   7.242  0.1251  0.3136  0.7579
 4443SOL    HW118140   5.986   3.155   7.313  0.6571  0.5185  1.1478
 4443SOL    HW218141   6.059   3.214   7.194 -0.7505  0.0316  0.0200
 4444SOL     OW18142   2.088   6.820  10.225 -0.0492  0.4513  0.3225
 4444SOL    HW118143   2.092   6.914  10.246 -0.1121  0.3145  0.9893
 4444SOL    HW218144   2.156   6.781  10.279 -0.0184  0.1101  0.0388
 4445SOL     OW18145  11.365   5.784   5.121  0.4524  0.0694 -0.0243
 4445SOL    HW118146  11.381   5.868   5.078  0.8342 -0.5484 -1.1339
 4445SOL    HW218147  11.274   5.789   5.148  0.8327  1.3567  1.1364
 4446SOL     OW18148  11.007   9.143   5.254  0.5505 -0.1326 -0.0054
 4446SOL    HW118149  11.018   9.194   5.174 -2.8145 -0.8115 -1.1081
 4446SOL    HW218150  11.009   9.052   5.224  1.3118 -0.4890  1.0696
 4447SOL     OW18151   4.236   5.316   2.124  0.0942  0.0942  0.0166
 4447SOL    HW118152   4.240   5.262   2.045 -2.3777  0.6923 -0.5998
 4447SOL    HW218153   4.300   5.276   2.184  0.9137 -1.2973 -1.7090
 4448SOL     OW18154  10.389   4.063  11.651 -0.0208  0.6476  0.3102
 4448SOL    HW118155  10.395   4.109  11.567 -0.2681  1.6161  0.8049
 4448SOL    HW218156  10.452   4.109  11.707  0.0776  0.0630  0.6859
 4449SOL     OW18157   4.374   1.921  12.426 -0.2207 -0.5115  0.5364
 4449SOL    HW118158   4.451   1.916  12.370  0.1040 -1.2078  1.0357
 4449SOL    HW218159   4.384   1.848  12.487 -0.1085  0.7303  2.0677
 4450SOL     OW18160   7.242   3.818  11.110 -0.0049 -0.7910  0.7798
 4450SOL    HW118161   7.168   3.787  11.057  1.0246  0.8111 -1.7602
 4450SOL    HW218162   7.202   3.846  11.193 -2.0864 -0.8774 -0.1292
 4451SOL     OW18163   6.980   9.996  11.043  0.9379  0.0085  0.2843
 4451SOL    HW118164   6.925   9.932  11.088  0.1650  0.8102  0.5107
 4451SOL    HW218165   6.982   9.967  10.952 -1.4290  0.9614 -0.1391
 4452SOL     OW18166   2.430  11.836   4.659  0.0440  0.3802  0.6410
 4452SOL    HW118167   2.501  11.787   4.701 -0.3421 -0.0673  0.7782
 4452SOL    HW218168   2.464  11.858   4.573 -0.4836 -1.8228 -0.1845
 4453SOL     OW18169  11.475   0.659   3.908  0.2352 -0.2029 -0.1065
 4453SOL    HW118170  11.505   0.571   3.933  0.6260 -0.3238 -0.9413
 4453SOL    HW218171  11.416   0.643   3.834  1.8695  0.3525 -1.5815
 4454SOL     OW18172   8.958   4.186  11.805 -0.3636 -0.5589  0.1715
 4454SOL    HW118173   8.891   4.160  11.742 -0.4168  0.4827 -0.2242
 4454SOL    HW218174   8.995   4.104  11.837 -0.7626 -1.1141 -0.7629
 4455SOL     OW18175   6.832   9.448   1.968 -0.5700  0.0323  0.6604
 4455SOL    HW118176   6.793   9.395   2.038 -0.4247 -0.0259  0.6960
 4455SOL    HW218177   6.757   9.493   1.928 -0.6931 -0.1928  0.6337
 4456SOL     OW18178   7.794   1.259   8.710 -0.0268 -0.0766 -0.2551
 4456SOL    HW118179   7.880   1.221   8.695 -0.6219 -1.5288 -0.1639
 4456SOL    HW218180   7.796   1.288   8.801  0.1063 -0.8320 -0.0151
 4457SOL     OW18181   4.253   7.452   6.773  0.0712 -0.0847  0.0818
 4457SOL    HW118182   4.339   7.456   6.731 -0.7859 -0.9220 -1.8825
 4457SOL    HW218183   4.231   7.543   6.792 -0.1190  0.5492 -2.7598
 4458SOL     OW18184   5.154   0.646  11.372 -0.5300 -0.1755  0.3184
 4458SOL    HW118185   5.162   0.592  11.294 -0.7886 -0.1097  0.2458
 4458SOL    HW218186   5.097   0.718  11.346 -0.2935  0.0638  0.4514
 4459SOL     OW18187  10.379   1.341   3.609 -0.7657 -0.3837  0.1843
 4459SOL    HW118188  10.363   1.279   3.538  1.3554 -0.8437  0.0522
 4459SOL    HW218189  10.378   1.427   3.566 -2.3881 -0.3713  0.1518
 4460SOL     OW18190   0.209  12.016   8.651 -0.0410  0.1150  0.1323
 4460SOL    HW118191   0.166  12.086   8.603  0.5350  1.2930  1.2886
 4460SOL    HW218192   0.141  11.950   8.663 -0.1807 -0.2881 -2.3459
 4461SOL     OW18193   2.640  11.566   9.371 -0.4998  0.1127  0.1921
 4461SOL    HW118194   2.649  11.658   9.395  0.1226 -0.1126  0.8472
 4461SOL    HW218195   2.595  11.525   9.445 -1.2254 -0.0283 -0.3057
 4462SOL     OW18196   8.232  12.197   9.690 -0.2172 -0.0681  0.0589
 4462SOL    HW118197   8.212  12.124   9.749  1.2198  0.5400  1.3780
 4462SOL    HW218198   8.196  12.170   9.605  0.8763 -2.6071  0.3095
 4463SOL     OW18199  10.585   0.603  11.263 -0.3509 -0.4848 -0.1310
 4463SOL    HW118200  10.584   0.513  11.296  1.5148  0.0095  1.4866
 4463SOL    HW218201  10.635   0.652  11.329  0.7667  1.2474 -2.1364
 4464SOL     OW18202  10.344   6.363  11.724 -0.2491 -0.2399  0.5487
 4464SOL    HW118203  10.437   6.355  11.706  0.3334  1.2872  2.5359
 4464SOL    HW218204  10.326   6.298  11.792  0.1959  1.6909  2.6270
 4465SOL     OW18205   9.820   5.341   1.308  0.0849  0.6354  0.6185
 4465SOL    HW118206   9.872   5.338   1.388  0.5502 -1.8236  0.2999
 4465SOL    HW218207   9.876   5.384   1.244  0.0657  1.7803  1.3447
 4466SOL     OW18208   0.852   2.678   2.663 -0.8153  0.4500 -0.4484
 4466SOL    HW118209   0.827   2.703   2.752 -0.2053  2.6732 -0.8402
 4466SOL    HW218210   0.775   2.699   2.610 -0.8975 -0.1299 -0.5638
 4467SOL     OW18211   9.917   5.589  11.697  0.5564  0.3087  0.3229
 4467SOL    HW118212   9.890   5.633  11.777  1.9095  1.1472  0.3549
 4467SOL    HW218213  10.012   5.588  11.701  0.6396  0.0902 -1.1290
 4468SOL     OW18214  11.681   5.015   5.305  0.0210  0.5771  0.5224
 4468SOL    HW118215  11.600   4.963   5.309  0.8425 -0.6961  1.3405
 4468SOL    HW218216  11.727   4.982   5.229  1.1220 -0.8448  1.7446
 4469SOL     OW18217   8.762   7.275   0.316  0.2834  0.0182  0.1361
 4469SOL    HW118218   8.843   7.280   0.265  0.8739  0.5060  1.0914
 4469SOL    HW218219   8.772   7.197   0.369 -0.5429 -0.7623 -0.8169
 4470SOL     OW18220   5.402   9.022   7.129  0.2385  0.2540 -0.5611
 4470SOL    HW118221   5.387   9.054   7.040  1.2291 -1.5789 -1.4489
 4470SOL    HW218222   5.372   8.931   7.127 -0.4139  0.4033  1.2003
 4471SOL     OW18223  11.554   7.841  10.098  0.2320 -0.0033 -0.6330
 4471SOL    HW118224  11.644   7.828  10.127 -0.0166  1.2217  0.8036
 4471SOL    HW218225  11.504   7.776  10.147 -0.1653  1.9574  1.7585
 4472SOL     OW18226   5.750   9.080   3.981  0.3830  0.0487  0.2906
 4472SOL    HW118227   5.735   8.988   4.003  1.2348 -0.3963 -0.8887
 4472SOL    HW218228   5.769   9.079   3.887  0.3676  1.4377  0.2565
 4473SOL     OW18229  11.654   4.840   1.950 -0.4596  0.2441  0.0169
 4473SOL    HW118230  11.616   4.922   1.980 -0.2843  0.8459 -1.3320
 4473SOL    HW218231  11.721   4.819   2.016  0.0317  1.5945 -0.0198
 4474SOL     OW18232   0.921   7.140   4.365 -0.0384 -0.4563 -0.2785
 4474SOL    HW118233   0.871   7.198   4.422 -0.6817  0.2783 -1.5358
 4474SOL    HW218234   0.910   7.053   4.402  0.3348  0.1092  1.2284
 4475SOL     OW18235   4.748  10.433   8.320 -0.2241  0.6961 -0.1841
 4475SOL    HW118236   4.796  10.439   8.237 -0.3832  0.6070 -0.2850
 4475SOL    HW218237   4.734  10.523   8.347  0.6731  0.7142  0.2411
 4476SOL     OW18238   2.213   8.910   8.516 -0.4858  0.3226 -0.0182
 4476SOL    HW118239   2.265   8.981   8.479 -1.8722  1.6960  0.5717
 4476SOL    HW218240   2.166   8.873   8.441  0.4607 -0.2043 -0.3735
 4477SOL     OW18241   3.431   2.553  11.378 -0.1299  0.7108 -0.8160
 4477SOL    HW118242   3.503   2.507  11.334  2.9818  3.4947  0.8777
 4477SOL    HW218243   3.437   2.643  11.346 -1.6435  1.4670  0.8386
 4478SOL     OW18244  12.117   1.416   7.877 -0.0945  0.6601 -0.5245
 4478SOL    HW118245  12.082   1.416   7.788 -1.5127 -1.2406 -0.0376
 4478SOL    HW218246  12.069   1.486   7.921 -2.7878 -1.2665 -0.1389
 4479SOL     OW18247   1.552   4.487   3.748 -0.2424  0.3304  0.2919
 4479SOL    HW118248   1.505   4.405   3.730 -0.2853  0.1682  1.0732
 4479SOL    HW218249   1.543   4.498   3.843 -0.4888  1.3982  0.1489
 4480SOL     OW18250   5.486   0.623   0.109  0.1259 -0.3043  0.1262
 4480SOL    HW118251   5.537   0.671   0.044 -0.1112 -0.1119  0.0846
 4480SOL    HW218252   5.401   0.608   0.068  0.7117 -2.1992 -0.5192
 4481SOL     OW18253   1.581   0.766  11.484  0.0200  0.0508  0.8769
 4481SOL    HW118254   1.510   0.808  11.437  0.3452  0.0541  0.3826
 4481SOL    HW218255   1.565   0.672  11.474  1.6806 -0.0561 -1.8111
 4482SOL     OW18256  10.865   8.539   3.807  0.1027  0.2904 -0.1943
 4482SOL    HW118257  10.807   8.478   3.852 -0.1292  1.6196  1.3916
 4482SOL    HW218258  10.821   8.624   3.815  1.5619  1.0795 -0.2235
 4483SOL     OW18259  12.527   9.410   0.923 -0.0922  0.1421 -0.2570
 4483SOL    HW118260  12.541   9.500   0.894  1.2541 -0.2458 -0.9062
 4483SOL    HW218261  12.508   9.361   0.843 -0.1879 -0.2556  0.0048
 4484SOL     OW18262  11.670   8.959  10.243 -0.5368 -0.1382  0.1647
 4484SOL    HW118263  11.733   8.892  10.267  0.8506  1.0563 -0.0315
 4484SOL    HW218264  11.649   8.940  10.151  0.4446  0.1430 -0.1268
 4485SOL     OW18265   1.976  11.385   1.160 -0.4183  0.2271 -0.0138
 4485SOL    HW118266   1.987  11.290   1.167 -0.9736  0.0297 -1.5534
 4485SOL    HW218267   2.000  11.417   1.247  0.4915 -1.2426  0.3299
 4486SOL     OW18268   2.251   4.327   0.340 -0.5357 -0.2120 -0.3298
 4486SOL    HW118269   2.334   4.318   0.292  0.0834  0.9718  0.4660
 4486SOL    HW218270   2.231   4.421   0.334 -0.7284 -0.1337  1.2287
 4487SOL     OW18271   3.929   5.189   6.714 -0.3466  0.0257 -0.2743
 4487SOL    HW118272   3.886   5.191   6.799 -1.1332  1.1278 -0.6907
 4487SOL    HW218273   3.931   5.096   6.690 -0.4395 -0.2511  0.7707
 4488SOL     OW18274   6.606   6.393   1.714 -0.6227  0.6659  0.9786
 4488SOL    HW118275   6.648   6.450   1.650  2.1109  0.2021  2.2381
 4488SOL    HW218276   6.618   6.305   1.678  0.8122  0.4152  2.0054
 4489SOL     OW18277   5.847   8.353   2.296  0.4645 -0.1298 -0.2646
 4489SOL    HW118278   5.796   8.377   2.219 -0.1499  0.9005  0.4429
 4489SOL    HW218279   5.839   8.428   2.355  0.7969 -0.9540  0.8659
 4490SOL     OW18280   0.990  11.299   0.203 -0.3872  0.7161 -0.2562
 4490SOL    HW118281   0.921  11.365   0.203  0.6031  1.8405 -2.5376
 4490SOL    HW218282   1.068  11.345   0.174  0.7280 -1.0967 -0.2901
 4491SOL     OW18283   2.516   2.867   2.317 -0.0444 -0.0100 -0.1312
 4491SOL    HW118284   2.545   2.868   2.408 -0.3537  0.8708 -0.0331
 4491SOL    HW218285   2.422   2.884   2.321  0.2917  2.3129 -0.7054
 4492SOL     OW18286   5.759   2.748  10.834  0.0371 -0.1329  0.2093
 4492SOL    HW118287   5.831   2.688  10.855 -0.7338 -0.7016  1.2905
 4492SOL    HW218288   5.791   2.834  10.863 -0.4500 -0.6840  2.5641
 4493SOL     OW18289   8.523   9.589   7.214 -0.3511 -0.4881 -0.0198
 4493SOL    HW118290   8.559   9.676   7.196 -0.4694 -0.6259 -0.9974
 4493SOL    HW218291   8.485   9.596   7.301  2.3720 -0.4462  1.2567
 4494SOL     OW18292   8.005   8.190   8.680  0.1343 -0.1156  0.2965
 4494SOL    HW118293   7.913   8.172   8.697 -0.2704  1.9015  0.5093
 4494SOL    HW218294   8.017   8.282   8.704  1.6336  0.3623 -1.9245
 4495SOL     OW18295   0.513  10.436   1.569  0.0059  0.3369 -0.1037
 4495SOL    HW118296   0.455  10.458   1.496  0.4620 -0.4830 -0.7372
 4495SOL    HW218297   0.476  10.482   1.644 -1.5268 -0.2582 -0.4672
 4496SOL     OW18298   2.524  10.297   2.572  0.0391 -0.0794 -0.1948
 4496SOL    HW118299   2.562  10.224   2.621  0.4636 -1.5854 -2.6000
 4496SOL    HW218300   2.436  10.307   2.609 -0.4390 -2.5760 -0.4882
 4497SOL     OW18301   8.839   6.935  10.064  0.0102 -0.5866 -0.1203
 4497SOL    HW118302   8.887   7.018  10.056  0.6730 -1.1074 -2.4252
 4497SOL    HW218303   8.853   6.908  10.154 -0.3774  1.8771  0.7652
 4498SOL     OW18304   2.656  10.716  12.373 -0.4598  0.0451  0.2063
 4498SOL    HW118305   2.686  10.663  12.447 -1.7683 -1.4030 -0.2364
 4498SOL    HW218306   2.735  10.734  12.322  0.2758  0.0828  1.3344
 4499SOL     OW18307   2.736   0.142   2.675  0.0788  0.2302 -0.2784
 4499SOL    HW118308   2.693   0.101   2.600  0.8658 -2.3276  0.5525
 4499SOL    HW218309   2.803   0.079   2.702  1.2556  2.0126  1.2845
 4500SOL     OW18310   5.076   8.033  10.192  0.3234 -0.4862  0.1831
 4500SOL    HW118311   5.053   7.940  10.186  2.3430 -1.1225  1.4066
 4500SOL    HW218312   5.011   8.070  10.251 -0.8744 -0.9410 -0.7958
 4501SOL     OW18313   3.026   0.329   1.842  0.0446  0.3324 -0.6934
 4501SOL    HW118314   2.932   0.320   1.859  0.2115  0.3156  0.2948
 4501SOL    HW218315   3.032   0.357   1.751 -0.8490 -1.2264 -1.2537
 4502SOL     OW18316   4.752   1.830   5.366  0.0230 -0.5464 -0.0589
 4502SOL    HW118317   4.753   1.795   5.455 -1.5712 -0.0523  0.1864
 4502SOL    HW218318   4.667   1.873   5.358  0.4095  0.0010 -1.6052
 4503SOL     OW18319   6.333  10.772   0.732 -0.4919  0.3321 -0.1001
 4503SOL    HW118320   6.409  10.714   0.727 -2.1915 -2.0909  0.2387
 4503SOL    HW218321   6.362  10.853   0.691  2.2561 -0.4639  0.0438
 4504SOL     OW18322   6.937   7.962   8.500  0.0675 -0.0613  0.2038
 4504SOL    HW118323   6.911   7.931   8.587 -0.3723 -1.0153 -0.2616
 4504SOL    HW218324   6.999   7.897   8.468 -1.5335 -1.0216 -1.1463
 4505SOL     OW18325   6.348   1.539   3.899  0.1585 -0.6717  0.2273
 4505SOL    HW118326   6.338   1.566   3.990  2.8449 -1.4754  0.8475
 4505SOL    HW218327   6.373   1.618   3.853 -0.9977 -0.3066  0.1857
 4506SOL     OW18328   7.102   8.503   9.076  0.0100  0.4061  0.4518
 4506SOL    HW118329   7.046   8.429   9.052  2.1705 -1.2932  0.4050
 4506SOL    HW218330   7.077   8.524   9.166  0.4640 -1.4701  1.0417
 4507SOL     OW18331   3.299   5.641   8.154 -0.3087 -0.6012  0.5851
 4507SOL    HW118332   3.299   5.729   8.191 -0.1130  0.1391 -1.1035
 4507SOL    HW218333   3.233   5.594   8.205  0.3244  0.1908  2.2045
 4508SOL     OW18334   8.561   0.890   1.086 -0.5963  0.4207 -0.0137
 4508SOL    HW118335   8.591   0.802   1.063  0.0129  0.4074  0.7933
 4508SOL    HW218336   8.595   0.905   1.174  0.9274  2.1817 -0.8249
 4509SOL     OW18337   5.499   2.620   0.643 -0.4056 -0.3818 -0.0492
 4509SOL    HW118338   5.461   2.690   0.696 -0.2672  1.1055 -1.8133
 4509SOL    HW218339   5.443   2.616   0.566  1.2417 -0.2194 -1.3014
 4510SOL     OW18340   5.003  12.564   3.386 -0.0284  0.0734 -0.0126
 4510SOL    HW118341   5.056  12.521   3.454 -1.2314 -0.0293  0.9107
 4510SOL    HW218342   5.006  12.657   3.408  0.6591  0.2033 -0.6215
 4511SOL     OW18343   0.956   7.783   1.108  0.6090 -0.2892  0.5405
 4511SOL    HW118344   0.907   7.783   1.026  1.2703 -0.1009  0.1335
 4511SOL    HW218345   0.955   7.875   1.136  1.6955 -0.0694 -0.0781
 4512SOL     OW18346  11.383  11.094   9.147  0.0678 -0.0196 -0.2615
 4512SOL    HW118347  11.310  11.033   9.157 -0.8201  1.0344 -0.1887
 4512SOL    HW218348  11.346  11.180   9.167  0.9416  0.7399 -1.7474
 4513SOL     OW18349   1.461   4.884  11.488 -0.2122 -0.4841 -0.1244
 4513SOL    HW118350   1.370   4.859  11.472 -0.7749 -0.4159  2.5540
 4513SOL    HW218351   1.457   4.945  11.561  1.8775  0.9741 -1.1382
 4514SOL     OW18352   5.213   1.757   7.103  0.0017 -0.4144 -0.1132
 4514SOL    HW118353   5.295   1.775   7.058  0.0071 -0.5816 -0.1734
 4514SOL    HW218354   5.205   1.661   7.100  0.0027 -0.4289  0.2378
 4515SOL     OW18355  11.496   8.064  11.021  0.4526 -0.0057  0.1384
 4515SOL    HW118356  11.519   8.122  10.948 -0.1671  0.1864  0.0863
 4515SOL    HW218357  11.402   8.051  11.011 -0.1409  2.0081  2.3260
 4516SOL     OW18358  11.765   1.359   5.293  0.3872 -0.2280 -0.3822
 4516SOL    HW118359  11.802   1.299   5.229  0.4688 -0.2802 -0.2864
 4516SOL    HW218360  11.825   1.433   5.295 -0.4018  0.4647 -1.4604
 4517SOL     OW18361   2.770   6.734   7.488 -0.3237  0.0535  0.2236
 4517SOL    HW118362   2.730   6.667   7.432  1.8684  1.1059 -2.9243
 4517SOL    HW218363   2.833   6.685   7.541 -0.2036 -0.6469 -0.5346
 4518SOL     OW18364   7.408   0.797   9.484 -0.2273  0.1453  0.6456
 4518SOL    HW118365   7.377   0.839   9.564 -1.1129 -0.9400  0.9085
 4518SOL    HW218366   7.465   0.726   9.515  0.3171  0.4074  0.2625
 4519SOL     OW18367   7.760  10.507   5.314  0.4085 -0.6765  0.4665
 4519SOL    HW118368   7.800  10.522   5.400  1.3289 -2.0039  0.2888
 4519SOL    HW218369   7.824  10.539   5.251 -0.6066  1.0754  0.2361
 4520SOL     OW18370   4.713  12.236   4.843 -0.7014 -0.0219 -0.5239
 4520SOL    HW118371   4.791  12.251   4.788  0.2521 -1.8720  0.2251
 4520SOL    HW218372   4.665  12.167   4.797 -0.9534 -0.1542 -0.0588
 4521SOL     OW18373  10.628   3.563   2.313 -0.7815 -0.3809  0.2701
 4521SOL    HW118374  10.698   3.602   2.261 -2.3783  1.8011 -0.3914
 4521SOL    HW218375  10.664   3.558   2.402  1.1493 -1.9649 -0.5331
 4522SOL     OW18376   7.788   0.888  10.484 -0.0250  0.0315 -0.0844
 4522SOL    HW118377   7.783   0.965  10.428  0.6752 -0.0532 -0.2711
 4522SOL    HW218378   7.756   0.917  10.569 -0.7178  0.2631 -0.4137
 4523SOL     OW18379   4.949   0.636   8.505 -0.2079  0.2564  0.1598
 4523SOL    HW118380   5.022   0.642   8.567  1.2087  3.3670 -1.5747
 4523SOL    HW218381   4.874   0.670   8.553  0.4118  0.7915  0.7589
 4524SOL     OW18382   6.506   5.362   3.529 -0.3076  0.5339  0.5947
 4524SOL    HW118383   6.462   5.303   3.590  1.3479 -0.3625  1.0003
 4524SOL    HW218384   6.457   5.353   3.448 -0.9361 -0.3314  1.0484
 4525SOL     OW18385  11.201   4.641  10.928  0.0860  0.1818 -0.2107
 4525SOL    HW118386  11.282   4.635  10.980  0.4125 -0.5546 -0.7811
 4525SOL    HW218387  11.221   4.593  10.848 -0.8812  0.1042 -0.4149
 4526SOL     OW18388   5.228  10.434   5.913  0.8981  0.0957  0.3366
 4526SOL    HW118389   5.270  10.389   5.986  0.6025 -0.4611  0.1615
 4526SOL    HW218390   5.213  10.523   5.945 -0.6136 -0.5492  1.4876
 4527SOL     OW18391   7.049   2.728   7.406  0.1172  0.3290 -0.8180
 4527SOL    HW118392   7.046   2.785   7.483 -1.0144 -0.1651 -0.4808
 4527SOL    HW218393   7.141   2.702   7.399 -0.0074 -0.8552  1.2857
 4528SOL     OW18394   0.427  12.053  12.618  0.1164 -0.6156 -0.9353
 4528SOL    HW118395   0.482  12.054  12.540 -1.5663  0.1919 -2.1792
 4528SOL    HW218396   0.418  11.960  12.639  3.4690 -0.7711  0.5343
 4529SOL     OW18397   8.712   0.852  11.627  1.4621 -0.6263  0.2388
 4529SOL    HW118398   8.777   0.892  11.570  0.3027  1.6591  0.3893
 4529SOL    HW218399   8.648   0.922  11.643 -0.9142 -2.6838  0.2691
 4530SOL     OW18400   6.035  11.664  12.429  0.0956 -0.3966  0.0479
 4530SOL    HW118401   6.036  11.666  12.524  0.2646  0.3798  0.0397
 4530SOL    HW218402   6.127  11.678  12.404 -0.3133  2.3438 -0.2298
 4531SOL     OW18403   5.726   6.750  10.835 -0.7773  0.3893  0.1443
 4531SOL    HW118404   5.813   6.751  10.796 -1.6340  0.3495 -1.9275
 4531SOL    HW218405   5.668   6.720  10.764 -2.6210  1.4983  1.0900
 4532SOL     OW18406   8.333   0.485   6.945 -0.0486  0.1036  0.3236
 4532SOL    HW118407   8.414   0.441   6.971  0.6299 -0.3079 -2.1878
 4532SOL    HW218408   8.327   0.469   6.851 -2.3683  1.2809  0.2119
 4533SOL     OW18409   3.710   2.822  10.467  0.3976 -0.2235  0.1717
 4533SOL    HW118410   3.706   2.823  10.371  0.1625  1.8712  0.1520
 4533SOL    HW218411   3.623   2.792  10.494 -0.4572  1.6314 -0.3192
 4534SOL     OW18412  10.811  10.168   6.126  0.5213 -0.1303  0.5713
 4534SOL    HW118413  10.833  10.250   6.169 -0.3861 -0.0716  0.9357
 4534SOL    HW218414  10.850  10.176   6.039  0.6409  0.5863  0.6827
 4535SOL     OW18415   7.599   5.323   4.936  0.3325 -0.1057  0.0564
 4535SOL    HW118416   7.545   5.320   4.857  1.6057 -0.0828 -0.8377
 4535SOL    HW218417   7.689   5.327   4.904  1.0141 -2.2647  1.5161
 4536SOL     OW18418   6.271   1.747   8.095  0.1997 -0.3565  0.1322
 4536SOL    HW118419   6.278   1.841   8.077  0.4693  0.3794  3.4037
 4536SOL    HW218420   6.353   1.710   8.064  0.0947  0.4624 -1.1948
 4537SOL     OW18421   9.755  11.291  10.548  0.1128 -0.4833  0.4350
 4537SOL    HW118422   9.782  11.375  10.511 -2.1092 -0.6448 -1.7847
 4537SOL    HW218423   9.827  11.231  10.527  0.4091  0.2264 -0.6454
 4538SOL     OW18424   7.231   0.480  11.746 -0.1296  0.2629  0.2883
 4538SOL    HW118425   7.316   0.445  11.719  0.4235  1.5976  0.1855
 4538SOL    HW218426   7.243   0.502  11.838 -0.9068 -1.0673  0.7221
 4539SOL     OW18427   5.599   0.785  10.555  0.1142 -0.3529 -0.2689
 4539SOL    HW118428   5.587   0.693  10.532 -0.6540 -0.0849 -0.9703
 4539SOL    HW218429   5.511   0.823  10.553  0.3484  0.2740  0.5872
 4540SOL     OW18430  11.048  10.263   3.578 -1.1179  0.3278  0.2443
 4540SOL    HW118431  11.084  10.175   3.570  1.3928  1.2557  0.3499
 4540SOL    HW218432  11.082  10.295   3.662 -0.8588  1.8457 -0.4011
 4541SOL     OW18433   0.070  10.320   7.782  0.0160  0.2682 -0.3739
 4541SOL    HW118434   0.125  10.377   7.729  1.0236  0.7156  1.0783
 4541SOL    HW218435   0.025  10.381   7.842 -0.3548 -0.2996 -0.0694
 4542SOL     OW18436   8.282   5.698   1.395  0.7703 -0.2904 -0.0774
 4542SOL    HW118437   8.342   5.647   1.449  1.0922 -1.0161 -1.0777
 4542SOL    HW218438   8.204   5.708   1.449  0.8788 -1.4460  0.3254
 4543SOL     OW18439   9.841   9.194  12.234 -0.1480 -0.4821  0.2117
 4543SOL    HW118440   9.936   9.202  12.223 -0.0354 -0.9395  0.8016
 4543SOL    HW218441   9.811   9.160  12.150  0.0420  0.7983 -0.4153
 4544SOL     OW18442   4.142  12.236   8.321  0.5827  0.5460  0.2371
 4544SOL    HW118443   4.153  12.223   8.227 -0.5746  2.1392 -0.1436
 4544SOL    HW218444   4.164  12.151   8.359 -0.3899 -0.5913 -1.5894
 4545SOL     OW18445   4.215   8.593   2.114 -0.1864  0.3337  0.0673
 4545SOL    HW118446   4.180   8.504   2.107 -3.4322  1.4718  0.1243
 4545SOL    HW218447   4.243   8.615   2.024  2.3765 -1.2563  0.3699
 4546SOL     OW18448   0.985   1.812   0.160 -0.2961 -0.3662 -0.2685
 4546SOL    HW118449   0.974   1.806   0.255 -1.5128 -1.5242 -0.4431
 4546SOL    HW218450   0.895   1.811   0.126  0.1299 -0.1825 -1.4501
 4547SOL     OW18451   5.331   8.537   9.125  0.5836  0.2265 -0.0839
 4547SOL    HW118452   5.313   8.519   9.033  1.7369  0.7818 -0.4217
 4547SOL    HW218453   5.392   8.469   9.152 -0.7364 -0.7325  0.6583
 4548SOL     OW18454   7.767  11.811   6.387  0.2174  0.6263 -0.3283
 4548SOL    HW118455   7.772  11.889   6.331  1.4619 -0.2269 -1.5006
 4548SOL    HW218456   7.851  11.810   6.433 -0.3023  0.6393  0.6470
 4549SOL     OW18457   8.684  11.768   7.821 -0.2871  0.2184 -0.1923
 4549SOL    HW118458   8.723  11.681   7.823 -0.8127 -0.0358 -0.5336
 4549SOL    HW218459   8.685  11.792   7.728 -0.1631  0.5648 -0.1013
 4550SOL     OW18460   2.355  11.042   8.012  0.1217 -0.1755  0.5959
 4550SOL    HW118461   2.275  11.064   7.964  0.3688  1.0121  0.7039
 4550SOL    HW218462   2.420  11.104   7.981  0.6638 -0.3048  1.4322
 4551SOL     OW18463   6.554   4.132   2.048  0.0659 -0.1561  0.1884
 4551SOL    HW118464   6.602   4.143   1.966 -0.0988 -0.1897  0.0869
 4551SOL    HW218465   6.613   4.081   2.103  0.4497  0.4367  0.3300
 4552SOL     OW18466   4.352  11.860   2.411  0.2775 -0.3886 -0.3213
 4552SOL    HW118467   4.282  11.795   2.423 -0.4105  0.2371 -0.8730
 4552SOL    HW218468   4.345  11.918   2.487  1.2161 -1.2243  0.4373
 4553SOL     OW18469   3.914   0.424  10.071 -0.3030 -0.2023 -0.2134
 4553SOL    HW118470   3.967   0.371  10.013 -0.0678  1.8431 -1.9876
 4553SOL    HW218471   3.848   0.463  10.015 -1.1817  0.4695  1.2260
 4554SOL     OW18472   1.528   5.389  12.090  0.3841  0.4689  0.1618
 4554SOL    HW118473   1.461   5.457  12.093  0.5121  0.7065 -1.4156
 4554SOL    HW218474   1.603   5.428  12.136 -0.0949  0.7296  0.7393
 4555SOL     OW18475  11.232   0.332  11.842 -0.4526  0.0649  0.0896
 4555SOL    HW118476  11.188   0.283  11.773  2.6945  0.1456 -2.1801
 4555SOL    HW218477  11.191   0.301  11.923 -1.6123 -3.0109 -1.5116
 4556SOL     OW18478  10.818  10.883   4.476 -0.2540 -0.4177 -0.5416
 4556SOL    HW118479  10.744  10.934   4.509 -0.5529 -0.1654 -1.5554
 4556SOL    HW218480  10.877  10.948   4.438  1.4068 -0.4106  1.8392
 4557SOL     OW18481   2.128   7.058   4.911  0.0229  0.6608  0.2855
 4557SOL    HW118482   2.108   7.130   4.971  0.7267  0.9777  0.1535
 4557SOL    HW218483   2.176   7.100   4.839  0.4959  0.0529  0.2374
 4558SOL     OW18484   0.135   9.342   3.137 -0.3011 -0.9327 -0.3969
 4558SOL    HW118485   0.221   9.319   3.102 -0.4462  0.3499 -1.6732
 4558SOL    HW218486   0.075   9.279   3.097  0.1610 -2.8362  1.6750
 4559SOL     OW18487   1.199   8.799  10.266  0.0845 -0.5448 -0.0473
 4559SOL    HW118488   1.244   8.879  10.238  1.5789 -1.6322 -0.8584
 4559SOL    HW218489   1.125   8.790  10.206  1.4061 -1.1187 -1.6746
 4560SOL     OW18490   0.081  10.518   5.922 -0.5401 -0.0809 -0.4025
 4560SOL    HW118491   0.086  10.594   5.980  1.6218 -0.6821  0.2881
 4560SOL    HW218492  -0.007  10.484   5.934 -1.1320  1.5980  0.2004
 4561SOL     OW18493   1.084   0.382   1.376  0.7678  0.0795  0.5064
 4561SOL    HW118494   1.012   0.381   1.313  1.4537 -0.1900 -0.3023
 4561SOL    HW218495   1.154   0.430   1.331  1.1340  0.2288  1.2252
 4562SOL     OW18496   1.045  11.540   3.139  0.6123 -0.2642  0.1749
 4562SOL    HW118497   1.098  11.539   3.219  2.3391  1.1625 -0.8688
 4562SOL    HW218498   0.977  11.605   3.156 -0.2165 -1.3551  1.1550
 4563SOL     OW18499   3.953  12.602   9.729 -0.4981  0.4130 -0.5414
 4563SOL    HW118500   4.013  12.552   9.674 -0.0245 -0.0390  0.3680
 4563SOL    HW218501   3.994  12.602   9.816 -1.3019  0.9831 -0.1502
 4564SOL     OW18502   4.382   9.530   0.336 -0.3769 -0.5316 -0.2655
 4564SOL    HW118503   4.371   9.592   0.264 -1.6412 -1.9140 -1.3046
 4564SOL    HW218504   4.393   9.586   0.413  1.4719  0.9996 -1.5345
 4565SOL     OW18505   9.526   5.968   9.516 -0.0236  0.1362  0.3598
 4565SOL    HW118506   9.479   5.892   9.480 -0.9697  0.2018  1.4045
 4565SOL    HW218507   9.489   6.043   9.469  2.7522 -0.1189 -2.6434
 4566SOL     OW18508   7.650   4.369   6.413 -0.0630 -0.0435  0.0570
 4566SOL    HW118509   7.587   4.317   6.464 -1.1142  0.8779 -0.2518
 4566SOL    HW218510   7.673   4.442   6.470  0.2059 -0.0158 -0.0884
 4567SOL     OW18511   1.362  12.382   9.483  0.6799 -0.1554  0.4975
 4567SOL    HW118512   1.390  12.290   9.477  0.0033 -0.3155 -0.2914
 4567SOL    HW218513   1.269  12.378   9.506  0.5977  0.3304  0.2643
 4568SOL     OW18514   9.762   0.747  11.549 -0.1056 -0.0134 -0.5844
 4568SOL    HW118515   9.727   0.707  11.470 -2.3577  2.3841 -0.9580
 4568SOL    HW218516   9.725   0.836  11.549  2.0566  1.0117  1.7364
 4569SOL     OW18517   4.161   3.213   0.636  0.0424 -0.0475  0.2782
 4569SOL    HW118518   4.147   3.305   0.611 -0.0142 -0.2585 -0.4689
 4569SOL    HW218519   4.088   3.194   0.695  0.9563  0.8706  1.7808
 4570SOL     OW18520   8.323   0.073   5.907 -0.4870 -0.7591  0.2032
 4570SOL    HW118521   8.320   0.075   6.003  1.4233 -1.2303  0.3093
 4570SOL    HW218522   8.254   0.011   5.883 -1.1748 -0.4326  1.2524
 4571SOL     OW18523   4.040   0.604   8.039 -0.1277  0.6735 -0.0292
 4571SOL    HW118524   4.029   0.699   8.029  0.0687  0.4185 -4.4165
 4571SOL    HW218525   3.998   0.566   7.962  0.1447 -2.8486  1.3593
 4572SOL     OW18526   8.867  11.771  11.238  0.4536  0.3557 -0.5197
 4572SOL    HW118527   8.825  11.829  11.175  0.8477  0.8878 -0.3101
 4572SOL    HW218528   8.924  11.829  11.289  0.9926 -0.2475 -0.4212
 4573SOL     OW18529  12.612  10.674   5.250  0.3981  0.4907 -0.3921
 4573SOL    HW118530  12.697  10.670   5.293 -0.8010  0.5515  2.1741
 4573SOL    HW218531  12.592  10.582   5.229  0.8910  0.4290 -0.6197
 4574SOL     OW18532   6.004  11.989   9.914  0.4424 -0.0441  0.2642
 4574SOL    HW118533   6.056  12.054   9.962 -0.7142  0.0025  1.5148
 4574SOL    HW218534   6.017  11.907   9.962 -1.0223  0.0843  0.9464
 4575SOL     OW18535   5.513   7.914   0.177  0.1540 -0.0470 -0.2253
 4575SOL    HW118536   5.482   7.883   0.092  0.7441  1.1695 -0.9034
 4575SOL    HW218537   5.600   7.874   0.187  0.2771  0.1761 -0.4027
 4576SOL     OW18538   9.758   8.389   5.421  0.1727  0.3221  0.6448
 4576SOL    HW118539   9.828   8.360   5.362 -0.2689  1.9259 -0.7358
 4576SOL    HW218540   9.677   8.378   5.370 -0.2328  1.6306  0.9627
 4577SOL     OW18541  11.177   9.245  11.509 -0.0406  0.6574 -0.5430
 4577SOL    HW118542  11.156   9.178  11.574 -1.2491 -0.4216 -1.9713
 4577SOL    HW218543  11.272   9.235  11.495 -0.3429 -1.5702 -1.5087
 4578SOL     OW18544   9.223   7.160   8.179 -0.2918  0.5347 -0.2080
 4578SOL    HW118545   9.301   7.199   8.141  1.3763 -0.2829  2.1581
 4578SOL    HW218546   9.172   7.130   8.104  2.1254  0.2056 -1.8054
 4579SOL     OW18547   2.426   5.449  11.429  0.1145  0.1058 -0.6278
 4579SOL    HW118548   2.413   5.400  11.348 -2.9701 -0.0864 -0.1274
 4579SOL    HW218549   2.392   5.536  11.411  1.3294  0.7117 -0.1163
 4580SOL     OW18550   1.001   2.653   1.189 -0.3696  0.2258  0.4242
 4580SOL    HW118551   0.914   2.674   1.156 -0.6125 -1.1278  0.1500
 4580SOL    HW218552   0.994   2.662   1.284 -1.3397 -1.6202  0.5647
 4581SOL     OW18553   5.755   5.498   3.254  0.0500 -0.3623  0.6698
 4581SOL    HW118554   5.698   5.430   3.219  1.5250 -1.7425  0.8562
 4581SOL    HW218555   5.813   5.521   3.182 -0.7301  1.1004  0.4552
 4582SOL     OW18556   4.223   4.623   6.007 -0.5345 -0.4260  0.3483
 4582SOL    HW118557   4.270   4.613   5.925  0.0209  0.5276  0.5320
 4582SOL    HW218558   4.138   4.660   5.982 -0.1465  0.4187  0.2364
 4583SOL     OW18559   6.377  11.931   7.764  0.2490 -0.0602 -0.5624
 4583SOL    HW118560   6.358  11.867   7.832 -3.3331  0.8314 -0.5117
 4583SOL    HW218561   6.470  11.950   7.774  0.4556 -1.9681  2.2688
 4584SOL     OW18562   1.916   4.620  11.600  0.0152 -1.2860 -0.0698
 4584SOL    HW118563   1.821   4.631  11.595  0.1602 -0.0234 -0.3966
 4584SOL    HW218564   1.937   4.630  11.692 -0.0447 -0.4111 -0.1499
 4585SOL     OW18565   5.753   0.563   9.903 -0.4083  0.5938 -0.4938
 4585SOL    HW118566   5.777   0.473   9.924 -1.3616  0.3626 -0.3496
 4585SOL    HW218567   5.763   0.568   9.808 -3.0897 -0.5510 -0.9241
 4586SOL     OW18568  11.362   7.568   3.094  0.2331 -0.4402 -0.6936
 4586SOL    HW118569  11.339   7.660   3.077 -1.0492 -0.6159 -0.0452
 4586SOL    HW218570  11.282   7.519   3.075  0.8258 -1.4074 -0.7840
 4587SOL     OW18571   7.562   6.205  10.894  0.0242  0.4506 -0.2130
 4587SOL    HW118572   7.553   6.278  10.955  1.0344  0.8879 -0.5781
 4587SOL    HW218573   7.599   6.244  10.815  1.9251 -0.6597  0.0619
 4588SOL     OW18574  10.796   2.323   8.000 -0.3745  0.2982  0.1857
 4588SOL    HW118575  10.810   2.231   8.024  3.3254  0.8054  0.5677
 4588SOL    HW218576  10.799   2.370   8.084 -0.5874  0.8982 -0.1377
 4589SOL     OW18577   7.340   5.371   4.496 -1.0730 -0.0051  0.2714
 4589SOL    HW118578   7.263   5.428   4.495 -0.4667  0.9422 -2.5643
 4589SOL    HW218579   7.343   5.333   4.408  1.4997 -0.2721  0.3867
 4590SOL     OW18580   6.769   0.702   6.409  0.8019  0.0809  0.2301
 4590SOL    HW118581   6.794   0.713   6.318 -0.3107 -1.2056 -0.2549
 4590SOL    HW218582   6.714   0.624   6.410 -1.1650  1.3923  1.6133
 4591SOL     OW18583   1.408   0.105  11.198  0.1128 -0.2727 -0.2386
 4591SOL    HW118584   1.461   0.058  11.262 -0.0120 -1.6873 -1.1063
 4591SOL    HW218585   1.472   0.139  11.135  0.3426  2.1272  1.1739
 4592SOL     OW18586   6.255  10.492   2.173 -0.4794  0.5398 -0.1083
 4592SOL    HW118587   6.339  10.455   2.145  0.4478  2.3654  0.0918
 4592SOL    HW218588   6.241  10.456   2.261  0.0000  0.0756 -0.2149
 4593SOL     OW18589   4.112   2.536   5.302  0.0090  0.1692 -0.3705
 4593SOL    HW118590   4.188   2.563   5.250 -0.6940 -0.9654 -2.0364
 4593SOL    HW218591   4.063   2.616   5.317  1.7130  1.0099  1.1173
 4594SOL     OW18592   2.744   0.839   4.102 -0.4113  0.5224  0.3953
 4594SOL    HW118593   2.660   0.866   4.065  0.6028  1.3549 -1.4530
 4594SOL    HW218594   2.804   0.840   4.027  0.9447 -1.4995  1.3595
 4595SOL     OW18595   6.378   0.826  11.240 -0.1156  0.7741 -0.1260
 4595SOL    HW118596   6.441   0.773  11.289 -0.3717  0.5288 -0.0590
 4595SOL    HW218597   6.298   0.822  11.292  0.2005  2.2197  0.5074
 4596SOL     OW18598   5.795   3.365   5.771  0.1509  0.0248 -0.0863
 4596SOL    HW118599   5.763   3.373   5.681 -0.3734 -0.6536  0.0337
 4596SOL    HW218600   5.846   3.445   5.785 -0.5746  0.6075 -0.6567
 4597SOL     OW18601  10.405   7.907   0.681 -0.3079  0.0781  0.5445
 4597SOL    HW118602  10.494   7.937   0.659 -0.2135  0.0517  0.8911
 4597SOL    HW218603  10.381   7.957   0.758 -0.8596  0.5642  0.0561
 4598SOL     OW18604   8.740  12.183   5.718 -0.4129 -0.4764 -0.2535
 4598SOL    HW118605   8.764  12.212   5.806 -0.8617 -1.7780  0.3255
 4598SOL    HW218606   8.659  12.134   5.729 -0.0645 -1.3469 -1.2595
 4599SOL     OW18607  12.193   1.997  11.388  0.1596 -0.2747 -0.0101
 4599SOL    HW118608  12.278   1.957  11.406 -0.1234 -1.7363 -1.6968
 4599SOL    HW218609  12.132   1.923  11.384 -1.3135  0.7765  1.5848
 4600SOL     OW18610  12.077   9.298   6.378  0.0298 -0.1317  0.0218
 4600SOL    HW118611  11.996   9.323   6.423  0.3046  0.2322  0.3243
 4600SOL    HW218612  12.112   9.227   6.431  0.7096  0.7554  0.8046
 4601SOL     OW18613   1.198  11.288   8.870  0.1408  0.4067  0.2845
 4601SOL    HW118614   1.190  11.223   8.800 -0.7661  2.1148 -1.2711
 4601SOL    HW218615   1.264  11.251   8.929  0.1238 -1.6162 -0.8629
 4602SOL     OW18616   8.163   2.887  11.524  0.5093 -0.3143 -0.1283
 4602SOL    HW118617   8.091   2.915  11.581 -1.0158  0.2789 -2.2081
 4602SOL    HW218618   8.215   2.966  11.511  0.5815 -0.3326  0.0421
 4603SOL     OW18619   9.903   5.425   6.801 -0.3802 -0.0765 -0.2542
 4603SOL    HW118620   9.839   5.386   6.742 -0.7552  0.2913 -0.1015
 4603SOL    HW218621   9.980   5.369   6.795 -1.3876 -1.6681  1.0469
 4604SOL     OW18622   6.188   8.131   3.043 -0.0436 -0.1701 -0.5071
 4604SOL    HW118623   6.112   8.075   3.058 -0.2258 -0.4950 -2.3544
 4604SOL    HW218624   6.151   8.213   3.009  0.3246  0.4654  0.5850
 4605SOL     OW18625  10.467   6.501   0.761  0.3644 -0.0053  0.2672
 4605SOL    HW118626  10.492   6.506   0.853  1.6546 -3.6987  0.3055
 4605SOL    HW218627  10.549   6.512   0.713  0.4789 -2.0978 -0.1403
 4606SOL     OW18628   8.691   4.972   1.386  0.2458  0.6854  0.1217
 4606SOL    HW118629   8.604   5.013   1.390 -0.6214 -1.0500  0.1090
 4606SOL    HW218630   8.692   4.928   1.302  0.1356 -1.3527  1.1318
 4607SOL     OW18631  12.133   6.050   8.556  0.3179 -0.4956 -0.4701
 4607SOL    HW118632  12.059   6.024   8.609  2.0698 -0.5344  2.1283
 4607SOL    HW218633  12.159   5.969   8.511 -0.0224 -0.9583  0.1461
 4608SOL     OW18634   8.931   0.559   4.698  0.2121 -0.1072 -0.0502
 4608SOL    HW118635   8.983   0.588   4.773  2.3931 -1.7877 -0.7976
 4608SOL    HW218636   8.953   0.621   4.628  1.8081 -1.1401 -0.5329
 4609SOL     OW18637   9.626   1.570   6.186 -0.5956 -0.2714 -0.6016
 4609SOL    HW118638   9.530   1.573   6.190 -0.5393  0.9648  0.2738
 4609SOL    HW218639   9.650   1.497   6.243 -0.9978 -0.0822 -0.1764
 4610SOL     OW18640   7.605  11.988   2.823  0.4478 -0.0702 -0.4232
 4610SOL    HW118641   7.530  12.034   2.785  0.7343  1.1658  0.4600
 4610SOL    HW218642   7.654  11.957   2.747 -0.7078 -0.5044 -1.0145
 4611SOL     OW18643  10.136   8.927   3.443 -0.5471 -0.3217 -0.0040
 4611SOL    HW118644  10.083   8.923   3.363 -1.4256 -2.6852  0.6157
 4611SOL    HW218645  10.209   8.867   3.427 -0.2034 -0.0846  0.6207
 4612SOL     OW18646   3.645  10.886   6.670  0.0455 -0.3253 -0.1205
 4612SOL    HW118647   3.699  10.962   6.688 -0.0453 -0.2216 -0.2845
 4612SOL    HW218648   3.579  10.886   6.739 -0.2339  0.0095 -0.3780
 4613SOL     OW18649   9.624  10.636   5.692 -0.2257 -0.0813  0.7276
 4613SOL    HW118650   9.708  10.675   5.666  0.2983 -0.3727  1.8702
 4613SOL    HW218651   9.648  10.550   5.728 -1.0745 -0.3762  0.6068
 4614SOL     OW18652   7.677   2.042   3.458  0.1080 -0.2128  0.1295
 4614SOL    HW118653   7.737   1.995   3.400 -0.2372  0.7232 -1.0175
 4614SOL    HW218654   7.595   2.047   3.408 -0.3645  0.1431  0.9259
 4615SOL     OW18655   0.167   1.826   0.268  0.6513 -0.3056 -0.1038
 4615SOL    HW118656   0.072   1.832   0.258  0.8620 -0.5160 -3.0926
 4615SOL    HW218657   0.190   1.895   0.329 -1.3970 -0.1245  0.5197
 4616SOL     OW18658   8.049  10.100  12.141  0.1004  0.1108 -0.3390
 4616SOL    HW118659   8.052  10.172  12.203 -0.4549 -0.1468 -0.0130
 4616SOL    HW218660   7.974  10.118  12.085 -0.0159 -0.1941 -0.2841
 4617SOL     OW18661  12.619   9.515  11.655  0.3840  0.3357  0.3435
 4617SOL    HW118662  12.617   9.434  11.707  2.0789  1.0118  1.5330
 4617SOL    HW218663  12.610   9.486  11.564 -0.3737 -1.0588  0.8377
 4618SOL     OW18664   0.359   6.915   7.025  0.1686 -0.0628  0.3971
 4618SOL    HW118665   0.299   6.867   6.968 -0.7908 -0.1315  1.4386
 4618SOL    HW218666   0.307   6.937   7.102  0.6790  2.3307  0.1312
 4619SOL     OW18667   4.386   1.004   9.347  0.3454  0.3455 -0.1303
 4619SOL    HW118668   4.402   1.064   9.274  2.0015  0.6125  0.3961
 4619SOL    HW218669   4.326   0.938   9.313  1.0138  0.5205 -1.7053
 4620SOL     OW18670   3.082   8.799   6.179  0.0643  0.0878 -0.3968
 4620SOL    HW118671   3.050   8.845   6.256  1.8538  0.0643  0.4052
 4620SOL    HW218672   3.176   8.786   6.196  0.7224  0.9126 -2.9744
 4621SOL     OW18673  12.477   7.508  11.532  0.1380  0.6347 -0.2845
 4621SOL    HW118674  12.393   7.535  11.494 -0.1589 -0.7670 -0.6582
 4621SOL    HW218675  12.532   7.586  11.524 -0.7822  1.2381 -1.0458
 4622SOL     OW18676   8.762   3.380  12.324  0.0214 -0.2448 -0.3215
 4622SOL    HW118677   8.752   3.396  12.231  1.4819  0.0938 -0.4440
 4622SOL    HW218678   8.788   3.465  12.361  0.0134 -0.5050  0.3026
 4623SOL     OW18679   6.252   5.742  10.232 -0.4446 -0.3107  0.0766
 4623SOL    HW118680   6.172   5.690  10.223 -0.8333 -0.0078  1.5581
 4623SOL    HW218681   6.323   5.678  10.232 -0.6788 -0.5965 -1.0289
 4624SOL     OW18682   6.522  11.986  11.008 -0.5814  0.0310 -0.2052
 4624SOL    HW118683   6.532  12.047  11.081 -2.9771 -1.5780  1.6355
 4624SOL    HW218684   6.470  12.034  10.943  0.5649  1.0809 -0.3771
 4625SOL     OW18685   8.086   5.941   6.318 -0.8299  0.3796 -0.0343
 4625SOL    HW118686   8.034   6.001   6.372 -1.5767  1.2479 -1.6487
 4625SOL    HW218687   8.176   5.970   6.330 -1.2372  2.4330 -1.4016
 4626SOL     OW18688   7.928   2.281   6.840 -0.2112 -0.1285  0.7320
 4626SOL    HW118689   8.010   2.273   6.888  0.1856 -0.3210  0.0371
 4626SOL    HW218690   7.951   2.329   6.761 -1.0573  1.1070  1.1961
 4627SOL     OW18691   4.169   0.155   7.165  0.4980 -0.4567  0.1869
 4627SOL    HW118692   4.089   0.141   7.216 -0.3721 -2.0453 -1.4949
 4627SOL    HW218693   4.140   0.206   7.089  1.9614  2.7966  1.6524
 4628SOL     OW18694  12.548   9.724   9.665  0.4529  1.0052  0.3425
 4628SOL    HW118695  12.624   9.666   9.664  1.4688  2.2666 -1.6086
 4628SOL    HW218696  12.536   9.749   9.573 -2.3227  0.8775  0.5957
 4629SOL     OW18697   5.851   1.632   7.129 -0.2568 -0.3107 -0.5937
 4629SOL    HW118698   5.791   1.628   7.204  0.7612 -0.8409  0.2142
 4629SOL    HW218699   5.801   1.677   7.060 -1.0623  0.5598  0.5301
 4630SOL     OW18700   9.154   8.209   2.519  0.2559  0.5471  0.0252
 4630SOL    HW118701   9.227   8.149   2.510 -1.0899 -1.5969  2.1646
 4630SOL    HW218702   9.195   8.296   2.527  2.6853 -0.6573  2.1702
 4631SOL     OW18703   8.781   2.185   2.062 -0.9448  0.3168  0.0699
 4631SOL    HW118704   8.793   2.095   2.092  1.3639  0.5026 -0.0726
 4631SOL    HW218705   8.699   2.183   2.012  0.2159 -2.3276 -1.9992
 4632SOL     OW18706   7.719  10.677   0.827 -0.3964 -0.6668  0.3266
 4632SOL    HW118707   7.727  10.770   0.849 -2.1229 -0.6324  0.9575
 4632SOL    HW218708   7.793  10.636   0.871 -0.1232  0.2912  0.7922
 4633SOL     OW18709   1.333   1.171   8.913 -0.1332  0.0613  0.2565
 4633SOL    HW118710   1.398   1.221   8.962  2.1077 -1.6754 -0.7454
 4633SOL    HW218711   1.377   1.148   8.831 -1.9584 -1.3679 -0.3956
 4634SOL     OW18712   8.286   5.661  11.028 -0.0389 -0.2929 -0.1826
 4634SOL    HW118713   8.332   5.591  10.981 -0.8265 -0.4168 -0.7936
 4634SOL    HW218714   8.195   5.653  11.000 -0.8052 -1.1639  2.3066
 4635SOL     OW18715   4.174   8.890   1.805 -0.0346 -0.0673 -0.3449
 4635SOL    HW118716   4.240   8.958   1.817  0.2101 -0.5528  1.2907
 4635SOL    HW218717   4.151   8.895   1.712  0.7220  1.5427 -0.4807
 4636SOL     OW18718   6.959  10.831   9.986 -0.2632 -0.1199 -0.1881
 4636SOL    HW118719   6.992  10.821  10.075  0.3756  0.7972 -0.3079
 4636SOL    HW218720   6.876  10.878   9.996 -0.7724 -1.0388 -0.0022
 4637SOL     OW18721   3.004   6.935   9.622  0.6183  0.0667  0.4013
 4637SOL    HW118722   3.083   6.965   9.668  0.6368 -0.2282  0.5608
 4637SOL    HW218723   3.029   6.936   9.530 -0.0652  2.7312  0.1491
 4638SOL     OW18724   5.451   3.204  11.988 -0.5205 -0.2368  0.3484
 4638SOL    HW118725   5.506   3.126  11.984  0.1873  0.1835  1.3234
 4638SOL    HW218726   5.414   3.202  12.077 -1.9195 -0.3899 -0.2120
 4639SOL     OW18727   6.633   6.398   4.328 -0.9252  0.1685  0.1941
 4639SOL    HW118728   6.614   6.304   4.327 -1.9647  0.3283 -2.0242
 4639SOL    HW218729   6.723   6.404   4.360 -0.8058 -1.5786  0.2902
 4640SOL     OW18730   2.120   2.662   3.119 -0.3833  0.4284 -0.3289
 4640SOL    HW118731   2.155   2.751   3.125  0.3981  0.0671  1.0107
 4640SOL    HW218732   2.170   2.622   3.048 -0.2878  0.8724 -0.5144
 4641SOL     OW18733   2.468   3.682   3.700  0.2336 -0.4268  0.2551
 4641SOL    HW118734   2.450   3.636   3.782  0.0782 -1.4382 -0.3239
 4641SOL    HW218735   2.470   3.613   3.634 -0.1198  0.4274 -0.6708
 4642SOL     OW18736   4.823   7.313  11.424 -0.3315 -0.5683 -0.3573
 4642SOL    HW118737   4.730   7.291  11.435 -0.8096  0.0889 -2.5756
 4642SOL    HW218738   4.836   7.314  11.330  1.9257 -0.4931 -0.0896
 4643SOL     OW18739   4.622   8.359   2.321 -0.2368  0.1225  0.1383
 4643SOL    HW118740   4.668   8.289   2.275 -0.5293 -0.4684  0.7411
 4643SOL    HW218741   4.595   8.420   2.251 -1.1177 -1.0053 -0.5347
 4644SOL     OW18742   2.955   8.163   7.161 -0.1075 -0.6326 -0.0653
 4644SOL    HW118743   3.014   8.225   7.118 -0.0836 -1.5518 -1.4235
 4644SOL    HW218744   2.867   8.195   7.138 -0.0958 -1.0401 -0.6983
 4645SOL     OW18745   8.006   6.005  11.347  0.2120  0.1069 -0.3615
 4645SOL    HW118746   8.024   5.932  11.406 -1.8651 -0.9485 -0.9139
 4645SOL    HW218747   7.923   6.041  11.379  0.8182  1.7657 -0.5665
 4646SOL     OW18748   6.951  11.077  10.936  0.4399 -0.3255 -0.0854
 4646SOL    HW118749   7.004  11.093  10.859  0.6750 -0.2873  0.0835
 4646SOL    HW218750   6.866  11.047  10.902  0.8443 -1.2115 -0.3341
 4647SOL     OW18751   9.344  10.859   8.221  0.0017  0.1524 -0.1343
 4647SOL    HW118752   9.392  10.886   8.300  0.9040  1.4016 -1.0591
 4647SOL    HW218753   9.403  10.798   8.177 -0.9554 -1.3870  0.6714
 4648SOL     OW18754   5.799   7.131   6.104  0.1068  0.0088 -0.0275
 4648SOL    HW118755   5.739   7.169   6.039  0.3817 -1.1123 -0.9645
 4648SOL    HW218756   5.742   7.108   6.177 -0.1734  1.4977  0.2677
 4649SOL     OW18757   8.806   5.332   7.332 -0.2233 -0.4245 -0.6222
 4649SOL    HW118758   8.763   5.285   7.261 -0.2822 -1.3983  0.0309
 4649SOL    HW218759   8.893   5.353   7.298  0.1422 -1.8374 -0.6382
 4650SOL     OW18760   2.314   6.197  10.883  0.7113  0.2389  0.2064
 4650SOL    HW118761   2.280   6.109  10.867  2.5312 -0.5616  0.4773
 4650SOL    HW218762   2.256   6.233  10.950  0.1126 -0.8682  0.3106
 4651SOL     OW18763   0.071   1.251   9.329 -0.4510  0.0147 -0.1396
 4651SOL    HW118764  -0.016   1.255   9.290 -0.5027  1.1317  0.0600
 4651SOL    HW218765   0.080   1.334   9.376  0.2569 -0.5942  0.8321
 4652SOL     OW18766   4.947   1.816   9.118 -0.3233  0.7588 -0.4834
 4652SOL    HW118767   4.956   1.833   9.024  2.4791 -0.7308 -0.5805
 4652SOL    HW218768   4.938   1.721   9.125 -3.6851  1.0064  0.6889
 4653SOL     OW18769   6.302  10.704   9.249 -0.7819 -0.0435  0.2049
 4653SOL    HW118770   6.243  10.734   9.319  1.4883  0.3437  2.0699
 4653SOL    HW218771   6.243  10.663   9.185 -2.9679 -1.2273  2.7309
 4654SOL     OW18772   9.626   6.899   6.088 -0.3137 -0.3152 -0.3107
 4654SOL    HW118773   9.642   6.930   6.177 -0.7805 -0.2685 -0.2383
 4654SOL    HW218774   9.532   6.877   6.087 -0.5942  0.8407 -1.1347
 4655SOL     OW18775   3.847  10.465  11.111 -0.0886 -0.4740 -0.1282
 4655SOL    HW118776   3.791  10.543  11.116  2.0048  1.0600  1.0970
 4655SOL    HW218777   3.915  10.480  11.177 -0.2025 -3.8831  0.9866
 4656SOL     OW18778  12.427  10.547   6.160 -0.2207 -0.1976  0.5168
 4656SOL    HW118779  12.340  10.532   6.197 -0.8750  2.7083  0.4444
 4656SOL    HW218780  12.434  10.484   6.088 -1.3907 -1.8572  1.7692
 4657SOL     OW18781  10.743   8.259   4.161  0.0852  0.6687 -0.4695
 4657SOL    HW118782  10.757   8.188   4.223 -1.0833  0.3987 -0.4999
 4657SOL    HW218783  10.708   8.217   4.083 -0.7333  1.2735 -0.4430
 4658SOL     OW18784   6.421  11.528   0.911  0.5850  0.4122  0.8959
 4658SOL    HW118785   6.438  11.504   1.001  1.6615 -2.0757  0.1097
 4658SOL    HW218786   6.495  11.493   0.861 -1.3565 -0.9147 -1.2805
 4659SOL     OW18787   1.583   1.751  10.203 -0.0961  0.2143 -0.1931
 4659SOL    HW118788   1.575   1.831  10.150 -0.4230  1.9558  2.2649
 4659SOL    HW218789   1.551   1.681  10.147  0.6085  1.7379 -2.6262
 4660SOL     OW18790  10.639   8.325   9.097  0.7196  0.1045  0.1248
 4660SOL    HW118791  10.569   8.278   9.051 -0.1380 -0.0928  1.5625
 4660SOL    HW218792  10.593   8.392   9.149  1.7136  0.8308  0.0972
 4661SOL     OW18793   9.162   6.552   7.173  0.0176 -0.4951 -0.2229
 4661SOL    HW118794   9.143   6.538   7.081  1.1560 -0.2426 -0.5077
 4661SOL    HW218795   9.106   6.626   7.198 -0.2624 -0.5372 -0.7218
 4662SOL     OW18796  12.189   3.753  11.951  0.0466 -0.7363  0.0473
 4662SOL    HW118797  12.107   3.793  11.980  0.9095 -0.3646  2.1541
 4662SOL    HW218798  12.211   3.798  11.870  0.7202  2.9040  2.0465
 4663SOL     OW18799   5.899   2.778   2.082  0.5120 -0.3752 -0.1759
 4663SOL    HW118800   5.955   2.804   2.155 -0.0936 -0.1967  0.2254
 4663SOL    HW218801   5.821   2.741   2.123 -0.3752  0.8576 -0.7034
 4664SOL     OW18802   6.207   5.741   2.996 -0.0612 -0.1246 -0.5715
 4664SOL    HW118803   6.229   5.716   2.906  0.7696  1.4502 -0.8430
 4664SOL    HW218804   6.126   5.791   2.988  0.1842  0.2883 -0.4822
 4665SOL     OW18805   1.459   5.492   7.061  0.4838 -0.3308  0.2324
 4665SOL    HW118806   1.364   5.489   7.049  0.6520 -1.3935 -1.1461
 4665SOL    HW218807   1.483   5.403   7.083  1.1350  0.0215  0.9899
 4666SOL     OW18808   8.831   5.942   0.879  0.7408 -0.3251  0.0681
 4666SOL    HW118809   8.740   5.913   0.890  0.8729 -0.2500  1.5961
 4666SOL    HW218810   8.866   5.943   0.968  2.1282  0.0336 -0.4659
 4667SOL     OW18811  10.223   7.007   8.526  0.4184 -0.0120  0.4062
 4667SOL    HW118812  10.275   7.043   8.598 -0.0412 -0.6825  1.0853
 4667SOL    HW218813  10.217   6.913   8.545 -0.7935  0.0056  0.2006
 4668SOL     OW18814   3.964   3.837   4.236  0.4722 -0.0549 -0.2918
 4668SOL    HW118815   3.935   3.927   4.253  1.3011 -0.0166  1.0789
 4668SOL    HW218816   3.886   3.793   4.202 -0.7643  0.4912  1.6762
 4669SOL     OW18817   0.401   4.805   6.589  0.9814 -0.4317 -0.2160
 4669SOL    HW118818   0.485   4.767   6.563  1.4986  1.4158 -1.5228
 4669SOL    HW218819   0.425   4.890   6.628 -0.2890  0.5646 -1.5057
 4670SOL     OW18820   4.109   7.110   8.658  0.1354  0.0911 -0.4506
 4670SOL    HW118821   4.030   7.066   8.691  0.2350 -1.2336 -1.8673
 4670SOL    HW218822   4.182   7.062   8.700  0.2669 -1.6921 -2.5525
 4671SOL     OW18823   3.270   3.022   6.563 -0.1688 -0.5251  0.1617
 4671SOL    HW118824   3.304   3.099   6.517  0.2967 -0.5530  0.4539
 4671SOL    HW218825   3.200   3.057   6.618 -0.4398 -0.4248 -0.2406
 4672SOL     OW18826  11.758   5.652  12.049 -0.0669 -0.1560 -0.2389
 4672SOL    HW118827  11.754   5.558  12.068 -2.1716  0.2804  2.1835
 4672SOL    HW218828  11.702   5.663  11.972 -0.0377 -0.8539 -0.3683
 4673SOL     OW18829   6.326   8.264   6.096 -0.2260 -0.1134 -0.1473
 4673SOL    HW118830   6.292   8.353   6.106  1.3147  0.6902 -1.6454
 4673SOL    HW218831   6.420   8.272   6.110  0.2292 -1.1267 -2.2156
 4674SOL     OW18832  11.063   4.060  10.360 -0.0390 -0.0798  0.2114
 4674SOL    HW118833  11.136   4.003  10.334  0.0352 -0.4036  1.1192
 4674SOL    HW218834  10.985   4.006  10.348  0.0078 -0.2846  0.7868
 4675SOL     OW18835   0.658  11.943   1.937  0.3860 -0.0232  0.0478
 4675SOL    HW118836   0.576  11.928   1.983  0.1222  0.3739 -0.2889
 4675SOL    HW218837   0.662  11.875   1.870  1.9526 -2.1920  2.1926
 4676SOL     OW18838  10.456   6.581   1.833  0.5362 -0.1456  0.4168
 4676SOL    HW118839  10.363   6.601   1.833  0.3579 -0.9019  1.1927
 4676SOL    HW218840  10.499   6.666   1.844 -0.1448  0.0075  2.3075
 4677SOL     OW18841   3.247   4.977   2.736 -0.1611 -0.0189  0.1183
 4677SOL    HW118842   3.230   4.936   2.652  0.4267 -1.8688  0.8592
 4677SOL    HW218843   3.160   4.991   2.774 -0.3615 -1.2824  0.1563
 4678SOL     OW18844   4.649   5.537  11.688  0.2763  0.1903  0.2568
 4678SOL    HW118845   4.629   5.519  11.780  0.2406  0.6827  0.3517
 4678SOL    HW218846   4.597   5.616  11.668 -0.0163 -0.1342 -0.2941
 4679SOL     OW18847   1.116   8.440   0.056 -0.0092  0.6191 -0.0624
 4679SOL    HW118848   1.079   8.367   0.006 -2.7622  1.9593 -0.1922
 4679SOL    HW218849   1.197   8.462   0.010  0.8084 -2.1692 -0.1190
 4680SOL     OW18850   2.974  11.494  12.499  0.2519 -0.1708 -0.0892
 4680SOL    HW118851   3.017  11.438  12.564 -1.8964  0.0321  1.6047
 4680SOL    HW218852   2.945  11.570  12.549  0.7601  1.2349 -1.8265
 4681SOL     OW18853   6.135   9.285   2.880 -0.0550  0.5302 -0.1137
 4681SOL    HW118854   6.103   9.312   2.966 -0.1475  1.6696 -0.4836
 4681SOL    HW218855   6.167   9.196   2.893 -1.4956  0.1026  0.7296
 4682SOL     OW18856  11.382  10.326  11.362  0.3667 -0.0997  0.1811
 4682SOL    HW118857  11.429  10.246  11.387  0.4483 -0.2520 -0.4396
 4682SOL    HW218858  11.452  10.390  11.344  0.2980  0.2152  0.9807
 4683SOL     OW18859   7.112   6.570   5.109 -0.5602  0.6084  0.0700
 4683SOL    HW118860   7.157   6.506   5.165 -1.7332  0.1516  0.5346
 4683SOL    HW218861   7.170   6.582   5.034 -0.3413 -1.0921 -0.0836
 4684SOL     OW18862   9.543   0.047   7.023 -0.1565  0.3962 -0.1531
 4684SOL    HW118863   9.511   0.093   6.945 -0.4532  1.5756  0.6431
 4684SOL    HW218864   9.523  -0.045   7.006 -0.4332  0.6578 -1.3628
 4685SOL     OW18865   4.486   1.147  11.151 -0.6706 -0.0290 -0.4691
 4685SOL    HW118866   4.572   1.181  11.179 -0.9308  0.1313  0.1504
 4685SOL    HW218867   4.507   1.087  11.080 -0.2498  2.0082 -2.1573
 4686SOL     OW18868   5.882   3.702   0.740  0.7056  0.2032  0.7805
 4686SOL    HW118869   5.971   3.735   0.728  0.3521  1.2636  1.0378
 4686SOL    HW218870   5.841   3.762   0.802 -0.5557  0.4055 -0.1874
 4687SOL     OW18871   4.798   1.162   3.346 -0.3122  0.1619  0.1310
 4687SOL    HW118872   4.793   1.206   3.261 -0.1820  0.7330  0.4159
 4687SOL    HW218873   4.884   1.186   3.381  0.0786 -0.9456 -0.0458
 4688SOL     OW18874   5.815   2.011   8.115 -0.5624  0.2692 -0.5108
 4688SOL    HW118875   5.908   2.011   8.134 -0.6556 -0.9606  0.0799
 4688SOL    HW218876   5.777   2.068   8.182 -0.1890  1.1886 -1.0723
 4689SOL     OW18877   9.805   2.530   5.563 -0.2046  0.4580  0.5879
 4689SOL    HW118878   9.858   2.451   5.575 -0.0477  0.6193  0.9492
 4689SOL    HW218879   9.726   2.514   5.615 -0.8685 -0.1095 -0.5573
 4690SOL     OW18880   6.543   0.374   1.906  0.2596 -0.3202  0.1735
 4690SOL    HW118881   6.625   0.378   1.856  0.5934  1.6284  0.8030
 4690SOL    HW218882   6.509   0.286   1.890  0.9936 -0.1982 -2.4431
 4691SOL     OW18883   2.617   5.524   8.237  0.0147  0.1052  0.0452
 4691SOL    HW118884   2.530   5.545   8.272  0.9104 -0.1126  2.6325
 4691SOL    HW218885   2.632   5.590   8.169 -1.8630  0.5986  0.0530
 4692SOL     OW18886   0.630   9.559  11.416 -0.1611 -0.1472 -0.1139
 4692SOL    HW118887   0.667   9.617  11.483 -0.5268 -0.2220  0.1530
 4692SOL    HW218888   0.678   9.582  11.337  1.3966 -1.1338  0.4787
 4693SOL     OW18889   1.193  11.200   1.109 -0.1462 -0.2794 -0.3725
 4693SOL    HW118890   1.203  11.157   1.194  0.1369  0.7950  0.1643
 4693SOL    HW218891   1.135  11.143   1.060  0.9406 -1.7371 -0.0426
 4694SOL     OW18892   1.796  11.853   5.568 -0.4404 -0.6963  0.2548
 4694SOL    HW118893   1.852  11.930   5.571 -2.0381  0.4793  2.4859
 4694SOL    HW218894   1.734  11.871   5.497 -2.0566  1.1014  2.0034
 4695SOL     OW18895   6.061   1.039   6.236  0.1973 -0.1443  0.6661
 4695SOL    HW118896   6.052   1.102   6.307 -2.1183 -0.5400  0.8153
 4695SOL    HW218897   5.986   0.980   6.247 -0.0691 -0.3984 -1.9212
 4696SOL     OW18898  10.062   3.238   7.990 -0.3927 -0.3889  0.0710
 4696SOL    HW118899  10.094   3.148   7.996 -2.0863 -0.9321  3.3871
 4696SOL    HW218900   9.967   3.230   7.997 -0.6344  1.6363 -0.2800
 4697SOL     OW18901   2.616   2.514   0.835 -0.1044 -0.6473  0.2129
 4697SOL    HW118902   2.555   2.587   0.844 -1.6932 -1.8557 -0.2018
 4697SOL    HW218903   2.614   2.470   0.920  2.4004  0.8547  1.1589
 4698SOL     OW18904   5.116   2.464   6.283  0.6657  0.1539  0.3887
 4698SOL    HW118905   5.053   2.468   6.212 -0.7141  0.4710  1.5921
 4698SOL    HW218906   5.187   2.523   6.256  0.0677  0.4186 -0.6164
 4699SOL     OW18907   4.595   6.292   0.165 -0.0085  0.0298 -0.1237
 4699SOL    HW118908   4.502   6.315   0.177  0.4609  1.5386  0.9180
 4699SOL    HW218909   4.604   6.280   0.070 -1.1894  0.2292 -0.2822
 4700SOL     OW18910   1.425  12.079   4.406 -0.2240  0.2672  0.3553
 4700SOL    HW118911   1.343  12.122   4.431 -1.4239 -2.4328  1.4501
 4700SOL    HW218912   1.409  12.046   4.318 -0.0459  0.2883  0.3145
 4701SOL     OW18913   7.971   0.029   1.169  0.2325  0.4290  0.1403
 4701SOL    HW118914   7.882   0.014   1.137  0.0215 -0.6344  1.1152
 4701SOL    HW218915   8.023   0.046   1.091 -0.8447  1.1854 -0.4314
 4702SOL     OW18916   3.957   1.046  12.056 -0.1929 -0.1523 -0.4196
 4702SOL    HW118917   3.949   1.064  11.962 -0.0913 -1.1740 -0.6407
 4702SOL    HW218918   3.911   1.118  12.098  0.4880  0.7853 -1.2185
 4703SOL     OW18919   9.480   5.147   2.015  0.7116  0.4148 -0.0777
 4703SOL    HW118920   9.502   5.055   2.024  1.2500  0.5416 -0.0691
 4703SOL    HW218921   9.398   5.157   2.064  2.0654  0.5052  2.3217
 4704SOL     OW18922   3.594   6.401   6.709  0.4524 -0.2029 -0.1780
 4704SOL    HW118923   3.597   6.489   6.671 -0.8213  0.3573  0.9532
 4704SOL    HW218924   3.527   6.355   6.658  0.9430 -0.4667 -0.6047
 4705SOL     OW18925   0.301   5.896   6.058  0.3533  0.4354  0.7123
 4705SOL    HW118926   0.256   5.927   5.980  0.2088 -1.2145  0.1205
 4705SOL    HW218927   0.389   5.934   6.052 -0.0793  1.4246  0.4645
 4706SOL     OW18928   2.322   4.449   9.216  0.0890 -0.1779  0.0523
 4706SOL    HW118929   2.234   4.443   9.179  0.4566  2.1518 -1.4611
 4706SOL    HW218930   2.309   4.483   9.304 -0.5697 -1.3907  0.4467
 4707SOL     OW18931   1.264   2.902   3.338  0.3021 -0.1312  0.3270
 4707SOL    HW118932   1.339   2.935   3.289  0.2007 -0.3904 -0.0110
 4707SOL    HW218933   1.290   2.813   3.365 -0.1404 -0.4825 -0.3770
 4708SOL     OW18934  10.146   6.939  12.038 -0.1612  0.0517 -0.1945
 4708SOL    HW118935  10.157   7.000  11.965 -0.1044 -0.6631 -0.7868
 4708SOL    HW218936  10.222   6.881  12.033 -0.5803 -0.5172 -0.0659
 4709SOL     OW18937   0.142   6.115  11.615  0.1004  0.1480  0.2616
 4709SOL    HW118938   0.116   6.178  11.548  2.2280  1.3716  0.5200
 4709SOL    HW218939   0.071   6.050  11.615 -1.4783  1.7826 -0.9574
 4710SOL     OW18940   3.054   2.146   9.214 -0.2922 -0.4755 -0.2898
 4710SOL    HW118941   3.058   2.053   9.236 -0.2993 -0.0860  1.5545
 4710SOL    HW218942   3.046   2.190   9.299 -0.7004  1.1883 -1.1538
 4711SOL     OW18943   0.012   4.761   6.024  0.0224 -0.2605  0.0863
 4711SOL    HW118944  -0.035   4.744   6.105  1.2283 -1.2310  0.6172
 4711SOL    HW218945   0.010   4.856   6.013 -0.2278 -0.1330  1.2112
 4712SOL     OW18946   7.619  10.564   8.291  0.7992  0.3238 -0.0322
 4712SOL    HW118947   7.607  10.530   8.202  0.5303  0.7647 -0.1694
 4712SOL    HW218948   7.687  10.508   8.329  0.3191 -0.4047 -0.2257
 4713SOL     OW18949   9.787   8.604   7.795  0.2553 -0.5524  0.3527
 4713SOL    HW118950   9.829   8.659   7.728 -0.8182  0.8337  0.7703
 4713SOL    HW218951   9.797   8.515   7.762 -0.5837  0.1040 -1.8990
 4714SOL     OW18952   7.756   0.229   9.071 -0.5099  0.3461  0.1838
 4714SOL    HW118953   7.733   0.249   9.162  1.6343 -1.1528  1.1515
 4714SOL    HW218954   7.844   0.262   9.060 -0.3304 -0.4481 -1.0017
 4715SOL     OW18955   4.988   9.392  10.646 -0.3605 -0.1233  0.1988
 4715SOL    HW118956   4.898   9.421  10.660 -0.5516 -0.5706 -0.0937
 4715SOL    HW218957   5.042   9.467  10.675 -0.8564  0.8429 -1.2780
 4716SOL     OW18958   1.221   2.543   9.566  0.0268  0.1538  0.0876
 4716SOL    HW118959   1.151   2.595   9.606 -0.9914  0.1976 -1.6903
 4716SOL    HW218960   1.260   2.600   9.501 -1.2913 -1.2866 -2.1057
 4717SOL     OW18961   5.039   6.184   1.824 -0.0963  0.2795 -0.6159
 4717SOL    HW118962   4.944   6.177   1.810 -0.1475  2.5551 -2.0734
 4717SOL    HW218963   5.075   6.200   1.737  0.9469  4.5264  0.3348
 4718SOL     OW18964   6.342   8.919   7.398 -0.0225 -0.8648  0.5911
 4718SOL    HW118965   6.319   9.011   7.408 -0.0872 -1.1065  3.6095
 4718SOL    HW218966   6.430   8.920   7.360 -0.1823  0.3903  0.2078
 4719SOL     OW18967  11.229   1.839  11.144  0.5017 -0.0397  0.6336
 4719SOL    HW118968  11.219   1.876  11.057  1.1351 -0.8484  0.1932
 4719SOL    HW218969  11.314   1.871  11.175  0.2557  0.2891  0.9774
 4720SOL     OW18970   7.101  11.521   9.487 -0.3269  0.1985 -0.6258
 4720SOL    HW118971   7.013  11.536   9.520 -0.3392  0.4184 -0.7551
 4720SOL    HW218972   7.103  11.564   9.402 -0.3265 -0.4453 -0.9600
 4721SOL     OW18973   6.898   1.082   0.762 -0.4645  0.1059  0.6980
 4721SOL    HW118974   6.901   0.988   0.740 -0.2366 -0.2067  1.9969
 4721SOL    HW218975   6.950   1.124   0.694  0.0646 -0.8020  0.5272
 4722SOL     OW18976   4.049   8.692   8.606 -0.6694 -0.1258  0.3297
 4722SOL    HW118977   4.136   8.662   8.578 -0.2858  0.7653  0.5403
 4722SOL    HW218978   4.000   8.611   8.621 -0.3957 -0.6433 -1.3802
 4723SOL     OW18979   3.487   9.600  10.888 -0.1554  0.0493 -0.2246
 4723SOL    HW118980   3.549   9.635  10.824 -0.3772 -1.2661 -1.1901
 4723SOL    HW218981   3.495   9.505  10.880 -2.2906 -0.1621 -0.3672
 4724SOL     OW18982   3.027   8.154   1.328  0.7867  0.3106  0.2443
 4724SOL    HW118983   3.079   8.233   1.338  0.6316  0.2868  1.4535
 4724SOL    HW218984   2.939   8.185   1.309  1.4860  0.3476 -3.9980
 4725SOL     OW18985   5.312  12.092  12.442  0.3242 -0.0581  0.2215
 4725SOL    HW118986   5.233  12.132  12.406 -0.4710 -1.8277 -0.1143
 4725SOL    HW218987   5.289  12.071  12.533  1.6315  2.5366  1.2601
 4726SOL     OW18988  12.216   6.094   9.753  0.3695 -0.1814 -0.1069
 4726SOL    HW118989  12.233   6.010   9.798 -1.9076  0.1558  1.5761
 4726SOL    HW218990  12.180   6.069   9.668 -4.1047 -1.2188  1.8001
 4727SOL     OW18991   5.539   1.694   7.194 -0.2158  0.0865 -0.1350
 4727SOL    HW118992   5.571   1.715   7.282 -1.6734  0.4414  0.3309
 4727SOL    HW218993   5.497   1.609   7.204 -0.6012  0.2398 -0.4317
 4728SOL     OW18994   6.670   9.228  10.468  0.4095  0.3452 -0.1987
 4728SOL    HW118995   6.577   9.205  10.460 -0.1641  2.6403 -1.0045
 4728SOL    HW218996   6.674   9.285  10.545  0.8183  1.5273 -1.0556
 4729SOL     OW18997  11.352   8.066   9.957 -0.4193 -0.0081  0.7053
 4729SOL    HW118998  11.424   8.003   9.959  0.2389  0.6507 -0.6297
 4729SOL    HW218999  11.376   8.133  10.020  0.3756  0.4274 -0.0363
 4730SOL     OW19000   6.207   9.211   1.684 -0.4120  0.2839  0.4508
 4730SOL    HW119001   6.213   9.239   1.775 -0.5587 -0.2535  0.6297
 4730SOL    HW219002   6.187   9.117   1.689 -1.9045  0.5377 -0.1297
 4731SOL     OW19003   4.337   7.318   5.402  0.1881  0.5511  0.2442
 4731SOL    HW119004   4.261   7.375   5.406  0.9184  1.5228  0.5073
 4731SOL    HW219005   4.412   7.376   5.410  0.9332 -0.5961  2.2820
 4732SOL     OW19006   6.111   0.840   8.860  0.5197  0.2348 -0.6149
 4732SOL    HW119007   6.133   0.915   8.804  2.7013  1.0065  1.1636
 4732SOL    HW219008   6.023   0.859   8.892  0.3455  1.1497 -1.5799
 4733SOL     OW19009  11.859   0.576   4.734  0.1269  0.6658 -0.2537
 4733SOL    HW119010  11.931   0.603   4.678  0.2848  2.3565  0.6766
 4733SOL    HW219011  11.899   0.563   4.820 -0.0977 -1.9392 -0.4819
 4734SOL     OW19012   7.692   2.434   1.759  0.2683  0.2375 -0.6833
 4734SOL    HW119013   7.639   2.428   1.679  0.1986  0.1068 -0.6285
 4734SOL    HW219014   7.696   2.344   1.791 -0.0690  0.3570 -0.3029
 4735SOL     OW19015   7.519  11.133   9.503 -0.5438  0.5729  0.2438
 4735SOL    HW119016   7.545  11.048   9.468  1.7665  1.2181  0.2740
 4735SOL    HW219017   7.465  11.111   9.580  1.4335 -0.9434  1.3032
 4736SOL     OW19018   7.249   6.571   1.188 -0.1589  0.2886 -0.5817
 4736SOL    HW119019   7.212   6.535   1.108 -1.2943  0.1947 -0.0382
 4736SOL    HW219020   7.342   6.584   1.169 -0.7039  1.8310 -2.4666
 4737SOL     OW19021   4.424   7.692   9.895  0.1880  0.0215  0.1257
 4737SOL    HW119022   4.362   7.620   9.884  0.8221 -0.6426  0.7982
 4737SOL    HW219023   4.509   7.653   9.877  0.3176  1.3551 -2.6994
 4738SOL     OW19024   6.408   6.109   7.594  0.0525  0.2177 -0.3169
 4738SOL    HW119025   6.481   6.171   7.598  0.2543  0.0420 -0.9992
 4738SOL    HW219026   6.406   6.081   7.502 -0.2193 -0.5627 -0.0824
 4739SOL     OW19027   8.763   7.512   8.468 -0.5081 -0.4710  0.2423
 4739SOL    HW119028   8.819   7.543   8.540  1.2821 -0.0215 -1.2585
 4739SOL    HW219029   8.810   7.538   8.389 -3.3226  0.7303 -1.1529
 4740SOL     OW19030   7.900   8.916   6.161 -0.0827 -0.0303  0.2565
 4740SOL    HW119031   7.814   8.877   6.172  0.1285 -0.1198  2.0231
 4740SOL    HW219032   7.910   8.973   6.238  0.3888  2.0477 -1.2690
 4741SOL     OW19033  11.139   0.569   1.174  0.0424  0.3999 -0.2224
 4741SOL    HW119034  11.181   0.647   1.210  0.2137 -0.1320  0.7867
 4741SOL    HW219035  11.092   0.600   1.097  1.2476  1.2386 -0.6557
 4742SOL     OW19036   7.502   4.329   1.796  1.0425 -0.1374  0.2788
 4742SOL    HW119037   7.450   4.349   1.718  2.2166  0.1434 -0.4660
 4742SOL    HW219038   7.504   4.234   1.801  1.8441 -0.1912 -0.6856
 4743SOL     OW19039   1.327   4.187   9.188 -0.2249  0.0485  0.5750
 4743SOL    HW119040   1.268   4.116   9.159 -0.4553 -0.7625  2.8251
 4743SOL    HW219041   1.368   4.218   9.107  0.1694 -2.9191 -0.4951
 4744SOL     OW19042   3.200   5.317  10.521  0.3217  0.1854  0.6758
 4744SOL    HW119043   3.150   5.340  10.599 -2.0252  2.1531 -1.2348
 4744SOL    HW219044   3.197   5.396  10.466  0.2854 -1.6411 -2.1895
 4745SOL     OW19045   6.247   5.058   4.872  0.4007 -0.2789 -0.2601
 4745SOL    HW119046   6.184   4.992   4.844 -0.3428  0.2849  0.0237
 4745SOL    HW219047   6.210   5.141   4.841  0.2541  0.2195  1.1563
 4746SOL     OW19048   3.030   7.954  11.621  0.2440 -0.0800  0.0360
 4746SOL    HW119049   3.085   7.983  11.548 -0.8274  2.1336  0.0399
 4746SOL    HW219050   2.941   7.978  11.595 -0.1540  0.8263  2.0949
 4747SOL     OW19051   5.687  10.850   1.068 -0.1597 -0.1092 -0.5327
 4747SOL    HW119052   5.736  10.861   1.149 -0.8804 -0.8138  0.0137
 4747SOL    HW219053   5.754  10.838   1.000  0.4371  0.0022  0.0346
 4748SOL     OW19054  12.421  10.253   0.819  0.4817  0.0163 -0.3058
 4748SOL    HW119055  12.353  10.289   0.876  0.3118  1.0218 -1.1092
 4748SOL    HW219056  12.498  10.307   0.837  0.6134 -0.0965 -0.5342
 4749SOL     OW19057   9.393  11.305   8.012  0.2233  0.2670  0.2203
 4749SOL    HW119058   9.452  11.242   8.053 -0.4936 -1.2281 -0.9710
 4749SOL    HW219059   9.441  11.338   7.937  0.8769  1.7444  1.2319
 4750SOL     OW19060   0.052   8.804   5.033 -0.0528 -0.3997 -0.2548
 4750SOL    HW119061   0.048   8.771   5.123  0.6888  0.1246 -0.0187
 4750SOL    HW219062   0.079   8.729   4.980  0.4656 -0.4731  0.1067
 4751SOL     OW19063   3.380   4.576  11.138 -0.0428 -0.2619 -0.3239
 4751SOL    HW119064   3.382   4.495  11.087  0.3253  0.1138 -0.9317
 4751SOL    HW219065   3.289   4.586  11.164 -0.2891 -0.3395 -1.1339
 4752SOL     OW19066   1.784   1.595   2.939  0.0302  0.2713 -0.6198
 4752SOL    HW119067   1.748   1.552   3.017 -0.9387 -1.5797 -2.0159
 4752SOL    HW219068   1.862   1.543   2.917  0.2789  0.7628 -0.9057
 4753SOL     OW19069   3.186   4.774   8.948  0.5468 -0.3588 -0.0817
 4753SOL    HW119070   3.243   4.710   8.905  0.3716  0.1696 -1.1223
 4753SOL    HW219071   3.106   4.775   8.895 -0.0962 -0.4412  0.8489
 4754SOL     OW19072   7.910  12.597   0.862 -0.2304  0.0915 -0.3486
 4754SOL    HW119073   7.898  12.502   0.860 -1.2776  0.0980  2.0139
 4754SOL    HW219074   7.838  12.630   0.916  0.9249  2.0550  0.1293
 4755SOL     OW19075  12.600  10.774   2.594  0.3212  0.0613  0.1016
 4755SOL    HW119076  12.597  10.737   2.506  0.8305  3.3935 -1.5004
 4755SOL    HW219077  12.509  10.790   2.617  0.1254 -1.6182  0.6431
 4756SOL     OW19078   6.588   1.522   1.861 -0.0887  0.2583  0.4270
 4756SOL    HW119079   6.654   1.520   1.792  0.0190 -0.4131  0.5417
 4756SOL    HW219080   6.637   1.518   1.942 -0.2082  1.2077  0.5595
 4757SOL     OW19081   4.773  11.774   9.999 -0.3444  0.3571  0.4840
 4757SOL    HW119082   4.710  11.829   9.953 -3.1160 -0.8838  2.5023
 4757SOL    HW219083   4.748  11.684   9.977 -0.0399 -0.1927  2.2011
 4758SOL     OW19084   6.484   9.884   2.496  0.0800  0.0959  0.2346
 4758SOL    HW119085   6.482   9.793   2.525 -3.0979  0.3221  1.0707
 4758SOL    HW219086   6.417   9.890   2.428  2.2823  1.2643 -2.0401
 4759SOL     OW19087   4.295   4.220   3.395 -0.3415 -0.0683 -0.0997
 4759SOL    HW119088   4.261   4.305   3.365 -0.3857  0.3595  1.1162
 4759SOL    HW219089   4.274   4.217   3.488 -0.7716 -1.6470 -0.2253
 4760SOL     OW19090   6.085   3.891   0.736 -0.1647 -0.4722  0.3090
 4760SOL    HW119091   6.121   3.896   0.648 -0.4397  0.1548  0.2285
 4760SOL    HW219092   6.003   3.939   0.731  0.1104  0.0968  1.0541
 4761SOL     OW19093  10.598   0.937   6.201 -0.1351  0.1349 -0.3090
 4761SOL    HW119094  10.665   0.945   6.134  0.9492 -0.0854  0.7069
 4761SOL    HW219095  10.569   1.027   6.217  0.8089  0.3768  0.0973
 4762SOL     OW19096  11.865   9.141   9.675 -0.2121 -0.0376  0.2438
 4762SOL    HW119097  11.863   9.215   9.615 -0.3071  1.5980  2.1521
 4762SOL    HW219098  11.793   9.158   9.736  0.8674 -0.7566  1.7748
 4763SOL     OW19099   7.000   7.695   0.926 -0.0512 -0.1985  0.5585
 4763SOL    HW119100   6.955   7.626   0.877 -1.7672  0.7687  0.6779
 4763SOL    HW219101   7.035   7.753   0.858  0.0797 -0.4015  0.4545
 4764SOL     OW19102   4.792   4.361  10.852  0.7941 -0.3173 -0.3613
 4764SOL    HW119103   4.873   4.329  10.891  2.0643  1.4738 -1.3383
 4764SOL    HW219104   4.787   4.453  10.879 -1.0178 -0.4310 -0.1914
 4765SOL     OW19105   3.691  11.595   3.837  0.2188  0.5831 -0.2280
 4765SOL    HW119106   3.604  11.632   3.826 -0.4805 -0.7271  0.6019
 4765SOL    HW219107   3.706  11.597   3.931  0.3184 -0.8010 -0.1883
 4766SOL     OW19108   3.112   3.527   5.929  0.3712 -0.6762 -0.0911
 4766SOL    HW119109   3.169   3.469   5.980 -0.8269 -1.6053  0.2303
 4766SOL    HW219110   3.152   3.530   5.842  2.4161  0.8835  0.8078
 4767SOL     OW19111   8.237   7.941   2.690  0.2397  0.3561  0.1868
 4767SOL    HW119112   8.197   7.857   2.713  1.7152 -0.4422 -0.0280
 4767SOL    HW219113   8.288   7.922   2.611 -2.4509  2.3874 -2.2495
 4768SOL     OW19114   2.855  10.827  12.188  0.2827  0.1482  0.1422
 4768SOL    HW119115   2.770  10.863  12.165  0.5402  0.2082 -0.7375
 4768SOL    HW219116   2.914  10.860  12.121  0.8909 -0.3592  0.4190
 4769SOL     OW19117   6.480   9.792   0.038  0.1360 -0.2997  0.3585
 4769SOL    HW119118   6.481   9.874   0.087 -0.4890 -0.7802  1.1978
 4769SOL    HW219119   6.398   9.796  -0.012  1.0929  0.4922 -1.2084
 4770SOL     OW19120   2.571  10.784   6.697 -0.0868  0.3482 -0.4584
 4770SOL    HW119121   2.577  10.738   6.781  0.3594  1.8356  0.3612
 4770SOL    HW219122   2.555  10.715   6.633 -0.1321 -0.8591  0.8052
 4771SOL     OW19123   0.331   1.339  11.329  0.0004  0.3097 -0.3146
 4771SOL    HW119124   0.334   1.273  11.398  0.0345 -0.3558 -0.9514
 4771SOL    HW219125   0.343   1.422  11.376 -0.1992 -0.1103  0.5073
 4772SOL     OW19126  11.021  10.682   2.745  0.1598 -0.1339  0.2847
 4772SOL    HW119127  11.095  10.630   2.714  1.7559  1.2383  1.6132
 4772SOL    HW219128  10.958  10.678   2.673  0.0508 -4.0177  0.3783
 4773SOL     OW19129  10.164   5.454   8.704  0.3548 -0.2309  0.1352
 4773SOL    HW119130  10.253   5.421   8.716  0.9158  1.8957  2.5872
 4773SOL    HW219131  10.117   5.427   8.783 -0.1989  1.5405  0.4540
 4774SOL     OW19132  10.641   0.243   9.863  0.5356  0.2147  0.0791
 4774SOL    HW119133  10.719   0.205   9.821  0.2899 -2.7732  2.0543
 4774SOL    HW219134  10.670   0.265   9.951 -0.2485  1.5832  0.0208
 4775SOL     OW19135   2.662  11.852   7.257 -0.1283  0.4708  0.3470
 4775SOL    HW119136   2.636  11.872   7.346  0.4270  0.6637  0.4675
 4775SOL    HW219137   2.758  11.855   7.258 -0.1020  0.0222 -0.1455
 4776SOL     OW19138   5.294   0.515   1.467  0.5402  0.2560  0.1633
 4776SOL    HW119139   5.327   0.505   1.556  1.0260  0.4563  0.0086
 4776SOL    HW219140   5.372   0.531   1.414  0.2785 -0.0794 -0.3337
 4777SOL     OW19141   7.799   6.318   2.416  1.0786 -0.0994 -0.2279
 4777SOL    HW119142   7.868   6.255   2.436  0.6348 -0.4462  0.2345
 4777SOL    HW219143   7.718   6.267   2.418  0.6537  0.5902  0.7078
 4778SOL     OW19144   7.437   7.258   6.893 -0.1411  0.4524  0.1724
 4778SOL    HW119145   7.477   7.297   6.971 -0.5518  1.7775 -0.2424
 4778SOL    HW219146   7.489   7.293   6.820  1.4991 -2.3053 -0.1230
 4779SOL     OW19147  11.377   0.618   7.994 -0.6456  0.2284 -0.7027
 4779SOL    HW119148  11.315   0.579   7.932 -0.5024 -1.3564  0.1012
 4779SOL    HW219149  11.334   0.610   8.079 -1.0310  2.7749 -0.5803
 4780SOL     OW19150  10.355   9.676   0.293 -0.6720  0.4377 -0.2134
 4780SOL    HW119151  10.442   9.654   0.326 -0.1140  1.3184 -1.0432
 4780SOL    HW219152  10.357   9.650   0.201 -1.7750 -0.8165  0.0883
 4781SOL     OW19153   3.292   8.541   8.654 -0.2567 -0.3584  0.0063
 4781SOL    HW119154   3.347   8.503   8.723  0.5447  1.7328  0.5915
 4781SOL    HW219155   3.249   8.616   8.696 -1.2840 -0.2005 -1.2531
 4782SOL     OW19156   2.917   4.329   7.400 -0.3521  0.6172 -0.0345
 4782SOL    HW119157   2.890   4.308   7.490 -0.0753  1.1964  0.1891
 4782SOL    HW219158   2.994   4.385   7.411  0.4217 -0.3051 -0.6526
 4783SOL     OW19159   1.500   2.040   3.132 -0.3342 -0.0529 -0.6068
 4783SOL    HW119160   1.407   2.044   3.152 -0.4097  0.3089 -1.0306
 4783SOL    HW219161   1.507   1.976   3.061 -0.3340  0.4026 -1.0169
 4784SOL     OW19162   5.705   4.779   1.113 -0.5653 -0.3346 -0.0982
 4784SOL    HW119163   5.762   4.702   1.118 -0.1184 -0.2002 -2.2271
 4784SOL    HW219164   5.660   4.771   1.028  1.0399  2.7230 -1.4243
 4785SOL     OW19165   0.272   4.589  11.437  0.4200 -0.0069  0.0941
 4785SOL    HW119166   0.276   4.549  11.523 -1.5858  0.5783  0.5242
 4785SOL    HW219167   0.181   4.618  11.428  1.3088  2.8995 -0.8628
 4786SOL     OW19168   6.826   5.653   9.852 -0.7248  0.1814 -0.6848
 4786SOL    HW119169   6.802   5.593   9.782 -1.9767 -0.3618  0.1510
 4786SOL    HW219170   6.918   5.635   9.870 -0.1872  0.8285 -2.6303
 4787SOL     OW19171   5.718   3.857  10.984 -0.0376  0.4051 -0.0295
 4787SOL    HW119172   5.737   3.767  11.009 -2.0076  0.2105  0.9151
 4787SOL    HW219173   5.767   3.910  11.047  0.2811 -0.0048  0.0754
 4788SOL     OW19174   1.580   4.839   4.940  0.3201 -0.0283  0.1439
 4788SOL    HW119175   1.659   4.831   4.995 -0.5700 -1.2573  1.3032
 4788SOL    HW219176   1.574   4.933   4.922  2.5480  0.0203 -0.7665
 4789SOL     OW19177   9.646   5.424  12.200 -0.2968 -0.1553 -0.3141
 4789SOL    HW119178   9.731   5.380  12.205 -0.5087 -0.4896  0.5494
 4789SOL    HW219179   9.664   5.515  12.227 -0.2570 -0.2903  0.1156
 4790SOL     OW19180  10.965  12.596   5.295  0.1408  0.1650 -0.0115
 4790SOL    HW119181  11.033  12.556   5.241  0.3944 -0.6613  0.8784
 4790SOL    HW219182  10.928  12.665   5.241  2.0205  0.9658 -0.3342
 4791SOL     OW19183   6.320   5.092  12.295  0.2040  0.0701  0.0611
 4791SOL    HW119184   6.285   5.149  12.363  0.1214 -0.6149  0.6005
 4791SOL    HW219185   6.335   5.009  12.339 -1.9858 -1.1119 -1.2623
 4792SOL     OW19186  11.588  12.541  10.749 -0.1872  0.6179 -0.1771
 4792SOL    HW119187  11.650  12.554  10.821 -1.4829  1.9722  0.7426
 4792SOL    HW219188  11.508  12.584  10.778 -1.9121 -1.8763 -0.9382
 4793SOL     OW19189   0.779   5.115   5.819  0.9128  0.0620 -0.3016
 4793SOL    HW119190   0.779   5.049   5.750  0.1501  0.7923 -1.0153
 4793SOL    HW219191   0.687   5.135   5.834  1.1728  2.4964 -1.6098
 4794SOL     OW19192   2.248   0.420   3.257  0.6117 -0.6830 -0.0982
 4794SOL    HW119193   2.333   0.443   3.219  0.5439 -0.2057  0.0348
 4794SOL    HW219194   2.187   0.427   3.183  0.7396 -1.3866 -0.2801
 4795SOL     OW19195   9.333   3.517   0.288  0.2321  0.0755 -0.0249
 4795SOL    HW119196   9.316   3.509   0.194 -1.2034 -0.8527  0.2907
 4795SOL    HW219197   9.255   3.560   0.323  0.2084 -0.7018  0.9155
 4796SOL     OW19198   1.968  10.358   4.789  0.3680 -0.1524  0.0361
 4796SOL    HW119199   1.970  10.350   4.694 -0.3044  0.4590 -0.0441
 4796SOL    HW219200   2.018  10.284   4.821 -0.1223 -0.8530 -0.7806
 4797SOL     OW19201  10.509   6.240  11.156  0.2944 -0.1483 -0.1811
 4797SOL    HW119202  10.482   6.265  11.244  0.5004 -0.5486 -0.0030
 4797SOL    HW219203  10.600   6.268  11.149  0.6684 -1.2100  0.1758
 4798SOL     OW19204   7.311   1.188  11.165 -0.7540 -0.2965  0.4777
 4798SOL    HW119205   7.271   1.270  11.137 -1.5421 -0.8474 -0.0603
 4798SOL    HW219206   7.264   1.120  11.116 -0.4289 -1.1025  1.2518
 4799SOL     OW19207   2.719   7.746   5.826 -0.3427  0.3468 -0.4004
 4799SOL    HW119208   2.745   7.820   5.881 -0.5761 -0.8156  1.3724
 4799SOL    HW219209   2.765   7.671   5.864 -1.4645 -0.7053 -1.0423
 4800SOL     OW19210   4.023   6.161   2.927  0.4376 -0.0416 -0.4752
 4800SOL    HW119211   4.111   6.132   2.951  0.7309  0.1496 -1.2831
 4800SOL    HW219212   3.968   6.132   3.000  0.4134 -4.0960 -1.8135
 4801SOL     OW19213  10.948   6.055   6.988 -0.6182  0.1753  0.7181
 4801SOL    HW119214  11.006   6.045   7.063 -0.5607  0.1225  0.6664
 4801SOL    HW219215  10.986   6.127   6.938 -0.2193 -0.2981  0.3328
 4802SOL     OW19216   6.997  10.848  10.616  0.1318  0.7683 -0.4781
 4802SOL    HW119217   6.941  10.830  10.541  0.1610 -1.1277 -0.0817
 4802SOL    HW219218   7.085  10.860  10.579  0.3816 -1.4009 -0.6796
 4803SOL     OW19219   4.427   7.460   8.255  0.0540  0.1539  0.7895
 4803SOL    HW119220   4.411   7.442   8.347 -1.0937  1.5935  0.9140
 4803SOL    HW219221   4.380   7.391   8.208 -0.1792 -0.0221  1.2812
 4804SOL     OW19222   6.868   0.679  10.874 -0.1839  0.3524  0.9566
 4804SOL    HW119223   6.905   0.591  10.883  0.6717  0.6034 -0.0037
 4804SOL    HW219224   6.907   0.714  10.794 -2.0787  0.8494  0.1983
 4805SOL     OW19225   7.580  11.817   1.358  0.1944 -0.4930 -0.2311
 4805SOL    HW119226   7.625  11.815   1.443  1.2454  0.0115 -0.7526
 4805SOL    HW219227   7.541  11.730   1.350  1.6325 -1.1910 -0.0226
 4806SOL     OW19228   6.005   1.563   7.743  0.7972  0.0495  0.0959
 4806SOL    HW119229   6.042   1.481   7.710  0.7625  0.1997 -0.3146
 4806SOL    HW219230   6.056   1.581   7.822  1.1935 -0.0664 -0.1280
 4807SOL     OW19231   9.314   6.619   1.362  0.2808 -0.3170  0.7378
 4807SOL    HW119232   9.361   6.553   1.311  0.6715  0.0013  0.6856
 4807SOL    HW219233   9.352   6.703   1.336 -1.2017  0.0857 -0.2740
 4808SOL     OW19234  10.583   1.085   4.204 -0.3380 -0.4859 -0.1203
 4808SOL    HW119235  10.498   1.091   4.249 -0.5170 -0.5358 -0.4422
 4808SOL    HW219236  10.605   1.175   4.182  0.6937 -0.2237  1.7569
 4809SOL     OW19237   3.699  12.492  10.269  0.4896 -0.2261 -0.1859
 4809SOL    HW119238   3.749  12.573  10.275 -0.6878  0.4819  0.6086
 4809SOL    HW219239   3.608  12.519  10.284  0.1169 -1.7402  0.4682
 4810SOL     OW19240   6.859   8.880   6.121  0.0753  0.9022  0.1264
 4810SOL    HW119241   6.927   8.824   6.084 -0.3356  0.7686 -0.4389
 4810SOL    HW219242   6.780   8.860   6.070 -0.2413  1.5097  0.3586
 4811SOL     OW19243   0.298   6.670   8.287 -0.1750 -0.3158 -0.0466
 4811SOL    HW119244   0.268   6.741   8.344  1.1256  0.8313 -0.7283
 4811SOL    HW219245   0.313   6.597   8.347  0.1677  0.5412  0.9474
 4812SOL     OW19246  10.723   6.161   8.159 -0.4993  0.1852 -0.2369
 4812SOL    HW119247  10.648   6.167   8.218  0.9152 -1.3343  1.8724
 4812SOL    HW219248  10.782   6.230   8.190  0.0860 -0.3621 -0.1278
 4813SOL     OW19249   3.050  10.383   9.316  0.3050 -0.1914  0.4836
 4813SOL    HW119250   2.969  10.400   9.364  0.1138 -1.3204  0.6015
 4813SOL    HW219251   3.050  10.446   9.244 -1.1187 -0.7345 -0.0281
 4814SOL     OW19252  10.192   7.169   9.438  0.3551 -0.4686 -0.6709
 4814SOL    HW119253  10.245   7.172   9.358  1.1198  1.6046 -0.1555
 4814SOL    HW219254  10.102   7.162   9.408  0.7622 -2.6419 -1.6037
 4815SOL     OW19255   9.750   9.674   4.159  0.4288  0.1835  0.2892
 4815SOL    HW119256   9.843   9.660   4.172  0.6883  1.0587 -0.5373
 4815SOL    HW219257   9.744   9.730   4.081 -0.7565  0.4974  0.5788
 4816SOL     OW19258   5.639   8.950   8.271 -0.0491  0.0176 -0.2495
 4816SOL    HW119259   5.602   8.862   8.259  1.0492 -0.4480 -0.3656
 4816SOL    HW219260   5.563   9.008   8.274 -0.8414 -1.0175  0.5188
 4817SOL     OW19261   7.793   8.467   2.484 -0.0285  0.3038 -0.4913
 4817SOL    HW119262   7.860   8.450   2.550 -1.3902 -1.5059  0.5049
 4817SOL    HW219263   7.781   8.382   2.440 -3.7616 -0.3605  1.4270
 4818SOL     OW19264   7.281  11.116   7.012 -0.1697 -0.0039  0.1450
 4818SOL    HW119265   7.331  11.093   6.934 -0.7960  0.2143 -0.3318
 4818SOL    HW219266   7.189  11.104   6.986 -0.3969  0.3442  0.7621
 4819SOL     OW19267   6.624  10.451   5.594 -0.0529  0.0343  0.3701
 4819SOL    HW119268   6.641  10.487   5.681 -0.3354  1.0002  0.0379
 4819SOL    HW219269   6.549  10.501   5.562 -0.9705 -1.3896  0.1995
 4820SOL     OW19270   9.400   4.212   5.049 -0.3582  0.3267  0.0567
 4820SOL    HW119271   9.311   4.248   5.050 -0.2389  0.6211  1.1371
 4820SOL    HW219272   9.439   4.243   5.130  1.0877  1.0798 -0.8831
 4821SOL     OW19273   7.575   3.267   4.302  0.7429  0.9703 -0.0372
 4821SOL    HW119274   7.556   3.347   4.253  2.1429  1.7252  0.5968
 4821SOL    HW219275   7.496   3.213   4.292  0.1493  2.0174 -1.2708
 4822SOL     OW19276   1.670   7.571   8.312  0.0223  0.6728 -0.1678
 4822SOL    HW119277   1.728   7.519   8.256 -0.1003  1.9538 -1.5534
 4822SOL    HW219278   1.713   7.573   8.397  0.9498 -0.1193 -0.5997
 4823SOL     OW19279   3.417   1.322   7.817  0.4839 -0.3842  0.1382
 4823SOL    HW119280   3.362   1.398   7.796 -1.4182 -2.4213 -3.1426
 4823SOL    HW219281   3.507   1.354   7.806 -0.1369  1.8805  1.0467
 4824SOL     OW19282   7.439   4.421  11.959  0.0319 -0.1442 -0.0534
 4824SOL    HW119283   7.367   4.368  11.924 -0.0961 -0.2638  0.3898
 4824SOL    HW219284   7.441   4.401  12.052 -0.4466  1.1285  0.2572
 4825SOL     OW19285   9.448   6.906   9.571  0.2810 -0.3712  0.0928
 4825SOL    HW119286   9.354   6.902   9.552  0.3577  0.2815 -0.4814
 4825SOL    HW219287   9.460   6.992   9.612  0.9473  0.5443 -1.8758
 4826SOL     OW19288   2.858  12.388   8.701  0.0569 -0.0633  0.1664
 4826SOL    HW119289   2.777  12.337   8.705  0.1851 -0.3298 -0.5032
 4826SOL    HW219290   2.852  12.437   8.619  1.3680 -1.4799 -0.8391
 4827SOL     OW19291   7.225   9.963  11.480  0.8706 -0.0134  0.3172
 4827SOL    HW119292   7.284   9.973  11.555  0.8539  0.2440  0.2956
 4827SOL    HW219293   7.159  10.031  11.492  1.9251  1.2674 -0.9322
 4828SOL     OW19294   1.545   0.846  10.487  0.7426  0.1191  0.1907
 4828SOL    HW119295   1.586   0.812  10.567 -3.0258 -0.6738  2.0260
 4828SOL    HW219296   1.496   0.923  10.516  0.2692  0.5559 -1.6379
 4829SOL     OW19297   3.937   6.600  11.957  0.2195 -0.6471  0.3254
 4829SOL    HW119298   3.992   6.575  12.031  0.4398 -0.1693  0.3267
 4829SOL    HW219299   3.903   6.687  11.981 -1.1324 -1.2418  0.6604
 4830SOL     OW19300   6.638   1.962   2.128  0.5613  0.6439 -0.0904
 4830SOL    HW119301   6.576   1.973   2.056 -1.0924  1.7090  1.4307
 4830SOL    HW219302   6.619   2.034   2.188 -0.4503 -1.9773  3.0503
 4831SOL     OW19303   1.173   6.034   3.431 -0.1118 -0.0523  0.3676
 4831SOL    HW119304   1.132   6.065   3.512 -0.5307  3.2418 -0.9573
 4831SOL    HW219305   1.121   6.073   3.361  1.1026 -1.6091 -1.5113
 4832SOL     OW19306   4.857   4.092   9.471  0.1509 -0.4528 -0.0283
 4832SOL    HW119307   4.795   4.119   9.403  0.6287 -0.3271 -0.4204
 4832SOL    HW219308   4.810   4.025   9.521 -0.7911  0.5741  0.5099
 4833SOL     OW19309   5.585  12.346  10.763 -0.0949  0.1417 -0.1571
 4833SOL    HW119310   5.652  12.365  10.828 -0.1863  0.3670 -0.1266
 4833SOL    HW219311   5.547  12.432  10.742 -2.0920 -0.2037  1.6902
 4834SOL     OW19312   8.542   5.897   9.557  0.2814 -0.0193 -0.5488
 4834SOL    HW119313   8.603   5.922   9.488  0.3171 -1.2408 -0.9843
 4834SOL    HW219314   8.593   5.842   9.616  0.5274  1.8502  1.0608
 4835SOL     OW19315   0.916   8.902   0.542  0.2559  0.0561  0.2486
 4835SOL    HW119316   0.910   8.807   0.553 -1.0343  0.1253  0.2357
 4835SOL    HW219317   1.010   8.920   0.547  0.4581 -1.0993  1.2387
 4836SOL     OW19318   1.644  11.816   0.651 -0.2633 -0.2239  0.0790
 4836SOL    HW119319   1.661  11.742   0.592  0.5459 -0.7862  0.9770
 4836SOL    HW219320   1.692  11.793   0.731  1.5307  2.1367 -0.2264
 4837SOL     OW19321   7.494   0.007   2.166 -0.0020 -0.4772 -0.3771
 4837SOL    HW119322   7.401   0.001   2.145 -0.3156  1.9052  0.1193
 4837SOL    HW219323   7.499  -0.002   2.261  0.2767 -0.5269 -0.3931
 4838SOL     OW19324   0.138   8.666   9.883  0.0011 -1.4158 -0.3130
 4838SOL    HW119325   0.169   8.735   9.941  0.1373  0.6142 -2.6421
 4838SOL    HW219326   0.057   8.701   9.845 -1.1857 -3.5338  0.1310
 4839SOL     OW19327   1.839   6.773   2.125  0.3046 -0.0134 -0.1750
 4839SOL    HW119328   1.762   6.720   2.147  0.6045 -0.4863 -0.2781
 4839SOL    HW219329   1.809   6.831   2.056  0.4441 -1.2194 -1.2788
 4840SOL     OW19330   7.068   7.283   0.034 -0.9929 -0.4716  0.3582
 4840SOL    HW119331   7.123   7.362   0.029 -1.4513 -0.1893 -0.4628
 4840SOL    HW219332   7.042   7.278   0.125 -2.1219  1.1590  0.1807
 4841SOL     OW19333   3.279   7.425   0.259  0.0813  0.2449 -0.1497
 4841SOL    HW119334   3.235   7.504   0.288 -0.4872 -0.1215 -0.0014
 4841SOL    HW219335   3.230   7.354   0.299  1.1436 -0.1563  0.4798
 4842SOL     OW19336   3.070  11.790   4.402  0.4222  0.2381  0.9924
 4842SOL    HW119337   3.039  11.819   4.488  2.2394  0.0110  1.7723
 4842SOL    HW219338   3.150  11.840   4.387  0.1342  0.2693 -0.5953
 4843SOL     OW19339  11.954   7.856   7.194  0.7778  0.0299 -0.3577
 4843SOL    HW119340  12.011   7.853   7.117 -0.4235 -1.6004 -1.2501
 4843SOL    HW219341  11.999   7.804   7.260  1.1711  0.2786 -0.4302
 4844SOL     OW19342  10.062   1.335  10.173 -0.2648 -0.0967  0.2752
 4844SOL    HW119343  10.109   1.252  10.172 -1.9744 -1.1327 -1.2549
 4844SOL    HW219344   9.978   1.315  10.214 -0.9944  0.6506 -0.7845
 4845SOL     OW19345   8.331   0.756   9.769 -0.0114  0.3055 -0.6060
 4845SOL    HW119346   8.305   0.847   9.758  0.4196  0.6413  0.8696
 4845SOL    HW219347   8.426   0.756   9.755  0.1235  0.2505  0.2765
 4846SOL     OW19348   5.833   8.253   6.019  0.2648 -0.0262 -0.0776
 4846SOL    HW119349   5.900   8.187   6.040  0.9703  0.6706 -0.0946
 4846SOL    HW219350   5.872   8.336   6.047  0.2583  0.6492 -1.9700
 4847SOL     OW19351   4.597   4.542   8.662 -0.1022  0.4833 -0.3123
 4847SOL    HW119352   4.502   4.544   8.652 -0.1133  0.5059 -0.2096
 4847SOL    HW219353   4.626   4.629   8.636 -0.0393  0.2546 -1.0050
 4848SOL     OW19354   0.828  11.683   5.504 -0.2166 -0.6255 -0.7081
 4848SOL    HW119355   0.903  11.743   5.507 -0.7053  0.0832 -2.0167
 4848SOL    HW219356   0.842  11.624   5.578  0.4420  0.9201  0.4605
 4849SOL     OW19357   4.385   8.800   4.734  0.2771 -0.2002 -0.2378
 4849SOL    HW119358   4.366   8.796   4.640  1.6232  0.6548 -0.5762
 4849SOL    HW219359   4.480   8.791   4.739  0.2720  0.3381  1.0118
 4850SOL     OW19360   6.256  10.448   2.781 -0.1669  0.5843 -0.4397
 4850SOL    HW119361   6.249  10.359   2.815 -1.2075  0.4004 -1.1159
 4850SOL    HW219362   6.351  10.463   2.775  0.0468 -0.8773 -1.3278
 4851SOL     OW19363   1.704   6.265  10.469 -0.1401 -0.3509  0.1598
 4851SOL    HW119364   1.705   6.287  10.376  3.3118 -1.3524 -0.1742
 4851SOL    HW219365   1.672   6.345  10.512  1.3462  1.3385 -1.6920
 4852SOL     OW19366   5.449   6.759   3.532 -0.0019 -0.9926  0.6808
 4852SOL    HW119367   5.455   6.836   3.588  1.8260  0.7052 -1.6285
 4852SOL    HW219368   5.355   6.742   3.523 -0.3841 -0.1278  2.6273
 4853SOL     OW19369  11.261   3.653   3.250  0.2384  0.0024  0.3534
 4853SOL    HW119370  11.236   3.735   3.292  1.6580 -0.1546  1.5920
 4853SOL    HW219371  11.338   3.624   3.298  1.4327 -0.6625 -1.8125
 4854SOL     OW19372   1.602   4.115   3.850  0.6052  0.2935 -0.2605
 4854SOL    HW119373   1.593   4.024   3.822 -1.0622 -0.0987  1.3075
 4854SOL    HW219374   1.677   4.149   3.801  0.3465 -1.4672 -1.9925
 4855SOL     OW19375   7.941   0.839   3.497 -0.3873 -0.2380  0.1113
 4855SOL    HW119376   7.862   0.893   3.498  0.2283  0.7347  1.8175
 4855SOL    HW219377   7.999   0.883   3.436 -0.5903 -0.0517  0.0509
 4856SOL     OW19378   5.471   8.106  10.959 -0.4797  0.6235 -0.0213
 4856SOL    HW119379   5.485   8.042  10.889 -0.2197  1.3328 -0.6273
 4856SOL    HW219380   5.412   8.171  10.920 -1.4500  0.3015  0.8759
 4857SOL     OW19381   5.471  12.569   3.617 -0.0805 -0.0854  0.0451
 4857SOL    HW119382   5.430  12.645   3.660 -1.1729 -0.7442  0.2104
 4857SOL    HW219383   5.561  12.569   3.648 -0.1064  1.0572  0.1657
 4858SOL     OW19384   1.155   1.889   5.525  0.0464  0.3367  0.9294
 4858SOL    HW119385   1.240   1.923   5.555 -0.4693  1.4924  1.1275
 4858SOL    HW219386   1.178   1.813   5.471  1.0972 -0.6880  2.7072
 4859SOL     OW19387  11.042  11.753   0.977 -0.5446 -0.2253 -0.4571
 4859SOL    HW119388  10.947  11.755   0.968 -0.6963 -3.8656 -0.8206
 4859SOL    HW219389  11.071  11.683   0.919  2.2301 -0.1649  0.6931
 4860SOL     OW19390   8.490   3.446   5.045 -0.0137  0.2148 -0.0861
 4860SOL    HW119391   8.444   3.393   5.110  0.1399  0.3079  0.0996
 4860SOL    HW219392   8.521   3.522   5.094  1.2131 -0.3275  0.0314
 4861SOL     OW19393   8.978   1.187   3.521  0.0443  0.2686 -0.1103
 4861SOL    HW119394   9.045   1.157   3.459 -1.1515 -2.4373 -0.2400
 4861SOL    HW219395   9.024   1.250   3.577  1.9441  0.5627 -1.8544
 4862SOL     OW19396  10.174   6.159  10.577  0.4507 -0.1673  0.3711
 4862SOL    HW119397  10.224   6.082  10.550  2.5849  1.0419  0.6086
 4862SOL    HW219398  10.171   6.154  10.673  2.1765  0.8932  0.5229
 4863SOL     OW19399   6.274   0.232   6.831 -0.1894  0.7341 -0.2294
 4863SOL    HW119400   6.332   0.265   6.900  1.4780 -1.7411 -0.3584
 4863SOL    HW219401   6.296   0.283   6.754 -1.2175  2.6878  0.6781
 4864SOL     OW19402   5.998   3.059   5.543  0.0466  0.1107 -0.2317
 4864SOL    HW119403   5.996   3.090   5.634  1.1236 -2.3736  0.7460
 4864SOL    HW219404   6.088   3.030   5.530 -0.5247 -1.2402 -1.4619
 4865SOL     OW19405  10.955   6.644   8.308 -0.0147  0.1458 -0.1618
 4865SOL    HW119406  11.001   6.697   8.242 -0.7579  0.5728 -0.3466
 4865SOL    HW219407  10.961   6.696   8.388 -2.3244  1.4378 -0.7492
 4866SOL     OW19408  11.893   9.516   7.180 -0.0854  0.7307 -0.2682
 4866SOL    HW119409  11.866   9.425   7.188 -0.3965  0.8932  0.6962
 4866SOL    HW219410  11.981   9.512   7.142 -0.3612  0.0710 -0.8641
 4867SOL     OW19411   4.639   8.826  12.223  0.4353 -0.2967 -0.2716
 4867SOL    HW119412   4.701   8.864  12.286 -0.4384  0.9921 -0.1624
 4867SOL    HW219413   4.580   8.773  12.278 -0.0567  0.4712 -0.0454
 4868SOL     OW19414   5.519   6.380   6.673  0.1926 -0.7118 -0.0127
 4868SOL    HW119415   5.502   6.286   6.686  1.0551 -0.9976 -0.8159
 4868SOL    HW219416   5.461   6.404   6.601 -1.3146 -0.1821  1.3065
 4869SOL     OW19417   8.464   8.408  10.300  0.1810  0.4709 -0.2695
 4869SOL    HW119418   8.465   8.322  10.343  2.6920  0.4057 -0.3032
 4869SOL    HW219419   8.394   8.401  10.235  0.9391 -1.9293 -0.9391
 4870SOL     OW19420   6.875   7.864   6.764 -0.7812  0.2768 -0.5211
 4870SOL    HW119421   6.917   7.890   6.682  1.0260 -1.9362 -0.3958
 4870SOL    HW219422   6.842   7.776   6.748  0.8346 -0.7888  1.4591
 4871SOL     OW19423   7.072   6.892   9.193  0.4145  0.4655  0.3247
 4871SOL    HW119424   6.997   6.949   9.175  1.7113  2.4163  0.7641
 4871SOL    HW219425   7.053   6.811   9.146 -1.7834  1.0229  0.1483
 4872SOL     OW19426   7.244   0.347  10.897 -0.0304  0.5386 -0.1492
 4872SOL    HW119427   7.290   0.286  10.955  0.9168  0.1391 -1.2873
 4872SOL    HW219428   7.272   0.434  10.926 -0.6586  0.4129  0.8765
 4873SOL     OW19429   2.322   4.250  12.608 -0.2485 -0.0671 -0.0428
 4873SOL    HW119430   2.341   4.163  12.571  0.3885 -0.8783  2.0310
 4873SOL    HW219431   2.276   4.296  12.538 -0.9492 -2.2063 -1.0940
 4874SOL     OW19432  11.276   8.996   6.391  0.3984  0.5498 -0.0014
 4874SOL    HW119433  11.279   9.014   6.297 -0.9148  0.5055 -0.0697
 4874SOL    HW219434  11.368   8.982   6.416  0.6705 -0.4660 -1.4709
 4875SOL     OW19435   2.950   5.866   2.664 -0.0889  0.1687 -0.1467
 4875SOL    HW119436   2.914   5.778   2.674  0.1940 -0.0317 -0.8537
 4875SOL    HW219437   2.921   5.894   2.577 -0.4222  0.8908  0.1917
 4876SOL     OW19438  10.338   6.144   7.971  0.3512  0.5869  0.5576
 4876SOL    HW119439  10.249   6.125   7.940 -0.1909  1.5903  1.4347
 4876SOL    HW219440  10.347   6.090   8.050  0.3980  0.7066  0.6342
 4877SOL     OW19441   2.237   0.608  11.985  0.3368 -0.0391  0.3576
 4877SOL    HW119442   2.288   0.647  12.057 -0.6636 -1.9158  2.1965
 4877SOL    HW219443   2.300   0.552  11.939  0.5179 -0.4442  1.0844
 4878SOL     OW19444   1.328   6.803  11.599  0.3809  0.5296  0.6429
 4878SOL    HW119445   1.257   6.758  11.644 -1.4563  1.4255 -1.2244
 4878SOL    HW219446   1.350   6.747  11.525 -0.5610  1.6850 -0.5590
 4879SOL     OW19447   7.071   1.344   2.559  0.1079  0.4152  0.0048
 4879SOL    HW119448   7.142   1.345   2.624 -0.0341 -0.1908  0.1813
 4879SOL    HW219449   7.052   1.436   2.543  1.4586  0.6149 -0.6213
 4880SOL     OW19450   5.118   8.394  10.982  0.4588  0.1166  0.3050
 4880SOL    HW119451   5.090   8.307  11.008  1.0286 -0.0522  0.3604
 4880SOL    HW219452   5.090   8.450  11.055 -1.8058  0.3508 -0.6407
 4881SOL     OW19453  10.469   0.886   9.793 -0.1194  0.2016  0.5133
 4881SOL    HW119454  10.471   0.903   9.887  1.6825  1.0587  0.3681
 4881SOL    HW219455  10.433   0.966   9.754 -0.4855  0.0053  0.4427
 4882SOL     OW19456   6.827  10.756   1.983 -0.5971  0.0047  0.3871
 4882SOL    HW119457   6.898  10.819   1.977 -1.6661  1.1025 -2.1430
 4882SOL    HW219458   6.871  10.671   1.986  0.8475  0.6776 -0.4336
 4883SOL     OW19459   7.323   3.979   9.794 -0.3565 -0.0766 -0.0813
 4883SOL    HW119460   7.284   3.930   9.866 -2.1634  1.0998 -0.2135
 4883SOL    HW219461   7.258   4.045   9.771 -0.0668 -0.7006 -3.1103
 4884SOL     OW19462   4.542   4.373  12.437  0.2646  0.5173  0.0242
 4884SOL    HW119463   4.448   4.355  12.436  0.2270  0.7157 -0.0379
 4884SOL    HW219464   4.571   4.342  12.523  0.2426 -0.0425 -0.1686
 4885SOL     OW19465   2.316  11.895   0.982  0.1162 -0.9020 -0.3252
 4885SOL    HW119466   2.406  11.862   0.979 -0.0890 -1.5291  0.3092
 4885SOL    HW219467   2.323  11.985   0.950  0.8598 -1.1701 -0.9580
 4886SOL     OW19468   9.975  10.744   6.570  0.2710 -0.3373 -0.0383
 4886SOL    HW119469   9.948  10.655   6.593  0.1541 -0.6321 -1.2367
 4886SOL    HW219470   9.964  10.748   6.475  0.8379  0.7737 -0.0687
 4887SOL     OW19471   9.443   4.912   3.457 -0.5365 -0.2864  0.2373
 4887SOL    HW119472   9.523   4.892   3.505  0.2248  2.7928  0.4644
 4887SOL    HW219473   9.467   4.903   3.365 -0.4462 -1.0358  0.3301
 4888SOL     OW19474   5.097   6.489  12.252 -0.1857 -0.6916 -0.6800
 4888SOL    HW119475   5.106   6.464  12.344  1.2270 -1.7052 -1.0583
 4888SOL    HW219476   5.005   6.473  12.232 -1.2994  2.3440  1.2850
 4889SOL     OW19477  11.766   3.449   1.627 -0.8173  0.2372 -0.4796
 4889SOL    HW119478  11.729   3.363   1.604 -0.4575  0.0013 -0.1758
 4889SOL    HW219479  11.800   3.438   1.715 -1.0427  0.7852 -0.3204
 4890SOL     OW19480   0.590   8.095   2.229  0.0077  0.6209  0.0261
 4890SOL    HW119481   0.659   8.128   2.286 -0.2511  2.0250 -0.4378
 4890SOL    HW219482   0.509   8.118   2.274 -0.1828  0.9652 -0.4854
 4891SOL     OW19483   0.331   8.558   8.930 -0.1430  0.4723  0.1436
 4891SOL    HW119484   0.350   8.652   8.925 -0.4382  0.5211 -0.1141
 4891SOL    HW219485   0.376   8.520   8.854 -1.3879  0.6492 -0.7177
 4892SOL     OW19486   9.320  11.933   0.607 -0.0864  0.2746 -0.2184
 4892SOL    HW119487   9.233  11.895   0.622 -0.2984  0.4678 -0.9009
 4892SOL    HW219488   9.381  11.868   0.640 -0.4236 -0.9104 -1.8102
 4893SOL     OW19489   6.492  12.557   1.124 -0.1131  0.4064 -0.0859
 4893SOL    HW119490   6.556  12.629   1.126  1.0558 -0.6002 -0.3615
 4893SOL    HW219491   6.544  12.479   1.108 -1.1276 -0.7776  1.9967
 4894SOL     OW19492   9.014   4.856  11.810 -0.1425 -0.0043 -0.6037
 4894SOL    HW119493   9.069   4.795  11.859 -1.3646 -0.7276 -0.0688
 4894SOL    HW219494   8.943   4.801  11.775 -1.5718  1.1751  0.3396
 4895SOL     OW19495   7.136  10.883   5.910  0.4200 -0.0952  0.1683
 4895SOL    HW119496   7.142  10.788   5.896  0.5015 -0.1192  0.3674
 4895SOL    HW219497   7.121  10.892   6.004 -0.2791  0.0571  0.0527
 4896SOL     OW19498   0.833   5.357   0.896 -0.0570  0.2756  0.3275
 4896SOL    HW119499   0.869   5.269   0.902  0.4138  0.3395 -1.0886
 4896SOL    HW219500   0.900   5.407   0.848 -0.7903  1.1195  0.1552
 4897SOL     OW19501  10.337  10.695  11.835  0.1450 -0.4851  0.3089
 4897SOL    HW119502  10.289  10.692  11.752 -0.5123 -0.8423  0.7009
 4897SOL    HW219503  10.406  10.629  11.825  0.1679 -0.4152 -0.0115
 4898SOL     OW19504  11.466   7.777   2.467 -0.5327  0.0681  0.3640
 4898SOL    HW119505  11.416   7.697   2.447  0.7138 -0.9501  1.1287
 4898SOL    HW219506  11.536   7.777   2.402  1.3606 -1.2629  2.2518
 4899SOL     OW19507   4.633  12.532   8.634 -0.3049  0.0845 -0.6663
 4899SOL    HW119508   4.563  12.528   8.569  0.1163 -0.8265 -1.0767
 4899SOL    HW219509   4.594  12.496   8.714 -0.8802  1.3780 -0.3270
 4900SOL     OW19510   9.197   4.888   5.399 -0.3180 -0.0780 -0.5308
 4900SOL    HW119511   9.222   4.899   5.307  0.4261 -2.4996 -0.6927
 4900SOL    HW219512   9.257   4.945   5.447  0.8490 -0.5257 -1.4143
 4901SOL     OW19513  12.171   1.927   3.041  0.2925 -0.0397 -0.2267
 4901SOL    HW119514  12.096   1.912   3.098  0.5375  2.3974  0.8267
 4901SOL    HW219515  12.158   2.015   3.006  1.8882 -0.1731 -1.2873
 4902SOL     OW19516   2.453   0.727  10.314  0.2732  0.6548  0.2132
 4902SOL    HW119517   2.363   0.749  10.289  0.1633 -1.0931 -1.1905
 4902SOL    HW219518   2.489   0.686  10.235  1.0978 -2.0165  1.8505
 4903SOL     OW19519   3.340   9.038  10.067 -0.0246  0.0575 -0.0373
 4903SOL    HW119520   3.429   9.009  10.086 -0.0774 -0.4806 -0.5833
 4903SOL    HW219521   3.284   8.972  10.108 -0.1526 -0.3455 -0.8457
 4904SOL     OW19522  10.971   9.167   4.261 -0.3093  0.2082  0.6466
 4904SOL    HW119523  10.912   9.232   4.300  0.1322 -0.5188  2.6931
 4904SOL    HW219524  10.937   9.083   4.293 -0.3126 -0.5203 -1.1845
 4905SOL     OW19525   2.366   6.272   0.316  0.2508 -0.6810 -0.4229
 4905SOL    HW119526   2.314   6.302   0.390  0.0607  0.3920 -0.9700
 4905SOL    HW219527   2.424   6.205   0.352  0.9432  0.6044  0.9265
 4906SOL     OW19528  11.464  10.442   1.776  0.5555 -0.0559 -0.2353
 4906SOL    HW119529  11.450  10.350   1.755 -0.8622  0.5596 -2.1881
 4906SOL    HW219530  11.455  10.488   1.693 -0.6845  2.0589  0.9793
 4907SOL     OW19531  12.450   6.075   8.278  0.1871 -0.4093 -0.0659
 4907SOL    HW119532  12.461   6.148   8.339  0.2049  0.2540 -0.8347
 4907SOL    HW219533  12.529   6.023   8.289  0.7070  0.3065 -0.2906
 4908SOL     OW19534   7.757  11.205   0.311 -0.2120 -0.1150  0.4384
 4908SOL    HW119535   7.783  11.115   0.327 -0.4077 -0.5051 -1.2695
 4908SOL    HW219536   7.735  11.208   0.218 -0.6902  1.5763  0.5659
 4909SOL     OW19537   4.542   1.012   4.163 -0.6972 -0.2651 -0.1468
 4909SOL    HW119538   4.581   0.932   4.129 -1.0020 -0.1431 -0.7993
 4909SOL    HW219539   4.613   1.075   4.164 -0.8554 -0.0341 -1.3623
 4910SOL     OW19540  12.087   2.552  12.569  0.0001  0.3195 -0.0166
 4910SOL    HW119541  12.138   2.629  12.594 -0.5951  1.8227 -3.0000
 4910SOL    HW219542  11.996   2.575  12.588 -0.1869  0.4258 -0.9774
 4911SOL     OW19543  12.555   8.695   3.958 -0.1266  0.1300  0.7208
 4911SOL    HW119544  12.608   8.728   3.885 -1.5458  0.5689 -0.1562
 4911SOL    HW219545  12.609   8.626   3.997  1.0399  0.4804 -0.1816
 4912SOL     OW19546   1.846   7.777   7.630 -0.0534  0.4611 -0.1047
 4912SOL    HW119547   1.821   7.685   7.639 -0.5693  0.5930 -0.1443
 4912SOL    HW219548   1.942   7.777   7.634 -0.0610 -0.0527  0.1283
 4913SOL     OW19549   7.699   6.686  11.346  0.1147 -0.1591  0.4485
 4913SOL    HW119550   7.620   6.661  11.394 -0.7938  0.6814 -0.5473
 4913SOL    HW219551   7.763   6.619  11.368 -1.2151 -1.4742  0.4324
 4914SOL     OW19552   7.664  11.231   9.143  0.2539 -0.4564  0.2489
 4914SOL    HW119553   7.636  11.240   9.052  2.4488 -0.8946 -0.5201
 4914SOL    HW219554   7.707  11.146   9.147 -0.2126 -0.6524  1.8277
 4915SOL     OW19555   3.573   4.882  10.025  0.1677 -0.1922  0.4979
 4915SOL    HW119556   3.495   4.921   9.985 -0.9453 -1.9744  0.7835
 4915SOL    HW219557   3.644   4.943  10.004 -1.5577  2.4288  1.7315
 4916SOL     OW19558   7.391   2.211   4.822 -0.1368 -0.2986  0.3293
 4916SOL    HW119559   7.471   2.160   4.836  0.1551  0.4961  1.6791
 4916SOL    HW219560   7.322   2.145   4.813  0.4346 -0.9634  0.7303
 4917SOL     OW19561  11.260  11.389   0.352 -0.0672  0.2510  0.3398
 4917SOL    HW119562  11.249  11.458   0.417  1.6182  1.1699 -0.2808
 4917SOL    HW219563  11.333  11.337   0.384  0.5483  0.4990 -0.6039
 4918SOL     OW19564   7.493   3.328   0.828 -0.1730 -0.5023 -0.1147
 4918SOL    HW119565   7.507   3.354   0.737  0.3978 -3.1571 -0.8620
 4918SOL    HW219566   7.493   3.233   0.826 -0.2732 -0.6377  2.6774
 4919SOL     OW19567   4.345   4.825   5.331 -0.0305  0.3583 -0.2880
 4919SOL    HW119568   4.394   4.906   5.349 -0.2733  0.8098 -1.5316
 4919SOL    HW219569   4.372   4.801   5.243  2.0385 -2.4026  0.9414
 4920SOL     OW19570   7.617  12.247   1.989 -0.3127  0.1210  0.4594
 4920SOL    HW119571   7.615  12.301   1.910 -1.3378 -0.0857  0.3233
 4920SOL    HW219572   7.697  12.196   1.981 -1.1444 -1.0308 -1.2480
 4921SOL     OW19573   7.600   7.861   7.028  0.0120 -0.6683  0.1068
 4921SOL    HW119574   7.548   7.798   6.979 -0.4727 -0.8719  0.8560
 4921SOL    HW219575   7.691   7.835   7.013 -0.1861 -1.6317  0.4992
 4922SOL     OW19576  11.579  10.083   3.376  0.1953 -0.5123 -0.2141
 4922SOL    HW119577  11.519  10.134   3.430 -0.3725  0.2020 -1.4670
 4922SOL    HW219578  11.539   9.996   3.370 -0.1054 -0.3816 -0.0834
 4923SOL     OW19579   1.624   6.216   9.859  0.1386 -0.9743 -0.3935
 4923SOL    HW119580   1.559   6.256   9.916  1.3906  0.1842  0.2950
 4923SOL    HW219581   1.692   6.283   9.850  0.3836 -1.4382 -2.5753
 4924SOL     OW19582   7.288  10.166   5.309 -0.2988  0.1507 -0.0679
 4924SOL    HW119583   7.232  10.153   5.386 -0.1807  3.0455  0.6449
 4924SOL    HW219584   7.227  10.173   5.236 -0.3736 -3.4296 -0.4970
 4925SOL     OW19585  12.212   2.788  11.104  0.3048  0.0031 -0.4191
 4925SOL    HW119586  12.285   2.832  11.148  1.4433  1.2222 -3.2790
 4925SOL    HW219587  12.159   2.860  11.069 -1.3780 -0.9039  0.1776
 4926SOL     OW19588   7.202   7.135  10.238  0.3844 -0.0589 -0.1083
 4926SOL    HW119589   7.182   7.177  10.154  1.1941  2.1879  0.7513
 4926SOL    HW219590   7.285   7.089  10.222  0.5400  0.3631 -0.5366
 4927SOL     OW19591   0.689  12.388   7.274 -0.3408 -0.1548 -0.4500
 4927SOL    HW119592   0.616  12.389   7.337 -0.5492 -0.9978 -0.6755
 4927SOL    HW219593   0.764  12.421   7.324 -0.7010  0.0152 -0.0105
 4928SOL     OW19594  11.161   6.032   8.497  0.6119 -0.5066 -0.2436
 4928SOL    HW119595  11.122   6.112   8.463  0.7787 -0.6225 -0.7156
 4928SOL    HW219596  11.210   6.060   8.574 -1.3046 -0.5334  1.0346
 4929SOL     OW19597   5.282   7.589  11.012 -0.0565  0.4973 -0.7419
 4929SOL    HW119598   5.371   7.607  10.983  0.6282  2.7288  2.2278
 4929SOL    HW219599   5.259   7.664  11.067 -3.1072 -0.8595  0.0427
 4930SOL     OW19600   6.536   3.495   6.265  0.1216  0.3990  0.1941
 4930SOL    HW119601   6.491   3.444   6.198 -0.4234 -0.1902  0.9906
 4930SOL    HW219602   6.576   3.567   6.217 -3.0231  1.9376 -0.4351
 4931SOL     OW19603   8.128   9.808   4.537 -0.1849 -0.1498 -0.2255
 4931SOL    HW119604   8.069   9.740   4.502 -1.8512 -0.0237  2.1500
 4931SOL    HW219605   8.176   9.764   4.607 -1.1479  0.9948  1.2133
 4932SOL     OW19606  11.721  10.632   3.400 -0.1170  0.6233 -0.5673
 4932SOL    HW119607  11.675  10.555   3.435 -2.7817  1.5170 -1.8697
 4932SOL    HW219608  11.685  10.706   3.449  0.4930  1.3130 -1.1393
 4933SOL     OW19609   6.336   0.142  10.638  0.3238 -0.8353 -0.0611
 4933SOL    HW119610   6.374   0.117  10.722  1.0899  0.7637  0.0996
 4933SOL    HW219611   6.296   0.228  10.654 -1.5088 -1.4909 -0.7804
 4934SOL     OW19612   2.349  10.561   1.510 -0.3260 -0.0443 -0.1886
 4934SOL    HW119613   2.406  10.504   1.458  0.0688 -0.5532  0.7662
 4934SOL    HW219614   2.397  10.643   1.517  0.1703 -0.3711  0.3562
 4935SOL     OW19615   0.867   4.831   0.657  0.5362  0.0056  0.5345
 4935SOL    HW119616   0.842   4.791   0.574  0.4029  0.5122  0.3273
 4935SOL    HW219617   0.953   4.793   0.677 -0.7732 -2.5871  1.8050
 4936SOL     OW19618   1.692   0.587  11.240 -0.5237 -0.0519 -0.0367
 4936SOL    HW119619   1.726   0.542  11.163  0.1556  0.6838 -0.1865
 4936SOL    HW219620   1.597   0.587  11.228 -0.6640 -2.3962  0.5229
 4937SOL     OW19621   8.217  11.103   7.824 -0.4486 -0.2485  0.4293
 4937SOL    HW119622   8.244  11.187   7.787  0.0989 -0.7848 -0.4501
 4937SOL    HW219623   8.299  11.062   7.852 -0.2853 -1.7134 -1.8625
 4938SOL     OW19624   7.055  12.251   2.721  0.2001  0.6828  0.3983
 4938SOL    HW119625   7.114  12.324   2.739 -0.1903  0.6434  2.0311
 4938SOL    HW219626   7.051  12.202   2.803 -0.1516 -0.7502 -0.4305
 4939SOL     OW19627   6.339   7.079  12.016 -0.1084  0.0928  0.1278
 4939SOL    HW119628   6.285   7.134  12.073  1.2530  1.3365  0.2790
 4939SOL    HW219629   6.402   7.038  12.074  0.0243 -0.2042 -0.2248
 4940SOL     OW19630   9.676   7.200   3.364 -0.3910 -0.4196 -0.0558
 4940SOL    HW119631   9.588   7.200   3.325 -1.3234  1.4025  1.8423
 4940SOL    HW219632   9.724   7.267   3.315 -0.4156 -0.6196 -0.3575
 4941SOL     OW19633   4.145   3.420  10.622 -0.0272 -0.3072 -0.4112
 4941SOL    HW119634   4.236   3.447  10.608 -0.2884 -0.3674 -2.4881
 4941SOL    HW219635   4.121   3.374  10.542 -1.9895 -0.0119 -0.0397
 4942SOL     OW19636   5.307   3.908   8.911  0.0702 -0.2179 -0.1847
 4942SOL    HW119637   5.390   3.930   8.954 -0.0220 -0.8089  0.3080
 4942SOL    HW219638   5.332   3.851   8.838  0.0652 -0.6887  0.1816
 4943SOL     OW19639   1.102   6.227   1.732 -0.2232 -0.0867 -0.1901
 4943SOL    HW119640   1.067   6.295   1.674 -2.1329  0.7488  1.8096
 4943SOL    HW219641   1.057   6.147   1.705  0.5325 -0.1933 -1.2237
 4944SOL     OW19642   7.097   5.891   6.640  0.4512 -0.4944  0.2722
 4944SOL    HW119643   7.103   5.842   6.558  0.7366 -0.1129  0.0616
 4944SOL    HW219644   7.183   5.883   6.679 -0.0858 -1.8832  1.2507
 4945SOL     OW19645   9.204   8.952   2.839  0.3940  0.6883 -0.5021
 4945SOL    HW119646   9.287   8.908   2.822  0.7000  0.2984  1.6886
 4945SOL    HW219647   9.173   8.914   2.921 -2.6209 -0.0824 -1.8512
 4946SOL     OW19648  10.288  12.418   4.927 -0.3805  0.9196 -0.3532
 4946SOL    HW119649  10.206  12.437   4.882 -0.9785  1.7172  1.0302
 4946SOL    HW219650  10.348  12.392   4.856 -1.6822  0.7243 -1.4280
 4947SOL     OW19651   1.109  11.306   9.236 -0.2947 -0.4230  0.2104
 4947SOL    HW119652   1.061  11.259   9.168 -0.1653 -0.4683  0.1496
 4947SOL    HW219653   1.060  11.289   9.316 -1.6027  1.2905 -0.1780
 4948SOL     OW19654   8.018   7.317   6.738 -0.3008  0.0006 -0.1047
 4948SOL    HW119655   8.090   7.304   6.677 -1.3541  2.3349 -2.0188
 4948SOL    HW219656   8.059   7.348   6.818  0.8719  1.4014 -1.1961
 4949SOL     OW19657   0.179   8.533   8.579  0.6207  0.5189 -0.0687
 4949SOL    HW119658   0.250   8.524   8.644  1.4134  0.8492 -0.8627
 4949SOL    HW219659   0.214   8.595   8.515 -0.8165  1.5251  0.0741
 4950SOL     OW19660   7.786   4.972  11.479 -0.5606  0.3473 -0.2534
 4950SOL    HW119661   7.816   5.025  11.405 -0.2079  0.1275 -0.2672
 4950SOL    HW219662   7.712   5.022  11.515 -0.2465  0.8427 -0.2768
 4951SOL     OW19663   2.745   7.989   1.104 -0.0599 -0.4335  0.1508
 4951SOL    HW119664   2.757   7.974   1.198  1.2702 -0.1536  0.0578
 4951SOL    HW219665   2.797   8.068   1.086  0.0015 -0.6923 -0.8790
 4952SOL     OW19666   3.850   4.147   6.929  0.2008 -0.5640 -0.3886
 4952SOL    HW119667   3.916   4.079   6.914  0.9884  0.2569 -0.7628
 4952SOL    HW219668   3.836   4.146   7.024  1.5199 -0.0843 -0.1641
 4953SOL     OW19669   0.902   6.520   9.326  0.1232 -0.2210  0.0707
 4953SOL    HW119670   0.841   6.475   9.384  1.3429 -0.8854  0.8734
 4953SOL    HW219671   0.950   6.450   9.283  0.8782  0.2923  0.0639
 4954SOL     OW19672   3.470  10.536   1.029  0.4624  0.0220  0.6092
 4954SOL    HW119673   3.470  10.462   1.089  1.3798  1.2632  2.1798
 4954SOL    HW219674   3.389  10.524   0.978  0.0182 -1.4320  1.5855
 4955SOL     OW19675   9.174  12.398   9.652  0.1819  0.2621 -0.2891
 4955SOL    HW119676   9.245  12.412   9.715 -0.9747 -2.3334  1.7726
 4955SOL    HW219677   9.162  12.304   9.649 -2.8554  0.5619 -0.8835
 4956SOL     OW19678   2.098   3.114   6.502 -0.1378  0.0933  0.9414
 4956SOL    HW119679   2.182   3.160   6.507  0.4913 -1.0255  0.9724
 4956SOL    HW219680   2.046   3.166   6.440  0.0006  1.6435  2.0682
 4957SOL     OW19681   3.226   9.590   5.987  0.0463  0.0336 -0.6172
 4957SOL    HW119682   3.136   9.592   5.953  0.2465  0.1935 -1.1412
 4957SOL    HW219683   3.242   9.497   6.005  0.0018 -0.0764 -1.1356
 4958SOL     OW19684   9.723  11.616   8.053  0.2993 -0.1674  0.3205
 4958SOL    HW119685   9.629  11.627   8.063  0.1211 -0.4278 -0.9232
 4958SOL    HW219686   9.745  11.540   8.106 -0.1686 -0.0209  0.7237
 4959SOL     OW19687   1.702   5.220   7.971  0.4346  0.7306  0.0836
 4959SOL    HW119688   1.722   5.138   8.017 -0.4279  0.2222 -0.4183
 4959SOL    HW219689   1.748   5.213   7.887 -0.5267  0.2476 -0.4234
 4960SOL     OW19690   9.332   0.246   3.246 -0.1486 -0.0180 -0.2913
 4960SOL    HW119691   9.326   0.182   3.175 -0.8363  1.4139 -1.5842
 4960SOL    HW219692   9.242   0.278   3.257  0.0434  0.1767  0.8646
 4961SOL     OW19693   1.157   0.640   2.585 -0.2830 -0.1824  0.1231
 4961SOL    HW119694   1.217   0.670   2.517  0.4744  2.0079  1.6354
 4961SOL    HW219695   1.189   0.554   2.611 -0.2188 -0.7701 -1.8110
 4962SOL     OW19696  12.541   1.240   7.687  0.1730 -0.0728 -0.4430
 4962SOL    HW119697  12.451   1.209   7.675  0.6075 -1.4023 -0.5055
 4962SOL    HW219698  12.563   1.217   7.777  0.0032  1.5191  0.0312
 4963SOL     OW19699   2.060   3.894   1.045  0.0940  1.0480 -0.0570
 4963SOL    HW119700   1.968   3.870   1.058 -0.0326  1.1528 -0.7208
 4963SOL    HW219701   2.083   3.944   1.123  0.0438 -0.2920  0.8541
 4964SOL     OW19702   7.207   9.715   8.793  0.0453 -0.7983  0.5664
 4964SOL    HW119703   7.169   9.801   8.814 -1.1700 -1.2146  0.1278
 4964SOL    HW219704   7.210   9.713   8.698  0.1979 -1.1892  0.5780
 4965SOL     OW19705  10.134   4.430   0.636  0.5595 -0.1976 -0.6013
 4965SOL    HW119706  10.136   4.398   0.726  1.5000  0.5871 -0.3295
 4965SOL    HW219707  10.124   4.525   0.644 -0.4787 -0.2192 -1.3587
 4966SOL     OW19708   4.987   0.904   1.483 -0.0887 -0.3312  0.1564
 4966SOL    HW119709   5.024   0.824   1.445 -1.7629 -0.8555 -0.4742
 4966SOL    HW219710   5.033   0.975   1.440 -0.0795 -0.9552 -0.9028
 4967SOL     OW19711  10.262   0.819  10.245 -0.0078 -0.3591  0.1560
 4967SOL    HW119712  10.214   0.864  10.176  0.5985 -0.3782 -0.2899
 4967SOL    HW219713  10.245   0.870  10.324  0.0785  0.2285 -0.2041
 4968SOL     OW19714   0.565   8.712   0.325  0.4335 -0.2013  0.9257
 4968SOL    HW119715   0.579   8.747   0.237  1.1626 -2.0358  0.2448
 4968SOL    HW219716   0.581   8.786   0.383  0.5433  0.9061 -0.4536
 4969SOL     OW19717   1.959   8.753  11.331  0.5420 -0.9862  0.0733
 4969SOL    HW119718   1.878   8.760  11.383  0.0781 -1.1438 -0.6188
 4969SOL    HW219719   1.941   8.803  11.252  1.4363 -0.3211  0.2838
 4970SOL     OW19720   2.537  12.155   1.904 -0.0441 -0.1089  0.3310
 4970SOL    HW119721   2.566  12.243   1.929 -0.7828 -0.2707  1.9233
 4970SOL    HW219722   2.611  12.099   1.928  0.5724  0.0945 -1.0246
 4971SOL     OW19723   1.446   0.258   0.446  0.9172 -0.1831  0.4392
 4971SOL    HW119724   1.523   0.238   0.498  2.0849 -0.6113 -1.3466
 4971SOL    HW219725   1.386   0.186   0.462  0.9437  0.0663  1.7198
 4972SOL     OW19726   2.324   8.645   0.468 -0.2922  0.1760  0.1989
 4972SOL    HW119727   2.317   8.602   0.383 -0.5184  1.3476 -0.3860
 4972SOL    HW219728   2.418   8.650   0.484 -0.1916 -3.7320  1.9772
 4973SOL     OW19729   9.740   4.149   2.010  0.1883  0.0458  0.1325
 4973SOL    HW119730   9.666   4.090   2.023  0.1177  0.3031  0.9554
 4973SOL    HW219731   9.722   4.223   2.068  1.6303 -0.3995  1.1969
 4974SOL     OW19732   6.972  12.144   7.186 -0.1743 -0.0662 -0.2600
 4974SOL    HW119733   6.975  12.079   7.117  0.7317 -0.0649 -0.2351
 4974SOL    HW219734   6.945  12.096   7.264  3.4910 -1.1989  0.5329
 4975SOL     OW19735   0.639   8.480   2.150 -0.4633  0.4974  0.4972
 4975SOL    HW119736   0.656   8.418   2.221 -0.9629 -1.4301 -0.9767
 4975SOL    HW219737   0.650   8.428   2.070 -1.4993  2.1811 -0.8053
 4976SOL     OW19738   0.474   8.253   9.025  0.0165  0.1884  0.0559
 4976SOL    HW119739   0.475   8.265   9.120  1.0455  2.8969 -0.2078
 4976SOL    HW219740   0.544   8.309   8.993 -0.2267 -0.7409 -2.3393
 4977SOL     OW19741  10.695   6.785  10.483 -0.2060 -0.3492  0.2897
 4977SOL    HW119742  10.765   6.739  10.529  0.6273  0.7933  0.1905
 4977SOL    HW219743  10.614   6.754  10.525  0.4768 -0.0449  1.8872
 4978SOL     OW19744  11.781   2.906   1.124 -0.2695 -0.4412  0.1682
 4978SOL    HW119745  11.691   2.898   1.090  0.5893 -2.0516 -1.9962
 4978SOL    HW219746  11.783   2.849   1.201 -1.5477  1.0470  1.3535
 4979SOL     OW19747   7.495   5.607   2.907 -0.0633  0.0070  0.1395
 4979SOL    HW119748   7.421   5.585   2.963  2.1364 -3.2276  2.1754
 4979SOL    HW219749   7.467   5.583   2.819 -1.4526 -1.2157  0.8765
 4980SOL     OW19750  11.693   6.183   4.905  0.2342  0.5655  0.3319
 4980SOL    HW119751  11.639   6.259   4.922  1.6196  1.9643 -1.1389
 4980SOL    HW219752  11.768   6.192   4.964 -0.1646 -0.3158  0.9947
 4981SOL     OW19753   9.561  12.136   2.492  0.0604  0.0156 -0.1191
 4981SOL    HW119754   9.586  12.221   2.528  2.1209 -0.4681 -0.2886
 4981SOL    HW219755   9.483  12.154   2.440  1.4356  2.1574 -1.5765
 4982SOL     OW19756   7.331   0.483   9.668 -0.7120  0.0071 -0.3094
 4982SOL    HW119757   7.315   0.479   9.574  0.3002  1.4653 -0.5670
 4982SOL    HW219758   7.425   0.503   9.676 -0.8132  0.0454  1.0019
 4983SOL     OW19759   9.068   6.032   6.911  0.3431 -0.0879  0.6155
 4983SOL    HW119760   9.138   6.010   6.849  0.7352  0.0427  1.0091
 4983SOL    HW219761   9.112   6.042   6.995  0.1169  1.6104  0.5852
 4984SOL     OW19762   7.248   6.610  10.758  0.1808 -0.0040 -0.2470
 4984SOL    HW119763   7.159   6.624  10.793  0.0565 -0.0306 -0.5503
 4984SOL    HW219764   7.283   6.698  10.748  0.4904 -0.0198  0.6398
 4985SOL     OW19765   9.735  10.842  11.105  0.5082 -0.4254  0.3163
 4985SOL    HW119766   9.643  10.819  11.113  0.6089 -1.0352 -0.2204
 4985SOL    HW219767   9.778  10.761  11.076  0.7656  0.5764 -2.3047
 4986SOL     OW19768  10.663  10.242   5.340  0.3620  0.0794 -0.3869
 4986SOL    HW119769  10.738  10.189   5.314  1.4309  1.1933  0.3563
 4986SOL    HW219770  10.589  10.180   5.340  1.0334 -0.7990 -2.1993
 4987SOL     OW19771  11.298   4.527   4.533  0.2740 -0.7068 -0.5100
 4987SOL    HW119772  11.350   4.463   4.580 -0.7672 -1.0091  0.2816
 4987SOL    HW219773  11.355   4.603   4.525  0.8222 -1.0019  0.3843
 4988SOL     OW19774   2.392   6.297   4.363  0.1849 -0.0135 -0.2762
 4988SOL    HW119775   2.434   6.265   4.283 -1.2825 -1.3461 -0.5672
 4988SOL    HW219776   2.301   6.314   4.338 -0.2903 -0.3721  1.0772
 4989SOL     OW19777   6.965   4.340   2.365  0.2937  0.2625 -0.2938
 4989SOL    HW119778   7.005   4.288   2.435 -0.9060 -0.2470  0.0359
 4989SOL    HW219779   6.909   4.403   2.411  1.0411  1.2803 -0.7294
 4990SOL     OW19780   0.079  12.497   3.222  0.3173  0.1727  0.2204
 4990SOL    HW119781   0.141  12.480   3.151  1.3855  0.5769  1.0298
 4990SOL    HW219782   0.065  12.412   3.263 -1.4288 -0.3464 -1.3162
 4991SOL     OW19783   9.523   5.970   0.785  0.1059  0.7430  0.4848
 4991SOL    HW119784   9.566   5.914   0.850  0.1423  0.5464  0.2914
 4991SOL    HW219785   9.455   5.914   0.747 -0.4568  1.1072  0.9283
 4992SOL     OW19786   3.386   2.816   9.175 -1.0836  0.4505  0.0262
 4992SOL    HW119787   3.337   2.892   9.205 -0.5613  1.3835 -1.4034
 4992SOL    HW219788   3.448   2.850   9.111 -0.0519 -1.0186  0.1749
 4993SOL     OW19789  12.467   7.333   8.133 -0.8797 -0.1351  0.5243
 4993SOL    HW119790  12.405   7.320   8.061 -1.7818  1.7259  0.8852
 4993SOL    HW219791  12.535   7.267   8.119 -0.2472  1.0143 -2.8694
 4994SOL     OW19792   8.919  11.079   1.276  0.0118  0.3105  0.2587
 4994SOL    HW119793   8.942  10.988   1.292 -0.4660  0.2399  0.5803
 4994SOL    HW219794   8.857  11.076   1.203 -2.2369  0.0779  2.0650
 4995SOL     OW19795   6.624  12.637  11.971  0.0375  0.4452 -0.3909
 4995SOL    HW119796   6.555  12.583  11.931  0.5391 -1.1611  0.8019
 4995SOL    HW219797   6.701  12.623  11.917 -0.1992  1.1414 -0.9207
 4996SOL     OW19798   8.124   3.715   8.935 -0.1741  0.2596  0.0527
 4996SOL    HW119799   8.187   3.764   8.987  2.2992 -0.4888 -2.0142
 4996SOL    HW219800   8.134   3.625   8.964  1.2065 -0.1615 -1.5457
 4997SOL     OW19801  12.241   1.095  10.449  0.2683  0.2386  0.8349
 4997SOL    HW119802  12.253   1.013  10.496  0.9292  0.2025  0.6107
 4997SOL    HW219803  12.233   1.161  10.517 -1.5425 -0.1530  1.0594
 4998SOL     OW19804  10.348   2.506   5.990 -0.4543  0.0697 -0.5225
 4998SOL    HW119805  10.418   2.448   6.021  1.0372  1.7662 -0.5383
 4998SOL    HW219806  10.278   2.495   6.054  0.6006 -0.2321  0.6322
 4999SOL     OW19807   1.010   5.952  10.808  0.3414  0.2446 -0.2748
 4999SOL    HW119808   0.998   5.908  10.724  0.6394  0.7264 -0.5703
 4999SOL    HW219809   0.933   5.926  10.860  0.0929  0.0515 -0.7388
 5000SOL     OW19810   8.829   3.712   2.828  0.1738  0.5256 -0.8416
 5000SOL    HW119811   8.835   3.659   2.748 -1.9249 -0.3271 -0.5186
 5000SOL    HW219812   8.827   3.648   2.899  0.1131  1.1673 -0.2587
 5001SOL     OW19813   2.776   7.405   3.003 -0.9754 -0.4765 -0.3319
 5001SOL    HW119814   2.718   7.381   3.075 -1.4960 -0.7975 -0.8530
 5001SOL    HW219815   2.837   7.332   2.996  0.1830  0.3368  0.9096
 5002SOL     OW19816   1.024   3.965   9.254 -0.5964 -0.3522 -0.0401
 5002SOL    HW119817   1.107   3.953   9.300  0.1671 -0.0528 -1.3061
 5002SOL    HW219818   0.983   3.878   9.256 -1.0838 -0.1360  2.0755
 5003SOL     OW19819  10.493   4.100   5.511  0.1499  0.2277 -0.4667
 5003SOL    HW119820  10.403   4.106   5.480  0.3384  1.6048 -0.8399
 5003SOL    HW219821  10.529   4.187   5.495  0.9231  0.3319  1.5867
 5004SOL     OW19822  12.184  11.674   0.977  0.1114  0.0207  0.2623
 5004SOL    HW119823  12.131  11.629   0.911  0.4277 -0.2658  0.2023
 5004SOL    HW219824  12.229  11.743   0.929 -0.0577  0.1453  0.2791
 5005SOL     OW19825   3.489   4.507   1.766 -0.2846 -0.1512  0.4141
 5005SOL    HW119826   3.435   4.469   1.697 -1.1646 -1.0318  1.5427
 5005SOL    HW219827   3.567   4.452   1.769  1.1860  1.6396 -1.8082
 5006SOL     OW19828   0.344   7.470   5.907  0.4586  0.4477  0.0871
 5006SOL    HW119829   0.412   7.512   5.854  1.5134 -0.9659  0.2710
 5006SOL    HW219830   0.359   7.501   5.996  0.7600  0.2776  0.0964
 5007SOL     OW19831   5.658   4.130   4.069  0.2606 -0.8893 -0.7289
 5007SOL    HW119832   5.659   4.100   3.977  0.6819  1.4218 -1.5447
 5007SOL    HW219833   5.582   4.188   4.075  0.2765 -0.9652  0.3793
 5008SOL     OW19834  11.800   2.520  12.401  0.0327  0.2708  0.3638
 5008SOL    HW119835  11.764   2.526  12.312  3.1552  1.4984 -0.9859
 5008SOL    HW219836  11.816   2.426  12.414 -1.7483 -0.0733  0.2531
 5009SOL     OW19837   7.740   5.650   3.538 -0.2237  0.2625 -0.0612
 5009SOL    HW119838   7.741   5.573   3.594  0.2936 -0.7164 -1.3666
 5009SOL    HW219839   7.681   5.627   3.466  2.1632 -0.1308 -2.0351
 5010SOL     OW19840   2.645   0.682   9.122  0.5273  0.0763 -0.1492
 5010SOL    HW119841   2.627   0.684   9.216  0.7314 -0.9502 -0.0787
 5010SOL    HW219842   2.698   0.761   9.106 -1.3686  1.4893  0.1706
 5011SOL     OW19843   5.052   0.917  10.982 -0.0275  0.2668 -0.5070
 5011SOL    HW119844   5.055   0.821  10.983 -2.9480  0.0503  1.3096
 5011SOL    HW219845   5.029   0.940  10.892  1.5169 -0.6253 -1.1718
 5012SOL     OW19846   8.129  10.364   1.378  0.4394  0.1361 -0.6417
 5012SOL    HW119847   8.221  10.365   1.350  0.2700 -0.9550 -1.2716
 5012SOL    HW219848   8.127  10.306   1.454 -0.3421 -3.4364 -3.1147
 5013SOL     OW19849  12.317   0.370  12.319  0.6357  0.3696  0.2329
 5013SOL    HW119850  12.407   0.367  12.286  0.7744 -1.5692  0.6504
 5013SOL    HW219851  12.326   0.397  12.411  0.5807  2.1142 -0.2424
 5014SOL     OW19852   5.308   5.821   5.318  0.5626  0.0512  0.1472
 5014SOL    HW119853   5.278   5.740   5.360  2.6011 -1.5895 -1.2863
 5014SOL    HW219854   5.235   5.848   5.263  0.0847 -1.2646  0.0945
 5015SOL     OW19855   3.032   0.921   5.640 -0.3222 -0.2661  0.2577
 5015SOL    HW119856   3.006   0.861   5.570 -3.2051  0.1492  0.8485
 5015SOL    HW219857   3.045   0.865   5.717  0.0392 -0.4162  0.0923
 5016SOL     OW19858   5.658  10.263   4.519  0.7613 -0.0603 -0.3138
 5016SOL    HW119859   5.578  10.249   4.571  1.2834 -1.5199  0.1467
 5016SOL    HW219860   5.699  10.177   4.515  1.1878  0.1790 -2.4384
 5017SOL     OW19861   3.630   9.466   9.732  0.2539  0.4913  0.1977
 5017SOL    HW119862   3.597   9.377   9.743  0.2762  0.2391 -1.4816
 5017SOL    HW219863   3.699   9.474   9.797 -0.8334 -0.1355  1.4774
 5018SOL     OW19864  12.535   3.944   6.184 -0.5208 -0.0979  0.5652
 5018SOL    HW119865  12.475   3.920   6.255 -1.6299  2.3937  0.5591
 5018SOL    HW219866  12.621   3.948   6.227 -0.8995 -0.2463  1.3734
 5019SOL     OW19867   8.292   7.274   0.832 -0.0793  0.2466  0.2998
 5019SOL    HW119868   8.236   7.346   0.860 -0.6721  0.8801 -2.2848
 5019SOL    HW219869   8.380   7.299   0.861 -0.7541  0.3081  2.4226
 5020SOL     OW19870   5.923   1.787   8.669  0.7639  0.3025  0.3036
 5020SOL    HW119871   5.828   1.776   8.672  0.7373  0.5880  0.5473
 5020SOL    HW219872   5.936   1.873   8.627  0.9013  0.4868  0.7189
 5021SOL     OW19873   8.376   2.764   6.368  0.0514  0.6495 -0.1764
 5021SOL    HW119874   8.354   2.835   6.307  1.7914  0.4517 -1.0957
 5021SOL    HW219875   8.370   2.684   6.315  1.3021  0.4453 -0.0338
 5022SOL     OW19876  10.048  12.312  10.068  0.4565 -0.1122 -0.3020
 5022SOL    HW119877  10.067  12.397  10.108 -0.0133 -0.4751  0.7318
 5022SOL    HW219878  10.114  12.253  10.104  2.1403  0.2120 -2.6517
 5023SOL     OW19879  11.296   3.249   1.755 -0.1048  0.1007 -0.6066
 5023SOL    HW119880  11.218   3.215   1.801  0.1643  0.2993  0.0100
 5023SOL    HW219881  11.342   3.299   1.822  1.8105 -1.9645 -0.2659
 5024SOL     OW19882   0.083  12.114  10.118  0.5032  0.1846  0.2601
 5024SOL    HW119883   0.138  12.038  10.098  0.5078  0.4401 -0.7624
 5024SOL    HW219884   0.018  12.115  10.048  0.1529  0.7911  0.5900
 5025SOL     OW19885   6.345   8.534   1.885 -1.1151 -0.2332 -0.2364
 5025SOL    HW119886   6.419   8.487   1.848  0.0403  0.1753  1.4588
 5025SOL    HW219887   6.290   8.465   1.923 -0.1125 -0.3681  1.0412
 5026SOL     OW19888   3.263   9.081   5.838  0.0824  0.3877  0.6075
 5026SOL    HW119889   3.194   9.055   5.899 -2.2510 -0.0639 -1.9533
 5026SOL    HW219890   3.217   9.136   5.774  1.5713 -1.6039 -2.4035
 5027SOL     OW19891   3.607   1.532   1.350 -0.3074  0.1370 -0.0120
 5027SOL    HW119892   3.540   1.592   1.319 -1.7998 -2.3714 -2.1340
 5027SOL    HW219893   3.688   1.564   1.311 -0.8095  1.4991  0.0320
 5028SOL     OW19894   9.259   5.240  11.967 -0.1799  0.1120 -0.2436
 5028SOL    HW119895   9.293   5.203  11.885  0.6404  1.7788 -0.6855
 5028SOL    HW219896   9.181   5.187  11.985  0.3015 -1.0882 -1.4317
 5029SOL     OW19897   3.271   8.571   6.187 -0.6662 -0.0288 -0.0298
 5029SOL    HW119898   3.333   8.503   6.159 -1.1185  0.0966 -1.4388
 5029SOL    HW219899   3.272   8.567   6.282  1.0285 -0.4621 -0.0311
 5030SOL     OW19900   6.157   3.762  10.569  0.0488 -0.4378 -0.0400
 5030SOL    HW119901   6.062   3.767  10.556  0.0937 -1.7806 -1.0242
 5030SOL    HW219902   6.191   3.838  10.523 -0.4354 -0.8741 -1.1707
 5031SOL     OW19903   5.082   3.128  11.464  0.2711 -0.2879  0.2713
 5031SOL    HW119904   5.048   3.200  11.517  0.3553 -0.3268  0.3768
 5031SOL    HW219905   5.168   3.158  11.435  1.0777 -1.0746  1.7779
 5032SOL     OW19906   9.680   6.256   9.866 -0.1339 -0.0787 -0.0473
 5032SOL    HW119907   9.736   6.323   9.828  2.3702 -1.4834  0.9148
 5032SOL    HW219908   9.591   6.286   9.849  0.8375  1.4947 -3.1043
 5033SOL     OW19909   4.541   4.278  11.665  0.1737  0.1885 -0.1028
 5033SOL    HW119910   4.546   4.183  11.662 -0.8075  0.0737  0.9024
 5033SOL    HW219911   4.631   4.308  11.657  0.4890 -0.8269 -0.4360
 5034SOL     OW19912   3.346   4.432  12.459  0.0427  0.1446 -0.0632
 5034SOL    HW119913   3.281   4.502  12.466  1.3736  1.3733  0.6600
 5034SOL    HW219914   3.379   4.421  12.548 -0.4828 -1.7938 -0.0590
 5035SOL     OW19915   1.419   3.341   9.184 -0.1907 -0.1246  0.5614
 5035SOL    HW119916   1.372   3.419   9.154  1.8532  0.6092 -0.9936
 5035SOL    HW219917   1.416   3.282   9.109 -0.5724 -1.0214  1.2682
 5036SOL     OW19918   1.697   1.249  10.217 -0.1174 -0.6880  0.3660
 5036SOL    HW119919   1.726   1.334  10.250 -2.2006  0.7347 -1.2229
 5036SOL    HW219920   1.624   1.226  10.274 -0.2026 -0.9229  0.1588
 5037SOL     OW19921   5.179   3.173   0.780 -0.3513 -0.2269  0.1379
 5037SOL    HW119922   5.241   3.236   0.815  0.7453 -2.4344  2.4414
 5037SOL    HW219923   5.100   3.185   0.833 -0.4810 -0.1651 -0.0675
 5038SOL     OW19924  11.269   7.658   6.938  0.4763  0.1147 -0.1473
 5038SOL    HW119925  11.178   7.626   6.937  0.8665 -1.0305 -0.4037
 5038SOL    HW219926  11.301   7.638   7.026  0.0333  1.9197  0.4766
 5039SOL     OW19927   0.494   4.802   7.599  0.7123  0.2230  0.5116
 5039SOL    HW119928   0.580   4.794   7.558  0.6245 -1.1069  0.5541
 5039SOL    HW219929   0.446   4.863   7.542  1.3406  0.1848 -0.0731
 5040SOL     OW19930   1.131   7.585  11.176  0.0941  0.2431 -0.1387
 5040SOL    HW119931   1.190   7.588  11.252 -1.2649 -0.4831  1.0019
 5040SOL    HW219932   1.183   7.545  11.107  1.2350  0.5007  0.5411
 5041SOL     OW19933   0.529   6.342   9.671  0.1754 -0.1796 -0.1148
 5041SOL    HW119934   0.508   6.355   9.579  0.0195 -0.9254 -0.1954
 5041SOL    HW219935   0.597   6.407   9.690  1.0338 -0.7622 -1.0649
 5042SOL     OW19936   5.558   3.863   6.647  0.1234  0.9316 -0.3324
 5042SOL    HW119937   5.522   3.839   6.562  0.6588 -0.1898 -0.2536
 5042SOL    HW219938   5.522   3.950   6.664 -2.7141 -0.1952 -0.1634
 5043SOL     OW19939   5.851   1.624   8.298  0.1848 -0.6756  0.3674
 5043SOL    HW119940   5.946   1.631   8.307  0.4407 -1.7117 -1.2878
 5043SOL    HW219941   5.817   1.661   8.380  1.9386  1.1718  0.3485
 5044SOL     OW19942  12.483  11.846   1.017  0.3807 -1.1736  0.4844
 5044SOL    HW119943  12.435  11.809   0.943  0.9714 -0.9278 -0.0264
 5044SOL    HW219944  12.523  11.926   0.982  1.9474 -1.8714  0.6248
 5045SOL     OW19945  10.360   5.013   8.070 -0.0675  0.0678 -0.5363
 5045SOL    HW119946  10.270   4.981   8.081 -0.6376  2.1582  2.0047
 5045SOL    HW219947  10.362   5.046   7.980 -1.8048 -0.2251 -0.7274
 5046SOL     OW19948   5.698   9.765   7.424  0.2447 -0.7012  0.8496
 5046SOL    HW119949   5.720   9.742   7.514 -2.7748  2.1381  2.4999
 5046SOL    HW219950   5.625   9.707   7.402  0.0415 -0.4194  0.7768
 5047SOL     OW19951   6.573   3.276   4.198  0.2350  0.2109  0.4967
 5047SOL    HW119952   6.532   3.322   4.271 -1.0204  0.1921 -0.1693
 5047SOL    HW219953   6.642   3.336   4.167  0.0512  0.6869  0.9941
 5048SOL     OW19954  10.293   0.598   5.196 -0.1502  0.6125  0.1080
 5048SOL    HW119955  10.376   0.552   5.188 -1.8112 -2.5952 -0.5199
 5048SOL    HW219956  10.285   0.619   5.289  0.9529  0.1419  0.3142
 5049SOL     OW19957   3.664   6.444   5.807  0.2174  0.0487 -0.1937
 5049SOL    HW119958   3.706   6.375   5.757  1.0031 -0.7513  1.4889
 5049SOL    HW219959   3.617   6.496   5.742  0.3652 -1.5179 -1.6026
 5050SOL     OW19960   3.940   7.957   1.504  0.5928 -0.2978  0.3962
 5050SOL    HW119961   3.857   8.001   1.524  0.6993  0.2817 -0.3754
 5050SOL    HW219962   3.949   7.965   1.409  3.4226  3.2728  0.7394
 5051SOL     OW19963   5.676   3.562   8.439  0.2766  0.7514  0.1878
 5051SOL    HW119964   5.768   3.545   8.455 -0.1578 -1.1145  1.0668
 5051SOL    HW219965   5.642   3.593   8.523 -0.1363  0.1013  0.2758
 5052SOL     OW19966  11.222   1.085   0.561 -0.3922 -0.6732 -0.2246
 5052SOL    HW119967  11.252   1.006   0.516 -0.1856 -0.2805 -0.8003
 5052SOL    HW219968  11.273   1.156   0.521 -0.5430 -0.2542  0.3104
 5053SOL     OW19969   2.773   8.120   4.895  0.4532  0.0415 -0.1888
 5053SOL    HW119970   2.723   8.052   4.850 -0.6027  1.1402 -0.7342
 5053SOL    HW219971   2.864   8.089   4.892  0.3850 -0.1219 -2.7859
 5054SOL     OW19972   5.515   1.334   0.216 -0.0599  0.0510  0.5337
 5054SOL    HW119973   5.572   1.410   0.221 -0.6198  0.4691  0.7042
 5054SOL    HW219974   5.479   1.337   0.127 -1.7486  1.2369  1.2093
 5055SOL     OW19975  11.286   5.532   8.856  0.1549 -0.0866 -0.2907
 5055SOL    HW119976  11.307   5.560   8.945 -2.5231 -1.0747  0.7784
 5055SOL    HW219977  11.347   5.461   8.837  2.0660  1.4458 -0.0853
 5056SOL     OW19978   6.450   8.332   3.114  0.4165 -0.3543  0.5690
 5056SOL    HW119979   6.444   8.286   3.030 -0.1347 -0.7356  0.8108
 5056SOL    HW219980   6.543   8.354   3.122  0.3054  0.6847 -0.6641
 5057SOL     OW19981  10.398  11.410   7.390  0.0345 -0.0427  0.8667
 5057SOL    HW119982  10.311  11.374   7.408  1.3806 -2.8689  2.5065
 5057SOL    HW219983  10.438  11.346   7.331  0.9275  1.3516 -0.0833
 5058SOL     OW19984   7.862  11.261   4.364 -0.0766 -0.1183 -0.2805
 5058SOL    HW119985   7.886  11.218   4.282 -0.0707  2.4633 -1.7348
 5058SOL    HW219986   7.930  11.327   4.377 -0.3324 -0.1727  1.5977
 5059SOL     OW19987  10.378   1.592   2.396 -0.2804 -0.0044  0.2706
 5059SOL    HW119988  10.407   1.588   2.487  0.5169  1.6489  0.1290
 5059SOL    HW219989  10.324   1.671   2.392 -0.4678 -0.1722 -0.6510
 5060SOL     OW19990   0.486   3.017  11.383 -0.5087 -0.3701  0.0512
 5060SOL    HW119991   0.510   2.995  11.293 -0.2947 -0.5450  0.1501
 5060SOL    HW219992   0.417   3.083  11.374  0.0634  0.1919 -0.2324
 5061SOL     OW19993  10.496  10.357   5.584  0.0278 -0.3678 -0.1396
 5061SOL    HW119994  10.520  10.450   5.578  0.2493 -0.4491 -0.5338
 5061SOL    HW219995  10.414  10.351   5.535  0.2006 -0.4449 -0.4212
 5062SOL     OW19996   4.278   6.881  11.000  0.0677 -0.1662 -0.1590
 5062SOL    HW119997   4.255   6.972  10.984 -0.8109 -0.3693 -0.1288
 5062SOL    HW219998   4.222   6.832  10.940 -0.7290 -0.7670  1.0464
 5063SOL     OW19999  12.532   7.137   0.011 -0.1141  0.3221 -0.5677
 5063SOL    HW120000  12.479   7.134  -0.069  0.1771  1.2536 -0.8100
 5063SOL    HW220001  12.511   7.221   0.051 -1.6657 -0.8993  1.3528
 5064SOL     OW20002   2.931   4.954  11.777  0.3946  0.0281 -0.1959
 5064SOL    HW120003   2.898   4.873  11.738  1.1896 -0.2093 -0.4036
 5064SOL    HW220004   3.014   4.970  11.732 -0.6232  1.9880 -1.5180
 5065SOL     OW20005   9.382   1.638   7.474 -0.1120  0.6199 -0.4385
 5065SOL    HW120006   9.456   1.697   7.457  1.3048 -0.0969  2.4741
 5065SOL    HW220007   9.331   1.683   7.542  0.1396 -0.7788  0.7226
 5066SOL     OW20008   9.179  10.322  11.965  0.2794 -0.1053  0.4233
 5066SOL    HW120009   9.192  10.391  12.030  2.3710 -0.4688  0.4559
 5066SOL    HW220010   9.147  10.369  11.887  0.0844  0.6702  0.9576
 5067SOL     OW20011  10.274   4.126   1.515  0.6303  0.3964 -0.0955
 5067SOL    HW120012  10.361   4.108   1.550  0.6789  1.7869  0.5680
 5067SOL    HW220013  10.286   4.131   1.421  1.4376  1.3385  0.0383
 5068SOL     OW20014   6.544   6.185  11.071 -0.3490 -0.0180 -0.0380
 5068SOL    HW120015   6.576   6.221  11.155  1.4200 -0.6186 -0.4093
 5068SOL    HW220016   6.487   6.113  11.096 -0.5209  0.3552  0.6715
 5069SOL     OW20017   8.030   6.010   5.218 -0.0386 -0.1008  0.6602
 5069SOL    HW120018   8.078   5.947   5.164  0.9328  1.5713 -0.5162
 5069SOL    HW220019   8.079   6.092   5.209 -1.9642  1.1686  1.0820
 5070SOL     OW20020   5.624   4.086   1.118 -0.6151 -0.2386 -0.1491
 5070SOL    HW120021   5.626   3.991   1.134  2.2044 -0.0673  1.0973
 5070SOL    HW220022   5.682   4.098   1.042  2.1114  0.7037  1.9281
 5071SOL     OW20023   9.314   4.619   7.621 -0.7147  0.7306 -0.1679
 5071SOL    HW120024   9.345   4.631   7.711 -1.2296 -0.3003  0.1707
 5071SOL    HW220025   9.219   4.606   7.631 -0.6235 -0.4812 -0.7381
 5072SOL     OW20026  12.313  12.179   4.373 -0.4300  0.3334  0.0628
 5072SOL    HW120027  12.349  12.171   4.285  0.4836  2.4028  0.1935
 5072SOL    HW220028  12.295  12.089   4.400  5.3135 -1.1109  0.2544
 5073SOL     OW20029   8.607   6.637  10.956  0.3188 -0.1711  0.2304
 5073SOL    HW120030   8.555   6.602  10.883 -0.1095 -1.9258  1.3164
 5073SOL    HW220031   8.641   6.559  11.000  2.0127  0.9058  0.8919
 5074SOL     OW20032   5.661   3.554   7.087  0.2172 -0.6420 -0.0332
 5074SOL    HW120033   5.717   3.486   7.050  1.7538  0.9986 -0.9092
 5074SOL    HW220034   5.661   3.623   7.021 -2.1757 -0.1963  0.3368
 5075SOL     OW20035   9.690   9.450  10.599 -0.1282 -0.6463  0.3951
 5075SOL    HW120036   9.679   9.355  10.606  1.5435 -0.8828  0.1438
 5075SOL    HW220037   9.783   9.465  10.615 -0.1225  0.8383 -0.7930
 5076SOL     OW20038   4.868   6.753   4.106  0.3770  0.0883  0.5587
 5076SOL    HW120039   4.803   6.782   4.042  1.2394  2.8760  0.8134
 5076SOL    HW220040   4.916   6.683   4.062 -0.0121  0.9229 -1.2898
 5077SOL     OW20041   3.582   1.036  11.709 -0.7380 -0.0219 -0.0086
 5077SOL    HW120042   3.594   1.088  11.788 -1.8424 -0.8127  0.7190
 5077SOL    HW220043   3.652   1.064  11.650  1.2720 -0.7099  1.9130
 5078SOL     OW20044   6.807   2.100   3.039 -0.0861  0.2795  0.7823
 5078SOL    HW120045   6.825   2.092   2.945 -0.8783 -0.3340  0.6628
 5078SOL    HW220046   6.891   2.120   3.079  0.3562  0.0163 -0.0038
 5079SOL     OW20047   1.472   6.138   8.907  0.6948 -0.0123  0.1140
 5079SOL    HW120048   1.424   6.101   8.833 -0.6661  1.4006  0.2286
 5079SOL    HW220049   1.408   6.142   8.977  1.4592  0.3755  0.8023
 5080SOL     OW20050   5.437   2.058   8.873 -0.2281  0.2898  0.2060
 5080SOL    HW120051   5.419   1.967   8.896 -1.9218  0.2530 -1.0323
 5080SOL    HW220052   5.383   2.109   8.934 -1.7462  0.3117 -1.0840
 5081SOL     OW20053   1.309  10.774   4.337 -0.2545  0.1842 -0.0331
 5081SOL    HW120054   1.402  10.794   4.338 -0.3515  0.7703 -1.1487
 5081SOL    HW220055   1.295  10.727   4.255 -1.1621  1.3637 -0.5961
 5082SOL     OW20056   1.272   1.529   9.794 -0.0822  0.1194  0.5223
 5082SOL    HW120057   1.260   1.611   9.842  1.5664  2.3427 -2.5206
 5082SOL    HW220058   1.367   1.518   9.788 -0.2293 -2.8026  1.9031
 5083SOL     OW20059   5.723   6.275   4.839  0.2277 -0.1751  0.8197
 5083SOL    HW120060   5.670   6.282   4.759 -0.4244 -1.3566  1.1192
 5083SOL    HW220061   5.678   6.331   4.902 -0.7452 -1.2138  1.0891
 5084SOL     OW20062   9.468   9.418   4.127 -0.1067  0.0385  0.5016
 5084SOL    HW120063   9.385   9.415   4.175  0.0274  0.2853  0.7578
 5084SOL    HW220064   9.444   9.445   4.039 -0.5274 -1.8127  0.0156
 5085SOL     OW20065   3.501   6.940   9.181  0.1075 -0.5776  0.1206
 5085SOL    HW120066   3.595   6.958   9.189 -0.0735  0.5085 -0.1041
 5085SOL    HW220067   3.480   6.962   9.090 -0.3423 -0.9381  0.1350
 5086SOL     OW20068   8.418  12.275   3.649 -0.1419 -0.3211  0.2549
 5086SOL    HW120069   8.432  12.182   3.628  4.5216  0.3772 -0.7764
 5086SOL    HW220070   8.401  12.316   3.564  0.9431  0.1059  0.2213
 5087SOL     OW20071   7.830  11.024   0.670 -0.3976 -0.2236  0.0076
 5087SOL    HW120072   7.746  11.054   0.635 -0.6434  1.6591  2.0148
 5087SOL    HW220073   7.889  11.097   0.657  0.7145 -1.1859 -0.5334
 5088SOL     OW20074   3.030   2.021   6.409 -0.4087 -0.7500  0.0087
 5088SOL    HW120075   2.954   1.964   6.421  0.0308 -1.3665 -0.0977
 5088SOL    HW220076   3.068   1.994   6.326  1.1930 -1.9719  1.0711
 5089SOL     OW20077   0.315   8.131  11.023  0.2995 -0.4169 -0.1261
 5089SOL    HW120078   0.287   8.045  10.992  1.0295 -1.2339  1.3351
 5089SOL    HW220079   0.381   8.112  11.089  0.6201  1.2885  0.0994
 5090SOL     OW20080   5.834   6.863   3.685  0.4020  0.2864 -0.2491
 5090SOL    HW120081   5.867   6.937   3.634 -0.6895 -0.0175 -1.4551
 5090SOL    HW220082   5.818   6.899   3.772 -0.3835  1.5469 -0.8957
 5091SOL     OW20083   9.560   4.250  11.430  0.1014  0.7598  0.4477
 5091SOL    HW120084   9.506   4.236  11.352 -0.0068  1.3713  0.4063
 5091SOL    HW220085   9.602   4.335  11.415  0.8154  0.4463  0.6324
 5092SOL     OW20086  11.360   2.561  10.085 -0.3024  0.1509 -0.5392
 5092SOL    HW120087  11.348   2.651  10.117  3.5892  0.6130  0.1523
 5092SOL    HW220088  11.393   2.513  10.161  1.3241 -0.8323 -1.7972
 5093SOL     OW20089   6.969   9.776  10.103 -0.1878  0.1348  0.4307
 5093SOL    HW120090   6.972   9.697  10.157 -0.4940 -0.1066  0.1003
 5093SOL    HW220091   6.877   9.802  10.103 -0.3058 -0.2242 -0.4755
 5094SOL     OW20092   8.480  11.240   3.288 -0.1895 -0.1154  0.4770
 5094SOL    HW120093   8.558  11.260   3.235  0.2408  0.2128  1.2172
 5094SOL    HW220094   8.465  11.319   3.340 -1.2507 -0.0358  0.0786
 5095SOL     OW20095   2.045   7.870   5.609 -0.5957 -0.0093  0.3610
 5095SOL    HW120096   1.993   7.817   5.549 -0.4052  0.0522  0.1384
 5095SOL    HW220097   2.097   7.807   5.659 -0.7941 -0.0636  0.4972
 5096SOL     OW20098   1.996  11.470  11.723 -0.4277 -0.1423 -0.2495
 5096SOL    HW120099   2.060  11.429  11.782 -0.8944  0.6353  0.8411
 5096SOL    HW220100   2.033  11.556  11.704  0.3091 -0.8265 -2.1235
 5097SOL     OW20101   3.715  11.651   6.807  0.0530  0.4747  0.2519
 5097SOL    HW120102   3.693  11.736   6.768  0.9291  0.0968 -1.1135
 5097SOL    HW220103   3.673  11.587   6.750  1.7731 -0.1099 -0.4130
 5098SOL     OW20104   8.466   8.952   7.767  0.0648  0.3340  0.0235
 5098SOL    HW120105   8.512   8.869   7.777 -0.2648  0.2043  0.5409
 5098SOL    HW220106   8.498   9.005   7.841  1.9429  1.4852 -1.5143
 5099SOL     OW20107   8.415   3.360  12.472  0.1550  0.4687  0.3324
 5099SOL    HW120108   8.473   3.436  12.470  2.6680 -1.2330  2.4857
 5099SOL    HW220109   8.361   3.373  12.550 -1.3499  1.2607 -0.7843
 5100SOL     OW20110   6.043   8.521  11.659 -0.1795 -0.2118 -0.1958
 5100SOL    HW120111   6.039   8.429  11.687  0.6568  0.0902  0.9844
 5100SOL    HW220112   5.994   8.523  11.577 -1.4010 -1.4620  0.4447
 5101SOL     OW20113  12.358  10.381   2.047  0.2252  0.0032  0.4127
 5101SOL    HW120114  12.393  10.453   1.996  1.3200  0.2018  1.4079
 5101SOL    HW220115  12.320  10.422   2.124 -1.4397 -0.2914 -0.2106
 5102SOL     OW20116   5.444   7.482   8.879 -0.1843  1.1333 -0.1777
 5102SOL    HW120117   5.408   7.469   8.967  0.2755  0.9855 -0.0078
 5102SOL    HW220118   5.368   7.471   8.820 -0.3775  0.6193  0.1581
 5103SOL     OW20119   4.519   2.472   5.579 -0.1487 -0.2093  0.0360
 5103SOL    HW120120   4.523   2.502   5.670 -1.0855 -0.6256  0.2192
 5103SOL    HW220121   4.544   2.379   5.583  0.2892 -0.1091 -0.2074
 5104SOL     OW20122   4.371   8.053   4.815  0.0597 -0.6891  0.1506
 5104SOL    HW120123   4.326   8.137   4.813  2.4555  0.6903  0.7099
 5104SOL    HW220124   4.404   8.044   4.904  0.7689 -1.6979 -0.1872
 5105SOL     OW20125   3.034  10.116  10.051 -0.1062  0.2289  0.3581
 5105SOL    HW120126   3.093  10.185  10.021 -0.5880 -0.0135 -1.2299
 5105SOL    HW220127   2.996  10.080   9.971 -3.2657  1.1442  1.2592
 5106SOL     OW20128  11.635   5.628   6.866  0.2201  0.3415  0.3582
 5106SOL    HW120129  11.725   5.639   6.838  0.7866 -0.1933  1.8444
 5106SOL    HW220130  11.626   5.534   6.883  0.5055  0.7671  3.5333
 5107SOL     OW20131   9.953   9.674   0.627 -0.2985 -0.4494  0.6132
 5107SOL    HW120132  10.027   9.660   0.567 -0.8552 -1.9235  0.2343
 5107SOL    HW220133   9.883   9.620   0.592 -0.7659 -1.0569  2.3913
 5108SOL     OW20134   9.378   0.054   8.453  0.2799 -0.0534  0.0741
 5108SOL    HW120135   9.287   0.067   8.478 -0.3144 -0.0849 -1.8864
 5108SOL    HW220136   9.406   0.138   8.418  1.0641 -0.0102  0.7714
 5109SOL     OW20137   0.826   3.408   6.567 -0.1465  0.0954  0.3455
 5109SOL    HW120138   0.806   3.502   6.567  1.0504  0.3760  0.4939
 5109SOL    HW220139   0.782   3.375   6.489 -0.8097  0.7248  0.4373
 5110SOL     OW20140   0.658   2.425   9.973  0.3576  0.3473  0.6609
 5110SOL    HW120141   0.699   2.347  10.010  0.2387  0.5334  1.1849
 5110SOL    HW220142   0.566   2.418   9.997  0.6737  1.6054  2.3919
 5111SOL     OW20143  11.352   3.640   8.599 -0.2568 -0.4294 -0.2928
 5111SOL    HW120144  11.399   3.561   8.625  0.4696  0.4227  1.0851
 5111SOL    HW220145  11.399   3.711   8.642 -0.3294  0.8608 -2.2387
 5112SOL     OW20146   6.028   7.722   3.173  0.3562  0.5936  0.4758
 5112SOL    HW120147   6.074   7.671   3.107  0.8341  3.0847 -1.2847
 5112SOL    HW220148   5.951   7.670   3.195  1.3591 -1.3322 -0.3757
 5113SOL     OW20149   5.061   0.092   2.765  0.0206  0.2349  0.4671
 5113SOL    HW120150   5.095   0.005   2.784 -0.0506  0.1485  0.2118
 5113SOL    HW220151   5.037   0.128   2.850  0.9575  0.3861  0.6721
 5114SOL     OW20152   7.084  12.339  11.307 -0.6499 -0.0530 -0.0655
 5114SOL    HW120153   7.146  12.283  11.261  0.7101  0.4989  1.0326
 5114SOL    HW220154   7.006  12.339  11.251  0.5171 -0.3276 -1.7740
 5115SOL     OW20155  11.081   2.968   9.115 -0.2426 -0.1492  0.0930
 5115SOL    HW120156  11.064   2.876   9.099 -0.9275 -0.1731  0.8895
 5115SOL    HW220157  11.154   2.990   9.057 -0.3385 -1.0835 -0.3918
 5116SOL     OW20158  11.164   1.738  10.274 -0.1514 -0.3089  0.0311
 5116SOL    HW120159  11.251   1.760  10.307 -0.1496  1.1359 -0.8308
 5116SOL    HW220160  11.141   1.656  10.318  1.5190 -0.5716  0.4724
 5117SOL     OW20161   8.382   9.639  12.436 -0.1160  0.2084 -0.0318
 5117SOL    HW120162   8.363   9.547  12.417  0.2038 -0.1979  1.4300
 5117SOL    HW220163   8.470   9.653  12.403 -0.2411  0.0518 -0.4377
 5118SOL     OW20164  11.886   0.054   4.861  0.5260  0.5019 -0.8395
 5118SOL    HW120165  11.972   0.027   4.892  0.5355 -1.1049 -2.1098
 5118SOL    HW220166  11.902   0.086   4.772 -0.1808  0.1686 -1.0939
 5119SOL     OW20167   9.097   6.229   6.504 -0.3322 -0.1237  0.0553
 5119SOL    HW120168   9.036   6.176   6.556 -0.6546  0.6692  0.4931
 5119SOL    HW220169   9.041   6.284   6.450 -0.0133  0.6868  0.5324
 5120SOL     OW20170   9.736   1.034  11.227 -0.5222  0.1028 -0.0355
 5120SOL    HW120171   9.794   0.958  11.222 -2.2246 -1.3852  1.4516
 5120SOL    HW220172   9.672   1.020  11.157 -1.5064 -0.4825  0.9450
 5121SOL     OW20173   5.538   1.086   3.836  0.2019 -0.2183  0.1761
 5121SOL    HW120174   5.560   1.056   3.748 -2.3276 -0.3409 -0.5063
 5121SOL    HW220175   5.472   1.024   3.866  0.5550  0.2013  1.9260
 5122SOL     OW20176   1.580   3.656   8.248 -0.1316 -0.1732  0.1806
 5122SOL    HW120177   1.637   3.594   8.203 -0.8222 -0.2851 -0.5431
 5122SOL    HW220178   1.513   3.602   8.290  0.0649 -0.0116  0.7185
 5123SOL     OW20179   4.720   8.438   4.357 -0.2863 -0.0237  0.0655
 5123SOL    HW120180   4.748   8.481   4.276 -1.5448 -0.4519 -0.6134
 5123SOL    HW220181   4.743   8.346   4.344 -1.6613 -0.3251 -0.3691
 5124SOL     OW20182  12.214   2.260   7.991 -0.2003 -0.4110  0.6394
 5124SOL    HW120183  12.145   2.326   7.997 -0.9855 -1.1395 -0.1030
 5124SOL    HW220184  12.170   2.182   7.957  1.4012 -0.2311 -2.1820
 5125SOL     OW20185   1.675   5.362   1.874  0.0145 -0.2853  0.6439
 5125SOL    HW120186   1.581   5.353   1.892 -0.2703  1.9181  0.5347
 5125SOL    HW220187   1.680   5.424   1.802  1.5918  1.0166  1.7983
 5126SOL     OW20188   9.910  10.346  11.022  0.2288  0.0254  0.3452
 5126SOL    HW120189   9.835  10.404  11.019 -0.0381 -0.3462 -0.1590
 5126SOL    HW220190   9.986  10.405  11.020 -0.0222  0.4800  2.1372
 5127SOL     OW20191  12.010   2.024   9.666 -0.1589 -0.4601  0.2244
 5127SOL    HW120192  12.019   1.929   9.667 -1.4646 -0.5986  0.3293
 5127SOL    HW220193  12.010   2.049   9.759 -1.5932 -0.5720  0.2832
 5128SOL     OW20194   0.975   6.569   8.751  0.0649 -0.2718 -0.0147
 5128SOL    HW120195   0.955   6.476   8.754  1.5919 -0.6194  0.2182
 5128SOL    HW220196   0.962   6.594   8.660 -1.5524 -0.3922  0.1430
 5129SOL     OW20197   5.824   7.347  10.309  0.6543  0.0359 -0.1529
 5129SOL    HW120198   5.892   7.307  10.363 -0.0123 -0.0939  0.6127
 5129SOL    HW220199   5.846   7.440  10.306 -0.3545  0.4039  2.0221
 5130SOL     OW20200   2.643  10.128   3.094 -0.4662 -0.6584  0.2098
 5130SOL    HW120201   2.591  10.048   3.081 -0.4100 -0.2747 -3.2738
 5130SOL    HW220202   2.734  10.101   3.077 -0.4188  0.0924 -0.7820
 5131SOL     OW20203   7.363   5.511  12.500  0.2447  0.5674  0.4978
 5131SOL    HW120204   7.340   5.526  12.592  1.4212 -1.3717  1.1634
 5131SOL    HW220205   7.428   5.580  12.481  1.2942 -0.0291  1.6954
 5132SOL     OW20206   8.815   0.995   3.639 -0.0100 -0.6792 -0.3815
 5132SOL    HW120207   8.879   1.043   3.587 -0.0175 -0.9028 -0.5965
 5132SOL    HW220208   8.860   0.913   3.663 -0.1947 -0.8110 -0.4855
 5133SOL     OW20209   8.028   7.649   6.777  0.5779 -0.2108  0.0763
 5133SOL    HW120210   8.032   7.579   6.842 -0.0633  0.0972  0.4570
 5133SOL    HW220211   8.098   7.709   6.803  0.7206 -0.3976  0.1244
 5134SOL     OW20212   1.656   6.249   3.011  0.1786  0.1845 -0.3871
 5134SOL    HW120213   1.702   6.204   2.940 -1.8603 -0.2058 -1.5393
 5134SOL    HW220214   1.642   6.181   3.077 -0.2067 -0.1149 -0.7737
 5135SOL     OW20215   8.179   0.391   5.395 -0.0654  0.0225 -0.4031
 5135SOL    HW120216   8.258   0.435   5.363  0.2531 -0.3280 -0.1056
 5135SOL    HW220217   8.211   0.328   5.460 -0.5743 -0.2337 -0.3963
 5136SOL     OW20218   4.343  11.970   3.107 -0.4362 -0.2374 -0.4151
 5136SOL    HW120219   4.416  11.919   3.071 -0.0691 -1.0601  1.3990
 5136SOL    HW220220   4.385  12.033   3.166 -1.0037  1.3034 -1.5789
 5137SOL     OW20221  12.303   2.833   2.128 -0.1585  0.2135 -0.1637
 5137SOL    HW120222  12.398   2.836   2.134 -0.2431  0.4189  1.3910
 5137SOL    HW220223  12.272   2.899   2.191 -1.3285  0.2251 -0.7150
 5138SOL     OW20224   8.106   8.981   3.044 -0.4378 -0.2464  0.3407
 5138SOL    HW120225   8.093   9.005   2.952  0.5217 -1.7772 -0.2298
 5138SOL    HW220226   8.050   9.042   3.092 -1.6201  0.0497 -1.3035
 5139SOL     OW20227   1.954   5.344   8.212  0.1188  0.1212 -0.0894
 5139SOL    HW120228   1.898   5.337   8.289  1.5884 -1.5411  0.9262
 5139SOL    HW220229   1.954   5.256   8.175 -0.1454  0.7730 -1.7152
 5140SOL     OW20230   6.156  11.569   5.886  0.3463  0.0340  0.7366
 5140SOL    HW120231   6.193  11.578   5.974  1.2022  1.1513  0.2751
 5140SOL    HW220232   6.184  11.647   5.839 -0.8502 -0.1085 -0.2805
 5141SOL     OW20233   3.479  11.293  11.878  0.3940 -0.3855 -0.4767
 5141SOL    HW120234   3.433  11.260  11.801 -2.0321 -0.7689  1.0334
 5141SOL    HW220235   3.480  11.220  11.939 -0.6678  0.8308  1.0738
 5142SOL     OW20236   2.930   5.448  10.404  0.3698  0.2147 -0.0060
 5142SOL    HW120237   2.983   5.394  10.345  1.6506  0.3812  0.9552
 5142SOL    HW220238   2.879   5.385  10.454  1.8950 -0.1496  1.1458
 5143SOL     OW20239   9.834   0.619   1.202 -0.5418  0.2730 -0.4018
 5143SOL    HW120240   9.792   0.573   1.275 -0.4392  0.0388 -0.4891
 5143SOL    HW220241   9.876   0.550   1.151  0.5390  0.5703  0.0545
 5144SOL     OW20242   3.335   7.826   9.503 -0.3674 -0.3784  0.2155
 5144SOL    HW120243   3.383   7.905   9.479  0.0878 -0.9765 -0.9043
 5144SOL    HW220244   3.325   7.833   9.598  0.2700  0.6812  0.2268
 5145SOL     OW20245   3.130   1.685   8.417 -0.4734 -0.4291  0.1332
 5145SOL    HW120246   3.113   1.724   8.502 -1.8531  0.9618 -0.7184
 5145SOL    HW220247   3.224   1.666   8.417 -0.4619 -0.4984  1.9443
 5146SOL     OW20248   6.043   6.228   0.592  0.0768  0.3859 -0.2800
 5146SOL    HW120249   6.026   6.299   0.530  0.5924  2.5241  1.8945
 5146SOL    HW220250   6.122   6.254   0.638 -0.3280 -1.0755  1.3417
 5147SOL     OW20251   5.300  10.393  12.260 -0.2551  0.3172 -0.3373
 5147SOL    HW120252   5.216  10.438  12.273 -0.5599 -0.6871  1.4803
 5147SOL    HW220253   5.366  10.462  12.271 -0.7738  0.6937  0.5009
 5148SOL     OW20254  10.777   7.580   0.118 -0.3467  0.0819  0.6454
 5148SOL    HW120255  10.852   7.543   0.071 -1.6325 -0.3647 -1.1736
 5148SOL    HW220256  10.704   7.523   0.093 -1.6075  1.4760  1.0491
 5149SOL     OW20257  11.840   9.859  10.303  0.5649  0.6596  0.2312
 5149SOL    HW120258  11.813   9.947  10.277  2.2689  1.2403  0.3171
 5149SOL    HW220259  11.842   9.861  10.398  1.3691  0.7679  0.2121
 5150SOL     OW20260   4.524   0.817   7.356 -0.0948  0.5318  0.1166
 5150SOL    HW120261   4.503   0.880   7.425 -1.5460  0.4045 -0.1847
 5150SOL    HW220262   4.501   0.732   7.392  0.7468  0.2730  0.0792
 5151SOL     OW20263   4.128   0.719   4.388 -0.1930 -0.1553  1.0329
 5151SOL    HW120264   4.037   0.747   4.401 -0.4826 -1.1843  1.3380
 5151SOL    HW220265   4.176   0.800   4.370 -1.3395  0.3000 -0.1669
 5152SOL     OW20266   6.591  10.009   0.726 -0.2302 -0.1336 -0.2511
 5152SOL    HW120267   6.497  10.025   0.719  0.0179  0.8912 -1.5643
 5152SOL    HW220268   6.599   9.946   0.797 -1.9033 -0.1899 -0.0732
 5153SOL     OW20269   4.152   1.969   1.395  0.0542  0.3299 -0.4238
 5153SOL    HW120270   4.109   1.949   1.478 -0.1465  0.4933 -0.4854
 5153SOL    HW220271   4.195   2.054   1.410  0.5928  0.0358 -0.2758
 5154SOL     OW20272  10.413   1.604  12.615 -0.7386  0.4695 -0.0565
 5154SOL    HW120273  10.347   1.611  12.546  0.2703  1.8960 -0.9376
 5154SOL    HW220274  10.366   1.624  12.696 -1.8740 -0.9177 -0.3421
 5155SOL     OW20275   2.843   9.454   3.371 -0.6988  0.2637  0.4111
 5155SOL    HW120276   2.792   9.479   3.295 -1.9328 -1.1476  0.7203
 5155SOL    HW220277   2.778   9.424   3.435  0.3777  0.4711  1.6460
 5156SOL     OW20278   3.956   6.704   6.348 -0.0235  0.1218 -0.2754
 5156SOL    HW120279   3.942   6.616   6.313 -0.9108  0.3848 -0.6187
 5156SOL    HW220280   4.051   6.710   6.361  0.0557 -0.8491 -0.3215
 5157SOL     OW20281   3.294   9.797  10.852  0.0755  0.0640 -0.1001
 5157SOL    HW120282   3.359   9.728  10.868 -0.0143 -0.0551 -0.2467
 5157SOL    HW220283   3.249   9.806  10.936  1.2687  1.1933  0.4475
 5158SOL     OW20284   4.008   2.868  11.465 -0.0683  0.6489 -0.1491
 5158SOL    HW120285   3.916   2.896  11.462  0.2265  1.5882 -1.7974
 5158SOL    HW220286   4.055   2.944  11.501  0.2217  0.6826 -0.5924
 5159SOL     OW20287   3.359   0.762   5.360  0.4694  0.3569  0.2058
 5159SOL    HW120288   3.391   0.692   5.303  1.8526  0.7668  0.4172
 5159SOL    HW220289   3.439   0.805   5.391 -0.2151 -0.0116  2.6949
 5160SOL     OW20290  11.267   8.755  10.042  0.2788  0.4580 -0.2595
 5160SOL    HW120291  11.186   8.718  10.075  0.6017 -0.1612 -0.1467
 5160SOL    HW220292  11.289   8.825  10.103  0.0078  0.4075 -0.1045
 5161SOL     OW20293   2.085   4.267   5.708 -0.1838 -0.1885  0.3643
 5161SOL    HW120294   2.097   4.281   5.615 -0.8794 -0.6093  0.1996
 5161SOL    HW220295   1.993   4.241   5.717 -0.6141  1.5124  1.3586
 5162SOL     OW20296   8.681   5.958  11.176 -0.6406  0.1700  0.2257
 5162SOL    HW120297   8.724   6.031  11.131  0.7276 -1.2485 -0.8879
 5162SOL    HW220298   8.747   5.890  11.180 -2.4348 -1.7345 -0.5403
 5163SOL     OW20299  10.788   0.901  11.197 -0.1502 -0.4979  0.2378
 5163SOL    HW120300  10.801   0.922  11.289 -0.7039  0.3643  0.1248
 5163SOL    HW220301  10.813   0.981  11.150 -1.4669 -0.3564 -0.2579
 5164SOL     OW20302   5.861   2.341   1.924  0.1036 -0.1522  0.4310
 5164SOL    HW120303   5.896   2.357   2.012  0.1730  1.6078  0.1268
 5164SOL    HW220304   5.766   2.348   1.935  0.1128  0.0796  0.3644
 5165SOL     OW20305   3.243   1.842   7.053 -0.1059 -0.5202 -0.2653
 5165SOL    HW120306   3.310   1.877   6.994  2.3699 -1.5659  1.7080
 5165SOL    HW220307   3.224   1.755   7.019 -0.3420 -0.2955 -0.7209
 5166SOL     OW20308   5.801   5.246   4.258 -0.3880  0.3118  0.2401
 5166SOL    HW120309   5.722   5.237   4.204 -0.3951 -0.9596  0.4288
 5166SOL    HW220310   5.873   5.241   4.195 -0.4402  1.5402  0.0598
 5167SOL     OW20311   2.547   8.500   0.065 -0.5648  0.2492  0.7590
 5167SOL    HW120312   2.536   8.406   0.076 -0.8805  0.0870 -0.7887
 5167SOL    HW220313   2.500   8.521  -0.015 -1.3988  1.9171  1.6299
 5168SOL     OW20314   1.799   7.577  11.126 -0.6969 -0.0885 -0.1895
 5168SOL    HW120315   1.882   7.533  11.147 -0.5730  0.3520  0.2539
 5168SOL    HW220316   1.798   7.582  11.030  1.2267  2.5946 -0.1635
 5169SOL     OW20317  12.463   9.093   1.099 -0.4782 -0.7183 -0.3416
 5169SOL    HW120318  12.459   9.177   1.144 -0.4800 -0.8158 -0.1547
 5169SOL    HW220319  12.488   9.031   1.168  0.6147 -0.7030 -0.7134
 5170SOL     OW20320   2.413  11.590   8.811  0.3088 -0.5399 -0.1433
 5170SOL    HW120321   2.427  11.673   8.766 -1.4661 -0.5718 -0.8456
 5170SOL    HW220322   2.448  11.604   8.899  0.2302  0.8779 -0.3111
 5171SOL     OW20323  12.055   7.099   4.221 -0.3687  0.4234 -0.1665
 5171SOL    HW120324  11.986   7.033   4.228  0.0572  0.0631  0.7206
 5171SOL    HW220325  12.135   7.054   4.249  0.6828  0.1631 -3.1745
 5172SOL     OW20326   0.991   3.199   9.357 -0.1276  0.1374 -0.2785
 5172SOL    HW120327   1.063   3.137   9.355  0.0531  0.3582 -2.0512
 5172SOL    HW220328   0.919   3.152   9.399  0.4599 -0.7367 -0.2473
 5173SOL     OW20329   9.761   3.430   9.451 -0.1996  0.2121  0.2594
 5173SOL    HW120330   9.813   3.441   9.371  0.5750  1.2085  0.8781
 5173SOL    HW220331   9.826   3.409   9.519 -0.8908 -1.0740  0.5531
 5174SOL     OW20332   5.965   7.633   6.089  0.0177 -0.1226 -0.3642
 5174SOL    HW120333   6.030   7.563   6.086 -0.4525 -0.5899 -3.5886
 5174SOL    HW220334   5.896   7.603   6.030 -1.2467  2.0838 -0.0886
 5175SOL     OW20335   6.053   9.027   3.849 -0.2527  1.0502 -0.1102
 5175SOL    HW120336   6.055   9.071   3.934 -0.2476  0.8901 -0.0269
 5175SOL    HW220337   6.090   9.091   3.788 -0.1456  1.1222  0.0295
 5176SOL     OW20338   6.642   6.532   3.612  0.1823 -0.3168  0.0692
 5176SOL    HW120339   6.660   6.453   3.664  0.3741 -0.6009 -0.4198
 5176SOL    HW220340   6.624   6.499   3.524 -0.0660  0.1644 -0.0642
 5177SOL     OW20341  12.205   9.116   3.053 -0.2877  0.1980  0.8462
 5177SOL    HW120342  12.261   9.175   3.003 -1.3558 -0.2400 -0.9275
 5177SOL    HW220343  12.260   9.038   3.067 -0.1654  0.0719 -0.2219
 5178SOL     OW20344  12.434   4.897   2.924  0.6645 -0.0283 -0.0592
 5178SOL    HW120345  12.352   4.924   2.966  1.0245  1.1654 -0.0801
 5178SOL    HW220346  12.451   4.965   2.859  0.7086 -1.2530 -1.3691
 5179SOL     OW20347   4.690   8.742   6.204  0.2253 -0.2604 -0.2197
 5179SOL    HW120348   4.764   8.682   6.207 -0.3688 -0.9675  1.0009
 5179SOL    HW220349   4.620   8.693   6.161  0.0999 -0.0151 -0.3004
 5180SOL     OW20350   5.986   5.661   4.100  0.4385 -1.1780  0.3195
 5180SOL    HW120351   6.000   5.590   4.038  1.2892 -1.6153  1.0056
 5180SOL    HW220352   5.926   5.625   4.166 -1.3076 -0.3944 -0.7495
 5181SOL     OW20353  11.325   7.118   0.865  0.3240  0.8690  0.1270
 5181SOL    HW120354  11.291   7.183   0.926 -1.6628  0.7007 -0.6864
 5181SOL    HW220355  11.301   7.034   0.904  1.2264  0.6832  0.2853
 5182SOL     OW20356  10.431  11.216   2.076  0.0465  0.2378  0.8603
 5182SOL    HW120357  10.488  11.243   2.004 -0.4652 -1.6189 -0.2951
 5182SOL    HW220358  10.369  11.288   2.085  0.1454  0.5321 -0.5408
 5183SOL     OW20359   2.666   5.048  12.577 -0.3637  0.2333  0.0710
 5183SOL    HW120360   2.685   5.077  12.488 -1.8520  1.2869  0.0574
 5183SOL    HW220361   2.616   4.968  12.566  3.2210 -2.2216  0.0993
 5184SOL     OW20362  11.883   3.429   7.394 -0.2601 -0.2986  0.1020
 5184SOL    HW120363  11.925   3.345   7.376 -1.1451 -0.2112 -2.8290
 5184SOL    HW220364  11.795   3.420   7.359 -2.0777  0.3112  4.0185
 5185SOL     OW20365  10.879   7.546   2.239 -0.6686 -0.2712 -0.0082
 5185SOL    HW120366  10.865   7.470   2.295 -1.6009 -0.5149 -0.5636
 5185SOL    HW220367  10.972   7.542   2.216 -0.5422 -0.8205  0.5583
 5186SOL     OW20368   7.598   1.841  11.978 -0.3673  0.1535 -0.0888
 5186SOL    HW120369   7.530   1.892  12.023  0.5880  0.5615  0.9689
 5186SOL    HW220370   7.675   1.851  12.034  0.3656 -0.8965 -0.8772
 5187SOL     OW20371   3.614   4.254  11.429  0.2756  0.0499 -0.0258
 5187SOL    HW120372   3.572   4.224  11.509  1.2743 -1.5465 -0.0504
 5187SOL    HW220373   3.552   4.233  11.359  0.0794 -0.0475  0.1782
 5188SOL     OW20374   1.888   2.237   8.641  0.2498 -0.3071 -0.1986
 5188SOL    HW120375   1.978   2.252   8.612  0.0630 -2.4599 -2.1942
 5188SOL    HW220376   1.888   2.263   8.733  3.4271 -1.9216  0.3958
 5189SOL     OW20377  11.896   4.033   3.403  0.3079  0.0889 -0.3911
 5189SOL    HW120378  11.974   4.035   3.348  0.6591  0.1494  0.0981
 5189SOL    HW220379  11.920   3.976   3.476 -0.8116 -1.5774 -1.2647
 5190SOL     OW20380   9.802   0.381   5.456  0.0280 -0.0580 -0.3400
 5190SOL    HW120381   9.788   0.401   5.549  2.3110  3.4390 -0.5637
 5190SOL    HW220382   9.888   0.339   5.454  0.0724  0.0554 -0.8464
 5191SOL     OW20383   1.912  12.258   2.037  0.2129 -0.5124 -0.9096
 5191SOL    HW120384   1.822  12.290   2.028 -0.2845 -1.1701  1.1617
 5191SOL    HW220385   1.934  12.224   1.951 -1.5620 -0.4327 -1.4300
 5192SOL     OW20386  12.090   9.093   6.589 -0.4826  0.0056 -0.1275
 5192SOL    HW120387  12.116   9.172   6.638  0.2406  0.3892 -1.1125
 5192SOL    HW220388  11.996   9.086   6.605 -0.4939  0.8528  0.2821
 5193SOL     OW20389   7.339   4.993   0.364  0.4995  0.0289 -0.1992
 5193SOL    HW120390   7.428   4.961   0.348  0.7850  1.2511 -1.2223
 5193SOL    HW220391   7.330   4.992   0.460  0.9866 -1.6773 -0.1334
 5194SOL     OW20392  11.693   8.519   3.001  0.2492 -0.3637 -0.2973
 5194SOL    HW120393  11.636   8.458   2.953 -1.6244  1.1268 -0.1114
 5194SOL    HW220394  11.755   8.551   2.936  0.8938 -2.0093 -0.5222
 5195SOL     OW20395   5.310  11.017   1.657 -0.5469 -0.1666 -0.3534
 5195SOL    HW120396   5.341  11.103   1.685 -0.5710 -0.7421  1.5388
 5195SOL    HW220397   5.249  11.036   1.585  0.4880  1.2797 -0.8989
 5196SOL     OW20398  12.155   2.393   8.852  0.6254 -0.1852  1.0202
 5196SOL    HW120399  12.195   2.307   8.860  0.5418 -0.6006 -1.9134
 5196SOL    HW220400  12.111   2.407   8.936  0.0311 -3.3245  1.3617
 5197SOL     OW20401   9.319   3.397   6.583  0.4653 -0.6420 -0.3547
 5197SOL    HW120402   9.298   3.319   6.531  0.1930 -0.9054  0.1457
 5197SOL    HW220403   9.281   3.380   6.669 -0.2844  0.3885 -0.4686
 5198SOL     OW20404  11.464   0.163   9.466 -0.7384 -0.0250  0.1057
 5198SOL    HW120405  11.418   0.084   9.438  0.7570 -0.4086 -1.4386
 5198SOL    HW220406  11.546   0.161   9.418 -0.3374  2.1041  0.6097
 5199SOL     OW20407   3.253   9.696   0.112 -0.5592 -0.5122  0.1340
 5199SOL    HW120408   3.202   9.771   0.081  2.7406  1.5223 -1.0124
 5199SOL    HW220409   3.268   9.644   0.033  1.1532  0.3228 -0.1434
 5200SOL     OW20410   2.468  10.776   5.173  0.0420  0.2517 -0.2862
 5200SOL    HW120411   2.510  10.721   5.108 -0.5362 -2.7790  1.6975
 5200SOL    HW220412   2.380  10.740   5.183 -0.1972  1.1891  1.4810
 5201SOL     OW20413   6.673  10.414   6.137 -0.5596 -0.2346  0.5246
 5201SOL    HW120414   6.612  10.346   6.166 -0.1641 -1.2423 -0.8706
 5201SOL    HW220415   6.746  10.365   6.100  0.4486  0.9645  0.8749
 5202SOL     OW20416   8.536  12.534   7.353  0.4316  0.1950 -0.2937
 5202SOL    HW120417   8.444  12.543   7.331  0.5213 -0.1417 -0.8255
 5202SOL    HW220418   8.581  12.532   7.268  0.7663 -1.3188 -0.1083
 5203SOL     OW20419  10.798   5.864   6.439 -0.2828  0.2472 -0.8303
 5203SOL    HW120420  10.879   5.818   6.419  0.9492  1.5147  1.0133
 5203SOL    HW220421  10.779   5.841   6.530 -0.6695  1.8341 -0.4791
 5204SOL     OW20422  12.362   1.699   5.521  0.0278  0.1964  0.3103
 5204SOL    HW120423  12.316   1.752   5.455 -0.8451 -0.1645  0.6051
 5204SOL    HW220424  12.321   1.724   5.604  0.0807 -0.4334  0.5318
 5205SOL     OW20425   2.783   2.319   7.029  0.0048  0.3578 -0.2745
 5205SOL    HW120426   2.737   2.404   7.027 -1.1175 -0.2276 -0.4399
 5205SOL    HW220427   2.787   2.292   6.938 -1.5921 -0.7378 -0.0735
 5206SOL     OW20428  12.588   5.033   5.601 -0.0012  0.1542  0.2940
 5206SOL    HW120429  12.564   5.070   5.516  0.8929  0.5680  0.2102
 5206SOL    HW220430  12.684   5.034   5.601  0.0132 -0.7434  0.9186
 5207SOL     OW20431   3.067   0.394   9.430 -0.3408 -0.3229  0.0120
 5207SOL    HW120432   3.044   0.408   9.522  1.8724 -2.2439  0.9734
 5207SOL    HW220433   3.014   0.458   9.382 -1.1721  1.1337  2.6410
 5208SOL     OW20434   6.723  11.490   8.771  0.1086  0.3266 -0.0957
 5208SOL    HW120435   6.803  11.437   8.779  0.3113  0.4242 -1.3613
 5208SOL    HW220436   6.663  11.435   8.721 -0.7407  0.1474  1.0696
 5209SOL     OW20437  10.574   7.838   3.992 -0.6685  0.0612  0.1473
 5209SOL    HW120438  10.637   7.821   3.921 -1.4106  2.7385 -1.2828
 5209SOL    HW220439  10.517   7.761   3.992 -0.0538 -0.4497 -1.5546
 5210SOL     OW20440   6.539  10.962  11.223  0.1471  0.3713  0.6711
 5210SOL    HW120441   6.552  10.896  11.292 -1.9143 -2.4599 -1.4098
 5210SOL    HW220442   6.576  10.921  11.144  1.8213  3.2062 -0.1548
 5211SOL     OW20443  12.292  11.600   5.353  0.0285 -0.7875  0.2060
 5211SOL    HW120444  12.367  11.570   5.404  0.0258 -1.6108 -0.2580
 5211SOL    HW220445  12.323  11.600   5.262  0.2767  1.4075  0.2470
 5212SOL     OW20446  10.598   9.944   5.178 -0.4048 -0.1764  0.0809
 5212SOL    HW120447  10.544  10.022   5.192 -2.6722 -1.5742 -0.2306
 5212SOL    HW220448  10.571   9.883   5.247  0.6818 -0.9807 -0.1799
 5213SOL     OW20449  11.031   8.818   5.163  0.3387 -0.3401 -0.0857
 5213SOL    HW120450  11.061   8.797   5.074 -0.7952 -0.9677 -0.3405
 5213SOL    HW220451  10.936   8.804   5.161 -0.0348  1.7322  0.6567
 5214SOL     OW20452   2.475   9.292   0.632 -0.4919  0.1368 -0.5101
 5214SOL    HW120453   2.390   9.298   0.589  0.5127 -0.6289 -2.7344
 5214SOL    HW220454   2.528   9.359   0.589  0.0495  0.6747  0.9264
 5215SOL     OW20455   7.976   4.290   4.338  0.1449 -0.3948 -0.3513
 5215SOL    HW120456   7.903   4.263   4.394 -0.5961  2.3905  0.2075
 5215SOL    HW220457   8.028   4.211   4.326 -2.6126 -2.3567 -0.2642
 5216SOL     OW20458  10.277  12.584  11.982 -0.4090 -0.1007  0.4463
 5216SOL    HW120459  10.298  12.634  12.061 -3.4404  1.8463  0.2020
 5216SOL    HW220460  10.225  12.510  12.014 -1.3833  0.5228  0.3364
 5217SOL     OW20461   5.071  10.022   3.877  0.3281  0.2084  0.3384
 5217SOL    HW120462   5.160   9.989   3.885 -0.0306 -0.6865  0.8307
 5217SOL    HW220463   5.031   9.966   3.811  0.3875  1.2012 -0.5587
 5218SOL     OW20464   5.005   2.365  11.942 -0.3781 -0.6551  0.4848
 5218SOL    HW120465   4.990   2.445  11.992 -2.2309 -0.2349 -0.6661
 5218SOL    HW220466   4.991   2.294  12.005  0.2695 -0.1211  1.2534
 5219SOL     OW20467   0.618   5.519   0.673 -0.3041  0.3056  0.2839
 5219SOL    HW120468   0.652   5.512   0.762  0.4827 -1.4058 -0.1013
 5219SOL    HW220469   0.564   5.441   0.662  0.9885 -0.4262 -1.2719
 5220SOL     OW20470   8.499   9.874   6.872 -0.7521  0.3665  0.1847
 5220SOL    HW120471   8.485   9.789   6.913  0.5889 -0.2905 -0.6284
 5220SOL    HW220472   8.587   9.868   6.834 -0.9808  1.7964 -0.6564
 5221SOL     OW20473   3.284   8.287   6.982 -0.0658  0.0536  0.0953
 5221SOL    HW120474   3.290   8.192   6.993 -0.8126 -0.1730 -1.2261
 5221SOL    HW220475   3.237   8.299   6.900  1.9330  1.5523 -0.9301
 5222SOL     OW20476   0.723   7.964   6.971  0.0085  0.1769  0.0012
 5222SOL    HW120477   0.660   7.936   7.037  0.2310 -2.3492 -0.7493
 5222SOL    HW220478   0.806   7.924   6.998  0.3073 -0.1212 -1.2949
 5223SOL     OW20479  12.303   8.368   1.523 -0.0440  0.5405 -0.1851
 5223SOL    HW120480  12.356   8.372   1.443 -1.2827  0.4757 -1.0371
 5223SOL    HW220481  12.328   8.446   1.572  0.1958  0.9823 -0.9888
 5224SOL     OW20482  10.369   7.651   9.804 -0.3630 -0.4290  0.2657
 5224SOL    HW120483  10.371   7.737   9.763 -1.9434 -0.9249 -0.9542
 5224SOL    HW220484  10.434   7.600   9.756 -0.9065 -0.4815 -0.4436
 5225SOL     OW20485   7.141   0.294   5.763 -0.4003 -0.5482 -0.1845
 5225SOL    HW120486   7.139   0.208   5.722  0.2457 -1.5624  1.7605
 5225SOL    HW220487   7.234   0.308   5.786 -0.8476 -0.6195  1.9306
 5226SOL     OW20488   8.577   9.079   7.998 -0.1261  0.3957  0.0276
 5226SOL    HW120489   8.583   9.174   7.995 -0.8727  0.4287 -0.9381
 5226SOL    HW220490   8.533   9.060   8.081 -1.3933  0.9947 -0.4782
 5227SOL     OW20491   8.853  10.078  11.867  0.1122 -0.4464  0.2586
 5227SOL    HW120492   8.863  10.105  11.959  0.3826  0.7734 -0.1177
 5227SOL    HW220493   8.905   9.998  11.860  1.8101  0.5791  0.6853
 5228SOL     OW20494   1.756   4.469   3.078  0.3072 -0.0653 -0.1883
 5228SOL    HW120495   1.702   4.540   3.113 -0.9033  0.0297 -2.0971
 5228SOL    HW220496   1.758   4.403   3.147  1.7674  1.8971  1.8077
 5229SOL     OW20497  11.752   1.541  11.645 -0.5380  0.2320 -0.2322
 5229SOL    HW120498  11.672   1.527  11.595  0.2098  0.6985 -1.6018
 5229SOL    HW220499  11.782   1.628  11.620 -1.1173  1.3134  2.4790
 5230SOL     OW20500  11.519   6.363  12.560  0.0606 -0.2599  0.1612
 5230SOL    HW120501  11.476   6.378  12.476 -1.0676  1.8596  1.0505
 5230SOL    HW220502  11.458   6.306  12.608  1.0858 -2.1671 -0.6764
 5231SOL     OW20503   7.674   9.450  10.200 -0.5119 -0.4321 -0.2957
 5231SOL    HW120504   7.597   9.503  10.221 -0.8293 -1.3267  0.9078
 5231SOL    HW220505   7.735   9.466  10.272 -0.4651 -1.3897 -0.0994
 5232SOL     OW20506  10.570   0.021   2.942 -0.3092  0.0026 -0.5458
 5232SOL    HW120507  10.496  -0.035   2.920 -0.9230  0.6946 -0.2831
 5232SOL    HW220508  10.646  -0.025   2.907 -0.6903 -1.4123  0.4243
 5233SOL     OW20509   7.763   2.734   7.122 -0.4488  0.1643  0.2126
 5233SOL    HW120510   7.825   2.782   7.067  0.4567  0.7139  1.6450
 5233SOL    HW220511   7.782   2.642   7.106  0.4050  0.3258  0.2422
 5234SOL     OW20512   0.391  10.756   3.180 -0.5123 -0.2978 -0.1924
 5234SOL    HW120513   0.353  10.771   3.267 -0.4675 -0.6744 -0.1058
 5234SOL    HW220514   0.320  10.779   3.119 -1.1843 -1.7671 -0.0142
 5235SOL     OW20515   7.446   9.644  10.596  0.1261  0.4517  0.6884
 5235SOL    HW120516   7.471   9.639  10.503  0.0552  1.8761  0.5748
 5235SOL    HW220517   7.517   9.693  10.637  0.5354 -0.8000  1.5623
 5236SOL     OW20518   7.871  11.512   5.732 -0.0614 -0.8235 -0.3970
 5236SOL    HW120519   7.948  11.467   5.766  0.4535 -0.8083 -1.5213
 5236SOL    HW220520   7.834  11.556   5.809  1.1040 -0.7367  0.1400
 5237SOL     OW20521   3.818   7.025   5.515 -0.3730 -0.5880 -0.1089
 5237SOL    HW120522   3.866   6.942   5.507  0.8541 -0.2120  2.3590
 5237SOL    HW220523   3.793   7.030   5.608 -1.3383  1.3240 -0.4133
 5238SOL     OW20524   5.231   3.397   6.479 -0.3869 -0.3778 -0.0174
 5238SOL    HW120525   5.214   3.411   6.572 -0.4046 -0.0845 -0.0638
 5238SOL    HW220526   5.250   3.304   6.472  0.6041 -0.2238  0.4380
 5239SOL     OW20527   3.630   1.289   9.690  0.0679  0.0825  0.1332
 5239SOL    HW120528   3.580   1.310   9.611  1.1200  0.9984 -0.3096
 5239SOL    HW220529   3.577   1.223   9.735 -0.5345 -0.4904 -1.3508
 5240SOL     OW20530   4.050   4.485  11.428  0.0558 -0.3545 -0.3234
 5240SOL    HW120531   4.058   4.568  11.382  0.9783  0.7827  1.7298
 5240SOL    HW220532   3.956   4.465  11.425 -0.3402  1.3093 -0.0280
 5241SOL     OW20533   3.391   2.350   5.057  0.2024  0.6367 -0.3831
 5241SOL    HW120534   3.406   2.309   5.143 -0.8252 -3.0596 -1.7861
 5241SOL    HW220535   3.331   2.422   5.075 -0.2732 -0.2569  1.9960
 5242SOL     OW20536   0.730   7.725   8.323  0.0129 -0.0685 -0.1439
 5242SOL    HW120537   0.717   7.731   8.417 -0.8878 -1.9726 -0.1053
 5242SOL    HW220538   0.666   7.786   8.286 -0.2101  0.0661  0.4586
 5243SOL     OW20539   3.459  12.594  10.929  0.0513  0.0047 -0.2194
 5243SOL    HW120540   3.466  12.501  10.908  0.9988  0.5601 -2.6472
 5243SOL    HW220541   3.502  12.602  11.015  3.0318 -1.3457 -1.4413
 5244SOL     OW20542  12.582   4.325   0.653 -0.5189 -0.1851  0.0048
 5244SOL    HW120543  12.551   4.364   0.572 -0.8735 -1.3794 -0.4496
 5244SOL    HW220544  12.672   4.356   0.661 -0.0916 -0.9439 -1.4501
 5245SOL     OW20545  11.630   3.996   8.182 -0.3365 -0.0893 -0.0129
 5245SOL    HW120546  11.623   4.047   8.263  0.2064  0.1048 -0.0877
 5245SOL    HW220547  11.546   4.010   8.138  0.0026  1.1669 -0.2864
 5246SOL     OW20548   8.268  12.376   8.064 -0.8730  0.5870  0.7406
 5246SOL    HW120549   8.244  12.295   8.108  0.8360 -0.2150  0.2425
 5246SOL    HW220550   8.286  12.350   7.974  0.8623  1.2884  0.8524
 5247SOL     OW20551   5.223   0.189   0.570 -0.4063  0.2210 -0.5677
 5247SOL    HW120552   5.237   0.158   0.660 -1.6564 -1.0996 -0.7839
 5247SOL    HW220553   5.155   0.256   0.578 -0.8400 -0.2104 -0.5517
 5248SOL     OW20554   9.187   3.821   7.079 -0.1303 -0.0034 -0.1525
 5248SOL    HW120555   9.127   3.888   7.111 -2.0021 -0.6617 -2.0177
 5248SOL    HW220556   9.194   3.758   7.150 -0.0123  1.1001  0.8414
 5249SOL     OW20557   2.922   0.676   8.795  0.1072  0.2405 -0.1373
 5249SOL    HW120558   2.894   0.759   8.834 -0.6400  0.7550 -1.6623
 5249SOL    HW220559   3.000   0.652   8.843 -0.4818  1.0775  1.3188
 5250SOL     OW20560   6.122   2.727   5.359  0.3878 -0.6931 -0.1276
 5250SOL    HW120561   6.030   2.700   5.353 -0.0855 -0.1015  2.9505
 5250SOL    HW220562   6.155   2.683   5.437  2.3104  0.2719 -0.3309
 5251SOL     OW20563   7.167  12.555   0.689  0.1693  0.3047  0.1197
 5251SOL    HW120564   7.249  12.572   0.736 -0.6570  0.7459  1.4693
 5251SOL    HW220565   7.156  12.631   0.633  0.6966  0.2228 -0.1055
 5252SOL     OW20566   0.596  11.114  11.366  0.0017  0.1370 -0.6048
 5252SOL    HW120567   0.666  11.080  11.421  0.1515  0.6535 -0.4718
 5252SOL    HW220568   0.624  11.095  11.276  0.2368  0.1975 -0.5448
 5253SOL     OW20569   6.391  11.349   0.209 -0.2398  0.5288  0.2755
 5253SOL    HW120570   6.452  11.317   0.143 -0.2906  1.0558 -0.0366
 5253SOL    HW220571   6.435  11.426   0.246  0.4734 -0.6153  1.9284
 5254SOL     OW20572   9.636   1.473   4.271  0.5992  0.2917  0.2413
 5254SOL    HW120573   9.679   1.444   4.191 -1.0072 -0.5904 -0.3369
 5254SOL    HW220574   9.657   1.567   4.277  4.2675 -0.4381  1.1066
 5255SOL     OW20575   1.328   9.190   0.036 -0.4449  0.0553  0.3881
 5255SOL    HW120576   1.372   9.226  -0.041 -1.1256  0.2196  0.0690
 5255SOL    HW220577   1.235   9.197   0.016 -0.6099 -2.0118  0.2672
 5256SOL     OW20578   9.621   5.420   3.788  0.3305  0.1693 -0.7244
 5256SOL    HW120579   9.621   5.485   3.718  1.5707  0.5853 -0.3749
 5256SOL    HW220580   9.647   5.469   3.866  0.3871 -0.5658 -0.2730
 5257SOL     OW20581   1.943  11.017   1.396  0.5443 -0.1187 -0.4646
 5257SOL    HW120582   1.932  10.926   1.372  0.9673  0.2108 -2.0112
 5257SOL    HW220583   1.856  11.056   1.386  0.1065 -0.5461  1.2735
 5258SOL     OW20584   7.443  10.014   3.016  0.3769 -0.0049  0.8162
 5258SOL    HW120585   7.466  10.052   3.101 -0.1935  3.2962 -0.3421
 5258SOL    HW220586   7.348  10.020   3.012  0.4156  0.1572 -0.1419
 5259SOL     OW20587   6.956   3.410   5.372  0.0141 -0.4707  0.3400
 5259SOL    HW120588   6.874   3.401   5.323  0.2698  1.0228 -0.4096
 5259SOL    HW220589   7.024   3.414   5.305  0.5887 -0.5013  0.9133
 5260SOL     OW20590   8.529   3.873   6.094  0.1090  0.2350 -0.5317
 5260SOL    HW120591   8.517   3.920   6.011  0.3612 -0.3331 -0.8897
 5260SOL    HW220592   8.487   3.788   6.079  0.3871  0.0350 -0.1673
 5261SOL     OW20593   8.098   8.866   1.139  0.8958  0.2475  0.1843
 5261SOL    HW120594   8.081   8.779   1.103 -0.2815  0.5099  0.0476
 5261SOL    HW220595   8.107   8.922   1.062  0.1872  0.4913  0.2708
 5262SOL     OW20596  10.327   1.376   5.190 -0.7542  0.4778  0.2691
 5262SOL    HW120597  10.327   1.376   5.286 -0.0759 -1.3894  0.3068
 5262SOL    HW220598  10.350   1.287   5.166  1.2608  1.4336 -1.6434
 5263SOL     OW20599   9.384   5.728  11.226  0.0373  0.1770 -0.5297
 5263SOL    HW120600   9.460   5.782  11.248  0.8852 -0.9784 -0.5124
 5263SOL    HW220601   9.325   5.788  11.181  0.9128  1.1357 -0.4502
 5264SOL     OW20602   6.314   8.642   3.573  0.0442  0.0171  0.4107
 5264SOL    HW120603   6.236   8.670   3.623  1.3048 -0.6859  2.9657
 5264SOL    HW220604   6.362   8.723   3.557  0.3736  0.1102  1.7629
 5265SOL     OW20605   2.411   3.241   6.150  0.0523 -0.6245  0.9278
 5265SOL    HW120606   2.367   3.321   6.176 -0.3116 -1.0488  1.6325
 5265SOL    HW220607   2.367   3.172   6.199 -0.2051 -1.3688 -0.2944
 5266SOL     OW20608   6.231   3.409   5.810 -0.0124  0.2554 -0.2283
 5266SOL    HW120609   6.211   3.473   5.742  1.4790  1.1026  0.1018
 5266SOL    HW220610   6.194   3.327   5.777 -0.2923  0.8832 -1.5267
 5267SOL     OW20611   0.009   6.366   3.327 -0.2777 -0.0175 -0.0030
 5267SOL    HW120612   0.037   6.275   3.341 -0.5495 -0.0849  0.1144
 5267SOL    HW220613   0.026   6.409   3.411 -1.3719 -0.2808  0.3741
 5268SOL     OW20614   8.064   7.571  11.705  0.1190 -0.4089  0.0662
 5268SOL    HW120615   8.058   7.478  11.726  0.9176 -0.7035 -0.9215
 5268SOL    HW220616   8.155   7.594  11.726  0.3950 -0.2644 -1.1976
 5269SOL     OW20617   1.774   5.857   2.040  0.3776 -0.2238 -0.3119
 5269SOL    HW120618   1.709   5.925   2.057  0.6461  0.0209 -0.2555
 5269SOL    HW220619   1.853   5.905   2.014  0.3292 -0.5411 -1.0746
 5270SOL     OW20620   6.739   5.606   2.586 -0.5950  0.5362 -0.4590
 5270SOL    HW120621   6.717   5.593   2.493  1.0743 -0.0790 -0.7952
 5270SOL    HW220622   6.799   5.680   2.586 -1.6108  1.3889  0.3024
 5271SOL     OW20623   7.496   7.532   5.206  0.5862  0.1515 -0.3045
 5271SOL    HW120624   7.511   7.452   5.257 -2.7416  0.4821  1.4270
 5271SOL    HW220625   7.484   7.601   5.271  2.1980  1.9234 -1.7417
 5272SOL     OW20626  11.811  10.874   7.601 -0.7135  0.4058 -0.0630
 5272SOL    HW120627  11.786  10.782   7.608 -1.3423  0.1797 -3.5936
 5272SOL    HW220628  11.737  10.922   7.636  0.1611 -0.2891  3.1268
 5273SOL     OW20629  11.913   0.147   6.556 -0.2744  0.0989  0.3285
 5273SOL    HW120630  11.927   0.237   6.583 -1.0875  0.0547  0.9075
 5273SOL    HW220631  11.832   0.120   6.599 -1.4311 -0.1016 -1.8322
 5274SOL     OW20632   1.635   7.982   8.507 -0.1953 -0.0766  0.3949
 5274SOL    HW120633   1.670   7.902   8.546 -0.6839 -0.0763  0.8535
 5274SOL    HW220634   1.540   7.970   8.509 -0.3154  0.8048  1.1336
 5275SOL     OW20635   9.423   5.662  10.277  0.2340  0.3455 -0.0918
 5275SOL    HW120636   9.503   5.626  10.317 -0.5146 -2.7795 -1.1092
 5275SOL    HW220637   9.357   5.656  10.345  0.0586 -0.5159 -0.3254
 5276SOL     OW20638   7.231   4.787   3.491 -0.2809  0.1029 -0.0884
 5276SOL    HW120639   7.279   4.828   3.419 -0.9453 -1.5594 -1.5608
 5276SOL    HW220640   7.141   4.782   3.460 -0.5837 -0.6358  0.8661
 5277SOL     OW20641   2.578   1.252   7.320 -0.0442  0.0762 -0.3848
 5277SOL    HW120642   2.592   1.343   7.345  0.5977  0.0682 -0.6941
 5277SOL    HW220643   2.498   1.254   7.267  0.4714  0.6099 -1.1725
 5278SOL     OW20644   6.133   1.599   8.656 -0.0384 -0.1376  0.2144
 5278SOL    HW120645   6.177   1.572   8.736 -0.7397  0.1684  0.7184
 5278SOL    HW220646   6.066   1.661   8.685 -1.1106 -0.9403 -0.4755
 5279SOL     OW20647   6.265   7.708   3.768  0.2880  0.0016  0.1621
 5279SOL    HW120648   6.275   7.626   3.815  1.5787 -0.4753 -0.8857
 5279SOL    HW220649   6.180   7.743   3.798  0.2307 -1.1517  1.4263
 5280SOL     OW20650  11.778   4.642  11.238 -0.5493  0.6560  0.1897
 5280SOL    HW120651  11.752   4.551  11.249 -0.0095  0.5458  0.5687
 5280SOL    HW220652  11.753   4.684  11.321 -1.7696  1.0929 -0.3776
 5281SOL     OW20653   7.555   6.765   5.523  0.4179 -0.1685  0.1825
 5281SOL    HW120654   7.581   6.777   5.615 -1.6624  0.9007  0.7107
 5281SOL    HW220655   7.515   6.678   5.521  0.0568 -0.0132  0.4176
 5282SOL     OW20656   6.067   2.765   8.154  0.0366 -0.0177  0.5138
 5282SOL    HW120657   6.124   2.776   8.230 -0.8329 -0.5879  1.2859
 5282SOL    HW220658   6.095   2.683   8.114  0.6340  0.3896  0.0816
 5283SOL     OW20659   2.881   6.933  11.878 -0.4551  0.1101  0.3734
 5283SOL    HW120660   2.806   6.873  11.886  1.0054 -1.6188  2.0971
 5283SOL    HW220661   2.843   7.012  11.840 -2.7387 -1.4214 -0.8447
 5284SOL     OW20662   3.575  11.864  12.105  0.1028  0.0292  0.1546
 5284SOL    HW120663   3.614  11.817  12.031  1.2592 -1.6943  1.7406
 5284SOL    HW220664   3.637  11.934  12.124  0.7111 -0.5928  0.5273
 5285SOL     OW20665   8.988   0.449   9.312 -0.4322  0.1011  0.2293
 5285SOL    HW120666   9.067   0.424   9.263 -2.4676 -0.2653 -3.1682
 5285SOL    HW220667   8.954   0.366   9.346 -0.6908 -0.0970 -0.4996
 5286SOL     OW20668   0.082  11.843   1.133 -0.2007 -0.0509 -0.7553
 5286SOL    HW120669   0.134  11.844   1.052 -2.1021  0.7778 -2.0430
 5286SOL    HW220670  -0.009  11.841   1.103 -1.0309  1.9543  1.3341
 5287SOL     OW20671   0.509   1.352   2.199  0.4346  0.0237 -0.0528
 5287SOL    HW120672   0.448   1.299   2.148  1.1189 -0.0553 -0.8017
 5287SOL    HW220673   0.518   1.433   2.149  1.0801 -0.0372 -0.0405
 5288SOL     OW20674   9.365   0.710   0.496  0.0098 -0.3522 -0.4064
 5288SOL    HW120675   9.387   0.681   0.407  0.8730  0.0147 -0.3269
 5288SOL    HW220676   9.449   0.710   0.542  0.0537  2.0935 -0.3534
 5289SOL     OW20677   9.200   7.113   3.154  0.0806 -0.0717  0.0315
 5289SOL    HW120678   9.175   7.021   3.145  1.4726 -0.4300 -0.4459
 5289SOL    HW220679   9.139   7.148   3.217 -1.3811 -0.9675 -0.8242
 5290SOL     OW20680  10.174   7.389   4.974 -0.0688  0.0254  0.3388
 5290SOL    HW120681  10.113   7.415   5.043  0.0626 -0.0797  0.4966
 5290SOL    HW220682  10.252   7.360   5.021 -0.2694 -0.8111  0.1855
 5291SOL     OW20683  11.756  10.544   0.940 -0.0132  0.3154 -0.1575
 5291SOL    HW120684  11.784  10.564   0.851  1.6808  0.0947  0.2904
 5291SOL    HW220685  11.663  10.564   0.941 -0.2523 -0.4727 -2.2031
 5292SOL     OW20686   6.924  11.715   4.552 -0.5465  0.5342 -0.2786
 5292SOL    HW120687   6.856  11.661   4.593  0.5702 -1.1750 -0.5736
 5292SOL    HW220688   6.891  11.734   4.465 -1.5081  1.4433  0.2580
 5293SOL     OW20689   2.675   1.974   1.694 -0.0104  0.5262 -0.1055
 5293SOL    HW120690   2.708   1.978   1.605  2.5932  0.1123  0.7522
 5293SOL    HW220691   2.704   2.056   1.734  2.6653 -1.0413  1.4602
 5294SOL     OW20692   5.783   8.138   5.794 -0.2755 -0.3722  0.6152
 5294SOL    HW120693   5.809   8.158   5.884 -0.4847  1.0389  0.3877
 5294SOL    HW220694   5.689   8.119   5.800 -0.5257  0.7824  0.5603
 5295SOL     OW20695   6.189   1.704   3.080 -0.0743  0.6882 -0.3394
 5295SOL    HW120696   6.278   1.702   3.116 -1.1266  1.1907  2.5536
 5295SOL    HW220697   6.201   1.698   2.985  2.9547 -0.5129  0.0239
 5296SOL     OW20698   3.666   2.005   4.741 -0.1310  0.3374 -0.7398
 5296SOL    HW120699   3.751   1.972   4.771 -0.6145 -0.3207 -0.0852
 5296SOL    HW220700   3.668   2.099   4.761  0.0334  0.1323  0.2114
 5297SOL     OW20701  11.004   8.797   9.789  0.3452 -0.7049 -0.8135
 5297SOL    HW120702  11.098   8.810   9.801 -0.1079  2.5574  0.1545
 5297SOL    HW220703  10.996   8.710   9.751  3.7014 -1.3028 -0.3975
 5298SOL     OW20704  11.565   7.535  12.021  0.2369 -0.1014 -0.0820
 5298SOL    HW120705  11.541   7.470  11.955  2.2523 -0.6110 -0.3667
 5298SOL    HW220706  11.515   7.613  11.997 -0.6432 -0.9059 -0.9623
 5299SOL     OW20707   1.775  10.914   7.274  0.4385  0.8119  0.3290
 5299SOL    HW120708   1.808  10.832   7.310  1.2645  0.5441 -0.9911
 5299SOL    HW220709   1.688  10.893   7.242 -0.4936  1.1497  2.4317
 5300SOL     OW20710   6.666  12.048  11.990 -1.0707  0.1156 -0.3860
 5300SOL    HW120711   6.629  11.962  11.967 -1.3223  0.6778 -2.3354
 5300SOL    HW220712   6.749  12.029  12.032 -0.4893 -1.1036 -1.9970
 5301SOL     OW20713   5.641   3.906   8.617 -0.1688  0.1143 -0.8836
 5301SOL    HW120714   5.697   3.893   8.541  1.9452 -0.0627  0.5987
 5301SOL    HW220715   5.683   3.977   8.666 -1.5666  0.3477  0.0319
 5302SOL     OW20716   8.305   5.866   8.719  0.0324  0.6685 -0.2560
 5302SOL    HW120717   8.306   5.880   8.624  1.0287 -0.1108 -0.3751
 5302SOL    HW220718   8.212   5.870   8.743 -0.3698 -0.5216 -1.4857
 5303SOL     OW20719   9.471   8.513   2.270 -0.2791  0.0656 -0.2532
 5303SOL    HW120720   9.378   8.506   2.246 -0.9244  0.7567  1.8823
 5303SOL    HW220721   9.473   8.573   2.344  2.1661  1.8834 -1.6291
 5304SOL     OW20722   9.630   6.682   8.573  0.6515 -0.1256 -0.8847
 5304SOL    HW120723   9.536   6.679   8.554  0.4158  1.9632 -0.3397
 5304SOL    HW220724   9.655   6.591   8.586 -0.5690 -1.0795 -4.2971
 5305SOL     OW20725   3.137   2.920   4.177 -0.0505 -0.6091  0.2872
 5305SOL    HW120726   3.110   2.870   4.100  0.2099 -1.7757  0.9203
 5305SOL    HW220727   3.063   2.914   4.237  1.0222 -2.8082  1.5453
 5306SOL     OW20728  11.263   1.019   8.481 -0.5583  0.2265 -0.1328
 5306SOL    HW120729  11.176   1.004   8.444 -0.5811 -0.3470  0.1412
 5306SOL    HW220730  11.319   1.034   8.404 -0.8774  0.4883 -0.3158
 5307SOL     OW20731   2.105  10.474   1.161  0.6980 -0.0457  0.4708
 5307SOL    HW120732   2.016  10.453   1.192  1.0195 -0.0268  1.4533
 5307SOL    HW220733   2.158  10.401   1.193  1.0694  0.0282  0.0260
 5308SOL     OW20734   1.029   6.136  12.102 -0.3646  0.2485  0.9466
 5308SOL    HW120735   0.951   6.191  12.097 -0.8964 -0.6069 -1.6468
 5308SOL    HW220736   1.037   6.097  12.015  3.1661  0.5438  0.9899
 5309SOL     OW20737   5.251   3.992   4.991 -0.1530  0.2233  0.1974
 5309SOL    HW120738   5.318   3.961   4.929 -2.0015 -1.0077 -1.3165
 5309SOL    HW220739   5.169   3.990   4.940 -1.7839 -0.8733  2.6812
 5310SOL     OW20740   5.884   1.064   6.727 -0.1809 -0.1951  0.2363
 5310SOL    HW120741   5.866   1.091   6.637  2.1702  0.4964 -0.0889
 5310SOL    HW220742   5.860   1.140   6.780 -0.9546 -0.3664  0.1400
 5311SOL     OW20743  11.669   1.314  12.463  0.0022  0.0283 -0.5142
 5311SOL    HW120744  11.660   1.388  12.402  1.1116 -0.3805 -1.2094
 5311SOL    HW220745  11.690   1.240  12.407 -0.7721 -0.7648  0.2141
 5312SOL     OW20746   3.526   1.754   7.496 -0.5165  0.0206 -0.6902
 5312SOL    HW120747   3.461   1.731   7.429 -0.9375 -1.0109  0.0361
 5312SOL    HW220748   3.474   1.774   7.573  0.0067 -0.6022 -0.1610
 5313SOL     OW20749   6.129   0.704  11.059  0.1090 -0.1115 -0.1201
 5313SOL    HW120750   6.098   0.737  10.975  0.7439  0.1632 -0.2478
 5313SOL    HW220751   6.223   0.717  11.058  0.0004  1.1039  1.1337
 5314SOL     OW20752   0.093   5.181   8.870  0.6149 -0.0074  0.4364
 5314SOL    HW120753   0.137   5.099   8.891 -0.0187 -0.5968 -0.4749
 5314SOL    HW220754   0.016   5.182   8.926  0.3187 -0.3134  0.0361
 5315SOL     OW20755  12.210   8.300   4.704 -0.3417  0.1863 -0.2999
 5315SOL    HW120756  12.282   8.335   4.756 -0.0383 -1.5305  0.5158
 5315SOL    HW220757  12.204   8.208   4.730 -3.3893  0.4289  0.2653
 5316SOL     OW20758   7.381   1.237   9.896 -0.4241  0.0001  0.1853
 5316SOL    HW120759   7.327   1.284   9.833  0.1319  2.3010  1.3202
 5316SOL    HW220760   7.457   1.294   9.910  1.5524 -2.3573 -0.1313
 5317SOL     OW20761   8.845   7.347   8.019  0.0399 -0.0551  0.4054
 5317SOL    HW120762   8.922   7.367   7.966  1.4179 -0.3582  2.2038
 5317SOL    HW220763   8.862   7.260   8.056 -2.6160 -1.6003 -1.5738
 5318SOL     OW20764   3.793  11.422  12.501 -0.6721  0.5653  0.0932
 5318SOL    HW120765   3.805  11.487  12.570 -1.7250  1.1479 -0.2366
 5318SOL    HW220766   3.762  11.473  12.426 -1.0682 -0.2537 -0.3168
 5319SOL     OW20767   8.160  11.021  12.594 -0.1391 -0.2452  0.4909
 5319SOL    HW120768   8.180  11.110  12.566  0.8113 -0.6192 -0.0524
 5319SOL    HW220769   8.107  10.985  12.524  0.7352 -0.5918 -0.0028
 5320SOL     OW20770   0.388   9.830   8.145  0.1953 -0.0731 -0.2872
 5320SOL    HW120771   0.362   9.739   8.160 -0.6251  0.0151 -1.0857
 5320SOL    HW220772   0.363   9.876   8.225 -2.3891  0.0351 -1.0315
 5321SOL     OW20773   9.924   0.078   1.076  0.5243 -0.1601  0.0586
 5321SOL    HW120774   9.880   0.138   1.136 -0.0675  1.0843 -1.5267
 5321SOL    HW220775   9.996   0.041   1.127  0.2877  1.1411  1.3989
 5322SOL     OW20776   4.053   9.724   7.070  0.3270  0.1317  0.1103
 5322SOL    HW120777   4.119   9.669   7.112  0.2538  0.2680  0.4047
 5322SOL    HW220778   4.053   9.696   6.978 -0.9740 -1.6295  0.5924
 5323SOL     OW20779   0.350  10.966   0.462  0.3292 -0.0205  0.3303
 5323SOL    HW120780   0.387  10.886   0.424  2.6702  0.4422  1.4853
 5323SOL    HW220781   0.288  10.997   0.395  1.2206 -1.4313 -1.2435
 5324SOL     OW20782  12.085   0.233   8.773  0.6800 -0.1714  0.5861
 5324SOL    HW120783  12.061   0.326   8.780 -0.2835 -0.3723  0.1751
 5324SOL    HW220784  12.119   0.224   8.684 -0.8019 -0.5212  0.0143
 5325SOL     OW20785   6.324   6.707   9.326  0.3446 -0.3718  0.2466
 5325SOL    HW120786   6.270   6.756   9.263 -1.2735 -0.9001  1.1471
 5325SOL    HW220787   6.344   6.771   9.394 -0.3835 -0.5317  0.6183
 5326SOL     OW20788   4.629   7.030   8.040 -0.2394  0.1231 -0.0021
 5326SOL    HW120789   4.662   6.963   7.980 -1.4070 -0.5287  0.0449
 5326SOL    HW220790   4.544   6.995   8.069  0.3797  0.3202  2.1753
 5327SOL     OW20791   5.261  11.557   5.932 -0.3145 -0.1541 -0.0136
 5327SOL    HW120792   5.330  11.624   5.932 -0.8119  0.4331  1.8459
 5327SOL    HW220793   5.293  11.489   5.873  0.9760  0.9690 -0.6596
 5328SOL     OW20794  12.064  10.816   4.465 -0.1514  0.1416  0.4689
 5328SOL    HW120795  11.972  10.797   4.445  0.1952 -0.2014 -0.9499
 5328SOL    HW220796  12.113  10.769   4.396  1.1154 -0.1855  1.5591
 5329SOL     OW20797  10.485   2.787   5.296  0.0510 -0.4177 -0.0752
 5329SOL    HW120798  10.453   2.750   5.378 -0.6198 -0.7787 -0.4890
 5329SOL    HW220799  10.577   2.758   5.291  0.6331  1.0317  1.3527
 5330SOL     OW20800   3.553   1.079   3.859  0.8339 -0.5423  0.0044
 5330SOL    HW120801   3.595   1.131   3.927  1.4477  0.5123 -1.1432
 5330SOL    HW220802   3.470   1.124   3.842 -0.0709 -1.7046  1.1310
 5331SOL     OW20803   6.798   5.367   8.012 -0.5622  0.2745  0.5979
 5331SOL    HW120804   6.822   5.458   8.028 -0.0341  0.2886 -0.2096
 5331SOL    HW220805   6.882   5.322   8.003 -0.8249 -0.2101  0.5711
 5332SOL     OW20806   4.239   8.233   7.890 -0.2222  0.0481 -0.3094
 5332SOL    HW120807   4.146   8.250   7.882 -0.3769 -1.4863 -2.5046
 5332SOL    HW220808   4.245   8.139   7.906  0.9846 -0.0489 -1.2348
 5333SOL     OW20809   3.473   0.292   0.733  0.6482 -0.0415  0.2160
 5333SOL    HW120810   3.534   0.308   0.661  0.7988  0.1336  0.3801
 5333SOL    HW220811   3.393   0.336   0.707  0.5821 -0.3020 -0.0167
 5334SOL     OW20812   8.983   6.875   4.247 -0.1503 -0.1850 -0.8903
 5334SOL    HW120813   9.043   6.949   4.235 -0.1399 -0.2619 -1.3356
 5334SOL    HW220814   8.960   6.878   4.339 -1.4561  1.3916 -1.2207
 5335SOL     OW20815  10.042   3.998   8.912 -0.9725  0.3755  0.4647
 5335SOL    HW120816   9.971   3.988   8.848 -1.9674 -1.1338  1.7268
 5335SOL    HW220817   9.998   4.022   8.993 -0.4013 -2.6396  1.8173
 5336SOL     OW20818  11.588  12.142  10.649 -0.3218 -0.3987 -0.2915
 5336SOL    HW120819  11.555  12.213  10.593  0.1689 -0.5975 -0.8434
 5336SOL    HW220820  11.660  12.104  10.599 -0.1133 -0.8213  0.3229
 5337SOL     OW20821  12.329  12.419  12.185 -0.0094  0.4396 -0.1880
 5337SOL    HW120822  12.349  12.477  12.111  0.2678  1.0528  0.3629
 5337SOL    HW220823  12.364  12.334  12.159 -1.1588  0.2899 -1.3622
 5338SOL     OW20824   9.718   6.720  11.637 -0.3136 -0.6296 -0.7994
 5338SOL    HW120825   9.730   6.814  11.654  1.7349 -0.3220 -3.3534
 5338SOL    HW220826   9.751   6.677  11.716  0.0343  0.7886 -0.1433
 5339SOL     OW20827   3.406   4.815  12.090 -0.0257  0.0169 -0.2710
 5339SOL    HW120828   3.377   4.783  12.004  1.3994  0.9634 -1.1447
 5339SOL    HW220829   3.386   4.908  12.089 -1.7628 -0.2886  1.2339
 5340SOL     OW20830   3.945   1.060   7.742 -0.0943 -0.0351 -0.4264
 5340SOL    HW120831   4.037   1.042   7.724  0.2251 -0.2309  1.2597
 5340SOL    HW220832   3.900   0.978   7.721 -0.2911  0.7185 -3.4737
 5341SOL     OW20833   9.525   5.590   5.602  0.1224 -0.1206 -0.5233
 5341SOL    HW120834   9.483   5.551   5.525 -0.4344 -1.4706  0.4157
 5341SOL    HW220835   9.496   5.535   5.675 -0.3293  1.8469  0.8390
 5342SOL     OW20836   0.162  10.373   0.152 -0.1681 -0.0724 -0.2392
 5342SOL    HW120837   0.244  10.376   0.202  0.4519 -0.8378 -1.1866
 5342SOL    HW220838   0.168  10.447   0.091  0.0260 -0.3922 -0.6126
 5343SOL     OW20839   7.158  11.499  11.992  0.3159 -0.2810  0.9064
 5343SOL    HW120840   7.191  11.411  12.010  0.3465 -0.4942 -0.1634
 5343SOL    HW220841   7.177  11.514  11.900  1.1342  1.2116  1.2834
 5344SOL     OW20842   0.406  12.078  10.052  0.1733 -0.0898 -0.0454
 5344SOL    HW120843   0.346  12.144  10.086  0.6399  0.3180 -0.0011
 5344SOL    HW220844   0.486  12.090  10.103  0.7367  0.2393 -0.9751
 5345SOL     OW20845   4.415   2.246  11.160 -0.7204 -0.0275 -0.2637
 5345SOL    HW120846   4.329   2.222  11.194 -0.9589  1.0989 -0.0328
 5345SOL    HW220847   4.418   2.341  11.167 -0.0302  0.0785 -1.6353
 5346SOL     OW20848   1.162   4.054   9.987 -0.5354 -0.5657 -0.2088
 5346SOL    HW120849   1.179   4.089  10.075 -0.8830 -3.2544  1.0268
 5346SOL    HW220850   1.212   3.972   9.984 -1.6592 -1.2307 -1.9939
 5347SOL     OW20851   0.838   8.146   5.902  0.3867 -0.1994 -0.3969
 5347SOL    HW120852   0.755   8.137   5.857 -0.9972  0.4086  1.8534
 5347SOL    HW220853   0.848   8.064   5.951  0.5851  0.1225  0.1171
 5348SOL     OW20854   1.240   9.962   8.212 -0.1339 -0.0398 -0.0233
 5348SOL    HW120855   1.155   9.921   8.224 -0.9859  1.8245  0.7745
 5348SOL    HW220856   1.284   9.953   8.297  1.0973 -2.1817 -0.7986
 5349SOL     OW20857   7.504   5.471   6.223  0.2723  0.3485 -0.0301
 5349SOL    HW120858   7.597   5.478   6.245  0.4147 -1.0349 -0.1309
 5349SOL    HW220859   7.468   5.413   6.289  0.2736 -2.1666 -2.0861
 5350SOL     OW20860  10.434   1.900   3.693 -0.1884 -0.3415 -0.1730
 5350SOL    HW120861  10.516   1.876   3.652  0.1472 -0.9861  0.8322
 5350SOL    HW220862  10.426   1.994   3.679  0.0815 -0.4873 -1.3674
 5351SOL     OW20863   2.637   4.484   6.214  0.0693  0.0452  0.5633
 5351SOL    HW120864   2.717   4.522   6.180 -0.5675  0.5874 -0.3594
 5351SOL    HW220865   2.573   4.494   6.144 -1.3279  1.3338  1.9369
 5352SOL     OW20866   0.403   9.381  10.544 -0.0921 -0.1176 -0.4641
 5352SOL    HW120867   0.450   9.361  10.463 -1.8689 -2.2560 -1.0836
 5352SOL    HW220868   0.466   9.361  10.613  0.6472 -0.7374 -1.2833
 5353SOL     OW20869   4.259  11.338   5.366 -0.3911 -0.4954  0.1351
 5353SOL    HW120870   4.328  11.324   5.431  0.1018 -0.8823 -0.4510
 5353SOL    HW220871   4.249  11.433   5.361 -0.3963 -0.4653  0.7368
 5354SOL     OW20872  12.034  11.877   0.577  0.2431  0.2034  0.1088
 5354SOL    HW120873  11.992  11.832   0.650  0.7494  0.0047  0.2819
 5354SOL    HW220874  12.127  11.857   0.587  0.3088  0.1283 -0.6232
 5355SOL     OW20875   3.583   0.897   2.813 -0.0477 -0.1275  0.3245
 5355SOL    HW120876   3.513   0.874   2.752  0.3792 -0.3037 -0.1070
 5355SOL    HW220877   3.663   0.871   2.767  0.4049  1.4867  0.1498
 5356SOL     OW20878  11.023  11.794   1.634 -0.2703 -0.4753 -0.1629
 5356SOL    HW120879  11.027  11.735   1.709 -3.4690 -0.5994  0.0299
 5356SOL    HW220880  11.089  11.760   1.574  0.1131 -2.3682  1.2131
 5357SOL     OW20881   3.670  11.246   2.494  0.0987 -0.1044 -0.3067
 5357SOL    HW120882   3.582  11.262   2.527 -0.2628 -0.1892 -1.1859
 5357SOL    HW220883   3.676  11.151   2.484  0.5988 -0.1718  0.5515
 5358SOL     OW20884   3.828  11.157   7.847 -0.1231 -0.0124 -0.2462
 5358SOL    HW120885   3.817  11.123   7.936  1.0343  0.0648 -0.0579
 5358SOL    HW220886   3.922  11.151   7.830 -0.4382 -1.1897 -1.9308
 5359SOL     OW20887  10.020   2.896   9.440  0.2127 -0.4299  0.0522
 5359SOL    HW120888  10.061   2.835   9.378  0.7930  1.6898 -1.7949
 5359SOL    HW220889   9.973   2.958   9.384 -2.3212 -0.4979  1.9593
 5360SOL     OW20890   7.829   9.688   7.543  0.0625 -0.6233 -0.7152
 5360SOL    HW120891   7.924   9.684   7.533  0.2120  0.4873  0.0484
 5360SOL    HW220892   7.810   9.781   7.554 -1.1289 -0.8232 -0.9103
 5361SOL     OW20893   1.947  10.359   9.778 -0.1379  0.2678  0.3703
 5361SOL    HW120894   1.904  10.289   9.730 -0.3492  0.3089  0.5032
 5361SOL    HW220895   2.041  10.339   9.771 -0.1777  0.1794  0.0861
 5362SOL     OW20896   9.518   8.799   2.035 -0.0893  0.0367 -0.3996
 5362SOL    HW120897   9.534   8.707   2.056 -0.9567 -0.1241 -0.3820
 5362SOL    HW220898   9.526   8.844   2.119 -0.4446 -0.1466 -0.2636
 5363SOL     OW20899   0.541   6.336   1.068  0.0727 -0.4486 -0.2384
 5363SOL    HW120900   0.545   6.432   1.065 -1.0498 -0.3833 -0.0048
 5363SOL    HW220901   0.483   6.312   0.995 -0.9852 -0.8358  0.6990
 5364SOL     OW20902   3.795  10.720   4.602 -0.2212 -0.1141 -0.7204
 5364SOL    HW120903   3.747  10.640   4.622 -0.0295 -0.4340 -1.4909
 5364SOL    HW220904   3.748  10.789   4.649 -0.7482 -0.5937 -0.5376
 5365SOL     OW20905   2.704   6.451   3.863 -0.7310  0.8178  0.1475
 5365SOL    HW120906   2.763   6.454   3.938 -1.5513 -1.4168  0.9915
 5365SOL    HW220907   2.685   6.542   3.843  3.8502  1.7863 -0.9544
 5366SOL     OW20908   8.475  11.586   8.901  0.0565  0.4767  0.3280
 5366SOL    HW120909   8.562  11.623   8.914  0.2146 -0.3700  1.9766
 5366SOL    HW220910   8.488  11.518   8.834  0.0920  2.1271 -1.4204
 5367SOL     OW20911   4.198   9.160  10.964  0.4739 -0.4518 -0.0692
 5367SOL    HW120912   4.188   9.081  10.910  1.7158 -1.5330  1.1918
 5367SOL    HW220913   4.288   9.155  10.996  0.7364  1.7769 -0.3437
 5368SOL     OW20914  11.606  10.194   0.456  0.2216 -0.6156  0.1597
 5368SOL    HW120915  11.624  10.281   0.420 -2.0561 -0.6074 -1.1166
 5368SOL    HW220916  11.637  10.134   0.389  0.7469 -0.7962  0.5490
 5369SOL     OW20917   1.367  11.400  12.236 -0.5311  0.0803 -0.5996
 5369SOL    HW120918   1.403  11.311  12.242  0.7499  0.5391 -1.1886
 5369SOL    HW220919   1.327  11.403  12.149 -2.5804 -0.6026  0.2491
 5370SOL     OW20920   8.099   0.521   0.573  0.2793  0.4275  0.1835
 5370SOL    HW120921   8.161   0.468   0.623  0.0809  1.7705  1.9590
 5370SOL    HW220922   8.025   0.462   0.556  0.1732  0.0228  1.8780
 5371SOL     OW20923   1.900   8.914   4.506 -0.1369  0.0668  0.1617
 5371SOL    HW120924   1.845   8.865   4.568 -0.6757  1.7661  1.0817
 5371SOL    HW220925   1.989   8.905   4.540  0.0014 -1.5032 -0.5349
 5372SOL     OW20926   6.872   8.074  11.003  0.4374 -0.5803  0.0118
 5372SOL    HW120927   6.802   8.032  11.054  2.2846 -1.8999  1.6071
 5372SOL    HW220928   6.917   8.001  10.960  0.9447  0.2261 -0.8407
 5373SOL     OW20929   8.596   9.860   0.366 -0.5174  0.0546 -0.3326
 5373SOL    HW120930   8.651   9.882   0.442  0.7606 -2.0401 -0.5868
 5373SOL    HW220931   8.612   9.932   0.304 -0.5313  1.0912  0.8175
 5374SOL     OW20932   6.241   6.519   9.767 -0.0828  0.7014 -0.1662
 5374SOL    HW120933   6.193   6.450   9.813  0.7931 -0.3301 -0.7618
 5374SOL    HW220934   6.176   6.587   9.751 -1.6925 -1.1507 -1.9917
 5375SOL     OW20935   7.098   9.787   5.405 -0.5133  0.1293  0.6585
 5375SOL    HW120936   7.113   9.704   5.361 -1.9512 -0.2949  0.8973
 5375SOL    HW220937   7.172   9.797   5.465 -0.0751 -0.7293  0.2672
 5376SOL     OW20938   9.636   4.621   4.991  0.2960  0.0267  0.0479
 5376SOL    HW120939   9.624   4.566   5.069 -1.4458  0.2058 -0.0769
 5376SOL    HW220940   9.725   4.600   4.962  0.5811 -0.8565  1.4481
 5377SOL     OW20941   2.672  12.187   0.988 -0.0922 -0.0951  0.1912
 5377SOL    HW120942   2.765  12.174   1.003 -0.2122 -1.5190 -0.1038
 5377SOL    HW220943   2.658  12.159   0.897 -0.8365 -0.0903  0.2948
 5378SOL     OW20944   0.816   2.968   9.665  0.0575 -0.2872  0.4320
 5378SOL    HW120945   0.901   3.009   9.675  1.0426 -1.9060 -0.7940
 5378SOL    HW220946   0.767   2.995   9.743  1.1554  1.8361  0.4479
 5379SOL     OW20947   1.289  10.765   2.770  0.0755 -0.1569 -0.0370
 5379SOL    HW120948   1.247  10.810   2.844 -0.8786 -0.8210 -0.1671
 5379SOL    HW220949   1.232  10.783   2.696  2.1886  2.4697 -1.2248
 5380SOL     OW20950   4.153   3.797   0.986 -0.2602  0.1658 -0.3313
 5380SOL    HW120951   4.160   3.727   0.921 -1.4484  0.3884 -0.7084
 5380SOL    HW220952   4.099   3.760   1.056 -1.3081  0.8503 -0.7580
 5381SOL     OW20953   1.113   2.588   4.657 -0.3209  0.0424  0.0410
 5381SOL    HW120954   1.052   2.617   4.724  0.3328  0.5645  0.4208
 5381SOL    HW220955   1.170   2.663   4.642 -0.3783 -0.1065 -1.0161
 5382SOL     OW20956   0.591   0.507   9.083 -0.3543  0.2393 -0.0328
 5382SOL    HW120957   0.635   0.508   8.998  1.0637 -1.4741  0.6056
 5382SOL    HW220958   0.655   0.545   9.143  0.0394 -1.6139  0.7846
 5383SOL     OW20959   7.035   7.938   3.848 -0.6702 -0.0260 -0.2370
 5383SOL    HW120960   7.041   7.845   3.827 -1.5305 -0.3646  0.9067
 5383SOL    HW220961   7.082   7.947   3.931 -2.1101  0.1825  0.5994
 5384SOL     OW20962   9.831  10.841   2.356  0.0286  0.1887  0.0498
 5384SOL    HW120963   9.781  10.777   2.408 -0.0643 -0.1126 -0.4038
 5384SOL    HW220964   9.766  10.879   2.297  0.4003 -0.5147 -0.8447
 5385SOL     OW20965   5.394   3.446   7.499 -0.2667 -0.0153  1.2469
 5385SOL    HW120966   5.343   3.433   7.420  1.7174 -0.8030  0.0100
 5385SOL    HW220967   5.393   3.361   7.543  0.5671 -0.2666  0.8097
 5386SOL     OW20968   0.321  10.018   6.448  0.4214 -0.2974 -0.1357
 5386SOL    HW120969   0.276   9.948   6.495  1.6913 -1.2650 -0.3314
 5386SOL    HW220970   0.263  10.037   6.374 -1.5767  1.2082  1.6927
 5387SOL     OW20971  12.009   7.678  12.182  0.5213  0.3277 -0.1167
 5387SOL    HW120972  11.983   7.644  12.267  0.2918 -0.4175 -0.4745
 5387SOL    HW220973  12.083   7.624  12.156  1.1285  1.0931 -0.0297
 5388SOL     OW20974   0.552   4.177  11.994 -0.5817  0.1418 -0.2044
 5388SOL    HW120975   0.627   4.146  11.943  0.0689  2.5421 -0.8025
 5388SOL    HW220976   0.570   4.146  12.083  2.1102  2.0909  0.0630
 5389SOL     OW20977  10.593  11.278   0.413  0.2516 -0.2305  0.1751
 5389SOL    HW120978  10.590  11.182   0.417  0.5028 -0.3275 -1.2232
 5389SOL    HW220979  10.649  11.297   0.337  0.6119  1.0352  0.7230
 5390SOL     OW20980   7.139   7.202   6.836  0.1628  0.2429 -0.2147
 5390SOL    HW120981   7.130   7.206   6.931  0.1039 -0.8128 -0.1661
 5390SOL    HW220982   7.232   7.188   6.821 -0.0849 -1.6665 -0.2086
 5391SOL     OW20983   4.147   4.851   1.635 -0.2632  0.3839  0.4691
 5391SOL    HW120984   4.105   4.766   1.651 -2.5221  1.0130 -1.4743
 5391SOL    HW220985   4.184   4.843   1.547  1.1655  0.8514  0.9957
 5392SOL     OW20986   5.615   2.373  11.354  0.5543  0.1496 -0.2522
 5392SOL    HW120987   5.682   2.317  11.394 -0.4203 -1.3206 -0.5839
 5392SOL    HW220988   5.627   2.362  11.260  0.2332  0.3554 -0.3194
 5393SOL     OW20989  10.859   0.731   7.164 -0.2506 -0.4873  0.0724
 5393SOL    HW120990  10.782   0.686   7.197  0.2239 -0.8192  0.7368
 5393SOL    HW220991  10.861   0.814   7.212  0.2233 -0.8019  0.5976
 5394SOL     OW20992   5.279  12.353   8.359 -0.1096 -0.6647 -0.0795
 5394SOL    HW120993   5.186  12.348   8.336 -0.3491  0.6545  0.4639
 5394SOL    HW220994   5.311  12.263   8.354 -0.8554 -0.8532 -2.5344
 5395SOL     OW20995   5.827   5.274  11.502  0.3335 -0.0022  0.6380
 5395SOL    HW120996   5.903   5.225  11.534  0.0813  0.5609  2.1733
 5395SOL    HW220997   5.859   5.362  11.487  0.0947  0.1164  0.8135
 5396SOL     OW20998   2.779   8.982   7.410  0.2186  0.1483  0.1859
 5396SOL    HW120999   2.814   8.924   7.342  0.4491  0.4172  0.0736
 5396SOL    HW221000   2.752   8.923   7.480  1.6228 -0.0197  0.6129
 5397SOL     OW21001   6.313   9.910   8.114 -0.6854  0.5210 -0.6260
 5397SOL    HW121002   6.343   9.824   8.084  0.2537  0.5220  0.2654
 5397SOL    HW221003   6.330   9.910   8.208  0.5562  2.1650 -0.8100
 5398SOL     OW21004   9.729  11.478   7.130  0.6881 -0.5210 -0.2149
 5398SOL    HW121005   9.672  11.405   7.155 -0.9486  1.1263  1.1488
 5398SOL    HW221006   9.703  11.498   7.040  1.0858 -1.5159 -0.5698
 5399SOL     OW21007   6.445   3.385   8.021  0.5981 -0.5292  0.4386
 5399SOL    HW121008   6.422   3.338   7.941 -1.0623  0.8739  0.0218
 5399SOL    HW221009   6.540   3.385   8.023  0.7621  0.8225 -2.4655
 5400SOL     OW21010  11.406   0.406  11.421 -0.2537  0.1250 -0.1339
 5400SOL    HW121011  11.462   0.342  11.464 -1.3394 -0.4540  0.4398
 5400SOL    HW221012  11.346   0.436  11.489  0.7343  2.3884 -0.1561
 5401SOL     OW21013  11.001  11.236   8.079 -0.0932 -0.1491 -0.2221
 5401SOL    HW121014  11.022  11.170   8.146  1.6407 -0.0773 -0.6625
 5401SOL    HW221015  11.051  11.314   8.105 -0.5813  0.3595 -0.7834
 5402SOL     OW21016   1.353   6.363   2.680 -0.3562 -0.4488 -0.5579
 5402SOL    HW121017   1.299   6.364   2.601 -0.2668 -0.9480 -0.6298
 5402SOL    HW221018   1.360   6.270   2.703 -2.1395 -0.1950  1.2688
 5403SOL     OW21019   5.442   9.234   3.776 -0.6987 -0.2261  0.9630
 5403SOL    HW121020   5.417   9.323   3.750  1.7599  0.1076 -0.5984
 5403SOL    HW221021   5.446   9.186   3.694  0.2672 -1.1371  1.5215
 5404SOL     OW21022   6.360  11.193   6.856  0.4047  0.2361 -0.7227
 5404SOL    HW121023   6.413  11.127   6.900  0.7324  1.2811  0.5197
 5404SOL    HW221024   6.382  11.275   6.900 -1.8681  0.7930 -0.5073
 5405SOL     OW21025  10.524   0.740  10.339 -0.5767  0.2224 -0.1033
 5405SOL    HW121026  10.570   0.661  10.365 -0.1165  0.4267 -0.2755
 5405SOL    HW221027  10.556   0.808  10.398  0.6236  0.7299 -1.2732
 5406SOL     OW21028  11.228  12.345   3.334 -0.1085  0.0087  0.5114
 5406SOL    HW121029  11.288  12.310   3.267  0.8019  0.0969  1.2678
 5406SOL    HW221030  11.170  12.403   3.285 -0.9289 -1.6439 -0.5912
 5407SOL     OW21031  10.931   4.380  11.462  0.2584 -0.0131 -0.1085
 5407SOL    HW121032  10.902   4.407  11.550 -0.3887 -1.5502  0.1929
 5407SOL    HW221033  11.011   4.331  11.478 -0.1499 -0.7547 -0.3046
 5408SOL     OW21034   3.218   6.644   7.941  0.4615  0.3714 -0.4703
 5408SOL    HW121035   3.187   6.553   7.935  0.6701  0.2185  0.6021
 5408SOL    HW221036   3.262   6.659   7.858  1.8366 -1.0607 -0.0552
 5409SOL     OW21037   7.862   3.089   7.591  0.3697  0.0766  0.3506
 5409SOL    HW121038   7.923   3.035   7.640  1.5284  0.3997 -0.6698
 5409SOL    HW221039   7.858   3.172   7.640  0.9164  0.1245  0.3188
 5410SOL     OW21040   8.244  10.214  12.497  1.0448  0.2400  0.4187
 5410SOL    HW121041   8.323  10.185  12.543  2.1034  0.7509 -1.0130
 5410SOL    HW221042   8.191  10.135  12.487  1.1192 -0.0092  1.8569
 5411SOL     OW21043  12.122   1.748   3.414 -0.4300 -0.1532  0.3533
 5411SOL    HW121044  12.204   1.798   3.420 -0.7216  0.5397 -0.9778
 5411SOL    HW221045  12.146   1.660   3.442  0.7226  0.0982  0.2203
 5412SOL     OW21046   5.702   9.905   2.663  0.9192  0.0488 -0.2321
 5412SOL    HW121047   5.655   9.933   2.742 -0.3359  0.2893 -1.0325
 5412SOL    HW221048   5.737   9.986   2.626  2.8956 -0.2390  0.8977
 5413SOL     OW21049   4.454  12.020   0.547 -0.1665  0.0444  0.3365
 5413SOL    HW121050   4.360  12.041   0.553 -0.1441  0.0826  0.5511
 5413SOL    HW221051   4.466  11.946   0.607 -0.0759 -0.0177  0.2416
 5414SOL     OW21052   9.930   9.319   0.702 -0.1855  0.1830  0.1646
 5414SOL    HW121053   9.970   9.303   0.788 -1.9259  0.8334  1.1628
 5414SOL    HW221054   9.839   9.342   0.723 -0.8908 -0.5091 -1.9272
 5415SOL     OW21055   9.982   1.988  12.201  0.1596 -0.2101  0.1160
 5415SOL    HW121056  10.016   1.920  12.144  0.2600  0.5514 -0.7431
 5415SOL    HW221057   9.968   2.064  12.144 -2.0850 -0.1890  0.5894
 5416SOL     OW21058   6.431   6.262   7.156 -0.4344 -0.1732 -0.1933
 5416SOL    HW121059   6.518   6.302   7.165 -1.6444  2.3982  1.3616
 5416SOL    HW221060   6.430   6.192   7.221 -0.0018  0.7892  0.8997
 5417SOL     OW21061  12.127   6.714  10.000  0.2168 -0.0882 -0.7803
 5417SOL    HW121062  12.078   6.788   9.964 -0.8042 -0.5070 -0.3043
 5417SOL    HW221063  12.098   6.709  10.091  1.7484  0.1219 -0.2607
 5418SOL     OW21064  10.617   0.849  12.361  0.4293  0.0944  0.2245
 5418SOL    HW121065  10.588   0.815  12.445 -2.3036 -0.7903 -0.9579
 5418SOL    HW221066  10.537   0.862  12.311  1.8137  2.4635 -1.6088
 5419SOL     OW21067   2.545  10.207   2.044 -0.0317 -0.1655  0.0886
 5419SOL    HW121068   2.639  10.199   2.024 -0.0900 -1.0677  0.1680
 5419SOL    HW221069   2.543  10.252   2.129  0.3647 -0.9176  0.5072
 5420SOL     OW21070   5.949   1.006   7.268  0.3081 -0.2213  0.7315
 5420SOL    HW121071   5.998   1.013   7.186  1.1096 -0.0948  1.2080
 5420SOL    HW221072   5.861   0.978   7.241  0.5708 -0.2336 -0.1603
 5421SOL     OW21073   3.480   5.947   2.999 -0.4429  0.2950  0.2801
 5421SOL    HW121074   3.424   5.875   3.028 -0.8481 -0.4533 -2.1453
 5421SOL    HW221075   3.420   6.016   2.973 -0.1220  0.7350  0.6928
 5422SOL     OW21076   1.325   6.527   7.939 -0.2197 -0.4067 -0.4184
 5422SOL    HW121077   1.334   6.449   7.994  2.2885  0.9207  1.2509
 5422SOL    HW221078   1.409   6.572   7.947 -1.1198  1.8509 -2.3410
 5423SOL     OW21079  11.773  11.929   4.995  0.2264  0.1042  0.3320
 5423SOL    HW121080  11.846  11.926   5.056  0.1761  0.9241  0.4413
 5423SOL    HW221081  11.783  11.850   4.942  0.3380 -0.5675  1.3171
 5424SOL     OW21082  10.107   5.989  10.837 -0.2857  0.2117 -0.0043
 5424SOL    HW121083  10.081   5.931  10.908 -3.0997  1.3374  0.0134
 5424SOL    HW221084  10.025   6.030  10.808  0.9797  0.9713 -2.8595
 5425SOL     OW21085   6.849   8.113   3.198 -0.5281  0.4614  0.0412
 5425SOL    HW121086   6.914   8.183   3.190 -1.2362  1.1563  0.3104
 5425SOL    HW221087   6.801   8.134   3.278 -1.3301  0.1661 -0.3501
 5426SOL     OW21088  10.554   9.398  10.542  0.4430  0.3739  0.0226
 5426SOL    HW121089  10.630   9.423  10.594  1.2073  0.4226 -1.0837
 5426SOL    HW221090  10.486   9.378  10.607  1.3869  0.3379  1.0302
 5427SOL     OW21091   4.593   5.220   7.816 -0.0872 -0.6784 -0.4936
 5427SOL    HW121092   4.503   5.226   7.849 -0.1460  1.0185 -0.8170
 5427SOL    HW221093   4.583   5.217   7.721  0.1458 -3.3198 -0.4858
 5428SOL     OW21094   6.837   1.012   4.640  0.2817 -0.0796 -0.2147
 5428SOL    HW121095   6.882   1.073   4.583  0.2005 -0.7580 -1.0201
 5428SOL    HW221096   6.746   1.041   4.639  0.2016 -0.3285 -0.7734
 5429SOL     OW21097   2.731   4.790   6.854  0.2863 -0.2359 -0.0681
 5429SOL    HW121098   2.788   4.863   6.881  0.7467  0.1951 -1.9830
 5429SOL    HW221099   2.792   4.721   6.829 -0.0713 -0.3719 -0.5825
 5430SOL     OW21100   2.068  11.854   0.516  0.3216  0.0414 -0.1599
 5430SOL    HW121101   1.979  11.878   0.492  0.4687 -0.4033 -1.1913
 5430SOL    HW221102   2.059  11.805   0.598 -0.2277  1.2685  0.5351
 5431SOL     OW21103  12.643  10.673   3.046  0.0100  0.4360  0.3476
 5431SOL    HW121104  12.596  10.734   3.102 -0.0898 -0.3810  1.1800
 5431SOL    HW221105  12.584  10.659   2.972 -0.3050  0.7450  0.5344
 5432SOL     OW21106   6.793   3.163   2.311 -0.6827 -0.1855 -0.5965
 5432SOL    HW121107   6.707   3.178   2.271 -1.7480 -1.8528  0.8871
 5432SOL    HW221108   6.786   3.076   2.350  1.2048  0.2258  0.8078
 5433SOL     OW21109   3.443   2.006  11.949  0.2720 -0.1450 -0.0765
 5433SOL    HW121110   3.501   2.082  11.952  0.7121 -0.4819  0.2333
 5433SOL    HW221111   3.438   1.982  11.857  1.6996 -0.9055  0.0169
 5434SOL     OW21112   1.396   7.552   8.475  0.5311  0.3627  0.3885
 5434SOL    HW121113   1.488   7.546   8.448 -0.1420 -0.6470 -1.9515
 5434SOL    HW221114   1.357   7.614   8.414 -0.6086 -0.2890  0.4277
 5435SOL     OW21115  10.204  10.517   1.352 -0.5170  0.3833 -0.5675
 5435SOL    HW121116  10.154  10.458   1.409 -0.7961  1.7575  0.6612
 5435SOL    HW221117  10.294  10.484   1.356 -1.0158 -1.2551 -1.6708
 5436SOL     OW21118   8.961   0.131   7.785 -0.1475 -0.2478 -0.2519
 5436SOL    HW121119   9.051   0.152   7.809  0.1853 -0.6387 -1.1143
 5436SOL    HW221120   8.932   0.069   7.852  1.3072 -2.5967 -1.6637
 5437SOL     OW21121   1.169  12.284   3.436 -0.2895  0.4767  0.1644
 5437SOL    HW121122   1.118  12.228   3.494 -0.4300  3.0555  2.7859
 5437SOL    HW221123   1.249  12.303   3.486  1.1051  0.2999 -1.8788
 5438SOL     OW21124   3.021   0.956   4.637 -0.5472  0.5637  0.5808
 5438SOL    HW121125   2.998   1.049   4.635  0.4610  1.0063  4.0187
 5438SOL    HW221126   3.107   0.953   4.595 -1.8423  0.5660 -2.3659
 5439SOL     OW21127   0.096  12.006  10.849  0.6768  0.3914 -0.1598
 5439SOL    HW121128   0.145  12.029  10.770  1.1565  2.2603  0.6242
 5439SOL    HW221129   0.141  12.052  10.920 -1.3430  0.9994  0.8071
 5440SOL     OW21130  10.575   9.898  10.472  0.2700  0.3249 -0.1241
 5440SOL    HW121131  10.597   9.864  10.384  1.2458  0.5525  0.0178
 5440SOL    HW221132  10.486   9.930  10.463  0.3253  0.2773 -1.0203
 5441SOL     OW21133  11.979   6.402   3.232 -0.7286  0.4537 -0.4478
 5441SOL    HW121134  11.936   6.366   3.309  0.7423 -1.4976 -0.4348
 5441SOL    HW221135  11.938   6.487   3.218 -2.4546 -0.0314  1.2494
 5442SOL     OW21136   9.788  10.758   9.545 -0.3881  0.4149  0.0206
 5442SOL    HW121137   9.852  10.687   9.537 -1.1035 -0.1245 -1.2268
 5442SOL    HW221138   9.752  10.748   9.633  0.1857 -0.1933  0.1951
 5443SOL     OW21139   4.050   3.884   0.274 -0.5196  0.4862  0.8185
 5443SOL    HW121140   4.121   3.821   0.277 -1.3701 -0.4712  1.6595
 5443SOL    HW221141   3.973   3.832   0.248 -1.1169  1.2890  0.9379
 5444SOL     OW21142   8.400   6.748  12.345  0.2821 -0.3830 -0.7949
 5444SOL    HW121143   8.433   6.668  12.303 -1.8914 -2.3025  0.8649
 5444SOL    HW221144   8.329   6.777  12.288  0.2335 -0.3970 -0.7412
 5445SOL     OW21145   1.749  10.725  10.163 -0.1024  0.2034  0.2066
 5445SOL    HW121146   1.717  10.782  10.233 -2.0429 -0.0924 -0.3805
 5445SOL    HW221147   1.802  10.783  10.108 -1.7312  1.3968 -0.1838
 5446SOL     OW21148   2.391   4.490   4.488  0.5177 -0.1359 -0.2988
 5446SOL    HW121149   2.337   4.467   4.564  1.6739 -0.6229  0.3891
 5446SOL    HW221150   2.478   4.508   4.524  1.0979 -0.4116 -1.5115
 5447SOL     OW21151   0.030   7.783   3.703 -0.6826  0.4628 -0.4666
 5447SOL    HW121152  -0.059   7.761   3.678  0.4665 -3.0520 -1.9963
 5447SOL    HW221153   0.057   7.714   3.764  1.3177  0.8556 -0.8175
 5448SOL     OW21154  10.226   5.898   3.989 -0.1544 -0.2692 -0.0355
 5448SOL    HW121155  10.175   5.842   3.931  0.7158 -1.5404  0.3749
 5448SOL    HW221156  10.207   5.866   4.077 -0.7828  1.0650  0.3389
 5449SOL     OW21157   0.737  11.044   1.581  0.0735 -0.1588  0.0808
 5449SOL    HW121158   0.746  11.098   1.503 -3.0599  0.4629 -0.0011
 5449SOL    HW221159   0.678  11.094   1.638 -0.4393 -2.1049  1.3499
 5450SOL     OW21160  10.382   0.326   8.959 -0.2379 -0.6468  0.4744
 5450SOL    HW121161  10.342   0.249   8.918  0.5677 -1.2259  0.7420
 5450SOL    HW221162  10.310   0.388   8.970 -0.7878 -1.1274 -0.2912
 5451SOL     OW21163   6.734   7.927   0.254  0.6786  0.4259  0.0770
 5451SOL    HW121164   6.755   7.834   0.258  0.8466  0.2102 -3.1222
 5451SOL    HW221165   6.651   7.931   0.207  0.2678  1.8695  0.8669
 5452SOL     OW21166   1.963   7.071   0.898  0.4859 -0.8241  0.6681
 5452SOL    HW121167   1.875   7.068   0.937  0.2192  2.6022  0.6730
 5452SOL    HW221168   1.967   6.993   0.843 -2.7721 -0.8714  0.2570
 5453SOL     OW21169   5.518   1.244   7.421  0.1049  0.0792  0.4299
 5453SOL    HW121170   5.502   1.256   7.328 -1.6684  1.9916  0.9071
 5453SOL    HW221171   5.432   1.254   7.462  0.8401 -0.6954  2.2932
 5454SOL     OW21172  10.202   6.982   4.409  0.2165 -0.0231  0.2755
 5454SOL    HW121173  10.178   7.074   4.418 -1.0678 -0.0923 -1.8384
 5454SOL    HW221174  10.123   6.934   4.431  0.8424 -0.6579  1.2346
 5455SOL     OW21175   9.603   3.685   2.353 -0.1243 -0.1358 -0.8341
 5455SOL    HW121176   9.603   3.671   2.447  0.6843  3.6975 -0.1041
 5455SOL    HW221177   9.692   3.663   2.325 -0.7162 -2.5294 -1.0437
 5456SOL     OW21178   8.033   6.234   4.535  0.1478 -0.0178 -0.1680
 5456SOL    HW121179   8.006   6.325   4.520  0.5184  0.0667 -0.3518
 5456SOL    HW221180   8.053   6.230   4.628  0.7981  0.2806 -0.2858
 5457SOL     OW21181   5.609  10.071   6.563  0.0347 -0.3178 -0.1134
 5457SOL    HW121182   5.601  10.124   6.484 -1.4929 -1.4414 -0.7759
 5457SOL    HW221183   5.692  10.025   6.554  0.6644  0.8152 -0.2389
 5458SOL     OW21184   5.160  12.374   8.041  0.0013  0.2362 -0.1254
 5458SOL    HW121185   5.213  12.373   7.962 -1.8595 -0.6120 -1.4362
 5458SOL    HW221186   5.073  12.400   8.011 -0.3999  1.5402  1.9295
 5459SOL     OW21187   5.562   2.812   8.888  0.6197 -0.2612  0.6174
 5459SOL    HW121188   5.649   2.807   8.846  0.9931  1.9301  1.0066
 5459SOL    HW221189   5.573   2.767   8.971  1.1536 -0.6826  0.3292
 5460SOL     OW21190   3.843   6.408   1.527 -0.1221  0.6045 -0.3215
 5460SOL    HW121191   3.891   6.480   1.567  0.5481  0.4278 -0.7958
 5460SOL    HW221192   3.784   6.450   1.464 -0.7480  0.8353  0.3984
 5461SOL     OW21193  11.800   9.231   6.786  0.5681  0.1312 -0.4447
 5461SOL    HW121194  11.827   9.272   6.868 -1.5985 -0.6066  0.7075
 5461SOL    HW221195  11.716   9.274   6.764 -0.3509 -1.7090 -0.6834
 5462SOL     OW21196  11.391   1.262   0.491 -0.0379  0.3089 -0.5142
 5462SOL    HW121197  11.480   1.271   0.526  0.1982 -0.4449 -0.9041
 5462SOL    HW221198  11.389   1.319   0.415 -0.6249  2.1494  0.7935
 5463SOL     OW21199  10.397   6.370  10.569 -0.3309 -0.4436  0.2334
 5463SOL    HW121200  10.311   6.351  10.532  0.3247 -0.2203 -1.4794
 5463SOL    HW221201  10.439   6.285  10.578 -0.4635 -0.4913  0.4102
 5464SOL     OW21202   9.384   9.979   2.014  0.2074  0.1969  0.1027
 5464SOL    HW121203   9.396  10.068   2.048  1.1841  0.5330 -1.0375
 5464SOL    HW221204   9.388   9.989   1.919 -1.6072 -0.8260 -0.1248
 5465SOL     OW21205   6.850   0.120   5.466 -0.1135 -0.1503  0.2510
 5465SOL    HW121206   6.764   0.098   5.502 -0.4951  2.2471  1.0312
 5465SOL    HW221207   6.899   0.038   5.467 -1.6698 -1.1271  1.8715
 5466SOL     OW21208   6.625  12.178  10.703 -0.4478  0.2520  0.0311
 5466SOL    HW121209   6.591  12.092  10.726 -0.6780  0.1091 -0.8049
 5466SOL    HW221210   6.563  12.212  10.638 -0.5190  1.1708  0.5669
 5467SOL     OW21211   9.557  11.613  10.574 -0.6765  0.1393 -0.5629
 5467SOL    HW121212   9.525  11.596  10.485  1.0698 -1.2036 -0.9997
 5467SOL    HW221213   9.486  11.662  10.616 -2.2555 -0.6584 -2.1488
 5468SOL     OW21214   0.263   2.830   4.803 -0.9134  0.5380  0.4792
 5468SOL    HW121215   0.292   2.739   4.791  0.2504  0.8607  0.8125
 5468SOL    HW221216   0.199   2.844   4.733 -1.1644 -0.5611  0.4678
 5469SOL     OW21217   1.093   8.110   3.776 -0.6131 -0.2360 -0.2259
 5469SOL    HW121218   1.005   8.108   3.813 -1.3650  3.1801 -1.4685
 5469SOL    HW221219   1.080   8.097   3.682  0.6707 -3.1107 -0.1113
 5470SOL     OW21220  11.082   8.440  12.451  0.6903 -0.2740 -0.1803
 5470SOL    HW121221  11.019   8.480  12.510  0.4684 -0.3974 -0.3330
 5470SOL    HW221222  11.125   8.514  12.407  1.3032 -0.1581  0.5922
 5471SOL     OW21223   9.983   7.422   9.195 -0.1448 -0.1920  0.6623
 5471SOL    HW121224  10.042   7.359   9.153 -0.4540 -0.8291  1.1690
 5471SOL    HW221225  10.042   7.484   9.239  0.1792  0.2957 -0.3965
 5472SOL     OW21226  10.312   0.227   2.905  0.0389  0.2014 -0.1394
 5472SOL    HW121227  10.256   0.150   2.914  0.5898 -0.0740  1.0424
 5472SOL    HW221228  10.364   0.229   2.985 -0.1782  1.9838  0.0070
 5473SOL     OW21229   0.854   4.867  10.300  0.6498  0.3181 -0.5052
 5473SOL    HW121230   0.848   4.878  10.205 -0.0735  1.3495 -0.3486
 5473SOL    HW221231   0.805   4.787  10.318 -0.2386  0.7602 -0.8836
 5474SOL     OW21232   9.384   3.525   9.356  0.5995 -0.0189  0.0564
 5474SOL    HW121233   9.324   3.522   9.282 -0.5641 -3.2629  0.9544
 5474SOL    HW221234   9.328   3.550   9.430  1.2724  0.9632  0.2525
 5475SOL     OW21235  11.815   4.370   8.816  0.1945  0.6842 -0.0431
 5475SOL    HW121236  11.888   4.422   8.849  0.1245  1.0844 -0.5140
 5475SOL    HW221237  11.759   4.356   8.893 -0.1613  1.9392 -0.0493
 5476SOL     OW21238   3.623   9.540   8.062  0.0640 -0.1720 -0.2906
 5476SOL    HW121239   3.702   9.582   8.028  0.3160 -1.0353 -0.8142
 5476SOL    HW221240   3.648   9.510   8.150  1.1702 -2.6058 -1.3429
 5477SOL     OW21241   8.885   6.937   9.323 -0.4577  0.1063 -0.3767
 5477SOL    HW121242   8.948   6.867   9.338 -0.7112  0.0069  0.2725
 5477SOL    HW221243   8.840   6.913   9.242 -1.3237 -1.0794  0.4133
 5478SOL     OW21244   8.714  11.601   6.456 -0.7640  0.0937  0.0335
 5478SOL    HW121245   8.769  11.665   6.412  0.6675 -0.6380  0.6948
 5478SOL    HW221246   8.712  11.525   6.397 -0.4822 -0.1447  0.3262
 5479SOL     OW21247   8.279  10.719  12.436 -0.0847  0.0263  0.0727
 5479SOL    HW121248   8.199  10.756  12.399 -0.3297 -0.5815 -0.0301
 5479SOL    HW221249   8.280  10.749  12.527  0.3544  1.2610 -0.3232
 5480SOL     OW21250   2.371   3.879   9.832 -1.0458 -0.0783 -0.0084
 5480SOL    HW121251   2.443   3.870   9.769 -0.0112 -0.2687  1.1590
 5480SOL    HW221252   2.334   3.965   9.815  0.2807  0.5494  0.1857
 5481SOL     OW21253   7.620   7.546  11.619  0.3288 -0.1966 -0.1891
 5481SOL    HW121254   7.672   7.570  11.542  1.1554  1.0042  0.7073
 5481SOL    HW221255   7.551   7.613  11.623 -0.4675 -0.9666 -0.5580
 5482SOL     OW21256   0.311   9.642   0.459 -0.0178 -0.6823 -0.5297
 5482SOL    HW121257   0.334   9.734   0.448 -0.9561 -0.2358  1.0004
 5482SOL    HW221258   0.224   9.643   0.497 -0.8353 -2.2613 -2.1864
 5483SOL     OW21259   1.249  11.178   5.280  0.1549  0.0335  0.0037
 5483SOL    HW121260   1.290  11.140   5.202  0.7646  0.8640 -0.0986
 5483SOL    HW221261   1.214  11.262   5.249  0.4397  0.3905  0.6362
 5484SOL     OW21262   4.363   5.812   8.932 -0.2136  0.3347 -0.3930
 5484SOL    HW121263   4.314   5.812   9.014 -0.4975  2.8274 -0.4661
 5484SOL    HW221264   4.346   5.899   8.895  2.6187  0.5407 -1.4349
 5485SOL     OW21265   4.098  11.919   5.476  0.5970 -0.4553 -0.4273
 5485SOL    HW121266   4.025  11.873   5.436  1.8229 -0.5312 -2.7484
 5485SOL    HW221267   4.150  11.952   5.402  1.5346  1.8425  1.1213
 5486SOL     OW21268   5.966   8.250   8.949  0.1331 -0.8163  0.3637
 5486SOL    HW121269   6.025   8.245   8.874  0.9999  0.1243  0.9655
 5486SOL    HW221270   5.998   8.324   9.001 -0.2330 -1.6407  1.8378
 5487SOL     OW21271   1.981   8.937   7.945  0.0087 -0.4452 -0.6021
 5487SOL    HW121272   1.905   8.890   7.980 -1.5253  3.4938  2.1405
 5487SOL    HW221273   2.045   8.936   8.016  0.7744 -0.1996 -1.2781
 5488SOL     OW21274  10.962  11.487   0.720 -0.5940  0.0466  0.1349
 5488SOL    HW121275  11.048  11.486   0.762  0.6464  1.8519 -2.1508
 5488SOL    HW221276  10.903  11.520   0.787  0.6754 -0.1769  1.4157
 5489SOL     OW21277   4.429  10.150  12.159 -0.0511 -0.0292  0.1240
 5489SOL    HW121278   4.517  10.166  12.123  0.3839  2.1465  1.9294
 5489SOL    HW221279   4.438  10.066  12.205  0.6844 -0.4680 -0.7537
 5490SOL     OW21280  11.401  12.239   3.167 -0.0904  0.0533  0.1914
 5490SOL    HW121281  11.493  12.250   3.194  0.4388 -3.2988  0.2560
 5490SOL    HW221282  11.376  12.154   3.204 -2.0603 -0.8000 -2.7717
 5491SOL     OW21283   5.830   9.408   3.048  0.6855 -0.0369 -0.2213
 5491SOL    HW121284   5.822   9.500   3.025  0.5411 -0.4405 -2.0129
 5491SOL    HW221285   5.786   9.362   2.976  1.0725 -1.5179  0.4397
 5492SOL     OW21286   6.793   1.077   3.782 -0.3103  0.5587 -0.5036
 5492SOL    HW121287   6.853   1.049   3.850 -1.5034  0.9622  0.7698
 5492SOL    HW221288   6.804   1.172   3.777 -2.2639  0.9401  1.2413
 5493SOL     OW21289  11.037   7.581   8.129  0.4418  0.3798  0.6716
 5493SOL    HW121290  10.984   7.650   8.169 -1.0009 -0.5443  0.4317
 5493SOL    HW221291  11.127   7.611   8.139 -0.1811  3.7123 -2.0185
 5494SOL     OW21292   3.864   1.507   2.706  0.8112  0.4824 -0.2352
 5494SOL    HW121293   3.772   1.507   2.679  0.5492 -0.7564  0.5842
 5494SOL    HW221294   3.868   1.569   2.778  0.2207 -0.7402  0.8966
 5495SOL     OW21295   3.203   8.783   7.984 -0.3501  0.6065 -0.4172
 5495SOL    HW121296   3.115   8.779   7.946  0.1555 -1.1994 -1.5432
 5495SOL    HW221297   3.243   8.700   7.960  0.6554  0.0762  2.6432
 5496SOL     OW21298   9.632   7.526   1.404  0.3536  0.3606  0.1740
 5496SOL    HW121299   9.566   7.590   1.431  0.4908  1.4368 -1.8560
 5496SOL    HW221300   9.589   7.477   1.333  0.8951 -0.6060  0.4965
 5497SOL     OW21301  11.197   2.320  11.279  0.8599 -0.3520  0.2706
 5497SOL    HW121302  11.274   2.336  11.224  1.0447  0.4297  0.7314
 5497SOL    HW221303  11.208   2.381  11.352  0.4232 -1.1101  0.9750
 5498SOL     OW21304   2.426   5.914   1.621 -0.5570 -0.0049 -0.1374
 5498SOL    HW121305   2.435   6.007   1.642  1.4984 -0.2228  0.2245
 5498SOL    HW221306   2.458   5.869   1.699 -1.2943 -1.0116 -0.4055
 5499SOL     OW21307   9.115   6.992   7.476 -0.1878 -0.2737  0.5555
 5499SOL    HW121308   9.204   7.024   7.462 -0.4604  1.3288  2.1089
 5499SOL    HW221309   9.061   7.071   7.479 -1.6573 -1.2022 -0.1850
 5500SOL     OW21310   4.745   3.265  10.549  0.2830 -0.3000 -0.2276
 5500SOL    HW121311   4.707   3.336  10.601  3.7001  0.7795  1.0508
 5500SOL    HW221312   4.701   3.186  10.582 -2.0361  0.9457 -0.1287
 5501SOL     OW21313   4.253   9.698   4.233 -0.2168 -0.1557  0.0755
 5501SOL    HW121314   4.285   9.666   4.149 -1.2384 -1.1647  0.0306
 5501SOL    HW221315   4.227   9.618   4.280 -0.8005  0.4796  0.8583
 5502SOL     OW21316   6.712   6.776   1.348  0.0513 -0.3206 -0.3312
 5502SOL    HW121317   6.726   6.866   1.377 -0.7919 -0.2549 -0.0855
 5502SOL    HW221318   6.755   6.771   1.263 -1.6578  0.9573 -1.3472
 5503SOL     OW21319   9.657   5.561  10.364  0.2346  0.2882  0.1166
 5503SOL    HW121320   9.729   5.556  10.427  0.8614  0.0614 -0.6061
 5503SOL    HW221321   9.638   5.469  10.342  0.3402  0.3868 -0.3845
 5504SOL     OW21322   4.636   0.108   0.882  0.4019  0.1107  0.1890
 5504SOL    HW121323   4.693   0.150   0.816  0.9719  0.5942  0.9719
 5504SOL    HW221324   4.693   0.096   0.958  0.4678 -2.7600 -0.1981
 5505SOL     OW21325   1.067   8.791   6.869 -0.3489 -0.3624 -0.3104
 5505SOL    HW121326   1.006   8.755   6.934 -1.5239  0.2363 -1.0524
 5505SOL    HW221327   1.070   8.885   6.887  1.5649 -0.5550  0.6738
 5506SOL     OW21328   0.097   4.939  10.853 -0.1053 -0.1332  0.0461
 5506SOL    HW121329   0.119   5.030  10.831 -1.9255  0.5922  1.0129
 5506SOL    HW221330   0.006   4.930  10.827 -0.9444 -0.6446  2.8795
 5507SOL     OW21331   7.149   1.184   7.792 -0.1974 -0.2683  0.0033
 5507SOL    HW121332   7.158   1.211   7.700  0.7045  0.4911  0.2980
 5507SOL    HW221333   7.055   1.170   7.804 -0.2530 -1.0563 -1.2205
 5508SOL     OW21334   0.349   8.192   1.677  0.3395  0.7146  0.2339
 5508SOL    HW121335   0.353   8.209   1.583  0.7296  0.9454  0.2914
 5508SOL    HW221336   0.284   8.122   1.686  1.5666 -0.5426 -0.3721
 5509SOL     OW21337   8.698   0.096   3.159  0.3416  0.0490  0.2015
 5509SOL    HW121338   8.791   0.094   3.182  0.4161 -0.4220 -0.1265
 5509SOL    HW221339   8.684   0.184   3.123  1.5100 -0.9745 -3.1406
 5510SOL     OW21340   9.623  10.344  11.598 -0.0187 -0.0924  0.3602
 5510SOL    HW121341   9.676  10.369  11.675  1.2202 -0.5363 -0.3124
 5510SOL    HW221342   9.688  10.316  11.533 -0.9696  1.2509 -1.2307
 5511SOL     OW21343   8.194   5.660   8.324 -0.2539  0.0183  0.3397
 5511SOL    HW121344   8.237   5.737   8.362  0.6250  0.4783 -1.5023
 5511SOL    HW221345   8.261   5.619   8.269 -1.3331 -0.8907 -0.3407
 5512SOL     OW21346   5.476  10.028  11.268 -0.4346  0.0845 -0.0771
 5512SOL    HW121347   5.385   9.997  11.268 -1.2199  2.2084 -0.0187
 5512SOL    HW221348   5.473  10.111  11.317  1.8963 -0.6993  1.5248
 5513SOL     OW21349   0.089   0.568  10.253 -0.1538 -0.0822  0.1639
 5513SOL    HW121350   0.181   0.566  10.279 -0.1757  0.1807  0.2656
 5513SOL    HW221351   0.043   0.519  10.321 -0.1359  0.1097  0.3159
 5514SOL     OW21352   2.157  11.760   0.261  0.1106  0.3654 -0.5562
 5514SOL    HW121353   2.186  11.820   0.193 -1.3897  1.0060 -0.6590
 5514SOL    HW221354   2.136  11.817   0.336  0.0452 -0.1644 -0.1657
 5515SOL     OW21355   9.377   3.181   1.351 -0.3949 -0.0613  0.6310
 5515SOL    HW121356   9.396   3.234   1.429 -0.2211 -1.7331  1.7828
 5515SOL    HW221357   9.447   3.116   1.349 -1.3255 -1.0812  0.0474
 5516SOL     OW21358   5.809   7.726   8.653 -0.5752  0.3713 -0.2103
 5516SOL    HW121359   5.773   7.734   8.742 -0.5026  0.7756 -0.2184
 5516SOL    HW221360   5.768   7.797   8.604 -2.2474 -1.1093 -1.0582
 5517SOL     OW21361   7.937   8.989   1.896  0.1040 -0.2223 -0.1633
 5517SOL    HW121362   7.883   8.928   1.947 -1.0335 -2.3947 -3.5794
 5517SOL    HW221363   7.877   9.060   1.873  0.1302 -0.1017  0.1404
 5518SOL     OW21364  12.229   1.360  10.525 -0.1536 -0.6999 -0.2099
 5518SOL    HW121365  12.240   1.435  10.467  0.9686 -0.4495  0.2868
 5518SOL    HW221366  12.153   1.381  10.579  0.2899  0.1947  0.0838
 5519SOL     OW21367   5.651  10.317   1.736 -0.0665 -0.0151 -0.1877
 5519SOL    HW121368   5.640  10.406   1.702  1.2926  0.7655  1.2333
 5519SOL    HW221369   5.668  10.264   1.658  0.0235  1.1371 -0.9899
 5520SOL     OW21370   5.177   4.913  10.037  0.0300  0.0860 -0.1588
 5520SOL    HW121371   5.260   4.893   9.994  0.4092  2.2993 -0.5772
 5520SOL    HW221372   5.111   4.898   9.970  0.0142 -1.9165  0.2448
 5521SOL     OW21373   5.673   7.501   4.737  0.1423  0.5829 -0.3205
 5521SOL    HW121374   5.583   7.493   4.707 -0.4086 -0.0439  1.3868
 5521SOL    HW221375   5.705   7.411   4.742  0.7971  0.7892 -0.7126
 5522SOL     OW21376  10.932   0.184   7.932  0.3082  0.3870  0.2042
 5522SOL    HW121377  10.954   0.096   7.903 -1.2205 -0.4413  1.4506
 5522SOL    HW221378  10.963   0.188   8.023  0.0126  0.9985  0.2847
 5523SOL     OW21379   7.500   8.483   3.269 -0.3164  0.0586  0.3213
 5523SOL    HW121380   7.567   8.419   3.248  1.5658  1.7326  0.8861
 5523SOL    HW221381   7.542   8.544   3.330 -1.7849  2.1363 -0.5862
 5524SOL     OW21382   1.573   2.218  11.282 -0.1279 -0.5468  0.3546
 5524SOL    HW121383   1.494   2.164  11.272 -0.7125  0.4808 -0.9919
 5524SOL    HW221384   1.594   2.245  11.192  2.8442 -2.2437  0.4199
 5525SOL     OW21385   5.949  12.628   9.469 -0.2389  0.4352 -0.4461
 5525SOL    HW121386   6.038  12.609   9.440 -0.1010 -0.5195  0.5491
 5525SOL    HW221387   5.893  12.581   9.407 -0.0407  0.5232 -0.6948
 5526SOL     OW21388  11.037   1.690   2.805  0.4169 -0.1024 -0.1569
 5526SOL    HW121389  11.115   1.732   2.840  0.2598 -1.4301  1.9522
 5526SOL    HW221390  10.966   1.750   2.827  0.5958  0.1595 -0.2871
 5527SOL     OW21391   4.925   5.365  11.774  0.2165  0.3862 -0.2453
 5527SOL    HW121392   4.928   5.455  11.807  1.0193 -0.2567  1.5970
 5527SOL    HW221393   4.874   5.318  11.840  0.9034 -0.7473 -0.5056
 5528SOL     OW21394   6.650   9.898  12.158 -0.1038 -0.1515 -0.5896
 5528SOL    HW121395   6.592   9.967  12.194  0.1778 -0.4010  0.3787
 5528SOL    HW221396   6.733   9.911  12.204  0.0788 -0.8810 -0.7093
 5529SOL     OW21397  11.549   9.347  12.196  0.3470 -0.5475 -0.8786
 5529SOL    HW121398  11.511   9.376  12.113  1.2233  1.0478 -0.7575
 5529SOL    HW221399  11.631   9.304  12.172  1.0480  0.7044 -0.8208
 5530SOL     OW21400  10.783   2.757   9.520  0.1914  0.6182  0.1185
 5530SOL    HW121401  10.855   2.813   9.494 -1.9013  4.2444  1.4149
 5530SOL    HW221402  10.809   2.722   9.605 -0.2352  3.4624  1.5096
 5531SOL     OW21403   4.565   4.710   2.338 -0.2599 -0.6245  0.0150
 5531SOL    HW121404   4.525   4.786   2.380 -0.6133 -0.6079 -0.3432
 5531SOL    HW221405   4.658   4.731   2.333 -0.3604 -0.1997 -0.1046
 5532SOL     OW21406   2.322  12.467   8.445  0.3292  0.0574  0.0878
 5532SOL    HW121407   2.376  12.545   8.438 -0.8628  0.8647 -0.4168
 5532SOL    HW221408   2.282  12.472   8.532  2.1290 -1.2955  1.0690
 5533SOL     OW21409   7.584  12.634   6.027  0.1282  0.4128  0.5425
 5533SOL    HW121410   7.664  12.606   6.072  0.9109  4.0965  1.8349
 5533SOL    HW221411   7.615  12.670   5.943 -0.1775  1.4382  0.8497
 5534SOL     OW21412   4.642  11.016   8.162 -0.1062  0.2121  0.0258
 5534SOL    HW121413   4.621  10.985   8.250 -1.3145  1.4920  0.2211
 5534SOL    HW221414   4.737  11.002   8.154  0.2742  1.1915  2.0151
 5535SOL     OW21415   6.590  11.357   1.538 -0.5517 -0.1156 -0.1500
 5535SOL    HW121416   6.533  11.416   1.489 -1.6704 -0.6908  0.4307
 5535SOL    HW221417   6.608  11.285   1.477 -1.7732 -0.7268  0.1844
 5536SOL     OW21418   7.899   5.731  12.460 -0.6007 -0.9830  0.5762
 5536SOL    HW121419   7.967   5.688  12.513  2.6289  2.2244 -0.5036
 5536SOL    HW221420   7.853   5.787  12.521  0.6372 -0.0680  0.7231
 5537SOL     OW21421   3.205   4.341  11.631  0.3033 -0.0864 -0.1563
 5537SOL    HW121422   3.164   4.326  11.716 -1.0108 -1.5402 -0.9910
 5537SOL    HW221423   3.133   4.338  11.568  1.3264  0.2872 -1.4012
 5538SOL     OW21424   1.365   1.861   8.836 -0.0529  0.3334 -0.4768
 5538SOL    HW121425   1.433   1.928   8.830  0.3688  0.1676  1.6404
 5538SOL    HW221426   1.282   1.909   8.829  0.2644  0.8787 -0.5014
 5539SOL     OW21427   4.662   6.081  10.690 -0.3281  0.1938  0.2237
 5539SOL    HW121428   4.600   6.037  10.632 -0.0410  1.3965 -1.0486
 5539SOL    HW221429   4.729   6.116  10.632  1.6434 -1.1589  1.5663
 5540SOL     OW21430   0.640  10.788   0.097  0.1772  0.0019 -0.0909
 5540SOL    HW121431   0.615  10.801   0.005  0.4025  2.7810  0.1495
 5540SOL    HW221432   0.703  10.858   0.115 -0.1315 -0.2462  2.2984
 5541SOL     OW21433   5.518   4.267   1.476  0.4684  0.1663 -0.0813
 5541SOL    HW121434   5.474   4.255   1.393  1.1406  1.2464 -0.6201
 5541SOL    HW221435   5.467   4.335   1.520 -1.3595 -2.0595  1.5132
 5542SOL     OW21436   0.849   6.161   2.126  0.2546 -0.3910 -0.0974
 5542SOL    HW121437   0.919   6.100   2.102  2.3309  1.9353 -0.4471
 5542SOL    HW221438   0.853   6.164   2.221  1.5890  0.6587 -0.1487
 5543SOL     OW21439  12.130   9.570   2.528 -0.7252  0.0641 -0.8637
 5543SOL    HW121440  12.101   9.520   2.452 -0.4167  0.0629 -0.9790
 5543SOL    HW221441  12.123   9.509   2.601 -0.4706 -0.1095 -0.9838
 5544SOL     OW21442   9.746  11.854   9.232  0.1866 -0.4178  0.0157
 5544SOL    HW121443   9.669  11.797   9.237  0.5741 -0.8617  2.9588
 5544SOL    HW221444   9.744  11.904   9.314  1.3079  1.9373 -1.2959
 5545SOL     OW21445   2.028   1.573   2.243  0.2278 -0.4582  0.0303
 5545SOL    HW121446   2.050   1.487   2.277  1.3200 -0.0048  0.5033
 5545SOL    HW221447   2.111   1.619   2.237 -0.3635  0.6478 -0.0050
 5546SOL     OW21448   1.055   3.060   3.876  0.0973 -0.2500  0.2224
 5546SOL    HW121449   0.984   3.017   3.829 -0.1881 -1.1948  1.4783
 5546SOL    HW221450   1.015   3.092   3.956  0.1572  2.9461 -0.8889
 5547SOL     OW21451   5.732   8.514   2.108 -0.2524  0.0141 -0.0749
 5547SOL    HW121452   5.665   8.554   2.163 -0.5050 -0.8814  0.2833
 5547SOL    HW221453   5.683   8.459   2.047  0.0836  0.2947 -0.6013
 5548SOL     OW21454  11.041   5.872   5.302 -0.9057  0.8913 -0.0827
 5548SOL    HW121455  11.059   5.817   5.378 -0.7137 -0.1164 -0.8310
 5548SOL    HW221456  11.085   5.954   5.321 -0.2979  0.4208  0.6008
 5549SOL     OW21457   4.809  10.862   0.479 -0.0301  0.3163  0.4286
 5549SOL    HW121458   4.884  10.843   0.423 -0.8852 -1.6059 -0.1764
 5549SOL    HW221459   4.764  10.935   0.435 -1.2704 -1.8139 -2.1620
 5550SOL     OW21460   0.954   9.305  11.878 -0.5127 -0.0348  0.3144
 5550SOL    HW121461   0.902   9.385  11.868 -1.7427 -0.9200 -0.6949
 5550SOL    HW221462   1.045   9.335  11.875 -0.9424  1.4131  0.9027
 5551SOL     OW21463   9.323   3.183   4.960  1.0439  0.3450 -0.2271
 5551SOL    HW121464   9.345   3.167   4.869  1.3016 -2.3346  0.2247
 5551SOL    HW221465   9.392   3.139   5.010 -0.7066 -0.9419  1.2165
 5552SOL     OW21466   3.106   8.270  10.643  0.2037  0.1284  0.0918
 5552SOL    HW121467   3.195   8.285  10.609  0.5145  0.4708  1.0268
 5552SOL    HW221468   3.085   8.181  10.614  1.5828 -0.6735  1.3474
 5553SOL     OW21469   4.620   7.660  10.614 -0.1745 -0.2954  0.1750
 5553SOL    HW121470   4.596   7.656  10.522  0.9164  1.5680 -0.2389
 5553SOL    HW221471   4.655   7.573  10.634  0.9253 -0.3012 -1.5773
 5554SOL     OW21472   6.913   5.614   0.599 -0.1398  0.0525 -0.7799
 5554SOL    HW121473   6.964   5.542   0.561  2.5956  1.1449  0.5515
 5554SOL    HW221474   6.934   5.690   0.545  1.7715  1.0608  1.2178
 5555SOL     OW21475  10.726  10.183   7.872  0.5828  0.3527  0.7611
 5555SOL    HW121476  10.749  10.141   7.955  2.4962 -0.0320  0.0838
 5555SOL    HW221477  10.649  10.236   7.892  0.7686 -0.0448  2.6746
 5556SOL     OW21478   0.349   1.065  10.065 -0.7363 -0.0150 -0.2221
 5556SOL    HW121479   0.369   1.064   9.971 -0.4223  1.5219 -0.1905
 5556SOL    HW221480   0.420   1.015  10.104  1.4037  2.5996 -0.4598
 5557SOL     OW21481   9.969   9.137   1.899  0.0896 -0.1392 -0.7137
 5557SOL    HW121482  10.004   9.225   1.891 -0.8254  0.2619 -0.4510
 5557SOL    HW221483   9.943   9.112   1.810 -1.4222  0.6274 -0.5170
 5558SOL     OW21484  12.422   7.182   7.418  0.0613 -0.1045 -0.0001
 5558SOL    HW121485  12.396   7.097   7.381  0.2797 -0.5188  0.7703
 5558SOL    HW221486  12.339   7.222   7.446  0.0627 -0.6131  0.7620
 5559SOL     OW21487   6.626   5.732   8.009 -0.2815  0.0011  0.9645
 5559SOL    HW121488   6.540   5.693   8.020 -0.0407 -1.2522 -1.0270
 5559SOL    HW221489   6.652   5.760   8.097 -1.8876 -1.3676  1.9285
 5560SOL     OW21490   4.623   4.726   7.446  0.2745  0.4659 -0.1442
 5560SOL    HW121491   4.544   4.779   7.437  0.6859  1.0777 -0.1573
 5560SOL    HW221492   4.611   4.680   7.530 -1.1736 -1.2860 -1.2424
 5561SOL     OW21493  11.027   6.969  10.428  0.2193 -0.8302  0.4721
 5561SOL    HW121494  11.007   6.891  10.479 -0.5309 -0.0241  1.4473
 5561SOL    HW221495  11.054   7.034  10.493 -1.1549  0.3506 -0.0938
 5562SOL     OW21496   2.466   4.302   3.340  0.9783 -0.1944 -0.3985
 5562SOL    HW121497   2.554   4.265   3.339  1.0004 -0.1553  0.0349
 5562SOL    HW221498   2.412   4.234   3.381  1.0657  0.3480  0.6437
 5563SOL     OW21499   1.830   7.020   5.261  0.0638 -0.6172  0.1997
 5563SOL    HW121500   1.784   7.102   5.243  0.6237 -0.8050 -2.4306
 5563SOL    HW221501   1.877   7.000   5.180  0.1328 -3.4370  0.8344
 5564SOL     OW21502   7.649   4.092   4.067 -0.2561  0.7611 -0.1674
 5564SOL    HW121503   7.666   4.171   4.117 -3.1261  1.8302 -0.7090
 5564SOL    HW221504   7.693   4.107   3.983  1.1925  0.7069  0.5581
 5565SOL     OW21505   1.752   6.573  12.038  0.8494  0.3161 -0.0733
 5565SOL    HW121506   1.847   6.563  12.045  0.7391  0.4337  2.4672
 5565SOL    HW221507   1.723   6.496  11.989  2.0315 -0.9154  1.0917
 5566SOL     OW21508  10.463   5.127   9.684  0.1006  0.0502  0.1615
 5566SOL    HW121509  10.429   5.211   9.713  1.4752  1.3869 -1.8347
 5566SOL    HW221510  10.501   5.145   9.598 -0.8532 -2.9351 -1.0128
 5567SOL     OW21511   1.658  12.084  10.518  0.0743 -0.2500 -0.1722
 5567SOL    HW121512   1.667  12.155  10.581 -0.6550 -0.2991 -0.0113
 5567SOL    HW221513   1.654  12.128  10.433  2.4168 -0.2376 -0.3533
 5568SOL     OW21514  10.461   2.686   6.410 -0.0045  0.4380 -0.0790
 5568SOL    HW121515  10.483   2.713   6.499  2.0335 -0.3976 -0.2794
 5568SOL    HW221516  10.465   2.767   6.359  4.0018  0.2623 -0.3000
 5569SOL     OW21517   9.512   3.486   4.947 -0.2822  0.3521  0.4118
 5569SOL    HW121518   9.460   3.503   5.025  0.1558 -0.1488  0.8195
 5569SOL    HW221519   9.477   3.403   4.913  0.5659 -0.2500  0.9694
 5570SOL     OW21520   8.496   8.649   1.797  0.0987  0.1274  0.0741
 5570SOL    HW121521   8.464   8.738   1.781 -0.9971 -0.4877 -1.4151
 5570SOL    HW221522   8.574   8.641   1.741 -0.5530 -0.2396 -0.8103
 5571SOL     OW21523   0.773   8.701   6.464 -0.8310 -0.4432  0.9501
 5571SOL    HW121524   0.823   8.622   6.440 -0.6053  0.1543 -0.6268
 5571SOL    HW221525   0.695   8.697   6.410 -1.7333 -0.4999  2.2074
 5572SOL     OW21526   1.390   6.560   0.740 -0.0786 -0.7183  0.6690
 5572SOL    HW121527   1.452   6.581   0.809  0.1792 -1.7176  0.7482
 5572SOL    HW221528   1.438   6.576   0.659 -0.2166 -0.0409  0.7120
 5573SOL     OW21529   6.871   4.709   4.171 -0.5894  0.2461  0.3697
 5573SOL    HW121530   6.832   4.791   4.203 -0.4760  0.3437  0.2610
 5573SOL    HW221531   6.815   4.640   4.206 -0.9556  0.3921  0.0848
 5574SOL     OW21532   3.978   1.414   2.034  0.0519 -0.6229 -0.3638
 5574SOL    HW121533   3.924   1.420   2.112  0.3794 -2.4122  0.0536
 5574SOL    HW221534   3.916   1.394   1.963 -0.0780 -0.5149 -0.2803
 5575SOL     OW21535   2.105   3.636   4.027 -0.5059  0.2824 -0.1918
 5575SOL    HW121536   2.013   3.651   4.051 -0.6903 -2.2219  1.0018
 5575SOL    HW221537   2.124   3.705   3.963 -4.0497 -0.6349 -2.5687
 5576SOL     OW21538   9.438   1.784  11.974  0.0330 -0.0745  0.4061
 5576SOL    HW121539   9.428   1.696  12.011  0.2522 -0.4657 -0.4446
 5576SOL    HW221540   9.405   1.776  11.884 -2.6372  1.3898  1.1572
 5577SOL     OW21541   5.212   1.678   8.390 -0.9151  0.4623 -0.0387
 5577SOL    HW121542   5.148   1.608   8.382 -1.6423  1.1592 -0.4561
 5577SOL    HW221543   5.190   1.723   8.472 -0.1040 -0.1226  0.5161
 5578SOL     OW21544   4.392   9.886   7.115  0.3476  0.1193  0.1735
 5578SOL    HW121545   4.381   9.886   7.020  0.5581  1.6051  0.1234
 5578SOL    HW221546   4.441   9.966   7.133 -1.4350  0.9285  1.7037
 5579SOL     OW21547  12.311  10.086   2.745  0.2365  0.3064 -0.1118
 5579SOL    HW121548  12.349  10.174   2.755 -0.5294  0.5048  1.2762
 5579SOL    HW221549  12.291  10.058   2.834 -2.3894 -0.0014 -0.7106
 5580SOL     OW21550   6.557   9.638   6.522  0.2338  0.2564  0.0771
 5580SOL    HW121551   6.584   9.730   6.512 -0.4424  0.4434 -0.0365
 5580SOL    HW221552   6.556   9.624   6.617  0.8857  0.1943  0.0831
 5581SOL     OW21553   7.474  10.754   6.280  0.0854 -0.0402 -0.0912
 5581SOL    HW121554   7.474  10.832   6.224 -0.4404 -0.9296 -1.3696
 5581SOL    HW221555   7.496  10.787   6.367 -2.1393  1.8556 -0.1568
 5582SOL     OW21556   2.032   5.843   2.506 -0.2895 -0.7325  0.4641
 5582SOL    HW121557   2.023   5.830   2.600 -1.1760  0.7099  0.6146
 5582SOL    HW221558   2.105   5.904   2.496  0.5725 -1.7806  0.1113
 5583SOL     OW21559   5.455  11.965   2.227  0.0726 -0.0993  0.0926
 5583SOL    HW121560   5.531  11.910   2.245 -1.1160 -1.3358  1.5187
 5583SOL    HW221561   5.381  11.904   2.223 -1.3119  1.3606  1.8168
 5584SOL     OW21562   6.799   2.837   3.834  0.3301 -0.1220 -0.0746
 5584SOL    HW121563   6.721   2.790   3.805 -0.4740  0.8621  0.4514
 5584SOL    HW221564   6.784   2.853   3.927  0.9252  0.5406 -0.0859
 5585SOL     OW21565   9.044   3.369   3.929  0.3068  0.5529  0.1691
 5585SOL    HW121566   9.118   3.429   3.923  0.8252  0.0739  1.4992
 5585SOL    HW221567   9.015   3.375   4.020  0.2337 -1.0352  0.2864
 5586SOL     OW21568   7.642  12.468   7.446  0.5156 -0.5433 -0.2961
 5586SOL    HW121569   7.650  12.563   7.433 -0.4005 -0.2107  1.2762
 5586SOL    HW221570   7.650  12.431   7.358 -1.7611  1.2010 -1.3588
 5587SOL     OW21571   0.725   8.295   3.715  0.5973 -0.2455 -0.6429
 5587SOL    HW121572   0.779   8.371   3.693  0.5532  0.2779  0.8894
 5587SOL    HW221573   0.762   8.264   3.798 -0.8459 -0.4448 -0.0418
 5588SOL     OW21574   8.014   4.643   9.990  0.5558 -0.7146 -0.2577
 5588SOL    HW121575   8.093   4.693  10.008  0.5107 -0.5354 -0.5530
 5588SOL    HW221576   8.023   4.564  10.044  0.2886 -0.0640  0.7773
 5589SOL     OW21577   9.331   3.124   4.337 -0.4510  0.0347 -0.0435
 5589SOL    HW121578   9.259   3.071   4.304 -1.0493  0.2838  0.8415
 5589SOL    HW221579   9.386   3.063   4.386 -1.3363  0.2651  1.2919
 5590SOL     OW21580  11.501   7.491   1.239  0.1465 -0.1955  0.7532
 5590SOL    HW121581  11.558   7.549   1.290 -0.7016  0.4736  0.9764
 5590SOL    HW221582  11.446   7.551   1.188 -0.3770 -0.8196  0.5705
 5591SOL     OW21583  10.706   7.548   3.562  0.0553  0.0432  0.8901
 5591SOL    HW121584  10.744   7.616   3.505 -0.3777 -0.1441  0.3680
 5591SOL    HW221585  10.781   7.497   3.592  0.1410 -1.1291 -1.1715
 5592SOL     OW21586   4.563  11.144   9.304  0.6253 -0.4107 -0.4650
 5592SOL    HW121587   4.507  11.091   9.360 -0.4212 -0.5037 -1.5549
 5592SOL    HW221588   4.651  11.133   9.341  0.1365 -1.3215  0.4953
 5593SOL     OW21589  12.561  11.666   7.934  0.2260 -0.4435  0.2124
 5593SOL    HW121590  12.606  11.582   7.938 -0.5683 -0.9939 -1.4030
 5593SOL    HW221591  12.494  11.654   7.867 -0.9979  0.9687  1.1087
 5594SOL     OW21592   3.007   0.015   4.494 -0.2535  1.0933  0.0803
 5594SOL    HW121593   3.023   0.106   4.521  1.7454  0.7383  0.2570
 5594SOL    HW221594   2.957  -0.022   4.566  2.1334  1.0829  1.8737
 5595SOL     OW21595   2.565   5.810   9.966  0.0027  0.0056 -0.4967
 5595SOL    HW121596   2.626   5.856   9.908 -0.4262  1.8901  0.4527
 5595SOL    HW221597   2.520   5.881  10.013  0.5116 -1.4238  2.3276
 5596SOL     OW21598   3.286   3.264   4.767 -0.1372  0.3212  0.2402
 5596SOL    HW121599   3.371   3.228   4.742 -0.3730 -1.3404  1.6788
 5596SOL    HW221600   3.253   3.306   4.687 -0.0545 -3.0943 -1.7545
 5597SOL     OW21601   0.253   0.543   0.064  0.6761  0.0166 -0.2771
 5597SOL    HW121602   0.276   0.554  -0.028 -0.8587 -1.7643 -0.9613
 5597SOL    HW221603   0.165   0.581   0.072  0.1495 -1.2106  0.0418
 5598SOL     OW21604  12.456   2.240  11.967  0.2447  0.1114  0.5887
 5598SOL    HW121605  12.436   2.311  11.905  1.3743 -0.2686 -0.2362
 5598SOL    HW221606  12.547   2.218  11.950  0.8537  0.5243  2.9609
 5599SOL     OW21607  12.156   9.638   9.908 -0.4924 -0.1602 -0.0795
 5599SOL    HW121608  12.089   9.569   9.912 -0.6502  0.0654  1.9987
 5599SOL    HW221609  12.140   9.692   9.985  1.2840  0.6611 -0.2387
 5600SOL     OW21610   7.833  12.134   1.901 -0.1467  0.3035  0.2795
 5600SOL    HW121611   7.854  12.045   1.929  2.7805  0.8577  0.1469
 5600SOL    HW221612   7.912  12.185   1.918 -0.6606  2.2584 -2.3421
 5601SOL     OW21613   0.781   8.866   2.236 -0.0429  0.0559  0.2031
 5601SOL    HW121614   0.847   8.869   2.167 -1.2366  1.2396 -0.9395
 5601SOL    HW221615   0.699   8.852   2.190 -0.8286  0.4729  1.4307
 5602SOL     OW21616  12.231  10.688   0.617  0.4663  0.2044  0.6655
 5602SOL    HW121617  12.188  10.659   0.697  0.3859  0.2499  0.6397
 5602SOL    HW221618  12.164  10.739   0.571  0.5809  0.3683  0.6770
 5603SOL     OW21619   9.004   3.919   3.278 -0.9739  0.1813  0.1830
 5603SOL    HW121620   8.973   3.878   3.197  0.8128  0.5487 -0.7269
 5603SOL    HW221621   9.027   4.008   3.252  1.6712 -0.3187  0.5627
 5604SOL     OW21622   6.720   7.504   7.499  0.0739  0.7758 -0.6803
 5604SOL    HW121623   6.681   7.417   7.505 -1.3206  1.4406  0.6286
 5604SOL    HW221624   6.805   7.490   7.456 -0.2644 -1.1619 -0.7876
 5605SOL     OW21625  12.456   0.133   0.342  0.3276 -0.1975  0.0880
 5605SOL    HW121626  12.370   0.135   0.301 -0.5641 -2.4271  1.6899
 5605SOL    HW221627  12.449   0.194   0.415  0.8591  1.2452 -1.0104
 5606SOL     OW21628  12.216   1.567   1.088  0.5174 -0.2988  0.2515
 5606SOL    HW121629  12.175   1.527   1.165  1.2093  0.7287  1.1840
 5606SOL    HW221630  12.251   1.650   1.120 -0.2279  0.7118 -1.4593
 5607SOL     OW21631   4.519  10.106   6.746  0.0145  0.1108  0.0589
 5607SOL    HW121632   4.585  10.172   6.767  0.1874  0.3305 -1.0778
 5607SOL    HW221633   4.466  10.147   6.678 -0.7128 -0.4274  0.2872
 5608SOL     OW21634   3.213   2.461   4.078  0.4454 -0.0995  1.0705
 5608SOL    HW121635   3.283   2.396   4.080  0.6641  0.0496 -0.6253
 5608SOL    HW221636   3.247   2.534   4.130  1.1878 -0.3829  0.9962
 5609SOL     OW21637   1.107  10.229  10.089  0.0546  0.6414 -0.9427
 5609SOL    HW121638   1.073  10.318  10.081 -1.3340  0.1241 -1.1312
 5609SOL    HW221639   1.202  10.239  10.094 -0.1322  2.1849 -0.0925
 5610SOL     OW21640   7.079   8.568   3.333 -0.1276 -0.0793  0.0637
 5610SOL    HW121641   7.114   8.483   3.361 -0.8150 -0.6974 -0.8896
 5610SOL    HW221642   7.062   8.615   3.414  1.5079 -0.3252  0.5847
 5611SOL     OW21643   2.194  11.977   5.544  1.0765 -0.3410 -0.6647
 5611SOL    HW121644   2.195  11.994   5.450  0.0695  0.2137 -0.5858
 5611SOL    HW221645   2.284  11.950   5.564  1.7035  0.9612 -1.5251
 5612SOL     OW21646   6.229   4.845   1.443  0.1933 -0.3865 -0.1917
 5612SOL    HW121647   6.150   4.888   1.409  1.5628  1.4552 -1.2134
 5612SOL    HW221648   6.279   4.821   1.365  0.6484 -1.5992  0.4388
 5613SOL     OW21649   0.905   9.945   6.009 -0.4119 -0.4173 -0.5620
 5613SOL    HW121650   0.874  10.025   5.968 -1.3408 -0.1476  0.6197
 5613SOL    HW221651   0.981   9.972   6.062 -1.1419 -0.1604  0.3856
 5614SOL     OW21652   8.634   7.520  12.222 -0.6387 -0.6296  0.0432
 5614SOL    HW121653   8.620   7.574  12.145 -0.1422  0.7409  0.8820
 5614SOL    HW221654   8.576   7.557  12.288  0.3011 -0.5876  0.8675
 5615SOL     OW21655  10.136   1.093   4.928 -0.4270  0.2000  0.3241
 5615SOL    HW121656  10.115   1.175   4.884  0.9148  0.3854 -0.0075
 5615SOL    HW221657  10.088   1.026   4.879 -1.6035  0.7646  0.6552
 5616SOL     OW21658   7.330   8.195   2.304  0.4560  0.2599 -0.3271
 5616SOL    HW121659   7.407   8.241   2.339  0.2626  1.3821 -1.2996
 5616SOL    HW221660   7.262   8.208   2.370  0.6038  0.7864 -0.2713
 5617SOL     OW21661   4.531   1.230   4.460  0.4672  0.1918  0.4763
 5617SOL    HW121662   4.516   1.143   4.424  0.0077  0.7046 -0.6032
 5617SOL    HW221663   4.536   1.216   4.555  2.1860 -1.2491  0.2309
 5618SOL     OW21664   3.380   3.472  10.241  0.5804 -0.7059  0.2963
 5618SOL    HW121665   3.328   3.473  10.160  1.4090 -2.0475 -0.2942
 5618SOL    HW221666   3.455   3.416  10.220  2.4349  1.3909  1.0364
 5619SOL     OW21667   9.545   7.027   7.249 -0.1057 -0.5873 -0.2105
 5619SOL    HW121668   9.594   6.987   7.322  0.9698  0.8013 -0.1206
 5619SOL    HW221669   9.526   6.954   7.190 -0.1363 -1.5797  0.9782
 5620SOL     OW21670  10.748   9.443   9.376 -0.3636 -0.2778  0.5935
 5620SOL    HW121671  10.770   9.535   9.362 -1.8585  0.0554  0.3342
 5620SOL    HW221672  10.750   9.432   9.471  1.0498 -0.3096  0.5764
 5621SOL     OW21673   3.246  11.610  11.647  0.5619 -0.0645 -0.5028
 5621SOL    HW121674   3.214  11.548  11.711  1.2120  0.5504  0.4455
 5621SOL    HW221675   3.215  11.576  11.563 -1.2493 -0.2872  0.2092
 5622SOL     OW21676  11.493  12.181   4.513  0.1193 -0.8460 -0.7813
 5622SOL    HW121677  11.493  12.133   4.596  1.1914  0.1157 -0.1897
 5622SOL    HW221678  11.537  12.122   4.452 -0.3372 -1.4077 -0.5791
 5623SOL     OW21679  11.383   8.277   2.705 -0.4043 -0.2219 -0.2981
 5623SOL    HW121680  11.415   8.236   2.624 -0.1649 -0.5995 -0.0144
 5623SOL    HW221681  11.319   8.342   2.675 -0.4324 -0.4685 -0.7840
 5624SOL     OW21682   2.359   5.138   7.868  0.8646 -0.2481  0.0528
 5624SOL    HW121683   2.319   5.222   7.843  2.1800  0.2031 -0.6045
 5624SOL    HW221684   2.347   5.083   7.790  0.6629 -0.4419  0.2187
 5625SOL     OW21685   3.139   9.622  11.297 -0.2704 -0.0898 -0.1531
 5625SOL    HW121686   3.142   9.713  11.266 -0.3763 -0.2205 -0.5555
 5625SOL    HW221687   3.054   9.615  11.340  0.3986  0.4521  1.3132
 5626SOL     OW21688   6.851   0.054  12.644  0.5879 -0.0215 -0.0839
 5626SOL    HW121689   6.793   0.024  12.713  1.2127  2.1237  1.4719
 5626SOL    HW221690   6.793   0.071  12.570 -0.1288 -2.0887 -0.0637
 5627SOL     OW21691   9.323  12.271   8.814  0.3338  0.3273  0.1143
 5627SOL    HW121692   9.350  12.293   8.725 -1.8558 -0.5143 -0.8421
 5627SOL    HW221693   9.327  12.175   8.817  2.4613  0.3908  1.7032
 5628SOL     OW21694   2.212   8.030   7.915  0.0193  0.4102  0.2460
 5628SOL    HW121695   2.256   7.946   7.930 -1.9041 -0.9074 -1.0205
 5628SOL    HW221696   2.230   8.050   7.823 -1.0432  0.4300  0.0305
 5629SOL     OW21697   9.870   2.253  10.907  0.0644 -0.5580  0.2891
 5629SOL    HW121698   9.923   2.290  10.977 -0.0413  1.2792 -0.5463
 5629SOL    HW221699   9.928   2.190  10.864  0.3630 -1.1605  1.5483
 5630SOL     OW21700   5.826   4.454   9.613 -0.3469  0.1645  0.3684
 5630SOL    HW121701   5.890   4.435   9.545  0.4937 -0.2128  1.2310
 5630SOL    HW221702   5.757   4.504   9.569  0.0631 -0.2586 -0.7906
 5631SOL     OW21703   1.018   7.050   0.975  0.3111 -0.0329  0.1500
 5631SOL    HW121704   0.965   7.077   0.900 -1.3327 -0.8084  0.9928
 5631SOL    HW221705   1.084   6.992   0.937 -1.5588 -1.8250 -0.5425
 5632SOL     OW21706   1.413   6.335   1.011  0.4638 -0.0485 -0.2824
 5632SOL    HW121707   1.421   6.418   0.964  1.4298  0.8731  1.4042
 5632SOL    HW221708   1.501   6.297   1.008  0.8021  0.5168  1.5835
 5633SOL     OW21709   1.309  11.638   5.817 -0.3315  0.0167  0.2322
 5633SOL    HW121710   1.351  11.587   5.886 -0.9854 -1.5715 -0.4848
 5633SOL    HW221711   1.382  11.675   5.767  0.1429  1.5902  2.0200
 5634SOL     OW21712   9.698   0.798   3.088  0.2512  0.2909  0.0597
 5634SOL    HW121713   9.656   0.864   3.033 -1.2334 -0.8664 -0.2483
 5634SOL    HW221714   9.640   0.722   3.083  0.9688 -0.4181  1.8772
 5635SOL     OW21715  10.165   0.304  12.082  0.5334  0.6324  0.1250
 5635SOL    HW121716  10.148   0.289  11.989 -0.8718 -0.0657  0.4723
 5635SOL    HW221717  10.197   0.394  12.087  0.1374  0.8447 -0.9683
 5636SOL     OW21718   1.824   7.815   4.917 -0.1956 -0.5159 -0.2346
 5636SOL    HW121719   1.769   7.741   4.942  0.9086 -1.2942 -0.0693
 5636SOL    HW221720   1.764   7.876   4.874 -1.6682 -0.2946  1.9582
 5637SOL     OW21721   6.314   7.756  11.676 -0.4845 -0.1095 -0.5229
 5637SOL    HW121722   6.325   7.661  11.668 -3.0450 -0.3927 -1.5842
 5637SOL    HW221723   6.394   7.793  11.638 -0.7054 -1.8495 -2.8934
 5638SOL     OW21724   1.586   6.341  11.984  0.2953  0.0223  0.1533
 5638SOL    HW121725   1.573   6.378  12.071 -0.2622  0.7000 -0.2095
 5638SOL    HW221726   1.573   6.247  11.995 -1.1706  0.2561  0.5404
 5639SOL     OW21727   7.986   1.483  12.497 -0.1644 -0.2170 -0.1300
 5639SOL    HW121728   8.013   1.548  12.432 -0.7604  0.3216  0.1507
 5639SOL    HW221729   7.933   1.532  12.559  0.9997 -0.5686  1.1839
 5640SOL     OW21730  12.559  10.716   7.568 -0.3509 -0.0439 -0.3739
 5640SOL    HW121731  12.649  10.684   7.563 -0.2331  0.4692 -2.6043
 5640SOL    HW221732  12.507  10.651   7.521 -0.8304  0.6655 -0.8490
 5641SOL     OW21733   0.026   1.498  10.562  0.0035  0.1801 -0.0253
 5641SOL    HW121734  -0.060   1.522  10.595 -1.3463 -2.6597 -1.1905
 5641SOL    HW221735   0.041   1.557  10.488 -2.6869 -1.5428 -2.1402
 5642SOL     OW21736   7.972   1.467   7.481 -0.0964  0.1103  0.1493
 5642SOL    HW121737   7.949   1.389   7.431 -1.8125  1.2105 -0.8461
 5642SOL    HW221738   8.065   1.455   7.501 -0.0338 -1.6451 -0.9589
 5643SOL     OW21739   1.723   4.566   4.219  0.2084  0.4301  0.0726
 5643SOL    HW121740   1.704   4.490   4.273 -0.3177 -0.6191 -1.5102
 5643SOL    HW221741   1.811   4.551   4.185 -0.6535 -0.6084 -1.9181
 5644SOL     OW21742   0.715   9.585   0.931 -0.3601 -0.3332  0.8847
 5644SOL    HW121743   0.756   9.662   0.971  0.4056 -0.5022  0.4481
 5644SOL    HW221744   0.629   9.616   0.902 -0.0179  0.3970  0.6130
 5645SOL     OW21745   8.371   4.985   2.051  0.3130  0.0355  0.2352
 5645SOL    HW121746   8.287   4.990   2.006  0.3765  1.2587  0.2313
 5645SOL    HW221747   8.430   5.037   1.997  0.8389 -0.0107  0.7624
 5646SOL     OW21748   5.827   6.785   0.304 -0.0462 -0.3246 -0.1595
 5646SOL    HW121749   5.795   6.812   0.390  0.3937  0.4278 -0.2182
 5646SOL    HW221750   5.855   6.694   0.315  0.7594  0.0178  0.7026
 5647SOL     OW21751   9.290   6.252   9.316  0.4874 -0.2200  0.0398
 5647SOL    HW121752   9.262   6.338   9.347 -0.4020  0.1026 -1.5487
 5647SOL    HW221753   9.251   6.190   9.378 -2.0009  0.3568 -0.8097
 5648SOL     OW21754   9.440   8.923   9.219  0.0542  0.2953 -0.1696
 5648SOL    HW121755   9.440   8.843   9.166  1.5787 -0.0127  0.2326
 5648SOL    HW221756   9.525   8.921   9.264 -0.2934  1.6587  0.5866
 5649SOL     OW21757   0.606   9.069   5.558 -0.0179  0.0470 -0.3500
 5649SOL    HW121758   0.598   8.998   5.494  0.7330 -1.7138  1.4153
 5649SOL    HW221759   0.517   9.103   5.567 -0.7539 -1.8162 -0.0303
 5650SOL     OW21760  11.039   6.291   6.878  0.5757  0.0604 -1.1413
 5650SOL    HW121761  11.045   6.363   6.941  0.7685 -0.6828 -0.2888
 5650SOL    HW221762  11.119   6.299   6.825  0.6362  0.4275 -0.9972
 5651SOL     OW21763   4.036   7.248   6.807  0.1613 -0.1180  0.1996
 5651SOL    HW121764   3.993   7.274   6.889 -0.3853 -1.3695  0.3348
 5651SOL    HW221765   4.122   7.289   6.811 -0.0721  0.3146  1.1342
 5652SOL     OW21766   5.264   6.034   5.833  0.1623  0.3500  0.3071
 5652SOL    HW121767   5.320   6.103   5.868  0.0266  1.3772 -1.4152
 5652SOL    HW221768   5.306   6.009   5.750 -0.2865 -1.0116  0.4700
 5653SOL     OW21769  12.483  11.757  11.429  0.5781 -0.0269  0.3565
 5653SOL    HW121770  12.513  11.842  11.397  0.6751 -0.2870 -0.2685
 5653SOL    HW221771  12.559  11.700  11.419  0.3821 -0.2897  0.3576
 5654SOL     OW21772   7.552   2.613   7.467 -0.3407 -0.2372 -0.2448
 5654SOL    HW121773   7.577   2.551   7.399  1.7085  0.5665 -0.2904
 5654SOL    HW221774   7.581   2.571   7.549 -1.5565 -0.5891  0.0230
 5655SOL     OW21775   3.274   8.096   3.843 -0.1870  0.8483  0.3552
 5655SOL    HW121776   3.366   8.113   3.865  0.6306 -1.7054 -0.7372
 5655SOL    HW221777   3.225   8.124   3.921  1.6739  0.6727  1.6438
 5656SOL     OW21778  12.271   4.785   6.590 -0.0826  0.5161 -0.2103
 5656SOL    HW121779  12.197   4.830   6.630  1.3539  2.3469  0.5206
 5656SOL    HW221780  12.341   4.850   6.589  1.1202 -0.7114 -2.1588
 5657SOL     OW21781   7.964  12.471   7.302 -0.5095  0.0867 -0.2315
 5657SOL    HW121782   7.930  12.559   7.319  0.9012  0.2971  1.8231
 5657SOL    HW221783   7.978  12.469   7.207  0.6527  2.5789 -0.1993
 5658SOL     OW21784   9.083   4.076   7.771  0.5433 -0.4975 -0.6164
 5658SOL    HW121785   9.168   4.114   7.794  1.1795 -3.3434  2.4429
 5658SOL    HW221786   9.036   4.070   7.854 -0.6817 -3.4405 -1.4063
 5659SOL     OW21787   1.759   6.541   1.861 -0.5179 -0.5343  0.1721
 5659SOL    HW121788   1.696   6.471   1.841 -1.4199  0.6968 -1.5317
 5659SOL    HW221789   1.727   6.616   1.812 -0.7542  1.7534  3.5080
 5660SOL     OW21790   1.196  12.456   3.742 -0.0244  0.1481  0.6787
 5660SOL    HW121791   1.250  12.498   3.809  1.2806 -2.0870  1.1066
 5660SOL    HW221792   1.256  12.440   3.669 -0.7404 -0.1021  0.1301
 5661SOL     OW21793   6.039  12.296   8.181  0.5812 -0.0188 -0.2463
 5661SOL    HW121794   6.108  12.346   8.137  2.1109 -0.5223  1.4441
 5661SOL    HW221795   6.060  12.204   8.164  0.4925 -0.1860  0.4953
 5662SOL     OW21796   3.967   5.164  11.132 -0.0936  0.1962 -0.0779
 5662SOL    HW121797   3.904   5.095  11.113  1.0571 -0.5511 -1.3353
 5662SOL    HW221798   3.962   5.223  11.057 -1.0529  1.5120  0.9758
 5663SOL     OW21799   3.536   9.585   6.634 -0.1860 -0.3156 -0.0177
 5663SOL    HW121800   3.595   9.532   6.580  1.2970  0.4567  0.7645
 5663SOL    HW221801   3.535   9.671   6.592 -0.5969 -0.2588  0.1042
 5664SOL     OW21802   6.244   8.243   1.838 -0.2004 -0.0667 -0.1736
 5664SOL    HW121803   6.339   8.251   1.844 -0.2968  0.7442  0.4815
 5664SOL    HW221804   6.220   8.186   1.910 -0.3925  1.4529  1.0147
 5665SOL     OW21805   7.869  12.131   6.738 -0.1586 -0.2689  0.4961
 5665SOL    HW121806   7.782  12.127   6.779 -0.3400  1.4006  0.3732
 5665SOL    HW221807   7.854  12.183   6.659  0.3334 -2.7690 -1.3267
 5666SOL     OW21808   8.538   7.130   8.392 -0.1932 -0.0142 -0.1093
 5666SOL    HW121809   8.496   7.177   8.320  1.2288  0.7657 -0.4914
 5666SOL    HW221810   8.509   7.040   8.383 -0.6495  0.2263 -1.1975
 5667SOL     OW21811   8.586  11.361   6.569 -0.8713  0.4966  0.3813
 5667SOL    HW121812   8.613  11.431   6.629 -0.7549 -0.4100  1.4119
 5667SOL    HW221813   8.662  11.303   6.564 -0.9047  0.5229 -0.6042
 5668SOL     OW21814   2.009   0.334   1.244  0.3129  0.0914  0.5398
 5668SOL    HW121815   1.978   0.424   1.238 -0.7727 -0.3082 -0.1068
 5668SOL    HW221816   2.103   0.340   1.228  0.0416  0.9778 -0.9381
 5669SOL     OW21817   9.002   1.515   7.050 -0.1488 -0.0631  0.2484
 5669SOL    HW121818   9.070   1.459   7.013  0.0565  0.9579 -0.9803
 5669SOL    HW221819   9.051   1.586   7.092 -0.3728 -1.1949  2.5667
 5670SOL     OW21820  11.908   8.978   9.018  0.1215  0.0347 -0.1215
 5670SOL    HW121821  11.945   9.042   8.957 -1.0499  1.0470  0.1890
 5670SOL    HW221822  11.816   8.972   8.994 -0.0788 -0.5294  0.7225
 5671SOL     OW21823   0.471  10.403   1.221  0.0153 -0.6615  0.8199
 5671SOL    HW121824   0.487  10.317   1.183  0.2660 -0.9003  1.4643
 5671SOL    HW221825   0.558  10.440   1.236 -0.0877 -0.0936  0.1130
 5672SOL     OW21826   6.167   6.640   3.273 -0.3395 -0.6111 -0.6291
 5672SOL    HW121827   6.084   6.592   3.277 -0.1518 -0.9559 -0.8162
 5672SOL    HW221828   6.229   6.576   3.239  0.2068 -0.6429  0.3834
 5673SOL     OW21829  12.089   0.162   3.520 -0.5906 -0.4320 -0.0613
 5673SOL    HW121830  12.151   0.100   3.559 -1.2205 -1.7164 -1.0197
 5673SOL    HW221831  12.015   0.163   3.580  0.7250  1.9449  1.6671
 5674SOL     OW21832   7.032  10.491   7.897 -0.0961  0.5580 -0.7745
 5674SOL    HW121833   7.127  10.484   7.884  0.0409 -0.8619  0.6724
 5674SOL    HW221834   7.009  10.576   7.861  1.8351  1.1831 -0.6481
 5675SOL     OW21835   6.618   8.739  11.524  0.5544 -0.3862 -0.0157
 5675SOL    HW121836   6.610   8.731  11.619  0.7462  0.0634  0.0405
 5675SOL    HW221837   6.548   8.684  11.489 -0.3653  0.4813  0.4024
 5676SOL     OW21838   1.722  11.018   8.128  0.0051 -0.3582  0.0169
 5676SOL    HW121839   1.725  10.926   8.102  1.3553  0.0834 -1.5161
 5676SOL    HW221840   1.673  11.061   8.058 -0.1438  0.1869  0.4478
 5677SOL     OW21841   8.566   1.765   5.128 -0.0416 -0.1409 -0.3892
 5677SOL    HW121842   8.660   1.757   5.143  0.0541  1.5160  0.1466
 5677SOL    HW221843   8.548   1.859   5.137 -1.7336 -0.4100 -0.5521
 5678SOL     OW21844   7.122   7.691   8.211 -0.0098  0.3738 -0.3414
 5678SOL    HW121845   7.124   7.606   8.166  0.3193  0.2784 -0.1491
 5678SOL    HW221846   7.044   7.735   8.176  1.0181  0.9055 -2.1061
 5679SOL     OW21847   6.867   6.325   0.852  0.0995  0.1367  0.3994
 5679SOL    HW121848   6.825   6.359   0.931  1.9182  1.1556  0.9878
 5679SOL    HW221849   6.887   6.403   0.800  0.5385 -0.3897 -0.2310
 5680SOL     OW21850   3.094   7.098   6.139 -0.1697 -0.0721 -0.0714
 5680SOL    HW121851   3.061   7.118   6.051 -0.1416  0.5172  0.0480
 5680SOL    HW221852   3.113   7.004   6.137  0.7482  0.1240 -0.9869
 5681SOL     OW21853  10.979  10.738   4.735  0.1980 -0.2115  0.0045
 5681SOL    HW121854  11.007  10.827   4.717 -1.1663  0.4116  0.8128
 5681SOL    HW221855  11.060  10.690   4.752  1.0165  0.6559 -1.2464
 5682SOL     OW21856   0.583   7.818   1.767 -0.2594  0.7334  0.3024
 5682SOL    HW121857   0.527   7.741   1.780  0.1962  0.2698 -0.4291
 5682SOL    HW221858   0.616   7.839   1.854  2.1479 -1.8412  0.1351
 5683SOL     OW21859   7.449  10.777   5.867 -0.1737 -0.5320  0.2392
 5683SOL    HW121860   7.527  10.723   5.875  1.3939  1.3483 -1.3395
 5683SOL    HW221861   7.459  10.844   5.935 -0.4129 -0.2692  0.0182
 5684SOL     OW21862   0.110   3.947  10.841 -0.3156  0.0295  0.4360
 5684SOL    HW121863   0.153   3.883  10.899  1.3139  0.4281 -0.2703
 5684SOL    HW221864   0.140   3.923  10.753 -3.1577 -0.8916 -0.3911
 5685SOL     OW21865   1.785  11.751   4.700  0.4567 -0.1715  0.3035
 5685SOL    HW121866   1.836  11.756   4.619 -2.0054  1.0121 -1.2937
 5685SOL    HW221867   1.810  11.830   4.749  1.0042 -0.2051  0.0819
 5686SOL     OW21868   8.399  11.757   2.769 -0.2513 -0.2123  0.0669
 5686SOL    HW121869   8.394  11.779   2.862 -1.8454  0.0945 -0.0661
 5686SOL    HW221870   8.487  11.784   2.743 -0.9455  3.0838  0.6694
 5687SOL     OW21871   6.963   9.465   6.044 -0.2234  0.2832 -0.3214
 5687SOL    HW121872   6.972   9.523   6.119 -1.3984  1.1902 -0.8515
 5687SOL    HW221873   7.009   9.385   6.070 -0.9068  0.4371  1.5018
 5688SOL     OW21874   6.177  12.115   0.815 -0.6287  0.6307 -0.3765
 5688SOL    HW121875   6.251  12.171   0.791 -0.0314  0.1934  0.4086
 5688SOL    HW221876   6.216  12.030   0.835 -1.2421  0.5839  0.7432
 5689SOL     OW21877   7.694   0.858   4.574  0.2884  0.3957 -0.6964
 5689SOL    HW121878   7.701   0.903   4.490  2.1375 -1.1480 -1.4583
 5689SOL    HW221879   7.669   0.926   4.637  3.4112  2.6558 -1.6619
 5690SOL     OW21880   0.417   8.052   3.683  0.1830  0.2430  0.2748
 5690SOL    HW121881   0.380   8.072   3.597 -1.2597 -1.0467  0.5477
 5690SOL    HW221882   0.474   7.977   3.668  0.3652  0.3605  0.3668
 5691SOL     OW21883  12.341   2.285   4.211  0.7848  0.3068 -0.0655
 5691SOL    HW121884  12.318   2.193   4.201 -0.3037  0.3218  1.8438
 5691SOL    HW221885  12.259   2.328   4.234  1.4488  1.5985 -0.0105
 5692SOL     OW21886   5.975   0.100   8.200  1.0624 -0.0924  0.3897
 5692SOL    HW121887   5.902   0.156   8.227  1.8521  2.0441 -1.5895
 5692SOL    HW221888   5.940   0.047   8.129  1.5770  1.5138 -1.1160
 5693SOL     OW21889   9.471  11.645   4.071  0.0767  0.0318  0.3473
 5693SOL    HW121890   9.445  11.580   4.005 -1.2264  0.9089 -0.0391
 5693SOL    HW221891   9.504  11.719   4.020  0.9300 -0.0461  0.7647
 5694SOL     OW21892   9.678   1.340  10.113 -0.8809 -0.9843 -0.0706
 5694SOL    HW121893   9.603   1.391  10.080 -0.6862 -0.8996 -0.3843
 5694SOL    HW221894   9.708   1.290  10.037  0.0182 -0.2515 -0.2111
 5695SOL     OW21895   1.694  12.062   1.629 -0.4631  0.3826 -0.1825
 5695SOL    HW121896   1.733  12.146   1.652 -0.4506  0.6898 -1.2691
 5695SOL    HW221897   1.636  12.041   1.703  0.8603  0.4739  0.9156
 5696SOL     OW21898  10.934   1.293  12.537 -0.1645 -0.0705  0.4684
 5696SOL    HW121899  10.948   1.215  12.483 -0.9275 -0.1395  0.3697
 5696SOL    HW221900  10.912   1.258  12.624  0.6386  0.0419  0.7316
 5697SOL     OW21901   7.330   1.803   8.009 -0.4199 -0.1558 -0.1756
 5697SOL    HW121902   7.391   1.737   8.041 -0.5659 -1.0969 -1.7434
 5697SOL    HW221903   7.385   1.869   7.968  0.1362  2.9565  4.7134
 5698SOL     OW21904   6.508   8.676  11.863 -0.0185 -0.2706 -0.7625
 5698SOL    HW121905   6.458   8.669  11.782  1.2010 -0.4630 -1.5224
 5698SOL    HW221906   6.573   8.745  11.846  2.9865 -3.0598 -1.5178
 5699SOL     OW21907   2.821   1.081   0.598  0.8911  0.3936  0.0181
 5699SOL    HW121908   2.796   1.000   0.642 -0.4789 -0.4725 -2.1633
 5699SOL    HW221909   2.818   1.148   0.667 -0.2668 -1.0118  1.4102
 5700SOL     OW21910  10.924   7.212  11.558 -0.3510 -0.0838  0.7380
 5700SOL    HW121911  10.861   7.163  11.612 -1.6285 -0.0445 -0.6431
 5700SOL    HW221912  10.999   7.153  11.550 -2.5334 -2.8586 -2.4080
 5701SOL     OW21913   8.245   1.041  11.415 -0.4157 -0.2725 -0.6197
 5701SOL    HW121914   8.159   1.000  11.411 -0.0423 -1.2351  0.6232
 5701SOL    HW221915   8.263   1.069  11.325 -1.7868 -0.5292 -0.9880
 5702SOL     OW21916   2.561   0.448   8.977  0.5622  0.2048 -0.0374
 5702SOL    HW121917   2.570   0.524   9.035  0.5802  0.1994 -0.0326
 5702SOL    HW221918   2.616   0.380   9.018  0.3945  0.1281  0.0614
 5703SOL     OW21919   3.967   4.737  11.686 -0.2687  0.3959  0.7153
 5703SOL    HW121920   4.006   4.823  11.672 -1.6256  0.8702 -0.4742
 5703SOL    HW221921   4.036   4.675  11.660 -0.0865  1.1929 -0.8500
 5704SOL     OW21922   1.756   2.651  11.084 -0.4693 -0.3482  0.5244
 5704SOL    HW121923   1.694   2.590  11.044 -0.9210 -0.4921  1.4162
 5704SOL    HW221924   1.714   2.737  11.079  0.2666 -0.0474 -0.9414
 5705SOL     OW21925   3.744   4.187  12.516  0.2540 -0.1234 -0.1269
 5705SOL    HW121926   3.812   4.136  12.559  0.6986 -0.1722 -0.8636
 5705SOL    HW221927   3.692   4.224  12.587  0.4190 -0.9360  0.4340
 5706SOL     OW21928   1.012   8.233   5.669 -0.1893 -0.0626 -0.1706
 5706SOL    HW121929   0.970   8.149   5.687 -1.2352  0.9622  2.6618
 5706SOL    HW221930   1.100   8.224   5.705 -0.3017  0.0356  0.1338
 5707SOL     OW21931  12.476   2.909  10.559  0.0635  0.0726 -0.0171
 5707SOL    HW121932  12.416   2.980  10.537  0.7964  0.7173  0.0252
 5707SOL    HW221933  12.419   2.834  10.575 -0.7167  0.6165 -0.1768
 5708SOL     OW21934   0.764   1.135   8.371 -1.1470  0.3336  0.6917
 5708SOL    HW121935   0.756   1.213   8.317  1.2006 -0.6920 -1.3853
 5708SOL    HW221936   0.848   1.146   8.416 -1.2760 -0.5472  1.1710
 5709SOL     OW21937   5.125   2.685   0.811 -0.4519  0.3260  0.1868
 5709SOL    HW121938   5.036   2.696   0.844 -0.4405 -0.0261  0.3339
 5709SOL    HW221939   5.151   2.773   0.782  0.4334  1.2570  3.3812
 5710SOL     OW21940   3.825   3.781  10.173 -0.2654 -0.1239 -0.1789
 5710SOL    HW121941   3.873   3.701  10.193 -1.2944 -0.7802 -0.2159
 5710SOL    HW221942   3.808   3.821  10.258  3.8394  2.3656 -0.2514
 5711SOL     OW21943   6.261   8.536   5.808  0.1303  0.6359  0.1068
 5711SOL    HW121944   6.307   8.471   5.755  1.7420  0.9693  1.0497
 5711SOL    HW221945   6.328   8.574   5.864 -0.6485  3.4372 -0.6918
 5712SOL     OW21946   9.207   0.059   9.146  0.1393  0.5893  0.0396
 5712SOL    HW121947   9.188   0.107   9.065 -3.4776 -0.1698  0.2604
 5712SOL    HW221948   9.230  -0.029   9.117 -0.2075  0.5770 -0.2089
 5713SOL     OW21949   7.571  10.174   1.958 -0.3242  0.2666  0.3490
 5713SOL    HW121950   7.521  10.106   1.911 -1.1436  0.9007  0.2752
 5713SOL    HW221951   7.568  10.147   2.049 -0.6693  0.2112  0.3241
 5714SOL     OW21952  11.100   3.375   0.056  0.2523 -0.1529  0.2974
 5714SOL    HW121953  11.124   3.298   0.004 -2.7977 -1.3905  0.5015
 5714SOL    HW221954  11.031   3.344   0.115 -0.0512  2.4219  1.4466
 5715SOL     OW21955   1.151  11.301   5.818  0.1547 -0.0005  0.7484
 5715SOL    HW121956   1.132  11.233   5.882 -0.7913  0.8232  1.3805
 5715SOL    HW221957   1.224  11.349   5.854 -0.2722  0.3612  1.1424
 5716SOL     OW21958   4.785   6.706   5.646  0.2682  0.3134 -0.2457
 5716SOL    HW121959   4.758   6.766   5.715  0.4320  0.3680 -0.2286
 5716SOL    HW221960   4.834   6.638   5.692  0.8204  0.6236 -0.3716
 5717SOL     OW21961   5.490  12.032   5.175  0.3483  0.0330 -0.1997
 5717SOL    HW121962   5.514  11.990   5.092 -0.5663 -0.1877 -0.3637
 5717SOL    HW221963   5.401  12.065   5.160  0.7861  1.4576  0.1451
 5718SOL     OW21964   0.878  10.950   7.041  0.1844 -0.0601 -0.0373
 5718SOL    HW121965   0.835  11.009   6.979  0.0402  0.1272  0.2336
 5718SOL    HW221966   0.971  10.957   7.020  0.1058 -0.2358 -0.4324
 5719SOL     OW21967   1.510   2.621   7.341 -0.4914 -0.0199 -0.1250
 5719SOL    HW121968   1.450   2.576   7.283  0.4880  0.0951 -1.2666
 5719SOL    HW221969   1.559   2.680   7.284  1.8825 -1.3202  0.4333
 5720SOL     OW21970   9.288   7.713   8.320 -0.0042 -0.1445 -0.0421
 5720SOL    HW121971   9.243   7.712   8.235  3.7055  0.5413 -2.2205
 5720SOL    HW221972   9.273   7.800   8.355 -1.0535 -0.2287 -0.2619
 5721SOL     OW21973  12.306   7.637  12.483 -0.1629  0.5946 -0.0048
 5721SOL    HW121974  12.329   7.654  12.392  0.1720  0.8842  0.1305
 5721SOL    HW221975  12.364   7.566  12.510 -1.5880 -0.8663 -0.5831
 5722SOL     OW21976   9.724   1.466   1.914  0.0775 -0.4592  0.1381
 5722SOL    HW121977   9.749   1.545   1.865 -0.1996 -1.8833 -2.5014
 5722SOL    HW221978   9.775   1.470   1.994  2.0600  1.1043 -1.0982
 5723SOL     OW21979   1.178   3.336  10.229  0.0033  0.0369 -0.0800
 5723SOL    HW121980   1.222   3.259  10.264  2.0245  1.4018  0.5969
 5723SOL    HW221981   1.095   3.304  10.197  0.9200 -2.4768 -0.1468
 5724SOL     OW21982  10.287   3.446   6.170 -0.1931  0.1873 -0.1440
 5724SOL    HW121983  10.211   3.490   6.207 -0.3687 -0.2941  0.0813
 5724SOL    HW221984  10.356   3.458   6.236 -0.0965  0.5609 -0.3147
 5725SOL     OW21985   0.238  10.726   8.840 -0.3393  0.0203 -0.1141
 5725SOL    HW121986   0.299  10.692   8.904 -0.4678  0.3317  0.1748
 5725SOL    HW221987   0.276  10.810   8.812  1.3567 -1.4777 -2.7553
 5726SOL     OW21988  11.671   6.279   6.521 -0.7148 -0.2211  0.1749
 5726SOL    HW121989  11.628   6.213   6.575  1.4996 -1.2921  0.7315
 5726SOL    HW221990  11.730   6.325   6.581 -0.9384  1.1115 -0.5804
 5727SOL     OW21991   2.621   7.040   7.245 -0.2056 -0.4340  0.4519
 5727SOL    HW121992   2.528   7.024   7.229 -0.1589  0.2528 -0.5742
 5727SOL    HW221993   2.658   7.056   7.158  0.3537  1.9140  1.0597
 5728SOL     OW21994   9.979   2.516   8.319 -0.0006  0.1204  0.0227
 5728SOL    HW121995   9.954   2.496   8.409 -0.4300 -0.8800 -0.2988
 5728SOL    HW221996   9.939   2.446   8.267  2.2802 -0.7782 -0.6870
 5729SOL     OW21997   2.763   6.940  10.286 -0.5249 -0.6027 -0.3607
 5729SOL    HW121998   2.836   6.892  10.248 -0.6549 -0.4061 -0.8637
 5729SOL    HW221999   2.713   6.972  10.211 -0.9902 -0.5239 -0.0234
 5730SOL     OW22000   8.150  12.189  10.199  0.2743 -0.1614 -0.4803
 5730SOL    HW122001   8.224  12.128  10.203 -0.9637 -1.7088  0.2285
 5730SOL    HW222002   8.115  12.189  10.288 -1.2833 -0.4142 -1.0602
 5731SOL     OW22003   3.227   9.979   0.733 -0.6654 -0.1286  1.0965
 5731SOL    HW122004   3.192   9.956   0.647  0.8074  1.0394  0.1249
 5731SOL    HW222005   3.223   9.898   0.783 -1.2886 -0.9123 -0.1730
 5732SOL     OW22006   5.626   8.027   2.498 -0.1130  0.1044 -0.2514
 5732SOL    HW122007   5.595   8.117   2.488  0.4238  0.1612 -1.6127
 5732SOL    HW222008   5.637   7.995   2.409  1.4396 -0.7060  0.1863
 5733SOL     OW22009   2.804   3.701  12.542 -0.0352 -0.0347 -0.5340
 5733SOL    HW122010   2.897   3.712  12.560 -0.4248  2.1506  0.5200
 5733SOL    HW222011   2.779   3.779  12.492 -1.6558  0.4625  0.9399
 5734SOL     OW22012   4.590   7.567   9.268  0.0969  0.1463 -0.3362
 5734SOL    HW122013   4.574   7.580   9.361 -0.8226 -0.6486 -0.3663
 5734SOL    HW222014   4.648   7.639   9.243  0.1265  0.5277  0.7829
 5735SOL     OW22015   9.056   4.638   4.361  0.2384  0.0632 -0.0242
 5735SOL    HW122016   8.999   4.708   4.331 -0.8382 -0.0968  1.5554
 5735SOL    HW222017   9.055   4.645   4.456  0.9728 -1.4284  0.1230
 5736SOL     OW22018   9.313   4.984   6.111 -0.0900  0.5910  0.3442
 5736SOL    HW122019   9.378   5.053   6.106 -0.0446  0.4864 -1.3310
 5736SOL    HW222020   9.358   4.910   6.153  1.1875  0.2359 -1.5372
 5737SOL     OW22021   6.119   6.775   2.307 -0.1455  0.5212 -0.4562
 5737SOL    HW122022   6.119   6.782   2.403  4.9341 -1.5329 -0.0108
 5737SOL    HW222023   6.131   6.865   2.276 -0.2821  1.0265  0.9033
 5738SOL     OW22024   2.986   4.471   3.673 -0.0652  0.4562 -0.3116
 5738SOL    HW122025   2.952   4.511   3.753 -0.1344 -0.2381  0.0094
 5738SOL    HW222026   2.983   4.542   3.608 -0.4996  0.8779  0.1598
 5739SOL     OW22027  10.503   3.772  10.733  0.4838  0.1833  0.1761
 5739SOL    HW122028  10.487   3.789  10.640 -1.9086  2.0834  0.8219
 5739SOL    HW222029  10.460   3.688  10.749  3.2634 -1.5793 -0.8883
 5740SOL     OW22030   8.868   5.157   1.449  0.1430  0.1394 -0.0705
 5740SOL    HW122031   8.871   5.200   1.363 -1.9611  1.4241  0.4289
 5740SOL    HW222032   8.800   5.091   1.441  1.2016 -1.0030  0.1073
 5741SOL     OW22033   3.098   4.303  11.315 -0.4588 -0.1090 -0.0533
 5741SOL    HW122034   3.102   4.306  11.219 -2.0881 -1.0023 -0.1850
 5741SOL    HW222035   3.142   4.222  11.338 -0.2482  0.0042 -0.0526
 5742SOL     OW22036   5.550  12.051   0.882  0.0706 -0.2850 -0.4597
 5742SOL    HW122037   5.645  12.062   0.873 -0.2909  2.6793 -1.7214
 5742SOL    HW222038   5.532  11.967   0.840  2.1762 -1.2710  0.4346
 5743SOL     OW22039   5.901   9.628  10.466 -0.4736 -0.2846  0.4100
 5743SOL    HW122040   5.890   9.722  10.482  1.4978 -0.2079  1.6905
 5743SOL    HW222041   5.819   9.589  10.496 -2.1886  1.1450 -2.0498
 5744SOL     OW22042   5.771   4.831   2.478  0.1738 -0.4029 -0.4161
 5744SOL    HW122043   5.709   4.902   2.493 -0.0660 -0.7380  0.2320
 5744SOL    HW222044   5.802   4.845   2.388 -0.0549  0.3655 -0.3836
 5745SOL     OW22045   1.551   4.455  12.279 -0.3276 -0.6559 -0.5545
 5745SOL    HW122046   1.537   4.550  12.289  1.4427 -0.2853 -1.0800
 5745SOL    HW222047   1.472   4.415  12.315 -0.7474  0.9972  0.5077
 5746SOL     OW22048   4.905   9.342  10.098  0.3208  0.6251 -0.3715
 5746SOL    HW122049   4.847   9.389  10.158  2.1696  1.5548  0.7454
 5746SOL    HW222050   4.923   9.405  10.028  2.0595  1.3116  0.6501
 5747SOL     OW22051   4.619   2.659   9.301  0.1267 -0.1382  0.3354
 5747SOL    HW122052   4.604   2.753   9.300 -0.5535 -0.2395  0.8065
 5747SOL    HW222053   4.646   2.640   9.391  0.2234 -0.4009  0.2510
 5748SOL     OW22054   3.330   6.080   9.533  0.5659  0.4307  0.2344
 5748SOL    HW122055   3.335   6.050   9.624  0.4075  0.7462  0.3527
 5748SOL    HW222056   3.377   6.014   9.483  0.6861  0.2707  0.5515
 5749SOL     OW22057   6.447  10.928   4.060  0.3351  0.2548  0.1292
 5749SOL    HW122058   6.509  10.857   4.076 -0.1697 -0.2190  0.0547
 5749SOL    HW222059   6.413  10.910   3.972 -0.4235  0.0882  0.4424
 5750SOL     OW22060   1.090   1.975   8.541  0.0098  0.3314 -0.0791
 5750SOL    HW122061   1.100   2.020   8.457  2.4423  0.5307  0.2455
 5750SOL    HW222062   0.998   1.988   8.565 -0.3004  1.7604 -1.8579
 5751SOL     OW22063   7.419   3.353   7.472 -0.6952  0.2163 -0.2498
 5751SOL    HW122064   7.364   3.305   7.534 -1.1215  2.0319  0.8549
 5751SOL    HW222065   7.382   3.441   7.471  1.7340  1.3069 -0.0386
 5752SOL     OW22066   7.016   6.879   3.975  0.5561  0.0115  0.2163
 5752SOL    HW122067   7.094   6.868   4.029 -0.3956 -0.1752  1.5868
 5752SOL    HW222068   6.957   6.933   4.027 -0.8923 -1.2173 -0.0795
 5753SOL     OW22069   0.867   7.178   6.925  1.5125  0.1357  0.1774
 5753SOL    HW122070   0.833   7.093   6.894 -0.5482  0.8292  0.3896
 5753SOL    HW222071   0.961   7.164   6.933  2.0679 -0.7142 -4.5667
 5754SOL     OW22072   6.322  12.507   7.522 -0.0501 -0.3978 -0.1155
 5754SOL    HW122073   6.302  12.462   7.604 -3.6669 -0.2850 -0.7996
 5754SOL    HW222074   6.360  12.439   7.466 -1.5965 -1.6276  0.2531
 5755SOL     OW22075   1.145   3.880   3.700  0.5646  0.0185 -0.3899
 5755SOL    HW122076   1.101   3.954   3.658 -1.6661 -1.6477 -1.1767
 5755SOL    HW222077   1.196   3.839   3.630  1.6649  0.6467  0.0074
 5756SOL     OW22078   3.101   5.990   1.223 -0.4944 -0.2375  0.1853
 5756SOL    HW122079   3.138   6.076   1.244 -0.0078 -0.5429  0.6252
 5756SOL    HW222080   3.009   5.997   1.248 -0.4573  0.1559  0.2199
 5757SOL     OW22081   2.685   1.565  10.141  0.1577 -0.1653  0.4030
 5757SOL    HW122082   2.676   1.632  10.073  0.5608  2.5517  2.8306
 5757SOL    HW222083   2.611   1.579  10.199  0.4904 -1.5653  1.2148
 5758SOL     OW22084   9.106   2.988   1.625  0.4693 -0.4817  0.2845
 5758SOL    HW122085   9.168   2.976   1.553  0.9786  1.1361  0.4071
 5758SOL    HW222086   9.160   2.994   1.703  0.2444  1.4252  0.3385
 5759SOL     OW22087   9.500   8.743   9.589  0.1761  0.3191  0.4485
 5759SOL    HW122088   9.498   8.675   9.656  0.7463  0.0557  0.2138
 5759SOL    HW222089   9.497   8.825   9.637 -0.7284  0.1318  0.7263
 5760SOL     OW22090   8.622   8.306   1.379  0.1341 -0.0438 -0.1747
 5760SOL    HW122091   8.708   8.293   1.419  0.0760  1.0579  0.3437
 5760SOL    HW222092   8.629   8.268   1.292  1.1758  0.1248 -0.1676
 5761SOL     OW22093   1.908   8.360   3.398  0.2326  0.0146  0.3977
 5761SOL    HW122094   1.960   8.435   3.368 -1.5430  1.8340  1.5631
 5761SOL    HW222095   1.887   8.312   3.318 -0.2047  1.9144 -0.7146
 5762SOL     OW22096  10.900  11.978   2.191  0.1446 -0.1688  0.2548
 5762SOL    HW122097  10.873  12.050   2.248 -1.1179  0.2946 -0.8743
 5762SOL    HW222098  10.849  11.990   2.111 -0.6283 -2.7224  0.2782
 5763SOL     OW22099   8.675   6.302   7.351  0.5979  0.3862  0.5491
 5763SOL    HW122100   8.758   6.268   7.316  0.9864  0.2684  1.5425
 5763SOL    HW222101   8.631   6.341   7.276  1.2992 -0.0616 -0.1078
 5764SOL     OW22102  12.183   8.995   4.179  0.4777 -0.0408 -0.2977
 5764SOL    HW122103  12.159   9.075   4.226  1.0721  0.5296 -0.9307
 5764SOL    HW222104  12.116   8.932   4.203  0.5237  0.3599  0.9659
 5765SOL     OW22105   0.963  12.619   3.929 -0.3881 -0.0759 -0.0145
 5765SOL    HW122106   1.059  12.617   3.927 -0.3414  1.5745 -1.4965
 5765SOL    HW222107   0.941  12.706   3.961 -1.3912 -0.0839 -0.6573
 5766SOL     OW22108   3.398   8.222  12.421 -0.7225  0.2470  0.3894
 5766SOL    HW122109   3.314   8.183  12.446 -0.2012 -0.2997  1.3848
 5766SOL    HW222110   3.453   8.212  12.499  0.3198  0.4414 -0.2960
 5767SOL     OW22111   9.025   1.088   6.808 -0.0681  0.2620  0.1314
 5767SOL    HW122112   8.961   1.077   6.878  2.1186 -0.4361  2.1708
 5767SOL    HW222113   9.080   1.009   6.814  1.0477  0.8641 -1.4649
 5768SOL     OW22114   1.566   0.406   1.116 -0.1063 -0.2726  0.4589
 5768SOL    HW122115   1.583   0.383   1.024 -0.2814 -0.7471  0.5416
 5768SOL    HW222116   1.643   0.456   1.142 -0.0637 -0.1161  0.0466
 5769SOL     OW22117   2.407   2.689   9.273  0.1880  0.0114 -0.4579
 5769SOL    HW122118   2.412   2.729   9.186  2.5321 -2.6341 -1.7053
 5769SOL    HW222119   2.491   2.710   9.315 -0.6381  0.6721  0.9538
 5770SOL     OW22120  12.099   1.653   0.835  0.1841 -0.0570 -0.1808
 5770SOL    HW122121  12.139   1.585   0.889  0.7273 -0.0830 -0.6134
 5770SOL    HW222122  12.049   1.706   0.897  3.3554  1.8720  0.9648
 5771SOL     OW22123   4.025   1.098  11.042  0.5241 -0.0684 -0.0536
 5771SOL    HW122124   4.052   1.163  10.978  1.2351 -0.4373 -0.1416
 5771SOL    HW222125   4.015   1.146  11.124 -0.4511  0.4170 -0.4464
 5772SOL     OW22126   6.369   6.845   4.188 -0.1820 -0.2438 -0.5492
 5772SOL    HW122127   6.420   6.891   4.122 -1.1688  0.8123 -0.5976
 5772SOL    HW222128   6.403   6.877   4.272  0.9755 -1.4813 -0.5130
 5773SOL     OW22129   6.449   3.975   7.526 -0.1418 -0.3779 -0.4265
 5773SOL    HW122130   6.378   3.932   7.477  1.0658 -3.3106  0.1938
 5773SOL    HW222131   6.523   3.915   7.518  0.9688  0.4172  2.5501
 5774SOL     OW22132   9.782  10.684   6.138  0.3110  0.3060 -0.0884
 5774SOL    HW122133   9.718  10.641   6.195 -0.7299  0.0512 -1.3927
 5774SOL    HW222134   9.808  10.616   6.076  0.5196  0.8936 -0.6497
 5775SOL     OW22135  10.000  11.882   8.182 -0.8183  0.0754  0.1384
 5775SOL    HW122136  10.068  11.930   8.229  1.6482 -3.1202  0.1396
 5775SOL    HW222137   9.982  11.936   8.105  0.3636  1.8826  1.0550
 5776SOL     OW22138  10.368   9.001   3.694 -0.1002 -0.3815 -0.0242
 5776SOL    HW122139  10.413   9.015   3.777  1.9984 -0.1180 -1.1421
 5776SOL    HW222140  10.279   8.977   3.719 -0.2084  1.9805  2.2427
 5777SOL     OW22141   8.413   1.719  11.917 -0.2963 -0.0609 -0.1341
 5777SOL    HW122142   8.485   1.657  11.904  0.5799  1.3382 -2.4926
 5777SOL    HW222143   8.381   1.700  12.005  0.5443 -3.1801 -0.3842
 5778SOL     OW22144   7.337  11.831  11.957 -0.2995  0.7701 -0.7171
 5778SOL    HW122145   7.245  11.853  11.964 -0.6014 -0.8810  1.6868
 5778SOL    HW222146   7.352  11.766  12.026  1.9982 -1.2395 -2.9037
 5779SOL     OW22147   1.499   2.339   7.860 -0.0151 -0.6283 -0.6026
 5779SOL    HW122148   1.424   2.330   7.801 -0.2156 -0.5880 -0.3580
 5779SOL    HW222149   1.460   2.353   7.947  0.2746 -0.4057 -0.5037
 5780SOL     OW22150   6.805  10.790  10.409  0.0459 -0.5040  0.0128
 5780SOL    HW122151   6.716  10.782  10.443 -0.2862  2.4823  0.1784
 5780SOL    HW222152   6.795  10.841  10.328  1.4190 -2.2824 -1.3774
 5781SOL     OW22153  11.021   5.870  11.373  0.5897  0.4488 -0.3467
 5781SOL    HW122154  11.024   5.807  11.446  2.0890  1.2797  0.3562
 5781SOL    HW222155  11.081   5.835  11.308  2.2576  1.6064  0.4896
 5782SOL     OW22156  10.160   1.380   9.101 -0.8424 -0.2981  0.7550
 5782SOL    HW122157  10.151   1.460   9.153  0.4251 -0.0055  0.5639
 5782SOL    HW222158  10.214   1.405   9.027 -1.7613 -0.9714 -0.1674
 5783SOL     OW22159   7.994  10.253   8.347 -0.5256  0.1320 -0.3002
 5783SOL    HW122160   8.007  10.249   8.442 -1.8887  1.3398 -0.0094
 5783SOL    HW222161   8.047  10.327   8.319 -1.5006  0.9091 -0.1618
 5784SOL     OW22162  11.192   8.703   6.114 -0.8543 -0.1778  0.4743
 5784SOL    HW122163  11.178   8.649   6.036 -1.8558  0.6449  0.0658
 5784SOL    HW222164  11.254   8.770   6.085 -0.2652 -0.5997  0.7442
 5785SOL     OW22165   7.389   5.821   2.519  0.6005 -0.4100 -0.0741
 5785SOL    HW122166   7.404   5.804   2.425  0.9645  1.6418 -0.4220
 5785SOL    HW222167   7.294   5.812   2.529  0.7251 -2.3663 -0.2321
 5786SOL     OW22168   6.806   1.172   2.090 -0.1691  0.2565 -0.4650
 5786SOL    HW122169   6.808   1.151   1.997  0.8642  1.9416 -0.8740
 5786SOL    HW222170   6.887   1.136   2.126 -0.7305 -0.6974 -0.1242
 5787SOL     OW22171   6.702   9.466   9.137  0.5128  0.4646  0.2750
 5787SOL    HW122172   6.689   9.469   9.232  1.5470  1.7986  0.4127
 5787SOL    HW222173   6.769   9.532   9.120 -0.9063  1.5405 -1.5837
 5788SOL     OW22174   9.095   8.044   4.141  0.4959 -0.0725  0.5529
 5788SOL    HW122175   9.016   7.990   4.143  0.2414  0.3137  1.6912
 5788SOL    HW222176   9.064   8.133   4.160  1.0526  0.2985 -0.2145
 5789SOL     OW22177   8.301   2.031   8.252 -0.0807  0.3040  0.5184
 5789SOL    HW122178   8.279   2.103   8.192  1.9543  1.3078  0.8817
 5789SOL    HW222179   8.257   1.955   8.215 -0.5536  1.3144 -1.1097
 5790SOL     OW22180   2.657   3.288   9.954 -0.1785 -0.5723 -0.3736
 5790SOL    HW122181   2.703   3.353   9.901 -0.4594 -0.4987 -0.5326
 5790SOL    HW222182   2.564   3.308   9.941 -0.2964 -1.4641 -1.0113
 5791SOL     OW22183   3.625   1.131   8.639  0.3490 -0.3106  0.3361
 5791SOL    HW122184   3.598   1.188   8.568  0.4542 -2.1060 -1.2072
 5791SOL    HW222185   3.708   1.168   8.669 -0.0001  0.8164 -0.0275
 5792SOL     OW22186   7.833   5.003   9.625 -0.4318  0.2627  0.3567
 5792SOL    HW122187   7.916   5.023   9.669 -1.4092 -0.1272  2.5323
 5792SOL    HW222188   7.768   5.009   9.695 -2.3519  1.2178 -1.4135
 5793SOL     OW22189   0.631   9.908   0.499 -0.1409 -0.1413  0.3635
 5793SOL    HW122190   0.626   9.812   0.503 -1.4405 -0.1075 -0.1615
 5793SOL    HW222191   0.719   9.928   0.533  0.8091 -1.6104 -1.0871
 5794SOL     OW22192   3.860   7.969   9.488  0.9960 -0.2573  0.2899
 5794SOL    HW122193   3.908   7.994   9.567  1.2775  0.1528 -0.0032
 5794SOL    HW222194   3.843   7.876   9.498  0.9922 -0.1978  0.8548
 5795SOL     OW22195   4.593   8.078   9.116  0.3373 -0.1366 -0.5778
 5795SOL    HW122196   4.666   8.077   9.054  1.0923 -0.6354  0.2930
 5795SOL    HW222197   4.576   7.986   9.134 -1.1116 -0.0551 -1.4437
 5796SOL     OW22198   1.029  12.619   7.196  0.0094 -0.0247 -0.1885
 5796SOL    HW122199   0.968  12.593   7.266 -0.0330  0.6424  0.0308
 5796SOL    HW222200   1.101  12.557   7.203  0.1737  0.2466  0.6894
 5797SOL     OW22201   3.992   3.200  12.029  0.5444  0.3735  0.2194
 5797SOL    HW122202   4.056   3.261  11.993  1.6066 -0.4083  0.7195
 5797SOL    HW222203   3.995   3.216  12.124 -1.1932  1.4354  0.1426
 5798SOL     OW22204   8.115   4.924   8.240 -0.1548  0.1535  0.8951
 5798SOL    HW122205   8.122   4.855   8.306  3.4109 -0.1876  0.3557
 5798SOL    HW222206   8.079   4.879   8.163  0.0180 -0.5932  1.2382
 5799SOL     OW22207   6.050  10.185   0.554  0.2054 -0.0270  0.0656
 5799SOL    HW122208   6.133  10.221   0.584  1.6054 -1.5438 -1.7443
 5799SOL    HW222209   5.986  10.218   0.617  2.3416  0.0926  2.3450
 5800SOL     OW22210   5.916   8.152   2.503 -0.3586  0.1341 -0.2184
 5800SOL    HW122211   5.878   8.236   2.478 -0.1974 -0.1657 -1.5185
 5800SOL    HW222212   5.982   8.134   2.436 -0.2354 -0.9345  0.1630
 5801SOL     OW22213   1.122   2.485  10.914  0.1297 -0.0581 -0.2276
 5801SOL    HW122214   1.198   2.516  10.865 -1.0577  2.8525 -0.4252
 5801SOL    HW222215   1.063   2.450  10.847  0.2552 -0.0101 -0.3648
 5802SOL     OW22216   0.957  11.417   8.890 -0.1881  0.0788  0.2579
 5802SOL    HW122217   1.014  11.341   8.898 -2.0472 -1.5383 -1.0094
 5802SOL    HW222218   0.890  11.403   8.957  0.3989  1.5745  1.2199
 5803SOL     OW22219  10.558   2.570   2.535 -0.5126  0.8754  0.1370
 5803SOL    HW122220  10.524   2.495   2.485  0.7301 -0.5704  1.3512
 5803SOL    HW222221  10.585   2.633   2.468  3.4085 -1.9820 -1.3558
 5804SOL     OW22222   3.663   4.547   4.597  0.0900  0.0579 -0.1703
 5804SOL    HW122223   3.635   4.483   4.532 -1.3871  1.1275 -0.6383
 5804SOL    HW222224   3.755   4.525   4.613 -1.0504 -4.1345  2.0469
 5805SOL     OW22225   2.799   0.236   7.690 -0.4827  0.3300 -0.2311
 5805SOL    HW122226   2.807   0.170   7.758 -2.9522 -0.1806 -0.3424
 5805SOL    HW222227   2.835   0.316   7.729 -2.5647  0.2658  2.0336
 5806SOL     OW22228   8.051   4.037   5.230 -0.7263  0.1039  0.4444
 5806SOL    HW122229   8.032   4.015   5.321 -0.4057 -0.4029  0.3969
 5806SOL    HW222230   8.008   4.121   5.215 -0.1398  0.5699  1.2909
 5807SOL     OW22231  11.214   2.726   2.494 -0.1628  0.2849 -0.3810
 5807SOL    HW122232  11.260   2.735   2.577 -0.1381  0.1172 -0.3777
 5807SOL    HW222233  11.130   2.688   2.517 -0.3346  0.6627 -0.3778
 5808SOL     OW22234   7.850   8.228   9.427  0.3672 -0.3251  0.5829
 5808SOL    HW122235   7.759   8.205   9.446 -0.8757  1.5222 -2.4461
 5808SOL    HW222236   7.883   8.155   9.376  0.8044 -1.2350  2.1218
 5809SOL     OW22237   5.396  11.978   3.245 -0.5854 -0.4103  0.6235
 5809SOL    HW122238   5.357  11.891   3.243 -3.7230  0.8584 -0.0204
 5809SOL    HW222239   5.357  12.023   3.170 -1.0998  2.2972  2.3925
 5810SOL     OW22240   2.004   5.008   3.988 -0.4217 -0.1396 -0.4809
 5810SOL    HW122241   1.977   4.955   4.063 -0.5579 -0.3729 -0.6957
 5810SOL    HW222242   1.940   4.988   3.920 -1.1577  1.1548 -0.1989
 5811SOL     OW22243   0.037   3.767   2.230  0.0818 -0.5745  0.2455
 5811SOL    HW122244   0.091   3.720   2.167  1.0426 -1.1342  1.4253
 5811SOL    HW222245  -0.036   3.801   2.179  1.0833 -0.5663 -1.2438
 5812SOL     OW22246   2.741   0.708  11.820  0.3021 -0.3607  0.3365
 5812SOL    HW122247   2.714   0.782  11.873 -0.8762 -0.4363 -0.1331
 5812SOL    HW222248   2.798   0.745  11.753 -1.5714  0.4219 -0.8994
 5813SOL     OW22249   3.810   8.352   0.323 -0.2238  0.1494  0.1513
 5813SOL    HW122250   3.813   8.262   0.290 -1.2948 -1.1200  3.0973
 5813SOL    HW222251   3.874   8.354   0.394 -1.2818  1.2366  1.1256
 5814SOL     OW22252   3.499   0.295  10.721  0.1517  0.2594  0.3433
 5814SOL    HW122253   3.558   0.281  10.795  0.7489  1.1945  0.0600
 5814SOL    HW222254   3.414   0.260  10.750  0.2200  1.1732  1.7060
 5815SOL     OW22255   6.473   8.683  12.394  0.0842  0.1517 -0.2915
 5815SOL    HW122256   6.430   8.757  12.351  1.6467  1.5240  0.4324
 5815SOL    HW222257   6.500   8.716  12.479  0.0325 -1.5386  0.4259
 5816SOL     OW22258   4.761  10.153  12.016  0.6165  0.0929 -0.4539
 5816SOL    HW122259   4.796  10.233  12.055  0.9952 -0.4231  0.2916
 5816SOL    HW222260   4.782  10.084  12.079 -1.9029 -0.2431  0.1476
 5817SOL     OW22261   2.477   9.088   2.115  0.0716  0.4459 -0.3540
 5817SOL    HW122262   2.546   9.104   2.179 -0.9535  0.5999  0.7480
 5817SOL    HW222263   2.432   9.172   2.107 -1.5017 -0.2298  0.8200
 5818SOL     OW22264   4.872   8.542   5.421  0.2944  0.8523 -0.2463
 5818SOL    HW122265   4.968   8.548   5.422  0.2943  0.8442  0.8504
 5818SOL    HW222266   4.848   8.517   5.510 -0.5926 -1.7918 -1.1349
 5819SOL     OW22267  11.315   6.111   1.742 -0.5512 -0.4983  0.2476
 5819SOL    HW122268  11.399   6.105   1.787 -1.0064 -0.3691  1.1539
 5819SOL    HW222269  11.332   6.164   1.665  0.5804 -1.9458 -0.5549
 5820SOL     OW22270   9.956   0.783   2.109 -0.2565  0.2061  0.0884
 5820SOL    HW122271   9.951   0.853   2.174  1.5696 -1.1609  1.8845
 5820SOL    HW222272   9.959   0.703   2.161 -0.6735 -1.1120 -1.8051
 5821SOL     OW22273   5.971   8.622   2.128 -0.0448  0.6579  0.1750
 5821SOL    HW122274   5.885   8.582   2.126  0.5969 -0.7882  0.5462
 5821SOL    HW222275   5.955   8.714   2.104 -1.9192  0.8540  1.8257
 5822SOL     OW22276   8.019   4.992  10.753  0.0801 -0.4627  0.6252
 5822SOL    HW122277   7.994   4.985  10.661 -1.3174 -0.2716  0.9633
 5822SOL    HW222278   8.058   5.079  10.760 -0.9053  0.0211  0.4213
 5823SOL     OW22279   4.310   9.897   2.634 -0.1432 -0.3748  0.8912
 5823SOL    HW122280   4.267   9.812   2.644 -0.5720 -0.0103  2.3141
 5823SOL    HW222281   4.394   9.877   2.593  0.1250 -1.5931  1.9710
 5824SOL     OW22282  10.607   2.181   5.845  0.1719 -0.2844  0.3161
 5824SOL    HW122283  10.695   2.214   5.826 -0.6624  3.4582  2.0320
 5824SOL    HW222284  10.552   2.218   5.776 -0.4876 -0.0746  0.9439
 5825SOL     OW22285   8.020   4.639   0.041  0.0884  0.2822  0.0830
 5825SOL    HW122286   7.949   4.576   0.029  1.2134 -0.7134 -1.7370
 5825SOL    HW222287   7.984   4.722   0.009 -0.5086 -0.0461 -0.1153
 5826SOL     OW22288   0.286  11.437   7.566  0.7471  0.0685  0.4075
 5826SOL    HW122289   0.267  11.351   7.604 -0.0263  0.1378  0.2002
 5826SOL    HW222290   0.309  11.492   7.640  4.5923 -1.0974  0.3043
 5827SOL     OW22291   7.281   2.908   5.790 -0.1870  0.0687 -1.0734
 5827SOL    HW122292   7.343   2.835   5.780  0.2750  0.4053 -0.6927
 5827SOL    HW222293   7.207   2.884   5.734 -0.2182 -0.8949 -0.6449
 5828SOL     OW22294   7.623   6.019   1.981 -0.6477  0.5869  0.9000
 5828SOL    HW122295   7.595   6.106   2.008 -0.9740  0.8770 -0.3141
 5828SOL    HW222296   7.614   6.019   1.885  0.1476 -0.4933  0.7993
 5829SOL     OW22297  11.887   3.981   9.876  0.3678 -0.2397  0.0670
 5829SOL    HW122298  11.855   3.917   9.940 -2.2703  1.0369  0.1368
 5829SOL    HW222299  11.810   4.031   9.851  1.7768  0.9120 -2.3283
 5830SOL     OW22300   7.549   1.163   9.075  0.8627  0.1790 -0.1582
 5830SOL    HW122301   7.572   1.137   8.986  1.0562  3.0237 -1.0564
 5830SOL    HW222302   7.520   1.254   9.066 -1.4584 -0.1639  2.3501
 5831SOL     OW22303   6.101   8.253   2.696  0.4758  0.6799  0.0476
 5831SOL    HW122304   6.025   8.231   2.642  1.6773 -3.4024 -0.3513
 5831SOL    HW222305   6.152   8.314   2.643 -1.0422  1.0919 -0.9949
 5832SOL     OW22306   9.071   3.258   1.397  0.1410  0.5010 -0.1864
 5832SOL    HW122307   9.056   3.235   1.305  0.8982 -0.4045 -0.0964
 5832SOL    HW222308   9.165   3.271   1.403  0.4470 -1.7336  0.9331
 5833SOL     OW22309   1.253   0.188   0.760 -0.1918  0.1027 -0.2768
 5833SOL    HW122310   1.286   0.278   0.762 -1.0811  0.4282  0.4132
 5833SOL    HW222311   1.192   0.183   0.834  0.2161 -1.2169  0.0047
 5834SOL     OW22312   4.993   8.359   6.986 -0.0200 -0.7434 -0.4087
 5834SOL    HW122313   4.991   8.352   6.891 -0.7393 -0.2886 -0.4302
 5834SOL    HW222314   5.057   8.293   7.013  0.8194 -0.2968 -1.2515
 5835SOL     OW22315   4.114   8.592   5.113  0.1198 -0.0710  0.2468
 5835SOL    HW122316   4.146   8.593   5.022  1.1085 -0.0546  0.5885
 5835SOL    HW222317   4.032   8.640   5.109  0.3399  0.2622 -0.5830
 5836SOL     OW22318   4.129   9.568   1.325 -0.4924  0.0221 -0.0649
 5836SOL    HW122319   4.179   9.528   1.253  0.5453  0.3635  0.4485
 5836SOL    HW222320   4.193   9.578   1.395 -0.0938  4.4990 -0.8055
 5837SOL     OW22321   5.363   6.384   9.746  0.0127  0.2149  0.0616
 5837SOL    HW122322   5.301   6.450   9.717 -0.3118  0.9183  2.1953
 5837SOL    HW222323   5.316   6.301   9.736 -1.0552  0.6820  1.0227
 5838SOL     OW22324  10.659   8.684   2.114  0.2225 -0.3172 -0.4246
 5838SOL    HW122325  10.598   8.647   2.178  0.3612  0.3210  0.0784
 5838SOL    HW222326  10.675   8.611   2.053 -0.2693 -0.7903 -0.0102
 5839SOL     OW22327   5.038  10.237   1.609 -0.2288  0.2662  0.4977
 5839SOL    HW122328   5.104  10.168   1.602 -1.5394 -0.8999 -1.6437
 5839SOL    HW222329   5.034  10.274   1.521 -1.7439  0.9611  0.8352
 5840SOL     OW22330   4.819   7.353  11.133  0.1738 -0.6515  0.1336
 5840SOL    HW122331   4.875   7.430  11.133  0.3087 -0.7110  2.1428
 5840SOL    HW222332   4.731   7.387  11.146  0.2857 -0.8489  1.4802
 5841SOL     OW22333   0.238   0.096   0.702  0.1311  0.4665 -0.0254
 5841SOL    HW122334   0.220   0.159   0.632 -2.0768  0.1295  0.1651
 5841SOL    HW222335   0.211   0.140   0.782 -1.6923 -0.7056  0.0903
 5842SOL     OW22336  10.384   0.485   0.769 -0.1165 -0.1642 -0.2789
 5842SOL    HW122337  10.416   0.435   0.844  1.0042 -0.3093 -0.8333
 5842SOL    HW222338  10.335   0.422   0.717 -1.0228 -0.0308  0.3826
 5843SOL     OW22339   9.231   6.367  12.110 -0.0825  0.3996 -0.9156
 5843SOL    HW122340   9.305   6.419  12.079 -0.5243  2.2420  0.8777
 5843SOL    HW222341   9.266   6.315  12.183 -0.3918  0.8319 -0.4474
 5844SOL     OW22342   3.302  10.221   7.128 -0.4007 -0.1472 -0.2456
 5844SOL    HW122343   3.254  10.184   7.202  1.3898 -0.6093  0.7450
 5844SOL    HW222344   3.235  10.265   7.075 -1.8978 -0.8520  0.9992
 5845SOL     OW22345   4.746  11.199   6.141 -0.2451  0.2349 -0.0999
 5845SOL    HW122346   4.779  11.252   6.068 -0.5066 -0.4641 -0.7331
 5845SOL    HW222347   4.679  11.255   6.182  1.5762  1.6196  1.1341
 5846SOL     OW22348   8.930   4.267  12.198  0.1823  0.4916 -0.2193
 5846SOL    HW122349   8.974   4.346  12.168  0.6707 -0.7201 -2.9690
 5846SOL    HW222350   8.854   4.258  12.140  0.0056 -0.9345  0.1911
 5847SOL     OW22351   1.650  11.358   5.843  0.2315 -0.5429 -0.2537
 5847SOL    HW122352   1.703  11.435   5.864 -0.1103 -0.4024  0.1160
 5847SOL    HW222353   1.576  11.393   5.794  0.0274 -0.6242 -0.0031
 5848SOL     OW22354   2.064  10.788   8.967  0.3487  0.3463 -0.4196
 5848SOL    HW122355   2.072  10.792   9.062 -1.5588 -0.3906 -0.1734
 5848SOL    HW222356   2.076  10.878   8.937  2.6128  0.3474  0.3126
 5849SOL     OW22357   7.816   1.345   0.306 -0.0355 -0.1549 -0.0893
 5849SOL    HW122358   7.777   1.326   0.392 -1.2239 -0.0513 -0.5828
 5849SOL    HW222359   7.889   1.283   0.299  1.2085  1.0172  1.7172
 5850SOL     OW22360  12.189   2.690  10.339 -0.0905  0.3407 -0.6012
 5850SOL    HW122361  12.230   2.691  10.425 -1.4812  0.7711  0.0768
 5850SOL    HW222362  12.098   2.712  10.355 -0.0807  1.9245 -2.3650
 5851SOL     OW22363   5.069  11.140   0.667  0.0265  0.5073 -0.2478
 5851SOL    HW122364   5.080  11.197   0.743  0.4852 -0.3875  0.3779
 5851SOL    HW222365   5.019  11.066   0.701  2.4532 -1.1812 -0.1209
 5852SOL     OW22366   2.521  11.507  11.196 -0.5733  0.5107  0.0938
 5852SOL    HW122367   2.500  11.454  11.273 -1.2921  1.0699  0.2916
 5852SOL    HW222368   2.568  11.447  11.138  1.7589  0.5681  1.7756
 5853SOL     OW22369   7.616   0.999  11.515  0.0748 -0.3115 -0.0367
 5853SOL    HW122370   7.561   0.927  11.544 -1.5322  1.2436  1.0110
 5853SOL    HW222371   7.612   1.062  11.587  0.9385  1.0770 -1.1522
 5854SOL     OW22372   1.241   4.519  11.689  0.1773  0.3092 -0.5289
 5854SOL    HW122373   1.315   4.565  11.730 -0.2172  0.5918 -0.1227
 5854SOL    HW222374   1.211   4.458  11.756  0.0693  0.1676 -0.7077
 5855SOL     OW22375   6.167   5.520  11.284  0.2913 -0.4040  0.7530
 5855SOL    HW122376   6.172   5.438  11.235  0.2702  0.3070 -0.4974
 5855SOL    HW222377   6.078   5.552  11.268  0.7354  0.5458  0.0133
 5856SOL     OW22378  12.386   6.687   4.936  0.0961 -0.2281  0.3555
 5856SOL    HW122379  12.347   6.606   4.969 -2.2496  0.0823 -1.3875
 5856SOL    HW222380  12.389   6.675   4.841 -2.0458  2.3198 -0.1625
 5857SOL     OW22381   4.572   1.447  12.017 -0.2776  0.5044 -0.5509
 5857SOL    HW122382   4.591   1.438  11.923  1.3948 -0.1161 -0.1834
 5857SOL    HW222383   4.517   1.371  12.037  0.3689 -0.0422 -0.7992
 5858SOL     OW22384   5.496   8.818   2.584 -0.0308  0.2187  0.5129
 5858SOL    HW122385   5.585   8.786   2.599  0.1439 -0.3623 -1.4033
 5858SOL    HW222386   5.443   8.777   2.653  0.7517 -1.6839  0.0443
 5859SOL     OW22387  10.904   3.789   8.624 -0.0765  0.2080  0.2723
 5859SOL    HW122388  10.858   3.823   8.701  0.9662  0.8643  0.6305
 5859SOL    HW222389  10.839   3.794   8.553 -0.4271  1.5696  0.6544
 5860SOL     OW22390   2.553   6.235  12.191  0.0100 -0.0505 -0.2924
 5860SOL    HW122391   2.617   6.164  12.200  1.8208  1.6013  0.8493
 5860SOL    HW222392   2.529   6.234  12.098  0.6715 -1.5496 -0.4831
 5861SOL     OW22393  11.519   9.475  10.778 -0.1834 -0.1118 -0.1399
 5861SOL    HW122394  11.583   9.520  10.833 -0.0388 -1.0498  0.4722
 5861SOL    HW222395  11.531   9.382  10.797 -1.9559 -0.3062  0.2690
 5862SOL     OW22396   4.594   5.174  11.414  0.0662 -0.4967 -0.4943
 5862SOL    HW122397   4.610   5.119  11.492 -0.5246  0.0230  0.0067
 5862SOL    HW222398   4.544   5.117  11.355 -1.7033 -0.1310  0.5653
 5863SOL     OW22399   0.222   5.526   8.121  0.0483 -0.0362  0.2568
 5863SOL    HW122400   0.290   5.591   8.106  0.8629 -0.6898  1.0058
 5863SOL    HW222401   0.171   5.562   8.194 -1.8155  1.5031 -1.6757
 5864SOL     OW22402   3.326   4.550  10.731  0.2510  0.2491  0.5689
 5864SOL    HW122403   3.373   4.631  10.746  1.4147  0.4975 -3.4196
 5864SOL    HW222404   3.252   4.575  10.675  0.3098 -1.3384 -0.2653
 5865SOL     OW22405   1.131   3.725  10.864 -0.7180 -0.2612 -0.7047
 5865SOL    HW122406   1.059   3.704  10.803 -1.5235 -1.1988  0.5204
 5865SOL    HW222407   1.095   3.794  10.920 -0.2212  0.1052 -0.8283
 5866SOL     OW22408  12.286   2.680   8.961  0.0836 -0.1149 -0.2710
 5866SOL    HW122409  12.272   2.774   8.962 -1.9141 -0.3452  2.3977
 5866SOL    HW222410  12.232   2.649   8.888 -0.8760  0.5985  0.1249
 5867SOL     OW22411   3.094   6.953   5.772  0.1797 -0.0805 -0.2964
 5867SOL    HW122412   3.003   6.943   5.743  0.3982 -0.1503 -0.9682
 5867SOL    HW222413   3.118   6.866   5.804 -0.2679  0.1540  0.7264
 5868SOL     OW22414   9.760   6.937   6.908 -0.3135 -0.6055  0.2640
 5868SOL    HW122415   9.707   6.997   6.960  1.9108 -0.1250  2.1214
 5868SOL    HW222416   9.717   6.852   6.919  0.2548 -0.6121  3.3327
 5869SOL     OW22417   0.481   5.178  10.054 -0.1421  0.0304  0.1266
 5869SOL    HW122418   0.478   5.165   9.959 -1.1514 -1.3517  0.3097
 5869SOL    HW222419   0.389   5.179  10.080  0.1277  0.6161  1.0730
 5870SOL     OW22420   6.153  11.195   3.927  0.0894  0.2710 -0.1804
 5870SOL    HW122421   6.133  11.281   3.893 -1.1507 -0.2777 -0.8993
 5870SOL    HW222422   6.207  11.212   4.005 -0.6253  1.7042  0.0348
 5871SOL     OW22423   9.329  10.304   9.548  0.3002  0.1242  0.2729
 5871SOL    HW122424   9.318  10.212   9.525 -1.3252  0.3791 -0.0870
 5871SOL    HW222425   9.257  10.322   9.609 -0.7136  1.6655 -1.2845
 5872SOL     OW22426  10.631   9.008   1.255 -0.2859 -0.0868 -0.2047
 5872SOL    HW122427  10.545   9.037   1.223 -0.8825 -0.5918  0.9122
 5872SOL    HW222428  10.649   9.064   1.330  2.1438  2.6414 -2.5921
 5873SOL     OW22429  12.256   5.409   3.687  0.3501  0.0449 -0.2668
 5873SOL    HW122430  12.207   5.337   3.727  1.5844  1.2451  3.9589
 5873SOL    HW222431  12.345   5.375   3.676  0.3910  0.2079 -0.4516
 5874SOL     OW22432   9.743   7.520   2.743 -0.2937 -0.4208  0.1010
 5874SOL    HW122433   9.735   7.614   2.729  2.2297 -0.3001 -1.1442
 5874SOL    HW222434   9.669   7.482   2.697  0.1851  0.8612 -1.8365
 5875SOL     OW22435  10.866   6.712   1.256  0.4744  0.5664 -0.3875
 5875SOL    HW122436  10.926   6.697   1.182 -0.1066  3.0774 -1.4837
 5875SOL    HW222437  10.781   6.682   1.224  0.4992  0.2101 -0.1271
 5876SOL     OW22438   3.857   9.903   8.297 -0.3033 -0.1646 -0.2650
 5876SOL    HW122439   3.864   9.850   8.217  0.4144  1.7894 -1.5818
 5876SOL    HW222440   3.912   9.858   8.360 -1.6568 -2.2897 -0.5156
 5877SOL     OW22441   8.554  11.638   9.674  0.2129  0.0710  0.2204
 5877SOL    HW122442   8.513  11.723   9.689 -0.1556 -0.3218  1.5431
 5877SOL    HW222443   8.491  11.589   9.621  0.3064  0.5242 -0.3090
 5878SOL     OW22444   0.103   0.952   1.954 -0.5001 -0.6422  0.2133
 5878SOL    HW122445   0.194   0.980   1.966 -1.1492  1.0352  1.6073
 5878SOL    HW222446   0.087   0.962   1.860  0.7359 -1.0097 -0.0649
 5879SOL     OW22447   9.511   1.630   9.309 -0.0697  0.3477  0.1792
 5879SOL    HW122448   9.473   1.618   9.223 -0.1366  2.6571 -0.1948
 5879SOL    HW222449   9.510   1.543   9.349 -0.7292 -0.6313 -1.8390
 5880SOL     OW22450   2.460   1.274   1.841  0.0119 -0.1086 -0.8525
 5880SOL    HW122451   2.421   1.356   1.812  2.1867  1.3042 -0.0514
 5880SOL    HW222452   2.553   1.294   1.852  0.5819 -2.6305 -0.3948
 5881SOL     OW22453  12.503  11.306   7.000  0.8115 -0.6412 -0.1414
 5881SOL    HW122454  12.411  11.325   7.017  0.5939 -1.7849  0.0624
 5881SOL    HW222455  12.525  11.359   6.924  0.7362  1.6814  1.3637
 5882SOL     OW22456   5.865   4.940   7.027  0.2587 -0.6480  0.1786
 5882SOL    HW122457   5.959   4.961   7.030 -0.4311  3.0279  1.0547
 5882SOL    HW222458   5.850   4.915   6.936  1.9309 -0.3318 -0.2284
 5883SOL     OW22459   8.244   2.329   9.127 -0.5215 -0.1234 -0.2354
 5883SOL    HW122460   8.186   2.393   9.168 -0.9042  0.1466 -1.1801
 5883SOL    HW222461   8.202   2.244   9.141  0.4728 -0.3397  1.8945
 5884SOL     OW22462  11.213   3.431   1.567 -0.1474 -0.1675 -0.2839
 5884SOL    HW122463  11.236   3.367   1.635 -0.0446 -1.1111 -1.1844
 5884SOL    HW222464  11.296   3.468   1.538 -0.1425 -0.1931 -0.3021
 5885SOL     OW22465   4.366   7.078   2.369  0.4263  0.2216  0.1846
 5885SOL    HW122466   4.381   7.128   2.449  0.9309  0.9548 -0.3418
 5885SOL    HW222467   4.300   7.129   2.321  1.3131  0.6842 -0.5853
 5886SOL     OW22468  11.535   3.988   1.948  1.0291  0.1723  0.3634
 5886SOL    HW122469  11.569   4.070   1.912  0.0269 -0.0720 -1.2796
 5886SOL    HW222470  11.611   3.930   1.953  1.3671  0.5005 -0.6320
 5887SOL     OW22471  12.521   5.756   6.948  0.1764  0.2529  0.6073
 5887SOL    HW122472  12.563   5.832   6.909  0.1555  0.9732  1.9276
 5887SOL    HW222473  12.454   5.730   6.885  1.9013 -0.3156 -1.0890
 5888SOL     OW22474   6.078  10.494   5.344  0.0790  0.1334  0.0947
 5888SOL    HW122475   6.067  10.579   5.301  0.4882  0.4086  0.5247
 5888SOL    HW222476   6.043  10.431   5.282 -1.7986  0.7575  0.4746
 5889SOL     OW22477   0.062   5.838   3.385  0.2303  0.2651 -0.3997
 5889SOL    HW122478   0.096   5.832   3.474  1.1311 -2.7878 -0.8154
 5889SOL    HW222479  -0.033   5.839   3.396  0.3294  2.0624  0.6019
 5890SOL     OW22480  12.447  10.490   7.454 -0.0673 -0.6084 -0.5518
 5890SOL    HW122481  12.428  10.402   7.484 -0.5533 -0.4306 -0.3360
 5890SOL    HW222482  12.437  10.487   7.359 -1.7149 -0.3915 -0.4070
 5891SOL     OW22483   4.605   8.986  10.160 -0.2365  0.5130 -0.0605
 5891SOL    HW122484   4.616   9.059  10.099  0.0574  0.0653 -0.5547
 5891SOL    HW222485   4.670   8.921  10.132  0.2572  0.4996  1.0488
 5892SOL     OW22486  11.626  10.663  11.885  0.1928 -0.3260 -0.7445
 5892SOL    HW122487  11.589  10.632  11.968  0.0581  0.2586 -0.5798
 5892SOL    HW222488  11.558  10.720  11.848  1.4128  1.9284  0.2502
 5893SOL     OW22489   6.220   8.954  11.710 -0.6895  0.3045 -0.0856
 5893SOL    HW122490   6.210   9.036  11.759 -0.6535  0.1195  0.2326
 5893SOL    HW222491   6.153   8.896  11.747  0.3755 -0.3651  0.8508
 5894SOL     OW22492  10.942   8.914   6.590 -0.1368 -0.4288 -0.0247
 5894SOL    HW122493  10.869   8.855   6.608 -0.8188  0.4604  0.2073
 5894SOL    HW222494  11.021   8.863   6.610 -0.7470 -0.4985  2.4934
 5895SOL     OW22495   4.724  11.669   1.651  0.3384 -0.4099  0.2476
 5895SOL    HW122496   4.672  11.705   1.579 -0.0677 -2.4993 -0.5733
 5895SOL    HW222497   4.814  11.692   1.629  0.0039  1.2623  0.4926
 5896SOL     OW22498  10.893  12.341   7.339 -0.5166  0.2491 -0.1150
 5896SOL    HW122499  10.977  12.296   7.349 -0.9268 -0.3549  0.6468
 5896SOL    HW222500  10.864  12.319   7.251 -0.4799 -0.5884  0.0780
 5897SOL     OW22501   9.709   7.657  10.158 -0.2235  0.6487 -0.4068
 5897SOL    HW122502   9.713   7.562  10.144 -0.3939  0.3638  1.2312
 5897SOL    HW222503   9.729   7.695  10.072  0.8270 -0.8491 -0.8706
 5898SOL     OW22504   0.962   0.588  11.239 -0.0898  0.0778 -0.6689
 5898SOL    HW122505   1.029   0.520  11.242 -0.5690 -0.4439 -1.5890
 5898SOL    HW222506   1.009   0.668  11.265  0.5801 -0.5065 -0.0443
 5899SOL     OW22507   4.060   9.665   5.158  0.3774  0.4285 -0.1666
 5899SOL    HW122508   4.147   9.703   5.147  0.2256  1.1493  0.9853
 5899SOL    HW222509   4.052   9.601   5.087  1.9481  0.1486 -0.1204
 5900SOL     OW22510   9.044   5.994   8.109 -0.7769 -0.0987  0.2975
 5900SOL    HW122511   9.022   5.916   8.160 -3.0872  0.3547  0.1041
 5900SOL    HW222512   9.106   6.042   8.164 -0.7022 -1.1995  1.2075
 5901SOL     OW22513   5.336   8.936   1.566  0.4261  0.0028  0.2820
 5901SOL    HW122514   5.389   8.857   1.563  0.5224  0.0480  0.7291
 5901SOL    HW222515   5.253   8.911   1.525 -1.7207 -2.0013  5.1252
 5902SOL     OW22516   3.957   0.270  10.948  0.1589  0.4383  0.0058
 5902SOL    HW122517   4.001   0.286  11.031  1.6184 -1.6022 -0.2862
 5902SOL    HW222518   3.985   0.342  10.891  1.3036  0.4241  0.5257
 5903SOL     OW22519   0.379  11.697   0.619  0.9404 -0.0560  0.3178
 5903SOL    HW122520   0.336  11.701   0.533  2.7332 -1.7599 -0.7375
 5903SOL    HW222521   0.462  11.743   0.607  1.6242 -1.1046  0.8405
 5904SOL     OW22522   8.118   0.794   5.858  0.0292  0.8729 -0.3621
 5904SOL    HW122523   8.161   0.779   5.943 -1.3767 -0.9144  0.0983
 5904SOL    HW222524   8.026   0.775   5.875 -0.1480 -0.5111 -2.4997
 5905SOL     OW22525   8.550   4.223  12.231  0.7422 -0.5910 -0.0457
 5905SOL    HW122526   8.594   4.250  12.150  3.5407  0.5812  1.7164
 5905SOL    HW222527   8.605   4.153  12.266  0.1564 -0.3929  1.3386
 5906SOL     OW22528   1.411   8.453  10.297  0.0554 -0.9110 -0.8389
 5906SOL    HW122529   1.467   8.392  10.344  0.7039  0.4860  0.2561
 5906SOL    HW222530   1.330   8.457  10.349  0.3463 -0.2023 -0.4308
 5907SOL     OW22531   4.343   3.300   4.411 -0.3368  0.0474  0.2181
 5907SOL    HW122532   4.277   3.313   4.478  0.6106 -0.2991  1.2502
 5907SOL    HW222533   4.414   3.359   4.435 -0.3593  0.6297 -1.0288
 5908SOL     OW22534   9.423  11.236   0.783 -0.0084  0.0711  0.1547
 5908SOL    HW122535   9.472  11.301   0.733  0.7679 -0.6930 -0.1254
 5908SOL    HW222536   9.356  11.285   0.830  0.6053  1.0663  0.0033
 5909SOL     OW22537   2.105   8.563   4.714  0.4726  0.1134 -0.4101
 5909SOL    HW122538   2.172   8.518   4.663  0.4434 -0.2896 -0.0915
 5909SOL    HW222539   2.025   8.555   4.662 -0.0023 -1.9108  0.5241
 5910SOL     OW22540   6.920   0.958  11.468 -0.0394 -0.1382 -0.5537
 5910SOL    HW122541   6.868   1.038  11.463  0.7972  0.7452  2.6322
 5910SOL    HW222542   6.865   0.896  11.515  0.3192 -0.5418 -0.6604
 5911SOL     OW22543  11.166  10.749   1.221 -0.1284 -0.5766 -0.1150
 5911SOL    HW122544  11.203  10.777   1.137  0.2923  1.2041  0.5993
 5911SOL    HW222545  11.242  10.729   1.275 -0.0211  2.8244  1.2725
 5912SOL     OW22546   3.226   2.687   3.436  0.0658  0.1416  0.3178
 5912SOL    HW122547   3.270   2.756   3.386  1.3810 -0.0987  1.0739
 5912SOL    HW222548   3.225   2.721   3.526  0.5914 -0.7375  0.6690
 5913SOL     OW22549   0.648   8.677   3.723 -0.0324  0.4515  0.4588
 5913SOL    HW122550   0.659   8.748   3.660 -1.3170 -0.1462 -0.4736
 5913SOL    HW222551   0.721   8.618   3.706  0.0705  0.6883  0.0769
 5914SOL     OW22552   4.147   4.262   9.786  0.2357  0.2008 -0.1401
 5914SOL    HW122553   4.074   4.234   9.841  0.6683  0.9248  0.8254
 5914SOL    HW222554   4.110   4.269   9.698 -0.8690  0.5999  0.3411
 5915SOL     OW22555   6.302  10.948  11.488 -0.1357 -0.0081 -0.1365
 5915SOL    HW122556   6.361  10.907  11.425 -0.3605 -0.6104  0.0423
 5915SOL    HW222557   6.215  10.919  11.462 -0.0592 -2.3797  1.9616
 5916SOL     OW22558   3.481   8.850   4.511  0.1046  0.2914 -0.0207
 5916SOL    HW122559   3.572   8.876   4.522 -0.1629  0.9934  0.5185
 5916SOL    HW222560   3.432   8.931   4.512 -0.8016 -0.2177  2.2730
 5917SOL     OW22561   3.192   5.468   3.672 -0.0770 -0.4767 -0.1476
 5917SOL    HW122562   3.283   5.486   3.648  0.1736 -1.5970 -0.0697
 5917SOL    HW222563   3.198   5.405   3.743 -0.9235 -0.5862 -0.1665
 5918SOL     OW22564   4.310   2.559   8.476  0.1402 -0.1189 -0.0128
 5918SOL    HW122565   4.397   2.520   8.480 -0.3478 -1.2466 -0.0571
 5918SOL    HW222566   4.252   2.486   8.457 -0.7570  0.7135 -0.5397
 5919SOL     OW22567   6.948   9.596   9.518  0.3454  0.0486 -0.2215
 5919SOL    HW122568   6.884   9.585   9.448  0.2746 -1.3832  0.0334
 5919SOL    HW222569   6.912   9.666   9.572 -0.4207  0.0539 -0.7189
 5920SOL     OW22570   0.128   8.009   7.440  0.9911  0.8674 -0.2952
 5920SOL    HW122571   0.130   7.969   7.353  1.6620 -0.1500  0.1667
 5920SOL    HW222572   0.131   7.935   7.500  1.7852  1.5954  0.5979
 5921SOL     OW22573   3.566   2.119   7.930  0.6936 -1.1897 -0.0070
 5921SOL    HW122574   3.486   2.075   7.959 -0.2789  0.3153 -0.2972
 5921SOL    HW222575   3.605   2.154   8.009  0.4785 -0.9841  0.0081
 5922SOL     OW22576  12.447   2.160   3.225  0.0527  0.3357  0.4471
 5922SOL    HW122577  12.452   2.212   3.146 -0.2771  0.7854  0.7187
 5922SOL    HW222578  12.459   2.070   3.195  0.9923  0.5842  0.0177
 5923SOL     OW22579   4.257   3.137  10.989  0.0034  0.3727  0.3340
 5923SOL    HW122580   4.226   3.089  11.066 -0.0314 -1.6731 -0.9046
 5923SOL    HW222581   4.247   3.229  11.014 -1.9178 -0.2011  2.0072
 5924SOL     OW22582   3.821   8.924   5.831 -0.3247  0.5712 -0.0721
 5924SOL    HW122583   3.787   8.858   5.891  0.9303  1.4559  1.7081
 5924SOL    HW222584   3.766   9.001   5.845 -1.3317  0.1723 -1.6179
 5925SOL     OW22585   6.105   4.439   4.966 -0.1074  0.1366  0.0089
 5925SOL    HW122586   6.187   4.415   4.922 -0.1311  0.3286 -0.1393
 5925SOL    HW222587   6.063   4.355   4.984  0.4570 -0.0038  0.7443
 5926SOL     OW22588   6.747   1.374   6.237  0.6969  0.6736  0.5798
 5926SOL    HW122589   6.818   1.389   6.174  0.7640  0.3403  0.5738
 5926SOL    HW222590   6.679   1.330   6.185  0.6880  0.5424  0.7039
 5927SOL     OW22591   8.728   7.461   6.351 -0.1317 -0.0269  0.3541
 5927SOL    HW122592   8.706   7.470   6.443  0.0383  0.8543  0.3207
 5927SOL    HW222593   8.729   7.551   6.318  0.4090 -0.2854 -0.3615
 5928SOL     OW22594   4.792   4.267   8.661 -0.4736  0.0797  0.4690
 5928SOL    HW122595   4.860   4.224   8.608  0.1063 -0.8473  1.8889
 5928SOL    HW222596   4.712   4.217   8.643 -0.7986  1.1281 -1.1524
 5929SOL     OW22597   7.428  10.781   5.398 -0.1673  0.0994  0.4052
 5929SOL    HW122598   7.354  10.841   5.384 -1.0686 -0.8256  1.1213
 5929SOL    HW222599   7.480  10.823   5.466 -2.2880 -1.1889  2.9859
 5930SOL     OW22600   1.252   8.644   7.761 -0.6784 -0.5066 -0.2689
 5930SOL    HW122601   1.329   8.674   7.809 -1.9239  0.3278  1.3312
 5930SOL    HW222602   1.183   8.705   7.788 -1.7416 -0.7842 -2.2056
 5931SOL     OW22603   8.503   2.883   4.655  0.8629  0.0018 -0.0468
 5931SOL    HW122604   8.455   2.872   4.737  1.4910 -0.4744  0.2644
 5931SOL    HW222605   8.477   2.809   4.601 -0.5452  0.9982 -0.7996
 5932SOL     OW22606   0.944   3.460   1.654 -0.0424 -0.4525  0.3461
 5932SOL    HW122607   0.864   3.512   1.650 -0.5125 -1.1754  0.1178
 5932SOL    HW222608   0.926   3.393   1.720  0.1576 -0.9685 -0.1143
 5933SOL     OW22609   2.663   3.403   9.037  0.1946  0.2197 -0.3026
 5933SOL    HW122610   2.655   3.496   9.015 -0.2208 -0.3486 -2.7433
 5933SOL    HW222611   2.630   3.357   8.961  0.9838 -1.9743  0.6115
 5934SOL     OW22612   9.317  11.661   8.325  0.1856 -0.3520  0.5070
 5934SOL    HW122613   9.382  11.592   8.341  0.7814 -0.0641 -0.5831
 5934SOL    HW222614   9.349  11.736   8.375  1.9582  0.5006 -1.7614
 5935SOL     OW22615   7.492   4.497   0.041  0.5208 -0.9223 -0.4705
 5935SOL    HW122616   7.453   4.517  -0.044 -1.4495  1.2913  0.8308
 5935SOL    HW222617   7.451   4.414   0.067 -1.7215  0.1850 -0.1785
 5936SOL     OW22618  12.267   8.226  10.472 -0.0077  0.1651 -0.4427
 5936SOL    HW122619  12.244   8.299  10.414  0.5204  0.7648  0.0820
 5936SOL    HW222620  12.348   8.191  10.435 -0.6691 -0.6745 -1.1458
 5937SOL     OW22621   2.085   0.838   2.504  0.1404  0.8860  0.6010
 5937SOL    HW122622   2.121   0.892   2.574 -0.3951  1.1527  0.6750
 5937SOL    HW222623   2.020   0.783   2.547 -1.6740  2.4764  0.0057
 5938SOL     OW22624   1.483   2.784   9.817 -0.0613 -0.3619  0.4094
 5938SOL    HW122625   1.522   2.736   9.744  0.8342 -0.4224  0.9207
 5938SOL    HW222626   1.507   2.735   9.895  0.7509  0.8092  0.9318
 5939SOL     OW22627   1.158   7.785   0.025  0.1094  0.0259 -0.3416
 5939SOL    HW122628   1.182   7.777   0.118 -1.7077  1.7404  0.3489
 5939SOL    HW222629   1.120   7.700   0.003 -1.4161  0.2387  1.1834
 5940SOL     OW22630  10.631   8.720  12.165  0.3985  0.3293  0.3132
 5940SOL    HW122631  10.647   8.758  12.252 -0.7198  0.5756  0.4224
 5940SOL    HW222632  10.694   8.648  12.159  1.1296  0.8917  0.9449
 5941SOL     OW22633   3.857  12.294   5.558 -0.8100  0.4106  0.1498
 5941SOL    HW122634   3.851  12.241   5.637 -1.5780 -0.5429 -0.5150
 5941SOL    HW222635   3.776  12.345   5.557 -1.2858 -0.3155 -0.4920
 5942SOL     OW22636   8.616   4.976   3.565 -0.4309  0.4267  0.5688
 5942SOL    HW122637   8.657   4.947   3.646 -1.6337  0.0829  1.0786
 5942SOL    HW222638   8.547   5.035   3.592 -0.6154  0.5944 -0.2318
 5943SOL     OW22639   4.345  11.910   9.298  0.4941 -0.7434 -0.7406
 5943SOL    HW122640   4.305  11.856   9.229 -1.4546 -0.1895 -0.0964
 5943SOL    HW222641   4.296  11.992   9.297  1.4379 -0.1240  0.3173
 5944SOL     OW22642   6.914   0.060   3.589  0.3301  0.0535 -0.2335
 5944SOL    HW122643   6.912  -0.025   3.632  0.0526 -0.2509 -0.8332
 5944SOL    HW222644   6.961   0.117   3.649  0.1966 -0.4347  0.3370
 5945SOL     OW22645  10.345   3.790  11.081 -0.4035 -0.1226  0.2164
 5945SOL    HW122646  10.309   3.837  11.006 -1.3325 -1.8031 -0.4732
 5945SOL    HW222647  10.422   3.839  11.107 -0.6768  1.0917 -1.1711
 5946SOL     OW22648  11.602  11.536   9.941  0.4709 -0.2892 -0.9743
 5946SOL    HW122649  11.681  11.518   9.991  0.2788 -0.3186 -0.6837
 5946SOL    HW222650  11.626  11.514   9.850  0.6363 -0.7883 -0.8137
 5947SOL     OW22651   9.653  10.611  11.514  0.0774 -0.1669 -0.1767
 5947SOL    HW122652   9.727  10.592  11.572 -1.4181 -0.8695  1.5693
 5947SOL    HW222653   9.605  10.529  11.508 -2.0039  0.9139  0.8698
 5948SOL     OW22654  11.969  10.203  10.844  0.0218  0.5654  0.5868
 5948SOL    HW122655  12.062  10.189  10.825 -0.1018 -0.2366  0.5394
 5948SOL    HW222656  11.968  10.278  10.903  0.6820  0.7310  0.3962
 5949SOL     OW22657   7.932   6.448   4.159  0.3406  0.0215  0.1497
 5949SOL    HW122658   7.987   6.426   4.084  0.1715  1.8578 -0.5429
 5949SOL    HW222659   7.857   6.494   4.122 -0.7150 -0.7393  1.2748
 5950SOL     OW22660   9.897   1.870   0.678 -0.1690  0.7651 -0.0824
 5950SOL    HW122661   9.977   1.921   0.689 -0.1119  0.8800 -0.9551
 5950SOL    HW222662   9.835   1.932   0.640  0.6689 -0.3834 -3.7096
 5951SOL     OW22663   5.084   3.823   5.360  0.4512 -0.2421 -0.2693
 5951SOL    HW122664   5.096   3.732   5.389  1.3277 -0.3818 -1.0191
 5951SOL    HW222665   5.135   3.874   5.423 -1.0799 -0.1072  0.9370
 5952SOL     OW22666  11.323   5.207   2.733  0.0804  0.1697 -0.1494
 5952SOL    HW122667  11.252   5.174   2.678  0.0956 -1.7388  0.8989
 5952SOL    HW222668  11.278   5.255   2.802 -0.0337  1.0023 -0.7824
 5953SOL     OW22669   7.062  11.787  11.299 -0.3242 -0.2124  0.1440
 5953SOL    HW122670   7.023  11.700  11.285 -2.3694  0.5922  0.5296
 5953SOL    HW222671   7.115  11.776  11.378  1.9267 -1.8204 -1.4579
 5954SOL     OW22672   0.609   2.052   1.937 -0.1905 -0.5886 -0.1679
 5954SOL    HW122673   0.692   2.004   1.931  1.2569  1.7557 -0.3932
 5954SOL    HW222674   0.609   2.088   2.026  0.4257  1.6140 -0.9825
 5955SOL     OW22675   9.862   9.572   1.430 -0.1884  0.1525 -0.3223
 5955SOL    HW122676   9.796   9.621   1.380 -0.3911  1.1360  0.8539
 5955SOL    HW222677   9.847   9.481   1.407 -1.8434  0.3712 -0.2391
 5956SOL     OW22678   7.425  12.339   6.780  0.6915  0.1225  0.0276
 5956SOL    HW122679   7.403  12.398   6.852 -0.6808 -0.0616 -0.2152
 5956SOL    HW222680   7.437  12.397   6.705 -2.5946  0.0596 -0.6802
 5957SOL     OW22681   0.463   0.575   6.360  0.0365 -0.1687  0.6627
 5957SOL    HW122682   0.452   0.572   6.265  0.2697 -1.1292  0.6593
 5957SOL    HW222683   0.539   0.631   6.374 -1.2726  1.8100  0.4154
 5958SOL     OW22684  12.383   1.562   3.535  0.4349  0.6088  0.2185
 5958SOL    HW122685  12.430   1.484   3.564  0.2815  0.9507  1.4305
 5958SOL    HW222686  12.293   1.532   3.523  0.7835  0.1173 -1.4319
 5959SOL     OW22687   1.646   5.303   3.063  0.1367  0.0414 -0.2319
 5959SOL    HW122688   1.629   5.284   3.155 -2.1458 -0.4490 -0.6930
 5959SOL    HW222689   1.741   5.318   3.058  0.1215  1.4390  2.4111
 5960SOL     OW22690   3.551  12.459   4.777 -0.1965 -0.0832 -0.3017
 5960SOL    HW122691   3.479  12.495   4.726  0.2416 -0.4321 -1.1926
 5960SOL    HW222692   3.627  12.513   4.755 -0.0719 -0.0312  0.2370
 5961SOL     OW22693   5.377   5.759   4.388  0.5446  0.5585  0.3638
 5961SOL    HW122694   5.338   5.841   4.417  0.9301  0.8886 -0.0467
 5961SOL    HW222695   5.337   5.692   4.444  0.9361  1.1300  1.3614
 5962SOL     OW22696  10.113   9.455   4.562 -0.2107  0.3612  0.0885
 5962SOL    HW122697  10.116   9.512   4.639  0.4351  1.0796 -0.4555
 5962SOL    HW222698  10.184   9.392   4.577 -1.0860 -0.4891  0.8107
 5963SOL     OW22699   1.542   6.598  10.112  0.2374 -0.6007  0.2160
 5963SOL    HW122700   1.557   6.610  10.205  1.9449 -0.0251 -0.0933
 5963SOL    HW222701   1.600   6.662  10.070 -0.5491 -0.7929 -1.2428
 5964SOL     OW22702   8.244   1.844   2.274  0.3916  0.0275  0.1297
 5964SOL    HW122703   8.313   1.838   2.340  1.2318  1.3431 -0.5915
 5964SOL    HW222704   8.263   1.925   2.227 -1.7146  0.5014 -0.0137
 5965SOL     OW22705   4.725   0.497   3.675 -0.6214 -0.0114 -0.0928
 5965SOL    HW122706   4.758   0.586   3.685  0.6856 -0.7056  2.8674
 5965SOL    HW222707   4.668   0.485   3.751  3.1709 -3.1902  2.6574
 5966SOL     OW22708   4.884  12.362   9.018 -0.2986  0.0188 -0.3263
 5966SOL    HW122709   4.919  12.435   9.070  0.4001  0.7793 -1.8086
 5966SOL    HW222710   4.961  12.320   8.981 -0.7879 -0.5037 -0.7655
 5967SOL     OW22711   9.491   8.363  12.232  0.2422  0.3423  0.2310
 5967SOL    HW122712   9.560   8.338  12.171 -0.8756 -0.6868 -0.6506
 5967SOL    HW222713   9.470   8.453  12.208  0.6299  0.3454 -0.1081
 5968SOL     OW22714   2.241   0.986   5.445  0.0548  0.2752  0.1266
 5968SOL    HW122715   2.175   1.015   5.382 -0.2354  0.5668  0.5570
 5968SOL    HW222716   2.195   0.925   5.502 -0.4904  2.1355  1.8087
 5969SOL     OW22717   6.608  10.285   1.581  0.3339 -0.7059  0.1302
 5969SOL    HW122718   6.529  10.241   1.550 -0.2813 -0.6754  1.5467
 5969SOL    HW222719   6.668  10.214   1.604 -0.0046 -0.7885  0.7951
 5970SOL     OW22720   0.203   8.540   6.345  0.1172 -1.0428 -0.1480
 5970SOL    HW122721   0.139   8.543   6.274  1.4749 -0.6688 -1.3981
 5970SOL    HW222722   0.162   8.588   6.417 -1.2731 -1.4066 -0.6660
 5971SOL     OW22723   5.006   5.054   3.428 -0.3831 -0.1422 -0.0112
 5971SOL    HW122724   5.079   5.031   3.372  2.0272  0.6191  2.6106
 5971SOL    HW222725   4.943   4.983   3.417  0.4316 -0.5514 -2.7418
 5972SOL     OW22726   9.625   6.554   4.807  0.5125 -0.3701  0.1731
 5972SOL    HW122727   9.580   6.499   4.871  1.1900  0.6884  1.6058
 5972SOL    HW222728   9.592   6.524   4.722 -0.7017 -1.5486  1.0271
 5973SOL     OW22729   2.925  11.975   9.348  0.0093  0.1825  0.1698
 5973SOL    HW122730   3.008  11.953   9.306  0.2277 -0.0804  0.7323
 5973SOL    HW222731   2.929  12.071   9.358  0.1527  0.1952  0.0143
 5974SOL     OW22732   7.187  11.037  11.070 -0.1724  0.4918 -0.1738
 5974SOL    HW122733   7.101  11.066  11.038 -1.6388 -0.8143  2.2947
 5974SOL    HW222734   7.216  10.972  11.007 -1.5006  0.1977 -0.4991
 5975SOL     OW22735   0.554   8.770   6.793  0.4369  0.1705 -0.1813
 5975SOL    HW122736   0.629   8.740   6.844  0.8112  0.3965 -0.5939
 5975SOL    HW222737   0.478   8.738   6.842  0.7332  1.4863  1.2243
 5976SOL     OW22738   2.640   3.247   1.859 -0.3896 -0.3703 -0.5398
 5976SOL    HW122739   2.601   3.193   1.789  0.6166 -0.6652 -0.8997
 5976SOL    HW222740   2.566   3.271   1.915 -0.8939 -2.1074 -0.3816
 5977SOL     OW22741   5.329   1.748   0.244 -0.0952 -0.5349 -0.0541
 5977SOL    HW122742   5.346   1.763   0.337 -0.1612  1.0142 -0.2632
 5977SOL    HW222743   5.399   1.689   0.215 -1.2120 -2.7354  1.3916
 5978SOL     OW22744   9.954   1.778   5.025  0.4249  0.0539 -0.3193
 5978SOL    HW122745   9.982   1.799   5.114  0.6633  0.3382 -0.4606
 5978SOL    HW222746   9.976   1.685   5.015 -1.3326 -0.4923  0.5659
 5979SOL     OW22747   4.770  12.642   1.136 -0.2700  0.6173  0.0541
 5979SOL    HW122748   4.849  12.628   1.188  1.1412  1.1425 -1.8484
 5979SOL    HW222749   4.743  12.731   1.155 -0.1825  0.5716  0.3980
 5980SOL     OW22750   9.105   9.826   2.926  0.1851 -0.8521  0.3418
 5980SOL    HW122751   9.078   9.735   2.919  0.4059 -0.8494 -0.8620
 5980SOL    HW222752   9.030   9.876   2.893  0.6475 -0.7007 -0.5162
 5981SOL     OW22753  10.176  12.562  11.725  0.0156 -0.1684 -0.3614
 5981SOL    HW122754  10.206  12.577  11.815 -0.3173  1.3832 -0.4713
 5981SOL    HW222755  10.253  12.526  11.680  0.8490  0.9700  0.0805
 5982SOL     OW22756   2.500   0.380   1.150  0.0113 -0.3911 -0.2041
 5982SOL    HW122757   2.460   0.466   1.166 -3.4451 -1.0523 -3.7087
 5982SOL    HW222758   2.438   0.317   1.187  2.2316 -1.5656  1.8240
 5983SOL     OW22759   4.800  11.661   7.579  0.0188  0.2208  0.0600
 5983SOL    HW122760   4.821  11.753   7.594  0.5781  0.0573  0.3148
 5983SOL    HW222761   4.762  11.659   7.492  2.2442  0.3806 -0.9902
 5984SOL     OW22762  11.184   3.724   3.958 -0.1219 -0.2125  0.7991
 5984SOL    HW122763  11.243   3.757   4.026 -0.9006  0.8587  0.9824
 5984SOL    HW222764  11.232   3.738   3.876 -0.0589  0.5468  0.9576
 5985SOL     OW22765   2.084  12.113   8.313  0.2072 -0.3786  0.0037
 5985SOL    HW122766   2.148  12.103   8.384  0.9390  0.8598 -0.4348
 5985SOL    HW222767   2.023  12.180   8.345  1.6256  1.6100 -1.1911
 5986SOL     OW22768   0.123  11.344   1.143  0.1495  0.2846 -0.1184
 5986SOL    HW122769   0.178  11.379   1.213 -0.3457  0.6130  0.1164
 5986SOL    HW222770   0.039  11.390   1.154 -0.0990 -0.0492 -0.6000
 5987SOL     OW22771   6.303  12.241   8.011 -0.0874  0.1005  0.5151
 5987SOL    HW122772   6.334  12.273   8.096 -0.3672 -0.8992  1.0063
 5987SOL    HW222773   6.383  12.227   7.961  0.0387  1.7237  0.2137
 5988SOL     OW22774   1.945  11.213   7.873  0.3223 -0.1402 -0.4362
 5988SOL    HW122775   1.977  11.288   7.824  0.4789 -1.3875 -2.3379
 5988SOL    HW222776   1.850  11.214   7.861  0.4384 -0.9657 -1.6231
 5989SOL     OW22777   0.979   2.236   2.025  0.8379  0.0630  0.4896
 5989SOL    HW122778   1.064   2.209   2.061  0.7989  1.1525  1.4826
 5989SOL    HW222779   0.924   2.158   2.032  1.5318 -0.4288  0.5680
 5990SOL     OW22780   8.679   0.813   7.103  0.3613  0.1761  0.3133
 5990SOL    HW122781   8.671   0.820   7.198 -1.2066 -0.0701  0.2230
 5990SOL    HW222782   8.624   0.738   7.080  0.9015  0.0940 -0.7736
 5991SOL     OW22783  10.527   0.568   9.082  0.4324  0.1439 -0.1800
 5991SOL    HW122784  10.510   0.659   9.056  2.0391  0.1047 -1.5617
 5991SOL    HW222785  10.501   0.516   9.006 -1.6774 -0.7323  1.0584
 5992SOL     OW22786  11.178   2.253   2.507 -0.4483  0.1209 -0.4100
 5992SOL    HW122787  11.111   2.211   2.453  0.0692 -0.6593 -0.4746
 5992SOL    HW222788  11.211   2.325   2.452 -0.1491 -0.4704 -1.0227
 5993SOL     OW22789   3.165  10.247   1.397 -0.0485  0.7023  0.6401
 5993SOL    HW122790   3.180  10.203   1.313 -3.1939 -0.9126  0.7668
 5993SOL    HW222791   3.101  10.316   1.377  0.7163  1.6517  1.3907
 5994SOL     OW22792   5.732   4.770   3.564  0.2393  0.3742  0.2347
 5994SOL    HW122793   5.763   4.818   3.488 -0.2580 -0.4596 -0.5154
 5994SOL    HW222794   5.773   4.814   3.639  1.8380  0.3651 -0.5963
 5995SOL     OW22795   9.205   6.661   2.847 -0.2622  1.1255 -0.1694
 5995SOL    HW122796   9.211   6.568   2.823  0.0329  0.9212  0.6773
 5995SOL    HW222797   9.186   6.705   2.764 -1.0197  0.2522 -0.4774
 5996SOL     OW22798  11.128   8.141   2.969  0.3937  0.1864  0.1236
 5996SOL    HW122799  11.090   8.106   3.050 -2.2029  1.3889 -0.4920
 5996SOL    HW222800  11.089   8.089   2.899  0.0313  1.2937 -0.5231
 5997SOL     OW22801   3.026   5.567   7.971  0.3254 -0.9812 -0.3180
 5997SOL    HW122802   2.957   5.634   7.971  0.4801 -0.8125 -0.7955
 5997SOL    HW222803   3.004   5.510   8.044  1.3329  0.7435  1.4332
 5998SOL     OW22804   8.049   3.029   6.202 -0.3348  0.2928  0.4554
 5998SOL    HW122805   8.046   2.934   6.209  1.0634  0.0055 -1.6897
 5998SOL    HW222806   8.072   3.059   6.290  2.0438 -1.6025  0.5913
 5999SOL     OW22807   7.073  12.420   0.451  0.2452  0.0549 -0.3191
 5999SOL    HW122808   7.096  12.512   0.437  2.8569 -0.7133 -1.8583
 5999SOL    HW222809   6.977  12.418   0.445  0.1638  2.5299 -1.1506
 6000SOL     OW22810   4.679   7.137   5.405  0.3393  0.6832  0.2257
 6000SOL    HW122811   4.624   7.182   5.341  0.5085 -0.7377 -0.9779
 6000SOL    HW222812   4.756   7.111   5.356 -0.2399 -1.8911  0.5352
 6001SOL     OW22813  11.887   7.459   0.554  0.2932 -0.1278 -0.3263
 6001SOL    HW122814  11.878   7.395   0.625 -1.6265 -0.3913 -0.7678
 6001SOL    HW222815  11.933   7.533   0.594  0.7525 -0.9452  0.7193
 6002SOL     OW22816   6.068   1.659   0.228 -0.2362  0.4136  0.0423
 6002SOL    HW122817   6.067   1.564   0.217 -0.9713  0.1797  1.7064
 6002SOL    HW222818   6.160   1.682   0.240 -0.1566 -0.2607  0.7780
 6003SOL     OW22819   7.093   9.930   1.192  0.2750  0.0353  0.1762
 6003SOL    HW122820   7.008   9.925   1.149  0.7047  1.2949 -0.8981
 6003SOL    HW222821   7.134   9.845   1.173 -0.8903 -0.7751  1.1162
 6004SOL     OW22822   7.124   9.172   9.172 -0.0222  0.9021 -0.2223
 6004SOL    HW122823   7.050   9.189   9.231 -0.3294 -1.5007  0.1501
 6004SOL    HW222824   7.200   9.209   9.217 -0.5492  0.8287  0.7366
 6005SOL     OW22825   6.240   7.149   9.771  0.0850  0.0427 -0.7465
 6005SOL    HW122826   6.162   7.100   9.747 -0.3020  0.7708 -1.0190
 6005SOL    HW222827   6.313   7.089   9.752 -0.3487 -0.2597 -1.5210
 6006SOL     OW22828   4.549   8.149   1.523 -0.1609  0.1579  0.0211
 6006SOL    HW122829   4.625   8.188   1.565 -1.7859  1.2816  2.1175
 6006SOL    HW222830   4.499   8.223   1.489  0.8111 -0.6746 -3.7022
 6007SOL     OW22831   9.858  11.167   3.811  0.2788 -0.2967  0.1629
 6007SOL    HW122832   9.948  11.135   3.805  0.8703  1.3891 -0.7070
 6007SOL    HW222833   9.865  11.262   3.796 -1.6840 -0.1740 -0.2620
 6008SOL     OW22834  12.372   4.944   9.381  0.1806  0.3096 -0.3304
 6008SOL    HW122835  12.390   4.856   9.347 -1.3119  0.7826 -2.5262
 6008SOL    HW222836  12.455   4.991   9.373  0.3999 -0.2328 -1.3401
 6009SOL     OW22837  10.600   4.890   5.096 -0.3934 -0.1671  0.4834
 6009SOL    HW122838  10.693   4.869   5.090 -0.5394 -0.9259  0.8458
 6009SOL    HW222839  10.593   4.977   5.055  0.2859 -0.5868 -0.5708
 6010SOL     OW22840   4.680   6.149   5.776  0.3823  0.4556 -0.5072
 6010SOL    HW122841   4.598   6.109   5.807  0.4704  0.0832 -0.7553
 6010SOL    HW222842   4.736   6.152   5.853 -0.2657  1.7730 -0.0452
 6011SOL     OW22843  12.063   1.558   3.020  0.3048 -0.3915 -0.1322
 6011SOL    HW122844  12.081   1.484   3.077  2.1346 -1.0189 -1.4101
 6011SOL    HW222845  12.039   1.519   2.936 -0.1377  0.4782 -0.4311
 6012SOL     OW22846   2.413   5.902   8.153 -0.0680  0.4146  0.2441
 6012SOL    HW122847   2.374   5.944   8.230  0.1733  3.6917 -1.2318
 6012SOL    HW222848   2.506   5.924   8.159  0.1980 -0.5506 -0.2442
 6013SOL     OW22849   9.883   5.679   8.924  0.0686  0.0933  0.2731
 6013SOL    HW122850   9.841   5.706   9.006 -0.3044  1.0156 -0.2076
 6013SOL    HW222851   9.871   5.754   8.865 -1.7308 -1.3890 -1.3948
 6014SOL     OW22852   2.437   7.535   8.421 -0.0967 -0.0291 -0.1553
 6014SOL    HW122853   2.401   7.495   8.342 -0.2928 -0.9641  0.3943
 6014SOL    HW222854   2.509   7.477   8.447  1.3207  1.3753 -0.7762
 6015SOL     OW22855   3.444   7.124  12.053 -0.4318 -0.0174  0.0864
 6015SOL    HW122856   3.485   7.122  11.966 -0.8007  3.0147 -0.2838
 6015SOL    HW222857   3.354   7.095  12.037 -0.4808  0.4558 -0.5415
 6016SOL     OW22858  11.973   4.683   3.814 -0.1364 -0.0747 -0.1019
 6016SOL    HW122859  12.058   4.665   3.774 -0.1518  0.7094 -0.5165
 6016SOL    HW222860  11.939   4.757   3.764 -0.4218  0.5633  1.0012
 6017SOL     OW22861   0.740   2.724   9.998 -0.5210 -0.0380  0.1647
 6017SOL    HW122862   0.672   2.786   9.973 -0.1898 -0.5537 -2.2464
 6017SOL    HW222863   0.696   2.638   9.994 -0.0624 -0.2621 -0.0845
 6018SOL     OW22864  12.369   6.181   9.336 -0.0112  0.5250  0.1495
 6018SOL    HW122865  12.281   6.209   9.362 -0.2156  1.5956 -1.5453
 6018SOL    HW222866  12.362   6.085   9.329 -1.2547  0.6503 -0.6147
 6019SOL     OW22867   3.303   5.023   3.103  0.1723 -0.4963 -0.0264
 6019SOL    HW122868   3.298   5.069   3.186 -0.5974 -1.0154  0.2244
 6019SOL    HW222869   3.328   5.091   3.040 -1.3901  0.3818  0.2517
 6020SOL     OW22870   0.018  10.257   6.987  0.2490 -0.5807  1.0934
 6020SOL    HW122871   0.034  10.274   6.894  1.4770 -0.6667  1.2697
 6020SOL    HW222872  -0.017  10.167   6.989 -0.8859 -0.1652  0.6369
 6021SOL     OW22873  11.951   4.024  10.837 -0.3674  0.1020  0.4332
 6021SOL    HW122874  12.006   3.977  10.773 -1.8464 -0.5854 -0.3736
 6021SOL    HW222875  12.013   4.081  10.883  0.9067 -0.0627 -0.9731
 6022SOL     OW22876  10.609  10.291   6.980 -0.4549  0.2271  0.4870
 6022SOL    HW122877  10.521  10.253   6.977  0.6606 -2.5042 -1.1212
 6022SOL    HW222878  10.596  10.384   6.965 -3.0095 -0.2221 -0.4886
 6023SOL     OW22879   6.959   4.568   6.436 -0.2632 -0.0215 -0.0152
 6023SOL    HW122880   7.048   4.563   6.470  0.2888  1.9912 -0.9695
 6023SOL    HW222881   6.938   4.662   6.437 -2.2160 -0.4042 -0.2245
 6024SOL     OW22882  11.351   0.654   1.950  0.0902 -0.2632 -0.8569
 6024SOL    HW122883  11.355   0.585   2.015  0.9479 -0.3062 -0.9447
 6024SOL    HW222884  11.322   0.732   1.998 -3.4377 -1.1838 -1.2145
 6025SOL     OW22885   3.495   0.010   5.414 -0.1188  0.0716  0.1318
 6025SOL    HW122886   3.539   0.084   5.373 -1.0844  0.6645  0.1299
 6025SOL    HW222887   3.402   0.029   5.403 -0.4075 -1.8883 -1.2043
 6026SOL     OW22888  10.383   9.311   3.702  0.4923  0.4935 -0.9571
 6026SOL    HW122889  10.318   9.254   3.659  1.1445 -1.6840  0.7459
 6026SOL    HW222890  10.334   9.389   3.726 -2.2741 -1.8651  2.1436
 6027SOL     OW22891   8.049   9.371  10.553  0.3545  0.5687 -0.2167
 6027SOL    HW122892   8.105   9.308  10.597 -0.2443  0.2029  0.0379
 6027SOL    HW222893   7.996   9.318  10.493 -0.5330  0.7540  0.3901
 6028SOL     OW22894   2.805  10.821   7.835 -0.1414 -0.1899 -0.2058
 6028SOL    HW122895   2.759  10.748   7.876  0.8614 -0.7491 -0.0472
 6028SOL    HW222896   2.887  10.828   7.883  0.0706  0.6079 -0.6677
 6029SOL     OW22897   5.060  12.471   9.375 -0.3003 -0.2235 -0.1500
 6029SOL    HW122898   5.047  12.377   9.364 -0.2446 -0.5408  2.0606
 6029SOL    HW222899   5.136  12.478   9.433 -1.7632  1.0459  1.7696
 6030SOL     OW22900   3.169  11.643   6.997 -0.3897  0.2614  0.5379
 6030SOL    HW122901   3.237  11.643   6.929 -0.7376  1.9513  0.1339
 6030SOL    HW222902   3.176  11.557   7.038 -0.8679 -1.2486 -2.3119
 6031SOL     OW22903  12.435   7.107  12.071  0.5615  0.1275 -0.3947
 6031SOL    HW122904  12.483   7.055  12.007  1.3871 -0.0434  0.3505
 6031SOL    HW222905  12.477   7.087  12.155 -0.3360  0.5441  0.1661
 6032SOL     OW22906   5.323  11.048  12.430  0.2198  0.2660  0.1171
 6032SOL    HW122907   5.411  11.086  12.431  0.4684 -0.2748 -0.6073
 6032SOL    HW222908   5.293  11.059  12.340 -0.1724 -0.1960  0.1881
 6033SOL     OW22909   4.905  11.130   6.352 -0.1783 -0.0893  0.0787
 6033SOL    HW122910   4.970  11.062   6.338 -0.7372 -0.5024 -0.5980
 6033SOL    HW222911   4.864  11.142   6.266  1.8228  3.1465 -0.6008
 6034SOL     OW22912  11.687  12.174   0.818  0.4716 -0.0145 -0.6901
 6034SOL    HW122913  11.751  12.155   0.750 -0.3082 -0.9278 -1.1925
 6034SOL    HW222914  11.604  12.143   0.782 -0.4027  1.8435 -0.3705
 6035SOL     OW22915   9.183  12.046   9.207  0.1826  0.2368  0.1362
 6035SOL    HW122916   9.135  12.018   9.285  2.2910 -2.6313  0.5697
 6035SOL    HW222917   9.114  12.069   9.144 -1.7452 -1.5186  1.4492
 6036SOL     OW22918   7.920  11.658  10.378  0.1877  0.5875 -0.5135
 6036SOL    HW122919   7.922  11.563  10.367  1.1084  0.4311  0.8081
 6036SOL    HW222920   7.827  11.681  10.372 -0.0086 -0.3339 -1.2164
 6037SOL     OW22921  12.226   7.181   5.971 -0.1952 -0.5192 -0.3355
 6037SOL    HW122922  12.252   7.122   6.042 -0.5960 -0.9147 -0.5121
 6037SOL    HW222923  12.306   7.194   5.921  0.2957  0.4366  0.6555
 6038SOL     OW22924   6.168   2.079   0.068 -0.0020  0.0174  0.1704
 6038SOL    HW122925   6.077   2.065   0.041  0.5854 -0.6382 -1.6848
 6038SOL    HW222926   6.204   2.138   0.001  0.4935  1.7628  1.8820
 6039SOL     OW22927  10.349   9.138   4.331  0.7331 -0.8049  0.0797
 6039SOL    HW122928  10.295   9.086   4.272 -0.0517  0.8386 -0.7250
 6039SOL    HW222929  10.305   9.131   4.416 -2.5909  2.7053 -1.0652
 6040SOL     OW22930  11.050   0.478   2.071 -0.1528 -0.5531 -0.4452
 6040SOL    HW122931  11.144   0.465   2.077  0.1327  1.4493  0.2399
 6040SOL    HW222932  11.012   0.410   2.128  0.9302 -0.7789  0.0258
 6041SOL     OW22933   2.983   2.547   3.422 -0.3033 -0.1161  0.0567
 6041SOL    HW122934   3.069   2.583   3.402 -0.6057  0.5466 -0.0843
 6041SOL    HW222935   2.953   2.597   3.498 -1.1978  0.7292 -0.8197
 6042SOL     OW22936  11.611  10.359   9.723  0.0904  0.4976 -0.3321
 6042SOL    HW122937  11.537  10.386   9.668  0.3333  0.1006 -0.8644
 6042SOL    HW222938  11.636  10.274   9.688 -1.3401 -0.9796  1.9511
 6043SOL     OW22939   9.678  11.068  10.164  0.3994 -0.0194  0.3691
 6043SOL    HW122940   9.626  11.059  10.244 -0.3369  1.7366  0.1330
 6043SOL    HW222941   9.745  11.133  10.187  0.8724 -0.3242 -0.1295
 6044SOL     OW22942   5.329   7.203   0.998 -0.1202  0.0102  0.3985
 6044SOL    HW122943   5.258   7.227   0.938  1.6844 -1.2463 -2.4824
 6044SOL    HW222944   5.363   7.287   1.029 -1.6692  0.6850  0.3651
 6045SOL     OW22945   7.675   6.031   3.698 -0.5444  0.3177 -0.1444
 6045SOL    HW122946   7.759   6.016   3.741 -0.1382 -2.1142 -1.6018
 6045SOL    HW222947   7.696   6.035   3.605 -2.0152 -0.2752 -0.5348
 6046SOL     OW22948  11.523   7.628   7.405 -0.1264  0.1385 -0.4974
 6046SOL    HW122949  11.573   7.599   7.328 -1.4925 -1.7248 -0.7653
 6046SOL    HW222950  11.583   7.615   7.479 -0.5444 -3.4636 -0.6184
 6047SOL     OW22951   3.259  10.418  11.539 -1.0888  0.0307 -0.0923
 6047SOL    HW122952   3.338  10.467  11.516 -0.3367  0.2295  2.6009
 6047SOL    HW222953   3.289  10.351  11.600 -2.8268 -0.7146  0.0141
 6048SOL     OW22954   1.543   5.053   4.061  0.6354  0.2775  0.0164
 6048SOL    HW122955   1.475   5.078   3.999 -1.4479 -0.7531  1.7685
 6048SOL    HW222956   1.519   4.964   4.089  1.8465  0.4546  1.8152
 6049SOL     OW22957   5.601  12.224   0.338  0.4135  0.5969  0.4828
 6049SOL    HW122958   5.563  12.217   0.425  0.2489  1.2637  0.4671
 6049SOL    HW222959   5.549  12.165   0.284  0.5585  0.1296  0.8434
 6050SOL     OW22960   9.129   1.805   3.170  0.2260 -0.0017 -0.0133
 6050SOL    HW122961   9.069   1.857   3.116 -1.2304  0.3567  1.8835
 6050SOL    HW222962   9.107   1.828   3.260  1.0617 -2.2527  0.8282
 6051SOL     OW22963   5.924   6.117   9.472 -0.0952  0.2801 -0.0728
 6051SOL    HW122964   5.926   6.075   9.386  3.4808 -1.2515  0.5706
 6051SOL    HW222965   5.942   6.209   9.454  0.3976  0.0213 -0.9787
 6052SOL     OW22966   1.525   9.786  12.294  0.6400  0.9140  0.0505
 6052SOL    HW122967   1.588   9.724  12.257 -0.6535  0.1107 -0.9241
 6052SOL    HW222968   1.539   9.781  12.389 -0.6116 -2.3311  0.1934
 6053SOL     OW22969   6.913  11.143   3.434  0.6550 -0.0012  0.4727
 6053SOL    HW122970   7.001  11.125   3.401  0.8884  2.0539 -0.1961
 6053SOL    HW222971   6.927  11.195   3.514  0.1123  1.7963 -0.5375
 6054SOL     OW22972   9.883  11.842   2.989 -0.3280  0.2746 -0.6872
 6054SOL    HW122973   9.788  11.845   2.978 -0.4875  0.3463  0.5666
 6054SOL    HW222974   9.896  11.830   3.084  0.8753 -1.1579 -0.9872
 6055SOL     OW22975   1.517   4.094   2.529 -0.1703  0.2043 -0.0612
 6055SOL    HW122976   1.458   4.167   2.545 -1.1818 -0.1164 -1.9447
 6055SOL    HW222977   1.464   4.016   2.545  0.5804 -0.1287  0.8924
 6056SOL     OW22978   7.974   5.040  11.714 -0.1837 -0.0861 -0.3470
 6056SOL    HW122979   7.946   4.981  11.644 -0.0864 -1.2376  0.5680
 6056SOL    HW222980   8.047   4.994  11.757 -1.2202 -0.1102  1.4710
 6057SOL     OW22981   3.944   1.180   1.476 -0.0730 -0.3999  0.9163
 6057SOL    HW122982   3.897   1.174   1.393 -0.2877  2.4457  0.7405
 6057SOL    HW222983   4.013   1.243   1.460 -0.4124  0.5922  3.0072
 6058SOL     OW22984  10.058   6.752   5.918  0.9037  0.0086 -0.2027
 6058SOL    HW122985  10.107   6.688   5.867  0.7355  0.6004 -1.1405
 6058SOL    HW222986  10.121   6.788   5.980  1.2181 -0.4422 -0.2596
 6059SOL     OW22987   1.613  12.081  11.017 -0.1072 -0.4513 -0.1342
 6059SOL    HW122988   1.547  12.079  10.948  0.9008  1.6093 -1.2585
 6059SOL    HW222989   1.566  12.110  11.095 -0.7210  0.0236 -0.6727
 6060SOL     OW22990  11.461   2.238  10.755 -0.5742 -0.3260  0.2315
 6060SOL    HW122991  11.408   2.215  10.831  0.1635 -1.6777  0.3560
 6060SOL    HW222992  11.506   2.319  10.780  0.8737 -1.5807  1.8465
 6061SOL     OW22993   7.586   0.860   0.150  0.0395  0.8731  0.1564
 6061SOL    HW122994   7.506   0.900   0.184  0.9130  1.6398  1.4018
 6061SOL    HW222995   7.556   0.806   0.077 -1.9230 -0.4715  1.8008
 6062SOL     OW22996   4.193   1.385   3.803  0.5449  0.6213 -0.5975
 6062SOL    HW122997   4.173   1.384   3.709  0.9365 -0.7871 -0.6961
 6062SOL    HW222998   4.108   1.397   3.845  0.1083 -0.5412 -1.1080
 6063SOL     OW22999   4.104   6.689  11.506 -0.4122 -0.3973 -0.2026
 6063SOL    HW123000   4.150   6.616  11.549 -1.9994 -1.8339 -0.8271
 6063SOL    HW223001   4.078   6.653  11.421  0.1496  1.4469 -1.1867
 6064SOL     OW23002  10.664  11.832   7.572  0.5246  0.1498 -0.0972
 6064SOL    HW123003  10.697  11.882   7.497 -0.5627  3.3443  1.3811
 6064SOL    HW223004  10.586  11.787   7.539  0.9506  0.2092 -1.2213
 6065SOL     OW23005  12.335   3.407   8.766 -0.0938  0.0599  0.0094
 6065SOL    HW123006  12.378   3.434   8.848 -0.2069  0.6586 -0.1216
 6065SOL    HW223007  12.326   3.489   8.717 -0.2634 -0.2609 -0.4902
 6066SOL     OW23008   6.315   2.600   9.938 -0.1515  0.2151  0.3491
 6066SOL    HW123009   6.400   2.573   9.972 -0.5057  0.3272  1.3684
 6066SOL    HW223010   6.255   2.531   9.967 -0.1665 -0.7287 -1.7678
 6067SOL     OW23011  11.616  10.656   1.566 -0.5768 -0.5344 -0.3479
 6067SOL    HW123012  11.698  10.639   1.612 -0.1727 -0.5902 -1.0799
 6067SOL    HW223013  11.567  10.713   1.625  0.4839  0.4709 -0.4065
 6068SOL     OW23014  11.995  11.937   9.412 -0.3442  0.4254  0.1695
 6068SOL    HW123015  11.945  11.916   9.491  0.2233  0.1829  0.4728
 6068SOL    HW223016  12.011  12.032   9.417 -0.6660  0.4816  0.1311
 6069SOL     OW23017   4.618   6.342   0.782 -0.5033  0.0609  0.2031
 6069SOL    HW123018   4.567   6.412   0.740 -1.2684  0.0355  1.0639
 6069SOL    HW223019   4.636   6.280   0.711  0.9899  1.5386 -0.7990
 6070SOL     OW23020   9.763  12.371   8.281 -0.5705  0.7158  0.3855
 6070SOL    HW123021   9.671  12.379   8.257 -0.5537 -1.1351 -0.5169
 6070SOL    HW223022   9.764  12.379   8.376 -1.9761 -1.1101  0.6204
 6071SOL     OW23023   1.296   2.436   0.067  0.4215 -0.3809  1.0197
 6071SOL    HW123024   1.215   2.468   0.108  0.7338  0.2572  1.1545
 6071SOL    HW223025   1.269   2.405  -0.019  0.0967  0.2536  0.8860
 6072SOL     OW23026   4.644   6.861   4.773  0.3534 -0.4031 -0.1175
 6072SOL    HW123027   4.611   6.780   4.736 -1.6202 -0.5613  1.8164
 6072SOL    HW223028   4.571   6.897   4.822  1.6550  1.7674  0.3693
 6073SOL     OW23029   6.608   5.792   8.507 -0.1022  0.6873  0.2589
 6073SOL    HW123030   6.695   5.827   8.488  0.2910 -0.2992  0.1612
 6073SOL    HW223031   6.624   5.725   8.574 -0.8636  0.8929  0.6554
 6074SOL     OW23032   2.681  12.428   4.986 -0.3639  0.4652  0.0734
 6074SOL    HW123033   2.687  12.365   4.914  1.0234  2.9165 -2.1421
 6074SOL    HW223034   2.613  12.489   4.957  0.4036  1.6340  0.7008
 6075SOL     OW23035   5.688   3.305   6.911 -0.0625  0.2080 -0.0420
 6075SOL    HW123036   5.606   3.266   6.941 -1.1125 -0.1723 -3.1175
 6075SOL    HW223037   5.661   3.372   6.848  1.9797  1.2099  0.0576
 6076SOL     OW23038   7.493  12.105  10.189  0.2362 -0.0966 -0.5938
 6076SOL    HW123039   7.424  12.039  10.194  1.2712 -1.2120 -0.6115
 6076SOL    HW223040   7.559  12.066  10.132  1.5786  0.3026  0.6355
 6077SOL     OW23041   6.005   6.216  11.771  0.1432 -0.3281 -0.4766
 6077SOL    HW123042   6.020   6.307  11.795  1.3587 -0.3835 -0.9576
 6077SOL    HW223043   5.992   6.218  11.676 -1.3979 -0.4939 -0.3034
 6078SOL     OW23044   2.954   0.692   1.937  0.0561 -0.1678  0.4275
 6078SOL    HW123045   2.906   0.773   1.954 -0.4354 -0.0327 -1.3526
 6078SOL    HW223046   2.902   0.647   1.870  2.1338 -0.2125 -1.2934
 6079SOL     OW23047   6.427   8.528  11.444  0.3861  0.3504  0.4850
 6079SOL    HW123048   6.362   8.507  11.377  2.5970 -1.4304 -1.2743
 6079SOL    HW223049   6.469   8.444  11.463  1.9440  1.3633  1.7865
 6080SOL     OW23050   8.419   7.542   3.586 -0.1025  0.2738  0.2306
 6080SOL    HW123051   8.349   7.535   3.521 -0.1460 -0.1547  0.3181
 6080SOL    HW223052   8.383   7.501   3.665 -1.6275  4.3177  1.9093
 6081SOL     OW23053  12.536   1.285   6.564  0.0011 -0.3391  0.5223
 6081SOL    HW123054  12.473   1.214   6.582 -0.0187 -0.3394  0.4527
 6081SOL    HW223055  12.488   1.345   6.507  0.4603 -0.9426 -0.5241
 6082SOL     OW23056   9.139  10.979   9.073 -0.4710  0.0537  0.3482
 6082SOL    HW123057   9.102  10.899   9.036 -2.4857  0.7464  0.7345
 6082SOL    HW223058   9.216  10.998   9.019  0.0192 -2.0771  0.2251
 6083SOL     OW23059   4.726   3.309   2.919  0.0297  0.4565 -0.4579
 6083SOL    HW123060   4.805   3.352   2.885 -0.2246  2.2471  1.0514
 6083SOL    HW223061   4.672   3.381   2.953 -1.1006 -0.9437  0.8789
 6084SOL     OW23062   4.800   9.896  10.489 -0.3217  0.3074 -0.3141
 6084SOL    HW123063   4.744   9.819  10.489  0.8066 -0.5538 -1.2363
 6084SOL    HW223064   4.885   9.863  10.520  0.9478  0.5211 -3.2593
 6085SOL     OW23065   7.814  11.028   9.423  0.4525  0.5507  0.5017
 6085SOL    HW123066   7.788  10.936   9.413 -1.6129  1.3283 -2.7989
 6085SOL    HW223067   7.899  11.034   9.381  1.2613 -0.0420  1.9755
 6086SOL     OW23068   9.612   1.161   8.806  0.4526 -0.5212  0.3408
 6086SOL    HW123069   9.545   1.228   8.793  1.7367  1.0613  1.4672
 6086SOL    HW223070   9.631   1.128   8.719 -0.3869  0.4209 -0.2152
 6087SOL     OW23071   1.348   1.364   7.816  0.3585 -0.1060  0.2507
 6087SOL    HW123072   1.408   1.436   7.794 -1.1550  1.9195  2.2808
 6087SOL    HW223073   1.263   1.395   7.785 -0.3534 -0.9454  1.3235
 6088SOL     OW23074  11.050   4.877   8.042 -0.3392 -0.3200 -0.1506
 6088SOL    HW123075  10.978   4.833   8.088  0.2409 -1.3908 -0.2278
 6088SOL    HW223076  11.044   4.968   8.069 -2.0331 -0.2797 -0.5454
 6089SOL     OW23077   7.421   5.353   6.003  0.2787  0.0781 -0.2739
 6089SOL    HW123078   7.479   5.381   6.074 -0.8364  0.0273  0.6915
 6089SOL    HW223079   7.367   5.430   5.985 -1.3159 -0.7276  0.8723
 6090SOL     OW23080  10.564  12.046   7.171  0.2901  0.7348  0.1047
 6090SOL    HW123081  10.528  12.034   7.259 -0.1692  0.2058 -0.1523
 6090SOL    HW223082  10.488  12.048   7.113  0.6382 -0.2515 -0.4285
 6091SOL     OW23083  10.982   7.268   5.288 -0.0046 -0.2095  0.5922
 6091SOL    HW123084  10.993   7.358   5.255 -0.7878  0.1019  1.1492
 6091SOL    HW223085  10.950   7.279   5.377 -1.1286 -1.0396  0.3149
 6092SOL     OW23086   4.151  10.654   2.810 -0.6154 -0.6337  0.7466
 6092SOL    HW123087   4.088  10.588   2.837 -0.0157 -1.0838  1.0909
 6092SOL    HW223088   4.224  10.642   2.871  1.1926 -2.2590 -1.5597
 6093SOL     OW23089   8.166   6.124   8.576 -0.0722 -0.3286 -0.8060
 6093SOL    HW123090   8.135   6.200   8.626 -2.6183 -1.6177 -0.2554
 6093SOL    HW223091   8.130   6.136   8.489 -2.0671 -1.6906 -0.2435
 6094SOL     OW23092   7.306   7.086   7.762 -0.2724  0.4659  0.4028
 6094SOL    HW123093   7.373   7.020   7.777  1.1519  1.8579  0.5259
 6094SOL    HW223094   7.273   7.067   7.674  0.6077 -0.0083  0.1566
 6095SOL     OW23095   5.047   1.510   4.352  0.5947  0.2102  0.1243
 6095SOL    HW123096   5.061   1.604   4.355 -0.7099  0.4080  0.8444
 6095SOL    HW223097   5.007   1.495   4.266  3.8591 -0.2207 -1.4923
 6096SOL     OW23098   5.427   1.886   7.952 -0.6594 -0.0636 -0.6007
 6096SOL    HW123099   5.481   1.963   7.934 -1.0593 -0.1214 -2.1893
 6096SOL    HW223100   5.475   1.838   8.020 -0.0002  1.1582 -0.1661
 6097SOL     OW23101   8.812   2.350   4.366 -0.1748  0.3470  0.1304
 6097SOL    HW123102   8.823   2.302   4.448  0.3345 -0.8551 -0.6113
 6097SOL    HW223103   8.763   2.290   4.310  1.0036  0.4337 -1.0354
 6098SOL     OW23104   6.100   8.666   4.219 -0.0500  0.1282 -0.0613
 6098SOL    HW123105   6.115   8.708   4.134  1.6580  0.3358  0.3180
 6098SOL    HW223106   6.051   8.587   4.197 -0.1392  0.4636 -1.1715
 6099SOL     OW23107   1.725  10.960   5.033  0.4431 -0.0538  0.2615
 6099SOL    HW123108   1.665  11.034   5.027 -0.0191 -0.4433 -0.1392
 6099SOL    HW223109   1.757  10.948   4.943 -0.9284 -1.4806 -0.0810
 6100SOL     OW23110  11.609   7.961   3.593 -0.3091  0.2525 -0.1796
 6100SOL    HW123111  11.656   8.004   3.664  0.8916  0.7136 -1.2101
 6100SOL    HW223112  11.632   8.011   3.515 -1.1068 -0.6053 -0.9944
 6101SOL     OW23113   5.025  10.065   9.483 -0.2396  0.1187 -0.9272
 6101SOL    HW123114   4.969  10.142   9.472 -1.3861 -0.4319  0.6920
 6101SOL    HW223115   5.020  10.045   9.577  0.7647 -1.3830 -1.1632
 6102SOL     OW23116   8.346   0.563   0.246 -0.1674  0.1802  0.1585
 6102SOL    HW123117   8.377   0.579   0.336  3.6099  0.5029 -0.9982
 6102SOL    HW223118   8.405   0.494   0.213  0.9954  2.4620 -3.0840
 6103SOL     OW23119   4.504   3.001   5.154  0.1526  0.7530  0.7263
 6103SOL    HW123120   4.531   2.923   5.202  0.1441  0.5858  0.4602
 6103SOL    HW223121   4.430   3.036   5.204 -0.1758  0.2984  0.5605
 6104SOL     OW23122   3.389   7.119   7.761  0.0042  0.0374  0.5033
 6104SOL    HW123123   3.334   7.116   7.839  0.3301 -1.3934  0.7005
 6104SOL    HW223124   3.368   7.204   7.721 -0.1153  0.8248  2.1506
 6105SOL     OW23125   2.671   9.097   2.538 -0.4901 -0.1414 -0.6782
 6105SOL    HW123126   2.599   9.158   2.522 -0.3990 -0.0238 -0.6461
 6105SOL    HW223127   2.657   9.067   2.628  1.5414  2.7170  0.7642
 6106SOL     OW23128   6.633   9.639  11.249 -0.1152 -0.5601 -0.5643
 6106SOL    HW123129   6.637   9.553  11.207  0.4778  0.4484 -2.7088
 6106SOL    HW223130   6.549   9.640  11.294 -1.4343 -1.2408 -2.8715
 6107SOL     OW23131   3.389   9.542   7.906  0.1562 -0.2821 -0.0879
 6107SOL    HW123132   3.406   9.480   7.835 -2.5348 -0.7515 -0.4541
 6107SOL    HW223133   3.469   9.542   7.959  1.4725 -1.4572 -1.9756
 6108SOL     OW23134   6.477   5.367   6.449  0.6355 -0.3685  0.2483
 6108SOL    HW123135   6.444   5.422   6.378  2.9001 -0.2779 -0.8472
 6108SOL    HW223136   6.494   5.428   6.521  1.7920  0.2090 -0.4706
 6109SOL     OW23137   4.039  12.438  10.674 -0.6038 -0.0496  0.3359
 6109SOL    HW123138   3.945  12.430  10.657 -0.3095 -0.8465 -1.0893
 6109SOL    HW223139   4.047  12.515  10.730 -2.2216 -0.7731  1.6488
 6110SOL     OW23140   3.982   2.311   5.246  0.2794  0.0728 -0.4428
 6110SOL    HW123141   4.026   2.395   5.253  0.6296 -0.1902  0.8921
 6110SOL    HW223142   3.892   2.332   5.222  0.7350  0.7125 -1.6509
 6111SOL     OW23143   0.476   2.585  10.924  0.1643 -0.3000  0.0305
 6111SOL    HW123144   0.398   2.539  10.956  1.1074 -2.3188 -0.4232
 6111SOL    HW223145   0.544   2.518  10.923  1.5789  1.1003 -0.8509
 6112SOL     OW23146   5.893   9.556   7.956 -0.1740 -0.0297  0.2830
 6112SOL    HW123147   5.975   9.535   7.913  0.4994 -1.1741  2.0304
 6112SOL    HW223148   5.918   9.614   8.028 -0.8154 -0.6888  1.0616
 6113SOL     OW23149  12.539  11.874   1.860 -0.6312  0.5115  0.6359
 6113SOL    HW123150  12.493  11.923   1.928  0.9530  0.7176  1.6021
 6113SOL    HW223151  12.570  11.942   1.800 -0.5974  0.4662  0.6032
 6114SOL     OW23152   7.421  12.632   5.274  0.2919  0.4408 -0.3035
 6114SOL    HW123153   7.431  12.587   5.359  0.3612  0.0383 -0.5219
 6114SOL    HW223154   7.496  12.602   5.223  0.4994  1.0353 -0.3580
 6115SOL     OW23155   7.191   5.468   2.516  0.3289 -0.6441  0.1346
 6115SOL    HW123156   7.248   5.432   2.448 -0.3577 -1.4257 -0.0355
 6115SOL    HW223157   7.166   5.554   2.483  1.8793 -0.0126  0.4894
 6116SOL     OW23158   5.612   3.772   3.808 -0.2234 -0.5523  0.2277
 6116SOL    HW123159   5.572   3.736   3.887 -0.2929  2.3106  1.6651
 6116SOL    HW223160   5.692   3.720   3.796 -1.5239 -2.7518  0.5850
 6117SOL     OW23161   6.598   7.144   1.859  0.3962 -0.1843  0.4019
 6117SOL    HW123162   6.540   7.077   1.823 -1.4862  1.6807 -0.2007
 6117SOL    HW223163   6.615   7.115   1.949 -0.1852 -1.5504  0.0933
 6118SOL     OW23164  10.535   3.312   2.580  0.0456 -0.2922 -0.0731
 6118SOL    HW123165  10.588   3.245   2.624  0.8589  1.4442  1.7563
 6118SOL    HW223166  10.599   3.369   2.537 -0.6067 -0.4269 -1.2708
 6119SOL     OW23167   0.320   5.789   7.581  0.5173 -0.4402  0.0204
 6119SOL    HW123168   0.288   5.864   7.631  1.5912  0.3803 -0.4639
 6119SOL    HW223169   0.262   5.785   7.504  0.3237 -0.2362  0.1555
 6120SOL     OW23170   3.949   1.906   9.964  0.1953  0.1606  0.5285
 6120SOL    HW123171   3.904   1.858  10.032 -0.6495 -1.2737 -0.9695
 6120SOL    HW223172   4.030   1.857   9.949 -0.6361 -0.8137 -0.9582
 6121SOL     OW23173  12.589   3.144   9.975 -0.7358 -0.1508  0.1725
 6121SOL    HW123174  12.564   3.054   9.996 -0.2392 -0.1127  0.9695
 6121SOL    HW223175  12.683   3.138   9.955 -1.0531 -0.0779 -1.4452
 6122SOL     OW23176   2.693   7.333   9.087  0.1892 -0.0110 -0.0714
 6122SOL    HW123177   2.782   7.310   9.114  0.0176 -1.7446 -0.8618
 6122SOL    HW223178   2.706   7.380   9.004  0.3453 -0.9024 -0.5621
 6123SOL     OW23179   8.345   3.375  11.434  0.2596  0.5660  0.4019
 6123SOL    HW123180   8.275   3.388  11.370 -0.3813  0.1471  0.9981
 6123SOL    HW223181   8.418   3.426  11.400  0.1217 -0.0910 -0.9455
 6124SOL     OW23182   5.076  11.416   6.976 -0.0253 -0.1904 -0.3076
 6124SOL    HW123183   5.089  11.420   6.881  1.0375 -0.5267 -0.1976
 6124SOL    HW223184   5.164  11.426   7.012 -0.5616  1.1883  0.7025
 6125SOL     OW23185   3.141  10.274   8.114 -0.1057 -0.2678  0.3306
 6125SOL    HW123186   3.182  10.315   8.190 -1.6724  0.2233  0.9649
 6125SOL    HW223187   3.116  10.348   8.057 -1.4579 -0.4122  0.6968
 6126SOL     OW23188   8.081   8.070   0.054 -0.0285 -0.0395  0.0135
 6126SOL    HW123189   8.111   8.161   0.059 -1.3226  0.3364  1.6633
 6126SOL    HW223190   8.160   8.018   0.068  0.3723  0.8771  1.4016
 6127SOL     OW23191  12.096  10.605  10.787  0.4776  0.0675 -0.0051
 6127SOL    HW123192  12.107  10.683  10.841  0.0356 -0.9214  1.5573
 6127SOL    HW223193  12.109  10.637  10.697  1.6363  1.6691  0.6737
 6128SOL     OW23194   1.898   1.838   0.306  0.4454 -0.2290 -0.1968
 6128SOL    HW123195   1.889   1.751   0.267  0.1380  0.4235 -1.6274
 6128SOL    HW223196   1.812   1.855   0.345  0.2353 -0.2179 -0.6610
 6129SOL     OW23197   2.934   8.828  10.930  0.4695 -0.5878  0.3301
 6129SOL    HW123198   2.974   8.915  10.936 -0.4463 -0.1552  0.3392
 6129SOL    HW223199   2.996   8.770  10.974  2.6246 -0.4960 -2.3517
 6130SOL     OW23200  12.092  11.335  11.558  0.4745  0.1011 -0.2889
 6130SOL    HW123201  12.036  11.258  11.565 -0.7652  0.9512 -0.5049
 6130SOL    HW223202  12.119  11.354  11.648 -2.0705  1.4127  0.3064
 6131SOL     OW23203   4.987   1.282  12.362  0.4204 -0.5700  0.3314
 6131SOL    HW123204   5.047   1.342  12.406  0.5556 -1.0422  0.7986
 6131SOL    HW223205   4.933   1.245  12.432  0.8694 -1.5958  0.1569
 6132SOL     OW23206   8.231  10.374   0.452 -0.4138 -0.2742 -0.1649
 6132SOL    HW123207   8.260  10.323   0.528  0.3809 -1.6721 -1.3454
 6132SOL    HW223208   8.311  10.413   0.418 -0.6289 -0.3709 -0.7884
 6133SOL     OW23209   7.522   5.187   2.401 -0.0483 -0.1623 -0.5724
 6133SOL    HW123210   7.592   5.126   2.378 -0.7225 -2.2078  2.2139
 6133SOL    HW223211   7.564   5.252   2.458 -0.3494 -1.5692  1.3578
 6134SOL     OW23212   2.695   3.310   2.602 -0.1480 -0.1010  0.5026
 6134SOL    HW123213   2.737   3.376   2.656  0.6878 -0.6867  0.5806
 6134SOL    HW223214   2.636   3.359   2.545  1.5215  0.8758 -0.4419
 6135SOL     OW23215  10.423  11.888   9.235 -0.4986 -0.1024  0.7475
 6135SOL    HW123216  10.343  11.930   9.268 -1.3125  0.3120 -1.5631
 6135SOL    HW223217  10.493  11.950   9.257 -0.7419 -0.5010  2.8698
 6136SOL     OW23218   8.438   7.371   2.641  0.0284  0.0768  0.3700
 6136SOL    HW123219   8.403   7.447   2.594  0.6294 -0.8805 -1.7849
 6136SOL    HW223220   8.502   7.408   2.702 -0.2818  1.3727 -0.0507
 6137SOL     OW23221   0.753   3.601  10.164 -0.1080 -0.3978 -0.1964
 6137SOL    HW123222   0.786   3.539  10.229  1.0044  0.6966  0.3257
 6137SOL    HW223223   0.771   3.560  10.080 -1.4639 -1.7835  0.1601
 6138SOL     OW23224   1.968   0.834   9.736 -0.1256 -0.2919 -0.2543
 6138SOL    HW123225   2.044   0.776   9.738 -0.2622 -0.4625  1.2744
 6138SOL    HW223226   2.002   0.920   9.762 -0.1067  0.1147 -1.5493
 6139SOL     OW23227   2.866   6.828   9.833 -0.1316 -0.3567  0.4995
 6139SOL    HW123228   2.904   6.873   9.757  1.5381 -1.6953  0.4786
 6139SOL    HW223229   2.773   6.850   9.830  0.1220  0.6398 -1.2097
 6140SOL     OW23230  10.225   4.509   9.924  0.9200 -0.1040 -0.1642
 6140SOL    HW123231  10.139   4.488   9.888 -0.7345  2.9582  1.6652
 6140SOL    HW223232  10.253   4.428   9.967 -0.8252 -1.2783 -1.1234
 6141SOL     OW23233   9.307   9.081   9.603 -0.0872 -0.0695 -0.2706
 6141SOL    HW123234   9.276   9.035   9.525 -0.1903 -0.4385 -0.0173
 6141SOL    HW223235   9.259   9.164   9.602 -0.2901 -0.1853 -0.4563
 6142SOL     OW23236  10.458   4.717   7.699 -0.5685 -0.0424 -0.6666
 6142SOL    HW123237  10.368   4.723   7.730 -0.3175 -0.3900  0.1734
 6142SOL    HW223238  10.508   4.694   7.778  0.2061 -0.1519 -1.1842
 6143SOL     OW23239   9.760   9.764   9.532  0.0899  0.0813 -0.1103
 6143SOL    HW123240   9.684   9.723   9.572 -0.1983  1.1430  0.4852
 6143SOL    HW223241   9.733   9.856   9.519  1.2683  0.4795  0.1499
 6144SOL     OW23242   7.902  10.523   1.423  0.3776  0.3914 -0.2297
 6144SOL    HW123243   7.980  10.467   1.416  1.4942  1.9161 -0.4735
 6144SOL    HW223244   7.871  10.507   1.512  1.4039  0.2816  0.1310
 6145SOL     OW23245   5.845   1.327  12.470 -0.0672 -0.5538  0.1067
 6145SOL    HW123246   5.884   1.246  12.437  0.1633 -1.0357  1.4740
 6145SOL    HW223247   5.858   1.322  12.565  0.7939  1.5336  0.1495
 6146SOL     OW23248  12.555   8.680  10.526 -0.4043  0.5990 -0.0723
 6146SOL    HW123249  12.482   8.711  10.580  0.1250 -0.5377  1.3531
 6146SOL    HW223250  12.528   8.592  10.499  0.0298  0.5513 -0.3490
 6147SOL     OW23251   2.847   3.229   2.032  0.1005  0.3251 -0.2065
 6147SOL    HW123252   2.823   3.145   2.071  1.2305  0.8513  1.7444
 6147SOL    HW223253   2.768   3.257   1.986 -1.0629 -0.7192  1.0629
 6148SOL     OW23254  10.677  12.141   9.696  0.4972  0.4601  0.1057
 6148SOL    HW123255  10.613  12.166   9.630  0.2298 -1.5275 -0.4303
 6148SOL    HW223256  10.632  12.156   9.780  0.4337  1.8950 -0.1598
 6149SOL     OW23257  10.831   2.134   2.678  0.3429  0.1961  0.2427
 6149SOL    HW123258  10.835   2.098   2.767  0.3647 -1.2032 -0.2940
 6149SOL    HW223259  10.796   2.222   2.689  0.8128  0.2235  1.6813
 6150SOL     OW23260   6.645   9.592   7.557  0.3101 -0.1494  0.2681
 6150SOL    HW123261   6.735   9.618   7.540 -0.1038  0.5988 -0.8392
 6150SOL    HW223262   6.595   9.629   7.485 -0.5221 -2.8845 -0.6856
 6151SOL     OW23263  11.201  10.882   9.225 -0.0496  0.3186 -0.3068
 6151SOL    HW123264  11.111  10.905   9.250 -0.0787  2.6194 -2.2745
 6151SOL    HW223265  11.190  10.822   9.151 -0.0306  2.1124 -1.8146
 6152SOL     OW23266   1.768   5.261   8.655 -0.4671  0.4704  0.1095
 6152SOL    HW123267   1.693   5.270   8.713  0.6279 -1.2753  1.9077
 6152SOL    HW223268   1.843   5.255   8.714  1.0539  1.5109 -1.6039
 6153SOL     OW23269   3.110   0.112   6.887  0.0029  0.0246 -0.2146
 6153SOL    HW123270   3.116   0.022   6.921  1.1260 -0.3104 -1.2455
 6153SOL    HW223271   3.161   0.110   6.806 -0.6056  1.4116 -0.6493
 6154SOL     OW23272   6.379   6.042   9.062 -0.1111 -0.4948 -0.2221
 6154SOL    HW123273   6.358   6.111   9.125  0.0458 -0.1462 -0.5473
 6154SOL    HW223274   6.471   6.020   9.080  0.2233  0.2741 -0.9529
 6155SOL     OW23275   9.686   3.106   5.834  0.3836 -0.2831  0.0527
 6155SOL    HW123276   9.645   3.159   5.903  0.1682 -0.7498  0.2903
 6155SOL    HW223277   9.778   3.132   5.836  0.3317 -0.1120  0.3479
 6156SOL     OW23278   1.273   5.186  12.191 -0.0662 -0.4350 -0.1073
 6156SOL    HW123279   1.337   5.232  12.137 -0.0374 -0.3043  0.0372
 6156SOL    HW223280   1.263   5.101  12.149  1.3912 -1.0620  0.7606
 6157SOL     OW23281   5.007   3.154   0.021  0.1332  0.0821  0.2291
 6157SOL    HW123282   4.990   3.078  -0.035  0.5743 -1.5378  2.1988
 6157SOL    HW223283   5.067   3.209  -0.030 -0.0903 -0.9304 -1.1723
 6158SOL     OW23284   9.765   5.507   3.294  0.0699  0.7375  0.4171
 6158SOL    HW123285   9.818   5.559   3.233 -0.4295  2.0536  1.0662
 6158SOL    HW223286   9.766   5.419   3.257  2.6936  0.7001  0.3896
 6159SOL     OW23287  12.587   4.208   4.055 -0.2225  0.2267 -0.0931
 6159SOL    HW123288  12.527   4.137   4.079  0.9594 -0.9674 -0.4936
 6159SOL    HW223289  12.557   4.236   3.968  0.9305 -1.7589 -1.2182
 6160SOL     OW23290   5.315  10.442   5.487  0.5045  0.5286  0.0242
 6160SOL    HW123291   5.252  10.398   5.544  1.1452 -1.9705 -1.0437
 6160SOL    HW223292   5.280  10.429   5.398  1.5213  0.8438 -0.4424
 6161SOL     OW23293  12.460   1.515   0.198  0.4438 -0.1666 -0.3032
 6161SOL    HW123294  12.393   1.491   0.135 -0.5960 -0.4870  0.8760
 6161SOL    HW223295  12.437   1.467   0.278  1.5397  0.4400  0.4137
 6162SOL     OW23296   4.389   1.252   8.110 -0.7480 -0.2442  0.3054
 6162SOL    HW123297   4.382   1.240   8.205 -2.2140  1.2404  0.4148
 6162SOL    HW223298   4.464   1.310   8.099 -0.5327 -0.4739  0.5390
 6163SOL     OW23299   5.596   3.431  11.214  0.6534  0.4625 -0.0722
 6163SOL    HW123300   5.545   3.464  11.288  2.7154  0.3030  1.5187
 6163SOL    HW223301   5.531   3.390  11.157 -1.1534  1.5241  1.1005
 6164SOL     OW23302   5.888   8.513   9.393  0.1842  0.0114 -0.1580
 6164SOL    HW123303   5.855   8.496   9.482  1.8062 -2.4863  0.0674
 6164SOL    HW223304   5.880   8.608   9.382  0.1981  0.4390  2.7739
 6165SOL     OW23305   8.516   5.849  11.341 -0.2614  0.2402  0.0700
 6165SOL    HW123306   8.576   5.894  11.281 -0.2515  1.0783  0.6880
 6165SOL    HW223307   8.429   5.866  11.305 -0.2184  0.2558 -0.0270
 6166SOL     OW23308   7.736   2.399   5.581 -0.7105 -0.3492 -0.1611
 6166SOL    HW123309   7.678   2.404   5.506  1.3479  3.5067 -1.8036
 6166SOL    HW223310   7.736   2.488   5.617  2.9839 -0.4714  0.5469
 6167SOL     OW23311   5.366   9.479  10.816 -0.3454 -0.5506  0.2619
 6167SOL    HW123312   5.386   9.462  10.908  0.3709  1.4140  0.4984
 6167SOL    HW223313   5.327   9.566  10.815  0.5408 -0.1341 -1.3957
 6168SOL     OW23314   3.577   2.860   3.202 -0.5279  0.4837  0.3164
 6168SOL    HW123315   3.510   2.802   3.238 -1.3205  1.4083  0.3812
 6168SOL    HW223316   3.531   2.912   3.136  0.4078  0.3222 -0.4729
 6169SOL     OW23317  11.151   8.297   7.506 -0.1126 -0.8094 -0.1769
 6169SOL    HW123318  11.195   8.256   7.431 -0.7984  1.4726 -1.9368
 6169SOL    HW223319  11.068   8.248   7.515 -0.0215 -1.1051 -0.9084
 6170SOL     OW23320   3.035   7.952   2.125  0.3961  0.0877 -0.0839
 6170SOL    HW123321   2.968   8.021   2.124 -0.4646 -0.7272 -0.5649
 6170SOL    HW223322   3.116   7.997   2.145 -0.1423  1.2548 -0.4566
 6171SOL     OW23323   2.371  11.424   1.764 -0.2227 -0.3578 -0.1260
 6171SOL    HW123324   2.334  11.344   1.727 -2.3190 -0.0061  1.0307
 6171SOL    HW223325   2.312  11.493   1.735 -0.4512  0.2580  1.6947
 6172SOL     OW23326   2.026   9.194   9.587 -0.2465 -0.3476  0.4448
 6172SOL    HW123327   1.944   9.194   9.637 -0.7968 -0.3717 -0.4433
 6172SOL    HW223328   2.050   9.101   9.581  0.6410 -0.2566  1.9423
 6173SOL     OW23329  10.864   3.710   9.026 -0.4947  0.2722  0.3964
 6173SOL    HW123330  10.906   3.624   9.030 -0.0148  0.5156  0.5575
 6173SOL    HW223331  10.922   3.768   9.074 -1.5864  0.3824  1.6381
 6174SOL     OW23332   9.975   2.344   2.566  0.6579  0.2207 -0.2431
 6174SOL    HW123333   9.895   2.292   2.576  0.2809  0.0290 -3.4212
 6174SOL    HW223334   9.944   2.435   2.567  0.8346  0.2893  1.5093
 6175SOL     OW23335  10.095   4.259  12.646  0.0311  0.2732 -0.1831
 6175SOL    HW123336  10.121   4.267  12.738 -3.2675  0.7064  0.8354
 6175SOL    HW223337  10.073   4.349  12.620  1.6491  0.2834 -1.7123
 6176SOL     OW23338   4.423  11.505   6.743  0.0869  0.9048  0.4043
 6176SOL    HW123339   4.339  11.547   6.723 -0.9494 -1.4728 -0.7026
 6176SOL    HW223340   4.400  11.434   6.803  0.9367 -0.9279 -1.3033
 6177SOL     OW23341   7.286   4.023   9.084 -0.9054  0.3094  0.2943
 6177SOL    HW123342   7.376   4.054   9.077 -0.8746  0.0178 -1.0156
 6177SOL    HW223343   7.245   4.050   9.002 -1.8237 -0.1398  0.5868
 6178SOL     OW23344   3.458   1.183   4.235  0.2050  0.1359  0.1935
 6178SOL    HW123345   3.528   1.201   4.172 -0.2191  0.7606 -0.1156
 6178SOL    HW223346   3.378   1.186   4.182  0.0161 -1.6521  0.3309
 6179SOL     OW23347   5.385   2.482   2.735 -0.0148 -0.1020  0.4034
 6179SOL    HW123348   5.480   2.470   2.727 -0.0693 -0.6140  0.4832
 6179SOL    HW223349   5.366   2.561   2.685  0.3118 -0.5809 -0.4919
 6180SOL     OW23350   0.226   6.753  11.533 -0.4850  0.0510 -0.0545
 6180SOL    HW123351   0.186   6.827  11.489 -1.0215  0.2921  0.8124
 6180SOL    HW223352   0.153   6.698  11.561 -0.3738  1.0060  2.4497
 6181SOL     OW23353   1.169   0.865   5.161  0.5200  0.3135  0.0302
 6181SOL    HW123354   1.237   0.830   5.105  0.6813 -0.0726  0.4633
 6181SOL    HW223355   1.213   0.933   5.213  0.6517 -0.1614  0.5408
 6182SOL     OW23356   4.339   0.314  10.543 -0.1389  0.1547  0.1756
 6182SOL    HW123357   4.259   0.285  10.585 -0.5346  0.5526 -0.2896
 6182SOL    HW223358   4.381   0.234  10.512 -1.2199  0.0425 -1.1016
 6183SOL     OW23359  10.619   7.147  11.539  1.1969 -0.1391  0.0253
 6183SOL    HW123360  10.589   7.198  11.614  0.5994 -0.1209 -0.2128
 6183SOL    HW223361  10.605   7.205  11.464  2.2577  0.0313 -0.0524
 6184SOL     OW23362   5.412   5.513   2.488  0.1494  0.8772  0.3563
 6184SOL    HW123363   5.473   5.567   2.437  0.5125 -0.4274 -0.6473
 6184SOL    HW223364   5.344   5.488   2.425 -0.8273  1.3831  1.1875
 6185SOL     OW23365   9.991   7.154   0.901  0.1489 -0.0008 -0.5577
 6185SOL    HW123366   9.901   7.126   0.915 -0.0075  1.3389  1.5832
 6185SOL    HW223367  10.037   7.127   0.980  0.0819  4.9488  1.5270
 6186SOL     OW23368   5.514   1.231  11.542 -0.3296 -0.3115  0.3018
 6186SOL    HW123369   5.471   1.316  11.555 -0.6849 -0.5831  0.9926
 6186SOL    HW223370   5.487   1.203  11.455 -0.1042  0.3470  0.0209
 6187SOL     OW23371   5.564  11.203   5.971  0.0821 -0.5874  0.3672
 6187SOL    HW123372   5.570  11.211   6.066 -0.3666  0.6221  0.3140
 6187SOL    HW223373   5.654  11.192   5.941  0.3609  0.3340  0.8420
 6188SOL     OW23374   4.447  11.562   2.402 -0.1109  0.5703  0.0384
 6188SOL    HW123375   4.460  11.476   2.360  0.7308  0.2487  0.9222
 6188SOL    HW223376   4.468  11.625   2.333  0.0842  0.0633 -0.3774
 6189SOL     OW23377  11.450   7.257   8.868  0.3495 -0.2667 -0.1985
 6189SOL    HW123378  11.423   7.225   8.954 -0.5834 -2.7422 -1.3309
 6189SOL    HW223379  11.533   7.213   8.851 -1.1138 -2.6364 -1.9155
 6190SOL     OW23380  11.003   6.382  10.564 -0.1073  0.1447  0.2826
 6190SOL    HW123381  11.088   6.385  10.520 -1.2456 -1.0355 -2.1857
 6190SOL    HW223382  11.011   6.307  10.624  1.7143  2.2264  2.8653
 6191SOL     OW23383   7.149   0.582   5.641  0.0654  0.2634 -0.0387
 6191SOL    HW123384   7.097   0.502   5.635  0.4314 -0.2739  2.5475
 6191SOL    HW223385   7.238   0.555   5.618  0.4085 -0.4215  1.8771
 6192SOL     OW23386  10.029   3.944   8.184 -0.5842  0.2497 -0.2611
 6192SOL    HW123387   9.948   3.921   8.230 -0.6722 -0.5676 -0.8084
 6192SOL    HW223388  10.001   3.961   8.093 -0.4969  2.3433  0.0377
 6193SOL     OW23389   1.248   5.988   6.001  0.5207 -0.4508  0.0686
 6193SOL    HW123390   1.321   6.047   6.016 -0.0725 -0.0775  1.6208
 6193SOL    HW223391   1.173   6.030   6.042 -0.1090 -1.8251  0.4146
 6194SOL     OW23392   3.214   5.042  11.065 -0.3763 -0.4881 -0.4406
 6194SOL    HW123393   3.126   5.030  11.103 -0.5931 -3.4531 -1.5732
 6194SOL    HW223394   3.200   5.098  10.989 -0.4058  3.0285  1.9269
 6195SOL     OW23395   9.887   3.982   3.512 -0.0343 -0.0908  0.7316
 6195SOL    HW123396   9.937   4.009   3.435 -0.5729  0.5664  0.6058
 6195SOL    HW223397   9.885   3.886   3.507  2.6658 -0.3015  1.6529
 6196SOL     OW23398   3.256   1.551   0.856 -0.0135  0.2017  0.4441
 6196SOL    HW123399   3.187   1.485   0.864  0.6085 -0.3169  1.9501
 6196SOL    HW223400   3.316   1.514   0.791  0.0229 -0.4550  0.8362
 6197SOL     OW23401   7.139   3.934   6.944  0.3026  0.2666  0.3836
 6197SOL    HW123402   7.175   3.907   6.859  0.5040 -0.4757  0.7057
 6197SOL    HW223403   7.153   3.860   7.002  1.0707  1.1330  1.3428
 6198SOL     OW23404   7.282  12.254  11.971 -0.3494 -0.3280 -0.2056
 6198SOL    HW123405   7.303  12.198  11.896  1.7175  2.1767 -1.7212
 6198SOL    HW223406   7.193  12.285  11.954 -0.7141 -1.4791 -0.4498
 6199SOL     OW23407   6.105   4.671   8.138  0.0606 -0.4643 -0.3274
 6199SOL    HW123408   6.158   4.600   8.104 -1.0732 -1.2360 -0.5571
 6199SOL    HW223409   6.020   4.661   8.094 -1.0222 -0.6674  1.6620
 6200SOL     OW23410   3.557   9.894   0.698 -0.0039 -0.1173 -0.2140
 6200SOL    HW123411   3.522   9.818   0.745 -2.1973  0.8884 -0.1070
 6200SOL    HW223412   3.590   9.951   0.767  3.1123 -1.5418 -0.3646
 6201SOL     OW23413   1.246  10.767   1.611 -0.1018  0.1813  0.4204
 6201SOL    HW123414   1.174  10.830   1.619  0.2278  0.4245  1.6182
 6201SOL    HW223415   1.213  10.688   1.655  0.8791  0.7712  2.3163
 6202SOL     OW23416   5.899  10.879   1.253  0.3530 -0.3507 -0.8289
 6202SOL    HW123417   5.949  10.921   1.323 -0.1172  2.4238 -2.0296
 6202SOL    HW223418   5.965  10.853   1.188  0.6547 -1.7010 -0.0344
 6203SOL     OW23419   9.995  10.096  11.456 -0.7828 -0.0038  0.0600
 6203SOL    HW123420  10.051  10.024  11.486 -0.0205  0.5766  0.0738
 6203SOL    HW223421   9.993  10.086  11.361  0.5686  0.8136 -0.0821
 6204SOL     OW23422   6.674   6.648   4.634  0.5304  0.3010  0.1849
 6204SOL    HW123423   6.614   6.581   4.666 -0.7215  1.1309 -0.3533
 6204SOL    HW223424   6.744   6.599   4.590 -0.5308 -0.6403 -0.4930
 6205SOL     OW23425   5.306   7.927   1.840 -0.1750  0.0625  0.9569
 6205SOL    HW123426   5.321   7.848   1.787  0.5539  0.4715  0.5341
 6205SOL    HW223427   5.219   7.957   1.816 -0.5130 -0.6851  1.2188
 6206SOL     OW23428   8.957   7.175  10.134  0.2392 -0.3021 -0.3736
 6206SOL    HW123429   8.873   7.204  10.170  0.7533  0.1888  0.4793
 6206SOL    HW223430   9.018   7.244  10.159  0.6302  0.1120 -2.2757
 6207SOL     OW23431  11.208   8.065   6.862  0.3241 -0.0190  0.1808
 6207SOL    HW123432  11.126   8.107   6.889  0.0521 -0.9713  0.9041
 6207SOL    HW223433  11.262   8.136   6.829 -0.3638  0.7936  0.7641
 6208SOL     OW23434   3.561   8.215   1.800 -0.0226 -0.2682  0.1139
 6208SOL    HW123435   3.486   8.187   1.748  1.1844  0.5424 -2.1654
 6208SOL    HW223436   3.586   8.136   1.849 -1.8616 -0.7519  0.3622
 6209SOL     OW23437  10.029   0.455   9.396  0.4419 -0.1929  0.4920
 6209SOL    HW123438  10.034   0.471   9.301  0.4280  0.3758  0.5831
 6209SOL    HW223439   9.936   0.441   9.413  0.4399 -0.2576  0.4305
 6210SOL     OW23440   2.927   6.765   6.224 -0.4939  0.6637  0.0858
 6210SOL    HW123441   2.834   6.766   6.246 -0.1434  0.5274  1.6659
 6210SOL    HW223442   2.970   6.805   6.299  0.5548  3.0001 -1.6117
 6211SOL     OW23443  11.843   5.012   0.531 -0.2070 -0.2898  0.1198
 6211SOL    HW123444  11.929   5.002   0.572  1.7687 -0.4470 -3.6138
 6211SOL    HW223445  11.827   5.106   0.531  0.6521 -0.1324 -0.3100
 6212SOL     OW23446  11.470   8.855  12.352  0.0713  0.3231  0.6086
 6212SOL    HW123447  11.532   8.893  12.415  0.4170  1.0391 -0.1474
 6212SOL    HW223448  11.520   8.788  12.306 -0.4829 -0.9729  1.8014
 6213SOL     OW23449   2.964   4.494   9.106 -0.2886  0.2916 -0.2745
 6213SOL    HW123450   2.886   4.485   9.051 -0.3272 -0.9239 -0.0451
 6213SOL    HW223451   2.950   4.575   9.156 -0.9575  0.5776 -0.9180
 6214SOL     OW23452   1.720   7.413   7.444  0.1823  0.0376 -0.0782
 6214SOL    HW123453   1.693   7.321   7.437 -2.1560  0.5716  1.1897
 6214SOL    HW223454   1.682   7.455   7.367  0.0887  0.2145  0.0651
 6215SOL     OW23455   8.702  10.061   5.414  0.7394 -0.5633  0.4933
 6215SOL    HW123456   8.623  10.024   5.375  1.5271 -0.8558 -0.9025
 6215SOL    HW223457   8.685  10.155   5.418 -0.0620 -0.7262  1.1569
 6216SOL     OW23458   9.884   0.029   9.786  0.7089  0.1686  0.3071
 6216SOL    HW123459   9.862   0.098   9.848 -0.4953  0.0247  0.0700
 6216SOL    HW223460   9.856  -0.052   9.830 -0.7880  0.1160 -0.6438
 6217SOL     OW23461   0.835   6.478   6.410  0.0603 -0.0426  0.2030
 6217SOL    HW123462   0.875   6.564   6.416 -0.6116  0.3036 -0.2324
 6217SOL    HW223463   0.763   6.480   6.473  0.0400 -0.2914  0.1911
 6218SOL     OW23464   7.072   0.141   8.439 -0.0244  0.4668 -0.3454
 6218SOL    HW123465   7.010   0.129   8.510 -0.1434  1.5872 -0.2358
 6218SOL    HW223466   7.128   0.063   8.442 -1.8616 -0.9234 -0.9304
 6219SOL     OW23467   7.248   6.823   5.499 -0.3688 -0.0219  0.1005
 6219SOL    HW123468   7.343   6.817   5.496 -0.3164  0.9001 -0.3601
 6219SOL    HW223469   7.219   6.791   5.414 -0.4481  0.1667  0.0575
 6220SOL     OW23470   4.728   4.738  11.429  0.1105 -0.5666  0.2443
 6220SOL    HW123471   4.648   4.770  11.387  0.6653 -0.5460 -0.8186
 6220SOL    HW223472   4.719   4.764  11.521  0.3536  2.3541 -0.4709
 6221SOL     OW23473   5.129   2.541   0.574 -0.7056 -0.4689  0.3432
 6221SOL    HW123474   5.059   2.479   0.595  0.5787 -1.6245  1.3662
 6221SOL    HW223475   5.136   2.597   0.651 -1.7990  0.9474 -0.5410
 6222SOL     OW23476   3.312  11.942  12.109 -0.1503 -0.0108 -0.2493
 6222SOL    HW123477   3.396  11.908  12.077 -0.6488 -1.2559 -0.2732
 6222SOL    HW223478   3.274  11.985  12.032  1.1099  1.9345  0.1369
 6223SOL     OW23479   5.718   1.739  10.265 -0.2114 -0.5466 -0.0298
 6223SOL    HW123480   5.653   1.759  10.333 -0.5831  1.0662 -0.8035
 6223SOL    HW223481   5.728   1.821  10.217  0.5588 -1.4519 -1.4976
 6224SOL     OW23482   7.314   3.066   9.229 -0.2067 -0.3778 -0.3515
 6224SOL    HW123483   7.369   3.002   9.184 -0.3539 -0.2465 -0.7219
 6224SOL    HW223484   7.325   3.147   9.179  0.5906  0.1024  0.5701
 6225SOL     OW23485   9.683   9.883   2.032  0.0605 -0.1709  0.0730
 6225SOL    HW123486   9.648   9.952   2.089  0.2609  1.2151 -1.4393
 6225SOL    HW223487   9.771   9.913   2.008  0.8792 -1.8201  0.7848
 6226SOL     OW23488  10.277  11.492   0.882 -0.0122  0.6375  0.1370
 6226SOL    HW123489  10.337  11.507   0.809 -0.2803  1.2444  0.0251
 6226SOL    HW223490  10.190  11.508   0.844 -0.2020  0.2872  0.4230
 6227SOL     OW23491   0.547   6.316   0.600  0.3746 -0.3193 -0.2218
 6227SOL    HW123492   0.557   6.255   0.672 -0.9653  1.5556  1.6833
 6227SOL    HW223493   0.493   6.269   0.536 -1.4198 -0.8810  1.5990
 6228SOL     OW23494   8.447   8.914   4.609  0.0533  0.1593  0.3022
 6228SOL    HW123495   8.431   8.958   4.526  0.0341  0.9084  0.6987
 6228SOL    HW223496   8.372   8.855   4.620  0.3111 -0.3286 -0.4503
 6229SOL     OW23497   7.390  11.349   1.671 -0.2415 -0.2851 -0.1707
 6229SOL    HW123498   7.359  11.344   1.762 -0.5857  1.3547 -0.1733
 6229SOL    HW223499   7.483  11.326   1.677  0.0970  1.1694  0.8449
 6230SOL     OW23500   0.405   0.694   1.860  0.6626  0.0748 -0.4757
 6230SOL    HW123501   0.439   0.609   1.832  1.1193  0.2208 -0.3791
 6230SOL    HW223502   0.363   0.676   1.944  1.5675  0.1062 -0.0054
 6231SOL     OW23503   8.299   1.051  12.326  0.0085  0.2939  0.3764
 6231SOL    HW123504   8.334   1.113  12.389  0.1698 -0.1045  0.6802
 6231SOL    HW223505   8.232   1.002  12.374  0.6483 -0.5143  0.4560
 6232SOL     OW23506   5.375   0.653   1.968  0.9378  0.3065 -0.2012
 6232SOL    HW123507   5.464   0.680   1.943  0.9814  2.5681  2.0694
 6232SOL    HW223508   5.387   0.602   2.048  0.1350  3.1642  1.8989
 6233SOL     OW23509   6.854  11.837  11.609 -0.1168 -0.3470 -0.3722
 6233SOL    HW123510   6.917  11.779  11.567  1.5598 -0.4494  2.0875
 6233SOL    HW223511   6.858  11.918  11.558  0.9373 -0.8456 -1.1056
 6234SOL     OW23512   4.751  12.168  12.295  0.4100  0.0251 -0.4132
 6234SOL    HW123513   4.667  12.198  12.261  0.4674  1.4931  0.6559
 6234SOL    HW223514   4.763  12.216  12.377  2.5144  0.2300 -0.7895
 6235SOL     OW23515   2.465   7.467   4.642  0.5568 -0.1326  0.3021
 6235SOL    HW123516   2.543   7.416   4.618  0.8029  0.7704 -0.9430
 6235SOL    HW223517   2.401   7.445   4.574  0.5792  0.9962 -0.0996
 6236SOL     OW23518   3.935  11.371   5.114 -0.0413 -0.4621  0.1172
 6236SOL    HW123519   4.004  11.328   5.063  0.6715  0.1886  0.5142
 6236SOL    HW223520   3.974  11.453   5.143 -2.0337  1.5220 -2.3554
 6237SOL     OW23521  11.923   0.005   2.090  0.4701  0.0551  0.7042
 6237SOL    HW123522  11.857   0.074   2.089 -0.0916 -0.4765 -0.0171
 6237SOL    HW223523  11.909  -0.042   2.172  0.3705  0.3412  0.8494
 6238SOL     OW23524   2.687   6.400   6.890  0.5256  0.0408 -0.1087
 6238SOL    HW123525   2.641   6.466   6.837 -1.8322 -1.2010  0.2507
 6238SOL    HW223526   2.746   6.451   6.945 -2.9054  2.2541  1.9207
 6239SOL     OW23527  11.711   8.741  11.114 -0.7078  0.4759  0.1998
 6239SOL    HW123528  11.790   8.717  11.066 -1.6722 -0.9741 -0.7742
 6239SOL    HW223529  11.640   8.727  11.051 -1.7123  2.4257  0.8112
 6240SOL     OW23530   8.513   8.615  12.000  0.1171  0.4042 -0.0050
 6240SOL    HW123531   8.594   8.605  12.050  1.0319  2.3244 -1.0290
 6240SOL    HW223532   8.540   8.621  11.909 -1.4088 -1.3958 -0.6504
 6241SOL     OW23533   6.464  11.653   3.010 -0.2809 -0.2176 -0.0428
 6241SOL    HW123534   6.558  11.670   3.006 -0.3781  0.2001 -0.7181
 6241SOL    HW223535   6.458  11.563   3.044  0.4682 -1.1409 -2.1739
 6242SOL     OW23536   2.599   7.882   4.974  0.0218 -0.2550  0.0764
 6242SOL    HW123537   2.601   7.839   5.059  0.4712  2.4626  1.5462
 6242SOL    HW223538   2.683   7.858   4.933  0.4895 -0.3507  1.0713
 6243SOL     OW23539   8.511  11.800  10.536 -0.1801 -0.0319  0.2286
 6243SOL    HW123540   8.508  11.857  10.459  1.6466  1.2910  1.0848
 6243SOL    HW223541   8.600  11.766  10.538 -0.0282  0.3817  2.0350
 6244SOL     OW23542   0.174  11.942   1.553 -0.5326 -0.6192  0.1887
 6244SOL    HW123543   0.107  11.991   1.600 -1.5476 -0.1325 -1.6581
 6244SOL    HW223544   0.224  11.898   1.622 -1.7852  0.2080  1.7057
 6245SOL     OW23545  12.578  10.842  11.107 -0.1161 -0.5811 -0.1206
 6245SOL    HW123546  12.539  10.867  11.191 -1.5515 -0.4163 -0.8042
 6245SOL    HW223547  12.583  10.746  11.111 -1.5697 -0.6893 -0.4065
 6246SOL     OW23548   1.010   0.180   8.972  0.2433  0.1811  0.0967
 6246SOL    HW123549   0.969   0.226   8.899 -1.2507 -0.0948  0.7166
 6246SOL    HW223550   1.001   0.240   9.046 -0.2433 -0.4107  0.5335
 6247SOL     OW23551   4.879  11.721   3.256 -0.0448  0.0839 -0.1403
 6247SOL    HW123552   4.891  11.699   3.348 -2.1066  2.4137  0.7896
 6247SOL    HW223553   4.898  11.640   3.209 -0.7232 -1.6953  2.4502
 6248SOL     OW23554   6.881  11.423   1.872 -0.2247 -0.5800  0.1720
 6248SOL    HW123555   6.826  11.372   1.813 -0.1110 -1.5306  0.8601
 6248SOL    HW223556   6.936  11.358   1.915 -0.6626  0.0362  1.7102
 6249SOL     OW23557   9.579   6.861   3.387 -0.0618  0.2691 -0.1121
 6249SOL    HW123558   9.671   6.880   3.369 -0.2632  2.5271  1.0056
 6249SOL    HW223559   9.581   6.796   3.457  0.6891  0.7233  0.2960
 6250SOL     OW23560   1.811   2.504   4.601 -0.1841  0.9059 -0.1896
 6250SOL    HW123561   1.750   2.502   4.674 -0.2647 -2.8029 -0.1900
 6250SOL    HW223562   1.890   2.461   4.633  0.0648 -0.1283 -2.0317
 6251SOL     OW23563   5.687   0.403   6.556  0.1699  0.4504 -0.4701
 6251SOL    HW123564   5.767   0.445   6.525  0.7808 -0.0567  0.3723
 6251SOL    HW223565   5.636   0.474   6.595 -0.1225  0.8978 -1.6085
 6252SOL     OW23566   8.226   9.481   4.553  0.3395  0.3754 -0.0407
 6252SOL    HW123567   8.266   9.461   4.468  1.1465 -3.2462  1.0339
 6252SOL    HW223568   8.286   9.542   4.594  0.8792  0.7473 -1.3267
 6253SOL     OW23569   4.117   0.831   2.104 -0.2757 -0.4719 -0.1483
 6253SOL    HW123570   4.192   0.888   2.089 -0.3811  0.2478  1.8144
 6253SOL    HW223571   4.049   0.866   2.046  0.4569 -0.2620 -0.8998
 6254SOL     OW23572   2.192   7.581   1.031 -0.0515 -0.0744 -0.2927
 6254SOL    HW123573   2.282   7.611   1.022  0.5445 -0.9424  2.0166
 6254SOL    HW223574   2.140   7.661   1.042  1.1062  0.3861  2.8125
 6255SOL     OW23575   5.158   9.431   0.034 -0.7734  0.3267  0.4280
 6255SOL    HW123576   5.077   9.473   0.063 -1.0919 -0.3912  0.5943
 6255SOL    HW223577   5.155   9.344   0.073 -0.3694 -0.0375 -0.3395
 6256SOL     OW23578  12.334   8.763   8.281 -0.2050  0.2804 -0.1808
 6256SOL    HW123579  12.402   8.808   8.331  0.2629  0.1643 -0.7000
 6256SOL    HW223580  12.266   8.744   8.345 -0.3493  1.5805  0.0940
 6257SOL     OW23581   2.466  10.850  11.526 -0.1625  0.4089  0.1959
 6257SOL    HW123582   2.437  10.912  11.459  0.4079  0.0531 -0.3837
 6257SOL    HW223583   2.527  10.792  11.481  0.2536  0.1838  1.0311
 6258SOL     OW23584   9.281   3.499   3.970  0.5234 -0.4813 -0.1157
 6258SOL    HW123585   9.327   3.446   4.035 -0.1299 -0.8257  0.0769
 6258SOL    HW223586   9.249   3.575   4.019 -1.1967 -1.4342  0.3097
 6259SOL     OW23587  10.827   6.980  11.799 -0.1344  0.1101 -0.2711
 6259SOL    HW123588  10.832   7.060  11.852 -0.4157 -0.3205  0.4179
 6259SOL    HW223589  10.903   6.929  11.825  0.5991  0.5621 -1.4262
 6260SOL     OW23590  10.995  12.216  11.273 -0.7351 -0.1084 -0.0369
 6260SOL    HW123591  11.044  12.296  11.293  0.0282 -0.9727  1.8660
 6260SOL    HW223592  11.063  12.150  11.257 -1.2698 -0.9838  1.1385
 6261SOL     OW23593  10.157   1.743  10.465  0.2745 -0.0949  0.1814
 6261SOL    HW123594  10.146   1.832  10.434 -0.2692 -0.1050  0.3430
 6261SOL    HW223595  10.250   1.723  10.449 -0.0419 -0.2258 -1.7394
 6262SOL     OW23596   4.631   8.222   0.794  0.4553 -0.5668  0.7083
 6262SOL    HW123597   4.684   8.178   0.860  1.3403 -0.5435  0.0374
 6262SOL    HW223598   4.558   8.162   0.778  1.4418 -1.6377  0.0907
 6263SOL     OW23599   7.460   1.865   0.146 -0.0701 -0.0846 -0.1026
 6263SOL    HW123600   7.553   1.857   0.165  0.2327 -0.2665 -1.5467
 6263SOL    HW223601   7.451   1.952   0.106 -0.8110  0.6171  1.5043
 6264SOL     OW23602   5.052   0.625   1.725  0.3656 -0.1690  0.1839
 6264SOL    HW123603   5.068   0.540   1.765  0.2585 -0.6034 -0.6816
 6264SOL    HW223604   5.004   0.606   1.645 -1.0023  0.8163  0.7223
 6265SOL     OW23605   7.354  11.115   2.031  0.0425  0.4683  0.3879
 6265SOL    HW123606   7.350  11.022   2.006 -2.4735  0.7003 -0.4167
 6265SOL    HW223607   7.429  11.150   1.983  0.2056 -0.8798 -0.3844
 6266SOL     OW23608   4.245  12.202   5.330 -0.3307  0.3206  0.2977
 6266SOL    HW123609   4.205  12.138   5.271 -1.5519  0.7910  0.5916
 6266SOL    HW223610   4.184  12.275   5.330  1.0762  1.5405 -0.0933
 6267SOL     OW23611   7.549  10.180   5.430 -0.0131 -0.0110 -0.1489
 6267SOL    HW123612   7.564  10.257   5.484 -0.8993  0.7717 -0.9776
 6267SOL    HW223613   7.455  10.177   5.417 -0.0858 -1.6327  0.3994
 6268SOL     OW23614   9.953   0.147   3.640 -0.6435 -0.1325 -0.0919
 6268SOL    HW123615  10.045   0.161   3.618  0.0450 -2.9870  0.5315
 6268SOL    HW223616   9.952   0.141   3.735 -1.0025 -2.4592 -0.1948
 6269SOL     OW23617   5.701   7.366   9.060 -0.0235 -0.3168 -0.1972
 6269SOL    HW123618   5.636   7.396   8.996  0.0617 -0.1697 -0.2146
 6269SOL    HW223619   5.786   7.387   9.021  0.0198  1.2204  0.6464
 6270SOL     OW23620   0.199   2.153   6.046 -0.4682 -0.2701 -0.1556
 6270SOL    HW123621   0.287   2.189   6.056 -0.9642  0.4038  2.3236
 6270SOL    HW223622   0.178   2.168   5.953  2.2117 -1.0284 -0.9723
 6271SOL     OW23623   6.487   3.163   9.361  0.0540 -0.4297 -0.1745
 6271SOL    HW123624   6.527   3.236   9.315  1.0774 -1.2405 -0.6162
 6271SOL    HW223625   6.404   3.147   9.315 -0.0998  0.3377 -0.1683
 6272SOL     OW23626  11.865   1.068   3.468 -0.4769 -0.1127 -0.0327
 6272SOL    HW123627  11.890   1.011   3.541 -0.1289  1.5003  1.1679
 6272SOL    HW223628  11.776   1.041   3.446 -1.0586  0.1565  1.8232
 6273SOL     OW23629   6.469  11.371  10.735 -0.7773  0.3253  0.4648
 6273SOL    HW123630   6.453  11.444  10.675  0.8925  0.6534  0.3825
 6273SOL    HW223631   6.497  11.411  10.816 -0.9094 -0.2023  0.7795
 6274SOL     OW23632   8.813   8.471   4.336  0.4257  0.0063 -0.1771
 6274SOL    HW123633   8.778   8.509   4.417 -0.9060  0.7325 -1.0640
 6274SOL    HW223634   8.792   8.535   4.268 -1.4925 -2.0300 -1.6565
 6275SOL     OW23635   0.047  11.032   5.207 -0.1051  0.5703 -0.2669
 6275SOL    HW123636  -0.015  11.104   5.200  1.4298  2.2689  2.0186
 6275SOL    HW223637  -0.006  10.953   5.197 -2.0712  1.9628 -1.4859
 6276SOL     OW23638   4.811   7.011   2.585 -0.0476 -0.2269  0.3468
 6276SOL    HW123639   4.801   6.999   2.679 -0.7857 -0.3424  0.2613
 6276SOL    HW223640   4.850   6.930   2.554 -0.3756 -0.4329  0.4698
 6277SOL     OW23641   2.682   4.004   2.271 -0.2411  0.1179  0.4588
 6277SOL    HW123642   2.701   4.095   2.251 -0.5962  0.0052 -0.4623
 6277SOL    HW223643   2.727   3.954   2.202 -2.1306 -0.2443 -0.5989
 6278SOL     OW23644   0.619   5.462   1.843  0.6130 -0.2784  0.0266
 6278SOL    HW123645   0.561   5.430   1.912  0.5993 -0.5143 -0.0932
 6278SOL    HW223646   0.691   5.400   1.840  1.2402  0.4031  0.6531
 6279SOL     OW23647   8.571   8.949   8.787  0.1730  0.2447  0.5289
 6279SOL    HW123648   8.577   8.864   8.832  0.0364 -0.2150 -0.2926
 6279SOL    HW223649   8.479   8.974   8.795  0.1765  0.2269  0.6228
 6280SOL     OW23650   0.835   0.176  10.644  0.7851  0.3296 -0.1213
 6280SOL    HW123651   0.899   0.127  10.697  1.3419  0.5074 -0.6232
 6280SOL    HW223652   0.758   0.183  10.701 -0.0029 -2.6642 -0.6287
 6281SOL     OW23653   4.008   8.113   2.216  0.0527 -0.4988  0.6476
 6281SOL    HW123654   4.070   8.041   2.228  2.3982  1.2452 -0.2154
 6281SOL    HW223655   4.037   8.180   2.277 -0.7734  0.4926 -0.0157
 6282SOL     OW23656  12.499  11.845  10.782 -0.3474 -0.4995  0.4416
 6282SOL    HW123657  12.562  11.904  10.825 -0.5863  0.0708  0.0302
 6282SOL    HW223658  12.413  11.880  10.807 -0.4906 -0.6864  0.2108
 6283SOL     OW23659   9.156  11.432   5.518 -0.0996  0.1616 -0.0208
 6283SOL    HW123660   9.239  11.417   5.563 -0.2276 -1.7458 -0.3026
 6283SOL    HW223661   9.089  11.404   5.580 -0.2561 -3.0659 -1.4302
 6284SOL     OW23662   2.467   6.943   9.414  1.1008  0.3650  0.2892
 6284SOL    HW123663   2.449   6.877   9.481 -0.6389 -0.3756 -0.8196
 6284SOL    HW223664   2.558   6.928   9.389  1.3022 -0.3693  1.3843
 6285SOL     OW23665   2.251  11.274   4.181 -0.0483 -0.0538  0.5172
 6285SOL    HW123666   2.270  11.299   4.091 -0.0961  0.7666  0.7319
 6285SOL    HW223667   2.171  11.321   4.203 -0.1148 -0.3578  0.9469
 6286SOL     OW23668   0.112   1.360   0.474  0.4038 -0.6425 -0.5438
 6286SOL    HW123669   0.067   1.428   0.524 -0.5853 -1.3292 -0.4502
 6286SOL    HW223670   0.195   1.347   0.520  0.4682  0.2765 -0.3903
 6287SOL     OW23671  11.623   0.688   1.201  0.2538  0.5419  0.1214
 6287SOL    HW123672  11.642   0.653   1.288  0.1335  1.6550  0.6207
 6287SOL    HW223673  11.569   0.765   1.218 -0.4131  0.3377 -0.9928
 6288SOL     OW23674   1.820   6.524   6.809 -0.1344 -0.1756 -0.1929
 6288SOL    HW123675   1.856   6.577   6.880 -0.5916 -0.1512  0.0209
 6288SOL    HW223676   1.734   6.496   6.840 -0.0933 -0.6524 -0.4975
 6289SOL     OW23677  12.416   8.798   8.963 -0.0855 -0.1808 -0.2686
 6289SOL    HW123678  12.373   8.883   8.972 -0.6886 -0.4917 -0.1821
 6289SOL    HW223679  12.420   8.763   9.051  1.6936  0.4796 -0.0451
 6290SOL     OW23680   5.024   8.288   0.135 -0.0863 -0.3010  0.1153
 6290SOL    HW123681   4.940   8.292   0.181 -1.5144 -1.3610 -2.2679
 6290SOL    HW223682   5.049   8.380   0.124  0.5269  0.0223  3.1856
 6291SOL     OW23683   4.524   9.289   0.410 -0.2732  0.0706 -0.4476
 6291SOL    HW123684   4.455   9.354   0.423  0.0908  0.3639  0.0601
 6291SOL    HW223685   4.518   9.232   0.487 -0.6533 -0.5661 -0.9358
 6292SOL     OW23686   4.881   9.183   1.789 -0.2070 -0.1879  0.1570
 6292SOL    HW123687   4.808   9.202   1.848  1.0524 -0.8178  1.9965
 6292SOL    HW223688   4.956   9.169   1.847  1.7572  1.8380 -1.6876
 6293SOL     OW23689   1.796  11.063   9.973 -0.0436 -0.3718 -0.4534
 6293SOL    HW123690   1.744  11.010   9.912  0.1549  1.1159 -1.9946
 6293SOL    HW223691   1.887  11.042   9.950  0.0328 -0.3599 -0.1584
 6294SOL     OW23692   7.196   7.414  10.980 -0.2055  0.1049 -0.1804
 6294SOL    HW123693   7.123   7.368  10.939  0.2490 -0.9053  0.1170
 6294SOL    HW223694   7.240   7.347  11.032 -0.8584  1.3490  2.1363
 6295SOL     OW23695   2.292   1.563   7.445 -0.2676 -0.5273 -0.3420
 6295SOL    HW123696   2.256   1.483   7.408 -0.3208 -0.2684 -0.8609
 6295SOL    HW223697   2.244   1.576   7.527  0.0915 -1.2894 -0.0047
 6296SOL     OW23698  11.921   0.914   2.273 -1.0572  0.1293 -0.0720
 6296SOL    HW123699  12.008   0.874   2.265 -2.0272 -2.1880  0.2282
 6296SOL    HW223700  11.938   1.008   2.279  1.5415 -0.3501  1.6628
 6297SOL     OW23701  11.721  10.027   8.212  0.6039 -0.4566  0.1457
 6297SOL    HW123702  11.633   9.989   8.219  1.1825 -1.7631  0.6220
 6297SOL    HW223703  11.714  10.112   8.257 -0.6159 -0.1526 -0.5786
 6298SOL     OW23704   7.635   5.354   5.814  0.2309 -0.4415 -0.2205
 6298SOL    HW123705   7.561   5.370   5.873  1.0253 -2.2787  1.3711
 6298SOL    HW223706   7.595   5.325   5.732 -0.8482  0.6522 -0.1070
 6299SOL     OW23707   7.150   0.937  11.592 -0.3100  0.4890  0.7249
 6299SOL    HW123708   7.060   0.957  11.564 -0.0287  1.0685  0.2065
 6299SOL    HW223709   7.185   0.882  11.522  0.1497  1.3275  0.2731
 6300SOL     OW23710   4.196  11.572   5.648 -0.6739 -0.4931  0.0323
 6300SOL    HW123711   4.232  11.628   5.579  0.1215  0.0096  0.8300
 6300SOL    HW223712   4.104  11.599   5.655 -1.0668 -1.2813 -1.5308
 6301SOL     OW23713   8.262   3.493   4.868  0.1858 -0.4307  0.1682
 6301SOL    HW123714   8.304   3.493   4.954 -2.3753 -0.4535  1.5195
 6301SOL    HW223715   8.275   3.582   4.835 -0.5145  0.2027  1.5259
 6302SOL     OW23716   3.606   0.524  11.369  0.3619 -0.3202 -0.3946
 6302SOL    HW123717   3.572   0.611  11.345 -0.5880 -0.3968  0.5709
 6302SOL    HW223718   3.590   0.470  11.292  0.4158  0.2134 -0.7914
 6303SOL     OW23719  10.402   6.962   7.303 -0.3983  0.2147  0.4311
 6303SOL    HW123720  10.323   6.938   7.254 -0.1697  2.1653 -0.9957
 6303SOL    HW223721  10.370   7.000   7.384 -1.0236  1.9808 -0.5973
 6304SOL     OW23722   2.058   9.762   8.618 -0.3352 -0.4566  0.2498
 6304SOL    HW123723   2.051   9.778   8.712  0.8860  0.6389  0.1962
 6304SOL    HW223724   2.028   9.672   8.607 -0.8313 -0.4961  1.6324
 6305SOL     OW23725   4.492  10.949   3.945 -0.0950 -0.1809 -0.0857
 6305SOL    HW123726   4.580  10.953   3.907  1.2808 -2.7421  2.4084
 6305SOL    HW223727   4.495  11.011   4.018  0.5166 -1.7741  1.3348
 6306SOL     OW23728  10.179   2.192   9.281  0.1139  0.0183 -0.0966
 6306SOL    HW123729  10.108   2.136   9.250 -0.2246  0.0475  0.6249
 6306SOL    HW223730  10.257   2.156   9.240 -0.4629  0.8285 -2.0367
 6307SOL     OW23731   7.703   2.162  11.480  0.3555 -0.1190  0.0225
 6307SOL    HW123732   7.773   2.149  11.544 -1.1564  1.4796  2.1628
 6307SOL    HW223733   7.737   2.230  11.421  0.3678  1.2721  1.5505
 6308SOL     OW23734   1.616  11.259   1.929  0.2096 -0.2782  0.3952
 6308SOL    HW123735   1.607  11.346   1.891  0.9516 -0.5754 -0.4994
 6308SOL    HW223736   1.711  11.243   1.929  0.0732 -1.1450  0.4034
 6309SOL     OW23737   3.641   3.949   0.380 -0.0981  0.5968 -0.2860
 6309SOL    HW123738   3.558   3.959   0.426  0.0173 -3.2553  1.1782
 6309SOL    HW223739   3.708   3.964   0.447  0.2026 -0.7672 -0.2526
 6310SOL     OW23740   8.567   7.594   1.080  0.0164 -0.2131 -0.1514
 6310SOL    HW123741   8.586   7.511   1.036 -1.5266 -0.1964 -0.9119
 6310SOL    HW223742   8.497   7.633   1.028 -0.5776  0.6984  1.2733
 6311SOL     OW23743  10.556   2.526   6.998 -0.4249 -0.4032  0.2218
 6311SOL    HW123744  10.612   2.470   6.945 -0.4004 -0.2023  0.0311
 6311SOL    HW223745  10.514   2.585   6.935 -1.5037 -1.1000  0.2526
 6312SOL     OW23746   0.502   5.276   3.616 -0.3597 -0.2922 -0.3632
 6312SOL    HW123747   0.409   5.296   3.613 -0.1915  1.1436  1.9131
 6312SOL    HW223748   0.543   5.343   3.561 -0.5325  0.1394  0.0342
 6313SOL     OW23749   9.240  10.089  11.775  0.3748  0.3395  0.3531
 6313SOL    HW123750   9.218  10.156  11.839  0.7706 -0.1101  0.9795
 6313SOL    HW223751   9.255  10.137  11.693  0.8744  1.0382  0.8423
 6314SOL     OW23752   7.502   2.867   7.449  0.3074 -0.4282  0.4499
 6314SOL    HW123753   7.440   2.863   7.376  1.2003  0.4317 -0.3732
 6314SOL    HW223754   7.512   2.776   7.477 -1.1908 -0.6115  0.5071
 6315SOL     OW23755   0.307   2.830   0.338 -0.4884 -0.4939  0.0210
 6315SOL    HW123756   0.294   2.737   0.324 -0.3136 -0.4693 -0.3120
 6315SOL    HW223757   0.228   2.871   0.300  0.1824 -0.3973 -1.3238
 6316SOL     OW23758  10.738   3.289   3.996 -0.7490 -0.3025  0.3673
 6316SOL    HW123759  10.697   3.313   4.079 -1.2862 -1.8313  0.5661
 6316SOL    HW223760  10.671   3.307   3.930  0.1231  2.1794  0.0438
 6317SOL     OW23761  12.438   4.506   3.647  0.2772 -0.7585  0.6022
 6317SOL    HW123762  12.476   4.432   3.599  0.3688  0.5320 -1.3821
 6317SOL    HW223763  12.512   4.563   3.666 -0.2387  0.5937 -1.1654
 6318SOL     OW23764   7.569  10.653   1.733  0.0394  0.1237  0.9006
 6318SOL    HW123765   7.527  10.572   1.760  0.1210 -0.0266  0.5850
 6318SOL    HW223766   7.518  10.722   1.777 -1.4554  0.0342 -0.5693
 6319SOL     OW23767   3.509   9.145   0.928  0.1223 -0.2804  0.2193
 6319SOL    HW123768   3.444   9.129   0.996  0.6000 -0.4341  0.6479
 6319SOL    HW223769   3.471   9.109   0.849 -0.2636 -0.4780  0.4926
 6320SOL     OW23770  11.773   6.466   7.696 -0.0780 -0.1163 -0.3469
 6320SOL    HW123771  11.766   6.502   7.607  0.9290 -4.2890 -2.4043
 6320SOL    HW223772  11.683   6.461   7.728 -0.5666  0.6052 -1.5600
 6321SOL     OW23773   3.645   2.558   0.082 -0.4031 -0.0461  0.0793
 6321SOL    HW123774   3.585   2.594   0.016  2.5555  0.4690 -2.6035
 6321SOL    HW223775   3.667   2.471   0.049  1.9609  0.6310 -0.3534
 6322SOL     OW23776   1.788   0.627   7.784 -0.3039  0.0530 -0.0187
 6322SOL    HW123777   1.741   0.710   7.789 -0.3278  0.1264 -1.1536
 6322SOL    HW223778   1.866   0.640   7.838 -1.3845  0.0430  1.6043
 6323SOL     OW23779   3.798  10.876   9.237  0.4175 -0.4425  0.1141
 6323SOL    HW123780   3.733  10.830   9.292  0.3334  0.3140  0.6688
 6323SOL    HW223781   3.871  10.814   9.230 -0.6384 -1.6158 -1.1335
 6324SOL     OW23782   9.467   0.383  11.191  0.6221  0.5918 -0.6662
 6324SOL    HW123783   9.449   0.424  11.276 -2.4352 -0.1643 -0.8250
 6324SOL    HW223784   9.450   0.290  11.205  0.1855  0.4383 -2.0568
 6325SOL     OW23785   2.243   8.283   8.047 -0.0843  0.2901 -0.0571
 6325SOL    HW123786   2.214   8.259   7.959 -1.2580 -1.0135  0.6472
 6325SOL    HW223787   2.174   8.341   8.079 -0.5196 -0.5723  0.5975
 6326SOL     OW23788  11.693  12.614   2.334  0.2810 -0.3141 -0.4199
 6326SOL    HW123789  11.749  12.586   2.406 -0.1117 -1.4456 -0.5489
 6326SOL    HW223790  11.606  12.623   2.372  0.2990  0.2363 -0.4976
 6327SOL     OW23791  10.978   1.345   5.644 -0.6704  0.5857 -0.3439
 6327SOL    HW123792  11.072   1.364   5.644 -0.7259  0.9355  1.0334
 6327SOL    HW223793  10.936   1.431   5.646 -1.0497  0.4455 -1.3895
 6328SOL     OW23794   5.369   2.554   0.932 -0.5660 -0.4889 -0.1087
 6328SOL    HW123795   5.445   2.594   0.890  1.1393 -0.8454  2.4194
 6328SOL    HW223796   5.296   2.574   0.874  1.2062  1.1533 -1.9014
 6329SOL     OW23797  11.111  10.773   0.267 -0.5550  0.2461  0.1233
 6329SOL    HW123798  11.152  10.832   0.331  0.6129  0.2923 -0.6402
 6329SOL    HW223799  11.135  10.685   0.297 -0.8340  0.2232  0.2858
 6330SOL     OW23800   6.806   9.149   8.698 -0.4025 -0.1050  0.4479
 6330SOL    HW123801   6.897   9.177   8.689 -0.4802 -0.1952 -0.6932
 6330SOL    HW223802   6.760   9.227   8.729 -0.2078  0.4012 -0.4910
 6331SOL     OW23803   7.916   5.132   2.821  0.2633  0.4374 -0.7271
 6331SOL    HW123804   7.928   5.040   2.797  0.0065 -0.0269  0.8250
 6331SOL    HW223805   7.826   5.152   2.794  0.2333  0.1515 -0.8434
 6332SOL     OW23806   4.052  10.610   7.708 -0.0344  0.1240 -0.5855
 6332SOL    HW123807   4.068  10.597   7.615  1.1582  1.5874 -0.6187
 6332SOL    HW223808   4.137  10.594   7.750  0.0917  1.9433 -0.0543
 6333SOL     OW23809  11.039   3.088  11.530  0.1279 -0.5431  0.2021
 6333SOL    HW123810  10.986   3.125  11.601  0.4848 -1.6761  1.0810
 6333SOL    HW223811  10.976   3.070  11.460 -0.0088  2.0250 -0.4240
 6334SOL     OW23812   1.485   1.513   8.821  0.1798 -0.2355  0.3989
 6334SOL    HW123813   1.415   1.516   8.756 -1.3443 -0.5709  1.9391
 6334SOL    HW223814   1.550   1.575   8.789 -1.0918  0.5324 -0.8063
 6335SOL     OW23815   2.428   0.035  12.078 -0.3482  0.2022 -0.3688
 6335SOL    HW123816   2.352   0.032  12.136  0.3627  0.1562  0.5800
 6335SOL    HW223817   2.419  -0.044  12.024 -0.3513 -0.4320  0.5446
 6336SOL     OW23818   3.748   6.326   5.574 -0.4779  0.1078  0.6670
 6336SOL    HW123819   3.679   6.355   5.515  1.5762  0.6977 -1.6017
 6336SOL    HW223820   3.760   6.233   5.553 -0.4919  0.0461  0.9353
 6337SOL     OW23821   7.210  10.920   5.291 -0.0227  0.3412  0.1983
 6337SOL    HW123822   7.128  10.874   5.310  0.6135 -1.3351 -0.8837
 6337SOL    HW223823   7.192  11.012   5.314 -1.6272 -0.2663  1.5945
 6338SOL     OW23824   4.390   3.143  12.281 -0.7959  0.9406  0.2611
 6338SOL    HW123825   4.413   3.235  12.290 -0.9153  1.0350 -0.3398
 6338SOL    HW223826   4.473   3.096  12.286 -0.6767  1.1256  0.0216
 6339SOL     OW23827  11.754  11.217  12.165  0.1933  0.3313 -0.6107
 6339SOL    HW123828  11.703  11.148  12.122  0.4587 -0.2197 -0.0410
 6339SOL    HW223829  11.696  11.293  12.163 -2.3492 -1.1933  3.4173
 6340SOL     OW23830   9.720   8.649   2.224  0.0158  0.0941 -0.4046
 6340SOL    HW123831   9.641   8.596   2.228  1.1426 -1.5994  0.6937
 6340SOL    HW223832   9.699   8.727   2.276 -0.8197 -0.4960  0.1614
 6341SOL     OW23833   2.670   6.373   8.584 -0.3150  0.2989 -0.5638
 6341SOL    HW123834   2.670   6.285   8.546  0.0327 -1.1821  2.5049
 6341SOL    HW223835   2.749   6.415   8.550  0.5117 -1.2913 -0.6750
 6342SOL     OW23836   3.508  11.370  11.245  0.1887  0.3141  0.0973
 6342SOL    HW123837   3.551  11.390  11.162  0.8916  0.4548  0.4867
 6342SOL    HW223838   3.442  11.303  11.223  0.2455  0.4820 -0.5959
 6343SOL     OW23839   4.591   8.375   3.465  0.0100  0.4123  0.2235
 6343SOL    HW123840   4.600   8.337   3.552 -0.1717  1.3047  0.6390
 6343SOL    HW223841   4.653   8.327   3.411 -0.2329 -0.4836  0.7284
 6344SOL     OW23842   7.401   5.953   6.214  0.0709  0.6658 -0.0842
 6344SOL    HW123843   7.463   5.946   6.142  0.5319  1.3055  0.2359
 6344SOL    HW223844   7.315   5.945   6.173  0.3490 -2.1967 -0.3118
 6345SOL     OW23845   1.115   0.482   4.730 -0.3309  0.3746 -0.2911
 6345SOL    HW123846   1.177   0.409   4.720  0.8382  1.1570  0.9548
 6345SOL    HW223847   1.060   0.477   4.651  1.8005  0.1078 -1.8440
 6346SOL     OW23848   8.653   3.167   4.819 -0.3149 -0.5611  0.0508
 6346SOL    HW123849   8.683   3.087   4.862 -1.3792 -1.4826 -0.8663
 6346SOL    HW223850   8.560   3.172   4.840 -0.2805  0.4008  0.0193
 6347SOL     OW23851   4.532  10.964   6.494 -0.3251 -0.1556 -0.4942
 6347SOL    HW123852   4.479  10.892   6.528 -0.8872  0.2367 -0.5192
 6347SOL    HW223853   4.543  10.944   6.401  0.0987 -0.5545 -0.3619
 6348SOL     OW23854   4.277   2.761   9.305 -0.8844  0.0423  0.6125
 6348SOL    HW123855   4.184   2.785   9.301 -1.6388 -2.5035  0.9839
 6348SOL    HW223856   4.289   2.700   9.233  0.6589  0.6568  0.3037
 6349SOL     OW23857   6.261   4.042   6.487  0.0070 -0.2684 -0.1855
 6349SOL    HW123858   6.208   3.970   6.454 -1.5350  1.1087 -0.8703
 6349SOL    HW223859   6.218   4.121   6.454  0.6586  1.0473  1.8977
 6350SOL     OW23860  11.593   0.113   6.436 -0.3141 -0.1267 -0.8909
 6350SOL    HW123861  11.583   0.174   6.363  1.4634  0.6033 -0.5998
 6350SOL    HW223862  11.621   0.168   6.510  0.8654 -1.2098 -0.4884
 6351SOL     OW23863  12.564   7.874   5.342 -0.9253 -0.0130 -0.5993
 6351SOL    HW123864  12.627   7.825   5.396 -0.1476  0.3158 -1.1927
 6351SOL    HW223865  12.502   7.911   5.405  0.8255  1.6304  0.2562
 6352SOL     OW23866   3.961   5.302   8.822  0.5158  0.0418  0.2777
 6352SOL    HW123867   3.913   5.262   8.895  0.1489 -0.6504 -0.3263
 6352SOL    HW223868   4.038   5.342   8.862  0.0219  0.1732  1.1164
 6353SOL     OW23869   5.207   0.706   9.270  0.0592  0.4103 -0.4356
 6353SOL    HW123870   5.173   0.757   9.343  0.0095 -0.2289  0.0032
 6353SOL    HW223871   5.301   0.720   9.273  0.0976  0.0985 -0.0124
 6354SOL     OW23872   2.684   5.380   9.082  0.2354 -0.2600  0.3910
 6354SOL    HW123873   2.637   5.358   9.002 -0.5451 -1.5584  1.1724
 6354SOL    HW223874   2.650   5.466   9.108  0.2071 -0.0176 -0.4417
 6355SOL     OW23875   8.984   2.591   4.760  0.3206  0.3308  0.4415
 6355SOL    HW123876   8.936   2.662   4.718 -0.0534 -1.0092 -1.5547
 6355SOL    HW223877   8.949   2.511   4.719  0.3691 -1.0699  2.9295
 6356SOL     OW23878   5.085   1.877   0.550  0.0177  0.1598 -0.0998
 6356SOL    HW123879   5.031   1.821   0.605 -0.3360  1.2760  0.7339
 6356SOL    HW223880   5.175   1.859   0.576 -0.0873 -0.0820  0.0949
 6357SOL     OW23881   0.741   8.061   3.589  0.2131 -0.5004  0.5443
 6357SOL    HW123882   0.780   8.010   3.660  2.4847 -1.1308 -1.0574
 6357SOL    HW223883   0.703   8.137   3.633  0.2506 -1.5836  2.5617
 6358SOL     OW23884  11.131   9.313   8.669 -0.6779  0.2587 -0.4590
 6358SOL    HW123885  11.143   9.244   8.603 -0.7630  0.9447 -1.1939
 6358SOL    HW223886  11.188   9.384   8.640  0.3708  0.0481  0.9709
 6359SOL     OW23887   4.695  11.263   6.965 -0.0173 -0.8979  0.3361
 6359SOL    HW123888   4.606  11.293   6.943 -0.2281 -1.8964 -0.2313
 6359SOL    HW223889   4.705  11.180   6.917  1.3240 -0.6681  0.1694
 6360SOL     OW23890   1.209   8.847   0.512 -0.1861  0.3759  0.1737
 6360SOL    HW123891   1.173   8.865   0.424 -2.9841 -1.7062  0.7552
 6360SOL    HW223892   1.238   8.756   0.508  1.1099  0.7306  1.0092
 6361SOL     OW23893   9.250   0.269   4.135 -0.2620  0.1635 -0.0396
 6361SOL    HW123894   9.204   0.188   4.157 -2.1001  1.2105  0.1737
 6361SOL    HW223895   9.293   0.251   4.052  0.2380 -1.3504  0.5251
 6362SOL     OW23896  12.241   5.466   6.503 -0.0367 -0.2913  0.0847
 6362SOL    HW123897  12.256   5.493   6.412 -0.0773 -0.9874 -0.1352
 6362SOL    HW223898  12.213   5.374   6.496  0.7738 -0.6080  0.8539
 6363SOL     OW23899   6.321   8.081  12.559 -0.4327 -0.1278  0.4678
 6363SOL    HW123900   6.242   8.131  12.580  0.7758  1.2477  1.9858
 6363SOL    HW223901   6.291   7.990  12.558 -2.2272  0.4129 -0.0611
 6364SOL     OW23902  12.040   7.604   2.738  0.1258 -0.0638 -0.1655
 6364SOL    HW123903  12.061   7.589   2.646  0.1313 -0.5506 -0.0841
 6364SOL    HW223904  12.100   7.674   2.764  0.2227 -0.0212 -0.4928
 6365SOL     OW23905   3.307   3.174  12.627 -0.3477 -0.1885 -0.3045
 6365SOL    HW123906   3.256   3.119  12.687  0.6766  0.7556  1.5070
 6365SOL    HW223907   3.270   3.261  12.637 -0.1393 -0.0086 -1.0395
 6366SOL     OW23908   1.348   1.489   4.436  0.4487 -0.2282 -0.3036
 6366SOL    HW123909   1.339   1.547   4.360 -1.0242  1.5581  1.1374
 6366SOL    HW223910   1.401   1.416   4.404  0.9485  1.0657 -2.6852
 6367SOL     OW23911  10.733   7.666   1.079 -0.3005  0.0851  0.3308
 6367SOL    HW123912  10.693   7.691   0.996  0.0381  0.0752  0.1648
 6367SOL    HW223913  10.818   7.629   1.055 -0.5036 -0.5754  0.6289
 6368SOL     OW23914   4.272   9.583   7.462  0.2623 -0.3072 -0.4166
 6368SOL    HW123915   4.265   9.614   7.553  0.1545  0.8379 -0.8028
 6368SOL    HW223916   4.300   9.491   7.470 -0.6436 -0.4985  0.7935
 6369SOL     OW23917   6.002   7.173   4.745  0.2349 -0.0572 -0.3598
 6369SOL    HW123918   5.923   7.222   4.721 -0.1129 -0.0840  0.6951
 6369SOL    HW223919   5.971   7.103   4.802  0.6692 -1.7989 -2.1417
 6370SOL     OW23920   6.491   6.119   4.678 -0.3036 -0.4620 -0.3465
 6370SOL    HW123921   6.436   6.041   4.676  0.2142 -0.8249 -2.0455
 6370SOL    HW223922   6.498   6.141   4.771  0.7138 -3.2689  0.3392
 6371SOL     OW23923   7.220   3.549   0.292  0.0908 -0.0183  0.1367
 6371SOL    HW123924   7.131   3.515   0.296  0.0967 -0.2296 -1.1061
 6371SOL    HW223925   7.266   3.492   0.231  1.4087 -0.5810  1.5751
 6372SOL     OW23926   6.243   8.295   6.533 -0.1913  0.3231 -0.1215
 6372SOL    HW123927   6.285   8.210   6.535 -0.6920  0.0694 -0.3100
 6372SOL    HW223928   6.300   8.349   6.478 -0.2160 -0.0727 -0.5405
 6373SOL     OW23929   6.772   2.993   6.103 -0.0017 -0.4787 -0.5821
 6373SOL    HW123930   6.797   3.080   6.134 -0.2031 -0.4799 -0.4090
 6373SOL    HW223931   6.696   3.009   6.046  0.0707 -0.5237 -0.6921
 6374SOL     OW23932   2.854   7.182   1.785 -0.6025 -0.3558 -0.3109
 6374SOL    HW123933   2.939   7.223   1.799  0.2863 -2.0708 -0.3848
 6374SOL    HW223934   2.793   7.233   1.838 -0.1660  2.7903 -2.5446
 6375SOL     OW23935   7.008  11.113   1.999  0.4119  0.5043  0.3813
 6375SOL    HW123936   7.084  11.058   1.986 -0.0342  0.2950 -1.6754
 6375SOL    HW223937   7.042  11.202   2.000  0.7497  0.3773  0.1131
 6376SOL     OW23938   9.626   7.105  10.327  0.1558  0.4470  0.1570
 6376SOL    HW123939   9.552   7.161  10.351  0.9504  1.5978  0.0308
 6376SOL    HW223940   9.700   7.143  10.373  0.9752  0.3328 -1.0115
 6377SOL     OW23941   3.189   0.138   2.577 -0.0874  0.1335  0.0396
 6377SOL    HW123942   3.140   0.101   2.504 -0.8340 -0.2615  0.7240
 6377SOL    HW223943   3.139   0.216   2.602  0.7766  0.9111 -0.5706
 6378SOL     OW23944   7.776   9.111   2.937 -1.0560 -0.6773  0.1504
 6378SOL    HW123945   7.830   9.178   2.979  0.8071 -2.3135  0.4927
 6378SOL    HW223946   7.701   9.100   2.997 -1.7939  1.5640 -0.2945
 6379SOL     OW23947   3.337   7.819   6.012 -0.6865 -0.4157 -0.5480
 6379SOL    HW123948   3.423   7.793   6.044  0.3075  0.6553 -2.1935
 6379SOL    HW223949   3.297   7.738   5.981 -0.2338 -0.9043  0.1223
 6380SOL     OW23950   0.152   9.378   3.411  0.4035 -0.0378 -0.6130
 6380SOL    HW123951   0.165   9.400   3.319  0.4420 -1.9123 -1.0962
 6380SOL    HW223952   0.195   9.293   3.421  1.2061  0.5394  1.3717
 6381SOL     OW23953   4.561   5.898  11.914 -0.5808 -0.0797  0.2686
 6381SOL    HW123954   4.614   5.823  11.942  0.6478  0.6632  0.0012
 6381SOL    HW223955   4.553   5.887  11.819 -0.9179 -0.1939  0.3097
 6382SOL     OW23956   9.952   5.567   1.961 -0.3277  0.1113 -0.5616
 6382SOL    HW123957   9.963   5.551   2.055  0.8651 -0.0949 -0.7164
 6382SOL    HW223958   9.862   5.597   1.952 -0.0680  1.4541  0.8394
 6383SOL     OW23959  12.584   3.706   3.657 -0.0549 -0.5416  0.0704
 6383SOL    HW123960  12.501   3.687   3.701 -0.8679 -0.3408 -1.3323
 6383SOL    HW223961  12.647   3.647   3.699 -0.9006 -0.7023  1.1519
 6384SOL     OW23962   7.027  12.017   1.493  0.9961  0.3184 -0.0460
 6384SOL    HW123963   6.967  11.948   1.464 -1.2432  1.6335  1.1912
 6384SOL    HW223964   7.063  12.053   1.412 -0.5880  0.0547 -0.9067
 6385SOL     OW23965  11.581   8.977   1.086  0.0914  0.6810  0.8112
 6385SOL    HW123966  11.663   9.020   1.111  1.1496  0.1133 -1.4141
 6385SOL    HW223967  11.522   9.049   1.063 -0.0608  1.0925  2.3653
 6386SOL     OW23968  10.982   4.623   4.970  0.4082 -0.2247  0.3422
 6386SOL    HW123969  10.974   4.527   4.967  0.5966 -0.2263 -0.9463
 6386SOL    HW223970  11.076   4.639   4.978  0.2996 -0.1460  1.5168
 6387SOL     OW23971   1.901   0.603   0.393  0.0444 -0.0991  0.0544
 6387SOL    HW123972   1.819   0.555   0.380 -1.1811  1.3659  1.8666
 6387SOL    HW223973   1.969   0.543   0.363 -1.6595 -1.4658 -1.2568
 6388SOL     OW23974   0.375  11.241  12.145 -0.4047  0.7907  0.0344
 6388SOL    HW123975   0.338  11.318  12.103 -3.1977 -0.4409  0.0142
 6388SOL    HW223976   0.327  11.234  12.228  0.9384 -0.0491  0.7735
 6389SOL     OW23977   1.086   6.732   8.194 -0.6581 -0.0146 -0.6487
 6389SOL    HW123978   1.099   6.738   8.289  0.9882 -2.7679 -0.5837
 6389SOL    HW223979   0.994   6.757   8.181 -1.1268 -0.2331  1.7666
 6390SOL     OW23980   5.363   0.129   3.769  0.4013 -0.6924  0.2617
 6390SOL    HW123981   5.372   0.221   3.792 -0.2455 -0.9466  1.5672
 6390SOL    HW223982   5.269   0.112   3.770  0.3708 -0.9230 -1.8677
 6391SOL     OW23983   5.541  11.182  12.441  0.0885 -0.4284  0.2504
 6391SOL    HW123984   5.550  11.272  12.471 -0.9669  0.0550 -0.7984
 6391SOL    HW223985   5.629  11.146  12.447  0.6495  0.8695  0.1186
 6392SOL     OW23986  12.641  12.291   1.361 -0.9272  0.2567 -0.1664
 6392SOL    HW123987  12.696  12.213   1.364  0.9890  1.5598  1.8754
 6392SOL    HW223988  12.552  12.258   1.369 -0.2842 -1.7889 -0.9404
 6393SOL     OW23989  10.818   8.196   8.229  0.8365  0.5097 -0.4966
 6393SOL    HW123990  10.724   8.177   8.234  0.9762 -0.2502 -0.6772
 6393SOL    HW223991  10.838   8.241   8.311  0.3896  0.3307 -0.2889
 6394SOL     OW23992   0.323   2.674   5.083 -0.0576  0.7431 -0.1309
 6394SOL    HW123993   0.298   2.647   4.994 -0.1641  1.7468 -0.4235
 6394SOL    HW223994   0.239   2.688   5.127 -0.0169 -0.8668  0.5012
 6395SOL     OW23995   8.629   7.452   0.791 -0.4782 -0.3707  0.0234
 6395SOL    HW123996   8.718   7.423   0.772  0.3161  0.3970  2.2304
 6395SOL    HW223997   8.615   7.525   0.732  1.3116  1.0323  1.2150
 6396SOL     OW23998  12.189   3.894   2.072 -0.3253 -0.7468  0.2961
 6396SOL    HW123999  12.116   3.856   2.023  0.4845 -1.7655 -0.1602
 6396SOL    HW224000  12.177   3.988   2.063 -1.0202 -0.9097 -0.6242
 6397SOL     OW24001  10.091   7.297   7.826  0.0614 -0.2926 -0.3591
 6397SOL    HW124002  10.001   7.279   7.798 -0.5911  1.7225  0.2825
 6397SOL    HW224003  10.082   7.336   7.912  1.4248  1.3546 -0.9154
 6398SOL     OW24004  11.456   3.810   8.791  0.4214  0.6348 -0.1179
 6398SOL    HW124005  11.519   3.847   8.852  0.4895  0.8260 -0.3025
 6398SOL    HW224006  11.373   3.854   8.811  0.3840  0.5061  0.0113
 6399SOL     OW24007   3.205  11.884   0.253 -0.1629  0.3355  0.0308
 6399SOL    HW124008   3.187  11.800   0.210  0.1832  0.1298  0.2852
 6399SOL    HW224009   3.202  11.865   0.347  1.1043  0.3505  0.0836
 6400SOL     OW24010   6.412   3.065  11.201  0.0324  0.1097 -0.7529
 6400SOL    HW124011   6.374   3.125  11.138 -2.2447 -1.3694 -0.8951
 6400SOL    HW224012   6.447   2.994  11.148  2.0328  0.8689 -0.5393
 6401SOL     OW24013   2.693  10.385   8.294 -0.2379  0.1517  0.0750
 6401SOL    HW124014   2.776  10.432   8.297 -1.3397  2.3112 -0.8853
 6401SOL    HW224015   2.643  10.428   8.225 -2.1148 -1.1727  0.5148
 6402SOL     OW24016  10.933   3.156   8.724 -0.6109 -0.0114  0.4449
 6402SOL    HW124017  10.963   3.067   8.742  0.2335  0.1071 -0.2895
 6402SOL    HW224018  11.013   3.208   8.722 -0.9798  0.5434 -0.3193
 6403SOL     OW24019   1.869   6.311   9.158  0.0783 -0.2881 -0.3959
 6403SOL    HW124020   1.844   6.320   9.066 -0.1776 -2.2657 -0.5577
 6403SOL    HW224021   1.788   6.327   9.207  0.3289  1.2892 -0.4594
 6404SOL     OW24022   8.821   8.388  10.902 -0.4752 -0.9276  0.2217
 6404SOL    HW124023   8.870   8.448  10.846 -1.3229  0.4750  0.9460
 6404SOL    HW224024   8.731   8.392  10.868 -0.9356 -0.2962  1.4683
 6405SOL     OW24025   5.293   9.649   2.099 -0.4650 -0.4976  0.0596
 6405SOL    HW124026   5.378   9.671   2.138 -0.7560 -1.4384  1.2848
 6405SOL    HW224027   5.233   9.713   2.137  0.0260  1.7447 -2.6406
 6406SOL     OW24028   5.210   2.322   1.070 -0.4780 -0.4709 -0.0499
 6406SOL    HW124029   5.305   2.332   1.064 -0.5563  1.6389  1.2895
 6406SOL    HW224030   5.197   2.265   1.146 -0.2881  0.5696  0.7851
 6407SOL     OW24031   9.638  11.421   0.092 -0.0575  0.7337 -0.9242
 6407SOL    HW124032   9.623  11.515   0.090  0.9943  1.0860  2.4845
 6407SOL    HW224033   9.732  11.411   0.074 -0.3840  0.1702 -2.4953
 6408SOL     OW24034   8.255  11.106   3.316 -0.4461  0.0587 -0.2597
 6408SOL    HW124035   8.280  11.029   3.265 -0.8119  0.2557 -0.7526
 6408SOL    HW224036   8.330  11.165   3.310 -0.3566 -0.0607 -0.2980
 6409SOL     OW24037   7.340   2.532   1.119  0.5560 -0.1964 -0.0669
 6409SOL    HW124038   7.277   2.468   1.153  0.2378 -0.7700 -1.6531
 6409SOL    HW224039   7.348   2.511   1.026  1.8674  0.9072 -0.2389
 6410SOL     OW24040  10.525   5.665   5.915  0.0762 -0.3496 -0.6291
 6410SOL    HW124041  10.618   5.658   5.890  0.0061 -0.9835 -0.7482
 6410SOL    HW224042  10.491   5.576   5.903 -0.6176 -0.0586 -0.8585
 6411SOL     OW24043   2.907   1.903   9.317 -0.1415 -0.1023 -0.1321
 6411SOL    HW124044   2.848   1.975   9.339 -1.3476 -1.0891 -0.0151
 6411SOL    HW224045   2.866   1.859   9.243 -0.1653 -1.4858  0.6544
 6412SOL     OW24046   5.623   7.012   4.600  0.0302 -0.0581 -0.0152
 6412SOL    HW124047   5.532   6.987   4.587  0.2030 -0.0424 -1.4386
 6412SOL    HW224048   5.663   6.935   4.641 -0.4237 -0.4174 -0.2305
 6413SOL     OW24049   7.164   9.944   3.040 -0.6394  0.4530  0.1452
 6413SOL    HW124050   7.190   9.936   3.132  2.3044 -1.1099 -0.6903
 6413SOL    HW224051   7.072   9.917   3.038 -0.9655  1.1512  2.6779
 6414SOL     OW24052   3.201   1.190   1.972 -0.5906 -0.1880  0.1951
 6414SOL    HW124053   3.181   1.110   1.922 -1.4305  0.3675 -0.3797
 6414SOL    HW224054   3.140   1.255   1.938  0.6416  0.9352  0.0829
 6415SOL     OW24055  10.485   3.491   6.396 -0.7048  0.5350 -0.4142
 6415SOL    HW124056  10.471   3.433   6.470 -0.7097  0.8665 -0.1496
 6415SOL    HW224057  10.581   3.500   6.391 -0.7095  0.6224 -0.3591
 6416SOL     OW24058   6.883  10.779   2.817  0.0090  0.0136  0.6318
 6416SOL    HW124059   6.930  10.738   2.890  0.6407  1.1338  0.8825
 6416SOL    HW224060   6.953  10.805   2.757 -0.4565 -0.1660  0.0129
 6417SOL     OW24061   3.707   1.715   5.149 -0.0002  0.3224 -0.0237
 6417SOL    HW124062   3.754   1.744   5.071  1.2853  0.6206  0.8242
 6417SOL    HW224063   3.740   1.627   5.166 -0.1513  0.3202  0.2767
 6418SOL     OW24064   2.037   9.716   9.520 -0.1034 -1.0932  0.1130
 6418SOL    HW124065   1.997   9.761   9.595 -0.6455 -1.4610  0.0502
 6418SOL    HW224066   2.039   9.624   9.546  2.4292 -0.8851  0.8748
 6419SOL     OW24067   3.334   3.731   5.928 -0.4909 -0.3359  0.1410
 6419SOL    HW124068   3.253   3.732   5.877 -0.3346  0.5538 -0.1102
 6419SOL    HW224069   3.312   3.779   6.008 -0.3732 -0.6062  0.3365
 6420SOL     OW24070  10.462  11.039   9.113 -0.2678 -0.5082 -0.2926
 6420SOL    HW124071  10.514  11.116   9.094 -0.0449 -0.3605  0.8332
 6420SOL    HW224072  10.465  11.031   9.208  1.3388 -2.9983 -0.4451
 6421SOL     OW24073  11.551  11.378   8.391  0.4255  0.2984  0.2291
 6421SOL    HW124074  11.622  11.317   8.374 -0.6895 -0.8624 -0.5015
 6421SOL    HW224075  11.594  11.458   8.421  2.0287 -0.3198 -0.3182
 6422SOL     OW24076   8.391   3.658   3.873  0.5599  0.3333 -0.5023
 6422SOL    HW124077   8.478   3.685   3.842  0.0672  2.4443 -0.1652
 6422SOL    HW224078   8.336   3.662   3.795  0.8200 -1.5424 -0.8383
 6423SOL     OW24079   6.152  11.259   5.161  0.2913  0.1071  0.5666
 6423SOL    HW124080   6.130  11.174   5.122  0.3375  0.7252 -0.8668
 6423SOL    HW224081   6.248  11.264   5.153  0.1785  0.8042 -0.4779
 6424SOL     OW24082   7.882   8.037   0.290  0.5373 -0.4860 -0.7188
 6424SOL    HW124083   7.925   8.002   0.212  0.4319 -1.5748 -0.2998
 6424SOL    HW224084   7.939   8.109   0.318  0.8637 -0.4341 -1.4802
 6425SOL     OW24085  12.358  10.612   3.877  0.3015  0.1246 -0.6295
 6425SOL    HW124086  12.330  10.530   3.836  1.0329  0.1036 -1.1070
 6425SOL    HW224087  12.341  10.679   3.811 -1.7873  0.6301  0.3262
 6426SOL     OW24088  10.827   5.596   3.131 -0.1558  0.0843  0.1134
 6426SOL    HW124089  10.846   5.660   3.063 -0.0980 -0.6998 -0.6411
 6426SOL    HW224090  10.891   5.612   3.200 -0.3825  1.0592  0.1038
 6427SOL     OW24091   5.509   9.921   1.911 -0.2389 -0.6073 -0.1051
 6427SOL    HW124092   5.598   9.888   1.897 -0.7638 -1.6315 -1.2122
 6427SOL    HW224093   5.510   9.956   2.000  1.7953  1.1965 -0.7782
 6428SOL     OW24094  10.790   5.651   9.904  0.3762 -0.4370  0.2188
 6428SOL    HW124095  10.765   5.740   9.881  0.6111 -0.3101  0.4445
 6428SOL    HW224096  10.793   5.651  10.000 -0.4920 -0.9321  0.2536
 6429SOL     OW24097   1.774   1.000  11.849  0.2061 -0.2510  0.1137
 6429SOL    HW124098   1.685   0.986  11.883 -0.2739  1.9949 -0.0209
 6429SOL    HW224099   1.794   0.921  11.799 -1.6105 -0.9202  0.3614
 6430SOL     OW24100   3.169   5.068   1.595 -0.3077  0.2153 -0.0386
 6430SOL    HW124101   3.255   5.054   1.555 -0.6401 -1.1306 -0.3194
 6430SOL    HW224102   3.183   5.139   1.658  1.3633 -0.9955  1.0268
 6431SOL     OW24103   1.696   2.018   8.108 -0.6204  0.1911 -0.2708
 6431SOL    HW124104   1.703   2.112   8.123 -3.0029  0.2701  0.7549
 6431SOL    HW224105   1.786   1.986   8.113  0.1777  2.3317 -0.1089
 6432SOL     OW24106   8.332   2.179   0.895 -0.6178  0.5435  0.1251
 6432SOL    HW124107   8.275   2.160   0.970  0.5730 -1.3989  0.6338
 6432SOL    HW224108   8.400   2.236   0.930 -0.9463  0.9386  0.1176
 6433SOL     OW24109   3.370   9.329   8.896  0.4851  0.1803  0.2708
 6433SOL    HW124110   3.305   9.298   8.833  0.6139 -0.1112  0.2816
 6433SOL    HW224111   3.372   9.262   8.964 -3.3354  2.6692  3.3395
 6434SOL     OW24112  10.866   6.439   0.628 -0.1703  0.9279  0.1056
 6434SOL    HW124113  10.873   6.531   0.655 -0.0685  0.7968  0.5378
 6434SOL    HW224114  10.873   6.390   0.710 -0.6289  0.5506 -0.0790
 6435SOL     OW24115  10.163   1.176   1.797  0.2425 -0.4339 -0.0246
 6435SOL    HW124116  10.259   1.180   1.794  0.2954 -0.4150  1.2249
 6435SOL    HW224117  10.138   1.249   1.854 -0.3567 -1.7936  1.5311
 6436SOL     OW24118  11.879   0.405   6.692 -0.5199 -0.0451 -0.9338
 6436SOL    HW124119  11.813   0.380   6.757 -0.5450  2.5364  0.1219
 6436SOL    HW224120  11.835   0.469   6.636  0.0082 -1.0201 -2.5581
 6437SOL     OW24121   7.096   8.426  11.777  0.0894  0.5226 -0.1539
 6437SOL    HW124122   7.091   8.492  11.846 -1.1683 -0.1088  0.3703
 6437SOL    HW224123   7.041   8.461  11.707  1.4964  1.2473 -0.9702
 6438SOL     OW24124   5.198   7.656   4.030  0.5496 -0.2680 -0.2034
 6438SOL    HW124125   5.134   7.593   4.064 -0.3016 -0.2938 -1.7479
 6438SOL    HW224126   5.241   7.691   4.108 -0.5284 -1.1154  0.8102
 6439SOL     OW24127   9.539  11.199   1.807  0.4258  0.3048  0.3315
 6439SOL    HW124128   9.562  11.288   1.780 -1.1863  1.1143  1.4228
 6439SOL    HW224129   9.608  11.174   1.868  0.9857  0.7401 -0.1106
 6440SOL     OW24130   7.248   6.478   2.733 -0.9064  0.4171 -0.2807
 6440SOL    HW124131   7.183   6.426   2.687 -0.2220 -0.8269  0.1128
 6440SOL    HW224132   7.198   6.528   2.797 -1.4635 -0.8841  0.3483
 6441SOL     OW24133  11.199   7.260   6.636 -0.3430 -0.6282 -0.0879
 6441SOL    HW124134  11.140   7.324   6.674  0.3359  0.0735 -0.1935
 6441SOL    HW224135  11.162   7.242   6.549 -0.0659  0.2788 -0.4015
 6442SOL     OW24136   2.306   2.972   8.589 -0.1947 -0.2708 -0.1944
 6442SOL    HW124137   2.287   2.882   8.563  0.0299 -0.1582 -0.7463
 6442SOL    HW224138   2.393   2.990   8.554 -0.0909  0.0487  0.2125
 6443SOL     OW24139   7.298   7.307   0.302 -0.4484  0.2876 -0.3456
 6443SOL    HW124140   7.216   7.258   0.313 -1.0757  1.4695  0.5469
 6443SOL    HW224141   7.271   7.399   0.306  0.8873  0.6960 -0.3975
 6444SOL     OW24142   3.558   2.863   7.997 -0.1058  0.1087 -0.0288
 6444SOL    HW124143   3.643   2.841   8.035  0.2408 -0.3711 -1.0509
 6444SOL    HW224144   3.498   2.864   8.072  0.5246 -0.9976  0.5173
 6445SOL     OW24145  12.497   7.084  10.634 -0.1437  0.7436  0.0597
 6445SOL    HW124146  12.443   7.147  10.588 -1.5172  0.8647  1.7526
 6445SOL    HW224147  12.558   7.137  10.685 -0.1676  0.6693  0.1675
 6446SOL     OW24148   8.482   9.724  10.852  0.0866  0.3291  0.1122
 6446SOL    HW124149   8.414   9.786  10.876  0.9260  0.8485  1.2309
 6446SOL    HW224150   8.477   9.656  10.919  0.3213  0.0864 -0.1123
 6447SOL     OW24151   5.252   3.275   7.321  0.0056 -0.7296 -0.4247
 6447SOL    HW124152   5.270   3.220   7.397  0.2601 -0.4903 -0.3083
 6447SOL    HW224153   5.309   3.240   7.252  1.4256  0.4195  0.1206
 6448SOL     OW24154   7.399   9.569   8.574 -0.2758  0.8569 -0.1687
 6448SOL    HW124155   7.396   9.650   8.523  2.8509  0.7945 -0.6775
 6448SOL    HW224156   7.415   9.597   8.664  0.2514  0.8225 -0.2508
 6449SOL     OW24157   6.638   9.519   9.411  0.2653  0.0222  0.4283
 6449SOL    HW124158   6.681   9.474   9.483  0.0939  0.2399  0.6698
 6449SOL    HW224159   6.546   9.527   9.439 -0.0200 -0.7877 -0.2506
 6450SOL     OW24160  11.160  11.834   0.335 -0.4243 -0.0901  0.2429
 6450SOL    HW124161  11.082  11.779   0.337  0.5781 -1.5521  0.6903
 6450SOL    HW224162  11.133  11.912   0.286 -1.7281 -1.2337 -0.9635
 6451SOL     OW24163   3.725   7.863   5.161  0.1380 -0.1304 -0.0552
 6451SOL    HW124164   3.678   7.932   5.115  0.8426  0.1570 -0.3398
 6451SOL    HW224165   3.797   7.907   5.205  0.4028 -0.6389  0.0319
 6452SOL     OW24166   6.671   3.548   1.741 -0.2966 -0.0519 -0.2627
 6452SOL    HW124167   6.705   3.632   1.710 -1.8810  0.9962  0.6538
 6452SOL    HW224168   6.576   3.556   1.732 -0.5055 -1.5678  0.3032
 6453SOL     OW24169  12.376   1.053   3.656  0.0469 -0.2017  0.1091
 6453SOL    HW124170  12.424   1.096   3.584  0.5492 -0.7588  0.1055
 6453SOL    HW224171  12.296   1.019   3.615  0.7160 -1.2372 -0.3749
 6454SOL     OW24172   7.187   6.448   1.636 -0.5467  0.3425  0.1019
 6454SOL    HW124173   7.173   6.539   1.611  0.7678  0.9146  1.2979
 6454SOL    HW224174   7.215   6.404   1.556  0.7795  1.4608 -0.0688
 6455SOL     OW24175   3.600   6.658   6.621  0.3463 -0.0835 -0.0462
 6455SOL    HW124176   3.597   6.681   6.528  2.5469 -0.9074 -0.3922
 6455SOL    HW224177   3.583   6.740   6.667  2.6206  1.1455 -1.2256
 6456SOL     OW24178   0.379  11.367   8.667 -0.4301 -0.0877 -0.5114
 6456SOL    HW124179   0.414  11.359   8.755  1.2692  0.5973 -1.0787
 6456SOL    HW224180   0.405  11.286   8.623 -0.1263  0.1280 -0.7389
 6457SOL     OW24181   1.714   6.308  10.198 -0.7204  0.2537  0.1745
 6457SOL    HW124182   1.633   6.323  10.149 -1.9270 -1.1538  1.6292
 6457SOL    HW224183   1.784   6.328  10.136 -2.1693  0.4202 -1.4725
 6458SOL     OW24184   5.661   6.250   6.338 -0.0246 -0.3641  0.8315
 6458SOL    HW124185   5.706   6.294   6.266  0.1531 -0.9803  0.5638
 6458SOL    HW224186   5.579   6.218   6.300 -0.8274  0.9538  1.3711
 6459SOL     OW24187   2.846   6.986   6.757 -0.1850  0.0441  0.3210
 6459SOL    HW124188   2.815   6.901   6.723  0.5549 -1.1747  2.5346
 6459SOL    HW224189   2.850   6.974   6.852 -1.6617  3.1280  0.8938
 6460SOL     OW24190   1.023   3.601   6.765  0.0269 -0.3097 -0.2576
 6460SOL    HW124191   1.085   3.643   6.824  2.6622 -1.8373 -1.7349
 6460SOL    HW224192   1.058   3.617   6.678 -1.4402 -1.5993 -1.1379
 6461SOL     OW24193   5.545  12.021   8.768  0.3976 -0.1903  0.5927
 6461SOL    HW124194   5.632  12.036   8.730 -0.5434  0.3528 -1.4677
 6461SOL    HW224195   5.528  12.101   8.818  0.9780 -0.1957  0.8109
 6462SOL     OW24196   5.458   9.968  11.771  0.1668 -0.1106 -0.4470
 6462SOL    HW124197   5.491   9.985  11.682  0.9636 -2.1173 -0.5845
 6462SOL    HW224198   5.523  10.008  11.829 -0.1798  0.9168 -0.7573
 6463SOL     OW24199  10.156   9.748   0.839  0.1861  0.0403 -0.1992
 6463SOL    HW124200  10.125   9.710   0.921 -1.1350 -0.2876 -0.8302
 6463SOL    HW224201  10.121   9.691   0.771  2.5403 -0.6111 -0.9863
 6464SOL     OW24202  10.452   7.307   4.569  0.3287 -0.1670 -0.5603
 6464SOL    HW124203  10.490   7.309   4.657 -1.1600  0.4693  0.1074
 6464SOL    HW224204  10.452   7.214   4.545 -2.2933 -0.8686  1.5782
 6465SOL     OW24205   2.389  11.813   2.360 -0.0268 -0.3062 -0.1405
 6465SOL    HW124206   2.296  11.818   2.340 -0.1736 -1.7818  0.0774
 6465SOL    HW224207   2.393  11.795   2.454  0.5266  0.9770  0.1038
 6466SOL     OW24208   7.879   0.529   6.156  0.1781  0.2535  0.2725
 6466SOL    HW124209   7.935   0.594   6.197 -0.7582  2.0253 -1.1243
 6466SOL    HW224210   7.807   0.517   6.218 -0.0025  1.0997  0.2348
 6467SOL     OW24211   7.432   7.799   4.916 -0.3076 -0.2048  0.8297
 6467SOL    HW124212   7.351   7.803   4.966 -0.7656  1.3746  0.0402
 6467SOL    HW224213   7.477   7.881   4.936 -0.1924  0.1664 -0.7831
 6468SOL     OW24214   8.398   1.543   2.350  0.2552  0.8353 -0.5221
 6468SOL    HW124215   8.450   1.610   2.394  0.6684  0.6881 -0.7842
 6468SOL    HW224216   8.356   1.589   2.277  0.9626  0.7018 -1.0262
 6469SOL     OW24217   5.962   1.359   6.105 -0.5175  0.0270  0.4441
 6469SOL    HW124218   5.906   1.299   6.154 -0.6416 -1.8575 -1.8171
 6469SOL    HW224219   6.045   1.358   6.151 -2.0335  2.4969  3.5878
 6470SOL     OW24220   5.111   4.937   7.218 -0.5728 -0.0904 -0.0371
 6470SOL    HW124221   5.189   4.890   7.191  0.0705  0.3923  0.9003
 6470SOL    HW224222   5.090   4.994   7.144  2.0356  2.3393  0.8794
 6471SOL     OW24223   3.779   6.392   2.782 -0.0182  0.1533  0.0190
 6471SOL    HW124224   3.790   6.343   2.864  2.4798 -1.3021 -1.0830
 6471SOL    HW224225   3.850   6.457   2.783  0.0591  0.1001 -1.0065
 6472SOL     OW24226   8.671   2.342  11.166  0.5445 -0.0158 -0.3615
 6472SOL    HW124227   8.750   2.328  11.115 -1.3267  2.4118 -4.4696
 6472SOL    HW224228   8.610   2.275  11.136  0.2308 -0.2585  0.7826
 6473SOL     OW24229  11.040  10.376  10.810  0.2568  0.8439  0.1387
 6473SOL    HW124230  11.088  10.335  10.737 -1.9154  0.9593 -1.4608
 6473SOL    HW224231  11.067  10.326  10.887  2.5167  0.5910 -0.7326
 6474SOL     OW24232   9.876  12.094   0.713  0.2101 -0.3197 -0.6509
 6474SOL    HW124233   9.967  12.083   0.743  0.4666  1.6078 -0.5387
 6474SOL    HW224234   9.842  12.005   0.705  1.7714 -1.0611  0.3583
 6475SOL     OW24235   3.317   1.457  12.040 -0.6981 -0.3401  0.0923
 6475SOL    HW124236   3.408   1.486  12.054  0.1796 -3.2609  1.2014
 6475SOL    HW224237   3.312   1.441  11.946 -0.3717  0.6750 -0.1177
 6476SOL     OW24238  10.711  11.419   6.948  0.2773 -0.0648 -0.0190
 6476SOL    HW124239  10.675  11.473   6.877  0.0530 -0.3189 -0.0964
 6476SOL    HW224240  10.801  11.450   6.957 -0.3195  1.4832  1.0640
 6477SOL     OW24241   0.210  11.125   4.545  0.4970 -0.1255 -0.3846
 6477SOL    HW124242   0.154  11.187   4.591 -1.0258 -3.7631  3.3071
 6477SOL    HW224243   0.152  11.083   4.481  0.8493  0.4234 -1.0876
 6478SOL     OW24244   3.696  10.416   3.118  0.4197 -0.3748 -0.8528
 6478SOL    HW124245   3.757  10.462   3.175 -0.5652  0.4589 -0.4403
 6478SOL    HW224246   3.699  10.464   3.036  1.2497 -1.1036 -1.2680
 6479SOL     OW24247  12.274   1.218  11.100 -0.7278  0.0233 -0.0854
 6479SOL    HW124248  12.182   1.191  11.096 -0.8755  0.6762 -1.7659
 6479SOL    HW224249  12.308   1.200  11.013  0.7359 -0.1080  0.4783
 6480SOL     OW24250   1.762   3.406  10.827  0.0265 -0.3031 -0.0421
 6480SOL    HW124251   1.701   3.419  10.900 -1.7600  1.6904 -1.7439
 6480SOL    HW224252   1.818   3.484  10.829  1.1316 -1.0761  0.1845
 6481SOL     OW24253   8.649   2.759   0.963  0.0125  0.3903  0.1637
 6481SOL    HW124254   8.553   2.760   0.959  0.0548  0.9884 -2.1619
 6481SOL    HW224255   8.673   2.669   0.941  0.0187  0.2318  0.7795
 6482SOL     OW24256   7.179   0.856  12.307 -0.0480  0.0141  0.1768
 6482SOL    HW124257   7.122   0.857  12.230 -0.5063  2.4006  0.4430
 6482SOL    HW224258   7.268   0.853  12.272 -0.2440 -2.3839 -0.2794
 6483SOL     OW24259   3.244   6.154   5.001  0.2704  0.4304 -0.2723
 6483SOL    HW124260   3.158   6.117   5.021  0.2671 -0.1565 -1.2981
 6483SOL    HW224261   3.253   6.227   5.062 -0.7427  0.1962  0.1850
 6484SOL     OW24262   2.002   4.408   6.358 -0.7817  0.2869 -0.4974
 6484SOL    HW124263   2.048   4.491   6.353 -0.7603  0.1902 -2.4296
 6484SOL    HW224264   1.982   4.385   6.268  0.1403 -2.3287 -0.1345
 6485SOL     OW24265   8.305  12.221   8.586 -0.7250 -0.0928 -0.8768
 6485SOL    HW124266   8.279  12.148   8.643 -2.5052 -1.9086 -3.7693
 6485SOL    HW224267   8.222  12.265   8.565  0.0921  1.5565 -0.8351
 6486SOL     OW24268  10.372   6.751   5.767 -0.1574  0.5963 -0.1926
 6486SOL    HW124269  10.460   6.750   5.803  0.0683  3.0670 -0.5303
 6486SOL    HW224270  10.334   6.667   5.794  1.0861  0.9257  2.9829
 6487SOL     OW24271   7.149   3.417  11.136 -0.7056  0.5447 -0.3019
 6487SOL    HW124272   7.152   3.325  11.112 -0.3606  0.7922 -1.2513
 6487SOL    HW224273   7.194   3.462  11.065 -2.1774  1.6092 -0.6090
 6488SOL     OW24274   8.811   1.945   5.380  0.5310  0.5329 -0.3066
 6488SOL    HW124275   8.825   1.904   5.295 -0.1846  0.5862 -0.4527
 6488SOL    HW224276   8.876   1.904   5.437  1.7650  1.2769 -1.1224
 6489SOL     OW24277   8.307   7.801   3.714 -0.1093  0.4166  0.5849
 6489SOL    HW124278   8.325   7.892   3.738  1.3068  0.3707 -0.1921
 6489SOL    HW224279   8.356   7.749   3.777  0.6834  0.2439 -0.1489
 6490SOL     OW24280   8.107   7.659   3.082 -0.1198  0.0074 -0.4631
 6490SOL    HW124281   8.085   7.568   3.065  2.5628 -0.2247 -3.7195
 6490SOL    HW224282   8.027   7.708   3.062 -2.1372 -1.5194  2.8908
 6491SOL     OW24283   8.779   0.939  10.760  0.2951 -0.5027  0.1286
 6491SOL    HW124284   8.817   0.879  10.824 -0.5257  0.9834  2.1246
 6491SOL    HW224285   8.718   0.885  10.710  0.7837 -1.6810  0.7641
 6492SOL     OW24286   5.284   9.991   2.992  0.3216 -0.9874 -0.6825
 6492SOL    HW124287   5.237   9.923   2.942  1.3428  0.2655 -3.6007
 6492SOL    HW224288   5.216  10.054   3.015 -0.1617 -1.4931 -0.6978
 6493SOL     OW24289   9.423   4.483   8.437  0.3892 -0.2739 -0.0139
 6493SOL    HW124290   9.493   4.545   8.458 -0.8009  1.6807 -1.4763
 6493SOL    HW224291   9.353   4.504   8.499 -0.6797  1.1462 -1.5951
 6494SOL     OW24292   3.611   0.716   1.541 -0.6130  0.1461  0.1572
 6494SOL    HW124293   3.611   0.672   1.456  0.4698  0.2336  0.1042
 6494SOL    HW224294   3.697   0.699   1.578 -1.3249 -0.5354  1.5899
 6495SOL     OW24295   7.586  12.261  11.287  0.2277 -0.2174  0.2343
 6495SOL    HW124296   7.612  12.327  11.351  0.5545 -0.9265  0.8478
 6495SOL    HW224297   7.552  12.189  11.339 -1.3920 -0.0162 -0.4800
 6496SOL     OW24298   5.008  11.150   3.010  0.2881  0.6987 -0.1310
 6496SOL    HW124299   5.020  11.222   3.072 -0.7733 -0.1542  1.1419
 6496SOL    HW224300   5.023  11.071   3.063 -0.1754 -0.0405 -1.0752
 6497SOL     OW24301   5.230   3.001   5.107 -0.3082  0.3999  0.2456
 6497SOL    HW124302   5.305   2.946   5.128 -0.4313 -0.2746 -0.9917
 6497SOL    HW224303   5.180   3.006   5.189  0.3551 -0.2868  0.7087
 6498SOL     OW24304   4.552   1.281   8.559 -0.0867  0.4671  0.2698
 6498SOL    HW124305   4.515   1.342   8.496 -1.1298 -0.2024  0.2190
 6498SOL    HW224306   4.502   1.201   8.548  0.9206 -0.2399  0.6967
 6499SOL     OW24307  11.535   5.114   4.157  0.5820 -0.0979 -0.0665
 6499SOL    HW124308  11.567   5.035   4.200 -1.0240 -0.3463  0.7512
 6499SOL    HW224309  11.452   5.088   4.117 -0.0045  1.1605  0.2539
 6500SOL     OW24310   8.120   5.983   5.514  0.7777 -0.4881 -0.2141
 6500SOL    HW124311   8.188   6.050   5.527 -1.0799  1.3368  0.7044
 6500SOL    HW224312   8.099   5.989   5.421  0.5462  0.2903 -0.1147
 6501SOL     OW24313   3.172   6.993   5.531 -0.0582  0.4881 -0.2350
 6501SOL    HW124314   3.164   6.969   5.623 -0.3550  1.8378  0.1283
 6501SOL    HW224315   3.168   6.910   5.483  0.3410 -0.2493  0.9749
 6502SOL     OW24316   3.340   5.935   5.959  0.5882  0.3660  0.2804
 6502SOL    HW124317   3.391   5.985   6.023  2.4936 -1.1536  0.0517
 6502SOL    HW224318   3.337   5.846   5.994  0.6844 -0.2353 -1.1647
 6503SOL     OW24319   5.779   8.454   9.627 -0.1346  0.5851  0.8620
 6503SOL    HW124320   5.778   8.465   9.722 -0.0643  0.4658  0.8776
 6503SOL    HW224321   5.733   8.372   9.612 -1.5095  1.3629  0.6810
 6504SOL     OW24322   2.589   0.529  10.464  0.0358 -0.2263 -0.1950
 6504SOL    HW124323   2.545   0.549  10.547  1.8034 -0.1528  0.7758
 6504SOL    HW224324   2.581   0.610  10.413 -1.2748 -0.3494 -0.2276
 6505SOL     OW24325   7.138   8.802   9.241  0.4535 -0.5657 -0.2949
 6505SOL    HW124326   7.104   8.854   9.314 -0.6638 -0.5481 -0.8032
 6505SOL    HW224327   7.106   8.714   9.258 -0.9565 -0.3086 -1.4237
 6506SOL     OW24328   1.966  11.437   6.381  0.7524 -0.4514  0.2281
 6506SOL    HW124329   1.993  11.520   6.343 -0.1445 -1.2176 -2.2415
 6506SOL    HW224330   2.016  11.370   6.333 -1.6024 -1.5522 -0.8600
 6507SOL     OW24331   3.946   3.968   8.028  0.0940 -0.0342  0.4026
 6507SOL    HW124332   3.909   4.033   8.088  1.1456 -0.1807  1.2328
 6507SOL    HW224333   3.870   3.935   7.979 -0.4841  1.6825  0.0836
 6508SOL     OW24334   0.383   5.007   9.122 -0.6117 -0.5149 -0.4843
 6508SOL    HW124335   0.410   5.092   9.087 -0.8065 -0.1410  0.2449
 6508SOL    HW224336   0.458   4.950   9.106 -0.0102  0.1011  0.0563
 6509SOL     OW24337   9.811   0.614   0.466 -0.3884  0.2567  0.3468
 6509SOL    HW124338   9.837   0.583   0.553  1.3567  1.6485  0.3706
 6509SOL    HW224339   9.721   0.643   0.476 -0.5006 -0.4245  1.4495
 6510SOL     OW24340   3.153   5.856   6.664 -0.4546  0.0472 -0.2021
 6510SOL    HW124341   3.248   5.857   6.667 -0.4685  0.9745  0.2628
 6510SOL    HW224342   3.130   5.763   6.663  0.4119 -0.2774  2.4251
 6511SOL     OW24343  11.336  10.800   4.493 -0.4606  0.4946  0.4685
 6511SOL    HW124344  11.273  10.871   4.508  1.0152  1.6551  1.5431
 6511SOL    HW224345  11.413  10.843   4.455  0.7317 -0.3638  1.7768
 6512SOL     OW24346   5.620  11.164   1.920  0.0182 -0.3795 -0.0442
 6512SOL    HW124347   5.688  11.164   1.988 -1.3338 -0.8351  1.3482
 6512SOL    HW224348   5.653  11.103   1.854  0.8858 -0.7345  0.6878
 6513SOL     OW24349   4.527  11.582   0.091 -1.0586 -0.2915 -0.0689
 6513SOL    HW124350   4.504  11.581   0.184  0.6365  0.7178  0.3990
 6513SOL    HW224351   4.449  11.548   0.047 -1.7718 -1.1100  1.7357
 6514SOL     OW24352  10.022  12.086   7.063  0.1911 -0.2610  0.3547
 6514SOL    HW124353   9.973  12.034   7.126 -0.3678  1.3690  1.3277
 6514SOL    HW224354   9.969  12.082   6.983 -0.1874 -0.6484  0.6189
 6515SOL     OW24355  11.869   4.679   6.566 -0.1643 -0.0547 -0.2581
 6515SOL    HW124356  11.918   4.737   6.624 -1.0090 -0.0945  0.5180
 6515SOL    HW224357  11.927   4.603   6.554  1.0775  1.0334 -1.5233
 6516SOL     OW24358   4.389   2.532  11.455 -0.1552 -0.2036 -0.3449
 6516SOL    HW124359   4.399   2.529  11.360 -0.9808 -0.1181 -0.4453
 6516SOL    HW224360   4.294   2.531  11.469 -0.1578  2.4684  0.3849
 6517SOL     OW24361  10.119   9.794   5.426  0.6199 -0.0150  0.4882
 6517SOL    HW124362  10.153   9.879   5.399  1.3390 -0.5316 -0.2805
 6517SOL    HW224363  10.148   9.734   5.358 -0.8167 -0.7009  0.4346
 6518SOL     OW24364   2.312   0.550  11.525  0.1023  0.4138 -0.4709
 6518SOL    HW124365   2.231   0.517  11.487  0.3450  0.0903 -0.7134
 6518SOL    HW224366   2.377   0.482  11.505  0.7189  1.2507 -1.4059
 6519SOL     OW24367   6.072   4.969   4.293  0.4310  0.2440 -0.0593
 6519SOL    HW124368   6.104   4.908   4.227  1.2678  0.9246 -0.3038
 6519SOL    HW224369   5.990   4.931   4.324 -0.3495  0.2612 -1.9967
 6520SOL     OW24370   8.361   4.532   7.413 -0.1245  0.2482 -0.3323
 6520SOL    HW124371   8.373   4.627   7.414 -1.6495  0.5384 -2.6530
 6520SOL    HW224372   8.279   4.518   7.460  0.2397  0.0383  0.2467
 6521SOL     OW24373   5.999   4.183   6.233  0.0664 -0.5132 -0.0053
 6521SOL    HW124374   5.937   4.218   6.296  1.1764  3.0424 -0.6694
 6521SOL    HW224375   6.084   4.190   6.276  0.5111 -0.9009 -0.7938
 6522SOL     OW24376   8.677   8.602   5.646 -0.4031  0.2644 -0.4048
 6522SOL    HW124377   8.658   8.508   5.650 -0.0067  0.1927 -0.1041
 6522SOL    HW224378   8.677   8.629   5.738  1.1161  0.2237 -0.3786
 6523SOL     OW24379   9.393   9.804  12.517 -0.0655 -0.4186 -0.0400
 6523SOL    HW124380   9.409   9.768  12.430  0.5742 -1.3723  0.4629
 6523SOL    HW224381   9.315   9.758  12.549 -1.1303  0.9055 -0.6289
 6524SOL     OW24382   0.707   9.196   9.748  0.2885  0.3631 -0.2497
 6524SOL    HW124383   0.737   9.196   9.657 -1.2043  0.6392 -0.7685
 6524SOL    HW224384   0.663   9.281   9.758 -0.3676 -0.0460  0.4408
 6525SOL     OW24385  11.284   7.805   6.479  0.0971 -0.0269 -0.1333
 6525SOL    HW124386  11.312   7.824   6.568  2.4410  0.7869 -0.9801
 6525SOL    HW224387  11.280   7.890   6.436  0.5099 -0.5312 -1.2077
 6526SOL     OW24388   1.827  10.046   0.971 -0.2751 -0.2514 -0.5153
 6526SOL    HW124389   1.910  10.057   0.925 -0.3603 -0.6995 -0.7832
 6526SOL    HW224390   1.819   9.952   0.984  0.0304 -0.0949  0.9494
 6527SOL     OW24391   7.008   6.856  11.250 -0.6912 -0.3232  0.2516
 6527SOL    HW124392   6.924   6.820  11.221 -0.3147  0.9783 -2.8099
 6527SOL    HW224393   7.069   6.783  11.242 -1.0404 -0.5828 -0.0719
 6528SOL     OW24394   4.031   3.966  11.023 -0.6986 -0.0668  0.2578
 6528SOL    HW124395   4.059   3.925  11.104 -0.7673  1.7338  1.2481
 6528SOL    HW224396   4.043   3.899  10.956 -0.3193 -1.4778  1.6911
 6529SOL     OW24397   3.624   6.136   3.137 -0.1101  0.4400  0.2908
 6529SOL    HW124398   3.586   6.060   3.093 -3.3720  0.8514  2.1079
 6529SOL    HW224399   3.655   6.102   3.221  0.2591  0.8081  0.3081
 6530SOL     OW24400   9.314  10.479   8.395 -0.4899 -0.2799 -0.2975
 6530SOL    HW124401   9.313  10.548   8.461  0.1399 -0.0151 -0.5620
 6530SOL    HW224402   9.253  10.413   8.429 -2.2432  1.0259 -0.7051
 6531SOL     OW24403   0.512   8.404   5.411 -0.1848  0.0929  0.3846
 6531SOL    HW124404   0.589   8.348   5.411  0.1233  0.4573  1.9218
 6531SOL    HW224405   0.487   8.410   5.504 -0.3199  2.3255  0.2561
 6532SOL     OW24406   0.316  12.367  10.190  0.7846  0.3031  0.3450
 6532SOL    HW124407   0.344  12.300  10.253  0.8060  0.3159  0.3493
 6532SOL    HW224408   0.337  12.450  10.233 -0.3482  0.3411  0.8771
 6533SOL     OW24409   4.308  11.449   8.695 -0.1496  0.3373 -0.2471
 6533SOL    HW124410   4.314  11.506   8.772  1.0212 -1.3585  0.9780
 6533SOL    HW224411   4.240  11.386   8.716 -0.0874  0.0859 -0.7670
 6534SOL     OW24412   3.557   0.853   4.129 -0.0751 -0.0524  0.0425
 6534SOL    HW124413   3.481   0.906   4.102 -0.2686  0.7486  2.0030
 6534SOL    HW224414   3.631   0.892   4.083 -0.5907  0.2683 -0.5326
 6535SOL     OW24415   5.485   8.120   5.535 -0.5025 -0.1687 -0.3146
 6535SOL    HW124416   5.486   8.045   5.594 -1.2632  0.0303 -0.0400
 6535SOL    HW224417   5.528   8.190   5.583 -1.3976  0.0843  0.1449
 6536SOL     OW24418  11.345   2.790   9.768 -0.2918 -0.0325  0.5488
 6536SOL    HW124419  11.323   2.718   9.709  0.2590 -0.5032  0.9083
 6536SOL    HW224420  11.267   2.845   9.769 -0.2505  0.0676 -0.7366
 6537SOL     OW24421   1.798  12.454   4.958  0.8010 -0.0806 -0.2580
 6537SOL    HW124422   1.876  12.508   4.971  0.8918 -0.0476 -0.8957
 6537SOL    HW224423   1.740  12.508   4.904  0.4232 -0.1871  0.0356
 6538SOL     OW24424  10.589   4.231  10.100  0.2635 -0.3278  0.4573
 6538SOL    HW124425  10.676   4.199  10.121  1.1219  2.4847  1.6752
 6538SOL    HW224426  10.598   4.326  10.095 -2.6384  0.0406  0.1077
 6539SOL     OW24427   5.467   3.479   4.314 -0.5573 -0.0242  0.0621
 6539SOL    HW124428   5.384   3.432   4.321 -0.7663  0.4703  1.1356
 6539SOL    HW224429   5.457   3.553   4.374  0.9208 -0.3701  0.7793
 6540SOL     OW24430  10.849  12.156   5.344  0.2929  0.3638  0.0129
 6540SOL    HW124431  10.809  12.243   5.335  1.1917  1.0833  2.3638
 6540SOL    HW224432  10.890  12.140   5.259 -0.6510  1.8395 -0.7576
 6541SOL     OW24433   3.064   5.787   2.249 -0.1947 -0.8633  0.1614
 6541SOL    HW124434   3.008   5.829   2.314 -3.0504 -2.9301 -0.7696
 6541SOL    HW224435   3.062   5.846   2.174 -1.5519 -1.0880 -0.0108
 6542SOL     OW24436   7.172   0.488   7.087 -0.1788  0.6569 -0.0801
 6542SOL    HW124437   7.174   0.583   7.074 -0.2536  0.6779  0.0649
 6542SOL    HW224438   7.079   0.467   7.097 -0.3004  0.3919 -1.4524
 6543SOL     OW24439   1.546  11.847  10.475  0.0207  0.1137  0.2992
 6543SOL    HW124440   1.561  11.942  10.477  0.7173  0.0514 -0.7949
 6543SOL    HW224441   1.613  11.814  10.416 -1.4616 -0.8137 -0.9491
 6544SOL     OW24442  10.345   1.717   3.885  0.6777 -0.4105 -0.7683
 6544SOL    HW124443  10.249   1.721   3.879  0.7171  0.7635 -0.7901
 6544SOL    HW224444  10.376   1.775   3.816  1.3665  0.9523  0.6317
 6545SOL     OW24445   0.185   0.869   0.016 -0.1985 -0.1318 -0.0256
 6545SOL    HW124446   0.266   0.873  -0.034  0.2595 -1.8321  0.4913
 6545SOL    HW224447   0.213   0.864   0.107 -0.8757 -0.6910  0.1634
 6546SOL     OW24448   5.214   9.504   3.090 -0.1969 -0.6990  0.0039
 6546SOL    HW124449   5.252   9.514   3.177 -2.6690 -0.1516  1.1204
 6546SOL    HW224450   5.121   9.487   3.106 -0.3499 -2.9141 -2.4942
 6547SOL     OW24451   8.010   3.431   3.166  0.2542 -0.2251 -0.8834
 6547SOL    HW124452   8.020   3.524   3.185  0.8445 -0.2350 -1.1379
 6547SOL    HW224453   8.091   3.406   3.122 -0.2531 -0.6730 -1.5755
 6548SOL     OW24454   1.664   6.415   4.996  0.1791 -0.6716 -0.0758
 6548SOL    HW124455   1.660   6.321   5.012  0.2728 -0.7849 -0.7157
 6548SOL    HW224456   1.757   6.436   4.996  0.1381 -0.1973  2.1769
 6549SOL     OW24457   7.952  10.127  10.341 -0.2093 -0.1184  0.0719
 6549SOL    HW124458   7.977  10.155  10.254 -0.6746  0.1453  0.0225
 6549SOL    HW224459   7.857  10.138  10.344 -0.0124  1.6235  1.2180
 6550SOL     OW24460   8.033   3.701   3.500 -0.4407  0.6027 -0.2189
 6550SOL    HW124461   7.962   3.730   3.558 -1.5441  0.1403 -1.3049
 6550SOL    HW224462   8.056   3.614   3.533  0.5027  1.2422  0.8963
 6551SOL     OW24463   3.229   8.706   6.865 -0.1497 -0.2914 -0.0117
 6551SOL    HW124464   3.259   8.615   6.862  1.0891  0.0299  1.2119
 6551SOL    HW224465   3.248   8.734   6.955 -3.6056  0.1923  0.6909
 6552SOL     OW24466   6.706  10.639   1.504 -0.3240  0.0666  0.6447
 6552SOL    HW124467   6.770  10.694   1.549  0.0483 -0.2806  0.5387
 6552SOL    HW224468   6.717  10.552   1.541 -0.2076 -0.1630  0.0898
 6553SOL     OW24469   9.241   9.392  10.238 -0.2163  0.9786 -0.6948
 6553SOL    HW124470   9.297   9.361  10.166 -0.1421 -0.6067 -0.0102
 6553SOL    HW224471   9.154   9.362  10.215 -0.1164  0.0555  0.0729
 6554SOL     OW24472   6.860   5.430  11.615 -0.0462  0.1166 -0.0857
 6554SOL    HW124473   6.892   5.516  11.642 -1.0720  1.0560 -1.6938
 6554SOL    HW224474   6.796   5.449  11.546 -0.0455 -1.9618 -0.7128
 6555SOL     OW24475   0.795  10.919   1.063  0.6949  0.1215 -0.3886
 6555SOL    HW124476   0.776  10.838   1.016 -2.2086  0.5915 -0.1813
 6555SOL    HW224477   0.741  10.985   1.021  0.4054  1.2379  1.6005
 6556SOL     OW24478   9.268   0.388   2.702 -0.1608 -0.3855 -0.8486
 6556SOL    HW124479   9.216   0.344   2.769 -0.2772 -0.6407 -1.1030
 6556SOL    HW224480   9.259   0.332   2.624 -0.0314 -0.0918 -1.0766
 6557SOL     OW24481   5.391  10.417   6.478  0.0025  0.5556 -0.1991
 6557SOL    HW124482   5.430  10.501   6.457 -1.0170  1.1062  0.0268
 6557SOL    HW224483   5.357  10.385   6.394 -0.9033  1.0749 -0.0485
 6558SOL     OW24484   5.272   2.731   8.865  0.2986 -0.0527 -0.3819
 6558SOL    HW124485   5.233   2.758   8.949  0.5658  1.3904 -0.6949
 6558SOL    HW224486   5.361   2.766   8.867  0.3703 -0.1677 -1.1931
 6559SOL     OW24487   7.344  10.535   5.364 -0.1315  0.4176  0.1229
 6559SOL    HW124488   7.271  10.561   5.307 -1.1610 -0.3958  1.0119
 6559SOL    HW224489   7.381  10.617   5.395 -1.4162  0.8695  0.5439
 6560SOL     OW24490   9.365   7.750   5.713 -0.1190 -0.5549 -0.4363
 6560SOL    HW124491   9.312   7.823   5.682  0.5604  0.4013  0.5846
 6560SOL    HW224492   9.302   7.688   5.748 -0.5873  0.7232  1.1026
 6561SOL     OW24493  10.291   6.612  11.847 -0.3202 -0.0907 -0.1937
 6561SOL    HW124494  10.294   6.540  11.783 -0.3081 -0.2848  0.0217
 6561SOL    HW224495  10.383   6.634  11.861 -0.2831 -0.5048  0.2579
 6562SOL     OW24496   8.875   5.772  12.092  0.3388 -0.1983 -0.5916
 6562SOL    HW124497   8.883   5.698  12.153 -1.0481 -0.8366 -1.1384
 6562SOL    HW224498   8.894   5.735  12.006 -0.9287 -0.0792 -0.9466
 6563SOL     OW24499  10.949   6.162  11.368  0.1305 -0.3108 -0.0436
 6563SOL    HW124500  10.862   6.133  11.396 -0.3656 -0.0151 -1.2122
 6563SOL    HW224501  10.996   6.081  11.347 -0.4151 -0.4203 -0.9236
 6564SOL     OW24502   1.049   7.580   9.431 -0.6079 -0.2518 -0.0470
 6564SOL    HW124503   1.096   7.568   9.514 -0.8070  1.1684  0.2984
 6564SOL    HW224504   1.118   7.593   9.366 -0.4841  0.0944  0.1522
 6565SOL     OW24505  11.966   4.414  10.971  0.3373 -0.2128  0.0709
 6565SOL    HW124506  11.944   4.487  10.913  2.1917 -0.4570 -1.0251
 6565SOL    HW224507  11.881   4.378  10.997 -0.6380  2.3311  0.6972
 6566SOL     OW24508   8.240   8.389   3.355  0.4358 -0.2429  0.4211
 6566SOL    HW124509   8.146   8.372   3.351  0.4940 -0.8891  1.4536
 6566SOL    HW224510   8.278   8.307   3.387  1.3282  0.1032  0.2908
 6567SOL     OW24511   6.740  11.565   2.267  0.3384  0.0941 -0.1721
 6567SOL    HW124512   6.717  11.573   2.175 -0.1896  1.5064  0.0568
 6567SOL    HW224513   6.664  11.523   2.307  0.2749  0.1205 -0.2636
 6568SOL     OW24514   9.466   3.182   8.583 -0.0430 -0.1214 -0.3247
 6568SOL    HW124515   9.387   3.194   8.530 -0.1249 -0.6292 -0.3291
 6568SOL    HW224516   9.467   3.257   8.643 -0.9870 -0.5349  0.2452
 6569SOL     OW24517   0.865   5.765   0.496 -0.3280  0.2891 -0.6127
 6569SOL    HW124518   0.935   5.730   0.551 -0.6064  0.6635 -0.0128
 6569SOL    HW224519   0.858   5.702   0.424 -0.2090 -0.4063 -0.0307
 6570SOL     OW24520   4.989   6.690   4.601 -0.4206  0.0339 -0.1696
 6570SOL    HW124521   4.942   6.689   4.518  0.4586 -0.7087 -0.6823
 6570SOL    HW224522   5.079   6.665   4.578  0.0362  0.6074  0.8884
 6571SOL     OW24523   1.578   7.408   6.222  0.1679  0.3656 -0.1648
 6571SOL    HW124524   1.606   7.487   6.269  1.1333  0.1908 -0.4314
 6571SOL    HW224525   1.533   7.356   6.288 -1.2176  1.4887 -0.1686
 6572SOL     OW24526   5.244   3.432  12.010  0.4802 -0.1932  0.5839
 6572SOL    HW124527   5.333   3.401  11.997  0.2150 -0.3658 -1.0024
 6572SOL    HW224528   5.190   3.376  11.955 -0.6526 -0.2547  1.7129
 6573SOL     OW24529   9.282   4.685   2.814 -0.2736 -0.4411 -0.1948
 6573SOL    HW124530   9.281   4.772   2.773  0.7389 -0.3647 -0.0977
 6573SOL    HW224531   9.368   4.650   2.792 -0.7865 -1.5462 -0.4698
 6574SOL     OW24532   6.445  11.636   2.164 -0.1462  0.7577 -0.5918
 6574SOL    HW124533   6.355  11.664   2.180 -0.2024  0.2602 -0.0052
 6574SOL    HW224534   6.468  11.584   2.241 -0.8862 -2.8509 -2.5474
 6575SOL     OW24535   7.420   2.094   0.016  0.3323  0.3429  1.1542
 6575SOL    HW124536   7.470   2.133  -0.055  0.1982 -2.5265 -0.6408
 6575SOL    HW224537   7.329   2.116  -0.005  0.2037 -1.2622 -0.1751
 6576SOL     OW24538  10.423   7.977   3.323  0.0163 -0.0311 -0.2166
 6576SOL    HW124539  10.366   7.976   3.400  0.3405  1.6604  0.0685
 6576SOL    HW224540  10.493   8.038   3.345  0.5604 -0.1372 -1.5485
 6577SOL     OW24541  12.013   5.590  11.460 -0.0719  0.6729 -0.1743
 6577SOL    HW124542  12.080   5.646  11.421 -1.7612  2.1250 -1.1765
 6577SOL    HW224543  11.932   5.640  11.451 -1.1148 -0.4473  2.1681
 6578SOL     OW24544   4.663   3.130   4.968  0.6391 -0.0702 -0.0498
 6578SOL    HW124545   4.731   3.068   4.942  0.2680  0.0250 -1.3287
 6578SOL    HW224546   4.601   3.077   5.019  1.5935 -0.1768  1.0539
 6579SOL     OW24547   3.551   6.362   9.002 -0.1596  0.3245  0.4807
 6579SOL    HW124548   3.644   6.351   8.983 -0.2275 -0.1747  0.4074
 6579SOL    HW224549   3.530   6.290   9.062 -0.2259  1.1774  1.4984
 6580SOL     OW24550   3.063  12.602  11.798  0.0864 -0.6165  0.2135
 6580SOL    HW124551   3.110  12.631  11.876  0.1518 -0.3438  0.0728
 6580SOL    HW224552   2.973  12.589  11.828  0.0542 -0.2619  0.2746
 6581SOL     OW24553  11.631   4.274  10.304 -0.2035  0.1293  0.5128
 6581SOL    HW124554  11.651   4.254  10.212 -0.7401 -0.6978  0.5685
 6581SOL    HW224555  11.572   4.350  10.299  2.7213  2.5995  0.3446
 6582SOL     OW24556   9.320   8.095  11.474 -0.2335 -0.3642  0.0205
 6582SOL    HW124557   9.352   8.066  11.559 -0.2929 -0.9097 -0.1411
 6582SOL    HW224558   9.392   8.077  11.413  0.9179  2.5374  0.3599
 6583SOL     OW24559   3.295   0.255   7.596 -0.2246  0.0818  0.1452
 6583SOL    HW124560   3.219   0.282   7.544  0.6953  1.3231 -0.5857
 6583SOL    HW224561   3.292   0.159   7.595 -2.3209  0.0819  0.9569
 6584SOL     OW24562  10.366   5.039   2.724  0.3571  0.4777 -0.0732
 6584SOL    HW124563  10.306   5.068   2.656  0.7313 -1.9966 -1.5820
 6584SOL    HW224564  10.453   5.049   2.687  0.5020 -2.8324 -0.9734
 6585SOL     OW24565   3.652  11.813   6.605 -0.2020 -0.0104  0.0808
 6585SOL    HW124566   3.698  11.891   6.577 -0.3065 -0.0746 -0.2730
 6585SOL    HW224567   3.559  11.836   6.601 -0.2605 -0.3550 -0.6503
 6586SOL     OW24568   6.558   8.815  12.621 -0.7949 -0.6204 -0.0734
 6586SOL    HW124569   6.541   8.781  12.709  0.6558 -1.1898  0.0204
 6586SOL    HW224570   6.527   8.905  12.624  1.7169  0.2934  1.9263
 6587SOL     OW24571   5.670   2.700  11.170  0.0454 -0.2355 -0.6495
 6587SOL    HW124572   5.651   2.668  11.082 -0.8952  0.4882 -0.7324
 6587SOL    HW224573   5.726   2.776  11.156  0.7159 -0.7005 -0.5557
 6588SOL     OW24574   4.366   7.839   1.109 -0.2524 -0.1173  0.4647
 6588SOL    HW124575   4.378   7.903   1.180 -1.3173  0.5378  0.0816
 6588SOL    HW224576   4.279   7.802   1.125 -1.6649  1.8707 -1.8615
 6589SOL     OW24577   8.758   8.903   0.737  0.4590 -0.3267  0.4800
 6589SOL    HW124578   8.711   8.958   0.800 -2.1353 -0.4416 -1.1954
 6589SOL    HW224579   8.695   8.835   0.714  2.2570 -1.8029 -0.3524
 6590SOL     OW24580  12.560  11.261   5.919 -0.6687  0.1178 -0.4662
 6590SOL    HW124581  12.614  11.328   5.960 -0.5841 -1.0249  1.4113
 6590SOL    HW224582  12.613  11.181   5.924 -0.6375 -0.1093 -2.9183
 6591SOL     OW24583   0.978  12.181  12.138 -0.0066 -0.1260  0.8322
 6591SOL    HW124584   0.951  12.090  12.153 -1.3254 -0.2268 -1.6492
 6591SOL    HW224585   0.924  12.232  12.199 -1.3808 -0.8272  0.2412
 6592SOL     OW24586   9.709   6.976   9.888  0.1345  0.0496  0.2217
 6592SOL    HW124587   9.620   6.992   9.920 -0.1570 -2.3275  0.7673
 6592SOL    HW224588   9.712   7.019   9.803 -1.3764  0.5714  0.4011
 6593SOL     OW24589   6.822   1.009   1.528  0.2387 -0.2050  0.5743
 6593SOL    HW124590   6.787   1.093   1.500 -2.2990 -1.4067 -0.1403
 6593SOL    HW224591   6.851   0.967   1.447  1.2676 -0.1433  0.8992
 6594SOL     OW24592   5.726   5.998   8.929  0.3202 -0.0007 -0.2596
 6594SOL    HW124593   5.758   5.949   9.004  1.0301  1.0776  0.1786
 6594SOL    HW224594   5.802   6.004   8.871  0.5958  1.5201  0.2164
 6595SOL     OW24595   7.400   7.444   4.958 -0.2828 -0.3650  0.2434
 6595SOL    HW124596   7.475   7.384   4.957 -1.0792 -1.4062  0.9739
 6595SOL    HW224597   7.402   7.482   5.046  0.4194  0.9715 -0.3279
 6596SOL     OW24598   3.839   1.062   2.508  0.2792 -0.5393 -0.2884
 6596SOL    HW124599   3.920   1.021   2.478  0.2368 -0.8314 -0.0104
 6596SOL    HW224600   3.864   1.151   2.530  0.7198 -0.8823  0.6459
 6597SOL     OW24601   1.833   5.197   9.731  0.2500 -0.1995 -0.1372
 6597SOL    HW124602   1.770   5.256   9.774 -0.8741 -1.6189  0.2363
 6597SOL    HW224603   1.918   5.226   9.764 -0.4265  0.0195  1.5262
 6598SOL     OW24604   3.590   7.218   9.906  0.1873  0.0412 -0.1907
 6598SOL    HW124605   3.631   7.295   9.866 -1.6102  1.5235  0.6586
 6598SOL    HW224606   3.538   7.179   9.836 -0.8988  1.1171 -0.0173
 6599SOL     OW24607   9.778   7.364   9.367  0.2738 -0.2854 -0.2512
 6599SOL    HW124608   9.732   7.288   9.331 -1.0324  0.2236  0.2891
 6599SOL    HW224609   9.851   7.378   9.306 -0.5465 -0.8378 -1.4102
 6600SOL     OW24610  11.608   4.900   0.597 -0.5627  0.5065 -0.3351
 6600SOL    HW124611  11.693   4.891   0.555  0.1264  0.6792  0.9680
 6600SOL    HW224612  11.584   4.810   0.622 -0.7880  0.4515 -0.7465
 6601SOL     OW24613   4.707   5.894   6.772  0.4619 -0.1926  0.1319
 6601SOL    HW124614   4.661   5.946   6.838 -1.7104 -0.6266 -0.9656
 6601SOL    HW224615   4.798   5.891   6.803 -0.1551  0.9679  2.2291
 6602SOL     OW24616   8.578   6.969  12.191 -0.4913  0.1391  0.3120
 6602SOL    HW124617   8.557   6.968  12.284 -0.7860 -2.5155  0.2842
 6602SOL    HW224618   8.665   6.929  12.186 -0.4335  0.3520 -0.5617
 6603SOL     OW24619  10.156   6.417  12.533  0.3338 -0.1906  0.1839
 6603SOL    HW124620  10.086   6.434  12.596 -1.7951 -0.5051 -1.9522
 6603SOL    HW224621  10.221   6.366  12.582  0.0529  1.6868  2.7571
 6604SOL     OW24622   7.615   7.764   1.893  0.8631 -0.1861 -0.6459
 6604SOL    HW124623   7.584   7.802   1.976 -1.8996 -1.8254 -0.8016
 6604SOL    HW224624   7.535   7.745   1.844  2.0633 -4.3524 -1.3314
 6605SOL     OW24625   1.713  12.326   1.752 -0.5840  0.4735 -0.2560
 6605SOL    HW124626   1.795  12.371   1.772 -1.3561  1.6191  0.4550
 6605SOL    HW224627   1.681  12.369   1.672 -1.5086  1.5064  0.6310
 6606SOL     OW24628   9.224   9.105   5.742 -0.2008  0.5411 -0.1430
 6606SOL    HW124629   9.198   9.118   5.651 -0.0535 -0.6103 -0.3678
 6606SOL    HW224630   9.160   9.042   5.776  0.1737  0.4152  0.3373
 6607SOL     OW24631  11.232   9.341   7.085  0.3569  0.0009 -0.1113
 6607SOL    HW124632  11.184   9.328   7.004  1.7797  0.9941 -1.1682
 6607SOL    HW224633  11.235   9.436   7.097  0.9359 -0.0923  0.6068
 6608SOL     OW24634  11.157   4.788  12.081 -0.3059  0.6539  0.6141
 6608SOL    HW124635  11.184   4.696  12.070 -2.5924  0.1092 -1.4820
 6608SOL    HW224636  11.238   4.836  12.093  1.2554 -1.3190 -1.2242
 6609SOL     OW24637  11.350   9.587   2.726  0.1254  0.5330 -0.0836
 6609SOL    HW124638  11.328   9.525   2.796  0.7549  0.8986  0.4542
 6609SOL    HW224639  11.416   9.541   2.675  0.7663  0.8323  0.4544
 6610SOL     OW24640   1.783   4.172   3.138  0.1313 -0.3134  0.1013
 6610SOL    HW124641   1.776   4.210   3.050  0.3749  0.3444  0.3572
 6610SOL    HW224642   1.846   4.100   3.128  0.4146 -0.0294 -0.1997
 6611SOL     OW24643   2.971   6.510   2.273 -0.5163 -0.0291 -0.4899
 6611SOL    HW124644   2.946   6.588   2.322 -0.3601 -0.2064 -0.1254
 6611SOL    HW224645   2.895   6.452   2.279 -0.2615 -0.3128  0.0909
 6612SOL     OW24646   0.700  10.609   2.187  0.1299 -0.1450  0.3419
 6612SOL    HW124647   0.759  10.684   2.175 -1.8381  1.1020 -2.6826
 6612SOL    HW224648   0.618  10.647   2.217 -0.6024 -1.1863 -0.2482
 6613SOL     OW24649   4.766   7.926   0.772 -0.0228  0.6111  0.0539
 6613SOL    HW124650   4.740   7.870   0.845  1.2046  0.8547  0.7093
 6613SOL    HW224651   4.856   7.952   0.793  0.0874  1.2912 -1.1790
 6614SOL     OW24652  10.693  11.121  11.728  0.7358  0.7356  0.8068
 6614SOL    HW124653  10.635  11.044  11.725  1.5364  0.1380  0.1107
 6614SOL    HW224654  10.709  11.136  11.821 -1.9044  1.9910  1.1581
 6615SOL     OW24655  12.055  12.433   7.450 -0.2487 -1.0803 -0.3099
 6615SOL    HW124656  11.993  12.376   7.405  0.8040 -0.7478 -2.2662
 6615SOL    HW224657  12.131  12.438   7.391 -0.3561  2.4727 -0.3490
 6616SOL     OW24658   0.289   2.899  12.520  0.2127 -0.0518  0.0857
 6616SOL    HW124659   0.270   2.948  12.440 -0.6157  0.9666  0.8771
 6616SOL    HW224660   0.215   2.919  12.578  0.8390 -0.7038  1.1316
 6617SOL     OW24661  11.979   1.189  10.392 -0.3879  0.1099 -0.3126
 6617SOL    HW124662  12.054   1.234  10.430  1.2248 -0.6152 -2.4185
 6617SOL    HW224663  11.966   1.232  10.307 -2.0911 -0.0837 -0.1875
 6618SOL     OW24664   1.193  10.948   2.931 -0.0311 -0.2051 -0.1596
 6618SOL    HW124665   1.206  11.031   2.886  0.8572 -0.2288  0.0325
 6618SOL    HW224666   1.117  10.962   2.987  0.6191  0.7535  0.5114
 6619SOL     OW24667   4.622   2.334   9.241 -0.0708  0.0480  1.1370
 6619SOL    HW124668   4.689   2.329   9.309  0.1967  2.8852  1.2012
 6619SOL    HW224669   4.665   2.377   9.167 -1.7648  2.1073  1.2325
 6620SOL     OW24670   6.194   1.990  11.687  0.3837 -0.6091  0.2458
 6620SOL    HW124671   6.124   1.962  11.746 -0.3361 -0.5028 -0.5349
 6620SOL    HW224672   6.246   1.910  11.672  0.0430 -0.8454  0.3116
 6621SOL     OW24673   6.821   8.228   4.460  0.4341  0.4045  0.4054
 6621SOL    HW124674   6.770   8.309   4.469 -0.3370  0.1507 -1.2913
 6621SOL    HW224675   6.808   8.182   4.543 -1.2792  0.8137  0.3954
 6622SOL     OW24676   8.719   9.361   8.155 -0.0580  0.3512 -0.5060
 6622SOL    HW124677   8.757   9.431   8.101 -1.3853  0.7738 -0.9414
 6622SOL    HW224678   8.780   9.288   8.147  0.6481  0.9995 -1.1841
 6623SOL     OW24679   4.779  11.332   8.133 -0.1471  0.3541  0.3301
 6623SOL    HW124680   4.751  11.418   8.166 -0.2746  0.0886  0.9320
 6623SOL    HW224681   4.730  11.320   8.052  2.0863  2.1857 -1.4468
 6624SOL     OW24682   7.301   8.962  11.068 -0.5555 -0.1755 -0.0908
 6624SOL    HW124683   7.295   8.887  11.010  0.9199  0.1074 -0.6603
 6624SOL    HW224684   7.280   9.037  11.013  0.0922  0.0189 -0.0861
 6625SOL     OW24685  10.210   8.092   3.149 -0.1918 -0.4159 -0.4568
 6625SOL    HW124686  10.272   8.043   3.205 -2.0909 -1.8221  0.5327
 6625SOL    HW224687  10.259   8.109   3.069  1.8919 -0.3630  0.7508
 6626SOL     OW24688   8.044   8.473   6.300 -0.4187 -0.0644  0.5251
 6626SOL    HW124689   8.027   8.494   6.208  0.4166 -1.5321  0.0024
 6626SOL    HW224690   8.134   8.439   6.300 -0.3562  0.0529  1.9211
 6627SOL     OW24691   4.241   3.293   9.042  0.1101 -0.1856 -0.3081
 6627SOL    HW124692   4.243   3.370   8.986 -0.2988 -0.1106 -0.2204
 6627SOL    HW224693   4.248   3.219   8.982 -0.7111 -0.1176 -0.4906
 6628SOL     OW24694   9.005   2.589  12.647 -0.2419 -0.7003  0.2350
 6628SOL    HW124695   9.019   2.522  12.580  2.0352  0.6635 -0.7791
 6628SOL    HW224696   8.959   2.659  12.601  0.0710 -0.3421  0.4636
 6629SOL     OW24697   2.244   7.269   1.661 -0.3297 -1.1823 -0.0039
 6629SOL    HW124698   2.239   7.179   1.693  0.3349 -0.7462  1.4087
 6629SOL    HW224699   2.337   7.292   1.666 -0.1577 -1.1161 -2.4509
 6630SOL     OW24700   2.260   5.673   4.369  0.4830 -0.5366  0.3370
 6630SOL    HW124701   2.324   5.744   4.377  1.8131 -1.8628  3.4786
 6630SOL    HW224702   2.311   5.598   4.338 -0.0840 -1.0026  0.5172
 6631SOL     OW24703   6.316   0.596   6.300  0.3985  0.3378  0.4577
 6631SOL    HW124704   6.235   0.625   6.257  0.6693  0.3163 -0.0648
 6631SOL    HW224705   6.386   0.644   6.255  0.5794  1.4871  1.8606
 6632SOL     OW24706   3.713   3.086   2.891  0.1873  0.5047 -0.6794
 6632SOL    HW124707   3.721   3.129   2.806  2.8125 -1.1414 -1.3846
 6632SOL    HW224708   3.804   3.074   2.920 -0.5101 -1.8996  0.7958
 6633SOL     OW24709   0.423  12.362  12.421 -0.3556 -0.2923  0.9442
 6633SOL    HW124710   0.459  12.279  12.389 -0.8107 -0.1498  0.0362
 6633SOL    HW224711   0.494  12.400  12.473  0.2138 -0.7856  0.5461
 6634SOL     OW24712   9.409   4.759   7.073 -0.3082 -0.4281 -0.3451
 6634SOL    HW124713   9.473   4.694   7.102  0.6108 -0.1474 -1.6650
 6634SOL    HW224714   9.325   4.722   7.098  0.2983 -1.2082  0.6590
 6635SOL     OW24715   3.363   5.341   5.944  0.4571  0.4828  0.4243
 6635SOL    HW124716   3.400   5.306   6.025 -1.1053 -0.7272  0.6619
 6635SOL    HW224717   3.437   5.385   5.902  1.8393 -0.6984  1.4817
 6636SOL     OW24718   1.583   0.460  11.509  0.1617 -0.8569  0.0549
 6636SOL    HW124719   1.553   0.454  11.418 -0.9082 -1.9808  0.4511
 6636SOL    HW224720   1.670   0.499  11.503 -0.7589  1.1941 -1.2710
 6637SOL     OW24721   8.301   5.806   4.651  0.3184  0.5156 -0.5145
 6637SOL    HW124722   8.246   5.884   4.641 -0.9632 -0.0871  1.2487
 6637SOL    HW224723   8.347   5.819   4.734 -1.3172 -1.3387  0.7817
 6638SOL     OW24724  11.252   1.495   5.930 -0.2012 -0.0152  0.7890
 6638SOL    HW124725  11.223   1.579   5.964  2.1510  0.7184  1.1249
 6638SOL    HW224726  11.236   1.500   5.835 -1.7362  0.0628  1.0297
 6639SOL     OW24727   5.980   1.623   9.677 -0.1817 -0.4881 -0.2418
 6639SOL    HW124728   5.888   1.600   9.691 -0.1059 -0.3758  0.4634
 6639SOL    HW224729   5.987   1.714   9.707  0.0493 -0.3307 -0.7695
 6640SOL     OW24730   3.912   4.700  11.058 -0.2013  0.1336 -0.2828
 6640SOL    HW124731   3.828   4.655  11.047 -0.5108  1.0100 -1.8102
 6640SOL    HW224732   3.966   4.668  10.986  0.3419  0.5306 -0.0625
 6641SOL     OW24733   0.247  10.949   6.908  0.4953 -0.1108 -0.2179
 6641SOL    HW124734   0.194  11.026   6.884 -0.4557 -1.2176 -1.8593
 6641SOL    HW224735   0.191  10.874   6.890  1.7573 -1.2519  0.3940
 6642SOL     OW24736  12.468   0.801   0.302  0.1574  0.2582  0.3828
 6642SOL    HW124737  12.489   0.873   0.242  0.6010  1.0842  1.4854
 6642SOL    HW224738  12.395   0.833   0.354 -1.4332 -1.1443 -0.8516
 6643SOL     OW24739   9.376  11.750   9.618  0.4863  0.0616  0.3110
 6643SOL    HW124740   9.396  11.820   9.555  0.3337  0.2901  0.5144
 6643SOL    HW224741   9.391  11.790   9.704  1.3202 -0.4392  0.4116
 6644SOL     OW24742   3.604  11.261   6.823 -0.5208 -0.5215  0.2512
 6644SOL    HW124743   3.508  11.264   6.833 -0.4600  3.4379  1.2251
 6644SOL    HW224744   3.637  11.270   6.912  0.7053  0.3442 -0.2694
 6645SOL     OW24745   8.501   9.643   1.980 -0.4006 -0.3549  0.3878
 6645SOL    HW124746   8.500   9.572   1.916  1.2177 -0.0540 -0.0253
 6645SOL    HW224747   8.483   9.722   1.929  0.4449 -0.1679  0.3631
 6646SOL     OW24748   4.569   2.203   5.545 -0.1988  0.1639  0.1292
 6646SOL    HW124749   4.554   2.174   5.455 -0.7745 -0.7038  0.4931
 6646SOL    HW224750   4.519   2.141   5.599  0.2357  0.5989  1.0508
 6647SOL     OW24751   8.180   0.653  11.319 -0.3231  0.5016 -0.2527
 6647SOL    HW124752   8.123   0.634  11.393  1.8332 -0.9197  1.1558
 6647SOL    HW224753   8.134   0.618  11.243 -0.3944 -2.7043  1.1270
 6648SOL     OW24754  11.581   1.312   4.440 -0.3352  0.3609 -0.1067
 6648SOL    HW124755  11.584   1.290   4.346  0.0944 -1.6589  0.3359
 6648SOL    HW224756  11.667   1.350   4.459 -0.0772 -0.1113 -0.3296
 6649SOL     OW24757   1.853   3.642   6.541 -0.0258  0.6798 -0.0554
 6649SOL    HW124758   1.845   3.689   6.458 -1.3499 -0.5032 -0.6529
 6649SOL    HW224759   1.762   3.621   6.565  0.4601 -0.6531  0.7066
 6650SOL     OW24760   8.949   0.174   2.626  0.0867  0.4824 -0.4242
 6650SOL    HW124761   8.992   0.220   2.698  1.7058 -1.6932  0.1054
 6650SOL    HW224762   8.864   0.147   2.661  0.0046  1.1900 -0.0552
 6651SOL     OW24763   9.197   0.025   9.930  0.1971  0.1666 -0.3905
 6651SOL    HW124764   9.259   0.091   9.900 -0.2542  0.3038 -1.0606
 6651SOL    HW224765   9.219   0.010  10.022  0.3057  1.2406 -0.2329
 6652SOL     OW24766   6.316  10.620   3.361 -0.6315 -0.0699  0.3876
 6652SOL    HW124767   6.246  10.605   3.424 -0.5911  2.7315  1.2252
 6652SOL    HW224768   6.287  10.696   3.310  1.4365  0.6796  0.2341
 6653SOL     OW24769   3.413   5.110  11.675  0.3485 -0.0120  0.0211
 6653SOL    HW124770   3.504   5.094  11.649  0.3603  1.3121 -0.8354
 6653SOL    HW224771   3.419   5.175  11.745  0.2482 -2.7431  2.8517
 6654SOL     OW24772   0.647   8.302   4.120  0.2808 -0.3015  0.3744
 6654SOL    HW124773   0.591   8.262   4.054 -0.5230 -0.1411  0.9397
 6654SOL    HW224774   0.688   8.229   4.165  1.4194 -0.4010 -0.7722
 6655SOL     OW24775   1.300   7.428   2.012  0.0245 -0.2178 -0.5401
 6655SOL    HW124776   1.227   7.446   2.071  0.5515  0.5016 -0.0811
 6655SOL    HW224777   1.353   7.508   2.015  0.4524 -0.4534 -1.4184
 6656SOL     OW24778   8.862   2.163   5.027 -0.2455 -0.4945  0.7833
 6656SOL    HW124779   8.881   2.220   5.102 -0.3890 -1.1100  1.2943
 6656SOL    HW224780   8.931   2.098   5.027 -0.5548 -0.8281  0.7180
 6657SOL     OW24781   5.599   4.043   3.822 -0.4594 -0.5564 -0.1941
 6657SOL    HW124782   5.610   3.949   3.810  0.7562 -0.6438  1.3674
 6657SOL    HW224783   5.519   4.064   3.774 -0.3881 -2.2554 -1.1244
 6658SOL     OW24784   5.169   0.364   8.667  0.0857 -0.7053 -0.6004
 6658SOL    HW124785   5.080   0.331   8.659 -0.1274 -0.8536  1.8039
 6658SOL    HW224786   5.215   0.300   8.721  1.6102 -0.5113 -1.5952
 6659SOL     OW24787  12.189   7.219   3.840 -0.4758 -0.4497  0.8884
 6659SOL    HW124788  12.168   7.312   3.850  0.5997 -0.1027  0.0599
 6659SOL    HW224789  12.266   7.206   3.895  0.3254 -0.4814 -0.2266
 6660SOL     OW24790  12.295   2.058   0.792 -0.5243 -0.2235  0.3774
 6660SOL    HW124791  12.325   1.967   0.797 -0.3121 -0.1056  1.4419
 6660SOL    HW224792  12.231   2.058   0.720 -0.0076 -1.0546 -0.1078
 6661SOL     OW24793   8.624   2.743   1.608 -0.0415 -0.3275 -0.2301
 6661SOL    HW124794   8.607   2.732   1.702  2.4738  1.1153  0.4964
 6661SOL    HW224795   8.601   2.659   1.569 -1.1009 -0.9805  1.6661
 6662SOL     OW24796   3.696   8.834   0.423 -0.2267 -0.5086 -0.1573
 6662SOL    HW124797   3.782   8.792   0.413  0.4918  0.8988 -0.0762
 6662SOL    HW224798   3.669   8.811   0.512  0.6015 -0.0182  0.2312
 6663SOL     OW24799  10.440   0.616   7.999 -0.6115  0.3213 -0.2427
 6663SOL    HW124800  10.422   0.555   8.071  1.2517  0.6548  0.5555
 6663SOL    HW224801  10.513   0.577   7.952 -1.1964  0.5940 -1.4286
 6664SOL     OW24802   7.429   5.127  10.568 -0.1829  0.5829 -0.1260
 6664SOL    HW124803   7.505   5.164  10.523  0.6777 -1.6155 -0.6453
 6664SOL    HW224804   7.460   5.109  10.657 -0.2733  0.2397 -0.1615
 6665SOL     OW24805   5.794  10.273   2.486  0.2853 -0.0757  0.0175
 6665SOL    HW124806   5.800  10.210   2.415 -1.7146 -0.2945 -0.0236
 6665SOL    HW224807   5.778  10.357   2.442 -1.5213 -0.2988  0.1549
 6666SOL     OW24808  10.383   6.645   7.311  0.3182  0.0356  0.2771
 6666SOL    HW124809  10.411   6.736   7.317  2.8429 -0.7027  1.1596
 6666SOL    HW224810  10.308   6.639   7.370  1.6292  1.0706  2.1544
 6667SOL     OW24811  10.811   1.418   9.016  0.3612  0.4349  0.2140
 6667SOL    HW124812  10.775   1.414   8.927 -1.9635 -1.7189  1.1381
 6667SOL    HW224813  10.857   1.335   9.027 -0.7030 -0.0249  1.4862
 6668SOL     OW24814   5.933   5.028   9.024  0.3107 -0.7490 -0.2114
 6668SOL    HW124815   5.961   4.940   9.049 -0.0220 -0.7596  0.1300
 6668SOL    HW224816   6.004   5.061   8.969  0.6573 -1.0436  0.0596
 6669SOL     OW24817   6.125  10.548   9.623 -0.0604 -0.2757 -0.5414
 6669SOL    HW124818   6.126  10.623   9.564 -0.3950 -1.2474 -1.8028
 6669SOL    HW224819   6.178  10.577   9.698  1.3435  0.5817 -1.8000
 6670SOL     OW24820  11.283   5.934  10.037  0.2173  0.0566  0.0935
 6670SOL    HW124821  11.374   5.957  10.056  0.8927 -0.3698 -2.3010
 6670SOL    HW224822  11.234   5.965  10.113  2.4893 -0.9022  2.0955
 6671SOL     OW24823   3.083   7.601   3.204 -0.0184  0.4710 -0.4351
 6671SOL    HW124824   3.129   7.685   3.198  2.5969 -0.9303 -1.1707
 6671SOL    HW224825   3.036   7.594   3.121  1.2631  0.4103 -1.1770
 6672SOL     OW24826   6.941   6.994   0.066 -0.2479 -0.0244  0.6103
 6672SOL    HW124827   6.871   7.024   0.124 -2.6235 -0.9577 -1.6037
 6672SOL    HW224828   7.002   7.068   0.064 -3.3620  2.8118 -0.7375
 6673SOL     OW24829   7.128   5.714   9.873  0.3187 -0.0004  0.6384
 6673SOL    HW124830   7.160   5.770   9.802 -0.8526 -0.4463 -0.2797
 6673SOL    HW224831   7.152   5.761   9.953  0.4378  1.2184 -0.0803
 6674SOL     OW24832   1.447   1.612   6.203  0.1980 -0.6668 -0.0017
 6674SOL    HW124833   1.472   1.620   6.295  0.6351  0.8817 -0.2316
 6674SOL    HW224834   1.363   1.565   6.206  0.3365 -0.8884  1.1562
 6675SOL     OW24835   2.958  10.152   3.267 -0.1160  0.1082  0.5697
 6675SOL    HW124836   2.882  10.119   3.314 -1.0617 -1.2656 -1.8045
 6675SOL    HW224837   2.960  10.104   3.185 -0.1592  4.1932 -2.1268
 6676SOL     OW24838   5.307  11.138   6.754 -0.0851  0.5149  0.6169
 6676SOL    HW124839   5.261  11.152   6.671  1.8055  0.9952 -0.4051
 6676SOL    HW224840   5.237  11.127   6.818 -1.6582 -1.7725 -1.2997
 6677SOL     OW24841   9.521   2.368   4.822  0.3975  0.0100 -0.3960
 6677SOL    HW124842   9.509   2.430   4.894  0.9871 -0.4609  0.1155
 6677SOL    HW224843   9.573   2.298   4.859 -1.8243 -1.7455 -0.4145
 6678SOL     OW24844   8.981   3.436   3.476  0.5865 -0.4713  0.0964
 6678SOL    HW124845   9.012   3.358   3.521 -0.0905 -0.4815  0.5598
 6678SOL    HW224846   8.920   3.477   3.538  1.5554  0.8659  0.2011
 6679SOL     OW24847  12.371   5.971   2.726  0.7009 -0.4393  0.4266
 6679SOL    HW124848  12.367   5.879   2.754  0.8956  0.1782  2.6145
 6679SOL    HW224849  12.282   6.004   2.740  0.8765 -0.0317  0.5788
 6680SOL     OW24850   3.935  10.184   9.236 -0.4018 -0.4777  0.2171
 6680SOL    HW124851   3.972  10.102   9.270  0.1490  0.1722  1.1997
 6680SOL    HW224852   3.841  10.165   9.228 -0.1489 -1.5381 -0.5663
 6681SOL     OW24853   6.196   0.981   1.140 -0.9138 -0.8848  0.6755
 6681SOL    HW124854   6.203   0.935   1.224 -2.2606 -1.4249  0.5193
 6681SOL    HW224855   6.197   1.074   1.162  1.8810 -0.8915  1.0004
 6682SOL     OW24856   9.706   7.876   1.834  0.1026  0.5523 -0.2746
 6682SOL    HW124857   9.759   7.866   1.755  1.6109  0.9816  0.6368
 6682SOL    HW224858   9.722   7.966   1.862 -2.5645  1.3419 -0.9218
 6683SOL     OW24859  11.833   0.910   1.444  0.2326  0.1540  0.1307
 6683SOL    HW124860  11.886   0.930   1.367 -0.1609 -0.8984 -0.4280
 6683SOL    HW224861  11.796   0.824   1.427 -2.1981  1.0884  0.1890
 6684SOL     OW24862   6.306   3.250   4.450 -0.1003  0.5955 -0.4044
 6684SOL    HW124863   6.372   3.318   4.435  0.1865  1.0168  2.2313
 6684SOL    HW224864   6.222   3.297   4.447 -0.0018  0.8007 -0.0772
 6685SOL     OW24865   3.502  11.972   1.707  0.2987 -0.4460 -0.1423
 6685SOL    HW124866   3.559  12.037   1.665  0.1309 -0.6520 -0.6955
 6685SOL    HW224867   3.531  11.888   1.671  0.5588 -0.6916  0.6189
 6686SOL     OW24868   1.250  10.017   6.829  0.1374 -0.3718  0.1462
 6686SOL    HW124869   1.196   9.938   6.831 -1.0160  0.4062  0.3978
 6686SOL    HW224870   1.207  10.075   6.766  1.8495 -0.5248 -1.2440
 6687SOL     OW24871  10.239   8.325   9.087  0.1359  0.6396  0.3806
 6687SOL    HW124872  10.270   8.402   9.039  2.6853 -0.0740  0.6836
 6687SOL    HW224873  10.278   8.335   9.174  0.1056 -0.7188  0.5707
 6688SOL     OW24874   4.544   1.987   4.678  0.0137 -0.1765  0.0596
 6688SOL    HW124875   4.506   1.906   4.645  1.8824 -0.4328 -1.6556
 6688SOL    HW224876   4.602   1.959   4.749  0.1076 -0.2542 -0.0485
 6689SOL     OW24877   4.761   2.374   6.572 -0.3067  0.1026  0.1210
 6689SOL    HW124878   4.745   2.390   6.665  0.4967  0.1787  0.2603
 6689SOL    HW224879   4.803   2.455   6.541 -1.3279  0.3996 -0.5105
 6690SOL     OW24880   6.562  10.693   6.201 -0.0569  0.1467  0.2377
 6690SOL    HW124881   6.572  10.604   6.167  0.1253 -0.1074  0.9283
 6690SOL    HW224882   6.641  10.739   6.171  0.3867 -0.2359  0.8022
 6691SOL     OW24883   2.046   5.822   5.178 -0.9213  0.7152  0.5310
 6691SOL    HW124884   2.014   5.793   5.092  1.2327  3.0139 -1.1961
 6691SOL    HW224885   2.057   5.742   5.228 -3.5233 -0.6106 -0.8012
 6692SOL     OW24886  12.518   4.688   6.282 -0.3531  0.7922  0.4625
 6692SOL    HW124887  12.529   4.601   6.245  0.2253  0.5925  1.0818
 6692SOL    HW224888  12.460   4.676   6.357 -0.9427  1.0790  0.0613
 6693SOL     OW24889   4.260   0.481  10.228  0.2058 -0.6454  0.1918
 6693SOL    HW124890   4.234   0.562  10.183  0.5702 -0.9432 -0.5789
 6693SOL    HW224891   4.279   0.509  10.318 -0.5525 -0.0385  0.1736
 6694SOL     OW24892   6.046  10.373   3.039  0.0094  0.5890  0.1232
 6694SOL    HW124893   6.019  10.441   2.977  1.4548  0.3365 -0.8174
 6694SOL    HW224894   6.096  10.311   2.987 -2.0804 -1.7760  0.7429
 6695SOL     OW24895  12.296   5.486   8.233  0.5050 -0.0837  0.4532
 6695SOL    HW124896  12.386   5.506   8.258  0.5929  1.0499 -0.6919
 6695SOL    HW224897  12.260   5.441   8.310  2.7364 -2.7959  0.0501
 6696SOL     OW24898   1.136   9.516   9.299  0.6191  0.1050  0.0201
 6696SOL    HW124899   1.115   9.497   9.208 -0.3645 -1.5720  0.5597
 6696SOL    HW224900   1.218   9.469   9.315  0.5604  0.0425  0.1330
 6697SOL     OW24901   5.717   2.356   7.122 -0.3919 -0.9936  0.1183
 6697SOL    HW124902   5.668   2.325   7.199  0.3609  0.5574  1.2898
 6697SOL    HW224903   5.762   2.434   7.153 -0.6395  0.1171 -2.1458
 6698SOL     OW24904  12.209   5.175   6.521 -0.1021 -1.0435 -0.5575
 6698SOL    HW124905  12.124   5.160   6.479 -0.0799 -0.3976 -0.8480
 6698SOL    HW224906  12.273   5.155   6.453 -0.0490 -0.5868 -0.6442
 6699SOL     OW24907   7.718  12.629   9.313 -0.2068  0.1606  0.2269
 6699SOL    HW124908   7.724  12.566   9.385  1.1839  0.1200  0.0940
 6699SOL    HW224909   7.793  12.610   9.257  0.2255  1.8750  0.1541
 6700SOL     OW24910   7.085   7.713   1.910  0.6582  0.4128  0.5986
 6700SOL    HW124911   7.159   7.736   1.966  1.0411  1.4890 -0.2876
 6700SOL    HW224912   7.126   7.671   1.834  0.2042 -0.4738  0.8412
 6701SOL     OW24913   7.631   3.623   2.729 -0.2780  0.4453 -0.2315
 6701SOL    HW124914   7.616   3.714   2.756 -1.5405  0.3437 -0.5476
 6701SOL    HW224915   7.603   3.571   2.805  0.6416  0.3123  0.0300
 6702SOL     OW24916   0.253   6.044   2.669 -0.3664 -0.1401  0.0875
 6702SOL    HW124917   0.214   6.099   2.601  2.2927  0.9287 -0.7060
 6702SOL    HW224918   0.295   5.972   2.621 -2.0969 -1.8331  0.9828
 6703SOL     OW24919  10.345   9.557   2.009 -0.1870 -0.3777 -0.8318
 6703SOL    HW124920  10.395   9.623   2.056 -0.8087  0.2246 -0.9991
 6703SOL    HW224921  10.267   9.543   2.064 -0.9546  0.3774 -1.6969
 6704SOL     OW24922   2.445   2.087   3.350  0.0593 -0.5339 -0.2488
 6704SOL    HW124923   2.368   2.068   3.403 -0.4051 -1.1520 -1.1172
 6704SOL    HW224924   2.447   2.017   3.285  0.1273  0.6509 -1.5613
 6705SOL     OW24925   5.458  10.028   3.974  0.5025  0.2489  0.2423
 6705SOL    HW124926   5.442  10.058   3.885 -1.8789 -0.7127  0.2949
 6705SOL    HW224927   5.394  10.075   4.027  1.0493 -0.1391  1.2715
 6706SOL     OW24928   7.988   4.029   2.781 -0.2191 -0.2833  0.4675
 6706SOL    HW124929   8.021   3.953   2.828  0.5652 -0.0198  0.3532
 6706SOL    HW224930   7.966   3.995   2.694  0.4918 -0.3116  0.2917
 6707SOL     OW24931   4.363   8.515  10.159  0.4659  0.2920  0.2417
 6707SOL    HW124932   4.429   8.579  10.188  0.0031  1.1614 -0.5724
 6707SOL    HW224933   4.409   8.461  10.095  0.5807  0.4677  0.1737
 6708SOL     OW24934   4.009   5.779  12.003  0.5778 -0.1112  0.6034
 6708SOL    HW124935   3.928   5.814  11.968 -0.6133 -2.4748  0.8145
 6708SOL    HW224936   4.007   5.802  12.096 -0.9302 -1.8776  1.0666
 6709SOL     OW24937   6.587   3.308   2.162 -0.1017 -0.4911 -0.0291
 6709SOL    HW124938   6.602   3.368   2.235 -1.3430 -2.4864  2.0008
 6709SOL    HW224939   6.517   3.348   2.111 -0.6115 -0.0261  1.0247
 6710SOL     OW24940  10.726   4.645   2.257 -0.2060  0.1303 -0.2029
 6710SOL    HW124941  10.702   4.590   2.182 -0.4030  1.2230 -0.9718
 6710SOL    HW224942  10.774   4.718   2.218  0.4915  0.2497  0.8500
 6711SOL     OW24943   4.279  12.275   0.536  0.2799 -0.1627  0.2844
 6711SOL    HW124944   4.286  12.250   0.628  0.8314 -1.0938  0.0049
 6711SOL    HW224945   4.206  12.337   0.533 -0.1961 -0.6612  1.2380
 6712SOL     OW24946   0.572   5.054  10.269  0.4053  0.2615  0.4845
 6712SOL    HW124947   0.540   5.105  10.195 -1.5292 -1.9052 -0.2932
 6712SOL    HW224948   0.640   4.998  10.232  0.2730  0.0219  0.5978
 6713SOL     OW24949   5.690   8.260  11.416 -0.0905  0.1334 -0.5199
 6713SOL    HW124950   5.597   8.240  11.401 -0.4124  1.4646 -0.4617
 6713SOL    HW224951   5.737   8.196  11.362 -1.0623 -0.0605 -1.1717
 6714SOL     OW24952   6.517  11.155   0.381 -0.0377  0.2131 -0.1105
 6714SOL    HW124953   6.492  11.230   0.435 -0.5743 -0.4549  0.5731
 6714SOL    HW224954   6.505  11.186   0.291  1.6307  1.6124  0.0758
 6715SOL     OW24955   3.114   8.459  11.158  0.1185 -0.0116  0.0582
 6715SOL    HW124956   3.207   8.444  11.169  0.2233  0.4004 -0.2155
 6715SOL    HW224957   3.107   8.502  11.072 -0.2540  0.5112  0.3443
 6716SOL     OW24958   2.643   2.254   2.949 -0.2019 -0.1362  0.0739
 6716SOL    HW124959   2.675   2.341   2.970  0.6433 -0.5428  0.5060
 6716SOL    HW224960   2.563   2.269   2.897 -1.5977  0.8928  2.3720
 6717SOL     OW24961   2.402  10.885   5.873  0.5721  0.7462 -0.1582
 6717SOL    HW124962   2.496  10.901   5.870  0.7458 -0.3883 -1.8761
 6717SOL    HW224963   2.381  10.882   5.967  2.3613  0.2937  0.2604
 6718SOL     OW24964   6.297   0.491   9.755  0.6108  0.3489  0.4166
 6718SOL    HW124965   6.256   0.576   9.771 -0.3983 -0.0594  0.0708
 6718SOL    HW224966   6.364   0.508   9.689 -0.1777  0.7281 -0.3022
 6719SOL     OW24967   9.046   6.395   1.693  0.0195  0.9163  0.2629
 6719SOL    HW124968   9.107   6.328   1.725 -1.8339 -0.7029  0.5852
 6719SOL    HW224969   9.103   6.464   1.658  2.0468 -1.0518 -0.5957
 6720SOL     OW24970   1.058   2.415   4.110  0.5035  0.2615  0.4886
 6720SOL    HW124971   1.033   2.360   4.036  0.4088  1.2679 -0.2543
 6720SOL    HW224972   1.016   2.375   4.185 -1.3874  0.5411 -0.3656
 6721SOL     OW24973   6.707   6.920   4.685  0.1932  0.3759 -1.0108
 6721SOL    HW124974   6.795   6.931   4.649  0.6735 -0.3157 -0.0806
 6721SOL    HW224975   6.685   6.829   4.666  0.2051  0.1778 -0.1189
 6722SOL     OW24976  12.147  11.238   9.989 -0.3220  0.1954 -0.1637
 6722SOL    HW124977  12.225  11.238  10.044  0.1395 -1.1601 -0.7825
 6722SOL    HW224978  12.082  11.287  10.040  1.0427  1.7682  0.1517
 6723SOL     OW24979   8.590   7.254   7.176 -0.3907  0.1372 -0.1077
 6723SOL    HW124980   8.531   7.305   7.232  0.4695 -0.8154  1.7689
 6723SOL    HW224981   8.532   7.193   7.130 -1.0534  0.3813  0.3839
 6724SOL     OW24982   7.773   5.066  10.081 -0.3789  0.1176  0.2456
 6724SOL    HW124983   7.695   5.070  10.136  0.7735 -2.1929  2.2676
 6724SOL    HW224984   7.833   5.009  10.130  2.0106  0.6168 -1.9182
 6725SOL     OW24985   5.289  11.463   0.101 -0.2427  0.2289  0.4103
 6725SOL    HW124986   5.332  11.378   0.108  1.4518  0.8134 -1.9313
 6725SOL    HW224987   5.214  11.448   0.044 -2.0420 -0.3173  2.7390
 6726SOL     OW24988   3.224   5.691   4.015  0.8427  0.0178 -0.1227
 6726SOL    HW124989   3.177   5.608   4.004  0.7315  0.1757 -0.9489
 6726SOL    HW224990   3.303   5.668   4.064  0.3331 -0.4054  0.5002
 6727SOL     OW24991   5.785   0.719  12.635 -0.3837  0.7517 -0.5701
 6727SOL    HW124992   5.873   0.753  12.624 -0.1834  0.9129  1.1945
 6727SOL    HW224993   5.734   0.795  12.665 -1.2837  0.8001 -2.1124
 6728SOL     OW24994  10.195   4.086   5.475 -0.2112  0.4431  0.0432
 6728SOL    HW124995  10.158   4.010   5.431  1.2160  0.0636 -0.5398
 6728SOL    HW224996  10.152   4.087   5.561 -2.3639  0.6773 -0.9555
 6729SOL     OW24997   9.209  10.016   1.100  0.1298  0.3767  0.0380
 6729SOL    HW124998   9.220   9.922   1.089 -1.6962 -0.0878  1.6532
 6729SOL    HW224999   9.259  10.055   1.027 -1.7952 -1.9101 -2.7319
 6730SOL     OW25000   8.753   2.510   1.820 -0.2037 -0.0458 -0.5167
 6730SOL    HW125001   8.776   2.548   1.735 -0.3367  0.8963 -0.1448
 6730SOL    HW225002   8.692   2.573   1.858 -0.8189 -0.8894 -0.0849
 6731SOL     OW25003   4.938   9.035   0.626 -0.1375 -0.9124  0.0241
 6731SOL    HW125004   4.994   9.099   0.582 -0.4694 -1.3301 -1.0424
 6731SOL    HW225005   4.932   9.066   0.716  1.0217 -0.3408 -0.0830
 6732SOL     OW25006   5.324   0.847   1.140 -0.3768 -0.3299  0.0262
 6732SOL    HW125007   5.321   0.795   1.060 -1.3102 -1.2575  0.6407
 6732SOL    HW225008   5.382   0.798   1.198 -0.8942 -0.4411  0.4483
 6733SOL     OW25009   9.183   4.904   7.282  0.1288 -0.0815 -0.5025
 6733SOL    HW125010   9.132   4.844   7.228 -2.1653  2.2003 -1.0856
 6733SOL    HW225011   9.205   4.976   7.224 -1.8965  2.1687  1.3333
 6734SOL     OW25012   6.024   0.229   7.832  0.3790 -0.0381 -0.6872
 6734SOL    HW125013   6.012   0.306   7.776  1.8814 -0.0059 -1.0115
 6734SOL    HW225014   6.050   0.265   7.917  0.5689 -0.1547 -0.6934
 6735SOL     OW25015  11.610  11.140   7.307  0.3955  0.2016 -0.3932
 6735SOL    HW125016  11.673  11.190   7.358 -1.0203  0.8741  0.7906
 6735SOL    HW225017  11.558  11.092   7.372 -0.4727 -0.1221 -1.2927
 6736SOL     OW25018   3.825   5.260   9.044  0.2049  0.1203 -0.3402
 6736SOL    HW125019   3.831   5.226   9.133 -1.1007 -0.7058 -0.5423
 6736SOL    HW225020   3.765   5.334   9.050 -0.3331 -0.2839 -0.6083
 6737SOL     OW25021   8.709  10.826  11.937 -0.2417  0.4135  0.1606
 6737SOL    HW125022   8.651  10.891  11.898 -2.4386 -1.5025  0.0775
 6737SOL    HW225023   8.743  10.776  11.862 -1.3785 -0.7687  0.4080
 6738SOL     OW25024   4.713   3.307   4.606  0.0316  1.4792  0.1754
 6738SOL    HW125025   4.718   3.234   4.544  2.3128  1.0584  0.7554
 6738SOL    HW225026   4.640   3.284   4.664 -0.0056  0.2168 -0.3236
 6739SOL     OW25027   0.738   6.939  11.992 -0.1513 -0.6076 -0.6041
 6739SOL    HW125028   0.651   6.916  12.023 -0.5075  1.4068  0.0035
 6739SOL    HW225029   0.798   6.890  12.049 -0.8703  0.0200  0.7399
 6740SOL     OW25030  10.993   6.517   4.820  0.5758  0.1362  0.0821
 6740SOL    HW125031  10.997   6.607   4.852 -1.8363  0.9129 -1.5646
 6740SOL    HW225032  10.932   6.473   4.878  1.6769 -0.4595  0.8236
 6741SOL     OW25033   8.756  10.359   9.321  0.3427 -0.2729  0.0500
 6741SOL    HW125034   8.837  10.409   9.317  0.0982  0.2240  1.0371
 6741SOL    HW225035   8.769  10.298   9.394  0.2006 -0.8854 -0.4218
 6742SOL     OW25036   8.608   1.457   0.868  0.1686  0.1200 -0.0851
 6742SOL    HW125037   8.647   1.514   0.802  0.9924  0.8305  0.9945
 6742SOL    HW225038   8.547   1.513   0.915 -0.1449 -0.2929  0.0072
 6743SOL     OW25039  11.976   9.965   3.910 -0.2058 -0.4356 -0.1059
 6743SOL    HW125040  11.986  10.004   3.823 -0.0387  0.4039  0.2850
 6743SOL    HW225041  11.919   9.889   3.895  1.4943 -1.5683 -1.3133
 6744SOL     OW25042   6.618   7.590   4.569  0.1273  0.2147  0.1135
 6744SOL    HW125043   6.622   7.495   4.558 -1.4702  0.3124 -1.9100
 6744SOL    HW225044   6.620   7.603   4.664 -0.2916 -1.8765  0.4558
 6745SOL     OW25045   1.224   0.648   7.503 -0.3743 -0.3863  0.0436
 6745SOL    HW125046   1.305   0.606   7.475  0.6722  0.9879  0.9038
 6745SOL    HW225047   1.184   0.584   7.563  0.5327 -0.7003  0.3298
 6746SOL     OW25048   4.385   2.803  10.919 -0.4425 -0.4237 -0.5820
 6746SOL    HW125049   4.432   2.886  10.912 -1.8697  0.2998 -2.4166
 6746SOL    HW225050   4.379   2.786  11.013 -0.4753  1.7623 -0.1420
 6747SOL     OW25051   6.787   4.030  12.302 -0.0677 -0.3146  0.1830
 6747SOL    HW125052   6.799   3.936  12.310  0.7898 -0.2447 -0.1856
 6747SOL    HW225053   6.698   4.040  12.267 -0.4294 -0.9478  0.8843
 6748SOL     OW25054  12.629   9.093   4.217  0.0675 -0.1176  0.5649
 6748SOL    HW125055  12.559   9.125   4.274 -0.5421 -0.0626 -0.2045
 6748SOL    HW225056  12.585   9.068   4.136  0.9383 -0.1187  0.0805
 6749SOL     OW25057   3.051   8.051   0.271 -1.1289 -0.1777 -0.1516
 6749SOL    HW125058   3.104   8.075   0.195  0.1814 -1.5942  0.2647
 6749SOL    HW225059   3.040   7.956   0.263 -0.8149 -0.3792  1.5161
 6750SOL     OW25060  11.574   3.070  11.562  0.4411  0.2014  0.5958
 6750SOL    HW125061  11.551   2.977  11.554 -1.0475  0.4483  1.5356
 6750SOL    HW225062  11.607   3.078  11.652 -0.5877  0.7802  0.9379
 6751SOL     OW25063   6.318   6.434   3.136 -0.3630 -0.0128  0.1892
 6751SOL    HW125064   6.366   6.434   3.053 -1.3371  0.9510 -0.4046
 6751SOL    HW225065   6.311   6.342   3.160 -0.6703 -0.3642 -1.1674
 6752SOL     OW25066   6.842  11.909   9.274  0.3997 -0.8998  0.0066
 6752SOL    HW125067   6.796  11.976   9.325  0.4310 -1.4303  0.7569
 6752SOL    HW225068   6.820  11.928   9.183 -0.8562 -0.8118  0.3149
 6753SOL     OW25069   0.263  10.494   6.822  0.2516 -0.5494 -0.3817
 6753SOL    HW125070   0.328  10.528   6.883 -0.2446  2.0142 -1.1425
 6753SOL    HW225071   0.191  10.464   6.878  1.1844 -1.4463  0.3760
 6754SOL     OW25072   0.155   7.366  11.627  0.1734  0.2256 -0.3467
 6754SOL    HW125073   0.102   7.295  11.593  1.4258 -0.8996 -0.0509
 6754SOL    HW225074   0.093   7.425  11.669 -0.8988 -0.6433 -0.6687
 6755SOL     OW25075   7.865  11.269  10.663 -0.0591 -0.0631 -0.3075
 6755SOL    HW125076   7.779  11.309  10.673 -0.6328 -0.5075 -2.8971
 6755SOL    HW225077   7.876  11.215  10.742 -2.1731 -0.0644  0.0273
 6756SOL     OW25078   0.592   5.857  10.422 -0.0621 -0.4346  0.1679
 6756SOL    HW125079   0.645   5.880  10.498  0.5768 -0.1118 -0.3696
 6756SOL    HW225080   0.558   5.941  10.390 -1.2739 -0.6664  0.7555
 6757SOL     OW25081   0.204   3.822  10.602  1.0201  0.0991 -0.0568
 6757SOL    HW125082   0.278   3.831  10.542  0.3188  0.7680 -0.8608
 6757SOL    HW225083   0.152   3.751  10.564  2.2919 -1.8747  1.6802
 6758SOL     OW25084   1.835  12.632   8.270 -0.3077  0.5667 -0.0541
 6758SOL    HW125085   1.806  12.633   8.362 -1.7064 -0.2328 -0.4377
 6758SOL    HW225086   1.781  12.563   8.230 -0.3813  1.5275 -1.6820
 6759SOL     OW25087   0.035  11.045   1.114 -0.3420 -0.2583 -0.1254
 6759SOL    HW125088   0.060  11.129   1.152  1.1225 -0.3423 -0.8144
 6759SOL    HW225089   0.021  11.063   1.021 -0.0813 -0.7545 -0.2689
 6760SOL     OW25090   7.377  10.823  10.055 -0.1339 -0.0040 -0.3664
 6760SOL    HW125091   7.454  10.804  10.001  0.4419 -0.7378  0.6839
 6760SOL    HW225092   7.325  10.883  10.001  0.2906 -0.8953 -1.8432
 6761SOL     OW25093   4.081  10.465  11.289  0.0481 -0.2678  0.6429
 6761SOL    HW125094   4.106  10.410  11.363 -0.1288 -0.4664  0.5554
 6761SOL    HW225095   4.135  10.433  11.217 -0.5511 -0.7840  0.4201
 6762SOL     OW25096   8.022  12.024   4.791  0.0248 -0.8164 -0.0721
 6762SOL    HW125097   8.038  11.991   4.879  1.5550 -1.2039 -0.4593
 6762SOL    HW225098   8.012  11.945   4.737 -0.6764 -0.5841 -0.2897
 6763SOL     OW25099   0.200   8.744   2.161  0.2592 -0.1595 -0.1375
 6763SOL    HW125100   0.176   8.651   2.160  0.1124 -0.1182 -0.8484
 6763SOL    HW225101   0.273   8.749   2.222 -0.7004 -0.4927  1.0891
 6764SOL     OW25102   1.118   8.284   4.646 -0.3493  0.4344 -0.8414
 6764SOL    HW125103   1.025   8.284   4.670 -0.4087  0.4188 -1.0735
 6764SOL    HW225104   1.137   8.194   4.621 -0.1950  0.3707 -0.5076
 6765SOL     OW25105   4.632   3.682   8.174  0.3833 -0.3095 -0.5868
 6765SOL    HW125106   4.709   3.716   8.220  1.2171 -0.4790 -1.8176
 6765SOL    HW225107   4.579   3.641   8.243  0.9156  0.6481  0.4211
 6766SOL     OW25108   2.680   0.641   6.123  0.4244  0.0968 -0.4711
 6766SOL    HW125109   2.673   0.707   6.192  0.1530 -0.1360 -0.2684
 6766SOL    HW225110   2.768   0.651   6.088  0.6032  0.1485 -0.0128
 6767SOL     OW25111   2.247   6.060  11.317  0.1077  0.0407 -0.3319
 6767SOL    HW125112   2.320   6.027  11.370 -0.6994  0.0009  0.7917
 6767SOL    HW225113   2.236   6.151  11.345  0.1231  0.2396 -0.9582
 6768SOL     OW25114   2.594   2.097   7.084  0.0408 -0.3164  0.3641
 6768SOL    HW125115   2.608   2.181   7.041 -0.3913  0.1023  1.0228
 6768SOL    HW225116   2.682   2.066   7.105  0.2932 -0.7608 -1.2270
 6769SOL     OW25117   8.326   0.851   7.095 -0.2358  0.1259 -0.5109
 6769SOL    HW125118   8.263   0.831   7.026 -0.0102  0.4782 -0.8213
 6769SOL    HW225119   8.403   0.885   7.049 -0.4609  1.3379 -0.0291
 6770SOL     OW25120  11.468   8.149   6.623  0.5079  0.3639 -0.3177
 6770SOL    HW125121  11.418   8.110   6.551  0.3368  0.4600 -0.2507
 6770SOL    HW225122  11.432   8.237   6.633  1.2584  0.7442 -0.8299
 6771SOL     OW25123  12.034  12.409  12.612 -0.2463  0.3988  0.1362
 6771SOL    HW125124  11.986  12.327  12.608 -1.2072  0.9817 -0.7023
 6771SOL    HW225125  12.094  12.406  12.537  0.9011 -0.2294  1.0518
 6772SOL     OW25126  11.290   1.673   0.576 -0.6788  0.1446  0.2434
 6772SOL    HW125127  11.255   1.746   0.626 -0.9583  0.0615  0.1699
 6772SOL    HW225128  11.262   1.595   0.624  1.4099  0.0967  1.5443
 6773SOL     OW25129   0.066   2.371   3.667 -0.8075  0.1630  0.1750
 6773SOL    HW125130   0.028   2.375   3.755 -0.3805 -0.9099  0.4230
 6773SOL    HW225131   0.061   2.279   3.642  0.8128  0.1263 -0.1282
 6774SOL     OW25132   8.447  11.568  11.016 -0.0298  0.0927 -0.2482
 6774SOL    HW125133   8.472  11.558  10.924 -1.2998  0.4564 -0.6544
 6774SOL    HW225134   8.495  11.646  11.045 -1.2291  1.2395 -1.2252
 6775SOL     OW25135   4.082   7.742   4.232  0.4394 -0.2588  0.2572
 6775SOL    HW125136   4.077   7.694   4.150  0.4400 -1.5141  0.9715
 6775SOL    HW225137   4.094   7.675   4.299 -2.1387  0.4554  1.5912
 6776SOL     OW25138  11.976   5.416   2.935  1.0253  0.4651  0.5475
 6776SOL    HW125139  11.973   5.407   3.030  2.6007 -2.7536  0.4195
 6776SOL    HW225140  12.056   5.370   2.909 -0.1485 -0.1097 -2.4668
 6777SOL     OW25141   5.161   3.688   1.439  0.5332 -0.1087  0.2605
 6777SOL    HW125142   5.083   3.632   1.433 -1.0310  1.9954 -0.0548
 6777SOL    HW225143   5.160   3.722   1.528  1.8758 -1.0802  0.6744
 6778SOL     OW25144   5.860   4.084   3.289  0.4617  0.3497 -0.5819
 6778SOL    HW125145   5.850   4.149   3.220 -0.2200 -1.7473 -2.5776
 6778SOL    HW225146   5.918   4.018   3.252  0.3659 -0.6781  0.9953
 6779SOL     OW25147   0.621  10.137  12.469 -0.0595 -0.0728 -0.0136
 6779SOL    HW125148   0.585  10.139  12.380  0.9931  1.7552 -0.4622
 6779SOL    HW225149   0.581  10.213  12.513  0.4062 -0.2024  0.6536
 6780SOL     OW25150   2.672   7.938   5.632 -0.3048 -0.2178  0.1775
 6780SOL    HW125151   2.668   7.852   5.673 -0.9469  0.3095  1.2876
 6780SOL    HW225152   2.754   7.976   5.664 -0.3783 -0.1424  0.2783
 6781SOL     OW25153  11.285  11.860   4.419  0.2629 -0.0205 -0.2238
 6781SOL    HW125154  11.373  11.837   4.390  0.4212 -0.1511  0.3404
 6781SOL    HW225155  11.273  11.951   4.392  0.2039 -0.2966 -1.1459
 6782SOL     OW25156   3.661   2.915   1.723  0.3469 -0.1433 -0.4291
 6782SOL    HW125157   3.684   2.949   1.810 -0.4811  0.4255 -0.4118
 6782SOL    HW225158   3.565   2.920   1.721  0.3340 -0.6223 -1.1913
 6783SOL     OW25159   0.037   0.703  12.513  0.1102 -0.0374 -0.5538
 6783SOL    HW125160   0.091   0.758  12.571  0.8974 -2.3636  1.0584
 6783SOL    HW225161  -0.053   0.721  12.541  0.1001  2.2993 -1.8347
 6784SOL     OW25162   1.093   1.378  12.613  0.0036  0.1204 -0.9983
 6784SOL    HW125163   1.185   1.352  12.614 -0.1815 -0.8070  1.8156
 6784SOL    HW225164   1.094   1.471  12.635  0.2805 -0.5046  2.1280
 6785SOL     OW25165   7.243  11.297   9.437  0.1937 -0.0640 -0.8028
 6785SOL    HW125166   7.185  11.374   9.438 -0.7037 -0.7210  0.2619
 6785SOL    HW225167   7.273  11.289   9.528  0.4046 -0.8773 -0.9389
 6786SOL     OW25168  10.948   1.480  10.625  0.1967  0.3041 -0.2400
 6786SOL    HW125169  10.938   1.466  10.719 -3.0407  0.7216 -0.3973
 6786SOL    HW225170  10.900   1.407  10.586  0.7993  0.5970 -1.5699
 6787SOL     OW25171   8.580   5.055  12.417  0.1281  0.4492 -0.0170
 6787SOL    HW125172   8.541   4.992  12.356 -0.9542  0.0835  1.0306
 6787SOL    HW225173   8.560   5.020  12.504  1.6926  0.9375  0.5745
 6788SOL     OW25174   6.482  11.758   2.548 -0.3252 -0.0475 -0.3504
 6788SOL    HW125175   6.520  11.809   2.477 -0.4811 -0.0047 -0.4034
 6788SOL    HW225176   6.493  11.667   2.520  0.6796 -0.0833  0.1102
 6789SOL     OW25177   9.491   4.026   1.975 -0.3775 -0.1771 -0.4127
 6789SOL    HW125178   9.456   3.961   2.036  0.2439 -0.9496 -0.8675
 6789SOL    HW225179   9.413   4.070   1.941 -0.9156 -1.6132 -1.1280
 6790SOL     OW25180  11.194   8.942   9.602 -0.2374 -0.0306 -0.1441
 6790SOL    HW125181  11.207   8.853   9.569  1.2661  0.7486 -1.7869
 6790SOL    HW225182  11.120   8.976   9.552 -0.7841 -0.3231  0.4533
 6791SOL     OW25183   8.344   2.157   7.419 -1.0128  0.2062  0.6694
 6791SOL    HW125184   8.378   2.244   7.440 -2.3007  0.6014  1.2314
 6791SOL    HW225185   8.384   2.135   7.335  0.0899  0.9107  0.9858
 6792SOL     OW25186   4.769   3.571   7.504 -0.1039  0.4411 -0.1367
 6792SOL    HW125187   4.701   3.612   7.558 -1.3741  0.7374 -1.8726
 6792SOL    HW225188   4.839   3.636   7.500 -0.5125  0.9047  0.1555
 6793SOL     OW25189  11.601   8.416   9.383  0.1588  0.1740  0.1743
 6793SOL    HW125190  11.660   8.373   9.444  2.7706  1.0798 -1.5443
 6793SOL    HW225191  11.577   8.498   9.426  2.4080  1.0554 -0.1533
 6794SOL     OW25192   9.407   2.282   0.250 -0.4787 -0.4753 -0.0856
 6794SOL    HW125193   9.366   2.335   0.182  0.6271 -0.6576 -0.9260
 6794SOL    HW225194   9.354   2.203   0.254 -0.3364 -0.6206 -1.0022
 6795SOL     OW25195  10.485   5.235   3.358  0.5648 -0.8358 -0.7306
 6795SOL    HW125196  10.413   5.200   3.304 -0.2455 -1.6560  0.8180
 6795SOL    HW225197  10.519   5.308   3.307 -2.2724  0.4936 -0.9547
 6796SOL     OW25198   6.107   9.714   9.933  0.1924  0.3627  0.2699
 6796SOL    HW125199   6.182   9.763   9.901  0.9045 -1.0995 -0.3921
 6796SOL    HW225200   6.116   9.715  10.028  0.8306  0.5246  0.2107
 6797SOL     OW25201  10.724   8.787   7.753 -0.0194  0.0018  0.4779
 6797SOL    HW125202  10.745   8.864   7.700 -0.5830 -0.1159  0.0688
 6797SOL    HW225203  10.628   8.790   7.763 -0.2147 -1.3552 -0.6837
 6798SOL     OW25204   9.604   7.312  11.412 -0.3413 -0.3524 -0.1320
 6798SOL    HW125205   9.696   7.332  11.429 -0.5466 -1.0937  2.2836
 6798SOL    HW225206   9.593   7.222  11.443 -2.0808  0.0754  0.6163
 6799SOL     OW25207   0.168   3.839   6.359  0.1500  0.2872 -0.1995
 6799SOL    HW125208   0.258   3.812   6.340  0.8689  2.2570  0.1570
 6799SOL    HW225209   0.136   3.773   6.421  2.2981  0.9741  1.7802
 6800SOL     OW25210   7.994   2.472   0.607 -0.8680  0.1784 -0.4136
 6800SOL    HW125211   7.958   2.505   0.689 -0.4262 -3.1079  1.2938
 6800SOL    HW225212   8.080   2.436   0.632  0.0694  0.6898 -2.7166
 6801SOL     OW25213   5.579   3.814   5.838  0.1190  0.4806 -0.3484
 6801SOL    HW125214   5.532   3.740   5.877  2.7899 -1.0382  0.2566
 6801SOL    HW225215   5.578   3.796   5.744 -0.3247  0.3332 -0.3146
 6802SOL     OW25216   7.184  10.956   8.058  0.0275 -0.1001 -0.2338
 6802SOL    HW125217   7.273  10.982   8.035  0.9162 -2.1665  0.6936
 6802SOL    HW225218   7.164  11.009   8.135  1.6885 -1.7872  1.4422
 6803SOL     OW25219  10.967   7.960   9.337 -0.3541 -0.1291 -0.7444
 6803SOL    HW125220  11.056   7.950   9.369  0.1958  0.3286 -2.0708
 6803SOL    HW225221  10.944   8.051   9.356 -0.4348 -0.1694 -0.6491
 6804SOL     OW25222   3.770  10.354   9.417 -0.1684  0.3347 -0.4880
 6804SOL    HW125223   3.742  10.364   9.326 -1.5804 -1.4547 -0.3085
 6804SOL    HW225224   3.763  10.442   9.454 -2.4240  0.5879 -1.3537
 6805SOL     OW25225   7.960   6.285   6.023  0.0983 -0.0293 -0.2682
 6805SOL    HW125226   7.942   6.280   5.930 -1.0708  1.2127 -0.1300
 6805SOL    HW225227   7.902   6.219   6.063  1.2554 -1.2149 -0.4629
 6806SOL     OW25228   2.712   1.316  11.870 -0.0182  0.2452 -0.7897
 6806SOL    HW125229   2.761   1.389  11.832  1.0938  0.0133  0.1235
 6806SOL    HW225230   2.624   1.324  11.834  0.5022  1.1120 -1.9201
 6807SOL     OW25231  11.944  12.013   5.814 -0.3632 -0.1893  0.1537
 6807SOL    HW125232  11.954  11.918   5.806 -1.2564 -0.2956  0.1999
 6807SOL    HW225233  11.900  12.026   5.898 -1.8982  0.1248 -0.6633
 6808SOL     OW25234   5.686   2.307   6.670 -0.0659  0.4248  0.1696
 6808SOL    HW125235   5.647   2.245   6.608  1.3798  1.7669 -2.2656
 6808SOL    HW225236   5.777   2.314   6.642  0.1375  2.6378  1.1724
 6809SOL     OW25237   6.583   8.024   4.272 -0.0901  0.2507 -0.4979
 6809SOL    HW125238   6.546   8.040   4.185 -2.2572 -0.4303  0.2517
 6809SOL    HW225239   6.512   8.041   4.333  2.1693  3.8149  1.5321
 6810SOL     OW25240   6.608  11.167  10.599 -0.0206  0.0725  0.7160
 6810SOL    HW125241   6.552  11.216  10.659 -0.5550 -1.2442  1.3211
 6810SOL    HW225242   6.550  11.138  10.528  0.1318 -0.2997  0.7371
 6811SOL     OW25243   9.408   7.929   0.463  0.0065 -0.1906  0.8403
 6811SOL    HW125244   9.422   8.012   0.509 -0.3071 -0.3500  1.2270
 6811SOL    HW225245   9.493   7.885   0.468  0.1593  0.0827  0.6802
 6812SOL     OW25246   0.160   4.159  11.032  0.8730 -0.6500 -0.3979
 6812SOL    HW125247   0.094   4.112  10.980 -2.2883  1.3696  1.4432
 6812SOL    HW225248   0.199   4.221  10.970 -1.0140  0.0050 -0.9957
 6813SOL     OW25249   7.275   0.927   9.258 -0.4178 -0.1855  0.0150
 6813SOL    HW125250   7.276   1.013   9.300  0.4257 -1.1441  2.0923
 6813SOL    HW225251   7.316   0.869   9.322  1.1571 -1.7404 -2.2612
 6814SOL     OW25252   6.552  10.775   9.846 -0.2290  0.0109 -0.9569
 6814SOL    HW125253   6.518  10.685   9.843 -0.1384 -0.0328 -0.6642
 6814SOL    HW225254   6.635  10.768   9.893 -0.9131  0.4604  0.3848
 6815SOL     OW25255  11.184  11.666   6.678 -0.5842  0.0704 -0.3171
 6815SOL    HW125256  11.140  11.581   6.670 -2.3963  0.8882  0.5253
 6815SOL    HW225257  11.194  11.696   6.588 -2.2907  0.0998 -0.5348
 6816SOL     OW25258   8.634   0.282   7.622 -0.4391 -0.3168 -0.7653
 6816SOL    HW125259   8.718   0.265   7.579 -0.6905 -0.6744 -1.1253
 6816SOL    HW225260   8.579   0.317   7.552 -0.7123 -0.4666 -0.6253
 6817SOL     OW25261  12.488  11.262   8.800 -0.5377  0.1894 -0.4034
 6817SOL    HW125262  12.439  11.240   8.879  0.5257 -0.5919  0.0569
 6817SOL    HW225263  12.580  11.262   8.828  0.0112 -1.7374 -1.9779
 6818SOL     OW25264   0.128  11.804  10.425 -0.2589  0.0983  0.5449
 6818SOL    HW125265   0.223  11.791  10.416 -0.3177 -1.3035  1.7144
 6818SOL    HW225266   0.108  11.875  10.363  1.3775 -0.2673 -0.4605
 6819SOL     OW25267  11.216   6.779   5.472  0.4025  0.4084 -0.5235
 6819SOL    HW125268  11.174   6.693   5.471  0.4387  0.3793  0.3869
 6819SOL    HW225269  11.143   6.841   5.464  0.1329  0.3662  1.3065
 6820SOL     OW25270   5.479   3.614   4.880 -0.1130  0.0914  0.1541
 6820SOL    HW125271   5.553   3.650   4.928 -0.2858 -0.0011  0.4928
 6820SOL    HW225272   5.458   3.533   4.926  0.6649 -0.7831 -0.9503
 6821SOL     OW25273   9.923   9.659   5.056 -0.0390 -0.1181 -0.8200
 6821SOL    HW125274   9.836   9.672   5.093 -0.2678  0.2892 -1.4930
 6821SOL    HW225275   9.970   9.740   5.078 -0.2072  0.1671 -1.5021
 6822SOL     OW25276   3.845  11.277   3.933 -0.1883  0.3346  0.1617
 6822SOL    HW125277   3.910  11.347   3.945 -0.9623  1.2807 -0.8952
 6822SOL    HW225278   3.895  11.196   3.938  0.7908  0.9748  1.0880
 6823SOL     OW25279   3.205   3.139   2.226  0.6392 -0.5632  0.0629
 6823SOL    HW125280   3.153   3.065   2.195  0.9376 -0.0452 -1.7529
 6823SOL    HW225281   3.143   3.211   2.235 -0.1594 -1.4945  4.1634
 6824SOL     OW25282   7.497   2.367   2.349 -0.1002  0.2269 -0.7987
 6824SOL    HW125283   7.535   2.454   2.362  0.9529 -0.2295 -0.7397
 6824SOL    HW225284   7.455   2.372   2.263 -0.4589  0.9324 -0.5890
 6825SOL     OW25285   4.132   1.948  11.988  0.0133  0.1919  0.1946
 6825SOL    HW125286   4.226   1.945  12.003 -0.0306  0.0813  0.4662
 6825SOL    HW225287   4.094   1.952  12.076 -0.2376  0.1050  0.0916
 6826SOL     OW25288  11.385   3.941   7.569  0.5397 -1.0126  0.5085
 6826SOL    HW125289  11.336   3.859   7.572  0.2159 -0.8003  1.1142
 6826SOL    HW225290  11.322   4.006   7.537  0.9060 -1.0664 -0.3674
 6827SOL     OW25291   3.983   9.406   0.368 -0.5326  0.3965 -0.2415
 6827SOL    HW125292   3.891   9.396   0.392 -0.2073 -1.2021  0.4490
 6827SOL    HW225293   3.982   9.426   0.274 -1.5991  1.2121 -0.0683
 6828SOL     OW25294  10.084   1.787   6.519  0.3846  0.3749 -0.1445
 6828SOL    HW125295  10.077   1.849   6.447 -0.0557  0.5800  0.0709
 6828SOL    HW225296   9.995   1.778   6.552  0.5242  0.0081  0.1426
 6829SOL     OW25297   0.114   6.763   6.514  0.3240 -0.7179  0.1177
 6829SOL    HW125298   0.063   6.764   6.433 -0.6047 -1.7343  0.6628
 6829SOL    HW225299   0.082   6.687   6.562  3.5023 -2.4576 -0.2265
 6830SOL     OW25300   3.930   3.198   9.205  0.0527 -0.4370 -0.1324
 6830SOL    HW125301   4.001   3.149   9.247  0.6958 -0.2632 -0.9939
 6830SOL    HW225302   3.969   3.283   9.184 -0.2589 -0.5239 -1.0710
 6831SOL     OW25303   6.307   1.667   4.679 -0.1070 -0.4008 -0.4546
 6831SOL    HW125304   6.255   1.587   4.684  0.8773 -1.2230 -2.4410
 6831SOL    HW225305   6.265   1.719   4.611  0.3822 -0.1098 -0.5385
 6832SOL     OW25306   9.790   4.773   7.210  0.5194  0.1497  0.1105
 6832SOL    HW125307   9.873   4.790   7.256  0.3438 -0.8698  0.8292
 6832SOL    HW225308   9.787   4.840   7.142  2.0138  0.1075 -0.0354
 6833SOL     OW25309   6.112   2.618   0.144  0.5332  0.0217 -0.1125
 6833SOL    HW125310   6.051   2.563   0.094  0.1912  1.3719 -1.2584
 6833SOL    HW225311   6.105   2.586   0.234 -1.6888 -0.0495 -0.2542
 6834SOL     OW25312   7.786   6.243   0.156  0.8091 -0.7119 -0.5469
 6834SOL    HW125313   7.724   6.250   0.083 -0.1553 -0.4734  0.2758
 6834SOL    HW225314   7.854   6.307   0.136 -0.1720  0.3510 -0.5525
 6835SOL     OW25315  11.826  11.958   7.874  0.6319 -0.5598  0.0527
 6835SOL    HW125316  11.867  12.038   7.906  0.9032 -1.6586  2.7245
 6835SOL    HW225317  11.774  11.926   7.948 -0.9935 -1.8957 -1.5529
 6836SOL     OW25318   3.221   8.803  10.133  0.0352 -0.2413 -0.7836
 6836SOL    HW125319   3.282   8.730  10.129 -0.5364 -0.8674  0.9336
 6836SOL    HW225320   3.144   8.767  10.178 -1.0014  0.9290 -1.5550
 6837SOL     OW25321   5.258   4.644   6.965 -0.0325  0.6016 -0.2367
 6837SOL    HW125322   5.300   4.706   7.025 -2.1205  0.4321  1.5410
 6837SOL    HW225323   5.219   4.699   6.897 -1.4151  1.2844  1.0376
 6838SOL     OW25324  11.841   4.657   0.943  0.4426 -0.1200 -0.4687
 6838SOL    HW125325  11.786   4.735   0.933  0.5192  0.0659  0.4709
 6838SOL    HW225326  11.880   4.666   1.030  0.4527 -1.2045 -0.3489
 6839SOL     OW25327   2.739  10.849   0.704 -0.0520 -0.1132 -0.5557
 6839SOL    HW125328   2.740  10.943   0.685 -1.1781 -0.1873 -1.0882
 6839SOL    HW225329   2.660  10.818   0.661  0.4527 -1.3615 -0.6067
 6840SOL     OW25330   7.058   1.953  12.614  0.2609 -0.1993  0.0627
 6840SOL    HW125331   7.048   2.001  12.531 -1.2566  1.0356  0.9150
 6840SOL    HW225332   6.975   1.965  12.659  0.8662 -1.3144  1.5541
 6841SOL     OW25333   0.995   0.025  10.856  0.4877  0.1059 -0.0792
 6841SOL    HW125334   0.989  -0.001  10.948 -2.5393  3.0347  0.7616
 6841SOL    HW225335   1.065   0.091  10.854  0.5838  0.0096  0.1055
 6842SOL     OW25336   0.340   0.938   8.113  0.5646 -0.3850  0.2895
 6842SOL    HW125337   0.423   0.979   8.134  1.1614 -0.7636 -1.1560
 6842SOL    HW225338   0.296   0.926   8.197  2.5499 -1.4143  1.2394
 6843SOL     OW25339   6.175   5.648   6.598  0.1676 -0.5670  0.4923
 6843SOL    HW125340   6.166   5.684   6.510 -1.9524  0.6033  1.1257
 6843SOL    HW225341   6.177   5.725   6.655  0.4289 -1.3439  1.5602
 6844SOL     OW25342  11.912   6.874  10.921 -0.2414  0.0342 -0.3357
 6844SOL    HW125343  11.913   6.894  11.014 -2.1270 -2.8387  0.4678
 6844SOL    HW225344  11.860   6.944  10.882 -3.2894 -0.9551  1.5969
 6845SOL     OW25345   3.972   2.605   3.445  0.4134 -0.0479 -0.5304
 6845SOL    HW125346   3.906   2.538   3.461  0.2530  0.7120  2.7181
 6845SOL    HW225347   3.922   2.686   3.434  0.7338  0.0589 -1.3456
 6846SOL     OW25348   4.618  11.351   4.962 -0.0181 -0.1365  0.1931
 6846SOL    HW125349   4.650  11.280   4.906  0.0984  0.5383 -0.6075
 6846SOL    HW225350   4.541  11.314   5.006 -0.5173 -0.4581 -0.9282
 6847SOL     OW25351   4.226  11.940   5.721 -0.4758  0.3372 -0.3051
 6847SOL    HW125352   4.191  11.928   5.633 -0.7187 -0.2033 -0.1343
 6847SOL    HW225353   4.184  11.872   5.774  1.0793 -0.5734 -0.1670
 6848SOL     OW25354   9.122   3.906  11.594 -0.0933 -0.3549 -0.6364
 6848SOL    HW125355   9.093   3.894  11.684 -0.2457 -2.4811 -0.9016
 6848SOL    HW225356   9.148   3.818  11.565  1.5778  0.5575 -2.1331
 6849SOL     OW25357   3.008  11.166   9.693  0.4000 -0.5176  0.1024
 6849SOL    HW125358   3.043  11.140   9.779 -0.6280 -1.3182  0.3043
 6849SOL    HW225359   2.961  11.247   9.710  0.9313 -0.2000  0.1052
 6850SOL     OW25360  11.967   0.487   1.389 -0.3190 -0.0228  0.5041
 6850SOL    HW125361  11.962   0.579   1.415 -0.2900 -0.0179  0.4922
 6850SOL    HW225362  11.901   0.443   1.443 -0.3468  0.0085  0.4951
 6851SOL     OW25363  10.630   6.174  10.589  0.0616 -0.4969 -0.1929
 6851SOL    HW125364  10.669   6.192  10.675  1.0237  0.6046 -0.8377
 6851SOL    HW225365  10.702   6.135  10.539  0.1381  0.8496 -1.1617
 6852SOL     OW25366   1.401   1.031   3.248  0.1208  0.3639  0.3541
 6852SOL    HW125367   1.350   1.068   3.320 -0.3751  0.5056 -0.0553
 6852SOL    HW225368   1.358   1.064   3.169 -0.1048 -0.7697 -0.0244
 6853SOL     OW25369   9.887  11.356   1.709 -0.3408  0.1790 -0.3719
 6853SOL    HW125370   9.861  11.264   1.703 -1.3503  0.4171  0.0460
 6853SOL    HW225371   9.980  11.357   1.687  0.2060 -1.2247  1.6752
 6854SOL     OW25372   5.104   1.543  12.094 -0.6131 -0.8079  0.0440
 6854SOL    HW125373   5.166   1.473  12.077  0.8753  0.8200 -1.6594
 6854SOL    HW225374   5.156   1.614  12.132 -1.6931  0.1035 -0.0931
 6855SOL     OW25375   2.943  11.702  11.959  0.1523  0.8164 -0.1630
 6855SOL    HW125376   3.005  11.680  12.029  0.1251  1.2991  0.0159
 6855SOL    HW225377   2.992  11.690  11.878  0.1587  0.1656 -0.0673
 6856SOL     OW25378  10.391   2.950   4.219 -0.0537 -0.1625  0.1548
 6856SOL    HW125379  10.382   3.018   4.287 -0.8709 -0.6501  0.5522
 6856SOL    HW225380  10.429   2.996   4.144 -2.2957  1.1886 -0.2299
 6857SOL     OW25381  12.004   9.244   3.748  0.2633  0.0034 -0.0933
 6857SOL    HW125382  11.925   9.192   3.734  0.4899 -0.8174  1.4232
 6857SOL    HW225383  12.048   9.201   3.822  1.2488  1.4622  0.2147
 6858SOL     OW25384   0.304   9.575  11.650 -0.3247 -0.4773  0.2824
 6858SOL    HW125385   0.258   9.546  11.728  0.3855 -1.1355  0.4723
 6858SOL    HW225386   0.396   9.580  11.677  0.1633 -2.2068 -0.9004
 6859SOL     OW25387   9.226   9.873  11.278  0.0656  0.0404 -0.2376
 6859SOL    HW125388   9.206   9.946  11.220  1.0199  0.1623 -0.4318
 6859SOL    HW225389   9.316   9.889  11.306 -0.1612 -0.3680  0.7610
 6860SOL     OW25390   0.015  11.331  10.352 -0.2183  0.5297  0.5145
 6860SOL    HW125391   0.040  11.319  10.444 -1.2517 -1.0684  0.6266
 6860SOL    HW225392  -0.074  11.368  10.356 -1.3595 -2.0143  0.2327
 6861SOL     OW25393   7.268   5.095   9.059 -0.4115 -0.1290  0.3595
 6861SOL    HW125394   7.172   5.099   9.063 -0.5727 -1.0891 -1.5581
 6861SOL    HW225395   7.287   5.002   9.047  0.5235  0.3423 -2.6721
 6862SOL     OW25396   0.686   6.330   9.331 -0.5370  0.3788 -0.2620
 6862SOL    HW125397   0.647   6.267   9.271 -1.1597  1.4373 -0.9955
 6862SOL    HW225398   0.638   6.411   9.316  0.3824  1.0984  0.5172
 6863SOL     OW25399   4.661   2.643   4.480 -0.2795 -0.2030 -0.0596
 6863SOL    HW125400   4.642   2.691   4.561 -0.1139 -1.3910  0.7154
 6863SOL    HW225401   4.756   2.635   4.478 -0.2025  0.8542 -1.0044
 6864SOL     OW25402  11.423   3.321   5.106  0.2592 -0.4199 -0.5157
 6864SOL    HW125403  11.500   3.376   5.120 -1.4030  1.9432 -0.0582
 6864SOL    HW225404  11.433   3.287   5.017  1.2242  0.8540 -0.9184
 6865SOL     OW25405   8.167   7.750  10.985  0.2119  0.1796 -0.2191
 6865SOL    HW125406   8.138   7.685  11.048 -0.5472  0.3361 -0.3929
 6865SOL    HW225407   8.104   7.743  10.912 -0.8653  2.1542  0.4437
 6866SOL     OW25408  10.940   2.040   8.109 -0.0746 -0.2903 -0.2573
 6866SOL    HW125409  10.933   1.983   8.186  0.2372  0.8855  0.6705
 6866SOL    HW225410  10.969   1.982   8.039 -1.9803 -1.7591  0.0656
 6867SOL     OW25411   5.592   1.515   2.399  0.3420 -0.2857  0.0055
 6867SOL    HW125412   5.554   1.478   2.320 -0.6756 -1.6160  1.0716
 6867SOL    HW225413   5.653   1.582   2.368 -0.8404 -0.0155 -1.8418
 6868SOL     OW25414   7.589   0.600   0.349 -0.2722  0.0070 -0.0116
 6868SOL    HW125415   7.563   0.655   0.276 -1.1551 -1.0789 -0.5467
 6868SOL    HW225416   7.685   0.595   0.343 -0.4431 -3.0072 -3.3881
 6869SOL     OW25417   3.989   5.900   5.124  0.1478  0.2593  0.0485
 6869SOL    HW125418   3.957   5.979   5.080 -4.5616 -0.8558  0.9107
 6869SOL    HW225419   3.986   5.832   5.057 -1.2171 -0.2068  0.5350
 6870SOL     OW25420   6.883   4.345   9.621  0.1806  0.1435  0.7811
 6870SOL    HW125421   6.820   4.405   9.661  0.2452  0.1066  0.9344
 6870SOL    HW225422   6.903   4.282   9.689 -0.1335 -0.2456  0.5191
 6871SOL     OW25423   4.009   0.916   8.718  0.1538 -0.2066  0.2606
 6871SOL    HW125424   4.087   0.862   8.707 -0.8587 -1.5324 -0.7723
 6871SOL    HW225425   4.007   0.937   8.811  1.1528 -1.0516  0.4911
 6872SOL     OW25426   4.563   7.514   6.683 -1.1305  0.3246  0.0426
 6872SOL    HW125427   4.647   7.560   6.673  0.4998 -2.4888 -0.1877
 6872SOL    HW225428   4.530   7.507   6.594  1.4577 -3.6518 -0.8639
 6873SOL     OW25429   6.324   0.524   7.602 -0.6683 -0.1892  0.6030
 6873SOL    HW125430   6.280   0.577   7.669 -0.8907  0.9801 -0.4264
 6873SOL    HW225431   6.416   0.523   7.628 -0.4001  1.9279 -0.0838
 6874SOL     OW25432   7.941   2.670   6.589  0.2520 -0.1938  0.1807
 6874SOL    HW125433   7.884   2.651   6.664  0.1903  0.9785  0.4409
 6874SOL    HW225434   7.889   2.726   6.532 -0.3999 -2.5618 -1.7125
 6875SOL     OW25435   4.127   8.188   3.746 -0.0403 -0.1587  0.6375
 6875SOL    HW125436   4.031   8.191   3.743 -0.0318 -0.2861 -0.0270
 6875SOL    HW225437   4.154   8.254   3.681  0.3214 -0.0384  0.9102
 6876SOL     OW25438  10.464   5.809   0.616  0.3529 -0.3935 -0.4518
 6876SOL    HW125439  10.377   5.839   0.587  0.9738  0.7037 -1.2303
 6876SOL    HW225440  10.469   5.718   0.586 -0.5558 -0.4975 -0.3176
 6877SOL     OW25441   2.697  12.389  11.214 -0.0453  0.9398 -0.0005
 6877SOL    HW125442   2.745  12.318  11.256 -0.3441  0.6201 -0.1967
 6877SOL    HW225443   2.761  12.460  11.205  0.5279  0.3262 -0.7583
 6878SOL     OW25444   9.341   4.887   1.132 -0.0491  0.3843  0.4462
 6878SOL    HW125445   9.373   4.974   1.108  0.9678  0.7758  2.9281
 6878SOL    HW225446   9.248   4.888   1.107  0.1434  1.8654 -0.3342
 6879SOL     OW25447  11.805   1.888   8.356  0.6036  0.3261 -0.8936
 6879SOL    HW125448  11.744   1.961   8.367  0.9286  0.5166 -0.3324
 6879SOL    HW225449  11.832   1.865   8.445  1.7663  0.5998 -1.1490
 6880SOL     OW25450  11.188   1.436  10.231  0.0832 -0.3147 -0.0337
 6880SOL    HW125451  11.181   1.434  10.327  0.0154 -0.7908 -0.0449
 6880SOL    HW225452  11.098   1.441  10.200  0.1426  0.7766 -0.0633
 6881SOL     OW25453   8.316   9.136   7.367 -0.4470 -0.1287  0.0282
 6881SOL    HW125454   8.316   9.057   7.421  0.2515  1.5620  2.7493
 6881SOL    HW225455   8.245   9.189   7.404  1.6286  2.1232  1.0298
 6882SOL     OW25456   3.664   6.342   9.389  0.3228  0.1142 -0.2121
 6882SOL    HW125457   3.622   6.267   9.349  0.4275 -0.1475  0.1671
 6882SOL    HW225458   3.603   6.371   9.457  0.3742  0.2460 -0.2213
 6883SOL     OW25459   1.834  11.331   1.507 -0.0089  0.0226 -0.2835
 6883SOL    HW125460   1.809  11.241   1.488  2.0085 -0.2897 -1.7793
 6883SOL    HW225461   1.753  11.382   1.498 -0.6212 -1.2342 -2.3822
 6884SOL     OW25462   5.440   5.449   3.670  0.0260 -0.6537 -0.0599
 6884SOL    HW125463   5.421   5.358   3.645  0.7525 -0.3882 -1.6951
 6884SOL    HW225464   5.377   5.501   3.620 -0.6264 -0.2662  1.1481
 6885SOL     OW25465   4.362   5.434   4.545  0.5377  0.1226 -0.1628
 6885SOL    HW125466   4.319   5.445   4.631 -1.7636 -1.0396 -1.0802
 6885SOL    HW225467   4.455   5.426   4.566  0.0631  0.0091  2.2257
 6886SOL     OW25468   6.421   9.114  11.413 -0.1747 -0.0178  0.0730
 6886SOL    HW125469   6.440   9.207  11.427 -0.1798 -0.0316  0.1803
 6886SOL    HW225470   6.470   9.091  11.335 -0.5881  0.2037 -0.2568
 6887SOL     OW25471  11.430   9.969  11.854 -0.0584 -0.1923 -0.2613
 6887SOL    HW125472  11.495  10.029  11.892  0.1315  0.0343 -0.9257
 6887SOL    HW225473  11.420   9.900  11.920 -2.2665  1.8893  1.7539
 6888SOL     OW25474   1.536   8.842   6.586  0.4237  0.4217  0.3507
 6888SOL    HW125475   1.561   8.761   6.540 -0.0839  0.6223 -0.3003
 6888SOL    HW225476   1.452   8.866   6.547  0.4635  1.1437  0.7003
 6889SOL     OW25477   5.183   5.479   7.680 -0.1564 -0.0088 -0.0497
 6889SOL    HW125478   5.251   5.420   7.713 -0.2701  0.6220  1.3530
 6889SOL    HW225479   5.117   5.421   7.642  0.6464 -0.6742 -0.4604
 6890SOL     OW25480   6.244   3.057   7.405  0.0212 -0.2466  0.3440
 6890SOL    HW125481   6.167   3.090   7.359  1.2175  2.6894  0.2452
 6890SOL    HW225482   6.260   3.120   7.475 -0.0566 -3.0664  3.1558
 6891SOL     OW25483   5.876   8.206   1.848  0.0344 -0.1707  0.0820
 6891SOL    HW125484   5.890   8.111   1.854 -0.7414 -0.3167 -0.2759
 6891SOL    HW225485   5.809   8.224   1.914  0.3817  0.1790  0.3435
 6892SOL     OW25486  11.325   9.484  10.614 -1.0449 -0.8069  0.3434
 6892SOL    HW125487  11.389   9.474  10.684 -0.2698 -0.0037 -0.2227
 6892SOL    HW225488  11.350   9.419  10.549  0.4132  0.7557 -0.7339
 6893SOL     OW25489   1.949   2.801  11.391 -0.0339  0.2498 -0.0191
 6893SOL    HW125490   1.939   2.845  11.308 -1.4160 -0.9525 -0.5369
 6893SOL    HW225491   1.977   2.712  11.368  0.5526  0.1906  0.8567
 6894SOL     OW25492   4.141   4.111   9.420  0.0723 -0.7830  0.0338
 6894SOL    HW125493   4.130   4.086   9.328 -3.0554 -0.4250  0.2204
 6894SOL    HW225494   4.136   4.206   9.419 -2.2396 -0.8643  0.7636
 6895SOL     OW25495   6.902   8.798   9.009  0.2407 -0.4612  0.1361
 6895SOL    HW125496   6.879   8.870   8.951  0.3674 -0.7443 -0.2719
 6895SOL    HW225497   6.858   8.818   9.091 -1.4197 -0.9721 -0.5987
 6896SOL     OW25498  12.394   5.627   5.217  0.3156 -0.4295  0.1352
 6896SOL    HW125499  12.458   5.607   5.149  0.1124  0.5966 -0.3764
 6896SOL    HW225500  12.443   5.625   5.299  0.7648 -0.7154 -0.1377
 6897SOL     OW25501   5.535   7.928  10.764 -0.2519  0.7918  0.3039
 6897SOL    HW125502   5.572   7.950  10.679 -0.8189  0.2790 -0.0799
 6897SOL    HW225503   5.581   7.849  10.791 -0.4990  0.6086  0.1923
 6898SOL     OW25504   5.387   6.116  12.123  0.0119 -0.3742  0.7782
 6898SOL    HW125505   5.327   6.189  12.109 -0.5867 -1.0478 -0.3349
 6898SOL    HW225506   5.474   6.153  12.107 -0.3437 -0.0662 -0.6624
 6899SOL     OW25507   6.859   2.572  10.194  0.1325  0.0247  0.2821
 6899SOL    HW125508   6.900   2.592  10.278 -0.7466 -0.9489  0.9855
 6899SOL    HW225509   6.851   2.656  10.149  0.2029  0.6319  1.3818
 6900SOL     OW25510  10.151   6.718  11.597 -0.3080  0.1195 -0.4999
 6900SOL    HW125511  10.087   6.668  11.648  1.3933 -1.1619  0.4758
 6900SOL    HW225512  10.196   6.773  11.662 -1.1029  1.8342 -1.3320
 6901SOL     OW25513   2.798   6.474   4.766  0.3100  1.0104  0.2346
 6901SOL    HW125514   2.786   6.559   4.810 -1.6622  1.7116 -1.4956
 6901SOL    HW225515   2.710   6.438   4.760  0.9414 -0.4916 -0.3880
 6902SOL     OW25516   0.468   9.717   9.194 -0.4503  1.1255  0.4931
 6902SOL    HW125517   0.441   9.633   9.229  1.8429 -0.1701 -0.5993
 6902SOL    HW225518   0.537   9.747   9.254  0.3264  1.0845 -0.3542
 6903SOL     OW25519   2.341   7.805   8.028  0.2303  0.1790  0.4607
 6903SOL    HW125520   2.320   7.798   8.121  0.7954  4.0479  1.0529
 6903SOL    HW225521   2.437   7.797   8.025  0.2145  0.0876  0.1965
 6904SOL     OW25522   1.155   9.122  11.447  0.1612  0.2441 -0.6665
 6904SOL    HW125523   1.087   9.143  11.511  1.2346  1.2207  0.2100
 6904SOL    HW225524   1.114   9.137  11.362 -0.2411  2.5956 -0.1462
 6905SOL     OW25525   9.350   1.132   6.790 -0.1778 -0.2640  0.4008
 6905SOL    HW125526   9.339   1.042   6.759  0.9204  0.8390 -3.8326
 6905SOL    HW225527   9.426   1.128   6.848  1.7607 -1.7601 -2.0449
 6906SOL     OW25528   3.226   8.436   7.209  0.1624 -0.1738  0.6199
 6906SOL    HW125529   3.163   8.488   7.159 -1.8519 -3.1424 -0.1991
 6906SOL    HW225530   3.266   8.377   7.145  1.0148 -0.8808  1.7534
 6907SOL     OW25531   9.230   9.191   2.727  0.1419 -0.2280  0.3925
 6907SOL    HW125532   9.303   9.169   2.669  0.0828 -1.2737  0.6803
 6907SOL    HW225533   9.200   9.106   2.760 -0.8918  0.2251  0.6584
 6908SOL     OW25534   8.691   2.961   4.207 -0.2857  0.3141  0.0654
 6908SOL    HW125535   8.598   2.942   4.222 -0.3948 -1.1840 -2.0001
 6908SOL    HW225536   8.691   3.027   4.137  0.1625 -0.5902 -0.8187
 6909SOL     OW25537   9.348   2.308   0.867 -0.0989  0.0449  0.1945
 6909SOL    HW125538   9.354   2.298   0.962 -0.0644  0.3138  0.2204
 6909SOL    HW225539   9.290   2.236   0.840  0.1673 -0.2400  0.3769
 6910SOL     OW25540   8.578   6.610   0.751 -0.4518 -0.3906 -0.0154
 6910SOL    HW125541   8.504   6.551   0.736 -0.4979 -0.5261  0.7116
 6910SOL    HW225542   8.551   6.693   0.711 -1.1367 -0.3487  0.5015
 6911SOL     OW25543  11.282  10.678  10.253 -0.5487 -0.0017 -0.3930
 6911SOL    HW125544  11.277  10.767  10.287  0.4464 -0.0856  0.0100
 6911SOL    HW225545  11.272  10.622  10.330  0.3830 -0.2054 -0.4016
 6912SOL     OW25546   0.198   4.121  12.622  0.0603  0.8898 -0.0497
 6912SOL    HW125547   0.112   4.163  12.628  1.1383  3.1037  0.7929
 6912SOL    HW225548   0.238   4.136  12.707  0.7357 -1.4936  0.1235
 6913SOL     OW25549   0.165   0.396   5.247 -0.2892  0.5005  0.4662
 6913SOL    HW125550   0.221   0.322   5.269  0.0245  0.4062 -0.6173
 6913SOL    HW225551   0.172   0.454   5.322 -0.8610 -0.7322  1.5220
 6914SOL     OW25552   4.863  11.951   5.220  0.3043 -0.6138 -0.4698
 6914SOL    HW125553   4.852  11.865   5.260 -0.3440 -0.7631 -0.9602
 6914SOL    HW225554   4.812  11.947   5.139 -1.9669  1.0745  0.7649
 6915SOL     OW25555  10.209   0.683   7.321 -0.2750  0.1131 -0.2025
 6915SOL    HW125556  10.276   0.752   7.324 -1.1846  1.0241  2.8431
 6915SOL    HW225557  10.258   0.602   7.334  0.4537  0.5448 -0.1605
 6916SOL     OW25558   3.091   2.368   7.719 -0.0019 -0.0100  0.1912
 6916SOL    HW125559   3.016   2.312   7.700 -2.2308  2.9522 -0.2994
 6916SOL    HW225560   3.054   2.448   7.755  3.0120  1.2341  0.8572
 6917SOL     OW25561   1.378   9.157   0.486  0.2927 -0.0440 -0.0421
 6917SOL    HW125562   1.419   9.214   0.421  2.2891  1.2251  2.1831
 6917SOL    HW225563   1.364   9.074   0.439  2.5747  0.4681 -1.8557
 6918SOL     OW25564   0.626   3.586   0.415 -0.2570  0.0635 -0.1874
 6918SOL    HW125565   0.692   3.572   0.483 -0.5869  1.1747  0.3911
 6918SOL    HW225566   0.622   3.503   0.368 -0.1671 -0.8107  1.2883
 6919SOL     OW25567   0.608   5.368   2.667 -0.3276  0.0933 -0.0218
 6919SOL    HW125568   0.612   5.395   2.759 -1.6936  0.7263 -0.1149
 6919SOL    HW225569   0.696   5.383   2.633  0.0584  0.3478  1.0489
 6920SOL     OW25570  10.625   8.179   8.505  0.3030 -0.7144 -0.4057
 6920SOL    HW125571  10.620   8.130   8.587 -1.0321  0.4440  0.2410
 6920SOL    HW225572  10.690   8.247   8.521  1.0412 -1.3188 -0.7878
 6921SOL     OW25573   6.125   2.220  10.301  0.6694 -0.4549  0.1852
 6921SOL    HW125574   6.110   2.125  10.297 -1.8957 -0.1865  1.3321
 6921SOL    HW225575   6.057   2.252  10.360  0.4266  2.3318 -1.4493
 6922SOL     OW25576   1.909  12.412   5.360 -0.0068 -0.5933 -0.0651
 6922SOL    HW125577   1.990  12.362   5.376  1.0968  0.7566 -1.2299
 6922SOL    HW225578   1.878  12.380   5.275  0.5294  0.4423 -0.6633
 6923SOL     OW25579   1.100   5.062   8.438 -0.1967 -0.7021  0.3874
 6923SOL    HW125580   1.179   5.117   8.433 -0.2217 -0.7086 -0.0911
 6923SOL    HW225581   1.062   5.083   8.523 -0.9696  1.0921 -0.3379
 6924SOL     OW25582   0.159   2.581  10.787  0.1597 -0.4241 -0.5560
 6924SOL    HW125583   0.122   2.494  10.768  0.6931 -1.1549  1.4380
 6924SOL    HW225584   0.176   2.579  10.882  2.4368  0.9748 -0.8695
 6925SOL     OW25585   9.867   8.300   3.536 -0.1342  0.1392 -0.2555
 6925SOL    HW125586   9.778   8.311   3.569 -0.4348 -2.4711  0.0308
 6925SOL    HW225587   9.857   8.294   3.441 -0.2075  0.3281 -0.2592
 6926SOL     OW25588   5.496   2.516   7.698 -0.0799  0.4090 -0.5738
 6926SOL    HW125589   5.451   2.592   7.733 -1.8466 -0.4585 -0.8600
 6926SOL    HW225590   5.434   2.444   7.708  1.3881 -0.9307 -0.6686
 6927SOL     OW25591   4.391  11.592   8.407 -0.2178 -0.1179  0.5832
 6927SOL    HW125592   4.383  11.684   8.431 -3.8550 -0.3805  0.9058
 6927SOL    HW225593   4.361  11.544   8.485  0.2668 -1.5377 -0.0591
 6928SOL     OW25594   5.542   5.433   4.822  0.1568 -0.2796 -0.0793
 6928SOL    HW125595   5.589   5.370   4.768  0.0682 -0.6067  0.2218
 6928SOL    HW225596   5.609   5.467   4.882  0.0544 -0.6095  0.2269
 6929SOL     OW25597   5.313   7.302  10.295 -0.5804  0.1592 -0.2805
 6929SOL    HW125598   5.399   7.309  10.254 -0.7167 -0.2284 -0.6479
 6929SOL    HW225599   5.299   7.208  10.307 -0.6918  0.2512  0.3487
 6930SOL     OW25600   7.389   9.449   2.259 -0.2477  0.6038 -0.1948
 6930SOL    HW125601   7.453   9.387   2.223 -2.0747 -0.0009 -2.6242
 6930SOL    HW225602   7.417   9.535   2.228  1.1093  0.8148  1.4464
 6931SOL     OW25603   7.102   2.204   4.613 -0.0490  0.5379  0.4590
 6931SOL    HW125604   7.161   2.279   4.622 -0.9940  1.9614 -3.2554
 6931SOL    HW225605   7.121   2.169   4.526 -0.9111 -2.4909  1.3684
 6932SOL     OW25606   2.946   0.858  12.286 -0.2353 -0.8383  0.3312
 6932SOL    HW125607   2.903   0.913  12.351 -1.5582 -0.7786 -0.5564
 6932SOL    HW225608   2.994   0.919  12.230 -1.2315 -0.6104 -0.3033
 6933SOL     OW25609   4.034  10.148  10.022 -0.2035  0.5984  0.0064
 6933SOL    HW125610   4.124  10.123  10.043  0.1271 -0.4711 -2.3991
 6933SOL    HW225611   4.038  10.183   9.933 -2.1683  0.5271 -0.1677
 6934SOL     OW25612   6.001   9.475  10.278 -0.1577 -0.1494 -0.2008
 6934SOL    HW125613   5.945   9.514  10.345 -0.0011 -0.6494  0.2231
 6934SOL    HW225614   6.085   9.519  10.289 -0.4607  0.6543 -0.8842
 6935SOL     OW25615   7.405   0.218   2.732 -0.2641 -0.1437  0.1395
 6935SOL    HW125616   7.379   0.216   2.825  0.5198  0.4756  0.3860
 6935SOL    HW225617   7.499   0.233   2.734 -0.5406  2.1302 -0.7706
 6936SOL     OW25618   2.039   4.605   2.994  0.1091  0.0021 -0.4827
 6936SOL    HW125619   2.073   4.694   2.992  2.0980 -0.6897 -0.8310
 6936SOL    HW225620   1.958   4.608   2.944 -0.0314  1.6711 -0.1826
 6937SOL     OW25621  11.416   8.159   1.343  0.0653 -0.2962  0.0095
 6937SOL    HW125622  11.369   8.228   1.389 -1.7059 -2.1042  1.0662
 6937SOL    HW225623  11.410   8.183   1.251 -0.7076  0.8260  0.3372
 6938SOL     OW25624   1.384  10.097   1.802 -0.1324  0.0507  0.0045
 6938SOL    HW125625   1.414  10.081   1.892  0.0527  1.5981  0.2372
 6938SOL    HW225626   1.292  10.071   1.802  0.0517 -0.6303  0.4450
 6939SOL     OW25627   8.992   1.709   9.134  0.2583  0.9110 -0.0105
 6939SOL    HW125628   8.992   1.698   9.039 -0.1384 -1.0437  0.1747
 6939SOL    HW225629   9.063   1.770   9.151  0.9040  0.6187 -1.5013
 6940SOL     OW25630   1.438   1.923   6.082 -0.2036 -0.6106  0.5319
 6940SOL    HW125631   1.373   1.951   6.147  1.0980  1.2641  1.1042
 6940SOL    HW225632   1.487   1.853   6.125 -1.4588 -1.6993  0.2738
 6941SOL     OW25633   1.844   5.805   1.439 -0.1614  0.1587 -0.1879
 6941SOL    HW125634   1.838   5.758   1.356 -1.5525 -0.8956  0.4568
 6941SOL    HW225635   1.889   5.887   1.418 -1.3064  0.3349 -2.1697
 6942SOL     OW25636   6.379  12.143   5.075 -0.5049 -0.4023  0.2940
 6942SOL    HW125637   6.395  12.093   5.155  0.0936 -0.3709  0.1988
 6942SOL    HW225638   6.464  12.147   5.032 -1.0293 -1.3610 -0.8836
 6943SOL     OW25639  10.282   1.757   4.975 -0.4570 -0.6191  0.0651
 6943SOL    HW125640  10.281   1.843   5.017 -2.5045  0.0321 -1.1578
 6943SOL    HW225641  10.197   1.750   4.932 -0.1594 -3.0680 -0.3043
 6944SOL     OW25642   2.509   5.437   9.903 -0.2040  0.3740 -0.5839
 6944SOL    HW125643   2.509   5.401   9.815  1.3316  1.0578 -0.8919
 6944SOL    HW225644   2.459   5.519   9.896  0.1068  0.5410 -0.8707
 6945SOL     OW25645   6.020   6.664  10.953 -0.7867 -0.0638 -0.0318
 6945SOL    HW125646   6.057   6.736  10.902 -0.7509 -0.6227 -0.8238
 6945SOL    HW225647   6.066   6.586  10.921 -2.5521 -0.7764 -0.9839
 6946SOL     OW25648   6.001   0.642  11.745  0.3390  0.2350 -0.5642
 6946SOL    HW125649   6.086   0.676  11.775  0.8205 -0.8307 -0.6881
 6946SOL    HW225650   6.022   0.583  11.673 -0.5195  0.0273 -0.6576
 6947SOL     OW25651  12.442   9.237   0.420  0.4048 -0.4732  0.0681
 6947SOL    HW125652  12.422   9.305   0.355 -1.9873 -1.1980 -0.0520
 6947SOL    HW225653  12.437   9.155   0.370  1.2550 -0.8813  0.6294
 6948SOL     OW25654   5.534   0.255   6.172 -0.7895 -0.3346  0.2068
 6948SOL    HW125655   5.541   0.210   6.256  1.1323 -1.5317 -0.5114
 6948SOL    HW225656   5.544   0.348   6.193  0.0267 -0.6449  1.2982
 6949SOL     OW25657   9.823   1.447   6.589  0.1740  0.5538  0.6283
 6949SOL    HW125658   9.773   1.514   6.541  0.9557  0.5066 -0.2925
 6949SOL    HW225659   9.843   1.488   6.673 -1.3715  0.5822  1.0161
 6950SOL     OW25660   0.244   9.556  10.749  0.0993  0.0571  0.0960
 6950SOL    HW125661   0.248   9.499  10.672  0.5584  1.1823 -0.7468
 6950SOL    HW225662   0.173   9.618  10.729  1.2761  1.3737 -0.1907
 6951SOL     OW25663   0.970   7.579   8.870  0.0292  0.4671 -0.0216
 6951SOL    HW125664   0.964   7.543   8.781 -0.7797 -0.9474  0.5819
 6951SOL    HW225665   0.880   7.581   8.901  0.0822  2.6264  0.1736
 6952SOL     OW25666  11.578   4.449   8.497 -0.1941 -0.2119  0.1051
 6952SOL    HW125667  11.539   4.521   8.447 -0.0795 -1.0202 -1.1847
 6952SOL    HW225668  11.666   4.480   8.518 -0.4906  0.4243  0.4445
 6953SOL     OW25669   1.164   9.633   6.367 -0.1737  0.4353  0.4390
 6953SOL    HW125670   1.182   9.544   6.337 -0.6147 -0.0901  1.6808
 6953SOL    HW225671   1.100   9.622   6.437 -0.6264  1.7759  0.2640
 6954SOL     OW25672   3.345   6.254   4.400 -0.1520 -0.4613 -0.3724
 6954SOL    HW125673   3.253   6.267   4.377 -0.4289  2.8098  1.8322
 6954SOL    HW225674   3.389   6.331   4.364  1.5283 -1.3836 -0.3721
 6955SOL     OW25675   6.554   9.737   8.014  0.0813 -0.1988  0.4790
 6955SOL    HW125676   6.551   9.683   7.935 -0.1624 -1.3647  1.2718
 6955SOL    HW225677   6.610   9.811   7.989 -0.1616 -0.4290 -0.8506
 6956SOL     OW25678   0.499   3.014  12.642 -0.2072  0.2338  0.3871
 6956SOL    HW125679   0.485   2.973  12.727  0.5700  0.4616  0.6358
 6956SOL    HW225680   0.442   2.966  12.582  1.9917 -2.5154  0.2766
 6957SOL     OW25681   2.943   3.881  12.073  0.4306 -0.3083 -0.5134
 6957SOL    HW125682   2.924   3.960  12.024 -1.4897  0.8042  1.8155
 6957SOL    HW225683   3.038   3.876  12.077  0.6419  2.7820  0.5293
 6958SOL     OW25684  11.679   2.599  10.544  0.6046 -0.0059 -0.2317
 6958SOL    HW125685  11.598   2.561  10.511 -0.0490  0.4438  0.8282
 6958SOL    HW225686  11.747   2.565  10.485 -0.3191 -0.5325 -1.0133
 6959SOL     OW25687   2.005  10.148   5.747 -0.0649 -0.1403  0.2061
 6959SOL    HW125688   2.077  10.092   5.775 -0.3271 -0.1010  0.9888
 6959SOL    HW225689   2.046  10.231   5.724  0.1085 -0.0075  0.9777
 6960SOL     OW25690   6.851   4.811   9.207  0.2970 -0.1935  0.3833
 6960SOL    HW125691   6.907   4.866   9.152 -0.3218  0.6078  0.5312
 6960SOL    HW225692   6.773   4.796   9.154 -0.9121  1.7323  1.4911
 6961SOL     OW25693   3.608   7.417   1.839 -0.1149  0.8820  0.1791
 6961SOL    HW125694   3.662   7.454   1.770  2.8797 -0.4247  1.6552
 6961SOL    HW225695   3.653   7.337   1.864 -3.1201 -0.6610  1.1633
 6962SOL     OW25696   9.806  11.752   7.226  0.4076  0.1374 -0.2489
 6962SOL    HW125697   9.785  11.659   7.217 -0.3357  0.3416 -0.7402
 6962SOL    HW225698   9.732  11.797   7.187  0.6628  0.9486  0.1813
 6963SOL     OW25699   8.378   7.512   8.059 -0.2411  0.3978 -0.6099
 6963SOL    HW125700   8.343   7.524   7.971 -0.1756 -1.4387 -0.9328
 6963SOL    HW225701   8.473   7.513   8.046 -0.1471  2.8524 -0.1133
 6964SOL     OW25702   9.326   5.761   6.612  0.1916 -0.5784 -0.0655
 6964SOL    HW125703   9.322   5.853   6.638  0.7843 -0.6083  0.1313
 6964SOL    HW225704   9.348   5.764   6.518  0.5736 -0.5284  0.0260
 6965SOL     OW25705   7.701   2.630   3.345 -0.0698  0.4376 -0.1880
 6965SOL    HW125706   7.692   2.538   3.368  0.9407  0.0474 -1.2127
 6965SOL    HW225707   7.759   2.630   3.268  0.8072  1.9921  0.4152
 6966SOL     OW25708   8.540   7.106  11.571 -0.2955  0.5658  0.2300
 6966SOL    HW125709   8.578   7.027  11.532 -1.7446  0.7916 -1.8257
 6966SOL    HW225710   8.575   7.178  11.518 -1.0267  1.0508  0.3844
 6967SOL     OW25711   9.250   8.327   0.885  0.4533  0.0457 -0.4580
 6967SOL    HW125712   9.322   8.356   0.941 -0.1936 -0.0913  0.4767
 6967SOL    HW225713   9.201   8.407   0.866  0.2256 -0.0232 -0.1662
 6968SOL     OW25714   9.595  10.364   0.777 -0.1172  0.0147  0.0186
 6968SOL    HW125715   9.620  10.305   0.848 -0.6276 -0.2231  0.0031
 6968SOL    HW225716   9.518  10.324   0.738 -0.1443  0.4100 -0.3466
 6969SOL     OW25717   1.291  11.444   1.143  0.4876 -0.1785  0.3200
 6969SOL    HW125718   1.223  11.510   1.138  0.0840 -0.6913 -1.8978
 6969SOL    HW225719   1.244  11.361   1.148  0.9871 -0.4204  1.3771
 6970SOL     OW25720  12.478  11.593   9.403 -0.0657  0.7556 -0.3007
 6970SOL    HW125721  12.434  11.678   9.407 -2.8009 -0.5660 -0.4655
 6970SOL    HW225722  12.472  11.559   9.492 -0.2440  0.1325 -0.5521
 6971SOL     OW25723   6.535   3.098   8.036  0.1904  0.6158 -0.2106
 6971SOL    HW125724   6.591   3.023   8.014  0.8038  1.1904 -0.6691
 6971SOL    HW225725   6.498   3.126   7.952 -2.5649 -1.0799  0.3312
 6972SOL     OW25726  11.023   6.709   7.091 -0.2246  0.2424 -0.2872
 6972SOL    HW125727  11.080   6.662   7.029 -1.2180  0.1779 -1.1872
 6972SOL    HW225728  11.016   6.797   7.054  0.7529  0.7975  0.8105
 6973SOL     OW25729   5.619   6.326   8.344  0.5392  0.5786 -0.0160
 6973SOL    HW125730   5.624   6.245   8.395  0.6118  0.5864 -0.0095
 6973SOL    HW225731   5.707   6.364   8.351  1.2461 -0.5611 -1.9958
 6974SOL     OW25732   2.147   2.590   5.745  0.3762 -0.5095  0.1466
 6974SOL    HW125733   2.180   2.502   5.759  1.2249 -0.0088  1.5287
 6974SOL    HW225734   2.056   2.587   5.775  1.0068 -0.4380  2.1443
 6975SOL     OW25735   8.419   8.777   3.956  0.6615 -0.0826  0.1560
 6975SOL    HW125736   8.445   8.838   3.887  1.3639 -0.4180  0.1204
 6975SOL    HW225737   8.324   8.785   3.960  0.5376 -0.6093 -1.3453
 6976SOL     OW25738  11.632   3.528   9.733 -0.3238 -0.5368 -0.4891
 6976SOL    HW125739  11.585   3.528   9.817 -1.4376 -1.4689 -1.0869
 6976SOL    HW225740  11.656   3.620   9.720 -1.7246 -0.0722 -0.0091
 6977SOL     OW25741   0.695   3.225   0.622  0.4457  0.1612 -0.1199
 6977SOL    HW125742   0.728   3.196   0.537  0.5048 -0.2351  0.0345
 6977SOL    HW225743   0.601   3.210   0.618  0.2215  1.5932 -0.6783
 6978SOL     OW25744   9.619   1.285  12.087  0.3969  0.3852  0.9660
 6978SOL    HW125745   9.540   1.231  12.087  0.4270  0.3019 -0.7184
 6978SOL    HW225746   9.629   1.311  12.179 -0.5022 -1.1599  1.5533
 6979SOL     OW25747   2.936   8.313   0.564  0.1024 -0.2105 -0.0095
 6979SOL    HW125748   2.847   8.287   0.538 -0.4975  0.1267  1.5880
 6979SOL    HW225749   2.985   8.231   0.569 -0.6039 -0.6076  0.7608
 6980SOL     OW25750   5.157  10.731   2.251  0.7169 -0.4548 -0.0883
 6980SOL    HW125751   5.152  10.700   2.161 -1.1906 -0.3047 -0.0910
 6980SOL    HW225752   5.143  10.826   2.245 -0.2857 -0.5566  0.4025
 6981SOL     OW25753   6.218  10.078   9.281  0.2492  0.0141 -0.4150
 6981SOL    HW125754   6.186  10.128   9.206 -2.2687 -1.2352 -0.2820
 6981SOL    HW225755   6.263  10.003   9.242 -1.8621 -1.1447 -0.8243
 6982SOL     OW25756   9.356  12.265   9.285  0.0349 -0.4182  0.0317
 6982SOL    HW125757   9.292  12.201   9.254  0.9604 -0.9987 -0.6993
 6982SOL    HW225758   9.377  12.236   9.374  0.1918 -0.9276 -0.1698
 6983SOL     OW25759   0.273  11.969   2.424  0.5091 -0.6367  0.0627
 6983SOL    HW125760   0.293  11.990   2.515  3.4704 -0.0459 -0.5971
 6983SOL    HW225761   0.319  12.036   2.374 -0.4289 -1.3913 -1.8964
 6984SOL     OW25762   1.107   9.778   5.043  0.4230  0.0505 -0.0222
 6984SOL    HW125763   1.179   9.773   5.106 -0.6234 -2.8816  1.1020
 6984SOL    HW225764   1.033   9.813   5.092  0.8952  3.0134 -1.1644
 6985SOL     OW25765   2.267   3.516   4.224 -0.0225  0.1429  0.5268
 6985SOL    HW125766   2.208   3.562   4.165 -0.9999  1.0705  2.1822
 6985SOL    HW225767   2.269   3.426   4.190 -0.3473  0.6942 -1.0378
 6986SOL     OW25768   3.144   2.609  11.118 -0.1450  0.0087 -0.9428
 6986SOL    HW125769   3.131   2.587  11.026 -3.3996  1.3145 -0.9134
 6986SOL    HW225770   3.163   2.703  11.117  0.0695 -0.0261 -0.2712
 6987SOL     OW25771   6.519   4.706   4.046  0.1268 -0.0006 -0.5359
 6987SOL    HW125772   6.444   4.680   3.993 -1.0526 -0.3180  1.2468
 6987SOL    HW225773   6.594   4.693   3.988 -1.1417  0.1833 -2.3075
 6988SOL     OW25774   7.367   9.689   9.728 -0.0139  0.0561 -0.3162
 6988SOL    HW125775   7.304   9.760   9.743 -0.7533 -0.2161 -2.0050
 6988SOL    HW225776   7.348   9.626   9.797 -0.7843  0.5216 -0.0804
 6989SOL     OW25777   0.589   2.768   9.732  1.0958 -0.2362  0.5062
 6989SOL    HW125778   0.535   2.711   9.787  2.3452 -2.2321 -0.2154
 6989SOL    HW225779   0.611   2.842   9.787  1.7077 -1.8114  2.5008
 6990SOL     OW25780  11.746   0.964   7.883  0.2580 -0.0413  0.0011
 6990SOL    HW125781  11.802   0.887   7.891  0.7862  0.3431  0.0866
 6990SOL    HW225782  11.659   0.934   7.908  0.8760 -0.0682  2.3650
 6991SOL     OW25783   4.403   5.173  11.206 -0.2797 -0.5441  0.5308
 6991SOL    HW125784   4.411   5.265  11.232 -1.8734 -0.5998  1.3929
 6991SOL    HW225785   4.363   5.176  11.119  0.8891 -0.4192 -0.0142
 6992SOL     OW25786  11.575   3.776   2.857 -0.5107  0.7186  0.4757
 6992SOL    HW125787  11.641   3.718   2.894 -1.5423 -0.4708  0.5403
 6992SOL    HW225788  11.497   3.761   2.911 -1.4846  0.4037 -0.9451
 6993SOL     OW25789   1.607   3.940   6.788  0.3208  0.5703  0.3290
 6993SOL    HW125790   1.556   4.012   6.751 -1.3105 -1.5759 -1.9365
 6993SOL    HW225791   1.543   3.870   6.802  2.2999 -1.6798 -1.0892
 6994SOL     OW25792   2.485   8.861  11.340  0.0687  0.4874 -0.1173
 6994SOL    HW125793   2.566   8.840  11.293  0.3599 -2.5500  1.5227
 6994SOL    HW225794   2.416   8.820  11.288  0.0572 -0.3597  0.5573
 6995SOL     OW25795   1.613   8.882   2.048  0.1435  0.4957 -0.1103
 6995SOL    HW125796   1.572   8.943   2.109  0.5623  0.8595 -0.1867
 6995SOL    HW225797   1.706   8.904   2.051  0.2991 -0.1432 -0.1380
 6996SOL     OW25798   6.537   5.547   9.308 -0.5480 -0.6478 -0.6159
 6996SOL    HW125799   6.506   5.592   9.386  0.2246  0.1667 -0.7613
 6996SOL    HW225800   6.580   5.615   9.256  1.4504 -1.6956 -0.4320
 6997SOL     OW25801  11.821   7.246   5.343  0.0342  0.2667  0.4657
 6997SOL    HW125802  11.787   7.256   5.254 -0.9891 -2.3100  0.4977
 6997SOL    HW225803  11.911   7.216   5.331 -0.0532  0.0686  0.3097
 6998SOL     OW25804  10.669   8.673   1.802 -0.0479 -0.8935  0.1805
 6998SOL    HW125805  10.717   8.750   1.770 -0.8201 -0.3444  0.3031
 6998SOL    HW225806  10.729   8.632   1.865  0.6436 -0.7875 -0.3996
 6999SOL     OW25807   0.909   6.029   5.426 -0.0585 -0.0877  0.1685
 6999SOL    HW125808   0.928   6.122   5.432 -1.5070  0.1615  1.8352
 6999SOL    HW225809   0.816   6.022   5.447 -0.1800 -1.8426 -0.7238
 7000SOL     OW25810   5.391  10.532   0.179  0.7472  0.4160 -0.7078
 7000SOL    HW125811   5.304  10.504   0.206  1.4710  0.0174  1.3554
 7000SOL    HW225812   5.377  10.577   0.095 -1.1981 -1.0575 -1.2303
 7001SOL     OW25813  12.455   4.270   3.521 -0.0057 -0.4931 -0.2324
 7001SOL    HW125814  12.462   4.179   3.551 -1.1838 -0.7775 -0.7592
 7001SOL    HW225815  12.361   4.290   3.527  0.3267  0.9760  0.6784
 7002SOL     OW25816   1.198   3.444  11.008  0.1115 -0.1780 -0.4093
 7002SOL    HW125817   1.148   3.517  10.971 -0.8750 -0.5015  0.2559
 7002SOL    HW225818   1.132   3.383  11.040  0.9229 -0.1882  1.3460
 7003SOL     OW25819   6.276   8.256   4.462  0.0870 -0.3638 -0.5602
 7003SOL    HW125820   6.306   8.344   4.487 -2.1993  0.2061  0.4830
 7003SOL    HW225821   6.317   8.197   4.524 -0.6080  0.3361  0.5985
 7004SOL     OW25822   2.960   2.557   3.142 -0.1761  0.1902 -0.0382
 7004SOL    HW125823   3.004   2.642   3.134  0.5278 -0.1359  0.2466
 7004SOL    HW225824   2.966   2.536   3.235 -0.4784 -0.1016 -0.0844
 7005SOL     OW25825  10.818   1.099   1.994 -0.0237  0.2683  0.5436
 7005SOL    HW125826  10.794   1.183   2.034 -1.4172 -0.4560  1.3091
 7005SOL    HW225827  10.846   1.044   2.067 -0.8612 -0.4939  0.3063
 7006SOL     OW25828   9.942   7.094   4.755 -0.2711  0.7829  0.1678
 7006SOL    HW125829   9.858   7.122   4.717 -0.6825  0.4233  0.7833
 7006SOL    HW225830   9.920   7.070   4.845  0.7464  1.8968  0.7249
 7007SOL     OW25831  11.359   1.725   0.321  0.9076  0.1066 -0.2690
 7007SOL    HW125832  11.318   1.658   0.267  1.2577 -0.1101 -0.2694
 7007SOL    HW225833  11.337   1.700   0.411 -4.2739  3.3244 -0.2811
 7008SOL     OW25834  11.506   4.524  11.631  0.2315  0.2068  0.5596
 7008SOL    HW125835  11.465   4.451  11.677 -0.3395  0.7429  0.9213
 7008SOL    HW225836  11.475   4.517  11.541  0.4197 -0.1678  0.5230
 7009SOL     OW25837  11.722  12.468   8.388 -0.1323  0.3053  0.2367
 7009SOL    HW125838  11.732  12.382   8.428  0.7653 -0.3403 -1.2768
 7009SOL    HW225839  11.697  12.449   8.297  1.4082  1.5855 -0.4995
 7010SOL     OW25840  12.017   2.958  10.282  0.6474  0.1770 -0.6459
 7010SOL    HW125841  12.012   2.960  10.186  1.0381  2.2753 -0.6675
 7010SOL    HW225842  11.926   2.949  10.310  0.6365 -2.1380 -1.1596
 7011SOL     OW25843   3.031   0.591   1.460 -0.6862 -0.5421 -0.2668
 7011SOL    HW125844   3.049   0.642   1.538 -1.2418  1.5347 -1.4207
 7011SOL    HW225845   3.021   0.501   1.492  1.5038 -0.1840  1.6824
 7012SOL     OW25846   6.005  12.421   4.875  0.5280 -0.0691  0.3505
 7012SOL    HW125847   6.041  12.394   4.959  1.0563  1.0440  0.4963
 7012SOL    HW225848   6.063  12.490   4.844 -0.6523  0.7647 -0.0982
 7013SOL     OW25849   7.846  11.458  10.037 -0.0959  0.2392 -0.2913
 7013SOL    HW125850   7.909  11.405  10.087  0.8729  1.4750 -0.1411
 7013SOL    HW225851   7.811  11.398   9.971  1.3266 -0.4660 -0.4536
 7014SOL     OW25852  11.214   1.061   3.031  0.1108 -0.5492  0.4547
 7014SOL    HW125853  11.270   1.068   3.108  1.5544 -0.7172 -0.5542
 7014SOL    HW225854  11.271   1.027   2.962 -1.2971 -0.9818 -0.5395
 7015SOL     OW25855   3.085   9.389   1.309  0.4011 -0.0679  0.2088
 7015SOL    HW125856   3.098   9.333   1.232  0.1250 -1.4127  1.1028
 7015SOL    HW225857   3.066   9.327   1.380  0.2932  1.1675  1.2808
 7016SOL     OW25858   5.713   8.799   6.083 -0.1329  0.2403 -0.1535
 7016SOL    HW125859   5.631   8.751   6.070 -0.1723 -0.3063  1.8168
 7016SOL    HW225860   5.782   8.736   6.063 -0.1871  0.2363 -0.3305
 7017SOL     OW25861   6.053  11.123   1.821 -0.0721 -0.0505  0.4265
 7017SOL    HW125862   6.140  11.129   1.781  0.3008 -0.4986  1.1643
 7017SOL    HW225863   6.055  11.184   1.894 -0.9416  1.1924 -0.5304
 7018SOL     OW25864  10.258   1.560  10.785 -0.8643 -0.7501  0.1834
 7018SOL    HW125865  10.191   1.559  10.716 -0.4771  0.2543 -0.2174
 7018SOL    HW225866  10.265   1.651  10.811  1.0098 -0.6741 -0.4402
 7019SOL     OW25867   7.653   6.394   9.444 -0.1175  0.1914  0.6668
 7019SOL    HW125868   7.612   6.384   9.530 -1.3914  1.3031  0.2300
 7019SOL    HW225869   7.606   6.334   9.387 -0.2177  0.4797  0.4449
 7020SOL     OW25870   4.398   9.551   1.903 -0.8621  0.3875 -0.1700
 7020SOL    HW125871   4.395   9.467   1.950  0.4450 -0.2099 -1.1038
 7020SOL    HW225872   4.430   9.613   1.967  0.3310 -0.2985 -0.0748
 7021SOL     OW25873   3.157   3.745   4.532  0.5727 -0.3459  0.0070
 7021SOL    HW125874   3.199   3.830   4.546  0.6822 -0.4533  0.3591
 7021SOL    HW225875   3.217   3.682   4.572  1.3554 -0.7804 -1.7878
 7022SOL     OW25876   3.407   4.929   1.451  0.6335  0.4819 -0.0605
 7022SOL    HW125877   3.483   4.969   1.408  0.3475 -0.9994 -2.0818
 7022SOL    HW225878   3.411   4.837   1.426 -0.1778 -0.2765  2.3211
 7023SOL     OW25879   8.659   8.373  10.094  0.3379 -0.4001 -0.2703
 7023SOL    HW125880   8.598   8.351  10.165  0.8263 -3.2066 -0.6143
 7023SOL    HW225881   8.719   8.436  10.134 -1.0860  0.2900  0.9042
 7024SOL     OW25882   1.044  11.110   2.711 -0.2194  0.5575 -0.0095
 7024SOL    HW125883   0.986  11.183   2.689  0.3736  1.0613  0.0595
 7024SOL    HW225884   1.101  11.101   2.635  0.1462  0.6105  0.2542
 7025SOL     OW25885   5.790   7.139   5.204  0.1992  0.4100 -0.1207
 7025SOL    HW125886   5.750   7.189   5.134  0.7776 -0.1825 -0.8943
 7025SOL    HW225887   5.776   7.191   5.283 -1.0411  0.7660 -0.5624
 7026SOL     OW25888   1.832   2.722  10.418 -0.2823  0.6692  0.9176
 7026SOL    HW125889   1.838   2.687  10.506 -0.8472 -0.5169  0.4979
 7026SOL    HW225890   1.918   2.763  10.403  0.1498  0.0602  1.6613
 7027SOL     OW25891   1.808   5.756   9.129  0.1983 -0.7444  0.4866
 7027SOL    HW125892   1.753   5.780   9.054 -2.0394 -1.3858  1.8429
 7027SOL    HW225893   1.893   5.796   9.110 -0.3446 -0.6861 -2.2594
 7028SOL     OW25894   2.047   8.490  11.959 -0.7001 -0.0710 -0.2582
 7028SOL    HW125895   2.082   8.451  12.039 -0.1491 -1.2481 -1.0498
 7028SOL    HW225896   2.075   8.431  11.889 -0.9058  1.1021 -1.3623
 7029SOL     OW25897   2.179   6.187   8.175 -0.5345  0.0596  0.6904
 7029SOL    HW125898   2.242   6.135   8.225 -0.3647  0.2985  0.7256
 7029SOL    HW225899   2.106   6.126   8.157 -0.1158 -0.3352  0.2974
 7030SOL     OW25900   8.381   4.622   6.801 -0.0972  0.0825 -0.0923
 7030SOL    HW125901   8.356   4.588   6.887 -0.5378 -1.5566 -0.8287
 7030SOL    HW225902   8.328   4.701   6.789  0.4442  0.7135  1.3833
 7031SOL     OW25903   9.845  12.300   3.299 -0.4141  0.0024 -0.5710
 7031SOL    HW125904   9.930  12.256   3.307  0.6387  1.9815  0.0318
 7031SOL    HW225905   9.789  12.256   3.362  0.4098 -0.8172 -0.3865
 7032SOL     OW25906  11.113   3.436   2.061 -0.5823 -0.4961 -0.0150
 7032SOL    HW125907  11.204   3.449   2.035 -0.2775  0.7786  1.5368
 7032SOL    HW225908  11.062   3.461   1.984  0.2650  3.1853  0.4186
 7033SOL     OW25909  10.245  11.823   7.671  0.3036  0.5378  0.0436
 7033SOL    HW125910  10.157  11.798   7.699 -0.3364  2.1040 -0.4854
 7033SOL    HW225911  10.300  11.812   7.749 -0.1282 -1.3528  0.1423
 7034SOL     OW25912   6.568  10.712   3.285  0.0386 -0.5901  0.3052
 7034SOL    HW125913   6.481  10.675   3.305 -0.8319  0.3006 -1.5534
 7034SOL    HW225914   6.624  10.679   3.355 -2.1417  0.2390  2.6386
 7035SOL     OW25915   4.716  12.499  12.346 -0.0165 -0.1574 -0.7487
 7035SOL    HW125916   4.665  12.473  12.422  0.3002 -1.1865 -0.8821
 7035SOL    HW225917   4.804  12.516  12.380 -0.2124  0.7666 -0.6652
 7036SOL     OW25918   9.488  10.422  12.167  0.2546 -0.1830 -0.3219
 7036SOL    HW125919   9.430  10.353  12.200 -0.0968 -0.0751 -0.7108
 7036SOL    HW225920   9.436  10.467  12.100  0.1667  0.9939  0.5025
 7037SOL     OW25921   7.907  11.757   4.052  0.2502  0.1837 -0.4347
 7037SOL    HW125922   7.922  11.713   4.136 -0.0543  0.7992 -0.0481
 7037SOL    HW225923   7.995  11.771   4.017  0.3524 -0.8540 -0.6427
 7038SOL     OW25924   2.834   1.177   4.937  0.2405  0.3272 -0.1253
 7038SOL    HW125925   2.905   1.146   4.992 -1.6086 -0.5830  1.8850
 7038SOL    HW225926   2.852   1.140   4.850  2.0905  0.0122  0.3580
 7039SOL     OW25927   8.686   1.785   3.295  0.2054 -0.3579 -0.1805
 7039SOL    HW125928   8.731   1.704   3.271  1.2570 -0.3447  1.5552
 7039SOL    HW225929   8.671   1.777   3.389 -1.3515  0.6780 -0.3104
 7040SOL     OW25930   1.499   5.527   5.748  0.0594 -0.0310 -0.5244
 7040SOL    HW125931   1.446   5.448   5.759  0.9318 -0.5188  0.3751
 7040SOL    HW225932   1.437   5.594   5.719 -0.7449 -0.9684 -1.0395
 7041SOL     OW25933  12.299   1.059  10.821 -0.4516  0.1850 -0.3252
 7041SOL    HW125934  12.328   0.993  10.884  0.5545  1.1024  0.2061
 7041SOL    HW225935  12.274   1.008  10.743 -0.3129 -0.8599  0.2885
 7042SOL     OW25936  12.515   4.029   8.785 -0.1551 -0.0050 -0.2213
 7042SOL    HW125937  12.539   4.092   8.717 -0.8735 -0.0614 -0.5413
 7042SOL    HW225938  12.439   4.069   8.828 -3.0483 -2.1783 -2.8124
 7043SOL     OW25939  10.014   1.516   8.040  0.1768 -0.2664 -0.1586
 7043SOL    HW125940   9.996   1.432   8.081 -2.4175  0.7403  1.0036
 7043SOL    HW225941   9.951   1.523   7.969  0.4453  0.6380 -0.3315
 7044SOL     OW25942   2.839   1.771   3.013 -0.3241  0.0103  0.3268
 7044SOL    HW125943   2.797   1.784   2.927 -0.2027 -1.3031  0.0517
 7044SOL    HW225944   2.794   1.832   3.071 -1.6811 -0.3843 -0.2768
 7045SOL     OW25945  12.496   4.925   2.610 -0.3426  0.4686  0.0650
 7045SOL    HW125946  12.514   4.944   2.517  0.8064  1.8222  0.5216
 7045SOL    HW225947  12.562   4.977   2.657 -1.5527  0.5937  1.6753
 7046SOL     OW25948   9.082   9.988   4.925  0.1323 -0.1321  0.0290
 7046SOL    HW125949   9.138  10.061   4.950  1.6303 -1.3206  0.2626
 7046SOL    HW225950   9.092   9.924   4.995  0.4871 -1.4205 -1.1411
 7047SOL     OW25951   4.753   5.560   7.365 -0.5252 -0.1265 -0.2535
 7047SOL    HW125952   4.730   5.557   7.273  1.4911  0.5470 -0.8444
 7047SOL    HW225953   4.694   5.499   7.407 -0.4798 -1.6240 -2.2359
 7048SOL     OW25954  10.043  10.557   8.970  0.3052 -0.2267 -0.2110
 7048SOL    HW125955   9.992  10.633   8.944  0.4909 -0.5050 -1.4832
 7048SOL    HW225956   9.997  10.521   9.046 -3.4767 -2.4205 -3.1532
 7049SOL     OW25957  12.189   0.783   6.173 -0.1010 -0.2504  0.1092
 7049SOL    HW125958  12.103   0.814   6.203  0.8589  2.4514  0.2902
 7049SOL    HW225959  12.233   0.753   6.252 -0.2041  0.0757  0.2882
 7050SOL     OW25960   5.006   1.791   1.679 -0.4028  0.4701 -0.0409
 7050SOL    HW125961   4.926   1.739   1.676 -0.4397  0.4809  0.6707
 7050SOL    HW225962   5.076   1.726   1.688 -0.3326  0.4660 -0.5720
 7051SOL     OW25963   1.926   5.035   2.656 -0.1812  0.4169 -0.3766
 7051SOL    HW125964   1.868   5.073   2.590  0.0174 -1.7860 -1.9076
 7051SOL    HW225965   1.881   5.053   2.739 -0.2584  3.5497 -0.9592
 7052SOL     OW25966   9.750   9.638  11.987  0.4806 -0.0698  0.1951
 7052SOL    HW125967   9.833   9.620  11.942 -0.5051 -1.2530 -1.2631
 7052SOL    HW225968   9.721   9.552  12.019 -0.5129  0.1978  0.0633
 7053SOL     OW25969   8.182  10.061   9.504 -0.2875 -0.0506  0.2069
 7053SOL    HW125970   8.223  10.132   9.552 -0.7956 -0.5952  1.4778
 7053SOL    HW225971   8.251  10.030   9.444  0.6917  0.0135  1.2627
 7054SOL     OW25972   1.550   8.866  11.144  0.3131  0.2535  0.1154
 7054SOL    HW125973   1.606   8.849  11.220  1.3040  4.0189  0.4666
 7054SOL    HW225974   1.463   8.881  11.180  0.1946 -0.5783  0.1788
 7055SOL     OW25975   9.924  11.175  12.445  0.5399 -0.3806  0.2273
 7055SOL    HW125976   9.864  11.246  12.420  0.6800 -0.2644  0.2238
 7055SOL    HW225977  10.011  11.210  12.428  0.5962 -0.6984 -0.1491
 7056SOL     OW25978   3.101   4.862  12.029 -0.3374 -0.2226  0.2868
 7056SOL    HW125979   3.063   4.891  11.946 -1.8154  0.3633  1.1286
 7056SOL    HW225980   3.127   4.943  12.073 -0.9508 -0.4141  1.0208
 7057SOL     OW25981   0.867   6.272   2.974  0.6002  0.0334 -0.6347
 7057SOL    HW125982   0.817   6.261   2.894  0.6642  2.8091 -1.1667
 7057SOL    HW225983   0.959   6.268   2.946  0.6546 -0.8667 -0.3576
 7058SOL     OW25984   1.073   7.126   2.808  0.0038  0.6520 -0.0828
 7058SOL    HW125985   1.112   7.206   2.771  0.2097 -0.2984 -2.0813
 7058SOL    HW225986   1.147   7.072   2.832 -0.1280  0.7043  0.4430
 7059SOL     OW25987   9.101   1.724   8.864 -0.2570 -0.1118 -0.2362
 7059SOL    HW125988   9.159   1.800   8.860 -0.4162  0.1123  1.1667
 7059SOL    HW225989   9.159   1.649   8.876 -0.1561 -0.1092 -0.6904
 7060SOL     OW25990   6.017   3.428   3.513 -0.6477 -0.1433  0.0954
 7060SOL    HW125991   6.084   3.396   3.573 -1.6994 -0.3703  1.1941
 7060SOL    HW225992   5.974   3.500   3.561  1.3282  2.7102 -2.0999
 7061SOL     OW25993   1.378   1.357   4.739  0.2380  0.0875 -0.1439
 7061SOL    HW125994   1.369   1.379   4.647  1.0813  0.8475 -0.0661
 7061SOL    HW225995   1.318   1.417   4.784  1.2709  1.0922 -0.0640
 7062SOL     OW25996   8.448   1.852   7.140 -0.2896 -0.1722  0.2784
 7062SOL    HW125997   8.388   1.839   7.213  0.0176  0.4843  0.6475
 7062SOL    HW225998   8.405   1.807   7.066 -0.3183 -1.3402  0.9806
 7063SOL     OW25999   1.773   8.326  11.417  0.6949  0.4282 -0.5420
 7063SOL    HW126000   1.727   8.246  11.390 -0.4236  1.0369 -0.4910
 7063SOL    HW226001   1.812   8.360  11.337  1.1491 -0.1422 -0.5696
 7064SOL     OW26002   7.020   7.211   8.728 -0.0635 -0.0690  0.1928
 7064SOL    HW126003   7.108   7.190   8.759  0.9175  2.4309 -0.7000
 7064SOL    HW226004   7.013   7.167   8.643  0.2697 -0.3175  0.2937
 7065SOL     OW26005   4.274   4.410   7.701 -0.0032  0.0901 -0.4574
 7065SOL    HW126006   4.222   4.336   7.733 -0.1356  0.1892 -0.4400
 7065SOL    HW226007   4.209   4.479   7.686  0.2227  0.4923  0.3628
 7066SOL     OW26008  11.375   0.431   7.644  0.4282 -0.0700 -0.0928
 7066SOL    HW126009  11.298   0.459   7.692 -0.4835  1.3735 -2.2228
 7066SOL    HW226010  11.344   0.361   7.587  0.5128  0.8441 -1.3091
 7067SOL     OW26011   6.709  11.883   8.322 -0.5294 -0.2805  0.0341
 7067SOL    HW126012   6.725  11.971   8.288 -0.7737 -0.1916  0.1491
 7067SOL    HW226013   6.758  11.879   8.404  1.4734 -1.0716 -1.1351
 7068SOL     OW26014   1.280   1.423  12.314  0.0448 -0.0733  0.6692
 7068SOL    HW126015   1.266   1.518  12.310  0.3362 -0.0138  1.0169
 7068SOL    HW226016   1.344   1.411  12.384  1.8793 -0.3318 -0.9824
 7069SOL     OW26017   9.648   5.588   4.082  0.6019 -0.0538 -0.5993
 7069SOL    HW126018   9.567   5.633   4.105  0.3125  0.1376 -1.8990
 7069SOL    HW226019   9.715   5.628   4.138 -0.0228  0.5026 -0.2383
 7070SOL     OW26020  10.596   6.569   9.604 -0.9370  0.7968  0.2465
 7070SOL    HW126021  10.526   6.581   9.667 -0.2782  0.7180  1.0155
 7070SOL    HW226022  10.576   6.630   9.533 -2.2086  0.1963  0.0579
 7071SOL     OW26023   8.838   0.005   0.182  0.1089  0.7138  0.0277
 7071SOL    HW126024   8.913   0.038   0.133  0.6318 -1.0006 -0.4097
 7071SOL    HW226025   8.778  -0.027   0.114  1.0888 -2.2138  0.4122
 7072SOL     OW26026   8.273   6.754   5.317  0.2310 -0.6817 -0.3336
 7072SOL    HW126027   8.282   6.782   5.408  1.0207  0.0678 -0.6298
 7072SOL    HW226028   8.198   6.801   5.284  0.6523 -0.0518 -0.4009
 7073SOL     OW26029   5.788   3.030   9.277  0.2029 -0.6027 -0.5434
 7073SOL    HW126030   5.768   3.069   9.192  0.9431 -3.2399 -2.0683
 7073SOL    HW226031   5.815   3.103   9.332 -1.2952  1.3395 -2.2310
 7074SOL     OW26032   7.099   7.758  11.195 -0.5453 -0.3992 -0.1963
 7074SOL    HW126033   7.148   7.688  11.237 -1.2357  0.1407  1.6337
 7074SOL    HW226034   7.007   7.736  11.212 -0.7912  0.5544 -0.2132
 7075SOL     OW26035   9.082   4.172   3.261  0.1463  0.1609 -0.2395
 7075SOL    HW126036   9.100   4.190   3.168 -0.8620  0.5751 -0.3739
 7075SOL    HW226037   9.006   4.226   3.281 -1.3169 -1.8902  0.1024
 7076SOL     OW26038   7.415   1.058   1.750 -0.5489  0.5137 -0.3113
 7076SOL    HW126039   7.455   1.056   1.837  0.2625  1.0464 -0.6569
 7076SOL    HW226040   7.489   1.045   1.690 -1.1802 -0.4030 -0.9075
 7077SOL     OW26041   8.557  10.891  12.422  0.7141 -0.2177  0.3878
 7077SOL    HW126042   8.638  10.932  12.451 -0.2630  1.0319  1.4811
 7077SOL    HW226043   8.574  10.865  12.332  2.2961  0.0752  0.5655
 7078SOL     OW26044   6.330   6.284   5.813 -0.1652 -0.2773  0.2562
 7078SOL    HW126045   6.345   6.198   5.774 -2.3045 -0.9467  0.7870
 7078SOL    HW226046   6.331   6.344   5.738 -2.3776 -1.2977 -0.7038
 7079SOL     OW26047   4.994   0.859   7.744 -0.3456 -0.5933  0.6619
 7079SOL    HW126048   5.026   0.824   7.827 -1.0124  0.9000  1.6058
 7079SOL    HW226049   5.058   0.926   7.721 -0.9761  0.0763  0.8099
 7080SOL     OW26050   6.788   1.835  11.526  0.1923 -0.4649  0.4740
 7080SOL    HW126051   6.716   1.894  11.547 -0.3236 -1.2079  0.8461
 7080SOL    HW226052   6.851   1.848  11.596 -0.1664 -0.7424  0.8547
 7081SOL     OW26053   0.529   5.061   2.990 -0.7899 -0.1166 -0.3451
 7081SOL    HW126054   0.512   5.113   3.068 -0.1347 -1.1658  0.5187
 7081SOL    HW226055   0.483   4.978   3.005 -0.8197 -0.2625 -1.1646
 7082SOL     OW26056   6.589  11.541  11.853  0.6706  0.1016  0.3403
 7082SOL    HW126057   6.545  11.561  11.771 -0.3262 -0.6778  0.6462
 7082SOL    HW226058   6.664  11.488  11.828 -1.1965 -2.6421  0.0263
 7083SOL     OW26059   1.623   0.433   3.151 -0.2831  0.7958 -0.5872
 7083SOL    HW126060   1.584   0.440   3.064  0.6555 -0.4549 -1.1478
 7083SOL    HW226061   1.713   0.464   3.139  0.1815 -0.3975 -0.3375
 7084SOL     OW26062   5.734   8.163   9.604  0.0888 -0.4514  0.1327
 7084SOL    HW126063   5.659   8.105   9.590  0.4014 -0.7177 -0.4926
 7084SOL    HW226064   5.776   8.128   9.683 -0.4201 -0.3225  0.4641
 7085SOL     OW26065   1.099   3.578  11.806  0.1704  0.2374 -0.0136
 7085SOL    HW126066   1.004   3.581  11.816  0.0319  1.9413 -1.4018
 7085SOL    HW226067   1.120   3.654  11.752  2.1722 -0.8575 -0.8859
 7086SOL     OW26068   7.608   9.782   2.476  0.4829  0.5716  0.4214
 7086SOL    HW126069   7.565   9.851   2.525  0.5996  0.3396  0.8642
 7086SOL    HW226070   7.552   9.766   2.401  0.3544  1.0065  0.4253
 7087SOL     OW26071   7.303   2.106   3.672 -0.5191 -0.0962  0.0157
 7087SOL    HW126072   7.213   2.127   3.694  0.5466  5.1794  0.5587
 7087SOL    HW226073   7.313   2.134   3.581  1.0444  1.5813  0.6588
 7088SOL     OW26074  11.649   7.562   1.483  0.0158 -0.4568  0.8101
 7088SOL    HW126075  11.671   7.477   1.521  0.6389 -1.2803 -1.2274
 7088SOL    HW226076  11.728   7.615   1.495  0.0100 -0.5179  1.1309
 7089SOL     OW26077  12.370   7.601   9.687 -0.4863 -0.5896  0.4719
 7089SOL    HW126078  12.397   7.652   9.611 -0.0925  0.5942  1.3781
 7089SOL    HW226079  12.346   7.666   9.753 -0.6093 -1.5840  1.4443
 7090SOL     OW26080   5.114   6.299   2.329 -0.1752  0.0148  0.3160
 7090SOL    HW126081   5.164   6.224   2.297  0.8884  0.2789  1.3195
 7090SOL    HW226082   5.085   6.273   2.417  0.4078  0.8645  0.7700
 7091SOL     OW26083   2.634   8.922   8.709 -0.0435 -0.4133  0.2169
 7091SOL    HW126084   2.664   8.947   8.621  1.6007  1.7420  1.2784
 7091SOL    HW226085   2.550   8.968   8.719  2.1235  3.8462  1.4849
 7092SOL     OW26086   2.435   3.270   4.794 -0.0798 -0.1698  0.7538
 7092SOL    HW126087   2.519   3.255   4.752  0.1517  0.5473  0.9614
 7092SOL    HW226088   2.411   3.360   4.771 -0.0716  0.1429  1.9256
 7093SOL     OW26089   1.357   4.010  10.937  0.0213 -0.1400  0.1264
 7093SOL    HW126090   1.290   3.943  10.923  0.4372 -0.4156 -0.5982
 7093SOL    HW226091   1.339   4.077  10.871  0.5642 -0.3049 -0.1964
 7094SOL     OW26092   1.879   9.022   0.636  0.6266  0.4278 -0.2642
 7094SOL    HW126093   1.800   9.041   0.686  0.1818  0.7559 -1.0580
 7094SOL    HW226094   1.920   8.948   0.680 -0.4567 -0.1458 -0.1981
 7095SOL     OW26095   7.208   0.496  11.367 -0.2489  0.2935  0.0021
 7095SOL    HW126096   7.233   0.460  11.282  0.9437  1.4939 -0.1823
 7095SOL    HW226097   7.186   0.419  11.420  0.2551 -0.5610 -0.9887
 7096SOL     OW26098   5.450   8.616   4.086  0.8275  0.0525  0.2166
 7096SOL    HW126099   5.522   8.614   4.148  0.6759  0.1270  0.3964
 7096SOL    HW226100   5.489   8.590   4.002  0.8297 -1.0723  0.5446
 7097SOL     OW26101   7.202   7.036   2.661  0.1133 -0.4260  0.5410
 7097SOL    HW126102   7.220   7.042   2.755 -2.9160 -0.2777  1.2170
 7097SOL    HW226103   7.127   6.977   2.654  0.0939 -0.2354 -1.7766
 7098SOL     OW26104   7.657   1.432  11.083 -0.0700  0.2502 -0.5875
 7098SOL    HW126105   7.591   1.423  11.014  1.4549  0.6091 -2.1643
 7098SOL    HW226106   7.715   1.356  11.071  0.8550  0.9164 -0.4493
 7099SOL     OW26107   8.110   5.816   0.307 -0.2704  0.1774  0.0290
 7099SOL    HW126108   8.036   5.868   0.276  1.0236  1.9131 -0.3285
 7099SOL    HW226109   8.084   5.786   0.394 -1.6590  0.1599 -0.3684
 7100SOL     OW26110   8.470   8.534   2.059 -0.4657 -0.1070  0.3767
 7100SOL    HW126111   8.374   8.533   2.066 -0.5228 -0.6119 -0.4688
 7100SOL    HW226112   8.488   8.566   1.971  0.1434 -0.5078  0.3517
 7101SOL     OW26113   5.639  11.479   2.059 -0.1447 -0.6574  0.6231
 7101SOL    HW126114   5.636  11.435   2.144  1.1504  0.1840  1.1559
 7101SOL    HW226115   5.604  11.416   1.997  1.7568 -2.5333  1.3196
 7102SOL     OW26116   0.720   3.052  11.541 -0.4816  0.9642  0.0321
 7102SOL    HW126117   0.637   3.017  11.507 -0.5101  0.8775  0.1900
 7102SOL    HW226118   0.782   2.980  11.532 -0.2847  1.2155 -0.6113
 7103SOL     OW26119   6.847   3.308   0.618 -0.2377  0.1835  0.1128
 7103SOL    HW126120   6.927   3.308   0.671  0.7229  0.7391 -1.2458
 7103SOL    HW226121   6.837   3.400   0.592 -1.1562  0.0605  0.0284
 7104SOL     OW26122  12.059   3.892   9.464 -0.4518 -0.3588  0.0730
 7104SOL    HW126123  12.009   3.972   9.449  0.3260 -0.1515 -1.5854
 7104SOL    HW226124  12.082   3.896   9.557 -0.8938  1.0781  0.1431
 7105SOL     OW26125   7.657  11.844   8.804  0.2331 -0.3315 -0.3155
 7105SOL    HW126126   7.616  11.911   8.858 -0.7226 -0.1811 -1.1966
 7105SOL    HW226127   7.719  11.893   8.749  2.8695 -0.7406  2.1020
 7106SOL     OW26128   9.647   9.488   9.863  0.1943  0.6494 -0.0038
 7106SOL    HW126129   9.717   9.468   9.925  1.3781 -1.1656 -1.8248
 7106SOL    HW226130   9.591   9.410   9.865 -0.1117  0.8467 -0.7540
 7107SOL     OW26131   6.249   5.189  11.640 -0.1282 -0.6056  0.2284
 7107SOL    HW126132   6.198   5.258  11.597  1.1996 -0.0085 -0.4709
 7107SOL    HW226133   6.188   5.117  11.651 -1.1659  0.1461 -0.3897
 7108SOL     OW26134   5.609   1.191  11.808  0.6899 -0.5970 -0.1732
 7108SOL    HW126135   5.641   1.275  11.842  1.9187 -1.5758  1.2514
 7108SOL    HW226136   5.595   1.206  11.715 -0.2610  1.5024  0.2440
 7109SOL     OW26137   8.428   8.374   4.422  0.1142  0.1153 -0.8485
 7109SOL    HW126138   8.402   8.309   4.356 -0.7539 -0.4680  0.0374
 7109SOL    HW226139   8.500   8.332   4.469 -0.1228 -0.0068 -0.5934
 7110SOL     OW26140  10.344   8.500   1.255  0.2449 -0.1669 -0.1186
 7110SOL    HW126141  10.328   8.412   1.222  1.5619 -0.6698  0.5124
 7110SOL    HW226142  10.348   8.490   1.351  0.8908  0.4771 -0.0637
 7111SOL     OW26143  12.196   5.451   2.333  0.5464 -0.0359  0.4510
 7111SOL    HW126144  12.238   5.429   2.416 -1.1583  2.2234  2.0289
 7111SOL    HW226145  12.227   5.540   2.314  0.9122 -0.5214 -1.3807
 7112SOL     OW26146   6.952   2.856   0.278  0.0716  0.1204 -0.5378
 7112SOL    HW126147   6.891   2.785   0.298 -1.0235  0.9353 -0.8836
 7112SOL    HW226148   7.038   2.814   0.278 -0.4114 -0.9324  0.5963
 7113SOL     OW26149   7.984  12.441   7.029  0.4592 -0.7895  0.4526
 7113SOL    HW126150   7.896  12.465   6.999  0.0256 -2.4647  0.2698
 7113SOL    HW226151   8.005  12.362   6.979  2.0393 -0.4704  0.5736
 7114SOL     OW26152  12.328  10.858   0.807 -0.2230  0.4299  0.5529
 7114SOL    HW126153  12.259  10.865   0.873 -0.6395 -0.8231  0.2740
 7114SOL    HW226154  12.283  10.832   0.727  0.4196  0.8535  0.0320
 7115SOL     OW26155   1.662   3.248   6.991  0.2907 -0.7965 -0.1688
 7115SOL    HW126156   1.591   3.260   7.054 -0.0337  0.3036 -0.7061
 7115SOL    HW226157   1.626   3.189   6.925  0.7692 -2.2704  0.8566
 7116SOL     OW26158   6.194   0.513   9.284 -0.3270  0.2731  0.8061
 7116SOL    HW126159   6.157   0.558   9.209 -0.2732 -0.1807  0.5042
 7116SOL    HW226160   6.135   0.439   9.300 -0.0786  0.0934  0.9119
 7117SOL     OW26161   7.203   3.985   2.223 -0.1150 -0.1892 -0.3366
 7117SOL    HW126162   7.194   3.904   2.273  0.7309 -0.1497 -0.1036
 7117SOL    HW226163   7.204   4.055   2.290  1.5912 -0.1767 -0.3230
 7118SOL     OW26164   5.049   2.205   7.249 -0.3247  0.1943  0.4530
 7118SOL    HW126165   4.984   2.203   7.319  0.9912 -0.0205  1.7284
 7118SOL    HW226166   5.046   2.118   7.210  0.0143 -0.2193  1.3208
 7119SOL     OW26167   9.775   4.004   8.813  0.0873 -0.0150  0.3146
 7119SOL    HW126168   9.733   4.084   8.781  2.6075  1.9097  1.4490
 7119SOL    HW226169   9.749   3.999   8.905 -0.0640 -0.5343  0.2482
 7120SOL     OW26170   5.476   0.160   6.918 -0.4383 -0.5655  0.1574
 7120SOL    HW126171   5.456   0.234   6.860 -0.0660 -0.5728  0.0213
 7120SOL    HW226172   5.436   0.184   7.001 -1.3238 -0.7280 -0.2000
 7121SOL     OW26173   9.218   6.516   2.354  0.0293  0.7954 -0.1049
 7121SOL    HW126174   9.157   6.447   2.380  4.4169 -3.3634  0.6557
 7121SOL    HW226175   9.185   6.549   2.271 -4.2921  0.6546  1.3375
 7122SOL     OW26176   8.401   8.014   7.206  0.0567  0.1504 -0.3620
 7122SOL    HW126177   8.373   7.999   7.115 -1.2302  0.1922 -0.0003
 7122SOL    HW226178   8.462   7.943   7.224 -1.4085 -1.2300 -0.5750
 7123SOL     OW26179   5.056  11.919   2.898  0.5077 -0.5861 -0.7367
 7123SOL    HW126180   5.083  11.838   2.854  0.0996  0.0267 -2.1510
 7123SOL    HW226181   4.977  11.946   2.852 -0.2905 -0.2242  0.7710
 7124SOL     OW26182   8.091  11.559   4.898  0.0150 -0.5433 -0.1664
 7124SOL    HW126183   8.142  11.481   4.878 -0.1655 -0.6696 -0.1461
 7124SOL    HW226184   8.129  11.594   4.979  0.4293 -0.3138 -0.4556
 7125SOL     OW26185   2.891  10.246   5.955 -0.0577 -0.3221  0.0541
 7125SOL    HW126186   2.868  10.259   5.862 -1.0893 -1.1246  0.1659
 7125SOL    HW226187   2.810  10.266   6.002  0.7269  1.0203  0.8849
 7126SOL     OW26188   6.457   0.555  10.333 -0.2191 -0.3389  0.2910
 7126SOL    HW126189   6.517   0.521  10.267  0.3098 -0.7667  0.9835
 7126SOL    HW226190   6.396   0.484  10.350 -0.4030 -0.2021  0.2092
 7127SOL     OW26191   4.424  12.527  10.673 -0.2486 -0.2400 -0.2127
 7127SOL    HW126192   4.388  12.565  10.753 -1.6659 -2.2084  0.1790
 7127SOL    HW226193   4.394  12.436  10.674  1.1079 -0.7881 -2.1595
 7128SOL     OW26194   6.734  10.165   8.802  0.0377  0.0437  0.0264
 7128SOL    HW126195   6.758  10.096   8.741 -1.3678 -0.0677 -0.4507
 7128SOL    HW226196   6.654  10.203   8.764 -1.3812 -0.5942  2.2321
 7129SOL     OW26197   5.030   6.617   3.415  0.4791 -0.2199  0.1258
 7129SOL    HW126198   5.061   6.632   3.326  1.1851 -0.8892  0.2464
 7129SOL    HW226199   5.106   6.582   3.461 -0.0473 -0.4575  0.8306
 7130SOL     OW26200   8.238   1.220  12.126 -0.3137  0.4484  0.3018
 7130SOL    HW126201   8.288   1.179  12.197 -0.6182 -1.3671 -0.4927
 7130SOL    HW226202   8.305   1.260  12.070  0.0688  0.2486  0.6066
 7131SOL     OW26203   1.909   9.794   9.274 -0.3661 -0.2051  0.0534
 7131SOL    HW126204   1.948   9.771   9.358  0.0105 -1.3546 -0.4199
 7131SOL    HW226205   1.984   9.818   9.219 -0.7096  1.8858  0.4109
 7132SOL     OW26206   3.329  10.088   3.351 -0.4520 -0.7484  1.0308
 7132SOL    HW126207   3.245  10.127   3.376  0.2462  0.0446  2.2220
 7132SOL    HW226208   3.391  10.160   3.355 -0.2243 -0.4421 -3.3076
 7133SOL     OW26209   3.314  11.787   5.897  0.1136  0.6018 -0.2620
 7133SOL    HW126210   3.240  11.817   5.949 -0.9539 -0.8040 -0.9299
 7133SOL    HW226211   3.387  11.783   5.960 -1.3407 -1.9496  1.4609
 7134SOL     OW26212   0.525   2.779   9.451 -0.4426  0.9228  0.8909
 7134SOL    HW126213   0.576   2.711   9.407  0.8321  3.2015 -1.4453
 7134SOL    HW226214   0.575   2.799   9.530  1.0125  1.3794 -0.0951
 7135SOL     OW26215   0.794   5.231   2.360 -0.5904  0.0038 -0.1285
 7135SOL    HW126216   0.708   5.201   2.390 -0.0463  0.1683  1.7146
 7135SOL    HW226217   0.775   5.312   2.312 -1.4913 -0.0617  0.0933
 7136SOL     OW26218   4.565  11.421   0.463  0.0106 -0.4002  0.1978
 7136SOL    HW126219   4.626  11.495   0.465 -1.0570  0.5021  2.2613
 7136SOL    HW226220   4.611  11.350   0.508  0.6840 -0.7557 -0.9936
 7137SOL     OW26221  11.940   0.814   2.573 -0.1528 -0.2739 -0.4646
 7137SOL    HW126222  11.957   0.817   2.479 -0.5999 -0.1316 -0.5434
 7137SOL    HW226223  11.845   0.816   2.580 -0.1152  0.9673  0.0350
 7138SOL     OW26224   1.528  11.364  11.000 -0.2759  0.3240  0.0104
 7138SOL    HW126225   1.566  11.415  10.928  3.1602 -2.2077 -0.1973
 7138SOL    HW226226   1.436  11.352  10.975  0.1183  1.8450 -2.5192
 7139SOL     OW26227   5.745   5.575   8.935  0.5093 -0.2239 -0.3044
 7139SOL    HW126228   5.756   5.481   8.925 -2.9732 -0.7162 -0.9617
 7139SOL    HW226229   5.741   5.609   8.845 -0.9287  0.0453 -0.1775
 7140SOL     OW26230  10.033   3.207   4.115 -0.2741  0.3463  0.0432
 7140SOL    HW126231  10.001   3.146   4.182  2.5848 -1.0030  0.3426
 7140SOL    HW226232  10.074   3.278   4.164  3.2163 -1.3974 -0.0310
 7141SOL     OW26233  11.238   2.793  10.214  0.9172  0.2811 -0.1830
 7141SOL    HW126234  11.237   2.847  10.134  1.4733 -1.5810 -1.5111
 7141SOL    HW226235  11.154   2.748  10.213  1.5963 -1.0184 -0.6623
 7142SOL     OW26236   1.469  12.358   5.347 -0.0275 -0.1460 -0.0337
 7142SOL    HW126237   1.496  12.270   5.318  1.5885  0.2297  0.2403
 7142SOL    HW226238   1.449  12.347   5.440 -0.8098 -0.4188 -0.2266
 7143SOL     OW26239   3.646   0.953   3.494 -0.0934 -0.1977 -0.1860
 7143SOL    HW126240   3.617   0.886   3.557 -0.2392  0.1190  0.0870
 7143SOL    HW226241   3.573   1.014   3.490 -1.0197 -1.3378 -2.3136
 7144SOL     OW26242   9.085   8.031  11.328  0.0648 -0.6330 -0.1743
 7144SOL    HW126243   9.171   8.068  11.348 -0.1393  0.2990 -0.9481
 7144SOL    HW226244   9.070   7.967  11.397  1.8402 -1.5731 -0.6031
 7145SOL     OW26245  12.459   1.392   3.728  0.2492  0.3958  0.8854
 7145SOL    HW126246  12.382   1.393   3.783 -0.4088 -0.5380  0.0301
 7145SOL    HW226247  12.513   1.320   3.763  1.0799  1.4650  1.8930
 7146SOL     OW26248   3.145   1.899   8.883  0.0316 -0.4344 -0.2070
 7146SOL    HW126249   3.185   1.896   8.970 -0.4080 -1.0834 -0.0196
 7146SOL    HW226250   3.218   1.893   8.822  0.2081 -2.1615  0.1299
 7147SOL     OW26251  10.448  10.474   9.143 -0.7641 -0.6368  0.4968
 7147SOL    HW126252  10.365  10.432   9.164  0.6972 -2.8705  2.2966
 7147SOL    HW226253  10.484  10.499   9.228  2.0935 -3.3505  0.2705
 7148SOL     OW26254  11.950   9.995   4.546 -0.2299 -0.1399  0.4771
 7148SOL    HW126255  12.007  10.055   4.498  0.8508 -2.2308 -1.0761
 7148SOL    HW226256  11.931  10.039   4.629 -0.4308  2.7382 -0.9890
 7149SOL     OW26257   9.877   9.919   3.219 -0.2927 -0.3752 -0.1549
 7149SOL    HW126258   9.862   9.825   3.223 -0.7582 -0.2713  1.1007
 7149SOL    HW226259   9.971   9.928   3.207  0.0042 -1.0163  1.3787
 7150SOL     OW26260   4.419  10.238  11.073  0.4598 -0.4690 -0.0575
 7150SOL    HW126261   4.498  10.186  11.088 -0.1300 -1.1345  0.8969
 7150SOL    HW226262   4.429  10.272  10.984  2.5941  0.8287  0.5799
 7151SOL     OW26263   0.364   4.507   8.627 -0.1975  0.1138  0.3092
 7151SOL    HW126264   0.277   4.507   8.667  0.0134 -3.4989  1.1242
 7151SOL    HW226265   0.423   4.488   8.700  1.3149  2.1500 -0.2965
 7152SOL     OW26266   3.519  10.953   3.725  0.2742 -0.0491  0.0686
 7152SOL    HW126267   3.491  10.967   3.816 -1.2299  0.8074 -0.4983
 7152SOL    HW226268   3.614  10.948   3.730  0.2238  0.0545  1.6807
 7153SOL     OW26269   2.074   5.306   7.895 -0.3284 -0.4377  0.0382
 7153SOL    HW126270   2.058   5.390   7.937 -2.0405  0.0555 -1.4666
 7153SOL    HW226271   2.010   5.247   7.936 -1.0743 -0.2796 -0.8516
 7154SOL     OW26272   8.165   6.378   8.108 -0.2286  0.6837 -0.9200
 7154SOL    HW126273   8.096   6.440   8.083 -0.7502  0.6272  0.3222
 7154SOL    HW226274   8.223   6.429   8.165 -0.7404  0.0158  0.2280
 7155SOL     OW26275   9.922   9.561   3.764  0.6229  0.0660 -0.0490
 7155SOL    HW126276   9.969   9.645   3.764  0.0870  0.3772  0.5067
 7155SOL    HW226277   9.830   9.586   3.752  0.5006 -0.4722 -0.2221
 7156SOL     OW26278   4.467   3.176  11.753  0.4757 -0.3174 -0.8114
 7156SOL    HW126279   4.502   3.230  11.825  0.7585  0.6013 -1.6161
 7156SOL    HW226280   4.406   3.116  11.796 -0.1844  0.9340  0.0921
 7157SOL     OW26281   3.020   0.621   5.166  0.1383  0.0335 -0.0274
 7157SOL    HW126282   2.928   0.620   5.140  0.1096  0.6977  0.0289
 7157SOL    HW226283   3.068   0.597   5.087 -0.1075 -0.7992  0.0720
 7158SOL     OW26284   9.662  10.118  11.359 -0.1257  0.2189  0.2296
 7158SOL    HW126285   9.719  10.193  11.375 -0.8891  0.5509  1.5655
 7158SOL    HW226286   9.715  10.042  11.382  0.3836  0.3849 -0.3601
 7159SOL     OW26287   0.294   6.411   2.995  0.5162  0.5961  0.4700
 7159SOL    HW126288   0.229   6.466   2.952  1.0297  0.6316 -0.2810
 7159SOL    HW226289   0.356   6.388   2.926 -0.3332 -1.9276  0.4391
 7160SOL     OW26290  12.629   0.923   6.707 -0.1415 -0.5106 -0.4188
 7160SOL    HW126291  12.554   0.937   6.764  0.0406  1.3150 -0.5733
 7160SOL    HW226292  12.591   0.913   6.619 -0.2276  3.0086 -0.9535
 7161SOL     OW26293  12.213   2.824   1.744 -0.3194 -0.4909 -0.0266
 7161SOL    HW126294  12.266   2.904   1.741  0.6468 -1.1376 -0.7254
 7161SOL    HW226295  12.274   2.757   1.775 -0.4994 -1.4006 -1.5540
 7162SOL     OW26296   2.423   4.460   5.934 -0.2256  0.3890 -0.1247
 7162SOL    HW126297   2.337   4.500   5.921 -0.2955  0.0776 -0.6788
 7162SOL    HW226298   2.406   4.384   5.989 -0.0347  1.3160  1.2759
 7163SOL     OW26299   9.285   9.218  11.232 -0.4917 -0.1673 -0.2928
 7163SOL    HW126300   9.191   9.224  11.217 -0.4696 -0.7767 -0.7335
 7163SOL    HW226301   9.325   9.260  11.155 -0.3984 -1.5800 -1.0562
 7164SOL     OW26302  11.539   9.672   6.454 -0.2502  0.5599 -0.0901
 7164SOL    HW126303  11.583   9.686   6.538 -1.1754  2.0110  0.1730
 7164SOL    HW226304  11.486   9.750   6.441  0.2817  0.6085 -2.2937
 7165SOL     OW26305   6.640   5.708   8.776  0.5206 -0.1041 -0.1890
 7165SOL    HW126306   6.567   5.729   8.834  0.1167 -0.1469 -0.6710
 7165SOL    HW226307   6.685   5.636   8.819  0.0094 -0.3786 -0.1077
 7166SOL     OW26308  12.396   0.336   3.482  0.4381  0.7681  0.0463
 7166SOL    HW126309  12.438   0.251   3.471  0.7227  0.9196 -0.0268
 7166SOL    HW226310  12.364   0.358   3.394 -1.5684 -0.2698  0.4514
 7167SOL     OW26311   0.594   6.701   1.995  0.0053 -0.2699 -0.2482
 7167SOL    HW126312   0.566   6.654   1.916 -0.2354  0.2693 -0.4846
 7167SOL    HW226313   0.632   6.782   1.963  2.4702 -1.2415  0.0067
 7168SOL     OW26314  12.525   5.674   0.465 -0.3060 -0.2647  0.0895
 7168SOL    HW126315  12.463   5.720   0.521  1.3888  0.4550  1.4625
 7168SOL    HW226316  12.496   5.583   0.467 -0.7466 -0.1221  1.5377
 7169SOL     OW26317   9.456   6.833  11.008 -0.5884 -0.7029  0.1130
 7169SOL    HW126318   9.492   6.766  11.067 -1.8839 -2.5396 -1.0569
 7169SOL    HW226319   9.532   6.872  10.966  0.2205 -1.3295  0.9471
 7170SOL     OW26320  11.695   9.866  11.507 -0.4379  0.5778 -0.5500
 7170SOL    HW126321  11.766   9.862  11.443  0.1134  0.5352  0.0562
 7170SOL    HW226322  11.724   9.929  11.572 -1.3092  1.1603 -0.7033
 7171SOL     OW26323   2.129   7.042  11.739  0.2672  0.0365  0.4118
 7171SOL    HW126324   2.093   6.970  11.791 -0.1135  0.3269  0.5498
 7171SOL    HW226325   2.060   7.064  11.677  0.1091  0.7605  0.8443
 7172SOL     OW26326   1.406  11.136  12.229 -0.3202 -0.0138  0.0933
 7172SOL    HW126327   1.341  11.075  12.263 -1.7413  1.0926 -0.5595
 7172SOL    HW226328   1.479  11.080  12.201 -1.4106 -1.3725 -0.1278
 7173SOL     OW26329  11.214   1.971  11.878  0.1797 -0.3301  0.5025
 7173SOL    HW126330  11.157   2.030  11.828 -2.3172 -0.9920  2.3770
 7173SOL    HW226331  11.290   1.958  11.822 -1.2692  1.0292 -1.9419
 7174SOL     OW26332   4.242   1.825   9.014 -0.2434  0.2074 -0.1864
 7174SOL    HW126333   4.160   1.831   8.966  0.9276  0.5764 -2.2359
 7174SOL    HW226334   4.249   1.732   9.038 -0.9709  0.0651 -0.5191
 7175SOL     OW26335   8.273   8.305   3.695 -0.1671  0.1089  0.6240
 7175SOL    HW126336   8.199   8.275   3.642  0.9607 -0.9447 -0.4236
 7175SOL    HW226337   8.242   8.297   3.785 -1.2177 -0.6492  0.2233
 7176SOL     OW26338   3.475  12.313   6.548  0.1000 -0.4810 -0.0832
 7176SOL    HW126339   3.485  12.330   6.642  1.8259 -0.9413 -0.1444
 7176SOL    HW226340   3.495  12.396   6.506 -0.6995 -0.2678 -0.0547
 7177SOL     OW26341   1.981   6.330   3.538 -0.5014  0.1627  0.4425
 7177SOL    HW126342   1.932   6.251   3.561  3.1069 -2.4962  0.0474
 7177SOL    HW226343   2.005   6.369   3.623  1.1348 -1.6465  0.8816
 7178SOL     OW26344   8.167   4.727   4.358  0.2736  0.1114 -0.0322
 7178SOL    HW126345   8.160   4.633   4.341 -0.3241  0.1013  0.2369
 7178SOL    HW226346   8.260   4.747   4.347  0.1919 -0.2250 -1.4892
 7179SOL     OW26347   8.099   4.013   9.345 -0.1049 -0.0751 -0.2616
 7179SOL    HW126348   8.192   4.010   9.367 -0.1802 -1.7316  0.0030
 7179SOL    HW226349   8.089   3.953   9.271 -1.1677 -1.2184  0.7411
 7180SOL     OW26350  12.074   3.866   1.326  0.6306 -0.0473 -0.5741
 7180SOL    HW126351  12.067   3.879   1.420 -1.4203  0.8571 -0.7963
 7180SOL    HW226352  12.168   3.867   1.308  1.1096 -1.3943  1.5875
 7181SOL     OW26353  10.452  10.221   0.891 -1.0243  0.7695 -0.0077
 7181SOL    HW126354  10.506  10.299   0.907 -0.8344  0.5618  0.3758
 7181SOL    HW226355  10.393  10.247   0.821  0.9327  0.3603 -1.9071
 7182SOL     OW26356   8.670   6.910  10.984  0.2574  0.5533 -0.1704
 7182SOL    HW126357   8.668   6.906  10.888  1.7181 -0.6603 -0.1863
 7182SOL    HW226358   8.658   6.819  11.012  3.3465  0.2690  0.6429
 7183SOL     OW26359   9.924   3.778   9.760  0.2419 -0.4856 -0.0146
 7183SOL    HW126360  10.020   3.777   9.768  0.2730 -1.0077 -0.3487
 7183SOL    HW226361   9.894   3.821   9.839  0.7770  0.1855 -0.1647
 7184SOL     OW26362   1.668   9.312   0.477  0.2830 -0.5510  0.5637
 7184SOL    HW126363   1.762   9.308   0.461  0.1140 -1.7434 -0.2479
 7184SOL    HW226364   1.653   9.249   0.547  0.1242 -0.0569  0.9873
 7185SOL     OW26365   0.894  10.207  10.818 -0.5494 -0.0683 -0.4368
 7185SOL    HW126366   0.984  10.179  10.833 -0.2381  1.3932  0.6933
 7185SOL    HW226367   0.896  10.302  10.833 -2.5037 -0.1636  0.7498
 7186SOL     OW26368   7.616   6.221   5.720  0.1129  0.5416 -0.0480
 7186SOL    HW126369   7.679   6.186   5.658  0.9130  0.2343  0.9196
 7186SOL    HW226370   7.649   6.308   5.742  0.0251  0.5128  0.2041
 7187SOL     OW26371   0.184   7.000   4.294 -0.0660  0.1322 -0.1922
 7187SOL    HW126372   0.240   7.004   4.371 -2.5172 -0.9343  1.8103
 7187SOL    HW226373   0.211   7.074   4.240 -0.1095  2.7280  3.0560
 7188SOL     OW26374   0.730   0.801  11.378  0.1558 -0.5062 -0.1748
 7188SOL    HW126375   0.687   0.773  11.460 -0.3709  1.8939  0.4489
 7188SOL    HW226376   0.821   0.774  11.389  0.0292 -0.4925  1.0796
 7189SOL     OW26377  12.165   9.998   9.715  0.2352  0.0380  0.0051
 7189SOL    HW126378  12.235   9.952   9.761 -0.7293  0.3202  1.8380
 7189SOL    HW226379  12.156  10.081   9.760 -1.0616  0.1464 -0.3946
 7190SOL     OW26380   8.555  11.443   7.030  0.3060  0.0050  0.3499
 7190SOL    HW126381   8.539  11.351   7.050  1.3028 -0.0633  0.8677
 7190SOL    HW226382   8.611  11.474   7.101 -1.5448  1.5161  1.2250
 7191SOL     OW26383   5.932   1.792  11.554  0.8457 -0.6166  0.0492
 7191SOL    HW126384   5.899   1.846  11.483  1.2138  0.2090  0.4984
 7191SOL    HW226385   6.022   1.771  11.529  0.8809 -0.5643  0.1306
 7192SOL     OW26386   4.550   6.216  11.436  0.0195  0.7037  0.7097
 7192SOL    HW126387   4.614   6.150  11.411  1.5940  1.6088  2.1468
 7192SOL    HW226388   4.469   6.188  11.393  1.4927 -0.1059 -1.7379
 7193SOL     OW26389   7.855   0.697  11.452 -0.0083 -0.7506 -0.1851
 7193SOL    HW126390   7.820   0.615  11.417  0.7966 -0.3038 -2.1853
 7193SOL    HW226391   7.932   0.671  11.502  0.7867 -1.2079 -1.5651
 7194SOL     OW26392   8.506   1.404   4.170 -0.0425 -0.5147  0.6290
 7194SOL    HW126393   8.437   1.339   4.155  1.3515 -1.4813 -2.4502
 7194SOL    HW226394   8.566   1.361   4.231 -0.5537 -0.9637  0.8307
 7195SOL     OW26395   4.443   9.006  10.862 -0.6544  0.3441  0.1594
 7195SOL    HW126396   4.524   9.008  10.913  0.0470 -0.1687 -0.9000
 7195SOL    HW226397   4.465   9.050  10.781 -1.3768  0.0070 -0.2278
 7196SOL     OW26398  12.374   3.237   0.588  0.1353  0.1682 -0.0608
 7196SOL    HW126399  12.392   3.308   0.526 -0.5902 -0.5216 -1.0889
 7196SOL    HW226400  12.302   3.270   0.642 -0.4103  0.1099 -0.7402
 7197SOL     OW26401   0.202  10.799  11.316 -0.6266 -0.7133 -0.4501
 7197SOL    HW126402   0.210  10.800  11.220 -0.9106 -1.4823 -0.4897
 7197SOL    HW226403   0.195  10.706  11.338 -2.9595 -0.4659  0.1116
 7198SOL     OW26404   5.486  10.372  11.692  0.0002 -0.1633 -0.7789
 7198SOL    HW126405   5.566  10.383  11.742 -0.1388  0.7093 -0.7417
 7198SOL    HW226406   5.427  10.325  11.752 -1.2054  3.3658  1.0750
 7199SOL     OW26407   7.331   8.092   1.839  0.0296 -0.2859 -0.2966
 7199SOL    HW126408   7.286   8.008   1.829  3.4250 -2.5062  1.2555
 7199SOL    HW226409   7.367   8.111   1.752 -1.7010  0.2307 -0.9328
 7200SOL     OW26410   1.147  12.182   2.517 -0.4041  0.6576 -0.0203
 7200SOL    HW126411   1.172  12.198   2.608  1.1859 -2.7004  0.2811
 7200SOL    HW226412   1.071  12.124   2.524  1.1417 -1.5819 -0.6704
 7201SOL     OW26413  10.419   9.681   9.311  0.2594 -0.7097 -0.1425
 7201SOL    HW126414  10.326   9.700   9.298  0.5676  1.5835  0.5182
 7201SOL    HW226415  10.461   9.712   9.231  0.5184 -1.1512 -0.1778
 7202SOL     OW26416   2.366  10.735   9.046  0.0619 -0.7822 -0.3129
 7202SOL    HW126417   2.284  10.749   9.094  0.2631 -1.6421  0.3214
 7202SOL    HW226418   2.429  10.711   9.114  0.0719 -3.2544 -1.0831
 7203SOL     OW26419   7.714   1.865   0.288  0.1308 -0.4382 -0.5402
 7203SOL    HW126420   7.707   1.960   0.277  0.8924  0.0809  2.5416
 7203SOL    HW226421   7.701   1.851   0.382  0.3874 -3.3750 -0.8587
 7204SOL     OW26422   7.504   2.671  10.307 -0.2021  0.7182 -0.1662
 7204SOL    HW126423   7.478   2.583  10.280 -0.5310  0.8545 -0.2958
 7204SOL    HW226424   7.430   2.727  10.283  1.5741  1.7431 -3.8698
 7205SOL     OW26425  10.397   1.340   6.460  0.0984  0.6887  0.1485
 7205SOL    HW126426  10.302   1.348   6.473  0.2221  1.3457  0.7528
 7205SOL    HW226427  10.433   1.343   6.549  0.7913  2.0853 -0.1492
 7206SOL     OW26428   3.200  10.908   7.757 -0.3452  0.2667  0.0320
 7206SOL    HW126429   3.187  10.865   7.673 -0.9705  1.0009 -0.2546
 7206SOL    HW226430   3.148  10.988   7.752 -1.8594 -0.5150  1.7581
 7207SOL     OW26431   0.405   2.290  10.750  0.2516  0.4691  0.1930
 7207SOL    HW126432   0.316   2.303  10.781  0.5123 -2.0420  2.2636
 7207SOL    HW226433   0.395   2.262  10.659 -0.9068  1.9932 -0.1951
 7208SOL     OW26434  11.164  11.754  11.199 -0.3797  0.3915  0.2776
 7208SOL    HW126435  11.172  11.664  11.230 -1.5186  0.3098  0.3543
 7208SOL    HW226436  11.132  11.745  11.109 -0.3294  0.7207  0.2264
 7209SOL     OW26437   9.418   4.460   9.201  0.0396  0.1804 -0.1141
 7209SOL    HW126438   9.475   4.408   9.146  0.7432  1.4188 -0.5927
 7209SOL    HW226439   9.329   4.437   9.172  0.3546 -0.3225 -0.6955
 7210SOL     OW26440   8.404   0.467   3.709 -0.0109  0.0713  0.0738
 7210SOL    HW126441   8.479   0.438   3.658  1.0174  1.8362  0.4657
 7210SOL    HW226442   8.389   0.557   3.680 -0.9557  0.2782  1.1275
 7211SOL     OW26443   5.130   0.540   7.880  0.4768  0.5292 -0.1384
 7211SOL    HW126444   5.090   0.612   7.929 -0.3514  1.5384 -2.2001
 7211SOL    HW226445   5.103   0.461   7.927 -1.1718  1.3962  0.4249
 7212SOL     OW26446   5.958   3.748   9.547  0.0380  0.1730  0.3632
 7212SOL    HW126447   5.885   3.689   9.529 -0.9500  1.2305  0.7993
 7212SOL    HW226448   6.005   3.706   9.619 -2.0450  1.0283  2.3291
 7213SOL     OW26449   5.685   1.741   9.754 -0.1479  0.1051  0.2272
 7213SOL    HW126450   5.643   1.657   9.736  2.5674 -1.0027 -1.5167
 7213SOL    HW226451   5.694   1.783   9.668  2.2592  0.2338  0.4680
 7214SOL     OW26452   5.094  10.129   2.229  0.7222 -0.0345  0.2372
 7214SOL    HW126453   5.079  10.179   2.149  3.1682 -1.0069 -0.9358
 7214SOL    HW226454   5.072  10.038   2.206  1.5870 -0.3491  0.6043
 7215SOL     OW26455   4.269   7.613   7.113 -0.4668  0.0362 -0.4857
 7215SOL    HW126456   4.349   7.583   7.069 -0.3034 -2.5231  1.3759
 7215SOL    HW226457   4.291   7.701   7.144  2.5513 -1.3755  1.8913
 7216SOL     OW26458   9.707   3.184   4.272  0.2077 -0.1473 -0.3444
 7216SOL    HW126459   9.778   3.137   4.315  0.6175 -0.5144 -1.4042
 7216SOL    HW226460   9.738   3.200   4.183 -1.2208 -0.7549 -0.9956
 7217SOL     OW26461  11.981   4.154   2.697  0.2914 -0.0689  0.0294
 7217SOL    HW126462  11.983   4.058   2.699  0.5749 -0.0816 -0.5329
 7217SOL    HW226463  11.921   4.176   2.626 -0.5008  0.1854  0.7651
 7218SOL     OW26464   0.269  11.014   8.813  0.0582  0.1447 -0.0690
 7218SOL    HW126465   0.244  11.096   8.855  1.7947 -0.5078  2.4072
 7218SOL    HW226466   0.336  11.039   8.749  0.3782  0.6918  0.4706
 7219SOL     OW26467   4.430  12.163   0.040  0.1617 -0.2470 -0.7991
 7219SOL    HW126468   4.514  12.141   0.079  0.2502 -3.3010 -2.3656
 7219SOL    HW226469   4.366  12.143   0.109  0.5850 -0.3466 -0.4288
 7220SOL     OW26470   0.273   8.287   9.521  0.2516 -0.0672  0.6292
 7220SOL    HW126471   0.300   8.290   9.429 -0.1024 -1.0357  0.4891
 7220SOL    HW226472   0.315   8.364   9.560  1.0473 -0.0755 -0.1667
 7221SOL     OW26473   8.494   4.298   9.312 -0.2785 -0.3234  0.1716
 7221SOL    HW126474   8.567   4.282   9.371 -0.0611  1.4860  0.4330
 7221SOL    HW226475   8.450   4.213   9.305  2.0331 -1.5708 -0.2845
 7222SOL     OW26476   7.571   5.041  11.636 -0.2427 -0.1582 -0.2389
 7222SOL    HW126477   7.505   5.038  11.705 -0.2767 -1.2834 -0.3038
 7222SOL    HW226478   7.526   5.011  11.558 -0.8193  3.1335 -1.3403
 7223SOL     OW26479   2.769   3.423   1.682  0.0969  0.0512 -0.3640
 7223SOL    HW126480   2.853   3.382   1.665 -0.0785  0.2422 -1.8178
 7223SOL    HW226481   2.708   3.350   1.695 -0.3127 -0.2928 -3.3851
 7224SOL     OW26482   0.725   6.367   2.006 -0.6073  0.4237 -0.4276
 7224SOL    HW126483   0.679   6.391   2.087  0.3455  0.0097  0.2575
 7224SOL    HW226484   0.729   6.271   2.009  2.1290  0.4917  0.6235
 7225SOL     OW26485   9.026  12.066   2.777 -0.5421  0.1325 -0.0467
 7225SOL    HW126486   9.008  12.066   2.871 -1.6860 -2.0741 -0.1934
 7225SOL    HW226487   8.939  12.060   2.737 -0.0639  1.1259 -1.2666
 7226SOL     OW26488  11.749   0.797   3.304  0.2913  0.4559  0.0873
 7226SOL    HW126489  11.712   0.852   3.373 -0.0476 -0.4407  0.6390
 7226SOL    HW226490  11.714   0.710   3.322  0.5061  0.1367 -1.0004
 7227SOL     OW26491   5.295   2.003   0.109 -0.1875 -0.0343 -0.4265
 7227SOL    HW126492   5.312   1.909   0.106  0.1781  0.0543 -1.6894
 7227SOL    HW226493   5.379   2.042   0.130  0.0522  0.0904 -1.5397
 7228SOL     OW26494   1.857   3.311   8.303 -0.6333  0.0153 -0.3945
 7228SOL    HW126495   1.901   3.380   8.354 -2.2632  1.2350 -0.5711
 7228SOL    HW226496   1.803   3.265   8.367  0.6365 -1.3320 -0.2252
 7229SOL     OW26497   9.171   5.119   3.775 -0.0337 -0.6695  0.4391
 7229SOL    HW126498   9.258   5.083   3.755 -0.2898 -0.6191 -0.7918
 7229SOL    HW226499   9.123   5.046   3.814  0.3156 -0.9112  0.4212
 7230SOL     OW26500   7.931   0.662   2.531 -0.2531  0.3114 -0.4327
 7230SOL    HW126501   7.844   0.632   2.503 -0.8501  1.8855 -0.3683
 7230SOL    HW226502   7.917   0.752   2.561  1.0503 -0.0540  1.4455
 7231SOL     OW26503   6.592   9.452   5.426 -0.0977 -0.2012  0.3950
 7231SOL    HW126504   6.602   9.468   5.520 -0.4694 -1.7140  0.7223
 7231SOL    HW226505   6.660   9.505   5.386 -0.9121  1.6760  1.3805
 7232SOL     OW26506  10.137   6.868   7.236 -0.1074 -0.2514  0.3060
 7232SOL    HW126507  10.099   6.795   7.185 -1.7628 -0.5571  1.8615
 7232SOL    HW226508  10.075   6.940   7.223  0.2438  0.1229  0.7048
 7233SOL     OW26509  11.481   5.304  12.305  0.5737  0.0730 -0.3032
 7233SOL    HW126510  11.412   5.257  12.354  0.9556  1.0965  1.3016
 7233SOL    HW226511  11.559   5.294  12.360  0.7659  2.1653 -0.1315
 7234SOL     OW26512   1.620   9.582   5.203  0.0840  0.1670 -0.3494
 7234SOL    HW126513   1.712   9.579   5.174 -0.1865  2.3931 -1.6743
 7234SOL    HW226514   1.612   9.666   5.247 -0.9908 -0.6856  1.1658
 7235SOL     OW26515   8.192   0.891   7.886 -0.4910 -0.0282  0.0288
 7235SOL    HW126516   8.188   0.987   7.891 -1.5518 -0.1122  1.4398
 7235SOL    HW226517   8.132   0.868   7.816  0.7198  0.3667 -1.1884
 7236SOL     OW26518  10.347   0.444   7.413  0.3117  0.3756  0.2727
 7236SOL    HW126519  10.388   0.369   7.371  0.8829  0.7387  0.1713
 7236SOL    HW226520  10.413   0.475   7.476 -0.3494  0.1139  1.1209
 7237SOL     OW26521  11.497   0.263  11.852 -0.3169  0.4073 -0.1664
 7237SOL    HW126522  11.534   0.268  11.764 -0.1969  0.3965 -0.1176
 7237SOL    HW226523  11.407   0.292  11.842 -0.2204  0.6884 -0.2430
 7238SOL     OW26524   3.156   6.345   8.737  0.7809  0.5613 -0.4582
 7238SOL    HW126525   3.084   6.291   8.704  0.6275  1.3034 -1.3877
 7238SOL    HW226526   3.233   6.288   8.732  0.3760 -0.0418 -0.0281
 7239SOL     OW26527   9.724   2.674   8.952  0.0673 -0.4899  0.4659
 7239SOL    HW126528   9.758   2.762   8.935  0.4195 -0.6198  0.4849
 7239SOL    HW226529   9.668   2.685   9.029  1.8371 -0.6652  1.8333
 7240SOL     OW26530   7.852   7.063   8.646  0.1831 -0.0215 -0.2388
 7240SOL    HW126531   7.906   7.022   8.578  0.6155  2.0307 -1.2144
 7240SOL    HW226532   7.847   6.997   8.715  0.9845 -1.6233 -1.6105
 7241SOL     OW26533   3.983  12.171   8.715  0.5235 -0.6353 -0.3377
 7241SOL    HW126534   3.972  12.083   8.750 -2.5908 -0.4511 -0.6081
 7241SOL    HW226535   3.956  12.229   8.786  0.9949  0.0537 -0.7030
 7242SOL     OW26536  12.005   5.890  10.342 -0.2949  0.1129  0.4491
 7242SOL    HW126537  11.982   5.804  10.378  1.0054 -0.9574 -1.1621
 7242SOL    HW226538  12.043   5.871  10.256 -1.3116  2.4142 -0.5919
 7243SOL     OW26539   5.667  10.155   3.298  0.0054  0.3171 -0.0818
 7243SOL    HW126540   5.706  10.219   3.356  1.2691 -1.4656  1.1474
 7243SOL    HW226541   5.704  10.174   3.212  0.5443  1.0573  0.3053
 7244SOL     OW26542   0.848   4.545   6.509 -0.0851  0.6125 -0.5094
 7244SOL    HW126543   0.868   4.599   6.585  1.2563 -0.9859  0.3529
 7244SOL    HW226544   0.934   4.524   6.471 -0.7483  1.9856 -2.9578
 7245SOL     OW26545   9.062   1.307  12.104  0.0428  0.3434  0.3581
 7245SOL    HW126546   8.967   1.301  12.115 -0.0339 -0.3216 -0.6143
 7245SOL    HW226547   9.075   1.393  12.064  0.0004  1.0858  1.8534
 7246SOL     OW26548   6.341   7.364   6.648  0.2579  0.3153 -0.2839
 7246SOL    HW126549   6.266   7.419   6.669 -0.2140 -1.3273  2.7916
 7246SOL    HW226550   6.317   7.277   6.678  4.4877  0.2760  4.3051
 7247SOL     OW26551   9.845  12.033   2.670  0.9153  0.0610 -0.4945
 7247SOL    HW126552   9.776  11.979   2.710  0.2606  1.4494  0.3493
 7247SOL    HW226553   9.853  12.000   2.581 -1.6607  0.5544 -0.9824
 7248SOL     OW26554   6.908   0.288   7.641  0.5448 -0.1013 -0.3861
 7248SOL    HW126555   6.999   0.299   7.667  0.8613 -2.2321 -0.4476
 7248SOL    HW226556   6.873   0.224   7.703 -0.1517 -1.3041 -1.9466
 7249SOL     OW26557   6.609   5.541  11.899  0.4842 -0.1701  0.2167
 7249SOL    HW126558   6.599   5.607  11.967  0.6236 -1.2865  1.3704
 7249SOL    HW226559   6.616   5.590  11.818 -2.1251  1.1532  0.6971
 7250SOL     OW26560   7.118   8.333   7.458  0.3210 -0.0152 -0.5107
 7250SOL    HW126561   7.113   8.376   7.372 -0.0383  0.6370 -0.1702
 7250SOL    HW226562   7.205   8.291   7.458  0.8422  1.0243 -0.7137
 7251SOL     OW26563   2.814   0.462   0.002  0.0936 -0.4638 -0.2053
 7251SOL    HW126564   2.783   0.549  -0.022  0.5385 -0.7883 -2.1210
 7251SOL    HW226565   2.784   0.405  -0.070  0.8481 -1.6670  0.4032
 7252SOL     OW26566  11.915   1.411   8.222  0.1424 -0.3226 -0.3192
 7252SOL    HW126567  11.944   1.498   8.247  0.1875 -0.4243 -0.0191
 7252SOL    HW226568  11.831   1.400   8.267  0.3743 -0.6284  0.0418
 7253SOL     OW26569   4.659   2.157   6.428  0.5129  0.3136 -0.1433
 7253SOL    HW126570   4.704   2.212   6.492  1.3380 -0.4987 -0.0109
 7253SOL    HW226571   4.675   2.201   6.344  0.4214  0.7485  0.0649
 7254SOL     OW26572  11.354   9.443   9.625  0.3414 -0.4272 -0.0854
 7254SOL    HW126573  11.380   9.356   9.594  0.0163  0.3835 -2.9510
 7254SOL    HW226574  11.260   9.448   9.605  0.3715  0.6018  0.0076
 7255SOL     OW26575  12.572   6.966  11.904 -0.1816  0.3218 -0.2699
 7255SOL    HW126576  12.657   6.958  11.860 -0.2701  2.9280 -1.0716
 7255SOL    HW226577  12.509   6.936  11.839  0.0217 -0.5678 -0.0704
 7256SOL     OW26578   0.124  12.096   7.119 -0.0175 -0.2189 -0.0204
 7256SOL    HW126579   0.078  12.014   7.103  0.0356 -0.0576 -1.0881
 7256SOL    HW226580   0.099  12.121   7.208 -0.8039 -0.8879 -0.0444
 7257SOL     OW26581   0.001   7.310  10.361 -0.0798 -0.7013 -0.4748
 7257SOL    HW126582  -0.080   7.285  10.407 -0.2144  1.4249  0.5506
 7257SOL    HW226583  -0.024   7.313  10.269  0.1008 -4.6868 -0.8317
 7258SOL     OW26584   1.685   4.320   1.738  0.0101  0.2302 -0.9949
 7258SOL    HW126585   1.646   4.406   1.756 -1.0974 -0.2658 -0.9022
 7258SOL    HW226586   1.779   4.334   1.747 -0.2584  0.6054  2.9451
 7259SOL     OW26587   6.065   1.276   1.457 -0.1875  0.0950 -0.4108
 7259SOL    HW126588   6.127   1.222   1.507 -0.5322  0.5176  0.4921
 7259SOL    HW226589   6.006   1.212   1.416 -0.5475 -0.2315  0.5841
 7260SOL     OW26590   0.356   2.695  12.281  0.4077  0.5486 -0.3518
 7260SOL    HW126591   0.306   2.750  12.340  3.8447  3.1660  0.4664
 7260SOL    HW226592   0.363   2.611  12.326 -2.6265  0.2181 -0.3163
 7261SOL     OW26593   5.281   1.185   1.354  0.3073  0.1281  0.0605
 7261SOL    HW126594   5.309   1.150   1.439  0.1106  1.8788  0.8986
 7261SOL    HW226595   5.193   1.150   1.342  0.0972  0.3350  0.8894
 7262SOL     OW26596  11.615  10.812   5.055  0.3692 -0.5945 -0.1370
 7262SOL    HW126597  11.683  10.847   4.997  0.3575 -1.0154 -0.4122
 7262SOL    HW226598  11.596  10.725   5.019 -0.5633 -0.3417 -0.2772
 7263SOL     OW26599   5.137   4.088   2.840  0.3796 -0.2476 -0.1187
 7263SOL    HW126600   5.164   4.002   2.872  2.0102  1.1804  2.8101
 7263SOL    HW226601   5.211   4.145   2.862 -2.5133  2.8216  2.9013
 7264SOL     OW26602   0.294   3.554   7.620 -0.0680 -0.5571 -0.1881
 7264SOL    HW126603   0.205   3.519   7.628 -0.6597  0.6486 -1.1137
 7264SOL    HW226604   0.296   3.594   7.533  1.0270  0.4199  0.2624
 7265SOL     OW26605   7.240  11.498   8.755  0.3083 -0.0912  0.5333
 7265SOL    HW126606   7.329  11.514   8.725  0.2992 -3.2656 -1.6557
 7265SOL    HW226607   7.188  11.564   8.709  1.2782  0.4299  0.1563
 7266SOL     OW26608   7.079   0.929   5.438 -0.1292  0.6850 -0.3278
 7266SOL    HW126609   7.128   0.967   5.511 -0.7411 -1.3007  1.2302
 7266SOL    HW226610   7.144   0.916   5.369  1.0052  0.4964  0.7386
 7267SOL     OW26611   4.479   8.423   1.522  0.1879  0.5967 -0.3780
 7267SOL    HW126612   4.428   8.433   1.602  1.8606 -3.2401  1.4606
 7267SOL    HW226613   4.551   8.485   1.531  1.5990 -1.2179  2.4145
 7268SOL     OW26614   3.670   7.480   7.743 -0.1086 -0.4932  0.4430
 7268SOL    HW126615   3.694   7.415   7.809  2.3472  0.1664  0.2987
 7268SOL    HW226616   3.705   7.563   7.776 -0.0760  0.1086 -1.0027
 7269SOL     OW26617  12.598   5.604   8.193 -0.0782 -0.4241 -0.3761
 7269SOL    HW126618  12.585   5.596   8.287  1.4576 -1.7142 -0.2307
 7269SOL    HW226619  12.583   5.696   8.174  1.5135  0.2825  1.4760
 7270SOL     OW26620   5.442   1.004   4.808  0.4557 -0.2147  0.1177
 7270SOL    HW126621   5.525   0.960   4.791 -0.0474 -0.6036 -1.4908
 7270SOL    HW226622   5.381   0.932   4.826  0.1604 -0.0270 -0.1243
 7271SOL     OW26623   9.520   6.359   2.497 -0.1458  0.2519 -0.0642
 7271SOL    HW126624   9.556   6.446   2.480 -2.1875  1.3182  0.7384
 7271SOL    HW226625   9.597   6.301   2.499  1.1184  1.7443 -2.1416
 7272SOL     OW26626   7.704   1.635   1.630  0.1923  0.2320 -0.1200
 7272SOL    HW126627   7.614   1.663   1.648  0.3433  0.5972  0.0908
 7272SOL    HW226628   7.749   1.644   1.714  0.8207  1.6481 -0.5645
 7273SOL     OW26629   2.556   9.216   6.666 -0.4037 -0.8437  0.2865
 7273SOL    HW126630   2.560   9.236   6.572 -0.0303 -0.5724  0.3581
 7273SOL    HW226631   2.641   9.176   6.686  0.7339  1.7249  1.0874
 7274SOL     OW26632   5.600   3.388   8.204 -0.5583 -0.1581  0.1577
 7274SOL    HW126633   5.505   3.373   8.202 -0.7807  1.2076 -0.5250
 7274SOL    HW226634   5.610   3.471   8.250 -0.0231  1.5527 -2.7442
 7275SOL     OW26635   4.983  11.444   6.284 -0.3537 -0.4298  0.2999
 7275SOL    HW126636   4.894  11.478   6.290 -0.1799  0.2868 -0.9768
 7275SOL    HW226637   4.974  11.357   6.247 -0.5146 -0.2713 -0.0362
 7276SOL     OW26638   6.698   9.822   0.939 -0.0203  0.2488 -0.2711
 7276SOL    HW126639   6.758   9.849   1.009 -0.3380 -0.2717  0.2053
 7276SOL    HW226640   6.615   9.806   0.984  0.2169 -1.7956 -0.4772
 7277SOL     OW26641   2.018   0.394   6.930  0.5577 -0.5068 -0.0386
 7277SOL    HW126642   1.955   0.440   6.875 -0.1506 -0.6864  0.6052
 7277SOL    HW226643   2.074   0.347   6.869 -0.5197 -1.0933 -0.5910
 7278SOL     OW26644   9.389   4.673   4.095 -0.0758 -0.0690  0.1649
 7278SOL    HW126645   9.386   4.617   4.017 -1.5935  1.4732 -0.9629
 7278SOL    HW226646   9.483   4.682   4.113  0.2600 -2.1299 -0.1793
 7279SOL     OW26647   0.078   8.949   2.367 -0.0863  0.3599 -0.1137
 7279SOL    HW126648   0.170   8.944   2.344 -0.3611  2.0842 -1.8189
 7279SOL    HW226649   0.038   8.873   2.325  0.6437 -0.8711  1.3421
 7280SOL     OW26650  10.331   7.544   5.680 -0.1808  0.0972 -0.9400
 7280SOL    HW126651  10.333   7.471   5.742  0.8344  0.2751 -0.7400
 7280SOL    HW226652  10.266   7.518   5.614  0.8761 -1.4735 -1.4324
 7281SOL     OW26653   7.385   5.752   4.054  0.2450 -0.3349  0.2264
 7281SOL    HW126654   7.437   5.680   4.019 -1.1440 -1.2775 -0.0012
 7281SOL    HW226655   7.423   5.831   4.016  1.5262 -0.9736  0.1348
 7282SOL     OW26656   2.451   5.742   7.575  0.1647  0.2940 -0.2658
 7282SOL    HW126657   2.421   5.788   7.654 -1.9818  0.5152 -1.1178
 7282SOL    HW226658   2.444   5.650   7.598 -0.3631  0.3575 -0.1449
 7283SOL     OW26659   8.167   3.177   4.983 -0.0739  0.4175  0.9771
 7283SOL    HW126660   8.093   3.225   4.946 -0.7767 -1.5973 -0.3646
 7283SOL    HW226661   8.134   3.139   5.065 -0.6374 -0.6934  0.2499
 7284SOL     OW26662   4.814   6.737   1.624  0.3560 -0.0176 -0.8280
 7284SOL    HW126663   4.800   6.667   1.560 -0.9549 -0.8630  0.3184
 7284SOL    HW226664   4.738   6.795   1.613 -0.7234 -1.0027  0.9282
 7285SOL     OW26665  10.968   6.633  11.510 -0.0447 -0.4206 -0.0998
 7285SOL    HW126666  11.023   6.633  11.432  0.9300 -1.8171  0.5461
 7285SOL    HW226667  10.905   6.562  11.496  0.9284 -1.5225  0.8687
 7286SOL     OW26668   7.926   1.794   8.778  0.1382  0.5250 -0.7423
 7286SOL    HW126669   7.990   1.731   8.746 -0.5541 -0.6366  0.0834
 7286SOL    HW226670   7.972   1.842   8.847  0.6094  0.7960 -1.2430
 7287SOL     OW26671   6.478  10.980   0.616 -0.3077 -0.1039  0.0278
 7287SOL    HW126672   6.517  11.038   0.682 -2.4355  0.0114  1.2606
 7287SOL    HW226673   6.499  11.022   0.532  1.7368  0.1981  0.6277
 7288SOL     OW26674   4.193   4.171  11.650 -0.1935 -0.2737  1.4693
 7288SOL    HW126675   4.217   4.097  11.594 -2.7285 -1.8386  2.2987
 7288SOL    HW226676   4.267   4.181  11.710  0.4822 -1.6821  0.9203
 7289SOL     OW26677   9.101   6.635   8.117 -0.6444  0.1326 -0.6002
 7289SOL    HW126678   9.073   6.624   8.208 -0.2405 -0.1139 -0.5051
 7289SOL    HW226679   9.152   6.556   8.098  1.1463  1.1535 -0.3276
 7290SOL     OW26680   7.948   8.171   5.675  0.0770  0.0903  0.2244
 7290SOL    HW126681   8.035   8.204   5.653  0.1150 -0.2525 -0.1568
 7290SOL    HW226682   7.936   8.096   5.617 -1.0119  0.9263 -0.6962
 7291SOL     OW26683   9.551  11.006  10.873  0.3515  0.5248  0.6653
 7291SOL    HW126684   9.484  10.953  10.916  2.3108 -2.1364  0.7400
 7291SOL    HW226685   9.554  11.087  10.923 -3.4054  1.2097  0.0194
 7292SOL     OW26686   9.354   9.497   5.636  0.2532  0.2375 -0.3075
 7292SOL    HW126687   9.441   9.458   5.644  0.0203 -0.0314  1.1519
 7292SOL    HW226688   9.345   9.553   5.713 -0.6345  0.7638 -0.7643
 7293SOL     OW26689   0.011   4.455   7.408  0.5140  0.0458  0.1575
 7293SOL    HW126690  -0.010   4.362   7.411  1.5257 -0.3899 -3.1138
 7293SOL    HW226691   0.105   4.459   7.423  0.3230  0.7007  1.3306
 7294SOL     OW26692   6.505  12.141   4.005 -0.0441 -0.0040  0.4932
 7294SOL    HW126693   6.600  12.148   3.997 -0.0340 -1.9549 -3.3661
 7294SOL    HW226694   6.471  12.185   3.928 -2.1494 -1.1977  0.6614
 7295SOL     OW26695   9.363  11.764   0.346  0.1149 -0.1115 -0.3578
 7295SOL    HW126696   9.327  11.706   0.412 -0.3677 -0.5227 -0.9687
 7295SOL    HW226697   9.290  11.783   0.287 -0.6210  3.5951  1.4527
 7296SOL     OW26698   1.346   1.420   0.478  0.1905  0.3476  0.2872
 7296SOL    HW126699   1.417   1.461   0.528 -0.1399  0.5328  0.6029
 7296SOL    HW226700   1.270   1.476   0.492  0.1311  0.5028 -0.5639
 7297SOL     OW26701   1.469   0.123   7.268  0.2196 -0.0304 -0.3991
 7297SOL    HW126702   1.494   0.214   7.251  0.3171 -0.0844 -0.5467
 7297SOL    HW226703   1.447   0.087   7.182 -3.4114  0.8894 -0.0082
 7298SOL     OW26704   5.860   3.083   6.927 -0.4827 -0.4326 -0.1609
 7298SOL    HW126705   5.794   3.151   6.942 -0.7792 -0.5526 -0.8755
 7298SOL    HW226706   5.925   3.125   6.871 -0.3694 -0.5612 -0.1245
 7299SOL     OW26707   3.396   6.747   9.895  0.6399 -0.3099 -0.0085
 7299SOL    HW126708   3.402   6.719   9.987  0.3276 -1.0525 -0.2036
 7299SOL    HW226709   3.485   6.777   9.874  0.7185 -0.1454  0.5330
 7300SOL     OW26710  10.873   5.724   3.569  0.6542  0.4332  0.5674
 7300SOL    HW126711  10.851   5.732   3.662 -0.4992  0.2327  0.3389
 7300SOL    HW226712  10.819   5.790   3.525  0.9469  0.3157  0.0130
 7301SOL     OW26713   8.953   0.357   9.761  0.3102  0.4077 -0.4629
 7301SOL    HW126714   8.909   0.442   9.767 -1.3078 -0.4212  0.2121
 7301SOL    HW226715   9.018   0.359   9.832 -1.1511  0.3323  0.9276
 7302SOL     OW26716   6.613   2.882  12.089  0.5961 -0.5378  0.0445
 7302SOL    HW126717   6.607   2.880  12.184 -0.1248  0.8922  0.0551
 7302SOL    HW226718   6.529   2.849  12.059  0.5017 -0.1841 -0.0838
 7303SOL     OW26719  12.027   9.824  10.786 -0.1770  0.4138  0.0809
 7303SOL    HW126720  11.953   9.873  10.821 -0.7893  0.3362 -1.0869
 7303SOL    HW226721  12.011   9.733  10.812  0.3757  0.6272  1.2523
 7304SOL     OW26722   1.349   0.305   8.537  0.7243  0.1449  0.6194
 7304SOL    HW126723   1.338   0.399   8.553 -0.2828  0.4946 -1.6773
 7304SOL    HW226724   1.427   0.299   8.481  1.0658 -0.4575  1.1402
 7305SOL     OW26725   7.064   9.035   2.593  0.2564  0.0723  0.1504
 7305SOL    HW126726   7.091   9.088   2.668 -0.1471 -0.7484  0.8953
 7305SOL    HW226727   7.003   8.971   2.629  0.2828 -0.5357 -0.8261
 7306SOL     OW26728   9.232   1.493   3.456 -0.2375  0.1199  0.3740
 7306SOL    HW126729   9.272   1.560   3.512  3.0613 -2.0663  0.8563
 7306SOL    HW226730   9.228   1.415   3.510  1.0418 -1.5112 -1.7484
 7307SOL     OW26731   6.494   1.953   8.694 -0.4661  0.1979  0.0420
 7307SOL    HW126732   6.468   1.883   8.634 -0.3670  0.9889 -0.9304
 7307SOL    HW226733   6.463   2.033   8.653 -1.7104  0.6632  1.7479
 7308SOL     OW26734   8.648   1.665   7.343  0.2897 -0.0417  0.0118
 7308SOL    HW126735   8.717   1.703   7.288 -0.4490  0.1892 -0.7864
 7308SOL    HW226736   8.613   1.592   7.291  0.3553 -0.5598  0.6789
 7309SOL     OW26737   4.145   0.277   9.694  0.2351 -0.3710 -0.1917
 7309SOL    HW126738   4.070   0.226   9.728  0.4609 -0.6948 -0.1709
 7309SOL    HW226739   4.221   0.222   9.714  0.6631  0.7057  1.3179
 7310SOL     OW26740   5.334  12.093  10.525 -0.2010  0.5791  0.3388
 7310SOL    HW126741   5.310  12.179  10.491  1.3529  1.4569  1.3389
 7310SOL    HW226742   5.428  12.086  10.508 -0.3326 -1.0226  0.1063
 7311SOL     OW26743   1.351   2.624  10.820 -0.5345  0.0787 -0.0244
 7311SOL    HW126744   1.396   2.617  10.736 -0.6580 -0.6109 -0.0425
 7311SOL    HW226745   1.329   2.716  10.828  1.2209  0.5296  0.1579
 7312SOL     OW26746   7.720   1.979   4.463  0.4407 -0.2905 -0.6432
 7312SOL    HW126747   7.656   2.039   4.425  1.1986  1.3802  0.6031
 7312SOL    HW226748   7.770   2.033   4.524  2.1977 -1.8474 -0.6326
 7313SOL     OW26749   3.552   0.390  11.143  0.4063  0.6229  0.2085
 7313SOL    HW126750   3.468   0.403  11.099 -1.0051  1.8935  3.0614
 7313SOL    HW226751   3.608   0.461  11.109  0.1423  0.2188 -1.1444
 7314SOL     OW26752   0.246   0.686   3.753 -0.1182  0.1014  0.7136
 7314SOL    HW126753   0.225   0.685   3.659  1.8993 -0.1344  0.2099
 7314SOL    HW226754   0.163   0.709   3.796 -1.0789  0.2771 -1.1189
 7315SOL     OW26755   7.422  11.062   6.786  0.5164 -0.8716 -0.0106
 7315SOL    HW126756   7.444  11.106   6.704  0.5442  1.3893  1.1330
 7315SOL    HW226757   7.507  11.035   6.821  0.8528  0.9435  0.6979
 7316SOL     OW26758   1.399   1.582   1.463  0.2012  0.3045 -0.3514
 7316SOL    HW126759   1.378   1.606   1.373 -0.0654 -3.4676 -1.4558
 7316SOL    HW226760   1.322   1.607   1.514 -0.2515  1.1406 -1.4108
 7317SOL     OW26761   8.942   9.841  11.885 -0.0308  0.1266 -0.2894
 7317SOL    HW126762   9.034   9.816  11.873 -0.0475 -0.2155  0.2471
 7317SOL    HW226763   8.893   9.761  11.866 -0.2339  0.3668 -0.7879
 7318SOL     OW26764   6.744   0.636   9.303  0.1752  0.1247  0.1606
 7318SOL    HW126765   6.723   0.667   9.391  0.4558  1.9886 -0.3704
 7318SOL    HW226766   6.678   0.570   9.284 -1.6894  1.7524  0.7020
 7319SOL     OW26767   4.627   6.267  12.541  0.0232 -0.6357 -0.1187
 7319SOL    HW126768   4.713   6.293  12.573 -0.3102  1.5292 -0.8290
 7319SOL    HW226769   4.643   6.182  12.500  2.3020  0.5138 -1.9188
 7320SOL     OW26770  10.812   8.079   2.005  0.1350 -0.2600  0.0072
 7320SOL    HW126771  10.804   8.077   2.100 -1.6350 -3.3664 -0.0998
 7320SOL    HW226772  10.744   8.139   1.976 -3.5490 -3.7441  0.5989
 7321SOL     OW26773  11.050   5.365   5.583  1.0791 -0.1214  0.0197
 7321SOL    HW126774  11.140   5.368   5.617  0.6808 -2.5349  1.5383
 7321SOL    HW226775  11.053   5.302   5.512  0.8497  0.9771 -0.9935
 7322SOL     OW26776   5.597   6.769   7.350 -0.1290  0.3173  0.1526
 7322SOL    HW126777   5.586   6.863   7.364 -2.5557  0.1436 -0.2718
 7322SOL    HW226778   5.514   6.740   7.312  0.2151 -2.1822  1.1377
 7323SOL     OW26779   9.240   7.237   9.359  0.1506  0.1444  0.6547
 7323SOL    HW126780   9.277   7.157   9.320 -1.2674 -0.1774 -0.0830
 7323SOL    HW226781   9.307   7.304   9.342  0.2010 -0.2948 -1.1556
 7324SOL     OW26782  11.878  12.199  10.974  0.0014  0.0179 -0.1828
 7324SOL    HW126783  11.913  12.254  11.043 -0.5674  0.0930  0.0544
 7324SOL    HW226784  11.790  12.232  10.958 -0.0200 -0.2499 -0.6691
 7325SOL     OW26785   8.059   3.622   5.736  0.3939  0.0449 -0.1970
 7325SOL    HW126786   8.107   3.558   5.789 -0.8502  0.6501  1.7809
 7325SOL    HW226787   7.967   3.598   5.747  0.0855 -1.1323 -3.9500
 7326SOL     OW26788   9.037   1.149  12.516  0.3011 -0.2184 -0.3966
 7326SOL    HW126789   9.081   1.218  12.467 -1.5279  0.9694 -0.4547
 7326SOL    HW226790   8.967   1.119  12.457 -0.5022 -0.3473  0.5875
 7327SOL     OW26791   5.845   1.102  12.009 -1.0598 -0.6278 -0.1810
 7327SOL    HW126792   5.806   1.082  12.093  1.7474 -1.1478  1.1147
 7327SOL    HW226793   5.878   1.018  11.976 -0.2363 -0.1170 -0.7229
 7328SOL     OW26794   5.504   4.425  11.369  0.4267  0.1659 -0.2932
 7328SOL    HW126795   5.547   4.445  11.452 -2.4798 -0.6523  1.5666
 7328SOL    HW226796   5.503   4.329  11.366  0.2432  0.1921 -1.1303
 7329SOL     OW26797   9.720   9.367  11.748  0.2829 -0.2088  0.4005
 7329SOL    HW126798   9.700   9.316  11.670  2.7774 -0.3016 -0.2620
 7329SOL    HW226799   9.809   9.399  11.734 -0.6422  3.2883  1.3407
 7330SOL     OW26800   3.923   7.916   8.436 -0.1409 -0.1536 -0.3917
 7330SOL    HW126801   3.952   7.832   8.472 -0.5297 -0.9870 -1.9627
 7330SOL    HW226802   4.000   7.951   8.390  0.4703  1.0891  1.4440
 7331SOL     OW26803   8.063   0.690   9.345 -0.1180 -0.1631  0.8887
 7331SOL    HW126804   8.073   0.695   9.440 -0.0456  0.0137  0.8704
 7331SOL    HW226805   7.988   0.631   9.332 -1.0182  0.9076  1.0929
 7332SOL     OW26806   3.317  12.360   7.567 -0.3393  0.2097 -0.1193
 7332SOL    HW126807   3.251  12.332   7.630 -2.9922  2.3782 -1.7004
 7332SOL    HW226808   3.326  12.286   7.507 -1.9410  0.1259 -0.2954
 7333SOL     OW26809   9.041   1.552  11.749 -0.1439 -0.2405 -0.3711
 7333SOL    HW126810   9.049   1.633  11.698 -0.4670 -0.0299 -0.0954
 7333SOL    HW226811   9.058   1.579  11.839 -0.1574 -0.5007 -0.2910
 7334SOL     OW26812   2.694  11.835   9.394  0.1244  0.1883 -0.2841
 7334SOL    HW126813   2.773  11.881   9.368 -0.2628  1.0935  0.0785
 7334SOL    HW226814   2.623  11.898   9.378 -0.1457  0.8632  2.8762
 7335SOL     OW26815   7.943   3.373   4.823  0.2801  0.3509  0.2262
 7335SOL    HW126816   8.020   3.366   4.767  0.3435  0.4062  0.3059
 7335SOL    HW226817   7.898   3.452   4.792  0.6509  0.7390  0.6670
 7336SOL     OW26818  12.473   6.642   7.538 -0.6616  0.0610 -0.0569
 7336SOL    HW126819  12.431   6.558   7.559 -1.9127  0.4161 -0.9983
 7336SOL    HW226820  12.487   6.683   7.623 -1.2597 -0.5416  0.3459
 7337SOL     OW26821   3.243  12.232   5.761 -0.0138 -0.7194 -0.4904
 7337SOL    HW126822   3.319  12.178   5.740  0.0054 -0.7215 -0.4168
 7337SOL    HW226823   3.253  12.253   5.854  0.9346  0.9376 -0.9405
 7338SOL     OW26824   9.651  10.103   3.690 -0.6220 -0.3460 -0.1245
 7338SOL    HW126825   9.563  10.129   3.717 -1.2696  0.3661 -2.6795
 7338SOL    HW226826   9.641  10.073   3.600  2.1097  2.3246 -1.5172
 7339SOL     OW26827  10.254   0.776   4.791 -0.6969 -0.0316  0.4811
 7339SOL    HW126828  10.282   0.799   4.879 -2.0435  0.3071  0.8554
 7339SOL    HW226829  10.198   0.699   4.803  0.2887 -0.8899 -0.2599
 7340SOL     OW26830   1.414   5.969  11.108  0.2170 -0.0041  0.2121
 7340SOL    HW126831   1.348   6.038  11.105  1.1382  0.8700 -1.5686
 7340SOL    HW226832   1.364   5.890  11.129 -1.3172  0.7148 -0.5086
 7341SOL     OW26833   7.375   4.567   7.024 -0.0870  0.6658 -0.9900
 7341SOL    HW126834   7.325   4.641   7.059  2.0571  0.8817  2.0526
 7341SOL    HW226835   7.311   4.496   7.019 -1.3487  1.6943 -0.1510
 7342SOL     OW26836   8.881   0.717   5.720  0.1933  0.2669  0.3478
 7342SOL    HW126837   8.931   0.785   5.767  0.7787  0.8277 -1.0415
 7342SOL    HW226838   8.946   0.649   5.702  0.3139  0.6807 -0.8447
 7343SOL     OW26839  11.635   7.688   6.326  0.1887 -0.2992  0.3506
 7343SOL    HW126840  11.718   7.732   6.344 -0.1266 -0.3857  2.2511
 7343SOL    HW226841  11.589   7.689   6.410 -1.6680 -0.4083 -0.6070
 7344SOL     OW26842   5.246   2.536   3.362 -0.4198  0.1909  0.3456
 7344SOL    HW126843   5.305   2.598   3.404  2.2185 -3.1435  2.1239
 7344SOL    HW226844   5.191   2.503   3.433 -1.4488  0.1277 -0.4546
 7345SOL     OW26845   2.136   9.027   2.825  0.1975 -0.0842  0.0399
 7345SOL    HW126846   2.063   9.037   2.886  1.0104 -1.2684  1.2539
 7345SOL    HW226847   2.155   8.933   2.824  1.0882  0.0766 -0.9988
 7346SOL     OW26848  10.243   7.808   7.679  0.1215  0.5842 -0.3714
 7346SOL    HW126849  10.233   7.715   7.698  0.0819  0.6689  0.0287
 7346SOL    HW226850  10.166   7.849   7.718 -0.0898  0.7354 -0.9262
 7347SOL     OW26851   1.460   6.104  11.710 -0.0492  0.0695  0.2527
 7347SOL    HW126852   1.490   6.091  11.800 -0.8112  0.7234  0.6097
 7347SOL    HW226853   1.486   6.193  11.688 -1.1176  0.4138  0.3359
 7348SOL     OW26854   9.153  10.920  10.026 -0.5568  0.1287  0.0586
 7348SOL    HW126855   9.240  10.960  10.027 -0.4309  0.1517 -2.8832
 7348SOL    HW226856   9.169  10.826  10.027 -0.6296  0.1098  1.5203
 7349SOL     OW26857   1.233   4.051  12.305  0.3377  0.0753  0.1258
 7349SOL    HW126858   1.152   4.016  12.269  0.3453  1.9113 -1.8462
 7349SOL    HW226859   1.206   4.104  12.380 -0.1944  0.0084 -0.0196
 7350SOL     OW26860  11.873   0.312   9.974  0.0699 -0.1325 -0.3228
 7350SOL    HW126861  11.813   0.238   9.980 -0.0728  0.0405  0.4096
 7350SOL    HW226862  11.930   0.303  10.050 -1.2145  1.6222  0.9041
 7351SOL     OW26863  10.496   4.737   4.874 -0.2181 -0.3133 -0.1187
 7351SOL    HW126864  10.493   4.649   4.912 -0.7081 -0.2752 -0.0533
 7351SOL    HW226865  10.548   4.788   4.935  2.7091 -1.2506 -1.6635
 7352SOL     OW26866   5.068   6.917   0.779  0.1864  0.5194 -0.7661
 7352SOL    HW126867   5.059   6.989   0.842 -1.8501  0.9391 -1.4504
 7352SOL    HW226868   4.984   6.871   0.784  0.3872 -0.0854 -2.4193
 7353SOL     OW26869   5.054   5.407  10.192  0.4922 -0.1202 -0.3551
 7353SOL    HW126870   5.115   5.344  10.155  0.8777  0.2491 -0.3609
 7353SOL    HW226871   5.065   5.485  10.138 -0.7356 -0.3763 -1.0148
 7354SOL     OW26872   9.725   7.163   3.625  0.0851  0.3642 -0.5056
 7354SOL    HW126873   9.701   7.177   3.534 -0.7504  2.1665 -0.0442
 7354SOL    HW226874   9.668   7.221   3.675 -1.3530 -2.4428  1.4360
 7355SOL     OW26875   5.588   6.286   0.658  0.2362  0.4093  0.0253
 7355SOL    HW126876   5.506   6.317   0.620  0.4035  0.0014 -0.6662
 7355SOL    HW226877   5.608   6.351   0.726  0.1673  1.3984 -0.8675
 7356SOL     OW26878   3.993   2.092   3.538  0.0633  0.0182  0.1041
 7356SOL    HW126879   3.971   2.033   3.466  0.3900  0.2180 -0.1649
 7356SOL    HW226880   3.916   2.092   3.594 -0.6502  0.7521 -0.8567
 7357SOL     OW26881  12.470   5.568   8.460 -0.2411 -0.7239  0.1285
 7357SOL    HW126882  12.447   5.536   8.546  0.2471 -2.7243 -0.4375
 7357SOL    HW226883  12.564   5.585   8.464 -0.5317  1.0913  0.5087
 7358SOL     OW26884   3.021   6.923   8.906 -0.2153 -0.4032 -0.0940
 7358SOL    HW126885   3.115   6.925   8.889  0.0727 -0.4262  1.3574
 7358SOL    HW226886   3.013   6.951   8.997 -1.5368 -1.3127  0.0947
 7359SOL     OW26887   6.908   5.099   8.346  0.1281 -0.0915  0.2780
 7359SOL    HW126888   6.895   5.181   8.394 -1.4604  0.0214 -0.2752
 7359SOL    HW226889   7.001   5.079   8.356  0.2290  0.9673  1.7121
 7360SOL     OW26890  10.472   0.055  12.478 -0.4761 -0.6766  0.2198
 7360SOL    HW126891  10.469   0.056  12.382 -2.6642  2.4001  0.1905
 7360SOL    HW226892  10.403  -0.007  12.503 -1.6101  0.3342 -0.2740
 7361SOL     OW26893   0.118   7.997   1.839  0.0218 -0.0727 -0.2153
 7361SOL    HW126894   0.203   7.985   1.882  0.4668  0.9364 -0.7918
 7361SOL    HW226895   0.076   8.067   1.888 -1.6496 -2.2595  1.7476
 7362SOL     OW26896   7.374  10.480  11.294  0.0789 -0.0806 -0.2058
 7362SOL    HW126897   7.344  10.560  11.335 -1.6709  0.3882 -2.2334
 7362SOL    HW226898   7.458  10.504  11.254 -1.0035  1.1861 -1.8680
 7363SOL     OW26899   6.351   5.821  11.813  0.5322 -0.4073  0.0715
 7363SOL    HW126900   6.297   5.803  11.736  0.0474 -2.1717  0.7924
 7363SOL    HW226901   6.289   5.845  11.881  0.8290 -0.4408  0.3556
 7364SOL     OW26902   4.825   7.778  12.403 -0.2349 -0.4806  0.6950
 7364SOL    HW126903   4.864   7.709  12.349 -1.0115 -0.0776 -0.4150
 7364SOL    HW226904   4.781   7.731  12.474 -0.6397 -1.1331  0.0278
 7365SOL     OW26905   7.789  12.123   7.112  0.3003 -0.3190  0.3019
 7365SOL    HW126906   7.872  12.130   7.159 -0.7606 -1.5160  2.5117
 7365SOL    HW226907   7.746  12.208   7.124 -0.2344 -0.8115  2.1625
 7366SOL     OW26908   5.329   9.955   5.113  0.2292 -0.2079  0.4053
 7366SOL    HW126909   5.359   9.942   5.202  0.1335 -0.6247  0.3750
 7366SOL    HW226910   5.305  10.048   5.109  2.1937  0.3474  0.2277
 7367SOL     OW26911   1.593  10.099   9.785 -0.2947 -0.5377  0.2943
 7367SOL    HW126912   1.626  10.146   9.862 -0.4304 -1.3078  0.8291
 7367SOL    HW226913   1.547  10.024   9.821 -4.6538  1.5755 -0.2909
 7368SOL     OW26914   4.332  10.208   3.504 -0.4401 -0.0862  0.0936
 7368SOL    HW126915   4.377  10.148   3.445 -1.1093 -1.0624  0.5478
 7368SOL    HW226916   4.330  10.163   3.588 -1.2022  0.4531  0.3789
 7369SOL     OW26917  11.772   0.572   9.090  0.1843  0.1997  0.1327
 7369SOL    HW126918  11.686   0.587   9.051  0.2593 -2.0672 -1.1197
 7369SOL    HW226919  11.767   0.614   9.176 -1.9279  0.7198 -0.1815
 7370SOL     OW26920   9.556   7.869   9.013  0.6588  0.2014 -0.2023
 7370SOL    HW126921   9.599   7.953   9.002 -0.4783  0.8861  0.4090
 7370SOL    HW226922   9.479   7.873   8.956 -1.9271  1.4343  2.9906
 7371SOL     OW26923   6.971   2.807   2.949  0.1991  0.1879 -0.3460
 7371SOL    HW126924   6.938   2.738   2.891 -0.5605  0.6698 -0.5085
 7371SOL    HW226925   6.913   2.881   2.933  0.0779  0.3863  0.9084
 7372SOL     OW26926  11.730   3.319   7.665  0.2033  0.6280  0.3078
 7372SOL    HW126927  11.677   3.382   7.714 -1.6072 -0.1898 -0.4989
 7372SOL    HW226928  11.698   3.325   7.575  1.0420 -0.3597 -0.0852
 7373SOL     OW26929   1.895  11.387   5.241  0.0590 -0.0062  0.0421
 7373SOL    HW126930   1.938  11.472   5.234  0.5824 -0.2931 -0.2907
 7373SOL    HW226931   1.861  11.385   5.331 -1.4124  1.2181 -0.4683
 7374SOL     OW26932   5.201   7.319  11.609 -0.3218 -0.0427  0.6079
 7374SOL    HW126933   5.116   7.276  11.598 -0.4566  0.3953 -0.1537
 7374SOL    HW226934   5.191   7.371  11.690 -1.0401  0.5827  0.1365
 7375SOL     OW26935   7.433   4.810   8.398 -0.1569  0.8035  0.2100
 7375SOL    HW126936   7.388   4.778   8.476 -0.8668  0.3293 -0.3877
 7375SOL    HW226937   7.381   4.778   8.324  1.2680  0.0626 -0.5172
 7376SOL     OW26938   9.027  11.240   3.034 -0.2349 -0.4158 -0.3288
 7376SOL    HW126939   9.021  11.155   3.078 -0.0369 -0.4487 -0.3663
 7376SOL    HW226940   9.048  11.219   2.943 -2.4204 -0.4426 -0.8735
 7377SOL     OW26941   0.986  12.064   6.968  0.0464  0.2388 -0.0989
 7377SOL    HW126942   0.993  12.158   6.952  0.3921  0.4181  1.0718
 7377SOL    HW226943   0.907  12.054   7.020 -0.6672 -0.2689 -1.2368
 7378SOL     OW26944   2.229   5.112   6.939 -0.4317  0.4193 -0.5038
 7378SOL    HW126945   2.195   5.043   6.996 -1.9410  1.8001  0.3796
 7378SOL    HW226946   2.156   5.131   6.879  0.5192  0.1942 -1.7660
 7379SOL     OW26947   1.989   0.045  11.223  0.3638  0.2327 -0.5422
 7379SOL    HW126948   2.069   0.094  11.206  0.0891  0.5388 -0.9734
 7379SOL    HW226949   2.004   0.002  11.307  0.6719  0.9232 -0.2390
 7380SOL     OW26950  11.863   4.182   5.227 -0.4648  0.4366  0.1625
 7380SOL    HW126951  11.841   4.131   5.149 -0.9567 -0.2634  0.7488
 7380SOL    HW226952  11.778   4.213   5.260 -0.6188 -1.8843  2.1810
 7381SOL     OW26953   5.032   3.517   8.459  0.0994  0.0256 -0.1225
 7381SOL    HW126954   5.069   3.533   8.546  0.6301 -1.1144 -0.1195
 7381SOL    HW226955   5.079   3.578   8.402  0.5983 -0.0401  0.2061
 7382SOL     OW26956  12.528   3.820  10.429 -0.9418 -0.0598  0.6137
 7382SOL    HW126957  12.590   3.749  10.445 -2.3117 -0.9484  2.3129
 7382SOL    HW226958  12.579   3.900  10.444  0.4049 -0.6633 -0.5006
 7383SOL     OW26959   4.687   5.810   8.383 -0.0092  0.4561  0.4996
 7383SOL    HW126960   4.680   5.741   8.450  1.1340  0.7337  0.9242
 7383SOL    HW226961   4.746   5.773   8.317 -2.1429 -0.3423 -1.0748
 7384SOL     OW26962   9.043   8.151  10.693 -0.2273  0.0080 -0.5917
 7384SOL    HW126963   8.952   8.177  10.677 -0.1864  0.8988  0.4920
 7384SOL    HW226964   9.036   8.067  10.738 -0.6094  0.7737  0.8532
 7385SOL     OW26965   5.849   4.553   8.253  0.2331 -0.8343 -0.4927
 7385SOL    HW126966   5.881   4.496   8.184  1.0699 -0.8328 -0.1150
 7385SOL    HW226967   5.842   4.639   8.212 -0.6110 -1.1078 -0.9454
 7386SOL     OW26968   9.351  10.957   5.391  0.0924 -0.2370  0.3325
 7386SOL    HW126969   9.394  11.011   5.324 -0.8388  0.0625 -0.0386
 7386SOL    HW226970   9.260  10.987   5.391 -0.1835 -1.0457  0.9190
 7387SOL     OW26971   6.384   3.794   9.779 -0.1985 -0.1337 -0.7180
 7387SOL    HW126972   6.351   3.805   9.868  0.8875 -1.2243 -0.1605
 7387SOL    HW226973   6.433   3.875   9.762  0.3780 -0.3142  0.0389
 7388SOL     OW26974   3.883   9.700   9.878  0.1764 -0.5128 -0.2340
 7388SOL    HW126975   3.863   9.629   9.938 -0.0058 -0.3240 -0.0721
 7388SOL    HW226976   3.846   9.778   9.919  2.4329  0.1065  0.7684
 7389SOL     OW26977   6.563   8.561   3.329  0.3956  0.8337 -0.4987
 7389SOL    HW126978   6.623   8.583   3.401  0.5571  1.6393 -0.8709
 7389SOL    HW226979   6.609   8.494   3.280  0.1682  0.0703  0.2955
 7390SOL     OW26980   7.243  12.638   3.671 -0.7108  0.5919  0.3382
 7390SOL    HW126981   7.164  12.673   3.712  0.1538  1.2667  1.4631
 7390SOL    HW226982   7.313  12.696   3.699 -0.1548  1.6397 -2.7963
 7391SOL     OW26983   5.378   8.418   8.417 -0.3554  0.1336  0.3878
 7391SOL    HW126984   5.350   8.474   8.489 -0.1911 -0.4446  0.8995
 7391SOL    HW226985   5.439   8.472   8.367  1.1912 -0.1653  1.8719
 7392SOL     OW26986  10.382  10.951   7.823 -0.4552  0.1872  0.5630
 7392SOL    HW126987  10.348  10.937   7.912  0.2054  0.6414  0.8988
 7392SOL    HW226988  10.457  11.010   7.836 -1.6606  2.0534 -0.5125
 7393SOL     OW26989   5.271  10.139   8.976 -0.0688 -0.6594 -0.1982
 7393SOL    HW126990   5.361  10.115   8.995  0.9205  1.7449 -1.4538
 7393SOL    HW226991   5.274  10.233   8.956 -3.4394  0.4553  3.3381
 7394SOL     OW26992   1.664   3.451   0.784 -0.0581  0.1405  1.0883
 7394SOL    HW126993   1.589   3.398   0.809 -1.7086  1.8069 -0.0219
 7394SOL    HW226994   1.697   3.410   0.704  0.9662 -1.2326  2.1667
 7395SOL     OW26995   5.446   8.926  10.920  0.2137  0.1866  0.3270
 7395SOL    HW126996   5.512   8.857  10.919 -0.3581 -0.3993  1.2813
 7395SOL    HW226997   5.411   8.926  10.831  1.1267  0.1543 -0.0443
 7396SOL     OW26998   9.455   4.622   3.290 -0.1526 -0.4739  0.2055
 7396SOL    HW126999   9.456   4.529   3.313 -1.7889 -0.2515  1.3455
 7396SOL    HW227000   9.367   4.636   3.253  0.1440  0.5741 -0.1180
 7397SOL     OW27001   4.634   3.443   1.083  0.1979  0.3788  0.0760
 7397SOL    HW127002   4.570   3.509   1.059 -0.8261 -0.5758  0.0825
 7397SOL    HW227003   4.678   3.419   1.001 -1.3967 -0.9241 -0.4507
 7398SOL     OW27004   2.575   3.928   2.542  0.5671  0.5436 -0.2813
 7398SOL    HW127005   2.631   3.933   2.464 -1.9650 -0.3514 -2.3016
 7398SOL    HW227006   2.506   3.993   2.525 -1.0636 -0.9870  0.2705
 7399SOL     OW27007   1.073   1.484   0.393  0.0907 -0.1471  0.4826
 7399SOL    HW127008   1.064   1.453   0.483 -1.9718 -0.9864  0.0613
 7399SOL    HW227009   1.058   1.579   0.399 -1.9363 -0.4321  0.8776
 7400SOL     OW27010   8.261   4.520   7.045 -0.1719  0.2514 -0.0303
 7400SOL    HW127011   8.170   4.499   7.065 -0.4044  0.4745 -0.8034
 7400SOL    HW227012   8.311   4.448   7.083 -0.7045 -0.0698  0.0734
 7401SOL     OW27013   9.389   4.324  12.134 -0.1647 -0.4182 -0.0886
 7401SOL    HW127014   9.317   4.289  12.188  0.9680 -0.3377  1.5461
 7401SOL    HW227015   9.456   4.256  12.138  0.2066 -0.1075 -0.8751
 7402SOL     OW27016   8.939   6.707  12.482  0.0637 -0.0055  0.2367
 7402SOL    HW127017   9.019   6.737  12.525  1.1757 -0.0590 -1.7118
 7402SOL    HW227018   8.934   6.758  12.401 -1.2267 -0.8716 -0.2734
 7403SOL     OW27019  10.613   3.630   9.162 -0.1333 -0.0596 -0.3400
 7403SOL    HW127020  10.701   3.661   9.143  0.3324 -0.0665  1.5892
 7403SOL    HW227021  10.596   3.563   9.096  0.2808  1.6546 -2.3042
 7404SOL     OW27022   0.636   8.193   8.700 -0.3047  0.1913 -0.4982
 7404SOL    HW127023   0.720   8.217   8.740  0.1727 -1.6631 -0.3288
 7404SOL    HW227024   0.580   8.170   8.775  0.2245 -2.1454 -0.7524
 7405SOL     OW27025   7.300  11.908   5.634 -0.5317  0.1929  0.3319
 7405SOL    HW127026   7.345  11.837   5.589  1.5649  1.1184  0.8384
 7405SOL    HW227027   7.281  11.873   5.721 -0.9566 -0.2550  0.0634
 7406SOL     OW27028  11.217   1.152   9.698  0.2281 -0.1531 -0.3267
 7406SOL    HW127029  11.137   1.103   9.680  1.0791 -1.8495  0.3363
 7406SOL    HW227030  11.230   1.142   9.793 -0.1673  2.3515  0.0775
 7407SOL     OW27031  12.037   2.346  12.383  0.0006  0.3573 -0.5161
 7407SOL    HW127032  12.019   2.371  12.293  1.4389  0.1051 -0.9018
 7407SOL    HW227033  12.041   2.429  12.431 -3.3519  0.3976 -0.0942
 7408SOL     OW27034   7.753   8.593   5.346 -0.4308  0.2199 -0.5895
 7408SOL    HW127035   7.742   8.637   5.431  0.6619 -0.8686  0.1558
 7408SOL    HW227036   7.671   8.610   5.299 -0.0365  3.1846 -0.4435
 7409SOL     OW27037  11.591   7.819  11.623 -0.4867 -0.0108 -0.2427
 7409SOL    HW127038  11.570   7.849  11.711 -1.6344 -2.8357  0.5356
 7409SOL    HW227039  11.537   7.873  11.566 -0.0158  1.5888  0.7442
 7410SOL     OW27040   5.879  11.601  11.627  0.2381  0.0579 -0.3018
 7410SOL    HW127041   5.798  11.553  11.611  0.4212 -0.2036 -0.4461
 7410SOL    HW227042   5.943  11.560  11.569  0.8191 -0.6527  0.8137
 7411SOL     OW27043   9.769   4.525  11.132  0.1807 -0.2680  0.5134
 7411SOL    HW127044   9.853   4.488  11.160  1.0513  1.5512  0.4514
 7411SOL    HW227045   9.785   4.619  11.126 -1.2479 -0.0810 -1.6180
 7412SOL     OW27046   6.494   3.473  12.026 -0.1219  0.1994 -0.0994
 7412SOL    HW127047   6.463   3.496  11.938  0.2838  2.6706  0.3215
 7412SOL    HW227048   6.469   3.381  12.038  1.4916 -0.8706 -3.5336
 7413SOL     OW27049   9.875   0.839  10.329  0.0402 -0.1624 -0.1111
 7413SOL    HW127050   9.871   0.783  10.251 -0.4263 -0.6378  0.2503
 7413SOL    HW227051   9.968   0.841  10.351  0.8004  2.9622 -2.7942
 7414SOL     OW27052   6.630   6.151   8.645  0.0810 -0.0685 -0.5319
 7414SOL    HW127053   6.608   6.060   8.660 -1.9899  0.1159 -2.0427
 7414SOL    HW227054   6.646   6.157   8.551  2.8548  0.6538 -0.1032
 7415SOL     OW27055   4.743  10.905   3.853  0.2092 -0.3256 -1.2773
 7415SOL    HW127056   4.798  10.931   3.928 -0.8934 -1.9473  0.1818
 7415SOL    HW227057   4.805  10.897   3.780  1.5471  0.0766 -0.2385
 7416SOL     OW27058   9.364   0.643   4.635 -0.2123 -0.5483  0.3301
 7416SOL    HW127059   9.268   0.643   4.637 -0.2239  0.3738  2.5043
 7416SOL    HW227060   9.389   0.655   4.726  1.9910 -0.1893 -0.2831
 7417SOL     OW27061  12.339  12.326  10.677  0.0145  0.1870  0.5805
 7417SOL    HW127062  12.264  12.293  10.727  1.2973  0.1402  2.5662
 7417SOL    HW227063  12.393  12.370  10.742  1.7647  0.1527 -0.7992
 7418SOL     OW27064   9.085   2.477  11.686  0.3820 -0.4446 -0.3121
 7418SOL    HW127065   9.088   2.386  11.657 -0.6148  0.1554 -2.5814
 7418SOL    HW227066   9.166   2.516  11.652  1.8149 -0.8429  2.3632
 7419SOL     OW27067   8.241   5.878   1.042 -0.2179 -0.1496 -0.0706
 7419SOL    HW127068   8.193   5.877   1.124  1.5231 -1.7796  1.0206
 7419SOL    HW227069   8.224   5.792   1.003  0.1546  0.0363 -0.6597
 7420SOL     OW27070  12.186  10.413   0.589  0.6515  0.1699 -0.0464
 7420SOL    HW127071  12.185  10.419   0.685 -0.3124  0.8311 -0.0793
 7420SOL    HW227072  12.214  10.500   0.560  1.6305 -0.2368 -0.3692
 7421SOL     OW27073  11.151  10.415   8.767  0.1789 -0.4817  0.3310
 7421SOL    HW127074  11.224  10.365   8.730 -1.5892 -2.3952 -0.7699
 7421SOL    HW227075  11.181  10.506   8.764  1.8839 -1.0182 -1.6292
 7422SOL     OW27076  11.581  10.368  11.063  0.2354  0.1171 -0.2520
 7422SOL    HW127077  11.581  10.398  11.154  0.6682  0.8881 -0.5021
 7422SOL    HW227078  11.631  10.434  11.016  0.7149 -0.7075 -0.9187
 7423SOL     OW27079   3.493   9.757   4.650  0.2341 -0.0251  0.3151
 7423SOL    HW127080   3.461   9.828   4.595  0.8349  0.7249  0.9084
 7423SOL    HW227081   3.430   9.752   4.722 -0.4380 -0.8691 -0.3096
 7424SOL     OW27082   1.996   0.702   6.498 -0.3859 -0.1449  0.5439
 7424SOL    HW127083   2.076   0.716   6.549 -0.2613  1.4881 -0.0441
 7424SOL    HW227084   1.997   0.609   6.477  0.2455 -0.5993  2.3656
 7425SOL     OW27085   7.493   2.688   0.748 -0.2590  0.3880  0.1758
 7425SOL    HW127086   7.453   2.607   0.779 -0.2497 -0.0872 -1.0098
 7425SOL    HW227087   7.420   2.745   0.724 -0.2536  0.4335  0.2660
 7426SOL     OW27088   7.552   5.214   9.199 -0.4941  0.3025  0.0949
 7426SOL    HW127089   7.537   5.187   9.289 -0.9494  0.0549 -0.0540
 7426SOL    HW227090   7.543   5.134   9.148 -3.1060  0.8750 -0.4951
 7427SOL     OW27091   6.954   2.010  10.275  0.1994 -0.1114  0.5489
 7427SOL    HW127092   6.892   1.961  10.222  0.0583  0.8581 -0.2325
 7427SOL    HW227093   6.998   1.945  10.328 -1.0686 -0.8847  0.6867
 7428SOL     OW27094   3.192   6.850   2.078 -0.1338 -0.0156  0.2892
 7428SOL    HW127095   3.252   6.921   2.056 -0.6268 -0.3791 -2.5823
 7428SOL    HW227096   3.121   6.892   2.126  0.3531  1.1439  0.0182
 7429SOL     OW27097   3.351  10.659   3.166 -0.0507 -0.1720  0.1200
 7429SOL    HW127098   3.326  10.567   3.167  0.3672 -0.2806  0.5092
 7429SOL    HW227099   3.341  10.685   3.074 -0.1667 -0.5996  0.0072
 7430SOL     OW27100   0.530   3.173   1.671  0.0530 -0.5819 -0.1137
 7430SOL    HW127101   0.462   3.239   1.683  1.3451  0.8900 -0.4194
 7430SOL    HW227102   0.512   3.107   1.737 -1.1573  0.2061  0.3818
 7431SOL     OW27103   3.699   7.090   7.089  0.1333  1.4548 -0.2672
 7431SOL    HW127104   3.719   7.110   6.997  2.1098  0.9766  0.0019
 7431SOL    HW227105   3.605   7.072   7.090  0.4549 -1.1212 -2.7171
 7432SOL     OW27106   7.277   0.623   6.836 -0.1541 -1.0298  0.0973
 7432SOL    HW127107   7.283   0.697   6.776  0.2661 -0.8291  0.3859
 7432SOL    HW227108   7.292   0.661   6.922 -1.2356 -1.2321  0.3911
 7433SOL     OW27109   0.504  11.654   3.652 -0.1091  0.3885  0.2006
 7433SOL    HW127110   0.502  11.558   3.653  0.2890  0.3237 -1.3997
 7433SOL    HW227111   0.595  11.676   3.671 -0.2068  0.4452  0.5962
 7434SOL     OW27112  11.862   4.855   9.822 -0.2298 -0.2014 -0.1919
 7434SOL    HW127113  11.778   4.824   9.859 -0.2083 -1.5918 -1.2299
 7434SOL    HW227114  11.928   4.810   9.875 -0.1861 -0.9189 -0.8337
 7435SOL     OW27115   6.496   7.515   5.077  0.3827 -0.2432  0.3392
 7435SOL    HW127116   6.516   7.421   5.081  0.4490 -0.2069  1.0113
 7435SOL    HW227117   6.461   7.536   5.164  0.0871  0.2923  0.0947
 7436SOL     OW27118  11.009  11.423   6.638  0.2832  0.0119 -0.3763
 7436SOL    HW127119  10.978  11.338   6.669 -0.1970 -0.0164 -0.9086
 7436SOL    HW227120  11.082  11.401   6.579  0.4029 -0.0090 -0.2200
 7437SOL     OW27121  12.067   4.248   0.746  0.2060  1.0327 -0.1267
 7437SOL    HW127122  12.157   4.281   0.750  0.4549  0.2891  3.0127
 7437SOL    HW227123  12.045   4.227   0.837 -2.7447  0.0582 -0.9513
 7438SOL     OW27124  10.893   3.235   0.170  0.4536  0.1274  0.1898
 7438SOL    HW127125  10.944   3.156   0.153  1.3911  0.3776  1.7108
 7438SOL    HW227126  10.870   3.229   0.262  0.3094  1.5180  0.2581
 7439SOL     OW27127   2.736   5.780   9.091 -0.0429 -0.2470 -0.1689
 7439SOL    HW127128   2.808   5.721   9.066  0.7678 -0.5125  2.4426
 7439SOL    HW227129   2.682   5.727   9.150 -0.9998  0.7159 -0.1570
 7440SOL     OW27130  11.908   0.119   5.498  0.1228 -0.5821 -0.0884
 7440SOL    HW127131  11.898   0.096   5.406 -0.9191 -3.9712  0.7231
 7440SOL    HW227132  11.821   0.103   5.536  1.0834 -1.4611  1.8549
 7441SOL     OW27133   4.990  10.072   4.128  0.1038 -0.1754 -0.2428
 7441SOL    HW127134   5.047  10.146   4.150  2.6537 -2.2592  0.6085
 7441SOL    HW227135   5.012  10.052   4.037 -0.3807 -0.0538 -0.3859
 7442SOL     OW27136   7.134   1.929  10.985 -0.3424  0.7376  0.1876
 7442SOL    HW127137   7.134   1.956  11.077 -0.7185  0.5180  0.2493
 7442SOL    HW227138   7.191   1.994  10.942 -0.3728  0.9929  0.5261
 7443SOL     OW27139  12.432   6.202   2.956  0.6546  0.0827  0.1935
 7443SOL    HW127140  12.443   6.293   2.984  1.2507 -0.0021  0.2567
 7443SOL    HW227141  12.366   6.166   3.015  0.9836  0.2605  0.6763
 7444SOL     OW27142   9.190   6.943   1.979  0.9887 -0.3698 -0.2822
 7444SOL    HW127143   9.192   6.902   1.893  0.7370  0.0980 -0.5138
 7444SOL    HW227144   9.254   7.014   1.973  0.1900  0.3478 -0.4388
 7445SOL     OW27145  11.113   7.146   9.461  0.1415  0.0624 -0.2354
 7445SOL    HW127146  11.023   7.153   9.494  0.3822 -0.6864  0.6363
 7445SOL    HW227147  11.124   7.053   9.439  1.0625 -0.1113  0.8275
 7446SOL     OW27148   3.684   0.323   6.035 -0.3523 -0.1083  0.1161
 7446SOL    HW127149   3.774   0.314   6.003 -0.3679 -0.3723  0.1477
 7446SOL    HW227150   3.644   0.238   6.019 -0.7348  0.1555 -0.3237
 7447SOL     OW27151   2.940  11.384   6.912 -0.7466  0.3367 -0.0268
 7447SOL    HW127152   2.993  11.305   6.928 -0.0439  0.8157  0.0774
 7447SOL    HW227153   2.896  11.367   6.829 -2.6443 -1.2364  1.2274
 7448SOL     OW27154   0.299  11.985   4.906  0.1071 -0.3580  0.0003
 7448SOL    HW127155   0.284  12.035   4.826 -1.1125  0.3611  0.6501
 7448SOL    HW227156   0.378  11.933   4.887  1.5583  1.9441 -0.6365
 7449SOL     OW27157   5.607   2.149   5.044 -0.2305  0.1050 -0.1477
 7449SOL    HW127158   5.639   2.080   5.102 -0.1760 -0.7577 -1.1850
 7449SOL    HW227159   5.686   2.196   5.017 -0.1467 -0.1558 -0.3563
 7450SOL     OW27160   1.725  11.490   4.018  0.3882  0.1327 -0.3646
 7450SOL    HW127161   1.631  11.497   4.037  0.4904 -0.8350  0.5632
 7450SOL    HW227162   1.767  11.514   4.100  0.8875 -2.3169  0.1465
 7451SOL     OW27163   3.940   4.676   2.621 -0.6864 -0.7620  0.1736
 7451SOL    HW127164   3.901   4.599   2.662 -0.9278 -1.4465 -1.2624
 7451SOL    HW227165   4.031   4.651   2.605 -0.5736 -0.4771  0.3615
 7452SOL     OW27166  12.497   6.423   3.106  0.3858 -0.3752  0.0718
 7452SOL    HW127167  12.551   6.394   3.180  0.8537 -0.5421 -0.3249
 7452SOL    HW227168  12.422   6.466   3.147  1.1500  0.4754  0.6444
 7453SOL     OW27169   7.384   8.097   6.906 -0.0362 -0.3236  0.2839
 7453SOL    HW127170   7.426   8.124   6.824 -1.3455 -1.4089 -0.8029
 7453SOL    HW227171   7.378   8.001   6.899  2.1776 -0.7936  2.8612
 7454SOL     OW27172   0.427  11.614  10.159  0.1826 -0.1030 -0.1469
 7454SOL    HW127173   0.377  11.547  10.206 -0.4884  1.4769  1.4869
 7454SOL    HW227174   0.455  11.675  10.227 -1.2566  2.5672 -1.8007
 7455SOL     OW27175   6.952   1.314  10.152 -0.2884 -0.0434 -0.0630
 7455SOL    HW127176   6.942   1.407  10.171 -1.0379 -0.0886 -0.2213
 7455SOL    HW227177   7.046   1.297  10.164  0.0068  0.9207 -0.8603
 7456SOL     OW27178   3.558   6.413   3.404  0.2512 -0.3499 -0.0842
 7456SOL    HW127179   3.580   6.337   3.457 -2.5461 -0.2654  1.4114
 7456SOL    HW227180   3.493   6.380   3.341 -0.2154  0.5770 -0.1067
 7457SOL     OW27181  12.197   2.652   2.437 -0.0766  0.0116  0.0787
 7457SOL    HW127182  12.143   2.586   2.393  0.5303  0.4945 -1.4849
 7457SOL    HW227183  12.287   2.625   2.419  0.1881  1.5010 -1.0249
 7458SOL     OW27184   6.222   8.980  12.104 -0.2774  0.2757 -0.4089
 7458SOL    HW127185   6.297   8.962  12.161 -0.5955  0.5232  0.0977
 7458SOL    HW227186   6.230   9.073  12.083 -0.8226  0.4768  0.2256
 7459SOL     OW27187   6.391   9.456   0.128 -0.2233  0.5655 -0.0890
 7459SOL    HW127188   6.442   9.475   0.049  0.1232  0.2471  0.0566
 7459SOL    HW227189   6.330   9.387   0.101  0.6776 -0.3857  0.2082
 7460SOL     OW27190   2.948   2.600   0.314 -0.1064 -0.3564  0.0618
 7460SOL    HW127191   2.900   2.527   0.276  0.6879 -2.2646  2.4923
 7460SOL    HW227192   3.033   2.599   0.270  0.1818 -1.4146  0.6317
 7461SOL     OW27193   7.543   4.686  12.264  0.3030  0.2448 -0.1811
 7461SOL    HW127194   7.588   4.659  12.184 -1.5511 -1.7072 -0.6747
 7461SOL    HW227195   7.599   4.653  12.335  1.4401  1.0841 -0.6558
 7462SOL     OW27196  11.668   9.636   2.854 -0.4805 -0.4549  0.1542
 7462SOL    HW127197  11.604   9.706   2.843  0.9262  0.7513 -0.8815
 7462SOL    HW227198  11.619   9.555   2.840 -1.5989  0.4568 -1.5950
 7463SOL     OW27199   0.174   4.137   9.985  0.0664 -0.0769 -0.3456
 7463SOL    HW127200   0.191   4.081  10.061  1.4320  0.2261 -0.3979
 7463SOL    HW227201   0.260   4.151   9.946 -0.3297  1.4543 -0.7572
 7464SOL     OW27202   8.212   7.084   4.213 -0.1366  0.0993 -0.0608
 7464SOL    HW127203   8.266   7.010   4.186 -1.4969 -0.6438 -0.8432
 7464SOL    HW227204   8.257   7.160   4.177  2.2170 -0.1004  2.1930
 7465SOL     OW27205   4.266   3.041   8.362 -0.0465  0.4993  0.2208
 7465SOL    HW127206   4.330   2.996   8.307  1.0400  0.6774  1.2742
 7465SOL    HW227207   4.182   3.024   8.321  0.6746  0.2707 -1.2351
 7466SOL     OW27208  12.030   1.613   4.292 -0.4101  0.5526 -0.3724
 7466SOL    HW127209  11.949   1.660   4.312  0.1017  0.9084  0.9567
 7466SOL    HW227210  12.068   1.661   4.219 -2.2125 -0.6310 -2.2107
 7467SOL     OW27211   3.243   4.487   0.454  0.4467 -0.3008 -0.1998
 7467SOL    HW127212   3.221   4.396   0.432  0.0444  0.0592 -1.3535
 7467SOL    HW227213   3.339   4.490   0.449  0.4900 -0.7451  0.2360
 7468SOL     OW27214  11.051  10.458   4.544  0.4126 -0.6884 -0.0411
 7468SOL    HW127215  11.059  10.552   4.528  0.4600 -0.0488  3.0636
 7468SOL    HW227216  11.035  10.421   4.458 -0.9810  2.2986 -1.2285
 7469SOL     OW27217   2.359   9.678   0.475 -0.1220 -0.3689 -0.4302
 7469SOL    HW127218   2.267   9.657   0.489 -0.0175 -0.1072  0.6786
 7469SOL    HW227219   2.365   9.694   0.381 -1.5057  1.0492 -0.3109
 7470SOL     OW27220  11.822   6.861   4.907  0.3350 -0.8338 -0.9663
 7470SOL    HW127221  11.838   6.801   4.979 -2.8229  1.2165  1.7668
 7470SOL    HW227222  11.888   6.930   4.917 -1.1705  0.4048  1.3332
 7471SOL     OW27223   8.467   6.897   5.597  0.2530  0.2556  0.2335
 7471SOL    HW127224   8.471   6.866   5.687 -1.5059 -2.2847 -0.4445
 7471SOL    HW227225   8.497   6.823   5.544 -0.0614  1.1854 -1.3416
 7472SOL     OW27226   8.403   8.171   4.238  0.0266  0.1481  0.6173
 7472SOL    HW127227   8.347   8.184   4.161  0.9535 -0.2316 -0.1509
 7472SOL    HW227228   8.407   8.076   4.248  0.3177  0.1794  0.8172
 7473SOL     OW27229   1.753   5.517   5.617 -0.0846 -0.4138  0.2944
 7473SOL    HW127230   1.807   5.453   5.663 -0.7812 -0.7954  0.5897
 7473SOL    HW227231   1.668   5.513   5.661 -0.6591 -0.5349 -0.7912
 7474SOL     OW27232  10.027   0.962   8.628  0.1297 -0.2544 -0.1610
 7474SOL    HW127233  10.040   0.867   8.629 -1.2639 -0.4669 -0.4031
 7474SOL    HW227234   9.956   0.976   8.565 -0.8965  0.7686  1.1633
 7475SOL     OW27235   3.414   6.417   6.926  0.1026 -0.2335 -0.1335
 7475SOL    HW127236   3.443   6.408   6.835  1.8826  0.8839  0.2682
 7475SOL    HW227237   3.485   6.377   6.977 -0.7508 -0.6040  0.7876
 7476SOL     OW27238   4.999   8.752   0.696  0.5786  0.5081  0.4922
 7476SOL    HW127239   4.996   8.829   0.639  0.5817  1.0921  1.2499
 7476SOL    HW227240   5.015   8.679   0.637 -0.8634  0.8880 -0.4187
 7477SOL     OW27241   9.709   3.714   8.148 -0.1991  0.0811  0.2837
 7477SOL    HW127242   9.665   3.731   8.231 -0.1673  1.6409  0.0164
 7477SOL    HW227243   9.696   3.794   8.097  0.3115 -0.6105 -0.9827
 7478SOL     OW27244   1.231   5.536   4.355  0.1126 -0.2592  0.4775
 7478SOL    HW127245   1.266   5.584   4.430  0.4647  0.6954 -0.2748
 7478SOL    HW227246   1.169   5.475   4.393  1.8248 -1.3000  1.7697
 7479SOL     OW27247   4.609   1.701   7.841 -0.6570 -0.4673  0.3915
 7479SOL    HW127248   4.662   1.653   7.904 -1.4353 -0.7410  0.8549
 7479SOL    HW227249   4.670   1.760   7.797  0.1701 -1.3277  0.3620
 7480SOL     OW27250  10.501  12.155   1.744 -0.0820 -0.0569  0.5700
 7480SOL    HW127251  10.591  12.135   1.718 -1.0673 -1.4647 -2.2061
 7480SOL    HW227252  10.492  12.249   1.726  0.8696  0.1508  1.0908
 7481SOL     OW27253   2.419   5.251   7.063  0.3895 -0.4789  0.0926
 7481SOL    HW127254   2.388   5.341   7.075 -0.2853 -0.5209 -1.1911
 7481SOL    HW227255   2.340   5.201   7.042  0.5839 -1.6180  1.8578
 7482SOL     OW27256   9.461   5.756   7.574 -0.1444 -0.3410  0.7208
 7482SOL    HW127257   9.473   5.726   7.664 -1.0963  1.3451  1.4654
 7482SOL    HW227258   9.544   5.736   7.530  0.3750 -1.0943  1.9924
 7483SOL     OW27259   9.718   1.142   9.621  0.2974  0.0368  0.3091
 7483SOL    HW127260   9.623   1.141   9.619  0.2082  0.6810  2.1685
 7483SOL    HW227261   9.743   1.189   9.541 -0.9793  0.8289  0.3488
 7484SOL     OW27262  11.685  10.883  10.505  0.0776  0.7396  0.0419
 7484SOL    HW127263  11.700  10.913  10.594 -0.4915  0.8704  0.0979
 7484SOL    HW227264  11.769  10.847  10.477  0.9402  2.8136 -0.2091
 7485SOL     OW27265   2.655   5.449   6.334  0.0110 -0.1894  0.4370
 7485SOL    HW127266   2.616   5.364   6.351  1.1034 -0.9991 -0.9231
 7485SOL    HW227267   2.749   5.431   6.322  0.2038  1.1370 -0.2538
 7486SOL     OW27268  10.849   8.170   1.067 -0.2713 -0.0997 -0.1148
 7486SOL    HW127269  10.857   8.248   1.012 -0.1938  0.8859  1.2418
 7486SOL    HW227270  10.771   8.185   1.119  1.0023  0.1694  1.7987
 7487SOL     OW27271   7.330   5.784   1.737 -0.0719  0.5093  0.3442
 7487SOL    HW127272   7.343   5.791   1.642 -0.3106 -2.1685  0.0321
 7487SOL    HW227273   7.235   5.783   1.748 -0.0449  0.3262  0.5589
 7488SOL     OW27274  11.664  11.688   0.278 -0.2419  0.4731 -0.7493
 7488SOL    HW127275  11.735  11.626   0.293  0.3470  0.9900 -1.3209
 7488SOL    HW227276  11.680  11.759   0.340 -1.8191 -0.6347  1.0395
 7489SOL     OW27277   5.368   4.837   2.124 -0.1630 -0.2486  0.3872
 7489SOL    HW127278   5.364   4.932   2.130  0.1851 -0.0993 -1.1410
 7489SOL    HW227279   5.406   4.809   2.207  2.2632  1.1886 -0.1276
 7490SOL     OW27280   9.863  10.405   2.113  0.0813  0.2177 -0.5484
 7490SOL    HW127281   9.945  10.452   2.124 -1.3635  2.5839  1.0150
 7490SOL    HW227282   9.836  10.424   2.023  0.1353  1.4596 -0.3261
 7491SOL     OW27283   7.067   5.584  12.469 -1.1319 -0.0756 -0.0130
 7491SOL    HW127284   7.036   5.510  12.521 -2.8948  0.9341  0.4402
 7491SOL    HW227285   7.131   5.627  12.525  1.1478 -2.0946 -0.8954
 7492SOL     OW27286   7.805  10.048   9.624  0.9453  0.0797 -0.3070
 7492SOL    HW127287   7.725  10.099   9.639  0.5470 -1.1154  2.1775
 7492SOL    HW227288   7.875  10.114   9.623  0.0631  1.0746 -1.8783
 7493SOL     OW27289   6.747  10.124   3.541  0.1959 -0.1881  0.1559
 7493SOL    HW127290   6.795  10.044   3.561  0.0899 -0.2110  0.3296
 7493SOL    HW227291   6.710  10.109   3.454 -0.8979 -0.8651  0.7091
 7494SOL     OW27292   8.969   3.171   1.796  0.0239 -0.7022 -0.0901
 7494SOL    HW127293   9.024   3.136   1.726  0.0684  0.4141 -0.6216
 7494SOL    HW227294   8.924   3.245   1.757  2.5705  2.1378  1.9174
 7495SOL     OW27295   3.039   3.131   6.699 -0.6974 -0.5108 -0.4945
 7495SOL    HW127296   2.977   3.185   6.649 -1.6517 -0.6782  0.4900
 7495SOL    HW227297   3.061   3.184   6.775 -1.7409 -1.5370  0.5536
 7496SOL     OW27298   7.843   2.088   8.178 -0.1550  0.2229  0.3943
 7496SOL    HW127299   7.772   2.026   8.162  0.7089 -0.9978  1.1645
 7496SOL    HW227300   7.889   2.094   8.094  0.0445 -0.5734  0.4413
 7497SOL     OW27301   7.223   0.463   4.187 -0.5287  0.0965 -0.4186
 7497SOL    HW127302   7.151   0.522   4.209  0.2532  0.9945 -0.2122
 7497SOL    HW227303   7.289   0.480   4.254 -0.1600 -0.7766 -0.5587
 7498SOL     OW27304   4.097   1.880   5.050 -0.5377  0.6365  0.2755
 7498SOL    HW127305   4.172   1.845   5.003 -1.4770  1.3567 -1.8863
 7498SOL    HW227306   4.092   1.827   5.130  0.1083 -1.8640 -1.2311
 7499SOL     OW27307   9.778   2.818   2.824 -0.3976  0.0591 -0.3001
 7499SOL    HW127308   9.784   2.841   2.732 -1.8428 -1.0638 -0.7056
 7499SOL    HW227309   9.749   2.899   2.867 -0.5832  0.3464 -0.9510
 7500SOL     OW27310   8.085   6.560   1.130  0.5255 -0.1407 -0.2674
 7500SOL    HW127311   8.009   6.616   1.143 -0.5612 -1.6952  0.3831
 7500SOL    HW227312   8.100   6.519   1.215  0.4182 -1.8415 -1.0237
 7501SOL     OW27313   0.009   7.544   7.755  0.7016 -0.1628  0.6048
 7501SOL    HW127314  -0.071   7.491   7.746  1.0056 -0.5274 -0.0326
 7501SOL    HW227315   0.079   7.479   7.766  1.6939 -0.2641 -4.1754
 7502SOL     OW27316  11.538   6.479   6.820 -0.2273  0.1674  0.5840
 7502SOL    HW127317  11.561   6.535   6.894 -0.5629  0.8385  0.1903
 7502SOL    HW227318  11.489   6.536   6.761  0.4039 -0.2326 -0.3548
 7503SOL     OW27319   9.390   0.774   3.643 -0.4697  0.2382 -0.7640
 7503SOL    HW127320   9.347   0.834   3.704 -1.7348 -0.1060 -1.2944
 7503SOL    HW227321   9.442   0.832   3.587  1.2114  0.5187  0.9542
 7504SOL     OW27322  10.455   3.543   9.565 -0.0172 -0.1025  0.1991
 7504SOL    HW127323  10.481   3.626   9.525 -1.3766 -0.7060 -2.1167
 7504SOL    HW227324  10.508   3.477   9.521 -2.8470 -0.9861 -2.1984
 7505SOL     OW27325  10.245   9.527   7.700 -0.5276 -0.0969 -0.3488
 7505SOL    HW127326  10.281   9.450   7.656  0.0822  0.0137 -0.0412
 7505SOL    HW227327  10.150   9.516   7.692 -0.4903 -1.5194  0.7971
 7506SOL     OW27328  11.630   2.108   8.388 -0.2660 -0.7718 -0.2533
 7506SOL    HW127329  11.541   2.142   8.373  0.1689 -0.1190 -1.5282
 7506SOL    HW227330  11.674   2.179   8.436  0.1745 -0.1584 -1.5161
 7507SOL     OW27331   5.708  11.940  11.852  0.7106  0.2110  0.1992
 7507SOL    HW127332   5.659  11.864  11.820 -0.2502  1.1780 -0.6885
 7507SOL    HW227333   5.733  11.988  11.774 -0.8801  2.1299  0.7771
 7508SOL     OW27334   5.525  12.473   7.629 -0.1218  0.3624  0.4910
 7508SOL    HW127335   5.461  12.545   7.634 -0.0310  0.6252 -1.4612
 7508SOL    HW227336   5.481  12.405   7.578  0.8797  0.2583 -0.2673
 7509SOL     OW27337   2.117  10.185   8.021 -0.1745  0.5778 -0.3222
 7509SOL    HW127338   2.173  10.185   7.944  0.9736 -0.4528  0.4741
 7509SOL    HW227339   2.159  10.124   8.081 -2.1743 -0.2339  0.3209
 7510SOL     OW27340   0.172   2.579   9.681  0.4780  0.1296  0.5506
 7510SOL    HW127341   0.096   2.546   9.731  0.2470 -1.2570 -0.6464
 7510SOL    HW227342   0.166   2.674   9.689 -2.0312  0.1308 -0.3783
 7511SOL     OW27343   2.483   9.905  11.781 -0.3665  0.1490  0.7211
 7511SOL    HW127344   2.425   9.841  11.740 -0.1681  1.4541 -1.7294
 7511SOL    HW227345   2.427   9.954  11.841 -1.3794  0.2046 -0.2559
 7512SOL     OW27346   1.346   8.474   2.074 -0.0665  0.6383 -0.0451
 7512SOL    HW127347   1.406   8.415   2.119 -0.0162  0.2784 -0.5779
 7512SOL    HW227348   1.403   8.528   2.019  0.1314  2.6039  1.9170
 7513SOL     OW27349  11.388   6.463   4.185  0.2588  0.1249 -0.5560
 7513SOL    HW127350  11.368   6.378   4.224 -1.6507  0.6767 -0.1917
 7513SOL    HW227351  11.377   6.449   4.091  0.7296 -0.2060 -0.5664
 7514SOL     OW27352  10.583   2.097   1.294  0.2701 -0.2012 -0.1239
 7514SOL    HW127353  10.646   2.130   1.230 -0.2561 -0.6412 -0.8969
 7514SOL    HW227354  10.612   2.008   1.313  2.0288  0.7948  2.4051
 7515SOL     OW27355   3.407   1.606  11.006  0.6306 -0.6738 -0.5030
 7515SOL    HW127356   3.476   1.671  11.018 -1.9193  2.1285  0.0024
 7515SOL    HW227357   3.397   1.567  11.093  1.5580 -1.1693 -0.5985
 7516SOL     OW27358   7.590   2.369  10.485  0.3715 -0.0972  0.0077
 7516SOL    HW127359   7.582   2.462  10.506 -0.4905 -0.2154  0.2487
 7516SOL    HW227360   7.684   2.356  10.470  0.5545  0.7283  0.3501
 7517SOL     OW27361   6.010   7.395  11.863  0.0628  0.7194  0.0515
 7517SOL    HW127362   5.993   7.433  11.776 -0.9321 -0.2504 -0.2041
 7517SOL    HW227363   5.928   7.407  11.910 -0.4985 -1.5583 -0.2327
 7518SOL     OW27364   5.701   5.424   0.445 -0.2017  0.0764 -0.2060
 7518SOL    HW127365   5.691   5.357   0.513 -1.4054  0.1847 -0.2622
 7518SOL    HW227366   5.782   5.470   0.469  0.8341 -1.5875 -0.3501
 7519SOL     OW27367   4.835   1.993   2.513  0.3990 -0.2870 -0.1611
 7519SOL    HW127368   4.859   2.036   2.595  0.4230 -1.1302  0.2843
 7519SOL    HW227369   4.796   2.063   2.460  1.8106  0.6392 -0.0636
 7520SOL     OW27370   5.529   9.588   3.853  0.8570  0.3156 -0.1583
 7520SOL    HW127371   5.450   9.560   3.806  1.0031 -0.8373  0.2532
 7520SOL    HW227372   5.546   9.517   3.914  2.3667  0.4373 -0.4137
 7521SOL     OW27373   9.443  11.541   1.670 -1.0727 -0.0524 -0.1350
 7521SOL    HW127374   9.399  11.458   1.687 -1.5567  0.2069 -0.0958
 7521SOL    HW227375   9.374  11.598   1.635 -0.5967  0.1287 -0.7931
 7522SOL     OW27376   3.095  11.113   8.844 -0.0548 -0.2628  0.0862
 7522SOL    HW127377   3.053  11.078   8.766 -0.7450 -0.4077  0.5185
 7522SOL    HW227378   3.078  11.048   8.912  0.0914  0.1069  0.4854
 7523SOL     OW27379  10.902   9.979  11.739 -0.0832 -0.3882 -0.6470
 7523SOL    HW127380  10.890  10.055  11.681  0.5415 -0.4141 -0.8199
 7523SOL    HW227381  10.966  10.009  11.804  1.3830 -1.2540 -1.6398
 7524SOL     OW27382   3.005   5.239   5.654 -0.3459  0.2795  0.1744
 7524SOL    HW127383   2.988   5.237   5.560 -0.3366  1.2957  0.1393
 7524SOL    HW227384   2.938   5.182   5.692 -0.1365 -0.4074 -0.4743
 7525SOL     OW27385   5.794   9.018   8.982 -0.4684 -0.3652  0.1170
 7525SOL    HW127386   5.765   8.997   8.893 -1.4347 -1.1879  0.6118
 7525SOL    HW227387   5.865   8.957   8.999 -0.4412 -0.3667  0.0028
 7526SOL     OW27388  12.070   2.956  10.598 -0.2737 -0.1099 -0.1550
 7526SOL    HW127389  12.156   2.976  10.634 -0.2036 -0.7375  0.0450
 7526SOL    HW227390  12.081   2.965  10.503 -0.0212 -0.0663 -0.1224
 7527SOL     OW27391   8.674   1.608   2.506  0.1951  0.0679  0.1018
 7527SOL    HW127392   8.656   1.674   2.573 -0.6664 -0.6627  0.6269
 7527SOL    HW227393   8.751   1.562   2.539 -0.8991 -1.0516  1.2465
 7528SOL     OW27394   7.917   7.774  11.281 -0.2984 -0.0986  0.4530
 7528SOL    HW127395   7.953   7.695  11.241 -0.2786 -0.0461  0.3683
 7528SOL    HW227396   7.967   7.846  11.244 -0.0929 -0.0689  0.7789
 7529SOL     OW27397   0.731  11.215   9.558 -0.3451 -0.5426 -0.2618
 7529SOL    HW127398   0.659  11.266   9.597  0.5137  1.4360 -1.1298
 7529SOL    HW227399   0.695  11.127   9.548 -1.8316 -0.2051  1.5133
 7530SOL     OW27400   4.079   9.125   4.128  0.1623  0.6160 -0.3709
 7530SOL    HW127401   4.151   9.090   4.075 -0.7408 -1.2547 -0.4224
 7530SOL    HW227402   4.078   9.069   4.206 -2.2011 -0.4253 -1.0814
 7531SOL     OW27403   0.813   3.057   4.145 -0.5917  0.2411  0.2149
 7531SOL    HW127404   0.780   3.132   4.194 -0.4158  1.1181 -0.9697
 7531SOL    HW227405   0.862   3.005   4.210 -0.4820  1.2874  0.9896
 7532SOL     OW27406  12.634   3.686   5.500 -0.7479  0.0987  0.6217
 7532SOL    HW127407  12.597   3.677   5.412 -1.6189 -2.3653  1.1814
 7532SOL    HW227408  12.560   3.713   5.554 -0.6980 -0.4768  0.9773
 7533SOL     OW27409   5.890  12.319   9.252  0.3616  0.3842 -0.0518
 7533SOL    HW127410   5.846  12.380   9.311 -1.1393 -0.8373  0.1516
 7533SOL    HW227411   5.903  12.240   9.304 -0.2726 -0.4330 -1.0830
 7534SOL     OW27412   1.592  10.066   7.334 -0.6440  0.0494 -0.1285
 7534SOL    HW127413   1.509  10.024   7.312 -0.6889  1.3819 -2.8825
 7534SOL    HW227414   1.656   9.994   7.335 -1.4717 -0.7019  0.0482
 7535SOL     OW27415   8.226   4.825   0.463  0.2754 -0.1652 -0.1149
 7535SOL    HW127416   8.220   4.769   0.386  1.0425  0.1832 -0.4401
 7535SOL    HW227417   8.180   4.777   0.531 -0.4437 -0.4659 -0.7970
 7536SOL     OW27418   9.810   4.175   2.973  0.1228 -0.0957  0.3365
 7536SOL    HW127419   9.903   4.172   2.995  0.0058 -0.6106  0.7989
 7536SOL    HW227420   9.769   4.112   3.033 -0.2066 -1.5962 -1.3527
 7537SOL     OW27421   7.456   5.154   7.769  0.6705  0.0958 -0.3909
 7537SOL    HW127422   7.529   5.118   7.819 -0.9864 -0.6449  1.6374
 7537SOL    HW227423   7.406   5.077   7.740 -0.5560  0.5896  0.3002
 7538SOL     OW27424   3.767   7.826  10.526  0.4343  0.8535 -0.0070
 7538SOL    HW127425   3.718   7.782  10.595  1.5649 -0.0336  0.2687
 7538SOL    HW227426   3.725   7.796  10.445  1.0976 -0.6993  0.1799
 7539SOL     OW27427   2.969   0.102  10.029 -0.4939 -0.3102 -0.2356
 7539SOL    HW127428   3.055   0.121   9.990 -0.5094  1.3192  0.4482
 7539SOL    HW227429   2.990   0.063  10.114 -0.4391 -0.2780 -0.2337
 7540SOL     OW27430  12.327   0.834   3.269  0.4472 -0.2759  0.1943
 7540SOL    HW127431  12.385   0.786   3.327  2.3955 -0.6428 -1.9042
 7540SOL    HW227432  12.314   0.918   3.312 -1.5272 -1.8938  3.0444
 7541SOL     OW27433   3.593  12.256  12.190 -0.0599 -0.2712  0.1990
 7541SOL    HW127434   3.641  12.185  12.147  1.5492  1.7165 -1.5139
 7541SOL    HW227435   3.583  12.226  12.280  3.0910 -1.5156  0.2863
 7542SOL     OW27436   7.693   4.858   9.440  0.0178 -0.8333  0.0611
 7542SOL    HW127437   7.721   4.927   9.500 -1.8473  0.9401 -0.9654
 7542SOL    HW227438   7.607   4.832   9.473 -1.3750  0.6795 -2.1090
 7543SOL     OW27439   3.638   8.142  10.066  0.2075 -0.6713 -0.1478
 7543SOL    HW127440   3.710   8.080  10.060  1.0300  0.2111  0.3049
 7543SOL    HW227441   3.679   8.225  10.089 -0.9079 -0.0398 -0.3229
 7544SOL     OW27442  10.678   2.171   1.799 -0.1706 -0.0743 -0.4412
 7544SOL    HW127443  10.662   2.163   1.893 -0.4623  0.0182 -0.4834
 7544SOL    HW227444  10.697   2.081   1.770  0.2770 -0.0501 -0.2299
 7545SOL     OW27445   0.510   2.692  11.208  0.2292 -0.1677 -0.2979
 7545SOL    HW127446   0.573   2.620  11.205  1.0646  0.4857  0.6988
 7545SOL    HW227447   0.449   2.674  11.137  0.0585 -2.1802  0.2887
 7546SOL     OW27448   8.803   2.632   5.940 -0.2780  0.1768  0.4401
 7546SOL    HW127449   8.809   2.539   5.919 -1.0111  0.2686 -0.2108
 7546SOL    HW227450   8.871   2.646   6.007 -0.6155 -0.9612  1.0447
 7547SOL     OW27451   7.680   1.490   2.776  0.2221  0.6363 -0.1340
 7547SOL    HW127452   7.630   1.527   2.849  0.3202 -1.6550  1.1864
 7547SOL    HW227453   7.767   1.529   2.785  0.0337  0.9294  0.5278
 7548SOL     OW27454   3.130   4.950   3.740  0.2712  0.6565 -0.1007
 7548SOL    HW127455   3.119   4.926   3.832  0.0581 -1.8825 -0.7289
 7548SOL    HW227456   3.199   4.892   3.707  2.3505  3.3945 -0.9407
 7549SOL     OW27457   1.412   6.997  10.982 -0.3187 -0.1558  0.5015
 7549SOL    HW127458   1.373   6.911  10.969 -0.5111 -0.0244  0.1939
 7549SOL    HW227459   1.505   6.985  10.961 -0.7798  0.2665 -2.0719
 7550SOL     OW27460   0.660   9.973   0.234 -0.1153  0.1380 -0.4789
 7550SOL    HW127461   0.623   9.910   0.173 -2.8299 -0.0275  1.1762
 7550SOL    HW227462   0.634   9.940   0.321 -0.7619  2.9566  0.5032
 7551SOL     OW27463  11.296  12.234  10.617  0.2030 -0.8660 -0.6136
 7551SOL    HW127464  11.361  12.302  10.603  0.8565 -1.7307 -1.9750
 7551SOL    HW227465  11.272  12.204  10.530 -1.2510 -1.3003 -0.1023
 7552SOL     OW27466   5.260   6.159  10.669  0.1349 -0.7909  0.1189
 7552SOL    HW127467   5.310   6.103  10.609 -0.2118 -1.8101  0.7445
 7552SOL    HW227468   5.224   6.228  10.613  2.7768  0.4186 -0.2471
 7553SOL     OW27469   2.549   7.050  10.134  0.3722 -0.0801 -0.2890
 7553SOL    HW127470   2.584   7.138  10.143 -1.6536  0.8334 -0.8311
 7553SOL    HW227471   2.535   7.040  10.040  2.2543 -1.7237 -0.4744
 7554SOL     OW27472  12.644   9.941   1.317 -0.1746 -0.3954 -0.1522
 7554SOL    HW127473  12.598   9.892   1.384  0.1313 -0.1914  0.2124
 7554SOL    HW227474  12.670  10.023   1.360  0.3903 -0.4441 -0.3899
 7555SOL     OW27475  10.101   7.849   6.460 -0.2864 -0.8893 -0.5588
 7555SOL    HW127476  10.113   7.760   6.492 -1.1941 -1.1557 -0.9450
 7555SOL    HW227477  10.142   7.848   6.373 -2.5256 -1.6670 -1.6709
 7556SOL     OW27478   6.156  12.140  11.881 -0.1131  0.3939 -0.6014
 7556SOL    HW127479   6.091  12.075  11.856  0.4225 -0.4573  0.1401
 7556SOL    HW227480   6.230  12.124  11.823 -0.2809  0.8896 -0.9620
 7557SOL     OW27481   8.604   0.030   7.810  0.0278  0.0149  0.0914
 7557SOL    HW127482   8.542  -0.017   7.754 -0.3485  0.1604  0.3871
 7557SOL    HW227483   8.605   0.119   7.774  1.7939 -0.5309 -1.3583
 7558SOL     OW27484   6.116   5.002   8.470 -0.4130  0.5849 -0.3142
 7558SOL    HW127485   6.158   4.934   8.417 -0.2058  1.6715 -1.5757
 7558SOL    HW227486   6.187   5.059   8.497 -0.7243  0.8864 -0.1264
 7559SOL     OW27487  11.966   5.298   1.178 -0.6900 -0.3650 -0.2454
 7559SOL    HW127488  12.011   5.383   1.172  0.2938 -0.7003  1.5242
 7559SOL    HW227489  11.907   5.297   1.103  1.3787  0.6303 -2.0150
 7560SOL     OW27490   7.322   3.102   2.368  0.2987 -0.0336  0.0590
 7560SOL    HW127491   7.346   3.194   2.358 -1.4738  0.5135  0.3732
 7560SOL    HW227492   7.347   3.060   2.286  3.6531  0.0688  0.8945
 7561SOL     OW27493   7.262   0.095   6.656 -0.0513  0.7668  0.6576
 7561SOL    HW127494   7.308   0.057   6.581  0.7249  1.9611  0.4899
 7561SOL    HW227495   7.169   0.086   6.635 -0.0443 -2.6387  1.4620
 7562SOL     OW27496   9.296  10.073   8.631  0.3750  0.2558 -0.1844
 7562SOL    HW127497   9.379  10.026   8.624 -0.5462 -1.3997 -0.5464
 7562SOL    HW227498   9.244  10.040   8.558 -0.5542  1.3989 -0.0629
 7563SOL     OW27499   8.531   9.616   0.514  0.5329  0.2006  0.3146
 7563SOL    HW127500   8.566   9.699   0.480  0.6791 -0.4960 -1.3571
 7563SOL    HW227501   8.575   9.603   0.597  1.1561  1.3794  0.1843
 7564SOL     OW27502   1.236   6.100   7.810 -0.2648 -0.0783 -0.1873
 7564SOL    HW127503   1.183   6.170   7.847 -1.0382 -1.6600  1.8676
 7564SOL    HW227504   1.228   6.112   7.715 -2.1501  1.2947  0.0877
 7565SOL     OW27505   4.039   4.419   0.450 -0.1862 -0.6915 -0.1704
 7565SOL    HW127506   4.132   4.444   0.451 -0.5714  1.0222 -1.8264
 7565SOL    HW227507   3.995   4.488   0.499 -0.9161  0.3877 -2.2163
 7566SOL     OW27508   2.051  10.715   1.821  0.0540 -0.1855  0.0789
 7566SOL    HW127509   2.095  10.730   1.737  0.1698  0.8471  0.3045
 7566SOL    HW227510   2.000  10.635   1.808  0.6320 -0.4276 -0.7459
 7567SOL     OW27511   8.459  11.657   6.296 -0.0163 -0.1190 -0.1144
 7567SOL    HW127512   8.471  11.569   6.260  0.6074  0.2055 -0.7185
 7567SOL    HW227513   8.493  11.652   6.386 -2.2174 -1.1160  0.7554
 7568SOL     OW27514   6.697   2.607   1.548  0.2117 -0.1219 -0.0787
 7568SOL    HW127515   6.626   2.637   1.491 -1.2403  0.1963  1.8126
 7568SOL    HW227516   6.709   2.515   1.525 -0.1256  0.0809 -1.0990
 7569SOL     OW27517   6.348   2.398   9.216 -0.0799 -0.0556 -0.4594
 7569SOL    HW127518   6.336   2.343   9.138 -1.8931  0.3380 -0.4913
 7569SOL    HW227519   6.316   2.484   9.189  1.4725  0.7066  0.0184
 7570SOL     OW27520   5.694   4.761   2.968 -0.2163 -0.3724 -0.2798
 7570SOL    HW127521   5.641   4.687   2.940  0.7237 -1.0723 -0.2558
 7570SOL    HW227522   5.774   4.722   3.003 -0.1226  0.6128  0.6683
 7571SOL     OW27523   0.795   9.814   9.559 -0.4659 -0.3130 -0.3476
 7571SOL    HW127524   0.855   9.870   9.511  1.6886 -2.8405 -0.8343
 7571SOL    HW227525   0.843   9.791   9.639 -2.5514  0.9205  1.3929
 7572SOL     OW27526  12.477   1.766  11.386 -0.0605 -0.1873 -0.0688
 7572SOL    HW127527  12.429   1.784  11.468  0.0151  0.7453 -0.2133
 7572SOL    HW227528  12.498   1.673  11.390  1.5111  0.1759  1.8415
 7573SOL     OW27529   8.310   9.227   4.656 -0.8534 -0.2653 -0.4388
 7573SOL    HW127530   8.405   9.241   4.657 -0.8735  0.1934 -2.1124
 7573SOL    HW227531   8.272   9.315   4.651 -1.4706 -0.3365  1.8626
 7574SOL     OW27532   1.953  11.268  11.526 -0.7613 -0.4181  0.5913
 7574SOL    HW127533   1.917  11.186  11.558  1.1595 -0.8843  1.7203
 7574SOL    HW227534   1.925  11.334  11.590  1.8822 -1.1121  2.6233
 7575SOL     OW27535   3.509   6.250   1.823  0.3373  0.1423 -0.2289
 7575SOL    HW127536   3.471   6.334   1.796 -1.5352 -1.2436 -2.2482
 7575SOL    HW227537   3.580   6.235   1.760 -0.0823 -0.2780 -0.6156
 7576SOL     OW27538   7.538  11.188   6.578 -0.1426  0.3160 -0.4978
 7576SOL    HW127539   7.543  11.267   6.633 -1.3876 -0.0197  0.1422
 7576SOL    HW227540   7.568  11.217   6.492  0.6174  1.1735  0.0380
 7577SOL     OW27541   9.070   8.116  11.625  0.7451  0.3978  0.2128
 7577SOL    HW127542   9.107   8.027  11.624  2.1510  0.9663 -0.4784
 7577SOL    HW227543   9.105   8.157  11.546 -1.7500  0.8481 -0.7451
 7578SOL     OW27544  10.927  10.219   1.872 -1.1226  0.1279 -0.1106
 7578SOL    HW127545  10.850  10.188   1.824 -0.2832 -0.4650 -1.1240
 7578SOL    HW227546  10.988  10.247   1.803 -0.4085  0.5292  0.6718
 7579SOL     OW27547   3.880   4.642   1.433 -0.4978 -0.0081 -0.7899
 7579SOL    HW127548   3.939   4.621   1.506 -2.1613  0.7083  0.8520
 7579SOL    HW227549   3.878   4.737   1.431  0.1140 -0.0043 -2.3251
 7580SOL     OW27550  11.881   3.515   5.106  0.6401 -0.5808 -0.2713
 7580SOL    HW127551  11.920   3.506   5.019 -0.1609 -2.0515 -0.5048
 7580SOL    HW227552  11.841   3.602   5.105  0.8091 -0.4999 -1.2948
 7581SOL     OW27553  12.616   8.052   9.834  0.1703  0.5031 -0.5062
 7581SOL    HW127554  12.649   7.985   9.775  0.7522  1.0158 -0.7741
 7581SOL    HW227555  12.534   8.082   9.794  0.5117  0.7789 -1.0054
 7582SOL     OW27556  10.019   5.411   4.861  0.1571  0.2169 -0.1607
 7582SOL    HW127557  10.039   5.323   4.894 -4.6829 -1.6593 -1.4313
 7582SOL    HW227558   9.987   5.458   4.937  1.7300  0.6173  0.2988
 7583SOL     OW27559  11.172   8.851   8.372  0.2565  0.3175  0.2034
 7583SOL    HW127560  11.249   8.872   8.320 -0.3540 -0.6730 -1.1695
 7583SOL    HW227561  11.110   8.922   8.354 -0.1285 -0.2592 -0.8410
 7584SOL     OW27562   6.564   1.214   6.952 -0.1053  0.0627  0.3032
 7584SOL    HW127563   6.539   1.301   6.983  0.5672  0.5069 -0.3450
 7584SOL    HW227564   6.486   1.160   6.965 -0.6358  0.8427  0.4292
 7585SOL     OW27565   2.411   9.354   5.158 -0.1906 -0.0654 -0.0609
 7585SOL    HW127566   2.337   9.384   5.105 -0.5102 -0.4114  0.1853
 7585SOL    HW227567   2.409   9.410   5.235  0.3274  0.4961 -0.4462
 7586SOL     OW27568   5.636   5.926   6.797 -0.1974  0.5296 -0.0715
 7586SOL    HW127569   5.702   5.857   6.794 -3.2635 -2.6258 -0.8291
 7586SOL    HW227570   5.642   5.962   6.886  2.0591 -0.0098  0.0576
 7587SOL     OW27571   3.470  12.473   3.830  0.3353 -0.5882  0.1934
 7587SOL    HW127572   3.447  12.444   3.918  1.4066  2.5668  1.6723
 7587SOL    HW227573   3.390  12.462   3.779 -1.3904  0.5244  2.4470
 7588SOL     OW27574   2.273   4.241   8.507  0.1074 -0.7466 -0.0820
 7588SOL    HW127575   2.364   4.226   8.535 -0.2239  0.7179  1.9703
 7588SOL    HW227576   2.279   4.310   8.441  0.3237  2.1772  2.7440
 7589SOL     OW27577   6.413   6.445  11.299  0.0372  0.1491 -0.4018
 7589SOL    HW127578   6.495   6.416  11.339 -0.9371 -0.4904  1.2183
 7589SOL    HW227579   6.379   6.368  11.254 -0.0157  0.2332 -0.5071
 7590SOL     OW27580  10.378   8.854   2.125  0.0272 -0.0767 -0.2855
 7590SOL    HW127581  10.373   8.800   2.204  0.2540  0.4894  0.1268
 7590SOL    HW227582  10.287   8.873   2.103 -0.0494 -0.5669 -0.3951
 7591SOL     OW27583   9.425   2.771   1.829  0.3453  0.0812 -0.1044
 7591SOL    HW127584   9.375   2.845   1.796 -0.3759 -0.8045 -1.1088
 7591SOL    HW227585   9.505   2.809   1.863  0.3636  1.2501 -1.3543
 7592SOL     OW27586   6.202   3.551  11.707  0.0945  0.3649 -0.5582
 7592SOL    HW127587   6.254   3.604  11.768  0.5816  0.4268 -1.0206
 7592SOL    HW227588   6.244   3.465  11.708 -0.5701  0.0313  0.0321
 7593SOL     OW27589  10.917   6.541   9.628  0.5080  0.6133 -0.8717
 7593SOL    HW127590  10.983   6.606   9.653  0.0306  0.1959  1.7327
 7593SOL    HW227591  10.836   6.592   9.619  0.3286  0.5436  0.2284
 7594SOL     OW27592   7.038   3.233   8.743 -0.2975 -0.7886 -0.4416
 7594SOL    HW127593   6.987   3.199   8.670 -2.3340 -0.2002  0.6230
 7594SOL    HW227594   6.973   3.256   8.809  1.3909 -0.2434  1.1255
 7595SOL     OW27595  10.649   9.474   7.218  0.1986  0.4124 -0.4886
 7595SOL    HW127596  10.732   9.519   7.201  1.6097 -1.3352  1.2153
 7595SOL    HW227597  10.664   9.430   7.302 -2.6363  0.3666  0.0728
 7596SOL     OW27598  12.111   3.370   0.253  0.5040 -0.1969  0.2499
 7596SOL    HW127599  12.054   3.433   0.208 -0.6006  0.0693  1.9298
 7596SOL    HW227600  12.124   3.300   0.189  1.7352  1.6596 -1.6530
 7597SOL     OW27601   4.596   2.757   6.563 -0.0685  0.2605 -0.1435
 7597SOL    HW127602   4.663   2.824   6.548 -1.6854  1.7990 -0.7165
 7597SOL    HW227603   4.569   2.770   6.654 -1.1926  1.1830 -0.5907
 7598SOL     OW27604  10.544   8.344   5.294  0.4905 -0.5456 -0.0168
 7598SOL    HW127605  10.564   8.302   5.211  1.2592  0.6748 -0.4583
 7598SOL    HW227606  10.455   8.378   5.283  0.1923 -1.2709  0.0470
 7599SOL     OW27607  10.404   7.811   8.504 -0.1857 -0.0741 -0.2485
 7599SOL    HW127608  10.380   7.789   8.594  0.5049  1.1099  0.2572
 7599SOL    HW227609  10.498   7.795   8.500 -0.3769 -1.1075 -1.0878
 7600SOL     OW27610  11.135   1.701   6.137  0.9820  0.5835 -0.5614
 7600SOL    HW127611  11.059   1.750   6.104  1.5575  0.5939 -1.9371
 7600SOL    HW227612  11.098   1.616   6.164  0.2024  1.2442  0.5487
 7601SOL     OW27613   6.595  12.585   8.064  0.1082 -0.1712  0.9022
 7601SOL    HW127614   6.673  12.563   8.012 -0.1686  0.9055 -0.0076
 7601SOL    HW227615   6.522  12.563   8.007 -0.1889  1.7396  0.4996
 7602SOL     OW27616   4.069   8.112   0.746  0.5198  0.5025 -0.1784
 7602SOL    HW127617   4.017   8.190   0.732 -2.8148 -1.5716 -0.4541
 7602SOL    HW227618   4.049   8.056   0.671  1.8698 -1.0811  0.5651
 7603SOL     OW27619   6.537   3.995   6.070  0.2011  0.4109  0.7842
 7603SOL    HW127620   6.511   3.955   5.987 -0.7458 -1.2348  1.8179
 7603SOL    HW227621   6.612   3.944   6.099 -0.0906  0.3299  1.4109
 7604SOL     OW27622  12.297   4.785   0.215  0.0658  0.0479 -0.1141
 7604SOL    HW127623  12.243   4.833   0.278  1.0329 -0.7648  1.3917
 7604SOL    HW227624  12.364   4.848   0.188  0.0317  0.2124  0.1760
 7605SOL     OW27625  11.506   5.534   2.263  0.0319 -0.0465 -0.2823
 7605SOL    HW127626  11.471   5.617   2.231  0.0763 -0.3519 -1.1453
 7605SOL    HW227627  11.595   5.556   2.291 -0.9213  0.8442  2.4088
 7606SOL     OW27628   9.130   1.340   2.744  0.6001  0.2350 -0.0608
 7606SOL    HW127629   9.124   1.324   2.839 -1.7301 -0.7241 -0.3136
 7606SOL    HW227630   9.107   1.256   2.704  0.8722  0.8221 -1.4875
 7607SOL     OW27631  11.876  11.577   9.950  1.0559  0.1542 -0.2383
 7607SOL    HW127632  11.962  11.596   9.987  0.7181  0.5452  0.3700
 7607SOL    HW227633  11.856  11.653   9.895  1.4574 -0.3219 -1.0468
 7608SOL     OW27634  12.497  10.668   5.575 -0.1272 -0.5748  0.1673
 7608SOL    HW127635  12.404  10.658   5.597 -0.0419 -1.1468  0.2822
 7608SOL    HW227636  12.498  10.738   5.510 -0.4061  1.0101  1.8053
 7609SOL     OW27637   1.054   0.114   9.884 -0.6187  0.2419 -0.3591
 7609SOL    HW127638   1.057   0.164   9.965  4.5630  0.5499 -0.3930
 7609SOL    HW227639   1.087   0.028   9.908  1.4004  0.4633 -2.1104
 7610SOL     OW27640   5.568  11.941   7.920  0.0222  0.0139  0.1395
 7610SOL    HW127641   5.557  11.846   7.926 -0.7406  0.1672  1.6680
 7610SOL    HW227642   5.516  11.976   7.992 -0.1216  1.6399 -0.7098
 7611SOL     OW27643   1.074  11.423  10.008  0.6937 -0.4984 -0.4611
 7611SOL    HW127644   0.990  11.423   9.962  1.4300 -1.1740 -1.8691
 7611SOL    HW227645   1.135  11.384   9.946  2.3269  1.0925  0.0652
 7612SOL     OW27646   7.755   5.722  11.234 -0.2581  0.5553  0.0450
 7612SOL    HW127647   7.737   5.767  11.316  0.5782  1.9305 -0.4985
 7612SOL    HW227648   7.669   5.698  11.200 -0.7369  1.9200  0.2555
 7613SOL     OW27649   0.245   5.235   1.595 -0.2613  0.6995 -0.5299
 7613SOL    HW127650   0.293   5.157   1.568 -1.7077 -0.4188 -0.0129
 7613SOL    HW227651   0.232   5.285   1.514 -0.1796 -0.0945 -1.0409
 7614SOL     OW27652   3.818   0.336   7.573 -0.1586  0.5053 -0.0025
 7614SOL    HW127653   3.801   0.242   7.569  0.4915  0.4234 -1.3984
 7614SOL    HW227654   3.911   0.343   7.593  0.2216  0.7988 -1.7218
 7615SOL     OW27655  12.383   7.759   7.614  0.2490 -0.1818 -0.1867
 7615SOL    HW127656  12.436   7.765   7.694 -2.4102 -1.3258  1.8307
 7615SOL    HW227657  12.398   7.670   7.582 -0.8481 -0.7546  0.7864
 7616SOL     OW27658   4.758   2.645   8.007  0.3066  0.7639 -0.1569
 7616SOL    HW127659   4.786   2.711   7.944 -0.6346  2.4046  1.0494
 7616SOL    HW227660   4.835   2.590   8.020  1.2500  1.8464 -0.9200
 7617SOL     OW27661  10.358   2.849  12.059 -0.4816 -0.3872 -0.0186
 7617SOL    HW127662  10.327   2.759  12.072 -0.1684 -0.5791 -0.5770
 7617SOL    HW227663  10.450   2.848  12.085 -0.9625  0.2465  1.8903
 7618SOL     OW27664   8.470  12.014   4.784 -0.2857  0.7911  0.4161
 7618SOL    HW127665   8.426  12.060   4.712 -1.1021  0.7169  0.8567
 7618SOL    HW227666   8.560  12.002   4.753 -0.7828  0.1690 -0.8804
 7619SOL     OW27667  10.731   4.108   4.502 -0.5319 -1.0110  0.2664
 7619SOL    HW127668  10.637   4.112   4.487 -0.6008 -0.8060  0.7295
 7619SOL    HW227669  10.746   4.020   4.536 -0.5026 -1.1707 -0.1602
 7620SOL     OW27670   1.266   5.700  11.110 -0.4307  0.0579  0.1010
 7620SOL    HW127671   1.205   5.715  11.037  1.4968 -0.5175 -1.7108
 7620SOL    HW227672   1.305   5.614  11.092  3.9051  2.0253 -1.2037
 7621SOL     OW27673  12.329   8.521   0.470  0.6815 -0.4099 -0.0982
 7621SOL    HW127674  12.409   8.567   0.446  1.7633 -2.5063 -0.7297
 7621SOL    HW227675  12.358   8.434   0.497 -1.2725 -0.7822  1.0058
 7622SOL     OW27676  11.926   8.884   4.003 -0.6636  0.5746 -0.1561
 7622SOL    HW127677  11.939   8.820   4.072  0.6744  0.6989 -0.2626
 7622SOL    HW227678  11.915   8.967   4.049  0.9261  0.7719 -0.0697
 7623SOL     OW27679   6.304   0.248   7.536  0.2310 -0.1273 -0.1721
 7623SOL    HW127680   6.301   0.340   7.563  3.4390  0.5422 -1.5781
 7623SOL    HW227681   6.383   0.214   7.579 -0.7225 -2.1552  0.0462
 7624SOL     OW27682  12.617   0.452   7.386  0.0094 -0.1072 -0.0101
 7624SOL    HW127683  12.588   0.514   7.452  0.5720 -0.9329  1.0302
 7624SOL    HW227684  12.605   0.366   7.426 -1.8860 -0.7892 -1.8553
 7625SOL     OW27685   9.344   3.436  10.830 -0.2982 -0.7034 -0.1754
 7625SOL    HW127686   9.365   3.520  10.789 -2.2992  0.1709  0.4648
 7625SOL    HW227687   9.386   3.370  10.775  1.2436  0.6989 -0.7422
 7626SOL     OW27688   3.262   0.918   6.309 -0.3059 -0.0857 -0.2321
 7626SOL    HW127689   3.231   0.839   6.351  0.6228 -0.4322 -0.1779
 7626SOL    HW227690   3.357   0.916   6.320  0.0196 -0.3202 -2.5322
 7627SOL     OW27691  12.582   6.839   5.780  0.1880  0.1239  0.4506
 7627SOL    HW127692  12.613   6.794   5.701 -1.5884 -0.2877 -0.0404
 7627SOL    HW227693  12.534   6.915   5.747  0.2495  0.4832  1.1803
 7628SOL     OW27694   9.814   1.156  10.719  0.3651  0.0457 -0.3386
 7628SOL    HW127695   9.828   1.194  10.805  2.1689 -1.4412  0.1114
 7628SOL    HW227696   9.878   1.200  10.663 -1.2098  1.4459 -1.1255
 7629SOL     OW27697  12.610   3.161   0.423 -0.0425 -0.2297  0.1132
 7629SOL    HW127698  12.645   3.193   0.506  0.2431 -3.0877  1.1954
 7629SOL    HW227699  12.532   3.111   0.447  0.0123 -1.0763 -1.3235
 7630SOL     OW27700   7.313   9.133   4.199 -0.3300 -0.0076  0.8280
 7630SOL    HW127701   7.305   9.084   4.117 -0.7472 -0.9539  1.4229
 7630SOL    HW227702   7.283   9.221   4.177  0.6378  0.0605 -0.3146
 7631SOL     OW27703  12.105   7.704   4.332  0.0470 -0.5773  0.2223
 7631SOL    HW127704  12.179   7.675   4.278  1.0038 -0.0419  1.2046
 7631SOL    HW227705  12.130   7.791   4.362 -0.8975 -0.4727  0.7380
 7632SOL     OW27706   8.629   3.364   2.451 -0.1972 -0.3541  0.2399
 7632SOL    HW127707   8.580   3.371   2.370 -0.8868  1.2907  0.7448
 7632SOL    HW227708   8.571   3.401   2.518  1.2005  0.4430  1.0757
 7633SOL     OW27709  10.536   4.245   9.464 -0.0672  0.2308 -0.0315
 7633SOL    HW127710  10.562   4.298   9.540  0.7731  0.1049 -0.2185
 7633SOL    HW227711  10.565   4.156   9.486  0.8646  0.3229 -0.7963
 7634SOL     OW27712   4.333   4.286  11.918 -0.0072 -0.1925 -0.0951
 7634SOL    HW127713   4.333   4.373  11.957  1.3230 -0.1719 -0.0951
 7634SOL    HW227714   4.399   4.290  11.849 -0.2108 -1.0915 -0.3603
 7635SOL     OW27715   7.196   2.042   4.095 -0.0675  0.9026 -0.3854
 7635SOL    HW127716   7.284   2.006   4.082 -0.6472 -0.8902  0.2932
 7635SOL    HW227717   7.138   1.974   4.060 -1.2461  0.8294  1.5938
 7636SOL     OW27718   5.164   6.924  11.201  0.3308  0.2010  0.0026
 7636SOL    HW127719   5.130   6.846  11.157  1.1283  0.2987 -0.7996
 7636SOL    HW227720   5.147   6.996  11.139  2.4912  0.1737 -0.7089
 7637SOL     OW27721   6.984   5.075   9.786  0.1501  0.5349  0.5377
 7637SOL    HW127722   6.957   5.050   9.698 -1.2480 -0.6961  1.2613
 7637SOL    HW227723   6.954   5.165   9.796 -0.3054  0.4504 -0.0163
 7638SOL     OW27724   7.784   9.306   8.682 -0.4488 -0.2197  0.0887
 7638SOL    HW127725   7.860   9.247   8.684 -1.4622 -1.5939 -0.5697
 7638SOL    HW227726   7.771   9.330   8.773  0.4284 -0.4182  0.2827
 7639SOL     OW27727  11.717   4.418  11.062 -0.1520 -0.2316 -0.3484
 7639SOL    HW127728  11.658   4.343  11.057 -3.1986  1.9416  0.5215
 7639SOL    HW227729  11.672   4.488  11.016  1.0698  1.9379  1.5550
 7640SOL     OW27730   4.158   7.899   6.994 -0.5982 -0.1817  0.2107
 7640SOL    HW127731   4.125   7.893   7.083  0.3879 -0.7235  0.5494
 7640SOL    HW227732   4.243   7.942   7.002 -0.4760 -0.2861 -0.4626
 7641SOL     OW27733   7.627   4.317   4.274  0.1495  0.4328  0.2457
 7641SOL    HW127734   7.650   4.239   4.324 -1.0209  0.8375  1.4694
 7641SOL    HW227735   7.551   4.353   4.319 -2.2174 -0.2231 -2.8789
 7642SOL     OW27736  11.564   7.007   0.216  0.0230  0.1417  0.3583
 7642SOL    HW127737  11.571   7.036   0.307  0.4502 -2.0162  1.0494
 7642SOL    HW227738  11.478   7.039   0.188  0.7177  2.6034  0.8042
 7643SOL     OW27739   3.170   3.065   3.480  0.5012 -0.1733  0.2891
 7643SOL    HW127740   3.229   3.078   3.406  1.4677  0.6843  1.1661
 7643SOL    HW227741   3.105   3.003   3.448  1.5793 -0.7594 -0.8879
 7644SOL     OW27742   2.406  12.378   3.383 -0.1056 -0.2657  0.5757
 7644SOL    HW127743   2.379  12.287   3.370 -4.1905  0.7650  0.4885
 7644SOL    HW227744   2.348  12.411   3.452  1.1851  2.3049  0.5592
 7645SOL     OW27745   0.210   2.209   9.523  0.0042  0.2655 -0.3216
 7645SOL    HW127746   0.284   2.247   9.571 -0.8204  1.9625 -0.3282
 7645SOL    HW227747   0.239   2.210   9.432  0.0494  0.7649 -0.3054
 7646SOL     OW27748   4.047   5.814   9.475 -0.2372 -0.2925  0.0132
 7646SOL    HW127749   3.983   5.789   9.409  0.1721  0.3802 -0.6519
 7646SOL    HW227750   4.100   5.882   9.433  1.0321 -0.9618  0.4649
 7647SOL     OW27751  11.511   0.337   8.056  0.2286 -0.3049 -0.6108
 7647SOL    HW127752  11.576   0.392   8.100  0.9662 -0.7565 -1.1122
 7647SOL    HW227753  11.563   0.275   8.005 -0.6020 -0.4841 -1.2582
 7648SOL     OW27754   8.126   5.013   4.638 -0.1919  0.0922 -0.0225
 7648SOL    HW127755   8.137   4.921   4.614 -0.5725  0.7813 -3.2272
 7648SOL    HW227756   8.215   5.046   4.649  0.1854  0.1638 -2.6704
 7649SOL     OW27757   1.981   4.551   4.159 -0.2280 -0.1474 -0.0077
 7649SOL    HW127758   2.030   4.530   4.238 -3.1388  0.5508  2.1464
 7649SOL    HW227759   1.991   4.473   4.104  2.6855 -0.2597  0.5124
 7650SOL     OW27760  10.942   7.708   6.036  0.1168 -0.2339 -0.2497
 7650SOL    HW127761  11.018   7.677   6.085  0.7180  0.1347 -0.9440
 7650SOL    HW227762  10.893   7.761   6.099 -0.0783 -1.2423  0.4760
 7651SOL     OW27763  10.226   5.567   7.501  0.1458 -0.9294  0.1561
 7651SOL    HW127764  10.244   5.477   7.526 -2.1460 -1.7143 -0.7834
 7651SOL    HW227765  10.258   5.575   7.411  0.5541 -0.7113  0.3155
 7652SOL     OW27766   4.761  11.593   6.277 -0.2370  0.1107 -0.4110
 7652SOL    HW127767   4.675  11.606   6.316 -0.8535  0.8257 -1.9382
 7652SOL    HW227768   4.744  11.549   6.194  1.0400 -1.3274  0.0256
 7653SOL     OW27769   6.795   5.608   6.563 -0.1689 -0.2677 -0.0280
 7653SOL    HW127770   6.771   5.561   6.643  1.4865  0.0525  0.7086
 7653SOL    HW227771   6.805   5.540   6.497  0.0639 -0.7272  0.4706
 7654SOL     OW27772   2.338  12.547   4.714 -0.3982 -0.4896 -1.0012
 7654SOL    HW127773   2.376  12.518   4.631  0.0663 -0.5446 -0.7713
 7654SOL    HW227774   2.246  12.565   4.693 -0.1085  0.2464 -1.7010
 7655SOL     OW27775   8.123  10.845   9.402 -0.2225  0.4464  0.4041
 7655SOL    HW127776   8.173  10.915   9.445 -1.1182  0.5028  1.4082
 7655SOL    HW227777   8.091  10.885   9.321  2.5127 -0.0336 -1.0151
 7656SOL     OW27778   3.391   5.882   9.364  0.0760  0.0767  0.8564
 7656SOL    HW127779   3.350   5.798   9.384  0.2009 -0.7467 -1.8690
 7656SOL    HW227780   3.365   5.900   9.274  1.1005  2.3575  0.9432
 7657SOL     OW27781   7.644  11.359   8.491 -0.3453 -0.0463  0.2844
 7657SOL    HW127782   7.627  11.407   8.410  0.1258 -0.0239  0.2017
 7657SOL    HW227783   7.626  11.268   8.470 -1.4474  0.0980  0.4948
 7658SOL     OW27784  12.489   5.919   9.244 -0.1778 -0.0747 -0.1589
 7658SOL    HW127785  12.575   5.961   9.236 -0.6508  0.9173 -0.2487
 7658SOL    HW227786  12.474   5.879   9.158  0.8879 -1.6830  0.3689
 7659SOL     OW27787   7.349  12.222   8.248  0.1252  0.3079 -0.4088
 7659SOL    HW127788   7.392  12.224   8.162  1.2685  1.3088  0.1635
 7659SOL    HW227789   7.421  12.215   8.311 -0.6849 -0.0661  0.4943
 7660SOL     OW27790   9.435   3.957   8.248 -0.5962  0.1778  0.1030
 7660SOL    HW127791   9.410   4.031   8.302 -1.3191 -0.4714  0.6898
 7660SOL    HW227792   9.494   3.905   8.304 -0.2796  0.1876 -0.2162
 7661SOL     OW27793  10.996   4.068   2.601 -0.7301 -0.0268 -0.0552
 7661SOL    HW127794  10.923   4.121   2.633  1.6026  1.2633  3.8345
 7661SOL    HW227795  11.069   4.130   2.593  1.0335 -1.8938  0.5893
 7662SOL     OW27796   3.757  11.659  11.341  0.0514  0.1846 -0.2041
 7662SOL    HW127797   3.795  11.609  11.269 -1.0204  1.5078 -1.7585
 7662SOL    HW227798   3.809  11.740  11.344  1.5879 -0.7796  2.0922
 7663SOL     OW27799   4.228  11.481   4.977 -0.0389 -0.3086  0.7969
 7663SOL    HW127800   4.208  11.388   4.989  0.0455 -0.4715 -0.2437
 7663SOL    HW227801   4.165  11.527   5.033  0.1681 -0.9998  1.6124
 7664SOL     OW27802   8.659   9.044   0.110 -0.3749 -0.1458 -0.8263
 7664SOL    HW127803   8.591   9.069   0.173 -0.2384  0.1169 -0.7830
 7664SOL    HW227804   8.662   9.117   0.048  0.5638  0.3077 -0.2627
 7665SOL     OW27805   5.770   9.861   3.254 -0.0297  0.4211  0.3502
 7665SOL    HW127806   5.795   9.771   3.273 -0.5881 -0.0089 -0.8100
 7665SOL    HW227807   5.683   9.870   3.293 -1.7882 -0.8983 -2.8564
 7666SOL     OW27808   2.948   3.297  11.574  0.5617 -0.3777 -0.0104
 7666SOL    HW127809   2.925   3.307  11.482  1.4820 -0.9074 -0.3064
 7666SOL    HW227810   2.920   3.379  11.615  3.3907  1.4284 -1.4071
 7667SOL     OW27811   7.004   4.785   6.001  0.1029  0.2069  0.0459
 7667SOL    HW127812   6.980   4.716   5.939 -0.0371 -0.4806  0.8359
 7667SOL    HW227813   7.059   4.741   6.065 -0.1792  0.7812  0.6957
 7668SOL     OW27814   6.484   2.112  12.561 -0.0706  0.4056 -0.1685
 7668SOL    HW127815   6.450   2.044  12.619  0.8802 -0.6400 -0.8051
 7668SOL    HW227816   6.514   2.181  12.621 -0.9485  0.2363  0.4876
 7669SOL     OW27817   2.761   3.074   2.480  0.1531 -0.3218  0.3079
 7669SOL    HW127818   2.760   3.148   2.542 -0.6372  0.6590 -0.8324
 7669SOL    HW227819   2.728   3.111   2.398  0.7718 -1.6966 -0.5962
 7670SOL     OW27820   2.482   4.663  12.077  0.2189  0.4781 -0.0371
 7670SOL    HW127821   2.572   4.665  12.045 -0.0456 -0.1992 -0.8733
 7670SOL    HW227822   2.484   4.712  12.159  1.3662  0.3895  0.0005
 7671SOL     OW27823   5.846   3.466   9.670 -0.3781 -0.4788  0.3167
 7671SOL    HW127824   5.850   3.373   9.694  2.5640 -0.1915  1.4080
 7671SOL    HW227825   5.934   3.486   9.638 -0.4775  2.2326  1.4529
 7672SOL     OW27826   2.888   0.331   6.079 -0.1127  0.4680 -0.4303
 7672SOL    HW127827   2.948   0.389   6.033  0.5019 -0.9838 -1.5551
 7672SOL    HW227828   2.910   0.341   6.172  1.6947  0.1668 -0.8049
 7673SOL     OW27829   0.051   5.703   3.831  0.0747  0.5166 -0.6617
 7673SOL    HW127830   0.052   5.668   3.920  0.1704 -1.3799 -1.3664
 7673SOL    HW227831  -0.041   5.722   3.814  0.0884  1.1380 -0.0800
 7674SOL     OW27832   4.875   2.708   1.831 -0.5333 -0.0447 -0.1082
 7674SOL    HW127833   4.836   2.621   1.820 -0.8796  0.3653 -3.1271
 7674SOL    HW227834   4.852   2.754   1.750 -0.0205  2.7442  1.2303
 7675SOL     OW27835   9.070   3.073   8.149  0.0329 -0.2359  0.7803
 7675SOL    HW127836   9.087   3.012   8.076  0.3334 -0.4991  1.0631
 7675SOL    HW227837   9.112   3.031   8.225  0.9555  0.7073  0.8231
 7676SOL     OW27838   5.743   8.273   9.321  0.5008 -0.1726 -0.4372
 7676SOL    HW127839   5.721   8.224   9.400 -1.1590  0.3718 -0.5227
 7676SOL    HW227840   5.774   8.358   9.353  0.7075 -0.2781 -0.3555
 7677SOL     OW27841   8.023   2.824   3.140 -0.4421 -0.4080 -0.4900
 7677SOL    HW127842   8.062   2.760   3.199  0.5499 -0.5638 -1.2966
 7677SOL    HW227843   7.950   2.777   3.099 -1.4938 -0.1341  0.9621
 7678SOL     OW27844   0.822  11.034   6.498  0.3454  0.1859 -0.1227
 7678SOL    HW127845   0.756  10.965   6.488  0.2110  0.0954  1.2348
 7678SOL    HW227846   0.875  11.028   6.418  0.0842 -1.2281 -0.2181
 7679SOL     OW27847   6.902   9.417   8.766  0.1726 -0.6170 -0.2119
 7679SOL    HW127848   6.953   9.410   8.847 -1.1579  1.2507  0.8772
 7679SOL    HW227849   6.968   9.427   8.697  1.3877  1.8536  1.1608
 7680SOL     OW27850   7.843  12.584   5.275  0.4779  0.3010  0.1798
 7680SOL    HW127851   7.910  12.540   5.221 -1.1631 -0.2913 -1.4817
 7680SOL    HW227852   7.822  12.520   5.343 -0.2725 -0.6191 -0.8828
 7681SOL     OW27853  12.269   0.443  11.918 -0.2217  0.3171 -0.1142
 7681SOL    HW127854  12.228   0.465  12.002 -1.2039 -2.4461  0.2397
 7681SOL    HW227855  12.355   0.484  11.922 -0.6081  1.0518  1.8496
 7682SOL     OW27856   4.620   0.350  10.775  0.1141 -0.1278 -0.3056
 7682SOL    HW127857   4.621   0.254  10.781 -0.4709 -0.1641 -0.7416
 7682SOL    HW227858   4.609   0.368  10.681 -0.4139  0.3650 -0.1508
 7683SOL     OW27859   5.759   0.907   3.960  0.1673  0.3942 -0.7222
 7683SOL    HW127860   5.699   0.980   3.944 -0.0759  0.4736  0.4863
 7683SOL    HW227861   5.846   0.946   3.953  0.1019  0.3432 -2.1614
 7684SOL     OW27862   0.430   8.408   0.658  0.0797  0.2095  0.5983
 7684SOL    HW127863   0.402   8.333   0.605 -1.0469  0.9721  0.0621
 7684SOL    HW227864   0.413   8.484   0.602  2.9676  0.7994  0.3601
 7685SOL     OW27865   5.474  11.927   4.255  0.4534 -0.0990 -0.3716
 7685SOL    HW127866   5.485  11.834   4.273 -1.4448 -0.1681  0.7457
 7685SOL    HW227867   5.562  11.959   4.239  1.2387 -1.9198  0.0489
 7686SOL     OW27868   4.014   9.886   2.409 -0.3866 -0.1703 -0.0850
 7686SOL    HW127869   3.942   9.848   2.360 -0.4086 -0.3963  0.1195
 7686SOL    HW227870   4.092   9.841   2.376 -0.1992  0.8845 -1.1207
 7687SOL     OW27871   8.837   3.322   6.486 -0.4098  0.1449  0.0830
 7687SOL    HW127872   8.850   3.250   6.548  1.7633 -0.2026 -0.7012
 7687SOL    HW227873   8.885   3.295   6.407  0.6060  2.4851 -0.1783
 7688SOL     OW27874   0.268  11.161   2.072  0.0868 -0.1273 -0.3542
 7688SOL    HW127875   0.232  11.072   2.063  0.6573 -0.5129  0.8682
 7688SOL    HW227876   0.205  11.217   2.028 -1.1484 -0.9611  0.3023
 7689SOL     OW27877   8.661   5.338  10.666 -0.8029  0.1990 -0.4253
 7689SOL    HW127878   8.693   5.408  10.723 -0.1041  0.4950 -1.1440
 7689SOL    HW227879   8.628   5.385  10.589 -0.4192 -0.2539 -0.8708
 7690SOL     OW27880   5.232  10.321   8.342 -0.3521  0.6204 -0.2636
 7690SOL    HW127881   5.266  10.234   8.319 -1.5697  0.0097  0.1497
 7690SOL    HW227882   5.137  10.311   8.339 -0.5236  2.2268 -1.2052
 7691SOL     OW27883  10.123   8.117  11.731 -0.2039 -0.7972 -0.8892
 7691SOL    HW127884  10.176   8.104  11.653  1.6434 -0.6951  0.2677
 7691SOL    HW227885  10.039   8.150  11.699  1.0784  0.9177 -2.7088
 7692SOL     OW27886   2.211   8.202   6.544 -0.6296 -0.7869  0.2829
 7692SOL    HW127887   2.144   8.144   6.580 -0.3628 -1.3239 -0.0799
 7692SOL    HW227888   2.292   8.177   6.590 -0.4508 -0.9237 -0.0992
 7693SOL     OW27889   4.072  11.145   8.532 -0.1800 -0.5766 -0.0766
 7693SOL    HW127890   4.143  11.129   8.469 -0.0873 -1.8489  0.3166
 7693SOL    HW227891   4.107  11.114   8.616 -0.3625  0.9639  0.5955
 7694SOL     OW27892  10.704   3.553   0.786  0.1937 -0.4606 -0.5423
 7694SOL    HW127893  10.699   3.644   0.818 -0.1661 -0.3037 -1.0289
 7694SOL    HW227894  10.650   3.504   0.847 -0.3766 -0.1851 -0.8143
 7695SOL     OW27895   7.997   5.519   8.488 -0.1636 -0.0865  0.6637
 7695SOL    HW127896   8.050   5.577   8.434  0.1661 -1.4137 -0.4761
 7695SOL    HW227897   8.034   5.432   8.475 -1.4485 -0.7614  1.3208
 7696SOL     OW27898   5.522   2.764   4.157  0.4332 -0.2347 -0.2389
 7696SOL    HW127899   5.500   2.785   4.248  0.2514 -0.6291 -0.1940
 7696SOL    HW227900   5.550   2.848   4.120  2.1243 -0.3719  0.6391
 7697SOL     OW27901   0.206   6.451   1.050  0.0192  0.8864  0.1598
 7697SOL    HW127902   0.226   6.363   1.017 -2.0744  1.2532 -2.4623
 7697SOL    HW227903   0.272   6.507   1.009 -1.3691  1.0623 -1.9788
 7698SOL     OW27904  10.977  10.508  11.754 -0.3997 -0.1570  0.7345
 7698SOL    HW127905  10.932  10.572  11.810 -0.8071 -0.6734  1.0130
 7698SOL    HW227906  10.986  10.552  11.669 -0.4616  0.3531  0.9848
 7699SOL     OW27907  12.289   7.947   0.576 -0.2780  0.1524 -0.4976
 7699SOL    HW127908  12.328   8.031   0.552 -0.8179  0.7339  0.5746
 7699SOL    HW227909  12.195   7.963   0.572 -0.3797 -0.2374  0.2202
 7700SOL     OW27910   5.801   8.209  10.246 -0.3456  0.2851 -0.4430
 7700SOL    HW127911   5.757   8.277  10.297  0.6610  2.0799 -1.8150
 7700SOL    HW227912   5.871   8.256  10.201 -0.1029 -1.5407 -2.0777
 7701SOL     OW27913  10.567   4.847   1.144 -0.2017  0.2656  0.0856
 7701SOL    HW127914  10.546   4.753   1.146 -1.1110  0.4726  0.6337
 7701SOL    HW227915  10.554   4.876   1.234  0.2376  0.8955 -0.0509
 7702SOL     OW27916   0.917   3.217   5.826 -0.1919 -0.0616  0.2958
 7702SOL    HW127917   0.832   3.175   5.816 -0.3342  0.5637 -1.4700
 7702SOL    HW227918   0.898   3.304   5.861 -0.1662 -0.2860  0.8883
 7703SOL     OW27919   4.360   7.768   0.594  0.5450  0.5542  0.6092
 7703SOL    HW127920   4.344   7.751   0.687  1.2495  1.2725  0.8770
 7703SOL    HW227921   4.402   7.688   0.562 -0.0484  0.1572  0.8138
 7704SOL     OW27922   6.189   0.153  11.902 -0.6937  0.0378 -0.2841
 7704SOL    HW127923   6.157   0.233  11.858 -0.1888  0.7164  0.5502
 7704SOL    HW227924   6.147   0.155  11.988  0.1441 -0.0375  0.1349
 7705SOL     OW27925  10.734   9.990  12.284 -0.2908  0.0892  0.4462
 7705SOL    HW127926  10.695   9.914  12.326 -0.4250  0.4079  0.8963
 7705SOL    HW227927  10.686  10.064  12.318 -0.6734  0.3291 -0.5700
 7706SOL     OW27928   6.666   7.244  11.384 -0.7140  0.0072  0.5301
 7706SOL    HW127929   6.601   7.206  11.326 -0.5227  1.3723 -0.6514
 7706SOL    HW227930   6.737   7.179  11.387  0.4233  0.8526 -2.8837
 7707SOL     OW27931   3.137   7.736   0.058 -0.2915 -0.5240 -0.0729
 7707SOL    HW127932   3.154   7.735   0.152 -1.1425 -1.7230  0.0975
 7707SOL    HW227933   3.212   7.691   0.019  0.3247  0.4483 -0.0355
 7708SOL     OW27934  10.040   3.085   6.868  0.2339  0.0842  0.0834
 7708SOL    HW127935   9.972   3.053   6.929  2.7566  0.1094  3.1943
 7708SOL    HW227936  10.116   3.102   6.924  2.3894  1.4737 -2.9814
 7709SOL     OW27937   6.668   1.501   9.465  0.1550 -0.1388 -0.0344
 7709SOL    HW127938   6.748   1.494   9.412  0.3962  1.0426  0.1378
 7709SOL    HW227939   6.678   1.584   9.511 -1.3801  0.2446 -0.3519
 7710SOL     OW27940   2.654   8.451   2.154 -0.3796 -0.6764 -0.7634
 7710SOL    HW127941   2.583   8.501   2.114 -0.0825 -0.1683 -0.6664
 7710SOL    HW227942   2.652   8.366   2.109 -1.5353 -0.9492 -0.2298
 7711SOL     OW27943  12.100  11.812  12.645 -0.0976 -0.1261  0.4197
 7711SOL    HW127944  12.142  11.750  12.584  0.8919  0.5002  0.4370
 7711SOL    HW227945  12.014  11.774  12.663  0.3362 -1.2895  0.1126
 7712SOL     OW27946   5.467   6.683   9.276  0.2063 -0.5481  0.0931
 7712SOL    HW127947   5.411   6.607   9.264 -1.9631  0.7560  1.3205
 7712SOL    HW227948   5.409   6.758   9.261  1.9588  0.8755  0.1086
 7713SOL     OW27949   8.015   7.094  10.813 -0.1695  0.2446 -0.1695
 7713SOL    HW127950   8.051   7.079  10.725 -0.6829  0.1179 -0.3657
 7713SOL    HW227951   8.076   7.051  10.872 -0.1365 -0.1839 -0.5144
 7714SOL     OW27952   4.835   4.758   7.214  0.6407  0.1554  0.3977
 7714SOL    HW127953   4.852   4.749   7.120 -0.9258  0.8303  0.0125
 7714SOL    HW227954   4.747   4.794   7.219  1.6832  2.7785  2.0451
 7715SOL     OW27955   1.305   9.981   5.575  0.2834 -0.2373  0.1416
 7715SOL    HW127956   1.337  10.046   5.637  0.2357 -0.9537  0.9316
 7715SOL    HW227957   1.212  10.002   5.563 -0.0680 -0.9347  1.4216
 7716SOL     OW27958   8.131   6.348   7.017 -0.6119 -0.2416 -0.3171
 7716SOL    HW127959   8.126   6.399   7.098 -0.8855 -0.3188 -0.2823
 7716SOL    HW227960   8.216   6.303   7.022 -1.7473 -2.4287  1.2647
 7717SOL     OW27961  12.104   5.393  12.446  0.1158  0.5550  0.2699
 7717SOL    HW127962  12.163   5.448  12.395 -1.3382  0.9390 -1.0582
 7717SOL    HW227963  12.017   5.411  12.411 -0.5578 -1.7354  0.5651
 7718SOL     OW27964   3.347  12.635   7.092  0.0331  0.1538 -0.0957
 7718SOL    HW127965   3.423  12.607   7.143  0.3710  0.1238 -0.6106
 7718SOL    HW227966   3.383  12.660   7.007 -0.8138 -2.1431 -1.1999
 7719SOL     OW27967   1.275  10.586  10.919  0.9793  0.5437  1.0376
 7719SOL    HW127968   1.281  10.501  10.875 -1.3411 -0.0192  1.6869
 7719SOL    HW227969   1.309  10.649  10.855  0.5792 -0.6014 -0.3455
 7720SOL     OW27970   0.547   1.968   2.251 -0.8872 -0.0835  0.0014
 7720SOL    HW127971   0.523   1.875   2.249  0.0271 -0.3345  0.1319
 7720SOL    HW227972   0.608   1.976   2.324 -1.9630  0.8972  0.8372
 7721SOL     OW27973  11.068   1.337   4.118 -0.1918  0.0913 -0.4873
 7721SOL    HW127974  11.150   1.311   4.076  0.5077  0.5930  0.5240
 7721SOL    HW227975  11.004   1.271   4.091 -0.2763  1.3831 -3.8640
 7722SOL     OW27976   3.897   1.339  10.575  0.2669  0.1203 -0.1840
 7722SOL    HW127977   3.906   1.290  10.493 -0.3542  0.5600 -0.5223
 7722SOL    HW227978   3.818   1.391  10.564 -0.9231 -1.2352  1.4368
 7723SOL     OW27979  10.949   6.327   0.121 -0.0810  0.7024 -0.1417
 7723SOL    HW127980  10.872   6.329   0.177  0.5344  1.6990  0.7264
 7723SOL    HW227981  11.016   6.375   0.171  0.4623  1.7478 -1.7774
 7724SOL     OW27982   0.427  10.801   5.190 -0.4993 -0.0276  0.5743
 7724SOL    HW127983   0.501  10.744   5.168 -0.5973  0.3761 -0.9411
 7724SOL    HW227984   0.367  10.744   5.238  0.6002 -0.4610  1.4901
 7725SOL     OW27985   4.702   9.433   8.425  0.0331  0.0981 -0.0679
 7725SOL    HW127986   4.665   9.350   8.396 -0.8507  0.4551  0.0020
 7725SOL    HW227987   4.633   9.474   8.476  0.3991  0.9421 -0.2186
 7726SOL     OW27988   4.377   9.326   1.670  0.2374  0.2715 -0.3944
 7726SOL    HW127989   4.456   9.335   1.723 -1.1807  1.1457  1.6985
 7726SOL    HW227990   4.383   9.239   1.632  1.3642 -0.3819  1.1737
 7727SOL     OW27991  12.552   7.096   3.433  0.3635  0.0367  0.5444
 7727SOL    HW127992  12.469   7.111   3.479 -0.8717  2.9384 -2.2038
 7727SOL    HW227993  12.530   7.038   3.361  1.2181 -0.8050  0.9453
 7728SOL     OW27994   8.387   4.009  12.144  0.7655 -0.0753  0.2885
 7728SOL    HW127995   8.335   3.976  12.217 -0.0610  1.3160  0.3683
 7728SOL    HW227996   8.458   4.059  12.185  0.7214  0.1057  0.1444
 7729SOL     OW27997   7.494   2.101   4.384 -0.6395 -0.1483 -0.3294
 7729SOL    HW127998   7.504   2.108   4.289 -1.0156  0.8470 -0.3120
 7729SOL    HW227999   7.402   2.123   4.400 -0.9595 -1.7468  0.1503
 7730SOL     OW28000   0.285   4.734   7.929  0.1014  0.0233 -0.5963
 7730SOL    HW128001   0.323   4.667   7.872 -0.3020  0.4716 -1.4127
 7730SOL    HW228002   0.238   4.685   7.996  1.2895 -0.5245 -0.1413
 7731SOL     OW28003   1.171   1.630   8.943  0.7194  0.1124 -0.4417
 7731SOL    HW128004   1.248   1.680   8.913  0.5407  0.5483 -0.1761
 7731SOL    HW228005   1.200   1.588   9.024  0.0290  2.0458  0.8834
 7732SOL     OW28006   5.093   4.657  10.804  0.0809 -0.1480  0.1679
 7732SOL    HW128007   5.101   4.684  10.896 -0.0513 -3.2016  1.1916
 7732SOL    HW228008   5.183   4.646  10.774  0.1141  0.2146  0.1303
 7733SOL     OW28009   4.110   6.102  11.370  0.1577 -0.5234 -0.3310
 7733SOL    HW128010   4.146   6.183  11.334 -0.3096 -0.9155 -1.7348
 7733SOL    HW228011   4.016   6.117  11.373 -0.2550 -1.9240 -3.1922
 7734SOL     OW28012   0.498   9.930   5.973 -0.7772  0.3396  0.3437
 7734SOL    HW128013   0.421   9.948   5.921 -0.7145  2.5494  0.9299
 7734SOL    HW228014   0.561   9.997   5.948 -0.6355  1.3071  2.9775
 7735SOL     OW28015   3.623  12.648  11.133 -0.0354  0.1120 -0.1203
 7735SOL    HW128016   3.660  12.591  11.202 -0.7059 -0.7588 -0.4624
 7735SOL    HW228017   3.679  12.726  11.134  0.9048 -0.5474  0.3687
 7736SOL     OW28018   2.142   0.834  12.460  0.7761 -0.0198  0.0712
 7736SOL    HW128019   2.131   0.857  12.368  1.4609  0.2852  0.0582
 7736SOL    HW228020   2.234   0.851  12.478  0.8639 -0.9523  0.5748
 7737SOL     OW28021   9.690   8.181   4.604  0.2940  0.0919 -0.2057
 7737SOL    HW128022   9.766   8.150   4.653 -0.0811 -0.1083  0.2675
 7737SOL    HW228023   9.658   8.257   4.654 -0.4421 -0.4732  0.2093
 7738SOL     OW28024   2.669   7.696   3.497  0.2134 -0.2647  0.1376
 7738SOL    HW128025   2.751   7.719   3.452 -0.1649  0.6243 -0.1323
 7738SOL    HW228026   2.693   7.625   3.556  1.5566  1.0490  1.2643
 7739SOL     OW28027   5.910   3.093   1.169 -0.3301 -0.0641  0.3746
 7739SOL    HW128028   5.825   3.128   1.195 -2.2503 -0.2528 -4.5809
 7739SOL    HW228029   5.967   3.169   1.161 -0.7957  0.3796  1.1721
 7740SOL     OW28030  10.615  10.430   0.984 -0.2568  0.6089 -0.4415
 7740SOL    HW128031  10.705  10.406   1.007  0.0238  0.3036 -1.7911
 7740SOL    HW228032  10.598  10.509   1.035  0.8518  0.7937 -0.3239
 7741SOL     OW28033   6.623   1.839   4.465 -0.1049 -0.1900  0.4436
 7741SOL    HW128034   6.637   1.750   4.431 -0.8732 -0.0240 -0.3707
 7741SOL    HW228035   6.585   1.886   4.391  2.1737  1.3978  0.1993
 7742SOL     OW28036   7.084   2.172   6.714  0.2835 -0.5041  0.3431
 7742SOL    HW128037   7.060   2.176   6.622  0.2558  0.5243  0.3839
 7742SOL    HW228038   7.016   2.223   6.759  0.1777 -1.1678  0.9611
 7743SOL     OW28039   1.062   8.600   8.833  0.4774  0.0049 -0.3746
 7743SOL    HW128040   1.120   8.565   8.901 -2.0416 -1.7097  1.0644
 7743SOL    HW228041   1.021   8.676   8.873 -0.0497 -0.2383 -0.4434
 7744SOL     OW28042   1.538   4.438   8.096 -0.1155 -0.1210 -0.3373
 7744SOL    HW128043   1.469   4.440   8.162 -0.1953 -1.2671 -0.3668
 7744SOL    HW228044   1.552   4.345   8.078  1.1322  0.0999 -0.6518
 7745SOL     OW28045   6.696   9.668   6.809  0.4312  0.3636 -0.3692
 7745SOL    HW128046   6.788   9.678   6.783  0.2699  0.6262 -0.8384
 7745SOL    HW228047   6.662   9.757   6.814  0.8516  0.4617  2.2479
 7746SOL     OW28048   6.815   6.827  12.506 -0.2072  0.5230 -0.5863
 7746SOL    HW128049   6.841   6.872  12.587 -1.9059 -0.3182  0.4996
 7746SOL    HW228050   6.768   6.749  12.537 -1.9357  0.7897 -2.3783
 7747SOL     OW28051  10.630   4.527   2.028 -0.0944 -0.2325  0.1132
 7747SOL    HW128052  10.602   4.569   1.947  0.9652  1.2247  0.4511
 7747SOL    HW228053  10.662   4.441   2.001 -1.3508 -0.4429 -0.7609
 7748SOL     OW28054   0.736   3.077   9.907  1.0153 -0.0388  0.2227
 7748SOL    HW128055   0.653   3.042   9.941 -0.6838  2.0604 -1.4803
 7748SOL    HW228056   0.767   3.135   9.976  0.3432  0.1900  0.3456
 7749SOL     OW28057   2.163  10.782  11.678 -0.9178 -0.2591  0.0550
 7749SOL    HW128058   2.253  10.761  11.653 -0.6531  0.9816 -0.0802
 7749SOL    HW228059   2.163  10.778  11.774 -0.5359  0.4088  0.0893
 7750SOL     OW28060   0.107   5.771   5.244 -0.1412 -0.3565  0.0596
 7750SOL    HW128061   0.199   5.795   5.253 -0.2090  0.1167 -0.4374
 7750SOL    HW228062   0.108   5.681   5.213  0.1690 -0.1219 -0.6137
 7751SOL     OW28063   6.476   6.668   5.286 -0.7174 -0.1266 -0.2188
 7751SOL    HW128064   6.398   6.664   5.231  0.2380  1.1990 -1.7647
 7751SOL    HW228065   6.445   6.702   5.370 -1.5448  2.3248 -1.4328
 7752SOL     OW28066   0.985  11.750  11.919 -0.4587 -0.5435  0.3489
 7752SOL    HW128067   0.943  11.796  11.846 -0.0031 -0.8036 -0.0792
 7752SOL    HW228068   0.961  11.658  11.906 -0.6820 -0.5409  0.7368
 7753SOL     OW28069   2.669   7.411   5.139 -0.0867 -0.2251  0.3091
 7753SOL    HW128070   2.576   7.435   5.130  0.1628  0.4174 -0.8804
 7753SOL    HW228071   2.668   7.325   5.181 -1.3132 -1.0526 -1.2803
 7754SOL     OW28072   5.738   0.457   9.359 -0.5224  0.2502  0.0324
 7754SOL    HW128073   5.717   0.367   9.334 -0.6226  0.4662 -0.6898
 7754SOL    HW228074   5.745   0.503   9.276  0.7199  0.6538  0.3526
 7755SOL     OW28075   1.024  11.923   5.264  0.3344 -0.2789  0.1707
 7755SOL    HW128076   1.110  11.962   5.245  1.3309 -1.3001  2.2810
 7755SOL    HW228077   1.021  11.844   5.210  0.7493 -0.2638  0.1184
 7756SOL     OW28078   2.277   0.713   2.344 -0.3998 -0.2799  0.1617
 7756SOL    HW128079   2.211   0.750   2.404  0.9251  0.4892  1.2078
 7756SOL    HW228080   2.352   0.772   2.352  0.0630 -0.5607 -1.7717
 7757SOL     OW28081   7.593   9.853   8.476  0.2177 -0.1719  0.1162
 7757SOL    HW128082   7.574   9.921   8.541  1.0005 -0.5267  0.7355
 7757SOL    HW228083   7.683   9.826   8.496 -0.4665 -2.2026  0.6303
 7758SOL     OW28084  11.434   6.836   6.436 -0.3384  0.8087 -0.3695
 7758SOL    HW128085  11.509   6.820   6.492 -0.1158 -1.0828 -1.1231
 7758SOL    HW228086  11.392   6.913   6.473  0.2876  0.1602  1.8421
 7759SOL     OW28087  10.196   0.366   7.065 -0.7737  0.0588 -0.6518
 7759SOL    HW128088  10.247   0.439   7.030 -0.8359 -0.0039 -0.8759
 7759SOL    HW228089  10.260   0.297   7.082 -0.6071  0.4164  0.2577
 7760SOL     OW28090   0.335  11.761   8.090  0.1880 -0.3610 -0.1937
 7760SOL    HW128091   0.251  11.805   8.080  1.2229  1.5670 -1.1033
 7760SOL    HW228092   0.313  11.669   8.106 -2.0599 -0.3936 -2.7815
 7761SOL     OW28093   2.891   9.907  12.445 -0.0212 -0.2601  0.1970
 7761SOL    HW128094   2.897  10.000  12.419  2.5348 -0.0255  1.3758
 7761SOL    HW228095   2.834   9.908  12.522  0.2902  0.3946  0.4329
 7762SOL     OW28096   8.063   1.361   8.937 -0.3303  0.2601  0.2326
 7762SOL    HW128097   7.982   1.331   8.977 -0.7684  1.6291  0.4273
 7762SOL    HW228098   8.066   1.454   8.956  1.0284  0.3352 -0.2366
 7763SOL     OW28099   6.971  10.768   8.176 -0.3044 -0.0604 -0.1819
 7763SOL    HW128100   6.880  10.780   8.147 -0.6486 -0.4853  0.6963
 7763SOL    HW228101   7.023  10.819   8.113 -1.2590  1.3834  0.1580
 7764SOL     OW28102   9.048   8.293  11.845  0.0327 -1.1685  0.3545
 7764SOL    HW128103   9.009   8.210  11.873 -0.1150 -0.9371  0.8372
 7764SOL    HW228104   9.081   8.275  11.757  1.0092 -2.0828  0.8696
 7765SOL     OW28105  10.227   1.741  11.361 -0.1447  0.4052  0.6819
 7765SOL    HW128106  10.256   1.744  11.270  1.5857  2.3588  1.2262
 7765SOL    HW228107  10.132   1.739  11.356 -0.1084  1.4357 -1.1669
 7766SOL     OW28108   2.559   3.983   4.436  0.2382 -0.0210  0.1061
 7766SOL    HW128109   2.545   4.062   4.489  3.2710  0.3448  0.5650
 7766SOL    HW228110   2.635   4.005   4.382 -0.2180 -1.8882 -1.3709
 7767SOL     OW28111  10.468   8.794   4.351 -0.3375 -0.3067 -0.3312
 7767SOL    HW128112  10.480   8.847   4.272 -2.1192 -0.5139 -0.7819
 7767SOL    HW228113  10.410   8.723   4.323  0.6410 -1.5501  0.6878
 7768SOL     OW28114   0.635  11.178   6.169  0.3121 -0.0054  0.1825
 7768SOL    HW128115   0.719  11.193   6.213 -0.6907  2.9836  1.3837
 7768SOL    HW228116   0.579  11.138   6.235  0.1747  0.0865  0.1247
 7769SOL     OW28117  10.534   3.567   5.033  0.2931  0.8723 -0.6358
 7769SOL    HW128118  10.600   3.636   5.022  1.4504 -0.3834 -1.9219
 7769SOL    HW228119  10.511   3.542   4.944  0.1281 -0.6078 -0.1977
 7770SOL     OW28120   5.255  10.796   2.894  0.1309  0.2220 -0.5095
 7770SOL    HW128121   5.234  10.850   2.970  0.4484 -0.7668  0.3042
 7770SOL    HW228122   5.202  10.832   2.823 -2.9377 -0.9987  0.9735
 7771SOL     OW28123   5.998   7.131  11.758 -0.3569  0.1305  0.2225
 7771SOL    HW128124   6.014   7.220  11.789  0.1324  0.3338 -0.5655
 7771SOL    HW228125   5.902   7.125  11.752 -0.4109  1.6092 -2.3399
 7772SOL     OW28126   3.394   9.328  10.682 -0.1050  0.6772 -0.2948
 7772SOL    HW128127   3.377   9.281  10.764 -1.0245  2.3271  0.5077
 7772SOL    HW228128   3.309   9.330  10.637  0.3679 -0.1232 -1.2805
 7773SOL     OW28129   2.237   8.618   8.074 -0.3580 -0.2302  0.1340
 7773SOL    HW128130   2.192   8.690   8.119  0.2975  0.9118 -0.9662
 7773SOL    HW228131   2.241   8.548   8.138 -0.2775  1.0142  1.5352
 7774SOL     OW28132  11.726   4.964   7.822  0.1151  0.3625  0.6999
 7774SOL    HW128133  11.701   5.053   7.848  1.4908  0.0215  3.5304
 7774SOL    HW228134  11.820   4.969   7.807 -0.1682 -0.1599 -1.5393
 7775SOL     OW28135   2.800   6.751   1.022 -0.1648 -0.4140  0.0954
 7775SOL    HW128136   2.840   6.832   0.991  1.3871 -0.7260  1.1596
 7775SOL    HW228137   2.874   6.695   1.046 -1.2227 -1.2461  1.6230
 7776SOL     OW28138   7.234   8.156   0.600  0.1388  0.1322 -0.1119
 7776SOL    HW128139   7.294   8.100   0.649 -0.4016  0.6841  1.2187
 7776SOL    HW228140   7.277   8.241   0.598 -0.3186  0.3798  0.3317
 7777SOL     OW28141   7.835   5.768   1.365 -0.1293 -0.1274  0.7018
 7777SOL    HW128142   7.800   5.815   1.441 -1.6602 -0.1878  0.0777
 7777SOL    HW228143   7.873   5.688   1.402  0.1468  0.3647  1.5060
 7778SOL     OW28144  11.065  10.650  10.088 -0.4678  0.2186 -0.1308
 7778SOL    HW128145  11.022  10.736  10.088 -0.8029  0.0675  1.4043
 7778SOL    HW228146  11.130  10.655  10.158  0.3864 -0.3746 -0.8567
 7779SOL     OW28147   2.073   3.075   6.193  0.2096  0.4828 -0.1516
 7779SOL    HW128148   2.042   3.089   6.104  0.6854  0.4584 -0.3234
 7779SOL    HW228149   2.004   3.112   6.249 -0.6305 -0.5300 -0.4961
 7780SOL     OW28150   3.788   2.578   8.317 -0.1485  0.2084 -0.3146
 7780SOL    HW128151   3.693   2.588   8.322 -0.2480 -0.8975  0.2468
 7780SOL    HW228152   3.814   2.632   8.242 -1.3397 -0.2535 -1.0939
 7781SOL     OW28153   2.045  11.681   7.689  0.8056 -0.4866 -0.1412
 7781SOL    HW128154   2.099  11.737   7.746  0.2191 -0.3688  0.3015
 7781SOL    HW228155   2.107  11.618   7.652  0.8857 -1.9283  2.2774
 7782SOL     OW28156  12.526   3.660   8.457 -0.8732 -0.4457  0.5500
 7782SOL    HW128157  12.448   3.698   8.416 -0.3052  1.9941  1.5750
 7782SOL    HW228158  12.521   3.687   8.548  1.4846  0.3952  0.5052
 7783SOL     OW28159  10.918   2.792  12.629  0.4103 -1.1789  0.1903
 7783SOL    HW128160  10.937   2.702  12.605 -1.1766 -1.8379  1.2894
 7783SOL    HW228161  10.824   2.794  12.644  0.5780  0.3869  1.3185
 7784SOL     OW28162   3.234   9.066  11.141 -0.7117  0.2701  0.0727
 7784SOL    HW128163   3.151   9.048  11.185 -0.3575  1.0388  1.1261
 7784SOL    HW228164   3.295   9.084  11.213  0.2458  0.2050 -0.7014
 7785SOL     OW28165   2.352  11.323   7.128  0.0770  0.4470 -0.4868
 7785SOL    HW128166   2.300  11.370   7.063 -2.2201 -1.4521 -0.1689
 7785SOL    HW228167   2.355  11.382   7.203 -1.9657  0.5424 -0.4142
 7786SOL     OW28168   5.854   8.364   8.410 -0.1111  0.7149  0.9801
 7786SOL    HW128169   5.843   8.324   8.496 -0.3943  1.6999  1.4243
 7786SOL    HW228170   5.787   8.433   8.407  0.2435  1.0461  0.1820
 7787SOL     OW28171   3.679  11.126   8.200  0.4805 -0.2119 -0.2312
 7787SOL    HW128172   3.729  11.053   8.164  1.4178  0.4526 -0.3168
 7787SOL    HW228173   3.590  11.114   8.166  0.5426 -1.4923  0.0441
 7788SOL     OW28174   5.629   7.738   5.133  0.3465  0.5740  0.0151
 7788SOL    HW128175   5.685   7.662   5.116 -1.0022 -0.5504  0.4019
 7788SOL    HW228176   5.672   7.784   5.205  0.6901 -0.3719  0.4278
 7789SOL     OW28177   5.508   2.377   1.079  0.3642  0.3304 -0.1450
 7789SOL    HW128178   5.455   2.447   1.039  0.7163 -0.7195 -2.6280
 7789SOL    HW228179   5.598   2.404   1.064  0.5156  0.0636  0.2769
 7790SOL     OW28180   1.674  10.149   6.384 -0.0126 -0.4179 -0.1048
 7790SOL    HW128181   1.656  10.059   6.356  1.0744 -0.7599  0.2252
 7790SOL    HW228182   1.668  10.201   6.303 -1.0613 -0.7139 -0.2252
 7791SOL     OW28183   9.651   7.602   3.287 -0.0773 -0.4335 -0.2218
 7791SOL    HW128184   9.621   7.591   3.378  0.2988 -0.9885 -0.1637
 7791SOL    HW228185   9.722   7.539   3.277  1.1221  0.8760 -0.3530
 7792SOL     OW28186   1.692   3.183  11.386 -0.2443  0.2927  0.2481
 7792SOL    HW128187   1.712   3.264  11.433  0.1566 -0.3509  1.2084
 7792SOL    HW228188   1.647   3.128  11.450 -0.1108 -0.4159 -0.2508
 7793SOL     OW28189  11.620   3.037   5.218  0.3315  0.1421 -0.3193
 7793SOL    HW128190  11.603   2.972   5.149  0.8837 -0.6784  0.2945
 7793SOL    HW228191  11.572   3.115   5.190  1.1878  0.1056 -2.0306
 7794SOL     OW28192  10.046   6.274  11.928 -0.9165  0.5057  0.0234
 7794SOL    HW128193  10.128   6.283  11.976 -1.3604  0.6318  0.7773
 7794SOL    HW228194   9.980   6.257  11.995 -1.2737 -1.2169 -0.7077
 7795SOL     OW28195   4.150   9.263   9.272  0.5285  0.2203  0.0066
 7795SOL    HW128196   4.111   9.176   9.283  0.1658  0.4085  0.2273
 7795SOL    HW228197   4.221   9.265   9.336  1.5230 -0.4670 -1.0271
 7796SOL     OW28198   6.091   6.069   9.674  0.1693  0.0002  0.0686
 7796SOL    HW128199   6.065   5.978   9.685  2.9656 -0.9200 -0.2456
 7796SOL    HW228200   6.038   6.100   9.600 -0.6344 -1.4292  0.0148
 7797SOL     OW28201   2.580   6.645  11.530  0.0087 -0.3369  0.1755
 7797SOL    HW128202   2.584   6.553  11.554 -0.6469 -0.5654 -0.5515
 7797SOL    HW228203   2.609   6.648  11.439 -0.7188  0.0606 -0.0545
 7798SOL     OW28204  11.432   7.406   9.491  0.0297  0.4205  0.0256
 7798SOL    HW128205  11.456   7.396   9.583 -0.0900  2.3871  0.3145
 7798SOL    HW228206  11.338   7.424   9.492  0.1851  1.3171 -0.3951
 7799SOL     OW28207   0.334   3.730   5.593  0.1230  0.0354 -0.2205
 7799SOL    HW128208   0.276   3.665   5.554  0.2457  1.1650 -2.4372
 7799SOL    HW228209   0.296   3.814   5.568 -0.8896  0.9821  3.8167
 7800SOL     OW28210   5.053   6.833   2.206  0.0421 -0.2328 -0.4225
 7800SOL    HW128211   5.082   6.743   2.194 -0.5472 -0.3925 -0.7100
 7800SOL    HW228212   5.023   6.861   2.119  2.6639  1.1560 -0.9764
 7801SOL     OW28213   6.742   0.133   9.271  0.1493 -0.0703 -0.7060
 7801SOL    HW128214   6.817   0.187   9.249  0.9380 -1.1652 -0.8043
 7801SOL    HW228215   6.763   0.047   9.234 -0.3347 -0.8645  0.7854
 7802SOL     OW28216   4.535   6.671   3.622  0.5278 -0.2278  0.0097
 7802SOL    HW128217   4.590   6.619   3.680  0.5232 -1.0232 -0.6769
 7802SOL    HW228218   4.595   6.730   3.577  0.5946  0.0509  0.4639
 7803SOL     OW28219   7.791   8.281   2.771 -0.2799 -0.7336 -0.0100
 7803SOL    HW128220   7.778   8.200   2.722  0.7140  0.2722 -2.0550
 7803SOL    HW228221   7.873   8.268   2.819  0.2076 -0.7486 -0.8262
 7804SOL     OW28222   3.217   5.206   1.844 -0.4941 -0.0909  0.2154
 7804SOL    HW128223   3.165   5.209   1.924  1.2255  0.3432  1.3933
 7804SOL    HW228224   3.206   5.292   1.805  0.7046  0.6771  1.4439
 7805SOL     OW28225   6.029   1.955  10.311 -0.4348  0.4564  0.4365
 7805SOL    HW128226   6.097   1.975  10.376 -0.7271 -1.5400  1.4406
 7805SOL    HW228227   5.985   1.878  10.346 -1.5067  0.1303 -1.5020
 7806SOL     OW28228   2.830   8.415  12.128  0.2103 -0.3261  0.0990
 7806SOL    HW128229   2.792   8.502  12.117 -0.6458 -0.3972  2.0764
 7806SOL    HW228230   2.788   8.362  12.060  2.8343  1.3212 -3.0388
 7807SOL     OW28231  10.074   7.441   2.469  0.0217  0.0639 -0.0459
 7807SOL    HW128232  10.037   7.401   2.548  0.2896 -0.1811 -0.0422
 7807SOL    HW228233   9.998   7.459   2.414 -0.0556 -1.2094 -0.4009
 7808SOL     OW28234   2.309  11.040  11.361 -0.9347 -0.0567  0.2007
 7808SOL    HW128235   2.255  11.111  11.395  0.4022  0.0673  2.2149
 7808SOL    HW228236   2.371  11.084  11.302 -1.2020  0.2067  0.1171
 7809SOL     OW28237   6.402   6.979   4.811  0.1095  0.1377  0.7044
 7809SOL    HW128238   6.414   6.905   4.870  0.8378 -0.7725 -0.5498
 7809SOL    HW228239   6.309   6.976   4.787  0.5805 -1.8214 -1.1403
 7810SOL     OW28240   3.476   5.161   1.854  0.0190 -0.1328 -0.2199
 7810SOL    HW128241   3.387   5.194   1.844  0.3375  0.6279 -0.6418
 7810SOL    HW228242   3.478   5.081   1.802 -1.3408 -2.0490  2.4078
 7811SOL     OW28243   0.061  11.137   4.081 -0.0318  0.0112  0.0985
 7811SOL    HW128244   0.103  11.158   3.998 -1.2048  0.6345 -0.3512
 7811SOL    HW228245   0.017  11.218   4.108 -2.6318 -1.1182 -0.4650
 7812SOL     OW28246   5.720  10.124   8.270  0.2505 -0.3591  0.4467
 7812SOL    HW128247   5.751  10.042   8.233 -0.9078 -0.5845 -0.0733
 7812SOL    HW228248   5.680  10.100   8.353 -0.7984 -0.4548 -0.0708
 7813SOL     OW28249   4.454  11.876  10.695 -0.0946 -0.2473  0.4458
 7813SOL    HW128250   4.384  11.931  10.729  2.1418  2.1663  1.5184
 7813SOL    HW228251   4.473  11.814  10.766 -1.8492 -1.7382 -0.3178
 7814SOL     OW28252  11.722   1.389  10.798 -0.0874 -0.1010 -0.0815
 7814SOL    HW128253  11.667   1.442  10.855  0.2870 -0.1452  0.3289
 7814SOL    HW228254  11.661   1.327  10.757 -0.8767  1.9375 -2.1572
 7815SOL     OW28255  12.158   9.499   3.152 -0.3020  0.5248  0.1718
 7815SOL    HW128256  12.093   9.547   3.100 -0.0225 -0.7509 -1.4315
 7815SOL    HW228257  12.232   9.487   3.093  1.6838  2.3591  2.1027
 7816SOL     OW28258   8.127  11.275  12.483  0.1513 -0.0446  0.0356
 7816SOL    HW128259   8.107  11.302  12.572  0.5260  0.1977  0.0490
 7816SOL    HW228260   8.125  11.356  12.432 -1.8931 -0.3966 -0.5396
 7817SOL     OW28261   6.698   1.589   3.294  1.0247  0.6366  0.1887
 7817SOL    HW128262   6.695   1.528   3.368 -0.4508  1.5365  0.9104
 7817SOL    HW228263   6.751   1.544   3.228  2.3767 -0.1958  1.7669
 7818SOL     OW28264   0.602  11.052   0.921  0.0620 -1.0268 -0.4925
 7818SOL    HW128265   0.552  11.115   0.869  0.3228  0.5319  1.0589
 7818SOL    HW228266   0.635  10.989   0.857  1.3236  1.4253 -2.4068
 7819SOL     OW28267   6.414   1.509   4.444 -0.6660  0.5026  0.2789
 7819SOL    HW128268   6.332   1.490   4.489 -1.2266  0.6315 -0.6497
 7819SOL    HW228269   6.476   1.529   4.514 -0.7239 -2.0458  1.1712
 7820SOL     OW28270  10.109   9.527   6.015  0.1306 -0.5158  0.2872
 7820SOL    HW128271  10.035   9.576   6.050 -0.6931 -1.1358 -0.5266
 7820SOL    HW228272  10.131   9.573   5.934  1.0892  0.0653  0.8664
 7821SOL     OW28273   1.839   6.816   1.123  0.3007  0.3564  0.3006
 7821SOL    HW128274   1.824   6.909   1.107  2.7287  1.0675  1.6130
 7821SOL    HW228275   1.920   6.813   1.173 -0.3157 -2.4199  1.3353
 7822SOL     OW28276   0.314   2.514   3.071  0.0205 -0.2234 -0.6809
 7822SOL    HW128277   0.409   2.519   3.084  0.2783 -1.5007 -1.8106
 7822SOL    HW228278   0.279   2.493   3.157  0.4239  2.9576  0.3965
 7823SOL     OW28279   1.211   9.445  12.596 -0.0500 -0.1086  0.5657
 7823SOL    HW128280   1.172   9.526  12.630  0.5771 -0.4260  2.1453
 7823SOL    HW228281   1.304   9.466  12.585  0.2017 -0.7272  1.4176
 7824SOL     OW28282   8.085  11.978   6.678  0.1541 -0.0244  0.3613
 7824SOL    HW128283   8.150  12.049   6.674  0.8633 -0.6883 -2.7192
 7824SOL    HW228284   8.001  12.022   6.681  0.6156  0.9682 -0.6997
 7825SOL     OW28285   6.693   5.487  11.403  0.3519 -0.0451 -0.5686
 7825SOL    HW128286   6.665   5.395  11.397  0.0823  0.0906 -1.5171
 7825SOL    HW228287   6.656   5.528  11.326  1.8877  0.4882 -1.0556
 7826SOL     OW28288   3.634   6.133  12.409  0.0475  0.0123  0.3452
 7826SOL    HW128289   3.569   6.140  12.479 -0.4021  2.4420 -0.1945
 7826SOL    HW228290   3.717   6.157  12.450  0.3059 -1.3493  0.6441
 7827SOL     OW28291   5.432   7.583   1.377  0.5189 -0.6958  0.7370
 7827SOL    HW128292   5.355   7.636   1.358  1.1405  0.1851  0.6292
 7827SOL    HW228293   5.418   7.550   1.466 -1.3418 -2.9800 -0.2974
 7828SOL     OW28294   9.917   9.546  11.131  0.2736 -0.3005  0.3395
 7828SOL    HW128295   9.826   9.572  11.144  0.0390 -1.7183  1.7731
 7828SOL    HW228296   9.947   9.600  11.057 -1.5792  0.4915  0.1169
 7829SOL     OW28297   7.314   1.909  12.136  0.2276  0.0207  0.3458
 7829SOL    HW128298   7.232   1.904  12.185  0.4532 -0.4332  0.6856
 7829SOL    HW228299   7.344   1.999  12.150 -0.2473  0.2129  0.1543
 7830SOL     OW28300  10.361   8.759  12.131 -0.2851  0.2073  0.5593
 7830SOL    HW128301  10.351   8.676  12.178 -1.3289 -1.1554 -1.8600
 7830SOL    HW228302  10.454   8.764  12.110 -0.2470 -0.4635  0.5497
 7831SOL     OW28303  11.556   4.485   6.924 -0.0835  0.1741  0.4402
 7831SOL    HW128304  11.601   4.560   6.886  0.4943  0.0957  0.9430
 7831SOL    HW228305  11.537   4.513   7.014 -2.5274  0.8317 -0.2102
 7832SOL     OW28306   9.249   8.744   0.357 -0.0476 -0.2308 -0.0920
 7832SOL    HW128307   9.212   8.671   0.406  1.3455  0.1170  1.5745
 7832SOL    HW228308   9.338   8.716   0.334 -0.2306  0.1165 -1.3585
 7833SOL     OW28309  10.397   3.560   3.475  0.2455 -0.4261 -0.2019
 7833SOL    HW128310  10.427   3.624   3.411  0.2332  0.3022  0.5012
 7833SOL    HW228311  10.395   3.477   3.427  0.1345  0.1146 -1.1673
 7834SOL     OW28312  11.607  11.216   1.839 -0.4266  0.5959 -0.9865
 7834SOL    HW128313  11.578  11.250   1.755  1.4375  1.9513 -1.1295
 7834SOL    HW228314  11.549  11.257   1.903 -0.3983  1.3553 -1.4415
 7835SOL     OW28315   3.094   8.871   1.166 -0.3657 -0.2018 -0.3243
 7835SOL    HW128316   3.002   8.894   1.159  0.1036  1.4530 -1.4684
 7835SOL    HW228317   3.129   8.930   1.233 -0.0169 -0.4996 -0.2369
 7836SOL     OW28318   4.722   9.493  11.816 -0.0997  0.9089  0.1464
 7836SOL    HW128319   4.728   9.548  11.738  1.8234 -0.7322 -0.9641
 7836SOL    HW228320   4.786   9.530  11.877 -0.6599  1.3923  0.4628
 7837SOL     OW28321   4.673   2.634  10.844  0.2404 -0.2563 -0.1964
 7837SOL    HW128322   4.720   2.708  10.805 -0.0086  0.0438  0.0723
 7837SOL    HW228323   4.610   2.608  10.777 -0.1793  0.2537 -0.0094
 7838SOL     OW28324   6.314   4.611   4.521  0.1155 -0.5952 -0.4152
 7838SOL    HW128325   6.360   4.621   4.438 -0.0209  1.3123 -0.3192
 7838SOL    HW228326   6.382   4.617   4.588 -0.0050  0.1372 -0.3434
 7839SOL     OW28327   6.591  11.124   5.347  0.0708  0.3247 -0.3549
 7839SOL    HW128328   6.677  11.156   5.319  0.7415 -0.9584  0.1470
 7839SOL    HW228329   6.611  11.053   5.408 -1.3539  1.2457  1.2781
 7840SOL     OW28330  10.083   2.761   9.216 -0.0770  0.5527 -0.1326
 7840SOL    HW128331  10.093   2.826   9.146 -1.6222  0.3369 -0.5922
 7840SOL    HW228332  10.094   2.677   9.173  2.1613  0.4427  0.5058
 7841SOL     OW28333   7.479  10.469   7.683  0.1685  0.5419  0.2819
 7841SOL    HW128334   7.506  10.540   7.743  0.8701  0.8963 -0.4335
 7841SOL    HW228335   7.434  10.407   7.739 -0.1916  1.4105  0.9900
 7842SOL     OW28336   1.916   9.506   8.130 -0.0784  0.0550  0.4203
 7842SOL    HW128337   1.820   9.498   8.132  0.0248 -1.4020  0.8657
 7842SOL    HW228338   1.945   9.427   8.084  0.8681  1.2591 -1.1801
 7843SOL     OW28339   1.422   3.662  10.546  0.0833 -0.7275  0.6076
 7843SOL    HW128340   1.474   3.597  10.499  0.6053  0.4345 -0.4828
 7843SOL    HW228341   1.484   3.731  10.569 -0.9287  0.7946 -0.9251
 7844SOL     OW28342   0.626  10.488   5.655 -0.4051 -0.1306 -0.1369
 7844SOL    HW128343   0.671  10.563   5.618  1.6520 -0.8318  0.8081
 7844SOL    HW228344   0.669  10.412   5.617 -0.3705 -0.8315  1.2265
 7845SOL     OW28345   9.544   6.197  12.372 -0.6014  0.7707 -0.6692
 7845SOL    HW128346   9.553   6.290  12.389 -0.5745  0.6323  0.1242
 7845SOL    HW228347   9.611   6.156  12.427 -2.8729  0.0430  1.7639
 7846SOL     OW28348   9.675   9.283   8.655  0.6739 -0.1280  0.2559
 7846SOL    HW128349   9.669   9.369   8.697 -0.0024  0.0508 -0.1892
 7846SOL    HW228350   9.747   9.239   8.700  1.2401  0.7897  0.2649
 7847SOL     OW28351   1.235   6.438  12.492  0.7253 -0.1704 -0.1305
 7847SOL    HW128352   1.147   6.406  12.513 -0.3102  0.5698 -3.0202
 7847SOL    HW228353   1.269   6.469  12.576 -1.3549 -1.3858  1.2578
 7848SOL     OW28354  11.355  10.930   2.069  0.8026 -0.6586  0.0219
 7848SOL    HW128355  11.377  10.862   2.132 -0.2735  1.0703  2.4174
 7848SOL    HW228356  11.414  11.003   2.090  1.1807 -0.4064 -1.7459
 7849SOL     OW28357  11.327   0.860   0.441  0.1623 -0.5723  0.3360
 7849SOL    HW128358  11.288   0.885   0.357 -2.5706 -1.2290  1.3021
 7849SOL    HW228359  11.306   0.767   0.450  1.0655 -0.6909  1.4087
 7850SOL     OW28360   0.841   5.224   6.639 -0.1498 -0.7146  0.4762
 7850SOL    HW128361   0.780   5.232   6.712 -0.5046  0.2953  0.0774
 7850SOL    HW228362   0.927   5.217   6.680 -0.5189 -2.3237  1.0492
 7851SOL     OW28363  10.851   5.935   5.543 -0.3977 -0.3393 -0.8928
 7851SOL    HW128364  10.755   5.929   5.548 -0.3848 -0.6005 -0.9201
 7851SOL    HW228365  10.879   5.845   5.526 -0.0606 -0.4762  0.3240
 7852SOL     OW28366   6.231  11.962  10.375  0.2601  0.5083 -0.0642
 7852SOL    HW128367   6.260  11.897  10.311 -1.3125  1.4568 -1.8105
 7852SOL    HW228368   6.234  12.045  10.329 -0.0872  1.3685  1.3857
 7853SOL     OW28369   7.084   8.933   1.280 -0.2336 -0.1442 -0.1686
 7853SOL    HW128370   7.005   8.958   1.232  0.4231 -0.7750 -1.6413
 7853SOL    HW228371   7.059   8.855   1.328 -1.2024  1.0925  1.4167
 7854SOL     OW28372  11.314   5.658   0.914  0.7087 -0.0669 -0.2409
 7854SOL    HW128373  11.351   5.726   0.970 -0.2071 -0.2038  0.5617
 7854SOL    HW228374  11.373   5.654   0.839  2.6056 -0.6290  1.1930
 7855SOL     OW28375   2.725   1.844  12.077  0.6257  0.1637  0.2195
 7855SOL    HW128376   2.745   1.936  12.098 -0.8730  0.9030 -1.4070
 7855SOL    HW228377   2.638   1.830  12.112  0.3529 -0.2633 -0.6148
 7856SOL     OW28378   4.713   3.826   6.501  0.0597  0.1430 -0.3066
 7856SOL    HW128379   4.673   3.741   6.515 -0.1471  0.5085  1.5864
 7856SOL    HW228380   4.647   3.877   6.454 -1.0982  0.2519  1.3935
 7857SOL     OW28381   7.257  11.078   2.294  0.8299 -0.0780 -0.2160
 7857SOL    HW128382   7.294  10.991   2.308 -1.0385 -0.8315  0.4892
 7857SOL    HW228383   7.288  11.104   2.208 -0.7621 -2.7209 -1.7400
 7858SOL     OW28384   5.617   2.015  12.284 -0.1936 -0.2500 -0.1077
 7858SOL    HW128385   5.629   2.008  12.189  1.1677  0.3566  0.0037
 7858SOL    HW228386   5.681   1.954  12.321 -0.9488 -0.7364  0.4262
 7859SOL     OW28387   1.129   5.474  12.380  0.2913  0.3227  0.0537
 7859SOL    HW128388   1.223   5.459  12.372  0.1188 -0.5335 -0.4445
 7859SOL    HW228389   1.097   5.473  12.289 -0.1028  1.3137  0.1642
 7860SOL     OW28390   4.815   4.639  10.947 -0.6124  0.3094  0.3877
 7860SOL    HW128391   4.909   4.628  10.964 -0.0235  0.7472 -2.1210
 7860SOL    HW228392   4.803   4.733  10.939 -0.8967  0.1866 -0.8794
 7861SOL     OW28393   0.842   9.221   8.678  0.7156 -0.2694 -0.0029
 7861SOL    HW128394   0.907   9.204   8.610  0.9918 -0.2907  0.2634
 7861SOL    HW228395   0.866   9.161   8.749  0.8339  0.2235  0.3746
 7862SOL     OW28396   2.392   0.162   4.286  0.3879  0.3531 -0.0122
 7862SOL    HW128397   2.472   0.114   4.266 -0.2978  0.1385 -2.6403
 7862SOL    HW228398   2.416   0.255   4.277  0.5878  0.3303  0.2827
 7863SOL     OW28399   1.286   8.344  11.845 -0.1347 -0.0944  0.4358
 7863SOL    HW128400   1.207   8.300  11.876  0.7596  0.0501  3.1736
 7863SOL    HW228401   1.337   8.361  11.925  0.8932  3.2838 -0.7743
 7864SOL     OW28402   0.753   1.135   0.068  0.2116 -0.4479  0.2345
 7864SOL    HW128403   0.666   1.165   0.095 -0.4962 -1.6618 -0.6170
 7864SOL    HW228404   0.811   1.206   0.093 -1.1314  0.7624  0.0561
 7865SOL     OW28405  12.022   9.635   6.652  0.4240 -0.0477 -0.3115
 7865SOL    HW128406  11.978   9.675   6.728 -1.3634  0.1806 -1.4043
 7865SOL    HW228407  12.057   9.710   6.603  2.3313 -0.2374  0.6581
 7866SOL     OW28408   8.721   5.627   3.016  0.4202 -0.3760 -0.0825
 7866SOL    HW128409   8.633   5.630   2.979  0.9000 -1.0396 -1.3350
 7866SOL    HW228410   8.736   5.716   3.047 -0.5683 -0.1705 -0.1371
 7867SOL     OW28411   5.897  10.419  10.122  1.2142  0.0087  0.3606
 7867SOL    HW128412   5.846  10.347  10.158 -1.0118  0.8172 -0.9774
 7867SOL    HW228413   5.935  10.385  10.041  2.0665 -0.3028  0.8745
 7868SOL     OW28414   7.461   7.822   1.279  0.3096 -0.3846  0.2095
 7868SOL    HW128415   7.489   7.894   1.222  0.2911 -0.3412  0.2547
 7868SOL    HW228416   7.433   7.753   1.219 -0.9444  0.1368  0.1576
 7869SOL     OW28417   0.403   9.508   0.866  0.2504  0.2516  0.0772
 7869SOL    HW128418   0.309   9.527   0.857  0.2152 -0.2624 -0.7714
 7869SOL    HW228419   0.437   9.512   0.776  0.7094 -1.2294  0.1578
 7870SOL     OW28420   4.392  10.321  11.355  0.2654  0.3002  0.7728
 7870SOL    HW128421   4.406  10.328  11.261  2.7689  0.9547  1.1155
 7870SOL    HW228422   4.395  10.227  11.374 -1.0142  0.1127  0.1406
 7871SOL     OW28423   7.366   7.489   1.989 -0.3222  0.1234  0.3403
 7871SOL    HW128424   7.372   7.579   1.957 -3.1192  0.6221  0.9411
 7871SOL    HW228425   7.284   7.487   2.039 -0.7176 -2.9449 -0.2589
 7872SOL     OW28426   8.883  11.282   5.024  0.1037 -0.2380  0.1280
 7872SOL    HW128427   8.970  11.256   5.054 -0.4988 -1.6784  0.7203
 7872SOL    HW228428   8.895  11.305   4.932  1.2576  0.4292  0.4176
 7873SOL     OW28429   4.012   0.720   9.156  0.0744  0.4328 -0.2479
 7873SOL    HW128430   3.951   0.646   9.146  1.1868 -0.4430 -0.8623
 7873SOL    HW228431   3.956   0.795   9.177 -1.2334 -0.3011 -0.9638
 7874SOL     OW28432   1.192   0.813  10.052  0.1150 -0.1266 -0.5846
 7874SOL    HW128433   1.170   0.890  10.000 -0.8407 -0.7557 -1.1637
 7874SOL    HW228434   1.129   0.746  10.023 -0.5027 -0.4908  1.4265
 7875SOL     OW28435  12.082   7.299   9.849 -0.0205  0.0333  0.0353
 7875SOL    HW128436  12.013   7.293   9.915  0.0946  1.0595  0.2571
 7875SOL    HW228437  12.064   7.380   9.802  1.4832  0.7199  0.5974
 7876SOL     OW28438   5.652   4.429   3.096 -0.3585  0.1078 -0.1054
 7876SOL    HW128439   5.725   4.367   3.099 -1.3412 -1.5667 -4.0077
 7876SOL    HW228440   5.619   4.432   3.185  0.4882 -4.1482  0.5771
 7877SOL     OW28441   6.936  10.256   3.289  0.7165  0.2694  0.0008
 7877SOL    HW128442   6.887  10.312   3.230 -0.2102 -2.6527 -2.2296
 7877SOL    HW228443   6.871  10.222   3.350  0.5998 -0.8079 -0.6920
 7878SOL     OW28444  11.136  12.203  10.886  0.5362 -0.6848 -0.2822
 7878SOL    HW128445  11.177  12.198  10.800 -0.7944 -0.5834 -0.9467
 7878SOL    HW228446  11.048  12.234  10.869  0.4290 -0.0897  1.1906
 7879SOL     OW28447   0.171  12.486   0.457 -0.2676 -0.2290 -0.0311
 7879SOL    HW128448   0.085  12.501   0.496  0.0267  0.7133  0.2854
 7879SOL    HW228449   0.205  12.573   0.440  0.6997 -0.5840  0.0115
 7880SOL     OW28450   5.735   9.694  12.460  0.3998 -0.2980  0.7298
 7880SOL    HW128451   5.744   9.600  12.447 -0.7032 -0.2195 -0.9423
 7880SOL    HW228452   5.823   9.724  12.480  1.0251 -1.5135 -0.0439
 7881SOL     OW28453   2.758  10.558   7.944  0.5690  0.0895  0.0865
 7881SOL    HW128454   2.711  10.478   7.918 -2.0877  1.9902 -1.4797
 7881SOL    HW228455   2.717  10.583   8.027  0.3281  0.6279 -0.1956
 7882SOL     OW28456   0.015  11.830   8.719 -0.1249 -0.2483 -0.1255
 7882SOL    HW128457  -0.045  11.904   8.721  0.1275  0.0047 -1.0420
 7882SOL    HW228458   0.000  11.784   8.801  1.7800  2.4579  1.9201
 7883SOL     OW28459  12.580   6.268  11.489  0.1374  0.3072 -0.4167
 7883SOL    HW128460  12.541   6.224  11.414  1.1934 -0.2755 -0.6388
 7883SOL    HW228461  12.513   6.263  11.557  0.0319 -1.1774 -0.6014
 7884SOL     OW28462   5.019  10.885   7.506  0.1089 -0.0337  0.5863
 7884SOL    HW128463   5.038  10.977   7.488  0.8441 -0.2203  0.3612
 7884SOL    HW228464   4.985  10.852   7.423 -3.1114  0.7398  1.4717
 7885SOL     OW28465  11.118   0.678   3.000  0.6266 -0.4406  1.1247
 7885SOL    HW128466  11.076   0.754   3.042 -0.1190  1.4596 -2.6168
 7885SOL    HW228467  11.205   0.709   2.976  0.4241 -0.8012 -0.1719
 7886SOL     OW28468  10.033   1.485   0.150 -0.0385 -0.3469 -0.3013
 7886SOL    HW128469  10.005   1.418   0.213 -2.2593 -1.5965 -2.4229
 7886SOL    HW228470   9.981   1.562   0.172  0.0674 -0.3915  0.1145
 7887SOL     OW28471   3.052   7.162   7.856 -0.6243 -0.1729 -0.1736
 7887SOL    HW128472   2.973   7.176   7.804  0.5190  0.3425 -1.8798
 7887SOL    HW228473   3.071   7.069   7.846  0.1996  0.1178 -1.6990
 7888SOL     OW28474   0.886   8.272   4.425 -0.4244  0.0253  0.3579
 7888SOL    HW128475   0.827   8.217   4.372  0.0705 -0.8503  0.6907
 7888SOL    HW228476   0.953   8.300   4.363 -0.8038  0.4462  0.1345
 7889SOL     OW28477   7.078   9.785  11.702 -0.1936  0.0645  0.0019
 7889SOL    HW128478   7.092   9.792  11.608  0.8086 -0.6936  0.0792
 7889SOL    HW228479   7.153   9.830  11.742 -0.7608  0.6389  0.4431
 7890SOL     OW28480   1.094   5.015   3.101 -0.0036 -0.2784 -0.3744
 7890SOL    HW128481   1.034   4.969   3.159  1.0172  0.3495  1.2481
 7890SOL    HW228482   1.087   4.970   3.017  0.2154 -2.7485  0.8616
 7891SOL     OW28483   0.419   8.351  10.028 -0.2412  0.2753  0.0226
 7891SOL    HW128484   0.379   8.275  10.071 -0.0931  0.6702  0.8801
 7891SOL    HW228485   0.351   8.417  10.027  0.4227  1.0423  1.7263
 7892SOL     OW28486   0.967   4.342   3.794 -0.2316 -0.0533  0.2638
 7892SOL    HW128487   0.967   4.426   3.840  1.2844  0.5322 -0.7191
 7892SOL    HW228488   0.879   4.307   3.807  0.1199  0.0353  3.6146
 7893SOL     OW28489   1.243   3.974   0.309 -0.0173  0.4103  0.6283
 7893SOL    HW128490   1.308   4.002   0.374  0.4799 -0.8789  0.7129
 7893SOL    HW228491   1.217   3.886   0.337  0.9782 -0.6241 -1.4568
 7894SOL     OW28492   0.561   2.038   5.759  0.3654 -0.0764 -0.5007
 7894SOL    HW128493   0.589   1.949   5.738  0.3039  0.0546 -1.1819
 7894SOL    HW228494   0.587   2.051   5.850  1.1152 -0.5003 -0.6456
 7895SOL     OW28495   2.144   3.094   7.865  0.1024 -0.1038  0.0824
 7895SOL    HW128496   2.104   3.014   7.831  0.5470  0.3591 -1.6179
 7895SOL    HW228497   2.142   3.083   7.960  0.2855 -2.1989 -0.1070
 7896SOL     OW28498   0.124   7.151   9.047  0.1040  0.4970 -0.0343
 7896SOL    HW128499   0.046   7.097   9.060  2.1559 -2.2578  2.1795
 7896SOL    HW228500   0.118   7.219   9.114  0.6981 -1.2195  1.8497
 7897SOL     OW28501   6.148  10.654  11.397 -0.0519 -0.0654  0.2480
 7897SOL    HW128502   6.054  10.637  11.407 -0.1120  0.5109  0.7902
 7897SOL    HW228503   6.157  10.691  11.309 -0.0384 -1.9920 -0.5964
 7898SOL     OW28504   8.079   0.766  11.964 -0.2908 -0.4272 -0.5067
 7898SOL    HW128505   8.070   0.770  12.059  3.4982 -0.7495  0.0393
 7898SOL    HW228506   8.025   0.838  11.931 -0.5230  0.6491  2.0130
 7899SOL     OW28507   1.331   4.728   9.551  0.3565 -0.3922  0.4598
 7899SOL    HW128508   1.294   4.735   9.639  0.6970 -2.2636  0.7994
 7899SOL    HW228509   1.309   4.639   9.523  1.7120 -0.4078 -0.6674
 7900SOL     OW28510   5.446   7.009  12.142 -0.3737 -0.1324  0.3046
 7900SOL    HW128511   5.529   7.029  12.186 -0.0988  1.5822 -0.8754
 7900SOL    HW228512   5.380   7.052  12.196 -0.4453 -1.0037  0.9256
 7901SOL     OW28513   5.107  12.486   0.233  0.1515  0.4729 -0.2908
 7901SOL    HW128514   5.035  12.519   0.287 -2.1767 -0.9553 -2.3710
 7901SOL    HW228515   5.164  12.562   0.221  0.3703  1.0818  3.3433
 7902SOL     OW28516   9.970   6.946   6.174  0.0820 -0.2293  0.0673
 7902SOL    HW128517  10.003   7.035   6.174 -1.4959  0.4531  2.5363
 7902SOL    HW228518   9.964   6.922   6.267 -1.1153 -2.2800 -0.4608
 7903SOL     OW28519   5.004   4.715   6.486 -0.0621  0.6427 -0.1348
 7903SOL    HW128520   5.062   4.643   6.459 -0.9042 -0.7923  1.6613
 7903SOL    HW228521   5.022   4.785   6.423 -0.0335 -1.5181 -2.7035
 7904SOL     OW28522   5.790   5.495   6.009  0.0324  0.4148 -0.1404
 7904SOL    HW128523   5.781   5.401   5.997 -0.2890  0.3010  0.8841
 7904SOL    HW228524   5.810   5.529   5.922  1.5583 -0.7548 -0.2919
 7905SOL     OW28525   2.817   2.434   2.690 -0.2279  0.3788  0.1942
 7905SOL    HW128526   2.752   2.389   2.636  0.0820 -1.8946  1.6051
 7905SOL    HW228527   2.768   2.467   2.765 -0.0276  0.0392  0.4792
 7906SOL     OW28528  12.227   6.100  11.246  0.4031 -1.0677 -0.0624
 7906SOL    HW128529  12.247   6.062  11.160 -1.7764 -1.4989 -0.4529
 7906SOL    HW228530  12.198   6.026  11.299  2.0539 -0.8605  1.2094
 7907SOL     OW28531   7.050  11.018  12.467 -0.7248  0.3056 -0.9081
 7907SOL    HW128532   7.111  10.953  12.433  0.3730  0.9384 -0.2297
 7907SOL    HW228533   6.997  11.043  12.391  2.5677  2.7322 -2.6961
 7908SOL     OW28534   6.468   4.205  12.084 -0.2228  0.3765 -0.7547
 7908SOL    HW128535   6.510   4.184  12.001 -0.8914 -0.9984 -0.7653
 7908SOL    HW228536   6.382   4.238  12.060 -0.3453  0.1573 -0.6205
 7909SOL     OW28537  11.344   2.832   0.447 -0.8041  0.3577  0.6099
 7909SOL    HW128538  11.377   2.890   0.379 -0.9482 -0.2634  0.0003
 7909SOL    HW228539  11.411   2.833   0.515 -0.3964  0.5418  0.2048
 7910SOL     OW28540   6.736   3.576   0.883 -0.1122  0.0774  0.2992
 7910SOL    HW128541   6.670   3.621   0.832  0.0423 -0.6797 -0.5912
 7910SOL    HW228542   6.688   3.539   0.958 -0.6360 -0.1757 -0.1582
 7911SOL     OW28543  11.980   8.998   0.037  0.0456  0.2612  0.4182
 7911SOL    HW128544  12.021   8.943  -0.030 -0.2762  0.2951  0.1889
 7911SOL    HW228545  11.955   8.936   0.106  0.5582  0.2534  0.5993
 7912SOL     OW28546   8.095   7.470   0.928 -0.0847 -0.0908 -0.2835
 7912SOL    HW128547   8.133   7.528   0.994 -0.2639  1.3947 -1.4398
 7912SOL    HW228548   8.035   7.414   0.977  0.1160  0.6714  0.8745
 7913SOL     OW28549   7.792   8.008   6.637 -0.3690  0.3757  0.0758
 7913SOL    HW128550   7.776   8.019   6.731 -2.7493  2.2361 -0.4481
 7913SOL    HW228551   7.888   8.005   6.629 -0.0996 -1.9040  2.6901
 7914SOL     OW28552   1.940   4.483   7.929 -0.8330  0.3803  0.0977
 7914SOL    HW128553   1.940   4.508   8.022  0.6002  0.5681  0.0768
 7914SOL    HW228554   1.986   4.398   7.928 -0.6707  0.4697 -0.4528
 7915SOL     OW28555   2.102   8.275   1.094  0.2399 -0.2819  0.2732
 7915SOL    HW128556   2.169   8.266   1.162  2.5698 -1.3105 -1.9554
 7915SOL    HW228557   2.112   8.196   1.041 -0.6820  0.9676 -1.8973
 7916SOL     OW28558  12.392   3.061   8.181  0.0224  0.1442  0.0924
 7916SOL    HW128559  12.451   3.106   8.243 -0.3432  0.5017  0.1858
 7916SOL    HW228560  12.444   2.988   8.147  1.5116  2.0150 -1.9091
 7917SOL     OW28561   6.938   7.189   7.278  0.4447  0.3277 -0.5723
 7917SOL    HW128562   6.956   7.262   7.338  0.8069  0.8717 -1.3378
 7917SOL    HW228563   6.912   7.117   7.336 -0.3171  1.1730  0.1806
 7918SOL     OW28564  12.333   0.785   0.788  0.2076  0.0114 -0.0518
 7918SOL    HW128565  12.380   0.827   0.860 -1.3100  1.9561 -0.1379
 7918SOL    HW228566  12.400   0.774   0.720  0.8457  1.5885  0.2764
 7919SOL     OW28567   8.561   6.551   6.189 -0.5185  0.6016  0.1818
 7919SOL    HW128568   8.588   6.531   6.278 -0.9492  1.5819  0.5568
 7919SOL    HW228569   8.601   6.483   6.135  0.3792  0.4366  1.0306
 7920SOL     OW28570   7.277   8.517   7.852  0.0214 -0.0922 -0.1988
 7920SOL    HW128571   7.310   8.541   7.939 -0.8385  1.2172 -0.2138
 7920SOL    HW228572   7.220   8.442   7.867  0.3348 -0.2359  0.2828
 7921SOL     OW28573   0.580   4.897   9.942  0.2005 -0.3287  0.9584
 7921SOL    HW128574   0.485   4.888   9.950  0.2731 -2.1525  0.1942
 7921SOL    HW228575   0.592   4.966   9.877 -0.5716  0.3070  1.4661
 7922SOL     OW28576   2.689  10.304   8.549 -0.4990 -0.0690  0.3207
 7922SOL    HW128577   2.655  10.309   8.460 -4.0775  1.8789  1.5907
 7922SOL    HW228578   2.741  10.383   8.560 -0.0579 -0.3105 -0.0340
 7923SOL     OW28579   7.649   0.998   4.128 -0.0972 -0.2767 -0.3695
 7923SOL    HW128580   7.696   1.017   4.210 -0.1551 -1.0159 -0.1520
 7923SOL    HW228581   7.558   0.984   4.156 -0.7216  2.2161 -0.9158
 7924SOL     OW28582   4.009   7.863  10.401 -0.7701 -0.4001 -0.1211
 7924SOL    HW128583   3.917   7.868  10.429 -0.1373  0.7632  2.0066
 7924SOL    HW228584   4.032   7.771  10.412 -2.0626 -1.0148 -2.1620
 7925SOL     OW28585   2.256   2.011   5.852 -0.3591  0.1517  0.0891
 7925SOL    HW128586   2.256   2.106   5.855  1.3095  0.1599  1.6922
 7925SOL    HW228587   2.164   1.987   5.845 -0.9872  1.8682  1.7697
 7926SOL     OW28588   0.922   5.593   2.568  0.1346 -0.5683  0.0881
 7926SOL    HW128589   0.925   5.672   2.514  0.3764 -1.2049 -0.8633
 7926SOL    HW228590   1.008   5.553   2.555  0.0764 -0.8974  0.6995
 7927SOL     OW28591   0.217   9.844   7.593 -0.1527  0.5978  0.5226
 7927SOL    HW128592   0.299   9.876   7.631  0.2510 -0.4165  0.5414
 7927SOL    HW228593   0.162   9.822   7.668 -0.2127  0.6971  0.5085
 7928SOL     OW28594  11.150  10.291   7.005  0.3154 -0.7928 -0.8645
 7928SOL    HW128595  11.193  10.363   7.051 -0.4396  0.2245 -1.7106
 7928SOL    HW228596  11.057  10.311   7.008 -0.0811 -2.5470  0.2213
 7929SOL     OW28597   2.490   5.556   0.346 -1.1338 -0.1601 -0.3099
 7929SOL    HW128598   2.568   5.602   0.314 -1.6799  0.6900 -0.4559
 7929SOL    HW228599   2.525   5.486   0.401 -0.2776  1.1729  0.9322
 7930SOL     OW28600   2.599   8.921  11.816 -0.5629 -0.3348 -0.5830
 7930SOL    HW128601   2.548   8.878  11.748  0.7547  0.4820 -2.1822
 7930SOL    HW228602   2.672   8.962  11.769 -0.0681  1.0201  1.2245
 7931SOL     OW28603   2.895   3.226   4.167 -0.2308  0.0376  0.1547
 7931SOL    HW128604   2.824   3.278   4.128 -0.0085 -0.5622 -1.1017
 7931SOL    HW228605   2.850   3.155   4.213 -0.4727  0.1327  0.0704
 7932SOL     OW28606   5.206   3.916   1.315 -0.4622 -0.3681  0.1860
 7932SOL    HW128607   5.205   3.831   1.361  1.2459 -0.7814 -0.4603
 7932SOL    HW228608   5.158   3.900   1.235 -3.1636  0.2633  1.5736
 7933SOL     OW28609   0.162   2.394   0.618 -0.5423  0.2271 -0.3201
 7933SOL    HW128610   0.230   2.328   0.604  3.1839  3.5727 -0.1537
 7933SOL    HW228611   0.154   2.437   0.533  0.9667  2.5894  0.6103
 7934SOL     OW28612   1.752   5.205   4.731  0.3542  0.3154 -0.0212
 7934SOL    HW128613   1.726   5.297   4.722 -0.8881  0.0303  0.3883
 7934SOL    HW228614   1.818   5.192   4.663 -0.4612  1.1511 -1.0158
 7935SOL     OW28615   6.183   4.767  10.274  0.2526 -0.2824  0.0439
 7935SOL    HW128616   6.112   4.703  10.282  0.1709 -0.2716 -0.5830
 7935SOL    HW228617   6.239   4.734  10.204 -0.2456  0.7522 -0.8784
 7936SOL     OW28618   0.883   3.740  10.666  0.3363  0.3640 -0.3564
 7936SOL    HW128619   0.803   3.764  10.619  0.7306 -1.3417 -2.0478
 7936SOL    HW228620   0.943   3.709  10.597  1.5239 -0.7827  1.1111
 7937SOL     OW28621  12.108   5.077   8.484 -0.2764  0.3381 -0.5687
 7937SOL    HW128622  12.133   5.028   8.405 -0.5107  2.8908 -2.3407
 7937SOL    HW228623  12.192   5.095   8.528 -0.1518 -1.1694 -0.1234
 7938SOL     OW28624   4.351   3.547   6.196  0.1386 -0.2652  0.7428
 7938SOL    HW128625   4.341   3.452   6.193  0.4757 -0.3278  1.5093
 7938SOL    HW228626   4.276   3.577   6.247 -0.0418 -0.1089  0.3846
 7939SOL     OW28627   9.510   6.361   5.584  0.4381  0.1649 -0.6356
 7939SOL    HW128628   9.586   6.373   5.641 -1.2280  0.0015  1.7955
 7939SOL    HW228629   9.455   6.438   5.601 -1.5194 -1.3671  0.4065
 7940SOL     OW28630   3.281   3.559  11.779 -1.2612 -0.1390 -0.7298
 7940SOL    HW128631   3.364   3.533  11.739 -0.5187  0.0438  0.6513
 7940SOL    HW228632   3.246   3.478  11.815 -0.0009  0.3061  1.6639
 7941SOL     OW28633   1.225  12.444   7.182 -0.1553 -0.0977  0.3588
 7941SOL    HW128634   1.244  12.511   7.118 -0.0908  0.5383  1.0283
 7941SOL    HW228635   1.310  12.425   7.223 -0.3120  0.0377  0.7582
 7942SOL     OW28636   8.346  10.249  11.350  0.1283  0.3728 -0.4517
 7942SOL    HW128637   8.349  10.154  11.360  0.7502  0.5978  2.1595
 7942SOL    HW228638   8.360  10.263  11.256  1.4173 -2.0350 -0.7093
 7943SOL     OW28639   5.358   5.805   0.521 -0.6765 -0.1500 -0.3871
 7943SOL    HW128640   5.448   5.783   0.496 -0.1342  1.3850  0.1357
 7943SOL    HW228641   5.360   5.810   0.616 -0.8329  1.7526 -0.4489
 7944SOL     OW28642   8.813   1.550   7.609 -0.0986  0.2657  0.3578
 7944SOL    HW128643   8.862   1.590   7.538  1.4403 -0.5633  0.9062
 7944SOL    HW228644   8.746   1.498   7.566  1.7004 -1.3751 -0.5863
 7945SOL     OW28645   7.070   3.423   2.763 -0.3216 -0.4036  0.2926
 7945SOL    HW128646   7.024   3.501   2.795 -1.2614 -0.7659 -0.1245
 7945SOL    HW228647   7.063   3.428   2.668 -0.6166 -1.1127  0.2660
 7946SOL     OW28648   6.647  11.713   4.074 -0.2249  0.6457  0.0289
 7946SOL    HW128649   6.597  11.790   4.049  0.0154  0.6119 -0.5751
 7946SOL    HW228650   6.606  11.641   4.027  0.4535  0.6355 -0.5711
 7947SOL     OW28651   9.943   1.313   8.690 -0.0645  0.0713 -0.0793
 7947SOL    HW128652   9.968   1.318   8.598  1.1256  1.0654  0.2705
 7947SOL    HW228653  10.017   1.270   8.733 -0.3380  0.1694  0.5060
 7948SOL     OW28654   8.503   9.804  11.629 -0.1319 -0.4833  0.2313
 7948SOL    HW128655   8.513   9.894  11.662  0.8158 -0.8317  0.9364
 7948SOL    HW228656   8.469   9.755  11.704  3.1738 -1.5377  1.2372
 7949SOL     OW28657   4.109   8.743   1.274 -0.5978 -0.7634 -0.1625
 7949SOL    HW128658   4.144   8.695   1.199  0.8120 -0.2494  0.1346
 7949SOL    HW228659   4.060   8.815   1.236 -1.1977 -1.3738 -0.5854
 7950SOL     OW28660   5.441   6.569   3.732 -0.4510 -0.0961  0.4794
 7950SOL    HW128661   5.363   6.600   3.777 -2.8237 -2.2307 -1.8006
 7950SOL    HW228662   5.467   6.642   3.676 -0.8067  0.6201  1.2270
 7951SOL     OW28663   2.618   6.977   5.508 -0.2175 -0.3620  0.0157
 7951SOL    HW128664   2.703   6.947   5.541 -0.2104  0.3642  0.6778
 7951SOL    HW228665   2.566   6.897   5.501  0.8353 -0.9554 -1.3859
 7952SOL     OW28666   8.244   6.318   3.263  0.6142  0.1559  0.0573
 7952SOL    HW128667   8.227   6.412   3.252  1.6702  0.3432 -0.0642
 7952SOL    HW228668   8.327   6.314   3.310  0.4076 -0.7202  0.3620
 7953SOL     OW28669   2.220   1.052   2.283 -0.1825 -0.3749 -0.6430
 7953SOL    HW128670   2.292   0.990   2.294 -0.6519 -1.2420 -2.1465
 7953SOL    HW228671   2.144   1.009   2.323  0.1022  0.5677  1.0051
 7954SOL     OW28672   6.317   1.056   6.927  0.4093  0.2627 -0.9129
 7954SOL    HW128673   6.270   1.116   6.985 -1.1858 -0.9691 -0.8581
 7954SOL    HW228674   6.248   1.002   6.888  1.5533  0.1913 -2.9742
 7955SOL     OW28675   7.706   0.497   0.699 -0.3311  0.2480 -0.1179
 7955SOL    HW128676   7.744   0.509   0.786 -1.3354 -1.4805  0.6084
 7955SOL    HW228677   7.615   0.475   0.715 -0.3647 -0.8470 -1.5685
 7956SOL     OW28678   2.894   7.588   0.134  0.0006  0.1277  0.6969
 7956SOL    HW128679   2.964   7.628   0.083 -2.1170  1.8760 -1.0055
 7956SOL    HW228680   2.919   7.604   0.225  1.2642  1.6859  0.1244
 7957SOL     OW28681   5.867   6.383   7.576 -0.5288 -0.1289 -0.4983
 7957SOL    HW128682   5.778   6.417   7.565  0.3572  2.4478 -0.3560
 7957SOL    HW228683   5.868   6.346   7.664 -1.4208 -0.0633 -0.4490
 7958SOL     OW28684   3.680   9.934   2.922  0.8103  0.2928  0.2137
 7958SOL    HW128685   3.756   9.990   2.903 -0.4013  2.2385  0.8005
 7958SOL    HW228686   3.606   9.979   2.881 -0.4342 -0.1133  1.9044
 7959SOL     OW28687   9.202   3.591  11.177  1.2911  0.2052  0.4185
 7959SOL    HW128688   9.208   3.509  11.227  0.6465  0.6777  1.3161
 7959SOL    HW228689   9.118   3.585  11.132  0.6959  0.8452  1.4029
 7960SOL     OW28690   7.999   0.402   8.729  0.4573  0.6777  0.3188
 7960SOL    HW128691   8.035   0.336   8.671  0.3363  1.8205 -1.1063
 7960SOL    HW228692   8.031   0.485   8.694 -0.0515  1.4373  1.5836
 7961SOL     OW28693  11.257   6.398  10.466  0.1811 -0.2501  0.1127
 7961SOL    HW128694  11.322   6.467  10.454  0.3428 -0.5417 -0.7849
 7961SOL    HW228695  11.279   6.333  10.398  0.0642 -1.1998  0.9609
 7962SOL     OW28696   2.727  10.840   3.071  0.1771 -0.6654  0.0941
 7962SOL    HW128697   2.757  10.766   3.124  1.5907  0.7011  1.3188
 7962SOL    HW228698   2.671  10.801   3.004 -0.8894 -2.6089  1.9713
 7963SOL     OW28699   6.001   4.424  12.123  0.0337 -0.1495  0.0785
 7963SOL    HW128700   5.969   4.512  12.145 -0.4473  0.3681 -2.4604
 7963SOL    HW228701   6.074   4.440  12.063  0.4371 -1.4934  0.1800
 7964SOL     OW28702   2.537   5.227   2.039 -0.9031  0.1751  0.6063
 7964SOL    HW128703   2.503   5.310   2.007 -0.0797  0.3159  0.0717
 7964SOL    HW228704   2.561   5.179   1.960  3.1631  1.3689  0.8671
 7965SOL     OW28705  10.842  11.676   6.676 -0.0411  0.2349 -0.1659
 7965SOL    HW128706  10.908  11.607   6.675  0.5185  0.7578  0.0825
 7965SOL    HW228707  10.758  11.630   6.678  0.3449 -0.4357  0.8653
 7966SOL     OW28708   9.465  11.233  12.369 -0.2651  0.0339 -0.1447
 7966SOL    HW128709   9.500  11.165  12.426 -0.5757 -0.0135 -0.0140
 7966SOL    HW228710   9.403  11.188  12.312 -2.3112  0.5848  1.5161
 7967SOL     OW28711   7.116   9.322   9.858  0.5325 -0.0176 -0.1242
 7967SOL    HW128712   7.071   9.381   9.798  0.2168  0.6178  0.7310
 7967SOL    HW228713   7.051   9.300   9.924  0.3153 -2.1599 -0.9504
 7968SOL     OW28714   1.938   9.352   9.885 -0.5717  0.4491 -0.3032
 7968SOL    HW128715   2.020   9.350   9.934 -0.8701  3.1621  0.4540
 7968SOL    HW228716   1.880   9.291   9.933 -0.0063  0.9806  1.1142
 7969SOL     OW28717   9.675   2.942   5.311  0.0247 -0.0368  0.5928
 7969SOL    HW128718   9.769   2.935   5.326  0.2317 -1.9531 -1.0945
 7969SOL    HW228719   9.636   2.907   5.391  0.7704  0.1486  1.0449
 7970SOL     OW28720  10.640   9.771   9.689  0.3335  0.7326  0.0780
 7970SOL    HW128721  10.544   9.767   9.695  0.3457  0.5577  0.1690
 7970SOL    HW228722  10.670   9.693   9.736  0.5297  0.9262  0.2756
 7971SOL     OW28723  10.975   4.445   8.685  0.0273 -0.2298  0.2336
 7971SOL    HW128724  11.037   4.473   8.753 -0.5739 -1.1157  1.1832
 7971SOL    HW228725  10.956   4.525   8.635  1.8276  0.0754 -0.0112
 7972SOL     OW28726   2.303   9.741   7.542  0.2690  1.1095  0.2864
 7972SOL    HW128727   2.370   9.808   7.526  2.0168 -0.6899 -0.4429
 7972SOL    HW228728   2.310   9.682   7.466 -0.5092 -0.4260  1.3654
 7973SOL     OW28729   3.298   0.354  11.008 -0.2721  0.2224  0.2208
 7973SOL    HW128730   3.259   0.322  11.090 -0.1480 -0.4155  0.0392
 7973SOL    HW228731   3.313   0.275  10.957  0.6160  0.5157  0.0031
 7974SOL     OW28732   6.130   9.787  11.549  0.4903  0.2862  1.0314
 7974SOL    HW128733   6.094   9.787  11.460 -1.0348 -0.5575  1.6090
 7974SOL    HW228734   6.127   9.878  11.577 -0.3757  0.3658  0.7133
 7975SOL     OW28735  12.285   4.811   0.804 -0.1265  0.7078  0.2532
 7975SOL    HW128736  12.281   4.722   0.768 -1.9504 -0.5225  3.1429
 7975SOL    HW228737  12.297   4.798   0.898 -0.3149  3.5743  0.7517
 7976SOL     OW28738   8.028  10.484   6.320 -0.1140 -0.0078 -0.2114
 7976SOL    HW128739   8.068  10.546   6.259 -0.7362 -0.5908 -1.2533
 7976SOL    HW228740   7.951  10.529   6.353 -0.3406 -0.0734 -0.6492
 7977SOL     OW28741   2.142   2.412  11.934 -0.2138  0.6364 -0.4416
 7977SOL    HW128742   2.150   2.324  11.898 -0.5455  0.2140  0.4962
 7977SOL    HW228743   2.227   2.453  11.917 -0.0654  0.1531 -0.8990
 7978SOL     OW28744   2.320   0.443   9.746  0.7638 -0.2346  0.4302
 7978SOL    HW128745   2.404   0.475   9.712  1.0558 -0.3173  1.0730
 7978SOL    HW228746   2.338   0.353   9.774  0.0117 -0.9103 -1.1277
 7979SOL     OW28747  11.467   9.923   9.021 -0.0716 -0.2933 -0.3526
 7979SOL    HW128748  11.509  10.003   8.989 -0.4989  0.6842  1.3774
 7979SOL    HW228749  11.374   9.946   9.026 -0.2555 -1.0396 -0.2193
 7980SOL     OW28750   2.492   9.689  12.186  0.0757 -0.2260 -0.4381
 7980SOL    HW128751   2.537   9.627  12.128  0.1620  0.8427 -1.5553
 7980SOL    HW228752   2.528   9.774  12.163 -1.5967  0.5199 -0.4871
 7981SOL     OW28753   8.505  11.137   1.213 -0.6228  0.4343  0.3950
 7981SOL    HW128754   8.422  11.185   1.205 -0.2300  0.9016 -1.2445
 7981SOL    HW228755   8.565  11.183   1.155  0.2222 -1.1108 -0.0171
 7982SOL     OW28756   2.407   0.021   1.728  0.1350 -0.0320 -0.5077
 7982SOL    HW128757   2.470   0.089   1.707 -1.7376  2.2034  0.7105
 7982SOL    HW228758   2.386  -0.020   1.644  1.1973  0.9566 -1.2779
 7983SOL     OW28759   8.633   1.018  10.078  0.0256  0.6286 -0.4276
 7983SOL    HW128760   8.632   0.927  10.049  0.2701  0.5003 -0.0250
 7983SOL    HW228761   8.559   1.026  10.137  1.0178  0.2492  0.9007
 7984SOL     OW28762   9.813   0.827   4.686 -0.1157  0.6892 -0.1914
 7984SOL    HW128763   9.886   0.880   4.720 -0.0063  0.6550 -0.3734
 7984SOL    HW228764   9.777   0.783   4.764  1.0863 -0.5787 -0.3142
 7985SOL     OW28765   0.240   0.343   1.183  0.2208  0.1974  0.3441
 7985SOL    HW128766   0.162   0.292   1.205 -2.3414  2.8584 -1.8985
 7985SOL    HW228767   0.251   0.403   1.257  0.4140 -0.3674  0.7939
 7986SOL     OW28768   7.831   9.995   8.414 -0.3977  0.2685 -0.4270
 7986SOL    HW128769   7.868  10.081   8.394 -0.7272  0.5010 -0.0535
 7986SOL    HW228770   7.889   9.959   8.481 -0.4113  0.3124 -0.3924
 7987SOL     OW28771  12.466  12.212  11.757  0.1526  0.0215  0.2886
 7987SOL    HW128772  12.557  12.238  11.767  0.0230  0.3141  0.7410
 7987SOL    HW228773  12.462  12.171  11.670  0.4679  1.1086 -0.2663
 7988SOL     OW28774   9.637   1.643   5.047 -0.2787 -0.3601  0.0747
 7988SOL    HW128775   9.651   1.591   5.126 -2.4850 -1.2770 -0.0753
 7988SOL    HW228776   9.687   1.596   4.979  0.1641 -0.5787  0.5399
 7989SOL     OW28777   7.186   2.748   4.130 -0.7607 -0.1508 -0.2566
 7989SOL    HW128778   7.156   2.838   4.115 -0.1154  0.0585 -0.3363
 7989SOL    HW228779   7.134   2.695   4.069 -0.9593  0.1998 -0.3949
 7990SOL     OW28780   6.592   2.985   6.714 -0.3040 -0.4999 -0.4556
 7990SOL    HW128781   6.682   2.989   6.680 -0.7894 -0.7205 -1.8042
 7990SOL    HW228782   6.537   3.008   6.640 -1.3903 -0.6729  0.2806
 7991SOL     OW28783  10.091   7.646   9.575 -0.4335 -0.0982  0.5594
 7991SOL    HW128784  10.023   7.628   9.510 -0.4614  0.9762  0.2841
 7991SOL    HW228785  10.124   7.559   9.599 -0.7336 -0.5342 -0.5443
 7992SOL     OW28786   0.440   0.498  12.479 -0.3126  0.0130  0.3029
 7992SOL    HW128787   0.427   0.557  12.405  0.9623  1.1443  0.9365
 7992SOL    HW228788   0.535   0.483  12.482 -0.4096 -0.5246  1.3137
 7993SOL     OW28789   6.135   5.916   8.978 -0.4493  0.0079  0.2283
 7993SOL    HW128790   6.216   5.950   9.015  0.0910  0.3047 -1.1545
 7993SOL    HW228791   6.077   5.992   8.971 -0.3252  0.0787 -0.0795
 7994SOL     OW28792   0.702  11.743   9.818  0.4833 -0.4854 -0.2696
 7994SOL    HW128793   0.662  11.677   9.875  0.1741  0.8244  1.1228
 7994SOL    HW228794   0.785  11.704   9.791  1.0107 -0.8818  1.7437
 7995SOL     OW28795   9.982   7.854   8.366 -0.2787  0.4298  0.4876
 7995SOL    HW128796   9.943   7.937   8.341 -0.1178  0.8795  1.6566
 7995SOL    HW228797  10.052   7.840   8.301  0.0755  1.5055  0.6127
 7996SOL     OW28798  11.262   2.063   1.251  0.3701 -0.5250 -0.5392
 7996SOL    HW128799  11.307   2.145   1.271  0.2083 -0.5058 -0.2502
 7996SOL    HW228800  11.184   2.064   1.307 -0.1665 -0.4066 -1.2681
 7997SOL     OW28801  12.224   9.519   5.412 -0.0913 -0.1041 -0.2331
 7997SOL    HW128802  12.244   9.611   5.391 -0.2475 -0.0144  0.0102
 7997SOL    HW228803  12.138   9.522   5.454  0.5564 -0.1821  1.1503
 7998SOL     OW28804   9.914   8.547   0.602  0.3587 -0.3653  0.4645
 7998SOL    HW128805   9.997   8.576   0.563 -0.7760  0.7220 -1.2824
 7998SOL    HW228806   9.915   8.585   0.689  0.8476  1.3435 -0.2417
 7999SOL     OW28807   5.336   3.806   2.362 -0.0077 -0.1903 -0.7343
 7999SOL    HW128808   5.324   3.711   2.356 -2.2641 -0.0829  0.8206
 7999SOL    HW228809   5.396   3.819   2.435 -0.7984 -0.4233 -0.0206
 8000SOL     OW28810   5.792   1.513   1.427 -0.3859 -0.4147 -0.2979
 8000SOL    HW128811   5.730   1.453   1.385  0.3627 -1.7882  0.4985
 8000SOL    HW228812   5.867   1.515   1.367 -0.6138  0.1535 -0.5750
 8001SOL     OW28813   3.149   7.770   0.334  0.2047 -0.0967 -0.2284
 8001SOL    HW128814   3.224   7.799   0.385  0.3991 -1.6119  0.4238
 8001SOL    HW228815   3.105   7.707   0.392 -0.0189 -1.2592 -1.6213
 8002SOL     OW28816   2.310  12.206  11.527  0.2591 -0.1515  0.2197
 8002SOL    HW128817   2.286  12.173  11.614  1.3257 -2.1215 -0.1778
 8002SOL    HW228818   2.236  12.181  11.471  0.2126 -0.1512  0.2800
 8003SOL     OW28819   7.419  11.522   2.684  0.0098 -0.0256 -0.6048
 8003SOL    HW128820   7.468  11.565   2.754 -0.4288 -0.4144 -0.0448
 8003SOL    HW228821   7.384  11.442   2.725 -0.2263 -0.2744 -1.2779
 8004SOL     OW28822   0.147   7.280   9.932 -0.3632 -0.3788 -0.5785
 8004SOL    HW128823   0.119   7.286   9.841 -0.9197  1.9053 -0.3167
 8004SOL    HW228824   0.096   7.207   9.968 -3.1699  1.1882 -1.1150
 8005SOL     OW28825   0.198   1.166   7.093 -0.3138  0.0839  0.8690
 8005SOL    HW128826   0.202   1.138   7.184 -0.7272  0.1294  0.9060
 8005SOL    HW228827   0.106   1.153   7.068 -0.0620 -0.5641  0.2496
 8006SOL     OW28828   6.883   5.180   3.150 -0.2315  0.5620 -0.2891
 8006SOL    HW128829   6.823   5.124   3.199 -0.8830  0.2290 -1.4459
 8006SOL    HW228830   6.923   5.236   3.217 -0.6702 -0.2651  0.6950
 8007SOL     OW28831   1.451   9.869   9.852 -0.7763  0.1355 -0.2560
 8007SOL    HW128832   1.506   9.794   9.829 -0.3420  0.6762 -1.0221
 8007SOL    HW228833   1.384   9.872   9.785 -3.4861 -2.1360  2.1013
 8008SOL     OW28834  12.116   2.848  12.290 -0.7355  0.4262  0.1631
 8008SOL    HW128835  12.141   2.867  12.199  1.4457 -2.0296  0.1400
 8008SOL    HW228836  12.178   2.897  12.343 -2.1044  1.9820  0.4091
 8009SOL     OW28837   1.832   0.593  10.494  0.3966  0.1146 -0.3303
 8009SOL    HW128838   1.767   0.577  10.426 -0.2531 -2.0478  0.7104
 8009SOL    HW228839   1.785   0.576  10.576  1.9993 -0.5576  0.4902
 8010SOL     OW28840  10.114   8.900   4.161 -0.3812 -0.0603 -0.4440
 8010SOL    HW128841  10.156   8.969   4.110  2.0300 -0.1709  1.2471
 8010SOL    HW228842  10.121   8.929   4.252 -2.1326 -1.1173  0.0771
 8011SOL     OW28843   9.897   9.428   0.141 -0.1061 -0.0219 -0.4161
 8011SOL    HW128844   9.889   9.346   0.190 -1.8940  0.6990  0.6022
 8011SOL    HW228845   9.850   9.411   0.059  1.0732 -0.5540 -1.0075
 8012SOL     OW28846   5.365  10.252  11.906 -0.2696 -0.0876  0.4767
 8012SOL    HW128847   5.331  10.179  11.957  0.3788  0.4265  1.7008
 8012SOL    HW228848   5.291  10.313  11.899 -1.4747 -1.7025 -2.3701
 8013SOL     OW28849   7.361   4.896   5.041  0.4246 -0.2049 -0.2456
 8013SOL    HW128850   7.419   4.900   5.118  0.7476 -1.1858 -0.4252
 8013SOL    HW228851   7.382   4.975   4.991  1.6790 -0.5770 -0.3434
 8014SOL     OW28852   1.151  12.211   3.063  0.1439  0.2847 -0.1284
 8014SOL    HW128853   1.190  12.171   3.141 -0.2937 -1.7237 -0.8875
 8014SOL    HW228854   1.064  12.239   3.092  0.2307  0.1558  0.2739
 8015SOL     OW28855   2.905   5.212  12.128 -0.4304  0.4264  0.3184
 8015SOL    HW128856   3.001   5.211  12.134 -0.1893 -3.6525 -0.8509
 8015SOL    HW228857   2.887   5.214  12.034 -1.3919 -0.4791  0.4625
 8016SOL     OW28858  11.036   2.811   3.531  0.3344  0.1470 -0.4534
 8016SOL    HW128859  10.965   2.748   3.538  0.0890  0.3934 -0.7319
 8016SOL    HW228860  11.112   2.759   3.506  0.3238 -0.1611  0.1211
 8017SOL     OW28861   3.992   6.606   6.986 -0.0774 -0.3314  0.4033
 8017SOL    HW128862   3.913   6.617   6.934  0.3576 -0.3407 -0.2681
 8017SOL    HW228863   3.961   6.567   7.068 -0.7279 -0.6265  0.0294
 8018SOL     OW28864  11.736   1.143   2.444 -0.3056 -0.0001  0.1920
 8018SOL    HW128865  11.823   1.182   2.446  1.0852 -2.8800  1.6626
 8018SOL    HW228866  11.729   1.103   2.358  1.2209 -2.3701  1.0548
 8019SOL     OW28867   6.567   1.641   1.363 -0.1800  0.0437  0.0817
 8019SOL    HW128868   6.569   1.688   1.446 -0.9789 -0.3274  0.3215
 8019SOL    HW228869   6.615   1.697   1.302  0.2160  0.4231  0.7354
 8020SOL     OW28870   0.408   2.629   9.881  0.0993  0.2129 -0.6259
 8020SOL    HW128871   0.381   2.561   9.943  0.4625  0.0520 -0.6460
 8020SOL    HW228872   0.354   2.614   9.804  0.8386 -0.6432 -0.9917
 8021SOL     OW28873   5.344   8.164   5.948  0.2964  0.3137 -0.4394
 8021SOL    HW128874   5.329   8.248   5.903  1.1987  1.4258  1.2455
 8021SOL    HW228875   5.434   8.141   5.924  0.9614  1.1655  1.1014
 8022SOL     OW28876   1.767   8.679   9.432 -0.4369  0.5180  0.5077
 8022SOL    HW128877   1.694   8.627   9.399  1.4119 -0.2062 -2.8535
 8022SOL    HW228878   1.822   8.616   9.480  0.5339 -0.2166 -1.4463
 8023SOL     OW28879   3.585   9.176   7.295  0.0000  0.6569  0.6649
 8023SOL    HW128880   3.669   9.193   7.338  0.8838  0.8943 -1.0497
 8023SOL    HW228881   3.560   9.260   7.258 -0.3044  0.2863  0.0135
 8024SOL     OW28882  10.705   7.897   5.715 -0.1383 -0.2680 -0.1352
 8024SOL    HW128883  10.780   7.957   5.712  0.1113 -0.4684  1.3839
 8024SOL    HW228884  10.740   7.815   5.680 -0.0486  0.0153 -0.7395
 8025SOL     OW28885   0.423   4.026   7.466  0.2626  0.2227  0.5191
 8025SOL    HW128886   0.377   3.944   7.479  0.7493  0.0327  1.1104
 8025SOL    HW228887   0.356   4.088   7.438 -0.0882 -0.3939 -0.0385
 8026SOL     OW28888   1.115   2.918  10.390  0.1278  0.0946  0.5243
 8026SOL    HW128889   1.188   2.960  10.435  1.6401  1.1236 -2.5919
 8026SOL    HW228890   1.043   2.980  10.396  0.6332  0.6785  0.5920
 8027SOL     OW28891  12.181   4.405   4.697 -0.6472  0.5231  0.1361
 8027SOL    HW128892  12.094   4.402   4.657 -0.2293 -0.8952 -0.7625
 8027SOL    HW228893  12.241   4.420   4.624 -0.0545  0.4894  0.6036
 8028SOL     OW28894   4.817  12.324  10.469  0.3931 -0.0656  0.0589
 8028SOL    HW128895   4.853  12.250  10.517  0.7394 -0.3417 -0.6129
 8028SOL    HW228896   4.812  12.293  10.378  0.6995  0.7911 -0.2563
 8029SOL     OW28897   9.068  10.903   8.197 -0.5294 -0.1054  0.5672
 8029SOL    HW128898   9.160  10.879   8.195 -0.4896 -0.0788  1.6017
 8029SOL    HW228899   9.034  10.875   8.111  0.3428 -0.4596  0.3268
 8030SOL     OW28900   9.804   7.996   7.932  0.4799 -0.0154 -0.1177
 8030SOL    HW128901   9.738   7.949   7.881 -0.0672  0.0621  0.5075
 8030SOL    HW228902   9.755   8.035   8.004  1.0144  1.0403 -0.3064
 8031SOL     OW28903   0.014   4.686   7.016 -0.4899 -0.1918 -0.1040
 8031SOL    HW128904   0.010   4.595   7.046  0.8509  0.2735  1.6331
 8031SOL    HW228905  -0.005   4.738   7.094 -0.7197  1.0469 -0.9544
 8032SOL     OW28906   6.854  11.917  12.243 -0.4224 -0.0457  0.7806
 8032SOL    HW128907   6.808  12.000  12.258 -3.1250 -1.4555  0.9336
 8032SOL    HW228908   6.838  11.867  12.323 -0.5559 -1.4291 -0.0798
 8033SOL     OW28909   8.437  11.952  10.056 -0.0588 -0.0748 -0.0450
 8033SOL    HW128910   8.391  11.874  10.023 -2.9788  1.9910 -1.3084
 8033SOL    HW228911   8.414  12.021   9.993  1.6692  2.0311  1.4916
 8034SOL     OW28912  11.337   9.697   3.999 -0.0592  0.1620  0.5925
 8034SOL    HW128913  11.298   9.706   3.912  1.6877 -0.8702 -0.3481
 8034SOL    HW228914  11.282   9.633   4.043 -0.4068 -0.0300 -0.0968
 8035SOL     OW28915   1.510  11.933  12.229 -0.0755  0.5159 -0.4528
 8035SOL    HW128916   1.543  11.845  12.211  0.4336  0.4457  0.7796
 8035SOL    HW228917   1.577  11.991  12.193  0.1972  0.3920 -0.1419
 8036SOL     OW28918  11.579   6.896   5.109  0.3737  0.1034  0.1453
 8036SOL    HW128919  11.575   6.809   5.068  1.1929 -0.0708  0.4212
 8036SOL    HW228920  11.647   6.942   5.060  0.0762  0.5256  0.1266
 8037SOL     OW28921  11.043   4.673   0.244 -0.0555 -0.1525 -0.1879
 8037SOL    HW128922  11.053   4.764   0.215 -1.1487  0.1356  0.2957
 8037SOL    HW228923  11.113   4.661   0.308 -1.3054  1.1119  1.4972
 8038SOL     OW28924  11.153   5.780   6.868  0.2087 -0.2736 -0.0994
 8038SOL    HW128925  11.114   5.844   6.809 -0.2734 -1.3917 -1.0243
 8038SOL    HW228926  11.210   5.727   6.812  0.2137 -0.9699  0.5446
 8039SOL     OW28927   1.715   3.704   2.376 -0.0068 -0.0010  0.6677
 8039SOL    HW128928   1.693   3.615   2.351  1.5703  0.2204 -1.8731
 8039SOL    HW228929   1.634   3.753   2.365 -0.5126 -0.8308  0.6472
 8040SOL     OW28930   9.994  10.977   1.287 -0.0955  0.1199 -0.5196
 8040SOL    HW128931  10.021  11.050   1.231 -0.4215  0.8518  0.2506
 8040SOL    HW228932   9.931  10.929   1.233 -1.7467  1.8040 -0.2233
 8041SOL     OW28933  10.956   2.826   1.360 -0.3560 -0.3296 -0.2696
 8041SOL    HW128934  11.005   2.823   1.443 -0.9310  2.5866  0.2898
 8041SOL    HW228935  10.887   2.761   1.371 -0.4996  0.0812  1.6334
 8042SOL     OW28936   2.551   3.950  10.048  0.1751 -0.3384  0.2926
 8042SOL    HW128937   2.461   3.982  10.039 -0.1948 -1.3013  0.3926
 8042SOL    HW228938   2.595   4.016  10.101 -0.4764  0.1412  0.2455
 8043SOL     OW28939   3.640   1.812  12.645  0.0830 -0.0939 -0.2435
 8043SOL    HW128940   3.615   1.867  12.571  0.9060  0.4080 -0.1606
 8043SOL    HW228941   3.569   1.748  12.652 -0.2596  0.1649 -1.1416
 8044SOL     OW28942   8.791  12.643  10.295  0.3100 -0.1467  0.3338
 8044SOL    HW128943   8.728  12.685  10.353 -0.8342 -1.3591  0.0130
 8044SOL    HW228944   8.750  12.646  10.209  1.8112  1.2697 -0.3842
 8045SOL     OW28945  11.226  11.976   5.004 -0.9475 -0.0945  0.2007
 8045SOL    HW128946  11.307  11.963   5.054 -1.7936 -3.5357  0.9679
 8045SOL    HW228947  11.256  12.001   4.916  0.7327  2.1632  1.3326
 8046SOL     OW28948  11.368   5.383   0.921 -0.0383  0.6337  0.6772
 8046SOL    HW128949  11.330   5.468   0.904 -4.0519 -0.7383  1.8095
 8046SOL    HW228950  11.379   5.379   1.016  0.9425  0.1566  0.5658
 8047SOL     OW28951   9.953   8.395   6.629  0.6628  0.0357  0.8121
 8047SOL    HW128952  10.004   8.320   6.600  0.1961  0.0618 -0.1362
 8047SOL    HW228953   9.978   8.465   6.569  0.3207  0.3404  1.0222
 8048SOL     OW28954   9.482  11.457   8.355 -0.2974  0.5752 -0.4444
 8048SOL    HW128955   9.522  11.413   8.280  0.6261  0.4739  0.1014
 8048SOL    HW228956   9.408  11.401   8.379  0.4710 -0.3515 -0.1707
 8049SOL     OW28957  10.019   5.185   8.227 -0.0627  0.8751  0.2919
 8049SOL    HW128958  10.013   5.275   8.196 -0.0633  1.0756  0.8603
 8049SOL    HW228959   9.997   5.190   8.320 -0.9847  0.1467  0.1215
 8050SOL     OW28960   2.756   8.058   7.783  0.6686 -0.2265  0.1607
 8050SOL    HW128961   2.687   7.994   7.772 -0.2968  0.9755 -1.1429
 8050SOL    HW228962   2.833   8.007   7.807 -0.0129 -1.8793 -1.0215
 8051SOL     OW28963   1.870   8.896   1.300 -0.3249  0.1199 -0.1559
 8051SOL    HW128964   1.921   8.846   1.236 -0.1738 -0.9999  0.8179
 8051SOL    HW228965   1.924   8.973   1.319  0.4358 -0.4333 -0.0534
 8052SOL     OW28966  10.326   9.445  11.261 -0.1491  0.3948  0.5021
 8052SOL    HW128967  10.296   9.531  11.232 -0.5912 -0.5808 -2.1532
 8052SOL    HW228968  10.247   9.403  11.296 -0.8365 -0.2865 -1.7472
 8053SOL     OW28969   9.239   2.071  11.761  0.0232 -0.0717  0.2004
 8053SOL    HW128970   9.165   2.112  11.717 -2.3227 -2.7937  1.2854
 8053SOL    HW228971   9.266   2.000  11.703 -0.3288 -1.0447  1.1857
 8054SOL     OW28972   2.905   0.441   7.822  0.3138  0.6826 -0.4248
 8054SOL    HW128973   2.836   0.431   7.888 -0.5739  0.4235 -1.3716
 8054SOL    HW228974   2.958   0.513   7.855  1.0319 -0.6567  1.5383
 8055SOL     OW28975   1.238   8.303   5.863  0.0435  0.0152 -0.0682
 8055SOL    HW128976   1.247   8.385   5.911 -0.0427  0.3514 -0.6095
 8055SOL    HW228977   1.326   8.267   5.858 -0.1479 -0.7656  1.5914
 8056SOL     OW28978   1.355  12.252   6.382 -0.2801  0.0596 -0.5441
 8056SOL    HW128979   1.297  12.252   6.306 -0.5573  2.0138 -0.3909
 8056SOL    HW228980   1.443  12.244   6.345 -0.4751  0.0226 -1.0067
 8057SOL     OW28981   9.733   0.095   2.418 -0.5081  0.4461  0.2316
 8057SOL    HW128982   9.807   0.066   2.365  0.7669  1.1575  1.5345
 8057SOL    HW228983   9.765   0.091   2.508 -1.6556  1.9054  0.7508
 8058SOL     OW28984   8.189   7.392   3.464  0.1877 -0.8488  0.2406
 8058SOL    HW128985   8.242   7.397   3.384  1.3144 -1.2860  0.9291
 8058SOL    HW228986   8.099   7.397   3.433  0.5983 -0.9266 -1.0527
 8059SOL     OW28987   7.097   7.440   2.110 -0.3909  0.4284 -0.2056
 8059SOL    HW128988   7.057   7.363   2.070 -0.1413  0.1713  0.0323
 8059SOL    HW228989   7.095   7.422   2.204  0.9213  0.0834 -0.2215
 8060SOL     OW28990   7.349   1.316   6.539 -0.1948  0.6651  0.0868
 8060SOL    HW128991   7.273   1.374   6.546  0.0624  1.0365 -0.1296
 8060SOL    HW228992   7.370   1.294   6.629 -1.0328 -0.0723  0.1075
 8061SOL     OW28993   6.656   2.942   3.501  0.1853  0.7057  0.6352
 8061SOL    HW128994   6.581   2.893   3.467 -0.3638  1.2790  0.9937
 8061SOL    HW228995   6.727   2.878   3.505 -0.0401  0.3490 -0.5120
 8062SOL     OW28996  10.841  10.642  10.512 -0.0383  0.0642 -0.3297
 8062SOL    HW128997  10.773  10.704  10.485  0.1818  1.0958  1.3082
 8062SOL    HW228998  10.797  10.557  10.513 -1.0450  0.5657 -0.2496
 8063SOL     OW28999   3.679   9.924   5.438 -0.0596  0.1670 -0.1780
 8063SOL    HW129000   3.605   9.876   5.401 -0.5228  0.4918  0.3042
 8063SOL    HW229001   3.711   9.979   5.366 -0.8056  0.6225 -0.1712
 8064SOL     OW29002  10.028  10.056   0.539 -0.0996 -0.4011 -0.3471
 8064SOL    HW129003  10.061  10.029   0.625 -0.0290  1.3604  0.2333
 8064SOL    HW229004   9.939  10.086   0.557 -0.2271 -0.4090 -0.9686
 8065SOL     OW29005   2.411   5.395   0.804 -0.0789  0.3141 -0.3969
 8065SOL    HW129006   2.379   5.358   0.723 -1.8629 -1.3461  0.9669
 8065SOL    HW229007   2.499   5.359   0.815  0.1320  0.4662 -1.5060
 8066SOL     OW29008   5.122   8.771  12.373 -0.5760 -0.5551 -0.3145
 8066SOL    HW129009   5.187   8.796  12.439 -1.4373  1.6118 -0.2074
 8066SOL    HW229010   5.096   8.683  12.398  0.9559 -0.7590  0.7324
 8067SOL     OW29011   0.262   4.848  10.090 -0.0200  0.3760 -0.4921
 8067SOL    HW129012   0.268   4.757  10.063 -0.5471  0.1372  0.1694
 8067SOL    HW229013   0.280   4.898  10.010  1.2687 -0.2840 -0.6421
 8068SOL     OW29014   3.548   0.267   9.570  0.3550 -0.0425 -0.2909
 8068SOL    HW129015   3.534   0.362   9.566  0.9222  0.2391  2.3847
 8068SOL    HW229016   3.639   0.255   9.540  2.0319  0.9785  3.6569
 8069SOL     OW29017   0.732   7.714   6.597 -0.6259 -0.1940 -0.1742
 8069SOL    HW129018   0.818   7.748   6.620  0.3721 -1.6528 -1.5036
 8069SOL    HW229019   0.673   7.788   6.606  0.6691  0.7216  1.2591
 8070SOL     OW29020   2.888   3.698  10.031 -0.2211  0.1052  0.1956
 8070SOL    HW129021   2.914   3.750   9.955  1.2551  0.8906  1.1745
 8070SOL    HW229022   2.889   3.608   9.999 -0.5860  0.4940 -0.9613
 8071SOL     OW29023   2.376   2.645   7.207  0.4585 -0.0824 -0.3102
 8071SOL    HW129024   2.443   2.654   7.275  0.1279 -0.1422  0.0224
 8071SOL    HW229025   2.293   2.649   7.254  0.1946 -3.6356 -0.1985
 8072SOL     OW29026   7.787   1.563   9.585  0.1089 -0.1690 -0.4726
 8072SOL    HW129027   7.858   1.556   9.648  0.7344 -0.8393 -1.2330
 8072SOL    HW229028   7.761   1.473   9.568  1.7113 -0.2414 -3.1053
 8073SOL     OW29029   1.992   6.067   1.493 -0.4251  0.1655  0.5842
 8073SOL    HW129030   2.063   6.079   1.430 -1.9093  0.2099 -1.1496
 8073SOL    HW229031   2.006   6.136   1.558 -1.6755  3.5195 -2.4196
 8074SOL     OW29032   5.547   6.609   9.610  0.2099 -0.1192  0.4223
 8074SOL    HW129033   5.477   6.561   9.564  0.4436 -0.0055 -0.0593
 8074SOL    HW229034   5.572   6.678   9.549  1.4343 -0.7663  0.1574
 8075SOL     OW29035   7.962   8.453   0.855  0.2144  0.1787 -0.4397
 8075SOL    HW129036   8.001   8.378   0.902  1.0758  0.4692 -0.6708
 8075SOL    HW229037   7.938   8.417   0.770 -0.0591 -0.0135 -0.2833
 8076SOL     OW29038   8.235  10.723   3.680  0.0352  0.0161 -0.6307
 8076SOL    HW129039   8.171  10.782   3.720  0.3391  1.2390 -1.8505
 8076SOL    HW229040   8.316  10.739   3.730 -0.8560 -2.6592  1.9382
 8077SOL     OW29041   5.018   5.788   7.006  0.0767 -0.4160  0.1902
 8077SOL    HW129042   4.970   5.871   7.001 -0.1523 -0.3289  2.7117
 8077SOL    HW229043   5.108   5.812   6.986 -0.0528  0.3946  0.5331
 8078SOL     OW29044   3.306   8.803   9.216  0.3335 -0.1437 -0.1184
 8078SOL    HW129045   3.263   8.879   9.177  0.4237 -0.4714 -0.8632
 8078SOL    HW229046   3.233   8.748   9.245  0.2675  0.0863  0.1659
 8079SOL     OW29047   3.764   9.441   3.326 -0.2139 -0.3553 -0.4302
 8079SOL    HW129048   3.673   9.461   3.349  0.3783 -1.2982  3.2525
 8079SOL    HW229049   3.766   9.346   3.315  0.1365 -0.2188 -1.7191
 8080SOL     OW29050  10.085  10.040   4.585  0.4643  0.0882  0.5342
 8080SOL    HW129051  10.001  10.067   4.549  0.8364  0.2046 -0.2675
 8080SOL    HW229052  10.139  10.119   4.583  1.0092 -0.2832 -0.2256
 8081SOL     OW29053  12.185   5.103   3.332 -0.7223 -0.5006  0.1195
 8081SOL    HW129054  12.113   5.159   3.360 -0.5054  0.6516 -1.4849
 8081SOL    HW229055  12.166   5.017   3.371 -1.8446  0.2953  1.4017
 8082SOL     OW29056  12.503   0.878   1.246  0.5901  0.4628  0.3311
 8082SOL    HW129057  12.422   0.888   1.195 -0.3789  1.1354  1.9485
 8082SOL    HW229058  12.530   0.968   1.265  1.3150  0.2262  0.4501
 8083SOL     OW29059  10.300   3.331   4.530  0.3042  0.2095  0.3012
 8083SOL    HW129060  10.206   3.312   4.537 -0.1491  2.1845  0.1480
 8083SOL    HW229061  10.312   3.358   4.439  1.3457 -1.3809 -0.0809
 8084SOL     OW29062   5.745   7.237   7.179  0.0044  0.2356  0.5581
 8084SOL    HW129063   5.809   7.256   7.247 -0.9858  0.5198  1.4423
 8084SOL    HW229064   5.667   7.285   7.206 -1.1805 -1.5551  0.4840
 8085SOL     OW29065   9.315   2.973   9.964  0.1145 -0.0343  0.9297
 8085SOL    HW129066   9.301   2.879   9.949 -1.0036  0.2277  0.1477
 8085SOL    HW229067   9.342   3.006   9.878  2.7060  0.0174  1.7088
 8086SOL     OW29068   8.964   8.668   6.775  0.6724 -0.2009 -0.6480
 8086SOL    HW129069   8.921   8.731   6.717  1.1848  1.0995  0.3212
 8086SOL    HW229070   9.050   8.654   6.735 -0.0000 -1.5252 -1.6981
 8087SOL     OW29071   5.972   5.555   6.805  0.4140 -0.3541 -0.1133
 8087SOL    HW129072   5.988   5.464   6.829 -1.3491 -0.9930 -1.1972
 8087SOL    HW229073   6.017   5.565   6.721  1.9079  0.2679  0.7202
 8088SOL     OW29074   7.306  10.764   2.817 -0.1352 -0.0679 -0.1142
 8088SOL    HW129075   7.396  10.792   2.832 -0.4373  1.6235 -1.2298
 8088SOL    HW229076   7.294  10.690   2.876  1.4482  0.7317  1.2941
 8089SOL     OW29077   5.125   8.889   0.451 -0.6597 -0.5807  0.0153
 8089SOL    HW129078   5.217   8.891   0.478 -0.0795  1.6591 -1.7804
 8089SOL    HW229079   5.085   8.963   0.496 -1.1295 -0.4504 -0.6067
 8090SOL     OW29080   4.847   6.390   5.364 -0.1171  0.1285 -0.0328
 8090SOL    HW129081   4.881   6.464   5.315  0.3994 -0.5539 -0.7280
 8090SOL    HW229082   4.752   6.405   5.368 -0.2231  0.0027 -1.5867
 8091SOL     OW29083   4.906   6.035   4.355 -0.2978 -0.2981 -0.3542
 8091SOL    HW129084   4.940   5.954   4.392 -0.9592 -0.4262 -0.0136
 8091SOL    HW229085   4.879   6.088   4.430  0.6408  0.4825 -0.5464
 8092SOL     OW29086   3.967   4.140   7.677 -0.1540  0.3212 -0.3010
 8092SOL    HW129087   3.880   4.099   7.685  0.7691 -1.6448  0.2898
 8092SOL    HW229088   3.973   4.165   7.585 -0.6241 -1.3280 -0.8114
 8093SOL     OW29089   0.223   6.551  10.938 -0.8847 -0.1056 -0.2740
 8093SOL    HW129090   0.150   6.548  10.876 -1.1810  0.7178  0.0256
 8093SOL    HW229091   0.190   6.602  11.011 -0.4358 -0.8208  0.4425
 8094SOL     OW29092   9.492   0.154   4.437  0.4172 -0.4394 -0.4859
 8094SOL    HW129093   9.558   0.200   4.489 -0.2649  0.4550 -0.3883
 8094SOL    HW229094   9.497   0.195   4.351 -0.3903  0.0438 -0.3187
 8095SOL     OW29095   0.254   1.303   9.619 -0.1949  0.7452  0.6926
 8095SOL    HW129096   0.231   1.332   9.531  0.7691  0.2484  0.2559
 8095SOL    HW229097   0.212   1.218   9.629  2.0766 -0.6349 -0.4837
 8096SOL     OW29098  11.597  12.532   0.230 -0.4321  0.1082 -0.0811
 8096SOL    HW129099  11.525  12.561   0.174 -1.0136 -0.7596  0.1925
 8096SOL    HW229100  11.587  12.582   0.311  0.6605  1.6805 -0.8616
 8097SOL     OW29101   2.797   1.204   7.769 -0.3031  0.3855 -0.0362
 8097SOL    HW129102   2.717   1.253   7.750 -1.8646 -1.4931  1.2828
 8097SOL    HW229103   2.854   1.223   7.694 -2.8456  0.0026 -2.2595
 8098SOL     OW29104   0.907   2.293   3.627  0.3789  0.0764 -0.3369
 8098SOL    HW129105   0.966   2.310   3.554  1.6031 -0.5550  0.4672
 8098SOL    HW229106   0.822   2.278   3.586  0.6285  1.5790 -1.4829
 8099SOL     OW29107   6.875   3.551   3.746  0.0769  0.1609 -0.5742
 8099SOL    HW129108   6.958   3.543   3.793  0.2362  1.3718 -0.6356
 8099SOL    HW229109   6.873   3.474   3.689  0.7799 -0.2987  0.0054
 8100SOL     OW29110  12.630   0.566   6.171 -0.5234 -0.3783  0.2536
 8100SOL    HW129111  12.621   0.557   6.076  2.5491 -1.4507 -0.0583
 8100SOL    HW229112  12.641   0.476   6.203  0.7884  0.1007  1.2766
 8101SOL     OW29113   3.498   6.840   1.839 -0.6077  0.1061  0.0835
 8101SOL    HW129114   3.542   6.807   1.918 -2.2059 -1.4971  0.3912
 8101SOL    HW229115   3.504   6.935   1.845  1.6129 -0.0238  0.7488
 8102SOL     OW29116   1.108   8.783  10.516 -0.4617 -0.6125  0.1324
 8102SOL    HW129117   1.068   8.696  10.508  0.1751 -1.0527  1.5386
 8102SOL    HW229118   1.119   8.812  10.425 -2.8602 -0.9559 -0.3537
 8103SOL     OW29119   9.453  11.972  12.610 -0.0880  0.0337  0.1245
 8103SOL    HW129120   9.509  12.027  12.664 -2.6029  2.2697  0.6455
 8103SOL    HW229121   9.482  11.988  12.520  0.7297  0.3743  0.4496
 8104SOL     OW29122   1.126   3.395   2.469 -0.5043  0.4211 -0.1845
 8104SOL    HW129123   1.186   3.459   2.431  0.1059 -0.5857 -0.9763
 8104SOL    HW229124   1.062   3.380   2.399 -0.5192  0.0079 -0.0799
 8105SOL     OW29125   0.532  10.106   8.107  0.0536 -0.0744 -0.2587
 8105SOL    HW129126   0.561  10.083   8.195  1.0213 -0.1593 -0.5885
 8105SOL    HW229127   0.592  10.175   8.079 -0.6019  0.3567 -0.6413
 8106SOL     OW29128   6.085   1.532   7.364  0.2081  0.2177 -0.0587
 8106SOL    HW129129   6.017   1.464   7.359  0.4730  0.0483 -1.9692
 8106SOL    HW229130   6.153   1.493   7.419 -0.5083 -0.2766  0.4951
 8107SOL     OW29131   3.205   3.522   2.242  0.2217 -0.2196  0.4038
 8107SOL    HW129132   3.242   3.483   2.164  0.0461  0.6782 -0.1435
 8107SOL    HW229133   3.123   3.475   2.257 -0.3208  0.3642 -0.6350
 8108SOL     OW29134  11.726   8.689  10.356  0.3968 -0.3492 -0.4179
 8108SOL    HW129135  11.640   8.674  10.317  0.5893 -0.7094 -0.7158
 8108SOL    HW229136  11.718   8.657  10.446  0.4974 -1.3031 -0.7362
 8109SOL     OW29137   8.904   2.704   2.092 -0.3796 -0.0813 -0.1234
 8109SOL    HW129138   8.945   2.772   2.039 -0.6668 -0.5533 -0.9826
 8109SOL    HW229139   8.974   2.640   2.106 -0.6141 -0.5530 -1.0049
 8110SOL     OW29140   0.461   1.828   8.578 -0.1255 -0.7208  0.6887
 8110SOL    HW129141   0.463   1.894   8.510 -1.4287 -0.3080  1.0251
 8110SOL    HW229142   0.410   1.867   8.649  0.2995 -1.5421  1.4769
 8111SOL     OW29143   9.125   6.898   3.341 -0.5162 -0.2443  0.2140
 8111SOL    HW129144   9.089   6.893   3.430  0.9721 -1.6852  0.7997
 8111SOL    HW229145   9.214   6.932   3.353  0.3956 -2.2375 -0.4409
 8112SOL     OW29146   5.513   9.303   4.547  0.0896 -0.2949  0.5248
 8112SOL    HW129147   5.550   9.391   4.544 -1.5433  0.5140  2.0431
 8112SOL    HW229148   5.498   9.280   4.456  0.5877  0.9892  0.1004
 8113SOL     OW29149   2.800   0.518   3.187 -0.2705 -0.0337 -0.1996
 8113SOL    HW129150   2.810   0.547   3.097  1.7024 -0.4756 -0.1707
 8113SOL    HW229151   2.866   0.449   3.197 -0.1870  0.2719  1.6834
 8114SOL     OW29152   4.427  12.145   2.572 -0.6681  0.1813  0.6949
 8114SOL    HW129153   4.408  12.139   2.666 -1.4226  0.0817  0.5396
 8114SOL    HW229154   4.515  12.183   2.568 -0.1125 -0.9596  1.4724
 8115SOL     OW29155   5.775   3.382   7.991  0.0373 -0.2109  0.2618
 8115SOL    HW129156   5.777   3.288   7.973  2.5176 -0.3814  0.9819
 8115SOL    HW229157   5.692   3.397   8.037 -0.4476 -2.0168  0.0182
 8116SOL     OW29158  10.632  11.800   7.187 -0.2540 -0.2734  0.4304
 8116SOL    HW129159  10.629  11.896   7.185  0.1791 -0.2639 -0.5444
 8116SOL    HW229160  10.612  11.774   7.097  1.9755 -1.0124  0.0927
 8117SOL     OW29161   0.172   7.834  12.320 -0.0857  0.4154 -0.0842
 8117SOL    HW129162   0.132   7.911  12.279 -1.2372 -0.0903  0.0463
 8117SOL    HW229163   0.189   7.774  12.248  0.1604  0.5080 -0.1039
 8118SOL     OW29164   3.427   1.712   8.080  0.2301  0.2125  0.0833
 8118SOL    HW129165   3.347   1.733   8.128 -1.5955 -1.4701 -2.0374
 8118SOL    HW229166   3.409   1.628   8.038  3.1812 -0.2896 -0.3948
 8119SOL     OW29167   8.072   2.184   9.310  0.3884  0.1398  0.3608
 8119SOL    HW129168   8.046   2.139   9.390  0.0467 -0.1328  0.1026
 8119SOL    HW229169   8.108   2.268   9.339 -0.1363  0.2245  0.7745
 8120SOL     OW29170   6.918   9.631   4.604  0.3414  0.8320  0.3304
 8120SOL    HW129171   6.853   9.582   4.655  1.3189 -2.1252 -1.0347
 8120SOL    HW229172   6.995   9.634   4.660  0.2320  0.9410  0.4759
 8121SOL     OW29173  12.073   9.250   7.768 -0.1463  0.4868 -0.1378
 8121SOL    HW129174  12.162   9.268   7.797  0.0434  1.4054 -1.2570
 8121SOL    HW229175  12.083   9.204   7.685 -0.7165  0.3720 -0.1497
 8122SOL     OW29176  11.832   5.138   9.310  0.0870 -0.1586  0.3572
 8122SOL    HW129177  11.754   5.089   9.281  0.0930  0.5698 -0.9453
 8122SOL    HW229178  11.810   5.229   9.294  1.5057  0.0178 -0.8130
 8123SOL     OW29179  10.846   8.333   6.986 -0.3488  1.0916 -0.3759
 8123SOL    HW129180  10.765   8.281   6.989 -0.9070  1.9541 -0.1440
 8123SOL    HW229181  10.863   8.346   6.892 -0.5676  1.0349 -0.4236
 8124SOL     OW29182   7.741   4.597   1.025  0.1054 -0.1836 -0.3109
 8124SOL    HW129183   7.709   4.525   1.080  2.0301 -0.5501  0.4040
 8124SOL    HW229184   7.757   4.556   0.940  2.1897 -0.9065  0.3790
 8125SOL     OW29185   4.603  11.366   7.428 -0.0164  0.1600  0.2326
 8125SOL    HW129186   4.696  11.358   7.446 -0.2853  1.1470  2.4094
 8125SOL    HW229187   4.583  11.459   7.443 -0.9981  0.4764 -2.3520
 8126SOL     OW29188   9.413   4.932   6.411  0.2386 -0.2128 -0.1061
 8126SOL    HW129189   9.355   4.878   6.465 -4.1101  2.1817 -1.8498
 8126SOL    HW229190   9.398   5.021   6.442  1.6396  0.7129 -1.9063
 8127SOL     OW29191   0.916  10.950   8.855 -0.0455 -0.5706  0.0524
 8127SOL    HW129192   0.862  11.029   8.858  1.4381  0.5140 -0.6023
 8127SOL    HW229193   0.961  10.955   8.770 -1.4673 -3.2205 -1.0026
 8128SOL     OW29194   0.484  11.190   5.509 -0.3094  0.2530  0.0781
 8128SOL    HW129195   0.476  11.164   5.418 -1.6541 -2.4808  0.8718
 8128SOL    HW229196   0.468  11.110   5.559 -1.9092  2.0560  2.7586
 8129SOL     OW29197   1.441   6.450   7.364  0.3534 -0.4285 -0.3698
 8129SOL    HW129198   1.509   6.404   7.413 -0.0582 -1.5739 -0.8309
 8129SOL    HW229199   1.366   6.451   7.423 -0.4373 -2.6227 -1.2388
 8130SOL     OW29200   8.257   5.455   4.310 -0.3830  0.3645 -0.0892
 8130SOL    HW129201   8.278   5.531   4.256  2.4946 -0.3531 -0.1772
 8130SOL    HW229202   8.183   5.414   4.267  0.1830  1.2489 -2.0233
 8131SOL     OW29203   4.062   6.023   8.685 -0.0720 -0.1051  0.1773
 8131SOL    HW129204   4.135   6.015   8.747 -1.1497  0.5241  1.6030
 8131SOL    HW229205   3.985   6.000   8.737 -0.8219 -1.6063 -1.5306
 8132SOL     OW29206   2.786   5.650   5.582 -0.2903  0.3036  0.4059
 8132SOL    HW129207   2.800   5.686   5.669  1.9046 -1.4489  0.8753
 8132SOL    HW229208   2.858   5.686   5.530  0.1721 -0.9518  0.1286
 8133SOL     OW29209   8.185   5.899  10.729 -0.3622 -0.4554 -0.2183
 8133SOL    HW129210   8.198   5.990  10.756 -0.2215 -0.1932 -1.1152
 8133SOL    HW229211   8.273   5.861  10.728 -0.4722 -0.7515  0.6331
 8134SOL     OW29212   9.414  12.209   9.560 -0.5733 -0.0166  0.3665
 8134SOL    HW129213   9.476  12.271   9.600 -0.8793  0.6616 -0.1908
 8134SOL    HW229214   9.359  12.180   9.633 -1.2460  1.3462  0.4412
 8135SOL     OW29215   5.279   3.311   2.317  0.3903 -0.4809 -0.0699
 8135SOL    HW129216   5.267   3.217   2.305  0.7690 -0.6653  0.8868
 8135SOL    HW229217   5.224   3.352   2.250 -1.1630 -1.3483  0.6405
 8136SOL     OW29218   3.348   1.724   7.271 -0.2529  0.5903 -0.2587
 8136SOL    HW129219   3.299   1.781   7.212 -0.5967  0.8696  0.2837
 8136SOL    HW229220   3.398   1.667   7.214 -0.0285  1.3272 -0.8187
 8137SOL     OW29221  10.380  10.108   9.851 -0.2909 -0.0122 -0.5780
 8137SOL    HW129222  10.360  10.192   9.892  0.1721  0.3678 -1.1067
 8137SOL    HW229223  10.301  10.056   9.862 -1.1792  1.0625 -1.6836
 8138SOL     OW29224   2.332  11.536   8.234 -1.0790  0.2930  0.8238
 8138SOL    HW129225   2.271  11.468   8.262  0.1519 -1.5864 -0.8402
 8138SOL    HW229226   2.304  11.560   8.146 -0.3505  0.5601  0.6545
 8139SOL     OW29227  11.784   6.912   3.524  0.1140  0.1980  0.1036
 8139SOL    HW129228  11.844   6.930   3.597  0.3486 -0.4953  0.0909
 8139SOL    HW229229  11.801   6.981   3.460  0.2009  0.5702  0.5222
 8140SOL     OW29230   1.111   9.124   0.615  0.5889 -0.0714 -0.0196
 8140SOL    HW129231   1.135   9.052   0.673 -1.5663 -0.4926  0.4086
 8140SOL    HW229232   1.165   9.110   0.537  2.9432  0.0423  1.4983
 8141SOL     OW29233   8.963  11.218   7.414 -0.9828  0.1672  0.0423
 8141SOL    HW129234   8.899  11.187   7.350 -0.1225 -2.2227  0.2109
 8141SOL    HW229235   8.988  11.139   7.462  3.1411  0.6027 -0.9989
 8142SOL     OW29236   8.186   2.567   6.532 -0.5104 -0.0266  0.6857
 8142SOL    HW129237   8.119   2.634   6.542 -0.3672  0.5072 -1.4067
 8142SOL    HW229238   8.156   2.514   6.457  1.6517  0.6350 -0.7420
 8143SOL     OW29239   3.643   6.514   9.834  0.3049  0.4404 -0.4138
 8143SOL    HW129240   3.672   6.507   9.743  0.7796  1.7719 -0.3739
 8143SOL    HW229241   3.606   6.602   9.841 -2.6791 -0.6894 -0.1375
 8144SOL     OW29242   4.444   8.505   9.327  0.4470  0.6635  1.0393
 8144SOL    HW129243   4.521   8.454   9.302 -0.9671 -1.0354 -0.0563
 8144SOL    HW229244   4.462   8.531   9.418  1.0973 -2.1379  1.8209
 8145SOL     OW29245   3.690   2.720   0.878 -0.2317 -0.1743 -0.1131
 8145SOL    HW129246   3.785   2.730   0.880 -0.1676 -0.4000 -1.4310
 8145SOL    HW229247   3.659   2.794   0.827 -0.3242 -2.4728 -3.7840
 8146SOL     OW29248   9.424   8.447   0.118 -0.1329  0.4933  0.1055
 8146SOL    HW129249   9.463   8.474   0.035 -1.7489  0.8503 -0.5828
 8146SOL    HW229250   9.366   8.374   0.096 -1.7329  1.5499  0.6263
 8147SOL     OW29251  12.283   2.893   3.159 -0.1641  0.7389 -0.6243
 8147SOL    HW129252  12.286   2.954   3.233  0.9202 -0.2898  0.2079
 8147SOL    HW229253  12.366   2.846   3.163 -0.5349 -0.0724 -1.8891
 8148SOL     OW29254  12.390   1.482   7.870  0.1987  0.2346 -0.0605
 8148SOL    HW129255  12.403   1.557   7.812 -0.8652 -0.3849 -1.1273
 8148SOL    HW229256  12.314   1.437   7.835  1.1464 -1.6778  0.2357
 8149SOL     OW29257   9.130  11.047   3.250 -0.1682  0.3059 -0.5821
 8149SOL    HW129258   9.205  11.010   3.204  0.3582  1.7698 -0.9732
 8149SOL    HW229259   9.059  10.985   3.235  0.6503 -0.4900 -1.2499
 8150SOL     OW29260   5.602   7.125   3.562 -0.0090  0.6345  0.8486
 8150SOL    HW129261   5.689   7.160   3.583  0.7437 -0.7836  0.2747
 8150SOL    HW229262   5.597   7.132   3.466 -0.7362  1.1555  0.9230
 8151SOL     OW29263  11.785   7.817  12.428 -0.3075 -0.3580  0.5004
 8151SOL    HW129264  11.754   7.826  12.518  0.0060  0.5015  0.5241
 8151SOL    HW229265  11.710   7.782  12.381 -0.7288 -0.0585  0.9347
 8152SOL     OW29266  10.598   1.384   8.746 -0.7678 -0.4921  0.7953
 8152SOL    HW129267  10.565   1.368   8.657  1.1877 -1.0114  0.0981
 8152SOL    HW229268  10.641   1.301   8.770  0.3650  0.2560  1.4372
 8153SOL     OW29269   3.405   6.942  12.604  0.2671 -0.0514 -0.0138
 8153SOL    HW129270   3.390   6.855  12.641  0.6973 -1.1631 -2.2851
 8153SOL    HW229271   3.361   7.001  12.665 -0.5411 -1.8948  1.3013
 8154SOL     OW29272   2.696   8.511  10.254 -0.0467 -0.2061  0.1975
 8154SOL    HW129273   2.760   8.483  10.320  1.7167  2.5510 -0.1731
 8154SOL    HW229274   2.713   8.453  10.179  1.6842  0.0782  0.3126
 8155SOL     OW29275   7.691   5.822  11.503 -0.1214 -0.1415 -0.0384
 8155SOL    HW129276   7.730   5.830  11.590  0.6225  0.7509 -0.4432
 8155SOL    HW229277   7.620   5.759  11.515  1.2727 -1.6386  0.7604
 8156SOL     OW29278   2.480   1.727  10.645  0.0741  0.2385 -0.1018
 8156SOL    HW129279   2.514   1.778  10.571 -0.5161 -0.1306 -0.6431
 8156SOL    HW229280   2.456   1.792  10.710  0.2963  0.5925 -0.3667
 8157SOL     OW29281   5.378   3.447  12.535 -0.2070 -0.4643  0.4908
 8157SOL    HW129282   5.444   3.403  12.481 -0.5554 -0.3121 -0.0722
 8157SOL    HW229283   5.419   3.530  12.560 -0.1226 -0.4358  0.2635
 8158SOL     OW29284   5.254  10.942  10.895  0.1593 -0.0489  0.3690
 8158SOL    HW129285   5.271  10.968  10.986 -1.9018  0.1616  0.7622
 8158SOL    HW229286   5.159  10.952  10.886  0.4450  0.9393 -2.1468
 8159SOL     OW29287   3.605   0.833  10.497  0.5099 -0.4600 -0.2060
 8159SOL    HW129288   3.690   0.869  10.521 -0.8450  1.8762  1.4992
 8159SOL    HW229289   3.597   0.850  10.403  0.5678  2.6008  0.2434
 8160SOL     OW29290   5.235  12.358   3.761 -0.0001  0.0794  0.0318
 8160SOL    HW129291   5.327  12.332   3.773  0.2263  0.3029 -1.1249
 8160SOL    HW229292   5.222  12.428   3.825  0.5413 -0.1647  0.4227
 8161SOL     OW29293   2.448   1.697  10.289 -0.7295 -0.2802  1.0205
 8161SOL    HW129294   2.527   1.737  10.326 -0.0882  1.0282 -1.4808
 8161SOL    HW229295   2.379   1.719  10.351  0.2281  1.9269  1.4210
 8162SOL     OW29296   4.574   4.804   1.552 -0.1372 -0.2714  0.7032
 8162SOL    HW129297   4.498   4.755   1.521  0.7271 -1.4755  0.4003
 8162SOL    HW229298   4.542   4.893   1.566 -1.3113 -0.4664 -0.5657
 8163SOL     OW29299   6.409   7.218   8.022  0.1307 -0.2444 -0.0459
 8163SOL    HW129300   6.320   7.252   8.014 -0.6309 -2.0946 -0.0355
 8163SOL    HW229301   6.416   7.153   7.952  0.7508 -1.5220  1.1512
 8164SOL     OW29302   0.007   2.437   5.174  0.2250  0.1694 -1.1280
 8164SOL    HW129303   0.064   2.368   5.138  0.7472  0.3744 -0.7033
 8164SOL    HW229304   0.015   2.427   5.269  1.1452  1.4812 -1.0355
 8165SOL     OW29305   7.672  11.419   2.050 -0.8988 -0.2122  0.3696
 8165SOL    HW129306   7.725  11.359   2.101  0.1055  0.1642 -0.2028
 8165SOL    HW229307   7.734  11.462   1.991 -1.7684  0.5602 -0.0125
 8166SOL     OW29308   0.684   6.525  10.821 -0.4627  0.2829  0.3948
 8166SOL    HW129309   0.607   6.469  10.833 -0.5522  0.7155  2.0980
 8166SOL    HW229310   0.710   6.510  10.730 -2.2837 -0.2231 -0.0968
 8167SOL     OW29311   6.131   8.826   1.509  0.8207  0.2958 -0.0936
 8167SOL    HW129312   6.130   8.828   1.604 -2.2124 -0.2157  0.0016
 8167SOL    HW229313   6.168   8.741   1.486  1.3546  0.3279  0.6394
 8168SOL     OW29314   2.039   8.476  11.619 -0.3362 -0.4164 -0.6353
 8168SOL    HW129315   1.993   8.422  11.683 -1.5974 -0.6283 -1.6812
 8168SOL    HW229316   2.016   8.437  11.534  2.2981 -0.9291 -1.1997
 8169SOL     OW29317   4.296   7.303  11.494 -0.0733 -0.5092 -0.3943
 8169SOL    HW129318   4.201   7.294  11.499  0.0197 -0.7139  1.5457
 8169SOL    HW229319   4.330   7.232  11.549  1.0921  1.4811  1.6087
 8170SOL     OW29320  12.605   4.468   6.655  0.2045 -0.2315 -0.0839
 8170SOL    HW129321  12.536   4.519   6.614  0.4924  0.8016  0.6961
 8170SOL    HW229322  12.686   4.501   6.616  0.3453 -0.6723 -0.1803
 8171SOL     OW29323   3.071  11.419   7.268 -0.0177 -0.1019 -0.2580
 8171SOL    HW129324   3.026  11.362   7.206 -1.3102  1.5751 -0.9472
 8171SOL    HW229325   3.157  11.434   7.228  0.0839 -1.0166 -0.3918
 8172SOL     OW29326  10.619   7.368   5.399 -0.2457 -0.5628  0.0873
 8172SOL    HW129327  10.659   7.369   5.312  0.4417 -0.3780  0.3927
 8172SOL    HW229328  10.603   7.460   5.419  0.5881 -0.5126  0.5834
 8173SOL     OW29329   9.259   5.319   8.179 -0.5038  0.3352 -0.5081
 8173SOL    HW129330   9.312   5.250   8.137 -0.1094 -0.0723  0.6312
 8173SOL    HW229331   9.253   5.388   8.112  2.1959  0.7723 -0.4083
 8174SOL     OW29332   7.252   2.963  10.280  0.4534 -0.5629  0.2782
 8174SOL    HW129333   7.180   2.956  10.344  0.1052  2.0503  0.2663
 8174SOL    HW229334   7.222   2.910  10.206 -1.3015  0.1194  0.4421
 8175SOL     OW29335  10.327  11.746   1.334 -0.5584 -0.6803 -0.1606
 8175SOL    HW129336  10.298  11.703   1.253 -0.9493 -2.6558  0.9662
 8175SOL    HW229337  10.391  11.811   1.305  0.0855 -2.0413 -1.9773
 8176SOL     OW29338   9.405   9.760   6.249 -0.4775  0.7269  0.0016
 8176SOL    HW129339   9.453   9.785   6.171 -2.0273  1.2260 -0.8293
 8176SOL    HW229340   9.376   9.844   6.287 -0.6922  0.4317  0.5022
 8177SOL     OW29341   8.380   5.340   9.356 -0.3852 -0.2372 -0.3887
 8177SOL    HW129342   8.295   5.383   9.347  0.7839  2.2318 -0.4433
 8177SOL    HW229343   8.402   5.311   9.267 -0.5096  0.5184 -0.6762
 8178SOL     OW29344   2.784  11.859  10.213  0.2042 -0.5190 -0.0835
 8178SOL    HW129345   2.843  11.787  10.234 -1.1606 -1.3065  1.2817
 8178SOL    HW229346   2.829  11.937  10.246  1.0093 -0.9309 -0.1809
 8179SOL     OW29347   8.540   9.831   0.037  0.6548  0.0007 -0.6141
 8179SOL    HW129348   8.611   9.770   0.055  0.5793  0.5987  2.2885
 8179SOL    HW229349   8.567   9.878  -0.042  3.5469  0.2682  0.4247
 8180SOL     OW29350  10.478  11.928   8.275 -0.3438 -0.5253  0.4447
 8180SOL    HW129351  10.540  11.990   8.314  0.4567  0.2320 -1.8785
 8180SOL    HW229352  10.526  11.887   8.204 -2.3909 -0.1267 -1.2682
 8181SOL     OW29353  11.716   6.089  11.615 -0.6362 -0.0803 -0.5908
 8181SOL    HW129354  11.677   6.098  11.528  0.8648  1.2467 -1.1913
 8181SOL    HW229355  11.793   6.147  11.612  0.6138 -1.5606  0.9327
 8182SOL     OW29356  12.042   4.723   6.240 -0.6253 -0.5326 -0.6197
 8182SOL    HW129357  12.085   4.777   6.306 -0.7446 -1.1354 -0.0307
 8182SOL    HW229358  11.959   4.697   6.281 -0.6367 -1.0327 -0.9455
 8183SOL     OW29359  10.825   6.233   0.399 -0.0639  0.0245 -0.6515
 8183SOL    HW129360  10.826   6.312   0.452  1.4700  0.3619 -1.1346
 8183SOL    HW229361  10.908   6.190   0.418 -0.3077 -0.8023 -1.3756
 8184SOL     OW29362   2.921   5.699  11.415  0.0357  0.2714  0.0857
 8184SOL    HW129363   2.907   5.655  11.331 -0.0813  0.8579 -0.2041
 8184SOL    HW229364   2.835   5.693  11.459 -0.2428  1.0353 -0.3469
 8185SOL     OW29365   1.818   7.982   1.811  0.2941 -0.0516 -0.2306
 8185SOL    HW129366   1.894   8.035   1.834  0.0093 -0.0093  0.6682
 8185SOL    HW229367   1.846   7.892   1.828 -0.4855  0.0806  2.1396
 8186SOL     OW29368   9.239  10.950   3.695 -0.5590  0.4433 -0.3013
 8186SOL    HW129369   9.252  10.866   3.739 -0.6850  0.0022 -1.0802
 8186SOL    HW229370   9.281  10.938   3.609 -0.5045  1.2022 -0.3820
 8187SOL     OW29371  11.523  12.265   2.673 -0.2102 -0.3824 -0.3985
 8187SOL    HW129372  11.442  12.239   2.629 -0.0902  1.2405 -1.6894
 8187SOL    HW229373  11.508  12.357   2.697  0.6542 -0.5385  0.7849
 8188SOL     OW29374  12.385   1.871   3.749 -0.4094  0.3789  0.2654
 8188SOL    HW129375  12.452   1.854   3.815  0.2005  0.6890 -0.2613
 8188SOL    HW229376  12.303   1.839   3.788  0.2854 -1.4328  0.2823
 8189SOL     OW29377   4.048   2.403   6.623 -0.7701 -0.0023 -0.5225
 8189SOL    HW129378   3.975   2.447   6.668 -2.0550 -0.2176 -2.2958
 8189SOL    HW229379   4.076   2.336   6.685 -1.2737  0.8723  0.6937
 8190SOL     OW29380  12.583   1.605   9.998 -0.2399 -0.2632 -0.5495
 8190SOL    HW129381  12.569   1.695   9.970 -1.1173  1.3348  4.1539
 8190SOL    HW229382  12.678   1.597  10.007 -0.1051 -0.1149 -1.6957
 8191SOL     OW29383   1.279   8.517  12.136  0.1859 -0.2883  0.9638
 8191SOL    HW129384   1.263   8.453  12.206 -2.2868  0.3409  1.0410
 8191SOL    HW229385   1.345   8.474  12.080 -0.8778 -2.6276  1.3796
 8192SOL     OW29386   5.573   2.892   2.557  0.5511  0.2882 -0.7270
 8192SOL    HW129387   5.556   2.973   2.508 -0.6639  0.3809 -0.1957
 8192SOL    HW229388   5.667   2.878   2.549  0.9901  2.3782  0.1111
 8193SOL     OW29389   7.856   2.278   1.519 -1.1440 -0.6684 -0.0878
 8193SOL    HW129390   7.877   2.275   1.425 -0.1689  1.1457  0.0322
 8193SOL    HW229391   7.765   2.308   1.521 -0.5562  1.3084 -0.4712
 8194SOL     OW29392  11.551   3.433   3.602 -0.1577 -0.0506 -0.2453
 8194SOL    HW129393  11.595   3.349   3.596  1.3933  0.6267  0.9215
 8194SOL    HW229394  11.599   3.481   3.670 -2.1044  1.1044  0.4129
 8195SOL     OW29395   7.248   9.618   6.544  0.2482 -0.2901  0.2767
 8195SOL    HW129396   7.270   9.539   6.594  2.2438  0.4618  0.6815
 8195SOL    HW229397   7.267   9.691   6.604 -0.6372  0.5309 -0.4104
 8196SOL     OW29398   5.156   1.412   0.744  0.1561 -0.6365 -0.6391
 8196SOL    HW129399   5.135   1.448   0.830  0.7687  3.4365 -1.9546
 8196SOL    HW229400   5.246   1.379   0.753  0.0753 -0.6015  0.3879
 8197SOL     OW29401  12.631   3.100   3.470 -0.3967  0.8547  0.1313
 8197SOL    HW129402  12.579   3.020   3.475 -1.9398  1.8718  1.4074
 8197SOL    HW229403  12.664   3.101   3.380 -2.3346 -0.0274 -0.6562
 8198SOL     OW29404   7.686  11.488   0.375 -0.3998  0.3155  0.3624
 8198SOL    HW129405   7.723  11.400   0.373  1.0124  0.8954  0.0251
 8198SOL    HW229406   7.595  11.477   0.346 -0.0000 -0.9101 -0.4618
 8199SOL     OW29407  11.179   9.279   8.150 -0.4386  0.1084 -0.1211
 8199SOL    HW129408  11.257   9.234   8.116 -0.4581 -0.4658  0.5695
 8199SOL    HW229409  11.131   9.307   8.072  0.1072 -0.1523 -0.5561
 8200SOL     OW29410   0.019  10.701  11.533 -0.1464  0.7941 -0.2686
 8200SOL    HW129411   0.032  10.629  11.471  0.6112 -1.4454  2.2873
 8200SOL    HW229412   0.094  10.759  11.519  1.3235 -0.9244  0.0617
 8201SOL     OW29413   4.624   4.096   7.198 -0.2875  0.4519 -0.3891
 8201SOL    HW129414   4.680   4.153   7.251  0.9181  0.8330 -1.9836
 8201SOL    HW229415   4.557   4.065   7.258 -0.1344  2.4103  0.8721
 8202SOL     OW29416   5.417  10.687   6.736  0.4025 -0.1446 -0.3112
 8202SOL    HW129417   5.467  10.761   6.769  0.9855 -0.4643 -0.4766
 8202SOL    HW229418   5.448  10.674   6.647 -2.2297  1.6963 -1.6545
 8203SOL     OW29419   1.934   5.576   3.299  0.1569  0.0029  0.2424
 8203SOL    HW129420   1.919   5.597   3.207 -1.6901  0.0502  0.5010
 8203SOL    HW229421   2.024   5.603   3.316  0.6458 -0.3348 -1.6214
 8204SOL     OW29422   1.274   7.853   8.501  0.3340  0.6203  0.4507
 8204SOL    HW129423   1.270   7.921   8.568  1.0661 -1.1010  2.3599
 8204SOL    HW229424   1.207   7.790   8.527  0.7700 -0.1804 -0.3046
 8205SOL     OW29425   0.257   0.493   9.911  0.4755  0.4275 -0.0929
 8205SOL    HW129426   0.270   0.414   9.859  0.8752 -0.3105  1.0781
 8205SOL    HW229427   0.167   0.485   9.943  0.9706 -0.3144  1.1981
 8206SOL     OW29428   2.710   6.299  10.056 -0.0986 -0.3428  0.6145
 8206SOL    HW129429   2.622   6.328  10.079 -0.4273 -0.2538 -0.6948
 8206SOL    HW229430   2.717   6.316   9.962  1.5718  0.3507  0.8215
 8207SOL     OW29431  11.214   8.218   3.629 -0.2228  0.7730 -0.2447
 8207SOL    HW129432  11.282   8.279   3.599 -0.4686  1.7468  1.0625
 8207SOL    HW229433  11.145   8.275   3.664 -2.1068 -0.1585 -2.2452
 8208SOL     OW29434  10.521   7.748   2.039 -0.0915  0.2658  0.0832
 8208SOL    HW129435  10.553   7.734   2.128 -3.0982  0.7579  1.3812
 8208SOL    HW229436  10.522   7.661   2.000  1.6095  0.0995  0.4113
 8209SOL     OW29437   5.109   5.358   3.265 -0.1153 -0.0250  0.3131
 8209SOL    HW129438   5.061   5.345   3.183 -0.2029  0.4761  0.2765
 8209SOL    HW229439   5.044   5.342   3.334  0.2004 -1.4070  0.3209
 8210SOL     OW29440  11.700   8.795   5.744 -0.0191  0.4143  0.0614
 8210SOL    HW129441  11.685   8.815   5.651 -0.5104 -2.3087 -0.5298
 8210SOL    HW229442  11.763   8.723   5.743 -2.1093 -1.5925  1.6401
 8211SOL     OW29443   3.851   8.602   6.251 -0.1085  0.0190  0.1740
 8211SOL    HW129444   3.784   8.542   6.284  0.0544 -1.1949 -1.5247
 8211SOL    HW229445   3.806   8.656   6.186  0.4269 -0.5762 -0.7313
 8212SOL     OW29446  11.075   7.969   4.700 -0.6084 -0.2021 -0.3066
 8212SOL    HW129447  11.059   8.035   4.633 -2.9118 -0.9486 -0.5916
 8212SOL    HW229448  11.029   8.001   4.778  0.8851 -0.0008  0.5228
 8213SOL     OW29449   6.617   3.059  10.602 -0.1609  0.0603 -0.4899
 8213SOL    HW129450   6.659   3.081  10.685 -0.5111 -0.9969 -0.0168
 8213SOL    HW229451   6.688   3.063  10.537 -0.2781  2.9267 -0.5417
 8214SOL     OW29452   0.388   5.577   2.604 -0.0016 -0.2123 -0.7783
 8214SOL    HW129453   0.312   5.567   2.546  0.8609 -1.0259 -1.7946
 8214SOL    HW229454   0.431   5.492   2.603  0.7855  0.1591  0.0032
 8215SOL     OW29455   4.573   0.994   1.924 -0.0119 -0.0472  0.3800
 8215SOL    HW129456   4.563   1.088   1.909 -1.7169 -0.1737  0.5177
 8215SOL    HW229457   4.515   0.953   1.860  2.9855 -1.2168 -1.8087
 8216SOL     OW29458   4.615   2.155   4.465 -0.7053 -0.5060  0.2449
 8216SOL    HW129459   4.593   2.103   4.543  1.3273  0.6489  1.6791
 8216SOL    HW229460   4.705   2.183   4.480 -0.8540  1.2037 -1.7369
 8217SOL     OW29461   5.741   3.380  11.442 -0.3265  0.1732 -0.2604
 8217SOL    HW129462   5.745   3.475  11.430 -1.2658  0.0457 -1.8769
 8217SOL    HW229463   5.738   3.345  11.353 -0.0817 -1.3748  0.3120
 8218SOL     OW29464   3.928   2.760  10.617 -0.5402  0.4085  0.6300
 8218SOL    HW129465   3.848   2.777  10.567 -0.3408  1.7009  0.7245
 8218SOL    HW229466   3.900   2.767  10.709 -0.0946  2.0695  0.6615
 8219SOL     OW29467  12.609  11.191   9.236  0.0241 -0.2569  0.7966
 8219SOL    HW129468  12.627  11.273   9.282  0.9179 -0.6110  1.1090
 8219SOL    HW229469  12.601  11.126   9.305  0.4574 -0.6290  0.5027
 8220SOL     OW29470  10.898   2.600   7.009 -0.7762  0.2856 -0.2186
 8220SOL    HW129471  10.950   2.671   6.973  1.6097 -1.1282  0.2428
 8220SOL    HW229472  10.875   2.547   6.932 -0.4158  0.2150 -0.2784
 8221SOL     OW29473  11.330   9.857   0.648  0.0761  0.3133  0.5223
 8221SOL    HW129474  11.253   9.819   0.689 -0.6759 -0.7680 -1.7217
 8221SOL    HW229475  11.399   9.792   0.662 -0.4522 -0.5667 -0.7565
 8222SOL     OW29476   1.022   8.361   8.660 -0.5355 -0.1188 -0.2065
 8222SOL    HW129477   1.029   8.441   8.712 -0.8784  0.1193 -0.5238
 8222SOL    HW229478   0.967   8.303   8.713  1.2052 -0.8557  0.8850
 8223SOL     OW29479  11.732   7.581   8.567  0.1115 -0.3165 -0.6139
 8223SOL    HW129480  11.700   7.492   8.585 -1.3892  0.1794 -0.7036
 8223SOL    HW229481  11.703   7.632   8.642  1.9173 -0.0753 -0.0179
 8224SOL     OW29482  10.263   2.666   4.191 -0.3008  0.0217 -0.5484
 8224SOL    HW129483  10.296   2.671   4.101  1.9683 -1.7849  0.0656
 8224SOL    HW229484  10.325   2.718   4.242 -0.6036 -0.3021  0.1618
 8225SOL     OW29485   0.526   8.622  12.276 -0.1371  0.2116 -0.0447
 8225SOL    HW129486   0.569   8.695  12.321  0.6478  0.8212 -1.7242
 8225SOL    HW229487   0.582   8.546  12.294 -0.6431  0.1202  1.2245
 8226SOL     OW29488   7.210   9.210  10.549  0.1880  0.3002 -0.3059
 8226SOL    HW129489   7.239   9.273  10.615 -0.0492  0.6954 -0.5725
 8226SOL    HW229490   7.198   9.128  10.597  0.0355  0.5784  0.1374
 8227SOL     OW29491   3.644   7.554   2.179  0.3747  0.2143 -0.2611
 8227SOL    HW129492   3.654   7.513   2.265  0.8986  0.2747 -0.2953
 8227SOL    HW229493   3.622   7.481   2.121  1.1901 -0.0079 -0.3003
 8228SOL     OW29494  11.309   5.208  11.868 -0.0146  0.8914  0.0307
 8228SOL    HW129495  11.224   5.205  11.912 -0.1671 -1.2216 -0.2921
 8228SOL    HW229496  11.297   5.153  11.790  1.8429 -0.1311  0.4005
 8229SOL     OW29497   5.949  10.979   2.243 -0.4036 -0.1809 -0.0564
 8229SOL    HW129498   5.902  10.919   2.186  0.2668 -1.7504  0.9642
 8229SOL    HW229499   5.945  10.938   2.330  1.8276  0.1804  0.2840
 8230SOL     OW29500   5.975  11.622   1.034  0.0627 -0.5596 -0.9726
 8230SOL    HW129501   5.915  11.686   0.996  0.7591  0.3156 -0.6546
 8230SOL    HW229502   6.056  11.633   0.984 -0.0669 -1.8065 -1.4816
 8231SOL     OW29503   4.785   9.660  11.581 -0.8018  0.6583 -0.4039
 8231SOL    HW129504   4.880   9.674  11.587 -0.6119  0.2778 -2.0426
 8231SOL    HW229505   4.750   9.744  11.552 -0.7408  0.3372 -1.4565
 8232SOL     OW29506  11.281   8.401   6.057 -0.2275 -0.0430 -0.7688
 8232SOL    HW129507  11.324   8.428   5.976  3.1670  0.9948  1.1549
 8232SOL    HW229508  11.204   8.352   6.029 -0.2111  1.7533 -4.5574
 8233SOL     OW29509   0.701   6.990   9.571 -0.5349  0.1607  0.3238
 8233SOL    HW129510   0.739   6.925   9.512 -0.3852  1.7630 -1.4155
 8233SOL    HW229511   0.608   6.969   9.574 -0.9622  1.3147 -2.2985
 8234SOL     OW29512   6.219   0.236   6.398  0.1425  0.2974  0.3990
 8234SOL    HW129513   6.241   0.320   6.439  0.6606 -0.0940  0.9416
 8234SOL    HW229514   6.297   0.213   6.347 -0.3513  0.5937 -0.5146
 8235SOL     OW29515   0.782   8.101   7.427 -0.0545  0.0779 -0.3300
 8235SOL    HW129516   0.725   8.142   7.491  2.8937  1.7656  1.4367
 8235SOL    HW229517   0.791   8.011   7.456 -1.2395 -0.0363 -0.2751
 8236SOL     OW29518  12.312   0.529   8.212 -0.9071  0.4490  0.0825
 8236SOL    HW129519  12.328   0.449   8.261  0.1130  1.8636  2.2436
 8236SOL    HW229520  12.399   0.565   8.195 -1.2016  0.0890 -2.8366
 8237SOL     OW29521   6.119   4.223   3.798 -0.5969  0.5058  0.4856
 8237SOL    HW129522   6.039   4.235   3.747 -1.4325 -2.7828  0.7993
 8237SOL    HW229523   6.177   4.173   3.740  0.9445  2.0560  0.6018
 8238SOL     OW29524   2.611   6.092   5.006  0.5991 -0.1684 -0.4580
 8238SOL    HW129525   2.655   6.130   5.082 -0.6655  1.3252 -0.4186
 8238SOL    HW229526   2.639   6.147   4.933  1.0975 -1.0363 -0.9326
 8239SOL     OW29527   5.003   0.439   9.045 -0.0182  0.5469  0.0552
 8239SOL    HW129528   5.023   0.358   8.998  1.1319 -0.3891  2.0615
 8239SOL    HW229529   5.084   0.489   9.042 -0.0957  0.7067  0.5781
 8240SOL     OW29530  11.609   2.096   4.693  0.0543 -0.7858  0.2532
 8240SOL    HW129531  11.700   2.124   4.692  0.0283 -0.6180 -1.4884
 8240SOL    HW229532  11.575   2.126   4.777  0.6470  2.4137 -0.5319
 8241SOL     OW29533   6.051   0.547   0.757 -0.3084  0.0507 -0.6521
 8241SOL    HW129534   6.138   0.561   0.794  0.0535  0.5049 -1.6339
 8241SOL    HW229535   6.006   0.491   0.820  0.4572  0.3881  0.2042
 8242SOL     OW29536   8.713  11.041  12.613 -0.4620  0.5019  0.5867
 8242SOL    HW129537   8.771  11.108  12.646 -2.1510  2.4260 -0.1302
 8242SOL    HW229538   8.630  11.086  12.595 -0.3405 -0.5926 -4.4611
 8243SOL     OW29539   2.990   7.563   3.562  0.0769 -0.6019 -0.2432
 8243SOL    HW129540   2.943   7.646   3.569  0.6153 -0.1846 -1.3650
 8243SOL    HW229541   2.923   7.500   3.534 -0.3879 -0.6346  0.8552
 8244SOL     OW29542   5.915   5.971   5.005 -0.0853  0.0105 -0.4536
 8244SOL    HW129543   5.969   6.023   5.064  0.4049 -1.3774  0.3618
 8244SOL    HW229544   5.825   5.992   5.029  0.0795  1.2778 -0.8731
 8245SOL     OW29545   8.755   6.269  10.234 -0.3517 -0.0711  0.0146
 8245SOL    HW129546   8.818   6.322  10.184 -0.8867 -1.6157 -2.4800
 8245SOL    HW229547   8.671   6.310  10.216 -0.3326  0.8227  1.7573
 8246SOL     OW29548   1.631   7.141   9.180  0.1420  0.2090 -0.0571
 8246SOL    HW129549   1.690   7.070   9.155 -1.0391 -0.1282 -2.1333
 8246SOL    HW229550   1.642   7.150   9.275  2.1465 -1.0492 -0.1260
 8247SOL     OW29551   9.987  12.588   5.290  0.2285 -0.3953  0.7494
 8247SOL    HW129552   9.974  12.513   5.232  1.0875 -0.1058  0.1618
 8247SOL    HW229553   9.955  12.559   5.375  0.0946 -1.2535  0.4145
 8248SOL     OW29554   2.480   5.947   3.039 -0.4018  0.2124 -0.1385
 8248SOL    HW129555   2.488   6.000   2.959  1.7171  0.2030  0.0104
 8248SOL    HW229556   2.429   5.870   3.012 -0.7454  0.7863 -1.1703
 8249SOL     OW29557   5.814  10.474   6.165 -0.9030 -0.2418 -0.1824
 8249SOL    HW129558   5.834  10.472   6.071 -1.4488  0.3628 -0.3172
 8249SOL    HW229559   5.724  10.506   6.170 -1.4120 -1.6890  0.4813
 8250SOL     OW29560   4.657   2.149  11.247  0.0351  0.0300 -0.0944
 8250SOL    HW129561   4.571   2.179  11.215  0.1395  0.5155  0.0657
 8250SOL    HW229562   4.661   2.182  11.337  0.6770  0.6148 -0.3306
 8251SOL     OW29563   1.467   5.511   4.748  0.3884  0.4351  0.1415
 8251SOL    HW129564   1.453   5.434   4.693 -0.7487 -0.9403  2.2099
 8251SOL    HW229565   1.433   5.584   4.697  1.0070 -0.4901 -1.6647
 8252SOL     OW29566   4.281   0.544  10.712 -0.5854 -0.4673 -0.4895
 8252SOL    HW129567   4.309   0.526  10.622  0.8718 -0.0557 -0.1419
 8252SOL    HW229568   4.327   0.479  10.765 -1.0720 -0.4077  0.0173
 8253SOL     OW29569   2.900   9.719  10.416 -0.2143 -0.1238  0.6214
 8253SOL    HW129570   2.958   9.748  10.346  1.4072 -0.2517  1.8684
 8253SOL    HW229571   2.843   9.654  10.375  0.3033  0.2467 -0.7163
 8254SOL     OW29572   0.126   4.541   8.792  0.6046  0.2864  0.2154
 8254SOL    HW129573   0.103   4.460   8.839 -2.6883  1.7900  1.5121
 8254SOL    HW229574   0.052   4.556   8.733  2.6872  0.7329 -2.4926
 8255SOL     OW29575   7.081  10.789   8.441 -0.1163 -0.0728  0.3540
 8255SOL    HW129576   7.122  10.706   8.463 -1.2785 -0.6802  0.2769
 8255SOL    HW229577   7.065  10.785   8.346 -1.0008 -0.1645  0.4918
 8256SOL     OW29578   8.390   7.337   3.904 -0.5967  0.2101 -0.5583
 8256SOL    HW129579   8.486   7.337   3.894 -0.5781  2.6045 -1.0214
 8256SOL    HW229580   8.358   7.295   3.824  0.0260 -2.3296  0.4161
 8257SOL     OW29581   7.256  10.825   0.004 -0.5439 -0.1781 -0.7348
 8257SOL    HW129582   7.277  10.918  -0.007 -2.2925  0.2784 -0.5148
 8257SOL    HW229583   7.249  10.792  -0.086 -1.6435  0.3404 -0.8537
 8258SOL     OW29584  12.553   6.219   0.103  0.2392 -0.7981 -0.3001
 8258SOL    HW129585  12.464   6.218   0.067 -0.0847 -0.1756  0.4688
 8258SOL    HW229586  12.610   6.219   0.026 -0.3771 -2.7620 -0.8279
 8259SOL     OW29587   1.967   9.528  12.282  0.6128  0.2361  0.4464
 8259SOL    HW129588   1.956   9.444  12.325  1.6635  1.1242  2.5872
 8259SOL    HW229589   2.044   9.517  12.227  0.6280 -0.2623  0.5649
 8260SOL     OW29590   8.275   6.581  11.873 -0.1438  0.2692 -0.0280
 8260SOL    HW129591   8.360   6.615  11.845  0.0684 -0.5739 -0.4456
 8260SOL    HW229592   8.212   6.644  11.838  0.2808  0.6848 -0.0659
 8261SOL     OW29593   6.166   3.569   6.873  0.3289  0.1355  0.3594
 8261SOL    HW129594   6.184   3.640   6.935 -0.4858  0.5471  0.1342
 8261SOL    HW229595   6.097   3.603   6.816 -1.1625 -1.3734  1.1884
 8262SOL     OW29596   2.716   8.451   9.914 -0.7391 -0.6287  0.5117
 8262SOL    HW129597   2.803   8.445   9.952 -0.2234  0.2865 -0.4702
 8262SOL    HW229598   2.664   8.385   9.960 -0.6892  1.6606  4.2008
 8263SOL     OW29599   4.145   3.369  11.547  0.1193  0.4558 -0.3822
 8263SOL    HW129600   4.087   3.445  11.540 -0.8323 -0.3201 -1.3238
 8263SOL    HW229601   4.123   3.315  11.471  0.8563 -0.7106  0.2019
 8264SOL     OW29602   1.347  10.831   0.899  0.2018 -0.2044  0.0061
 8264SOL    HW129603   1.402  10.894   0.946  1.7265 -0.2157 -1.6377
 8264SOL    HW229604   1.308  10.778   0.968  1.7080  0.2673  1.2969
 8265SOL     OW29605   1.043   3.930   7.163 -0.2706 -0.0985  0.1792
 8265SOL    HW129606   1.045   4.024   7.147 -0.7610  0.1840  1.6136
 8265SOL    HW229607   1.126   3.910   7.205  0.1957 -0.4838 -0.8774
 8266SOL     OW29608   1.557   2.509   2.344 -0.3170 -0.3302 -0.1120
 8266SOL    HW129609   1.621   2.574   2.374 -1.0610 -0.2123  1.2951
 8266SOL    HW229610   1.479   2.560   2.324  0.1359 -0.4027 -2.3650
 8267SOL     OW29611   6.575   9.622  11.615 -0.5463  0.6702  0.3170
 8267SOL    HW129612   6.549   9.713  11.601 -0.6234  0.3357 -2.0643
 8267SOL    HW229613   6.668   9.627  11.638 -0.3749  1.3162 -0.4812
 8268SOL     OW29614  10.515   9.604  10.359  0.0579 -0.3818 -0.7132
 8268SOL    HW129615  10.521   9.525  10.413 -1.2340 -2.5563 -3.5279
 8268SOL    HW229616  10.604   9.640  10.359  0.9280 -2.4132 -0.1707
 8269SOL     OW29617   3.787   6.027   0.282  0.2411 -0.4420 -0.5997
 8269SOL    HW129618   3.816   6.096   0.222  0.4645 -2.0187 -2.3906
 8269SOL    HW229619   3.802   6.064   0.369  1.6432  1.2318 -1.4787
 8270SOL     OW29620   9.187   9.348  12.130 -0.6175  0.8093 -0.1233
 8270SOL    HW129621   9.128   9.362  12.205 -1.1878  3.5756 -0.9588
 8270SOL    HW229622   9.132   9.362  12.053  0.5351  0.6616 -1.0060
 8271SOL     OW29623   8.753   8.946   3.409  0.0899 -0.2088  0.3059
 8271SOL    HW129624   8.670   8.901   3.422 -0.4568  0.8978  0.7208
 8271SOL    HW229625   8.732   9.039   3.412  1.5991  0.1304  2.2652
 8272SOL     OW29626   3.593   2.561   7.286  0.3448  0.8365  0.4320
 8272SOL    HW129627   3.554   2.506   7.354  0.6025  0.4169  0.2468
 8272SOL    HW229628   3.664   2.607   7.330  1.1080 -0.1285  0.2498
 8273SOL     OW29629   9.740   9.451   9.056 -0.1401  0.4329 -0.0297
 8273SOL    HW129630   9.830   9.474   9.033  0.7282 -2.2601  0.3154
 8273SOL    HW229631   9.713   9.520   9.118  1.3245  1.7789 -0.8156
 8274SOL     OW29632   5.450   2.668   9.511  0.8491 -0.2175 -0.3348
 8274SOL    HW129633   5.536   2.651   9.548  0.5452 -1.4094 -0.1379
 8274SOL    HW229634   5.446   2.612   9.433  0.5581  0.4509 -0.8180
 8275SOL     OW29635   2.498   9.717  11.207 -0.5436  0.5283 -0.5201
 8275SOL    HW129636   2.591   9.739  11.204 -0.0093 -1.3177  0.7669
 8275SOL    HW229637   2.471   9.741  11.295 -0.5996 -1.2746 -0.0054
 8276SOL     OW29638  10.203  11.346  10.086 -0.4595  0.5795 -0.1209
 8276SOL    HW129639  10.294  11.375  10.094  0.3466 -0.9015 -2.7500
 8276SOL    HW229640  10.202  11.257  10.120 -1.3502  1.1188  1.3741
 8277SOL     OW29641   4.513   1.039   5.688  0.4213  0.1549  0.0050
 8277SOL    HW129642   4.473   1.122   5.714  2.4861  0.2284  3.6429
 8277SOL    HW229643   4.604   1.062   5.669  0.5034 -0.9996 -1.0967
 8278SOL     OW29644  11.744   1.187   1.090  0.4226 -0.5555 -0.1146
 8278SOL    HW129645  11.676   1.139   1.043  0.7434  0.0082 -1.1723
 8278SOL    HW229646  11.821   1.182   1.034  1.2125 -0.9998  0.9659
 8279SOL     OW29647   0.547  10.150   8.410  1.0084  0.6089 -0.3560
 8279SOL    HW129648   0.640  10.152   8.431  0.4103  0.4675  2.9165
 8279SOL    HW229649   0.516  10.238   8.429  0.2346  0.2348  0.1853
 8280SOL     OW29650   6.150   5.810  10.941  0.0261 -0.3867  0.2982
 8280SOL    HW129651   6.181   5.738  10.996  0.1939  0.2193  1.0242
 8280SOL    HW229652   6.172   5.784  10.852  1.7290 -0.4558  0.6952
 8281SOL     OW29653   5.209   9.964   1.798 -0.1772 -0.2858  0.1682
 8281SOL    HW129654   5.279   9.911   1.836 -0.9693 -1.1097  0.5330
 8281SOL    HW229655   5.133   9.906   1.798 -1.5051  1.3155  1.9963
 8282SOL     OW29656   8.447  11.851   3.043 -0.0137  0.4922  0.0507
 8282SOL    HW129657   8.460  11.771   3.095 -0.4551  1.3607  1.5714
 8282SOL    HW229658   8.353  11.868   3.047  0.0469  0.9822 -0.4309
 8283SOL     OW29659   1.879   9.961   5.560  0.1312  0.0894 -0.0019
 8283SOL    HW129660   1.920  10.013   5.628  1.0963  0.5204 -0.8989
 8283SOL    HW229661   1.858   9.878   5.604 -1.2944  1.1166  1.3973
 8284SOL     OW29662   7.112   1.379   9.233  0.4908 -0.0745 -0.7198
 8284SOL    HW129663   7.046   1.442   9.261  2.0215  0.8353  1.1090
 8284SOL    HW229664   7.168   1.428   9.173 -0.1545 -0.6840 -1.8462
 8285SOL     OW29665   9.120   8.051   1.712 -0.1914 -0.3209 -0.0346
 8285SOL    HW129666   9.031   8.081   1.730 -0.6370 -0.8603 -1.2010
 8285SOL    HW229667   9.176   8.122   1.743 -0.9779 -0.3034  1.4073
 8286SOL     OW29668   2.511   5.059   5.168 -0.1362 -0.3585 -0.1985
 8286SOL    HW129669   2.441   5.119   5.141 -0.0357  0.0919  0.5364
 8286SOL    HW229670   2.563   5.046   5.088 -0.3891  0.2123 -0.4577
 8287SOL     OW29671   3.862   3.834   3.473 -0.1834  0.1048  0.3713
 8287SOL    HW129672   3.798   3.763   3.482 -1.2946  1.1290  0.8064
 8287SOL    HW229673   3.821   3.909   3.516  1.0862  0.9443  0.1679
 8288SOL     OW29674   7.948   8.208   9.102 -0.3497  0.1210  0.4976
 8288SOL    HW129675   7.931   8.203   9.008 -0.0456 -0.8079  0.4840
 8288SOL    HW229676   7.897   8.284   9.132 -0.4483  0.4208 -0.4098
 8289SOL     OW29677   9.490   3.760   5.875  0.2077 -0.0962 -0.2376
 8289SOL    HW129678   9.400   3.789   5.857 -0.1949 -1.2671 -0.2297
 8289SOL    HW229679   9.528   3.746   5.789 -0.0225 -0.7593 -0.2357
 8290SOL     OW29680   6.008   1.621   3.261 -0.3463 -0.1543 -0.4693
 8290SOL    HW129681   5.959   1.698   3.289 -1.0068  0.7106 -3.6114
 8290SOL    HW229682   6.077   1.656   3.203  1.0021 -1.7474  0.0846
 8291SOL     OW29683   1.107   0.296  10.148  0.0156 -0.1120  0.5031
 8291SOL    HW129684   1.154   0.344  10.216 -1.0641 -1.3756  2.2188
 8291SOL    HW229685   1.043   0.244  10.195 -2.7542  1.0598 -1.6816
 8292SOL     OW29686  12.589  11.577   1.085  0.4171  0.2506 -0.3698
 8292SOL    HW129687  12.515  11.519   1.103 -0.1330 -0.2828 -3.6007
 8292SOL    HW229688  12.550  11.654   1.043  1.5387  0.7322 -0.5826
 8293SOL     OW29689   0.595   7.163   7.524  0.1000 -0.4827 -0.0699
 8293SOL    HW129690   0.558   7.151   7.437  0.3955 -2.2834  0.0257
 8293SOL    HW229691   0.520   7.190   7.578 -0.4745 -1.2050 -0.4911
 8294SOL     OW29692   9.867   2.166  12.586  0.4204  0.1930 -0.4517
 8294SOL    HW129693   9.861   2.102  12.515 -0.8047  0.8006 -0.9279
 8294SOL    HW229694   9.875   2.113  12.665 -0.3161 -0.5642 -0.8601
 8295SOL     OW29695   5.644   1.095   0.823 -0.0254  0.7656  0.3533
 8295SOL    HW129696   5.701   1.082   0.898 -0.5528  0.9145  0.7848
 8295SOL    HW229697   5.704   1.113   0.750  0.5537 -0.5498  0.4691
 8296SOL     OW29698   2.926  11.914  12.504  0.1372 -0.1196  0.0028
 8296SOL    HW129699   2.989  11.863  12.454  1.6234  0.1720  1.4569
 8296SOL    HW229700   2.980  11.979  12.549 -1.3682  0.8864  0.4035
 8297SOL     OW29701   9.135   7.773   4.173  0.0613 -0.3437 -0.4174
 8297SOL    HW129702   9.115   7.862   4.200 -1.0036 -0.8653  0.6380
 8297SOL    HW229703   9.143   7.777   4.078  0.5498  0.9548 -0.3357
 8298SOL     OW29704   2.199   6.284   7.198 -0.1487 -0.4707 -0.6483
 8298SOL    HW129705   2.132   6.351   7.213  0.1527  0.0822 -1.6936
 8298SOL    HW229706   2.158   6.202   7.228 -0.5964  0.1355  0.4433
 8299SOL     OW29707   1.527   4.845   6.929  0.4628 -0.2413 -0.7213
 8299SOL    HW129708   1.586   4.800   6.869  1.0276  0.9949 -1.1267
 8299SOL    HW229709   1.456   4.878   6.874  1.4134  1.6356 -0.9155
 8300SOL     OW29710   5.549  12.616  10.915  0.4147 -0.0725 -0.2150
 8300SOL    HW129711   5.474  12.591  10.968  0.7230  0.2428  0.3723
 8300SOL    HW229712   5.551  12.712  10.919 -0.8383  0.1468 -2.5492
 8301SOL     OW29713   7.676   5.193   3.941  0.1381 -0.1955 -0.1054
 8301SOL    HW129714   7.618   5.117   3.939 -1.8563  1.2380 -0.8622
 8301SOL    HW229715   7.679   5.217   4.034 -0.3433 -0.4081 -0.0291
 8302SOL     OW29716   8.771   1.054   9.717  0.6396 -0.2183 -0.0249
 8302SOL    HW129717   8.826   1.069   9.641 -1.6926  0.3583 -1.7230
 8302SOL    HW229718   8.720   1.135   9.726 -0.6630 -1.0943  0.7824
 8303SOL     OW29719   8.447   3.258   7.570  0.2423 -0.4790 -0.2893
 8303SOL    HW129720   8.361   3.271   7.530  0.4030 -1.5954 -1.0390
 8303SOL    HW229721   8.487   3.345   7.570 -0.3870 -0.1789 -1.1151
 8304SOL     OW29722   5.110   5.609  11.124 -0.0990 -0.2354 -0.2287
 8304SOL    HW129723   5.034   5.558  11.154 -1.5659 -0.0042 -3.2207
 8304SOL    HW229724   5.160   5.549  11.069  1.5425 -0.1360  1.0670
 8305SOL     OW29725  11.837   5.452   7.223 -0.4716  0.3626 -0.4963
 8305SOL    HW129726  11.897   5.465   7.297 -0.2887  0.8466 -0.7224
 8305SOL    HW229727  11.762   5.406   7.260  0.5564 -1.3617 -0.4371
 8306SOL     OW29728   9.916   7.636   0.287 -0.0979 -0.1166 -0.6321
 8306SOL    HW129729   9.974   7.581   0.233  1.8275  1.3894 -0.1998
 8306SOL    HW229730   9.922   7.597   0.374  0.3689  0.0912 -0.5660
 8307SOL     OW29731   5.731   2.970   9.849 -0.1064 -0.1138 -0.4859
 8307SOL    HW129732   5.690   3.015   9.923  1.7244  0.7416  0.0629
 8307SOL    HW229733   5.785   2.902   9.888 -0.2380 -0.5983 -1.1291
 8308SOL     OW29734  12.264  10.390  10.540  0.2391 -0.4291  0.4004
 8308SOL    HW129735  12.310  10.357  10.617  1.9514 -2.7362 -1.4500
 8308SOL    HW229736  12.207  10.317  10.513 -1.4437  0.8707  0.2592
 8309SOL     OW29737   9.398  11.805  10.721  0.1645  0.2423 -0.1554
 8309SOL    HW129738   9.365  11.869  10.784  0.5242  0.6394 -0.3597
 8309SOL    HW229739   9.346  11.821  10.642  0.8328  0.8804 -0.4839
 8310SOL     OW29740   1.614  11.611   1.674 -0.2090 -0.0396  0.1433
 8310SOL    HW129741   1.598  11.532   1.622 -0.2297  0.7400 -1.0745
 8310SOL    HW229742   1.605  11.683   1.612  1.1192  0.8517  0.9394
 8311SOL     OW29743   3.330   6.525   1.260 -0.1834 -0.1174  0.1290
 8311SOL    HW129744   3.300   6.454   1.317  1.3440  0.4693  1.7651
 8311SOL    HW229745   3.361   6.481   1.182 -1.5802 -1.0212  0.0434
 8312SOL     OW29746  10.953  10.168   8.800  0.1563 -0.3022  0.1125
 8312SOL    HW129747  10.928  10.124   8.718  2.0925 -0.6537 -0.3379
 8312SOL    HW229748  10.890  10.240   8.809 -0.5944 -0.7592 -1.2601
 8313SOL     OW29749   8.202   8.709   8.700  0.2725  0.4134 -0.6133
 8313SOL    HW129750   8.173   8.767   8.630  0.2940  0.0772 -0.9027
 8313SOL    HW229751   8.286   8.674   8.669  0.6183  0.7858 -0.1217
 8314SOL     OW29752   5.093   8.565  10.754 -0.0970 -0.1838  0.2277
 8314SOL    HW129753   5.004   8.599  10.754  0.0210  0.1649 -0.5661
 8314SOL    HW229754   5.100   8.513  10.834 -0.4731  1.1731  1.1744
 8315SOL     OW29755   7.358   5.433   0.666  0.0022 -0.3329 -1.0544
 8315SOL    HW129756   7.274   5.466   0.696  0.5942  1.8341 -1.6055
 8315SOL    HW229757   7.423   5.490   0.707  1.1446 -1.2488 -1.5226
 8316SOL     OW29758  10.613   7.597   7.999 -0.1774  0.3472  0.2387
 8316SOL    HW129759  10.581   7.684   8.025  0.1421  0.5369  0.0051
 8316SOL    HW229760  10.542   7.538   8.022 -0.6997  0.7657 -0.2624
 8317SOL     OW29761   6.467   6.873   2.116  0.4149 -0.1251 -0.1419
 8317SOL    HW129762   6.442   6.842   2.029  0.8984  0.8216 -0.6351
 8317SOL    HW229763   6.561   6.893   2.108  0.5636 -0.4338  0.7206
 8318SOL     OW29764   6.022   7.960   4.066 -0.5217  0.4545  0.0749
 8318SOL    HW129765   5.979   8.046   4.067  0.4649  0.9695  0.8807
 8318SOL    HW229766   6.051   7.948   4.157  0.6246 -0.0722 -0.3487
 8319SOL     OW29767   0.790  12.270   4.298  0.6143 -0.5674 -0.1602
 8319SOL    HW129768   0.764  12.323   4.223 -1.1646 -0.6864  0.3307
 8319SOL    HW229769   0.793  12.181   4.264 -0.7520 -0.6996 -0.0070
 8320SOL     OW29770   0.796   8.371   0.860 -0.3426 -0.0208 -0.4242
 8320SOL    HW129771   0.794   8.314   0.937  1.6970  1.3189  0.7350
 8320SOL    HW229772   0.850   8.325   0.796  0.4272  0.1242  0.1090
 8321SOL     OW29773  11.011  10.561   7.913  0.1214  0.4729 -0.1535
 8321SOL    HW129774  10.943  10.626   7.934 -0.1406 -0.1843  1.0663
 8321SOL    HW229775  10.996  10.541   7.820 -0.6241  1.1799 -0.2013
 8322SOL     OW29776  10.019   5.334   4.366 -0.1776 -0.2454  0.3093
 8322SOL    HW129777   9.985   5.375   4.286  0.5490  0.1374  0.1881
 8322SOL    HW229778  10.065   5.256   4.335  3.0273  1.6239 -0.0810
 8323SOL     OW29779   1.811   0.492  11.795  0.1928 -0.0247 -0.2526
 8323SOL    HW129780   1.831   0.437  11.871 -0.9029 -0.1728 -0.0608
 8323SOL    HW229781   1.880   0.472  11.732  0.2218 -1.0811  0.1017
 8324SOL     OW29782   3.148  11.675   1.008  0.1287  0.5153 -0.5036
 8324SOL    HW129783   3.200  11.601   1.038 -0.7811  0.5631  1.3797
 8324SOL    HW229784   3.089  11.639   0.942 -1.2236 -0.8208  1.3258
 8325SOL     OW29785   9.351   4.473   2.110 -0.1079 -0.6785 -0.3377
 8325SOL    HW129786   9.289   4.457   2.181 -0.3406 -0.0610 -0.3955
 8325SOL    HW229787   9.314   4.548   2.063  0.3120 -0.7594 -0.8036
 8326SOL     OW29788  12.389   1.137   2.254 -0.2115  0.4346  0.3619
 8326SOL    HW129789  12.337   1.071   2.300 -1.3270  0.9484 -0.1122
 8326SOL    HW229790  12.343   1.149   2.171  1.9891 -0.7769 -1.1123
 8327SOL     OW29791   6.421  11.917   6.329 -0.0596 -0.1759  0.3898
 8327SOL    HW129792   6.457  11.996   6.290  2.4356 -0.0824  2.5507
 8327SOL    HW229793   6.338  11.903   6.285  0.6572  2.1300 -1.9204
 8328SOL     OW29794  10.834   9.929   3.677  0.2348 -0.0126 -0.1730
 8328SOL    HW129795  10.789   9.980   3.610 -0.4020  1.3162  1.1978
 8328SOL    HW229796  10.830   9.838   3.646 -1.9206  0.2839 -0.8978
 8329SOL     OW29797   7.685  11.925  12.486 -0.2220  0.0050 -0.4986
 8329SOL    HW129798   7.680  11.830  12.494 -0.3096 -0.0956 -1.6370
 8329SOL    HW229799   7.692  11.956  12.576  1.5202 -1.1717 -0.1667
 8330SOL     OW29800   2.888   4.692   7.680 -0.2830  0.3820 -0.2351
 8330SOL    HW129801   2.937   4.718   7.758  2.2621 -2.0852 -0.8427
 8330SOL    HW229802   2.945   4.716   7.607 -1.0916 -0.3837 -1.1444
 8331SOL     OW29803   1.512   0.144   6.388 -0.1266  0.5831  0.4899
 8331SOL    HW129804   1.599   0.135   6.349 -0.3235 -1.2298  0.4111
 8331SOL    HW229805   1.455   0.093   6.331 -0.9607  0.4058  1.4638
 8332SOL     OW29806   2.198  11.323  11.867  0.4855 -0.2006  0.4120
 8332SOL    HW129807   2.180  11.392  11.931  1.0888 -0.1325  0.5105
 8332SOL    HW229808   2.282  11.346  11.829  0.8209 -1.0154  0.6281
 8333SOL     OW29809   7.143   2.473   5.350  0.1829 -0.0494  0.1724
 8333SOL    HW129810   7.128   2.426   5.268  1.4463  0.5376 -0.4150
 8333SOL    HW229811   7.135   2.405   5.418  0.1762 -0.7543 -0.5194
 8334SOL     OW29812   7.350   6.403  11.445  0.1306 -0.8293 -0.8107
 8334SOL    HW129813   7.425   6.355  11.409  1.0469 -0.8117  0.9493
 8334SOL    HW229814   7.390   6.475  11.495 -1.0881 -0.4247 -0.3928
 8335SOL     OW29815  11.693   7.978   6.608 -0.2360 -0.2791  0.2001
 8335SOL    HW129816  11.655   7.891   6.592 -1.1427  0.1556 -0.1093
 8335SOL    HW229817  11.618   8.038   6.604  0.4675  0.6033 -0.3180
 8336SOL     OW29818   5.580   9.346  12.158  0.2595  0.2996 -0.4524
 8336SOL    HW129819   5.491   9.340  12.193  0.6892  0.0782  0.6404
 8336SOL    HW229820   5.568   9.346  12.063 -0.7485 -3.0880 -0.4509
 8337SOL     OW29821   6.643   5.053  12.377 -0.0949 -0.0941  0.4075
 8337SOL    HW129822   6.628   5.143  12.348  0.1132 -0.6760 -1.6419
 8337SOL    HW229823   6.562   5.028  12.422 -1.1592  0.3353 -1.1807
 8338SOL     OW29824   7.309   9.898  10.358 -0.4622  0.3008 -0.5751
 8338SOL    HW129825   7.270   9.821  10.318  0.0223  1.0533 -2.5939
 8338SOL    HW229826   7.400   9.898  10.327  0.4955 -0.0393  2.0047
 8339SOL     OW29827   8.953  11.278  10.860  0.5396 -0.6535  0.0787
 8339SOL    HW129828   8.864  11.314  10.859  0.6366 -0.3760  0.8716
 8339SOL    HW229829   8.969  11.256  10.952  1.4005 -0.4192 -0.0024
 8340SOL     OW29830  12.557   2.489   1.523  0.4166  0.3927 -0.4619
 8340SOL    HW129831  12.594   2.552   1.585  0.4653  0.5446 -0.6440
 8340SOL    HW229832  12.622   2.418   1.519 -1.1532 -1.3929  2.3701
 8341SOL     OW29833   9.463   6.718  12.138 -0.0881  0.2803 -0.1171
 8341SOL    HW129834   9.414   6.672  12.206 -0.5326  0.1032 -0.5488
 8341SOL    HW229835   9.402   6.784  12.105 -1.1303 -1.8206 -2.6700
 8342SOL     OW29836  12.459   4.589   7.997  0.2606  0.1878  0.1019
 8342SOL    HW129837  12.460   4.605   7.902  0.8867  0.1393  0.0987
 8342SOL    HW229838  12.468   4.676   8.036 -1.7326  0.4222  0.1548
 8343SOL     OW29839   8.456   6.882   3.837  0.0306 -0.0325 -0.1388
 8343SOL    HW129840   8.461   6.830   3.917 -0.0122 -2.9618 -1.8644
 8343SOL    HW229841   8.368   6.919   3.837  0.2309  0.4880  1.3900
 8344SOL     OW29842   0.236   2.166   1.209  0.5348 -0.3306  0.3013
 8344SOL    HW129843   0.313   2.160   1.266 -0.3132 -0.7973  1.4310
 8344SOL    HW229844   0.230   2.080   1.169 -0.1542 -0.7326  1.2407
 8345SOL     OW29845   7.608  11.023   9.878 -0.1050  0.8767 -0.3192
 8345SOL    HW129846   7.672  11.033   9.808 -0.4352 -1.6714 -1.0690
 8345SOL    HW229847   7.529  10.991   9.835 -0.5966  0.0844  1.0789
 8346SOL     OW29848   2.116   6.172   0.231  0.4842  0.2142 -0.4349
 8346SOL    HW129849   2.111   6.118   0.311 -1.8012  0.4488 -0.3401
 8346SOL    HW229850   2.201   6.214   0.236  0.8549 -0.6309  1.3281
 8347SOL     OW29851  12.263   4.540   4.919  0.0512 -0.5167  0.0600
 8347SOL    HW129852  12.235   4.475   4.855 -2.7068 -0.8291  1.4579
 8347SOL    HW229853  12.232   4.624   4.885 -0.1438 -0.4905  0.3010
 8348SOL     OW29854   9.439   4.832   9.649 -0.0686  0.6751  0.0232
 8348SOL    HW129855   9.384   4.785   9.587  1.7931 -0.6808 -0.6793
 8348SOL    HW229856   9.435   4.924   9.621  0.4887  0.1346 -1.9451
 8349SOL     OW29857   4.621   4.504  11.836 -0.1279 -0.3614 -0.1070
 8349SOL    HW129858   4.715   4.499  11.853  0.0134 -3.7937 -1.1925
 8349SOL    HW229859   4.580   4.470  11.916 -0.3289 -0.6532 -0.3316
 8350SOL     OW29860   4.661   5.353   8.100  0.4066 -0.0575 -0.1907
 8350SOL    HW129861   4.592   5.310   8.049  1.7724 -3.1083  0.3161
 8350SOL    HW229862   4.725   5.380   8.034  0.6897 -1.1392 -0.3854
 8351SOL     OW29863   2.754   7.035   9.435  0.3487 -0.3705  0.2788
 8351SOL    HW129864   2.841   7.073   9.442 -0.1517  0.8776  0.1061
 8351SOL    HW229865   2.722   7.064   9.349 -0.3556 -0.5395  0.4759
 8352SOL     OW29866  10.057   1.190   9.590 -0.4805  0.4092 -0.7276
 8352SOL    HW129867  10.009   1.115   9.554  0.2812  0.3848 -1.7406
 8352SOL    HW229868  10.032   1.264   9.535 -0.6702  0.7528 -0.1864
 8353SOL     OW29869  12.640   4.858   7.836 -0.2648 -0.1400  0.2109
 8353SOL    HW129870  12.686   4.776   7.852  0.0107 -0.1547 -0.6065
 8353SOL    HW229871  12.666   4.915   7.908 -0.2254 -0.6770  0.6195
 8354SOL     OW29872   6.980   6.813   1.848 -0.1157  0.2516 -0.2650
 8354SOL    HW129873   6.942   6.877   1.788 -0.7035  0.2036  0.0543
 8354SOL    HW229874   6.911   6.749   1.862  1.1838 -1.7913 -2.4190
 8355SOL     OW29875   4.688   4.115   4.854 -0.3138 -0.0995 -0.4647
 8355SOL    HW129876   4.706   4.056   4.781  0.6301  0.6266 -0.8422
 8355SOL    HW229877   4.734   4.077   4.928  1.6925  0.9695 -1.0857
 8356SOL     OW29878   3.155   0.818   2.827  0.7583  0.3332  0.5538
 8356SOL    HW129879   3.069   0.805   2.787 -0.6591  1.1164  3.1742
 8356SOL    HW229880   3.187   0.900   2.789  0.1017  0.3524  0.0223
 8357SOL     OW29881   0.866   6.933   2.426 -0.0443 -0.2190 -0.5662
 8357SOL    HW129882   0.894   6.886   2.504 -2.1142 -1.3892 -0.4651
 8357SOL    HW229883   0.884   6.873   2.354  0.1830  0.1196 -0.7963
 8358SOL     OW29884  11.035   5.883  12.367  0.5243 -0.2069  0.2774
 8358SOL    HW129885  10.952   5.928  12.382  0.8948  0.3733  0.6651
 8358SOL    HW229886  11.011   5.798  12.332 -0.3700 -1.1018  2.8550
 8359SOL     OW29887  10.873  10.303   2.117 -0.0412 -0.4479 -0.3243
 8359SOL    HW129888  10.880  10.254   2.035 -0.4955  0.8848 -1.2149
 8359SOL    HW229889  10.804  10.259   2.166  0.3051 -1.3213 -0.6029
 8360SOL     OW29890   1.971   0.561   6.174 -0.3695  0.0719  0.1985
 8360SOL    HW129891   2.031   0.544   6.246 -0.9465  0.1629  0.7158
 8360SOL    HW229892   2.012   0.631   6.124 -0.4117  0.6746  0.9883
 8361SOL     OW29893  10.003   8.107   8.547 -0.7389 -0.0455  0.1682
 8361SOL    HW129894   9.953   8.078   8.623 -0.7706 -0.1445  0.1088
 8361SOL    HW229895   9.950   8.083   8.472  0.6410 -2.7595 -0.0617
 8362SOL     OW29896   4.343   3.009   8.610 -0.2804 -0.0617  0.8943
 8362SOL    HW129897   4.326   3.025   8.518 -0.6460  2.0578  1.2905
 8362SOL    HW229898   4.425   2.959   8.611  1.3013  2.3280 -0.5019
 8363SOL     OW29899   7.352   6.126   5.758 -0.0004  0.5509 -0.9222
 8363SOL    HW129900   7.442   6.159   5.755 -0.2028  1.3930  0.8271
 8363SOL    HW229901   7.317   6.159   5.842 -1.9094  0.1908 -1.5205
 8364SOL     OW29902   6.430   3.996  11.765  0.5876  0.2431 -0.4256
 8364SOL    HW129903   6.438   3.901  11.776  0.3972  0.3796  1.2385
 8364SOL    HW229904   6.337   4.010  11.748  0.6201  0.1251 -0.6994
 8365SOL     OW29905   9.291  11.721   1.517 -0.1406 -0.7358  0.2962
 8365SOL    HW129906   9.236  11.689   1.444 -0.6986 -0.1599  0.4525
 8365SOL    HW229907   9.333  11.799   1.482 -0.3279 -0.5182  0.5517
 8366SOL     OW29908   6.323   9.090   0.524 -0.2219  0.2814  0.1767
 8366SOL    HW129909   6.395   9.056   0.577  1.0472  0.5519 -1.2997
 8366SOL    HW229910   6.273   9.012   0.498  0.6107 -0.1039 -0.2887
 8367SOL     OW29911   1.354   2.713  12.284 -0.0957 -0.0844 -0.1772
 8367SOL    HW129912   1.357   2.758  12.369  0.0797  0.7604 -0.6174
 8367SOL    HW229913   1.319   2.626  12.304  1.5606 -0.5343  1.0273
 8368SOL     OW29914   4.375   8.059   5.873 -0.0754 -0.1475  0.3294
 8368SOL    HW129915   4.293   8.105   5.857  0.6978  1.6304  1.1758
 8368SOL    HW229916   4.394   8.076   5.966  0.0238 -2.6226  0.8252
 8369SOL     OW29917  12.362   2.485   7.620  0.1467  0.0968 -0.2976
 8369SOL    HW129918  12.397   2.433   7.547  0.9943  1.2130 -0.7164
 8369SOL    HW229919  12.314   2.556   7.578  1.4604  1.3146  0.1748
 8370SOL     OW29920   3.822   9.824   8.929  0.0922 -0.2295 -0.3706
 8370SOL    HW129921   3.900   9.872   8.957  0.6931 -1.1671 -0.4128
 8370SOL    HW229922   3.842   9.795   8.840  0.0285 -1.1492 -0.0950
 8371SOL     OW29923   3.929   0.355   3.007 -0.2591 -0.1315  0.0453
 8371SOL    HW129924   4.006   0.301   3.028 -1.2334 -1.4627  0.2943
 8371SOL    HW229925   3.888   0.372   3.092  1.2747  3.1011  0.3271
 8372SOL     OW29926   9.529   8.577   6.839 -0.1576  0.8854 -0.5425
 8372SOL    HW129927   9.543   8.625   6.757 -1.3590  0.2760 -1.1304
 8372SOL    HW229928   9.599   8.512   6.839  1.7626  2.8247  0.4798
 8373SOL     OW29929   6.497   1.280  10.585  0.0530  0.3015 -0.2696
 8373SOL    HW129930   6.467   1.232  10.508  1.6776  0.6638 -1.1648
 8373SOL    HW229931   6.573   1.230  10.616 -0.6016  0.1381  1.1339
 8374SOL     OW29932  12.198   0.580   1.878 -0.1960 -0.2103  0.7819
 8374SOL    HW129933  12.285   0.553   1.910  0.5731  0.6240 -0.4985
 8374SOL    HW229934  12.182   0.525   1.802  0.1608  0.9884 -0.2079
 8375SOL     OW29935   6.361   2.017   8.115 -0.3887 -0.1765  0.5339
 8375SOL    HW129936   6.404   1.956   8.175 -0.9860 -1.3368 -0.1583
 8375SOL    HW229937   6.421   2.091   8.107  0.9236 -1.2185  0.4944
 8376SOL     OW29938  11.279   8.564   7.415 -0.3850 -0.6899 -0.6356
 8376SOL    HW129939  11.271   8.646   7.466 -0.1752 -0.2400 -1.3163
 8376SOL    HW229940  11.273   8.495   7.481  2.2667 -0.0983  0.3703
 8377SOL     OW29941  10.272   1.323  11.986  0.7755 -0.2743 -0.0385
 8377SOL    HW129942  10.365   1.301  11.983  0.3882 -1.9745 -1.3617
 8377SOL    HW229943  10.257   1.376  11.907  0.8132  0.9010  0.7322
 8378SOL     OW29944   4.226   9.189   0.672  0.0733 -0.2684  0.4644
 8378SOL    HW129945   4.185   9.274   0.653 -0.9876 -0.4304  1.8637
 8378SOL    HW229946   4.319   9.208   0.676 -0.2881  1.5145  3.6314
 8379SOL     OW29947  10.655   5.648  11.944  0.4802  0.1373 -0.0877
 8379SOL    HW129948  10.634   5.584  12.013  1.9546  0.0875  0.3541
 8379SOL    HW229949  10.657   5.597  11.863  0.1628 -0.0780  0.0359
 8380SOL     OW29950  12.108   3.748   6.135  0.4757  0.1163 -0.2677
 8380SOL    HW129951  12.062   3.709   6.061 -0.8805  0.6175  0.2735
 8380SOL    HW229952  12.105   3.842   6.118  2.4844  0.1230 -0.8685
 8381SOL     OW29953   5.225   8.514   6.873 -0.5683 -0.0656  0.5773
 8381SOL    HW129954   5.215   8.489   6.781  1.1414 -0.7285  0.5459
 8381SOL    HW229955   5.255   8.434   6.917 -2.0633  0.0287  1.8798
 8382SOL     OW29956  10.497  10.735   1.665 -0.3384  0.0501 -0.0390
 8382SOL    HW129957  10.545  10.787   1.601  2.5534 -0.5893  1.4585
 8382SOL    HW229958  10.463  10.799   1.728  0.3138  0.3675 -0.0078
 8383SOL     OW29959  10.557   0.814   2.966  0.1571 -0.2072  0.5836
 8383SOL    HW129960  10.469   0.777   2.960 -0.1725  0.7244 -0.4708
 8383SOL    HW229961  10.559   0.858   3.051 -0.4365 -0.1264  0.5553
 8384SOL     OW29962   6.865   9.660   8.618 -0.8795  0.1095  0.4265
 8384SOL    HW129963   6.911   9.596   8.564 -2.1411 -0.7906  0.3692
 8384SOL    HW229964   6.856   9.619   8.703  1.2735  1.6038  1.4558
 8385SOL     OW29965   0.618   9.500   2.095 -0.1789  0.3628 -0.3425
 8385SOL    HW129966   0.637   9.422   2.147  2.2921  0.6911 -0.6126
 8385SOL    HW229967   0.644   9.477   2.006 -0.7967  1.0171 -0.6973
 8386SOL     OW29968  10.593   2.979  12.328 -0.3026  0.7770 -0.1533
 8386SOL    HW129969  10.666   2.996  12.387 -0.5934  0.6155  0.2608
 8386SOL    HW229970  10.515   3.002  12.379 -0.6581 -0.8311  0.1028
 8387SOL     OW29971   1.958   4.339   3.869  0.1207 -0.0411  0.0643
 8387SOL    HW129972   2.040   4.289   3.866  0.1902  0.0739  0.0311
 8387SOL    HW229973   1.914   4.307   3.948 -0.0684 -0.5126 -0.2281
 8388SOL     OW29974   4.565   4.051   6.382  0.2555 -0.5891 -0.0999
 8388SOL    HW129975   4.533   4.110   6.314  2.5179 -2.7850 -3.3097
 8388SOL    HW229976   4.573   4.107   6.460 -2.3862  2.0700 -1.5339
 8389SOL     OW29977   9.362  10.094   3.992  0.8052 -0.3599  0.2614
 8389SOL    HW129978   9.359  10.161   4.060  0.8983 -1.7198  1.6606
 8389SOL    HW229979   9.299  10.027   4.021 -1.4472  0.3379 -2.5113
 8390SOL     OW29980   2.309   6.657   7.259 -0.2959  0.2684 -0.0199
 8390SOL    HW129981   2.245   6.587   7.248 -0.1686  0.0355  0.7205
 8390SOL    HW229982   2.318   6.669   7.353  0.3730  0.6506 -0.1187
 8391SOL     OW29983   6.519   7.070   6.361 -0.0863  0.8866  0.1543
 8391SOL    HW129984   6.443   7.012   6.355  0.6433 -0.0922  0.1535
 8391SOL    HW229985   6.558   7.050   6.446 -0.3792  2.0907  0.5843
 8392SOL     OW29986   2.346  11.798  12.278 -0.1867  0.4812  0.1694
 8392SOL    HW129987   2.354  11.707  12.250 -2.7891  0.4250 -0.6678
 8392SOL    HW229988   2.436  11.830  12.281  0.6727 -1.5538 -1.4106
 8393SOL     OW29989   2.410   7.841   6.490  0.0381 -0.2117 -0.3139
 8393SOL    HW129990   2.440   7.916   6.541 -1.1771 -0.4092  0.7641
 8393SOL    HW229991   2.484   7.780   6.491  1.4752  1.3694 -2.1868
 8394SOL     OW29992   0.173   7.592   6.468 -0.1028 -0.1903 -0.0696
 8394SOL    HW129993   0.244   7.612   6.529  0.5464  0.6478 -1.0756
 8394SOL    HW229994   0.128   7.517   6.508  0.9346 -0.3181  0.9174
 8395SOL     OW29995  10.624   8.663   7.015  0.2772  0.4879 -0.3408
 8395SOL    HW129996  10.717   8.650   7.035  0.3442 -1.1377 -1.5223
 8395SOL    HW229997  10.609   8.756   7.030  1.5510  0.3824  1.9719
 8396SOL     OW29998   7.992   8.038   3.906 -0.3272  0.2266  0.5266
 8396SOL    HW129999   7.915   8.094   3.892 -0.6378 -0.4868 -0.8410
 8396SOL    HW230000   7.970   7.956   3.862  0.4409 -0.7042  1.8116
 8397SOL     OW30001  11.832   0.787   7.169  0.2049  0.7472 -0.1027
 8397SOL    HW130002  11.784   0.854   7.217  0.1492  0.6762 -0.0586
 8397SOL    HW230003  11.820   0.811   7.077 -1.5578 -0.3489 -0.2021
 8398SOL     OW30004   5.438   4.515  11.983 -0.1155 -0.5513  0.6523
 8398SOL    HW130005   5.492   4.506  12.062 -0.3293  0.6148  0.9452
 8398SOL    HW230006   5.486   4.578  11.929 -0.3215 -0.8232  0.1457
 8399SOL     OW30007   7.142   3.163  12.210 -0.4242  0.5175  0.8081
 8399SOL    HW130008   7.149   3.242  12.157  0.3201  0.8549  1.3953
 8399SOL    HW230009   7.156   3.193  12.300  3.3551 -0.7216  0.7848
 8400SOL     OW30010   2.553   8.838  10.065  0.2815  0.0770  0.5759
 8400SOL    HW130011   2.469   8.804  10.097 -0.3142  0.3034 -0.6697
 8400SOL    HW230012   2.565   8.796   9.980  1.8282 -0.5268  1.0582
 8401SOL     OW30013   5.385   6.284   5.966  0.7204  0.1871 -0.1645
 8401SOL    HW130014   5.471   6.286   5.926  0.3884  0.4135 -0.8946
 8401SOL    HW230015   5.340   6.360   5.929 -0.2617 -0.7094 -0.8833
 8402SOL     OW30016   1.989   6.325  12.290 -0.5515 -0.3092  0.4863
 8402SOL    HW130017   1.927   6.282  12.231  0.7617 -0.6685 -0.6868
 8402SOL    HW230018   2.052   6.256  12.312  0.9221  0.6696 -0.4799
 8403SOL     OW30019   2.036   5.599   1.406 -0.4033 -0.0044  0.3851
 8403SOL    HW130020   1.983   5.592   1.485 -0.3327 -0.7382  0.3741
 8403SOL    HW230021   2.112   5.651   1.432 -0.0176 -0.8498  1.0017
 8404SOL     OW30022   0.179   4.445   0.712 -0.6851 -0.0446  0.8642
 8404SOL    HW130023   0.233   4.432   0.634 -1.9147 -2.7467  0.3614
 8404SOL    HW230024   0.241   4.472   0.779  0.9075 -0.6536 -0.2893
 8405SOL     OW30025  11.931   0.846   9.076 -0.0975  0.8979  0.2290
 8405SOL    HW130026  11.894   0.758   9.073 -0.8762  1.2212  0.1915
 8405SOL    HW230027  11.856   0.904   9.086  0.4639  1.5201  0.9751
 8406SOL     OW30028  10.605   1.327   8.461 -0.1537 -1.0682  0.2269
 8406SOL    HW130029  10.695   1.334   8.493 -0.1424  0.2510 -0.0354
 8406SOL    HW230030  10.614   1.326   8.366 -0.3919 -1.4430  0.2071
 8407SOL     OW30031   4.794   8.907   5.264  0.1405 -0.7282 -0.1532
 8407SOL    HW130032   4.715   8.911   5.317  0.2032  0.8776 -0.1436
 8407SOL    HW230033   4.769   8.855   5.187 -0.6455 -1.0079  0.2817
 8408SOL     OW30034   0.620   5.647   2.388  0.4525 -0.2169 -0.3750
 8408SOL    HW130035   0.610   5.728   2.338 -1.8233 -0.1480  0.0951
 8408SOL    HW230036   0.669   5.589   2.330  1.8502  1.3602 -0.8434
 8409SOL     OW30037   4.751   6.826   0.199 -0.3932  0.0480 -0.2354
 8409SOL    HW130038   4.715   6.844   0.285 -0.9067 -1.1067 -0.1993
 8409SOL    HW230039   4.813   6.754   0.213 -0.4173 -0.0892 -0.8060
 8410SOL     OW30040  10.282  11.101   7.072 -0.0281  0.2099  0.2576
 8410SOL    HW130041  10.354  11.058   7.025  0.2210 -1.7244  2.2636
 8410SOL    HW230042  10.316  11.188   7.092  0.0410  0.9500 -2.5754
 8411SOL     OW30043   3.885   3.504   6.958 -0.4126 -0.0895  0.2806
 8411SOL    HW130044   3.829   3.507   6.880  0.0499 -1.0316 -0.1044
 8411SOL    HW230045   3.965   3.548   6.932  0.0099 -1.0093 -0.0166
 8412SOL     OW30046   4.823   4.674   9.066  0.1722  0.1266 -0.2523
 8412SOL    HW130047   4.780   4.730   9.001 -1.1730 -0.5557  0.0092
 8412SOL    HW230048   4.756   4.660   9.134  0.8388 -0.9067  0.2259
 8413SOL     OW30049   0.512   7.788  11.864  0.4042 -0.2268 -0.0877
 8413SOL    HW130050   0.503   7.882  11.855  1.4761 -0.1224 -0.1909
 8413SOL    HW230051   0.479   7.768  11.952  0.7598  0.3291  0.1741
 8414SOL     OW30052  12.490   9.905   8.361 -0.2564  0.4493 -1.1330
 8414SOL    HW130053  12.476   9.966   8.289  0.1026 -0.9399 -2.4237
 8414SOL    HW230054  12.581   9.918   8.386 -0.5160  1.2811 -0.5601
 8415SOL     OW30055   7.315   3.549  10.930  0.2354  0.6893 -0.5666
 8415SOL    HW130056   7.356   3.632  10.906 -0.9017  1.6725  0.7672
 8415SOL    HW230057   7.381   3.504  10.982  0.4087  1.3144 -0.2361
 8416SOL     OW30058  12.136  12.209   8.225  0.3267 -0.5652  0.3197
 8416SOL    HW130059  12.062  12.151   8.238 -0.8676  0.6648 -0.6649
 8416SOL    HW230060  12.187  12.167   8.155  0.0579 -0.9615  0.3581
 8417SOL     OW30061   6.738   5.355   2.672  0.2910 -0.1398  0.0351
 8417SOL    HW130062   6.736   5.450   2.658  1.0162 -0.1576 -0.2064
 8417SOL    HW230063   6.811   5.341   2.732  0.7240 -0.6292 -0.6015
 8418SOL     OW30064   1.102   2.171  10.897  0.0792  0.6805  0.1628
 8418SOL    HW130065   1.190   2.207  10.908 -0.3129  1.7167  0.0855
 8418SOL    HW230066   1.065   2.171  10.985 -0.0015  0.7028  0.1292
 8419SOL     OW30067   0.675   5.088   1.100  0.6848 -0.3523  0.0072
 8419SOL    HW130068   0.755   5.139   1.112 -0.4978  1.8848 -0.9341
 8419SOL    HW230069   0.639   5.078   1.188  1.5256 -0.5810  0.3314
 8420SOL     OW30070   7.744   8.910   3.314  0.3792  0.0353  0.1878
 8420SOL    HW130071   7.745   8.877   3.224 -1.1633 -1.1656  0.5676
 8420SOL    HW230072   7.815   8.862   3.357 -0.3941 -1.1762  0.1712
 8421SOL     OW30073   7.777   0.668   6.548 -0.3991  0.1739  0.7686
 8421SOL    HW130074   7.712   0.668   6.618 -1.2894 -1.0352 -0.0150
 8421SOL    HW230075   7.818   0.582   6.553 -1.6869 -0.6393 -1.2209
 8422SOL     OW30076   3.765   2.622  11.533 -0.2709 -0.2158 -0.8431
 8422SOL    HW130077   3.777   2.698  11.590  1.2479 -1.3605  0.4561
 8422SOL    HW230078   3.697   2.649  11.472 -0.4622  1.8358  0.1738
 8423SOL     OW30079   1.396  10.550   0.293  0.6003 -0.2856  0.0821
 8423SOL    HW130080   1.303  10.527   0.297 -0.1115  2.5248  1.6566
 8423SOL    HW230081   1.440  10.475   0.333 -1.1141 -1.0230  0.7051
 8424SOL     OW30082   0.893   2.283   1.280  0.5022  1.2264  0.2741
 8424SOL    HW130083   0.951   2.256   1.209  0.2294 -1.7828  1.0441
 8424SOL    HW230084   0.805   2.277   1.243  0.3180 -0.9382  0.9451
 8425SOL     OW30085   9.823   0.612   4.162 -0.1951 -0.6500 -0.0056
 8425SOL    HW130086   9.859   0.661   4.089 -0.5416 -0.3272  0.0381
 8425SOL    HW230087   9.808   0.524   4.126  3.1840 -1.6518  0.7044
 8426SOL     OW30088  11.090  11.795   5.416  0.0958  0.5195  0.3010
 8426SOL    HW130089  11.008  11.783   5.367 -0.1099 -0.4822  0.8585
 8426SOL    HW230090  11.156  11.809   5.348 -0.3811  0.3590 -0.2093
 8427SOL     OW30091   7.213   9.544  12.349 -0.2076  0.5059  0.4301
 8427SOL    HW130092   7.213   9.636  12.322 -0.3649  0.8556  1.5710
 8427SOL    HW230093   7.190   9.496  12.269  1.1205  1.3438 -0.5177
 8428SOL     OW30094   6.393   4.395   7.733  0.2607 -0.4247 -0.4811
 8428SOL    HW130095   6.451   4.346   7.791  2.2859  0.8105 -1.3475
 8428SOL    HW230096   6.405   4.486   7.759 -0.2881 -0.0204 -1.5728
 8429SOL     OW30097   3.179   7.657  10.266 -0.3625 -0.1092 -0.1026
 8429SOL    HW130098   3.229   7.591  10.315 -1.1380 -0.5571  0.0905
 8429SOL    HW230099   3.133   7.607  10.199 -0.7513  0.2728 -0.1203
 8430SOL     OW30100   5.230   3.676   2.071  0.0971  0.2136  0.1966
 8430SOL    HW130101   5.139   3.672   2.041  0.7107  1.0434 -1.9523
 8430SOL    HW230102   5.259   3.764   2.047  1.9590 -0.5870 -0.7105
 8431SOL     OW30103   9.802   4.408  12.079  0.4637 -0.7074  0.2067
 8431SOL    HW130104   9.731   4.471  12.091  1.3937  0.7485 -1.4863
 8431SOL    HW230105   9.768   4.343  12.018 -0.1962 -1.4009  1.2738
 8432SOL     OW30106   9.405  11.645   0.953  0.4294 -0.3036  0.8637
 8432SOL    HW130107   9.456  11.664   1.032  3.2769 -0.5825 -0.7904
 8432SOL    HW230108   9.443  11.701   0.886 -0.6864 -1.3802 -0.7317
 8433SOL     OW30109  11.974  12.566  10.585  0.4173  0.4732 -0.1631
 8433SOL    HW130110  11.989  12.609  10.670  1.0119 -0.2091  0.0848
 8433SOL    HW230111  11.917  12.627  10.537  1.6380  1.7767 -0.0115
 8434SOL     OW30112   9.997   5.492  10.572  0.1646 -0.5043 -0.0157
 8434SOL    HW130113   9.983   5.438  10.494 -0.9230 -1.3254  0.7001
 8434SOL    HW230114  10.067   5.448  10.620  0.9774  0.1176 -0.6128
 8435SOL     OW30115   3.819   7.914   6.541 -0.4649 -0.2582  0.6727
 8435SOL    HW130116   3.844   8.007   6.545 -1.3476 -0.0488  1.6826
 8435SOL    HW230117   3.816   7.894   6.447 -0.0021  0.6516  0.4498
 8436SOL     OW30118   1.482   0.454   6.305  0.1661 -0.1672 -0.7833
 8436SOL    HW130119   1.523   0.535   6.276  0.9873 -0.3767 -0.2180
 8436SOL    HW230120   1.550   0.407   6.352 -0.6477 -0.6324 -0.0369
 8437SOL     OW30121   1.236   0.971   0.180  0.0964 -0.3365 -0.1713
 8437SOL    HW130122   1.180   0.899   0.211 -0.7564  0.0176 -0.8623
 8437SOL    HW230123   1.180   1.048   0.184  0.2785 -0.1065 -1.6013
 8438SOL     OW30124   3.668  10.191   6.581  0.4837  0.2826 -0.1508
 8438SOL    HW130125   3.587  10.206   6.630 -0.7956 -1.9568 -1.4323
 8438SOL    HW230126   3.706  10.112   6.621  2.2312  1.4289  0.5880
 8439SOL     OW30127   2.974   9.143   7.005 -0.1340  0.4668 -0.7910
 8439SOL    HW130128   2.892   9.192   7.000 -0.1046  0.6649  0.4458
 8439SOL    HW230129   2.961   9.079   7.075  1.1435  1.2692  0.2420
 8440SOL     OW30130   2.648   5.321   0.031  0.5811 -0.5089 -0.2007
 8440SOL    HW130131   2.646   5.242  -0.022  0.3115 -1.0775  0.6276
 8440SOL    HW230132   2.595   5.385  -0.018  2.7015 -0.0430 -2.0365
 8441SOL     OW30133  11.270  10.354   1.024 -0.4451 -0.4542 -0.1105
 8441SOL    HW130134  11.366  10.364   1.024 -0.3371 -0.6420 -2.9373
 8441SOL    HW230135  11.256  10.260   1.022 -0.7653 -0.4625  1.4364
 8442SOL     OW30136  11.842  10.534   5.061  0.3152  0.0381 -0.5785
 8442SOL    HW130137  11.927  10.563   5.093  0.4732 -1.0152  0.0032
 8442SOL    HW230138  11.849  10.539   4.966  1.0461 -0.0868 -0.5385
 8443SOL     OW30139  12.194   2.475   1.885  0.4866  0.4065 -0.4058
 8443SOL    HW130140  12.280   2.516   1.894 -0.1004  1.7768 -0.8285
 8443SOL    HW230141  12.143   2.510   1.958  0.6974 -1.5815  0.7696
 8444SOL     OW30142   5.377   2.723  12.110  0.1506  0.4176  0.5343
 8444SOL    HW130143   5.446   2.660  12.088  1.2305  1.8486 -0.3798
 8444SOL    HW230144   5.423   2.793  12.156 -0.7359  1.3150  0.0851
 8445SOL     OW30145   5.937   4.951  12.422 -0.0644 -0.3029  0.4933
 8445SOL    HW130146   5.896   4.893  12.358 -0.7784 -0.0437  0.7041
 8445SOL    HW230147   5.987   4.893  12.478  1.4268 -0.4431 -0.8971
 8446SOL     OW30148   7.576  10.054   0.502 -0.3738 -0.5324  0.0354
 8446SOL    HW130149   7.621  10.138   0.509  0.2216 -0.7584 -0.8354
 8446SOL    HW230150   7.617  10.012   0.426  0.6709 -2.4073  1.5620
 8447SOL     OW30151  10.978   9.650   5.749 -0.0043 -0.6781  0.3221
 8447SOL    HW130152  11.032   9.593   5.694  0.9853 -1.2285  1.8082
 8447SOL    HW230153  10.907   9.595   5.780  0.1239 -0.7088  0.5652
 8448SOL     OW30154   6.736   2.618  10.743 -0.5699 -0.5848 -0.2229
 8448SOL    HW130155   6.652   2.664  10.749 -1.2922 -1.8857  0.0731
 8448SOL    HW230156   6.794   2.679  10.697 -1.4677  0.6180  0.1820
 8449SOL     OW30157   0.979   3.966  11.392 -0.0510 -0.5495 -0.4470
 8449SOL    HW130158   1.060   4.013  11.413 -0.8648  0.4630  0.6167
 8449SOL    HW230159   0.996   3.876  11.419 -0.1406  0.1844  2.4126
 8450SOL     OW30160   5.484   7.715   5.985  0.5568 -0.1956  0.3715
 8450SOL    HW130161   5.535   7.780   6.034  1.2528 -1.3010  1.1608
 8450SOL    HW230162   5.544   7.642   5.973 -0.1717 -0.6438 -0.6287
 8451SOL     OW30163   2.772   0.316   1.617  0.2180  0.1851 -0.0779
 8451SOL    HW130164   2.764   0.357   1.531  1.6549 -0.1351 -0.3908
 8451SOL    HW230165   2.726   0.233   1.608  0.1063  0.2830 -0.4448
 8452SOL     OW30166   6.044   7.347   6.993 -0.1834  0.1037  0.4083
 8452SOL    HW130167   6.024   7.256   7.013 -0.9646  0.4640  1.3836
 8452SOL    HW230168   5.975   7.375   6.933 -1.7404  0.8443  2.3994
 8453SOL     OW30169   4.124   5.011   5.529 -0.3186  0.3252  0.0279
 8453SOL    HW130170   4.060   5.000   5.459 -2.0820 -1.0615  1.7369
 8453SOL    HW230171   4.141   4.922   5.561  2.5380  0.6498 -0.3584
 8454SOL     OW30172   7.302   1.664  11.706  0.0032 -0.1316 -0.3027
 8454SOL    HW130173   7.249   1.681  11.628 -0.0410  1.3480  0.0121
 8454SOL    HW230174   7.367   1.735  11.706  1.1731 -1.1669  0.0272
 8455SOL     OW30175  11.160  11.238   7.154 -0.1488  0.1820 -0.2978
 8455SOL    HW130176  11.097  11.243   7.082  0.1273 -0.9766 -0.6556
 8455SOL    HW230177  11.111  11.199   7.226  0.1537 -0.8072 -0.6055
 8456SOL     OW30178  10.711   9.307   1.832 -0.5658 -0.1212 -0.3522
 8456SOL    HW130179  10.719   9.367   1.906  0.0312 -1.2514  0.5229
 8456SOL    HW230180  10.794   9.318   1.784  1.1276 -2.6683  1.7241
 8457SOL     OW30181   9.036   1.724   1.203 -0.1694  0.0403 -0.3970
 8457SOL    HW130182   9.111   1.749   1.257  1.6038  0.5379 -2.8938
 8457SOL    HW230183   9.035   1.628   1.206  0.6544  0.0239 -0.4195
 8458SOL     OW30184   0.023   5.461  12.636 -0.0081 -0.5078  0.1335
 8458SOL    HW130185   0.052   5.408  12.562  0.1896  0.0766 -0.2120
 8458SOL    HW230186   0.011   5.549  12.600 -0.7981 -0.4168  0.5944
 8459SOL     OW30187   0.677  10.152   7.142 -0.2013  0.0161 -0.8327
 8459SOL    HW130188   0.642  10.175   7.228  0.5369 -0.5346 -0.3712
 8459SOL    HW230189   0.771  10.169   7.149  0.3779 -2.8818 -0.4969
 8460SOL     OW30190  12.129   3.287   2.255 -0.0757  0.0142  0.3044
 8460SOL    HW130191  12.038   3.314   2.245 -0.1772 -0.7700 -1.2300
 8460SOL    HW230192  12.170   3.360   2.302 -1.4844  0.3598  1.0656
 8461SOL     OW30193   6.819   2.265  11.132 -0.1452 -0.2854  0.1776
 8461SOL    HW130194   6.830   2.356  11.106  0.0955  0.1224  1.6663
 8461SOL    HW230195   6.831   2.216  11.050  1.5771  0.8927 -0.3478
 8462SOL     OW30196   0.032   1.936   6.608  0.0074 -0.4011 -0.4125
 8462SOL    HW130197   0.001   1.936   6.517 -1.0956  1.6783 -0.0908
 8462SOL    HW230198  -0.024   1.999   6.653  2.1168  0.5006  1.1461
 8463SOL     OW30199   3.315   2.135   5.655 -0.3003 -0.0665 -0.0961
 8463SOL    HW130200   3.357   2.220   5.650  1.2882 -0.8754 -1.2263
 8463SOL    HW230201   3.372   2.084   5.713 -1.4261 -0.2714  0.8571
 8464SOL     OW30202   3.264   1.586   3.857 -0.2553 -0.0931  0.1150
 8464SOL    HW130203   3.211   1.538   3.794 -0.1496  1.2147 -1.0304
 8464SOL    HW230204   3.243   1.678   3.841  1.9201  0.4403 -0.0130
 8465SOL     OW30205   4.194   3.026   7.703  0.5128  0.1017  0.3490
 8465SOL    HW130206   4.226   2.956   7.645  0.5413  1.4923 -1.4083
 8465SOL    HW230207   4.227   3.002   7.790  0.8359 -1.8469 -0.2590
 8466SOL     OW30208   3.215   1.051   2.722  0.3581 -0.2773 -0.3263
 8466SOL    HW130209   3.236   1.142   2.698  0.6282 -0.2160  0.1331
 8466SOL    HW230210   3.287   1.000   2.688 -0.5695 -0.5277 -1.9924
 8467SOL     OW30211  12.494   8.452   7.200 -0.1352  0.0368 -0.3797
 8467SOL    HW130212  12.546   8.469   7.122 -2.6127  0.5523 -2.0417
 8467SOL    HW230213  12.489   8.357   7.206  2.5561 -0.0990  1.0068
 8468SOL     OW30214   1.018   8.179   6.127  0.0958  0.2875 -0.4422
 8468SOL    HW130215   1.068   8.102   6.102 -0.7020 -0.2033 -0.5273
 8468SOL    HW230216   1.080   8.231   6.180  0.7342 -0.2357 -0.6606
 8469SOL     OW30217   6.157   3.793   4.322 -0.0043  0.1521 -0.1776
 8469SOL    HW130218   6.207   3.724   4.279 -0.3283  1.3339 -2.5880
 8469SOL    HW230219   6.206   3.873   4.305 -0.6535  0.8116  0.8870
 8470SOL     OW30220   5.428  12.629  12.471 -0.1845 -0.1533  0.1699
 8470SOL    HW130221   5.390  12.647  12.385 -0.4419  0.2289  0.3645
 8470SOL    HW230222   5.502  12.570  12.452  2.0423  2.6943 -0.7374
 8471SOL     OW30223   1.454  10.524   3.115  0.6838 -0.2137  0.2288
 8471SOL    HW130224   1.527  10.475   3.153  0.5072  0.2299  1.1714
 8471SOL    HW230225   1.402  10.551   3.191 -0.6837 -0.8611 -0.4461
 8472SOL     OW30226   3.301   3.411   7.466 -0.2432  0.5452 -0.2399
 8472SOL    HW130227   3.350   3.357   7.404 -0.1152 -0.7134  0.9049
 8472SOL    HW230228   3.209   3.394   7.446 -0.2164 -0.9927  0.8134
 8473SOL     OW30229   4.104   1.295   8.160 -0.3224  0.2716 -0.3976
 8473SOL    HW130230   4.158   1.298   8.081 -1.0178  0.9555 -0.8598
 8473SOL    HW230231   4.042   1.224   8.144  0.8579 -0.9895  0.4309
 8474SOL     OW30232  12.414   8.758   1.350  0.5786  0.5061  0.4271
 8474SOL    HW130233  12.373   8.749   1.436 -0.4788 -0.6523 -0.1508
 8474SOL    HW230234  12.470   8.835   1.357  2.1981 -0.7676  2.8159
 8475SOL     OW30235  12.061   0.443  11.302  0.3860  0.2531 -0.0415
 8475SOL    HW130236  12.055   0.400  11.387 -0.6324  1.6102  0.6056
 8475SOL    HW230237  12.059   0.371  11.239 -1.0916 -0.6691  1.0037
 8476SOL     OW30238   8.843   0.576   3.133 -0.6089  0.4088 -0.3325
 8476SOL    HW130239   8.901   0.585   3.208  1.9791  2.8307 -2.3973
 8476SOL    HW230240   8.786   0.653   3.137 -0.0174  0.9089 -1.1205
 8477SOL     OW30241   9.100   6.874   3.000 -0.3925  0.7112  0.3634
 8477SOL    HW130242   9.167   6.823   2.955  0.2088  1.3514  0.5238
 8477SOL    HW230243   9.018   6.829   2.980 -0.0549  0.5857 -0.7840
 8478SOL     OW30244   5.279   8.046   3.624 -0.1792 -0.3142  0.3496
 8478SOL    HW130245   5.312   8.077   3.709 -2.0677  2.1696  0.3012
 8478SOL    HW230246   5.308   8.113   3.562 -0.9497 -0.7584 -0.5054
 8479SOL     OW30247   7.925   8.273  11.898 -0.0572 -0.2749 -0.6593
 8479SOL    HW130248   7.863   8.207  11.927 -0.8948 -0.3178 -2.4487
 8479SOL    HW230249   7.872   8.351  11.884  0.2789 -0.2789 -2.0895
 8480SOL     OW30250   4.783   1.308   3.125 -0.7684  0.0688 -0.2419
 8480SOL    HW130251   4.736   1.391   3.138 -1.5321 -0.4392  0.3445
 8480SOL    HW230252   4.832   1.321   3.044 -0.3416  1.3322  0.1919
 8481SOL     OW30253   0.424  12.549   0.704  0.5487 -0.0648  0.0105
 8481SOL    HW130254   0.476  12.583   0.777  0.1139 -0.5243  0.5417
 8481SOL    HW230255   0.358  12.617   0.689  0.8656  0.1968 -0.1959
 8482SOL     OW30256   9.004   7.109   9.622  0.6744  0.4908 -0.1750
 8482SOL    HW130257   9.036   7.069   9.704 -1.4215  0.8346  0.8856
 8482SOL    HW230258   8.927   7.057   9.600  1.5331  0.0480 -2.3015
 8483SOL     OW30259   1.008  11.067   0.656 -0.9809  0.2594  0.0676
 8483SOL    HW130260   1.077  11.001   0.658 -0.3557  0.9117  1.2588
 8483SOL    HW230261   0.927  11.017   0.663 -0.5972 -0.4535 -0.4005
 8484SOL     OW30262  11.205   1.169   4.913 -0.0763  0.5720 -0.1932
 8484SOL    HW130263  11.248   1.254   4.906 -1.3905  1.2335 -0.5637
 8484SOL    HW230264  11.275   1.105   4.898  0.9921  1.5687  0.4307
 8485SOL     OW30265   8.340   5.662   4.152  0.0090 -0.2069  0.4302
 8485SOL    HW130266   8.277   5.686   4.083  1.9620  3.2773 -0.3697
 8485SOL    HW230267   8.420   5.641   4.104  1.0323  1.0055  1.5598
 8486SOL     OW30268   2.796   9.357   7.021 -0.0417  0.0670  0.6670
 8486SOL    HW130269   2.856   9.423   6.987  0.4532  0.4964  2.2717
 8486SOL    HW230270   2.709   9.386   6.992  0.3454  0.4709 -0.0956
 8487SOL     OW30271   8.983   6.154  11.557  0.2594 -0.2710 -0.0539
 8487SOL    HW130272   8.923   6.133  11.629  0.3785  0.6045  0.3122
 8487SOL    HW230273   8.965   6.246  11.537  1.8948  0.1955  0.4730
 8488SOL     OW30274   1.970   4.017  12.033 -0.1617  0.2199 -0.0153
 8488SOL    HW130275   1.922   4.096  12.058 -1.2089 -0.0417 -1.1327
 8488SOL    HW230276   1.927   3.986  11.953 -0.1385 -1.7930  0.6847
 8489SOL     OW30277   7.369   1.583   6.734  0.1781 -0.2103 -0.2461
 8489SOL    HW130278   7.350   1.494   6.763  0.4357 -0.8273 -1.8207
 8489SOL    HW230279   7.288   1.631   6.748 -0.0223 -0.7409  0.4618
 8490SOL     OW30280   1.990   9.156  12.003  0.5990 -0.2865  0.1983
 8490SOL    HW130281   2.030   9.227  12.052 -0.5602 -0.6352  1.7478
 8490SOL    HW230282   1.908   9.192  11.969  0.4538 -0.6031  0.2008
 8491SOL     OW30283  11.010   7.177   2.658  0.3001 -0.3389  0.5036
 8491SOL    HW130284  11.033   7.270   2.650  0.5581 -0.4877 -0.5933
 8491SOL    HW230285  11.094   7.132   2.667  0.2048 -0.5053  0.5702
 8492SOL     OW30286  10.953   5.248   6.805  0.3664 -0.5376 -0.4885
 8492SOL    HW130287  10.901   5.173   6.836 -0.1703  0.0574  0.1094
 8492SOL    HW230288  10.948   5.243   6.710 -1.3372 -0.1546 -0.4581
 8493SOL     OW30289   1.712   4.835   3.354  0.7038  0.2599  0.2457
 8493SOL    HW130290   1.663   4.780   3.416  0.0972  1.2034  0.6169
 8493SOL    HW230291   1.791   4.784   3.334 -0.4425 -1.3248 -0.4269
 8494SOL     OW30292   6.545   6.498   0.904  0.1942  0.3319 -0.3576
 8494SOL    HW130293   6.566   6.442   0.830  1.8849 -1.6806  1.5017
 8494SOL    HW230294   6.600   6.576   0.892  1.6760 -0.6917 -0.4420
 8495SOL     OW30295   3.197  10.463   9.593  0.3798 -0.0046 -0.0878
 8495SOL    HW130296   3.282  10.456   9.550  0.8244  0.7789  0.6279
 8495SOL    HW230297   3.160  10.375   9.588  2.0559 -0.8434  1.2372
 8496SOL     OW30298  10.879  11.188   5.165  0.1785  0.1549  0.6331
 8496SOL    HW130299  10.888  11.119   5.099 -1.8241  1.6838 -1.4160
 8496SOL    HW230300  10.809  11.157   5.223 -2.5348  1.2850 -1.7357
 8497SOL     OW30301   6.479   1.949  10.962  0.0481 -0.2261  0.4420
 8497SOL    HW130302   6.511   2.034  10.993 -0.4500  0.1656 -0.1031
 8497SOL    HW230303   6.480   1.894  11.040  1.8325 -0.1675  0.4962
 8498SOL     OW30304   8.820   7.365   6.068 -0.3856  0.1984 -0.3538
 8498SOL    HW130305   8.727   7.385   6.066 -0.0927  1.7901  0.5436
 8498SOL    HW230306   8.840   7.352   6.161  0.2099 -0.5297 -0.5737
 8499SOL     OW30307  11.266   6.894   1.045 -0.7484  0.7637  0.1942
 8499SOL    HW130308  11.216   6.925   1.120  0.4103  0.6416  1.0452
 8499SOL    HW230309  11.285   6.802   1.064 -0.3098  0.7746 -0.1582
 8500SOL     OW30310   8.350   5.552   6.888 -0.0186  0.1144 -0.7662
 8500SOL    HW130311   8.340   5.607   6.810  0.0426  1.2778  0.0277
 8500SOL    HW230312   8.375   5.612   6.958 -1.1050 -0.7381  0.4149
 8501SOL     OW30313   2.807   7.138   5.697  0.2711  0.2829  0.1967
 8501SOL    HW130314   2.870   7.152   5.769  0.7082 -1.3142  0.1652
 8501SOL    HW230315   2.775   7.049   5.711 -2.3789  1.2048  0.4808
 8502SOL     OW30316   7.271  10.364  11.070 -0.5981  0.8719 -0.4929
 8502SOL    HW130317   7.322  10.396  11.144 -1.9496  1.0286  0.4156
 8502SOL    HW230318   7.234  10.281  11.101  1.8500 -1.1015 -2.3699
 8503SOL     OW30319   6.296   4.268   5.289  0.1398  0.0327 -0.2260
 8503SOL    HW130320   6.288   4.349   5.239  1.3554 -0.4069 -1.1957
 8503SOL    HW230321   6.262   4.200   5.229  0.4554 -0.3492  0.0270
 8504SOL     OW30322   0.058   2.428   7.098  0.0137  0.3021  0.0187
 8504SOL    HW130323   0.022   2.516   7.099  1.0201  0.7395 -1.0480
 8504SOL    HW230324   0.086   2.414   7.008  0.5502 -0.8290  0.3468
 8505SOL     OW30325   3.394   9.244   4.184  0.2537  0.0805 -0.0637
 8505SOL    HW130326   3.435   9.323   4.149 -1.5735  1.5284  0.9013
 8505SOL    HW230327   3.442   9.225   4.264 -0.1872  1.0884  0.4597
 8506SOL     OW30328   3.907   1.785   9.617 -0.2599 -0.1557 -0.3869
 8506SOL    HW130329   3.843   1.742   9.674 -1.7615  0.4790 -1.5208
 8506SOL    HW230330   3.884   1.757   9.529  1.2455 -0.1497 -0.8073
 8507SOL     OW30331   1.278   7.859  11.336 -0.2618  0.1662  0.4652
 8507SOL    HW130332   1.260   7.949  11.309  1.1675  0.4294  0.3184
 8507SOL    HW230333   1.337   7.825  11.269 -1.2789 -1.1208  0.1675
 8508SOL     OW30334   4.162  10.665   1.618 -0.3980  0.1214 -0.1215
 8508SOL    HW130335   4.072  10.659   1.652 -0.7152 -0.7235 -1.0452
 8508SOL    HW230336   4.197  10.745   1.657 -1.4856  0.3548  0.4253
 8509SOL     OW30337  10.606   1.765   1.798 -0.1849  0.4218 -1.0046
 8509SOL    HW130338  10.649   1.704   1.858  0.1469  0.6782 -0.9806
 8509SOL    HW230339  10.672   1.833   1.782 -0.3424  0.4617 -1.4918
 8510SOL     OW30340   0.647   0.126   0.575  0.1172 -0.0445  0.2233
 8510SOL    HW130341   0.589   0.050   0.569  0.8858 -0.7556  1.5241
 8510SOL    HW230342   0.590   0.197   0.605 -0.3528 -0.4058  0.1930
 8511SOL     OW30343   4.267   9.406   4.152  0.0434  0.0458 -0.0559
 8511SOL    HW130344   4.196   9.389   4.090 -0.3711  0.6518  0.2423
 8511SOL    HW230345   4.245   9.354   4.229 -0.6804  1.0905  0.4628
 8512SOL     OW30346   9.929   9.001   8.465 -0.1216 -0.1769 -0.0505
 8512SOL    HW130347   9.892   9.024   8.550  0.6138  0.4686  0.1144
 8512SOL    HW230348   9.985   8.925   8.482 -0.8466 -0.7525 -0.1805
 8513SOL     OW30349   5.634  10.613   3.248  0.1179  0.0879 -0.1948
 8513SOL    HW130350   5.719  10.587   3.282  0.0426  0.5638  0.3708
 8513SOL    HW230351   5.631  10.577   3.160  0.9943  0.2596 -0.3003
 8514SOL     OW30352   0.172  10.956   2.491 -0.4131 -0.0427 -0.7896
 8514SOL    HW130353   0.081  10.988   2.491 -0.5892 -0.5386 -0.4356
 8514SOL    HW230354   0.172  10.885   2.428 -1.1627 -2.4793  1.7406
 8515SOL     OW30355   1.416  12.325   2.802 -0.8547 -0.0578  0.0354
 8515SOL    HW130356   1.370  12.408   2.794 -1.6194 -0.4196  0.5275
 8515SOL    HW230357   1.347  12.259   2.798 -0.0880 -0.8015 -2.3365
 8516SOL     OW30358   6.381   6.811  10.019  0.3565  0.2443 -0.0024
 8516SOL    HW130359   6.405   6.808   9.927  1.5101 -1.5913  0.3006
 8516SOL    HW230360   6.422   6.733  10.057  2.2694  2.3632  2.6657
 8517SOL     OW30361   9.431   3.389   1.528  0.2460  0.0179 -0.0829
 8517SOL    HW130362   9.521   3.419   1.539 -0.0226  0.3252  1.4584
 8517SOL    HW230363   9.382   3.470   1.508  0.1434  0.0156  0.1580
 8518SOL     OW30364   4.919   8.251   2.584 -0.3376 -0.0179  0.6794
 8518SOL    HW130365   4.999   8.263   2.635  0.3794  0.7364 -0.5701
 8518SOL    HW230366   4.924   8.161   2.552 -0.2092 -0.1037  0.9339
 8519SOL     OW30367   6.562   9.334   8.882 -0.0018  0.1131  0.3463
 8519SOL    HW130368   6.485   9.389   8.890  0.8199  1.2497  0.7687
 8519SOL    HW230369   6.593   9.323   8.972 -0.1296 -1.0204  0.2625
 8520SOL     OW30370   4.865   4.981   9.649  0.6152  0.0199  0.0026
 8520SOL    HW130371   4.922   4.994   9.574  0.4613 -0.2986 -0.1738
 8520SOL    HW230372   4.803   5.054   9.645  0.5283 -0.0659 -0.2554
 8521SOL     OW30373   2.910  11.381   7.730 -0.1104 -0.0101 -0.0330
 8521SOL    HW130374   2.983  11.442   7.732  0.3494 -0.5587  0.4494
 8521SOL    HW230375   2.849  11.414   7.797 -0.3173  0.4568 -0.4501
 8522SOL     OW30376   5.759  10.566   2.642 -0.1328  0.2206 -0.3533
 8522SOL    HW130377   5.769  10.556   2.547  1.1833 -0.3876 -0.1767
 8522SOL    HW230378   5.700  10.640   2.652  0.9805  1.3439 -1.6384
 8523SOL     OW30379   8.959   8.397   6.670  0.5989 -0.2234  0.2195
 8523SOL    HW130380   8.895   8.464   6.696  0.8271  0.1284 -0.1217
 8523SOL    HW230381   9.021   8.443   6.614 -0.4188 -1.1444 -1.7944
 8524SOL     OW30382   0.788   4.909   8.820 -0.2927  0.2542  0.0480
 8524SOL    HW130383   0.793   4.824   8.775 -0.7163 -0.1638  0.7646
 8524SOL    HW230384   0.804   4.973   8.751  5.4265 -0.4190  0.2531
 8525SOL     OW30385   6.281   8.009  11.373 -0.5079  0.7024  0.0042
 8525SOL    HW130386   6.248   8.099  11.375 -0.4987  0.7604 -1.4930
 8525SOL    HW230387   6.204   7.955  11.388 -0.4825  0.9425  1.1047
 8526SOL     OW30388  11.870   1.375   4.445  0.4190  0.1533  0.1867
 8526SOL    HW130389  11.860   1.421   4.528  2.4039  0.5819  0.2357
 8526SOL    HW230390  11.930   1.429   4.394 -0.1690 -0.4887 -1.2552
 8527SOL     OW30391   7.076   6.779   8.694 -0.2393  0.2570  0.4652
 8527SOL    HW130392   7.110   6.854   8.646  0.6104  1.0626  2.2548
 8527SOL    HW230393   7.153   6.724   8.711 -0.2810  0.6417  2.0135
 8528SOL     OW30394   8.523  11.126   9.804 -0.9746 -0.8485 -0.6953
 8528SOL    HW130395   8.618  11.124   9.800 -0.9641 -1.8036 -0.0708
 8528SOL    HW230396   8.496  11.158   9.717 -0.0809  0.0334 -0.6586
 8529SOL     OW30397   5.018  10.181   1.293  0.3906  0.1264 -0.0030
 8529SOL    HW130398   5.035  10.269   1.328  2.1521 -0.6219  1.1457
 8529SOL    HW230399   4.997  10.197   1.201  0.1415  1.7900  0.2998
 8530SOL     OW30400   8.001   2.794   4.509 -0.0334  0.4272  0.0789
 8530SOL    HW130401   7.968   2.881   4.532  0.2343  0.3256  0.8903
 8530SOL    HW230402   8.075   2.780   4.569  0.2666 -0.1387 -0.4092
 8531SOL     OW30403   0.053   4.271   3.405 -0.2646  0.2801  0.4016
 8531SOL    HW130404   0.093   4.215   3.471 -0.5454 -1.0602 -0.5251
 8531SOL    HW230405  -0.041   4.264   3.421 -0.3212  0.1570  0.0144
 8532SOL     OW30406  12.243   3.567   1.953 -0.2972  0.0546 -0.1107
 8532SOL    HW130407  12.158   3.605   1.930  0.3627 -0.1013 -3.1292
 8532SOL    HW230408  12.250   3.487   1.900  1.8881  0.2796 -0.2718
 8533SOL     OW30409   0.169   5.705   9.314  0.6586  0.1090  0.5166
 8533SOL    HW130410   0.221   5.775   9.353 -1.2592  0.3731  2.8411
 8533SOL    HW230411   0.120   5.667   9.388 -0.2104 -2.0626 -1.0591
 8534SOL     OW30412   8.064  11.587   2.924  0.2496 -0.1575 -0.0029
 8534SOL    HW130413   8.118  11.589   2.845 -0.3824  2.1197 -0.4501
 8534SOL    HW230414   8.113  11.534   2.986  1.4080 -0.8648 -1.4838
 8535SOL     OW30415   3.393   3.386   5.342 -0.1352  0.1476  0.1368
 8535SOL    HW130416   3.320   3.353   5.290 -0.1472  2.8796 -1.8399
 8535SOL    HW230417   3.470   3.374   5.286  0.6471 -0.8493  1.3616
 8536SOL     OW30418   0.594   3.315  11.024 -0.5917  0.0566 -0.2436
 8536SOL    HW130419   0.689   3.308  11.010 -0.7599  1.4953 -2.7016
 8536SOL    HW230420   0.559   3.337  10.938 -2.8845  2.0645  1.0688
 8537SOL     OW30421   8.524   2.632   8.997  0.0513  0.5497 -0.3297
 8537SOL    HW130422   8.612   2.663   8.977  1.2937 -1.8551  0.9564
 8537SOL    HW230423   8.498   2.680   9.075  1.3198 -0.4614  0.7663
 8538SOL     OW30424   0.425  11.752   2.315 -0.0145  0.0711 -0.1486
 8538SOL    HW130425   0.434  11.673   2.368  0.8575  0.4922  0.3519
 8538SOL    HW230426   0.338  11.787   2.338 -2.5370 -3.1018 -3.7001
 8539SOL     OW30427   8.613  11.774  12.089  0.2841 -0.5410  0.1039
 8539SOL    HW130428   8.547  11.841  12.073 -0.3545 -0.3915  2.8826
 8539SOL    HW230429   8.567  11.691  12.078 -0.7251 -0.4454  2.8106
 8540SOL     OW30430   1.565  11.531   9.187  0.0727 -0.0762  0.3842
 8540SOL    HW130431   1.582  11.566   9.274 -0.2208  0.1086  0.3686
 8540SOL    HW230432   1.526  11.445   9.202  3.6671 -1.8521  0.4288
 8541SOL     OW30433   2.598  10.522   6.209  0.0272 -0.2640 -0.8940
 8541SOL    HW130434   2.652  10.562   6.141  0.1766 -1.5914 -1.5847
 8541SOL    HW230435   2.512  10.564   6.198  0.5935  1.0318 -0.5275
 8542SOL     OW30436   5.998  11.081  11.336 -0.0797  0.8704  0.1478
 8542SOL    HW130437   6.003  11.053  11.244 -1.9548  0.8235  0.0341
 8542SOL    HW230438   6.024  11.173  11.334  3.2101  0.0849  0.1104
 8543SOL     OW30439   1.509   2.284   2.497 -0.7193 -0.7639 -0.3524
 8543SOL    HW130440   1.601   2.269   2.475 -0.8536 -1.3192 -0.5414
 8543SOL    HW230441   1.482   2.354   2.437 -0.5490 -0.9169 -0.6098
 8544SOL     OW30442   2.308   8.693   5.207  0.1889 -0.4774  0.4028
 8544SOL    HW130443   2.250   8.745   5.152  0.5335  0.0904  0.5709
 8544SOL    HW230444   2.389   8.684   5.156 -0.2207 -1.7399 -0.0707
 8545SOL     OW30445   4.333   4.275  10.759 -0.4995  0.8733 -0.3822
 8545SOL    HW130446   4.323   4.331  10.836 -1.3339  2.1512 -1.3727
 8545SOL    HW230447   4.427   4.254  10.757  0.0904  3.2577 -0.6422
 8546SOL     OW30448  11.846   8.632   3.656  0.2502 -0.4512  0.0587
 8546SOL    HW130449  11.813   8.721   3.672 -0.8680 -0.4336 -2.0208
 8546SOL    HW230450  11.908   8.643   3.583  0.4359 -1.3324  0.0747
 8547SOL     OW30451   2.838   4.992   4.969 -0.0266  0.1097  0.1768
 8547SOL    HW130452   2.821   5.077   4.929  0.4735  1.2901  2.3204
 8547SOL    HW230453   2.771   4.934   4.932 -0.2427  1.3492 -1.4861
 8548SOL     OW30454   4.771  10.686   6.077 -0.3151  0.0291  0.5409
 8548SOL    HW130455   4.762  10.675   6.172 -0.0637  0.3874  0.6080
 8548SOL    HW230456   4.838  10.753   6.067  0.2517 -0.5989  0.0890
 8549SOL     OW30457   3.168   5.409  11.888 -0.2467  0.4695 -0.2538
 8549SOL    HW130458   3.113   5.334  11.910  0.6838  0.2191  1.3661
 8549SOL    HW230459   3.148   5.428  11.796 -0.3222 -1.8864 -0.7693
 8550SOL     OW30460   4.351   9.669   0.113 -0.2404 -0.1207  0.5351
 8550SOL    HW130461   4.320   9.660   0.023 -0.3389  1.0605  0.4375
 8550SOL    HW230462   4.310   9.750   0.145  0.2356 -0.2259  1.4506
 8551SOL     OW30463   9.642   0.163  10.801 -0.3348 -0.7588 -0.1805
 8551SOL    HW130464   9.718   0.217  10.822 -0.0546 -0.7591 -1.1308
 8551SOL    HW230465   9.679   0.087  10.755 -0.7319 -1.7166  1.0113
 8552SOL     OW30466  11.993   8.529  11.706  0.1391 -0.3637  0.2189
 8552SOL    HW130467  11.905   8.541  11.671 -0.4822 -2.2078  1.0080
 8552SOL    HW230468  12.046   8.597  11.663 -2.2059  2.8758  2.0087
 8553SOL     OW30469   2.240   7.709   3.367 -0.1764 -0.0638 -0.5854
 8553SOL    HW130470   2.320   7.656   3.369  0.0874  0.2596 -1.8330
 8553SOL    HW230471   2.193   7.679   3.290 -0.5419  0.7769 -0.7019
 8554SOL     OW30472   1.900   5.017   8.571 -0.2038  0.5215  0.0105
 8554SOL    HW130473   1.864   5.096   8.530 -0.9585  1.6507  2.6587
 8554SOL    HW230474   1.992   5.039   8.588 -0.3726  0.7925  0.6002
 8555SOL     OW30475   8.528   1.311   6.685 -0.7366 -0.3297 -0.0100
 8555SOL    HW130476   8.567   1.344   6.767  1.1690 -0.8425 -0.6632
 8555SOL    HW230477   8.512   1.390   6.633  0.4420 -0.1579 -0.1353
 8556SOL     OW30478   8.221   5.153   3.458 -0.1760 -0.1731 -0.1003
 8556SOL    HW130479   8.273   5.107   3.392  1.3041  1.3552 -0.0832
 8556SOL    HW230480   8.271   5.143   3.539 -0.8748 -0.2486  0.3245
 8557SOL     OW30481   7.001   0.816   4.008  0.6810  0.0458  0.3304
 8557SOL    HW130482   7.029   0.750   3.945  1.7919  0.0200  0.8372
 8557SOL    HW230483   7.046   0.896   3.981  0.2021  0.3391  0.3740
 8558SOL     OW30484   2.729   8.810  11.193  0.4024  0.0835 -1.2038
 8558SOL    HW130485   2.823   8.793  11.190  0.6975  1.4154 -0.1066
 8558SOL    HW230486   2.703   8.817  11.101  1.2668 -0.7822 -1.5280
 8559SOL     OW30487   7.708  10.394   7.540 -0.0951  0.1685 -0.5852
 8559SOL    HW130488   7.630  10.438   7.573 -0.7068 -0.3402 -1.3080
 8559SOL    HW230489   7.674  10.319   7.490  0.8462  0.0653 -1.1003
 8560SOL     OW30490  10.572   5.939   2.993 -0.3580  0.0730  0.0265
 8560SOL    HW130491  10.505   5.977   3.049 -0.1196 -0.6311  0.8149
 8560SOL    HW230492  10.531   5.932   2.907 -1.0573  0.2799  0.3417
 8561SOL     OW30493   9.026   9.174   3.504  0.1549 -0.0616  0.2863
 8561SOL    HW130494   9.049   9.089   3.540 -0.7219 -0.0977  0.7908
 8561SOL    HW230495   9.101   9.230   3.523  0.1631 -0.3720  1.1816
 8562SOL     OW30496   0.474   4.191  10.273 -0.8499  0.0485 -0.5079
 8562SOL    HW130497   0.565   4.220  10.266 -0.6104 -0.9626 -2.1260
 8562SOL    HW230498   0.423   4.265  10.241 -0.5709  0.4593 -0.0101
 8563SOL     OW30499   6.550   2.014   4.287  0.2599 -0.2421  0.5740
 8563SOL    HW130500   6.508   2.067   4.354 -1.0695 -1.5800  0.8412
 8563SOL    HW230501   6.546   2.067   4.207 -1.0478  0.0648  0.8287
 8564SOL     OW30502   7.384   6.658   6.902  0.8971 -0.5058  0.0450
 8564SOL    HW130503   7.474   6.689   6.904  1.2071 -1.3840  1.5876
 8564SOL    HW230504   7.333   6.733   6.873  1.8254  0.8760  1.7895
 8565SOL     OW30505  11.532   4.747   8.195  0.1909 -0.5742  0.0378
 8565SOL    HW130506  11.603   4.781   8.140  1.0857  0.4172  1.7088
 8565SOL    HW230507  11.453   4.788   8.159  0.7077 -0.1998 -0.7041
 8566SOL     OW30508   4.837   5.237   3.545  0.4092  0.0449 -0.3993
 8566SOL    HW130509   4.839   5.237   3.640  0.5180 -0.8327 -0.3927
 8566SOL    HW230510   4.904   5.173   3.520  0.9918  0.8914 -1.0807
 8567SOL     OW30511   1.800   4.065   1.421  0.1539 -0.3469 -0.5636
 8567SOL    HW130512   1.771   3.974   1.420  0.2394 -0.4293  1.3256
 8567SOL    HW230513   1.894   4.061   1.440 -0.1556  0.1388  1.3086
 8568SOL     OW30514   2.517   1.225   2.291 -0.1787  0.0186  0.2672
 8568SOL    HW130515   2.566   1.298   2.253  2.1697 -0.9682  1.1794
 8568SOL    HW230516   2.469   1.264   2.365 -0.5670  0.9784 -0.4747
 8569SOL     OW30517   2.404   4.397   6.897  0.3279  0.4765  0.0177
 8569SOL    HW130518   2.439   4.369   6.981 -1.0174 -0.3301  0.3209
 8569SOL    HW230519   2.481   4.398   6.839  1.5389  2.3568  1.5220
 8570SOL     OW30520   9.451   8.338  11.404 -0.2375 -0.9387 -0.3704
 8570SOL    HW130521   9.481   8.252  11.374 -1.4168 -1.4471 -0.1396
 8570SOL    HW230522   9.367   8.321  11.447  0.4025  0.0590  1.3909
 8571SOL     OW30523   3.373   7.991   1.074  0.3669 -0.6698 -0.1029
 8571SOL    HW130524   3.444   8.022   1.018  0.0665  1.8174  0.7451
 8571SOL    HW230525   3.294   8.031   1.036  0.0702  0.4323  1.5652
 8572SOL     OW30526   4.568  12.213   8.168 -0.4349  0.3354  0.0424
 8572SOL    HW130527   4.484  12.173   8.191  0.0870 -0.7838  0.0946
 8572SOL    HW230528   4.545  12.297   8.130 -1.5907  0.0062 -0.0270
 8573SOL     OW30529   5.242   7.569  10.348 -0.1598 -0.2559  0.9212
 8573SOL    HW130530   5.168   7.572  10.288 -0.0100 -2.4564  0.5593
 8573SOL    HW230531   5.269   7.478  10.349  2.8350  0.5164  0.7291
 8574SOL     OW30532   0.153   9.294  10.989 -0.3515  0.5473  0.3339
 8574SOL    HW130533   0.136   9.357  10.919  0.1238 -1.5185 -1.7601
 8574SOL    HW230534   0.074   9.240  10.993 -0.1708  0.3197  1.0260
 8575SOL     OW30535   4.452   8.633   2.244  0.5516 -0.5398 -0.1745
 8575SOL    HW130536   4.496   8.681   2.173  1.3056 -0.3852  0.3895
 8575SOL    HW230537   4.370   8.603   2.205  1.0920 -0.7191 -1.2078
 8576SOL     OW30538   7.412   8.172   0.099 -0.0435 -0.4956 -0.0164
 8576SOL    HW130539   7.345   8.236   0.072 -0.7582 -0.7585  1.0835
 8576SOL    HW230540   7.392   8.094   0.049 -0.2996 -0.4391 -0.0033
 8577SOL     OW30541   6.364  11.402   8.788  0.4464 -0.2238  0.2672
 8577SOL    HW130542   6.283  11.355   8.808  1.0074 -0.2456  2.8625
 8577SOL    HW230543   6.433  11.336   8.792  0.6692 -0.2306 -2.0342
 8578SOL     OW30544   7.369  10.828   1.481  0.0377 -0.1080  0.0580
 8578SOL    HW130545   7.465  10.820   1.476  0.0377  0.1722 -0.4294
 8578SOL    HW230546   7.341  10.838   1.390 -0.1482  3.2722  0.3859
 8579SOL     OW30547   4.014   4.473   5.035 -0.2937  0.4884  0.7272
 8579SOL    HW130548   4.092   4.507   5.080  1.7478 -0.7317 -1.6145
 8579SOL    HW230549   3.991   4.543   4.974  0.1151  0.1468  0.1709
 8580SOL     OW30550  11.760  10.674   2.560 -0.8711  0.0375  0.1003
 8580SOL    HW130551  11.757  10.764   2.526 -1.1846 -0.0738 -0.1715
 8580SOL    HW230552  11.742  10.619   2.484 -0.7241 -0.2537  0.2761
 8581SOL     OW30553   5.347   1.189   0.371 -0.0068  0.0782 -1.1956
 8581SOL    HW130554   5.273   1.145   0.329  0.6032 -0.1049 -2.1089
 8581SOL    HW230555   5.396   1.227   0.298  0.1116  1.2905 -0.5101
 8582SOL     OW30556  12.005   8.154   5.984 -1.1271  0.0930 -0.2558
 8582SOL    HW130557  12.100   8.143   5.989 -0.9656  1.3943  0.0959
 8582SOL    HW230558  11.971   8.068   5.962  0.3932  0.2402 -3.9119
 8583SOL     OW30559   9.692  12.486   6.720 -0.3340  0.5143  0.0487
 8583SOL    HW130560   9.596  12.495   6.719 -0.3734  0.4541  1.3445
 8583SOL    HW230561   9.712  12.449   6.806  0.7216 -1.3288 -0.9405
 8584SOL     OW30562   8.911  12.461   4.310  0.0749  0.6039  0.0533
 8584SOL    HW130563   8.973  12.406   4.358  0.0318  1.1221  0.7176
 8584SOL    HW230564   8.883  12.407   4.236  0.0904 -0.2479  0.6522
 8585SOL     OW30565   1.843  10.591   2.471 -0.0612  0.3170 -0.2226
 8585SOL    HW130566   1.835  10.619   2.562 -0.5656  2.5381 -0.8903
 8585SOL    HW230567   1.915  10.643   2.436  0.4344 -0.8563 -0.9808
 8586SOL     OW30568   5.871   2.356   3.063 -0.0868 -0.7284 -0.4164
 8586SOL    HW130569   5.918   2.283   3.103 -0.7977 -0.1197  1.7027
 8586SOL    HW230570   5.912   2.368   2.978  1.8707 -1.8368  0.3066
 8587SOL     OW30571   4.958   6.897   5.504 -0.3052  0.1481 -0.3486
 8587SOL    HW130572   4.907   6.818   5.523 -0.9756  0.6233 -0.1626
 8587SOL    HW230573   4.948   6.909   5.409  1.2355 -0.9650 -0.7066
 8588SOL     OW30574   4.393   7.816   7.373  0.4129  0.7950 -0.1921
 8588SOL    HW130575   4.435   7.800   7.288  1.0431 -2.3332  0.5800
 8588SOL    HW230576   4.458   7.866   7.423  1.4579 -0.2899 -0.4402
 8589SOL     OW30577   6.731   7.417   1.455  0.5175  0.7823  0.0592
 8589SOL    HW130578   6.735   7.476   1.530  2.4174 -0.0906  0.6953
 8589SOL    HW230579   6.737   7.474   1.378  0.2183  1.5569  0.6068
 8590SOL     OW30580   2.578  10.800   7.380 -0.2213  0.6518  0.2207
 8590SOL    HW130581   2.630  10.880   7.371  2.1414 -0.8959 -0.8519
 8590SOL    HW230582   2.642  10.729   7.380 -2.3223 -1.3824 -0.7957
 8591SOL     OW30583   9.948  11.691   9.521 -0.5991 -0.0726 -0.2521
 8591SOL    HW130584   9.981  11.707   9.433  0.8523 -1.1842  0.0464
 8591SOL    HW230585   9.883  11.621   9.510  1.1383 -1.7885 -0.2537
 8592SOL     OW30586  10.484  10.030   8.166 -0.3580  0.2985  0.2406
 8592SOL    HW130587  10.422  10.037   8.094 -1.5912 -1.0030  1.1246
 8592SOL    HW230588  10.545   9.961   8.139 -0.4296  0.2606  0.1785
 8593SOL     OW30589  10.247   2.835   5.179  0.2483 -0.9059 -0.6117
 8593SOL    HW130590  10.336   2.844   5.213 -0.3336  0.0500  0.7430
 8593SOL    HW230591  10.196   2.809   5.256 -0.6705 -1.2804 -1.3446
 8594SOL     OW30592   8.784   8.149  10.637 -0.0936 -0.1377  0.3789
 8594SOL    HW130593   8.708   8.139  10.695  0.8571  1.1465  1.9136
 8594SOL    HW230594   8.747   8.148  10.549 -1.8455  0.1208  1.0790
 8595SOL     OW30595   6.371   8.998   8.795 -0.4084  0.2141 -0.5163
 8595SOL    HW130596   6.462   9.014   8.820 -0.4204  2.5554 -1.6762
 8595SOL    HW230597   6.321   9.012   8.876  0.3131 -3.1766  0.6744
 8596SOL     OW30598   6.095   8.080   5.762  0.5568 -0.3726 -0.4671
 8596SOL    HW130599   6.104   8.143   5.689  2.1820  0.6512  0.5370
 8596SOL    HW230600   6.003   8.084   5.786  0.0813 -0.3872 -2.1642
 8597SOL     OW30601   8.203   1.053   4.839 -0.0498  0.4959  0.0995
 8597SOL    HW130602   8.278   1.113   4.836  0.4855  0.0003  1.9860
 8597SOL    HW230603   8.200   1.014   4.752  0.9662  1.6313 -0.4707
 8598SOL     OW30604  12.019   2.094  12.483 -0.1117  0.0904  0.0803
 8598SOL    HW130605  11.968   2.094  12.564  0.1829 -1.5338  0.2979
 8598SOL    HW230606  12.026   2.186  12.459 -1.8008  0.4692  0.8850
 8599SOL     OW30607   8.945   9.407   0.158  0.1692 -0.2257 -0.0298
 8599SOL    HW130608   9.016   9.437   0.100  0.9721 -1.7248  0.1457
 8599SOL    HW230609   8.865   9.434   0.112  0.8048 -0.4713 -1.3379
 8600SOL     OW30610  10.154  12.027   9.204  0.5400 -0.0334  0.3872
 8600SOL    HW130611  10.232  12.060   9.159 -0.3971  0.7423 -0.7452
 8600SOL    HW230612  10.117  12.104   9.248  1.4090 -0.7677  2.5231
 8601SOL     OW30613   0.253   1.428   2.465  0.9845 -0.1141 -0.0120
 8601SOL    HW130614   0.260   1.478   2.546 -1.0356 -1.0473  0.8194
 8601SOL    HW230615   0.293   1.343   2.485 -1.0449 -0.9820  0.6700
 8602SOL     OW30616   2.716   6.205   4.787  0.7053  0.0489 -0.1101
 8602SOL    HW130617   2.728   6.173   4.698 -0.1958  1.4593 -0.7752
 8602SOL    HW230618   2.755   6.293   4.787 -1.9556  1.3456 -0.0474
 8603SOL     OW30619   4.991   2.930   4.556  0.1908 -0.2625 -0.0326
 8603SOL    HW130620   5.016   3.007   4.505  0.4038 -0.1411  0.2593
 8603SOL    HW230621   4.896   2.937   4.564  0.2634  0.2373  0.4267
 8604SOL     OW30622   3.097   5.606   2.744  0.7266  0.0232  0.2869
 8604SOL    HW130623   3.132   5.658   2.671 -1.6232  1.5029  0.1198
 8604SOL    HW230624   3.102   5.664   2.820 -0.8302  0.1145  0.3501
 8605SOL     OW30625   7.062   6.325  10.403 -0.2749 -0.5515  0.3586
 8605SOL    HW130626   7.125   6.253  10.401  0.5531  0.1305 -1.7565
 8605SOL    HW230627   7.058   6.356  10.312 -3.8881 -0.7053  0.3065
 8606SOL     OW30628  11.769   5.284   4.625  0.0803 -0.1973 -0.1824
 8606SOL    HW130629  11.727   5.270   4.540  0.5714  0.5766 -0.5565
 8606SOL    HW230630  11.710   5.345   4.670 -1.0663 -1.8871  0.7136
 8607SOL     OW30631   8.754   9.857   1.634  0.3294 -0.3907 -0.2143
 8607SOL    HW130632   8.763   9.889   1.724  1.9190  1.8683 -1.0655
 8607SOL    HW230633   8.751   9.762   1.643  3.1757 -0.4191  2.1203
 8608SOL     OW30634  11.050   8.421   3.660  0.1785 -0.2301 -0.0438
 8608SOL    HW130635  10.989   8.479   3.705  0.8164 -0.6076  1.3593
 8608SOL    HW230636  11.095   8.478   3.597 -0.1143  0.5152  0.4063
 8609SOL     OW30637   3.143   7.873   3.194  0.3316 -0.5608 -0.1838
 8609SOL    HW130638   3.165   7.937   3.262 -0.2872 -0.7316  0.1876
 8609SOL    HW230639   3.061   7.904   3.157  0.9962 -0.1069 -1.3326
 8610SOL     OW30640  10.064  10.899  12.391  0.7092  0.4764  1.1968
 8610SOL    HW130641  10.133  10.942  12.341  0.3730  0.5296  0.7749
 8610SOL    HW230642   9.991  10.961  12.388 -0.4780 -0.9364 -1.0974
 8611SOL     OW30643  10.402   8.959   8.114  0.1156  0.1247 -0.1980
 8611SOL    HW130644  10.377   9.036   8.164 -1.2458 -1.3014  1.4662
 8611SOL    HW230645  10.320   8.927   8.076  0.3235 -1.4392  0.5826
 8612SOL     OW30646   9.900  12.633   8.278 -0.1803  0.2837 -0.4661
 8612SOL    HW130647   9.857  12.676   8.352  0.4211  0.7018 -0.3519
 8612SOL    HW230648   9.867  12.543   8.280  1.9977 -0.5928  2.1047
 8613SOL     OW30649   7.281   2.145   1.955  0.2919 -0.1385  0.0640
 8613SOL    HW130650   7.266   2.240   1.950 -2.1862 -0.4552  0.3815
 8613SOL    HW230651   7.272   2.125   2.048  0.6797 -0.7265 -0.0212
 8614SOL     OW30652  11.108   5.661   0.640  0.1904  0.1591 -0.1233
 8614SOL    HW130653  11.034   5.671   0.580 -0.1627  2.1018  0.5483
 8614SOL    HW230654  11.182   5.703   0.595  0.3369  0.1585  0.1156
 8615SOL     OW30655   2.470  11.281   6.559 -0.0607 -0.3015  0.7572
 8615SOL    HW130656   2.522  11.356   6.532  1.3113 -1.2806  0.5673
 8615SOL    HW230657   2.410  11.266   6.486  0.0145  0.2875  0.5676
 8616SOL     OW30658   9.200   3.089   4.736 -0.1915  0.6721  0.1016
 8616SOL    HW130659   9.179   3.015   4.680 -0.8573 -0.1672  1.4300
 8616SOL    HW230660   9.279   3.127   4.697  0.1122 -0.6796 -0.6406
 8617SOL     OW30661   4.370   5.076   1.452 -0.5896 -0.2555  0.2041
 8617SOL    HW130662   4.367   5.172   1.449  1.1986 -0.1783 -0.8414
 8617SOL    HW230663   4.396   5.051   1.363 -0.6626 -1.6983  0.5679
 8618SOL     OW30664   2.428  11.303   6.106  0.2594 -0.3705  0.1793
 8618SOL    HW130665   2.378  11.245   6.048 -0.4532 -0.8961  1.2789
 8618SOL    HW230666   2.440  11.251   6.186 -2.1643  1.6350  2.0226
 8619SOL     OW30667   0.135   9.110   1.000 -0.2880 -0.0650  0.0509
 8619SOL    HW130668   0.153   9.192   0.955  2.6371  0.8996  2.6048
 8619SOL    HW230669   0.044   9.117   1.028  0.0199  2.6200  0.6665
 8620SOL     OW30670   4.728  10.821  12.496 -0.4155  0.6678  0.2969
 8620SOL    HW130671   4.723  10.824  12.401  0.3036 -0.0145  0.2293
 8620SOL    HW230672   4.811  10.778  12.515 -1.8583 -1.9722  1.1934
 8621SOL     OW30673   3.292   2.029   9.412  1.0125  0.4710  0.0249
 8621SOL    HW130674   3.315   2.076   9.332 -0.6164 -1.7672 -1.9224
 8621SOL    HW230675   3.318   1.938   9.394 -1.7644 -0.6071  0.9063
 8622SOL     OW30676   9.935   7.849   1.677  0.1293 -0.1120  0.1222
 8622SOL    HW130677  10.007   7.787   1.661  0.2376 -0.2895  1.2096
 8622SOL    HW230678   9.890   7.856   1.593  1.9588  0.7056 -0.8447
 8623SOL     OW30679   1.813   8.348   0.908  0.3417 -0.5916 -0.2794
 8623SOL    HW130680   1.727   8.372   0.943  0.5253  0.9827 -0.7962
 8623SOL    HW230681   1.810   8.253   0.899 -0.7683 -0.7340  1.1790
 8624SOL     OW30682   7.690  11.962   0.123  0.9513  0.5535  0.1786
 8624SOL    HW130683   7.769  12.013   0.141  0.2794  2.3994 -1.6495
 8624SOL    HW230684   7.618  12.020   0.150  0.1801 -0.4316  0.2880
 8625SOL     OW30685   1.592   3.051   0.248  0.3354  0.1301 -0.2915
 8625SOL    HW130686   1.601   3.011   0.335 -3.0533  0.5886  0.3930
 8625SOL    HW230687   1.527   2.997   0.203  1.4333  0.3750 -2.3062
 8626SOL     OW30688   7.085   1.788   4.033  0.4627 -0.0470  0.4572
 8626SOL    HW130689   7.093   1.735   4.112 -1.3660 -1.6655 -0.3790
 8626SOL    HW230690   6.995   1.820   4.033  1.3598  2.7967  0.6978
 8627SOL     OW30691   5.388   1.626   6.723 -0.6581  0.0426 -0.5635
 8627SOL    HW130692   5.473   1.621   6.679  0.8780  1.0598  1.9937
 8627SOL    HW230693   5.343   1.700   6.682  0.6339  0.8527 -0.5856
 8628SOL     OW30694   9.694   3.366   6.229  0.3180 -0.0904 -0.0277
 8628SOL    HW130695   9.722   3.291   6.280 -0.4149 -0.0785  0.4084
 8628SOL    HW230696   9.603   3.347   6.206  0.8075 -0.4135 -1.9103
 8629SOL     OW30697   3.102   5.725   2.996 -0.1517  0.0794 -0.1773
 8629SOL    HW130698   3.176   5.668   3.018 -0.2156 -0.3276 -0.9585
 8629SOL    HW230699   3.096   5.787   3.068  0.6334 -0.2047  0.1379
 8630SOL     OW30700   3.706   9.110   2.051 -0.7981  0.4491  0.0494
 8630SOL    HW130701   3.738   9.055   2.123  3.1009  2.0570 -0.1801
 8630SOL    HW230702   3.769   9.094   1.980 -1.9139  2.2156 -1.4133
 8631SOL     OW30703   4.609  12.099   0.960  0.0195  0.4520 -0.2672
 8631SOL    HW130704   4.551  12.053   1.021  1.8704  1.1491  2.1704
 8631SOL    HW230705   4.637  12.031   0.898  0.2811 -1.0178  1.3939
 8632SOL     OW30706   6.351  11.673   9.003 -0.3671  0.3929  0.3022
 8632SOL    HW130707   6.328  11.580   9.008 -0.2937  0.3955  0.7630
 8632SOL    HW230708   6.282  11.712   8.949  0.5342 -0.2177 -1.3719
 8633SOL     OW30709   7.515  11.418   3.858 -0.2482 -0.5683 -0.3639
 8633SOL    HW130710   7.524  11.501   3.906 -0.3359 -1.2261  0.8412
 8633SOL    HW230711   7.481  11.443   3.773  0.6263  0.7274 -0.3674
 8634SOL     OW30712  12.536   9.060  11.496 -0.3853  0.3424  0.1170
 8634SOL    HW130713  12.546   9.130  11.561  0.4158  0.2255  0.1281
 8634SOL    HW230714  12.492   8.989  11.544 -1.6955  1.0155 -0.0326
 8635SOL     OW30715   5.320   3.836   3.208  0.6603  0.2228 -0.4236
 8635SOL    HW130716   5.411   3.864   3.209  0.7181  0.0087  0.1583
 8635SOL    HW230717   5.324   3.743   3.183  0.6373  0.0735  0.1296
 8636SOL     OW30718  10.503   8.658   2.918 -0.1876 -0.0488  0.1718
 8636SOL    HW130719  10.459   8.606   2.986  0.5306 -0.8944  0.0016
 8636SOL    HW230720  10.522   8.742   2.961 -0.5796 -0.2293  0.7169
 8637SOL     OW30721   0.747   7.000   3.665  0.4002  0.2369  0.1420
 8637SOL    HW130722   0.702   6.919   3.686 -0.0089  1.1557  3.4266
 8637SOL    HW230723   0.714   7.063   3.729  1.5518  2.7084 -1.5230
 8638SOL     OW30724  10.015   5.555   0.554 -0.9502 -0.7547 -0.1377
 8638SOL    HW130725  10.025   5.598   0.469 -0.7615 -1.6245 -0.5655
 8638SOL    HW230726   9.981   5.468   0.533  1.0120 -1.7355  0.5092
 8639SOL     OW30727   5.920   1.624  10.988  0.2122  0.4882 -0.0429
 8639SOL    HW130728   5.925   1.534  10.955  1.8975  0.5430 -0.0318
 8639SOL    HW230729   5.828   1.648  10.977 -0.0121 -0.7765 -1.2765
 8640SOL     OW30730   3.590   2.275  10.488  0.0155  0.5252  0.2723
 8640SOL    HW130731   3.639   2.356  10.478  0.8461 -0.0773 -0.6976
 8640SOL    HW230732   3.503   2.303  10.517 -0.2166  1.9059 -1.5836
 8641SOL     OW30733   3.266   6.357   6.174  0.8618  0.0281 -0.5335
 8641SOL    HW130734   3.309   6.347   6.089 -0.0351  0.3438 -1.0337
 8641SOL    HW230735   3.224   6.443   6.169 -1.1868 -0.9324 -0.6841
 8642SOL     OW30736   7.117   4.017   0.491 -0.4340  0.0809  0.2631
 8642SOL    HW130737   7.200   4.004   0.446  1.9903  0.5340  4.1458
 8642SOL    HW230738   7.100   4.111   0.482  0.3655  0.2849  0.8083
 8643SOL     OW30739  11.601   5.490   7.766  0.5433 -0.0430  0.8011
 8643SOL    HW130740  11.539   5.512   7.696 -0.1336 -0.3550  1.2960
 8643SOL    HW230741  11.572   5.543   7.841  0.8204 -0.2553  1.0613
 8644SOL     OW30742   9.777   8.034  11.398  0.6001 -0.1368 -0.4654
 8644SOL    HW130743   9.694   7.986  11.402  0.5999 -0.1616 -0.7595
 8644SOL    HW230744   9.777   8.075  11.311  0.7632  0.1046 -0.3537
 8645SOL     OW30745   1.077   9.206   8.517  0.0218 -0.2074  0.1380
 8645SOL    HW130746   1.137   9.141   8.483  2.1833  1.1028  1.2263
 8645SOL    HW230747   1.094   9.285   8.466 -0.8989  0.1550  0.3584
 8646SOL     OW30748   9.784  10.370   0.529 -0.0294  0.0775 -0.4125
 8646SOL    HW130749   9.772  10.277   0.512 -0.7357 -0.1311  1.1143
 8646SOL    HW230750   9.718  10.392   0.595  1.3885  1.2237  0.6981
 8647SOL     OW30751   4.824   7.494   2.913  0.7651  0.2421 -0.6877
 8647SOL    HW130752   4.730   7.504   2.924  1.0567  1.7790  0.8299
 8647SOL    HW230753   4.833   7.424   2.848 -1.3739 -1.7585  0.9591
 8648SOL     OW30754   8.602   1.516   5.822  0.1076  0.2960  0.0107
 8648SOL    HW130755   8.661   1.480   5.887  1.5086  1.4129 -0.5863
 8648SOL    HW230756   8.655   1.525   5.743 -1.6519 -1.4510 -1.4807
 8649SOL     OW30757   0.086   8.403   0.643  0.6405  0.1389  1.1020
 8649SOL    HW130758   0.117   8.370   0.558 -4.0173 -0.9610 -0.5200
 8649SOL    HW230759   0.077   8.498   0.630 -0.6431 -0.0967  0.0053
 8650SOL     OW30760   5.631   4.967  11.807  0.0141 -0.3092  0.1325
 8650SOL    HW130761   5.672   5.038  11.857  0.7022 -0.9184  0.4500
 8650SOL    HW230762   5.538   4.973  11.830 -0.2055  1.3999 -0.9803
 8651SOL     OW30763   4.112   7.183   0.085  0.5832  0.4730  0.3360
 8651SOL    HW130764   4.037   7.160   0.030  0.5108  1.1845  0.1310
 8651SOL    HW230765   4.155   7.255   0.038  1.7810 -0.3626  0.1121
 8652SOL     OW30766   2.154  12.527  11.427  0.1356 -0.1415 -0.1888
 8652SOL    HW130767   2.237  12.480  11.431  0.1356 -0.1017  0.3632
 8652SOL    HW230768   2.146  12.569  11.512 -1.2549 -1.5439  0.4167
 8653SOL     OW30769  11.573   2.081   7.789 -0.3303 -0.0723  0.3811
 8653SOL    HW130770  11.617   2.095   7.705  1.3789 -2.6725  0.7174
 8653SOL    HW230771  11.615   2.141   7.849  0.7677 -0.4930  0.0564
 8654SOL     OW30772   6.105   1.608   6.825 -0.6602 -0.6262  0.4637
 8654SOL    HW130773   6.162   1.547   6.778 -1.0388 -0.9359  0.4014
 8654SOL    HW230774   6.083   1.562   6.906 -0.9698 -0.5850  0.4036
 8655SOL     OW30775  10.376   0.358  10.047  0.1830  0.6892 -0.1574
 8655SOL    HW130776  10.449   0.347   9.986  0.3825 -0.0136  0.1971
 8655SOL    HW230777  10.394   0.441  10.091  1.3994 -0.0358  0.7623
 8656SOL     OW30778   9.593   8.057   4.141  0.5698 -0.3499  0.4729
 8656SOL    HW130779   9.515   8.096   4.181 -0.2106 -1.7903  0.4426
 8656SOL    HW230780   9.615   7.983   4.198  3.1223  1.1212  1.5891
 8657SOL     OW30781  10.521   4.477   2.799  0.0257 -0.0943 -0.0811
 8657SOL    HW130782  10.511   4.571   2.785  2.2409  0.3804  1.0134
 8657SOL    HW230783  10.431   4.444   2.806 -0.9059  1.3917 -3.3418
 8658SOL     OW30784   0.270   4.826  11.622  0.1872 -0.1906  0.2428
 8658SOL    HW130785   0.204   4.792  11.562 -0.4729  1.8035 -0.2195
 8658SOL    HW230786   0.345   4.768  11.610 -1.7884 -3.3102  1.6834
 8659SOL     OW30787   1.779   0.809   1.507  0.5729 -0.1634 -0.8268
 8659SOL    HW130788   1.726   0.767   1.440 -0.6535  1.0694 -0.6682
 8659SOL    HW230789   1.723   0.811   1.584  0.5268  1.8418 -0.8636
 8660SOL     OW30790   9.237   3.881  12.574  0.6148  0.1628 -0.4841
 8660SOL    HW130791   9.320   3.903  12.530  1.0124  0.7743  0.5366
 8660SOL    HW230792   9.199   3.966  12.596 -0.4581 -0.1049 -1.2136
 8661SOL     OW30793   7.353   4.851   2.412  0.1133 -0.1587 -0.2352
 8661SOL    HW130794   7.321   4.922   2.357 -0.4853  0.7923  1.2875
 8661SOL    HW230795   7.448   4.857   2.406  0.0908  1.2892  0.4917
 8662SOL     OW30796  10.427   8.550   6.219  0.3312 -0.5262  0.2279
 8662SOL    HW130797  10.368   8.586   6.152 -0.3667 -1.7611  0.1516
 8662SOL    HW230798  10.512   8.587   6.199 -0.4134  1.4022  0.3919
 8663SOL     OW30799   4.764   1.259   5.030 -0.0222 -0.1892  0.1914
 8663SOL    HW130800   4.856   1.256   5.003 -0.2424  0.2195 -0.6560
 8663SOL    HW230801   4.730   1.339   4.990 -0.1980  0.8881  2.3860
 8664SOL     OW30802   5.404  12.409   0.070 -0.0193  0.0520  0.7603
 8664SOL    HW130803   5.491  12.448   0.084  0.2580  0.4017 -1.5542
 8664SOL    HW230804   5.343  12.472   0.109  0.7165 -0.0943  2.2202
 8665SOL     OW30805   1.244   3.628   0.118 -0.0475  0.5262 -0.2614
 8665SOL    HW130806   1.277   3.549   0.161 -3.2849 -0.1849  1.1549
 8665SOL    HW230807   1.194   3.673   0.185  0.0615  2.8059 -1.6084
 8666SOL     OW30808   6.614   2.474   7.459 -0.2696 -0.0828 -0.6215
 8666SOL    HW130809   6.701   2.507   7.437 -0.1081 -0.6462 -0.8513
 8666SOL    HW230810   6.621   2.448   7.551 -0.3123  0.2426 -0.5256
 8667SOL     OW30811  10.642   0.099   5.934  0.1143  0.3663  0.1513
 8667SOL    HW130812  10.658   0.020   5.985  0.4905  0.0840 -0.3906
 8667SOL    HW230813  10.706   0.094   5.862 -1.6843 -0.2539 -1.4919
 8668SOL     OW30814   4.219   1.182   5.024 -0.0952 -0.0338 -0.3524
 8668SOL    HW130815   4.298   1.138   5.055  0.6378  1.0000 -0.7209
 8668SOL    HW230816   4.148   1.122   5.047  0.6939 -0.5684  0.8058
 8669SOL     OW30817   2.415   7.206   3.268  0.0380 -0.3108 -0.3042
 8669SOL    HW130818   2.337   7.168   3.309  0.5099 -1.5904 -0.5472
 8669SOL    HW230819   2.486   7.187   3.329  0.3514 -0.1883 -0.6303
 8670SOL     OW30820   0.470   7.119   8.671 -0.5305 -0.2267 -0.4123
 8670SOL    HW130821   0.395   7.148   8.620 -1.2445  0.2691  0.8808
 8670SOL    HW230822   0.512   7.199   8.701  0.8842 -0.4868 -1.6071
 8671SOL     OW30823   0.340   6.869   2.429 -0.2647 -0.4508  0.5346
 8671SOL    HW130824   0.326   6.963   2.416  0.2817 -0.2609  1.2159
 8671SOL    HW230825   0.394   6.842   2.355 -1.2083 -0.4390 -0.1745
 8672SOL     OW30826   4.369   4.558  12.084  0.2003  0.1861  0.1868
 8672SOL    HW130827   4.391   4.651  12.080 -0.4616  0.3343 -2.7849
 8672SOL    HW230828   4.447   4.515  12.118  1.1428  1.6582 -0.0514
 8673SOL     OW30829  11.862   4.663   7.811  0.3151 -0.5365 -0.0302
 8673SOL    HW130830  11.918   4.728   7.854 -0.1455  0.0194 -0.2516
 8673SOL    HW230831  11.875   4.679   7.718  1.2460 -1.6803 -0.1171
 8674SOL     OW30832   0.992   2.907   7.086 -0.1284  0.0662 -0.0297
 8674SOL    HW130833   0.942   2.956   7.151 -0.3734  0.1738 -0.2988
 8674SOL    HW230834   1.014   2.972   7.019 -2.7835 -0.6891 -1.7997
 8675SOL     OW30835   9.550   6.767   1.061 -0.2549  0.4640  0.0553
 8675SOL    HW130836   9.529   6.852   1.101  0.4616  1.4977 -1.6736
 8675SOL    HW230837   9.465   6.730   1.036 -0.5249  1.0200  0.1318
 8676SOL     OW30838   9.226   7.340  12.300  0.2098  0.0714 -0.2167
 8676SOL    HW130839   9.171   7.335  12.378 -0.3476  1.9020 -0.4556
 8676SOL    HW230840   9.308   7.377  12.330 -0.1275  1.1091 -0.5300
 8677SOL     OW30841   3.674  10.967   7.081 -0.1422  0.1537  0.0291
 8677SOL    HW130842   3.628  11.006   7.156  0.1608 -0.1932  0.3984
 8677SOL    HW230843   3.604  10.931   7.027 -0.3818  0.6555  0.0074
 8678SOL     OW30844   4.154  12.645   4.534  0.3787 -0.4153  0.4017
 8678SOL    HW130845   4.101  12.610   4.462  1.6917 -0.2977 -0.6609
 8678SOL    HW230846   4.093  12.651   4.608 -1.4052  0.7499 -1.0545
 8679SOL     OW30847   7.164   5.320   3.774 -0.6772 -0.2803  0.4482
 8679SOL    HW130848   7.147   5.231   3.745 -0.9177  0.0024 -0.3310
 8679SOL    HW230849   7.085   5.345   3.822 -1.2423 -0.0104 -0.5682
 8680SOL     OW30850   2.324  11.634   3.085 -0.4466  0.5346 -0.8875
 8680SOL    HW130851   2.230  11.647   3.073 -0.2917  0.9009 -1.7662
 8680SOL    HW230852   2.363  11.717   3.057  0.1862  0.1526 -1.1475
 8681SOL     OW30853  11.995   8.935  11.183  0.0687  0.1751  0.4750
 8681SOL    HW130854  11.976   8.851  11.141 -0.2808  1.0778 -1.2830
 8681SOL    HW230855  12.086   8.954  11.159 -0.0387  0.5602  0.3538
 8682SOL     OW30856   3.372   7.282   1.851 -0.0247  0.6528  0.1666
 8682SOL    HW130857   3.322   7.264   1.771  0.4909  2.5207 -0.6397
 8682SOL    HW230858   3.451   7.327   1.820  1.2661 -0.5154  1.5662
 8683SOL     OW30859   0.337   5.005  11.790 -0.1270 -0.4891 -0.2349
 8683SOL    HW130860   0.323   4.938  11.723  0.0407 -0.8430  0.0839
 8683SOL    HW230861   0.340   4.957  11.873 -0.0497 -0.0848  0.0018
 8684SOL     OW30862   1.084  11.163  10.836 -0.1898 -0.1059  0.2581
 8684SOL    HW130863   1.021  11.233  10.853 -0.1160  0.0902 -0.2628
 8684SOL    HW230864   1.073  11.103  10.910 -0.0558  0.5903  0.8613
 8685SOL     OW30865   3.160   4.094   5.251  0.5234  0.1739 -0.4824
 8685SOL    HW130866   3.159   4.033   5.324  0.5079  0.5806 -0.1400
 8685SOL    HW230867   3.243   4.077   5.207  0.8614  0.4124  0.0498
 8686SOL     OW30868   2.526   7.695   4.012  0.2114 -0.0890 -0.5003
 8686SOL    HW130869   2.493   7.755   3.945 -1.5270  0.3820  0.7070
 8686SOL    HW230870   2.470   7.712   4.088  1.3327 -1.4735  0.6759
 8687SOL     OW30871   5.227   2.358   5.864  0.0309 -0.3529  0.7418
 8687SOL    HW130872   5.212   2.357   5.769 -3.4340  1.6169  1.1052
 8687SOL    HW230873   5.261   2.445   5.882 -4.2147  1.3576  1.6578
 8688SOL     OW30874   1.047   5.052   7.305  0.0863 -0.1960 -0.1971
 8688SOL    HW130875   0.984   5.057   7.233 -0.5360 -2.2525  0.1436
 8688SOL    HW230876   1.021   4.975   7.355  2.9812 -1.2748 -0.1634
 8689SOL     OW30877  11.263   2.770   6.319  0.1795 -0.6742 -0.2433
 8689SOL    HW130878  11.295   2.809   6.238  0.8134 -0.7501 -0.0360
 8689SOL    HW230879  11.289   2.832   6.387 -2.4287  0.6200 -0.2835
 8690SOL     OW30880   1.911   9.298  11.036  0.1887 -0.2251 -0.5472
 8690SOL    HW130881   1.983   9.360  11.046  1.9343 -2.3388  0.7592
 8690SOL    HW230882   1.861   9.306  11.117  0.4147 -0.5211 -0.3785
 8691SOL     OW30883  10.480  10.424   5.894  0.4526  0.1066  0.1193
 8691SOL    HW130884  10.491  10.396   5.804  0.1287  2.3368 -0.6656
 8691SOL    HW230885  10.559  10.473   5.915  0.1629  0.3216  0.7695
 8692SOL     OW30886   9.998   0.493   6.009 -0.4720 -0.2586  0.3037
 8692SOL    HW130887   9.974   0.440   6.086 -1.7384  0.1462  0.2131
 8692SOL    HW230888   9.922   0.549   5.995 -0.2419 -0.3156 -1.2474
 8693SOL     OW30889   5.564   1.292   4.893 -0.3377  0.1183  0.1232
 8693SOL    HW130890   5.621   1.364   4.919 -0.4255 -0.1847  1.2262
 8693SOL    HW230891   5.610   1.248   4.821 -1.1617  2.3821 -1.9194
 8694SOL     OW30892  11.467   1.278   3.621  0.2808  0.1484  0.3086
 8694SOL    HW130893  11.384   1.262   3.665 -0.0925 -1.3441 -0.8594
 8694SOL    HW230894  11.533   1.272   3.691 -0.5446  1.0197  1.1857
 8695SOL     OW30895   6.078  12.549  11.798  0.0623  0.3032  0.2943
 8695SOL    HW130896   6.111  12.627  11.842 -0.5161  1.8966 -1.9500
 8695SOL    HW230897   6.138  12.479  11.824  1.6676  1.8575  0.9445
 8696SOL     OW30898   6.935  10.336   8.575  0.6950  0.0623 -0.2792
 8696SOL    HW130899   7.011  10.379   8.538 -0.2136  1.1201 -0.9772
 8696SOL    HW230900   6.895  10.403   8.631 -0.5680  0.0553 -1.1344
 8697SOL     OW30901   4.723   9.752  11.984  0.9678  0.0570 -0.3171
 8697SOL    HW130902   4.814   9.721  11.981  0.3460 -1.8457 -0.8755
 8697SOL    HW230903   4.695   9.735  12.073  1.3486  1.2991  0.0563
 8698SOL     OW30904  11.538   6.146   7.154 -0.2475  0.0366  0.1708
 8698SOL    HW130905  11.598   6.152   7.080  0.0285 -1.1122  0.2772
 8698SOL    HW230906  11.486   6.067   7.137  0.5191 -0.8439  1.6774
 8699SOL     OW30907  10.344   6.669  11.424  0.4261 -0.3282  0.2918
 8699SOL    HW130908  10.325   6.747  11.373 -0.6930 -0.4221  0.5295
 8699SOL    HW230909  10.285   6.675  11.499  0.8764 -1.0156  0.7136
 8700SOL     OW30910   7.600   6.659   9.689 -0.0052 -0.2086 -0.8406
 8700SOL    HW130911   7.536   6.608   9.639 -0.4694  1.1307 -1.6679
 8700SOL    HW230912   7.552   6.687   9.767  0.7346 -2.3434  0.4628
 8701SOL     OW30913   8.360   7.364   3.026 -0.4393  0.2533 -0.9119
 8701SOL    HW130914   8.375   7.281   2.979  0.3218 -1.0662  1.5097
 8701SOL    HW230915   8.274   7.393   2.994 -2.4135 -3.2962  0.5797
 8702SOL     OW30916  10.983   9.506  11.975  0.0532  0.1841  0.0423
 8702SOL    HW130917  11.000   9.599  11.961 -1.0088  0.3139 -0.4444
 8702SOL    HW230918  11.012   9.490  12.065 -1.1254  1.3305  0.6506
 8703SOL     OW30919   9.995   5.774   5.849 -0.1502 -0.5532 -0.2919
 8703SOL    HW130920   9.928   5.714   5.815  0.8140 -0.9040 -1.6970
 8703SOL    HW230921  10.049   5.719   5.906  0.2089 -0.8143 -0.8755
 8704SOL     OW30922   4.721   8.459  10.027  0.6366  0.2564  0.0916
 8704SOL    HW130923   4.641   8.439   9.979 -0.2572  2.6660  0.4443
 8704SOL    HW230924   4.731   8.387  10.088 -1.9828  0.4385  0.8781
 8705SOL     OW30925   7.918   4.447   4.970  0.2639 -0.3153 -0.2721
 8705SOL    HW130926   7.862   4.404   4.905  0.4619 -0.9052 -0.0627
 8705SOL    HW230927   7.885   4.537   4.974  1.4779  0.3115 -2.5946
 8706SOL     OW30928   5.381   3.014  12.620  0.1960 -0.2691 -0.3327
 8706SOL    HW130929   5.333   3.096  12.605 -0.6680 -0.7135 -0.0183
 8706SOL    HW230930   5.326   2.964  12.680  0.9528 -0.8839 -0.1350
 8707SOL     OW30931   4.726   5.708   9.216 -0.0755  0.1016  0.0496
 8707SOL    HW130932   4.663   5.709   9.144  0.3181  1.4128 -0.3015
 8707SOL    HW230933   4.705   5.786   9.267  0.1777 -0.3792  0.9155
 8708SOL     OW30934   6.439   1.977   5.688  0.7470 -0.0497  0.1659
 8708SOL    HW130935   6.353   1.971   5.646  1.1922 -0.2834 -0.7163
 8708SOL    HW230936   6.502   1.973   5.616  1.6017 -2.3494  0.9577
 8709SOL     OW30937   3.860   1.643  12.445  0.6765  0.1300 -0.0354
 8709SOL    HW130938   3.920   1.568  12.445  0.5514  0.0290 -0.4600
 8709SOL    HW230939   3.892   1.699  12.516  2.5462  1.1016 -1.5592
 8710SOL     OW30940  12.215   6.170   3.705 -0.2759 -0.1329 -0.3039
 8710SOL    HW130941  12.244   6.243   3.650 -1.4711  0.8774  0.3532
 8710SOL    HW230942  12.185   6.211   3.785  1.4057 -1.5694  1.1640
 8711SOL     OW30943   6.689  11.822   2.353 -0.5056  0.1928 -0.0968
 8711SOL    HW130944   6.724  11.752   2.298  0.8326 -0.1104  1.0718
 8711SOL    HW230945   6.728  11.902   2.318 -0.7240  0.1642 -0.4097
 8712SOL     OW30946   7.309   7.527   2.728 -0.2463 -0.0170  0.3073
 8712SOL    HW130947   7.354   7.497   2.649  0.8854  1.3135  0.4093
 8712SOL    HW230948   7.257   7.602   2.699 -1.5650 -0.8359  0.4288
 8713SOL     OW30949   9.879   0.516  10.444  0.0177 -0.0051 -0.2352
 8713SOL    HW130950   9.803   0.462  10.465 -1.6053  1.8821 -0.9944
 8713SOL    HW230951   9.889   0.506  10.349 -0.7046  1.4940 -0.4842
 8714SOL     OW30952   6.421   4.468   0.021 -0.1622 -0.0433  0.1997
 8714SOL    HW130953   6.483   4.538   0.042 -0.8427  0.4353  0.6462
 8714SOL    HW230954   6.473   4.388   0.028  0.4675  0.3713  0.3371
 8715SOL     OW30955   8.932   3.316   9.715 -0.1258 -0.4262  0.2033
 8715SOL    HW130956   8.837   3.323   9.710 -0.0903 -0.8053 -1.8457
 8715SOL    HW230957   8.958   3.279   9.631  1.8496 -0.3040  0.7055
 8716SOL     OW30958   6.932  11.330   9.138 -0.2574 -0.2195 -0.3169
 8716SOL    HW130959   6.969  11.249   9.103 -0.6783 -0.7323  0.3908
 8716SOL    HW230960   6.838  11.313   9.141 -0.4465  0.6505 -1.0341
 8717SOL     OW30961   3.718  12.112   4.246 -0.0505 -0.5704 -0.9583
 8717SOL    HW130962   3.751  12.201   4.238 -2.3880  0.3540 -1.0575
 8717SOL    HW230963   3.795  12.059   4.265  1.4766  1.3699 -1.5126
 8718SOL     OW30964  10.338   4.467   2.078 -0.1731  0.5383  0.3757
 8718SOL    HW130965  10.396   4.528   2.123 -1.3430  0.8012  1.6041
 8718SOL    HW230966  10.351   4.383   2.123  1.0734 -0.0336 -0.9909
 8719SOL     OW30967  10.549   5.471   5.631  0.0858 -0.4800 -0.1057
 8719SOL    HW130968  10.482   5.404   5.617  1.3497 -1.8933  0.4228
 8719SOL    HW230969  10.598   5.441   5.707  0.8984  0.8942 -0.0428
 8720SOL     OW30970   0.731   8.348   4.606 -0.4858 -0.5541 -0.2484
 8720SOL    HW130971   0.802   8.316   4.550  0.0447 -0.1625  0.1894
 8720SOL    HW230972   0.680   8.269   4.626  0.9729 -1.2318  1.0480
 8721SOL     OW30973  11.293   0.153   5.173  0.0381 -0.2026  0.1594
 8721SOL    HW130974  11.225   0.201   5.124 -0.9806 -1.0476  0.7172
 8721SOL    HW230975  11.336   0.221   5.226 -1.5549  0.0987  1.1367
 8722SOL     OW30976  12.208   9.288   0.608 -0.0586  0.1424 -0.3331
 8722SOL    HW130977  12.133   9.274   0.551 -0.6801 -0.3307  0.5637
 8722SOL    HW230978  12.284   9.286   0.550 -0.7545  0.9534 -1.2989
 8723SOL     OW30979  12.116   8.081   5.531 -0.1613 -0.1917  0.0362
 8723SOL    HW130980  12.060   8.145   5.576 -0.6023 -0.3982 -0.2151
 8723SOL    HW230981  12.056   8.032   5.475  0.0809 -1.1983  0.6406
 8724SOL     OW30982  10.122  10.993   9.131 -0.0914  0.3070  0.8306
 8724SOL    HW130983  10.111  11.072   9.079 -2.2429  0.9587  2.1454
 8724SOL    HW230984  10.096  11.018   9.220  0.8827 -1.4427  1.6833
 8725SOL     OW30985   0.191   1.301   3.725  0.0266  0.1438  0.5220
 8725SOL    HW130986   0.265   1.361   3.718 -0.9710  1.3446 -0.0674
 8725SOL    HW230987   0.119   1.356   3.755 -0.4750 -1.1442  1.7868
 8726SOL     OW30988   3.505   1.143  11.441  0.0628  0.4917  0.3522
 8726SOL    HW130989   3.470   1.116  11.526  0.9905 -0.1785  0.5383
 8726SOL    HW230990   3.457   1.089  11.378 -0.7393  1.1011  0.4261
 8727SOL     OW30991   8.678  10.539   9.636  0.3048 -0.7670  0.0175
 8727SOL    HW130992   8.706  10.490   9.713  1.1298  0.9872  0.8874
 8727SOL    HW230993   8.741  10.610   9.629 -1.1568  0.5034 -0.8538
 8728SOL     OW30994   8.722   2.813   7.775  0.2208  0.3149  0.9185
 8728SOL    HW130995   8.733   2.835   7.868  2.2773 -1.5784  1.2058
 8728SOL    HW230996   8.811   2.796   7.744  0.1246  4.3166 -2.4422
 8729SOL     OW30997   0.499   7.860   4.687 -0.3693  0.4452 -0.2156
 8729SOL    HW130998   0.414   7.830   4.656 -0.4821 -0.3783  0.8107
 8729SOL    HW230999   0.558   7.785   4.674 -0.3023  0.2639  0.9997
 8730SOL     OW31000   3.164   9.008  11.697  0.2104 -0.0517 -0.2291
 8730SOL    HW131001   3.254   8.992  11.666  0.8216  1.9904  0.2974
 8730SOL    HW231002   3.108   8.962  11.634  1.5536  0.5558 -1.9582
 8731SOL     OW31003  10.123   7.513  11.041  0.3026 -0.1477  0.3460
 8731SOL    HW131004  10.175   7.541  11.116  1.0055  0.0468 -0.2062
 8731SOL    HW231005  10.112   7.593  10.989  2.4026 -0.8292 -1.2888
 8732SOL     OW31006  11.117  12.008   1.828 -0.2716  0.2015 -0.2711
 8732SOL    HW131007  11.084  11.955   1.756  1.2756 -0.3436 -0.6093
 8732SOL    HW231008  11.129  12.095   1.790  1.7555 -0.3784 -1.0865
 8733SOL     OW31009   0.155   6.899   3.088 -0.4247  0.5985 -0.1113
 8733SOL    HW131010   0.144   6.980   3.038  0.0861  1.4906  1.1636
 8733SOL    HW231011   0.097   6.837   3.046 -0.3714  1.4505 -1.5081
 8734SOL     OW31012   2.536   2.728   8.252 -0.1482 -0.1505  0.3642
 8734SOL    HW131013   2.581   2.750   8.334 -0.1817  0.1623  0.2984
 8734SOL    HW231014   2.510   2.636   8.263  1.8116 -0.8126 -0.1777
 8735SOL     OW31015  10.480   2.294   6.070  0.0534  0.0651 -0.2734
 8735SOL    HW131016  10.535   2.301   6.148  0.4194 -1.3501 -0.3679
 8735SOL    HW231017  10.513   2.216   6.025 -1.2153 -0.0851 -0.9891
 8736SOL     OW31018   0.430   2.141   3.705  0.0661  0.2751  0.4711
 8736SOL    HW131019   0.385   2.099   3.777  0.5106  0.0844  0.6437
 8736SOL    HW231020   0.451   2.229   3.737  2.6557 -0.6657  1.6223
 8737SOL     OW31021  10.743   9.768   7.256  0.0648 -0.2534 -0.1144
 8737SOL    HW131022  10.826   9.815   7.268  0.2744 -0.6805  0.1505
 8737SOL    HW231023  10.684   9.805   7.321 -0.0264  0.2201 -0.4642
 8738SOL     OW31024   9.427   9.990   0.931 -1.2037  0.1027  0.1432
 8738SOL    HW131025   9.495  10.043   0.973  0.4874  1.0115 -3.3528
 8738SOL    HW231026   9.460   9.901   0.935 -0.9019  0.2250  0.4168
 8739SOL     OW31027   3.307   1.614   4.558 -0.1848  0.1505 -0.5744
 8739SOL    HW131028   3.317   1.704   4.527 -0.6887  0.2251 -0.5365
 8739SOL    HW231029   3.393   1.574   4.545  0.3757  0.9686  0.4832
 8740SOL     OW31030   0.751   2.203   2.440 -0.2742  0.1299 -0.3218
 8740SOL    HW131031   0.737   2.113   2.409 -1.2509 -0.4333  1.5851
 8740SOL    HW231032   0.775   2.193   2.532  2.1521  1.7333 -0.6963
 8741SOL     OW31033   3.495   9.985   1.941  0.0345 -0.6684 -0.7066
 8741SOL    HW131034   3.461   9.988   2.030  1.4244 -1.8541 -0.0931
 8741SOL    HW231035   3.559  10.057   1.938  0.2306 -0.8395 -0.6359
 8742SOL     OW31036   3.490   7.057   5.872  0.4738 -0.5211  0.0637
 8742SOL    HW131037   3.548   7.008   5.815  0.2441 -1.5566  0.6965
 8742SOL    HW231038   3.488   7.007   5.953  1.1710  1.1540  1.1753
 8743SOL     OW31039   5.378  12.046  12.188 -0.6575 -0.3147 -0.0127
 8743SOL    HW131040   5.353  12.072  12.277  0.3783  0.1058  0.1613
 8743SOL    HW231041   5.441  12.112  12.160 -0.3076 -0.9388 -0.7376
 8744SOL     OW31042   7.025   9.658   0.265  0.2793  0.0528  0.3742
 8744SOL    HW131043   6.993   9.584   0.316  2.3071 -1.3640 -0.2737
 8744SOL    HW231044   6.956   9.675   0.201  0.1713 -2.0104 -0.1297
 8745SOL     OW31045   4.324  11.365   0.598  0.0524 -0.2077  0.5291
 8745SOL    HW131046   4.402  11.394   0.549 -0.8026  2.1716  0.4581
 8745SOL    HW231047   4.334  11.404   0.685  0.0427 -1.8459  1.3044
 8746SOL     OW31048   8.013   3.708   1.017  0.0050  0.1490  0.3577
 8746SOL    HW131049   7.962   3.633   1.044 -0.7486  1.1906  1.9812
 8746SOL    HW231050   7.963   3.784   1.048  1.4073  1.2769 -0.0147
 8747SOL     OW31051  10.033  11.777   9.265  0.0128 -0.1899 -0.4244
 8747SOL    HW131052   9.957  11.757   9.210 -0.7022  0.6610  0.2337
 8747SOL    HW231053  10.050  11.870   9.249 -0.8981  0.3636  1.6043
 8748SOL     OW31054   7.991   7.390  12.265 -0.3238  0.2798 -0.0038
 8748SOL    HW131055   8.020   7.362  12.352 -2.5076 -1.8820  0.1651
 8748SOL    HW231056   8.025   7.322  12.206 -2.5817 -0.8796 -0.1195
 8749SOL     OW31057   6.425   5.795   8.914 -0.7296  0.0509  0.4629
 8749SOL    HW131058   6.398   5.883   8.941  0.4574  0.1663  1.4145
 8749SOL    HW231059   6.347   5.756   8.874 -1.1816  1.6446 -0.2764
 8750SOL     OW31060   2.661   5.244   0.790 -0.5932 -0.3034 -0.2159
 8750SOL    HW131061   2.618   5.159   0.796 -0.2538 -0.3724  2.6806
 8750SOL    HW231062   2.741   5.227   0.740 -0.4328 -1.7428  0.4833
 8751SOL     OW31063   9.585   4.724   0.698 -0.0966 -0.1777  0.7217
 8751SOL    HW131064   9.531   4.651   0.670  0.0960  0.2517 -0.8446
 8751SOL    HW231065   9.526   4.781   0.748 -0.8127 -0.2863  0.0082
 8752SOL     OW31066   3.388   3.485   7.113  0.0018 -0.3534 -0.0713
 8752SOL    HW131067   3.293   3.489   7.103  0.0810  0.5272 -0.6027
 8752SOL    HW231068   3.405   3.527   7.198 -0.1338 -1.2869  0.4337
 8753SOL     OW31069  10.751   2.448   5.670 -0.3695 -0.1858 -0.2255
 8753SOL    HW131070  10.684   2.451   5.601 -0.1323 -0.3459 -0.4634
 8753SOL    HW231071  10.790   2.535   5.669 -0.7222 -0.0199  0.0638
 8754SOL     OW31072   3.569   4.514   7.007 -0.2365 -0.5654 -0.0736
 8754SOL    HW131073   3.613   4.522   7.092  0.4235 -1.0710 -0.3553
 8754SOL    HW231074   3.486   4.560   7.018  0.5880  0.9011  0.3159
 8755SOL     OW31075  10.638   8.525   0.840  0.3603 -0.0631 -0.0891
 8755SOL    HW131076  10.610   8.558   0.925  0.4134 -1.0609  0.3300
 8755SOL    HW231077  10.562   8.536   0.783  0.3918  0.8037  0.0192
 8756SOL     OW31078   6.974   8.002   5.188  0.2017 -0.0310  0.2385
 8756SOL    HW131079   7.003   7.938   5.253 -0.0576 -1.7542 -1.2417
 8756SOL    HW231080   6.906   8.052   5.233 -0.7146 -1.8587  1.0114
 8757SOL     OW31081  12.000   5.488   0.584  0.7654 -0.1130  0.0438
 8757SOL    HW131082  12.011   5.580   0.561  0.8988 -0.2684 -0.5163
 8757SOL    HW231083  12.028   5.483   0.676 -0.5760  0.6650  0.5225
 8758SOL     OW31084   0.922   6.434  11.903  0.5074  0.1983  0.0709
 8758SOL    HW131085   0.859   6.491  11.858  1.3119 -0.4156 -1.9216
 8758SOL    HW231086   0.874   6.403  11.980 -1.3198  0.4774 -0.8844
 8759SOL     OW31087  10.754   7.756   9.454 -0.1695 -0.1424  0.7342
 8759SOL    HW131088  10.847   7.777   9.453 -0.1298 -0.3287 -0.7208
 8759SOL    HW231089  10.721   7.798   9.534  0.8334  1.3849  0.3861
 8760SOL     OW31090   9.037  11.011  11.478 -0.1184 -0.3048 -0.3312
 8760SOL    HW131091   9.013  11.096  11.517  0.0964 -0.8294  1.0095
 8760SOL    HW231092   8.954  10.964  11.469  0.0088 -0.9279  1.3874
 8761SOL     OW31093   2.142  11.053   5.308 -0.4584  0.4814 -0.6104
 8761SOL    HW131094   2.151  10.970   5.261 -0.8041  0.8248 -1.2971
 8761SOL    HW231095   2.051  11.053   5.339 -1.1281  1.4847 -2.3794
 8762SOL     OW31096   6.595   8.536  12.084 -0.6772 -0.7267  0.1003
 8762SOL    HW131097   6.532   8.596  12.045 -0.4540  0.1308  1.0270
 8762SOL    HW231098   6.602   8.464  12.021 -2.9792 -1.1279  0.2261
 8763SOL     OW31099   8.510   2.767   7.221 -0.5247 -0.1107  0.0292
 8763SOL    HW131100   8.483   2.775   7.129 -0.2443 -0.9087 -0.1332
 8763SOL    HW231101   8.560   2.847   7.239  0.4592 -0.4863 -0.8914
 8764SOL     OW31102   0.596   7.501   1.090  0.4221  0.2342 -0.0977
 8764SOL    HW131103   0.648   7.422   1.101  0.0467  0.0503  0.3994
 8764SOL    HW231104   0.603   7.547   1.173 -1.3016 -0.4645  0.4831
 8765SOL     OW31105   3.064   6.260   4.366 -0.4584  0.1326 -0.4366
 8765SOL    HW131106   3.045   6.249   4.273  0.0882 -1.5471 -0.3810
 8765SOL    HW231107   3.026   6.183   4.408 -0.5693  0.7944  0.7145
 8766SOL     OW31108  11.395   6.622   0.272 -0.1090 -0.3222 -0.3673
 8766SOL    HW131109  11.338   6.693   0.242  0.0603 -0.3480 -0.7492
 8766SOL    HW231110  11.456   6.663   0.333 -1.0303 -0.4300  0.6738
 8767SOL     OW31111   8.239   7.225   5.937 -0.1076 -0.3759 -0.1417
 8767SOL    HW131112   8.312   7.270   5.894 -0.1858  0.2681  0.3956
 8767SOL    HW231113   8.277   7.187   6.016 -0.6705  1.4277  1.0753
 8768SOL     OW31114   9.895   8.894   1.438 -0.1309  0.1526  0.0096
 8768SOL    HW131115   9.978   8.884   1.485  0.2626  1.1100 -0.4513
 8768SOL    HW231116   9.921   8.909   1.347 -0.8437 -0.3039 -0.2802
 8769SOL     OW31117   1.322   9.145  11.781  0.3658 -0.4922 -0.2066
 8769SOL    HW131118   1.263   9.205  11.826  1.2377  0.4033 -0.2207
 8769SOL    HW231119   1.265   9.073  11.752 -0.8003  0.5320 -0.5807
 8770SOL     OW31120   0.255   5.511  10.049 -0.5474  0.1670 -0.0581
 8770SOL    HW131121   0.268   5.426  10.093 -3.2169  0.8521  2.4091
 8770SOL    HW231122   0.162   5.530  10.062  0.3333  4.5268  1.5927
 8771SOL     OW31123   2.388   7.783   3.069  0.0854  0.2820 -0.4021
 8771SOL    HW131124   2.483   7.779   3.069  0.0297 -1.4615 -0.5649
 8771SOL    HW231125   2.359   7.692   3.066 -1.5907  0.7203 -5.0356
 8772SOL     OW31126  11.157   9.737   3.206  0.1846  0.2959 -0.3407
 8772SOL    HW131127  11.152   9.823   3.165  2.0234  1.5800  1.8341
 8772SOL    HW231128  11.095   9.741   3.279  0.7867  0.0450  0.1952
 8773SOL     OW31129   6.507   7.664   7.540 -0.2758  0.0831 -0.0775
 8773SOL    HW131130   6.542   7.748   7.570 -0.1526  0.2062 -0.5481
 8773SOL    HW231131   6.581   7.604   7.542 -0.6147 -0.3240  1.3511
 8774SOL     OW31132   0.836  10.614   6.592 -0.3021  0.2091 -0.0121
 8774SOL    HW131133   0.855  10.573   6.508  0.9608  0.0969  0.3145
 8774SOL    HW231134   0.740  10.620   6.594 -0.3820 -0.3457 -1.1827
 8775SOL     OW31135   1.031   1.491   3.061 -0.1353  0.5951  0.1514
 8775SOL    HW131136   0.936   1.484   3.066  0.0477 -2.0571  3.3800
 8775SOL    HW231137   1.063   1.401   3.074  2.8533  1.3589 -0.9770
 8776SOL     OW31138   2.903   5.909   8.830  0.0100  0.3385 -0.4871
 8776SOL    HW131139   2.924   5.830   8.781  2.6102  0.2670  0.5837
 8776SOL    HW231140   2.900   5.880   8.921 -0.1260  1.2826 -0.1822
 8777SOL     OW31141  10.919   1.947   2.276 -0.2441  0.1457 -0.8950
 8777SOL    HW131142  10.885   1.973   2.361  0.6317 -0.9704 -0.1714
 8777SOL    HW231143  10.930   2.029   2.228  0.6509  0.9519  0.6115
 8778SOL     OW31144   7.526   5.678  10.674 -0.1974 -0.4801  0.1039
 8778SOL    HW131145   7.592   5.692  10.742 -0.3298  0.6228  0.0208
 8778SOL    HW231146   7.502   5.585  10.683  0.0068 -0.4284  1.3541
 8779SOL     OW31147   7.069   6.851   3.234  0.9093  0.2604  0.3060
 8779SOL    HW131148   6.998   6.912   3.215 -1.2607 -2.4006 -0.7955
 8779SOL    HW231149   7.080   6.854   3.329 -1.3362  0.1368  0.6152
 8780SOL     OW31150  12.093   0.790   1.400  0.2864  0.0889  0.0241
 8780SOL    HW131151  12.121   0.823   1.485  1.7916 -0.3588 -0.2599
 8780SOL    HW231152  12.079   0.868   1.347 -0.4313  0.3630  0.6073
 8781SOL     OW31153   8.774   6.582  11.451 -0.6857  0.3004 -0.2270
 8781SOL    HW131154   8.713   6.615  11.385 -1.9528  0.1883  0.8481
 8781SOL    HW231155   8.718   6.553  11.524  0.6133 -0.4441  0.5203
 8782SOL     OW31156  11.708   0.644   1.470  0.0830 -0.2974  0.1795
 8782SOL    HW131157  11.742   0.631   1.559 -1.8235 -0.9301  0.8705
 8782SOL    HW231158  11.614   0.631   1.479 -0.0694 -1.1848 -2.0845
 8783SOL     OW31159   8.766  11.739  10.620 -0.0713 -0.4157  0.3503
 8783SOL    HW131160   8.847  11.714  10.575 -0.5164 -1.5468  0.1558
 8783SOL    HW231161   8.725  11.656  10.645 -3.1713 -0.1460 -3.0265
 8784SOL     OW31162   4.901   0.640   0.370  0.8756  0.2422  0.0115
 8784SOL    HW131163   4.976   0.623   0.428  1.5340  1.9529 -0.2853
 8784SOL    HW231164   4.938   0.638   0.282  0.2362 -0.4990 -0.2525
 8785SOL     OW31165   7.236   1.730   1.140 -0.1954 -0.1628  0.0671
 8785SOL    HW131166   7.260   1.667   1.071 -0.8029 -1.4308  0.9708
 8785SOL    HW231167   7.311   1.731   1.199 -0.8511 -1.4039  0.9767
 8786SOL     OW31168  10.174   3.079   1.902 -0.6879 -0.6364  0.1813
 8786SOL    HW131169  10.184   3.174   1.911 -0.5897 -0.6916  0.6982
 8786SOL    HW231170  10.187   3.062   1.809 -2.7197  0.0802 -0.2626
 8787SOL     OW31171   3.911   4.532   7.986  0.2692 -0.0257  0.2105
 8787SOL    HW131172   3.881   4.477   7.913 -1.1940 -0.1851  0.8874
 8787SOL    HW231173   3.896   4.622   7.956 -2.4737 -0.0947  1.0686
 8788SOL     OW31174   8.504   3.999  11.178  0.3575  0.0595  0.5213
 8788SOL    HW131175   8.433   3.961  11.229  0.6783  0.4302  1.2594
 8788SOL    HW231176   8.546   4.061  11.238 -0.2487  1.7047 -0.6878
 8789SOL     OW31177   3.120   6.677   2.802 -0.0669 -0.1702 -0.7603
 8789SOL    HW131178   3.037   6.669   2.849  1.2609 -0.7741  1.6779
 8789SOL    HW231179   3.154   6.763   2.828  2.0220 -1.6429  1.9494
 8790SOL     OW31180   5.308   6.615   8.803 -0.1094  0.2758 -0.2931
 8790SOL    HW131181   5.216   6.636   8.818 -0.3484 -0.6582 -0.3975
 8790SOL    HW231182   5.356   6.678   8.858 -0.8469 -0.2419  0.9951
 8791SOL     OW31183  10.841   8.875   1.704 -0.6386 -0.0460  0.2028
 8791SOL    HW131184  10.898   8.835   1.639  1.5095  0.8840  1.4198
 8791SOL    HW231185  10.900   8.925   1.761 -2.4535 -0.3677  2.5419
 8792SOL     OW31186   4.024   2.892   7.408 -0.3895  1.2259  0.2620
 8792SOL    HW131187   4.051   2.961   7.347  1.2367 -0.8099 -1.4757
 8792SOL    HW231188   4.102   2.877   7.462 -0.1804 -0.1788 -0.3730
 8793SOL     OW31189   1.570   9.941   0.578  0.0482  0.4243  0.7070
 8793SOL    HW131190   1.572   9.897   0.493 -0.4501 -1.6595  1.7186
 8793SOL    HW231191   1.486   9.987   0.580 -1.2680 -1.8783  1.1510
 8794SOL     OW31192   7.632   8.057   3.294  0.0036 -0.0545  0.0433
 8794SOL    HW131193   7.658   8.085   3.382 -2.2538  0.0459  0.7634
 8794SOL    HW231194   7.623   8.138   3.244 -1.7292  0.1942  0.6822
 8795SOL     OW31195   9.224   2.731   2.746  0.2007 -0.1314 -0.1351
 8795SOL    HW131196   9.175   2.809   2.720  2.0951  0.7570 -1.2597
 8795SOL    HW231197   9.225   2.676   2.668 -1.2794 -1.4220  0.7019
 8796SOL     OW31198   3.933   4.899   6.700  0.1361 -0.2048 -0.5105
 8796SOL    HW131199   3.913   4.854   6.782  0.2066  3.1362  1.5189
 8796SOL    HW231200   3.855   4.888   6.647 -0.1772 -1.8608  0.2179
 8797SOL     OW31201   8.679   8.206   9.082 -0.1048 -0.3914 -0.2617
 8797SOL    HW131202   8.746   8.215   9.013  1.3712 -0.0236  1.1577
 8797SOL    HW231203   8.685   8.287   9.132  0.3937 -1.5135  1.5933
 8798SOL     OW31204  10.727   6.870  11.541 -0.3012  0.2712  0.5339
 8798SOL    HW131205  10.771   6.872  11.626 -1.8837  1.1690  1.3934
 8798SOL    HW231206  10.701   6.961  11.525  0.1456  0.1567 -1.0326
 8799SOL     OW31207   8.315   4.964   2.979 -0.4203  0.5801  0.4931
 8799SOL    HW131208   8.276   5.004   3.057 -1.3515  0.2351  0.2179
 8799SOL    HW231209   8.318   5.036   2.915 -0.8306  0.5545  0.4403
 8800SOL     OW31210   5.037   4.768   2.805 -0.4631 -0.2681 -0.0639
 8800SOL    HW131211   4.942   4.776   2.812 -0.5690 -1.7338  0.4392
 8800SOL    HW231212   5.051   4.693   2.748  0.4281  0.9277 -1.4950
 8801SOL     OW31213   9.523   6.036  11.670  0.3387 -0.2587 -0.0938
 8801SOL    HW131214   9.578   5.990  11.733 -0.9753 -0.7549  0.7280
 8801SOL    HW231215   9.484   6.107  11.721 -0.2528 -0.2859 -0.5072
 8802SOL     OW31216  11.170  12.102   2.357 -0.2118  0.1969 -0.3176
 8802SOL    HW131217  11.152  12.008   2.363  0.0841  0.0188 -1.8587
 8802SOL    HW231218  11.101  12.143   2.409  0.1126 -0.8944  1.0378
 8803SOL     OW31219   4.472   6.797   9.683 -0.1151  0.0853 -0.1999
 8803SOL    HW131220   4.443   6.821   9.595  1.3785  0.2174 -0.6889
 8803SOL    HW231221   4.565   6.820   9.684 -0.1024  0.0187  1.3985
 8804SOL     OW31222   6.505   3.569   9.930  0.3158  0.4556  0.0108
 8804SOL    HW131223   6.494   3.614  10.014  0.7767 -1.0695  0.9292
 8804SOL    HW231224   6.462   3.626   9.867 -0.2632  1.5317  1.3212
 8805SOL     OW31225  12.411   6.024   0.980 -0.2758 -0.2287  0.5397
 8805SOL    HW131226  12.398   6.099   1.037 -0.7873 -0.4620  0.7334
 8805SOL    HW231227  12.503   6.029   0.954 -0.4882  0.8775 -0.0352
 8806SOL     OW31228   5.626  12.391   5.706 -0.0311 -0.0939  0.3553
 8806SOL    HW131229   5.688  12.336   5.659  0.2817  1.0788 -0.6497
 8806SOL    HW231230   5.676  12.429   5.778 -0.1521 -0.8010  0.8240
 8807SOL     OW31231  12.122   1.970   6.067  0.5673 -0.1915  0.5252
 8807SOL    HW131232  12.205   1.953   6.024  0.7772 -2.7977  1.7700
 8807SOL    HW231233  12.061   1.907   6.030 -0.1534 -0.1204  1.5203
 8808SOL     OW31234  10.937   8.276   7.776  0.0864  0.7585  0.5291
 8808SOL    HW131235  11.020   8.313   7.804 -0.5299  1.4058  1.5732
 8808SOL    HW231236  10.880   8.352   7.766 -0.5240  0.2826  0.3196
 8809SOL     OW31237  12.378   8.663   7.643  0.2246 -0.2763 -0.0350
 8809SOL    HW131238  12.395   8.660   7.737 -1.8604  0.6622  0.4213
 8809SOL    HW231239  12.328   8.744   7.630 -0.1511 -0.7554 -1.8449
 8810SOL     OW31240   2.082  12.432   9.685  0.2410  0.0907  0.0714
 8810SOL    HW131241   2.093  12.524   9.707  2.1995 -0.0020 -0.3417
 8810SOL    HW231242   2.152  12.387   9.731  0.0549 -1.0405 -0.6853
 8811SOL     OW31243  10.216  11.812   9.903  1.0259 -0.2049  0.5010
 8811SOL    HW131244  10.182  11.777   9.986 -1.8946  0.2219 -0.4158
 8811SOL    HW231245  10.218  11.736   9.844  2.3187 -0.3352  0.6705
 8812SOL     OW31246   9.542   4.668   0.291 -0.3451  0.6795  0.1771
 8812SOL    HW131247   9.597   4.717   0.230 -0.1073  0.2877  0.0776
 8812SOL    HW231248   9.594   4.663   0.371 -0.2709  0.3810  0.1101
 8813SOL     OW31249   3.387   0.010   2.201  0.0556 -0.4732  0.7446
 8813SOL    HW131250   3.347  -0.017   2.284  0.3366  0.4004  1.1665
 8813SOL    HW231251   3.313   0.039   2.147 -0.0182 -0.0726  1.0609
 8814SOL     OW31252  10.327   2.274  11.097  0.0714 -0.3186 -0.4646
 8814SOL    HW131253  10.328   2.335  11.170 -0.7831  0.7437 -1.2974
 8814SOL    HW231254  10.400   2.301  11.041 -0.2308 -0.1290 -0.7731
 8815SOL     OW31255  11.415   5.728   8.181 -0.0580  0.2038  0.0156
 8815SOL    HW131256  11.383   5.666   8.246 -0.9765 -0.6060 -1.1676
 8815SOL    HW231257  11.391   5.814   8.216  0.9372 -0.0922  1.5185
 8816SOL     OW31258   5.136   8.140  11.156 -0.0044  0.2579  0.2842
 8816SOL    HW131259   5.225   8.168  11.180  0.8527 -2.3419  0.5099
 8816SOL    HW231260   5.108   8.086  11.229 -1.8233  1.0139  0.1964
 8817SOL     OW31261   7.910   5.583   9.528  0.0195 -0.0416  0.1965
 8817SOL    HW131262   7.980   5.534   9.485 -0.4081 -0.2654 -0.2707
 8817SOL    HW231263   7.937   5.674   9.522  0.4067 -0.1499  0.2802
 8818SOL     OW31264   1.852   8.235   4.292  0.4686 -0.1315  0.0866
 8818SOL    HW131265   1.802   8.316   4.303 -0.3604  0.0724 -3.8025
 8818SOL    HW231266   1.789   8.173   4.255  2.0855 -1.2003 -1.0248
 8819SOL     OW31267   7.727   2.272   2.115  0.2681 -0.3988 -0.7710
 8819SOL    HW131268   7.776   2.353   2.130 -1.4424  0.3706  1.1471
 8819SOL    HW231269   7.755   2.213   2.185 -0.3336 -0.5510 -0.6551
 8820SOL     OW31270   7.464   5.017  12.168 -0.4287 -0.0122 -0.3026
 8820SOL    HW131271   7.531   5.083  12.187  0.4718 -1.6612  3.0692
 8820SOL    HW231272   7.504   4.961  12.101  0.3024  0.7385 -0.5132
 8821SOL     OW31273  11.629   0.025   4.953  0.0757  0.5268  0.4269
 8821SOL    HW131274  11.627  -0.060   4.997 -0.5870 -0.2548 -1.0392
 8821SOL    HW231275  11.721   0.036   4.927  0.0288 -0.1346 -0.0600
 8822SOL     OW31276  11.752   1.738  11.454  0.3827  0.1323 -0.5246
 8822SOL    HW131277  11.683   1.732  11.388  1.9811  2.3023 -2.5592
 8822SOL    HW231278  11.722   1.806  11.514 -0.1111 -0.3384 -0.2287
 8823SOL     OW31279   3.694  10.167   1.912 -0.1781  0.0831 -0.1169
 8823SOL    HW131280   3.711  10.261   1.916 -1.2623  0.2515  1.3841
 8823SOL    HW231281   3.780  10.127   1.930  0.0649  0.8007  0.3794
 8824SOL     OW31282   8.547   7.145   9.688 -0.2160 -0.0260  0.2850
 8824SOL    HW131283   8.620   7.111   9.636  0.6486 -1.2363  2.1867
 8824SOL    HW231284   8.535   7.081   9.758 -5.7722 -2.1270 -1.9768
 8825SOL     OW31285   3.632  11.802  10.105  0.1406 -0.6228  0.1949
 8825SOL    HW131286   3.693  11.835  10.170  0.8638 -0.6913 -0.4349
 8825SOL    HW231287   3.647  11.857  10.028  0.7762 -1.8518 -0.5944
 8826SOL     OW31288   7.394   3.112   0.227  0.1811 -0.5158  0.6399
 8826SOL    HW131289   7.344   3.060   0.164  0.5485  0.0701 -0.1442
 8826SOL    HW231290   7.331   3.129   0.298 -0.9560  0.6787 -0.5793
 8827SOL     OW31291   7.578   3.760  12.602 -0.3227  0.3081 -0.2004
 8827SOL    HW131292   7.562   3.666  12.603  1.6164 -0.0546  0.0152
 8827SOL    HW231293   7.634   3.776  12.678  1.6362  1.1645 -1.7495
 8828SOL     OW31294   0.949   4.535  12.577  0.1208 -0.2194  0.1952
 8828SOL    HW131295   0.935   4.463  12.639  0.6340  0.6207  1.3409
 8828SOL    HW231296   1.044   4.551  12.581  0.1920 -0.2923 -0.9942
 8829SOL     OW31297   3.950   1.781   2.825 -0.0554  0.4380  0.1468
 8829SOL    HW131298   3.862   1.753   2.849  0.0190 -1.6737 -1.6696
 8829SOL    HW231299   4.001   1.772   2.905 -0.7485 -1.9949  0.4208
 8830SOL     OW31300  10.343   9.199   6.361  0.1444 -0.3790 -0.1320
 8830SOL    HW131301  10.300   9.270   6.315  0.3139  0.1818  0.5560
 8830SOL    HW231302  10.432   9.197   6.324  0.3979  0.3154  0.4223
 8831SOL     OW31303  10.023   7.998   6.005 -0.2231  0.4942  0.7256
 8831SOL    HW131304  10.100   7.997   6.062  0.1504  0.3910  0.2277
 8831SOL    HW231305   9.961   8.055   6.050 -0.4263 -0.5771  1.8660
 8832SOL     OW31306   5.883   1.450  11.740  0.1324 -0.2761  0.1781
 8832SOL    HW131307   5.818   1.503  11.694  0.8584  0.4861  0.0179
 8832SOL    HW231308   5.923   1.397  11.671  1.4086  1.0607 -0.1413
 8833SOL     OW31309   6.760   3.311   1.921  0.4821  0.7629 -0.1436
 8833SOL    HW131310   6.804   3.233   1.955  0.7491  0.9564 -0.0388
 8833SOL    HW231311   6.688   3.327   1.982 -0.4458 -0.2190 -0.9436
 8834SOL     OW31312   9.184   9.226   7.239  0.1004 -0.1200 -0.4161
 8834SOL    HW131313   9.187   9.168   7.315  0.2284 -1.7855 -1.6468
 8834SOL    HW231314   9.102   9.275   7.250  0.0628 -0.4018  0.7133
 8835SOL     OW31315   6.156   0.131   4.184  0.2317  0.7748 -0.1053
 8835SOL    HW131316   6.149   0.111   4.091  4.6184  0.7993 -0.6356
 8835SOL    HW231317   6.131   0.223   4.191 -0.5593  0.6611 -1.1704
 8836SOL     OW31318  12.149  11.712   1.561 -0.5918  0.0019  0.9609
 8836SOL    HW131319  12.171  11.690   1.470 -1.1385  0.6477  0.6628
 8836SOL    HW231320  12.132  11.806   1.559 -1.2756 -0.0978  1.5957
 8837SOL     OW31321   3.722   8.525   6.980 -0.3535 -0.3790 -0.1451
 8837SOL    HW131322   3.749   8.601   6.929 -1.5472  0.7819  0.8785
 8837SOL    HW231323   3.794   8.510   7.041 -0.8004  0.9750  0.7394
 8838SOL     OW31324   7.997   5.187   6.847 -0.3767  0.1481  0.1946
 8838SOL    HW131325   8.007   5.115   6.784  1.5654 -0.1761  0.7923
 8838SOL    HW231326   8.016   5.147   6.932 -2.2080  0.7444  0.9259
 8839SOL     OW31327   9.824   3.487   6.663  0.3051 -0.2115 -0.0475
 8839SOL    HW131328   9.737   3.482   6.622  0.1563  0.0787  0.2258
 8839SOL    HW231329   9.882   3.443   6.601 -0.0649 -0.5511 -0.1591
 8840SOL     OW31330   5.009   9.791   1.829 -0.0809  0.0420 -0.1574
 8840SOL    HW131331   4.991   9.698   1.815 -4.3363  0.5463  0.5824
 8840SOL    HW231332   5.000   9.803   1.924 -1.5338  1.4578 -0.4307
 8841SOL     OW31333   3.792   2.725   8.067  0.4962  0.3640 -0.1575
 8841SOL    HW131334   3.886   2.735   8.049  0.6293 -1.6917 -0.8691
 8841SOL    HW231335   3.759   2.673   7.994 -1.0500  0.4137  0.4697
 8842SOL     OW31336   5.685   5.691   1.373  0.1419 -0.1893 -0.2512
 8842SOL    HW131337   5.729   5.685   1.458 -0.7705  0.5228  0.2927
 8842SOL    HW231338   5.753   5.724   1.313  0.3588  0.9716  0.5901
 8843SOL     OW31339   1.165  11.066   1.947  0.1706 -0.5122 -0.2887
 8843SOL    HW131340   1.113  11.057   2.027  0.0269 -0.2015 -0.3459
 8843SOL    HW231341   1.244  11.015   1.964  0.2572 -0.2400  0.1473
 8844SOL     OW31342  11.309   4.574   1.193  0.0306  0.9977  0.0496
 8844SOL    HW131343  11.318   4.667   1.214 -0.8517  0.7736  1.6183
 8844SOL    HW231344  11.334   4.529   1.274 -0.3626 -0.0997 -0.4208
 8845SOL     OW31345   5.238  11.731  10.979  0.9225  0.1498 -0.8054
 8845SOL    HW131346   5.251  11.665  10.910  0.7882 -1.3332  0.5446
 8845SOL    HW231347   5.155  11.706  11.021  1.4248  0.5176  0.4413
 8846SOL     OW31348   1.557   6.003   2.470  0.1995 -0.7582  0.3528
 8846SOL    HW131349   1.565   5.963   2.557 -1.7111  0.7579  1.3030
 8846SOL    HW231350   1.603   6.086   2.477  1.0755 -1.1414 -0.5115
 8847SOL     OW31351   0.859   7.185  10.042 -0.6393 -0.3896  0.2230
 8847SOL    HW131352   0.879   7.094  10.021 -0.9759 -0.6720  1.0873
 8847SOL    HW231353   0.938   7.217  10.086 -0.2500 -0.0427 -0.7019
 8848SOL     OW31354   9.117   2.845   3.472  0.2192  0.4145  0.0971
 8848SOL    HW131355   9.202   2.804   3.489 -0.0043 -0.2813 -0.4165
 8848SOL    HW231356   9.118   2.862   3.377 -0.9858 -1.4196 -0.2831
 8849SOL     OW31357   6.165   7.579   2.968 -0.0965  0.1322  0.2381
 8849SOL    HW131358   6.153   7.617   2.881 -1.3856  0.4301  0.5342
 8849SOL    HW231359   6.257   7.551   2.969  0.1732  0.8991 -0.9073
 8850SOL     OW31360   9.222   0.830   6.284 -0.0595  0.4621 -0.0628
 8850SOL    HW131361   9.258   0.901   6.231 -0.2077  0.2695 -0.4285
 8850SOL    HW231362   9.220   0.755   6.225 -2.0346  0.7192 -0.3925
 8851SOL     OW31363   5.770   0.169   9.560  0.0814 -0.2000 -0.3265
 8851SOL    HW131364   5.680   0.139   9.575  0.5742 -1.3781  0.4654
 8851SOL    HW231365   5.819   0.089   9.545  1.0159  0.4329 -0.7125
 8852SOL     OW31366   0.261  10.206   4.788 -0.5886 -0.4119  0.0111
 8852SOL    HW131367   0.176  10.186   4.748 -1.1589  1.0224  0.4421
 8852SOL    HW231368   0.258  10.163   4.873  0.3553 -2.8948 -1.0930
 8853SOL     OW31369   6.719  11.385  12.106  0.1370  0.5912 -0.0678
 8853SOL    HW131370   6.784  11.423  12.166  3.0472 -2.1667 -1.1902
 8853SOL    HW231371   6.745  11.417  12.020 -0.7162  0.3512 -0.4162
 8854SOL     OW31372   4.650   8.793  11.404 -0.3775  0.4886 -0.0975
 8854SOL    HW131373   4.657   8.859  11.335  0.4042  0.7215  0.1966
 8854SOL    HW231374   4.668   8.710  11.359  0.8105  0.7053 -0.0703
 8855SOL     OW31375  12.177   1.380   9.178  0.1953 -0.5123 -0.0280
 8855SOL    HW131376  12.125   1.353   9.102  0.4079 -0.6930 -0.1095
 8855SOL    HW231377  12.253   1.425   9.141  0.5237 -0.9890  0.0643
 8856SOL     OW31378   7.240   8.921  10.644  0.0499  0.7452  0.2616
 8856SOL    HW131379   7.235   8.870  10.563  0.4898  1.9947 -0.5724
 8856SOL    HW231380   7.248   8.855  10.713 -1.7009 -0.3982 -0.5652
 8857SOL     OW31381   3.491  11.828   5.680 -0.0093 -0.3850 -0.1353
 8857SOL    HW131382   3.429  11.833   5.752  0.6179  2.3552  0.3219
 8857SOL    HW231383   3.567  11.782   5.717 -0.1424 -0.0191  0.6032
 8858SOL     OW31384   6.378   8.767   3.841 -0.0855 -0.1989  0.2092
 8858SOL    HW131385   6.439   8.694   3.835 -0.0405 -0.0788 -1.4571
 8858SOL    HW231386   6.430   8.843   3.814 -1.0525 -0.1984 -1.8989
 8859SOL     OW31387   1.560   4.762   1.484  0.8481  0.2958 -0.3861
 8859SOL    HW131388   1.507   4.772   1.563  2.4463 -0.8795  0.9011
 8859SOL    HW231389   1.497   4.737   1.416 -0.3706 -0.2370  0.8818
 8860SOL     OW31390   8.603   4.781   2.061  0.1881  0.9174  0.6158
 8860SOL    HW131391   8.669   4.741   2.006 -0.5291 -0.5205  0.7572
 8860SOL    HW231392   8.570   4.855   2.009  1.2208  1.0733  0.1650
 8861SOL     OW31393   3.814   7.531   8.748 -0.6443  0.0950  0.1028
 8861SOL    HW131394   3.872   7.461   8.779 -1.3218 -0.1972  0.7370
 8861SOL    HW231395   3.749   7.486   8.695  0.0908  0.5095 -1.1980
 8862SOL     OW31396   3.600   8.373   2.130 -0.3516  0.0741 -0.4123
 8862SOL    HW131397   3.630   8.285   2.150  0.1618 -0.0072 -1.4831
 8862SOL    HW231398   3.505   8.364   2.120 -0.2046 -0.5243 -1.3271
 8863SOL     OW31399   2.123  10.258  10.396 -0.1784  0.4149  0.2775
 8863SOL    HW131400   2.093  10.348  10.387  1.9968  1.2691  1.0923
 8863SOL    HW231401   2.175  10.257  10.476 -0.7327 -1.7646  0.7029
 8864SOL     OW31402  10.294   7.519   5.224  0.7280 -0.1418  0.2703
 8864SOL    HW131403  10.375   7.551   5.183  0.3302 -0.3481 -0.6927
 8864SOL    HW231404  10.273   7.586   5.289  0.3558  1.1802 -1.1563
 8865SOL     OW31405   0.028   8.891   0.719 -0.4107  0.0187  0.1863
 8865SOL    HW131406  -0.058   8.920   0.752 -0.5097  0.3565 -0.3471
 8865SOL    HW231407   0.050   8.815   0.773 -1.0877 -0.1270  0.2687
 8866SOL     OW31408   9.308   6.312  11.318  0.0277  0.2802  0.2188
 8866SOL    HW131409   9.403   6.312  11.333  0.4406  1.0796 -2.0804
 8866SOL    HW231410   9.275   6.243  11.375  1.9900 -0.0697  1.0083
 8867SOL     OW31411   8.893   4.907   6.852  0.0835  0.3886 -0.0024
 8867SOL    HW131412   8.806   4.923   6.815  0.7806 -0.0206 -1.9444
 8867SOL    HW231413   8.886   4.937   6.943 -2.1384  0.1462 -0.0298
 8868SOL     OW31414   3.838   4.711   5.999  0.2186 -0.2287  0.0623
 8868SOL    HW131415   3.859   4.758   5.918  1.0865  0.8647  0.8866
 8868SOL    HW231416   3.808   4.779   6.059 -0.2823 -1.0018  0.7085
 8869SOL     OW31417   5.938  10.566   2.842 -0.3267  0.5057 -0.0764
 8869SOL    HW131418   5.863  10.579   2.784 -0.1210  2.1360 -0.0128
 8869SOL    HW231419   6.015  10.576   2.787 -0.1366  1.6498  0.3655
 8870SOL     OW31420  10.808   7.931   4.567  0.5858 -0.1527 -0.0598
 8870SOL    HW131421  10.744   7.955   4.633  0.5581 -0.1946 -0.0719
 8870SOL    HW231422  10.862   7.864   4.609  0.7751  0.0598  0.0346
 8871SOL     OW31423  10.119   5.635   2.295 -0.1325  0.1726  0.0527
 8871SOL    HW131424  10.184   5.571   2.324 -0.1725  1.4529  3.4448
 8871SOL    HW231425  10.170   5.707   2.260 -0.0709 -1.3201 -3.2599
 8872SOL     OW31426   6.935   5.728   8.712  0.2805 -0.3891  0.1765
 8872SOL    HW131427   6.933   5.822   8.727  0.5684 -0.1846 -0.9674
 8872SOL    HW231428   6.907   5.689   8.795  0.1783  0.6984  0.6603
 8873SOL     OW31429   6.917  12.488   7.008 -0.5278 -0.5250 -0.0749
 8873SOL    HW131430   6.982  12.454   7.069  0.5834 -1.3841 -1.6919
 8873SOL    HW231431   6.906  12.580   7.034  2.5871  0.1544 -0.7341
 8874SOL     OW31432  10.275   9.942   4.960  0.0181  0.2393 -0.4846
 8874SOL    HW131433  10.195   9.925   5.011  1.7148 -0.7890  2.0520
 8874SOL    HW231434  10.266  10.033   4.931 -1.8827  0.2730  0.0493
 8875SOL     OW31435  11.160   9.526   4.188  0.3386 -0.2638 -0.0880
 8875SOL    HW131436  11.175   9.445   4.237  2.3791 -0.4441 -0.9109
 8875SOL    HW231437  11.114   9.497   4.109  0.6953 -0.5562 -0.1881
 8876SOL     OW31438   1.550   1.015  10.857  0.2394 -0.7467 -0.3452
 8876SOL    HW131439   1.500   0.995  10.778 -1.0821 -1.9770  0.7531
 8876SOL    HW231440   1.592   1.099  10.838 -1.4006 -0.1744 -1.7187
 8877SOL     OW31441  12.525   9.401  12.529  0.1074 -0.5207  0.2709
 8877SOL    HW131442  12.445   9.352  12.546 -0.4968 -0.3423 -1.7807
 8877SOL    HW231443  12.587   9.337  12.493 -0.9688  0.1680 -3.2552
 8878SOL     OW31444   8.565  12.377   9.219  0.4704  0.0410 -0.1192
 8878SOL    HW131445   8.544  12.327   9.140  0.5333 -0.3315  0.0964
 8878SOL    HW231446   8.507  12.341   9.286  1.3522 -0.5753  0.3310
 8879SOL     OW31447   1.491   7.526   0.001 -0.6619  0.1979  0.2071
 8879SOL    HW131448   1.450   7.542  -0.084  0.6115  2.0544 -0.1259
 8879SOL    HW231449   1.551   7.452  -0.015 -0.1831  0.7482 -0.6215
 8880SOL     OW31450   5.164   3.381   8.811  0.1137 -0.3442  0.1256
 8880SOL    HW131451   5.250   3.382   8.851  0.6493 -0.2399 -0.9897
 8880SOL    HW231452   5.106   3.346   8.878  0.6940  1.2832  1.5344
 8881SOL     OW31453   1.362   3.994   8.429  0.1632  0.4818 -0.1340
 8881SOL    HW131454   1.309   3.915   8.415  0.8021 -0.1786  1.0254
 8881SOL    HW231455   1.303   4.055   8.474 -0.1239  0.3967 -0.3930
 8882SOL     OW31456   5.835   3.578   6.188 -0.9664  0.2446  0.5876
 8882SOL    HW131457   5.927   3.600   6.172 -1.3404  0.1160 -2.1809
 8882SOL    HW231458   5.839   3.504   6.249  0.9947 -1.8242 -1.7876
 8883SOL     OW31459   3.092   7.928   1.198 -0.0332 -0.5231 -0.2162
 8883SOL    HW131460   3.146   7.891   1.267  1.0360 -0.2284 -0.8715
 8883SOL    HW231461   3.080   8.020   1.223 -0.0251 -0.5266 -0.1996
 8884SOL     OW31462   4.699  12.299   9.471  0.2027 -0.0725 -0.1652
 8884SOL    HW131463   4.786  12.289   9.432 -0.3719 -0.2530 -1.4601
 8884SOL    HW231464   4.715  12.345   9.553  1.5119 -0.0335 -0.4105
 8885SOL     OW31465  10.374   4.772   4.428 -0.1537  0.0348 -0.1042
 8885SOL    HW131466  10.466   4.755   4.407 -0.2051 -0.1176 -0.2061
 8885SOL    HW231467  10.376   4.813   4.514  0.0281  0.2626 -0.2174
 8886SOL     OW31468   8.018  12.012  11.185  0.3437 -0.2474 -0.0425
 8886SOL    HW131469   8.012  12.021  11.280 -0.0322  1.3904 -0.1946
 8886SOL    HW231470   8.000  11.919  11.169 -3.1726  0.0313  1.2724
 8887SOL     OW31471   3.421  10.629   7.461 -0.0938 -0.2860 -0.4535
 8887SOL    HW131472   3.392  10.538   7.457  0.3432 -0.4075 -1.0323
 8887SOL    HW231473   3.342  10.681   7.444 -0.0713 -0.5974 -1.6012
 8888SOL     OW31474  12.403   2.515   3.578  0.3758 -0.0717 -0.6311
 8888SOL    HW131475  12.448   2.584   3.626 -0.0013  0.3245 -0.8398
 8888SOL    HW231476  12.328   2.559   3.537 -0.7720 -0.8835  0.5020
 8889SOL     OW31477   3.111   5.008   8.318 -0.5589 -0.2865  0.9687
 8889SOL    HW131478   3.196   4.990   8.359 -0.3822 -0.6435  0.4651
 8889SOL    HW231479   3.130   5.009   8.224 -0.9277  0.6818  0.8998
 8890SOL     OW31480  11.848   9.636   8.552  0.2604  0.4549  0.5672
 8890SOL    HW131481  11.766   9.658   8.596  0.5377 -0.8769  1.8064
 8890SOL    HW231482  11.826   9.638   8.458 -1.0192  0.6896  0.8512
 8891SOL     OW31483  10.185   0.406  10.597 -0.0526  0.2108  0.4344
 8891SOL    HW131484  10.257   0.466  10.616  0.6980 -0.7553  0.7125
 8891SOL    HW231485  10.107   0.448  10.635  0.2562  1.4820 -0.2547
 8892SOL     OW31486   6.879   4.906   5.424  0.0198  0.6126 -0.0649
 8892SOL    HW131487   6.810   4.971   5.434  0.5419  1.0538  0.7445
 8892SOL    HW231488   6.845   4.828   5.469 -0.0751  0.7345  0.0759
 8893SOL     OW31489   8.033   3.692   3.231  0.1276 -0.1135  0.4520
 8893SOL    HW131490   8.025   3.685   3.326 -0.4491  1.6492  0.5773
 8893SOL    HW231491   7.944   3.712   3.201  0.5086  0.4980 -0.3152
 8894SOL     OW31492   8.107   0.927   4.574  0.0536  0.5557  0.1562
 8894SOL    HW131493   8.100   1.002   4.516 -4.0284  1.0577  0.9757
 8894SOL    HW231494   8.087   0.851   4.518 -0.2265  0.6064  0.1872
 8895SOL     OW31495   0.991   8.791  10.115  0.0288  0.4254 -0.1509
 8895SOL    HW131496   0.951   8.705  10.105  2.3173 -0.5066 -2.2207
 8895SOL    HW231497   0.967   8.838  10.035  1.0143  0.7193 -0.2836
 8896SOL     OW31498   6.002   6.060  11.297  0.0886  0.2195 -0.3078
 8896SOL    HW131499   5.975   6.079  11.207 -0.3868  1.2229  0.0329
 8896SOL    HW231500   5.926   6.017  11.336  0.5205 -0.8079 -0.5482
 8897SOL     OW31501   3.144   9.284  11.764 -0.5465  0.3592 -0.0951
 8897SOL    HW131502   3.167   9.281  11.857  0.3232  0.2347 -0.3061
 8897SOL    HW231503   3.133   9.192  11.739  0.7795  0.2773 -0.4736
 8898SOL     OW31504   1.535   9.951   9.446  0.6800  0.4458  0.1009
 8898SOL    HW131505   1.596   9.904   9.502  0.8404 -0.2535 -0.6340
 8898SOL    HW231506   1.539   9.904   9.362 -0.6613  0.5596 -0.0385
 8899SOL     OW31507   4.153  11.590  10.689 -0.0261  0.3007  0.7703
 8899SOL    HW131508   4.129  11.652  10.620  1.2559  0.0052  0.0205
 8899SOL    HW231509   4.156  11.505  10.646  1.4294  0.2001  1.0028
 8900SOL     OW31510   6.952   7.883   3.100  0.0969 -0.3880  0.0537
 8900SOL    HW131511   6.975   7.837   3.181 -1.2613  0.3192  0.8781
 8900SOL    HW231512   6.905   7.961   3.129  0.4713  0.4059 -1.4003
 8901SOL     OW31513   9.911   5.556   4.481  0.4006  0.5137 -0.8318
 8901SOL    HW131514   9.956   5.476   4.452 -0.6776  0.4049 -2.3411
 8901SOL    HW231515   9.871   5.532   4.564 -1.9390 -1.4005 -2.3485
 8902SOL     OW31516   6.402   2.979  10.124  0.5849 -0.5232  0.9355
 8902SOL    HW131517   6.407   2.935  10.039  0.6841 -0.8747  1.1166
 8902SOL    HW231518   6.493   2.981  10.155  0.5293 -0.5345  1.0998
 8903SOL     OW31519   7.631   7.420   3.141 -0.6677 -0.4621  0.0491
 8903SOL    HW131520   7.537   7.405   3.132 -0.6695 -1.4060  1.3636
 8903SOL    HW231521   7.670   7.333   3.139  0.1390 -0.1121 -0.0303
 8904SOL     OW31522   7.758   6.557   5.235 -0.1332  0.1083  0.2038
 8904SOL    HW131523   7.782   6.648   5.252  1.7082 -0.4039  0.5250
 8904SOL    HW231524   7.835   6.519   5.193 -0.9233 -1.2833 -0.0435
 8905SOL     OW31525   9.111   0.646   4.482  0.1509 -0.0600  0.5475
 8905SOL    HW131526   9.111   0.564   4.432  1.0682  0.0872  0.2951
 8905SOL    HW231527   9.108   0.715   4.416 -1.5305  0.1403  0.7683
 8906SOL     OW31528   0.214   8.964   1.429  0.5822 -0.6176 -0.7103
 8906SOL    HW131529   0.208   8.886   1.483  2.0921 -1.2763 -1.4568
 8906SOL    HW231530   0.203   9.037   1.490  0.3507 -1.3772  0.1685
 8907SOL     OW31531   7.453   2.123   2.464  0.2060 -0.4421  0.3214
 8907SOL    HW131532   7.366   2.118   2.503 -0.2699 -1.1646 -0.8070
 8907SOL    HW231533   7.464   2.215   2.441  0.0799 -0.1965  1.1858
 8908SOL     OW31534   6.190  10.238   9.814  0.0813  0.1595 -0.1180
 8908SOL    HW131535   6.199  10.222   9.721  1.0984 -0.0951  0.0210
 8908SOL    HW231536   6.095  10.243   9.828 -0.1325  3.7327 -1.7637
 8909SOL     OW31537   1.083   4.127   3.022  0.3304  0.3390  0.2029
 8909SOL    HW131538   1.016   4.077   2.975  0.7390  1.3859 -1.5811
 8909SOL    HW231539   1.037   4.163   3.097 -0.5348 -0.7993  0.2519
 8910SOL     OW31540   0.530   7.131  11.336 -0.6415  0.0061 -0.4819
 8910SOL    HW131541   0.453   7.138  11.392 -0.5918  0.1570 -0.4341
 8910SOL    HW231542   0.574   7.215  11.344  0.8976 -0.9097  1.4857
 8911SOL     OW31543   9.766   5.811   1.430 -0.3804 -0.0360 -0.4916
 8911SOL    HW131544   9.712   5.833   1.354  0.4279 -1.3924 -1.4987
 8911SOL    HW231545   9.730   5.729   1.463 -0.1131  0.0441  0.0139
 8912SOL     OW31546   9.899   2.721   2.351  0.4148 -0.1781 -0.4598
 8912SOL    HW131547   9.932   2.663   2.282 -1.1611 -0.6109 -0.8748
 8912SOL    HW231548   9.882   2.663   2.425 -0.3701 -0.1331 -0.5958
 8913SOL     OW31549   0.348   9.440  11.139 -0.0991  0.1499 -0.5561
 8913SOL    HW131550   0.319   9.441  11.230  3.0823  1.5166  0.6046
 8913SOL    HW231551   0.281   9.390  11.093 -2.1418 -0.1146  2.3997
 8914SOL     OW31552   5.836   7.081   9.096  0.6830 -0.5009  0.4010
 8914SOL    HW131553   5.853   7.084   9.002  2.4435 -0.5815  0.6873
 8914SOL    HW231554   5.740   7.087   9.103  0.5657  0.2651 -1.3443
 8915SOL     OW31555   4.650   5.602   5.963  0.4838  0.4112  0.3005
 8915SOL    HW131556   4.680   5.651   5.886 -0.1594  1.0931  0.4686
 8915SOL    HW231557   4.593   5.663   6.009  0.5255 -0.1365  1.1009
 8916SOL     OW31558   4.722   0.559   7.265 -0.2229 -0.2251 -0.1251
 8916SOL    HW131559   4.755   0.618   7.333 -0.7448 -0.5064  0.3739
 8916SOL    HW231560   4.668   0.495   7.312  0.2597 -1.0535 -0.6641
 8917SOL     OW31561   5.197   8.399   3.232  0.2615  0.7800 -0.2880
 8917SOL    HW131562   5.160   8.467   3.176 -1.0108  1.9064  1.7783
 8917SOL    HW231563   5.153   8.319   3.206  0.5120  1.0540 -1.6041
 8918SOL     OW31564   4.494   4.792   4.698  0.0318 -0.3306 -0.1510
 8918SOL    HW131565   4.574   4.779   4.749 -0.4030  1.2261  0.9965
 8918SOL    HW231566   4.521   4.847   4.624 -0.1286  1.0467  0.7817
 8919SOL     OW31567   0.460   2.117   1.705  0.0553  0.2847  0.2923
 8919SOL    HW131568   0.521   2.086   1.771  2.8166  2.2972 -1.1204
 8919SOL    HW231569   0.406   2.040   1.684  0.8206 -1.0768  2.9334
 8920SOL     OW31570   0.749   3.725   4.159  0.0152  0.3104  0.1100
 8920SOL    HW131571   0.691   3.668   4.109 -0.5507  0.4883  0.5457
 8920SOL    HW231572   0.769   3.675   4.238  1.5011 -0.2753 -0.5964
 8921SOL     OW31573   2.216   0.229   9.349  0.4952  0.0149  0.1382
 8921SOL    HW131574   2.141   0.175   9.322 -0.0147  0.0967  1.3209
 8921SOL    HW231575   2.178   0.315   9.365  0.8388  0.0596  0.7217
 8922SOL     OW31576   6.026   5.685   8.553  0.2990  0.1502 -0.9348
 8922SOL    HW131577   5.993   5.600   8.524 -2.0616  0.8060 -0.3820
 8922SOL    HW231578   6.097   5.705   8.491  0.2408 -1.7320 -1.6958
 8923SOL     OW31579   3.482  10.825  11.417  0.6535 -0.2683  0.1020
 8923SOL    HW131580   3.534  10.896  11.379 -0.7987  0.4062 -0.6855
 8923SOL    HW231581   3.405  10.818  11.361  0.2091 -1.7111  0.8339
 8924SOL     OW31582   1.220  11.279   4.991 -0.2706  0.2002 -0.1837
 8924SOL    HW131583   1.297  11.309   4.942  1.8875 -2.2099  1.4607
 8924SOL    HW231584   1.210  11.342   5.061  0.6991  0.1684  0.0006
 8925SOL     OW31585   0.523   9.927   9.824 -0.5273 -0.6655  0.1126
 8925SOL    HW131586   0.589   9.879   9.874  0.4467  1.5259  1.0703
 8925SOL    HW231587   0.441   9.912   9.871  0.0208 -0.2813  1.2314
 8926SOL     OW31588  10.969   7.650   2.580 -0.0880  0.5466 -0.0944
 8926SOL    HW131589  11.003   7.685   2.662 -0.6025  1.4121 -0.2371
 8926SOL    HW231590  10.893   7.597   2.606 -0.5015  1.1618 -0.0458
 8927SOL     OW31591   6.988  12.174   6.597 -0.3213  0.2366  0.3975
 8927SOL    HW131592   6.969  12.104   6.534  0.6261  0.1658  0.1756
 8927SOL    HW231593   7.019  12.128   6.675  0.3194  0.3993  0.2465
 8928SOL     OW31594   1.564  11.465   1.223 -0.2225 -0.2077  0.1526
 8928SOL    HW131595   1.622  11.462   1.147 -0.9055 -0.0992 -0.3875
 8928SOL    HW231596   1.476  11.450   1.187 -0.6803  0.8187  0.7794
 8929SOL     OW31597   2.088   7.587   4.734 -0.7044  0.0956  0.5805
 8929SOL    HW131598   1.994   7.572   4.746 -0.7617 -0.5676 -0.6036
 8929SOL    HW231599   2.111   7.534   4.658  0.3674  1.3003  0.0372
 8930SOL     OW31600   0.159   3.268   8.309 -0.4801 -0.1650  0.1360
 8930SOL    HW131601   0.080   3.291   8.357 -0.8210  1.3023 -1.0479
 8930SOL    HW231602   0.129   3.207   8.241 -0.4284 -0.3317  0.2619
 8931SOL     OW31603   2.708  10.293   7.474  0.0891 -0.3130  0.0255
 8931SOL    HW131604   2.786  10.242   7.497  0.3544 -0.5744 -1.3545
 8931SOL    HW231605   2.661  10.238   7.412 -1.8191 -0.6497  1.6777
 8932SOL     OW31606   9.045  11.592  12.420 -0.0173  0.2677 -0.1212
 8932SOL    HW131607   9.131  11.606  12.459 -0.1345 -1.2566  0.7357
 8932SOL    HW231608   8.990  11.661  12.457  0.5771  0.6293  0.1010
 8933SOL     OW31609   3.436   4.812   7.512 -0.0505 -0.0702 -0.5288
 8933SOL    HW131610   3.440   4.876   7.441  0.8073 -0.6018 -0.9798
 8933SOL    HW231611   3.430   4.865   7.592 -1.3315  0.5267 -0.9972
 8934SOL     OW31612  12.026   7.966   4.030 -0.1137  0.7030  0.3212
 8934SOL    HW131613  11.994   7.939   3.943 -0.6592  1.0820  0.4035
 8934SOL    HW231614  12.120   7.947   4.027 -0.2543 -0.0014 -0.0819
 8935SOL     OW31615   7.133  11.111   0.091 -0.4700 -0.1583  0.7648
 8935SOL    HW131616   7.103  11.115   0.000 -0.5033  1.3952  0.8148
 8935SOL    HW231617   7.229  11.105   0.084 -0.4995 -0.5068  0.6325
 8936SOL     OW31618   8.243   0.264  10.051  0.3936 -0.0781 -0.4211
 8936SOL    HW131619   8.262   0.346  10.097 -1.6937  0.4983 -0.4747
 8936SOL    HW231620   8.287   0.274   9.966  2.2820 -0.1406  0.5011
 8937SOL     OW31621   0.311   0.790   0.465  1.0932  0.7597 -0.2132
 8937SOL    HW131622   0.238   0.846   0.436  0.4983 -0.3524 -0.9345
 8937SOL    HW231623   0.268   0.714   0.503  1.8198 -0.6384 -2.0536
 8938SOL     OW31624   7.575   1.306   3.060 -0.1920  0.0404 -0.0400
 8938SOL    HW131625   7.558   1.291   3.153 -0.1934  0.6725  0.0627
 8938SOL    HW231626   7.498   1.353   3.028  0.9728  2.2595  0.2592
 8939SOL     OW31627   9.730   6.653   2.858 -0.2465  0.3328  0.8767
 8939SOL    HW131628   9.786   6.576   2.851 -0.7096 -0.2786  3.0910
 8939SOL    HW231629   9.647   6.627   2.818  0.0056  0.1281  0.4873
 8940SOL     OW31630   7.748   1.851   1.889 -0.1207 -0.3103  0.1149
 8940SOL    HW131631   7.800   1.898   1.955 -2.3763 -0.2046  1.9247
 8940SOL    HW231632   7.661   1.890   1.895 -0.3629 -0.0680 -3.2394
 8941SOL     OW31633   9.173  12.548  11.972 -0.0114 -0.3367  0.3872
 8941SOL    HW131634   9.183  12.519  12.063  0.9062 -0.8556  0.1284
 8941SOL    HW231635   9.173  12.643  11.977  1.3389 -0.3448  0.8026
 8942SOL     OW31636   6.045   5.041   9.600 -0.1698  0.2285  0.0179
 8942SOL    HW131637   6.021   4.952   9.629  0.2550  0.4259  1.0119
 8942SOL    HW231638   6.068   5.087   9.681  1.3093  0.7301 -0.6579
 8943SOL     OW31639   1.608   2.274   9.840  0.3897 -0.0202  0.0751
 8943SOL    HW131640   1.540   2.217   9.802  0.3572 -1.3193  1.9456
 8943SOL    HW231641   1.658   2.304   9.765 -0.6245 -1.1993 -1.1294
 8944SOL     OW31642   2.856  11.691   7.942  0.5969 -0.5099  0.3154
 8944SOL    HW131643   2.789  11.623   7.948  0.8719 -0.8794 -0.7332
 8944SOL    HW231644   2.887  11.701   8.032  0.5078 -1.7230  0.4963
 8945SOL     OW31645   5.910  10.832   4.871  0.2127 -0.4578 -0.0808
 8945SOL    HW131646   5.856  10.778   4.813 -0.3626  0.6487 -0.6085
 8945SOL    HW231647   5.850  10.859   4.941  0.0735  0.7249 -0.6324
 8946SOL     OW31648   8.807   8.311   6.303  0.6818 -0.2378  0.4522
 8946SOL    HW131649   8.760   8.336   6.224  1.4235 -0.4143 -0.0545
 8946SOL    HW231650   8.758   8.236   6.338  1.0711 -0.9745 -0.5465
 8947SOL     OW31651   4.548   1.492   9.179 -0.3108 -0.0843  0.5957
 8947SOL    HW131652   4.617   1.444   9.135  0.7127  1.7822  0.0443
 8947SOL    HW231653   4.511   1.430   9.241  1.6419 -1.2280  0.6878
 8948SOL     OW31654   4.119   5.418   5.853  0.1627 -0.2596 -0.1353
 8948SOL    HW131655   4.184   5.351   5.832 -0.6342 -0.7350 -1.1804
 8948SOL    HW231656   4.112   5.416   5.948  1.0286 -0.8214 -0.0745
 8949SOL     OW31657   3.091  11.434   2.002 -0.6585  0.5404 -0.1228
 8949SOL    HW131658   3.024  11.366   2.001 -0.1014 -0.0259 -0.8798
 8949SOL    HW231659   3.047  11.512   1.969 -0.4113 -0.4123 -3.0014
 8950SOL     OW31660   2.505  10.418  12.176  0.0063 -0.1627 -0.3519
 8950SOL    HW131661   2.528  10.329  12.151  1.6548 -1.2113  4.0103
 8950SOL    HW231662   2.585  10.454  12.214 -1.4460  1.9446  0.9521
 8951SOL     OW31663   3.396   0.581   9.103 -0.6788  0.2437  0.1907
 8951SOL    HW131664   3.307   0.566   9.073 -0.4253 -0.4447 -0.2394
 8951SOL    HW231665   3.437   0.630   9.032  0.0580 -1.7902 -0.8664
 8952SOL     OW31666  10.509  12.219   6.318  0.4767 -0.1720 -0.4545
 8952SOL    HW131667  10.551  12.213   6.233  2.0708 -1.1900  0.3508
 8952SOL    HW231668  10.533  12.138   6.363 -1.0847 -0.0847  0.6443
 8953SOL     OW31669   1.036   4.250   1.707  0.5148 -0.4276  0.4956
 8953SOL    HW131670   1.108   4.300   1.745  1.4198 -0.9833 -0.4235
 8953SOL    HW231671   1.068   4.226   1.620 -2.2888  2.7407 -1.6520
 8954SOL     OW31672   3.842   0.997   1.640  0.5970 -0.9272 -0.1080
 8954SOL    HW131673   3.792   1.056   1.697  0.3516 -0.3492 -0.9087
 8954SOL    HW231674   3.883   1.055   1.576  0.8478 -1.5781 -0.5402
 8955SOL     OW31675   3.838  12.355   4.251 -0.1218  0.0074  0.1546
 8955SOL    HW131676   3.912  12.412   4.268 -0.2185  0.1238  0.1865
 8955SOL    HW231677   3.764  12.414   4.237 -0.3250 -0.1189  0.6706
 8956SOL     OW31678  10.319   4.327   4.334 -0.6003 -0.6339 -0.2328
 8956SOL    HW131679  10.262   4.401   4.354  0.1870 -0.5143  1.8220
 8956SOL    HW231680  10.407   4.364   4.330 -0.0999 -1.4946  1.5552
 8957SOL     OW31681  12.345   5.143   4.972  0.3299 -0.1509 -0.3643
 8957SOL    HW131682  12.418   5.088   4.999 -0.9175 -2.1695 -0.8905
 8957SOL    HW231683  12.329   5.119   4.881  0.5141  2.0365 -1.0442
 8958SOL     OW31684   5.450   9.918   3.193 -0.1551 -0.2545 -0.3790
 8958SOL    HW131685   5.381   9.949   3.136  1.2620  0.1430 -1.9592
 8958SOL    HW231686   5.506   9.994   3.208  1.5729 -1.1966 -1.6389
 8959SOL     OW31687   6.018  12.306   5.983 -0.5233 -0.3377 -0.3820
 8959SOL    HW131688   6.057  12.338   5.902 -0.6078  1.2255  0.1659
 8959SOL    HW231689   6.073  12.231   6.008  0.8973  0.5692 -0.6835
 8960SOL     OW31690   2.489   4.027  11.889  0.4011  0.2981 -0.1163
 8960SOL    HW131691   2.513   4.111  11.850 -1.1503  0.1937 -1.3941
 8960SOL    HW231692   2.395   4.035  11.907  0.4538 -0.7994  0.7396
 8961SOL     OW31693   4.789  10.953   9.822 -0.4986  0.4514  0.0120
 8961SOL    HW131694   4.845  11.024   9.855 -0.1452  0.8886 -1.4660
 8961SOL    HW231695   4.809  10.879   9.879 -1.1256  1.6035  1.8199
 8962SOL     OW31696  11.812   2.824   8.762  0.3795  0.7074  0.5090
 8962SOL    HW131697  11.784   2.739   8.798  0.9968  0.2382 -0.0788
 8962SOL    HW231698  11.801   2.886   8.834 -1.2923  0.3788  0.5632
 8963SOL     OW31699   7.567   8.124   5.577  0.3733  0.1503 -0.0902
 8963SOL    HW131700   7.573   8.030   5.591 -0.8893 -0.3516 -2.3443
 8963SOL    HW231701   7.645   8.146   5.526  0.1394  0.0780 -0.4923
 8964SOL     OW31702   0.721   2.282   9.221 -0.5963  0.0078  0.7851
 8964SOL    HW131703   0.700   2.290   9.128  0.4170  1.1635  0.6481
 8964SOL    HW231704   0.691   2.364   9.260  1.7098  0.8550  0.9285
 8965SOL     OW31705   3.266   5.653   6.378  0.9147 -0.1003 -0.2338
 8965SOL    HW131706   3.321   5.713   6.429  0.6112 -0.8296  0.9863
 8965SOL    HW231707   3.191   5.706   6.351 -0.6349 -0.4251  2.9520
 8966SOL     OW31708   7.300   2.582  11.041  0.2143  0.4876 -0.1301
 8966SOL    HW131709   7.360   2.642  11.086 -1.1126  0.8988  1.1799
 8966SOL    HW231710   7.215   2.599  11.082 -0.4737 -1.2640 -0.7674
 8967SOL     OW31711   3.509   3.186  10.629  0.3980 -0.1017 -0.2415
 8967SOL    HW131712   3.532   3.210  10.540 -0.1624 -2.4618 -1.0760
 8967SOL    HW231713   3.589   3.148  10.666  0.3712  0.0426 -0.0296
 8968SOL     OW31714  10.387   6.872   8.047 -0.0325 -0.2827  0.6915
 8968SOL    HW131715  10.438   6.804   8.091  0.5812 -0.0716  0.3177
 8968SOL    HW231716  10.344   6.826   7.975  1.7411  0.0066 -0.6303
 8969SOL     OW31717  11.001   9.428   3.214  0.2248  0.4903  0.4449
 8969SOL    HW131718  10.972   9.516   3.190  0.4602  0.0309 -1.7173
 8969SOL    HW231719  10.922   9.374   3.204  0.3515  0.2659  0.6575
 8970SOL     OW31720   4.024   5.016   8.267  0.0296 -0.0118 -0.3624
 8970SOL    HW131721   4.087   4.952   8.236 -0.2974 -0.6846  0.3421
 8970SOL    HW231722   4.024   5.084   8.199  1.0404 -0.3014 -0.6711
 8971SOL     OW31723   8.879  10.193  12.109  0.2779  0.2058 -0.0887
 8971SOL    HW131724   8.933  10.260  12.067 -0.8915  1.7577  0.7942
 8971SOL    HW231725   8.895  10.203  12.202 -1.2054  0.4628  0.1764
 8972SOL     OW31726  10.389  11.560   2.902  0.4356 -0.3186  0.0555
 8972SOL    HW131727  10.391  11.527   2.812  0.2742 -0.2505  0.0258
 8972SOL    HW231728  10.481  11.563   2.929  0.6498  1.2447 -0.6946
 8973SOL     OW31729  11.010   6.220  10.311  0.3563  0.5393  0.0321
 8973SOL    HW131730  11.016   6.285  10.381  2.4804  0.4338  0.0362
 8973SOL    HW231731  10.953   6.260  10.246  0.7727  1.9686  0.5008
 8974SOL     OW31732  10.662   8.351   7.660  0.7578 -0.5142 -0.5149
 8974SOL    HW131733  10.726   8.416   7.632  0.6978  0.6871  1.8751
 8974SOL    HW231734  10.594   8.401   7.704 -1.1677 -1.9002 -1.7422
 8975SOL     OW31735   5.117   4.416  10.647  0.1096 -0.5902  0.0911
 8975SOL    HW131736   5.036   4.415  10.597  1.6385  3.0324 -2.9789
 8975SOL    HW231737   5.101   4.477  10.719 -0.1468 -0.6319  0.0699
 8976SOL     OW31738   1.034   6.346   9.182 -0.1433  0.0448 -0.8111
 8976SOL    HW131739   1.091   6.269   9.191 -0.7631 -0.3393 -0.0955
 8976SOL    HW231740   1.071   6.394   9.108  2.6512  1.1591  1.1470
 8977SOL     OW31741  12.557   4.917   0.828 -0.2307  0.5951  0.0480
 8977SOL    HW131742  12.462   4.918   0.844 -0.3602  0.1800 -0.6316
 8977SOL    HW231743  12.593   4.869   0.902 -0.6076  0.3462  0.0760
 8978SOL     OW31744   8.633   9.212   4.250 -0.2148 -0.2480  0.2519
 8978SOL    HW131745   8.599   9.148   4.187  1.6120 -0.1099 -0.9425
 8978SOL    HW231746   8.646   9.161   4.330 -1.4707 -0.7038  0.1849
 8979SOL     OW31747   0.327  10.386   3.659 -0.0456 -0.4016  0.4175
 8979SOL    HW131748   0.349  10.391   3.566 -1.3126  0.2588  0.1149
 8979SOL    HW231749   0.349  10.297   3.685  1.9582 -0.0911 -0.0567
 8980SOL     OW31750  10.577   3.262   6.945  0.1367 -0.7823 -0.1047
 8980SOL    HW131751  10.658   3.304   6.915 -0.4035  0.5268  0.1945
 8980SOL    HW231752  10.574   3.280   7.039  0.0046 -1.7097  0.0732
 8981SOL     OW31753   1.302   7.642   9.330 -0.1852  0.3224 -0.6668
 8981SOL    HW131754   1.291   7.614   9.421 -0.1019  2.8438  0.1744
 8981SOL    HW231755   1.297   7.737   9.333  1.1240  0.5432 -3.1420
 8982SOL     OW31756   3.976   9.446   3.509  0.0605  0.0633 -0.1689
 8982SOL    HW131757   3.912   9.440   3.438  0.1443 -0.6322 -0.1961
 8982SOL    HW231758   3.954   9.527   3.555 -0.4132  0.1753 -0.5890
 8983SOL     OW31759   9.797   5.943  11.571  0.2129  0.0543 -0.0304
 8983SOL    HW131760   9.830   6.005  11.635 -1.4512  1.4024 -0.4174
 8983SOL    HW231761   9.726   5.897  11.615 -0.1786  0.1700 -0.5274
 8984SOL     OW31762  12.457  10.554   0.039 -0.5716 -0.3147 -0.2224
 8984SOL    HW131763  12.413  10.617  -0.018 -2.3881 -1.1468  0.1872
 8984SOL    HW231764  12.545  10.545   0.002 -0.4874  1.9055 -0.6904
 8985SOL     OW31765   4.933  10.308   8.489 -0.0512  0.3144 -0.6950
 8985SOL    HW131766   4.866  10.358   8.442 -1.3183 -1.7460 -1.1697
 8985SOL    HW231767   4.939  10.225   8.443  0.0917 -1.0200  1.5953
 8986SOL     OW31768   3.980  11.912   6.439  0.4257  0.1400  0.4464
 8986SOL    HW131769   4.043  11.967   6.484  1.6260  0.8209 -1.8704
 8986SOL    HW231770   3.906  11.970   6.420 -0.1764 -0.2041  1.6450
 8987SOL     OW31771   5.536  12.092  11.491  0.0524 -0.3178  0.1300
 8987SOL    HW131772   5.542  12.087  11.396 -0.5484  0.5472  0.0287
 8987SOL    HW231773   5.587  12.018  11.523 -0.2542 -0.9820 -0.8811
 8988SOL     OW31774   0.355   0.292   3.609  0.2531 -0.1955  0.2842
 8988SOL    HW131775   0.356   0.380   3.572 -0.8277 -0.4073 -0.2713
 8988SOL    HW231776   0.263   0.266   3.608  0.6883 -1.8626 -0.8374
 8989SOL     OW31777   7.031  11.389   1.498 -0.1814 -0.3522  0.0513
 8989SOL    HW131778   6.951  11.441   1.508 -0.5577 -0.6083 -1.3188
 8989SOL    HW231779   6.999  11.304   1.466  0.5101 -1.0428  1.1684
 8990SOL     OW31780  10.997   1.664   5.790 -0.3255 -0.0652  0.0278
 8990SOL    HW131781  11.048   1.730   5.837  0.8109 -0.8431 -0.0636
 8990SOL    HW231782  10.917   1.655   5.841 -0.0405  0.6382  0.6232
 8991SOL     OW31783   1.956   0.545   8.880  1.0573 -0.1146 -0.9189
 8991SOL    HW131784   1.983   0.512   8.966  0.0662  0.9159 -0.1871
 8991SOL    HW231785   1.935   0.467   8.829  0.9038 -0.7039  0.0317
 8992SOL     OW31786   3.528   0.420   7.651 -0.2656  0.7570 -0.4113
 8992SOL    HW131787   3.597   0.404   7.587 -0.0240 -0.3366  0.1003
 8992SOL    HW231788   3.457   0.360   7.626  0.6587 -1.3081  1.5486
 8993SOL     OW31789   7.812   3.342  10.818 -0.6464  0.0290  0.3310
 8993SOL    HW131790   7.770   3.425  10.842  1.1553  1.1876 -0.2532
 8993SOL    HW231791   7.903   3.353  10.846 -0.4478 -1.9579  0.6247
 8994SOL     OW31792   8.122   8.823   2.250 -0.4768 -0.0660  0.3842
 8994SOL    HW131793   8.176   8.801   2.173 -0.2642 -0.3033  0.5995
 8994SOL    HW231794   8.174   8.888   2.298 -2.1647  2.9316 -1.5416
 8995SOL     OW31795   9.925   7.108   8.206 -0.0733  0.0184  0.5790
 8995SOL    HW131796   9.941   7.107   8.301 -0.2489  0.2456  0.6115
 8995SOL    HW231797   9.996   7.054   8.170  0.8647  1.1278  0.7048
 8996SOL     OW31798   7.150   5.647   1.175  0.3881 -0.0250 -0.2232
 8996SOL    HW131799   7.171   5.587   1.104 -0.8510 -2.2021  1.1115
 8996SOL    HW231800   7.159   5.594   1.254 -3.0837  0.7842  0.9036
 8997SOL     OW31801   6.918   3.665   2.834 -0.2256 -0.6985 -0.2419
 8997SOL    HW131802   6.839   3.629   2.793 -0.2989  0.0056 -0.7300
 8997SOL    HW231803   6.898   3.665   2.928 -0.2628 -1.8180 -0.2411
 8998SOL     OW31804   9.622   1.941   2.089  0.0317  0.1182 -0.5162
 8998SOL    HW131805   9.572   1.968   2.012 -1.3383 -1.3041 -0.1824
 8998SOL    HW231806   9.600   2.006   2.156 -0.2648  0.3015 -0.7859
 8999SOL     OW31807   0.247   5.904   4.685 -0.4372 -0.3444 -0.5113
 8999SOL    HW131808   0.200   5.983   4.711 -1.2445 -0.8823 -0.2991
 8999SOL    HW231809   0.289   5.874   4.765 -1.4567 -1.0069 -0.1977
 9000SOL     OW31810   1.312   0.855   5.526  0.0363  0.5072 -0.7663
 9000SOL    HW131811   1.252   0.917   5.484 -0.5831 -0.6509 -1.6713
 9000SOL    HW231812   1.339   0.797   5.455 -1.4757 -1.8697  0.4751
 9001SOL     OW31813  11.585   3.609  10.197 -0.3115  0.2977  0.2774
 9001SOL    HW131814  11.635   3.671  10.250  0.0497 -1.7004  2.4604
 9001SOL    HW231815  11.531   3.562  10.261 -1.1927 -1.0562 -1.3812
 9002SOL     OW31816   6.348   0.660   8.030  0.1613 -0.2213 -0.2841
 9002SOL    HW131817   6.287   0.648   8.102  0.7803 -1.0330  0.1278
 9002SOL    HW231818   6.430   0.620   8.060  1.3092  1.9303 -0.3168
 9003SOL     OW31819   9.671  10.717  10.058 -0.0584  0.6187 -0.7687
 9003SOL    HW131820   9.668  10.706  10.153  1.1097 -2.0190 -0.9582
 9003SOL    HW231821   9.741  10.780  10.043  0.5103  0.1995  0.0834
 9004SOL     OW31822  12.344   5.199  11.244 -0.0905  0.4509 -0.3714
 9004SOL    HW131823  12.393   5.155  11.175  0.7486  1.0189 -0.1517
 9004SOL    HW231824  12.259   5.154  11.246  0.1053  0.0153 -1.3384
 9005SOL     OW31825   4.411  11.970  11.046  0.8426 -0.0449 -0.5902
 9005SOL    HW131826   4.404  11.953  11.140 -0.1368  0.8163 -0.5004
 9005SOL    HW231827   4.432  11.884  11.008  0.7636 -0.4962  0.3619
 9006SOL     OW31828   1.513  12.229   6.699 -0.1281  0.2740  0.3657
 9006SOL    HW131829   1.454  12.244   6.773 -2.5713 -1.4061 -1.1166
 9006SOL    HW231830   1.538  12.316   6.669 -0.7776  1.0003  1.8480
 9007SOL     OW31831   8.063   3.647   3.885  0.6148  0.3180  0.1807
 9007SOL    HW131832   8.007   3.630   3.809  0.4388  3.6864 -0.6340
 9007SOL    HW231833   8.040   3.737   3.912  1.4375 -0.3293  3.5930
 9008SOL     OW31834   0.212   8.314   9.014  0.2865 -0.1484 -0.3188
 9008SOL    HW131835   0.303   8.285   9.022 -0.2543 -1.8865 -0.0108
 9008SOL    HW231836   0.217   8.401   8.973  2.1082  0.1482  0.4527
 9009SOL     OW31837   7.484   4.276   3.071  0.5757  0.0682 -0.0757
 9009SOL    HW131838   7.451   4.244   2.987  0.2403  0.2670 -0.0231
 9009SOL    HW231839   7.566   4.320   3.049  0.1590  0.6989 -0.4000
 9010SOL     OW31840  12.392   3.441   6.157 -0.0018  0.4472  0.6461
 9010SOL    HW131841  12.384   3.346   6.149 -0.2541  0.5261 -0.1328
 9010SOL    HW231842  12.330   3.465   6.226 -1.7765  0.3135 -0.8363
 9011SOL     OW31843   1.786   4.720   2.886 -0.0043  0.1461 -0.3553
 9011SOL    HW131844   1.793   4.813   2.909  0.2686 -0.3526  1.8070
 9011SOL    HW231845   1.695   4.697   2.906  0.0460 -0.1406 -0.4541
 9012SOL     OW31846   5.909   8.023   3.488  0.1078 -0.1961 -0.1219
 9012SOL    HW131847   5.829   8.075   3.479  1.5155  1.9076 -1.4822
 9012SOL    HW231848   5.948   8.054   3.569  0.7218  0.6002 -0.7032
 9013SOL     OW31849   8.121   3.932  11.022 -0.5090  0.2715 -0.3098
 9013SOL    HW131850   8.133   3.990  10.946  0.7904  0.4318 -0.0145
 9013SOL    HW231851   8.111   3.993  11.096  0.5139  0.1460 -0.0481
 9014SOL     OW31852  11.736   8.026  10.012  0.0301 -0.6298 -0.3171
 9014SOL    HW131853  11.728   7.993   9.923 -0.7320  0.7078 -0.7698
 9014SOL    HW231854  11.661   7.990  10.058  0.5326 -1.4834 -0.1434
 9015SOL     OW31855   0.903   2.174   5.077 -0.6110  0.3619 -0.3937
 9015SOL    HW131856   0.891   2.247   5.017  0.1149  0.3354 -0.5763
 9015SOL    HW231857   0.939   2.104   5.023 -0.5287  0.1375 -0.0532
 9016SOL     OW31858  12.597   1.125   0.427 -0.7175 -0.5416 -0.4907
 9016SOL    HW131859  12.660   1.193   0.453 -0.3305 -0.9964 -0.2175
 9016SOL    HW231860  12.554   1.100   0.509 -1.1010 -0.3860 -0.6437
 9017SOL     OW31861   6.415  11.398   7.035  0.1502  0.1160 -0.1873
 9017SOL    HW131862   6.367  11.348   7.101 -0.3687 -0.7830 -1.2104
 9017SOL    HW231863   6.468  11.460   7.085 -0.8063 -0.0196  1.0323
 9018SOL     OW31864   7.130   6.326   1.049 -0.5277 -0.3874  0.2800
 9018SOL    HW131865   7.198   6.285   1.102 -1.2330  1.6362  3.0033
 9018SOL    HW231866   7.079   6.253   1.013  1.7170 -1.8796 -0.0141
 9019SOL     OW31867   8.557  10.869   6.690 -0.3473 -0.7922 -0.2525
 9019SOL    HW131868   8.482  10.873   6.749 -0.1878 -1.2685 -0.0099
 9019SOL    HW231869   8.565  10.776   6.668 -0.7906 -0.5474 -1.5248
 9020SOL     OW31870   9.717   3.255  10.996 -0.7856 -0.4105 -0.3695
 9020SOL    HW131871   9.626   3.227  11.003 -0.2912 -2.5952 -1.8219
 9020SOL    HW231872   9.763   3.206  11.063 -0.3978 -0.7835 -0.8965
 9021SOL     OW31873   2.669   5.621  11.573 -0.3313  0.3314 -0.8865
 9021SOL    HW131874   2.597   5.593  11.517  0.0702  0.8031 -1.6649
 9021SOL    HW231875   2.691   5.543  11.625 -1.3455  0.1683 -0.6855
 9022SOL     OW31876   0.956   9.794   9.766  0.3230 -0.1515  0.0720
 9022SOL    HW131877   0.940   9.723   9.828  2.6950 -0.3839  0.5056
 9022SOL    HW231878   0.982   9.869   9.820 -1.3754  0.8742 -0.4385
 9023SOL     OW31879   9.091  10.077  11.455 -0.0479 -0.5482 -0.2671
 9023SOL    HW131880   9.103   9.982  11.461  1.2471 -0.3986 -0.1800
 9023SOL    HW231881   9.016  10.096  11.512  0.1086 -1.4429  0.2495
 9024SOL     OW31882   4.946   0.948   8.435  0.1534 -0.2056  0.2946
 9024SOL    HW131883   5.018   1.005   8.409 -0.5543 -0.3022 -2.1810
 9024SOL    HW231884   4.989   0.873   8.476  1.2583  0.8312  1.1073
 9025SOL     OW31885  10.639   8.932   2.153 -0.1830 -0.5014  0.4619
 9025SOL    HW131886  10.644   8.839   2.130 -1.9689 -1.1093  2.2121
 9025SOL    HW231887  10.546   8.954   2.140  0.4887  1.5388 -1.5176
 9026SOL     OW31888   6.404  11.441   3.187  0.4082  0.2792 -0.5602
 9026SOL    HW131889   6.492  11.403   3.174  0.9260  0.5941  1.6792
 9026SOL    HW231890   6.346  11.365   3.188  1.3717 -0.6261  3.3448
 9027SOL     OW31891   9.673   1.911   9.875 -0.2930 -0.0116  0.6006
 9027SOL    HW131892   9.657   1.906   9.969 -0.6770  0.1280  0.5465
 9027SOL    HW231893   9.765   1.888   9.865  0.3199  1.9341  1.2271
 9028SOL     OW31894   8.395   8.284  11.478  0.3799  0.5243  0.3826
 9028SOL    HW131895   8.336   8.208  11.471 -0.3714  1.2047 -1.0352
 9028SOL    HW231896   8.468   8.262  11.420  0.3214  0.7461  0.2269
 9029SOL     OW31897   8.843  12.290  11.531  0.0108 -0.0812 -0.1705
 9029SOL    HW131898   8.818  12.268  11.441  2.0937 -1.1248 -0.5503
 9029SOL    HW231899   8.929  12.330  11.523  0.2949 -0.3241  1.3748
 9030SOL     OW31900   8.627   2.710   8.150 -0.0780  0.2651  0.6882
 9030SOL    HW131901   8.595   2.701   8.240 -2.1689 -0.4906 -0.0733
 9030SOL    HW231902   8.660   2.800   8.145  0.8942  0.0553  2.4151
 9031SOL     OW31903   9.423   3.347   6.169 -0.3472  0.4806  0.2622
 9031SOL    HW131904   9.396   3.295   6.245  2.0807 -0.0641  0.8278
 9031SOL    HW231905   9.363   3.422   6.169 -1.5022 -0.3841  1.6753
 9032SOL     OW31906  11.585  11.200   5.180  0.3452 -0.0063  0.5185
 9032SOL    HW131907  11.540  11.169   5.102  0.0899 -0.7313  0.9512
 9032SOL    HW231908  11.667  11.238   5.147  0.5240 -0.8771 -0.0437
 9033SOL     OW31909   6.401   0.866   5.851  0.0385  0.6075  0.4408
 9033SOL    HW131910   6.314   0.860   5.813  0.1118 -1.9634  0.5013
 9033SOL    HW231911   6.451   0.919   5.789 -0.8526 -0.2661 -1.0875
 9034SOL     OW31912   1.815  10.523   8.081  0.0988  0.3214  0.0793
 9034SOL    HW131913   1.816  10.433   8.047 -0.9430 -0.1457  1.2151
 9034SOL    HW231914   1.849  10.515   8.170 -0.9039  0.8888  0.5319
 9035SOL     OW31915   1.033   4.965   4.517  0.1891  0.0331  0.5831
 9035SOL    HW131916   0.963   4.934   4.459  1.5293 -0.5427 -0.8077
 9035SOL    HW231917   1.072   4.886   4.553 -1.5144  0.4009  3.5079
 9036SOL     OW31918   4.746   2.444   1.832  0.1181  0.2232  0.4720
 9036SOL    HW131919   4.795   2.399   1.764 -0.6595 -1.4035  0.9362
 9036SOL    HW231920   4.683   2.379   1.864 -2.0350  2.0598  0.2325
 9037SOL     OW31921   1.329   1.973   7.093  0.1955 -0.2381  0.1291
 9037SOL    HW131922   1.264   1.905   7.075 -0.3718 -0.0263  1.3085
 9037SOL    HW231923   1.279   2.054   7.100  0.8930  0.3874 -1.5078
 9038SOL     OW31924   7.481  10.902  11.696  0.2835 -0.0682  0.0850
 9038SOL    HW131925   7.478  10.988  11.737  0.1766  0.1300 -0.3326
 9038SOL    HW231926   7.549  10.855  11.744  2.0080  1.0319 -1.1535
 9039SOL     OW31927   1.069   0.352   3.050 -0.0024 -0.3516  0.0845
 9039SOL    HW131928   1.057   0.329   3.142  2.1762 -0.2184  0.4548
 9039SOL    HW231929   1.162   0.337   3.033 -0.3066 -0.1795 -2.0548
 9040SOL     OW31930   2.738   3.907  12.389 -0.0751  0.2338 -0.5958
 9040SOL    HW131931   2.798   3.961  12.338 -0.0079 -0.8789 -1.7541
 9040SOL    HW231932   2.685   3.861  12.323 -2.3183  1.2848  0.3834
 9041SOL     OW31933  11.844   5.647   2.816 -0.4751 -0.1107  0.3692
 9041SOL    HW131934  11.907   5.697   2.764  0.8240 -1.2638  0.7855
 9041SOL    HW231935  11.895   5.576   2.854 -1.9129 -0.7242  1.2321
 9042SOL     OW31936  11.850  11.079   0.248  0.0654  0.2917  0.1242
 9042SOL    HW131937  11.846  11.006   0.309 -0.2998  1.1669  1.1620
 9042SOL    HW231938  11.847  11.038   0.161  0.1316 -0.9284  0.6899
 9043SOL     OW31939   3.855   6.761  10.704  0.3292  0.0983 -0.1940
 9043SOL    HW131940   3.765   6.778  10.733 -1.0367 -2.1700 -2.6564
 9043SOL    HW231941   3.877   6.675  10.740  1.5649  0.6337  0.3997
 9044SOL     OW31942   8.921  12.612   9.966  0.0847 -0.0735  0.0693
 9044SOL    HW131943   8.929  12.541  10.029  0.7994  0.3935  0.5206
 9044SOL    HW231944   9.009  12.624   9.931 -0.2408 -0.1061 -0.7769
 9045SOL     OW31945   8.433   5.489   3.678 -0.1530 -0.5831 -0.1310
 9045SOL    HW131946   8.474   5.405   3.656 -0.8013 -0.8844 -0.2398
 9045SOL    HW231947   8.410   5.480   3.770  0.8109 -0.0722  0.1699
 9046SOL     OW31948   5.572   5.271  11.256 -0.0180  0.2094  0.0562
 9046SOL    HW131949   5.522   5.193  11.280 -2.4302  0.8686 -2.3158
 9046SOL    HW231950   5.543   5.338  11.319  0.6009 -0.2927  0.8926
 9047SOL     OW31951   6.047  10.964  11.775  0.0503  0.1470 -0.1313
 9047SOL    HW131952   6.142  10.960  11.789  0.1707 -0.3707 -1.0197
 9047SOL    HW231953   6.018  10.874  11.786 -0.2246  0.1749 -0.6118
 9048SOL     OW31954   3.803   3.286   3.558  0.7518 -0.0121  0.0699
 9048SOL    HW131955   3.722   3.312   3.515  0.7668 -1.4104 -0.8890
 9048SOL    HW231956   3.795   3.319   3.647 -0.5712  0.4479 -0.2006
 9049SOL     OW31957   0.162   0.735   5.759 -0.3601 -0.8079  0.1238
 9049SOL    HW131958   0.201   0.823   5.755  1.2638 -1.4803  0.3435
 9049SOL    HW231959   0.164   0.704   5.669 -3.7352  0.4630 -0.5266
 9050SOL     OW31960   3.873  11.559   0.062  0.6573 -0.2134 -0.1985
 9050SOL    HW131961   3.888  11.528   0.151  1.1254 -1.7646 -0.7733
 9050SOL    HW231962   3.842  11.649   0.072 -0.0364 -0.6075  1.5567
 9051SOL     OW31963   2.478   8.029   1.559  0.3968  0.0526 -0.3118
 9051SOL    HW131964   2.559   8.003   1.602 -0.1741 -0.1735  0.6449
 9051SOL    HW231965   2.415   8.041   1.630 -0.2431  0.8515 -0.9871
 9052SOL     OW31966   4.930   5.249   1.536 -0.5671 -0.1159 -0.6387
 9052SOL    HW131967   4.941   5.157   1.513  0.6410 -0.1423 -0.0535
 9052SOL    HW231968   5.009   5.270   1.586 -0.6821  1.3278 -1.0364
 9053SOL     OW31969   8.166   9.068  11.678  0.7227 -0.7929  0.2967
 9053SOL    HW131970   8.091   9.057  11.621  1.0320 -2.3773  0.1594
 9053SOL    HW231971   8.228   9.001  11.651  1.9135  0.0195  0.8689
 9054SOL     OW31972   2.544   7.069   2.504  0.1104 -0.4075  0.0036
 9054SOL    HW131973   2.524   7.151   2.460  0.5420 -0.1388  0.2925
 9054SOL    HW231974   2.519   7.084   2.595 -2.2986 -1.4988 -0.4036
 9055SOL     OW31975   8.699  11.958  10.806 -0.0025 -0.2498 -0.7723
 9055SOL    HW131976   8.726  11.898  10.736 -1.5129 -1.6209 -0.2437
 9055SOL    HW231977   8.615  11.992  10.775 -0.8020 -1.0523  0.4395
 9056SOL     OW31978   5.057  10.837   7.070 -0.3057 -0.0421 -0.2394
 9056SOL    HW131979   4.979  10.794   7.034 -1.0010  1.4027 -0.5048
 9056SOL    HW231980   5.029  10.868   7.156 -0.5297  1.8202 -0.9497
 9057SOL     OW31981   9.231   2.836   3.215  0.1047 -0.0478 -0.0302
 9057SOL    HW131982   9.141   2.833   3.183 -0.3302  0.6006  1.0596
 9057SOL    HW231983   9.277   2.770   3.164 -0.7090  0.4206 -1.4221
 9058SOL     OW31984   1.573   8.224   4.647  0.8325 -0.3575  0.7287
 9058SOL    HW131985   1.645   8.192   4.701  3.0839 -0.6941 -2.1988
 9058SOL    HW231986   1.581   8.319   4.650  1.4998 -0.3956  0.3654
 9059SOL     OW31987   8.047   7.324   7.933 -0.3454 -0.4702 -0.1412
 9059SOL    HW131988   8.016   7.404   7.976  2.3812  0.3055  0.6324
 9059SOL    HW231989   8.046   7.258   8.002 -1.9044 -0.9484 -0.5910
 9060SOL     OW31990  12.241   5.961  11.005 -0.9620  0.6947 -0.0869
 9060SOL    HW131991  12.248   5.971  10.910 -0.8247 -1.0386 -0.2911
 9060SOL    HW231992  12.153   5.928  11.019 -1.0506  1.1368  0.4179
 9061SOL     OW31993   0.323   0.242  11.595  0.1861  0.3649  0.1819
 9061SOL    HW131994   0.311   0.251  11.501  2.7276 -1.1592 -0.4033
 9061SOL    HW231995   0.321   0.331  11.629 -0.9765  0.9200 -1.2549
 9062SOL     OW31996   3.423   5.827  10.319 -0.2057  0.7110  0.3289
 9062SOL    HW131997   3.445   5.834  10.226  0.5467  1.2321  0.5344
 9062SOL    HW231998   3.504   5.797  10.360 -1.0724 -1.4190  0.5808
 9063SOL     OW31999   9.070   1.638   5.696  0.8721 -0.2035 -0.3489
 9063SOL    HW132000   9.001   1.678   5.643  2.7438  2.6238 -0.8474
 9063SOL    HW232001   9.026   1.614   5.778 -0.9825  0.1035 -1.2057
 9064SOL     OW32002  10.139   1.038   2.827  0.6513  0.1799  0.6069
 9064SOL    HW132003  10.183   1.039   2.912  1.5891 -0.5144  0.1450
 9064SOL    HW232004  10.086   1.118   2.826 -0.6151 -0.5528  2.4746
 9065SOL     OW32005  10.036   8.170   5.624 -0.2590  0.3082 -0.3830
 9065SOL    HW132006  10.075   8.082   5.623 -1.6652 -0.3502 -0.3669
 9065SOL    HW232007   9.966   8.164   5.688 -0.4592  1.4214 -0.4783
 9066SOL     OW32008   2.040   2.886   2.701  0.1068 -0.3488  0.4412
 9066SOL    HW132009   2.119   2.882   2.754  0.0494  1.4053  0.7103
 9066SOL    HW232010   1.981   2.822   2.741  0.3100  0.4544  2.1244
 9067SOL     OW32011   6.604  11.623   1.134  0.0104  0.1262  0.2013
 9067SOL    HW132012   6.552  11.680   1.190  0.8892  0.2402  0.9188
 9067SOL    HW232013   6.644  11.682   1.070 -0.4039  0.0955 -0.0865
 9068SOL     OW32014  10.004   0.815   0.732  0.2270  0.4545 -0.3046
 9068SOL    HW132015  10.083   0.864   0.712  1.8504 -1.8672 -0.0667
 9068SOL    HW232016  10.034   0.744   0.789 -2.2628  0.1889  0.8056
 9069SOL     OW32017  10.128   4.386   2.725  0.2938  0.3627 -0.4161
 9069SOL    HW132018  10.086   4.387   2.639 -1.0577  0.8519  0.2265
 9069SOL    HW232019  10.056   4.380   2.787  1.2401  0.2131  0.7028
 9070SOL     OW32020   2.710  12.230  11.627 -0.5755 -0.0553 -0.2168
 9070SOL    HW132021   2.749  12.151  11.591 -0.8004  0.8079 -2.5202
 9070SOL    HW232022   2.776  12.298  11.612  0.1353  0.0646  2.8114
 9071SOL     OW32023   1.157   3.611   9.974  0.2209 -0.3927  0.3471
 9071SOL    HW132024   1.216   3.673   9.931 -1.8715 -0.0657 -2.3241
 9071SOL    HW232025   1.160   3.634  10.066  2.2998  1.2316 -0.0579
 9072SOL     OW32026   2.584  12.168   6.969  0.6252  0.4559 -0.0722
 9072SOL    HW132027   2.599  12.253   6.927 -1.1653  0.5672 -0.5705
 9072SOL    HW232028   2.587  12.104   6.898  0.7410  0.2559  0.1108
 9073SOL     OW32029   5.923  11.814   8.286  0.0390  0.0296  0.3692
 9073SOL    HW132030   5.831  11.838   8.299  0.1677  1.4173 -0.9893
 9073SOL    HW232031   5.962  11.821   8.373 -1.0687 -0.2661  0.9076
 9074SOL     OW32032   9.230   0.780   8.408  0.1916  0.8244  0.4657
 9074SOL    HW132033   9.212   0.740   8.323  1.2133  0.0260  0.5979
 9074SOL    HW232034   9.144   0.800   8.444 -0.3148  4.6267 -2.2806
 9075SOL     OW32035   4.055   3.948   3.631 -0.2636  0.2929  0.1707
 9075SOL    HW132036   4.094   3.873   3.676  0.4173  0.9848  0.7549
 9075SOL    HW232037   3.993   3.909   3.569 -1.8436 -0.6888  2.2452
 9076SOL     OW32038   9.645  12.631  12.435  0.2616 -0.4480  0.1720
 9076SOL    HW132039   9.716  12.609  12.495 -0.1147 -1.7462  0.1656
 9076SOL    HW232040   9.681  12.613  12.348 -0.1313 -1.2905  0.1791
 9077SOL     OW32041   6.681   6.937   3.664  0.7371 -0.4105 -0.3407
 9077SOL    HW132042   6.597   6.974   3.637  0.3982 -0.7165  0.2760
 9077SOL    HW232043   6.711   6.994   3.735  0.5787 -0.8558  0.0943
 9078SOL     OW32044   8.889  10.863   0.208  0.4774 -0.1629  0.5495
 9078SOL    HW132045   8.942  10.941   0.225 -0.6193  0.1247  2.9912
 9078SOL    HW232046   8.947  10.790   0.228  1.1395  0.0060 -0.6260
 9079SOL     OW32047   3.906  10.553   2.325  0.0282  0.2121 -0.2744
 9079SOL    HW132048   3.855  10.554   2.244 -1.6316 -0.0093  0.7196
 9079SOL    HW232049   3.942  10.465   2.331 -0.3074  0.0581 -0.5085
 9080SOL     OW32050   0.784  11.792   4.004  0.3213  0.0495 -0.5392
 9080SOL    HW132051   0.700  11.748   3.991  0.6647 -0.7101 -0.2227
 9080SOL    HW232052   0.819  11.803   3.916  0.7079 -1.2557 -0.5547
 9081SOL     OW32053   6.043  12.158   2.465  0.4045 -0.4092 -0.2762
 9081SOL    HW132054   6.120  12.192   2.512 -2.1645  3.5595  1.5622
 9081SOL    HW232055   6.015  12.083   2.518  0.0094  1.4261  2.2772
 9082SOL     OW32056  10.491  11.151   6.011  0.6885  0.0818  0.3049
 9082SOL    HW132057  10.412  11.174   5.962  1.5702 -0.4601 -1.4397
 9082SOL    HW232058  10.534  11.234   6.029  0.8573  0.2288 -0.7412
 9083SOL     OW32059   7.491   6.680   6.137  0.2759 -0.0404  0.1906
 9083SOL    HW132060   7.484   6.771   6.164 -1.8640  0.0291 -0.3989
 9083SOL    HW232061   7.402   6.656   6.108  1.4426 -1.3226 -2.8165
 9084SOL     OW32062   4.370   9.083   1.343 -0.4616 -0.4074  0.0349
 9084SOL    HW132063   4.394   9.163   1.296  2.0962 -0.2578  1.3570
 9084SOL    HW232064   4.433   9.018   1.313 -1.9479 -1.7119 -0.3599
 9085SOL     OW32065  10.417   0.869  10.648  0.6648  0.2020 -0.4675
 9085SOL    HW132066  10.455   0.954  10.624  1.9523 -0.5343 -1.2088
 9085SOL    HW232067  10.367   0.844  10.571 -0.3927  0.6405  0.0649
 9086SOL     OW32068  11.860   5.381   3.613 -0.5015  0.3992  0.2196
 9086SOL    HW132069  11.796   5.442   3.649 -0.0411  1.3866 -0.5560
 9086SOL    HW232070  11.921   5.437   3.565 -0.6785 -0.7624 -1.4556
 9087SOL     OW32071   0.319  11.841   3.794 -0.0671 -0.3144  0.8098
 9087SOL    HW132072   0.380  11.795   3.737  0.1148  0.0144  0.7336
 9087SOL    HW232073   0.373  11.872   3.867 -0.1124  0.0983  0.6716
 9088SOL     OW32074  11.457   9.801   3.392  0.8760 -0.2968  0.4578
 9088SOL    HW132075  11.369   9.776   3.363  0.8006 -3.3127  2.7471
 9088SOL    HW232076  11.514   9.776   3.319  0.1463 -1.8517  0.3796
 9089SOL     OW32077   4.410   6.399   4.455 -0.2419  0.1873  0.2324
 9089SOL    HW132078   4.341   6.353   4.408 -0.3066 -0.4698  0.9599
 9089SOL    HW232079   4.464   6.438   4.386  0.0262 -1.2757 -0.4118
 9090SOL     OW32080   0.390  10.621   9.034 -0.0394  0.2973 -0.7400
 9090SOL    HW132081   0.383  10.545   8.976  0.6549 -0.8080  0.5631
 9090SOL    HW232082   0.484  10.631   9.051 -0.3075 -0.8451  1.9307
 9091SOL     OW32083   8.961   5.072   4.427 -0.1724 -0.2590  0.9887
 9091SOL    HW132084   8.958   5.129   4.503 -2.7950 -1.4003  1.8567
 9091SOL    HW232085   8.890   5.009   4.441  1.8612 -3.1185 -0.3995
 9092SOL     OW32086   8.666   1.773   2.777  0.3127 -0.6446  0.1055
 9092SOL    HW132087   8.709   1.818   2.850  0.0292 -0.4312  0.1483
 9092SOL    HW232088   8.692   1.682   2.785 -0.0129 -0.6937  0.7014
 9093SOL     OW32089   9.136   7.332   3.522  0.1075  0.2767  0.3160
 9093SOL    HW132090   9.042   7.335   3.543 -0.1429 -0.4089 -0.6453
 9093SOL    HW232091   9.145   7.385   3.444  0.5679  0.5214  0.5318
 9094SOL     OW32092   7.048   3.811   5.811  0.4249 -0.1394  0.5414
 9094SOL    HW132093   7.037   3.718   5.796  1.2262 -0.1414 -0.1205
 9094SOL    HW232094   6.960   3.843   5.831  0.1895 -1.0754  1.0254
 9095SOL     OW32095   3.160   1.292   3.505  0.2019 -0.0974 -0.1721
 9095SOL    HW132096   3.155   1.362   3.569  1.1078  0.1068 -0.3106
 9095SOL    HW232097   3.211   1.329   3.433  0.5435 -0.8262 -0.3169
 9096SOL     OW32098   3.145   5.736   5.448  0.1548  0.5079  0.2698
 9096SOL    HW132099   3.135   5.651   5.490  0.0394  0.4374  0.1032
 9096SOL    HW232100   3.222   5.775   5.489  0.7414 -0.0493 -0.2899
 9097SOL     OW32101  12.350   1.888  11.646 -0.5243 -0.4659  0.0874
 9097SOL    HW132102  12.294   1.944  11.699  2.1133  0.9367  1.6326
 9097SOL    HW232103  12.329   1.799  11.674  0.8638  0.2081  3.8218
 9098SOL     OW32104   9.522   1.979  10.158  0.3388  0.7035 -0.0240
 9098SOL    HW132105   9.521   2.067  10.195  0.7521  0.1381  1.3977
 9098SOL    HW232106   9.608   1.943  10.181 -0.3754 -0.5991  0.7499
 9099SOL     OW32107   0.092   2.180   2.018 -0.2120 -0.2720 -0.0418
 9099SOL    HW132108   0.080   2.164   2.111  0.9660 -0.9622  0.0165
 9099SOL    HW232109   0.111   2.094   1.981 -0.1254  0.0729 -0.8212
 9100SOL     OW32110   4.323   3.240   7.537 -0.0107 -0.0078  0.2511
 9100SOL    HW132111   4.270   3.187   7.596 -0.4388 -1.3759 -1.2645
 9100SOL    HW232112   4.259   3.284   7.481  0.3820  1.3083  0.8046
 9101SOL     OW32113   6.904   1.731  11.947 -0.0931 -0.5995  0.6264
 9101SOL    HW132114   6.924   1.702  12.036  1.9729  1.9530  1.1176
 9101SOL    HW232115   6.969   1.688  11.893 -1.5340 -2.3858  0.2307
 9102SOL     OW32116   3.562  10.325  11.240 -0.5048  0.4896  0.1023
 9102SOL    HW132117   3.568  10.387  11.168  0.5580 -0.6241 -0.8032
 9102SOL    HW232118   3.548  10.380  11.318 -1.5959  1.7064 -0.9205
 9103SOL     OW32119   2.490  12.401   2.611 -0.1148  0.0569  0.3276
 9103SOL    HW132120   2.543  12.457   2.554  0.6730  0.1774  1.1695
 9103SOL    HW232121   2.543  12.388   2.689 -1.6920  0.9168  1.6076
 9104SOL     OW32122   6.774   5.040   6.202 -0.2723 -0.1630  0.0681
 9104SOL    HW132123   6.690   5.083   6.220  0.3699  1.4596 -0.6236
 9104SOL    HW232124   6.829   5.064   6.276  0.6137  1.7112 -1.1420
 9105SOL     OW32125   7.245   5.167   5.494 -0.4991 -0.3114  0.1711
 9105SOL    HW132126   7.277   5.077   5.490  1.7008  0.3635  0.9501
 9105SOL    HW232127   7.272   5.206   5.411  0.4413  0.1649  0.6809
 9106SOL     OW32128  12.482   6.656  12.036 -0.0933 -0.3755 -0.2480
 9106SOL    HW132129  12.457   6.744  12.006 -0.5411 -0.8823 -1.4364
 9106SOL    HW232130  12.469   6.658  12.131 -0.4775  0.7214 -0.3098
 9107SOL     OW32131  10.332   8.928   4.794 -0.1766  0.3893  0.6505
 9107SOL    HW132132  10.251   8.979   4.795 -1.2675 -1.0787 -1.9444
 9107SOL    HW232133  10.400   8.991   4.819 -1.6169  2.7419 -0.9121
 9108SOL     OW32134   1.316   3.206   1.670  0.3393  0.1295  0.2963
 9108SOL    HW132135   1.405   3.237   1.687  0.4676 -0.7323  1.3575
 9108SOL    HW232136   1.269   3.223   1.752 -0.0310 -0.8801  0.3098
 9109SOL     OW32137   2.493   9.302   8.552  0.3627  0.0763 -0.3105
 9109SOL    HW132138   2.520   9.393   8.543  1.5639 -0.0422  1.4489
 9109SOL    HW232139   2.512   9.263   8.467  1.2245  1.1493 -0.6363
 9110SOL     OW32140   4.274   9.819   5.148  0.3711  0.0056 -0.4561
 9110SOL    HW132141   4.272   9.914   5.138  0.0231 -0.1290 -1.8613
 9110SOL    HW232142   4.329   9.804   5.225  0.2389  1.3506 -0.0822
 9111SOL     OW32143   4.957   8.378   6.691  0.3217  0.4789  0.3078
 9111SOL    HW132144   4.890   8.319   6.657 -0.8600  0.5045  2.3957
 9111SOL    HW232145   4.930   8.464   6.659  1.2985  0.1161 -1.6318
 9112SOL     OW32146   5.559   2.434   1.981  0.0778  0.0027 -0.3979
 9112SOL    HW132147   5.530   2.376   1.911 -2.6197 -0.7163  1.1836
 9112SOL    HW232148   5.501   2.510   1.975  1.5838  1.1962 -0.5496
 9113SOL     OW32149   6.973   8.467   5.429 -0.7048  0.3480  0.5713
 9113SOL    HW132150   6.903   8.494   5.369 -0.4570  1.2908  0.6920
 9113SOL    HW232151   7.004   8.549   5.469  1.6162  0.1767 -0.7071
 9114SOL     OW32152   0.388   0.103   9.080  0.1368  0.5921 -0.7711
 9114SOL    HW132153   0.297   0.113   9.054  0.4556  0.5183 -1.9438
 9114SOL    HW232154   0.433   0.075   9.001  0.8433 -1.3256  0.2510
 9115SOL     OW32155  11.510  12.021   6.076  0.5464  0.1605 -0.5425
 9115SOL    HW132156  11.554  11.937   6.076  1.4909  0.6421 -0.9988
 9115SOL    HW232157  11.537  12.063   5.994 -0.6571  0.5258 -0.7740
 9116SOL     OW32158   4.850   6.943  10.419 -0.1520 -0.0155  0.0229
 9116SOL    HW132159   4.780   6.935  10.484 -0.0074 -0.0535  0.1743
 9116SOL    HW232160   4.816   7.006  10.355 -0.4496 -0.2654 -0.0682
 9117SOL     OW32161   8.138   7.341   7.203 -0.2330 -0.2262  0.0651
 9117SOL    HW132162   8.114   7.282   7.275 -0.1566 -0.9023 -0.4469
 9117SOL    HW232163   8.105   7.426   7.229  0.5197 -0.2763  1.2951
 9118SOL     OW32164   2.903   6.620   0.640 -0.3103  0.5766  0.1786
 9118SOL    HW132165   2.942   6.596   0.556  1.3529 -3.6360  1.8752
 9118SOL    HW232166   2.817   6.580   0.638 -0.8617  1.7389 -0.0082
 9119SOL     OW32167   2.696  12.074   6.357 -0.1915 -0.1734 -0.0776
 9119SOL    HW132168   2.665  12.108   6.441 -0.3015 -1.1718  0.3035
 9119SOL    HW232169   2.618  12.071   6.302 -0.5027 -1.2891  0.4030
 9120SOL     OW32170   3.121   1.448   2.889 -0.2777 -0.8984 -0.1272
 9120SOL    HW132171   3.203   1.432   2.841 -0.3001  0.1519 -0.5315
 9120SOL    HW232172   3.053   1.429   2.824 -0.3076  2.2751 -1.1965
 9121SOL     OW32173   8.021   2.410  12.234 -0.1034 -0.0049  0.2314
 9121SOL    HW132174   8.114   2.429  12.243 -0.1404  0.0832  0.4101
 9121SOL    HW232175   7.987   2.482  12.181  0.1590 -0.6488 -0.8580
 9122SOL     OW32176   0.782   1.553   7.642 -0.2152 -0.2180  0.2364
 9122SOL    HW132177   0.767   1.462   7.670  1.7827 -0.3581  0.9986
 9122SOL    HW232178   0.774   1.604   7.722 -0.5355  0.1749 -0.0470
 9123SOL     OW32179   3.985   4.187   5.054  0.0497 -0.2207 -0.4144
 9123SOL    HW132180   3.980   4.282   5.041  1.2289 -0.1210 -0.2203
 9123SOL    HW232181   4.078   4.167   5.049  0.2797 -0.8008  3.3389
 9124SOL     OW32182  11.814   8.344   0.687 -0.0274  0.4324 -0.4366
 9124SOL    HW132183  11.772   8.422   0.724 -0.5290  0.1340 -0.3670
 9124SOL    HW232184  11.742   8.293   0.651  0.4145  0.5547 -1.5443
 9125SOL     OW32185   0.781   4.737   9.579  0.4667 -0.3769  0.4571
 9125SOL    HW132186   0.786   4.799   9.507  0.8259  0.4803  1.2012
 9125SOL    HW232187   0.715   4.673   9.551  0.5689 -0.0405 -0.5973
 9126SOL     OW32188   8.667   5.146   1.119 -0.2061 -0.0652 -0.1755
 9126SOL    HW132189   8.662   5.166   1.025  1.9081  0.4080 -0.2468
 9126SOL    HW232190   8.659   5.051   1.123  1.5728 -0.2980 -1.0714
 9127SOL     OW32191  10.123   7.890   9.345 -0.6290  0.5360 -0.0088
 9127SOL    HW132192  10.149   7.977   9.377 -0.8027 -0.2560  2.5387
 9127SOL    HW232193  10.029   7.886   9.362 -0.2545 -0.9199  2.1469
 9128SOL     OW32194   6.224   3.441   7.510  0.2440  0.1491  0.4496
 9128SOL    HW132195   6.154   3.442   7.445 -1.3704 -3.2618  1.8619
 9128SOL    HW232196   6.193   3.498   7.581 -1.0466 -1.0963  0.9250
 9129SOL     OW32197  12.316   5.291   1.115  0.3971 -0.8145 -0.5680
 9129SOL    HW132198  12.391   5.232   1.111  2.7076  1.9655 -1.3387
 9129SOL    HW232199  12.321   5.332   1.201  0.6731  0.4214 -1.1466
 9130SOL     OW32200   8.428   7.704   9.102 -0.2079 -0.3026 -0.4465
 9130SOL    HW132201   8.445   7.763   9.028  1.4924 -0.3284 -0.1231
 9130SOL    HW232202   8.483   7.737   9.173 -0.0892 -1.5840  0.0987
 9131SOL     OW32203   3.825   4.432   7.748 -0.2288  0.4478 -0.2856
 9131SOL    HW132204   3.854   4.345   7.723  1.7558 -0.7596  4.8119
 9131SOL    HW232205   3.730   4.431   7.736 -0.1843 -2.2056 -0.9263
 9132SOL     OW32206   4.003   3.234   6.795  0.1449  0.4951 -0.1825
 9132SOL    HW132207   4.008   3.258   6.703  0.6404  0.5817 -0.1342
 9132SOL    HW232208   4.088   3.258   6.831 -1.1057  3.6173  1.0711
 9133SOL     OW32209   6.026   7.601   4.526 -0.1436  0.1595 -0.3544
 9133SOL    HW132210   5.931   7.590   4.530  0.0317 -1.2783  1.0937
 9133SOL    HW232211   6.041   7.693   4.549 -1.1069 -0.2077  2.0479
 9134SOL     OW32212   7.819   1.828   0.027  0.1873 -0.4184 -0.3434
 9134SOL    HW132213   7.915   1.831   0.030  0.3334 -2.8831 -0.6946
 9134SOL    HW232214   7.796   1.753   0.081 -1.3406 -1.7896 -2.7572
 9135SOL     OW32215   3.279   7.327   5.605  0.0766 -0.0117 -0.0772
 9135SOL    HW132216   3.362   7.287   5.629 -0.6659 -1.3692  0.3250
 9135SOL    HW232217   3.219   7.254   5.596 -1.3542  1.0160  0.7074
 9136SOL     OW32218  10.065  10.341   1.490  0.2830 -0.3747  0.4277
 9136SOL    HW132219  10.030  10.259   1.455 -2.4523  0.8781 -0.0765
 9136SOL    HW232220  10.076  10.325   1.583  0.1452 -1.4032  0.2794
 9137SOL     OW32221   1.262   1.169   0.579 -0.0928 -0.1134  0.2097
 9137SOL    HW132222   1.282   1.248   0.529 -1.2839  1.7842  2.5333
 9137SOL    HW232223   1.346   1.139   0.612  0.4056 -0.0672 -0.9512
 9138SOL     OW32224   2.435   1.454   8.550 -0.4796  0.2201 -0.5477
 9138SOL    HW132225   2.374   1.454   8.623 -0.6220  0.6638 -0.6614
 9138SOL    HW232226   2.507   1.509   8.579 -0.3832  0.1289 -0.6152
 9139SOL     OW32227   6.706   5.976   7.422  0.7199  0.7699 -0.0717
 9139SOL    HW132228   6.705   5.896   7.476 -1.5468 -0.2323 -1.4396
 9139SOL    HW232229   6.777   5.961   7.360  0.2368 -0.3265 -0.4070
 9140SOL     OW32230   3.130  10.549   1.033 -0.5011 -0.2410  0.4240
 9140SOL    HW132231   3.138  10.638   1.068 -2.7861 -0.4696  1.7545
 9140SOL    HW232232   3.201  10.541   0.969  1.1561  1.7405  1.8853
 9141SOL     OW32233   4.492   8.451  11.846 -0.2662  0.0369 -0.1343
 9141SOL    HW132234   4.522   8.469  11.935 -0.6112  0.8243 -0.1684
 9141SOL    HW232235   4.514   8.529  11.796 -0.0210 -0.4216 -0.7585
 9142SOL     OW32236   1.816  10.001  11.196 -0.5853 -0.1874  0.5899
 9142SOL    HW132237   1.801  10.096  11.199 -1.0913 -0.2288 -0.4354
 9142SOL    HW232238   1.889   9.990  11.136 -0.4262 -0.4458  0.8280
 9143SOL     OW32239   5.419   3.348  10.625 -0.5787 -0.0224 -0.5048
 9143SOL    HW132240   5.466   3.377  10.547  0.7556 -3.3331 -1.1003
 9143SOL    HW232241   5.327   3.344  10.597 -0.5991  1.9283 -0.8316
 9144SOL     OW32242  11.235   6.015   5.794  0.0847  1.0148  0.6017
 9144SOL    HW132243  11.267   5.972   5.873 -1.1886 -1.0758  0.0847
 9144SOL    HW232244  11.150   6.052   5.819 -1.3011 -1.3715 -0.1153
 9145SOL     OW32245   8.375   2.392   1.744 -0.3245  0.0872 -0.2440
 9145SOL    HW132246   8.290   2.351   1.759 -0.3738  1.2092  3.6436
 9145SOL    HW232247   8.356   2.486   1.740  0.7277  0.3639  0.8547
 9146SOL     OW32248   7.782   0.324   0.946  0.1444  0.1120 -0.2081
 9146SOL    HW132249   7.710   0.285   0.897  0.5880 -1.1875  0.1124
 9146SOL    HW232250   7.855   0.326   0.884  0.3823 -0.4710  0.0380
 9147SOL     OW32251  12.601   2.181   9.114  0.1153 -0.1160  0.0350
 9147SOL    HW132252  12.625   2.089   9.125 -0.6903 -0.2412  0.8317
 9147SOL    HW232253  12.514   2.179   9.074 -0.2606  0.2943  0.8278
 9148SOL     OW32254   7.407   0.003   1.315 -0.2001  0.2899 -0.3254
 9148SOL    HW132255   7.450  -0.080   1.296 -1.6094 -0.2648 -1.2652
 9148SOL    HW232256   7.407   0.050   1.232  0.9516  1.4441  0.2928
 9149SOL     OW32257   0.565   3.903   2.657 -0.6841  0.3534 -0.3262
 9149SOL    HW132258   0.525   3.865   2.579 -1.2685 -0.7462  0.4870
 9149SOL    HW232259   0.657   3.874   2.654 -0.7665  0.1091 -0.4685
 9150SOL     OW32260   9.807  11.850   3.398  0.3796  0.0451 -0.1159
 9150SOL    HW132261   9.774  11.939   3.388  3.5163  1.1912 -1.2528
 9150SOL    HW232262   9.776  11.823   3.485 -1.1893  1.9529 -0.0226
 9151SOL     OW32263   3.237   5.496   1.067 -0.1603 -0.0576  0.5154
 9151SOL    HW132264   3.168   5.431   1.060 -0.5173  0.3192  0.4585
 9151SOL    HW232265   3.259   5.498   1.160  0.1097 -0.5152  0.4648
 9152SOL     OW32266   8.529  10.956   4.995  0.0925  0.0528  0.3218
 9152SOL    HW132267   8.542  10.883   4.934 -0.3916  0.5524 -0.3941
 9152SOL    HW232268   8.614  10.966   5.038  0.4659 -0.2788 -0.3139
 9153SOL     OW32269   4.187   0.609   8.615  0.4349 -0.3269  0.1717
 9153SOL    HW132270   4.218   0.531   8.569 -0.6300 -0.8436  0.3061
 9153SOL    HW232271   4.136   0.575   8.688  2.1775  0.4559  1.8534
 9154SOL     OW32272   6.303   3.230   1.537  0.2750 -0.2112  0.6413
 9154SOL    HW132273   6.370   3.269   1.481 -0.1342 -0.2502  0.1186
 9154SOL    HW232274   6.239   3.193   1.476 -0.7230  0.6690  1.1332
 9155SOL     OW32275   6.630   3.005   1.827 -0.6135 -0.5483  0.1178
 9155SOL    HW132276   6.626   3.012   1.732 -0.9363 -0.4761  0.1368
 9155SOL    HW232277   6.719   3.034   1.850 -0.5196 -0.6131 -0.1629
 9156SOL     OW32278   6.497   6.694   8.389 -0.0530  0.0024 -0.3049
 9156SOL    HW132279   6.526   6.706   8.479 -3.4132 -2.7266  1.3715
 9156SOL    HW232280   6.449   6.775   8.369  1.6554  1.1030 -0.1678
 9157SOL     OW32281   9.073  12.115   9.468  0.2400  0.0751  0.0536
 9157SOL    HW132282   9.088  12.032   9.514 -1.4039 -0.8636 -1.0333
 9157SOL    HW232283   8.994  12.150   9.508  0.0461  0.3347 -0.5582
 9158SOL     OW32284   6.517   7.064   9.710  0.2267 -0.4753  0.2836
 9158SOL    HW132285   6.574   7.002   9.665  0.5079 -0.7175  0.9526
 9158SOL    HW232286   6.565   7.087   9.790  0.1494  0.6422  0.0263
 9159SOL     OW32287   3.579   6.497   1.442 -0.3877  0.0384  0.2166
 9159SOL    HW132288   3.586   6.581   1.396  1.0809 -1.2352 -2.0702
 9159SOL    HW232289   3.515   6.513   1.511 -1.1315  2.6699 -0.9498
 9160SOL     OW32290   4.643   3.843   0.317 -0.0082 -0.1109  0.2767
 9160SOL    HW132291   4.603   3.780   0.258  0.8404  0.1657 -0.6097
 9160SOL    HW232292   4.721   3.799   0.351 -1.5060 -1.0349  2.7865
 9161SOL     OW32293   7.913   6.531   6.959  0.0918  0.0472 -0.0783
 9161SOL    HW132294   7.860   6.573   7.026  0.5846  0.4689  0.0488
 9161SOL    HW232295   7.969   6.470   7.007  0.1922  0.0899 -0.1410
 9162SOL     OW32296  11.476  10.441   4.479 -0.0459  0.1896 -0.2944
 9162SOL    HW132297  11.500  10.351   4.456 -2.4164 -0.2221 -1.5805
 9162SOL    HW232298  11.442  10.435   4.568 -0.0958 -0.1923 -0.3369
 9163SOL     OW32299   5.112   3.446  11.645  0.2661  0.1130 -0.0784
 9163SOL    HW132300   5.143   3.516  11.588 -0.1065  0.2187 -0.1539
 9163SOL    HW232301   5.032   3.482  11.685  0.3188 -0.1000  0.2248
 9164SOL     OW32302   5.292   8.518   5.533 -0.0926  0.3281  0.0503
 9164SOL    HW132303   5.245   8.519   5.450 -0.1423  0.5644  0.0800
 9164SOL    HW232304   5.339   8.435   5.534  0.8479  0.8336 -0.7307
 9165SOL     OW32305   5.212   7.894  11.032 -0.1424  0.3499 -0.1852
 9165SOL    HW132306   5.297   7.906  11.074 -0.6717  1.5427  0.5769
 9165SOL    HW232307   5.162   7.972  11.054 -0.9579  0.3474 -1.8364
 9166SOL     OW32308   3.371   6.178   7.086  0.4239  0.2027  0.3909
 9166SOL    HW132309   3.385   6.145   6.997  1.3450  1.4659  0.0439
 9166SOL    HW232310   3.334   6.265   7.073 -1.7347 -0.5205  1.2872
 9167SOL     OW32311  11.591   1.658   6.318 -0.1336  0.2226 -0.6776
 9167SOL    HW132312  11.502   1.631   6.342  0.5259  0.1073  1.9821
 9167SOL    HW232313  11.608   1.735   6.372  1.9899 -0.8255  0.2891
 9168SOL     OW32314   4.662   1.386   1.238 -0.5226 -0.2516 -0.7549
 9168SOL    HW132315   4.571   1.363   1.256 -0.8668  0.3931 -1.5567
 9168SOL    HW232316   4.713   1.338   1.303 -1.6106  1.6025  1.5992
 9169SOL     OW32317   0.166  10.885  10.196 -0.1167 -0.2365  0.2300
 9169SOL    HW132318   0.221  10.830  10.140  0.7820  0.9337 -0.0905
 9169SOL    HW232319   0.182  10.974  10.165 -1.4962  0.2279  0.7569
 9170SOL     OW32320   0.043   3.530   3.873  0.0497  0.1076  0.2685
 9170SOL    HW132321   0.072   3.439   3.875 -1.1156 -0.2851 -0.2171
 9170SOL    HW232322   0.055   3.562   3.963  0.7963 -0.4050  0.3580
 9171SOL     OW32323   7.651   9.829   1.408 -0.0942 -0.2109 -0.2598
 9171SOL    HW132324   7.640   9.748   1.459 -0.1570  0.4996  0.9071
 9171SOL    HW232325   7.682   9.893   1.473 -3.5670  1.6861 -0.2657
 9172SOL     OW32326   4.356   2.931   5.958  0.0336  0.0940  0.1871
 9172SOL    HW132327   4.343   2.961   5.868 -1.1683 -1.8251 -0.3201
 9172SOL    HW232328   4.272   2.894   5.984  0.7303 -0.5288  1.6554
 9173SOL     OW32329   0.803   6.717  10.974 -0.1045  0.4173  0.7223
 9173SOL    HW132330   0.750   6.642  10.946 -0.0599  0.1773  1.2808
 9173SOL    HW232331   0.741   6.790  10.976 -0.1525  0.3958  0.1952
 9174SOL     OW32332   7.763   7.072   1.658 -0.0446  0.4024 -0.0226
 9174SOL    HW132333   7.677   7.096   1.622 -0.6248 -0.1314  0.9473
 9174SOL    HW232334   7.769   6.977   1.643 -0.7308 -0.0196  2.0792
 9175SOL     OW32335  11.690  11.398   6.706  0.0099  0.2511 -0.3615
 9175SOL    HW132336  11.604  11.430   6.676  0.4911  2.3777  0.3502
 9175SOL    HW232337  11.704  11.443   6.789  1.5539 -0.5583 -0.1609
 9176SOL     OW32338   5.362   7.770   5.128 -0.5961  0.3758 -0.4235
 9176SOL    HW132339   5.357   7.808   5.216  0.1758 -1.3741  0.4314
 9176SOL    HW232340   5.455   7.753   5.115 -0.9791 -2.0865 -0.3272
 9177SOL     OW32341   7.111   1.594  11.867  0.3956 -0.5797 -0.7089
 9177SOL    HW132342   7.132   1.545  11.946  1.0413 -1.2628 -1.2918
 9177SOL    HW232343   7.196   1.610  11.826  0.2552  1.3186 -0.3865
 9178SOL     OW32344   6.886  12.570  12.379  0.1990 -0.0003  0.2562
 9178SOL    HW132345   6.929  12.489  12.353 -0.8270 -0.3831 -0.2964
 9178SOL    HW232346   6.802  12.569  12.333 -0.6189  0.4863  1.6689
 9179SOL     OW32347   5.874   8.393   5.695 -0.3908 -0.1305  0.0952
 9179SOL    HW132348   5.893   8.360   5.607  1.9415 -0.8751  0.8232
 9179SOL    HW232349   5.844   8.317   5.744  0.7226 -0.2700  0.5877
 9180SOL     OW32350   4.369  10.750   2.341 -0.2971 -0.4976 -0.9067
 9180SOL    HW132351   4.363  10.723   2.249  0.4015 -0.0365 -1.0897
 9180SOL    HW232352   4.457  10.786   2.350  0.4808 -2.5585  0.4792
 9181SOL     OW32353   4.118   9.158   4.725 -0.4429  0.4676  0.1708
 9181SOL    HW132354   4.092   9.078   4.679  1.2664  0.5123 -0.9517
 9181SOL    HW232355   4.149   9.127   4.810  0.6744 -0.1425 -0.4428
 9182SOL     OW32356   1.371   3.309  12.509 -0.0697  0.3722  0.3423
 9182SOL    HW132357   1.380   3.404  12.506  2.4997  0.1939 -2.1413
 9182SOL    HW232358   1.300   3.290  12.448 -1.0111  0.6695  1.3099
 9183SOL     OW32359   0.097   2.922   1.871  0.0678  0.0924 -0.1106
 9183SOL    HW132360   0.105   3.007   1.914 -1.3710 -0.0411  0.4639
 9183SOL    HW232361   0.187   2.890   1.864  0.4262  0.4697  2.0904
 9184SOL     OW32362   8.438   7.356   4.590 -0.4853 -0.4314  0.1444
 9184SOL    HW132363   8.504   7.298   4.551  1.5102  1.0927  1.0418
 9184SOL    HW232364   8.459   7.357   4.683 -0.6825  1.3763  0.2079
 9185SOL     OW32365   8.948   0.075   5.541 -0.8264 -0.0519 -0.2780
 9185SOL    HW132366   8.883   0.017   5.582  1.5881 -2.2403  0.6868
 9185SOL    HW232367   9.004   0.017   5.490  0.6862  1.6724 -0.6852
 9186SOL     OW32368  12.410   7.531   7.516  0.6027 -0.2712  0.0474
 9186SOL    HW132369  12.405   7.439   7.542 -3.6464 -0.1023  0.5384
 9186SOL    HW232370  12.411   7.529   7.420 -0.2118 -0.8635  0.0431
 9187SOL     OW32371   1.442  11.312   6.199  0.3817 -0.5332  0.4080
 9187SOL    HW132372   1.487  11.350   6.276 -0.6107 -0.9778  1.2290
 9187SOL    HW232373   1.370  11.262   6.236  1.1826 -2.6285 -0.6907
 9188SOL     OW32374   8.052  10.804   0.818  0.1368 -0.0079  0.4462
 9188SOL    HW132375   8.041  10.823   0.725  0.1722 -0.3444  0.3716
 9188SOL    HW232376   7.983  10.854   0.862 -0.0782 -0.0988  0.2118
 9189SOL     OW32377   8.479   1.039   1.860  0.1979  0.3625  0.3752
 9189SOL    HW132378   8.411   1.045   1.927 -1.8204 -0.2628 -1.4827
 9189SOL    HW232379   8.520   1.125   1.860 -1.2798  1.1133  0.9088
 9190SOL     OW32380  10.106   7.711  11.453  0.1093 -1.1186  0.2969
 9190SOL    HW132381  10.105   7.804  11.432  0.8896 -1.0138  0.6600
 9190SOL    HW232382  10.127   7.707  11.546  2.2959 -1.6753 -0.1496
 9191SOL     OW32383   5.790  10.793  12.128 -0.0845 -0.1054 -0.3180
 9191SOL    HW132384   5.768  10.715  12.077  1.0747 -0.0002 -1.0022
 9191SOL    HW232385   5.818  10.758  12.213 -1.2304 -0.3255 -0.0173
 9192SOL     OW32386   5.036   3.153   5.343  0.5697  0.6618 -0.3066
 9192SOL    HW132387   4.971   3.141   5.273 -0.5165  0.1099  0.7681
 9192SOL    HW232388   5.052   3.065   5.377 -1.7132  1.2300  2.5782
 9193SOL     OW32389   2.431   0.302  11.444  0.2814 -0.3297  0.3845
 9193SOL    HW132390   2.395   0.284  11.357  1.6425 -0.3118 -0.2059
 9193SOL    HW232391   2.524   0.315  11.429  0.3634  0.8119  1.7010
 9194SOL     OW32392   9.137   9.943   0.034 -0.0261  0.0333 -0.1991
 9194SOL    HW132393   9.232   9.931   0.024 -0.3556 -1.1523 -2.3115
 9194SOL    HW232394   9.129  10.017   0.094  2.2265  0.0477  0.1761
 9195SOL     OW32395   4.271  10.921   8.653 -0.2813 -0.1972 -0.1079
 9195SOL    HW132396   4.263  10.845   8.596  0.5401 -0.8207  0.5767
 9195SOL    HW232397   4.287  10.995   8.594 -2.4692 -0.2972 -0.8831
 9196SOL     OW32398  10.431   6.125   5.345 -0.0494  0.4905 -0.5005
 9196SOL    HW132399  10.446   6.199   5.404  0.1087 -0.6032  0.8737
 9196SOL    HW232400  10.336   6.127   5.329 -0.5444 -0.6519  1.8572
 9197SOL     OW32401   9.542   3.013  12.572 -0.3804  0.5828 -0.1407
 9197SOL    HW132402   9.624   3.007  12.525 -0.2513 -0.6348  0.2018
 9197SOL    HW232403   9.486   3.068  12.517 -0.0352 -0.3005 -1.4115
 9198SOL     OW32404   2.569   4.319   5.406  0.0257  0.6563 -0.5525
 9198SOL    HW132405   2.647   4.303   5.459  0.1472  1.5383 -0.4440
 9198SOL    HW232406   2.514   4.375   5.461  0.1247  1.5279 -1.3125
 9199SOL     OW32407   0.218   9.948   2.508  0.0343 -0.1145 -0.1248
 9199SOL    HW132408   0.282   9.881   2.530 -1.5435 -1.2649  1.2109
 9199SOL    HW232409   0.263  10.031   2.526  0.8446 -0.9083  1.7560
 9200SOL     OW32410   5.653   4.603   8.655 -0.3473  0.2243 -0.5072
 9200SOL    HW132411   5.745   4.607   8.678 -0.5180 -0.3884  0.3183
 9200SOL    HW232412   5.651   4.619   8.560  0.8924 -2.4354 -1.0893
 9201SOL     OW32413  10.932  11.358   2.852  0.4257  0.3283 -0.1590
 9201SOL    HW132414  10.863  11.414   2.816 -0.0574 -0.3067 -0.2480
 9201SOL    HW232415  10.984  11.331   2.776  1.5766  1.8456  0.0561
 9202SOL     OW32416   6.191   2.402   1.618 -0.0531 -0.3539 -0.3056
 9202SOL    HW132417   6.179   2.403   1.523 -0.3340  0.1667 -0.2723
 9202SOL    HW232418   6.279   2.437   1.632  0.3748 -1.3665 -0.4162
 9203SOL     OW32419  11.480   5.269   3.017  0.1418 -0.0127 -0.0087
 9203SOL    HW132420  11.492   5.181   2.979  0.4981 -0.3819  0.9314
 9203SOL    HW232421  11.546   5.323   2.973 -1.0491  0.1454 -1.6677
 9204SOL     OW32422  10.246   7.522  11.927 -0.1008  0.5835  0.3431
 9204SOL    HW132423  10.216   7.450  11.871  0.1529  0.6957  0.0613
 9204SOL    HW232424  10.215   7.498  12.014 -1.7210  1.0803 -0.0495
 9205SOL     OW32425   9.945   7.801   5.845  0.4725 -0.2563  0.1554
 9205SOL    HW132426   9.973   7.867   5.909 -1.7307  0.3324  0.5773
 9205SOL    HW232427   9.976   7.834   5.761 -0.7821  1.4839  0.3260
 9206SOL     OW32428   0.134   8.159   5.460  0.4759  0.4476  0.0605
 9206SOL    HW132429   0.172   8.224   5.401  0.9493 -0.0168 -0.1590
 9206SOL    HW232430   0.207   8.128   5.513  0.4089 -0.4176 -0.3251
 9207SOL     OW32431   0.167   8.954   3.863  0.2497 -0.5645 -0.2460
 9207SOL    HW132432   0.157   9.014   3.789  0.6117  0.8304  0.7787
 9207SOL    HW232433   0.111   8.880   3.841 -0.7325  0.4343 -1.2915
 9208SOL     OW32434  11.829   5.549  10.778 -0.4818 -0.4266  0.0280
 9208SOL    HW132435  11.751   5.591  10.743 -0.2070 -0.8562 -1.1752
 9208SOL    HW232436  11.896   5.562  10.710  0.8386  0.8834  1.4883
 9209SOL     OW32437  10.502   8.459   5.605  0.0785  0.0191  0.3838
 9209SOL    HW132438  10.544   8.380   5.639 -0.7067  0.4538  2.5350
 9209SOL    HW232439  10.416   8.429   5.574  0.9965 -0.4718 -1.8653
 9210SOL     OW32440  10.907   6.812   6.677  0.6486 -0.3916 -0.4324
 9210SOL    HW132441  10.969   6.759   6.626  2.8515  1.9524 -0.3773
 9210SOL    HW232442  10.953   6.830   6.759 -0.4597  0.7295 -0.0300
 9211SOL     OW32443   2.782   0.528  12.028  0.6027 -0.6283 -0.1388
 9211SOL    HW132444   2.763   0.582  11.951  1.4984 -0.3822 -0.1953
 9211SOL    HW232445   2.875   0.508  12.021  0.1786 -2.8069 -0.5186
 9212SOL     OW32446   6.737   6.568   8.867  0.0424 -0.0514  0.1059
 9212SOL    HW132447   6.648   6.587   8.897 -0.9852 -0.9899 -2.1206
 9212SOL    HW232448   6.771   6.505   8.931 -1.2655 -0.4066  0.4798
 9213SOL     OW32449   9.639   3.356   9.712 -0.1848  0.4175  0.2169
 9213SOL    HW132450   9.550   3.375   9.680 -0.1505  1.9011  0.8851
 9213SOL    HW232451   9.678   3.443   9.723  1.0622 -0.2001  0.7394
 9214SOL     OW32452   2.381   0.608   1.198  0.6287  0.2010 -0.0482
 9214SOL    HW132453   2.422   0.585   1.282  0.8698  0.6514 -0.0368
 9214SOL    HW232454   2.408   0.698   1.183  0.3245  0.2245 -0.4595
 9215SOL     OW32455  10.363   4.566   7.959 -0.2639 -0.4565  0.0865
 9215SOL    HW132456  10.365   4.574   8.055  0.5208  1.7249 -0.0453
 9215SOL    HW232457  10.292   4.624   7.932 -1.4616 -2.1858 -0.6304
 9216SOL     OW32458   0.040   3.123   4.397  0.1746  1.0821 -0.3421
 9216SOL    HW132459   0.122   3.098   4.440  0.6626  1.6405 -0.9288
 9216SOL    HW232460  -0.010   3.169   4.465  0.0364  0.1424  0.2181
 9217SOL     OW32461   9.427   3.936   9.240 -0.7694  0.3584 -0.1008
 9217SOL    HW132462   9.387   3.868   9.295 -0.3888  0.5057  0.3576
 9217SOL    HW232463   9.402   3.912   9.151  0.5829 -1.2340 -0.0982
 9218SOL     OW32464   7.707   4.435   3.842  0.0705  0.1306  0.0600
 9218SOL    HW132465   7.715   4.517   3.890 -0.9539 -0.3802  1.1703
 9218SOL    HW232466   7.757   4.449   3.762  0.7628  1.4687  0.6891
 9219SOL     OW32467   1.608   6.308   1.763  0.2119 -0.4793  0.5399
 9219SOL    HW132468   1.688   6.270   1.799 -1.1795 -2.1131  2.0586
 9219SOL    HW232469   1.537   6.256   1.801 -1.5681  0.5107 -1.2429
 9220SOL     OW32470   0.386   3.141   1.241  0.1517 -0.1576  0.4237
 9220SOL    HW132471   0.469   3.188   1.254  0.1354 -0.4863  1.9697
 9220SOL    HW232472   0.335   3.160   1.320 -0.7307 -1.0026  0.0801
 9221SOL     OW32473   0.882   3.770   9.562  0.2109 -0.1848  0.1750
 9221SOL    HW132474   0.905   3.855   9.600 -0.8835 -0.4230  1.4566
 9221SOL    HW232475   0.896   3.708   9.633 -2.5456 -0.5692  0.4934
 9222SOL     OW32476   0.811   0.314   6.839  0.0605  0.1723  0.0828
 9222SOL    HW132477   0.725   0.355   6.846 -0.3320 -0.8759  2.5647
 9222SOL    HW232478   0.866   0.362   6.901  0.7217 -0.3673 -0.0654
 9223SOL     OW32479   7.998   4.362  10.206 -0.2282  0.1411 -0.2671
 9223SOL    HW132480   8.089   4.343  10.228 -0.4620 -1.2622 -0.4361
 9223SOL    HW232481   7.958   4.387  10.289  0.3441  0.9314 -0.2221
 9224SOL     OW32482  10.190   7.226   2.065  0.7269  0.4180 -0.6772
 9224SOL    HW132483  10.237   7.259   1.988 -0.9201  2.7459 -0.7939
 9224SOL    HW232484  10.228   7.275   2.138 -0.8869  1.7638 -0.6810
 9225SOL     OW32485  12.534   0.533   5.157  0.3785 -0.3015  0.4586
 9225SOL    HW132486  12.601   0.598   5.135  0.4847 -0.6470 -0.2996
 9225SOL    HW232487  12.583   0.457   5.188  0.5144 -1.2646 -1.8978
 9226SOL     OW32488   6.771   1.467  11.160  0.0736  0.8481 -0.2131
 9226SOL    HW132489   6.702   1.404  11.183 -0.8362  1.9116  0.0940
 9226SOL    HW232490   6.774   1.527  11.235  2.2459  0.1232  0.3572
 9227SOL     OW32491   5.125   6.621   6.995 -0.0840  0.0585 -0.0074
 9227SOL    HW132492   5.114   6.716   6.997 -0.5515  0.1160 -2.3917
 9227SOL    HW232493   5.207   6.608   6.946 -0.5042 -0.7660 -0.5077
 9228SOL     OW32494   8.591   0.327   7.038  0.0861  0.2271  0.2354
 9228SOL    HW132495   8.560   0.242   7.009 -0.2520  1.0247 -1.9557
 9228SOL    HW232496   8.540   0.347   7.117 -2.9913  0.2429 -1.6418
 9229SOL     OW32497   5.876  10.073   7.936 -0.4911 -0.6565 -0.2570
 9229SOL    HW132498   5.890  10.084   8.030 -0.3409  2.5786 -0.5545
 9229SOL    HW232499   5.958  10.034   7.904  1.2656  2.1325  0.4604
 9230SOL     OW32500   1.331   6.004   8.409  0.1799 -0.2750 -0.2129
 9230SOL    HW132501   1.418   5.982   8.377  0.5144  1.3508 -0.5214
 9230SOL    HW232502   1.316   6.094   8.379 -0.3833  0.5535  2.3063
 9231SOL     OW32503  10.765   0.491   7.358 -0.4956  0.3451 -0.0460
 9231SOL    HW132504  10.686   0.542   7.338 -0.7365 -0.4972 -1.3618
 9231SOL    HW232505  10.764   0.482   7.453 -1.7883  0.6780 -0.0018
 9232SOL     OW32506   4.532  12.606  11.230  0.0570 -0.2545  0.2475
 9232SOL    HW132507   4.544  12.637  11.140 -0.1337  2.7929  1.1343
 9232SOL    HW232508   4.602  12.543  11.244  0.1240 -0.7448 -1.9954
 9233SOL     OW32509   1.258   1.439   9.114  0.3190  0.3611  0.2340
 9233SOL    HW132510   1.209   1.360   9.139  0.6612  0.5477  1.5391
 9233SOL    HW232511   1.344   1.406   9.088  0.5793  0.3177  1.1181
 9234SOL     OW32512   3.180  12.570   8.553  0.7992  0.0587  0.1477
 9234SOL    HW132513   3.183  12.611   8.640 -1.3336  0.3567  0.1273
 9234SOL    HW232514   3.136  12.634   8.498  0.1655 -1.0154 -0.6258
 9235SOL     OW32515   5.654   5.114   5.175  0.1331 -0.3721 -0.6584
 9235SOL    HW132516   5.710   5.042   5.146 -0.1095 -0.3887 -1.0954
 9235SOL    HW232517   5.685   5.134   5.263  2.2891  1.0543 -1.6458
 9236SOL     OW32518   2.375   3.297   3.084  0.0684  0.2563  0.1636
 9236SOL    HW132519   2.338   3.378   3.049 -0.4368 -0.0626 -0.0471
 9236SOL    HW232520   2.312   3.229   3.060 -0.1309 -0.0230  1.3927
 9237SOL     OW32521  10.565  10.093   3.192 -0.2860  0.2447  0.6885
 9237SOL    HW132522  10.547  10.017   3.248  0.0327 -1.2122 -1.0859
 9237SOL    HW232523  10.643  10.133   3.231  1.5199 -2.2672 -0.0832
 9238SOL     OW32524   8.511   2.531   4.949 -0.0468  0.2290 -0.6632
 9238SOL    HW132525   8.588   2.520   5.004 -0.9426 -1.0995  0.4059
 9238SOL    HW232526   8.498   2.625   4.943  1.7214  0.4813 -0.9996
 9239SOL     OW32527   4.632   2.164   2.112 -0.6639 -0.1343  0.2272
 9239SOL    HW132528   4.719   2.157   2.150 -0.8119  0.1130  0.6221
 9239SOL    HW232529   4.591   2.236   2.160 -0.5204  0.8438 -1.0733
 9240SOL     OW32530   0.241   7.880  10.949 -0.4537 -0.3117 -0.0835
 9240SOL    HW132531   0.211   7.838  11.029  0.8706 -1.3267 -0.0686
 9240SOL    HW232532   0.224   7.815  10.880  2.5332 -1.4426  0.0846
 9241SOL     OW32533   9.975  11.308   1.990  0.1076  0.1048  0.4107
 9241SOL    HW132534  10.053  11.255   1.976 -0.7217 -0.6928 -1.4897
 9241SOL    HW232535   9.938  11.321   1.903 -2.1893 -0.0468  1.2829
 9242SOL     OW32536  10.938   8.886   2.589 -0.4395  0.1316 -0.3667
 9242SOL    HW132537  11.033   8.870   2.596 -0.0394  1.8907 -1.1620
 9242SOL    HW232538  10.907   8.816   2.531  0.2462 -0.8156  0.3682
 9243SOL     OW32539   8.694   2.050   6.316 -0.7110  0.5268 -0.7061
 9243SOL    HW132540   8.709   1.955   6.321 -1.1971  0.4903  0.3133
 9243SOL    HW232541   8.743   2.085   6.391  1.3711  1.3614 -2.3722
 9244SOL     OW32542   3.607   5.147  12.271 -0.3733 -0.1924  0.0669
 9244SOL    HW132543   3.533   5.207  12.277  1.9701  3.1799 -1.4772
 9244SOL    HW232544   3.591   5.098  12.190 -0.7787  0.8296 -0.4951
 9245SOL     OW32545   4.643   4.756   5.788 -0.1076  0.2864 -0.2530
 9245SOL    HW132546   4.566   4.699   5.784  0.5224 -0.8526  2.1034
 9245SOL    HW232547   4.683   4.747   5.702 -1.9232 -0.0561 -1.1161
 9246SOL     OW32548   5.910   3.280   9.404  0.0116  0.2537  0.2207
 9246SOL    HW132549   5.867   3.353   9.448  0.3159  0.7260 -0.2610
 9246SOL    HW232550   5.972   3.321   9.343  0.0591 -0.3962 -0.1801
 9247SOL     OW32551  12.002   6.041  11.701  0.2402 -0.2551 -0.1426
 9247SOL    HW132552  12.079   5.984  11.698 -0.7599 -1.6036 -1.4882
 9247SOL    HW232553  11.932   5.987  11.736  0.0923  1.2996  2.2011
 9248SOL     OW32554   0.646  10.560  11.495  0.1523  0.1635 -0.0295
 9248SOL    HW132555   0.623  10.604  11.577  0.6464 -1.1159  0.8204
 9248SOL    HW232556   0.738  10.583  11.481 -0.3771  1.7648 -1.1577
 9249SOL     OW32557   9.965   8.283   0.599 -0.1826  0.6007 -0.0204
 9249SOL    HW132558   9.927   8.370   0.585 -1.2191 -0.1037 -1.8679
 9249SOL    HW232559  10.030   8.273   0.530 -0.6291 -0.3661 -0.3281
 9250SOL     OW32560  11.161   0.179  12.139 -0.1324 -0.2535 -0.0938
 9250SOL    HW132561  11.146   0.084  12.140 -0.0016 -0.2724  0.4623
 9250SOL    HW232562  11.256   0.188  12.137 -0.1169 -0.1282 -2.8197
 9251SOL     OW32563   4.795   4.721   6.951 -0.1929  0.7127  0.4108
 9251SOL    HW132564   4.862   4.701   6.886  0.0878 -0.0550  0.9194
 9251SOL    HW232565   4.731   4.773   6.904 -0.9562 -1.3866 -1.0271
 9252SOL     OW32566  10.637   5.370   0.537  0.0850  0.3840  0.3405
 9252SOL    HW132567  10.674   5.377   0.625  0.5720 -1.3264  0.3222
 9252SOL    HW232568  10.591   5.286   0.537  0.5433  0.0946 -1.1741
 9253SOL     OW32569   0.246   0.449   6.125 -0.4765  0.4977 -0.0683
 9253SOL    HW132570   0.201   0.467   6.043 -1.6435 -1.3781  0.1139
 9253SOL    HW232571   0.339   0.461   6.105 -0.6676 -0.7767 -1.9133
 9254SOL     OW32572   8.481   7.466   5.331 -0.0064  0.0070 -0.6297
 9254SOL    HW132573   8.458   7.374   5.346  2.4833 -0.4205  1.1321
 9254SOL    HW232574   8.495   7.472   5.237  0.1294 -1.5186 -0.7448
 9255SOL     OW32575   7.780   8.982  11.882 -0.1254  0.2288 -0.0398
 9255SOL    HW132576   7.814   9.061  11.840  1.9519 -0.3910  0.3844
 9255SOL    HW232577   7.831   8.910  11.844 -0.8179 -0.7449  0.8061
 9256SOL     OW32578   0.751   0.965   4.095 -0.4329  0.1007 -0.0399
 9256SOL    HW132579   0.700   0.893   4.059 -2.0286  1.2998 -0.3276
 9256SOL    HW232580   0.774   1.019   4.019 -1.4134  1.1696  0.3851
 9257SOL     OW32581   3.573   7.683   6.040 -0.0542 -0.0699 -0.6838
 9257SOL    HW132582   3.596   7.696   6.132  0.4080  0.5472 -0.8810
 9257SOL    HW232583   3.636   7.617   6.010 -0.3083 -0.3893 -0.5179
 9258SOL     OW32584   4.193   4.196   3.674 -0.2735  0.3719  0.1853
 9258SOL    HW132585   4.133   4.261   3.638 -0.9126  0.0644  0.6704
 9258SOL    HW232586   4.143   4.114   3.675  1.2296 -0.7055 -2.5272
 9259SOL     OW32587   1.842   5.628   1.234  0.6075  0.3435  0.0194
 9259SOL    HW132588   1.902   5.679   1.179  0.5115  0.0714 -0.3396
 9259SOL    HW232589   1.896   5.598   1.307  1.1656 -0.7379 -0.8126
 9260SOL     OW32590   9.112   1.329   6.226 -0.6085  0.2707  0.8298
 9260SOL    HW132591   9.068   1.254   6.267 -1.2322  1.0798  1.6801
 9260SOL    HW232592   9.084   1.326   6.135  1.5154 -2.0948  0.1407
 9261SOL     OW32593   2.193   3.232   0.324  0.3949 -0.2458  0.1526
 9261SOL    HW132594   2.264   3.296   0.325 -0.1036  0.3138 -0.0628
 9261SOL    HW232595   2.232   3.153   0.287  1.1457 -0.2302  0.8888
 9262SOL     OW32596   1.392   3.955   8.171 -0.6243 -0.0394 -0.1778
 9262SOL    HW132597   1.405   4.014   8.245 -0.2026  0.8527 -0.9417
 9262SOL    HW232598   1.334   3.886   8.204 -1.0786  0.7743  0.7460
 9263SOL     OW32599  12.390   2.868  11.887 -1.1095 -0.2706  0.3100
 9263SOL    HW132600  12.363   2.794  11.833 -0.7748 -0.4532  0.3898
 9263SOL    HW232601  12.474   2.896  11.849 -0.9044 -0.3609  0.6969
 9264SOL     OW32602   5.795   6.499   4.422  0.5073 -0.2805  0.2631
 9264SOL    HW132603   5.875   6.476   4.469 -0.2348 -0.3788  1.5352
 9264SOL    HW232604   5.784   6.431   4.356 -0.2191 -2.1425  2.1925
 9265SOL     OW32605   4.215   6.959   2.947 -0.3655  0.6091 -0.0306
 9265SOL    HW132606   4.127   6.956   2.984 -0.6285 -2.1295 -0.7225
 9265SOL    HW232607   4.271   6.917   3.013  0.3495  1.7477  0.1209
 9266SOL     OW32608   8.158  12.478   8.836 -0.0024 -0.4371  0.4574
 9266SOL    HW132609   8.144  12.474   8.741 -1.9611 -0.1077  0.6956
 9266SOL    HW232610   8.186  12.568   8.853 -1.4941  0.0815  0.3606
 9267SOL     OW32611  11.504   2.816  11.882 -0.2971  0.5386 -0.2433
 9267SOL    HW132612  11.539   2.797  11.969 -0.1803  0.3338 -0.3338
 9267SOL    HW232613  11.433   2.878  11.897 -0.6642  0.0478  0.0521
 9268SOL     OW32614   4.400   3.554   1.426  0.2927 -0.6959 -0.4051
 9268SOL    HW132615   4.376   3.519   1.512  0.5239  2.4114  1.0327
 9268SOL    HW232616   4.481   3.508   1.403 -0.2892 -2.2667  0.5481
 9269SOL     OW32617   1.841   0.979   5.635  0.0938  0.0272  0.4270
 9269SOL    HW132618   1.801   1.013   5.555  0.5462 -1.9128 -0.6850
 9269SOL    HW232619   1.817   0.887   5.637  0.2457 -0.0125  2.4684
 9270SOL     OW32620   8.720  12.221   4.783 -0.6206 -0.1225  0.1841
 9270SOL    HW132621   8.791  12.184   4.836  0.9867  2.2119 -0.2059
 9270SOL    HW232622   8.660  12.260   4.846 -0.0295  0.4350  0.4099
 9271SOL     OW32623   7.387   8.535   1.355  0.1457 -0.6518 -0.4859
 9271SOL    HW132624   7.473   8.495   1.367 -0.4237 -1.3913  1.4565
 9271SOL    HW232625   7.356   8.552   1.444 -1.5929 -0.1204 -1.1573
 9272SOL     OW32626  11.933   7.883   5.952  0.1215 -0.1664  0.2104
 9272SOL    HW132627  11.980   7.877   5.868 -0.2067 -1.7474  0.1129
 9272SOL    HW232628  11.905   7.793   5.970 -0.5575  0.3040  1.5998
 9273SOL     OW32629   1.616   6.991   6.736  0.1724  0.4502 -0.2725
 9273SOL    HW132630   1.709   6.988   6.713  0.5258  1.5486  0.9295
 9273SOL    HW232631   1.615   6.990   6.831 -1.1630 -1.5734 -0.2484
 9274SOL     OW32632   6.230   6.634   1.505  0.4207  0.1113 -0.0135
 9274SOL    HW132633   6.220   6.715   1.554  0.6065  2.1088 -3.0144
 9274SOL    HW232634   6.263   6.571   1.569  0.3378  2.3776  2.4339
 9275SOL     OW32635   9.022   9.719   8.261 -0.9934  0.3156  0.0337
 9275SOL    HW132636   9.024   9.811   8.285 -0.1974  0.6253 -1.1245
 9275SOL    HW232637   8.929   9.695   8.263 -1.3776  1.5844 -1.1770
 9276SOL     OW32638   3.520  10.185   1.082 -0.3309  0.5096  0.2953
 9276SOL    HW132639   3.468  10.123   1.134 -1.6706  2.4042  1.3474
 9276SOL    HW232640   3.585  10.219   1.144 -0.1528  0.7672 -0.0314
 9277SOL     OW32641  10.915  12.406   9.073 -0.3304  0.3929 -0.2097
 9277SOL    HW132642  10.950  12.381   8.987  0.3587 -1.3126  0.5267
 9277SOL    HW232643  10.829  12.365   9.077 -0.9760  1.6549 -0.6175
 9278SOL     OW32644   4.308  12.147   9.014 -0.7688 -0.3588  0.0861
 9278SOL    HW132645   4.300  12.052   9.005  1.8221 -0.6091 -0.1385
 9278SOL    HW232646   4.272  12.166   9.101 -1.5028 -1.5039  0.0524
 9279SOL     OW32647   9.671   4.830   7.948  0.1450 -0.7011 -0.7842
 9279SOL    HW132648   9.662   4.871   8.034  0.8567  0.7605 -1.3706
 9279SOL    HW232649   9.631   4.892   7.887 -0.7136 -1.9095 -1.4778
 9280SOL     OW32650  11.128   9.611   7.146  0.0256  0.1195 -0.2542
 9280SOL    HW132651  11.050   9.572   7.186 -0.4719  0.2778 -1.0528
 9280SOL    HW232652  11.102   9.700   7.124  0.7434  0.4896  0.3472
 9281SOL     OW32653   6.727   4.475   4.539  0.2427  0.4445 -0.5587
 9281SOL    HW132654   6.670   4.398   4.545 -0.1540  0.7256 -0.6868
 9281SOL    HW232655   6.753   4.493   4.629  0.8295 -0.2097 -0.5969
 9282SOL     OW32656   8.402   9.045   9.196 -0.1148 -0.8236  0.1534
 9282SOL    HW132657   8.467   9.079   9.135 -0.8052  0.3398  0.0399
 9282SOL    HW232658   8.400   9.109   9.267 -2.2939  0.0415 -0.6300
 9283SOL     OW32659   5.936   4.949   2.936 -0.1291 -0.2326  0.1596
 9283SOL    HW132660   5.897   5.029   2.972  0.5682  0.6521 -0.9869
 9283SOL    HW232661   5.864   4.886   2.936 -0.7146  0.4054  1.0158
 9284SOL     OW32662  10.937   3.701  11.951 -0.0454 -0.2967 -0.6821
 9284SOL    HW132663  10.991   3.622  11.952  0.2611 -0.0960 -1.0977
 9284SOL    HW232664  10.935   3.731  12.042  0.9728 -0.0160 -0.7366
 9285SOL     OW32665  11.988   3.982  11.694  0.0536 -0.2359 -0.2499
 9285SOL    HW132666  11.981   3.992  11.789 -0.1684 -0.6012 -0.2237
 9285SOL    HW232667  11.982   3.887  11.680 -0.7039 -0.1338 -0.6925
 9286SOL     OW32668  10.127   2.997   8.591  0.4408  0.3318  0.1833
 9286SOL    HW132669  10.175   3.080   8.598 -2.0522  1.8482  0.7194
 9286SOL    HW232670  10.147   2.965   8.503  1.7791  1.2850  0.1087
 9287SOL     OW32671   0.599  11.725   0.161 -0.2160 -0.7119  0.0073
 9287SOL    HW132672   0.533  11.755   0.099 -0.6299 -1.5812  0.0174
 9287SOL    HW232673   0.634  11.805   0.199 -0.4128 -0.1936 -0.8780
 9288SOL     OW32674   6.757  11.667   5.816  0.2000  0.4064 -0.4891
 9288SOL    HW132675   6.741  11.576   5.790  0.2737  0.1742  0.2451
 9288SOL    HW232676   6.840  11.690   5.773  0.4774 -0.0700 -0.2286
 9289SOL     OW32677   3.457   8.385  10.824 -0.2655 -0.1133  0.6051
 9289SOL    HW132678   3.411   8.469  10.826  0.6958  0.4173  1.5095
 9289SOL    HW232679   3.508   8.384  10.905  2.3655 -0.0417 -0.9223
 9290SOL     OW32680  10.690   2.523   0.800 -0.1982 -0.1087  0.0841
 9290SOL    HW132681  10.776   2.544   0.763  0.0892  0.3385  0.9837
 9290SOL    HW232682  10.688   2.568   0.884 -0.5648 -1.6831  0.9497
 9291SOL     OW32683   3.504   4.448   0.849  0.0409 -0.1150  0.3232
 9291SOL    HW132684   3.431   4.397   0.881  1.8500 -2.3686  1.1592
 9291SOL    HW232685   3.544   4.486   0.927 -0.3621  1.3353 -0.1461
 9292SOL     OW32686   8.189   8.021   4.116 -0.0102 -0.5212  0.0119
 9292SOL    HW132687   8.125   8.033   4.046 -0.7832  3.3784  1.1204
 9292SOL    HW232688   8.139   7.980   4.187 -0.8458  0.6820  0.1623
 9293SOL     OW32689   7.133   4.357   3.896 -0.0956 -0.0920  0.1182
 9293SOL    HW132690   7.099   4.409   3.970  0.0313 -0.3100  0.3320
 9293SOL    HW232691   7.224   4.340   3.920  0.1550  0.4547 -0.4301
 9294SOL     OW32692   4.579  11.535   0.947  0.6699 -0.3966 -0.8245
 9294SOL    HW132693   4.655  11.536   0.889  0.6799  0.6557 -0.7977
 9294SOL    HW232694   4.582  11.618   0.994  0.8820 -1.3653  0.9847
 9295SOL     OW32695   3.320  10.328  11.880 -0.8703 -0.2246 -0.0558
 9295SOL    HW132696   3.358  10.300  11.797 -0.1561 -1.3767  0.6420
 9295SOL    HW232697   3.313  10.424  11.872 -0.3251 -0.2702 -1.2297
 9296SOL     OW32698   7.649   2.062  12.362 -0.3509 -0.0272 -0.3033
 9296SOL    HW132699   7.653   2.072  12.457 -0.1525  2.0068 -0.4933
 9296SOL    HW232700   7.727   2.106  12.329 -1.5308  1.2595 -1.5104
 9297SOL     OW32701  10.083   3.534   8.933  0.1677 -0.6209 -0.3526
 9297SOL    HW132702  10.115   3.529   8.843 -2.0680 -1.0746 -1.1822
 9297SOL    HW232703  10.139   3.600   8.974 -0.1134  1.2412 -2.7096
 9298SOL     OW32704   5.808   9.084   2.630  0.0695 -0.1343  0.8722
 9298SOL    HW132705   5.787   9.057   2.541  3.8161 -2.5181  0.4928
 9298SOL    HW232706   5.823   9.178   2.624 -2.8716  0.3664 -0.1909
 9299SOL     OW32707   4.562   7.166   6.503 -0.8376  0.2017 -0.4129
 9299SOL    HW132708   4.543   7.256   6.475 -0.4327  0.1312 -0.9289
 9299SOL    HW232709   4.488   7.115   6.470 -1.7812  0.5513  1.0880
 9300SOL     OW32710   1.170   6.896  10.727  0.2373  0.5436 -0.0133
 9300SOL    HW132711   1.251   6.851  10.750  0.7813  1.1686 -0.6665
 9300SOL    HW232712   1.153   6.871  10.636  0.0162  0.8731 -0.0642
 9301SOL     OW32713   6.854   1.759   7.471 -0.5905  0.1594 -0.5311
 9301SOL    HW132714   6.932   1.710   7.446 -1.0927 -1.2797  0.5691
 9301SOL    HW232715   6.781   1.708   7.436 -1.0799  1.3790 -1.3704
 9302SOL     OW32716  11.120   7.771   8.930  0.4302 -0.9398 -0.3662
 9302SOL    HW132717  11.066   7.754   9.007 -2.0011 -0.6877 -1.8953
 9302SOL    HW232718  11.210   7.758   8.960 -0.4790 -2.0075  2.1791
 9303SOL     OW32719   7.907   1.959   4.984 -0.2836 -0.5476  0.2125
 9303SOL    HW132720   7.888   1.866   4.973  0.8966 -1.0661  2.0863
 9303SOL    HW232721   7.860   1.984   5.064  0.1224  0.2473  0.2186
 9304SOL     OW32722  10.924   2.097   9.155 -0.5767 -0.3124  0.2264
 9304SOL    HW132723  10.955   2.030   9.094 -1.3740  0.2510 -0.8420
 9304SOL    HW232724  10.878   2.049   9.223 -0.9490 -0.8701 -0.4103
 9305SOL     OW32725  11.800   9.287   4.772 -0.5373 -0.3893  0.1015
 9305SOL    HW132726  11.830   9.266   4.860 -1.8066 -1.1741  0.3795
 9305SOL    HW232727  11.706   9.266   4.773 -0.1289 -3.0461 -2.1813
 9306SOL     OW32728   2.282   1.509   1.295 -0.2926  0.3524  0.2774
 9306SOL    HW132729   2.346   1.563   1.340  0.8657 -0.2796 -0.5516
 9306SOL    HW232730   2.334   1.444   1.248 -1.2798  1.7238 -3.0013
 9307SOL     OW32731   7.246  11.513  11.208 -0.1669  0.4205  0.0475
 9307SOL    HW132732   7.211  11.532  11.121 -1.9043 -0.3683  0.5415
 9307SOL    HW232733   7.293  11.430  11.198 -2.2294 -0.8392  0.2730
 9308SOL     OW32734   4.960   3.878  10.183  0.5332  0.1030 -0.7671
 9308SOL    HW132735   4.874   3.838  10.188  1.5854 -2.5456 -2.1505
 9308SOL    HW232736   4.998   3.865  10.270  0.3927 -0.8933 -0.8432
 9309SOL     OW32737   1.494   7.055   3.509  0.2947  0.0170  0.2141
 9309SOL    HW132738   1.444   7.059   3.427  2.5284 -1.8963 -1.4155
 9309SOL    HW232739   1.432   7.081   3.577 -1.8684  1.0614 -1.9876
 9310SOL     OW32740  11.442   4.449   0.290  0.2039 -0.2228  0.3108
 9310SOL    HW132741  11.485   4.387   0.231 -1.4043 -0.0235 -1.1649
 9310SOL    HW232742  11.363   4.476   0.243 -1.4348 -0.3975  2.7489
 9311SOL     OW32743   1.695   1.235   8.134 -0.5849 -0.4066  0.3790
 9311SOL    HW132744   1.672   1.327   8.145  0.9655  0.1420 -0.5661
 9311SOL    HW232745   1.657   1.191   8.210 -3.8513  0.4784 -0.5815
 9312SOL     OW32746   2.528   2.926   3.535 -0.5403 -0.0561  0.3940
 9312SOL    HW132747   2.480   2.982   3.596 -1.0420 -1.3570  1.2467
 9312SOL    HW232748   2.472   2.849   3.524  0.4092 -0.6787 -0.2331
 9313SOL     OW32749   1.036   0.050   9.295  0.1847  0.2300  0.2090
 9313SOL    HW132750   1.049   0.027   9.387  2.0675 -2.4601 -0.5932
 9313SOL    HW232751   1.109   0.108   9.274  0.0025  0.4929  0.2988
 9314SOL     OW32752  10.327   9.396   5.126  0.1289  0.3557 -0.1676
 9314SOL    HW132753  10.365   9.328   5.182  0.1736  1.3764  1.0752
 9314SOL    HW232754  10.334   9.360   5.037  1.9599 -0.4299  0.2543
 9315SOL     OW32755   8.278  10.489   5.043  0.4712  0.8455 -0.6827
 9315SOL    HW132756   8.310  10.578   5.057  0.7688  0.5746  0.4486
 9315SOL    HW232757   8.211  10.477   5.110  0.0913  0.3748 -1.1345
 9316SOL     OW32758   4.311   3.375  12.096 -0.7221 -0.0016 -0.5702
 9316SOL    HW132759   4.303   3.428  12.175 -0.0652  0.0885 -0.5586
 9316SOL    HW232760   4.395   3.330  12.106 -0.1838  0.7337 -1.6494
 9317SOL     OW32761   6.176   1.234   5.806 -0.6676 -0.4366 -0.7284
 9317SOL    HW132762   6.219   1.194   5.731 -1.0196 -1.0998 -0.5861
 9317SOL    HW232763   6.194   1.175   5.879  0.8130  0.8900  0.0324
 9318SOL     OW32764   7.889   0.413   6.617  0.6547 -0.4193 -0.1198
 9318SOL    HW132765   7.796   0.396   6.601  0.4452  0.0565  0.5607
 9318SOL    HW232766   7.896   0.423   6.711  1.6312 -1.7014 -0.0381
 9319SOL     OW32767   6.253   6.680  10.731 -0.2970  0.9063 -0.4786
 9319SOL    HW132768   6.329   6.624  10.716 -0.3133  0.8575 -0.3806
 9319SOL    HW232769   6.206   6.680  10.648 -0.7636  0.0741 -0.2259
 9320SOL     OW32770   2.961   7.313  11.144  0.6085  0.0639 -0.2597
 9320SOL    HW132771   2.866   7.321  11.134  0.6756  0.9662 -0.2658
 9320SOL    HW232772   2.997   7.370  11.076  1.1056  3.0844  2.3059
 9321SOL     OW32773   2.619   6.427  10.769  0.0263 -0.8072  0.1166
 9321SOL    HW132774   2.629   6.332  10.775 -0.6787 -0.9343 -0.5322
 9321SOL    HW232775   2.557   6.449  10.839 -0.6335 -0.9778 -0.4020
 9322SOL     OW32776  11.534   0.383   1.512  0.6641  0.3830 -0.1769
 9322SOL    HW132777  11.564   0.315   1.452  0.6045  0.4382 -0.2705
 9322SOL    HW232778  11.506   0.454   1.455  2.2705  1.1620 -0.0529
 9323SOL     OW32779   4.690   0.875   8.978  0.4505  0.1985  0.6333
 9323SOL    HW132780   4.744   0.873   9.057  0.3607  0.0435  0.6899
 9323SOL    HW232781   4.718   0.798   8.928 -0.1306 -0.2248  0.9384
 9324SOL     OW32782   9.621   0.452  11.486 -0.2669 -0.0973 -0.2063
 9324SOL    HW132783   9.662   0.464  11.572 -1.0452 -1.0216  0.3088
 9324SOL    HW232784   9.676   0.386  11.443 -0.4386 -0.3588 -0.0291
 9325SOL     OW32785   4.910   7.492   3.191  0.1200  0.4543 -0.4862
 9325SOL    HW132786   4.857   7.467   3.115  0.3132  0.1231 -0.5126
 9325SOL    HW232787   4.875   7.577   3.216 -0.1431  0.4350 -0.7664
 9326SOL     OW32788   0.334   7.092   8.300 -0.2778 -0.8665 -0.2159
 9326SOL    HW132789   0.318   7.146   8.377  0.2438 -2.2421  0.9101
 9326SOL    HW232790   0.253   7.042   8.289  0.2622 -1.9596  0.5604
 9327SOL     OW32791   1.001   1.083   7.694 -0.1592 -0.0452 -0.1830
 9327SOL    HW132792   0.940   1.117   7.629 -0.2933 -0.8045 -0.4594
 9327SOL    HW232793   0.945   1.053   7.766 -0.0158  0.7380  0.2748
 9328SOL     OW32794   8.785  11.003  10.835 -0.2385 -0.3896  0.4243
 9328SOL    HW132795   8.866  11.044  10.865 -0.5405  0.9256 -0.5038
 9328SOL    HW232796   8.738  10.982  10.916 -0.5465  2.1028  0.9561
 9329SOL     OW32797   5.994   1.700   3.802  0.2057  0.1705  0.5451
 9329SOL    HW132798   5.957   1.721   3.717  0.8467  1.4681  0.5611
 9329SOL    HW232799   6.019   1.608   3.795  0.5194  0.3363 -0.7753
 9330SOL     OW32800   2.849   1.320   5.587  0.4513 -0.1869  0.0587
 9330SOL    HW132801   2.891   1.367   5.515 -0.6601  0.5992 -0.1031
 9330SOL    HW232802   2.920   1.296   5.645  1.0952  1.4816  0.0123
 9331SOL     OW32803   5.394   5.395   4.140 -0.0688  0.6728  0.2619
 9331SOL    HW132804   5.380   5.459   4.071  0.2985  2.4538  1.7599
 9331SOL    HW232805   5.308   5.382   4.179 -0.1235  0.3102  0.0296
 9332SOL     OW32806   4.927   8.584   9.422 -0.1395  0.4005 -0.1027
 9332SOL    HW132807   4.982   8.584   9.344  1.0728  0.6610  0.7332
 9332SOL    HW232808   4.946   8.501   9.465  0.3700  0.9282  0.7090
 9333SOL     OW32809   5.140   6.739  10.036  0.3478  0.2085 -0.1182
 9333SOL    HW132810   5.196   6.684  10.092 -1.3318 -0.7243  0.7293
 9333SOL    HW232811   5.125   6.686   9.958  0.8110  0.5462 -0.4392
 9334SOL     OW32812   3.767   1.370   3.511  0.7340 -0.4041 -0.3665
 9334SOL    HW132813   3.766   1.441   3.446 -1.5428 -0.5621 -0.6000
 9334SOL    HW232814   3.701   1.396   3.575  0.3622 -1.9732 -0.0850
 9335SOL     OW32815   1.420   5.019   9.811 -0.1390  0.5487  0.3814
 9335SOL    HW132816   1.368   5.092   9.777 -0.1097  0.6912  0.6422
 9335SOL    HW232817   1.496   5.060   9.852 -0.1095  0.3697  0.5059
 9336SOL     OW32818   5.440   7.810   8.689 -0.6406 -0.2456 -0.6756
 9336SOL    HW132819   5.397   7.728   8.664  0.0655 -0.7709 -0.2063
 9336SOL    HW232820   5.471   7.795   8.778  0.0794  0.2916 -0.8200
 9337SOL     OW32821  12.079   5.447   2.092  0.1995 -0.4905 -0.1250
 9337SOL    HW132822  12.113   5.435   2.181 -0.0284 -0.9097 -0.0913
 9337SOL    HW232823  11.990   5.413   2.095  0.2066 -0.5555 -0.5251
 9338SOL     OW32824  12.341   1.036  12.343  0.6142  0.2874  0.8277
 9338SOL    HW132825  12.306   0.948  12.358  1.9129 -0.5027 -0.4856
 9338SOL    HW232826  12.408   1.048  12.410  2.9390 -1.2346 -1.0579
 9339SOL     OW32827   2.152   2.886   0.652 -0.3508 -0.0609  0.3117
 9339SOL    HW132828   2.149   2.807   0.598  0.0031 -1.1338  1.7896
 9339SOL    HW232829   2.232   2.931   0.625  1.3603 -2.0295  1.7987
 9340SOL     OW32830   8.768   0.373   0.991 -0.7863 -0.1871 -0.1334
 9340SOL    HW132831   8.792   0.438   0.925 -0.1785 -1.6817 -1.4628
 9340SOL    HW232832   8.706   0.315   0.946  0.5925 -1.9745  0.1770
 9341SOL     OW32833   3.525   2.971   3.512 -0.4178  0.2787 -0.2433
 9341SOL    HW132834   3.482   2.985   3.427 -2.3806  0.6603  0.7646
 9341SOL    HW232835   3.564   3.056   3.533 -0.2882  0.3006 -0.5663
 9342SOL     OW32836   6.855  11.409  11.857 -0.3347 -0.4818 -0.1710
 9342SOL    HW132837   6.902  11.348  11.800  2.2781  0.9800  0.2573
 9342SOL    HW232838   6.924  11.457  11.904 -2.2989  1.2387  1.1741
 9343SOL     OW32839   7.312   0.098   7.634 -0.3407 -0.3897  0.4482
 9343SOL    HW132840   7.267   0.179   7.659 -0.6436 -0.5336  0.3669
 9343SOL    HW232841   7.381   0.089   7.700  0.3275  0.4588 -0.1141
 9344SOL     OW32842   3.491   4.002   8.495  0.3926 -0.6868 -0.1233
 9344SOL    HW132843   3.472   4.011   8.588 -1.2830  1.1129 -0.5671
 9344SOL    HW232844   3.509   3.908   8.483 -2.5616 -1.5891  1.4949
 9345SOL     OW32845   7.211   5.146  10.867  0.1050 -0.5392 -0.1973
 9345SOL    HW132846   7.276   5.204  10.909  1.1580 -1.5407 -0.4023
 9345SOL    HW232847   7.128   5.192  10.878  0.6658  0.2265  1.1232
 9346SOL     OW32848   3.966   9.000   7.390  0.3917  0.0320 -0.4145
 9346SOL    HW132849   3.968   8.959   7.476  0.3940 -2.2477 -1.4406
 9346SOL    HW232850   3.938   9.090   7.407 -1.3830 -0.8557  1.7761
 9347SOL     OW32851   3.614   0.889  11.085 -0.1077  0.5353 -0.0231
 9347SOL    HW132852   3.707   0.870  11.071 -0.3762 -1.2166  0.2754
 9347SOL    HW232853   3.590   0.946  11.012  0.7670 -0.5267 -1.1859
 9348SOL     OW32854   5.154   6.392  11.221 -0.3758 -0.0446 -0.0551
 9348SOL    HW132855   5.068   6.432  11.234  0.4984  0.8554  4.8213
 9348SOL    HW232856   5.135   6.299  11.207 -2.2917 -0.2935  3.1109
 9349SOL     OW32857   1.303  12.367  10.137  0.3993 -0.0419  0.2389
 9349SOL    HW132858   1.380  12.327  10.097  1.1929  0.1685  1.5115
 9349SOL    HW232859   1.336  12.409  10.216 -1.0686 -0.1508  0.9318
 9350SOL     OW32860   0.917   2.227  12.144 -0.0767 -0.3947  0.5774
 9350SOL    HW132861   0.878   2.293  12.086  1.9019  2.4985  2.3165
 9350SOL    HW232862   0.957   2.164  12.084 -1.2553  0.4302 -1.1735
 9351SOL     OW32863   4.917   8.223   7.813 -0.5386  0.1961 -0.2144
 9351SOL    HW132864   4.929   8.258   7.901  2.3100  0.7080 -0.7010
 9351SOL    HW232865   4.971   8.144   7.811 -1.5359 -0.4829 -1.1555
 9352SOL     OW32866   6.801   2.143   8.123  0.1325  0.1064  0.3843
 9352SOL    HW132867   6.851   2.141   8.205  1.2820 -1.6603 -0.3184
 9352SOL    HW232868   6.803   2.053   8.091 -3.5366 -0.0876  0.2792
 9353SOL     OW32869   3.096   0.335   1.487 -0.2823 -0.1870  0.5388
 9353SOL    HW132870   3.179   0.287   1.483 -1.0579 -1.5592  0.1860
 9353SOL    HW232871   3.042   0.295   1.419 -0.8817  1.3937  0.0549
 9354SOL     OW32872   5.055   0.096   9.614  0.1183 -0.2897 -0.1283
 9354SOL    HW132873   5.068   0.022   9.673 -1.8108  0.9013  1.9529
 9354SOL    HW232874   5.139   0.142   9.613  0.2264 -0.3873  1.6923
 9355SOL     OW32875   4.653   7.637   2.328 -0.0995  0.2422  0.2718
 9355SOL    HW132876   4.685   7.609   2.414 -1.8727  0.7554  1.1372
 9355SOL    HW232877   4.714   7.706   2.301 -1.2899  2.4101  2.6501
 9356SOL     OW32878   9.063   5.934   4.133  0.0154 -0.4418  0.1618
 9356SOL    HW132879   9.052   6.028   4.149 -0.7641 -0.6006  0.6177
 9356SOL    HW232880   8.987   5.909   4.082  0.1426 -0.8597  0.1750
 9357SOL     OW32881   2.871   4.410   1.571  0.2573 -0.1387  0.0498
 9357SOL    HW132882   2.839   4.343   1.632  0.0279  0.3222  0.4481
 9357SOL    HW232883   2.796   4.469   1.560  0.1361 -0.4806 -1.0652
 9358SOL     OW32884   8.619  11.086   6.122 -0.3016 -0.5055 -0.4270
 9358SOL    HW132885   8.583  11.146   6.057 -0.7886 -2.0416 -1.6374
 9358SOL    HW232886   8.576  11.112   6.204 -1.5626 -0.0862 -1.1835
 9359SOL     OW32887   4.275  11.463   8.052  0.3076 -0.1713 -0.3433
 9359SOL    HW132888   4.180  11.466   8.067  0.5985  1.0127  1.6018
 9359SOL    HW232889   4.295  11.546   8.010  0.6773  0.3630  0.8389
 9360SOL     OW32890  10.285   5.763   1.022  0.0444 -0.3061 -0.0667
 9360SOL    HW132891  10.300   5.851   1.059 -1.1264 -0.1504  0.0732
 9360SOL    HW232892  10.225   5.721   1.084  1.1701 -1.4970  0.2582
 9361SOL     OW32893   3.762   2.308   9.376  0.4657  0.0801  0.1443
 9361SOL    HW132894   3.720   2.387   9.342  1.0097 -0.0359 -0.8545
 9361SOL    HW232895   3.706   2.278   9.447 -0.8242  0.2499 -0.7778
 9362SOL     OW32896   4.517   0.639   4.477 -0.5161 -0.1866 -0.0803
 9362SOL    HW132897   4.429   0.600   4.471 -0.2918 -0.8109  0.4999
 9362SOL    HW232898   4.552   0.605   4.560  0.1209  0.3781 -0.1116
 9363SOL     OW32899  10.413   0.991   8.790  0.1976 -0.3241  0.0215
 9363SOL    HW132900  10.464   0.983   8.709 -0.8282  0.5814 -0.7461
 9363SOL    HW232901  10.403   1.086   8.803  0.7197 -0.4367  1.4693
 9364SOL     OW32902  10.903   0.165   3.697  0.0314  0.0869 -0.2624
 9364SOL    HW132903  10.922   0.249   3.655 -0.2702 -0.1259 -0.8347
 9364SOL    HW232904  10.864   0.189   3.781  0.1512  0.5174 -0.3255
 9365SOL     OW32905   8.073   7.155   8.916  0.1766 -0.2437  0.3112
 9365SOL    HW132906   7.979   7.157   8.897  0.3287 -1.1392 -0.6084
 9365SOL    HW232907   8.110   7.222   8.858  0.2212 -0.5673 -0.0355
 9366SOL     OW32908   9.378   5.025   5.522 -0.2754  0.0951  0.3397
 9366SOL    HW132909   9.411   5.106   5.561  1.8617 -0.2211 -0.6578
 9366SOL    HW232910   9.456   4.982   5.487 -1.4847 -1.9497  0.0092
 9367SOL     OW32911   5.858   1.963  11.331  0.1584 -0.0932 -0.0889
 9367SOL    HW132912   5.774   1.917  11.338 -0.3846  0.5297 -2.1099
 9367SOL    HW232913   5.839   2.052  11.360 -0.1487  0.3293 -1.5560
 9368SOL     OW32914   8.289   7.816   8.720 -0.1541 -0.7926  0.0391
 9368SOL    HW132915   8.364   7.767   8.688  0.9499  1.0522 -0.3587
 9368SOL    HW232916   8.264   7.773   8.802  2.7942 -0.1421  1.4040
 9369SOL     OW32917   3.046  12.642   7.613 -0.1575 -0.3940  0.6616
 9369SOL    HW132918   2.988  12.667   7.685 -1.4653  0.5800 -0.6939
 9369SOL    HW232919   3.049  12.718   7.556  1.1576 -1.0206 -0.1623
 9370SOL     OW32920   0.679   1.643  10.170  0.4372 -0.2983  0.5863
 9370SOL    HW132921   0.763   1.654  10.127 -0.5304  1.4688 -1.0281
 9370SOL    HW232922   0.641   1.566  10.128  0.7982 -0.4362  0.5107
 9371SOL     OW32923  11.020   2.983   4.664  0.7080 -0.2832  0.2955
 9371SOL    HW132924  11.086   3.002   4.731  0.7319 -0.4818  0.3301
 9371SOL    HW232925  10.981   3.068   4.643  0.5358 -0.2495  0.7353
 9372SOL     OW32926   4.685   3.836   7.066 -0.4944  0.4097 -0.1126
 9372SOL    HW132927   4.777   3.846   7.040 -1.4336  1.7077 -3.3645
 9372SOL    HW232928   4.663   3.918   7.111 -0.0813  0.0630  0.7451
 9373SOL     OW32929   9.007   2.814   1.848 -0.0384  0.0345  0.3439
 9373SOL    HW132930   9.062   2.848   1.778  1.5120 -1.4300  0.7807
 9373SOL    HW232931   8.920   2.850   1.831  0.7772  1.4046 -1.0921
 9374SOL     OW32932   6.861   2.028   9.911 -0.0826 -0.2330  0.3528
 9374SOL    HW132933   6.807   2.063   9.982  1.3940 -1.6209  2.2540
 9374SOL    HW232934   6.797   1.994   9.847 -1.4971 -0.8965  2.0406
 9375SOL     OW32935   8.779  12.544   9.272 -0.1046 -0.3483  0.1097
 9375SOL    HW132936   8.753  12.632   9.297  2.4849  1.2964 -2.4039
 9375SOL    HW232937   8.700  12.505   9.235 -0.6732  2.0595 -1.4523
 9376SOL     OW32938   5.735   9.714  11.724  0.5398  0.5887 -0.3440
 9376SOL    HW132939   5.640   9.715  11.716  0.5585  0.9931 -0.5726
 9376SOL    HW232940   5.762   9.804  11.701  1.1421 -0.1120 -2.6396
 9377SOL     OW32941   2.001   4.362   5.986 -0.5838  0.0809 -0.0204
 9377SOL    HW132942   2.020   4.323   5.900 -0.2987  0.8547 -0.3180
 9377SOL    HW232943   2.070   4.428   5.998 -1.8481  1.4765 -0.1720
 9378SOL     OW32944   3.451   6.395   8.012 -0.1526 -0.0142 -0.3144
 9378SOL    HW132945   3.488   6.356   8.091 -1.1378 -2.3481 -0.9263
 9378SOL    HW232946   3.468   6.489   8.022  0.3008 -0.2899  2.3464
 9379SOL     OW32947  10.339   7.494   6.466 -0.5079 -0.2778  0.0443
 9379SOL    HW132948  10.369   7.422   6.411  0.7759 -0.3308  0.7810
 9379SOL    HW232949  10.419   7.542   6.489 -1.3539  1.5592 -0.6444
 9380SOL     OW32950  11.642  12.453  11.184  0.2144  0.3650 -0.6664
 9380SOL    HW132951  11.726  12.446  11.228  0.2468 -2.0337 -0.9537
 9380SOL    HW232952  11.663  12.485  11.096  0.5961  1.3648 -0.2275
 9381SOL     OW32953   6.645  11.348  10.235 -0.3665  0.1819  0.3920
 9381SOL    HW132954   6.559  11.387  10.248 -0.0390  0.7573  0.9240
 9381SOL    HW232955   6.694  11.371  10.314  0.4586  0.3844 -0.1555
 9382SOL     OW32956   4.843  11.274   2.338 -0.5209  0.2484 -0.0932
 9382SOL    HW132957   4.904  11.312   2.401  2.0326 -1.3963 -1.3807
 9382SOL    HW232958   4.782  11.223   2.390 -0.4306  1.4449  1.2234
 9383SOL     OW32959   5.540  11.296   5.194  0.1465 -0.5792  0.0941
 9383SOL    HW132960   5.625  11.286   5.237 -0.2519 -2.6080  0.5280
 9383SOL    HW232961   5.482  11.326   5.264  0.0905 -1.1754  0.3104
 9384SOL     OW32962   7.995  11.364   0.363 -0.2262  0.1879 -0.8084
 9384SOL    HW132963   8.074  11.310   0.362  0.6526  1.2997  1.1764
 9384SOL    HW232964   7.923  11.301   0.363  0.6328 -0.8520 -2.5143
 9385SOL     OW32965  10.443   2.490  10.070  0.5413 -0.4111  0.3816
 9385SOL    HW132966  10.365   2.518  10.022  1.7228  0.9259 -0.9003
 9385SOL    HW232967  10.430   2.524  10.159 -0.0286  0.4202 -0.0041
 9386SOL     OW32968   9.992   0.953   5.622  0.1452 -0.1021 -0.1762
 9386SOL    HW132969   9.944   0.897   5.683  0.1064 -0.9619 -0.9852
 9386SOL    HW232970  10.059   0.995   5.676 -0.6419  0.0704  0.6926
 9387SOL     OW32971  10.806   6.354   7.647  0.2866 -0.1860  0.1442
 9387SOL    HW132972  10.728   6.408   7.633  0.3980  0.2607  1.0964
 9387SOL    HW232973  10.839   6.383   7.732  2.4264  0.7958 -0.9531
 9388SOL     OW32974   2.762   4.208   1.735  0.0037 -0.0506 -0.0553
 9388SOL    HW132975   2.737   4.176   1.648 -0.1662 -0.3886  0.1180
 9388SOL    HW232976   2.682   4.200   1.788  1.2341 -4.5864  1.5465
 9389SOL     OW32977   2.680   4.675   7.485 -0.0960  0.6521  0.2608
 9389SOL    HW132978   2.675   4.580   7.494 -0.1181  0.6924  0.6710
 9389SOL    HW232979   2.733   4.703   7.560 -0.4103  0.9996  0.3499
 9390SOL     OW32980   6.686   1.622   4.936 -0.0885  0.8751  0.0890
 9390SOL    HW132981   6.648   1.648   4.852 -1.1118 -0.2902  0.1595
 9390SOL    HW232982   6.780   1.642   4.927 -0.2758  1.2908 -1.1088
 9391SOL     OW32983   7.058   9.349   2.101  0.1430 -0.5425 -0.0120
 9391SOL    HW132984   7.093   9.277   2.048  0.7214 -0.7653  0.6576
 9391SOL    HW232985   6.995   9.393   2.044  0.3122 -1.1469 -0.6713
 9392SOL     OW32986   9.985   1.909   7.831 -0.2345  0.0030  0.4094
 9392SOL    HW132987   9.916   1.955   7.783 -1.0239 -2.0597 -0.5483
 9392SOL    HW232988   9.993   1.825   7.787  1.0898 -0.8309  2.1177
 9393SOL     OW32989   6.295   4.363   8.478  0.1238  0.0881  0.0661
 9393SOL    HW132990   6.235   4.295   8.446 -0.2299  1.0772 -1.4545
 9393SOL    HW232991   6.358   4.315   8.532  0.1655 -1.5399 -1.3284
 9394SOL     OW32992   9.015   6.110   8.536  0.3122  0.0340  0.4077
 9394SOL    HW132993   9.060   6.064   8.607  1.0614 -1.2447 -0.8391
 9394SOL    HW232994   9.071   6.097   8.460 -0.7795  0.8397 -0.5724
 9395SOL     OW32995   9.088   8.836  11.110 -0.0780 -0.5273 -0.3888
 9395SOL    HW132996   9.069   8.822  11.017 -0.0633  0.4546 -0.5440
 9395SOL    HW232997   9.121   8.751  11.140 -0.4042 -0.9546 -1.1938
 9396SOL     OW32998  10.862   6.299  12.483  0.3342 -0.4242 -0.1088
 9396SOL    HW132999  10.922   6.307  12.558 -1.1116  0.9291  0.9981
 9396SOL    HW233000  10.866   6.385  12.441  0.6749 -0.9825 -1.2341
 9397SOL     OW33001   0.171  11.271  12.339 -0.3461  1.0114  0.3413
 9397SOL    HW133002   0.085  11.312  12.345 -0.2018  1.3482  0.1124
 9397SOL    HW233003   0.153  11.177  12.348 -0.8029  1.0301 -0.2728
 9398SOL     OW33004   5.843   7.844  10.716  0.2243  0.2419  0.4077
 9398SOL    HW133005   5.923   7.793  10.729  0.6708  1.2007  1.5634
 9398SOL    HW233006   5.868   7.911  10.652  0.6219  1.0843  1.4202
 9399SOL     OW33007   7.473   3.794   6.668  0.0843  0.3371 -0.2977
 9399SOL    HW133008   7.536   3.721   6.672 -1.2004 -0.7989  0.4152
 9399SOL    HW233009   7.518   3.867   6.711  0.4894 -0.8307  1.3909
 9400SOL     OW33010  11.992   5.522   7.870 -0.5653  0.0354 -0.7173
 9400SOL    HW133011  11.950   5.489   7.791  0.2944 -0.5471 -0.9435
 9400SOL    HW233012  11.942   5.601   7.892 -1.1114 -0.0583 -1.5656
 9401SOL     OW33013  12.253   3.625   2.669 -0.3339 -0.0031  0.0296
 9401SOL    HW133014  12.198   3.612   2.592  2.9718 -0.7951 -2.4162
 9401SOL    HW233015  12.210   3.576   2.739 -1.4539 -2.6519 -2.3651
 9402SOL     OW33016   4.136   5.181   3.785 -0.3256  0.5248 -0.4367
 9402SOL    HW133017   4.136   5.106   3.845 -0.4222 -0.6433 -1.8228
 9402SOL    HW233018   4.063   5.235   3.814 -0.2177  0.1269  0.6345
 9403SOL     OW33019  10.601   7.805   0.433 -0.2348 -0.2023  0.7364
 9403SOL    HW133020  10.656   7.728   0.426 -0.8305 -0.6259  0.6271
 9403SOL    HW233021  10.566   7.818   0.345 -0.3553  0.0220  0.8155
 9404SOL     OW33022   1.432   8.061   6.187  0.1718 -0.2506  0.7391
 9404SOL    HW133023   1.359   8.025   6.138  1.0820 -1.2010  0.0346
 9404SOL    HW233024   1.450   7.997   6.256  0.6482 -0.2751  0.5984
 9405SOL     OW33025   3.497   9.142   9.052  0.3416  0.1912 -0.3749
 9405SOL    HW133026   3.560   9.138   9.124  1.8082 -0.6305 -1.6665
 9405SOL    HW233027   3.419   9.098   9.087  0.9764 -0.0910  0.7360
 9406SOL     OW33028   0.137   3.698   0.083  0.1910  0.0619 -0.2703
 9406SOL    HW133029   0.171   3.739   0.003 -0.9311 -0.8072 -1.2357
 9406SOL    HW233030   0.049   3.736   0.093  0.7273  0.9937  1.2076
 9407SOL     OW33031  10.243  12.043   7.495  0.2994 -0.0349 -0.4781
 9407SOL    HW133032  10.259  11.963   7.545  0.2614  0.0414 -0.3421
 9407SOL    HW233033  10.164  12.024   7.443  0.2319 -0.0504 -0.3694
 9408SOL     OW33034   8.955   4.156   8.921  0.1631  0.6243 -1.0096
 9408SOL    HW133035   8.922   4.238   8.883 -0.8371 -0.2452 -2.0989
 9408SOL    HW233036   8.885   4.126   8.978 -0.8734 -0.9933 -2.9782
 9409SOL     OW33037   1.913  11.561   4.465  1.0114  0.3950 -0.0165
 9409SOL    HW133038   1.839  11.556   4.404  1.6963  1.1288 -0.9202
 9409SOL    HW233039   1.935  11.654   4.468  0.3599  0.5338  2.1353
 9410SOL     OW33040   9.703  11.184   8.825 -0.8820 -0.5294  0.2171
 9410SOL    HW133041   9.657  11.256   8.782  2.0809  0.4144 -1.6177
 9410SOL    HW233042   9.657  11.106   8.795 -1.4640  0.3585 -1.3154
 9411SOL     OW33043   8.664   6.563  10.633 -0.2995 -0.6191  0.2406
 9411SOL    HW133044   8.705   6.480  10.658  2.2090  0.5662  0.3003
 9411SOL    HW233045   8.737   6.622  10.616 -2.0124  1.5882  0.1277
 9412SOL     OW33046   9.372   9.204   9.222 -0.1349 -0.4556  0.0124
 9412SOL    HW133047   9.396   9.111   9.224  1.3569 -0.1118 -0.2420
 9412SOL    HW233048   9.400   9.233   9.135 -0.2887  0.3090  0.2158
 9413SOL     OW33049   2.801   0.663   4.317 -0.1796 -0.2014 -0.8733
 9413SOL    HW133050   2.887   0.699   4.338 -0.0258 -0.0187 -1.7851
 9413SOL    HW233051   2.755   0.734   4.273 -0.5479 -0.5277 -1.0225
 9414SOL     OW33052  11.428   8.518   4.665  0.4381  1.0859  0.2994
 9414SOL    HW133053  11.358   8.565   4.621  1.1005  0.3859 -1.5899
 9414SOL    HW233054  11.464   8.459   4.599  1.6807  0.1664  1.7003
 9415SOL     OW33055   0.454  12.513   3.278  0.2211  0.0010 -0.1945
 9415SOL    HW133056   0.412  12.461   3.346 -0.1086  0.5331  0.0164
 9415SOL    HW233057   0.458  12.601   3.315 -0.2316  0.3601 -0.9817
 9416SOL     OW33058   0.783   2.588  12.645  0.3087 -0.0158 -0.3858
 9416SOL    HW133059   0.714   2.633  12.597  1.2545  0.3173 -1.4537
 9416SOL    HW233060   0.849   2.567  12.579  1.3027 -0.1985  0.6415
 9417SOL     OW33061   3.829   0.294   4.593 -0.2516 -0.3483  0.0395
 9417SOL    HW133062   3.898   0.258   4.650  0.8545  0.4806 -0.7285
 9417SOL    HW233063   3.842   0.388   4.596 -1.3236 -0.1854 -0.1851
 9418SOL     OW33064   0.342   4.690  12.120 -0.3388 -0.0308 -0.2259
 9418SOL    HW133065   0.431   4.710  12.091 -0.2419 -0.4322 -0.2013
 9418SOL    HW233066   0.301   4.648  12.044 -1.2372  2.1776 -1.0624
 9419SOL     OW33067  11.940   0.717   0.344 -0.6305  0.7524  0.2250
 9419SOL    HW133068  11.964   0.802   0.380  0.7097 -0.0276  1.2478
 9419SOL    HW233069  12.022   0.670   0.336 -1.3306 -0.3976 -0.4891
 9420SOL     OW33070   7.333   9.766   1.442  0.2417 -0.2834 -0.1543
 9420SOL    HW133071   7.244   9.735   1.425  0.5566 -1.7301  0.6992
 9420SOL    HW233072   7.356   9.818   1.364 -1.0919 -0.4416 -0.6727
 9421SOL     OW33073   2.691   0.948   2.272 -0.6792  0.0398  0.0130
 9421SOL    HW133074   2.708   1.042   2.280 -0.7684  0.0822 -0.2754
 9421SOL    HW233075   2.747   0.920   2.199 -1.1419 -0.0010 -0.3310
 9422SOL     OW33076   0.533   0.876   0.286  0.3295 -0.2411  0.1592
 9422SOL    HW133077   0.476   0.837   0.352 -2.0948 -0.3604 -1.8367
 9422SOL    HW233078   0.547   0.966   0.317 -1.7923  0.0923  0.2924
 9423SOL     OW33079   1.277   0.265   4.766 -0.3117 -0.4390  0.2998
 9423SOL    HW133080   1.263   0.231   4.677 -0.2458  1.8694 -0.6558
 9423SOL    HW233081   1.325   0.195   4.810 -0.9110 -1.9202 -1.2648
 9424SOL     OW33082   5.693   2.642   9.588 -0.1700  0.7185 -0.0086
 9424SOL    HW133083   5.735   2.570   9.636  0.5420 -1.9490 -4.1298
 9424SOL    HW233084   5.766   2.692   9.551 -0.6749  1.0706 -0.5427
 9425SOL     OW33085   8.739   0.660  12.314 -0.2161  0.3296  0.4322
 9425SOL    HW133086   8.752   0.713  12.393 -0.4988  0.3337  0.4760
 9425SOL    HW233087   8.821   0.612  12.304  0.6827  1.9746 -0.5085
 9426SOL     OW33088   3.485   5.116   9.305 -0.0890  0.4608  0.2824
 9426SOL    HW133089   3.571   5.075   9.304 -0.4849 -0.5125  1.9564
 9426SOL    HW233090   3.448   5.098   9.219  1.5925  1.4613 -0.7111
 9427SOL     OW33091   3.695  10.042   8.434  0.1962  0.0585  0.3024
 9427SOL    HW133092   3.760   9.989   8.389  1.5333  0.4562  1.6557
 9427SOL    HW233093   3.674  10.113   8.373 -1.3426 -1.7279 -1.3787
 9428SOL     OW33094   4.129   7.875   7.314  0.2677  0.3974 -0.8284
 9428SOL    HW133095   4.216   7.857   7.350  0.0287  1.0188  0.0932
 9428SOL    HW233096   4.087   7.789   7.309  0.9178  0.0955 -1.2574
 9429SOL     OW33097   0.584   2.472   4.744 -0.0036 -0.0481  0.1437
 9429SOL    HW133098   0.581   2.553   4.693 -1.5393 -0.4284 -0.4345
 9429SOL    HW233099   0.604   2.403   4.681 -0.3047 -0.3171  0.3335
 9430SOL     OW33100   6.414   8.942   2.783  0.1492  0.1630 -0.9165
 9430SOL    HW133101   6.500   8.984   2.782  0.3263 -0.1321  0.3689
 9430SOL    HW233102   6.395   8.923   2.691  1.0080  1.1281 -1.3083
 9431SOL     OW33103  11.475   9.358   4.202 -0.0436  0.0932 -1.0612
 9431SOL    HW133104  11.467   9.340   4.108  0.7468 -1.9504 -0.7733
 9431SOL    HW233105  11.385   9.357   4.235 -0.2118 -0.8712 -1.5205
 9432SOL     OW33106   1.651   4.542   6.586  0.3164  0.0431 -0.1392
 9432SOL    HW133107   1.561   4.537   6.553  0.6721  0.5622 -1.2415
 9432SOL    HW233108   1.694   4.464   6.550  0.4451  0.0880 -0.0842
 9433SOL     OW33109  10.069   5.625   1.459 -0.0901  0.1375 -0.3066
 9433SOL    HW133110  10.039   5.706   1.500 -0.4695 -0.9864  1.8269
 9433SOL    HW233111  10.080   5.564   1.532 -0.0172 -1.8090 -1.8446
 9434SOL     OW33112  10.215   1.726   6.943  0.3173 -0.2303  0.0231
 9434SOL    HW133113  10.231   1.690   7.030  1.5053 -0.6897 -0.3717
 9434SOL    HW233114  10.171   1.656   6.896  2.1213 -1.0246 -0.5683
 9435SOL     OW33115   5.756   4.922   3.816  0.5944  0.0416 -0.1661
 9435SOL    HW133116   5.823   4.894   3.878 -0.1685 -1.7625 -0.0887
 9435SOL    HW233117   5.720   5.002   3.855 -0.0147 -1.1593  1.8892
 9436SOL     OW33118  10.881   9.958   8.932 -0.8265 -0.7786  0.4327
 9436SOL    HW133119  10.908  10.044   8.899  0.0063 -0.5903  1.5403
 9436SOL    HW233120  10.917   9.895   8.869  1.3195 -0.4660  1.2338
 9437SOL     OW33121   5.701   6.032   7.041 -0.2993  0.5863 -0.1084
 9437SOL    HW133122   5.773   6.071   6.991 -0.5368 -0.2595 -1.1344
 9437SOL    HW233123   5.716   6.062   7.131 -0.0041  2.3324 -0.7058
 9438SOL     OW33124   4.445   6.857   0.677  0.0795  0.1554  0.0303
 9438SOL    HW133125   4.394   6.843   0.757  0.7475  0.0445  0.4397
 9438SOL    HW233126   4.422   6.946   0.649 -1.3287 -0.3423 -0.5244
 9439SOL     OW33127   8.571   6.397   3.791 -0.6141 -0.1531 -0.3496
 9439SOL    HW133128   8.633   6.469   3.780 -2.4001  1.3852 -0.8417
 9439SOL    HW233129   8.573   6.351   3.707  1.4267 -1.5191  0.3585
 9440SOL     OW33130  12.009  11.643   3.040  0.4976  0.2057 -0.0062
 9440SOL    HW133131  11.941  11.627   2.975 -0.0540 -0.2683  0.6673
 9440SOL    HW233132  11.988  11.730   3.075  1.4089  0.9180 -1.1768
 9441SOL     OW33133  11.945   9.058   5.717  0.1839  0.1812 -0.1381
 9441SOL    HW133134  11.920   9.078   5.626 -0.9778  2.8621  0.6625
 9441SOL    HW233135  11.969   8.965   5.715 -2.7576 -0.7142 -2.5655
 9442SOL     OW33136   3.225   6.131   8.973  0.0512 -0.0163 -0.4751
 9442SOL    HW133137   3.206   6.124   8.880 -0.9506 -1.2106 -0.1968
 9442SOL    HW233138   3.217   6.225   8.992  1.1567  0.3594 -1.7519
 9443SOL     OW33139  12.523  11.033   0.869  0.2130  0.0975 -0.5390
 9443SOL    HW133140  12.469  11.110   0.887 -0.0394 -0.2925  0.4432
 9443SOL    HW233141  12.461  10.965   0.846  0.0087 -0.9482  2.6336
 9444SOL     OW33142   6.540   3.579   5.787  0.3352 -0.0344  0.7018
 9444SOL    HW133143   6.471   3.530   5.832 -1.6684  1.8326 -0.2008
 9444SOL    HW233144   6.494   3.643   5.733  2.7506  0.4291 -0.9960
 9445SOL     OW33145   8.419  11.440   3.433  0.4036  0.7312 -0.2563
 9445SOL    HW133146   8.339  11.417   3.480 -0.4823  0.8515 -1.6659
 9445SOL    HW233147   8.431  11.533   3.450 -0.9795  1.2256 -1.7598
 9446SOL     OW33148   7.500  12.294   8.689  0.5422 -0.0921  0.1351
 9446SOL    HW133149   7.589  12.311   8.721  0.0866  1.5112  0.6629
 9446SOL    HW233150   7.448  12.366   8.725 -1.1827 -1.5469  0.6852
 9447SOL     OW33151   8.110   0.464   5.068 -0.8103 -0.1157 -0.2953
 9447SOL    HW133152   8.205   0.461   5.052 -0.4825  0.5208  1.3496
 9447SOL    HW233153   8.077   0.521   4.998  0.3219  1.2494  0.2126
 9448SOL     OW33154  12.206   0.537  12.536  0.2709 -0.2563  0.3125
 9448SOL    HW133155  12.147   0.500  12.469  0.2369  1.7822 -0.8564
 9448SOL    HW233156  12.147   0.567  12.605  0.2223 -1.3576  0.7683
 9449SOL     OW33157   9.776   1.391   4.511 -0.7435 -0.5235  0.3916
 9449SOL    HW133158   9.721   1.367   4.436  0.3388  0.8051 -0.8893
 9449SOL    HW233159   9.767   1.486   4.518 -0.3778 -0.5575  1.6116
 9450SOL     OW33160   0.291   7.620   9.195 -0.2212  0.3603  0.3472
 9450SOL    HW133161   0.250   7.610   9.109 -0.9646 -0.2026  0.7616
 9450SOL    HW233162   0.218   7.622   9.257  0.2402  1.8483  0.8873
 9451SOL     OW33163  11.320  10.222   4.046 -0.0370  0.6485  0.2339
 9451SOL    HW133164  11.377  10.240   3.972  1.4941  1.5986  1.5933
 9451SOL    HW233165  11.349  10.137   4.079 -0.0885  0.6692  0.3321
 9452SOL     OW33166   9.694   6.361   5.774 -0.0506  0.1549  0.0911
 9452SOL    HW133167   9.772   6.306   5.779 -0.9369 -1.0545  1.6961
 9452SOL    HW233168   9.725   6.449   5.793  1.0406 -0.1726 -0.1079
 9453SOL     OW33169  10.451  11.535   2.383  0.2334  0.3254 -0.7881
 9453SOL    HW133170  10.501  11.466   2.340 -1.1313 -0.6862 -0.7871
 9453SOL    HW233171  10.426  11.595   2.312  0.1986  0.0550 -1.0026
 9454SOL     OW33172  12.546   3.648   1.859  0.3425  0.0542  0.5502
 9454SOL    HW133173  12.451   3.633   1.858  0.6731 -2.6945 -1.1821
 9454SOL    HW233174  12.555   3.742   1.842 -2.0562  0.3418  0.4191
 9455SOL     OW33175  10.932   1.963   3.329  0.3075  0.5994  0.3307
 9455SOL    HW133176  10.856   1.953   3.385  0.0607 -0.5174 -0.1841
 9455SOL    HW233177  10.932   2.056   3.305 -1.2409  0.5066 -0.1336
 9456SOL     OW33178   2.706   1.080   9.048  0.0329 -0.0583 -0.3363
 9456SOL    HW133179   2.613   1.061   9.062  0.4331 -1.9766 -0.0046
 9456SOL    HW233180   2.730   1.137   9.121 -0.7587  0.0566 -0.1511
 9457SOL     OW33181   7.771   5.748   4.915  0.0383 -0.0792 -0.2228
 9457SOL    HW133182   7.721   5.812   4.863 -0.0150 -1.4002 -1.8846
 9457SOL    HW233183   7.804   5.799   4.989 -0.6170  1.7013 -1.0758
 9458SOL     OW33184   8.777  12.377   8.194  0.1376 -0.1767  0.1251
 9458SOL    HW133185   8.696  12.332   8.169 -0.7326  0.8178  1.0578
 9458SOL    HW233186   8.767  12.395   8.287  1.7914 -0.7311  0.4295
 9459SOL     OW33187   3.840   4.587   8.273  0.5623  0.0072  0.3425
 9459SOL    HW133188   3.899   4.537   8.331 -0.1909 -0.2208  0.9328
 9459SOL    HW233189   3.876   4.575   8.186  1.7479  0.3840  0.7660
 9460SOL     OW33190  10.836  11.606  10.795 -0.5959 -0.0184 -0.2175
 9460SOL    HW133191  10.780  11.622  10.871  1.8859  0.3917  1.6320
 9460SOL    HW233192  10.852  11.693  10.759 -0.4502 -0.0449 -0.2171
 9461SOL     OW33193   9.351   5.735   8.022 -0.3892 -0.2801  0.5010
 9461SOL    HW133194   9.334   5.765   8.111 -1.8708  1.3263 -0.2638
 9461SOL    HW233195   9.296   5.657   8.013 -2.8529  1.3921  0.0330
 9462SOL     OW33196   5.352   0.965   9.305 -0.2881 -0.2498  0.1498
 9462SOL    HW133197   5.443   0.939   9.319 -0.7205 -0.9283  1.9365
 9462SOL    HW233198   5.342   0.966   9.209  1.6559  0.1453 -0.0971
 9463SOL     OW33199   8.727   7.839   5.703  0.3470 -0.5827 -0.1244
 9463SOL    HW133200   8.632   7.844   5.692  0.3292 -2.4204 -1.1961
 9463SOL    HW233201   8.739   7.794   5.787  0.2691 -0.6069 -0.1259
 9464SOL     OW33202   5.443   3.044   9.217  0.1025  0.3175 -0.3076
 9464SOL    HW133203   5.497   2.966   9.203 -0.4725 -0.0700 -0.4245
 9464SOL    HW233204   5.464   3.073   9.305 -1.0412 -1.0799  0.4749
 9465SOL     OW33205  10.983   8.129   8.020  0.1751  0.1022 -0.0550
 9465SOL    HW133206  10.959   8.188   7.948 -0.8679  0.1081  0.2715
 9465SOL    HW233207  10.928   8.157   8.093  1.0082 -0.0923  0.6654
 9466SOL     OW33208   7.801   0.164  10.304 -0.2530  0.3484  0.0927
 9466SOL    HW133209   7.747   0.139  10.379  0.5200  0.0810  0.5734
 9466SOL    HW233210   7.890   0.136  10.327  0.0821  0.6824 -0.7235
 9467SOL     OW33211   3.195  11.225   0.810  0.0077 -0.4423  0.4325
 9467SOL    HW133212   3.171  11.251   0.899 -0.1089 -0.4867  0.4136
 9467SOL    HW233213   3.288  11.204   0.816  0.0807 -0.1143  0.4677
 9468SOL     OW33214   6.570   2.830   4.901  0.0445 -0.5701  0.1811
 9468SOL    HW133215   6.625   2.837   4.978 -1.7840  0.0524  1.4952
 9468SOL    HW233216   6.500   2.894   4.915 -0.2249 -0.2747 -2.1079
 9469SOL     OW33217   4.329   6.103   4.906 -0.0869 -0.3281 -0.1271
 9469SOL    HW133218   4.328   6.175   4.969  1.2489  0.0182 -0.4839
 9469SOL    HW233219   4.236   6.081   4.895 -0.4792  0.9025  0.4652
 9470SOL     OW33220   3.401   6.266   6.581  0.0633 -0.0235  0.2169
 9470SOL    HW133221   3.415   6.172   6.594  0.8564  0.0666  0.0682
 9470SOL    HW233222   3.312   6.272   6.546 -0.6773 -0.5813  1.8467
 9471SOL     OW33223  10.734   4.483   7.206  0.2641  0.4842  0.6156
 9471SOL    HW133224  10.747   4.486   7.301 -1.3210 -1.4700  0.9488
 9471SOL    HW233225  10.652   4.530   7.191  0.4161  0.6303  0.2189
 9472SOL     OW33226  10.152  12.210   4.613  0.1272  0.6548 -0.1261
 9472SOL    HW133227  10.148  12.299   4.580 -0.4107  0.4795 -0.5493
 9472SOL    HW233228  10.104  12.212   4.695  0.5281  0.8564  0.1052
 9473SOL     OW33229  10.756   3.425   3.098 -0.2013 -0.0227  0.3276
 9473SOL    HW133230  10.671   3.466   3.110  0.1470  0.9394 -0.3759
 9473SOL    HW233231  10.773   3.380   3.181 -0.1577  2.0872  1.5224
 9474SOL     OW33232   1.045   2.077   9.033  0.0700  0.4624 -0.5450
 9474SOL    HW133233   0.979   2.008   9.023  1.7515 -1.5101  1.0120
 9474SOL    HW233234   1.096   2.073   8.952  0.3192 -0.3482 -0.3600
 9475SOL     OW33235   1.703   7.829   0.618 -0.3482 -0.2909  0.2913
 9475SOL    HW133236   1.660   7.750   0.584 -1.8854  0.1477  1.0974
 9475SOL    HW233237   1.660   7.845   0.702 -0.1471  1.4439  0.1062
 9476SOL     OW33238   7.804   2.151   0.637 -0.4099  0.2913 -0.1555
 9476SOL    HW133239   7.821   2.241   0.663 -0.9808  0.6075 -0.8314
 9476SOL    HW233240   7.860   2.137   0.561  1.7519 -0.8404  1.5263
 9477SOL     OW33241   4.329   3.914   9.961  0.3923  0.0044  0.7225
 9477SOL    HW133242   4.420   3.941   9.974 -0.0160  1.2334  1.1580
 9477SOL    HW233243   4.282   3.953  10.034 -1.2539  3.4228 -1.9122
 9478SOL     OW33244   4.959   9.354   5.017 -0.4422  0.1035 -0.2897
 9478SOL    HW133245   5.035   9.311   5.057  0.3458  0.6745 -1.1268
 9478SOL    HW233246   4.985   9.446   5.011 -1.0522  0.2383 -0.9391
 9479SOL     OW33247   7.766   5.465   3.320 -0.6399 -0.0437  0.0040
 9479SOL    HW133248   7.770   5.476   3.225 -0.6512  1.0613  0.1256
 9479SOL    HW233249   7.856   5.443   3.345 -0.4504  0.5522 -0.1538
 9480SOL     OW33250  10.108  12.212   3.794  0.2361 -0.1082  0.6825
 9480SOL    HW133251  10.088  12.125   3.760 -0.4621  0.7538 -1.2344
 9480SOL    HW233252  10.184  12.242   3.744  1.4038 -0.1583  2.3471
 9481SOL     OW33253   4.319   1.747   1.036  0.4289  0.4516  0.3728
 9481SOL    HW133254   4.288   1.662   1.004  0.1667  1.1354 -1.2912
 9481SOL    HW233255   4.246   1.782   1.086 -1.8820  2.1476 -3.6883
 9482SOL     OW33256   1.982   2.295   5.954  0.4395 -0.2155  0.1796
 9482SOL    HW133257   1.972   2.390   5.958 -1.0401 -0.0595 -3.3565
 9482SOL    HW233258   2.056   2.281   5.895 -0.2747 -1.2054 -0.5070
 9483SOL     OW33259   9.806   7.281   5.303 -0.7000 -0.2452  0.5656
 9483SOL    HW133260   9.867   7.209   5.285  0.4830  0.2706  2.2779
 9483SOL    HW233261   9.753   7.250   5.377 -2.3479 -0.5448 -0.6755
 9484SOL     OW33262   0.031  10.766   9.473 -0.0870  0.3054 -1.1603
 9484SOL    HW133263   0.049  10.718   9.553  3.3291  0.6289 -1.5963
 9484SOL    HW233264   0.078  10.718   9.405  1.5838  2.8810 -2.0021
 9485SOL     OW33265   1.771   1.926   0.063  0.5041  0.2866 -0.4144
 9485SOL    HW133266   1.759   1.843   0.017  0.9336  0.0420 -0.0956
 9485SOL    HW233267   1.716   1.918   0.141 -0.0629  0.6179 -0.7753
 9486SOL     OW33268   9.109   6.368  10.871  0.3229 -0.5134  0.5138
 9486SOL    HW133269   9.030   6.324  10.904 -0.0658  0.4047  0.8568
 9486SOL    HW233270   9.132   6.430  10.940  0.7981 -0.1145  0.0058
 9487SOL     OW33271   7.710   6.987   9.229 -0.7964 -0.8836  0.4101
 9487SOL    HW133272   7.652   7.060   9.207  0.2771  0.4299  1.7228
 9487SOL    HW233273   7.658   6.931   9.287 -2.4560 -2.5604 -2.4419
 9488SOL     OW33274   3.461   3.693   8.777 -0.3927  0.8554 -0.2755
 9488SOL    HW133275   3.424   3.777   8.750  0.9754  2.0165  1.2485
 9488SOL    HW233276   3.441   3.688   8.870 -1.4266 -1.0843 -0.5571
 9489SOL     OW33277   3.402   7.447   2.907 -0.4628 -0.3128  0.0088
 9489SOL    HW133278   3.490   7.435   2.872 -0.0305 -0.7606  1.1804
 9489SOL    HW233279   3.409   7.523   2.964 -1.0116  0.0692 -0.4266
 9490SOL     OW33280   9.783  11.503   6.650  0.2665  0.3395  0.2831
 9490SOL    HW133281   9.787  11.518   6.555 -0.3315  0.3644  0.2601
 9490SOL    HW233282   9.726  11.427   6.660  2.1159 -1.0859  0.4894
 9491SOL     OW33283   6.849  11.586   9.593 -0.2218  1.1160 -0.4650
 9491SOL    HW133284   6.829  11.615   9.682 -0.9946  0.8208 -0.5313
 9491SOL    HW233285   6.797  11.506   9.582  1.0561  0.2759 -0.6469
 9492SOL     OW33286   3.970   2.951   6.548 -0.3230  0.3687 -0.1335
 9492SOL    HW133287   3.913   2.946   6.471 -0.4107 -1.1184 -0.0025
 9492SOL    HW233288   4.018   3.033   6.537  0.4831 -0.3278 -2.3708
 9493SOL     OW33289   8.851  11.764   2.188  0.0235 -0.2976  0.1476
 9493SOL    HW133290   8.853  11.813   2.270 -0.0434  0.1502 -0.1134
 9493SOL    HW233291   8.870  11.673   2.213 -2.7822 -0.7248  1.0476
 9494SOL     OW33292   4.410   8.826   5.665  0.6594  0.0891 -0.0946
 9494SOL    HW133293   4.463   8.754   5.700  0.6414 -0.3368 -0.8947
 9494SOL    HW233294   4.354   8.784   5.599  0.0595  0.7054  0.0108
 9495SOL     OW33295   9.191   6.555   5.690  0.3172 -0.0123  0.1597
 9495SOL    HW133296   9.284   6.577   5.683  0.0580  1.3043  0.6449
 9495SOL    HW233297   9.188   6.492   5.763  0.9595 -1.0969 -0.7080
 9496SOL     OW33298  10.255   1.130   4.604  0.0747  0.4348 -1.0384
 9496SOL    HW133299  10.199   1.075   4.658  0.4346  2.5105  1.6766
 9496SOL    HW233300  10.268   1.080   4.523 -1.2211 -2.4790  0.4217
 9497SOL     OW33301  11.924   5.453   6.967  0.3915  0.3262 -0.3301
 9497SOL    HW133302  11.895   5.467   7.057  0.5346  0.5365 -0.3165
 9497SOL    HW233303  12.019   5.466   6.970  0.2873  1.2267 -0.6861
 9498SOL     OW33304   7.143   0.147   5.532 -0.5193 -0.1978  0.1896
 9498SOL    HW133305   7.107   0.217   5.477  0.2584  0.5403  0.5990
 9498SOL    HW233306   7.093   0.069   5.507 -1.9829  0.6568  0.2942
 9499SOL     OW33307   5.213   9.706   9.477 -0.8335  0.0998  0.0434
 9499SOL    HW133308   5.229   9.761   9.554  0.7120 -0.0235 -0.1572
 9499SOL    HW233309   5.189   9.767   9.408  1.7125  0.7052 -0.4108
 9500SOL     OW33310   1.993   1.569  11.606 -0.0055  0.1095  0.3303
 9500SOL    HW133311   1.983   1.625  11.683 -0.1199  0.8469 -0.2066
 9500SOL    HW233312   1.911   1.521  11.601 -1.6709  2.8576 -1.4851
 9501SOL     OW33313   3.090   2.139   2.230 -0.8701 -0.0580 -0.2873
 9501SOL    HW133314   3.170   2.170   2.187  0.2134 -0.5643  1.2560
 9501SOL    HW233315   3.020   2.193   2.193  0.4301  1.6827 -0.3354
 9502SOL     OW33316   9.332  10.348  10.340  0.0134  0.2090 -0.8986
 9502SOL    HW133317   9.402  10.289  10.366 -2.2294 -1.7359  1.2925
 9502SOL    HW233318   9.353  10.432  10.380  1.6305  0.0172 -1.3024
 9503SOL     OW33319   7.345   0.970   8.541 -0.1645  0.0848  0.5478
 9503SOL    HW133320   7.371   0.893   8.591 -1.4567 -0.3258  0.6079
 9503SOL    HW233321   7.321   0.936   8.455  2.5217  0.8318 -0.6348
 9504SOL     OW33322   4.201   1.248   7.582 -1.0193 -0.1000  0.2509
 9504SOL    HW133323   4.212   1.235   7.676 -0.5188 -0.1920  0.1826
 9504SOL    HW233324   4.136   1.318   7.575  0.2421  1.1565  0.7036
 9505SOL     OW33325   7.592   8.907   1.600 -0.3829  0.4785 -0.6944
 9505SOL    HW133326   7.526   8.879   1.537 -1.8224  0.0838  0.9216
 9505SOL    HW233327   7.665   8.845   1.587 -0.5089  0.6107 -2.1581
 9506SOL     OW33328   8.728   7.265   8.541  0.3782  0.1689 -0.0670
 9506SOL    HW133329   8.721   7.356   8.510  0.3585  0.0175 -0.5100
 9506SOL    HW233330   8.651   7.221   8.505  0.2713  0.0255  0.3295
 9507SOL     OW33331   9.187  12.427  12.213 -0.3702 -0.3627 -0.1432
 9507SOL    HW133332   9.271  12.453  12.250 -0.1216  0.5917 -1.3412
 9507SOL    HW233333   9.196  12.332  12.198  1.2118  0.0133 -1.9700
 9508SOL     OW33334   1.620   2.533   4.795 -0.1306 -0.1255 -0.1524
 9508SOL    HW133335   1.652   2.486   4.872 -1.2250  1.1371  1.1381
 9508SOL    HW233336   1.639   2.625   4.813 -0.7224  0.2333 -1.2330
 9509SOL     OW33337   4.898   9.130   1.068  0.3384 -0.1679  0.6987
 9509SOL    HW133338   4.965   9.068   1.097 -0.3156 -0.2623  2.1035
 9509SOL    HW233339   4.816   9.094   1.100  0.0732  2.0891  2.9037
 9510SOL     OW33340   3.462   7.019   7.288  0.0039  0.3490 -0.0174
 9510SOL    HW133341   3.442   6.936   7.332  0.1959  1.2356  1.8261
 9510SOL    HW233342   3.515   7.068   7.351  2.2434  0.8307 -2.1141
 9511SOL     OW33343   0.054   7.542  11.863  0.3637  0.1020  0.3724
 9511SOL    HW133344   0.101   7.587  11.933 -0.2136  1.2085  0.0763
 9511SOL    HW233345  -0.023   7.504  11.906  0.4523  0.0516  0.4861
 9512SOL     OW33346   4.206   6.469   9.735  0.8548 -0.3865 -0.3309
 9512SOL    HW133347   4.139   6.428   9.791  0.3158  0.3951 -0.3909
 9512SOL    HW233348   4.220   6.406   9.665 -0.2035 -0.3389 -0.6007
 9513SOL     OW33349   6.030   4.247   6.947 -0.8587  0.2357  0.0196
 9513SOL    HW133350   6.116   4.272   6.981 -0.3688  1.8311 -2.1772
 9513SOL    HW233351   5.970   4.264   7.020  0.5283  0.2157  1.2111
 9514SOL     OW33352  11.733   6.179   9.565  0.6843 -0.4978  0.2202
 9514SOL    HW133353  11.763   6.200   9.476  2.9541 -0.0088  1.0408
 9514SOL    HW233354  11.653   6.230   9.576  1.3538  0.8744 -0.9251
 9515SOL     OW33355  12.488   5.639   6.664  0.3999 -0.6317  0.2360
 9515SOL    HW133356  12.530   5.626   6.579  0.2533 -0.9870  0.2155
 9515SOL    HW233357  12.424   5.708   6.649  2.1691  1.2044  0.6759
 9516SOL     OW33358   6.042   5.251  10.624 -0.1113  0.0978  0.9383
 9516SOL    HW133359   6.040   5.170  10.574 -0.9557 -0.0155  1.1409
 9516SOL    HW233360   6.135   5.271  10.634  0.0899 -0.0251 -0.4341
 9517SOL     OW33361   5.634  10.160   6.282 -0.0721  0.0587 -0.3237
 9517SOL    HW133362   5.641  10.110   6.200  1.1766 -0.9343  0.3532
 9517SOL    HW233363   5.552  10.210   6.273  1.0659  1.6638 -3.0949
 9518SOL     OW33364   6.666   6.031   9.148  0.0241 -0.3346 -0.2135
 9518SOL    HW133365   6.617   6.102   9.190 -0.4089 -0.0910 -1.0994
 9518SOL    HW233366   6.750   6.070   9.124 -0.3684 -0.0052 -1.0593
 9519SOL     OW33367   3.760   9.210   1.366  0.1425  0.4188  0.2304
 9519SOL    HW133368   3.847   9.237   1.396  0.1924  0.6996 -0.1662
 9519SOL    HW233369   3.738   9.272   1.296  0.3263 -0.6700 -0.8106
 9520SOL     OW33370   9.419   7.550  10.222  0.1386 -0.0928  0.3656
 9520SOL    HW133371   9.487   7.614  10.240 -0.9886  1.2299  0.1139
 9520SOL    HW233372   9.377   7.581  10.142 -0.6085 -0.9989  0.3874
 9521SOL     OW33373   5.058   0.616   3.337  0.6532 -0.5643 -0.0825
 9521SOL    HW133374   5.153   0.620   3.321  0.4545 -0.5089 -1.2873
 9521SOL    HW233375   5.020   0.670   3.269 -0.2847 -0.9076  0.1614
 9522SOL     OW33376   3.072  12.214   5.403 -0.0652 -0.0118 -0.3320
 9522SOL    HW133377   3.027  12.145   5.452  1.2064 -1.6490 -1.3774
 9522SOL    HW233378   3.165  12.193   5.411  0.2437  0.2029 -2.5766
 9523SOL     OW33379   4.629   7.416   3.991  0.0844 -0.1781  0.3346
 9523SOL    HW133380   4.670   7.337   4.027 -0.4687 -1.1797 -1.1125
 9523SOL    HW233381   4.583   7.385   3.912 -1.5693  1.2774  0.6541
 9524SOL     OW33382  12.012  12.486   9.068 -0.4394 -0.1520  0.1711
 9524SOL    HW133383  11.947  12.543   9.028  0.7513  1.4422  0.4053
 9524SOL    HW233384  12.072  12.464   8.996  0.6486  1.1974  0.6101
 9525SOL     OW33385   9.058   6.459   9.227 -0.3725 -0.1664  0.3617
 9525SOL    HW133386   9.069   6.364   9.231 -1.2122 -0.2407  1.3505
 9525SOL    HW233387   8.972   6.472   9.186 -0.8005  0.1126  1.3109
 9526SOL     OW33388   3.004   3.999  11.488 -0.4725 -0.8148  0.2463
 9526SOL    HW133389   3.096   4.006  11.462 -0.3071 -1.0031  0.7623
 9526SOL    HW233390   2.971   3.923  11.439 -0.4097 -0.6238 -0.0947
 9527SOL     OW33391   8.592   9.208   0.658 -0.6281 -0.0177 -0.4125
 9527SOL    HW133392   8.530   9.224   0.729 -1.8851  4.0228 -2.1364
 9527SOL    HW233393   8.678   9.230   0.695 -0.4291 -3.0923  1.2196
 9528SOL     OW33394  12.497   4.017   3.197  1.0769 -0.5463 -0.3619
 9528SOL    HW133395  12.497   4.104   3.157  1.6633 -0.3260  0.1097
 9528SOL    HW233396  12.526   3.959   3.126  3.7349  0.0515  0.1314
 9529SOL     OW33397   9.002   3.710   1.912  0.5944  0.6090 -0.3356
 9529SOL    HW133398   9.041   3.736   1.995  0.6999 -1.3577  0.2727
 9529SOL    HW233399   9.077   3.692   1.855  0.6436 -1.7970  0.3948
 9530SOL     OW33400   0.259   8.708   0.743  0.1118 -0.6513  0.1391
 9530SOL    HW133401   0.300   8.675   0.663 -1.6183 -0.0806 -1.0604
 9530SOL    HW233402   0.300   8.794   0.757 -0.6290 -0.0742 -1.0521
 9531SOL     OW33403   6.056   8.219  11.406 -0.3580  0.5891  0.3682
 9531SOL    HW133404   5.975   8.168  11.403 -0.4897  0.8530 -1.0753
 9531SOL    HW233405   6.065   8.255  11.318 -0.0652  2.7731  1.2462
 9532SOL     OW33406   7.691   3.252   8.930 -0.0574  0.0276  1.1011
 9532SOL    HW133407   7.688   3.239   9.025 -1.0106  1.6056  1.3242
 9532SOL    HW233408   7.728   3.340   8.920 -3.0035  1.3112  0.2228
 9533SOL     OW33409   0.496  12.132  12.289 -0.1817  0.4688  0.3830
 9533SOL    HW133410   0.452  12.056  12.251  0.6306  1.0329 -1.8491
 9533SOL    HW233411   0.581  12.098  12.319  0.5806  0.5830 -1.4706
 9534SOL     OW33412  11.724   4.537  12.643  0.1036 -0.3302  0.4384
 9534SOL    HW133413  11.754   4.449  12.620  0.9626  0.3128 -1.0895
 9534SOL    HW233414  11.629   4.529  12.649  0.1847 -1.4042  0.5692
 9535SOL     OW33415   2.638   6.999   3.957 -0.1096 -0.5306 -0.3695
 9535SOL    HW133416   2.643   7.076   3.901 -0.0505 -0.8151 -0.7582
 9535SOL    HW233417   2.647   7.033   4.046 -0.9686  0.0079 -0.4769
 9536SOL     OW33418   0.467   4.559  11.264  0.3247  0.0726  0.0566
 9536SOL    HW133419   0.399   4.576  11.330  0.5813  0.4578  0.2227
 9536SOL    HW233420   0.461   4.633  11.204 -0.2231 -0.5133 -0.6232
 9537SOL     OW33421   9.833   3.705   5.181  0.1918 -0.3849 -0.3465
 9537SOL    HW133422   9.867   3.793   5.195  1.6789 -0.4666 -2.8845
 9537SOL    HW233423   9.767   3.715   5.113  0.0608 -1.1651 -0.3456
 9538SOL     OW33424   4.740  11.480   4.333  0.1937  0.1139  0.0866
 9538SOL    HW133425   4.735  11.525   4.417  1.3478  0.7337 -0.1458
 9538SOL    HW233426   4.681  11.529   4.275 -0.4273 -0.1757  0.4694
 9539SOL     OW33427   2.275  12.308   0.113  0.6398  0.0946 -0.4593
 9539SOL    HW133428   2.332  12.233   0.133 -0.1008 -0.6076 -0.9472
 9539SOL    HW233429   2.210  12.308   0.183  1.1787  0.8475  0.0502
 9540SOL     OW33430   7.116  10.116  12.477 -0.5283  0.4584  0.6832
 9540SOL    HW133431   7.022  10.100  12.478 -0.4767 -0.4139 -1.8079
 9540SOL    HW233432   7.156  10.031  12.493 -0.2331  0.1360 -1.4221
 9541SOL     OW33433   7.789   4.241  12.022  0.3221  0.0351 -0.4813
 9541SOL    HW133434   7.731   4.212  11.952  0.0797 -0.3243 -0.1355
 9541SOL    HW233435   7.842   4.165  12.044  2.6886  1.0116 -2.4714
 9542SOL     OW33436   7.748  12.142   8.930  0.1646 -0.0205 -0.3895
 9542SOL    HW133437   7.719  12.166   8.842 -0.1765  2.6602  0.3786
 9542SOL    HW233438   7.841  12.165   8.932 -0.0573  0.8676  0.2286
 9543SOL     OW33439   6.586  11.837   9.926  0.2121  0.3587  0.0868
 9543SOL    HW133440   6.624  11.898   9.862 -1.3935  0.4518 -0.8248
 9543SOL    HW233441   6.525  11.891   9.976  0.4601 -0.0239  0.8160
 9544SOL     OW33442   7.046   8.859  11.281  0.0999  0.1793 -0.6383
 9544SOL    HW133443   6.966   8.841  11.331 -0.5271  2.4511 -0.6907
 9544SOL    HW233444   7.073   8.774  11.248 -2.2887 -0.6943 -0.5738
 9545SOL     OW33445   8.443   2.039   6.300 -0.7760  0.5053 -0.4600
 9545SOL    HW133446   8.412   2.118   6.256 -2.0629  1.0519  1.3374
 9545SOL    HW233447   8.539   2.045   6.297 -0.8524  2.2805 -0.0832
 9546SOL     OW33448   1.672  12.382   6.517 -0.6903 -0.4196 -0.0515
 9546SOL    HW133449   1.648  12.294   6.490 -3.8175  0.2569  0.1944
 9546SOL    HW233450   1.670  12.433   6.436 -0.6051 -0.2415  0.0590
 9547SOL     OW33451   1.616   1.362   5.171 -0.1411 -0.1350 -0.0286
 9547SOL    HW133452   1.526   1.343   5.146  0.2321 -2.6469  0.3378
 9547SOL    HW233453   1.609   1.429   5.239 -1.7177 -0.3826  0.0767
 9548SOL     OW33454  12.329   7.828   3.043 -0.3173 -0.0528 -0.0966
 9548SOL    HW133455  12.305   7.738   3.064  0.8871 -0.4419 -0.3338
 9548SOL    HW233456  12.372   7.860   3.122 -0.8055  0.3465  0.0132
 9549SOL     OW33457   0.494   8.266  10.788  0.4701 -0.4427 -0.4941
 9549SOL    HW133458   0.454   8.352  10.774  0.6844 -0.0364  1.2282
 9549SOL    HW233459   0.425   8.203  10.768 -0.5502  0.2113  0.8685
 9550SOL     OW33460   4.627   6.824   7.398  0.0347 -0.5556 -0.3930
 9550SOL    HW133461   4.624   6.884   7.472  1.2824 -0.9114 -0.0298
 9550SOL    HW233462   4.537   6.821   7.365 -0.0790  1.3876 -0.3365
 9551SOL     OW33463  10.481  10.939   0.839 -0.5279  0.4418 -0.0771
 9551SOL    HW133464  10.432  11.018   0.816  0.8449  1.3621  0.0557
 9551SOL    HW233465  10.508  10.902   0.755  0.4253  1.1664 -0.1005
 9552SOL     OW33466   8.156  11.828   4.380 -0.9296  0.4200 -0.5009
 9552SOL    HW133467   8.243  11.862   4.359 -0.3017 -0.8912 -0.1171
 9552SOL    HW233468   8.159  11.810   4.474 -0.9103 -1.4673 -0.8124
 9553SOL     OW33469   1.419   7.265   7.086  0.1972 -0.0094 -0.0696
 9553SOL    HW133470   1.374   7.287   7.005  1.2923 -3.0871 -1.6786
 9553SOL    HW233471   1.512   7.267   7.063  0.5524 -0.6091  1.2110
 9554SOL     OW33472   1.180   3.703   5.810  0.2834  0.1530  0.0846
 9554SOL    HW133473   1.245   3.751   5.862 -0.6821  0.5596  0.9595
 9554SOL    HW233474   1.128   3.655   5.874 -1.4791  1.3302 -0.3885
 9555SOL     OW33475   6.953   7.376   4.115 -0.1897  0.0515  0.1218
 9555SOL    HW133476   7.002   7.310   4.164  0.4901  0.6087  0.2026
 9555SOL    HW233477   7.018   7.440   4.087 -0.7621  0.4202 -0.4079
 9556SOL     OW33478   5.206  11.523   0.420  0.0354 -0.4318 -0.0178
 9556SOL    HW133479   5.166  11.436   0.420  1.2425 -0.9983 -0.5182
 9556SOL    HW233480   5.252  11.529   0.336  2.4706 -0.5109  1.2179
 9557SOL     OW33481   3.761   8.554   5.918  0.4687  0.2789 -0.2775
 9557SOL    HW133482   3.737   8.634   5.964 -1.9040 -0.2040 -0.5453
 9557SOL    HW233483   3.782   8.582   5.829 -0.1149  0.6521 -0.3034
 9558SOL     OW33484  10.002  11.715   2.575  0.6977 -0.2706 -0.4195
 9558SOL    HW133485   9.982  11.621   2.583 -0.0222 -0.4378 -3.1862
 9558SOL    HW233486  10.080  11.727   2.630 -1.1946 -1.6643  2.8660
 9559SOL     OW33487   7.114   8.505   3.725 -0.3920  0.3018  0.6638
 9559SOL    HW133488   7.153   8.421   3.701 -0.9793 -0.0409  0.8840
 9559SOL    HW233489   7.186   8.568   3.719  0.2692 -0.3709  1.3855
 9560SOL     OW33490   4.695  11.981   8.437  0.5942  0.6845  0.8541
 9560SOL    HW133491   4.682  12.054   8.497 -0.0299 -0.5938  2.3413
 9560SOL    HW233492   4.763  11.928   8.478  1.3678  0.6469 -0.4394
 9561SOL     OW33493   6.430   5.010  10.291 -0.2832  0.0730 -0.1694
 9561SOL    HW133494   6.403   5.018  10.199  1.3562  0.0080 -0.6848
 9561SOL    HW233495   6.457   4.919  10.300  0.1405  0.2395  0.2129
 9562SOL     OW33496   4.928   4.940   4.867 -1.0349  0.6088 -0.2693
 9562SOL    HW133497   4.911   5.034   4.865 -0.2562  0.7584 -0.1975
 9562SOL    HW233498   4.934   4.919   4.961  2.4711  1.2137 -0.2376
 9563SOL     OW33499  11.775   1.004   9.445  0.2039 -0.2787 -0.4713
 9563SOL    HW133500  11.790   1.012   9.351 -0.9493 -0.4820 -0.6848
 9563SOL    HW233501  11.705   0.939   9.453 -0.0801  0.1279  0.4888
 9564SOL     OW33502  11.812   2.117   1.966 -0.5762 -0.3256  0.2834
 9564SOL    HW133503  11.753   2.185   1.998 -2.1297 -0.5532 -1.9196
 9564SOL    HW233504  11.754   2.051   1.929  1.0271 -0.5378 -2.0227
 9565SOL     OW33505  10.620   3.392  11.520 -0.5925 -0.1694  0.1080
 9565SOL    HW133506  10.600   3.482  11.494 -1.1807 -0.2402  0.3184
 9565SOL    HW233507  10.715   3.385  11.509 -0.6110  0.3123 -0.4229
 9566SOL     OW33508   2.477  11.936   8.296 -0.2229  0.1067 -0.0172
 9566SOL    HW133509   2.384  11.916   8.285 -0.6450  0.9157  1.7639
 9566SOL    HW233510   2.522  11.856   8.272 -1.4573 -0.7219  0.3534
 9567SOL     OW33511   8.098  12.322   3.247  0.5928  0.0451  0.5073
 9567SOL    HW133512   8.053  12.397   3.209  0.2199 -0.4280 -0.0185
 9567SOL    HW233513   8.160  12.295   3.179  0.8775  0.0127  0.7799
 9568SOL     OW33514   2.010   9.265   0.211  0.0243  0.7215 -0.0587
 9568SOL    HW133515   2.060   9.196   0.167  2.4006  2.4344 -0.2467
 9568SOL    HW233516   1.950   9.297   0.144 -0.2588 -0.3446 -0.3334
 9569SOL     OW33517  10.397   8.963   5.644 -0.3175 -0.4375 -0.0471
 9569SOL    HW133518  10.425   9.053   5.627 -0.5543  0.0484  1.8436
 9569SOL    HW233519  10.477   8.920   5.677 -0.2153 -0.9228 -0.9061
 9570SOL     OW33520   8.836   1.719   5.147 -0.2500 -0.0188 -0.2652
 9570SOL    HW133521   8.833   1.624   5.159  0.0487 -0.0819 -0.6646
 9570SOL    HW233522   8.927   1.737   5.123 -0.0085  0.5159  0.9679
 9571SOL     OW33523   8.159  11.323   1.545  0.6059 -0.7350  0.3081
 9571SOL    HW133524   8.149  11.228   1.555  1.2553 -0.7694  0.6457
 9571SOL    HW233525   8.253  11.338   1.547  0.4900 -0.0227  0.8142
 9572SOL     OW33526   0.525   2.719   0.606  0.0514 -0.1061  0.5886
 9572SOL    HW133527   0.576   2.783   0.556  1.0612  0.0592  1.7686
 9572SOL    HW233528   0.435   2.752   0.603  0.2051  0.2594 -0.5057
 9573SOL     OW33529   2.126   0.517   4.139 -0.0570 -0.0983 -0.0440
 9573SOL    HW133530   2.169   0.601   4.153  1.3608 -0.8360  0.1921
 9573SOL    HW233531   2.062   0.510   4.210 -1.8871  1.7846 -1.3869
 9574SOL     OW33532   6.119   5.184   7.072 -0.0195  0.0280 -0.2590
 9574SOL    HW133533   6.058   5.218   7.007 -1.1128 -2.0014 -0.3805
 9574SOL    HW233534   6.128   5.091   7.050  3.4674  0.2739 -0.5041
 9575SOL     OW33535   2.895   3.456   1.322  0.0436  0.3548  0.0213
 9575SOL    HW133536   2.985   3.489   1.310  0.2490 -0.3558 -0.4731
 9575SOL    HW233537   2.857   3.459   1.234 -0.3436  0.4459  0.1926
 9576SOL     OW33538   5.608   0.999   2.393 -0.4631  0.1769 -0.2838
 9576SOL    HW133539   5.566   1.024   2.311  0.0831 -1.5882 -1.1408
 9576SOL    HW233540   5.604   0.904   2.394  0.6372  0.1106  1.1715
 9577SOL     OW33541   9.696  12.606   4.652 -0.2353 -0.0833 -0.5559
 9577SOL    HW133542   9.665  12.560   4.730  0.6451  1.9190  1.0826
 9577SOL    HW233543   9.620  12.654   4.620 -0.2830  0.1843 -0.0611
 9578SOL     OW33544   7.550   9.322   5.956  0.3136  0.0997  0.1687
 9578SOL    HW133545   7.578   9.284   5.872 -0.2256  0.5388 -0.2149
 9578SOL    HW233546   7.595   9.269   6.022  0.5274 -0.4291 -0.3877
 9579SOL     OW33547   6.153   5.756   8.303  0.2638 -0.4350  0.1752
 9579SOL    HW133548   6.067   5.785   8.273  1.0197  0.7905 -0.9282
 9579SOL    HW233549   6.214   5.819   8.265  1.8433 -2.3601 -0.6813
 9580SOL     OW33550   3.447  11.430   9.168 -0.6470 -0.5035 -0.0472
 9580SOL    HW133551   3.390  11.497   9.206 -0.3554 -0.7731  0.8936
 9580SOL    HW233552   3.438  11.442   9.073 -2.9454 -1.1045  0.0270
 9581SOL     OW33553   2.545   8.268   1.019  0.2779 -0.1841 -0.0661
 9581SOL    HW133554   2.480   8.311   0.963 -0.3545  0.4700  1.1315
 9581SOL    HW233555   2.585   8.202   0.962 -1.5186 -0.6942 -0.8415
 9582SOL     OW33556   4.189   1.610   6.188 -0.4041  0.3288 -0.2450
 9582SOL    HW133557   4.107   1.582   6.147 -2.0116  1.0863  2.2436
 9582SOL    HW233558   4.222   1.531   6.230 -0.2872  0.2034 -0.5718
 9583SOL     OW33559   0.984   4.955   1.058 -0.0320 -0.3138 -0.0114
 9583SOL    HW133560   1.042   4.880   1.055  0.2535 -0.2294  1.8139
 9583SOL    HW233561   0.964   4.975   0.967  1.6195 -1.2462 -0.6092
 9584SOL     OW33562   3.746   5.873   2.658 -0.4991  0.6046  0.1893
 9584SOL    HW133563   3.748   5.969   2.662  0.1536  0.5662  1.1726
 9584SOL    HW233564   3.738   5.846   2.750  0.6391 -0.3062  0.0416
 9585SOL     OW33565   8.545   8.586   0.397 -0.1276  0.4690  0.2052
 9585SOL    HW133566   8.478   8.641   0.356  0.2822  0.6976 -0.1712
 9585SOL    HW233567   8.611   8.574   0.328 -0.7056 -1.3869 -0.0716
 9586SOL     OW33568  11.969   8.543  11.344  0.3790  0.1891  0.0129
 9586SOL    HW133569  11.921   8.626  11.336 -0.6661 -0.2954  0.9229
 9586SOL    HW233570  12.008   8.529  11.258 -0.5028  0.9893 -0.5337
 9587SOL     OW33571   1.903   2.843   9.492 -0.9941 -0.1384 -0.2400
 9587SOL    HW133572   1.809   2.860   9.480 -0.6223  0.6857 -2.2129
 9587SOL    HW233573   1.943   2.864   9.408  0.9678 -0.6151  0.5178
 9588SOL     OW33574   8.128   0.346   5.727 -0.0434  0.3662 -0.7342
 9588SOL    HW133575   8.186   0.283   5.685  0.6479  0.5927 -0.1475
 9588SOL    HW233576   8.186   0.417   5.756 -0.7031  0.9094 -0.7122
 9589SOL     OW33577   4.084   0.061  11.561 -0.5440 -0.2501  0.4794
 9589SOL    HW133578   4.100   0.070  11.655 -0.3980  0.0739  0.4222
 9589SOL    HW233579   4.139  -0.013  11.534 -0.5013 -0.2716  0.6247
 9590SOL     OW33580   4.279   5.389   0.775 -0.0199 -0.3801 -0.2070
 9590SOL    HW133581   4.220   5.426   0.709  1.3145  1.8511 -0.2323
 9590SOL    HW233582   4.220   5.353   0.842 -1.3920 -0.2442 -1.3021
 9591SOL     OW33583   7.642  10.186   7.920 -0.3848  0.1945  0.0327
 9591SOL    HW133584   7.685  10.115   7.969 -1.3997  0.2570  1.0558
 9591SOL    HW233585   7.714  10.236   7.882  0.4330 -0.1380  1.0923
 9592SOL     OW33586  10.351   2.717   5.542 -0.0813  0.3440 -0.3836
 9592SOL    HW133587  10.316   2.630   5.521  0.7891  0.3216 -1.9421
 9592SOL    HW233588  10.390   2.708   5.628  0.6713 -1.0465 -0.8375
 9593SOL     OW33589  12.155   1.897   4.373  0.4112  0.6198 -0.0888
 9593SOL    HW133590  12.076   1.847   4.390  1.0271 -0.5311 -0.5447
 9593SOL    HW233591  12.124   1.987   4.359 -1.1388 -0.2818 -3.1846
 9594SOL     OW33592   6.185  10.293   6.193  0.2309 -0.3829  0.0162
 9594SOL    HW133593   6.211  10.366   6.250 -1.1137 -0.9415  1.4046
 9594SOL    HW233594   6.252  10.291   6.126 -0.0546  2.6074 -0.5035
 9595SOL     OW33595   6.993   6.936   2.192  0.1946 -0.1605  0.7765
 9595SOL    HW133596   6.964   6.924   2.282  4.0486  1.1743  2.3684
 9595SOL    HW233597   7.055   6.864   2.177  0.0807  0.0038 -0.6056
 9596SOL     OW33598  11.404   7.674   8.329 -0.2910 -0.5574 -0.4552
 9596SOL    HW133599  11.347   7.682   8.406  0.1609 -0.0210 -0.1714
 9596SOL    HW233600  11.469   7.744   8.340  0.8402 -1.5847 -0.4322
 9597SOL     OW33601   4.986   9.603   4.970 -0.0142 -0.0642 -0.3669
 9597SOL    HW133602   5.003   9.681   5.022 -0.1751 -0.4739  0.3131
 9597SOL    HW233603   4.944   9.636   4.890 -1.7694  0.3970  0.6961
 9598SOL     OW33604   1.467   0.811   3.440 -0.4105  0.9662 -0.1293
 9598SOL    HW133605   1.483   0.835   3.348 -1.2636 -0.3986 -0.6752
 9598SOL    HW233606   1.464   0.894   3.487  2.0431  1.6282 -0.9756
 9599SOL     OW33607   2.300   6.853   8.048 -0.3449 -0.4463 -0.1290
 9599SOL    HW133608   2.344   6.770   8.028  1.4510  0.2421  0.7701
 9599SOL    HW233609   2.314   6.907   7.971 -0.4993 -0.5663 -0.2431
 9600SOL     OW33610   0.267   8.384  11.152  0.2152  0.5157 -0.3993
 9600SOL    HW133611   0.279   8.292  11.131 -2.5746 -0.3281  1.0885
 9600SOL    HW233612   0.343   8.428  11.115  0.6438 -2.0949 -2.9318
 9601SOL     OW33613  11.696   7.222   7.198  0.2141 -0.0125 -0.3213
 9601SOL    HW133614  11.673   7.209   7.290  2.1386  2.2967  0.5941
 9601SOL    HW233615  11.643   7.158   7.150 -0.3651 -1.7257  2.4255
 9602SOL     OW33616   0.266  10.829   2.725  0.5799  0.3057  0.5349
 9602SOL    HW133617   0.221  10.861   2.646  0.8791 -1.9159 -0.6144
 9602SOL    HW233618   0.216  10.866   2.798 -1.4073  0.1889 -0.6924
 9603SOL     OW33619   0.103   0.635  10.960  0.2055 -0.3408 -0.3007
 9603SOL    HW133620   0.029   0.631  10.900  0.1312 -0.8697 -0.1757
 9603SOL    HW233621   0.156   0.559  10.938 -0.4069 -1.2076  1.0587
 9604SOL     OW33622  10.631  12.187   6.070  0.0523 -0.0366 -0.4087
 9604SOL    HW133623  10.570  12.144   6.011 -0.8601 -2.4426  2.1191
 9604SOL    HW233624  10.707  12.129   6.073 -0.6683 -0.9486  2.0961
 9605SOL     OW33625  10.725   4.842   5.634  0.3153  0.4230  0.6416
 9605SOL    HW133626  10.766   4.908   5.580  1.2999 -0.8209 -0.1944
 9605SOL    HW233627  10.756   4.860   5.723  1.6395  0.2992  0.2254
 9606SOL     OW33628   3.181   2.044   1.324  0.0586  0.0387  0.1852
 9606SOL    HW133629   3.153   2.130   1.292  0.5011  0.7487  1.6132
 9606SOL    HW233630   3.101   1.991   1.323 -0.7938  1.2237  1.6482
 9607SOL     OW33631   0.839   9.329  10.386 -0.1204 -0.0744 -0.1737
 9607SOL    HW133632   0.908   9.376  10.339  0.7057 -0.7751  0.2940
 9607SOL    HW233633   0.871   9.325  10.476 -1.0820  0.1398  0.1823
 9608SOL     OW33634   2.713   8.802  12.035 -0.0099 -0.2212 -0.2352
 9608SOL    HW133635   2.634   8.757  12.065 -0.6702  1.1243  0.1004
 9608SOL    HW233636   2.683   8.858  11.964  0.1566  1.9596  1.2974
 9609SOL     OW33637   5.925   2.749   9.535 -0.2710  0.0176  0.2589
 9609SOL    HW133638   5.948   2.842   9.539  0.5445 -0.1951  0.7578
 9609SOL    HW233639   5.965   2.711   9.613 -0.2210 -0.8357 -0.1711
 9610SOL     OW33640   1.926   3.850  10.669  0.4475 -0.1855  0.3212
 9610SOL    HW133641   1.930   3.817  10.579 -2.3435  0.1805 -0.0182
 9610SOL    HW233642   1.941   3.944  10.660  0.4709 -0.1921  0.2872
 9611SOL     OW33643   4.847   2.832  10.787 -0.2412  0.5659 -0.1302
 9611SOL    HW133644   4.915   2.777  10.747 -0.9957 -0.9253  0.5564
 9611SOL    HW233645   4.804   2.874  10.712  0.3785  0.2657 -0.6754
 9612SOL     OW33646  11.390   0.249   1.913  0.1344  0.3219  0.2023
 9612SOL    HW133647  11.330   0.240   1.839  1.5010  1.4829 -1.1452
 9612SOL    HW233648  11.414   0.160   1.936 -2.6652 -0.2219  1.3318
 9613SOL     OW33649   8.368   9.547   8.135  0.3346 -0.3398 -0.1838
 9613SOL    HW133650   8.346   9.522   8.225 -0.4755 -1.4490 -0.6700
 9613SOL    HW233651   8.284   9.575   8.097  0.5841 -0.3552 -0.7459
 9614SOL     OW33652   1.752   3.409   3.966  0.5200 -0.3184  0.1538
 9614SOL    HW133653   1.787   3.446   4.048 -0.0453 -1.7445  1.0825
 9614SOL    HW233654   1.666   3.375   3.990 -1.3780  2.5657 -1.9358
 9615SOL     OW33655   9.518   0.106   8.115 -0.1080  0.3831  0.5199
 9615SOL    HW133656   9.544   0.197   8.101 -1.4867  0.8973  1.1552
 9615SOL    HW233657   9.431   0.111   8.153 -0.6203 -1.2326 -0.3302
 9616SOL     OW33658   7.631   8.032  12.337  0.3367  0.0533 -0.0873
 9616SOL    HW133659   7.637   7.976  12.415 -3.4747 -1.2778 -0.4999
 9616SOL    HW233660   7.664   7.977  12.266 -1.9939 -1.2897 -0.2505
 9617SOL     OW33661   7.740   3.540   1.308 -0.5601 -0.2681  0.2385
 9617SOL    HW133662   7.699   3.510   1.227  0.4445 -0.9930 -0.0273
 9617SOL    HW233663   7.797   3.467   1.335 -1.0889 -0.1579  1.7622
 9618SOL     OW33664   9.861  10.742   8.230  0.1227  0.5554  0.1473
 9618SOL    HW133665   9.951  10.727   8.258 -0.0862 -0.0057  0.5315
 9618SOL    HW233666   9.869  10.782   8.143  0.7488  1.3080  0.5445
 9619SOL     OW33667  11.676  11.668   6.880  0.1605 -0.0593 -0.0383
 9619SOL    HW133668  11.697  11.688   6.971  0.3032  0.8850 -0.2720
 9619SOL    HW233669  11.582  11.684   6.873  0.1842  0.0556 -0.1017
 9620SOL     OW33670   1.642   3.374   7.433 -0.0800  0.0585 -0.1766
 9620SOL    HW133671   1.673   3.436   7.499  0.3262 -0.4698  0.1332
 9620SOL    HW233672   1.563   3.335   7.472  1.4255 -1.9572  1.0467
 9621SOL     OW33673  11.854   7.130   1.251  0.0616  0.1124  0.3339
 9621SOL    HW133674  11.797   7.075   1.198 -0.8227  2.2444 -1.0801
 9621SOL    HW233675  11.940   7.088   1.247 -0.7362 -1.5867  0.0662
 9622SOL     OW33676   6.084   0.377  11.803 -0.2932 -0.0631  0.0249
 9622SOL    HW133677   6.168   0.419  11.787 -0.4302  0.1778 -0.0763
 9622SOL    HW233678   6.041   0.434  11.867  1.1091 -2.1262  2.9935
 9623SOL     OW33679  12.322  10.411   8.433  0.3143 -0.5005 -0.5518
 9623SOL    HW133680  12.369  10.415   8.516  0.4032  0.9304 -0.6500
 9623SOL    HW233681  12.266  10.334   8.441  0.3094 -0.3774  0.8283
 9624SOL     OW33682  10.881   1.677  12.369  0.0838 -0.5184 -0.3119
 9624SOL    HW133683  10.864   1.756  12.317 -0.0105 -1.6814 -2.1583
 9624SOL    HW233684  10.827   1.609  12.328  0.7106 -1.7078  0.7632
 9625SOL     OW33685   1.890   0.107   1.348 -0.4488  0.0373  0.3967
 9625SOL    HW133686   1.944   0.173   1.304 -0.2460 -0.4299 -0.0709
 9625SOL    HW233687   1.936   0.091   1.431  0.3066 -0.5611 -0.1180
 9626SOL     OW33688   7.677   4.690   7.777  0.1783 -0.0237  0.3947
 9626SOL    HW133689   7.639   4.773   7.747 -0.7505 -0.0084  1.5405
 9626SOL    HW233690   7.612   4.655   7.839  1.4002 -0.6975  1.3361
 9627SOL     OW33691   7.877   5.588   4.360  1.0200  0.1201  0.0378
 9627SOL    HW133692   7.899   5.652   4.428 -0.4233  1.5716 -0.7782
 9627SOL    HW233693   7.819   5.525   4.403 -2.0129  2.4580 -0.2972
 9628SOL     OW33694   4.919   6.132   8.139  0.2666  0.0138 -0.0990
 9628SOL    HW133695   4.945   6.102   8.051 -0.9582  0.2157 -0.5556
 9628SOL    HW233696   4.826   6.110   8.144 -0.0484  1.4050  0.5494
 9629SOL     OW33697   3.928  12.145   1.688  0.1061 -0.5340 -0.0643
 9629SOL    HW133698   3.915  12.053   1.709  0.5215 -0.7312 -0.6413
 9629SOL    HW233699   4.021  12.160   1.703  0.2854 -0.5235 -1.1292
 9630SOL     OW33700   9.447   2.689   3.507  0.5599  0.3936  0.1801
 9630SOL    HW133701   9.449   2.603   3.465  2.4064  2.1406 -3.8196
 9630SOL    HW233702   9.521   2.688   3.567 -1.5070 -1.8078  3.0130
 9631SOL     OW33703  11.087  11.296   5.872  0.0006 -0.6703  0.6174
 9631SOL    HW133704  11.117  11.275   5.784  0.6347 -0.9148  0.8837
 9631SOL    HW233705  11.037  11.377   5.862  1.0619 -0.0427  0.2068
 9632SOL     OW33706   0.616   3.175   7.093  0.0722 -0.7471  0.1744
 9632SOL    HW133707   0.634   3.081   7.102  0.8540 -0.9196 -2.3016
 9632SOL    HW233708   0.665   3.201   7.015  1.0625  2.0784  1.6258
 9633SOL     OW33709   0.313   4.506   4.165 -0.0150  0.0286 -0.0444
 9633SOL    HW133710   0.345   4.514   4.254  1.1361 -0.5894 -0.3892
 9633SOL    HW233711   0.253   4.432   4.168  0.9197 -0.7436 -0.0110
 9634SOL     OW33712   4.132   3.993  10.536  0.1451  0.4865  0.3169
 9634SOL    HW133713   4.105   4.085  10.531 -3.2951 -0.3310  1.2355
 9634SOL    HW233714   4.059   3.944  10.498  1.8239 -1.9340 -0.0523
 9635SOL     OW33715   3.659   3.628   3.528  0.2876 -0.1239  0.1229
 9635SOL    HW133716   3.663   3.595   3.618 -1.3993  0.2665  0.3673
 9635SOL    HW233717   3.614   3.559   3.480 -1.5708  0.9268  0.2494
 9636SOL     OW33718   2.486   4.191   8.709  0.2598  0.9521 -0.9660
 9636SOL    HW133719   2.475   4.221   8.800  1.1125  3.6941 -1.6757
 9636SOL    HW233720   2.548   4.118   8.716 -1.7171 -0.6966  0.8574
 9637SOL     OW33721   7.808   8.443   7.968  0.0708 -0.4227 -0.0002
 9637SOL    HW133722   7.759   8.371   7.927 -0.8597 -0.4040  1.0151
 9637SOL    HW233723   7.741   8.502   8.001  0.7690 -0.4123  1.4737
 9638SOL     OW33724  10.659   9.938   5.870  0.1051  0.3411  0.2092
 9638SOL    HW133725  10.615   9.892   5.799 -1.3480  1.0953  0.5881
 9638SOL    HW233726  10.724   9.993   5.826  0.9094 -0.9992 -0.3352
 9639SOL     OW33727   4.537  11.834   9.072  0.8919 -0.5233  0.1642
 9639SOL    HW133728   4.511  11.913   9.119  1.6089  0.6891 -1.3996
 9639SOL    HW233729   4.602  11.864   9.009  0.0014 -2.0800 -1.5936
 9640SOL     OW33730   1.303   8.123   9.645  0.2526  0.0043  0.3464
 9640SOL    HW133731   1.254   8.097   9.723 -1.9117  3.6403  0.4667
 9640SOL    HW233732   1.237   8.126   9.576  1.8370 -1.7007 -1.3585
 9641SOL     OW33733   4.397   2.403   5.893  0.3058  0.0786 -0.3190
 9641SOL    HW133734   4.415   2.433   5.982 -0.8457 -2.8715  1.0492
 9641SOL    HW233735   4.348   2.474   5.852  0.0321  1.1249  1.7447
 9642SOL     OW33736   1.328   6.288  11.128  0.3336 -0.4628  0.0764
 9642SOL    HW133737   1.270   6.335  11.188 -1.4805  0.6436 -2.3852
 9642SOL    HW233738   1.270   6.246  11.065  2.1431  0.0048 -2.0270
 9643SOL     OW33739   2.068  11.449   9.564 -0.0507 -0.1897 -0.3227
 9643SOL    HW133740   2.099  11.385   9.628 -1.0722 -0.8734 -0.4770
 9643SOL    HW233741   1.995  11.493   9.607  1.2323  1.5760  0.1348
 9644SOL     OW33742   4.182   1.495   2.428 -0.4091  0.5889 -0.3716
 9644SOL    HW133743   4.136   1.578   2.440 -1.7468 -0.1445 -0.3032
 9644SOL    HW233744   4.194   1.488   2.333 -0.3793  0.8124 -0.3850
 9645SOL     OW33745   8.610   6.733   2.720 -0.8079 -0.3118 -0.2123
 9645SOL    HW133746   8.560   6.652   2.711 -0.5756 -0.5158  0.3202
 9645SOL    HW233747   8.616   6.747   2.815  1.4574 -1.1158 -0.1863
 9646SOL     OW33748   2.688   8.785   1.090  0.1474  0.0532  0.1535
 9646SOL    HW133749   2.669   8.691   1.098 -2.5994  0.5102 -0.0037
 9646SOL    HW233750   2.653   8.810   1.004  2.7791  0.8692 -0.7673
 9647SOL     OW33751   9.497   7.049  10.092  0.0125 -0.3217 -0.3394
 9647SOL    HW133752   9.545   7.064  10.173 -0.0306 -0.1852 -0.3378
 9647SOL    HW233753   9.439   6.976  10.112 -1.0624  0.6482  0.2266
 9648SOL     OW33754   6.001   7.055  12.621 -0.4340  0.0688 -0.4092
 9648SOL    HW133755   5.975   6.963  12.624 -2.3118  0.5612  0.1269
 9648SOL    HW233756   6.045   7.071  12.705  0.5294 -0.4990 -0.8017
 9649SOL     OW33757   8.363   1.883   0.977 -0.1364 -0.1375  0.4310
 9649SOL    HW133758   8.322   1.958   0.935 -1.4113 -0.4750  1.0428
 9649SOL    HW233759   8.441   1.919   1.019  0.4399  0.4426 -1.0446
 9650SOL     OW33760  12.489   8.768   0.374 -0.1237  0.0725  0.3295
 9650SOL    HW133761  12.416   8.743   0.318 -0.2073 -1.1556  0.9608
 9650SOL    HW233762  12.486   8.864   0.375 -1.2946  0.0600 -0.2123
 9651SOL     OW33763   5.055   3.216   0.328  0.0545  0.0624  0.1800
 9651SOL    HW133764   5.116   3.174   0.389  1.0921 -0.1658 -0.9746
 9651SOL    HW233765   5.103   3.220   0.245 -1.7618 -0.7499 -0.9577
 9652SOL     OW33766   2.241  11.304   1.436 -0.1322  0.1822 -0.3502
 9652SOL    HW133767   2.257  11.314   1.342  0.7138 -0.7529 -0.3170
 9652SOL    HW233768   2.161  11.355   1.451  0.1717  1.0206 -1.4140
 9653SOL     OW33769   4.839   4.379   2.312  0.0879  0.1559 -0.2672
 9653SOL    HW133770   4.785   4.390   2.390  0.0014 -2.2176  0.0719
 9653SOL    HW233771   4.929   4.385   2.344  0.0500 -0.3507 -0.0648
 9654SOL     OW33772   2.168  11.655   9.410 -0.4965  0.6015  0.2697
 9654SOL    HW133773   2.139  11.615   9.492  0.9784 -1.5261 -0.1579
 9654SOL    HW233774   2.120  11.608   9.342  0.5408  0.2240 -0.2148
 9655SOL     OW33775   3.898   2.357   3.237 -0.2086 -0.2329 -0.1739
 9655SOL    HW133776   3.963   2.297   3.200  0.3590 -0.5352  1.2126
 9655SOL    HW233777   3.821   2.346   3.182  0.2422 -1.4530 -0.6077
 9656SOL     OW33778   4.654   6.447   7.660 -0.2322  0.0484 -0.2303
 9656SOL    HW133779   4.708   6.518   7.695  1.3198 -0.4641 -1.4536
 9656SOL    HW233780   4.652   6.463   7.566  0.2924 -1.6080 -0.5457
 9657SOL     OW33781   9.628   0.528   0.067  0.2670  0.2913  0.1106
 9657SOL    HW133782   9.712   0.565   0.096 -0.7153  1.7985  1.1739
 9657SOL    HW233783   9.635   0.525  -0.028  1.0715  1.6034  0.1001
 9658SOL     OW33784   8.810  11.735   8.224 -0.3856 -0.1742 -0.3964
 9658SOL    HW133785   8.781  11.819   8.187 -0.2517  0.2632  0.4772
 9658SOL    HW233786   8.897  11.721   8.186  0.8835  1.5484  1.6513
 9659SOL     OW33787   4.308   7.436   9.837 -0.4489  0.5166  0.5746
 9659SOL    HW133788   4.274   7.408   9.752 -0.3047  2.0950 -0.0421
 9659SOL    HW233789   4.350   7.359   9.874  0.2382  0.0337 -1.1677
 9660SOL     OW33790   7.048  10.007   9.953 -0.3637  0.0361 -0.5924
 9660SOL    HW133791   7.036   9.937  10.017 -0.3780 -0.3937 -1.0539
 9660SOL    HW233792   7.000  10.082   9.989  2.6398  1.0547  1.7696
 9661SOL     OW33793  11.477   3.252   2.782  0.3546 -0.0779 -0.6789
 9661SOL    HW133794  11.464   3.336   2.739 -2.1946 -0.3763 -0.6562
 9661SOL    HW233795  11.414   3.193   2.739  0.1752 -1.2600  1.0950
 9662SOL     OW33796   5.964   5.410  10.306 -0.0209  0.0327  0.3952
 9662SOL    HW133797   5.968   5.463  10.227 -2.0420 -0.0966  0.1656
 9662SOL    HW233798   6.048   5.364  10.308  0.4011  0.6622 -1.2149
 9663SOL     OW33799  10.635   2.782   1.294  0.6709  0.7845  0.2644
 9663SOL    HW133800  10.565   2.719   1.280  0.9806  0.6397 -0.6855
 9663SOL    HW233801  10.670   2.761   1.381  1.4884 -1.0604 -0.4597
 9664SOL     OW33802   8.395  10.524   7.212 -0.5964  0.1080  0.0876
 9664SOL    HW133803   8.396  10.523   7.308 -1.5578  0.8453  0.1224
 9664SOL    HW233804   8.322  10.583   7.190 -0.8922 -0.6813 -1.0949
 9665SOL     OW33805   9.853   7.044   2.350  0.4838 -0.6497  0.1609
 9665SOL    HW133806   9.788   7.004   2.292  1.1524 -2.2869  0.4846
 9665SOL    HW233807   9.891   7.115   2.299 -1.8487  0.6876  0.1178
 9666SOL     OW33808   2.629  12.096   0.084  0.2244  0.3737  0.2136
 9666SOL    HW133809   2.584  12.177   0.060 -1.6649 -0.9277 -0.9449
 9666SOL    HW233810   2.709  12.097   0.031  0.3960  1.6193  0.4650
 9667SOL     OW33811   9.060   8.884   5.838 -0.2898  0.0316  0.1561
 9667SOL    HW133812   8.997   8.848   5.775 -0.2316  1.6618 -0.9048
 9667SOL    HW233813   9.119   8.811   5.857 -1.0522 -0.8471 -0.7251
 9668SOL     OW33814   5.689   9.832   6.285 -0.0564  0.6122  0.2334
 9668SOL    HW133815   5.739   9.879   6.352  0.1751  1.0134 -0.2182
 9668SOL    HW233816   5.702   9.740   6.307 -0.4133  0.7469  1.0517
 9669SOL     OW33817   5.653  12.116  12.352 -0.0187  0.1643 -0.1414
 9669SOL    HW133818   5.591  12.056  12.394  1.1236 -0.4377  0.7326
 9669SOL    HW233819   5.723  12.060  12.319 -0.0053  0.8149 -1.3047
 9670SOL     OW33820   5.346  12.570   1.924  0.8719 -0.3797 -0.7158
 9670SOL    HW133821   5.253  12.570   1.900  0.8057 -0.5067 -0.4565
 9670SOL    HW233822   5.383  12.642   1.874  0.4781  0.1775 -0.2220
 9671SOL     OW33823   3.884   0.093   8.341 -0.5061 -0.0451  0.2527
 9671SOL    HW133824   3.918   0.134   8.421 -1.9932 -0.5634  1.1947
 9671SOL    HW233825   3.905   0.155   8.271  1.4860  0.0751  0.9068
 9672SOL     OW33826   5.423   3.687   1.347  0.2249 -0.1315 -0.3212
 9672SOL    HW133827   5.437   3.743   1.423  0.4540  1.0262 -1.1861
 9672SOL    HW233828   5.330   3.666   1.348  0.3951 -0.9464  0.7994
 9673SOL     OW33829   2.738   0.968   4.552  0.4772  0.2679 -0.0553
 9673SOL    HW133830   2.754   1.013   4.469 -2.3390  1.3295 -0.1441
 9673SOL    HW233831   2.826   0.950   4.587  1.7600 -0.1600 -3.1689
 9674SOL     OW33832   9.024   5.251   8.007  0.3778 -0.0543  0.2137
 9674SOL    HW133833   9.104   5.200   8.021  1.2482  1.1428 -0.2367
 9674SOL    HW233834   8.968   5.228   8.081 -0.4737 -3.7956 -1.3565
 9675SOL     OW33835  11.782   6.549  11.992 -0.2999  0.1088 -0.3438
 9675SOL    HW133836  11.731   6.510  11.921 -3.0169 -0.3292  1.6540
 9675SOL    HW233837  11.873   6.531  11.970 -1.0149 -0.0190 -3.6356
 9676SOL     OW33838   3.376   1.586   1.114 -0.3343  0.7122 -0.8714
 9676SOL    HW133839   3.346   1.574   1.023 -1.4395 -0.6912 -0.3561
 9676SOL    HW233840   3.296   1.579   1.166  0.3238  1.2922  0.2492
 9677SOL     OW33841  12.049  10.639   2.203 -0.3411 -0.0970 -0.0767
 9677SOL    HW133842  12.013  10.578   2.268  0.0776 -1.0351 -0.7134
 9677SOL    HW233843  11.972  10.675   2.159 -0.6387  0.6478  1.0131
 9678SOL     OW33844   6.780  10.463   3.205 -1.0822 -0.2371  0.1588
 9678SOL    HW133845   6.830  10.531   3.249 -1.6898 -0.3019  0.9736
 9678SOL    HW233846   6.723  10.510   3.144 -0.5247 -0.1177 -0.2721
 9679SOL     OW33847   7.822   6.107   0.511  0.1495  0.4929 -0.0852
 9679SOL    HW133848   7.766   6.098   0.434  3.2188 -0.2735 -2.3973
 9679SOL    HW233849   7.794   6.189   0.552 -1.7692  0.7777 -1.8038
 9680SOL     OW33850  11.166   5.657   2.436 -0.2686  0.6509  0.1750
 9680SOL    HW133851  11.232   5.702   2.383 -0.2100 -1.2499 -1.4916
 9680SOL    HW233852  11.214   5.616   2.507  0.2268  0.1118 -0.4611
 9681SOL     OW33853   1.260   0.079  11.418 -0.0768 -0.6781 -0.1950
 9681SOL    HW133854   1.294   0.090  11.330  0.3410 -1.8337 -0.1950
 9681SOL    HW233855   1.168   0.105  11.411  0.5047  1.5160 -0.4100
 9682SOL     OW33856   7.833   4.489   9.462 -0.0028  0.0423 -0.2054
 9682SOL    HW133857   7.818   4.573   9.418 -1.8851  0.5495  1.2400
 9682SOL    HW233858   7.913   4.454   9.422 -0.7905  1.1069 -2.9601
 9683SOL     OW33859   2.054   4.719  10.583 -0.5933 -0.2429  0.6465
 9683SOL    HW133860   2.039   4.806  10.622  0.2019 -0.3478  1.2151
 9683SOL    HW233861   2.134   4.729  10.532 -0.2805 -0.7350  1.0294
 9684SOL     OW33862   7.067   4.691   9.333  0.1538 -0.3368 -0.2574
 9684SOL    HW133863   6.997   4.751   9.308 -1.3727 -1.8938  0.1540
 9684SOL    HW233864   7.087   4.643   9.253  1.0367  0.3366 -0.4627
 9685SOL     OW33865  11.335  11.572   1.726 -0.1551 -0.2279  0.5590
 9685SOL    HW133866  11.423  11.568   1.762 -0.4395 -1.3408  1.1913
 9685SOL    HW233867  11.288  11.633   1.782  0.1940  0.3447  0.2383
 9686SOL     OW33868   4.143   8.326   4.518  0.2492 -0.1859  0.2978
 9686SOL    HW133869   4.129   8.241   4.477 -0.9023  0.7798 -1.4632
 9686SOL    HW233870   4.057   8.369   4.515  0.8498  1.1207  0.9114
 9687SOL     OW33871  10.681   5.435   8.141 -0.4705 -0.3297 -0.3081
 9687SOL    HW133872  10.741   5.506   8.119  0.0934 -0.9649 -0.8432
 9687SOL    HW233873  10.702   5.412   8.231 -0.0082 -0.4548 -0.4490
 9688SOL     OW33874   6.597   0.101  11.047 -0.4418 -0.2051  0.3721
 9688SOL    HW133875   6.650   0.163  10.997 -0.0693  0.1282  1.1719
 9688SOL    HW233876   6.561   0.042  10.981  1.0459 -0.5483 -0.1724
 9689SOL     OW33877   1.667   2.438   8.739 -0.5670  0.3469  0.4355
 9689SOL    HW133878   1.583   2.435   8.692 -0.5468 -0.9096  0.4354
 9689SOL    HW233879   1.663   2.363   8.798  1.9191 -1.8647 -1.9667
 9690SOL     OW33880   8.167   3.807  10.725  0.3469 -0.1707  0.1277
 9690SOL    HW133881   8.254   3.847  10.727 -0.0796  0.8135 -0.2773
 9690SOL    HW233882   8.107   3.879  10.745 -0.2999 -1.1651  2.0380
 9691SOL     OW33883  12.515  11.173  11.532  0.1614 -0.0681  0.0086
 9691SOL    HW133884  12.507  11.183  11.627  2.3439 -0.5896  0.3189
 9691SOL    HW233885  12.520  11.078  11.519 -0.9328 -0.0365 -0.7408
 9692SOL     OW33886   8.682  10.917   0.886  0.1533 -0.4816  0.3587
 9692SOL    HW133887   8.721  10.863   0.818  0.8502  0.9434 -0.4164
 9692SOL    HW233888   8.598  10.945   0.849  0.3500 -0.0399  0.2352
 9693SOL     OW33889   7.157  12.066   6.831 -0.4253  0.0184  0.6015
 9693SOL    HW133890   7.193  11.978   6.844 -1.6974 -0.2034  3.3397
 9693SOL    HW233891   7.204  12.100   6.755  0.4432 -2.8262 -0.2581
 9694SOL     OW33892   1.599   8.360   7.577  0.3107 -0.2612  0.0747
 9694SOL    HW133893   1.660   8.431   7.600 -0.2860  0.8948 -1.7016
 9694SOL    HW233894   1.516   8.385   7.617  0.1464 -0.0497 -0.3956
 9695SOL     OW33895  11.670   7.975   3.877 -0.3152  0.5878  0.5356
 9695SOL    HW133896  11.642   7.884   3.881  0.9152  0.0653 -1.3885
 9695SOL    HW233897  11.594   8.024   3.909 -1.5189 -1.0308  0.3205
 9696SOL     OW33898   2.562   8.346   5.805  0.0336 -0.3629  0.2995
 9696SOL    HW133899   2.547   8.257   5.773  1.7569 -1.1769  1.6077
 9696SOL    HW233900   2.591   8.394   5.728 -1.5690 -0.7158 -0.5698
 9697SOL     OW33901   3.356  10.502   9.115 -0.1144 -0.6025 -0.2279
 9697SOL    HW133902   3.308  10.571   9.162  0.2648  0.0317 -0.7613
 9697SOL    HW233903   3.309  10.493   9.032  1.9809  1.7034 -1.8045
 9698SOL     OW33904   4.381   0.987   1.102 -0.7240  1.1269  0.3303
 9698SOL    HW133905   4.471   0.953   1.105 -1.2618 -0.3200  1.9991
 9698SOL    HW233906   4.386   1.063   1.044  0.8111 -1.0594 -2.6656
 9699SOL     OW33907  10.187   5.385   2.700  0.2141  0.5685 -0.2603
 9699SOL    HW133908  10.179   5.323   2.772  2.2904  0.6219  0.0693
 9699SOL    HW233909  10.097   5.397   2.669 -0.6640  0.0854  1.9081
 9700SOL     OW33910   5.419   6.082   3.191  0.2190 -0.3384 -0.4420
 9700SOL    HW133911   5.503   6.037   3.196  0.5884  0.2914 -0.8360
 9700SOL    HW233912   5.440   6.175   3.197 -0.4106 -0.1536 -0.8684
 9701SOL     OW33913   1.849   3.267   9.365  0.1042  0.6439 -0.0730
 9701SOL    HW133914   1.902   3.201   9.408 -0.7178 -0.6948 -1.0526
 9701SOL    HW233915   1.864   3.347   9.415  1.9198 -0.0346  0.5130
 9702SOL     OW33916   1.815  11.617  10.706  0.0902  0.3926 -0.6207
 9702SOL    HW133917   1.792  11.593  10.616 -0.5928 -0.1193 -0.3157
 9702SOL    HW233918   1.902  11.656  10.699  0.0084  0.4270 -1.5142
 9703SOL     OW33919   3.781   2.578   3.742 -0.5843 -0.6546 -0.7074
 9703SOL    HW133920   3.782   2.541   3.653 -3.0131 -1.1488 -0.6044
 9703SOL    HW233921   3.688   2.587   3.763 -0.0611  0.5106  1.3774
 9704SOL     OW33922   3.190   7.155   8.679 -0.1282  0.0948 -0.1860
 9704SOL    HW133923   3.126   7.087   8.659 -0.0570 -0.4231  1.2005
 9704SOL    HW233924   3.153   7.235   8.644 -2.3107  0.1015  1.9286
 9705SOL     OW33925  11.040   2.771   5.338  0.2263  0.0603 -0.1408
 9705SOL    HW133926  11.077   2.744   5.421  0.6063  1.7210  0.2758
 9705SOL    HW233927  11.104   2.833   5.302 -0.4609  0.2306 -1.1130
 9706SOL     OW33928   9.276   2.729   7.508  0.3879 -0.1926 -0.4204
 9706SOL    HW133929   9.223   2.797   7.466  0.6904  0.5577  0.3580
 9706SOL    HW233930   9.213   2.679   7.561  0.3647  0.4034  0.1350
 9707SOL     OW33931  10.769   7.179   5.909 -0.6378  0.3947 -0.0130
 9707SOL    HW133932  10.737   7.237   5.840 -0.2684  0.1837 -0.3690
 9707SOL    HW233933  10.693   7.164   5.965 -0.5132  1.9935  0.6525
 9708SOL     OW33934   4.744  10.533   6.312  0.1467 -0.3032  0.6740
 9708SOL    HW133935   4.658  10.499   6.335 -0.3246 -0.3715 -1.0603
 9708SOL    HW233936   4.789  10.460   6.271  0.9564 -0.1874  1.3103
 9709SOL     OW33937   5.488   5.259  11.597 -0.4785  0.0338 -0.4862
 9709SOL    HW133938   5.576   5.246  11.562  0.8903 -1.0297  2.9606
 9709SOL    HW233939   5.431   5.213  11.536  1.7913 -2.3953 -0.9416
 9710SOL     OW33940  11.699  10.417  10.502 -0.0312  0.3385 -0.0439
 9710SOL    HW133941  11.725  10.326  10.515 -0.1409  0.3772  0.4659
 9710SOL    HW233942  11.692  10.453  10.590  0.2815  0.9158 -0.2472
 9711SOL     OW33943   1.663   9.102   0.141  0.0146 -0.3195 -0.3700
 9711SOL    HW133944   1.739   9.050   0.169  1.8527  2.3859  0.0371
 9711SOL    HW233945   1.592   9.071   0.196  0.8474 -2.7399 -0.5270
 9712SOL     OW33946   3.098  10.309  10.722  0.2476  0.5195  0.1262
 9712SOL    HW133947   3.149  10.347  10.794  0.4357 -0.5191  0.5733
 9712SOL    HW233948   3.014  10.354  10.725  0.4630  0.8938  0.6347
 9713SOL     OW33949  11.087   1.348   1.344  0.3909 -0.6570  0.5953
 9713SOL    HW133950  11.034   1.344   1.264 -0.1046  1.8832  0.7179
 9713SOL    HW233951  11.027   1.377   1.412  1.6724  1.4567  0.9222
 9714SOL     OW33952  10.690   8.530   3.467 -0.4039 -0.6274  0.4126
 9714SOL    HW133953  10.661   8.599   3.525  0.1358 -1.4861  1.7444
 9714SOL    HW233954  10.620   8.465   3.469 -1.0054 -0.0556 -0.9971
 9715SOL     OW33955   6.190  11.101   5.564 -0.4365 -0.1635  0.3110
 9715SOL    HW133956   6.170  11.195   5.567 -1.0817 -0.2729 -0.1501
 9715SOL    HW233957   6.153  11.072   5.480  1.2965 -0.4961 -0.3725
 9716SOL     OW33958   2.599   7.465   8.132  0.0323  0.9560  0.8614
 9716SOL    HW133959   2.627   7.551   8.102  2.1224  0.0853  0.0987
 9716SOL    HW233960   2.662   7.442   8.201 -0.6662  0.1737  1.2563
 9717SOL     OW33961   2.570  11.292   0.649  0.6408  0.4725 -0.0363
 9717SOL    HW133962   2.571  11.203   0.614  1.7616  0.3975  0.1470
 9717SOL    HW233963   2.518  11.286   0.729 -0.1474  0.2010 -0.5675
 9718SOL     OW33964   2.504   3.749   8.629  0.0818 -0.0254  0.1213
 9718SOL    HW133965   2.423   3.749   8.681 -0.1299 -1.6339 -0.1545
 9718SOL    HW233966   2.478   3.787   8.545  0.4412  2.6552  1.1034
 9719SOL     OW33967   2.688  11.251   7.235 -0.7019 -0.5263  0.2060
 9719SOL    HW133968   2.667  11.201   7.156  1.3389 -0.2815 -0.5544
 9719SOL    HW233969   2.765  11.207   7.271 -0.6435  0.3224  1.1561
 9720SOL     OW33970   6.523   7.715   0.362 -0.1578 -0.8208  0.0868
 9720SOL    HW133971   6.461   7.762   0.307  0.7220 -1.1654 -1.2460
 9720SOL    HW233972   6.596   7.694   0.304  0.3356 -2.1355  1.1196
 9721SOL     OW33973   2.717   7.984   1.683 -0.6466  0.2228 -0.2937
 9721SOL    HW133974   2.778   8.057   1.673 -1.0795  0.4176 -1.7016
 9721SOL    HW233975   2.767   7.918   1.731  0.3416  0.7727 -0.5316
 9722SOL     OW33976   9.661   9.048   3.555  0.5549  1.0168 -0.0216
 9722SOL    HW133977   9.704   8.968   3.587 -1.9830 -0.7881 -0.7903
 9722SOL    HW233978   9.646   9.100   3.633 -1.4193 -1.2265  1.2411
 9723SOL     OW33979   0.429  11.569  11.444  0.1892 -0.2216  0.1670
 9723SOL    HW133980   0.369  11.641  11.465  2.2197  2.2952 -1.9075
 9723SOL    HW233981   0.371  11.495  11.426 -2.2811  1.7082 -0.5087
 9724SOL     OW33982   1.221   1.298   2.830 -0.5126  0.2244 -0.2069
 9724SOL    HW133983   1.137   1.297   2.783 -0.8973  2.2800  0.3576
 9724SOL    HW233984   1.239   1.390   2.845  1.7471 -0.1898 -0.0679
 9725SOL     OW33985   0.935   7.870   2.231 -0.2750  0.8578 -0.0309
 9725SOL    HW133986   0.872   7.827   2.289  2.3429 -1.4455  1.3405
 9725SOL    HW233987   0.971   7.941   2.284  0.8508 -0.1294  0.5484
 9726SOL     OW33988   4.460   9.497  10.644 -0.1528  0.1750 -0.6309
 9726SOL    HW133989   4.499   9.467  10.727  1.0456  0.7206 -0.9673
 9726SOL    HW233990   4.393   9.560  10.671 -0.2082 -0.1138 -0.0620
 9727SOL     OW33991   8.247   6.312   9.105 -0.6531  0.6967  0.0053
 9727SOL    HW133992   8.152   6.302   9.097 -0.6377 -0.3863  0.8718
 9727SOL    HW233993   8.266   6.287   9.196  0.4088  1.3256 -0.0277
 9728SOL     OW33994   8.845   0.024  11.786  0.1937  0.1255  0.0642
 9728SOL    HW133995   8.888   0.106  11.762  1.9600 -1.2560 -1.8066
 9728SOL    HW233996   8.796  -0.001  11.708 -0.1057 -0.7128  0.5135
 9729SOL     OW33997   8.969   6.792   3.740  0.3721  0.0756  0.5136
 9729SOL    HW133998   9.063   6.800   3.728  0.2448  0.1771 -0.5148
 9729SOL    HW233999   8.952   6.833   3.825  1.1618  0.7060  0.3787
 9730SOL     OW34000  11.127  11.976   9.645 -0.1861 -0.1782  0.0881
 9730SOL    HW134001  11.074  12.039   9.595  0.5276  0.8790  0.6219
 9730SOL    HW234002  11.094  11.984   9.735  0.3351 -0.0857  0.2766
 9731SOL     OW34003   2.874   9.269   6.450 -0.3062  0.4549  0.3563
 9731SOL    HW134004   2.867   9.175   6.466  0.9898  0.0671 -1.1459
 9731SOL    HW234005   2.922   9.303   6.526  0.5729 -0.3618  0.1817
 9732SOL     OW34006   1.486   9.150   2.731  0.8068 -0.2641 -0.4405
 9732SOL    HW134007   1.435   9.229   2.716 -0.4909 -1.1955 -1.1121
 9732SOL    HW234008   1.563   9.180   2.780  0.4316  1.4207 -0.8206
 9733SOL     OW34009   5.004   1.026  10.145 -0.1357  0.2356  0.1794
 9733SOL    HW134010   5.028   0.960  10.210 -3.2870 -0.1343  1.1556
 9733SOL    HW234011   5.012   1.110  10.191 -0.3616  0.1547  0.3661
 9734SOL     OW34012   8.896   3.879   8.070  0.0080  0.2235 -0.1198
 9734SOL    HW134013   8.939   3.965   8.074  0.1537  0.2972 -2.3571
 9734SOL    HW234014   8.965   3.817   8.096  0.1689  0.6822  0.5946
 9735SOL     OW34015   2.691   3.503   5.029 -0.7662 -0.3681 -0.2499
 9735SOL    HW134016   2.667   3.413   5.054 -1.0846 -0.9762 -2.5535
 9735SOL    HW234017   2.783   3.497   5.006 -1.2140 -0.5469 -2.1272
 9736SOL     OW34018   1.024   0.003   4.398 -0.1346  0.6763 -0.0517
 9736SOL    HW134019   1.051  -0.039   4.316 -0.5892  1.3900 -0.5759
 9736SOL    HW234020   1.047  -0.060   4.466 -2.8266 -1.4908 -0.9597
 9737SOL     OW34021   7.723   3.551  10.944 -0.1671  0.2496 -0.6343
 9737SOL    HW134022   7.809   3.567  10.982  0.7593  0.4854 -2.6868
 9737SOL    HW234023   7.681   3.637  10.942 -0.4990  0.1177  0.4577
 9738SOL     OW34024   2.141   3.324   6.761 -0.6413  0.2749  0.0273
 9738SOL    HW134025   2.111   3.370   6.683 -1.7377  0.5071  0.5762
 9738SOL    HW234026   2.213   3.269   6.730  0.2075  1.7870 -0.7756
 9739SOL     OW34027   8.166   5.535  10.650  0.3407  0.1578  0.1778
 9739SOL    HW134028   8.106   5.587  10.704  1.0057  0.6345  0.4724
 9739SOL    HW234029   8.250   5.542  10.695  0.8316  0.2703 -0.7356
 9740SOL     OW34030   0.963   1.680   8.776  0.2948  0.1872 -0.2435
 9740SOL    HW134031   1.040   1.670   8.831  0.0288  0.8200  0.2518
 9740SOL    HW234032   0.891   1.647   8.830 -0.0715  1.4491  0.0715
 9741SOL     OW34033  12.227  11.390  12.112 -0.3011  0.8348 -0.4552
 9741SOL    HW134034  12.174  11.465  12.139 -0.7215  0.6204 -0.6634
 9741SOL    HW234035  12.220  11.329  12.185  0.1862  1.0708 -0.2109
 9742SOL     OW34036  11.857   8.172   6.948 -0.1114 -0.4194  0.1482
 9742SOL    HW134037  11.879   8.208   7.034  0.4017 -0.2054 -0.0676
 9742SOL    HW234038  11.765   8.145   6.956  0.0499 -0.7902  0.8900
 9743SOL     OW34039   5.275  10.812   9.253  0.2151  0.6849 -0.2637
 9743SOL    HW134040   5.354  10.832   9.201 -0.2449  0.0782 -1.2367
 9743SOL    HW234041   5.202  10.831   9.193 -0.2962 -1.6407 -0.4616
 9744SOL     OW34042   8.723   9.492   2.759 -0.6574 -0.5078  0.3741
 9744SOL    HW134043   8.667   9.520   2.831  0.4801  0.1275  1.0472
 9744SOL    HW234044   8.757   9.407   2.786 -0.7433 -0.5677  0.2926
 9745SOL     OW34045  10.933   6.209   3.005  0.4868 -0.0666 -0.2483
 9745SOL    HW134046  10.946   6.182   2.914  0.1964  0.0907 -0.3361
 9745SOL    HW234047  11.007   6.267   3.023 -0.3946  1.3262 -0.9397
 9746SOL     OW34048   5.571   4.225   8.297  0.0689 -0.0949 -0.0524
 9746SOL    HW134049   5.491   4.174   8.301  0.6237 -1.3134 -2.4441
 9746SOL    HW234050   5.632   4.171   8.246  2.1119  1.1834  0.8834
 9747SOL     OW34051  10.016   2.049   9.120 -0.0984  0.4373 -0.5718
 9747SOL    HW134052   9.936   1.996   9.122  0.1909 -0.0143 -0.9469
 9747SOL    HW234053  10.078   1.999   9.067  1.3361 -0.4961  1.8493
 9748SOL     OW34054   2.632   4.648   5.957 -0.2834 -0.1012 -0.5044
 9748SOL    HW134055   2.621   4.743   5.948 -0.0219  0.3155  2.4813
 9748SOL    HW234056   2.543   4.614   5.953 -0.3059  0.0386 -2.8147
 9749SOL     OW34057   5.906   1.549  12.165  0.1306  0.3703  0.5761
 9749SOL    HW134058   5.874   1.492  12.095  0.4104  0.1097  0.6559
 9749SOL    HW234059   5.982   1.503  12.200 -0.2158  0.3356  1.2848
 9750SOL     OW34060   5.219   5.394   6.242  0.8506 -0.0528 -0.1664
 9750SOL    HW134061   5.162   5.381   6.317  0.7649  0.7273 -0.0852
 9750SOL    HW234062   5.159   5.411   6.169  0.9412  2.7205  0.2879
 9751SOL     OW34063   6.850   3.018   5.513  0.1367 -0.3576 -0.2973
 9751SOL    HW134064   6.919   2.967   5.555  0.9255  0.8706 -0.0705
 9751SOL    HW234065   6.775   3.009   5.571  1.1319  1.1057  1.3212
 9752SOL     OW34066   7.285   4.105   5.596  0.0118  0.1701 -0.4377
 9752SOL    HW134067   7.194   4.125   5.576 -0.2447  0.6156  1.1199
 9752SOL    HW234068   7.284   4.014   5.625  0.1403  0.0524 -0.7865
 9753SOL     OW34069   8.867   3.481   2.177 -0.2501  0.1437  0.2945
 9753SOL    HW134070   8.890   3.471   2.085  0.6970 -2.2841  0.7174
 9753SOL    HW234071   8.771   3.473   2.179 -0.4701  2.0832 -0.6270
 9754SOL     OW34072  11.216  10.094   6.518 -0.2186  0.1850 -0.5771
 9754SOL    HW134073  11.233  10.183   6.489  2.1707 -0.1343 -0.3266
 9754SOL    HW234074  11.230  10.096   6.613  1.2581 -0.6896 -0.7317
 9755SOL     OW34075  10.700   9.473  12.427  0.5397  0.6519 -0.6925
 9755SOL    HW134076  10.769   9.433  12.480  1.0007 -0.6048 -2.1711
 9755SOL    HW234077  10.739   9.485  12.341 -0.3488  2.1928 -0.9225
 9756SOL     OW34078   7.077   2.438   5.969  0.8461  0.3448 -0.4737
 9756SOL    HW134079   6.986   2.440   5.940  0.9731 -0.9134 -1.0306
 9756SOL    HW234080   7.086   2.515   6.026 -1.1139 -0.5994  1.2372
 9757SOL     OW34081   7.686   2.454  12.095  0.3851 -0.1584 -0.0832
 9757SOL    HW134082   7.703   2.520  12.028  0.5532  0.1800  0.2900
 9757SOL    HW234083   7.713   2.371  12.055  1.3500  0.1555 -0.1011
 9758SOL     OW34084  10.973  12.257   4.686 -0.4587  0.3962 -0.3384
 9758SOL    HW134085  11.016  12.331   4.727 -1.2029  0.3123  0.6393
 9758SOL    HW234086  11.033  12.183   4.699  0.3953  0.8489 -1.5327
 9759SOL     OW34087  12.572   4.889   4.790  0.3479  0.3107  0.4439
 9759SOL    HW134088  12.582   4.925   4.878 -2.0967 -0.8059  1.2841
 9759SOL    HW234089  12.489   4.926   4.759 -0.1264 -1.3158 -0.3173
 9760SOL     OW34090   0.296   0.438   0.882 -0.4780 -0.0446 -0.4220
 9760SOL    HW134091   0.285   0.376   0.955 -1.3668  0.7589  0.1510
 9760SOL    HW234092   0.330   0.518   0.923  1.8277 -0.4850 -1.3197
 9761SOL     OW34093   7.220   2.156   1.580 -0.2137  0.6067  0.1831
 9761SOL    HW134094   7.135   2.134   1.618 -0.0877  0.4994  0.4052
 9761SOL    HW234095   7.239   2.083   1.521  0.5009 -0.2288  1.4005
 9762SOL     OW34096   8.979   4.515   0.322 -0.0400 -0.2114 -0.3581
 9762SOL    HW134097   8.894   4.538   0.359  1.2580  1.3880  1.8568
 9762SOL    HW234098   9.000   4.431   0.362  0.8026  0.9361  1.8266
 9763SOL     OW34099   5.861  12.366   4.650 -0.6371 -0.1352 -0.4234
 9763SOL    HW134100   5.920  12.401   4.717  0.1439 -0.9161 -0.6839
 9763SOL    HW234101   5.850  12.438   4.588  1.3937 -0.4493 -1.2486
 9764SOL     OW34102  12.405   3.874   8.061  0.4162 -0.3085 -0.1616
 9764SOL    HW134103  12.455   3.887   7.981  1.4534 -2.0285  0.1441
 9764SOL    HW234104  12.326   3.827   8.033  0.1981  0.1557 -0.3263
 9765SOL     OW34105   8.281   6.470   5.354 -0.3951 -0.0817 -0.0940
 9765SOL    HW134106   8.303   6.479   5.447  1.4983 -0.2782 -0.4832
 9765SOL    HW234107   8.280   6.560   5.321  1.2459 -0.1398 -0.3505
 9766SOL     OW34108  12.396   6.326   2.678  0.1342 -0.4213 -0.3505
 9766SOL    HW134109  12.433   6.382   2.610  0.6822  2.2684  1.9921
 9766SOL    HW234110  12.311   6.366   2.698  0.8902  0.1814  1.9357
 9767SOL     OW34111   7.994   2.909  11.746  0.2031 -0.9610  0.2884
 9767SOL    HW134112   7.908   2.915  11.787 -0.7344  0.9258 -1.7577
 9767SOL    HW234113   8.056   2.918  11.819 -1.3121 -0.8276  1.6131
 9768SOL     OW34114   7.888   1.571   5.743 -0.0588  0.3075 -0.2257
 9768SOL    HW134115   7.843   1.626   5.679  0.2216 -0.9863 -1.5978
 9768SOL    HW234116   7.976   1.560   5.707  0.3663  0.2018  0.8077
 9769SOL     OW34117   7.559   5.853   2.967  0.1701  0.0823  0.8912
 9769SOL    HW134118   7.513   5.770   2.954 -0.2382  0.5009 -0.4061
 9769SOL    HW234119   7.540   5.905   2.889  1.7608  0.7795  0.9109
 9770SOL     OW34120   5.322   7.744  10.696 -0.2328  0.6639 -0.2522
 9770SOL    HW134121   5.249   7.791  10.738 -1.6898  0.1724 -2.1064
 9770SOL    HW234122   5.386   7.812  10.678  0.0091  1.0538  1.7622
 9771SOL     OW34123   4.406  10.717   6.638 -0.5574 -0.2777  0.2661
 9771SOL    HW134124   4.360  10.759   6.711 -0.0962  0.5406  0.1022
 9771SOL    HW234125   4.418  10.626   6.666  0.0622  0.1370  1.4437
 9772SOL     OW34126   2.706   9.685   1.665 -0.5952 -0.4119 -0.0908
 9772SOL    HW134127   2.683   9.605   1.618 -0.8078 -2.1258  2.6891
 9772SOL    HW234128   2.779   9.721   1.615 -1.3904 -1.5313 -2.2196
 9773SOL     OW34129   7.216   4.642  11.901 -0.1320 -0.0161  0.2025
 9773SOL    HW134130   7.212   4.574  11.969  1.0875  0.2637  0.5722
 9773SOL    HW234131   7.308   4.642  11.873 -0.2735  1.0176 -0.2754
 9774SOL     OW34132   9.937   5.667  12.472  0.3801 -0.1503  0.1482
 9774SOL    HW134133   9.909   5.755  12.496 -0.8346 -0.4086 -0.2436
 9774SOL    HW234134   9.950   5.622  12.556  0.3502  0.2023  0.3433
 9775SOL     OW34135   4.541   9.379  10.864 -0.1023  0.8176  0.3813
 9775SOL    HW134136   4.592   9.300  10.848 -0.4774  0.7036 -0.2708
 9775SOL    HW234137   4.502   9.366  10.951  3.0943  2.0614  2.1630
 9776SOL     OW34138   5.254   4.583  11.641 -0.8215 -0.4392  0.3106
 9776SOL    HW134139   5.231   4.601  11.549  1.4387  1.4248  0.0086
 9776SOL    HW234140   5.184   4.526  11.672 -2.0853 -0.5107 -2.3428
 9777SOL     OW34141  10.406   7.721  10.228  0.3373  0.3166 -0.3605
 9777SOL    HW134142  10.393   7.768  10.146  0.1314 -0.1060 -0.5704
 9777SOL    HW234143  10.365   7.636  10.214  0.1441  0.3061  0.2394
 9778SOL     OW34144   1.561   5.099   4.890 -0.1913 -0.3685 -0.4048
 9778SOL    HW134145   1.477   5.113   4.846  0.2092  0.1211 -1.0258
 9778SOL    HW234146   1.624   5.146   4.836  0.7042 -1.9068 -0.7261
 9779SOL     OW34147  11.331   2.140  10.526  0.5513 -0.3162  0.2115
 9779SOL    HW134148  11.368   2.186  10.602  0.6974 -0.7498  0.4039
 9779SOL    HW234149  11.263   2.199  10.493  1.5179  0.5703 -0.2516
 9780SOL     OW34150  11.526   1.955   3.940 -0.6546 -0.7344 -0.2187
 9780SOL    HW134151  11.491   1.928   3.855  1.4087 -1.1559 -0.9999
 9780SOL    HW234152  11.563   1.875   3.978  0.4020 -0.1471  0.0486
 9781SOL     OW34153   7.073  12.534   2.562 -0.4299  0.0539 -0.4502
 9781SOL    HW134154   6.995  12.536   2.617 -0.3683 -1.4260 -0.2556
 9781SOL    HW234155   7.145  12.520   2.624 -0.1059  0.5092 -0.7173
 9782SOL     OW34156   3.036   8.599   5.327  0.1729 -0.1487 -0.2589
 9782SOL    HW134157   3.044   8.550   5.245  1.6558  1.2844 -1.0259
 9782SOL    HW234158   2.946   8.633   5.327  0.3871  0.4870 -1.7056
 9783SOL     OW34159   5.292  11.714   8.244 -0.0827 -0.3865 -0.3745
 9783SOL    HW134160   5.249  11.634   8.274 -0.2223 -0.3158 -0.3866
 9783SOL    HW234161   5.224  11.781   8.251  0.3267 -0.0562  0.6280
 9784SOL     OW34162   8.717   6.786   6.769  0.4744  0.0562 -0.6882
 9784SOL    HW134163   8.658   6.713   6.787 -1.3111  1.5241 -0.2310
 9784SOL    HW234164   8.672   6.837   6.702  2.0676  0.3197 -1.5900
 9785SOL     OW34165   4.359   5.170   6.627 -0.9053 -0.4497  0.0164
 9785SOL    HW134166   4.344   5.198   6.717  1.8560 -1.4606  0.9012
 9785SOL    HW234167   4.294   5.102   6.611 -0.0403 -1.8569  2.1095
 9786SOL     OW34168  10.197   0.727   5.683  0.0600  0.1627  0.2288
 9786SOL    HW134169  10.122   0.753   5.737  0.1156  2.9121 -0.8744
 9786SOL    HW234170  10.273   0.758   5.732  0.3386 -0.3957  0.1592
 9787SOL     OW34171   4.915   8.916   6.968 -0.1242  0.1543  0.1729
 9787SOL    HW134172   4.895   9.009   6.968 -1.2484 -0.0581 -0.4331
 9787SOL    HW234173   4.848   8.877   7.025 -0.4975 -0.4169 -0.6272
 9788SOL     OW34174   3.553  10.693  12.210 -0.0700 -0.1156  0.3854
 9788SOL    HW134175   3.562  10.744  12.129 -1.5892 -0.5697 -0.1046
 9788SOL    HW234176   3.575  10.755  12.280  0.2843  0.5736 -0.3183
 9789SOL     OW34177   3.429   8.120  11.252 -0.1086  0.7042 -0.3062
 9789SOL    HW134178   3.518   8.098  11.278 -1.1444 -3.0078  0.7549
 9789SOL    HW234179   3.420   8.081  11.165 -1.0258 -0.0885  0.1255
 9790SOL     OW34180   8.816   6.760  12.215 -0.4377 -0.2608 -0.4001
 9790SOL    HW134181   8.812   6.674  12.258 -0.8717 -0.2627 -0.4387
 9790SOL    HW234182   8.886   6.751  12.150  0.1713 -0.2837  0.2457
 9791SOL     OW34183  10.452   4.064   4.366  0.2472 -0.0216  0.1893
 9791SOL    HW134184  10.394   4.131   4.332 -0.2499  0.2707  1.5319
 9791SOL    HW234185  10.438   3.988   4.309 -0.5021  0.4515 -0.2644
 9792SOL     OW34186  10.216   1.482   5.873  0.0665 -0.0039 -0.1040
 9792SOL    HW134187  10.289   1.477   5.934  0.3726  1.9340 -0.2771
 9792SOL    HW234188  10.247   1.536   5.801 -1.2522  0.1516 -0.5965
 9793SOL     OW34189  11.227  11.664   5.971 -0.2163  0.2310 -0.2535
 9793SOL    HW134190  11.189  11.743   5.934 -2.0132 -0.9213 -1.0565
 9793SOL    HW234191  11.319  11.667   5.947  0.1475  2.8183  1.1241
 9794SOL     OW34192   0.113   7.788  10.547  0.1182  0.0795  0.2416
 9794SOL    HW134193   0.111   7.742  10.464  2.0378  0.8541 -0.2726
 9794SOL    HW234194   0.201   7.824  10.554  0.8004 -1.7634  3.6313
 9795SOL     OW34195   1.186  11.106   8.643 -0.2511  0.0326  0.5162
 9795SOL    HW134196   1.137  11.089   8.563 -2.1324  2.1322  1.1074
 9795SOL    HW234197   1.266  11.053   8.635 -1.1305 -1.0504 -1.9603
 9796SOL     OW34198   2.013  10.834   2.404  0.4132  0.4203 -0.6983
 9796SOL    HW134199   2.091  10.859   2.355  0.3041  1.2399 -0.4735
 9796SOL    HW234200   2.017  10.887   2.484 -0.9515  1.3344 -1.1927
 9797SOL     OW34201   8.197   8.267  11.256  0.7715 -0.0310 -0.1343
 9797SOL    HW134202   8.266   8.312  11.207  0.7462 -0.9335 -1.0320
 9797SOL    HW234203   8.230   8.178  11.267  0.2074 -0.1795  0.3693
 9798SOL     OW34204  10.031   8.040   1.396  0.1820 -0.5147  0.1271
 9798SOL    HW134205  10.017   8.097   1.321  3.1562 -0.1674 -0.2709
 9798SOL    HW234206   9.946   7.997   1.410 -1.3335  1.7992 -1.3580
 9799SOL     OW34207  10.718   6.294   2.385  0.2383 -0.1408 -0.4534
 9799SOL    HW134208  10.758   6.217   2.344 -0.5490  0.1302 -1.8048
 9799SOL    HW234209  10.719   6.360   2.316  1.1122  1.1590  0.7666
 9800SOL     OW34210   2.196  10.305   6.566  0.2796  0.1787  0.1491
 9800SOL    HW134211   2.212  10.383   6.513 -1.1076  0.2516 -0.1933
 9800SOL    HW234212   2.107  10.277   6.542  0.0024 -0.3696  1.6895
 9801SOL     OW34213   9.096  11.331   3.654  0.1110 -0.4875  0.0179
 9801SOL    HW134214   9.041  11.275   3.599  0.3056 -0.1724 -0.4968
 9801SOL    HW234215   9.091  11.291   3.741  0.0916 -1.1920 -0.3038
 9802SOL     OW34216   0.705   5.842   3.175 -0.0587  0.5476  0.3395
 9802SOL    HW134217   0.661   5.927   3.178 -0.6602  0.2333  0.6547
 9802SOL    HW234218   0.779   5.852   3.234  0.8369  1.3689 -0.8852
 9803SOL     OW34219   7.254   8.827  10.352  0.8170  0.4304  0.2101
 9803SOL    HW134220   7.165   8.855  10.330 -0.0469 -3.1154 -1.4141
 9803SOL    HW234221   7.309   8.869  10.285  0.2619  1.7417  0.5409
 9804SOL     OW34222   2.469   7.127   4.550 -0.3915 -0.4847  0.4873
 9804SOL    HW134223   2.531   7.186   4.590 -1.8186  0.3159  1.6275
 9804SOL    HW234224   2.462   7.156   4.459  0.7125 -0.4666  0.3986
 9805SOL     OW34225   4.905   9.808   0.261 -0.2056  0.5010  0.2852
 9805SOL    HW134226   4.905   9.741   0.193 -1.6758  0.9076 -0.1424
 9805SOL    HW234227   4.867   9.765   0.337  0.1550  0.4563  0.4456
 9806SOL     OW34228  12.494   5.949   5.993  0.0562  1.0612 -0.2470
 9806SOL    HW134229  12.582   5.949   5.956 -0.0734  3.1330 -0.7158
 9806SOL    HW234230  12.508   5.936   6.087  0.9660  2.1734 -0.1978
 9807SOL     OW34231   8.196   6.674   6.606 -0.2429 -0.6286  0.0221
 9807SOL    HW134232   8.115   6.665   6.656 -0.1410 -1.5997  0.0395
 9807SOL    HW234233   8.265   6.678   6.672  0.3645 -6.1709  0.1875
 9808SOL     OW34234   5.600   2.252   9.095  0.2000 -0.6659  0.5220
 9808SOL    HW134235   5.644   2.180   9.139  1.7865 -0.9220 -1.3319
 9808SOL    HW234236   5.507   2.227   9.095  0.6623 -2.5783  0.2174
 9809SOL     OW34237  10.663   5.826   8.330 -0.4655 -0.0604 -0.6773
 9809SOL    HW134238  10.590   5.765   8.327 -1.1922  0.6744  0.8449
 9809SOL    HW234239  10.726   5.786   8.390 -0.5728  0.2668 -0.3376
 9810SOL     OW34240   4.358  12.001  12.441  0.7081 -0.8293 -0.2393
 9810SOL    HW134241   4.382  12.064  12.374  0.5681 -0.3202  0.1738
 9810SOL    HW234242   4.388  12.040  12.523  0.8216 -1.4069  0.0017
 9811SOL     OW34243  10.943   2.570   9.192 -0.5106 -0.1992 -0.1354
 9811SOL    HW134244  11.034   2.594   9.174 -0.3470 -0.6143  0.1053
 9811SOL    HW234245  10.949   2.480   9.225 -0.8839  0.1859  1.0179
 9812SOL     OW34246   0.036   1.214  10.979  0.2756  0.2045 -0.0341
 9812SOL    HW134247   0.130   1.225  10.996  0.0264  1.3281  0.6980
 9812SOL    HW234248   0.016   1.281  10.914  0.3474 -1.3184 -1.7062
 9813SOL     OW34249   0.927   4.537   2.039 -0.0239 -0.3668  0.0545
 9813SOL    HW134250   0.900   4.549   1.948 -0.0666 -0.1086  0.0993
 9813SOL    HW234251   0.851   4.499   2.082 -0.5410  0.9199  0.3141
 9814SOL     OW34252   0.358   1.289   3.310  0.0016 -0.4725 -0.3320
 9814SOL    HW134253   0.448   1.265   3.285  0.0589 -0.6588  0.0427
 9814SOL    HW234254   0.352   1.382   3.290  0.3543 -0.4091 -0.1556
 9815SOL     OW34255  12.105   5.703   8.983 -0.1263  0.1364  0.1610
 9815SOL    HW134256  12.104   5.687   9.077  0.5590 -1.3349 -0.0616
 9815SOL    HW234257  12.012   5.704   8.958 -0.4306  2.6280  1.1412
 9816SOL     OW34258   7.359   0.697   0.896 -0.5875  0.3028  0.3269
 9816SOL    HW134259   7.408   0.747   0.830  0.2846  1.2005  1.6048
 9816SOL    HW234260   7.402   0.719   0.979 -0.4650 -2.2290  1.0201
 9817SOL     OW34261  11.907   4.863  11.504  0.1630  0.0718 -0.2264
 9817SOL    HW134262  11.954   4.852  11.422  0.1133  0.0883 -0.2570
 9817SOL    HW234263  11.919   4.955  11.527  0.8789 -0.1236  0.2171
 9818SOL     OW34264   3.792   2.489  10.446  0.4151 -0.4982  0.3189
 9818SOL    HW134265   3.877   2.493  10.402 -0.5761  1.6899 -1.5732
 9818SOL    HW234266   3.802   2.545  10.523  0.4750  0.4604 -0.3676
 9819SOL     OW34267  10.232   8.516   6.505 -0.1848  0.3876 -0.1434
 9819SOL    HW134268  10.222   8.491   6.597 -0.0108  0.7317 -0.0270
 9819SOL    HW234269  10.258   8.436   6.461 -1.6831 -0.1183 -0.1478
 9820SOL     OW34270   3.055   1.552  12.014 -0.4880  0.1223  0.3369
 9820SOL    HW134271   3.068   1.647  12.012 -0.4533  0.1399  1.1897
 9820SOL    HW234272   3.140   1.516  12.039 -0.9945 -0.0024  1.9932
 9821SOL     OW34273  11.806   6.769   0.945  0.0939 -0.4462 -0.0997
 9821SOL    HW134274  11.866   6.839   0.921 -0.9540  0.2769 -0.6628
 9821SOL    HW234275  11.796   6.777   1.040  1.3469 -0.9659  0.0926
 9822SOL     OW34276   8.637   8.285   7.586  0.1161 -0.7948 -0.6673
 9822SOL    HW134277   8.561   8.278   7.645 -2.1227 -1.3368 -3.4147
 9822SOL    HW234278   8.701   8.336   7.636 -2.1998  0.0752  1.6712
 9823SOL     OW34279   7.002   8.523   4.351  0.7552 -0.6953  0.4394
 9823SOL    HW134280   7.085   8.564   4.376  0.0711  1.3007 -0.3912
 9823SOL    HW234281   6.954   8.513   4.433 -0.0622  2.6009  0.5174
 9824SOL     OW34282   4.537   4.373   7.756 -0.5048 -0.4145 -0.2376
 9824SOL    HW134283   4.443   4.354   7.766 -0.5414  0.3201  1.0345
 9824SOL    HW234284   4.540   4.463   7.724 -0.2356 -0.3130  0.0653
 9825SOL     OW34285   8.395   4.469   3.272  0.6152 -0.0610 -0.4564
 9825SOL    HW134286   8.385   4.376   3.292  2.3084 -0.2256 -0.2311
 9825SOL    HW234287   8.330   4.486   3.204  1.0367 -1.6828 -1.3266
 9826SOL     OW34288   7.173   6.948   2.933  0.2793  0.5141  0.3521
 9826SOL    HW134289   7.267   6.928   2.940  0.4378  1.5887  1.8246
 9826SOL    HW234290   7.132   6.888   2.996 -0.3522 -1.6167 -1.9542
 9827SOL     OW34291   5.485   6.066   7.957  0.1408 -0.2362  0.1092
 9827SOL    HW134292   5.486   5.974   7.983  2.7777 -0.7353 -1.3884
 9827SOL    HW234293   5.572   6.098   7.982  1.6939  0.1044 -4.6795
 9828SOL     OW34294   9.669   6.190   1.400 -0.3487  0.0098  0.0253
 9828SOL    HW134295   9.660   6.285   1.393  0.3272  0.0430 -0.5720
 9828SOL    HW234296   9.731   6.167   1.331 -1.2934 -1.0032 -0.5079
 9829SOL     OW34297   2.962   5.619   6.852 -0.5610 -0.6552  0.4405
 9829SOL    HW134298   2.940   5.534   6.892 -0.3533  0.2653  2.7015
 9829SOL    HW234299   2.879   5.652   6.819 -0.8335 -1.3001  0.4663
 9830SOL     OW34300   4.113   8.632   4.315  0.0047  0.1326  0.2597
 9830SOL    HW134301   4.061   8.705   4.280  0.3599 -0.4267 -1.5687
 9830SOL    HW234302   4.048   8.564   4.334 -0.1147  0.0350 -0.4474
 9831SOL     OW34303  10.428  12.082  10.482  0.0458  0.1063  0.7516
 9831SOL    HW134304  10.405  12.055  10.571 -0.6063 -0.3489  0.4497
 9831SOL    HW234305  10.360  12.044  10.427 -0.1109  1.1977  0.1565
 9832SOL     OW34306   8.707   4.952  11.222  0.8341 -0.2298  0.0691
 9832SOL    HW134307   8.704   5.046  11.236 -2.2934 -0.1861 -0.1126
 9832SOL    HW234308   8.771   4.940  11.152  0.5662  1.8928 -0.6100
 9833SOL     OW34309   4.846   1.899   0.235 -0.2341 -0.1524  0.2904
 9833SOL    HW134310   4.897   1.841   0.180 -3.4277 -2.1454 -0.8521
 9833SOL    HW234311   4.908   1.967   0.262  2.3261 -0.9072 -2.9946
 9834SOL     OW34312   8.010   0.783   7.702  0.6264 -0.6435  0.0880
 9834SOL    HW134313   8.022   0.842   7.629  1.3344  1.5489  1.8649
 9834SOL    HW234314   8.025   0.696   7.665 -3.0087 -0.1316 -3.2031
 9835SOL     OW34315   8.827   1.643   6.887  0.6119 -0.0624  0.3106
 9835SOL    HW134316   8.886   1.616   6.956 -0.3955 -2.3241  0.3874
 9835SOL    HW234317   8.842   1.580   6.816 -0.9072 -0.0360 -0.0766
 9836SOL     OW34318   2.261   6.936  10.917  0.2247 -0.2988  0.1709
 9836SOL    HW134319   2.245   6.848  10.951 -1.6295 -0.1738 -0.2631
 9836SOL    HW234320   2.344   6.929  10.868 -0.3830 -2.0534 -0.6711
 9837SOL     OW34321   9.052  10.226   2.418  0.4627 -0.1145 -0.3489
 9837SOL    HW134322   9.091  10.165   2.480  2.0289  1.2017  0.0312
 9837SOL    HW234323   9.114  10.230   2.345  0.3301  0.9284 -0.4211
 9838SOL     OW34324   2.041   4.658   3.271 -0.3781 -0.3525  0.1843
 9838SOL    HW134325   1.965   4.625   3.318 -0.6401  1.0087  0.7621
 9838SOL    HW234326   2.029   4.627   3.181 -2.2651  0.8165 -0.0220
 9839SOL     OW34327   9.637   2.288   4.061  0.3810  0.1908  0.1929
 9839SOL    HW134328   9.694   2.239   4.002  0.2922 -0.0515  0.3067
 9839SOL    HW234329   9.692   2.360   4.092 -0.1675  1.4800 -1.6920
 9840SOL     OW34330   6.014   2.939   7.914 -0.5636  0.1125 -0.3090
 9840SOL    HW134331   6.007   2.888   7.834 -1.1727 -0.0816 -0.1364
 9840SOL    HW234332   6.024   2.873   7.983 -3.0049  0.0849  0.1189
 9841SOL     OW34333   4.765   0.988  11.251 -0.2696 -0.5470  0.3817
 9841SOL    HW134334   4.671   1.008  11.246 -0.2581 -0.3635  0.7891
 9841SOL    HW234335   4.799   1.051  11.316 -0.2267 -1.8528  1.6786
 9842SOL     OW34336  11.739  10.098   9.244 -0.4927  0.2399 -0.3163
 9842SOL    HW134337  11.818  10.101   9.298 -0.4959  0.4235 -0.3223
 9842SOL    HW234338  11.734  10.184   9.203  0.2469 -0.3208 -1.6645
 9843SOL     OW34339   2.666  12.647   8.941  0.4831  0.2018 -0.1357
 9843SOL    HW134340   2.577  12.658   8.908  0.7240  0.7131 -0.6589
 9843SOL    HW234341   2.682  12.553   8.937  0.2116  0.1714 -0.7307
 9844SOL     OW34342  12.098   2.352   8.346  0.3599 -0.5997  0.4672
 9844SOL    HW134343  12.161   2.319   8.412  0.4925  0.8052  1.0730
 9844SOL    HW234344  12.061   2.430   8.386 -1.8287 -1.4060  0.1234
 9845SOL     OW34345   6.365   6.868   7.745 -0.2331 -0.2796 -0.4232
 9845SOL    HW134346   6.288   6.876   7.801  0.2664  0.5712  0.1663
 9845SOL    HW234347   6.348   6.791   7.691 -1.0282 -0.7032  0.4190
 9846SOL     OW34348   7.237   1.276   0.637 -0.5852 -0.1485  0.4808
 9846SOL    HW134349   7.295   1.294   0.564 -0.5060 -1.5806  0.1543
 9846SOL    HW234350   7.295   1.251   0.709 -0.7566 -1.4567  0.1920
 9847SOL     OW34351  10.078   0.796  12.402 -0.5711  0.0511  0.0644
 9847SOL    HW134352   9.984   0.806  12.419 -0.4245  0.6378  0.5662
 9847SOL    HW234353  10.104   0.719  12.452 -0.6225  0.3856  0.6179
 9848SOL     OW34354   6.899   0.003  11.425  0.4784  0.3960  0.5638
 9848SOL    HW134355   6.915  -0.009  11.331 -1.9195 -0.0551  0.1442
 9848SOL    HW234356   6.852   0.086  11.431  0.7651  0.5052  1.3902
 9849SOL     OW34357   8.445  12.207   8.998 -0.3081 -0.0733  0.1394
 9849SOL    HW134358   8.457  12.112   8.998  1.5406  0.1063  1.1104
 9849SOL    HW234359   8.492  12.237   8.921 -0.4644  0.0977  0.1107
 9850SOL     OW34360  12.554   3.627   6.258  0.4960 -0.1837 -0.0206
 9850SOL    HW134361  12.649   3.634   6.263  0.4418  1.7840 -0.6357
 9850SOL    HW234362  12.538   3.539   6.224  2.0865 -0.5910  0.1918
 9851SOL     OW34363   8.374   0.518  12.533  0.2857 -0.5050 -0.1398
 9851SOL    HW134364   8.369   0.425  12.556  1.1657 -0.5197  0.0197
 9851SOL    HW234365   8.353   0.521  12.440 -2.1188 -0.5791  0.3367
 9852SOL     OW34366   7.595   2.198   8.134  0.0500  0.2191 -0.0346
 9852SOL    HW134367   7.550   2.133   8.189  0.0458 -0.8513 -1.2567
 9852SOL    HW234368   7.687   2.172   8.137 -0.1422 -0.7931 -1.7106
 9853SOL     OW34369   4.925   7.591   0.919  0.6271  0.3869  0.1590
 9853SOL    HW134370   4.851   7.576   0.977  0.4571  2.0254  0.3862
 9853SOL    HW234371   4.887   7.594   0.831  0.0339  3.3162  0.4220
 9854SOL     OW34372  10.394   3.510   4.266 -0.3707  0.7740 -0.4253
 9854SOL    HW134373  10.309   3.473   4.242 -0.0244 -0.8588  0.6598
 9854SOL    HW234374  10.373   3.595   4.306 -1.4682  0.5347 -0.4623
 9855SOL     OW34375   3.309  11.110   2.729  0.8260 -0.4135 -0.0055
 9855SOL    HW134376   3.353  11.101   2.814 -0.0642  0.2191  0.5360
 9855SOL    HW234377   3.283  11.021   2.706  1.6860 -0.6812  0.0502
 9856SOL     OW34378   8.283  11.865   4.883 -0.3161 -0.3465 -0.5759
 9856SOL    HW134379   8.352  11.914   4.838  0.7165 -1.3382 -0.1113
 9856SOL    HW234380   8.330  11.800   4.935 -1.5805 -0.6210  0.2630
 9857SOL     OW34381   2.622   2.021   9.816 -0.0515 -0.3635  0.3171
 9857SOL    HW134382   2.709   1.989   9.837 -0.3425 -0.1741  1.9835
 9857SOL    HW234383   2.611   2.099   9.871 -0.9855  0.0724 -0.4409
 9858SOL     OW34384   7.410  10.259   7.819 -0.8548 -0.1016  0.3526
 9858SOL    HW134385   7.351  10.199   7.864  1.1254 -2.4790  0.0322
 9858SOL    HW234386   7.497  10.234   7.851  0.1762  1.6294 -0.9409
 9859SOL     OW34387  10.264  10.043  12.055 -0.4167 -0.2368 -0.2461
 9859SOL    HW134388  10.228  10.054  12.143  0.3323  0.0182  0.0372
 9859SOL    HW234389  10.198   9.992  12.008 -1.0706  0.0863  0.3039
 9860SOL     OW34390  10.905   5.130   5.841 -0.9488 -0.4248 -0.2278
 9860SOL    HW134391  10.876   5.042   5.864  1.0942 -1.3718 -1.0470
 9860SOL    HW234392  10.848   5.154   5.768 -1.4895 -1.0918 -0.0418
 9861SOL     OW34393   2.774   9.383  11.790  0.1261 -0.2382  0.0219
 9861SOL    HW134394   2.845   9.426  11.741  0.7422  0.3145  1.3506
 9861SOL    HW234395   2.819   9.322  11.849 -0.4968  0.1487  0.9125
 9862SOL     OW34396   4.613  12.345   9.198  0.2576  0.1532  0.0718
 9862SOL    HW134397   4.664  12.298   9.133 -0.0724 -1.0323  0.6445
 9862SOL    HW234398   4.653  12.322   9.282 -0.6188 -0.0360  0.4504
 9863SOL     OW34399   3.491   7.487   6.420  0.0717  0.4015 -0.5261
 9863SOL    HW134400   3.496   7.519   6.511  0.1528  2.5531 -1.2252
 9863SOL    HW234401   3.403   7.450   6.413 -0.2637  1.0329  0.1843
 9864SOL     OW34402   4.271   7.090   0.838 -0.1374 -0.6410 -0.1677
 9864SOL    HW134403   4.235   7.052   0.918 -1.1156 -1.1318 -0.8179
 9864SOL    HW234404   4.231   7.176   0.832 -0.2942 -0.7203 -0.2750
 9865SOL     OW34405   4.337   7.422   9.179 -0.5176 -0.1866 -0.1676
 9865SOL    HW134406   4.417   7.460   9.214 -0.8737  1.0420 -0.6475
 9865SOL    HW234407   4.364   7.379   9.097 -0.4461  0.7783 -0.6631
 9866SOL     OW34408  10.887   1.151  10.114 -0.2155 -0.5588 -0.7605
 9866SOL    HW134409  10.915   1.241  10.099  0.9888 -1.1402 -2.2327
 9866SOL    HW234410  10.967   1.099  10.107 -0.9982 -1.8142 -0.6534
 9867SOL     OW34411   3.379   3.544  10.881  0.1766 -0.4873 -0.0558
 9867SOL    HW134412   3.383   3.480  10.810  1.2501 -0.0135 -0.4424
 9867SOL    HW234413   3.286   3.563  10.892 -0.0210 -0.8240 -1.0946
 9868SOL     OW34414  10.581   4.013   5.008  0.4465 -0.6133 -0.3613
 9868SOL    HW134415  10.568   4.106   5.028  0.1798 -0.6476 -0.3797
 9868SOL    HW234416  10.493   3.978   4.993  0.5907 -0.7114 -1.0516
 9869SOL     OW34417   1.350  10.222   3.092 -0.4533  0.1034  0.2370
 9869SOL    HW134418   1.271  10.270   3.117  1.0515  3.1954 -0.4109
 9869SOL    HW234419   1.325  10.174   3.013 -1.7329  0.9607  0.0893
 9870SOL     OW34420   8.050   7.449   2.644  0.3548  0.2043 -0.2194
 9870SOL    HW134421   8.075   7.357   2.642  0.4740  0.2464 -0.6375
 9870SOL    HW234422   8.113   7.489   2.705  0.8090  0.1548 -0.6431
 9871SOL     OW34423   7.104   3.925   6.071  0.2344  0.9047  0.0431
 9871SOL    HW134424   7.191   3.896   6.098 -1.2012 -2.6650  1.4468
 9871SOL    HW234425   7.096   3.896   5.980  0.3825  0.8376  0.0520
 9872SOL     OW34426   9.570   8.283  11.055  0.1786  0.2901  0.1236
 9872SOL    HW134427   9.539   8.333  11.131 -0.3194  1.3758 -0.7791
 9872SOL    HW234428   9.655   8.320  11.035  1.4089 -1.5494  1.5337
 9873SOL     OW34429   3.912   7.081   9.948  0.5406 -0.1820  0.3300
 9873SOL    HW134430   3.849   7.045  10.010  0.3628  1.1862  0.9941
 9873SOL    HW234431   3.858   7.113   9.875  0.5141  0.3567  0.5783
 9874SOL     OW34432  10.594   4.177  11.845  0.4048 -0.1167  0.2339
 9874SOL    HW134433  10.599   4.101  11.903  1.5334  0.1397  0.5032
 9874SOL    HW234434  10.633   4.249  11.896  1.7050  0.0459 -0.9204
 9875SOL     OW34435   9.908   3.956   7.919  0.1744 -0.6355 -0.8497
 9875SOL    HW134436   9.946   3.887   7.865  0.1041 -1.6477  0.3601
 9875SOL    HW234437   9.827   3.919   7.953 -2.0888  1.4898 -3.4144
 9876SOL     OW34438   9.312   6.080   2.362 -0.3956  0.3087 -0.6258
 9876SOL    HW134439   9.268   6.144   2.307  1.9076  1.4615 -1.2566
 9876SOL    HW234440   9.278   6.096   2.450 -2.1706  0.2172 -1.2525
 9877SOL     OW34441   0.574   7.815   3.705  0.1035 -0.2979  1.0681
 9877SOL    HW134442   0.577   7.749   3.775 -2.6561 -2.1613 -0.3775
 9877SOL    HW234443   0.651   7.797   3.652  0.3556 -1.1845  1.7084
 9878SOL     OW34444   7.203  10.526   8.213  0.4181 -0.1822  0.7605
 9878SOL    HW134445   7.109  10.507   8.220  0.5893 -1.2732  0.2622
 9878SOL    HW234446   7.214  10.561   8.125  0.6994 -1.5317  0.2350
 9879SOL     OW34447  10.454   8.438   0.091 -0.1846  0.0877  0.8000
 9879SOL    HW134448  10.475   8.368   0.151 -0.9217 -0.1652  0.7804
 9879SOL    HW234449  10.532   8.493   0.088  0.4537 -0.8146  0.6928
 9880SOL     OW34450   2.208   1.388  11.932 -0.0326 -0.7055  0.4612
 9880SOL    HW134451   2.134   1.448  11.918 -0.1933 -1.1083 -0.4985
 9880SOL    HW234452   2.167   1.303  11.948  0.2122 -0.7479  0.8751
 9881SOL     OW34453   4.686  10.597   1.838 -0.3393  0.2586 -0.2421
 9881SOL    HW134454   4.763  10.572   1.787  0.4230  0.4074  0.7951
 9881SOL    HW234455   4.631  10.519   1.839  0.7837 -0.5534  0.7382
 9882SOL     OW34456   1.382  12.433   3.529  0.0911 -0.3214  0.0320
 9882SOL    HW134457   1.418  12.386   3.454 -0.2495  0.0677 -0.3825
 9882SOL    HW234458   1.458  12.478   3.567  0.5457 -1.6977  0.8256
 9883SOL     OW34459   9.725  11.825   6.435  0.0387  0.0227  0.6166
 9883SOL    HW134460   9.657  11.764   6.407  1.0832 -0.2254 -1.5449
 9883SOL    HW234461   9.677  11.894   6.481 -1.4518 -1.0433  0.7497
 9884SOL     OW34462   0.139   4.219   7.625 -0.1033  0.0010  0.8985
 9884SOL    HW134463   0.138   4.181   7.713  2.7465  0.1800  1.0833
 9884SOL    HW234464   0.179   4.305   7.637  1.0439 -0.2919 -0.6799
 9885SOL     OW34465   3.737   5.618   9.658 -0.7116 -0.5217 -0.2469
 9885SOL    HW134466   3.749   5.601   9.565 -1.7318 -1.9952 -0.1433
 9885SOL    HW234467   3.646   5.594   9.675  0.2494 -3.2725  1.7043
 9886SOL     OW34468   1.456   6.690  10.632 -0.0994 -0.2142 -0.2350
 9886SOL    HW134469   1.505   6.739  10.566  0.1360  0.1453  0.1935
 9886SOL    HW234470   1.469   6.598  10.609  1.1569 -0.1467  0.1076
 9887SOL     OW34471   6.683   3.525   4.090  0.8907 -0.0153 -0.0522
 9887SOL    HW134472   6.653   3.591   4.028 -0.0675 -0.9303 -0.5990
 9887SOL    HW234473   6.776   3.543   4.101  0.5140  1.8519  0.3711
 9888SOL     OW34474  10.378  10.890   7.523 -0.8516  0.5287  0.1492
 9888SOL    HW134475  10.425  10.973   7.515  1.1005 -0.5654 -0.3954
 9888SOL    HW234476  10.371  10.875   7.617  2.1081 -0.3917  0.3214
 9889SOL     OW34477   3.370   9.384   4.546 -0.1488 -0.2950  0.3153
 9889SOL    HW134478   3.349   9.351   4.633 -0.7461  0.0068  0.2874
 9889SOL    HW234479   3.449   9.436   4.559 -0.6178  0.3078  0.8050
 9890SOL     OW34480  11.139   2.400   8.355 -0.0555  0.4762 -0.6060
 9890SOL    HW134481  11.113   2.346   8.280 -0.8152  0.8267 -0.5966
 9890SOL    HW234482  11.104   2.487   8.335 -0.2701  0.5685  0.1695
 9891SOL     OW34483  11.185  11.286   9.686 -0.0915  0.2109 -0.1813
 9891SOL    HW134484  11.206  11.266   9.595 -0.9016  3.4372 -1.2239
 9891SOL    HW234485  11.091  11.303   9.686 -0.2894 -0.7343  1.5137
 9892SOL     OW34486   3.078   1.098   0.711 -0.4620  0.1827  0.1787
 9892SOL    HW134487   3.104   1.007   0.701 -0.6701 -0.2012  2.5829
 9892SOL    HW234488   3.024   1.116   0.634 -1.7072 -2.2098  0.3961
 9893SOL     OW34489  10.260   3.099   4.981  0.5473  0.3623 -0.1273
 9893SOL    HW134490  10.241   3.190   4.958 -1.1783  0.4522  1.4558
 9893SOL    HW234491  10.174   3.058   4.992  1.2661 -0.8461  1.4033
 9894SOL     OW34492   2.948   3.568   9.082 -0.1193 -0.4160 -0.4412
 9894SOL    HW134493   2.907   3.516   9.014 -1.5560  1.1007 -0.8079
 9894SOL    HW234494   3.019   3.513   9.116  1.6777 -0.6656 -4.1456
 9895SOL     OW34495   0.778  12.066   0.553  0.2925 -0.7299 -0.3689
 9895SOL    HW134496   0.836  12.020   0.614 -1.8295 -2.1360  0.7436
 9895SOL    HW234497   0.781  12.157   0.582  2.1282 -0.6998 -0.5417
 9896SOL     OW34498   4.240  10.893   0.928  0.5572 -0.5730 -0.6354
 9896SOL    HW134499   4.154  10.912   0.890 -0.2019 -0.4171  1.1021
 9896SOL    HW234500   4.299  10.952   0.881 -0.3064 -0.5164 -1.7047
 9897SOL     OW34501   7.275   4.229  11.416  0.0221 -0.3951  0.2376
 9897SOL    HW134502   7.215   4.169  11.460  1.1120 -1.3136  0.5430
 9897SOL    HW234503   7.315   4.280  11.486 -1.7689  1.5987 -0.1051
 9898SOL     OW34504  10.807   3.524  10.856 -0.0892  0.1793  0.1667
 9898SOL    HW134505  10.792   3.618  10.841 -1.3934  0.3545  2.1493
 9898SOL    HW234506  10.746   3.502  10.926 -0.7711 -2.4894 -1.1693
 9899SOL     OW34507   6.308   3.486   0.100 -0.1119  0.3058  0.5402
 9899SOL    HW134508   6.338   3.566   0.142 -0.8878  0.0386  1.6485
 9899SOL    HW234509   6.278   3.430   0.173  0.3667 -0.9716 -0.2003
 9900SOL     OW34510   9.181   7.061   0.889 -0.2756 -0.0725  0.3822
 9900SOL    HW134511   9.224   6.988   0.844  0.4592 -0.2172  1.2893
 9900SOL    HW234512   9.239   7.136   0.873 -0.3414  0.0144  0.5502
 9901SOL     OW34513   1.070  10.309  11.075 -0.0210 -0.3977  0.0693
 9901SOL    HW134514   1.142  10.296  11.014 -0.1005 -1.7123  0.2150
 9901SOL    HW234515   1.098  10.381  11.131  0.0144  0.8777 -1.5513
 9902SOL     OW34516  10.537  11.211  12.599  0.0057  0.1293  0.3327
 9902SOL    HW134517  10.543  11.116  12.585  1.7552  0.3437 -0.6106
 9902SOL    HW234518  10.580  11.249  12.523  0.4740  1.6724  1.3310
 9903SOL     OW34519   0.430  12.097   9.397  0.0081  0.2151  0.6247
 9903SOL    HW134520   0.363  12.031   9.378 -0.8751  1.1574  0.3338
 9903SOL    HW234521   0.511  12.047   9.408 -0.2446 -0.7649 -1.5140
 9904SOL     OW34522   5.640   6.847   6.027  0.2258  0.2103 -0.0761
 9904SOL    HW134523   5.571   6.781   6.024  0.2590  0.1452  0.5845
 9904SOL    HW234524   5.595   6.930   6.011 -0.2734  0.3642  1.9395
 9905SOL     OW34525  11.661   5.154   3.905 -0.3716 -0.0428  0.2087
 9905SOL    HW134526  11.608   5.147   3.985 -0.6458 -0.4632 -0.0046
 9905SOL    HW234527  11.699   5.242   3.909 -1.2159  0.3344  0.2882
 9906SOL     OW34528   3.394   9.221   6.621 -0.2267 -0.3345  0.2683
 9906SOL    HW134529   3.335   9.269   6.562  0.9418  0.8315  0.0077
 9906SOL    HW234530   3.389   9.269   6.703 -0.1323 -0.6211  0.4416
 9907SOL     OW34531   8.603   2.590   2.619 -0.4954 -0.2099  1.0038
 9907SOL    HW134532   8.552   2.669   2.635  0.7815  0.7314  0.6095
 9907SOL    HW234533   8.549   2.538   2.559  0.5162  2.4950 -2.6201
 9908SOL     OW34534   5.760   2.626   0.601 -0.3810 -0.5639  0.5725
 9908SOL    HW134535   5.776   2.612   0.507  0.5886  1.1965  0.4357
 9908SOL    HW234536   5.665   2.622   0.610 -0.5006 -0.4956 -0.5439
 9909SOL     OW34537   2.340   5.654   9.857 -0.1620  0.1501  0.2140
 9909SOL    HW134538   2.263   5.638   9.911  0.7731 -0.0039  1.5485
 9909SOL    HW234539   2.384   5.727   9.899  0.7512 -0.1695 -0.1644
 9910SOL     OW34540   7.556  11.274   5.722  0.8660 -0.3289 -0.5542
 9910SOL    HW134541   7.596  11.239   5.642 -1.7396 -0.8077 -1.7405
 9910SOL    HW234542   7.483  11.215   5.739  0.4559  0.6711  1.3465
 9911SOL     OW34543   2.651   5.531   5.065  0.0327 -0.1038 -0.0481
 9911SOL    HW134544   2.563   5.566   5.081 -0.7220 -1.3987 -1.0994
 9911SOL    HW234545   2.690   5.522   5.152 -0.2721  1.9195  0.3371
 9912SOL     OW34546   5.519   2.914  12.226  0.3881  0.1825  0.5504
 9912SOL    HW134547   5.581   2.843  12.243 -0.0575 -0.5387 -0.6976
 9912SOL    HW234548   5.529   2.973  12.300 -1.1394 -2.5050  3.1012
 9913SOL     OW34549   7.922   5.187   0.847 -0.2065 -0.1508 -0.2189
 9913SOL    HW134550   7.945   5.132   0.922  0.6912 -0.7804 -0.9334
 9913SOL    HW234551   8.003   5.196   0.798 -0.3395  1.8394 -0.1361
 9914SOL     OW34552   3.378   1.041  10.147  0.7187 -0.4229  0.0360
 9914SOL    HW134553   3.378   1.095  10.226 -1.0307  0.7372 -0.6839
 9914SOL    HW234554   3.448   0.977  10.161  0.1482 -0.5627  2.7163
 9915SOL     OW34555   2.594   2.384   8.415  0.3471  0.2636 -0.9027
 9915SOL    HW134556   2.506   2.415   8.393 -0.1314 -0.0526  0.4661
 9915SOL    HW234557   2.626   2.445   8.481 -0.0372 -1.2616  0.7785
 9916SOL     OW34558   4.373   3.102   0.536 -0.3902  0.3991  1.1387
 9916SOL    HW134559   4.289   3.143   0.555 -1.6590 -0.8691 -1.2629
 9916SOL    HW234560   4.355   3.045   0.461  2.9366  1.1308 -0.3782
 9917SOL     OW34561   0.537   4.988  12.023  0.3588  0.0251 -0.3253
 9917SOL    HW134562   0.597   5.052  12.063 -1.5248  1.6767  0.0469
 9917SOL    HW234563   0.542   5.006  11.929  0.2436  0.3624 -0.2685
 9918SOL     OW34564   5.452   6.448   1.243 -0.3694  0.5361 -0.5816
 9918SOL    HW134565   5.483   6.535   1.219 -2.8501  1.2262 -1.6281
 9918SOL    HW234566   5.481   6.436   1.333  1.8126  1.5354 -1.0955
 9919SOL     OW34567   8.419   3.347  11.039 -0.6704 -0.2617  0.0273
 9919SOL    HW134568   8.444   3.257  11.060  1.0253  0.3644  0.8808
 9919SOL    HW234569   8.362   3.339  10.963 -1.0212 -2.0934  0.4461
 9920SOL     OW34570   0.118   9.766   2.843  0.4736  0.1263  0.2836
 9920SOL    HW134571   0.206   9.791   2.871  0.6129 -2.3268  2.4302
 9920SOL    HW234572   0.125   9.672   2.823 -1.4195  0.1254 -0.5604
 9921SOL     OW34573   6.864   6.236   3.086  0.4324  0.4127 -0.4035
 9921SOL    HW134574   6.795   6.171   3.099 -0.9040  1.0383 -3.6800
 9921SOL    HW234575   6.918   6.229   3.166 -1.3351 -2.5705  0.6889
 9922SOL     OW34576   2.613   1.540   7.400  0.0450 -0.0238 -0.0478
 9922SOL    HW134577   2.525   1.567   7.372 -0.7997 -1.7378  0.8026
 9922SOL    HW234578   2.658   1.621   7.421 -1.8124  0.8155  0.8524
 9923SOL     OW34579  11.994   9.914   1.380 -0.1742  0.1899  0.4040
 9923SOL    HW134580  12.034   9.827   1.376 -0.4376  0.0715  0.2380
 9923SOL    HW234581  12.001   9.947   1.290 -2.2574 -0.6781 -0.1452
 9924SOL     OW34582   9.011   2.308   2.661 -0.6249  0.6155 -0.0052
 9924SOL    HW134583   9.085   2.277   2.608 -0.3307  0.5085  0.4585
 9924SOL    HW234584   8.937   2.310   2.600 -0.4685 -0.2334 -0.2390
 9925SOL     OW34585   9.087  10.366  10.206  0.0559  0.8419 -0.5560
 9925SOL    HW134586   9.155  10.379  10.272 -1.1266  1.3229  0.6457
 9925SOL    HW234587   9.013  10.417  10.239 -0.3961  1.5736 -2.5888
 9926SOL     OW34588   3.001   5.660   9.597  0.4728 -0.0672  0.2511
 9926SOL    HW134589   2.927   5.701   9.553  0.2857  2.6082  2.7710
 9926SOL    HW234590   2.962   5.592   9.651  0.5066 -2.0109 -1.9874
 9927SOL     OW34591   0.939   0.949  10.367 -0.9091  0.6535 -0.2057
 9927SOL    HW134592   0.875   0.914  10.429 -1.3502  1.7551 -0.0074
 9927SOL    HW234593   0.936   1.044  10.381  1.1007  0.7122  0.1398
 9928SOL     OW34594   7.824   4.519   5.518 -0.5278  0.0158  0.0272
 9928SOL    HW134595   7.755   4.454   5.509  1.3008 -2.1940  1.0970
 9928SOL    HW234596   7.807   4.560   5.603  0.7148 -2.2022  1.4327
 9929SOL     OW34597   7.631   6.442  10.543 -0.5628 -0.1806  0.3424
 9929SOL    HW134598   7.544   6.474  10.517 -0.9096 -0.6908  0.8531
 9929SOL    HW234599   7.656   6.381  10.474 -1.9322 -2.3253  1.6251
 9930SOL     OW34600   7.433   9.662   5.034  0.3350 -0.2212  0.4329
 9930SOL    HW134601   7.387   9.703   4.961 -2.6644  1.8198  3.1860
 9930SOL    HW234602   7.519   9.705   5.035 -0.8833  2.4705  0.1638
 9931SOL     OW34603   6.320   0.652   8.896 -0.7592  0.0799  0.4198
 9931SOL    HW134604   6.395   0.663   8.838  0.1161 -0.9287  1.2995
 9931SOL    HW234605   6.270   0.733   8.887 -0.1246  0.3434 -0.9628
 9932SOL     OW34606   6.532   9.687   4.672 -0.1902  0.3277  0.4735
 9932SOL    HW134607   6.510   9.667   4.581 -3.4668 -0.4878  1.3143
 9932SOL    HW234608   6.551   9.601   4.711 -1.0249  0.3848  1.0360
 9933SOL     OW34609  12.252   5.503   1.887 -0.1025 -0.3410  0.3498
 9933SOL    HW134610  12.317   5.433   1.895  0.0061 -0.5662 -1.7892
 9933SOL    HW234611  12.181   5.476   1.945 -0.3299 -2.5828 -0.8494
 9934SOL     OW34612   4.622   9.648   1.481  0.1258 -0.2912 -0.2444
 9934SOL    HW134613   4.582   9.684   1.560  2.4411  4.2540 -0.8236
 9934SOL    HW234614   4.710   9.623   1.508  0.7073  0.6619 -1.1798
 9935SOL     OW34615  10.113  11.030   5.237 -0.1099 -0.0832 -0.0460
 9935SOL    HW134616  10.041  10.974   5.208 -1.2114  2.3237 -2.4369
 9935SOL    HW234617  10.071  11.112   5.265  1.5377  0.3599  1.3078
 9936SOL     OW34618  11.853  11.241   5.035  0.9041 -0.9848  0.3554
 9936SOL    HW134619  11.928  11.298   5.016 -0.3735  0.3615 -0.8572
 9936SOL    HW234620  11.853  11.178   4.963  0.4985 -0.5781 -0.0043
 9937SOL     OW34621  10.539   1.211  11.009  0.4025  0.1031 -0.0110
 9937SOL    HW134622  10.470   1.147  10.991  0.9242 -1.1911  2.1427
 9937SOL    HW234623  10.495   1.295  11.009 -1.2447 -0.6978  1.3300
 9938SOL     OW34624   9.216   4.169   7.233 -0.1797 -0.3793 -0.1963
 9938SOL    HW134625   9.201   4.262   7.255  1.0810 -0.0818 -0.5159
 9938SOL    HW234626   9.311   4.160   7.233 -0.2332 -1.2676 -1.8762
 9939SOL     OW34627   1.125   2.679   0.832  0.1928 -0.2035  0.4096
 9939SOL    HW134628   1.185   2.734   0.782  1.4541  0.4579  2.5280
 9939SOL    HW234629   1.048   2.734   0.846  0.6189  0.3082  0.7893
 9940SOL     OW34630   5.855  10.412   4.113  0.4191 -0.2692 -0.8343
 9940SOL    HW134631   5.777  10.384   4.160  0.8784  0.7898  0.6235
 9940SOL    HW234632   5.923  10.350   4.140  0.9393  0.9561  0.7853
 9941SOL     OW34633   7.390  12.477   7.039 -0.1927 -0.0796  0.0654
 9941SOL    HW134634   7.346  12.559   7.059 -2.0107 -0.5902 -1.5458
 9941SOL    HW234635   7.325  12.409   7.059  0.7594 -1.0478  0.0011
 9942SOL     OW34636   2.560   0.542  11.728  0.5687  0.7407  0.2530
 9942SOL    HW134637   2.558   0.550  11.632  2.4857 -3.3832 -0.3382
 9942SOL    HW234638   2.624   0.607  11.756  1.6015  0.5619 -1.5391
 9943SOL     OW34639   1.522   7.075   8.674 -0.0117  0.0937  0.2027
 9943SOL    HW134640   1.434   7.101   8.702  0.0007 -0.2388  0.5583
 9943SOL    HW234641   1.531   7.112   8.586 -0.5809 -0.0328  0.0850
 9944SOL     OW34642   8.883   3.465   5.537  0.4289  0.0984 -0.7338
 9944SOL    HW134643   8.792   3.444   5.516  0.4020  1.6825 -2.3808
 9944SOL    HW234644   8.925   3.380   5.548 -1.4489 -0.6849  1.1552
 9945SOL     OW34645   0.735  11.039   2.343  0.4204 -0.4917  0.3749
 9945SOL    HW134646   0.699  10.985   2.413  0.8993  0.7307  1.6017
 9945SOL    HW234647   0.658  11.080   2.302  0.2586  1.2504  2.2737
 9946SOL     OW34648   3.921   8.007   7.992  0.1753 -0.0336 -1.0906
 9946SOL    HW134649   4.012   8.010   7.961  0.4149  1.3044 -0.3371
 9946SOL    HW234650   3.892   8.098   7.987  0.2686  0.3279  2.6611
 9947SOL     OW34651   2.165   0.480   3.854  0.0247  0.0479  0.0055
 9947SOL    HW134652   2.217   0.404   3.828 -1.7067 -0.7683 -1.2835
 9947SOL    HW234653   2.172   0.482   3.949  0.9420 -1.1099 -0.0090
 9948SOL     OW34654   8.038   9.258   7.979 -0.3125  0.1600  0.3589
 9948SOL    HW134655   7.944   9.251   7.966 -0.0317 -0.4906 -1.4954
 9948SOL    HW234656   8.058   9.191   8.044 -0.9099 -0.7495 -0.3835
 9949SOL     OW34657   4.929   1.908   2.230 -0.4389 -0.0960  0.3262
 9949SOL    HW134658   4.901   1.820   2.253  0.5845 -0.4805  0.1891
 9949SOL    HW234659   4.934   1.908   2.134  1.6637 -0.6238  0.3732
 9950SOL     OW34660   0.552  12.220  10.548 -0.3099 -0.2862 -0.1408
 9950SOL    HW134661   0.583  12.301  10.588 -1.0012  0.2127 -0.5968
 9950SOL    HW234662   0.613  12.153  10.579 -1.5585 -0.1762  2.8484
 9951SOL     OW34663   9.489   9.402   7.287  0.1282 -0.2479 -0.0292
 9951SOL    HW134664   9.473   9.340   7.217  0.0975  0.2641 -0.4840
 9951SOL    HW234665   9.447   9.363   7.364  0.6126 -1.0624 -0.1635
 9952SOL     OW34666  10.147   3.687   9.503  0.1028 -0.3121 -0.1331
 9952SOL    HW134667  10.087   3.758   9.524 -0.9691 -1.6694  1.7507
 9952SOL    HW234668  10.234   3.721   9.522 -0.3440  0.6564  0.2071
 9953SOL     OW34669   2.084   5.816   9.377 -0.3305 -0.2160 -0.2651
 9953SOL    HW134670   1.995   5.802   9.412 -0.9670  3.5102 -0.0021
 9953SOL    HW234671   2.142   5.796   9.451 -1.0820 -0.6022  0.2350
 9954SOL     OW34672   2.193  12.365   0.621  0.0009 -0.2315  1.2647
 9954SOL    HW134673   2.233  12.429   0.562 -0.2898  0.4055  1.7452
 9954SOL    HW234674   2.200  12.282   0.575 -0.5891  0.3165  0.1481
 9955SOL     OW34675  10.714   0.936   9.441 -0.3613 -0.1346  0.3849
 9955SOL    HW134676  10.626   0.910   9.413 -0.8148  1.1730  0.4899
 9955SOL    HW234677  10.738   0.873   9.508 -1.4697 -0.1796  0.7570
 9956SOL     OW34678   4.800   4.177   5.889 -0.7580  0.1992 -0.4639
 9956SOL    HW134679   4.840   4.189   5.803 -0.9160  1.3685 -0.3898
 9956SOL    HW234680   4.712   4.213   5.880 -0.7769  0.3240  0.1713
 9957SOL     OW34681   3.910  10.829   2.769  0.1981  0.4781  0.2534
 9957SOL    HW134682   4.002  10.821   2.793  0.5590  1.7332 -0.6297
 9957SOL    HW234683   3.903  10.786   2.684  0.1404  1.0802 -0.0494
 9958SOL     OW34684  11.135   2.809   4.452 -0.1452  0.2534 -0.4962
 9958SOL    HW134685  11.053   2.858   4.457 -0.9923 -1.1616  0.0898
 9958SOL    HW234686  11.109   2.721   4.424  1.0864 -0.4080  0.3385
 9959SOL     OW34687   2.413   1.244   1.235 -0.2450 -0.1137 -0.2264
 9959SOL    HW134688   2.341   1.203   1.187 -0.4439 -0.0532  0.0173
 9959SOL    HW234689   2.492   1.209   1.194 -0.3590 -2.3953  1.2994
 9960SOL     OW34690   9.799   4.743   1.073 -0.0403 -0.0539  0.5464
 9960SOL    HW134691   9.830   4.677   1.135 -1.4892  0.0478  1.4294
 9960SOL    HW234692   9.707   4.719   1.058  0.0284  0.4736 -0.8581
 9961SOL     OW34693   2.230   0.612   0.780 -0.0893 -0.1995  0.3452
 9961SOL    HW134694   2.166   0.555   0.823 -0.3975  0.1272  0.3254
 9961SOL    HW234695   2.206   0.609   0.687 -0.2786  0.1753  0.3793
 9962SOL     OW34696   0.310  12.203   6.411 -0.2369 -0.9670 -0.7841
 9962SOL    HW134697   0.245  12.234   6.474 -2.9775 -5.0103 -1.2190
 9962SOL    HW234698   0.392  12.243   6.439 -2.3338  2.1336  1.5997
 9963SOL     OW34699   6.067  12.005  10.860 -0.3133  0.5361  0.0982
 9963SOL    HW134700   6.055  11.988  10.767  1.2104  2.0768 -0.4217
 9963SOL    HW234701   5.993  12.061  10.884 -0.3642  0.6554 -0.3324
 9964SOL     OW34702   0.948   8.538  10.541 -0.0384 -0.5387  0.4450
 9964SOL    HW134703   0.939   8.462  10.599  0.1587  0.6244  2.0609
 9964SOL    HW234704   0.861   8.577  10.538  0.0437 -0.3629  0.2625
 9965SOL     OW34705  10.403   7.857   2.506 -0.1006  0.0858 -0.0454
 9965SOL    HW134706  10.479   7.903   2.469 -1.8860  2.0204 -1.5780
 9965SOL    HW234707  10.437   7.772   2.533  2.4540  0.6046 -1.3243
 9966SOL     OW34708   1.106  11.628   6.702  0.3509 -0.0037 -0.4637
 9966SOL    HW134709   1.117  11.692   6.632  1.5297 -0.6138 -0.8585
 9966SOL    HW234710   1.148  11.668   6.778 -0.3144  0.3543 -0.2706
 9967SOL     OW34711  11.320   0.582  11.739 -0.8965  0.2497 -0.5065
 9967SOL    HW134712  11.406   0.570  11.700 -0.7937  0.3093 -0.3012
 9967SOL    HW234713  11.314   0.511  11.804 -0.7795  0.5756 -0.1373
 9968SOL     OW34714   5.739   0.079   9.895  0.3558 -0.2718  0.0841
 9968SOL    HW134715   5.792   0.028   9.834  0.2016  2.2111 -2.2794
 9968SOL    HW234716   5.802   0.109   9.961  1.0145 -1.0301 -0.1768
 9969SOL     OW34717   6.472   0.411   4.648 -0.5120  0.0590 -0.0437
 9969SOL    HW134718   6.467   0.434   4.741 -1.5936 -0.3247  0.0071
 9969SOL    HW234719   6.398   0.353   4.634 -0.9514  0.9103 -1.3813
 9970SOL     OW34720  11.290   1.072   9.963 -0.5275  0.3132 -0.2606
 9970SOL    HW134721  11.316   0.984   9.989 -3.1458 -0.4251  0.1559
 9970SOL    HW234722  11.310   1.126  10.040 -1.6634 -0.5225  0.6659
 9971SOL     OW34723   3.800  11.821   8.227 -0.2150 -0.1043 -0.0592
 9971SOL    HW134724   3.767  11.902   8.266 -0.1848 -0.3502  0.4905
 9971SOL    HW234725   3.893  11.837   8.213 -0.1610 -0.1170  0.2601
 9972SOL     OW34726   8.605  10.747   0.584 -0.5726 -0.4236 -0.3001
 9972SOL    HW134727   8.626  10.676   0.645 -1.4659 -1.3254 -1.0047
 9972SOL    HW234728   8.689  10.786   0.563 -0.2198 -0.2022  1.3566
 9973SOL     OW34729   7.971   9.842   9.552  0.5734  0.1152  0.4082
 9973SOL    HW134730   7.898   9.791   9.587  0.1544 -0.4858 -1.2754
 9973SOL    HW234731   7.944   9.934   9.563 -0.0655 -0.0885  0.5541
 9974SOL     OW34732  12.280   1.310   0.828 -0.0428  0.2494 -0.0464
 9974SOL    HW134733  12.295   1.386   0.772 -1.1851  0.3873 -0.1985
 9974SOL    HW234734  12.366   1.287   0.863  0.2267  2.0006  0.5068
 9975SOL     OW34735   2.325   5.696  11.325  0.1821 -0.5803 -0.1466
 9975SOL    HW134736   2.396   5.754  11.351 -0.8995 -0.0990  1.9868
 9975SOL    HW234737   2.246   5.738  11.358 -0.7420 -2.7850  0.6802
 9976SOL     OW34738   9.817  12.006   2.395  0.2175 -0.1078 -0.2911
 9976SOL    HW134739   9.804  11.942   2.326  1.1737 -0.8670  0.2071
 9976SOL    HW234740   9.732  12.049   2.405 -0.0880 -0.4128 -1.5016
 9977SOL     OW34741   7.226   2.119  11.624 -0.0426 -0.1087  0.3689
 9977SOL    HW134742   7.235   2.065  11.703 -0.4218 -1.0207 -0.1935
 9977SOL    HW234743   7.306   2.102  11.574 -0.0896 -0.0290  0.2669
 9978SOL     OW34744   5.797   7.857   5.902  0.0035 -0.2935  0.3309
 9978SOL    HW134745   5.771   7.765   5.906 -0.6737 -0.0832  0.9749
 9978SOL    HW234746   5.874   7.862   5.959 -2.4299  0.3064  3.9025
 9979SOL     OW34747   2.431   9.723   2.672 -0.0301  0.0066  0.0860
 9979SOL    HW134748   2.381   9.800   2.646  0.4845  0.2576 -0.1634
 9979SOL    HW234749   2.518   9.756   2.692 -0.2128 -0.2934  1.4426
 9980SOL     OW34750  11.223   9.890   7.543  0.9091 -0.0015 -0.4724
 9980SOL    HW134751  11.309   9.927   7.523  0.6677 -0.3859 -2.4090
 9980SOL    HW234752  11.218   9.809   7.492 -0.2688 -0.4360  0.2803
 9981SOL     OW34753   7.628   6.437   9.954 -0.2888 -0.4744  0.3687
 9981SOL    HW134754   7.697   6.423  10.020 -1.3936 -0.9104  1.4625
 9981SOL    HW234755   7.676   6.453   9.873  1.1839  2.3726  1.6523
 9982SOL     OW34756   9.114  10.116   5.496 -0.7019 -0.1680  0.0039
 9982SOL    HW134757   9.178  10.085   5.560 -0.3380 -1.2295 -0.8447
 9982SOL    HW234758   9.069  10.188   5.540  1.5908  1.1386  0.3613
 9983SOL     OW34759   8.044   3.711   1.770  0.0677  0.4857 -0.3494
 9983SOL    HW134760   7.963   3.762   1.762 -0.3635 -0.3119 -1.1507
 9983SOL    HW234761   8.114   3.777   1.764 -0.5013  1.1146 -0.2198
 9984SOL     OW34762  11.362   6.792   7.286  0.5080 -0.0180  0.2091
 9984SOL    HW134763  11.342   6.832   7.202  0.1258  0.6243  0.5998
 9984SOL    HW234764  11.455   6.770   7.281  0.5106  0.1022 -0.3424
 9985SOL     OW34765   0.879   4.880   4.293 -0.1632 -0.8238  0.2705
 9985SOL    HW134766   0.891   4.890   4.198 -2.1239 -0.7145 -0.0046
 9985SOL    HW234767   0.874   4.785   4.306  1.5841 -0.9163  0.5097
 9986SOL     OW34768   6.191   7.974  10.900  0.0973 -0.0867  0.0772
 9986SOL    HW134769   6.098   7.985  10.921 -0.2559  2.0803 -2.2512
 9986SOL    HW234770   6.201   8.011  10.813  3.1583 -0.3916  0.1951
 9987SOL     OW34771   9.383   3.422   5.637  0.3382  0.0420  0.4622
 9987SOL    HW134772   9.341   3.343   5.603  0.0088 -0.1219  1.2242
 9987SOL    HW234773   9.333   3.494   5.599 -1.1126 -0.1517  1.8865
 9988SOL     OW34774  10.700   9.075   0.297  0.1144  0.5726  0.0448
 9988SOL    HW134775  10.666   8.994   0.258  1.9034  0.3424 -1.1386
 9988SOL    HW234776  10.686   9.065   0.391 -0.7881 -0.5710 -0.1963
 9989SOL     OW34777   7.819   1.460   6.506 -0.2092 -0.0710  0.6978
 9989SOL    HW134778   7.828   1.551   6.477  2.7741 -0.7243 -0.8717
 9989SOL    HW234779   7.754   1.422   6.448 -2.5390  1.2947  2.2574
 9990SOL     OW34780   6.712   2.559   6.108  0.1772  0.1480 -0.3802
 9990SOL    HW134781   6.631   2.602   6.137 -0.5085 -1.2528 -0.0948
 9990SOL    HW234782   6.780   2.625   6.119 -1.0441  1.6424 -1.3923
 9991SOL     OW34783   2.257   5.611   1.833 -0.8559  0.4939  0.0677
 9991SOL    HW134784   2.171   5.569   1.840 -1.0858  0.2191 -3.1577
 9991SOL    HW234785   2.237   5.705   1.828 -1.0497  0.4095 -1.0485
 9992SOL     OW34786   8.825   6.318   0.269 -0.5584  0.6891 -0.2153
 9992SOL    HW134787   8.813   6.227   0.296  0.4186  1.1192  1.8003
 9992SOL    HW234788   8.875   6.312   0.188  2.8797 -0.5646  1.7904
 9993SOL     OW34789   7.018   0.515   5.126 -0.4514  0.3489 -0.0632
 9993SOL    HW134790   7.059   0.589   5.170 -1.6425  2.6937 -2.5877
 9993SOL    HW234791   7.076   0.496   5.053 -0.3967 -0.9573  0.2936
 9994SOL     OW34792   8.092   5.317   2.957  0.5494  0.3196 -0.0859
 9994SOL    HW134793   8.138   5.264   3.022 -1.2094  0.8083  1.6564
 9994SOL    HW234794   8.033   5.255   2.913 -2.0013  0.7998  2.4149
 9995SOL     OW34795   8.439   3.961   9.010 -0.1517 -0.4351  0.1256
 9995SOL    HW134796   8.444   4.041   8.958 -0.4982  0.0511  0.8331
 9995SOL    HW234797   8.464   3.892   8.948 -0.2386  0.1605 -0.5998
 9996SOL     OW34798  10.533   9.327  11.920 -0.1503 -0.3541  0.6173
 9996SOL    HW134799  10.600   9.394  11.907  0.8122 -1.1643  1.2988
 9996SOL    HW234800  10.578   9.256  11.966 -1.3963 -1.0553  0.7986
 9997SOL     OW34801   9.959   5.614   2.707  0.0735 -0.0610 -0.4035
 9997SOL    HW134802   9.960   5.683   2.641  2.8499  0.0768 -0.3571
 9997SOL    HW234803   9.941   5.658   2.790 -0.6454  0.1944 -0.6908
 9998SOL     OW34804   2.794   1.136  12.072  0.1598 -0.2482  0.2019
 9998SOL    HW134805   2.726   1.072  12.051 -0.0125 -0.2779  0.8106
 9998SOL    HW234806   2.797   1.195  11.997  2.1803 -2.4996 -1.6243
 9999SOL     OW34807  10.307   9.904   8.827 -0.7127  0.0345  0.4212
 9999SOL    HW134808  10.265   9.938   8.905 -0.8868 -0.0550  0.3669
 9999SOL    HW234809  10.235   9.880   8.769 -0.5994 -0.7458  0.5920
10000SOL     OW34810   3.382   9.736   2.286 -0.3325 -0.7608  0.0394
10000SOL    HW134811   3.414   9.656   2.244 -0.0107 -0.8314  0.4169
10000SOL    HW234812   3.416   9.732   2.375  0.9004  0.4805 -0.3380
10001SOL     OW34813   7.811   1.836   6.957 -0.0318  0.4195 -0.0407
10001SOL    HW134814   7.772   1.866   6.875 -0.1730  0.3459 -0.0010
10001SOL    HW234815   7.814   1.914   7.012 -2.2310 -0.0279  0.7856
10002SOL     OW34816   4.255   3.877   8.664  0.1116 -0.0275 -0.5959
10002SOL    HW134817   4.200   3.816   8.615  0.5448 -0.8112 -0.1216
10002SOL    HW234818   4.339   3.832   8.672 -0.2521 -0.3793  1.7868
10003SOL     OW34819   6.822   1.924   7.134 -0.0152  0.0321 -0.1727
10003SOL    HW134820   6.879   1.943   7.059  0.2418 -2.0381 -0.5805
10003SOL    HW234821   6.761   1.997   7.138  0.4456  0.5619 -1.9548
10004SOL     OW34822   7.706   9.790   4.168 -1.1448 -0.1240 -0.4180
10004SOL    HW134823   7.735   9.875   4.200  0.7539 -1.4345  1.6425
10004SOL    HW234824   7.775   9.761   4.108 -1.3457 -0.5605 -0.4445
10005SOL     OW34825   2.226  10.562   4.304  0.0276  0.4315  0.1175
10005SOL    HW134826   2.305  10.511   4.320 -1.5496 -2.3439 -0.4138
10005SOL    HW234827   2.206  10.548   4.212 -0.9521  1.2854  0.1840
10006SOL     OW34828   6.836   3.281  11.495  0.8314  0.1839  0.0377
10006SOL    HW134829   6.812   3.250  11.582  0.1739 -1.9892 -0.8488
10006SOL    HW234830   6.931   3.280  11.494  0.8848 -2.5360 -0.0944
10007SOL     OW34831   9.724  10.191   8.388 -0.1147  0.1325  0.4454
10007SOL    HW134832   9.744  10.275   8.428 -0.7658  0.5759 -0.1339
10007SOL    HW234833   9.665  10.212   8.315  1.2077 -0.6036 -0.9140
10008SOL     OW34834   5.786   5.283   6.699 -0.1298  0.3409 -0.3118
10008SOL    HW134835   5.827   5.205   6.661 -1.4842 -0.6459  0.1615
10008SOL    HW234836   5.827   5.294   6.784  0.5625  0.5884 -0.6661
10009SOL     OW34837   4.890   4.479   5.343  0.1491  0.0270 -0.7289
10009SOL    HW134838   4.960   4.425   5.306 -0.0673  0.5637 -1.9784
10009SOL    HW234839   4.821   4.417   5.366  0.9567 -0.4940  0.4048
10010SOL     OW34840   6.225  12.599   4.797 -0.2776 -0.0503  0.2957
10010SOL    HW134841   6.304  12.587   4.744 -0.4204  0.6049 -0.0715
10010SOL    HW234842   6.208  12.693   4.794 -2.1646 -0.3937 -1.2266
10011SOL     OW34843  11.572   9.725   4.612  0.1636 -0.0322  0.0483
10011SOL    HW134844  11.530   9.668   4.547  0.9740 -2.3998  1.4653
10011SOL    HW234845  11.665   9.700   4.610  0.2022 -0.2767  2.1307
10012SOL     OW34846   6.803   1.249  11.523  0.5550  0.0581 -0.1299
10012SOL    HW134847   6.845   1.202  11.595 -1.7802 -0.4590  0.9730
10012SOL    HW234848   6.764   1.180  11.469 -0.0971  0.5657 -0.3209
10013SOL     OW34849  11.146   8.373   2.185 -0.0775 -0.4380 -0.7602
10013SOL    HW134850  11.238   8.376   2.161  0.1123 -1.4212 -0.2057
10013SOL    HW234851  11.099   8.393   2.103  0.6088 -0.8549 -1.2658
10014SOL     OW34852   7.354   1.624   0.911  0.6489 -0.2258 -0.6534
10014SOL    HW134853   7.359   1.530   0.929 -0.2294 -0.3544 -1.0116
10014SOL    HW234854   7.345   1.631   0.816  0.4249  0.1978 -0.6071
10015SOL     OW34855   9.583   7.612   7.278 -0.1882  0.8265 -0.4666
10015SOL    HW134856   9.575   7.532   7.225 -0.6383  0.1696  0.5667
10015SOL    HW234857   9.493   7.636   7.300  0.0045  0.9182  0.2550
10016SOL     OW34858  11.927   2.460   1.463  0.4242 -0.1738  0.3305
10016SOL    HW134859  11.992   2.429   1.527  0.1916 -0.0501  0.6269
10016SOL    HW234860  11.843   2.443   1.504  0.2702 -0.2199 -0.0049
10017SOL     OW34861   1.388   2.285   5.883 -0.4177 -0.4843  0.3440
10017SOL    HW134862   1.447   2.227   5.931 -0.7730  1.2929  3.1314
10017SOL    HW234863   1.305   2.280   5.930 -1.0326  0.7722 -0.5460
10018SOL     OW34864   0.394   3.645  12.175  0.4195 -0.0522 -0.6008
10018SOL    HW134865   0.435   3.713  12.121  0.4559 -1.6571 -2.7451
10018SOL    HW234866   0.301   3.665  12.173  0.6107  1.0753  0.5447
10019SOL     OW34867   1.485   9.316   1.927 -0.1967  0.5341 -0.2078
10019SOL    HW134868   1.431   9.360   1.861 -1.2058  0.4655  0.5538
10019SOL    HW234869   1.423   9.288   1.994  0.4548 -1.6626 -0.4312
10020SOL     OW34870  10.636   5.343   5.879  0.4148  0.2568  0.3801
10020SOL    HW134871  10.688   5.273   5.838  0.2364 -0.1265  0.7982
10020SOL    HW234872  10.695   5.380   5.946 -0.1169 -0.7429  1.4414
10021SOL     OW34873   0.644   5.739   9.615 -0.3233 -0.6699 -0.5061
10021SOL    HW134874   0.681   5.801   9.679 -0.5541 -0.3488 -0.6787
10021SOL    HW234875   0.720   5.710   9.565 -0.4924  1.5513 -2.2157
10022SOL     OW34876   1.202   1.202   4.170  0.2008 -0.0760 -0.2260
10022SOL    HW134877   1.110   1.173   4.174 -0.9623  3.0388 -1.2592
10022SOL    HW234878   1.216   1.224   4.078  1.6888  0.4668  0.1087
10023SOL     OW34879   3.613   5.028  10.775  0.1095  0.2257  0.2403
10023SOL    HW134880   3.691   5.017  10.720 -0.5897  1.5353 -1.0800
10023SOL    HW234881   3.614   5.121  10.798 -0.3071 -0.0473  1.4301
10024SOL     OW34882   4.012   6.608   3.094 -0.4988 -0.4501  0.1916
10024SOL    HW134883   4.046   6.572   3.176 -0.3219  1.2212  0.8783
10024SOL    HW234884   4.073   6.575   3.027  2.0272  1.6511  1.2662
10025SOL     OW34885   9.056   2.185   7.939  0.4030  0.0363 -0.1563
10025SOL    HW134886   8.998   2.242   7.889 -0.0385  1.3445  1.7625
10025SOL    HW234887   9.144   2.207   7.909  0.2038  1.4030  0.2123
10026SOL     OW34888   2.271   4.107  10.847 -0.5152 -0.2642 -0.3537
10026SOL    HW134889   2.214   4.181  10.828 -0.9257 -0.1606  1.1318
10026SOL    HW234890   2.360   4.141  10.837 -0.7012  0.4231  0.2398
10027SOL     OW34891   4.979   3.819   9.338 -0.0293  0.3367  0.4758
10027SOL    HW134892   5.013   3.734   9.366  0.0331  0.3286  0.3741
10027SOL    HW234893   4.976   3.871   9.419 -1.8584 -0.3580  0.9152
10028SOL     OW34894  10.421   1.131   4.960  0.1729  0.3050 -0.2104
10028SOL    HW134895  10.502   1.084   4.978  0.0710  0.1913 -0.0350
10028SOL    HW234896  10.352   1.066   4.976  0.0069  0.6479  0.5264
10029SOL     OW34897   5.428   5.383   1.591 -0.3173  0.3050  0.6548
10029SOL    HW134898   5.476   5.443   1.648 -2.4174  1.4731  1.2837
10029SOL    HW234899   5.386   5.439   1.527  0.4540 -0.8437 -0.9385
10030SOL     OW34900   6.720   5.471   4.916  0.4731 -0.2366  0.4190
10030SOL    HW134901   6.762   5.513   4.840  0.9081 -0.4977  0.5114
10030SOL    HW234902   6.685   5.389   4.881  0.1180 -0.0689  0.3668
10031SOL     OW34903   3.483  12.341   6.844 -0.1439 -0.0494  0.2338
10031SOL    HW134904   3.518  12.359   6.931 -0.5758 -0.6601  0.5447
10031SOL    HW234905   3.401  12.294   6.861  1.2137 -2.9392 -0.4724
10032SOL     OW34906   3.993   5.625   1.156 -0.2619  0.2473 -0.3795
10032SOL    HW134907   3.970   5.547   1.207  1.4826  0.1481  0.3210
10032SOL    HW234908   4.075   5.656   1.195  1.4598 -0.1061 -3.3575
10033SOL     OW34909   5.955   8.238   4.241  0.1089  0.2593 -0.5357
10033SOL    HW134910   6.035   8.266   4.286 -0.8516  1.4772  0.4774
10033SOL    HW234911   5.925   8.316   4.195 -0.5581 -0.1527 -0.8085
10034SOL     OW34912   2.982   9.314   9.398  0.2873 -0.4327  0.2608
10034SOL    HW134913   3.052   9.377   9.381 -0.0384 -0.2322 -0.4203
10034SOL    HW234914   2.957   9.282   9.311 -0.1871 -0.8052  0.5246
10035SOL     OW34915   0.008  10.058   5.244  0.1616 -0.1316 -0.7092
10035SOL    HW134916   0.033  10.129   5.303 -0.1514  0.7501 -1.6035
10035SOL    HW234917   0.042   9.979   5.286  0.0332  0.4767  0.5845
10036SOL     OW34918   8.188   7.244   1.250 -0.2609  0.1693 -0.2820
10036SOL    HW134919   8.148   7.226   1.164  0.2865  0.6001 -0.6327
10036SOL    HW234920   8.263   7.184   1.253  0.6724  1.2800 -0.8045
10037SOL     OW34921   3.723  11.736  11.906  0.0392  0.7737 -0.2236
10037SOL    HW134922   3.751  11.651  11.940  1.0583  1.2827  0.2482
10037SOL    HW234923   3.659  11.715  11.838  1.1984 -0.4235 -0.9849
10038SOL     OW34924   8.380   9.927   2.544 -0.7436  0.2854  0.0011
10038SOL    HW134925   8.435   9.959   2.472  0.1377 -2.1264 -0.4915
10038SOL    HW234926   8.330   9.855   2.506 -0.1106 -1.1877  1.7857
10039SOL     OW34927   2.696   2.008   1.232 -0.8763 -0.1982  0.5646
10039SOL    HW134928   2.603   2.031   1.235 -0.8112  1.0873 -2.8301
10039SOL    HW234929   2.739   2.089   1.205  0.8536 -1.4509 -0.6543
10040SOL     OW34930  12.550   7.891   3.970  0.3663  0.1827 -0.4516
10040SOL    HW134931  12.614   7.823   3.950  0.0691 -0.4815  0.7737
10040SOL    HW234932  12.586   7.970   3.931  1.4281 -0.3971 -0.6706
10041SOL     OW34933  11.621   7.827   8.274  0.1717 -0.2834  0.8082
10041SOL    HW134934  11.635   7.776   8.194  1.0964  0.2647  0.6058
10041SOL    HW234935  11.709   7.842   8.308 -0.2459 -1.1112  2.3195
10042SOL     OW34936   8.148   7.835   1.825 -0.2424  0.2016  0.2856
10042SOL    HW134937   8.212   7.873   1.765  0.7928 -0.8983  0.6595
10042SOL    HW234938   8.117   7.909   1.877  1.9813  0.5430  1.2391
10043SOL     OW34939   9.033   2.020  12.528  0.7693  0.6151  0.3284
10043SOL    HW134940   9.104   2.083  12.544 -1.5432  3.4229  0.2755
10043SOL    HW234941   8.965   2.042  12.591 -0.6846 -1.0280 -0.5552
10044SOL     OW34942   2.305   3.071   9.334  0.6381 -0.5310  0.2276
10044SOL    HW134943   2.268   3.025   9.258 -0.2879 -1.0381  0.9584
10044SOL    HW234944   2.400   3.065   9.322  0.5091  0.1486 -1.3231
10045SOL     OW34945   9.010   4.529   6.909  0.4112  0.7584  0.0737
10045SOL    HW134946   8.953   4.459   6.878  1.0702  0.0693  0.3761
10045SOL    HW234947   9.078   4.536   6.842  0.6997  0.6667  0.3539
10046SOL     OW34948   1.521   1.845   2.939  0.8615 -0.1886 -0.2736
10046SOL    HW134949   1.455   1.898   2.896  0.4644 -0.4357  0.0242
10046SOL    HW234950   1.555   1.787   2.870  1.1809  0.3316 -0.5584
10047SOL     OW34951   4.219   4.267   5.956 -0.4280  0.2883  0.1717
10047SOL    HW134952   4.244   4.177   5.933 -1.1213  0.1424 -0.0332
10047SOL    HW234953   4.301   4.307   5.985  0.3652  0.2717 -1.8578
10048SOL     OW34954   4.455   8.480   1.250  0.0101 -0.1735  0.2272
10048SOL    HW134955   4.443   8.473   1.344 -1.9169  1.2639  0.1517
10048SOL    HW234956   4.487   8.394   1.223  2.7936  0.0263  2.4336
10049SOL     OW34957   1.222   4.991   1.342  0.2112  0.4096 -0.2282
10049SOL    HW134958   1.269   5.027   1.417  0.8392 -0.4800 -0.1822
10049SOL    HW234959   1.259   5.039   1.267  2.2493 -1.2174 -0.3516
10050SOL     OW34960   5.110   9.549   2.729 -0.1298 -0.2176  0.2881
10050SOL    HW134961   5.167   9.477   2.754 -0.4395 -0.7807 -0.6076
10050SOL    HW234962   5.150   9.586   2.651  0.1834  0.7793  0.8970
10051SOL     OW34963   8.179   2.848   7.234  0.0380  0.3492  0.5043
10051SOL    HW134964   8.155   2.790   7.307  0.7858 -0.3348  0.2201
10051SOL    HW234965   8.173   2.793   7.156  1.3433  0.4780  0.2954
10052SOL     OW34966  11.954  10.585   8.542 -0.0640 -0.3709 -0.3160
10052SOL    HW134967  12.006  10.660   8.572 -1.4167 -0.1081  1.5755
10052SOL    HW234968  11.874  10.588   8.595 -0.5061 -2.7272 -0.7162
10053SOL     OW34969   5.945   8.533   0.543  0.0072  0.2464  0.2533
10053SOL    HW134970   6.023   8.481   0.526 -0.8652 -1.0671  0.1639
10053SOL    HW234971   5.899   8.535   0.459  0.1027  1.3208  0.2077
10054SOL     OW34972   4.325  10.508   4.527  0.0032 -0.2413 -0.3630
10054SOL    HW134973   4.232  10.494   4.509  0.0950 -1.1880 -0.1483
10054SOL    HW234974   4.330  10.515   4.622  0.0472  0.7049 -0.4242
10055SOL     OW34975   0.253   9.616   4.240 -0.2563 -0.1044  0.2318
10055SOL    HW134976   0.270   9.691   4.298 -1.8345 -0.7017  1.5523
10055SOL    HW234977   0.158   9.616   4.228 -0.0472 -0.4390 -1.8299
10056SOL     OW34978  11.753   8.790  10.772 -0.0964  0.3737  0.0613
10056SOL    HW134979  11.844   8.816  10.784 -0.5022  1.1802  1.6217
10056SOL    HW234980  11.711   8.867  10.733 -0.5640  0.8605  1.4632
10057SOL     OW34981   8.059  12.004   9.309 -0.3717  0.6276 -0.2483
10057SOL    HW134982   8.124  11.989   9.378  0.5701  0.6062 -1.1225
10057SOL    HW234983   8.069  11.929   9.250  0.5176  1.8388 -1.6865
10058SOL     OW34984   2.656   2.757   9.336  0.1652 -0.0302  0.2907
10058SOL    HW134985   2.699   2.838   9.363  0.5400  0.2210 -0.9673
10058SOL    HW234986   2.702   2.731   9.256 -1.3707 -0.2946 -0.5532
10059SOL     OW34987   8.234   5.901   4.281  0.2354 -0.2300 -0.1029
10059SOL    HW134988   8.191   5.889   4.366 -1.8945 -1.8156 -1.3063
10059SOL    HW234989   8.265   5.814   4.257 -2.5957 -0.7220 -2.5581
10060SOL     OW34990   4.504   6.468   4.871  0.0900  0.0254  0.1141
10060SOL    HW134991   4.454   6.534   4.919 -0.0950 -0.4918  0.6483
10060SOL    HW234992   4.527   6.403   4.937 -0.4309 -0.8648 -0.5608
10061SOL     OW34993   2.775   9.639   0.789  0.4245  0.0595  0.2815
10061SOL    HW134994   2.713   9.595   0.731  1.4343 -2.0849  0.7136
10061SOL    HW234995   2.741   9.622   0.877  1.2189 -0.5571  0.4865
10062SOL     OW34996   0.767   4.465   4.604  0.5628 -0.1062  0.3726
10062SOL    HW134997   0.755   4.370   4.611  0.7078 -0.1477  0.0699
10062SOL    HW234998   0.862   4.476   4.593  0.4383  0.0019 -0.7375
10063SOL     OW34999   7.466   0.007   4.190 -0.0120 -0.2875 -0.0031
10063SOL    HW135000   7.439   0.027   4.280  0.8737  0.4549  0.1072
10063SOL    HW235001   7.437   0.082   4.138 -2.5588 -1.7107 -0.7799
10064SOL     OW35002   5.027   6.122   3.957  0.3656 -0.0157 -0.8482
10064SOL    HW135003   5.058   6.128   4.048 -1.2376 -1.2098 -0.1638
10064SOL    HW235004   4.939   6.086   3.965 -0.4668  1.4117 -2.7961
10065SOL     OW35005   5.918   8.545  12.005  0.6078 -0.6391  0.1141
10065SOL    HW135006   5.856   8.613  12.033 -0.3760 -1.0353 -1.0099
10065SOL    HW235007   6.000   8.592  11.991  0.1056  0.2181 -0.0467
10066SOL     OW35008   8.057   8.652   1.561 -0.0297  0.0912  0.7075
10066SOL    HW135009   8.036   8.743   1.539  2.0982  0.7933  1.3182
10066SOL    HW235010   7.994   8.628   1.629 -0.6310  1.0942  0.5198
10067SOL     OW35011   5.656  12.201   8.487  0.1641  0.2628 -0.3561
10067SOL    HW135012   5.707  12.193   8.567 -0.4793  0.2365  0.0514
10067SOL    HW235013   5.669  12.292   8.459  0.2264  0.3280 -0.1148
10068SOL     OW35014   4.940   7.610  10.643 -0.4014  0.5907 -0.2722
10068SOL    HW135015   4.947   7.668  10.718 -2.2539 -0.4122  0.7491
10068SOL    HW235016   4.965   7.524  10.676 -2.3620 -0.0903 -0.4321
10069SOL     OW35017   6.471   7.135  12.516 -0.3246  0.2473  0.4905
10069SOL    HW135018   6.475   7.136  12.421  0.9993  2.1540  0.5107
10069SOL    HW235019   6.400   7.074  12.536  0.9805 -2.1395 -1.5923
10070SOL     OW35020  12.080   6.624   6.246 -0.4219  0.0413 -0.2321
10070SOL    HW135021  12.124   6.615   6.161 -0.8663 -3.4843 -0.2310
10070SOL    HW235022  11.995   6.583   6.233 -0.7648  0.0741  1.7268
10071SOL     OW35023   4.223  11.032  10.267  0.0022  0.2368  0.9039
10071SOL    HW135024   4.135  11.043  10.231  0.1615 -0.3192  0.3197
10071SOL    HW235025   4.266  11.116  10.250 -0.1936  0.2714  0.5611
10072SOL     OW35026   9.257   1.043   6.127  0.3928 -0.0784  0.2146
10072SOL    HW135027   9.292   1.128   6.152 -0.5872  0.8038 -1.2335
10072SOL    HW235028   9.162   1.051   6.139  0.1606 -0.4937 -1.1184
10073SOL     OW35029   9.590  12.275  10.128  0.2639  0.0936  0.1143
10073SOL    HW135030   9.638  12.356  10.148 -0.4672  0.2005  1.5571
10073SOL    HW235031   9.515  12.304  10.076 -0.3845  0.4651  1.2228
10074SOL     OW35032   8.310   0.541   4.250  0.1621 -0.1774 -0.7691
10074SOL    HW135033   8.315   0.546   4.155 -2.2467 -1.7352 -1.0737
10074SOL    HW235034   8.246   0.608   4.274 -0.9510 -1.2803 -0.5427
10075SOL     OW35035   3.630   6.276  11.554  0.3954 -0.4345 -0.4066
10075SOL    HW135036   3.615   6.357  11.601  1.3636 -0.2049 -0.4677
10075SOL    HW235037   3.724   6.277  11.534  0.5812 -1.9279  0.2795
10076SOL     OW35038  11.389   5.251   6.693  0.4752  0.0672  0.1042
10076SOL    HW135039  11.354   5.165   6.716  0.1868 -0.4650 -2.1448
10076SOL    HW235040  11.333   5.313   6.740 -1.0750 -0.8873 -0.4168
10077SOL     OW35041  12.445  11.248   6.401  0.4576 -0.1453  0.3118
10077SOL    HW135042  12.506  11.180   6.430  0.4823 -1.4824 -2.5908
10077SOL    HW235043  12.394  11.207   6.331 -1.3857  2.0344  0.2582
10078SOL     OW35044   6.873  12.554   2.801 -0.5164  1.2888 -0.2609
10078SOL    HW135045   6.884  12.649   2.790 -0.0146  1.3534  0.6824
10078SOL    HW235046   6.800  12.531   2.744  0.9234  1.8282 -2.4773
10079SOL     OW35047   2.792   6.206   5.244  0.2299 -0.1093 -0.4448
10079SOL    HW135048   2.855   6.146   5.282  0.0933  0.6855  1.1215
10079SOL    HW235049   2.841   6.286   5.228 -0.5173  0.8361  1.6573
10080SOL     OW35050   1.014   5.961   4.994  0.3445  0.3533 -0.3203
10080SOL    HW135051   1.068   5.886   4.970 -0.5679  0.1806 -1.9930
10080SOL    HW235052   1.065   6.007   5.061  0.9133 -1.7581  0.8115
10081SOL     OW35053   6.756   4.527   3.058  0.3305 -0.0115  0.4067
10081SOL    HW135054   6.740   4.559   3.147 -0.8314 -0.4280  0.3613
10081SOL    HW235055   6.768   4.433   3.068 -0.7757 -0.2028  0.0162
10082SOL     OW35056   3.660  10.297  12.029  0.0560 -0.1911 -0.7477
10082SOL    HW135057   3.583  10.245  12.007 -0.3005 -0.0207  0.0507
10082SOL    HW235058   3.733  10.235  12.029 -0.5142 -0.9425  1.2132
10083SOL     OW35059   8.258  11.527   2.155  0.8796 -0.1120  0.4923
10083SOL    HW135060   8.169  11.504   2.181  1.2231 -0.6461  1.2163
10083SOL    HW235061   8.311  11.507   2.231  1.4829  1.2286  0.4574
10084SOL     OW35062   1.523  10.966   5.250  0.6633 -0.1221 -0.8174
10084SOL    HW135063   1.617  10.983   5.242  0.9821 -0.2545  1.9297
10084SOL    HW235064   1.517  10.881   5.293 -0.6374  0.7513  0.8430
10085SOL     OW35065   2.805   4.757   5.755 -1.0573 -0.0446 -0.0679
10085SOL    HW135066   2.732   4.720   5.805 -1.4538  0.8875  0.0622
10085SOL    HW235067   2.785   4.734   5.664  0.4513 -3.1046  0.2369
10086SOL     OW35068   9.354   2.852   3.746  0.6231  0.4685  0.5559
10086SOL    HW135069   9.441   2.864   3.785  0.3878  0.1426  1.1817
10086SOL    HW235070   9.371   2.806   3.664  1.1319  1.2742  0.1911
10087SOL     OW35071   9.221   1.686  11.451  0.4324 -0.2108  0.2971
10087SOL    HW135072   9.193   1.728  11.369 -1.8798 -1.0264  0.5810
10087SOL    HW235073   9.259   1.603  11.423  0.8067  0.0590 -0.0078
10088SOL     OW35074   1.727   1.399  10.726 -0.4665 -0.1203  0.4000
10088SOL    HW135075   1.775   1.455  10.666  0.1733  1.3508  2.1748
10088SOL    HW235076   1.650   1.370  10.676  1.2203 -0.9514 -1.8633
10089SOL     OW35077  10.081   5.873   5.607 -0.4640  0.8592  0.2883
10089SOL    HW135078  10.120   5.786   5.609  0.7101  1.3580 -0.0777
10089SOL    HW235079  10.023   5.875   5.683  0.6562  0.2787  1.1848
10090SOL     OW35080   9.035  10.448  11.738  0.4433  0.7229  0.1803
10090SOL    HW135081   9.070  10.514  11.677 -0.4215  1.3304  0.3255
10090SOL    HW235082   9.022  10.496  11.820 -0.5902  0.4854  0.1665
10091SOL     OW35083   8.255   8.286   0.012  0.9002  0.8309  0.3600
10091SOL    HW135084   8.279   8.327  -0.072  1.9087 -0.7345 -0.1559
10091SOL    HW235085   8.326   8.311   0.071  2.8055 -1.9044 -0.5616
10092SOL     OW35086   1.587   5.283   8.870  0.2555 -0.1121  0.4605
10092SOL    HW135087   1.559   5.240   8.950 -1.4818  0.1975  0.0657
10092SOL    HW235088   1.623   5.367   8.898  0.3187 -0.3093  0.9649
10093SOL     OW35089  10.027  10.770   3.095  0.1395  0.6631 -0.3354
10093SOL    HW135090   9.942  10.784   3.138 -0.0207 -0.7312 -0.1631
10093SOL    HW235091  10.030  10.676   3.078  1.5276  0.7412 -0.6110
10094SOL     OW35092  11.993   4.405   1.518 -0.3855 -0.0834  0.1498
10094SOL    HW135093  11.920   4.400   1.456 -0.5549  1.8099  0.1330
10094SOL    HW235094  11.998   4.498   1.540  0.6379 -0.5138  1.8344
10095SOL     OW35095   4.395   1.212   6.008  0.2261  0.0592 -0.2338
10095SOL    HW135096   4.390   1.234   5.915 -0.3999 -0.6774 -0.3839
10095SOL    HW235097   4.447   1.283   6.046  0.9165  0.1006 -1.2200
10096SOL     OW35098  12.185   1.413   5.197  0.6769 -0.0910 -0.0718
10096SOL    HW135099  12.141   1.468   5.261  1.5998  1.0928 -0.4047
10096SOL    HW235100  12.124   1.408   5.123  1.2878  2.1031 -0.8167
10097SOL     OW35101   7.104   5.676   4.050 -0.5957  0.3008 -0.3437
10097SOL    HW135102   7.096   5.589   4.009 -0.0313  1.5852 -3.4620
10097SOL    HW235103   7.198   5.688   4.061 -0.6869  0.4279  0.3023
10098SOL     OW35104   4.049  11.890   5.940  0.0730 -0.5176  0.2651
10098SOL    HW135105   4.071  11.858   6.027  0.2993 -0.2776  0.2958
10098SOL    HW235106   4.015  11.978   5.954  2.2688  0.4573 -0.0851
10099SOL     OW35107   2.139  10.575  11.023 -0.1644  0.2969 -0.3246
10099SOL    HW135108   2.051  10.551  11.050 -0.2608  0.1777 -0.7422
10099SOL    HW235109   2.179  10.613  11.102  1.0573 -3.9575  1.3533
10100SOL     OW35110   9.344   8.607   0.672 -0.1346  0.0272  0.5800
10100SOL    HW135111   9.329   8.668   0.744 -1.2392 -0.6073  0.9142
10100SOL    HW235112   9.439   8.593   0.672 -0.0936  0.2013  1.7768
10101SOL     OW35113   2.279   7.352   5.208 -0.9592  0.1296 -0.4608
10101SOL    HW135114   2.317   7.266   5.225 -0.3049  0.6703  0.9424
10101SOL    HW235115   2.226   7.371   5.285 -1.1666  0.9476 -0.7908
10102SOL     OW35116  11.333  10.446   3.691  0.4117 -0.4665  0.6631
10102SOL    HW135117  11.377  10.369   3.725  0.3520 -0.5380  0.5800
10102SOL    HW235118  11.268  10.468   3.758  0.1264 -0.7545  0.4857
10103SOL     OW35119   8.757   4.719  11.996  0.0804  0.5061  0.4666
10103SOL    HW135120   8.752   4.815  11.991 -0.4389  0.4118 -1.4966
10103SOL    HW235121   8.666   4.690  12.000  0.1949  0.0609 -0.0319
10104SOL     OW35122   3.479   6.850   6.734  0.3481 -0.0941  0.0751
10104SOL    HW135123   3.429   6.813   6.807  1.4033 -1.8018 -0.0299
10104SOL    HW235124   3.412   6.875   6.670 -0.4937 -0.1509  0.8964
10105SOL     OW35125  12.146   9.232   4.312  0.1123 -0.7489  0.4733
10105SOL    HW135126  12.111   9.175   4.381  0.5642 -0.1089  1.2424
10105SOL    HW235127  12.152   9.318   4.352  2.1173 -0.7375  0.2303
10106SOL     OW35128   8.465  11.811   1.697  0.4852 -0.1487 -0.2397
10106SOL    HW135129   8.385  11.772   1.663  0.7100 -1.1812  0.3788
10106SOL    HW235130   8.521  11.825   1.621  0.1268 -0.4039 -0.5479
10107SOL     OW35131   4.199  11.551   6.212 -0.7516  0.3668  0.1210
10107SOL    HW135132   4.165  11.540   6.124  3.4853  0.5696 -1.7968
10107SOL    HW235133   4.244  11.469   6.231  1.5528  1.6116  0.4055
10108SOL     OW35134   3.676   4.712  10.198 -1.2927  0.0059  0.1961
10108SOL    HW135135   3.639   4.762  10.126  1.1362  0.0417 -1.1121
10108SOL    HW235136   3.736   4.772  10.241 -0.4940 -0.9042  0.3865
10109SOL     OW35137   3.910   7.029   0.834  0.4016  0.3053  1.1149
10109SOL    HW135138   3.973   6.997   0.769  0.1191  0.4610  0.7571
10109SOL    HW235139   3.898   6.955   0.894  1.8471  0.6760  1.9135
10110SOL     OW35140   0.259   4.928  12.462  0.2830  0.2368  0.0631
10110SOL    HW135141   0.230   5.018  12.449  1.4771  0.8948  1.6217
10110SOL    HW235142   0.354   4.931  12.446  0.1378 -1.0726 -1.3094
10111SOL     OW35143  11.717   3.436  11.768  0.1345 -0.5635 -0.2573
10111SOL    HW135144  11.664   3.443  11.847 -1.8022 -1.7353 -1.3957
10111SOL    HW235145  11.791   3.381  11.793  1.0363  1.2930  1.4213
10112SOL     OW35146  10.487   4.790   7.451  0.0999 -0.1898  0.5086
10112SOL    HW135147  10.487   4.767   7.544 -1.1345  0.2051  0.6228
10112SOL    HW235148  10.396   4.780   7.424  0.7495 -2.1570 -1.1565
10113SOL     OW35149   1.814   6.061  12.315 -0.0271  0.0262 -0.0555
10113SOL    HW135150   1.832   5.971  12.343 -0.6097  0.3393  1.4137
10113SOL    HW235151   1.759   6.097  12.385 -0.0649  1.4261 -0.7824
10114SOL     OW35152   4.732   8.748  10.026 -0.7028  0.1437 -0.1269
10114SOL    HW135153   4.732   8.653  10.032 -3.0749  0.1273  0.4120
10114SOL    HW235154   4.765   8.777  10.112  2.9384 -0.0878 -1.2768
10115SOL     OW35155  10.692   7.781   8.473  0.3652 -0.6184 -0.3680
10115SOL    HW135156  10.709   7.848   8.538  0.7414 -1.4648  0.4250
10115SOL    HW235157  10.756   7.798   8.403  0.5739 -0.2642 -0.0916
10116SOL     OW35158  11.998   8.135   3.653 -0.2770  0.1607 -0.2989
10116SOL    HW135159  12.006   8.122   3.559  0.3499 -0.3285 -0.1797
10116SOL    HW235160  11.963   8.053   3.686 -0.4322  0.3072 -0.0946
10117SOL     OW35161   3.709   5.795   2.921 -0.4801 -0.2968 -0.1469
10117SOL    HW135162   3.615   5.813   2.926 -0.1381  1.4944  0.5067
10117SOL    HW235163   3.735   5.782   3.012  0.1047  0.3551 -0.2207
10118SOL     OW35164  10.874  11.324  12.223  0.0313  0.5247  0.5603
10118SOL    HW135165  10.965  11.303  12.203 -0.8563 -0.5110 -2.9635
10118SOL    HW235166  10.868  11.419  12.213  0.9232  0.7607  2.0222
10119SOL     OW35167   0.896   8.316   8.165  0.3768  0.5258  0.4468
10119SOL    HW135168   0.946   8.304   8.084  0.8638  1.6152  0.5648
10119SOL    HW235169   0.950   8.276   8.233  1.0800  1.6019  0.5579
10120SOL     OW35170   7.075   1.381   2.163 -0.1126 -0.2167 -0.0342
10120SOL    HW135171   7.116   1.415   2.242  2.5052  0.5585 -1.6353
10120SOL    HW235172   7.033   1.457   2.122  1.5692  0.1698 -1.1285
10121SOL     OW35173   3.291   3.350   3.590 -0.4756  0.0628 -0.3740
10121SOL    HW135174   3.212   3.309   3.626 -0.2842 -2.0104 -2.0842
10121SOL    HW235175   3.363   3.293   3.619  0.1734  0.9013 -0.3142
10122SOL     OW35176   4.175   2.990   3.201  0.1377 -0.8148 -0.0953
10122SOL    HW135177   4.256   2.943   3.184 -0.9771 -2.0247 -2.8440
10122SOL    HW235178   4.172   3.001   3.296  4.2230  0.7671  0.0420
10123SOL     OW35179   1.933   8.493   7.046  0.1594  0.2054  0.6252
10123SOL    HW135180   1.924   8.529   7.135 -1.1803 -1.8032  1.3968
10123SOL    HW235181   1.872   8.419   7.045 -0.5400  0.7137 -2.3052
10124SOL     OW35182   0.814   4.970  11.777 -0.0172 -0.2327 -0.0830
10124SOL    HW135183   0.893   4.972  11.723 -0.4775  1.3976 -0.7498
10124SOL    HW235184   0.838   5.019  11.856 -0.1674 -0.2736 -0.0117
10125SOL     OW35185  10.376  10.139   1.390 -0.2348  0.2920 -0.2899
10125SOL    HW135186  10.406  10.116   1.302 -0.2567  1.2632 -0.5604
10125SOL    HW235187  10.426  10.217   1.413 -0.4115  0.1928  0.4672
10126SOL     OW35188   4.560   9.935   9.550 -0.4135  0.2726  0.1474
10126SOL    HW135189   4.554   9.951   9.456 -2.0247  0.2504  0.2224
10126SOL    HW235190   4.501  10.000   9.589  1.1423  1.0975  1.2586
10127SOL     OW35191   4.232   0.775   9.297  0.0220 -0.1236  0.2656
10127SOL    HW135192   4.157   0.753   9.241  0.4409  2.4041 -1.4580
10127SOL    HW235193   4.282   0.693   9.304 -1.3564 -1.1284 -0.9824
10128SOL     OW35194  12.555   8.454  11.925  0.3450 -0.0339 -0.4035
10128SOL    HW135195  12.598   8.386  11.976  1.4619 -1.0945 -2.6343
10128SOL    HW235196  12.481   8.410  11.883 -1.7197  1.2582  1.6304
10129SOL     OW35197   4.409  11.517   4.443  0.5586  0.1378 -0.4977
10129SOL    HW135198   4.493  11.540   4.481  0.2069 -1.3936  1.3689
10129SOL    HW235199   4.409  11.421   4.439 -2.4276 -0.2574  3.1729
10130SOL     OW35200  11.930   1.057   3.898  0.4568 -0.2238 -0.4143
10130SOL    HW135201  11.911   1.067   3.991  2.2122 -0.9009  0.0520
10130SOL    HW235202  12.026   1.062   3.892  0.3335  1.0971 -2.3588
10131SOL     OW35203   9.618   0.395  12.445  0.5917  0.1186  0.3655
10131SOL    HW135204   9.642   0.360  12.360  2.7674  0.5686  0.7495
10131SOL    HW235205   9.522   0.401  12.442  0.6030  0.0037 -1.9698
10132SOL     OW35206   1.075   0.426   9.906  0.2894 -0.5031 -0.0253
10132SOL    HW135207   0.980   0.417   9.907  0.3350 -0.9959  0.4557
10132SOL    HW235208   1.102   0.406   9.996  0.8408 -0.2890 -0.1384
10133SOL     OW35209   1.897   3.908   3.724  0.6224 -0.3968 -0.1855
10133SOL    HW135210   1.896   4.003   3.720 -0.3779 -0.4369 -1.4040
10133SOL    HW235211   1.860   3.887   3.810 -2.0132  0.3034 -1.0786
10134SOL     OW35212  11.076   2.979   5.663 -0.0579 -0.1933 -0.4959
10134SOL    HW135213  11.079   2.884   5.672 -0.6255 -0.2728 -1.0891
10134SOL    HW235214  11.033   2.994   5.579  0.8235  0.5788 -0.8216
10135SOL     OW35215   4.052   3.990  12.302  0.6538 -0.1317  0.0640
10135SOL    HW135216   3.995   3.943  12.364 -0.4777  1.3533  0.2012
10135SOL    HW235217   4.027   4.082  12.312  0.3483  0.1587 -2.6780
10136SOL     OW35218   0.749   8.281   7.214  0.1525  0.3124  0.2128
10136SOL    HW135219   0.769   8.232   7.134  1.3028  0.0719  0.6213
10136SOL    HW235220   0.758   8.217   7.284  1.3768  1.0102  0.7243
10137SOL     OW35221   5.937   0.074   5.767 -0.5807 -0.1256  0.4353
10137SOL    HW135222   5.890   0.155   5.785 -1.4040 -0.7832  1.3417
10137SOL    HW235223   6.002   0.067   5.837 -0.3788 -0.1558  0.2467
10138SOL     OW35224   3.513   0.096   6.021 -0.4732 -0.2119  0.6313
10138SOL    HW135225   3.534   0.025   5.959  0.1779 -0.2490  0.8864
10138SOL    HW235226   3.442   0.060   6.075 -1.2572 -0.0695 -0.2750
10139SOL     OW35227   1.126   4.758   2.021  0.0382  0.3221  0.0315
10139SOL    HW135228   1.188   4.726   1.955  0.0200  0.2095  0.0689
10139SOL    HW235229   1.048   4.703   2.009 -0.4584  1.1779 -0.7428
10140SOL     OW35230  10.192   5.086  11.753 -0.4788 -0.6113  0.3547
10140SOL    HW135231  10.185   5.130  11.668  0.5878  1.6761  1.3555
10140SOL    HW235232  10.108   5.101  11.795 -0.4318 -0.3377  0.3481
10141SOL     OW35233   5.917   5.918   4.359  0.1368  0.0996 -0.4084
10141SOL    HW135234   5.969   5.859   4.413 -0.2847 -0.8918 -1.0469
10141SOL    HW235235   5.966   5.999   4.357  0.9099 -0.3437  0.2101
10142SOL     OW35236   1.819   4.988   6.891  0.8053 -0.5641  0.1039
10142SOL    HW135237   1.790   5.001   6.982 -1.0358  0.0899 -0.5351
10142SOL    HW235238   1.843   4.896   6.886 -2.0829 -1.4341  0.5147
10143SOL     OW35239   7.413   5.928   4.588 -0.1324  0.4320 -0.2044
10143SOL    HW135240   7.433   5.976   4.507  0.7093  1.5914  0.6652
10143SOL    HW235241   7.335   5.877   4.566  0.3319  0.3701 -1.8849
10144SOL     OW35242   4.940   1.693   9.708 -0.2521 -0.3891 -0.1232
10144SOL    HW135243   4.959   1.707   9.615 -1.3653 -2.1109 -0.6536
10144SOL    HW235244   5.009   1.634   9.738  0.9360  1.2684  0.5580
10145SOL     OW35245   4.459   5.771   0.499  0.4086 -0.4681 -0.1879
10145SOL    HW135246   4.414   5.846   0.538 -1.0194 -0.4958 -1.6497
10145SOL    HW235247   4.449   5.784   0.404  1.8711 -1.4874 -0.5129
10146SOL     OW35248  10.371   1.088   7.715 -0.1265  0.6032  0.1018
10146SOL    HW135249  10.366   1.122   7.626  0.3967  0.2115 -0.0897
10146SOL    HW235250  10.445   1.135   7.755  1.8982 -1.5942 -0.7929
10147SOL     OW35251   2.764  11.283   9.516  0.5797 -0.5185  0.4069
10147SOL    HW135252   2.820  11.333   9.575  1.7035  0.6187 -1.5178
10147SOL    HW235253   2.678  11.283   9.558  1.3773  0.0739  2.1061
10148SOL     OW35254   9.987   1.820  12.645 -0.3621 -0.2646 -0.2977
10148SOL    HW135255   9.969   1.758  12.574 -2.1666 -0.3397  0.1742
10148SOL    HW235256   9.922   1.798  12.713  0.2111  0.9019  0.6702
10149SOL     OW35257  10.747   4.151   0.001  0.0587  0.5791 -0.2825
10149SOL    HW135258  10.721   4.215   0.068  1.2414 -0.5558  1.3336
10149SOL    HW235259  10.690   4.076   0.018  0.8513  0.0192 -0.0782
10150SOL     OW35260   5.221   2.242   8.699  0.1273  0.4289 -0.0909
10150SOL    HW135261   5.290   2.205   8.753 -1.0838 -2.1966 -0.2165
10150SOL    HW235262   5.176   2.304   8.757  0.6480 -0.1519  0.9573
10151SOL     OW35263  12.099   8.515   8.219  0.8013 -0.0103 -0.1240
10151SOL    HW135264  12.063   8.456   8.154 -1.4139 -0.4075  1.3597
10151SOL    HW235265  12.160   8.461   8.269  0.2321 -0.5271  0.0225
10152SOL     OW35266   9.998   3.550   1.951  0.3622  0.0447  0.5903
10152SOL    HW135267   9.911   3.563   1.912  0.3278 -0.5385  0.4696
10152SOL    HW235268  10.043   3.491   1.890  0.1900 -1.1676  1.6119
10153SOL     OW35269  10.712   4.817   7.320  0.9275  0.0766  0.8403
10153SOL    HW135270  10.654   4.780   7.385  1.0453 -0.4335  0.6646
10153SOL    HW235271  10.654   4.847   7.250  0.9113 -1.6688  0.0340
10154SOL     OW35272   9.271   9.494   9.790  0.2722 -0.0734  0.0868
10154SOL    HW135273   9.225   9.482   9.707  0.1454  0.7928  0.0230
10154SOL    HW235274   9.304   9.407   9.812 -0.2946 -0.4498 -0.5170
10155SOL     OW35275   6.564   0.098   5.551  0.2283  0.1056 -0.2300
10155SOL    HW135276   6.502   0.077   5.482  2.1110  0.7879 -2.2762
10155SOL    HW235277   6.532   0.181   5.587 -0.7339 -0.2027 -0.3529
10156SOL     OW35278   5.740   8.187   3.887 -0.7006 -0.3171  0.3735
10156SOL    HW135279   5.740   8.164   3.794  0.4208 -1.6146  0.6596
10156SOL    HW235280   5.715   8.280   3.888 -1.5358 -0.4844 -1.1469
10157SOL     OW35281   3.474   5.395   1.516  0.2629  0.3307  0.5717
10157SOL    HW135282   3.498   5.407   1.608  1.6986  1.1132  0.1352
10157SOL    HW235283   3.503   5.306   1.495  0.0745  0.2076  0.8294
10158SOL     OW35284  11.402   2.350   9.222 -0.4840 -0.2508 -0.4553
10158SOL    HW135285  11.452   2.268   9.223 -2.4510 -1.5869  2.2288
10158SOL    HW235286  11.390   2.372   9.314 -2.0046  1.8330 -1.0709
10159SOL     OW35287   6.174  12.397  11.232 -0.0770 -0.1767 -0.2269
10159SOL    HW135288   6.116  12.414  11.306  0.9798  1.1586  0.3326
10159SOL    HW235289   6.196  12.304  11.240 -0.1899 -0.1172  0.9817
10160SOL     OW35290   4.220   4.293  10.499  0.0271 -0.1597 -0.3508
10160SOL    HW135291   4.177   4.379  10.493  1.3178  0.4591 -1.0743
10160SOL    HW235292   4.261   4.293  10.585 -0.4877 -0.3196 -0.0979
10161SOL     OW35293   0.407  12.125   7.165 -0.2107 -0.1841  0.0187
10161SOL    HW135294   0.442  12.041   7.195  1.1812  0.4814  0.3416
10161SOL    HW235295   0.315  12.107   7.146  0.1320 -1.8605 -0.2310
10162SOL     OW35296   8.304   8.381   6.216 -0.4492 -0.1596 -0.0020
10162SOL    HW135297   8.388   8.367   6.171 -0.5244  1.1111 -0.5693
10162SOL    HW235298   8.242   8.399   6.146 -1.2973 -1.4157  0.3873
10163SOL     OW35299  10.494   2.020  11.226 -0.1133  0.2516  0.6626
10163SOL    HW135300  10.478   2.088  11.162  0.4161  0.2290  0.5022
10163SOL    HW235301  10.506   2.066  11.309  3.3860  0.6710  0.0576
10164SOL     OW35302  12.074   3.687   5.855  0.3052 -0.6422  0.0904
10164SOL    HW135303  12.086   3.688   5.760 -1.2698 -0.1909 -0.1294
10164SOL    HW235304  12.121   3.765   5.885 -0.4336  0.0609 -0.5120
10165SOL     OW35305   5.806   3.903   9.725 -0.2318 -0.2094 -0.4651
10165SOL    HW135306   5.724   3.863   9.753 -0.4850 -0.5456 -1.6376
10165SOL    HW235307   5.837   3.847   9.654  1.5326 -0.6608  0.6110
10166SOL     OW35308   3.177   4.016   9.606 -0.4628  0.0197 -0.1270
10166SOL    HW135309   3.084   4.016   9.584 -0.1631 -1.1347 -1.5847
10166SOL    HW235310   3.220   4.045   9.526  0.4756 -0.3108  0.2532
10167SOL     OW35311   9.459   6.399   0.072 -0.5236  0.0775 -0.6959
10167SOL    HW135312   9.483   6.399  -0.020 -1.1172  1.5567 -0.8794
10167SOL    HW235313   9.383   6.341   0.077 -0.3800 -0.1481 -1.0951
10168SOL     OW35314  11.934  10.622   5.421 -0.5983  0.5389 -0.0588
10168SOL    HW135315  11.966  10.707   5.453 -0.7625  0.1678  1.1162
10168SOL    HW235316  11.851  10.643   5.378 -1.1087  0.8582  1.0533
10169SOL     OW35317   8.546  12.145   0.358 -0.1531 -0.2481  0.2223
10169SOL    HW135318   8.518  12.223   0.310 -0.5611  1.2026  2.6552
10169SOL    HW235319   8.491  12.144   0.437  2.1103 -1.0980  1.9055
10170SOL     OW35320   3.811   7.525   5.439 -0.6527 -0.0894  0.5747
10170SOL    HW135321   3.801   7.560   5.527  0.0206 -2.3741  1.6382
10170SOL    HW235322   3.873   7.453   5.449  0.0756  0.1073 -1.9282
10171SOL     OW35323   4.446   4.872   8.000  0.5534  0.5439 -1.0907
10171SOL    HW135324   4.443   4.895   7.908 -1.9723  1.3694 -0.8693
10171SOL    HW235325   4.503   4.794   8.004 -0.0437 -0.0682 -3.4472
10172SOL     OW35326  11.621   9.881   9.838 -0.4699 -0.3040  0.3500
10172SOL    HW135327  11.711   9.866   9.866 -0.5764 -0.3823  0.6592
10172SOL    HW235328  11.571   9.812   9.880 -0.7568  0.0669  0.6274
10173SOL     OW35329   6.913   3.660   4.736  0.0838 -0.1957 -0.2760
10173SOL    HW135330   6.919   3.672   4.641  1.9109 -1.2750 -0.3298
10173SOL    HW235331   6.909   3.749   4.770 -1.8511  0.2147 -1.3791
10174SOL     OW35332   6.995   5.955   7.314 -0.2176  0.1773 -0.9867
10174SOL    HW135333   6.987   5.870   7.359  0.9633  0.3463 -0.4246
10174SOL    HW235334   7.061   6.003   7.365 -1.4392  1.7575 -0.8086
10175SOL     OW35335  12.324   2.112   5.345  0.1324 -0.3000 -0.3168
10175SOL    HW135336  12.293   2.198   5.316 -0.4701  0.5925  2.6369
10175SOL    HW235337  12.419   2.116   5.335  0.1619  0.9447  0.2489
10176SOL     OW35338   6.493   1.907   9.039 -0.1515 -0.2202  0.5515
10176SOL    HW135339   6.574   1.909   9.091 -0.0695 -0.7890  0.4471
10176SOL    HW235340   6.502   1.830   8.983  0.8852  1.7391 -2.1650
10177SOL     OW35341   0.445   0.809  10.342  0.1311 -0.6608  0.2124
10177SOL    HW135342   0.507   0.878  10.318  0.1308 -1.1413 -1.2977
10177SOL    HW235343   0.366   0.856  10.369  0.0443 -0.0307 -1.0391
10178SOL     OW35344   1.153   1.249   2.026  0.2965  0.1190 -0.3163
10178SOL    HW135345   1.231   1.305   2.036  1.8567 -2.0076  0.2061
10178SOL    HW235346   1.188   1.166   1.994 -1.8133 -0.8604 -0.1946
10179SOL     OW35347   6.033   7.821   0.570 -0.0531  0.3025  0.0114
10179SOL    HW135348   6.083   7.902   0.581 -2.2280  1.8478 -0.5772
10179SOL    HW235349   6.039   7.802   0.476  0.0751  0.0415  0.0719
10180SOL     OW35350   4.882   8.500   8.391  0.3075 -0.6789 -0.1503
10180SOL    HW135351   4.907   8.408   8.395 -1.5582 -1.1821  1.5247
10180SOL    HW235352   4.926   8.540   8.466 -0.8706 -0.7829  0.6198
10181SOL     OW35353   5.943   7.194   0.964  0.1746  0.3784 -0.2754
10181SOL    HW135354   5.904   7.256   0.902 -1.2075 -1.3907 -1.2490
10181SOL    HW235355   5.892   7.206   1.044 -1.4189 -0.8057 -1.0622
10182SOL     OW35356   0.465   7.436   3.849 -0.6073 -0.7493 -0.0218
10182SOL    HW135357   0.417   7.481   3.780 -1.1415 -1.0382  0.1503
10182SOL    HW235358   0.555   7.468   3.842 -0.9116  0.1195 -0.0911
10183SOL     OW35359   1.598   9.859   9.028 -0.4025 -0.4702 -0.3628
10183SOL    HW135360   1.655   9.935   9.025  1.3322 -1.7388 -1.0596
10183SOL    HW235361   1.523   9.882   8.973 -0.5169  1.1556  0.4250
10184SOL     OW35362  10.595   9.059   7.961  0.3591  0.4236 -0.4636
10184SOL    HW135363  10.525   9.010   8.003 -0.9484 -0.2525 -3.2161
10184SOL    HW235364  10.664   8.994   7.947  0.2015  0.2946 -0.6487
10185SOL     OW35365  11.641  10.947   1.929  0.2285 -0.7496 -0.4936
10185SOL    HW135366  11.714  10.967   1.987  0.7845 -0.6278 -1.2173
10185SOL    HW235367  11.624  11.029   1.882 -0.6655 -0.6510 -0.0384
10186SOL     OW35368   2.277   4.393   9.538 -0.2952 -0.2537  0.1530
10186SOL    HW135369   2.360   4.345   9.541  0.0311  0.2307 -0.8195
10186SOL    HW235370   2.282   4.454   9.611 -0.0301 -0.6047  0.4311
10187SOL     OW35371   7.615   5.810   4.374  0.2393  0.1902  0.0136
10187SOL    HW135372   7.565   5.887   4.399 -0.1043  0.7674 -2.2316
10187SOL    HW235373   7.551   5.739   4.373  0.0708  0.3406 -0.0520
10188SOL     OW35374  12.642   4.809  10.138 -0.5098  0.0564  0.0878
10188SOL    HW135375  12.734   4.827  10.155 -0.4925 -0.3959  0.5049
10188SOL    HW235376  12.636   4.802  10.043 -0.0398 -0.3055  0.0826
10189SOL     OW35377   5.822   6.826   9.112 -0.0127  0.8604 -0.9219
10189SOL    HW135378   5.832   6.920   9.103 -1.2282  0.8840 -2.3936
10189SOL    HW235379   5.728   6.810   9.100  0.2191 -0.5564 -1.0555
10190SOL     OW35380  10.566   0.131   5.125  0.4524  0.4287  0.3506
10190SOL    HW135381  10.546   0.125   5.032  0.3054  0.1525  0.3959
10190SOL    HW235382  10.541   0.220   5.150 -1.0071  0.0139  0.4609
10191SOL     OW35383   4.890   1.803  11.435  0.1341  0.3300 -0.0596
10191SOL    HW135384   4.935   1.835  11.356  0.4806 -0.0369 -0.0175
10191SOL    HW235385   4.918   1.712  11.442 -2.2858 -0.5639 -1.2150
10192SOL     OW35386  10.859  10.713   2.528  0.4349  0.7034  0.0893
10192SOL    HW135387  10.940  10.726   2.478  0.4545 -0.3721 -0.1807
10192SOL    HW235388  10.792  10.699   2.462  0.5071 -1.0075  0.3449
10193SOL     OW35389  10.543   4.074   7.012  0.8000  0.0954 -0.2683
10193SOL    HW135390  10.451   4.055   7.033  0.4693 -0.4783 -2.1082
10193SOL    HW235391  10.575   4.123   7.089  0.0502 -2.8553  2.1117
10194SOL     OW35392   9.786  12.362   5.774 -0.4396 -0.3864 -0.7565
10194SOL    HW135393   9.779  12.447   5.819 -0.3052 -0.2597 -0.9690
10194SOL    HW235394   9.696  12.336   5.757 -0.4627  0.1268 -1.4478
10195SOL     OW35395   3.148   6.666  10.147 -0.1085  0.5069 -0.4565
10195SOL    HW135396   3.164   6.580  10.185 -0.4884  1.1006  1.1680
10195SOL    HW235397   3.227   6.684  10.095 -0.1342 -0.8965 -1.0241
10196SOL     OW35398   3.136   7.164   7.535  0.5145 -0.3023  0.0228
10196SOL    HW135399   3.067   7.227   7.557  0.2215 -0.4836 -0.3639
10196SOL    HW235400   3.157   7.122   7.618 -0.8747 -1.2779 -0.0809
10197SOL     OW35401   8.042   9.003   0.293  0.1517 -0.1812  0.5469
10197SOL    HW135402   8.085   8.924   0.260 -0.7710 -0.0026 -1.2296
10197SOL    HW235403   8.012   8.981   0.381  1.2322 -1.2810  0.6567
10198SOL     OW35404   0.152   3.844   6.944  0.3713 -1.0555 -0.3726
10198SOL    HW135405   0.067   3.834   6.902 -0.3794 -1.4874  1.1602
10198SOL    HW235406   0.213   3.858   6.872 -1.0777 -0.0883 -1.4798
10199SOL     OW35407   4.576   1.641  11.645 -0.1448 -0.5336 -0.4813
10199SOL    HW135408   4.632   1.659  11.721 -0.2008 -1.1793 -0.2827
10199SOL    HW235409   4.568   1.546  11.644 -1.8481 -0.4209 -0.0764
10200SOL     OW35410  10.967   9.393   1.762  0.1790  1.2572 -0.0397
10200SOL    HW135411  11.009   9.423   1.842 -0.2279  3.2079 -0.5128
10200SOL    HW235412  10.954   9.472   1.710  1.8242 -0.0942 -2.7391
10201SOL     OW35413  12.299   1.051   8.970 -0.6127 -0.5221  0.0238
10201SOL    HW135414  12.216   1.039   8.923 -1.6535  0.8302  1.3702
10201SOL    HW235415  12.331   0.962   8.986 -0.6669 -1.0347 -2.3739
10202SOL     OW35416   5.385   6.529  10.525  0.3642  0.0388 -0.5549
10202SOL    HW135417   5.385   6.598  10.592  0.6352  0.0471 -0.5610
10202SOL    HW235418   5.450   6.559  10.461 -0.2542  0.2766 -1.0763
10203SOL     OW35419   0.604   1.587   3.297 -0.1713 -0.1096  0.4781
10203SOL    HW135420   0.512   1.587   3.326 -0.1789  0.9246  0.4884
10203SOL    HW235421   0.634   1.676   3.313  0.0940  0.2797 -1.8303
10204SOL     OW35422  12.387   6.594   4.219  0.6873  0.5620  0.3241
10204SOL    HW135423  12.299   6.557   4.214  0.1633  1.7796  0.1737
10204SOL    HW235424  12.379   6.669   4.278  2.0720 -0.4681  1.9104
10205SOL     OW35425   0.529   8.046   0.100 -0.2389  0.3809 -0.5074
10205SOL    HW135426   0.467   8.059   0.171  0.6653  0.0305  0.3794
10205SOL    HW235427   0.481   8.069   0.020 -0.6992  2.7285  0.3784
10206SOL     OW35428   3.204   7.314   4.390 -0.5856 -0.6084 -0.3940
10206SOL    HW135429   3.187   7.384   4.327  0.2712 -0.4530 -0.4621
10206SOL    HW235430   3.139   7.328   4.460  1.0005  1.6695  0.7503
10207SOL     OW35431  11.104   1.225   2.744 -0.7046 -0.1249  0.1061
10207SOL    HW135432  11.085   1.274   2.663 -1.1754 -0.3311  0.0869
10207SOL    HW235433  11.199   1.213   2.743 -0.5812  0.7670  0.0989
10208SOL     OW35434  11.315   3.712   2.984  0.3398  0.4173 -0.0343
10208SOL    HW135435  11.291   3.690   3.074  0.7643  0.0859 -0.0018
10208SOL    HW235436  11.278   3.799   2.970  0.6727  0.6675  0.6178
10209SOL     OW35437   1.126   4.865   3.663  0.1495  0.1011  0.3117
10209SOL    HW135438   1.091   4.949   3.691 -1.1199  0.0984 -1.1503
10209SOL    HW235439   1.160   4.881   3.575 -1.0732 -1.1231 -0.4199
10210SOL     OW35440  12.009   4.701  11.682 -0.7861  0.1435  0.1398
10210SOL    HW135441  11.970   4.743  11.605 -0.3486 -0.5819 -0.4826
10210SOL    HW235442  12.102   4.722  11.676 -0.2782 -2.1210 -1.0152
10211SOL     OW35443  12.427  11.280   7.332 -0.1497 -0.2506 -0.4177
10211SOL    HW135444  12.417  11.371   7.304  0.1945 -0.4576 -1.2436
10211SOL    HW235445  12.476  11.286   7.414  0.7177  0.2772 -0.9427
10212SOL     OW35446   1.391   9.650   6.520  0.0254 -0.3271 -0.2853
10212SOL    HW135447   1.302   9.660   6.486 -0.5027 -0.1148  1.1143
10212SOL    HW235448   1.439   9.725   6.485 -0.9645  0.8780  0.8569
10213SOL     OW35449   9.060   4.683   8.670 -0.1003 -0.5173 -0.2738
10213SOL    HW135450   9.062   4.649   8.581 -0.0136  0.8616 -0.8280
10213SOL    HW235451   9.000   4.625   8.717  0.6757 -1.9083 -0.9322
10214SOL     OW35452   0.991   1.230   3.694  0.2847 -0.3873 -0.1911
10214SOL    HW135453   1.049   1.271   3.630  1.4637 -0.0317  1.0421
10214SOL    HW235454   0.906   1.272   3.681  0.2685 -0.9058 -2.0267
10215SOL     OW35455   4.342   8.735  10.925  0.2230  0.4311 -0.2618
10215SOL    HW135456   4.401   8.802  10.891  0.3188  0.1793 -0.5950
10215SOL    HW235457   4.350   8.743  11.020  1.2155  0.0343 -0.2987
10216SOL     OW35458   1.157  12.454   2.936  0.6609 -0.0312 -0.8831
10216SOL    HW135459   1.161  12.512   3.012  2.3616 -0.2887 -0.7494
10216SOL    HW235460   1.163  12.366   2.973  0.4917 -0.2012 -1.2555
10217SOL     OW35461   2.169   2.767   4.245  0.5842  0.6817 -0.6922
10217SOL    HW135462   2.204   2.678   4.247  2.4856  1.3893 -0.6588
10217SOL    HW235463   2.129   2.775   4.159 -1.2002 -0.7490 -0.0473
10218SOL     OW35464  11.710   7.727   9.600 -0.2600  0.2952 -0.0100
10218SOL    HW135465  11.721   7.754   9.509  1.8290 -1.1285 -0.2546
10218SOL    HW235466  11.691   7.633   9.594  1.3576 -0.1257  1.0320
10219SOL     OW35467  10.952   4.670  10.660 -0.1940 -0.5575 -0.1766
10219SOL    HW135468  10.967   4.730  10.733 -0.6647  1.6180 -1.7762
10219SOL    HW235469  11.038   4.660  10.620 -0.4633  0.8997 -1.2087
10220SOL     OW35470  10.338   8.863  10.398  0.2744 -0.0417  0.2731
10220SOL    HW135471  10.301   8.805  10.332 -0.8164 -0.1120  0.9370
10220SOL    HW235472  10.297   8.948  10.381  0.3483  0.0525  0.5636
10221SOL     OW35473   3.547   3.383   5.102 -0.2610 -0.0733 -0.0541
10221SOL    HW135474   3.462   3.412   5.068 -0.5567  0.6587  1.2487
10221SOL    HW235475   3.564   3.301   5.055 -1.9085 -0.4668 -0.0220
10222SOL     OW35476   8.608   6.269  10.764 -0.2090 -0.4016  0.9461
10222SOL    HW135477   8.659   6.192  10.740 -0.4421  0.0380 -1.0946
10222SOL    HW235478   8.554   6.287  10.688 -0.4362  1.5648  1.5177
10223SOL     OW35479  11.026  11.580   1.817 -0.2969  0.7612  0.2857
10223SOL    HW135480  10.983  11.503   1.781 -0.4153  0.1897  1.5862
10223SOL    HW235481  11.092  11.546   1.877 -1.3273  1.6365  2.0013
10224SOL     OW35482   4.568   1.509   4.381 -0.2258 -0.9936 -0.5700
10224SOL    HW135483   4.559   1.541   4.291 -1.7132 -0.6611 -0.3249
10224SOL    HW235484   4.627   1.434   4.373 -0.0648 -0.7705 -1.7648
10225SOL     OW35485   8.054   9.932   3.154  0.0616 -0.5362 -0.3248
10225SOL    HW135486   8.108   9.991   3.102  0.6895  0.3828  1.2797
10225SOL    HW235487   8.108   9.853   3.164  0.1336 -0.5313 -0.6452
10226SOL     OW35488   7.535   0.342   7.238 -0.2667  0.0822  0.1027
10226SOL    HW135489   7.560   0.422   7.283 -0.6235  1.0811 -1.4232
10226SOL    HW235490   7.490   0.290   7.305  2.1290  0.0290  1.7806
10227SOL     OW35491   9.655   4.776   4.636  0.2163 -0.4703 -0.0870
10227SOL    HW135492   9.741   4.787   4.677  0.0229 -0.2433  0.2591
10227SOL    HW235493   9.652   4.845   4.569 -0.8161  1.4507  1.7884
10228SOL     OW35494   0.868  10.082   2.725 -0.2456 -0.1112 -0.0641
10228SOL    HW135495   0.904  10.168   2.743 -0.8189  0.3415 -0.9867
10228SOL    HW235496   0.915  10.023   2.783  0.6785  0.7161  0.0449
10229SOL     OW35497   3.830  11.940  11.769  0.0263  0.0955  0.1501
10229SOL    HW135498   3.803  11.857  11.807 -0.1665  0.3963  0.6922
10229SOL    HW235499   3.913  11.922  11.725 -0.6011 -0.6456 -0.7569
10230SOL     OW35500  10.075  10.483   7.669  0.1805  0.2653  0.2387
10230SOL    HW135501  10.155  10.444   7.633  0.1349 -1.2615  1.6518
10230SOL    HW235502  10.024  10.408   7.698 -1.8347  1.2058 -0.6947
10231SOL     OW35503  12.585   2.990   6.513  0.5053 -0.1062 -0.0579
10231SOL    HW135504  12.642   2.975   6.437  0.2278  2.3022 -0.8425
10231SOL    HW235505  12.497   2.993   6.477  0.2286 -0.3209  0.5930
10232SOL     OW35506  10.341   9.891   2.929 -0.1801  0.5011  0.0664
10232SOL    HW135507  10.348   9.985   2.944  4.0595  0.4434 -0.2710
10232SOL    HW235508  10.342   9.881   2.833 -1.2103  0.0841  0.0819
10233SOL     OW35509   7.143   0.290   1.343  0.7913 -0.1246 -0.3405
10233SOL    HW135510   7.183   0.348   1.277  1.3034  2.8628  2.3169
10233SOL    HW235511   7.217   0.248   1.386  0.4991 -1.3828 -1.0089
10234SOL     OW35512   3.272   1.846   9.108 -0.5473  0.2692 -0.5056
10234SOL    HW135513   3.315   1.817   9.188  0.8652  0.8921 -1.0233
10234SOL    HW235514   3.272   1.942   9.114 -3.5368  0.3363  0.3316
10235SOL     OW35515   5.169   3.688   4.936 -0.2152 -0.5360  0.9902
10235SOL    HW135516   5.224   3.616   4.907 -0.1868 -0.2737  0.3729
10235SOL    HW235517   5.149   3.737   4.856  1.1065  1.0791  1.5922
10236SOL     OW35518   4.720   6.680   5.385 -0.5650  0.4636  0.0891
10236SOL    HW135519   4.653   6.612   5.396  0.5286 -0.5689  0.6680
10236SOL    HW235520   4.758   6.690   5.472  1.8908 -1.0154 -0.6957
10237SOL     OW35521   1.636  12.184   6.308 -0.2478 -0.3101 -0.2326
10237SOL    HW135522   1.613  12.184   6.215  0.2425 -1.4025 -0.3680
10237SOL    HW235523   1.634  12.092   6.333  1.1697 -0.1828  0.4476
10238SOL     OW35524   9.201   2.355  11.992 -0.0995 -0.4131  0.0921
10238SOL    HW135525   9.164   2.292  12.054  0.4325 -0.0913  0.7483
10238SOL    HW235526   9.125   2.400  11.956 -0.3563  0.3847  1.5831
10239SOL     OW35527   0.144   6.227   1.456  0.1961  0.0162  0.4768
10239SOL    HW135528   0.113   6.308   1.417 -0.3694 -0.0998  0.6769
10239SOL    HW235529   0.239   6.232   1.449  0.1409  0.4246 -0.0494
10240SOL     OW35530   2.104   9.897   5.094  0.1414  0.0434 -0.0238
10240SOL    HW135531   2.156   9.823   5.063 -2.7345 -1.7893 -0.9446
10240SOL    HW235532   2.083   9.875   5.185 -1.1532 -0.6081 -0.4562
10241SOL     OW35533  11.684   8.935   6.423 -0.1963  0.3654 -0.2544
10241SOL    HW135534  11.692   9.013   6.368 -2.4113  0.8478 -0.0015
10241SOL    HW235535  11.624   8.961   6.493 -0.8136 -1.4801 -0.0333
10242SOL     OW35536   8.499  12.490  10.621  0.1124  0.2001 -0.0111
10242SOL    HW135537   8.475  12.417  10.563  1.3365  0.1337 -0.4578
10242SOL    HW235538   8.588  12.512  10.596  0.1868  1.0655  0.9546
10243SOL     OW35539   6.678   1.178   5.998 -0.0240 -0.1521  0.7940
10243SOL    HW135540   6.595   1.137   5.972  0.9568 -2.4350  1.0328
10243SOL    HW235541   6.712   1.218   5.918 -1.5547  1.2883  0.8056
10244SOL     OW35542  11.452   5.267  10.243  0.0106  0.1684  0.1106
10244SOL    HW135543  11.371   5.220  10.263 -0.3617  0.8128  0.1311
10244SOL    HW235544  11.434   5.358  10.265  0.0339  0.7029 -1.8898
10245SOL     OW35545  11.944   9.132   7.979  0.4697 -0.1638  0.1810
10245SOL    HW135546  11.902   9.046   7.972 -0.9826  0.4421  0.9869
10245SOL    HW235547  11.986   9.145   7.894 -1.1447 -0.7396 -0.7539
10246SOL     OW35548   4.061   5.618  11.404  0.6888  0.4410 -0.4079
10246SOL    HW135549   4.136   5.563  11.427  1.5339  1.8855  0.5068
10246SOL    HW235550   4.045   5.598  11.312  3.0915  1.0001 -1.0385
10247SOL     OW35551   7.003   7.261   0.291  0.0387  0.3770 -0.3083
10247SOL    HW135552   6.926   7.318   0.295 -0.4680 -0.2774 -0.4822
10247SOL    HW235553   6.988   7.196   0.360  1.4329  1.4311  1.0566
10248SOL     OW35554  10.338   7.083   8.764  0.0320  0.1736  0.1314
10248SOL    HW135555  10.273   7.121   8.823  0.2745  0.0911  0.4507
10248SOL    HW235556  10.422   7.117   8.794  0.2161 -0.3326  0.2103
10249SOL     OW35557  11.358   7.238   3.961 -0.3472  0.4528 -0.0129
10249SOL    HW135558  11.338   7.167   3.899 -0.3203  0.7978 -0.4168
10249SOL    HW235559  11.278   7.248   4.013 -0.3169  0.0575  0.1210
10250SOL     OW35560   1.284   9.805   5.258 -0.3060 -0.4516  0.2240
10250SOL    HW135561   1.347   9.835   5.192 -0.1988  0.0441  0.5480
10250SOL    HW235562   1.266   9.883   5.312  0.2388 -1.0465  1.2928
10251SOL     OW35563  12.193   3.648   8.657 -0.3725 -0.2812 -0.0588
10251SOL    HW135564  12.141   3.723   8.629 -1.8720 -0.5998  1.6901
10251SOL    HW235565  12.188   3.587   8.583  0.7400  1.2176 -1.4358
10252SOL     OW35566   6.487   1.802   1.864  0.0576 -0.0524 -0.4678
10252SOL    HW135567   6.397   1.802   1.897  0.1789  0.8051 -0.1198
10252SOL    HW235568   6.503   1.711   1.838 -0.3717 -0.5655  0.9650
10253SOL     OW35569   0.060   4.342   5.535  0.0931 -0.5624  0.4058
10253SOL    HW135570   0.143   4.306   5.567  0.7591 -0.1243 -0.7634
10253SOL    HW235571  -0.006   4.302   5.591  1.2495  1.1247  3.1518
10254SOL     OW35572   9.320   8.187   2.906  0.1868 -0.5580 -0.0050
10254SOL    HW135573   9.297   8.277   2.931 -0.2510 -1.0538  1.5036
10254SOL    HW235574   9.343   8.193   2.813 -0.6117  0.9661 -0.1409
10255SOL     OW35575   4.423  10.037   0.704 -0.5406  0.3514 -0.6229
10255SOL    HW135576   4.464  10.123   0.695  1.0397 -0.4306 -1.3261
10255SOL    HW235577   4.367  10.029   0.628 -1.0692  0.9393 -0.3053
10256SOL     OW35578   8.306   5.910   3.097 -0.1892 -0.3187 -0.2408
10256SOL    HW135579   8.271   5.965   3.167 -1.2230  0.4328 -1.3166
10256SOL    HW235580   8.229   5.878   3.050  0.5041  0.5289 -2.0361
10257SOL     OW35581   8.821   4.837   0.193  0.5179 -0.1469  0.6233
10257SOL    HW135582   8.860   4.783   0.261 -1.4185 -1.6727  0.6089
10257SOL    HW235583   8.893   4.892   0.161  1.4382  0.9437  4.1138
10258SOL     OW35584   3.923   1.143   0.919  0.0097  0.1592  0.3930
10258SOL    HW135585   3.885   1.154   1.007 -0.5789  1.6996 -0.0238
10258SOL    HW235586   4.002   1.197   0.920  0.6303 -0.7313  0.3242
10259SOL     OW35587   7.768   6.998   0.939  0.4247 -0.3576  0.0239
10259SOL    HW135588   7.820   7.076   0.960  1.1350 -1.4256  2.5245
10259SOL    HW235589   7.829   6.940   0.892  0.9207 -0.7818  1.1743
10260SOL     OW35590   2.928   4.113   2.938 -0.8730 -0.5497 -0.0859
10260SOL    HW135591   2.933   4.063   3.019 -0.6977  0.6398  0.6736
10260SOL    HW235592   2.870   4.187   2.959 -0.9362 -0.2906 -1.0841
10261SOL     OW35593  11.006  11.265  11.969  0.0046  0.0433 -0.0552
10261SOL    HW135594  11.054  11.182  11.969  2.5150  1.3864 -1.2943
10261SOL    HW235595  11.053  11.320  12.032 -1.7967  0.4869  0.9677
10262SOL     OW35596  11.089   7.475   9.518 -0.2155  0.2097 -0.2385
10262SOL    HW135597  11.112   7.394   9.473 -1.2028 -1.0904  1.4564
10262SOL    HW235598  11.125   7.465   9.606 -1.2294  1.1473  0.3143
10263SOL     OW35599   4.648   0.279  11.140 -0.4760 -0.7116 -0.3308
10263SOL    HW135600   4.688   0.357  11.177  0.1125 -1.2412  0.1553
10263SOL    HW235601   4.555   0.285  11.164 -0.3062 -0.4935  0.2685
10264SOL     OW35602   5.781   4.701   5.492 -0.3426  0.0343  0.1741
10264SOL    HW135603   5.775   4.756   5.571  0.4555 -1.5627  1.4192
10264SOL    HW235604   5.695   4.707   5.452 -0.0644  2.8090 -0.2166
10265SOL     OW35605   1.321   4.667   1.795  0.4636 -0.1072  0.0939
10265SOL    HW135606   1.402   4.714   1.815  0.1200  0.3102  0.5394
10265SOL    HW235607   1.276   4.723   1.732  0.7502 -0.5863 -0.5461
10266SOL     OW35608   6.739   8.883   2.232  0.4925 -0.2956 -0.5208
10266SOL    HW135609   6.782   8.798   2.232  0.4136 -0.3374  0.4070
10266SOL    HW235610   6.801   8.943   2.272  0.0836 -0.1546 -0.0905
10267SOL     OW35611   4.636  10.068   2.671  0.1761 -0.2864 -0.1675
10267SOL    HW135612   4.592  10.130   2.612 -1.9053 -1.6005 -0.0986
10267SOL    HW235613   4.630   9.984   2.625  0.4975 -0.9258  0.9381
10268SOL     OW35614  10.473   5.354  12.378 -0.0636 -0.7270  0.0438
10268SOL    HW135615  10.461   5.447  12.362 -0.2230 -1.1177 -2.5770
10268SOL    HW235616  10.408   5.332  12.445 -0.2943  0.9443  0.3967
10269SOL     OW35617   4.688   1.939   4.891  0.0477  0.1864 -0.4076
10269SOL    HW135618   4.710   2.016   4.943  2.6321  1.0814 -2.5939
10269SOL    HW235619   4.740   1.868   4.928  0.6476  0.4379 -0.7595
10270SOL     OW35620   4.563   1.225   9.610 -0.2335 -0.0324  0.2539
10270SOL    HW135621   4.648   1.182   9.601 -1.1881 -1.8632 -0.8376
10270SOL    HW235622   4.536   1.206   9.699  1.2538  2.1681  1.2454
10271SOL     OW35623   0.666   2.522   3.488 -0.0962 -0.0690  0.3549
10271SOL    HW135624   0.580   2.557   3.467  0.8700  2.0633 -0.3266
10271SOL    HW235625   0.667   2.513   3.583 -1.2162 -0.6219  0.3263
10272SOL     OW35626   9.475   3.416   2.317 -0.0272  0.7590 -0.1494
10272SOL    HW135627   9.384   3.439   2.336 -0.5790 -0.5315 -1.0867
10272SOL    HW235628   9.525   3.463   2.384 -1.6206 -0.9834  2.4978
10273SOL     OW35629   6.575   3.191   3.466 -0.5509  0.1507 -0.2138
10273SOL    HW135630   6.602   3.212   3.377 -1.6179  0.0682 -0.5643
10273SOL    HW235631   6.612   3.104   3.483  0.3933  0.5347 -0.2454
10274SOL     OW35632   8.994  12.618   3.270 -0.9664 -0.4563 -0.0206
10274SOL    HW135633   9.089  12.617   3.281 -0.8537  1.5228 -0.4979
10274SOL    HW235634   8.959  12.636   3.357 -0.8709 -0.6221  0.0507
10275SOL     OW35635   3.492   9.432   7.253 -0.1764 -0.1265  0.3521
10275SOL    HW135636   3.528   9.438   7.164 -0.6723  0.3169  0.1726
10275SOL    HW235637   3.464   9.521   7.273 -0.9782 -0.4214  0.5652
10276SOL     OW35638   6.424   0.731   6.078  0.7293 -0.5640  0.1147
10276SOL    HW135639   6.407   0.781   5.998 -1.0767  0.3389  1.0173
10276SOL    HW235640   6.480   0.659   6.049  1.6013  0.7332 -1.6217
10277SOL     OW35641   2.298   7.575   9.415 -0.5918  0.1670  0.3019
10277SOL    HW135642   2.278   7.527   9.495 -2.0675  0.2425  0.0140
10277SOL    HW235643   2.386   7.546   9.390 -0.1701  0.0425  1.8618
10278SOL     OW35644   7.947   9.763   1.085  0.6528  0.6120  0.0057
10278SOL    HW135645   7.979   9.682   1.045 -0.1000  0.6297 -0.6545
10278SOL    HW235646   7.964   9.830   1.020 -0.2063  0.7081 -0.1341
10279SOL     OW35647   8.645   9.065   1.858  0.4287 -0.0400 -0.2390
10279SOL    HW135648   8.577   9.018   1.810 -0.4070  0.6212  0.2625
10279SOL    HW235649   8.646   9.026   1.945  0.1242  0.4936  0.0049
10280SOL     OW35650   1.816   2.685   9.117  0.3784  0.2856  0.2067
10280SOL    HW135651   1.748   2.659   9.179 -1.6997  1.1506 -1.5838
10280SOL    HW235652   1.829   2.778   9.133 -0.0939  0.4906 -0.5498
10281SOL     OW35653   6.036  11.525   5.572 -0.6026  0.1111  0.1110
10281SOL    HW135654   6.017  11.611   5.610 -2.6362  0.0133 -0.5643
10281SOL    HW235655   6.109  11.491   5.623 -0.9576  1.4734  1.5834
10282SOL     OW35656   3.456  12.584  10.373  0.3104 -0.7963  0.3408
10282SOL    HW135657   3.511  12.647  10.420  0.7156  0.0407 -1.1612
10282SOL    HW235658   3.377  12.577  10.426  0.2080  1.1071  0.5206
10283SOL     OW35659   4.064  11.660   7.880  0.1213 -0.2034 -0.4837
10283SOL    HW135660   4.059  11.577   7.928  0.9824  0.0311  0.0243
10283SOL    HW235661   3.995  11.713   7.918  0.2117 -0.3401 -0.1237
10284SOL     OW35662  12.352   0.935   9.598 -0.2840 -0.5056  0.0805
10284SOL    HW135663  12.406   0.974   9.667 -2.3112 -0.0998  1.4939
10284SOL    HW235664  12.289   0.880   9.644 -0.9540 -1.1770 -1.5543
10285SOL     OW35665   7.559  10.973   3.047 -0.3868  0.7040 -0.3417
10285SOL    HW135666   7.561  11.062   3.082 -0.7845  1.3008 -1.7765
10285SOL    HW235667   7.580  10.917   3.122 -1.3117  1.9185  0.8657
10286SOL     OW35668  10.234   8.048   2.644 -0.1022  0.5242 -0.4391
10286SOL    HW135669  10.300   7.993   2.602  1.7237  0.6256  2.0938
10286SOL    HW235670  10.259   8.137   2.620  0.5928  0.5531  0.3700
10287SOL     OW35671   4.027  12.561   8.879  0.0425 -0.0900 -0.1008
10287SOL    HW135672   3.994  12.617   8.950  0.1972 -1.1459  0.8250
10287SOL    HW235673   4.032  12.474   8.917 -0.1603 -0.7528 -1.5169
10288SOL     OW35674   2.235   9.225   8.551 -0.1053 -0.1173  0.4704
10288SOL    HW135675   2.328   9.246   8.545 -0.6986  2.7926  0.1626
10288SOL    HW235676   2.219   9.216   8.645  0.4797 -0.6772  0.5211
10289SOL     OW35677   1.006   7.416   5.284  0.7756 -0.0516 -0.0108
10289SOL    HW135678   1.017   7.322   5.265 -2.1744 -0.8817  1.7447
10289SOL    HW235679   0.978   7.454   5.201  0.9957 -0.8996 -0.4923
10290SOL     OW35680   5.043   1.260   4.923  0.7224  0.0122  0.5671
10290SOL    HW135681   5.061   1.166   4.926  0.3980 -0.0324  1.6514
10290SOL    HW235682   5.128   1.302   4.936  0.5055 -0.1778  3.0417
10291SOL     OW35683  10.923   9.058   3.213 -0.2163 -0.0604  0.5766
10291SOL    HW135684  10.894   9.095   3.130  0.7018 -0.8124 -0.1081
10291SOL    HW235685  10.843   9.039   3.261 -0.7514  0.5859 -0.0551
10292SOL     OW35686   9.961   2.405   0.459  0.3202  0.0454  0.4756
10292SOL    HW135687  10.000   2.355   0.531 -1.6739 -0.9426  0.9591
10292SOL    HW235688   9.874   2.429   0.492  0.3686  1.9061 -0.6232
10293SOL     OW35689   7.357   8.353   2.619  0.1181 -0.1831 -0.0048
10293SOL    HW135690   7.423   8.404   2.665 -1.3185  0.2138  1.7438
10293SOL    HW235691   7.317   8.415   2.558  1.2698 -0.4194 -1.0534
10294SOL     OW35692   6.952   7.944  12.189 -0.0486 -0.1769 -0.1257
10294SOL    HW135693   6.859   7.956  12.171  0.0035  0.8864  0.2297
10294SOL    HW235694   6.994   8.019  12.147  0.8169 -1.3953 -1.5138
10295SOL     OW35695  12.474   9.178   4.649  0.1032 -0.0272 -0.6408
10295SOL    HW135696  12.425   9.242   4.700 -2.4597  0.8222 -3.8174
10295SOL    HW235697  12.479   9.101   4.705 -1.5694  1.1570  1.2704
10296SOL     OW35698  11.757   4.674   4.067 -0.4632  0.5594 -0.1939
10296SOL    HW135699  11.696   4.667   4.140  1.0397 -0.0864  1.0615
10296SOL    HW235700  11.828   4.729   4.101 -0.1238  0.9287 -1.4532
10297SOL     OW35701  10.953   4.929  10.229 -0.5121 -0.4034  0.1774
10297SOL    HW135702  10.920   4.948  10.316 -0.9408 -0.2688 -0.0083
10297SOL    HW235703  10.953   4.833  10.223 -2.0337 -0.4127 -0.2322
10298SOL     OW35704   8.652   7.127   5.926 -0.1347 -0.4039  0.1205
10298SOL    HW135705   8.572   7.153   5.880  0.2034 -1.2078 -0.9626
10298SOL    HW235706   8.711   7.098   5.856  0.6595 -0.9868  1.0139
10299SOL     OW35707   2.190   4.914   0.774  0.3421  0.1859 -0.1645
10299SOL    HW135708   2.179   4.997   0.819  0.4701  0.1463 -0.0577
10299SOL    HW235709   2.175   4.847   0.842 -1.1051  0.0960 -0.5522
10300SOL     OW35710   9.978   3.535   9.673  0.8092 -0.1146  0.3282
10300SOL    HW135711  10.005   3.567   9.587 -0.1456  1.0608  0.4378
10300SOL    HW235712   9.944   3.613   9.718 -2.0852 -1.3217  0.4452
10301SOL     OW35713   7.188  11.290   2.505  0.4000  0.3007  0.4382
10301SOL    HW135714   7.190  11.233   2.428  1.6285  0.4708  0.3303
10301SOL    HW235715   7.206  11.232   2.579  1.0127  0.4398  0.3990
10302SOL     OW35716  10.716   3.824   0.809  0.4235 -0.1222  0.0992
10302SOL    HW135717  10.673   3.884   0.870  0.5626  0.3291 -0.2480
10302SOL    HW235718  10.805   3.857   0.800  0.7234 -0.7973  0.4635
10303SOL     OW35719   6.542   4.481   3.688  0.0937  0.1695 -0.1017
10303SOL    HW135720   6.466   4.424   3.702  0.3359 -0.2444 -0.4559
10303SOL    HW235721   6.601   4.429   3.634  0.9852  0.1811  0.8390
10304SOL     OW35722   9.959   0.510  10.751  0.0776 -0.0083  0.1454
10304SOL    HW135723   9.989   0.598  10.775  0.4337  0.2212 -1.0759
10304SOL    HW235724   9.886   0.525  10.690 -0.0518 -0.5655  0.1522
10305SOL     OW35725   7.433   5.535   7.059  0.0022 -0.3253 -0.3980
10305SOL    HW135726   7.515   5.561   7.016 -0.2211  0.8073 -0.1668
10305SOL    HW235727   7.379   5.614   7.057 -0.4607 -0.5930  0.9265
10306SOL     OW35728   1.327   4.784   3.878  0.2809 -0.3653 -0.1662
10306SOL    HW135729   1.282   4.814   3.957  0.8259 -2.1509  0.9077
10306SOL    HW235730   1.263   4.793   3.808  0.0520  2.0490  0.2701
10307SOL     OW35731   5.282   7.088   2.135  0.3000 -0.5833 -0.0682
10307SOL    HW135732   5.195   7.126   2.121  0.5166 -0.5455 -1.4312
10307SOL    HW235733   5.320   7.141   2.205 -1.1453 -1.2532  1.2844
10308SOL     OW35734   2.741   1.255   9.552  0.5013  0.2577 -0.4593
10308SOL    HW135735   2.739   1.344   9.589  1.1373  0.6896 -1.4196
10308SOL    HW235736   2.681   1.205   9.607 -0.7083  1.5386 -0.5454
10309SOL     OW35737  12.458   8.675   9.198 -0.5075  0.2967  0.2488
10309SOL    HW135738  12.482   8.727   9.274 -0.1008 -0.7844  0.8904
10309SOL    HW235739  12.538   8.627   9.175 -0.3304  1.3634 -1.5112
10310SOL     OW35740   8.873   4.970   2.008 -0.2030 -0.2630  0.0155
10310SOL    HW135741   8.967   4.984   2.001  0.1153 -1.2897  1.5868
10310SOL    HW235742   8.864   4.876   2.020 -1.5422 -0.3342 -1.2633
10311SOL     OW35743   5.035   4.817   6.236  0.1903 -0.3067 -0.6493
10311SOL    HW135744   5.050   4.888   6.174  0.4314 -0.5735 -0.9082
10311SOL    HW235745   5.011   4.742   6.181 -0.3859 -0.3423 -0.3572
10312SOL     OW35746   9.592   7.563   3.560  0.1739 -0.3044 -0.2505
10312SOL    HW135747   9.680   7.566   3.597  0.2151 -1.7798 -0.1746
10312SOL    HW235748   9.533   7.563   3.636  0.2450 -2.8232 -0.1003
10313SOL     OW35749   5.368  11.359   7.950 -0.3362 -0.6762  0.0655
10313SOL    HW135750   5.332  11.322   8.030 -0.6355 -1.6762 -0.5129
10313SOL    HW235751   5.309  11.431   7.929 -0.2980 -0.4520  0.6953
10314SOL     OW35752  10.411   9.608   7.300 -0.0015  0.0327 -0.4228
10314SOL    HW135753  10.349   9.542   7.269 -0.0132  0.3636 -1.1283
10314SOL    HW235754  10.497   9.569   7.284 -0.0163 -0.4717  0.6567
10315SOL     OW35755   1.302   7.383   1.246 -0.0160 -0.3967 -0.1607
10315SOL    HW135756   1.224   7.425   1.281  1.2422  1.1845  0.9153
10315SOL    HW235757   1.271   7.337   1.168 -2.0152  0.1018  0.2733
10316SOL     OW35758   0.977   1.603   0.992 -0.5531 -0.2571  0.2579
10316SOL    HW135759   1.031   1.679   0.970 -0.4302 -0.1610  0.8943
10316SOL    HW235760   0.950   1.618   1.082 -0.6218 -0.9229  0.3475
10317SOL     OW35761   0.868   4.705   8.379 -0.1757 -0.1031 -0.1879
10317SOL    HW135762   0.953   4.736   8.411 -0.8573 -0.0062  1.6417
10317SOL    HW235763   0.889   4.627   8.327  1.2155  1.2118 -1.7040
10318SOL     OW35764  12.387  11.017   1.113  0.2140 -0.0355 -0.7397
10318SOL    HW135765  12.460  10.995   1.055  0.9796 -1.9607  0.8533
10318SOL    HW235766  12.426  11.065   1.186 -0.0633 -1.1014  0.1366
10319SOL     OW35767   6.048   8.826  10.221 -0.4255  0.8065 -0.1575
10319SOL    HW135768   6.074   8.744  10.178  2.0329  1.5107 -0.1517
10319SOL    HW235769   6.059   8.893  10.153 -2.0197  1.2447 -0.0366
10320SOL     OW35770  10.795   8.050   4.340  0.0010 -0.0083  0.2196
10320SOL    HW135771  10.824   8.011   4.422 -0.0405  1.8314  1.1780
10320SOL    HW235772  10.709   8.011   4.323 -0.6744  0.6893  1.8887
10321SOL     OW35773  11.775   2.789   9.585 -0.5684  0.3231 -0.1406
10321SOL    HW135774  11.701   2.816   9.639 -0.0171  0.0230  0.7774
10321SOL    HW235775  11.827   2.732   9.641 -0.6742 -1.0765 -1.4028
10322SOL     OW35776   4.941   2.162   6.559  0.3161  0.1718  0.0947
10322SOL    HW135777   5.031   2.166   6.590 -0.2125  0.1207  1.7161
10322SOL    HW235778   4.903   2.247   6.583 -0.3709 -0.2242  0.4691
10323SOL     OW35779   6.199   3.087   1.277  0.4131 -0.4328  0.2148
10323SOL    HW135780   6.200   3.097   1.182 -2.9658 -0.3249  0.0952
10323SOL    HW235781   6.109   3.064   1.299  1.1225 -0.7263  3.4044
10324SOL     OW35782   1.316   7.480   9.554  0.3139  0.0548  0.3724
10324SOL    HW135783   1.309   7.402   9.609 -2.3538  1.4023  2.1504
10324SOL    HW235784   1.385   7.533   9.595  0.0600 -0.0623  0.9536
10325SOL     OW35785   8.383   3.334  11.750  0.7027 -0.2082  0.4051
10325SOL    HW135786   8.405   3.396  11.681 -1.8053 -0.1345 -0.4467
10325SOL    HW235787   8.367   3.388  11.827  1.6326 -0.1179  0.5452
10326SOL     OW35788   5.965   0.899  11.166  0.5780  0.2502  0.0026
10326SOL    HW135789   6.025   0.834  11.129 -0.6433 -0.1738 -1.3195
10326SOL    HW235790   5.907   0.849  11.223  0.5242  0.4147  0.0945
10327SOL     OW35791   5.376   6.750  10.988  0.2677 -0.1176  0.2333
10327SOL    HW135792   5.423   6.681  10.941 -0.4175 -0.0059 -0.6363
10327SOL    HW235793   5.289   6.711  11.006 -0.9787  1.2780 -2.3066
10328SOL     OW35794   1.596   9.488  11.761  0.4076  0.2776 -0.4515
10328SOL    HW135795   1.549   9.543  11.824  1.6121 -0.2744  0.9950
10328SOL    HW235796   1.662   9.546  11.724  0.7930  0.1780  0.0660
10329SOL     OW35797   9.315   7.276   6.097 -0.0835  0.0839  0.1187
10329SOL    HW135798   9.390   7.336   6.098  0.5660 -0.7009  0.0940
10329SOL    HW235799   9.239   7.332   6.089  0.4008  1.0158  1.5635
10330SOL     OW35800   9.184  11.616   4.632  0.7336  0.1900  0.7260
10330SOL    HW135801   9.106  11.670   4.640  0.4847 -0.1283  0.5196
10330SOL    HW235802   9.256  11.673   4.656  0.6737  1.1537 -1.1610
10331SOL     OW35803   3.117   3.210   1.918  0.0614  0.3233  0.9813
10331SOL    HW135804   3.026   3.187   1.899  0.3551  0.2609 -0.4262
10331SOL    HW235805   3.163   3.126   1.919  0.5656  0.5220 -1.0357
10332SOL     OW35806  12.156  12.416   8.870 -0.5681 -0.3702 -0.3984
10332SOL    HW135807  12.153  12.431   8.776 -0.7146  0.1797 -0.3093
10332SOL    HW235808  12.248  12.398   8.889 -0.2274  1.1463 -0.4207
10333SOL     OW35809  11.476   2.826   3.842  0.0547 -0.0093  0.2551
10333SOL    HW135810  11.384   2.851   3.853  0.0545  0.4038 -0.5750
10333SOL    HW235811  11.518   2.851   3.924 -0.5592 -0.1191  0.6069
10334SOL     OW35812   3.163  10.830   5.052  0.1777 -0.0273  0.0554
10334SOL    HW135813   3.117  10.756   5.012  0.8958  0.6682 -2.2181
10334SOL    HW235814   3.095  10.894   5.069 -0.3956 -1.0137  1.6943
10335SOL     OW35815  11.476   0.040   2.466 -0.4251 -0.3678  0.2983
10335SOL    HW135816  11.485   0.086   2.550  1.5450  1.1072 -0.6310
10335SOL    HW235817  11.432   0.104   2.409  1.1444 -0.0890 -0.6468
10336SOL     OW35818   0.502   9.768   8.922 -0.6242 -0.0992  0.3259
10336SOL    HW135819   0.477   9.761   9.014 -1.3008  1.4574  0.3016
10336SOL    HW235820   0.448   9.840   8.888  1.0215  0.6794 -0.7826
10337SOL     OW35821   4.336   0.438   9.088 -0.0812  0.7199 -0.3279
10337SOL    HW135822   4.316   0.350   9.055 -0.3061  1.1648 -1.4095
10337SOL    HW235823   4.336   0.494   9.010 -0.4378  1.7700  0.4027
10338SOL     OW35824  11.912   5.558   9.478 -0.0315  0.4050  0.4797
10338SOL    HW135825  11.907   5.590   9.568  0.8344  1.3100  0.2248
10338SOL    HW235826  11.879   5.630   9.424 -0.1228  0.0450  0.0481
10339SOL     OW35827   5.459  10.317   1.940 -0.2346 -0.6574  0.4746
10339SOL    HW135828   5.540  10.314   1.889 -0.5821  0.4198 -0.1842
10339SOL    HW235829   5.392  10.287   1.879 -0.7679  1.3419 -0.0043
10340SOL     OW35830   5.689  12.313  10.194  0.2571 -0.2397 -0.4997
10340SOL    HW135831   5.719  12.223  10.204 -1.3118 -0.6338  1.2445
10340SOL    HW235832   5.761  12.357  10.148  0.9887 -2.3840 -1.5811
10341SOL     OW35833   2.872   9.766  10.690  0.3496  0.2628 -0.1831
10341SOL    HW135834   2.875   9.732  10.601 -1.0812 -1.0417  0.2218
10341SOL    HW235835   2.858   9.860  10.679  1.9283  0.4146 -1.3167
10342SOL     OW35836   6.274  11.281   1.084  0.1928  0.4073 -0.0997
10342SOL    HW135837   6.261  11.207   1.025 -0.3987 -0.2014  0.7635
10342SOL    HW235838   6.203  11.274   1.148  0.5155  1.3411  0.3907
10343SOL     OW35839   9.592   1.885   7.154  0.1456  0.2033  0.1848
10343SOL    HW135840   9.574   1.924   7.068 -0.7524 -1.0144 -0.2069
10343SOL    HW235841   9.666   1.936   7.188  0.7421  0.4975 -1.4430
10344SOL     OW35842   2.085   8.726   6.897  0.0003  0.0220  0.5358
10344SOL    HW135843   2.098   8.720   6.803 -1.9311  0.5323  0.1997
10344SOL    HW235844   2.076   8.636   6.926 -1.2728 -0.0586 -0.0786
10345SOL     OW35845   9.554   5.275   2.337  0.2582  0.4536  0.0740
10345SOL    HW135846   9.506   5.273   2.420 -1.3593 -2.6598 -0.7808
10345SOL    HW235847   9.486   5.267   2.270  1.7337 -0.6155 -1.3637
10346SOL     OW35848   5.773   0.164   2.694  0.1571  0.2294 -0.2245
10346SOL    HW135849   5.751   0.255   2.676  1.6467  0.5305 -0.7183
10346SOL    HW235850   5.847   0.169   2.755 -0.1441 -0.6595  0.2300
10347SOL     OW35851   9.149   0.280   8.358  0.6273 -0.3730  0.7423
10347SOL    HW135852   9.092   0.297   8.283 -0.7727 -1.4918  1.5075
10347SOL    HW235853   9.237   0.303   8.327 -0.0922  0.4621 -0.7912
10348SOL     OW35854   9.593   1.015   8.541  0.2708 -0.5979 -0.5797
10348SOL    HW135855   9.678   1.047   8.511  1.2887 -1.6152  1.0454
10348SOL    HW235856   9.529   1.065   8.491  1.8210 -0.4101 -2.4773
10349SOL     OW35857  11.717   0.990   0.203  0.4466 -0.4740  0.4219
10349SOL    HW135858  11.769   1.063   0.238 -1.5409  1.5640 -0.6070
10349SOL    HW235859  11.626   1.020   0.210 -0.3378 -2.1181 -1.7025
10350SOL     OW35860   9.564   1.572   9.904 -0.4213 -0.3397  0.0547
10350SOL    HW135861   9.511   1.493   9.886  0.1628 -0.2978 -2.0939
10350SOL    HW235862   9.502   1.644   9.895 -1.0401 -0.4996  2.3742
10351SOL     OW35863   2.054   3.599   4.950  0.1653  0.2213  0.1394
10351SOL    HW135864   2.149   3.610   4.958  0.6112 -2.6854 -0.0704
10351SOL    HW235865   2.024   3.683   4.914  2.7749  0.9288 -0.6903
10352SOL     OW35866   7.278  12.244   9.140 -0.0954  0.3735 -0.0685
10352SOL    HW135867   7.271  12.159   9.184  1.5626 -1.4479 -2.9072
10352SOL    HW235868   7.370  12.268   9.149 -0.3161  1.3099 -0.2449
10353SOL     OW35869   9.710  11.125   1.403 -0.2633  0.6185  0.1111
10353SOL    HW135870   9.771  11.157   1.337 -1.8777  0.9804 -1.2816
10353SOL    HW235871   9.711  11.193   1.471 -0.4899  1.5491 -0.7927
10354SOL     OW35872  12.258   1.201   5.581  0.0517  0.1238  0.2480
10354SOL    HW135873  12.346   1.208   5.618  0.4622  0.8580 -0.8077
10354SOL    HW235874  12.225   1.118   5.614 -0.0752  1.2268  3.1865
10355SOL     OW35875   6.933  10.734   7.768  0.7185  0.6132  0.1263
10355SOL    HW135876   6.988  10.794   7.718  0.9727 -1.0169 -1.6612
10355SOL    HW235877   6.860  10.788   7.799  1.0826  1.8996 -1.1908
10356SOL     OW35878   9.527   0.697   4.419 -0.4825  0.1809  0.7710
10356SOL    HW135879   9.466   0.691   4.493 -1.3334  2.3618  0.3209
10356SOL    HW235880   9.471   0.716   4.344  0.3329 -2.2214 -0.5644
10357SOL     OW35881   5.078   4.639   9.597  0.3189  0.1919 -0.2098
10357SOL    HW135882   5.132   4.718   9.586  0.0836  0.5717  1.2542
10357SOL    HW235883   5.110   4.580   9.528  2.7787  0.3206  0.7007
10358SOL     OW35884   4.077   2.592   7.386 -0.8138 -0.1068  0.2501
10358SOL    HW135885   4.043   2.670   7.343  1.7674  0.9144 -0.0672
10358SOL    HW235886   4.064   2.608   7.480 -1.6722  0.0014  0.1179
10359SOL     OW35887   0.166   6.674  12.241 -0.6445 -0.5867  0.0478
10359SOL    HW135888   0.177   6.613  12.168 -0.1954 -0.8438  0.3271
10359SOL    HW235889   0.136   6.755  12.200  1.1853 -0.2124 -0.6213
10360SOL     OW35890   6.537  11.217   3.811  0.0634  0.5407 -0.8487
10360SOL    HW135891   6.483  11.152   3.767 -0.7238  0.4728  0.1698
10360SOL    HW235892   6.584  11.262   3.741  0.2619 -0.7962 -1.6002
10361SOL     OW35893  12.456  11.306   0.845 -0.2459 -0.0964 -0.3590
10361SOL    HW135894  12.401  11.368   0.797 -0.9830  0.3108  0.9571
10361SOL    HW235895  12.546  11.331   0.822 -0.5558  0.8083 -0.6450
10362SOL     OW35896   8.749   5.266   2.850  0.2452  0.5019  0.1920
10362SOL    HW135897   8.674   5.310   2.892  0.2717  1.9711 -1.1978
10362SOL    HW235898   8.791   5.218   2.921 -0.7171  1.4769  1.4766
10363SOL     OW35899   9.655   5.580   1.518 -0.4288  0.7037 -0.6096
10363SOL    HW135900   9.621   5.519   1.584  0.4249 -0.9106 -1.6044
10363SOL    HW235901   9.676   5.525   1.443  2.0822  1.9352 -0.9171
10364SOL     OW35902   1.721   4.500   2.018  0.1552 -0.1527  0.4224
10364SOL    HW135903   1.794   4.531   2.072  0.7534  1.1040 -1.0252
10364SOL    HW235904   1.702   4.573   1.959 -2.6403 -0.2719  1.0748
10365SOL     OW35905   8.594   3.932   9.973  0.4585 -0.6355  0.1788
10365SOL    HW135906   8.508   3.892   9.963 -0.0678  0.7814 -1.3807
10365SOL    HW235907   8.587   3.984  10.053 -0.6562  0.6025 -0.6701
10366SOL     OW35908   8.516  10.320   7.805  0.2106 -0.1512  0.3182
10366SOL    HW135909   8.487  10.282   7.888  0.0538 -1.1923 -0.1965
10366SOL    HW235910   8.447  10.381   7.781 -0.0957 -0.3872  0.5869
10367SOL     OW35911   6.335   7.243   2.074 -0.2904  0.1385  0.6185
10367SOL    HW135912   6.395   7.184   2.120  0.1072 -0.1294 -0.2377
10367SOL    HW235913   6.311   7.197   1.994 -0.6138  0.7982  0.3254
10368SOL     OW35914   8.593   5.735   8.139 -0.4113  0.2503  0.2675
10368SOL    HW135915   8.542   5.808   8.104 -0.7350  0.9860  2.1585
10368SOL    HW235916   8.674   5.735   8.089 -1.8323 -0.4089 -2.2369
10369SOL     OW35917  10.976   5.421   5.870 -0.2062 -0.1645  0.8328
10369SOL    HW135918  11.042   5.491   5.867 -1.1657  0.7371 -0.8964
10369SOL    HW235919  10.964   5.395   5.779 -1.4299 -1.0995  1.2276
10370SOL     OW35920   4.824   0.349   2.649 -0.0669  0.1760  0.2336
10370SOL    HW135921   4.807   0.439   2.619  0.5559 -0.5499 -2.5357
10370SOL    HW235922   4.906   0.324   2.607  1.0928 -0.9205  2.9108
10371SOL     OW35923  11.986  10.095  10.065 -0.5985  0.0068  0.3119
10371SOL    HW135924  11.925  10.135  10.128 -1.7193 -1.1264 -0.0268
10371SOL    HW235925  11.958  10.129   9.980  0.7228  1.2896  0.3333
10372SOL     OW35926  11.546  11.411   0.818  0.4188  0.6290 -0.0381
10372SOL    HW135927  11.490  11.463   0.875  0.9850  1.6475 -0.4037
10372SOL    HW235928  11.532  11.321   0.848  0.5061  1.1029  1.5305
10373SOL     OW35929   6.989  12.622  11.993 -0.1068  0.2106  0.2287
10373SOL    HW135930   6.997  12.669  12.076  0.9201  1.5172 -0.5556
10373SOL    HW235931   6.940  12.543  12.014 -3.4612  2.3507  1.3736
10374SOL     OW35932   8.036   8.512   8.779  0.2684 -0.2161 -0.0466
10374SOL    HW135933   8.078   8.595   8.759  1.8856 -1.2975 -1.4375
10374SOL    HW235934   8.069   8.488   8.866  0.6308  0.0961 -0.0976
10375SOL     OW35935   7.047   8.203  12.519 -0.1814  0.0680  0.2749
10375SOL    HW135936   6.988   8.135  12.551 -0.1521  0.1454  0.4991
10375SOL    HW235937   7.009   8.233  12.437 -1.2469  1.1329  1.1233
10376SOL     OW35938   0.626   1.562   8.491  0.1899  0.0712 -0.2820
10376SOL    HW135939   0.581   1.643   8.468  0.4481  0.4481  0.5033
10376SOL    HW235940   0.567   1.519   8.553  0.3375 -0.0460 -0.2231
10377SOL     OW35941   9.332  11.030   0.569 -0.3251 -0.3477  0.3266
10377SOL    HW135942   9.405  10.990   0.616 -0.3940  0.9315  1.5551
10377SOL    HW235943   9.368  11.054   0.484  0.3602 -0.7957  0.4875
10378SOL     OW35944   3.772  11.774   2.049  0.2849 -0.1675 -0.3167
10378SOL    HW135945   3.807  11.788   2.138  0.9728  1.4018 -0.7838
10378SOL    HW235946   3.828  11.707   2.011  0.1029 -0.7162  0.3658
10379SOL     OW35947  11.979   8.707  11.022 -0.1494 -0.3614  0.0422
10379SOL    HW135948  12.045   8.638  11.028  1.6387  1.1972 -0.4598
10379SOL    HW235949  12.003   8.756  10.943 -1.4027  0.7898  0.3293
10380SOL     OW35950   4.660   4.335   0.192 -0.0302  0.7205  0.2244
10380SOL    HW135951   4.675   4.241   0.207 -0.0814  0.7233  0.2951
10380SOL    HW235952   4.730   4.361   0.132  0.7570  0.9122  1.1831
10381SOL     OW35953  12.390  10.338   2.758  0.1593  0.1869  0.1989
10381SOL    HW135954  12.480  10.325   2.789  0.9814  1.5504 -1.3810
10381SOL    HW235955  12.401  10.383   2.674 -2.0160  0.3475 -0.0502
10382SOL     OW35956  10.620   6.054   2.538  0.7226 -0.0273  0.4222
10382SOL    HW135957  10.634   6.050   2.443  0.9070  1.5623  0.3400
10382SOL    HW235958  10.627   6.148   2.558  0.9764 -0.3705  2.0509
10383SOL     OW35959  10.234   9.680   6.813  0.2959 -0.4367  0.2285
10383SOL    HW135960  10.245   9.758   6.758 -2.3103 -0.3313 -0.2516
10383SOL    HW235961  10.290   9.614   6.771  0.0919  0.2776 -1.2574
10384SOL     OW35962   4.458  12.591   7.767  0.6583 -0.4005  0.2265
10384SOL    HW135963   4.520  12.520   7.787  1.2511 -0.0577 -0.3292
10384SOL    HW235964   4.506  12.647   7.706  0.4652  0.8777  1.2278
10385SOL     OW35965  12.118   8.519   4.212  0.1177  0.0678 -0.2803
10385SOL    HW135966  12.050   8.452   4.219 -1.2301  1.3539 -0.4635
10385SOL    HW235967  12.164   8.499   4.131 -1.0580  0.0595 -0.9551
10386SOL     OW35968   4.857   0.971   2.873  0.5147  0.0786  0.0465
10386SOL    HW135969   4.931   0.947   2.817  0.3539  2.2010 -1.1930
10386SOL    HW235970   4.898   1.001   2.955  0.9922  0.4432 -0.3192
10387SOL     OW35971  10.645   5.642   1.307 -0.6337  0.3761 -0.3059
10387SOL    HW135972  10.699   5.688   1.242 -0.9304 -0.2123 -0.9815
10387SOL    HW235973  10.678   5.673   1.391  0.7236  0.0860 -0.6986
10388SOL     OW35974   7.932  11.559   1.316  0.0033  0.0839 -0.0504
10388SOL    HW135975   7.986  11.583   1.391  0.1111  0.9043 -0.3848
10388SOL    HW235976   7.940  11.632   1.256 -2.3328  0.7599  0.3382
10389SOL     OW35977   3.680  12.516   6.232  0.3869  0.3110 -0.0511
10389SOL    HW135978   3.635  12.519   6.148  0.3267  0.2404 -0.0211
10389SOL    HW235979   3.773  12.520   6.209  0.3620  0.6481 -0.1037
10390SOL     OW35980   1.291   4.424  10.567 -0.4251 -0.5119 -0.0940
10390SOL    HW135981   1.245   4.351  10.524 -0.5844 -1.2046  1.2125
10390SOL    HW235982   1.314   4.483  10.495 -0.7048 -1.6219 -1.1328
10391SOL     OW35983   5.980   7.437   4.280  0.7455 -0.0337 -0.5176
10391SOL    HW135984   5.900   7.450   4.330  1.0263  0.4969 -0.1936
10391SOL    HW235985   6.049   7.475   4.335  0.6841  3.7232 -2.7096
10392SOL     OW35986   8.389   3.108   0.228 -0.1883 -0.1510  0.5064
10392SOL    HW135987   8.453   3.038   0.217 -0.4936 -0.1670 -1.5951
10392SOL    HW235988   8.440   3.182   0.260  1.0731  0.0315 -1.7348
10393SOL     OW35989  12.265   3.774  11.670  0.2224 -0.0177  0.1956
10393SOL    HW135990  12.275   3.680  11.655  2.1534 -0.2833  2.6486
10393SOL    HW235991  12.297   3.814  11.589  0.2395 -1.4114 -0.5294
10394SOL     OW35992  11.050  11.656   9.142 -0.4067  0.0203  0.7332
10394SOL    HW135993  11.040  11.748   9.167  1.0557  0.5095 -0.3385
10394SOL    HW235994  11.143  11.637   9.155 -0.3661 -0.8234 -0.5345
10395SOL     OW35995   5.264   4.572   4.573 -0.0897  0.0749  0.1952
10395SOL    HW135996   5.281   4.501   4.511 -0.0764  0.9201 -0.7973
10395SOL    HW235997   5.317   4.551   4.650  1.5635  0.1077 -0.9128
10396SOL     OW35998   7.743  10.826  10.915  0.3896 -0.5600 -0.4464
10396SOL    HW135999   7.731  10.921  10.916 -2.4624 -0.8345 -0.8881
10396SOL    HW236000   7.685  10.794  10.984  1.0930 -2.0250 -0.4948
10397SOL     OW36001   2.219  11.649  10.288  0.2134 -0.2013  0.3602
10397SOL    HW136002   2.244  11.613  10.203 -0.7665  1.1683 -0.5590
10397SOL    HW236003   2.245  11.741  10.284 -3.8692  1.1276 -0.3510
10398SOL     OW36004   3.382   6.001   6.516  0.4057 -0.1635 -0.2353
10398SOL    HW136005   3.321   5.996   6.443  0.0813  0.6002 -0.0203
10398SOL    HW236006   3.444   5.929   6.500 -0.1277 -0.5028 -0.8242
10399SOL     OW36007  11.647   5.031   8.428 -0.4072  0.2258 -0.2235
10399SOL    HW136008  11.730   5.016   8.382 -1.0446 -0.5888 -1.1460
10399SOL    HW236009  11.601   5.095   8.374 -0.2157  1.0023  0.5148
10400SOL     OW36010   8.969  10.728   6.590 -0.0550  0.1809 -0.6191
10400SOL    HW136011   9.022  10.799   6.552 -0.4579 -0.3102 -2.1499
10400SOL    HW236012   8.928  10.768   6.667  3.4218  0.2609  1.3991
10401SOL     OW36013   0.282  11.008   3.260 -0.4221 -0.1329 -0.1270
10401SOL    HW136014   0.351  10.982   3.198  1.0178  2.1843  0.3531
10401SOL    HW236015   0.328  11.063   3.324 -2.1022 -1.3866  2.3082
10402SOL     OW36016  12.572   9.597  10.047  0.0047  0.5506  0.8209
10402SOL    HW136017  12.625   9.674  10.027  0.7693  0.0322  0.8086
10402SOL    HW236018  12.525   9.620  10.127  0.0651  1.1083  0.6943
10403SOL     OW36019   9.322   0.426  10.448 -0.1910  0.4800  0.2468
10403SOL    HW136020   9.380   0.501  10.463 -1.9336  1.5502  2.1737
10403SOL    HW236021   9.239   0.465  10.419 -0.6671 -0.8365 -0.2365
10404SOL     OW36022   8.318   1.969  12.362 -0.1743 -0.1421 -0.0749
10404SOL    HW136023   8.301   2.023  12.439 -2.0140 -0.7671  0.0024
10404SOL    HW236024   8.235   1.968  12.314  0.7251 -0.3581 -1.7066
10405SOL     OW36025  10.631   0.228   0.317 -0.3920 -0.1062 -0.5543
10405SOL    HW136026  10.594   0.164   0.256  0.3089  1.0488 -2.2761
10405SOL    HW236027  10.725   0.226   0.299 -0.1329  0.1007  0.6896
10406SOL     OW36028  10.540   0.365   4.428  0.3981  0.5426  0.0166
10406SOL    HW136029  10.553   0.274   4.455  2.1703  0.3765 -1.2321
10406SOL    HW236030  10.541   0.415   4.509  0.3205 -0.4546  0.6448
10407SOL     OW36031   8.482   3.116   1.809 -0.0686 -0.3118 -0.3572
10407SOL    HW136032   8.521   3.197   1.841  1.2102 -0.9103 -0.3671
10407SOL    HW236033   8.532   3.094   1.730 -0.9880 -0.6446 -0.8614
10408SOL     OW36034   8.499   2.666   7.696 -0.5160  0.6062 -0.3354
10408SOL    HW136035   8.563   2.732   7.723  0.7793 -0.5609 -0.4193
10408SOL    HW236036   8.520   2.648   7.605  0.2392 -1.0821  0.1369
10409SOL     OW36037   1.476   2.346   3.853 -0.0004 -0.1459  0.3862
10409SOL    HW136038   1.396   2.398   3.844  0.1110 -0.2555 -1.5533
10409SOL    HW236039   1.485   2.300   3.770  1.9752 -0.3100  0.6413
10410SOL     OW36040   3.974   6.107   5.419 -0.0885  0.3613  0.0867
10410SOL    HW136041   3.988   6.012   5.420 -0.4441  0.2995 -0.5010
10410SOL    HW236042   3.969   6.130   5.326  0.8269  1.0904  0.2009
10411SOL     OW36043   3.164   3.544   1.312  0.3798  0.2169 -0.0662
10411SOL    HW136044   3.196   3.632   1.329 -0.3499  0.3811  0.5246
10411SOL    HW236045   3.242   3.489   1.317  1.0552  0.9613 -1.6916
10412SOL     OW36046   4.142   8.538  12.094 -0.5066 -0.0683 -0.2018
10412SOL    HW136047   4.225   8.574  12.064 -0.5875 -0.2145 -0.6048
10412SOL    HW236048   4.112   8.600  12.161 -0.8341  0.8398 -1.1590
10413SOL     OW36049  11.375  10.716   9.720  0.1444 -0.6287  0.5891
10413SOL    HW136050  11.372  10.771   9.798  0.4002 -0.5996  0.5828
10413SOL    HW236051  11.297  10.739   9.670  0.3714 -0.0916  0.4709
10414SOL     OW36052  10.790   8.677   6.565  0.1037  0.2692 -0.1247
10414SOL    HW136053  10.713   8.695   6.618 -1.3944 -0.9535 -1.7679
10414SOL    HW236054  10.837   8.608   6.613  0.8756  1.8084  1.4597
10415SOL     OW36055   2.782  10.914   4.249  0.6482 -0.3416 -0.5659
10415SOL    HW136056   2.716  10.968   4.205  0.4856 -0.7884 -0.8825
10415SOL    HW236057   2.741  10.892   4.333  0.4389 -0.5244 -0.7142
10416SOL     OW36058   3.333   9.662  11.543  0.3987  0.7307 -0.2911
10416SOL    HW136059   3.301   9.742  11.585 -0.7406 -0.3510  1.0009
10416SOL    HW236060   3.259   9.632  11.489  0.7905  0.4996 -0.7058
10417SOL     OW36061   3.246   0.716   2.171 -0.0323 -0.2322  0.1340
10417SOL    HW136062   3.187   0.790   2.183  0.3062 -0.1316  1.2889
10417SOL    HW236063   3.188   0.643   2.147 -0.6625 -0.1636  1.3656
10418SOL     OW36064   9.414  10.422   1.574 -0.1486 -0.3281  0.4221
10418SOL    HW136065   9.352  10.493   1.557 -0.0570 -0.2327  0.4826
10418SOL    HW236066   9.492  10.446   1.524  0.0585 -0.1383  0.8327
10419SOL     OW36067   1.506  10.131   8.262  0.5362  0.1588 -0.1783
10419SOL    HW136068   1.571  10.201   8.263  4.3372 -2.9855 -1.4001
10419SOL    HW236069   1.476  10.126   8.172 -0.6685  0.9252  0.1639
10420SOL     OW36070   2.162  12.151  11.036  0.0843  0.5687  0.1860
10420SOL    HW136071   2.081  12.195  11.063 -0.6659 -0.1638 -0.7837
10420SOL    HW236072   2.132  12.076  10.985  1.3632 -0.4382  0.8776
10421SOL     OW36073   1.690   1.465   3.141  0.4689  0.0301 -0.1675
10421SOL    HW136074   1.745   1.387   3.131 -2.0664 -2.0909  1.1289
10421SOL    HW236075   1.632   1.444   3.215  0.2078  3.5307  0.7911
10422SOL     OW36076   8.931   8.989   4.441  0.1434 -0.5966 -0.0158
10422SOL    HW136077   8.999   9.032   4.390 -0.4550  0.6117  0.1651
10422SOL    HW236078   8.978   8.926   4.496  1.0462 -0.1861 -0.3034
10423SOL     OW36079   2.058   8.558   7.817 -0.0328  0.8526  0.0922
10423SOL    HW136080   2.129   8.599   7.867 -0.5688  1.0135  0.7388
10423SOL    HW236081   2.021   8.629   7.766  0.2880  0.7629 -0.2674
10424SOL     OW36082  12.089   3.215   4.973  0.4982 -0.0657 -0.2916
10424SOL    HW136083  12.015   3.168   5.011  0.1091 -0.6023 -1.6608
10424SOL    HW236084  12.139   3.245   5.049 -1.1515  0.3834  0.6749
10425SOL     OW36085   2.843   3.472  10.779 -0.2309  0.0901 -0.4234
10425SOL    HW136086   2.754   3.492  10.806 -1.7744 -1.1892 -3.8775
10425SOL    HW236087   2.857   3.527  10.701  0.0968 -2.9081 -2.6822
10426SOL     OW36088   9.082  10.818   4.693 -0.0985 -0.0933 -0.0341
10426SOL    HW136089   9.096  10.911   4.677 -0.0971 -0.0036  0.4777
10426SOL    HW236090   9.162  10.776   4.661  0.1167  0.1291  0.2083
10427SOL     OW36091   9.744   5.212   0.972 -0.8237 -0.0324 -0.1556
10427SOL    HW136092   9.758   5.300   1.008  0.5583  0.5725 -2.0202
10427SOL    HW236093   9.823   5.164   0.997 -0.0475  0.2712 -1.9121
10428SOL     OW36094   1.368   7.762   8.156  0.6332 -0.4820  0.6974
10428SOL    HW136095   1.463   7.754   8.167  0.7769  2.5722  2.8691
10428SOL    HW236096   1.356   7.833   8.093 -0.2258 -0.6565  0.6453
10429SOL     OW36097   4.782   3.399   4.920 -0.2951  0.3384 -0.0888
10429SOL    HW136098   4.741   3.323   4.961  0.8371 -0.4027 -0.2789
10429SOL    HW236099   4.812   3.368   4.835  1.5089  0.5497  0.4248
10430SOL     OW36100   4.977   7.556   8.237 -0.0148 -0.7592  0.4036
10430SOL    HW136101   4.888   7.526   8.257  0.0633 -0.3533  1.4226
10430SOL    HW236102   5.022   7.555   8.322  0.6769 -0.0629  0.0533
10431SOL     OW36103  10.925   0.197   6.678 -0.9541 -0.4421 -0.0783
10431SOL    HW136104  10.969   0.234   6.755 -1.7117 -0.0199  0.1662
10431SOL    HW236105  10.993   0.147   6.634 -0.6271 -1.1236  1.1479
10432SOL     OW36106  11.929   3.705   4.237 -0.0009  0.3790 -0.4486
10432SOL    HW136107  11.995   3.636   4.239  2.1153  2.2272 -1.6485
10432SOL    HW236108  11.906   3.714   4.144 -2.0653 -0.2825 -0.0495
10433SOL     OW36109   0.258  10.433   7.619  0.1197 -0.3389 -0.4259
10433SOL    HW136110   0.344  10.472   7.634 -0.1376 -0.0202  0.2285
10433SOL    HW236111   0.228  10.472   7.537 -0.2112  0.9901  0.2967
10434SOL     OW36112   6.582  10.822   9.553  0.2276 -0.1597  0.1171
10434SOL    HW136113   6.667  10.866   9.548 -0.6403  1.6805  0.5877
10434SOL    HW236114   6.533  10.872   9.619 -1.0213 -1.5367  0.2899
10435SOL     OW36115   2.510   6.071   9.831 -0.1521  0.0220 -0.1745
10435SOL    HW136116   2.428   6.104   9.868 -0.5883 -1.5113  0.3240
10435SOL    HW236117   2.482   6.018   9.756  0.2371 -1.5746  0.7632
10436SOL     OW36118   2.226   9.135   1.842  0.1963 -0.0206 -0.4608
10436SOL    HW136119   2.152   9.099   1.794  1.0402 -1.0659 -1.0467
10436SOL    HW236120   2.302   9.089   1.805  1.1774  1.3270 -0.1945
10437SOL     OW36121   5.985   2.715   8.485  0.1106 -0.3338 -0.3882
10437SOL    HW136122   6.071   2.680   8.462  0.4110  0.5223 -0.6033
10437SOL    HW236123   5.992   2.737   8.578 -1.1363 -3.8853  0.7077
10438SOL     OW36124  11.632   6.008   7.378 -0.1933  0.3892 -0.3051
10438SOL    HW136125  11.589   6.078   7.329 -1.3797  1.9435  2.6923
10438SOL    HW236126  11.657   6.048   7.461 -0.9382 -2.7126  1.6073
10439SOL     OW36127   0.445   4.768   2.324 -0.5696 -0.4895 -0.2021
10439SOL    HW136128   0.540   4.773   2.339 -0.1264 -1.6596 -2.2110
10439SOL    HW236129   0.409   4.843   2.372  1.5119  0.7369 -0.4213
10440SOL     OW36130   3.078  11.979   3.863 -0.0646 -0.0608 -0.1742
10440SOL    HW136131   3.067  11.884   3.859 -0.1002 -0.0381 -0.6225
10440SOL    HW236132   3.008  12.008   3.922  0.6001 -0.4179  0.8233
10441SOL     OW36133   9.141   1.254   1.164 -0.1897 -0.3174 -0.3284
10441SOL    HW136134   9.107   1.344   1.166 -2.8396 -1.2460  1.1576
10441SOL    HW236135   9.233   1.264   1.137 -0.8400  2.6513 -1.9187
10442SOL     OW36136  10.620   8.810   6.773 -0.2587 -0.3460  0.4440
10442SOL    HW136137  10.690   8.872   6.793 -1.6359  0.9308  1.5462
10442SOL    HW236138  10.539   8.859   6.790 -1.4562 -1.5471 -1.4319
10443SOL     OW36139   6.635   3.561   7.099 -0.1769 -0.1009 -0.5984
10443SOL    HW136140   6.650   3.562   7.194 -0.7867  0.8300 -0.5000
10443SOL    HW236141   6.599   3.475   7.081 -0.3904 -0.1568  0.0719
10444SOL     OW36142   0.672   8.557   6.970  0.1018  0.1528  0.2107
10444SOL    HW136143   0.673   8.497   6.895 -1.6717  1.4407 -0.9283
10444SOL    HW236144   0.581   8.555   7.001  0.4358  0.8771  1.2879
10445SOL     OW36145   8.297  11.052  10.460 -0.4468 -0.0409 -0.2285
10445SOL    HW136146   8.242  11.076  10.535 -0.4384 -0.7691  0.0175
10445SOL    HW236147   8.387  11.067  10.490 -0.4923  1.1320 -0.6245
10446SOL     OW36148  12.374  12.034  11.115  0.2241  0.0512  0.0982
10446SOL    HW136149  12.316  12.048  11.189  1.4057 -0.8894  1.2515
10446SOL    HW236150  12.435  12.108  11.116  0.7306 -0.3664  0.5608
10447SOL     OW36151  10.145   5.313   1.343  0.1127 -0.0634  0.0848
10447SOL    HW136152  10.107   5.395   1.374  1.3848  0.5142  0.2072
10447SOL    HW236153  10.184   5.274   1.421 -0.3430 -0.7166 -0.0055
10448SOL     OW36154   1.952   1.853  11.791  0.1068 -0.1186  0.2644
10448SOL    HW136155   1.987   1.876  11.705  1.7638  2.7244  1.5651
10448SOL    HW236156   1.882   1.917  11.805 -0.0529 -0.4661  1.0894
10449SOL     OW36157   5.864   1.070  10.438 -0.3574  0.1174 -0.1837
10449SOL    HW136158   5.940   1.129  10.433 -0.3260  0.2095  1.0179
10449SOL    HW236159   5.809   1.094  10.364 -0.2440  1.5348  0.1746
10450SOL     OW36160   1.387   7.593   7.292 -0.7380  0.5080  0.4025
10450SOL    HW136161   1.342   7.620   7.372 -2.1157 -1.6112  0.4351
10450SOL    HW236162   1.347   7.509   7.269  1.6847 -0.4204 -0.8556
10451SOL     OW36163   8.216   6.056   1.831  0.0538 -0.1573 -0.2573
10451SOL    HW136164   8.252   6.113   1.763  2.2466 -1.2459 -0.0843
10451SOL    HW236165   8.204   5.972   1.788 -1.2104 -0.1601  0.0363
10452SOL     OW36166   9.305   0.538   8.875  0.0345  0.0778  0.3890
10452SOL    HW136167   9.294   0.568   8.785  0.6957  0.3999  0.4086
10452SOL    HW236168   9.380   0.478   8.871 -0.8975 -1.1217  0.4575
10453SOL     OW36169   0.964  12.552  11.102  0.0534 -0.5939  0.2963
10453SOL    HW136170   1.037  12.536  11.161 -0.9250  0.0529  1.7245
10453SOL    HW236171   0.889  12.568  11.159 -1.0099 -0.2767 -1.1228
10454SOL     OW36172   0.414   3.171   0.580 -0.0242  0.3961 -0.0120
10454SOL    HW136173   0.378   3.150   0.667 -0.3533 -1.0821 -0.4649
10454SOL    HW236174   0.363   3.246   0.550 -1.0395 -0.1101  0.3988
10455SOL     OW36175  11.062  11.244   1.164  0.1965  0.2229 -0.0105
10455SOL    HW136176  11.115  11.259   1.085 -0.7074  0.5905 -0.5628
10455SOL    HW236177  11.105  11.297   1.232  2.4458 -1.9651  0.4438
10456SOL     OW36178   1.844  11.635  11.949 -0.2828 -0.3863 -0.2823
10456SOL    HW136179   1.807  11.569  12.008 -1.2683  1.0619  0.7971
10456SOL    HW236180   1.774  11.699  11.939  1.4047  1.7278  0.6357
10457SOL     OW36181   7.787  11.325   1.171 -0.1151  0.4071 -0.0830
10457SOL    HW136182   7.837  11.402   1.199  1.8005 -0.2214 -1.5451
10457SOL    HW236183   7.851  11.271   1.126 -1.4548 -1.9861  0.7350
10458SOL     OW36184   4.487   3.031  10.853 -0.2945 -0.0954  0.0439
10458SOL    HW136185   4.412   3.077  10.891  0.6368  0.6888  1.0261
10458SOL    HW236186   4.551   3.028  10.924  0.3136 -1.4520 -0.5241
10459SOL     OW36187   0.416   7.222   0.970 -0.2841  0.5196 -0.1045
10459SOL    HW136188   0.480   7.174   0.918  1.0711  1.8253  0.2676
10459SOL    HW236189   0.370   7.155   1.021  2.2946 -0.3295  1.2564
10460SOL     OW36190   1.170   3.125  11.608 -0.4930 -0.1917  0.4088
10460SOL    HW136191   1.189   3.211  11.648 -2.9984  1.2001 -1.1293
10460SOL    HW236192   1.128   3.075  11.678 -1.3002  0.7967  0.6652
10461SOL     OW36193   1.448   6.961   0.484 -0.0719 -0.3337  0.2788
10461SOL    HW136194   1.377   7.009   0.441  1.5684  1.8366 -0.2260
10461SOL    HW236195   1.478   6.899   0.418 -1.1130 -0.8847  0.3017
10462SOL     OW36196   7.617   0.743   7.494 -0.2179 -0.2249 -0.1820
10462SOL    HW136197   7.685   0.737   7.561  0.2585  1.5400 -0.4480
10462SOL    HW236198   7.556   0.673   7.515  0.6065 -0.5356  1.3037
10463SOL     OW36199   3.359   2.182  11.205  0.3408  0.5165  0.2953
10463SOL    HW136200   3.320   2.269  11.203  1.3197  0.9959 -2.2928
10463SOL    HW236201   3.448   2.196  11.236 -0.0863  0.0917  1.8034
10464SOL     OW36202   3.300  10.483   0.825  0.3294  0.0278 -0.2884
10464SOL    HW136203   3.310  10.391   0.801 -2.6355 -0.3453 -0.5471
10464SOL    HW236204   3.250  10.521   0.753 -1.6626  0.8925  1.4296
10465SOL     OW36205   7.100   1.689   7.321 -0.1924  0.0104 -0.6808
10465SOL    HW136206   7.132   1.683   7.231  1.6662 -2.2452  0.0271
10465SOL    HW236207   7.165   1.642   7.372 -0.4153  2.4466  2.0989
10466SOL     OW36208   4.507   2.990   8.226 -0.4419  0.3218 -0.0032
10466SOL    HW136209   4.577   2.940   8.184 -0.8600  0.7240 -1.2199
10466SOL    HW236210   4.545   3.020   8.309 -0.0603 -1.6898  0.6166
10467SOL     OW36211  10.760   9.581   4.124 -0.0126  0.2578  0.1387
10467SOL    HW136212  10.746   9.674   4.142 -0.7761 -0.2453  2.5416
10467SOL    HW236213  10.697   9.559   4.056 -0.8702  1.2148  0.6034
10468SOL     OW36214  11.235  12.387   5.404  0.1682  0.2723 -0.2330
10468SOL    HW136215  11.322  12.421   5.386  0.2065  0.0094 -0.5621
10468SOL    HW236216  11.194  12.380   5.318 -0.0078 -0.0540 -0.1248
10469SOL     OW36217   8.965   0.104   0.398 -0.7327 -0.4387 -0.4462
10469SOL    HW136218   8.923   0.063   0.322 -0.7572 -0.2663 -0.5266
10469SOL    HW236219   9.047   0.140   0.363  0.7868 -2.9925  0.2106
10470SOL     OW36220  10.089  10.293   0.845 -0.2697 -0.0640 -0.7807
10470SOL    HW136221  10.035  10.354   0.795 -2.1846 -0.2193  0.9872
10470SOL    HW236222  10.103  10.219   0.786 -0.4361  0.7439 -1.8852
10471SOL     OW36223   4.467   1.309   9.370 -0.0281  0.2036  0.0672
10471SOL    HW136224   4.522   1.273   9.440  0.2795 -2.7439 -1.5154
10471SOL    HW236225   4.383   1.263   9.380 -0.7111  1.3361 -0.2511
10472SOL     OW36226   1.178   3.528   4.203 -0.3415  0.0540  0.4777
10472SOL    HW136227   1.138   3.609   4.236  0.1801  0.9229 -0.9120
10472SOL    HW236228   1.270   3.534   4.231 -0.3171 -0.0939  0.4291
10473SOL     OW36229   1.081   6.662  10.220 -0.3782 -0.3826 -0.2618
10473SOL    HW136230   0.998   6.709  10.217  0.1358  0.4719 -2.2439
10473SOL    HW236231   1.118   6.684  10.306 -1.2975  0.8003 -0.1533
10474SOL     OW36232   9.637   7.103   7.776 -0.0247  0.3050  0.3585
10474SOL    HW136233   9.621   7.055   7.695 -2.9862 -0.8157  1.4961
10474SOL    HW236234   9.561   7.086   7.831  0.4856  3.3978  2.2982
10475SOL     OW36235  10.799   2.582   1.393  0.4961 -0.0287 -0.1053
10475SOL    HW136236  10.789   2.562   1.486  0.8245 -0.6993 -0.2005
10475SOL    HW236237  10.885   2.545   1.371  0.7709  0.8258 -0.4936
10476SOL     OW36238   1.395  12.451   0.590  0.0718 -0.9856 -0.1086
10476SOL    HW136239   1.304  12.421   0.603 -0.7848  1.9804  1.6261
10476SOL    HW236240   1.438  12.432   0.674  0.4114 -0.2852 -0.1240
10477SOL     OW36241   2.712   0.163  10.186  0.6106  0.2982  0.0205
10477SOL    HW136242   2.687   0.224  10.256 -1.8448 -0.5185 -0.0349
10477SOL    HW236243   2.743   0.219  10.115  0.7297  1.3179  0.8522
10478SOL     OW36244   6.331  10.119   1.845  0.2684  0.7997  0.3454
10478SOL    HW136245   6.314  10.213   1.850  1.0194  0.9313  0.6037
10478SOL    HW236246   6.260  10.079   1.896 -0.9612  1.0986 -1.0604
10479SOL     OW36247   4.661  10.608   2.833 -0.1890  0.2487 -0.1434
10479SOL    HW136248   4.631  10.541   2.772 -1.8271  0.1748  0.6815
10479SOL    HW236249   4.671  10.562   2.916  1.5334  0.4493 -0.1872
10480SOL     OW36250   6.517   7.257   8.277  0.6803  0.1581 -0.3251
10480SOL    HW136251   6.480   7.194   8.216 -1.4346  1.6409 -0.6867
10480SOL    HW236252   6.471   7.339   8.258 -0.5467  0.5783  3.5824
10481SOL     OW36253   1.131   1.427   1.359 -0.3466  0.1191  0.1706
10481SOL    HW136254   1.180   1.345   1.369  0.9976  0.9898  1.2343
10481SOL    HW236255   1.193   1.487   1.317 -0.6248  1.1285  1.1465
10482SOL     OW36256   2.539   8.431  11.626  0.2381  0.5042  0.4669
10482SOL    HW136257   2.605   8.439  11.696 -0.1051  1.3457  0.7120
10482SOL    HW236258   2.586   8.390  11.554  0.2616 -1.6625  1.6336
10483SOL     OW36259   8.033   6.555  11.404  0.4315  0.0183  0.3962
10483SOL    HW136260   8.014   6.488  11.339  0.4210 -0.0541  0.4742
10483SOL    HW236261   8.003   6.518  11.487 -0.5310  0.5263  0.2926
10484SOL     OW36262   0.644   4.597   5.493 -0.1609  0.2978 -0.5975
10484SOL    HW136263   0.572   4.613   5.432 -0.1211 -0.6748 -0.9189
10484SOL    HW236264   0.601   4.573   5.575 -0.2055  0.8935 -0.4394
10485SOL     OW36265   8.820   2.176  11.440  0.2569  0.0640 -0.1090
10485SOL    HW136266   8.809   2.103  11.379  1.3466  0.0045 -0.2623
10485SOL    HW236267   8.731   2.201  11.464 -0.1864 -0.1355 -1.4561
10486SOL     OW36268   7.023   5.614   2.279 -0.5278 -0.5969  0.1354
10486SOL    HW136269   7.077   5.664   2.219  0.0418 -2.4624 -0.9949
10486SOL    HW236270   7.019   5.667   2.359 -0.7685  1.6304 -1.2991
10487SOL     OW36271   9.865  11.426   4.354 -0.4515  0.0953  0.1318
10487SOL    HW136272   9.853  11.519   4.372 -0.6899 -0.2886  2.2503
10487SOL    HW236273   9.776  11.391   4.347 -0.4138 -0.2558  1.1785
10488SOL     OW36274   0.890   6.304   8.727  0.4676  0.5147  0.4232
10488SOL    HW136275   0.844   6.316   8.644  1.5781  0.8166 -0.1629
10488SOL    HW236276   0.954   6.236   8.709  0.5024  0.3563  1.1274
10489SOL     OW36277   0.521   9.698  12.010  0.4333 -0.7788  0.4661
10489SOL    HW136278   0.454   9.658  12.066 -0.5835 -1.5151 -1.1852
10489SOL    HW236279   0.472   9.753  11.949  1.4283 -0.5350 -0.1357
10490SOL     OW36280   8.002  12.125   5.919 -0.4607  0.0095 -0.2655
10490SOL    HW136281   7.928  12.151   5.973 -0.1942 -1.3375  0.7984
10490SOL    HW236282   7.963  12.077   5.846 -0.7432  0.9773 -0.7797
10491SOL     OW36283  10.417  11.256  11.562 -0.0749  0.1596  0.4384
10491SOL    HW136284  10.486  11.304  11.609  1.1057 -0.6737 -0.3701
10491SOL    HW236285  10.339  11.266  11.616  1.2271 -0.7792  2.5999
10492SOL     OW36286   6.088   3.219   6.043  0.3810 -0.1099  0.0614
10492SOL    HW136287   6.073   3.261   6.128  0.8348  2.0151 -0.8408
10492SOL    HW236288   6.181   3.200   6.042  0.8546  1.9243 -0.7510
10493SOL     OW36289   3.678   5.439   6.733  0.0925  0.7100  0.7998
10493SOL    HW136290   3.727   5.386   6.670 -2.6003  0.0010 -0.8967
10493SOL    HW236291   3.679   5.387   6.813  0.8663  0.0364  0.3744
10494SOL     OW36292  12.245   6.540   6.039 -0.0961  0.3509 -0.1770
10494SOL    HW136293  12.178   6.517   5.974 -0.4063  0.0081  0.2570
10494SOL    HW236294  12.319   6.572   5.987  0.0740 -0.9343 -0.7662
10495SOL     OW36295  11.889   3.451   6.477  0.3859 -0.0906 -0.3519
10495SOL    HW136296  11.927   3.403   6.403  1.9912  4.0331 -2.5320
10495SOL    HW236297  11.812   3.494   6.441  0.1988  0.6636  0.8792
10496SOL     OW36298   3.668   7.609  10.682 -0.2684 -0.7680 -0.4761
10496SOL    HW136299   3.603   7.541  10.698  1.6316 -2.3706  0.9283
10496SOL    HW236300   3.670   7.661  10.762 -1.3340  0.6905 -1.3446
10497SOL     OW36301   4.989   0.294   4.042  0.7274  0.7428 -0.6116
10497SOL    HW136302   4.963   0.273   3.952 -0.5164 -2.6173  0.3869
10497SOL    HW236303   4.913   0.341   4.078  0.5629  0.6657 -0.8559
10498SOL     OW36304   5.922   2.057  11.783  0.4963  0.0928 -0.4233
10498SOL    HW136305   5.914   1.999  11.707  0.0953 -0.0989 -0.2433
10498SOL    HW236306   5.946   2.142  11.747  2.5860 -0.5188 -0.5759
10499SOL     OW36307   3.451  10.704   1.352 -0.1521 -0.4146 -0.3909
10499SOL    HW136308   3.545  10.686   1.349 -0.1417 -0.3910 -0.2065
10499SOL    HW236309   3.437  10.741   1.439 -0.2252  0.1536 -0.6385
10500SOL     OW36310   6.467   8.868   2.249 -0.6540 -0.0596 -0.5723
10500SOL    HW136311   6.435   8.837   2.164  0.2710 -1.0737 -0.5762
10500SOL    HW236312   6.561   8.880   2.237 -0.0250 -2.6039  0.9120
10501SOL     OW36313   1.638  12.377   1.084 -0.3537 -0.0663  0.2307
10501SOL    HW136314   1.648  12.459   1.131 -0.6211 -0.7382  1.5076
10501SOL    HW236315   1.727  12.340   1.080 -0.4909 -0.5166  1.1842
10502SOL     OW36316   4.713   2.010   7.190  0.4281  0.5553  0.1561
10502SOL    HW136317   4.633   2.034   7.237  1.3714  0.5600  1.8205
10502SOL    HW236318   4.773   1.979   7.258  2.1238  1.2976 -0.9266
10503SOL     OW36319   2.433   3.579   9.726  0.0563  0.2905  0.0814
10503SOL    HW136320   2.476   3.643   9.784 -0.8012  0.6947  0.2890
10503SOL    HW236321   2.429   3.499   9.778  0.7954  0.1618 -0.0413
10504SOL     OW36322   4.965   0.354   8.000  0.1240 -0.0866  0.2963
10504SOL    HW136323   4.894   0.331   7.939  1.0727  2.3926 -1.9669
10504SOL    HW236324   4.929   0.337   8.087 -2.7541 -0.1979 -0.8158
10505SOL     OW36325  10.631   6.231   0.821  0.2107  0.1375  0.6456
10505SOL    HW136326  10.542   6.233   0.854 -0.0504 -0.9413  0.0480
10505SOL    HW236327  10.678   6.297   0.873 -1.3269  2.0395 -0.2643
10506SOL     OW36328   8.305   4.550   0.616  0.5534 -0.7449 -0.2218
10506SOL    HW136329   8.279   4.538   0.525 -1.7469  0.6830  0.1635
10506SOL    HW236330   8.235   4.509   0.667  0.3899  0.8196  0.8859
10507SOL     OW36331   9.518  11.966   6.894 -0.0561  0.4392 -0.3756
10507SOL    HW136332   9.508  11.922   6.979  0.0024  0.2897 -0.4448
10507SOL    HW236333   9.469  11.910   6.834 -0.4146  0.7504 -0.3730
10508SOL     OW36334   1.626   3.857   4.600 -0.6801 -0.1225  0.5398
10508SOL    HW136335   1.560   3.801   4.561 -0.1200 -0.5451  0.1862
10508SOL    HW236336   1.697   3.797   4.625 -0.4633  0.3106  0.9870
10509SOL     OW36337  10.065   4.102  10.018 -0.3326  0.3940  0.1453
10509SOL    HW136338   9.977   4.117   9.984 -0.6797 -0.7082  0.4963
10509SOL    HW236339  10.123   4.119   9.943 -1.0317 -1.2413 -0.8328
10510SOL     OW36340   2.828   3.277   9.245 -0.2663 -0.4881  0.2547
10510SOL    HW136341   2.894   3.224   9.200  0.3558 -0.8119  1.5284
10510SOL    HW236342   2.756   3.282   9.182  0.9823 -0.0314 -1.2085
10511SOL     OW36343   1.347   8.891  10.642 -0.3088  0.4039 -0.3560
10511SOL    HW136344   1.256   8.874  10.616 -0.4231  0.9186 -0.3032
10511SOL    HW236345   1.343   8.906  10.736 -0.0696 -0.2142 -0.2395
10512SOL     OW36346   1.903  10.527   5.884  0.2163  0.3755  0.2862
10512SOL    HW136347   1.979  10.497   5.835 -0.6723 -0.7125 -0.4908
10512SOL    HW236348   1.900  10.471   5.961 -1.8861 -2.2812 -1.5460
10513SOL     OW36349   5.366   5.962   0.315 -0.2924  0.1728  0.1056
10513SOL    HW136350   5.298   6.028   0.323  1.5085  2.1474  0.0460
10513SOL    HW236351   5.348   5.900   0.386 -1.2434  1.5165  1.0762
10514SOL     OW36352   6.673   9.851   8.748  0.0096  0.2711  0.2707
10514SOL    HW136353   6.768   9.840   8.743 -0.0162  0.1265  0.0853
10514SOL    HW236354   6.640   9.767   8.778 -0.0976  0.1718 -0.1111
10515SOL     OW36355   8.064   3.547   5.065  0.4798  0.0232  0.1697
10515SOL    HW136356   8.108   3.530   4.982 -0.2607 -1.6162  0.0684
10515SOL    HW236357   8.134   3.550   5.129  1.0971  1.6807 -0.5205
10516SOL     OW36358   1.891  10.364  10.127 -0.1899 -0.3791 -0.1145
10516SOL    HW136359   1.956  10.364  10.057 -0.0194 -1.7170  0.0181
10516SOL    HW236360   1.930  10.417  10.196  1.5793 -2.5405  0.6464
10517SOL     OW36361  10.186   9.441   7.301  0.2724  0.3817 -0.5084
10517SOL    HW136362  10.244   9.367   7.284  0.5544  0.5191 -0.1304
10517SOL    HW236363  10.169   9.478   7.214  0.5399  0.1864 -0.6451
10518SOL     OW36364   5.690   7.135   7.515 -0.7498 -0.1331  0.8589
10518SOL    HW136365   5.695   7.120   7.609  0.6928 -1.5781  0.5931
10518SOL    HW236366   5.610   7.090   7.488 -1.6998  1.0978  1.4807
10519SOL     OW36367   0.855   0.617   7.475 -0.0455 -0.0420 -0.4724
10519SOL    HW136368   0.880   0.527   7.454  1.6349  0.7038 -1.9382
10519SOL    HW236369   0.831   0.614   7.568 -0.8877 -2.1437 -0.6886
10520SOL     OW36370  11.770  11.317   7.454 -0.2022 -0.0468  0.3700
10520SOL    HW136371  11.813  11.400   7.474  1.5173 -1.1914  1.7421
10520SOL    HW236372  11.781  11.265   7.534 -2.4730 -1.1267  0.0667
10521SOL     OW36373   2.893  12.152  10.903  0.4634  0.0984  0.7806
10521SOL    HW136374   2.822  12.125  10.962  0.9319  0.9692  1.7656
10521SOL    HW236375   2.891  12.247  10.905  0.5866  0.1455 -0.5280
10522SOL     OW36376   2.381   8.937   0.367 -0.0122 -0.7748 -0.0299
10522SOL    HW136377   2.311   8.968   0.425  0.9764  0.4381  0.5773
10522SOL    HW236378   2.419   8.861   0.412  0.0939 -0.4499  0.4346
10523SOL     OW36379   1.431   2.976   1.047 -0.0264 -0.0560  0.5096
10523SOL    HW136380   1.494   2.923   0.999 -1.5302  0.2239 -1.8963
10523SOL    HW236381   1.346   2.934   1.031 -0.5476 -0.7895  4.1425
10524SOL     OW36382   7.054   5.834   4.278  0.1160 -0.3765 -0.1176
10524SOL    HW136383   7.115   5.907   4.276  1.1499 -1.1839  0.6141
10524SOL    HW236384   7.076   5.781   4.202 -0.4413 -0.0830 -0.4889
10525SOL     OW36385   2.986  12.616   0.207 -0.6281  0.6981  0.0612
10525SOL    HW136386   2.975  12.582   0.296 -0.0651  1.6034  0.4961
10525SOL    HW236387   2.912  12.580   0.158 -1.2645  0.6282  1.0388
10526SOL     OW36388   5.959  10.897   5.815  0.4497  0.1368 -0.4289
10526SOL    HW136389   5.996  10.966   5.870 -0.9187  0.3397  0.2703
10526SOL    HW236390   5.895  10.943   5.760  0.1819 -0.4376 -0.5991
10527SOL     OW36391   1.510  10.567   8.224  0.3040 -0.6769 -0.1844
10527SOL    HW136392   1.428  10.555   8.176 -0.7981  0.4289  1.3446
10527SOL    HW236393   1.577  10.572   8.156 -1.2054  0.9714 -1.6445
10528SOL     OW36394   6.912   3.822   0.446 -0.5178  0.4461  0.2641
10528SOL    HW136395   6.993   3.874   0.445 -0.2666  0.1131 -2.1649
10528SOL    HW236396   6.928   3.754   0.511 -0.4308  2.6509  2.7183
10529SOL     OW36397   8.463   5.825   7.533  0.2352 -0.1530  0.1596
10529SOL    HW136398   8.480   5.793   7.622  1.1316 -0.5609 -0.1435
10529SOL    HW236399   8.372   5.856   7.535  0.2522 -0.1516  1.2145
10530SOL     OW36400   9.972   8.438   7.477 -0.6495 -0.0336  0.0562
10530SOL    HW136401  10.005   8.391   7.400  0.1669  0.2538  0.2265
10530SOL    HW236402   9.890   8.394   7.498 -0.5121 -0.5890 -0.5391
10531SOL     OW36403   9.141  10.216   2.021  0.2954 -0.0382 -0.2898
10531SOL    HW136404   9.116  10.304   1.992 -0.2749 -0.0275  0.2025
10531SOL    HW236405   9.137  10.163   1.942  0.1878  0.2857 -0.5048
10532SOL     OW36406  11.528   9.430   8.297 -0.8137  0.0655  0.0047
10532SOL    HW136407  11.612   9.385   8.309 -0.6600  0.6671  1.2770
10532SOL    HW236408  11.491   9.437   8.384 -0.5883  2.8285 -0.0296
10533SOL     OW36409   7.743   0.034   8.525 -0.4866  0.2790 -0.3818
10533SOL    HW136410   7.790  -0.048   8.511 -0.2643 -0.1169  2.2007
10533SOL    HW236411   7.811   0.100   8.535 -0.5614  0.2993  0.0426
10534SOL     OW36412   2.512  10.713   5.654 -0.2158 -0.0954  0.2338
10534SOL    HW136413   2.534  10.803   5.675 -1.9572  0.4600 -0.1592
10534SOL    HW236414   2.438  10.719   5.593  0.1435 -1.7698 -0.4413
10535SOL     OW36415  10.087   4.793   0.048 -0.1775  0.0709 -0.4421
10535SOL    HW136416  10.143   4.758  -0.021  1.7538  0.6208  0.7537
10535SOL    HW236417  10.094   4.729   0.119 -0.4022  0.5464  0.0175
10536SOL     OW36418   3.632   5.081   1.313  0.2888  0.3577  0.1120
10536SOL    HW136419   3.640   5.174   1.296  0.8147  0.8778  2.7816
10536SOL    HW236420   3.647   5.039   1.228  0.5718  2.6551 -1.0318
10537SOL     OW36421   4.062   5.652   1.560 -0.3657  0.0316 -0.3001
10537SOL    HW136422   3.972   5.681   1.575 -0.1709  1.0140 -0.9380
10537SOL    HW236423   4.081   5.678   1.470  0.9291  0.8379  0.1839
10538SOL     OW36424   9.649   6.888   5.115 -0.1280  0.1001  0.4414
10538SOL    HW136425   9.594   6.839   5.177  0.2549 -1.3615 -0.3068
10538SOL    HW236426   9.588   6.920   5.049 -0.2071 -0.8376  0.0402
10539SOL     OW36427   7.409   7.397   8.013  0.0947 -0.5035 -0.3419
10539SOL    HW136428   7.388   7.375   8.104  0.9211 -1.3437 -0.3476
10539SOL    HW236429   7.489   7.349   7.994  0.5953  0.5930 -1.1495
10540SOL     OW36430  11.425   2.387  11.148 -0.3066 -0.0183  0.0714
10540SOL    HW136431  11.424   2.309  11.093 -1.8899  0.2393 -0.2889
10540SOL    HW236432  11.445   2.459  11.088  1.1336 -0.0982  0.3998
10541SOL     OW36433   2.563   7.336  10.871  0.2663  0.2778 -0.1085
10541SOL    HW136434   2.533   7.283  10.797 -1.8796  1.4146 -0.1073
10541SOL    HW236435   2.645   7.375  10.840  1.4068 -2.1926 -0.4540
10542SOL     OW36436   0.942   7.826   7.068 -0.3675  0.4490  0.1472
10542SOL    HW136437   1.008   7.798   7.132  0.1705  1.8170  0.2335
10542SOL    HW236438   0.899   7.746   7.040  0.3829 -0.3187  1.1546
10543SOL     OW36439  12.358  10.874   2.682  0.3131 -0.4124  0.5438
10543SOL    HW136440  12.373  10.967   2.665 -0.3543 -0.4286 -0.1508
10543SOL    HW236441  12.265  10.860   2.665 -0.1634 -0.7228  2.9820
10544SOL     OW36442   1.460   1.643   3.184  0.1521  0.1199 -0.3236
10544SOL    HW136443   1.398   1.682   3.121  0.0511  0.9795  0.2781
10544SOL    HW236444   1.541   1.633   3.134 -0.6474 -1.7271 -1.3447
10545SOL     OW36445  12.285  10.952   0.388 -0.5258 -0.1050 -0.8998
10545SOL    HW136446  12.250  10.959   0.299 -1.0786  0.8775 -0.6184
10545SOL    HW236447  12.292  10.857   0.403 -2.1946 -0.3259 -1.3164
10546SOL     OW36448  11.400   0.563   9.480  0.6834  0.5497 -0.0708
10546SOL    HW136449  11.454   0.514   9.418 -2.5128 -0.3536 -2.4164
10546SOL    HW236450  11.376   0.499   9.547  1.1101  0.4816  0.0198
10547SOL     OW36451  11.577  10.095   6.477 -0.6033 -0.0845 -0.5420
10547SOL    HW136452  11.570  10.185   6.510 -0.8715 -0.1657 -0.3771
10547SOL    HW236453  11.567  10.040   6.555  1.6404 -0.2303 -0.2896
10548SOL     OW36454  12.312  10.468  10.899 -0.1483 -0.1546 -0.4813
10548SOL    HW136455  12.310  10.374  10.879  1.6572  0.1087 -2.1845
10548SOL    HW236456  12.226  10.500  10.871 -0.8007 -1.2913  0.1678
10549SOL     OW36457  12.483   3.106   8.941  0.0597  0.2506  0.1440
10549SOL    HW136458  12.434   3.186   8.959  0.1027  0.3821 -0.2941
10549SOL    HW236459  12.444   3.072   8.861 -0.1442 -0.3240  0.4866
10550SOL     OW36460  11.067   1.124  12.340 -0.0298  0.1944  0.9850
10550SOL    HW136461  10.979   1.087  12.348  0.5657 -1.7387 -0.4044
10550SOL    HW236462  11.123   1.064  12.390  0.5793  1.1608  1.4990
10551SOL     OW36463  12.118   5.717   6.427 -0.4200  0.8178 -0.3840
10551SOL    HW136464  12.078   5.666   6.497 -0.3458 -0.3376 -1.1412
10551SOL    HW236465  12.046   5.766   6.389 -0.8810 -0.1655 -0.8261
10552SOL     OW36466   7.513   5.913   8.519 -0.1103  0.2572  0.7147
10552SOL    HW136467   7.512   5.945   8.609  1.7993  1.7957  0.2634
10552SOL    HW236468   7.596   5.866   8.511 -0.0966  0.4397 -0.3425
10553SOL     OW36469   6.363   2.907   7.678 -0.1559  0.1645  0.5140
10553SOL    HW136470   6.271   2.922   7.656 -0.0133 -1.9084 -1.9989
10553SOL    HW236471   6.360   2.845   7.752 -0.7523  0.6156  0.8750
10554SOL     OW36472   9.784   9.274   7.385  0.1490  0.0347  0.7377
10554SOL    HW136473   9.696   9.271   7.349 -0.0739 -0.8570  1.3318
10554SOL    HW236474   9.802   9.185   7.414  1.8397 -0.1628 -0.7467
10555SOL     OW36475   7.635   1.426   5.259 -0.0675  0.0520 -0.3604
10555SOL    HW136476   7.565   1.369   5.227  0.3022  0.2907 -1.6785
10555SOL    HW236477   7.671   1.380   5.335 -1.3650 -0.2750  0.0820
10556SOL     OW36478  12.037   7.958   8.943  0.5511 -0.1236 -0.0751
10556SOL    HW136479  11.956   7.920   8.977  0.0557 -0.0250 -1.1123
10556SOL    HW236480  12.105   7.925   9.001 -0.3858  0.9997  1.7812
10557SOL     OW36481   1.991   8.075   3.024 -0.4402 -0.1151  0.0340
10557SOL    HW136482   2.060   8.111   3.079 -0.0653  1.0472 -1.1276
10557SOL    HW236483   2.032   8.066   2.937 -1.6904  0.4481 -0.6432
10558SOL     OW36484   1.374   7.927   9.898  0.0477  0.3505  0.7795
10558SOL    HW136485   1.403   7.836   9.890 -0.4027  0.3339 -1.1672
10558SOL    HW236486   1.437   7.977   9.845 -1.0648  0.8359 -0.1262
10559SOL     OW36487   8.725   3.413   0.175  0.2347 -0.5585  0.8329
10559SOL    HW136488   8.778   3.444   0.248  1.1590  2.0407 -0.7949
10559SOL    HW236489   8.787   3.364   0.120  0.3124  0.1225  0.2986
10560SOL     OW36490  12.268  12.574   4.643 -0.3535 -0.3738  0.5914
10560SOL    HW136491  12.300  12.526   4.719 -1.0040  0.4093  1.3738
10560SOL    HW236492  12.345  12.582   4.586  0.0441 -1.3097  0.9772
10561SOL     OW36493   5.445   5.802  11.516  0.0982 -0.2783 -0.2755
10561SOL    HW136494   5.441   5.855  11.596  1.1823 -0.5154 -0.0488
10561SOL    HW236495   5.370   5.831  11.464 -0.4159  0.1312  0.6694
10562SOL     OW36496   9.660   2.203   5.010 -0.4698 -0.0544 -0.1573
10562SOL    HW136497   9.714   2.132   4.975 -0.2928  0.1409 -0.2814
10562SOL    HW236498   9.712   2.239   5.081 -0.1657  0.5357 -0.6755
10563SOL     OW36499   8.692   2.273   7.550  0.2310 -0.3599 -0.4855
10563SOL    HW136500   8.687   2.323   7.468 -0.9742  0.7154  0.2072
10563SOL    HW236501   8.611   2.221   7.551  1.1533 -1.8737 -0.8785
10564SOL     OW36502   8.488   7.352  11.794  0.0973 -0.2968  0.5289
10564SOL    HW136503   8.553   7.423  11.796  0.3995 -0.5441 -0.2798
10564SOL    HW236504   8.537   7.273  11.816  0.3152 -0.6544 -1.1506
10565SOL     OW36505  12.637  11.562   1.719  0.1386  0.1248  0.3666
10565SOL    HW136506  12.640  11.642   1.667 -0.0494 -0.7769 -1.0854
10565SOL    HW236507  12.692  11.581   1.795  0.6622  1.3944 -0.2924
10566SOL     OW36508   1.403   3.182   8.932 -0.3296  0.4372 -0.4267
10566SOL    HW136509   1.379   3.232   8.854 -0.8255 -1.3007 -1.4355
10566SOL    HW236510   1.396   3.091   8.905  0.2568 -0.1998  1.4425
10567SOL     OW36511  10.510   3.744  10.418 -0.4819  0.3229  0.0321
10567SOL    HW136512  10.587   3.706  10.376  0.0455  1.8723 -0.4647
10567SOL    HW236513  10.467   3.670  10.461  1.6763 -0.4812  0.9582
10568SOL     OW36514  10.343   3.241   2.180 -0.0113 -0.4801 -0.1422
10568SOL    HW136515  10.348   3.274   2.269  1.6917 -1.0615  0.0144
10568SOL    HW236516  10.302   3.155   2.188  2.2650 -1.5983  0.4647
10569SOL     OW36517   4.106  11.113   7.816 -0.2813  0.0233 -0.2674
10569SOL    HW136518   4.089  11.098   7.723  0.5769 -0.4116 -0.3608
10569SOL    HW236519   4.139  11.029   7.848 -0.9445  0.0562  0.5210
10570SOL     OW36520   8.822   5.418   7.612 -0.2418 -0.5690  0.2018
10570SOL    HW136521   8.877   5.497   7.607 -0.4605 -0.2508  2.0119
10570SOL    HW236522   8.805   5.395   7.521 -0.2466  1.5472 -0.3915
10571SOL     OW36523   1.801   1.673   2.351 -0.3954 -0.2682 -0.1807
10571SOL    HW136524   1.860   1.652   2.279  0.1953  2.6321 -0.6940
10571SOL    HW236525   1.758   1.590   2.373  0.9959 -1.6735 -2.3947
10572SOL     OW36526   4.950   5.107   3.807 -0.2966  0.2120  0.2625
10572SOL    HW136527   5.037   5.074   3.830 -0.6719  0.5321  2.3297
10572SOL    HW236528   4.935   5.179   3.867 -1.3430  1.2449 -1.1730
10573SOL     OW36529   9.669   6.953   2.177 -0.4607  0.4716  0.1159
10573SOL    HW136530   9.614   7.000   2.115 -1.1940  0.2829  0.6176
10573SOL    HW236531   9.609   6.896   2.224 -0.0031  0.9541  1.3340
10574SOL     OW36532  11.641   8.440  11.808 -0.1478 -0.3226  0.2681
10574SOL    HW136533  11.601   8.520  11.774 -1.0309 -0.8485  0.0659
10574SOL    HW236534  11.695   8.407  11.736 -1.0670 -0.7838 -0.2192
10575SOL     OW36535   3.194  11.153  12.376  1.1259  0.2243 -0.5045
10575SOL    HW136536   3.184  11.188  12.465 -1.3565 -1.9149  0.1822
10575SOL    HW236537   3.211  11.060  12.389 -1.6438 -0.6355 -2.1740
10576SOL     OW36538   2.252   4.004   0.153 -0.1760  0.1448  0.0766
10576SOL    HW136539   2.186   3.999   0.084  0.3521  0.3610 -0.4521
10576SOL    HW236540   2.269   4.098   0.163  3.7582  0.0865 -3.4395
10577SOL     OW36541   7.828   5.965   2.787 -0.1550  0.0781 -0.4106
10577SOL    HW136542   7.825   6.056   2.817  0.3056 -0.0774  0.1155
10577SOL    HW236543   7.793   5.915   2.861  1.8908 -0.4040  0.2797
10578SOL     OW36544   2.478   2.535   6.374 -0.2128 -0.1641  0.1330
10578SOL    HW136545   2.484   2.463   6.312  0.1209 -0.2935  0.3110
10578SOL    HW236546   2.549   2.519   6.437 -0.9211 -0.3773  0.8995
10579SOL     OW36547   4.524  12.170   5.483 -0.0245  0.1026  0.5670
10579SOL    HW136548   4.534  12.076   5.469  1.4826  0.5934 -2.2892
10579SOL    HW236549   4.455  12.197   5.423  1.4815  1.1879 -0.7780
10580SOL     OW36550  10.236   6.549   5.122 -0.8174 -0.2781  0.1964
10580SOL    HW136551  10.287   6.577   5.198 -1.3671 -1.1199  0.8960
10580SOL    HW236552  10.166   6.614   5.114 -2.8694 -1.9757  2.5981
10581SOL     OW36553  11.293   0.658   8.299  0.4838 -0.1301 -0.8496
10581SOL    HW136554  11.227   0.724   8.275  0.9954  0.0545 -1.8126
10581SOL    HW236555  11.364   0.708   8.338 -1.2134 -0.6061  3.2836
10582SOL     OW36556   8.391   1.165  12.583 -0.3134 -0.6233  0.2512
10582SOL    HW136557   8.426   1.125  12.663 -0.1753 -0.9576  0.0276
10582SOL    HW236558   8.342   1.241  12.613  0.9844  0.1234  0.5566
10583SOL     OW36559   8.120   1.796   1.438  0.2397 -0.0320 -0.3654
10583SOL    HW136560   8.028   1.820   1.433 -0.2819 -1.4499  1.1917
10583SOL    HW236561   8.159   1.861   1.496 -0.2078 -0.4171  0.3926
10584SOL     OW36562   8.157   7.190   7.423  0.0521  0.4489 -0.2747
10584SOL    HW136563   8.234   7.153   7.466 -1.3306 -0.6400  1.4011
10584SOL    HW236564   8.090   7.192   7.491 -1.3360  1.6459 -1.5934
10585SOL     OW36565   2.987   6.285  11.151 -0.2162 -0.1107  0.1674
10585SOL    HW136566   3.049   6.357  11.140 -0.8226  0.4859  0.5811
10585SOL    HW236567   2.988   6.240  11.067 -1.1456  1.4630 -0.7410
10586SOL     OW36568   7.599   9.104   6.447 -0.3463  0.3384 -0.0447
10586SOL    HW136569   7.676   9.129   6.499 -1.3067  1.3456  0.9491
10586SOL    HW236570   7.555   9.187   6.429 -2.2042 -0.3488  1.0313
10587SOL     OW36571   1.959   6.457   4.946 -0.3127 -0.2442  0.0226
10587SOL    HW136572   2.035   6.399   4.952 -1.0376 -1.1736  0.3976
10587SOL    HW236573   1.972   6.522   5.015  1.7889  1.6591 -1.9655
10588SOL     OW36574  10.930  12.443   5.970 -0.0825 -0.5573  0.5228
10588SOL    HW136575  10.919  12.417   5.879  0.8507  0.7167  0.0195
10588SOL    HW236576  10.843  12.472   5.998 -0.3702 -0.9507  0.0391
10589SOL     OW36577   7.789   2.499   0.423  0.6596 -0.2076  0.1401
10589SOL    HW136578   7.758   2.577   0.468  2.2708  0.0704  0.8496
10589SOL    HW236579   7.865   2.471   0.474  0.6331 -1.7446 -0.5973
10590SOL     OW36580   0.353   5.822  10.936  0.2008  0.2809  0.2342
10590SOL    HW136581   0.317   5.864  10.858  0.0460  1.1703  0.7722
10590SOL    HW236582   0.375   5.895  10.995  0.6261 -0.3593  0.8849
10591SOL     OW36583   3.609   3.838   4.972 -0.2083  0.0261  0.8056
10591SOL    HW136584   3.626   3.755   5.016 -0.6825  0.0168  0.9741
10591SOL    HW236585   3.587   3.814   4.882 -0.6455 -0.0583  0.9309
10592SOL     OW36586   6.847   5.052   2.753 -0.0905 -0.0159  0.3995
10592SOL    HW136587   6.867   5.111   2.825 -0.0396 -0.6729  0.9281
10592SOL    HW236588   6.800   5.107   2.690  0.6069  0.7644  0.5431
10593SOL     OW36589   7.283   0.607  12.449 -0.1474  0.4897 -0.0852
10593SOL    HW136590   7.251   0.683  12.401 -1.1377 -0.7060 -1.4116
10593SOL    HW236591   7.278   0.535  12.386 -0.9751 -1.0529  1.6241
10594SOL     OW36592   5.363   2.777  11.812 -0.4594  0.1304 -0.6577
10594SOL    HW136593   5.432   2.831  11.848 -1.0495  0.4602  0.0039
10594SOL    HW236594   5.282   2.822  11.835 -0.9045 -0.2309 -1.4379
10595SOL     OW36595   3.956   1.374   5.550 -0.0986  0.5365  0.1075
10595SOL    HW136596   4.003   1.347   5.471 -1.0378  0.5643 -0.4822
10595SOL    HW236597   3.878   1.318   5.552  0.2127  0.0997  1.3668
10596SOL     OW36598   8.631   5.078   0.641 -0.0240  0.2612  0.3259
10596SOL    HW136599   8.565   5.009   0.632  0.7355 -0.4311 -0.1939
10596SOL    HW236600   8.715   5.030   0.637  0.5973  1.3801 -2.0399
10597SOL     OW36601   3.563   8.007  12.213  0.0218  0.0216  0.5192
10597SOL    HW136602   3.511   7.938  12.172 -0.7468  1.3369 -0.7897
10597SOL    HW236603   3.529   8.089  12.177  0.0257  1.2140  2.9914
10598SOL     OW36604   1.122  10.094   9.735  0.9215  0.2752  0.6316
10598SOL    HW136605   1.105  10.039   9.812  1.9999 -0.9074  0.0615
10598SOL    HW236606   1.055  10.162   9.739 -2.1219 -2.4158  0.0877
10599SOL     OW36607  12.223   7.879  12.258  0.1899 -0.3360 -0.4075
10599SOL    HW136608  12.259   7.839  12.179 -1.6967  1.6441 -2.3885
10599SOL    HW236609  12.134   7.845  12.264 -0.6605  1.6528 -0.8371
10600SOL     OW36610   4.524   0.627   1.601  0.0935  0.2027  0.1031
10600SOL    HW136611   4.443   0.619   1.651 -1.9107  0.8832 -2.8379
10600SOL    HW236612   4.541   0.722   1.598 -0.1230  0.2211 -0.9015
10601SOL     OW36613   6.431   3.941  10.492  0.6361 -0.0144 -0.4278
10601SOL    HW136614   6.493   3.951  10.420  1.7099  1.0036  0.5960
10601SOL    HW236615   6.350   3.980  10.459  1.2357  0.8323 -0.9528
10602SOL     OW36616  11.538  12.602  12.168  0.1645  0.2564  0.4001
10602SOL    HW136617  11.600  12.534  12.195  0.0011  0.2590  0.7863
10602SOL    HW236618  11.593  12.678  12.150  0.2470  0.3531  1.0444
10603SOL     OW36619   6.877   6.656   2.154 -0.1594 -0.1276  0.0592
10603SOL    HW136620   6.791   6.615   2.145 -1.0534  1.8151 -0.7081
10603SOL    HW236621   6.882   6.682   2.246 -0.3780 -0.2859  0.1165
10604SOL     OW36622   7.268   8.592  10.151 -0.1109 -0.0169  0.3217
10604SOL    HW136623   7.175   8.612  10.149 -0.1330 -0.0858  0.7237
10604SOL    HW236624   7.299   8.625  10.235  0.0683 -0.6845  0.5304
10605SOL     OW36625  12.362   6.255   8.901  0.1950  0.8363  0.8765
10605SOL    HW136626  12.368   6.329   8.842  0.6302 -0.5678 -0.9440
10605SOL    HW236627  12.453   6.228   8.915 -0.0104 -0.7520 -0.4436
10606SOL     OW36628   9.569   8.176   6.196  0.2654 -0.6119 -0.0229
10606SOL    HW136629   9.477   8.190   6.175 -0.0005 -0.3567  1.2246
10606SOL    HW236630   9.609   8.263   6.188  0.0653 -0.4217  0.9320
10607SOL     OW36631   8.317   5.166   2.768 -0.3854  0.4828  0.8367
10607SOL    HW136632   8.256   5.233   2.737 -1.0427 -1.9325 -4.1461
10607SOL    HW236633   8.401   5.190   2.730 -0.2493 -0.6221  0.4173
10608SOL     OW36634  12.558   7.618   4.663  0.0736 -0.0589 -0.1789
10608SOL    HW136635  12.494   7.547   4.667  0.8051 -0.7736  4.5109
10608SOL    HW236636  12.637   7.577   4.627  0.3929 -1.7627  2.1776
10609SOL     OW36637   4.551   2.003   7.660  0.0889 -1.0475 -0.0161
10609SOL    HW136638   4.635   1.984   7.618 -0.7767 -1.6237 -1.6053
10609SOL    HW236639   4.499   1.924   7.643 -1.7582  0.4529 -1.7841
10610SOL     OW36640   2.108  11.798  11.010  0.1545  0.1520  0.0418
10610SOL    HW136641   2.078  11.787  10.920  1.1594 -0.0011 -0.2952
10610SOL    HW236642   2.157  11.718  11.029  0.8710  0.6505  0.3377
10611SOL     OW36643   1.127   9.636   0.111 -0.5454 -0.2343  0.2978
10611SOL    HW136644   1.137   9.662   0.203  0.1815 -2.1070  0.7981
10611SOL    HW236645   1.036   9.657   0.090 -0.4880  1.0237  1.1586
10612SOL     OW36646   4.283   3.434   5.332  0.2974 -0.0695  0.0041
10612SOL    HW136647   4.203   3.472   5.296  0.3380 -0.6470 -0.7416
10612SOL    HW236648   4.255   3.388   5.411  0.0970  0.6961  0.3894
10613SOL     OW36649   6.530   0.398   3.617  0.0968  0.5225  0.1772
10613SOL    HW136650   6.438   0.373   3.617 -0.2334  1.6397  1.2890
10613SOL    HW236651   6.551   0.415   3.525 -0.9569  0.7760 -0.0237
10614SOL     OW36652  11.407  12.492   7.707  0.4138 -0.3454 -0.4045
10614SOL    HW136653  11.369  12.548   7.640 -0.9316 -1.6074 -0.7385
10614SOL    HW236654  11.332  12.450   7.749  1.1743  0.7338  2.2355
10615SOL     OW36655   6.552   2.526   4.865  0.2320  0.2315 -0.1666
10615SOL    HW136656   6.571   2.490   4.778 -0.1529  2.0099 -1.0360
10615SOL    HW236657   6.539   2.619   4.850 -1.4684  0.3388  1.5645
10616SOL     OW36658   9.973   3.219   5.517  0.7175 -0.4203  0.2870
10616SOL    HW136659  10.060   3.248   5.544  0.5665  0.2507  0.0521
10616SOL    HW236660   9.927   3.299   5.492  0.2692 -0.8459 -0.2750
10617SOL     OW36661   1.505   9.115   5.435 -0.4163 -0.4403 -0.2093
10617SOL    HW136662   1.502   9.210   5.437 -3.0910 -0.4524 -0.9621
10617SOL    HW236663   1.467   9.088   5.519  0.1881 -0.8592 -0.0614
10618SOL     OW36664   9.437   8.764   1.385  0.2232 -0.5839  0.4106
10618SOL    HW136665   9.369   8.830   1.402  0.1307 -1.0364  2.0019
10618SOL    HW236666   9.515   8.799   1.428  0.6223 -0.7520 -0.1630
10619SOL     OW36667  11.177   4.690   2.374  0.4631  0.1693 -0.2655
10619SOL    HW136668  11.192   4.649   2.289 -1.3762 -0.3830 -0.3646
10619SOL    HW236669  11.226   4.635   2.436  2.5871  1.1166 -1.0161
10620SOL     OW36670   4.286   4.744  11.756  0.2489  0.5619  0.1669
10620SOL    HW136671   4.246   4.730  11.841 -0.7217  0.8237 -0.2340
10620SOL    HW236672   4.250   4.827  11.726 -1.9071 -0.9654 -1.8502
10621SOL     OW36673   9.944  10.911   8.508 -0.2123 -0.2705 -0.1727
10621SOL    HW136674   9.920  10.827   8.470 -1.1759 -1.1102  2.0754
10621SOL    HW236675   9.986  10.889   8.591  1.8342  1.4410 -0.6573
10622SOL     OW36676  10.988  11.110   8.995  0.5113 -0.3162 -0.1823
10622SOL    HW136677  11.069  11.104   8.945  0.0154  0.1027 -1.0504
10622SOL    HW236678  10.962  11.019   9.009  2.1217 -0.5514  1.7942
10623SOL     OW36679   2.456   0.554  10.043 -0.3881  0.0057  0.4376
10623SOL    HW136680   2.361   0.554  10.035 -0.3747  0.7641  0.1679
10623SOL    HW236681   2.487   0.581   9.956  0.0208  1.0210  0.8833
10624SOL     OW36682   1.702   5.485   2.439  0.1789  0.1147  0.2110
10624SOL    HW136683   1.665   5.458   2.355  1.4247 -1.6135  0.1644
10624SOL    HW236684   1.746   5.569   2.420  0.1480 -0.0795 -0.7817
10625SOL     OW36685   1.339   8.346   7.051 -0.5175  0.5507  0.4137
10625SOL    HW136686   1.425   8.349   7.094  0.0376  0.2463 -0.6300
10625SOL    HW236687   1.319   8.253   7.046  1.1378  0.2151 -3.1401
10626SOL     OW36688  10.468   2.414   3.172 -0.4911  0.1564 -0.0767
10626SOL    HW136689  10.403   2.441   3.107  0.9569  2.4071 -0.7062
10626SOL    HW236690  10.426   2.433   3.257 -0.7181  1.5429 -0.4673
10627SOL     OW36691   9.508   2.562   5.040  0.4909  0.4898  0.3342
10627SOL    HW136692   9.467   2.648   5.051  2.7471  1.5650  0.7149
10627SOL    HW236693   9.468   2.508   5.108  0.9385  1.9740  1.8216
10628SOL     OW36694   0.662   4.156   7.372  0.0296  0.3022 -0.8296
10628SOL    HW136695   0.591   4.096   7.394  1.6565 -1.2837  0.4561
10628SOL    HW236696   0.638   4.192   7.287 -1.7003 -1.1289 -1.0034
10629SOL     OW36697   3.914   7.364   3.660  0.1816 -0.3038  0.0688
10629SOL    HW136698   3.974   7.339   3.730  0.0512 -0.5330  0.1035
10629SOL    HW236699   3.970   7.400   3.591  0.2924  0.0755  0.3588
10630SOL     OW36700   8.266   6.315   2.691 -0.1551 -0.6901 -0.0636
10630SOL    HW136701   8.244   6.321   2.783 -0.0895 -0.5186 -0.0581
10630SOL    HW236702   8.219   6.238   2.659 -0.4450 -0.5548  0.0354
10631SOL     OW36703   4.122   2.214   5.644 -0.1307 -0.1901 -0.1211
10631SOL    HW136704   4.106   2.308   5.644 -0.8360 -0.3084 -0.2080
10631SOL    HW236705   4.144   2.194   5.736 -0.3802 -0.0109 -0.0227
10632SOL     OW36706  12.244   3.983   4.528 -0.3581  0.1005 -0.3785
10632SOL    HW136707  12.202   3.906   4.492 -0.4330 -0.2742  0.4814
10632SOL    HW236708  12.184   4.013   4.597 -0.5204  1.1524 -0.9558
10633SOL     OW36709   0.516   0.640   9.499  0.5159 -0.2011  0.2769
10633SOL    HW136710   0.455   0.639   9.425  0.4934 -0.4175  0.2956
10633SOL    HW236711   0.598   0.673   9.462  1.2632 -2.6544 -0.4692
10634SOL     OW36712   9.132  11.180   2.787 -0.0465  0.4582  0.7867
10634SOL    HW136713   9.140  11.255   2.728 -3.5546  0.8385  0.6159
10634SOL    HW236714   9.134  11.104   2.729 -3.2274  0.8229  0.0301
10635SOL     OW36715   8.253   9.264   1.978  0.1356 -0.0069  0.4752
10635SOL    HW136716   8.318   9.267   2.049 -0.7361  1.4569  1.2443
10635SOL    HW236717   8.185   9.326   2.004 -1.4660 -1.2970 -0.4472
10636SOL     OW36718   2.217  12.132   0.481 -0.5894 -0.6360  0.5469
10636SOL    HW136719   2.275  12.108   0.410  1.6597  1.1854  1.6160
10636SOL    HW236720   2.189  12.049   0.519  2.5728 -1.6991  0.8845
10637SOL     OW36721   0.144  12.044   9.656  0.7030  0.5787  0.0063
10637SOL    HW136722   0.094  12.118   9.621 -0.8733 -0.8114 -0.8227
10637SOL    HW236723   0.158  11.986   9.581  1.9782  0.0489  0.6230
10638SOL     OW36724  12.475   3.449   9.017  0.2325 -0.3554  0.4507
10638SOL    HW136725  12.428   3.495   9.087 -1.1000 -1.3143  0.2187
10638SOL    HW236726  12.536   3.514   8.983 -2.1204  1.5822 -0.4114
10639SOL     OW36727  12.276   9.650  10.652  0.0407  0.5429  0.4611
10639SOL    HW136728  12.340   9.691  10.711  0.7061  0.7294 -0.3673
10639SOL    HW236729  12.258   9.717  10.586 -0.4692  0.2333  0.2763
10640SOL     OW36730   6.879   8.260   9.907 -0.0709  0.1299 -0.0904
10640SOL    HW136731   6.893   8.354   9.895  2.2178 -0.2853 -1.2503
10640SOL    HW236732   6.884   8.247  10.001 -3.1896  1.4618  0.3929
10641SOL     OW36733  12.380  12.206  10.131  0.3707 -0.2832 -0.0318
10641SOL    HW136734  12.374  12.160  10.048 -2.2529  1.7094 -1.0757
10641SOL    HW236735  12.431  12.285  10.111 -1.9796  1.2492 -0.4021
10642SOL     OW36736   9.279   0.492   6.810 -0.0023  0.1359 -0.2976
10642SOL    HW136737   9.310   0.463   6.896  1.0885 -0.7158 -0.9456
10642SOL    HW236738   9.354   0.537   6.771 -0.4402  0.3853 -0.8629
10643SOL     OW36739   0.725  10.590   1.845  0.5865 -0.5194 -0.5683
10643SOL    HW136740   0.721  10.685   1.846 -0.7283 -0.5655  0.1835
10643SOL    HW236741   0.760  10.569   1.758  0.0598  0.6262 -1.0825
10644SOL     OW36742  10.900  11.595   9.562  0.2677  0.5818 -0.6084
10644SOL    HW136743  10.930  11.644   9.639  0.3452  0.4638 -0.5648
10644SOL    HW236744  10.860  11.662   9.506 -1.3804  0.4350  0.3082
10645SOL     OW36745   3.168   3.180   4.120 -0.2746  0.4520  0.1580
10645SOL    HW136746   3.086   3.216   4.154  0.9696  1.4566  2.2149
10645SOL    HW236747   3.159   3.085   4.130 -0.7115  0.6247  1.5289
10646SOL     OW36748  12.507  11.519   9.667  0.0750  0.5455 -0.1974
10646SOL    HW136749  12.427  11.521   9.718 -0.7968 -1.2737 -1.3763
10646SOL    HW236750  12.551  11.602   9.687 -1.1590  0.7542  1.9127
10647SOL     OW36751   9.244  11.387   0.918  0.5024  0.1558 -0.0733
10647SOL    HW136752   9.165  11.416   0.872 -0.7647  1.3379  2.6452
10647SOL    HW236753   9.293  11.467   0.934  0.1151  0.0449  1.9269
10648SOL     OW36754  11.672   9.942   4.079  0.3981  0.2934 -0.2272
10648SOL    HW136755  11.665   9.865   4.136  0.9126 -0.0011 -0.5559
10648SOL    HW236756  11.679   9.906   3.991 -0.9556  0.7617 -0.5488
10649SOL     OW36757  12.549   5.047   5.996  0.2537  0.1451  0.0270
10649SOL    HW136758  12.488   5.001   5.937  1.3526 -0.8128 -0.4067
10649SOL    HW236759  12.574   5.126   5.948  0.2825 -0.0687 -0.3148
10650SOL     OW36760   3.214   7.301   8.028  0.8172  0.1771 -0.3544
10650SOL    HW136761   3.162   7.265   7.955  1.1852 -0.0712 -0.5003
10650SOL    HW236762   3.281   7.235   8.043  1.0536  0.4701 -0.1280
10651SOL     OW36763  10.819   9.950   5.509  0.6598 -0.3639  0.0286
10651SOL    HW136764  10.756  10.008   5.552  1.7927  0.3313  0.8507
10651SOL    HW236765  10.864  10.007   5.446  1.0858 -0.6091  0.1078
10652SOL     OW36766  10.836   6.743   3.398 -0.2090  0.0798 -0.3331
10652SOL    HW136767  10.768   6.805   3.372 -0.1625 -0.6705 -2.4373
10652SOL    HW236768  10.801   6.657   3.375  1.2041 -0.3648 -0.9404
10653SOL     OW36769  11.309  10.809  11.356 -0.1262  0.2742 -0.1970
10653SOL    HW136770  11.290  10.887  11.407  0.9155 -0.1330  0.8583
10653SOL    HW236771  11.226  10.786  11.314 -1.0207  0.6232  1.3104
10654SOL     OW36772   7.695   4.744   7.066  0.5944 -0.4723 -0.3477
10654SOL    HW136773   7.740   4.826   7.044  1.1520 -0.0523  2.0166
10654SOL    HW236774   7.618   4.743   7.010 -0.2925  2.5383  0.6171
10655SOL     OW36775  11.332   4.021   4.323  0.0263 -0.2367 -0.6000
10655SOL    HW136776  11.283   4.096   4.358  0.9286  0.2498 -0.3350
10655SOL    HW236777  11.401   4.006   4.387  1.4537  0.3906 -1.9264
10656SOL     OW36778   9.386   5.801   1.026  0.3045  0.2437 -0.0839
10656SOL    HW136779   9.313   5.751   1.062  0.5829  0.3187  0.5975
10656SOL    HW236780   9.345   5.877   0.985 -0.1158 -0.4916 -1.0659
10657SOL     OW36781   3.065   4.430   5.408 -0.1378 -0.0735  0.2577
10657SOL    HW136782   3.015   4.353   5.381 -0.4272  0.2966 -0.2785
10657SOL    HW236783   3.141   4.431   5.350  0.1836 -0.3002  0.6747
10658SOL     OW36784   9.301  12.197   0.132  0.3462  0.4868 -0.1290
10658SOL    HW136785   9.294  12.292   0.118  0.3433  0.7428  1.4027
10658SOL    HW236786   9.282  12.159   0.047  0.1574  1.8556 -0.7359
10659SOL     OW36787   2.598   4.041   5.764  0.7189 -0.1009 -0.1482
10659SOL    HW136788   2.547   4.079   5.693  0.5082 -2.6554 -1.4417
10659SOL    HW236789   2.535   3.991   5.816  1.2705 -0.1382  0.5026
10660SOL     OW36790  12.590   9.876   0.593 -0.1728  0.0114 -0.1165
10660SOL    HW136791  12.639   9.958   0.598 -1.0128  0.5303 -0.2592
10660SOL    HW236792  12.533   9.887   0.516  0.4265 -1.1094 -0.7420
10661SOL     OW36793   7.574   3.288   6.534 -0.0546 -0.6325  0.1721
10661SOL    HW136794   7.628   3.272   6.456 -1.2898  0.4373 -0.9511
10661SOL    HW236795   7.632   3.336   6.594  1.4423 -2.8901  0.6715
10662SOL     OW36796   8.841  12.525   1.143 -0.0537 -0.1865 -0.2198
10662SOL    HW136797   8.761  12.473   1.144  0.4398 -0.9640 -0.0855
10662SOL    HW236798   8.890  12.494   1.067  1.1198 -1.3319  0.9340
10663SOL     OW36799   1.482   9.542   3.771 -0.7978 -0.0108 -0.4909
10663SOL    HW136800   1.455   9.475   3.835  0.5397  0.8455  1.0471
10663SOL    HW236801   1.549   9.499   3.718  0.5681  0.2272  0.9425
10664SOL     OW36802   9.025  11.611  10.574 -0.0893 -0.0252  0.1341
10664SOL    HW136803   9.114  11.580  10.556  0.2084 -0.1022  1.5868
10664SOL    HW236804   8.971  11.533  10.562  0.1653 -0.2052  0.1249
10665SOL     OW36805  10.761   8.623   2.732 -0.0449 -0.1467 -0.1787
10665SOL    HW136806  10.825   8.684   2.697 -2.2112  1.7928 -1.0504
10665SOL    HW236807  10.726   8.577   2.656 -0.1589 -0.7124  0.2054
10666SOL     OW36808   3.530   5.214   7.961  0.3477 -0.4425 -0.6301
10666SOL    HW136809   3.512   5.127   7.997 -0.5677 -0.2516 -0.6148
10666SOL    HW236810   3.574   5.261   8.032  0.6376 -0.8145 -0.5595
10667SOL     OW36811   3.828   3.552   4.651 -0.1563  0.2856  0.2044
10667SOL    HW136812   3.889   3.594   4.591  0.9717  0.0577  1.1431
10667SOL    HW236813   3.819   3.463   4.617  1.2362 -0.1373  0.8739
10668SOL     OW36814  11.816   1.909   2.185 -0.1672  0.0879 -0.2830
10668SOL    HW136815  11.849   1.972   2.121 -1.3530  1.4771  0.4094
10668SOL    HW236816  11.875   1.835   2.178  1.1127  1.1492 -1.3524
10669SOL     OW36817  10.160   5.022   4.718 -0.2216 -0.2490 -0.2634
10669SOL    HW136818  10.239   4.978   4.685 -0.2937  0.2399 -1.1108
10669SOL    HW236819  10.155   5.103   4.668 -1.6758 -0.6274 -0.7634
10670SOL     OW36820  10.657  10.709  12.435  0.4032  0.2980  0.2085
10670SOL    HW136821  10.579  10.692  12.383  0.0058  1.5498  0.3545
10670SOL    HW236822  10.679  10.625  12.475  0.3524 -0.5440 -1.4629
10671SOL     OW36823  12.566   3.332  10.753 -0.4466 -0.3468 -0.1528
10671SOL    HW136824  12.575   3.426  10.766  1.1302 -0.6049  0.8170
10671SOL    HW236825  12.489   3.324  10.696 -0.9301  1.4778  0.1623
10672SOL     OW36826   9.668   5.867   0.387 -0.8220  0.3611 -0.0859
10672SOL    HW136827   9.612   5.939   0.358 -1.1422  0.5034  0.8346
10672SOL    HW236828   9.746   5.873   0.333 -0.0836  2.4745  1.1058
10673SOL     OW36829   9.871   4.706   6.892 -0.4399 -0.2264  0.0451
10673SOL    HW136830   9.838   4.795   6.904 -0.0922 -0.1782  0.6512
10673SOL    HW236831   9.793   4.651   6.898 -0.3791 -0.1533  1.9671
10674SOL     OW36832   3.798   2.724   7.432  0.1147 -0.5192 -0.3708
10674SOL    HW136833   3.835   2.687   7.513 -0.1460  0.9181  0.4369
10674SOL    HW236834   3.854   2.798   7.412 -0.8710  0.2098 -0.4976
10675SOL     OW36835  12.384   7.546   2.081 -0.3947  0.4787  0.3192
10675SOL    HW136836  12.387   7.474   2.146 -0.9460  1.2470  1.2254
10675SOL    HW236837  12.290   7.565   2.072 -0.3485  0.1059 -1.0389
10676SOL     OW36838   3.840   3.362   6.285 -0.0995 -0.5284  0.3235
10676SOL    HW136839   3.875   3.370   6.374 -0.8349  0.2529  0.5626
10676SOL    HW236840   3.779   3.288   6.290 -0.8980  0.1354  0.7486
10677SOL     OW36841   7.852  12.472   4.860  0.2826 -0.0374  0.1370
10677SOL    HW136842   7.788  12.543   4.851 -0.1667 -0.5571 -0.9931
10677SOL    HW236843   7.893  12.487   4.945  0.0237  1.4340  0.0202
10678SOL     OW36844   7.104   8.315   8.467 -0.2760  0.7531 -0.7855
10678SOL    HW136845   7.158   8.238   8.451 -1.8459 -0.6504  0.3365
10678SOL    HW236846   7.148   8.362   8.538  0.9620  1.2300 -1.8236
10679SOL     OW36847   9.939   0.920   6.958 -0.0795 -0.6198  0.2016
10679SOL    HW136848  10.006   0.854   6.976  0.2332 -0.9348 -1.8188
10679SOL    HW236849   9.893   0.886   6.881 -0.6803  0.9682 -0.1769
10680SOL     OW36850   1.318   5.804   6.186  0.0476  0.1284 -0.1684
10680SOL    HW136851   1.296   5.873   6.124 -1.1604  1.2456  1.4354
10680SOL    HW236852   1.284   5.834   6.270  1.6763 -1.3004  1.0948
10681SOL     OW36853  11.978  10.503   6.758  0.3917  0.3371  0.1314
10681SOL    HW136854  11.965  10.562   6.684  0.2255 -0.3743 -0.4094
10681SOL    HW236855  11.924  10.541   6.828 -0.0950  0.5609 -0.3563
10682SOL     OW36856   7.803   2.026   7.180  0.4932 -0.5748  0.3951
10682SOL    HW136857   7.886   2.067   7.207 -0.6507  1.1289  1.5605
10682SOL    HW236858   7.762   1.999   7.262 -1.4633  1.4411  0.1668
10683SOL     OW36859   0.713   3.728  11.598  0.6164 -0.3734 -0.0634
10683SOL    HW136860   0.798   3.734  11.555 -0.0166 -0.3461 -1.3306
10683SOL    HW236861   0.677   3.817  11.592 -0.2416 -0.7752 -1.0994
10684SOL     OW36862   0.861  11.306   2.591 -0.2757 -0.2662 -0.2672
10684SOL    HW136863   0.822  11.320   2.505 -0.4389  2.0131  0.1119
10684SOL    HW236864   0.889  11.393   2.620 -0.9643 -0.8108  2.3382
10685SOL     OW36865   1.493   4.471   4.005 -0.2209  0.0834  0.8492
10685SOL    HW136866   1.541   4.440   4.082  0.8896 -0.0750  0.1186
10685SOL    HW236867   1.402   4.447   4.022  0.3221 -1.9794  1.1379
10686SOL     OW36868   1.760   2.821   8.405  0.0887  0.0643  0.4827
10686SOL    HW136869   1.778   2.833   8.312  0.3777 -1.7172  0.2678
10686SOL    HW236870   1.677   2.772   8.407 -0.0873  0.3810  1.1820
10687SOL     OW36871   6.072   3.034  11.017 -0.7828 -0.4455  0.6443
10687SOL    HW136872   6.103   3.032  10.927 -4.2664 -0.3027 -0.6949
10687SOL    HW236873   6.107   3.116  11.053  0.2836 -0.2831 -0.6742
10688SOL     OW36874   2.588   4.403   4.299 -0.0685 -0.8941  0.1653
10688SOL    HW136875   2.577   4.415   4.393  2.5074  0.3740  0.3691
10688SOL    HW236876   2.584   4.492   4.263  2.0635 -1.0250 -0.4970
10689SOL     OW36877   0.645   0.851  11.890  0.3017 -0.1200  0.0669
10689SOL    HW136878   0.607   0.857  11.977  0.7540  0.2244  0.2443
10689SOL    HW236879   0.728   0.897  11.897  0.1931  0.1925 -0.6339
10690SOL     OW36880  10.234   9.826   4.710 -0.2036 -0.5029 -0.5237
10690SOL    HW136881  10.257   9.873   4.791 -0.9076 -0.1730 -0.5121
10690SOL    HW236882  10.173   9.884   4.665 -0.1443 -0.8756 -1.0990
10691SOL     OW36883   1.741  10.778   9.554  0.2736  0.2527  0.5615
10691SOL    HW136884   1.649  10.755   9.568  0.1767  0.3144  0.0433
10691SOL    HW236885   1.790  10.700   9.581 -0.0041 -0.2637 -0.4046
10692SOL     OW36886  10.142   1.448  12.210 -0.3614 -0.4895  0.5503
10692SOL    HW136887  10.061   1.498  12.211  0.0008  0.1139  0.3470
10692SOL    HW236888  10.144   1.405  12.124 -0.0499  0.2064  0.1986
10693SOL     OW36889   3.699  11.238   9.830 -0.1539 -0.4069 -0.1758
10693SOL    HW136890   3.761  11.241   9.903 -0.5654 -0.7523  0.1955
10693SOL    HW236891   3.724  11.311   9.774 -0.9824  1.0317  1.2544
10694SOL     OW36892   4.536   8.327   2.035 -0.0436 -0.2093  0.6726
10694SOL    HW136893   4.624   8.299   2.011 -0.4629 -0.7668 -0.2499
10694SOL    HW236894   4.520   8.405   1.982  0.6814  1.1892  2.3938
10695SOL     OW36895   3.295   1.090   3.735  0.1526  0.0406 -0.3582
10695SOL    HW136896   3.271   1.134   3.816  1.5689 -1.7640  1.1345
10695SOL    HW236897   3.218   1.037   3.713 -0.2671  0.5964 -0.2310
10696SOL     OW36898   1.479   0.894   1.394  0.0922 -0.2889  0.0008
10696SOL    HW136899   1.434   0.818   1.357 -1.0605  0.5699 -0.4296
10696SOL    HW236900   1.523   0.935   1.319 -0.9404  0.5713 -0.1493
10697SOL     OW36901   8.489   5.285   1.608  0.0812 -0.2476 -0.5731
10697SOL    HW136902   8.524   5.207   1.651 -0.7634 -0.6878 -0.6611
10697SOL    HW236903   8.498   5.266   1.514  2.5200  0.9754 -0.6757
10698SOL     OW36904   6.553  10.392  10.914 -0.5094  0.6316 -0.0728
10698SOL    HW136905   6.618  10.456  10.943 -0.1337  1.4271 -2.4038
10698SOL    HW236906   6.555  10.323  10.980  2.8478  0.5187 -0.1017
10699SOL     OW36907   9.280   2.234   6.421  0.2886 -0.0079 -0.5558
10699SOL    HW136908   9.311   2.205   6.335  0.5728 -1.1238 -0.0935
10699SOL    HW236909   9.192   2.266   6.405  0.5181  0.2608 -1.3514
10700SOL     OW36910  11.481   9.459   0.050 -0.3425 -0.2376 -0.2164
10700SOL    HW136911  11.561   9.454   0.102 -0.3729 -2.0269 -0.2819
10700SOL    HW236912  11.512   9.473  -0.040 -0.1889  0.6379 -0.0334
10701SOL     OW36913   6.994   5.008   9.021  0.0115 -0.8172 -0.5458
10701SOL    HW136914   6.915   5.062   9.014  0.9034  0.9383  1.6202
10701SOL    HW236915   7.012   4.981   8.931 -1.1843  1.5825 -1.6143
10702SOL     OW36916   2.755   5.252   4.820 -0.0982 -0.2755 -0.2729
10702SOL    HW136917   2.826   5.288   4.874  0.7421  0.3014 -1.6909
10702SOL    HW236918   2.676   5.268   4.871  0.5003  1.5673  0.1581
10703SOL     OW36919  11.501   9.557  11.119  0.1066 -0.3547 -0.2792
10703SOL    HW136920  11.489   9.611  11.197 -0.5753  0.2162 -0.7663
10703SOL    HW236921  11.465   9.472  11.144 -0.9111  0.0691 -0.2373
10704SOL     OW36922   8.840   4.589   3.208 -0.0199 -0.1264  0.2908
10704SOL    HW136923   8.883   4.531   3.271 -0.3424  0.7626  1.3638
10704SOL    HW236924   8.801   4.658   3.262 -0.4711  0.5589 -0.8782
10705SOL     OW36925   4.014   4.439  11.728 -0.2690 -0.6166 -0.4387
10705SOL    HW136926   3.922   4.463  11.724 -0.4527 -1.0137  1.0789
10705SOL    HW236927   4.027   4.403  11.816  1.0100 -1.8670 -1.0834
10706SOL     OW36928   2.356   4.705   1.577 -0.2653 -0.1610 -0.1957
10706SOL    HW136929   2.379   4.792   1.611  1.2697 -0.3813 -0.5865
10706SOL    HW236930   2.383   4.708   1.485  0.8972 -1.4078  0.0717
10707SOL     OW36931   7.642   5.937   7.875  0.2158  0.1988 -0.8379
10707SOL    HW136932   7.606   5.857   7.913  1.3374 -0.2037 -0.5970
10707SOL    HW236933   7.625   6.005   7.940  0.1623 -0.0436 -0.5997
10708SOL     OW36934  12.086  11.822   7.782 -0.2189  0.4784  0.1991
10708SOL    HW136935  12.092  11.917   7.794  0.2711  0.5489 -0.5762
10708SOL    HW236936  11.995  11.801   7.802  0.1651  0.7917  2.5315
10709SOL     OW36937   9.438   9.261   0.850  0.5586 -0.4514 -0.5771
10709SOL    HW136938   9.364   9.309   0.886 -1.6570 -1.0513 -3.9126
10709SOL    HW236939   9.427   9.171   0.880  0.1302 -0.4594 -0.7590
10710SOL     OW36940   3.269   3.087   2.773  0.3863  0.1094 -0.1535
10710SOL    HW136941   3.256   3.181   2.755 -1.5979 -0.2558 -0.8984
10710SOL    HW236942   3.278   3.047   2.687  2.9360 -0.2418  0.2098
10711SOL     OW36943   0.863   5.808   5.239 -0.2318  0.0227  0.9514
10711SOL    HW136944   0.883   5.833   5.148  3.7906  2.2274  2.2027
10711SOL    HW236945   0.824   5.887   5.277  1.8207  0.5810  2.0416
10712SOL     OW36946   8.575   1.154   9.201 -0.3177 -0.0684 -0.2738
10712SOL    HW136947   8.564   1.071   9.154  0.0059  0.1001 -0.6487
10712SOL    HW236948   8.638   1.203   9.149 -0.4490  0.3849 -0.0117
10713SOL     OW36949   6.148   2.901   1.561  0.2147  0.1898 -0.4950
10713SOL    HW136950   6.086   2.973   1.552  0.6195  0.6564  0.3740
10713SOL    HW236951   6.134   2.868   1.649 -1.5898 -2.3313 -1.5839
10714SOL     OW36952   9.816   3.449   8.983 -0.3418  0.1896 -0.7815
10714SOL    HW136953   9.772   3.526   9.017  0.2842  0.0125  0.4893
10714SOL    HW236954   9.908   3.474   8.977 -0.0197 -0.6415  0.2973
10715SOL     OW36955   4.021   7.305  11.517 -0.5408  0.0294  0.1630
10715SOL    HW136956   3.942   7.359  11.515 -0.7368 -0.1798  1.4571
10715SOL    HW236957   4.001   7.235  11.579 -0.2542 -1.5164 -1.4159
10716SOL     OW36958   8.006   6.193   7.324 -0.2559 -0.4372 -0.2374
10716SOL    HW136959   7.947   6.239   7.265  1.4545 -1.3467 -2.7891
10716SOL    HW236960   7.947   6.142   7.381 -2.0318  2.2627  0.5480
10717SOL     OW36961   5.889   2.533   8.299  0.3136  0.5079  0.6197
10717SOL    HW136962   5.914   2.597   8.366  0.1868  0.0081  1.1553
10717SOL    HW236963   5.927   2.567   8.218  1.5140  0.5061  1.1522
10718SOL     OW36964   8.195   1.745   8.418  0.2113 -0.2937  0.5494
10718SOL    HW136965   8.227   1.692   8.491  0.8197 -1.0031 -0.2042
10718SOL    HW236966   8.274   1.772   8.372 -0.2090 -1.4384 -0.9136
10719SOL     OW36967  12.023   1.181   2.303 -0.0239 -0.1984  0.2732
10719SOL    HW136968  12.092   1.162   2.366 -0.1415  0.2574  0.5424
10719SOL    HW236969  12.028   1.275   2.290  1.5562 -0.5209 -2.1901
10720SOL     OW36970   2.462   5.025   3.601 -0.1300  0.0699 -0.1310
10720SOL    HW136971   2.539   4.982   3.638  0.4608 -1.7621 -3.1704
10720SOL    HW236972   2.390   4.964   3.619 -0.1407 -0.0377 -0.5214
10721SOL     OW36973   8.069   4.303   0.029  0.3899 -0.4337  0.0027
10721SOL    HW136974   8.145   4.352  -0.002  0.6145 -0.6587  0.1945
10721SOL    HW236975   8.072   4.312   0.124 -1.8396  2.5989 -0.0736
10722SOL     OW36976   8.331   2.782   0.173 -0.3153  0.1731 -0.1112
10722SOL    HW136977   8.344   2.804   0.265  0.4101  0.9427 -0.3844
10722SOL    HW236978   8.245   2.818   0.152 -0.4976 -0.0348  0.2663
10723SOL     OW36979   6.608   7.125   7.841  0.0756 -0.3929  0.0941
10723SOL    HW136980   6.630   7.214   7.868  0.9706 -1.0388  1.6403
10723SOL    HW236981   6.543   7.136   7.772  0.8985  1.4774 -0.4533
10724SOL     OW36982   5.389   9.347   8.436 -0.0316 -0.0709  0.4710
10724SOL    HW136983   5.449   9.279   8.469  0.0732  0.1236  0.6834
10724SOL    HW236984   5.304   9.304   8.433  0.3303 -0.8076 -1.1662
10725SOL     OW36985  10.339   1.008  10.927  0.2475  0.6030 -0.1121
10725SOL    HW136986  10.268   1.060  10.890  0.2997  1.1509  0.5462
10725SOL    HW236987  10.364   0.947  10.857 -0.4357  0.8391 -0.5629
10726SOL     OW36988   0.697  11.852   1.223  0.2927  0.2360 -0.1358
10726SOL    HW136989   0.614  11.856   1.176  1.2159  1.3874 -1.7795
10726SOL    HW236990   0.757  11.806   1.164  1.1151  0.3999  0.5414
10727SOL     OW36991  11.372  11.324   5.304 -0.2224 -0.0320  0.0626
10727SOL    HW136992  11.390  11.398   5.246  0.5212  0.0874  0.4385
10727SOL    HW236993  11.442  11.262   5.286 -0.6054 -0.4677  0.0548
10728SOL     OW36994  11.272   7.444  12.639 -0.0161 -0.0125 -0.2105
10728SOL    HW136995  11.355   7.448  12.686  0.4014  0.3796 -0.9665
10728SOL    HW236996  11.293   7.469  12.550 -0.6319 -1.6284 -0.8490
10729SOL     OW36997   4.631   5.621   2.042 -0.2966 -0.4112  0.2851
10729SOL    HW136998   4.687   5.674   2.099 -0.6570  1.3457 -0.9297
10729SOL    HW236999   4.639   5.532   2.077  0.3672  0.4073  2.3617
10730SOL     OW37000   5.214   6.644   8.246 -0.3617  0.5322 -0.2115
10730SOL    HW137001   5.139   6.697   8.222 -0.1089  1.1731  0.3763
10730SOL    HW237002   5.176   6.559   8.270 -0.8822  0.7930 -0.0874
10731SOL     OW37003  10.322   3.150  11.209 -0.1007  0.2061  0.0378
10731SOL    HW137004  10.269   3.223  11.177  0.2812  0.3729 -0.2213
10731SOL    HW237005  10.355   3.109  11.129 -0.2343 -0.1902  0.1868
10732SOL     OW37006   3.437   7.827   9.135  0.0096 -0.2026 -0.0023
10732SOL    HW137007   3.358   7.845   9.186 -0.0318 -0.7200  0.1273
10732SOL    HW237008   3.405   7.787   9.055  0.0291  1.2196 -0.7553
10733SOL     OW37009  12.500   1.882  12.583  0.4806  0.0513  0.5193
10733SOL    HW137010  12.473   1.942  12.513  0.5015 -1.3506 -0.7643
10733SOL    HW237011  12.486   1.931  12.664 -1.1599  1.1406 -0.3706
10734SOL     OW37012   4.194   6.799   8.889  0.0613 -0.1712  0.2078
10734SOL    HW137013   4.173   6.864   8.957  0.7741 -0.0680  0.3423
10734SOL    HW237014   4.259   6.843   8.834  0.1721 -0.5900  0.0008
10735SOL     OW37015  12.402  10.668   4.365  0.3387 -0.0624 -0.0408
10735SOL    HW137016  12.380  10.759   4.342  1.5680 -0.0352 -1.2418
10735SOL    HW237017  12.366  10.616   4.293 -0.0654 -0.5137  0.4759
10736SOL     OW37018   9.503   1.147   0.957  0.1868 -0.3011 -0.2273
10736SOL    HW137019   9.493   1.093   1.036  0.4217 -0.9620 -0.6353
10736SOL    HW237020   9.415   1.179   0.938  0.0156 -0.6702 -0.0623
10737SOL     OW37021  11.343  11.546  10.036 -0.7460  0.0040 -0.0548
10737SOL    HW137022  11.427  11.535   9.991 -0.8309 -0.7264 -0.0600
10737SOL    HW237023  11.282  11.568   9.966 -0.9634 -1.5645 -0.3954
10738SOL     OW37024  10.760   1.292   4.452 -0.2126 -0.0836  0.1377
10738SOL    HW137025  10.679   1.242   4.449  0.2404 -0.8488  0.1956
10738SOL    HW237026  10.772   1.314   4.545 -1.1175  1.3648 -0.0503
10739SOL     OW37027  11.487   5.544   6.504 -0.3297  0.3064 -0.3385
10739SOL    HW137028  11.500   5.635   6.475 -0.3970  0.2837 -0.4409
10739SOL    HW237029  11.575   5.506   6.504 -0.4619 -0.0329 -1.6486
10740SOL     OW37030   9.756  10.416  11.829 -0.3964  0.3027  0.2782
10740SOL    HW137031   9.851  10.402  11.831 -0.7756 -2.8615  1.4231
10740SOL    HW237032   9.745  10.507  11.858  2.1803  0.0441  2.5333
10741SOL     OW37033   6.810   1.971   1.894  0.0616  0.4342  0.2587
10741SOL    HW137034   6.741   2.001   1.835  0.7370 -0.8217 -1.2594
10741SOL    HW237035   6.769   1.966   1.980 -1.6363  0.0780 -0.5422
10742SOL     OW37036  11.266   8.265  12.341 -0.0690  0.0705  0.2605
10742SOL    HW137037  11.190   8.316  12.368  0.1590  0.7436 -0.3607
10742SOL    HW237038  11.321   8.326  12.292 -0.0441 -0.8912 -0.9552
10743SOL     OW37039   4.681   9.711   0.420  0.1511 -0.0177 -0.8330
10743SOL    HW137040   4.598   9.705   0.467 -0.0475 -0.9403 -1.2738
10743SOL    HW237041   4.691   9.805   0.402 -1.2441  0.0328 -1.5495
10744SOL     OW37042   7.835   3.240   3.065  0.0421 -0.4791  0.2501
10744SOL    HW137043   7.756   3.231   3.118 -0.1842 -1.5351 -0.2487
10744SOL    HW237044   7.884   3.311   3.107 -0.2760 -1.0770  1.6888
10745SOL     OW37045   4.815   7.420  11.813 -0.1057  0.2751 -0.3957
10745SOL    HW137046   4.797   7.376  11.896  0.9619 -1.1142 -0.8571
10745SOL    HW237047   4.768   7.368  11.748 -0.9801  1.3849 -0.6813
10746SOL     OW37048   0.643   1.182  11.052  0.2587 -0.2184 -0.6752
10746SOL    HW137049   0.715   1.124  11.076 -0.0567  0.3388  1.9114
10746SOL    HW237050   0.567   1.125  11.045  0.8002 -0.7405 -2.9584
10747SOL     OW37051  10.914   0.008  11.197  0.1035 -0.3419  0.4510
10747SOL    HW137052  10.841  -0.020  11.252  0.0944  0.1641  0.7000
10747SOL    HW237053  10.915   0.104  11.205  0.9221 -0.3548  0.6260
10748SOL     OW37054   1.627   6.419   5.404 -0.1755 -0.1351  0.3889
10748SOL    HW137055   1.576   6.405   5.484 -0.1176  1.5370  0.7705
10748SOL    HW237056   1.576   6.378   5.335 -0.7536 -0.7115  1.1433
10749SOL     OW37057   7.780   1.286   9.548  0.3262  0.4802 -0.0018
10749SOL    HW137058   7.755   1.305   9.457 -1.0949 -0.5383  0.1381
10749SOL    HW237059   7.707   1.234   9.582  1.9182 -1.2134  0.9846
10750SOL     OW37060   5.190   7.681   1.312  0.5500  0.0103  0.3655
10750SOL    HW137061   5.154   7.621   1.247  0.6632  0.2023  0.1244
10750SOL    HW237062   5.123   7.685   1.380 -0.1653  0.8412 -0.3724
10751SOL     OW37063   8.123   9.576  10.401  0.2059  0.4139 -0.0698
10751SOL    HW137064   8.090   9.511  10.464 -0.6261  2.1049  1.3282
10751SOL    HW237065   8.186   9.628  10.451  0.5855  0.9164 -1.0501
10752SOL     OW37066   2.010   2.877   7.732 -0.0423 -0.5637 -0.0450
10752SOL    HW137067   1.981   2.900   7.644 -0.1121  0.6157  0.2743
10752SOL    HW237068   1.990   2.783   7.740  0.2147 -0.7497 -1.3693
10753SOL     OW37069   9.764   8.418   6.797 -0.1563  0.3350 -0.0510
10753SOL    HW137070   9.733   8.327   6.802  0.3069  0.1428 -0.5383
10753SOL    HW237071   9.831   8.416   6.729  0.2467  0.9367  0.3226
10754SOL     OW37072   3.105   7.090   3.860  0.0440  0.0735 -0.0977
10754SOL    HW137073   3.191   7.110   3.821  0.0700 -1.0869 -0.6662
10754SOL    HW237074   3.043   7.102   3.789 -0.3021  0.9528  0.3246
10755SOL     OW37075  11.174   8.887   3.735  0.3514  0.2287 -0.4995
10755SOL    HW137076  11.169   8.905   3.641 -2.2791 -1.8826 -0.8925
10755SOL    HW237077  11.116   8.952   3.775 -0.5716 -0.4455 -0.6911
10756SOL     OW37078   5.408   2.244   4.875  0.4992 -0.0673 -0.2677
10756SOL    HW137079   5.465   2.225   4.950 -1.1416 -3.9006  0.2520
10756SOL    HW237080   5.319   2.241   4.912 -0.2372  1.7744 -1.7445
10757SOL     OW37081   6.008   9.189  10.347  0.1017  0.5368 -0.0796
10757SOL    HW137082   6.074   9.162  10.410 -0.6215  0.7178  0.7688
10757SOL    HW237083   6.010   9.285  10.349  0.6679  0.5646 -0.9819
10758SOL     OW37084   9.860   1.907  10.690 -0.3834  0.9451  0.4769
10758SOL    HW137085   9.919   1.931  10.761 -0.5756 -0.4350  1.1427
10758SOL    HW237086   9.863   1.811  10.688 -1.5042  0.9059 -0.4190
10759SOL     OW37087   3.822   5.367   9.506 -0.2444  0.6607  0.3284
10759SOL    HW137088   3.802   5.450   9.465  1.2745  0.2548 -1.3530
10759SOL    HW237089   3.836   5.306   9.433  0.3576 -0.6442  1.4761
10760SOL     OW37090   0.202   9.744  10.375  0.5391  0.1357 -0.0423
10760SOL    HW137091   0.111   9.769  10.391  0.3209  0.2568 -1.3530
10760SOL    HW237092   0.197   9.659  10.333  1.0350  0.1588 -0.1572
10761SOL     OW37093   9.248  10.171   5.054  0.0513 -0.4711 -0.3006
10761SOL    HW137094   9.304  10.245   5.077 -0.7339 -0.7624  3.0323
10761SOL    HW237095   9.162  10.210   5.038  0.3892 -0.3765 -2.1459
10762SOL     OW37096   6.056   3.728   9.208 -0.1970  0.0621 -0.1953
10762SOL    HW137097   6.061   3.812   9.165  2.0476  0.1303  0.1134
10762SOL    HW237098   6.047   3.749   9.301 -3.2512 -0.1011 -0.3220
10763SOL     OW37099   8.466   9.620   5.787 -0.2936 -0.6319 -0.0577
10763SOL    HW137100   8.391   9.565   5.765  0.2255 -0.6289 -2.0194
10763SOL    HW237101   8.428   9.705   5.810 -0.9073  0.0834 -3.2331
10764SOL     OW37102   2.828   4.756   0.511  0.1321 -0.3418  0.0981
10764SOL    HW137103   2.880   4.687   0.469 -0.5719 -1.4703  1.0003
10764SOL    HW237104   2.892   4.820   0.541  0.8165 -0.6570 -0.6432
10765SOL     OW37105   3.691   5.580   6.418  0.2030  0.3911 -0.4513
10765SOL    HW137106   3.727   5.668   6.421 -1.0396  0.8942  1.4052
10765SOL    HW237107   3.736   5.533   6.488  1.7826 -0.9081 -2.2114
10766SOL     OW37108  10.628  12.140  10.733 -0.0684 -0.5204  0.4341
10766SOL    HW137109  10.609  12.160  10.642  2.8787 -0.2557 -0.2173
10766SOL    HW237110  10.551  12.171  10.781 -0.6167  1.7010 -1.7069
10767SOL     OW37111   0.185   3.686   3.349  0.2674 -0.2605 -0.2565
10767SOL    HW137112   0.247   3.625   3.311 -0.1586 -1.4699  0.8992
10767SOL    HW237113   0.188   3.668   3.443  0.3474  1.7178  0.1604
10768SOL     OW37114   6.775   4.305   7.221  0.1041  0.1775  0.1669
10768SOL    HW137115   6.762   4.362   7.145 -0.9167 -0.3012 -0.0405
10768SOL    HW237116   6.773   4.216   7.185  0.0675 -0.0415  0.6952
10769SOL     OW37117   6.093   8.781   3.088  0.5385 -0.2370  0.0129
10769SOL    HW137118   6.067   8.712   3.028 -0.6818  0.8317 -0.7359
10769SOL    HW237119   6.105   8.737   3.172 -0.6658 -1.2868 -0.3403
10770SOL     OW37120   2.724   7.973   3.546 -0.5124 -0.0881 -0.0537
10770SOL    HW137121   2.803   7.973   3.493 -0.3387 -0.0396  0.2043
10770SOL    HW237122   2.700   7.880   3.553 -0.5886 -0.0868 -0.2929
10771SOL     OW37123   2.520   7.969   2.581  0.5326  0.5124 -0.1115
10771SOL    HW137124   2.566   7.899   2.535 -0.1717 -0.5646  0.7594
10771SOL    HW237125   2.578   7.992   2.654  1.1490  1.4535 -0.8752
10772SOL     OW37126   7.182   7.389   4.777  0.2392 -0.1160  0.0630
10772SOL    HW137127   7.214   7.477   4.754  0.9834 -0.1604  0.8773
10772SOL    HW237128   7.218   7.373   4.864  0.7767 -1.5556 -0.3973
10773SOL     OW37129   9.876   1.962   9.551 -0.7880 -0.1445  0.3205
10773SOL    HW137130   9.803   2.025   9.556 -2.1569 -1.4744 -1.6998
10773SOL    HW237131   9.861   1.914   9.470  0.7027 -2.4894  1.3310
10774SOL     OW37132   5.138   8.757   3.349  0.0398  0.3897  0.5599
10774SOL    HW137133   5.156   8.713   3.266  1.9780 -2.1302  2.1710
10774SOL    HW237134   5.042   8.758   3.355 -0.1933  1.4166 -1.9944
10775SOL     OW37135  11.303   3.449   3.931 -0.1370  0.7002  0.5230
10775SOL    HW137136  11.297   3.387   3.858  1.5705  2.1769 -0.9882
10775SOL    HW237137  11.218   3.493   3.932 -0.6726 -0.3077  0.3515
10776SOL     OW37138   5.471   7.518   5.728 -0.6880  0.2591  0.1007
10776SOL    HW137139   5.507   7.567   5.655  1.1169 -0.3651  0.5238
10776SOL    HW237140   5.541   7.516   5.793 -0.8668 -2.3844  0.3229
10777SOL     OW37141   9.589   4.833   2.585 -0.2394  0.4141  0.1318
10777SOL    HW137142   9.544   4.900   2.635  0.0408  1.5947 -1.1340
10777SOL    HW237143   9.585   4.754   2.640 -2.6437  0.8160  0.6307
10778SOL     OW37144   4.219   9.009   6.103 -0.3678 -0.1782  0.3461
10778SOL    HW137145   4.141   9.061   6.082 -0.0358  0.7512  1.3273
10778SOL    HW237146   4.271   9.066   6.160  2.1080  0.1040 -2.0036
10779SOL     OW37147  10.773   3.983  11.704 -0.3619 -0.5459  0.0425
10779SOL    HW137148  10.724   4.000  11.785 -0.2046 -0.7411  0.1803
10779SOL    HW237149  10.744   4.051  11.644 -0.5470 -0.4513  0.2347
10780SOL     OW37150  11.297   3.776  10.654  0.0046 -0.7395 -0.3705
10780SOL    HW137151  11.335   3.815  10.575 -2.1072  0.6105 -0.8136
10780SOL    HW237152  11.289   3.849  10.715  0.2475 -1.4678  0.5455
10781SOL     OW37153   3.277   4.875   6.544 -0.4438  0.1828  0.0029
10781SOL    HW137154   3.287   4.931   6.467 -0.9243 -0.7335 -0.7588
10781SOL    HW237155   3.203   4.817   6.521 -0.3795 -0.3174  1.0213
10782SOL     OW37156   6.274  10.416   9.375 -0.7423  0.4950  0.3907
10782SOL    HW137157   6.312  10.416   9.287 -2.2407  1.8271 -0.2904
10782SOL    HW237158   6.326  10.480   9.423  0.7594 -0.9749  0.8564
10783SOL     OW37159   3.939  11.113   6.805  0.0099  0.0838 -0.4047
10783SOL    HW137160   4.009  11.178   6.798  1.4635 -1.4820 -1.7352
10783SOL    HW237161   3.882  11.130   6.730  0.6569 -0.4152 -1.0300
10784SOL     OW37162   3.683   3.104   8.709 -0.2679  0.0597 -0.2427
10784SOL    HW137163   3.639   3.020   8.705 -2.0174  0.7312  2.3108
10784SOL    HW237164   3.758   3.089   8.767 -0.5859  0.2440  0.2209
10785SOL     OW37165  10.399  11.400   4.724 -0.6367  0.3706  0.2235
10785SOL    HW137166  10.353  11.331   4.771 -2.3132  0.0165 -1.8134
10785SOL    HW237167  10.382  11.479   4.775 -1.7622 -0.1196  0.6282
10786SOL     OW37168   5.542   1.129   1.210  0.1746 -0.5421 -0.0144
10786SOL    HW137169   5.455   1.166   1.194 -0.1582 -1.0629  0.5387
10786SOL    HW237170   5.538   1.041   1.173  0.3764 -0.6690  0.2578
10787SOL     OW37171   7.718   1.227   4.024 -0.1072 -0.1122 -0.4998
10787SOL    HW137172   7.761   1.270   4.098  0.6628  0.9459 -1.5216
10787SOL    HW237173   7.718   1.134   4.047  2.2974 -0.1055 -0.2204
10788SOL     OW37174   0.041   7.228   4.093  0.0660  0.0247  1.0337
10788SOL    HW137175  -0.036   7.205   4.042  0.9908 -0.6223 -0.1048
10788SOL    HW237176   0.104   7.262   4.030  1.3888 -1.1577  1.6356
10789SOL     OW37177   5.391   4.940   5.301  0.7211 -0.2769 -0.2768
10789SOL    HW137178   5.438   4.922   5.219  1.2828 -0.1479  0.0127
10789SOL    HW237179   5.378   4.853   5.340  2.3219 -0.1975  0.5096
10790SOL     OW37180  12.134   5.325   9.090  0.1549 -0.6211  0.2331
10790SOL    HW137181  12.043   5.332   9.118 -0.6034 -2.2901 -1.5437
10790SOL    HW237182  12.185   5.331   9.171 -1.4605  0.9569  1.1945
10791SOL     OW37183   0.266   5.908   1.171  0.1177  0.1227  0.2942
10791SOL    HW137184   0.237   5.818   1.183  0.3960 -0.0585 -0.3523
10791SOL    HW237185   0.360   5.901   1.152  0.0322  0.5036 -0.2916
10792SOL     OW37186   0.115  11.758  11.854  0.0675  0.0296 -0.2543
10792SOL    HW137187   0.060  11.699  11.905  0.2665  0.0970  0.0373
10792SOL    HW237188   0.057  11.830  11.829  0.2150  0.5108  0.7359
10793SOL     OW37189  11.801  11.381   0.079 -0.3446  0.0447 -0.2019
10793SOL    HW137190  11.859  11.410   0.149  0.5215 -0.3292 -0.7403
10793SOL    HW237191  11.728  11.339   0.124 -0.9901  1.8794  0.5392
10794SOL     OW37192   3.432   2.451   7.801 -0.9285 -1.0310 -0.0140
10794SOL    HW137193   3.371   2.398   7.852 -2.0661 -0.1102 -0.3730
10794SOL    HW237194   3.402   2.541   7.814 -0.4481 -0.6709 -1.2651
10795SOL     OW37195   9.913   5.493   0.065 -0.3609  0.5877  0.0169
10795SOL    HW137196   9.891   5.416   0.014 -2.5698  0.9895  0.2300
10795SOL    HW237197   9.967   5.461   0.137  0.0945 -0.4837 -0.7952
10796SOL     OW37198  11.062   8.086   0.858  0.2475  0.5570 -0.4938
10796SOL    HW137199  10.997   8.068   0.925 -0.5487  0.8608 -1.1675
10796SOL    HW237200  11.139   8.035   0.885  0.3167  1.4703  1.1913
10797SOL     OW37201   4.008   7.425   4.105  0.5775  0.2308 -0.3704
10797SOL    HW137202   3.942   7.381   4.051 -0.5140  0.6772  0.5613
10797SOL    HW237203   4.033   7.503   4.055  0.2609  0.1585 -0.6424
10798SOL     OW37204  10.269   5.628   2.833  0.7174  0.3291 -0.2437
10798SOL    HW137205  10.255   5.552   2.777 -2.1892 -0.3123  1.1438
10798SOL    HW237206  10.268   5.703   2.773  1.5551 -0.5460 -1.3998
10799SOL     OW37207   5.666   1.988   2.857 -0.2954 -0.5386  0.5843
10799SOL    HW137208   5.647   2.059   2.918 -2.5289 -1.1671  0.7224
10799SOL    HW237209   5.685   1.913   2.914 -1.5132 -0.9115  0.5121
10800SOL     OW37210  11.065   6.170   1.655  0.1525 -0.0025  0.3734
10800SOL    HW137211  11.095   6.261   1.658  0.4270 -0.0308 -0.9689
10800SOL    HW237212  11.140   6.119   1.685  0.5965  0.1132 -0.4903
10801SOL     OW37213   7.594   8.598   3.764  0.2004 -0.1706  0.0590
10801SOL    HW137214   7.537   8.580   3.839  0.4392 -2.0402 -0.1567
10801SOL    HW237215   7.679   8.618   3.803 -0.1912  1.0706  0.3282
10802SOL     OW37216   2.972   4.103   8.681  0.1101  0.0492  0.2580
10802SOL    HW137217   2.899   4.129   8.737  0.4355 -0.9002  1.1679
10802SOL    HW237218   2.945   4.127   8.593 -0.7265  0.9253  0.7351
10803SOL     OW37219   0.209  12.421   9.950 -0.2161  0.5917 -0.0189
10803SOL    HW137220   0.253  12.387  10.027  0.8352  0.7084 -0.5508
10803SOL    HW237221   0.128  12.369   9.943  1.5801 -2.3120 -1.1376
10804SOL     OW37222   7.729   1.714   5.589 -0.1181 -0.0439 -0.1017
10804SOL    HW137223   7.715   1.765   5.509 -1.9993 -0.2527  0.0503
10804SOL    HW237224   7.712   1.775   5.660  0.9217 -0.0338  0.1583
10805SOL     OW37225   1.178   1.005  11.095  0.1741  0.3550  0.1950
10805SOL    HW137226   1.166   1.055  11.014 -0.9713 -1.7436 -1.0176
10805SOL    HW237227   1.137   1.059  11.162 -0.5176  1.3019 -0.9403
10806SOL     OW37228   7.632  11.666   2.552 -0.0614  0.1385  0.5041
10806SOL    HW137229   7.675  11.588   2.589  0.3139  0.3410  0.4970
10806SOL    HW237230   7.546  11.634   2.525 -0.1522 -0.1328  1.0804
10807SOL     OW37231   9.971   6.028  10.416  0.6227 -0.2417 -0.2369
10807SOL    HW137232   9.993   5.944  10.457 -0.5494 -0.4175  0.0702
10807SOL    HW237233   9.951   6.085  10.490 -0.8913 -0.3793 -0.5221
10808SOL     OW37234   9.850   4.181  12.515  0.4221 -0.0390 -0.7180
10808SOL    HW137235   9.915   4.181  12.585 -0.1084 -1.3047 -0.2038
10808SOL    HW237236   9.851   4.271  12.482 -0.8749  1.2213  2.3166
10809SOL     OW37237   7.638   6.583   4.435  0.3988 -0.3252  0.2301
10809SOL    HW137238   7.699   6.650   4.465  0.6120  0.2333 -1.3606
10809SOL    HW237239   7.571   6.580   4.503 -0.1160  2.1766 -0.0668
10810SOL     OW37240   5.019   2.092   8.607 -0.7855  0.6147 -0.0598
10810SOL    HW137241   5.095   2.134   8.648  0.5325 -1.9036  0.3129
10810SOL    HW237242   4.945   2.119   8.661  0.1299  1.6221  0.7482
10811SOL     OW37243  11.914  12.174   8.010  0.0027  0.0741  0.0656
10811SOL    HW137244  11.927  12.135   8.097  1.6108 -0.1310 -0.2242
10811SOL    HW237245  11.870  12.257   8.028  1.8296  0.8471  1.2849
10812SOL     OW37246   9.229   5.762   1.935 -0.2839  0.0516 -0.1405
10812SOL    HW137247   9.228   5.671   1.965 -0.6530  0.4043  0.9474
10812SOL    HW237248   9.318   5.793   1.956  0.3380 -0.4612 -1.8345
10813SOL     OW37249   1.586   2.371   2.870  0.7110 -0.1641 -0.1303
10813SOL    HW137250   1.675   2.359   2.905  0.3526 -2.4906  0.1533
10813SOL    HW237251   1.530   2.367   2.947  0.2941  0.6431 -0.3821
10814SOL     OW37252   8.449   7.712   4.694  0.1398  0.2657  0.2758
10814SOL    HW137253   8.522   7.660   4.660  0.2807  0.0907  0.8349
10814SOL    HW237254   8.378   7.650   4.707 -0.4160  0.5892 -1.1271
10815SOL     OW37255   8.013   7.125   9.820 -0.3922  0.8644  0.3537
10815SOL    HW137256   8.041   7.117   9.728 -0.1440  2.5815  0.2446
10815SOL    HW237257   8.056   7.053   9.865 -1.4363 -0.7321 -1.0638
10816SOL     OW37258  10.079   4.720   0.636 -0.0769  0.1107  0.4344
10816SOL    HW137259  10.004   4.680   0.681  0.2180 -0.5051  0.3917
10816SOL    HW237260  10.040   4.785   0.578 -0.5506  0.0587  0.6880
10817SOL     OW37261   9.624   5.644   6.743 -0.0828 -0.0318  0.3700
10817SOL    HW137262   9.608   5.565   6.692  0.3885  1.4371 -2.2487
10817SOL    HW237263   9.555   5.645   6.809 -5.3126  1.1493 -4.2858
10818SOL     OW37264   6.061   0.432  10.243  0.2561  0.4549 -0.0747
10818SOL    HW137265   6.021   0.463  10.324 -1.5139 -2.7425  0.4455
10818SOL    HW237266   6.143   0.391  10.270 -0.2301 -0.4198  0.1028
10819SOL     OW37267   5.844   8.890   0.317  0.3155 -0.0112  0.0601
10819SOL    HW137268   5.778   8.878   0.249  1.1411 -0.1711 -0.7458
10819SOL    HW237269   5.891   8.807   0.321  1.1288  0.4213 -0.1298
10820SOL     OW37270  12.057   7.489   5.421 -0.1225  0.2880 -0.3591
10820SOL    HW137271  12.130   7.550   5.433 -0.5986  0.4310  2.5091
10820SOL    HW237272  11.979   7.543   5.436 -0.9195  0.0824 -3.1091
10821SOL     OW37273  10.530   6.688  12.627  0.0949 -0.1570  0.4135
10821SOL    HW137274  10.454   6.737  12.655  0.5941 -0.1819  1.8594
10821SOL    HW237275  10.494   6.606  12.592 -0.6653  0.7808 -1.1109
10822SOL     OW37276  11.193   0.949   6.421  0.3176 -0.2471  0.2861
10822SOL    HW137277  11.194   1.033   6.374  0.2434 -1.3055 -1.6828
10822SOL    HW237278  11.106   0.913   6.405  0.6977 -1.1746  0.2628
10823SOL     OW37279   2.223   7.744   6.321 -0.4446  0.4710 -0.6234
10823SOL    HW137280   2.229   7.789   6.237  0.7091 -0.4149 -1.0336
10823SOL    HW237281   2.290   7.786   6.375 -1.5014  1.3615  0.0321
10824SOL     OW37282   8.349   3.147   5.895  0.2027 -0.1198  0.0013
10824SOL    HW137283   8.326   3.058   5.919 -1.6451  0.5422  0.8188
10824SOL    HW237284   8.438   3.159   5.929 -0.0177 -1.2188  1.0065
10825SOL     OW37285   4.748   7.628   8.538  0.1105  0.1802 -0.1644
10825SOL    HW137286   4.737   7.538   8.569  2.5603 -0.3388 -0.6493
10825SOL    HW237287   4.699   7.630   8.455 -0.7851 -0.3747  0.3297
10826SOL     OW37288   2.489   7.858   6.868 -0.0409 -0.6156  0.0518
10826SOL    HW137289   2.453   7.816   6.790  0.8706 -1.1607 -0.0905
10826SOL    HW237290   2.504   7.948   6.842  1.5624 -1.1136 -0.8765
10827SOL     OW37291   9.262   7.210   2.537  0.0035  0.2030 -0.1423
10827SOL    HW137292   9.177   7.186   2.499 -0.1887  1.7560 -0.7722
10827SOL    HW237293   9.248   7.205   2.632 -0.2366 -1.3254 -0.2351
10828SOL     OW37294   6.829   4.128   5.035  0.2387 -0.4713 -0.1324
10828SOL    HW137295   6.764   4.101   5.100  1.7345 -1.6121  0.9335
10828SOL    HW237296   6.911   4.136   5.084  0.7469  2.0363 -1.2157
10829SOL     OW37297   5.722   0.503  11.030 -0.0681 -0.1671 -0.2606
10829SOL    HW137298   5.721   0.569  10.961  0.8754  1.1706  0.9469
10829SOL    HW237299   5.630   0.497  11.058 -0.2854  0.0413 -0.9196
10830SOL     OW37300  12.014   8.684  10.296 -0.5034 -0.0601 -0.0823
10830SOL    HW137301  12.017   8.731  10.212  1.7498  3.2132  1.5757
10830SOL    HW237302  11.922   8.687  10.322 -1.0566 -0.1326 -1.8969
10831SOL     OW37303   9.291   3.642   6.455 -0.0937  0.0709 -0.3463
10831SOL    HW137304   9.386   3.658   6.453 -0.0563  0.3070  1.5706
10831SOL    HW237305   9.282   3.561   6.506 -0.9268  0.1647 -0.3369
10832SOL     OW37306   8.540   4.227   1.320 -0.0125  0.4439 -0.4601
10832SOL    HW137307   8.549   4.269   1.405  0.0926  3.0441 -1.6753
10832SOL    HW237308   8.604   4.155   1.322  0.1973  0.6258  1.4974
10833SOL     OW37309   4.889  11.906  10.214  0.3223 -0.0130 -0.3166
10833SOL    HW137310   4.846  11.861  10.141  0.0849 -1.5203  0.7033
10833SOL    HW237311   4.821  11.914  10.281  0.8860  0.1297  0.2542
10834SOL     OW37312   7.592   1.613   9.763 -0.2121  0.4599 -0.1979
10834SOL    HW137313   7.532   1.554   9.716 -0.5905  1.8003 -1.4691
10834SOL    HW237314   7.665   1.626   9.702 -0.9486  2.6215 -0.6987
10835SOL     OW37315   7.604   4.623   5.214 -0.3807 -0.0330 -0.6182
10835SOL    HW137316   7.577   4.531   5.212 -0.9241  0.1252 -1.9174
10835SOL    HW237317   7.522   4.672   5.217 -0.0890  0.4232  0.4091
10836SOL     OW37318   7.735   3.804  10.088 -0.3652 -0.0463  0.3183
10836SOL    HW137319   7.811   3.799  10.146  0.4458 -2.4156 -0.8159
10836SOL    HW237320   7.752   3.880  10.033  0.1910  0.6249  1.3865
10837SOL     OW37321   9.861   4.517   4.869  0.0755 -0.0701 -0.0466
10837SOL    HW137322   9.922   4.546   4.802 -0.2199  0.6191 -0.0242
10837SOL    HW237323   9.837   4.428   4.843 -0.4849  0.3906 -1.1912
10838SOL     OW37324   7.556   5.957   1.709  0.1442  0.0506  0.2298
10838SOL    HW137325   7.550   5.992   1.620 -0.9487  0.7700  0.5688
10838SOL    HW237326   7.480   5.900   1.717 -0.2790  0.7075  1.0041
10839SOL     OW37327  10.694  11.030   5.825  0.3148 -0.1088  0.1925
10839SOL    HW137328  10.627  11.091   5.855 -2.2090 -1.3382 -2.5561
10839SOL    HW237329  10.718  11.061   5.738  1.7831 -0.9467  0.2620
10840SOL     OW37330   1.700   9.774   3.720  0.0892 -0.0138 -0.0605
10840SOL    HW137331   1.701   9.681   3.741  0.9349 -0.0335 -0.1316
10840SOL    HW237332   1.653   9.815   3.792 -1.6148 -0.6402 -0.7492
10841SOL     OW37333  12.593   8.169   1.973  0.1716 -0.3069 -0.6520
10841SOL    HW137334  12.570   8.233   2.040  1.6133  1.7901 -2.0416
10841SOL    HW237335  12.517   8.168   1.914 -0.2184 -0.5515 -0.1486
10842SOL     OW37336   9.639   1.999   1.391  0.3270 -0.3754 -0.1148
10842SOL    HW137337   9.712   1.937   1.391  0.3048 -0.4276 -1.1807
10842SOL    HW237338   9.629   2.023   1.299 -1.9790 -1.5491 -0.2482
10843SOL     OW37339   8.620   0.770   7.420  0.3167  0.0826  0.2753
10843SOL    HW137340   8.690   0.821   7.460 -1.3214  1.8218  1.1281
10843SOL    HW237341   8.543   0.826   7.428 -0.9619 -1.2974 -1.5855
10844SOL     OW37342   7.678  12.477  11.438 -0.2877  0.3600 -0.9698
10844SOL    HW137343   7.648  12.567  11.449 -0.6737  0.1684 -0.3790
10844SOL    HW237344   7.767  12.485  11.403 -0.3893  0.9632 -1.0961
10845SOL     OW37345  12.571  10.412   7.218  0.1584 -0.6230 -0.0056
10845SOL    HW137346  12.556  10.332   7.268 -1.0974 -0.5395 -0.1999
10845SOL    HW237347  12.590  10.383   7.129 -1.7135 -0.7127 -0.4142
10846SOL     OW37348   2.815  10.155   0.127  0.0804  0.0034  0.2234
10846SOL    HW137349   2.824  10.189   0.038  1.5479  0.3958  0.4941
10846SOL    HW237350   2.902  10.118   0.147  0.2484  1.2838  2.0423
10847SOL     OW37351   8.863   2.771   6.454 -0.0048  0.5744 -0.2031
10847SOL    HW137352   8.926   2.814   6.511 -0.8030  0.3931  0.8458
10847SOL    HW237353   8.778   2.804   6.484 -0.6507 -1.6823  0.5972
10848SOL     OW37354   1.099   5.897   2.853  0.3856  0.2224  0.1112
10848SOL    HW137355   1.161   5.868   2.785  0.0500 -1.2818  0.4052
10848SOL    HW237356   1.135   5.862   2.934  0.0034  0.7446  0.5087
10849SOL     OW37357   5.714   9.879  11.253 -0.1920  0.0867  0.2835
10849SOL    HW137358   5.636   9.933  11.268 -0.3230  0.4884 -1.5201
10849SOL    HW237359   5.683   9.789  11.257 -0.3679  0.1826  1.3588
10850SOL     OW37360   1.612  10.584   9.825  0.0945  0.0860  0.5055
10850SOL    HW137361   1.704  10.609   9.830 -0.2700  1.3115  1.3242
10850SOL    HW237362   1.588  10.561   9.915 -0.4019 -0.2205  0.2989
10851SOL     OW37363   7.306  12.368  10.447  0.3356  0.1739  0.2536
10851SOL    HW137364   7.353  12.315  10.512  1.4655  1.5103  0.5709
10851SOL    HW237365   7.349  12.347  10.364 -0.0341 -0.3163  0.1818
10852SOL     OW37366  12.138   6.521   8.537 -0.4313  0.1245  0.3260
10852SOL    HW137367  12.071   6.455   8.554 -0.9498  0.9756  1.7757
10852SOL    HW237368  12.149   6.520   8.442 -1.9845 -0.5479  0.1242
10853SOL     OW37369  11.348   4.778   6.083 -0.0124 -0.5413  0.2984
10853SOL    HW137370  11.379   4.691   6.058 -0.9172 -0.8446  0.1653
10853SOL    HW237371  11.270   4.792   6.028 -0.3409  0.0124  0.8835
10854SOL     OW37372   9.058   4.426   4.165 -0.9096 -0.3288 -0.0877
10854SOL    HW137373   9.138   4.417   4.217 -1.0256  1.1929  0.3984
10854SOL    HW237374   9.018   4.507   4.196 -1.8754 -0.2772 -1.3778
10855SOL     OW37375   3.396   3.976   2.351  0.2580 -0.3426  0.3378
10855SOL    HW137376   3.434   4.043   2.294 -2.0881  1.9306  1.2471
10855SOL    HW237377   3.470   3.940   2.399  1.7219  0.9456 -0.8663
10856SOL     OW37378   0.454   0.540   3.901 -0.3741 -0.4120 -0.3577
10856SOL    HW137379   0.527   0.513   3.845 -0.3489 -1.2808  0.0723
10856SOL    HW237380   0.396   0.588   3.842  0.8942  0.9705 -0.5369
10857SOL     OW37381   3.226   9.049   2.931 -0.8124 -0.5557 -0.8228
10857SOL    HW137382   3.162   9.039   3.001 -0.0907  1.1867  0.1518
10857SOL    HW237383   3.189   9.116   2.874 -0.1808 -0.0423 -0.6360
10858SOL     OW37384  10.575   5.182  11.777  0.3901 -0.1630  0.2348
10858SOL    HW137385  10.641   5.208  11.841  2.4960  1.4256 -2.3540
10858SOL    HW237386  10.618   5.115  11.723 -0.6284 -0.1801 -0.6065
10859SOL     OW37387   1.098   8.098   9.437 -0.1093 -0.1427 -0.3537
10859SOL    HW137388   1.085   8.139   9.352 -1.4471 -0.2592 -0.2152
10859SOL    HW237389   1.048   8.153   9.498  0.1607 -0.5363  0.2302
10860SOL     OW37390   9.109   1.410   8.358 -0.4791 -0.4069  0.4212
10860SOL    HW137391   9.094   1.399   8.264  1.7519 -0.2144 -0.0085
10860SOL    HW237392   9.144   1.499   8.367  2.0765 -1.3739  0.9780
10861SOL     OW37393   3.879   4.200   3.361  0.0721  0.3552 -0.0569
10861SOL    HW137394   3.924   4.242   3.434 -1.2937  0.7668  0.5780
10861SOL    HW237395   3.789   4.191   3.391 -0.4722  0.3725 -1.6384
10862SOL     OW37396   6.070   7.627  10.748 -0.0360 -0.6842 -0.2221
10862SOL    HW137397   6.026   7.566  10.807 -1.1064  0.0612 -0.2246
10862SOL    HW237398   6.054   7.591  10.660 -0.1350 -0.7378 -0.1828
10863SOL     OW37399   4.512   6.200   2.126  0.0210  0.1114  0.2700
10863SOL    HW137400   4.589   6.257   2.119  0.6158 -0.3087  2.5316
10863SOL    HW237401   4.547   6.111   2.125 -0.3607 -0.0797  1.5881
10864SOL     OW37402   8.036   3.329  12.368 -0.1787  0.5952 -0.0224
10864SOL    HW137403   8.031   3.417  12.406 -1.4756  1.5123 -2.1385
10864SOL    HW237404   7.957   3.285  12.400 -0.3694  0.7682 -0.2525
10865SOL     OW37405   2.247   6.420   6.056  0.3023  1.1631 -0.3597
10865SOL    HW137406   2.215   6.445   5.969  0.8534  0.1464 -0.8753
10865SOL    HW237407   2.342   6.421   6.047  0.3543  0.6963  0.1301
10866SOL     OW37408  10.909   5.564   3.875 -0.4298 -0.5867 -0.2235
10866SOL    HW137409  10.895   5.657   3.854  2.3958  0.4258  1.6860
10866SOL    HW237410  10.832   5.539   3.924 -1.6387  0.4638 -1.4797
10867SOL     OW37411   7.133  12.387   7.425 -0.2588 -0.2811 -0.1490
10867SOL    HW137412   7.193  12.330   7.378 -0.4104 -0.5704  0.0044
10867SOL    HW237413   7.163  12.382   7.516  0.2487  0.5466 -0.2639
10868SOL     OW37414   1.397   6.928   4.778 -0.0633  1.0964  0.5239
10868SOL    HW137415   1.348   6.957   4.701 -1.6071 -0.9231  0.6570
10868SOL    HW237416   1.471   6.879   4.742 -1.8460 -1.5432  0.2043
10869SOL     OW37417   3.658  11.744   1.653  0.3818 -0.0798 -0.1766
10869SOL    HW137418   3.627  11.657   1.629 -0.5058 -0.0928  0.9587
10869SOL    HW237419   3.691  11.781   1.571 -0.6762 -0.8887 -0.9892
10870SOL     OW37420   1.761   3.931   1.057 -0.3338 -0.4044  0.2540
10870SOL    HW137421   1.714   3.869   1.001 -0.2918  0.2500 -0.5319
10870SOL    HW237422   1.692   3.988   1.092 -0.2835 -0.3689  0.2954
10871SOL     OW37423   9.344  11.754   7.497  0.2120  0.4782  0.5641
10871SOL    HW137424   9.421  11.767   7.552  0.4404  0.5496  0.2350
10871SOL    HW237425   9.379  11.753   7.408 -0.1773  0.5758  0.4091
10872SOL     OW37426   2.154   7.486   2.862 -0.2531 -0.0443  0.7982
10872SOL    HW137427   2.192   7.573   2.854  0.0597 -0.2049  0.5486
10872SOL    HW237428   2.068   7.501   2.902 -0.7457  0.5084 -0.4501
10873SOL     OW37429   4.027   9.560   6.495  0.0424 -0.3710  0.3420
10873SOL    HW137430   4.077   9.489   6.454 -0.1573 -1.1391  1.3816
10873SOL    HW237431   3.936   9.529   6.495 -0.6209  1.2702 -2.0917
10874SOL     OW37432   8.390   8.168   5.622 -0.3058  0.3512  0.2004
10874SOL    HW137433   8.391   8.132   5.711  0.8245  0.8738  0.4271
10874SOL    HW237434   8.357   8.097   5.568  0.6438 -0.6066  0.8188
10875SOL     OW37435   8.781  12.498  10.656 -0.2413 -0.6956  0.1316
10875SOL    HW137436   8.813  12.456  10.735  0.9086 -0.4604 -0.1970
10875SOL    HW237437   8.808  12.590  10.664  0.4557 -0.8054 -0.8166
10876SOL     OW37438   9.969   0.911  11.166 -0.5069 -0.1839  0.4590
10876SOL    HW137439  10.004   0.999  11.153  0.4052 -0.9408 -3.0751
10876SOL    HW237440  10.044   0.858  11.192 -0.9675 -0.0772  2.1333
10877SOL     OW37441   7.342   0.864   6.720 -0.2429  0.1935 -0.9107
10877SOL    HW137442   7.339   0.947   6.672  1.0090 -0.0012 -1.3485
10877SOL    HW237443   7.401   0.881   6.794 -0.1120 -0.2705 -0.9093
10878SOL     OW37444   5.589  10.677   3.955 -0.3028 -0.9820  0.9696
10878SOL    HW137445   5.495  10.660   3.954 -0.3992 -0.5392  1.4794
10878SOL    HW237446   5.629  10.595   3.982 -0.2933 -2.0823 -2.0870
10879SOL     OW37447   8.299   8.172   5.906 -0.2850  0.3244  0.3177
10879SOL    HW137448   8.245   8.148   5.981  0.7360  2.3010  1.7808
10879SOL    HW237449   8.326   8.263   5.924  1.3789  0.2788 -1.6128
10880SOL     OW37450   5.665   0.570   1.636 -0.0531 -0.3808  1.0701
10880SOL    HW137451   5.600   0.502   1.616  1.0499 -0.7774 -1.5682
10880SOL    HW237452   5.748   0.534   1.605  0.8562  1.4748  1.1990
10881SOL     OW37453   8.522   0.516   1.732  0.2155 -0.6662 -0.1880
10881SOL    HW137454   8.560   0.494   1.817 -0.3616  0.5691  0.4045
10881SOL    HW237455   8.497   0.608   1.739 -1.5869 -1.0407 -1.0400
10882SOL     OW37456   1.540   7.338   8.978  0.3258 -0.0607  0.2161
10882SOL    HW137457   1.504   7.347   9.066  1.1440 -1.9097  0.7865
10882SOL    HW237458   1.596   7.260   8.983  1.5344  0.6331 -1.5649
10883SOL     OW37459   8.971   0.198  12.135 -0.4553 -0.0031 -0.0166
10883SOL    HW137460   8.973   0.119  12.190  0.4890  0.2250  0.2887
10883SOL    HW237461   9.057   0.201  12.095 -0.6818  0.5804 -0.4640
10884SOL     OW37462   6.328   4.686   7.660 -0.5454  0.1929 -0.2565
10884SOL    HW137463   6.414   4.644   7.651 -0.1373  0.6022  1.4389
10884SOL    HW237464   6.338   4.769   7.615  0.1756  0.5102  0.4526
10885SOL     OW37465   2.444   3.643   0.393  0.1034  0.5176 -0.0960
10885SOL    HW137466   2.426   3.654   0.486 -2.7130  0.6451 -0.5623
10885SOL    HW237467   2.468   3.730   0.362  2.7843  0.1559  0.7575
10886SOL     OW37468  10.173   8.953   4.461 -0.5105 -0.1262  0.4086
10886SOL    HW137469  10.084   8.977   4.490 -0.7550 -2.1605  1.5048
10886SOL    HW237470  10.188   8.866   4.498  1.5052 -0.3405 -0.7638
10887SOL     OW37471   6.608  11.145   1.388 -0.0417  0.6797  0.2904
10887SOL    HW137472   6.581  11.059   1.421 -0.7398  0.8262  0.1180
10887SOL    HW237473   6.575  11.148   1.299 -0.8010  1.4809  0.5896
10888SOL     OW37474   3.949   7.148   3.031  0.0289 -0.5838 -0.3398
10888SOL    HW137475   3.907   7.171   2.948 -0.0526  0.5952  0.0161
10888SOL    HW237476   3.959   7.053   3.027  0.7667 -0.4673 -2.0575
10889SOL     OW37477   0.212   7.347   9.641 -0.3731  0.4576 -0.3961
10889SOL    HW137478   0.252   7.262   9.659 -3.0046 -1.2031 -1.6834
10889SOL    HW237479   0.272   7.389   9.579  0.1719 -1.2160 -1.0548
10890SOL     OW37480  10.225   0.721   8.279  0.3850  0.2764 -0.5440
10890SOL    HW137481  10.281   0.659   8.233  2.4197  1.6135  0.0355
10890SOL    HW237482  10.235   0.803   8.231  1.2370  1.2784  1.2536
10891SOL     OW37483  11.736   4.106   7.666  0.2484 -0.0659  0.2863
10891SOL    HW137484  11.827   4.098   7.639  0.1871  1.3931 -0.4794
10891SOL    HW237485  11.688   4.121   7.584 -0.5777 -0.0948  0.7538
10892SOL     OW37486   0.085  11.154   8.240 -1.1054 -0.0011 -0.2607
10892SOL    HW137487   0.104  11.069   8.199 -0.8404  0.2595 -0.6885
10892SOL    HW237488   0.153  11.163   8.307  0.5876  1.0967 -2.0335
10893SOL     OW37489   1.857   3.133   3.605  0.7667 -0.6383  0.1918
10893SOL    HW137490   1.915   3.198   3.565 -1.0377  1.3882  0.6907
10893SOL    HW237491   1.802   3.103   3.532  0.6446 -0.5414  0.2453
10894SOL     OW37492   5.884   6.739   5.045  0.7478 -0.5871  0.3415
10894SOL    HW137493   5.932   6.753   5.126  0.1038 -0.2912  0.6773
10894SOL    HW237494   5.796   6.712   5.073  0.4414 -0.2311 -0.2468
10895SOL     OW37495   5.531   4.638   6.935 -0.4488 -0.4271 -0.1063
10895SOL    HW137496   5.548   4.726   6.901  0.4844 -0.7818 -0.5793
10895SOL    HW237497   5.438   4.623   6.917 -0.4468  0.1787 -0.6531
10896SOL     OW37498  11.479  11.065   8.893  0.8453 -0.0011  0.2300
10896SOL    HW137499  11.421  11.076   8.968  1.7938  0.3037  0.9358
10896SOL    HW237500  11.531  10.987   8.913 -0.1196 -1.0088 -0.9588
10897SOL     OW37501   3.327   9.379   9.247  0.1127 -0.5249  0.5006
10897SOL    HW137502   3.378   9.351   9.324  2.3590 -0.0072 -0.7272
10897SOL    HW237503   3.298   9.297   9.207  0.8922 -0.8855  0.6476
10898SOL     OW37504   7.079  11.303   5.731 -0.7243 -0.0654  0.1670
10898SOL    HW137505   7.076  11.307   5.827  0.7851  0.6669  0.2210
10898SOL    HW237506   7.125  11.384   5.706 -1.1315 -0.2321 -1.1757
10899SOL     OW37507   5.180   5.673   0.867  0.5400  0.0820 -0.0481
10899SOL    HW137508   5.262   5.718   0.847  0.1618  0.1221 -1.6411
10899SOL    HW237509   5.168   5.610   0.795 -1.8908  1.5737 -1.0865
10900SOL     OW37510   3.225   6.169  10.997 -0.3005  0.0534  0.5038
10900SOL    HW137511   3.237   6.188  11.090 -0.9311  0.8615  0.4371
10900SOL    HW237512   3.269   6.242  10.952 -2.9854  1.6669  0.2373
10901SOL     OW37513  12.620   5.248   9.880  0.3251  0.0184  0.0063
10901SOL    HW137514  12.631   5.337   9.847 -2.6365 -0.0539 -1.5030
10901SOL    HW237515  12.603   5.195   9.801 -0.3149 -1.4345  1.0667
10902SOL     OW37516  10.568   0.588   2.673 -0.3731 -0.2369 -0.3512
10902SOL    HW137517  10.569   0.506   2.721  3.2125  0.7326  1.5763
10902SOL    HW237518  10.653   0.592   2.628  0.2967  2.9892  0.9050
10903SOL     OW37519   1.591  12.564  11.559 -0.4790  0.4809  0.1023
10903SOL    HW137520   1.604  12.513  11.479 -2.5849 -0.6338  0.4103
10903SOL    HW237521   1.571  12.652  11.527 -0.0339  0.3656 -0.5352
10904SOL     OW37522   8.016   3.916   9.905 -0.3823  0.3102 -0.1203
10904SOL    HW137523   8.038   3.953   9.990  0.4072 -0.7052  0.1414
10904SOL    HW237524   7.930   3.952   9.884 -0.1062  1.4134  0.5958
10905SOL     OW37525   1.805   6.040   3.914 -0.0518  0.5565 -0.4097
10905SOL    HW137526   1.801   5.955   3.957 -1.3141  0.3100 -0.9625
10905SOL    HW237527   1.883   6.035   3.858  0.6701  0.2944  0.5866
10906SOL     OW37528   3.022   9.305   6.677  0.0831 -0.3660  0.2455
10906SOL    HW137529   3.095   9.273   6.625 -0.2258  0.6221 -0.8217
10906SOL    HW237530   3.062   9.356   6.747  0.4295  2.5404 -1.9043
10907SOL     OW37531   3.535   4.733  12.332 -0.5339  0.1334 -0.1693
10907SOL    HW137532   3.611   4.682  12.307  0.6192  2.2335 -1.2684
10907SOL    HW237533   3.485   4.743  12.251 -0.3969  1.2463 -0.1353
10908SOL     OW37534   6.524  11.817   9.531  0.1628 -0.0981 -0.2576
10908SOL    HW137535   6.599  11.870   9.560 -0.7053  0.6921  0.6237
10908SOL    HW237536   6.516  11.837   9.438 -1.4734  3.1284  0.4502
10909SOL     OW37537   9.120   8.417   2.893 -0.6294  0.5561 -0.1044
10909SOL    HW137538   9.065   8.364   2.949 -1.2245 -0.7658 -1.8607
10909SOL    HW237539   9.059   8.467   2.839 -0.1271 -0.0643 -1.2842
10910SOL     OW37540   6.946   2.030   5.026  0.0147  0.1773 -0.0793
10910SOL    HW137541   6.924   1.939   5.006 -0.6475  0.0067  1.3029
10910SOL    HW237542   7.026   2.023   5.078  0.2484  0.4311 -0.4020
10911SOL     OW37543   5.484   3.592   5.944 -0.4100 -0.0776 -0.2321
10911SOL    HW137544   5.546   3.531   5.984 -0.7604 -0.3630 -0.1122
10911SOL    HW237545   5.398   3.557   5.968 -0.6169  0.7364  0.2639
10912SOL     OW37546   4.905   9.883   5.583  0.3864 -0.4404  0.5577
10912SOL    HW137547   4.908   9.787   5.575  1.6876 -0.4580  1.1431
10912SOL    HW237548   4.861   9.912   5.503 -1.9493 -1.6371  1.3097
10913SOL     OW37549   9.326   1.937   2.587 -0.0180  0.1754 -0.8944
10913SOL    HW137550   9.241   1.925   2.545 -0.6902 -1.3742  0.7578
10913SOL    HW237551   9.377   1.860   2.562  0.3932  0.3911 -0.7426
10914SOL     OW37552   1.758   1.255  12.442 -0.1305  0.1510 -0.6852
10914SOL    HW137553   1.762   1.163  12.416 -0.8005 -0.6442  1.7904
10914SOL    HW237554   1.707   1.297  12.373 -1.5344 -1.7415 -0.8754
10915SOL     OW37555   8.874   4.222   4.837 -0.0615  0.4116  0.2313
10915SOL    HW137556   8.814   4.279   4.885 -0.6835  0.0112 -0.0669
10915SOL    HW237557   8.839   4.218   4.749 -0.3267 -0.8396  0.3661
10916SOL     OW37558   8.498   0.549   0.471  0.2836 -0.2304  0.2130
10916SOL    HW137559   8.485   0.454   0.480 -0.3281 -0.0729  1.1738
10916SOL    HW237560   8.464   0.585   0.553  1.3509  0.7516  0.2494
10917SOL     OW37561   8.692   6.526   4.525 -0.2317  0.0606 -0.0475
10917SOL    HW137562   8.656   6.483   4.448 -0.2564  0.6727 -0.3832
10917SOL    HW237563   8.726   6.455   4.579  0.4677 -0.3236 -0.9711
10918SOL     OW37564  11.903   5.026   3.932  0.4708 -0.1025 -0.3292
10918SOL    HW137565  11.953   5.064   4.006  0.1934 -0.4124  0.0185
10918SOL    HW237566  11.820   5.073   3.934  1.1207  1.2013 -1.5854
10919SOL     OW37567   7.211   9.421   8.727 -0.2516 -0.1531  0.1949
10919SOL    HW137568   7.191   9.515   8.735  0.6554  0.0688 -0.0045
10919SOL    HW237569   7.274   9.404   8.797  1.1529 -0.1362 -1.0101
10920SOL     OW37570  11.787   5.694   2.161  0.6059 -0.3442  0.3837
10920SOL    HW137571  11.819   5.673   2.073 -0.5549 -0.2110 -0.0955
10920SOL    HW237572  11.849   5.759   2.194  1.1337 -0.4879 -0.2890
10921SOL     OW37573   6.115   0.886   7.473  0.4582  0.2750  0.1566
10921SOL    HW137574   6.040   0.928   7.429  0.7361  0.5086 -0.0982
10921SOL    HW237575   6.149   0.953   7.532  1.0664  0.5120 -0.4441
10922SOL     OW37576   1.604   2.710  12.625 -0.4101 -0.0805  0.4613
10922SOL    HW137577   1.649   2.722  12.709  1.7774  1.1139 -0.8063
10922SOL    HW237578   1.575   2.619  12.627  0.6486 -0.4370  2.0220
10923SOL     OW37579   7.965   1.697   1.794  0.2297  0.6426  0.1952
10923SOL    HW137580   7.897   1.755   1.828 -0.9145 -0.7738  0.3773
10923SOL    HW237581   8.012   1.667   1.872  0.2344  0.5936  0.1731
10924SOL     OW37582   6.466   4.239   8.658 -0.3051  0.0757  0.1809
10924SOL    HW137583   6.450   4.228   8.752 -0.6223  1.9212  0.3767
10924SOL    HW237584   6.560   4.220   8.649 -0.7369 -2.5988  0.3950
10925SOL     OW37585   1.869   7.962   9.978 -0.2527 -0.5348  0.2962
10925SOL    HW137586   1.897   8.047   9.944 -1.9812 -0.8665 -2.2334
10925SOL    HW237587   1.827   7.982  10.061 -0.6013  1.0967 -0.2377
10926SOL     OW37588  11.406   5.642  12.167  0.4897  0.0956  0.0112
10926SOL    HW137589  11.427   5.670  12.256 -1.0640 -1.1980  0.8409
10926SOL    HW237590  11.478   5.586  12.142  0.3667 -0.5218  0.9648
10927SOL     OW37591   9.704   0.738   2.316  1.0956 -0.3367 -0.4751
10927SOL    HW137592   9.680   0.687   2.239  1.5066  2.2167 -2.4312
10927SOL    HW237593   9.798   0.723   2.326  1.6183  1.3087 -2.2010
10928SOL     OW37594   7.825   5.363   0.063 -0.3283  0.0362  0.3237
10928SOL    HW137595   7.870   5.306   0.001  0.5104  0.5757  0.4040
10928SOL    HW237596   7.735   5.332   0.065 -0.4833  0.2567 -1.4601
10929SOL     OW37597   2.083  12.132  11.391 -0.3282  0.1039  0.1999
10929SOL    HW137598   2.072  12.205  11.330 -1.3950  0.7999  1.1800
10929SOL    HW237599   2.084  12.054  11.336  0.5234  0.8277 -0.8468
10930SOL     OW37600   8.014  11.006   6.370 -0.0219 -0.3046  0.0223
10930SOL    HW137601   7.999  10.927   6.317 -1.2965  0.9902 -1.6412
10930SOL    HW237602   8.104  10.998   6.400  0.2524 -1.8326 -1.0820
10931SOL     OW37603   4.371  11.114   9.547  0.0646 -0.1288 -0.0782
10931SOL    HW137604   4.391  11.205   9.529 -0.8414  0.0720 -0.1003
10931SOL    HW237605   4.276  11.111   9.559  0.0993 -1.0335  0.1061
10932SOL     OW37606   4.959   9.700   9.301 -0.2730 -0.0569 -0.1592
10932SOL    HW137607   4.972   9.795   9.306 -1.6314  0.1518 -0.3621
10932SOL    HW237608   5.023   9.671   9.235  0.3457  0.6696  0.1084
10933SOL     OW37609   1.600   5.807  12.292 -0.4879  0.0847 -0.5009
10933SOL    HW137610   1.573   5.804  12.200  0.7526  2.4586 -1.0165
10933SOL    HW237611   1.694   5.822  12.289 -0.1560 -1.2926  1.2249
10934SOL     OW37612   5.290   5.238   7.840  0.5812  0.1626  0.0077
10934SOL    HW137613   5.386   5.239   7.839  0.6033 -0.9435 -0.2299
10934SOL    HW237614   5.267   5.148   7.862 -0.4020  0.0654 -1.2836
10935SOL     OW37615   3.062   3.617   7.166  0.2249  0.1645 -0.0266
10935SOL    HW137616   3.103   3.700   7.139  0.2428 -0.3400 -1.6695
10935SOL    HW237617   2.997   3.599   7.098 -0.0295 -0.9951  0.5012
10936SOL     OW37618   9.456   4.949   7.794  0.4316  0.1392  0.3517
10936SOL    HW137619   9.438   5.011   7.724  0.3432  1.9858  1.9337
10936SOL    HW237620   9.370   4.914   7.819  0.4162 -0.1741 -0.1296
10937SOL     OW37621   7.710   3.713  11.760  0.0465  0.0560 -0.5152
10937SOL    HW137622   7.714   3.747  11.850 -0.4696 -1.7636  0.2316
10937SOL    HW237623   7.778   3.646  11.757 -1.2166 -1.2406 -0.8751
10938SOL     OW37624   7.033   6.532   3.838 -0.4356 -0.3513  0.6380
10938SOL    HW137625   7.112   6.480   3.830 -1.2782 -1.4412 -0.9946
10938SOL    HW237626   7.060   6.621   3.815  0.3760 -0.6291  0.5033
10939SOL     OW37627   6.880   9.698  10.610  0.4920  0.1248  0.1901
10939SOL    HW137628   6.851   9.759  10.542 -1.7132 -1.8323 -0.7585
10939SOL    HW237629   6.882   9.613  10.566  0.6119 -0.9460  2.1837
10940SOL     OW37630   1.661   4.985  11.858 -0.1232  0.4205  0.4599
10940SOL    HW137631   1.650   5.037  11.938 -0.6527  1.3854 -0.2179
10940SOL    HW237632   1.715   5.040  11.801 -0.1685 -0.0492 -0.0409
10941SOL     OW37633   5.966   4.397   8.043  0.2190  0.1917 -0.1236
10941SOL    HW137634   6.044   4.341   8.049 -0.5664 -0.8875  0.5555
10941SOL    HW237635   5.903   4.344   7.994 -1.5279 -0.8097  2.9202
10942SOL     OW37636   8.568  10.981   3.179  0.3018  0.5144 -0.5823
10942SOL    HW137637   8.660  10.982   3.202  0.3943  1.1844 -0.9467
10942SOL    HW237638   8.535  11.067   3.208 -0.4626 -0.1329  0.5376
10943SOL     OW37639  10.544  12.610   8.867  0.1000 -0.2907 -0.5855
10943SOL    HW137640  10.479  12.562   8.817 -0.1527 -0.4284 -0.1353
10943SOL    HW237641  10.615  12.626   8.805 -0.3675 -0.1223 -1.0840
10944SOL     OW37642   4.365   5.087   2.214 -0.1850  0.1367  0.5133
10944SOL    HW137643   4.440   5.090   2.274  0.6664 -1.0238 -0.4535
10944SOL    HW237644   4.403   5.063   2.129 -1.1558  3.0902 -0.8819
10945SOL     OW37645   8.910   9.021  10.203  1.0633  0.3323  0.4461
10945SOL    HW137646   8.973   8.997  10.135  0.1025  0.8774 -0.6556
10945SOL    HW237647   8.890   9.113  10.186 -0.5696 -0.0181  0.3271
10946SOL     OW37648   6.958   6.151   0.509 -0.2489  0.1333  0.6948
10946SOL    HW137649   6.958   6.237   0.467  0.0331 -0.8984 -1.5737
10946SOL    HW237650   6.922   6.166   0.597 -2.5677  2.1372 -0.5004
10947SOL     OW37651   8.853   4.225   6.156  0.2702 -0.4974 -0.3532
10947SOL    HW137652   8.813   4.311   6.175  1.9972 -0.2342  2.7336
10947SOL    HW237653   8.792   4.162   6.196  0.9767 -0.3587  1.0059
10948SOL     OW37654  10.438  11.469  12.330 -0.3820 -0.1994  0.2862
10948SOL    HW137655  10.446  11.380  12.295 -0.8837  0.6229 -2.0632
10948SOL    HW237656  10.529  11.497  12.343 -0.1915 -0.6765  0.0223
10949SOL     OW37657  11.065   7.290   8.007  0.3741  0.5363 -0.1496
10949SOL    HW137658  11.046   7.378   8.040 -0.6523  0.6721 -1.0574
10949SOL    HW237659  10.997   7.274   7.941  0.2818 -1.1071  0.3040
10950SOL     OW37660  10.628   7.163   8.764 -0.2433  0.4991  0.2047
10950SOL    HW137661  10.625   7.237   8.825 -0.5244  1.0223 -0.4379
10950SOL    HW237662  10.636   7.203   8.678 -1.6389 -0.1618 -0.2625
10951SOL     OW37663   1.617   8.018  10.162 -0.1754 -0.0426 -0.1451
10951SOL    HW137664   1.578   7.992  10.246 -1.7370  0.2244 -0.7542
10951SOL    HW237665   1.551   8.074  10.122 -0.2271 -1.5585 -2.3232
10952SOL     OW37666  12.002  11.245   9.388 -0.0866 -0.2840 -0.5248
10952SOL    HW137667  12.080  11.224   9.337 -0.2415 -0.0551 -0.8581
10952SOL    HW237668  11.975  11.161   9.427  0.1273 -0.4266 -0.6838
10953SOL     OW37669  12.518   3.844   4.623 -0.0629  0.5333  0.0631
10953SOL    HW137670  12.462   3.907   4.575  0.2563  0.0738 -0.9395
10953SOL    HW237671  12.606   3.860   4.588  0.0559 -0.3039 -0.0281
10954SOL     OW37672  12.573   5.598   2.833 -0.1843 -0.1421 -0.3979
10954SOL    HW137673  12.651   5.566   2.787  1.4049  0.6388  1.5471
10954SOL    HW237674  12.603   5.680   2.875 -2.1830  0.3944  0.0794
10955SOL     OW37675   5.088   9.695  11.588  0.1002 -0.7027 -0.2823
10955SOL    HW137676   5.149   9.733  11.651  1.9151 -3.2058 -0.3804
10955SOL    HW237677   5.116   9.729  11.504 -0.4058  0.2722 -0.0711
10956SOL     OW37678   1.594   2.869  10.403 -0.3940 -0.6583 -0.2253
10956SOL    HW137679   1.602   2.911  10.317 -2.2431 -1.7315 -0.9655
10956SOL    HW237680   1.673   2.816  10.411  0.3273  0.2924 -0.7525
10957SOL     OW37681   5.054   5.674   5.833  0.1301  0.0077 -0.2315
10957SOL    HW137682   5.081   5.690   5.742 -0.6488  0.5748 -0.3739
10957SOL    HW237683   4.992   5.744   5.852 -0.5035 -0.7103  0.4054
10958SOL     OW37684  10.072  11.801   3.622  0.4199 -0.5585 -0.4982
10958SOL    HW137685  10.107  11.819   3.709  1.9591 -1.4407 -0.8919
10958SOL    HW237686  10.004  11.735   3.637  1.9625 -2.1290 -0.1082
10959SOL     OW37687   7.128  11.651   3.072  0.1831 -1.2558  0.3503
10959SOL    HW137688   7.104  11.741   3.047 -0.6876 -1.2191  1.2362
10959SOL    HW237689   7.118  11.600   2.991 -0.7135 -0.8078  0.1601
10960SOL     OW37690   2.255   8.901   1.017 -0.3550  0.2136  0.3061
10960SOL    HW137691   2.217   8.919   0.931 -0.0318  0.5773  0.2336
10960SOL    HW237692   2.300   8.983   1.040 -1.9396  0.7670  1.6297
10961SOL     OW37693   6.155   1.818   4.493  0.0522 -0.2338  0.4906
10961SOL    HW137694   6.187   1.811   4.403 -1.6336  2.2685 -0.4549
10961SOL    HW237695   6.061   1.800   4.486  0.0977 -1.1935  1.9911
10962SOL     OW37696   3.242   3.125   0.326 -0.2768 -0.4509 -0.4214
10962SOL    HW137697   3.198   3.086   0.251  0.0500 -0.3613 -0.6607
10962SOL    HW237698   3.309   3.062   0.351  0.3857  0.0395 -0.9356
10963SOL     OW37699   0.569  11.004   9.450 -0.0309  0.2807  0.0043
10963SOL    HW137700   0.510  11.040   9.517  0.0198  0.7653 -0.2125
10963SOL    HW237701   0.524  10.925   9.419 -0.3589  0.4056  0.1552
10964SOL     OW37702   6.733   7.384  10.598 -0.2341 -0.5916  0.0116
10964SOL    HW137703   6.709   7.312  10.539  0.8115 -0.0980 -1.0474
10964SOL    HW237704   6.651   7.431  10.612 -0.8818 -1.7986  0.4947
10965SOL     OW37705   5.769  11.401  10.485 -0.2126 -0.5289 -0.1184
10965SOL    HW137706   5.725  11.480  10.455 -0.3823 -0.5155  0.1622
10965SOL    HW237707   5.791  11.418  10.577  0.6777 -0.4025 -0.3385
10966SOL     OW37708   0.662   8.927   5.799  0.0315 -0.0197 -0.0812
10966SOL    HW137709   0.635   8.982   5.726  1.6728 -0.4963 -1.0867
10966SOL    HW237710   0.663   8.985   5.875 -1.1095  0.6152 -0.5320
10967SOL     OW37711   5.986   9.816  12.573 -0.1464  0.1516  0.3847
10967SOL    HW137712   5.976   9.901  12.531  0.5894 -0.8525 -1.9907
10967SOL    HW237713   5.949   9.828  12.661  1.2960  3.3304  0.7165
10968SOL     OW37714   1.636   3.522   6.634 -0.2540 -0.1271  0.4382
10968SOL    HW137715   1.604   3.434   6.617  1.3811 -0.6713 -0.0329
10968SOL    HW237716   1.645   3.526   6.729  0.1405 -0.6581  0.4278
10969SOL     OW37717   1.247   9.816  10.046  0.3129  0.0214 -0.3528
10969SOL    HW137718   1.308   9.865   9.991  0.1811  0.8426  0.2278
10969SOL    HW237719   1.296   9.739  10.075  0.7452  0.1712 -0.6895
10970SOL     OW37720  10.040   8.276  11.217  0.2243  0.3232  0.2564
10970SOL    HW137721   9.959   8.274  11.166 -0.7091  1.0815  1.6451
10970SOL    HW237722  10.033   8.355  11.271  2.7161  1.4364 -0.8751
10971SOL     OW37723   0.305   7.233   1.418 -0.3011 -0.5019 -0.7690
10971SOL    HW137724   0.340   7.309   1.372  0.4381 -1.1787 -1.3723
10971SOL    HW237725   0.371   7.212   1.484 -1.3947  0.5145  0.7147
10972SOL     OW37726  12.619   1.636  12.546  0.0545  0.0116 -0.1016
10972SOL    HW137727  12.596   1.715  12.499  1.3597  0.4255 -0.0869
10972SOL    HW237728  12.713   1.646  12.565  0.1995 -1.4409  0.0602
10973SOL     OW37729  12.178   3.832  11.242 -0.2235 -0.0392  0.6731
10973SOL    HW137730  12.174   3.740  11.267  1.3857 -0.3710 -0.1766
10973SOL    HW237731  12.091   3.851  11.208  0.0797 -1.9516 -1.4011
10974SOL     OW37732   2.671   3.818  10.363  0.1109  0.8107 -0.0429
10974SOL    HW137733   2.704   3.896  10.407 -0.5302  1.1350 -0.1219
10974SOL    HW237734   2.597   3.790  10.416  0.5211  0.0746  0.1489
10975SOL     OW37735  11.135  11.163   5.632 -0.5922  0.1185  0.1558
10975SOL    HW137736  11.208  11.222   5.613  0.4293 -1.1724 -0.1481
10975SOL    HW237737  11.175  11.076   5.631 -2.3570 -0.7486 -1.2752
10976SOL     OW37738   9.772   8.123   3.801 -0.3003 -0.1110 -0.6305
10976SOL    HW137739   9.754   8.196   3.860 -0.6466 -0.0920 -0.7614
10976SOL    HW237740   9.708   8.131   3.731 -1.4103 -1.4601  0.1823
10977SOL     OW37741   6.577   3.257   6.800  0.5373 -0.2750 -0.5579
10977SOL    HW137742   6.596   3.164   6.792  0.8526 -0.2792  0.1661
10977SOL    HW237743   6.663   3.299   6.795  0.4500 -0.0660 -0.3208
10978SOL     OW37744   7.561  10.891   4.270 -0.7066 -0.0749  0.2968
10978SOL    HW137745   7.605  10.919   4.350  0.3698  1.2748 -0.7140
10978SOL    HW237746   7.587  10.799   4.259 -0.8011 -0.2517  1.4241
10979SOL     OW37747   2.265   2.524   4.258  0.0909  0.0506  0.0780
10979SOL    HW137748   2.322   2.533   4.335  0.6851 -1.3905 -0.1540
10979SOL    HW237749   2.207   2.451   4.280  0.6083 -0.7188 -1.0187
10980SOL     OW37750   3.987   7.487  11.031  0.1400  0.7393 -0.1139
10980SOL    HW137751   3.892   7.472  11.032  0.0809  0.9379  2.0051
10980SOL    HW237752   4.024   7.405  10.998 -0.7008 -0.0383  0.8080
10981SOL     OW37753   6.672   1.436   9.071  0.2783  0.2644 -0.0212
10981SOL    HW137754   6.625   1.461   9.151 -0.7495 -0.9913 -0.2136
10981SOL    HW237755   6.725   1.361   9.097 -0.6546 -0.6493 -0.6852
10982SOL     OW37756  10.193   6.714   4.220 -0.5804  0.3945 -0.2508
10982SOL    HW137757  10.191   6.735   4.313  3.0153  0.3432  0.0026
10982SOL    HW237758  10.142   6.633   4.212 -0.5237  0.1050  1.7797
10983SOL     OW37759   4.104  12.638   7.521 -0.0559  0.2619  0.0362
10983SOL    HW137760   4.078  12.648   7.430 -0.3904 -0.2858  0.0644
10983SOL    HW237761   4.173  12.703   7.534 -0.1608  0.4940 -0.5431
10984SOL     OW37762   9.499   4.696   1.885 -0.4376 -0.3595 -0.0596
10984SOL    HW137763   9.516   4.773   1.939 -1.7131  0.1924 -0.3976
10984SOL    HW237764   9.568   4.634   1.909  0.8173  1.0017 -0.0319
10985SOL     OW37765   8.606   8.100   3.782 -0.5704 -0.4361 -0.2753
10985SOL    HW137766   8.556   8.059   3.853 -0.5794 -0.4958 -0.3153
10985SOL    HW237767   8.641   8.026   3.733 -1.7686 -0.4361 -1.1907
10986SOL     OW37768   5.062  10.928   2.719  0.1616  0.1035  0.2333
10986SOL    HW137769   5.015  11.002   2.759 -1.4261 -0.0154 -1.2714
10986SOL    HW237770   4.992  10.868   2.692  1.3862 -1.6602  0.8386
10987SOL     OW37771   4.816  10.258   9.495  0.2554  0.0427 -0.3220
10987SOL    HW137772   4.814  10.353   9.486  0.8221  0.1539  0.6362
10987SOL    HW237773   4.765  10.240   9.574 -0.6211 -0.5336 -0.9854
10988SOL     OW37774   5.255   7.946   6.122  0.2602 -0.5580  0.3123
10988SOL    HW137775   5.297   8.022   6.083 -0.3881 -1.1173 -1.5511
10988SOL    HW237776   5.313   7.920   6.194  2.1696 -0.2760 -1.0804
10989SOL     OW37777   2.024   0.526   3.421 -0.4509 -0.3410 -0.1752
10989SOL    HW137778   1.982   0.594   3.368  0.8223 -0.5577 -1.5396
10989SOL    HW237779   2.090   0.488   3.363 -1.2101 -2.8698  0.4968
10990SOL     OW37780   6.298   4.808   2.769 -0.0705 -0.9117 -0.4805
10990SOL    HW137781   6.297   4.793   2.674  0.2378 -0.4689 -0.5592
10990SOL    HW237782   6.350   4.888   2.779 -3.1724  1.2780 -0.2667
10991SOL     OW37783   8.487   7.096   1.382  0.1775  0.0069 -0.0011
10991SOL    HW137784   8.439   7.106   1.465  0.5604 -1.1872  0.3776
10991SOL    HW237785   8.533   7.180   1.371 -1.2286  0.8182  0.1017
10992SOL     OW37786   6.299  12.398   0.263  0.0296  0.1856  0.2418
10992SOL    HW137787   6.316  12.384   0.170 -1.6400 -1.7401  0.1660
10992SOL    HW237788   6.364  12.463   0.290 -0.1896  1.6771 -2.5129
10993SOL     OW37789   2.039   2.458   5.146  0.1271 -0.5072  0.6154
10993SOL    HW137790   2.034   2.523   5.076  0.7169  1.3885  2.2392
10993SOL    HW237791   2.092   2.387   5.109  0.6073  0.5318 -0.7806
10994SOL     OW37792  10.828   4.649  11.956 -0.1574  0.3663 -0.0656
10994SOL    HW137793  10.761   4.678  11.894  0.1848  2.3507  0.4457
10994SOL    HW237794  10.860   4.729  11.996  1.0455 -0.7259  1.2424
10995SOL     OW37795   3.788   4.940   5.168  0.0419  0.1211 -0.3283
10995SOL    HW137796   3.874   4.899   5.162  0.3677  0.8469 -0.9926
10995SOL    HW237797   3.799   5.024   5.123 -0.7424  0.6821  0.4912
10996SOL     OW37798   5.637   1.452   9.791  0.1073  0.1744  0.1161
10996SOL    HW137799   5.597   1.445   9.878  0.4632  0.9951  0.3593
10996SOL    HW237800   5.563   1.453   9.730 -0.2199  0.9279  0.5102
10997SOL     OW37801   4.957  12.610   8.271 -0.2292 -0.2240 -0.4513
10997SOL    HW137802   4.949  12.661   8.190  0.1220  0.4555 -0.0697
10997SOL    HW237803   4.912  12.528   8.252  1.7791 -1.0320 -2.1362
10998SOL     OW37804   4.229   0.151   4.124 -0.3661  0.3616  0.4627
10998SOL    HW137805   4.262   0.161   4.213  0.3942  0.0739  0.2206
10998SOL    HW237806   4.286   0.086   4.084 -2.4869 -1.7559  0.6417
10999SOL     OW37807  12.618  10.256   2.883 -0.4410 -0.7296  0.3727
10999SOL    HW137808  12.666  10.306   2.949 -1.5660 -0.3610  0.9282
10999SOL    HW237809  12.684  10.198   2.844  0.9094  1.1171 -0.2543
11000SOL     OW37810   0.140   5.364   1.360 -0.2088  0.1931 -0.2650
11000SOL    HW137811   0.049   5.334   1.362  0.0962 -0.7570  0.0330
11000SOL    HW237812   0.173   5.334   1.275 -0.0325  0.0913 -0.1614
11001SOL     OW37813  10.261   2.582   0.979 -0.0195  0.3363 -0.2224
11001SOL    HW137814  10.273   2.520   0.907  1.2515 -0.5068  0.6722
11001SOL    HW237815  10.187   2.636   0.952 -0.5620 -0.9592 -1.4557
11002SOL     OW37816   9.051   3.168   7.328  0.4019 -0.3806 -0.1914
11002SOL    HW137817   8.998   3.179   7.249 -0.2555  0.2352  0.3260
11002SOL    HW237818   9.097   3.251   7.338 -1.0452  0.3054  1.1615
11003SOL     OW37819   3.047   8.613   3.825 -0.3282  0.0055  0.3813
11003SOL    HW137820   3.085   8.701   3.832  1.6211 -0.7749  0.0449
11003SOL    HW237821   3.086   8.564   3.897 -0.8575 -0.7894  0.1416
11004SOL     OW37822   8.072  11.683   0.845 -0.4948  0.2679 -0.7107
11004SOL    HW137823   7.994  11.690   0.900  1.4861  0.7884  2.2906
11004SOL    HW237824   8.111  11.771   0.847  1.0286 -0.3691 -0.6676
11005SOL     OW37825   2.947  11.055   5.820  0.2833  0.0672  0.8455
11005SOL    HW137826   2.926  11.068   5.728  0.5221 -0.0434  0.7735
11005SOL    HW237827   3.021  10.994   5.819 -0.2355 -0.5896  1.1333
11006SOL     OW37828   4.454   8.055   0.320 -0.6424 -0.1805  0.2517
11006SOL    HW137829   4.372   8.034   0.363 -0.0841  1.5889  2.3325
11006SOL    HW237830   4.462   7.989   0.250 -3.9937 -0.1208 -0.3386
11007SOL     OW37831   3.344   9.477   7.467 -0.6827 -0.2912 -0.3415
11007SOL    HW137832   3.376   9.418   7.400 -1.8530 -0.2266 -0.9941
11007SOL    HW237833   3.364   9.434   7.550 -1.9091 -1.8491 -0.8092
11008SOL     OW37834  10.962   6.487   6.334 -0.0222 -0.2006 -0.0983
11008SOL    HW137835  10.903   6.508   6.261 -0.2642  0.4447  0.2756
11008SOL    HW237836  11.045   6.466   6.292 -0.7339 -2.0489 -0.6958
11009SOL     OW37837   0.867   3.027   2.471 -0.2756 -0.0438 -0.3727
11009SOL    HW137838   0.787   3.030   2.524 -0.6247 -1.9161 -0.6973
11009SOL    HW237839   0.938   3.038   2.534 -0.7235  3.0237 -0.2388
11010SOL     OW37840   3.594   4.086   3.114 -0.2284  0.2687 -0.5189
11010SOL    HW137841   3.578   4.023   3.183 -1.5887 -0.0371 -1.0809
11010SOL    HW237842   3.511   4.133   3.104  1.3472  3.9857  1.6025
11011SOL     OW37843   9.487  10.636   7.589 -0.4229 -0.1608 -0.0468
11011SOL    HW137844   9.466  10.543   7.595 -0.6341 -0.2780 -1.8970
11011SOL    HW237845   9.554  10.641   7.520  0.2844  0.9673  0.6925
11012SOL     OW37846   3.893   8.588   1.600  0.1321  0.6162 -0.3039
11012SOL    HW137847   3.827   8.621   1.662  0.4179 -0.1576  0.4305
11012SOL    HW237848   3.952   8.662   1.587  1.2222  0.2309  1.9483
11013SOL     OW37849   0.604   9.648   6.055 -0.3339 -0.0303 -0.4318
11013SOL    HW137850   0.641   9.716   5.999 -1.1994  1.3642  0.6506
11013SOL    HW237851   0.672   9.631   6.120  0.0300 -0.5031 -0.9196
11014SOL     OW37852   6.377  12.363   8.235 -0.0680  0.4092 -0.4442
11014SOL    HW137853   6.449  12.304   8.258  0.8415  0.7780 -2.1398
11014SOL    HW237854   6.356  12.409   8.317  2.3341  1.0115 -0.0900
11015SOL     OW37855   9.503   2.285  12.313 -0.4663  0.4020  0.3598
11015SOL    HW137856   9.571   2.313  12.375  1.0098  3.0575 -2.2128
11015SOL    HW237857   9.515   2.191  12.306  3.7677  0.8146 -0.6873
11016SOL     OW37858  12.469  11.335   3.677 -0.0650 -0.0802  0.5897
11016SOL    HW137859  12.411  11.391   3.728  1.2958  0.6569  1.3602
11016SOL    HW237860  12.476  11.379   3.592 -0.1453  0.1319  0.6939
11017SOL     OW37861  11.656  11.252  10.715  0.6653 -0.6931  0.0710
11017SOL    HW137862  11.598  11.211  10.779  0.1653 -0.3043 -0.1336
11017SOL    HW237863  11.744  11.221  10.739  0.2202 -2.6260 -0.6249
11018SOL     OW37864   4.795   6.996  11.856  0.2501 -0.8610 -0.5593
11018SOL    HW137865   4.785   6.903  11.835 -2.2502 -0.3156 -2.0835
11018SOL    HW237866   4.706   7.031  11.856  1.2507  2.2938 -3.7712
11019SOL     OW37867  12.580   4.184  11.263 -0.1096  0.1614 -0.4882
11019SOL    HW137868  12.563   4.142  11.347  0.9466 -3.0463 -1.7098
11019SOL    HW237869  12.494   4.187  11.220 -0.3586  0.0979  0.0068
11020SOL     OW37870   5.190  11.727   7.133 -0.4052  0.6026 -0.0189
11020SOL    HW137871   5.154  11.788   7.068  0.1476 -0.2463 -1.1704
11020SOL    HW237872   5.231  11.658   7.080  2.5306  1.2605  1.1913
11021SOL     OW37873  10.165   8.906  12.037  0.4650  0.3253  0.5398
11021SOL    HW137874  10.195   8.979  11.983 -0.3256  0.2254 -0.0498
11021SOL    HW237875  10.245   8.862  12.065  0.8907 -0.6717 -1.9777
11022SOL     OW37876   1.047   3.682  10.439  0.5861  0.3178 -0.1753
11022SOL    HW137877   1.132   3.695  10.398  1.0778 -1.7354  0.0846
11022SOL    HW237878   1.054   3.597  10.482 -0.9296  1.0181  1.5871
11023SOL     OW37879  10.500   9.817   5.652 -0.0873 -0.2972 -0.5261
11023SOL    HW137880  10.523   9.737   5.700 -1.3445 -1.9228 -2.4501
11023SOL    HW237881  10.507   9.792   5.560 -1.8194  1.4076 -1.1896
11024SOL     OW37882  11.609   1.608   2.615  0.6273  0.0083 -0.3596
11024SOL    HW137883  11.518   1.598   2.643  0.6925 -2.9722 -0.8389
11024SOL    HW237884  11.658   1.620   2.696 -0.2680  3.8811 -0.2026
11025SOL     OW37885   5.507   1.051  11.060 -0.1034 -0.9630  0.3946
11025SOL    HW137886   5.509   0.983  10.993  0.3767 -2.8361  2.1851
11025SOL    HW237887   5.598   1.061  11.087 -0.2761 -0.1775  0.7122
11026SOL     OW37888   4.815   0.389   2.319 -0.0932  0.1799 -0.0340
11026SOL    HW137889   4.832   0.297   2.296  0.3330  0.3794 -0.5367
11026SOL    HW237890   4.892   0.436   2.286  0.0215  0.6269  0.8519
11027SOL     OW37891   4.443   5.997  10.565 -0.2226 -0.3801 -0.1873
11027SOL    HW137892   4.479   6.007  10.477 -0.5896  1.6000 -0.1738
11027SOL    HW237893   4.354   5.965  10.552  0.6403 -2.9348 -0.3387
11028SOL     OW37894  10.009   8.541  11.361 -0.8178 -0.0173  0.4024
11028SOL    HW137895  10.005   8.529  11.456 -0.0504 -0.4431  0.3893
11028SOL    HW237896   9.925   8.580  11.338 -2.1046 -2.3164  0.9062
11029SOL     OW37897   6.786  11.031   9.524 -0.2101 -0.5471 -0.3935
11029SOL    HW137898   6.842  11.101   9.491 -0.1819 -0.4188 -0.0782
11029SOL    HW237899   6.842  10.953   9.525  0.0016 -0.3898  0.0489
11030SOL     OW37900  10.458   8.825   7.774  0.2848  0.3891  0.2693
11030SOL    HW137901  10.392   8.785   7.717  1.9113  1.0980 -2.3016
11030SOL    HW237902  10.412   8.897   7.818 -1.3492 -0.9792  0.8828
11031SOL     OW37903  11.589   4.162   5.629 -0.1144  0.1954 -0.5986
11031SOL    HW137904  11.574   4.071   5.653  0.0281 -0.2643 -2.1085
11031SOL    HW237905  11.542   4.172   5.546  0.5114  1.2705 -0.8369
11032SOL     OW37906   6.622   0.580   1.540  0.1753  0.0725 -0.5665
11032SOL    HW137907   6.585   0.492   1.547  2.1816 -1.0252 -2.4564
11032SOL    HW237908   6.645   0.603   1.630  0.6468 -1.8540 -0.1474
11033SOL     OW37909  10.436   4.374   5.326 -0.2962  0.4760  0.7346
11033SOL    HW137910  10.454   4.420   5.408  0.4642  0.5907  0.5163
11033SOL    HW237911  10.407   4.442   5.265 -0.1003  0.5153  0.6855
11034SOL     OW37912   4.287   9.504   4.988  0.2501 -0.1365  0.0798
11034SOL    HW137913   4.317   9.414   4.974 -2.5603 -0.9069 -1.9656
11034SOL    HW237914   4.257   9.506   5.079  1.5969 -0.8021  0.5658
11035SOL     OW37915  10.404   6.495   8.952  0.0556  0.1060  0.2316
11035SOL    HW137916  10.344   6.569   8.946 -0.7678 -0.2924  2.5077
11035SOL    HW237917  10.490   6.534   8.966  0.0401  0.6467 -1.0993
11036SOL     OW37918   3.153   7.770   2.332  0.4911  0.1642 -1.1024
11036SOL    HW137919   3.221   7.837   2.323  1.0404 -0.3259 -0.6491
11036SOL    HW237920   3.151   7.726   2.247  0.6582  0.2585 -1.1549
11037SOL     OW37921   6.687  10.580  11.880 -0.3409 -0.3989  0.2803
11037SOL    HW137922   6.666  10.583  11.786 -2.2967 -1.3467  0.6597
11037SOL    HW237923   6.782  10.563  11.882 -0.3129 -0.6668 -1.5200
11038SOL     OW37924  10.910   9.847  10.147  0.6340 -0.5532  0.3581
11038SOL    HW137925  10.922   9.873  10.056 -0.4652  0.6413  0.5171
11038SOL    HW237926  10.881   9.927  10.191  0.2824 -1.3205  1.5675
11039SOL     OW37927   2.271   5.843  11.990 -0.3236  0.2489  0.5602
11039SOL    HW137928   2.216   5.799  11.925 -0.8714 -1.2956  2.0094
11039SOL    HW237929   2.350   5.789  11.996 -0.4125  0.2036  1.3978
11040SOL     OW37930   1.355   9.804   0.865 -0.0788  0.3551  0.1732
11040SOL    HW137931   1.283   9.861   0.838  2.2616  3.5513  0.0804
11040SOL    HW237932   1.393   9.773   0.783 -1.2968 -1.4367  0.2228
11041SOL     OW37933   2.128  11.827   2.264 -0.4639  0.1472 -0.1243
11041SOL    HW137934   2.125  11.804   2.171  1.2393 -0.2458 -0.1232
11041SOL    HW237935   2.041  11.861   2.283 -1.8840 -2.6235 -1.1149
11042SOL     OW37936  12.048   8.721   4.635  0.1768 -0.3071  0.3092
11042SOL    HW137937  12.092   8.802   4.606 -2.4111  0.3680 -2.2348
11042SOL    HW237938  12.016   8.741   4.723  1.1022  0.7776  0.4199
11043SOL     OW37939   7.468   9.314   8.050 -0.3352 -0.2308  0.1566
11043SOL    HW137940   7.379   9.332   8.082 -1.3284 -1.9520 -1.4407
11043SOL    HW237941   7.491   9.230   8.090  1.0085  0.6253  1.2852
11044SOL     OW37942  12.529   0.754   2.924  0.1227  0.0400  0.4833
11044SOL    HW137943  12.458   0.751   2.988  0.0248  1.5022  0.4710
11044SOL    HW237944  12.607   0.778   2.975 -0.4933  4.2898 -0.2496
11045SOL     OW37945   8.930   7.990   3.192  0.2599  0.7361 -0.0815
11045SOL    HW137946   8.944   7.985   3.098  1.3929  0.4540  0.0839
11045SOL    HW237947   8.957   8.079   3.215  0.9554  0.4892  0.1043
11046SOL     OW37948   6.981   4.494  12.578  0.1678  0.0980 -1.0016
11046SOL    HW137949   6.954   4.402  12.583 -1.8943  0.6504 -1.3123
11046SOL    HW237950   6.991   4.511  12.485 -1.5083  0.7210 -1.0912
11047SOL     OW37951   8.856   7.242   5.695  0.5759 -0.0733  0.0423
11047SOL    HW137952   8.771   7.220   5.657  0.3401 -0.4146  0.7544
11047SOL    HW237953   8.905   7.160   5.696 -0.4861 -0.7863  3.1711
11048SOL     OW37954   8.394   6.286   6.752 -0.1123  0.4028  0.1415
11048SOL    HW137955   8.461   6.305   6.817 -1.4173 -0.1303  1.7059
11048SOL    HW237956   8.330   6.356   6.762 -1.1794 -0.6135  0.6566
11049SOL     OW37957   1.386  12.227   6.933 -0.2232  0.2549  0.0939
11049SOL    HW137958   1.458  12.214   6.995 -1.0389 -1.0400  0.8163
11049SOL    HW237959   1.307  12.210   6.983 -0.8809 -1.7174 -1.4490
11050SOL     OW37960  11.172   7.431   2.669 -0.3198 -0.3823  0.0193
11050SOL    HW137961  11.215   7.511   2.700 -2.0999 -0.6142  3.5516
11050SOL    HW237962  11.082   7.457   2.652 -0.1249 -0.9890 -2.2862
11051SOL     OW37963   1.983   7.000   9.721 -0.2201 -0.9203  0.0859
11051SOL    HW137964   2.052   7.063   9.700 -0.2853 -0.9683 -0.2713
11051SOL    HW237965   2.011   6.961   9.804 -0.8026  0.4840  1.0003
11052SOL     OW37966   5.621   2.348   0.516  0.2383 -0.2552  0.0339
11052SOL    HW137967   5.538   2.330   0.558  0.5527 -3.0115 -0.3505
11052SOL    HW237968   5.684   2.291   0.561  2.0640  2.0062  0.5700
11053SOL     OW37969   3.708   4.683   3.182  0.0856  0.8314  0.1087
11053SOL    HW137970   3.618   4.713   3.171 -0.5068 -0.1322  1.7954
11053SOL    HW237971   3.751   4.702   3.099 -1.3626  2.3544 -0.3376
11054SOL     OW37972   6.147  10.813   5.629 -0.2000  0.6578  0.2914
11054SOL    HW137973   6.093  10.809   5.708  0.5580 -0.6712  0.7786
11054SOL    HW237974   6.161  10.907   5.615 -1.3751  0.9608  1.0133
11055SOL     OW37975   1.111   6.186   7.312  0.4590 -0.1356 -0.5979
11055SOL    HW137976   1.155   6.265   7.279 -0.4574  1.5951  1.9315
11055SOL    HW237977   1.024   6.188   7.271  0.0419  0.8607  0.2722
11056SOL     OW37978   4.307   8.210   6.706  0.0220 -0.2387  0.4811
11056SOL    HW137979   4.326   8.137   6.648  0.9565  0.7192 -0.4598
11056SOL    HW237980   4.266   8.276   6.650 -2.4447 -0.6338  1.6497
11057SOL     OW37981  12.057  10.562  12.587  0.3007 -0.7285 -0.5658
11057SOL    HW137982  11.995  10.495  12.556  0.1295 -1.1954  0.7543
11057SOL    HW237983  12.009  10.644  12.577  0.1867 -0.8794 -1.3741
11058SOL     OW37984   5.714   3.844   2.749 -0.3986 -0.4027  0.1498
11058SOL    HW137985   5.731   3.751   2.763 -0.7754 -0.3058  1.3050
11058SOL    HW237986   5.764   3.888   2.818 -0.8706  0.2057  0.1110
11059SOL     OW37987  12.372  10.092   7.509  0.3988  0.1733  0.8564
11059SOL    HW137988  12.304  10.148   7.473 -0.6562 -1.8833 -0.6149
11059SOL    HW237989  12.440  10.152   7.540 -0.8772  2.2183 -0.1196
11060SOL     OW37990   1.649   1.351   6.598 -0.5120  0.0672  0.4362
11060SOL    HW137991   1.686   1.371   6.684  0.1476 -0.3480  0.2547
11060SOL    HW237992   1.611   1.434   6.568  0.5250  0.5823  0.5013
11061SOL     OW37993   5.078   4.717   2.069 -0.1311 -0.6882 -0.1927
11061SOL    HW137994   5.143   4.747   2.132 -0.6048  0.2699 -0.1419
11061SOL    HW237995   5.107   4.754   1.985  0.7237 -2.2910 -0.6467
11062SOL     OW37996   4.864   2.743   3.193 -0.4137  0.1226 -0.5652
11062SOL    HW137997   4.935   2.688   3.158 -1.0947 -2.4193  1.6785
11062SOL    HW237998   4.817   2.685   3.253 -1.4572  3.1068  1.7462
11063SOL     OW37999   2.590   5.799   6.953 -0.0957 -0.3584  0.2185
11063SOL    HW138000   2.627   5.804   6.865  0.6212 -1.7172  0.4146
11063SOL    HW238001   2.651   5.849   7.007 -0.6874  0.7178 -0.0753
11064SOL     OW38002   9.318  12.567   2.638 -0.4092 -0.4000 -0.1288
11064SOL    HW138003   9.363  12.559   2.553  0.5109  0.2136  0.2812
11064SOL    HW238004   9.384  12.540   2.702 -0.3203  1.3088  0.5504
11065SOL     OW38005   7.219   4.883   6.184  0.6715 -0.3240  0.1881
11065SOL    HW138006   7.253   4.798   6.155 -0.1325  0.0043 -1.8835
11065SOL    HW238007   7.298   4.935   6.202  1.3027 -0.4324 -1.9410
11066SOL     OW38008   0.663   1.516   9.880 -0.3087 -0.3824  0.1979
11066SOL    HW138009   0.644   1.609   9.888 -0.7580 -0.5939  1.9102
11066SOL    HW238010   0.593   1.483   9.822  0.3659  0.4579 -1.1473
11067SOL     OW38011   2.846   9.116   9.837  0.5264 -0.1102 -0.1704
11067SOL    HW138012   2.769   9.127   9.892  1.2443 -1.5798  1.2142
11067SOL    HW238013   2.828   9.169   9.760 -1.8222 -0.3237  0.1477
11068SOL     OW38014   4.317  10.643   0.409 -0.3673  0.0651 -0.1452
11068SOL    HW138015   4.255  10.631   0.337 -1.1659  0.2984  0.4997
11068SOL    HW238016   4.399  10.669   0.365 -1.1260  1.2807 -0.9013
11069SOL     OW38017   3.106   1.848   0.612  0.6111 -0.0102  0.1704
11069SOL    HW138018   3.036   1.832   0.676 -0.6144 -0.0177 -1.0991
11069SOL    HW238019   3.071   1.919   0.557  1.2292 -0.6076 -1.0197
11070SOL     OW38020  12.520   7.705   0.463 -0.3263  0.4807  0.5690
11070SOL    HW138021  12.606   7.745   0.477  1.8941 -2.5305 -2.7029
11070SOL    HW238022  12.481   7.758   0.393 -0.4683  0.8938  0.9520
11071SOL     OW38023   6.266   3.640   5.657  0.3408  0.1546 -0.0558
11071SOL    HW138024   6.331   3.670   5.593 -0.2825  0.8393 -0.3849
11071SOL    HW238025   6.182   3.651   5.613  0.0340 -1.4824  0.0658
11072SOL     OW38026   8.089   8.222   4.396  0.5849  0.8918  0.0165
11072SOL    HW138027   8.014   8.280   4.404 -0.5243 -0.6767  1.9687
11072SOL    HW238028   8.150   8.269   4.340 -2.8539  1.1729 -3.9792
11073SOL     OW38029   2.440   6.429   1.256  0.5227  0.5231  0.7755
11073SOL    HW138030   2.475   6.448   1.169 -1.3306  1.9186  0.2506
11073SOL    HW238031   2.347   6.452   1.249  0.1504 -0.1498  2.8922
11074SOL     OW38032   8.559   6.137   5.666  0.0550 -0.7618 -0.1288
11074SOL    HW138033   8.598   6.060   5.625 -1.0171 -0.5179 -1.6948
11074SOL    HW238034   8.533   6.107   5.754  1.2580 -1.6604 -0.0551
11075SOL     OW38035   1.699  12.194   4.618  0.8504  0.7511 -0.6248
11075SOL    HW138036   1.754  12.159   4.688  0.6491 -0.9339 -1.2673
11075SOL    HW238037   1.747  12.175   4.538  0.7879  2.1068 -1.0178
11076SOL     OW38038   5.344   4.686  10.601 -0.1977 -0.3532 -0.3426
11076SOL    HW138039   5.385   4.600  10.618  0.1338 -0.1336  0.0066
11076SOL    HW238040   5.352   4.732  10.685  0.1839  0.2457 -0.7029
11077SOL     OW38041   8.958  11.103   2.222  0.1480  0.2044 -1.0112
11077SOL    HW138042   8.966  11.075   2.313  1.7995 -2.4150 -1.8567
11077SOL    HW238043   8.866  11.085   2.199 -0.0033 -0.1196 -0.1778
11078SOL     OW38044  10.792  11.738   5.578 -0.2267  0.6748  0.6421
11078SOL    HW138045  10.711  11.780   5.608  0.2274  1.9293  0.1767
11078SOL    HW238046  10.782  11.731   5.483 -0.2707 -0.2565  0.7020
11079SOL     OW38047   6.705   7.650   1.651  0.2323  0.0542  0.4116
11079SOL    HW138048   6.701   7.567   1.697  1.4254 -0.6301 -0.6358
11079SOL    HW238049   6.614   7.678   1.642 -0.3063 -1.7717 -0.3021
11080SOL     OW38050   0.482  10.594   3.749  0.2612 -0.0259 -0.7805
11080SOL    HW138051   0.429  10.517   3.729 -0.0059 -0.1235  0.2344
11080SOL    HW238052   0.528  10.571   3.830 -0.8998  1.3812  0.3464
11081SOL     OW38053   1.153   1.808   1.010 -0.3309  0.5301 -0.8292
11081SOL    HW138054   1.169   1.899   1.034 -1.2447  0.5182 -0.1314
11081SOL    HW238055   1.240   1.774   0.988  0.3465  1.0041  0.8829
11082SOL     OW38056   9.494   4.255   9.885  0.5521 -0.3751  0.3503
11082SOL    HW138057   9.539   4.313   9.824  0.5788 -1.9217 -1.1627
11082SOL    HW238058   9.424   4.215   9.834 -0.5330 -0.4321  1.8148
11083SOL     OW38059   8.308   3.041   8.171  0.0929 -0.2681 -0.2569
11083SOL    HW138060   8.389   3.089   8.152 -0.3202 -0.1144 -1.7545
11083SOL    HW238061   8.318   2.957   8.126  0.2585 -1.0965  1.2631
11084SOL     OW38062   8.730  11.951   8.466  0.2111 -0.2651 -0.0224
11084SOL    HW138063   8.820  11.978   8.482  0.5090 -1.3480  0.2322
11084SOL    HW238064   8.736  11.856   8.453 -0.7774 -0.2246 -0.8880
11085SOL     OW38065   7.433   0.725   4.660 -0.5101  0.3608 -0.0480
11085SOL    HW138066   7.351   0.758   4.621  0.0332  1.4382 -0.3174
11085SOL    HW238067   7.471   0.801   4.703  0.3672 -0.1311  0.0649
11086SOL     OW38068   9.582   2.058   0.947  0.5578  0.1001  0.3844
11086SOL    HW138069   9.581   2.016   0.861  0.2600  0.3617  0.2576
11086SOL    HW238070   9.644   2.007   0.998 -0.9322 -1.4546  0.7059
11087SOL     OW38071   3.004   2.359   9.987 -0.4024  0.2370 -0.0502
11087SOL    HW138072   3.012   2.455   9.987 -4.7023  0.8019 -1.8436
11087SOL    HW238073   3.014   2.334   9.895  0.1461 -1.0062  0.3282
11088SOL     OW38074  10.849   3.160  11.757  0.6879 -0.1154 -0.4270
11088SOL    HW138075  10.825   3.158  11.850 -0.3089 -0.1164 -0.6711
11088SOL    HW238076  10.767   3.142  11.711  0.7924  1.5264 -1.3542
11089SOL     OW38077   5.031   6.687   9.170  0.4778 -0.0976 -0.2442
11089SOL    HW138078   4.951   6.711   9.217  1.4966  1.0763  0.9997
11089SOL    HW238079   5.002   6.626   9.102 -1.8326  2.1562 -1.4596
11090SOL     OW38080   2.391   6.304  11.640 -0.4447  0.2295 -0.6348
11090SOL    HW138081   2.417   6.369  11.705 -0.0986 -0.4515 -0.0845
11090SOL    HW238082   2.371   6.225  11.691  0.6227 -0.5655 -1.4081
11091SOL     OW38083   8.058   8.235   0.353 -0.1477 -0.0850  0.5331
11091SOL    HW138084   8.076   8.285   0.274 -0.1012 -0.7817  0.0952
11091SOL    HW238085   8.087   8.292   0.425 -0.1871  0.5464  0.0518
11092SOL     OW38086   7.981   6.920  12.473 -0.1805  0.2189 -0.2238
11092SOL    HW138087   7.899   6.933  12.520  0.0369 -1.1750  0.5841
11092SOL    HW238088   7.960   6.855  12.405  0.1830  0.0716 -0.1983
11093SOL     OW38089   6.657  11.839   8.031 -0.4704 -0.8315 -0.5184
11093SOL    HW138090   6.688  11.822   8.120  0.4662  0.9494 -0.4540
11093SOL    HW238091   6.605  11.919   8.039  1.8782  0.9918 -1.8989
11094SOL     OW38092   9.478   4.236   8.365 -0.4390  0.0631  0.4029
11094SOL    HW138093   9.431   4.315   8.388 -1.5714 -0.9271  1.6373
11094SOL    HW238094   9.552   4.232   8.426 -0.8524 -0.2387  0.8892
11095SOL     OW38095   2.078   9.065  12.277 -0.0906 -0.4038 -0.0364
11095SOL    HW138096   2.156   9.117  12.259  1.2936 -1.6232  1.9602
11095SOL    HW238097   2.020   9.082  12.203  0.6565  3.1309  0.0290
11096SOL     OW38098   7.260   4.920   6.670  0.2153 -0.0842 -0.7542
11096SOL    HW138099   7.166   4.902   6.680  0.6127 -1.2188  1.4696
11096SOL    HW238100   7.303   4.836   6.690  1.7422  0.5075 -1.3748
11097SOL     OW38101   2.039   6.009   4.872  0.3130 -0.0211  0.0006
11097SOL    HW138102   2.009   6.006   4.781 -1.6178  0.0627  0.5746
11097SOL    HW238103   1.962   5.982   4.923  1.4762 -0.4973  1.5863
11098SOL     OW38104   9.742   6.076  12.518  0.1108  0.3463 -0.6014
11098SOL    HW138105   9.833   6.081  12.546 -0.2007  0.9993  0.3339
11098SOL    HW238106   9.702   6.014  12.579  0.2179 -1.0194 -1.8634
11099SOL     OW38107   6.279   7.363  10.964 -0.0105  0.3302  0.0443
11099SOL    HW138108   6.184   7.372  10.963 -0.0729 -0.2440 -0.8438
11099SOL    HW238109   6.303   7.353  10.872  1.1016  2.1682  0.0933
11100SOL     OW38110  10.296   7.957  11.916  0.2251  0.4190 -0.2120
11100SOL    HW138111  10.321   8.049  11.922  3.3329  0.0686 -3.8781
11100SOL    HW238112  10.233   7.954  11.844 -1.4454 -0.2006  1.2002
11101SOL     OW38113   7.590   4.384   8.575  0.2145  0.3637 -0.4365
11101SOL    HW138114   7.578   4.459   8.635  0.2444  0.6882 -0.8329
11101SOL    HW238115   7.502   4.365   8.543  0.2326  0.3407 -0.4725
11102SOL     OW38116   9.905   3.921   4.309  0.1976 -0.2623  0.3531
11102SOL    HW138117   9.854   3.934   4.389 -2.3730 -1.6429 -0.9653
11102SOL    HW238118   9.872   3.839   4.272  0.7872  0.6877 -2.5026
11103SOL     OW38119   1.310   5.154   0.183 -0.4636 -0.3666  0.3163
11103SOL    HW138120   1.406   5.164   0.182 -0.6091  1.4737  0.0735
11103SOL    HW238121   1.286   5.167   0.275 -0.5468  0.2146  0.2177
11104SOL     OW38122   9.500   3.871  12.443  0.0400 -0.2476  0.0024
11104SOL    HW138123   9.585   3.898  12.477 -0.6148  1.1208  0.6598
11104SOL    HW238124   9.490   3.781  12.472  1.6341 -0.7467 -0.8693
11105SOL     OW38125   6.870  10.857   7.446 -0.1978 -0.4076  0.3522
11105SOL    HW138126   6.893  10.777   7.494 -2.0992 -1.1782  0.0839
11105SOL    HW238127   6.863  10.924   7.513  2.8724 -0.0286  0.4262
11106SOL     OW38128   9.414   6.481   0.522 -0.1468  0.2896 -0.7089
11106SOL    HW138129   9.403   6.517   0.434  2.1383 -0.2826 -1.2941
11106SOL    HW238130   9.430   6.388   0.508 -0.3029  0.0895  0.3657
11107SOL     OW38131   8.961   0.781   0.200 -0.4123  0.1150  0.1101
11107SOL    HW138132   8.871   0.754   0.185 -0.2741  0.0742 -0.7398
11107SOL    HW238133   8.955   0.872   0.229 -0.6893  0.4362 -0.9224
11108SOL     OW38134   0.662   2.044   6.016 -0.1762 -0.0951 -0.3484
11108SOL    HW138135   0.709   2.123   6.041 -0.4321  0.4344 -1.4603
11108SOL    HW238136   0.689   1.979   6.081 -0.3363  1.0128  0.8836
11109SOL     OW38137  10.924   9.328   3.524 -0.1556  0.0411  0.4302
11109SOL    HW138138  10.837   9.369   3.514  0.1969  0.6376 -0.2555
11109SOL    HW238139  10.984   9.402   3.534  0.8421 -0.0885 -3.2497
11110SOL     OW38140   5.298  12.406   7.443 -0.1801 -0.4090  0.5187
11110SOL    HW138141   5.259  12.478   7.494 -0.0203 -1.1917  1.7843
11110SOL    HW238142   5.265  12.326   7.486  2.0536 -1.1011  1.0508
11111SOL     OW38143   4.846   8.310  11.676  0.4586  0.2427  0.0178
11111SOL    HW138144   4.874   8.255  11.750  0.9046 -0.4761 -0.6731
11111SOL    HW238145   4.855   8.399  11.708 -0.7118 -0.0671  1.3331
11112SOL     OW38146   1.063   6.826   6.063 -0.6629 -0.5276  0.8742
11112SOL    HW138147   1.136   6.775   6.028 -0.4252 -0.4809  1.2898
11112SOL    HW238148   1.092   6.853   6.151  0.3374  2.5419 -0.2450
11113SOL     OW38149   4.249   6.466   1.571  0.0414 -0.0381  0.0669
11113SOL    HW138150   4.327   6.520   1.568  0.0873 -0.0367  1.1375
11113SOL    HW238151   4.270   6.395   1.631 -0.3611 -0.7130 -0.5634
11114SOL     OW38152   2.340  12.038   4.968 -0.1106 -0.2807 -0.1199
11114SOL    HW138153   2.309  11.950   4.986 -0.4575 -0.4890 -1.5994
11114SOL    HW238154   2.276  12.074   4.906  0.1162  0.9497  0.3270
11115SOL     OW38155   6.940   8.328   4.745 -0.0983  0.3748  0.0549
11115SOL    HW138156   6.976   8.334   4.656  1.0252  0.0617  0.4726
11115SOL    HW238157   6.914   8.236   4.753  0.3449  0.2675  0.2551
11116SOL     OW38158  11.070   2.537  11.931 -0.2673  0.4396  0.1592
11116SOL    HW138159  10.983   2.571  11.911 -0.0104  0.0383 -1.8039
11116SOL    HW238160  11.055   2.476  12.003 -1.4045  1.2710  0.6694
11117SOL     OW38161   8.068   4.522   1.021  0.0687 -0.0877 -0.2374
11117SOL    HW138162   8.080   4.614   0.998 -0.5535  0.0097 -0.1660
11117SOL    HW238163   8.127   4.508   1.095  0.3960  0.1674 -0.4418
11118SOL     OW38164   1.719   5.045   6.653  1.0583 -0.2687 -0.0964
11118SOL    HW138165   1.740   5.019   6.743 -0.3366  0.9514  0.6327
11118SOL    HW238166   1.672   4.970   6.617  0.8938 -0.4529  0.4905
11119SOL     OW38167   5.589   0.110   0.702  0.4050 -0.3025 -0.0734
11119SOL    HW138168   5.547   0.176   0.647  0.4187 -0.2279  0.0040
11119SOL    HW238169   5.576   0.028   0.656 -4.5055 -1.2752  2.3320
11120SOL     OW38170   7.744   7.486   5.027  0.2046 -0.0416 -0.0565
11120SOL    HW138171   7.685   7.537   5.084  0.2455  1.4903 -1.3033
11120SOL    HW238172   7.709   7.397   5.030 -1.1412  0.4737  0.5873
11121SOL     OW38173   7.909   8.384   0.607  0.4164  0.3023 -0.7097
11121SOL    HW138174   7.850   8.422   0.542  0.9319  1.3719 -0.5671
11121SOL    HW238175   7.996   8.415   0.581  0.7474 -0.0871 -0.0821
11122SOL     OW38176   8.001   6.339   9.657 -0.3351  0.1149 -0.1579
11122SOL    HW138177   8.015   6.429   9.626  2.5283  0.0529  0.6786
11122SOL    HW238178   7.992   6.287   9.577 -0.7244  0.9436 -0.6700
11123SOL     OW38179   9.292   7.890  10.149 -0.5412 -0.3573 -0.2451
11123SOL    HW138180   9.218   7.942  10.179  0.7302  1.1807  0.3918
11123SOL    HW238181   9.254   7.823  10.092 -2.5497 -0.5688  1.2610
11124SOL     OW38182   2.612   6.861   0.809  0.0840  0.4804 -0.0460
11124SOL    HW138183   2.645   6.777   0.776  0.0707  0.2879  0.4197
11124SOL    HW238184   2.687   6.900   0.853 -0.1346  0.3258  0.4725
11125SOL     OW38185   1.467   0.359  10.254  0.0430 -0.4895  0.3199
11125SOL    HW138186   1.489   0.442  10.294 -1.2763 -0.6196  1.3852
11125SOL    HW238187   1.520   0.356  10.174  1.6338  0.4328  1.2824
11126SOL     OW38188  11.008   8.949  10.443 -0.2074  0.2073  0.4833
11126SOL    HW138189  11.063   8.952  10.522  0.8229 -0.5035 -0.1795
11126SOL    HW238190  10.978   8.858  10.439  0.6984 -0.0661 -0.5484
11127SOL     OW38191   4.991   2.563   0.069  0.1529 -0.1347  0.1331
11127SOL    HW138192   4.940   2.507   0.011  1.3484 -0.9352 -0.1749
11127SOL    HW238193   4.940   2.567   0.150 -0.4530 -0.8058 -0.2114
11128SOL     OW38194   2.035   8.102  10.807 -0.4812 -0.7015 -0.7294
11128SOL    HW138195   2.047   8.160  10.731  0.2457  0.3702  0.1795
11128SOL    HW238196   1.976   8.149  10.865  0.0717 -0.8802 -0.0043
11129SOL     OW38197   0.092   9.815   6.819  0.4685 -0.2810 -0.2522
11129SOL    HW138198   0.034   9.890   6.808  0.5490 -0.0258  0.9057
11129SOL    HW238199   0.118   9.818   6.911  1.8166 -0.7506 -0.5849
11130SOL     OW38200   5.261   4.542   6.096 -0.0936  0.8849  0.1579
11130SOL    HW138201   5.199   4.606   6.061 -2.1200 -1.4483 -0.8045
11130SOL    HW238202   5.214   4.497   6.165  0.8907 -0.2368  0.1357
11131SOL     OW38203   4.622   6.385   8.128  0.1309  0.7223 -0.0083
11131SOL    HW138204   4.644   6.308   8.075  1.2733  1.7990 -1.1740
11131SOL    HW238205   4.531   6.404   8.108 -0.2740 -0.5108  0.5667
11132SOL     OW38206   1.461   3.865   5.053 -0.2612 -0.3040 -0.4796
11132SOL    HW138207   1.552   3.863   5.022  0.5124 -2.2606  1.6059
11132SOL    HW238208   1.457   3.943   5.109  0.3823 -0.5817 -0.0229
11133SOL     OW38209   1.613  10.058  11.505  0.3904 -0.4110  0.1817
11133SOL    HW138210   1.699  10.099  11.489  0.4972 -1.0655 -1.0192
11133SOL    HW238211   1.633   9.986  11.564  0.6090 -0.3264  0.2152
11134SOL     OW38212   1.046   9.058   6.952  0.9998  0.2064  0.6801
11134SOL    HW138213   1.130   9.093   6.981  2.4858 -0.3030 -2.6706
11134SOL    HW238214   1.000   9.134   6.915 -0.7871  0.7920  3.6565
11135SOL     OW38215   4.908  10.519   1.687 -0.0366  0.1021  0.7073
11135SOL    HW138216   4.998  10.543   1.666 -0.7578 -0.7147 -4.6616
11135SOL    HW238217   4.906  10.424   1.677 -1.2397 -0.1145  2.5276
11136SOL     OW38218   2.368   1.811   8.454 -0.4869 -0.0883  0.3858
11136SOL    HW138219   2.347   1.884   8.396 -0.3226 -0.6468 -0.3930
11136SOL    HW238220   2.292   1.754   8.448 -0.0365 -0.6505 -0.1007
11137SOL     OW38221   6.793   2.392   0.346  0.3036  0.3701  0.1570
11137SOL    HW138222   6.744   2.473   0.354 -1.2756 -0.3445 -1.5175
11137SOL    HW238223   6.752   2.333   0.410 -0.1797  0.1749 -0.3233
11138SOL     OW38224   0.911  10.008   4.038 -0.3526 -0.3383  0.2362
11138SOL    HW138225   0.855  10.084   4.054 -1.6951 -0.9417 -1.2956
11138SOL    HW238226   0.878   9.970   3.956 -0.4131 -3.1775  1.4505
11139SOL     OW38227   8.971   9.843   1.033 -0.0636  0.0803  0.4724
11139SOL    HW138228   8.990   9.814   1.123  0.8370  0.5007  0.4238
11139SOL    HW238229   9.016   9.927   1.025 -0.4998  0.2497 -0.2395
11140SOL     OW38230  10.884   6.327   1.150  0.3302 -0.6011 -0.3869
11140SOL    HW138231  10.903   6.358   1.238  1.1133  0.0720 -0.7774
11140SOL    HW238232  10.900   6.233   1.154 -1.4245 -0.8892  0.6389
11141SOL     OW38233   9.703   7.738  10.426  0.0420  0.1313 -0.3170
11141SOL    HW138234   9.699   7.653  10.471  1.3788  0.4476  0.4646
11141SOL    HW238235   9.700   7.716  10.333  0.7580 -0.8253 -0.1344
11142SOL     OW38236  10.637   2.385  10.994 -0.6506 -0.1033 -0.0075
11142SOL    HW138237  10.716   2.437  10.977  0.0910 -0.5108  1.8412
11142SOL    HW238238  10.573   2.415  10.930 -0.0750  2.6670  0.5905
11143SOL     OW38239  11.576   5.623   9.731 -0.0403  0.6099  0.8524
11143SOL    HW138240  11.657   5.579   9.704  0.4735  1.9660  0.0905
11143SOL    HW238241  11.603   5.711   9.756 -1.2442  1.0257  0.7843
11144SOL     OW38242   4.825   6.190   4.893 -0.3679 -0.0796 -0.3033
11144SOL    HW138243   4.897   6.245   4.924 -0.9005  0.1645  0.5502
11144SOL    HW238244   4.747   6.243   4.907 -0.7432 -0.4505 -0.9491
11145SOL     OW38245  12.022   2.262   1.256  0.5194  0.0133 -0.4809
11145SOL    HW138246  11.991   2.320   1.325  1.5080 -0.9052  0.8069
11145SOL    HW238247  12.116   2.280   1.249  0.1286  1.4924 -3.0377
11146SOL     OW38248  10.421   3.145   6.456 -0.0317  0.4093  0.4347
11146SOL    HW138249  10.394   3.219   6.511  0.6874  1.8984 -1.0904
11146SOL    HW238250  10.351   3.136   6.392 -0.2576 -0.4549  0.7956
11147SOL     OW38251   0.166   2.778   5.501  0.0459  0.3985 -0.0184
11147SOL    HW138252   0.139   2.733   5.422  0.3326  1.7441 -0.9158
11147SOL    HW238253   0.262   2.779   5.498  0.0683  0.2222  0.4795
11148SOL     OW38254   4.996   8.166   4.498 -0.0744  0.1232  0.1934
11148SOL    HW138255   5.031   8.245   4.538  0.7594 -0.7971  1.3641
11148SOL    HW238256   4.968   8.112   4.572 -0.3696 -0.7876 -0.5605
11149SOL     OW38257   7.612   6.541   7.324 -0.1456 -0.3097 -0.4192
11149SOL    HW138258   7.632   6.483   7.398 -0.0169  0.8810  0.5179
11149SOL    HW238259   7.622   6.629   7.360 -1.1950  0.3076 -1.5613
11150SOL     OW38260  10.866  12.120   0.454  0.2631 -0.0728  0.3331
11150SOL    HW138261  10.829  12.037   0.483  0.2939  0.4420  1.9528
11150SOL    HW238262  10.795  12.183   0.464  0.1053  0.0563 -1.2927
11151SOL     OW38263   4.907  12.073   0.690  0.3654 -0.0516 -0.0434
11151SOL    HW138264   4.848  12.142   0.720  0.0692 -1.0427  1.8030
11151SOL    HW238265   4.860  12.032   0.618  0.0789  0.9863 -0.4672
11152SOL     OW38266   4.676  10.874   9.263 -0.3676 -0.3331  0.7923
11152SOL    HW138267   4.666  10.788   9.223  1.0224  0.4110 -1.2827
11152SOL    HW238268   4.735  10.921   9.205 -0.1941  1.6605  2.4805
11153SOL     OW38269   9.691   2.097   5.534 -0.4451 -0.1126 -0.0620
11153SOL    HW138270   9.622   2.071   5.473 -0.1854 -1.0705  0.0326
11153SOL    HW238271   9.743   2.017   5.547  0.8277  0.6339 -0.3223
11154SOL     OW38272   0.667  11.772  10.327  0.0153 -0.1417 -0.0490
11154SOL    HW138273   0.732  11.835  10.360  0.4840  0.5330 -2.0989
11154SOL    HW238274   0.719  11.706  10.281 -0.7238  0.8226 -2.3803
11155SOL     OW38275   7.835   7.302   6.252 -0.2674 -0.5656  0.3239
11155SOL    HW138276   7.802   7.284   6.340  0.0895 -3.1311  0.0165
11155SOL    HW238277   7.816   7.222   6.203  0.8330  0.2626 -1.5558
11156SOL     OW38278   9.333   1.401   2.264  0.7186  0.1167  0.4744
11156SOL    HW138279   9.241   1.385   2.242  0.6674 -0.8732  1.3419
11156SOL    HW238280   9.374   1.315   2.263  1.8684  0.6342 -0.7606
11157SOL     OW38281  12.047   4.505  12.099 -0.6352 -0.2429  0.3246
11157SOL    HW138282  12.043   4.585  12.047  0.7789 -0.6948 -0.5270
11157SOL    HW238283  12.069   4.535  12.187 -3.3993  0.5619  0.8383
11158SOL     OW38284   7.542   0.548   1.674  0.2534  0.4825 -0.0823
11158SOL    HW138285   7.471   0.604   1.640 -0.6505 -0.3768  0.3482
11158SOL    HW238286   7.593   0.606   1.731  0.3163  1.2908 -0.9310
11159SOL     OW38287  10.668   4.457   3.019  0.3813  0.7513 -0.1121
11159SOL    HW138288  10.627   4.472   2.934  0.0340  0.7896  0.0603
11159SOL    HW238289  10.710   4.371   3.011  2.4288  1.7754 -1.1302
11160SOL     OW38290  11.254   3.496   7.223  0.3796  0.2173 -0.0554
11160SOL    HW138291  11.290   3.549   7.294  0.8938  0.2885 -0.3613
11160SOL    HW238292  11.307   3.520   7.147  0.5331 -0.6465 -0.2213
11161SOL     OW38293   5.741  10.199   9.153  0.3941  0.1077  0.5652
11161SOL    HW138294   5.761  10.272   9.211 -0.0002 -0.1613  1.0436
11161SOL    HW238295   5.788  10.124   9.190 -0.5092 -0.2543  1.0251
11162SOL     OW38296   5.726   0.522   6.079  0.4958  0.2910  0.0556
11162SOL    HW138297   5.735   0.616   6.061 -0.0814  0.3539  0.0588
11162SOL    HW238298   5.666   0.518   6.154  0.6269 -0.0794  0.1445
11163SOL     OW38299   7.950   0.230   9.698 -0.4156 -0.2607  0.2563
11163SOL    HW138300   7.960   0.151   9.752  0.0644 -1.8448 -1.9860
11163SOL    HW238301   8.028   0.230   9.643 -1.2979  0.7713 -1.0322
11164SOL     OW38302   1.255   8.117  11.643  0.2611 -0.2668  0.1975
11164SOL    HW138303   1.218   8.146  11.559  0.7008 -0.2933 -0.0035
11164SOL    HW238304   1.262   8.197  11.694  1.8771  0.0760 -0.5089
11165SOL     OW38305   1.960   1.852   2.461  0.3723  0.2554  0.1215
11165SOL    HW138306   1.969   1.828   2.554  0.6408 -1.2409 -0.2655
11165SOL    HW238307   1.891   1.795   2.428  0.6621  0.3826 -0.7232
11166SOL     OW38308  11.425   8.176  10.624 -0.2995 -0.3505  0.1225
11166SOL    HW138309  11.468   8.239  10.565  2.1184  0.0095  2.1085
11166SOL    HW238310  11.438   8.091  10.582  0.5718 -0.0030 -0.3475
11167SOL     OW38311   3.686   1.506   1.939  0.2400 -0.3588  0.8087
11167SOL    HW138312   3.628   1.430   1.947  0.8682 -1.0236 -0.5869
11167SOL    HW238313   3.634   1.570   1.891 -0.0724 -0.1408  1.4337
11168SOL     OW38314   3.421   4.000  10.054 -0.4093 -0.5285  0.2851
11168SOL    HW138315   3.342   3.946  10.052 -1.4520  0.9752 -1.5331
11168SOL    HW238316   3.432   4.030   9.964  1.2034  0.7753  0.8691
11169SOL     OW38317   2.824   7.175   9.943 -0.1543 -0.1031  0.2897
11169SOL    HW138318   2.733   7.151   9.923 -0.8375  0.9368  2.0133
11169SOL    HW238319   2.818   7.255   9.994  1.7418 -0.1008  0.5959
11170SOL     OW38320   5.847  12.096   0.895 -0.5463 -0.2991 -0.6247
11170SOL    HW138321   5.830  12.124   0.805  0.0973 -1.1859 -1.0410
11170SOL    HW238322   5.925  12.146   0.920 -0.5031 -0.3301 -0.6956
11171SOL     OW38323   1.077   3.744   0.302  0.2315  0.1704  0.3279
11171SOL    HW138324   0.989   3.721   0.274 -1.0524  3.3811  1.2500
11171SOL    HW238325   1.102   3.676   0.364 -0.9590 -1.5768 -1.0292
11172SOL     OW38326   4.249   0.990  10.084  0.1338  0.2002 -0.3387
11172SOL    HW138327   4.237   1.075  10.042 -0.7496  0.2337 -0.0353
11172SOL    HW238328   4.315   1.006  10.151  1.4640  0.1770 -1.5816
11173SOL     OW38329   9.869   3.745   7.371 -0.3334 -0.0058 -0.1019
11173SOL    HW138330   9.949   3.793   7.393  0.9789 -2.2754  0.3972
11173SOL    HW238331   9.800   3.791   7.419  1.2401 -0.0460  2.3996
11174SOL     OW38332  12.544  11.993   2.145  0.0314 -0.1637  0.6058
11174SOL    HW138333  12.463  12.044   2.142 -0.9919 -1.6937  1.0645
11174SOL    HW238334  12.569  11.994   2.238  1.1656  1.1894  0.3203
11175SOL     OW38335   3.170   4.425   4.328  0.4397 -0.4668 -0.4994
11175SOL    HW138336   3.141   4.441   4.238  1.6244  0.6794 -0.7198
11175SOL    HW238337   3.108   4.472   4.383 -1.0615 -2.2399 -0.5929
11176SOL     OW38338   0.044   1.792   7.800 -0.0549  0.1506  0.1705
11176SOL    HW138339   0.086   1.874   7.829 -1.7434  0.1673  3.0106
11176SOL    HW238340   0.095   1.723   7.843 -0.1581 -0.1365 -0.1624
11177SOL     OW38341   2.697   8.602   9.485  0.3357 -0.0448 -0.4202
11177SOL    HW138342   2.767   8.628   9.545  1.3494  0.2612 -1.6908
11177SOL    HW238343   2.737   8.607   9.398 -0.9487 -0.9334 -1.0973
11178SOL     OW38344   4.675   6.841   0.483  1.2093 -0.3678 -0.2241
11178SOL    HW138345   4.695   6.932   0.505 -0.2908 -0.1753  0.4678
11178SOL    HW238346   4.707   6.791   0.559  2.1942 -0.4566 -0.6825
11179SOL     OW38347   1.315  11.956  11.878  0.6491  0.3311  0.5727
11179SOL    HW138348   1.253  11.953  11.805  1.7341 -0.8393 -0.3434
11179SOL    HW238349   1.291  12.035  11.927 -0.7363  0.5936 -0.4759
11180SOL     OW38350  11.013  10.902  11.119  0.0060 -0.1945 -0.3312
11180SOL    HW138351  10.987  10.977  11.066  0.1440  0.0372 -0.0729
11180SOL    HW238352  11.097  10.875  11.082  1.3425  1.4983  1.2961
11181SOL     OW38353  11.582   0.640   2.925  0.2525  0.0210  0.2313
11181SOL    HW138354  11.574   0.585   2.847  0.5014  0.5002 -0.1359
11181SOL    HW238355  11.667   0.682   2.916  0.3429 -0.0190  0.8327
11182SOL     OW38356   9.540   6.518   4.552  0.1697  0.2336 -0.3398
11182SOL    HW138357   9.530   6.593   4.494  2.1366  1.1379  0.4097
11182SOL    HW238358   9.598   6.458   4.504  1.5095  0.8254  0.4785
11183SOL     OW38359   6.285   2.438   3.016  0.3485  0.1174 -0.3732
11183SOL    HW138360   6.355   2.389   2.973 -0.9731 -3.0254  0.7928
11183SOL    HW238361   6.315   2.448   3.106 -0.8991 -1.8961  0.3253
11184SOL     OW38362   8.876  10.498   4.870 -0.2150 -0.7278  0.4065
11184SOL    HW138363   8.785  10.477   4.848 -0.4336  0.4417  0.1433
11184SOL    HW238364   8.912  10.536   4.790 -0.6904  2.5074  1.5792
11185SOL     OW38365   1.254  11.748   2.568  0.1700  0.4422  0.2011
11185SOL    HW138366   1.291  11.753   2.657 -1.8756  0.9506  1.0859
11185SOL    HW238367   1.284  11.664   2.534 -0.2312 -0.4703  1.9820
11186SOL     OW38368  11.435   1.827   8.932  0.0497 -0.0143 -0.3646
11186SOL    HW138369  11.510   1.801   8.986  1.1904 -1.1667 -2.3678
11186SOL    HW238370  11.358   1.795   8.980  1.1320 -3.1895 -0.4874
11187SOL     OW38371   6.179  11.554   2.108 -0.2797 -0.1894 -0.4739
11187SOL    HW138372   6.134  11.636   2.126 -0.2869  0.1499 -1.8787
11187SOL    HW238373   6.152  11.495   2.179 -0.0239  1.0971  0.7231
11188SOL     OW38374   9.210  11.876  11.943 -0.2128 -0.1197 -0.0356
11188SOL    HW138375   9.170  11.789  11.944 -0.5827  0.0503  0.0079
11188SOL    HW238376   9.304  11.859  11.945 -0.1789 -0.5373  4.1066
11189SOL     OW38377   1.629   2.574   9.986  0.5085  0.0186 -0.1313
11189SOL    HW138378   1.716   2.537   9.995  1.5398  2.2616 -0.1493
11189SOL    HW238379   1.602   2.596  10.075  0.8298  1.1300 -0.2966
11190SOL     OW38380   9.423   6.678   9.258 -0.3379 -0.6759 -0.8435
11190SOL    HW138381   9.506   6.666   9.305 -0.8589  1.3544  0.7597
11190SOL    HW238382   9.429   6.766   9.222 -1.6878 -0.5966 -0.9100
11191SOL     OW38383   9.930  10.902  12.622 -0.1359 -0.6506  0.4008
11191SOL    HW138384   9.991  10.905  12.548  0.7370 -0.5487  1.1135
11191SOL    HW238385   9.893  10.814  12.619  1.8172 -1.5429  1.3526
11192SOL     OW38386  11.782   4.604  10.333 -0.3886 -0.0029 -0.2000
11192SOL    HW138387  11.857   4.664  10.328  1.2602 -1.8625  0.7521
11192SOL    HW238388  11.820   4.517  10.328 -2.5797 -1.0281 -0.3076
11193SOL     OW38389   9.289   3.312   4.530  0.3204 -0.1747 -0.4189
11193SOL    HW138390   9.279   3.238   4.471 -1.4184 -0.8156  0.5939
11193SOL    HW238391   9.377   3.302   4.566  0.8825 -0.5482 -1.8483
11194SOL     OW38392   9.070  12.412   1.957  0.1532  0.3547 -0.2150
11194SOL    HW138393   8.983  12.448   1.939 -0.9501 -2.3901 -0.8597
11194SOL    HW238394   9.099  12.378   1.873  2.3141  1.9810 -0.2027
11195SOL     OW38395  10.645   7.220   3.684  0.3664  0.7418 -0.1039
11195SOL    HW138396  10.571   7.170   3.648  3.3518 -1.7181 -3.5009
11195SOL    HW238397  10.604   7.287   3.738 -4.2258 -1.6829 -0.0626
11196SOL     OW38398   5.831   3.434   1.126 -0.7797 -0.3168  0.0956
11196SOL    HW138399   5.868   3.461   1.042 -2.1461 -0.8314 -0.7064
11196SOL    HW238400   5.907   3.412   1.180  0.2980  2.7862  0.0316
11197SOL     OW38401   7.594   3.890   9.069  0.1578  0.1804 -0.2043
11197SOL    HW138402   7.636   3.867   9.151 -0.6993  0.8239  0.4429
11197SOL    HW238403   7.583   3.807   9.022 -1.9761 -0.6588  1.6156
11198SOL     OW38404   1.411   5.742   3.137 -0.5689  0.0952 -0.0083
11198SOL    HW138405   1.378   5.654   3.157  0.6006 -0.0447  1.5039
11198SOL    HW238406   1.458   5.768   3.217  0.1090  1.6133 -0.8697
11199SOL     OW38407  11.209  10.436   1.484 -0.4169 -0.5708  0.4606
11199SOL    HW138408  11.295  10.461   1.450 -0.2250  0.0850  1.3815
11199SOL    HW238409  11.183  10.360   1.431  0.3464 -0.2545 -0.3868
11200SOL     OW38410   2.179   2.949   9.055  0.1697 -0.2051  0.3549
11200SOL    HW138411   2.260   2.986   9.020  0.6679 -0.8673  0.7588
11200SOL    HW238412   2.148   2.889   8.987  0.8716 -1.1183  0.8059
11201SOL     OW38413  12.029   6.403   2.961 -0.1362 -1.0287 -0.0143
11201SOL    HW138414  11.970   6.340   2.919 -1.7859 -0.6393  1.5512
11201SOL    HW238415  12.015   6.388   3.055 -2.9117  3.5229  0.5978
11202SOL     OW38416   0.161   0.194   2.812  0.1109  0.5605 -0.1476
11202SOL    HW138417   0.135   0.240   2.892 -1.6873  0.4214 -0.6016
11202SOL    HW238418   0.253   0.216   2.801  0.9263 -0.8342  2.8993
11203SOL     OW38419   4.637   2.572   0.055  0.7303  0.0752  0.2897
11203SOL    HW138420   4.653   2.495   0.111 -0.7742  0.4261  1.2632
11203SOL    HW238421   4.584   2.537  -0.018 -0.0780  0.1848  0.8075
11204SOL     OW38422   9.520   8.171   2.046 -0.3010 -0.0131 -0.3486
11204SOL    HW138423   9.606   8.160   2.005  0.9404  1.0200  1.7472
11204SOL    HW238424   9.485   8.251   2.008  1.8223  2.2015  1.9416
11205SOL     OW38425   0.409  12.124   6.702 -0.2583  0.4840 -0.1727
11205SOL    HW138426   0.325  12.085   6.726 -0.8501  0.7280 -1.7657
11205SOL    HW238427   0.424  12.098   6.611  1.9698 -0.5164  0.3983
11206SOL     OW38428   6.203   4.235  11.998  0.0833  0.0450  0.5182
11206SOL    HW138429   6.160   4.157  12.032 -1.3350  1.5743  2.4492
11206SOL    HW238430   6.151   4.261  11.922  0.3474 -0.6537  0.0904
11207SOL     OW38431   4.189  11.078  11.871 -0.0714 -0.5870 -0.5257
11207SOL    HW138432   4.158  11.121  11.950 -1.1034 -0.9879 -0.7047
11207SOL    HW238433   4.274  11.042  11.896  0.7439  1.3256 -0.3057
11208SOL     OW38434   2.469  11.107   3.014  0.0830 -0.0361 -0.2124
11208SOL    HW138435   2.520  11.080   2.938  1.1256  0.0508  0.4475
11208SOL    HW238436   2.526  11.167   3.062 -1.2156  1.3129 -0.2641
11209SOL     OW38437  10.195   6.428   3.666  0.2866  0.0274 -0.0706
11209SOL    HW138438  10.232   6.418   3.754 -1.0225  0.4091  0.5542
11209SOL    HW238439  10.245   6.499   3.627 -1.5651  2.5476  1.8187
11210SOL     OW38440   2.995   5.983  10.419 -0.2316  0.0215 -0.4310
11210SOL    HW138441   2.958   5.984  10.507  0.5378 -1.2713 -0.0695
11210SOL    HW238442   2.994   5.891  10.393  0.7446  0.2232 -1.2596
11211SOL     OW38443   0.729   2.706   1.045 -0.2514 -0.6838 -0.3555
11211SOL    HW138444   0.716   2.800   1.054  1.5025 -0.2042 -2.1019
11211SOL    HW238445   0.652   2.667   1.086 -0.7188  1.4699  0.9529
11212SOL     OW38446  12.574   2.882   2.112  0.2930  0.0567 -0.4475
11212SOL    HW138447  12.627   2.846   2.184  1.4425  0.0138 -1.2739
11212SOL    HW238448  12.635   2.886   2.038 -0.7601  0.4531 -1.3182
11213SOL     OW38449   9.604   0.962   1.422 -0.3034 -0.0793  0.1351
11213SOL    HW138450   9.606   0.866   1.412  0.0497  0.0339 -1.0326
11213SOL    HW238451   9.660   0.979   1.497 -0.5431 -0.8002  0.4932
11214SOL     OW38452   1.437   1.594   5.900 -0.5449 -0.0237  0.6840
11214SOL    HW138453   1.472   1.579   5.988  1.4784  0.6267  0.0430
11214SOL    HW238454   1.348   1.626   5.915 -0.0940  0.5040  2.5152
11215SOL     OW38455   0.051   5.856  11.607  0.2604 -0.4287  0.6280
11215SOL    HW138456  -0.035   5.840  11.646  0.5834 -3.9201  0.2117
11215SOL    HW238457   0.109   5.796  11.653  2.2949  1.0906  0.1614
11216SOL     OW38458   8.964   3.843   0.707  0.3437 -0.1557 -0.2035
11216SOL    HW138459   9.059   3.836   0.703  0.3109 -0.1867 -2.7090
11216SOL    HW238460   8.948   3.936   0.722  0.7491 -0.2986  1.2102
11217SOL     OW38461   5.389  11.817   8.829  0.0138 -0.7809  0.1673
11217SOL    HW138462   5.446  11.887   8.797 -0.8852 -0.4299 -0.7122
11217SOL    HW238463   5.370  11.842   8.919 -1.0283  0.6320 -0.3955
11218SOL     OW38464   0.539   7.005   4.105 -0.0796  0.2623  0.1891
11218SOL    HW138465   0.509   6.936   4.046 -0.8690 -0.4706  1.4005
11218SOL    HW238466   0.531   7.085   4.054 -0.0418 -0.4287 -0.9340
11219SOL     OW38467   9.831   1.818   1.427 -0.1071  0.4305 -0.1719
11219SOL    HW138468   9.923   1.792   1.429 -0.2091  0.1233  0.6011
11219SOL    HW238469   9.783   1.743   1.460 -0.5776  0.8577  0.1385
11220SOL     OW38470   5.099   9.189   1.949  0.1216 -0.9273  0.3334
11220SOL    HW138471   5.101   9.199   2.044  2.0659  0.8073  0.1787
11220SOL    HW238472   5.171   9.130   1.930  1.8186  1.2052 -0.2178
11221SOL     OW38473   7.717   0.942  12.165 -0.1169  0.5469  0.1377
11221SOL    HW138474   7.637   0.942  12.113  1.6786  1.0038 -2.8689
11221SOL    HW238475   7.748   1.033  12.160  0.5671  0.3971  1.3195
11222SOL     OW38476   6.399   3.468   6.719  0.4121 -0.0791  0.3601
11222SOL    HW138477   6.435   3.396   6.771 -0.6412 -0.0312  1.1860
11222SOL    HW238478   6.398   3.543   6.779 -0.2428  0.1412  0.0859
11223SOL     OW38479   4.409   3.613   8.339  0.3156 -0.2713 -0.2018
11223SOL    HW138480   4.366   3.536   8.302  1.6010 -1.2879  0.3467
11223SOL    HW238481   4.338   3.666   8.375 -0.6427 -0.8693 -1.1711
11224SOL     OW38482   8.248   1.241   1.179 -0.2475  0.2756  0.1117
11224SOL    HW138483   8.230   1.231   1.086 -1.2714  1.1341  0.1906
11224SOL    HW238484   8.289   1.159   1.205  3.3490  1.2616 -1.7955
11225SOL     OW38485   6.087   8.796  12.282  0.3260  0.9037 -0.7031
11225SOL    HW138486   6.096   8.820  12.189  2.4419 -0.0213 -0.7886
11225SOL    HW238487   6.161   8.839  12.325 -0.1204  0.5785  0.4224
11226SOL     OW38488  12.436   8.703   3.609  0.2081 -0.1917 -0.5764
11226SOL    HW138489  12.399   8.768   3.549 -2.3299 -0.9653  0.0402
11226SOL    HW238490  12.445   8.624   3.555  2.8652  0.4590 -1.2083
11227SOL     OW38491   4.155  10.205  10.577  0.3331 -0.1031 -0.1899
11227SOL    HW138492   4.161  10.138  10.645  0.2736  1.0567  0.9890
11227SOL    HW238493   4.154  10.155  10.495 -0.6220 -1.5996  0.6747
11228SOL     OW38494   2.350   2.663   8.976  0.3808 -0.4715  0.3266
11228SOL    HW138495   2.299   2.621   9.045 -0.3403  0.2403  0.2329
11228SOL    HW238496   2.296   2.736   8.947  1.7928  0.8094  0.7853
11229SOL     OW38497  11.176  11.600   9.817  0.2350 -0.1432 -0.4485
11229SOL    HW138498  11.103  11.661   9.826 -0.0662 -0.8140  3.3385
11229SOL    HW238499  11.137  11.523   9.775 -0.3153  0.7225 -1.6160
11230SOL     OW38500   6.537   1.084   2.166 -0.3494 -0.3853 -0.5328
11230SOL    HW138501   6.627   1.116   2.158  0.6675 -2.5474  1.2104
11230SOL    HW238502   6.536   1.002   2.117 -2.1561  0.7711 -2.6585
11231SOL     OW38503  10.919   2.904   8.436 -0.9388 -0.0855 -0.2323
11231SOL    HW138504  10.883   2.916   8.523 -0.5243  0.7700 -0.1737
11231SOL    HW238505  10.948   2.991   8.409  1.4889 -0.7983 -0.0962
11232SOL     OW38506   5.586   8.927   6.750 -0.4117 -0.3527 -0.6590
11232SOL    HW138507   5.518   8.869   6.785 -0.9091  0.8476  0.4459
11232SOL    HW238508   5.667   8.878   6.762 -0.8605 -0.9899 -0.1345
11233SOL     OW38509   7.978   3.541   8.429  0.3484 -0.0172  0.2326
11233SOL    HW138510   8.019   3.578   8.507 -0.1945 -0.5152  0.7681
11233SOL    HW238511   7.904   3.490   8.463  1.4505 -2.1462 -0.4085
11234SOL     OW38512   1.431  10.225   6.465 -0.3374  0.2315  0.2310
11234SOL    HW138513   1.414  10.151   6.408 -0.7314  0.8569 -0.4780
11234SOL    HW238514   1.527  10.234   6.465  0.2367 -3.0438  3.9062
11235SOL     OW38515   9.222   8.430  10.922 -0.8685 -0.2653 -0.5573
11235SOL    HW138516   9.188   8.361  10.979 -0.8293 -0.1535 -0.3975
11235SOL    HW238517   9.182   8.413  10.837 -2.5350  0.7552 -0.0253
11236SOL     OW38518   1.529   5.425   8.489 -0.6060 -0.0795 -0.7648
11236SOL    HW138519   1.574   5.478   8.554 -0.6052  0.1340 -0.9384
11236SOL    HW238520   1.510   5.486   8.418 -3.7459  0.6059  0.4853
11237SOL     OW38521   0.673   5.229   5.114 -0.3406  0.1297 -0.7373
11237SOL    HW138522   0.623   5.284   5.054 -1.1980 -1.3638 -1.4350
11237SOL    HW238523   0.737   5.184   5.059 -1.1894 -1.3133 -0.5982
11238SOL     OW38524   0.931   0.312   2.286  0.3124  0.3041  0.6141
11238SOL    HW138525   1.019   0.282   2.263  1.3057  2.6395  1.0444
11238SOL    HW238526   0.929   0.306   2.382  0.3274  1.0579  0.6635
11239SOL     OW38527   2.382   4.514   0.889  0.2339 -0.7949 -0.2713
11239SOL    HW138528   2.416   4.467   0.813  2.1279  0.9099 -0.5594
11239SOL    HW238529   2.287   4.513   0.877  0.4902  0.0376 -3.1023
11240SOL     OW38530   5.378  12.238   5.711  0.3617 -0.3162  0.0679
11240SOL    HW138531   5.461  12.284   5.695  1.0186 -1.5604 -0.3035
11240SOL    HW238532   5.354  12.202   5.625 -0.2229 -0.5016  0.3062
11241SOL     OW38533   7.921   5.377   9.853 -0.1133 -0.4312  0.4925
11241SOL    HW138534   7.906   5.472   9.851  0.4212 -0.3334  0.7150
11241SOL    HW238535   7.837   5.338   9.831  0.0876  0.1232 -1.4759
11242SOL     OW38536   8.564  10.542   4.867 -0.2799 -0.1722  0.0584
11242SOL    HW138537   8.501  10.586   4.811  0.4378  0.1521 -0.5079
11242SOL    HW238538   8.512  10.508   4.940 -1.0051  0.6841 -0.0420
11243SOL     OW38539  12.497   0.653  11.762 -0.3578 -0.1854  0.6318
11243SOL    HW138540  12.541   0.724  11.716 -1.7945  0.2068 -0.1790
11243SOL    HW238541  12.472   0.690  11.846  2.1959 -0.8781  1.8011
11244SOL     OW38542   8.103   8.576   4.342  0.6820 -0.3574 -0.0450
11244SOL    HW138543   8.008   8.567   4.353  0.5419  1.5476  0.7374
11244SOL    HW238544   8.141   8.524   4.412  0.3014 -2.0804 -1.0461
11245SOL     OW38545   8.596   7.233   1.946 -0.3484 -0.0124  0.1589
11245SOL    HW138546   8.555   7.188   2.020 -1.3573  1.2285  0.3944
11245SOL    HW238547   8.687   7.206   1.949 -1.1891 -3.4980 -0.8203
11246SOL     OW38548   5.707   9.901   8.118 -0.0479  0.0308  0.9708
11246SOL    HW138549   5.670   9.830   8.169 -1.5507  0.2805  0.2888
11246SOL    HW238550   5.781   9.861   8.071 -2.7640 -2.0746 -1.9502
11247SOL     OW38551   6.759   4.490   4.264 -0.2411 -0.7215  0.1404
11247SOL    HW138552   6.672   4.481   4.226 -0.9249 -0.6863  1.6265
11247SOL    HW238553   6.749   4.460   4.355  1.2757 -0.6446  0.3609
11248SOL     OW38554  10.503   6.152   2.182  0.4037  0.0682  0.3541
11248SOL    HW138555  10.457   6.091   2.240  1.7536 -0.5911  0.7703
11248SOL    HW238556  10.452   6.151   2.102 -0.7800  0.0069  1.0828
11249SOL     OW38557  12.434   9.168   4.395 -0.5128  0.1343 -0.0800
11249SOL    HW138558  12.462   9.177   4.486 -1.5939 -0.8554  0.3607
11249SOL    HW238559  12.342   9.195   4.394 -0.4870  0.2409 -0.9102
11250SOL     OW38560   3.474   0.541   9.517  0.2739  0.6514  0.7706
11250SOL    HW138561   3.541   0.574   9.457 -0.2615  1.9640  0.8558
11250SOL    HW238562   3.391   0.566   9.475 -0.1412 -0.1544  1.1048
11251SOL     OW38563   5.823   8.621   2.428  0.3009 -0.0037  0.2292
11251SOL    HW138564   5.915   8.650   2.431  0.1380  0.5737 -0.2324
11251SOL    HW238565   5.780   8.684   2.371 -0.6415  0.3982  1.3577
11252SOL     OW38566   5.377   2.766  10.186 -0.1589  0.2899  0.0838
11252SOL    HW138567   5.297   2.811  10.214 -0.3141  0.1650 -0.1585
11252SOL    HW238568   5.384   2.786  10.093 -1.8138 -2.5239 -0.7710
11253SOL     OW38569   5.541   3.240   8.759  0.2214  0.3603  0.0366
11253SOL    HW138570   5.468   3.288   8.797  0.5013  1.1086 -0.3489
11253SOL    HW238571   5.553   3.165   8.817 -2.1357 -0.9141 -0.9792
11254SOL     OW38572   4.518   2.256   7.435 -0.1330  0.0646  0.2471
11254SOL    HW138573   4.527   2.345   7.470  0.8816  0.3870 -0.7639
11254SOL    HW238574   4.511   2.200   7.512 -0.4723  0.9853  0.9037
11255SOL     OW38575   8.563   1.595   9.608 -0.0341 -0.3302 -0.5711
11255SOL    HW138576   8.543   1.631   9.522 -1.4238  1.1078  0.3016
11255SOL    HW238577   8.480   1.560   9.640  0.1331  0.3958  0.7339
11256SOL     OW38578   6.285  10.201  11.098 -0.4176 -0.0181 -0.3346
11256SOL    HW138579   6.316  10.110  11.102 -2.0518 -0.7479 -2.1926
11256SOL    HW238580   6.314  10.232  11.013  1.2265  1.6986  0.7951
11257SOL     OW38581  11.535   6.200   1.904 -0.5534 -0.0518 -0.1871
11257SOL    HW138582  11.608   6.159   1.857 -1.1535 -1.7006  0.2376
11257SOL    HW238583  11.559   6.292   1.911  1.8124 -0.6549  0.5283
11258SOL     OW38584   2.522   2.690   4.214 -0.1230  0.2789 -0.5004
11258SOL    HW138585   2.474   2.630   4.158 -1.4152  0.8481 -0.0431
11258SOL    HW238586   2.569   2.747   4.154 -0.0778 -0.2397 -0.9634
11259SOL     OW38587   3.007   8.539   0.707  0.4668  0.0907 -0.2451
11259SOL    HW138588   3.027   8.602   0.638  1.9131 -1.1649 -1.0448
11259SOL    HW238589   3.008   8.454   0.663  0.4091 -0.6583  1.1351
11260SOL     OW38590   7.364   1.640  12.182 -0.9423  0.5456  0.0765
11260SOL    HW138591   7.314   1.708  12.137 -0.6732  0.9545  0.3912
11260SOL    HW238592   7.413   1.686  12.249 -0.9504  0.0029  0.4629
11261SOL     OW38593   8.893   9.544   8.636 -0.9809  0.5860 -0.2345
11261SOL    HW138594   8.949   9.504   8.570  1.0059  0.1820  1.5805
11261SOL    HW238595   8.896   9.638   8.617  1.2161  0.6901  0.4181
11262SOL     OW38596  12.563   8.198   2.815  0.2425  0.1918 -0.3653
11262SOL    HW138597  12.559   8.194   2.910 -1.8188 -0.4726 -0.4418
11262SOL    HW238598  12.624   8.269   2.796  1.2266 -0.1358  1.4282
11263SOL     OW38599   5.862   4.041   0.668  0.2636 -0.1492  0.3200
11263SOL    HW138600   5.915   4.100   0.614 -0.7737  2.3488  1.8677
11263SOL    HW238601   5.787   4.019   0.613  0.8845 -0.3890 -0.4401
11264SOL     OW38602  12.094   7.943   6.350 -0.2435  0.3511 -0.1459
11264SOL    HW138603  11.999   7.941   6.341 -0.0773  0.4174 -2.5279
11264SOL    HW238604  12.119   8.032   6.324  0.6224 -0.5058 -2.5868
11265SOL     OW38605   2.125   7.210   0.659 -0.0076 -0.4573 -0.3112
11265SOL    HW138606   2.183   7.134   0.649  1.1899  0.4286 -0.3561
11265SOL    HW238607   2.152   7.269   0.589 -0.0015  0.5785  0.5455
11266SOL     OW38608   8.734   6.531   7.541  0.0820 -0.7593  0.1733
11266SOL    HW138609   8.755   6.448   7.497 -1.3484 -0.0569 -1.9957
11266SOL    HW238610   8.712   6.591   7.470 -2.1783  0.5341  1.8223
11267SOL     OW38611   6.942  12.095   2.125  0.9347  0.3183 -0.1184
11267SOL    HW138612   7.008  12.037   2.089  0.2324  0.7392 -2.2076
11267SOL    HW238613   6.982  12.182   2.123  1.1832  0.2506  0.9540
11268SOL     OW38614   2.083   6.112   2.523 -0.8331  0.0097 -0.3261
11268SOL    HW138615   2.063   6.140   2.612 -1.4291  1.4828 -0.8993
11268SOL    HW238616   1.997   6.100   2.481 -0.5940  1.6364 -1.3744
11269SOL     OW38617  10.440   6.715  10.619 -0.3268 -0.2927 -0.7817
11269SOL    HW138618  10.440   6.638  10.677  0.0692  0.2346 -0.0720
11269SOL    HW238619  10.407   6.681  10.536  0.5788 -1.4191 -0.7184
11270SOL     OW38620  10.806  10.297  11.518 -0.5402  0.0863  0.8055
11270SOL    HW138621  10.806  10.344  11.601 -0.1982  2.7361 -0.5900
11270SOL    HW238622  10.891  10.253  11.516 -1.0538 -1.0784  2.3462
11271SOL     OW38623   5.406   9.939   6.038  0.6740 -0.0275  0.4549
11271SOL    HW138624   5.341   9.957   5.971  0.5179 -2.3750 -0.1100
11271SOL    HW238625   5.358   9.945   6.120 -0.4787 -2.3656  0.0136
11272SOL     OW38626   4.221  10.835   4.840  0.3406  0.0434 -0.4566
11272SOL    HW138627   4.178  10.806   4.921  0.4547 -0.7437 -0.6693
11272SOL    HW238628   4.314  10.822   4.857  0.2679 -3.8142 -2.0048
11273SOL     OW38629   1.276   7.890   9.419 -0.5594 -0.0276  0.0977
11273SOL    HW138630   1.352   7.918   9.471 -0.2996 -3.8629  2.1215
11273SOL    HW238631   1.214   7.963   9.427  1.5271  1.7511  1.3188
11274SOL     OW38632   9.523   5.143   8.503 -0.2312 -0.2589 -0.0237
11274SOL    HW138633   9.517   5.106   8.591  0.0253  0.6198  0.3693
11274SOL    HW238634   9.598   5.098   8.464 -0.3490 -0.6564  0.1970
11275SOL     OW38635  11.223   1.383   6.616 -0.2008 -0.3917  0.2876
11275SOL    HW138636  11.309   1.344   6.634 -0.1350 -0.9417 -1.0824
11275SOL    HW238637  11.161   1.313   6.633 -0.1264 -0.9762 -1.5933
11276SOL     OW38638   0.875   4.684   4.817  0.2688  0.1068 -0.2693
11276SOL    HW138639   0.837   4.616   4.873 -0.0751 -1.0732 -1.8830
11276SOL    HW238640   0.801   4.725   4.774  0.5699  0.5969 -0.3313
11277SOL     OW38641   4.793   5.695  12.487  0.1705 -0.0988 -0.3468
11277SOL    HW138642   4.795   5.720  12.579 -1.0147  1.6303 -0.7498
11277SOL    HW238643   4.873   5.644  12.475 -0.1611 -1.2542  1.8540
11278SOL     OW38644   0.148   1.659   0.583  0.4007 -0.0657  0.0125
11278SOL    HW138645   0.072   1.661   0.525 -0.0326 -0.8854  0.5293
11278SOL    HW238646   0.112   1.665   0.672  1.0199  0.6719  0.2307
11279SOL     OW38647   9.402   8.206   9.648  0.1869 -0.4530  0.1048
11279SOL    HW138648   9.403   8.119   9.608 -1.7202  0.2681 -1.6957
11279SOL    HW238649   9.492   8.238   9.636  0.6135 -1.7197 -0.2489
11280SOL     OW38650   2.100  12.038  11.775  0.0375 -0.0195  0.1027
11280SOL    HW138651   2.163  11.969  11.796 -0.6283 -0.7097 -0.1055
11280SOL    HW238652   2.052  12.005  11.699 -0.0745  0.8238 -0.2057
11281SOL     OW38653   0.829   1.889   9.037  0.4590 -0.5718  0.1054
11281SOL    HW138654   0.747   1.883   8.988  0.1622  1.4576  0.2498
11281SOL    HW238655   0.803   1.914   9.125  1.2168  0.6451  0.0170
11282SOL     OW38656   2.429   7.214  10.671 -0.0746  0.4884  0.3726
11282SOL    HW138657   2.351   7.267  10.654 -0.2125 -0.3196 -1.7274
11282SOL    HW238658   2.402   7.124  10.650  0.9142 -0.0856  1.4122
11283SOL     OW38659   8.216   3.106   9.358  0.4393  0.0951  0.0829
11283SOL    HW138660   8.245   3.019   9.387  0.1815 -0.1973 -0.5124
11283SOL    HW238661   8.243   3.165   9.429  1.6120 -0.2996 -0.0081
11284SOL     OW38662   9.681   4.884   7.440  0.0562  0.2943 -0.7495
11284SOL    HW138663   9.588   4.864   7.427 -0.0561 -0.1714  0.5362
11284SOL    HW238664   9.727   4.824   7.382 -0.4123 -0.7903 -0.0494
11285SOL     OW38665   0.345   8.021   7.129 -0.3867  0.1823 -0.4629
11285SOL    HW138666   0.366   8.044   7.039 -0.2235 -2.0941 -1.0655
11285SOL    HW238667   0.426   7.984   7.164 -1.0781 -1.0841 -0.1477
11286SOL     OW38668  10.784   3.257   1.352 -0.7440 -0.0701 -0.6476
11286SOL    HW138669  10.813   3.272   1.442  0.8176 -0.4953 -1.0564
11286SOL    HW238670  10.728   3.179   1.358 -1.0594  0.1989  0.0195
11287SOL     OW38671   3.493   7.123   9.381  0.5337  0.4018 -0.1332
11287SOL    HW138672   3.505   7.048   9.322  1.0301  2.0873 -2.2943
11287SOL    HW238673   3.579   7.166   9.382 -0.2292  1.9747 -0.4243
11288SOL     OW38674  11.546   1.281  11.933  0.1226  0.2499  0.3225
11288SOL    HW138675  11.637   1.310  11.925  0.1109  0.5998  1.3273
11288SOL    HW238676  11.504   1.349  11.985 -1.2241  1.1431 -1.8070
11289SOL     OW38677   2.248   4.933   7.709 -0.1043 -0.5272  0.3068
11289SOL    HW138678   2.169   4.885   7.732  0.2961 -1.3326  0.0411
11289SOL    HW238679   2.301   4.870   7.661  0.3854  0.2182 -0.1560
11290SOL     OW38680   3.301   5.111   4.642  0.5489 -0.0898 -0.2759
11290SOL    HW138681   3.348   5.194   4.638 -1.1325  1.0041  1.2783
11290SOL    HW238682   3.223   5.125   4.589 -0.8498  0.1517  1.7328
11291SOL     OW38683   3.551  11.337   9.527  0.3591  0.1419 -0.2497
11291SOL    HW138684   3.478  11.392   9.499  1.3804  0.3845 -2.6792
11291SOL    HW238685   3.518  11.248   9.524 -0.3279  0.3640  0.4218
11292SOL     OW38686  10.660   8.633  11.441  0.2849 -0.2438  0.0015
11292SOL    HW138687  10.655   8.628  11.346 -1.9566 -0.6681  0.0906
11292SOL    HW238688  10.728   8.569  11.464  1.0894  0.1009 -1.3095
11293SOL     OW38689  10.237   6.731   7.868  0.4362 -1.0560 -0.1422
11293SOL    HW138690  10.189   6.659   7.908  0.0389 -1.0367 -0.5829
11293SOL    HW238691  10.295   6.689   7.804  1.1613 -1.0978  0.5268
11294SOL     OW38692   3.968   7.743   0.922 -0.0057  0.0829 -0.3996
11294SOL    HW138693   3.976   7.695   1.004 -0.8141  1.7617  0.7040
11294SOL    HW238694   4.031   7.814   0.929 -0.5281  0.6150 -0.9575
11295SOL     OW38695  11.131   7.477   5.452  1.2892 -0.2134 -0.6311
11295SOL    HW138696  11.194   7.405   5.462  2.5540  0.9348  0.1240
11295SOL    HW238697  11.056   7.451   5.506  2.3722 -0.3119  0.9027
11296SOL     OW38698   3.457   9.723   2.769 -0.0436 -0.1071 -0.4853
11296SOL    HW138699   3.425   9.794   2.825  1.9624 -0.2206  0.9272
11296SOL    HW238700   3.405   9.647   2.795  0.2244  0.0612  0.5937
11297SOL     OW38701   8.862   7.134  10.575 -0.0120  0.7295 -0.0941
11297SOL    HW138702   8.892   7.055  10.531  0.7168 -0.3465  2.1707
11297SOL    HW238703   8.928   7.200  10.554  0.2221  0.2921 -0.7460
11298SOL     OW38704   4.671   6.776   3.913 -0.4637  0.2992 -0.5963
11298SOL    HW138705   4.600   6.714   3.927 -0.0212 -0.6095 -2.2144
11298SOL    HW238706   4.627   6.858   3.889 -1.0165 -0.6967 -3.3086
11299SOL     OW38707   1.267   1.287   0.246 -0.1751  0.1348 -0.2144
11299SOL    HW138708   1.308   1.333   0.319  0.0497 -2.0374  1.1149
11299SOL    HW238709   1.173   1.299   0.259 -0.1042  0.7238 -0.2374
11300SOL     OW38710  11.158  12.399   6.382 -0.5681  0.2980 -0.4265
11300SOL    HW138711  11.133  12.379   6.292 -1.7490 -0.2869  0.0142
11300SOL    HW238712  11.079  12.382   6.434  0.5539 -1.0675  0.9606
11301SOL     OW38713   3.681   3.926   2.069  0.1299  0.6966 -0.0731
11301SOL    HW138714   3.697   3.887   2.155  0.2117 -0.6737 -0.6931
11301SOL    HW238715   3.601   3.978   2.081 -0.6847 -0.6390  0.4880
11302SOL     OW38716   2.021   7.638  11.408  0.2778 -0.2857  0.1754
11302SOL    HW138717   2.107   7.680  11.413  0.5135 -0.6776 -0.5093
11302SOL    HW238718   2.016   7.604  11.319 -0.1856 -1.1241  0.5145
11303SOL     OW38719   7.725   0.191  11.584 -0.0530  0.0725 -0.1243
11303SOL    HW138720   7.703   0.204  11.491 -1.9165  0.1063  0.2979
11303SOL    HW238721   7.819   0.211  11.588  0.1632 -0.2704 -2.0591
11304SOL     OW38722  10.948  12.112   9.444 -0.5172 -0.4018  0.0782
11304SOL    HW138723  10.875  12.147   9.393 -0.0452 -0.2839 -0.5395
11304SOL    HW238724  11.002  12.066   9.379 -0.1699 -0.6817  0.5651
11305SOL     OW38725   8.358   1.465   1.334  0.6647 -0.2475 -0.2478
11305SOL    HW138726   8.349   1.554   1.299  0.5759 -0.5388 -0.9992
11305SOL    HW238727   8.308   1.411   1.273  0.1579 -0.7317  0.5796
11306SOL     OW38728   2.970   7.257  12.518 -0.0159 -0.3752  0.2584
11306SOL    HW138729   3.049   7.278  12.568  0.7767  0.2678 -1.1924
11306SOL    HW238730   2.980   7.165  12.493 -0.2722 -0.6110  0.9943
11307SOL     OW38731   5.245   6.579  10.237  0.1607 -0.2965 -0.9666
11307SOL    HW138732   5.155   6.575  10.269  0.3546 -1.8291 -0.5188
11307SOL    HW238733   5.287   6.645  10.292 -0.2975 -0.7347 -0.0613
11308SOL     OW38734  11.015   9.686  10.869  0.0326 -0.1550  0.3123
11308SOL    HW138735  10.945   9.653  10.924 -0.0998 -0.4858 -0.0522
11308SOL    HW238736  11.061   9.749  10.924  0.2247 -0.8640  0.9822
11309SOL     OW38737  12.289   0.163   7.949 -0.0930 -0.4589  0.1761
11309SOL    HW138738  12.268   0.087   7.895 -1.2223 -0.6079  0.8066
11309SOL    HW238739  12.234   0.154   8.027  1.3052 -0.1168  1.2612
11310SOL     OW38740   4.612   2.663   2.248  0.1212 -0.1641  0.2461
11310SOL    HW138741   4.554   2.628   2.315 -0.2352  1.0348  0.5846
11310SOL    HW238742   4.625   2.590   2.187 -1.5053 -0.5445  0.3111
11311SOL     OW38743  12.238   4.318  11.302  0.0232 -0.1678  0.5275
11311SOL    HW138744  12.297   4.272  11.242 -0.0904  0.7896 -0.3628
11311SOL    HW238745  12.173   4.253  11.326 -1.9001  0.1424 -3.0532
11312SOL     OW38746   2.048  12.352  11.225  0.3678 -0.6927 -0.0020
11312SOL    HW138747   2.095  12.424  11.266 -0.3292 -0.7154  0.8782
11312SOL    HW238748   2.036  12.379  11.134 -0.3336  0.5353  0.4321
11313SOL     OW38749   4.010   8.177   7.279  0.3920 -0.1463  0.1327
11313SOL    HW138750   4.031   8.109   7.342 -0.0572  0.3689  0.8508
11313SOL    HW238751   3.996   8.256   7.331 -0.7973  0.1088 -0.5151
11314SOL     OW38752   9.194   5.510   7.947 -0.1282 -0.4624  0.5531
11314SOL    HW138753   9.128   5.462   7.896  0.8514  0.1811 -1.4332
11314SOL    HW238754   9.219   5.583   7.891 -1.1937  2.1705  3.2603
11315SOL     OW38755   9.503  11.635  10.929 -0.3545 -0.6798  0.4590
11315SOL    HW138756   9.535  11.566  10.870  2.2784 -0.1275  1.1141
11315SOL    HW238757   9.465  11.700  10.871  1.3692 -0.5681 -0.6330
11316SOL     OW38758   7.489   0.326   2.121 -0.1557  0.0879  0.2081
11316SOL    HW138759   7.521   0.238   2.140 -0.3422  0.2654  1.4436
11316SOL    HW238760   7.470   0.326   2.028  0.7670 -0.8838  0.0116
11317SOL     OW38761   9.854  11.773   8.404  0.9920 -0.0187 -0.1245
11317SOL    HW138762   9.902  11.811   8.331  1.5835 -0.2357  0.1477
11317SOL    HW238763   9.808  11.847   8.444  0.0952 -0.0029 -1.1300
11318SOL     OW38764   5.366  11.860  11.909 -0.5315 -0.7076 -0.2059
11318SOL    HW138765   5.421  11.938  11.901  2.2692 -2.7238 -2.0767
11318SOL    HW238766   5.362  11.844  12.004 -1.7733  1.9587  0.3141
11319SOL     OW38767   9.735  12.411   9.180  0.7722  0.2905 -0.2544
11319SOL    HW138768   9.651  12.428   9.222  1.7442  2.1687  1.0730
11319SOL    HW238769   9.762  12.326   9.215  0.0151  0.2653  0.2917
11320SOL     OW38770  10.630   9.502   8.618  0.4142 -0.3008  0.0728
11320SOL    HW138771  10.573   9.579   8.615  0.8812  0.2508  2.6167
11320SOL    HW238772  10.580   9.437   8.668  0.4923 -1.2633 -1.0530
11321SOL     OW38773   1.654   7.849   6.573  0.1296  0.4803  0.1400
11321SOL    HW138774   1.570   7.804   6.571 -0.5277  1.6267  0.6239
11321SOL    HW238775   1.701   7.816   6.497 -1.6059  1.3822 -1.4247
11322SOL     OW38776   4.734   4.437   6.510  0.3922 -0.2436 -0.6311
11322SOL    HW138777   4.742   4.401   6.598 -1.1675 -0.6877 -0.6500
11322SOL    HW238778   4.792   4.383   6.456 -0.2083 -1.2991 -0.2418
11323SOL     OW38779  11.944   4.821   8.562 -0.3075 -0.6466  0.0783
11323SOL    HW138780  12.036   4.835   8.538 -0.3918  0.5362  0.3795
11323SOL    HW238781  11.902   4.793   8.481  0.1454 -0.3311 -0.2714
11324SOL     OW38782   1.008   2.788   5.832 -0.1722 -0.1891  0.3352
11324SOL    HW138783   0.924   2.802   5.876 -0.7749 -1.6033 -0.2999
11324SOL    HW238784   1.016   2.693   5.825  1.8985 -0.1268  1.1360
11325SOL     OW38785   7.442   0.471   0.776 -0.3431  0.1563 -0.4308
11325SOL    HW138786   7.397   0.514   0.849 -0.9868 -0.0507 -0.7051
11325SOL    HW238787   7.436   0.377   0.797 -1.6917  0.0039 -1.4029
11326SOL     OW38788  12.245  11.382   7.006 -0.2737 -0.1121  0.0408
11326SOL    HW138789  12.191  11.365   7.083 -1.8735 -0.8845 -1.1862
11326SOL    HW238790  12.189  11.360   6.932  1.1664  0.7214 -1.3699
11327SOL     OW38791   6.349   5.168   4.526  0.4203 -0.0793  0.3007
11327SOL    HW138792   6.354   5.083   4.482 -0.5161  0.3989 -0.7867
11327SOL    HW238793   6.260   5.173   4.559  0.2668  0.7198 -0.1938
11328SOL     OW38794   7.997   8.492  10.838  0.1720  0.2525 -0.0819
11328SOL    HW138795   8.047   8.414  10.814  2.4492  1.9645 -1.3491
11328SOL    HW238796   7.908   8.461  10.851  1.0899 -2.6310  0.0837
11329SOL     OW38797   7.924   4.006  12.075 -0.3632  0.0728 -0.0340
11329SOL    HW138798   8.014   4.003  12.044 -0.2325 -0.5415  0.3948
11329SOL    HW238799   7.928   3.977  12.166 -0.6154  2.5945  0.8766
11330SOL     OW38800   9.293   6.321   8.682 -0.0052  0.4077 -0.8076
11330SOL    HW138801   9.229   6.339   8.750  0.9466  0.9924 -0.0339
11330SOL    HW238802   9.348   6.252   8.718 -0.1145 -0.0096 -1.4179
11331SOL     OW38803   5.682  11.216   2.595 -0.0488  0.6001 -0.6609
11331SOL    HW138804   5.641  11.219   2.509 -0.2762  1.1557 -0.5345
11331SOL    HW238805   5.740  11.292   2.596 -0.7520  1.1322  0.0294
11332SOL     OW38806  10.972   6.976   0.311  0.3998 -0.2132 -0.4399
11332SOL    HW138807  11.057   6.955   0.271  0.3605  1.0344 -1.2426
11332SOL    HW238808  10.909   6.925   0.261  0.7252 -1.8611  0.7462
11333SOL     OW38809   3.799   5.108   1.023  0.1229  0.0866 -0.0092
11333SOL    HW138810   3.792   5.102   0.928 -0.2062 -0.4167  0.0403
11333SOL    HW238811   3.814   5.201   1.041  2.2855 -0.0647 -0.6876
11334SOL     OW38812   2.902  12.068  10.324  0.5240 -0.3572  0.7478
11334SOL    HW138813   2.962  12.142  10.314  0.3758 -0.2704  0.4604
11334SOL    HW238814   2.817  12.103  10.297  0.1965 -0.2763  1.8353
11335SOL     OW38815   0.463   0.972   7.871  0.2659  0.4816 -0.0710
11335SOL    HW138816   0.429   0.944   7.956 -0.7032 -0.2256 -0.6658
11335SOL    HW238817   0.546   1.014   7.891 -0.4901  1.3717  1.3418
11336SOL     OW38818   8.084   7.975   7.724  0.3466 -0.6622 -0.3215
11336SOL    HW138819   8.056   8.038   7.657  1.4801 -0.4850 -0.6444
11336SOL    HW238820   8.024   7.991   7.798  1.1917  1.4613 -0.0249
11337SOL     OW38821   1.045   8.514   4.191 -0.4788  0.4498 -0.4751
11337SOL    HW138822   1.017   8.589   4.139 -0.6754  0.5860 -0.1797
11337SOL    HW238823   1.046   8.547   4.281  0.9621  0.5514 -0.5054
11338SOL     OW38824  11.484   8.353   7.003  0.4077  0.2216  0.2254
11338SOL    HW138825  11.545   8.419   7.038  0.4856  0.0284  0.4620
11338SOL    HW238826  11.399   8.378   7.039  0.7206 -0.8048  1.7573
11339SOL     OW38827   9.006   5.292   5.850  0.1196  0.2849  0.3185
11339SOL    HW138828   9.031   5.225   5.786  0.6055  0.9098 -0.1612
11339SOL    HW238829   9.005   5.374   5.800 -0.6363  0.6166  0.8586
11340SOL     OW38830   7.716   9.617   8.828  0.1205  0.6946  0.5135
11340SOL    HW138831   7.768   9.629   8.907  1.4355  0.7203 -0.3142
11340SOL    HW238832   7.625   9.618   8.858  0.6037 -0.2769  2.1400
11341SOL     OW38833   8.306   2.600   4.013 -0.8095  0.8274 -0.2907
11341SOL    HW138834   8.377   2.642   4.060 -0.9355  2.8977 -1.7781
11341SOL    HW238835   8.234   2.596   4.076  0.2361 -0.2676  0.8853
11342SOL     OW38836   2.943  11.063   5.544  0.2564 -0.2700 -0.4793
11342SOL    HW138837   3.036  11.082   5.538  0.5092 -1.2792 -0.0329
11342SOL    HW238838   2.910  11.076   5.455  0.7284  0.5094 -0.5452
11343SOL     OW38839   2.031   3.501   8.447  0.0858  0.4189 -0.2319
11343SOL    HW138840   2.054   3.477   8.536 -0.2161  1.9431  0.2902
11343SOL    HW238841   2.076   3.584   8.432 -0.7042  0.7105 -1.1089
11344SOL     OW38842   5.471   4.848  11.491  0.3603 -0.3897  0.4972
11344SOL    HW138843   5.519   4.876  11.568  1.1675  1.7878 -0.6924
11344SOL    HW238844   5.522   4.775  11.456  1.4578  0.3077  0.6040
11345SOL     OW38845   6.655   5.019   2.017 -0.2638  0.1786 -0.3800
11345SOL    HW138846   6.653   5.009   1.921 -0.3702 -0.2127 -0.3402
11345SOL    HW238847   6.603   4.945   2.049 -1.4878  1.1330 -0.0726
11346SOL     OW38848   4.389   8.558   6.441 -0.2855 -0.5432  0.2158
11346SOL    HW138849   4.359   8.584   6.355  0.6243  0.7657  0.2763
11346SOL    HW238850   4.329   8.487   6.467  0.1261 -1.7496 -1.9370
11347SOL     OW38851   0.461   9.715   7.259  0.0653  0.4670 -0.2579
11347SOL    HW138852   0.460   9.788   7.321 -0.2051  0.1749  0.0921
11347SOL    HW238853   0.553   9.695   7.245  0.1277  0.4653  0.1432
11348SOL     OW38854   1.103   2.474   1.955 -0.5580  0.4941 -0.2508
11348SOL    HW138855   1.070   2.386   1.972  1.0979 -0.0396  0.3590
11348SOL    HW238856   1.061   2.500   1.873 -1.4140 -0.6698 -0.2011
11349SOL     OW38857   3.224   2.248   3.854  0.0337  0.0159 -0.3482
11349SOL    HW138858   3.210   2.328   3.905  0.3263 -0.1421 -0.0162
11349SOL    HW238859   3.193   2.271   3.766  1.8073  1.1041 -0.7357
11350SOL     OW38860   2.367   2.301   4.092  0.2846 -0.0499 -0.5245
11350SOL    HW138861   2.318   2.340   4.165 -0.3408 -3.7726  1.2443
11350SOL    HW238862   2.311   2.314   4.016 -1.5155 -0.5089  0.6642
11351SOL     OW38863   9.600  10.732   4.191 -0.2267  0.3008  0.6151
11351SOL    HW138864   9.550  10.668   4.142 -1.2188  0.3041  1.5970
11351SOL    HW238865   9.685  10.734   4.148 -1.4297  1.2084 -1.8833
11352SOL     OW38866  10.189   6.572   6.345 -0.2896  0.1326 -0.4418
11352SOL    HW138867  10.113   6.625   6.320  1.1847  2.4460 -0.3876
11352SOL    HW238868  10.152   6.502   6.399 -2.3387  1.5195  0.1133
11353SOL     OW38869   3.092   4.005   1.522 -0.6463 -0.7505 -0.3607
11353SOL    HW138870   3.104   4.058   1.443  0.5233 -1.1403 -0.4582
11353SOL    HW238871   3.119   4.063   1.594 -2.3238 -0.1685 -0.1491
11354SOL     OW38872  10.174   5.108   8.814  0.0963  0.1684 -0.5333
11354SOL    HW138873  10.202   5.018   8.826 -0.5663  0.1912  1.5665
11354SOL    HW238874  10.083   5.110   8.843  0.4267  1.7039  0.5763
11355SOL     OW38875  11.607  10.148  11.943  0.7391 -0.4653  0.1143
11355SOL    HW138876  11.574  10.222  11.893  0.2444 -0.9904 -0.3546
11355SOL    HW238877  11.664  10.101  11.882 -0.2543 -1.3840 -0.1357
11356SOL     OW38878   7.148   7.170   4.136 -0.1069 -0.0898  0.2782
11356SOL    HW138879   7.080   7.110   4.168 -0.8725  1.4545  1.7224
11356SOL    HW238880   7.172   7.136   4.050 -0.4200 -2.5117  1.0675
11357SOL     OW38881   5.504   7.266  12.587  0.0743 -0.0527  0.5770
11357SOL    HW138882   5.434   7.232  12.531  0.4321  0.5730 -0.2650
11357SOL    HW238883   5.582   7.261  12.533  0.5541 -0.0321  1.2530
11358SOL     OW38884   0.394   1.559   4.844  0.7117 -0.1559  0.3257
11358SOL    HW138885   0.370   1.568   4.752  0.5580  0.2779  0.4063
11358SOL    HW238886   0.431   1.644   4.867 -0.0782  0.0367  0.9084
11359SOL     OW38887   4.756   4.533   4.416  0.0613  0.4422 -0.1750
11359SOL    HW138888   4.716   4.452   4.448 -0.1208  1.0386  1.2016
11359SOL    HW238889   4.837   4.540   4.466 -0.0429  1.2313 -0.1121
11360SOL     OW38890  10.686   4.431  11.962 -0.3214  0.1141 -0.0795
11360SOL    HW138891  10.604   4.445  12.009 -0.5844  0.4676 -0.6208
11360SOL    HW238892  10.736   4.512  11.976 -0.4569  0.2764 -0.4988
11361SOL     OW38893  11.901   8.405   8.940  0.5712  0.4612 -0.1214
11361SOL    HW138894  11.968   8.346   8.905  0.2108 -1.0639  1.6193
11361SOL    HW238895  11.945   8.451   9.012  0.2761  0.8777 -0.2018
11362SOL     OW38896  11.379   3.156  10.325 -0.3706 -0.1156  0.0567
11362SOL    HW138897  11.416   3.244  10.325 -1.3112  0.3759 -2.6856
11362SOL    HW238898  11.450   3.101  10.358  0.5685  1.5224  0.9342
11363SOL     OW38899   9.580   1.200   0.388 -0.0871 -0.5708  0.2531
11363SOL    HW138900   9.509   1.140   0.410  0.1800 -0.1691  2.4425
11363SOL    HW238901   9.594   1.188   0.294 -1.0530 -2.7991  0.3492
11364SOL     OW38902   1.603   1.076   6.758  0.1714 -0.6018 -0.2490
11364SOL    HW138903   1.567   1.151   6.711 -0.1393 -1.0003 -0.6522
11364SOL    HW238904   1.653   1.115   6.830  0.3389  0.0057 -0.6799
11365SOL     OW38905   1.228   0.215   5.961 -0.0578  0.4640  0.0846
11365SOL    HW138906   1.260   0.124   5.963 -1.1273  0.0354 -1.2101
11365SOL    HW238907   1.299   0.265   6.001  1.3154 -0.7231 -0.7483
11366SOL     OW38908   8.050   9.732  11.547 -0.1367  0.5752 -0.2406
11366SOL    HW138909   8.013   9.784  11.476  0.4603  0.5372 -0.5949
11366SOL    HW238910   8.145   9.736  11.532 -0.1078 -1.4245 -0.8704
11367SOL     OW38911   9.791   7.167   4.065  0.3509 -0.2202 -0.5073
11367SOL    HW138912   9.828   7.233   4.007  0.0332 -0.3884 -0.9073
11367SOL    HW238913   9.845   7.089   4.051  1.1817  0.1574  0.5025
11368SOL     OW38914   5.822   2.717   4.688 -0.3503  0.4253  0.1487
11368SOL    HW138915   5.799   2.797   4.734  2.7110  1.1501  0.6560
11368SOL    HW238916   5.834   2.652   4.758  0.1706  0.3597 -0.0001
11369SOL     OW38917  12.022  12.569   3.781  0.7222 -0.0792 -0.7932
11369SOL    HW138918  11.945  12.622   3.802  0.8121  0.4103 -1.6586
11369SOL    HW238919  11.994  12.517   3.706  1.0443 -0.3437 -0.7292
11370SOL     OW38920   8.521   3.308   5.633  0.7412  0.0585  0.2966
11370SOL    HW138921   8.534   3.217   5.608  2.4956  0.1267  0.8231
11370SOL    HW238922   8.577   3.358   5.574  0.4450  0.7208  0.5629
11371SOL     OW38923  10.247   5.963   6.335 -0.2992 -0.0328  0.1835
11371SOL    HW138924  10.185   5.890   6.339  0.7357 -0.9220  0.6716
11371SOL    HW238925  10.279   5.962   6.245  0.4058 -0.8043  0.4281
11372SOL     OW38926   2.472   4.267   3.898 -0.9906 -0.2417  0.2135
11372SOL    HW138927   2.567   4.268   3.885 -1.1476 -2.1474 -1.7050
11372SOL    HW238928   2.460   4.235   3.988  0.1765 -0.4407  0.3087
11373SOL     OW38929   6.748   3.889  11.661 -0.1450  0.1989 -0.6784
11373SOL    HW138930   6.757   3.796  11.639 -1.7650 -0.3909  0.8965
11373SOL    HW238931   6.742   3.890  11.756 -0.7913  1.8710 -0.7174
11374SOL     OW38932   6.445   5.617   2.549  0.0715 -0.5805  0.4376
11374SOL    HW138933   6.525   5.567   2.535  1.4284  1.5758 -0.1577
11374SOL    HW238934   6.432   5.665   2.467 -0.1146  1.3315  1.5126
11375SOL     OW38935  12.295   7.067   1.027  0.3700 -0.0134 -0.1923
11375SOL    HW138936  12.253   7.151   1.047  1.5075  0.3016  1.0066
11375SOL    HW238937  12.305   7.067   0.932  1.8267  1.9700 -0.0970
11376SOL     OW38938   2.680   9.568   6.268  0.6570 -0.5289  0.0453
11376SOL    HW138939   2.704   9.547   6.177 -1.6430 -3.1439 -0.0857
11376SOL    HW238940   2.626   9.647   6.260  1.8623  0.2532 -0.6350
11377SOL     OW38941  11.955  10.311   4.296  0.2051 -0.0849 -0.0006
11377SOL    HW138942  12.011  10.308   4.373 -1.2866 -1.6517  1.0809
11377SOL    HW238943  11.984  10.238   4.242 -0.0714 -0.2250  0.0383
11378SOL     OW38944   8.954   1.799  10.376  0.3018 -0.1448  0.4230
11378SOL    HW138945   8.886   1.739  10.346  1.0523 -1.0693  0.5105
11378SOL    HW238946   8.964   1.862  10.305  0.6979 -1.1599 -0.4430
11379SOL     OW38947   3.578   1.797   1.232  0.1892  0.1461  0.3082
11379SOL    HW138948   3.530   1.742   1.169  1.0334  0.3899 -0.5692
11379SOL    HW238949   3.520   1.871   1.249  0.3161  0.5360 -0.8907
11380SOL     OW38950  10.438  12.596   6.781 -0.2396  0.7555  0.1245
11380SOL    HW138951  10.524  12.617   6.746 -0.4453  2.1853  0.4361
11380SOL    HW238952  10.448  12.507   6.816  0.4669  0.0114 -1.8271
11381SOL     OW38953  10.912   1.519   4.790 -0.1234 -1.0160  0.2974
11381SOL    HW138954  10.945   1.470   4.715  0.2356 -1.3087  0.6475
11381SOL    HW238955  10.981   1.513   4.856  0.6246  1.2154 -0.1629
11382SOL     OW38956   5.276   4.320  12.457  0.4759  0.1828 -0.7661
11382SOL    HW138957   5.355   4.269  12.472 -0.0863 -0.3557  0.5145
11382SOL    HW238958   5.249   4.298  12.368  1.0778 -0.5751 -0.7666
11383SOL     OW38959  10.070   4.203   8.309  0.0225 -0.3813  0.5652
11383SOL    HW138960  10.061   4.259   8.232  0.9016  1.2087  1.5799
11383SOL    HW238961  10.065   4.114   8.274  2.2500  0.2482 -1.5989
11384SOL     OW38962   9.726   0.559   8.353  0.3550 -0.2994 -0.1998
11384SOL    HW138963   9.662   0.615   8.309 -0.8199 -0.6819  0.9508
11384SOL    HW238964   9.800   0.555   8.293 -0.1358  1.2785 -0.9601
11385SOL     OW38965  12.505  11.663   2.119  0.2494 -0.0115  0.5980
11385SOL    HW138966  12.412  11.670   2.097  0.4535  0.2408 -0.2289
11385SOL    HW238967  12.540  11.750   2.102  0.4822  0.1086  1.6705
11386SOL     OW38968  11.363   9.994   3.753 -0.2238 -0.4725 -0.0822
11386SOL    HW138969  11.413   9.919   3.721 -0.4420 -1.8882  2.5800
11386SOL    HW238970  11.275   9.959   3.769 -0.8780  0.8703 -0.5984
11387SOL     OW38971   5.008   9.110   6.216  0.1089  0.0130  0.3884
11387SOL    HW138972   4.965   9.044   6.269  0.5784  0.0363  0.7993
11387SOL    HW238973   4.944   9.130   6.146 -1.6672  1.9218  2.3918
11388SOL     OW38974   4.398   7.814   1.853  0.4744 -0.1280  0.0933
11388SOL    HW138975   4.364   7.889   1.804 -0.2526 -0.7810 -0.4260
11388SOL    HW238976   4.489   7.805   1.822 -0.1289 -0.8798 -1.6062
11389SOL     OW38977   1.140  11.544  10.532  0.5369 -0.0107 -0.1131
11389SOL    HW138978   1.233  11.524  10.515  0.6171 -0.1597  0.4758
11389SOL    HW238979   1.130  11.634  10.504  0.5246 -0.4094 -1.4579
11390SOL     OW38980   9.284  10.774  12.383 -0.0018 -0.4307  0.4199
11390SOL    HW138981   9.378  10.759  12.395  0.0741 -2.6738 -2.0665
11390SOL    HW238982   9.247  10.764  12.471  2.0406  0.6136  1.4774
11391SOL     OW38983   2.862   7.088  10.519 -0.1105  0.5337  0.4226
11391SOL    HW138984   2.789   7.135  10.560 -2.5360 -1.5754 -1.1540
11391SOL    HW238985   2.833   7.073  10.429  3.0961  1.1067 -0.8259
11392SOL     OW38986  12.307   2.805   3.468  0.1388  0.3948  0.0179
11392SOL    HW138987  12.330   2.898   3.466  0.1761  0.3754 -0.9114
11392SOL    HW238988  12.218   2.804   3.504  0.0127  0.8258 -0.2690
11393SOL     OW38989  10.310   7.476  10.174 -0.2386 -0.0406  0.1588
11393SOL    HW138990  10.386   7.430  10.210 -0.9534 -1.2172  0.1954
11393SOL    HW238991  10.307   7.450  10.082 -1.4913 -1.2608  0.5146
11394SOL     OW38992   9.604   8.751   8.916 -0.3386 -0.2030 -0.1066
11394SOL    HW138993   9.541   8.824   8.915 -0.8933 -0.6214  1.3679
11394SOL    HW238994   9.564   8.686   8.974  0.2085 -1.6397 -1.2808
11395SOL     OW38995   4.076   2.754   8.042 -0.1740 -0.2684 -0.1197
11395SOL    HW138996   4.090   2.678   7.985  1.0699 -2.0260  2.3239
11395SOL    HW238997   4.154   2.808   8.030 -0.4311 -0.0499 -0.8649
11396SOL     OW38998  11.864   0.118  10.432  0.2633 -0.0695  0.5313
11396SOL    HW138999  11.819   0.065  10.366  0.1096 -0.0467  0.6173
11396SOL    HW239000  11.901   0.191  10.382  0.2391 -0.1099  0.4538
11397SOL     OW39001  11.729   7.460   6.712 -0.2569  0.1744  0.1512
11397SOL    HW139002  11.813   7.493   6.677  0.8995  0.0451  2.6162
11397SOL    HW239003  11.701   7.394   6.649  1.0125  0.8766 -1.2163
11398SOL     OW39004   5.084   3.400   2.154 -0.0987  0.8981 -0.3065
11398SOL    HW139005   5.007   3.356   2.190  1.0379 -0.5224  0.4954
11398SOL    HW239006   5.056   3.429   2.067 -2.1738  2.3377  0.7288
11399SOL     OW39007  10.844   3.553   8.401  0.0969 -0.6142  0.1737
11399SOL    HW139008  10.937   3.565   8.420  0.1421  2.2067 -1.2530
11399SOL    HW239009  10.839   3.551   8.305 -1.4273  1.2788  0.1468
11400SOL     OW39010  10.203  12.463   4.484  0.0389  0.7457 -0.4644
11400SOL    HW139011  10.272  12.513   4.441 -1.8160  2.2103 -1.9450
11400SOL    HW239012  10.140  12.529   4.513 -1.1657 -0.5696  0.0420
11401SOL     OW39013   4.026   8.853   5.303 -0.3307 -0.0339  0.4117
11401SOL    HW139014   3.975   8.932   5.319 -0.1054  0.2790 -0.3850
11401SOL    HW239015   4.034   8.848   5.208 -1.4353 -1.7235  0.3773
11402SOL     OW39016   9.455   8.110   6.461  0.4776 -0.3907  0.1173
11402SOL    HW139017   9.482   8.023   6.490 -2.4553 -1.5663 -0.2801
11402SOL    HW239018   9.475   8.112   6.367  1.6531 -0.1399  0.3643
11403SOL     OW39019   8.781   0.987   6.887 -0.3044  0.1783  0.1506
11403SOL    HW139020   8.763   0.971   6.980  1.4800  1.0601  0.6851
11403SOL    HW239021   8.795   0.900   6.850 -3.1321 -0.3746  0.1747
11404SOL     OW39022   1.680   8.553   2.274  0.2228 -0.1222  0.4733
11404SOL    HW139023   1.756   8.606   2.253  0.5894 -1.0797 -0.7338
11404SOL    HW239024   1.612   8.616   2.298  1.3125  0.7560  1.3636
11405SOL     OW39025   9.031   8.032   5.309  0.3511 -0.0807  0.3508
11405SOL    HW139026   9.056   7.957   5.364  0.2888  0.3759  1.0081
11405SOL    HW239027   8.935   8.032   5.311  0.3024 -0.7325 -0.6883
11406SOL     OW39028   1.583   7.965   2.581  0.0291 -0.2472  0.4650
11406SOL    HW139029   1.519   8.018   2.629 -0.5115  0.3877 -0.8993
11406SOL    HW239030   1.658   8.024   2.569 -0.2206 -0.0687 -0.2829
11407SOL     OW39031  11.670  11.961   8.824 -0.4930 -0.2294  0.6726
11407SOL    HW139032  11.586  12.008   8.821 -0.8458 -0.7786  1.4181
11407SOL    HW239033  11.654  11.890   8.886  1.0944  0.7866  2.3526
11408SOL     OW39034   9.533  12.317   0.954 -0.3661  0.4012  0.2594
11408SOL    HW139035   9.455  12.344   1.003 -0.5746  1.9089 -0.8393
11408SOL    HW239036   9.568  12.399   0.919  1.0357 -0.4005 -0.2621
11409SOL     OW39037  10.127   5.989   9.354 -0.8614 -0.1442 -0.4524
11409SOL    HW139038  10.095   6.069   9.311  2.3050  2.6398  1.8544
11409SOL    HW239039  10.091   5.993   9.442  0.6024 -0.3033  0.1868
11410SOL     OW39040   7.555  12.599   2.413  0.3260 -0.2082 -0.5318
11410SOL    HW139041   7.648  12.593   2.436 -0.2228 -0.1230  2.0775
11410SOL    HW239042   7.512  12.544   2.478 -1.3747 -1.3872 -2.5715
11411SOL     OW39043   1.870  12.009   5.912  0.5758  0.3780 -0.4013
11411SOL    HW139044   1.937  11.954   5.870  0.8760  0.3833  0.0671
11411SOL    HW239045   1.867  12.088   5.858  1.0838  0.4554 -0.3185
11412SOL     OW39046   3.209   3.746  10.608  0.2405  0.4638 -0.0161
11412SOL    HW139047   3.118   3.745  10.638  1.0456 -1.5832  2.7518
11412SOL    HW239048   3.217   3.668  10.554  0.3821  0.5692 -0.1478
11413SOL     OW39049   6.450   7.360   9.828  0.0922  0.1678  0.4802
11413SOL    HW139050   6.453   7.394   9.918  0.2224  1.2393  0.0769
11413SOL    HW239051   6.384   7.291   9.832 -0.0411  0.3265  1.3597
11414SOL     OW39052   2.758  12.585  11.837 -0.4136 -0.0929  0.3985
11414SOL    HW139053   2.723  12.673  11.847  0.5953  0.3696  0.0244
11414SOL    HW239054   2.682  12.532  11.814 -1.0242  0.6894  0.5481
11415SOL     OW39055   9.983   1.787   2.078  0.4390 -1.1819  0.5132
11415SOL    HW139056  10.020   1.842   2.147  0.8219  2.9721 -2.6315
11415SOL    HW239057   9.889   1.790   2.091  0.4842 -0.0302  0.6687
11416SOL     OW39058  11.695   7.358   0.361  0.2473 -0.0987 -0.1930
11416SOL    HW139059  11.747   7.314   0.293  2.2507  4.0097 -1.6970
11416SOL    HW239060  11.759   7.381   0.429 -0.4000  1.3570 -0.0385
11417SOL     OW39061   0.173   2.189   5.528  0.4472 -0.2175  0.5235
11417SOL    HW139062   0.107   2.154   5.467  0.0695 -1.3383  1.5427
11417SOL    HW239063   0.257   2.173   5.485  0.1053  0.7398 -0.5497
11418SOL     OW39064  11.896   7.108   3.356  0.4909  0.7638 -0.1702
11418SOL    HW139065  11.905   7.107   3.261 -0.8246  1.9517 -0.3387
11418SOL    HW239066  11.956   7.177   3.385  2.5622 -1.0569  0.1229
11419SOL     OW39067   3.047   6.485   3.189 -0.3436 -0.3630  0.7742
11419SOL    HW139068   3.134   6.496   3.150 -0.5799  1.5683  0.7017
11419SOL    HW239069   3.022   6.573   3.217 -1.7135 -1.1103  2.0351
11420SOL     OW39070   1.588   6.052   2.159  0.2059  0.0599  0.4214
11420SOL    HW139071   1.549   6.063   2.245 -0.0904  1.5727  0.1196
11420SOL    HW239072   1.636   6.134   2.143  0.0472 -0.0818 -0.9474
11421SOL     OW39073   2.272   4.586   6.320 -0.4203 -0.2859 -0.5233
11421SOL    HW139074   2.297   4.597   6.412 -0.9890 -0.5008 -0.3396
11421SOL    HW239075   2.262   4.675   6.287 -0.2838 -0.2084 -0.3586
11422SOL     OW39076   7.355   8.567   6.232 -0.1645  0.1697 -0.4242
11422SOL    HW139077   7.449   8.558   6.216 -0.0863 -1.1390  0.6080
11422SOL    HW239078   7.333   8.494   6.290 -1.9196  0.1483 -1.0516
11423SOL     OW39079   5.746   8.815   4.019 -0.0549  0.5907 -0.0694
11423SOL    HW139080   5.738   8.760   4.097 -0.7454 -1.5856 -1.5767
11423SOL    HW239081   5.814   8.773   3.967  0.4606  2.0571 -0.6311
11424SOL     OW39082   4.218   3.888   4.052 -0.1976 -0.0428 -0.0803
11424SOL    HW139083   4.183   3.976   4.066 -0.2075 -0.1526  0.6159
11424SOL    HW239084   4.177   3.859   3.970  0.3485  0.8628 -0.7048
11425SOL     OW39085   8.753   5.793   9.386  0.4108  0.1719 -0.1371
11425SOL    HW139086   8.711   5.712   9.357 -1.6323  1.3677 -0.7021
11425SOL    HW239087   8.820   5.810   9.319 -0.5657  0.0332 -1.1806
11426SOL     OW39088   7.481   1.141   8.369 -0.0476 -0.3268 -0.3106
11426SOL    HW139089   7.509   1.061   8.324  0.8461  0.7998 -1.8431
11426SOL    HW239090   7.407   1.113   8.423  1.2183 -2.5049  0.4330
11427SOL     OW39091  11.969   9.272   0.463 -0.3467  0.3275  0.0570
11427SOL    HW139092  11.926   9.356   0.446  1.2543  1.2421  0.2548
11427SOL    HW239093  11.960   9.223   0.381 -0.1258  1.2598 -0.5450
11428SOL     OW39094   6.646  12.117   1.573 -0.2175  0.4142  0.3854
11428SOL    HW139095   6.561  12.160   1.568  0.4478  1.7025 -0.2597
11428SOL    HW239096   6.697  12.155   1.501  0.3368 -1.6535 -0.4003
11429SOL     OW39097   6.248   9.994   0.092 -0.2062  0.2047  0.2656
11429SOL    HW139098   6.212   9.911   0.124  0.7427 -0.2043  0.2941
11429SOL    HW239099   6.340   9.992   0.117  0.3885  0.2370 -1.7292
11430SOL     OW39100  11.621  10.365  10.013  0.1849  0.3309 -0.1690
11430SOL    HW139101  11.557  10.435  10.024  1.2715  1.2322  0.5155
11430SOL    HW239102  11.595  10.322   9.931  0.3505  2.4302 -1.3957
11431SOL     OW39103   5.905   9.690   8.188  0.0233  0.2119 -0.0796
11431SOL    HW139104   5.957   9.742   8.247 -1.0382  0.6828  0.4706
11431SOL    HW239105   5.832   9.658   8.242 -1.4593  1.3826 -1.2813
11432SOL     OW39106  10.487   5.861   5.506  0.1281 -0.5163  0.0988
11432SOL    HW139107  10.537   5.833   5.429 -1.4390 -0.8163 -0.8576
11432SOL    HW239108  10.469   5.954   5.490  0.6528 -0.3239  0.6044
11433SOL     OW39109   1.665   3.773  11.072  0.1124 -0.4208  0.3626
11433SOL    HW139110   1.739   3.711  11.070 -0.5951 -1.3599 -2.7084
11433SOL    HW239111   1.587   3.717  11.074 -0.5225  0.4417  0.1509
11434SOL     OW39112   0.855   6.235  11.419  0.0232 -0.2297  0.3039
11434SOL    HW139113   0.801   6.292  11.365 -0.7908 -0.0402  1.2946
11434SOL    HW239114   0.885   6.167  11.359 -1.8780 -0.7252 -0.1699
11435SOL     OW39115   8.533   3.355   9.221  0.0453  0.2972  0.3113
11435SOL    HW139116   8.595   3.302   9.171 -0.1596  1.1925 -0.9039
11435SOL    HW239117   8.449   3.309   9.211  0.0942  0.2221  0.2468
11436SOL     OW39118  10.777   6.533   3.157 -0.1893  0.1279  0.1563
11436SOL    HW139119  10.692   6.565   3.126  0.5585  2.6428  0.5068
11436SOL    HW239120  10.836   6.546   3.084  0.4623  1.0709  0.8239
11437SOL     OW39121  10.944   0.875   5.049 -0.1895  0.5403  0.0999
11437SOL    HW139122  10.920   0.926   4.971  0.3441  1.3285  0.4410
11437SOL    HW239123  10.893   0.914   5.120 -0.8142 -0.2965  0.1264
11438SOL     OW39124   1.996   8.395   8.108 -0.0025 -0.3040  0.3149
11438SOL    HW139125   1.943   8.315   8.112  0.3856 -0.6001 -0.3780
11438SOL    HW239126   1.940   8.459   8.065  0.1667 -0.5922 -0.3405
11439SOL     OW39127  11.462   5.729   5.582 -0.0794  0.0855  0.2772
11439SOL    HW139128  11.494   5.753   5.668 -1.5529 -1.6102  1.3732
11439SOL    HW239129  11.370   5.754   5.582 -0.5505 -1.4933 -0.1042
11440SOL     OW39130   7.541   7.977   5.195  0.3455  0.3386 -0.2151
11440SOL    HW139131   7.480   8.051   5.199 -1.1537 -0.8626  0.7678
11440SOL    HW239132   7.627   8.016   5.210  0.2776  2.4545 -4.0444
11441SOL     OW39133   8.306  12.027   2.733  0.2866  0.2464 -0.3172
11441SOL    HW139134   8.395  12.020   2.699 -0.0793 -0.0628 -1.2396
11441SOL    HW239135   8.286  11.940   2.765  0.5111  0.4567  0.4289
11442SOL     OW39136  11.390   3.414   1.951  0.6110  0.7798 -0.0346
11442SOL    HW139137  11.439   3.414   2.034  1.6202  0.2269 -0.6071
11442SOL    HW239138  11.374   3.507   1.933 -1.1524  0.8678  1.6251
11443SOL     OW39139   6.985   4.671   5.005 -0.2915  0.1080  0.1998
11443SOL    HW139140   6.992   4.763   5.032 -1.1511  0.2573 -0.0491
11443SOL    HW239141   6.955   4.626   5.084  0.4480 -0.0147  0.4125
11444SOL     OW39142   5.513   2.095   4.683 -0.2883 -0.2266  0.1414
11444SOL    HW139143   5.474   2.148   4.752 -1.1350 -0.7920  0.1031
11444SOL    HW239144   5.559   2.158   4.628  0.6692  0.2124  1.3727
11445SOL     OW39145   5.207   3.942   6.370 -0.4706  0.2772 -0.2162
11445SOL    HW139146   5.208   4.001   6.294 -1.4045  0.1498 -0.3343
11445SOL    HW239147   5.115   3.920   6.382 -0.1787 -0.8442  0.0763
11446SOL     OW39148   4.127   7.032   8.307 -0.0663  0.2081  0.1454
11446SOL    HW139149   4.171   7.099   8.255  0.1637  1.2483  1.6240
11446SOL    HW239150   4.198   6.973   8.335 -0.1273 -0.1070 -0.3647
11447SOL     OW39151  10.959   2.703   2.569  0.0736 -0.3542  0.0407
11447SOL    HW139152  10.934   2.792   2.544  2.5561 -0.1228 -1.9978
11447SOL    HW239153  10.948   2.701   2.664  0.5387  2.3379  0.2324
11448SOL     OW39154   0.730  10.436  12.297  0.1702  0.0840  0.0373
11448SOL    HW139155   0.663  10.412  12.361 -0.1323  1.6891  0.3719
11448SOL    HW239156   0.752  10.527  12.319 -1.0542  1.2644 -3.0435
11449SOL     OW39157  11.770   2.026   5.771 -0.0232 -0.7939 -0.2894
11449SOL    HW139158  11.720   2.027   5.852  0.7874  0.0027  0.2206
11449SOL    HW239159  11.862   2.029   5.799  0.2572  0.5586 -1.2260
11450SOL     OW39160  10.427   4.736   2.731 -0.0151  0.1774 -0.0679
11450SOL    HW139161  10.370   4.801   2.688  0.7247  0.5238 -0.5400
11450SOL    HW239162  10.505   4.785   2.755  0.2367 -0.3766  0.2587
11451SOL     OW39163   8.617   5.915   4.635  0.1372  0.2696 -0.4618
11451SOL    HW139164   8.586   5.883   4.720  0.3038  1.5716  0.1176
11451SOL    HW239165   8.539   5.950   4.593 -0.0773 -0.9937 -1.1680
11452SOL     OW39166  10.201   0.599  12.534 -0.1571  0.1581 -0.2016
11452SOL    HW139167  10.258   0.619  12.608 -0.6208  1.2253 -0.1221
11452SOL    HW239168  10.256   0.547  12.475  0.1881 -0.8000  0.9163
11453SOL     OW39169   6.281   2.193   2.572 -0.7287 -0.3775 -0.2348
11453SOL    HW139170   6.359   2.235   2.607  0.1702 -1.9706 -0.2360
11453SOL    HW239171   6.209   2.232   2.622  0.3387 -1.1729  2.0680
11454SOL     OW39172  12.494   9.887   5.099  0.4845 -0.0577 -0.3485
11454SOL    HW139173  12.428   9.947   5.063 -0.2371 -0.6463 -0.0202
11454SOL    HW239174  12.551   9.943   5.152  1.8294  0.9319 -2.6662
11455SOL     OW39175   7.538   7.607   2.936 -0.3922 -0.1614  0.1840
11455SOL    HW139176   7.447   7.596   2.908 -1.0626 -0.8201  2.3914
11455SOL    HW239177   7.549   7.544   3.008  1.7759  0.0006  0.0650
11456SOL     OW39178   9.638   4.863   6.619 -0.1001  0.4641  0.2048
11456SOL    HW139179   9.591   4.929   6.568 -0.8616  0.4257  0.8436
11456SOL    HW239180   9.570   4.819   6.670  0.4531 -0.5160  0.1291
11457SOL     OW39181   1.265  12.412  12.553  0.1211  0.3735  0.1233
11457SOL    HW139182   1.224  12.442  12.472  2.0021  0.1421 -0.9868
11457SOL    HW239183   1.311  12.488  12.588  2.5994 -0.3754 -1.2236
11458SOL     OW39184   0.898   9.449  10.667 -0.0898  0.1687  0.7592
11458SOL    HW139185   0.859   9.454  10.754  0.0979 -0.2856  0.8719
11458SOL    HW239186   0.860   9.522  10.619  0.7205  1.1802  1.5969
11459SOL     OW39187   7.396  12.198  11.702  0.0186 -0.1584  0.6842
11459SOL    HW139188   7.338  12.274  11.706 -0.8982 -0.8132  0.2602
11459SOL    HW239189   7.478  12.231  11.666  0.6869  1.2247  3.1999
11460SOL     OW39190   1.635   3.031   7.658  0.2508 -0.2330 -0.5122
11460SOL    HW139191   1.693   3.066   7.725 -2.4609  1.5775  1.0700
11460SOL    HW239192   1.565   2.987   7.707 -0.2888 -1.4261 -2.2665
11461SOL     OW39193   9.917   7.099  10.933  0.2648 -0.0825  0.2022
11461SOL    HW139194   9.844   7.049  10.970 -0.8705  0.9384 -0.6049
11461SOL    HW239195   9.895   7.191  10.952  0.7256  0.3168 -1.1267
11462SOL     OW39196   3.565   3.778   1.873 -0.2347 -0.5791 -0.0223
11462SOL    HW139197   3.614   3.819   1.945 -0.7120 -0.3012  0.1524
11462SOL    HW239198   3.568   3.843   1.803  0.2660 -0.8682 -0.2639
11463SOL     OW39199   4.059   9.894  10.700  0.1321  0.0646 -0.7319
11463SOL    HW139200   4.099   9.843  10.771 -1.9346 -0.2944  0.2688
11463SOL    HW239201   4.063   9.837  10.624 -0.4103 -0.8679 -0.0951
11464SOL     OW39202  11.264   8.868   5.538 -0.6907  0.3600  0.6524
11464SOL    HW139203  11.189   8.924   5.517 -1.1866 -0.4824  0.1397
11464SOL    HW239204  11.331   8.929   5.570 -1.6928  1.0878  1.4298
11465SOL     OW39205   5.916   9.597   6.476 -0.1613 -0.4672 -0.1220
11465SOL    HW139206   5.905   9.680   6.522 -0.6143 -0.4550 -0.2517
11465SOL    HW239207   5.961   9.540   6.539 -1.4368 -0.6927  0.6159
11466SOL     OW39208   2.654   3.666   6.335  0.0274 -0.3065 -0.4517
11466SOL    HW139209   2.747   3.661   6.358  0.4428 -1.4778 -2.1912
11466SOL    HW239210   2.614   3.590   6.376 -0.8345  1.6616  2.7074
11467SOL     OW39211   6.326   0.890   5.459  0.5157 -0.0087  0.1801
11467SOL    HW139212   6.307   0.972   5.505 -0.4697  0.5860 -1.2152
11467SOL    HW239213   6.391   0.847   5.514  1.6466  2.0627  0.5916
11468SOL     OW39214   1.303   7.527  11.928  0.0560  0.1119  0.7363
11468SOL    HW139215   1.236   7.577  11.880  0.8893 -1.5368 -2.3938
11468SOL    HW239216   1.263   7.442  11.943  0.6283 -0.1174  0.9656
11469SOL     OW39217   6.819   9.753   1.726  0.1374  0.4025 -0.0496
11469SOL    HW139218   6.859   9.755   1.813  0.3531  0.8845 -0.1522
11469SOL    HW239219   6.734   9.712   1.739  0.0127  0.8126  0.4640
11470SOL     OW39220   2.169   1.730   5.565  0.8357  0.0522  0.6116
11470SOL    HW139221   2.084   1.773   5.581  0.4129 -0.9100  1.0312
11470SOL    HW239222   2.146   1.647   5.524  1.6843  0.5151 -0.8922
11471SOL     OW39223   8.374  10.214   3.637  0.0324  0.3670 -0.0260
11471SOL    HW139224   8.347  10.300   3.670  0.0804  0.2584  0.2996
11471SOL    HW239225   8.413  10.171   3.713 -1.2751 -0.4944  0.1932
11472SOL     OW39226  10.638   1.556   7.056 -0.3680  0.6726  0.7567
11472SOL    HW139227  10.547   1.560   7.088 -0.0091  1.7981  1.7303
11472SOL    HW239228  10.644   1.628   6.994 -0.6548 -0.6274 -0.8641
11473SOL     OW39229   9.574   3.796   0.612  0.0361 -0.4520  0.1033
11473SOL    HW139230   9.660   3.775   0.649  0.1989  1.3358  0.8295
11473SOL    HW239231   9.587   3.881   0.569 -0.9031 -1.0710 -1.4853
11474SOL     OW39232   8.248  11.032   7.168  0.0834 -0.0381  0.1573
11474SOL    HW139233   8.305  10.966   7.207 -0.8623 -0.8547  0.2093
11474SOL    HW239234   8.167  11.027   7.218 -1.1289 -1.0450 -1.7740
11475SOL     OW39235   9.617  12.638   0.896  0.5150 -0.4816 -0.1031
11475SOL    HW139236   9.651  12.725   0.917  0.9046 -0.3646 -1.1353
11475SOL    HW239237   9.609  12.638   0.801 -0.0476 -1.3729 -0.0660
11476SOL     OW39238   1.478   0.887   2.584 -0.1187  0.8016 -0.0590
11476SOL    HW139239   1.508   0.881   2.493 -0.7231  0.8098 -0.2617
11476SOL    HW239240   1.425   0.966   2.587  0.1119  0.9457  0.3711
11477SOL     OW39241   4.661   5.803   4.912 -0.4774  0.5436  0.2182
11477SOL    HW139242   4.600   5.850   4.856 -1.4023  0.7191  1.3375
11477SOL    HW239243   4.629   5.819   5.001  1.2019  0.6339  0.8354
11478SOL     OW39244   6.056   6.508   3.821 -0.4030 -0.7967  0.0636
11478SOL    HW139245   6.076   6.549   3.737  0.9214 -1.2785  0.1090
11478SOL    HW239246   6.054   6.581   3.883  3.6659 -0.7901  0.4563
11479SOL     OW39247   1.387   4.335   6.939  0.2921 -0.6739 -0.0831
11479SOL    HW139248   1.438   4.278   6.996 -1.2399 -1.1863  0.8532
11479SOL    HW239249   1.385   4.419   6.984 -1.9029 -1.3929  1.3278
11480SOL     OW39250   0.961   8.021   8.259  0.1246  0.1461  0.2935
11480SOL    HW139251   0.870   7.992   8.250 -0.0971  1.0776 -0.7036
11480SOL    HW239252   0.968   8.052   8.349 -1.2385  2.2318 -0.2485
11481SOL     OW39253   7.171  10.236   3.116 -0.1525  0.2625 -0.3087
11481SOL    HW139254   7.089  10.281   3.135 -0.0865  1.1133 -1.9110
11481SOL    HW239255   7.155  10.145   3.141 -1.7762  0.2927 -1.1042
11482SOL     OW39256   6.249   6.843   1.801  0.5462 -0.2388 -0.3615
11482SOL    HW139257   6.209   6.863   1.716  0.8147  0.2170 -0.3873
11482SOL    HW239258   6.189   6.781   1.842  0.1542 -0.0731 -0.6745
11483SOL     OW39259  11.480   6.707   3.377 -0.7490  0.2935 -0.6172
11483SOL    HW139260  11.558   6.696   3.324 -0.9562  0.8972 -1.0535
11483SOL    HW239261  11.480   6.800   3.402  1.0303 -0.4919  3.0862
11484SOL     OW39262   7.902   8.777  11.749  0.6571  0.5173  0.4956
11484SOL    HW139263   7.983   8.735  11.720  1.0977  0.3920  1.8341
11484SOL    HW239264   7.844   8.704  11.771 -0.3787  0.5655 -1.7417
11485SOL     OW39265   3.630   9.886  11.906 -0.0950  0.1399  0.0670
11485SOL    HW139266   3.614   9.892  11.812 -0.7296  1.3571  0.2308
11485SOL    HW239267   3.676   9.803  11.918 -0.5494 -0.3159 -1.2398
11486SOL     OW39268  11.530   6.933  12.497  0.0140  0.0004  0.0503
11486SOL    HW139269  11.604   6.929  12.558  0.6889 -0.7108 -0.7991
11486SOL    HW239270  11.566   6.907  12.413 -0.9825  0.6457 -0.6049
11487SOL     OW39271  11.267   0.831  10.471  0.0104  0.3015 -0.2768
11487SOL    HW139272  11.339   0.876  10.428  0.2296  0.1216 -0.1021
11487SOL    HW239273  11.298   0.817  10.561 -1.2557  2.5978  0.5995
11488SOL     OW39274  12.272   8.701   2.568  0.1545 -0.4324 -0.0803
11488SOL    HW139275  12.231   8.638   2.509  0.6602  0.1888 -1.1141
11488SOL    HW239276  12.225   8.783   2.552 -0.2887 -0.4459  1.0267
11489SOL     OW39277   9.179   5.377  12.332 -0.0775  0.3546  0.2018
11489SOL    HW139278   9.246   5.364  12.264 -0.8181  1.1251 -0.7144
11489SOL    HW239279   9.224   5.424  12.401  1.0301 -1.5496  0.8604
11490SOL     OW39280   3.936   7.864   4.419 -0.2365 -0.2001 -0.1800
11490SOL    HW139281   3.991   7.937   4.447  1.0116 -1.7601  1.7133
11490SOL    HW239282   3.982   7.826   4.344 -0.9992  1.0024 -1.3085
11491SOL     OW39283   7.321   8.989   1.885  0.0558 -0.1453  0.1176
11491SOL    HW139284   7.291   8.902   1.859  0.2402 -0.3002  0.4189
11491SOL    HW239285   7.411   8.976   1.915 -0.0938  0.0548  0.6679
11492SOL     OW39286   9.696  11.300   9.993  0.0701 -0.5449 -0.4176
11492SOL    HW139287   9.707  11.383  10.039  1.2293 -0.5642 -0.6387
11492SOL    HW239288   9.624  11.257  10.039 -0.4944  0.5407 -0.2569
11493SOL     OW39289   5.361   4.343   4.487  0.2603  0.5413 -0.7281
11493SOL    HW139290   5.355   4.319   4.580 -0.4567 -0.1897 -0.9593
11493SOL    HW239291   5.455   4.348   4.470  0.3989  0.8879  0.0913
11494SOL     OW39292   5.204   5.194   5.575  0.5361  0.3643 -0.1034
11494SOL    HW139293   5.203   5.166   5.484 -1.2958 -0.3414  0.0818
11494SOL    HW239294   5.239   5.119   5.623 -2.5179 -1.0542  0.1732
11495SOL     OW39295   0.471   9.413   6.103  0.0417 -0.8554  0.1511
11495SOL    HW139296   0.509   9.499   6.084  0.7585 -1.4915 -1.5348
11495SOL    HW239297   0.428   9.424   6.188 -1.0118  1.5254 -0.5970
11496SOL     OW39298   6.931  10.666  11.465 -0.1205 -0.3482 -0.3840
11496SOL    HW139299   6.969  10.707  11.387  0.4715 -1.5887 -0.7631
11496SOL    HW239300   6.861  10.726  11.491  0.1014  0.4223 -1.4749
11497SOL     OW39301   6.377   7.966   1.708  0.1274  0.6118  0.1259
11497SOL    HW139302   6.386   7.877   1.673  2.0747  0.3830  1.0599
11497SOL    HW239303   6.306   7.959   1.772  0.3221 -0.3027  0.2659
11498SOL     OW39304  10.193   4.536   5.015 -0.8477  0.2841  0.0461
11498SOL    HW139305  10.209   4.551   4.922 -1.1019  1.2605  0.1556
11498SOL    HW239306  10.165   4.445   5.020  2.6667 -0.9884 -0.4025
11499SOL     OW39307  10.517  11.804   0.968  0.0014  0.1935  0.2398
11499SOL    HW139308  10.500  11.723   1.017 -0.1261  0.2336  0.2642
11499SOL    HW239309  10.435  11.820   0.920  0.2899 -0.1140 -0.3721
11500SOL     OW39310   7.393   6.030   0.730 -0.3871 -0.1054 -0.1445
11500SOL    HW139311   7.351   5.949   0.759 -1.0964  0.0890 -0.6174
11500SOL    HW239312   7.322   6.083   0.694  0.0973  0.6561 -0.0087
11501SOL     OW39313   8.178   4.419  10.964  0.4077 -0.2134  0.6616
11501SOL    HW139314   8.164   4.470  11.043  4.3148  1.5287  0.4666
11501SOL    HW239315   8.269   4.438  10.939  1.1555 -4.8439 -1.2415
11502SOL     OW39316  11.444   7.009   5.733 -0.3174  0.4300  0.1958
11502SOL    HW139317  11.426   7.011   5.827 -0.0257  0.1462  0.2589
11502SOL    HW239318  11.433   6.917   5.708  0.1525  0.4091  0.0608
11503SOL     OW39319   3.598   8.988  12.604 -0.4275  0.5775  0.6171
11503SOL    HW139320   3.645   8.906  12.592 -2.8356 -0.9276  0.9587
11503SOL    HW239321   3.628   9.044  12.532  2.2305 -0.0536  1.1228
11504SOL     OW39322   3.675  11.546   5.364 -0.2047 -0.0659 -0.3082
11504SOL    HW139323   3.636  11.475   5.414 -0.2921  1.0326  1.2415
11504SOL    HW239324   3.636  11.538   5.277 -0.5842 -1.5951 -0.0249
11505SOL     OW39325   3.540   8.147   0.019 -0.6433  0.6957 -0.0687
11505SOL    HW139326   3.551   8.078   0.085 -0.4784 -1.2177 -1.9636
11505SOL    HW239327   3.629   8.177   0.001 -0.5740  0.3928 -0.2372
11506SOL     OW39328   8.987   0.832   4.866 -0.0967 -0.0030 -0.1132
11506SOL    HW139329   8.905   0.841   4.818 -0.4128 -1.6200  0.0967
11506SOL    HW239330   9.007   0.921   4.896 -0.8366  0.7317 -1.6580
11507SOL     OW39331   3.673   5.982  10.894  0.3621  0.1147 -0.3716
11507SOL    HW139332   3.709   5.975  10.983  0.4415  0.8221 -0.3447
11507SOL    HW239333   3.652   5.892  10.870 -0.1802 -0.0354  0.5870
11508SOL     OW39334   4.154   9.038   6.394  0.5991  0.2457  0.0745
11508SOL    HW139335   4.209   9.086   6.332 -0.0026  1.2221  0.2633
11508SOL    HW239336   4.094   9.105   6.429 -0.4367 -0.7118  0.1717
11509SOL     OW39337   7.945   7.083   2.665 -0.2954  0.7588 -0.4466
11509SOL    HW139338   7.958   7.107   2.573  0.5896  0.1856 -0.4800
11509SOL    HW239339   8.021   7.119   2.710  0.4100 -0.8358 -0.2986
11510SOL     OW39340   9.635   4.921   1.249  0.0701  0.2262  0.5809
11510SOL    HW139341   9.670   4.891   1.165 -0.9678  0.9596 -0.1436
11510SOL    HW239342   9.540   4.909   1.241 -0.1846  1.7449  1.0260
11511SOL     OW39343   4.200   5.988   1.624  0.0693  0.1853  0.1048
11511SOL    HW139344   4.195   5.929   1.699 -0.0624  1.9432  1.5353
11511SOL    HW239345   4.108   6.002   1.598  0.0705  0.1686  0.0914
11512SOL     OW39346   5.969   6.234  10.424 -0.0708 -0.1468 -0.0687
11512SOL    HW139347   5.960   6.150  10.379 -0.7049 -0.3504  0.4298
11512SOL    HW239348   5.990   6.212  10.514  1.6666  0.2691 -0.3347
11513SOL     OW39349   6.203   9.795  10.185  0.2679 -0.3953 -0.6124
11513SOL    HW139350   6.199   9.717  10.239 -0.5138  1.2195  1.8255
11513SOL    HW239351   6.274   9.847  10.222  0.3233  0.3909 -1.7456
11514SOL     OW39352   8.492  11.612   3.170 -0.3878  0.1194  0.3913
11514SOL    HW139353   8.586  11.611   3.186 -0.2507  2.0694 -0.1144
11514SOL    HW239354   8.452  11.613   3.257  0.1417  1.8908  0.6434
11515SOL     OW39355   6.543  10.629   0.674 -0.6804 -0.1094  0.4992
11515SOL    HW139356   6.545  10.623   0.579  0.3798  0.9374  0.4343
11515SOL    HW239357   6.627  10.593   0.702 -0.0546  1.5897  0.8883
11516SOL     OW39358   5.377   8.470   9.648  0.0576  0.4817  0.2782
11516SOL    HW139359   5.287   8.501   9.637 -0.2007  0.2551  1.6598
11516SOL    HW239360   5.378   8.427   9.733  1.1229 -0.7947 -0.3327
11517SOL     OW39361   8.053   0.457   3.569 -0.2176  0.2434 -0.3978
11517SOL    HW139362   7.957   0.454   3.563 -0.2595  1.3562 -0.5621
11517SOL    HW239363   8.079   0.523   3.505  0.5375  1.0418  0.6946
11518SOL     OW39364   1.166   2.035   6.802  0.5222  0.0379 -0.6844
11518SOL    HW139365   1.126   2.043   6.888 -0.2461  1.9031 -1.1706
11518SOL    HW239366   1.244   2.091   6.806 -0.4654  1.5431 -1.6993
11519SOL     OW39367  10.523   1.148  11.430 -0.6223 -0.2291 -0.0596
11519SOL    HW139368  10.434   1.119  11.450 -1.3728  0.6470 -1.9299
11519SOL    HW239369  10.568   1.071  11.397 -1.2078 -0.2943 -0.7019
11520SOL     OW39370   6.731   8.846   4.123  0.6902 -0.3683  0.1678
11520SOL    HW139371   6.743   8.923   4.068  2.4060  0.0690  1.1123
11520SOL    HW239372   6.819   8.813   4.138  0.1507 -1.2236  1.6159
11521SOL     OW39373   1.365   9.468   4.936  0.0654 -0.4041  0.3991
11521SOL    HW139374   1.418   9.390   4.950 -0.8938 -1.0536  0.5408
11521SOL    HW239375   1.409   9.537   4.985 -0.1556 -1.3238  1.9611
11522SOL     OW39376   9.350   4.716  11.725 -0.3598  0.2367  0.3555
11522SOL    HW139377   9.446   4.717  11.731 -0.2865  0.2612 -0.6156
11522SOL    HW239378   9.320   4.725  11.815  0.5541  0.8265  0.6126
11523SOL     OW39379   7.276   0.917  12.544  0.0068 -0.2967 -0.2447
11523SOL    HW139380   7.232   0.873  12.471 -0.6538  0.2673 -0.1889
11523SOL    HW239381   7.363   0.938  12.510  0.1545 -1.1741 -0.4447
11524SOL     OW39382   4.119   0.663   4.104 -0.0600 -0.0143  0.2938
11524SOL    HW139383   4.117   0.675   4.199  0.4576  0.6542  0.2281
11524SOL    HW239384   4.187   0.596   4.089 -0.9985 -1.0386  0.4661
11525SOL     OW39385  10.533   5.577   9.109  0.0662  0.5430  0.1733
11525SOL    HW139386  10.501   5.540   9.027 -1.3251 -2.6984  1.9885
11525SOL    HW239387  10.624   5.602   9.091  0.0262 -0.7894 -2.1308
11526SOL     OW39388   3.710   6.904   3.022  0.0025 -0.2670 -0.0230
11526SOL    HW139389   3.634   6.959   3.041  0.4251 -0.3319  2.0547
11526SOL    HW239390   3.691   6.867   2.936 -2.3758 -0.3350  0.4515
11527SOL     OW39391  12.557   4.342   2.824  0.1885 -0.3256  0.1851
11527SOL    HW139392  12.480   4.396   2.806 -0.5644 -0.7754  1.8240
11527SOL    HW239393  12.542   4.262   2.775  0.1067 -0.0174 -0.3015
11528SOL     OW39394   0.811   5.267  10.651  0.1598  0.1332  0.0826
11528SOL    HW139395   0.786   5.176  10.635 -0.3900  0.2003  0.5279
11528SOL    HW239396   0.896   5.277  10.608  0.0711 -0.4988 -0.2433
11529SOL     OW39397   4.484   6.341   2.948 -0.2736  0.4121 -0.4445
11529SOL    HW139398   4.440   6.421   2.921 -0.1399  0.4228 -0.6330
11529SOL    HW239399   4.553   6.370   3.008 -0.8054  0.3553  0.1993
11530SOL     OW39400   5.389   8.139   3.856 -0.1450 -0.0863 -0.1036
11530SOL    HW139401   5.359   8.064   3.909  4.5710 -1.4694  1.0650
11530SOL    HW239402   5.422   8.201   3.921 -0.0442  1.0961 -1.2704
11531SOL     OW39403   3.871   0.778   0.632 -0.9236  1.1844 -0.0090
11531SOL    HW139404   3.966   0.783   0.626 -0.7409 -0.6189  0.9097
11531SOL    HW239405   3.842   0.749   0.545 -0.3864 -0.8296  0.4441
11532SOL     OW39406  11.272   4.743   3.116 -0.0761  0.1886  0.4021
11532SOL    HW139407  11.185   4.708   3.097  0.2725 -0.7187  0.4146
11532SOL    HW239408  11.263   4.837   3.109 -1.0963  0.1043  0.5451
11533SOL     OW39409  11.251   9.161  12.104 -0.6684 -0.1227  0.0457
11533SOL    HW139410  11.157   9.175  12.113 -0.7000 -0.1750 -0.2199
11533SOL    HW239411  11.270   9.179  12.012 -0.2394  0.9461  0.3343
11534SOL     OW39412   6.987   5.968   7.053 -0.5376  0.2121  0.4616
11534SOL    HW139413   6.983   5.957   7.148  0.1492  0.0880  0.4852
11534SOL    HW239414   6.959   5.883   7.019 -0.1113  0.0234  0.5688
11535SOL     OW39415   0.958   3.216   2.700  0.2276  0.2275 -0.0856
11535SOL    HW139416   0.922   3.139   2.744  0.4019  1.5595  2.5346
11535SOL    HW239417   1.039   3.184   2.661 -0.8587 -1.4408 -1.1566
11536SOL     OW39418   9.899  11.759  10.467 -0.3524  0.3931 -0.0018
11536SOL    HW139419   9.952  11.831  10.501  0.8501  0.8183 -2.4930
11536SOL    HW239420   9.837  11.739  10.537 -0.1579  3.2546  1.1360
11537SOL     OW39421  10.217   2.360   1.138  0.1721  0.4318 -0.4244
11537SOL    HW139422  10.221   2.442   1.089 -1.5089 -0.0878 -1.5559
11537SOL    HW239423  10.158   2.379   1.211  0.7193  0.5480 -0.0145
11538SOL     OW39424   5.575   5.462  10.215 -0.4092 -0.0230 -0.2591
11538SOL    HW139425   5.541   5.382  10.255 -0.4913  0.6642  1.0979
11538SOL    HW239426   5.617   5.509  10.287  4.1105 -1.0862 -1.9016
11539SOL     OW39427   1.346   7.178   0.749 -0.1474  0.0323  0.2074
11539SOL    HW139428   1.261   7.222   0.748 -2.8217 -4.3447  1.9774
11539SOL    HW239429   1.387   7.202   0.666 -2.4275  3.4365 -0.1148
11540SOL     OW39430   4.253   4.955   2.984  0.0466 -0.2770  0.4749
11540SOL    HW139431   4.245   5.028   2.922 -2.3649 -1.4177 -0.6732
11540SOL    HW239432   4.231   4.994   3.068 -1.0763  0.4094 -0.0973
11541SOL     OW39433   6.261   8.378  11.782  0.0465  0.0817 -0.0413
11541SOL    HW139434   6.253   8.470  11.754  0.4296  0.5265  1.2095
11541SOL    HW239435   6.187   8.334  11.740 -0.0263  0.9176 -0.8357
11542SOL     OW39436   6.030   4.670   2.460 -0.2195  0.4807  0.5343
11542SOL    HW139437   5.981   4.743   2.422  1.8677  2.1669  0.9013
11542SOL    HW239438   6.003   4.594   2.409 -1.2726  1.7960 -0.9585
11543SOL     OW39439   4.700   3.935  10.373  0.0086  0.2025  0.3930
11543SOL    HW139440   4.741   3.851  10.355 -0.5366 -0.3006  1.4283
11543SOL    HW239441   4.608   3.915  10.388 -0.3721  1.1394 -0.4761
11544SOL     OW39442   9.999   7.638   1.448 -0.1530  0.4021 -0.1559
11544SOL    HW139443   9.944   7.704   1.406 -1.0069 -0.2647 -0.1331
11544SOL    HW239444   9.984   7.559   1.397  1.1371  0.3033 -0.4061
11545SOL     OW39445   2.974   7.215   2.973  0.6620  0.1559 -0.3544
11545SOL    HW139446   3.019   7.143   3.018 -0.5060 -0.4582 -0.1538
11545SOL    HW239447   3.020   7.223   2.889  0.8301 -0.8034 -0.3659
11546SOL     OW39448   0.835   4.121   9.736 -0.2739  0.2983  0.4803
11546SOL    HW139449   0.927   4.094   9.733 -0.0939  0.9626 -1.8557
11546SOL    HW239450   0.788   4.041   9.758  0.6894 -0.6687 -0.7805
11547SOL     OW39451   5.059   8.223   1.742 -0.1744 -0.0895  0.1671
11547SOL    HW139452   5.020   8.189   1.823 -0.7821  0.9365  0.3318
11547SOL    HW239453   5.081   8.145   1.691  1.1138 -0.7893  1.7112
11548SOL     OW39454  12.603   2.587   8.480 -0.3149  0.4515 -0.3977
11548SOL    HW139455  12.615   2.637   8.399  3.7770  0.5118  0.0058
11548SOL    HW239456  12.561   2.649   8.540 -1.9889  0.9072 -1.9497
11549SOL     OW39457   3.284   3.399  11.369 -0.1073 -0.3335 -0.0988
11549SOL    HW139458   3.315   3.309  11.379  2.1034  0.4735  1.1462
11549SOL    HW239459   3.230   3.415  11.446 -0.8436 -0.6897 -0.5291
11550SOL     OW39460  10.346   7.655   0.773 -0.2483  0.0513 -0.2482
11550SOL    HW139461  10.288   7.679   0.845 -0.7905 -0.5145 -0.4968
11550SOL    HW239462  10.353   7.735   0.720 -0.7526  0.1388 -0.1860
11551SOL     OW39463   6.139  10.814   4.186  0.2821 -0.0681  0.1703
11551SOL    HW139464   6.110  10.757   4.114 -0.7959 -0.5104  0.9239
11551SOL    HW239465   6.208  10.868   4.147  0.5499 -1.1046 -0.8726
11552SOL     OW39466   8.925  10.431   3.943 -0.5014 -0.4621 -0.0661
11552SOL    HW139467   8.983  10.454   4.015  0.2948 -0.5844 -0.6572
11552SOL    HW239468   8.937  10.337   3.931  1.0987 -0.0905 -1.8087
11553SOL     OW39469  12.329  11.655   9.927 -0.6238  0.1281  0.0400
11553SOL    HW139470  12.250  11.706   9.945 -1.3076 -1.4564  1.8245
11553SOL    HW239471  12.401  11.713   9.954 -1.2308  1.0509 -0.2726
11554SOL     OW39472  10.848   5.043   1.275  0.4579  0.3859 -0.2351
11554SOL    HW139473  10.816   5.045   1.365 -1.2434  1.7158 -0.8154
11554SOL    HW239474  10.810   4.963   1.238  1.2450 -0.2177  0.2246
11555SOL     OW39475  10.593   8.792   8.135  0.1459  0.1033 -0.4569
11555SOL    HW139476  10.666   8.838   8.092 -0.7107 -0.6460 -2.8739
11555SOL    HW239477  10.527   8.860   8.150  0.3243  0.3128 -0.6124
11556SOL     OW39478   9.462   3.534   4.262  0.5035  0.4544 -0.1017
11556SOL    HW139479   9.500   3.554   4.177 -0.4085  1.1778 -0.3583
11556SOL    HW239480   9.434   3.443   4.256  0.6538  0.4341 -0.4917
11557SOL     OW39481   3.643   5.747  11.036  0.1631 -0.7230  0.2235
11557SOL    HW139482   3.587   5.799  11.093 -1.1675 -1.8363 -0.0088
11557SOL    HW239483   3.711   5.713  11.093  0.9275  1.0262  0.4220
11558SOL     OW39484   2.127   7.123   4.374 -0.0608 -0.5754  0.4703
11558SOL    HW139485   2.167   7.039   4.397 -1.2423 -1.2832  0.0363
11558SOL    HW239486   2.161   7.143   4.287  0.3664 -0.5110  0.6518
11559SOL     OW39487   7.241   3.605   1.570  0.4447  0.4955  0.0966
11559SOL    HW139488   7.269   3.520   1.604 -0.3705  0.6597  1.2194
11559SOL    HW239489   7.227   3.658   1.648 -2.1053  0.6923 -0.4213
11560SOL     OW39490   1.195   4.429   1.831 -0.1124  0.0206  0.3801
11560SOL    HW139491   1.145   4.499   1.873 -0.7941 -0.2233  0.0023
11560SOL    HW239492   1.271   4.473   1.794  0.0283  0.3808  1.0826
11561SOL     OW39493  10.370   0.800   6.423 -0.4292 -0.4372 -0.0727
11561SOL    HW139494  10.444   0.752   6.461  0.8270 -0.1023 -1.9456
11561SOL    HW239495  10.386   0.891   6.449 -2.8930 -0.8167  3.6112
11562SOL     OW39496   3.798   4.767   9.597 -0.2587  0.8433 -0.7186
11562SOL    HW139497   3.722   4.756   9.654 -0.9906  1.6456 -1.4942
11562SOL    HW239498   3.798   4.688   9.542  1.7473 -1.0273  1.7569
11563SOL     OW39499  10.687   6.372   9.281 -0.7117 -0.2871 -0.1376
11563SOL    HW139500  10.769   6.411   9.310 -1.5255  0.9192  0.6500
11563SOL    HW239501  10.709   6.281   9.261  0.3515 -0.5947  2.1675
11564SOL     OW39502   0.186   0.021  11.421  0.3092  0.0743 -0.1839
11564SOL    HW139503   0.266  -0.030  11.436  2.8390  3.0973 -2.0928
11564SOL    HW239504   0.150  -0.015  11.340 -0.7401 -1.6671  0.9701
11565SOL     OW39505   2.764   1.847  10.731  0.1412 -0.8198  0.4727
11565SOL    HW139506   2.773   1.757  10.698  0.3917 -1.4115  2.0486
11565SOL    HW239507   2.740   1.836  10.823 -0.0943  0.7437  0.6189
11566SOL     OW39508   8.826   7.167   6.779 -0.3946  0.1753 -0.4730
11566SOL    HW139509   8.853   7.116   6.703 -0.1819  0.2726 -0.4637
11566SOL    HW239510   8.824   7.257   6.748  1.5690  0.4717  0.1212
11567SOL     OW39511   7.578   4.925   9.103  0.4108  0.1574 -1.1809
11567SOL    HW139512   7.632   4.848   9.120 -1.0185 -0.4565  0.9557
11567SOL    HW239513   7.493   4.889   9.076 -0.3187  0.9547 -0.0123
11568SOL     OW39514   1.704   2.991   0.505 -0.7640 -0.5494 -0.4324
11568SOL    HW139515   1.722   2.957   0.593 -0.1335  2.0078  0.5219
11568SOL    HW239516   1.786   2.980   0.457 -0.9729 -1.5378 -0.5874
11569SOL     OW39517  11.231   4.044   9.732  0.4061  0.6331  0.1627
11569SOL    HW139518  11.276   4.059   9.649  1.6107  2.4736  1.0859
11569SOL    HW239519  11.279   3.973   9.774 -0.4548 -0.5897 -0.8282
11570SOL     OW39520  12.276   1.115   6.571  0.6066 -0.4245 -0.7367
11570SOL    HW139521  12.202   1.061   6.598 -0.3424  1.2199  0.1661
11570SOL    HW239522  12.245   1.162   6.494  0.7038  0.2560 -0.3688
11571SOL     OW39523   8.026  11.311   9.153 -0.3655  1.1051 -0.0549
11571SOL    HW139524   7.986  11.397   9.162  1.3501  1.9621 -0.2886
11571SOL    HW239525   7.985  11.274   9.074 -0.3454  2.1440 -0.5687
11572SOL     OW39526   1.542   9.835   2.073  0.8424  0.1416  0.7134
11572SOL    HW139527   1.564   9.748   2.108  0.2020  0.0626  0.9498
11572SOL    HW239528   1.472   9.818   2.009  1.0463  0.4353  0.4076
11573SOL     OW39529   9.966   3.825  10.597  0.2364 -0.3030  0.1056
11573SOL    HW139530  10.042   3.816  10.539  2.0390  1.4658  2.0720
11573SOL    HW239531   9.950   3.736  10.628  0.5912 -0.9277 -1.3748
11574SOL     OW39532   1.499   0.046   5.142 -0.0136 -0.3983 -0.5969
11574SOL    HW139533   1.458  -0.009   5.075 -0.4592  0.7294 -1.2734
11574SOL    HW239534   1.555   0.106   5.093 -0.1077  0.2438  0.0666
11575SOL     OW39535  12.345   0.264  11.720  0.0089  0.1215 -0.2090
11575SOL    HW139536  12.398   0.206  11.775  0.5183  0.1864 -0.6264
11575SOL    HW239537  12.327   0.339  11.776  2.6568  1.3691 -0.8757
11576SOL     OW39538   4.938   5.279   3.053 -0.1899  0.3367  0.0962
11576SOL    HW139539   4.879   5.209   3.083 -0.2906  0.8160  1.0572
11576SOL    HW239540   4.879   5.348   3.023 -0.0880 -0.1003 -1.1557
11577SOL     OW39541  12.327  10.122   3.951  0.0105  0.7229  0.1555
11577SOL    HW139542  12.299  10.173   3.875  0.7316  0.2000 -0.4735
11577SOL    HW239543  12.422  10.130   3.951  0.1312 -0.5778  0.0795
11578SOL     OW39544   7.864  12.396   9.800 -0.1584 -0.1494  0.3450
11578SOL    HW139545   7.780  12.442   9.792 -0.6962 -1.1460  0.2097
11578SOL    HW239546   7.847  12.308   9.767  0.7709 -0.5700  0.9553
11579SOL     OW39547   7.974   4.464  12.401 -0.0851  0.1307 -0.1671
11579SOL    HW139548   7.927   4.425  12.475  0.1247  0.9633  0.4258
11579SOL    HW239549   8.053   4.501  12.440 -0.4409  1.4420 -0.6160
11580SOL     OW39550  10.001   8.190   9.167 -0.4244  0.3428  0.1404
11580SOL    HW139551   9.946   8.259   9.206 -2.0866  0.5227 -2.2769
11580SOL    HW239552  10.079   8.236   9.136 -1.1403  1.0290 -0.6950
11581SOL     OW39553   4.367   1.747   5.635  0.3685 -0.2550 -0.1856
11581SOL    HW139554   4.330   1.714   5.553 -1.9026  0.5154  0.4523
11581SOL    HW239555   4.318   1.701   5.704  2.0314 -0.6805  0.7675
11582SOL     OW39556   9.826   5.801   5.227  0.0429  0.1398 -0.0552
11582SOL    HW139557   9.795   5.763   5.309  0.3825  0.1577  0.0844
11582SOL    HW239558   9.865   5.885   5.253  0.0908  0.1757 -0.2437
11583SOL     OW39559   1.453   3.821   7.804  0.9594  0.0669  0.0599
11583SOL    HW139560   1.369   3.866   7.807  0.7964 -0.2454  0.3516
11583SOL    HW239561   1.510   3.879   7.754  0.2275 -0.3021 -1.2602
11584SOL     OW39562   2.100  10.535   8.824 -0.1095  0.3490 -0.4589
11584SOL    HW139563   2.084  10.629   8.817  2.1364  0.6589 -2.7752
11584SOL    HW239564   2.189  10.528   8.858  0.1549 -0.9187 -1.3693
11585SOL     OW39565   5.858   8.271  11.917 -0.1099 -0.1980 -0.0203
11585SOL    HW139566   5.884   8.362  11.921 -0.4408 -0.1334  2.2144
11585SOL    HW239567   5.934   8.225  11.883 -0.1762  0.9523 -1.8350
11586SOL     OW39568   9.308   7.629  11.615 -0.0093 -0.2594  0.4324
11586SOL    HW139569   9.345   7.630  11.704  1.5905 -0.9026 -0.1858
11586SOL    HW239570   9.380   7.656  11.559 -0.2698 -2.1231 -0.9055
11587SOL     OW39571   6.364   2.410   8.101 -0.5081  0.0258 -0.2859
11587SOL    HW139572   6.361   2.411   8.196  0.8028  1.9377 -0.2036
11587SOL    HW239573   6.421   2.337   8.079  1.5234  1.2578  0.5768
11588SOL     OW39574   1.883   6.991   3.028  0.5770 -0.0835 -0.5189
11588SOL    HW139575   1.908   6.914   2.977  2.4711  0.4260 -0.4328
11588SOL    HW239576   1.937   7.061   2.993 -1.6118  1.4145 -1.0722
11589SOL     OW39577   3.882   2.992   4.227  0.5204  0.1039  0.2655
11589SOL    HW139578   3.928   2.919   4.268  0.8042 -1.0645 -1.9640
11589SOL    HW239579   3.951   3.055   4.206  0.5745  0.0205  0.1967
11590SOL     OW39580   2.141   7.627   9.973  0.1720  0.2462 -0.1799
11590SOL    HW139581   2.175   7.661   9.890 -1.3312  1.7702 -0.2281
11590SOL    HW239582   2.118   7.536   9.955 -1.4420  0.9260 -1.8976
11591SOL     OW39583   6.301   0.804  11.602  0.0155 -0.3235 -0.1807
11591SOL    HW139584   6.296   0.876  11.665  0.4121 -1.3574  1.0698
11591SOL    HW239585   6.379   0.823  11.550 -0.0973  0.3378 -0.1249
11592SOL     OW39586  10.291   4.969  10.628 -0.2163 -0.1948  0.9687
11592SOL    HW139587  10.308   4.895  10.687 -0.1276 -0.6593  0.3671
11592SOL    HW239588  10.376   5.011  10.617  0.0821 -1.0085 -0.0147
11593SOL     OW39589   4.760  11.386   1.598 -0.6970  0.0742  0.1349
11593SOL    HW139590   4.674  11.346   1.611 -1.1368  0.5555 -1.1292
11593SOL    HW239591   4.749  11.477   1.625 -1.3754  0.8476 -2.4616
11594SOL     OW39592   7.666   6.084  12.580 -0.1404 -0.1820 -0.3053
11594SOL    HW139593   7.690   6.089  12.487  0.5290 -2.5333 -0.3231
11594SOL    HW239594   7.712   6.007  12.612 -1.3367 -0.1177  1.6947
11595SOL     OW39595  11.906   0.992   8.195 -0.6864  0.0482  0.2444
11595SOL    HW139596  11.905   0.910   8.145  1.4551 -0.5756  1.0939
11595SOL    HW239597  11.965   1.049   8.146  0.4882 -0.1483  1.3710
11596SOL     OW39598   3.213  11.334   6.335 -0.2096 -0.0988 -0.0353
11596SOL    HW139599   3.209  11.407   6.272  0.2877  0.4570  0.5633
11596SOL    HW239600   3.246  11.260   6.283 -2.0409 -0.2981 -0.9915
11597SOL     OW39601  12.323   3.548  10.987 -0.5385 -0.6830 -0.3377
11597SOL    HW139602  12.352   3.485  11.052  1.8929 -1.0141 -1.6474
11597SOL    HW239603  12.351   3.633  11.022 -0.0837 -0.7666 -0.4913
11598SOL     OW39604   9.564   8.661  11.660  0.2153  0.1416  0.5317
11598SOL    HW139605   9.651   8.690  11.688  0.2445  1.1670 -0.5204
11598SOL    HW239606   9.541   8.722  11.590 -0.0267 -1.9680 -1.3478
11599SOL     OW39607   4.680  12.318   7.222 -0.3011 -0.2677 -0.5994
11599SOL    HW139608   4.726  12.356   7.147 -1.3717 -1.2329 -1.8046
11599SOL    HW239609   4.735  12.245   7.250 -0.7164 -1.0282 -1.6412
11600SOL     OW39610   4.366   2.863   4.949  0.2109 -0.5964  0.2870
11600SOL    HW139611   4.326   2.949   4.938  0.2903 -0.5931  0.0329
11600SOL    HW239612   4.427   2.875   5.022  2.2587  0.2953 -1.4518
11601SOL     OW39613   4.573   8.739   6.597  0.0447 -0.3403  0.2121
11601SOL    HW139614   4.506   8.807   6.592  0.6162  0.1798 -0.8253
11601SOL    HW239615   4.559   8.686   6.519 -0.5741 -1.6144  1.1580
11602SOL     OW39616  12.511   4.135   8.424 -0.2156  0.0750 -0.5194
11602SOL    HW139617  12.539   4.181   8.503 -2.3502 -1.5359  1.3125
11602SOL    HW239618  12.423   4.103   8.445  0.1682 -2.6846 -2.5877
11603SOL     OW39619   7.517   5.666   0.616 -0.2524 -0.0287 -0.2285
11603SOL    HW139620   7.593   5.722   0.600  0.5883 -1.5345 -1.8594
11603SOL    HW239621   7.451   5.726   0.652  1.7333  1.2721  1.4674
11604SOL     OW39622   0.426   8.855   9.016 -0.1417 -0.2661  0.4695
11604SOL    HW139623   0.497   8.913   9.046 -0.2939 -0.5540  1.4111
11604SOL    HW239624   0.449   8.835   8.925  0.9355 -0.2716  0.7258
11605SOL     OW39625   0.020   7.677   2.004 -1.0997 -0.3389  0.3498
11605SOL    HW139626   0.092   7.739   1.994  0.0058 -1.8908 -2.4953
11605SOL    HW239627  -0.058   7.727   1.980 -0.3689  0.2717 -0.8374
11606SOL     OW39628   1.864   7.925   8.912 -0.1199  0.1873 -0.6214
11606SOL    HW139629   1.771   7.915   8.895 -0.0016 -1.3587 -0.4735
11606SOL    HW239630   1.894   7.837   8.934  1.1501  0.8636  0.4751
11607SOL     OW39631  12.180   9.810   8.358 -0.2825  0.0922  0.6128
11607SOL    HW139632  12.140   9.889   8.394  0.3676 -0.8724  3.7834
11607SOL    HW239633  12.272   9.817   8.382 -0.4468 -2.1810  2.2848
11608SOL     OW39634  10.502  12.558   8.435 -0.1768 -0.7291  0.2223
11608SOL    HW139635  10.533  12.644   8.409  1.3477 -1.0876  0.7377
11608SOL    HW239636  10.456  12.525   8.358 -0.1513  0.2513 -0.2278
11609SOL     OW39637   1.360  11.712  11.309 -0.5303  0.0446 -0.3042
11609SOL    HW139638   1.413  11.632  11.315 -2.1356 -0.9560  2.2795
11609SOL    HW239639   1.302  11.697  11.235  0.3595 -0.3680 -0.9424
11610SOL     OW39640   7.492   4.022   1.776  0.1358 -0.0861  0.5567
11610SOL    HW139641   7.452   3.990   1.857  1.6788 -1.5584  0.7940
11610SOL    HW239642   7.420   4.024   1.713 -1.0666  0.9658  1.8965
11611SOL     OW39643   4.205   6.768   3.977  0.0255  0.2842 -0.4116
11611SOL    HW139644   4.189   6.686   4.024  0.2775  0.3867 -0.1479
11611SOL    HW239645   4.159   6.756   3.893 -0.9555  0.3434  0.0994
11612SOL     OW39646   7.033  10.023   7.833 -0.2467 -0.7152  0.1258
11612SOL    HW139647   6.996   9.937   7.814 -1.3892  0.0866 -1.5337
11612SOL    HW239648   6.957  10.079   7.848  0.3444  0.5463 -1.3819
11613SOL     OW39649  10.566  12.145   8.793 -0.6246 -0.7302 -0.6668
11613SOL    HW139650  10.488  12.098   8.763  0.0896 -1.8639 -0.8222
11613SOL    HW239651  10.639  12.086   8.773  0.0386 -0.9258  1.9709
11614SOL     OW39652   8.486   8.036   6.598  0.3628  0.3238  0.2262
11614SOL    HW139653   8.443   7.958   6.632  1.4706 -0.7661 -0.8101
11614SOL    HW239654   8.453   8.044   6.508  0.4158  0.9511  0.2549
11615SOL     OW39655   7.539   3.289   1.585  0.1515  0.1577  0.2723
11615SOL    HW139656   7.476   3.318   1.651 -0.0826  1.7005 -0.5700
11615SOL    HW239657   7.622   3.283   1.631 -0.6334 -2.3084  1.5031
11616SOL     OW39658   3.613   3.357   8.718 -0.1629 -0.0837 -0.4412
11616SOL    HW139659   3.614   3.261   8.710 -0.7102 -0.0246 -1.2486
11616SOL    HW239660   3.521   3.379   8.728  0.0923  0.2135  1.9560
11617SOL     OW39661   5.113   6.749   5.972 -0.2776  0.3040 -0.2973
11617SOL    HW139662   5.094   6.835   5.935 -0.8649  0.1012 -0.4777
11617SOL    HW239663   5.058   6.744   6.050 -1.8740 -0.7210 -1.4155
11618SOL     OW39664   0.072   9.378  10.018  0.0749 -0.1987  0.2729
11618SOL    HW139665   0.030   9.464  10.014 -1.2382 -0.7768  1.0826
11618SOL    HW239666  -0.000   9.317  10.033  1.3006 -1.1187  2.9500
11619SOL     OW39667   7.328  11.424   6.957 -0.3087 -0.1006  0.3385
11619SOL    HW139668   7.302  11.493   6.896  0.0382  0.1698  0.4926
11619SOL    HW239669   7.267  11.352   6.940 -0.4156  0.0939 -0.1052
11620SOL     OW39670   5.750  11.387   0.693  0.0457 -0.3882  0.7687
11620SOL    HW139671   5.720  11.298   0.672 -1.4110 -0.0330  1.2702
11620SOL    HW239672   5.774  11.424   0.608 -0.3554 -0.8990  0.4226
11621SOL     OW39673  12.386   0.170  11.288 -0.0470 -0.3359 -0.1803
11621SOL    HW139674  12.440   0.210  11.356  1.8742 -0.5631 -1.4852
11621SOL    HW239675  12.372   0.240  11.224 -1.9670 -0.0800  0.4413
11622SOL     OW39676   7.810   3.928   0.696 -0.2267 -0.5618  0.0097
11622SOL    HW139677   7.773   3.853   0.744  0.5865 -1.8500 -1.2929
11622SOL    HW239678   7.740   3.956   0.638 -0.4904 -0.3805  0.4087
11623SOL     OW39679   9.821   8.347   7.725  0.3475 -0.3231 -0.6911
11623SOL    HW139680   9.799   8.255   7.714  1.7722 -0.6767 -0.7597
11623SOL    HW239681   9.916   8.351   7.717  0.4051  1.0298  0.1829
11624SOL     OW39682   7.757  10.643   4.815 -0.6062  0.3865  0.1813
11624SOL    HW139683   7.832  10.605   4.860  0.9187  4.6340  1.7964
11624SOL    HW239684   7.681  10.609   4.861  0.3695 -2.3171 -0.0433
11625SOL     OW39685   3.937  10.364   3.613  0.2005 -0.0749  0.1714
11625SOL    HW139686   3.914  10.456   3.628  0.9585 -0.1518  2.0274
11625SOL    HW239687   3.852  10.319   3.608 -0.1580  0.4948  0.9143
11626SOL     OW39688   9.597  12.319   4.786 -0.0000 -0.1507 -0.0764
11626SOL    HW139689   9.542  12.288   4.713 -1.7101 -0.5277  1.3173
11626SOL    HW239690   9.536  12.360   4.847  1.2026 -0.9182  1.7269
11627SOL     OW39691   7.816   2.850   5.695 -0.0802  0.4196  0.3661
11627SOL    HW139692   7.723   2.843   5.672  0.1510  0.4504 -0.6077
11627SOL    HW239693   7.861   2.794   5.632  0.8820  3.0810 -1.5122
11628SOL     OW39694   9.473   2.953   3.326  0.0376 -0.5205  0.0898
11628SOL    HW139695   9.429   3.013   3.386  0.6640 -1.5422  1.6128
11628SOL    HW239696   9.403   2.902   3.287 -0.2337 -1.5680  1.8739
11629SOL     OW39697   3.738   6.079   2.262  0.0587  0.0019 -0.0932
11629SOL    HW139698   3.694   6.100   2.345  1.2439  0.4043  0.4458
11629SOL    HW239699   3.812   6.139   2.257  1.3874 -1.5779 -0.2993
11630SOL     OW39700   0.259   9.228   6.039 -0.3057  0.1240  0.3666
11630SOL    HW139701   0.253   9.205   5.946 -1.1119 -1.1170  0.6872
11630SOL    HW239702   0.306   9.311   6.041 -1.0933  0.6555 -1.2224
11631SOL     OW39703   9.785   2.015   4.309 -0.8209  0.1402  0.0995
11631SOL    HW139704   9.738   2.023   4.392  0.2292  3.0283  0.5289
11631SOL    HW239705   9.716   2.011   4.243 -1.7153  1.6313  0.8880
11632SOL     OW39706   0.468   3.861  12.007  0.2415 -0.3324 -0.1669
11632SOL    HW139707   0.414   3.863  11.928 -0.7638 -2.4111  0.3903
11632SOL    HW239708   0.491   3.952  12.023 -2.8255  0.6413 -0.6486
11633SOL     OW39709   2.300   5.377   0.219 -0.3379 -0.0210 -0.6397
11633SOL    HW139710   2.240   5.408   0.152 -0.5288 -1.1462 -1.0197
11633SOL    HW239711   2.347   5.455   0.248  0.6751  0.3415 -2.9951
11634SOL     OW39712   0.067   2.560   2.759 -0.1498 -0.2461  0.3219
11634SOL    HW139713   0.092   2.510   2.836 -0.6730 -0.8208  0.1210
11634SOL    HW239714   0.030   2.496   2.699 -1.1181  0.4194  0.1811
11635SOL     OW39715   8.882  10.198   1.629  0.5370 -0.2526 -0.2314
11635SOL    HW139716   8.976  10.188   1.613  0.5089 -2.3364  0.5653
11635SOL    HW239717   8.875  10.214   1.724  0.0870 -0.6170 -0.1954
11636SOL     OW39718   5.531   3.047  11.685  0.3745  0.3997  0.5054
11636SOL    HW139719   5.615   3.088  11.665  1.3213 -0.8201  1.7721
11636SOL    HW239720   5.548   2.994  11.763 -1.7306  0.5794  1.1577
11637SOL     OW39721   5.239   5.338  12.034 -0.5080  0.3077  0.3048
11637SOL    HW139722   5.316   5.368  11.985  1.1699 -1.0385  1.9743
11637SOL    HW239723   5.195   5.419  12.061 -0.8175  1.0857 -2.2837
11638SOL     OW39724   2.858   3.321  11.292  1.0977  0.6636 -0.2743
11638SOL    HW139725   2.919   3.394  11.282  2.8639 -0.8692 -1.3810
11638SOL    HW239726   2.847   3.287  11.203 -1.1483  0.6783 -0.0520
11639SOL     OW39727  11.919  11.543   7.486  0.1822 -0.6304 -1.0101
11639SOL    HW139728  12.004  11.536   7.531 -0.8268  0.4418  1.2482
11639SOL    HW239729  11.940  11.583   7.402  1.8484  0.8310  0.0064
11640SOL     OW39730   2.731   5.244   8.371  0.1496  0.1241  0.1089
11640SOL    HW139731   2.783   5.310   8.418 -0.0115 -0.5709  1.2980
11640SOL    HW239732   2.763   5.160   8.404 -0.5792 -0.3633 -0.3860
11641SOL     OW39733   5.241   7.945   2.111  0.5626  0.7172  0.4074
11641SOL    HW139734   5.180   7.872   2.118  1.7541 -0.3770 -0.2274
11641SOL    HW239735   5.282   7.934   2.025  0.7044  2.1888  0.2617
11642SOL     OW39736  11.785   2.862   6.703 -0.7447 -0.1287 -1.1885
11642SOL    HW139737  11.798   2.788   6.762 -0.7595  1.5433  1.0614
11642SOL    HW239738  11.873   2.885   6.674 -0.5538 -0.0273 -0.5557
11643SOL     OW39739   5.425   5.018   6.607 -0.1526 -0.5828 -0.4784
11643SOL    HW139740   5.460   5.077   6.674 -2.0580 -0.7021  0.6707
11643SOL    HW239741   5.449   5.060   6.524 -0.1565  1.0158  0.2925
11644SOL     OW39742  12.461   1.968   8.879 -0.4131 -0.6044 -0.1296
11644SOL    HW139743  12.372   1.980   8.912 -0.6825  1.0068 -1.3109
11644SOL    HW239744  12.513   1.951   8.957 -1.4482  0.4265  0.8405
11645SOL     OW39745   1.779   8.337  12.319 -0.2121  0.1038 -0.3473
11645SOL    HW139746   1.803   8.362  12.408  0.7176 -2.0833  0.0864
11645SOL    HW239747   1.703   8.392  12.298  0.9737  2.3116  0.8756
11646SOL     OW39748   3.426   4.984   8.345  0.1077  0.0581  0.2573
11646SOL    HW139749   3.497   5.048   8.354 -0.6265  0.9605 -0.2234
11646SOL    HW239750   3.460   4.917   8.286  0.8876 -0.0055  0.7690
11647SOL     OW39751   0.608  10.668   8.678  0.4227  0.7740 -0.1119
11647SOL    HW139752   0.591  10.724   8.602  2.0994  2.4056  0.6183
11647SOL    HW239753   0.582  10.722   8.753 -2.6855 -1.3743  0.5484
11648SOL     OW39754   1.464   5.091   7.795 -0.3074  0.3014  0.3181
11648SOL    HW139755   1.383   5.072   7.747  0.7192 -3.0501 -0.3730
11648SOL    HW239756   1.465   5.186   7.804 -4.4251  0.4870  0.6551
11649SOL     OW39757  12.262   8.784   8.731  0.2219  0.4090  0.2367
11649SOL    HW139758  12.290   8.780   8.823 -0.8212  1.1154  0.5972
11649SOL    HW239759  12.304   8.862   8.696 -0.1159  0.6499  0.3680
11650SOL     OW39760   2.318   2.486  12.452  0.5680 -0.3922 -0.3846
11650SOL    HW139761   2.235   2.438  12.452  0.3799 -0.0959  0.4485
11650SOL    HW239762   2.345   2.487  12.544  1.1938  0.0332 -0.5626
11651SOL     OW39763   9.857  11.696   4.992  0.9617  0.1447 -0.1221
11651SOL    HW139764   9.868  11.728   5.081  0.5073  1.0278 -0.3774
11651SOL    HW239765   9.841  11.602   5.003 -0.1193  0.4147  0.7977
11652SOL     OW39766  10.413   2.711  12.342  0.7173 -0.2781 -0.7902
11652SOL    HW139767  10.420   2.684  12.434 -1.8705  1.1241 -0.0929
11652SOL    HW239768  10.426   2.806  12.344  0.8319 -0.2543 -1.9186
11653SOL     OW39769   3.608   9.467   5.706 -0.6436  0.7471  0.0283
11653SOL    HW139770   3.593   9.561   5.713 -0.9549  0.6877  0.1715
11653SOL    HW239771   3.660   9.445   5.784  2.6441  1.4132 -1.7657
11654SOL     OW39772   5.076   9.207   0.487 -0.6822 -0.4745  0.1385
11654SOL    HW139773   5.170   9.222   0.491 -0.9703  1.6313  0.5048
11654SOL    HW239774   5.039   9.293   0.467 -2.5341 -1.2457 -0.0034
11655SOL     OW39775   1.860   3.214  10.158 -0.2526  0.3969  0.3782
11655SOL    HW139776   1.938   3.164  10.181 -0.5555 -0.0978  0.3391
11655SOL    HW239777   1.885   3.261  10.078 -0.5878 -1.2323 -0.7425
11656SOL     OW39778   8.572   1.669   2.006 -0.2852  0.3644 -0.1462
11656SOL    HW139779   8.636   1.693   2.073  1.4607 -0.2163 -1.5267
11656SOL    HW239780   8.584   1.735   1.937 -0.0578 -0.6430 -1.0978
11657SOL     OW39781   7.921   7.129  10.428 -0.3081  0.0360  0.3221
11657SOL    HW139782   7.981   7.192  10.467  0.4624 -0.5764  0.1306
11657SOL    HW239783   7.868   7.097  10.501  0.7534 -0.6939  0.7890
11658SOL     OW39784   9.435   3.793  10.762  0.3614  0.3989  0.5891
11658SOL    HW139785   9.524   3.785  10.728  0.1542  3.2223 -0.9212
11658SOL    HW239786   9.381   3.743  10.700  0.6731  0.5100  0.2205
11659SOL     OW39787   9.213   8.360   8.213 -0.3450 -0.1143  0.1405
11659SOL    HW139788   9.284   8.423   8.214 -0.1442 -0.1996 -2.6422
11659SOL    HW239789   9.251   8.281   8.175 -1.5632 -0.6392 -0.0429
11660SOL     OW39790  11.073   9.365   9.363  0.9480  0.4650 -0.4031
11660SOL    HW139791  11.014   9.341   9.291  2.9476  0.3612 -2.0743
11660SOL    HW239792  11.145   9.411   9.321  1.8718  0.9782  1.6443
11661SOL     OW39793   9.088   5.458  12.618  0.5925 -0.3874 -0.0506
11661SOL    HW139794   9.118   5.406  12.693  2.8021 -2.1335 -1.9932
11661SOL    HW239795   9.004   5.419  12.594 -0.1597  0.2149  1.4565
11662SOL     OW39796  11.554   9.698   0.692  0.1464 -0.1054  0.0455
11662SOL    HW139797  11.606   9.618   0.696 -0.7143 -0.6842 -0.0308
11662SOL    HW239798  11.588   9.753   0.762 -0.2097 -1.1409  1.0640
11663SOL     OW39799  12.175   0.150   5.653 -0.2400  0.3668 -0.1025
11663SOL    HW139800  12.171   0.237   5.692 -1.0587 -1.0300  3.2642
11663SOL    HW239801  12.087   0.135   5.619 -0.5857  0.2501  0.8202
11664SOL     OW39802   9.559   6.834   8.236 -0.3156  0.0296  0.1133
11664SOL    HW139803   9.578   6.928   8.239  0.5679 -0.1436  0.4056
11664SOL    HW239804   9.532   6.817   8.146  1.8400  0.1648 -0.6137
11665SOL     OW39805   9.889   0.114  10.339 -0.0886 -0.1231 -0.0349
11665SOL    HW139806   9.936   0.170  10.400 -0.6011  0.2774  0.0022
11665SOL    HW239807   9.815   0.080  10.389  0.1700 -0.7653 -0.0843
11666SOL     OW39808   8.044   4.089  10.156  0.3125 -0.2748  0.1595
11666SOL    HW139809   7.997   4.172  10.148 -1.2694 -1.2035 -0.7161
11666SOL    HW239810   8.136   4.111  10.137 -0.2486  1.0862 -1.2048
11667SOL     OW39811   1.757  10.746   9.033  0.1729  0.1924  0.4041
11667SOL    HW139812   1.841  10.749   8.986  1.0881 -0.5991  1.9083
11667SOL    HW239813   1.715  10.666   9.002 -0.5038  1.0951 -1.0846
11668SOL     OW39814   4.563  11.833   0.013 -0.5193 -0.4930 -0.0745
11668SOL    HW139815   4.563  11.743   0.045 -0.7636 -0.6547 -0.5244
11668SOL    HW239816   4.522  11.883   0.084  0.8362 -0.5106  0.7680
11669SOL     OW39817   9.524   0.916  10.939 -0.2247  0.1214 -0.2899
11669SOL    HW139818   9.478   0.961  11.010  1.6610  0.9116  0.4938
11669SOL    HW239819   9.576   0.849  10.983  0.3132  0.0490 -1.0257
11670SOL     OW39820   6.856   0.655   7.970 -0.0065 -0.0637  0.1269
11670SOL    HW139821   6.818   0.625   8.053 -1.0751  0.6764 -0.0700
11670SOL    HW239822   6.796   0.623   7.903  0.2575  0.2853 -0.2811
11671SOL     OW39823   2.560  10.328  12.574 -0.2277 -0.1393 -0.1661
11671SOL    HW139824   2.583  10.411  12.617 -0.6423 -0.0081 -0.1927
11671SOL    HW239825   2.464  10.327  12.574 -0.2217 -0.6811 -0.0531
11672SOL     OW39826   6.003   3.365   4.019  0.1721 -0.0457 -0.1465
11672SOL    HW139827   5.941   3.432   3.991  0.1001 -0.3260 -0.6813
11672SOL    HW239828   6.077   3.413   4.055  0.1900  0.3280 -0.6726
11673SOL     OW39829   4.705  12.260   0.775  1.0621 -0.1272 -0.3623
11673SOL    HW139830   4.716  12.338   0.829 -0.6933 -0.6422  0.8091
11673SOL    HW239831   4.673  12.193   0.835 -1.3255 -0.6283 -2.0462
11674SOL     OW39832   2.240  10.978   2.022  0.1708 -0.5157 -0.8327
11674SOL    HW139833   2.264  10.908   1.961  0.1832 -1.3634  0.1235
11674SOL    HW239834   2.176  10.938   2.080  1.1230 -0.1196  0.5302
11675SOL     OW39835   7.496   0.309   1.834  1.1925 -0.0674  0.3354
11675SOL    HW139836   7.505   0.237   1.772  2.4559  0.2038  0.1804
11675SOL    HW239837   7.506   0.388   1.780 -0.6366  0.2790  0.4210
11676SOL     OW39838   4.401  10.425   1.321  0.0938  0.0235  0.1762
11676SOL    HW139839   4.378  10.348   1.271 -0.0374  0.8631 -1.0965
11676SOL    HW239840   4.491  10.445   1.296  0.5142 -0.3319  1.3326
11677SOL     OW39841   3.343   1.594  11.290 -0.2583  0.2516 -0.0442
11677SOL    HW139842   3.363   1.535  11.363 -0.1004 -0.7568 -0.8816
11677SOL    HW239843   3.411   1.661  11.294  1.1125 -1.0446 -0.5905
11678SOL     OW39844  12.188   0.762   4.165 -0.2154 -0.5973  0.5601
11678SOL    HW139845  12.135   0.746   4.087 -0.0917 -1.3146  0.6203
11678SOL    HW239846  12.247   0.688   4.170  2.6821  1.4391 -1.0161
11679SOL     OW39847   8.478   2.392   3.504  0.0671  0.1758  0.1041
11679SOL    HW139848   8.415   2.446   3.457  0.7355  0.3114 -0.6379
11679SOL    HW239849   8.462   2.412   3.596  0.1166  1.4294 -0.1427
11680SOL     OW39850  10.825   7.411   4.759  0.0517  0.5179  0.0275
11680SOL    HW139851  10.855   7.336   4.810  1.2496  1.9980  1.6342
11680SOL    HW239852  10.750   7.446   4.808  0.2207  1.0297 -0.0695
11681SOL     OW39853   7.277  11.688   7.086  0.1390 -0.3410 -0.1718
11681SOL    HW139854   7.353  11.634   7.062  0.5624  0.0476  0.2667
11681SOL    HW239855   7.306  11.778   7.072  0.8032 -0.0225  2.7835
11682SOL     OW39856   4.522   5.083   4.964  0.1802  0.3052 -0.4205
11682SOL    HW139857   4.523   4.991   4.990 -2.5047 -0.0595 -1.2958
11682SOL    HW239858   4.513   5.131   5.047  0.0510 -0.3115 -0.0704
11683SOL     OW39859   8.608   6.522   2.093  0.4964 -0.4010 -0.1457
11683SOL    HW139860   8.525   6.565   2.072 -0.2725 -2.0209 -0.5999
11683SOL    HW239861   8.669   6.554   2.028  0.2384  0.8021  0.1805
11684SOL     OW39862   2.081   1.247   6.970  0.4752 -0.2725  0.6304
11684SOL    HW139863   2.006   1.190   6.985  0.4462 -0.3161  0.3349
11684SOL    HW239864   2.055   1.332   7.004 -0.1913  0.0364 -0.5831
11685SOL     OW39865   8.519  11.843   9.484  0.3833 -0.5492 -0.5469
11685SOL    HW139866   8.611  11.831   9.464  0.0862 -1.5025 -1.3958
11685SOL    HW239867   8.476  11.846   9.398 -0.4293 -0.5740 -0.1490
11686SOL     OW39868   1.039   3.965  11.990 -0.6008  0.1504  0.2561
11686SOL    HW139869   1.091   3.974  11.910  0.0696  0.5979  0.7335
11686SOL    HW239870   1.057   3.877  12.021 -0.0858  0.3131  0.4353
11687SOL     OW39871   9.235   7.772   0.036 -0.0558 -0.2887  0.0187
11687SOL    HW139872   9.329   7.765   0.057 -0.1209  0.5072  0.5980
11687SOL    HW239873   9.196   7.809   0.115 -0.5849  1.0894 -0.8679
11688SOL     OW39874   4.769   2.062   1.810 -0.6622 -0.3640 -0.1362
11688SOL    HW139875   4.696   2.018   1.855  2.2695 -3.9732  1.6813
11688SOL    HW239876   4.752   2.047   1.717 -2.2462 -1.0759  0.2263
11689SOL     OW39877   6.433   5.094   0.597 -0.1901  0.4606  0.0688
11689SOL    HW139878   6.520   5.122   0.628 -0.8819  0.7850  1.8512
11689SOL    HW239879   6.436   4.998   0.603  0.0419  0.4704  0.1622
11690SOL     OW39880  10.076   5.462   8.959  0.7921 -0.2772 -0.3461
11690SOL    HW139881   9.988   5.498   8.954  0.5773 -0.4123  1.5841
11690SOL    HW239882  10.134   5.537   8.944  0.3384  0.1909  0.1968
11691SOL     OW39883   8.366   5.614  11.672 -0.1727  0.2906  0.2663
11691SOL    HW139884   8.404   5.691  11.715 -1.0090  0.8279  0.0558
11691SOL    HW239885   8.307   5.576  11.737 -0.1355  0.1136  0.1977
11692SOL     OW39886   9.578  12.571   5.602 -0.2954 -0.3727  0.9790
11692SOL    HW139887   9.581  12.538   5.512  2.3067  0.0101  0.8282
11692SOL    HW239888   9.485  12.581   5.621 -0.9729  1.2774 -2.3317
11693SOL     OW39889  11.124   0.944   9.333 -0.9591 -0.0103  0.2662
11693SOL    HW139890  11.143   0.914   9.422 -1.6486  0.7279  0.6757
11693SOL    HW239891  11.084   0.869   9.290  0.4666 -0.7551  0.1943
11694SOL     OW39892   2.851   0.148  10.495  0.3083 -0.8979 -0.0613
11694SOL    HW139893   2.758   0.170  10.490  0.3291 -0.8480 -0.2634
11694SOL    HW239894   2.896   0.233  10.501  0.3247 -0.9333  0.3327
11695SOL     OW39895   6.998   2.172  11.498  0.6153 -0.4234  0.6104
11695SOL    HW139896   7.079   2.171  11.549  0.2344  0.0622  1.2378
11695SOL    HW239897   6.929   2.188  11.562  0.1323  0.2345 -0.0523
11696SOL     OW39898   9.419  12.085   0.382 -0.0011  0.5683  0.2116
11696SOL    HW139899   9.400  11.992   0.369  0.7755  0.3421  0.5895
11696SOL    HW239900   9.404  12.125   0.297 -1.7742  0.3633  0.4025
11697SOL     OW39901  10.164   4.698   2.650  0.3621  0.7706  0.2417
11697SOL    HW139902  10.115   4.700   2.567  0.1625 -2.0283  0.2073
11697SOL    HW239903  10.256   4.693   2.623  0.3200  0.2634  0.1812
11698SOL     OW39904   5.364   4.748   0.028  0.6645  0.1121  0.2462
11698SOL    HW139905   5.316   4.748  -0.055  0.5328 -0.3524  0.3185
11698SOL    HW239906   5.378   4.655   0.047 -0.0554  0.1780  1.1744
11699SOL     OW39907   4.310  10.520   9.858  0.2709  0.5410  0.2622
11699SOL    HW139908   4.353  10.571   9.790  1.4258  0.6788  1.0487
11699SOL    HW239909   4.344  10.557   9.940  0.7370 -1.1275  0.8586
11700SOL     OW39910  10.328   5.673  10.169  0.1816 -0.1458  0.1570
11700SOL    HW139911  10.372   5.610  10.226  1.8324  1.4003  0.6833
11700SOL    HW239912  10.263   5.621  10.122  1.9628 -2.4091  0.0144
11701SOL     OW39913   1.807   6.252   8.287  0.1854 -0.2204  0.2823
11701SOL    HW139914   1.755   6.317   8.239 -0.3632 -0.6682  0.2587
11701SOL    HW239915   1.858   6.208   8.220  0.2805 -0.0708  0.2539
11702SOL     OW39916   4.926  12.400  11.027  0.2189 -0.6338  0.2843
11702SOL    HW139917   4.977  12.403  11.108 -0.7015  0.1618  0.8585
11702SOL    HW239918   4.987  12.365  10.961  2.0083  1.7703  0.5454
11703SOL     OW39919   9.095   8.548   0.891  0.3513  0.2908 -0.1400
11703SOL    HW139920   9.028   8.593   0.840 -2.3591 -2.5251  0.6596
11703SOL    HW239921   9.047   8.500   0.958  3.0588 -2.4901  0.0425
11704SOL     OW39922   4.764   8.069   6.791  0.3646 -0.0160 -0.6239
11704SOL    HW139923   4.739   8.078   6.699  2.8258 -1.5934 -1.5697
11704SOL    HW239924   4.857   8.047   6.788  0.0146 -2.5345  2.1287
11705SOL     OW39925   6.022  11.727   0.356  0.2081  0.0664 -0.0680
11705SOL    HW139926   6.067  11.653   0.316 -1.5067 -0.5089 -1.0374
11705SOL    HW239927   6.022  11.794   0.289  1.2184  0.7545  0.5928
11706SOL     OW39928   9.283   3.168   2.489 -0.2816  0.2753 -0.5326
11706SOL    HW139929   9.275   3.262   2.470  3.0828  0.9018  0.4877
11706SOL    HW239930   9.375   3.148   2.473 -0.5341 -2.4847  0.8987
11707SOL     OW39931  10.904   4.685   7.017  0.4425  0.0181 -0.2358
11707SOL    HW139932  10.850   4.667   7.094 -1.1806  2.3481 -0.7066
11707SOL    HW239933  10.919   4.780   7.021  0.3296  0.1941 -2.7334
11708SOL     OW39934  11.139   5.700   5.469  0.4011  0.6694 -0.4431
11708SOL    HW139935  11.080   5.627   5.486  0.1751  1.1456  0.9627
11708SOL    HW239936  11.222   5.658   5.445  0.6950 -0.1283  1.7318
11709SOL     OW39937   5.855   3.909   5.133  0.1042 -0.1841  0.4574
11709SOL    HW139938   5.841   3.981   5.072  0.5313 -1.1405 -0.8103
11709SOL    HW239939   5.845   3.948   5.220  0.8913  1.5141 -0.1806
11710SOL     OW39940  10.515  10.893  11.161 -0.0450 -0.1125  0.2655
11710SOL    HW139941  10.545  10.807  11.189 -1.2826 -1.0254 -1.1170
11710SOL    HW239942  10.472  10.930  11.239  0.2881 -0.8308  0.7962
11711SOL     OW39943   7.973   4.863   4.247  0.2059  0.1750  0.0867
11711SOL    HW139944   7.944   4.939   4.298 -1.0703 -0.4795  0.3898
11711SOL    HW239945   8.028   4.813   4.308 -0.7246 -0.2314  0.6304
11712SOL     OW39946   9.464   6.383   4.939  0.7479 -0.5140 -0.4092
11712SOL    HW139947   9.379   6.341   4.925  1.7100 -2.2557 -1.4666
11712SOL    HW239948   9.471   6.392   5.034 -0.8916  0.3042 -0.3339
11713SOL     OW39949   6.911   1.411  11.889  0.4497  0.4501  0.4388
11713SOL    HW139950   6.989   1.458  11.863  0.7315  0.0095  0.4742
11713SOL    HW239951   6.928   1.382  11.979 -0.8026  2.5866  1.4368
11714SOL     OW39952  10.972   1.798  11.918  0.0458 -0.2262 -0.1700
11714SOL    HW139953  10.999   1.721  11.869 -0.4792  0.1850 -1.1395
11714SOL    HW239954  11.049   1.854  11.919 -0.1539  0.0945 -1.2252
11715SOL     OW39955   8.351   9.611  11.755  0.0985  0.4030 -0.2406
11715SOL    HW139956   8.315   9.522  11.758 -0.0264  0.4256  3.4110
11715SOL    HW239957   8.273   9.667  11.757  0.2153  0.5839 -0.7301
11716SOL     OW39958   9.961   0.788   5.843  0.2754  0.3441  0.2430
11716SOL    HW139959  10.000   0.812   5.927 -0.0543 -1.7637  1.0598
11716SOL    HW239960   9.883   0.737   5.867  0.4198 -0.6738 -1.3190
11717SOL     OW39961   1.405   0.691  10.838 -0.5547  0.6369 -0.2891
11717SOL    HW139962   1.340   0.718  10.773 -0.9801  1.8438  0.5938
11717SOL    HW239963   1.361   0.702  10.922  0.4017  0.3091  0.2705
11718SOL     OW39964   6.135   4.788  11.556  0.2752  0.3997  0.2027
11718SOL    HW139965   6.079   4.858  11.590 -0.6532 -0.3647  0.2846
11718SOL    HW239966   6.192   4.831  11.493 -1.9120  0.8539 -1.5723
11719SOL     OW39967   5.643  10.690   8.787  0.4571 -0.0188 -0.1479
11719SOL    HW139968   5.658  10.637   8.866  0.5011 -0.5389 -0.4968
11719SOL    HW239969   5.709  10.758   8.791  1.7107 -1.1469 -0.6786
11720SOL     OW39970   3.199   5.676  10.629 -0.1508 -0.3351  0.8832
11720SOL    HW139971   3.115   5.632  10.635  0.3360 -1.3336  0.5659
11720SOL    HW239972   3.179   5.768  10.644 -1.3641 -0.4875  0.3012
11721SOL     OW39973   2.141   4.401   2.867 -0.2017 -0.0931 -0.2141
11721SOL    HW139974   2.173   4.362   2.948  1.0471  2.1815  0.4726
11721SOL    HW239975   2.071   4.460   2.894 -0.4917 -0.0937 -0.9310
11722SOL     OW39976   4.626  10.993   0.853 -1.1280  0.6639 -0.5305
11722SOL    HW139977   4.594  10.944   0.777 -1.7280  1.7738 -1.0230
11722SOL    HW239978   4.549  11.042   0.884 -1.3260 -0.9266  1.7626
11723SOL     OW39979   4.699   4.208   2.680  0.3236  0.4667 -0.5989
11723SOL    HW139980   4.690   4.150   2.756  0.2714  0.3051 -0.7296
11723SOL    HW239981   4.782   4.182   2.640 -0.5888 -0.8121 -1.7560
11724SOL     OW39982  10.247   4.535   8.745  0.3347  0.4783 -0.2950
11724SOL    HW139983  10.182   4.467   8.759  0.8570 -0.3760 -1.8059
11724SOL    HW239984  10.243   4.554   8.651  2.8722 -0.2855 -0.6384
11725SOL     OW39985   3.574   3.524   1.927 -0.1458  1.1024  0.1789
11725SOL    HW139986   3.546   3.520   2.018  1.8617  1.4731  0.8690
11725SOL    HW239987   3.569   3.617   1.904 -0.2604  1.0630  0.0405
11726SOL     OW39988   2.061   8.291   0.157  0.5651 -0.2621 -0.8025
11726SOL    HW139989   2.018   8.229   0.098  0.6422 -0.3014 -0.8170
11726SOL    HW239990   2.002   8.297   0.232  0.3095  0.0296 -1.0238
11727SOL     OW39991   7.328  10.570   6.815 -0.1522 -0.0548 -0.5270
11727SOL    HW139992   7.403  10.522   6.779  0.0475  1.1642 -1.8639
11727SOL    HW239993   7.293  10.619   6.740 -1.4442  0.4824  0.3811
11728SOL     OW39994  10.027   1.213   9.267 -0.0986  0.0437  0.2882
11728SOL    HW139995  10.092   1.145   9.284 -0.4882 -0.1111  1.2472
11728SOL    HW239996  10.066   1.267   9.198  0.1993 -1.1539 -0.5052
11729SOL     OW39997   6.695   6.272   8.896  0.0903  0.0473  0.0989
11729SOL    HW139998   6.632   6.340   8.920 -0.1954 -0.6333  1.4156
11729SOL    HW239999   6.657   6.231   8.818  1.1822  2.5206 -1.8848
11730SOL     OW40000   6.508   7.160   3.932 -0.2176  0.5421 -0.1291
11730SOL    HW140001   6.481   7.218   4.003  3.2431 -0.1393  1.9912
11730SOL    HW240002   6.531   7.078   3.976  1.3357 -0.1704 -2.1169
11731SOL     OW40003   4.933  11.751  10.847 -0.2300  0.0357  0.6665
11731SOL    HW140004   4.958  11.696  10.773 -5.4021  1.0825 -2.3790
11731SOL    HW240005   4.976  11.835  10.830 -0.9750  0.1223 -0.9766
11732SOL     OW40006   4.230   4.370   9.351 -0.1215 -0.1069  0.1700
11732SOL    HW140007   4.217   4.388   9.258  1.7194 -1.7628 -0.4849
11732SOL    HW240008   4.147   4.392   9.392 -0.4279  2.3312 -1.5784
11733SOL     OW40009  11.339   0.145   2.243 -0.2164 -0.1845  0.2091
11733SOL    HW140010  11.334   0.076   2.176 -0.0512  1.0422 -1.1340
11733SOL    HW240011  11.251   0.148   2.281 -0.6577 -0.1307 -0.7851
11734SOL     OW40012   4.831  12.078   8.136 -0.0263  0.5508 -0.0009
11734SOL    HW140013   4.768  12.148   8.149 -0.1436  0.3898  0.3278
11734SOL    HW240014   4.784  11.998   8.160  0.2182  0.4018 -0.0072
11735SOL     OW40015  10.390  11.332   4.013 -1.0476 -0.1436 -0.7666
11735SOL    HW140016  10.328  11.307   3.944 -2.4645  2.1770 -0.4353
11735SOL    HW240017  10.422  11.418   3.986 -0.5542  0.1848  0.7843
11736SOL     OW40018   2.550   4.940   2.434 -0.3056  0.6846 -0.3736
11736SOL    HW140019   2.576   4.872   2.496 -3.3890  0.5821  1.0249
11736SOL    HW240020   2.504   4.892   2.364 -0.0880  1.1062 -0.8111
11737SOL     OW40021  10.719   7.363   5.142 -0.0749  0.4316  0.3429
11737SOL    HW140022  10.806   7.401   5.127  0.1086  0.8282  2.1340
11737SOL    HW240023  10.733   7.269   5.137  0.4236  0.4985  0.4051
11738SOL     OW40024   3.230   7.867   2.904  0.5632 -0.7626  0.0038
11738SOL    HW140025   3.321   7.885   2.927  0.0619  1.4981  0.3851
11738SOL    HW240026   3.184   7.864   2.988 -0.1084  0.5869 -0.2994
11739SOL     OW40027  12.150   6.902  10.784 -0.6527 -0.0860 -0.4728
11739SOL    HW140028  12.071   6.909  10.837  0.0129 -2.1594  0.9022
11739SOL    HW240029  12.141   6.819  10.737  0.6393 -0.3250 -0.3496
11740SOL     OW40030   1.942   0.106   9.297 -0.0688 -0.0450  0.2750
11740SOL    HW140031   1.950   0.051   9.375  0.1440 -0.7607 -0.2368
11740SOL    HW240032   1.849   0.125   9.291 -0.2680 -1.0312  0.0142
11741SOL     OW40033   5.874   8.759   9.036  0.4430 -0.5066 -0.3849
11741SOL    HW140034   5.910   8.688   8.982 -0.7762 -1.6684  0.2666
11741SOL    HW240035   5.779   8.748   9.029  0.2499  0.1755  0.8870
11742SOL     OW40036   8.875   0.650   2.224  0.1630 -0.4346 -0.2816
11742SOL    HW140037   8.895   0.588   2.153  1.9408  0.7858 -0.9397
11742SOL    HW240038   8.960   0.664   2.267 -0.0605  1.7925 -0.4171
11743SOL     OW40039   7.978   1.380  10.209 -0.0806 -0.2610  0.4690
11743SOL    HW140040   7.909   1.443  10.191 -1.3964 -1.3000  1.5995
11743SOL    HW240041   7.961   1.350  10.298  1.1378 -1.4172  0.3547
11744SOL     OW40042   0.032   8.129   7.108 -0.6908 -0.0190 -0.0155
11744SOL    HW140043   0.120   8.108   7.140 -0.8135 -1.5844 -0.6210
11744SOL    HW240044  -0.023   8.126   7.187 -0.7520 -2.4341 -0.0821
11745SOL     OW40045   4.368  11.195   0.251  0.3757  0.1671 -0.3330
11745SOL    HW140046   4.441  11.245   0.287  0.4573  0.0571 -0.3419
11745SOL    HW240047   4.390  11.104   0.269  0.0163  0.1582  0.0766
11746SOL     OW40048   0.589  10.741  10.038 -0.0963 -0.3315  0.3063
11746SOL    HW140049   0.573  10.830  10.069  2.1323  0.1780  0.1543
11746SOL    HW240050   0.667  10.748   9.983 -0.5017 -2.2116 -0.5859
11747SOL     OW40051   2.183   4.259   6.816 -0.1023 -0.4104 -0.1278
11747SOL    HW140052   2.185   4.254   6.720  0.2660  1.2365 -0.2344
11747SOL    HW240053   2.255   4.319   6.838 -0.7888 -0.0137  1.1230
11748SOL     OW40054  10.270   5.286  11.290  0.3608 -0.3145 -0.2214
11748SOL    HW140055  10.317   5.202  11.294 -0.0648 -0.6050 -0.9053
11748SOL    HW240056  10.330   5.345  11.244  0.8960 -0.0660  0.7695
11749SOL     OW40057   1.480   7.703   4.734 -0.0950 -0.4956 -0.7932
11749SOL    HW140058   1.418   7.711   4.806 -0.2732  1.8015 -1.1100
11749SOL    HW240059   1.493   7.609   4.723 -1.5684 -0.9535  0.9231
11750SOL     OW40060  11.021   3.462   3.799 -0.9186  0.3845 -0.0613
11750SOL    HW140061  11.001   3.417   3.881  1.2348 -1.6470 -0.5432
11750SOL    HW240062  11.009   3.395   3.731  0.3003  1.1086 -1.0409
11751SOL     OW40063   7.937   6.045   0.841  0.5855  0.0008 -0.4558
11751SOL    HW140064   7.865   6.092   0.797  0.2474 -0.5330 -0.4796
11751SOL    HW240065   8.014   6.067   0.789  0.2244 -0.4512 -1.2068
11752SOL     OW40066  10.969  10.686   0.730  0.4585 -0.0946 -0.1534
11752SOL    HW140067  10.908  10.717   0.796 -0.9572 -0.6791 -1.1309
11752SOL    HW240068  11.016  10.614   0.772 -0.5376 -0.5662  0.1918
11753SOL     OW40069   5.473   5.781   5.106 -0.7395 -0.2276 -0.3555
11753SOL    HW140070   5.417   5.796   5.181 -0.6261 -0.3172 -0.2518
11753SOL    HW240071   5.499   5.689   5.113  0.9297  0.2634  0.6498
11754SOL     OW40072   0.101  12.590   4.820 -0.5031 -0.1925  0.5220
11754SOL    HW140073   0.196  12.584   4.807 -0.8464 -3.3536 -1.6307
11754SOL    HW240074   0.090  12.606   4.914  2.1156  1.6040  0.6268
11755SOL     OW40075  11.306   6.124   5.553  0.1635 -0.0079 -0.2937
11755SOL    HW140076  11.219   6.134   5.515  0.3563 -0.2690 -0.8307
11755SOL    HW240077  11.292   6.073   5.633  0.0527 -2.1538 -1.5823
11756SOL     OW40078   6.275   0.466   6.585  0.2704 -0.8987 -0.6512
11756SOL    HW140079   6.263   0.527   6.512  0.5590  0.5413  0.4671
11756SOL    HW240080   6.193   0.469   6.633  0.2487 -1.4952 -0.6406
11757SOL     OW40081   2.816   6.584  10.868  0.3067  0.2696 -0.7605
11757SOL    HW140082   2.753   6.651  10.841 -1.9612 -1.0498  0.8456
11757SOL    HW240083   2.782   6.503  10.830  1.3903 -0.3892 -0.3642
11758SOL     OW40084   6.997   4.890  10.815 -0.0870 -0.1997  0.5417
11758SOL    HW140085   6.971   4.836  10.741 -1.4812  1.8480 -0.5695
11758SOL    HW240086   7.039   4.967  10.776  0.9354  0.0380  1.9975
11759SOL     OW40087   0.089   3.308   3.566 -0.0650  0.5167 -0.3395
11759SOL    HW140088   0.042   3.238   3.520 -1.1931  0.8777  0.2345
11759SOL    HW240089   0.179   3.275   3.573 -0.8321 -1.4468  1.0047
11760SOL     OW40090   9.042  10.475   9.429 -0.2157  0.3187  0.1796
11760SOL    HW140091   9.034  10.525   9.348  0.0763  0.6060  0.3235
11760SOL    HW240092   9.121  10.423   9.417 -0.2907  0.2003  0.1962
11761SOL     OW40093   8.118   4.815   9.376 -0.1503 -0.2588 -0.1295
11761SOL    HW140094   8.052   4.759   9.335  0.9040 -0.8783 -1.0470
11761SOL    HW240095   8.118   4.895   9.324 -0.4397 -0.0973  0.1139
11762SOL     OW40096   7.907   7.468   8.645 -0.2204 -0.0336  0.6023
11762SOL    HW140097   7.903   7.563   8.635  1.1127  0.2286  2.2678
11762SOL    HW240098   7.969   7.440   8.577  0.0325  0.3875  0.6541
11763SOL     OW40099   0.645  10.043   5.048 -0.1656 -0.0202  0.4883
11763SOL    HW140100   0.700  10.012   5.121 -1.0009 -1.3416  0.5851
11763SOL    HW240101   0.687  10.125   5.020  0.5960  0.1356  1.9683
11764SOL     OW40102   7.795   3.858   1.798 -0.7098  0.3944 -0.3676
11764SOL    HW140103   7.757   3.910   1.868 -1.3385 -1.6630  0.9167
11764SOL    HW240104   7.808   3.920   1.726 -3.2551  1.9011  0.3370
11765SOL     OW40105  11.594   8.040   0.863 -0.2506  0.4560  0.3010
11765SOL    HW140106  11.653   8.029   0.937 -0.2011 -0.2338  0.1661
11765SOL    HW240107  11.612   7.964   0.807 -1.4434  0.0938  0.3879
11766SOL     OW40108   9.827   7.050   6.608  0.1545  0.0544  0.2920
11766SOL    HW140109   9.752   7.109   6.604 -0.8304 -1.1544  0.0674
11766SOL    HW240110   9.826   7.016   6.697  0.5526  0.1793  0.3437
11767SOL     OW40111   5.809   5.405   5.552  0.3780 -0.2683 -0.2655
11767SOL    HW140112   5.902   5.398   5.573  0.1839  0.3644  0.8616
11767SOL    HW240113   5.803   5.482   5.495  0.7489 -1.3108 -1.7753
11768SOL     OW40114   2.261   1.430   2.044 -0.3836  0.0558 -0.2273
11768SOL    HW140115   2.322   1.469   1.982 -0.6860  0.4717 -0.2718
11768SOL    HW240116   2.225   1.354   1.998 -0.7535  0.4773 -0.6426
11769SOL     OW40117   6.129   1.897   5.820 -1.1155  0.4498 -0.3014
11769SOL    HW140118   6.182   1.927   5.746 -2.1980  0.8710 -0.9291
11769SOL    HW240119   6.042   1.933   5.803 -1.4531  0.3081  1.0348
11770SOL     OW40120   2.292   4.826   3.853  0.4166 -0.5879 -0.4885
11770SOL    HW140121   2.257   4.825   3.942  0.5881  0.6200 -0.3820
11770SOL    HW240122   2.373   4.877   3.860  0.4597 -0.5201 -1.3235
11771SOL     OW40123  11.579   5.293   1.348 -0.2765 -0.1443 -0.3464
11771SOL    HW140124  11.484   5.296   1.359 -0.0804  0.0116  1.7519
11771SOL    HW240125  11.613   5.308   1.436  1.6899 -1.3764 -0.8498
11772SOL     OW40126   9.140   9.444   1.232  0.3320  0.1913  0.1437
11772SOL    HW140127   9.103   9.476   1.315  0.0274  0.5257 -0.1165
11772SOL    HW240128   9.226   9.409   1.256 -0.3130 -0.9915  0.8263
11773SOL     OW40129   7.715   0.697  10.234  0.2489 -0.2738  0.2727
11773SOL    HW140130   7.767   0.737  10.304  1.6096 -0.9722 -0.3069
11773SOL    HW240131   7.640   0.756  10.223  1.5241  1.4205  0.3099
11774SOL     OW40132   3.241   7.630   2.742 -0.2341  0.5179  0.2550
11774SOL    HW140133   3.224   7.691   2.815  0.1278  1.6796 -0.6051
11774SOL    HW240134   3.281   7.554   2.784 -0.1337  1.1149  1.2962
11775SOL     OW40135   1.547   2.462   0.057 -0.1403 -0.1078  0.1767
11775SOL    HW140136   1.453   2.457   0.071  0.0303 -1.9200  1.0563
11775SOL    HW240137   1.580   2.376   0.085  1.8734  0.7953  0.8197
11776SOL     OW40138   8.353   9.633   7.436  0.5973  0.1583 -0.1832
11776SOL    HW140139   8.362   9.543   7.469 -1.9153 -0.1796 -0.1846
11776SOL    HW240140   8.371   9.688   7.511 -2.7035 -0.5401  1.2773
11777SOL     OW40141   6.088   6.610  12.375 -0.0693 -0.7029  0.1388
11777SOL    HW140142   6.176   6.647  12.387  0.0973 -0.5785 -1.2904
11777SOL    HW240143   6.039   6.641  12.451  0.5976  0.8772 -0.0340
11778SOL     OW40144   5.415   7.719  11.259 -0.0430  0.1252 -0.1108
11778SOL    HW140145   5.493   7.668  11.235 -1.1382 -1.2841 -0.8641
11778SOL    HW240146   5.444   7.810  11.257  1.2401 -0.2627 -1.8312
11779SOL     OW40147   5.320   7.173  11.400 -0.5835 -0.1509  0.4902
11779SOL    HW140148   5.280   7.207  11.320 -0.0035 -0.4680  0.0578
11779SOL    HW240149   5.274   7.218  11.471  0.7388  2.2191 -0.0655
11780SOL     OW40150   8.131  12.224   5.079 -0.2875 -0.0360  0.1046
11780SOL    HW140151   8.143  12.130   5.091  0.5385  0.2383  1.6244
11780SOL    HW240152   8.175  12.243   4.996 -0.4032 -0.9716 -0.1827
11781SOL     OW40153  10.187   6.506  11.251 -0.2079 -0.7510  0.0866
11781SOL    HW140154  10.243   6.552  11.314 -0.7252 -0.2831  0.2085
11781SOL    HW240155  10.161   6.426  11.297  1.4226 -1.6493 -0.4501
11782SOL     OW40156   6.181   9.377   7.046  0.3572 -0.0254 -0.3912
11782SOL    HW140157   6.145   9.291   7.026  0.3708  0.0282 -0.6571
11782SOL    HW240158   6.275   9.362   7.060  0.3917 -0.0277 -0.6186
11783SOL     OW40159   7.553  12.383   4.396  0.4510  0.0797 -0.3954
11783SOL    HW140160   7.624  12.343   4.345  0.2849  0.3709 -0.8675
11783SOL    HW240161   7.476  12.375   4.339  0.8337  3.0280 -1.5193
11784SOL     OW40162  11.111   3.138   8.458 -0.2876 -0.6230  0.5380
11784SOL    HW140163  11.117   3.208   8.393 -0.6656 -0.5851  0.5387
11784SOL    HW240164  11.099   3.183   8.541  0.9844 -0.6479  0.7494
11785SOL     OW40165  10.845   3.873  10.401  0.3417  0.2271  0.2017
11785SOL    HW140166  10.898   3.793  10.399  1.4650  0.9522 -0.9992
11785SOL    HW240167  10.846   3.900  10.493  2.8041  0.6452  0.1226
11786SOL     OW40168   7.078   2.758   1.707  0.6909  0.0283 -0.3777
11786SOL    HW140169   7.160   2.748   1.658 -0.0536  1.4326 -2.0256
11786SOL    HW240170   7.050   2.848   1.689 -0.8493 -0.1881  0.7378
11787SOL     OW40171   6.724   6.141   7.086  0.4093  0.9235  0.2055
11787SOL    HW140172   6.757   6.111   7.001  0.0350 -2.5773  1.1232
11787SOL    HW240173   6.802   6.163   7.136  0.9316 -0.4432  0.0466
11788SOL     OW40174   0.498  12.296   8.745  0.0457  0.2092 -0.3287
11788SOL    HW140175   0.558  12.223   8.736 -0.5037 -0.1728 -1.0808
11788SOL    HW240176   0.539  12.355   8.808  1.2887  0.0587 -0.9878
11789SOL     OW40177   6.989  10.948   1.513 -0.3406 -0.3589 -0.3895
11789SOL    HW140178   7.080  10.920   1.512  0.2498  1.4516 -0.7585
11789SOL    HW240179   6.948  10.895   1.582  1.5605  0.4421  1.4753
11790SOL     OW40180   6.456   6.396   2.257 -0.0851  0.1158 -0.1841
11790SOL    HW140181   6.391   6.435   2.316  0.5058 -1.2352  1.4723
11790SOL    HW240182   6.535   6.388   2.311  0.6585 -0.6855 -1.3379
11791SOL     OW40183   7.327   1.460   2.971  0.4725  0.4841 -0.0276
11791SOL    HW140184   7.254   1.476   3.031  1.7110  1.4233  1.2945
11791SOL    HW240185   7.299   1.385   2.919 -1.9206  1.5361 -0.3781
11792SOL     OW40186   8.844   9.998   2.287  1.0217  0.3244  0.1419
11792SOL    HW140187   8.930   9.972   2.255  0.8674 -1.0762  0.8005
11792SOL    HW240188   8.821   9.933   2.353 -1.8397 -1.2367 -2.1159
11793SOL     OW40189  11.398   7.044  10.618 -0.3538 -0.0534 -0.0626
11793SOL    HW140190  11.385   7.051  10.523  0.4393 -0.3594 -0.2024
11793SOL    HW240191  11.458   7.116  10.639 -0.4566 -0.0417  0.1946
11794SOL     OW40192  10.819   3.205   0.435 -0.1550 -0.1198 -0.0375
11794SOL    HW140193  10.880   3.227   0.506 -0.6240 -0.7567  0.5651
11794SOL    HW240194  10.742   3.259   0.453  0.1495  0.5689 -0.7147
11795SOL     OW40195  12.515   8.729   1.003 -0.2810  0.0374 -0.5539
11795SOL    HW140196  12.608   8.722   1.022  0.0822  2.0613 -1.3721
11795SOL    HW240197  12.484   8.638   1.000  2.1200 -0.8204 -2.5283
11796SOL     OW40198   3.044   6.338   9.402 -0.4398 -0.3209 -0.0447
11796SOL    HW140199   3.086   6.259   9.436  3.4149  0.9039 -1.4371
11796SOL    HW240200   3.091   6.357   9.321  0.5143  4.5985  1.3306
11797SOL     OW40201   9.002  10.576   8.066 -0.1821 -0.1315 -0.2439
11797SOL    HW140202   8.989  10.670   8.052 -0.0565 -0.0253  0.3154
11797SOL    HW240203   9.005  10.567   8.161 -3.1232 -1.1071 -0.1668
11798SOL     OW40204   3.738   5.213   1.608 -0.1276  0.3932  0.1050
11798SOL    HW140205   3.763   5.207   1.516 -1.8087  0.4227 -0.3757
11798SOL    HW240206   3.784   5.141   1.650  0.2451  0.0601 -0.8502
11799SOL     OW40207   5.668   6.013   4.273  0.0907  0.4758  0.1379
11799SOL    HW140208   5.626   6.013   4.359 -0.2253  0.5368 -0.0181
11799SOL    HW240209   5.758   5.986   4.291 -0.5014 -1.5722  0.2186
11800SOL     OW40210   5.425   6.380   4.093 -0.6655  0.4142 -0.3831
11800SOL    HW140211   5.406   6.323   4.019 -0.7298  0.4790 -0.4167
11800SOL    HW240212   5.474   6.453   4.055 -1.5192  0.9284 -0.5200
11801SOL     OW40213   6.975   2.039   5.653 -0.1349 -0.0448 -0.0153
11801SOL    HW140214   6.901   2.079   5.698 -1.2289 -2.9613  1.0663
11801SOL    HW240215   7.028   2.001   5.724 -0.8502 -3.0573 -0.9409
11802SOL     OW40216   0.021   0.923   9.312  0.3166 -0.3221  0.3368
11802SOL    HW140217   0.015   1.014   9.341 -0.3567 -0.6165  1.1344
11802SOL    HW240218   0.036   0.873   9.392  1.3931 -0.8632 -0.1690
11803SOL     OW40219   1.868   9.649  10.384  0.3821 -0.2229  0.5320
11803SOL    HW140220   1.851   9.743  10.374 -1.4576 -0.6326 -0.7249
11803SOL    HW240221   1.914   9.625  10.303 -1.4821 -0.8398 -0.4006
11804SOL     OW40222   7.507   7.116   9.711  0.2286 -0.0100 -0.0709
11804SOL    HW140223   7.578   7.103   9.649  2.1438  0.2903  1.9164
11804SOL    HW240224   7.435   7.062   9.678  1.5692 -0.7690 -1.8605
11805SOL     OW40225   8.854   2.662   2.754 -0.3383  0.4492  0.0515
11805SOL    HW140226   8.768   2.627   2.732  0.2141 -0.2034 -1.1087
11805SOL    HW240227   8.914   2.588   2.743  0.6469  1.3866 -1.0552
11806SOL     OW40228   6.523   9.542  12.569  0.0579  0.8059  0.2380
11806SOL    HW140229   6.558   9.627  12.595  0.8448 -0.0905  2.3669
11806SOL    HW240230   6.587   9.507  12.508  0.2607  1.3007  0.1594
11807SOL     OW40231   1.957   2.310   3.265 -0.1058  0.3870  0.5107
11807SOL    HW140232   1.952   2.216   3.279  0.1584  0.3841  0.5955
11807SOL    HW240233   1.868   2.336   3.243 -0.5465  0.3794  2.1538
11808SOL     OW40234   8.234   2.026   6.743 -0.1989 -0.1924  0.0086
11808SOL    HW140235   8.194   2.057   6.662 -1.3119 -1.0434  0.2152
11808SOL    HW240236   8.287   2.100   6.773 -1.8273  1.0916 -0.1433
11809SOL     OW40237   1.307   3.169   6.686 -0.4535 -0.2156  0.6159
11809SOL    HW140238   1.218   3.137   6.672  0.1439 -2.2803  1.1176
11809SOL    HW240239   1.296   3.257   6.721 -2.2564 -0.1301 -0.0556
11810SOL     OW40240   1.000   1.532   5.193 -0.4927 -0.3529 -0.1013
11810SOL    HW140241   0.944   1.545   5.116  0.8365 -0.8986 -1.2237
11810SOL    HW240242   1.067   1.470   5.163  1.3493  1.0945  0.8142
11811SOL     OW40243   5.527   9.908  12.449 -0.4544 -0.2924  0.4965
11811SOL    HW140244   5.506   9.967  12.522  0.1960  0.8449 -0.2128
11811SOL    HW240245   5.613   9.872  12.471 -0.0902  0.3389  0.1210
11812SOL     OW40246   7.915  10.120   6.340 -0.3547  0.0192  0.5324
11812SOL    HW140247   7.997  10.158   6.373 -0.6218  1.2828 -0.1971
11812SOL    HW240248   7.943  10.043   6.291  0.3440  0.0842  0.8119
11813SOL     OW40249   5.185   5.187   3.008 -0.3151 -0.2068  0.3185
11813SOL    HW140250   5.091   5.203   2.996 -0.3143 -1.1636 -1.3024
11813SOL    HW240251   5.189   5.101   3.050 -0.1721 -0.3382  0.0414
11814SOL     OW40252  11.142   1.681   8.808  0.5174 -0.1770  0.3175
11814SOL    HW140253  11.147   1.698   8.714 -1.4786 -0.1029  0.1940
11814SOL    HW240254  11.049   1.680   8.828  0.8748 -0.9487  2.1768
11815SOL     OW40255   5.853   1.407   0.338 -0.4439 -1.2551 -0.3549
11815SOL    HW140256   5.816   1.377   0.421  0.5519  2.5122  1.6806
11815SOL    HW240257   5.840   1.502   0.338  2.5026 -0.6551 -2.9740
11816SOL     OW40258  10.970  10.168  11.253 -0.0354  0.3282  0.5046
11816SOL    HW140259  11.011  10.083  11.269  0.6624  0.8710  1.7570
11816SOL    HW240260  10.889  10.166  11.304 -0.1065  0.3513  0.3933
11817SOL     OW40261  11.940   3.929   4.748 -0.1789 -0.1105 -0.2258
11817SOL    HW140262  12.000   3.999   4.725 -0.7702 -0.4235 -3.0249
11817SOL    HW240263  11.995   3.850   4.754 -0.2190 -0.4264 -2.9218
11818SOL     OW40264   5.211   9.464   8.620 -0.4172  0.2116  0.1610
11818SOL    HW140265   5.119   9.464   8.647 -0.3645 -0.1103  0.3495
11818SOL    HW240266   5.213   9.405   8.545 -0.0402 -1.3177  1.3244
11819SOL     OW40267   8.532   8.348   2.257 -0.2695  0.2707  0.1000
11819SOL    HW140268   8.475   8.277   2.287 -0.5799  1.3139  2.1741
11819SOL    HW240269   8.503   8.365   2.168 -1.3246 -1.0772  0.1417
11820SOL     OW40270  11.370  10.299   7.654 -0.2123  0.8014 -0.1140
11820SOL    HW140271  11.301  10.362   7.634 -0.6012  0.0816 -1.1881
11820SOL    HW240272  11.337  10.251   7.730 -1.7588 -0.6529 -1.5767
11821SOL     OW40273  11.467   7.777   2.151 -0.3422 -0.1287  0.1820
11821SOL    HW140274  11.474   7.737   2.064 -1.4239 -2.6413  1.1547
11821SOL    HW240275  11.373   7.796   2.161 -0.4118 -0.9212  1.1965
11822SOL     OW40276  11.797  12.243   8.559  0.3811  0.0378 -0.6095
11822SOL    HW140277  11.880  12.224   8.603 -0.1891  0.4582  0.7257
11822SOL    HW240278  11.748  12.295   8.623 -1.9925 -2.4249 -0.2228
11823SOL     OW40279  10.000  11.958   1.525  0.0354 -0.0588 -0.5393
11823SOL    HW140280  10.082  11.971   1.476  0.1872 -1.7795 -0.8115
11823SOL    HW240281  10.014  11.877   1.573 -1.3556 -0.1257 -0.2138
11824SOL     OW40282   7.094   3.786  11.354 -0.6885 -0.0437  0.2072
11824SOL    HW140283   7.049   3.702  11.358 -0.0491 -0.4239 -0.3050
11824SOL    HW240284   7.057   3.837  11.426 -1.2145 -0.6958  0.4094
11825SOL     OW40285  11.713   2.077  11.331  0.0884 -0.3397  0.4112
11825SOL    HW140286  11.789   2.055  11.384  0.4958 -0.6064 -0.2663
11825SOL    HW240287  11.712   2.011  11.262 -0.9405 -0.5209  0.5904
11826SOL     OW40288   4.986   3.784   0.833  0.5278 -0.1533 -0.3967
11826SOL    HW140289   5.006   3.777   0.739  2.8826  1.0182 -0.0685
11826SOL    HW240290   4.951   3.873   0.843 -0.7410 -0.6433 -0.2793
11827SOL     OW40291   5.925   1.211   2.647 -0.7543  0.3449 -0.4053
11827SOL    HW140292   5.922   1.142   2.580 -1.3331 -1.2628  1.2050
11827SOL    HW240293   5.844   1.260   2.635 -0.7846  0.1692 -0.9615
11828SOL     OW40294   1.365   1.016  10.599 -0.3884 -0.3902  0.3125
11828SOL    HW140295   1.297   1.078  10.574  0.1456 -0.3500 -1.1182
11828SOL    HW240296   1.319   0.933  10.610 -0.6320 -0.4339 -0.9555
11829SOL     OW40297   4.818   0.823   8.062 -0.0663 -0.7151 -0.5213
11829SOL    HW140298   4.727   0.805   8.038 -0.3828 -0.9190  0.7736
11829SOL    HW240299   4.837   0.760   8.132  1.1725 -0.8719 -0.9828
11830SOL     OW40300   9.099   3.641   7.719  0.3997 -0.2841 -0.2103
11830SOL    HW140301   9.052   3.585   7.780  0.3229  0.1753  0.1535
11830SOL    HW240302   9.035   3.663   7.652 -0.0119  0.6449  0.4835
11831SOL     OW40303   5.829  12.103   8.703  0.0306  0.3506  0.3506
11831SOL    HW140304   5.850  12.041   8.773  0.6024 -0.4205 -0.4732
11831SOL    HW240305   5.912  12.113   8.656 -0.6770 -0.2950 -1.0891
11832SOL     OW40306   7.576  10.737   9.247 -0.2428 -0.2274 -0.2277
11832SOL    HW140307   7.485  10.730   9.273  0.1975 -2.3183  0.9782
11832SOL    HW240308   7.624  10.754   9.328  0.4350  1.2740 -0.8987
11833SOL     OW40309   6.738   2.824   4.684  0.1149 -0.7824  0.0720
11833SOL    HW140310   6.692   2.819   4.768  1.8604 -1.1079  1.0596
11833SOL    HW240311   6.762   2.916   4.675  0.1576 -0.7946  0.0606
11834SOL     OW40312   0.947   8.323  11.736 -0.5027  0.4603 -0.6293
11834SOL    HW140313   0.885   8.255  11.761  1.5848 -1.4656 -0.3001
11834SOL    HW240314   0.949   8.383  11.810 -0.4506 -0.6045  0.2532
11835SOL     OW40315   9.534   5.009  11.144 -0.5141 -0.0201 -0.2530
11835SOL    HW140316   9.485   5.069  11.088 -0.8952 -0.1203 -0.0285
11835SOL    HW240317   9.626   5.028  11.124 -0.6188  0.8438  0.0160
11836SOL     OW40318  10.636  10.020   0.803  0.1720  0.7178 -0.6820
11836SOL    HW140319  10.597  10.102   0.835 -1.3865 -0.1810 -0.1578
11836SOL    HW240320  10.639  10.030   0.708 -4.0494 -0.1759 -1.0931
11837SOL     OW40321   8.723   8.105   2.479  0.3719  0.0445 -0.0668
11837SOL    HW140322   8.782   8.175   2.508  1.4600 -0.8918  0.0738
11837SOL    HW240323   8.635   8.143   2.486  0.9281  1.3777  0.0188
11838SOL     OW40324   0.562   5.118  11.673 -0.3504 -0.0347 -0.1943
11838SOL    HW140325   0.621   5.043  11.671 -0.3333 -0.0553  0.7438
11838SOL    HW240326   0.491   5.092  11.731  0.6828  1.3967  1.8264
11839SOL     OW40327  10.695   4.677   4.672 -0.2168 -0.8824 -0.8278
11839SOL    HW140328  10.632   4.659   4.742 -0.2791 -0.4710 -0.7759
11839SOL    HW240329  10.748   4.749   4.705  0.7361 -1.6631 -0.5822
11840SOL     OW40330  12.493  10.048   8.089  0.1510  0.5034 -0.4303
11840SOL    HW140331  12.452  10.134   8.080  1.9283  1.4922  0.5525
11840SOL    HW240332  12.556  10.044   8.017 -1.3846 -0.9297 -1.8066
11841SOL     OW40333   8.943   5.925   4.925  0.0547  0.2874  0.1485
11841SOL    HW140334   8.929   5.988   4.996 -0.4890 -0.0706  0.3745
11841SOL    HW240335   9.009   5.965   4.869 -0.5640  1.2367  0.0734
11842SOL     OW40336  10.749   8.977  11.318  0.5993 -0.6421  0.4039
11842SOL    HW140337  10.811   8.908  11.293  0.5360 -1.7262  2.8884
11842SOL    HW240338  10.803   9.044  11.359  0.2783 -1.0409  1.5020
11843SOL     OW40339  10.766  12.160   3.074 -0.4899  0.1916 -0.1593
11843SOL    HW140340  10.737  12.246   3.104 -0.6714  0.4481 -1.0234
11843SOL    HW240341  10.723  12.149   2.989 -1.5604 -1.3494  0.5341
11844SOL     OW40342  11.994   5.325  11.954 -0.4705  0.1030  0.1538
11844SOL    HW140343  11.968   5.360  11.869 -0.6739 -1.6791 -0.5785
11844SOL    HW240344  11.922   5.266  11.978  0.0713 -0.2056  1.0662
11845SOL     OW40345   4.184   7.969   7.950  0.1130  0.1282  0.4756
11845SOL    HW140346   4.185   7.900   8.017  1.9776  0.2472  0.6134
11845SOL    HW240347   4.167   7.922   7.868  1.1184 -0.4662  0.5999
11846SOL     OW40348   2.076   5.378   4.199 -0.2492  0.5017  0.2144
11846SOL    HW140349   2.111   5.322   4.129 -1.7628  0.8627 -0.8888
11846SOL    HW240350   2.118   5.346   4.279  0.2923 -1.0186 -0.6316
11847SOL     OW40351   6.156   8.378   0.499  0.2494  0.5296  0.6669
11847SOL    HW140352   6.225   8.369   0.564  0.8974 -1.0402 -0.2012
11847SOL    HW240353   6.152   8.294   0.455 -1.6273  0.8633  0.0814
11848SOL     OW40354  10.951   4.409   5.703  0.0813 -0.1223 -0.3467
11848SOL    HW140355  10.915   4.321   5.703 -1.9393  0.5980 -2.7655
11848SOL    HW240356  10.907   4.454   5.631  0.2367  3.2069  1.4081
11849SOL     OW40357   2.048   4.911   9.817  0.1727  0.5525  0.2751
11849SOL    HW140358   1.960   4.936   9.790 -0.8282 -0.1156  2.6433
11849SOL    HW240359   2.061   4.955   9.901  1.0116 -1.4440  1.2691
11850SOL     OW40360   4.570   5.462  11.449 -0.2006  0.3419 -0.1177
11850SOL    HW140361   4.608   5.491  11.532 -0.1559  0.4953 -0.1907
11850SOL    HW240362   4.605   5.374  11.436  0.9613  0.8669 -0.6915
11851SOL     OW40363   3.787   5.124  10.416 -0.3588 -0.0525 -0.6870
11851SOL    HW140364   3.802   5.218  10.421 -0.2986 -0.1067  0.6495
11851SOL    HW240365   3.729   5.113  10.341 -1.0412  1.1432 -0.3691
11852SOL     OW40366   4.135   4.916   9.523  0.2164  0.6902 -0.0600
11852SOL    HW140367   4.157   4.950   9.610  0.5862  1.2100 -0.3538
11852SOL    HW240368   4.145   4.990   9.464 -0.8635  0.5483 -0.4350
11853SOL     OW40369  11.657  11.952   3.857 -0.2914 -0.5636  0.5862
11853SOL    HW140370  11.568  11.983   3.874 -0.9087 -1.4180 -0.9114
11853SOL    HW240371  11.647  11.883   3.792  1.3732 -1.4543  1.1887
11854SOL     OW40372   4.021   0.188   1.550  0.0929 -0.0952  0.5459
11854SOL    HW140373   4.077   0.200   1.627  1.2729  2.0448 -0.5455
11854SOL    HW240374   4.080   0.200   1.475 -1.5824  1.1085 -0.6693
11855SOL     OW40375  12.602   5.470  10.979  0.0874 -0.1636 -0.0803
11855SOL    HW140376  12.662   5.412  10.932  0.0919  1.1943 -1.8622
11855SOL    HW240377  12.591   5.546  10.921 -1.4362  0.7419  1.2910
11856SOL     OW40378   8.479   8.839   2.680 -0.2720  0.5819 -0.1112
11856SOL    HW140379   8.484   8.838   2.585 -1.0640  0.2683 -0.1563
11856SOL    HW240380   8.479   8.932   2.703 -2.4173  0.7331 -0.5729
11857SOL     OW40381   1.345   5.678   9.889 -0.1809 -0.2330 -0.0072
11857SOL    HW140382   1.279   5.659   9.823 -0.4910  0.0796  0.2024
11857SOL    HW240383   1.402   5.601   9.891 -0.2571 -0.3032 -0.5294
11858SOL     OW40384   8.154   9.932   4.296  0.0719  0.4169  0.5601
11858SOL    HW140385   8.118   9.871   4.361 -0.6666  2.7455  2.5329
11858SOL    HW240386   8.079   9.958   4.243  0.3440 -0.2059 -0.1464
11859SOL     OW40387   3.752   4.447   9.089  0.0869 -0.3362 -0.1428
11859SOL    HW140388   3.798   4.427   9.008  0.0383  0.1445 -0.2873
11859SOL    HW240389   3.765   4.540   9.103 -1.1431 -0.1139 -0.3805
11860SOL     OW40390  11.561   3.489  11.988  0.2458 -0.2862 -0.1649
11860SOL    HW140391  11.615   3.520  12.061 -1.2434  0.9392  0.4684
11860SOL    HW240392  11.489   3.442  12.029  1.1228 -2.5350 -1.0276
11861SOL     OW40393   8.213   7.860   3.202  0.6572 -0.5389 -0.5356
11861SOL    HW140394   8.199   7.853   3.296  0.2868  1.2929 -0.4229
11861SOL    HW240395   8.186   7.775   3.168 -0.2451 -0.8664  0.8989
11862SOL     OW40396   7.619   1.595   2.419 -0.2915  0.1343  0.0456
11862SOL    HW140397   7.657   1.517   2.379 -0.0174  0.6405 -0.7077
11862SOL    HW240398   7.550   1.622   2.358 -5.0587 -3.1846  3.2735
11863SOL     OW40399   2.741   2.849   1.922  0.1040  0.1959 -0.0567
11863SOL    HW140400   2.718   2.922   1.980 -1.0123 -0.1264 -0.0741
11863SOL    HW240401   2.770   2.779   1.982  0.9673  0.5617 -0.0290
11864SOL     OW40402   7.180   9.974   8.365  0.1702  0.4214  0.2732
11864SOL    HW140403   7.223  10.014   8.290 -1.8555  1.2867 -0.4915
11864SOL    HW240404   7.087   9.975   8.343 -0.2407 -2.1029  1.4760
11865SOL     OW40405   1.859   0.621   6.861 -0.5256 -0.6267 -0.1123
11865SOL    HW140406   1.848   0.612   6.767 -2.5668 -2.2651  0.1997
11865SOL    HW240407   1.840   0.713   6.879  1.8446  0.1949 -1.4482
11866SOL     OW40408   7.244   0.678   7.688 -0.2894  0.5189 -0.2896
11866SOL    HW140409   7.189   0.633   7.752  0.2025 -0.6688 -0.6878
11866SOL    HW240410   7.316   0.618   7.671  0.9618  1.8926 -0.0633
11867SOL     OW40411   9.355   1.603   5.420  0.5894 -0.3599  0.5648
11867SOL    HW140412   9.275   1.557   5.447  0.0955  0.0585 -0.1607
11867SOL    HW240413   9.399   1.542   5.361  1.6617 -1.2687  2.2072
11868SOL     OW40414   1.969   6.801   2.852  0.6908  0.7207 -0.1279
11868SOL    HW140415   1.958   6.706   2.848  0.9152  0.7380 -1.1910
11868SOL    HW240416   2.002   6.826   2.766 -0.7881  1.9535 -0.3761
11869SOL     OW40417  10.059   2.476  11.252 -0.4157 -0.4864 -0.1200
11869SOL    HW140418  10.022   2.512  11.332 -0.6116 -0.7395 -0.0948
11869SOL    HW240419  10.063   2.381  11.267 -1.0873 -0.6110 -0.6628
11870SOL     OW40420  12.533   8.131   7.333 -0.7048  0.3805  0.7136
11870SOL    HW140421  12.597   8.138   7.405 -0.5934  0.1796  0.6346
11870SOL    HW240422  12.517   8.037   7.325 -0.3978  0.3712  0.1925
11871SOL     OW40423   4.521   2.013   9.995 -1.2301  0.0524  0.0817
11871SOL    HW140424   4.548   2.099   9.962  1.1597 -0.2698  0.9888
11871SOL    HW240425   4.439   2.029  10.042 -0.6203  1.9183  0.5868
11872SOL     OW40426   0.289   7.799   0.071  0.0823 -0.0042  0.0970
11872SOL    HW140427   0.287   7.883   0.118 -1.7767  0.8031 -1.2888
11872SOL    HW240428   0.196   7.776   0.059  0.5427 -2.4549  0.7246
11873SOL     OW40429  11.505   8.736   8.255  0.0728  0.0888 -0.0206
11873SOL    HW140430  11.543   8.718   8.341  1.7094 -1.3183 -0.9677
11873SOL    HW240431  11.552   8.677   8.196 -0.7175  1.3175 -1.9511
11874SOL     OW40432   8.023   2.516  10.398 -0.2364  0.3003 -0.1777
11874SOL    HW140433   7.944   2.568  10.405 -0.4596  0.0955 -1.1097
11874SOL    HW240434   8.092   2.573  10.432 -0.7324  0.5597  0.4297
11875SOL     OW40435   4.981   9.522   0.418  0.0690  0.2032  0.0068
11875SOL    HW140436   4.892   9.487   0.413 -0.1752  0.9279 -0.9841
11875SOL    HW240437   5.017   9.508   0.330  0.6942  0.5407  0.2003
11876SOL     OW40438  12.262   6.160   6.268 -0.0794  0.0832  0.0456
11876SOL    HW140439  12.217   6.216   6.205  0.8141 -0.0077 -0.6874
11876SOL    HW240440  12.209   6.081   6.273 -0.0811  0.0288 -0.7162
11877SOL     OW40441   1.056   5.960   1.971  0.6325  0.2154  0.1486
11877SOL    HW140442   0.965   5.972   1.941  0.2757  1.9283  1.7180
11877SOL    HW240443   1.050   5.965   2.066  2.0220 -2.7162  0.4845
11878SOL     OW40444   8.431   0.119   8.015  0.0565  0.2753  0.2864
11878SOL    HW140445   8.482   0.052   7.970  0.8618  1.9091 -1.3990
11878SOL    HW240446   8.385   0.165   7.944  0.5485  2.2849  1.2155
11879SOL     OW40447  10.534   3.070   9.234 -0.1923 -0.3457  0.2665
11879SOL    HW140448  10.462   3.017   9.199  1.9647 -2.2508 -1.5817
11879SOL    HW240449  10.567   3.019   9.308  0.3091 -0.3398  0.0508
11880SOL     OW40450   7.487   4.667   4.204  0.2582  0.0147  0.3271
11880SOL    HW140451   7.522   4.604   4.141 -0.8432  0.0133 -0.2948
11880SOL    HW240452   7.534   4.648   4.285  0.5428 -1.0371 -0.0745
11881SOL     OW40453   0.116   1.334   0.184  0.0796 -0.3556  0.3037
11881SOL    HW140454   0.127   1.318   0.278  1.8758 -0.1448  0.1533
11881SOL    HW240455   0.043   1.396   0.180 -0.0128 -0.3402  1.5668
11882SOL     OW40456  10.778   6.128   9.163 -0.2334 -0.7580 -0.2329
11882SOL    HW140457  10.718   6.095   9.095 -0.2276 -1.8000  0.2423
11882SOL    HW240458  10.810   6.049   9.207  0.4082 -0.1399  0.4407
11883SOL     OW40459   0.140  10.505   1.165 -0.1579  0.4723 -0.3895
11883SOL    HW140460   0.078  10.437   1.138  0.7984  0.1005 -1.7437
11883SOL    HW240461   0.119  10.580   1.109 -1.6801  1.5930  1.5849
11884SOL     OW40462   0.615   6.330  11.290 -0.8323  0.3262 -0.5128
11884SOL    HW140463   0.520   6.321  11.295 -1.0240  0.9164 -2.3139
11884SOL    HW240464   0.635   6.407  11.343 -1.2784 -0.1082  0.3049
11885SOL     OW40465   6.315   7.284  11.473 -0.9383 -0.2033 -0.2736
11885SOL    HW140466   6.237   7.272  11.420 -1.3856 -0.3887  0.4111
11885SOL    HW240467   6.309   7.217  11.541 -0.8160  0.5712  0.5209
11886SOL     OW40468  11.892   5.658   5.647  0.3895 -0.5070 -0.3882
11886SOL    HW140469  11.838   5.596   5.598 -2.0353  1.0198  0.1563
11886SOL    HW240470  11.957   5.688   5.584  2.1209 -3.9741 -0.4933
11887SOL     OW40471   5.853  10.343   2.121  0.1285  0.0243 -0.3339
11887SOL    HW140472   5.844  10.259   2.075 -2.6734 -0.9913  1.7994
11887SOL    HW240473   5.908  10.323   2.196 -1.2089 -0.1744  0.6252
11888SOL     OW40474  10.971   3.247   2.866 -0.0834  0.4221 -0.2298
11888SOL    HW140475  11.045   3.195   2.896 -0.4209 -1.5539 -2.5087
11888SOL    HW240476  10.975   3.328   2.918  1.8218 -0.8924  1.8430
11889SOL     OW40477   9.344  12.369   1.146  0.2938  0.2065  0.1824
11889SOL    HW140478   9.289  12.304   1.189 -0.4278  0.5769 -0.1697
11889SOL    HW240479   9.334  12.448   1.199 -1.7732  1.1170 -1.4028
11890SOL     OW40480   8.349   7.356  10.174 -0.0913  0.6624  0.7541
11890SOL    HW140481   8.367   7.276  10.125  0.3871  1.0447  0.2913
11890SOL    HW240482   8.256   7.351  10.195  0.3587 -1.0353  2.5917
11891SOL     OW40483   2.859  11.345   8.823 -0.2030  0.0976 -0.5173
11891SOL    HW140484   2.883  11.432   8.856  1.5628  0.2490 -2.0739
11891SOL    HW240485   2.909  11.284   8.878  0.6336  0.2141 -1.1379
11892SOL     OW40486   3.985   0.676  11.118 -0.1170 -0.9222  0.2936
11892SOL    HW140487   4.021   0.588  11.106 -0.5241 -0.9490 -0.8330
11892SOL    HW240488   3.960   0.679  11.211 -0.1566 -2.0172  0.3326
11893SOL     OW40489  12.256   1.558  10.363  0.6861 -0.1566 -0.4108
11893SOL    HW140490  12.347   1.581  10.346  1.3854 -2.7367 -0.6365
11893SOL    HW240491  12.215   1.554  10.277  0.6059  0.1039 -0.3842
11894SOL     OW40492   4.628  10.390   6.526  0.1642  0.4053  0.2175
11894SOL    HW140493   4.695  10.359   6.587  0.9583  1.0405 -0.3125
11894SOL    HW240494   4.584  10.461   6.574  0.2843  0.4031  0.3337
11895SOL     OW40495   3.536   4.892  12.548  0.1112 -0.0961 -0.1031
11895SOL    HW140496   3.615   4.943  12.534  0.7576 -0.7684  0.9122
11895SOL    HW240497   3.526   4.840  12.469  1.1502 -0.5928  0.0759
11896SOL     OW40498   2.855   3.614  10.483  0.0855 -0.6733  0.0706
11896SOL    HW140499   2.808   3.681  10.433  1.6499  1.1683  0.9145
11896SOL    HW240500   2.938   3.604  10.436  0.6156 -0.6519  0.9996
11897SOL     OW40501   5.073   8.717   7.064 -0.1550  0.1091 -0.1192
11897SOL    HW140502   5.048   8.796   7.016 -0.5326 -0.3869 -0.7592
11897SOL    HW240503   5.110   8.659   6.998  0.2171 -0.2100  0.3619
11898SOL     OW40504   3.557   6.147  11.952 -0.5845  0.1963  0.2796
11898SOL    HW140505   3.550   6.101  12.036 -1.7090  3.3741  2.1114
11898SOL    HW240506   3.562   6.239  11.976  1.8381  1.1388 -3.1239
11899SOL     OW40507   1.050   8.220   4.152 -0.3145  0.0552 -0.6227
11899SOL    HW140508   1.098   8.301   4.167  0.3830 -0.2305 -1.2238
11899SOL    HW240509   1.112   8.164   4.106  0.6401 -2.3237  3.1126
11900SOL     OW40510   6.396   4.326   7.002 -1.4844 -0.3705  0.5356
11900SOL    HW140511   6.353   4.241   6.989 -0.6690 -0.7759  0.4255
11900SOL    HW240512   6.479   4.305   7.045  0.1581  0.0143 -2.1910
11901SOL     OW40513  10.633   4.644   2.514  0.6698  0.3226 -0.1864
11901SOL    HW140514  10.645   4.735   2.540  0.7763  1.0040 -2.4429
11901SOL    HW240515  10.695   4.631   2.443 -0.3507 -1.0835 -0.8654
11902SOL     OW40516  11.490   8.187   8.545  0.0276 -0.5032  0.2071
11902SOL    HW140517  11.472   8.137   8.465 -0.4346  0.4362 -0.2986
11902SOL    HW240518  11.548   8.131   8.596  0.2460 -1.1703 -0.7404
11903SOL     OW40519  11.281   0.897   4.196 -0.2411 -0.1533 -0.1343
11903SOL    HW140520  11.271   0.912   4.290 -0.6301  0.4790 -0.2712
11903SOL    HW240521  11.353   0.835   4.189 -1.0190 -1.1789  0.6509
11904SOL     OW40522   4.728   9.802   9.723 -0.6045 -0.3040  0.3830
11904SOL    HW140523   4.743   9.711   9.700  0.5089 -0.2805  0.9491
11904SOL    HW240524   4.690   9.841   9.645 -0.4441 -1.0907 -0.0951
11905SOL     OW40525   0.522   4.795   8.744  0.0860 -0.3892  0.1285
11905SOL    HW140526   0.594   4.858   8.747 -0.5682  0.3759 -0.0422
11905SOL    HW240527   0.497   4.792   8.652 -1.4746  0.9471  0.4733
11906SOL     OW40528   1.967   0.159   1.013  0.2686 -0.4814  0.1510
11906SOL    HW140529   1.969   0.228   1.079  1.2599  0.8505 -1.2129
11906SOL    HW240530   2.047   0.172   0.961 -0.9435 -0.8403 -1.9331
11907SOL     OW40531   3.159  12.441   6.911 -0.2865 -0.2440  0.0845
11907SOL    HW140532   3.220  12.475   6.845 -0.2016 -1.3845 -0.4516
11907SOL    HW240533   3.191  12.353   6.930 -1.5820 -0.7490  0.0151
11908SOL     OW40534   4.772   9.826   7.132 -0.0575 -0.3979  0.2288
11908SOL    HW140535   4.763   9.898   7.069  0.3051 -1.0103 -0.5467
11908SOL    HW240536   4.682   9.796   7.148 -0.1695 -0.0881  0.1828
11909SOL     OW40537   1.355   1.313   5.801 -0.2060 -0.4140  0.3965
11909SOL    HW140538   1.263   1.334   5.818  0.1717  0.0437  2.0000
11909SOL    HW240539   1.404   1.366   5.863  1.1372 -0.9395 -0.1768
11910SOL     OW40540   0.057   7.176   7.368 -0.2755 -0.2033 -0.6762
11910SOL    HW140541  -0.028   7.168   7.413 -0.3296 -0.7405 -0.8762
11910SOL    HW240542   0.119   7.192   7.439 -0.6155  0.7686 -0.5725
11911SOL     OW40543  11.590   4.131   8.404  0.1047  0.1976 -0.0526
11911SOL    HW140544  11.588   4.222   8.434  0.7284  0.5834 -1.1470
11911SOL    HW240545  11.537   4.084   8.469  1.0760  1.0592  1.4351
11912SOL     OW40546  10.374  10.580   2.108  0.0131  0.1717  0.3256
11912SOL    HW140547  10.397  10.604   2.198  0.7576  0.4774  0.0636
11912SOL    HW240548  10.386  10.661   2.058 -0.0016 -0.0959 -0.1192
11913SOL     OW40549  10.250   0.103   8.821  0.3136 -0.4209  0.2258
11913SOL    HW140550  10.238   0.011   8.844 -2.6169 -0.1237  0.2071
11913SOL    HW240551  10.240   0.105   8.726 -1.3294  0.0802  0.3806
11914SOL     OW40552   3.029   5.041   9.958 -0.7607 -0.8094  0.3911
11914SOL    HW140553   3.050   4.948   9.946  1.5106 -0.5524  1.6543
11914SOL    HW240554   3.055   5.082   9.875  0.0109 -1.0818  0.4822
11915SOL     OW40555   5.434  10.928   0.411 -0.1183 -0.4327 -0.3292
11915SOL    HW140556   5.467  11.018   0.407  1.4114 -0.9915 -0.5976
11915SOL    HW240557   5.338  10.938   0.410  0.0285  1.1747 -0.5992
11916SOL     OW40558   3.440   4.671   2.219  0.1751 -0.8446 -0.0982
11916SOL    HW140559   3.347   4.680   2.242  0.3222 -0.9663  0.5492
11916SOL    HW240560   3.484   4.654   2.302  0.8758 -0.0594 -0.3005
11917SOL     OW40561   5.535   2.243   3.847 -0.2190 -0.1902 -0.5847
11917SOL    HW140562   5.610   2.289   3.884 -0.4371  0.8453 -1.3922
11917SOL    HW240563   5.473   2.313   3.823 -2.4401 -1.0421  2.0961
11918SOL     OW40564   6.883   0.675   6.784  0.3304 -0.0768  0.3704
11918SOL    HW140565   6.818   0.644   6.847  0.4222  0.7329  0.8774
11918SOL    HW240566   6.942   0.601   6.772 -0.3899 -0.6545  0.2831
11919SOL     OW40567  11.237   7.946   2.176 -0.0986  0.3146 -0.1848
11919SOL    HW140568  11.156   7.930   2.127  0.3009 -0.5855 -0.5851
11919SOL    HW240569  11.274   8.025   2.138 -0.9439  0.9114  0.2117
11920SOL     OW40570  12.164   5.874   7.154  0.4360  0.7099 -0.4678
11920SOL    HW140571  12.137   5.853   7.065  0.2623 -0.3260 -0.1832
11920SOL    HW240572  12.086   5.856   7.207  0.4179  1.6670 -0.1359
11921SOL     OW40573   8.162   4.483  11.757  0.7544 -0.4283  0.0476
11921SOL    HW140574   8.244   4.512  11.795  0.0820  1.9935 -0.2120
11921SOL    HW240575   8.166   4.512  11.666 -0.3643 -0.3076  0.0231
11922SOL     OW40576   7.661   0.901   5.679  0.7104  0.8556  0.5955
11922SOL    HW140577   7.659   0.937   5.768  0.9988  0.4421  0.7697
11922SOL    HW240578   7.675   0.807   5.691 -1.3792  0.4378  0.2033
11923SOL     OW40579   1.459  12.312   0.836  0.1806 -0.1818  0.2377
11923SOL    HW140580   1.392  12.245   0.822  0.3563 -0.2905 -0.0799
11923SOL    HW240581   1.515  12.275   0.904  1.0745 -0.9583 -0.8967
11924SOL     OW40582   9.135   0.618   0.058 -0.3043 -0.0963 -0.3694
11924SOL    HW140583   9.153   0.701   0.014 -0.5037 -0.1407 -0.5411
11924SOL    HW240584   9.084   0.642   0.135 -1.0690 -0.1199 -0.8493
11925SOL     OW40585  10.421   7.593   4.040  0.6334 -0.6676 -0.6185
11925SOL    HW140586  10.354   7.603   3.972 -0.3845 -2.0569  0.1427
11925SOL    HW240587  10.373   7.600   4.122  1.4486 -1.4708 -0.0598
11926SOL     OW40588   4.873  10.394   7.476  0.4065 -0.0756  0.0754
11926SOL    HW140589   4.778  10.392   7.462  0.3026  0.0556  0.7480
11926SOL    HW240590   4.886  10.459   7.545  0.8804 -0.9293  0.8021
11927SOL     OW40591   6.811   8.932   0.887 -0.7004  0.4994  0.2005
11927SOL    HW140592   6.846   9.012   0.847 -1.8632  0.7281 -0.4060
11927SOL    HW240593   6.720   8.954   0.911 -0.7268 -0.3304  0.9541
11928SOL     OW40594   2.681   4.483   0.440  0.4508  0.3726  0.3152
11928SOL    HW140595   2.763   4.495   0.392  1.3454  0.0780  1.7208
11928SOL    HW240596   2.694   4.404   0.492 -0.4294  0.7603  1.1679
11929SOL     OW40597   2.187   1.983   2.437 -0.0847  0.2242 -0.3639
11929SOL    HW140598   2.121   1.914   2.433  0.0837  0.0801 -0.6956
11929SOL    HW240599   2.146   2.058   2.394 -0.1231  0.2107 -0.3509
11930SOL     OW40600   2.269   5.043  11.621 -0.6797 -0.0532 -0.8038
11930SOL    HW140601   2.345   5.100  11.626 -1.6019  1.1609 -0.1426
11930SOL    HW240602   2.299   4.966  11.572  1.0336  0.2645 -0.2874
11931SOL     OW40603   0.921   2.384   5.956 -0.4034 -0.3016 -0.4777
11931SOL    HW140604   0.877   2.323   5.896  0.3423 -1.6784  0.3187
11931SOL    HW240605   0.981   2.433   5.899 -0.1125 -1.1887 -0.9611
11932SOL     OW40606   6.207   5.508   0.887  0.1964 -0.0787  0.0973
11932SOL    HW140607   6.152   5.467   0.955 -0.6941  1.9431  0.6585
11932SOL    HW240608   6.297   5.493   0.917 -0.1715  0.4704  1.5697
11933SOL     OW40609   3.444   8.037   6.820  0.3977  0.1380 -0.1344
11933SOL    HW140610   3.482   7.949   6.822  2.8746  1.1036 -0.9806
11933SOL    HW240611   3.483   8.081   6.895 -1.1450  0.4301  0.5242
11934SOL     OW40612   8.910   6.007   6.593 -0.0393  0.0820 -1.1115
11934SOL    HW140613   8.859   5.948   6.538 -0.1579  0.4396 -1.3922
11934SOL    HW240614   8.851   6.030   6.665  0.2701 -0.7458 -0.5723
11935SOL     OW40615   3.876   9.817  11.616 -0.2301 -0.3457  0.2063
11935SOL    HW140616   3.953   9.860  11.653  0.3667 -2.4703  1.6481
11935SOL    HW240617   3.907   9.728  11.594 -2.1866 -1.1783  0.6371
11936SOL     OW40618   0.432   4.311   3.386  0.0618  0.3918 -0.1252
11936SOL    HW140619   0.496   4.277   3.324 -1.3045 -1.1083 -0.7847
11936SOL    HW240620   0.379   4.235   3.410 -0.9194  1.4118  1.0866
11937SOL     OW40621   1.580   9.636   2.862 -0.5675  0.0458  0.2860
11937SOL    HW140622   1.668   9.615   2.893 -0.9258  0.2146  1.4956
11937SOL    HW240623   1.544   9.694   2.930 -1.5096  0.2114 -0.3286
11938SOL     OW40624  10.994  10.363   8.538  0.6597  0.0293  0.2660
11938SOL    HW140625  11.063  10.360   8.472 -0.3678  1.3978 -0.9388
11938SOL    HW240626  11.039  10.389   8.619  1.8588 -1.2036  0.0341
11939SOL     OW40627   6.235   5.702   5.032  0.1751  0.0545  0.2637
11939SOL    HW140628   6.278   5.784   5.007  1.0343 -0.5291 -0.2414
11939SOL    HW240629   6.307   5.639   5.042 -0.5594 -1.0114 -0.7953
11940SOL     OW40630   4.370   5.369   9.664 -0.2936  0.1050 -0.1398
11940SOL    HW140631   4.340   5.376   9.573 -3.7773 -0.6927  0.7707
11940SOL    HW240632   4.336   5.447   9.706 -0.4366 -0.4789  0.8569
11941SOL     OW40633   6.432   8.871   7.677  0.0958 -0.2377  0.2488
11941SOL    HW140634   6.422   8.863   7.582  0.5598  0.5616  0.1278
11941SOL    HW240635   6.395   8.957   7.698  0.7441 -0.0628  0.6837
11942SOL     OW40636   0.774   6.194   0.947  0.0297  0.2127  0.1166
11942SOL    HW140637   0.741   6.208   1.036  2.3981 -0.9042  1.2495
11942SOL    HW240638   0.852   6.249   0.941  0.4098 -0.4093 -0.9509
11943SOL     OW40639   5.140   1.073   6.452  0.0154 -0.3294 -0.4241
11943SOL    HW140640   5.142   0.977   6.453  0.7040 -0.3839  2.5638
11943SOL    HW240641   5.142   1.098   6.544  1.6111  2.6215 -1.1319
11944SOL     OW40642  12.535   3.869  10.053  0.1218  0.3489 -0.0254
11944SOL    HW140643  12.505   3.811   9.983  0.5722  0.5346 -0.3786
11944SOL    HW240644  12.609   3.823  10.092 -0.9286 -0.3674  1.2106
11945SOL     OW40645   6.836   7.716  11.220  0.4084  0.3267  0.0580
11945SOL    HW140646   6.795   7.791  11.263  0.1455 -0.7605  1.8224
11945SOL    HW240647   6.794   7.639  11.260  2.0067 -0.7813 -0.2691
11946SOL     OW40648   9.987   8.402   2.679  0.5754 -0.2352 -0.5490
11946SOL    HW140649  10.027   8.416   2.764  1.8659  1.3590 -1.3723
11946SOL    HW240650   9.997   8.308   2.663 -0.7953 -0.7927  1.5376
11947SOL     OW40651   7.036   7.702  12.077 -0.8283 -0.0603  0.3850
11947SOL    HW140652   7.030   7.781  12.131 -0.2351 -0.4737  1.0717
11947SOL    HW240653   6.985   7.637  12.124  0.3450 -0.6487  0.8858
11948SOL     OW40654  12.499   0.311   8.073  0.0803  0.1148  0.3991
11948SOL    HW140655  12.433   0.254   8.034  1.3711 -0.7529 -0.5871
11948SOL    HW240656  12.485   0.301   8.168 -1.3007  0.0950  0.2133
11949SOL     OW40657  10.463   9.340   9.213  0.4808 -0.0515  0.0475
11949SOL    HW140658  10.499   9.390   9.139 -0.0643 -0.2056 -0.3238
11949SOL    HW240659  10.531   9.345   9.280  1.2756 -0.4637 -0.6998
11950SOL     OW40660  10.778   3.501   6.355 -0.9737  0.7907  0.1021
11950SOL    HW140661  10.817   3.437   6.294 -2.5809  0.7862 -0.9718
11950SOL    HW240662  10.804   3.586   6.320 -2.3304  0.8039 -0.9467
11951SOL     OW40663  11.949  12.036   6.664 -0.2831  0.2363  0.3939
11951SOL    HW140664  11.871  11.991   6.698 -0.5689  0.1872 -0.3015
11951SOL    HW240665  12.018  11.970   6.669 -0.5067 -0.0209  0.1589
11952SOL     OW40666  11.920   0.443  12.118 -0.8728 -0.0455  0.0395
11952SOL    HW140667  11.826   0.458  12.125 -1.3975 -2.0512 -1.5941
11952SOL    HW240668  11.928   0.371  12.056  1.7666  0.1062  0.0822
11953SOL     OW40669   0.130   6.229   2.363 -0.5988  0.6056  0.1950
11953SOL    HW140670   0.176   6.312   2.350 -1.0294  1.0114  1.1483
11953SOL    HW240671   0.088   6.211   2.279  1.8559 -0.1527 -0.9344
11954SOL     OW40672   2.857   2.970   1.497  0.2102 -0.3873  0.3470
11954SOL    HW140673   2.770   2.983   1.459  0.1229 -0.4435  0.5259
11954SOL    HW240674   2.908   3.045   1.467 -0.2978  0.4091  1.4010
11955SOL     OW40675   2.661   4.637   1.788  0.7137  0.2307  0.0708
11955SOL    HW140676   2.710   4.716   1.764  1.3201  0.7469  2.7295
11955SOL    HW240677   2.589   4.669   1.841  1.0289 -0.9927  1.2827
11956SOL     OW40678   8.471   7.468   2.110 -0.4116  0.1139  0.5241
11956SOL    HW140679   8.481   7.484   2.016 -1.4161  0.7681  0.5133
11956SOL    HW240680   8.405   7.399   2.116 -1.8947  1.5100  0.7852
11957SOL     OW40681  11.645   5.058   4.474 -0.1877  0.1245  0.1051
11957SOL    HW140682  11.565   5.078   4.523  0.5872  1.5352  0.8567
11957SOL    HW240683  11.698   5.008   4.536 -0.2387 -0.2963 -0.1883
11958SOL     OW40684  12.357   0.443   7.526 -0.3028  0.0690  0.5231
11958SOL    HW140685  12.278   0.455   7.580 -0.3434  0.7261  0.3331
11958SOL    HW240686  12.329   0.387   7.454 -0.2786 -0.7143  1.1169
11959SOL     OW40687  12.458   4.966   6.705  0.7380 -1.0163  0.6405
11959SOL    HW140688  12.542   4.979   6.749  1.1083 -1.7564  0.1759
11959SOL    HW240689  12.397   5.023   6.752  1.2350 -1.3681  1.7511
11960SOL     OW40690   4.677   3.553   7.879 -0.4642 -0.3971 -0.5750
11960SOL    HW140691   4.620   3.499   7.824 -1.1792 -0.0585 -0.1831
11960SOL    HW240692   4.623   3.629   7.900 -0.3016 -0.6583  0.8282
11961SOL     OW40693   5.081   3.446   2.509 -0.0225 -0.0427 -0.1811
11961SOL    HW140694   5.081   3.532   2.468 -1.0172 -0.5546 -1.3355
11961SOL    HW240695   5.155   3.400   2.470 -0.0776 -0.0278 -0.3053
11962SOL     OW40696   2.016   7.457   8.785 -0.1578  0.1736  0.1634
11962SOL    HW140697   2.053   7.544   8.802 -0.9294  0.5616 -0.0989
11962SOL    HW240698   1.970   7.434   8.865 -0.5639  0.3265 -0.0245
11963SOL     OW40699  10.991   0.085   1.930 -0.2248 -0.1028  0.1882
11963SOL    HW140700  11.007   0.093   1.836 -0.6565  0.8201  0.1772
11963SOL    HW240701  10.912   0.031   1.937  0.2148 -0.7747  0.0603
11964SOL     OW40702   8.417   1.514   3.213 -0.6365 -0.6515  0.1529
11964SOL    HW140703   8.431   1.496   3.120  0.1949  0.8415 -0.0476
11964SOL    HW240704   8.493   1.567   3.238 -1.9604  0.8664  1.1060
11965SOL     OW40705  12.021  11.165   0.710 -0.2651  0.7327 -0.0638
11965SOL    HW140706  12.048  11.184   0.799 -1.1473  2.7219 -0.1696
11965SOL    HW240707  12.099  11.130   0.668  0.9519  2.3173  0.7829
11966SOL     OW40708   0.849   6.812   3.217 -0.0926  0.0873  0.5177
11966SOL    HW140709   0.759   6.834   3.243  0.2068  1.3465  0.5405
11966SOL    HW240710   0.858   6.847   3.129  0.9446  1.6229  1.2026
11967SOL     OW40711   2.067   9.337   7.904  0.1289 -0.6936 -0.4973
11967SOL    HW140712   2.157   9.314   7.926  0.7873 -0.2070 -2.4906
11967SOL    HW240713   2.075   9.419   7.855 -1.3807 -0.7363 -0.8473
11968SOL     OW40714  10.180   3.432   6.933 -0.4301  0.3384  0.1366
11968SOL    HW140715  10.113   3.491   6.966 -0.3071  0.5063  0.0935
11968SOL    HW240716  10.144   3.398   6.851 -1.2908 -1.0997  1.0809
11969SOL     OW40717   6.954   9.787   3.109 -0.2412 -0.4975  0.2430
11969SOL    HW140718   6.876   9.833   3.078  0.7787  1.3467  0.2617
11969SOL    HW240719   6.939   9.774   3.203  0.4143  2.0101  0.7673
11970SOL     OW40720  11.947   5.230   9.649  0.2425  0.1228  0.1659
11970SOL    HW140721  11.975   5.158   9.592 -1.0980 -0.7094  0.5067
11970SOL    HW240722  11.949   5.307   9.593  0.5466 -0.3866 -0.5467
11971SOL     OW40723   1.585  10.565   7.764  0.1597 -0.7698  0.7467
11971SOL    HW140724   1.541  10.543   7.682 -1.0037 -1.0887  1.4258
11971SOL    HW240725   1.634  10.486   7.787  0.0124 -0.8852  0.6640
11972SOL     OW40726  10.100   2.006   3.210  0.6810  0.1293  0.1471
11972SOL    HW140727  10.029   2.005   3.146  0.8198  0.0783 -0.0059
11972SOL    HW240728  10.056   2.008   3.295  0.4409  3.0334  0.0567
11973SOL     OW40729  11.642   4.348   9.475  0.7734  0.2269 -0.2608
11973SOL    HW140730  11.650   4.286   9.548 -1.9288  0.9093  0.7160
11973SOL    HW240731  11.725   4.396   9.477  1.7288 -1.3445  0.8420
11974SOL     OW40732   1.107  12.272   2.142  0.0487 -0.0569 -0.2184
11974SOL    HW140733   1.038  12.305   2.085  0.2991 -0.3507 -0.6996
11974SOL    HW240734   1.159  12.215   2.086  0.8137  0.3322  0.0757
11975SOL     OW40735   8.991   0.224   3.760  0.1306  0.2700  0.2675
11975SOL    HW140736   8.965   0.185   3.844  0.9472  0.2516  0.5174
11975SOL    HW240737   8.908   0.245   3.717 -0.3050 -0.3250  0.7948
11976SOL     OW40738   0.512  11.126   2.644  0.0311  0.3303 -0.6482
11976SOL    HW140739   0.559  11.209   2.655  0.8871 -0.3727  1.3947
11976SOL    HW240740   0.440  11.147   2.584 -0.9229  3.0498  1.2495
11977SOL     OW40741  11.226  11.059   5.167  0.0914 -0.2366 -0.7416
11977SOL    HW140742  11.234  11.139   5.115 -0.8337 -0.9542 -2.0380
11977SOL    HW240743  11.197  11.089   5.253  4.0870  1.2504  0.3464
11978SOL     OW40744   4.006   9.849  12.373  0.4248  0.7685  0.1954
11978SOL    HW140745   3.972   9.816  12.456  0.2476  0.8074  0.1389
11978SOL    HW240746   4.099   9.828  12.375  0.9759  3.0252  1.5022
11979SOL     OW40747   6.316   2.184   3.250 -0.0134  0.0008  0.1975
11979SOL    HW140748   6.328   2.272   3.285 -0.0435  0.4839 -0.9833
11979SOL    HW240749   6.380   2.177   3.179  0.4855 -1.1914  0.7256
11980SOL     OW40750  10.058   4.354   1.736 -0.8675  0.0746  0.0822
11980SOL    HW140751  10.044   4.288   1.804 -1.7762  0.4958  0.3305
11980SOL    HW240752  10.143   4.393   1.758 -2.2426  2.0257  2.6450
11981SOL     OW40753   7.902   2.384   6.556  0.1580  0.0834 -0.0903
11981SOL    HW140754   7.898   2.479   6.559  1.4550  0.1471  0.5045
11981SOL    HW240755   7.815   2.356   6.527 -0.2402  1.4389 -0.2347
11982SOL     OW40756   2.055   1.390  10.004  0.4426  0.1581  0.2551
11982SOL    HW140757   2.040   1.304  10.044  0.5812  0.6269  1.3417
11982SOL    HW240758   2.146   1.411  10.026  0.3334  0.6921  0.2010
11983SOL     OW40759   1.762   9.411   2.715  0.7092  0.0096 -0.3697
11983SOL    HW140760   1.828   9.364   2.665 -0.6106 -1.7654 -0.5400
11983SOL    HW240761   1.781   9.390   2.806  0.6110 -0.1756 -0.3922
11984SOL     OW40762   4.151   0.398   6.847  0.4034 -0.0385  0.1540
11984SOL    HW140763   4.088   0.410   6.776  0.0591  0.3612  0.5199
11984SOL    HW240764   4.099   0.368   6.921  0.2778  2.2478  1.0754
11985SOL     OW40765   6.805   5.578   1.717  0.3309  0.0422  0.3037
11985SOL    HW140766   6.787   5.570   1.810 -3.6530 -0.0519 -0.3265
11985SOL    HW240767   6.779   5.667   1.694 -2.2362 -0.9938 -1.2393
11986SOL     OW40768   2.089   1.301   9.255  0.5424  0.1576  0.2616
11986SOL    HW140769   2.132   1.373   9.208  1.4905 -0.0483  0.7940
11986SOL    HW240770   2.039   1.344   9.325  0.1516  0.3719 -0.1418
11987SOL     OW40771   7.672   8.795   6.101  0.1223 -0.0111 -0.0100
11987SOL    HW140772   7.658   8.700   6.105 -3.7406  0.3353 -1.0488
11987SOL    HW240773   7.691   8.813   6.009  0.0772  0.3075  0.0407
11988SOL     OW40774   4.064   0.296  11.933  0.2442  0.2683  0.0343
11988SOL    HW140775   4.104   0.241  11.866  0.1654  0.9434 -0.5729
11988SOL    HW240776   3.971   0.274  11.929  0.3436 -0.2662  0.4750
11989SOL     OW40777   8.862   6.849   3.994  0.3709 -0.0395  0.3400
11989SOL    HW140778   8.897   6.862   4.083  0.5231  0.3570  0.2236
11989SOL    HW240779   8.767   6.853   4.005  0.2177 -2.8433  0.9474
11990SOL     OW40780   4.515   0.578   8.625  0.5187  0.4961 -0.0299
11990SOL    HW140781   4.512   0.584   8.530  2.0489 -1.1727 -0.2516
11990SOL    HW240782   4.601   0.614   8.649  1.3850 -1.6499  0.3698
11991SOL     OW40783   9.336   2.660   8.243 -0.0743 -0.4060  0.2254
11991SOL    HW140784   9.267   2.722   8.265 -0.5922 -0.6021 -0.7688
11991SOL    HW240785   9.337   2.657   8.148  1.5480 -0.1632  0.1956
11992SOL     OW40786   8.776   0.810   4.703  0.3303  0.0589 -0.2972
11992SOL    HW140787   8.787   0.724   4.664 -1.0809 -0.0591 -0.4650
11992SOL    HW240788   8.746   0.866   4.631  0.1995  0.4353  0.0438
11993SOL     OW40789   8.432  11.262   9.564  0.3729 -0.1983  0.3173
11993SOL    HW140790   8.424  11.229   9.474  1.6415  1.9414 -0.6457
11993SOL    HW240791   8.350  11.307   9.580  0.7619  0.7974 -0.4027
11994SOL     OW40792   9.788  11.827   0.690  0.0718 -0.0859 -0.6047
11994SOL    HW140793   9.769  11.757   0.627  3.3187  0.0545 -1.9291
11994SOL    HW240794   9.816  11.780   0.769  1.6179 -0.3373 -1.2735
11995SOL     OW40795   4.425   0.176   9.251 -0.1035  0.3292 -0.3244
11995SOL    HW140796   4.357   0.128   9.298  0.6650 -0.0280  0.4640
11995SOL    HW240797   4.455   0.242   9.314 -0.2075  0.9541 -0.9188
11996SOL     OW40798  10.538   4.628   1.802 -0.2733  0.3650 -0.5232
11996SOL    HW140799  10.524   4.722   1.801 -0.9096  0.2691 -0.6916
11996SOL    HW240800  10.586   4.610   1.721 -0.9400  0.4226 -0.9310
11997SOL     OW40801   2.484   7.909   1.025 -0.3191 -0.3642 -0.3991
11997SOL    HW140802   2.576   7.929   1.008  0.3550 -1.8846  1.1776
11997SOL    HW240803   2.471   7.930   1.117 -1.5428 -0.2153 -0.5940
11998SOL     OW40804   5.939   1.770   0.005 -0.3880 -0.1680 -0.1995
11998SOL    HW140805   5.925   1.691  -0.048 -0.7756 -0.7172  0.7049
11998SOL    HW240806   6.016   1.750   0.058  0.3542  0.6083 -0.9622
11999SOL     OW40807   0.187   9.034   7.552 -0.7666  0.4335 -0.2221
11999SOL    HW140808   0.112   9.005   7.501 -1.1106  0.5764  0.1901
11999SOL    HW240809   0.186   9.130   7.543 -2.0480  0.6583  1.6619
12000SOL     OW40810   4.095   2.182   9.271 -0.2457  0.1295 -0.1312
12000SOL    HW140811   4.170   2.129   9.245 -1.4325 -1.3901 -0.5865
12000SOL    HW240812   4.075   2.154   9.360 -0.2927  0.4991 -0.0256
12001SOL     OW40813   2.733   6.846  10.755  0.1893  1.0437  0.0092
12001SOL    HW140814   2.638   6.845  10.741  0.2488 -1.6252 -0.6213
12001SOL    HW240815   2.744   6.889  10.840 -1.6622  0.3775  0.6406
12002SOL     OW40816   8.966   7.759   1.986  0.2310 -0.3721  0.1563
12002SOL    HW140817   8.975   7.838   1.933 -0.8668  1.1161  2.0672
12002SOL    HW240818   9.023   7.774   2.061  0.4025 -1.6533  0.3076
12003SOL     OW40819   9.642   8.015   5.050 -0.4410  0.0879 -0.3880
12003SOL    HW140820   9.674   8.037   4.963 -1.9749 -0.6679 -1.1798
12003SOL    HW240821   9.584   7.940   5.037 -1.1095  0.2757  1.1974
12004SOL     OW40822   4.225   9.374   5.585  0.1375 -0.3373 -0.0919
12004SOL    HW140823   4.179   9.380   5.669  1.7127 -1.5833  0.9296
12004SOL    HW240824   4.303   9.428   5.597  0.5864 -0.8695 -0.5949
12005SOL     OW40825   5.467   0.656   8.017 -0.1849 -0.4319  0.1601
12005SOL    HW140826   5.410   0.661   7.940 -1.7415  1.1337  1.3511
12005SOL    HW240827   5.475   0.746   8.048  1.9551 -0.7723  0.7994
12006SOL     OW40828   5.552   5.620   1.905  0.0998  0.1645  0.1720
12006SOL    HW140829   5.606   5.553   1.864  0.9695  0.1431  1.2925
12006SOL    HW240830   5.530   5.583   1.991 -1.1687  0.4481 -0.0164
12007SOL     OW40831   2.472   3.263   3.714 -0.4064  0.0596  0.1634
12007SOL    HW140832   2.553   3.212   3.713 -0.4181  0.0321  0.7374
12007SOL    HW240833   2.406   3.204   3.677 -0.2530 -0.0629  0.0848
12008SOL     OW40834   5.273  10.282   4.561 -0.4356 -0.2291 -0.1214
12008SOL    HW140835   5.339  10.306   4.627  0.4365 -1.8513 -0.3256
12008SOL    HW240836   5.274  10.354   4.498  2.7954 -1.1021 -1.3045
12009SOL     OW40837  11.858   5.139   2.366  0.3952 -0.1063 -0.2260
12009SOL    HW140838  11.773   5.120   2.406  0.9522 -0.5094  0.8250
12009SOL    HW240839  11.841   5.210   2.304 -0.2465  1.7074  1.8952
12010SOL     OW40840   5.726   7.957   7.740 -0.1930 -0.2899  0.1473
12010SOL    HW140841   5.783   7.994   7.808  0.8314 -0.4620 -0.5857
12010SOL    HW240842   5.684   7.882   7.782  1.3734 -1.1459  0.2573
12011SOL     OW40843   8.180   5.830  12.322  0.0754  0.0585  0.5013
12011SOL    HW140844   8.203   5.767  12.390  1.3288  0.2240  0.2564
12011SOL    HW240845   8.085   5.826  12.316 -0.0863  0.2048  2.4193
12012SOL     OW40846   9.405  11.420  11.105 -0.2857  0.1468  0.5558
12012SOL    HW140847   9.378  11.462  11.186  0.6956  1.3989  0.2737
12012SOL    HW240848   9.449  11.489  11.056 -0.2963 -0.7483 -0.7710
12013SOL     OW40849   6.188   5.278   0.601 -0.2262 -0.1485  0.0251
12013SOL    HW140850   6.270   5.229   0.589 -0.4932 -0.1228 -2.1721
12013SOL    HW240851   6.196   5.315   0.689  1.2481 -1.7455  0.6333
12014SOL     OW40852   2.649   0.215  11.266  0.2198  0.0499  0.0383
12014SOL    HW140853   2.653   0.146  11.332  2.3669  0.4931  0.4482
12014SOL    HW240854   2.732   0.207  11.218  0.6967  2.5506  0.3321
12015SOL     OW40855   1.763   8.258   3.158 -0.0159 -0.3562  0.2099
12015SOL    HW140856   1.723   8.345   3.169  0.5081 -0.1862  0.8534
12015SOL    HW240857   1.805   8.262   3.072 -0.2964 -0.0999  0.0804
12016SOL     OW40858   0.154   2.840   4.534  0.5156 -0.4762  0.9478
12016SOL    HW140859   0.122   2.794   4.457 -1.0113 -0.0812  1.3047
12016SOL    HW240860   0.226   2.894   4.502 -1.1887  1.0045 -0.5946
12017SOL     OW40861  11.163   6.739  11.663  0.1118 -0.1547 -0.5398
12017SOL    HW140862  11.242   6.698  11.629  1.4741  2.3156 -0.5962
12017SOL    HW240863  11.097   6.723  11.595  1.0777 -0.6641 -1.3805
12018SOL     OW40864  12.454   0.401   6.592  0.2632  0.2370  0.2173
12018SOL    HW140865  12.463   0.491   6.625  0.6463  0.0350  0.6851
12018SOL    HW240866  12.506   0.348   6.653 -0.4040 -0.3767  0.2717
12019SOL     OW40867   7.845   2.202  12.222 -0.8882 -0.4812 -0.3523
12019SOL    HW140868   7.821   2.229  12.134 -1.9696  2.2276  0.6717
12019SOL    HW240869   7.903   2.272  12.253 -1.6355 -0.6505  1.5475
12020SOL     OW40870  10.201  11.215   9.670 -0.1449  0.1653 -0.0945
12020SOL    HW140871  10.253  11.281   9.624  0.6743 -0.3943  0.0092
12020SOL    HW240872  10.131  11.266   9.712  2.0939  1.4717  2.4138
12021SOL     OW40873   5.421   4.511   6.644 -0.1183  0.6925 -0.0426
12021SOL    HW140874   5.371   4.587   6.673  0.8747  1.1084  0.6524
12021SOL    HW240875   5.447   4.533   6.554 -1.6355  0.2110 -0.6308
12022SOL     OW40876   0.973  10.378   4.315 -0.0291 -0.7813 -0.3640
12022SOL    HW140877   1.051  10.330   4.342 -0.6809 -1.3008  0.6743
12022SOL    HW240878   1.004  10.438   4.247  1.6304  0.2136  1.1599
12023SOL     OW40879   5.974   5.757   7.516 -0.5788 -0.4293 -0.7379
12023SOL    HW140880   5.987   5.833   7.459  0.8496  0.5101  0.7803
12023SOL    HW240881   5.891   5.775   7.560 -0.4998  0.0028 -0.7555
12024SOL     OW40882   2.619   8.381   1.771  0.2341 -0.1647 -0.1262
12024SOL    HW140883   2.590   8.376   1.680  2.4260  1.5612 -1.0173
12024SOL    HW240884   2.711   8.357   1.768  0.6722  1.1156  1.4134
12025SOL     OW40885   2.249  11.563  11.087  0.3059 -0.5965  0.7780
12025SOL    HW140886   2.335  11.546  11.125  0.5979 -0.4150  0.2081
12025SOL    HW240887   2.188  11.552  11.160  0.7782 -1.0483  1.1104
12026SOL     OW40888  11.060   7.617  11.520  0.3285  0.0875  0.0194
12026SOL    HW140889  11.089   7.621  11.429  1.1814 -0.3883  0.2520
12026SOL    HW240890  11.007   7.538  11.525 -1.4931  1.2217 -0.5211
12027SOL     OW40891  11.360   1.223  10.207  0.5669 -0.2999  0.3705
12027SOL    HW140892  11.436   1.248  10.259  0.9231 -0.5164 -0.0442
12027SOL    HW240893  11.299   1.296  10.218  1.1833  0.2829 -0.0023
12028SOL     OW40894   4.036   5.533  11.150  0.2697  0.0788 -0.7798
12028SOL    HW140895   4.025   5.598  11.080 -1.7514  1.2443  0.5493
12028SOL    HW240896   3.961   5.474  11.140 -0.6405  0.8775  0.9917
12029SOL     OW40897   1.670   7.291   6.985  0.1491  0.3123  0.0959
12029SOL    HW140898   1.762   7.293   7.014  0.4931  1.7030 -0.9970
12029SOL    HW240899   1.670   7.235   6.908 -0.0335 -0.1392  0.4195
12030SOL     OW40900   5.795   9.350  10.147  0.2127 -0.6868 -0.1040
12030SOL    HW140901   5.800   9.255  10.147  2.2324 -0.6302  0.6922
12030SOL    HW240902   5.885   9.379  10.159 -0.6723  1.2593  3.5743
12031SOL     OW40903   1.618  11.801   1.470 -0.3447  0.1974  0.2642
12031SOL    HW140904   1.528  11.797   1.437 -0.5450 -0.7342  0.8657
12031SOL    HW240905   1.634  11.894   1.486 -1.9836  0.2198  2.1779
12032SOL     OW40906   9.792   0.854   1.079  0.0207 -0.1375  0.0622
12032SOL    HW140907   9.823   0.914   1.146  0.2677  0.1902 -0.3421
12032SOL    HW240908   9.834   0.770   1.101  0.1652 -0.0134  0.2658
12033SOL     OW40909  12.619   6.805   0.361  0.4969 -0.2414 -0.2762
12033SOL    HW140910  12.666   6.825   0.280 -0.6221 -1.3247 -1.2447
12033SOL    HW240911  12.572   6.885   0.382 -2.7111 -1.1155 -3.2215
12034SOL     OW40912   6.496   8.217   7.651  0.1429  0.4886 -0.0135
12034SOL    HW140913   6.534   8.243   7.735  0.4626  0.1765 -0.0581
12034SOL    HW240914   6.521   8.125   7.640 -1.9967 -0.2462  0.7268
12035SOL     OW40915  11.960   1.519   6.021  0.1896  0.4784 -0.1716
12035SOL    HW140916  11.922   1.598   6.059 -1.0501  0.3273 -1.0522
12035SOL    HW240917  12.017   1.485   6.090  0.0238  1.6298  0.5620
12036SOL     OW40918  10.901   0.941   2.214 -0.4484 -0.2972 -0.0392
12036SOL    HW140919  10.934   0.970   2.299 -1.9674 -0.4870  0.6507
12036SOL    HW240920  10.827   0.883   2.235 -1.0840 -0.0655 -1.4864
12037SOL     OW40921   5.870  11.883   3.951 -0.2253 -0.1629 -0.3278
12037SOL    HW140922   5.958  11.905   3.983 -0.0276  0.6755 -1.3874
12037SOL    HW240923   5.885  11.825   3.877 -0.6380 -1.1811  0.3680
12038SOL     OW40924   0.374   7.803   5.660 -0.4697  0.8395 -0.5489
12038SOL    HW140925   0.301   7.794   5.721 -0.9910 -0.8998 -1.3415
12038SOL    HW240926   0.444   7.750   5.698 -1.2257 -1.3603 -1.9642
12039SOL     OW40927  12.100   8.499   2.915  0.0538 -0.1913  0.3303
12039SOL    HW140928  12.052   8.533   2.840  1.0815  0.2933 -0.1348
12039SOL    HW240929  12.149   8.425   2.880  0.4858 -0.0059  0.5316
12040SOL     OW40930   2.236  11.520  10.605 -1.2278  0.2674  0.2211
12040SOL    HW140931   2.254  11.515  10.699 -1.4652  1.2101  0.3287
12040SOL    HW240932   2.277  11.603  10.578 -0.6247 -0.2976 -0.6335
12041SOL     OW40933   8.598  10.859   2.090 -0.3913  0.0407 -0.2742
12041SOL    HW140934   8.540  10.852   2.015 -1.4163  0.2216  0.4769
12041SOL    HW240935   8.597  10.952   2.113  0.3837  0.0858 -0.3923
12042SOL     OW40936   3.173   8.951   3.440 -0.0119 -0.4694 -0.2642
12042SOL    HW140937   3.238   8.896   3.396  0.7965  0.7228 -0.6396
12042SOL    HW240938   3.124   8.993   3.369  0.1264  0.1232 -0.0243
12043SOL     OW40939  10.147   1.750  11.660 -0.2183  0.0679 -0.1596
12043SOL    HW140940  10.071   1.693  11.651 -0.9740  1.0649 -0.2559
12043SOL    HW240941  10.193   1.743  11.577 -1.1616  0.7768 -0.7609
12044SOL     OW40942  10.448   5.509   8.873 -0.1137 -0.1451 -0.3019
12044SOL    HW140943  10.467   5.574   8.805 -1.5667  0.0242 -0.5921
12044SOL    HW240944  10.440   5.427   8.825  2.9280 -0.8557  0.2038
12045SOL     OW40945   9.334  11.141   4.601 -0.5128  0.5446  0.1861
12045SOL    HW140946   9.266  11.209   4.595 -0.7051  0.2714 -0.7758
12045SOL    HW240947   9.405  11.173   4.546 -0.0828  0.5480  0.7270
12046SOL     OW40948   6.625   8.635   3.952 -0.1001  0.5149  0.5352
12046SOL    HW140949   6.681   8.707   3.984 -0.7330  0.8833  0.8488
12046SOL    HW240950   6.678   8.590   3.887  0.7607  0.5352  1.1953
12047SOL     OW40951  10.565   4.451   4.365 -0.2036 -0.9359  0.1983
12047SOL    HW140952  10.585   4.417   4.278  1.5394 -1.2072  0.6580
12047SOL    HW240953  10.584   4.545   4.359 -1.5597 -0.6594 -0.1007
12048SOL     OW40954   2.995   3.690   4.070  0.6273  0.2509  0.2115
12048SOL    HW140955   2.932   3.763   4.077  0.7722  0.2879  1.2639
12048SOL    HW240956   2.983   3.658   3.981 -1.1346  0.0511  0.4691
12049SOL     OW40957   4.671   6.855   5.848 -0.2762 -0.0447 -0.3121
12049SOL    HW140958   4.661   6.949   5.861 -2.2519 -0.0794 -1.3204
12049SOL    HW240959   4.592   6.828   5.802  1.4807 -1.7213 -2.5883
12050SOL     OW40960   9.809   0.985   0.852 -0.5358 -0.3015 -0.6471
12050SOL    HW140961   9.789   0.983   0.946 -1.3941 -1.4490 -0.8228
12050SOL    HW240962   9.835   0.895   0.832  1.8058  0.4059 -1.1023
12051SOL     OW40963   9.520   5.414   4.790  0.3412 -0.1594 -0.3184
12051SOL    HW140964   9.500   5.321   4.804  1.2000 -0.4547 -0.9791
12051SOL    HW240965   9.461   5.460   4.849  0.2956 -1.1494  0.4324
12052SOL     OW40966   7.233   4.671   1.654  0.0709  0.4384 -0.1674
12052SOL    HW140967   7.307   4.679   1.595 -1.2094 -0.5978 -2.0118
12052SOL    HW240968   7.228   4.577   1.675 -1.5073  0.2462 -1.2164
12053SOL     OW40969   2.608  12.501   0.658 -0.0616 -0.0051 -0.1779
12053SOL    HW140970   2.545  12.462   0.718 -0.7198  0.4966 -0.5333
12053SOL    HW240971   2.600  12.450   0.577  0.4252 -0.3244 -0.0304
12054SOL     OW40972  10.749   5.034  11.449  0.6907 -0.0098 -0.1455
12054SOL    HW140973  10.690   5.109  11.440 -2.1353 -2.0458  0.1351
12054SOL    HW240974  10.812   5.044  11.378 -0.3658  1.9696 -0.8645
12055SOL     OW40975   0.477  10.407   9.310 -0.0076 -0.0564  0.0530
12055SOL    HW140976   0.381  10.404   9.307 -0.0384  0.6756  0.0782
12055SOL    HW240977   0.505  10.377   9.224 -0.2621 -0.0718 -0.0257
12056SOL     OW40978   2.206  10.141   5.071 -0.3265 -0.1694  0.3441
12056SOL    HW140979   2.168  10.058   5.101  2.2340 -1.5716  0.0176
12056SOL    HW240980   2.167  10.156   4.985  0.2936 -1.9311 -0.3009
12057SOL     OW40981   7.355   6.433   6.695 -0.4396  0.2369 -0.7794
12057SOL    HW140982   7.351   6.454   6.788 -1.2701  1.2589 -1.0246
12057SOL    HW240983   7.335   6.340   6.690  0.0592  0.0712  0.0916
12058SOL     OW40984   5.382   6.455   2.540 -0.1337 -0.1535 -0.2924
12058SOL    HW140985   5.399   6.365   2.512 -0.2371 -0.6828  1.2511
12058SOL    HW240986   5.337   6.495   2.466 -0.9491 -1.6560 -0.6457
12059SOL     OW40987   0.310  11.294   0.278  0.4411 -0.1976  0.3641
12059SOL    HW140988   0.357  11.364   0.232  0.5859 -0.8453 -0.5076
12059SOL    HW240989   0.375  11.225   0.290 -0.2620 -1.1419 -0.9284
12060SOL     OW40990   0.751   8.555   8.162 -0.1181 -1.0166 -0.0716
12060SOL    HW140991   0.744   8.562   8.067  0.2933 -1.2721 -0.1234
12060SOL    HW240992   0.810   8.482   8.176 -0.2321 -1.0232  0.3847
12061SOL     OW40993  11.812   7.654   4.102 -0.0574 -0.4707  0.7473
12061SOL    HW140994  11.745   7.717   4.075 -0.0510 -1.0563 -0.7019
12061SOL    HW240995  11.798   7.578   4.045  1.2768 -0.9503  1.0330
12062SOL     OW40996  11.345   5.837   1.694 -0.5968  0.4950 -0.2890
12062SOL    HW140997  11.336   5.932   1.705 -0.4022  0.5415 -0.5330
12062SOL    HW240998  11.330   5.801   1.781  0.5313  0.8340  0.0528
12063SOL     OW40999   8.813   1.199   3.841 -0.1809  0.0314 -0.2125
12063SOL    HW141000   8.793   1.173   3.931 -0.8795  0.3124 -0.2766
12063SOL    HW241001   8.784   1.125   3.787 -0.4113  0.1550 -0.2577
12064SOL     OW41002  11.203   6.564   6.953  0.2544  0.5453 -0.3618
12064SOL    HW141003  11.241   6.604   6.875 -0.7121 -1.0265 -1.7001
12064SOL    HW241004  11.276   6.520   6.996  0.8274  1.5756 -0.2399
12065SOL     OW41005   6.078   3.873   7.683 -1.2508 -0.2411  0.2485
12065SOL    HW141006   6.123   3.954   7.707 -1.6861 -0.3449  1.4849
12065SOL    HW241007   6.018   3.898   7.613 -0.9665  0.3825  0.2242
12066SOL     OW41008  12.041   0.018  10.096  0.2754  0.5068 -0.2184
12066SOL    HW141009  11.952  -0.006  10.123  0.0504 -1.1700 -2.1829
12066SOL    HW241010  12.087  -0.066  10.087  2.0673  1.3299  0.6712
12067SOL     OW41011   7.144   4.388  10.754 -0.1713  0.3372 -0.4257
12067SOL    HW141012   7.147   4.310  10.809  1.2649 -0.5948 -1.7468
12067SOL    HW241013   7.066   4.378  10.701 -0.0095 -0.1903 -0.5640
12068SOL     OW41014   5.923  10.937   3.694  0.1625 -0.0582 -0.2649
12068SOL    HW141015   5.856  10.891   3.745  1.0153 -0.8300  0.1835
12068SOL    HW241016   5.896  11.029   3.697  0.2377 -0.0553  1.6889
12069SOL     OW41017   8.156   5.763  11.480 -0.6484 -0.1009  0.1817
12069SOL    HW141018   8.200   5.775  11.396 -0.0794  1.2833  0.6365
12069SOL    HW241019   8.187   5.679  11.512 -1.2569 -0.8774 -1.2117
12070SOL     OW41020   6.492   4.313  10.235 -0.6142 -0.2006  0.2396
12070SOL    HW141021   6.419   4.330  10.294 -0.2012 -0.1993  0.7588
12070SOL    HW241022   6.465   4.237  10.184 -1.8619  1.0443 -1.0657
12071SOL     OW41023   0.490   6.845  12.029 -0.1632  0.4998 -0.7688
12071SOL    HW141024   0.422   6.876  11.968 -0.5859 -0.1440 -0.6324
12071SOL    HW241025   0.496   6.751  12.012 -0.3421  0.3043  0.2420
12072SOL     OW41026   8.596   1.826   6.600 -0.1344  0.3881 -0.3811
12072SOL    HW141027   8.541   1.901   6.577  0.3104  0.3226 -1.7330
12072SOL    HW241028   8.663   1.823   6.532 -0.1455 -1.2436 -0.3662
12073SOL     OW41029   3.968   4.137   9.984 -0.1180 -0.2532  0.1300
12073SOL    HW141030   4.013   4.059  10.015  0.2608 -1.2452 -2.6305
12073SOL    HW241031   3.876   4.111   9.978  0.1527 -0.8965 -1.7751
12074SOL     OW41032   6.424  11.168   8.225 -0.2180 -0.1872 -0.2099
12074SOL    HW141033   6.329  11.181   8.227 -0.1255  0.4411  0.4732
12074SOL    HW241034   6.453  11.189   8.314  0.9231  2.4971 -1.1079
12075SOL     OW41035   9.419   3.779   1.012 -0.5251 -0.2996 -0.1231
12075SOL    HW141036   9.338   3.768   1.061  0.0343  0.2117  0.9592
12075SOL    HW241037   9.393   3.772   0.920 -1.8272  0.0737  0.2002
12076SOL     OW41038   0.229   9.787   1.614  0.1013 -0.0176  0.1129
12076SOL    HW141039   0.236   9.829   1.700  0.3054  0.9524 -0.3655
12076SOL    HW241040   0.136   9.764   1.607 -0.2014  1.1535  0.0353
12077SOL     OW41041   7.381   7.963  10.902  0.0635 -0.2139 -0.0466
12077SOL    HW141042   7.401   8.050  10.937 -0.0081  0.8034 -2.3760
12077SOL    HW241043   7.446   7.906  10.943 -0.0034  0.8767  1.6722
12078SOL     OW41044  12.432  11.128   4.143  0.4627  0.1796  0.1903
12078SOL    HW141045  12.472  11.163   4.222  0.8892 -0.4636  0.2617
12078SOL    HW241046  12.505  11.090   4.094 -0.0692 -1.0712  0.3559
12079SOL     OW41047   1.875   3.774   8.904  0.1405 -0.2844  0.3830
12079SOL    HW141048   1.924   3.835   8.960 -0.7459 -0.0035  0.8747
12079SOL    HW241049   1.821   3.830   8.849  0.6228 -0.5807 -0.4111
12080SOL     OW41050  11.358  11.639   0.696 -0.2484 -0.1036  0.4673
12080SOL    HW141051  11.451  11.627   0.713 -0.4193  0.8630  2.3434
12080SOL    HW241052  11.352  11.650   0.601  1.4233 -1.0260  0.2064
12081SOL     OW41053   2.902   7.720   1.463  0.1761  0.0996  0.5626
12081SOL    HW141054   2.861   7.692   1.545  1.7554 -0.3351  1.2394
12081SOL    HW241055   2.986   7.674   1.462 -0.1395 -0.5263 -1.6832
12082SOL     OW41056   1.126   5.328   4.806 -0.1032  0.5312  0.4226
12082SOL    HW141057   1.055   5.372   4.851 -1.3963 -1.2586  0.2140
12082SOL    HW241058   1.086   5.250   4.767  1.9472 -0.5060  0.2458
12083SOL     OW41059   8.430   7.976   4.625 -0.2605 -0.3684  0.7582
12083SOL    HW141060   8.356   8.016   4.671 -1.2923  1.0294 -1.8736
12083SOL    HW241061   8.432   7.886   4.655 -0.9266  0.3915  3.3360
12084SOL     OW41062  10.818   6.736  11.299  0.2885 -0.3106  0.3560
12084SOL    HW141063  10.806   6.776  11.385  1.0057  0.0089  0.3155
12084SOL    HW241064  10.913   6.736  11.286  0.2004 -0.6051 -0.3221
12085SOL     OW41065   5.780   8.161  12.186 -0.3448  0.6804  0.3713
12085SOL    HW141066   5.784   8.180  12.092  2.8134 -0.5969  0.1047
12085SOL    HW241067   5.801   8.244  12.228  0.3766  0.7961 -0.1844
12086SOL     OW41068   3.471  11.897   1.361 -0.5627  0.2064 -0.3502
12086SOL    HW141069   3.398  11.883   1.299 -0.4149 -0.1891 -0.4377
12086SOL    HW241070   3.538  11.941   1.308 -0.3217 -0.3972 -0.5494
12087SOL     OW41071   5.574   6.220   0.997  0.5450  0.0677 -0.1942
12087SOL    HW141072   5.520   6.244   1.073 -2.3595  0.3444 -2.1798
12087SOL    HW241073   5.586   6.125   1.005 -1.4377 -0.2409 -0.3271
12088SOL     OW41074  11.055   5.368   0.554  0.1221  0.2368 -0.0464
12088SOL    HW141075  11.062   5.312   0.632 -0.6712 -0.6529 -0.5920
12088SOL    HW241076  11.067   5.457   0.588  0.7461 -0.2020  0.9453
12089SOL     OW41077   4.882   1.349   3.744  0.5753 -0.1016  0.1008
12089SOL    HW141078   4.830   1.302   3.808 -0.3486 -0.9925 -1.2455
12089SOL    HW241079   4.930   1.414   3.795  1.4860 -2.1208  1.9515
12090SOL     OW41080   6.726   3.995   8.703 -0.3225 -0.3805  0.8233
12090SOL    HW141081   6.780   3.924   8.670  1.7075  0.6174  1.7886
12090SOL    HW241082   6.717   4.055   8.629 -0.2341 -0.6319  0.6095
12091SOL     OW41083  11.016   5.419  12.516 -0.0372  0.1870 -0.1745
12091SOL    HW141084  10.939   5.369  12.490 -1.4377  2.2654 -0.3296
12091SOL    HW241085  11.007   5.431  12.610 -2.6565  4.3936 -0.7023
12092SOL     OW41086  12.326   3.589   1.613  0.1307  0.9738 -0.1251
12092SOL    HW141087  12.297   3.513   1.663  1.9633 -0.1253 -0.6228
12092SOL    HW241088  12.314   3.663   1.672 -0.9320  0.1897  0.6712
12093SOL     OW41089   4.568   6.859  12.374 -0.5590 -0.7245 -0.2528
12093SOL    HW141090   4.569   6.826  12.464 -0.3461  0.4615  0.1914
12093SOL    HW241091   4.657   6.887  12.358 -0.7276 -0.4015 -0.6367
12094SOL     OW41092   0.389   1.045  11.504 -0.2122 -0.0606  0.8144
12094SOL    HW141093   0.348   0.973  11.456  0.4173 -0.4745  0.8832
12094SOL    HW241094   0.473   1.058  11.460  0.0528  0.0500  1.3384
12095SOL     OW41095   3.710   6.599   9.295  0.1846  0.2674 -0.0493
12095SOL    HW141096   3.702   6.512   9.335  0.3239 -0.0907 -0.7854
12095SOL    HW241097   3.790   6.593   9.242 -0.6789  0.3160 -1.3879
12096SOL     OW41098   9.889   6.961   5.010  0.5092  0.1609 -0.0610
12096SOL    HW141099   9.798   6.950   5.038  0.5432  0.9942  0.4115
12096SOL    HW241100   9.922   7.033   5.063  1.1079  0.6243 -1.0329
12097SOL     OW41101   6.204   0.735   1.910  0.2672 -0.0481  0.5287
12097SOL    HW141102   6.129   0.689   1.873  0.8442  0.0720 -0.8660
12097SOL    HW241103   6.280   0.696   1.867  0.8312  1.5222  0.0324
12098SOL     OW41104   4.654  11.092   2.106  0.2412  0.0493  0.0558
12098SOL    HW141105   4.587  11.085   2.038 -0.7031  3.0510  0.5367
12098SOL    HW241106   4.735  11.107   2.057  0.1964 -1.2816 -0.4644
12099SOL     OW41107   5.863   9.390   7.634 -0.3382 -0.6815  0.2570
12099SOL    HW141108   5.815   9.461   7.676  1.4990  1.3876 -0.9475
12099SOL    HW241109   5.942   9.379   7.688  0.3323 -0.4433 -0.6598
12100SOL     OW41110   9.276  10.230   2.253  0.0057 -0.1165  0.2888
12100SOL    HW141111   9.359  10.231   2.205 -0.9954  0.4711 -1.5039
12100SOL    HW241112   9.210  10.215   2.186 -1.3776 -0.4466  1.6707
12101SOL     OW41113   6.457  12.472  11.822 -0.3067  0.5754 -0.2264
12101SOL    HW141114   6.461  12.399  11.761 -1.0046  1.0121 -0.8148
12101SOL    HW241115   6.403  12.440  11.894  2.1694 -0.6476  1.1942
12102SOL     OW41116   3.919   1.339   2.486  0.3304  0.4751  0.0630
12102SOL    HW141117   3.944   1.364   2.398 -3.4400  0.9850 -1.0280
12102SOL    HW241118   3.906   1.421   2.533 -0.0541  0.2719  0.3234
12103SOL     OW41119   9.959   6.105   8.747 -0.4350 -0.6553 -0.1264
12103SOL    HW141120   9.977   6.195   8.775 -2.0226  0.3587 -2.1224
12103SOL    HW241121   9.866   6.093   8.766 -0.8845 -0.8933 -2.2849
12104SOL     OW41122   1.850   3.680   6.014 -0.1293 -0.0853  0.0798
12104SOL    HW141123   1.817   3.744   6.077 -1.1654 -1.0464  0.5378
12104SOL    HW241124   1.792   3.689   5.938 -1.0847 -1.3263  0.6326
12105SOL     OW41125   6.937   6.721   7.713  0.1525  0.5274 -0.4267
12105SOL    HW141126   6.944   6.673   7.630 -1.4947 -1.6129  0.5703
12105SOL    HW241127   6.869   6.787   7.696 -0.3695 -0.0739 -0.7269
12106SOL     OW41128   7.622   3.361   7.758  0.2874 -0.4421  0.4622
12106SOL    HW141129   7.561   3.425   7.795  0.3598 -0.3007  0.3376
12106SOL    HW241130   7.708   3.397   7.776  0.3362  0.6732 -1.6049
12107SOL     OW41131   9.327   1.993  10.843 -0.6037 -0.3180  0.2102
12107SOL    HW141132   9.296   1.912  10.803 -0.1292 -0.2271 -0.3553
12107SOL    HW241133   9.420   1.977  10.860 -0.5327  0.0720  0.1921
12108SOL     OW41134   0.475   0.841   0.735 -0.0058 -0.1730 -0.2165
12108SOL    HW141135   0.432   0.927   0.732  0.0745 -0.1458 -0.5819
12108SOL    HW241136   0.453   0.799   0.652  2.2239  0.6003 -1.2961
12109SOL     OW41137   9.214   4.197   1.106 -0.2268 -0.0241 -0.2731
12109SOL    HW141138   9.308   4.202   1.123  0.1364 -2.6944 -0.9727
12109SOL    HW241139   9.173   4.224   1.189  1.1463  0.8372  0.1476
12110SOL     OW41140   1.434   0.269   4.159  0.2086 -0.4721  0.8090
12110SOL    HW141141   1.366   0.258   4.093  1.3235 -0.9473 -0.3074
12110SOL    HW241142   1.423   0.359   4.191 -1.0622 -0.6183  0.8165
12111SOL     OW41143   3.852  10.402   1.842  0.0232  0.0973  0.5961
12111SOL    HW141144   3.843  10.361   1.756  1.0986 -2.3972  1.5687
12111SOL    HW241145   3.939  10.375   1.872  1.1310  3.7499  1.1117
12112SOL     OW41146   7.396  12.140   2.792  0.5199  0.3274 -0.3547
12112SOL    HW141147   7.343  12.170   2.865  1.2824  1.4213 -0.2200
12112SOL    HW241148   7.475  12.194   2.796  1.2021 -0.5648 -1.1402
12113SOL     OW41149  10.687   7.616  11.324  0.1745 -0.1801  0.4991
12113SOL    HW141150  10.774   7.655  11.320 -0.1856  0.5884 -0.1861
12113SOL    HW241151  10.635   7.678  11.374 -0.5182  0.4864 -0.9798
12114SOL     OW41152   7.621   4.016   8.400  0.2207  0.7430  0.4823
12114SOL    HW141153   7.681   4.018   8.475  0.9724 -2.1525  0.0916
12114SOL    HW241154   7.569   3.936   8.413  1.5084 -0.8133 -2.7996
12115SOL     OW41155   0.536  10.356  10.320 -0.3422  0.2122  0.4090
12115SOL    HW141156   0.514  10.302  10.244 -1.0009 -0.1950  0.8711
12115SOL    HW241157   0.464  10.420  10.325 -0.3031  0.2358  0.6869
12116SOL     OW41158   9.941   8.373   9.380 -0.1582  0.0958 -0.0278
12116SOL    HW141159   9.927   8.424   9.459 -0.7835 -0.7811  0.4477
12116SOL    HW241160   9.893   8.291   9.395 -2.3541  0.8378 -2.2806
12117SOL     OW41161  11.760  11.902  11.793 -0.1995 -0.0980  0.1147
12117SOL    HW141162  11.686  11.844  11.775 -0.8557  0.7491  0.0207
12117SOL    HW241163  11.788  11.879  11.881 -0.8620 -0.1330  0.3196
12118SOL     OW41164   1.282  11.949   3.700 -0.6975 -0.2022  0.2650
12118SOL    HW141165   1.317  11.912   3.781  0.0250 -0.1877 -0.0316
12118SOL    HW241166   1.309  12.040   3.702 -0.8743 -0.1462  0.1090
12119SOL     OW41167   0.740  12.627  11.929  0.3020  0.4476  0.1913
12119SOL    HW141168   0.702  12.545  11.962  0.8087 -0.3622 -1.1395
12119SOL    HW241169   0.665  12.686  11.919 -0.1739 -0.0895  0.5038
12120SOL     OW41170   0.825   7.847   4.702  0.3629  0.1497 -0.3673
12120SOL    HW141171   0.836   7.870   4.794  0.7317 -1.5745  0.0542
12120SOL    HW241172   0.761   7.776   4.701  0.9714 -0.4248 -1.3341
12121SOL     OW41173   5.255  10.754   4.139  0.2057 -0.3634 -0.4897
12121SOL    HW141174   5.256  10.790   4.050 -0.7897  1.0034  0.0117
12121SOL    HW241175   5.297  10.669   4.131  1.6422  0.4210 -1.9641
12122SOL     OW41176   3.567  12.342   1.756 -0.5081 -0.4509  0.2280
12122SOL    HW141177   3.587  12.321   1.665  0.0959 -0.4861  0.3703
12122SOL    HW241178   3.540  12.434   1.754  0.1431 -0.2643  0.1130
12123SOL     OW41179   9.945   6.170   7.035 -0.7497  0.3843  0.0326
12123SOL    HW141180   9.852   6.185   7.021 -1.0265 -0.4957  0.8007
12123SOL    HW241181   9.949   6.108   7.108  0.4100 -0.2485 -0.5339
12124SOL     OW41182   8.137   0.243   4.654  0.4213 -0.0113  0.3506
12124SOL    HW141183   8.173   0.155   4.642 -0.4736 -0.0569 -3.5350
12124SOL    HW241184   8.071   0.234   4.722 -0.0793 -2.5366 -0.3730
12125SOL     OW41185  11.102  10.990   4.733  0.3220 -0.0397 -0.9221
12125SOL    HW141186  11.070  11.071   4.772  1.5318  1.2305 -2.4508
12125SOL    HW241187  11.139  11.016   4.649  1.5582 -2.0347 -1.0738
12126SOL     OW41188   4.239   7.827   9.658 -0.0348  0.4913 -0.0274
12126SOL    HW141189   4.297   7.844   9.583 -0.4125 -1.0750 -0.7061
12126SOL    HW241190   4.265   7.741   9.689 -1.2207  0.2756  0.4064
12127SOL     OW41191   7.986   4.436   6.892  0.0729 -0.3041 -0.6362
12127SOL    HW141192   7.936   4.375   6.947 -1.5963  1.3213 -0.2401
12127SOL    HW241193   8.008   4.508   6.951  1.9610 -0.4526 -1.1126
12128SOL     OW41194   4.055   3.263   4.458 -0.7624  1.2633 -0.4709
12128SOL    HW141195   4.081   3.171   4.469 -2.3855  0.9241  0.7875
12128SOL    HW241196   4.064   3.278   4.364  1.4446  0.4435 -0.4640
12129SOL     OW41197   9.948  11.264  12.141  0.0447 -0.1048 -0.1798
12129SOL    HW141198  10.028  11.214  12.154 -0.3704 -1.1082 -1.2212
12129SOL    HW241199   9.884  11.199  12.112 -1.3776  0.5326  1.3829
12130SOL     OW41200   2.672   3.315   5.612  0.1868 -0.0957  0.0582
12130SOL    HW141201   2.609   3.344   5.545  0.3904 -0.3495 -0.2506
12130SOL    HW241202   2.733   3.388   5.621 -0.5575  0.4472  0.8875
12131SOL     OW41203   1.621  10.559   1.404  0.4584 -0.4494  0.7822
12131SOL    HW141204   1.579  10.482   1.442  1.7834 -1.0132  1.1546
12131SOL    HW241205   1.586  10.633   1.455 -0.6844 -0.8060  0.5348
12132SOL     OW41206  10.444   7.980   1.963  0.8189  0.7106 -0.3244
12132SOL    HW141207  10.503   7.916   2.003  1.8907  1.4518 -0.6708
12132SOL    HW241208  10.357   7.942   1.972  1.5210 -1.2893 -1.4828
12133SOL     OW41209   9.732   6.291   6.084 -0.0876  0.5453  0.9329
12133SOL    HW141210   9.666   6.229   6.116 -0.6326 -0.1604 -1.3733
12133SOL    HW241211   9.682   6.371   6.067 -1.2544 -0.8347 -3.6779
12134SOL     OW41212   9.355   5.732   3.843  0.4250  0.7071  0.0471
12134SOL    HW141213   9.435   5.741   3.791  0.6666  0.7462  0.4185
12134SOL    HW241214   9.285   5.721   3.779  0.7756  0.3173 -0.2744
12135SOL     OW41215   3.488  12.169  12.417  0.2749 -0.3061  0.0179
12135SOL    HW141216   3.405  12.164  12.369  0.7113 -0.2108 -0.7753
12135SOL    HW241217   3.491  12.259  12.450  0.0267 -0.3329  0.1172
12136SOL     OW41218   1.769   8.561   2.739  0.2849 -0.0545 -0.6279
12136SOL    HW141219   1.792   8.521   2.823  2.4327 -0.1706 -1.2343
12136SOL    HW241220   1.677   8.585   2.749  0.3490 -0.5261  1.5690
12137SOL     OW41221   5.461   4.338   4.167  0.1987  0.6169  0.7886
12137SOL    HW141222   5.409   4.418   4.155  1.4744  1.4000  0.3516
12137SOL    HW241223   5.496   4.346   4.256 -0.6146 -0.0477  1.1877
12138SOL     OW41224   0.383   4.414  10.177 -0.1426 -0.0041  0.5021
12138SOL    HW141225   0.303   4.446  10.220  1.2889  3.2471  0.9762
12138SOL    HW241226   0.381   4.453  10.090 -0.4056 -2.3069 -0.6118
12139SOL     OW41227   9.935   6.080   9.863 -0.1343  0.2956  0.1978
12139SOL    HW141228   9.871   6.149   9.878 -0.8276 -0.5661  1.3661
12139SOL    HW241229   9.989   6.079   9.942  0.1647 -0.2016 -0.0033
12140SOL     OW41230   1.524   2.411   1.837  0.1342 -0.0814 -0.1473
12140SOL    HW141231   1.450   2.394   1.896  1.3862  0.2337  1.5793
12140SOL    HW241232   1.557   2.496   1.864  0.1631  0.5162 -1.9773
12141SOL     OW41233   3.000   6.915   7.425 -0.3635  0.3145 -0.3717
12141SOL    HW141234   3.043   6.989   7.469  0.5375  0.1545 -0.9545
12141SOL    HW241235   2.921   6.900   7.476 -1.4395  2.7236 -1.1885
12142SOL     OW41236  11.626   6.464   5.599 -0.1150  0.1473 -0.1386
12142SOL    HW141237  11.640   6.374   5.627 -2.1602 -0.3124 -0.4321
12142SOL    HW241238  11.574   6.504   5.669 -0.9781  0.4582 -0.9202
12143SOL     OW41239  12.138   0.809   2.017  0.4912 -0.1768  0.0344
12143SOL    HW141240  12.140   0.881   1.954 -1.1138 -0.9015 -0.9075
12143SOL    HW241241  12.158   0.731   1.966  0.3601 -0.6292  0.6583
12144SOL     OW41242   8.695   8.297   2.791 -0.1284 -0.5647  0.0650
12144SOL    HW141243   8.692   8.319   2.885 -0.2111 -2.0525  0.4322
12144SOL    HW241244   8.687   8.382   2.747 -1.8032  0.0270  1.3795
12145SOL     OW41245   4.410   1.718   6.050  0.2551  0.1668 -0.3455
12145SOL    HW141246   4.362   1.663   6.113 -0.0114  0.7353 -0.0436
12145SOL    HW241247   4.362   1.707   5.968 -0.9292  1.3598  0.1344
12146SOL     OW41248   4.130   0.511  12.332  0.2849 -0.1036 -0.0519
12146SOL    HW141249   4.042   0.522  12.298  1.1425  3.2514 -1.5576
12146SOL    HW241250   4.169   0.443  12.277 -0.5122  0.3817 -1.2396
12147SOL     OW41251   5.762   3.325  12.168 -0.8812  0.1896  0.3707
12147SOL    HW141252   5.857   3.336  12.159 -0.6344 -1.2196  1.0464
12147SOL    HW241253   5.726   3.360  12.086  0.2953 -0.2076 -0.3344
12148SOL     OW41254   4.840   1.067   7.913 -0.2925  0.0225  0.1965
12148SOL    HW141255   4.811   1.116   7.990  1.2428  0.7934  0.3406
12148SOL    HW241256   4.863   0.980   7.946 -2.1532 -0.5312  0.1079
12149SOL     OW41257  11.261   4.686   3.975 -0.4315 -0.5799  0.2143
12149SOL    HW141258  11.178   4.696   4.022 -0.0760 -0.3057  0.7965
12149SOL    HW241259  11.244   4.723   3.888 -0.9889 -0.7483  0.2456
12150SOL     OW41260   5.018   5.540   7.333  0.4338  0.0659 -0.2637
12150SOL    HW141261   5.025   5.454   7.291 -0.2367  0.2092 -0.6849
12150SOL    HW241262   4.924   5.558   7.334  0.6597  1.4654 -1.5554
12151SOL     OW41263   5.110  10.239   7.994  0.0935  0.5577  0.2296
12151SOL    HW141264   5.116  10.170   8.060  1.0790  1.3459  0.9996
12151SOL    HW241265   5.025  10.225   7.952  0.4104 -1.3235  0.1151
12152SOL     OW41266   7.093   8.198  11.464  0.0180  0.2942  0.1271
12152SOL    HW141267   7.133   8.132  11.520  0.3256  1.4807  1.3655
12152SOL    HW241268   7.005   8.166  11.448  0.5630 -1.0101 -0.3365
12153SOL     OW41269   1.420   5.374   6.061 -0.1549  0.1395  0.0064
12153SOL    HW141270   1.383   5.334   5.982  1.8346  2.2370 -2.1990
12153SOL    HW241271   1.352   5.434   6.091 -0.8530 -0.4902 -0.3025
12154SOL     OW41272   9.504   2.075   4.281 -0.1996 -0.1103 -0.0571
12154SOL    HW141273   9.450   2.085   4.202  1.4227  0.3181 -1.1574
12154SOL    HW241274   9.511   2.164   4.315  2.4530  0.4463 -1.7905
12155SOL     OW41275   8.552   3.514   6.983  0.6855 -0.1115  0.2676
12155SOL    HW141276   8.472   3.526   6.931  1.4639  2.8495 -0.4227
12155SOL    HW241277   8.623   3.524   6.920  1.6367 -0.6324  1.2235
12156SOL     OW41278   5.687  10.981   7.152  0.1630 -0.0981  0.6010
12156SOL    HW141279   5.657  10.925   7.080  5.6475 -0.6805 -1.7686
12156SOL    HW241280   5.701  10.920   7.225  0.2407 -0.6767  0.1161
12157SOL     OW41281   2.745   3.825   4.244  0.1085 -0.1232 -0.4815
12157SOL    HW141282   2.765   3.917   4.256  1.4009 -0.3080 -1.1274
12157SOL    HW241283   2.806   3.779   4.302 -0.0236 -0.6005 -0.7113
12158SOL     OW41284   5.361   9.846   0.678 -0.6106 -0.0593 -0.8324
12158SOL    HW141285   5.313   9.779   0.727 -0.6872 -0.4477 -1.4417
12158SOL    HW241286   5.370   9.918   0.741 -1.1190 -0.3686 -0.3907
12159SOL     OW41287   7.446  11.334   7.992  0.2562  0.7937  0.4870
12159SOL    HW141288   7.526  11.323   7.940 -1.6739  0.8970 -2.7766
12159SOL    HW241289   7.414  11.245   8.006  0.7266  0.7703  1.5714
12160SOL     OW41290  11.029   7.234   6.419  0.1788  0.3528  0.1791
12160SOL    HW141291  10.945   7.240   6.464  0.1109  0.3739  0.0508
12160SOL    HW241292  11.015   7.167   6.352  0.2992  0.2749  0.2324
12161SOL     OW41293   6.786   7.336   8.995  0.4152  0.3578  0.1605
12161SOL    HW141294   6.724   7.271   9.029 -0.2291  0.3922 -0.9127
12161SOL    HW241295   6.858   7.335   9.058 -0.1326 -0.5333  0.8019
12162SOL     OW41296   7.540   5.262   9.560  0.2055  0.0714  0.6406
12162SOL    HW141297   7.579   5.349   9.554  0.2461 -0.0164 -0.5987
12162SOL    HW241298   7.595   5.215   9.623  2.0934 -0.0207 -0.9870
12163SOL     OW41299  11.057   9.027   9.150  0.2261 -0.3388 -0.1050
12163SOL    HW141300  10.999   8.964   9.107 -1.1876  1.6249 -1.2161
12163SOL    HW241301  11.105   9.068   9.078  1.7945 -0.7245  0.6804
12164SOL     OW41302   8.789   5.423   8.770  0.2087 -0.1538 -0.3019
12164SOL    HW141303   8.754   5.510   8.749 -0.2571  0.0091  1.0630
12164SOL    HW241304   8.793   5.378   8.686  3.2362  2.1443 -1.5765
12165SOL     OW41305   0.468   0.966   4.838  0.0934 -0.0999  0.1216
12165SOL    HW141306   0.409   1.031   4.798  1.2740  1.1840  0.3881
12165SOL    HW241307   0.423   0.882   4.826 -0.8836  0.5953 -1.4019
12166SOL     OW41308   0.680   6.852   0.959 -0.7093  0.2955  0.4618
12166SOL    HW141309   0.614   6.782   0.964 -0.3095 -0.0052  2.4470
12166SOL    HW241310   0.761   6.806   0.936 -0.5096  0.1267  1.4613
12167SOL     OW41311  10.121  11.642  10.092 -0.1530 -0.0240 -0.2382
12167SOL    HW141312  10.050  11.654  10.154  0.3465  0.6342  0.2222
12167SOL    HW241313  10.130  11.547  10.083  0.3647 -0.1659  1.4145
12168SOL     OW41314   1.336   8.696   0.175 -0.1546  0.2413 -0.2381
12168SOL    HW141315   1.422   8.661   0.201 -0.3391 -2.0671 -2.3243
12168SOL    HW241316   1.357   8.764   0.112  0.1613  0.3184 -0.0545
12169SOL     OW41317   5.696   6.234   2.947  0.4113 -0.1325  0.8842
12169SOL    HW141318   5.662   6.264   2.863  2.1624 -1.7484 -0.5102
12169SOL    HW241319   5.664   6.298   3.010 -2.9423 -0.1251 -0.6055
12170SOL     OW41320  11.093  11.627   7.801  0.5316  0.4745 -0.1333
12170SOL    HW141321  11.064  11.708   7.758  0.0801 -0.3498 -1.4470
12170SOL    HW241322  11.032  11.616   7.873 -0.0796  0.7588 -0.5941
12171SOL     OW41323   9.654   4.236   7.492 -0.1339  0.0581  0.2706
12171SOL    HW141324   9.577   4.292   7.503  1.7413  2.9769 -0.2615
12171SOL    HW241325   9.665   4.194   7.577 -1.9979 -0.0885  0.4976
12172SOL     OW41326  11.515   3.555   4.225  0.2753  0.4195  0.3980
12172SOL    HW141327  11.516   3.573   4.131  0.4129  0.0772  0.3338
12172SOL    HW241328  11.440   3.497   4.238  1.5551 -1.3775  0.1519
12173SOL     OW41329   0.477   4.601   7.771  0.2262  0.2179 -0.0135
12173SOL    HW141330   0.553   4.543   7.768  1.2136  1.4439  0.5067
12173SOL    HW241331   0.495   4.669   7.706 -1.4625 -0.6559 -1.4654
12174SOL     OW41332  10.187  12.540   6.563  0.1400  0.4669  0.0049
12174SOL    HW141333  10.278  12.538   6.593  0.3635 -0.9145 -0.7132
12174SOL    HW241334  10.192  12.531   6.468 -0.7102  1.6384 -0.1767
12175SOL     OW41335  12.463   9.186   5.105  0.4466  0.4452 -0.1129
12175SOL    HW141336  12.384   9.224   5.142 -0.0250  0.5380 -1.1748
12175SOL    HW241337  12.509   9.148   5.180 -0.6129  0.3592  0.5114
12176SOL     OW41338   2.392   8.523   1.834  0.4075  0.0924  0.3205
12176SOL    HW141339   2.441   8.444   1.815 -1.9275 -1.3910  0.0443
12176SOL    HW241340   2.315   8.493   1.882 -0.9967  2.0823 -0.5401
12177SOL     OW41341   4.041   7.945   0.514 -0.0231 -0.3717  0.4094
12177SOL    HW141342   3.992   7.974   0.437  0.9879  1.1761  0.2985
12177SOL    HW241343   4.046   7.850   0.506 -0.7104 -0.3095 -0.9595
12178SOL     OW41344   0.827   5.503   3.664 -0.3250 -0.2604  0.0402
12178SOL    HW141345   0.887   5.554   3.610 -1.1088 -0.1632 -0.7554
12178SOL    HW241346   0.883   5.435   3.704  0.2881 -0.2525 -0.7769
12179SOL     OW41347   4.312   5.081   4.358  0.3834  0.6015 -0.1989
12179SOL    HW141348   4.393   5.061   4.406  0.8890  0.3777 -1.1166
12179SOL    HW241349   4.338   5.149   4.296 -0.6424  2.0850  0.9153
12180SOL     OW41350   0.181   4.962   7.594  0.0434  0.0325  0.0823
12180SOL    HW141351   0.152   4.871   7.589 -0.6170  0.1675  1.0488
12180SOL    HW241352   0.103   5.013   7.574  0.6505  0.4014 -1.4523
12181SOL     OW41353   5.840   6.486  12.631  0.7087  0.0756 -0.2592
12181SOL    HW141354   5.811   6.446  12.549  1.6223  1.9937 -1.5892
12181SOL    HW241355   5.760   6.498  12.682  0.0258 -0.4647 -1.1656
12182SOL     OW41356   8.650   4.081   6.285  0.4971 -1.0890 -0.2628
12182SOL    HW141357   8.708   4.024   6.336  0.5623 -2.4570 -1.7947
12182SOL    HW241358   8.593   4.021   6.238 -0.4076  0.1774 -0.8271
12183SOL     OW41359   3.796   8.757   9.892 -0.5299  0.2602 -0.2889
12183SOL    HW141360   3.716   8.723   9.934  1.5934 -1.5802  2.6416
12183SOL    HW241361   3.850   8.788   9.965  1.3769  1.7717 -2.1961
12184SOL     OW41362   2.114   3.046   8.138  0.0410 -0.3302 -0.0970
12184SOL    HW141363   2.136   3.118   8.197 -0.2961 -1.2296  1.1672
12184SOL    HW241364   2.182   2.980   8.155  0.8417 -0.0175 -1.8454
12185SOL     OW41365   4.508  11.064   7.585  0.5125  0.1091  0.1269
12185SOL    HW141366   4.485  11.104   7.501 -0.2564  1.7681  1.0835
12185SOL    HW241367   4.589  11.107   7.611 -0.0763  0.7647  0.9472
12186SOL     OW41368  11.520   4.997   3.189 -0.0373  0.1675  0.1690
12186SOL    HW141369  11.602   5.035   3.157 -0.0733 -0.3119 -0.4908
12186SOL    HW241370  11.460   5.001   3.115 -0.4899  0.1327  0.5263
12187SOL     OW41371   6.239  10.275   3.259 -0.3036 -0.8867  0.1841
12187SOL    HW141372   6.179  10.261   3.333 -0.9314 -0.9384 -0.3189
12187SOL    HW241373   6.181  10.299   3.186  0.1696 -2.0754 -0.6252
12188SOL     OW41374   5.509   2.471   4.481 -0.1523 -0.4332  0.0410
12188SOL    HW141375   5.531   2.513   4.398 -0.5463 -1.8802 -0.8418
12188SOL    HW241376   5.594   2.447   4.518 -0.0053 -0.8639 -0.5513
12189SOL     OW41377  11.192   7.214   2.338  0.0890  0.2904 -0.0524
12189SOL    HW141378  11.285   7.237   2.337 -0.1056  1.1492 -1.1712
12189SOL    HW241379  11.174   7.184   2.249 -0.7302  0.2381  0.1237
12190SOL     OW41380   2.875   2.885  12.453 -0.3713  0.1148 -0.0748
12190SOL    HW141381   2.890   2.975  12.425  0.0287  0.2380  0.5189
12190SOL    HW241382   2.855   2.891  12.547  1.3026 -0.5356  0.3664
12191SOL     OW41383   6.590   3.355   5.638 -0.2310 -0.8374  0.4316
12191SOL    HW141384   6.594   3.439   5.684 -2.5543  0.1650 -1.0319
12191SOL    HW241385   6.618   3.376   5.549  2.1299 -2.3115  0.7464
12192SOL     OW41386   5.366   9.187  11.014  0.5031  0.5651  0.3866
12192SOL    HW141387   5.385   9.107  10.965  0.3031  0.0174  1.1837
12192SOL    HW241388   5.284   9.219  10.975  0.8916  0.7100 -0.3286
12193SOL     OW41389  11.702   6.836  11.727  0.4434 -0.2519 -0.2695
12193SOL    HW141390  11.797   6.848  11.726  0.4987 -0.6938 -1.1059
12193SOL    HW241391  11.688   6.747  11.693 -0.2468 -0.3734  0.2968
12194SOL     OW41392   3.876   8.775   2.401  0.2079 -0.1570 -0.0245
12194SOL    HW141393   3.901   8.856   2.445  2.5879 -0.3065 -0.9070
12194SOL    HW241394   3.804   8.800   2.343  2.1469  1.9115 -1.7513
12195SOL     OW41395   4.841   3.439   4.286 -0.2735 -0.1589 -0.6499
12195SOL    HW141396   4.924   3.391   4.291 -0.1351  0.1849  1.2810
12195SOL    HW241397   4.774   3.372   4.298 -0.1010 -0.0266  1.4298
12196SOL     OW41398   3.027   7.806  11.308  0.4517  0.5789  0.0398
12196SOL    HW141399   3.008   7.716  11.335 -0.9059  0.9522  0.4061
12196SOL    HW241400   3.120   7.817  11.327  0.5531 -0.6150  0.3570
12197SOL     OW41401   0.285   3.863  11.512 -0.3587  0.2227  0.3914
12197SOL    HW141402   0.293   3.815  11.594 -0.9935 -1.0455 -0.2596
12197SOL    HW241403   0.307   3.953  11.535 -0.5764 -0.0907  1.9573
12198SOL     OW41404   7.230   6.029   2.763  0.4523 -0.2112 -0.3599
12198SOL    HW141405   7.186   6.086   2.825 -0.6024 -1.3230 -0.0280
12198SOL    HW241406   7.184   5.945   2.772  3.3112 -1.7643  0.7593
12199SOL     OW41407  10.174   6.228   2.518  0.0788 -0.5654 -0.3948
12199SOL    HW141408  10.177   6.143   2.474 -0.7368 -1.2448  0.8123
12199SOL    HW241409  10.256   6.270   2.493  0.3924 -1.6038 -1.2137
12200SOL     OW41410   5.914   5.874  10.603 -0.4613  0.1755  0.2562
12200SOL    HW141411   5.921   5.793  10.552 -0.4773  0.6988 -0.5909
12200SOL    HW241412   5.820   5.892  10.607 -0.3663  1.0947 -1.0917
12201SOL     OW41413  10.737   3.842   7.187  0.6154 -0.1346 -0.1785
12201SOL    HW141414  10.729   3.883   7.101  0.1714 -1.3897 -0.7480
12201SOL    HW241415  10.747   3.749   7.169  1.1565 -0.3512  1.1134
12202SOL     OW41416   3.270  12.546   0.340  0.4205 -0.4977  0.0247
12202SOL    HW141417   3.322  12.557   0.261  0.9747 -0.6832  0.3589
12202SOL    HW241418   3.229  12.460   0.329 -0.1894 -0.1566 -0.4454
12203SOL     OW41419   5.124   2.144   2.626  0.5032 -0.1173  0.0215
12203SOL    HW141420   5.192   2.181   2.683  0.5489  0.4669 -0.4072
12203SOL    HW241421   5.138   2.185   2.541  0.6705 -1.2639 -0.5271
12204SOL     OW41422   8.473  11.200   7.118 -0.3013 -0.2205  0.1710
12204SOL    HW141423   8.406  11.133   7.109 -0.8931  0.6103 -2.4990
12204SOL    HW241424   8.478  11.217   7.212 -2.8324 -1.2963  0.5632
12205SOL     OW41425   9.306  10.894  10.808  0.3918  0.0254 -0.5308
12205SOL    HW141426   9.301  10.987  10.786 -0.9559  0.0464 -0.2349
12205SOL    HW241427   9.233  10.854  10.760  1.2939 -0.9833 -1.1142
12206SOL     OW41428   4.668   7.518   4.723  0.0347 -0.5458 -0.1650
12206SOL    HW141429   4.653   7.601   4.677  0.2822  0.6818  1.8435
12206SOL    HW241430   4.759   7.521   4.750 -0.2748 -0.9098  0.9696
12207SOL     OW41431   1.331   1.992   2.810  0.0746  0.7515  0.8748
12207SOL    HW141432   1.320   2.079   2.772 -1.2314  0.5298  0.6900
12207SOL    HW241433   1.264   1.987   2.878 -0.6752 -0.5404  0.0757
12208SOL     OW41434   8.876   3.437   6.809 -0.0241 -0.2454 -0.5502
12208SOL    HW141435   8.872   3.347   6.779  1.7594 -0.4553 -0.2755
12208SOL    HW241436   8.847   3.489   6.734 -0.8414 -1.0187 -0.7800
12209SOL     OW41437   5.350   2.594   0.412  0.4291  0.3374  0.0413
12209SOL    HW141438   5.365   2.523   0.350 -0.3623 -0.1816  0.4292
12209SOL    HW241439   5.263   2.577   0.447  0.8368  0.6476  1.2591
12210SOL     OW41440  11.195   0.818   4.900  0.0891  0.6089 -0.1184
12210SOL    HW141441  11.151   0.881   4.957  1.7860  1.8718 -0.1214
12210SOL    HW241442  11.285   0.850   4.894  0.3537 -0.3702 -2.2582
12211SOL     OW41443   8.377   4.235   4.423 -0.1549 -0.1063 -0.2172
12211SOL    HW141444   8.459   4.216   4.377 -0.2047  0.8674 -0.7210
12211SOL    HW241445   8.315   4.169   4.391  0.5060 -1.0804  0.4363
12212SOL     OW41446   4.804   1.143   8.913  0.3946 -0.4661 -0.0733
12212SOL    HW141447   4.876   1.151   8.851 -0.8800 -1.2507 -1.7223
12212SOL    HW241448   4.774   1.053   8.904  1.0476 -1.0664  2.7485
12213SOL     OW41449   6.214   8.939  11.438 -0.0375  0.3798 -0.1326
12213SOL    HW141450   6.182   8.947  11.528  1.0111 -0.6367  0.3573
12213SOL    HW241451   6.271   9.014  11.426  0.2111  0.2511  0.2287
12214SOL     OW41452   1.639  12.461   2.909  0.2989 -0.4746  0.7182
12214SOL    HW141453   1.580  12.405   2.859 -0.6706  0.2805  0.9946
12214SOL    HW241454   1.717  12.468   2.855  0.4533 -2.0814  0.6737
12215SOL     OW41455   9.387   6.457  11.528  0.0731 -0.0912 -0.1203
12215SOL    HW141456   9.329   6.405  11.472 -0.4455 -0.0708  0.3898
12215SOL    HW241457   9.470   6.408  11.530  0.7243  0.8057 -2.3458
12216SOL     OW41458   8.004   5.620   2.468  0.1037  0.5205  0.2229
12216SOL    HW141459   7.957   5.632   2.385  1.1592  0.1833 -0.4442
12216SOL    HW241460   7.945   5.656   2.534  0.3298  3.2469 -0.9358
12217SOL     OW41461   0.704   8.112   4.332  0.2208 -0.4264 -0.6277
12217SOL    HW141462   0.625   8.061   4.315 -0.7116  0.7002  0.1631
12217SOL    HW241463   0.763   8.050   4.375 -1.1329 -0.7071  0.9274
12218SOL     OW41464   0.965   4.342   0.110  0.1348  0.1804 -0.0524
12218SOL    HW141465   0.920   4.258   0.122 -1.4398  1.0765  0.5429
12218SOL    HW241466   1.053   4.326   0.143 -0.4141 -0.9869  0.9373
12219SOL     OW41467   4.820   3.009   1.095 -0.0072 -0.1901  0.1233
12219SOL    HW141468   4.876   3.085   1.109  0.4956 -0.5961  0.3733
12219SOL    HW241469   4.866   2.937   1.140 -1.3659 -0.2589  1.4785
12220SOL     OW41470  11.787   1.217   7.897  0.3478  0.1106  0.0799
12220SOL    HW141471  11.782   1.122   7.891  1.2090  0.1055 -0.9310
12220SOL    HW241472  11.782   1.236   7.991 -1.2726 -0.8180  0.2057
12221SOL     OW41473  12.404  12.012  12.189  0.2221  0.4657  0.6201
12221SOL    HW141474  12.359  12.068  12.126 -0.6195  2.7716  3.1088
12221SOL    HW241475  12.470  12.069  12.230  1.2260 -1.1458  1.3580
12222SOL     OW41476  10.315  10.507   2.616 -0.3973  0.3463 -0.3603
12222SOL    HW141477  10.407  10.519   2.592  0.8932 -0.3349  3.4872
12222SOL    HW241478  10.305  10.413   2.629 -0.0230  0.6657  3.8776
12223SOL     OW41479   4.625   7.331   8.053 -0.1081 -0.0747  0.0655
12223SOL    HW141480   4.611   7.237   8.064 -0.3747 -0.2753 -1.7026
12223SOL    HW241481   4.539   7.365   8.028  0.6042  0.0570 -2.5336
12224SOL     OW41482   4.668  11.105   3.193  0.1170 -0.5346 -0.4688
12224SOL    HW141483   4.743  11.098   3.253  0.7225 -1.6342 -1.3165
12224SOL    HW241484   4.664  11.198   3.172  1.2262 -0.4429 -0.3587
12225SOL     OW41485   7.732  11.035   5.722  0.2404  0.0794 -0.5155
12225SOL    HW141486   7.820  11.013   5.693 -0.5717 -1.4545 -1.9820
12225SOL    HW241487   7.745  11.096   5.795  2.4741  0.3786 -1.0955
12226SOL     OW41488   0.740   6.690   4.900  0.9543 -0.2582 -0.1149
12226SOL    HW141489   0.733   6.732   4.814  0.9940  0.7934  0.3735
12226SOL    HW241490   0.744   6.597   4.881 -0.5186 -0.1453 -1.1782
12227SOL     OW41491   8.810  12.477   1.898 -0.3554  0.1205 -0.2495
12227SOL    HW141492   8.749  12.432   1.840 -0.6069 -0.9542  0.8156
12227SOL    HW241493   8.754  12.521   1.962 -0.1871  2.8290 -1.7811
12228SOL     OW41494  11.294   8.000   2.421  0.1242  0.0992  0.4486
12228SOL    HW141495  11.253   7.970   2.339 -1.4346 -0.5414  1.4139
12228SOL    HW241496  11.374   7.949   2.428  0.7621  0.8325 -1.1271
12229SOL     OW41497   2.472   3.458  12.302 -0.0650 -0.1735  0.6911
12229SOL    HW141498   2.405   3.401  12.264  1.5960 -1.4657 -0.4352
12229SOL    HW241499   2.512   3.502  12.227  0.4235  0.4881  1.3252
12230SOL     OW41500  11.189   2.823   1.858  0.6598 -0.4541  0.0700
12230SOL    HW141501  11.277   2.838   1.825  0.7931  0.5944  0.8379
12230SOL    HW241502  11.198   2.831   1.953 -0.4614  0.8869  0.0975
12231SOL     OW41503   2.990   8.787  11.261 -0.1006 -0.2085 -0.2701
12231SOL    HW141504   2.998   8.882  11.254 -0.9293 -0.0695  0.5135
12231SOL    HW241505   3.080   8.756  11.276  0.3507  0.3167 -1.7178
12232SOL     OW41506   8.490   0.349   1.506 -0.7256  0.2051  0.3782
12232SOL    HW141507   8.477   0.415   1.573  0.2928 -0.1530  0.9461
12232SOL    HW241508   8.442   0.273   1.537 -3.2336  1.0966 -1.0242
12233SOL     OW41509   8.565   0.681   4.097 -0.9665  0.1847  0.1520
12233SOL    HW141510   8.558   0.650   4.187  1.3501 -0.9081  0.0347
12233SOL    HW241511   8.494   0.636   4.051 -0.5211 -1.4030  0.9387
12234SOL     OW41512   2.485   5.663   3.757  0.2873 -0.4308  0.0106
12234SOL    HW141513   2.452   5.600   3.693  0.0414  0.0474 -0.3428
12234SOL    HW241514   2.576   5.679   3.730 -0.0324  0.3154 -0.6656
12235SOL     OW41515   3.157   7.232   2.255 -0.1011 -0.0628 -0.8571
12235SOL    HW141516   3.068   7.206   2.279 -0.4851  1.4926 -0.4956
12235SOL    HW241517   3.154   7.242   2.160 -0.3325  0.0254 -0.8417
12236SOL     OW41518  11.740   1.033  10.739  0.2625  0.1252  0.1126
12236SOL    HW141519  11.658   1.064  10.699  1.7221  0.8602 -2.5614
12236SOL    HW241520  11.799   1.108  10.732  2.0873 -1.3580 -0.9779
12237SOL     OW41521  10.046   5.787   3.839  0.1307 -0.1637 -0.3197
12237SOL    HW141522   9.984   5.752   3.904  0.0429 -0.0003 -0.3166
12237SOL    HW241523   9.991   5.832   3.775  0.4378  3.2920  1.6316
12238SOL     OW41524  11.586   6.130  11.354  0.1096  0.5666 -0.0220
12238SOL    HW141525  11.524   6.150  11.283  0.9977 -0.9566 -1.3086
12238SOL    HW241526  11.664   6.181  11.332 -0.1666  1.3602  0.7948
12239SOL     OW41527   8.845   3.171   3.187  0.2751 -0.2048  0.1585
12239SOL    HW141528   8.855   3.256   3.145  0.1702 -0.9473 -1.4656
12239SOL    HW241529   8.807   3.191   3.272 -0.2293  1.3400 -0.3878
12240SOL     OW41530  12.023   4.226   4.137 -0.2634  0.0797 -0.4276
12240SOL    HW141531  11.968   4.194   4.208  0.5411  0.0119  0.1848
12240SOL    HW241532  12.109   4.188   4.154 -0.0200  0.1685 -1.3712
12241SOL     OW41533   7.457   7.897   4.219 -0.6261  0.0844 -0.7516
12241SOL    HW141534   7.523   7.834   4.190  1.2624  1.8356 -0.5144
12241SOL    HW241535   7.476   7.911   4.311 -1.0600  0.9321 -0.7825
12242SOL     OW41536   5.438   3.043  10.883 -0.4747 -0.1021 -0.0212
12242SOL    HW141537   5.356   3.021  10.839 -0.9931  0.3136  0.7174
12242SOL    HW241538   5.420   3.032  10.976 -0.1047  1.2858  0.2444
12243SOL     OW41539  10.157  12.012   0.114  0.3784  0.0812 -0.3608
12243SOL    HW141540  10.138  12.039   0.204  1.3273  0.8507 -0.3750
12243SOL    HW241541  10.079  11.965   0.086 -0.4829  1.0123  0.4006
12244SOL     OW41542   8.774   5.795   6.499 -0.1141  0.3866 -0.1323
12244SOL    HW141543   8.727   5.793   6.582  0.0545 -0.1363 -0.0478
12244SOL    HW241544   8.724   5.738   6.441 -0.7029  1.4154 -0.6499
12245SOL     OW41545   9.114   0.578   1.122  0.2935 -0.1232  0.1245
12245SOL    HW141546   9.127   0.523   1.045 -0.3528 -0.1800  0.0462
12245SOL    HW241547   9.088   0.663   1.086 -3.8427 -1.1091  0.2207
12246SOL     OW41548   7.710   7.091   6.120 -0.1570 -0.6028  0.3909
12246SOL    HW141549   7.629   7.045   6.142 -0.1987 -1.1505 -0.8522
12246SOL    HW241550   7.694   7.128   6.034  0.5971  0.0864  0.5351
12247SOL     OW41551   2.005  11.484   5.920  0.6302 -0.2674  0.2110
12247SOL    HW141552   1.957  11.513   5.842  1.7505  1.4034  0.0996
12247SOL    HW241553   2.065  11.555   5.940  1.0431 -1.0615  2.0695
12248SOL     OW41554   2.344   5.691   0.514  0.0716 -0.0762  0.5513
12248SOL    HW141555   2.260   5.713   0.474  0.5997  0.4254 -0.2985
12248SOL    HW241556   2.391   5.642   0.447  0.2445 -0.8465  1.2244
12249SOL     OW41557   6.304   5.246  10.682  0.4037  0.6688 -0.2613
12249SOL    HW141558   6.320   5.331  10.723 -0.1609  1.9212 -2.4420
12249SOL    HW241559   6.371   5.239  10.614 -0.1563 -0.1546 -0.7496
12250SOL     OW41560   3.199  11.085   4.723  0.0977 -0.3479  0.0415
12250SOL    HW141561   3.113  11.098   4.762 -0.1798 -1.8441  0.0018
12250SOL    HW241562   3.206  11.153   4.656 -0.0186  1.3340  1.6625
12251SOL     OW41563  10.878  11.144   8.709  0.4605 -0.3211 -0.0671
12251SOL    HW141564  10.958  11.091   8.705  0.8863  0.2262  0.8237
12251SOL    HW241565  10.869  11.167   8.801 -0.2661  0.3295 -0.2891
12252SOL     OW41566   5.477   4.125   0.887 -0.0080 -0.0870  0.6666
12252SOL    HW141567   5.398   4.071   0.901 -0.8059  1.0286  0.5896
12252SOL    HW241568   5.546   4.078   0.933 -0.3921 -1.8322 -0.4169
12253SOL     OW41569   8.417   6.236  11.157  0.1432 -0.1036  0.2412
12253SOL    HW141570   8.403   6.218  11.250 -1.9887 -0.5609 -0.1118
12253SOL    HW241571   8.391   6.154  11.113 -1.1426  0.8513 -0.8705
12254SOL     OW41572   0.219   2.892   6.087 -0.2579  0.7199 -0.2691
12254SOL    HW141573   0.134   2.890   6.042  0.0069 -1.3529 -0.7602
12254SOL    HW241574   0.198   2.870   6.178 -0.4718  2.3779  0.1206
12255SOL     OW41575  10.506   5.944  10.845  0.6969  0.3873  0.0274
12255SOL    HW141576  10.594   5.964  10.877  0.9558  0.6347 -0.7884
12255SOL    HW241577  10.456   6.024  10.858  0.7426  0.4180  0.0129
12256SOL     OW41578   8.760   4.406  11.365  0.1092 -0.4010 -0.4631
12256SOL    HW141579   8.740   4.497  11.389  3.1528 -0.4399  3.0686
12256SOL    HW241580   8.837   4.413  11.307  0.8319 -0.6781  0.4366
12257SOL     OW41581   6.983   1.611   2.581 -0.3937  0.4560 -0.1693
12257SOL    HW141582   6.998   1.653   2.496 -2.0068  0.9492 -0.2295
12257SOL    HW241583   6.994   1.681   2.645  1.1772  0.0085  0.0897
12258SOL     OW41584   9.860   6.076  10.718 -0.7592  0.4925 -0.1145
12258SOL    HW141585   9.811   6.158  10.721 -1.7875  0.0001 -1.8370
12258SOL    HW241586   9.792   6.008  10.715  0.0721 -0.3993  0.5395
12259SOL     OW41587   0.959   5.158   5.042  0.4313  0.2282  0.0905
12259SOL    HW141588   0.989   5.244   5.072  0.8623  0.3669 -0.7143
12259SOL    HW241589   1.038   5.116   5.008  0.0335 -0.0996 -0.4417
12260SOL     OW41590   5.664   5.924  12.425 -0.2137  0.2218 -0.1984
12260SOL    HW141591   5.677   5.977  12.503 -0.0959 -0.9472  0.5982
12260SOL    HW241592   5.600   5.858  12.451  0.7293 -0.9330 -0.6921
12261SOL     OW41593   2.071   8.289   7.804  0.1807 -0.0412  0.1969
12261SOL    HW141594   2.001   8.239   7.847  0.4240 -0.9935 -0.4821
12261SOL    HW241595   2.050   8.380   7.823 -0.1811 -0.3871  1.6338
12262SOL     OW41596   9.313  10.692   4.719 -0.2160 -0.2935 -0.0632
12262SOL    HW141597   9.247  10.628   4.747 -1.1417  0.2407 -0.9376
12262SOL    HW241598   9.346  10.656   4.636  0.3016 -0.3535  0.1695
12263SOL     OW41599   4.324   6.881   7.413 -0.0349 -0.0646 -0.2393
12263SOL    HW141600   4.251   6.939   7.392 -0.9981 -0.8169  0.8752
12263SOL    HW241601   4.334   6.826   7.335 -0.3417  0.3525 -0.5802
12264SOL     OW41602   4.564   7.525   2.836 -0.3378  1.0404 -0.1152
12264SOL    HW141603   4.532   7.571   2.759  0.6229 -2.0164 -2.5536
12264SOL    HW241604   4.494   7.465   2.860  0.6268 -0.4816 -0.8975
12265SOL     OW41605   6.778   6.784   4.172  0.0802 -0.7710 -0.2047
12265SOL    HW141606   6.832   6.710   4.144 -0.9955 -1.6234 -0.0848
12265SOL    HW241607   6.720   6.748   4.239  1.6154  0.8693  2.1982
12266SOL     OW41608  11.735  10.904  10.782 -0.3273  0.1463 -0.1505
12266SOL    HW141609  11.769  10.835  10.840  1.9653 -0.5136 -2.0912
12266SOL    HW241610  11.802  10.973  10.786 -0.4840  0.3922 -1.3965
12267SOL     OW41611  10.999   8.602   5.404  0.0905 -0.1055  0.5352
12267SOL    HW141612  11.088   8.593   5.437  0.1648  1.0135  0.7034
12267SOL    HW241613  11.002   8.680   5.348 -0.2664 -1.3721 -1.3144
12268SOL     OW41614   2.860   5.008   4.469 -0.4686 -0.4547  0.4784
12268SOL    HW141615   2.867   4.929   4.522  0.6004 -1.0366 -0.4681
12268SOL    HW241616   2.946   5.050   4.477 -0.1772 -0.7080 -0.9783
12269SOL     OW41617   1.625   8.795   0.937 -0.1518 -0.2761 -0.5980
12269SOL    HW141618   1.619   8.706   0.972 -0.3524  0.2287  0.7120
12269SOL    HW241619   1.537   8.831   0.947  0.7352  1.3199  2.4636
12270SOL     OW41620   8.674   3.132  11.650  0.4118 -0.0736  0.0977
12270SOL    HW141621   8.756   3.083  11.653 -0.2109 -1.2403 -0.8335
12270SOL    HW241622   8.700   3.221  11.624  1.4249 -0.2803  0.3628
12271SOL     OW41623   4.530   4.406  11.195 -0.5449  0.4467 -0.0395
12271SOL    HW141624   4.499   4.451  11.274 -0.7443 -1.7820  1.2290
12271SOL    HW241625   4.482   4.323  11.195  1.8273 -1.0019 -0.7132
12272SOL     OW41626  12.045   0.929  11.564  0.0705 -0.0009 -0.0629
12272SOL    HW141627  12.116   0.936  11.627 -0.2253 -1.2421  0.4264
12272SOL    HW241628  12.086   0.946  11.479  0.6903  0.5291  0.3345
12273SOL     OW41629   6.055   5.030   5.099 -0.2191  0.3754 -0.8968
12273SOL    HW141630   6.005   5.059   5.176 -0.0993  0.1182 -0.7241
12273SOL    HW241631   6.069   5.110   5.048  0.6410  0.7340 -0.1169
12274SOL     OW41632   0.769   9.507   3.903 -0.6816  0.1351  0.1990
12274SOL    HW141633   0.785   9.518   3.997 -0.9107  1.3069  0.1068
12274SOL    HW241634   0.833   9.564   3.861 -0.9401  0.0268 -0.3492
12275SOL     OW41635   9.694  10.332   8.738  0.0127 -0.4868  0.2923
12275SOL    HW141636   9.654  10.316   8.652  0.9351 -0.9757 -0.0486
12275SOL    HW241637   9.781  10.295   8.732 -0.3732 -1.7477  1.9016
12276SOL     OW41638  10.232   0.328   5.357 -0.0239 -0.0902 -0.2780
12276SOL    HW141639  10.257   0.310   5.266  2.5854 -2.3186  0.7181
12276SOL    HW241640  10.220   0.422   5.360  1.0199  0.2018 -2.6808
12277SOL     OW41641   4.736  10.877  12.219  0.3129  0.2453  0.1267
12277SOL    HW141642   4.686  10.829  12.154  0.1706  1.1834 -0.4770
12277SOL    HW241643   4.820  10.896  12.177 -0.0627  1.5153 -0.0957
12278SOL     OW41644  10.125   3.763   2.058  0.2895  0.3244 -0.1068
12278SOL    HW141645  10.102   3.676   2.025  1.1182 -0.7827  2.0388
12278SOL    HW241646  10.215   3.755   2.087 -0.6373  0.7853  3.3405
12279SOL     OW41647   5.848   4.280   8.451  0.1739  0.4034  0.0540
12279SOL    HW141648   5.778   4.260   8.513  0.9009 -0.7411  0.5289
12279SOL    HW241649   5.802   4.317   8.375 -1.0659 -1.1669 -0.0304
12280SOL     OW41650   5.567   0.583   5.042 -0.5482 -0.4961  0.0062
12280SOL    HW141651   5.527   0.505   5.082 -0.8553 -0.7020 -0.6869
12280SOL    HW241652   5.547   0.575   4.948 -1.0396  0.6973 -0.0035
12281SOL     OW41653  11.840   6.610   4.368 -0.2172 -0.5880  0.4124
12281SOL    HW141654  11.745   6.617   4.374 -0.1734  1.5004 -0.2355
12281SOL    HW241655  11.858   6.608   4.274  0.4562  2.4776  0.3764
12282SOL     OW41656   7.462   8.014   7.204  0.3190 -0.1568  0.5542
12282SOL    HW141657   7.416   8.081   7.155 -1.8397 -0.3365  2.1870
12282SOL    HW241658   7.500   7.957   7.137 -2.6563 -0.5303 -1.0041
12283SOL     OW41659  10.823   8.399   2.910  0.4768  0.1898  0.4672
12283SOL    HW141660  10.807   8.414   3.003 -1.3238  0.4719  0.1520
12283SOL    HW241661  10.799   8.482   2.868 -0.9055 -0.6324 -0.4475
12284SOL     OW41662   0.792  10.718   1.314 -0.2513 -0.1009 -0.8056
12284SOL    HW141663   0.734  10.688   1.244 -1.0022 -1.6931  0.4368
12284SOL    HW241664   0.733  10.734   1.388  0.6880  0.1731 -0.0980
12285SOL     OW41665   1.626   7.578   3.429  0.4428  0.0189 -0.3642
12285SOL    HW141666   1.703   7.617   3.388 -1.4163  1.8151 -2.3964
12285SOL    HW241667   1.632   7.485   3.407  2.2974  0.0081  0.0515
12286SOL     OW41668   4.333   5.598   5.388 -0.4746 -0.1316  0.1543
12286SOL    HW141669   4.392   5.670   5.366  1.5327 -1.1098  1.8965
12286SOL    HW241670   4.301   5.565   5.304  0.3505  1.3523 -0.7725
12287SOL     OW41671   0.733   0.051  12.498  0.1107 -0.7593  0.8332
12287SOL    HW141672   0.728   0.120  12.564  2.2401  0.5340 -0.2268
12287SOL    HW241673   0.678  -0.019  12.532 -1.4735  1.1049  2.3756
12288SOL     OW41674  10.576   0.177   3.610  0.3011  0.2555  0.2525
12288SOL    HW141675  10.551   0.091   3.575 -0.1986 -0.2004  1.6827
12288SOL    HW241676  10.529   0.184   3.693  0.7643  1.6908  0.4209
12289SOL     OW41677  10.269   4.005   7.978  0.6225  0.0404  0.4782
12289SOL    HW141678  10.284   4.029   8.069 -0.3929  1.4359  0.3029
12289SOL    HW241679  10.224   4.081   7.940  1.2040 -0.4239 -1.2318
12290SOL     OW41680   4.869   2.764  11.403  0.2020  0.0029  0.7114
12290SOL    HW141681   4.854   2.801  11.490  0.5090 -1.3223  1.3590
12290SOL    HW241682   4.835   2.675  11.409  0.5836 -0.2376 -0.4166
12291SOL     OW41683   3.081   2.615   1.634 -0.3653 -0.5557 -0.0988
12291SOL    HW141684   3.106   2.628   1.543  2.0462 -0.0795  0.5616
12291SOL    HW241685   3.007   2.673   1.648 -0.8702 -0.7581 -1.7742
12292SOL     OW41686   3.921   2.195   1.395  0.3677 -0.0450  0.5414
12292SOL    HW141687   3.900   2.197   1.488 -0.8047 -1.6050  0.3674
12292SOL    HW241688   3.883   2.112   1.364  1.7479 -0.1251 -1.0832
12293SOL     OW41689   3.504   1.830   7.797 -0.1848  0.0208 -0.0254
12293SOL    HW141690   3.471   1.884   7.869 -1.2209 -0.5489 -0.0434
12293SOL    HW241691   3.550   1.758   7.840 -1.2555 -0.6052  0.1050
12294SOL     OW41692   0.542  10.494  10.876  0.2193 -0.0097  0.8688
12294SOL    HW141693   0.451  10.502  10.849  0.2586  0.5340  0.8800
12294SOL    HW241694   0.560  10.576  10.924  0.6503 -0.2011  1.0416
12295SOL     OW41695   0.236   4.945  12.045 -0.6713  0.3538  0.1292
12295SOL    HW141696   0.273   4.880  12.105 -2.5395 -1.3720 -0.4732
12295SOL    HW241697   0.259   5.029  12.085 -1.5952 -0.6866  3.1589
12296SOL     OW41698   9.906   6.420   9.748 -0.8345 -0.0263  0.2816
12296SOL    HW141699   9.955   6.342   9.724 -0.6411 -0.1049  0.9308
12296SOL    HW241700   9.966   6.492   9.728 -0.6462 -0.0949  0.5965
12297SOL     OW41701   2.284   5.546   6.798 -0.0159 -0.0259 -0.3678
12297SOL    HW141702   2.239   5.466   6.772 -1.6339  0.5854  0.4010
12297SOL    HW241703   2.316   5.528   6.886  0.1707 -0.0437 -0.4394
12298SOL     OW41704  10.367   7.935   5.631 -0.5229 -0.1781 -0.2862
12298SOL    HW141705  10.401   7.873   5.695  0.1693 -0.5196 -0.9703
12298SOL    HW241706  10.444   7.984   5.601 -0.3440 -1.7840 -2.7433
12299SOL     OW41707   5.680   2.911   0.078 -0.0999 -0.2439 -0.3256
12299SOL    HW141708   5.726   2.948   0.153  0.4729  0.4166 -0.9893
12299SOL    HW241709   5.611   2.856   0.116 -0.4392  0.8473  0.6824
12300SOL     OW41710  12.236   1.628   4.598  0.0254  0.3510 -0.0497
12300SOL    HW141711  12.303   1.642   4.531  1.3290  1.3371  1.3919
12300SOL    HW241712  12.265   1.680   4.673 -2.0133  0.2466  0.8844
12301SOL     OW41713  10.303  12.398   1.471  0.3604 -0.2393 -0.4956
12301SOL    HW141714  10.335  12.449   1.545 -0.0995 -0.5611 -0.0684
12301SOL    HW241715  10.211  12.422   1.463  0.6950  0.7293 -1.7580
12302SOL     OW41716   5.475  12.165   0.622  0.0481 -0.1832 -0.1070
12302SOL    HW141717   5.549  12.137   0.675  0.2750  0.5633 -0.0199
12302SOL    HW241718   5.427  12.227   0.678 -0.1008  0.0694 -0.5089
12303SOL     OW41719   2.113   8.814   0.298  0.0657  0.0471  0.0219
12303SOL    HW141720   2.153   8.810   0.385  0.8845 -1.3728 -0.3854
12303SOL    HW241721   2.152   8.742   0.250 -1.0506  0.2435 -1.2596
12304SOL     OW41722   0.372   8.703   9.258 -0.3755 -0.3063  0.2208
12304SOL    HW141723   0.441   8.648   9.296 -0.4470 -1.3914 -1.1246
12304SOL    HW241724   0.412   8.741   9.179 -0.8716  0.2032  0.2099
12305SOL     OW41725  10.755   4.720   3.888 -0.2872  0.6577 -0.2917
12305SOL    HW141726  10.716   4.798   3.927  0.2128  1.1522 -0.7699
12305SOL    HW241727  10.690   4.690   3.824 -0.7810  0.2734  0.3748
12306SOL     OW41728  10.223   6.179   4.902  0.5668  0.5923 -0.7486
12306SOL    HW141729  10.191   6.255   4.852  2.6173  1.6829 -0.5118
12306SOL    HW241730  10.318   6.189   4.902  0.7354 -0.2045  2.0830
12307SOL     OW41731   2.653   7.166   5.281  0.0744  0.1143  0.2808
12307SOL    HW141732   2.594   7.110   5.231  2.3636 -2.4945  0.3009
12307SOL    HW241733   2.677   7.115   5.358  2.8921  0.6948 -0.0855
12308SOL     OW41734   8.809  10.826   6.779 -0.1914  0.4231 -0.6878
12308SOL    HW141735   8.729  10.866   6.745 -1.7565 -1.3998  0.6260
12308SOL    HW241736   8.783  10.785   6.861  1.5770 -1.9302 -1.1698
12309SOL     OW41737   4.716   5.445   2.911 -0.5638 -0.1863  0.2391
12309SOL    HW141738   4.674   5.482   2.833 -0.4681 -1.0705 -0.2577
12309SOL    HW241739   4.647   5.393   2.952 -0.2576 -0.7884  0.0069
12310SOL     OW41740   7.679  10.686   9.718 -0.2396  0.2094 -0.0385
12310SOL    HW141741   7.753  10.696   9.778  0.9430  1.4781 -1.6194
12310SOL    HW241742   7.602  10.687   9.775  0.9153 -2.5295  1.8157
12311SOL     OW41743   1.113  11.894  10.118 -0.3100  0.0119 -0.2105
12311SOL    HW141744   1.040  11.842  10.086  0.5868 -0.7542 -1.0812
12311SOL    HW241745   1.151  11.842  10.189  1.2624 -1.1243 -1.8010
12312SOL     OW41746   2.558   2.102   8.460  0.2858 -0.2204  0.4783
12312SOL    HW141747   2.562   2.197   8.449  0.0358  0.1140  2.6852
12312SOL    HW241748   2.484   2.075   8.406  1.1894  0.6263 -1.2351
12313SOL     OW41749   1.755   6.805  10.055 -0.7300  0.3327  0.0847
12313SOL    HW141750   1.828   6.797   9.994 -0.9476 -1.5123  0.0118
12313SOL    HW241751   1.749   6.899  10.073  1.6642  0.5365  0.1367
12314SOL     OW41752  11.346   8.942  11.747 -0.0181  0.2605  0.0021
12314SOL    HW141753  11.382   8.966  11.832 -2.8379  0.5653  1.2359
12314SOL    HW241754  11.259   8.982  11.746 -0.6707 -1.0299 -2.3867
12315SOL     OW41755   0.272   0.343   8.873  0.0786  0.4414 -0.2399
12315SOL    HW141756   0.304   0.300   8.794 -1.5382  0.4268 -0.9407
12315SOL    HW241757   0.215   0.278   8.915 -0.3881  1.0150  0.0352
12316SOL     OW41758   9.925  11.757   0.325 -0.1176 -0.2123  0.2700
12316SOL    HW141759   9.841  11.777   0.283 -0.0242  0.3147  0.3290
12316SOL    HW241760   9.918  11.665   0.350 -0.1494 -0.5664 -0.9692
12317SOL     OW41761   5.475  11.732   5.387 -0.0400  0.3350  0.0085
12317SOL    HW141762   5.531  11.672   5.437 -0.7413  0.0723  0.4947
12317SOL    HW241763   5.479  11.698   5.297 -0.2623 -0.3280  0.2415
12318SOL     OW41764   3.154   4.529   2.303 -0.7614  0.4172  0.1239
12318SOL    HW141765   3.216   4.554   2.372 -2.3322 -0.5121  1.9573
12318SOL    HW241766   3.178   4.438   2.282 -1.3600  0.1148  0.7136
12319SOL     OW41767   2.745   3.223   0.024  0.5971 -0.0439 -0.6766
12319SOL    HW141768   2.810   3.221  -0.047  2.4148  2.2096  0.7886
12319SOL    HW241769   2.677   3.283  -0.008  0.4236 -0.5318 -1.2496
12320SOL     OW41770  10.927  12.613   7.031  0.4338  0.0107 -0.0424
12320SOL    HW141771  10.844  12.580   7.065 -0.9129  2.7360 -0.4857
12320SOL    HW241772  10.904  12.663   6.953  2.1802  2.4163  0.8399
12321SOL     OW41773  11.753   6.481   0.895  0.4629 -0.5660  0.3223
12321SOL    HW141774  11.762   6.477   0.800 -2.2537 -0.3118 -0.0434
12321SOL    HW241775  11.767   6.573   0.918  0.4163 -0.4960  0.0637
12322SOL     OW41776  10.496   3.719   0.421 -0.5958 -0.1555  0.3848
12322SOL    HW141777  10.497   3.756   0.510  0.5893 -2.2234  1.3164
12322SOL    HW241778  10.441   3.779   0.371 -0.6464  1.5347  2.3092
12323SOL     OW41779   3.965   3.432   6.575 -0.1495 -0.0574 -0.0425
12323SOL    HW141780   3.902   3.477   6.631  0.3312  0.9526 -0.3011
12323SOL    HW241781   4.051   3.456   6.610  0.1272 -0.5520 -0.3586
12324SOL     OW41782   5.736   6.941   7.759 -0.5769  0.3796 -0.1842
12324SOL    HW141783   5.727   6.868   7.698 -2.1955  1.5791 -1.4808
12324SOL    HW241784   5.676   6.920   7.831 -0.4191  0.0452 -0.1502
12325SOL     OW41785   2.098   5.169   0.828 -0.3363  0.2143 -0.1727
12325SOL    HW141786   2.162   5.235   0.856  2.3689 -2.1689 -0.3207
12325SOL    HW241787   2.050   5.147   0.908  0.9709  0.0809  0.5970
12326SOL     OW41788   1.348  12.322   7.899  0.4786 -0.8135  0.1216
12326SOL    HW141789   1.292  12.249   7.871  0.7642 -0.4717 -1.4486
12326SOL    HW241790   1.347  12.382   7.825 -0.1830  1.0714  1.5867
12327SOL     OW41791   7.908   9.201  10.374  0.6477  0.8849 -0.0926
12327SOL    HW141792   7.818   9.224  10.397  1.7132  2.8836  2.6001
12327SOL    HW241793   7.918   9.233  10.284 -1.6142 -0.5681 -0.9756
12328SOL     OW41794   2.699   0.247   9.069 -0.2382  0.3167 -0.2060
12328SOL    HW141795   2.740   0.229   9.154  0.1706 -0.4705 -0.5538
12328SOL    HW241796   2.684   0.160   9.032  0.8091  0.6647 -1.5147
12329SOL     OW41797   2.752   6.036  12.175 -0.1296  0.1070  0.2460
12329SOL    HW141798   2.812   6.070  12.109  0.2713 -1.4439 -0.2230
12329SOL    HW241799   2.791   6.062  12.259 -0.9576  2.6179 -0.0612
12330SOL     OW41800  10.517   7.701   1.431 -0.4479  0.2090 -0.2740
12330SOL    HW141801  10.526   7.670   1.341  0.7212  2.2237 -0.9170
12330SOL    HW241802  10.427   7.733   1.436 -0.1726  1.1656 -1.1160
12331SOL     OW41803   5.135   4.919   3.828 -0.2922 -0.2018 -0.0747
12331SOL    HW141804   5.155   4.873   3.746  3.7387 -0.1670  0.6834
12331SOL    HW241805   5.099   4.851   3.885  1.6917 -1.5336 -0.3089
12332SOL     OW41806   2.189   3.781   2.765  0.0280  0.6338  0.0011
12332SOL    HW141807   2.280   3.785   2.796 -0.5623 -4.4881  3.8425
12332SOL    HW241808   2.139   3.825   2.834 -0.5639  0.5551 -0.3773
12333SOL     OW41809  10.944  12.617   5.562 -0.9766 -0.2902  0.0899
12333SOL    HW141810  10.945  12.611   5.466  2.7881 -2.7027  0.0995
12333SOL    HW241811  10.989  12.700   5.580 -1.5009  0.0662 -0.2022
12334SOL     OW41812  11.613  10.551   9.163 -0.2424  0.6173  0.3659
12334SOL    HW141813  11.681  10.483   9.163  0.2182  1.0537 -0.5777
12334SOL    HW241814  11.532  10.503   9.145  0.3921  0.5162 -2.8340
12335SOL     OW41815   5.984   1.414   1.868  0.5595  0.0333 -0.2253
12335SOL    HW141816   5.920   1.404   1.798  0.0159 -1.3718  0.4225
12335SOL    HW241817   6.067   1.429   1.823 -0.0185  0.6172 -1.1175
12336SOL     OW41818   5.377  11.756  12.178  0.0195 -0.5099  0.3341
12336SOL    HW141819   5.464  11.720  12.163  0.2755  0.1203  0.2430
12336SOL    HW241820   5.394  11.846  12.207 -0.6223  0.0348 -0.9023
12337SOL     OW41821   1.452   8.042   7.832  0.1236 -0.0977 -0.6784
12337SOL    HW141822   1.536   8.088   7.834  0.2243 -0.1627 -2.2604
12337SOL    HW241823   1.467   7.966   7.777 -0.6199 -0.8861  0.1745
12338SOL     OW41824   9.574  12.512   0.059 -0.0237  0.0654 -0.0083
12338SOL    HW141825   9.541  12.588   0.011  2.0236  1.4781  0.6641
12338SOL    HW241826   9.649  12.482   0.008 -0.7818 -1.5175 -0.2406
12339SOL     OW41827   6.182   0.830   2.299 -0.2268  0.0243  0.4785
12339SOL    HW141828   6.196   0.736   2.314  1.0433  0.1180 -0.0589
12339SOL    HW241829   6.257   0.858   2.247 -1.3095  1.0603 -0.5682
12340SOL     OW41830   2.358   3.197   4.400 -0.3405 -0.1962 -0.7844
12340SOL    HW141831   2.281   3.154   4.361 -0.9723  0.0205  0.1913
12340SOL    HW241832   2.322   3.251   4.471  0.6538  0.3831 -0.7007
12341SOL     OW41833   9.482   6.375   5.210 -0.6428 -0.1582  0.4937
12341SOL    HW141834   9.549   6.429   5.252 -1.5012 -0.4467  2.3245
12341SOL    HW241835   9.502   6.286   5.238 -0.8365 -0.4479 -0.2745
12342SOL     OW41836   7.580   2.667   8.815  0.3277  0.3364  0.0291
12342SOL    HW141837   7.637   2.731   8.857  0.6372  1.2696 -1.6987
12342SOL    HW241838   7.634   2.589   8.804  0.4316  0.3008  0.7503
12343SOL     OW41839   0.483   2.555   1.206 -0.8896  0.1387  0.4849
12343SOL    HW141840   0.460   2.578   1.296 -1.3151 -1.3333  0.7675
12343SOL    HW241841   0.405   2.512   1.171  0.1863 -1.8185  0.3465
12344SOL     OW41842   9.539   5.080  11.937 -0.2995  0.1073 -0.4498
12344SOL    HW141843   9.505   4.990  11.942 -3.5254  1.2496  0.5992
12344SOL    HW241844   9.483   5.123  11.873  0.6195  1.6322 -0.2781
12345SOL     OW41845   4.524   7.690  10.337 -0.6424 -0.5207 -0.7412
12345SOL    HW141846   4.436   7.652  10.344 -1.0159  0.5846  1.9405
12345SOL    HW241847   4.510   7.772  10.290 -0.5333 -1.6261 -2.7824
12346SOL     OW41848   8.468  12.009   3.599  0.0394  0.3103 -0.3519
12346SOL    HW141849   8.547  11.996   3.652  1.6635  0.7848 -2.5458
12346SOL    HW241850   8.494  11.985   3.510 -2.1647  0.9376 -1.2305
12347SOL     OW41851  11.057   4.636   7.634 -0.1621 -0.1818  0.0732
12347SOL    HW141852  11.019   4.709   7.684 -2.7076  0.6056 -2.6848
12347SOL    HW241853  11.002   4.561   7.656 -0.5254 -0.1138 -0.5697
12348SOL     OW41854  10.581  10.500   3.154 -0.1992 -0.2470 -0.0585
12348SOL    HW141855  10.637  10.434   3.114 -1.5863 -0.1883 -2.2176
12348SOL    HW241856  10.639  10.576   3.167  0.5220 -0.6228 -1.0034
12349SOL     OW41857  11.861   8.716   7.386  0.0364 -0.1953  0.0430
12349SOL    HW141858  11.821   8.748   7.467  0.4977  0.1154  0.1524
12349SOL    HW241859  11.802   8.647   7.356 -0.4153  0.0464  0.3634
12350SOL     OW41860  10.229   5.553   9.385 -0.1475 -0.5656  0.0011
12350SOL    HW141861  10.219   5.477   9.328 -1.8819  0.0718 -0.6085
12350SOL    HW241862  10.202   5.628   9.331 -1.0971  0.1443  1.3758
12351SOL     OW41863   0.185   5.747   2.325 -0.2115  0.0332 -0.3136
12351SOL    HW141864   0.253   5.774   2.388 -0.7193 -0.2081  0.3513
12351SOL    HW241865   0.233   5.729   2.244  0.3368  1.2902 -0.2822
12352SOL     OW41866   5.308   6.473   9.335 -0.2343 -0.0965 -0.0818
12352SOL    HW141867   5.299   6.384   9.300 -0.9835 -0.0929  0.0952
12352SOL    HW241868   5.220   6.498   9.361  0.2445 -0.0258  1.6329
12353SOL     OW41869   1.111   0.802  11.336  0.4183 -0.2468 -0.2823
12353SOL    HW141870   1.193   0.809  11.384  0.1956  1.2659 -0.0782
12353SOL    HW241871   1.114   0.874  11.273 -0.9945  0.1907  0.1106
12354SOL     OW41872  12.485  10.566   1.612 -0.3708 -0.1323  0.2874
12354SOL    HW141873  12.502  10.579   1.518  4.0595  1.2588  1.0549
12354SOL    HW241874  12.491  10.471   1.624  0.6943 -0.2090 -0.6528
12355SOL     OW41875   4.443   8.852   1.182 -0.0601  0.0515  0.5593
12355SOL    HW141876   4.433   8.806   1.265 -0.7991 -1.5746 -0.3612
12355SOL    HW241877   4.502   8.796   1.131 -1.0948  0.0216 -0.6521
12356SOL     OW41878   6.432   9.900  10.306  0.2435  0.3430  0.3924
12356SOL    HW141879   6.455   9.989  10.279  0.8733  0.1109  0.1438
12356SOL    HW241880   6.516   9.857  10.322 -0.0277 -0.3876 -0.0877
12357SOL     OW41881   4.358   2.357   0.076  0.2440  0.4031 -0.0167
12357SOL    HW141882   4.445   2.318   0.087 -0.1716 -0.5833 -0.1005
12357SOL    HW241883   4.362   2.401  -0.009  0.3586 -0.4890 -0.4850
12358SOL     OW41884  11.367   9.205   3.094 -0.4742 -0.1580  0.1508
12358SOL    HW141885  11.294   9.146   3.075 -1.0943  1.0113 -1.4163
12358SOL    HW241886  11.334   9.262   3.164 -0.6208 -0.4154  0.2896
12359SOL     OW41887   6.056  10.849   0.233  0.2302  0.2591  0.1798
12359SOL    HW141888   6.007  10.931   0.243  1.1379  1.1439 -2.0728
12359SOL    HW241889   6.006  10.785   0.284 -0.7601  2.0764  1.6342
12360SOL     OW41890   9.209   9.238   6.571  0.6176  0.2904 -0.1480
12360SOL    HW141891   9.165   9.319   6.598 -0.5444 -1.1485  2.7280
12360SOL    HW241892   9.155   9.205   6.499 -1.6949 -0.1381  1.6448
12361SOL     OW41893   7.539   1.437   4.283  0.0458 -0.5878  0.1318
12361SOL    HW141894   7.506   1.521   4.316  0.4236  0.8723 -2.8585
12361SOL    HW241895   7.606   1.411   4.346 -0.7254  0.8573  1.6297
12362SOL     OW41896   5.659   9.569   6.331 -0.0282  0.1217 -0.1216
12362SOL    HW141897   5.590   9.520   6.376  0.5386 -0.6151 -0.0233
12362SOL    HW241898   5.729   9.575   6.396  0.5940 -0.4893 -0.7248
12363SOL     OW41899  11.819   1.679   6.830 -0.1952 -0.6795  0.1166
12363SOL    HW141900  11.883   1.748   6.847 -0.3503 -0.2756 -0.8811
12363SOL    HW241901  11.853   1.603   6.877  0.4925 -0.1951  0.4206
12364SOL     OW41902   7.090   8.164   5.731  0.6717 -0.0913 -0.5671
12364SOL    HW141903   7.036   8.085   5.729 -0.2467  0.3770  2.0232
12364SOL    HW241904   7.128   8.164   5.819  1.5211  1.7961 -0.8936
12365SOL     OW41905   6.338  11.867   0.391 -0.1261  0.0025  0.3050
12365SOL    HW141906   6.339  11.963   0.389  1.5492  0.0222  0.6327
12365SOL    HW241907   6.245  11.844   0.397 -0.4919  1.6797  3.2966
12366SOL     OW41908   1.355   8.037   0.702  0.0055  0.0745  0.8201
12366SOL    HW141909   1.352   8.132   0.717 -1.7276  0.0668  0.6523
12366SOL    HW241910   1.268   8.006   0.726  0.5267 -1.4779  0.7943
12367SOL     OW41911   2.358   4.158   7.784 -0.1047  0.2412  0.7571
12367SOL    HW141912   2.377   4.071   7.820  0.7451  0.1545  0.1356
12367SOL    HW241913   2.338   4.142   7.692  1.0897  0.7974  0.3778
12368SOL     OW41914   4.897   1.572  12.492  0.2131  0.0422  0.4185
12368SOL    HW141915   4.985   1.540  12.510  0.4710  0.2586 -0.3825
12368SOL    HW241916   4.907   1.625  12.412 -0.9427 -1.4401 -0.7801
12369SOL     OW41917   1.351   9.707   7.607 -0.4164 -0.1930 -0.1308
12369SOL    HW141918   1.306   9.641   7.661 -1.0563  0.5136  0.2229
12369SOL    HW241919   1.367   9.779   7.668 -1.5070  0.7851 -0.9639
12370SOL     OW41920  11.522   4.535   7.189 -0.0963  0.7588  0.0569
12370SOL    HW141921  11.617   4.550   7.194  0.5207 -2.6956  2.0163
12370SOL    HW241922  11.488   4.566   7.272 -0.4417  0.6774 -0.0515
12371SOL     OW41923   5.612   0.112   5.414  0.1289 -0.0441 -0.2505
12371SOL    HW141924   5.531   0.059   5.410 -0.6445  1.1586 -1.3585
12371SOL    HW241925   5.630   0.134   5.323 -1.0519  3.7177  0.2672
12372SOL     OW41926  11.238   5.052   1.789  0.6296 -0.6907 -0.0052
12372SOL    HW141927  11.243   5.093   1.875  0.5492  0.7219 -0.6369
12372SOL    HW241928  11.309   5.093   1.739 -0.1037 -0.5651 -0.9715
12373SOL     OW41929   2.685   4.982   9.249 -0.0518 -0.0384  0.2088
12373SOL    HW141930   2.720   4.945   9.330  4.0585 -0.9090 -1.7077
12373SOL    HW241931   2.694   5.077   9.260 -0.1300 -0.1110  0.9689
12374SOL     OW41932   6.929   9.667   3.787  0.3617  0.6524  0.0648
12374SOL    HW141933   6.892   9.587   3.750 -2.7136  1.9313  0.0201
12374SOL    HW241934   6.922   9.656   3.882 -1.2260  1.2593  0.0560
12375SOL     OW41935   1.105  10.023  12.070  0.0647  0.3208  0.0074
12375SOL    HW141936   1.164   9.990  12.138  0.0916  3.3279  1.5813
12375SOL    HW241937   1.023  10.040  12.115 -1.3041 -1.4055 -1.6480
12376SOL     OW41938   8.073   3.548   6.126 -0.0755  0.3677 -0.5681
12376SOL    HW141939   8.104   3.579   6.211 -2.2190  0.1676  0.3512
12376SOL    HW241940   8.135   3.479   6.102  0.3354  0.1259  1.0506
12377SOL     OW41941   9.057   6.510   5.445  0.4371  0.6685 -0.5947
12377SOL    HW141942   9.115   6.544   5.377  1.5246  1.0345  0.4844
12377SOL    HW241943   9.102   6.528   5.527 -0.8702  0.2857  0.2459
12378SOL     OW41944   1.537   9.494   0.313  0.0618 -0.1640  0.2403
12378SOL    HW141945   1.444   9.485   0.337  0.3047  1.0919  1.8016
12378SOL    HW241946   1.581   9.428   0.367  0.1972 -0.0347  0.2846
12379SOL     OW41947   8.681   1.137   5.588 -1.2265 -0.3205  0.3128
12379SOL    HW141948   8.761   1.114   5.637 -0.1181  1.8833 -0.3110
12379SOL    HW241949   8.611   1.129   5.653 -0.2862 -0.8071  1.3125
12380SOL     OW41950   0.232  11.498   9.567  0.0797  0.5385  0.0942
12380SOL    HW141951   0.273  11.477   9.483 -0.8576 -1.5471  0.0947
12380SOL    HW241952   0.178  11.421   9.588  0.5766  0.8182  2.7939
12381SOL     OW41953  11.726   5.136  11.702 -0.0761 -0.7663  0.3468
12381SOL    HW141954  11.685   5.066  11.754 -1.1076 -0.2258  0.2762
12381SOL    HW241955  11.688   5.127  11.615 -0.4152  0.0319  0.4005
12382SOL     OW41956   2.512   4.648   4.168 -0.0770  0.0070  0.1408
12382SOL    HW141957   2.556   4.642   4.083  2.1517 -0.5062  1.2671
12382SOL    HW241958   2.420   4.629   4.148  0.6369 -1.7515 -1.9126
12383SOL     OW41959   6.753   3.588  11.340  0.1748 -0.2363  0.4429
12383SOL    HW141960   6.721   3.500  11.319  1.3375 -0.9414  1.4977
12383SOL    HW241961   6.739   3.639  11.260 -1.6395 -1.0380  0.1976
12384SOL     OW41962  10.793   6.790   6.281  0.0616 -0.2540  0.0670
12384SOL    HW141963  10.859   6.730   6.318 -1.0227  0.0179  2.6970
12384SOL    HW241964  10.751   6.739   6.212  0.8294 -1.6112  0.5528
12385SOL     OW41965  11.625   9.410   6.326  0.2151 -0.0510 -0.1886
12385SOL    HW141966  11.652   9.481   6.383 -1.5754  1.2159 -0.8419
12385SOL    HW241967  11.544   9.440   6.285 -0.5014 -2.3728 -0.6743
12386SOL     OW41968  12.566   3.719   7.542 -0.1587  0.0251 -0.5229
12386SOL    HW141969  12.559   3.740   7.449 -0.6029  1.7952 -0.1202
12386SOL    HW241970  12.475   3.705   7.570 -0.1087  0.3720 -0.1765
12387SOL     OW41971   5.873   2.257  10.477  0.4576 -0.0777 -0.9752
12387SOL    HW141972   5.833   2.324  10.532  1.1896  1.1961 -1.9601
12387SOL    HW241973   5.941   2.218  10.533 -0.5835 -0.6621 -0.0868
12388SOL     OW41974   7.719  10.332   8.378  0.7607 -0.1395  0.3113
12388SOL    HW141975   7.799  10.316   8.328  1.6182 -0.1337  1.6222
12388SOL    HW241976   7.661  10.260   8.354  1.8434 -1.1684  0.6703
12389SOL     OW41977  11.015   0.732  12.256 -0.0279  0.5288  0.1444
12389SOL    HW141978  11.051   0.649  12.225  2.2298  1.5928 -0.2280
12389SOL    HW241979  11.012   0.787  12.178  1.3827  1.7554  0.9081
12390SOL     OW41980   5.994   3.963  10.257 -0.0794 -0.1798  0.0756
12390SOL    HW141981   5.974   3.974  10.164  0.3392  0.7186  0.0782
12390SOL    HW241982   5.956   3.879  10.280 -2.2780  0.6269 -0.3537
12391SOL     OW41983   3.135   6.226  10.448  0.1887 -0.1720 -0.1061
12391SOL    HW141984   3.225   6.196  10.435  0.3981  0.1076  0.6548
12391SOL    HW241985   3.082   6.147  10.439  0.6628 -0.6384  1.0678
12392SOL     OW41986   2.134   8.072   2.790 -0.2986  0.7586  0.2286
12392SOL    HW141987   2.212   8.113   2.828  0.3497  0.9138 -1.1945
12392SOL    HW241988   2.168   7.998   2.740 -0.8819  1.6294 -1.5507
12393SOL     OW41989   1.245  11.746  12.030 -0.6891 -0.4045  0.3713
12393SOL    HW141990   1.157  11.758  11.994 -0.2730  0.5479 -0.3698
12393SOL    HW241991   1.298  11.814  11.988  0.2760 -0.5824  1.2538
12394SOL     OW41992   1.265   4.288   4.301 -0.7312 -0.2338 -0.6066
12394SOL    HW141993   1.292   4.205   4.263  0.7052 -0.0987  0.0476
12394SOL    HW241994   1.333   4.350   4.275 -1.3303  0.5454 -0.3671
12395SOL     OW41995  11.505   0.603   7.300 -0.1884  0.4201  0.5025
12395SOL    HW141996  11.520   0.641   7.213  1.1586  0.0746  0.5666
12395SOL    HW241997  11.413   0.576   7.298 -0.2303  0.5735 -0.7574
12396SOL     OW41998   8.293   2.409   4.429  0.3511  0.7475 -0.6299
12396SOL    HW141999   8.259   2.394   4.341  1.0932  1.0533 -0.9820
12396SOL    HW242000   8.387   2.392   4.421  0.5476  1.5592 -0.0815
12397SOL     OW42001   0.803   0.987  11.196  0.3218  0.7238 -0.3225
12397SOL    HW142002   0.768   0.940  11.271 -1.8338  1.3364 -0.8954
12397SOL    HW242003   0.881   1.032  11.231  1.3281 -1.6353  0.6774
12398SOL     OW42004   6.099  10.243   4.793 -0.6933 -0.1800  0.1553
12398SOL    HW142005   6.029  10.177   4.793 -0.7031 -0.1779  1.1569
12398SOL    HW242006   6.064  10.314   4.847  0.0039 -0.0945  0.5005
12399SOL     OW42007   7.547   1.121   4.703  0.4537  0.1927  1.2682
12399SOL    HW142008   7.544   1.216   4.696  1.1293  0.1992  1.0315
12399SOL    HW242009   7.507   1.090   4.622  2.2915  0.2865  0.2662
12400SOL     OW42010  12.120   8.441   5.511  0.1460  0.2098  0.0068
12400SOL    HW142011  12.047   8.380   5.523  0.8228 -0.4801  0.7442
12400SOL    HW242012  12.196   8.395   5.548  1.3440  0.1245 -2.3926
12401SOL     OW42013   0.770   1.268   6.352 -0.1557  0.4948 -0.0256
12401SOL    HW142014   0.705   1.245   6.419  0.0477 -0.7914 -0.2379
12401SOL    HW242015   0.848   1.292   6.401 -0.0165 -0.4160  0.2177
12402SOL     OW42016  10.768   7.226  12.584  0.1137  1.0794  0.1622
12402SOL    HW142017  10.696   7.224  12.521 -1.4199  1.3204  1.8221
12402SOL    HW242018  10.847   7.236  12.530 -0.9359 -0.4722 -1.8165
12403SOL     OW42019   0.718  10.091  11.107  0.3033  0.4307  0.1342
12403SOL    HW142020   0.764  10.089  11.023 -1.2343  0.3714 -0.7475
12403SOL    HW242021   0.703  10.184  11.125 -1.2508  0.3840 -0.7701
12404SOL     OW42022   1.960  12.443  10.733 -0.3882 -0.1111  0.2428
12404SOL    HW142023   1.976  12.533  10.705 -2.6799  0.0837 -0.6916
12404SOL    HW242024   1.998  12.389  10.664  1.0504  0.1092  0.8368
12405SOL     OW42025  10.006   9.393   0.437 -0.0423  0.2341 -0.1313
12405SOL    HW142026   9.960   9.354   0.511 -0.5143 -0.6012 -0.8488
12405SOL    HW242027   9.951   9.375   0.362  0.2684  1.3573 -0.6557
12406SOL     OW42028   5.591   5.869   3.744  0.1836  0.0218  0.2433
12406SOL    HW142029   5.611   5.932   3.813 -0.1118  0.6932 -0.2787
12406SOL    HW242030   5.651   5.796   3.760 -1.6113 -1.0521  2.8083
12407SOL     OW42031   7.904   6.005   2.071  0.1834 -0.1175 -0.1447
12407SOL    HW142032   7.816   5.966   2.069  0.0503  0.1623  0.2627
12407SOL    HW242033   7.955   5.950   2.012  0.3483 -1.7385  1.4280
12408SOL     OW42034   5.404   2.962  10.457  0.6248  0.1622 -0.1453
12408SOL    HW142035   5.477   2.947  10.517  0.7565  0.4246 -0.2348
12408SOL    HW242036   5.422   3.048  10.419  0.4084  0.1099 -0.3699
12409SOL     OW42037   1.990   4.920   2.220 -0.3454 -0.0416  0.2914
12409SOL    HW142038   2.064   4.973   2.249  0.0798 -0.3422 -0.2217
12409SOL    HW242039   1.946   4.973   2.154  1.3604 -1.1337 -1.8672
12410SOL     OW42040  10.901   2.165   6.957  0.5180  0.1758  0.4332
12410SOL    HW142041  10.944   2.226   7.016 -0.2140  1.5376 -0.3985
12410SOL    HW242042  10.808   2.178   6.973  0.3052  0.6458 -1.0634
12411SOL     OW42043  12.594   0.361   6.838 -0.3414  0.0375 -0.3479
12411SOL    HW142044  12.637   0.385   6.920  0.0114 -1.2747 -0.1223
12411SOL    HW242045  12.501   0.378   6.855 -0.2541 -0.0670  0.2683
12412SOL     OW42046   3.548   3.651  11.094  0.2043  0.2470 -0.0564
12412SOL    HW142047   3.489   3.682  11.026 -0.4736 -2.1262 -0.6284
12412SOL    HW242048   3.492   3.637  11.171  0.4830  0.3757  0.1747
12413SOL     OW42049   5.645   7.584  10.573 -0.0834  0.4127  0.5043
12413SOL    HW142050   5.621   7.674  10.549 -0.9629  0.2054  0.5744
12413SOL    HW242051   5.597   7.529  10.510  2.5401  0.0423 -1.3087
12414SOL     OW42052  10.522   0.513   4.659  0.0232  0.5283  0.0741
12414SOL    HW142053  10.550   0.454   4.729  0.0842  1.2125  0.6353
12414SOL    HW242054  10.516   0.599   4.700  2.4762  1.4513 -1.2882
12415SOL     OW42055   4.360   4.264   5.377  0.1474 -0.2618 -0.4294
12415SOL    HW142056   4.385   4.350   5.343 -1.2450  0.5722  0.5592
12415SOL    HW242057   4.338   4.279   5.469 -1.3639 -1.3888 -0.5532
12416SOL     OW42058   2.414   1.896   2.286 -0.1826  0.1359  0.0975
12416SOL    HW142059   2.355   1.953   2.335  0.3097  0.1812  0.6520
12416SOL    HW242060   2.369   1.812   2.283 -0.5325  0.3262  0.0134
12417SOL     OW42061   5.176   7.102  12.474  0.1091  0.2982 -0.2413
12417SOL    HW142062   5.095   7.153  12.470  0.9347  1.5729 -1.6344
12417SOL    HW242063   5.196   7.081  12.382  1.3935  0.0599  0.0706
12418SOL     OW42064  10.680  11.334  10.960 -0.1514 -0.0611  0.4379
12418SOL    HW142065  10.594  11.371  10.980  0.8638  2.9534 -0.1689
12418SOL    HW242066  10.688  11.343  10.865  0.2305 -1.8454  0.2757
12419SOL     OW42067   3.595  12.556   6.475 -0.0771 -0.0181  0.0394
12419SOL    HW142068   3.669  12.585   6.528  0.6151 -0.5481 -0.6171
12419SOL    HW242069   3.632  12.538   6.389 -0.8017 -1.0990 -0.0737
12420SOL     OW42070  10.630  10.509   0.721 -0.4804 -0.1207  0.0588
12420SOL    HW142071  10.540  10.504   0.690 -0.2036 -2.0707 -0.5576
12420SOL    HW242072  10.625  10.497   0.816 -0.8983  0.3511  0.0982
12421SOL     OW42073  12.461   1.122  12.102 -0.2204  0.3548 -0.0511
12421SOL    HW142074  12.420   1.088  12.182 -2.4395 -0.7356 -1.5406
12421SOL    HW242075  12.549   1.149  12.130 -0.5375 -0.9227  2.5168
12422SOL     OW42076  10.198   9.915  11.547  0.0275  0.4844  0.0845
12422SOL    HW142077  10.293   9.930  11.551  0.0413  0.9885 -1.3995
12422SOL    HW242078  10.184   9.875  11.461 -0.9500 -0.9956  0.8929
12423SOL     OW42079   0.105   7.416   2.096 -0.2474 -0.0138 -0.5416
12423SOL    HW142080   0.053   7.493   2.074 -0.9342 -0.1507  0.5210
12423SOL    HW242081   0.109   7.417   2.192  2.1272  0.2680 -0.5766
12424SOL     OW42082   2.804  10.211   4.066  0.3037  0.3752  0.0256
12424SOL    HW142083   2.774  10.164   4.144 -1.1845 -1.2280 -1.4129
12424SOL    HW242084   2.893  10.178   4.051  0.1077 -0.3105  0.3127
12425SOL     OW42085   5.642  10.913   0.055 -0.2681  0.1349  0.7040
12425SOL    HW142086   5.679  10.892  -0.030  1.8958  0.4745  1.5044
12425SOL    HW242087   5.621  10.828   0.094  0.4196 -0.1197  0.5302
12426SOL     OW42088   8.781  11.172   8.889 -0.2875 -0.0164 -0.5740
12426SOL    HW142089   8.858  11.119   8.872  0.1697  0.2355  0.6615
12426SOL    HW242090   8.711  11.109   8.906  0.7411 -0.3564  3.1712
12427SOL     OW42091   3.225   6.861   2.555  0.9502  0.0389 -0.2446
12427SOL    HW142092   3.266   6.794   2.499  0.9103  0.6412 -1.0134
12427SOL    HW242093   3.132   6.839   2.555  1.1024 -0.6747  0.5949
12428SOL     OW42094   4.435   7.466  10.998  0.0406  0.3834  0.0892
12428SOL    HW142095   4.372   7.506  10.938 -0.3656  0.4554  0.5520
12428SOL    HW242096   4.382   7.438  11.073  0.5097  0.1273  0.3297
12429SOL     OW42097   4.087   0.450   0.935  0.0909  0.7801  0.1900
12429SOL    HW142098   4.002   0.477   0.900 -0.2535  1.9342  1.7795
12429SOL    HW242099   4.150   0.505   0.888 -0.2940  1.7774  0.7989
12430SOL     OW42100   3.150   9.649   1.654  0.2235 -0.3135  0.6323
12430SOL    HW142101   3.235   9.693   1.659 -0.3914  1.2248 -1.2658
12430SOL    HW242102   3.167   9.570   1.602  0.6542 -0.5068  1.0591
12431SOL     OW42103   9.519   4.238   4.557 -0.4161  0.4543 -0.4434
12431SOL    HW142104   9.456   4.310   4.558  0.1678  0.9848  0.5673
12431SOL    HW242105   9.515   4.201   4.645 -0.0747 -0.1700 -0.6879
12432SOL     OW42106   8.892   6.801   7.860 -0.2168 -0.0268 -0.0788
12432SOL    HW142107   8.821   6.787   7.923 -0.5112  0.1276 -0.3690
12432SOL    HW242108   8.903   6.716   7.818 -0.3585 -0.0050 -0.1625
12433SOL     OW42109   2.412   2.414   9.193  0.3242  0.2027  0.2016
12433SOL    HW142110   2.453   2.366   9.265  0.6424  0.3700  0.1330
12433SOL    HW242111   2.414   2.506   9.220  2.5855  0.5748 -1.0071
12434SOL     OW42112   0.646   3.603   7.071 -0.0666 -0.1628 -0.2267
12434SOL    HW142113   0.562   3.650   7.071 -0.1004 -0.2136 -0.8555
12434SOL    HW242114   0.621   3.511   7.081 -0.0530 -0.1355  0.0767
12435SOL     OW42115   4.973   0.424  10.442 -0.0808 -0.2845 -0.0067
12435SOL    HW142116   4.954   0.345  10.493 -0.5441 -0.2046 -0.0479
12435SOL    HW242117   4.891   0.442  10.394  0.3364 -0.3379 -0.7535
12436SOL     OW42118   0.254   8.818  11.591  0.3966 -0.1616  0.1117
12436SOL    HW142119   0.207   8.902  11.593 -0.7753 -0.7891 -0.2692
12436SOL    HW242120   0.186   8.752  11.604  1.2072 -1.0948 -0.2579
12437SOL     OW42121   9.283   8.430   4.613  0.0932  0.0005 -0.4096
12437SOL    HW142122   9.208   8.432   4.671  0.4534 -2.7421  0.2936
12437SOL    HW242123   9.359   8.432   4.671  0.4883 -0.5866 -0.8844
12438SOL     OW42124   2.884   0.577   8.110  0.1851 -0.5282 -0.0061
12438SOL    HW142125   2.802   0.624   8.124  0.1616 -0.8283  1.0103
12438SOL    HW242126   2.948   0.645   8.089  0.2995  0.0886  2.0889
12439SOL     OW42127   4.679   2.074  11.777 -0.9322  0.0602 -0.4726
12439SOL    HW142128   4.596   2.026  11.778 -0.1446 -1.3880  0.4574
12439SOL    HW242129   4.707   2.074  11.869 -0.8482  2.2943 -0.4510
12440SOL     OW42130  11.648   7.863   7.528 -0.1566  0.5364 -0.7205
12440SOL    HW142131  11.617   7.811   7.453  0.4427 -0.2246 -0.4577
12440SOL    HW242132  11.568   7.898   7.567 -0.7066 -1.1520 -0.2285
12441SOL     OW42133  11.421   0.336   5.330 -0.8439  0.5916 -0.2097
12441SOL    HW142134  11.393   0.326   5.421 -0.0727 -2.0079 -0.1762
12441SOL    HW242135  11.499   0.391   5.335  0.4455 -1.2561  0.9954
12442SOL     OW42136   9.473   9.653  11.538 -0.1662 -0.5789 -0.2829
12442SOL    HW142137   9.440   9.741  11.517 -1.1570 -0.6582  0.8616
12442SOL    HW242138   9.499   9.658  11.630  1.3275 -1.0529 -0.6455
12443SOL     OW42139   9.446   7.215  10.822  0.3024 -0.3141  0.4928
12443SOL    HW142140   9.516   7.274  10.793  0.6973  0.2465  2.4270
12443SOL    HW242141   9.459   7.208  10.916 -2.9260  0.7211  1.1384
12444SOL     OW42142  11.257   9.481   4.605  0.1630 -0.0215  0.4512
12444SOL    HW142143  11.203   9.402   4.600  2.3822 -1.7945  2.0603
12444SOL    HW242144  11.194   9.552   4.617 -2.0041 -1.3008 -2.1916
12445SOL     OW42145   1.368   5.741  10.409  0.1164 -0.7874 -0.3516
12445SOL    HW142146   1.325   5.732  10.494  1.3637  1.2020  0.5456
12445SOL    HW242147   1.298   5.768  10.350 -0.8403 -2.5398 -0.1169
12446SOL     OW42148   1.927   9.689   1.501 -0.0188  0.1056  0.2718
12446SOL    HW142149   1.858   9.713   1.563  1.6413  0.9316  1.9231
12446SOL    HW242150   1.937   9.766   1.445 -1.6105 -0.6900 -1.2172
12447SOL     OW42151   8.915   2.550   4.225 -0.7272  0.0838 -0.2789
12447SOL    HW142152   9.004   2.519   4.211 -0.4272  1.3566 -1.3794
12447SOL    HW242153   8.868   2.474   4.260  0.8853 -0.4634  0.7815
12448SOL     OW42154   8.158  11.371   3.770  0.4107  0.1622 -0.5022
12448SOL    HW142155   8.142  11.463   3.791  0.3936  0.1245 -0.3496
12448SOL    HW242156   8.162  11.369   3.675  2.0453  0.6055 -0.4784
12449SOL     OW42157   2.798   5.874   1.982 -0.3223  0.5958 -0.1712
12449SOL    HW142158   2.884   5.865   2.022 -0.9038  1.8111  1.4533
12449SOL    HW242159   2.739   5.826   2.041 -0.7993 -0.1916 -1.2388
12450SOL     OW42160   6.208   8.705   5.154 -0.3889 -0.5529 -0.0914
12450SOL    HW142161   6.159   8.759   5.092  0.5614  0.2127 -0.1837
12450SOL    HW242162   6.260   8.646   5.099  0.6411  0.2918 -0.0436
12451SOL     OW42163  10.190   7.837   0.047 -0.6550 -0.4625 -0.4193
12451SOL    HW142164  10.166   7.793   0.129  0.4453 -1.1586 -0.4488
12451SOL    HW242165  10.236   7.916   0.075 -1.1898 -0.1716 -0.3641
12452SOL     OW42166  11.674   5.314   7.464 -0.1568  0.3898  0.5210
12452SOL    HW142167  11.585   5.300   7.433 -0.2882  1.5473  0.3273
12452SOL    HW242168  11.716   5.228   7.458 -1.0447 -0.0141 -0.0584
12453SOL     OW42169   7.282   9.527   5.253 -0.1412  0.4386 -0.2542
12453SOL    HW142170   7.331   9.585   5.195 -0.6455  0.8413 -0.2868
12453SOL    HW242171   7.348   9.470   5.291  0.0878 -0.5334 -2.0149
12454SOL     OW42172   8.505   9.624   5.514  0.7519 -0.0648 -0.1433
12454SOL    HW142173   8.486   9.717   5.519  0.7777 -0.0616 -0.1014
12454SOL    HW242174   8.538   9.601   5.601  0.8613 -0.0869 -0.1900
12455SOL     OW42175   7.861  10.149   1.472 -0.6798 -0.6120 -0.2384
12455SOL    HW142176   7.872  10.127   1.564  1.2311  0.0749 -0.2602
12455SOL    HW242177   7.782  10.203   1.469  0.9230  2.0235  1.5374
12456SOL     OW42178  10.108   3.722   3.306  0.3496  0.0110 -0.1380
12456SOL    HW142179  10.175   3.785   3.281  0.9883 -1.1559 -1.5198
12456SOL    HW242180  10.114   3.717   3.401  0.3727  1.8912  0.0053
12457SOL     OW42181  10.000   4.964   7.305  0.3531 -0.0191  0.2180
12457SOL    HW142182   9.972   4.948   7.395 -0.3548  1.2787  0.2539
12457SOL    HW242183   9.967   5.052   7.285  2.1927  0.5100 -0.6527
12458SOL     OW42184   8.025   0.657   5.247 -0.0621 -0.1566  0.5613
12458SOL    HW142185   8.053   0.574   5.207 -0.2612 -0.1937  0.4983
12458SOL    HW242186   7.931   0.645   5.262  0.0741 -0.2851  1.3674
12459SOL     OW42187   2.787  10.353   3.507  0.2306  0.1678 -0.5001
12459SOL    HW142188   2.723  10.343   3.437 -0.7062  0.8107  0.2219
12459SOL    HW242189   2.757  10.293   3.576  0.0552  0.9008  0.0769
12460SOL     OW42190  10.929   8.806   0.911 -0.6893  0.5418  0.1633
12460SOL    HW142191  10.834   8.816   0.902 -1.3040 -3.5376  0.4357
12460SOL    HW242192  10.941   8.766   0.997  0.9627 -1.7349 -1.0360
12461SOL     OW42193   4.504   9.385   0.095 -0.0046  0.2736 -0.2856
12461SOL    HW142194   4.440   9.400   0.165 -0.9740 -0.1903 -1.0383
12461SOL    HW242195   4.538   9.297   0.113 -0.1600  0.2053 -0.3187
12462SOL     OW42196  10.994   7.942  10.472  0.0129 -0.1220 -0.0385
12462SOL    HW142197  11.003   7.863  10.525  2.2043  0.1235  0.0528
12462SOL    HW242198  10.966   7.911  10.386 -0.6641 -0.8255  0.4331
12463SOL     OW42199  10.474   2.147   9.883 -0.0137 -0.1573  0.0645
12463SOL    HW142200  10.511   2.102   9.806  2.6016  1.5347  0.2140
12463SOL    HW242201  10.400   2.197   9.848  1.1826  0.6556 -1.4311
12464SOL     OW42202   5.311   5.856   3.317 -0.1580 -0.2907 -0.1471
12464SOL    HW142203   5.340   5.912   3.244  0.8856  0.4567  0.8026
12464SOL    HW242204   5.358   5.890   3.393 -1.1393 -1.1272  0.8647
12465SOL     OW42205   3.485   5.957  11.245 -0.2480 -0.1421  0.1744
12465SOL    HW142206   3.578   5.974  11.232 -0.0549 -1.7740 -0.8818
12465SOL    HW242207   3.480   5.910  11.328 -0.0962 -0.3801  0.0473
12466SOL     OW42208   3.776   5.335   9.786 -0.2034  0.3661  0.3711
12466SOL    HW142209   3.746   5.426   9.789  1.6046  1.0397 -0.4055
12466SOL    HW242210   3.814   5.325   9.698 -0.0393 -1.0343  0.5729
12467SOL     OW42211   2.018  11.654  10.012  0.3202  0.4723 -0.4174
12467SOL    HW142212   2.037  11.567  10.047 -1.5398  0.2581  0.1609
12467SOL    HW242213   2.059  11.654   9.925  1.6154 -0.4164  0.1536
12468SOL     OW42214   9.612   1.853   0.737 -0.5668 -0.2580  0.2267
12468SOL    HW142215   9.705   1.836   0.722 -0.0998  1.7401  0.5595
12468SOL    HW242216   9.593   1.808   0.820 -0.4731 -2.4097 -0.8466
12469SOL     OW42217   3.462   7.297   1.460 -0.2388 -0.3178  0.0230
12469SOL    HW142218   3.519   7.373   1.452 -0.5004 -0.1563 -0.3163
12469SOL    HW242219   3.513   7.224   1.425 -0.3293 -0.1299 -0.5026
12470SOL     OW42220  11.926  11.624  10.792  0.5133  0.4907  0.9855
12470SOL    HW142221  11.861  11.690  10.768  0.6910  0.3208  0.0020
12470SOL    HW242222  11.877  11.559  10.843  0.0861  0.7690  0.9289
12471SOL     OW42223  12.184   3.827  12.588  0.3778 -0.2882 -0.0283
12471SOL    HW142224  12.183   3.731  12.595 -0.4935 -0.2665  0.3163
12471SOL    HW242225  12.160   3.857  12.675  2.5192  0.3052  0.4159
12472SOL     OW42226  12.383  11.674  10.293  0.2854 -0.3078  0.2151
12472SOL    HW142227  12.375  11.723  10.211  4.3836  0.2265 -0.0785
12472SOL    HW242228  12.390  11.742  10.361 -4.1376 -0.7237  1.4176
12473SOL     OW42229   7.891   9.466   2.860 -0.1317  0.1477  0.2884
12473SOL    HW142230   7.972   9.515   2.873  0.1334  0.3469 -1.7875
12473SOL    HW242231   7.846   9.470   2.944  1.0036  1.8943  0.8454
12474SOL     OW42232   0.410   4.407   0.567 -0.3616  0.1694 -0.1866
12474SOL    HW142233   0.414   4.317   0.599 -0.1477  0.0654 -0.5067
12474SOL    HW242234   0.485   4.416   0.508 -0.8210  0.3209 -0.7626
12475SOL     OW42235   3.613   5.276   2.953  0.1769 -0.2047  0.2107
12475SOL    HW142236   3.532   5.231   2.928 -0.3462 -0.7430  2.6219
12475SOL    HW242237   3.658   5.293   2.870 -1.5375 -1.5239 -1.0575
12476SOL     OW42238   2.185   2.065   1.778  0.3852 -0.1686  0.5762
12476SOL    HW142239   2.106   2.035   1.733  0.7405 -1.6739  0.9228
12476SOL    HW242240   2.257   2.020   1.734  1.3428  2.7938 -1.1833
12477SOL     OW42241   8.957   9.499   6.381  0.7077 -0.4162  0.6745
12477SOL    HW142242   8.991   9.552   6.309 -2.2641  0.8722  0.0473
12477SOL    HW242243   8.998   9.536   6.460 -0.6737  2.4890  0.1834
12478SOL     OW42244  10.336   9.384   3.385 -0.0608  0.6070  0.2719
12478SOL    HW142245  10.261   9.387   3.445 -0.0516  1.7843  0.2460
12478SOL    HW242246  10.310   9.321   3.318 -0.5224  0.0919  0.9212
12479SOL     OW42247   1.628  11.698   6.144 -0.2840  0.5820 -0.0263
12479SOL    HW142248   1.556  11.642   6.114 -0.1680  0.2335  0.3454
12479SOL    HW242249   1.623  11.775   6.087  1.4164 -1.0621 -2.6346
12480SOL     OW42250  11.793  10.135  11.608 -0.1830  0.1230 -0.3915
12480SOL    HW142251  11.799  10.228  11.630 -1.3411 -0.1774  1.3471
12480SOL    HW242252  11.884  10.106  11.601  0.1925  1.1754 -0.0645
12481SOL     OW42253  12.565   1.915   9.908 -0.0850 -0.4912 -0.0988
12481SOL    HW142254  12.491   1.918   9.848 -0.3036 -0.0697  0.1858
12481SOL    HW242255  12.548   1.985   9.971 -0.4029 -1.6038  1.0952
12482SOL     OW42256   8.498   2.069   3.001 -0.5689  0.7287 -0.0055
12482SOL    HW142257   8.574   2.014   2.984 -0.6928  0.5659 -0.0389
12482SOL    HW242258   8.531   2.141   3.055 -0.5761  0.1572  0.7743
12483SOL     OW42259   5.780   7.401   3.528 -0.3817 -0.6089  0.0751
12483SOL    HW142260   5.715   7.463   3.559 -0.0454 -0.7029  0.9878
12483SOL    HW242261   5.850   7.456   3.493 -0.8300 -0.5057 -0.6799
12484SOL     OW42262  10.025   5.150  10.602 -0.1092 -0.1026 -0.4253
12484SOL    HW142263  10.084   5.100  10.545 -0.0697 -1.2189  0.5571
12484SOL    HW242264  10.075   5.228  10.626 -0.2785  0.5978 -2.2205
12485SOL     OW42265   9.880   6.222  12.130 -0.1234  0.3807 -0.3329
12485SOL    HW142266   9.876   6.217  12.226 -1.5264 -0.4100 -0.4101
12485SOL    HW242267   9.798   6.183  12.100  0.0412  1.1117 -1.8523
12486SOL     OW42268  10.963   8.008  12.179  0.6153 -0.1391  0.8004
12486SOL    HW142269  10.925   8.047  12.257 -1.0714  3.1172 -1.4178
12486SOL    HW242270  10.889   7.969  12.133  1.6445 -2.4229  0.9415
12487SOL     OW42271   6.744   1.887   2.519 -0.1262 -0.3993 -0.2598
12487SOL    HW142272   6.767   1.978   2.537 -1.1898 -0.1338 -0.1638
12487SOL    HW242273   6.760   1.841   2.601  0.7952 -0.3918 -0.4217
12488SOL     OW42274   0.920   1.982   7.959 -0.4411  0.2683  0.6318
12488SOL    HW142275   0.957   2.071   7.953  0.0919  0.1025  1.3147
12488SOL    HW242276   0.826   1.995   7.953 -0.3377  0.8188  0.0314
12489SOL     OW42277   5.516  11.657   5.072  0.2069  0.2475  0.0531
12489SOL    HW142278   5.571  11.664   4.994 -0.9904  0.3054 -0.8053
12489SOL    HW242279   5.436  11.616   5.042 -0.4777  0.7207  1.1529
12490SOL     OW42280   1.098   3.459   2.752  0.2252  0.6230 -0.8633
12490SOL    HW142281   1.179   3.453   2.702  0.9907 -1.1972  0.4729
12490SOL    HW242282   1.053   3.376   2.736 -0.6311  0.9728 -0.3577
12491SOL     OW42283   3.652  10.822  10.351  0.1217 -0.2055 -0.5559
12491SOL    HW142284   3.589  10.753  10.331 -1.6735  1.3293 -0.4381
12491SOL    HW242285   3.640  10.840  10.444  1.9200 -0.9636 -0.1160
12492SOL     OW42286   7.390   9.302  11.951 -0.1114 -0.1211 -0.2760
12492SOL    HW142287   7.443   9.223  11.952 -0.7146 -0.5545 -1.3316
12492SOL    HW242288   7.318   9.284  12.011 -0.7186 -0.7280 -1.1578
12493SOL     OW42289   0.715   5.503   8.635  0.5967 -0.3525  0.5250
12493SOL    HW142290   0.739   5.493   8.727  0.3760 -1.2574  0.4939
12493SOL    HW242291   0.745   5.422   8.593 -2.4523 -1.6343  0.5115
12494SOL     OW42292   8.702   5.274   0.866 -0.1212  0.7082 -0.1337
12494SOL    HW142293   8.720   5.244   0.777  0.3515  0.1190  0.1574
12494SOL    HW242294   8.714   5.369   0.862  1.2387  0.5334 -0.3855
12495SOL     OW42295   4.247  10.329   2.830  0.4593 -0.2011  0.4017
12495SOL    HW142296   4.262  10.235   2.818  0.1025 -0.3551  1.0640
12495SOL    HW242297   4.179  10.350   2.766 -0.4292 -0.6992  1.1533
12496SOL     OW42298   7.181   9.214   1.905 -0.6520  0.3450 -0.3873
12496SOL    HW142299   7.227   9.131   1.897 -1.0158  0.2612 -1.9555
12496SOL    HW242300   7.249   9.281   1.894 -0.5051  0.2537 -0.0457
12497SOL     OW42301  11.575   1.717  11.905  0.3177  0.8751 -0.0501
12497SOL    HW142302  11.566   1.708  11.810  2.0052  0.0325 -0.1670
12497SOL    HW242303  11.665   1.748  11.917  0.0047  1.3195  1.2758
12498SOL     OW42304  12.352   2.301   1.557 -0.6179 -0.0053  0.7381
12498SOL    HW142305  12.406   2.378   1.537 -1.9180  0.4949 -1.0966
12498SOL    HW242306  12.268   2.338   1.586 -0.2838 -0.7729  2.8958
12499SOL     OW42307   2.583   7.283  11.458 -0.1553 -0.0672  0.6393
12499SOL    HW142308   2.676   7.274  11.482  0.5491  2.2997 -0.8199
12499SOL    HW242309   2.579   7.253  11.367 -0.2314  2.1418 -0.1453
12500SOL     OW42310   1.394   1.006   7.984  0.3013 -0.0590  0.0583
12500SOL    HW142311   1.480   0.978   7.953  0.3662 -0.2643  0.4155
12500SOL    HW242312   1.378   1.089   7.939 -0.0793 -0.8759 -1.3432
12501SOL     OW42313   8.693   0.148   2.695 -0.1434 -0.1938  0.5467
12501SOL    HW142314   8.686   0.202   2.616  1.2601 -2.0128 -0.9210
12501SOL    HW242315   8.634   0.074   2.678  0.0818 -0.5385  1.2616
12502SOL     OW42316   3.790   7.386   2.386 -0.4942  0.0810 -0.4328
12502SOL    HW142317   3.860   7.406   2.324 -1.2133  0.3234 -1.1774
12502SOL    HW242318   3.821   7.309   2.433 -0.3729 -0.7252 -1.7847
12503SOL     OW42319   3.904   3.074  11.076  0.5887 -0.2365  0.1562
12503SOL    HW142320   3.912   3.168  11.092 -1.1994  0.4240 -2.2458
12503SOL    HW242321   3.810   3.059  11.069  0.9175 -1.8050 -1.6414
12504SOL     OW42322  10.036   4.411   0.383  1.0847  0.3389 -0.8818
12504SOL    HW142323  10.081   4.425   0.467  1.6674  0.3810 -1.1904
12504SOL    HW242324   9.944   4.429   0.401  1.3284  1.2104 -0.4542
12505SOL     OW42325   8.951   0.308   5.226 -0.1393 -0.0452 -0.5031
12505SOL    HW142326   9.018   0.244   5.252 -0.4172 -0.4892 -0.8616
12505SOL    HW242327   8.871   0.276   5.267 -0.2845  0.0572 -0.7082
12506SOL     OW42328   0.446  11.540   0.345 -0.1492  0.1681  0.5435
12506SOL    HW142329   0.486  11.614   0.300  1.6313 -0.8516  0.3318
12506SOL    HW242330   0.517  11.504   0.399 -1.1891 -0.9075  1.2564
12507SOL     OW42331  12.456   1.389   6.296  0.2697 -0.1026  0.3844
12507SOL    HW142332  12.538   1.438   6.300 -0.1238  0.5418  0.8277
12507SOL    HW242333  12.390   1.453   6.269 -0.1980 -0.4545  0.6513
12508SOL     OW42334   1.937   6.368   8.543  0.0145 -0.1229  0.4996
12508SOL    HW142335   1.877   6.358   8.469  0.2169  1.9074 -0.0027
12508SOL    HW242336   1.881   6.392   8.616  0.1559  2.2612 -0.0820
12509SOL     OW42337   0.737   2.928   3.307  0.2220 -0.1142  0.2329
12509SOL    HW142338   0.824   2.952   3.276  1.1038 -3.2177 -0.0562
12509SOL    HW242339   0.747   2.919   3.402  0.2587 -0.5896  0.1852
12510SOL     OW42340   7.824  12.099   7.657 -0.2063 -0.2358  0.2846
12510SOL    HW142341   7.782  12.094   7.571 -0.9533  1.0211  0.5518
12510SOL    HW242342   7.882  12.174   7.651  0.8184 -0.9928  0.4478
12511SOL     OW42343   1.425   7.693  10.455  0.2408  0.4793  0.3984
12511SOL    HW142344   1.438   7.709  10.548  0.5924  3.0950 -0.0412
12511SOL    HW242345   1.418   7.597  10.448  0.3444  0.2140  3.0573
12512SOL     OW42346   8.092  11.979   1.348 -0.3084 -0.0160  0.5083
12512SOL    HW142347   8.182  11.999   1.374  0.6325 -0.6150 -1.9932
12512SOL    HW242348   8.086  12.007   1.256 -3.3044  1.7544  1.0965
12513SOL     OW42349  11.850  11.367   5.886 -0.0411 -0.1052  0.1183
12513SOL    HW142350  11.819  11.281   5.913 -0.9095  0.4501  0.9141
12513SOL    HW242351  11.782  11.400   5.827  0.6432 -0.2633 -0.7797
12514SOL     OW42352   0.073   7.584   1.198  0.2405 -0.2634 -0.4103
12514SOL    HW142353   0.140   7.518   1.180 -1.6334 -2.7031  0.8370
12514SOL    HW242354   0.092   7.615   1.286 -0.3628 -1.1917  0.0716
12515SOL     OW42355  12.266   5.435  11.675 -0.1874 -0.1650 -0.3768
12515SOL    HW142356  12.227   5.356  11.637  0.5178 -0.5358 -0.3450
12515SOL    HW242357  12.355   5.409  11.698  0.9848  1.3658 -2.8216
12516SOL     OW42358   8.830  11.376   3.373  0.1887 -0.1109  0.0990
12516SOL    HW142359   8.806  11.307   3.435 -1.5830  0.3427 -0.0328
12516SOL    HW242360   8.925  11.369   3.365  0.1289 -2.0560  0.6376
12517SOL     OW42361   8.403   4.336   7.196 -0.1997  0.3615 -0.0066
12517SOL    HW142362   8.401   4.384   7.278  0.3188 -0.1960  0.3353
12517SOL    HW242363   8.491   4.349   7.161 -0.5492  0.9569 -0.6996
12518SOL     OW42364   8.802   0.869   7.845 -0.1688 -0.5253  0.0032
12518SOL    HW142365   8.811   0.959   7.814 -0.3422 -0.8546 -1.0600
12518SOL    HW242366   8.863   0.818   7.791 -2.6294 -1.5797 -2.0051
12519SOL     OW42367   2.103   0.742   2.869  0.3093  0.6768  0.6973
12519SOL    HW142368   2.114   0.826   2.826  2.2771 -0.7009 -1.7617
12519SOL    HW242369   2.024   0.704   2.830  0.8301  0.3699 -0.0780
12520SOL     OW42370   2.484   7.709   7.109  0.2025  0.0165  0.8125
12520SOL    HW142371   2.577   7.735   7.109 -0.0989  1.1518  1.1826
12520SOL    HW242372   2.450   7.743   7.026 -0.0840  0.4066  1.0850
12521SOL     OW42373   8.380   5.413   7.567 -0.5364 -0.1970 -0.6066
12521SOL    HW142374   8.429   5.333   7.582  3.3339  1.8846 -0.7748
12521SOL    HW242375   8.407   5.472   7.637 -3.1268  1.0834 -0.5497
12522SOL     OW42376   3.839  10.207  12.528 -0.1552 -0.5473 -0.0976
12522SOL    HW142377   3.883  10.198  12.444 -1.9155  0.3795 -1.1697
12522SOL    HW242378   3.796  10.122  12.542  0.6262 -0.9111  0.2046
12523SOL     OW42379  11.437   4.472   4.267 -0.1403 -0.0232  0.2236
12523SOL    HW142380  11.396   4.411   4.205 -2.7057  1.4660  0.3517
12523SOL    HW242381  11.385   4.464   4.346  0.6760  0.9654  0.8823
12524SOL     OW42382  10.596  11.914   4.035 -0.1926 -0.0958 -0.0296
12524SOL    HW142383  10.673  11.861   4.012 -0.6104 -0.0080 -1.7871
12524SOL    HW242384  10.597  11.986   3.972 -1.9435 -0.3471 -0.3985
12525SOL     OW42385   6.198   7.252   5.442  0.2556 -0.5250 -0.4780
12525SOL    HW142386   6.179   7.345   5.430 -0.2597 -0.4756  0.6688
12525SOL    HW242387   6.115   7.214   5.471  0.0071 -1.6693 -2.4807
12526SOL     OW42388  10.438   9.128   9.899 -0.3846 -0.1987  0.3751
12526SOL    HW142389  10.419   9.169   9.983  2.2124  0.3095  0.7783
12526SOL    HW242390  10.481   9.196   9.847 -0.2826 -1.0510 -0.6993
12527SOL     OW42391   9.862   4.637   0.798 -0.3201  0.0988  0.3076
12527SOL    HW142392   9.775   4.631   0.760  0.3704 -1.8691 -1.1968
12527SOL    HW242393   9.851   4.689   0.878 -2.2950  2.4878 -1.3503
12528SOL     OW42394   9.581   3.170   5.587  0.3078  0.2924 -0.8435
12528SOL    HW142395   9.554   3.262   5.588 -1.8678 -0.2875  0.5482
12528SOL    HW242396   9.608   3.152   5.677  1.1964 -0.3112 -1.2208
12529SOL     OW42397   3.455   9.117   4.465 -0.2123  0.7567  0.2612
12529SOL    HW142398   3.539   9.163   4.456  0.0397  0.4860  1.1276
12529SOL    HW242399   3.406   9.169   4.528 -0.9779  1.2857 -0.7375
12530SOL     OW42400   3.504   1.847   1.731 -0.1349 -0.1078  0.5814
12530SOL    HW142401   3.421   1.877   1.695  0.7756  1.6617 -0.1912
12530SOL    HW242402   3.544   1.797   1.660  0.1745  0.4848  0.3277
12531SOL     OW42403   9.890  11.831  11.583 -0.3679 -0.3747 -0.5187
12531SOL    HW142404   9.868  11.870  11.499 -0.0081  0.5365 -0.2018
12531SOL    HW242405   9.910  11.906  11.640  0.6835 -1.0242 -0.0002
12532SOL     OW42406   8.538   5.955   9.162 -0.1433 -0.4513  0.3541
12532SOL    HW142407   8.487   6.017   9.213  0.2661  1.2441 -1.1584
12532SOL    HW242408   8.474   5.907   9.110 -0.3255  1.0835 -0.9180
12533SOL     OW42409  12.370   3.820   1.269  0.4862 -0.0359  0.0668
12533SOL    HW142410  12.408   3.908   1.270  0.8190 -0.1648 -0.6643
12533SOL    HW242411  12.441   3.762   1.295 -0.3519  0.1023  2.9849
12534SOL     OW42412   3.994  11.675   1.664  0.5797 -0.4714  0.3596
12534SOL    HW142413   3.961  11.745   1.719  0.4071 -0.6973  0.5440
12534SOL    HW242414   4.051  11.719   1.601 -2.9499  0.5453 -2.4926
12535SOL     OW42415  10.644   0.104  10.511  0.6850  0.1896  0.1221
12535SOL    HW142416  10.646   0.020  10.557  0.3094  0.2354  0.2237
12535SOL    HW242417  10.599   0.164  10.571 -1.1522 -0.1078 -0.8744
12536SOL     OW42418   3.468   4.651   6.585 -0.3038 -0.7973 -0.1370
12536SOL    HW142419   3.405   4.723   6.590  0.2070 -0.1993 -1.8137
12536SOL    HW242420   3.432   4.592   6.519 -0.0406 -1.4098  0.2562
12537SOL     OW42421   0.254  12.164   8.177 -0.0897  0.8076 -0.5752
12537SOL    HW142422   0.268  12.238   8.237 -2.2224  0.3673  0.5746
12537SOL    HW242423   0.341  12.144   8.143  1.1508  1.4242  2.0047
12538SOL     OW42424   0.679   8.936   5.307 -0.2736 -0.2741  0.5092
12538SOL    HW142425   0.740   8.883   5.255  0.2363  0.5303  0.2556
12538SOL    HW242426   0.595   8.926   5.264 -0.8097 -2.9091  1.9262
12539SOL     OW42427   3.316   9.291   0.400 -0.0878 -0.2935 -0.4750
12539SOL    HW142428   3.305   9.244   0.318 -0.0540  0.3711 -0.8663
12539SOL    HW242429   3.380   9.238   0.449 -0.5292 -0.9883 -0.6308
12540SOL     OW42430  10.530   9.327   4.426  0.1534  0.3793  0.9246
12540SOL    HW142431  10.470   9.252   4.419 -0.2846  0.8394 -0.8464
12540SOL    HW242432  10.507   9.369   4.509 -1.6926  0.2656  0.5156
12541SOL     OW42433   7.819   6.420   5.791 -0.6316 -0.7451 -0.2034
12541SOL    HW142434   7.817   6.484   5.862  0.4672  0.7135 -1.4303
12541SOL    HW242435   7.867   6.463   5.720 -1.1346 -2.3860 -1.6205
12542SOL     OW42436   7.411   7.304   8.677 -1.0202  0.4011  0.2183
12542SOL    HW142437   7.369   7.224   8.708 -0.7976  0.0183 -0.4475
12542SOL    HW242438   7.436   7.351   8.757  0.1510 -0.8721  0.6531
12543SOL     OW42439   8.418   5.694   5.158 -0.4562 -0.1259  0.3250
12543SOL    HW142440   8.344   5.637   5.138 -1.0381 -0.2255  2.5033
12543SOL    HW242441   8.441   5.735   5.074 -2.2403 -0.9371 -0.6054
12544SOL     OW42442   1.978   6.551   2.947  0.1106  0.7292  0.4870
12544SOL    HW142443   1.891   6.580   2.974 -0.1115 -0.6952  1.4562
12544SOL    HW242444   1.986   6.463   2.984  1.6782  0.5398 -0.2160
12545SOL     OW42445   5.531  11.674   7.910 -0.2458 -0.4252 -0.1090
12545SOL    HW142446   5.443  11.655   7.877 -0.0485 -0.1842 -0.8014
12545SOL    HW242447   5.543  11.615   7.984 -2.4073  2.0103  2.3779
12546SOL     OW42448   9.538   5.646   4.671 -0.3115 -1.0677  1.1040
12546SOL    HW142449   9.567   5.622   4.583  3.0113 -0.2361  1.8039
12546SOL    HW242450   9.549   5.565   4.722  0.3262 -0.9000  1.2474
12547SOL     OW42451  10.607   8.208   5.068  0.3414  0.6966  0.4645
12547SOL    HW142452  10.533   8.225   5.009 -0.8111  1.1142  1.9715
12547SOL    HW242453  10.613   8.112   5.070  0.1524  0.6707 -0.0499
12548SOL     OW42454   2.891   2.402  12.590  0.1636 -0.5097  0.3768
12548SOL    HW142455   2.833   2.474  12.567  0.5704 -0.3994 -0.3272
12548SOL    HW242456   2.912   2.417  12.682 -0.1237  0.0077  0.3599
12549SOL     OW42457   5.950   2.011   3.527  0.4581  0.5371 -0.2111
12549SOL    HW142458   6.042   2.016   3.552  0.1743  0.8712  0.8275
12549SOL    HW242459   5.947   2.045   3.438  1.6146 -1.3430 -1.0284
12550SOL     OW42460   0.412   1.021  11.069 -0.1539 -0.6690  0.0106
12550SOL    HW142461   0.439   0.984  11.152  1.9010 -0.4044 -0.4752
12550SOL    HW242462   0.395   0.945  11.013  0.9401 -0.8971 -0.0432
12551SOL     OW42463   9.686  12.530  11.564 -0.3953  0.2320  0.0251
12551SOL    HW142464   9.676  12.459  11.627  2.0884 -0.4243 -0.2204
12551SOL    HW242465   9.776  12.522  11.533 -1.1412  1.3023 -2.6907
12552SOL     OW42466  11.113   2.071   4.357  0.2288  0.3260  0.2237
12552SOL    HW142467  11.173   1.999   4.338  0.1930  0.4430 -0.3711
12552SOL    HW242468  11.122   2.086   4.451  0.9804  0.2042  0.1791
12553SOL     OW42469   5.910   5.543   4.647 -0.0705 -0.0894 -0.0973
12553SOL    HW142470   5.868   5.605   4.587  1.0104  0.4992 -0.2714
12553SOL    HW242471   5.903   5.459   4.603 -1.5719 -0.1176  0.1482
12554SOL     OW42472   2.838   8.347   5.195  0.1943 -0.4363  0.3346
12554SOL    HW142473   2.776   8.416   5.171 -0.8274 -0.8921  1.5684
12554SOL    HW242474   2.900   8.344   5.122 -0.3239  1.0889 -0.2059
12555SOL     OW42475  10.613   8.171   1.549  0.2131  0.2545  0.0604
12555SOL    HW142476  10.669   8.095   1.565 -0.3307 -0.0992  0.3121
12555SOL    HW242477  10.527   8.145   1.582  0.0654  1.0544  0.3405
12556SOL     OW42478   3.038   5.697  11.038  0.1662  0.3912 -0.1409
12556SOL    HW142479   2.976   5.739  10.979  1.5068  2.4074 -0.2020
12556SOL    HW242480   3.108   5.761  11.050 -0.5115  0.5975  4.5846
12557SOL     OW42481  11.103   4.567   0.768  0.2587 -0.1905 -0.2406
12557SOL    HW142482  11.197   4.576   0.783  0.4861 -0.1566 -1.5444
12557SOL    HW242483  11.063   4.593   0.851  1.3676  0.4978  0.1081
12558SOL     OW42484   8.610   9.457   8.703  0.4209 -0.1029  0.3456
12558SOL    HW142485   8.663   9.456   8.624 -0.0948 -1.1057 -0.0082
12558SOL    HW242486   8.607   9.366   8.732 -1.4792 -0.1899  0.0649
12559SOL     OW42487   7.822   9.518  10.399  0.0817  0.2914 -0.0302
12559SOL    HW142488   7.898   9.567  10.369 -0.2799  1.1319  0.3905
12559SOL    HW242489   7.827   9.522  10.495  0.0883 -0.5685  0.0147
12560SOL     OW42490   0.926   9.299   9.077 -0.0126  0.0154 -0.1174
12560SOL    HW142491   0.908   9.379   9.028 -0.8535 -0.6249 -0.8952
12560SOL    HW242492   0.993   9.254   9.026  2.5138  1.4347  1.7170
12561SOL     OW42493   1.316  11.380  10.771 -0.4573 -0.5008  0.5216
12561SOL    HW142494   1.396  11.433  10.767  0.3336 -1.7323 -1.2085
12561SOL    HW242495   1.329  11.312  10.705 -2.9624 -0.7136  0.1521
12562SOL     OW42496   6.988   0.344  10.486 -0.1625 -0.4389 -0.1146
12562SOL    HW142497   6.974   0.361  10.393 -0.8513 -0.4896 -0.0227
12562SOL    HW242498   7.058   0.404  10.511 -0.8642  0.5025 -0.3681
12563SOL     OW42499   2.727   2.231   1.756  0.3689  0.0702 -0.0678
12563SOL    HW142500   2.778   2.247   1.676  1.0751  0.2028  0.3987
12563SOL    HW242501   2.665   2.304   1.760 -0.6462 -0.6929 -1.2386
12564SOL     OW42502   8.647   5.220   7.096  0.3043  0.3108 -0.7511
12564SOL    HW142503   8.589   5.221   7.020  0.3437  0.2148 -0.7828
12564SOL    HW242504   8.694   5.136   7.090 -0.5238 -0.2383  0.0063
12565SOL     OW42505   6.509   4.804   6.869  0.3070 -0.5405  0.0313
12565SOL    HW142506   6.425   4.758   6.869  0.9766 -1.8315  1.0770
12565SOL    HW242507   6.575   4.734   6.874  1.4964  0.4026 -1.6122
12566SOL     OW42508   4.948  11.708   9.274 -0.0461 -0.0333 -0.3284
12566SOL    HW142509   4.945  11.613   9.257  2.0874 -0.0378 -0.8647
12566SOL    HW242510   5.031  11.722   9.319 -0.6387  1.5294  0.3442
12567SOL     OW42511  11.930   9.305   1.137  0.4078 -0.2654 -0.2622
12567SOL    HW142512  11.863   9.267   1.079  1.2378 -2.3936  0.0543
12567SOL    HW242513  12.010   9.257   1.114  1.0235 -0.2922  1.7796
12568SOL     OW42514   8.305   3.621  10.136  0.2020  0.0053 -0.4212
12568SOL    HW142515   8.284   3.654  10.048 -2.4014  0.4726  0.2915
12568SOL    HW242516   8.281   3.693  10.194  0.4801 -0.8425  0.7644
12569SOL     OW42517   8.338   7.101   1.685 -0.0492  0.0102  0.5649
12569SOL    HW142518   8.337   7.008   1.708 -0.1567  0.2588  1.6570
12569SOL    HW242519   8.290   7.143   1.756 -0.7493  0.8156 -0.3661
12570SOL     OW42520   4.500   0.432   9.982 -0.3122 -0.8128 -0.5371
12570SOL    HW142521   4.467   0.450   9.894  0.7348 -0.4883 -0.8882
12570SOL    HW242522   4.593   0.456   9.977 -0.3275 -0.4493  0.7650
12571SOL     OW42523   8.410  12.524   4.239  0.1373 -0.5108  0.2047
12571SOL    HW142524   8.474  12.594   4.243  0.2057 -0.4847 -0.9586
12571SOL    HW242525   8.430  12.468   4.314  0.1831  0.6108  1.0461
12572SOL     OW42526   1.430   3.659   4.577 -0.0646 -0.4188 -0.2400
12572SOL    HW142527   1.442   3.575   4.621  0.7339  0.3045  0.9745
12572SOL    HW242528   1.357   3.700   4.623 -0.4147 -0.4075 -0.7928
12573SOL     OW42529   1.855   5.807   4.027 -0.0300  0.3445 -0.6604
12573SOL    HW142530   1.947   5.783   4.037 -0.0955  0.5253  0.4574
12573SOL    HW242531   1.812   5.726   3.998  0.0984 -0.3988  1.1109
12574SOL     OW42532  11.514   3.432   9.391  0.5971 -0.6703 -0.3945
12574SOL    HW142533  11.595   3.467   9.428  0.2414 -0.9037  0.6471
12574SOL    HW242534  11.541   3.352   9.346  0.6870 -2.0849  1.9625
12575SOL     OW42535   5.490   9.461  11.925 -0.2729 -0.2968 -0.2203
12575SOL    HW142536   5.549   9.522  11.969  0.6699 -1.9349  0.9121
12575SOL    HW242537   5.541   9.428  11.850  0.6696 -2.3448  1.2364
12576SOL     OW42538   6.938   3.651  10.226  0.7046  0.1788 -0.1074
12576SOL    HW142539   6.999   3.586  10.262 -0.9932 -1.9021 -0.7903
12576SOL    HW242540   6.992   3.706  10.170  1.9141 -2.0145 -1.2382
12577SOL     OW42541   6.704   9.292   8.354  0.8107  0.3849  0.4676
12577SOL    HW142542   6.678   9.367   8.408 -0.7661  0.1820  0.0575
12577SOL    HW242543   6.796   9.277   8.375  0.4358  0.7552  2.5555
12578SOL     OW42544   8.436  12.391  10.862  0.5556  0.2452 -0.0651
12578SOL    HW142545   8.447  12.427  10.774 -2.5050  1.4073 -0.1110
12578SOL    HW242546   8.475  12.457  10.920  1.5781  0.0114 -0.4701
12579SOL     OW42547  11.923   6.738   2.882  0.1702 -0.1969  0.0981
12579SOL    HW142548  11.879   6.754   2.965 -1.5273 -1.5087 -0.4950
12579SOL    HW242549  11.923   6.643   2.872  1.6998 -0.1554 -0.7209
12580SOL     OW42550   6.142   8.532   1.038  0.3843 -0.3873 -0.0989
12580SOL    HW142551   6.121   8.446   1.002 -0.0008 -0.1537 -0.4378
12580SOL    HW242552   6.184   8.513   1.122  0.5176 -0.9120 -0.2802
12581SOL     OW42553   7.228   9.101   9.782 -0.5407  0.1691  0.4455
12581SOL    HW142554   7.194   9.181   9.822 -1.2965 -0.5350  1.2776
12581SOL    HW242555   7.268   9.053   9.855 -0.0367 -0.1749 -0.0512
12582SOL     OW42556   0.412   3.020  10.279  0.0827 -0.4228  0.1134
12582SOL    HW142557   0.396   3.111  10.253  0.1384 -1.1329 -2.7301
12582SOL    HW242558   0.331   2.993  10.322 -0.5730  0.4910 -0.5149
12583SOL     OW42559  12.536   5.487   4.654 -0.2515 -0.5112 -0.7922
12583SOL    HW142560  12.507   5.397   4.635 -1.1648 -0.1472 -1.1995
12583SOL    HW242561  12.631   5.483   4.652 -0.2903 -1.3216 -1.5484
12584SOL     OW42562   0.080   5.063  10.475  0.2174  0.3167  0.6303
12584SOL    HW142563   0.150   4.998  10.472 -1.2644 -1.3576 -0.3215
12584SOL    HW242564   0.110   5.135  10.420  1.5561  0.0729  1.0164
12585SOL     OW42565   4.959  12.234   7.447 -0.4592  0.5972  0.1407
12585SOL    HW142566   5.019  12.230   7.521 -0.1728 -1.6446 -0.1482
12585SOL    HW242567   4.973  12.321   7.409  0.6428  1.1170  1.6518
12586SOL     OW42568  11.303   6.399   0.526  0.0643  0.3768  0.2458
12586SOL    HW142569  11.315   6.492   0.540  0.5528  0.6147 -1.5935
12586SOL    HW242570  11.391   6.363   0.520 -0.1190 -0.2027  0.8200
12587SOL     OW42571   1.886   7.568   2.960  0.3252 -0.1698  0.3400
12587SOL    HW142572   1.809   7.562   2.903 -0.2097  0.7672  0.9340
12587SOL    HW242573   1.865   7.511   3.035  0.1089  0.2592  0.6078
12588SOL     OW42574  11.457   3.419   2.210 -0.0620  0.5258 -0.6399
12588SOL    HW142575  11.539   3.428   2.259 -1.0201 -0.2028  1.2254
12588SOL    HW242576  11.395   3.473   2.259 -0.4850  1.9469 -2.6516
12589SOL     OW42577  10.894   5.827   4.183  0.1396  0.0572  0.5362
12589SOL    HW142578  10.814   5.780   4.205  1.0120 -1.5565  0.4539
12589SOL    HW242579  10.959   5.758   4.168  1.0461  1.2249 -1.4292
12590SOL     OW42580   3.809  10.038   7.112  0.3392 -0.1023 -0.4465
12590SOL    HW142581   3.778  10.079   7.193 -2.3681 -1.5769 -0.6331
12590SOL    HW242582   3.904  10.029   7.125  0.0497  0.0055  2.4469
12591SOL     OW42583   9.940   0.831  10.676 -0.2534  0.1058  0.0090
12591SOL    HW142584   9.960   0.756  10.620  2.6202  1.0071 -0.3021
12591SOL    HW242585   9.854   0.860  10.647 -0.7924 -2.1225 -0.8710
12592SOL     OW42586   8.009   4.420   0.755 -0.1671  0.0657 -0.0853
12592SOL    HW142587   7.998   4.325   0.758  0.7637 -0.0490 -0.1119
12592SOL    HW242588   8.036   4.444   0.844 -0.9650  0.3846  0.0788
12593SOL     OW42589   0.307   8.717   1.600  0.4937 -0.0129 -0.3417
12593SOL    HW142590   0.265   8.715   1.686  1.3549 -0.5384  0.0740
12593SOL    HW242591   0.401   8.721   1.619  0.7280 -0.9097 -1.2524
12594SOL     OW42592   4.653  12.089  10.992  0.0344 -0.1333 -0.6208
12594SOL    HW142593   4.561  12.070  11.007  0.6806 -2.3822  1.0816
12594SOL    HW242594   4.672  12.052  10.906 -0.5925  0.2105 -0.9111
12595SOL     OW42595   9.064   7.124   3.716  0.1609 -0.1204  0.8001
12595SOL    HW142596   9.078   7.171   3.634 -0.8475 -0.0267  0.6738
12595SOL    HW242597   9.110   7.041   3.705  2.5382  1.0264  1.2662
12596SOL     OW42598  11.958   9.529   3.705 -0.8239 -0.0944 -0.5249
12596SOL    HW142599  11.950   9.436   3.728  0.0455 -0.1005 -0.2276
12596SOL    HW242600  11.949   9.531   3.610 -0.2388 -0.5629 -0.5991
12597SOL     OW42601  11.103  11.572   4.778  0.1240  0.0173 -0.5020
12597SOL    HW142602  11.109  11.478   4.795  0.7389  0.3241  1.1553
12597SOL    HW242603  11.046  11.605   4.848  0.6348  1.0104 -0.5397
12598SOL     OW42604   6.285   4.064   8.030  0.1927 -0.3128  0.4539
12598SOL    HW142605   6.280   4.045   7.937  1.0266 -0.6625  0.4788
12598SOL    HW242606   6.254   3.984   8.073 -1.3352  0.2493  0.4788
12599SOL     OW42607   9.833   1.255  10.328  0.1141 -0.3009  0.2127
12599SOL    HW142608   9.770   1.263  10.257 -0.7060 -1.5311  0.7638
12599SOL    HW242609   9.799   1.184  10.383 -1.1645  2.7668  3.7602
12600SOL     OW42610   6.535   4.684   0.933 -0.3467  0.3615  0.0819
12600SOL    HW142611   6.570   4.725   0.853 -0.1020  0.8273  0.4221
12600SOL    HW242612   6.443   4.710   0.936 -0.0715  1.3082  0.5563
12601SOL     OW42613  11.886   8.080  11.043 -0.5016 -0.3379  0.3240
12601SOL    HW142614  11.968   8.057  11.000 -0.5065  1.5467 -0.8514
12601SOL    HW242615  11.912   8.125  11.123 -0.3366  0.4987 -0.1798
12602SOL     OW42616   1.004   9.800  11.479  0.1185  0.0219 -0.3008
12602SOL    HW142617   1.060   9.875  11.500  0.3869 -0.1663 -0.3467
12602SOL    HW242618   0.918   9.839  11.464  0.3294  0.3620 -0.6532
12603SOL     OW42619   0.502   5.265   0.561  0.8583 -0.0367  0.6262
12603SOL    HW142620   0.553   5.187   0.584 -0.0070 -0.5756  0.7636
12603SOL    HW242621   0.413   5.245   0.591  0.5743  0.9078  0.4409
12604SOL     OW42622   5.699   9.536   6.928  0.0330 -0.1042  0.7841
12604SOL    HW142623   5.725   9.589   7.003 -0.0220  0.0256  0.7113
12604SOL    HW242624   5.691   9.598   6.856  1.7456 -0.4529  0.2404
12605SOL     OW42625  12.307   7.225  11.119  0.1774  0.0464 -0.3021
12605SOL    HW142626  12.264   7.309  11.109  0.0415 -0.1966 -2.0098
12605SOL    HW242627  12.382   7.229  11.059 -0.0049 -1.1521 -0.6361
12606SOL     OW42628  11.521   0.888   5.580 -0.0153 -0.4401  0.0379
12606SOL    HW142629  11.537   0.841   5.661  2.9032 -1.8658 -1.2289
12606SOL    HW242630  11.521   0.820   5.512  1.9459  1.0456 -1.5799
12607SOL     OW42631  10.375   9.529  11.931 -0.6665  0.6890 -0.5641
12607SOL    HW142632  10.435   9.454  11.926 -0.0584  1.0156  1.3224
12607SOL    HW242633  10.301   9.503  11.876 -0.4523 -1.2768 -0.0032
12608SOL     OW42634  10.332  11.957   5.219 -0.3845  0.0441  0.1078
12608SOL    HW142635  10.308  11.908   5.298 -1.9785 -0.2394 -0.5086
12608SOL    HW242636  10.322  11.893   5.148  4.0647 -0.6737 -0.1444
12609SOL     OW42637  10.569   9.159   9.496  0.1183  0.0646  0.7593
12609SOL    HW142638  10.478   9.186   9.499  0.2306  0.5033  0.2502
12609SOL    HW242639  10.575   9.089   9.561 -0.9722 -1.1753 -0.4302
12610SOL     OW42640   5.523   1.230  10.679 -0.2904  0.7375  0.5416
12610SOL    HW142641   5.483   1.152  10.640  0.7287 -0.6458  2.1177
12610SOL    HW242642   5.579   1.265  10.609 -1.9908  1.0553 -0.7266
12611SOL     OW42643   8.493   0.053   2.438 -0.3312  0.1613  0.0917
12611SOL    HW142644   8.522  -0.009   2.506  0.8653 -1.4256 -1.7666
12611SOL    HW242645   8.507   0.006   2.356 -0.7306  2.4244 -1.3328
12612SOL     OW42646   7.474  10.279   2.776 -0.2406 -0.4607 -0.5103
12612SOL    HW142647   7.409  10.278   2.705 -0.4884 -3.3272 -0.3781
12612SOL    HW242648   7.555  10.252   2.733  0.0086 -0.4813 -0.0275
12613SOL     OW42649   9.474   3.213   3.747 -0.0765  0.1527 -0.0842
12613SOL    HW142650   9.382   3.188   3.737 -0.0219  0.5232 -1.8501
12613SOL    HW242651   9.480   3.299   3.705  0.9924  0.3231  0.3834
12614SOL     OW42652   8.972   4.069  10.178  0.3444  0.2820  0.6434
12614SOL    HW142653   8.927   4.010  10.238 -1.2859  0.9738  0.1735
12614SOL    HW242654   8.947   4.037  10.091  2.2638 -0.4054  0.3015
12615SOL     OW42655   5.846   4.910  11.625 -0.1441 -0.2743  0.8062
12615SOL    HW142656   5.802   4.844  11.572 -1.2495  0.8234  0.3024
12615SOL    HW242657   5.784   4.930  11.695  1.0950 -1.3424  2.2767
12616SOL     OW42658   5.515   8.314   3.672 -0.2350  0.2445 -0.0092
12616SOL    HW142659   5.465   8.256   3.730  0.4038  1.0876  1.4318
12616SOL    HW242660   5.540   8.388   3.728  2.1586  0.1117 -0.8155
12617SOL     OW42661   8.348   3.086   3.080  0.0727 -0.3274  0.6226
12617SOL    HW142662   8.338   3.171   3.037 -2.0267 -1.7060 -1.9897
12617SOL    HW242663   8.331   3.103   3.172 -0.1564  2.1117  0.1909
12618SOL     OW42664   4.253   3.220   9.788 -0.4271  0.3748  0.4044
12618SOL    HW142665   4.348   3.205   9.785 -0.1395  1.6517  1.7164
12618SOL    HW242666   4.245   3.312   9.813 -2.0350  0.6796 -1.1002
12619SOL     OW42667   0.027   6.799   9.535 -0.0976  0.2983  0.8160
12619SOL    HW142668  -0.024   6.879   9.524  0.2341  0.6720  1.8376
12619SOL    HW242669  -0.033   6.728   9.514 -0.0591  0.8409 -1.2711
12620SOL     OW42670   6.542  10.402  10.654  0.5339  0.2988  0.6156
12620SOL    HW142671   6.537  10.390  10.749 -1.9130 -0.5100  0.4499
12620SOL    HW242672   6.482  10.336  10.618 -0.2965  2.0041 -1.3415
12621SOL     OW42673   5.134   9.569   0.988  0.2694  0.0779  0.8063
12621SOL    HW142674   5.104   9.510   1.057  2.2165 -1.3235  0.5351
12621SOL    HW242675   5.193   9.631   1.033  1.5902 -0.8760  0.4415
12622SOL     OW42676  12.048   7.363   3.501 -0.1572 -0.4067 -0.3960
12622SOL    HW142677  12.125   7.389   3.451 -0.0308 -4.3397 -2.6039
12622SOL    HW242678  11.974   7.388   3.445 -0.0442 -3.8827 -2.3612
12623SOL     OW42679   3.783  11.029   0.539 -0.7316  0.2179  0.1076
12623SOL    HW142680   3.802  11.081   0.460 -1.4346  1.3244  0.6326
12623SOL    HW242681   3.826  10.945   0.524 -1.8109 -0.0371 -1.9799
12624SOL     OW42682   0.671   1.082   5.527 -0.6985  0.2107  0.7172
12624SOL    HW142683   0.580   1.094   5.551 -0.8906  1.1765 -0.3928
12624SOL    HW242684   0.717   1.153   5.572 -0.6542  0.3540  0.4488
12625SOL     OW42685   9.524   8.965   4.954 -0.1160  0.0998 -0.0070
12625SOL    HW142686   9.558   9.028   5.017  2.0449  0.5750 -1.5575
12625SOL    HW242687   9.447   8.927   4.998 -0.2601  2.2652  1.8063
12626SOL     OW42688   8.230   8.516   5.644  0.1010  0.2701  0.8492
12626SOL    HW142689   8.146   8.481   5.674  1.6721 -1.8210  3.2774
12626SOL    HW242690   8.234   8.605   5.680 -1.9213  1.2824 -1.2190
12627SOL     OW42691   7.543   7.232   7.768 -0.4663 -0.4276 -0.4893
12627SOL    HW142692   7.583   7.208   7.851 -0.5722  1.0716  0.0357
12627SOL    HW242693   7.449   7.217   7.782 -0.4449 -0.5611 -0.4848
12628SOL     OW42694   8.263   3.722   1.118 -1.0469  0.3744  0.2228
12628SOL    HW142695   8.321   3.691   1.048 -0.2296  0.2507  0.9468
12628SOL    HW242696   8.175   3.712   1.081 -0.6434  0.1123 -0.7117
12629SOL     OW42697  12.430   3.997   3.739  0.2198  0.5086 -0.1746
12629SOL    HW142698  12.338   4.000   3.714  0.5755  0.9655 -1.5500
12629SOL    HW242699  12.431   4.016   3.832 -1.0037  1.5052 -0.3446
12630SOL     OW42700   7.893   0.759   2.167 -0.5777  0.0721  0.1535
12630SOL    HW142701   7.830   0.829   2.147 -0.7594 -0.2226 -0.3163
12630SOL    HW242702   7.839   0.680   2.174 -0.4724  0.1022  1.4514
12631SOL     OW42703   0.105  11.766   0.093 -0.0873  0.6183 -0.5304
12631SOL    HW142704   0.054  11.840   0.126  2.1565  1.3399  1.6109
12631SOL    HW242705   0.041  11.711   0.047 -3.2489  0.4678  3.4908
12632SOL     OW42706   8.880  12.072   7.800  0.1224  0.3430  0.2593
12632SOL    HW142707   8.840  11.988   7.821 -0.9791  0.2577 -1.9253
12632SOL    HW242708   8.874  12.079   7.705  1.3669  2.3281  0.2620
12633SOL     OW42709   9.613  10.080   4.052  0.1943  0.2029 -0.0803
12633SOL    HW142710   9.524  10.095   4.020  0.1780 -0.7468 -0.5062
12633SOL    HW242711   9.647  10.010   3.996  1.1570  0.4405  0.1838
12634SOL     OW42712   2.374   6.712   5.174  0.2636 -0.2119  0.0919
12634SOL    HW142713   2.316   6.642   5.144  0.0624  0.7017 -1.7919
12634SOL    HW242714   2.458   6.692   5.133  0.6726 -0.2336  0.9123
12635SOL     OW42715  10.997   1.227   5.161 -0.1677 -0.3061 -0.1934
12635SOL    HW142716  10.978   1.319   5.180  0.3501 -0.1723 -0.2778
12635SOL    HW242717  11.079   1.230   5.111  0.7566 -0.9035  1.2052
12636SOL     OW42718   9.479   6.140   7.899 -0.0580 -0.0893  0.2119
12636SOL    HW142719   9.484   6.090   7.980 -1.7114 -0.4926  0.1134
12636SOL    HW242720   9.469   6.231   7.928  0.3579 -0.1163  0.4436
12637SOL     OW42721   1.147  10.039  11.585 -0.6292  0.1692  0.5159
12637SOL    HW142722   1.211   9.999  11.645  0.8236  0.7402 -0.5862
12637SOL    HW242723   1.120  10.120  11.629  0.5479  0.6640  0.3824
12638SOL     OW42724   4.664   0.485   4.698 -0.1301  0.1207  0.6933
12638SOL    HW142725   4.722   0.451   4.766 -0.4579  0.2989  1.0699
12638SOL    HW242726   4.578   0.487   4.740 -0.3845 -0.0061  0.1883
12639SOL     OW42727   5.131   5.252   4.008  0.9680 -0.4375  0.0056
12639SOL    HW142728   5.109   5.299   4.089  2.0676 -0.0973  0.1228
12639SOL    HW242729   5.198   5.306   3.966  1.2158 -1.1804 -0.5727
12640SOL     OW42730   3.952   8.233   8.477 -0.0671  0.2740  0.1293
12640SOL    HW142731   3.993   8.161   8.525 -0.9773  0.5708  1.4029
12640SOL    HW242732   3.959   8.208   8.385 -0.5066 -1.5176  0.5523
12641SOL     OW42733   6.573  12.450   0.669  0.5713  0.3820  0.7866
12641SOL    HW142734   6.499  12.511   0.679  1.7491  1.4531  4.5698
12641SOL    HW242735   6.649  12.506   0.653  0.9718 -0.5556 -0.8669
12642SOL     OW42736   4.429   0.402   7.849 -0.2176 -0.1374 -0.0970
12642SOL    HW142737   4.507   0.400   7.905 -0.0490  0.4705 -0.3059
12642SOL    HW242738   4.380   0.324   7.874  0.1523 -0.1904  0.4745
12643SOL     OW42739   9.607  10.150   1.050 -0.8341  0.0808 -0.0970
12643SOL    HW142740   9.685  10.204   1.054 -0.4080 -0.5942  1.4856
12643SOL    HW242741   9.552  10.181   1.122 -0.0039 -2.3492  1.7158
12644SOL     OW42742   9.537  11.217   7.175 -0.0964  0.0958 -0.1691
12644SOL    HW142743   9.521  11.140   7.230  0.4721 -0.0168 -0.1598
12644SOL    HW242744   9.592  11.185   7.104 -1.4523  0.0717 -1.2469
12645SOL     OW42745  11.969  10.129   6.218  0.0270 -0.4093  0.6563
12645SOL    HW142746  12.026  10.203   6.239 -1.9241  1.2124  0.5642
12645SOL    HW242747  11.933  10.101   6.302 -2.0535  1.2068  0.3635
12646SOL     OW42748   4.737  11.969   0.518 -0.2050 -0.1413  0.0430
12646SOL    HW142749   4.647  11.990   0.542 -0.1277  1.1693 -0.7639
12646SOL    HW242750   4.733  11.948   0.424  0.5195  1.2166 -0.3144
12647SOL     OW42751   5.640   0.517  12.418  0.0609  0.0227 -0.5600
12647SOL    HW142752   5.701   0.553  12.482 -1.8177  0.9642  0.7886
12647SOL    HW242753   5.630   0.425  12.443 -2.1709  0.8271  1.8674
12648SOL     OW42754   6.458   0.838  11.943 -0.1548 -0.3257  0.1113
12648SOL    HW142755   6.431   0.925  11.913 -0.0567 -0.4419 -0.3358
12648SOL    HW242756   6.531   0.816  11.885  1.3732  0.2757  1.7191
12649SOL     OW42757   1.708   1.859   3.359  0.4644  0.2416  0.3910
12649SOL    HW142758   1.724   1.947   3.391  2.0949 -0.3252  1.2683
12649SOL    HW242759   1.725   1.864   3.265 -0.5482  1.0874  0.2468
12650SOL     OW42760   7.904  10.547   1.937 -0.2798 -0.1087  0.0558
12650SOL    HW142761   7.973  10.482   1.948  0.1508  0.3621  0.2036
12650SOL    HW242762   7.945  10.630   1.962 -1.6883 -0.1548  2.9262
12651SOL     OW42763   9.939   4.473   4.554 -0.7155 -0.0476 -0.1657
12651SOL    HW142764   9.945   4.566   4.532 -0.8617  0.0796  0.3096
12651SOL    HW242765  10.025   4.437   4.533 -0.5729  0.2529 -0.0958
12652SOL     OW42766  12.516   8.403   1.343  0.1922  0.2821 -0.0488
12652SOL    HW142767  12.516   8.485   1.294 -2.9106  0.6379  0.3356
12652SOL    HW242768  12.511   8.335   1.276 -0.7543  0.6122 -0.3311
12653SOL     OW42769   7.983   3.444   3.612  0.9101 -0.1062 -0.9506
12653SOL    HW142770   8.025   3.401   3.686 -1.4765  0.0226  0.6107
12653SOL    HW242771   7.894   3.409   3.611  0.0772  1.8604 -2.0926
12654SOL     OW42772   7.157   5.919   8.866  0.1775 -0.3134 -0.0228
12654SOL    HW142773   7.086   5.949   8.809  0.6907  1.7115  0.3234
12654SOL    HW242774   7.132   5.949   8.953  1.5264  0.6344  0.0710
12655SOL     OW42775   8.849   3.660   9.813 -0.5866 -0.3468  0.0590
12655SOL    HW142776   8.873   3.575   9.848  1.0692  0.3495  0.7056
12655SOL    HW242777   8.930   3.694   9.774 -0.8447  1.4891  1.0016
12656SOL     OW42778  10.136   5.877   7.853  0.1321 -0.0258 -0.2241
12656SOL    HW142779  10.070   5.822   7.811  0.6288 -1.8453  1.2488
12656SOL    HW242780  10.216   5.861   7.801  0.0108  0.2396 -0.4983
12657SOL     OW42781   5.751   0.294  12.157 -0.1589 -0.3770  0.1160
12657SOL    HW142782   5.657   0.292  12.169  0.0528  0.4163  2.2689
12657SOL    HW242783   5.764   0.278  12.063 -2.4235 -0.0723 -0.2885
12658SOL     OW42784  10.199   7.536   4.236  0.4196  0.0500 -0.8141
12658SOL    HW142785  10.228   7.554   4.325  0.1279  0.0274 -0.7128
12658SOL    HW242786  10.217   7.442   4.223 -1.7563 -0.5469  0.0844
12659SOL     OW42787   6.307   4.025  12.453  0.2426 -0.3227  0.7467
12659SOL    HW142788   6.338   4.008  12.363 -1.3517  1.1019 -0.1206
12659SOL    HW242789   6.223   4.069  12.441  0.1933  0.2629  2.9635
12660SOL     OW42790   7.546   9.688   7.911 -0.0362  0.2505  0.2695
12660SOL    HW142791   7.521   9.605   7.871 -2.1732  0.9854 -0.0118
12660SOL    HW242792   7.512   9.683   8.001  0.8907  0.3689  0.6454
12661SOL     OW42793   8.909   3.311   7.561  0.1890  0.7901 -0.2582
12661SOL    HW142794   8.957   3.255   7.501 -0.2732 -0.3042  0.3429
12661SOL    HW242795   8.820   3.315   7.525  0.3142  1.4414 -0.4950
12662SOL     OW42796   0.561   2.639  10.324 -0.3711  0.5515  0.2551
12662SOL    HW142797   0.636   2.583  10.308 -0.3125  1.0569 -1.4473
12662SOL    HW242798   0.531   2.615  10.411  1.8983  0.5145  1.0867
12663SOL     OW42799   2.897   0.703   5.957 -0.2893 -0.3004 -0.0045
12663SOL    HW142800   2.939   0.781   5.992 -1.9551  0.3665  0.5848
12663SOL    HW242801   2.932   0.695   5.869  0.2118  0.8745  0.0670
12664SOL     OW42802   6.881   8.372   6.596 -0.1503  0.2159  0.6265
12664SOL    HW142803   6.958   8.426   6.618  0.2619  0.9201 -2.1397
12664SOL    HW242804   6.918   8.288   6.568 -0.7113 -1.0398  3.3003
12665SOL     OW42805   3.943   4.125   1.794 -0.7399  0.9446  0.6883
12665SOL    HW142806   4.033   4.092   1.791 -1.6309 -1.6783 -0.0755
12665SOL    HW242807   3.902   4.091   1.715 -2.4339  2.0667  1.0295
12666SOL     OW42808  10.155   4.270   5.271 -0.6696 -0.1124 -0.1186
12666SOL    HW142809  10.243   4.307   5.272 -0.5710 -0.3500  0.2490
12666SOL    HW242810  10.147   4.226   5.356 -1.4794  0.6891  0.2330
12667SOL     OW42811   2.386   3.972   8.434  0.2607  0.0420  0.3582
12667SOL    HW142812   2.327   3.920   8.380  0.9853  0.1453 -0.5585
12667SOL    HW242813   2.334   4.049   8.460 -0.6005 -0.7876  1.1762
12668SOL     OW42814   4.113   9.990   2.799 -0.1031  0.1245 -0.2057
12668SOL    HW142815   4.196   9.982   2.752 -0.6105  0.7066 -1.2498
12668SOL    HW242816   4.052   9.933   2.750 -0.6018  0.6117 -0.1649
12669SOL     OW42817   2.736  11.145  10.755 -0.1404  0.0790 -0.7486
12669SOL    HW142818   2.787  11.078  10.710  1.1798  0.2460  0.4250
12669SOL    HW242819   2.710  11.206  10.686  1.5767  0.1736 -1.3697
12670SOL     OW42820   4.687   5.694   1.770 -0.1590  0.3389 -0.2663
12670SOL    HW142821   4.705   5.616   1.718  0.4967  0.6579 -0.5341
12670SOL    HW242822   4.649   5.661   1.852 -0.0851 -0.2394 -0.4644
12671SOL     OW42823  12.297  10.184  12.377  0.3585  0.0345  0.0464
12671SOL    HW142824  12.390  10.171  12.396  0.2841 -0.1040  0.3196
12671SOL    HW242825  12.291  10.176  12.282  0.7555  0.8714 -0.0530
12672SOL     OW42826   9.517  11.830   0.767  0.1198 -0.1900  0.4042
12672SOL    HW142827   9.493  11.911   0.813 -0.0500  1.1210 -1.8327
12672SOL    HW242828   9.593  11.854   0.714 -0.8954 -0.9969 -1.5391
12673SOL     OW42829  11.653   8.969   1.426 -0.2003  0.7229 -0.4783
12673SOL    HW142830  11.730   8.927   1.464 -0.6455  1.3713  1.2229
12673SOL    HW242831  11.687   9.047   1.382  0.1658  0.7809 -0.0965
12674SOL     OW42832  10.666   5.587   2.814 -0.1058  0.0773  0.8238
12674SOL    HW142833  10.733   5.520   2.831 -1.2471 -1.1692  0.4926
12674SOL    HW242834  10.681   5.614   2.723 -0.7126 -0.9662  0.4085
12675SOL     OW42835   3.959  12.070   7.188 -0.3843  0.2984 -0.4889
12675SOL    HW142836   4.050  12.055   7.213 -0.8961 -0.8184  0.8254
12675SOL    HW242837   3.947  12.018   7.109  0.2014  0.7274 -0.8696
12676SOL     OW42838   4.829  11.213   9.183 -0.3091  0.7295  0.2869
12676SOL    HW142839   4.767  11.266   9.234 -0.1563  1.4280 -0.2440
12676SOL    HW242840   4.900  11.273   9.161  0.2686  0.0906  0.3638
12677SOL     OW42841   1.739   2.408   4.993 -0.1467 -0.0878 -0.2108
12677SOL    HW142842   1.823   2.443   5.023 -0.3301  0.9217 -0.8488
12677SOL    HW242843   1.695   2.382   5.074 -0.6925  2.7127  0.5015
12678SOL     OW42844   9.173   3.058  11.770 -0.0447  0.4186  0.5491
12678SOL    HW142845   9.220   3.140  11.787  1.8327 -0.3209 -0.6436
12678SOL    HW242846   9.150   3.025  11.857  0.1695  1.6430  1.0980
12679SOL     OW42847   6.801  11.799   6.609  0.2578  0.0519 -0.4807
12679SOL    HW142848   6.800  11.788   6.704  1.3624 -1.2274 -0.5916
12679SOL    HW242849   6.828  11.714   6.575  0.7218  0.7328 -1.8989
12680SOL     OW42850   6.088   0.111   0.427  0.5753  0.0947  0.3736
12680SOL    HW142851   6.107   0.117   0.521  3.0673 -0.1989 -0.0448
12680SOL    HW242852   6.130   0.188   0.389 -0.0299 -0.0235 -0.5701
12681SOL     OW42853   7.305   1.188   9.362  0.2072 -0.3318 -0.3479
12681SOL    HW142854   7.390   1.231   9.353  0.5182 -0.7693  0.3671
12681SOL    HW242855   7.243   1.246   9.317  0.6074  0.8781  0.6037
12682SOL     OW42856   9.549   7.878  12.526  0.5772  0.4478  0.5655
12682SOL    HW142857   9.555   7.967  12.560  0.0493  0.7399 -0.0873
12682SOL    HW242858   9.471   7.878  12.471  0.8214 -0.2934  0.2011
12683SOL     OW42859   4.246   4.242   1.563 -0.1056 -0.0922  0.3451
12683SOL    HW142860   4.326   4.295   1.564  0.0847 -0.2531 -1.4422
12683SOL    HW242861   4.278   4.152   1.553 -0.4680 -0.0926 -1.1400
12684SOL     OW42862   3.060   7.262  10.518  0.5497 -0.5554  0.1236
12684SOL    HW142863   3.086   7.239  10.428 -0.5423 -0.7087 -0.1685
12684SOL    HW242864   2.994   7.197  10.541 -0.5925  0.6166  0.3094
12685SOL     OW42865   6.491   2.227   5.460 -0.8473  0.4294  0.4614
12685SOL    HW142866   6.586   2.222   5.448 -0.6724  2.5096  0.6613
12685SOL    HW242867   6.478   2.306   5.512 -2.8042  1.1648 -1.0525
12686SOL     OW42868   0.522   2.464   9.292  0.1338 -0.2203 -0.4730
12686SOL    HW142869   0.447   2.514   9.260  0.2761  0.2776 -0.0341
12686SOL    HW242870   0.583   2.530   9.325 -0.1018 -0.7082  1.0386
12687SOL     OW42871  10.779   0.529   1.055 -0.2805 -0.3812 -0.0847
12687SOL    HW142872  10.865   0.565   1.031 -0.1542  0.3721  1.3783
12687SOL    HW242873  10.791   0.494   1.143 -1.8623  1.3344  0.8943
12688SOL     OW42874   1.463  12.234  12.471 -0.1303  0.4187 -0.3532
12688SOL    HW142875   1.401  12.298  12.505 -0.0752  1.0120 -1.3511
12688SOL    HW242876   1.497  12.273  12.391  0.8884 -0.2844 -0.2770
12689SOL     OW42877   7.124   4.849   5.309  0.0895 -0.8023 -0.2878
12689SOL    HW142878   7.099   4.893   5.227  0.6540  0.6833  0.3015
12689SOL    HW242879   7.042   4.839   5.357  0.0703  0.4092 -0.0592
12690SOL     OW42880   9.231   7.084  12.443  0.2969 -0.0311 -0.0165
12690SOL    HW142881   9.269   7.109  12.527  0.3331 -1.2912  0.3718
12690SOL    HW242882   9.172   7.156  12.421  0.4481  0.4231  0.9775
12691SOL     OW42883   0.244  11.657   5.166 -0.3813 -0.1187  0.2309
12691SOL    HW142884   0.245  11.561   5.171 -0.0088 -0.1833 -0.8162
12691SOL    HW242885   0.154  11.678   5.139 -1.2811  0.0167  3.0462
12692SOL     OW42886   0.741   0.495   8.864 -0.0014 -0.0168 -0.3790
12692SOL    HW142887   0.836   0.502   8.872 -0.1015 -0.7624  2.5121
12692SOL    HW242888   0.724   0.400   8.863 -0.7545  0.1005  0.3588
12693SOL     OW42889   7.112   6.998   5.652 -0.4359  0.4245 -0.2790
12693SOL    HW142890   7.020   7.002   5.623 -0.6421 -1.1336  0.0573
12693SOL    HW242891   7.148   6.924   5.603  0.1367 -0.1070  0.9277
12694SOL     OW42892   3.164   1.576  10.412  0.0892  0.4734  0.2838
12694SOL    HW142893   3.251   1.564  10.376 -0.1928 -1.1495  0.0815
12694SOL    HW242894   3.167   1.662  10.454  2.0030  0.1191  0.9476
12695SOL     OW42895   6.912   5.203  10.957  0.0896 -0.5991  0.1333
12695SOL    HW142896   6.887   5.152  10.880 -0.6452  0.0846 -0.0970
12695SOL    HW242897   6.903   5.142  11.030 -1.3367 -0.6660 -0.0627
12696SOL     OW42898  10.724   2.298   9.035  0.6509  0.2198 -0.3659
12696SOL    HW142899  10.642   2.250   9.041  0.5400  0.3910 -0.4854
12696SOL    HW242900  10.790   2.239   9.071  0.4548  0.1295 -0.1541
12697SOL     OW42901   5.508  10.921   6.823 -0.3384 -0.0919  0.7753
12697SOL    HW142902   5.448  10.996   6.828  1.7150  1.5755  1.8867
12697SOL    HW242903   5.592  10.959   6.797  1.0125 -1.8561  2.2899
12698SOL     OW42904   6.065   4.426   8.662  0.2087  0.2178  0.3307
12698SOL    HW142905   6.005   4.468   8.600  0.3304  0.6462  0.4969
12698SOL    HW242906   6.078   4.338   8.627  1.6984  1.0096 -1.2959
12699SOL     OW42907  12.510   3.659   5.273 -0.4617  0.4430  0.0707
12699SOL    HW142908  12.418   3.630   5.277 -0.6326  0.7152 -1.5471
12699SOL    HW242909  12.526   3.678   5.181  0.9389  1.3611  0.4667
12700SOL     OW42910  10.128   2.910   5.903  0.2657 -0.0724 -0.1856
12700SOL    HW142911  10.055   2.935   5.960 -0.3417 -1.1188 -0.4640
12700SOL    HW242912  10.149   2.989   5.854 -1.4420 -0.0242 -0.8978
12701SOL     OW42913   0.026   1.308   1.729 -0.7617 -0.5220  0.2536
12701SOL    HW142914  -0.036   1.350   1.669 -0.3732  0.6919  0.6616
12701SOL    HW242915   0.021   1.215   1.708 -1.8901 -0.3155 -0.4839
12702SOL     OW42916   6.118   8.770   3.954 -0.1032  0.1411 -0.4277
12702SOL    HW142917   6.080   8.855   3.932  1.2773  1.2010  1.0280
12702SOL    HW242918   6.207   8.774   3.918  0.1292 -0.4951  0.0509
12703SOL     OW42919   0.660   5.205   0.309  0.0520  0.2595  0.0412
12703SOL    HW142920   0.696   5.201   0.398 -0.4737 -0.2023  0.2424
12703SOL    HW242921   0.736   5.221   0.253  0.6988 -1.3303  0.3955
12704SOL     OW42922   3.484  10.727   4.528  0.3595  0.1823 -0.2400
12704SOL    HW142923   3.486  10.805   4.473 -1.8504  0.3454 -0.1868
12704SOL    HW242924   3.407  10.740   4.584 -0.7106 -2.5152 -0.9714
12705SOL     OW42925   8.626   0.335   2.528  0.7366  0.2976 -1.0056
12705SOL    HW142926   8.530   0.334   2.533  0.6980  1.2532 -1.4622
12705SOL    HW242927   8.645   0.348   2.435  1.3235 -0.8068 -1.0539
12706SOL     OW42928   4.502   5.967   3.144  0.2448 -0.1694 -0.2017
12706SOL    HW142929   4.480   5.970   3.050  0.9606 -0.2863 -0.3772
12706SOL    HW242930   4.430   6.014   3.186 -0.1581 -0.2308 -0.7943
12707SOL     OW42931   4.497   8.925   4.167 -0.3694 -0.2428 -0.5635
12707SOL    HW142932   4.531   8.840   4.196  0.8870 -0.3884 -2.3110
12707SOL    HW242933   4.575   8.977   4.148 -1.1276  1.2150  0.1729
12708SOL     OW42934   5.749   5.813  11.793 -0.0146 -0.2075  0.5806
12708SOL    HW142935   5.789   5.882  11.845 -0.9139  0.4965  0.3679
12708SOL    HW242936   5.763   5.839  11.702 -1.0026  0.0953  0.5031
12709SOL     OW42937   4.427   2.731   9.753  0.6146 -0.5734  0.0784
12709SOL    HW142938   4.349   2.787   9.753  2.0178  1.5125  1.0484
12709SOL    HW242939   4.394   2.643   9.771 -1.5038  0.2258  0.3747
12710SOL     OW42940   3.617   8.258   7.856  0.4818 -0.1297 -0.2891
12710SOL    HW142941   3.604   8.179   7.908 -2.5865  0.8264  0.5722
12710SOL    HW242942   3.695   8.298   7.893  0.9064 -1.6884  0.6054
12711SOL     OW42943   8.492  11.022  10.051  0.0324  0.1730  1.0794
12711SOL    HW142944   8.449  11.099  10.089 -1.5802 -1.0641  1.9079
12711SOL    HW242945   8.493  11.040   9.957  0.1233  1.4056  1.2987
12712SOL     OW42946  10.828   9.732   4.433 -0.4001  0.2692 -0.0341
12712SOL    HW142947  10.898   9.723   4.369 -0.3390  1.6705 -0.2053
12712SOL    HW242948  10.771   9.656   4.419  1.0293 -0.8579  0.0697
12713SOL     OW42949  12.520   8.786   9.443 -0.0758  0.6236  0.2487
12713SOL    HW142950  12.576   8.719   9.483 -0.5570  0.1092  0.0707
12713SOL    HW242951  12.441   8.785   9.496 -0.3433  0.5918 -0.1443
12714SOL     OW42952   2.334   2.295  10.740  0.5832 -0.4683 -0.4252
12714SOL    HW142953   2.268   2.248  10.688 -0.2048 -0.7999  0.8313
12714SOL    HW242954   2.328   2.256  10.827  2.3354 -0.3713 -0.2338
12715SOL     OW42955   8.224   3.025  12.312  0.3257 -0.4739  0.8908
12715SOL    HW142956   8.311   3.004  12.278 -0.3605 -0.2509 -1.1360
12715SOL    HW242957   8.220   3.120  12.309  0.1473 -0.4681  1.3278
12716SOL     OW42958   6.642   1.479   5.469  0.1869  0.2013  0.1602
12716SOL    HW142959   6.722   1.498   5.519 -1.0650  2.3350  1.5099
12716SOL    HW242960   6.573   1.476   5.534 -1.2652  1.2973 -1.2595
12717SOL     OW42961  11.605   4.734  12.193  0.6341 -0.1243 -0.0695
12717SOL    HW142962  11.601   4.651  12.146  0.5982  0.3639 -0.9355
12717SOL    HW242963  11.666   4.718  12.265 -0.2714 -1.2425  0.4726
12718SOL     OW42964  11.956   8.478   7.163  0.4580  0.8113 -0.0550
12718SOL    HW142965  11.886   8.434   7.210 -0.3290  2.2659  0.1894
12718SOL    HW242966  12.022   8.498   7.229 -0.2181  1.9992  0.2912
12719SOL     OW42967   0.080   1.690   9.294  0.5150  0.3941  0.1023
12719SOL    HW142968   0.157   1.662   9.244 -0.1805 -0.2779 -0.6261
12719SOL    HW242969   0.106   1.773   9.333  1.1440  0.8741 -1.2679
12720SOL     OW42970   2.082  11.374   8.145  0.2050  0.1799 -0.4231
12720SOL    HW142971   2.101  11.356   8.237 -0.3364 -0.4891 -0.4322
12720SOL    HW242972   2.144  11.321   8.096  1.5049  1.6651 -0.4692
12721SOL     OW42973   5.529   5.836   5.810  0.4262 -0.2229 -0.1074
12721SOL    HW142974   5.459   5.812   5.872  0.2263  1.6612  0.4660
12721SOL    HW242975   5.501   5.799   5.727 -1.3418  0.5547  0.0939
12722SOL     OW42976  10.029   5.144   0.962  0.6072  0.0610 -0.6097
12722SOL    HW142977  10.069   5.060   0.985  0.3919  0.0125 -0.4061
12722SOL    HW242978  10.082   5.209   1.009  0.9738  0.0671 -1.0271
12723SOL     OW42979   2.457  10.283   6.662 -0.3976  0.3517 -0.4288
12723SOL    HW142980   2.500  10.367   6.645 -0.7926  0.1773 -2.5752
12723SOL    HW242981   2.372  10.291   6.618 -0.1301 -1.4334 -1.3399
12724SOL     OW42982   9.724   2.974   4.702  0.1944 -0.3390  0.1084
12724SOL    HW142983   9.681   2.906   4.754 -1.1220  1.1646  1.0638
12724SOL    HW242984   9.779   2.926   4.641 -0.6997 -2.2615  0.7447
12725SOL     OW42985  11.189   4.042   7.341 -0.3117  0.1704  0.0216
12725SOL    HW142986  11.162   4.082   7.258 -0.7272  0.2167  0.1808
12725SOL    HW242987  11.107   4.020   7.385 -0.1918  2.4049  1.5464
12726SOL     OW42988  11.920   5.956   9.573  0.0502  1.3433  0.4404
12726SOL    HW142989  11.875   5.899   9.510  0.8480  1.4701 -0.2713
12726SOL    HW242990  11.870   6.037   9.571 -0.6288  0.9467  0.8684
12727SOL     OW42991   1.582   6.677   0.317 -0.1253 -0.7686  0.0543
12727SOL    HW142992   1.608   6.669   0.225  2.5412 -1.9097  0.7999
12727SOL    HW242993   1.519   6.606   0.331 -1.6618  0.3102 -1.1981
12728SOL     OW42994   0.637   1.237   8.705 -0.5424  0.1234 -0.4896
12728SOL    HW142995   0.724   1.211   8.674 -0.0374 -0.2196  1.1428
12728SOL    HW242996   0.589   1.258   8.625  0.6601 -0.8533 -1.5136
12729SOL     OW42997  11.853   4.653   2.762  0.6924  0.4231 -0.5224
12729SOL    HW142998  11.886   4.614   2.843 -0.4747 -1.0198 -0.6961
12729SOL    HW242999  11.804   4.730   2.790  0.6103  0.1436  0.1110
12730SOL     OW43000   6.517   1.794  11.211  0.0650  0.1246  0.2706
12730SOL    HW143001   6.482   1.705  11.204  0.7615 -0.1824  0.6339
12730SOL    HW243002   6.552   1.798  11.300  0.0166  0.7756  0.2622
12731SOL     OW43003   2.217   7.727   9.726  0.5666  0.2995 -0.2653
12731SOL    HW143004   2.303   7.733   9.767  0.1814  0.6840  0.5117
12731SOL    HW243005   2.223   7.784   9.648  0.4386  1.9160  0.8490
12732SOL     OW43006   4.126   5.115   9.321  0.2425 -0.0406  0.4306
12732SOL    HW143007   4.182   5.188   9.347  0.7524  0.0060 -0.7377
12732SOL    HW243008   4.166   5.082   9.241 -0.3356 -1.2190  0.6132
12733SOL     OW43009   5.892  10.708   3.070 -0.1904  0.1891 -0.4017
12733SOL    HW143010   5.922  10.670   2.988 -0.7994  0.3105 -0.6880
12733SOL    HW243011   5.839  10.783   3.044 -2.5421 -1.2354 -0.0510
12734SOL     OW43012   6.968   0.435  10.747  0.0797 -0.3609 -0.0592
12734SOL    HW143013   6.939   0.392  10.667  0.6942  1.2560 -1.2047
12734SOL    HW243014   7.055   0.397  10.764  0.2131 -0.2715 -0.5229
12735SOL     OW43015   5.186   2.919   0.697  0.4184  0.0674  0.0434
12735SOL    HW143016   5.174   3.010   0.723 -0.0744 -0.0102  0.0966
12735SOL    HW243017   5.108   2.897   0.646 -0.2227 -0.7816  1.3294
12736SOL     OW43018  10.633   6.065   6.770 -0.2442  0.4963 -0.3310
12736SOL    HW143019  10.605   6.056   6.861 -0.0829 -0.7228 -0.3915
12736SOL    HW243020  10.666   6.155   6.764 -1.5944  1.0636  0.4290
12737SOL     OW43021   1.230  10.141   6.034 -0.4787 -0.0469  0.2508
12737SOL    HW143022   1.135  10.152   6.045 -0.8217  0.0551 -2.2217
12737SOL    HW243023   1.263  10.229   6.020  0.2194  0.0589  2.3058
12738SOL     OW43024   3.517   2.691   8.319 -0.8089 -0.2844  0.0240
12738SOL    HW143025   3.534   2.764   8.379 -1.4122  0.3707 -0.5811
12738SOL    HW243026   3.458   2.728   8.253  1.9686 -0.1120 -2.6086
12739SOL     OW43027  10.328   0.231   9.245 -0.4921 -0.4624  0.6918
12739SOL    HW143028  10.292   0.145   9.222 -0.7902  0.1843 -1.5024
12739SOL    HW243029  10.358   0.267   9.162  1.1563  0.8968  1.8184
12740SOL     OW43030   3.502   3.080   4.634  0.7605 -0.4213 -0.3745
12740SOL    HW143031   3.475   3.009   4.576 -0.8115 -0.0617 -0.1077
12740SOL    HW243032   3.473   3.052   4.721  1.6162 -0.1955 -0.0009
12741SOL     OW43033   6.519   6.376   4.599 -0.1921 -0.0596  0.4036
12741SOL    HW143034   6.526   6.281   4.610 -0.3176 -0.3915 -1.8582
12741SOL    HW243035   6.559   6.393   4.513 -0.2993  1.9192  0.7030
12742SOL     OW43036   7.349   0.536   4.444 -0.1364  0.3310  0.1010
12742SOL    HW143037   7.303   0.616   4.468  0.3981  1.0807 -1.2681
12742SOL    HW243038   7.441   0.562   4.437 -0.1501  0.0249 -1.9134
12743SOL     OW43039   8.684   3.859  11.471  0.2583 -0.1365  0.1295
12743SOL    HW143040   8.753   3.900  11.418  1.0684 -2.3287 -0.6218
12743SOL    HW243041   8.727   3.836  11.553 -0.2966  0.8278  0.7061
12744SOL     OW43042   2.767   0.215   9.865 -0.2436  0.1444  0.4196
12744SOL    HW143043   2.767   0.163   9.785 -3.3292 -1.7278  1.4407
12744SOL    HW243044   2.838   0.178   9.918  0.7392  0.2893 -0.7629
12745SOL     OW43045   6.599   1.296   4.316  0.8847 -0.2759 -0.5503
12745SOL    HW143046   6.564   1.349   4.387  2.0736 -0.5085  0.2426
12745SOL    HW243047   6.635   1.360   4.254  2.0189 -0.1107  0.2430
12746SOL     OW43048   1.388   4.138   6.729 -0.4810 -0.2908  0.0581
12746SOL    HW143049   1.320   4.142   6.662  0.5632  0.9628 -0.9689
12746SOL    HW243050   1.370   4.212   6.786  0.2301  0.2882 -0.4488
12747SOL     OW43051   6.185   3.954   0.206  0.3929 -0.1897  0.0806
12747SOL    HW143052   6.134   3.886   0.162  0.4924 -0.0782 -0.2093
12747SOL    HW243053   6.243   3.989   0.138 -0.0345  0.5560  0.0801
12748SOL     OW43054   5.816   8.674   1.166 -0.3025 -0.7325 -1.0464
12748SOL    HW143055   5.783   8.645   1.251 -1.2328 -0.4766 -1.3030
12748SOL    HW243056   5.783   8.609   1.104  0.6190 -1.0806 -1.1908
12749SOL     OW43057  11.327   8.739   0.905 -0.0686 -0.1933 -0.0306
12749SOL    HW143058  11.414   8.768   0.878 -0.4245 -0.9003 -2.0918
12749SOL    HW243059  11.336   8.723   0.999  2.4186 -1.5728 -0.4095
12750SOL     OW43060   0.251  10.312  12.539 -0.0749 -0.4178 -0.0836
12750SOL    HW143061   0.248  10.254  12.463 -1.9229 -0.5839  0.0855
12750SOL    HW243062   0.202  10.266  12.607 -1.1391  1.0960  0.2089
12751SOL     OW43063   6.968   8.807   7.832 -0.1984 -0.1852  0.0944
12751SOL    HW143064   6.909   8.883   7.839  1.3319  1.3773 -2.5000
12751SOL    HW243065   7.056   8.844   7.843  0.5216 -1.7665 -0.1469
12752SOL     OW43066   3.241  12.277  11.130 -0.5512  0.9344  0.0799
12752SOL    HW143067   3.316  12.262  11.187  0.1325  0.2162 -0.9698
12752SOL    HW243068   3.222  12.192  11.092 -1.8790  1.1267  0.2876
12753SOL     OW43069   3.828   1.261   4.624 -0.0488 -0.2383 -0.2065
12753SOL    HW143070   3.769   1.236   4.554  0.8603 -0.2215 -1.0017
12753SOL    HW243071   3.850   1.353   4.606  0.1447 -0.2142  0.1349
12754SOL     OW43072   4.378   1.800   4.969 -0.3201  0.4027 -0.2211
12754SOL    HW143073   4.441   1.755   4.913  1.4482  1.8520  0.4971
12754SOL    HW243074   4.398   1.768   5.057 -0.5321  0.9513  0.0278
12755SOL     OW43075  11.411   6.473   7.085  0.6177  0.7082 -0.1842
12755SOL    HW143076  11.446   6.524   7.158  2.5206 -0.9414  0.1173
12755SOL    HW243077  11.470   6.399   7.076 -1.6554 -1.1291 -1.0476
12756SOL     OW43078   6.408   1.269   0.175  0.3069 -0.0509 -0.5935
12756SOL    HW143079   6.424   1.175   0.187 -0.1284  0.0345  0.9104
12756SOL    HW243080   6.318   1.282   0.205 -0.0729  0.6597 -1.9812
12757SOL     OW43081   3.857   1.741   3.177  0.2127  0.1174  0.5807
12757SOL    HW143082   3.802   1.710   3.105  0.4247 -0.8366  0.8173
12757SOL    HW243083   3.850   1.836   3.173 -1.0496  0.0213  0.3031
12758SOL     OW43084   4.195   7.238  12.429 -0.3378 -0.6876 -0.1040
12758SOL    HW143085   4.209   7.333  12.429  0.5314 -0.8020 -0.3828
12758SOL    HW243086   4.105   7.227  12.400 -0.0033  0.0109 -1.5238
12759SOL     OW43087   6.466  10.988  12.020 -0.0232  0.1515 -0.0454
12759SOL    HW143088   6.426  11.074  12.029  0.7184  0.6415 -1.1514
12759SOL    HW243089   6.417  10.932  12.080 -0.4862  1.3457  0.7253
12760SOL     OW43090  12.095   4.966   0.671  0.5072  0.0698 -0.5406
12760SOL    HW143091  12.113   5.052   0.710  0.3644 -0.5718  1.0168
12760SOL    HW243092  12.161   4.908   0.709 -0.7299 -0.9535  0.1390
12761SOL     OW43093   0.568   3.862   0.033 -0.1916  0.3609 -0.0891
12761SOL    HW143094   0.654   3.827   0.010  0.0473  1.0126 -0.2028
12761SOL    HW243095   0.558   3.843   0.126 -0.1606 -0.1954 -0.1927
12762SOL     OW43096   5.889   8.919   6.925  0.1848 -0.4650 -0.4322
12762SOL    HW143097   5.901   8.981   6.997  1.8051 -0.8386 -0.3420
12762SOL    HW243098   5.830   8.852   6.961 -0.9332  0.5798 -0.2709
12763SOL     OW43099  11.918   8.866   5.322 -0.5912  0.2487  0.1001
12763SOL    HW143100  11.868   8.794   5.360  0.5718  0.1980  1.6685
12763SOL    HW243101  12.009   8.847   5.346  0.0201  1.1109 -1.3610
12764SOL     OW43102   9.342   0.548   5.496  0.1212  0.0535  0.2543
12764SOL    HW143103   9.302   0.635   5.497  0.4847  0.2418 -0.3213
12764SOL    HW243104   9.425   0.562   5.449  0.7440 -0.3677  1.2179
12765SOL     OW43105  10.122   7.451   0.379  0.0551 -0.1906  0.2321
12765SOL    HW143106  10.067   7.373   0.377 -0.2830  0.0667 -0.5722
12765SOL    HW243107  10.135   7.469   0.473  0.6909 -1.5890  0.4335
12766SOL     OW43108   4.831   1.604   7.988  0.2627  0.0797  0.5806
12766SOL    HW143109   4.890   1.676   7.966 -2.4943  2.7241  1.2734
12766SOL    HW243110   4.819   1.610   8.082  1.3547 -2.5584  0.9858
12767SOL     OW43111   2.021   1.731   9.415  0.0810  0.3974  0.2673
12767SOL    HW143112   2.023   1.720   9.510 -0.2812  1.2440  0.3899
12767SOL    HW243113   2.066   1.814   9.400 -0.9680  0.9098 -0.1743
12768SOL     OW43114  12.155   7.689   1.071 -0.1731  0.6514  0.5024
12768SOL    HW143115  12.157   7.712   1.164 -1.4640 -0.4229  0.8279
12768SOL    HW243116  12.225   7.741   1.031  0.8754  0.5906  2.1935
12769SOL     OW43117  10.709   5.729   6.976  0.6885 -0.3555  0.0358
12769SOL    HW143118  10.715   5.824   6.989  0.1716  0.2697 -3.4577
12769SOL    HW243119  10.800   5.701   6.968  0.8006  0.2425 -0.9773
12770SOL     OW43120   9.531   8.929   7.217  0.7520 -0.1675  0.0231
12770SOL    HW143121   9.582   8.868   7.165  1.4298 -0.3557  0.8860
12770SOL    HW243122   9.494   8.991   7.154  0.1251 -1.4091 -0.8514
12771SOL     OW43123  11.158   8.529   1.668 -0.1897  0.2227  0.3016
12771SOL    HW143124  11.076   8.482   1.681  0.5284 -0.5695  2.4883
12771SOL    HW243125  11.135   8.603   1.611 -2.1269 -0.6460 -0.1360
12772SOL     OW43126   6.922   0.876   8.857 -0.3465  0.0365 -0.0386
12772SOL    HW143127   7.017   0.880   8.848 -0.3776  0.7126 -0.1137
12772SOL    HW243128   6.907   0.879   8.951 -0.3257  0.9120 -0.0566
12773SOL     OW43129   1.515   9.580   9.705 -0.0054 -0.5047  0.0958
12773SOL    HW143130   1.426   9.552   9.684 -1.2208  0.2993  3.5517
12773SOL    HW243131   1.567   9.500   9.702 -1.2103 -1.2944 -0.2521
12774SOL     OW43132  10.268   4.905   2.941 -0.2325  0.1523  0.1987
12774SOL    HW143133  10.304   4.944   2.861  1.4160 -1.9085 -0.1837
12774SOL    HW243134  10.186   4.865   2.913 -1.2979  2.1524  0.3212
12775SOL     OW43135   5.200  10.184   0.224 -0.1106 -0.1645  0.2457
12775SOL    HW143136   5.109  10.157   0.206  0.2592 -4.1889  3.0466
12775SOL    HW243137   5.250  10.148   0.151 -0.5709  1.0510 -0.7041
12776SOL     OW43138   8.758   4.651  10.934  0.5124  0.1361  0.5723
12776SOL    HW143139   8.685   4.624  10.991  0.3656 -1.4062 -0.2917
12776SOL    HW243140   8.791   4.731  10.974 -0.5884 -0.0509  1.9363
12777SOL     OW43141  10.824   4.933   2.266  0.0774  0.2742  0.1355
12777SOL    HW143142  10.784   5.012   2.231 -1.1603  0.7363  2.4006
12777SOL    HW243143  10.900   4.917   2.210 -2.4365  0.1113 -3.5176
12778SOL     OW43144   3.103   8.401   0.372  0.0240  1.1575 -0.1142
12778SOL    HW143145   3.173   8.335   0.376 -0.5430  0.4417 -1.2543
12778SOL    HW243146   3.048   8.381   0.448 -0.4417 -0.0616 -0.7472
12779SOL     OW43147  12.496   8.711   9.791 -0.3629 -0.1953 -0.0838
12779SOL    HW143148  12.432   8.687   9.858 -0.1788 -1.0407 -0.2016
12779SOL    HW243149  12.539   8.629   9.768  3.3688  0.7607  2.5756
12780SOL     OW43150   3.929   5.155  11.413  0.2158  0.2012 -0.4494
12780SOL    HW143151   3.899   5.243  11.435  1.4215  0.7391 -0.8753
12780SOL    HW243152   3.928   5.151  11.318 -0.8060 -0.6221 -0.4314
12781SOL     OW43153   7.334   2.095   0.981  0.0198 -0.1073 -0.4098
12781SOL    HW143154   7.345   2.000   0.970  0.2069 -0.1683  0.2396
12781SOL    HW243155   7.415   2.124   1.022 -0.7130  0.0443  0.9957
12782SOL     OW43156   1.518   0.514   4.870 -0.5948  0.1543 -0.0504
12782SOL    HW143157   1.469   0.596   4.877 -0.8694 -0.0832  0.9211
12782SOL    HW243158   1.503   0.470   4.953 -1.3801 -1.4171 -0.9956
12783SOL     OW43159   6.193   8.972   8.314  0.6122 -0.7294  0.6009
12783SOL    HW143160   6.098   8.976   8.329  0.4555  0.5769 -0.5265
12783SOL    HW243161   6.231   9.012   8.392  0.1126  0.4281  0.2845
12784SOL     OW43162   2.655   9.877   0.572  0.2557 -0.1000  0.4000
12784SOL    HW143163   2.570   9.887   0.616  1.2111  1.0035  2.1459
12784SOL    HW243164   2.683   9.789   0.596  0.8312  0.5331  2.2877
12785SOL     OW43165   8.322   0.982   0.439  1.0579  0.1245 -0.1787
12785SOL    HW143166   8.373   0.930   0.502  1.5978 -1.3900 -1.7874
12785SOL    HW243167   8.241   0.933   0.428 -0.7319  2.2827  2.0114
12786SOL     OW43168   1.597   0.186   8.105  0.5583  0.0502 -0.0066
12786SOL    HW143169   1.604   0.192   8.200  0.4262 -1.3658  0.1136
12786SOL    HW243170   1.687   0.184   8.074  0.6015  0.6188  0.0817
12787SOL     OW43171  12.292   0.513  10.134 -0.5585  0.3540 -0.1559
12787SOL    HW143172  12.237   0.588  10.114 -0.9701 -0.0314 -0.4683
12787SOL    HW243173  12.293   0.461  10.054  1.1272  0.8768 -0.5259
12788SOL     OW43174   2.262   4.919   9.640  0.2726 -0.7192  0.0165
12788SOL    HW143175   2.207   4.966   9.578  0.3876  1.8518  1.7320
12788SOL    HW243176   2.202   4.892   9.710  0.6730 -0.6540  0.3886
12789SOL     OW43177   3.306   7.124   0.961 -0.4439 -0.3668  0.1508
12789SOL    HW143178   3.325   7.214   0.988  3.5433 -0.4458 -1.6706
12789SOL    HW243179   3.223   7.130   0.914 -0.6341  2.2273  0.6777
12790SOL     OW43180   8.321   4.651   8.353 -0.7982 -0.0253  0.5910
12790SOL    HW143181   8.290   4.580   8.297  0.2753 -0.1740  0.1658
12790SOL    HW243182   8.373   4.707   8.295 -0.2086  0.1692  1.2873
12791SOL     OW43183  11.574   0.814  12.546  0.4325  0.4006 -0.0695
12791SOL    HW143184  11.604   0.896  12.507  0.4130  0.6516  0.4339
12791SOL    HW243185  11.510   0.840  12.611 -1.1834 -0.1522 -1.3600
12792SOL     OW43186   0.096   0.282  10.625  0.4098 -0.1557  0.2521
12792SOL    HW143187   0.095   0.187  10.633 -0.2236 -0.2808 -0.9818
12792SOL    HW243188   0.014   0.310  10.667 -0.4530 -0.3685 -1.2073
12793SOL     OW43189   4.586   0.466   1.013  0.3799 -0.3611  0.0763
12793SOL    HW143190   4.580   0.532   0.944  0.5628 -1.1491 -0.7085
12793SOL    HW243191   4.560   0.512   1.092 -0.2520  0.4497 -0.5846
12794SOL     OW43192   0.537   3.697   9.077  0.5836  0.4900  0.9262
12794SOL    HW143193   0.584   3.724   9.156 -0.3197  0.4838  1.4779
12794SOL    HW243194   0.575   3.612   9.055 -0.3964 -0.3982  2.4384
12795SOL     OW43195  10.299  11.370   0.170  0.1821 -0.6024 -0.2744
12795SOL    HW143196  10.359  11.337   0.103  1.8297 -0.6717  1.1661
12795SOL    HW243197  10.225  11.310   0.168  0.2868 -0.7127 -1.8749
12796SOL     OW43198   2.130   8.640  12.611  0.0376 -0.0699  0.2161
12796SOL    HW143199   2.135   8.590  12.529 -0.8176 -0.6546  0.5056
12796SOL    HW243200   2.057   8.700  12.599 -1.8144 -1.9250  1.4462
12797SOL     OW43201  12.215   2.086   9.377 -0.3257  0.3364 -0.2727
12797SOL    HW143202  12.160   2.022   9.421 -1.6110  0.6675 -1.3574
12797SOL    HW243203  12.296   2.038   9.357 -0.1644 -0.1412  1.3517
12798SOL     OW43204   5.012  10.816   5.142  0.1148 -0.2144  0.1916
12798SOL    HW143205   5.039  10.751   5.077 -0.4930 -0.9564  0.6713
12798SOL    HW243206   5.041  10.899   5.105 -0.0871 -0.6364 -0.9711
12799SOL     OW43207   5.490  11.440   0.450  0.3221 -0.4020 -0.7242
12799SOL    HW143208   5.496  11.518   0.505  0.4784 -0.1929 -1.0305
12799SOL    HW243209   5.413  11.394   0.482  0.3027 -0.1855 -0.4542
12800SOL     OW43210  12.028   0.909   1.787 -0.2338 -0.1585 -0.1355
12800SOL    HW143211  12.030   0.814   1.779  0.3266 -0.1752  0.1140
12800SOL    HW243212  12.102   0.939   1.734 -1.1979  0.2347 -1.2925
12801SOL     OW43213   8.276   3.553  10.481 -0.7373 -0.0232 -0.1321
12801SOL    HW143214   8.205   3.608  10.447  0.1307  0.9077 -0.4933
12801SOL    HW243215   8.301   3.594  10.564  1.1979  1.3397 -1.2988
12802SOL     OW43216   7.082   3.804   8.564  0.4218 -0.2384  0.2793
12802SOL    HW143217   7.102   3.895   8.587 -1.6530  0.6944 -1.2497
12802SOL    HW243218   7.109   3.796   8.473  1.4757 -1.4849  0.6772
12803SOL     OW43219   4.201   4.274  12.363 -0.4515 -0.4312 -0.1114
12803SOL    HW143220   4.116   4.245  12.332 -0.0098 -1.6929 -0.2071
12803SOL    HW243221   4.212   4.232  12.448  0.1216 -0.3899 -0.1549
12804SOL     OW43222  11.036   9.218   0.524  0.3796  0.3342  0.0732
12804SOL    HW143223  11.108   9.164   0.560 -0.1386  1.3355  2.9102
12804SOL    HW243224  11.006   9.170   0.447  3.1410 -0.8453 -0.3965
12805SOL     OW43225  11.531   8.553   7.648  0.3294  0.8078  0.6931
12805SOL    HW143226  11.478   8.580   7.723  1.5828  2.5172  1.0258
12805SOL    HW243227  11.490   8.597   7.573 -0.5076 -0.3456  0.4409
12806SOL     OW43228   5.925   4.882   4.549  0.3909 -0.7689  0.2951
12806SOL    HW143229   5.854   4.888   4.485  0.5479 -0.9608  0.0978
12806SOL    HW243230   5.974   4.804   4.522  1.3854  0.0433 -0.3049
12807SOL     OW43231   7.756  10.032   5.203 -0.3012  0.3483 -0.3404
12807SOL    HW143232   7.779  10.049   5.295 -0.9815  1.6710 -0.3770
12807SOL    HW243233   7.667  10.067   5.194 -1.5540 -2.6635 -0.7224
12808SOL     OW43234   3.930   3.155   0.783  0.4227 -0.8015  0.0806
12808SOL    HW143235   3.944   3.190   0.872  1.2884 -0.6750 -0.1015
12808SOL    HW243236   3.835   3.161   0.771  0.4962  1.4573  0.0954
12809SOL     OW43237   7.926   0.340   1.226 -0.0559 -0.3653 -0.0794
12809SOL    HW143238   7.955   0.346   1.317 -0.2197 -1.3713  0.0500
12809SOL    HW243239   7.947   0.251   1.200 -2.6270 -1.0461 -0.0863
12810SOL     OW43240   6.832  11.397   8.297  0.1653 -0.4139 -0.2348
12810SOL    HW143241   6.814  11.477   8.248  0.8300 -0.6780 -0.9257
12810SOL    HW243242   6.922  11.408   8.329 -0.0651 -0.4889  0.4583
12811SOL     OW43243   7.339  12.344   1.000  0.5243  0.2869 -0.0216
12811SOL    HW143244   7.353  12.278   0.933 -0.0579 -0.4787  0.5938
12811SOL    HW243245   7.332  12.295   1.082  0.0980  1.1053  0.4486
12812SOL     OW43246   0.656   7.334   8.735 -0.2924 -0.5356  0.7466
12812SOL    HW143247   0.669   7.414   8.685  1.4151 -1.6709 -0.7607
12812SOL    HW243248   0.625   7.364   8.821  1.0581  1.7801  0.5043
12813SOL     OW43249   2.307   4.086   3.433 -0.3098 -0.0830 -0.0780
12813SOL    HW143250   2.224   4.095   3.480 -0.2213  0.5537 -0.0434
12813SOL    HW243251   2.357   4.022   3.484 -0.4346  0.1893  0.3859
12814SOL     OW43252   6.036   1.214   4.035 -0.0541  0.0191 -0.2487
12814SOL    HW143253   6.125   1.250   4.037 -0.0479 -0.0130  1.5561
12814SOL    HW243254   6.044   1.132   3.985  0.7202  0.4920 -0.9238
12815SOL     OW43255  11.065   3.411   9.857 -0.7786 -0.7176 -0.1556
12815SOL    HW143256  11.077   3.443   9.768 -0.3004 -0.2663  0.0703
12815SOL    HW243257  10.989   3.352   9.851 -0.2740 -1.2934 -1.0050
12816SOL     OW43258  12.257   5.250   5.693 -0.4517  0.0988  0.2514
12816SOL    HW143259  12.283   5.159   5.706  0.4744  0.2710 -0.2573
12816SOL    HW243260  12.340   5.297   5.681 -0.8345  1.2040  1.5981
12817SOL     OW43261  10.596   6.574   3.877  0.3102  0.0540  0.9438
12817SOL    HW143262  10.538   6.498   3.871 -1.4351  1.3754  0.1358
12817SOL    HW243263  10.672   6.550   3.824 -0.7162 -0.7151 -0.2518
12818SOL     OW43264   3.788   3.186   5.967 -0.2598 -0.1228 -0.1193
12818SOL    HW143265   3.726   3.196   6.040 -0.6999 -1.1935 -0.3314
12818SOL    HW243266   3.756   3.110   5.919  0.1757  0.4180 -1.2954
12819SOL     OW43267   8.205   7.796   3.470 -0.0859 -0.3835 -0.2850
12819SOL    HW143268   8.240   7.777   3.557 -1.4317 -0.8711  0.1723
12819SOL    HW243269   8.110   7.784   3.479 -0.2397 -0.4855 -1.8324
12820SOL     OW43270   5.878  10.860   0.865 -0.2176  0.0658  0.0426
12820SOL    HW143271   5.918  10.946   0.861  2.3384 -1.0984 -2.7412
12820SOL    HW243272   5.850  10.841   0.776 -0.2579 -2.1485  0.4499
12821SOL     OW43273   2.891   9.894   0.759 -0.0504  0.2873  0.3212
12821SOL    HW143274   2.829   9.823   0.771 -0.1655  0.2924 -0.2227
12821SOL    HW243275   2.927   9.880   0.671  1.1169 -0.0277  0.8275
12822SOL     OW43276   6.401   9.590   1.502  0.2808 -0.1377 -0.1881
12822SOL    HW143277   6.320   9.611   1.548  0.0253 -0.7733 -0.3479
12822SOL    HW243278   6.373   9.567   1.413  0.7466  0.8499 -0.6081
12823SOL     OW43279   5.988   2.599  10.929  0.5406  0.1385  0.8394
12823SOL    HW143280   5.931   2.529  10.961  0.2887 -0.4174 -0.7600
12823SOL    HW243281   6.053   2.554  10.876  1.4439  0.9560  1.2386
12824SOL     OW43282   5.119   9.184   3.739  0.2980  0.3119 -0.0261
12824SOL    HW143283   5.214   9.179   3.737  0.2864 -2.1316  1.6094
12824SOL    HW243284   5.100   9.254   3.802  1.0222 -0.0684  0.6290
12825SOL     OW43285   6.511   2.665   9.265 -0.1326 -0.0487  0.8988
12825SOL    HW143286   6.446   2.673   9.334 -2.5878  0.5432 -1.3035
12825SOL    HW243287   6.540   2.755   9.248 -0.5755 -0.0123  0.2876
12826SOL     OW43288  11.227   5.708  11.975  0.5891  0.0850 -0.3080
12826SOL    HW143289  11.218   5.803  11.983 -0.2387 -0.0757  0.9854
12826SOL    HW243290  11.279   5.683  12.051 -1.2102 -0.7392  0.7190
12827SOL     OW43291   0.545   5.577  12.056  0.2381  0.4105  0.1148
12827SOL    HW143292   0.639   5.595  12.066  0.0104  0.7230  2.1053
12827SOL    HW243293   0.535   5.486  12.082 -0.0705  0.5066  0.3351
12828SOL     OW43294  12.197   5.087   6.778 -0.1780  0.2626  0.8988
12828SOL    HW143295  12.127   5.024   6.762  1.4961 -1.4112 -0.2953
12828SOL    HW243296  12.201   5.138   6.696  0.6316 -0.3137  0.5753
12829SOL     OW43297   3.004  11.245  12.629 -0.0821  0.1884  0.2255
12829SOL    HW143298   2.927  11.249  12.685 -0.6852 -0.3642 -0.5549
12829SOL    HW243299   2.996  11.162  12.582  0.2974  0.7315 -0.8334
12830SOL     OW43300   4.087   7.517   9.189  0.4896  0.0501  0.2869
12830SOL    HW143301   4.171   7.473   9.206  1.2830  1.6436  0.6585
12830SOL    HW243302   4.076   7.576   9.262 -0.1496  1.0520 -0.5994
12831SOL     OW43303   9.563   5.287   9.161 -0.8419  0.2893 -0.1998
12831SOL    HW143304   9.554   5.242   9.245 -1.5056 -2.2788 -1.5399
12831SOL    HW243305   9.647   5.333   9.167 -0.5369 -0.4264  1.5784
12832SOL     OW43306   7.721   8.390   5.699 -0.1410 -0.3264  0.1250
12832SOL    HW143307   7.628   8.389   5.722 -0.1537  0.1016  0.0916
12832SOL    HW243308   7.721   8.402   5.604 -0.0311  2.0439  0.3552
12833SOL     OW43309   2.053   2.285   5.568 -0.8489  0.4097  0.5467
12833SOL    HW143310   2.103   2.280   5.649 -0.9571  0.2213  0.6033
12833SOL    HW243311   2.048   2.378   5.548  1.4858  0.3598 -0.6616
12834SOL     OW43312   2.626   8.212   3.091  0.1663 -0.5283  0.4813
12834SOL    HW143313   2.540   8.234   3.056  0.3490 -0.3084  0.1727
12834SOL    HW243314   2.622   8.118   3.107  0.1943 -0.6873 -0.4314
12835SOL     OW43315   1.487   5.360   4.483  0.5701 -0.0775  0.3763
12835SOL    HW143316   1.505   5.453   4.469  0.7131 -0.2022 -0.3117
12835SOL    HW243317   1.529   5.316   4.409  2.3580 -0.8993  1.7694
12836SOL     OW43318   8.024  11.314  11.314 -0.2641 -0.1874 -0.5361
12836SOL    HW143319   7.997  11.226  11.339 -1.7657  0.6727  1.1079
12836SOL    HW243320   7.949  11.370  11.336  0.4651  1.4579 -1.9458
12837SOL     OW43321  10.027   1.588   9.494 -0.2213 -0.1683 -0.2050
12837SOL    HW143322   9.966   1.659   9.474 -0.4374 -0.1600  0.4364
12837SOL    HW243323   9.987   1.510   9.456 -0.7737 -0.2079  0.4236
12838SOL     OW43324   5.617  10.971   6.175  0.0141  0.2395  0.2250
12838SOL    HW143325   5.594  10.901   6.237  1.0704  2.8290  3.8630
12838SOL    HW243326   5.552  11.039   6.191  0.8179  1.3152 -0.9501
12839SOL     OW43327   3.526   4.682   8.966  0.6196  0.5821 -0.5058
12839SOL    HW143328   3.533   4.730   9.049  0.3726 -1.0655  0.5234
12839SOL    HW243329   3.528   4.590   8.992 -1.4565 -0.0062 -2.1538
12840SOL     OW43330   3.757   1.777   3.879  0.2993 -0.3382  0.4071
12840SOL    HW143331   3.676   1.826   3.889  0.2520 -0.3841  0.2394
12840SOL    HW243332   3.736   1.688   3.910 -0.1362 -0.7687 -1.0599
12841SOL     OW43333   2.480   0.288   7.447 -0.5862  0.0633  0.5020
12841SOL    HW143334   2.484   0.242   7.530 -1.1572 -0.5146  0.2201
12841SOL    HW243335   2.394   0.330   7.446 -0.7232 -0.2145  0.0683
12842SOL     OW43336  10.914   3.929   3.691  0.0934 -0.1358 -0.3771
12842SOL    HW143337  10.990   3.969   3.733 -0.8875 -0.6761  2.1180
12842SOL    HW243338  10.931   3.835   3.695 -0.0946 -0.2054 -1.0795
12843SOL     OW43339   8.321   3.035   2.247 -0.8823 -0.0479 -0.4977
12843SOL    HW143340   8.385   3.104   2.234 -0.5682 -0.2353  0.0362
12843SOL    HW243341   8.330   3.009   2.339 -0.1029 -1.6798 -0.9919
12844SOL     OW43342   8.876   0.899   9.932  0.4550  0.8312 -0.1329
12844SOL    HW143343   8.846   0.949  10.008  1.8005  1.2256  0.1588
12844SOL    HW243344   8.845   0.949   9.857 -0.0014  0.9812  0.1497
12845SOL     OW43345   0.969   7.352  10.890  0.5313 -0.1290 -0.0737
12845SOL    HW143346   0.931   7.438  10.873  1.8616  0.8832  1.6761
12845SOL    HW243347   0.917   7.316  10.961 -0.2698 -0.9869 -1.0622
12846SOL     OW43348   5.513  10.039   1.679 -0.1766  0.3381  0.2315
12846SOL    HW143349   5.608  10.033   1.665 -0.1512  0.9936  0.1264
12846SOL    HW243350   5.500   9.997   1.764 -0.1543 -2.2644 -0.9649
12847SOL     OW43351  12.574  12.538   7.683 -0.2926 -0.3395  0.1157
12847SOL    HW143352  12.525  12.620   7.676  2.1132  1.1176 -0.6962
12847SOL    HW243353  12.543  12.486   7.609 -0.5230  0.5926 -0.4677
12848SOL     OW43354  12.397  12.310   3.201 -0.0089  0.1383  0.2370
12848SOL    HW143355  12.320  12.328   3.254 -1.0636 -1.2600 -0.7452
12848SOL    HW243356  12.460  12.270   3.262 -1.0965 -1.1977  0.5291
12849SOL     OW43357   3.999   8.942   7.877  0.1956 -0.2226  0.4293
12849SOL    HW143358   3.981   8.991   7.957  0.2046 -0.8413  0.8159
12849SOL    HW243359   3.952   8.990   7.809  0.5145  0.5334  0.7295
12850SOL     OW43360   3.867   6.826   5.963  0.5108  0.0091 -0.6713
12850SOL    HW143361   3.782   6.833   5.919  1.0807  0.2603 -1.7786
12850SOL    HW243362   3.853   6.865   6.049 -0.5692 -0.2216 -0.7294
12851SOL     OW43363   0.467   0.559  10.952  0.2254  0.3329  0.1933
12851SOL    HW143364   0.559   0.533  10.946  0.3182  0.9271 -1.3550
12851SOL    HW243365   0.419   0.479  10.933  0.4613  0.4528 -0.9659
12852SOL     OW43366  11.621   1.558   0.989 -0.3916 -0.2069  0.0616
12852SOL    HW143367  11.669   1.628   0.944  1.0190 -0.5123  1.0286
12852SOL    HW243368  11.624   1.583   1.081 -0.8231 -0.9855  0.2915
12853SOL     OW43369   7.604  11.442   5.008  0.1115  0.0257 -0.1912
12853SOL    HW143370   7.628  11.516   4.953  2.9429 -1.1552 -0.7409
12853SOL    HW243371   7.520  11.466   5.047  0.2851  2.8948 -1.3873
12854SOL     OW43372   6.815  12.211   1.356  0.6839  0.2843 -0.0895
12854SOL    HW143373   6.860  12.282   1.403 -0.7514  1.9764 -1.1413
12854SOL    HW243374   6.851  12.215   1.268 -2.5828  2.9470 -1.5411
12855SOL     OW43375   7.044   1.129   6.337 -0.2152 -0.3127 -0.1274
12855SOL    HW143376   6.975   1.118   6.402 -0.2915 -3.2165 -0.5231
12855SOL    HW243377   7.001   1.112   6.253  0.8130 -1.7064 -0.4218
12856SOL     OW43378   1.162   1.623   7.246 -0.3095 -0.7101  0.2325
12856SOL    HW143379   1.101   1.615   7.319  0.7062 -0.9766  1.0767
12856SOL    HW243380   1.199   1.710   7.254 -0.5322 -0.5636 -0.2560
12857SOL     OW43381   3.861   0.594   0.832 -0.0223  0.3725  0.2329
12857SOL    HW143382   3.909   0.660   0.883  0.9753 -0.4347  0.3578
12857SOL    HW243383   3.834   0.640   0.753  0.5101  0.9853  0.4000
12858SOL     OW43384  12.059   8.360   1.881 -0.1919 -0.9313 -0.1412
12858SOL    HW143385  11.988   8.424   1.877 -0.3958 -1.0599  1.1742
12858SOL    HW243386  12.063   8.333   1.973  0.7444 -1.8495 -0.4273
12859SOL     OW43387   6.187   7.300   2.421  0.4781 -0.6728 -0.1796
12859SOL    HW143388   6.151   7.248   2.350  0.2194 -0.6873 -0.0401
12859SOL    HW243389   6.253   7.244   2.461  0.8879 -0.5261 -0.6386
12860SOL     OW43390   7.955   7.330   5.852  0.4222  0.1989  0.5110
12860SOL    HW143391   7.983   7.352   5.763  1.3068  0.8631  0.9276
12860SOL    HW243392   8.035   7.301   5.896 -0.3974 -2.3010  0.4919
12861SOL     OW43393   3.500   9.592   1.376 -0.4348 -0.1223  0.0427
12861SOL    HW143394   3.545   9.671   1.406  0.7568 -0.1406 -1.5590
12861SOL    HW243395   3.502   9.533   1.451  1.3909  0.2500  0.3374
12862SOL     OW43396   8.908  12.218   0.861  0.1677 -0.8174  0.2893
12862SOL    HW143397   8.892  12.297   0.913 -0.6096 -0.0219 -1.1092
12862SOL    HW243398   8.998  12.194   0.881  0.9128  1.2687 -0.3184
12863SOL     OW43399  11.102   9.960   2.151 -0.1027 -0.3020 -0.3459
12863SOL    HW143400  11.183  10.000   2.121  1.2600 -0.6463  2.5142
12863SOL    HW243401  11.036  10.029   2.144  0.7883  0.4867 -1.1942
12864SOL     OW43402   4.851  10.094   5.774  0.4332 -0.1416  0.1353
12864SOL    HW143403   4.871  10.036   5.701  1.8327 -0.1568  0.5085
12864SOL    HW243404   4.802  10.167   5.734  0.2461 -0.6719 -0.6215
12865SOL     OW43405  12.041   1.088  12.054  0.0411 -0.0214 -0.1382
12865SOL    HW143406  12.005   1.091  11.965 -0.0500 -1.9915 -0.2118
12865SOL    HW243407  12.011   1.004  12.089 -0.3523  0.9370  1.9599
12866SOL     OW43408  10.217   6.090   4.329 -0.1786 -0.2467  0.0834
12866SOL    HW143409  10.236   6.046   4.412 -0.9320  0.6466  0.7494
12866SOL    HW243410  10.198   6.181   4.354 -3.3170 -0.5872 -0.6858
12867SOL     OW43411  11.419   0.149   3.342  0.1759  0.1865 -0.2477
12867SOL    HW143412  11.379   0.081   3.288 -0.8169  1.7198 -1.5441
12867SOL    HW243413  11.504   0.165   3.302  0.4830 -0.3836  0.1620
12868SOL     OW43414   8.426  11.295  10.947 -0.2245  0.1047  0.4934
12868SOL    HW143415   8.402  11.375  10.994  0.3312  1.7953 -1.8886
12868SOL    HW243416   8.344  11.263  10.911 -0.1717  0.9276 -0.4065
12869SOL     OW43417   5.907   0.035   1.968  0.9017 -0.5198 -0.3847
12869SOL    HW143418   5.902   0.053   1.874  1.8856 -1.7556 -0.6969
12869SOL    HW243419   5.912  -0.061   1.974 -3.6830 -0.9482  1.1399
12870SOL     OW43420   1.485   5.248   7.498  0.7175 -0.3459  0.8875
12870SOL    HW143421   1.541   5.259   7.421  0.7724 -1.0897  0.8101
12870SOL    HW243422   1.411   5.195   7.466 -1.3873  2.6489  0.3491
12871SOL     OW43423   7.387   9.028   2.984 -0.2537  0.3771 -0.2831
12871SOL    HW143424   7.419   8.942   2.958 -0.8263 -0.4904  1.6785
12871SOL    HW243425   7.433   9.046   3.066 -1.5006  1.0949  0.2862
12872SOL     OW43426  10.058   8.593   8.907 -0.3703 -0.0848 -0.2101
12872SOL    HW143427  10.009   8.668   8.872 -0.9262 -1.2274 -2.0458
12872SOL    HW243428  10.014   8.572   8.989 -0.7600  1.0428 -0.1125
12873SOL     OW43429   8.378   5.392   3.941  0.2406 -0.0026  0.3369
12873SOL    HW143430   8.416   5.309   3.910 -1.4805 -0.8254  0.3180
12873SOL    HW243431   8.369   5.381   4.035 -0.6461 -0.1420  0.2465
12874SOL     OW43432   7.468   4.743   0.231 -0.6006  0.2607  0.4228
12874SOL    HW143433   7.527   4.734   0.156 -1.5074 -1.4334 -0.1393
12874SOL    HW243434   7.500   4.679   0.295  0.0835  1.5969  1.4567
12875SOL     OW43435  10.041  10.206   5.205  0.1852  0.1062 -0.4149
12875SOL    HW143436   9.962  10.189   5.154  2.0013 -2.7603 -2.5600
12875SOL    HW243437  10.084  10.279   5.160  1.2290 -1.7001 -2.5336
12876SOL     OW43438   2.631   7.867  11.061 -0.3016 -0.3508  0.1219
12876SOL    HW143439   2.722   7.861  11.092 -0.7982 -1.6185  1.4461
12876SOL    HW243440   2.618   7.960  11.042  1.3877 -0.2033 -0.5167
12877SOL     OW43441   3.634   5.540   9.969  0.2747  0.0799 -0.1509
12877SOL    HW143442   3.721   5.542  10.009 -0.7338  0.2956  2.1804
12877SOL    HW243443   3.625   5.627   9.929  0.6715  0.5223  0.6896
12878SOL     OW43444  11.598   1.239   1.832  0.0811 -0.1180 -0.2504
12878SOL    HW143445  11.671   1.179   1.822 -0.6885 -0.9365 -1.1578
12878SOL    HW243446  11.523   1.183   1.850 -0.2641  0.7388  1.2140
12879SOL     OW43447   1.980   8.172   1.396 -0.7631 -0.1843 -0.1019
12879SOL    HW143448   2.002   8.188   1.305  0.1038 -0.6176  0.0204
12879SOL    HW243449   1.889   8.200   1.404 -0.5907  0.6495 -0.8914
12880SOL     OW43450   4.488  11.739   2.792  0.1396  0.2270 -0.9149
12880SOL    HW143451   4.519  11.683   2.720  1.3930  0.1528 -0.3404
12880SOL    HW243452   4.396  11.758   2.770 -0.6614 -2.8224 -0.6683
12881SOL     OW43453  11.915   2.650   5.548  0.4744 -0.0251 -0.1373
12881SOL    HW143454  11.968   2.680   5.474  3.2357 -1.2883  1.1907
12881SOL    HW243455  11.927   2.717   5.615  0.2899 -0.2654  0.1375
12882SOL     OW43456   5.470   5.990   2.856  0.2587 -0.0875  0.4638
12882SOL    HW143457   5.458   6.046   2.932 -1.1304  0.8980 -0.4304
12882SOL    HW243458   5.381   5.966   2.830  0.6822 -0.0799 -1.0663
12883SOL     OW43459   0.851   4.564  10.270 -0.1669  0.0235  0.1619
12883SOL    HW143460   0.807   4.604  10.195 -0.5294  0.5999  0.6681
12883SOL    HW243461   0.908   4.498  10.232  0.0827  0.6980 -0.6648
12884SOL     OW43462  12.529  12.015   9.385 -0.4294  0.6105  0.0728
12884SOL    HW143463  12.474  12.067   9.444  1.1540  2.1987  0.2450
12884SOL    HW243464  12.510  12.050   9.298 -1.2571 -0.3299 -0.1378
12885SOL     OW43465   8.411   3.102  10.728 -0.1765  0.5050 -0.3935
12885SOL    HW143466   8.338   3.048  10.697 -1.2680  1.1967  0.8768
12885SOL    HW243467   8.481   3.086  10.665 -1.5805  0.1984 -1.9396
12886SOL     OW43468   8.758   8.562   3.371 -0.1581  0.3663 -0.3646
12886SOL    HW143469   8.697   8.628   3.339  1.1628  0.7848 -2.2517
12886SOL    HW243470   8.706   8.482   3.380 -1.2830  1.0889 -0.3853
12887SOL     OW43471   8.100   2.444   9.334 -0.2979 -0.1924  0.3518
12887SOL    HW143472   8.031   2.429   9.399 -0.0178 -0.4355  0.5906
12887SOL    HW243473   8.177   2.469   9.385 -0.2306  0.1663  0.0788
12888SOL     OW43474  11.163   6.073   8.049  0.0798  0.0451 -0.4398
12888SOL    HW143475  11.084   6.047   8.096 -0.0799  1.6216  0.2423
12888SOL    HW243476  11.136   6.078   7.958 -0.9583  1.6561 -0.0833
12889SOL     OW43477   7.708   6.703   6.461 -0.4411  0.2521 -0.2881
12889SOL    HW143478   7.746   6.785   6.491  0.3900 -0.2825  0.1763
12889SOL    HW243479   7.625   6.695   6.509 -0.8293  1.1117 -0.8072
12890SOL     OW43480  10.736   9.068  11.009  0.4477  0.5659 -0.1463
12890SOL    HW143481  10.715   9.004  10.941 -0.4994  0.5177  0.1793
12890SOL    HW243482  10.751   9.149  10.961 -0.5745  0.6178 -0.4068
12891SOL     OW43483   1.914   7.061  11.191  0.2905 -0.0126  0.2617
12891SOL    HW143484   1.949   7.116  11.121  0.4460  0.5295  0.7504
12891SOL    HW243485   1.821   7.085  11.196  0.0416 -0.7876 -0.4254
12892SOL     OW43486   5.085   8.584  10.344 -0.2345 -0.5963 -0.1709
12892SOL    HW143487   5.160   8.640  10.363  0.7916 -1.6092 -1.0726
12892SOL    HW243488   5.077   8.585  10.249 -1.8669  0.0981 -0.0592
12893SOL     OW43489   4.873   8.080  10.881  0.3615 -0.1144  0.0618
12893SOL    HW143490   4.819   8.141  10.929 -0.0899  1.0254 -1.7968
12893SOL    HW243491   4.918   8.134  10.816  1.5024 -1.4704 -0.3250
12894SOL     OW43492   0.822   0.601   9.222  0.3055  0.5141 -0.3167
12894SOL    HW143493   0.894   0.661   9.201  0.7535  0.6312  1.4109
12894SOL    HW243494   0.767   0.650   9.284  1.1719 -1.1019  1.8674
12895SOL     OW43495   7.477   5.471  12.103 -0.0223 -0.0511 -0.3206
12895SOL    HW143496   7.404   5.425  12.145 -1.2911  1.1728 -1.1357
12895SOL    HW243497   7.534   5.496  12.176  0.6638 -2.7225  0.1763
12896SOL     OW43498   6.699   4.465   6.425 -0.1770  0.1363 -0.3319
12896SOL    HW143499   6.662   4.526   6.361 -1.0316  0.5856  0.5644
12896SOL    HW243500   6.788   4.497   6.439 -0.9929  2.0331  1.0825
12897SOL     OW43501   1.735   1.887  11.161 -0.5918  0.0053  0.3545
12897SOL    HW143502   1.693   1.802  11.176  0.3722 -0.3386  1.2253
12897SOL    HW243503   1.667   1.940  11.119 -1.0613 -1.3370 -0.6426
12898SOL     OW43504   2.014  11.422   4.191  0.2229  0.2554 -0.3275
12898SOL    HW143505   1.983  11.441   4.280 -0.9477  0.8120 -0.8381
12898SOL    HW243506   2.036  11.507   4.154  2.0033 -0.0767 -0.1464
12899SOL     OW43507   6.172   1.789   7.427  0.5483 -0.0378  0.0075
12899SOL    HW143508   6.087   1.824   7.455  0.8380  0.2456  0.5283
12899SOL    HW243509   6.149   1.728   7.356 -0.0164  0.6872 -0.4549
12900SOL     OW43510   1.152   5.963   4.212  0.0244 -0.6493  0.1213
12900SOL    HW143511   1.195   5.883   4.182 -0.0157 -0.5642 -0.1698
12900SOL    HW243512   1.080   5.933   4.267  0.8390 -0.7823  1.1421
12901SOL     OW43513   2.945  10.608   6.190 -0.6370 -0.6892  0.4525
12901SOL    HW143514   2.982  10.630   6.275 -0.2973  2.4268 -0.3715
12901SOL    HW243515   2.997  10.659   6.127 -1.7489 -1.8189 -1.4755
12902SOL     OW43516  12.349   7.369   6.643 -0.0318 -0.1122  0.4869
12902SOL    HW143517  12.292   7.382   6.567  0.1882  1.3782  0.5524
12902SOL    HW243518  12.289   7.375   6.718  0.0176  0.2010  0.5021
12903SOL     OW43519   3.486   1.463   0.375 -1.2327 -0.2850  0.8114
12903SOL    HW143520   3.397   1.460   0.410 -1.1907  1.1558  1.1043
12903SOL    HW243521   3.541   1.436   0.448 -1.2683  1.1323  1.3865
12904SOL     OW43522   7.278   3.945   7.557  0.3592  0.0360 -0.1254
12904SOL    HW143523   7.205   4.005   7.537  0.0537 -0.1870  0.2905
12904SOL    HW243524   7.315   3.980   7.638 -1.1531 -1.5019  1.3194
12905SOL     OW43525   0.175   0.511  12.148 -0.6334 -1.0287  0.3722
12905SOL    HW143526   0.150   0.556  12.067  1.5987  3.4537  1.8801
12905SOL    HW243527   0.091   0.492  12.191 -1.8702  2.6101 -0.0677
12906SOL     OW43528  12.076   8.925  11.871  0.4792 -0.4651  0.1133
12906SOL    HW143529  12.126   8.862  11.819  0.1745  0.5433 -1.4668
12906SOL    HW243530  12.002   8.948  11.816 -1.6124 -1.6663  2.2749
12907SOL     OW43531   8.120   7.912   0.968 -0.4533  0.6527 -0.7276
12907SOL    HW143532   8.050   7.900   1.033 -1.0615  0.8577 -1.3237
12907SOL    HW243533   8.136   7.825   0.933 -1.8321  0.8697 -1.9997
12908SOL     OW43534   7.584   6.703   2.480 -0.1281  0.5220 -0.3125
12908SOL    HW143535   7.647   6.717   2.409 -0.4346 -2.0080 -1.1632
12908SOL    HW243536   7.635   6.715   2.560  1.1609 -0.2272 -0.9837
12909SOL     OW43537   9.481   5.582   5.119  0.0396  0.2449  0.3751
12909SOL    HW143538   9.526   5.498   5.125  1.0527  0.8722  2.2688
12909SOL    HW243539   9.407   5.565   5.061 -1.0895 -2.5567  2.4266
12910SOL     OW43540  11.405  10.653   6.840 -0.3191 -0.3532 -0.1727
12910SOL    HW143541  11.426  10.681   6.930 -0.1811  1.2219 -0.6684
12910SOL    HW243542  11.416  10.732   6.787  0.8679 -1.5414 -1.8053
12911SOL     OW43543  11.100   5.169   8.052  0.0370 -0.2268 -0.1971
12911SOL    HW143544  11.047   5.245   8.029  1.0418  0.0400 -1.8722
12911SOL    HW243545  11.073   5.146   8.141 -3.7661 -0.9092 -1.3512
12912SOL     OW43546   1.060   0.765  12.541 -0.3847  0.2763  0.0133
12912SOL    HW143547   1.121   0.813  12.484  0.8628  1.3004  2.0875
12912SOL    HW243548   1.042   0.684  12.494  2.7856 -0.1673 -0.6389
12913SOL     OW43549   1.634  10.607  10.473  0.0757  0.4730  0.0600
12913SOL    HW143550   1.639  10.532  10.414 -1.1408  1.1988 -1.0413
12913SOL    HW243551   1.724  10.626  10.497  0.4472 -0.9384 -0.1426
12914SOL     OW43552   2.030  12.545   1.079 -0.3060  0.0066  0.0474
12914SOL    HW143553   1.993  12.631   1.097 -0.0483  0.4020 -1.2285
12914SOL    HW243554   2.057  12.549   0.987  2.4333 -0.4251  0.7281
12915SOL     OW43555   6.763   5.319   3.500 -0.1582  0.3076 -1.1316
12915SOL    HW143556   6.790   5.382   3.433 -0.9820  2.5119  0.4720
12915SOL    HW243557   6.668   5.319   3.495 -0.1922 -0.1532 -0.5448
12916SOL     OW43558   6.146  10.829  10.552  0.1644  0.2457 -0.0517
12916SOL    HW143559   6.056  10.863  10.549 -0.0554 -0.2942  0.2176
12916SOL    HW243560   6.135  10.734  10.540  0.6535  0.1105  0.5659
12917SOL     OW43561   9.922   7.395   0.800  0.1195 -0.1005  0.1683
12917SOL    HW143562  10.003   7.435   0.771  0.4459 -0.4308  0.6063
12917SOL    HW243563   9.943   7.302   0.811 -0.2000 -0.1166  0.6872
12918SOL     OW43564   2.391   8.026  10.040 -0.1405 -0.1422  0.1477
12918SOL    HW143565   2.323   8.039   9.975 -0.8599 -0.4553  0.8267
12918SOL    HW243566   2.352   7.968  10.105  1.4837 -2.1921 -0.5596
12919SOL     OW43567   4.322   6.254   6.753 -0.1942  0.1344  0.2354
12919SOL    HW143568   4.295   6.341   6.783  0.0741 -0.4503  2.3740
12919SOL    HW243569   4.241   6.213   6.723 -0.1429  1.4783 -1.9186
12920SOL     OW43570  11.820   6.572  11.652 -0.5931 -0.2832  0.2763
12920SOL    HW143571  11.771   6.498  11.688 -0.6202  0.3454  1.5879
12920SOL    HW243572  11.905   6.567  11.695 -0.4298  0.1839  0.0137
12921SOL     OW43573   5.453   6.402   2.153 -0.0119 -0.0690  0.2603
12921SOL    HW143574   5.482   6.311   2.166 -0.9419 -0.5632 -0.8770
12921SOL    HW243575   5.376   6.394   2.097 -1.4558  1.2730  1.9484
12922SOL     OW43576   9.746   4.336   3.770 -0.4043 -0.0732  0.2074
12922SOL    HW143577   9.708   4.279   3.704 -1.0681  0.0152  0.5086
12922SOL    HW243578   9.801   4.397   3.719 -0.4860 -0.3379 -0.2062
12923SOL     OW43579  12.225   3.230  11.500  0.1359 -0.0339  0.0237
12923SOL    HW143580  12.220   3.269  11.413 -0.6871 -3.5676 -1.7219
12923SOL    HW243581  12.317   3.206  11.510  0.0070 -0.7828 -0.4956
12924SOL     OW43582   2.333  11.849   9.995  0.3514 -0.3014 -0.5013
12924SOL    HW143583   2.410  11.802   9.964  1.2505  1.0205 -0.3664
12924SOL    HW243584   2.260  11.791   9.975  1.4797 -2.1931  0.6041
12925SOL     OW43585  10.953   5.417   4.799  0.2637  0.5885 -0.4064
12925SOL    HW143586  10.970   5.343   4.740  1.5195  1.1788 -0.8215
12925SOL    HW243587  11.029   5.475   4.788  0.5518  0.7156  1.8260
12926SOL     OW43588   7.764   2.013   5.197  0.9161 -0.1955  0.4059
12926SOL    HW143589   7.784   2.104   5.221  1.6818 -0.7424  1.9109
12926SOL    HW243590   7.675   1.999   5.228 -0.7864  1.1447 -3.2057
12927SOL     OW43591   6.800   4.094  10.394  0.4150  0.1933  0.5920
12927SOL    HW143592   6.881   4.097  10.445 -0.0513  0.0592  1.3587
12927SOL    HW243593   6.772   4.186  10.387  0.5457  0.2236  0.4730
12928SOL     OW43594   8.607   1.511  10.149  0.0001  0.9242 -0.0416
12928SOL    HW143595   8.597   1.459  10.069 -0.3930 -2.8171  2.1721
12928SOL    HW243596   8.518   1.522  10.182  0.2432  1.5071  0.4369
12929SOL     OW43597   7.166   5.482   6.829  0.1545 -0.0262 -0.0078
12929SOL    HW143598   7.177   5.538   6.906  1.8550 -1.4740  0.8750
12929SOL    HW243599   7.097   5.421   6.854  0.2317 -0.0639  0.1165
12930SOL     OW43600   2.521   2.862  10.419 -0.1452 -0.4161 -0.3286
12930SOL    HW143601   2.601   2.837  10.464 -0.6351 -1.4425 -0.0034
12930SOL    HW243602   2.514   2.956  10.435  0.2849 -0.5539  0.7922
12931SOL     OW43603   6.761   6.575  10.487 -0.2661  0.0197 -0.0236
12931SOL    HW143604   6.833   6.629  10.520  1.5262 -0.7271 -2.4363
12931SOL    HW243605   6.789   6.485  10.506  0.1043 -0.3411 -2.0924
12932SOL     OW43606   5.258   8.374  12.446 -0.0093 -0.4355 -0.0031
12932SOL    HW143607   5.171   8.381  12.407 -0.7811  0.1538  1.7100
12932SOL    HW243608   5.272   8.280  12.454  0.0840 -0.5651 -1.4452
12933SOL     OW43609   3.696  10.264   3.933  0.1782 -0.2392 -0.3555
12933SOL    HW143610   3.659  10.311   4.007 -2.0342 -0.2531 -1.3941
12933SOL    HW243611   3.791  10.266   3.949 -0.0347  2.0568  1.0826
12934SOL     OW43612   0.149   8.905   3.184 -0.6072 -0.2872 -0.0002
12934SOL    HW143613   0.123   8.969   3.119  0.7135 -0.7400 -1.0207
12934SOL    HW243614   0.170   8.957   3.262  2.3056  0.8113 -1.3753
12935SOL     OW43615   4.065  12.618   4.785 -0.1134 -0.4705  0.1774
12935SOL    HW143616   4.127  12.676   4.830  0.4215 -0.5669 -0.4203
12935SOL    HW243617   4.107  12.532   4.786 -0.2147 -0.5290 -0.2739
12936SOL     OW43618   8.391   1.522   4.862  0.0622 -0.3628 -0.1395
12936SOL    HW143619   8.443   1.601   4.850 -0.2959 -0.2292 -0.9036
12936SOL    HW243620   8.301   1.550   4.846 -0.3207 -0.4905  1.6444
12937SOL     OW43621   6.270   6.204   6.919  0.6925  0.2377 -0.7040
12937SOL    HW143622   6.343   6.231   6.975 -0.7661  1.1175  0.8814
12937SOL    HW243623   6.281   6.255   6.839  0.6382  2.0015  0.3738
12938SOL     OW43624   3.767   1.973   1.324 -0.0268 -0.8156  0.1458
12938SOL    HW143625   3.811   1.977   1.239 -1.2962 -0.2190 -0.5077
12938SOL    HW243626   3.695   1.912   1.310 -1.3263  0.6509  0.2558
12939SOL     OW43627   1.460   2.694  10.558  0.3741 -0.0658 -0.2569
12939SOL    HW143628   1.511   2.725  10.482  0.6448  0.0610 -0.0261
12939SOL    HW243629   1.487   2.751  10.629  0.3393 -0.3780  0.0077
12940SOL     OW43630   2.265   1.109  10.982 -0.6060 -0.3115 -0.1399
12940SOL    HW143631   2.175   1.126  10.954 -0.6783 -0.3694  0.0561
12940SOL    HW243632   2.270   1.014  10.991 -0.0389 -0.4653 -1.7798
12941SOL     OW43633  10.034   6.189   0.721 -0.1283  0.9246 -0.3917
12941SOL    HW143634   9.964   6.200   0.786 -0.3476 -0.4867 -0.3540
12941SOL    HW243635   9.987   6.175   0.639  0.1488  2.5199 -0.8665
12942SOL     OW43636   5.989   1.190   5.343 -0.1662  0.3674  0.1605
12942SOL    HW143637   5.940   1.151   5.416  1.0899  0.0930  0.8790
12942SOL    HW243638   6.031   1.115   5.300 -2.5605  0.2343 -2.2080
12943SOL     OW43639  10.533   4.123  10.573  0.1003  0.2891 -0.3122
12943SOL    HW143640  10.441   4.125  10.598 -0.1292 -0.0894 -1.0917
12943SOL    HW243641  10.534   4.153  10.482  0.5110 -1.5389 -0.9561
12944SOL     OW43642   5.067   1.100   6.956  0.0384 -0.5376  0.1773
12944SOL    HW143643   4.991   1.155   6.975  0.2603 -0.2517  0.2641
12944SOL    HW243644   5.108   1.087   7.042 -0.9144 -2.2155  0.4107
12945SOL     OW43645   1.665   6.253   3.545  0.5826 -0.7314 -0.1643
12945SOL    HW143646   1.703   6.329   3.590 -0.7874 -1.2945  2.1177
12945SOL    HW243647   1.597   6.290   3.489  0.1437 -0.2321  0.6853
12946SOL     OW43648   7.614   1.950   7.570  0.0342 -0.4888 -0.4010
12946SOL    HW143649   7.604   2.010   7.644  0.7246 -0.2306 -0.5039
12946SOL    HW243650   7.678   1.993   7.513  0.0071 -0.9935 -0.8225
12947SOL     OW43651   2.496  10.673   0.576  0.0565  0.2523 -0.6750
12947SOL    HW143652   2.569  10.611   0.569  0.6435  0.6669  1.1337
12947SOL    HW243653   2.440  10.635   0.644 -0.2618  1.0410 -0.4873
12948SOL     OW43654  12.131   0.979   3.572 -0.4675 -0.4829 -0.3352
12948SOL    HW143655  12.076   0.986   3.494 -0.9882  0.1112  0.0788
12948SOL    HW243656  12.095   0.904   3.619  1.4466 -2.5175 -1.8873
12949SOL     OW43657   0.734   7.197   6.431 -0.1825 -0.3058 -0.0454
12949SOL    HW143658   0.685   7.238   6.502  0.2263  0.3658 -0.1357
12949SOL    HW243659   0.727   7.103   6.447  0.2412 -0.1563  1.1219
12950SOL     OW43660   7.811   8.021   5.183 -0.4886  0.1305 -0.2634
12950SOL    HW143661   7.830   7.964   5.109  3.5776  0.9579 -0.0633
12950SOL    HW243662   7.837   8.109   5.153 -2.8879  1.2845  0.7520
12951SOL     OW43663  10.575   5.243   9.445 -0.0886  0.1321  0.0483
12951SOL    HW143664  10.529   5.194   9.377 -2.3126  2.0889  0.0241
12951SOL    HW243665  10.553   5.334   9.428  0.2246  0.7959  2.7350
12952SOL     OW43666  10.940   8.484   5.155  0.0594  0.0350 -0.5335
12952SOL    HW143667  10.961   8.501   5.246  3.5274 -0.3496 -1.1148
12952SOL    HW243668  10.878   8.553   5.131 -1.0763  0.0157  2.1024
12953SOL     OW43669   6.853  10.788  11.926  0.4396  0.0152  0.1471
12953SOL    HW143670   6.912  10.718  11.896  0.2029 -0.2983  0.4003
12953SOL    HW243671   6.785  10.742  11.974  1.0474  0.5326  1.5548
12954SOL     OW43672  12.063  12.160   3.591 -0.0579 -0.5481  0.2683
12954SOL    HW143673  12.032  12.076   3.557 -2.0624 -0.0305  0.6976
12954SOL    HW243674  12.067  12.148   3.686 -0.8022 -0.0266  0.3711
12955SOL     OW43675   1.222   5.774  10.181  0.0146  0.2980  0.0359
12955SOL    HW143676   1.140   5.724  10.178 -0.2627  0.7227  0.3635
12955SOL    HW243677   1.194   5.865  10.176  0.5395  0.4156 -0.8826
12956SOL     OW43678   0.810   0.596  10.405  0.1541 -0.2559 -0.6679
12956SOL    HW143679   0.902   0.576  10.420 -0.1801 -1.7096 -0.4308
12956SOL    HW243680   0.768   0.582  10.490 -0.4923 -0.9162 -1.0843
12957SOL     OW43681   9.395  10.582   4.485  0.6699  0.4086  0.5688
12957SOL    HW143682   9.474  10.552   4.438  0.1394  0.0978 -0.1513
12957SOL    HW243683   9.326  10.524   4.453 -0.0983  1.4812  0.2416
12958SOL     OW43684  11.297   7.557  12.127  0.4813  1.1267  0.7169
12958SOL    HW143685  11.243   7.625  12.167 -0.9782  1.0436 -0.9907
12958SOL    HW243686  11.259   7.475  12.159 -1.0127  1.0458 -1.1013
12959SOL     OW43687   0.370  11.663  10.981  0.4113 -0.2122 -0.1168
12959SOL    HW143688   0.332  11.686  10.897  2.6940  1.7714 -0.6973
12959SOL    HW243689   0.300  11.681  11.045 -0.6345  0.2996 -1.3627
12960SOL     OW43690   7.402   7.750   7.547  0.6198  0.3783  0.3458
12960SOL    HW143691   7.467   7.703   7.495  0.5019  1.6433 -1.0105
12960SOL    HW243692   7.417   7.719   7.637  1.5586 -1.0492 -0.2529
12961SOL     OW43693   2.325   7.622   5.968  0.2525 -0.7048  0.1419
12961SOL    HW143694   2.232   7.619   5.944  0.5533 -1.6133 -0.9878
12961SOL    HW243695   2.339   7.712   5.998 -0.7135 -0.2199 -0.7968
12962SOL     OW43696   0.110   0.636   7.273 -0.0713 -0.2810 -0.9659
12962SOL    HW143697   0.048   0.571   7.307 -0.8381 -0.6687 -2.9312
12962SOL    HW243698   0.123   0.697   7.345  1.8671 -3.3565  1.5295
12963SOL     OW43699   5.140  11.985   3.615 -0.3888 -0.3590 -0.2128
12963SOL    HW143700   5.145  11.920   3.545 -1.3355 -2.1846  1.3366
12963SOL    HW243701   5.230  12.017   3.624  0.1891 -1.7598 -0.7432
12964SOL     OW43702  10.218  11.357  11.264  0.3914  0.1880  0.5276
12964SOL    HW143703  10.183  11.363  11.175  1.7947  0.4575 -0.0305
12964SOL    HW243704  10.157  11.300  11.310 -0.3938  0.0972 -0.5920
12965SOL     OW43705   5.604   6.625  10.402 -0.0833  0.0868  0.3680
12965SOL    HW143706   5.629   6.645  10.312  0.3209  1.7625  0.8162
12965SOL    HW243707   5.687   6.624  10.450 -0.4666  1.5015  1.1115
12966SOL     OW43708   1.076   7.598   5.793 -0.0744  0.3411  0.4563
12966SOL    HW143709   1.158   7.549   5.796 -0.6910 -0.9517 -1.5012
12966SOL    HW243710   1.041   7.580   5.705 -2.8638  0.1719  1.5116
12967SOL     OW43711  12.306   4.535   0.074  0.2200 -0.0815 -0.2327
12967SOL    HW143712  12.297   4.606   0.137  1.9424  0.9269 -1.0668
12967SOL    HW243713  12.386   4.555   0.025 -0.6385 -1.2122 -2.2551
12968SOL     OW43714   8.106   1.085   5.095  0.2724  1.0604  0.7142
12968SOL    HW143715   8.132   1.081   5.003 -0.1881  1.6321  0.5478
12968SOL    HW243716   8.062   1.002   5.112  3.0787 -0.3931  1.3034
12969SOL     OW43717   7.849  10.362   6.124 -0.1329  0.1659 -0.3125
12969SOL    HW143718   7.789  10.436   6.134  1.3599  1.2726  0.8720
12969SOL    HW243719   7.875  10.339   6.213  0.2414 -1.1295 -0.7292
12970SOL     OW43720   5.913   5.323   7.967  0.4331 -0.3085 -0.2432
12970SOL    HW143721   5.931   5.366   8.051 -0.9393 -0.8948  0.3937
12970SOL    HW243722   5.909   5.395   7.904 -0.4196  0.3776  0.5496
12971SOL     OW43723   4.415   8.136  10.088  0.0914 -0.3925 -0.2759
12971SOL    HW143724   4.383   8.065  10.032  4.0078 -3.4037  0.8768
12971SOL    HW243725   4.392   8.109  10.176 -0.4457  1.0743  0.0624
12972SOL     OW43726   7.249   0.920   8.272  0.3088 -0.9785  0.6589
12972SOL    HW143727   7.163   0.921   8.231  0.1920 -2.1309  0.8461
12972SOL    HW243728   7.306   0.880   8.206  0.6580 -0.4692  0.6422
12973SOL     OW43729   9.357   4.810   9.961  0.2484 -0.0910  0.1647
12973SOL    HW143730   9.422   4.818   9.892  0.4805  0.8313  0.4775
12973SOL    HW243731   9.407   4.819  10.042 -0.4154  1.9303  0.3888
12974SOL     OW43732  10.781   2.175   5.209 -0.0030 -0.0251 -0.0605
12974SOL    HW143733  10.726   2.208   5.281  1.7955  2.3538  0.3408
12974SOL    HW243734  10.749   2.222   5.132  1.0020  0.8654  0.0546
12975SOL     OW43735   7.371   2.276   7.595  0.0642  0.6689 -0.0246
12975SOL    HW143736   7.308   2.336   7.634  1.2527  0.8494  1.7610
12975SOL    HW243737   7.318   2.206   7.558 -1.1869  0.2487  2.3575
12976SOL     OW43738   6.068  11.667   1.606  0.3265  0.1065  0.0103
12976SOL    HW143739   6.110  11.638   1.686  0.4816  0.7564  0.1725
12976SOL    HW243740   5.978  11.635   1.612  0.6445 -0.8331 -0.0932
12977SOL     OW43741   3.207   3.965   6.130 -0.4684 -0.3004  0.6179
12977SOL    HW143742   3.199   4.059   6.149  0.3961 -0.3526  1.2842
12977SOL    HW243743   3.136   3.947   6.068  0.5874  1.2491 -1.1563
12978SOL     OW43744   2.412   6.904  11.230 -0.4377 -0.2036  0.2613
12978SOL    HW143745   2.327   6.872  11.262 -0.3051 -2.0129 -1.0595
12978SOL    HW243746   2.389   6.976  11.171 -1.1961 -1.4174 -0.9941
12979SOL     OW43747   9.832   9.238  11.480  0.3072 -0.2478  0.3879
12979SOL    HW143748   9.889   9.258  11.554 -0.6662 -0.6730  1.2822
12979SOL    HW243749   9.874   9.281  11.406  1.1372  0.4727  1.2374
12980SOL     OW43750   0.259   5.780  10.517 -0.4665 -0.0778 -0.0035
12980SOL    HW143751   0.349   5.758  10.540 -1.1088 -0.5130  2.3190
12980SOL    HW243752   0.235   5.852  10.576 -1.6781 -0.0327 -0.5034
12981SOL     OW43753  12.382   2.824   7.843  0.2699  0.0691  0.7507
12981SOL    HW143754  12.295   2.855   7.868 -1.8366 -3.1243 -1.8367
12981SOL    HW243755  12.407   2.764   7.913 -1.4600 -1.9100 -0.2268
12982SOL     OW43756  12.336   5.203  10.528 -0.0360 -0.4854  0.5932
12982SOL    HW143757  12.298   5.146  10.461  0.3060  1.8308 -1.7478
12982SOL    HW243758  12.262   5.227  10.584 -1.2249  0.4277 -1.2399
12983SOL     OW43759   5.603   3.254  10.787  0.3894  0.1694 -0.3224
12983SOL    HW143760   5.561   3.176  10.824  0.1675 -0.9474 -2.7859
12983SOL    HW243761   5.543   3.283  10.719  1.2351  1.5996 -0.4915
12984SOL     OW43762   9.259  11.812  10.476 -0.3545 -0.0571 -0.5714
12984SOL    HW143763   9.223  11.899  10.457  0.8061  0.3620 -0.9534
12984SOL    HW243764   9.278  11.775  10.389  0.5989 -0.0391 -0.3875
12985SOL     OW43765   2.366   0.242   6.469  0.0127 -0.1947  0.4796
12985SOL    HW143766   2.382   0.336   6.461  0.0474 -0.2602 -0.2697
12985SOL    HW243767   2.286   0.227   6.419  1.2881 -0.9326 -1.4267
12986SOL     OW43768   7.016  11.709   5.730 -0.4580 -0.2310  0.9011
12986SOL    HW143769   7.081  11.769   5.766  0.2371  1.1181 -2.2896
12986SOL    HW243770   7.067  11.633   5.701 -0.3545  0.4526 -0.8128
12987SOL     OW43771  11.381  11.216   6.520  0.3321  0.6839 -0.2793
12987SOL    HW143772  11.451  11.264   6.566 -0.1844  1.2841 -0.1069
12987SOL    HW243773  11.304  11.227   6.575  0.1489 -0.1734 -0.3527
12988SOL     OW43774  10.095  10.218   2.155 -0.3540 -0.4159 -0.0249
12988SOL    HW143775  10.016  10.258   2.190  0.8111  1.2146  0.8989
12988SOL    HW243776  10.065  10.139   2.110 -2.4744  0.1506  0.3091
12989SOL     OW43777   7.322   4.326   0.451 -0.2798 -0.4047  0.0788
12989SOL    HW143778   7.303   4.417   0.430 -0.5672 -0.1496  1.3537
12989SOL    HW243779   7.373   4.294   0.377 -0.9358  0.5324 -0.7938
12990SOL     OW43780   1.349   5.375   5.012  0.7067  0.0321  0.5537
12990SOL    HW143781   1.340   5.454   5.065 -3.0398  0.4796 -0.4630
12990SOL    HW243782   1.358   5.407   4.922  0.9956 -0.7114  0.3060
12991SOL     OW43783   1.926   8.348   1.957  0.3420 -0.2940 -0.1272
12991SOL    HW143784   1.949   8.258   1.982 -1.3979 -0.4898  0.9387
12991SOL    HW243785   1.832   8.354   1.975  0.0507  1.1904 -1.9036
12992SOL     OW43786   2.891   5.913   3.846  0.1339 -0.1206 -0.2505
12992SOL    HW143787   2.967   5.856   3.831  0.8072  0.8583 -0.7132
12992SOL    HW243788   2.816   5.855   3.838  0.8311 -1.1345  0.2814
12993SOL     OW43789  12.625   7.110   5.680  0.4661 -0.1026  0.1970
12993SOL    HW143790  12.640   7.037   5.621 -0.0957 -0.4149  0.4400
12993SOL    HW243791  12.706   7.162   5.674  1.1605 -1.1216  0.5856
12994SOL     OW43792   3.533  10.675   3.870 -0.4342 -0.6145  0.2698
12994SOL    HW143793   3.618  10.661   3.912 -0.3579 -3.0694 -0.5633
12994SOL    HW243794   3.470  10.677   3.942 -0.0053 -2.0283  0.7183
12995SOL     OW43795   0.545   3.665  12.439 -0.0461  0.0117 -0.6974
12995SOL    HW143796   0.489   3.689  12.365 -1.1110 -0.3506 -0.0397
12995SOL    HW243797   0.550   3.744  12.492  0.3942  0.1589 -0.9582
12996SOL     OW43798   0.501   9.657  11.099  0.6551 -0.6623 -0.6118
12996SOL    HW143799   0.449   9.578  11.112  0.1428 -0.2923 -0.3897
12996SOL    HW243800   0.498   9.673  11.004 -1.0479  0.2946 -0.4322
12997SOL     OW43801   4.418   8.722  11.192 -0.6255 -0.1135 -0.1480
12997SOL    HW143802   4.459   8.805  11.217 -0.4430  0.2431 -1.5373
12997SOL    HW243803   4.415   8.671  11.273  0.3873  0.7757  0.4738
12998SOL     OW43804   9.160   4.667   7.105 -0.7908 -0.3025  0.3021
12998SOL    HW143805   9.117   4.652   7.188 -0.6859 -1.7939  0.1141
12998SOL    HW243806   9.120   4.604   7.045  1.1479 -1.2940 -0.0284
12999SOL     OW43807   1.101   8.749   3.817 -0.4432 -0.4710 -0.0334
12999SOL    HW143808   1.150   8.755   3.735  0.7124  0.6277  0.7092
12999SOL    HW243809   1.075   8.839   3.836  1.0704 -0.3694  1.8277
13000SOL     OW43810   9.390   9.274   6.779 -0.2030 -0.2841  0.7985
13000SOL    HW143811   9.380   9.320   6.695  0.3573  0.7085  1.2544
13000SOL    HW243812   9.300   9.257   6.807 -0.3950 -0.6170  0.0007
13001SOL     OW43813   7.785   4.402  11.147  0.0978  0.2457 -0.4441
13001SOL    HW143814   7.713   4.384  11.207  0.3561 -1.0500 -0.4946
13001SOL    HW243815   7.747   4.459  11.080 -0.9976 -0.7055 -0.6745
13002SOL     OW43816   5.883   6.697  11.222 -0.3207 -0.6034  0.7621
13002SOL    HW143817   5.978   6.689  11.209 -0.4971 -0.7935 -0.5457
13002SOL    HW243818   5.845   6.662  11.142 -1.5253 -1.0261  1.4956
13003SOL     OW43819   5.291   2.061   5.817 -0.1408 -0.4530 -0.5590
13003SOL    HW143820   5.320   2.149   5.842  0.9032 -1.0008  0.2136
13003SOL    HW243821   5.343   2.002   5.871 -0.5410 -1.5715 -1.3538
13004SOL     OW43822   6.457   5.517   1.014 -0.3388  0.4379 -0.1028
13004SOL    HW143823   6.488   5.450   1.074 -0.4793  0.2776 -0.2102
13004SOL    HW243824   6.464   5.599   1.064 -1.7470  0.1416  0.6136
13005SOL     OW43825   6.952   7.126   5.062 -0.5040  0.1257 -0.2746
13005SOL    HW143826   6.868   7.107   5.021 -0.8432  0.9304  0.0152
13005SOL    HW243827   6.968   7.219   5.041  0.1820  0.0554 -0.1026
13006SOL     OW43828   5.600  11.080   1.471 -0.7325 -0.1926 -0.3987
13006SOL    HW143829   5.644  11.123   1.398 -0.5198  3.1361  1.4563
13006SOL    HW243830   5.508  11.107   1.462 -0.9544 -0.8521 -0.1457
13007SOL     OW43831   4.419   2.264   8.605  0.5245 -0.2055  0.4184
13007SOL    HW143832   4.397   2.191   8.548  0.5710  0.0710  0.0486
13007SOL    HW243833   4.476   2.320   8.553  0.8758 -0.1417  0.8604
13008SOL     OW43834  10.747   4.935   7.856 -0.0837 -0.2522  0.4796
13008SOL    HW143835  10.761   4.841   7.868  0.3772 -0.3607 -0.8162
13008SOL    HW243836  10.653   4.942   7.840  0.2850 -0.8633 -2.3360
13009SOL     OW43837  10.842   2.554   0.525 -0.0532  0.0239  0.5409
13009SOL    HW143838  10.915   2.589   0.473 -1.3683  1.6000 -0.3164
13009SOL    HW243839  10.822   2.624   0.588 -0.7341 -0.4387  0.8447
13010SOL     OW43840   0.259  12.060  10.620 -0.3079 -0.2037  0.5021
13010SOL    HW143841   0.260  12.155  10.634 -1.6030 -0.0943 -0.0892
13010SOL    HW243842   0.210  12.048  10.539 -3.0048 -1.5714  2.2118
13011SOL     OW43843   9.096   6.052   6.285  0.0006  0.3233  0.3092
13011SOL    HW143844   9.105   6.104   6.205  2.1111  0.6901  0.7264
13011SOL    HW243845   9.106   6.115   6.356  0.4735 -0.3342  0.8354
13012SOL     OW43846  10.827   9.422  10.238 -0.1961 -0.6421  0.1361
13012SOL    HW143847  10.918   9.397  10.258  0.0982  0.4817  0.2465
13012SOL    HW243848  10.803   9.365  10.164 -0.1088 -2.3758  1.3870
13013SOL     OW43849   5.830   5.103   0.581 -0.7636 -0.3540 -0.4368
13013SOL    HW143850   5.915   5.106   0.625 -0.7531 -0.8187 -0.4120
13013SOL    HW243851   5.843   5.041   0.509 -0.9819 -0.1536 -0.6485
13014SOL     OW43852  11.568   6.457  10.283 -0.3633  0.0044  0.4188
13014SOL    HW143853  11.616   6.447  10.365  3.7109  0.0693 -1.7233
13014SOL    HW243854  11.541   6.549  10.282  0.7205  0.3440  1.1408
13015SOL     OW43855   6.800   0.046   5.091 -0.1561 -0.0384 -0.3341
13015SOL    HW143856   6.844   0.007   5.015 -0.6302  1.5252 -1.4501
13015SOL    HW243857   6.729  -0.015   5.111 -0.0348 -0.4645 -1.1405
13016SOL     OW43858  10.877   0.609   0.078  0.4090 -0.3201 -0.7535
13016SOL    HW143859  10.918   0.539   0.027  0.5931  0.1834 -1.2985
13016SOL    HW243860  10.799   0.633   0.029  0.7154  0.3343 -0.9323
13017SOL     OW43861   9.975   6.802   2.438  0.0728 -1.0933 -0.3073
13017SOL    HW143862   9.949   6.889   2.407 -0.9555 -1.0230  0.6792
13017SOL    HW243863   9.964   6.806   2.533  1.5241 -1.8259 -0.0788
13018SOL     OW43864  11.298   2.085   8.894  0.6247  0.2794 -0.5217
13018SOL    HW143865  11.347   2.005   8.911 -2.1542 -1.1536  1.6221
13018SOL    HW243866  11.284   2.123   8.980 -1.4442  0.8992 -1.0724
13019SOL     OW43867   5.298   6.865   4.741 -0.9988  0.5371 -0.5695
13019SOL    HW143868   5.296   6.774   4.712  2.2120  0.4489 -0.8998
13019SOL    HW243869   5.304   6.916   4.661 -0.2314  0.8196 -0.3499
13020SOL     OW43870   4.692   2.957   3.202  0.4817  0.6597 -0.4902
13020SOL    HW143871   4.738   3.034   3.170  2.5540  0.4121  1.6149
13020SOL    HW243872   4.755   2.886   3.193  0.0465  0.0021  1.1374
13021SOL     OW43873   6.742  12.004   0.487 -0.7084  0.0828  0.0151
13021SOL    HW143874   6.831  11.993   0.452 -0.3626  2.1581  0.1193
13021SOL    HW243875   6.694  12.048   0.418 -0.8364  1.5296  0.9707
13022SOL     OW43876   5.495   7.195   9.501  0.0107 -0.7517  0.4566
13022SOL    HW143877   5.540   7.222   9.420 -1.5652 -0.2172 -0.2902
13022SOL    HW243878   5.539   7.114   9.527  1.9356  0.1655  0.2519
13023SOL     OW43879  10.982  12.202   8.372  0.1760 -0.0745 -0.2815
13023SOL    HW143880  11.058  12.258   8.352  1.1888 -1.1507  0.4198
13023SOL    HW243881  10.909  12.243   8.325  1.5703 -0.1085 -2.6732
13024SOL     OW43882  10.213   5.652   8.308 -0.5647  0.1373  0.1906
13024SOL    HW143883  10.157   5.707   8.364  0.2861  0.9107  0.3098
13024SOL    HW243884  10.205   5.691   8.221 -1.4354 -0.7193 -0.1342
13025SOL     OW43885   6.675  10.097   5.758  0.1152  0.1641  0.0893
13025SOL    HW143886   6.669  10.139   5.673 -0.0187  0.4880  0.2558
13025SOL    HW243887   6.705  10.008   5.739  2.0166  0.8208 -0.1321
13026SOL     OW43888   2.528   9.957   3.352 -0.2353 -0.0206  0.5241
13026SOL    HW143889   2.478   9.896   3.298 -1.2762  0.9875  0.3130
13026SOL    HW243890   2.462  10.008   3.399  0.5913  0.9859  0.6424
13027SOL     OW43891   7.329   2.681   9.471 -0.3053  0.1824  0.2642
13027SOL    HW143892   7.243   2.701   9.434  0.2270  0.7963 -0.6713
13027SOL    HW243893   7.392   2.706   9.403  0.6598  0.4391  1.2107
13028SOL     OW43894   0.523   1.026   6.658 -1.0645  0.5334  0.0665
13028SOL    HW143895   0.536   0.947   6.605 -1.6993  0.6023 -0.2065
13028SOL    HW243896   0.455   1.001   6.721 -0.8213  0.6737  0.3865
13029SOL     OW43897   4.163   6.233   6.148 -0.3582  0.0050 -0.2295
13029SOL    HW143898   4.124   6.319   6.163 -0.1787  0.2205 -0.9462
13029SOL    HW243899   4.154   6.188   6.232  0.1492  0.9653  0.3659
13030SOL     OW43900  11.618   3.247   1.535  0.3113  0.6685 -0.3418
13030SOL    HW143901  11.573   3.197   1.603 -0.3229 -1.4684 -2.1961
13030SOL    HW243902  11.553   3.257   1.466  1.7271  0.3163 -1.7716
13031SOL     OW43903   0.061  12.340   5.518 -1.2253 -0.6722  0.2467
13031SOL    HW143904  -0.017  12.293   5.546 -1.8499 -0.0772 -0.4563
13031SOL    HW243905   0.039  12.432   5.526 -0.7963 -0.4937 -0.4755
13032SOL     OW43906   0.144   8.628  10.234  0.4258  0.3589  0.8318
13032SOL    HW143907   0.153   8.675  10.316 -0.0777  0.8739  0.5996
13032SOL    HW243908   0.052   8.638  10.210  0.5374  0.1127  0.2704
13033SOL     OW43909   6.924   0.323   1.939  0.3334  0.5327 -0.6598
13033SOL    HW143910   7.017   0.305   1.924  0.2689 -0.7895  0.3630
13033SOL    HW243911   6.908   0.295   2.029 -0.5548  2.8721 -0.0117
13034SOL     OW43912   4.268   0.157   2.185 -0.0288 -0.1797  0.5325
13034SOL    HW143913   4.355   0.193   2.164 -0.5463 -0.0937 -1.7441
13034SOL    HW243914   4.244   0.200   2.267  1.3227  1.1822  0.2763
13035SOL     OW43915   4.828   6.788   3.185  0.1657  0.3012 -0.1576
13035SOL    HW143916   4.908   6.740   3.207 -0.0955  0.7933  2.0862
13035SOL    HW243917   4.860   6.869   3.144  0.8967  0.8737  1.4596
13036SOL     OW43918   0.111  10.035   3.644  0.0456 -0.2783  0.3165
13036SOL    HW143919   0.139  10.097   3.577  1.9708 -1.3180  0.1096
13036SOL    HW243920   0.038   9.987   3.604 -0.9009  1.2026  0.1660
13037SOL     OW43921   4.259   5.222   1.874  0.0717  0.0690  0.0290
13037SOL    HW143922   4.279   5.157   1.807 -1.6870 -1.3164  0.7859
13037SOL    HW243923   4.179   5.265   1.843  1.0058  1.6837 -0.2812
13038SOL     OW43924   4.484   1.300   4.178  0.1939 -0.3567 -0.4146
13038SOL    HW143925   4.411   1.359   4.195 -0.9453 -1.6199 -0.7706
13038SOL    HW243926   4.507   1.264   4.263  2.2048  1.9732  0.1568
13039SOL     OW43927   4.352   7.286   1.813  0.0626  0.7349 -0.1373
13039SOL    HW143928   4.293   7.280   1.738  0.9171 -1.9155 -0.6790
13039SOL    HW243929   4.440   7.276   1.775  0.7388  2.1573  0.9444
13040SOL     OW43930   2.477   4.825   6.980 -0.4764 -0.1819  0.4243
13040SOL    HW143931   2.507   4.768   7.051  2.1615  0.4446 -0.0678
13040SOL    HW243932   2.543   4.814   6.912 -1.8108  0.8350 -1.0942
13041SOL     OW43933   9.000  11.906   4.081  0.1677 -0.1268 -0.2201
13041SOL    HW143934   9.069  11.875   4.140  1.5193  0.3015 -1.5378
13041SOL    HW243935   9.006  12.001   4.086 -1.3338 -0.0372  0.7499
13042SOL     OW43936   4.628   0.324   9.380 -0.2010  0.0905 -0.2856
13042SOL    HW143937   4.721   0.311   9.395 -0.2093 -0.3557 -0.5866
13042SOL    HW243938   4.621   0.342   9.286 -0.3743  0.5249 -0.1880
13043SOL     OW43939  11.576   9.636  11.587 -0.1522 -0.1169  0.6837
13043SOL    HW143940  11.634   9.560  11.589 -2.1155 -1.8485 -1.8550
13043SOL    HW243941  11.633   9.709  11.563  1.3713 -1.2823  0.5952
13044SOL     OW43942   0.995  12.632   0.201  0.5403 -0.6661 -0.1830
13044SOL    HW143943   0.927  12.588   0.150 -0.7755 -0.4814  1.3248
13044SOL    HW243944   0.953  12.712   0.233  2.0347  0.3412 -0.6298
13045SOL     OW43945   2.956   7.052   2.610  0.0890 -0.2837 -0.5847
13045SOL    HW143946   2.921   6.971   2.645 -1.7802  1.1326  1.0487
13045SOL    HW243947   2.912   7.062   2.525 -1.4861  0.1185  0.2402
13046SOL     OW43948   5.280   5.078   2.459  0.0750  0.2495  0.4531
13046SOL    HW143949   5.184   5.079   2.455  0.1170  1.1734 -1.5227
13046SOL    HW243950   5.301   5.138   2.531 -0.8034 -1.4528  2.2331
13047SOL     OW43951   4.870   7.387   6.512 -0.1721 -0.4480  0.1235
13047SOL    HW143952   4.899   7.341   6.591 -1.2379  0.4524  1.0669
13047SOL    HW243953   4.841   7.473   6.543  1.6079  0.8452 -1.5752
13048SOL     OW43954   0.421   6.812  10.655  0.0748 -0.1490  0.1242
13048SOL    HW143955   0.367   6.737  10.679 -0.5238  0.4196  0.5911
13048SOL    HW243956   0.366   6.888  10.671 -0.4681  0.3175 -3.1983
13049SOL     OW43957  12.222   8.884   7.701  0.2684  0.2573 -0.3492
13049SOL    HW143958  12.217   8.978   7.683 -1.1030  0.8877  2.6806
13049SOL    HW243959  12.284   8.877   7.774 -0.0065 -1.1247 -0.2324
13050SOL     OW43960   5.304   1.420   1.501 -0.0998  0.4605  0.1165
13050SOL    HW143961   5.293   1.353   1.434  1.9683  1.0800 -0.9037
13050SOL    HW243962   5.288   1.373   1.584 -1.6203 -0.5582 -0.6966
13051SOL     OW43963   6.438  11.362   0.525  0.5186 -0.1564 -0.3032
13051SOL    HW143964   6.473  11.355   0.614  1.2417 -2.3714 -0.6966
13051SOL    HW243965   6.465  11.449   0.495  0.5263  0.5110  1.5172
13052SOL     OW43966  11.599   6.735   7.227 -0.0123 -0.1789  0.2041
13052SOL    HW143967  11.652   6.752   7.304  0.1970  0.0299  0.0129
13052SOL    HW243968  11.661   6.709   7.159 -0.1245  0.2758 -0.0815
13053SOL     OW43969   9.665   9.366  11.169 -0.3774  0.1460 -1.1986
13053SOL    HW143970   9.676   9.436  11.233 -1.5319 -1.2562  0.6533
13053SOL    HW243971   9.573   9.374  11.141 -0.6231 -0.7779 -0.7139
13054SOL     OW43972   1.539  10.059   7.594  0.0717  0.4736  0.5982
13054SOL    HW143973   1.570  10.042   7.505 -0.3983  3.8714 -0.3610
13054SOL    HW243974   1.618  10.073   7.645  0.3337 -1.2200  0.7150
13055SOL     OW43975   5.337   6.724   7.647 -0.2549 -0.2522 -0.0514
13055SOL    HW143976   5.345   6.639   7.690 -2.9401 -1.3040 -1.3790
13055SOL    HW243977   5.282   6.776   7.706 -1.3186 -0.5998 -0.7178
13056SOL     OW43978   9.595  11.523   2.884 -0.4290 -0.0524 -0.2009
13056SOL    HW143979   9.511  11.493   2.848 -0.3166 -0.3678 -0.2029
13056SOL    HW243980   9.621  11.453   2.944 -0.3690  0.2402  0.1112
13057SOL     OW43981   6.509   8.888   6.959 -0.0943  0.3470 -0.5287
13057SOL    HW143982   6.543   8.910   7.046 -0.1738 -0.1164 -0.3797
13057SOL    HW243983   6.583   8.844   6.915 -0.2466  0.0437 -0.4826
13058SOL     OW43984  11.426   3.550   1.484 -0.4715 -0.4543  0.4307
13058SOL    HW143985  11.462   3.620   1.538 -1.5849  0.8270 -0.3969
13058SOL    HW243986  11.498   3.525   1.425 -0.3421  0.7366  0.0516
13059SOL     OW43987   1.489   7.851   4.485 -0.6545  0.3786 -0.3360
13059SOL    HW143988   1.421   7.915   4.505  0.1520  1.3398 -0.6138
13059SOL    HW243989   1.469   7.777   4.542 -1.4549  0.9723  0.1826
13060SOL     OW43990  10.709  10.257  10.009 -0.4006 -0.0776  0.0554
13060SOL    HW143991  10.796  10.267  10.050 -0.0108  1.4868 -1.0663
13060SOL    HW243992  10.702  10.163   9.992  0.2847 -0.4891  1.8238
13061SOL     OW43993   1.365   3.130   4.833 -0.6585 -0.9818  0.0809
13061SOL    HW143994   1.375   3.198   4.767 -0.2829 -0.1535  0.9604
13061SOL    HW243995   1.339   3.177   4.912  3.1738 -1.2734  1.7499
13062SOL     OW43996   2.736  12.216  10.526 -0.2179  0.1601 -0.0553
13062SOL    HW143997   2.774  12.142  10.480 -0.0796 -0.4763  1.0472
13062SOL    HW243998   2.673  12.254  10.464 -0.2353 -0.8328 -0.6572
13063SOL     OW43999   4.912   5.510   5.120  0.0769  0.6812  0.4512
13063SOL    HW144000   4.978   5.553   5.066  0.4907  0.3982  0.7309
13063SOL    HW244001   4.828   5.534   5.079  0.4250 -0.4461 -0.9774
13064SOL     OW44002   2.674   4.986  10.267  0.5246 -0.2290 -0.7603
13064SOL    HW144003   2.612   4.912  10.261 -0.5293  0.5553  0.0994
13064SOL    HW244004   2.661   5.033  10.184 -1.3029  0.8605  0.0747
13065SOL     OW44005   7.164   8.979   0.779  0.1509 -0.3183 -0.7063
13065SOL    HW144006   7.240   8.930   0.748  0.6353 -0.1852  0.2258
13065SOL    HW244007   7.110   8.913   0.824  0.1536 -0.2516 -0.6040
13066SOL     OW44008  12.407  12.510   0.028 -0.0839  0.2890 -0.6327
13066SOL    HW144009  12.495  12.523   0.064 -0.3785  1.2638 -0.2405
13066SOL    HW244010  12.353  12.577   0.071 -1.1901 -0.7942 -0.2743
13067SOL     OW44011   5.276  10.168   4.098 -0.3707 -0.4964  0.4776
13067SOL    HW144012   5.258  10.151   4.191  0.7701  0.2573  0.8538
13067SOL    HW244013   5.322  10.251   4.097 -1.1619 -0.0337 -0.8645
13068SOL     OW44014   8.540  11.975   7.080 -0.2112 -0.6454 -0.1023
13068SOL    HW144015   8.563  11.972   6.987 -1.3530 -0.8325 -0.3906
13068SOL    HW244016   8.475  11.905   7.091  0.1184 -0.8092  0.8989
13069SOL     OW44017  10.386  11.454   9.597  0.3849  0.2593  0.4425
13069SOL    HW144018  10.408  11.500   9.516 -1.0417 -3.6238 -2.4602
13069SOL    HW244019  10.463  11.400   9.615 -0.4573 -1.2203 -0.2431
13070SOL     OW44020   9.906  10.158   8.086 -0.3514 -0.6578  0.1370
13070SOL    HW144021   9.814  10.173   8.069 -0.4541 -1.4696 -0.0583
13070SOL    HW244022   9.911  10.143   8.181 -0.4732 -0.9998  0.0892
13071SOL     OW44023   6.481  11.030   2.931  0.1713 -0.5280  0.6866
13071SOL    HW144024   6.515  10.973   2.862 -0.2133  0.5497 -0.4353
13071SOL    HW244025   6.533  11.007   3.009  1.4143 -0.9715 -0.2355
13072SOL     OW44026   2.001   9.127   6.777  0.2851  0.5771 -0.1471
13072SOL    HW144027   2.037   9.061   6.836 -1.1468 -1.1584 -1.1302
13072SOL    HW244028   2.079   9.164   6.734  1.1379 -0.4474  0.4446
13073SOL     OW44029  12.518   8.157  12.186  0.5381  0.1678 -0.1986
13073SOL    HW144030  12.613   8.169  12.189  0.5908 -0.0003 -1.0722
13073SOL    HW244031  12.496   8.156  12.093 -0.5094  1.5585  0.0032
13074SOL     OW44032  10.996   2.538  12.586  0.0289  0.4194 -0.6294
13074SOL    HW144033  11.037   2.451  12.584  0.5524  0.6638 -0.8693
13074SOL    HW244034  11.055   2.591  12.640 -1.0413  0.2699  0.7317
13075SOL     OW44035   3.803   0.012   3.509  0.0830 -0.1628 -0.3057
13075SOL    HW144036   3.798   0.098   3.468 -1.1432 -0.9931 -2.0393
13075SOL    HW244037   3.731   0.012   3.572  0.1192  0.0891 -0.2620
13076SOL     OW44038   0.631   4.695   4.681 -0.1402  0.5899  0.4644
13076SOL    HW144039   0.654   4.751   4.608 -1.5372  0.0796 -0.4114
13076SOL    HW244040   0.675   4.611   4.663  0.5327  0.8425  0.8787
13077SOL     OW44041  12.158   9.272   3.310  0.0001  0.5605 -0.4421
13077SOL    HW144042  12.107   9.207   3.262  1.3256 -1.6211  0.9513
13077SOL    HW244043  12.138   9.355   3.267 -2.5893 -0.5764 -1.6399
13078SOL     OW44044   7.574   7.579   1.553  0.3405  0.3900  0.4954
13078SOL    HW144045   7.622   7.570   1.635 -1.0839 -0.2174  1.2867
13078SOL    HW244046   7.540   7.668   1.554  2.7763  1.4322 -0.8600
13079SOL     OW44047   6.930   7.926   6.497  0.0405 -0.0267  0.7108
13079SOL    HW144048   6.923   8.008   6.449 -1.0392 -0.4696  0.0849
13079SOL    HW244049   6.959   7.862   6.432 -1.1556 -0.5736  0.7013
13080SOL     OW44050   9.031   8.043  12.411  0.3313  0.0891 -0.6739
13080SOL    HW144051   8.954   8.098  12.398  0.1415 -0.6020 -3.0983
13080SOL    HW244052   9.014   7.995  12.491 -0.6767  1.6328  0.0815
13081SOL     OW44053   4.537   2.359   7.983  0.0017  0.3434  0.5306
13081SOL    HW144054   4.600   2.341   8.052  1.3187  1.5793 -0.2841
13081SOL    HW244055   4.497   2.275   7.964  0.7830 -0.3066  1.6707
13082SOL     OW44056   8.309   9.499   9.245 -0.5925 -0.0706 -0.0992
13082SOL    HW144057   8.294   9.414   9.203 -2.7334  0.6286 -0.8581
13082SOL    HW244058   8.316   9.478   9.338  0.4546 -1.2247 -0.4050
13083SOL     OW44059   0.808   7.246   9.676 -0.3379  0.4106  0.0662
13083SOL    HW144060   0.846   7.290   9.600 -0.5590  0.9570  0.2697
13083SOL    HW244061   0.763   7.170   9.639 -0.9534  0.9929 -0.4313
13084SOL     OW44062  11.518  11.769  11.954 -0.4367  0.2094 -0.1873
13084SOL    HW144063  11.603  11.790  11.993  0.2303 -0.8173 -1.0574
13084SOL    HW244064  11.457  11.770  12.028  0.1166  2.0122  0.2875
13085SOL     OW44065   6.429  12.135   9.487 -0.7519 -0.3064  0.5890
13085SOL    HW144066   6.380  12.135   9.570 -2.3036 -0.6804 -0.2868
13085SOL    HW244067   6.384  12.200   9.433 -1.8681 -2.3668 -1.1123
13086SOL     OW44068  11.101   6.457   4.530 -0.0888 -0.7968  0.6142
13086SOL    HW144069  11.024   6.415   4.491 -0.4059  0.0827  0.2738
13086SOL    HW244070  11.158   6.476   4.455 -0.3069  0.0965  0.6678
13087SOL     OW44071   9.319  10.671   7.175 -0.7003 -0.5135 -0.3038
13087SOL    HW144072   9.319  10.728   7.252 -0.0469 -0.9236  0.0128
13087SOL    HW244073   9.327  10.731   7.101 -3.7674  0.0950 -0.2666
13088SOL     OW44074   9.570  11.092   3.841  0.3898 -0.2712  0.2024
13088SOL    HW144075   9.565  11.068   3.933 -0.2985 -1.6574 -0.1752
13088SOL    HW244076   9.663  11.100   3.823  0.5407 -0.3211  0.9292
13089SOL     OW44077  11.952   2.136   3.711 -0.1354 -0.1496 -0.3753
13089SOL    HW144078  12.038   2.166   3.739 -1.1988  0.5545  2.5185
13089SOL    HW244079  11.966   2.047   3.681  1.6176  0.0078 -0.1197
13090SOL     OW44080  12.199   0.302   5.310  0.2878 -0.0836 -0.0210
13090SOL    HW144081  12.235   0.385   5.341 -2.8314  0.6581  2.0782
13090SOL    HW244082  12.249   0.235   5.357  1.3845  0.6382 -0.1081
13091SOL     OW44083  11.340  11.881   2.701 -0.0078  0.1596 -0.0898
13091SOL    HW144084  11.337  11.886   2.605  0.8775 -0.5256 -0.1667
13091SOL    HW244085  11.297  11.799   2.722  1.4101 -0.5988 -0.0355
13092SOL     OW44086   5.323   9.702   1.150  0.0643  0.1903  0.2435
13092SOL    HW144087   5.351   9.632   1.209 -0.4209  1.2493  1.8225
13092SOL    HW244088   5.372   9.687   1.069  2.5997 -0.0005  1.6959
13093SOL     OW44089   8.165   2.557   9.743 -0.3042  0.2008 -0.1219
13093SOL    HW144090   8.177   2.464   9.762  0.9999 -0.1211 -2.1172
13093SOL    HW244091   8.072   2.573   9.755 -0.4340 -1.1802  0.9452
13094SOL     OW44092   1.072   5.281   1.968 -0.4317 -0.8407  0.0994
13094SOL    HW144093   1.073   5.356   1.909 -0.7978 -2.5254 -2.1607
13094SOL    HW244094   0.985   5.283   2.009 -1.0013 -0.8599 -1.0876
13095SOL     OW44095  10.285   3.991   2.854  0.1484  0.7737  0.1288
13095SOL    HW144096  10.270   4.038   2.772  0.3711  0.0573 -0.3260
13095SOL    HW244097  10.334   3.913   2.828 -2.7904 -1.3053  0.4498
13096SOL     OW44098   9.116   6.508   0.428 -0.1132 -0.3772  0.0251
13096SOL    HW144099   9.118   6.428   0.481  3.4028  0.2216  1.0045
13096SOL    HW244100   9.116   6.476   0.338 -0.7896 -1.4407  0.3708
13097SOL     OW44101   7.567   1.427   4.664  0.3899  0.0452 -0.6744
13097SOL    HW144102   7.605   1.451   4.749  1.7373 -0.3098 -1.1474
13097SOL    HW244103   7.482   1.470   4.662  0.5650  0.4827  0.6419
13098SOL     OW44104   8.272   1.298   2.422 -0.0235  0.0979  0.2832
13098SOL    HW144105   8.338   1.231   2.404  0.2037  0.5349 -0.5488
13098SOL    HW244106   8.316   1.381   2.402 -0.7090  0.4138  0.0729
13099SOL     OW44107  11.901  11.740   8.310  0.2187  0.2283 -0.1556
13099SOL    HW144108  11.950  11.803   8.363 -0.6966  0.2561  0.6826
13099SOL    HW244109  11.960  11.664   8.304 -0.1133 -0.2712  1.9886
13100SOL     OW44110   5.568   1.538   1.943  0.3198 -0.2174  0.0268
13100SOL    HW144111   5.513   1.575   1.874  1.9954 -0.0876 -1.3210
13100SOL    HW244112   5.555   1.444   1.936 -0.4648 -0.1489  0.4014
13101SOL     OW44113   1.855   1.074   7.076 -0.0022 -0.3664 -0.1668
13101SOL    HW144114   1.798   1.150   7.072 -0.1036 -0.4324 -0.0189
13101SOL    HW244115   1.849   1.046   7.168 -0.1111 -0.6616 -0.2639
13102SOL     OW44116   2.089   5.525   8.355 -0.6009 -0.5173  0.7391
13102SOL    HW144117   2.053   5.464   8.291  0.9458  0.4929 -1.1988
13102SOL    HW244118   2.032   5.601   8.351 -1.3573 -1.0191  1.6762
13103SOL     OW44119   1.571   8.101   1.717 -0.4366 -0.1767  0.3338
13103SOL    HW144120   1.660   8.075   1.742  0.2190  1.1925 -0.4467
13103SOL    HW244121   1.526   8.111   1.801  0.2107 -0.6532  0.7563
13104SOL     OW44122  10.280   7.938   8.263 -0.3214  0.5135  0.3340
13104SOL    HW144123  10.301   7.861   8.211 -0.7872 -0.2833  1.2886
13104SOL    HW244124  10.345   7.938   8.334  0.5582  1.8069 -0.4054
13105SOL     OW44125   5.894   1.974   0.960 -0.2829  0.1052  0.0239
13105SOL    HW144126   5.835   1.973   0.884  0.3661  0.4421 -0.5063
13105SOL    HW244127   5.929   1.886   0.964  0.2245  0.2686 -0.5287
13106SOL     OW44128   9.957   3.459   5.178  0.2122 -0.1292 -0.1089
13106SOL    HW144129   9.916   3.546   5.184 -0.5405 -0.4657 -0.1870
13106SOL    HW244130  10.049   3.475   5.196  0.2001  0.7906 -0.7584
13107SOL     OW44131   9.715  12.081   1.589  0.2576  0.2688 -0.0728
13107SOL    HW144132   9.693  11.989   1.574 -0.9000  0.5286 -0.0393
13107SOL    HW244133   9.751  12.083   1.678  1.3755 -0.3198 -0.4968
13108SOL     OW44134   3.557   2.105   8.754  0.4264 -0.0763 -0.5087
13108SOL    HW144135   3.624   2.167   8.783 -0.8013  0.4408  1.4351
13108SOL    HW244136   3.563   2.032   8.815 -0.6509 -0.0831 -0.3751
13109SOL     OW44137  11.533   3.607   3.968 -0.1403 -0.3225  0.2260
13109SOL    HW144138  11.607   3.580   3.914 -1.3482  0.0227 -1.6802
13109SOL    HW244139  11.461   3.551   3.941 -0.6010 -0.7523  2.1529
13110SOL     OW44140   2.390   3.220   0.557 -0.5038 -0.9506 -0.2730
13110SOL    HW144141   2.465   3.184   0.603 -0.8233 -1.1913  0.0664
13110SOL    HW244142   2.421   3.236   0.468  0.9650  2.1051  0.6487
13111SOL     OW44143   0.976   5.844   2.485 -0.2766 -0.1104 -0.0313
13111SOL    HW144144   0.909   5.908   2.461  0.8246  1.5410  1.1059
13111SOL    HW244145   1.037   5.843   2.411  1.0738  2.1395  0.9571
13112SOL     OW44146   6.106   7.783   8.498 -0.0316 -0.1688 -0.7132
13112SOL    HW144147   6.019   7.823   8.504 -0.5891 -1.0207 -2.5346
13112SOL    HW244148   6.099   7.701   8.547  0.1337  0.3311  0.1737
13113SOL     OW44149   4.642   5.020   7.048  0.2053 -0.0969 -0.2991
13113SOL    HW144150   4.605   4.963   6.982  1.8148 -0.2267 -1.1550
13113SOL    HW244151   4.725   5.050   7.010  0.6550  0.7040  1.2094
13114SOL     OW44152   0.897  10.618   9.956 -0.2938 -0.0410  0.0537
13114SOL    HW144153   0.915  10.618  10.050 -0.8611  0.9235  0.1679
13114SOL    HW244154   0.883  10.525   9.935  2.9561 -0.7147  0.2766
13115SOL     OW44155  10.335   4.064   3.732  0.1353 -0.1172 -0.4420
13115SOL    HW144156  10.316   4.118   3.809 -0.9747 -0.3125 -0.5497
13115SOL    HW244157  10.307   3.976   3.757 -0.7429 -0.0876 -1.2224
13116SOL     OW44158  12.365   1.796   7.388  0.8418 -0.0131  0.3288
13116SOL    HW144159  12.312   1.719   7.410 -1.0402  1.4697  1.2581
13116SOL    HW244160  12.385   1.836   7.473  0.0607  1.5926 -0.1997
13117SOL     OW44161   2.009  11.777   5.374 -0.4368 -0.4129 -0.3846
13117SOL    HW144162   1.962  11.793   5.457  1.6032 -1.5013  1.0696
13117SOL    HW244163   2.029  11.864   5.341  0.4795  0.0989  1.3722
13118SOL     OW44164   4.235   7.400   8.784 -0.4371 -0.3580  0.1995
13118SOL    HW144165   4.316   7.358   8.812 -1.3188 -1.2973  1.5178
13118SOL    HW244166   4.167   7.333   8.799 -1.2359 -0.3593 -2.8077
13119SOL     OW44167   3.658   0.320   0.500 -0.6225 -0.5665 -0.6724
13119SOL    HW144168   3.747   0.344   0.524 -1.5674  1.8081  0.8008
13119SOL    HW244169   3.608   0.401   0.506 -3.1668 -2.0519 -0.1443
13120SOL     OW44170   9.900   7.606  11.312 -0.3570  0.2975  0.2118
13120SOL    HW144171   9.984   7.645  11.336 -0.1255 -0.2565  0.3124
13120SOL    HW244172   9.878   7.646  11.228 -0.3065  0.9188  0.4869
13121SOL     OW44173   2.447   3.223   6.902  0.1126  0.2474 -0.1204
13121SOL    HW144174   2.379   3.156   6.907 -0.9556  1.2126 -1.0469
13121SOL    HW244175   2.461   3.251   6.992  2.0210 -2.5453  0.5811
13122SOL     OW44176   0.230   1.291  10.573 -0.1627  0.3905  0.3559
13122SOL    HW144177   0.259   1.319  10.659  2.6259  1.9294 -0.9797
13122SOL    HW244178   0.158   1.350  10.552  1.8814  2.9144 -0.0211
13123SOL     OW44179   6.094   2.207   7.115  0.0267 -0.1224  0.3749
13123SOL    HW144180   6.063   2.242   7.032  1.0033  0.5848  0.2919
13123SOL    HW244181   6.014   2.177   7.159 -0.5019 -0.5174 -0.8023
13124SOL     OW44182   6.757  11.977   6.074 -0.4299 -0.8050 -0.2055
13124SOL    HW144183   6.770  11.883   6.074 -0.4343 -0.8055 -0.0933
13124SOL    HW244184   6.770  12.004   6.165 -1.1625 -0.7946 -0.0997
13125SOL     OW44185   6.980   3.805   1.461  0.4670 -0.5882  0.3190
13125SOL    HW144186   6.936   3.877   1.505 -0.6706 -2.2545  2.0695
13125SOL    HW244187   7.025   3.846   1.387 -0.2017  1.8645  1.1740
13126SOL     OW44188   4.670   1.698   7.420  0.1108 -0.1059  0.3833
13126SOL    HW144189   4.752   1.649   7.416  0.1695  0.0792 -0.8401
13126SOL    HW244190   4.695   1.785   7.449  0.1774 -0.3944  1.2217
13127SOL     OW44191   8.175   9.011   8.398 -0.2642 -0.3482 -0.4855
13127SOL    HW144192   8.208   8.929   8.360 -1.0315 -0.9841  0.1839
13127SOL    HW244193   8.253   9.054   8.434  0.2142 -0.5550 -1.2532
13128SOL     OW44194   6.500   0.032   2.723  0.4478  0.0184 -0.4701
13128SOL    HW144195   6.429  -0.025   2.695  0.2441  0.2028 -0.3396
13128SOL    HW244196   6.578  -0.004   2.682 -0.0269  1.0555 -2.3770
13129SOL     OW44197  11.646  10.229   4.124 -0.1452  0.0499  0.1856
13129SOL    HW144198  11.616  10.242   4.034 -0.2478 -0.2909  0.1680
13129SOL    HW244199  11.671  10.136   4.127  0.2699  0.1656  0.3845
13130SOL     OW44200  11.821  11.557   6.113 -0.1087  0.2136 -0.2266
13130SOL    HW144201  11.870  11.518   6.186 -2.3392 -1.8234  0.3274
13130SOL    HW244202  11.826  11.492   6.043 -1.3750  0.2637 -0.3933
13131SOL     OW44203   5.439   6.716   0.975  0.4115  0.3721 -0.2219
13131SOL    HW144204   5.376   6.756   1.035 -0.2640  0.1425 -0.7776
13131SOL    HW244205   5.522   6.759   0.996  0.0834  0.6449  0.5409
13132SOL     OW44206   0.285   3.580   6.754 -0.5399 -1.0890  0.0767
13132SOL    HW144207   0.270   3.548   6.843 -1.1730  1.9182  1.1515
13132SOL    HW244208   0.373   3.549   6.733  1.3200  1.2905  3.3711
13133SOL     OW44209  10.922   2.738   3.945 -0.2801 -0.1266 -0.9249
13133SOL    HW144210  10.891   2.704   4.029  0.7280  1.7194  0.2577
13133SOL    HW244211  10.990   2.675   3.919 -0.5195 -0.6660 -0.2937
13134SOL     OW44212   1.572   5.102   0.151 -0.5621 -0.3018 -0.0182
13134SOL    HW144213   1.541   5.014   0.128 -0.1366 -0.2361 -0.9302
13134SOL    HW244214   1.667   5.097   0.138 -0.6637  0.6301 -1.3585
13135SOL     OW44215   5.003   4.252   8.047 -0.2666  0.1488 -0.0943
13135SOL    HW144216   4.924   4.264   7.994  1.0036  2.0678 -1.6919
13135SOL    HW244217   4.972   4.254   8.137 -2.1945 -0.5550 -0.6922
13136SOL     OW44218   2.413   3.219   5.057 -0.3380 -0.2614 -0.1771
13136SOL    HW144219   2.412   3.239   4.963  2.1401  2.3938  0.2180
13136SOL    HW244220   2.392   3.302   5.100  0.6560 -0.8719  1.6119
13137SOL     OW44221   5.703   1.717   6.906  0.1668 -0.1247  0.1238
13137SOL    HW144222   5.626   1.663   6.919  0.2566 -0.7141 -1.5471
13137SOL    HW244223   5.757   1.668   6.843  0.2938  1.8105 -1.3734
13138SOL     OW44224  10.773   3.606   6.676 -1.1223  0.3811  0.1442
13138SOL    HW144225  10.801   3.518   6.651 -2.5860 -0.2643  0.6427
13138SOL    HW244226  10.820   3.664   6.617 -0.1512 -0.7364 -0.2185
13139SOL     OW44227   6.688   7.709   1.008 -0.0673  0.8749 -0.4029
13139SOL    HW144228   6.612   7.767   1.000  0.2779  1.1918 -1.4017
13139SOL    HW244229   6.696   7.667   0.922 -0.6149 -1.0591  0.4209
13140SOL     OW44230   3.088  11.871   1.766 -0.1017 -0.4828  0.4361
13140SOL    HW144231   3.112  11.945   1.710  1.3099  0.3213  2.0149
13140SOL    HW244232   3.118  11.794   1.718 -2.0232 -0.1395 -1.4614
13141SOL     OW44233   9.046   0.777   9.077  0.4253 -0.3549 -0.1167
13141SOL    HW144234   9.106   0.832   9.127 -0.2753  0.0980  0.2392
13141SOL    HW244235   9.090   0.764   8.993  2.1596 -2.0636  0.9542
13142SOL     OW44236   2.909   7.485   6.199  0.8975  0.1728  0.1231
13142SOL    HW144237   2.918   7.580   6.207 -1.6432  1.1788 -4.8156
13142SOL    HW244238   3.000   7.453   6.198  1.8126  2.3675  2.4106
13143SOL     OW44239  10.180   3.043   2.959  0.1586  0.0302  0.6717
13143SOL    HW144240  10.262   3.008   2.924 -0.3294 -0.4806  0.0211
13143SOL    HW244241  10.118   2.970   2.954 -0.5460  0.6306  0.4371
13144SOL     OW44242   6.211   9.329   5.796  0.0924 -0.0961 -0.4653
13144SOL    HW144243   6.137   9.333   5.736 -0.9729  0.1323  0.8066
13144SOL    HW244244   6.279   9.280   5.749 -0.9632 -0.5388 -1.5548
13145SOL     OW44245   4.546   2.752   6.944 -0.2433 -0.2280  0.2626
13145SOL    HW144246   4.545   2.846   6.924 -0.3589 -0.0736  0.9747
13145SOL    HW244247   4.638   2.734   6.965 -0.4915  0.0825  1.7184
13146SOL     OW44248   7.109   2.543   7.140  0.1676 -0.1653 -0.4077
13146SOL    HW144249   7.158   2.597   7.201 -0.9276 -0.4394  0.7594
13146SOL    HW244250   7.044   2.498   7.195 -1.5447  0.3702 -1.8931
13147SOL     OW44251   3.081   2.240   7.053 -0.7666 -0.6062  0.0559
13147SOL    HW144252   3.123   2.249   6.968 -0.4143  0.5087  0.3236
13147SOL    HW244253   3.033   2.322   7.065 -0.2819 -0.4610  1.1982
13148SOL     OW44254   9.046   0.809   9.594  0.2419 -0.7482 -0.0789
13148SOL    HW144255   9.006   0.765   9.518  1.4381  1.3547 -2.0449
13148SOL    HW244256   9.082   0.890   9.559 -1.1425  1.4952  3.1964
13149SOL     OW44257   8.414   6.980  11.267  0.8194 -0.0161 -0.0367
13149SOL    HW144258   8.417   7.059  11.213 -1.8024  0.6767  0.6950
13149SOL    HW244259   8.395   6.909  11.206  3.8337 -0.3307 -0.8027
13150SOL     OW44260   0.040   4.569  10.920 -0.3069 -0.4158 -0.2931
13150SOL    HW144261  -0.054   4.557  10.905 -0.7420  1.3332  0.7540
13150SOL    HW244262   0.069   4.620  10.844 -0.8656  1.5905  0.7697
13151SOL     OW44263   2.203   2.515   0.854  0.2161  0.0060 -0.0281
13151SOL    HW144264   2.261   2.582   0.891 -0.0423  0.3164 -0.1812
13151SOL    HW244265   2.256   2.435   0.854  0.0970 -0.0939  1.3633
13152SOL     OW44266  11.483   6.049  12.482  0.4603 -0.1969  0.4977
13152SOL    HW144267  11.397   6.025  12.515  1.0794  0.0109  2.3586
13152SOL    HW244268  11.476   6.040  12.387 -1.6575  0.0254  0.6023
13153SOL     OW44269   5.584  10.049  10.516  0.1649 -0.3544 -0.2410
13153SOL    HW144270   5.653   9.994  10.478  0.8153  0.5193 -0.3481
13153SOL    HW244271   5.513  10.046  10.452 -0.3330 -2.0879  0.3394
13154SOL     OW44272   8.998   1.071  11.036 -0.2826  0.0953  0.5646
13154SOL    HW144273   8.907   1.050  11.015 -0.3385  1.1660 -0.3755
13154SOL    HW244274   9.048   1.036  10.962  0.1590 -1.0465  1.3739
13155SOL     OW44275   5.834   8.517   0.307 -0.4180 -0.9162  0.2052
13155SOL    HW144276   5.742   8.499   0.327 -1.2226  2.9888  0.9231
13155SOL    HW244277   5.833   8.543   0.215 -0.0421 -0.9481  0.1938
13156SOL     OW44278   4.910   9.099   5.720  0.0288 -0.2677  0.0715
13156SOL    HW144279   4.858   9.124   5.644 -0.3957 -1.2731  0.0134
13156SOL    HW244280   4.847   9.094   5.792 -0.3083 -2.8987 -0.2887
13157SOL     OW44281   0.278   7.467   6.709  0.4624 -0.1899  0.6847
13157SOL    HW144282   0.319   7.383   6.686 -3.1247 -1.5200 -1.5478
13157SOL    HW244283   0.204   7.443   6.765 -2.0574  1.0940 -1.8714
13158SOL     OW44284   0.244   7.855   4.871  0.0612  0.2329  0.3112
13158SOL    HW144285   0.251   7.782   4.933 -1.5889 -0.0512  0.2003
13158SOL    HW244286   0.333   7.889   4.864  0.3132  0.3041  2.8986
13159SOL     OW44287   2.574   7.088   0.341 -0.3398 -0.1114 -0.0328
13159SOL    HW144288   2.491   7.099   0.386  0.3510 -2.9691  2.2255
13159SOL    HW244289   2.554   7.033   0.265 -0.7209  0.4081 -0.3083
13160SOL     OW44290  11.148  12.023   4.105 -0.2891 -0.2081  0.2145
13160SOL    HW144291  11.241  12.034   4.125 -0.6112  0.7272  1.3357
13160SOL    HW244292  11.103  12.074   4.173 -1.4921  3.0079 -2.6667
13161SOL     OW44293   6.481   3.733   1.273  0.2462 -0.1240  0.4041
13161SOL    HW144294   6.416   3.678   1.316  0.5759 -0.3073  0.6801
13161SOL    HW244295   6.524   3.676   1.210 -0.5039  0.2509 -0.4577
13162SOL     OW44296   6.132  10.559   0.090 -0.4999 -0.1858 -0.2548
13162SOL    HW144297   6.126  10.652   0.112 -0.2292  0.0199 -1.0289
13162SOL    HW244298   6.072  10.516   0.152 -1.4245  0.6153 -0.5718
13163SOL     OW44299   9.218   2.629  10.538 -0.4112 -0.2326 -0.0374
13163SOL    HW144300   9.186   2.578  10.612 -1.2666 -0.3471 -0.4805
13163SOL    HW244301   9.189   2.581  10.461  0.8968 -0.3864 -0.4673
13164SOL     OW44302   2.490  12.616   7.023 -0.1936  0.5668 -0.7396
13164SOL    HW144303   2.473  12.698   7.070  2.3531  1.3142 -0.9656
13164SOL    HW244304   2.403  12.587   6.993 -1.4278  2.0134  1.1849
13165SOL     OW44305   3.401   2.770   5.212 -0.0115  0.0962  0.4954
13165SOL    HW144306   3.386   2.724   5.129  2.0928 -0.7815  0.5365
13165SOL    HW244307   3.495   2.766   5.225  0.0624  2.8483  1.4824
13166SOL     OW44308   6.792   1.086  10.141 -0.7465 -0.1075 -0.0172
13166SOL    HW144309   6.852   1.155  10.111  1.5501 -2.4236 -1.1073
13166SOL    HW244310   6.814   1.073  10.233 -0.4100 -0.1559 -0.1053
13167SOL     OW44311   9.651   8.548   0.538  0.2453  0.5898  0.2555
13167SOL    HW144312   9.630   8.481   0.603 -0.2163 -0.9542 -1.3799
13167SOL    HW244313   9.746   8.545   0.529  0.1217 -1.0242 -0.9181
13168SOL     OW44314   2.804  11.480   1.437  0.2441  0.1634  0.1578
13168SOL    HW144315   2.722  11.431   1.449  1.3393 -1.8224 -0.0654
13168SOL    HW244316   2.780  11.571   1.453 -1.5652 -0.5958  2.1789
13169SOL     OW44317   0.076   8.683   5.274 -1.1291 -0.4735 -0.3001
13169SOL    HW144318   0.171   8.694   5.273 -1.3537  1.7337 -0.6707
13169SOL    HW244319   0.057   8.647   5.361 -0.0370 -0.1729  0.0713
13170SOL     OW44320   7.565  11.147  11.508 -0.1632  0.1076  0.6579
13170SOL    HW144321   7.591  11.133  11.600  0.3760 -1.5699  0.2874
13170SOL    HW244322   7.628  11.094  11.458 -1.0953  0.1769 -0.6129
13171SOL     OW44323  12.357  12.029   6.499  0.6116 -0.3027 -0.7701
13171SOL    HW144324  12.286  12.044   6.561  1.4865  3.0667 -0.3863
13171SOL    HW244325  12.315  11.993   6.421 -1.3750  0.6482 -0.1931
13172SOL     OW44326   5.987  10.659   4.537 -1.0027 -0.0594  0.2096
13172SOL    HW144327   5.918  10.702   4.486 -0.3321  0.9628  0.1302
13172SOL    HW244328   5.953  10.571   4.554 -0.5370 -1.1361 -3.5406
13173SOL     OW44329  10.785   8.179  11.670 -0.0202 -0.9550  0.4117
13173SOL    HW144330  10.713   8.242  11.675  1.2357  0.5028  0.7739
13173SOL    HW244331  10.833   8.190  11.752  2.0747 -0.0162 -0.8523
13174SOL     OW44332   1.659   2.252   0.297 -0.0195 -1.0111  0.2334
13174SOL    HW144333   1.583   2.222   0.346 -0.6500  0.0148 -0.0861
13174SOL    HW244334   1.631   2.253   0.205  0.4712 -0.9221  0.0801
13175SOL     OW44335   5.234   4.608  12.176  0.4188 -1.0830 -0.1142
13175SOL    HW144336   5.176   4.678  12.145  1.5910 -0.1751 -0.3213
13175SOL    HW244337   5.293   4.591  12.102 -0.9075 -3.5394 -0.7276
13176SOL     OW44338  11.606   8.314  11.153  0.1280 -0.2474  0.5396
13176SOL    HW144339  11.572   8.320  11.064 -0.2107  1.1393  0.7326
13176SOL    HW244340  11.700   8.302  11.142 -0.1819 -2.8117  0.0107
13177SOL     OW44341   2.995   6.620   6.599  0.3039  0.4907  0.3247
13177SOL    HW144342   3.054   6.605   6.673  2.1921  0.2046 -1.1607
13177SOL    HW244343   3.036   6.692   6.550  0.0904 -0.4889 -1.3848
13178SOL     OW44344   2.398   9.842   1.248 -0.2062 -0.0291  0.1546
13178SOL    HW144345   2.387   9.754   1.284 -2.8475 -0.1378 -0.7185
13178SOL    HW244346   2.338   9.897   1.299 -2.1115  0.2899 -2.2417
13179SOL     OW44347   1.257   3.704   3.480  0.0342 -0.4961 -0.1159
13179SOL    HW144348   1.232   3.655   3.558 -0.5167 -1.5916 -0.9473
13179SOL    HW244349   1.199   3.670   3.411  0.6231  0.3176 -1.0393
13180SOL     OW44350  12.429   1.128   6.297  0.4563 -0.6862 -0.0613
13180SOL    HW144351  12.334   1.134   6.303  0.3394 -0.2471 -1.7967
13180SOL    HW244352  12.460   1.217   6.317  0.5458 -0.9508  1.0049
13181SOL     OW44353   6.498   8.677   2.633  0.2482 -0.3204  0.3306
13181SOL    HW144354   6.448   8.748   2.592  0.9423  0.2344  0.4242
13181SOL    HW244355   6.529   8.714   2.715  0.6718 -0.7158  0.3533
13182SOL     OW44356   3.430  11.661   0.327 -0.4820  0.2782  0.3121
13182SOL    HW144357   3.337  11.636   0.329 -0.7515  1.2346 -0.0050
13182SOL    HW244358   3.445  11.706   0.410 -0.0673 -0.6482  0.7547
13183SOL     OW44359   1.712   7.473   9.215  0.3168  0.1514 -0.2633
13183SOL    HW144360   1.630   7.482   9.167 -0.6414  2.1548  1.6118
13183SOL    HW244361   1.770   7.428   9.154 -1.3965  0.8815 -2.5615
13184SOL     OW44362   8.791  12.261   9.318 -0.5731  0.1938  0.6544
13184SOL    HW144363   8.785  12.243   9.412  1.9448  2.0304  1.2720
13184SOL    HW244364   8.704  12.294   9.295 -0.3490  3.1371  3.2583
13185SOL     OW44365   0.529  10.842   0.708 -0.4726 -0.6313 -0.1264
13185SOL    HW144366   0.444  10.885   0.713  0.4224  1.1666  0.9811
13185SOL    HW244367   0.513  10.761   0.660 -2.5232  0.3082 -1.1395
13186SOL     OW44368   9.047   6.565   0.914 -0.2791 -0.0715 -0.5182
13186SOL    HW144369   8.995   6.485   0.902  0.1891 -0.2899 -1.1243
13186SOL    HW244370   9.119   6.556   0.852  0.0049  0.6351 -0.2949
13187SOL     OW44371  10.979   7.900   3.078  0.0519 -0.0090 -0.4470
13187SOL    HW144372  10.968   7.832   3.011  0.8662  0.2271 -0.8413
13187SOL    HW244373  10.899   7.897   3.129 -0.5284 -0.3010 -1.3458
13188SOL     OW44374   8.021   8.348   5.400  0.5394 -0.2221  0.2514
13188SOL    HW144375   8.001   8.422   5.342 -1.9282 -0.5183  0.6404
13188SOL    HW244376   8.078   8.386   5.467  1.6813  0.6173 -1.1214
13189SOL     OW44377   8.090   7.309   4.824 -0.2315  0.3878  0.3042
13189SOL    HW144378   8.132   7.261   4.895 -0.7678  0.5573  0.7500
13189SOL    HW244379   8.016   7.254   4.799 -0.3594  0.5828  0.2487
13190SOL     OW44380   7.405   7.366   1.652 -0.2144  0.1909  0.8599
13190SOL    HW144381   7.458   7.420   1.594 -1.0477  1.1107  0.9239
13190SOL    HW244382   7.317   7.369   1.613 -0.9926  1.5138  2.5745
13191SOL     OW44383   4.061   1.168  12.484 -0.6485 -0.7401  0.2027
13191SOL    HW144384   4.134   1.106  12.480 -1.2606 -1.5483  1.2523
13191SOL    HW244385   3.986   1.119  12.451 -1.3066 -0.8471  1.8072
13192SOL     OW44386   4.063   7.221   6.242  0.7582 -0.0686  0.0199
13192SOL    HW144387   3.980   7.178   6.219  1.3528 -0.9281 -0.5587
13192SOL    HW244388   4.038   7.311   6.262 -0.2975 -0.2665 -0.3353
13193SOL     OW44389  11.259  12.122   0.085 -0.9080 -0.1197  0.1753
13193SOL    HW144390  11.302  12.156   0.006  2.7347 -2.8057  0.7491
13193SOL    HW244391  11.171  12.099   0.056 -0.1541  0.2892 -2.7450
13194SOL     OW44392   3.479  11.498   3.995  0.2889 -0.0302  0.1790
13194SOL    HW144393   3.499  11.454   4.078 -2.3418  1.0093  1.4584
13194SOL    HW244394   3.509  11.436   3.928 -1.1940 -2.8251  1.8908
13195SOL     OW44395   9.978   6.467  11.735  0.1332  0.6215 -0.4951
13195SOL    HW144396   9.943   6.544  11.781  0.1829  0.2729  0.1380
13195SOL    HW244397   9.994   6.403  11.804  0.6602  0.2547 -0.9487
13196SOL     OW44398  11.038   2.944  10.821 -0.1363  0.9915 -0.4281
13196SOL    HW144399  10.947   2.969  10.837 -0.2569  0.4157 -0.1980
13196SOL    HW244400  11.041   2.921  10.728 -0.5652 -0.3579 -0.1322
13197SOL     OW44401   8.762   4.484   9.040  0.0155  0.1365  0.1268
13197SOL    HW144402   8.707   4.476   8.961  2.8076  0.3269 -1.9974
13197SOL    HW244403   8.758   4.577   9.062 -2.4994 -0.2465  1.6561
13198SOL     OW44404   6.416   2.883   8.931  0.0486  0.4496 -0.4697
13198SOL    HW144405   6.350   2.856   8.994 -1.4528 -1.3967 -2.6704
13198SOL    HW244406   6.413   2.979   8.933  0.8994  0.5147  2.9621
13199SOL     OW44407   1.281   0.303   1.646  0.1064  0.1803 -0.7978
13199SOL    HW144408   1.290   0.208   1.649 -1.5333  0.0139  1.7673
13199SOL    HW244409   1.204   0.318   1.590 -1.7534 -0.3316  1.4423
13200SOL     OW44410   0.940   4.420   9.976 -0.2125 -0.4826 -0.5159
13200SOL    HW144411   0.850   4.396   9.953  0.7033 -2.6309 -2.2340
13200SOL    HW244412   0.969   4.349  10.034  0.5076 -0.0189 -0.2987
13201SOL     OW44413   9.415   1.357   4.380 -0.2286 -0.7293  0.2011
13201SOL    HW144414   9.498   1.384   4.342  0.1580 -0.7749  1.0040
13201SOL    HW244415   9.353   1.360   4.307  0.5389 -0.9904 -0.4737
13202SOL     OW44416   6.483   6.835   4.469  0.9348  0.0956  0.1555
13202SOL    HW144417   6.557   6.775   4.455  0.5329 -0.3707  0.0142
13202SOL    HW244418   6.524   6.919   4.490  1.5157 -0.4281  1.2010
13203SOL     OW44419  12.622   6.571  10.424 -0.4989  0.0710  0.2576
13203SOL    HW144420  12.578   6.597  10.505  0.1644  1.1903  0.2698
13203SOL    HW244421  12.551   6.562  10.360 -0.9230  0.1528  0.7140
13204SOL     OW44422   7.189   5.133   8.361 -0.3259 -0.1145 -0.3929
13204SOL    HW144423   7.238   5.130   8.442 -2.5840 -2.6857  1.0351
13204SOL    HW244424   7.178   5.227   8.343 -0.2588  0.5433  2.5890
13205SOL     OW44425   7.590   9.304   2.130 -0.4793 -0.0947  0.4952
13205SOL    HW144426   7.674   9.341   2.156 -0.4511  0.4246 -0.2971
13205SOL    HW244427   7.601   9.209   2.139 -0.2125  0.0291  1.5505
13206SOL     OW44428   4.899   5.676   2.869 -0.2931 -0.7782  0.4246
13206SOL    HW144429   4.862   5.764   2.866  1.3721  0.0181  1.5585
13206SOL    HW244430   4.823   5.618   2.875 -1.3954  0.6733  1.1412
13207SOL     OW44431   1.990   4.833   4.187  0.1938  0.2006  0.2552
13207SOL    HW144432   1.934   4.759   4.207  0.6751  0.0680  1.1619
13207SOL    HW244433   1.982   4.891   4.262  2.9015 -0.8282  1.4905
13208SOL     OW44434  10.398   8.499   6.950 -0.6481 -0.0778  0.2210
13208SOL    HW144435  10.483   8.535   6.974 -0.0773 -1.1217 -0.1608
13208SOL    HW244436  10.335   8.566   6.976  0.2451  0.4696  1.0246
13209SOL     OW44437  12.312   9.322   6.957 -0.3199 -0.0154  0.2606
13209SOL    HW144438  12.376   9.334   6.887 -1.0282  0.6887 -0.2856
13209SOL    HW244439  12.315   9.229   6.978  1.0280  0.0427  0.3946
13210SOL     OW44440   0.636   7.332   0.509  0.2132  0.6448 -0.0840
13210SOL    HW144441   0.565   7.369   0.562 -0.5707  1.2926 -1.5392
13210SOL    HW244442   0.696   7.294   0.574 -0.9656  0.9299  1.2359
13211SOL     OW44443   3.771   0.156   5.610 -0.4132  0.6301 -0.0907
13211SOL    HW144444   3.681   0.186   5.597  0.2126  2.1312 -1.1842
13211SOL    HW244445   3.825   0.232   5.588  1.1173 -0.0851  1.0289
13212SOL     OW44446   5.894  11.534   5.932  0.5050 -0.2616 -0.6740
13212SOL    HW144447   5.874  11.508   6.022 -1.7337 -0.2946 -1.1255
13212SOL    HW244448   5.987  11.556   5.933  0.4279  0.1456  1.7425
13213SOL     OW44449   0.874   9.356   9.567 -0.8800  0.1096 -0.4413
13213SOL    HW144450   0.891   9.412   9.491 -0.3513  0.3980 -0.1133
13213SOL    HW244451   0.892   9.411   9.642 -0.0098 -0.6066 -0.1153
13214SOL     OW44452   4.872   7.512   9.539  0.5561 -0.1513  0.1773
13214SOL    HW144453   4.908   7.581   9.593  0.3004 -0.0137  0.1751
13214SOL    HW244454   4.898   7.535   9.450  0.9441 -0.3577  0.2351
13215SOL     OW44455   3.867   4.186  10.410 -0.0080 -0.3298  0.2735
13215SOL    HW144456   3.827   4.268  10.439 -1.9548 -0.3506 -1.9775
13215SOL    HW244457   3.880   4.198  10.316  1.0225 -2.0913  0.1434
13216SOL     OW44458  11.296  11.124   3.895 -0.0580 -0.0565  0.6149
13216SOL    HW144459  11.275  11.046   3.947  2.1891 -1.0584  0.1599
13216SOL    HW244460  11.334  11.186   3.957  0.4107 -0.3158  0.5957
13217SOL     OW44461   3.670   3.848  10.603  0.2105 -0.0393  0.0326
13217SOL    HW144462   3.609   3.785  10.563  1.2128 -0.1733 -1.3165
13217SOL    HW244463   3.623   3.880  10.680 -2.6437  1.6746 -2.2086
13218SOL     OW44464   8.469   6.777   8.688  0.2864  0.2366 -0.4545
13218SOL    HW144465   8.449   6.859   8.733 -0.7145 -1.1422  1.7756
13218SOL    HW244466   8.551   6.794   8.643  0.2936  2.3501  0.2252
13219SOL     OW44467   5.981   6.279   2.922 -0.2945  0.2970  0.5333
13219SOL    HW144468   5.893   6.249   2.946  0.4767 -1.2875  1.4930
13219SOL    HW244469   6.033   6.199   2.918  0.8541  1.0831 -1.2197
13220SOL     OW44470   0.410   7.489   9.527 -0.1924  0.0100  0.4061
13220SOL    HW144471   0.499   7.525   9.527  0.3331 -1.0287  3.3820
13220SOL    HW244472   0.354   7.564   9.508  1.2871  0.5916 -1.9941
13221SOL     OW44473  10.161   7.917   4.370  0.7887 -0.2018  0.1921
13221SOL    HW144474  10.107   7.863   4.312  0.7500 -0.7794  0.7548
13221SOL    HW244475  10.232   7.948   4.314  0.8218 -0.8530 -0.1385
13222SOL     OW44476   9.222   6.068   5.043  0.2445 -0.4980 -0.1009
13222SOL    HW144477   9.253   5.981   5.016  1.2188  0.2335 -1.4655
13222SOL    HW244478   9.241   6.124   4.968  1.3236  1.2719  1.4091
13223SOL     OW44479   6.248   3.381  10.841 -0.2465 -0.6374 -0.2009
13223SOL    HW144480   6.341   3.380  10.818 -0.3708  0.6338 -0.8128
13223SOL    HW244481   6.218   3.469  10.819 -1.6554 -1.0932 -0.2056
13224SOL     OW44482   2.983   9.104   5.962  0.3122  0.6151  0.2243
13224SOL    HW144483   2.900   9.101   6.010  0.4469 -1.0458  0.4253
13224SOL    HW244484   2.965   9.057   5.881  1.2165 -0.3637  0.5682
13225SOL     OW44485   0.161   1.838  10.577 -0.0681 -0.2779  0.6218
13225SOL    HW144486   0.182   1.814  10.486  2.4237  0.4368  0.9468
13225SOL    HW244487   0.069   1.865  10.573 -0.3774 -1.3512 -1.4464
13226SOL     OW44488   7.164  12.455   7.713  0.0569 -0.1999  0.1838
13226SOL    HW144489   7.210  12.538   7.703 -1.1226  0.6722  1.5615
13226SOL    HW244490   7.182  12.429   7.803 -1.0548 -0.5008  0.3315
13227SOL     OW44491  10.725  11.143   1.734  0.2157 -0.1613  0.0044
13227SOL    HW144492  10.739  11.063   1.785 -0.6817 -0.6137 -0.4445
13227SOL    HW244493  10.686  11.113   1.652  1.0012  0.6251 -0.6802
13228SOL     OW44494  10.104  10.979   4.605  0.8041  0.3225 -0.0313
13228SOL    HW144495  10.115  10.939   4.518 -1.4704 -1.5646  0.4500
13228SOL    HW244496  10.175  10.943   4.657 -0.0599 -1.6361 -0.1383
13229SOL     OW44497   6.831   1.987   6.539  0.2056 -0.3284 -0.2503
13229SOL    HW144498   6.792   1.961   6.456  0.0501  1.1756 -0.6829
13229SOL    HW244499   6.889   2.060   6.517  0.1977  0.0661  0.9480
13230SOL     OW44500   0.345   0.658   8.257 -0.2372 -0.3732 -0.1566
13230SOL    HW144501   0.404   0.600   8.305 -1.1856 -2.2788 -1.1765
13230SOL    HW244502   0.259   0.643   8.296 -0.3143  1.3770  0.4272
13231SOL     OW44503   9.036   3.455  10.820 -0.4683  0.1806 -0.3108
13231SOL    HW144504   9.078   3.459  10.734 -2.9511  0.4388 -1.5977
13231SOL    HW244505   9.104   3.483  10.882  2.0588 -2.0083 -1.8706
13232SOL     OW44506   9.533   9.932   6.535 -0.5266  0.5050 -0.0596
13232SOL    HW144507   9.573   9.993   6.596  1.4861 -1.6294  0.8789
13232SOL    HW244508   9.470   9.986   6.486 -1.4176  2.5535  3.0370
13233SOL     OW44509  10.583   9.100   4.189  0.0918  0.4425 -0.0381
13233SOL    HW144510  10.653   9.059   4.241 -0.7804 -0.4505  0.4691
13233SOL    HW244511  10.519   9.128   4.254 -0.1301  1.0610 -0.5172
13234SOL     OW44512   7.971   9.952   2.524  0.1044  0.0302 -0.2126
13234SOL    HW144513   7.950   9.873   2.475  1.0415 -0.9193  0.8758
13234SOL    HW244514   7.933   9.938   2.610  1.1188  0.3352  0.2983
13235SOL     OW44515   8.407   9.328   8.441 -0.0929  0.0564  0.5086
13235SOL    HW144516   8.492   9.369   8.456 -1.1845  2.1511  1.5668
13235SOL    HW244517   8.374   9.310   8.529 -1.4922  1.0711  0.2375
13236SOL     OW44518   3.651  12.421   8.981  0.3387  0.0130 -0.5593
13236SOL    HW144519   3.732  12.401   9.027  0.1504 -1.0517 -0.6565
13236SOL    HW244520   3.628  12.339   8.936 -0.5756  0.4150 -0.8549
13237SOL     OW44521   3.371   4.402   0.108  0.2029  0.1659 -0.4570
13237SOL    HW144522   3.400   4.493   0.113 -1.1640  0.5559  1.4500
13237SOL    HW244523   3.282   4.403   0.142  0.2430 -1.9289 -0.1692
13238SOL     OW44524   8.964   3.213   8.930  0.1621  0.5363 -0.2174
13238SOL    HW144525   9.015   3.157   8.988  1.9015  0.5076 -1.6965
13238SOL    HW244526   9.024   3.236   8.859 -1.1199  2.5808 -0.7487
13239SOL     OW44527   6.186   7.686   6.482  0.6294 -0.0523  0.4268
13239SOL    HW144528   6.157   7.646   6.564 -0.6533  1.5744  0.8196
13239SOL    HW244529   6.106   7.703   6.433  1.3599 -0.7569 -1.0810
13240SOL     OW44530   3.913   6.624   7.262  0.2867  0.2861  0.6747
13240SOL    HW144531   3.828   6.616   7.304 -0.9089 -0.4887 -1.7003
13240SOL    HW244532   3.935   6.717   7.268 -0.1861  0.3143  2.2430
13241SOL     OW44533   3.573   0.502   5.400  0.4796 -0.3418  0.1374
13241SOL    HW144534   3.507   0.530   5.337  0.9510  0.4863 -0.0069
13241SOL    HW244535   3.567   0.567   5.471  1.4871  0.0556 -0.1234
13242SOL     OW44536   6.281   8.113   2.104 -0.0184 -0.1516 -0.0916
13242SOL    HW144537   6.342   8.185   2.088  0.5709 -0.9056 -1.4599
13242SOL    HW244538   6.332   8.051   2.157 -0.3230  0.1435  0.5623
13243SOL     OW44539  10.732   1.366   1.840  0.6399  0.0019  0.3225
13243SOL    HW144540  10.786   1.375   1.919  0.8185 -2.1469  0.5158
13243SOL    HW244541  10.650   1.411   1.862  1.8744  2.3041  0.4532
13244SOL     OW44542  12.051  10.219  11.469  0.3190 -0.0156 -0.0116
13244SOL    HW144543  12.137  10.216  11.428  0.3048  0.7491 -0.1154
13244SOL    HW244544  12.052  10.298  11.523  0.2335 -0.8357  1.2506
13245SOL     OW44545   3.749  11.517  10.195  0.1405  0.6895  0.0621
13245SOL    HW144546   3.808  11.592  10.185  0.7808  0.2547  0.4886
13245SOL    HW244547   3.727  11.515  10.288  1.5386 -0.6664  0.4014
13246SOL     OW44548   3.186   5.916   6.309  0.0280  0.0134 -0.0182
13246SOL    HW144549   3.111   5.862   6.283  0.2142 -0.1592 -0.1960
13246SOL    HW244550   3.148   6.003   6.326 -0.3773 -0.3321  0.9047
13247SOL     OW44551   0.416  11.530   2.477  0.0127  0.0886  0.1201
13247SOL    HW144552   0.338  11.532   2.532  0.4518 -0.1433  0.7692
13247SOL    HW244553   0.390  11.478   2.401 -1.7562  3.3900 -1.7609
13248SOL     OW44554  11.759   1.884   7.926 -0.8913  0.0826  0.6891
13248SOL    HW144555  11.685   1.939   7.953 -2.8823 -1.6241 -0.9817
13248SOL    HW244556  11.740   1.798   7.963  0.4383 -0.3331  0.4684
13249SOL     OW44557   5.510   3.448   0.676  0.3412  0.3331 -0.6493
13249SOL    HW144558   5.488   3.434   0.584 -1.1754  0.0788 -0.2750
13249SOL    HW244559   5.473   3.534   0.696 -1.1602 -0.5010  0.2444
13250SOL     OW44560   8.136   9.446   7.239 -0.5168 -0.1407  0.2351
13250SOL    HW144561   8.191   9.445   7.318 -0.0994 -2.9210  0.0057
13250SOL    HW244562   8.058   9.495   7.265  1.2630  2.5549  1.0627
13251SOL     OW44563   3.129  10.933  11.524  0.1387 -0.0660  0.2886
13251SOL    HW144564   3.064  10.863  11.528  0.2693 -0.1357  2.0438
13251SOL    HW244565   3.078  11.013  11.514 -0.3483 -0.0419  2.4183
13252SOL     OW44566   5.882   3.757   1.365 -0.5537 -0.0698  0.3436
13252SOL    HW144567   5.843   3.688   1.419 -0.3956 -0.6662 -0.2921
13252SOL    HW244568   5.850   3.839   1.403  0.5025 -0.4190  2.1042
13253SOL     OW44569   2.234   2.124   2.047 -0.2910 -0.0623 -0.1511
13253SOL    HW144570   2.182   2.049   2.075 -3.5265  0.6315 -3.5815
13253SOL    HW244571   2.243   2.113   1.952 -1.3136  4.0396 -0.8868
13254SOL     OW44572   0.614   7.141   3.408  0.1924  0.5214 -0.1921
13254SOL    HW144573   0.529   7.111   3.440 -0.8729  2.3960 -1.1027
13254SOL    HW244574   0.672   7.133   3.484 -0.5368 -1.6140  0.2081
13255SOL     OW44575   8.292   1.793  12.577  0.0853  0.1493 -0.2348
13255SOL    HW144576   8.332   1.837  12.502  0.6158 -0.2794 -0.2080
13255SOL    HW244577   8.365   1.774  12.636 -0.3524  0.6627  0.4868
13256SOL     OW44578   7.427   8.924   3.561  0.0421 -0.9244  0.3332
13256SOL    HW144579   7.502   8.981   3.576 -1.5547  1.2670  0.5210
13256SOL    HW244580   7.369   8.975   3.504 -0.9280 -2.9109 -0.5847
13257SOL     OW44581  10.210   2.150   6.040 -0.2450  0.3273  0.0149
13257SOL    HW144582  10.144   2.219   6.028 -0.6131 -0.1854 -1.0124
13257SOL    HW244583  10.288   2.197   6.069 -0.6517  1.1185 -0.1452
13258SOL     OW44584  11.766   4.835   2.210 -0.1799  0.5243  0.0823
13258SOL    HW144585  11.736   4.812   2.298  2.1177  0.0090  0.8049
13258SOL    HW244586  11.805   4.922   2.221 -0.6991  0.8568 -0.6461
13259SOL     OW44587   8.044   2.206   2.671  0.1546 -0.0150 -0.6837
13259SOL    HW144588   8.110   2.136   2.666  0.2473  0.0261 -0.1008
13259SOL    HW244589   7.971   2.174   2.618 -0.2917 -1.1046  0.5145
13260SOL     OW44590  12.015   8.948   3.584  0.3833  0.1616 -0.1395
13260SOL    HW144591  12.011   8.872   3.525 -0.4060  0.5604 -0.6194
13260SOL    HW244592  11.924   8.979   3.588  0.2329 -0.4274  2.0358
13261SOL     OW44593   8.763   6.651  10.056 -0.1729  0.1592 -0.0939
13261SOL    HW144594   8.798   6.726  10.008  1.9984 -0.0829  0.9929
13261SOL    HW244595   8.700   6.689  10.118  0.0863  0.9489 -0.3064
13262SOL     OW44596   7.062   8.530   7.253  0.3830 -0.5616  0.2269
13262SOL    HW144597   7.055   8.515   7.159  1.3662 -1.0432  0.2207
13262SOL    HW244598   6.975   8.561   7.279 -0.0200 -0.8316 -0.7609
13263SOL     OW44599   9.657   0.955   4.483 -0.7283  0.1617  0.5084
13263SOL    HW144600   9.612   0.875   4.454  0.5860 -0.6447  0.6234
13263SOL    HW244601   9.746   0.927   4.504 -0.0481  1.7653 -0.0174
13264SOL     OW44602  11.501   7.068   1.115 -0.0023  0.1657  0.2396
13264SOL    HW144603  11.417   7.069   1.070 -0.0074 -0.1417  0.2392
13264SOL    HW244604  11.523   7.160   1.128  0.0104  0.2537 -0.4051
13265SOL     OW44605   7.262   6.422   6.240 -0.7915 -0.0029 -0.3090
13265SOL    HW144606   7.219   6.373   6.310  1.0067  1.3446  1.8318
13265SOL    HW244607   7.335   6.367   6.213 -1.1221 -0.2440 -0.7320
13266SOL     OW44608   4.772   7.294   2.684  1.2399 -0.7871 -0.2068
13266SOL    HW144609   4.686   7.254   2.698  0.5232  0.4533 -0.9118
13266SOL    HW244610   4.816   7.233   2.624  0.7730 -1.3133 -0.0282
13267SOL     OW44611   9.386   9.040  12.049 -0.3618 -0.3290 -0.3118
13267SOL    HW144612   9.451   9.018  11.983  0.6581 -0.8889  0.8336
13267SOL    HW244613   9.388   9.135  12.054  1.8404 -0.3619  1.0398
13268SOL     OW44614   3.219  12.485   1.122 -1.0064  0.2485 -0.2093
13268SOL    HW144615   3.240  12.412   1.063 -1.3825  1.1329 -1.4758
13268SOL    HW244616   3.125  12.498   1.110 -1.0513  0.5583  0.4722
13269SOL     OW44617  12.614   4.343   0.943  0.0734  0.0516 -0.0833
13269SOL    HW144618  12.642   4.254   0.966  1.9053  0.8283  0.8813
13269SOL    HW244619  12.664   4.364   0.864  0.9735  0.8069  0.6537
13270SOL     OW44620   6.515   4.551   8.857 -0.3401 -0.1603  0.2574
13270SOL    HW144621   6.523   4.479   8.795  0.5233 -0.3698  0.5999
13270SOL    HW244622   6.476   4.622   8.806 -1.5385 -0.9710  0.0105
13271SOL     OW44623   7.403   7.621   6.251 -0.5049  0.9390  0.0049
13271SOL    HW144624   7.457   7.542   6.245  0.0981  1.3789 -0.5726
13271SOL    HW244625   7.449   7.678   6.313  0.1618  1.6395 -1.0829
13272SOL     OW44626   6.475   8.418   0.958  0.2182  0.7763 -0.7070
13272SOL    HW144627   6.515   8.331   0.956  1.6991  1.0613  3.9435
13272SOL    HW244628   6.385   8.402   0.987  0.9640  0.6797  1.8665
13273SOL     OW44629   0.680   0.801   5.428  0.5871 -0.0152  0.0267
13273SOL    HW144630   0.766   0.801   5.385  0.5229 -0.9969 -0.1235
13273SOL    HW244631   0.677   0.885   5.474  0.7827  0.9491 -1.6167
13274SOL     OW44632  11.256   3.496  11.919  0.2849  0.6681 -0.0569
13274SOL    HW144633  11.210   3.447  11.852  1.1525 -0.8551  0.4236
13274SOL    HW244634  11.219   3.466  12.002  1.0635  0.5673  0.2623
13275SOL     OW44635   9.969   8.591   6.419  0.2933  0.1337 -0.3489
13275SOL    HW144636  10.063   8.586   6.401  0.3815 -0.8393  0.3104
13275SOL    HW244637   9.942   8.673   6.379  1.6372  0.9756  0.3983
13276SOL     OW44638   9.469   0.775  11.856  0.0821  0.0561  0.1503
13276SOL    HW144639   9.466   0.686  11.820  1.0492 -0.4656  1.2606
13276SOL    HW244640   9.536   0.770  11.925  0.5635  1.7984 -0.1497
13277SOL     OW44641   3.873   2.583   5.510 -0.2771 -0.9139  0.1917
13277SOL    HW144642   3.859   2.676   5.493 -0.5010 -1.0055 -0.1279
13277SOL    HW244643   3.791   2.541   5.483  0.3289 -1.3650 -0.9814
13278SOL     OW44644   8.248   7.066  10.965  0.5692  0.0377 -0.8150
13278SOL    HW144645   8.296   7.080  10.883  0.6506  2.5857 -0.4305
13278SOL    HW244646   8.295   7.119  11.030  0.8316 -2.3649  1.0673
13279SOL     OW44647  11.846  12.434   4.966  0.5310  0.3653 -0.1349
13279SOL    HW144648  11.895  12.511   4.938  1.9059 -0.3417  0.2457
13279SOL    HW244649  11.902  12.360   4.943 -1.6105 -0.7222 -2.3766
13280SOL     OW44650   9.603   6.249   3.777 -0.4436 -0.3945  0.5058
13280SOL    HW144651   9.596   6.249   3.682  2.0117 -1.3222  0.2703
13280SOL    HW244652   9.514   6.230   3.807 -1.0445 -1.2448 -1.6192
13281SOL     OW44653   7.090   0.049   0.399 -0.4314 -0.0334 -0.2381
13281SOL    HW144654   7.090   0.124   0.338 -0.0214 -0.2819 -0.5474
13281SOL    HW244655   6.997   0.029   0.411 -0.5413  0.4623 -0.2355
13282SOL     OW44656   5.316  10.479  10.413 -0.1044  0.7095  0.1839
13282SOL    HW144657   5.284  10.488  10.503  0.9161  0.0608  0.6245
13282SOL    HW244658   5.248  10.521  10.359  0.6320  3.8256  1.4532
13283SOL     OW44659  10.122   2.849   7.417  0.4697 -0.0044 -0.0414
13283SOL    HW144660  10.035   2.859   7.378  0.5485  2.5222  0.2863
13283SOL    HW244661  10.165   2.933   7.401  3.4551 -1.6311 -1.5058
13284SOL     OW44662   8.614  10.163  12.050  0.7661  0.4200  0.0368
13284SOL    HW144663   8.701  10.196  12.073  0.1369  1.4960  0.9680
13284SOL    HW244664   8.571  10.236  12.005  0.4240 -0.1944 -0.6594
13285SOL     OW44665   8.644  11.548   2.582 -0.0720 -0.7393 -0.0147
13285SOL    HW144666   8.676  11.536   2.492  0.3691 -0.6837  0.1326
13285SOL    HW244667   8.660  11.640   2.601  0.1429 -0.8276  0.2384
13286SOL     OW44668   3.964   4.509   4.626 -0.2226 -0.3833  0.4968
13286SOL    HW144669   3.932   4.493   4.537  0.1259  0.9212  0.1078
13286SOL    HW244670   3.969   4.422   4.666  0.1387 -1.0623 -0.9379
13287SOL     OW44671   1.058   1.918  11.208  0.2570 -0.0613 -0.1861
13287SOL    HW144672   1.105   1.866  11.143 -1.2180 -0.8673 -0.6524
13287SOL    HW244673   1.093   1.889  11.292  0.5485 -0.6849 -0.5143
13288SOL     OW44674  12.220   8.593  10.802  0.3187 -0.3140 -0.3146
13288SOL    HW144675  12.254   8.504  10.804 -2.4804 -1.5166 -0.9709
13288SOL    HW244676  12.186   8.604  10.713 -0.8989  0.7567  0.2534
13289SOL     OW44677  11.863   5.318   8.310  0.1300  0.1487 -0.1563
13289SOL    HW144678  11.859   5.228   8.276 -0.1034 -0.6667  1.8918
13289SOL    HW244679  11.788   5.362   8.270 -1.0397 -1.2060  0.4233
13290SOL     OW44680   4.997  12.596   2.168 -0.2246 -0.3936 -0.1356
13290SOL    HW144681   5.076  12.570   2.215  0.1627 -0.4164 -0.8029
13290SOL    HW244682   5.015  12.578   2.076 -0.4146  1.0290 -0.4855
13291SOL     OW44683   4.012   4.390   9.538 -0.4601  0.1428 -0.5367
13291SOL    HW144684   3.997   4.452   9.468  0.5158  2.0581  0.8482
13291SOL    HW244685   4.002   4.442   9.618  3.8498 -0.4767  0.6740
13292SOL     OW44686   7.208   7.734  12.476  0.1091  0.3442 -0.2887
13292SOL    HW144687   7.127   7.785  12.483  0.1954  0.3310  0.9582
13292SOL    HW244688   7.278   7.800  12.474  0.1549  0.3188  0.2563
13293SOL     OW44689   1.119   8.443  10.309  0.0691 -0.3746  0.3365
13293SOL    HW144690   1.039   8.428  10.358 -0.0380  0.8486  0.5675
13293SOL    HW244691   1.089   8.457  10.219 -0.1928  1.9389  0.7349
13294SOL     OW44692   6.904   0.541   3.462  0.2017  0.2131  0.1120
13294SOL    HW144693   6.822   0.492   3.467  0.2491  0.1655  0.5542
13294SOL    HW244694   6.966   0.488   3.514  0.4458  0.3667 -0.0216
13295SOL     OW44695   2.651   5.710   2.203  0.3507 -0.1856  0.3375
13295SOL    HW144696   2.592   5.672   2.268 -0.9869  1.1072 -0.0780
13295SOL    HW244697   2.613   5.686   2.119 -0.5609  1.9633  0.0565
13296SOL     OW44698  10.995   5.575   9.369 -0.3541  0.0322 -0.0467
13296SOL    HW144699  10.970   5.651   9.422 -3.1385 -0.3672 -0.6196
13296SOL    HW244700  11.043   5.519   9.429  0.5301  1.5951  0.7647
13297SOL     OW44701   2.260   9.425  11.755 -0.4568 -0.1469  0.0331
13297SOL    HW144702   2.284   9.438  11.847 -0.9073  0.7076  0.0394
13297SOL    HW244703   2.286   9.335  11.736  0.6431  0.0061  0.6893
13298SOL     OW44704   2.943  11.455   9.652  0.5489  0.5437  0.3961
13298SOL    HW144705   2.961  11.448   9.746  2.2903 -0.2174  0.0506
13298SOL    HW244706   2.899  11.539   9.641 -0.0258  0.4663  1.9365
13299SOL     OW44707   1.989   0.261  10.671  0.0004 -0.1650  0.0238
13299SOL    HW144708   2.039   0.257  10.752 -0.9896  1.4144  0.7554
13299SOL    HW244709   1.971   0.169  10.650  2.3900 -0.7400  0.1912
13300SOL     OW44710   9.236   5.534  10.872  0.4527  0.0427  0.0871
13300SOL    HW144711   9.140   5.538  10.882  0.3067 -1.2686 -0.6968
13300SOL    HW244712   9.268   5.515  10.960 -0.2037 -2.1092 -0.0997
13301SOL     OW44713   1.049   1.024   5.464  0.2880  0.2411 -0.0701
13301SOL    HW144714   1.123   1.076   5.433 -0.3230  0.2941 -1.4909
13301SOL    HW244715   1.004   1.081   5.526  1.7187  0.0066  1.2607
13302SOL     OW44716   5.268   0.256  11.385 -0.6605 -0.0194 -0.0601
13302SOL    HW144717   5.316   0.312  11.323 -0.5482 -0.2072 -0.1459
13302SOL    HW244718   5.319   0.175  11.387  0.3850  0.6242  1.6869
13303SOL     OW44719   6.001   3.722   3.010  0.1073 -0.1042 -0.2349
13303SOL    HW144720   6.001   3.632   3.043  0.3696 -0.3672 -0.9286
13303SOL    HW244721   6.079   3.728   2.956  0.5984  0.8288  0.5340
13304SOL     OW44722  10.430   2.198   5.292  0.3290 -0.4093 -0.7398
13304SOL    HW144723  10.401   2.213   5.382  0.4859  1.3178 -0.9442
13304SOL    HW244724  10.349   2.189   5.242  0.2404 -1.1714 -0.4809
13305SOL     OW44725   1.087   3.977   4.304 -0.1423  0.1132  0.0516
13305SOL    HW144726   1.045   3.956   4.221 -0.0619  1.0219 -0.2304
13305SOL    HW244727   1.032   4.046   4.342 -0.4176 -0.5866  0.9580
13306SOL     OW44728   7.101   5.508   4.517 -0.7369 -0.4940  0.3920
13306SOL    HW144729   7.116   5.501   4.423  1.4019 -2.7223  0.7900
13306SOL    HW244730   7.043   5.435   4.537 -0.1737 -0.7898  0.9635
13307SOL     OW44731   7.898   5.893   6.110  0.2324 -0.7258  0.3098
13307SOL    HW144732   7.936   5.917   6.194 -1.5136  0.3184  0.8535
13307SOL    HW244733   7.820   5.948   6.103 -0.0819 -1.3604 -1.6422
13308SOL     OW44734   7.602   7.710   3.412  0.0907 -0.5596  0.2183
13308SOL    HW144735   7.678   7.683   3.359  1.2083 -1.1046  2.0042
13308SOL    HW244736   7.631   7.789   3.456 -1.0501  0.2283 -0.4098
13309SOL     OW44737  12.033   3.319   6.234 -0.0044 -0.6527  0.2540
13309SOL    HW144738  12.046   3.333   6.141  0.2492  1.7826  0.5653
13309SOL    HW244739  12.077   3.394   6.276 -3.2122  0.4626  2.0824
13310SOL     OW44740   8.042   3.055   5.767 -0.4756 -0.1224 -0.4382
13310SOL    HW144741   8.095   3.112   5.711  0.0964 -0.1455  0.0619
13310SOL    HW244742   8.083   2.968   5.757  1.2213  0.3132  1.8829
13311SOL     OW44743   9.754   9.442  10.225 -0.5342 -0.2923  0.5357
13311SOL    HW144744   9.689   9.372  10.231  0.3669 -1.2614 -0.4198
13311SOL    HW244745   9.765   9.473  10.315 -0.9855 -1.3599  0.9745
13312SOL     OW44746  11.340   1.805   5.801  0.1096 -0.0914  0.3353
13312SOL    HW144747  11.356   1.752   5.723 -3.1600 -1.1618  0.2317
13312SOL    HW244748  11.375   1.891   5.780  2.4163 -1.2313 -0.8738
13313SOL     OW44749  11.450   4.521   2.804 -0.6556  0.0783 -0.2216
13313SOL    HW144750  11.463   4.565   2.888  0.7202 -1.2002  0.2797
13313SOL    HW244751  11.538   4.513   2.767 -1.1169 -0.3855 -1.2749
13314SOL     OW44752   4.936   4.752   1.280 -0.0409 -0.4706 -0.3261
13314SOL    HW144753   4.858   4.705   1.311 -0.7620  1.1054  0.3537
13314SOL    HW244754   4.968   4.700   1.206 -0.8090 -1.9913  0.3685
13315SOL     OW44755   1.952   1.485   0.840  0.1935 -0.6773  0.3833
13315SOL    HW144756   2.023   1.478   0.904 -0.0956  1.8024  1.0972
13315SOL    HW244757   1.875   1.506   0.892 -0.8694 -2.2735 -0.4893
13316SOL     OW44758   5.969   1.557  12.477  0.1013 -0.7969  0.6981
13316SOL    HW144759   5.935   1.471  12.454  1.4767 -0.5262 -3.0132
13316SOL    HW244760   6.057   1.559  12.439  0.6343  1.7989  1.8155
13317SOL     OW44761   3.427   7.686   8.627  0.2015  0.4696 -0.1229
13317SOL    HW144762   3.515   7.724   8.638  0.2109  0.4785 -0.2256
13317SOL    HW244763   3.370   7.743   8.678  0.3290  0.1702  0.3645
13318SOL     OW44764  11.627   0.355  10.469  1.1172 -0.1041  0.5651
13318SOL    HW144765  11.629   0.395  10.382  1.7550  0.8518  1.0013
13318SOL    HW244766  11.570   0.412  10.521  0.8961 -0.5573  0.8350
13319SOL     OW44767   2.917   6.952  12.490 -0.3786 -0.4469 -0.0930
13319SOL    HW144768   2.974   6.902  12.549 -0.5114 -1.7439 -1.0220
13319SOL    HW244769   2.933   6.914  12.403  0.1153  1.6777 -0.9878
13320SOL     OW44770   2.882   0.587  10.523 -0.0776  0.3316  0.3073
13320SOL    HW144771   2.855   0.594  10.615 -2.7522  1.9500 -0.4893
13320SOL    HW244772   2.802   0.562  10.476  0.6680  1.6998 -1.8261
13321SOL     OW44773   9.672   1.675   5.768 -0.5445  0.2778  0.0831
13321SOL    HW144774   9.662   1.603   5.830 -0.5629 -0.2239 -0.4960
13321SOL    HW244775   9.583   1.691   5.735 -0.4378  0.1072 -0.2932
13322SOL     OW44776   1.651   4.433   4.550 -0.4928  0.0852  0.2224
13322SOL    HW144777   1.584   4.497   4.575 -0.3521 -0.8717  3.4637
13322SOL    HW244778   1.631   4.355   4.602  1.9352 -0.9647 -0.2693
13323SOL     OW44779   2.642   6.209   1.298  0.0958 -0.4454 -0.4852
13323SOL    HW144780   2.559   6.256   1.297  0.8540  0.9523 -0.9542
13323SOL    HW244781   2.624   6.126   1.253 -0.9231  0.0444 -0.9951
13324SOL     OW44782   3.754   3.067  10.673  0.6391 -0.6195  0.4435
13324SOL    HW144783   3.804   3.133  10.626  0.7685 -0.5041  0.7436
13324SOL    HW244784   3.764   2.987  10.620  0.3566 -0.3660  0.0032
13325SOL     OW44785   4.331  10.586  11.786 -0.1857 -0.3342 -0.1705
13325SOL    HW144786   4.277  10.647  11.736  1.6541  1.4512 -0.1235
13325SOL    HW244787   4.363  10.524  11.720  1.1113  1.1868 -1.0666
13326SOL     OW44788   1.213   5.008   2.094  0.4100 -0.2696 -0.4714
13326SOL    HW144789   1.156   4.932   2.083 -2.9206  1.7501  1.3420
13326SOL    HW244790   1.163   5.082   2.060  1.7422  1.6977  1.5173
13327SOL     OW44791   5.955   9.916   8.626 -0.2784  0.4310  0.3204
13327SOL    HW144792   5.905   9.886   8.702 -0.3626 -0.8866 -0.2201
13327SOL    HW244793   5.907   9.992   8.594 -0.8351  0.3627  0.9653
13328SOL     OW44794   6.259   9.109   8.553 -0.1698 -0.2077  0.6600
13328SOL    HW144795   6.191   9.168   8.586  1.0231  1.0556  0.9551
13328SOL    HW244796   6.314   9.091   8.629  0.6626 -0.0182  0.1088
13329SOL     OW44797   6.608   6.828   6.914  0.2038 -0.1284 -0.4249
13329SOL    HW144798   6.551   6.756   6.943  1.0429 -0.4435  0.5360
13329SOL    HW244799   6.551   6.905   6.913 -0.3279 -0.4970  0.1767
13330SOL     OW44800   6.344   2.532   4.160 -0.6649  0.3258  0.4014
13330SOL    HW144801   6.287   2.606   4.180 -0.3943  0.8844 -0.7986
13330SOL    HW244802   6.404   2.565   4.094  1.5594 -0.0384  2.1240
13331SOL     OW44803   4.836   7.352   5.179  0.2567 -0.3831  0.0107
13331SOL    HW144804   4.906   7.355   5.113  2.0063  1.3711  1.8033
13331SOL    HW244805   4.847   7.267   5.222  1.8584  0.1655  0.7669
13332SOL     OW44806   9.309   6.258   3.877 -0.7077 -0.1031  0.3276
13332SOL    HW144807   9.275   6.169   3.890  1.1139 -0.8058  0.6202
13332SOL    HW244808   9.329   6.289   3.965 -2.3801  1.0665  0.3220
13333SOL     OW44809   3.755   0.664  10.182 -0.2532 -0.0788 -0.5368
13333SOL    HW144810   3.821   0.603  10.149 -0.8400 -1.0161 -0.0238
13333SOL    HW244811   3.672   0.617  10.172 -0.7936  0.8872 -0.7069
13334SOL     OW44812  12.101  10.564   0.862  0.2283 -0.1650  0.5578
13334SOL    HW144813  12.097  10.473   0.890  0.6597 -0.4459 -0.2397
13334SOL    HW244814  12.066  10.614   0.935 -1.8922 -1.1207  0.2578
13335SOL     OW44815  11.127   2.221  10.048 -0.3154  0.2142  0.6141
13335SOL    HW144816  11.175   2.155  10.098 -1.2773 -0.4964  0.6240
13335SOL    HW244817  11.192   2.261   9.991  0.1917 -1.0634  0.2832
13336SOL     OW44818   2.838   0.706   4.801 -0.0422 -0.3311 -0.2252
13336SOL    HW144819   2.831   0.781   4.742  1.2119  1.3176  1.5953
13336SOL    HW244820   2.904   0.649   4.760  0.3290  0.4563 -0.7456
13337SOL     OW44821   5.678   5.733   2.914  0.4051 -0.3080 -0.1470
13337SOL    HW144822   5.633   5.790   2.851  0.3576  2.0690  1.8709
13337SOL    HW244823   5.609   5.707   2.976  1.3356  2.0907  2.0837
13338SOL     OW44824   3.479  12.112   5.686  0.0412 -0.5115 -0.1538
13338SOL    HW144825   3.533  12.131   5.763 -0.2984  1.1693 -0.3129
13338SOL    HW244826   3.506  12.024   5.660  1.4023 -0.4239  0.8504
13339SOL     OW44827   7.265   0.913   5.709  0.3770  0.7421 -0.3082
13339SOL    HW144828   7.313   0.880   5.785 -2.3981 -0.2699  1.1497
13339SOL    HW244829   7.293   0.858   5.637  0.4059 -0.7192  0.7774
13340SOL     OW44830   3.358  12.106  10.869  0.0940 -0.4411  0.9695
13340SOL    HW144831   3.306  12.027  10.853 -0.0133 -0.6905  2.4416
13340SOL    HW244832   3.296  12.178  10.857 -0.0359 -0.6219  0.5399
13341SOL     OW44833   4.748   7.787   3.930 -0.5053  0.2324  0.1126
13341SOL    HW144834   4.660   7.776   3.893 -0.2821  0.2936 -0.4385
13341SOL    HW244835   4.776   7.698   3.950 -0.5308  0.1748 -0.0964
13342SOL     OW44836   7.112   0.565   8.422 -0.6334  0.4322  0.1147
13342SOL    HW144837   7.166   0.526   8.491 -0.4104 -0.1949 -0.4027
13342SOL    HW244838   7.117   0.659   8.438  2.2794  0.5900 -1.0835
13343SOL     OW44839   8.789   3.534   6.033 -0.1543 -0.0667  0.6158
13343SOL    HW144840   8.812   3.623   6.060 -0.3828 -0.0314  0.6950
13343SOL    HW244841   8.840   3.520   5.954 -0.8929  0.5151  0.0215
13344SOL     OW44842   8.127  12.439  10.148  0.5299 -0.6126 -0.1796
13344SOL    HW144843   8.111  12.348  10.170  0.0061 -0.4370  0.1850
13344SOL    HW244844   8.172  12.437  10.064 -1.5747 -1.1130 -1.3612
13345SOL     OW44845  10.990   8.917   7.147  0.3386  0.0462  0.2783
13345SOL    HW144846  11.026   8.865   7.075 -0.1604 -1.0033  0.7538
13345SOL    HW244847  10.904   8.946   7.115  0.3483  0.0424  0.2494
13346SOL     OW44848   5.611   1.608   6.548  0.2575  0.0840 -0.6181
13346SOL    HW144849   5.683   1.584   6.606 -0.1904 -1.0941 -0.5198
13346SOL    HW244850   5.643   1.684   6.500  0.3614  1.5613  1.6706
13347SOL     OW44851  10.457   7.255   4.843 -0.0947 -0.1969  0.5767
13347SOL    HW144852  10.376   7.215   4.809  0.0600  0.0262 -0.0726
13347SOL    HW244853  10.446   7.254   4.938 -0.7286 -0.4515  0.5088
13348SOL     OW44854   9.396   2.352   4.150 -0.0536 -0.1987 -0.6305
13348SOL    HW144855   9.482   2.316   4.126  0.4468  0.6453 -0.1505
13348SOL    HW244856   9.381   2.423   4.088 -0.9133 -1.0176 -1.3968
13349SOL     OW44857   5.579   5.467   9.301  0.1065  0.5920  0.4800
13349SOL    HW144858   5.532   5.493   9.223 -0.8274 -0.8247  0.5267
13349SOL    HW244859   5.535   5.512   9.373 -1.3261 -0.8249  0.5391
13350SOL     OW44860   8.370   3.065   4.451  0.2105  0.2054 -0.1501
13350SOL    HW144861   8.411   3.147   4.480  0.1836  1.0670 -2.3795
13350SOL    HW244862   8.407   2.998   4.509  0.4307  1.7391  1.5684
13351SOL     OW44863   3.719   5.969   3.340 -0.2722  0.0371 -0.4025
13351SOL    HW144864   3.631   5.989   3.370  0.4265  2.4949  0.2435
13351SOL    HW244865   3.762   5.929   3.415 -1.2805 -2.8902 -1.2705
13352SOL     OW44866  11.202   1.899  10.862 -0.4398 -0.5123 -0.4399
13352SOL    HW144867  11.163   1.970  10.811 -0.3765  0.3978  0.7235
13352SOL    HW244868  11.147   1.823  10.843 -4.6355  1.2025  3.0455
13353SOL     OW44869   9.968   3.402   3.943 -0.2502  0.0312 -0.8477
13353SOL    HW144870   9.970   3.331   4.006  0.3800  0.0689 -0.8183
13353SOL    HW244871   9.981   3.481   3.996 -3.4098  0.4718 -0.5120
13354SOL     OW44872   3.933  12.531  11.286 -0.0946 -0.1067  0.2329
13354SOL    HW144873   3.927  12.579  11.368  2.8610  1.3894 -0.3164
13354SOL    HW244874   3.970  12.446  11.311  3.3957  1.2683  0.3430
13355SOL     OW44875   2.909  10.735   7.491 -0.1122  0.3691 -0.1222
13355SOL    HW144876   2.914  10.672   7.562 -2.6721 -1.0591 -1.0722
13355SOL    HW244877   2.869  10.686   7.419  2.4277  1.7247 -2.6219
13356SOL     OW44878   5.805  12.041  10.660 -0.6569  0.0920 -0.1317
13356SOL    HW144879   5.802  11.950  10.631 -1.9271  0.5721 -1.6357
13356SOL    HW244880   5.888  12.074  10.626 -0.2019 -0.4830  0.4005
13357SOL     OW44881   6.684   2.846   0.563  0.5978  0.4535  0.6574
13357SOL    HW144882   6.596   2.873   0.591 -1.2005 -0.5732 -3.3663
13357SOL    HW244883   6.722   2.926   0.526  1.1444  0.7170  1.7335
13358SOL     OW44884   8.979   2.762   7.676  0.5799 -0.5107 -0.0308
13358SOL    HW144885   9.011   2.749   7.765  1.2106  0.6658 -0.0713
13358SOL    HW244886   8.971   2.857   7.666  0.9483 -0.5940 -1.3667
13359SOL     OW44887   7.313  10.379   7.258 -0.5558 -0.2326  0.0851
13359SOL    HW144888   7.254  10.433   7.205 -0.3269  1.0599  1.0890
13359SOL    HW244889   7.369  10.443   7.302  0.7411 -1.3843  0.1449
13360SOL     OW44890   7.427   5.563   2.645 -0.2949  0.0664 -0.1986
13360SOL    HW144891   7.340   5.530   2.622  0.4280 -0.9089 -1.7582
13360SOL    HW244892   7.424   5.657   2.623 -1.8284  0.7891  2.6288
13361SOL     OW44893   1.696   0.288   2.237  0.2148  0.2471  0.2549
13361SOL    HW144894   1.660   0.315   2.321  1.2209  2.1082  0.1552
13361SOL    HW244895   1.787   0.267   2.256  0.0687 -0.7730 -0.1290
13362SOL     OW44896   9.207  11.779   6.078 -0.4513 -0.5336 -0.0662
13362SOL    HW144897   9.230  11.867   6.109  0.8384 -0.8987  0.0509
13362SOL    HW244898   9.113  11.772   6.095 -0.5060  0.6891  0.2541
13363SOL     OW44899   2.875  12.243   9.451  0.2050  0.1633  0.6960
13363SOL    HW144900   2.965  12.235   9.482  0.1592  0.0669  0.8016
13363SOL    HW244901   2.866  12.335   9.426  0.9492 -0.2239 -1.1911
13364SOL     OW44902   9.238  12.012   8.517  0.1439 -0.3134  0.0161
13364SOL    HW144903   9.209  12.002   8.426 -0.1111 -2.0247  0.2549
13364SOL    HW244904   9.301  11.941   8.530  2.6632  1.8242  0.2582
13365SOL     OW44905  12.370   7.805   9.866  0.1134 -0.0540 -0.0904
13365SOL    HW144906  12.304   7.801   9.934  0.5285 -1.0949  0.2632
13365SOL    HW244907  12.359   7.892   9.828 -1.6859 -0.3261 -0.2911
13366SOL     OW44908  11.778   7.347  11.413 -0.6424  0.2815  0.4954
13366SOL    HW144909  11.852   7.403  11.390  1.1661 -2.4836 -0.9651
13366SOL    HW244910  11.708   7.409  11.435  1.2843  3.0689 -0.5442
13367SOL     OW44911   5.394   7.152   4.855  0.1447 -0.2976  0.0095
13367SOL    HW144912   5.330   7.083   4.866 -0.3957  0.3181  0.8645
13367SOL    HW244913   5.399   7.167   4.761 -1.5505  0.1823 -0.0230
13368SOL     OW44914   5.511   1.898   4.866 -0.1295 -0.5233 -0.2920
13368SOL    HW144915   5.495   1.980   4.818 -0.1473 -0.1760  0.2974
13368SOL    HW244916   5.580   1.919   4.928 -0.5627 -0.7781  0.2922
13369SOL     OW44917  12.377   6.082   1.853 -0.0148  0.2733  0.3360
13369SOL    HW144918  12.350   5.993   1.828 -0.4951  0.5445 -0.1368
13369SOL    HW244919  12.466   6.090   1.819 -0.4034  0.3848 -0.6854
13370SOL     OW44920   8.088  11.598   8.468 -0.5808 -0.0248  0.1902
13370SOL    HW144921   8.024  11.636   8.528  0.8030  0.8041  1.2001
13370SOL    HW244922   8.160  11.660   8.468  1.1235 -1.9081  0.7144
13371SOL     OW44923   5.836  11.949   0.494  0.8014 -0.6681 -0.0398
13371SOL    HW144924   5.774  11.921   0.427 -1.0284 -1.9948  2.0583
13371SOL    HW244925   5.885  11.869   0.516  0.1228 -0.7194  1.3978
13372SOL     OW44926  12.636   3.321   5.697 -0.1855 -0.0492 -0.2242
13372SOL    HW144927  12.573   3.350   5.763  1.0121  1.0862  0.4486
13372SOL    HW244928  12.596   3.345   5.614 -1.8305 -1.7251  0.0039
13373SOL     OW44929   0.024   1.503   3.852 -0.0001  0.0848  1.2432
13373SOL    HW144930  -0.055   1.491   3.799  0.0517 -1.6197  1.4984
13373SOL    HW244931   0.018   1.593   3.884 -0.7726  0.6653 -0.4306
13374SOL     OW44932  12.131   4.108   4.764 -0.5539 -0.0324  0.8657
13374SOL    HW144933  12.192   4.123   4.836  0.7556 -1.9252  0.2350
13374SOL    HW244934  12.100   4.195   4.740  2.0961  1.0691  1.0782
13375SOL     OW44935   1.316   1.684  12.336  0.3698 -0.3018  0.2377
13375SOL    HW144936   1.244   1.743  12.360 -0.7134 -0.9609 -1.2553
13375SOL    HW244937   1.365   1.733  12.270  0.2223 -0.5691 -0.0709
13376SOL     OW44938  11.288  11.905   2.002  0.2474 -0.0857  0.2859
13376SOL    HW144939  11.230  11.957   1.947 -0.3572 -1.3114 -0.2681
13376SOL    HW244940  11.229  11.855   2.058  0.7396 -1.5557 -0.4748
13377SOL     OW44941   0.283   9.211   6.344  0.2487 -0.2318  0.0414
13377SOL    HW144942   0.307   9.303   6.357  0.0205  0.0863 -1.5366
13377SOL    HW244943   0.225   9.190   6.417  1.7435  0.3064  1.4532
13378SOL     OW44944  11.315   5.076   4.043 -0.6118 -0.3223 -0.5297
13378SOL    HW144945  11.296   5.096   3.951 -1.1984 -1.0322 -0.5728
13378SOL    HW244946  11.242   5.020   4.071 -1.1213  0.9076  0.7388
13379SOL     OW44947  11.442  10.663   5.338 -0.3307 -0.4749 -0.3525
13379SOL    HW144948  11.537  10.652   5.331 -0.5283 -1.7418 -1.2293
13379SOL    HW244949  11.431  10.757   5.353  1.0170 -0.1643 -1.1188
13380SOL     OW44950   6.307   1.746  12.607  0.5065  0.0807  0.1962
13380SOL    HW144951   6.352   1.691  12.542 -1.7713 -0.8090 -0.7324
13380SOL    HW244952   6.261   1.812  12.555  0.2982  0.6446  1.0685
13381SOL     OW44953   8.165  10.186   9.156 -0.0214 -0.7362  0.3863
13381SOL    HW144954   8.082  10.145   9.134 -0.7271 -0.0045  1.5635
13381SOL    HW244955   8.212  10.192   9.073 -1.2676 -0.8919 -0.3523
13382SOL     OW44956   6.385   8.634   9.630 -0.1945  0.1859  0.5235
13382SOL    HW144957   6.324   8.599   9.566  2.1894  0.2470 -1.9573
13382SOL    HW244958   6.343   8.713   9.663 -1.2040  0.6036 -1.5975
13383SOL     OW44959  11.337   3.815   4.156 -0.1275 -0.6473  0.1494
13383SOL    HW144960  11.328   3.880   4.227 -0.3690 -0.5705  0.0494
13383SOL    HW244961  11.418   3.769   4.176  0.1399 -0.1942  0.1249
13384SOL     OW44962   6.196   4.987   7.325 -0.5911 -0.0384  0.1898
13384SOL    HW144963   6.181   5.078   7.351 -1.5856 -0.2056  0.2317
13384SOL    HW244964   6.277   4.990   7.274  0.1377  0.6481  1.3489
13385SOL     OW44965   0.211   2.908  11.420 -0.6695 -0.1427 -0.1160
13385SOL    HW144966   0.297   2.868  11.433 -1.0895 -0.9861  0.0996
13385SOL    HW244967   0.231   2.996  11.388  0.3061  0.0502  0.9303
13386SOL     OW44968   6.052   8.289  10.411  0.5101  0.2809  0.0236
13386SOL    HW144969   6.108   8.224  10.368  1.9931  2.2857 -1.2849
13386SOL    HW244970   6.009   8.335  10.340  0.2066  1.3305  0.8542
13387SOL     OW44971   4.373  10.381   0.445 -0.2286  0.3726  0.0054
13387SOL    HW144972   4.379  10.473   0.419 -2.3209  0.7268  0.5675
13387SOL    HW244973   4.282  10.370   0.475 -0.4508 -2.2260 -1.3214
13388SOL     OW44974   5.353   0.518  12.388 -0.1726 -0.6170  0.6418
13388SOL    HW144975   5.446   0.539  12.392  0.3788 -1.1211 -3.9109
13388SOL    HW244976   5.310   0.588  12.436  2.3966  1.9906 -0.5678
13389SOL     OW44977  10.825  10.567   8.355 -0.1011  0.3523  0.7246
13389SOL    HW144978  10.792  10.608   8.436  1.2560 -0.4164  1.7163
13389SOL    HW244979  10.918  10.589   8.354 -0.0983  0.3408 -0.6484
13390SOL     OW44980  12.088   5.205  10.841  0.3572 -0.2016 -1.0615
13390SOL    HW144981  12.055   5.277  10.787  1.8578  0.2717 -1.3997
13390SOL    HW244982  12.172   5.237  10.874  1.6034 -2.1761 -2.1248
13391SOL     OW44983  12.353  11.958   3.840  0.1874  0.2068  0.3557
13391SOL    HW144984  12.401  11.903   3.778  1.6395  0.6683  1.0110
13391SOL    HW244985  12.351  12.044   3.798  1.5583  0.6309  1.0732
13392SOL     OW44986   0.431   5.266   9.047 -0.2400 -0.2626  0.1479
13392SOL    HW144987   0.425   5.299   8.958 -0.2581 -3.6576 -1.2496
13392SOL    HW244988   0.365   5.316   9.096 -1.6801  0.2737 -2.2095
13393SOL     OW44989   9.166   1.337  10.824  0.1246  0.1975 -0.5599
13393SOL    HW144990   9.099   1.338  10.893  1.5964  0.1362  0.9129
13393SOL    HW244991   9.165   1.247  10.791 -0.2944  0.1131 -0.3255
13394SOL     OW44992   8.601  11.723   6.698  0.0987  0.2148 -0.3954
13394SOL    HW144993   8.587  11.648   6.755  0.2703 -0.3353 -1.0713
13394SOL    HW244994   8.654  11.689   6.626 -2.7433  0.1007 -2.5831
13395SOL     OW44995  10.977  12.020  10.423  0.2393 -0.0451 -0.2492
13395SOL    HW144996  10.897  11.968  10.428 -1.2256  1.9000 -1.7948
13395SOL    HW244997  11.011  12.004  10.335  1.3853 -0.5812  0.2696
13396SOL     OW44998   9.496   3.042   6.524  0.2558 -0.2345 -0.2797
13396SOL    HW144999   9.590   3.032   6.539  0.3366 -1.0620 -1.2600
13396SOL    HW245000   9.456   3.002   6.601  0.7037 -0.6081 -0.2328
13397SOL     OW45001   3.836   0.391  11.461  0.1512 -0.0003  0.2858
13397SOL    HW145002   3.760   0.442  11.431  0.8847  0.8588 -0.1798
13397SOL    HW245003   3.829   0.392  11.556 -1.1876 -1.1542  0.2291
13398SOL     OW45004   7.065   8.462   9.779  0.1379  0.4021  0.2614
13398SOL    HW145005   7.108   8.542   9.809  2.4230 -0.4438 -0.6120
13398SOL    HW245006   7.084   8.457   9.686 -0.9621 -0.5818  0.0630
13399SOL     OW45007  11.581  12.129   9.494 -0.3592  0.3846 -0.1418
13399SOL    HW145008  11.490  12.130   9.464 -0.7509  1.3567  0.9825
13399SOL    HW245009  11.632  12.144   9.415 -1.2187  0.5431 -0.6846
13400SOL     OW45010   8.439   3.071  10.398  0.0282 -0.4337  0.1715
13400SOL    HW145011   8.525   3.078  10.440 -0.0240 -1.1485  0.3989
13400SOL    HW245012   8.400   3.158  10.409  0.9171  0.0545 -0.3788
13401SOL     OW45013   5.196   1.440  10.754  0.6230  0.6453  0.2861
13401SOL    HW145014   5.104   1.421  10.772  0.4005 -0.0356 -1.3792
13401SOL    HW245015   5.198   1.535  10.739 -0.0199  0.5286 -0.6632
13402SOL     OW45016   9.668   5.123   4.918 -0.0572 -0.1209 -0.5517
13402SOL    HW145017   9.727   5.058   4.881 -1.0681 -2.9595  2.3430
13402SOL    HW245018   9.591   5.121   4.860  1.5972  1.9799 -3.0488
13403SOL     OW45019   9.545   9.104   2.865 -0.2948 -0.4437  0.1347
13403SOL    HW145020   9.532   9.011   2.849 -0.6931 -0.4020  0.2037
13403SOL    HW245021   9.629   9.125   2.823 -0.1377 -0.8609  0.2435
13404SOL     OW45022   0.758   4.735   7.496  0.4719  0.1825 -0.5812
13404SOL    HW145023   0.781   4.730   7.589 -2.3736 -1.2663  0.1514
13404SOL    HW245024   0.811   4.667   7.454 -1.1653 -2.0689  0.7761
13405SOL     OW45025   1.909  12.425  12.211  0.0092  0.5712  0.1071
13405SOL    HW145026   1.937  12.516  12.226  0.9376  0.1720  0.9899
13405SOL    HW245027   1.987  12.382  12.175 -1.1176  0.6378 -2.6518
13406SOL     OW45028   9.005  10.602  12.503 -0.0935  0.3053 -0.1433
13406SOL    HW145029   8.970  10.685  12.534 -0.6079  0.9274 -2.2210
13406SOL    HW245030   9.096  10.602  12.532 -0.3394  1.1546  0.6753
13407SOL     OW45031   9.649   1.740   0.979  0.0274 -0.3544  0.1529
13407SOL    HW145032   9.742   1.759   0.987  0.3530 -1.5011 -0.7163
13407SOL    HW245033   9.638   1.654   1.021 -0.2551 -1.1671 -1.5214
13408SOL     OW45034   9.535   1.032   7.559 -0.7225  0.0537  0.5694
13408SOL    HW145035   9.597   1.101   7.582  0.6797 -0.6487 -0.9033
13408SOL    HW245036   9.449   1.075   7.561 -0.0870  1.3331  1.5729
13409SOL     OW45037   3.091  10.174   2.041  0.0458 -0.1640 -0.7114
13409SOL    HW145038   3.044  10.093   2.062 -1.1354  0.6343 -0.1567
13409SOL    HW245039   3.122  10.206   2.126  1.2890 -0.4828 -1.0318
13410SOL     OW45040   9.855  12.386   1.792  0.0240  0.0162 -0.0590
13410SOL    HW145041   9.813  12.431   1.718 -1.4991  2.2626  1.9965
13410SOL    HW245042   9.866  12.296   1.762 -0.5132  0.8074 -2.9865
13411SOL     OW45043   8.463   0.203  11.667  0.0716 -0.0402  0.1745
13411SOL    HW145044   8.432   0.161  11.748 -0.4890  2.0797  1.1242
13411SOL    HW245045   8.550   0.235  11.690 -0.4166  1.2912  0.2370
13412SOL     OW45046   6.822   8.676   7.264  0.1682 -0.2853 -0.0954
13412SOL    HW145047   6.851   8.683   7.173  2.3661 -1.0923  0.4997
13412SOL    HW245048   6.770   8.755   7.278  2.6022  1.6259 -1.0864
13413SOL     OW45049   0.791   7.574   4.028 -0.2194 -0.6941 -0.0691
13413SOL    HW145050   0.868   7.574   4.085  1.4168 -0.4731 -2.1506
13413SOL    HW245051   0.779   7.483   4.003 -0.2580 -0.6406 -0.2450
13414SOL     OW45052   6.464   5.356   5.505  0.2376  0.2941  0.2359
13414SOL    HW145053   6.372   5.377   5.524  0.2720  0.1347  0.5902
13414SOL    HW245054   6.502   5.336   5.591  0.5643  0.2003  0.0700
13415SOL     OW45055  12.041  11.788   1.168  0.3330  0.3351 -0.8240
13415SOL    HW145056  11.992  11.712   1.202  1.8269 -0.5902 -0.6507
13415SOL    HW245057  12.082  11.755   1.088 -2.3736  2.2078 -3.2214
13416SOL     OW45058   0.136   8.706   1.056 -0.4722 -0.1566  0.0951
13416SOL    HW145059   0.161   8.649   0.983  0.0981 -0.5142  0.5607
13416SOL    HW245060   0.219   8.744   1.086 -0.9576  1.8853 -0.9729
13417SOL     OW45061   4.857   9.202   6.970  0.0417 -0.3956 -0.2181
13417SOL    HW145062   4.815   9.216   7.055  0.0339 -0.3888 -0.2232
13417SOL    HW245063   4.803   9.251   6.908  0.7450  0.6325 -0.0439
13418SOL     OW45064   6.065  12.206  10.062  0.3794 -0.2319 -0.3301
13418SOL    HW145065   6.140  12.233  10.115  1.7603 -0.3998 -2.1080
13418SOL    HW245066   6.055  12.276   9.997 -0.0645 -0.9088 -1.0174
13419SOL     OW45067   8.454   2.260  12.299 -0.0119 -0.1084 -0.1658
13419SOL    HW145068   8.413   2.201  12.235 -0.5446  1.6221 -1.5013
13419SOL    HW245069   8.470   2.205  12.376 -1.0367 -1.8287 -1.1206
13420SOL     OW45070   8.663   8.406   9.304  0.2582 -0.1844 -0.0566
13420SOL    HW145071   8.681   8.452   9.386  0.5905 -1.1206  0.4103
13420SOL    HW245072   8.570   8.422   9.287 -0.1306 -0.9962  1.1713
13421SOL     OW45073   9.574   7.428   7.853 -0.3939 -0.2776 -0.5311
13421SOL    HW145074   9.492   7.416   7.805  0.0455  1.8438 -1.9655
13421SOL    HW245075   9.613   7.506   7.814  2.5493 -1.4637 -0.2268
13422SOL     OW45076   2.789   5.175   3.569  0.2683 -0.3377  0.5303
13422SOL    HW145077   2.787   5.222   3.486  0.8853  0.6097  1.0270
13422SOL    HW245078   2.726   5.222   3.624  2.2056  1.1689  1.6331
13423SOL     OW45079   5.756   5.849   5.939 -0.2498  0.5976 -0.4827
13423SOL    HW145080   5.813   5.794   5.886  0.6251  0.4132  0.5933
13423SOL    HW245081   5.669   5.841   5.899 -0.1750 -1.6332 -0.3394
13424SOL     OW45082  12.616   8.613  12.367  0.7733 -0.8895  0.6410
13424SOL    HW145083  12.677   8.651  12.431  1.2032  0.8961 -0.7525
13424SOL    HW245084  12.673   8.571  12.302  0.8946  2.9158 -2.0396
13425SOL     OW45085   6.833  11.056   0.813  0.0698  0.7884  0.1856
13425SOL    HW145086   6.899  11.037   0.745 -0.2045 -0.7652  0.3048
13425SOL    HW245087   6.767  10.988   0.800 -1.0797  1.8019  0.6347
13426SOL     OW45088   8.796   4.402   1.819 -0.6424 -0.0810  0.0493
13426SOL    HW145089   8.724   4.358   1.864 -0.2809  0.2516  0.9683
13426SOL    HW245090   8.757   4.482   1.784 -1.1284 -0.7523 -1.0058
13427SOL     OW45091   3.594  12.524  11.948 -0.3046  0.0635  0.1837
13427SOL    HW145092   3.639  12.447  11.915  0.3584 -0.4413  2.1078
13427SOL    HW245093   3.610  12.523  12.042 -2.0142  1.4346  0.5542
13428SOL     OW45094   1.554   3.402   5.797  0.2839 -0.2448  0.1119
13428SOL    HW145095   1.481   3.433   5.851 -1.3813 -1.4570 -1.3390
13428SOL    HW245096   1.585   3.480   5.751 -0.7459  0.1356  0.0438
13429SOL     OW45097   0.928   0.272   2.551  0.2650 -0.0869  0.3070
13429SOL    HW145098   0.920   0.268   2.646 -0.7939  1.1254  0.2902
13429SOL    HW245099   0.929   0.180   2.523  0.6247 -0.4527  1.4857
13430SOL     OW45100   5.558   4.889   7.628 -0.1069 -0.0570 -0.0645
13430SOL    HW145101   5.493   4.960   7.620  0.6547  0.8917  1.6645
13430SOL    HW245102   5.641   4.931   7.607  0.3994 -0.3105  1.3408
13431SOL     OW45103   2.258   1.204  12.491  0.0501 -0.5318 -0.0825
13431SOL    HW145104   2.249   1.276  12.553  0.1283  0.0769 -0.7747
13431SOL    HW245105   2.187   1.217  12.428 -0.2684 -1.3691  0.0926
13432SOL     OW45106   8.423   4.762   4.249 -0.0139 -0.4154  0.8586
13432SOL    HW145107   8.347   4.769   4.191 -1.4050  0.2917  2.6887
13432SOL    HW245108   8.466   4.847   4.241  0.5756 -0.7841 -0.1083
13433SOL     OW45109   4.246   9.610  12.249 -0.0925  0.4371  0.6268
13433SOL    HW145110   4.197   9.595  12.168  1.9238 -1.6372 -0.3139
13433SOL    HW245111   4.327   9.653  12.221  1.0524 -1.1323  1.3447
13434SOL     OW45112   7.031  11.514   3.565  0.2064 -0.8912 -0.1855
13434SOL    HW145113   7.037  11.420   3.584 -0.3245 -1.2663 -1.7012
13434SOL    HW245114   6.988  11.518   3.479 -1.4734  0.8049  0.6733
13435SOL     OW45115   1.048  10.529  11.588  0.0805  0.1539  0.1257
13435SOL    HW145116   0.988  10.506  11.659  0.8472  0.0769  0.7695
13435SOL    HW245117   1.135  10.519  11.626  0.5359 -0.7177 -1.0840
13436SOL     OW45118  10.716   6.145   3.977 -0.0437  0.3774  0.0007
13436SOL    HW145119  10.714   6.156   3.882  0.4112  1.1669  0.0730
13436SOL    HW245120  10.670   6.063   3.992  0.3777 -0.0582 -0.9465
13437SOL     OW45121   8.011  10.685  10.938 -0.5764 -0.0123 -0.0754
13437SOL    HW145122   7.940  10.708  10.999 -0.1905 -2.3362  1.3753
13437SOL    HW245123   8.087  10.670  10.995 -0.0159 -1.6021 -1.1911
13438SOL     OW45124  11.805  11.634   1.225  0.5929 -0.4828  1.0960
13438SOL    HW145125  11.781  11.725   1.238 -1.1773 -0.9084  1.0623
13438SOL    HW245126  11.736  11.599   1.168  1.4899 -1.7270  0.7237
13439SOL     OW45127   0.553   4.109  11.356  0.1413 -0.1657 -0.0111
13439SOL    HW145128   0.617   4.113  11.285  0.1783 -0.5598 -0.0029
13439SOL    HW245129   0.468   4.113  11.312  0.1431  2.2479  0.0843
13440SOL     OW45130   8.349   2.467   9.467  0.2256 -0.2103 -0.1284
13440SOL    HW145131   8.357   2.507   9.554  1.5932  0.9757 -0.7449
13440SOL    HW245132   8.381   2.378   9.479  2.3682  0.5301  0.2359
13441SOL     OW45133   5.683  11.907   8.399 -0.1622 -0.4061 -0.1394
13441SOL    HW145134   5.674  12.002   8.402  0.6856 -0.3100 -0.3940
13441SOL    HW245135   5.604  11.874   8.441 -0.3798  0.4138  0.1105
13442SOL     OW45136   1.626   5.285   4.266 -0.3096  0.2958  0.1372
13442SOL    HW145137   1.553   5.233   4.232 -1.4904  0.5078  2.1932
13442SOL    HW245138   1.698   5.223   4.274 -0.7233 -0.2740 -0.4878
13443SOL     OW45139   1.972   2.728   4.451 -0.4196 -0.6625 -0.0736
13443SOL    HW145140   2.027   2.774   4.386  0.1127 -1.7098 -0.3848
13443SOL    HW245141   1.944   2.797   4.511  0.3270  0.0865 -0.5553
13444SOL     OW45142  11.329   8.853   8.786  0.0467  0.2607 -0.0014
13444SOL    HW145143  11.313   8.946   8.801  1.2326  0.4089  0.4799
13444SOL    HW245144  11.381   8.850   8.706  0.2388  0.0346  0.1292
13445SOL     OW45145   2.429   8.978   7.599 -0.2833  0.4232  0.2203
13445SOL    HW145146   2.345   8.937   7.621 -1.5098  2.8676  0.4723
13445SOL    HW245147   2.472   8.991   7.684 -0.4038  0.6322  0.2511
13446SOL     OW45148   1.653   7.724   1.137  0.5431  0.5402 -0.2497
13446SOL    HW145149   1.640   7.810   1.176  0.4609  0.8666 -0.9952
13446SOL    HW245150   1.565   7.692   1.117  0.6055  0.5120 -0.4763
13447SOL     OW45151   5.638   0.551  11.339  0.6951  0.0446  0.2565
13447SOL    HW145152   5.555   0.540  11.385  0.2344  1.8844 -0.0186
13447SOL    HW245153   5.672   0.463  11.327 -0.8267 -0.6865  1.1034
13448SOL     OW45154   7.865  10.785   7.030 -0.4920  0.1367  0.0124
13448SOL    HW145155   7.838  10.857   6.974 -0.3005 -0.3407 -0.7150
13448SOL    HW245156   7.789  10.726   7.031 -0.5115  0.1676  0.2936
13449SOL     OW45157   0.127   8.209  12.283 -0.0078  0.1380  0.3557
13449SOL    HW145158   0.114   8.289  12.231  1.2726  0.1823  0.0829
13449SOL    HW245159   0.210   8.223  12.328 -0.0151 -0.8506  0.6895
13450SOL     OW45160   6.393   7.537   0.532 -0.4927 -0.0356  0.0915
13450SOL    HW145161   6.342   7.611   0.565  0.1515  0.2724  0.4305
13450SOL    HW245162   6.429   7.568   0.449 -0.7979 -0.2256 -0.1118
13451SOL     OW45163   5.719  10.073   4.072  0.0658  0.4865 -0.1335
13451SOL    HW145164   5.678  10.146   4.119  1.1494  0.4357  0.9400
13451SOL    HW245165   5.646  10.016   4.048 -0.4879 -0.0094  2.4077
13452SOL     OW45166  10.929   2.699  11.236 -0.1793  0.3838  0.1540
13452SOL    HW145167  10.861   2.635  11.220  0.6358 -1.1808  2.4305
13452SOL    HW245168  10.934   2.706  11.331  1.9476  1.3887  0.0384
13453SOL     OW45169   2.924   5.042  10.841 -0.5333  0.5462 -0.1754
13453SOL    HW145170   2.905   5.132  10.869 -0.9239 -0.1411  1.9434
13453SOL    HW245171   2.840   4.997  10.847 -0.0982 -0.2579 -0.0400
13454SOL     OW45172   7.872   9.990   9.898 -0.3502  1.1933  0.0908
13454SOL    HW145173   7.844   9.979   9.807 -0.3232  1.6799  0.0190
13454SOL    HW245174   7.953   9.940   9.904 -1.6659 -0.9944  0.5449
13455SOL     OW45175  11.405   2.308   9.843  0.2732 -0.9157 -0.2255
13455SOL    HW145176  11.396   2.389   9.893 -2.2944 -0.9188 -0.5468
13455SOL    HW245177  11.404   2.335   9.751  0.0484 -1.2427 -0.3244
13456SOL     OW45178  11.902  12.577   2.538 -0.2487  0.1030 -0.0651
13456SOL    HW145179  11.980  12.575   2.482 -1.1679 -1.0596 -1.3936
13456SOL    HW245180  11.889  12.486   2.563 -1.0499  0.3166  0.3192
13457SOL     OW45181  11.764  12.371   5.668 -0.0267  0.0613  0.0681
13457SOL    HW145182  11.682  12.420   5.662 -0.5860 -0.8996 -0.3917
13457SOL    HW245183  11.740  12.282   5.645  0.6562 -0.7831  2.3106
13458SOL     OW45184   5.873  10.577  11.442  1.0751  0.0511  0.5721
13458SOL    HW145185   5.804  10.608  11.502 -1.2403 -1.7622 -0.9556
13458SOL    HW245186   5.902  10.494  11.480  1.4064  0.1385  0.5035
13459SOL     OW45187  12.398   8.283   5.391  0.1718 -0.0474 -0.2913
13459SOL    HW145188  12.342   8.281   5.469  0.2411 -0.8069 -0.2581
13459SOL    HW245189  12.474   8.230   5.414  0.6512  0.5165 -0.5394
13460SOL     OW45190   0.001   0.274   9.168  0.1894 -0.0435 -0.0271
13460SOL    HW145191  -0.057   0.311   9.234  1.5926  1.1806  0.5773
13460SOL    HW245192   0.076   0.334   9.166  0.2966 -0.1834 -2.5654
13461SOL     OW45193   6.741   0.603   0.567 -0.2553 -0.0419  0.3783
13461SOL    HW145194   6.786   0.554   0.498  0.1287 -0.6602  1.0652
13461SOL    HW245195   6.776   0.568   0.649 -0.6977  0.6995  0.8924
13462SOL     OW45196   3.822   8.231   3.432 -0.1691  0.3216 -0.2686
13462SOL    HW145197   3.773   8.179   3.369 -2.1331  1.6578  0.0772
13462SOL    HW245198   3.883   8.282   3.379 -0.6450  0.2058 -0.9368
13463SOL     OW45199   6.244   3.195   9.282 -0.1241 -0.4326  0.4407
13463SOL    HW145200   6.196   3.155   9.211 -0.3094  0.3685  0.1065
13463SOL    HW245201   6.187   3.265   9.314 -1.1780 -2.3345  3.0620
13464SOL     OW45202   5.727  10.587   8.519 -0.3975 -0.3560 -0.3331
13464SOL    HW145203   5.673  10.510   8.503  0.9772 -1.6309  0.9528
13464SOL    HW245204   5.692  10.625   8.600 -0.4097 -0.2128 -0.4048
13465SOL     OW45205   5.049   4.540   0.330 -0.4827 -0.0530 -0.3803
13465SOL    HW145206   4.989   4.611   0.352  0.3491  0.6167 -0.2078
13465SOL    HW245207   4.993   4.464   0.317 -1.2305  0.0515  1.8102
13466SOL     OW45208   5.481   8.058  10.061 -0.0452 -0.0819  0.0291
13466SOL    HW145209   5.427   7.983  10.034  0.3471 -0.2586 -0.2842
13466SOL    HW245210   5.434   8.096  10.135  0.5009 -1.5257  1.1620
13467SOL     OW45211   2.758   8.532  11.821 -0.0231  0.0229 -0.1807
13467SOL    HW145212   2.843   8.576  11.824  0.8686 -1.6831  0.7155
13467SOL    HW245213   2.702   8.584  11.879  0.5845  0.7906 -0.2649
13468SOL     OW45214   4.648   3.377   8.103 -0.1415 -0.1701  0.1590
13468SOL    HW145215   4.655   3.467   8.070 -1.4116  0.8477  2.3882
13468SOL    HW245216   4.653   3.322   8.025 -0.0729  1.8759 -1.3614
13469SOL     OW45217   2.536  12.631   1.156  0.6936 -0.4054 -0.0582
13469SOL    HW145218   2.620  12.604   1.193  0.8972  0.6374  0.2807
13469SOL    HW245219   2.553  12.716   1.117  0.3022 -1.1569 -1.9700
13470SOL     OW45220   3.608   0.577   6.727 -0.4482  0.2997 -0.0788
13470SOL    HW145221   3.564   0.493   6.714  1.1480 -0.5573 -0.2101
13470SOL    HW245222   3.690   0.554   6.771  0.7098  1.6107 -1.4710
13471SOL     OW45223   7.898  11.325   3.049 -0.7850 -0.3167 -0.0652
13471SOL    HW145224   7.877  11.252   2.992 -0.6636  0.4134 -1.0726
13471SOL    HW245225   7.850  11.399   3.013 -1.1855  0.0357  1.1412
13472SOL     OW45226   0.615   0.997  10.166  0.3112  0.2417  0.0642
13472SOL    HW145227   0.687   0.940  10.139  0.3840  0.3275  0.0764
13472SOL    HW245228   0.614   1.067  10.100 -0.0008  0.0383 -0.1506
13473SOL     OW45229  10.400   6.717   7.637  0.5353 -0.5202 -0.0989
13473SOL    HW145230  10.325   6.743   7.584  0.9917  1.2203  0.0550
13473SOL    HW245231  10.446   6.798   7.656  2.5917 -1.5416 -0.3500
13474SOL     OW45232   9.490   4.608   7.839  0.6621  0.1315  0.2034
13474SOL    HW145233   9.526   4.690   7.873  1.6244 -0.5527  0.8906
13474SOL    HW245234   9.566   4.558   7.812  0.1003 -0.6486  0.0443
13475SOL     OW45235   2.302   4.865  10.107  1.2270 -0.0451  0.1089
13475SOL    HW145236   2.332   4.838  10.194  0.4327 -0.7110  0.1775
13475SOL    HW245237   2.329   4.957  10.101  0.2963  0.3510  1.5056
13476SOL     OW45238   6.932   4.897  10.172  0.8755  0.1184  0.0971
13476SOL    HW145239   6.960   4.838  10.102  0.3780 -1.3771  1.1143
13476SOL    HW245240   7.011   4.913  10.223  1.1262  0.7954 -0.4848
13477SOL     OW45241  12.008   4.741  10.200 -0.3553  0.5049  0.3562
13477SOL    HW145242  11.947   4.815  10.204 -0.8563  0.0865  0.7246
13477SOL    HW245243  12.077   4.769  10.140 -1.9403  0.2477 -1.7124
13478SOL     OW45244   9.905   3.858   6.400 -0.0693  0.5811  0.5203
13478SOL    HW145245   9.882   3.869   6.308  0.4909  0.1183  0.3197
13478SOL    HW245246   9.823   3.872   6.447 -0.0893  2.1630  0.0557
13479SOL     OW45247  11.078   1.378   7.877  0.4148 -0.2024  0.2089
13479SOL    HW145248  11.109   1.382   7.787  1.2627 -0.8258  0.4596
13479SOL    HW245249  10.993   1.423   7.876  0.7167  0.3706 -0.7636
13480SOL     OW45250   1.823   2.086  10.171  0.3042 -0.3964  0.0351
13480SOL    HW145251   1.757   2.155  10.172 -0.1022 -0.7397  2.5250
13480SOL    HW245252   1.777   2.009  10.140 -0.7219 -0.8019  2.4217
13481SOL     OW45253  10.328   4.438   6.323 -0.3928  0.1875 -0.6815
13481SOL    HW145254  10.360   4.351   6.298 -0.1231  0.4442 -1.2410
13481SOL    HW245255  10.286   4.471   6.244 -1.1123  0.2840 -0.2610
13482SOL     OW45256   8.882   0.925  10.306  0.4851 -0.3235 -0.2863
13482SOL    HW145257   8.849   1.009  10.274  1.3997  0.3089  0.3954
13482SOL    HW245258   8.963   0.947  10.353  0.3061 -1.4888  0.6023
13483SOL     OW45259   9.584   0.121   0.281 -0.1026 -0.2742  0.0196
13483SOL    HW145260   9.532   0.201   0.277  0.3815  0.1514  1.6579
13483SOL    HW245261   9.541   0.062   0.218  0.2611  1.6430 -2.1469
13484SOL     OW45262   2.347   4.582  12.537  0.0097 -0.0834  0.2735
13484SOL    HW145263   2.427   4.568  12.588  0.5543  0.2889 -0.4623
13484SOL    HW245264   2.370   4.553  12.449 -0.1092  1.6191 -0.3552
13485SOL     OW45265   1.659   8.037   5.886  0.3976  0.4245  0.6509
13485SOL    HW145266   1.623   8.126   5.883 -0.7036 -0.0022 -1.7410
13485SOL    HW245267   1.722   8.035   5.814  1.0978 -0.4872  1.2684
13486SOL     OW45268   4.105   4.315   0.820  1.3281  0.6280  0.3001
13486SOL    HW145269   4.084   4.241   0.878 -0.7850  0.9396 -0.0221
13486SOL    HW245270   4.141   4.274   0.741  2.5380  0.1077  1.0958
13487SOL     OW45271  10.362   1.602  12.178 -0.3925  0.7969  0.1961
13487SOL    HW145272  10.343   1.612  12.084  1.2814  0.0558 -0.2596
13487SOL    HW245273  10.315   1.523  12.204  1.8141 -0.9633 -0.8853
13488SOL     OW45274   7.441   8.522  11.900  0.1182 -0.1106  0.2615
13488SOL    HW145275   7.453   8.570  11.818 -0.1760 -1.3321 -0.5230
13488SOL    HW245276   7.413   8.435  11.872 -1.7878 -0.0184  1.7169
13489SOL     OW45277   5.900   2.586   7.052 -0.4491  0.0832  0.0427
13489SOL    HW145278   5.967   2.550   6.994  0.1039  1.2408 -0.0747
13489SOL    HW245279   5.839   2.632   6.993 -0.8042 -0.1295  0.2382
13490SOL     OW45280   3.010  10.493   7.972 -0.3478  0.2618 -0.0725
13490SOL    HW145281   2.920  10.518   7.951 -0.5073  0.6561  0.9817
13490SOL    HW245282   3.058  10.576   7.973  0.1585 -0.0048 -1.1829
13491SOL     OW45283  10.710   2.525  11.239  0.4747  0.5256 -0.1505
13491SOL    HW145284  10.617   2.526  11.261  0.8450 -0.3796  1.6835
13491SOL    HW245285  10.718   2.459  11.170 -0.1215 -0.0025  0.2838
13492SOL     OW45286   0.877   2.752   4.279  0.3022 -0.3740  0.1872
13492SOL    HW145287   0.906   2.685   4.342  0.5084  0.1328  0.6440
13492SOL    HW245288   0.810   2.801   4.326  0.4232 -0.0211 -0.0045
13493SOL     OW45289   5.879   9.740   0.178 -0.4235  0.3362 -0.2074
13493SOL    HW145290   5.938   9.743   0.253  0.4837 -0.1555 -0.8962
13493SOL    HW245291   5.792   9.756   0.216 -0.2122 -1.4854  1.1807
13494SOL     OW45292   9.227   9.968  10.425 -0.2619  0.7009 -0.2455
13494SOL    HW145293   9.177   9.999  10.350 -0.8238  0.5347  0.0503
13494SOL    HW245294   9.161   9.938  10.487  0.1943  0.7916  0.2966
13495SOL     OW45295  10.021  12.448   7.003 -0.3197 -0.0907 -0.0647
13495SOL    HW145296  10.043  12.459   6.910 -0.8371 -0.1780 -0.2020
13495SOL    HW245297  10.066  12.520   7.047  0.1680 -0.2180 -0.3441
13496SOL     OW45298   6.466  11.898   9.264 -0.5269  0.2042  0.0792
13496SOL    HW145299   6.542  11.883   9.208 -0.7301 -2.2590  0.3468
13496SOL    HW245300   6.468  11.992   9.282  2.6234  0.2177  0.2972
13497SOL     OW45301   1.267   9.846  12.210 -0.1767  0.1119 -0.4162
13497SOL    HW145302   1.210   9.848  12.287 -0.6345  2.5069 -0.7275
13497SOL    HW245303   1.356   9.843  12.245 -0.3914 -2.5642  0.0900
13498SOL     OW45304   2.675   4.342  11.515  0.0056 -0.0718  0.3575
13498SOL    HW145305   2.594   4.307  11.553 -1.5285  1.4696 -1.2757
13498SOL    HW245306   2.654   4.434  11.496  1.2583 -0.2608 -2.4028
13499SOL     OW45307   9.090  12.505   0.412 -0.0208  0.1843 -0.0337
13499SOL    HW145308   9.035  12.583   0.418  0.6765  0.7620 -0.8413
13499SOL    HW245309   9.087  12.467   0.499 -0.5503  0.9958  0.3188
13500SOL     OW45310   3.134   5.749   7.396 -0.6737 -0.1821 -0.1308
13500SOL    HW145311   3.039   5.734   7.387 -0.5148 -0.3372 -1.7903
13500SOL    HW245312   3.174   5.673   7.353  0.2112 -0.0919  0.5130
13501SOL     OW45313   8.382   5.117   6.757 -0.3149 -0.1210  0.2637
13501SOL    HW145314   8.411   5.192   6.809 -0.9207  0.3213 -0.0296
13501SOL    HW245315   8.388   5.146   6.666 -0.7019 -0.3738  0.1558
13502SOL     OW45316   3.262   3.489  10.500 -0.2002  0.4656  0.0710
13502SOL    HW145317   3.313   3.430  10.445 -1.0444 -2.0500  1.8153
13502SOL    HW245318   3.233   3.435  10.573 -0.3598  3.2719  2.2704
13503SOL     OW45319   4.955  10.251   2.482 -0.1386  0.5699  0.5584
13503SOL    HW145320   5.044  10.218   2.496  0.8092  2.5386 -0.4190
13503SOL    HW245321   4.934  10.227   2.392 -2.0043 -2.7562  1.7018
13504SOL     OW45322   6.795   3.247   6.226 -0.5026 -0.9831  0.4379
13504SOL    HW145323   6.778   3.266   6.134 -0.6924  0.0697  0.6715
13504SOL    HW245324   6.868   3.305   6.249 -0.4551 -1.2421  0.9463
13505SOL     OW45325  12.570   3.878   6.722  0.7680 -0.0478  0.1070
13505SOL    HW145326  12.585   3.784   6.718  1.2121  0.0606 -1.2203
13505SOL    HW245327  12.475   3.887   6.714  0.8870 -0.3149 -2.6733
13506SOL     OW45328   5.220   9.554  10.265 -0.3148 -0.0369 -0.2686
13506SOL    HW145329   5.147   9.496  10.284  1.5204 -2.4019  0.0367
13506SOL    HW245330   5.277   9.547  10.341  0.6782  1.0177 -0.8773
13507SOL     OW45331  11.017   4.343  11.866  0.0096 -0.2431 -0.5752
13507SOL    HW145332  10.981   4.262  11.830  0.1897  0.1511 -1.6783
13507SOL    HW245333  10.941   4.399  11.881  0.0712  0.5353 -2.7728
13508SOL     OW45334   0.220  11.935   6.796 -0.3484  0.6685 -0.1317
13508SOL    HW145335   0.305  11.898   6.821  0.0053  0.2383 -1.8286
13508SOL    HW245336   0.156  11.882   6.842  0.2748  1.0200  1.2040
13509SOL     OW45337  11.817   0.472   0.229 -0.0907  0.3521 -0.5082
13509SOL    HW145338  11.894   0.440   0.181  0.0165 -0.5272  0.2295
13509SOL    HW245339  11.761   0.395   0.238  0.1126  0.3850  1.2057
13510SOL     OW45340  11.454  11.344   7.181 -0.7742 -0.0652  0.8823
13510SOL    HW145341  11.367  11.305   7.192 -1.2770  0.9394  0.5275
13510SOL    HW245342  11.514  11.279   7.219 -1.5389 -1.3691 -0.0505
13511SOL     OW45343   1.582   3.931  10.068  0.0792  0.2195 -1.2696
13511SOL    HW145344   1.578   4.004  10.006 -0.1142  2.0641  0.7716
13511SOL    HW245345   1.674   3.903  10.065  0.0911  0.3396 -2.3082
13512SOL     OW45346  11.523   8.905   3.551  0.7687  0.1041 -0.4317
13512SOL    HW145347  11.600   8.915   3.495  0.7760 -2.3170 -0.9587
13512SOL    HW245348  11.554   8.857   3.627 -0.1643 -0.8265 -0.6046
13513SOL     OW45349   7.348   8.028   2.114  0.0538  0.1749 -0.0708
13513SOL    HW145350   7.371   8.072   2.032  1.1256  1.6723  0.9853
13513SOL    HW245351   7.336   8.099   2.177 -0.2136 -0.9622  1.1999
13514SOL     OW45352   4.157   8.518   5.919 -0.4386  0.2442  0.0376
13514SOL    HW145353   4.148   8.460   5.995  0.4090  0.8636  0.6358
13514SOL    HW245354   4.121   8.602   5.949 -1.4541  0.1069 -0.7469
13515SOL     OW45355   8.112   4.469   4.650  0.0141 -0.1967 -0.1261
13515SOL    HW145356   8.086   4.383   4.683 -1.9826  0.1124 -0.7418
13515SOL    HW245357   8.130   4.455   4.557  0.1043 -0.0359 -0.1339
13516SOL     OW45358   4.892   0.074  10.311 -0.2670 -0.1419  0.1513
13516SOL    HW145359   4.823   0.007  10.310  0.1042 -0.5225 -1.3038
13516SOL    HW245360   4.972   0.024  10.327  0.1935 -0.2662 -2.2788
13517SOL     OW45361   1.338   4.069   2.901 -0.1860  0.3370 -0.2861
13517SOL    HW145362   1.261   4.113   2.937 -0.5144  0.6908 -1.3785
13517SOL    HW245363   1.407   4.135   2.904 -0.5477  0.7936 -1.4569
13518SOL     OW45364   2.238   2.242   0.863 -0.0804 -0.7055 -0.3858
13518SOL    HW145365   2.301   2.204   0.925 -0.7314 -0.1403  0.6650
13518SOL    HW245366   2.173   2.173   0.850 -0.2994 -0.5988  0.1073
13519SOL     OW45367  12.526   3.167   2.186 -0.0228 -0.0264  0.2295
13519SOL    HW145368  12.604   3.185   2.135 -0.1173  0.4945  0.2690
13519SOL    HW245369  12.530   3.073   2.203  1.7054  0.3034  2.0143
13520SOL     OW45370   0.149   5.958   8.582 -0.1312 -0.2734  0.2410
13520SOL    HW145371   0.217   5.903   8.620 -1.0451 -0.8274  1.1194
13520SOL    HW245372   0.190   5.997   8.504  0.9995 -1.0163  0.4441
13521SOL     OW45373   7.259   8.417   2.133 -0.5181  0.6040 -0.4801
13521SOL    HW145374   7.296   8.492   2.181 -1.6462  0.7633  0.1645
13521SOL    HW245375   7.243   8.351   2.200  1.5749 -0.7417 -1.1869
13522SOL     OW45376   5.568   0.147  10.512  0.6497 -0.4590  0.2613
13522SOL    HW145377   5.527   0.168  10.428 -0.9693 -1.7634  0.6667
13522SOL    HW245378   5.648   0.100  10.488  1.2759  0.9250 -0.5353
13523SOL     OW45379   9.205   1.107   4.404 -0.0588  0.0231  0.3559
13523SOL    HW145380   9.298   1.127   4.401  0.1335 -0.9143 -0.9306
13523SOL    HW245381   9.173   1.151   4.482  1.1156  1.8318 -0.1211
13524SOL     OW45382   3.394   7.838   0.562  0.9502 -0.3528  0.3993
13524SOL    HW145383   3.326   7.795   0.613 -0.2997 -1.5463 -2.0930
13524SOL    HW245384   3.397   7.927   0.596 -1.7212 -0.3234  0.7796
13525SOL     OW45385   2.555  10.901  10.561 -0.5418  0.3684  0.0502
13525SOL    HW145386   2.522  10.906  10.471 -0.0226  1.8936 -0.0833
13525SOL    HW245387   2.481  10.929  10.615 -0.9873 -0.9449  0.1578
13526SOL     OW45388  11.732  10.531  10.260 -0.1266 -0.2560  0.2105
13526SOL    HW145389  11.655  10.516  10.204  0.3387  0.2917 -0.6033
13526SOL    HW245390  11.713  10.483  10.340 -0.4459 -1.7661 -0.7261
13527SOL     OW45391   3.832  10.774   8.334  0.0792  0.0058 -0.0955
13527SOL    HW145392   3.866  10.693   8.295  1.2309 -0.2529  1.3683
13527SOL    HW245393   3.905  10.836   8.328 -0.1727  0.3628  0.4427
13528SOL     OW45394   6.583   4.205   9.717 -0.0160 -0.6626  0.2560
13528SOL    HW145395   6.494   4.223   9.686  0.1220 -0.8280 -0.2355
13528SOL    HW245396   6.621   4.291   9.734 -0.5014 -0.6063  1.1393
13529SOL     OW45397   0.824  11.329   6.505 -0.5569  0.0875 -0.5391
13529SOL    HW145398   0.820  11.241   6.542 -0.5318  1.2029  2.4305
13529SOL    HW245399   0.738  11.344   6.467 -0.8422 -0.8980 -0.3072
13530SOL     OW45400   7.499  10.134   6.971 -0.4297 -0.2612  0.2409
13530SOL    HW145401   7.436  10.092   7.030  0.0942  0.9585  1.7170
13530SOL    HW245402   7.547  10.061   6.931 -1.3705 -1.1337  0.6692
13531SOL     OW45403   4.352   2.397  11.858  0.6732 -0.8528 -0.3893
13531SOL    HW145404   4.413   2.350  11.915 -0.4594 -0.1136  1.5013
13531SOL    HW245405   4.371   2.489  11.873 -1.3561 -0.5671  0.8505
13532SOL     OW45406   7.986   4.499   3.499 -0.0586  0.6707  0.3518
13532SOL    HW145407   8.011   4.410   3.475  0.9579  0.8824  0.5683
13532SOL    HW245408   7.890   4.500   3.495 -0.1115 -0.6111  0.9820
13533SOL     OW45409  11.816  11.611  12.355  0.1010 -0.4289  0.2195
13533SOL    HW145410  11.742  11.557  12.327 -0.0757 -0.1927  0.2266
13533SOL    HW245411  11.891  11.576  12.307 -0.0671 -0.4901 -0.0006
13534SOL     OW45412   4.016   2.745   0.374  0.1965  0.4739  0.2147
13534SOL    HW145413   4.049   2.799   0.303  2.1132  0.4208  1.0216
13534SOL    HW245414   4.006   2.658   0.335  0.9032  0.5222 -0.0834
13535SOL     OW45415  12.362   7.520  11.060  0.1253 -0.2704 -0.3862
13535SOL    HW145416  12.343   7.512  10.966 -0.5184  0.1864 -0.2982
13535SOL    HW245417  12.408   7.604  11.068  0.3048 -0.3754 -0.3078
13536SOL     OW45418   9.407   5.693   9.430  0.0773 -0.0824 -0.1773
13536SOL    HW145419   9.349   5.617   9.427  0.8838 -0.6676 -1.7282
13536SOL    HW245420   9.482   5.664   9.481  0.1176 -0.1107 -0.2540
13537SOL     OW45421   7.604   4.064   5.545  0.1644  0.4645  0.1734
13537SOL    HW145422   7.512   4.043   5.533  0.6540 -2.1558  0.4350
13537SOL    HW245423   7.609   4.105   5.631 -0.8081  1.2501 -0.1293
13538SOL     OW45424   8.984  12.402   4.903  0.4130 -0.0394 -0.0350
13538SOL    HW145425   9.020  12.355   4.828  0.2582  0.2781 -0.3062
13538SOL    HW245426   8.959  12.333   4.964 -0.2453 -0.3246 -0.6236
13539SOL     OW45427   7.629   4.945   7.504 -0.2316  0.5369 -0.1547
13539SOL    HW145428   7.567   4.909   7.566 -1.2582  0.8240 -0.9861
13539SOL    HW245429   7.656   4.870   7.451 -0.3897  0.5265 -0.2221
13540SOL     OW45430   1.970   9.255   1.605 -0.3845  0.2627  0.5655
13540SOL    HW145431   1.946   9.179   1.658  3.1699 -1.3196  0.2258
13540SOL    HW245432   1.964   9.223   1.515  0.0786  0.7508  0.3627
13541SOL     OW45433   8.800   4.283   7.225 -0.2129 -0.2572  0.5581
13541SOL    HW145434   8.804   4.199   7.272 -0.8180 -1.1605 -0.9426
13541SOL    HW245435   8.813   4.260   7.133 -0.8500  1.2568  0.0575
13542SOL     OW45436   2.522   7.539   6.821 -0.1407  0.2440  0.0413
13542SOL    HW145437   2.456   7.609   6.818 -0.8307 -0.2804  1.6924
13542SOL    HW245438   2.516   7.497   6.735 -0.7350  1.2918 -0.4599
13543SOL     OW45439   9.683   7.523   0.757  0.4184  0.1861  0.4883
13543SOL    HW145440   9.762   7.489   0.798  0.1245  2.0792  2.8834
13543SOL    HW245441   9.669   7.608   0.799  0.6609  3.0329 -4.4409
13544SOL     OW45442   0.739   5.849   0.072  0.2121  0.5247 -0.1229
13544SOL    HW145443   0.649   5.879   0.085  0.3074  0.3169  1.0681
13544SOL    HW245444   0.781   5.922   0.026 -0.5458  0.6388 -0.6616
13545SOL     OW45445   7.532   9.157   2.530 -0.1431 -0.3161  0.1842
13545SOL    HW145446   7.460   9.220   2.521 -0.5355 -0.6563  0.8502
13545SOL    HW245447   7.554   9.133   2.440  1.5082  2.3957 -0.2323
13546SOL     OW45448   1.536   3.003   1.826 -0.4816  0.3197 -0.3717
13546SOL    HW145449   1.577   2.917   1.817 -1.4674 -0.1337 -0.6552
13546SOL    HW245450   1.447   2.991   1.792 -1.0565  1.1145  0.7769
13547SOL     OW45451   6.592   4.898   3.048 -0.7681  0.0023  0.0601
13547SOL    HW145452   6.563   4.968   2.989 -0.1034  0.5585  0.3869
13547SOL    HW245453   6.595   4.820   2.992 -1.0479  0.3273 -0.4217
13548SOL     OW45454  11.537   0.378   3.089 -0.2345 -0.0556  0.5899
13548SOL    HW145455  11.539   0.370   2.993  1.0506 -2.1419  0.7286
13548SOL    HW245456  11.540   0.288   3.121 -2.3489  0.5128  2.6354
13549SOL     OW45457   7.103   4.137   7.441 -0.0480 -0.4685 -0.3673
13549SOL    HW145458   7.048   4.211   7.467  0.2244 -0.1312 -0.7245
13549SOL    HW245459   7.085   4.125   7.347  2.4934  1.4779 -1.2379
13550SOL     OW45460   1.189   3.908   7.746 -0.7961 -0.6014  0.0678
13550SOL    HW145461   1.166   3.979   7.806  0.1135  0.7193 -1.0795
13550SOL    HW245462   1.115   3.903   7.685 -0.2041  0.4135 -0.7579
13551SOL     OW45463   9.469   7.353  10.371  0.0635 -0.1749  0.3329
13551SOL    HW145464   9.554   7.379  10.405 -0.5077  0.1205  1.6291
13551SOL    HW245465   9.443   7.423  10.312 -0.4353  1.1076  1.9994
13552SOL     OW45466  10.829   7.286   1.549  0.1451 -0.7369 -0.1918
13552SOL    HW145467  10.915   7.283   1.506 -0.7960 -0.3050 -2.2211
13552SOL    HW245468  10.767   7.262   1.481 -1.4748  0.1544  0.8988
13553SOL     OW45469   9.068   8.620   4.882  0.5205  0.3101 -0.3094
13553SOL    HW145470   9.056   8.678   4.957  0.5170 -0.6657  0.4755
13553SOL    HW245471   9.133   8.556   4.911  0.1967 -0.3416 -0.9729
13554SOL     OW45472   7.971   7.406   1.211 -0.0450 -0.5301  0.4908
13554SOL    HW145473   8.054   7.365   1.236  0.6009  0.3678 -0.1462
13554SOL    HW245474   7.959   7.477   1.274  3.4723  4.2364 -3.4566
13555SOL     OW45475   4.162   3.532   4.671  0.1034  0.0330 -0.2164
13555SOL    HW145476   4.160   3.438   4.654  1.1529  0.0887 -0.7077
13555SOL    HW245477   4.084   3.566   4.627 -0.4435 -0.6368  0.2145
13556SOL     OW45478  10.763   3.830   7.978 -0.9040  0.0415 -0.5930
13556SOL    HW145479  10.824   3.791   7.915 -0.2742  0.6668 -0.3817
13556SOL    HW245480  10.761   3.923   7.955 -1.2024  0.1555 -0.1195
13557SOL     OW45481   2.689   5.650   0.748 -0.4566  0.6348 -0.3277
13557SOL    HW145482   2.701   5.594   0.672 -2.5815  0.4437 -0.5888
13557SOL    HW245483   2.698   5.591   0.823 -1.3568  0.1738 -0.5602
13558SOL     OW45484   0.979   7.626  11.553 -0.3122  0.0160  0.2519
13558SOL    HW145485   1.067   7.592  11.571 -0.2739 -0.9004 -1.4501
13558SOL    HW245486   0.921   7.552  11.568 -0.8201  0.6142  1.3462
13559SOL     OW45487   4.381   1.499   8.773  0.4856  0.4455 -0.1477
13559SOL    HW145488   4.428   1.416   8.781 -0.1417 -0.0720 -1.4766
13559SOL    HW245489   4.371   1.530   8.863  1.5325 -0.4572  0.3017
13560SOL     OW45490  11.108   7.748  12.196 -0.0442  0.1853 -0.0155
13560SOL    HW145491  11.020   7.759  12.160 -0.8871  0.2756  1.9320
13560SOL    HW245492  11.118   7.822  12.257  0.7149 -0.7121  0.9966
13561SOL     OW45493   0.786   2.573   7.718  0.1029  0.2040 -0.1263
13561SOL    HW145494   0.732   2.652   7.726  0.5613  0.5532 -0.5049
13561SOL    HW245495   0.869   2.604   7.684  0.1629 -0.4962 -0.6192
13562SOL     OW45496   5.953   8.871   4.671  0.4596 -0.0749 -0.1368
13562SOL    HW145497   5.971   8.854   4.763 -0.1794 -0.4499 -0.0699
13562SOL    HW245498   5.989   8.796   4.625  0.9361  0.1977 -0.2158
13563SOL     OW45499  10.590  11.861   6.681  0.2410 -0.1268  0.0844
13563SOL    HW145500  10.669  11.810   6.665  0.4661 -0.0208  0.8174
13563SOL    HW245501  10.615  11.951   6.664  0.6920  0.0755  1.6811
13564SOL     OW45502   8.680   6.004   1.159 -0.0783  0.4665 -0.4581
13564SOL    HW145503   8.733   5.930   1.189 -1.0806 -0.6772 -1.3772
13564SOL    HW245504   8.596   5.992   1.203 -0.7537  0.1555 -1.7834
13565SOL     OW45505   5.960   1.406   9.443  0.3620  0.6251 -0.5358
13565SOL    HW145506   5.975   1.360   9.360  2.0864 -0.2297  0.1788
13565SOL    HW245507   5.926   1.338   9.502  0.1359  0.9719 -0.2658
13566SOL     OW45508  12.142   7.127   9.630 -0.1786  0.2171 -0.1572
13566SOL    HW145509  12.090   7.047   9.624  0.1043  0.1126 -1.4461
13566SOL    HW245510  12.126   7.159   9.719 -1.8073 -0.2370 -0.2470
13567SOL     OW45511   1.572   4.772   5.684  0.2896 -0.1427  0.2724
13567SOL    HW145512   1.617   4.695   5.648  1.2050  0.2745  0.4841
13567SOL    HW245513   1.563   4.753   5.778  0.3908 -0.0620  0.2997
13568SOL     OW45514   8.994   0.772  11.988  0.0140  0.1623  0.2560
13568SOL    HW145515   8.941   0.844  12.023  1.9718  1.4571  0.7506
13568SOL    HW245516   8.951   0.748  11.906  0.2461  3.1464 -0.8643
13569SOL     OW45517  12.250  10.752   7.214  0.1740  0.4946  0.0431
13569SOL    HW145518  12.246  10.759   7.119 -0.8234 -1.7513 -0.1462
13569SOL    HW245519  12.343  10.759   7.235  0.3918  1.0844 -1.0924
13570SOL     OW45520   9.801   9.791   2.545  0.1620 -0.2314  0.3723
13570SOL    HW145521   9.709   9.809   2.566  0.3106  1.0071  0.0428
13570SOL    HW245522   9.816   9.835   2.462  0.8609 -1.0654  0.0446
13571SOL     OW45523   7.930   3.513   5.352  0.0926 -0.2969 -0.1231
13571SOL    HW145524   7.968   3.597   5.379 -0.1923 -0.4342  0.7375
13571SOL    HW245525   7.925   3.519   5.257  2.6181 -0.4374 -0.3185
13572SOL     OW45526   5.051   1.267   0.531 -0.5043 -0.1330  0.1179
13572SOL    HW145527   5.103   1.312   0.597  0.5334 -1.0910 -0.0265
13572SOL    HW245528   4.963   1.303   0.541  0.0146  0.9685  0.8667
13573SOL     OW45529   7.494   5.614  11.211 -0.1307  0.2960  0.5455
13573SOL    HW145530   7.445   5.649  11.286 -1.1265 -0.7092  0.3854
13573SOL    HW245531   7.454   5.656  11.135 -2.1032 -1.8915  0.2522
13574SOL     OW45532   6.300   7.898  12.104 -0.1397  0.0448  0.2882
13574SOL    HW145533   6.353   7.923  12.179 -0.8292  1.0720  0.4429
13574SOL    HW245534   6.348   7.932  12.028  0.2980 -0.5566  0.2848
13575SOL     OW45535   4.222  10.364  10.114 -0.3362  0.2520  0.1276
13575SOL    HW145536   4.235  10.270  10.130  0.5488  0.5061  0.9913
13575SOL    HW245537   4.272  10.381  10.034  0.7659  0.2632  0.7944
13576SOL     OW45538   9.747   4.321   1.697 -0.5036 -0.0738 -0.2491
13576SOL    HW145539   9.829   4.342   1.652 -0.3486 -0.3631 -0.1095
13576SOL    HW245540   9.757   4.360   1.784  0.4259 -1.9581  0.5538
13577SOL     OW45541   1.726   1.441   4.701 -1.0435 -0.3528  0.0297
13577SOL    HW145542   1.778   1.495   4.761  0.2103 -0.4905 -0.9040
13577SOL    HW245543   1.783   1.367   4.680 -1.1066  0.1186 -1.9784
13578SOL     OW45544  10.450   7.611   6.060 -0.3492  0.5230  0.2085
13578SOL    HW145545  10.412   7.611   5.973 -0.6860  0.0807  0.3548
13578SOL    HW245546  10.416   7.533   6.102  1.1819 -0.2194  0.1476
13579SOL     OW45547   3.691   3.466   2.706  0.2934  0.2904  0.4966
13579SOL    HW145548   3.623   3.462   2.773  2.3386 -0.7720  2.6541
13579SOL    HW245549   3.692   3.558   2.678 -0.3351  0.8775  2.2832
13580SOL     OW45550   7.064  11.150   8.965  1.0985  0.4470  0.0913
13580SOL    HW145551   7.041  11.057   8.971 -0.2338  0.6514 -1.1626
13580SOL    HW245552   7.160  11.151   8.965  1.1733 -0.7530  2.0246
13581SOL     OW45553   8.894   4.893   4.771 -0.1788  0.3636 -0.0991
13581SOL    HW145554   8.880   4.914   4.679 -1.5753 -1.2701 -0.3170
13581SOL    HW245555   8.855   4.967   4.819 -0.8393  0.4870 -0.8168
13582SOL     OW45556   8.200   0.320   3.745 -0.4007 -0.0638  0.3544
13582SOL    HW145557   8.137   0.358   3.684 -0.1101 -0.3982 -0.1651
13582SOL    HW245558   8.278   0.375   3.735 -0.8600  0.8724  1.6118
13583SOL     OW45559   1.412  11.542   6.070  0.1464 -0.3073  0.2374
13583SOL    HW145560   1.378  11.595   6.143 -1.1841  0.0949 -0.6460
13583SOL    HW245561   1.401  11.452   6.099  0.3805 -0.1448  0.8620
13584SOL     OW45562   9.920   3.227   3.435 -0.1040 -0.5461  0.0757
13584SOL    HW145563  10.006   3.268   3.447 -0.8516  0.8354  0.8830
13584SOL    HW245564   9.923   3.150   3.493  0.7408 -0.7771 -0.2530
13585SOL     OW45565  10.821  11.622   7.239 -0.0811 -0.1182  0.2382
13585SOL    HW145566  10.748  11.684   7.236 -0.3409 -0.4357 -0.1337
13585SOL    HW245567  10.780  11.538   7.259  0.2613 -0.1861  0.6632
13586SOL     OW45568   0.141  10.270   5.388  0.0463 -0.1223 -0.1863
13586SOL    HW145569   0.100  10.267   5.475  0.0899 -0.0062 -0.1614
13586SOL    HW245570   0.227  10.309   5.404  0.7960 -1.8017  0.0080
13587SOL     OW45571  10.141   2.559   3.074 -0.0761  0.2261 -0.1171
13587SOL    HW145572  10.102   2.624   3.017  0.4613  1.6798  1.1046
13587SOL    HW245573  10.180   2.494   3.015 -0.1367  1.3066 -1.3700
13588SOL     OW45574  11.412   1.037   9.545 -0.3830 -0.6425 -0.5230
13588SOL    HW145575  11.357   1.046   9.622 -0.5462  1.3919 -0.8164
13588SOL    HW245576  11.384   0.955   9.505 -0.6788 -1.4467  1.2620
13589SOL     OW45577   2.260   8.549   3.438 -0.4838  0.8599  0.2188
13589SOL    HW145578   2.189   8.542   3.502  0.0025  1.1227  0.7960
13589SOL    HW245579   2.240   8.627   3.387 -1.0816  0.4328 -0.2200
13590SOL     OW45580  12.089  11.865  12.143  0.0013  0.5235 -0.3104
13590SOL    HW145581  12.124  11.932  12.202  2.4684  0.5954 -1.7059
13590SOL    HW245582  12.050  11.914  12.071 -1.5673  0.4209  0.4275
13591SOL     OW45583  11.826   4.090   9.296  0.7369 -0.0659  0.7958
13591SOL    HW145584  11.732   4.098   9.279  0.3274 -0.8273  2.4877
13591SOL    HW245585  11.865   4.077   9.210 -0.5680  1.3128 -0.0526
13592SOL     OW45586  10.539  12.316  10.396  0.2153  0.0343  0.4083
13592SOL    HW145587  10.483  12.246  10.430 -1.3456  0.5045 -1.0663
13592SOL    HW245588  10.501  12.339  10.311  2.8726  0.1670 -0.8572
13593SOL     OW45589  10.964   1.008   9.653 -1.1444 -0.0857  0.0384
13593SOL    HW145590  10.877   1.048   9.654 -0.5818  1.2365 -0.6859
13593SOL    HW245591  10.948   0.914   9.655 -2.6776  0.0719 -2.1963
13594SOL     OW45592   8.033   0.107  11.002 -0.1712  0.1095  0.3800
13594SOL    HW145593   7.961   0.163  11.033 -1.9959 -0.9002 -1.6968
13594SOL    HW245594   8.045   0.042  11.071 -0.7500  0.7530  1.0952
13595SOL     OW45595   5.036   5.301   4.562 -0.3535 -0.7952  0.3852
13595SOL    HW145596   5.065   5.262   4.645 -0.1935  1.3702  1.4134
13595SOL    HW245597   5.039   5.395   4.577  0.1759 -0.3024 -2.2797
13596SOL     OW45598   1.390  11.724   0.878  0.0004  0.1023 -0.7406
13596SOL    HW145599   1.311  11.671   0.873  0.3509 -0.9239  2.2730
13596SOL    HW245600   1.428  11.719   0.790 -2.2917 -0.9057 -1.7615
13597SOL     OW45601  10.776   8.797   8.393  0.1861  0.5172 -0.6869
13597SOL    HW145602  10.696   8.755   8.426  0.6106 -0.5657 -0.9829
13597SOL    HW245603  10.764   8.799   8.298  0.6843 -0.0339 -0.7651
13598SOL     OW45604  12.155   6.092   2.258  0.1286  0.5175  0.8626
13598SOL    HW145605  12.185   6.144   2.183 -1.3638  0.4277  0.1670
13598SOL    HW245606  12.231   6.038   2.281  0.0300 -1.0392 -2.0135
13599SOL     OW45607   5.193  10.662   4.977 -0.2915  0.0407 -0.2911
13599SOL    HW145608   5.196  10.577   5.020 -0.5099  0.6542  0.9807
13599SOL    HW245609   5.255  10.716   5.025 -2.6186  1.5908  1.2090
13600SOL     OW45610  11.855   6.232   1.110 -0.1269 -0.4087 -0.6308
13600SOL    HW145611  11.920   6.181   1.061  0.8518  0.3836 -0.1735
13600SOL    HW245612  11.812   6.286   1.043 -0.9834 -1.5806 -1.0781
13601SOL     OW45613  11.657   6.671  12.549 -0.0017  0.4573 -0.1334
13601SOL    HW145614  11.698   6.752  12.580  0.7822  0.2315 -0.5368
13601SOL    HW245615  11.686   6.664  12.458 -0.4684 -0.0206 -0.2468
13602SOL     OW45616   5.048   3.712   3.641 -0.1082 -0.2327  0.4517
13602SOL    HW145617   5.020   3.783   3.698  0.5625 -0.1768  0.7184
13602SOL    HW245618   5.000   3.635   3.672 -0.1805 -0.0786  0.7185
13603SOL     OW45619   1.954   9.191  10.116  0.1682 -0.2974 -0.0158
13603SOL    HW145620   2.026   9.129  10.115  1.8572  1.5003  1.6255
13603SOL    HW245621   1.894   9.158  10.182  0.6335 -0.6042  0.2567
13604SOL     OW45622   9.927  10.280   3.975  0.4309 -0.2904  0.0574
13604SOL    HW145623   9.965  10.266   4.062  0.2872 -0.5630  0.0786
13604SOL    HW245624   9.938  10.196   3.930 -1.7806 -1.0043  0.6979
13605SOL     OW45625  10.930  11.316   1.743 -0.1862 -0.2241 -0.2090
13605SOL    HW145626  10.853  11.261   1.726 -0.5779  0.3334 -0.2615
13605SOL    HW245627  10.969  11.329   1.657  0.5468 -1.3321 -0.0627
13606SOL     OW45628  11.610   3.132   4.422  0.1256  0.0673  0.0835
13606SOL    HW145629  11.653   3.072   4.484  1.0454  0.1428 -0.4613
13606SOL    HW245630  11.530   3.086   4.396  0.8615 -0.9959 -0.4104
13607SOL     OW45631   8.414   6.554   8.528 -0.5284 -0.3485 -0.2709
13607SOL    HW145632   8.443   6.626   8.585  0.5698 -0.5345 -0.5747
13607SOL    HW245633   8.462   6.478   8.560 -0.0984 -0.5129 -1.2542
13608SOL     OW45634   2.665   7.585   2.076  0.1088 -0.0585  0.5715
13608SOL    HW145635   2.738   7.528   2.101  1.2311  0.4843 -1.2534
13608SOL    HW245636   2.707   7.663   2.040 -1.3635  0.0831 -0.9600
13609SOL     OW45637   7.079   4.230   2.638  0.1678  0.0962 -0.1412
13609SOL    HW145638   7.142   4.301   2.625  0.4022  0.2229  1.5404
13609SOL    HW245639   7.129   4.151   2.619  0.3605  0.2795 -0.4231
13610SOL     OW45640   3.928   9.642   3.206 -0.4712 -0.6425  0.0770
13610SOL    HW145641   3.876   9.656   3.127 -2.0982 -0.8557  1.0629
13610SOL    HW245642   3.882   9.571   3.253 -0.1191  0.1299  1.6639
13611SOL     OW45643  11.164   2.595   2.839  0.3673 -0.3804 -0.1063
13611SOL    HW145644  11.149   2.501   2.828 -1.4353 -0.2545  1.0233
13611SOL    HW245645  11.234   2.601   2.905  2.4025 -0.9002 -2.0750
13612SOL     OW45646   6.150   9.986   3.513 -0.3089  1.2905  0.2593
13612SOL    HW145647   6.118  10.015   3.427 -0.2347  1.6263  0.3422
13612SOL    HW245648   6.229  10.038   3.528  1.9890 -1.4642 -1.1977
13613SOL     OW45649  11.310   1.471   8.895 -0.0671 -0.3646  0.0811
13613SOL    HW145650  11.286   1.527   8.821  0.4155 -0.7045 -0.3395
13613SOL    HW245651  11.338   1.532   8.963  2.8439 -0.0807 -1.1885
13614SOL     OW45652   9.744   0.673   3.314  0.0940  0.1281 -0.1272
13614SOL    HW145653   9.762   0.585   3.280 -0.6622  0.4742 -1.5143
13614SOL    HW245654   9.767   0.731   3.241 -0.6999  0.9796  0.2834
13615SOL     OW45655   9.610   3.522  12.194 -0.5394  0.6263  0.4326
13615SOL    HW145656   9.586   3.613  12.180 -1.9315  0.2442  0.1770
13615SOL    HW245657   9.649   3.521  12.282  0.4500  1.6121  0.0372
13616SOL     OW45658   1.488   0.006   7.522  0.3085 -0.3394  0.2205
13616SOL    HW145659   1.514   0.080   7.577  1.5075 -0.0735 -0.6544
13616SOL    HW245660   1.466   0.046   7.438  1.9460 -1.0433 -0.5818
13617SOL     OW45661   9.775   7.735   5.479 -0.2657 -0.2727 -0.1010
13617SOL    HW145662   9.726   7.810   5.513  1.5847 -0.1604  2.5988
13617SOL    HW245663   9.861   7.770   5.457  0.1025 -1.3112 -0.3772
13618SOL     OW45664   5.015   6.568   7.584  0.2056  0.2038  0.2826
13618SOL    HW145665   5.023   6.663   7.570  0.6042  0.0094 -0.9341
13618SOL    HW245666   5.102   6.542   7.615  0.9001 -0.1270 -1.8095
13619SOL     OW45667   4.081  11.479   6.469 -0.3791 -0.1771 -0.3885
13619SOL    HW145668   3.994  11.511   6.494 -0.5576 -0.1677 -1.0098
13619SOL    HW245669   4.097  11.518   6.383  0.5491  0.4115  0.0301
13620SOL     OW45670   5.732  12.456   2.193 -0.2014 -0.3034 -0.3865
13620SOL    HW145671   5.640  12.481   2.200  0.0776  0.5128  0.6006
13620SOL    HW245672   5.743  12.429   2.102 -1.2501  0.2275 -0.6824
13621SOL     OW45673   3.238   1.116   8.423 -0.1141  0.0956  0.6417
13621SOL    HW145674   3.296   1.054   8.466 -0.2007  1.0596  2.2250
13621SOL    HW245675   3.162   1.122   8.481  0.2756  2.3067  1.0124
13622SOL     OW45676   5.707   5.194   0.936  0.1856 -0.0431 -0.0676
13622SOL    HW145677   5.775   5.153   0.989 -0.2326 -0.3042  0.2748
13622SOL    HW245678   5.660   5.252   0.996 -0.8872 -1.0447  0.1069
13623SOL     OW45679   7.065   9.207   8.669  0.3769  0.0863 -0.1284
13623SOL    HW145680   7.082   9.162   8.752 -1.6184 -0.3603  0.0978
13623SOL    HW245681   7.130   9.276   8.665  2.7234 -1.9646  0.1480
13624SOL     OW45682   1.131  10.631  12.461  0.2784 -0.3762 -0.3227
13624SOL    HW145683   1.174  10.628  12.376  0.9869  0.2080  0.0041
13624SOL    HW245684   1.202  10.627  12.525 -0.2955 -1.6778  0.2646
13625SOL     OW45685  12.635  11.728   1.419 -0.4961 -0.7817  0.3053
13625SOL    HW145686  12.656  11.669   1.346  0.2806 -1.2097  0.8633
13625SOL    HW245687  12.661  11.815   1.388 -1.7195 -0.6892 -0.5507
13626SOL     OW45688  11.310   9.684   0.065  0.9636  0.0626  0.1378
13626SOL    HW145689  11.272   9.678   0.153  0.1657 -0.4952 -0.2413
13626SOL    HW245690  11.374   9.614   0.061 -0.6615 -1.4458 -0.5190
13627SOL     OW45691   3.336   4.272   1.039  0.0429  0.4636 -0.2390
13627SOL    HW145692   3.404   4.257   1.106  0.2331 -0.0876 -0.5468
13627SOL    HW245693   3.277   4.335   1.079 -0.2639 -0.4341  0.7612
13628SOL     OW45694   6.598   0.658  10.882 -0.0797  0.4175  0.2067
13628SOL    HW145695   6.580   0.633  10.792  1.0390 -0.3557  0.1765
13628SOL    HW245696   6.692   0.672  10.885 -0.2694  1.6838  0.9716
13629SOL     OW45697   7.800   7.999  11.939 -0.0246  0.0075 -0.7024
13629SOL    HW145698   7.801   7.925  11.877 -0.7073 -0.2495 -0.4104
13629SOL    HW245699   7.838   7.963  12.019 -0.3772 -0.0382 -0.5540
13630SOL     OW45700  11.023   4.919   9.435 -0.3393  0.2057  0.9991
13630SOL    HW145701  11.043   5.010   9.410  0.6918  0.3870  2.3486
13630SOL    HW245702  11.054   4.867   9.361 -3.0972  1.0144 -0.8945
13631SOL     OW45703   9.886   0.904   2.726 -0.1053 -0.2106  0.2865
13631SOL    HW145704   9.843   0.980   2.686 -0.9549 -0.6385  0.3614
13631SOL    HW245705   9.979   0.927   2.727 -0.3394  0.7864  0.2248
13632SOL     OW45706   7.264   4.580   8.740  0.3794  0.1257 -0.3195
13632SOL    HW145707   7.273   4.486   8.752 -0.1446  0.3781  2.8183
13632SOL    HW245708   7.354   4.611   8.729  0.5085 -0.7394 -2.2382
13633SOL     OW45709   5.109   3.455   0.827  0.7382  0.3365 -0.0968
13633SOL    HW145710   5.039   3.518   0.847  0.2437 -0.0632 -0.5219
13633SOL    HW245711   5.098   3.437   0.734  1.5748  0.4525 -0.2272
13634SOL     OW45712   8.332  11.308   5.522 -0.2265 -0.0600  0.0723
13634SOL    HW145713   8.422  11.294   5.552 -0.7718 -0.0340  1.7920
13634SOL    HW245714   8.339  11.304   5.426  1.7334  0.7619  0.1155
13635SOL     OW45715   8.730  11.485   7.834  0.3036  0.2769  0.2431
13635SOL    HW145716   8.668  11.428   7.880 -0.5150  0.6843 -0.3272
13635SOL    HW245717   8.745  11.441   7.750  0.1874  0.5673  0.0711
13636SOL     OW45718   6.532  11.292   9.566 -0.3514  0.3990  0.1714
13636SOL    HW145719   6.483  11.274   9.485 -0.7169  0.5659  0.3558
13636SOL    HW245720   6.573  11.377   9.551  0.6615 -0.1545 -0.3524
13637SOL     OW45721   4.761  12.439   9.692  0.4804  0.3257 -0.0923
13637SOL    HW145722   4.736  12.395   9.774 -1.7785 -0.5771 -1.1936
13637SOL    HW245723   4.769  12.531   9.717  0.4648 -0.0134  1.2797
13638SOL     OW45724   0.959   3.940   8.816 -0.2606  0.5458  0.1821
13638SOL    HW145725   1.039   3.922   8.767  0.0318  1.0312  0.4687
13638SOL    HW245726   0.891   3.891   8.770 -0.3358  2.3404 -1.7946
13639SOL     OW45727  10.777  10.137   7.479 -0.1472  0.5456 -0.0666
13639SOL    HW145728  10.705  10.094   7.526  0.8429 -0.2102  0.7813
13639SOL    HW245729  10.856  10.098   7.515  0.6766  0.6756 -1.6806
13640SOL     OW45730  11.146   5.917  10.954 -0.4063 -0.2533 -0.1201
13640SOL    HW145731  11.068   5.901  10.901 -0.8038  0.0217  0.3757
13640SOL    HW245732  11.184   5.830  10.967 -0.5771 -0.3797 -0.4385
13641SOL     OW45733   4.179   9.389   0.005 -0.2483  0.0215 -0.0471
13641SOL    HW145734   4.232   9.327   0.055  1.5817 -0.0302 -1.8980
13641SOL    HW245735   4.135   9.335  -0.061  1.4461  0.6049 -1.7472
13642SOL     OW45736   4.133   9.707   6.206  0.2528  0.2164 -0.3039
13642SOL    HW145737   4.119   9.682   6.297  1.3323 -1.7146 -0.6133
13642SOL    HW245738   4.096   9.635   6.155  0.3027  0.9262 -1.3753
13643SOL     OW45739   7.659   8.255   3.120  0.5911  0.2750 -0.3140
13643SOL    HW145740   7.605   8.232   3.044  0.3010  0.7403 -0.2519
13643SOL    HW245741   7.687   8.345   3.104 -0.2812  0.7336  0.5789
13644SOL     OW45742   6.439   5.370  12.024 -0.2673 -0.1791 -0.1384
13644SOL    HW145743   6.352   5.411  12.023 -0.0287  0.3367 -0.1990
13644SOL    HW245744   6.494   5.429  11.972 -0.0313 -0.8482 -0.6647
13645SOL     OW45745   7.876   2.109   9.835  0.0765  0.0028  0.0660
13645SOL    HW145746   7.857   2.170   9.906 -0.7786  0.2618 -0.3629
13645SOL    HW245747   7.790   2.093   9.794 -0.1485 -3.2161  1.5101
13646SOL     OW45748   5.383   7.835   9.343 -0.4768  0.1711  0.2126
13646SOL    HW145749   5.310   7.853   9.285  0.5327  2.5165 -0.4605
13646SOL    HW245750   5.348   7.851   9.431 -0.9869  0.5461 -0.0501
13647SOL     OW45751   7.292   8.705   0.384  0.3922  0.3253 -0.1614
13647SOL    HW145752   7.324   8.620   0.415  1.6326  0.5911 -0.6554
13647SOL    HW245753   7.198   8.705   0.405  0.5552 -0.8048  0.6281
13648SOL     OW45754   9.470   4.362   3.103 -0.1513 -0.1300 -0.1440
13648SOL    HW145755   9.465   4.267   3.093 -0.0980 -0.5333  2.7738
13648SOL    HW245756   9.540   4.390   3.043 -0.1895 -1.8928 -1.0616
13649SOL     OW45757   0.405   7.045   7.715  0.3751 -0.1117  0.4544
13649SOL    HW145758   0.477   7.052   7.777  1.6386 -0.6849 -0.8922
13649SOL    HW245759   0.364   6.961   7.734  0.3552  0.0081  0.9340
13650SOL     OW45760   1.163   2.862   8.388 -0.5516 -0.2007 -0.3402
13650SOL    HW145761   1.107   2.848   8.312  0.9291 -3.2290 -1.0511
13650SOL    HW245762   1.133   2.798   8.453  1.2394 -1.0519 -0.2840
13651SOL     OW45763   9.242  10.894   9.570  0.0972 -0.3726  0.1640
13651SOL    HW145764   9.285  10.947   9.503 -0.2175  2.0167  1.7183
13651SOL    HW245765   9.308  10.885   9.639 -0.8839  0.8676  1.3203
13652SOL     OW45766  10.533   4.525  10.923 -0.2524  0.3452  0.1866
13652SOL    HW145767  10.539   4.451  10.984 -0.3126 -0.1184 -0.3540
13652SOL    HW245768  10.614   4.522  10.873  0.2794  1.3829  0.9634
13653SOL     OW45769  11.245  12.041  10.276  0.3782 -0.0335  0.9337
13653SOL    HW145770  11.278  11.987  10.348  1.4075  1.2619  1.4685
13653SOL    HW245771  11.242  12.130  10.311 -0.8206  0.3556 -0.0846
13654SOL     OW45772   7.421   8.511  11.202  0.2797 -0.2854  0.6552
13654SOL    HW145773   7.361   8.445  11.237 -0.0704 -0.6937 -0.6502
13654SOL    HW245774   7.508   8.479  11.225  0.0546 -0.3715  1.4171
13655SOL     OW45775  12.623   2.210   2.944  0.7568  0.2712 -0.0354
13655SOL    HW145776  12.675   2.169   3.014 -0.1054  1.6998  1.5305
13655SOL    HW245777  12.612   2.301   2.973 -0.2596  0.7114 -1.6948
13656SOL     OW45778   6.763   8.579   0.061  0.0655 -0.0357 -0.0953
13656SOL    HW145779   6.806   8.532   0.132  1.8968  2.2274  0.4346
13656SOL    HW245780   6.835   8.621   0.014 -1.4159  2.2918 -0.4361
13657SOL     OW45781  12.620  12.626   0.209 -0.7544 -0.4761  0.1353
13657SOL    HW145782  12.664  12.687   0.150  0.6816 -1.4225  0.1596
13657SOL    HW245783  12.580  12.681   0.276 -0.9732  0.5194 -0.7866
13658SOL     OW45784   5.875   0.659  12.217  0.6796 -0.6804  0.0766
13658SOL    HW145785   5.798   0.702  12.254  0.4921 -1.3796  0.5342
13658SOL    HW245786   5.949   0.697  12.263  0.5409 -0.5907  0.2261
13659SOL     OW45787   8.407  11.151   9.291 -0.3390  0.9925  0.1969
13659SOL    HW145788   8.461  11.206   9.235  0.3461 -0.3808 -0.5346
13659SOL    HW245789   8.468  11.086   9.328 -0.8920  1.4495  2.0162
13660SOL     OW45790   6.877   2.571   4.666 -0.1176 -0.2735 -0.0896
13660SOL    HW145791   6.964   2.611   4.670 -0.7292  1.0625  0.5843
13660SOL    HW245792   6.819   2.645   4.648 -1.2406 -0.9507  0.6833
13661SOL     OW45793   3.211   5.111  12.087  0.3793  0.1614  0.3081
13661SOL    HW145794   3.252   5.131  12.171  0.4522  1.2728  0.0258
13661SOL    HW245795   3.275   5.138  12.021 -0.0369  0.1350 -0.1157
13662SOL     OW45796  11.153   6.675   1.937  0.1103  0.2167  0.1386
13662SOL    HW145797  11.100   6.614   1.886  0.6798  0.4192 -0.7261
13662SOL    HW245798  11.093   6.744   1.964 -0.0401  0.5575 -1.0138
13663SOL     OW45799   4.853  11.807   9.622  0.0604 -0.1595  0.0087
13663SOL    HW145800   4.769  11.851   9.607  0.4375 -0.0947 -2.1257
13663SOL    HW245801   4.906  11.871   9.670 -0.7583  0.1739  0.4837
13664SOL     OW45802   1.244   5.089   9.050  0.1738 -0.2377 -0.1159
13664SOL    HW145803   1.153   5.110   9.068  0.8090  2.8243  0.0464
13664SOL    HW245804   1.241   5.007   9.000 -2.5975 -0.4244  0.2438
13665SOL     OW45805   8.139  10.335  10.694  0.4924 -0.6864 -0.2438
13665SOL    HW145806   8.082  10.411  10.683 -0.1085 -1.2000 -0.7542
13665SOL    HW245807   8.141  10.320  10.788  1.2718  0.4432 -0.0525
13666SOL     OW45808   6.815   1.711   8.805 -0.2305 -0.4942  0.2111
13666SOL    HW145809   6.893   1.754   8.770  0.7239 -1.3974  1.1593
13666SOL    HW245810   6.812   1.738   8.897 -1.1328 -0.3581  0.1550
13667SOL     OW45811   6.444   2.943   3.114 -0.0559 -0.0040  0.2734
13667SOL    HW145812   6.461   2.909   3.201  0.0404  0.9851  0.6464
13667SOL    HW245813   6.351   2.923   3.099 -0.4894  1.1988  1.2379
13668SOL     OW45814   4.807  11.466  11.122 -0.1759 -0.1510 -0.0048
13668SOL    HW145815   4.737  11.416  11.079  0.0554 -0.3669 -0.1329
13668SOL    HW245816   4.822  11.420  11.204 -2.0977  1.4609  1.3618
13669SOL     OW45817   0.862   5.995   2.730  0.1184 -0.4099  0.1989
13669SOL    HW145818   0.854   5.909   2.689  1.1976 -0.6024  0.3570
13669SOL    HW245819   0.946   5.992   2.776  1.5077  1.6206 -1.9595
13670SOL     OW45820   8.494   8.908   4.902 -0.0207  0.0638  0.2262
13670SOL    HW145821   8.526   8.828   4.944 -0.8869 -0.1350  0.5243
13670SOL    HW245822   8.477   8.882   4.811 -0.0950 -0.0330  0.2678
13671SOL     OW45823   7.994   9.379   4.644 -0.0654 -0.5421  0.2002
13671SOL    HW145824   7.986   9.420   4.731  1.1224 -0.6955  0.4000
13671SOL    HW245825   8.072   9.420   4.606  0.9443 -2.3241  0.2610
13672SOL     OW45826  10.408   9.377   4.847 -0.5276  0.2517  0.4769
13672SOL    HW145827  10.489   9.415   4.881 -1.0123 -0.0754  2.0515
13672SOL    HW245828  10.359   9.452   4.812 -0.4770  0.7583  1.4651
13673SOL     OW45829   6.929   2.000  10.657 -0.4102 -0.0357  0.1302
13673SOL    HW145830   6.982   1.926  10.626 -1.6176 -0.3210 -1.3852
13673SOL    HW245831   6.890   1.969  10.739 -0.0339 -0.6783  0.0724
13674SOL     OW45832   8.275  11.361   4.802  0.3785  0.3808  0.8529
13674SOL    HW145833   8.217  11.305   4.751  2.0234  0.8897 -1.8081
13674SOL    HW245834   8.341  11.302   4.837 -0.6285  0.0568  2.2522
13675SOL     OW45835  11.319  12.084   9.419 -0.3786 -0.6237 -0.2843
13675SOL    HW145836  11.236  12.063   9.376 -0.2256 -2.7034  0.2963
13675SOL    HW245837  11.307  12.054   9.509  1.1112 -1.3362 -0.2898
13676SOL     OW45838   0.946  10.314   9.429 -0.0159 -0.1915 -0.0028
13676SOL    HW145839   0.925  10.351   9.344  1.2827  0.0835 -0.2382
13676SOL    HW245840   0.998  10.383   9.472  0.3192 -0.7782  0.5435
13677SOL     OW45841   1.851   6.262   4.733  0.0035  0.3064  0.6804
13677SOL    HW145842   1.786   6.204   4.773 -0.0870 -0.2306 -0.2271
13677SOL    HW245843   1.877   6.321   4.804  1.2355 -1.7989  2.0831
13678SOL     OW45844   0.508   6.319  10.770  0.0308  0.0930 -0.1574
13678SOL    HW145845   0.464   6.294  10.851  2.4949 -0.5640  1.0743
13678SOL    HW245846   0.464   6.268  10.702 -2.7057  1.3740  0.5421
13679SOL     OW45847  10.279   7.044   1.444  0.0274  0.8830  0.4356
13679SOL    HW145848  10.230   7.114   1.486  0.3590  1.5180 -0.2171
13679SOL    HW245849  10.237   6.963   1.474 -0.5479  1.3717  0.9496
13680SOL     OW45850  12.226   4.103   4.280  0.4971 -0.2339 -0.5703
13680SOL    HW145851  12.303   4.061   4.242  0.1578 -0.9043 -0.5154
13680SOL    HW245852  12.206   4.052   4.359 -0.3065 -0.3777 -0.8575
13681SOL     OW45853   5.957   1.764   1.724  0.0805  0.5723  0.1981
13681SOL    HW145854   5.995   1.678   1.741  2.3719  1.5512  0.3373
13681SOL    HW245855   5.999   1.794   1.644 -0.3082  1.7611  0.4175
13682SOL     OW45856   6.101   3.746  11.994  0.6105 -0.1627 -0.3072
13682SOL    HW145857   6.082   3.671  12.050  0.6929  0.2832  0.3361
13682SOL    HW245858   6.061   3.725  11.910 -0.0775 -0.5659  0.1167
13683SOL     OW45859   6.981   5.414   3.939 -0.7036  0.1417 -0.4031
13683SOL    HW145860   6.903   5.402   3.885 -2.3709  2.0768  1.4111
13683SOL    HW245861   6.950   5.402   4.029  1.3560 -0.1598  0.3250
13684SOL     OW45862   4.998  10.391   6.831  0.5814 -0.5239  0.4968
13684SOL    HW145863   5.057  10.426   6.763  2.7465 -1.6954  1.6685
13684SOL    HW245864   4.947  10.467   6.859  1.1377  0.4358 -0.9569
13685SOL     OW45865   2.974   6.595   1.961  0.5934 -0.0017  0.1601
13685SOL    HW145866   3.011   6.677   1.996  1.0162 -0.3211  0.4771
13685SOL    HW245867   2.927   6.557   2.035 -0.6299  0.5352 -0.3200
13686SOL     OW45868   8.316   7.585   9.831 -0.0370  0.0078 -0.0158
13686SOL    HW145869   8.311   7.643   9.754  0.5036 -1.0292 -0.8678
13686SOL    HW245870   8.409   7.564   9.838 -0.1102 -0.0556  0.8315
13687SOL     OW45871   3.035  12.579  10.447 -0.9143 -0.3410  0.2482
13687SOL    HW145872   3.063  12.582  10.355 -0.5224 -0.0040  0.3751
13687SOL    HW245873   2.991  12.663  10.461  1.8153  1.0457  1.2309
13688SOL     OW45874  11.730   0.927  10.990  0.0466 -0.2961  0.0250
13688SOL    HW145875  11.726   1.020  11.014  0.6207  0.0216 -1.0738
13688SOL    HW245876  11.740   0.927  10.895  0.2575 -1.4878  0.0385
13689SOL     OW45877   3.943   2.288   1.953  0.2838  0.5267 -0.3080
13689SOL    HW145878   3.883   2.238   1.898  1.9958 -1.9641 -0.0977
13689SOL    HW245879   3.888   2.326   2.022 -1.0695 -1.6916 -0.0862
13690SOL     OW45880   5.988   9.948   3.732  0.6719  0.0433 -0.0467
13690SOL    HW145881   6.032   9.967   3.650  0.1513 -0.5394 -0.4723
13690SOL    HW245882   5.937  10.027   3.751  1.9888  0.7904  0.5394
13691SOL     OW45883   8.965   3.218   9.437  0.1642 -0.0513 -0.5664
13691SOL    HW145884   9.039   3.194   9.381  0.4848 -0.1384 -0.1018
13691SOL    HW245885   8.899   3.151   9.420  0.6772 -0.7020 -0.0201
13692SOL     OW45886   5.759   0.052   0.337  0.6558 -0.3009 -0.0620
13692SOL    HW145887   5.747   0.117   0.268  1.1054 -1.6779 -1.4772
13692SOL    HW245888   5.849   0.065   0.366  0.0220  1.2913  1.4059
13693SOL     OW45889  10.896   1.906  12.544  0.4433 -0.2684  0.4064
13693SOL    HW145890  10.909   1.811  12.540  1.1673 -0.2816  2.2769
13693SOL    HW245891  10.802   1.917  12.554 -0.0612 -0.6013 -2.8044
13694SOL     OW45892   5.237   6.085   8.450  0.2129 -0.6679 -0.0017
13694SOL    HW145893   5.228   6.015   8.386 -0.5336 -0.3954 -0.2122
13694SOL    HW245894   5.264   6.041   8.531 -2.3365 -1.5579  0.4754
13695SOL     OW45895   9.479   8.984  11.111  0.0128  0.1868 -0.1300
13695SOL    HW145896   9.408   9.044  11.132 -0.0891 -0.3877  1.2633
13695SOL    HW245897   9.463   8.907  11.165  0.8020 -0.6178 -0.9988
13696SOL     OW45898   2.302   1.630  12.417  0.0785 -0.2140  0.1471
13696SOL    HW145899   2.354   1.561  12.459  2.3221  0.4982 -1.2580
13696SOL    HW245900   2.348   1.711  12.439 -0.7715  0.5261 -0.7088
13697SOL     OW45901   2.979   9.480   3.646 -0.0802  0.9568  0.7346
13697SOL    HW145902   2.961   9.481   3.552 -0.1469  0.4331  0.7397
13697SOL    HW245903   2.942   9.562   3.679  0.2263  1.2926  0.2516
13698SOL     OW45904   6.859  10.503   6.783 -0.2442 -0.1464  0.8512
13698SOL    HW145905   6.919  10.452   6.838 -0.0422 -0.0260  0.7426
13698SOL    HW245906   6.916  10.553   6.725 -0.4378  0.3372  1.0713
13699SOL     OW45907   8.376   9.364  10.349  0.5238 -0.2202  0.1924
13699SOL    HW145908   8.326   9.446  10.347  0.5228 -0.2301 -0.1551
13699SOL    HW245909   8.463   9.388  10.318  0.4855 -0.3777 -0.0384
13700SOL     OW45910  12.322   4.178   0.994 -0.8995 -0.1421  0.3228
13700SOL    HW145911  12.380   4.202   1.066 -1.9126 -1.2754  1.5734
13700SOL    HW245912  12.338   4.084   0.981 -1.5527 -0.1961 -0.1485
13701SOL     OW45913   1.067   9.328   7.451 -0.0492 -0.3133 -0.2262
13701SOL    HW145914   1.018   9.330   7.534 -1.0597 -0.4360 -0.8096
13701SOL    HW245915   1.066   9.419   7.422 -0.5015 -0.4198 -0.5575
13702SOL     OW45916  10.422   4.760  10.813  0.3238  0.0273  0.2435
13702SOL    HW145917  10.441   4.731  10.903  1.7349  0.8438  0.2330
13702SOL    HW245918  10.415   4.678  10.763 -0.7194 -0.4512  1.1172
13703SOL     OW45919   1.509   3.687   0.791  0.1609  0.5489 -0.7506
13703SOL    HW145920   1.557   3.605   0.794 -2.0855 -0.8591 -1.0385
13703SOL    HW245921   1.463   3.691   0.875 -0.2264  1.2108 -0.9839
13704SOL     OW45922   3.214   4.925  11.782  0.2474  0.0101  0.0140
13704SOL    HW145923   3.267   4.850  11.809 -0.1696  0.1043  1.1459
13704SOL    HW245924   3.277   4.986  11.744  0.6293 -0.7995 -0.6794
13705SOL     OW45925   3.755   4.432  10.021 -0.0304 -0.6929 -0.6114
13705SOL    HW145926   3.734   4.452   9.930 -1.5693 -0.8645 -0.3097
13705SOL    HW245927   3.844   4.395  10.018  0.0457 -0.4311 -1.9885
13706SOL     OW45928  10.631   4.182  12.398  0.1156 -0.5877 -0.3562
13706SOL    HW145929  10.550   4.203  12.444  0.6474  1.9870 -0.4147
13706SOL    HW245930  10.698   4.185  12.466  0.3343 -1.5158 -0.5188
13707SOL     OW45931   5.694   3.056   3.180  0.0397 -0.5189  0.2012
13707SOL    HW145932   5.654   3.092   3.259  0.3822  2.5137 -0.8946
13707SOL    HW245933   5.632   3.078   3.110  1.2272 -0.3426 -0.8159
13708SOL     OW45934   0.049  11.422   3.796  0.1940 -0.7195 -0.0448
13708SOL    HW145935   0.048  11.515   3.774 -0.5165 -0.3140  1.5085
13708SOL    HW245936  -0.030  11.386   3.756  0.8848 -0.8530 -1.3276
13709SOL     OW45937   2.770   6.056  10.181 -0.1268 -0.8444 -0.5912
13709SOL    HW145938   2.734   6.111  10.112 -1.5158 -2.3600 -1.1138
13709SOL    HW245939   2.807   6.118  10.244 -0.1884  0.6115 -1.9415
13710SOL     OW45940   6.792   5.302   8.534  0.4363  0.6401  0.0423
13710SOL    HW145941   6.799   5.207   8.544 -2.3142  0.2585 -0.9311
13710SOL    HW245942   6.737   5.330   8.607  0.6290  1.3880 -0.0907
13711SOL     OW45943   8.866   0.606   9.844 -0.3518  0.1346  0.1413
13711SOL    HW145944   8.842   0.615   9.751 -0.5049 -0.2883  0.1395
13711SOL    HW245945   8.878   0.696   9.874 -1.7959  0.3608  0.1100
13712SOL     OW45946  12.357   9.226  10.484  0.0935 -0.1425 -0.4677
13712SOL    HW145947  12.314   9.221  10.569  0.2836  0.6166 -0.3245
13712SOL    HW245948  12.295   9.186  10.423 -0.3485 -0.0307 -0.0944
13713SOL     OW45949  10.310   2.120   3.059 -0.2703 -0.2400  0.3133
13713SOL    HW145950  10.358   2.038   3.049 -0.8020 -0.5076 -0.1223
13713SOL    HW245951  10.231   2.096   3.106 -0.7106 -0.0922 -0.3372
13714SOL     OW45952  10.684   1.693  10.817  1.0006  0.3095 -0.2049
13714SOL    HW145953  10.730   1.700  10.901  1.1400 -0.2168 -0.2350
13714SOL    HW245954  10.674   1.784  10.788 -2.3736  0.8397  2.1267
13715SOL     OW45955  10.953   3.460   9.027 -0.5981  0.4041 -0.0789
13715SOL    HW145956  10.926   3.368   9.032 -0.4264  0.2365 -1.7461
13715SOL    HW245957  11.031   3.459   8.971  0.3815  1.3913  1.1787
13716SOL     OW45958   2.387   9.891  10.169  0.9058 -0.2937 -0.2240
13716SOL    HW145959   2.307   9.943  10.166 -0.9421 -2.9634 -1.8811
13716SOL    HW245960   2.447   9.935  10.109 -0.2894  0.3985 -0.9508
13717SOL     OW45961   3.829   8.202   3.700 -0.0011  0.6289  0.2086
13717SOL    HW145962   3.742   8.217   3.739 -1.0565 -3.5626 -0.0986
13717SOL    HW245963   3.815   8.210   3.606 -0.6529 -1.8828  0.0183
13718SOL     OW45964  10.993   8.700   1.898 -0.6239  0.1419 -0.1747
13718SOL    HW145965  10.998   8.615   1.942 -0.4187  0.2710  0.0582
13718SOL    HW245966  10.950   8.758   1.961  0.7669  0.6412  0.3741
13719SOL     OW45967   4.369   6.888   3.188  0.0219  0.4567  0.5711
13719SOL    HW145968   4.446   6.834   3.168 -0.3697  0.2958 -0.6045
13719SOL    HW245969   4.405   6.966   3.230  0.7693  0.1057  0.6095
13720SOL     OW45970  11.754   0.852   0.994  0.0913  0.3130 -1.1406
13720SOL    HW145971  11.693   0.922   0.971  1.0405  1.5074 -0.1974
13720SOL    HW245972  11.714   0.809   1.070  0.9440  1.9149  0.2909
13721SOL     OW45973   2.883   1.863  12.409  0.5818  0.0806  0.1513
13721SOL    HW145974   2.958   1.814  12.375  1.3964  0.5192  1.2590
13721SOL    HW245975   2.907   1.955  12.398 -0.7423  0.2648 -1.4917
13722SOL     OW45976   2.199   4.008  11.266 -0.1566 -0.9626  0.3050
13722SOL    HW145977   2.107   4.034  11.271 -0.2394 -0.9209 -1.0662
13722SOL    HW245978   2.208   3.967  11.180  1.3595  0.0691 -0.0631
13723SOL     OW45979  10.788   9.401   0.174 -0.7366  0.0029 -0.1512
13723SOL    HW145980  10.783   9.390   0.269 -1.6303  1.6706  0.0416
13723SOL    HW245981  10.829   9.486   0.162 -0.1432 -0.4224 -1.2872
13724SOL     OW45982   7.933   1.520   6.187  0.2688 -0.4439 -0.2882
13724SOL    HW145983   7.841   1.543   6.204  0.1225 -1.3142  0.1478
13724SOL    HW245984   7.967   1.593   6.135 -0.8956 -0.5105 -1.1816
13725SOL     OW45985   0.762   7.970   2.623  0.2808 -0.4582 -0.5752
13725SOL    HW145986   0.671   7.944   2.634  0.6384 -1.6200 -0.1720
13725SOL    HW245987   0.780   8.029   2.697 -0.7085  1.5167 -1.8294
13726SOL     OW45988   2.667   9.426   2.852 -0.0307 -0.4841 -0.1021
13726SOL    HW145989   2.625   9.501   2.894 -0.7863 -1.3971  0.8292
13726SOL    HW245990   2.743   9.463   2.808 -0.3060  0.8094  0.4529
13727SOL     OW45991   1.596  12.603  12.473  0.1324  0.4001 -0.2757
13727SOL    HW145992   1.635  12.688  12.491 -0.5318  0.5748  0.4040
13727SOL    HW245993   1.547  12.582  12.552  0.5024 -0.7416 -0.3279
13728SOL     OW45994   8.549   6.918  12.520  0.2186 -0.5104 -0.4020
13728SOL    HW145995   8.598   6.850  12.565  0.1420 -0.3464 -0.0633
13728SOL    HW245996   8.502   6.872  12.450 -0.8294 -1.0229  0.5990
13729SOL     OW45997  10.155   0.573   4.209 -0.3114 -0.4126 -0.6586
13729SOL    HW145998  10.110   0.626   4.275 -0.3123  0.3362 -1.2468
13729SOL    HW245999  10.248   0.582   4.230 -0.2762  0.2820 -1.0840
13730SOL     OW46000   7.306  11.192   1.488  0.9667 -0.2189  0.5266
13730SOL    HW146001   7.262  11.134   1.549 -0.5170  0.0606 -0.2318
13730SOL    HW246002   7.345  11.260   1.543 -0.6880  0.2515  1.1708
13731SOL     OW46003   0.842   6.500   1.803 -0.1930  0.1973  0.2716
13731SOL    HW146004   0.802   6.463   1.881 -0.0207 -0.5993 -0.0092
13731SOL    HW246005   0.931   6.467   1.803 -0.6415 -1.1490 -1.0955
13732SOL     OW46006   2.465   5.670  10.214  0.2421  0.4805 -0.7448
13732SOL    HW146007   2.497   5.580  10.217 -0.0471  0.3979  0.1290
13732SOL    HW246008   2.525   5.715  10.155  0.7559 -0.1398 -0.7013
13733SOL     OW46009   3.583   4.356   4.385 -0.0758  0.1333 -0.3116
13733SOL    HW146010   3.529   4.278   4.396 -1.5569  1.1318 -0.2539
13733SOL    HW246011   3.545   4.401   4.309  0.5673  0.9357 -0.1729
13734SOL     OW46012  10.574   7.509   9.689 -0.2769 -0.5071  0.4634
13734SOL    HW146013  10.561   7.419   9.719  0.4391 -0.7594  0.0371
13734SOL    HW246014  10.668   7.516   9.675 -0.3831  0.1802  0.0696
13735SOL     OW46015   3.427   3.009   8.764  0.4374 -0.3414 -0.0535
13735SOL    HW146016   3.400   3.055   8.684  1.0041 -0.9860 -0.6392
13735SOL    HW246017   3.374   2.929   8.763 -1.5794  0.8603  1.6960
13736SOL     OW46018   3.340   1.352   6.382 -0.5447 -0.2623 -0.0723
13736SOL    HW146019   3.404   1.397   6.327 -1.1929  0.6353 -0.1226
13736SOL    HW246020   3.297   1.290   6.323  0.7645 -1.4065  0.1367
13737SOL     OW46021   7.171   6.119  12.608  0.5379 -0.4295  0.1976
13737SOL    HW146022   7.165   6.118  12.704 -0.9530  1.0441  0.1603
13737SOL    HW246023   7.093   6.071  12.579 -0.3240  1.1746 -0.2570
13738SOL     OW46024   3.997   3.219   1.468 -0.6106  0.4745 -0.6532
13738SOL    HW146025   4.021   3.214   1.560  1.2744  0.9941 -1.0762
13738SOL    HW246026   3.910   3.180   1.464  0.5303 -2.5621  0.8391
13739SOL     OW46027   0.402   5.181  11.280 -0.1707 -0.0684 -0.4473
13739SOL    HW146028   0.384   5.245  11.211 -1.3351  0.1973  0.0692
13739SOL    HW246029   0.360   5.218  11.358 -0.0881 -1.0304  0.0720
13740SOL     OW46030   9.018   7.481   9.352  0.6695  0.2539 -0.2670
13740SOL    HW146031   9.005   7.457   9.444 -0.8410 -0.6341 -0.6737
13740SOL    HW246032   9.033   7.398   9.308 -2.2739  0.1763 -1.3438
13741SOL     OW46033  11.461  11.346   4.788 -0.0163  0.6489 -0.2022
13741SOL    HW146034  11.413  11.413   4.838 -0.5307  0.1001  0.0482
13741SOL    HW246035  11.441  11.264   4.834 -0.7652  0.0838 -1.4947
13742SOL     OW46036   6.954  10.586   9.690  0.0045 -0.3655  0.0012
13742SOL    HW146037   6.997  10.628   9.765 -1.1060 -0.2477  0.5951
13742SOL    HW246038   7.011  10.511   9.670  0.5864 -0.1138  0.6381
13743SOL     OW46039  11.411   9.306   5.612  0.4661 -0.1175 -0.6194
13743SOL    HW146040  11.334   9.285   5.559  0.3559 -1.8557  0.1586
13743SOL    HW246041  11.483   9.309   5.549 -0.1844  1.4609 -1.3440
13744SOL     OW46042   3.653   3.927   0.944 -0.0301  0.0604  0.3055
13744SOL    HW146043   3.664   3.960   1.033  1.0218  1.1265 -0.2009
13744SOL    HW246044   3.588   3.856   0.953 -2.4070  2.2199  1.4127
13745SOL     OW46045   9.572   8.360   8.715 -0.2093  0.2146  0.1250
13745SOL    HW146046   9.520   8.422   8.664 -1.0224 -0.5901 -0.0586
13745SOL    HW246047   9.629   8.318   8.651 -0.4686 -0.0360  0.0585
13746SOL     OW46048   6.939   1.508   4.028 -0.1216 -0.8901 -0.3854
13746SOL    HW146049   6.869   1.521   4.093 -1.5557 -1.5938 -1.7267
13746SOL    HW246050   7.018   1.541   4.071 -1.4888  1.2052  0.6907
13747SOL     OW46051   8.599   4.402   7.578 -0.6614  0.3930 -0.1739
13747SOL    HW146052   8.551   4.452   7.512 -0.4023 -0.7703 -1.2741
13747SOL    HW246053   8.530   4.366   7.635 -0.8070  3.5189  1.8842
13748SOL     OW46054  11.987   8.001   8.263  0.1208  0.0840 -0.1575
13748SOL    HW146055  12.028   8.042   8.339 -0.6157  0.8961 -0.1711
13748SOL    HW246056  12.046   7.930   8.238  0.9927  0.5919  0.4176
13749SOL     OW46057  12.078   9.015   9.817 -0.0581 -0.2742 -0.6037
13749SOL    HW146058  12.112   8.983   9.734 -0.4626 -0.7190 -0.5995
13749SOL    HW246059  11.998   9.061   9.795  0.8811  1.3927 -0.6970
13750SOL     OW46060   2.152   3.809   3.655  0.0050  0.4933  0.4114
13750SOL    HW146061   2.065   3.846   3.671  0.1730  1.3902 -0.6246
13750SOL    HW246062   2.201   3.827   3.735 -0.4632  0.8778  0.6140
13751SOL     OW46063   3.873  12.094   0.404  0.1155  0.1620  0.3537
13751SOL    HW146064   3.862  12.081   0.498 -0.7282  3.1779  0.7635
13751SOL    HW246065   3.854  12.186   0.390  2.5952  0.4082 -2.4452
13752SOL     OW46066   9.644   2.412   6.306  0.0875 -0.2497 -0.2554
13752SOL    HW146067   9.715   2.468   6.337 -0.1884 -0.0585  0.0371
13752SOL    HW246068   9.567   2.469   6.305 -0.1595 -0.5763 -0.1084
13753SOL     OW46069   6.558  10.356   0.424  0.1377 -0.1309 -0.5013
13753SOL    HW146070   6.647  10.323   0.413  0.1453  0.1298 -1.2662
13753SOL    HW246071   6.567  10.451   0.414 -0.4986 -0.2438 -2.5195
13754SOL     OW46072  11.012   3.594   2.905 -0.0311 -0.0007  0.0922
13754SOL    HW146073  11.035   3.672   2.854  0.0502  0.9003  1.4335
13754SOL    HW246074  10.920   3.577   2.884  0.4052 -0.5692 -1.4730
13755SOL     OW46075   0.821  10.426   7.635 -0.9591  0.1686  0.2730
13755SOL    HW146076   0.764  10.349   7.642 -0.1877 -0.4969 -0.5516
13755SOL    HW246077   0.893  10.397   7.578 -0.8183  1.5957 -0.2986
13756SOL     OW46078  12.106   0.482   2.765  0.1053  0.0554  0.1890
13756SOL    HW146079  12.113   0.527   2.849  1.0101  2.3458 -1.0436
13756SOL    HW246080  12.156   0.536   2.704 -1.4183 -0.9245 -2.0681
13757SOL     OW46081   5.785   9.590   3.355  1.3467 -0.1717 -0.4152
13757SOL    HW146082   5.779   9.623   3.445 -0.3854  1.5235 -1.0939
13757SOL    HW246083   5.740   9.505   3.359  2.3807 -0.6985  0.5495
13758SOL     OW46084   2.152   9.028   2.073  0.2985  0.0282 -0.4215
13758SOL    HW146085   2.222   9.012   2.137 -1.4797  0.4428  1.7739
13758SOL    HW246086   2.197   9.066   1.998  2.3527  1.2344  1.2807
13759SOL     OW46087   3.871   3.497  12.541  0.1413 -1.1316 -0.3948
13759SOL    HW146088   3.820   3.579  12.538  0.9193 -0.6005  0.3982
13759SOL    HW246089   3.833   3.443  12.472  0.0911  0.1881 -1.4435
13760SOL     OW46090   2.264   3.179   7.648  0.1058  0.1494  0.0340
13760SOL    HW146091   2.202   3.233   7.598 -1.4081 -1.5051  0.0210
13760SOL    HW246092   2.211   3.146   7.721  1.4287 -0.0472  0.9277
13761SOL     OW46093   7.351   0.233   4.092 -0.0567  0.0022 -0.1991
13761SOL    HW146094   7.314   0.313   4.129  1.0772  0.1218  0.7299
13761SOL    HW246095   7.386   0.260   4.007 -2.3643 -0.1945 -1.2695
13762SOL     OW46096   5.656   7.453   1.270 -0.7256 -0.2543 -0.6323
13762SOL    HW146097   5.633   7.544   1.289 -0.8086 -0.1764 -1.0961
13762SOL    HW246098   5.625   7.404   1.346 -0.0246  0.1973 -0.0462
13763SOL     OW46099   1.063  12.640   7.615 -0.1412  0.6378 -0.2231
13763SOL    HW146100   1.150  12.599   7.613  1.0401  2.7852  1.7398
13763SOL    HW246101   1.030  12.623   7.703 -1.8977 -0.3334 -1.0082
13764SOL     OW46102   9.358   5.285  11.260 -0.6233  0.0002 -0.1835
13764SOL    HW146103   9.298   5.228  11.308 -2.9390  2.0851 -0.4186
13764SOL    HW246104   9.420   5.315  11.326 -1.7524  0.2204  0.8130
13765SOL     OW46105   0.244   1.267  10.228 -0.4786  0.0208 -0.3962
13765SOL    HW146106   0.294   1.189  10.201 -1.7504 -1.3254  0.9603
13765SOL    HW246107   0.187   1.236  10.298 -2.3955  1.7694 -1.1014
13766SOL     OW46108   7.374  10.506  10.263  0.1835  0.8050 -0.0449
13766SOL    HW146109   7.299  10.484  10.208  0.5794 -0.2349 -0.1956
13766SOL    HW246110   7.351  10.590  10.303 -0.7735  0.8158 -0.5908
13767SOL     OW46111   9.529   4.558   5.694 -0.3651 -0.0460 -0.7007
13767SOL    HW146112   9.510   4.572   5.787  1.8910 -0.2078 -0.1487
13767SOL    HW246113   9.487   4.632   5.650 -1.1081  0.2735  0.4800
13768SOL     OW46114   6.884   5.486  10.847  0.5077  0.3522 -0.4261
13768SOL    HW146115   6.889   5.397  10.882  1.4484  0.2163 -0.8756
13768SOL    HW246116   6.973   5.520  10.856  0.0196  1.4871  0.3235
13769SOL     OW46117   3.607   4.074   6.796 -0.1969 -0.2967 -0.4039
13769SOL    HW146118   3.553   4.110   6.867 -0.0655  0.0251 -0.4662
13769SOL    HW246119   3.695   4.106   6.814 -0.5846  2.0560 -2.1527
13770SOL     OW46120   8.868   9.774  10.066  0.2476  0.2801 -0.0581
13770SOL    HW146121   8.944   9.788  10.123  0.5828 -0.0794 -0.4025
13770SOL    HW246122   8.799   9.744  10.125  0.1278  1.3722  0.3737
13771SOL     OW46123   4.940   5.661  11.595  0.4343 -0.0610 -0.4577
13771SOL    HW146124   5.023   5.662  11.644 -1.1460 -0.2835  2.4526
13771SOL    HW246125   4.874   5.641  11.661 -2.0183  0.4545 -2.6107
13772SOL     OW46126   8.671   5.232  11.229 -0.1717  0.1961 -0.1146
13772SOL    HW146127   8.629   5.291  11.292 -1.5421 -0.0804 -0.7447
13772SOL    HW246128   8.629   5.251  11.146 -0.0687 -1.1140 -0.4871
13773SOL     OW46129   6.773   5.755   5.582  0.0643 -0.3043  0.3092
13773SOL    HW146130   6.865   5.778   5.588 -0.0536 -0.1116  1.9887
13773SOL    HW246131   6.734   5.792   5.662 -1.6366  0.3837 -0.7706
13774SOL     OW46132   0.652   0.859   1.865 -0.3081  0.1500  0.2663
13774SOL    HW146133   0.723   0.839   1.804  1.4775  0.5749  2.1351
13774SOL    HW246134   0.586   0.792   1.846  0.1768  0.2427 -2.0832
13775SOL     OW46135   4.962  11.374   8.846  0.3664  0.5801  0.1622
13775SOL    HW146136   4.909  11.327   8.782  0.8759  1.0033 -0.5826
13775SOL    HW246137   5.051  11.368   8.813  0.4869  1.7745  0.2149
13776SOL     OW46138  12.005   9.160   8.839 -0.5137 -0.0227 -0.0917
13776SOL    HW146139  11.942   9.232   8.831 -0.0540  0.4734  0.6280
13776SOL    HW246140  12.007   9.120   8.752  1.0183  2.3561 -1.2838
13777SOL     OW46141   3.672   4.578  10.998  0.5891 -0.5762 -0.5229
13777SOL    HW146142   3.656   4.507  11.059  1.7076 -0.5222 -0.1495
13777SOL    HW246143   3.586   4.619  10.985 -0.3511 -2.8136 -1.8249
13778SOL     OW46144   4.180   4.976   6.599  1.0319 -0.0353 -0.1680
13778SOL    HW146145   4.088   4.976   6.626  0.6473 -0.3864 -1.3808
13778SOL    HW246146   4.199   4.884   6.580  1.6160  0.0437  0.0096
13779SOL     OW46147   0.678  11.108   8.846 -0.1231 -0.1510 -0.4839
13779SOL    HW146148   0.634  11.023   8.844 -0.7911  0.1882 -0.5088
13779SOL    HW246149   0.612  11.168   8.882  0.9115  0.0154  1.2390
13780SOL     OW46150   8.608   7.553   5.906  0.4036 -0.1634  0.2428
13780SOL    HW146151   8.534   7.581   5.852  0.5641 -0.1415  0.0340
13780SOL    HW246152   8.588   7.587   5.993  0.3395  0.1484  0.1080
13781SOL     OW46153  12.232   0.613  10.966  0.1477  0.3389  0.1881
13781SOL    HW146154  12.180   0.644  10.892 -0.7257  0.7577  0.9550
13781SOL    HW246155  12.179   0.634  11.043  0.3146 -1.4822  0.8481
13782SOL     OW46156   8.796   1.702   9.296 -0.4040  0.3227 -0.1789
13782SOL    HW146157   8.718   1.665   9.255 -1.2223  0.8632  0.8546
13782SOL    HW246158   8.864   1.694   9.229 -1.4926  0.4174 -1.3288
13783SOL     OW46159   0.780   3.023   1.638  0.6208 -0.4277 -0.2660
13783SOL    HW146160   0.847   3.090   1.651  0.4303 -0.4889  1.1669
13783SOL    HW246161   0.710   3.068   1.591  1.3672 -0.1892 -1.1743
13784SOL     OW46162  10.337   8.768   3.366 -0.1746 -0.5658  0.0317
13784SOL    HW146163  10.363   8.840   3.308 -1.6603  0.3145  0.4202
13784SOL    HW246164  10.391   8.779   3.444  0.9262 -1.0048 -0.6410
13785SOL     OW46165  11.595   7.187   9.991 -0.1618  0.4694  0.2466
13785SOL    HW146166  11.507   7.224  10.001 -1.0898  0.1171 -4.2305
13785SOL    HW246167  11.581   7.095   9.970  1.1351  0.5967 -1.4233
13786SOL     OW46168   4.541   3.525   9.177 -0.8016 -0.6394  0.1268
13786SOL    HW146169   4.492   3.599   9.214  0.9673  0.2919  0.7313
13786SOL    HW246170   4.606   3.566   9.119  0.2257 -1.7129  0.4761
13787SOL     OW46171  11.244  11.301   1.382  0.5395 -0.3618 -0.2734
13787SOL    HW146172  11.253  11.207   1.394  0.2123 -0.4781 -0.8909
13787SOL    HW246173  11.332  11.336   1.391  0.2791 -0.2464  3.6599
13788SOL     OW46174   8.167   5.589   1.851 -0.8101  0.2926  0.0809
13788SOL    HW146175   8.089   5.535   1.839 -0.8831  0.5095 -0.4429
13788SOL    HW246176   8.227   5.535   1.902 -0.8144 -0.3544 -0.5858
13789SOL     OW46177   0.006   2.468   6.763  0.0492  0.0037  0.1755
13789SOL    HW146178   0.070   2.422   6.709  0.2150  1.0898 -0.6068
13789SOL    HW246179   0.042   2.556   6.772 -1.2118  0.5842 -0.1078
13790SOL     OW46180   5.024  12.218  10.830 -0.0679  0.3416  0.1758
13790SOL    HW146181   5.003  12.135  10.873  0.7663  0.5314  0.9813
13790SOL    HW246182   5.086  12.194  10.761 -0.2495  0.2295  0.0503
13791SOL     OW46183  11.017   3.961  12.432 -0.1755  1.0327 -0.2493
13791SOL    HW146184  11.093   3.903  12.436 -1.0860 -0.1323  1.2926
13791SOL    HW246185  11.051   4.047  12.457  0.8167  0.7587 -0.5968
13792SOL     OW46186   0.587   9.873   7.948 -0.5826  0.5347 -0.3029
13792SOL    HW146187   0.522   9.899   8.013  1.2383  1.6933  1.1426
13792SOL    HW246188   0.671   9.876   7.994  0.7218  0.7804 -2.5221
13793SOL     OW46189   5.800  12.294   2.412 -0.5755 -0.4526 -0.1961
13793SOL    HW146190   5.891  12.269   2.397 -0.4745 -0.3270  0.1970
13793SOL    HW246191   5.776  12.347   2.336  0.3567  1.3560  0.7094
13794SOL     OW46192  11.557  11.667   4.027  0.3724 -0.1416 -0.4485
13794SOL    HW146193  11.518  11.718   3.955  2.8484  0.1681 -1.6621
13794SOL    HW246194  11.563  11.729   4.100  1.1510  0.6365 -1.1488
13795SOL     OW46195   2.233   1.392   0.031 -0.2848  0.1097  0.1217
13795SOL    HW146196   2.167   1.426   0.091  1.2484  0.0341  1.9338
13795SOL    HW246197   2.290   1.467   0.013  1.2929 -0.6466  1.6392
13796SOL     OW46198  11.045   6.119   0.489  0.2654  0.2040  0.4803
13796SOL    HW146199  11.087   6.063   0.424  1.2400  0.9612  0.4391
13796SOL    HW246200  11.114   6.141   0.551 -0.4943  0.0408  1.4121
13797SOL     OW46201  10.708   3.120   4.368 -0.5340 -0.2665 -0.1911
13797SOL    HW146202  10.731   3.212   4.380 -1.2674  0.1153 -1.5993
13797SOL    HW246203  10.618   3.113   4.400 -0.9648 -0.1757 -1.3317
13798SOL     OW46204   6.675   4.449   2.539 -0.5003 -0.0417 -0.0279
13798SOL    HW146205   6.737   4.521   2.544 -0.4042 -0.0965 -0.4086
13798SOL    HW246206   6.593   4.486   2.571 -1.0641  0.9261 -2.4453
13799SOL     OW46207   8.686   0.411   2.293 -0.1151 -0.2673  0.3074
13799SOL    HW146208   8.764   0.465   2.279 -0.7344  0.6435  0.2813
13799SOL    HW246209   8.701   0.333   2.239  0.8950 -0.2388  0.5269
13800SOL     OW46210   7.094   9.810  12.532  0.4897 -0.1493  0.3850
13800SOL    HW146211   7.181   9.779  12.560  0.3928  1.0160  2.1657
13800SOL    HW246212   7.033   9.762  12.588  0.0579 -0.1022 -0.0401
13801SOL     OW46213   8.943   1.597   6.601 -0.4006  0.4713  0.5916
13801SOL    HW146214   9.023   1.573   6.646 -1.9432 -1.4333  2.5264
13801SOL    HW246215   8.944   1.693   6.600  1.5792  0.5021  1.0649
13802SOL     OW46216  10.540  11.832  12.022  0.2924 -0.4553  0.2276
13802SOL    HW146217  10.564  11.804  11.934  0.7079  1.0782 -0.1861
13802SOL    HW246218  10.623  11.839  12.068  0.1282 -0.6635  0.5549
13803SOL     OW46219   9.580   3.041   1.694  0.3317  0.0662 -0.2813
13803SOL    HW146220   9.510   3.106   1.691  0.3159  0.0596 -0.0971
13803SOL    HW246221   9.606   3.038   1.786 -0.6816 -1.2427  0.0046
13804SOL     OW46222   1.875   9.048   4.993 -0.2651  0.0114 -0.2451
13804SOL    HW146223   1.871   9.141   4.971  0.7673  0.2108  0.3550
13804SOL    HW246224   1.890   9.047   5.088 -0.7971 -0.7766 -0.1597
13805SOL     OW46225   2.512  10.993  12.560 -0.2642  0.0335  0.4942
13805SOL    HW146226   2.596  10.950  12.578  0.0384  0.0805 -0.7047
13805SOL    HW246227   2.448  10.942  12.611  0.2063 -1.2854 -0.1716
13806SOL     OW46228   8.045   4.688   9.627 -0.7388 -0.3760 -0.1212
13806SOL    HW146229   8.002   4.770   9.650  2.6840  2.2550 -2.0707
13806SOL    HW246230   8.058   4.694   9.532  2.5006 -1.4930  0.0988
13807SOL     OW46231  12.540   9.932   1.975 -0.2778  0.2879 -0.0266
13807SOL    HW146232  12.449   9.942   1.949 -1.0598 -0.9431  1.9743
13807SOL    HW246233  12.542   9.961   2.067  1.0623 -0.8214  0.3365
13808SOL     OW46234   6.170   3.086   3.990  0.4409 -0.8143  0.2799
13808SOL    HW146235   6.092   3.140   3.978 -0.1378 -1.1606  2.2060
13808SOL    HW246236   6.207   3.115   4.074  1.1079 -2.2053  0.4915
13809SOL     OW46237   4.013   8.870   4.994 -0.2165 -0.7066 -0.0060
13809SOL    HW146238   4.085   8.904   4.940  0.7835 -0.4453  1.4018
13809SOL    HW246239   3.945   8.937   4.987  0.3280 -0.1408 -0.0931
13810SOL     OW46240  10.329   5.167   9.050  0.3110  0.1277  0.5752
13810SOL    HW146241  10.293   5.153   8.962 -1.5966  1.6980  1.0525
13810SOL    HW246242  10.263   5.131   9.109  0.6469  0.8769  1.4249
13811SOL     OW46243  12.533   6.917  10.221  0.5625 -0.1933  0.4265
13811SOL    HW146244  12.494   6.911  10.308 -3.1244  0.6831 -0.9852
13811SOL    HW246245  12.489   6.848  10.170 -0.3099  1.7747 -1.6540
13812SOL     OW46246   9.076  10.969  10.641  0.0947  0.2842 -0.2282
13812SOL    HW146247   9.000  11.005  10.595  0.1984 -1.2415 -1.7313
13812SOL    HW246248   9.127  11.045  10.669 -0.9792  1.2979 -0.9704
13813SOL     OW46249   7.834   9.292   0.656 -0.0679  0.4525  0.0277
13813SOL    HW146250   7.912   9.343   0.677 -1.3706  2.5339  0.1057
13813SOL    HW246251   7.814   9.245   0.737  0.7724  0.3421  0.1816
13814SOL     OW46252  10.214   6.388   5.970 -0.6823  0.1670  0.1182
13814SOL    HW146253  10.204   6.434   5.887  0.8489  0.5852  0.1299
13814SOL    HW246254  10.132   6.403   6.016 -1.6298 -0.2246 -1.3768
13815SOL     OW46255   5.847   0.179   6.191 -0.2403  0.3415  0.6228
13815SOL    HW146256   5.778   0.115   6.174 -2.2387  1.6884  3.0193
13815SOL    HW246257   5.850   0.233   6.112 -2.3235  0.5390  0.6123
13816SOL     OW46258   4.099   3.366   3.113 -0.4761 -0.0274 -0.2011
13816SOL    HW146259   4.065   3.454   3.128 -0.2037  0.0248  0.1317
13816SOL    HW246260   4.084   3.319   3.195  2.5931  0.7753  0.9436
13817SOL     OW46261   2.794   3.339   1.058  0.3040  0.5094  0.5192
13817SOL    HW146262   2.770   3.247   1.070  0.8104  0.4543  1.1681
13817SOL    HW246263   2.726   3.375   1.000  0.7228 -0.5506 -0.6869
13818SOL     OW46264  10.246  11.864   6.458  0.0073  0.1461 -0.1775
13818SOL    HW146265  10.154  11.880   6.477  0.0958 -0.8781  1.2043
13818SOL    HW246266  10.256  11.891   6.366 -1.5688  0.5958 -0.2475
13819SOL     OW46267   4.580   0.927   0.275 -0.1911  0.4276  0.0678
13819SOL    HW146268   4.500   0.980   0.282  0.2031  0.8702  1.6995
13819SOL    HW246269   4.574   0.885   0.189 -1.5968  1.3816 -0.3319
13820SOL     OW46270   2.191  12.326   1.137  0.2204 -0.1527 -0.5755
13820SOL    HW146271   2.140  12.404   1.117  0.7001  0.1301 -0.7202
13820SOL    HW246272   2.127  12.262   1.168  0.1620  1.3702  2.9227
13821SOL     OW46273   0.845   4.155   2.206  0.2427 -0.6989 -0.0817
13821SOL    HW146274   0.772   4.196   2.159 -0.5584 -1.4603  0.4570
13821SOL    HW246275   0.900   4.119   2.137  0.0839 -0.1709 -0.4976
13822SOL     OW46276   4.121   6.965   9.104 -0.1377  0.4830 -0.1947
13822SOL    HW146277   4.075   6.921   9.176  0.2740 -0.2953 -0.3904
13822SOL    HW246278   4.064   7.038   9.080 -1.8739 -1.1038 -1.1834
13823SOL     OW46279  11.416   5.466  11.785  0.6304  0.2893  0.2405
13823SOL    HW146280  11.494   5.452  11.732  0.5022  0.3349  0.0390
13823SOL    HW246281  11.386   5.378  11.807  1.5558  0.2773  1.5359
13824SOL     OW46282   8.690   5.993   7.682  0.1733 -0.2248 -0.3438
13824SOL    HW146283   8.642   6.075   7.675  2.2872  1.0555 -0.8595
13824SOL    HW246284   8.625   5.930   7.712 -1.0261  2.1806  2.7950
13825SOL     OW46285   9.580   1.581  10.849 -0.4644 -0.3271  0.1341
13825SOL    HW146286   9.486   1.600  10.840  0.1314  2.1054 -2.0466
13825SOL    HW246287   9.615   1.587  10.760  1.9402 -0.2098  1.0067
13826SOL     OW46288  10.936  12.598   9.881 -0.0869 -0.2038 -0.1891
13826SOL    HW146289  11.021  12.596   9.924  0.4405  0.9456 -1.1213
13826SOL    HW246290  10.887  12.665   9.928 -1.2002 -2.1053  1.5417
13827SOL     OW46291   9.908   5.455   0.887  0.3245 -0.1997  0.0877
13827SOL    HW146292   9.964   5.479   0.813  0.2720  0.5194  0.2804
13827SOL    HW246293   9.819   5.476   0.859 -0.0058 -2.2862 -0.6149
13828SOL     OW46294   7.101   9.720   2.252  0.6412  0.2305 -0.5234
13828SOL    HW146295   7.173   9.740   2.312  0.5694  0.0452 -0.3752
13828SOL    HW246296   7.031   9.779   2.280  0.9286  0.8227 -1.0397
13829SOL     OW46297   1.841   1.222   8.500 -0.1120 -0.1913  0.5257
13829SOL    HW146298   1.926   1.243   8.539 -0.1795 -0.1958  0.6742
13829SOL    HW246299   1.842   1.127   8.489 -0.8713 -0.4436  2.3420
13830SOL     OW46300  11.101   1.876   9.351 -0.1703  0.3335  0.5084
13830SOL    HW146301  11.024   1.931   9.362  1.0429  2.7031 -1.7407
13830SOL    HW246302  11.067   1.786   9.346 -2.7066  1.2455  0.1124
13831SOL     OW46303   9.637   5.984   9.802 -0.2758 -0.2354 -0.3506
13831SOL    HW146304   9.691   5.973   9.724  2.6053  0.8073  1.3279
13831SOL    HW246305   9.637   6.078   9.818  0.2075 -0.5166  1.5072
13832SOL     OW46306   5.520   0.462   1.265  0.2586 -0.2044 -0.4830
13832SOL    HW146307   5.580   0.519   1.217 -0.6039  0.0291 -1.3002
13832SOL    HW246308   5.540   0.374   1.235  0.6842 -0.1993 -0.2145
13833SOL     OW46309   0.776   5.409   0.056 -0.2483  0.2857  0.1026
13833SOL    HW146310   0.795   5.468  -0.016  1.5600 -0.7672 -0.3374
13833SOL    HW246311   0.718   5.459   0.114  0.2395  2.0147 -0.8537
13834SOL     OW46312   9.932   3.093   2.537 -0.6168  0.0219  0.5234
13834SOL    HW146313  10.026   3.095   2.557 -0.3287 -0.2303 -0.6669
13834SOL    HW246314   9.894   3.163   2.589  0.4577  1.0139  0.0169
13835SOL     OW46315  11.331   3.615   2.501  0.4261 -0.1759  0.1575
13835SOL    HW146316  11.296   3.587   2.586  1.4873 -2.4403 -0.0642
13835SOL    HW246317  11.425   3.594   2.506  0.9450  1.6796 -0.8216
13836SOL     OW46318   8.056   7.983   8.870 -0.3943 -0.2527  0.1530
13836SOL    HW146319   7.969   7.951   8.891 -0.2095 -0.0318  1.3198
13836SOL    HW246320   8.041   8.055   8.809 -0.9162 -1.2654 -0.9599
13837SOL     OW46321  12.203   9.501  10.937 -0.6901 -0.5697  0.0037
13837SOL    HW146322  12.293   9.477  10.916 -0.4596 -0.9497  1.3068
13837SOL    HW246323  12.206   9.596  10.948 -0.1184 -0.7192  1.3872
13838SOL     OW46324   5.685   8.973   1.471 -0.5943  0.4253  1.0499
13838SOL    HW146325   5.709   8.890   1.513 -0.5987 -0.1822 -0.0771
13838SOL    HW246326   5.735   9.039   1.519  0.1403 -0.3439  1.3895
13839SOL     OW46327  11.020   0.448   8.448  0.2033  0.0751  0.4058
13839SOL    HW146328  11.071   0.425   8.526  0.6997 -1.3860 -0.2957
13839SOL    HW246329  11.069   0.409   8.376 -0.7169  0.6239 -0.5405
13840SOL     OW46330   6.035   5.029   1.542 -0.2070  0.5060 -0.0298
13840SOL    HW146331   6.016   4.949   1.492  0.4660  2.0414 -2.9657
13840SOL    HW246332   6.025   5.003   1.634 -1.8433 -2.4385 -0.9160
13841SOL     OW46333   2.493  12.298   2.998  0.4733 -0.4808 -0.1740
13841SOL    HW146334   2.545  12.358   2.945 -0.1927 -0.7392 -1.1432
13841SOL    HW246335   2.433  12.356   3.046  1.9778 -0.1380  1.3746
13842SOL     OW46336   7.981   0.905   1.719  0.0961  0.3976 -0.0122
13842SOL    HW146337   7.973   0.971   1.650  1.0615  1.8024  1.1675
13842SOL    HW246338   8.016   0.828   1.675  4.1682  2.3371 -0.6208
13843SOL     OW46339  10.531   2.222  10.570  0.2465  0.3664  0.0522
13843SOL    HW146340  10.520   2.140  10.619 -0.7053  1.3690  1.5945
13843SOL    HW246341  10.507   2.199  10.480 -2.7815 -0.4588  0.9611
13844SOL     OW46342  11.166   0.910   3.785  0.4576  0.0332  0.4531
13844SOL    HW146343  11.142   0.821   3.758  1.3266  0.1991 -0.9809
13844SOL    HW246344  11.087   0.962   3.769  0.5339 -0.1364 -0.5549
13845SOL     OW46345   8.399   0.047   0.769 -0.4093 -0.1238  0.3077
13845SOL    HW146346   8.427  -0.003   0.692  1.5783  0.2623  0.7202
13845SOL    HW246347   8.389   0.137   0.738  1.5471  0.2642  0.6892
13846SOL     OW46348   3.568   1.499   4.466 -0.2166  0.3118  0.4714
13846SOL    HW146349   3.654   1.503   4.508 -0.3610  0.6517  0.7359
13846SOL    HW246350   3.550   1.406   4.458  1.6498  0.0560 -2.6182
13847SOL     OW46351  11.777   3.452   0.760  0.0213 -0.5003 -0.8512
13847SOL    HW146352  11.767   3.382   0.696  0.3777 -0.9080 -0.4656
13847SOL    HW246353  11.868   3.446   0.789 -0.4988 -1.2363  0.7338
13848SOL     OW46354   3.055   7.490   5.248 -0.6606  0.0256 -0.1985
13848SOL    HW146355   3.045   7.395   5.240  1.0276 -0.2603  0.6880
13848SOL    HW246356   3.110   7.502   5.326 -2.7541  1.8547  1.1211
13849SOL     OW46357   2.802   2.965   7.522 -0.1006  0.2272  0.2725
13849SOL    HW146358   2.748   3.007   7.590 -2.2593 -0.9323 -0.6004
13849SOL    HW246359   2.833   2.884   7.563 -0.5027  0.0507  0.2358
13850SOL     OW46360   3.517   8.924   7.357 -0.1315 -0.0242 -0.6277
13850SOL    HW146361   3.600   8.971   7.349  1.2218 -1.8482  1.5756
13850SOL    HW246362   3.498   8.925   7.450 -2.2747 -0.2466 -1.0206
13851SOL     OW46363   9.406  10.496   1.911 -0.6976 -0.0818 -0.2231
13851SOL    HW146364   9.404  10.591   1.899  0.4093  0.2375  1.7060
13851SOL    HW246365   9.324  10.476   1.955 -1.4658 -0.2192 -1.6690
13852SOL     OW46366   3.465   5.788  12.415  0.4355 -0.0798  0.4840
13852SOL    HW146367   3.509   5.792  12.330  2.2659  2.0671  1.4240
13852SOL    HW246368   3.429   5.700  12.420 -1.3140  0.2360 -3.2438
13853SOL     OW46369   5.011   4.667   5.985 -0.2103  0.6704 -0.1719
13853SOL    HW146370   4.946   4.695   5.921 -2.7823 -1.5906  1.2192
13853SOL    HW246371   5.001   4.572   5.990  0.7822  0.6120  2.6161
13854SOL     OW46372  11.382   2.946  10.831  0.5693  0.1845 -0.5090
13854SOL    HW146373  11.404   2.976  10.919  1.2092  0.0009 -0.6016
13854SOL    HW246374  11.374   3.027  10.780 -0.6766  0.3349 -0.0910
13855SOL     OW46375   0.133  10.426   3.024 -0.2038 -0.3230 -0.2740
13855SOL    HW146376   0.223  10.422   3.058  0.0689 -0.2070 -0.9706
13855SOL    HW246377   0.114  10.520   3.019 -0.3126 -0.3446 -0.2714
13856SOL     OW46378   6.846   1.426   1.244 -0.3195  0.3137  0.3085
13856SOL    HW146379   6.829   1.465   1.158 -0.1683  1.2117  0.6681
13856SOL    HW246380   6.929   1.465   1.271  0.3547 -1.0394  0.2617
13857SOL     OW46381   9.825   3.514   4.638  0.1848  0.0058 -0.0690
13857SOL    HW146382   9.814   3.466   4.720 -2.4054 -0.3029 -0.5101
13857SOL    HW246383   9.756   3.480   4.581  1.3957  0.8066 -2.1059
13858SOL     OW46384   2.755  11.570  10.357  0.1646 -0.6576 -0.2447
13858SOL    HW146385   2.831  11.603  10.309  0.7061 -2.0094 -0.3451
13858SOL    HW246386   2.766  11.604  10.446 -0.3991  1.1426 -0.8109
13859SOL     OW46387   4.523   8.044  12.604 -0.3939  0.0068 -0.9070
13859SOL    HW146388   4.444   8.093  12.581 -1.6260  0.3454  3.3283
13859SOL    HW246389   4.503   7.954  12.579 -0.6317  0.5934 -3.0239
13860SOL     OW46390   3.550  12.313  10.872  0.0374 -0.0977  0.4703
13860SOL    HW146391   3.477  12.252  10.867 -0.7856  0.9276 -0.4221
13860SOL    HW246392   3.613  12.270  10.931 -0.6631 -1.6200  0.1562
13861SOL     OW46393   3.719  10.672  11.195  0.2602 -0.5278 -0.4404
13861SOL    HW146394   3.727  10.765  11.176 -0.3995 -0.5689 -0.9857
13861SOL    HW246395   3.771  10.658  11.273  1.1465  0.1180 -0.9029
13862SOL     OW46396   7.953  12.498  10.749 -0.7940  0.1784 -0.6855
13862SOL    HW146397   7.934  12.513  10.841  0.3252 -1.1048 -0.2082
13862SOL    HW246398   8.047  12.517  10.741 -0.7735 -0.2265 -1.4537
13863SOL     OW46399   7.757   2.860   8.873 -0.0489 -0.4738 -0.0852
13863SOL    HW146400   7.700   2.933   8.847  2.7371  2.0443  0.4108
13863SOL    HW246401   7.827   2.859   8.807  0.8115 -1.7079  0.8013
13864SOL     OW46402   5.902   0.792   2.291  0.2237  0.2300  0.1555
13864SOL    HW146403   5.871   0.745   2.369 -0.7501  1.1895  0.3734
13864SOL    HW246404   5.997   0.788   2.297  0.1987 -2.4945 -0.3338
13865SOL     OW46405  11.969   7.259   4.440  0.3560 -0.9184  0.1602
13865SOL    HW146406  11.998   7.274   4.350  1.5851 -0.7185  0.5791
13865SOL    HW246407  11.993   7.169   4.459 -0.8510 -1.3047 -0.0441
13866SOL     OW46408   6.370   5.455   1.612  0.0968  0.0969 -0.0328
13866SOL    HW146409   6.450   5.412   1.581  0.0334  0.6383 -0.9783
13866SOL    HW246410   6.397   5.545   1.631 -0.3157  0.3279 -0.5203
13867SOL     OW46411  11.636   4.745  11.484  0.4729  0.6036 -0.5243
13867SOL    HW146412  11.610   4.675  11.545  1.8589 -0.3500 -0.9771
13867SOL    HW246413  11.720   4.776  11.518  1.0635  0.3426 -1.6842
13868SOL     OW46414   1.629  11.538   9.480 -0.2267 -0.4875  0.1999
13868SOL    HW146415   1.652  11.446   9.490  0.4648 -0.4907 -1.1377
13868SOL    HW246416   1.694  11.585   9.532 -1.3655 -0.7716  1.9665
13869SOL     OW46417   8.143  12.159   7.603  0.1965 -0.0105 -0.2866
13869SOL    HW146418   8.068  12.192   7.554  0.5097  2.7679  0.9531
13869SOL    HW246419   8.218  12.209   7.569  0.7761  0.3077  1.3752
13870SOL     OW46420   4.808   7.913   4.166  0.2885 -0.0657  0.2547
13870SOL    HW146421   4.885   7.865   4.197 -0.1897 -0.3176  1.0774
13870SOL    HW246422   4.796   7.883   4.076  0.5151 -0.8414  0.4711
13871SOL     OW46423   8.091   3.934   0.275 -0.2612 -0.3116  0.0738
13871SOL    HW146424   8.092   3.892   0.361 -0.1294 -1.9623 -0.6971
13871SOL    HW246425   8.165   3.895   0.228  0.4909  1.5431 -0.3735
13872SOL     OW46426   4.327   0.331   2.941 -0.4325 -0.6130 -0.1880
13872SOL    HW146427   4.397   0.267   2.943  1.2483  1.1321  1.2742
13872SOL    HW246428   4.364   0.406   2.895 -1.6853 -0.0077 -0.2647
13873SOL     OW46429   2.909  11.105   1.281  0.4736  0.6289  0.3270
13873SOL    HW146430   2.963  11.125   1.357 -0.1040  0.9333  0.6604
13873SOL    HW246431   2.966  11.050   1.225  0.1485 -1.6046  2.0461
13874SOL     OW46432   9.677  12.128   5.594  0.1131  0.3566 -0.5878
13874SOL    HW146433   9.616  12.181   5.645 -0.8381 -0.1770 -1.1379
13874SOL    HW246434   9.753  12.118   5.651  0.3572  2.3300 -0.4879
13875SOL     OW46435   5.647  10.435   7.154  0.2490 -0.2776 -0.2375
13875SOL    HW146436   5.617  10.449   7.064  2.4426  0.2079 -0.9554
13875SOL    HW246437   5.567  10.438   7.207 -1.3015 -2.2562 -2.3144
13876SOL     OW46438  10.314   2.384   7.015 -0.4279  0.1731 -0.0345
13876SOL    HW146439  10.269   2.420   6.939 -0.5355  0.9489  0.3944
13876SOL    HW246440  10.404   2.416   7.007  0.3440 -2.0432 -1.3437
13877SOL     OW46441   9.645   8.588   4.522 -0.5049  0.4249 -0.1987
13877SOL    HW146442   9.662   8.508   4.473 -0.0455  0.8569 -0.7612
13877SOL    HW246443   9.639   8.560   4.614 -1.7073 -0.4410 -0.5137
13878SOL     OW46444  10.291   7.031   4.155 -0.5431 -0.4770 -0.4290
13878SOL    HW146445  10.364   6.981   4.117 -1.0874 -0.5139 -1.4290
13878SOL    HW246446  10.286   6.999   4.245  1.0599 -0.0491 -0.1448
13879SOL     OW46447  11.895   4.916   3.678  0.0356  0.3361 -0.1221
13879SOL    HW146448  11.926   4.932   3.767 -0.2015 -0.2029  0.0615
13879SOL    HW246449  11.817   4.969   3.670 -1.2533 -1.3227  0.7828
13880SOL     OW46450  12.639  11.448   8.993 -0.2609 -0.1969  0.0881
13880SOL    HW146451  12.692  11.459   9.071  0.1630  0.0765 -0.2320
13880SOL    HW246452  12.608  11.536   8.972  1.7670  0.2169 -1.5285
13881SOL     OW46453   1.347  10.216   4.490  0.6155  0.1483 -0.7960
13881SOL    HW146454   1.434  10.185   4.464  0.7559  1.5153 -2.0525
13881SOL    HW246455   1.294  10.208   4.410 -0.3501 -0.3489 -0.1344
13882SOL     OW46456  10.631  10.536   6.187  0.3815  0.0201  0.2743
13882SOL    HW146457  10.704  10.494   6.140  0.7380  0.5069  0.3859
13882SOL    HW246458  10.622  10.622   6.146 -1.6469 -0.8601 -1.2901
13883SOL     OW46459   9.249   5.601   7.535  0.0564 -0.1680 -0.0690
13883SOL    HW146460   9.281   5.512   7.521 -0.9003 -0.5586  0.0990
13883SOL    HW246461   9.327   5.653   7.550  0.5401 -1.3218  1.7311
13884SOL     OW46462   9.697   7.353   1.784  0.1759 -0.0455  0.0155
13884SOL    HW146463   9.720   7.316   1.699  2.4998  2.6574 -0.6931
13884SOL    HW246464   9.615   7.399   1.769 -2.3339 -3.8285  0.7248
13885SOL     OW46465   4.315  11.598   7.404  0.1345  0.1435  0.2620
13885SOL    HW146466   4.266  11.515   7.404  0.1905  0.1079 -0.2715
13885SOL    HW246467   4.251  11.664   7.431 -0.0916  0.0291  0.0060
13886SOL     OW46468   8.100  11.148   8.042  0.1659 -0.0743 -0.4848
13886SOL    HW146469   8.167  11.200   8.087  1.1777 -1.3576 -0.4503
13886SOL    HW246470   8.132  11.139   7.953  0.7451 -1.8249 -0.1263
13887SOL     OW46471   3.911   8.610   5.343  0.0903 -0.1500 -0.1418
13887SOL    HW146472   3.967   8.683   5.315  0.0733  0.4277  1.2317
13887SOL    HW246473   3.823   8.647   5.342  0.0504 -0.2314  0.2983
13888SOL     OW46474   4.232  10.828   9.118 -0.1036  0.3680 -0.1450
13888SOL    HW146475   4.315  10.786   9.095 -0.2756  0.6596 -1.4161
13888SOL    HW246476   4.165  10.774   9.075 -0.4639  0.8858 -0.2531
13889SOL     OW46477   8.341  11.073  12.281  0.6558 -0.3910 -0.4818
13889SOL    HW146478   8.257  11.029  12.297  0.6541 -0.0716  0.5140
13889SOL    HW246479   8.401  11.032  12.344  1.3400 -0.8519 -1.4208
13890SOL     OW46480   4.978   7.393   4.539 -0.0374 -0.2603  0.0349
13890SOL    HW146481   5.053   7.441   4.504 -1.4060  0.9532 -1.3760
13890SOL    HW246482   5.000   7.301   4.524  0.8633  0.0971 -1.0128
13891SOL     OW46483   0.516  12.019   0.505 -0.6534 -0.8734 -0.4206
13891SOL    HW146484   0.495  11.978   0.589 -0.6869 -2.0924 -0.9986
13891SOL    HW246485   0.601  12.061   0.518 -1.6409  0.8768  0.8486
13892SOL     OW46486   4.537   3.105   7.648 -0.5721 -0.7478  0.3142
13892SOL    HW146487   4.493   3.162   7.585 -0.0739 -2.0937 -1.3475
13892SOL    HW246488   4.522   3.016   7.614  2.0217 -1.3678  0.5221
13893SOL     OW46489   8.348   7.099   3.213  0.8438  0.5375 -0.0326
13893SOL    HW146490   8.413   7.169   3.212 -0.4375  1.8952  2.3600
13893SOL    HW246491   8.399   7.019   3.203  2.8513  1.5746  1.2954
13894SOL     OW46492   8.696   7.965   6.063  0.0467 -0.0904  0.0930
13894SOL    HW146493   8.638   7.978   5.989 -0.4352  2.0712  0.7661
13894SOL    HW246494   8.783   7.986   6.030  0.0532 -0.5798 -0.2101
13895SOL     OW46495   7.473   4.955  11.418 -0.4737  0.1519  0.2946
13895SOL    HW146496   7.427   4.883  11.376 -1.8233  0.9585  0.3514
13895SOL    HW246497   7.530   4.991  11.350 -0.8054 -0.1015 -0.1177
13896SOL     OW46498   0.404   8.357   6.425 -0.1163 -0.5179  0.1889
13896SOL    HW146499   0.457   8.398   6.494 -0.5441 -1.1263  0.8864
13896SOL    HW246500   0.321   8.404   6.427  0.4515  0.6231 -1.0929
13897SOL     OW46501   0.056   1.720  11.932 -0.1690  0.0087  0.0379
13897SOL    HW146502   0.092   1.707  12.020  1.8922  0.7786 -0.6292
13897SOL    HW246503   0.027   1.811  11.931  2.0536  0.7708 -0.7567
13898SOL     OW46504  12.412   4.326  10.370  0.7497 -0.3499 -0.2323
13898SOL    HW146505  12.321   4.355  10.360  0.9354 -0.5039 -3.0828
13898SOL    HW246506  12.439   4.363  10.455 -2.0743 -0.7372  0.9575
13899SOL     OW46507  10.897  10.340   6.920 -0.0724  0.2711  0.1745
13899SOL    HW146508  10.821  10.286   6.943 -0.2344  0.9033  1.1975
13899SOL    HW246509  10.917  10.316   6.829  0.6121 -2.3722  0.9385
13900SOL     OW46510   3.110   6.994   3.035 -0.2306  0.5018 -0.2380
13900SOL    HW146511   3.163   7.027   3.108 -1.1197  1.7338 -0.1206
13900SOL    HW246512   3.174   6.959   2.973  0.5624 -0.3450  1.0015
13901SOL     OW46513   3.400   2.955   4.851  0.6785 -0.1240 -0.4609
13901SOL    HW146514   3.417   2.864   4.825  0.5673 -1.2130  2.7901
13901SOL    HW246515   3.306   2.966   4.839  0.7996 -0.1371 -1.5677
13902SOL     OW46516   0.977   7.453  11.806 -0.3560 -0.1645  0.0475
13902SOL    HW146517   1.036   7.383  11.832 -1.7340 -0.7945  1.7322
13902SOL    HW246518   1.024   7.534  11.829  0.1148 -0.6270  0.7606
13903SOL     OW46519   2.269   5.788   3.519 -0.5282 -0.5738 -0.0883
13903SOL    HW146520   2.290   5.820   3.607 -0.0570 -1.6105  0.1925
13903SOL    HW246521   2.341   5.820   3.464  0.1971 -1.5235  0.2820
13904SOL     OW46522   6.369   0.145   0.106  0.2831  0.0149 -0.2893
13904SOL    HW146523   6.366   0.100   0.022  2.1142  0.8786 -0.8773
13904SOL    HW246524   6.289   0.199   0.108  0.3152  0.1378 -1.5731
13905SOL     OW46525   7.932   9.824   5.856 -0.1332 -0.0704 -0.6117
13905SOL    HW146526   7.961   9.766   5.785  0.1556 -0.1069 -0.4632
13905SOL    HW246527   7.980   9.905   5.841  1.0809 -0.5655  0.4066
13906SOL     OW46528   3.223  11.594   3.613 -0.2057  0.1042 -0.1376
13906SOL    HW146529   3.203  11.513   3.659 -0.0080  0.5267  0.7025
13906SOL    HW246530   3.137  11.628   3.586 -0.2538 -0.6944 -1.0709
13907SOL     OW46531  10.790   8.448  10.218 -0.3993 -0.0278 -0.1211
13907SOL    HW146532  10.695   8.463  10.212 -0.3840  1.5632  2.1884
13907SOL    HW246533  10.801   8.402  10.302  0.8167 -1.2214 -0.8931
13908SOL     OW46534   3.777   4.449   0.951 -0.4202 -0.7803  0.0615
13908SOL    HW146535   3.814   4.442   1.039 -0.6502 -2.0315  0.0710
13908SOL    HW246536   3.772   4.359   0.919  1.5860 -0.2560 -2.0406
13909SOL     OW46537   8.867  11.444  10.089  0.4467 -0.1723  0.1968
13909SOL    HW146538   8.794  11.504  10.071  0.3992 -0.4258 -0.4796
13909SOL    HW246539   8.832  11.382  10.152 -0.0442 -0.5040 -0.3894
13910SOL     OW46540   3.775   7.787   2.827  0.1065  0.6007 -0.4969
13910SOL    HW146541   3.854   7.835   2.855  0.5618 -0.9744  1.1687
13910SOL    HW246542   3.809   7.710   2.783 -0.5045  0.1830 -0.2500
13911SOL     OW46543   9.387   6.286   2.714 -0.3974  0.0683 -0.8859
13911SOL    HW146544   9.398   6.191   2.721 -2.1264 -0.0718  0.7432
13911SOL    HW246545   9.456   6.314   2.654  0.6897 -2.0926 -0.7283
13912SOL     OW46546  12.587   2.341   7.463  0.7519  0.0289 -0.3096
13912SOL    HW146547  12.622   2.254   7.446 -0.8080 -0.8104  0.5924
13912SOL    HW246548  12.585   2.348   7.558  1.6115  1.3847 -0.3645
13913SOL     OW46549  12.332   5.324  12.629  0.1986  0.0173  0.3631
13913SOL    HW146550  12.320   5.362  12.715  0.4825 -1.6384  1.1873
13913SOL    HW246551  12.248   5.338  12.584  0.2662  1.4484  0.6549
13914SOL     OW46552   4.306  10.461   9.235 -0.1095 -0.3971 -0.4080
13914SOL    HW146553   4.394  10.445   9.203 -0.6222 -1.2895 -1.4616
13914SOL    HW246554   4.312  10.452   9.330  0.8612 -0.8108 -0.5053
13915SOL     OW46555   8.491   4.075   5.583 -0.7718 -0.2867 -0.2853
13915SOL    HW146556   8.553   4.128   5.532  0.8440 -1.1983  0.6551
13915SOL    HW246557   8.443   4.024   5.517 -0.7443  0.6600 -1.0489
13916SOL     OW46558   6.227   5.193  12.524  0.4715  0.2409  0.0002
13916SOL    HW146559   6.179   5.272  12.549 -1.7807 -0.8573 -0.5249
13916SOL    HW246560   6.209   5.130  12.594 -2.1929 -1.4084 -1.9279
13917SOL     OW46561  12.625   6.363   6.765  0.1098  0.3337  0.2491
13917SOL    HW146562  12.690   6.310   6.812  2.5442  2.2151 -0.8184
13917SOL    HW246563  12.541   6.326   6.792  1.3628  0.0688  4.6206
13918SOL     OW46564   1.779   0.419   6.394 -0.0171 -0.4565  0.4243
13918SOL    HW146565   1.762   0.359   6.322  0.2619 -0.8882  0.7145
13918SOL    HW246566   1.874   0.422   6.401 -0.0368 -0.2479  0.6342
13919SOL     OW46567   3.872   0.900   2.858 -0.3378  0.4384 -0.0840
13919SOL    HW146568   3.880   0.990   2.826 -0.6443  0.9282  1.1450
13919SOL    HW246569   3.824   0.909   2.941 -0.4447 -0.8716  0.0098
13920SOL     OW46570  10.596   7.152   7.285  0.0673  0.3305  0.7658
13920SOL    HW146571  10.543   7.075   7.306 -1.1038  1.1525  0.9226
13920SOL    HW246572  10.616   7.192   7.369  0.4560  0.3402  0.6719
13921SOL     OW46573   6.819   4.234   3.869  0.8673 -0.2944  0.5493
13921SOL    HW146574   6.877   4.247   3.794 -2.7302  1.4401 -2.1993
13921SOL    HW246575   6.836   4.309   3.926  1.7425 -0.1809  0.1513
13922SOL     OW46576   7.307  12.617  10.968 -0.0054 -0.0537  0.6330
13922SOL    HW146577   7.376  12.553  10.989 -0.5723 -0.8094  0.2490
13922SOL    HW246578   7.283  12.597  10.878  0.7280  1.5898  0.0348
13923SOL     OW46579   0.724   3.172  12.064 -0.6874 -0.5780  0.4695
13923SOL    HW146580   0.802   3.208  12.020 -0.5316  0.8051  1.7826
13923SOL    HW246581   0.679   3.123  11.996 -0.2401  1.1315 -1.1558
13924SOL     OW46582   8.745   5.230   6.622 -0.1370 -0.4542 -0.0565
13924SOL    HW146583   8.706   5.145   6.647 -2.5783  0.3274 -0.9389
13924SOL    HW246584   8.724   5.239   6.529  0.5693  0.8871 -0.0947
13925SOL     OW46585   4.624  10.293   2.094  0.1680  0.3615  0.0682
13925SOL    HW146586   4.666  10.207   2.100  0.3433  0.3152 -1.4293
13925SOL    HW246587   4.621  10.312   2.001  0.6374  2.2500  0.3880
13926SOL     OW46588   7.854   3.493   0.729 -0.0774 -0.0903  0.0328
13926SOL    HW146589   7.802   3.414   0.738  1.1897 -0.9924 -0.2627
13926SOL    HW246590   7.800   3.562   0.768 -0.3606 -1.4506  2.2192
13927SOL     OW46591   0.873  12.208  10.630 -0.1974  0.9313 -0.1866
13927SOL    HW146592   0.932  12.142  10.666  2.1763  2.9516 -0.1403
13927SOL    HW246593   0.825  12.241  10.706  0.1823  0.7711  0.1295
13928SOL     OW46594   6.015   9.461   7.416 -0.4074 -0.1443 -0.1694
13928SOL    HW146595   5.999   9.446   7.509 -0.2188 -0.2266 -0.1508
13928SOL    HW246596   5.929   9.486   7.381 -0.4428  0.0615  0.0597
13929SOL     OW46597   7.968   1.931   3.584 -0.0328  0.1017 -0.6729
13929SOL    HW146598   7.964   1.941   3.489 -0.1726  0.0160 -0.6756
13929SOL    HW246599   7.891   1.879   3.606 -0.0119  0.1393 -0.5104
13930SOL     OW46600   0.462   4.586   4.864  0.6726  0.3996 -0.0037
13930SOL    HW146601   0.508   4.505   4.882 -1.8209 -1.1102 -0.0121
13930SOL    HW246602   0.503   4.620   4.784  1.3909 -1.1485 -0.3252
13931SOL     OW46603   0.279  11.462  10.313  0.3196  0.2321  0.2012
13931SOL    HW146604   0.188  11.432  10.311  0.5458 -0.5101  0.4101
13931SOL    HW246605   0.297  11.476  10.406  0.8845 -1.1780  0.3326
13932SOL     OW46606   7.815  11.274   7.715  0.0569  0.0121 -0.2411
13932SOL    HW146607   7.726  11.274   7.680  0.0457  0.6197 -0.2254
13932SOL    HW246608   7.807  11.237   7.803 -0.4072  1.3075  0.2890
13933SOL     OW46609   6.086   9.026   2.088  0.0314  0.0605 -0.4315
13933SOL    HW146610   6.094   9.006   1.994  0.8678 -0.0387 -0.3431
13933SOL    HW246611   6.176   9.039   2.118 -0.1979 -0.2967  0.4470
13934SOL     OW46612  10.241   7.519   4.517  0.1545  0.3447  0.2151
13934SOL    HW146613  10.238   7.545   4.609  0.5239 -0.2260  0.3902
13934SOL    HW246614  10.310   7.453   4.513  1.0599  1.3244 -0.7160
13935SOL     OW46615   8.178   2.449   7.851 -0.3878 -0.2819  0.2600
13935SOL    HW146616   8.201   2.541   7.858 -1.4032  0.1334 -1.1900
13935SOL    HW246617   8.094   2.441   7.898 -0.7064 -0.2777 -0.2971
13936SOL     OW46618  10.179   2.142   0.775 -0.2495  0.0112 -0.1332
13936SOL    HW146619  10.191   2.080   0.704  1.2002  0.9109 -0.6919
13936SOL    HW246620  10.222   2.101   0.850 -2.3879 -1.2726  0.5098
13937SOL     OW46621   3.133   2.895  11.113  0.5524 -0.0893 -0.2117
13937SOL    HW146622   3.115   2.872  11.022 -0.4484  0.5818 -0.2062
13937SOL    HW246623   3.047   2.917  11.149  1.0448  0.4697  0.6556
13938SOL     OW46624   3.721   8.612  10.701  0.4278  0.0502  0.1704
13938SOL    HW146625   3.697   8.697  10.664  1.4477  0.3223  0.1039
13938SOL    HW246626   3.685   8.614  10.790  0.2443  0.4601  0.0918
13939SOL     OW46627   1.559   3.479   3.689  0.6054 -0.1138 -0.0466
13939SOL    HW146628   1.621   3.545   3.659 -0.0495  0.5276 -0.0356
13939SOL    HW246629   1.555   3.491   3.783 -0.1156  0.3883 -0.1306
13940SOL     OW46630   3.148   8.175   3.005 -0.2811  0.1403  0.2589
13940SOL    HW146631   3.119   8.120   2.932 -1.3035 -1.3892  1.7440
13940SOL    HW246632   3.071   8.227   3.028 -0.2902 -0.1460  0.8937
13941SOL     OW46633   9.119  10.592   1.271 -0.1155 -0.1063 -0.8225
13941SOL    HW146634   9.083  10.511   1.234  0.2801 -0.7466  0.1632
13941SOL    HW246635   9.148  10.568   1.359  0.9882  0.8575 -0.9006
13942SOL     OW46636   5.309  10.196   1.752 -0.3206  0.0479 -0.0413
13942SOL    HW146637   5.394  10.169   1.718 -0.9847 -0.0985 -1.6294
13942SOL    HW246638   5.260  10.115   1.762  0.0402  0.0162  1.8754
13943SOL     OW46639  10.613  12.387   1.083  0.0332  0.2673 -0.0917
13943SOL    HW146640  10.560  12.457   1.046 -0.6453  0.2578  0.8265
13943SOL    HW246641  10.697  12.393   1.037 -0.2279  1.2871 -0.4525
13944SOL     OW46642   0.433   7.110   6.825 -0.5296 -0.2390 -0.6387
13944SOL    HW146643   0.439   7.064   6.909  0.8190  0.3287 -0.4010
13944SOL    HW246644   0.392   7.047   6.766  0.4946 -1.4430 -0.1011
13945SOL     OW46645   8.346  10.720   5.799 -0.5333  0.4219 -0.4409
13945SOL    HW146646   8.289  10.657   5.842 -0.1436 -0.9330 -1.7891
13945SOL    HW246647   8.429  10.674   5.788  0.1805  1.6276 -0.3597
13946SOL     OW46648   9.025   9.166   1.398 -0.4098  0.3022  0.9063
13946SOL    HW146649   9.042   9.208   1.482  1.8862  3.0906 -0.7329
13946SOL    HW246650   9.108   9.174   1.350 -1.7269 -0.7701 -1.7830
13947SOL     OW46651  10.183  11.530   5.311  0.5653  0.2847  0.3463
13947SOL    HW146652  10.203  11.469   5.241 -1.5012  0.6466 -0.6189
13947SOL    HW246653  10.208  11.484   5.391  0.9163 -1.0143 -0.4849
13948SOL     OW46654  12.408   1.633   2.733 -0.1477  0.3765  0.8653
13948SOL    HW146655  12.482   1.586   2.771 -0.2922 -0.0772  0.5954
13948SOL    HW246656  12.336   1.570   2.733 -0.7641  1.0642  1.8537
13949SOL     OW46657   4.147  10.339   0.576 -0.2888 -0.3943 -0.4190
13949SOL    HW146658   4.092  10.261   0.583  0.0508 -0.4955  2.5511
13949SOL    HW246659   4.103  10.404   0.631 -0.0705  1.2554 -2.0954
13950SOL     OW46660   5.957   8.468   5.016  0.0173  0.5435 -0.4726
13950SOL    HW146661   5.962   8.435   4.926 -0.9961 -3.2895  0.6960
13950SOL    HW246662   6.047   8.461   5.049  0.2060  1.0112 -0.8831
13951SOL     OW46663  10.336   1.472   8.197  0.1997 -0.0529  0.1080
13951SOL    HW146664  10.272   1.533   8.161 -1.2475 -1.1046  0.7660
13951SOL    HW246665  10.404   1.465   8.130 -0.7057  0.6293 -0.9022
13952SOL     OW46666   3.705   9.183   3.416  0.0531 -0.0822 -0.3303
13952SOL    HW146667   3.646   9.115   3.384  0.9219 -0.3512 -1.4061
13952SOL    HW246668   3.681   9.193   3.508 -1.3792 -0.4760 -0.6307
13953SOL     OW46669   2.877   0.200  11.124  0.6753  0.0495 -0.3678
13953SOL    HW146670   2.862   0.192  11.030  1.2039  1.3156 -0.5939
13953SOL    HW246671   2.936   0.275  11.132 -1.2592  1.5290  1.1297
13954SOL     OW46672   1.721   1.489  10.351  0.6923  0.7611  0.3309
13954SOL    HW146673   1.626   1.494  10.361  0.5436  1.9158 -1.2402
13954SOL    HW246674   1.746   1.575  10.316  2.0152 -0.2439 -1.3517
13955SOL     OW46675   0.335   1.746   6.547  0.0203 -0.3682  0.0569
13955SOL    HW146676   0.299   1.792   6.622  0.2095  2.0946 -1.2747
13955SOL    HW246677   0.342   1.655   6.576  0.5994  0.5650  3.1817
13956SOL     OW46678   9.367  11.605   2.298  0.6194  0.1479  0.2249
13956SOL    HW146679   9.286  11.631   2.343  1.2674  1.7985  0.5041
13956SOL    HW246680   9.344  11.607   2.205  0.3400  0.6446  0.3010
13957SOL     OW46681   5.302  11.815   6.560 -0.2444 -0.0151  0.2000
13957SOL    HW146682   5.317  11.852   6.647 -1.3799 -0.8571  0.7759
13957SOL    HW246683   5.269  11.889   6.508 -0.8171  0.1963  0.8484
13958SOL     OW46684   6.241  12.283   8.786  0.0195 -0.2179  0.3685
13958SOL    HW146685   6.307  12.225   8.824  2.0478  1.5465 -0.1902
13958SOL    HW246686   6.221  12.346   8.855  1.8989  1.5386 -0.5703
13959SOL     OW46687  12.385   8.635  12.125  0.7117  0.3609 -0.4478
13959SOL    HW146688  12.305   8.588  12.102  0.4298  0.8929 -0.5833
13959SOL    HW246689  12.445   8.620  12.052  0.9209 -0.4403 -0.1241
13960SOL     OW46690   3.602  10.705   7.891  0.2922  0.0976  0.1242
13960SOL    HW146691   3.558  10.771   7.837  0.8836 -0.0396 -0.5396
13960SOL    HW246692   3.609  10.746   7.977  0.8732  1.0210 -0.3356
13961SOL     OW46693   5.276   1.864   4.999 -0.6402  0.2818 -0.2674
13961SOL    HW146694   5.361   1.866   4.955 -0.2061  0.0134  0.5466
13961SOL    HW246695   5.255   1.956   5.016 -2.5577  0.7966 -4.2464
13962SOL     OW46696   1.259  12.534   8.347  0.4558 -0.3649  0.1528
13962SOL    HW146697   1.223  12.541   8.259 -0.0718  1.8739  0.4959
13962SOL    HW246698   1.348  12.568   8.339  0.9362 -1.5584  0.2212
13963SOL     OW46699  11.602   7.954   8.653 -0.1651 -0.1900  0.3303
13963SOL    HW146700  11.517   7.915   8.633 -0.2623 -0.3856  1.0669
13963SOL    HW246701  11.645   7.889   8.709  0.8748 -0.5273 -0.8411
13964SOL     OW46702   7.959  11.725   1.948  0.0381 -0.7528 -0.2844
13964SOL    HW146703   8.041  11.767   1.923 -1.2278  1.0764 -1.6253
13964SOL    HW246704   7.945  11.751   2.039  2.0545 -3.0730  0.7915
13965SOL     OW46705   0.018   6.254   5.157  0.2114 -0.1581 -0.2082
13965SOL    HW146706   0.025   6.180   5.216  0.5284  0.1693  0.1714
13965SOL    HW246707  -0.069   6.291   5.173  0.9153  0.9450  1.2825
13966SOL     OW46708  10.414   6.779   0.957  0.8176 -0.4184 -0.1268
13966SOL    HW146709  10.453   6.772   0.870  0.7385 -1.4435 -0.0953
13966SOL    HW246710  10.358   6.702   0.965  2.0718 -1.2476  1.4258
13967SOL     OW46711  10.895   1.792  10.111  0.2874 -0.0488  0.0148
13967SOL    HW146712  10.872   1.876  10.150  0.5683 -0.3444  0.8230
13967SOL    HW246713  10.976   1.766  10.154  0.7693 -0.2421 -0.9774
13968SOL     OW46714  10.914   6.975   5.833 -0.0179 -0.6435 -0.0106
13968SOL    HW146715  10.980   6.975   5.902  0.0487  0.1264 -0.0668
13968SOL    HW246716  10.884   7.066   5.828  0.2981 -0.5861 -1.2963
13969SOL     OW46717   4.578   7.235  10.926 -0.2968  0.1679  0.1211
13969SOL    HW146718   4.555   7.238  10.833 -2.2735  0.2136  0.5630
13969SOL    HW246719   4.529   7.308  10.965 -0.8527 -0.8800  1.4591
13970SOL     OW46720  10.394  12.333   6.585  0.1383 -0.1213 -0.0391
13970SOL    HW146721  10.308  12.293   6.595 -0.0629  0.4621  0.6119
13970SOL    HW246722  10.402  12.349   6.491  0.8346 -2.9991 -0.5792
13971SOL     OW46723   9.423   0.312   5.603 -0.1526  0.0539 -0.0733
13971SOL    HW146724   9.390   0.395   5.569  0.1728 -0.1251 -0.8600
13971SOL    HW246725   9.348   0.272   5.647 -0.7000  0.1100 -0.9393
13972SOL     OW46726   5.810   8.305   0.719  0.0924  0.6518 -0.0642
13972SOL    HW146727   5.765   8.267   0.644 -0.8872 -0.2999  0.9797
13972SOL    HW246728   5.819   8.398   0.697  0.2389  0.3170 -1.5384
13973SOL     OW46729   6.107   2.391  12.257 -0.2645  0.0959  0.6350
13973SOL    HW146730   6.024   2.437  12.248 -0.6254 -0.7454 -0.7434
13973SOL    HW246731   6.173   2.458  12.244 -0.6971  0.8627  2.1981
13974SOL     OW46732   4.314   0.169   7.479  0.3709  0.9092  0.7825
13974SOL    HW146733   4.368   0.110   7.426 -1.0878 -0.1793  0.4302
13974SOL    HW246734   4.364   0.250   7.482  1.6468  0.2113 -0.1864
13975SOL     OW46735   0.206   9.024  12.174 -0.4022 -0.1247 -0.4333
13975SOL    HW146736   0.184   8.985  12.089  0.1835 -1.4230 -0.0120
13975SOL    HW246737   0.301   9.028  12.175 -0.3793 -0.6781  0.4059
13976SOL     OW46738  10.870   0.964   7.318 -0.1599  0.0489  0.5394
13976SOL    HW146739  10.902   0.995   7.403  0.3259 -1.6963  1.0319
13976SOL    HW246740  10.775   0.959   7.330 -0.2207  0.9355  0.5578
13977SOL     OW46741   1.522   6.286   8.120  0.3489 -0.2985  0.2051
13977SOL    HW146742   1.587   6.327   8.062  0.4439 -0.7332 -0.0022
13977SOL    HW246743   1.511   6.198   8.084  0.7199 -0.7241  1.0961
13978SOL     OW46744  11.415   2.578   0.755 -0.0195 -0.1975 -0.3535
13978SOL    HW146745  11.360   2.521   0.701  0.4458 -0.5915 -0.4222
13978SOL    HW246746  11.401   2.547   0.844 -1.5944  1.1217 -0.0905
13979SOL     OW46747   9.968  12.133   8.993 -0.3111 -0.0080 -0.1944
13979SOL    HW146748  10.051  12.102   8.957  0.2981  1.0701  0.2161
13979SOL    HW246749   9.981  12.132   9.088 -1.3772 -1.4158 -0.0241
13980SOL     OW46750   8.988   2.135   1.115  0.3973  0.3745  0.1544
13980SOL    HW146751   9.043   2.058   1.100 -0.6678 -0.4073  0.0944
13980SOL    HW246752   8.990   2.148   1.210  0.4069  0.1262  0.1894
13981SOL     OW46753   2.383   0.685   8.404  0.1696  0.1489 -0.2837
13981SOL    HW146754   2.310   0.737   8.438  0.4514 -0.5977  1.5942
13981SOL    HW246755   2.425   0.742   8.341  0.1151  2.0063  1.2609
13982SOL     OW46756  11.091   2.153  10.904  0.0119  0.3375  0.2009
13982SOL    HW146757  11.013   2.117  10.946  0.2794  0.3562  0.7273
13982SOL    HW246758  11.058   2.220  10.844 -0.4031  0.0538  0.1095
13983SOL     OW46759   7.147   4.402   3.296 -1.2814  0.0451  0.2207
13983SOL    HW146760   7.120   4.428   3.384 -2.3197 -0.5734  0.0934
13983SOL    HW246761   7.093   4.326   3.275 -0.8455  0.0082 -0.8464
13984SOL     OW46762   7.045  12.386   9.429 -0.0016 -0.7129  0.5960
13984SOL    HW146763   7.111  12.450   9.402  3.2165 -2.7037  2.9793
13984SOL    HW246764   7.005  12.356   9.347 -2.6923  4.9213 -0.6506
13985SOL     OW46765   3.518   8.659   9.094 -0.3746 -0.5739  0.1815
13985SOL    HW146766   3.580   8.729   9.073 -0.8385 -0.1860  0.0773
13985SOL    HW246767   3.438   8.705   9.121 -0.9088 -1.0474 -0.5440
13986SOL     OW46768   3.236   9.295   7.154  0.7281 -0.1940 -0.0176
13986SOL    HW146769   3.277   9.233   7.214  1.7191 -0.8789 -1.3506
13986SOL    HW246770   3.295   9.371   7.154  1.5556 -0.7987 -1.2148
13987SOL     OW46771   5.231   1.771   6.527  0.0518 -0.6042  0.2925
13987SOL    HW146772   5.191   1.851   6.560 -0.7452  0.2494 -2.4656
13987SOL    HW246773   5.298   1.801   6.465 -0.2626 -2.0342 -0.8035
13988SOL     OW46774   8.242   4.824   8.567 -0.1352 -0.1310 -0.0543
13988SOL    HW146775   8.148   4.835   8.559 -0.2511 -1.8690 -1.9998
13988SOL    HW246776   8.265   4.760   8.499  2.4513  0.2664  0.3225
13989SOL     OW46777   0.978  11.757   7.360  0.3758 -0.2613  0.0040
13989SOL    HW146778   0.940  11.671   7.377 -2.2946  0.6604 -0.8233
13989SOL    HW246779   1.013  11.751   7.271  0.5226 -0.5727  0.0804
13990SOL     OW46780  12.310   1.128   1.142  0.1130  0.0697 -0.2753
13990SOL    HW146781  12.372   1.200   1.132  1.3528 -0.7217  1.2284
13990SOL    HW246782  12.301   1.092   1.054  1.8043  0.2417 -0.5610
13991SOL     OW46783  12.633   9.354   8.950 -0.0730  0.1737 -0.8081
13991SOL    HW146784  12.651   9.266   8.984 -0.0400  0.4953  0.0350
13991SOL    HW246785  12.705   9.372   8.890  1.9312  1.0235  1.7118
13992SOL     OW46786  10.806  10.304   0.613  0.0277 -0.2358 -0.4822
13992SOL    HW146787  10.776  10.328   0.525  0.9046  0.3643 -0.6260
13992SOL    HW246788  10.760  10.365   0.671 -0.0174 -0.1749 -0.5808
13993SOL     OW46789   4.299  11.578   3.813  0.1542 -0.6589  0.4194
13993SOL    HW146790   4.207  11.552   3.820 -0.0627  0.0676  0.4018
13993SOL    HW246791   4.343  11.501   3.777 -0.9652 -0.1068 -2.4381
13994SOL     OW46792   7.700   0.430   5.949 -0.3336 -0.2959 -0.4759
13994SOL    HW146793   7.730   0.509   5.994 -0.8495 -0.5830  0.4022
13994SOL    HW246794   7.777   0.374   5.945 -0.2147 -0.1562 -0.1865
13995SOL     OW46795   5.884   5.589   0.546  0.0413 -0.0811  0.1584
13995SOL    HW146796   5.895   5.611   0.639 -0.7646 -1.4603  0.6128
13995SOL    HW246797   5.971   5.562   0.517  0.3631  0.6511  0.4285
13996SOL     OW46798   4.957   6.386   3.137 -0.3173  0.8532  0.0928
13996SOL    HW146799   5.046   6.412   3.110  0.0144 -0.8502 -0.5633
13996SOL    HW246800   4.971   6.328   3.211 -0.8360  0.0601 -0.4216
13997SOL     OW46801   7.361   1.329   0.912 -0.1529 -0.6676  0.8016
13997SOL    HW146802   7.441   1.362   0.870 -0.0463 -2.3882 -0.4501
13997SOL    HW246803   7.390   1.251   0.959 -0.8003 -0.3181  1.7902
13998SOL     OW46804  12.145   1.004   5.760  0.0737 -0.3852 -0.1092
13998SOL    HW146805  12.162   0.915   5.791  1.2403 -0.7398 -1.6570
13998SOL    HW246806  12.083   0.993   5.688 -1.5839  0.3057  1.1459
13999SOL     OW46807  11.622   9.891   9.570 -0.2149 -0.2071 -0.1186
13999SOL    HW146808  11.655   9.808   9.539 -1.5066 -0.6526 -0.3725
13999SOL    HW246809  11.616   9.881   9.665  4.7214  1.5076  0.6862
14000SOL     OW46810   6.337   9.131   5.285 -0.2328 -0.6687 -0.6934
14000SOL    HW146811   6.404   9.124   5.216  3.3064  0.8542  2.2319
14000SOL    HW246812   6.325   9.041   5.316  3.2746 -0.7630  0.9078
14001SOL     OW46813   1.423  12.160   9.211 -0.3411 -0.5140 -0.2573
14001SOL    HW146814   1.393  12.157   9.302  0.0934  0.8184 -0.0481
14001SOL    HW246815   1.483  12.086   9.203 -1.1736 -1.2554  0.2411
14002SOL     OW46816   1.055   3.214   8.200  0.2122  0.2925  0.2935
14002SOL    HW146817   1.124   3.275   8.171 -0.3992  0.6138 -0.5267
14002SOL    HW246818   0.974   3.252   8.166 -0.0505 -1.7027 -1.4660
14003SOL     OW46819   0.950   4.196  12.116 -0.1020 -0.4577 -0.4005
14003SOL    HW146820   0.900   4.132  12.166  0.5136 -0.9759 -0.4348
14003SOL    HW246821   1.003   4.143  12.057 -0.1033  0.1152 -0.9216
14004SOL     OW46822   6.358   1.131   1.378  0.5752 -0.1810  0.1318
14004SOL    HW146823   6.326   1.043   1.397  2.8622 -0.8664  1.1962
14004SOL    HW246824   6.435   1.117   1.322  2.0727  0.9503  1.7663
14005SOL     OW46825   8.439   7.158  10.785  0.0182  0.2578  0.3007
14005SOL    HW146826   8.492   7.237  10.780 -0.9330  0.9060  0.3621
14005SOL    HW246827   8.502   7.087  10.771  0.7038  1.0569 -0.8458
14006SOL     OW46828   6.677   4.457   9.766  0.4179  0.1341 -0.6869
14006SOL    HW146829   6.622   4.532   9.743  0.5322  0.1766 -0.8241
14006SOL    HW246830   6.706   4.476   9.855  0.7533  0.4423 -0.8560
14007SOL     OW46831   1.421   3.287  10.475 -0.5680 -0.0227 -0.3439
14007SOL    HW146832   1.412   3.366  10.422  0.3860  0.2169 -0.1496
14007SOL    HW246833   1.501   3.246  10.444 -0.0327  0.0856  0.8541
14008SOL     OW46834  10.924  12.505   9.586  0.0995  0.5770  0.6157
14008SOL    HW146835  10.836  12.468   9.588  0.4231 -0.2084  0.7566
14008SOL    HW246836  10.947  12.518   9.678  1.0449 -1.5181  0.7454
14009SOL     OW46837   1.866   1.334   4.391  0.4136 -0.2212  0.4597
14009SOL    HW146838   1.778   1.369   4.382  0.7165  1.3731  2.7106
14009SOL    HW246839   1.916   1.375   4.321 -0.6343 -1.3040 -0.9692
14010SOL     OW46840   6.476   9.656   4.416 -0.5141 -0.3061  0.8283
14010SOL    HW146841   6.394   9.657   4.366 -0.9973 -0.7332  1.5921
14010SOL    HW246842   6.540   9.619   4.356 -1.4031 -2.1962  0.9952
14011SOL     OW46843   3.521   3.778   1.331  0.1207  0.3158  0.1044
14011SOL    HW146844   3.594   3.815   1.281  1.0204  0.3734  1.4075
14011SOL    HW246845   3.563   3.725   1.398 -1.1010 -1.6593 -0.6040
14012SOL     OW46846   7.678  11.067  10.525 -0.0807 -0.5104 -0.7668
14012SOL    HW146847   7.747  11.129  10.503 -0.2794  0.0440  0.1282
14012SOL    HW246848   7.658  11.023  10.442  0.8989 -0.2356 -1.1623
14013SOL     OW46849   7.348  11.893   8.100  0.1441 -0.1137  0.4417
14013SOL    HW146850   7.265  11.934   8.076  0.1447  0.4642  1.4027
14013SOL    HW246851   7.415  11.958   8.079  0.4221 -0.7564 -0.7761
14014SOL     OW46852  11.848   0.334   5.868  0.0163  0.6151 -0.2162
14014SOL    HW146853  11.930   0.370   5.835  0.0929 -1.5107 -2.7525
14014SOL    HW246854  11.790   0.335   5.791 -1.4306 -0.3676  0.8145
14015SOL     OW46855   5.498   3.820   1.570 -0.3553  0.3438 -0.4273
14015SOL    HW146856   5.535   3.909   1.566  0.2400  0.1170  0.0483
14015SOL    HW246857   5.455   3.816   1.655  0.3259 -0.0908 -0.0910
14016SOL     OW46858   4.730   6.315   1.999 -0.7701 -0.4678  0.1217
14016SOL    HW146859   4.702   6.277   1.916 -0.2734  0.3551 -0.4434
14016SOL    HW246860   4.754   6.405   1.977  2.2059 -1.0532  0.5832
14017SOL     OW46861   0.185   8.132   8.236  0.2753  0.0606  0.3344
14017SOL    HW146862   0.179   8.226   8.218 -0.5230  0.1267  0.8919
14017SOL    HW246863   0.217   8.127   8.326  1.7177 -0.2395 -0.1588
14018SOL     OW46864   8.856   9.566   8.904  0.6454 -0.1121 -0.3458
14018SOL    HW146865   8.945   9.532   8.896  0.5555 -0.0111 -2.0128
14018SOL    HW246866   8.815   9.549   8.819 -0.8895 -0.0243  0.3322
14019SOL     OW46867   8.472   9.758   1.589 -0.2673  0.3772  0.4048
14019SOL    HW146868   8.534   9.762   1.515 -0.8871  1.4287 -0.0726
14019SOL    HW246869   8.390   9.728   1.549 -0.4358  0.3130  0.7972
14020SOL     OW46870  11.560   2.069  10.387  0.5251 -0.1545 -0.3577
14020SOL    HW146871  11.626   2.126  10.427  0.2948  0.7594 -1.2183
14020SOL    HW246872  11.481   2.084  10.438  0.8270 -0.7987  0.3062
14021SOL     OW46873   7.098  12.592   4.579 -0.5288 -0.3310 -0.0364
14021SOL    HW146874   7.056  12.664   4.532 -0.1104 -0.8129 -1.1856
14021SOL    HW246875   7.189  12.621   4.592 -0.7076 -0.0853  0.7514
14022SOL     OW46876  12.015   4.727   5.364 -0.1185 -0.0215 -0.6156
14022SOL    HW146877  11.957   4.689   5.431  1.5643  0.2572  1.0918
14022SOL    HW246878  12.047   4.652   5.315 -0.4886 -0.3595 -0.3447
14023SOL     OW46879   0.972  12.262   4.525  0.2040  0.2217 -0.1776
14023SOL    HW146880   0.908  12.305   4.468  1.4713  0.3129 -1.6236
14023SOL    HW246881   0.975  12.172   4.493  0.8291  0.2381 -0.1829
14024SOL     OW46882   7.680   3.616   2.439 -0.0478  0.4821  0.3417
14024SOL    HW146883   7.594   3.599   2.478 -2.0222  0.9441 -3.3259
14024SOL    HW246884   7.681   3.710   2.421  0.9852  0.4017 -0.1219
14025SOL     OW46885  11.467   7.430  12.389  0.3186 -0.0229 -0.3133
14025SOL    HW146886  11.491   7.358  12.447  2.0394  0.6889 -0.0617
14025SOL    HW246887  11.434   7.388  12.310 -1.7095 -1.0154  0.9904
14026SOL     OW46888   6.384   5.946  10.851 -0.1250 -0.0864 -0.0587
14026SOL    HW146889   6.294   5.969  10.828 -0.2230 -0.5263 -0.1330
14026SOL    HW246890   6.438   6.006  10.800 -0.3688 -0.1922 -0.4473
14027SOL     OW46891   8.597   6.770  10.271  0.2161 -0.1881  0.6121
14027SOL    HW146892   8.625   6.847  10.320 -0.5805  0.8082 -0.4445
14027SOL    HW246893   8.501   6.775  10.270 -0.0479 -2.6471  2.7834
14028SOL     OW46894   6.789   9.508   9.821 -0.1646  0.2345  0.4534
14028SOL    HW146895   6.825   9.594   9.802 -2.3821  0.8745 -1.2422
14028SOL    HW246896   6.768   9.510   9.915  1.8128  0.6938  0.9139
14029SOL     OW46897  10.233   6.742   8.588  0.4515 -0.3149 -0.5443
14029SOL    HW146898  10.189   6.678   8.645 -0.7019  0.8394 -0.0886
14029SOL    HW246899  10.246   6.695   8.505  0.1152 -1.3011 -0.0555
14030SOL     OW46900   5.164   9.844  10.318  0.0705 -0.2445 -0.0682
14030SOL    HW146901   5.144   9.756  10.285 -1.3185 -0.4150  1.1546
14030SOL    HW246902   5.082   9.892  10.313  0.0622  0.0562  2.0355
14031SOL     OW46903   6.312   4.224   9.237  0.1864  0.0848  0.1895
14031SOL    HW146904   6.354   4.310   9.233 -0.6347  0.5532  1.1171
14031SOL    HW246905   6.345   4.178   9.160  2.3394  0.4156  0.8476
14032SOL     OW46906   4.667   2.793  10.507 -0.0955 -0.1844  0.2079
14032SOL    HW146907   4.573   2.788  10.490 -0.6076 -2.4098  2.9540
14032SOL    HW246908   4.704   2.719  10.458  0.4367  1.2202 -1.6061
14033SOL     OW46909   3.744   2.096   5.053  0.3404 -0.2539 -0.1767
14033SOL    HW146910   3.677   2.068   5.115  1.7589 -1.1070  1.0407
14033SOL    HW246911   3.788   2.169   5.096  1.7120 -1.2158  0.1364
14034SOL     OW46912   9.489  12.215   2.907 -0.1210  0.2206 -0.1436
14034SOL    HW146913   9.582  12.198   2.919 -0.2876 -0.1645  0.6289
14034SOL    HW246914   9.450  12.130   2.888 -0.2465  0.4545 -1.0077
14035SOL     OW46915   6.439  10.981   6.143 -0.3163  0.4984  0.2897
14035SOL    HW146916   6.456  10.910   6.082 -0.4686  0.4455  0.3079
14035SOL    HW246917   6.388  11.045   6.093  0.5543  0.9897  0.0246
14036SOL     OW46918   7.121   2.007   8.484 -0.2386  0.0192  0.1927
14036SOL    HW146919   7.212   2.034   8.474 -0.2461 -0.6569 -2.1870
14036SOL    HW246920   7.078   2.083   8.524  1.2219  0.5384  0.8664
14037SOL     OW46921   1.243   8.476  11.162  0.0482 -0.1938  0.2459
14037SOL    HW146922   1.200   8.422  11.095 -1.2182  0.4548  0.5068
14037SOL    HW246923   1.284   8.412  11.221  1.4648 -0.7650 -1.2920
14038SOL     OW46924  12.398   9.497   7.720  0.0361 -0.4997 -0.0954
14038SOL    HW146925  12.354   9.489   7.804  0.3993 -0.0755  0.1351
14038SOL    HW246926  12.338   9.546   7.665 -0.5056 -1.3766 -0.3053
14039SOL     OW46927  11.172   2.194   4.854  0.0950 -0.5727  0.5920
14039SOL    HW146928  11.195   2.158   4.939 -0.0410  1.6580  1.6433
14039SOL    HW246929  11.252   2.236   4.823  0.0163 -0.9716 -0.1816
14040SOL     OW46930   4.353   2.583   5.120 -0.2707  0.0219 -0.3355
14040SOL    HW146931   4.414   2.651   5.148  1.5446 -1.1901 -1.1798
14040SOL    HW246932   4.341   2.598   5.026 -0.4111 -0.4048 -0.3879
14041SOL     OW46933  11.113   9.385   7.911 -0.0213 -0.2146 -0.0434
14041SOL    HW146934  11.022   9.400   7.885  0.0963  1.3793  0.3772
14041SOL    HW246935  11.145   9.471   7.938  2.1265 -0.3996 -1.7562
14042SOL     OW46936   0.170  11.513   5.414  0.1960  0.2519  0.0946
14042SOL    HW146937   0.152  11.473   5.328  0.3053  0.7965 -0.1886
14042SOL    HW246938   0.166  11.440   5.475  1.6108 -0.4142 -0.5640
14043SOL     OW46939   8.543   6.857   1.291 -0.6730  0.6974 -0.4780
14043SOL    HW146940   8.625   6.847   1.338 -0.7217 -1.3063 -0.7405
14043SOL    HW246941   8.520   6.949   1.303  0.1210  0.6471  2.0617
14044SOL     OW46942   4.088   8.962   0.554  0.0142  0.1626  0.0883
14044SOL    HW146943   4.100   9.038   0.497  2.0984  0.6179  1.0308
14044SOL    HW246944   4.144   8.980   0.630 -0.8967 -1.4649  1.2085
14045SOL     OW46945   0.103  12.052   3.227 -0.2553 -0.2720  0.4234
14045SOL    HW146946   0.166  11.988   3.193  0.1829 -0.3920  1.4281
14045SOL    HW246947   0.025  12.001   3.245 -0.8172 -0.0594 -1.1924
14046SOL     OW46948   3.647   3.551   1.491 -0.1112 -0.0188  0.1461
14046SOL    HW146949   3.702   3.500   1.550  0.0146 -0.7543 -0.6008
14046SOL    HW246950   3.602   3.486   1.437 -0.9961  0.6046  0.0979
14047SOL     OW46951   7.800   1.192  11.074  0.1963 -0.1168  0.2335
14047SOL    HW146952   7.728   1.128  11.078 -0.4175  0.5703  0.3102
14047SOL    HW246953   7.879   1.139  11.085 -0.0270 -1.3556 -2.8699
14048SOL     OW46954   3.146   2.439   5.166 -0.0662 -0.1908 -0.0025
14048SOL    HW146955   3.095   2.515   5.139  1.2075  0.8174  0.3146
14048SOL    HW246956   3.191   2.468   5.246  1.0138 -1.0172 -0.2884
14049SOL     OW46957   4.551   1.609   1.484 -0.0552  0.1225 -0.3469
14049SOL    HW146958   4.498   1.651   1.552 -1.1761  1.1193 -1.7766
14049SOL    HW246959   4.488   1.571   1.424  0.8947 -0.0025 -1.2882
14050SOL     OW46960   8.271   2.455   4.878 -0.8352  0.2130  0.4092
14050SOL    HW146961   8.347   2.496   4.920 -0.1628  1.2699 -1.7196
14050SOL    HW246962   8.299   2.364   4.865  0.6094  0.8556 -1.4164
14051SOL     OW46963  11.518   2.806  11.509 -0.3020 -0.5558 -0.3827
14051SOL    HW146964  11.605   2.813  11.469 -1.0082  0.6577 -1.7982
14051SOL    HW246965  11.464   2.764  11.442 -0.6884 -2.0003  0.7611
14052SOL     OW46966   7.773  11.912   2.618 -0.3978  0.3327  0.5981
14052SOL    HW146967   7.735  11.829   2.590  2.2733 -0.4423 -1.1434
14052SOL    HW246968   7.820  11.944   2.541  0.7767  2.1552  1.9851
14053SOL     OW46969   5.889   4.541   3.674  0.1534 -0.0812  0.0533
14053SOL    HW146970   5.831   4.494   3.734  1.7042 -0.1160  1.6121
14053SOL    HW246971   5.830   4.581   3.610 -1.5521 -0.3054  1.4022
14054SOL     OW46972   2.981   9.902  12.196 -0.0041  0.1367  0.4146
14054SOL    HW146973   2.929   9.892  12.276  0.0269  0.4255  0.4734
14054SOL    HW246974   2.917   9.903  12.125 -0.1674  1.3205  0.5481
14055SOL     OW46975   5.759   9.403   0.515  0.5387  0.4547 -0.5081
14055SOL    HW146976   5.675   9.359   0.526  0.4603  0.7225  0.0162
14055SOL    HW246977   5.738   9.497   0.519  0.9595  0.5167  0.4659
14056SOL     OW46978   1.608   7.419   4.724  0.0458 -0.2145 -0.1988
14056SOL    HW146979   1.528   7.374   4.750 -0.4330  0.3148 -0.7435
14056SOL    HW246980   1.676   7.352   4.729 -0.0180 -0.2163  2.2733
14057SOL     OW46981   7.949   2.677  11.599 -0.1905  0.3219 -0.1806
14057SOL    HW146982   8.022   2.652  11.541 -0.6440 -1.1660 -0.1417
14057SOL    HW246983   7.981   2.755  11.645  0.1093  1.7159 -2.5744
14058SOL     OW46984   7.019  11.174   4.519 -0.0549  0.4497  0.0534
14058SOL    HW146985   7.065  11.097   4.485 -0.7082 -0.5896  1.3992
14058SOL    HW246986   6.929  11.143   4.532 -0.5408  1.7157 -0.1820
14059SOL     OW46987   0.113   9.786   8.650 -0.5743 -0.2955 -0.3525
14059SOL    HW146988   0.159   9.749   8.574  1.1131 -0.8266  0.8681
14059SOL    HW246989   0.129   9.724   8.720 -1.8228  0.3551  0.5429
14060SOL     OW46990   6.319   1.898  10.196  0.5321  0.0623 -0.0967
14060SOL    HW146991   6.405   1.923  10.230  0.9176 -0.3583 -0.7373
14060SOL    HW246992   6.265   1.885  10.274  1.1436  0.0014  0.3219
14061SOL     OW46993   0.707   0.810   9.382 -0.0765  0.2705  0.0242
14061SOL    HW146994   0.638   0.828   9.318  0.7609  0.7719 -0.7461
14061SOL    HW246995   0.765   0.885   9.377  1.0639 -0.5892 -0.0558
14062SOL     OW46996   6.687  11.961   5.000 -0.3505  0.1052 -0.0265
14062SOL    HW146997   6.725  11.882   5.039 -2.6073 -0.6910  0.7582
14062SOL    HW246998   6.748  12.031   5.022  0.6900 -1.0846  1.0374
14063SOL     OW46999   1.725   5.811  11.602 -0.4806  0.2826  0.1132
14063SOL    HW147000   1.792   5.830  11.667  0.9369  1.5971 -1.6250
14063SOL    HW247001   1.658   5.763  11.650  0.8911  0.4255  2.3152
14064SOL     OW47002   5.132   3.332  10.636 -0.0103 -0.5957 -0.4330
14064SOL    HW147003   5.108   3.295  10.721 -0.5563 -1.2469 -0.8651
14064SOL    HW247004   5.094   3.272  10.572  2.4448 -1.4687 -1.1616
14065SOL     OW47005   0.130   0.482   4.414  0.1264  0.3214  0.5894
14065SOL    HW147006   0.038   0.489   4.390  0.1499  0.7629  0.6229
14065SOL    HW247007   0.148   0.388   4.411  0.3732  0.3882 -2.0409
14066SOL     OW47008   9.211   7.564   0.434  0.3246  0.4732  0.1403
14066SOL    HW147009   9.192   7.594   0.345 -0.8624 -0.5480  0.0095
14066SOL    HW247010   9.144   7.606   0.488 -0.4325 -0.7096  0.1689
14067SOL     OW47011   2.023  10.868   5.693 -0.2648 -0.0109  0.3648
14067SOL    HW147012   2.083  10.795   5.709  1.5212  1.4261  0.5006
14067SOL    HW247013   2.079  10.945   5.690 -2.0047  1.2868 -0.5463
14068SOL     OW47014   5.564   3.063   8.974  0.0918 -0.1967  0.6816
14068SOL    HW147015   5.513   3.069   9.054 -0.7182  0.3923  0.1323
14068SOL    HW247016   5.547   2.975   8.940  1.3184 -0.8770  1.7039
14069SOL     OW47017   5.117   8.452   5.068  0.2311 -0.7417  0.5051
14069SOL    HW147018   5.211   8.439   5.061  0.2525 -1.0190  1.2681
14069SOL    HW247019   5.081   8.364   5.079 -0.0429 -0.5679  1.0354
14070SOL     OW47020   2.025  12.119   3.993  0.1499  0.0606  0.5413
14070SOL    HW147021   2.040  12.042   3.938 -1.9000  0.0839 -0.1231
14070SOL    HW247022   2.020  12.192   3.931  2.8896  0.9486  1.2168
14071SOL     OW47023   2.802   9.514   1.103  0.3611 -0.5263  0.1102
14071SOL    HW147024   2.785   9.422   1.085  1.5694 -1.0758  1.5700
14071SOL    HW247025   2.755   9.532   1.184  0.4448  0.0533  0.0369
14072SOL     OW47026   4.351   8.016   1.673 -0.9163 -0.4450  0.6208
14072SOL    HW147027   4.303   8.095   1.700 -0.2897 -0.3620  1.5586
14072SOL    HW247028   4.432   8.049   1.634 -0.4734 -0.6063  1.3690
14073SOL     OW47029  12.308   3.484   1.346 -0.3817 -1.0176 -0.4446
14073SOL    HW147030  12.375   3.537   1.303  0.2531 -1.1865  0.2994
14073SOL    HW247031  12.296   3.526   1.431 -1.2849 -0.9442 -0.6067
14074SOL     OW47032   2.757   1.512  11.682  0.2817 -0.0562  0.5502
14074SOL    HW147033   2.745   1.570  11.607  0.7093  0.1412  0.6289
14074SOL    HW247034   2.822   1.448  11.653  1.1739  0.5894  1.0552
14075SOL     OW47035   8.201   5.435  12.452 -0.0010  0.3499  0.1382
14075SOL    HW147036   8.125   5.423  12.509 -0.1269 -1.6719 -0.3596
14075SOL    HW247037   8.269   5.470  12.509 -0.9696  1.1536  0.8436
14076SOL     OW47038   9.195   2.041   9.494  0.3677 -0.8870 -0.0303
14076SOL    HW147039   9.156   2.102   9.558  2.5696  0.2704  0.3019
14076SOL    HW247040   9.120   1.995   9.457 -1.2105  0.3632  1.4151
14077SOL     OW47041  11.233   9.479  12.195  0.3659  0.2587 -0.1021
14077SOL    HW147042  11.305   9.498  12.135 -0.3374 -1.9681 -1.7912
14077SOL    HW247043  11.268   9.413  12.254 -0.4172 -1.2892 -1.3206
14078SOL     OW47044   2.198   5.630   3.297 -0.4885  0.0640  0.0909
14078SOL    HW147045   2.289   5.611   3.276 -0.3908  1.2477 -0.6069
14078SOL    HW247046   2.202   5.676   3.381 -0.3721  0.8290 -0.3297
14079SOL     OW47047   6.883   9.689   0.046  0.2201  0.4353  0.2206
14079SOL    HW147048   6.832   9.707  -0.033 -0.4946 -1.0990  0.2957
14079SOL    HW247049   6.853   9.603   0.075  1.7603  0.1765  1.1612
14080SOL     OW47050   4.893  11.603   4.022 -0.2904 -0.2569  0.6923
14080SOL    HW147051   4.871  11.510   4.029  1.1467 -0.6093  0.9010
14080SOL    HW247052   4.906  11.632   4.113  2.9214 -0.8511  0.5541
14081SOL     OW47053   2.329   1.739   3.465 -0.2771 -0.5286  0.2336
14081SOL    HW147054   2.401   1.794   3.495  0.0458 -0.9133  0.1782
14081SOL    HW247055   2.370   1.654   3.446 -0.1813  0.0553 -2.6588
14082SOL     OW47056  12.344  11.913   4.542  0.4576  0.2684 -0.3510
14082SOL    HW147057  12.249  11.910   4.531  0.4835  1.3720 -0.9635
14082SOL    HW247058  12.372  11.823   4.529 -0.4521  0.0159 -0.6460
14083SOL     OW47059  11.609  11.255   4.065  0.5608 -0.1531  0.5690
14083SOL    HW147060  11.684  11.288   4.016  0.1441  0.2805  0.2096
14083SOL    HW247061  11.629  11.162   4.081  2.0896  0.4086  2.2505
14084SOL     OW47062  11.397   8.900   6.083 -0.0252  0.4187  0.6945
14084SOL    HW147063  11.362   8.961   6.018  2.2472  1.4265  0.3122
14084SOL    HW247064  11.490   8.892   6.061  0.2423 -1.3839  2.1742
14085SOL     OW47065  10.610   3.650  11.462 -0.1685  0.0043 -0.3962
14085SOL    HW147066  10.541   3.715  11.472 -2.3088 -2.0145 -1.0421
14085SOL    HW247067  10.664   3.659  11.541 -2.3348  0.3642  1.1299
14086SOL     OW47068   4.737   2.257  10.154 -0.6807 -0.2620  0.0937
14086SOL    HW147069   4.779   2.333  10.114 -1.1272 -0.6073 -1.0803
14086SOL    HW247070   4.645   2.284  10.165 -0.5195 -0.0853  1.1525
14087SOL     OW47071   5.182  10.647   1.951  0.1237  0.3593 -0.2134
14087SOL    HW147072   5.176  10.670   1.858  0.0899 -0.6244 -0.4709
14087SOL    HW247073   5.110  10.585   1.964 -0.1225  0.8024  0.5725
14088SOL     OW47074   3.561   7.916   2.314 -0.6233 -0.4788  0.4957
14088SOL    HW147075   3.601   7.847   2.366 -0.0397  0.5627  1.4624
14088SOL    HW247076   3.634   7.957   2.268 -1.2721 -2.4712 -2.6259
14089SOL     OW47077   5.722   1.674  11.740  0.5088 -0.4864 -0.3985
14089SOL    HW147078   5.759   1.707  11.822  0.6456 -0.2183 -0.5649
14089SOL    HW247079   5.787   1.698  11.674  0.8142 -1.4667 -0.4727
14090SOL     OW47080   0.546  11.424   0.856  0.0425 -0.2215  0.4996
14090SOL    HW147081   0.459  11.446   0.890 -0.0835  2.0864 -1.0842
14090SOL    HW247082   0.534  11.341   0.811 -1.2754 -0.0827  0.5518
14091SOL     OW47083   6.538   6.014   2.416  0.0136 -0.0208  0.6693
14091SOL    HW147084   6.524   5.989   2.324  1.4843  0.1417  0.3862
14091SOL    HW247085   6.455   5.993   2.459 -0.8413  0.2737 -0.7741
14092SOL     OW47086   6.790  11.341  10.479 -0.8124 -0.3193 -0.2612
14092SOL    HW147087   6.736  11.281  10.530 -0.2857 -0.8614 -0.3264
14092SOL    HW247088   6.872  11.347  10.528 -0.1329 -1.2038 -1.2569
14093SOL     OW47089   0.814   5.156   8.315 -0.1691 -0.6271 -0.1658
14093SOL    HW147090   0.875   5.141   8.387 -0.1981  2.9754  0.7624
14093SOL    HW247091   0.868   5.152   8.236  0.1960 -2.7402  0.1206
14094SOL     OW47092   8.851   9.809   2.510 -0.1069  0.1327  0.1544
14094SOL    HW147093   8.805   9.820   2.593 -0.6770 -1.1268  0.0196
14094SOL    HW247094   8.940   9.785   2.535  0.3871  2.0627  0.4081
14095SOL     OW47095   0.459  10.453   2.523  0.4145  0.3708  0.2606
14095SOL    HW147096   0.428  10.495   2.604  1.1950  1.7177 -0.1087
14095SOL    HW247097   0.424  10.364   2.527  0.0136  0.5721  1.8399
14096SOL     OW47098   7.874   4.509   1.958 -0.1877 -0.1642 -0.7083
14096SOL    HW147099   7.840   4.530   1.872 -0.5844  0.4434 -0.4028
14096SOL    HW247100   7.969   4.498   1.944 -0.0932  0.9699 -1.0246
14097SOL     OW47101   4.423   2.339   2.574 -0.1698 -0.0980  0.5669
14097SOL    HW147102   4.484   2.397   2.621  0.2587 -0.1132  0.0451
14097SOL    HW247103   4.461   2.252   2.584 -0.2814 -0.1526  0.5103
14098SOL     OW47104   1.305   1.923  10.470 -0.1450 -0.0820  0.2077
14098SOL    HW147105   1.396   1.927  10.499 -0.0339 -0.4463 -0.0862
14098SOL    HW247106   1.257   1.975  10.535 -0.1194 -2.1196  1.9628
14099SOL     OW47107   6.588   9.727   2.169  0.9047  0.0740 -0.9832
14099SOL    HW147108   6.495   9.723   2.189  1.3969  0.3164  1.7831
14099SOL    HW247109   6.624   9.647   2.206  1.5590 -1.2993 -4.2150
14100SOL     OW47110   8.189   6.891   3.334  0.1381  0.1192 -0.1741
14100SOL    HW147111   8.270   6.929   3.369  0.1605 -0.9723  1.0021
14100SOL    HW247112   8.132   6.881   3.410 -0.9087  0.3440 -0.9041
14101SOL     OW47113   0.335   4.614   9.599  0.2493  0.5896  0.8148
14101SOL    HW147114   0.406   4.556   9.626  0.4644 -0.5595 -1.8928
14101SOL    HW247115   0.262   4.591   9.656  1.5641  0.7519  2.6564
14102SOL     OW47116   6.889   3.047   1.931  0.5989 -0.0319 -0.0392
14102SOL    HW147117   6.947   3.019   1.861  1.2021 -1.1302  0.8667
14102SOL    HW247118   6.916   2.996   2.007 -2.0803 -1.2286  0.2273
14103SOL     OW47119  10.841   6.088   0.717  0.0224 -0.2102  0.0841
14103SOL    HW147120  10.913   6.128   0.668 -0.5197 -0.0748 -0.6207
14103SOL    HW247121  10.771   6.153   0.717 -0.3707 -0.6220  0.1107
14104SOL     OW47122   1.500  10.608   2.827 -0.2051 -0.1629 -0.7310
14104SOL    HW147123   1.462  10.559   2.900 -1.1450  2.5179  0.7202
14104SOL    HW247124   1.435  10.675   2.806  1.7228  1.6358 -1.3429
14105SOL     OW47125   6.306   1.903   6.740  0.2233 -0.5252  0.1514
14105SOL    HW147126   6.341   1.841   6.676 -1.9895 -1.6129 -0.1120
14105SOL    HW247127   6.267   1.973   6.687  2.5751  1.1431  0.4447
14106SOL     OW47128   1.654   3.002  11.584 -0.6326  0.0497  0.2218
14106SOL    HW147129   1.606   2.994  11.667  1.6446 -0.6080  1.5546
14106SOL    HW247130   1.653   2.913  11.547 -0.8097  0.1379  0.0071
14107SOL     OW47131   2.013  11.162  11.011 -0.2053  0.1735 -0.0196
14107SOL    HW147132   1.919  11.155  10.995 -0.3165 -2.9712  1.3180
14107SOL    HW247133   2.020  11.210  11.093 -0.8384 -1.2778  0.9294
14108SOL     OW47134   6.551   5.455   8.992  0.1874  0.2226  0.0532
14108SOL    HW147135   6.553   5.481   9.084 -0.6903  1.3246 -0.2135
14108SOL    HW247136   6.489   5.383   8.988  1.8484 -1.3092  0.6385
14109SOL     OW47137   2.167  10.458   5.096  0.1263 -0.1416 -0.3415
14109SOL    HW147138   2.226  10.384   5.100  1.1334  0.5958 -1.1261
14109SOL    HW247139   2.080  10.421   5.115  0.8401 -1.2097  1.0001
14110SOL     OW47140   5.338   8.442   5.888  0.5735 -0.4236  0.4538
14110SOL    HW147141   5.266   8.503   5.875  2.0581  0.9305 -2.2269
14110SOL    HW247142   5.388   8.480   5.960  1.8255  2.0676 -1.5662
14111SOL     OW47143  11.481   1.606   7.392  0.1531  0.6046  0.5825
14111SOL    HW147144  11.440   1.611   7.306  1.2031  0.5826  0.0642
14111SOL    HW247145  11.501   1.697   7.415 -0.2784  0.6253  0.8819
14112SOL     OW47146   2.129   8.681   5.495 -0.3643 -0.6854  0.6553
14112SOL    HW147147   2.160   8.643   5.413  0.3097 -0.5476  0.8403
14112SOL    HW247148   2.140   8.611   5.560 -1.8582 -1.1498  0.4537
14113SOL     OW47149   1.530   6.629   0.978  0.0860 -0.2127  0.2045
14113SOL    HW147150   1.485   6.681   1.045 -0.6392  0.4657 -0.7749
14113SOL    HW247151   1.621   6.657   0.983 -0.3660  1.5580 -0.6173
14114SOL     OW47152   9.774   9.137   7.093  0.5393  0.4388 -0.2186
14114SOL    HW147153   9.771   9.224   7.052  2.6507  0.1180 -1.1577
14114SOL    HW247154   9.762   9.076   7.021 -1.1872 -0.1182  0.4723
14115SOL     OW47155  11.145   8.760  11.700  0.4340  0.3689 -0.3354
14115SOL    HW147156  11.189   8.718  11.773 -0.2297  1.2799  0.6331
14115SOL    HW247157  11.196   8.839  11.684 -1.0839  1.7660  1.2152
14116SOL     OW47158   4.468   3.065   4.389  0.2472 -0.1693  0.0433
14116SOL    HW147159   4.411   2.993   4.416  0.0664 -0.3792 -0.8680
14116SOL    HW247160   4.416   3.144   4.404 -0.5081 -0.3899 -1.2744
14117SOL     OW47161   2.756   4.722  12.009 -0.1307 -0.1955 -0.0914
14117SOL    HW147162   2.801   4.780  12.070 -1.5149 -0.8705  1.6657
14117SOL    HW247163   2.766   4.764  11.924  0.0636  1.9093  0.9173
14118SOL     OW47164   1.374  10.389   0.004  0.5808  0.3715 -0.3853
14118SOL    HW147165   1.291  10.340   0.006 -0.0443  1.4348  0.4452
14118SOL    HW247166   1.350  10.478   0.026  1.8215  0.9224 -1.1506
14119SOL     OW47167   7.902   1.488   3.630 -0.5279 -0.1530 -0.3265
14119SOL    HW147168   7.904   1.513   3.722  0.0281 -1.3184 -0.0017
14119SOL    HW247169   7.869   1.566   3.584 -2.3697 -0.0863  1.0169
14120SOL     OW47170   6.208   6.034   3.930 -0.2987 -0.4103  0.3850
14120SOL    HW147171   6.238   5.944   3.938  0.5407 -0.1107  0.8180
14120SOL    HW247172   6.116   6.028   3.908 -0.2332 -1.3730  0.3637
14121SOL     OW47173   4.229   0.894   2.592 -0.1256  0.4072  0.1793
14121SOL    HW147174   4.181   0.813   2.575  1.3520 -0.4596 -0.0461
14121SOL    HW247175   4.177   0.962   2.549 -0.7656 -0.5858 -0.6803
14122SOL     OW47176   7.099   8.120   8.055 -0.1479  0.5215 -0.0657
14122SOL    HW147177   7.053   8.046   8.015 -1.5674  1.6964 -0.6961
14122SOL    HW247178   7.051   8.137   8.136 -0.5983  1.5009 -0.5273
14123SOL     OW47179   5.049   7.929   1.747 -0.3104  0.0176 -0.4170
14123SOL    HW147180   5.057   7.835   1.727 -0.8134 -0.7728  2.6465
14123SOL    HW247181   4.997   7.933   1.827  0.8337  2.8386  0.3173
14124SOL     OW47182   9.673   5.250   0.684 -0.0798  0.8096  0.4290
14124SOL    HW147183   9.635   5.335   0.705 -0.0396  0.8483  0.3471
14124SOL    HW247184   9.682   5.206   0.768 -0.6456  0.6585  0.4150
14125SOL     OW47185  11.356   1.864   6.197 -0.7711  0.5359 -0.0943
14125SOL    HW147186  11.265   1.868   6.166  0.1541  1.1359 -3.0494
14125SOL    HW247187  11.388   1.954   6.188  0.3732  0.1688  0.1570
14126SOL     OW47188   9.380   3.100   9.677 -0.7654 -0.4419 -0.0754
14126SOL    HW147189   9.414   3.184   9.648 -0.7857 -0.1084  0.8131
14126SOL    HW247190   9.290   3.118   9.702 -0.8906 -0.8169 -0.2587
14127SOL     OW47191   5.037   4.184   6.753 -0.3523  0.3571  0.9029
14127SOL    HW147192   5.066   4.103   6.712 -1.2643 -0.6220  2.1267
14127SOL    HW247193   5.085   4.253   6.707 -1.2579 -0.6548 -1.7775
14128SOL     OW47194   1.929  10.477   0.931  0.1846  0.0729  0.2629
14128SOL    HW147195   1.848  10.528   0.930  0.5804  0.7603  1.4598
14128SOL    HW247196   1.972  10.501   1.013  0.5651 -1.9232  0.6895
14129SOL     OW47197  12.342  12.481   1.548  0.1802 -0.1615  0.6892
14129SOL    HW147198  12.391  12.563   1.546 -0.2030  0.0691 -0.9567
14129SOL    HW247199  12.266  12.498   1.493 -0.4926 -1.2834  1.2387
14130SOL     OW47200   3.603  11.152  11.370 -0.4832 -0.1419 -0.6086
14130SOL    HW147201   3.685  11.160  11.418  0.4850 -0.6437 -2.0787
14130SOL    HW247202   3.582  11.241  11.341 -0.5784  0.0190 -0.0480
14131SOL     OW47203   4.663   3.434   6.807  0.2871  0.1970  0.3672
14131SOL    HW147204   4.750   3.462   6.834  0.1029  0.5141  0.6275
14131SOL    HW247205   4.679   3.359   6.749  0.8496  1.4636 -1.1986
14132SOL     OW47206   2.621   4.397   7.536  0.0445  0.1042  0.1189
14132SOL    HW147207   2.705   4.362   7.564  0.5113  0.2468 -1.0398
14132SOL    HW247208   2.577   4.323   7.493 -0.9554 -0.3058  1.7603
14133SOL     OW47209   9.305   8.209   8.600  0.0069  0.7140  0.5923
14133SOL    HW147210   9.379   8.213   8.662  1.0317  1.2325 -0.6176
14133SOL    HW247211   9.289   8.300   8.577 -1.1814  0.6242  0.9924
14134SOL     OW47212  12.313   6.984   6.149  0.1608  0.3271 -0.2013
14134SOL    HW147213  12.398   6.966   6.108  0.1311  0.0879 -0.1604
14134SOL    HW247214  12.255   6.918   6.112  0.8822 -2.2103  2.7986
14135SOL     OW47215  11.397   8.092   4.937  0.1195  0.0671 -0.0899
14135SOL    HW147216  11.436   8.179   4.939  0.6098 -0.1436 -0.2338
14135SOL    HW247217  11.471   8.032   4.948 -0.1404 -0.3503 -0.5440
14136SOL     OW47218   3.112  11.923   4.963 -0.3714  0.5420  0.0915
14136SOL    HW147219   3.108  11.828   4.975  1.4135  0.0383 -2.4012
14136SOL    HW247220   3.031  11.944   4.915 -0.4118  0.1506 -0.0165
14137SOL     OW47221  12.187   1.758   0.533 -0.7865 -0.3031  0.4589
14137SOL    HW147222  12.165   1.687   0.473  1.4992 -0.8939  0.2079
14137SOL    HW247223  12.207   1.832   0.477  0.1916 -0.5124  0.5016
14138SOL     OW47224  11.320   4.709   6.994 -0.7285 -0.0238  0.2377
14138SOL    HW147225  11.254   4.762   7.039 -0.0337  1.2781 -0.2260
14138SOL    HW247226  11.404   4.743   7.024 -0.2531  0.2289 -1.2718
14139SOL     OW47227   1.820   5.363   4.086  0.3296  0.0663  0.5596
14139SOL    HW147228   1.767   5.353   4.166 -1.0897 -1.2127 -0.4665
14139SOL    HW247229   1.909   5.374   4.118 -0.2139 -0.2724  2.3437
14140SOL     OW47230   2.998   7.926   7.516  0.2710 -0.3546 -0.1869
14140SOL    HW147231   2.942   7.854   7.486  0.2952 -0.9725  1.1900
14140SOL    HW247232   3.030   7.898   7.602 -0.0071  1.4433  0.5558
14141SOL     OW47233   6.399  10.628   5.598 -0.1161 -0.3300  0.2596
14141SOL    HW147234   6.404  10.605   5.691 -1.4187  0.1117  0.4567
14141SOL    HW247235   6.319  10.679   5.590 -0.3312 -0.8587 -1.2177
14142SOL     OW47236   7.916   4.206   3.976  0.0548 -0.7794  0.0112
14142SOL    HW147237   7.990   4.259   4.005  0.6437 -1.5955  0.0239
14142SOL    HW247238   7.847   4.270   3.958  0.6461 -0.0347  0.3236
14143SOL     OW47239  11.639   3.513   1.040  0.1418 -0.3359  0.1624
14143SOL    HW147240  11.622   3.422   1.065  0.2691  0.0284  1.6745
14143SOL    HW247241  11.615   3.563   1.118  2.1827  0.7426  0.1444
14144SOL     OW47242   7.327   8.978   6.969 -0.1545 -0.7746 -0.3492
14144SOL    HW147243   7.283   9.036   6.906  0.7695 -1.0594 -1.2784
14144SOL    HW247244   7.275   8.988   7.049 -1.5126 -0.5861 -1.2013
14145SOL     OW47245   2.982   8.674   7.521  0.2944 -0.2955 -0.2922
14145SOL    HW147246   2.945   8.621   7.452  0.2358  0.5399 -0.9133
14145SOL    HW247247   2.910   8.730   7.551  0.6407  0.2273 -0.4229
14146SOL     OW47248   7.900   5.043   8.018  0.1801  0.0425 -0.4029
14146SOL    HW147249   7.932   4.960   7.984  1.3908  0.1992  0.3086
14146SOL    HW247250   7.978   5.098   8.024 -0.5696  1.1796 -0.6919
14147SOL     OW47251  12.195   3.688   0.366 -0.1188  0.3813  0.1307
14147SOL    HW147252  12.178   3.595   0.353 -2.4534  0.6049  1.0676
14147SOL    HW247253  12.274   3.705   0.315  2.2129 -2.7099  2.3356
14148SOL     OW47254  10.085  11.623   8.337  0.4252  0.2837  0.0386
14148SOL    HW147255  10.003  11.662   8.308  0.6362  0.5041 -0.2769
14148SOL    HW247256  10.123  11.688   8.396 -0.3451 -0.4715  1.4118
14149SOL     OW47257   2.170   6.276   4.895 -0.4958  0.5569 -0.0411
14149SOL    HW147258   2.243   6.275   4.832 -1.7927  1.2651 -1.6311
14149SOL    HW247259   2.140   6.185   4.898  1.5614 -0.1652  2.0925
14150SOL     OW47260   6.211   7.910   7.344  0.1665  1.0165  0.4815
14150SOL    HW147261   6.286   7.851   7.341  0.7105  1.7284 -0.1553
14150SOL    HW247262   6.195   7.924   7.437  0.4930  0.4589  0.6267
14151SOL     OW47263   2.627   3.984   3.231  0.1222 -0.1880 -0.0225
14151SOL    HW147264   2.588   3.902   3.263  0.5560  0.5586  2.6705
14151SOL    HW247265   2.711   3.989   3.276  1.0162  0.7702 -1.7321
14152SOL     OW47266  10.257  11.913   0.681  0.3749  0.6106 -0.2756
14152SOL    HW147267  10.211  11.882   0.602  0.5447 -2.7921  0.7866
14152SOL    HW247268  10.204  11.880   0.754  1.0293  2.3554  1.0449
14153SOL     OW47269   9.319   4.445   4.552  0.5319  0.4398 -0.5069
14153SOL    HW147270   9.245   4.401   4.594  0.2948  0.2629 -1.1061
14153SOL    HW247271   9.338   4.519   4.610 -0.2335  0.5985 -0.4386
14154SOL     OW47272   9.001   3.722   6.398  0.3857  0.2000 -0.1275
14154SOL    HW147273   9.002   3.730   6.302 -0.9429  0.2860 -0.1453
14154SOL    HW247274   9.094   3.716   6.422  0.9386  3.1827 -1.1583
14155SOL     OW47275   1.736   4.925   3.085 -0.5351  0.1477  0.0683
14155SOL    HW147276   1.702   5.012   3.063 -0.8012 -0.1182 -0.6103
14155SOL    HW247277   1.710   4.910   3.176 -2.8693 -0.3372 -0.6254
14156SOL     OW47278   1.111   6.642   5.830  0.0390  0.0333 -0.0059
14156SOL    HW147279   1.046   6.703   5.865 -1.8834 -3.2685  2.8500
14156SOL    HW247280   1.186   6.650   5.888  0.5221  0.8305 -0.7122
14157SOL     OW47281   7.312  10.407   2.957  0.1435  0.0134  0.0547
14157SOL    HW147282   7.266  10.337   3.004 -0.4049 -0.5440 -1.2714
14157SOL    HW247283   7.377  10.361   2.904  0.1732  0.5631 -0.3847
14158SOL     OW47284   7.034   9.119   6.376  0.2348 -0.0288  0.2432
14158SOL    HW147285   6.976   9.174   6.325 -0.7977  0.9660  2.3483
14158SOL    HW247286   6.989   9.034   6.380 -0.3512  0.2953  0.6172
14159SOL     OW47287   2.097  11.299  10.056  0.5797  0.0669  0.2537
14159SOL    HW147288   2.157  11.230  10.084 -0.6227 -1.3153 -0.4837
14159SOL    HW247289   2.012  11.273  10.091 -0.2083  0.3110 -1.3774
14160SOL     OW47290   5.868   5.166   0.067 -0.0057 -0.3665  0.2611
14160SOL    HW147291   5.777   5.151   0.090 -1.0902 -0.0903 -3.1734
14160SOL    HW247292   5.910   5.080   0.078 -0.6068 -0.4654  1.9966
14161SOL     OW47293   5.366   0.588   5.579  0.4322  0.0206 -0.1447
14161SOL    HW147294   5.391   0.573   5.488 -1.5832  0.5837 -0.8467
14161SOL    HW247295   5.386   0.506   5.624  1.1173 -0.3835 -1.1547
14162SOL     OW47296  11.778   1.484   3.735 -0.0953  0.0855 -0.6870
14162SOL    HW147297  11.719   1.414   3.764 -0.6576  0.2745 -1.3473
14162SOL    HW247298  11.747   1.506   3.648  1.3272 -0.2007 -1.2802
14163SOL     OW47299   6.991   3.739   9.481 -0.1318 -0.3985  0.1791
14163SOL    HW147300   7.058   3.710   9.543 -2.6693 -1.9133  2.4073
14163SOL    HW247301   7.027   3.716   9.395  2.0549 -1.4043  1.2668
14164SOL     OW47302  12.015   8.283   2.618  0.3962  0.3333  0.1768
14164SOL    HW147303  11.968   8.341   2.678  0.8260  0.5660  0.2916
14164SOL    HW247304  12.102   8.273   2.656  0.2569 -0.5801  0.2762
14165SOL     OW47305  10.316   9.228   4.625 -0.6004  0.3621 -0.4301
14165SOL    HW147306  10.320   9.267   4.712 -0.6516  1.4559 -0.8954
14165SOL    HW247307  10.367   9.147   4.632  0.2909  0.9694  0.3442
14166SOL     OW47308   4.168   9.345   9.024 -0.3733  0.0745 -0.2991
14166SOL    HW147309   4.256   9.384   9.019  0.0287 -0.8208 -0.4500
14166SOL    HW247310   4.162   9.311   9.113 -0.3554 -0.3281 -0.4485
14167SOL     OW47311   2.101   5.479  10.564  0.1773 -0.2541  0.4303
14167SOL    HW147312   2.038   5.525  10.619 -0.6171 -0.7388 -0.0423
14167SOL    HW247313   2.111   5.535  10.487  1.6863  0.6799  1.2632
14168SOL     OW47314   1.832  10.012   3.374  0.0987 -0.2132 -0.0991
14168SOL    HW147315   1.838  10.107   3.360  1.7912 -0.2111  0.4858
14168SOL    HW247316   1.780   9.980   3.300 -2.3406  1.3873  0.7722
14169SOL     OW47317   1.109   1.489   2.305 -0.1238 -0.1038 -0.4362
14169SOL    HW147318   1.014   1.494   2.292 -0.5592 -4.4188 -0.3006
14169SOL    HW247319   1.146   1.506   2.219 -1.1659 -0.3249 -0.9473
14170SOL     OW47320   3.231   6.823  10.819  0.1302  0.4434  0.2949
14170SOL    HW147321   3.153   6.831  10.873 -0.9396  0.8240 -1.2379
14170SOL    HW247322   3.241   6.910  10.778  1.1280  0.2838  0.1569
14171SOL     OW47323   4.500   1.179  12.082  0.3595  0.4021  0.0515
14171SOL    HW147324   4.465   1.136  12.004 -0.6891 -0.7198  1.1066
14171SOL    HW247325   4.465   1.129  12.155  1.5256  1.2718  1.2571
14172SOL     OW47326   4.710   7.278  12.032  0.0525 -0.1469 -0.3521
14172SOL    HW147327   4.641   7.217  12.007 -1.5873  1.2389  0.5251
14172SOL    HW247328   4.730   7.257  12.123 -2.1409  1.9056  0.7251
14173SOL     OW47329   2.178   9.180   8.819 -0.0324  0.2328  0.0361
14173SOL    HW147330   2.223   9.205   8.901  0.5071  0.2984 -0.2763
14173SOL    HW247331   2.099   9.135   8.848  0.2918  0.0120  0.5975
14174SOL     OW47332  11.334  11.583   8.315 -0.1831  0.6437  0.4354
14174SOL    HW147333  11.281  11.571   8.393 -2.5646  0.0840 -1.1556
14174SOL    HW247334  11.387  11.503   8.309 -0.2408  0.5401  1.2661
14175SOL     OW47335   0.076  10.754   1.615 -0.2297 -0.2507  0.4572
14175SOL    HW147336   0.019  10.696   1.665 -0.5060  0.0697  0.5154
14175SOL    HW247337   0.027  10.774   1.536  0.6465 -1.6233 -0.4631
14176SOL     OW47338   4.796  11.250  10.767 -0.2668 -0.1537 -0.0411
14176SOL    HW147339   4.787  11.308  10.691 -3.3063 -1.6749 -1.0283
14176SOL    HW247340   4.742  11.174  10.745 -0.2743 -1.2311  3.1682
14177SOL     OW47341   4.278   4.808   4.280  0.0911  0.4177 -0.1258
14177SOL    HW147342   4.297   4.878   4.343 -3.0688 -0.7487  2.4177
14177SOL    HW247343   4.363   4.770   4.261  1.3938  1.6843  2.4967
14178SOL     OW47344   4.519   5.673  10.096 -0.0488  0.0695 -0.3050
14178SOL    HW147345   4.498   5.645  10.185  0.2327  0.3083 -0.1608
14178SOL    HW247346   4.558   5.596  10.055  1.5438  0.4731  0.3636
14179SOL     OW47347   5.869   2.964  12.072 -0.7634  0.4151 -0.4119
14179SOL    HW147348   5.923   3.027  12.024 -2.7330  2.4735 -0.0742
14179SOL    HW247349   5.833   2.908  12.004 -0.6255  0.9611 -0.9507
14180SOL     OW47350  10.902   6.794   9.499 -0.1827  0.1880  0.2628
14180SOL    HW147351  10.808   6.808   9.483 -0.4170  0.2939  1.5679
14180SOL    HW247352  10.946   6.845   9.431 -1.0820  2.7669  1.4772
14181SOL     OW47353   8.474   9.330   0.442 -0.0671 -0.4641  0.6635
14181SOL    HW147354   8.483   9.278   0.522  2.8438 -0.0832  0.6854
14181SOL    HW247355   8.485   9.420   0.471  2.7306 -0.4018 -0.2253
14182SOL     OW47356   0.888   6.489   2.706  0.1073 -0.2257 -0.5044
14182SOL    HW147357   0.803   6.533   2.715 -0.3183 -1.1578  0.1803
14182SOL    HW247358   0.866   6.397   2.692  0.9193 -0.0798 -3.6041
14183SOL     OW47359   1.797  12.362   5.617 -0.1447 -0.1363  0.0580
14183SOL    HW147360   1.812  12.399   5.530  0.6163  2.4600  1.1746
14183SOL    HW247361   1.873  12.306   5.633  0.7308  0.9423 -0.2182
14184SOL     OW47362   9.173   1.982   7.555 -0.1469  0.4846  0.2812
14184SOL    HW147363   9.145   2.047   7.491  0.1764 -0.5425 -0.9407
14184SOL    HW247364   9.266   1.997   7.566 -0.1137  0.3704  0.1596
14185SOL     OW47365  11.999   7.150   3.672  0.4630  0.3314 -0.0283
14185SOL    HW147366  12.071   7.173   3.730  0.1784  0.7334  0.1674
14185SOL    HW247367  12.018   7.195   3.590 -0.2446  1.5390  0.4459
14186SOL     OW47368   1.948   1.661   8.059 -0.2375  0.3134 -0.2372
14186SOL    HW147369   1.896   1.739   8.044 -1.5559 -0.2314  1.1691
14186SOL    HW247370   1.925   1.634   8.148  0.7244 -1.2601 -0.4230
14187SOL     OW47371  11.670   1.845  10.283 -0.4599  0.3093  0.1932
14187SOL    HW147372  11.732   1.826  10.355 -1.1630 -0.5233  0.5959
14187SOL    HW247373  11.616   1.917  10.317  0.8188  1.6616 -0.5019
14188SOL     OW47374   8.195   2.376   2.130 -0.3929 -0.0145 -0.8932
14188SOL    HW147375   8.183   2.296   2.181  0.5695  1.1662  1.2959
14188SOL    HW247376   8.284   2.404   2.150 -0.5693  1.3988 -1.9243
14189SOL     OW47377   9.387   1.398   9.188  0.3148 -0.1630 -0.0424
14189SOL    HW147378   9.406   1.390   9.282  2.7057  0.2568 -0.4182
14189SOL    HW247379   9.391   1.308   9.155 -0.6042 -0.3202  0.2425
14190SOL     OW47380   9.907   3.181   0.084  0.1699  0.1449 -0.2800
14190SOL    HW147381   9.999   3.164   0.099  0.3092  1.5762  0.6858
14190SOL    HW247382   9.903   3.222  -0.002  0.5613  1.0002  0.1053
14191SOL     OW47383   7.293   2.261   1.277 -0.8051 -0.0773 -0.0821
14191SOL    HW147384   7.202   2.238   1.263 -0.9747 -0.1254  0.9807
14191SOL    HW247385   7.339   2.229   1.199 -1.7419  0.2824 -0.7941
14192SOL     OW47386   6.046   3.473   8.562 -0.1598 -0.0678  0.0969
14192SOL    HW147387   6.126   3.435   8.599 -0.1670 -0.6532 -0.4569
14192SOL    HW247388   5.994   3.498   8.638  0.5615  0.3493  0.4625
14193SOL     OW47389   3.833   3.095   4.768  0.0528  0.9504 -0.3259
14193SOL    HW147390   3.827   3.013   4.720  0.6240  0.9797 -0.4569
14193SOL    HW247391   3.897   3.077   4.838 -1.1502  0.7408  0.7658
14194SOL     OW47392   6.141   6.637   4.274 -0.2694 -0.4189 -0.2447
14194SOL    HW147393   6.193   6.704   4.319  0.9974  0.0995 -2.3534
14194SOL    HW247394   6.168   6.554   4.315  1.6029 -0.0650 -0.6935
14195SOL     OW47395  11.738   9.975  11.164  0.1126  0.5828  0.2392
14195SOL    HW147396  11.795  10.040  11.205 -0.1184  1.7040 -1.1328
14195SOL    HW247397  11.795   9.929  11.102 -0.4683  1.8479 -1.2883
14196SOL     OW47398   4.437   9.863   9.000 -0.0314  0.3948 -0.0478
14196SOL    HW147399   4.368   9.801   9.025 -0.3903  1.2276  1.1402
14196SOL    HW247400   4.518   9.824   9.033 -0.0235 -0.2472 -0.8125
14197SOL     OW47401   4.494   4.459   4.247 -0.1571  0.4903  0.0450
14197SOL    HW147402   4.493   4.428   4.156  0.0535  0.8726 -0.0900
14197SOL    HW247403   4.545   4.541   4.244 -1.8630  1.5941  0.1581
14198SOL     OW47404   9.414  11.726  11.840 -0.5496  0.0501  0.2412
14198SOL    HW147405   9.498  11.742  11.797  0.5040 -0.8855  1.8349
14198SOL    HW247406   9.359  11.688  11.772  1.3557 -2.2479 -0.1378
14199SOL     OW47407   1.162   3.752   5.019  0.0914 -0.0817  0.1924
14199SOL    HW147408   1.228   3.798   5.072 -1.2600  0.0070  1.8707
14199SOL    HW247409   1.160   3.663   5.055 -0.9053  0.0022  0.3665
14200SOL     OW47410   1.528   2.970  11.807 -0.0338 -0.2661  0.3824
14200SOL    HW147411   1.475   2.894  11.783  0.6360 -0.3494 -0.9011
14200SOL    HW247412   1.559   2.951  11.895 -1.6070 -0.4951  0.9215
14201SOL     OW47413   0.029   6.854  12.559 -0.6953  0.4268  0.1809
14201SOL    HW147414   0.097   6.799  12.599 -0.9528 -1.2790 -1.5825
14201SOL    HW247415   0.032   6.936  12.609 -0.4079 -1.2015  3.0893
14202SOL     OW47416   1.180  11.839   9.861  0.1911  0.2871 -0.3044
14202SOL    HW147417   1.142  11.808   9.943  1.4623  1.1194  0.6428
14202SOL    HW247418   1.142  11.925   9.847 -1.5897 -0.6749 -1.7180
14203SOL     OW47419  10.656   0.072   0.975  0.1640 -0.1404 -0.7925
14203SOL    HW147420  10.670   0.029   0.891 -1.7334  0.7784 -1.6541
14203SOL    HW247421  10.586   0.136   0.958 -0.4180 -0.0565  1.5141
14204SOL     OW47422   1.202   0.186   4.529  0.6931  0.2269  0.7372
14204SOL    HW147423   1.190   0.102   4.573 -1.0940  0.1545  0.1986
14204SOL    HW247424   1.144   0.181   4.453  1.5308  1.4696 -0.0248
14205SOL     OW47425  11.641   9.806   8.638  0.2376 -0.3085  0.4557
14205SOL    HW147426  11.552   9.831   8.663  0.4505  0.7863  0.2066
14205SOL    HW247427  11.679   9.887   8.604  1.4433 -0.6729  0.8835
14206SOL     OW47428   8.874   7.381   9.884  0.1714 -0.1379 -0.4304
14206SOL    HW147429   8.925   7.322   9.939  1.4759  0.8777 -0.5087
14206SOL    HW247430   8.893   7.468   9.917 -1.3072  0.3040 -0.6599
14207SOL     OW47431   6.921   1.102   6.090  0.5506  0.3479 -0.0026
14207SOL    HW147432   6.986   1.115   6.021 -0.9967  0.0761 -1.5810
14207SOL    HW247433   6.838   1.130   6.051 -0.4104  0.1015  1.7308
14208SOL     OW47434   4.624   5.058   3.380  0.0553  0.4722 -0.4900
14208SOL    HW147435   4.702   5.113   3.384  0.6135 -0.1623 -1.8068
14208SOL    HW247436   4.656   4.969   3.394 -0.5123  0.2658 -0.4675
14209SOL     OW47437   9.454  12.415  12.387  0.3911 -0.6761  0.0707
14209SOL    HW147438   9.446  12.358  12.464 -0.5982 -0.1317  0.3924
14209SOL    HW247439   9.496  12.494  12.420  3.7153 -1.9120 -0.7822
14210SOL     OW47440   9.645   2.872   9.832 -0.0437  0.2336 -0.2067
14210SOL    HW147441   9.740   2.861   9.835 -0.0264 -0.2445 -1.7108
14210SOL    HW247442   9.623   2.870   9.739 -1.8319 -2.3447  0.1726
14211SOL     OW47443   3.773   4.914   2.517 -0.1719  0.9615 -0.2056
14211SOL    HW147444   3.828   4.850   2.563  1.3241  0.9842 -1.8507
14211SOL    HW247445   3.795   4.998   2.557 -1.6165  0.5941  1.4784
14212SOL     OW47446  10.497   4.251   3.410  0.4664  0.0973 -0.4669
14212SOL    HW147447  10.586   4.217   3.415 -0.0230 -1.2915 -0.6543
14212SOL    HW247448  10.445   4.190   3.463 -0.5541  0.2146 -1.2918
14213SOL     OW47449   7.945   4.866   0.893 -0.3101  0.0698 -0.3915
14213SOL    HW147450   7.879   4.858   0.961 -0.2522 -0.7313 -0.4174
14213SOL    HW247451   8.025   4.832   0.934 -0.6581 -2.0931 -1.3814
14214SOL     OW47452   0.590   8.916   7.126  0.4885 -0.2090 -0.1527
14214SOL    HW147453   0.506   8.957   7.104 -0.3351 -0.0183  2.8042
14214SOL    HW247454   0.565   8.835   7.170  1.8112  0.0285  1.0973
14215SOL     OW47455   7.906   3.234   7.867 -0.1967 -0.2111  0.6829
14215SOL    HW147456   7.962   3.307   7.839  0.1037 -0.6405  0.1675
14215SOL    HW247457   7.948   3.201   7.947 -1.0738  1.0343  1.7064
14216SOL     OW47458   2.644   4.564   1.509  0.2569  0.1203 -0.3296
14216SOL    HW147459   2.582   4.620   1.462 -0.2246  1.2581  1.5583
14216SOL    HW247460   2.615   4.567   1.600  2.4340 -0.2338  0.4363
14217SOL     OW47461   8.715   4.196   4.572 -0.2940 -0.2104 -0.3032
14217SOL    HW147462   8.766   4.142   4.513  0.2267  0.3243 -0.3492
14217SOL    HW247463   8.713   4.282   4.531  2.2904  0.9091  1.6253
14218SOL     OW47464  12.553   1.872   1.830 -0.4241  0.8556  0.2144
14218SOL    HW147465  12.541   1.962   1.800  1.9237  0.5976 -1.7890
14218SOL    HW247466  12.559   1.820   1.750  1.3102 -0.6233  1.2209
14219SOL     OW47467   2.702   1.279   2.957  0.1715  0.3040  0.3561
14219SOL    HW147468   2.616   1.271   2.998 -0.2779  0.8140 -0.4558
14219SOL    HW247469   2.732   1.366   2.983 -0.7144  1.2032 -1.4457
14220SOL     OW47470   0.874   1.394   1.233 -0.2742  0.5826 -0.2455
14220SOL    HW147471   0.901   1.312   1.276  0.5681 -0.6570 -2.9010
14220SOL    HW247472   0.931   1.461   1.272  0.7793 -0.5393  0.2297
14221SOL     OW47473   0.893   8.431   5.832 -0.9102  0.4287 -0.1969
14221SOL    HW147474   0.936   8.374   5.768 -0.9577 -0.4113  0.4991
14221SOL    HW247475   0.807   8.448   5.795 -0.5757  0.7747 -0.8277
14222SOL     OW47476   5.092  11.165  10.667  0.7697 -0.2531  0.2168
14222SOL    HW147477   5.083  11.228  10.738  1.4176  0.0280  0.0535
14222SOL    HW247478   5.065  11.081  10.706 -1.0096  0.2623  0.1712
14223SOL     OW47479  11.793   3.814   5.404 -0.5744  0.3334 -0.4669
14223SOL    HW147480  11.706   3.843   5.431 -0.5129  0.8867 -0.8341
14223SOL    HW247481  11.853   3.863   5.460 -0.5237 -1.5022  1.1520
14224SOL     OW47482   0.353   9.197   3.024  0.0955 -0.2984 -0.5546
14224SOL    HW147483   0.393   9.118   3.060 -2.2624 -1.5945 -0.6017
14224SOL    HW247484   0.325   9.173   2.936  1.4375  1.3606 -1.5072
14225SOL     OW47485   6.832   8.564   3.766  0.3222 -0.4433 -0.3233
14225SOL    HW147486   6.860   8.555   3.857  1.0680  0.3826 -0.4514
14225SOL    HW247487   6.906   8.534   3.715 -0.5843 -2.1969 -0.6861
14226SOL     OW47488  10.853   0.773   9.682  0.0539 -0.7184  0.1661
14226SOL    HW147489  10.894   0.696   9.642 -0.0659 -0.4816 -0.4361
14226SOL    HW247490  10.786   0.737   9.740 -0.4394 -1.0712 -0.5987
14227SOL     OW47491   3.401   8.840  11.005 -0.6080  0.0551 -0.1766
14227SOL    HW147492   3.418   8.797  11.089  2.5479 -0.5358 -0.9847
14227SOL    HW247493   3.391   8.933  11.028  1.8206  0.1564  0.8020
14228SOL     OW47494   9.263   4.533  10.069 -0.3240 -0.0130 -0.2750
14228SOL    HW147495   9.344   4.530  10.120 -0.7396 -2.5876  0.3841
14228SOL    HW247496   9.259   4.622  10.035  2.5996  0.2916 -0.0525
14229SOL     OW47497   1.223   8.118   6.869 -0.3839  0.0260 -0.0102
14229SOL    HW147498   1.234   8.031   6.908 -0.1408  1.4106  3.4019
14229SOL    HW247499   1.128   8.131   6.867 -0.3963  0.1847  0.8892
14230SOL     OW47500   3.762   3.378   0.277 -0.5130 -0.4211  0.3573
14230SOL    HW147501   3.726   3.386   0.189 -1.1722 -0.3452  0.6213
14230SOL    HW247502   3.693   3.414   0.334  0.7281  1.4294  0.7532
14231SOL     OW47503   1.225   5.626   6.021  0.2388 -0.4484  0.0768
14231SOL    HW147504   1.286   5.592   5.955  0.4027 -2.3453  1.1387
14231SOL    HW247505   1.275   5.691   6.069  0.4444  0.2071 -1.0023
14232SOL     OW47506   6.689   2.403  10.574  0.3424 -0.1851  0.0047
14232SOL    HW147507   6.765   2.344  10.573 -0.2032 -0.9174  0.3673
14232SOL    HW247508   6.725   2.488  10.597  1.5076  0.1826 -2.7394
14233SOL     OW47509   5.499   4.566   0.613 -0.4362  0.0166 -0.7057
14233SOL    HW147510   5.518   4.474   0.629 -1.2382 -0.1510 -0.6533
14233SOL    HW247511   5.460   4.597   0.695  1.5615  0.9199 -0.0381
14234SOL     OW47512   8.579   8.692   5.055 -0.4769 -0.3344 -0.0658
14234SOL    HW147513   8.518   8.646   5.113 -0.4875 -1.7423 -1.1394
14234SOL    HW247514   8.608   8.767   5.106  0.5517 -2.2048  2.2938
14235SOL     OW47515  12.599   2.176   7.080  0.0913 -0.2339  0.4696
14235SOL    HW147516  12.533   2.173   7.149  1.2638 -0.1709  1.6181
14235SOL    HW247517  12.639   2.262   7.088 -0.4463  0.1651 -0.9582
14236SOL     OW47518   8.140   6.036   7.120  0.3346  0.0410 -0.6180
14236SOL    HW147519   8.216   6.093   7.109  1.1163 -0.5506  1.3650
14236SOL    HW247520   8.086   6.079   7.187  0.0047 -0.6078 -0.4504
14237SOL     OW47521   7.878   0.270   8.064 -0.4637  0.1950 -0.4500
14237SOL    HW147522   7.915   0.228   8.142  0.7399  1.7535 -0.1274
14237SOL    HW247523   7.783   0.258   8.074 -0.2497 -0.9610  0.4495
14238SOL     OW47524   7.849   8.824   1.209  0.3371  0.6475 -0.0788
14238SOL    HW147525   7.832   8.792   1.121 -1.5315 -0.0024  0.4706
14238SOL    HW247526   7.944   8.840   1.211  0.1854  2.4555 -2.7289
14239SOL     OW47527  12.113   9.119   0.831  0.1134 -0.3650  0.3072
14239SOL    HW147528  12.150   9.032   0.814 -1.2686 -1.3552  2.0328
14239SOL    HW247529  12.159   9.177   0.770  1.5428 -2.1834 -0.4382
14240SOL     OW47530   5.371   5.068  11.321  0.9404 -0.6454  0.0584
14240SOL    HW147531   5.387   4.989  11.374  3.3425  0.7328  1.5563
14240SOL    HW247532   5.312   5.121  11.374 -0.5662 -1.3157 -0.8897
14241SOL     OW47533   9.049   2.966   6.935  0.0926  0.4024 -0.1991
14241SOL    HW147534   9.004   3.001   7.012  0.0867 -1.8066  0.8916
14241SOL    HW247535   8.980   2.947   6.872 -0.1139  0.4653  0.0083
14242SOL     OW47536   0.453  10.017  11.445 -0.2607 -0.7572  0.4013
14242SOL    HW147537   0.485  10.028  11.535 -0.7641  0.2981  0.4660
14242SOL    HW247538   0.448   9.923  11.433 -0.9080 -0.9259  1.7539
14243SOL     OW47539   7.760   1.554   7.620 -0.0266 -0.6401  0.3215
14243SOL    HW147540   7.696   1.554   7.549 -0.4680 -0.3400  0.7133
14243SOL    HW247541   7.844   1.540   7.576 -0.4961 -2.5088 -0.0572
14244SOL     OW47542   6.170   4.052   7.119  0.1586 -0.1526  0.5410
14244SOL    HW147543   6.237   4.045   7.051 -0.5925 -0.5842 -0.1658
14244SOL    HW247544   6.176   3.968   7.166  1.3175  0.5029  1.6479
14245SOL     OW47545   4.236   8.546   1.089  1.2156  0.1765 -0.2957
14245SOL    HW147546   4.184   8.466   1.084  1.0914  0.3339 -2.2497
14245SOL    HW247547   4.311   8.523   1.144  0.3328 -0.7699  0.5359
14246SOL     OW47548   3.412   1.482  10.602  0.4439 -0.1903 -0.0513
14246SOL    HW147549   3.363   1.557  10.636  2.7424  1.2153  0.3239
14246SOL    HW247550   3.420   1.424  10.678  0.1923  0.0151  0.1363
14247SOL     OW47551   3.642  11.154  10.682  0.1111 -0.8208  0.2579
14247SOL    HW147552   3.736  11.160  10.695  1.1050 -3.6515 -3.6008
14247SOL    HW247553   3.618  11.233  10.635  0.4175  0.0407  1.5001
14248SOL     OW47554   6.151  11.494   0.262  0.3329 -0.3199 -0.1873
14248SOL    HW147555   6.163  11.454   0.348 -0.8137 -1.5376 -0.5550
14248SOL    HW247556   6.221  11.456   0.209 -1.3212 -2.7419 -0.7913
14249SOL     OW47557   5.126   3.772  12.130 -0.5116 -0.4680 -0.4864
14249SOL    HW147558   5.120   3.864  12.158  1.2229  0.2818 -2.3576
14249SOL    HW247559   5.124   3.722  12.212 -3.5585  1.0150  0.5118
14250SOL     OW47560   7.568  10.570   2.850  0.1929  0.2759  0.1301
14250SOL    HW147561   7.532  10.599   2.766  0.8360  2.9156  0.6797
14250SOL    HW247562   7.592  10.479   2.835 -1.7398 -0.0016 -1.8559
14251SOL     OW47563   9.015  10.613  11.963 -0.1890 -0.5226 -0.0473
14251SOL    HW147564   8.952  10.645  12.028 -0.7995 -2.7635  0.5428
14251SOL    HW247565   9.099  10.617  12.008  0.2034  2.5052 -0.8463
14252SOL     OW47566   5.759  11.157  10.720 -0.2299 -0.6702  0.1729
14252SOL    HW147567   5.700  11.168  10.795  1.3143 -0.1832  1.3688
14252SOL    HW247568   5.807  11.240  10.715  0.3283 -1.0378 -0.8033
14253SOL     OW47569   9.102   7.449   6.075  0.4251  0.4729  0.1596
14253SOL    HW147570   9.111   7.503   6.154 -0.5985 -1.3170  1.5943
14253SOL    HW247571   9.008   7.430   6.070  0.7935 -1.6515  0.1265
14254SOL     OW47572   0.724   1.495   3.060 -0.0494  0.1349  0.4711
14254SOL    HW147573   0.675   1.416   3.079 -1.4049  0.7957 -0.1618
14254SOL    HW247574   0.705   1.554   3.133  0.0929  0.2658  0.4043
14255SOL     OW47575   5.338   7.250   2.490 -0.2747  0.1976 -0.2139
14255SOL    HW147576   5.304   7.339   2.499 -2.1109 -0.5907  1.2742
14255SOL    HW247577   5.433   7.261   2.484 -0.5058  2.2816 -0.9241
14256SOL     OW47578   7.209   4.428   5.225  0.6526 -0.4527  0.1963
14256SOL    HW147579   7.234   4.504   5.173 -1.6317 -0.0927 -0.4857
14256SOL    HW247580   7.147   4.462   5.290 -0.3191 -1.6861 -0.0345
14257SOL     OW47581  12.175  10.060  11.800 -0.1230  0.3638  0.1554
14257SOL    HW147582  12.263  10.080  11.832  0.2153  1.9889 -1.6009
14257SOL    HW247583  12.125  10.139  11.820 -1.7446 -1.1786  2.7296
14258SOL     OW47584   7.714   9.932   4.758  0.1685  0.2196  0.1040
14258SOL    HW147585   7.656   9.876   4.706  1.2764 -1.5333  0.6579
14258SOL    HW247586   7.746   9.998   4.697  0.3671 -0.9728 -1.1230
14259SOL     OW47587  10.699   4.050   3.764 -0.8433  0.0954  0.2807
14259SOL    HW147588  10.734   4.101   3.837 -0.0709 -0.4015  0.2729
14259SOL    HW247589  10.776   4.007   3.726 -1.3193 -0.1195 -0.4554
14260SOL     OW47590   9.392  10.929   3.166 -1.0876 -0.2522 -0.3063
14260SOL    HW147591   9.446  10.858   3.201  0.4911 -0.2832 -2.5798
14260SOL    HW247592   9.431  11.008   3.203 -2.0116 -0.4479  1.1670
14261SOL     OW47593   5.356   0.042   9.716  0.1796 -0.0609  0.7113
14261SOL    HW147594   5.366   0.105   9.644 -1.0600  0.0232  0.5834
14261SOL    HW247595   5.381   0.090   9.794  0.0739  0.3287  0.5078
14262SOL     OW47596   2.497   6.264   7.392 -0.3314  0.6364 -0.2137
14262SOL    HW147597   2.536   6.191   7.439 -1.5606  0.4779  0.5874
14262SOL    HW247598   2.480   6.230   7.304 -0.0173  0.2747 -0.1374
14263SOL     OW47599   2.165   2.543   4.560  0.6883 -0.4146  0.1019
14263SOL    HW147600   2.120   2.480   4.617  0.0701 -1.9482 -1.9434
14263SOL    HW247601   2.095   2.582   4.507  1.4807 -1.3509 -1.7331
14264SOL     OW47602   2.643  11.452   6.450  0.2282  0.0147  0.0697
14264SOL    HW147603   2.689  11.429   6.369  2.3243 -1.0790  1.4865
14264SOL    HW247604   2.710  11.445   6.518 -1.3946  1.2368  1.8731
14265SOL     OW47605   0.308  12.300   9.580  0.4618 -0.1284 -0.3971
14265SOL    HW147606   0.296  12.228   9.643  0.1146  0.0816 -0.2226
14265SOL    HW247607   0.319  12.255   9.496 -0.4618 -0.3761 -0.4001
14266SOL     OW47608   4.440   2.969   6.843 -0.0949  0.2201  0.3143
14266SOL    HW147609   4.354   2.933   6.823 -0.3652  0.6453  0.6964
14266SOL    HW247610   4.442   3.053   6.798  0.0812  0.2590  0.3943
14267SOL     OW47611   4.048   4.725   4.520  0.0346  0.2902  0.0557
14267SOL    HW147612   4.031   4.643   4.565  0.7784 -0.1104 -0.3775
14267SOL    HW247613   4.143   4.730   4.515  0.0085  1.3068  0.3080
14268SOL     OW47614   9.344  12.464   4.769 -0.2377  0.4303 -0.1639
14268SOL    HW147615   9.279  12.395   4.753  2.4752 -2.0206 -1.7000
14268SOL    HW247616   9.319  12.535   4.711 -0.7139 -1.1074 -1.9651
14269SOL     OW47617   1.829   2.136   6.130 -0.5725 -0.4149 -0.0716
14269SOL    HW147618   1.847   2.141   6.224 -1.1249  1.3787 -0.0210
14269SOL    HW247619   1.877   2.210   6.093  0.6837 -1.8365 -1.4197
14270SOL     OW47620   3.193   3.927   3.368 -0.0562  0.3308  0.0242
14270SOL    HW147621   3.138   3.862   3.413 -0.2093  0.4087 -0.0514
14270SOL    HW247622   3.202   3.894   3.279  0.4055  0.0778  0.1578
14271SOL     OW47623   5.106  12.575   9.124 -0.2896 -0.3226 -0.1178
14271SOL    HW147624   5.190  12.538   9.094 -0.8010 -1.1841 -0.5375
14271SOL    HW247625   5.090  12.532   9.208  0.8387  1.6304  1.1677
14272SOL     OW47626  12.575   0.632   4.252 -0.2475  0.0083 -0.3518
14272SOL    HW147627  12.648   0.648   4.192 -0.5686  0.6131 -0.5953
14272SOL    HW247628  12.551   0.540   4.237  0.0126  0.0079 -0.7740
14273SOL     OW47629   0.019   4.515   1.276  0.1382 -0.2323 -0.4381
14273SOL    HW147630   0.075   4.520   1.199 -1.0384  0.7001 -1.2807
14273SOL    HW247631  -0.019   4.603   1.283 -1.7781 -1.0118 -0.3675
14274SOL     OW47632  10.392   8.693   1.876 -0.1352 -0.0948 -0.2183
14274SOL    HW147633  10.380   8.746   1.955  0.4954  1.0646 -0.8671
14274SOL    HW247634  10.486   8.696   1.859 -0.0724 -1.5240 -0.2345
14275SOL     OW47635   8.521   3.339   0.343 -0.7856  0.1006 -0.3307
14275SOL    HW147636   8.582   3.381   0.282 -1.2545  0.8805 -0.2771
14275SOL    HW247637   8.438   3.386   0.331 -0.4255  1.6078  2.2467
14276SOL     OW47638   0.471   5.385   6.630 -0.2716 -0.1457  0.4580
14276SOL    HW147639   0.437   5.420   6.548 -0.8442  0.5436  0.9746
14276SOL    HW247640   0.400   5.397   6.693 -0.0119 -1.0787  0.9565
14277SOL     OW47641   8.475   2.090   9.737  0.3264 -0.3330 -0.1530
14277SOL    HW147642   8.463   2.001   9.706  0.2326  0.4151 -2.4448
14277SOL    HW247643   8.496   2.081   9.830 -0.9432 -2.6423 -0.0279
14278SOL     OW47644   1.912   4.967   6.401 -0.2744  0.4320 -0.2680
14278SOL    HW147645   1.896   4.885   6.447 -0.5140  0.2833 -0.6098
14278SOL    HW247646   1.948   4.941   6.316 -1.3816  0.6174 -0.8154
14279SOL     OW47647   4.797   6.924   1.396  0.3686 -0.0816 -0.2288
14279SOL    HW147648   4.706   6.931   1.367  0.1836  1.2949  0.5467
14279SOL    HW247649   4.847   6.917   1.315 -0.4378 -1.3437 -0.6533
14280SOL     OW47650   5.654   0.087   7.918  0.3840  0.1893 -0.0392
14280SOL    HW147651   5.681   0.154   7.855 -1.5335  2.0680  1.0205
14280SOL    HW247652   5.679   0.122   8.003  0.6271 -1.1246  0.4493
14281SOL     OW47653   2.324   0.536   5.992 -0.5498 -0.1965  0.0766
14281SOL    HW147654   2.401   0.559   5.939  0.4209 -3.3698 -0.0793
14281SOL    HW247655   2.360   0.519   6.079 -1.7836  2.4527  1.2247
14282SOL     OW47656   2.849  11.575   1.794 -0.0739 -0.0236  0.4085
14282SOL    HW147657   2.822  11.639   1.728 -0.3677 -0.7330 -0.1743
14282SOL    HW247658   2.779  11.510   1.795  0.6645 -0.8417  0.3057
14283SOL     OW47659   5.157   7.279   5.331 -0.6663  0.0202 -0.5164
14283SOL    HW147660   5.153   7.259   5.238  0.5492  0.0140 -0.5873
14283SOL    HW247661   5.153   7.375   5.335 -2.1083 -0.0240 -0.4665
14284SOL     OW47662   6.230   0.075   1.889  0.0118 -0.2675 -0.3018
14284SOL    HW147663   6.240   0.087   1.794  0.3077  0.0673 -0.2286
14284SOL    HW247664   6.149   0.026   1.898  0.8256 -1.8002 -0.8392
14285SOL     OW47665   4.381   9.027   8.493  0.7351  0.0465  0.1199
14285SOL    HW147666   4.352   8.974   8.568 -1.4410 -0.9776 -1.3300
14285SOL    HW247667   4.365   9.118   8.520 -1.7571 -0.3754  0.3244
14286SOL     OW47668   4.916   5.544   5.404 -0.1989 -0.9986 -0.7397
14286SOL    HW147669   4.979   5.495   5.457  0.2617  0.1126 -0.2190
14286SOL    HW247670   4.953   5.544   5.316  0.7064 -0.1268 -0.3856
14287SOL     OW47671   7.044   0.136   5.161 -0.5005 -0.7248  0.1686
14287SOL    HW147672   7.109   0.068   5.173 -2.1053 -2.0112  2.1565
14287SOL    HW247673   6.962   0.089   5.146 -1.0378  0.8293 -2.5051
14288SOL     OW47674  10.200   0.010   5.634 -0.3931 -0.1633  0.3616
14288SOL    HW147675  10.249  -0.017   5.556  0.3321  0.3137  0.6373
14288SOL    HW247676  10.109  -0.009   5.613 -0.6790  2.9639 -1.9983
14289SOL     OW47677   6.569  10.347   5.884 -0.0248 -0.1172 -0.0792
14289SOL    HW147678   6.633  10.348   5.956 -1.7924 -2.3884  1.6553
14289SOL    HW247679   6.600  10.279   5.824 -0.0324 -0.1695 -0.0231
14290SOL     OW47680  10.858   1.470   2.445  0.2678  0.1883 -0.1323
14290SOL    HW147681  10.848   1.559   2.412 -1.7529 -0.3341 -1.1165
14290SOL    HW247682  10.801   1.467   2.522  0.4234 -0.2235 -0.0313
14291SOL     OW47683   4.151   4.821   8.141 -0.5907  0.2071 -0.0267
14291SOL    HW147684   4.230   4.852   8.097 -0.5164  0.0972  0.0264
14291SOL    HW247685   4.179   4.742   8.187 -0.3775  0.9557  1.1858
14292SOL     OW47686   9.142  12.302  11.615 -0.0836  0.0255 -0.4837
14292SOL    HW147687   9.115  12.394  11.619  0.6723  0.2556 -0.4755
14292SOL    HW247688   9.215  12.296  11.676 -0.5121 -0.7270 -0.0278
14293SOL     OW47689   9.594  11.920   5.808  0.3022 -0.1194  0.6985
14293SOL    HW147690   9.598  11.969   5.890 -0.0646 -1.2340  1.3942
14293SOL    HW247691   9.527  11.854   5.822 -1.0553  0.7610 -1.1182
14294SOL     OW47692   1.250  10.317   0.870 -0.2324 -0.2746  0.1409
14294SOL    HW147693   1.178  10.363   0.829 -0.4658 -1.1007 -0.4048
14294SOL    HW247694   1.209  10.255   0.930  0.0280 -0.5638  0.0271
14295SOL     OW47695   7.032   3.698   5.221 -0.9050 -0.0809  0.2340
14295SOL    HW147696   6.980   3.659   5.152 -1.8190  0.6429  0.4966
14295SOL    HW247697   6.970   3.713   5.293 -0.7041  2.1992 -0.0023
14296SOL     OW47698   3.618   9.919  11.629  0.2910 -0.5876 -0.5130
14296SOL    HW147699   3.599   9.919  11.535  1.5291 -0.5557 -0.7689
14296SOL    HW247700   3.711   9.899  11.636  0.8633  2.0267  0.5657
14297SOL     OW47701   4.220   8.285   4.768 -0.2314 -0.3135  0.7442
14297SOL    HW147702   4.192   8.294   4.677 -1.5914 -0.3894  1.1312
14297SOL    HW247703   4.297   8.342   4.775 -1.5501  1.6759  0.1254
14298SOL     OW47704   4.608   7.933   8.306 -0.1544 -0.0721  0.2772
14298SOL    HW147705   4.544   7.868   8.277 -0.2901 -0.7943  2.1031
14298SOL    HW247706   4.571   7.971   8.385  0.9170  0.6957  0.4402
14299SOL     OW47707   0.559   7.718   4.407 -0.4777 -0.0910 -0.0274
14299SOL    HW147708   0.532   7.766   4.329 -1.7073 -2.0581 -0.8845
14299SOL    HW247709   0.484   7.723   4.466 -0.0754  0.2105  0.4697
14300SOL     OW47710   4.982   0.268   1.361 -0.7554 -0.0252 -0.1630
14300SOL    HW147711   4.892   0.292   1.339 -0.5745 -0.3519 -1.3577
14300SOL    HW247712   5.032   0.292   1.283  0.0017 -0.8949  0.0353
14301SOL     OW47713   3.042  10.501  11.676  0.2830  0.5611  0.1360
14301SOL    HW147714   3.119  10.459  11.636  1.0691  0.8579  1.2983
14301SOL    HW247715   3.078  10.556  11.746 -1.0290  0.2152  1.1186
14302SOL     OW47716   1.910   8.812   5.555 -0.0828 -0.5654 -0.5943
14302SOL    HW147717   1.865   8.750   5.612  2.2174 -2.7456 -0.9386
14302SOL    HW247718   1.999   8.776   5.547  1.7992  3.3832  0.0571
14303SOL     OW47719  10.664   7.905   1.518  0.4988  0.3283 -0.6134
14303SOL    HW147720  10.644   7.873   1.606  2.0367 -0.3449 -0.4647
14303SOL    HW247721  10.640   7.832   1.460  2.2266 -0.4493 -0.4413
14304SOL     OW47722   8.509   0.704   8.861  0.1564  0.0018 -0.1408
14304SOL    HW147723   8.555   0.621   8.870  0.2065  0.1120  0.7579
14304SOL    HW247724   8.547   0.745   8.784 -0.1216 -0.9619 -0.8053
14305SOL     OW47725   4.412  12.615   4.676  0.2236 -0.4367  0.3656
14305SOL    HW147726   4.422  12.695   4.728  0.4749 -1.1077  1.3759
14305SOL    HW247727   4.325  12.624   4.637  0.2484  0.3370  0.4583
14306SOL     OW47728   3.488   8.689   5.674  0.0610 -0.2497 -0.1687
14306SOL    HW147729   3.565   8.649   5.714 -0.4041 -0.6439  0.3604
14306SOL    HW247730   3.492   8.781   5.699  0.9819 -0.0059 -1.1415
14307SOL     OW47731  10.954   0.887   3.051  0.4097 -0.0290  0.0061
14307SOL    HW147732  10.959   0.891   3.147  2.0450  1.6546 -0.1008
14307SOL    HW247733  10.975   0.976   3.022  1.2322 -0.8130 -1.9540
14308SOL     OW47734   7.951  11.893   3.477  0.5319 -0.1109 -0.4946
14308SOL    HW147735   7.901  11.974   3.469 -0.1856 -0.4106  0.6715
14308SOL    HW247736   8.031  11.919   3.523  0.3650 -0.0307 -0.2455
14309SOL     OW47737   8.740   3.651   4.628 -0.3609 -0.1501  0.3903
14309SOL    HW147738   8.742   3.563   4.664 -0.7840  0.7030  2.7090
14309SOL    HW247739   8.823   3.690   4.657  0.2967 -0.0490 -1.4737
14310SOL     OW47740   4.143  10.773  10.127 -0.4156  0.1502  0.1272
14310SOL    HW147741   4.078  10.837  10.158 -0.4250  0.3258 -0.2489
14310SOL    HW247742   4.106  10.688  10.152  0.4854  0.3512  2.3161
14311SOL     OW47743   7.364   0.600   0.514  0.4566  0.2479 -0.2329
14311SOL    HW147744   7.378   0.567   0.603  2.3797  0.8802 -0.2688
14311SOL    HW247745   7.449   0.633   0.487 -0.7995  3.1580 -1.0586
14312SOL     OW47746   1.244  11.470  11.968 -0.3307 -0.4618  0.3912
14312SOL    HW147747   1.248  11.565  11.983 -1.2634 -0.4082  0.3663
14312SOL    HW247748   1.219  11.461  11.876  0.6839 -0.7518  0.1303
14313SOL     OW47749  12.402   3.803   9.792 -0.0442  0.2089  0.2448
14313SOL    HW147750  12.435   3.714   9.780 -0.1942  0.1683  0.1193
14313SOL    HW247751  12.422   3.847   9.709 -1.0226 -0.0506 -0.1475
14314SOL     OW47752  12.490   8.084   8.149  0.1889 -0.8429  0.1468
14314SOL    HW147753  12.544   8.154   8.187  0.6030 -0.5700 -0.9147
14314SOL    HW247754  12.502   8.093   8.055 -1.2287 -1.1907 -0.0855
14315SOL     OW47755   1.427   6.379   6.526 -1.0463 -0.4767 -0.1693
14315SOL    HW147756   1.353   6.386   6.586 -0.0175 -2.9052  1.5495
14315SOL    HW247757   1.492   6.440   6.561 -0.7552 -1.2980  0.7724
14316SOL     OW47758  10.263   1.295   7.062 -0.3658  0.5345 -0.3181
14316SOL    HW147759  10.348   1.262   7.033 -0.8136 -1.9338  0.9209
14316SOL    HW247760  10.283   1.381   7.099  1.5157  0.1939 -0.4267
14317SOL     OW47761  10.431   1.638   6.067 -0.4202 -0.4485  0.4274
14317SOL    HW147762  10.453   1.723   6.105 -2.0582 -1.0569  2.9092
14317SOL    HW247763  10.516   1.602   6.039  0.4521  1.3888  0.5565
14318SOL     OW47764   8.098   6.734   0.397  0.1569  0.0655  0.0665
14318SOL    HW147765   8.068   6.805   0.455 -1.2980 -0.3941 -0.0847
14318SOL    HW247766   8.192   6.750   0.386  0.1520  1.0761  1.2762
14319SOL     OW47767   0.129   8.156   3.666 -0.1257  0.2129  0.4039
14319SOL    HW147768   0.143   8.069   3.628 -0.4473 -0.3465  1.5237
14319SOL    HW247769   0.217   8.191   3.678  0.0157 -0.0601  0.1850
14320SOL     OW47770  12.197   2.656   5.293  0.6783  0.1835  0.5136
14320SOL    HW147771  12.269   2.716   5.271 -0.1224  0.5310 -1.4239
14320SOL    HW247772  12.120   2.713   5.297  0.1796 -0.4842  0.3891
14321SOL     OW47773  11.485   6.239   8.517 -0.0921 -0.4131 -0.0035
14321SOL    HW147774  11.460   6.275   8.433  1.1799  0.2619 -0.1211
14321SOL    HW247775  11.430   6.284   8.581  0.9055  1.2194 -0.2237
14322SOL     OW47776   8.696  10.643   5.368 -0.6694 -0.0104 -0.1201
14322SOL    HW147777   8.666  10.637   5.459  3.5174  0.4517  1.4812
14322SOL    HW247778   8.723  10.734   5.357 -0.2195 -0.2906 -1.5173
14323SOL     OW47779   6.906   8.167   6.357 -0.3020 -0.3488  0.5215
14323SOL    HW147780   6.887   8.198   6.269  0.4946  0.6880  0.6919
14323SOL    HW247781   6.992   8.124   6.350  0.4691  1.0307  1.0392
14324SOL     OW47782  11.971   6.008   9.015 -0.4789 -0.5031 -0.2575
14324SOL    HW147783  11.917   5.931   8.997 -0.1435 -0.5484 -1.1194
14324SOL    HW247784  12.054   5.989   8.971  0.0133 -0.1506  0.5024
14325SOL     OW47785   9.036   3.570  12.064 -0.0513  0.4788  0.0636
14325SOL    HW147786   8.943   3.553  12.076  0.1870 -0.4847  0.5913
14325SOL    HW247787   9.065   3.504  12.001  0.6174 -0.3018  1.1660
14326SOL     OW47788   6.400   1.612   4.163 -0.3850 -0.0259  0.6080
14326SOL    HW147789   6.404   1.575   4.251 -0.3965 -0.7132  0.3262
14326SOL    HW247790   6.481   1.662   4.155  0.8793 -2.0476  0.1108
14327SOL     OW47791   9.694   6.561   2.465  0.1387 -0.3349  0.0908
14327SOL    HW147792   9.699   6.634   2.526  0.7969 -1.9445  2.0385
14327SOL    HW247793   9.750   6.587   2.392  1.0359  0.7532  1.1353
14328SOL     OW47794  11.771  10.969   8.608  0.1464  0.1264 -0.0717
14328SOL    HW147795  11.847  11.008   8.565  0.8476  0.2936  1.2482
14328SOL    HW247796  11.722  11.043   8.644  0.5822 -0.0748  0.9949
14329SOL     OW47797   5.941   3.704  10.342 -0.2661  0.0739 -0.1752
14329SOL    HW147798   5.907   3.647  10.410 -0.7587  0.8151  0.2184
14329SOL    HW247799   5.987   3.646  10.282 -1.9407 -0.9386 -0.5388
14330SOL     OW47800   9.085   0.425   4.298 -0.0912  0.1366 -0.0631
14330SOL    HW147801   8.995   0.410   4.272  0.2995 -1.9206 -0.3857
14330SOL    HW247802   9.138   0.380   4.232  1.0870 -0.4082  1.1766
14331SOL     OW47803   7.978   5.092   9.408 -0.4876  0.0272 -0.7529
14331SOL    HW147804   7.924   5.059   9.479  1.2584  0.9333  1.1098
14331SOL    HW247805   7.939   5.176   9.384 -0.4506  0.2396 -0.0798
14332SOL     OW47806   6.092   0.255   0.141  0.0156 -0.1690  0.8156
14332SOL    HW147807   6.133   0.298   0.216  1.2366  0.3814 -0.1384
14332SOL    HW247808   6.033   0.321   0.105  0.8377  0.2199  0.1818
14333SOL     OW47809   2.953   4.067   4.556  0.1984  0.6091  0.2090
14333SOL    HW147810   2.955   4.005   4.629  1.4039  1.9040  1.3477
14333SOL    HW247811   2.997   4.145   4.590 -1.7227  2.3190 -0.9650
14334SOL     OW47812   8.968   9.007  11.299  0.7818  0.1655 -0.3466
14334SOL    HW147813   8.885   8.961  11.313 -1.4840  3.0047 -3.0434
14334SOL    HW247814   9.007   8.964  11.223  0.6530  0.2058 -0.4360
14335SOL     OW47815   3.252  10.722   9.238  0.3956  1.2168 -0.3789
14335SOL    HW147816   3.233  10.816   9.239  0.3654  1.2191  0.8599
14335SOL    HW247817   3.173  10.681   9.274  0.0938  0.6387 -1.6634
14336SOL     OW47818   4.483   7.405   7.830  0.2034 -0.5212 -0.1839
14336SOL    HW147819   4.413   7.469   7.836  0.6635 -0.0488  0.3524
14336SOL    HW247820   4.487   7.382   7.738  0.8964  1.2328 -0.6380
14337SOL     OW47821   6.340  11.963   2.730 -0.0209  0.3263 -0.3915
14337SOL    HW147822   6.373  11.915   2.655 -0.1017  1.4277 -1.1532
14337SOL    HW247823   6.299  11.896   2.786 -1.4828 -0.3150 -2.1275
14338SOL     OW47824   8.084   7.182  12.097  0.5343  0.1430 -0.1699
14338SOL    HW147825   8.023   7.109  12.109  0.0271  0.8101  1.5242
14338SOL    HW247826   8.170   7.147  12.120  0.1233  0.3449  1.8706
14339SOL     OW47827   7.010  12.214   7.627  0.2941  0.0679 -0.0247
14339SOL    HW147828   7.026  12.306   7.650 -0.2008 -0.3943  2.5051
14339SOL    HW247829   7.093  12.170   7.646 -0.0210 -0.2741  0.6159
14340SOL     OW47830   1.822   7.815  11.329 -0.1050 -0.5849 -0.0566
14340SOL    HW147831   1.792   7.763  11.254  1.0977  0.5047 -1.3458
14340SOL    HW247832   1.896   7.766  11.364  0.4556 -0.2187 -0.7065
14341SOL     OW47833   3.885   5.333   8.554  0.2516 -0.1859 -0.0876
14341SOL    HW147834   3.895   5.244   8.519 -1.5890 -0.5998  0.3056
14341SOL    HW247835   3.912   5.326   8.645 -0.6482 -0.5646  0.1647
14342SOL     OW47836   2.846   4.288   7.664  0.3541  0.4539 -0.1916
14342SOL    HW147837   2.914   4.315   7.726  0.9812  1.4395 -1.2775
14342SOL    HW247838   2.783   4.240   7.718  0.3365  2.1581  1.4196
14343SOL     OW47839  12.613   9.589   5.492  0.2050  0.3244  0.2216
14343SOL    HW147840  12.562   9.549   5.421  0.1023 -1.2178  1.1145
14343SOL    HW247841  12.551   9.596   5.565  0.9620 -0.5129  0.9611
14344SOL     OW47842  11.955   2.828   5.732  0.1305  0.4104 -0.1633
14344SOL    HW147843  11.886   2.890   5.752  0.1367 -0.4149  2.9037
14344SOL    HW247844  12.036   2.872   5.758  0.2438 -0.3573  0.8807
14345SOL     OW47845   3.151   7.767   6.761  0.1010 -0.5557  0.2215
14345SOL    HW147846   3.095   7.712   6.707  0.3868 -1.3674  0.7425
14345SOL    HW247847   3.220   7.708   6.792 -0.4221 -0.2546  2.0091
14346SOL     OW47848  11.796   6.506  11.100  0.4645  0.2790 -0.1077
14346SOL    HW147849  11.864   6.536  11.039  0.8454  0.5796  0.4596
14346SOL    HW247850  11.759   6.586  11.137 -0.4121  0.1246 -0.6310
14347SOL     OW47851   4.553  11.769   8.733 -0.4026  0.4660  0.8449
14347SOL    HW147852   4.472  11.766   8.784 -0.9657  1.4684  0.0465
14347SOL    HW247853   4.596  11.849   8.763 -0.9268  1.2791 -0.4936
14348SOL     OW47854   4.503   5.882   4.037 -0.6687 -0.1086  0.0229
14348SOL    HW147855   4.513   5.818   4.108  2.6889 -0.3478 -0.5378
14348SOL    HW247856   4.539   5.839   3.960  1.0059  2.1280 -0.5436
14349SOL     OW47857   9.914   5.846   2.562  0.2216 -0.1569 -0.2720
14349SOL    HW147858   9.843   5.827   2.500  0.2702 -0.5062 -0.2195
14349SOL    HW247859   9.875   5.906   2.626 -0.1942 -0.8125  0.0908
14350SOL     OW47860   0.158   9.795   0.981 -0.4631 -0.1977 -0.8297
14350SOL    HW147861   0.083   9.851   1.000 -0.9870 -0.7183 -1.3194
14350SOL    HW247862   0.233   9.854   0.983 -0.9872  0.4924 -1.1916
14351SOL     OW47863   4.416   3.891   3.670  0.4645  0.5372  0.2144
14351SOL    HW147864   4.364   3.947   3.613  1.0274  1.2580  0.4013
14351SOL    HW247865   4.483   3.854   3.613  0.8257  1.0021  0.3266
14352SOL     OW47866   9.822  10.130   4.518 -0.1772 -0.3248 -0.3522
14352SOL    HW147867   9.775  10.187   4.579  0.1527 -0.4086 -0.0212
14352SOL    HW247868   9.766  10.128   4.440  1.4821  3.3745 -1.8493
14353SOL     OW47869   2.948   2.072   3.440  0.1398 -0.4781  0.4368
14353SOL    HW147870   2.903   2.055   3.357  1.2226 -1.5752  0.0552
14353SOL    HW247871   2.926   2.163   3.461  0.0161 -0.1189 -1.1511
14354SOL     OW47872   5.534   0.238   8.352 -0.1926  0.1326  0.1694
14354SOL    HW147873   5.517   0.147   8.328 -3.0975 -0.2572  3.0326
14354SOL    HW247874   5.510   0.288   8.274  0.4687 -1.4436 -1.1014
14355SOL     OW47875   0.844   1.031   9.404 -0.4522  0.1646 -0.4287
14355SOL    HW147876   0.839   1.120   9.440 -2.2758  0.0317 -0.2719
14355SOL    HW247877   0.917   0.991   9.451 -0.1845  1.2856  0.1568
14356SOL     OW47878   5.785   9.653   8.516  0.3698 -0.0033 -0.3782
14356SOL    HW147879   5.706   9.644   8.570 -0.4236  0.5652 -1.4039
14356SOL    HW247880   5.849   9.692   8.575 -0.6158  1.0321  0.0672
14357SOL     OW47881   2.451  11.392  11.425 -0.4225  0.1214  0.0401
14357SOL    HW147882   2.447  11.467  11.484  0.9305  0.6254 -0.4845
14357SOL    HW247883   2.376  11.338  11.451 -0.8678  1.1728  1.0526
14358SOL     OW47884   9.334   2.257   7.803 -0.1622  0.2258 -0.1214
14358SOL    HW147885   9.338   2.169   7.842  3.3474 -0.4103 -1.5025
14358SOL    HW247886   9.396   2.309   7.854  1.1816  0.5831 -1.9842
14359SOL     OW47887   7.208   6.110  12.123 -0.1484  0.1777 -0.9765
14359SOL    HW147888   7.254   6.150  12.196 -0.4558 -0.8760 -0.1754
14359SOL    HW247889   7.115   6.115  12.147 -0.2591 -0.1001 -1.3256
14360SOL     OW47890  12.283   6.569   8.077 -0.5498  0.0883  0.1970
14360SOL    HW147891  12.262   6.627   8.004 -1.4101 -1.4963 -0.8727
14360SOL    HW247892  12.321   6.626   8.143  0.9256  1.4801 -1.7460
14361SOL     OW47893  10.685   7.945   5.098  0.0506 -0.0300  0.0566
14361SOL    HW147894  10.637   7.883   5.042 -0.2946  1.6775 -1.6672
14361SOL    HW247895  10.703   7.896   5.178 -1.1969 -1.9711 -0.7627
14362SOL     OW47896   6.297   2.384   6.382 -0.3115 -0.0426  0.3060
14362SOL    HW147897   6.302   2.305   6.329  0.6202 -0.5175  1.0566
14362SOL    HW247898   6.375   2.434   6.358 -0.3164  0.1207  0.6240
14363SOL     OW47899   9.751   1.122   4.282 -0.4174 -0.2472 -0.2439
14363SOL    HW147900   9.712   1.080   4.206 -0.4043 -0.5198 -0.1006
14363SOL    HW247901   9.721   1.071   4.356  0.8852 -0.9785 -0.1859
14364SOL     OW47902  12.087   9.537   0.732  0.4535  0.3471 -0.0553
14364SOL    HW147903  12.108   9.445   0.717 -0.3392  0.2016 -0.3562
14364SOL    HW247904  12.042   9.537   0.817 -0.4127  0.3098 -0.5049
14365SOL     OW47905  11.743   2.979  12.050 -0.2312 -0.2479 -0.1979
14365SOL    HW147906  11.788   3.011  12.127  2.3654 -0.9270 -1.3197
14365SOL    HW247907  11.698   2.900  12.079 -1.2766  0.7827  1.0967
14366SOL     OW47908   4.133   1.433   5.183 -0.0723  0.2508 -0.6279
14366SOL    HW147909   4.217   1.470   5.159  0.0804  0.6388  0.4698
14366SOL    HW247910   4.137   1.342   5.153  1.2707 -0.1280  0.6010
14367SOL     OW47911   7.653  12.599   4.518  0.4687  0.3211 -0.4080
14367SOL    HW147912   7.647  12.680   4.469  0.7206  0.2273 -0.5911
14367SOL    HW247913   7.621  12.532   4.458  1.7254  0.0598 -0.7965
14368SOL     OW47914   5.564   7.219   2.302  0.2793  0.2406 -0.1879
14368SOL    HW147915   5.557   7.288   2.236  0.1025 -0.4392 -0.8953
14368SOL    HW247916   5.627   7.253   2.365 -0.3466  1.3551 -0.1348
14369SOL     OW47917  10.094  10.185   4.205 -0.5952  0.6309  0.1458
14369SOL    HW147918  10.188  10.179   4.189 -0.3482  1.2824  1.2739
14369SOL    HW247919  10.086  10.230   4.289 -1.9050  0.0582  0.3571
14370SOL     OW47920   6.505   7.984   2.172  0.9195 -0.1013 -1.1472
14370SOL    HW147921   6.597   7.981   2.145  1.1845  0.8208 -0.4190
14370SOL    HW247922   6.484   7.895   2.199  1.9514 -0.0831 -0.2436
14371SOL     OW47923   7.348   5.233   5.248  0.3767 -0.4373 -0.3515
14371SOL    HW147924   7.319   5.202   5.162 -1.3277 -0.7194  0.2718
14371SOL    HW247925   7.443   5.228   5.245  0.2900 -2.2566 -1.5756
14372SOL     OW47926   8.342   8.390  12.052  0.4231  0.3416 -0.1814
14372SOL    HW147927   8.385   8.376  12.136  0.7483  0.2392 -0.3624
14372SOL    HW247928   8.371   8.477  12.024  0.3496  0.3568 -0.2099
14373SOL     OW47929   1.676   2.148   4.933 -0.4529 -0.4419  0.0174
14373SOL    HW147930   1.768   2.123   4.945 -0.5518 -1.1585 -0.6264
14373SOL    HW247931   1.675   2.243   4.948  0.4680 -0.3532 -0.4063
14374SOL     OW47932   2.361   4.955   8.732  0.2065 -0.1660 -0.2349
14374SOL    HW147933   2.425   5.007   8.780  1.1742 -0.3723 -1.2525
14374SOL    HW247934   2.289   5.015   8.714  0.9677  0.6129 -0.7347
14375SOL     OW47935   7.667   2.064   1.364 -0.0475 -0.1216 -0.1054
14375SOL    HW147936   7.674   2.099   1.453  1.0202  1.2360 -0.6924
14375SOL    HW247937   7.742   2.006   1.355 -0.4640 -0.6888  0.0592
14376SOL     OW47938   7.899   8.311  10.146 -0.2727  0.4598 -0.0385
14376SOL    HW147939   7.981   8.290  10.191 -0.5018  0.4826  0.3928
14376SOL    HW247940   7.926   8.335  10.058  0.0387 -1.2257 -0.4333
14377SOL     OW47941   3.217   0.220   9.953  0.2367 -0.5518 -0.6264
14377SOL    HW147942   3.182   0.213   9.864  0.0127  0.0814 -0.5983
14377SOL    HW247943   3.216   0.314   9.971  0.0262 -0.6951  0.1497
14378SOL     OW47944   0.109   7.128   2.960  0.1238 -0.0810 -0.1472
14378SOL    HW147945   0.111   7.224   2.957 -0.5246  0.0181  1.5096
14378SOL    HW247946   0.119   7.101   2.869  0.1336  1.5645 -0.6686
14379SOL     OW47947   7.718   8.588   8.280  0.0875  0.0112 -0.3571
14379SOL    HW147948   7.675   8.509   8.312  0.6425 -1.0623 -2.1513
14379SOL    HW247949   7.809   8.562   8.265  0.4412  1.1794 -0.3473
14380SOL     OW47950   1.588   6.827   1.221 -0.2258  0.3414  0.1413
14380SOL    HW147951   1.677   6.803   1.193 -0.2193 -0.5355  0.8760
14380SOL    HW247952   1.577   6.917   1.191  1.2125  0.7463  0.7478
14381SOL     OW47953  10.602  11.130   5.050 -0.0742  0.4314 -0.3221
14381SOL    HW147954  10.524  11.116   4.997 -1.5577  0.9772  1.6208
14381SOL    HW247955  10.606  11.225   5.064  0.2587  0.3050  0.5480
14382SOL     OW47956   8.233  12.610   3.184  0.3671 -0.6390  0.3117
14382SOL    HW147957   8.155  12.621   3.238 -0.7188  0.9333 -1.4693
14382SOL    HW247958   8.224  12.523   3.145 -1.4655  0.2000 -1.2708
14383SOL     OW47959   7.584   6.152   4.343  0.2531  0.2178  0.6517
14383SOL    HW147960   7.678   6.137   4.346  0.2030  0.0633  2.0299
14383SOL    HW247961   7.574   6.238   4.301  0.9158 -0.3036 -0.6362
14384SOL     OW47962  11.926   9.974   0.741  0.3645 -0.0447  0.3346
14384SOL    HW147963  11.843   9.976   0.789  0.9975  0.3556  1.4578
14384SOL    HW247964  11.932  10.061   0.701  0.3171 -0.0186  0.3838
14385SOL     OW47965   8.010   8.638   9.492  0.4860 -0.6712 -0.4099
14385SOL    HW147966   7.939   8.657   9.553  0.4142  0.3721 -0.8101
14385SOL    HW247967   8.062   8.570   9.536  0.1026 -0.3527  0.5459
14386SOL     OW47968   0.953   7.150   0.448  0.1266 -0.4345 -0.1785
14386SOL    HW147969   0.910   7.123   0.530 -0.9889 -0.7775 -0.8605
14386SOL    HW247970   0.908   7.101   0.380  1.7984 -1.0130 -0.9263
14387SOL     OW47971   7.843  12.158   9.650  0.0395 -0.5475  0.4708
14387SOL    HW147972   7.754  12.126   9.639  0.0853 -0.0771 -1.6902
14387SOL    HW247973   7.898  12.084   9.621  0.2994 -0.3852  0.5490
14388SOL     OW47974   1.085   5.005  10.405 -0.2357 -0.0128  0.1219
14388SOL    HW147975   1.000   4.968  10.383 -0.9820  1.9324 -0.5131
14388SOL    HW247976   1.146   4.965  10.344 -0.6105 -1.6250  0.7519
14389SOL     OW47977   5.863   2.421   9.269  0.2394 -0.1193  0.3374
14389SOL    HW147978   5.939   2.365   9.284 -1.0828 -1.8270  0.9685
14389SOL    HW247979   5.896   2.492   9.214  2.7632  0.3606  2.3149
14390SOL     OW47980   3.974   8.089   9.734  0.2789 -0.0553  0.1939
14390SOL    HW147981   4.052   8.104   9.788  0.3180  2.6845 -0.4911
14390SOL    HW247982   3.917   8.164   9.751 -1.3307 -0.9648 -0.8497
14391SOL     OW47983   4.041  11.484   2.792  0.0248  0.3263 -0.2329
14391SOL    HW147984   4.000  11.570   2.784 -1.9816 -0.4040  1.3648
14391SOL    HW247985   4.000  11.431   2.724 -0.0144  0.1971 -0.1099
14392SOL     OW47986   4.926   5.875  10.539  0.2782 -0.1293 -0.4252
14392SOL    HW147987   4.928   5.825  10.457  1.5600  0.0691 -0.5260
14392SOL    HW247988   4.937   5.966  10.512 -0.5649  0.0685 -0.1212
14393SOL     OW47989  10.089   6.583   9.654  0.1318 -0.3111 -0.0068
14393SOL    HW147990  10.107   6.665   9.700  0.6910 -1.0112  1.0481
14393SOL    HW247991  10.133   6.594   9.569 -0.9852  1.0187 -0.4593
14394SOL     OW47992   1.317   6.709   6.603  0.2032 -0.5083  0.3023
14394SOL    HW147993   1.330   6.803   6.619 -1.1224 -0.3736  0.6713
14394SOL    HW247994   1.350   6.667   6.683  1.3592 -0.4151 -0.1084
14395SOL     OW47995  10.383   5.728   2.183 -0.0033 -0.5856  0.0055
14395SOL    HW147996  10.478   5.724   2.174 -0.0370 -2.5191  0.1008
14395SOL    HW247997  10.351   5.756   2.097  0.7139  2.5298  0.6418
14396SOL     OW47998   0.472   7.093   2.184 -1.0436 -0.5887 -0.1850
14396SOL    HW147999   0.402   7.145   2.222  0.8562  0.0290  2.7657
14396SOL    HW248000   0.491   7.136   2.100 -2.5888  0.6295  0.0503
14397SOL     OW48001   5.501   4.232   9.538  0.2809 -0.0767 -0.7023
14397SOL    HW148002   5.530   4.142   9.523  0.4033 -0.4450  1.4352
14397SOL    HW248003   5.577   4.276   9.574 -0.0264  0.6845 -0.9532
14398SOL     OW48004  10.975   6.215   7.278 -0.0090 -0.3645 -0.3227
14398SOL    HW148005  11.054   6.161   7.286 -0.2780 -0.6676  0.3876
14398SOL    HW248006  10.927   6.200   7.360 -0.6851  0.0046 -0.6401
14399SOL     OW48007   0.244   2.718   0.615  0.0469 -0.0351 -0.3841
14399SOL    HW148008   0.235   2.673   0.699 -1.0775  0.3989 -0.2588
14399SOL    HW248009   0.224   2.651   0.550  0.8809 -0.3618 -0.3144
14400SOL     OW48010  11.191   3.674   7.562 -0.1302  0.5074  0.8980
14400SOL    HW148011  11.252   3.634   7.500 -2.5241 -0.1111 -1.2399
14400SOL    HW248012  11.169   3.603   7.622  0.2552  0.3480  0.8507
14401SOL     OW48013   2.374   6.749   3.388 -0.3196  0.6273  0.0351
14401SOL    HW148014   2.328   6.666   3.399 -0.1257  0.6133  0.8232
14401SOL    HW248015   2.444   6.747   3.454  0.6893  0.7292 -1.0112
14402SOL     OW48016   2.522   3.070   1.012 -0.4210 -0.1784  0.7427
14402SOL    HW148017   2.527   3.155   0.968 -1.1056  0.5681  2.0598
14402SOL    HW248018   2.454   3.080   1.078 -3.1664 -2.8648 -1.3508
14403SOL     OW48019   6.340  10.102   0.485 -0.1748  0.3892 -0.3123
14403SOL    HW148020   6.270  10.036   0.489  0.0391  0.1914  2.5412
14403SOL    HW248021   6.421  10.052   0.495  0.0254  0.9436  1.2096
14404SOL     OW48022   9.219   5.133  10.722  0.4538  0.2903  0.2790
14404SOL    HW148023   9.198   5.082  10.644  0.4878  0.2432  0.3002
14404SOL    HW248024   9.224   5.223  10.691 -1.1233  0.4908  0.5211
14405SOL     OW48025   9.133  11.321   2.159  0.9371 -0.3521  0.5449
14405SOL    HW148026   9.062  11.259   2.171  0.8560 -0.4294 -0.2631
14405SOL    HW248027   9.189  11.281   2.092 -0.3831  1.4820 -1.7992
14406SOL     OW48028  11.209   5.709   4.496  0.0834  0.2223  0.4932
14406SOL    HW148029  11.195   5.749   4.582 -0.6147 -0.5167  0.7379
14406SOL    HW248030  11.170   5.621   4.503  1.7394 -0.5990  0.0404
14407SOL     OW48031  10.717   7.440   4.135 -0.1408 -0.0704  0.2996
14407SOL    HW148032  10.674   7.392   4.206 -0.9429  0.5091  0.2228
14407SOL    HW248033  10.679   7.528   4.140 -2.4458 -0.7459 -2.6475
14408SOL     OW48034  12.481   5.373   5.629 -0.2749 -0.0664  0.4655
14408SOL    HW148035  12.489   5.335   5.541 -0.8445  0.0026  0.3778
14408SOL    HW248036  12.469   5.467   5.613 -0.8978 -0.1213  0.5892
14409SOL     OW48037   4.646   4.719   9.689  0.1970  0.0207  0.1245
14409SOL    HW148038   4.703   4.643   9.676  1.1324  0.8932 -1.1541
14409SOL    HW248039   4.706   4.788   9.718 -0.6940  0.2131  1.6335
14410SOL     OW48040   0.517   7.772  10.851 -0.1677 -0.0882 -0.1819
14410SOL    HW148041   0.449   7.755  10.916  0.6339  0.4950  0.8194
14410SOL    HW248042   0.563   7.849  10.883  1.0642 -0.5464 -0.7786
14411SOL     OW48043  11.666   3.997   5.987 -0.0179 -0.2014 -0.8581
14411SOL    HW148044  11.584   4.047   5.983 -0.3705 -0.7212 -0.2066
14411SOL    HW248045  11.728   4.057   6.028  0.1406  0.4549 -1.9935
14412SOL     OW48046   8.773   8.488  12.054  0.7625 -0.3996 -0.3508
14412SOL    HW148047   8.734   8.415  12.005  0.9565 -0.8322  0.1436
14412SOL    HW248048   8.856   8.505  12.009  2.0603 -2.3014  1.1599
14413SOL     OW48049   7.208   4.315   7.764  0.4871 -0.3451  0.2375
14413SOL    HW148050   7.252   4.265   7.696 -0.1614 -1.5160  0.6536
14413SOL    HW248051   7.277   4.372   7.800  0.9844 -0.1847 -0.9280
14414SOL     OW48052   1.808   9.000  12.500 -0.1030  0.2931  0.0432
14414SOL    HW148053   1.815   8.974  12.591  2.3941 -0.6488 -0.3401
14414SOL    HW248054   1.870   8.944  12.454 -1.8127  0.2321 -2.3798
14415SOL     OW48055   6.438   1.678   5.582  0.4876 -0.3502 -0.2053
14415SOL    HW148056   6.512   1.731   5.553  0.6959 -1.1846 -1.2387
14415SOL    HW248057   6.361   1.725   5.550  0.6052 -0.0425 -0.0487
14416SOL     OW48058   9.061   4.410   5.701 -0.1212 -0.3595  0.2204
14416SOL    HW148059   9.099   4.489   5.738 -0.7741  0.1220 -0.1243
14416SOL    HW248060   9.020   4.366   5.775 -0.3173 -0.0467  0.2988
14417SOL     OW48061   0.410   7.618   0.925  0.7543  0.4447  0.3643
14417SOL    HW148062   0.344   7.631   0.994 -0.9741  1.1227 -1.3030
14417SOL    HW248063   0.489   7.594   0.972 -0.3953  0.6427  2.5682
14418SOL     OW48064   6.837  12.127   8.251 -0.1358 -0.4108  0.1039
14418SOL    HW148065   6.866  12.177   8.175 -2.0176 -0.7765 -0.9138
14418SOL    HW248066   6.918  12.105   8.298  1.0161  0.3456 -1.4511
14419SOL     OW48067   7.147   4.273   4.398  1.0182  0.1102  0.4937
14419SOL    HW148068   7.078   4.337   4.416  1.6930  0.7392  0.8995
14419SOL    HW248069   7.103   4.189   4.406 -0.2814  0.5122 -1.6565
14420SOL     OW48070   9.458   3.962   6.224  0.4319 -0.0816  0.3023
14420SOL    HW148071   9.503   4.045   6.239 -0.7668  0.9071 -1.2182
14420SOL    HW248072   9.527   3.901   6.196  1.3002  0.4190  1.2955
14421SOL     OW48073   8.268   6.485   7.681 -0.0145  0.3724 -0.2148
14421SOL    HW148074   8.357   6.513   7.660 -0.5394  1.7075 -0.7694
14421SOL    HW248075   8.230   6.461   7.596  0.0534 -0.9924  0.1146
14422SOL     OW48076   1.764   2.327   9.262 -0.0798 -0.2062  0.2413
14422SOL    HW148077   1.827   2.298   9.195  0.5061 -0.5308  0.9155
14422SOL    HW248078   1.769   2.423   9.260 -2.3288 -0.0132 -2.2953
14423SOL     OW48079  12.536  10.910   5.457 -0.1607 -0.4125  0.1288
14423SOL    HW148080  12.619  10.927   5.412 -0.0454 -1.0129  0.1134
14423SOL    HW248081  12.469  10.944   5.397 -0.1384 -2.8985 -1.4140
14424SOL     OW48082   8.369   4.807   1.739  0.5351 -0.2439 -0.0507
14424SOL    HW148083   8.326   4.893   1.744  1.0394  0.0027  0.0998
14424SOL    HW248084   8.326   4.754   1.806 -1.1775 -0.7496 -1.4574
14425SOL     OW48085   7.464   0.363  10.689 -0.1300 -0.1900 -0.0370
14425SOL    HW148086   7.384   0.409  10.717 -1.4327 -1.3935 -1.5636
14425SOL    HW248087   7.489   0.311  10.764  0.8193  2.1913  1.4014
14426SOL     OW48088  12.181   2.628  11.327 -0.0002  0.4333 -1.0484
14426SOL    HW148089  12.175   2.692  11.256  0.9261  1.6929 -0.0382
14426SOL    HW248090  12.274   2.617  11.342 -0.1380 -1.3046 -1.2902
14427SOL     OW48091   3.903   6.739   9.950 -0.0238 -0.1743  0.3143
14427SOL    HW148092   3.943   6.737   9.863 -0.4895  3.1140 -0.1007
14427SOL    HW248093   3.960   6.797  10.001 -1.2247  0.1010  1.3900
14428SOL     OW48094  10.381  10.990   8.862  0.5362  0.3267  0.1566
14428SOL    HW148095  10.332  11.068   8.839  0.5228  0.4515  0.5890
14428SOL    HW248096  10.379  10.988   8.958  0.8756  0.0158  0.1613
14429SOL     OW48097   5.156   1.246   9.620  0.6591 -0.0905  0.0628
14429SOL    HW148098   5.073   1.273   9.580  0.7165  0.3653  0.2421
14429SOL    HW248099   5.211   1.223   9.545  0.1977 -0.9296 -0.0326
14430SOL     OW48100   4.787   9.620   7.804 -0.3524  0.2579  0.3380
14430SOL    HW148101   4.862   9.675   7.825 -0.4822  1.7743 -2.7162
14430SOL    HW248102   4.825   9.542   7.765 -0.3151 -0.4955  1.7862
14431SOL     OW48103   6.086   4.544  11.430 -0.0142  0.6249 -0.5319
14431SOL    HW148104   6.131   4.580  11.353 -1.2377  1.4049 -0.9161
14431SOL    HW248105   6.080   4.619  11.490  0.7603  0.0687  0.2617
14432SOL     OW48106   9.755  10.458   1.855 -0.8953 -0.4880  0.1841
14432SOL    HW148107   9.753  10.554   1.861 -0.9653 -0.5292  0.9762
14432SOL    HW248108   9.665  10.433   1.834 -0.5553 -0.3086 -1.6736
14433SOL     OW48109   3.518   0.888   6.623 -0.1026 -0.0161  0.2272
14433SOL    HW148110   3.607   0.894   6.589 -0.5564  4.5770 -0.7808
14433SOL    HW248111   3.463   0.883   6.545 -0.8534 -0.5196  0.7716
14434SOL     OW48112  10.052   0.317   7.836  0.9506 -0.3927 -0.1989
14434SOL    HW148113  10.119   0.371   7.794 -0.0829  0.1267 -1.2340
14434SOL    HW248114   9.983   0.378   7.861  0.0478 -1.1276 -0.8161
14435SOL     OW48115   2.796   9.951   7.910  0.4614  0.9076  0.1043
14435SOL    HW148116   2.801   9.888   7.983  0.6198  1.5529  0.6603
14435SOL    HW248117   2.808  10.036   7.952  0.5553  1.2855 -0.6880
14436SOL     OW48118   2.792   2.221   6.773 -0.0655  0.2879  0.0936
14436SOL    HW148119   2.767   2.130   6.790  0.3652 -0.2616 -1.9369
14436SOL    HW248120   2.757   2.240   6.686  1.8866  1.2391 -0.5430
14437SOL     OW48121   0.265  11.208   2.519  0.0431  0.0362  0.9088
14437SOL    HW148122   0.233  11.120   2.500  0.9774 -0.1123 -0.0268
14437SOL    HW248123   0.240  11.223   2.610 -0.8948 -0.8471  0.8197
14438SOL     OW48124   8.365   1.566   9.893  0.6871  0.4477 -0.5192
14438SOL    HW148125   8.397   1.475   9.893 -0.3933  0.0386  0.1535
14438SOL    HW248126   8.293   1.565   9.829  0.4489  0.7303 -0.2577
14439SOL     OW48127   6.880  10.039  12.227  0.8365  0.1154  0.0608
14439SOL    HW148128   6.906  10.110  12.168  0.5412  0.1458 -0.0343
14439SOL    HW248129   6.863  10.082  12.310 -1.4618  0.5033 -0.5399
14440SOL     OW48130   5.932  10.289   9.889 -0.9812  0.2184 -0.0588
14440SOL    HW148131   5.862  10.225   9.893  0.5783 -1.7349 -1.6271
14440SOL    HW248132   5.927  10.326   9.800  0.2241 -0.3385 -0.3891
14441SOL     OW48133   9.913   5.183  11.844 -0.3996 -0.2623 -0.1816
14441SOL    HW148134   9.959   5.252  11.891  0.8059 -1.0467 -0.1648
14441SOL    HW248135   9.822   5.213  11.839 -0.2260  0.5680  1.2459
14442SOL     OW48136   6.278   6.011   4.883 -0.5826  0.2350  0.1252
14442SOL    HW148137   6.253   6.103   4.888  0.1939  0.3934  1.8310
14442SOL    HW248138   6.355   6.004   4.940  0.9119 -0.9850 -1.9023
14443SOL     OW48139   5.997   6.119   5.522  0.2690  0.7367  0.7289
14443SOL    HW148140   6.047   6.166   5.455 -2.6695  1.8565 -0.8391
14443SOL    HW248141   5.982   6.033   5.484 -1.3311  1.3462 -0.0890
14444SOL     OW48142   3.705   7.840   8.560  0.0289  0.3827 -0.7840
14444SOL    HW148143   3.703   7.895   8.638  0.0398  1.5983 -1.6259
14444SOL    HW248144   3.770   7.880   8.503  0.7717 -1.0842 -1.0237
14445SOL     OW48145   3.193  12.522   4.368  0.1306 -0.6469  0.3351
14445SOL    HW148146   3.148  12.495   4.288  0.6818 -1.6999  0.3598
14445SOL    HW248147   3.124  12.561   4.422 -0.3415 -0.3609 -0.4525
14446SOL     OW48148   9.194  11.534  11.306  0.2953  0.2576  0.3470
14446SOL    HW148149   9.226  11.624  11.297  0.8316  0.3299  2.3602
14446SOL    HW248150   9.125  11.526  11.241 -0.0077  2.2491  0.3585
14447SOL     OW48151   6.429   8.021   2.595 -0.3206  0.0771  0.1767
14447SOL    HW148152   6.478   7.942   2.614 -0.8270 -0.3881 -0.4056
14447SOL    HW248153   6.456   8.046   2.507 -0.5082  0.2880  0.1780
14448SOL     OW48154  12.557   9.526   1.363 -0.4084 -0.5883 -0.3241
14448SOL    HW148155  12.634   9.576   1.338 -0.0824 -1.3599 -0.8796
14448SOL    HW248156  12.501   9.589   1.409  1.9364 -0.7007  3.0811
14449SOL     OW48157   4.269   9.113  12.358  0.4964 -0.1023  0.0842
14449SOL    HW148158   4.328   9.183  12.329 -0.2623  1.2075  1.5855
14449SOL    HW248159   4.225   9.148  12.435  0.0264 -2.2272  0.8565
14450SOL     OW48160   0.975   7.965   6.500 -0.4840 -0.1707 -0.6292
14450SOL    HW148161   0.978   7.888   6.558  0.8818  1.2087  1.2668
14450SOL    HW248162   1.064   7.974   6.468 -0.0324  1.8849  1.0239
14451SOL     OW48163   6.327   6.835  12.244 -0.3414 -0.3496  0.5911
14451SOL    HW148164   6.344   6.799  12.331 -1.3209 -2.4920 -0.0248
14451SOL    HW248165   6.247   6.887  12.255 -0.9396 -1.2867  0.8485
14452SOL     OW48166   9.174   4.475  10.631 -0.3473  0.3894  0.1951
14452SOL    HW148167   9.235   4.414  10.672 -2.1284 -2.6366 -1.2606
14452SOL    HW248168   9.190   4.466  10.538 -0.2412  2.7656 -0.0761
14453SOL     OW48169   2.057   6.548   9.259  0.1036 -0.2996 -0.6050
14453SOL    HW148170   1.976   6.582   9.220 -0.5697  0.7545  1.6011
14453SOL    HW248171   2.097   6.624   9.302  0.8404 -1.3911  0.6916
14454SOL     OW48172   3.316   1.676  10.755 -0.1503  0.0269 -0.5432
14454SOL    HW148173   3.307   1.771  10.747  1.9066  0.2664 -0.4565
14454SOL    HW248174   3.360   1.663  10.839  0.3285 -0.9515 -0.9326
14455SOL     OW48175   6.139   4.931   7.012 -0.2447 -0.5046  0.7694
14455SOL    HW148176   6.201   4.948   6.941  1.5673  0.2144  2.4298
14455SOL    HW248177   6.135   4.836   7.019  0.3592 -0.5631  0.3844
14456SOL     OW48178  10.268   3.666   4.874 -0.5440  0.3301 -0.5784
14456SOL    HW148179  10.188   3.657   4.821 -1.2752 -1.9232  0.7701
14456SOL    HW248180  10.335   3.692   4.811 -1.8986  0.1632 -2.1605
14457SOL     OW48181   9.327   1.891  12.448  0.7951 -0.2845  0.3326
14457SOL    HW148182   9.329   1.946  12.526 -0.8919 -0.3074  0.4261
14457SOL    HW248183   9.235   1.888  12.423  1.1838 -1.0389 -1.1270
14458SOL     OW48184   3.774   7.510   3.130 -0.2335  0.0748 -0.8733
14458SOL    HW148185   3.746   7.419   3.145 -2.0311  0.7566  0.3338
14458SOL    HW248186   3.693   7.557   3.111  0.6661  1.4480 -1.4612
14459SOL     OW48187   5.251   4.652   1.380  0.1761 -0.0035  0.4241
14459SOL    HW148188   5.323   4.712   1.363 -0.2605  0.3368 -0.2403
14459SOL    HW248189   5.179   4.707   1.409 -0.3033 -0.1668 -0.4214
14460SOL     OW48190   9.947   2.055   1.989 -0.8502 -0.2071 -0.4768
14460SOL    HW148191  10.025   2.014   1.950  0.3733  0.9087  0.6827
14460SOL    HW248192   9.946   2.024   2.079 -2.8393 -1.6295 -0.9191
14461SOL     OW48193  10.221   3.355   8.191 -0.1638 -0.3517 -0.0732
14461SOL    HW148194  10.168   3.348   8.111 -0.3095  1.9101 -0.2200
14461SOL    HW248195  10.159   3.343   8.262 -0.1728 -1.5386 -0.2484
14462SOL     OW48196   9.308   1.927  11.165  0.0977 -0.3233 -0.1145
14462SOL    HW148197   9.348   1.859  11.111  0.5653  0.9622 -1.4290
14462SOL    HW248198   9.280   1.994  11.103 -0.8079  0.4755  1.1106
14463SOL     OW48199   4.272   2.576  10.802  0.2140  0.1142 -0.0233
14463SOL    HW148200   4.342   2.550  10.742  0.2042  0.3429 -0.1330
14463SOL    HW248201   4.298   2.663  10.832 -0.8591  0.9293 -1.3588
14464SOL     OW48202   5.188   7.819   0.554  0.4328  0.5530 -0.2512
14464SOL    HW148203   5.186   7.804   0.460  1.1153 -1.7892  0.0491
14464SOL    HW248204   5.220   7.737   0.591 -0.3757  1.2130  2.0833
14465SOL     OW48205  10.743  10.035   7.016 -0.1451 -0.1149 -0.4665
14465SOL    HW148206  10.669  10.095   7.028 -1.0350 -1.3233  0.4184
14465SOL    HW248207  10.707   9.963   6.965  0.8167 -0.0693 -1.2327
14466SOL     OW48208   7.075   2.466   1.934 -0.1208  0.3412 -0.3032
14466SOL    HW148209   7.019   2.535   1.969  1.0156  1.4504 -0.5967
14466SOL    HW248210   7.064   2.472   1.839 -1.9608 -1.6013 -0.2951
14467SOL     OW48211   5.347   3.129   3.538 -0.3986  0.1813 -0.1305
14467SOL    HW148212   5.344   3.041   3.498 -0.8264  0.9834 -1.9840
14467SOL    HW248213   5.324   3.188   3.466  2.2461  2.0366  0.4138
14468SOL     OW48214   1.491   4.160   4.108 -0.5635  0.7158 -0.3352
14468SOL    HW148215   1.510   4.068   4.124 -2.5011  0.2235 -0.6916
14468SOL    HW248216   1.518   4.175   4.018 -0.1059  0.5470 -0.2279
14469SOL     OW48217   4.296   3.873  12.236 -0.1948 -0.4339 -0.1009
14469SOL    HW148218   4.211   3.886  12.278 -0.6315 -0.0936 -1.0384
14469SOL    HW248219   4.304   3.947  12.176  0.4861 -0.7928 -0.4618
14470SOL     OW48220   5.944   9.848   2.772 -0.7642  0.1856  0.2757
14470SOL    HW148221   6.007   9.828   2.703 -0.8933 -0.5333  0.3531
14470SOL    HW248222   5.860   9.855   2.727 -0.8941 -0.5723  0.3911
14471SOL     OW48223  11.413   6.741   5.667  0.0765 -0.2468 -0.2057
14471SOL    HW148224  11.325   6.726   5.702 -0.8925  0.3893 -2.1847
14471SOL    HW248225  11.398   6.763   5.575  2.3346 -0.2057 -0.6125
14472SOL     OW48226   1.043  11.829   3.644 -0.4268 -0.0541 -0.1641
14472SOL    HW148227   1.058  11.744   3.603 -2.6276 -0.6389  0.1421
14472SOL    HW248228   1.131  11.864   3.658  0.5068 -1.7398 -1.3731
14473SOL     OW48229   9.841   9.399   3.553  0.0448  0.2402 -0.8951
14473SOL    HW148230   9.921   9.410   3.503  0.4796  1.1773 -0.0207
14473SOL    HW248231   9.863   9.429   3.641 -1.3250  0.7294 -0.6927
14474SOL     OW48232   8.079   6.638   0.149  0.3166  0.2320 -0.2547
14474SOL    HW148233   8.085   6.687   0.231 -0.1113  1.0236 -0.6788
14474SOL    HW248234   8.153   6.670   0.097  0.1617  0.2703 -0.4530
14475SOL     OW48235   4.505   3.875   8.864 -0.0840  0.0753 -0.0600
14475SOL    HW148236   4.410   3.862   8.859 -0.0751  0.3773 -1.2073
14475SOL    HW248237   4.542   3.797   8.823  0.1607  0.0156  0.2752
14476SOL     OW48238   1.018   1.329   6.010  0.7120  0.0281  0.3404
14476SOL    HW148239   0.928   1.358   6.025  0.3316 -0.6405 -0.5554
14476SOL    HW248240   1.040   1.364   5.923  1.0236 -0.4951  0.2048
14477SOL     OW48241  11.142   2.984   7.829  0.0371  0.0202  0.2556
14477SOL    HW148242  11.081   3.032   7.885 -0.3642  1.4021 -1.2885
14477SOL    HW248243  11.225   3.030   7.838 -0.3470  1.0898 -1.2259
14478SOL     OW48244   7.573   1.288   3.351 -0.0306  0.1943  0.1270
14478SOL    HW148245   7.559   1.194   3.340 -1.9694  0.5777 -1.2970
14478SOL    HW248246   7.530   1.310   3.433 -1.1355  0.0709 -0.3932
14479SOL     OW48247   6.817   3.064   0.988  0.1618 -0.9017 -0.1767
14479SOL    HW148248   6.894   3.017   0.958 -0.4822 -1.3850 -1.1347
14479SOL    HW248249   6.777   3.007   1.053  1.0697 -0.2542  0.9938
14480SOL     OW48250  10.621   1.200   2.662 -0.0884 -0.1624 -0.0562
14480SOL    HW148251  10.551   1.178   2.600  0.4731 -0.3920 -0.6174
14480SOL    HW248252  10.577   1.204   2.747 -1.0959  1.2920 -0.6100
14481SOL     OW48253   7.872   8.736   2.829 -0.0225 -0.2269  0.0330
14481SOL    HW148254   7.933   8.808   2.812  1.2996 -1.1704  0.5592
14481SOL    HW248255   7.838   8.712   2.743  2.6991 -1.6265 -0.7863
14482SOL     OW48256   3.361   2.028   0.432 -0.6293 -0.2627 -0.0673
14482SOL    HW148257   3.385   1.943   0.468 -2.3378  0.3122  2.6647
14482SOL    HW248258   3.443   2.062   0.396  0.2960 -2.6134 -0.3899
14483SOL     OW48259   3.930   6.606   5.316 -0.2405  0.5177 -0.3835
14483SOL    HW148260   3.885   6.555   5.249 -0.3246 -0.4886  0.4155
14483SOL    HW248261   3.968   6.541   5.375  1.5320  1.3449 -0.5429
14484SOL     OW48262  10.276   7.024  11.517 -0.1732 -0.0763  0.0371
14484SOL    HW148263  10.252   7.116  11.509 -1.5644 -0.4432 -0.3896
14484SOL    HW248264  10.370   7.022  11.504 -0.1422  1.2667 -0.0679
14485SOL     OW48265   1.191   7.012   7.483  0.4802  0.0436  0.2604
14485SOL    HW148266   1.214   6.921   7.466  1.1879  0.6542 -2.5596
14485SOL    HW248267   1.102   7.008   7.516 -0.2176 -1.6099 -1.5922
14486SOL     OW48268  12.210   2.225   3.802 -0.0816  0.4170 -0.6053
14486SOL    HW148269  12.193   2.305   3.852 -0.3969 -0.2986  0.4845
14486SOL    HW248270  12.255   2.168   3.864 -1.1035 -0.7728 -0.9105
14487SOL     OW48271   0.571   2.473   0.458  0.4298  0.0631 -0.2164
14487SOL    HW148272   0.539   2.468   0.368 -0.7023  0.5021  0.1452
14487SOL    HW248273   0.554   2.563   0.484  1.3117  0.1004  0.2386
14488SOL     OW48274   5.056   6.360   8.192  0.5366 -0.4695  1.1329
14488SOL    HW148275   5.145   6.341   8.221  0.9063 -1.5161 -0.6176
14488SOL    HW248276   5.019   6.275   8.169  0.4693  0.2987 -1.9507
14489SOL     OW48277  10.948  12.143   3.771  0.1877  0.3013  0.3455
14489SOL    HW148278  10.888  12.160   3.844 -0.9534 -0.8712 -0.2708
14489SOL    HW248279  10.900  12.174   3.694  0.4804 -0.4117 -0.1317
14490SOL     OW48280   3.463   2.368   8.696  0.0668 -0.3539 -0.4680
14490SOL    HW148281   3.486   2.276   8.703  0.4671 -0.4976 -2.8173
14490SOL    HW248282   3.371   2.368   8.669  0.0629 -0.0523 -0.4586
14491SOL     OW48283   8.819  11.493   8.325  0.0022 -0.7896  0.3601
14491SOL    HW148284   8.822  11.580   8.284 -0.9512 -0.8083  0.2290
14491SOL    HW248285   8.900  11.450   8.296  0.2688 -0.1058  0.0680
14492SOL     OW48286   5.805   0.616   2.476  0.1003  0.2482 -0.0128
14492SOL    HW148287   5.863   0.558   2.525  0.0045 -0.5885 -0.8586
14492SOL    HW248288   5.729   0.627   2.533 -0.1874 -1.0307 -0.1103
14493SOL     OW48289   2.494   9.125   4.956 -0.6585 -0.7592  0.1973
14493SOL    HW148290   2.519   9.057   5.019  0.4384  0.4459  1.1093
14493SOL    HW248291   2.438   9.184   5.007 -0.9609 -0.5532 -0.3752
14494SOL     OW48292  11.969  10.089   8.117  0.2157  0.0114  0.0332
14494SOL    HW148293  11.891  10.039   8.143 -0.0301 -0.3160 -1.2545
14494SOL    HW248294  12.033  10.022   8.091 -0.1498  0.3228 -1.7946
14495SOL     OW48295   0.792  11.757   6.977  0.5522  0.1946  0.1256
14495SOL    HW148296   0.763  11.771   6.887  3.5606 -0.4189 -1.0599
14495SOL    HW248297   0.799  11.662   6.986  1.0486  0.2771  0.7079
14496SOL     OW48298   5.808   1.806   3.641 -0.6604 -0.3723  0.4540
14496SOL    HW148299   5.724   1.850   3.653 -0.8607 -0.5794 -0.1756
14496SOL    HW248300   5.857   1.863   3.582  0.2507  0.5421  2.0153
14497SOL     OW48301   7.292  10.039   0.741  0.4646 -0.0004 -0.5941
14497SOL    HW148302   7.301  10.050   0.646 -1.5858 -0.6822 -0.9172
14497SOL    HW248303   7.277  10.127   0.774 -0.3387  0.0769 -1.1285
14498SOL     OW48304  11.368   8.010  11.966 -0.6122  0.4407 -0.0780
14498SOL    HW148305  11.313   8.028  12.042 -1.0188 -1.1382  0.0385
14498SOL    HW248306  11.426   8.086  11.960  0.6066 -0.1003  2.8554
14499SOL     OW48307   6.378  11.936   4.127  0.1650  0.0267 -0.5073
14499SOL    HW148308   6.347  11.895   4.047  1.2788 -0.8257 -0.5250
14499SOL    HW248309   6.423  12.015   4.098 -1.8113  1.2332 -0.4879
14500SOL     OW48310   5.620   0.526   5.769  0.0047 -0.7128 -0.1684
14500SOL    HW148311   5.628   0.561   5.858 -0.0120  0.3271 -0.5556
14500SOL    HW248312   5.606   0.432   5.780  0.0995 -0.6038  0.9206
14501SOL     OW48313   7.243   4.784   8.165 -0.0510 -0.1327  0.0503
14501SOL    HW148314   7.192   4.846   8.218  0.9398  0.9989 -0.2860
14501SOL    HW248315   7.192   4.703   8.169 -1.2995  0.6385  0.6412
14502SOL     OW48316   0.047   3.514   4.684 -0.3327 -0.4220 -0.1568
14502SOL    HW148317   0.014   3.529   4.596 -0.9065  0.0925  0.1363
14502SOL    HW248318   0.012   3.429   4.710 -0.0123 -0.6582 -0.4859
14503SOL     OW48319  12.106   2.166  10.218  0.3396  0.2874 -0.1875
14503SOL    HW148320  12.073   2.234  10.161 -0.9003  1.1434  1.4803
14503SOL    HW248321  12.043   2.161  10.290  0.7556 -2.1472  0.0980
14504SOL     OW48322   3.781   6.368   7.992  0.2262  0.4533  1.0251
14504SOL    HW148323   3.790   6.393   7.900  1.5981 -0.7251  0.8032
14504SOL    HW248324   3.807   6.446   8.041  2.2204  0.2589  0.3681
14505SOL     OW48325   2.176  12.617   0.241  0.6208 -0.9909 -0.0276
14505SOL    HW148326   2.197  12.549   0.305 -1.2559 -1.3383  0.2841
14505SOL    HW248327   2.248  12.680   0.248  1.2161 -1.7877  1.3411
14506SOL     OW48328   7.690   0.501   3.814 -0.2736  0.0094  0.2713
14506SOL    HW148329   7.732   0.416   3.826 -0.2688  0.0987  0.9140
14506SOL    HW248330   7.749   0.563   3.856  0.1272  0.4433 -0.8972
14507SOL     OW48331   4.343  12.264   0.791 -0.3061 -0.1624  0.4653
14507SOL    HW148332   4.365  12.356   0.801  1.2134 -0.1996 -1.7830
14507SOL    HW248333   4.427  12.220   0.778 -0.8357 -2.1506  2.9080
14508SOL     OW48334  10.862   3.958  11.001  0.5208 -0.5848  0.1551
14508SOL    HW148335  10.893   3.960  11.091 -2.9202  2.0722  1.4836
14508SOL    HW248336  10.791   3.894  11.000 -1.9144  1.9603  0.4136
14509SOL     OW48337  11.958   6.591   5.839  0.2734  0.8867 -0.0456
14509SOL    HW148338  11.902   6.625   5.769 -0.6449 -1.1385 -0.3684
14509SOL    HW248339  11.998   6.513   5.802 -0.1697 -0.1917  1.6457
14510SOL     OW48340  11.667   3.589   0.478  0.5892  0.2055  0.5938
14510SOL    HW148341  11.736   3.620   0.538  0.9175  0.8678 -0.1137
14510SOL    HW248342  11.608   3.538   0.534  1.8767 -0.7581  1.1412
14511SOL     OW48343   0.012   5.862  10.114 -0.2757 -0.1208  0.2192
14511SOL    HW148344   0.040   5.890  10.201 -0.2008  0.3378  0.0467
14511SOL    HW248345   0.094   5.850  10.065 -0.2105 -2.0705  0.7121
14512SOL     OW48346   1.487   6.964  11.724  0.0229  0.2300 -0.1285
14512SOL    HW148347   1.427   6.923  11.662 -0.4308 -0.2358  0.6045
14512SOL    HW248348   1.482   6.910  11.803  1.2133  0.3355  0.0395
14513SOL     OW48349  12.291   6.314   4.947  0.4464  0.6536  0.1846
14513SOL    HW148350  12.307   6.333   5.039 -2.9171  0.2149  0.9807
14513SOL    HW248351  12.267   6.399   4.909 -0.4723  0.4692  0.3213
14514SOL     OW48352   8.264   1.760   6.809  0.1675  0.0979  0.3739
14514SOL    HW148353   8.230   1.850   6.803 -0.9406 -0.3051  0.3794
14514SOL    HW248354   8.348   1.764   6.764 -0.4222  0.8813 -0.7219
14515SOL     OW48355   7.936   4.867   2.741  0.1907 -0.4777  0.0516
14515SOL    HW148356   7.852   4.823   2.757 -1.2460  2.3709  1.3395
14515SOL    HW248357   7.998   4.822   2.799 -1.1731 -0.8253  1.3190
14516SOL     OW48358  12.238   2.098   6.293 -0.7046  0.1881 -0.1852
14516SOL    HW148359  12.183   2.053   6.229 -0.6138 -1.5979  0.9253
14516SOL    HW248360  12.324   2.057   6.284 -0.9828 -0.9605  1.8490
14517SOL     OW48361   8.938   3.146   2.626  0.8296 -0.5021  0.2623
14517SOL    HW148362   8.893   3.063   2.615  0.8164 -0.5808  0.8724
14517SOL    HW248363   8.913   3.197   2.548  1.3663 -1.2934 -0.4439
14518SOL     OW48364   7.824   2.816  11.193  0.0743 -0.1872  0.2961
14518SOL    HW148365   7.897   2.791  11.250 -0.1697  1.3759  1.3635
14518SOL    HW248366   7.791   2.898  11.231 -1.8888 -0.5582 -0.4870
14519SOL     OW48367   0.893   3.643   3.366  0.0465  0.0715  0.1831
14519SOL    HW148368   0.955   3.593   3.421  0.5429 -0.1974 -0.6071
14519SOL    HW248369   0.812   3.592   3.371  0.7374 -1.2260 -1.1615
14520SOL     OW48370  12.323   1.112   1.424 -0.2127 -0.1816 -0.0285
14520SOL    HW148371  12.318   1.098   1.329  0.9570 -0.9862  0.0115
14520SOL    HW248372  12.319   1.208   1.434  0.2772 -0.0477 -0.9440
14521SOL     OW48373   6.637  12.616   7.455 -0.5696 -0.0017  0.0017
14521SOL    HW148374   6.562  12.565   7.488  0.2277 -1.4973 -0.3818
14521SOL    HW248375   6.714  12.568   7.486  0.2221  0.0100 -1.7878
14522SOL     OW48376  10.238  10.366   4.429 -0.1118 -0.1317 -0.0324
14522SOL    HW148377  10.297  10.405   4.493  0.0826 -0.5075  0.0187
14522SOL    HW248378  10.224  10.435   4.364  0.0759  0.0857  0.1592
14523SOL     OW48379   4.986  12.114   3.404 -0.2027  0.3135 -0.5367
14523SOL    HW148380   5.024  12.075   3.483 -0.0041  0.3139 -0.6308
14523SOL    HW248381   5.006  12.052   3.335 -1.4211 -0.2663 -0.3841
14524SOL     OW48382   3.469  10.264   4.589  0.1383 -0.2231 -0.1700
14524SOL    HW148383   3.524  10.343   4.586  0.7269 -0.4662  2.1588
14524SOL    HW248384   3.379  10.298   4.596  0.3573  0.2389  0.4361
14525SOL     OW48385   6.351   7.109   8.753  0.3415 -0.2909  0.2938
14525SOL    HW148386   6.338   7.053   8.677 -1.7882  0.0828  0.3215
14525SOL    HW248387   6.401   7.183   8.720 -0.3135 -0.2665 -0.6851
14526SOL     OW48388   1.242   5.972   5.461 -0.7726 -0.4944  0.4456
14526SOL    HW148389   1.329   6.008   5.445 -0.7192 -1.0358 -0.5694
14526SOL    HW248390   1.232   5.973   5.556  0.0996  0.1309  0.5334
14527SOL     OW48391   1.032   9.977   9.982 -0.1082 -0.0176  0.0855
14527SOL    HW148392   1.045  10.061  10.025 -1.6020 -0.4640  1.5292
14527SOL    HW248393   1.111   9.926  10.002 -0.7549 -0.2107  2.3990
14528SOL     OW48394   9.361  12.558   6.500 -0.6185 -0.7487  0.2242
14528SOL    HW148395   9.393  12.648   6.491 -0.8753 -0.8282 -1.8582
14528SOL    HW248396   9.368  12.540   6.594 -1.1502  1.6567  0.8079
14529SOL     OW48397   4.489   3.294   0.348 -0.4205 -0.2214 -0.5631
14529SOL    HW148398   4.544   3.242   0.289 -0.2201 -2.4226  1.3905
14529SOL    HW248399   4.456   3.230   0.411 -0.5025  1.9805  1.7901
14530SOL     OW48400  11.494   0.213   7.130 -0.5621 -0.3216  0.0490
14530SOL    HW148401  11.588   0.226   7.140 -0.5638 -0.4019  0.1659
14530SOL    HW248402  11.485   0.139   7.071 -0.5527  0.4850 -0.9944
14531SOL     OW48403   8.327   2.905   9.075 -0.3641 -0.3882  0.4790
14531SOL    HW148404   8.367   2.924   8.990 -0.1587 -3.2069 -0.1498
14531SOL    HW248405   8.232   2.909   9.059 -0.3241 -0.5043  0.2126
14532SOL     OW48406  12.240   8.747   4.991 -0.2634 -0.2979 -0.0533
14532SOL    HW148407  12.305   8.782   5.052 -2.7197  0.7971  2.1412
14532SOL    HW248408  12.240   8.653   5.007  0.4665 -0.2597  0.2181
14533SOL     OW48409   2.500   0.604   3.586  0.4158 -0.2203 -0.1080
14533SOL    HW148410   2.410   0.578   3.569 -0.1262  1.2071  0.3897
14533SOL    HW248411   2.501   0.626   3.679  0.9808  0.8584 -0.3566
14534SOL     OW48412   9.222   8.655   5.593  0.0837 -0.2174  0.0070
14534SOL    HW148413   9.183   8.674   5.508 -0.7084 -1.7711 -0.0156
14534SOL    HW248414   9.310   8.623   5.574  0.2060  0.2237 -0.1686
14535SOL     OW48415   0.425   8.707   1.089 -0.0823 -0.1092  0.0990
14535SOL    HW148416   0.446   8.742   1.176 -1.4537  0.7136  0.1245
14535SOL    HW248417   0.497   8.735   1.033  1.1278 -1.1396  1.0595
14536SOL     OW48418   6.379   3.239   5.511  0.1062  0.0765 -0.2902
14536SOL    HW148419   6.448   3.293   5.550 -0.5472  0.6551  0.0962
14536SOL    HW248420   6.408   3.223   5.422 -0.4663  2.5520 -0.9995
14537SOL     OW48421   5.608  11.792   7.620  0.1287  0.1051  0.4837
14537SOL    HW148422   5.569  11.742   7.692  0.1363  1.5041  1.4883
14537SOL    HW248423   5.616  11.728   7.549 -0.7317 -1.0834  1.4061
14538SOL     OW48424   3.347  11.856   6.583 -0.7834  0.0870 -0.1992
14538SOL    HW148425   3.292  11.787   6.546 -0.4037 -0.2580 -0.1355
14538SOL    HW248426   3.311  11.937   6.549 -0.4896 -0.2178 -1.2583
14539SOL     OW48427   6.363   6.466   1.989  0.2750 -0.0460  0.3025
14539SOL    HW148428   6.284   6.520   1.997 -1.1181 -1.5029 -2.3147
14539SOL    HW248429   6.398   6.463   2.078  0.4459  4.9609  0.7142
14540SOL     OW48430  10.988   8.720  12.290  0.1330  0.0088  0.1503
14540SOL    HW148431  11.068   8.705  12.340 -0.2549 -0.3353  0.6909
14540SOL    HW248432  11.016   8.724  12.199  0.8192  0.3280  0.3701
14541SOL     OW48433  11.161   9.777   8.227 -0.0614  0.0158  0.1832
14541SOL    HW148434  11.128   9.716   8.293 -1.5795  0.1735 -0.4079
14541SOL    HW248435  11.214   9.839   8.277  0.8727 -1.3107  0.8952
14542SOL     OW48436   8.959   0.712   9.358  0.1944  0.2465  0.1931
14542SOL    HW148437   8.940   0.732   9.267  2.0463  1.0885 -0.0416
14542SOL    HW248438   8.976   0.617   9.359 -0.2132  0.1681 -0.2565
14543SOL     OW48439   6.372   8.895   2.508  0.1065  0.1435  0.1978
14543SOL    HW148440   6.406   8.913   2.420 -0.6216  0.7847  0.0442
14543SOL    HW248441   6.306   8.962   2.523 -0.4235 -0.5086  0.8750
14544SOL     OW48442   9.035   3.162  11.162 -0.4131  0.0872 -0.2770
14544SOL    HW148443   9.102   3.201  11.219 -0.6420  1.1200 -0.6931
14544SOL    HW248444   9.075   3.161  11.075 -1.3358  1.8712 -0.7836
14545SOL     OW48445   9.746   3.486   1.095  0.2826 -0.0602  0.0176
14545SOL    HW148446   9.836   3.520   1.097 -0.5359  2.2584  1.3548
14545SOL    HW248447   9.709   3.520   1.013 -0.2392  1.6228  0.8995
14546SOL     OW48448  10.767   3.340   3.368 -0.0923 -0.0928 -0.3830
14546SOL    HW148449  10.722   3.305   3.445  0.6663  1.4330  0.8247
14546SOL    HW248450  10.800   3.425   3.397 -0.2603  0.7823 -2.5916
14547SOL     OW48451   6.033   6.141   5.224  0.2508  0.3254 -0.2264
14547SOL    HW148452   5.988   6.057   5.230  2.4109 -0.9816 -1.3023
14547SOL    HW248453   5.978   6.194   5.167 -1.8568  0.2199  1.5636
14548SOL     OW48454   4.909   0.795   7.465  0.1480  0.6212  0.3460
14548SOL    HW148455   4.872   0.719   7.509  2.6810 -0.5107  0.6692
14548SOL    HW248456   4.914   0.862   7.533 -0.6808  0.5942  0.4438
14549SOL     OW48457   4.887   4.357   9.330  0.3721 -0.0040  0.3437
14549SOL    HW148458   4.818   4.422   9.317  0.0027 -0.4297  0.1336
14549SOL    HW248459   4.968   4.405   9.314  0.0800  0.2949 -0.2930
14550SOL     OW48460   3.305   3.529   8.642  0.5894 -0.2868 -0.0631
14550SOL    HW148461   3.216   3.562   8.654  0.4384 -0.8125  0.2720
14550SOL    HW248462   3.358   3.586   8.698  0.2100 -1.1455  1.2309
14551SOL     OW48463   2.751  12.013   1.980  0.3183  0.3402  0.3596
14551SOL    HW148464   2.742  11.952   1.907  1.6266 -1.5399  1.6689
14551SOL    HW248465   2.837  12.053   1.968  0.0146  0.9560  0.2138
14552SOL     OW48466   6.477   7.232   1.497  0.1268  0.5058  0.0071
14552SOL    HW148467   6.571   7.239   1.482  0.2300  1.0854  0.8053
14552SOL    HW248468   6.437   7.265   1.417  0.6185  1.0657 -0.0175
14553SOL     OW48469   2.330  12.482  11.922  0.1284 -1.3119 -0.0873
14553SOL    HW148470   2.311  12.390  11.939 -1.7826 -1.2627 -1.5890
14553SOL    HW248471   2.244  12.524  11.915  0.9035  0.1702 -1.4642
14554SOL     OW48472   2.568   4.929   1.610  0.2763  0.2689  0.3911
14554SOL    HW148473   2.649   4.940   1.660  0.4571  1.5131 -0.1397
14554SOL    HW248474   2.589   4.963   1.523 -0.7785  0.5113  0.2147
14555SOL     OW48475   1.515  12.593   9.394  0.5290 -0.0909  0.0418
14555SOL    HW148476   1.472  12.667   9.438 -2.1510 -0.8246 -1.1340
14555SOL    HW248477   1.460  12.518   9.417  1.8301 -1.3109 -0.7332
14556SOL     OW48478   7.520   2.199   4.135  0.5718  0.4026  0.0073
14556SOL    HW148479   7.484   2.271   4.082  1.7955  3.0194  2.4714
14556SOL    HW248480   7.572   2.147   4.073  0.0691  1.9313 -1.7814
14557SOL     OW48481   1.374  11.262   9.907  0.2611 -0.5850  0.3327
14557SOL    HW148482   1.336  11.255   9.820 -0.3787  2.1194  0.3013
14557SOL    HW248483   1.340  11.187   9.954  0.9324 -2.3274 -1.8095
14558SOL     OW48484  11.043   7.612   7.463  0.1500  0.3346 -0.2311
14558SOL    HW148485  11.020   7.682   7.524  0.5897  2.2847 -2.1821
14558SOL    HW248486  11.139   7.609   7.465  0.1919  0.7207 -1.0992
14559SOL     OW48487   0.302   2.952   6.559  0.0257 -0.3418 -0.1977
14559SOL    HW148488   0.256   3.036   6.566  4.3407  2.1863  2.3799
14559SOL    HW248489   0.315   2.924   6.649  1.0059 -2.4334 -0.9247
14560SOL     OW48490   8.293  12.526   9.146  0.2373  0.6156 -0.0401
14560SOL    HW148491   8.334  12.440   9.131 -1.2282 -0.5496  2.0869
14560SOL    HW248492   8.246  12.516   9.228  0.5633  3.7300  0.6473
14561SOL     OW48493  10.878   6.431   7.920  0.0300 -0.7311  0.5742
14561SOL    HW148494  10.850   6.409   8.009 -0.1833  1.5295  1.1229
14561SOL    HW248495  10.968   6.462   7.930  0.1302 -0.7968 -0.0619
14562SOL     OW48496   3.150   6.585   6.815 -0.2390  0.4930  0.1030
14562SOL    HW148497   3.164   6.660   6.873 -1.2100  1.0276 -0.3155
14562SOL    HW248498   3.193   6.512   6.859 -0.8842  0.8936  1.4606
14563SOL     OW48499   6.028   4.903   4.807  0.1739  0.1805  0.1993
14563SOL    HW148500   5.979   4.884   4.727 -1.0519  0.8854  0.7501
14563SOL    HW248501   6.016   4.826   4.862 -0.1827  0.2806  0.2635
14564SOL     OW48502  10.243   5.845  10.662 -0.0832 -0.8607 -0.2581
14564SOL    HW148503  10.308   5.909  10.634 -2.5060  1.5542 -0.7601
14564SOL    HW248504  10.201   5.885  10.738 -2.5857 -1.1236 -1.3960
14565SOL     OW48505   3.878   4.894  10.282  0.3655 -0.1611  0.2725
14565SOL    HW148506   3.937   4.898  10.207 -1.5657  0.4821 -1.2893
14565SOL    HW248507   3.884   4.982  10.321 -0.7130  0.4470 -0.8594
14566SOL     OW48508   2.321   2.695   0.452  0.0321  0.0015 -0.5880
14566SOL    HW148509   2.341   2.708   0.359  1.0559  0.8544 -0.2751
14566SOL    HW248510   2.226   2.690   0.456 -0.0153 -0.2568 -1.7099
14567SOL     OW48511   4.475   9.181  12.009 -0.1568  0.0669  0.0954
14567SOL    HW148512   4.435   9.194  12.095 -0.9173 -0.9236 -0.0815
14567SOL    HW248513   4.434   9.247  11.953  0.0062  0.4197  0.3903
14568SOL     OW48514   7.867   1.858   1.506 -0.1600 -0.4954  0.1123
14568SOL    HW148515   7.799   1.908   1.552 -1.2997  0.0351 -2.0541
14568SOL    HW248516   7.860   1.770   1.543 -0.4852  0.0768  1.4912
14569SOL     OW48517  11.779  10.209  10.178 -0.1269 -0.0265 -0.1070
14569SOL    HW148518  11.718  10.135  10.181 -0.5386  0.2187 -1.5319
14569SOL    HW248519  11.726  10.282  10.145  0.4585  0.7149  0.5547
14570SOL     OW48520   3.066   2.944   1.859 -0.1747 -0.3642  0.5314
14570SOL    HW148521   3.131   2.952   1.790 -1.5586  2.7341 -0.5919
14570SOL    HW248522   2.990   2.903   1.817 -0.3935 -0.1203  0.6791
14571SOL     OW48523   5.279   6.669  12.584  0.5570 -0.3452 -0.2944
14571SOL    HW148524   5.367   6.705  12.578  0.3885  0.0320 -0.5300
14571SOL    HW248525   5.222   6.746  12.588  0.1700 -0.5782 -1.1458
14572SOL     OW48526   1.355  12.402   8.561  0.6574  0.2431  0.1548
14572SOL    HW148527   1.324  12.444   8.481  0.9730 -0.9953 -0.6355
14572SOL    HW248528   1.275  12.386   8.612  0.5635  2.3101  0.7837
14573SOL     OW48529   9.973   1.051   4.683  0.6438  0.1109  0.3406
14573SOL    HW148530   9.995   1.090   4.599  1.9203  0.5482  0.8662
14573SOL    HW248531   9.915   1.114   4.725 -0.1890 -0.2137 -0.2804
14574SOL     OW48532   4.054   0.838   3.637 -0.1489 -0.0226  0.2236
14574SOL    HW148533   4.093   0.925   3.631 -1.5579  0.5640 -1.0971
14574SOL    HW248534   3.987   0.847   3.705  0.3073 -0.3299  0.7173
14575SOL     OW48535   7.855   8.320   6.486  0.0433  0.0847 -0.3839
14575SOL    HW148536   7.941   8.352   6.459  0.1137  0.1338 -0.1082
14575SOL    HW248537   7.862   8.312   6.581 -0.6383  1.2216 -0.2229
14576SOL     OW48538   2.442   1.063   9.091  0.0664  0.1639 -0.0252
14576SOL    HW148539   2.406   1.106   9.014  1.3608  1.9398  0.3142
14576SOL    HW248540   2.401   1.108   9.165  0.2289 -0.2769  0.3405
14577SOL     OW48541   2.313   3.622   4.646  0.5729 -0.6942 -0.0119
14577SOL    HW148542   2.402   3.586   4.636  1.2700  0.8703  0.2954
14577SOL    HW248543   2.320   3.711   4.613 -1.4204 -1.1703 -1.9972
14578SOL     OW48544   4.661   4.704   5.504  0.4198 -0.3937  0.1069
14578SOL    HW148545   4.658   4.722   5.410 -0.3749  1.4756  0.4393
14578SOL    HW248546   4.627   4.615   5.513 -0.3660 -0.2623 -1.3158
14579SOL     OW48547   9.743   4.100   8.291 -0.3187  0.4929  0.5096
14579SOL    HW148548   9.751   4.139   8.378 -0.5618  1.3168  0.1765
14579SOL    HW248549   9.650   4.104   8.271  0.0128  3.3409 -1.0854
14580SOL     OW48550   9.125  11.698   2.420 -0.1272  0.4392 -0.3869
14580SOL    HW148551   9.088  11.674   2.504 -1.9750  0.3114 -1.1885
14580SOL    HW248552   9.110  11.792   2.413  0.4125  0.5305 -0.4096
14581SOL     OW48553   3.609   5.702   7.256  0.3063 -0.2067 -0.2724
14581SOL    HW148554   3.651   5.777   7.297  1.3662  0.0682 -1.7876
14581SOL    HW248555   3.536   5.681   7.314  1.1329  0.7765  1.1920
14582SOL     OW48556   9.293  10.726   2.017 -0.2378  0.9578  0.0521
14582SOL    HW148557   9.213  10.754   2.062  0.9018  1.7185  1.6983
14582SOL    HW248558   9.335  10.666   2.077  0.7268  1.0247 -0.5396
14583SOL     OW48559   4.392   9.061   1.894 -0.4618 -0.5926 -0.1548
14583SOL    HW148560   4.371   9.142   1.940 -0.1836 -0.8212  0.3826
14583SOL    HW248561   4.423   9.090   1.808 -1.2266 -0.1743 -0.2960
14584SOL     OW48562   7.765  11.254   3.778  0.0042  0.1309  0.2849
14584SOL    HW148563   7.848  11.283   3.816  1.4476 -3.4986  0.4044
14584SOL    HW248564   7.698  11.298   3.829  1.8966  0.9748  2.1909
14585SOL     OW48565   1.989   9.317   2.913  0.6343 -0.1964 -0.3850
14585SOL    HW148566   2.068   9.315   2.968  0.7792 -1.4804 -0.5980
14585SOL    HW248567   1.934   9.247   2.948  0.1591 -0.1656 -1.0549
14586SOL     OW48568   5.350   3.302  10.146 -0.4860 -0.1348 -0.4515
14586SOL    HW148569   5.394   3.387  10.141 -0.7151 -0.0012 -0.2290
14586SOL    HW248570   5.342   3.274  10.055 -1.0096  0.3964 -0.5816
14587SOL     OW48571   5.932   8.526   6.107  0.0682 -0.2644  0.1005
14587SOL    HW148572   6.025   8.508   6.122 -0.2020 -1.3471  0.5767
14587SOL    HW248573   5.930   8.573   6.023  1.0452 -0.1932  0.1058
14588SOL     OW48574   4.833  12.183   7.715  0.7303 -0.3280 -0.3943
14588SOL    HW148575   4.760  12.237   7.746  1.6348  0.0800  1.1280
14588SOL    HW248576   4.852  12.217   7.627  0.8477  1.4077  0.2544
14589SOL     OW48577   1.209   7.637   7.940 -0.4760 -0.5004 -0.0698
14589SOL    HW148578   1.194   7.620   8.034  1.2256  0.1659  0.3539
14589SOL    HW248579   1.298   7.670   7.936 -0.4650 -0.6966 -1.9789
14590SOL     OW48580   6.413   5.942   6.530 -0.3215 -0.2840 -0.6220
14590SOL    HW148581   6.352   6.013   6.507 -0.1024 -0.1338 -0.7428
14590SOL    HW248582   6.445   5.965   6.617 -1.1375 -0.8436 -0.1585
14591SOL     OW48583   8.711   9.081   9.126  0.1842 -0.2950  0.1171
14591SOL    HW148584   8.745   9.026   9.056 -0.1605 -0.4810  0.0910
14591SOL    HW248585   8.713   9.025   9.204 -1.3250 -0.7777 -0.1547
14592SOL     OW48586   6.208   3.243   2.228  0.4520  0.8360 -0.3236
14592SOL    HW148587   6.239   3.317   2.176 -1.6295  1.9505 -0.0611
14592SOL    HW248588   6.201   3.171   2.165  1.9537  0.9645 -0.6898
14593SOL     OW48589   2.780  12.357   1.920 -0.8233 -0.0956  0.3514
14593SOL    HW148590   2.694  12.397   1.937 -0.9406 -1.0363  2.2373
14593SOL    HW248591   2.841  12.414   1.966 -0.2230  1.2062 -1.8945
14594SOL     OW48592   5.986   1.695   9.395  0.6549 -0.2217 -0.0779
14594SOL    HW148593   5.955   1.633   9.329  1.3717 -1.3152  0.5723
14594SOL    HW248594   6.010   1.773   9.346  1.2001 -1.0186 -1.1364
14595SOL     OW48595   5.422   5.973  11.744  0.2678  0.1742  0.1242
14595SOL    HW148596   5.355   5.981  11.812 -1.3157  0.7318 -1.4111
14595SOL    HW248597   5.499   6.017  11.780 -0.4087  0.1755  1.6452
14596SOL     OW48598   7.927   0.869  10.885 -0.1375  0.6811  0.1085
14596SOL    HW148599   7.979   0.933  10.935 -0.7852  1.0843  0.2766
14596SOL    HW248600   7.965   0.871  10.797  0.4235  0.6395  0.3432
14597SOL     OW48601  11.538   5.421   4.267  0.0712  1.0257  0.5535
14597SOL    HW148602  11.554   5.330   4.240 -1.2805  0.3779  1.7941
14597SOL    HW248603  11.547   5.471   4.186  1.8670 -0.0508  0.0244
14598SOL     OW48604   9.009   1.652  10.096 -0.1085  0.4322 -0.2405
14598SOL    HW148605   8.950   1.626  10.025 -0.2203  0.9876 -0.3567
14598SOL    HW248606   8.976   1.605  10.173  0.6161 -0.9490 -0.7496
14599SOL     OW48607   6.980   7.591   2.897  0.5416 -0.1898 -0.1381
14599SOL    HW148608   6.963   7.635   2.813 -0.0072 -0.1847 -0.0268
14599SOL    HW248609   7.061   7.631   2.929 -0.1413  1.0176  0.1443
14600SOL     OW48610  11.674   3.431  10.491 -0.1562 -0.3503  0.2484
14600SOL    HW148611  11.717   3.432  10.577  0.2438  1.1170  0.0604
14600SOL    HW248612  11.737   3.385  10.434  0.0823 -0.3335  0.4937
14601SOL     OW48613   9.268   1.625  11.106  0.2846 -0.1424  0.2539
14601SOL    HW148614   9.308   1.539  11.095 -2.9761 -1.5831 -1.5586
14601SOL    HW248615   9.254   1.657  11.017 -2.1908  0.3956  0.7639
14602SOL     OW48616   5.408   9.715   2.665  0.0532  0.1341  0.5058
14602SOL    HW148617   5.402   9.771   2.743  0.7175  0.2744  0.4668
14602SOL    HW248618   5.360   9.763   2.597 -0.8896 -0.1897  0.9297
14603SOL     OW48619   0.264   8.929   4.964 -0.1285  0.3070 -0.0709
14603SOL    HW148620   0.242   9.020   4.945  1.0116  0.6809  0.3194
14603SOL    HW248621   0.184   8.892   5.000 -0.3581  1.3939  0.5887
14604SOL     OW48622   6.857   2.995   8.871 -0.4977 -0.1923  0.1410
14604SOL    HW148623   6.946   2.983   8.905 -0.1744  0.7054 -0.3523
14604SOL    HW248624   6.849   3.089   8.858 -1.4964 -0.2734  0.0792
14605SOL     OW48625   1.217  12.271   6.134 -0.1083 -0.2190  0.2097
14605SOL    HW148626   1.233  12.236   6.046  1.4428  0.3450  0.2336
14605SOL    HW248627   1.146  12.217   6.169 -0.6869 -0.5214 -1.3388
14606SOL     OW48628  10.461  10.688  12.268 -0.0556 -0.2284 -0.1716
14606SOL    HW148629  10.469  10.766  12.212 -1.2174 -0.8739 -1.3064
14606SOL    HW248630  10.367  10.673  12.274  0.0956 -0.7256  1.2248
14607SOL     OW48631   7.379   0.075   4.506  0.1129 -0.5589  0.0583
14607SOL    HW148632   7.310   0.135   4.532  0.6048 -0.4212  1.1003
14607SOL    HW248633   7.457   0.130   4.497  0.5119 -0.9751  0.7887
14608SOL     OW48634  10.485   2.842   2.028 -0.6195 -0.3501  0.1418
14608SOL    HW148635  10.467   2.936   2.041 -1.5995 -0.3829 -0.8195
14608SOL    HW248636  10.541   2.839   1.951  2.2962 -0.3781  2.1088
14609SOL     OW48637   1.559   5.003   6.288  0.7203 -0.0199  0.0573
14609SOL    HW148638   1.543   4.970   6.199  2.3152 -2.8286  0.6946
14609SOL    HW248639   1.649   5.035   6.286  0.6446  0.2366  0.5776
14610SOL     OW48640   4.394   9.584   5.669 -0.4190  0.3689  0.6501
14610SOL    HW148641   4.486   9.597   5.691 -0.4885 -0.3783  1.4028
14610SOL    HW248642   4.364   9.671   5.641  0.3773  0.7288  0.8869
14611SOL     OW48643   0.468  10.013   5.609  0.7702  0.4219  0.1450
14611SOL    HW148644   0.531  10.072   5.651 -0.2108  1.1506  0.6228
14611SOL    HW248645   0.406   9.990   5.678 -0.2076  0.7145 -0.6137
14612SOL     OW48646   1.811  11.056   0.087  0.0504  0.0757  0.6240
14612SOL    HW148647   1.752  11.103   0.028 -0.8371  0.0499  1.4584
14612SOL    HW248648   1.764  10.975   0.108  2.0906 -1.9222 -1.8037
14613SOL     OW48649   5.249   8.059   2.361 -0.0944 -0.1192  0.2110
14613SOL    HW148650   5.255   8.009   2.280  0.6166  0.3760 -0.0536
14613SOL    HW248651   5.339   8.063   2.394 -0.1168  1.0293  0.1844
14614SOL     OW48652  10.145   5.618  12.309  0.2448 -0.0326  0.1502
14614SOL    HW148653  10.147   5.526  12.282 -1.3639 -0.2476  0.6662
14614SOL    HW248654  10.059   5.629  12.349 -0.1227  2.0406 -1.0966
14615SOL     OW48655  11.786   9.170   0.246  0.7554  0.4813  0.0124
14615SOL    HW148656  11.858   9.146   0.186 -0.0982 -1.2436 -0.3980
14615SOL    HW248657  11.710   9.179   0.189  0.9066  4.3320  0.1481
14616SOL     OW48658   1.389  10.501  10.485 -0.4270 -0.0630 -0.0570
14616SOL    HW148659   1.471  10.536  10.520  0.6903 -0.6041 -2.0087
14616SOL    HW248660   1.348  10.576  10.442 -0.8284  0.1329  0.6491
14617SOL     OW48661   3.009   0.326   5.261  0.2029  0.3767  0.0825
14617SOL    HW148662   3.002   0.419   5.239 -0.4623  0.3329  0.0843
14617SOL    HW248663   3.069   0.291   5.195  1.7678  1.1168  1.0791
14618SOL     OW48664  10.764   0.490   8.374  0.1223  0.2331  0.4104
14618SOL    HW148665  10.686   0.470   8.425 -1.4047  2.9777 -0.5903
14618SOL    HW248666  10.837   0.477   8.434 -1.1876 -1.2923  1.7459
14619SOL     OW48667   5.327   2.520  11.677  0.3336  0.3839 -0.2959
14619SOL    HW148668   5.416   2.485  11.676  0.9707  1.9110 -1.3967
14619SOL    HW248669   5.338   2.609  11.711 -0.8217  0.5071 -0.2236
14620SOL     OW48670  11.091   3.477  10.553  0.6501  0.0346 -0.4712
14620SOL    HW148671  11.131   3.397  10.519  0.7306 -0.5125  0.8462
14620SOL    HW248672  11.151   3.506  10.622 -0.5925 -0.1419  0.7242
14621SOL     OW48673  10.374   3.711   2.172  0.2804 -0.1032 -0.0861
14621SOL    HW148674  10.416   3.627   2.152 -2.6104 -1.9686  0.9783
14621SOL    HW248675  10.409   3.736   2.257  0.7958 -0.4984 -0.1783
14622SOL     OW48676   2.766   6.043  11.824 -0.2385  0.1845 -0.1163
14622SOL    HW148677   2.797   5.987  11.752  0.7924 -0.6520  0.9475
14622SOL    HW248678   2.846   6.079  11.862 -0.6956 -0.1610  1.2300
14623SOL     OW48679   5.980   2.423   6.121  0.0015 -0.5050  0.1745
14623SOL    HW148680   6.029   2.504   6.108 -1.7774  0.5725 -0.1109
14623SOL    HW248681   6.025   2.359   6.067  1.1729  0.4014  0.0460
14624SOL     OW48682   9.328   0.594   1.903  0.2210 -0.0548 -0.0998
14624SOL    HW148683   9.394   0.663   1.903  0.4498 -0.2707 -0.4986
14624SOL    HW248684   9.336   0.552   1.988  2.6851 -2.0671 -1.2131
14625SOL     OW48685   9.126  11.864   0.226  0.1795  0.4750  0.0427
14625SOL    HW148686   9.151  11.922   0.154  1.0298  1.7564  1.3034
14625SOL    HW248687   9.093  11.924   0.294  1.1059 -0.4916  1.4070
14626SOL     OW48688  12.305   7.745   5.972  0.4395 -0.7380  0.5899
14626SOL    HW148689  12.400   7.753   5.980  0.4306 -1.3677  1.4827
14626SOL    HW248690  12.292   7.656   5.939  0.1545 -0.7976  0.8577
14627SOL     OW48691   0.179  12.366   9.109 -0.2645  0.2311  0.0651
14627SOL    HW148692   0.145  12.277   9.095 -1.2991  0.6514 -0.2122
14627SOL    HW248693   0.257  12.354   9.162 -1.0679 -0.7619  1.0847
14628SOL     OW48694   2.009   6.099   9.317 -0.1748 -0.2223 -0.2446
14628SOL    HW148695   2.068   6.024   9.331 -0.6617 -0.5536  0.0431
14628SOL    HW248696   1.923   6.060   9.302 -0.7225  0.3092  1.3312
14629SOL     OW48697   1.563   4.873   6.551  0.6655  0.2584  0.4590
14629SOL    HW148698   1.518   4.790   6.558  1.3776 -0.0677  1.4533
14629SOL    HW248699   1.525   4.916   6.474  2.0516 -2.0761 -1.6913
14630SOL     OW48700   4.301  11.551   4.195 -0.0184 -0.1771  0.6216
14630SOL    HW148701   4.283  11.462   4.165 -1.8323  0.3635 -0.0049
14630SOL    HW248702   4.318  11.543   4.288  2.2146 -1.4556  0.1749
14631SOL     OW48703  10.242   8.970   6.520 -0.8488 -0.2675  0.1776
14631SOL    HW148704  10.298   9.017   6.458  0.1739 -0.6874  0.7650
14631SOL    HW248705  10.269   8.879   6.513  0.2644 -0.1320  2.2291
14632SOL     OW48706   4.402   2.518   4.754  0.0423  0.2865 -0.0183
14632SOL    HW148707   4.444   2.433   4.763 -0.8935  0.0335  3.3755
14632SOL    HW248708   4.316   2.499   4.716 -0.8537 -0.6414  2.2785
14633SOL     OW48709   0.240   6.737   4.619  0.0334  0.6979 -0.2074
14633SOL    HW148710   0.225   6.647   4.648  0.3630  1.0960  1.2648
14633SOL    HW248711   0.314   6.767   4.671  1.1144  1.2498 -1.9851
14634SOL     OW48712   6.367   2.781  12.023 -0.1192 -0.1253  0.6113
14634SOL    HW148713   6.273   2.793  12.008 -0.1384  0.7404  1.3533
14634SOL    HW248714   6.374   2.697  12.067 -0.9279  1.2432  3.6426
14635SOL     OW48715  12.180  11.471   7.567  0.2344  0.0882  0.5171
14635SOL    HW148716  12.213  11.437   7.650  0.4051 -0.8833  0.0762
14635SOL    HW248717  12.187  11.396   7.507  0.8191  0.9818 -0.5617
14636SOL     OW48718   4.067   1.774   4.061  0.0238 -0.6663 -0.6256
14636SOL    HW148719   3.993   1.797   4.118 -0.1994  0.4882 -1.3530
14636SOL    HW248720   4.144   1.805   4.110 -0.0829 -0.6188 -0.4848
14637SOL     OW48721   0.313  10.635   5.608 -0.2073  0.2187  0.2882
14637SOL    HW148722   0.378  10.571   5.639  0.5198  1.1812  0.8256
14637SOL    HW248723   0.232  10.585   5.599  0.6709 -1.0942 -0.7314
14638SOL     OW48724   3.340  11.030  12.623 -0.4863  0.2677  0.1883
14638SOL    HW148725   3.419  11.054  12.576 -0.0571  0.4891  0.9946
14638SOL    HW248726   3.370  11.011  12.712 -0.9696 -2.1447 -0.0989
14639SOL     OW48727  12.559   0.999  11.107 -1.2450  0.0149 -0.0177
14639SOL    HW148728  12.626   1.062  11.081  1.4889 -1.4282  2.9350
14639SOL    HW248729  12.534   0.957  11.025  2.1438  0.0450 -1.2362
14640SOL     OW48730   7.518   1.702   7.744  0.0815 -0.1203 -0.0298
14640SOL    HW148731   7.501   1.796   7.741 -0.0138 -0.0544  1.5414
14640SOL    HW248732   7.605   1.692   7.705 -0.2413  0.5101 -0.9313
14641SOL     OW48733  12.419  10.251   5.247 -0.0555  0.4432  0.1412
14641SOL    HW148734  12.335  10.204   5.252 -0.2371  0.8081  0.7417
14641SOL    HW248735  12.469  10.205   5.180  0.5174 -1.8138  2.0054
14642SOL     OW48736  11.963  12.163   1.086  0.0819 -0.2626  0.6326
14642SOL    HW148737  12.015  12.233   1.124  2.9657 -1.3658 -0.9399
14642SOL    HW248738  11.891  12.207   1.042  2.2100  1.8891 -0.9574
14643SOL     OW48739  11.761   6.215   3.886  0.0524  0.0248 -0.0461
14643SOL    HW148740  11.758   6.246   3.977 -0.3300  0.7501 -0.3020
14643SOL    HW248741  11.670   6.205   3.861  0.1353  0.5300 -0.5805
14644SOL     OW48742   9.341   1.381   5.146  0.3245  0.1283  0.5739
14644SOL    HW148743   9.300   1.294   5.140 -0.6008  0.4008  2.2434
14644SOL    HW248744   9.396   1.376   5.224  0.6148  0.9117  0.4284
14645SOL     OW48745   2.218   3.065   2.617 -0.3181 -0.4996 -0.3931
14645SOL    HW148746   2.129   3.031   2.619 -1.0045  0.9955 -2.2690
14645SOL    HW248747   2.211   3.155   2.649  0.7546 -0.7703  0.6716
14646SOL     OW48748   8.953   8.630   8.821 -0.1551  0.1244  0.4247
14646SOL    HW148749   9.021   8.654   8.758  0.2165  0.1351  0.8307
14646SOL    HW248750   8.871   8.639   8.771  0.1226  0.2666 -0.0173
14647SOL     OW48751   0.509   0.567   0.456  0.2688 -0.5604  0.2660
14647SOL    HW148752   0.469   0.518   0.384  0.1875  0.4177 -0.3818
14647SOL    HW248753   0.496   0.659   0.432  1.8030 -0.2133  0.6547
14648SOL     OW48754   4.722   1.687   4.577  0.4236  0.4194  0.1593
14648SOL    HW148755   4.695   1.657   4.491 -0.1606 -0.1609  0.5318
14648SOL    HW248756   4.794   1.748   4.561  0.5155  0.0847 -0.7115
14649SOL     OW48757   2.231   8.473   6.778  0.2556 -0.0027  0.0870
14649SOL    HW148758   2.309   8.426   6.807  0.9625  1.0232 -0.1030
14649SOL    HW248759   2.206   8.430   6.697 -0.6508 -1.7055  1.1990
14650SOL     OW48760   1.167   2.172  11.471 -0.6479  0.4657 -0.3109
14650SOL    HW148761   1.165   2.165  11.566 -0.8794  0.2753 -0.3281
14650SOL    HW248762   1.082   2.209  11.448 -1.3564 -1.2158 -0.5730
14651SOL     OW48763   2.384   0.982   2.959  0.2950 -0.1378  0.4706
14651SOL    HW148764   2.388   1.061   3.012  1.1612 -0.5620  1.0554
14651SOL    HW248765   2.325   1.005   2.887  0.7350  1.1252  0.4787
14652SOL     OW48766   5.480   5.568  12.352 -0.2304  0.0786  0.6403
14652SOL    HW148767   5.437   5.484  12.369  0.5462 -0.6085 -0.6478
14652SOL    HW248768   5.543   5.549  12.282 -0.6426  1.9035 -0.2800
14653SOL     OW48769  11.484   5.317   7.114  0.2898  0.7634 -0.2651
14653SOL    HW148770  11.389   5.316   7.128 -0.2021  0.1093 -3.1075
14653SOL    HW248771  11.515   5.393   7.164 -1.9887  2.0478 -0.6715
14654SOL     OW48772  11.912   9.741   5.410 -0.1583 -0.2867 -0.3308
14654SOL    HW148773  11.951   9.725   5.323 -0.2102 -0.8413 -0.2578
14654SOL    HW248774  11.820   9.759   5.392 -0.2638 -0.8287 -0.3666
14655SOL     OW48775   5.557   8.213   4.967  0.0695 -0.7945  0.1814
14655SOL    HW148776   5.571   8.196   5.060 -0.1492 -0.8144  0.2117
14655SOL    HW248777   5.598   8.139   4.923  2.2855  0.3725  0.1447
14656SOL     OW48778   3.884   3.895   5.814 -0.0602  0.3067 -0.4557
14656SOL    HW148779   3.907   3.987   5.800  0.2977  0.7288  2.3272
14656SOL    HW248780   3.830   3.872   5.739  0.8642  2.3956 -1.8581
14657SOL     OW48781  10.227   7.853   8.844  0.2038 -0.2575  0.3644
14657SOL    HW148782  10.178   7.823   8.767  1.2195 -0.0442 -0.3892
14657SOL    HW248783  10.297   7.789   8.854  0.2149 -0.1544  0.9763
14658SOL     OW48784  11.876   9.520  12.146  0.1276 -0.0523  0.3299
14658SOL    HW148785  11.905   9.569  12.223  2.5695 -1.0285  0.1151
14658SOL    HW248786  11.910   9.432  12.160 -0.4129 -0.5603 -1.3260
14659SOL     OW48787   4.762   1.066  11.681  0.2383  0.1840  0.7499
14659SOL    HW148788   4.696   1.009  11.719 -0.2749  1.1805  1.4011
14659SOL    HW248789   4.819   1.089  11.755 -0.3579  1.5760  0.8111
14660SOL     OW48790   0.720   2.932   1.240 -0.2157  0.2693  0.2314
14660SOL    HW148791   0.760   2.890   1.316 -0.9352 -0.9052 -0.0167
14660SOL    HW248792   0.782   3.001   1.215  0.9670 -0.5967  0.7018
14661SOL     OW48793   8.382  11.715   1.194 -0.3404  0.4043  0.3081
14661SOL    HW148794   8.387  11.654   1.268  2.1328  0.5781  0.3643
14661SOL    HW248795   8.312  11.680   1.139 -0.7815 -0.9469  1.6578
14662SOL     OW48796   2.147   4.028   8.748  0.1002  0.2550 -0.0747
14662SOL    HW148797   2.121   4.039   8.657 -0.0763  0.7712  0.0319
14662SOL    HW248798   2.126   4.112   8.789 -1.1980 -0.4339  0.7650
14663SOL     OW48799   8.839   2.862   3.527  0.4582  0.7021 -0.3907
14663SOL    HW148800   8.934   2.860   3.527  0.4442 -0.7439  0.0686
14663SOL    HW248801   8.814   2.869   3.619  0.1285 -1.1518 -0.3005
14664SOL     OW48802   8.970   4.948   9.201 -0.3635  0.0539  0.1280
14664SOL    HW148803   8.937   5.021   9.149  0.7268  0.0082 -0.6770
14664SOL    HW248804   9.062   4.969   9.217 -0.2874 -0.6801  0.7263
14665SOL     OW48805   9.302  10.022   0.697  0.3292  0.1108 -0.0309
14665SOL    HW148806   9.271   9.937   0.667  0.5011 -0.7890  2.1721
14665SOL    HW248807   9.354  10.002   0.775  1.0670  2.1717  0.0584
14666SOL     OW48808   6.477   6.308  11.874 -1.0950  0.4758 -0.4184
14666SOL    HW148809   6.435   6.249  11.812 -1.9541  0.2081  0.3954
14666SOL    HW248810   6.415   6.315  11.947 -0.7285  1.8816 -0.2039
14667SOL     OW48811   4.292   1.612  10.551  0.4765 -1.1411 -0.1865
14667SOL    HW148812   4.317   1.701  10.579  0.7953 -1.8155  1.8002
14667SOL    HW248813   4.362   1.586  10.491  0.0499  0.1647 -1.2997
14668SOL     OW48814  11.694  10.665   5.254  0.1729 -0.3979  0.1789
14668SOL    HW148815  11.742  10.606   5.196 -0.3817 -0.9164  0.2364
14668SOL    HW248816  11.672  10.740   5.200  0.1941 -0.6055 -0.1179
14669SOL     OW48817   1.672   6.135   5.010 -0.4822 -0.5283 -0.3421
14669SOL    HW148818   1.733   6.113   5.080  1.1925  0.5158 -1.3881
14669SOL    HW248819   1.594   6.084   5.029  0.7750 -2.0862  0.9728
14670SOL     OW48820   5.404   9.129   8.097  0.4706 -0.0131  0.1580
14670SOL    HW148821   5.386   9.049   8.048 -0.6361 -0.2472  0.9290
14670SOL    HW248822   5.318   9.169   8.111  0.9440  0.9646  0.3803
14671SOL     OW48823   7.296   8.490  10.924 -0.2509 -0.3644 -0.1070
14671SOL    HW148824   7.362   8.471  10.990  0.0295  2.1422  0.4230
14671SOL    HW248825   7.320   8.434  10.850  2.4364  0.3527  0.1131
14672SOL     OW48826  12.508   5.585   9.353 -0.3261  0.1387 -0.0880
14672SOL    HW148827  12.537   5.513   9.410 -0.7839  0.6536  0.8004
14672SOL    HW248828  12.571   5.584   9.281 -1.0421 -1.9536 -0.7454
14673SOL     OW48829  11.432   0.410   6.357 -0.2663 -0.1368  0.5640
14673SOL    HW148830  11.392   0.369   6.281 -1.8646 -1.1318  1.8639
14673SOL    HW248831  11.387   0.495   6.365  0.7922  0.5276 -0.2893
14674SOL     OW48832  12.310   4.641   4.546 -0.0869  0.1236 -0.3353
14674SOL    HW148833  12.345   4.730   4.547  1.2578 -0.3908  0.3444
14674SOL    HW248834  12.215   4.653   4.539  0.0810  1.5919 -0.5084
14675SOL     OW48835   4.915  12.142  11.313 -0.3103  0.5390 -0.4581
14675SOL    HW148836   4.993  12.146  11.367 -1.3962 -1.2677  1.3868
14675SOL    HW248837   4.926  12.063  11.260 -1.2006 -0.2266  0.4435
14676SOL     OW48838   0.264  11.471   4.847  0.0411 -0.0936 -0.1212
14676SOL    HW148839   0.202  11.541   4.824  1.6456  1.3082 -0.3913
14676SOL    HW248840   0.350  11.510   4.833  1.0172 -1.5743  1.4340
14677SOL     OW48841   3.610   0.607   0.322  0.5260 -0.5221  0.0908
14677SOL    HW148842   3.586   0.605   0.415  2.3200  0.8085  0.6459
14677SOL    HW248843   3.547   0.668   0.283  0.5457 -0.0930  0.7053
14678SOL     OW48844   6.322  10.231   5.667 -0.4900  0.0247 -0.1227
14678SOL    HW148845   6.356  10.144   5.647 -1.2074 -0.6728  1.5144
14678SOL    HW248846   6.318  10.275   5.582 -2.8399 -2.5109 -1.4691
14679SOL     OW48847   5.117   9.254   5.839  0.0515 -0.0635 -0.2603
14679SOL    HW148848   5.178   9.190   5.874  1.1951  0.5406 -1.0819
14679SOL    HW248849   5.055   9.203   5.787  2.2422 -0.3595 -2.7394
14680SOL     OW48850  11.347   8.898   0.373  0.2586  0.0692  0.6997
14680SOL    HW148851  11.279   8.891   0.440  0.6955 -0.0245  1.1340
14680SOL    HW248852  11.299   8.887   0.290 -0.3292  0.5092  0.9718
14681SOL     OW48853   7.238   3.741   9.024  0.6983  1.0832 -0.0401
14681SOL    HW148854   7.245   3.834   9.047  1.1604  0.9524  0.3702
14681SOL    HW248855   7.264   3.694   9.104 -1.1761  0.5661  0.3238
14682SOL     OW48856   2.838   1.557   8.541  0.0571 -0.1379 -0.1993
14682SOL    HW148857   2.754   1.576   8.500 -0.1211  1.6961  0.9101
14682SOL    HW248858   2.850   1.628   8.605  1.8885 -1.0217  0.4968
14683SOL     OW48859   1.027   2.894   4.608 -0.1211  0.5458  0.0775
14683SOL    HW148860   1.052   2.963   4.670 -0.1980  0.8231 -0.2022
14683SOL    HW248861   0.990   2.825   4.664  2.8651 -0.6760  0.7420
14684SOL     OW48862   1.708   2.875   8.770  0.3502 -0.3007  0.2955
14684SOL    HW148863   1.712   2.821   8.691 -0.1796 -0.7512  0.5697
14684SOL    HW248864   1.635   2.935   8.754 -0.2793 -0.9251  0.7651
14685SOL     OW48865   0.845   3.355  11.620 -0.1514 -1.1047 -0.0298
14685SOL    HW148866   0.913   3.382  11.558 -1.0991  1.6828  0.0061
14685SOL    HW248867   0.768   3.340  11.567 -1.0001  1.4057  0.3888
14686SOL     OW48868   3.433   2.925   0.385  0.4479  0.5410 -0.1988
14686SOL    HW148869   3.510   2.871   0.401 -0.4078 -0.5971  0.1723
14686SOL    HW248870   3.401   2.947   0.473 -0.4590 -0.1952 -0.3309
14687SOL     OW48871   0.661   2.062   3.245 -0.2941 -0.0936 -0.2542
14687SOL    HW148872   0.730   2.103   3.193  0.3304 -0.0116  0.6127
14687SOL    HW248873   0.602   2.024   3.180  0.3929  0.1064 -1.0239
14688SOL     OW48874  11.863   3.702   8.706  0.6829  0.8103  0.5500
14688SOL    HW148875  11.818   3.624   8.736  1.9858  0.2430  1.1312
14688SOL    HW248876  11.913   3.732   8.782 -0.0561  2.4188  0.4430
14689SOL     OW48877   9.686   5.948  11.009 -0.1187 -0.0811  0.0752
14689SOL    HW148878   9.717   5.892  10.937 -0.1399  0.1657 -0.1256
14689SOL    HW248879   9.659   5.886  11.077  0.3470 -0.3098  0.0568
14690SOL     OW48880   8.472   2.509   2.089 -0.4873  0.4133  0.5354
14690SOL    HW148881   8.462   2.570   2.162  0.1879  0.5887  0.4862
14690SOL    HW248882   8.441   2.558   2.012 -1.1156  0.2579  0.6811
14691SOL     OW48883   1.326   2.268   4.400 -0.9143  0.6855  0.3027
14691SOL    HW148884   1.303   2.323   4.326  2.1045  1.3341 -0.2713
14691SOL    HW248885   1.379   2.324   4.456  1.6651 -1.3262  0.0512
14692SOL     OW48886  12.015  11.075   7.158 -0.1853  0.0451  0.1585
14692SOL    HW148887  11.988  11.010   7.224 -0.2207 -0.2124 -0.1094
14692SOL    HW248888  12.060  11.024   7.091 -0.4841  0.2574 -0.2073
14693SOL     OW48889   6.589   1.014   1.301 -0.0741  0.0967  0.2178
14693SOL    HW148890   6.607   1.040   1.211 -1.3688 -2.7370 -0.9875
14693SOL    HW248891   6.607   0.920   1.303 -1.4021 -0.1939  2.5613
14694SOL     OW48892   9.734   5.489  10.656  0.1071  0.3152  0.0838
14694SOL    HW148893   9.826   5.478  10.633 -0.5422 -2.1485 -1.7101
14694SOL    HW248894   9.707   5.402  10.686 -2.0496  0.5264 -1.1029
14695SOL     OW48895   4.183   6.193  10.515 -0.7143 -0.4220  0.0914
14695SOL    HW148896   4.194   6.134  10.590 -0.6748  0.4803  0.8010
14695SOL    HW248897   4.106   6.245  10.536 -0.1338  0.5054 -0.0518
14696SOL     OW48898   4.366   6.973  10.366  0.0255 -0.8528 -0.4496
14696SOL    HW148899   4.401   7.062  10.354 -0.0405 -0.6931  0.4908
14696SOL    HW248900   4.442   6.916  10.354  0.4457 -0.5581  0.6887
14697SOL     OW48901   6.170  11.000  12.623 -0.7285  0.5734 -0.4782
14697SOL    HW148902   6.106  10.937  12.658 -1.8736  2.0058  0.1456
14697SOL    HW248903   6.138  11.085  12.654  1.6560  1.3394  0.0812
14698SOL     OW48904   4.832   3.075   8.215  0.0498  0.1843 -0.2278
14698SOL    HW148905   4.751   3.110   8.178 -0.2077 -0.9207 -0.7253
14698SOL    HW248906   4.835   3.112   8.304 -0.4165  1.1233 -0.5869
14699SOL     OW48907   3.713   8.761   6.846  0.0888  0.3799 -0.0570
14699SOL    HW148908   3.697   8.812   6.925 -0.1311  1.7397 -0.9542
14699SOL    HW248909   3.637   8.779   6.790  0.2842 -0.5016 -0.6336
14700SOL     OW48910  11.429   4.619   5.011 -0.7587 -0.6275 -0.7981
14700SOL    HW148911  11.394   4.545   4.961 -0.6419 -1.1086 -0.1855
14700SOL    HW248912  11.524   4.611   5.001 -0.7600 -0.3218 -1.0605
14701SOL     OW48913  12.094  12.479   2.315 -0.0370 -0.3435  0.5730
14701SOL    HW148914  12.046  12.396   2.317 -1.2426  0.3226  0.0565
14701SOL    HW248915  12.182  12.455   2.285  0.1102 -1.6442  1.8877
14702SOL     OW48916   3.413   2.707   3.933  0.9207  0.5138  0.1203
14702SOL    HW148917   3.461   2.657   3.999  1.7250  0.2483 -0.6408
14702SOL    HW248918   3.439   2.668   3.850 -0.2491  0.6876 -0.3545
14703SOL     OW48919   7.750   9.178  10.684  0.7458  0.3340 -0.3980
14703SOL    HW148920   7.681   9.112  10.687  0.4601  0.6267  2.2119
14703SOL    HW248921   7.733   9.228  10.604 -0.7082 -0.9716 -0.9501
14704SOL     OW48922   8.434   9.025   8.534 -0.0264  0.4331  0.5411
14704SOL    HW148923   8.512   8.972   8.552  0.9419  1.6046 -0.0939
14704SOL    HW248924   8.443   9.100   8.593 -0.4719  0.7786  0.1682
14705SOL     OW48925   7.533   9.836   7.252  0.0862 -0.2168  0.8894
14705SOL    HW148926   7.619   9.851   7.215  0.2828  0.4107  1.5771
14705SOL    HW248927   7.488   9.920   7.245 -0.5012 -0.5532  0.4772
14706SOL     OW48928  10.889   7.172   3.555 -0.2128 -0.4852 -0.6582
14706SOL    HW148929  10.881   7.170   3.460 -2.0249  2.1156 -0.6949
14706SOL    HW248930  10.798   7.174   3.587  0.2351  2.4033  0.8267
14707SOL     OW48931   4.101   4.106   9.142  0.2195  0.5978  0.6351
14707SOL    HW148932   4.005   4.109   9.150 -0.0410 -1.8257 -0.5641
14707SOL    HW248933   4.119   4.143   9.056  0.2793  0.5156  0.6119
14708SOL     OW48934   4.013   6.442   5.561 -0.5985  0.0765 -0.7665
14708SOL    HW148935   4.064   6.365   5.587  1.5353  2.4912  3.1508
14708SOL    HW248936   3.929   6.432   5.607 -0.0495  0.3190  0.3390
14709SOL     OW48937  10.708   3.551   2.849 -0.1557  0.4214 -0.6126
14709SOL    HW148938  10.719   3.506   2.933  0.3677 -0.2227 -1.0101
14709SOL    HW248939  10.621   3.590   2.854 -0.5215 -0.4089 -0.1323
14710SOL     OW48940   8.159   5.839   3.695 -1.2623 -0.0528  0.2707
14710SOL    HW148941   8.065   5.851   3.683 -1.3007 -1.3552 -1.0093
14710SOL    HW248942   8.178   5.754   3.654  0.0523 -1.0544  2.7527
14711SOL     OW48943   3.263   8.691   0.106  0.0503 -0.7084  0.5237
14711SOL    HW148944   3.348   8.673   0.145  0.4155 -1.6386 -0.6370
14711SOL    HW248945   3.228   8.605   0.082 -1.1101 -0.3235  0.7445
14712SOL     OW48946   8.143   3.072   3.802 -0.3486 -0.2407  0.8578
14712SOL    HW148947   8.099   3.155   3.813  0.5421  0.2959  0.5203
14712SOL    HW248948   8.234   3.089   3.825  0.3011 -0.5619 -1.2354
14713SOL     OW48949   5.834   2.985  10.920 -0.0020 -0.6762 -0.5385
14713SOL    HW148950   5.777   3.029  10.983 -0.8420 -0.5128 -1.3869
14713SOL    HW248951   5.921   2.987  10.960 -0.6369 -1.2386  0.9443
14714SOL     OW48952   8.301   1.438   0.795  0.4305 -0.2631  0.2808
14714SOL    HW148953   8.333   1.370   0.736 -1.6241 -1.3474  0.3368
14714SOL    HW248954   8.298   1.517   0.741 -1.0438 -1.1487 -1.0129
14715SOL     OW48955   7.458   0.077   9.417  0.5381 -0.3777  0.4355
14715SOL    HW148956   7.534   0.060   9.361  0.6683 -0.4802  0.6424
14715SOL    HW248957   7.491   0.132   9.488 -0.0981  1.6282 -0.7620
14716SOL     OW48958   2.998   7.849  10.823  0.4680  0.1251 -0.3227
14716SOL    HW148959   2.908   7.833  10.792 -1.5801  2.3200  3.6446
14716SOL    HW248960   3.037   7.904  10.755 -0.7172 -1.7925 -2.6848
14717SOL     OW48961   8.588   7.848   7.259  0.0137 -0.3624 -0.4140
14717SOL    HW148962   8.574   7.753   7.268  1.0484 -0.5492 -0.6561
14717SOL    HW248963   8.682   7.857   7.249  0.0439  0.7890  0.7011
14718SOL     OW48964   3.780  10.283   4.719 -0.6318  0.6572 -0.1285
14718SOL    HW148965   3.866  10.320   4.698 -0.6970  0.5709 -0.5477
14718SOL    HW248966   3.719  10.334   4.666 -0.7841  0.3463 -0.2499
14719SOL     OW48967   4.872   4.758   1.695  0.4291  0.5295 -0.4110
14719SOL    HW148968   4.808   4.823   1.723  0.5297  1.5140 -2.3279
14719SOL    HW248969   4.830   4.712   1.623  1.8578  1.2191 -1.7437
14720SOL     OW48970   2.762   1.401  12.192 -0.1990  0.5487 -0.2319
14720SOL    HW148971   2.811   1.319  12.189  1.1943  1.3576 -0.1705
14720SOL    HW248972   2.824   1.467  12.164 -1.0020  1.7366  0.7038
14721SOL     OW48973   6.196  11.263   7.499 -0.0507  0.1191 -0.3152
14721SOL    HW148974   6.269  11.279   7.439 -1.3204  0.6446 -1.7810
14721SOL    HW248975   6.171  11.350   7.529 -1.5048  0.2037 -1.6295
14722SOL     OW48976   8.887   1.823   8.735 -0.2366 -0.0751 -0.0689
14722SOL    HW148977   8.833   1.866   8.802  0.3450 -0.1907  0.4864
14722SOL    HW248978   8.960   1.785   8.784  1.3309  1.5816 -0.9771
14723SOL     OW48979   0.999   8.127   3.500 -0.7140 -0.5553  1.0953
14723SOL    HW148980   0.979   8.193   3.434  0.2551 -2.3112 -1.0801
14723SOL    HW248981   0.914   8.089   3.522 -0.8356 -2.1724 -1.6992
14724SOL     OW48982   2.782   0.769   5.046 -0.2499  0.1953 -0.8100
14724SOL    HW148983   2.693   0.782   5.014  0.5276  3.4936 -1.9856
14724SOL    HW248984   2.829   0.732   4.971 -0.4093 -0.7945 -0.4396
14725SOL     OW48985  11.351   2.677   4.143 -0.1642 -0.1387  0.0822
14725SOL    HW148986  11.265   2.717   4.125  0.3074  0.7603 -0.2222
14725SOL    HW248987  11.410   2.751   4.154  0.5527 -0.7521  0.4553
14726SOL     OW48988   3.852   1.746   3.536  0.1587 -0.2493 -0.8025
14726SOL    HW148989   3.809   1.831   3.545  2.8688  1.3006 -1.3789
14726SOL    HW248990   3.807   1.705   3.463 -0.7651  1.0005 -0.9751
14727SOL     OW48991   1.802  11.794   7.711 -0.1833  0.3270  0.1996
14727SOL    HW148992   1.894  11.768   7.711 -0.1391  0.4797  0.0797
14727SOL    HW248993   1.754  11.713   7.698  0.0672  0.6567 -4.1076
14728SOL     OW48994  10.064   2.578   6.249 -0.3842  0.2017  0.1982
14728SOL    HW148995  10.122   2.651   6.229  0.7888 -0.9656 -0.9329
14728SOL    HW248996  10.123   2.509   6.281 -1.0383 -1.1112 -1.2489
14729SOL     OW48997   8.246   6.788   4.392 -0.4932  0.4275 -0.1715
14729SOL    HW148998   8.302   6.712   4.405 -0.8834 -0.0333 -1.0798
14729SOL    HW248999   8.229   6.790   4.297 -0.0156  1.9854 -0.2702
14730SOL     OW49000  12.220   5.818  10.185 -0.5391  0.1796  0.5937
14730SOL    HW149001  12.227   5.768  10.104 -1.0422  0.8733  0.1086
14730SOL    HW249002  12.281   5.890  10.175 -1.3580  0.8657  0.3699
14731SOL     OW49003   2.639   9.989   5.853  0.1250  0.4393 -0.1142
14731SOL    HW149004   2.617   9.912   5.904 -1.0266  0.8324  0.0121
14731SOL    HW249005   2.631  10.062   5.914 -1.0490  0.8903 -0.7745
14732SOL     OW49006   9.619  12.561   4.201  0.5492 -0.1294  0.0193
14732SOL    HW149007   9.688  12.612   4.242  0.3098  0.7872 -0.6952
14732SOL    HW249008   9.555  12.626   4.171 -0.0893 -0.8896 -0.3064
14733SOL     OW49009   2.932   4.097   0.464  0.5550  0.4388 -0.3374
14733SOL    HW149010   2.894   4.169   0.513 -0.8968 -0.2520 -0.3830
14733SOL    HW249011   2.886   4.099   0.380 -0.2146 -1.0995  0.0104
14734SOL     OW49012   5.895  12.317  12.531 -0.2762  0.3800  0.2657
14734SOL    HW149013   5.885  12.306  12.626  0.7547  1.3209  0.5093
14734SOL    HW249014   5.854  12.239  12.493 -2.0005  0.6625  1.4089
14735SOL     OW49015  12.424   0.455   1.973  0.4027 -0.7468 -0.0012
14735SOL    HW149016  12.399   0.501   2.053 -1.4688 -1.8325  0.0902
14735SOL    HW249017  12.519   0.444   1.981  0.7400  1.8702  0.5712
14736SOL     OW49018   5.549   6.677   0.622  0.4466  0.1306  0.3189
14736SOL    HW149019   5.598   6.630   0.689  1.0301  0.3874  0.0744
14736SOL    HW249020   5.615   6.725   0.572  0.1140 -0.6046 -0.8866
14737SOL     OW49021   1.625  10.370   9.318 -0.7012 -0.3452 -0.3716
14737SOL    HW149022   1.556  10.309   9.346 -1.3502 -0.1513 -1.4587
14737SOL    HW249023   1.706  10.328   9.344 -1.2374  0.0254  2.1419
14738SOL     OW49024  11.219   4.315   1.681 -0.6737 -0.2195 -0.0474
14738SOL    HW149025  11.202   4.288   1.771  1.4111  1.1950  0.8576
14738SOL    HW249026  11.298   4.267   1.656 -0.0108  0.9637 -0.3170
14739SOL     OW49027   4.612   8.259   3.727  0.0469  0.5198  0.3657
14739SOL    HW149028   4.598   8.308   3.808 -2.7849  1.2918 -0.5050
14739SOL    HW249029   4.576   8.173   3.744 -0.6019  0.6992 -0.0757
14740SOL     OW49030   3.400   5.876  11.505 -0.4564  0.8065  0.1222
14740SOL    HW149031   3.326   5.886  11.445 -0.4293  2.3020  0.3066
14740SOL    HW249032   3.401   5.957  11.557 -0.1056 -0.1850  1.7406
14741SOL     OW49033  10.861   6.324   4.463 -0.1568  0.8203 -0.6962
14741SOL    HW149034  10.817   6.302   4.545  0.3295 -0.2980 -0.7159
14741SOL    HW249035  10.836   6.254   4.403  1.4959  0.2341 -0.7516
14742SOL     OW49036   5.170  12.227   5.439  0.3772 -0.5688  0.0314
14742SOL    HW149037   5.147  12.277   5.517 -1.0498  0.6130 -1.0909
14742SOL    HW249038   5.088  12.186   5.412 -0.0475  1.7919 -2.7163
14743SOL     OW49039   8.816   3.816   2.489 -0.7487  0.4572 -0.2345
14743SOL    HW149040   8.737   3.791   2.537 -0.4128 -1.0491 -0.4215
14743SOL    HW249041   8.854   3.887   2.541 -2.2125  1.2146 -0.1455
14744SOL     OW49042   4.300   0.901  11.088  0.2226 -0.5709  0.2690
14744SOL    HW149043   4.250   0.879  11.010  0.0014 -0.6784  0.4408
14744SOL    HW249044   4.341   0.985  11.068 -2.1043  0.8349  1.0765
14745SOL     OW49045   3.228  11.807   7.905  0.5215  0.1743  0.2148
14745SOL    HW149046   3.219  11.884   7.960 -1.2499  1.0103 -1.1515
14745SOL    HW249047   3.249  11.842   7.818 -3.9248 -0.4297 -1.3509
14746SOL     OW49048  12.565  12.285   2.399 -0.0712  0.1183 -0.0045
14746SOL    HW149049  12.660  12.280   2.383 -0.2442  1.0096 -1.5468
14746SOL    HW249050  12.554  12.363   2.453  0.1668 -0.7133  1.2882
14747SOL     OW49051   2.440   9.328   5.738  0.5249  0.3601  0.2972
14747SOL    HW149052   2.477   9.414   5.718  1.1251 -0.6040 -3.4879
14747SOL    HW249053   2.346   9.338   5.723  0.6720  0.2502 -0.7715
14748SOL     OW49054   0.526   1.523   0.748  0.0656 -0.9024  0.4138
14748SOL    HW149055   0.463   1.461   0.785 -0.1422 -0.1994  1.2852
14748SOL    HW249056   0.584   1.543   0.821 -0.2925  0.4499  0.3572
14749SOL     OW49057   7.126   3.502   4.821  0.0532  0.1255 -0.4927
14749SOL    HW149058   7.065   3.567   4.786  2.0156  1.3429 -1.8560
14749SOL    HW249059   7.190   3.553   4.869  0.8179 -0.9533 -0.3323
14750SOL     OW49060   6.807   4.385   5.404  0.4734  0.0043 -0.6613
14750SOL    HW149061   6.789   4.401   5.497 -2.2312  0.9214 -1.2419
14750SOL    HW249062   6.775   4.296   5.389  0.2490  0.1191 -0.8618
14751SOL     OW49063   2.323   5.754   5.650  0.2807  0.2278 -0.3165
14751SOL    HW149064   2.380   5.711   5.715 -1.9125 -1.2832  0.7311
14751SOL    HW249065   2.240   5.766   5.696 -0.0906  3.0384 -1.5689
14752SOL     OW49066   5.369   9.896   7.332 -0.4343 -0.0337 -0.4057
14752SOL    HW149067   5.354   9.918   7.240 -1.4403  1.0476 -0.0022
14752SOL    HW249068   5.384   9.802   7.332 -0.8073 -0.1062 -1.6244
14753SOL     OW49069   8.327  11.813   5.307  0.0849 -0.3489  0.1353
14753SOL    HW149070   8.379  11.733   5.309  0.2071 -0.2644  1.4626
14753SOL    HW249071   8.392  11.883   5.299 -0.0838 -0.3826 -2.3866
14754SOL     OW49072   6.616   1.192   4.646 -0.0742 -0.0515  0.2987
14754SOL    HW149073   6.568   1.194   4.564  0.5781  2.2137 -0.0964
14754SOL    HW249074   6.553   1.221   4.712 -0.2208 -0.5456  0.3779
14755SOL     OW49075   8.452   3.201   3.388 -0.4340  0.2630 -0.4587
14755SOL    HW149076   8.381   3.148   3.351 -2.1401  1.8237  0.3799
14755SOL    HW249077   8.423   3.218   3.478  1.4973  0.1604  0.2139
14756SOL     OW49078   6.975   4.952  10.528  0.2675 -0.1881  0.2318
14756SOL    HW149079   6.896   5.005  10.538 -1.7827 -2.5275 -1.9682
14756SOL    HW249080   7.040   5.012  10.493 -0.7612  1.6501  1.3180
14757SOL     OW49081  10.551   8.909  10.562 -0.1343  0.3701 -0.0016
14757SOL    HW149082  10.468   8.917  10.514 -0.6040  0.5189  0.8177
14757SOL    HW249083  10.593   8.831  10.525 -1.3766 -0.6386  0.6670
14758SOL     OW49084   1.660   8.225   7.824 -0.6032 -0.2612 -0.0442
14758SOL    HW149085   1.621   8.286   7.762 -0.9068  0.7822  1.1485
14758SOL    HW249086   1.698   8.156   7.769 -2.4019 -0.2971 -1.3013
14759SOL     OW49087   9.143   6.800  12.618  0.8218  0.0480 -0.0812
14759SOL    HW149088   9.207   6.861  12.582  1.3611 -1.2631 -1.4765
14759SOL    HW249089   9.133   6.826  12.709  0.6526  2.4874 -0.7259
14760SOL     OW49090   6.207  10.848   1.464 -0.1711  0.0478 -0.1189
14760SOL    HW149091   6.175  10.925   1.417  1.4585  0.0301 -1.3788
14760SOL    HW249092   6.302  10.855   1.458  0.0485 -2.5544 -1.2023
14761SOL     OW49093   7.033  10.458   2.184  0.3115 -0.2778  0.0215
14761SOL    HW149094   7.041  10.482   2.092  0.4260 -0.7575 -0.0980
14761SOL    HW249095   7.026  10.541   2.231 -1.7399 -0.0357 -0.5982
14762SOL     OW49096   6.756   8.830   6.889 -0.1272  0.2219 -0.1334
14762SOL    HW149097   6.836   8.810   6.936  0.1923  2.4901  0.4015
14762SOL    HW249098   6.784   8.844   6.798  0.3762  2.4163  0.3130
14763SOL     OW49099  11.252   8.798   6.720  0.0751 -0.1088 -0.1967
14763SOL    HW149100  11.181   8.758   6.769 -0.0137 -0.8988 -0.9509
14763SOL    HW249101  11.326   8.737   6.729  1.1816  1.4163  1.8496
14764SOL     OW49102   4.931   9.118   7.957  0.1696  0.0451  0.3027
14764SOL    HW149103   5.008   9.163   7.991 -0.2386  2.5396 -1.7782
14764SOL    HW249104   4.858   9.177   7.975 -1.0885 -1.6484  0.9988
14765SOL     OW49105   5.965   3.996  11.079  0.8154  0.0497  0.6457
14765SOL    HW149106   5.953   4.027  10.989  0.1775  0.8755  1.0139
14765SOL    HW249107   5.986   4.075  11.129  1.6240 -0.4685  1.1558
14766SOL     OW49108   5.220  12.527   5.114 -0.2690  0.6626  0.0318
14766SOL    HW149109   5.126  12.513   5.099 -0.4068  1.9002 -0.3749
14766SOL    HW249110   5.263  12.476   5.045 -0.6512  0.1837  0.1456
14767SOL     OW49111   6.575  12.043   2.144 -0.2123  0.3311 -0.6327
14767SOL    HW149112   6.597  12.132   2.116 -0.1654  0.3005 -0.6920
14767SOL    HW249113   6.531  12.005   2.068 -1.4642  0.7521 -0.1475
14768SOL     OW49114  12.403  11.387   1.452  0.3041 -0.0678 -0.0181
14768SOL    HW149115  12.396  11.416   1.543 -0.8468 -0.6003  0.0809
14768SOL    HW249116  12.384  11.465   1.401 -1.2535 -0.2514  0.2332
14769SOL     OW49117  11.181   0.723   8.846  0.1128  0.3302 -0.3059
14769SOL    HW149118  11.193   0.650   8.906  0.9432  0.2569 -0.5458
14769SOL    HW249119  11.195   0.685   8.759 -0.3334  0.5919 -0.4960
14770SOL     OW49120   7.104  11.246  11.404 -0.0554  0.5505 -0.4086
14770SOL    HW149121   7.157  11.324  11.389 -0.2345  0.7129 -0.1937
14770SOL    HW249122   7.168  11.174  11.405  0.4514  0.9557  1.9116
14771SOL     OW49123   1.221   7.202   1.518 -0.3058  0.1834 -0.1956
14771SOL    HW149124   1.265   7.119   1.502  1.1243  1.1567 -1.5888
14771SOL    HW249125   1.249   7.227   1.606  2.4380  0.9782 -1.1833
14772SOL     OW49126   4.127   8.173   5.782 -0.2355  0.3386 -0.2221
14772SOL    HW149127   4.118   8.249   5.725  1.2469  0.9858  0.3408
14772SOL    HW249128   4.039   8.136   5.788 -0.4662  0.3430 -2.7490
14773SOL     OW49129   4.980   6.365   5.595 -0.2347  0.0898  0.1062
14773SOL    HW149130   5.056   6.416   5.569  0.1833 -0.1079  0.9117
14773SOL    HW249131   4.915   6.382   5.527 -0.7667  3.1001  1.2187
14774SOL     OW49132   0.960   6.567  11.202 -0.2700 -0.0665  0.4346
14774SOL    HW149133   0.874   6.596  11.173  0.4393  0.2307 -1.5297
14774SOL    HW249134   1.004   6.538  11.122  1.1686 -1.0020  1.5063
14775SOL     OW49135   5.300   4.548   3.293  0.8435  0.1867 -0.0812
14775SOL    HW149136   5.297   4.638   3.324 -2.3539 -0.4383  1.9320
14775SOL    HW249137   5.358   4.503   3.354 -0.2005  0.2906  1.0324
14776SOL     OW49138   5.720   5.375   1.213 -0.1843  0.4662 -0.3995
14776SOL    HW149139   5.694   5.463   1.188  0.6265  0.4799 -1.2812
14776SOL    HW249140   5.647   5.319   1.187  0.3568  0.5676 -2.2927
14777SOL     OW49141   5.866  12.177   2.903  0.5919  0.0769 -0.2209
14777SOL    HW149142   5.807  12.167   2.828 -0.9818 -0.3776  1.0131
14777SOL    HW249143   5.863  12.092   2.947 -0.7628  1.1201  1.8771
14778SOL     OW49144   7.974   8.120   4.680  0.1970 -0.2564 -0.2267
14778SOL    HW149145   8.002   8.209   4.660 -0.0319 -0.2278 -0.4266
14778SOL    HW249146   8.000   8.069   4.603  0.0516 -0.3034 -0.2451
14779SOL     OW49147   4.996   2.160  12.191 -0.4456  0.5736  0.3905
14779SOL    HW149148   5.042   2.225  12.244 -2.3113  0.6616  1.9941
14779SOL    HW249149   5.034   2.077  12.218 -0.2003  0.7550  0.6129
14780SOL     OW49150   0.769  12.412   9.272 -0.1089 -0.0087  0.2478
14780SOL    HW149151   0.830  12.338   9.265  1.1130  0.8294  1.5521
14780SOL    HW249152   0.793  12.470   9.199  2.0223  1.2270  1.8139
14781SOL     OW49153   1.962  11.318  11.258  0.0696  0.5521  0.3612
14781SOL    HW149154   1.881  11.368  11.247 -0.2200  0.5192  2.0388
14781SOL    HW249155   1.965  11.298  11.351  1.3333 -0.6259  0.1044
14782SOL     OW49156   5.967   9.688   7.652 -0.1822 -0.5238  0.0962
14782SOL    HW149157   6.019   9.680   7.572 -0.5212 -2.1402  0.0175
14782SOL    HW249158   6.032   9.684   7.722  0.0266 -0.0021 -0.0572
14783SOL     OW49159  11.842   0.720   5.336 -0.4334 -0.0945  0.3979
14783SOL    HW149160  11.757   0.747   5.371 -0.8053 -0.2849 -0.3386
14783SOL    HW249161  11.821   0.677   5.253  0.3834 -0.1439  0.2110
14784SOL     OW49162   1.199   9.318   2.255 -1.0235 -0.1499 -0.4314
14784SOL    HW149163   1.172   9.286   2.341  0.1175 -0.5788 -0.2164
14784SOL    HW249164   1.162   9.254   2.194 -1.6013  0.0054 -0.2576
14785SOL     OW49165   6.890  11.347   0.229 -0.0133 -0.0334  0.2892
14785SOL    HW149166   6.875  11.311   0.142 -0.1850 -0.8842  0.6557
14785SOL    HW249167   6.946  11.282   0.273 -1.6686 -0.7107  1.5146
14786SOL     OW49168   9.510   2.960   4.493 -0.3131 -0.0881 -0.4142
14786SOL    HW149169   9.455   2.882   4.500 -1.6818  0.7350 -1.5703
14786SOL    HW249170   9.598   2.929   4.515 -0.7435 -2.0349 -1.2178
14787SOL     OW49171   8.826   3.753   8.724 -0.4353  0.2872  0.3999
14787SOL    HW149172   8.742   3.710   8.706 -1.2348  1.0609  2.0580
14787SOL    HW249173   8.891   3.683   8.717 -0.6346  0.2572 -4.3278
14788SOL     OW49174  11.607   5.068   8.112 -0.0878 -0.5925 -0.0151
14788SOL    HW149175  11.515   5.091   8.122  0.3055  1.3729 -0.5093
14788SOL    HW249176  11.628   5.093   8.022  1.1235 -0.3024  0.3330
14789SOL     OW49177   2.757  10.548   0.195 -0.2051  0.4177  0.2139
14789SOL    HW149178   2.818  10.601   0.248 -0.2721 -0.3490  1.0908
14789SOL    HW249179   2.763  10.460   0.233  0.7696 -0.5088 -1.9545
14790SOL     OW49180   7.333   8.304  10.289  0.0551  0.1775 -0.3794
14790SOL    HW149181   7.347   8.349  10.206 -1.3641  0.1202 -0.6691
14790SOL    HW249182   7.245   8.266  10.282  1.1843 -2.7632 -0.2079
14791SOL     OW49183   5.030   9.575   2.295  0.0678  0.0068 -0.0053
14791SOL    HW149184   4.996   9.641   2.235 -1.7073 -1.9105 -1.2431
14791SOL    HW249185   5.058   9.625   2.372 -0.9798  2.2053 -0.9644
14792SOL     OW49186   8.368  11.228  10.194 -0.2269 -0.2749 -0.7785
14792SOL    HW149187   8.343  11.214  10.285  2.3621 -0.3225  0.0222
14792SOL    HW249188   8.323  11.309  10.168 -0.0474  0.4190  0.9638
14793SOL     OW49189   6.797   9.670   5.343  0.2173  0.4972  0.0798
14793SOL    HW149190   6.859   9.742   5.327  1.6233 -0.1386  2.2925
14793SOL    HW249191   6.852   9.592   5.349 -1.2024 -0.6861 -1.3704
14794SOL     OW49192   2.301   9.653   1.658  0.2642  0.1943 -0.1275
14794SOL    HW149193   2.301   9.636   1.564  1.8772  2.2401 -0.5881
14794SOL    HW249194   2.213   9.631   1.687 -0.3366 -0.2752 -2.1662
14795SOL     OW49195   6.211   7.275  12.185 -0.0432 -0.1833 -0.2487
14795SOL    HW149196   6.208   7.291  12.279 -1.2808  1.0417 -0.4654
14795SOL    HW249197   6.244   7.358  12.148 -0.9530 -0.1337 -0.9866
14796SOL     OW49198   2.658   1.943  11.460  0.5514  0.0779 -0.6926
14796SOL    HW149199   2.728   1.960  11.397  0.8770 -0.8121 -0.5911
14796SOL    HW249200   2.580   1.932  11.407  0.2954  1.9361 -0.7548
14797SOL     OW49201   9.324   3.523   8.124  0.2969 -0.1103  0.0838
14797SOL    HW149202   9.251   3.475   8.164  0.7541 -0.1701  0.8673
14797SOL    HW249203   9.374   3.557   8.198  0.9408  0.1210 -0.4466
14798SOL     OW49204  10.760   5.659  12.636 -0.3557  0.9120  0.1203
14798SOL    HW149205  10.768   5.646  12.541  1.4803 -1.6313  0.5125
14798SOL    HW249206  10.843   5.697  12.663 -0.4017  0.5064  0.8550
14799SOL     OW49207   7.729  11.548   6.301 -0.2547 -0.0527  0.6085
14799SOL    HW149208   7.757  11.523   6.389 -0.9434  0.2585  0.9290
14799SOL    HW249209   7.709  11.642   6.308  0.1777  0.0912 -0.0093
14800SOL     OW49210  10.946   1.450   8.281  0.1961  0.5272 -0.4326
14800SOL    HW149211  10.879   1.513   8.256 -0.1501  0.0728 -0.6665
14800SOL    HW249212  10.910   1.365   8.255 -0.0711  0.0397  1.3426
14801SOL     OW49213   8.642   5.279   4.867 -0.0063  0.0923 -0.1082
14801SOL    HW149214   8.731   5.249   4.850  0.6244  2.7855 -2.1460
14801SOL    HW249215   8.644   5.311   4.957  0.9199 -0.2891  0.0127
14802SOL     OW49216   3.203  11.141   1.798  0.0341 -0.1530  0.3593
14802SOL    HW149217   3.263  11.083   1.751  0.8577 -0.9955  2.3236
14802SOL    HW249218   3.182  11.093   1.879 -1.2962  1.2201  0.8815
14803SOL     OW49219   6.056   4.671   4.431 -0.2996 -0.0381  0.0414
14803SOL    HW149220   6.142   4.639   4.460  0.2151  1.0465 -0.2353
14803SOL    HW249221   6.053   4.647   4.338  1.1196  2.6889 -0.8194
14804SOL     OW49222   0.123   2.784   8.822 -0.3173 -0.2072  0.1633
14804SOL    HW149223   0.179   2.778   8.745 -3.1377  1.2620 -2.2218
14804SOL    HW249224   0.154   2.861   8.869  1.2281 -0.9266  0.3928
14805SOL     OW49225  12.210  11.655   7.068  0.5979 -0.1488  0.1217
14805SOL    HW149226  12.286  11.708   7.045  1.4061 -0.6268  1.5417
14805SOL    HW249227  12.230  11.569   7.031  0.1013  0.0748 -0.6796
14806SOL     OW49228  11.547   9.302   6.770  0.3134 -0.0087  0.6849
14806SOL    HW149229  11.529   9.346   6.686 -1.2214 -1.4354  0.2128
14806SOL    HW249230  11.519   9.364   6.836  0.9279  0.8809  0.1358
14807SOL     OW49231   0.309   7.314   5.093 -0.1778 -0.6378  0.0715
14807SOL    HW149232   0.314   7.328   4.999  1.2000  0.9086  0.3369
14807SOL    HW249233   0.215   7.311   5.112 -0.5084  0.9959 -1.0970
14808SOL     OW49234   4.446   2.073  10.930  1.1418 -0.3574  0.9870
14808SOL    HW149235   4.360   2.033  10.920  0.0730  1.9225  0.2937
14808SOL    HW249236   4.435   2.137  11.000  2.0788  0.3751  0.5032
14809SOL     OW49237   9.575   8.969   8.701  0.1711 -0.1118  0.3499
14809SOL    HW149238   9.519   8.903   8.742 -0.6905  0.2892 -0.1392
14809SOL    HW249239   9.543   9.052   8.735  1.4633  0.0570  1.2085
14810SOL     OW49240   0.135  11.816   4.412 -0.3157 -0.2672  0.3593
14810SOL    HW149241   0.087  11.848   4.487  2.0220 -0.3386  2.0050
14810SOL    HW249242   0.133  11.720   4.420 -0.3465 -0.2879  0.1323
14811SOL     OW49243   8.077   4.749   2.928 -0.1278 -0.4021 -0.3632
14811SOL    HW149244   7.999   4.697   2.948 -0.6388  0.3070 -0.4434
14811SOL    HW249245   8.099   4.792   3.011  0.5594 -1.0776 -0.1829
14812SOL     OW49246   5.137  11.472   3.625 -0.9092  0.0702  0.1510
14812SOL    HW149247   5.090  11.545   3.585 -1.8483 -0.3015  0.5310
14812SOL    HW249248   5.155  11.501   3.714 -2.1118 -0.4860  0.6013
14813SOL     OW49249   5.729   0.635   8.366  0.1368 -0.3094 -0.0501
14813SOL    HW149250   5.762   0.716   8.327 -0.3540 -0.8367 -1.6299
14813SOL    HW249251   5.784   0.566   8.327 -0.8693 -0.9243 -0.4109
14814SOL     OW49252  11.881  10.209   5.844 -0.1081  0.2636 -0.1511
14814SOL    HW149253  11.916  10.215   5.755 -0.8950  0.1595 -0.4765
14814SOL    HW249254  11.945  10.255   5.898  1.1976 -1.0334 -0.5367
14815SOL     OW49255   1.000   9.885  10.672  0.3669 -0.2633  0.1062
14815SOL    HW149256   0.949   9.965  10.656  1.7200  0.5813 -0.1822
14815SOL    HW249257   1.090   9.916  10.677  0.9061 -1.7825  0.0560
14816SOL     OW49258   1.386  11.394   1.916 -0.0010 -0.1562  0.6640
14816SOL    HW149259   1.438  11.453   1.972 -1.0162  0.7523  0.6737
14816SOL    HW249260   1.416  11.306   1.940  1.0085  0.3167  1.1932
14817SOL     OW49261   8.967   0.801   8.542 -0.2135  0.6432  0.6867
14817SOL    HW149262   8.903   0.836   8.604 -0.4780  2.0394 -0.3337
14817SOL    HW249263   8.979   0.870   8.478 -1.8434 -1.5884 -2.3059
14818SOL     OW49264   5.604   9.293   5.190  0.1017 -0.4637 -0.0781
14818SOL    HW149265   5.654   9.278   5.270  0.5341 -0.5383 -0.3588
14818SOL    HW249266   5.654   9.248   5.122 -0.1472 -0.2180 -0.4265
14819SOL     OW49267  10.302   9.315  12.392 -0.3052 -0.1251  0.4616
14819SOL    HW149268  10.216   9.278  12.372 -0.2320  0.3983 -0.9098
14819SOL    HW249269  10.360   9.277  12.327  0.5161 -0.4166  1.3330
14820SOL     OW49270   9.416   6.311   7.034  0.5473  0.2399 -0.3577
14820SOL    HW149271   9.446   6.313   6.943  0.3909  4.1102 -0.5123
14820SOL    HW249272   9.496   6.307   7.085  0.6896 -0.9054 -0.6515
14821SOL     OW49273   5.653   9.895   4.898 -0.0431  0.2496  0.1679
14821SOL    HW149274   5.619   9.947   4.825 -1.4254 -0.1710  0.4794
14821SOL    HW249275   5.652   9.955   4.972 -1.7703 -0.2184  0.5588
14822SOL     OW49276  10.540   3.422   8.945 -0.6563  0.0044  0.0033
14822SOL    HW149277  10.628   3.404   8.912 -0.4210  0.4915  0.3557
14822SOL    HW249278  10.502   3.481   8.880 -0.3969  0.5089  0.3024
14823SOL     OW49279   9.479   3.598   4.693 -0.1190 -0.0238 -0.2049
14823SOL    HW149280   9.493   3.574   4.784 -1.1803 -1.7414 -0.4349
14823SOL    HW249281   9.384   3.608   4.685 -0.0900 -0.4397 -1.2239
14824SOL     OW49282  11.995   6.142   7.007  0.4758 -0.4156 -0.6044
14824SOL    HW149283  11.915   6.122   6.958 -0.1423  2.5231 -0.9633
14824SOL    HW249284  11.984   6.095   7.090 -2.6218  1.4158  0.1732
14825SOL     OW49285   3.579   3.463   6.202  0.8127 -0.1087  0.4948
14825SOL    HW149286   3.575   3.496   6.113 -1.1844  1.1494  0.9741
14825SOL    HW249287   3.672   3.451   6.220  1.2428 -1.3423 -2.0476
14826SOL     OW49288  10.297   7.251   5.162 -0.5087 -0.3157 -0.0808
14826SOL    HW149289  10.295   7.331   5.215 -1.0573  0.4798 -1.2666
14826SOL    HW249290  10.369   7.199   5.200 -0.0267  0.8044  0.5956
14827SOL     OW49291   4.640  11.557   2.591  0.3995 -0.1625 -0.5212
14827SOL    HW149292   4.718  11.537   2.540  0.2304  1.2434 -1.3850
14827SOL    HW249293   4.570  11.567   2.526  0.4080  2.7767 -0.2300
14828SOL     OW49294   0.689   4.131   6.277  0.1302 -0.2129 -0.6316
14828SOL    HW149295   0.705   4.036   6.280 -0.3161 -0.2678  0.9880
14828SOL    HW249296   0.772   4.171   6.302  0.0465 -0.2075 -0.3640
14829SOL     OW49297   4.127   4.776   7.294 -0.2094  0.1164 -0.8353
14829SOL    HW149298   4.053   4.726   7.260 -0.0395 -0.0571 -0.9527
14829SOL    HW249299   4.104   4.867   7.277 -0.9050  0.1318  0.1435
14830SOL     OW49300  10.995   0.115   6.080  0.1619 -0.5617  0.1283
14830SOL    HW149301  10.937   0.189   6.097 -0.2109 -0.5178 -1.2311
14830SOL    HW249302  10.982   0.056   6.155 -0.3269  0.2509  0.6985
14831SOL     OW49303   0.529   6.238   5.450 -0.0585 -0.6427  1.1163
14831SOL    HW149304   0.573   6.316   5.481 -0.8486 -0.0990  0.8985
14831SOL    HW249305   0.478   6.207   5.525  1.6938 -2.0659  1.8184
14832SOL     OW49306  11.188   8.975   7.332  0.2668 -0.7352  0.4739
14832SOL    HW149307  11.120   8.999   7.396  0.7676  2.5409 -0.0720
14832SOL    HW249308  11.140   8.930   7.262 -1.0304 -0.2168  0.9962
14833SOL     OW49309   5.234   1.883  11.384  0.4466 -0.1732 -0.0945
14833SOL    HW149310   5.141   1.878  11.403  0.4673 -0.8916 -0.1904
14833SOL    HW249311   5.242   1.950  11.317 -0.2179 -1.5159 -1.5557
14834SOL     OW49312   9.778   0.627   4.433 -0.4382 -0.8971  0.0318
14834SOL    HW149313   9.697   0.676   4.420 -1.0536 -2.2194 -1.4757
14834SOL    HW249314   9.817   0.620   4.346  0.6265 -1.3850  0.5248
14835SOL     OW49315   6.804   8.606   7.651  0.7002 -0.2091 -0.1634
14835SOL    HW149316   6.886   8.642   7.685  0.8229 -0.2629 -0.4024
14835SOL    HW249317   6.756   8.683   7.620  0.2481 -0.0716  0.8460
14836SOL     OW49318   9.368  11.382  11.474  0.2355 -0.5573 -0.2315
14836SOL    HW149319   9.289  11.423  11.438  0.2103 -0.5566 -0.1745
14836SOL    HW249320   9.379  11.302  11.422 -1.3106 -1.9646  1.4499
14837SOL     OW49321   5.507   6.001   7.491 -0.4319  0.0417 -0.3937
14837SOL    HW149322   5.461   6.077   7.528 -1.3412 -2.1596  3.5213
14837SOL    HW249323   5.437   5.946   7.456  0.1703  0.5823 -2.6087
14838SOL     OW49324   5.975  10.328   8.262  0.2608  0.0114  0.4378
14838SOL    HW149325   5.889  10.306   8.299  1.3928 -0.1508  3.2323
14838SOL    HW249326   5.999  10.251   8.210 -1.9201  0.7309 -1.7848
14839SOL     OW49327   0.026   6.420   6.176 -0.2670 -0.5993 -0.3991
14839SOL    HW149328  -0.023   6.447   6.253  0.5162 -1.1650  0.3065
14839SOL    HW249329   0.103   6.374   6.210  1.5128  1.4184 -1.3931
14840SOL     OW49330  10.518   9.341   8.808  0.3832 -0.4494  0.3265
14840SOL    HW149331  10.553   9.267   8.859  0.5886  0.0584  0.9433
14840SOL    HW249332  10.508   9.411   8.873 -1.1419 -0.3641  0.0306
14841SOL     OW49333   2.245  11.182   4.965 -0.2420 -0.5110 -0.2916
14841SOL    HW149334   2.160  11.138   4.955 -1.1277  0.7484  1.2876
14841SOL    HW249335   2.234  11.239   5.041  2.2430 -0.7934  0.3639
14842SOL     OW49336  11.612   5.932  10.927 -0.4612  0.5573 -0.0306
14842SOL    HW149337  11.582   6.001  10.867  0.9556  0.3196 -1.0539
14842SOL    HW249338  11.632   5.858  10.870  1.6186  0.5618  0.6329
14843SOL     OW49339  12.322   4.366   4.240  0.0528  0.5103 -0.2033
14843SOL    HW149340  12.308   4.277   4.270  1.4421  0.3050 -0.0657
14843SOL    HW249341  12.238   4.410   4.254  0.7734  0.8363  5.4010
14844SOL     OW49342   9.909   7.327   2.641 -0.1114 -0.0356  0.4047
14844SOL    HW149343   9.864   7.399   2.684 -1.7853 -1.6650  1.5471
14844SOL    HW249344   9.851   7.303   2.568  0.9197  0.3720 -0.5752
14845SOL     OW49345   6.412   2.352   6.048 -0.1446 -0.0073  0.1999
14845SOL    HW149346   6.416   2.439   6.085  2.9277 -0.3116  0.8681
14845SOL    HW249347   6.489   2.347   5.990 -0.5566 -2.0674 -0.2565
14846SOL     OW49348   5.092   5.243   0.481  0.7614  0.1362 -0.1534
14846SOL    HW149349   5.043   5.161   0.476  1.5760 -0.3812  0.3379
14846SOL    HW249350   5.180   5.221   0.451  1.8505  0.1308  2.8222
14847SOL     OW49351  11.539   7.683  11.234  0.0898 -0.7595  0.3102
14847SOL    HW149352  11.530   7.673  11.139  1.0345 -1.6813  0.3020
14847SOL    HW249353  11.476   7.752  11.257  0.4419  0.0665 -1.0981
14848SOL     OW49354   7.038   8.660   0.463  0.1435 -0.6929 -0.1254
14848SOL    HW149355   7.085   8.661   0.546 -0.2704  0.7061  0.1221
14848SOL    HW249356   6.994   8.575   0.460 -1.7561  0.1066  2.2122
14849SOL     OW49357   3.607   4.980   0.532  0.0398  0.6513 -0.0848
14849SOL    HW149358   3.617   5.029   0.614  0.8379  0.4103 -0.0246
14849SOL    HW249359   3.696   4.948   0.513 -0.3759 -0.3836 -0.3559
14850SOL     OW49360   7.873  11.470   1.864  0.5476 -0.4031 -0.0074
14850SOL    HW149361   7.923  11.550   1.882  0.6190 -0.2100 -1.0135
14850SOL    HW249362   7.938  11.406   1.838  0.3112 -0.2147 -1.1103
14851SOL     OW49363   3.803  11.339   6.410  0.7334  0.0179 -0.4987
14851SOL    HW149364   3.892  11.324   6.377  0.8084  0.3501 -0.4456
14851SOL    HW249365   3.796  11.281   6.486  0.4446 -1.0109 -1.2843
14852SOL     OW49366  11.461   4.377   9.716  0.5765  0.3572  0.3361
14852SOL    HW149367  11.545   4.338   9.740  0.8335  0.7341  0.0519
14852SOL    HW249368  11.464   4.382   9.620 -0.9358 -2.3069  0.0373
14853SOL     OW49369  11.513   1.863   3.670 -0.3532  0.7630  0.2114
14853SOL    HW149370  11.461   1.828   3.597 -0.2053  0.3296  0.3136
14853SOL    HW249371  11.595   1.891   3.629 -0.2455  0.4622  0.2223
14854SOL     OW49372   0.500   6.421   0.294 -0.1126 -0.3419  0.4791
14854SOL    HW149373   0.456   6.343   0.328 -1.2802  0.2617  0.4041
14854SOL    HW249374   0.454   6.494   0.334  0.4469  0.3262 -0.0773
14855SOL     OW49375   9.431   2.628   7.292 -0.3422 -0.1459 -0.7579
14855SOL    HW149376   9.499   2.566   7.319  0.6128  0.8798 -0.7202
14855SOL    HW249377   9.383   2.646   7.372  0.7298  0.7606 -0.2864
14856SOL     OW49378  10.430   8.260   4.877  0.0310 -0.0819  0.3772
14856SOL    HW149379  10.348   8.220   4.907 -0.4935  0.0638 -0.7864
14856SOL    HW249380  10.418   8.354   4.893  0.0579 -0.0833  0.4039
14857SOL     OW49381   3.644   6.816   9.827  0.0658 -0.2932 -0.1353
14857SOL    HW149382   3.644   6.810   9.732  0.3750 -0.0235 -0.1520
14857SOL    HW249383   3.731   6.789   9.853  0.2253  0.3524  0.0234
14858SOL     OW49384   0.720  10.349   0.972 -0.8985  0.1808 -0.0863
14858SOL    HW149385   0.773  10.353   0.893 -1.3595  0.2722 -0.3981
14858SOL    HW249386   0.648  10.410   0.956 -0.2047  1.3243  1.0109
14859SOL     OW49387  11.353   1.130   5.661  0.6795  0.2123 -0.9364
14859SOL    HW149388  11.436   1.087   5.641  1.6589  0.3453  2.3082
14859SOL    HW249389  11.289   1.058   5.667  1.5629 -0.4926  0.9191
14860SOL     OW49390   1.127   4.229  12.480  0.5872 -0.1783  0.2381
14860SOL    HW149391   1.033   4.221  12.467  0.2295 -0.1345  2.4638
14860SOL    HW249392   1.144   4.182  12.562  2.6963 -1.1555 -0.6758
14861SOL     OW49393   4.893  12.447   8.015  0.2018 -0.6812  0.1374
14861SOL    HW149394   4.811  12.418   7.974 -1.2456 -1.2009  3.0922
14861SOL    HW249395   4.889  12.542   8.013  1.2442 -0.6076 -2.7179
14862SOL     OW49396   0.686   2.055  11.817  0.2049 -0.1428 -0.3142
14862SOL    HW149397   0.730   2.014  11.743  0.3326 -0.6437  0.0384
14862SOL    HW249398   0.713   2.004  11.893  0.2013  0.4637  0.1032
14863SOL     OW49399   7.318   6.902   9.610 -0.3038 -0.5050  0.2110
14863SOL    HW149400   7.360   6.840   9.549 -0.3301 -0.3912  0.0772
14863SOL    HW249401   7.269   6.846   9.670  0.3891 -0.6652  0.6378
14864SOL     OW49402   3.256   4.514   3.650  0.1002  0.5138 -0.2900
14864SOL    HW149403   3.172   4.471   3.665  0.3554  0.3765  0.8237
14864SOL    HW249404   3.234   4.595   3.605 -0.4019 -0.7066 -2.4264
14865SOL     OW49405  11.351   3.522   5.305 -0.1794  0.1750  0.2279
14865SOL    HW149406  11.361   3.481   5.392 -1.1558 -1.0374 -0.1961
14865SOL    HW249407  11.363   3.449   5.244  1.7447  1.2447 -0.7313
14866SOL     OW49408   6.236  10.211   2.913  0.6501  0.1044 -0.0917
14866SOL    HW149409   6.208  10.146   2.848  1.0670  0.8416 -1.0336
14866SOL    HW249410   6.322  10.181   2.941 -0.1223 -0.9937  1.2092
14867SOL     OW49411  10.536   1.741   4.835  0.6187 -0.1469  0.0359
14867SOL    HW149412  10.465   1.722   4.897 -0.3140  1.3875 -0.4959
14867SOL    HW249413  10.512   1.825   4.797  2.6134  0.2871 -0.3686
14868SOL     OW49414   2.998   7.791  10.437 -0.2146  0.4220  0.4247
14868SOL    HW149415   2.912   7.799  10.395  0.0893  0.0579 -0.2869
14868SOL    HW249416   3.044   7.725  10.385  0.8908  1.3933  0.1335
14869SOL     OW49417   4.608  11.214   3.886 -0.3759  0.5762 -0.0415
14869SOL    HW149418   4.519  11.229   3.855 -0.6890  0.0080  0.5498
14869SOL    HW249419   4.605  11.236   3.979  0.7034  2.8514 -0.4917
14870SOL     OW49420   3.514   4.492   7.715 -0.3828  0.8312 -0.0059
14870SOL    HW149421   3.497   4.490   7.621 -1.1350  0.2917  0.1288
14870SOL    HW249422   3.430   4.516   7.754 -0.0767  1.0401  0.5301
14871SOL     OW49423  11.146   8.892   0.592  0.0076 -0.4946  0.4168
14871SOL    HW149424  11.160   8.969   0.647  2.8878 -0.7848  0.2141
14871SOL    HW249425  11.150   8.818   0.652  0.9496 -0.6795  0.1416
14872SOL     OW49426  12.541   2.453  10.001  0.2054 -0.5382 -0.2878
14872SOL    HW149427  12.630   2.435   9.968  0.2140 -0.7043 -0.1753
14872SOL    HW249428  12.548   2.540  10.041  0.2242 -0.3878 -0.6164
14873SOL     OW49429   9.801   8.787  11.710  0.7204  0.2456 -0.1311
14873SOL    HW149430   9.839   8.850  11.649 -0.7545  1.5038  0.1885
14873SOL    HW249431   9.845   8.804  11.793  1.4193 -0.2317 -0.3865
14874SOL     OW49432   9.737   8.279   5.005  0.1041 -0.0197  0.6008
14874SOL    HW149433   9.692   8.197   5.025  0.1520 -0.2475 -0.2156
14874SOL    HW249434   9.826   8.252   4.981 -0.7102 -0.0950 -2.8610
14875SOL     OW49435  10.964   3.448   1.472 -0.2758  0.2760  0.7185
14875SOL    HW149436  11.053   3.433   1.504 -0.3234  0.3657  0.8917
14875SOL    HW249437  10.969   3.429   1.379  0.4363  2.3979  0.2720
14876SOL     OW49438   2.769   7.050  10.926  0.1042 -0.4008  0.2988
14876SOL    HW149439   2.737   7.139  10.943 -0.8100 -0.5736 -0.4041
14876SOL    HW249440   2.859   7.062  10.898 -0.1683  0.3705 -0.2965
14877SOL     OW49441   0.458   0.771   7.326  0.6216 -0.2972  0.0887
14877SOL    HW149442   0.401   0.806   7.258  0.6674 -1.0254 -0.3322
14877SOL    HW249443   0.474   0.845   7.384 -0.2277  0.0789 -0.1413
14878SOL     OW49444   6.243   4.715   6.414  0.1034 -0.4809 -0.3885
14878SOL    HW149445   6.237   4.664   6.333  0.8358  0.9055 -1.3464
14878SOL    HW249446   6.287   4.657   6.475 -1.0267 -1.7878 -0.7606
14879SOL     OW49447  11.354   4.266   2.868  0.3671  0.4494  0.2731
14879SOL    HW149448  11.424   4.216   2.827  1.6064  1.0481  1.5448
14879SOL    HW249449  11.362   4.354   2.831 -1.2937 -0.0273 -1.3608
14880SOL     OW49450   4.060   4.887   5.171 -0.3790  0.0309 -0.2019
14880SOL    HW149451   4.098   4.833   5.101  0.4746  0.4482 -0.0744
14880SOL    HW249452   4.089   4.845   5.252 -0.2097  0.3327 -0.1041
14881SOL     OW49453  12.163   1.735   6.725 -0.6385 -0.4455 -0.0226
14881SOL    HW149454  12.124   1.795   6.661 -2.7256 -0.6350  0.9973
14881SOL    HW249455  12.160   1.783   6.808 -0.4853 -1.2056  0.4345
14882SOL     OW49456   7.517  10.975   3.601 -0.0493  0.4931  0.4305
14882SOL    HW149457   7.427  10.980   3.569 -0.1619 -0.9924  0.4470
14882SOL    HW249458   7.538  10.882   3.598  1.5671  0.8391  0.2227
14883SOL     OW49459  10.379  12.637   4.283  0.9820  0.0868 -0.8769
14883SOL    HW149460  10.411  12.687   4.208  1.6872 -1.4166 -1.6141
14883SOL    HW249461  10.379  12.546   4.253 -0.3537 -0.3747  0.3907
14884SOL     OW49462   6.368  10.485   0.218 -0.5938 -0.2265  0.1824
14884SOL    HW149463   6.375  10.579   0.233 -1.2600 -0.0924 -0.2800
14884SOL    HW249464   6.298  10.477   0.152  2.1022 -0.7294 -2.8821
14885SOL     OW49465   2.778   2.573   6.131  0.1732 -0.4637  0.0440
14885SOL    HW149466   2.775   2.667   6.110 -0.3815 -0.5081 -0.0974
14885SOL    HW249467   2.823   2.568   6.215 -0.3156 -0.0196  0.3338
14886SOL     OW49468   7.475   0.583   5.711  0.0999  0.2120  0.1944
14886SOL    HW149469   7.562   0.594   5.674  0.8122 -0.5849  1.5460
14886SOL    HW249470   7.483   0.615   5.801 -1.1905  0.7746  0.1356
14887SOL     OW49471   1.695   5.804   7.409  0.7536  0.0304 -0.0220
14887SOL    HW149472   1.671   5.877   7.351  1.3288  1.3189  1.2838
14887SOL    HW249473   1.760   5.755   7.360 -1.1019 -0.8442 -1.7495
14888SOL     OW49474   9.230   0.610   7.302  0.3080 -0.6813 -0.3610
14888SOL    HW149475   9.300   0.652   7.352  0.1286 -0.8106  0.0031
14888SOL    HW249476   9.164   0.679   7.290 -0.2754 -1.0091  0.7851
14889SOL     OW49477   4.141   8.568   9.527 -0.1398  0.0546  0.3958
14889SOL    HW149478   4.145   8.659   9.559 -1.0817  0.0119  0.6842
14889SOL    HW249479   4.230   8.548   9.500  0.3820  0.5915  1.6578
14890SOL     OW49480   4.243   6.220   7.407 -0.7589 -0.4270 -0.3469
14890SOL    HW149481   4.216   6.309   7.385 -1.1380  0.5050  3.1397
14890SOL    HW249482   4.162   6.176   7.431 -0.4732 -1.4941 -1.2599
14891SOL     OW49483  10.955   1.289   1.111 -0.0229  0.3778 -0.5014
14891SOL    HW149484  10.938   1.380   1.085  0.9753  0.2948 -1.5443
14891SOL    HW249485  10.870   1.255   1.138 -0.3700  1.6938  0.1719
14892SOL     OW49486   1.895   7.999   5.767 -0.3194 -0.5407 -0.0350
14892SOL    HW149487   1.937   8.081   5.794  0.2466 -0.8387  0.0142
14892SOL    HW249488   1.954   7.964   5.700 -0.1671 -1.2768  0.4760
14893SOL     OW49489   1.541  11.238   8.472  0.3445 -0.7098  0.3849
14893SOL    HW149490   1.571  11.294   8.544 -1.2623  0.3261  0.3060
14893SOL    HW249491   1.550  11.293   8.394 -0.8704 -0.6626  0.2544
14894SOL     OW49492  11.158   1.974   5.493  0.3195  0.2074 -0.6732
14894SOL    HW149493  11.085   2.004   5.439 -2.2469 -3.7773  0.1897
14894SOL    HW249494  11.183   2.050   5.545 -3.3050  1.7462 -0.9391
14895SOL     OW49495  10.622   3.880   5.344 -0.3238  0.0637  0.5549
14895SOL    HW149496  10.589   3.955   5.395 -0.9963 -0.6110  1.1380
14895SOL    HW249497  10.675   3.831   5.407 -0.3456 -0.2513  0.3235
14896SOL     OW49498   7.834  11.439   6.540 -0.1980 -0.0496  0.7821
14896SOL    HW149499   7.858  11.346   6.541  0.3557  0.0717  0.1560
14896SOL    HW249500   7.854  11.470   6.628  0.4879 -0.3259  0.7345
14897SOL     OW49501   9.686   5.936   5.848 -0.2784  0.4363 -0.1722
14897SOL    HW149502   9.722   5.984   5.773 -0.7760 -1.0443 -1.4040
14897SOL    HW249503   9.743   5.859   5.856  1.0678  1.5626  2.3427
14898SOL     OW49504   0.761   4.552   1.813 -0.3948  0.2476  0.1190
14898SOL    HW149505   0.802   4.510   1.737  0.4773 -1.2599  1.3421
14898SOL    HW249506   0.724   4.633   1.779  2.1411  0.8860 -1.4481
14899SOL     OW49507   0.459   8.889   7.931 -0.3679 -0.4823 -0.2389
14899SOL    HW149508   0.436   8.964   7.987 -0.2758  0.7672 -1.7937
14899SOL    HW249509   0.376   8.845   7.915 -0.5445 -0.2590  0.0431
14900SOL     OW49510  11.337   4.949   9.034  0.4219  0.4454  0.1456
14900SOL    HW149511  11.305   5.035   9.058  0.5880  0.2898  0.9653
14900SOL    HW249512  11.428   4.964   9.006 -0.0270  0.7448 -1.2419
14901SOL     OW49513   3.381   0.678   8.223 -0.3938  0.2929  0.1958
14901SOL    HW149514   3.453   0.675   8.161  0.1808 -1.2477  0.8780
14901SOL    HW249515   3.374   0.770   8.247  0.1106  0.7401 -1.2749
14902SOL     OW49516   8.491   9.404   9.733  0.0815 -0.1436  0.1898
14902SOL    HW149517   8.500   9.432   9.823 -0.1324 -1.2146  0.5604
14902SOL    HW249518   8.396   9.403   9.717  0.0800 -0.7315  0.2153
14903SOL     OW49519  10.462   1.498   3.975  0.2246  0.1528 -0.2042
14903SOL    HW149520  10.463   1.583   3.931  1.4252  0.2988  0.0738
14903SOL    HW249521  10.390   1.504   4.038  0.8086  1.2475  0.3675
14904SOL     OW49522   1.491   4.719  12.228 -0.5990 -0.2784 -0.6794
14904SOL    HW149523   1.468   4.787  12.291  1.0424  0.5897 -0.9599
14904SOL    HW249524   1.427   4.728  12.158 -1.4998 -0.2409  0.1301
14905SOL     OW49525  10.319   6.478   7.110  0.5156 -0.6061  0.2731
14905SOL    HW149526  10.349   6.547   7.170 -0.1053 -0.7710  0.7925
14905SOL    HW249527  10.350   6.506   7.024  0.5119  0.1873  0.5190
14906SOL     OW49528  10.511  11.032   6.927  0.1356 -0.0429 -0.3057
14906SOL    HW149529  10.551  11.103   6.875  0.5722  2.3553  2.9807
14906SOL    HW249530  10.577  10.963   6.927  2.0233  1.6502  0.4753
14907SOL     OW49531   2.922  12.427   1.052 -0.4909  0.2475  0.3170
14907SOL    HW149532   2.966  12.342   1.053  2.6223  1.6872  2.3842
14907SOL    HW249533   2.888  12.435   0.963  1.1225 -2.1974 -0.6423
14908SOL     OW49534   7.593   3.546  11.518  0.4814  0.4256  1.0704
14908SOL    HW149535   7.512   3.559  11.469  0.5969  1.7802  1.2124
14908SOL    HW249536   7.607   3.628  11.564  0.9497 -0.4346  2.5355
14909SOL     OW49537   9.005   3.217   5.578 -0.3387 -0.2128  0.5838
14909SOL    HW149538   9.099   3.204   5.569 -0.1698  0.8122  0.6931
14909SOL    HW249539   8.966   3.138   5.541  0.5367  0.0043 -0.9164
14910SOL     OW49540   7.195   3.727   3.672  0.0534  0.5348  0.2580
14910SOL    HW149541   7.269   3.740   3.613  0.3152 -1.0608  0.1896
14910SOL    HW249542   7.160   3.640   3.648 -0.4647  0.3065  1.7591
14911SOL     OW49543   8.404   4.357   8.233 -0.1123 -0.4002 -0.1195
14911SOL    HW149544   8.379   4.363   8.325  0.2115  0.8712 -0.1005
14911SOL    HW249545   8.438   4.268   8.223 -1.1362 -0.9083  0.7236
14912SOL     OW49546   9.906   8.535   9.160  0.9366  0.3540 -0.1467
14912SOL    HW149547   9.831   8.479   9.180  1.2501 -0.5248 -1.2946
14912SOL    HW249548   9.966   8.521   9.233  0.1599  0.7695  0.5873
14913SOL     OW49549   5.996   7.886  10.244  0.5865  0.8148  0.1202
14913SOL    HW149550   5.913   7.852  10.210 -0.2259  1.8386  1.0281
14913SOL    HW249551   6.029   7.943  10.174  0.6089  0.2967 -0.3001
14914SOL     OW49552   6.533   1.218   8.122  0.0172  0.5606  0.0884
14914SOL    HW149553   6.490   1.137   8.092 -2.7965  1.2600  1.8740
14914SOL    HW249554   6.494   1.287   8.068 -2.2263  1.3454  2.4776
14915SOL     OW49555   2.523   4.398   2.449 -0.6188  0.0424  0.0835
14915SOL    HW149556   2.600   4.343   2.467 -0.9640 -0.2127  0.8054
14915SOL    HW249557   2.479   4.354   2.376 -0.2687  0.0010 -0.1076
14916SOL     OW49558   2.757   4.252  10.979  0.2747  0.0537  0.3478
14916SOL    HW149559   2.784   4.271  11.068  1.7402 -0.3662  0.0215
14916SOL    HW249560   2.712   4.331  10.949 -2.4883 -0.6509  2.2425
14917SOL     OW49561   9.937   4.729   5.038  0.1372 -0.4269 -0.6593
14917SOL    HW149562   9.953   4.635   5.039 -1.1341 -0.6594 -0.3723
14917SOL    HW249563   9.966   4.758   4.951  2.1313 -0.7597 -0.1572
14918SOL     OW49564   1.792   1.718   8.470 -0.1380 -0.3523  0.2491
14918SOL    HW149565   1.858   1.786   8.456  2.6913 -3.0050 -0.3396
14918SOL    HW249566   1.777   1.681   8.383  0.1953 -1.9880  0.8494
14919SOL     OW49567  11.388  11.669  12.452  0.1093  0.1257  0.2759
14919SOL    HW149568  11.419  11.654  12.542 -1.9024 -1.1458  0.8309
14919SOL    HW249569  11.355  11.759  12.453  1.5273  0.6682  0.3319
14920SOL     OW49570   9.575   1.118   2.094  0.2029 -0.2958 -0.0777
14920SOL    HW149571   9.582   1.099   2.188  1.1026 -0.4759 -0.1684
14920SOL    HW249572   9.659   1.091   2.058 -0.4800 -1.1192 -1.1066
14921SOL     OW49573   9.721  10.841   1.498  0.3488  0.0573  0.7760
14921SOL    HW149574   9.682  10.919   1.460  0.4177 -1.9001 -3.9406
14921SOL    HW249575   9.815  10.862   1.504  0.2663  0.5774  0.2915
14922SOL     OW49576   9.133   7.818   6.767  0.4140  0.1384 -0.4498
14922SOL    HW149577   9.213   7.866   6.746  0.6865  0.6451  1.5489
14922SOL    HW249578   9.134   7.810   6.863 -1.7449 -0.1561 -0.4023
14923SOL     OW49579  10.275   4.273   4.679 -0.3316  0.2114 -0.6076
14923SOL    HW149580  10.227   4.284   4.761 -0.9967  0.4121 -1.0167
14923SOL    HW249581  10.362   4.308   4.697  0.2746 -1.8356  0.7002
14924SOL     OW49582   3.291   7.164   0.605  0.3355  0.5014  0.5601
14924SOL    HW149583   3.338   7.247   0.617 -0.1420  0.8921 -0.1962
14924SOL    HW249584   3.213   7.173   0.660 -0.7572  1.4172 -1.0339
14925SOL     OW49585   6.255   9.417   8.869  0.6536  0.2910 -0.5554
14925SOL    HW149586   6.272   9.510   8.851  0.4291  0.4419  0.0023
14925SOL    HW249587   6.237   9.414   8.963 -2.8304  0.2172 -1.0921
14926SOL     OW49588  12.411   3.102  11.063 -0.1286  0.0747  0.3925
14926SOL    HW149589  12.328   3.055  11.053  0.4301 -0.9962  0.6311
14926SOL    HW249590  12.387   3.185  11.104 -1.2426  0.3717 -0.8080
14927SOL     OW49591   2.440   2.508   4.570  0.2303  0.4984 -0.1793
14927SOL    HW149592   2.365   2.542   4.618  0.5057  1.7276 -0.5723
14927SOL    HW249593   2.478   2.585   4.526  1.3830 -0.1815 -0.4400
14928SOL     OW49594   9.550   5.036   5.882 -0.6548 -0.2872 -0.2612
14928SOL    HW149595   9.535   5.107   5.945 -1.9110  0.7994 -1.7337
14928SOL    HW249596   9.623   5.066   5.828 -1.1663 -0.1347 -0.8680
14929SOL     OW49597   1.655   3.320   4.288  0.2549  0.7892 -0.2456
14929SOL    HW149598   1.604   3.294   4.365  0.3977  0.4127 -0.2740
14929SOL    HW249599   1.612   3.275   4.215  2.3565 -2.0305  0.0780
14930SOL     OW49600  11.157   3.278   9.489 -0.4547 -0.0700  0.8746
14930SOL    HW149601  11.210   3.217   9.438  1.3343  2.0993 -0.0067
14930SOL    HW249602  11.069   3.268   9.453  0.1540 -0.8116 -0.4864
14931SOL     OW49603  11.359   7.146   9.099 -0.2067  0.5698  0.1183
14931SOL    HW149604  11.325   7.059   9.078  0.0118  0.3125  0.7919
14931SOL    HW249605  11.441   7.129   9.147 -1.5321  1.0290  2.7509
14932SOL     OW49606  11.915   7.032   0.956 -0.6832 -0.1164  0.1249
14932SOL    HW149607  12.000   7.023   0.913 -1.2864  0.1589 -1.1869
14932SOL    HW249608  11.888   7.122   0.936 -0.6534  0.2895  1.7729
14933SOL     OW49609   4.445   5.517   7.368 -0.4455 -0.4579  0.3516
14933SOL    HW149610   4.384   5.443   7.374 -0.6801 -0.2440  0.6378
14933SOL    HW249611   4.458   5.529   7.274 -1.3899 -0.0727  0.2564
14934SOL     OW49612   9.042   8.802   2.686 -0.1633 -0.1092  0.5920
14934SOL    HW149613   9.105   8.866   2.719  0.9174 -0.7308 -0.1803
14934SOL    HW249614   8.974   8.854   2.645  0.4402  0.5639  0.4128
14935SOL     OW49615   3.864   3.513   2.516 -0.5205 -0.3541 -0.2247
14935SOL    HW149616   3.866   3.428   2.473  2.9615 -1.1976  1.2663
14935SOL    HW249617   3.810   3.498   2.595  0.7171 -1.4804  0.4493
14936SOL     OW49618   1.944   0.438   4.612  0.0333 -0.1513 -0.4828
14936SOL    HW149619   1.850   0.441   4.633 -0.1637 -1.5198 -1.0640
14936SOL    HW249620   1.947   0.441   4.516  0.5326 -0.7858 -0.4949
14937SOL     OW49621  11.950   6.811   1.902 -0.1428  0.0454  0.1074
14937SOL    HW149622  12.026   6.843   1.951  0.9962 -1.5645 -0.5336
14937SOL    HW249623  11.945   6.867   1.825 -0.6799  1.2420  0.9637
14938SOL     OW49624  10.929   4.520   6.324 -0.4459 -0.3012 -0.4592
14938SOL    HW149625  11.005   4.490   6.375  0.2635  1.1965 -0.5843
14938SOL    HW249626  10.879   4.574   6.384 -0.0287  0.8253 -1.0906
14939SOL     OW49627   8.578   7.106  11.859 -0.2273  0.2034  0.3103
14939SOL    HW149628   8.560   7.025  11.907 -1.2023 -0.6678 -1.4576
14939SOL    HW249629   8.552   7.088  11.769  2.0170  1.6273 -0.7198
14940SOL     OW49630   6.699   1.045   5.366  0.1440 -0.0155 -0.0768
14940SOL    HW149631   6.787   1.079   5.347  0.1116  0.5491  0.7179
14940SOL    HW249632   6.641   1.120   5.350 -0.1084 -0.1699  0.1146
14941SOL     OW49633   8.906  10.532  10.820  0.4566  0.2334  0.4814
14941SOL    HW149634   8.871  10.601  10.765 -0.1571 -2.0343 -2.1805
14941SOL    HW249635   8.862  10.543  10.905 -0.3915  2.4098 -0.1964
14942SOL     OW49636  12.457   3.527  11.725  0.0596 -0.5332  0.1542
14942SOL    HW149637  12.501   3.572  11.797 -1.4869 -1.2974  1.6643
14942SOL    HW249638  12.505   3.553  11.646  1.8978  0.2361  1.4641
14943SOL     OW49639   5.972   7.187   8.018 -0.3140  0.2696  0.2323
14943SOL    HW149640   5.902   7.230   8.068  1.3659  2.0859  1.1538
14943SOL    HW249641   5.946   7.198   7.927 -1.9163 -0.3878  0.5708
14944SOL     OW49642   4.336   3.796   2.283 -0.3129  0.7775 -0.1557
14944SOL    HW149643   4.404   3.852   2.321  1.1489 -1.0459  0.0496
14944SOL    HW249644   4.341   3.715   2.332 -1.2929 -0.1199 -1.4674
14945SOL     OW49645   0.910  10.693   0.661 -0.3911 -0.0487  0.2221
14945SOL    HW149646   0.879  10.716   0.574 -0.4766  2.5475  0.8457
14945SOL    HW249647   0.996  10.736   0.668  0.2415 -1.3882  0.9358
14946SOL     OW49648   3.543   7.538   1.085 -0.4223 -0.0822  0.2250
14946SOL    HW149649   3.608   7.596   1.045  0.9610 -0.6729  1.4927
14946SOL    HW249650   3.464   7.591   1.092 -0.1871  0.5757 -1.6268
14947SOL     OW49651   3.114  10.024  11.478  0.3794  0.3759  0.1022
14947SOL    HW149652   3.192  10.043  11.425 -0.3315  1.2574 -0.6538
14947SOL    HW249653   3.064  10.105  11.478 -0.2680  0.0013  1.0764
14948SOL     OW49654   6.659  10.888   4.351  0.0518  0.2259  0.2654
14948SOL    HW149655   6.749  10.885   4.319  0.4529 -0.8865  1.4167
14948SOL    HW249656   6.613  10.823   4.298 -0.0179  0.6452 -0.1840
14949SOL     OW49657   8.696   7.499  11.720 -0.4864  0.1937 -0.7764
14949SOL    HW149658   8.776   7.477  11.767  0.0502  0.7359 -1.4219
14949SOL    HW249659   8.708   7.589  11.691 -1.3928  0.3334 -0.7632
14950SOL     OW49660   6.491   7.413   8.700 -0.3721  0.1074  0.2835
14950SOL    HW149661   6.441   7.460   8.766  0.9046  0.3587  1.1150
14950SOL    HW249662   6.576   7.457   8.698  0.1165 -0.8208 -0.4787
14951SOL     OW49663   4.195  12.443   9.148  0.0574  0.5174  0.2602
14951SOL    HW149664   4.255  12.510   9.116  0.9785  0.1020  1.0604
14951SOL    HW249665   4.243  12.400   9.220 -0.4481 -1.0721 -0.3048
14952SOL     OW49666   5.747  11.204   1.283  0.2396 -0.0223  0.0337
14952SOL    HW149667   5.751  11.297   1.261  1.0505  0.1094  0.6630
14952SOL    HW249668   5.816  11.164   1.230 -0.2969 -0.3210 -0.4512
14953SOL     OW49669   1.938   0.440   1.538 -0.0255 -0.2680  0.7055
14953SOL    HW149670   2.018   0.388   1.534  2.0286  2.3499  3.1961
14953SOL    HW249671   1.873   0.380   1.576  1.4573 -1.7664  1.0267
14954SOL     OW49672   9.180   2.561   6.237 -0.1983  0.2626  0.5462
14954SOL    HW149673   9.211   2.578   6.148  0.3795 -0.4133  0.6150
14954SOL    HW249674   9.259   2.542   6.287 -0.5133  0.7157  1.2277
14955SOL     OW49675   6.972   1.630   3.005 -0.0554 -0.2069 -0.4887
14955SOL    HW149676   7.013   1.631   3.091  0.9245 -0.6797 -0.9217
14955SOL    HW249677   6.913   1.555   3.007 -2.0221  1.2887  0.6074
14956SOL     OW49678   8.523   3.105  11.916  0.2349 -0.6279 -0.0892
14956SOL    HW149679   8.520   3.190  11.873  0.8271  0.5463  2.0253
14956SOL    HW249680   8.502   3.042  11.847  1.3415  1.0706 -2.0872
14957SOL     OW49681   3.216   0.310   6.445  0.4823 -0.5742 -0.0982
14957SOL    HW149682   3.220   0.405   6.432  0.0537 -0.1225  2.5383
14957SOL    HW249683   3.146   0.281   6.385  0.3708  0.8111 -0.6759
14958SOL     OW49684  12.276   3.103   4.829 -0.0790  0.3968 -0.2636
14958SOL    HW149685  12.316   3.180   4.788  0.4652  1.0773  1.4704
14958SOL    HW249686  12.207   3.139   4.885  0.3523 -0.3344  0.7597
14959SOL     OW49687   6.093   4.194   8.362 -0.2792 -0.4475 -0.3242
14959SOL    HW149688   6.111   4.141   8.440  0.6135  0.5515  0.1704
14959SOL    HW249689   6.006   4.231   8.379  0.9420  1.8676  1.4878
14960SOL     OW49690  10.957  11.856   8.598 -0.3243 -0.4460  0.3105
14960SOL    HW149691  10.976  11.904   8.517 -1.1774  0.7133  0.7773
14960SOL    HW249692  11.041  11.815   8.621  0.5169  1.0212  0.0296
14961SOL     OW49693  10.471   3.598   8.486 -0.3360 -0.2834  0.0466
14961SOL    HW149694  10.437   3.565   8.403 -2.6528  1.2405  0.3194
14961SOL    HW249695  10.523   3.675   8.462 -0.9316  0.1049 -0.0039
14962SOL     OW49696   9.778  11.116   7.423 -0.0182 -0.4301  0.0050
14962SOL    HW149697   9.699  11.161   7.452 -0.6339 -1.3807 -0.1350
14962SOL    HW249698   9.817  11.082   7.503  2.0604  2.7185  0.5165
14963SOL     OW49699   0.847   0.323   5.727  0.4374  0.3255 -0.0006
14963SOL    HW149700   0.864   0.229   5.731  1.2988  0.4740  0.0002
14963SOL    HW249701   0.906   0.361   5.792  0.5501  0.9212 -0.4472
14964SOL     OW49702  12.571   3.896   7.291  0.2262 -0.3523 -0.4671
14964SOL    HW149703  12.548   3.981   7.251 -1.2695 -1.1460 -1.3860
14964SOL    HW249704  12.557   3.909   7.384  0.6876  0.6114 -0.5134
14965SOL     OW49705  12.477   0.635   6.744 -0.1940 -0.4801 -0.1095
14965SOL    HW149706  12.564   0.669   6.761 -0.5665  1.3660 -1.6744
14965SOL    HW249707  12.448   0.601   6.829  0.9088  1.5422  1.1515
14966SOL     OW49708   0.572   3.974   1.119 -0.1349 -0.1633 -0.3730
14966SOL    HW149709   0.522   3.997   1.041 -1.9837 -0.6211  0.6122
14966SOL    HW249710   0.625   4.051   1.138 -1.5925  0.9366 -0.6206
14967SOL     OW49711   2.047   1.232   5.327 -0.2819 -0.8916 -0.3474
14967SOL    HW149712   1.966   1.229   5.277 -0.3411 -2.2902 -0.2111
14967SOL    HW249713   2.116   1.220   5.261 -0.4052 -3.8668 -0.0729
14968SOL     OW49714  10.948   4.038  10.745  0.0834  0.4131  0.2215
14968SOL    HW149715  10.918   4.020  10.834 -2.4954  2.5750 -0.0978
14968SOL    HW249716  10.893   3.983  10.689  1.1912 -0.3885 -0.1249
14969SOL     OW49717   1.277   4.178   1.943  0.2793 -0.4377  0.1306
14969SOL    HW149718   1.247   4.267   1.928 -1.6767 -1.0816 -0.1390
14969SOL    HW249719   1.348   4.186   2.007 -0.6535  1.2180  1.0140
14970SOL     OW49720   5.651   7.928   4.908  0.5404  0.0780 -0.3567
14970SOL    HW149721   5.639   7.878   4.827 -1.0451  0.1860 -0.2192
14970SOL    HW249722   5.637   7.864   4.978  0.1028  0.3692 -0.1755
14971SOL     OW49723   0.511  12.015   4.274 -0.0905 -0.3635 -0.4182
14971SOL    HW149724   0.435  12.046   4.225 -0.5154 -1.6974 -0.6462
14971SOL    HW249725   0.476  11.947   4.331  0.6510  0.2061  0.7397
14972SOL     OW49726   3.579   8.128   1.360 -0.0542 -0.1879  1.0950
14972SOL    HW149727   3.516   8.059   1.381  0.3250 -0.6568  0.7121
14972SOL    HW249728   3.652   8.113   1.419  1.2739 -1.8647 -0.8138
14973SOL     OW49729   0.278   3.328  10.821 -0.0922 -0.0035  0.1445
14973SOL    HW149730   0.190   3.329  10.859  0.0226  0.0429  0.4108
14973SOL    HW249731   0.306   3.236  10.827 -0.6483 -0.2830 -1.1695
14974SOL     OW49732   5.224   2.662   6.828 -0.0252 -0.4255  0.3493
14974SOL    HW149733   5.238   2.585   6.773 -1.1947 -1.1747  1.0421
14974SOL    HW249734   5.303   2.668   6.881  0.6015 -0.4067 -0.5670
14975SOL     OW49735   8.147   1.980  10.904 -0.6079  0.6114 -1.0665
14975SOL    HW149736   8.086   2.047  10.872 -1.1200  0.7140  0.0925
14975SOL    HW249737   8.091   1.912  10.941 -0.0245  0.7287  0.0570
14976SOL     OW49738   8.453   1.001   6.236  0.0087 -0.7317  0.4816
14976SOL    HW149739   8.404   1.069   6.191  0.0150  0.1371  1.7344
14976SOL    HW249740   8.522   1.049   6.284  0.4310 -1.6765  0.8469
14977SOL     OW49741   0.187  11.193   3.848 -0.5026 -0.3074 -0.1584
14977SOL    HW149742   0.206  11.142   3.770  1.9165  0.6390 -0.2887
14977SOL    HW249743   0.152  11.275   3.816  0.5787  0.1178 -0.3050
14978SOL     OW49744   0.975   2.333  11.310 -0.5921 -0.1349  0.1956
14978SOL    HW149745   1.035   2.401  11.281 -0.4927 -0.1549  0.3546
14978SOL    HW249746   0.964   2.276  11.233 -0.1657 -0.3033  0.2570
14979SOL     OW49747   1.119   1.252   4.886  0.2094  0.9088 -0.3460
14979SOL    HW149748   1.177   1.285   4.954 -0.2464  1.6097 -0.2821
14979SOL    HW249749   1.048   1.209   4.934  0.6305  0.1144 -0.4213
14980SOL     OW49750   0.138   8.616   2.922 -0.1918 -0.3833  0.3128
14980SOL    HW149751   0.180   8.583   3.002 -0.9738 -0.7145  0.6026
14980SOL    HW249752   0.153   8.547   2.858  0.7239  0.0293  0.0653
14981SOL     OW49753   3.678   4.007  12.066  0.1549 -0.4586  0.2009
14981SOL    HW149754   3.752   3.950  12.047 -0.4070 -1.0617 -0.2277
14981SOL    HW249755   3.601   3.953  12.048 -0.4264 -0.4348  2.2835
14982SOL     OW49756  12.546   9.754  11.068 -0.4833 -0.1455 -0.1126
14982SOL    HW149757  12.567   9.843  11.040 -0.0356  0.0033  0.6658
14982SOL    HW249758  12.630   9.709  11.071 -0.6757 -0.5244 -0.2218
14983SOL     OW49759   5.833  10.583   1.978 -0.6753 -0.4305 -0.1042
14983SOL    HW149760   5.923  10.573   1.948  0.5809  1.5529  2.5688
14983SOL    HW249761   5.813  10.502   2.024  0.9339  0.1974  1.8488
14984SOL     OW49762   1.125  10.043   2.563  0.4003 -0.0289 -0.2428
14984SOL    HW149763   1.080  10.017   2.643 -1.4142  1.5581 -0.6659
14984SOL    HW249764   1.065  10.018   2.492  0.6432  1.1279 -0.8925
14985SOL     OW49765   5.944   8.605   9.894 -0.1817 -0.3876 -0.1534
14985SOL    HW149766   6.031   8.618   9.931 -0.5178  0.2987  0.4343
14985SOL    HW249767   5.945   8.516   9.859  1.0405 -0.0862 -0.9445
14986SOL     OW49768   9.514   7.207   5.202  0.1547  0.3255 -0.3768
14986SOL    HW149769   9.566   7.156   5.264  2.7638  1.9071 -1.0972
14986SOL    HW249770   9.500   7.291   5.246 -0.0918  0.6185 -0.9996
14987SOL     OW49771   0.096   6.149   7.109  0.2098 -0.3357 -0.3038
14987SOL    HW149772   0.072   6.232   7.151  1.8424 -0.1432  0.3066
14987SOL    HW249773   0.178   6.123   7.151  0.9088 -1.1249 -2.0427
14988SOL     OW49774  11.521   5.009   6.037  0.0677 -0.8246  0.4387
14988SOL    HW149775  11.467   5.089   6.036  2.0746  0.6131 -0.9593
14988SOL    HW249776  11.461   4.940   6.009 -0.9378  0.8425 -1.8715
14989SOL     OW49777   6.674   7.841  12.465 -0.2866 -0.1637  0.5599
14989SOL    HW149778   6.601   7.892  12.431  1.2290  1.5217 -0.2971
14989SOL    HW249779   6.640   7.751  12.472 -1.7436  0.1125 -1.9670
14990SOL     OW49780   9.677   7.072   4.673 -0.2991 -0.1324 -0.2108
14990SOL    HW149781   9.618   7.147   4.666 -0.9824 -0.7863 -2.5711
14990SOL    HW249782   9.620   6.998   4.694 -0.3983 -0.7515 -2.4076
14991SOL     OW49783   0.810  11.333  10.447 -0.0611 -0.0487 -0.3673
14991SOL    HW149784   0.883  11.355  10.389  0.1477 -1.7236 -0.8032
14991SOL    HW249785   0.737  11.317  10.388 -1.3227  3.1998  0.1336
14992SOL     OW49786   8.794  10.786  10.365 -0.0833 -0.1772 -0.3384
14992SOL    HW149787   8.866  10.748  10.314  0.5127 -0.1355  0.4638
14992SOL    HW249788   8.765  10.861  10.313  0.7779  0.1018 -0.4258
14993SOL     OW49789   0.764   6.591  11.734  0.8557 -0.8497 -0.6163
14993SOL    HW149790   0.724   6.559  11.653 -2.1547  0.9049 -0.0032
14993SOL    HW249791   0.736   6.683  11.739 -0.3278 -1.2373  3.0509
14994SOL     OW49792   0.327   5.958   4.185 -0.1336 -0.1674 -0.2230
14994SOL    HW149793   0.373   6.042   4.191 -1.3643  0.4501  1.7098
14994SOL    HW249794   0.325   5.926   4.275 -0.5233 -1.8248 -0.7968
14995SOL     OW49795   3.280   6.940   2.804 -0.2545  0.2508  0.2300
14995SOL    HW149796   3.277   6.916   2.712 -2.4149  0.7329  0.1265
14995SOL    HW249797   3.267   7.035   2.804 -2.1269  0.0270  1.0841
14996SOL     OW49798   0.818   3.576   2.431  0.4924 -0.1753  0.2407
14996SOL    HW149799   0.788   3.504   2.486 -0.9510 -0.3345 -0.7277
14996SOL    HW249800   0.840   3.535   2.347 -0.6754  0.5228 -0.4331
14997SOL     OW49801   3.694  12.208  10.033  0.5157 -0.3779  0.1700
14997SOL    HW149802   3.622  12.210  10.096  1.2305 -0.6822  1.0191
14997SOL    HW249803   3.687  12.122   9.991  0.1244 -0.2299 -0.0774
14998SOL     OW49804   2.284   8.493  10.903 -0.1295 -0.1746 -0.2534
14998SOL    HW149805   2.277   8.568  10.844  0.0368  0.2244  0.2274
14998SOL    HW249806   2.351   8.438  10.864  1.8706  1.3355  0.8737
14999SOL     OW49807  10.800   1.799   9.603 -0.2724 -0.3957 -0.3472
14999SOL    HW149808  10.708   1.787   9.580  0.0373 -1.7713 -0.9681
14999SOL    HW249809  10.804   1.777   9.696 -0.2694 -2.3592 -0.7589
15000SOL     OW49810   1.675   7.937  11.072 -0.0249  0.4687 -0.6524
15000SOL    HW149811   1.651   7.999  11.003 -0.7584 -1.1391 -1.9448
15000SOL    HW249812   1.769   7.924  11.062 -0.3295 -0.8649 -2.4448
15001SOL     OW49813  10.168   8.545   2.510  0.2421  0.2196  0.1128
15001SOL    HW149814  10.101   8.491   2.551 -0.2815  0.6440 -0.1642
15001SOL    HW249815  10.190   8.611   2.575  0.7647 -0.2205  0.3908
15002SOL     OW49816   5.191   1.199   5.253 -0.2262  0.1263  0.4442
15002SOL    HW149817   5.215   1.208   5.161  1.9953 -0.3935  0.9060
15002SOL    HW249818   5.186   1.104   5.267  1.7348  0.0961  1.3143
15003SOL     OW49819   7.159  11.933   0.905  0.2487  0.3111  0.0921
15003SOL    HW149820   7.153  11.857   0.963  0.7648  0.7172  0.7041
15003SOL    HW249821   7.252  11.939   0.883  0.3274  1.1343  0.5816
15004SOL     OW49822   8.206  10.905   6.123 -0.5372 -0.3379 -0.1446
15004SOL    HW149823   8.137  10.839   6.129 -0.8255 -0.1428 -1.0873
15004SOL    HW249824   8.259  10.892   6.202 -0.4370 -1.8654 -0.4330
15005SOL     OW49825   0.311   8.574  11.809 -0.4598  0.3060  0.1004
15005SOL    HW149826   0.343   8.491  11.775 -1.7316 -0.0982 -0.1600
15005SOL    HW249827   0.329   8.570  11.903 -0.8350 -0.4248  0.1492
15006SOL     OW49828   7.630   4.522   4.616 -0.1260  0.3751 -0.1457
15006SOL    HW149829   7.669   4.577   4.548 -2.9338  0.5347 -1.7979
15006SOL    HW249830   7.606   4.583   4.685  0.8211  0.5333  0.0541
15007SOL     OW49831   5.418   8.886   8.455 -0.0454  0.5616 -0.1213
15007SOL    HW149832   5.398   8.861   8.545 -0.0631  0.6233 -0.1083
15007SOL    HW249833   5.424   8.803   8.408  0.9423  0.4627  0.1435
15008SOL     OW49834   2.161   0.537  12.583  0.1887 -0.1669  0.2592
15008SOL    HW149835   2.236   0.508  12.531  1.5034  0.6373  1.5994
15008SOL    HW249836   2.134   0.619  12.542  0.4919 -0.1121  0.1620
15009SOL     OW49837   9.573   8.917   1.083 -0.3437  0.4410 -0.2361
15009SOL    HW149838   9.493   8.879   1.118 -0.4522  1.2069  0.3562
15009SOL    HW249839   9.602   8.979   1.150  1.4188 -0.7171  0.1327
15010SOL     OW49840   5.585  12.010  11.224 -0.1514 -0.1915 -0.2913
15010SOL    HW149841   5.553  11.961  11.148 -1.1848 -2.4909  1.4905
15010SOL    HW249842   5.649  11.952  11.264 -1.5752 -0.2750  2.0339
15011SOL     OW49843   9.689   1.731  12.093  0.1894 -0.4776  0.2590
15011SOL    HW149844   9.705   1.654  12.038 -1.6071 -2.1663  1.9312
15011SOL    HW249845   9.615   1.776  12.051 -1.7244 -2.2125  1.5606
15012SOL     OW49846   4.137   8.575  12.511 -0.0362 -0.3896 -0.1980
15012SOL    HW149847   4.087   8.513  12.565  0.8055  0.1567  1.2834
15012SOL    HW249848   4.215   8.527  12.485  0.9452  0.1673  1.5079
15013SOL     OW49849   8.066   6.652   3.831 -0.0985 -0.6715 -0.5103
15013SOL    HW149850   8.085   6.560   3.851 -1.0909 -0.6164  0.8636
15013SOL    HW249851   8.018   6.683   3.908 -0.1350  0.8904 -1.1364
15014SOL     OW49852   1.589   5.786   1.546 -0.4040 -0.0655  0.1585
15014SOL    HW149853   1.682   5.800   1.532 -0.2095 -0.9634  0.4840
15014SOL    HW249854   1.546   5.842   1.482  0.3372  1.0416  0.5991
15015SOL     OW49855   9.391   7.042   5.934 -0.4688 -0.0927 -0.7173
15015SOL    HW149856   9.388   6.974   6.002  2.1855  1.6501  1.3667
15015SOL    HW249857   9.347   7.117   5.975  1.3131  1.0424 -0.8082
15016SOL     OW49858   9.182   7.521   7.145  0.3855  0.0441  0.3482
15016SOL    HW149859   9.092   7.493   7.129  0.4776  0.7136 -1.7284
15016SOL    HW249860   9.236   7.456   7.100  1.0244 -0.7572  2.1763
15017SOL     OW49861   5.561   7.190   7.823  0.2770 -0.4156  0.1452
15017SOL    HW149862   5.507   7.210   7.899  1.1762 -1.4326  1.0913
15017SOL    HW249863   5.516   7.117   7.780 -0.4392  0.4153 -0.5419
15018SOL     OW49864   4.201   6.160   0.713  0.0138  0.6134 -0.0514
15018SOL    HW149865   4.291   6.173   0.742  1.0137 -1.0595 -2.0931
15018SOL    HW249866   4.168   6.087   0.766  1.3787 -1.5492 -1.9496
15019SOL     OW49867   9.273   2.517   9.394  0.4896 -0.2210 -0.4255
15019SOL    HW149868   9.294   2.606   9.424  1.1655 -0.4139 -0.3035
15019SOL    HW249869   9.332   2.503   9.320 -0.6045 -0.0495 -1.3409
15020SOL     OW49870   5.406   3.714  12.363  0.3262 -0.1020 -0.5653
15020SOL    HW149871   5.366   3.776  12.424  1.0426 -0.7914  0.6674
15020SOL    HW249872   5.344   3.641  12.359  1.2819 -1.0912  1.2060
15021SOL     OW49873   1.155   3.726   0.639 -0.0830 -0.5023  0.7715
15021SOL    HW149874   1.213   3.677   0.580 -2.2866 -2.8794  0.4140
15021SOL    HW249875   1.134   3.665   0.709 -3.2599 -0.3473  0.1197
15022SOL     OW49876   9.440   4.664  10.858 -0.4535  0.1876 -0.2054
15022SOL    HW149877   9.513   4.612  10.890 -0.6606  1.0891  1.9768
15022SOL    HW249878   9.472   4.754  10.860 -1.3511  0.5180  0.0310
15023SOL     OW49879   7.117   8.863   6.727  0.4449 -0.2936  1.0564
15023SOL    HW149880   7.035   8.901   6.694  0.7652 -0.5329 -0.0687
15023SOL    HW249881   7.156   8.933   6.779  0.3413  0.4480  0.1794
15024SOL     OW49882   9.698  10.034   9.233 -0.6820  0.0994 -0.1388
15024SOL    HW149883   9.627  10.084   9.274 -0.5640  1.0414 -1.0463
15024SOL    HW249884   9.776  10.087   9.246 -0.2124 -0.6997  0.4144
15025SOL     OW49885  12.560   9.880   6.431 -0.1982 -0.2400  0.0812
15025SOL    HW149886  12.497   9.920   6.371  0.5537  0.4615 -0.2618
15025SOL    HW249887  12.615   9.825   6.375  0.4980  0.4067  0.1205
15026SOL     OW49888   4.843  11.358  11.347 -0.3164 -0.6553  0.5151
15026SOL    HW149889   4.764  11.306  11.365 -1.1647  0.4547  0.1426
15026SOL    HW249890   4.856  11.409  11.426 -1.9092  1.5428 -0.5524
15027SOL     OW49891   7.157   7.880  10.485 -0.0669  0.0425  0.3067
15027SOL    HW149892   7.237   7.932  10.488 -0.5889  0.8904  2.7087
15027SOL    HW249893   7.162   7.824  10.563 -1.0867 -1.0289 -0.3671
15028SOL     OW49894   0.274   2.010   4.601  0.1069 -0.3871  0.6975
15028SOL    HW149895   0.281   1.945   4.671 -0.3346 -0.3862  0.7448
15028SOL    HW249896   0.218   1.968   4.535 -0.2420 -0.0291  0.7618
15029SOL     OW49897   0.955   4.317  11.793  0.2109 -0.0150 -0.0212
15029SOL    HW149898   0.877   4.262  11.804  0.9005 -1.5349 -2.0333
15029SOL    HW249899   1.028   4.255  11.795  1.2479  1.1810  0.2136
15030SOL     OW49900   0.074   6.402   0.450 -0.3160 -0.4098 -0.2850
15030SOL    HW149901   0.054   6.465   0.520  0.3532 -0.9574  0.4126
15030SOL    HW249902   0.104   6.456   0.377 -1.5015  0.2100 -0.3508
15031SOL     OW49903   3.628   8.697   3.375  0.2449 -0.3781  0.8277
15031SOL    HW149904   3.712   8.740   3.357 -0.3538  1.3789  2.0400
15031SOL    HW249905   3.610   8.647   3.295  1.6240  0.5514 -0.1227
15032SOL     OW49906  11.666   3.423  11.519  0.0264 -0.1395  0.0121
15032SOL    HW149907  11.578   3.393  11.543  0.6046  0.1696  2.8256
15032SOL    HW249908  11.708   3.444  11.602  3.1457 -1.2231 -1.1446
15033SOL     OW49909   3.477   8.266  12.141  0.4638 -0.2578  0.2158
15033SOL    HW149910   3.553   8.324  12.150 -0.7154  1.5878 -1.1009
15033SOL    HW249911   3.448   8.250  12.231  1.9863 -0.4711  0.7013
15034SOL     OW49912  11.395   4.625   3.633 -0.0252  0.2186  0.2464
15034SOL    HW149913  11.408   4.631   3.538 -0.2053  0.8508  0.2536
15034SOL    HW249914  11.335   4.697   3.653  0.1455  0.1954  0.8642
15035SOL     OW49915  11.508   1.530  11.448  0.4610 -0.3335 -0.3820
15035SOL    HW149916  11.497   1.593  11.377 -0.5076  0.7443  0.6900
15035SOL    HW249917  11.441   1.464  11.431  0.1672 -0.0289 -0.4247
15036SOL     OW49918  12.611   9.300   7.735  0.1839  0.0863  0.1355
15036SOL    HW149919  12.552   9.374   7.750  1.9570  1.5989 -0.0245
15036SOL    HW249920  12.646   9.280   7.822  0.0510 -0.2754  0.1069
15037SOL     OW49921   9.471   2.229   3.547 -0.7064  0.0398  0.2247
15037SOL    HW149922   9.416   2.153   3.527 -0.3149 -0.4990  1.1038
15037SOL    HW249923   9.497   2.215   3.638 -0.4247  1.1121  0.3175
15038SOL     OW49924   8.093  11.540   7.421 -0.1358  0.0349 -0.5096
15038SOL    HW149925   8.072  11.489   7.500 -0.1198 -0.0868 -0.5848
15038SOL    HW249926   8.048  11.623   7.434  0.2717  0.2022 -0.1391
15039SOL     OW49927  11.558  10.873  11.709 -0.3039  0.4188 -0.1916
15039SOL    HW149928  11.547  10.810  11.637  1.4776  1.9338 -1.9227
15039SOL    HW249929  11.614  10.941  11.672  0.7132  1.2772  2.7049
15040SOL     OW49930   7.888   2.080   4.732  0.4398  0.0279  0.5713
15040SOL    HW149931   7.906   1.995   4.772 -1.0747 -0.4872  0.2331
15040SOL    HW249932   7.971   2.107   4.693  1.3712 -0.5071  2.1149
15041SOL     OW49933   2.595   9.547   0.591 -0.2815  0.2693  0.2278
15041SOL    HW149934   2.624   9.538   0.500  1.2832  0.6409  0.6600
15041SOL    HW249935   2.506   9.580   0.584 -0.6818 -0.9788 -1.1804
15042SOL     OW49936   4.042   1.740   5.268  0.2589 -0.2089  0.2856
15042SOL    HW149937   3.998   1.799   5.328  1.9299 -0.5303  1.9275
15042SOL    HW249938   3.987   1.662   5.265  0.1745 -0.2139  1.5010
15043SOL     OW49939   8.137  12.395   1.638 -0.1672  0.9227  0.0121
15043SOL    HW149940   8.180  12.446   1.706 -0.4389  0.5020  0.5117
15043SOL    HW249941   8.071  12.453   1.602  1.5202  1.9849 -1.5549
15044SOL     OW49942   7.521  12.188   6.274  0.9972  0.1062 -0.8110
15044SOL    HW149943   7.600  12.168   6.224  0.9028 -1.8712 -0.2493
15044SOL    HW249944   7.453  12.133   6.234  0.5413 -0.2613  0.4146
15045SOL     OW49945   2.702   3.779   4.548 -0.1458 -0.3274 -0.1129
15045SOL    HW149946   2.670   3.842   4.483 -0.2215 -0.0561  0.1894
15045SOL    HW249947   2.790   3.758   4.519 -0.5430 -0.9924 -0.8884
15046SOL     OW49948   3.644   9.399   5.455 -0.5095  0.3334 -0.4875
15046SOL    HW149949   3.652   9.422   5.547 -0.6731 -0.9854 -0.1262
15046SOL    HW249950   3.675   9.476   5.408  1.1603  0.4367  0.6887
15047SOL     OW49951   3.747   3.301   5.304 -0.1465 -0.1186 -0.0697
15047SOL    HW149952   3.738   3.354   5.225  1.1758 -0.9503 -0.8165
15047SOL    HW249953   3.728   3.361   5.376  0.0247  1.0183 -0.9542
15048SOL     OW49954   6.010  11.959   7.030  0.0255  0.1165  0.0878
15048SOL    HW149955   6.106  11.951   7.037  0.1219  0.1766 -1.1064
15048SOL    HW249956   5.978  11.914   7.108  1.0237  0.0311  0.4726
15049SOL     OW49957   9.764  12.020   8.527 -0.1165 -0.4245 -0.8849
15049SOL    HW149958   9.809  12.073   8.461 -0.9471  0.3280 -0.8629
15049SOL    HW249959   9.777  12.068   8.609  1.0278 -1.4259 -0.4439
15050SOL     OW49960  12.340  11.306   6.110 -0.0418  0.5884 -0.9177
15050SOL    HW149961  12.254  11.301   6.068  0.0238 -1.6088 -0.9098
15050SOL    HW249962  12.401  11.273   6.044  0.4362 -0.2357 -0.0971
15051SOL     OW49963   2.435   0.059  10.957  0.0068  1.1479  1.0219
15051SOL    HW149964   2.388  -0.018  10.989 -2.4654  0.8136 -2.7834
15051SOL    HW249965   2.395   0.133  11.003 -0.2544  0.4422  1.9546
15052SOL     OW49966  11.346  12.600   8.308 -0.5669  0.1569 -0.4529
15052SOL    HW149967  11.346  12.616   8.214  1.6898  4.0023  0.0140
15052SOL    HW249968  11.425  12.643   8.340 -0.4435 -2.2765  3.1079
15053SOL     OW49969   8.189   8.338   6.612  0.2466 -0.3677  0.0921
15053SOL    HW149970   8.237   8.324   6.694  1.1879 -0.6441 -0.4918
15053SOL    HW249971   8.170   8.432   6.611 -1.2919 -0.6215  1.4310
15054SOL     OW49972   4.532   1.022  10.326 -0.3814 -0.0678 -1.0169
15054SOL    HW149973   4.499   1.087  10.263 -1.2238 -0.6819 -1.2323
15054SOL    HW249974   4.609   0.985  10.283  0.1064  0.7811 -0.8924
15055SOL     OW49975   2.802   9.129   6.700 -0.0358  0.3505 -0.3708
15055SOL    HW149976   2.870   9.195   6.713  0.7059 -0.1018 -1.7329
15055SOL    HW249977   2.796   9.083   6.784 -0.1325  1.7382  0.3996
15056SOL     OW49978   1.416   0.963  10.241  0.5137 -0.1552  0.5408
15056SOL    HW149979   1.433   0.941  10.149  0.0123  0.1165  0.3747
15056SOL    HW249980   1.463   0.897  10.291 -0.6606 -1.3757  0.0692
15057SOL     OW49981   8.321   6.755  10.261 -0.1356 -0.1366  0.7052
15057SOL    HW149982   8.234   6.734  10.295 -0.2007  0.0571  0.6600
15057SOL    HW249983   8.307   6.766  10.167  0.3015 -2.1611  0.3459
15058SOL     OW49984   7.449   2.146   1.715  0.0407 -0.2656 -0.5544
15058SOL    HW149985   7.425   2.126   1.806  1.4361 -0.7386 -0.2765
15058SOL    HW249986   7.365   2.166   1.673 -0.6414 -0.0937  0.8136
15059SOL     OW49987   0.486  11.404   3.366  0.0201 -0.2355 -0.2270
15059SOL    HW149988   0.437  11.424   3.286  0.1556 -0.2722 -0.3198
15059SOL    HW249989   0.564  11.459   3.360  0.3215 -0.6852 -0.4099
15060SOL     OW49990  10.013  10.633   5.030 -0.0579 -0.0594 -0.5729
15060SOL    HW149991   9.972  10.715   5.059  0.1137  0.0298 -0.5838
15060SOL    HW249992   9.939  10.573   5.018 -0.1695  0.0440 -0.4057
15061SOL     OW49993   7.120  11.060   7.408 -0.0026 -0.6281  0.1319
15061SOL    HW149994   7.161  11.122   7.468 -0.3908 -2.8160  2.8299
15061SOL    HW249995   7.174  10.981   7.413 -1.0469 -1.4752 -1.0875
15062SOL     OW49996  11.789   8.812   8.563 -0.5241 -0.5426 -0.3620
15062SOL    HW149997  11.853   8.791   8.630  0.6970 -0.0597 -1.3295
15062SOL    HW249998  11.718   8.750   8.577  0.0015 -0.8848  0.9384
15063SOL     OW49999   1.850  11.529   5.570 -0.2902 -0.7002 -0.1705
15063SOL    HW150000   1.776  11.556   5.515 -0.2581 -0.1452  0.0515
15063SOL    HW250001   1.856  11.597   5.637  0.8636 -0.3353 -0.6068
15064SOL     OW50002   6.798   3.050   0.435 -0.0887  0.5916 -0.1722
15064SOL    HW150003   6.786   3.064   0.341  0.2120  0.3870 -0.2405
15064SOL    HW250004   6.769   3.133   0.475 -2.7792 -0.2091 -0.2445
15065SOL     OW50005   9.977   4.731   3.598 -0.2618 -0.2882 -0.2531
15065SOL    HW150006  10.071   4.741   3.588 -0.2867  0.9871  0.5397
15065SOL    HW250007   9.943   4.821   3.597 -1.6026 -0.7657 -1.6273
15066SOL     OW50008   8.212   5.437   0.386  0.6248  0.2162 -0.2103
15066SOL    HW150009   8.191   5.463   0.475 -0.2937 -2.1132  0.3442
15066SOL    HW250010   8.131   5.397   0.353  1.7308 -1.4856 -1.0505
15067SOL     OW50011  10.301   6.549   1.031 -0.7662  0.0867 -0.1580
15067SOL    HW150012  10.298   6.460   0.994  0.9302  0.2570 -0.7680
15067SOL    HW250013  10.345   6.538   1.115 -0.9068  0.3098 -0.0546
15068SOL     OW50014   5.742   1.832   5.920 -0.0414  0.0565 -0.1325
15068SOL    HW150015   5.755   1.904   5.860  0.6665 -0.5419 -0.7161
15068SOL    HW250016   5.670   1.860   5.977  0.3246  1.2663 -0.2499
15069SOL     OW50017  11.204   8.993   1.585 -0.2435  0.2287  0.4864
15069SOL    HW150018  11.139   9.006   1.654 -1.3739 -1.9783 -0.0859
15069SOL    HW250019  11.189   8.904   1.553  3.6117 -0.7516  0.8663
15070SOL     OW50020  11.917   0.776   8.012  0.1298 -0.3585 -0.0997
15070SOL    HW150021  11.879   0.689   8.018 -1.2851  0.2999  2.5728
15070SOL    HW250022  12.008   0.765   8.039 -0.1167 -0.9993  0.5083
15071SOL     OW50023   3.256   9.923   5.396  0.3953  0.0852 -0.1116
15071SOL    HW150024   3.262   9.842   5.445  0.2226  0.1721  0.0548
15071SOL    HW250025   3.278   9.992   5.459  1.5345  0.1014 -0.5028
15072SOL     OW50026   6.065  11.937   1.539  0.6176  0.1908  0.2192
15072SOL    HW150027   6.081  11.846   1.563 -2.2942 -0.2905  0.7590
15072SOL    HW250028   5.977  11.936   1.501  0.0854  2.9171  1.1528
15073SOL     OW50029  11.444   6.200  10.326  0.5299  0.3041 -0.5645
15073SOL    HW150030  11.506   6.201  10.399 -1.0147  2.2509  0.8400
15073SOL    HW250031  11.467   6.276  10.273 -1.2351  1.7058  0.5794
15074SOL     OW50032  12.243   1.689   2.255 -0.2667  0.2995 -0.1326
15074SOL    HW150033  12.310   1.733   2.202 -0.6411  0.1053 -0.7720
15074SOL    HW250034  12.249   1.732   2.340  1.6497 -0.7023  0.2650
15075SOL     OW50035   9.278  10.324  10.006 -0.0452 -0.6145 -0.1015
15075SOL    HW150036   9.339  10.397  10.018 -0.4752  0.0367 -1.6744
15075SOL    HW250037   9.209  10.340  10.070 -1.8994  2.3212 -2.5500
15076SOL     OW50038   9.849   2.949   7.032 -0.1556 -0.1024 -0.8444
15076SOL    HW150039   9.890   2.946   7.118 -0.3409  0.6574 -0.7218
15076SOL    HW250040   9.817   2.861   7.017  1.5914 -0.7521 -0.9814
15077SOL     OW50041   2.246   1.466   7.941  0.4385 -0.6704 -0.2811
15077SOL    HW150042   2.260   1.550   7.896  2.1632 -0.0644  1.2469
15077SOL    HW250043   2.156   1.443   7.922 -0.2033  1.7307 -0.4695
15078SOL     OW50044   3.214   0.023  12.461  0.3924 -0.4038  0.1523
15078SOL    HW150045   3.119   0.020  12.445  0.6574 -0.0946 -1.7243
15078SOL    HW250046   3.225   0.096  12.522 -0.4055  1.1896 -1.5005
15079SOL     OW50047  11.572   4.516   7.533  0.0965 -0.3077  0.2175
15079SOL    HW150048  11.650   4.510   7.588 -0.5872 -0.6611  1.1708
15079SOL    HW250049  11.581   4.443   7.471  1.0610  0.3277 -0.4354
15080SOL     OW50050   0.891   9.100   1.586 -0.2327  0.9927 -0.3431
15080SOL    HW150051   0.960   9.113   1.651 -0.1216  2.2105 -0.6776
15080SOL    HW250052   0.932   9.124   1.502 -0.4206 -0.4024 -0.8632
15081SOL     OW50053   7.787   0.184   6.316 -0.0496 -0.0835  0.0945
15081SOL    HW150054   7.838   0.264   6.327 -0.6347  0.8229 -2.9266
15081SOL    HW250055   7.707   0.212   6.272 -0.7155 -2.1975 -0.1465
15082SOL     OW50056   0.658   2.578   1.843 -0.0574 -0.1478  0.1164
15082SOL    HW150057   0.584   2.587   1.903 -0.5034  1.1724 -0.6045
15082SOL    HW250058   0.647   2.491   1.805 -0.6260 -0.3949  0.8255
15083SOL     OW50059   2.416  11.246   9.830 -0.0805 -0.3723 -0.1497
15083SOL    HW150060   2.446  11.299   9.904 -1.0675  0.0685 -0.0526
15083SOL    HW250061   2.473  11.169   9.830 -0.1749 -0.4545  1.1697
15084SOL     OW50062   9.790   7.837   1.403  0.0274 -0.1283 -0.1330
15084SOL    HW150063   9.796   7.869   1.313 -1.3675 -0.6149 -0.4258
15084SOL    HW250064   9.696   7.838   1.423  0.1696 -1.4519  0.7700
15085SOL     OW50065   9.764  10.744   4.889 -0.0145  0.6915  0.5481
15085SOL    HW150066   9.758  10.732   4.795  0.8462  0.0018  0.5757
15085SOL    HW250067   9.675  10.766   4.916 -0.7152 -1.1617 -0.1354
15086SOL     OW50068   6.152   4.519   7.553 -0.2873 -0.2446 -0.0972
15086SOL    HW150069   6.223   4.550   7.609 -1.5172  0.0870  1.3502
15086SOL    HW250070   6.158   4.574   7.475 -0.9074  2.0795  1.3836
15087SOL     OW50071  11.257  11.624  11.906 -0.2543  0.2408 -0.2856
15087SOL    HW150072  11.265  11.532  11.932 -1.0430  0.6052  1.3731
15087SOL    HW250073  11.165  11.634  11.881 -0.1950  0.5931 -0.3690
15088SOL     OW50074   0.118   6.975  10.874 -0.1693 -0.3203 -0.1068
15088SOL    HW150075   0.096   6.886  10.902  1.0481 -1.0959 -1.4306
15088SOL    HW250076   0.141   6.965  10.781 -0.4126  1.4555 -0.3825
15089SOL     OW50077   6.280   2.366   5.288  0.3940  0.3195  0.0226
15089SOL    HW150078   6.348   2.387   5.224  1.7158 -1.8452  0.6437
15089SOL    HW250079   6.328   2.334   5.364 -1.3024 -0.6499  0.7201
15090SOL     OW50080  11.227   6.624   3.125 -0.1271 -0.5778  0.2106
15090SOL    HW150081  11.291   6.589   3.187  0.5965 -0.8188 -0.6506
15090SOL    HW250082  11.184   6.695   3.172 -0.2865 -1.3898  1.3305
15091SOL     OW50083  12.610   2.803  11.371  0.6897 -0.0702 -0.3942
15091SOL    HW150084  12.587   2.811  11.278  1.5585  0.5443 -0.5732
15091SOL    HW250085  12.699   2.839  11.376  0.8099 -0.4905  0.6059
15092SOL     OW50086  10.236   7.653   2.066 -0.7167  0.6035 -0.1400
15092SOL    HW150087  10.324   7.652   2.027 -0.0481 -0.1340  1.2974
15092SOL    HW250088  10.195   7.732   2.031  0.5324  0.9825 -0.8076
15093SOL     OW50089   7.794   5.628   6.473 -0.2979 -0.1230  0.1620
15093SOL    HW150090   7.859   5.677   6.423 -1.4147  1.0647 -0.1824
15093SOL    HW250091   7.793   5.541   6.432  1.3261 -0.3196  0.4418
15094SOL     OW50092   9.137   4.344   7.619  0.2954  0.3724  0.0579
15094SOL    HW150093   9.087   4.426   7.626 -2.3535 -1.0491 -0.7794
15094SOL    HW250094   9.157   4.321   7.709  0.6375  1.6547  0.3386
15095SOL     OW50095  11.185   2.628  11.127  0.0728 -0.4370 -0.2394
15095SOL    HW150096  11.167   2.587  11.042  0.3039 -0.3508 -0.3306
15095SOL    HW250097  11.099   2.638  11.167 -0.0914  0.0380 -0.7016
15096SOL     OW50098   6.339   1.368  11.565  0.2841  0.0154 -0.1784
15096SOL    HW150099   6.266   1.347  11.623 -1.3420  3.0629 -0.9000
15096SOL    HW250100   6.396   1.291  11.569 -1.8480 -1.6031  2.1188
15097SOL     OW50101  11.744   2.254   7.905 -0.2686  0.4910 -0.3061
15097SOL    HW150102  11.773   2.343   7.927 -0.1372  0.3285  0.1824
15097SOL    HW250103  11.719   2.215   7.989  0.2366 -0.1353 -0.4380
15098SOL     OW50104   3.923   9.098  11.021 -0.6420  0.0496 -0.5113
15098SOL    HW150105   3.865   9.174  11.017  0.0174  0.5188 -1.6485
15098SOL    HW250106   4.010   9.133  11.002  0.1177 -0.5782  1.5216
15099SOL     OW50107   0.159   8.429  10.009  0.0966 -0.3005  0.2412
15099SOL    HW150108   0.157   8.523   9.991 -0.0986 -0.5113 -0.8937
15099SOL    HW250109   0.147   8.423  10.104  1.3940  0.8608  0.5033
15100SOL     OW50110  11.505   0.706   4.158 -0.4177 -0.3137 -0.1309
15100SOL    HW150111  11.600   0.718   4.164 -0.5274  0.1274  1.0952
15100SOL    HW250112  11.485   0.715   4.065  0.6456  0.4227 -0.3054
15101SOL     OW50113   2.333   1.391   2.813 -0.0158 -0.2255  0.6138
15101SOL    HW150114   2.322   1.331   2.739 -0.4821  0.4601  0.1177
15101SOL    HW250115   2.253   1.444   2.813  0.8129  1.0601  0.4244
15102SOL     OW50116   1.609   7.444   8.740  0.1737 -0.3660 -0.1539
15102SOL    HW150117   1.683   7.393   8.707 -0.9066 -1.8157 -0.4016
15102SOL    HW250118   1.565   7.387   8.802 -0.3991  0.7073  0.4624
15103SOL     OW50119   1.598   8.739   0.226  0.1327  0.0903  0.0942
15103SOL    HW150120   1.628   8.732   0.135 -1.3518  0.2855 -0.4317
15103SOL    HW250121   1.679   8.745   0.277  1.0057  1.9563 -1.3738
15104SOL     OW50122   9.011   2.267   2.275 -0.4671  0.4147 -0.2900
15104SOL    HW150123   8.999   2.317   2.355  0.4735  1.2367 -0.6374
15104SOL    HW250124   9.103   2.282   2.251 -0.2884 -1.0878 -0.6654
15105SOL     OW50125   3.546  11.581   7.288 -0.1589 -0.0379 -0.4353
15105SOL    HW150126   3.503  11.666   7.297 -3.0085 -1.5065  1.1888
15105SOL    HW250127   3.608  11.578   7.360 -0.0804  0.6230 -0.4657
15106SOL     OW50128   4.560   4.444  10.292 -0.1546 -0.1241 -0.3518
15106SOL    HW150129   4.566   4.453  10.387  0.2677  0.7358 -0.4497
15106SOL    HW250130   4.503   4.368  10.278  1.4421 -1.5693  0.5914
15107SOL     OW50131   3.759   9.376   9.988  0.7216  0.0187  0.8143
15107SOL    HW150132   3.829   9.372  10.053 -1.0862  0.4864  2.9458
15107SOL    HW250133   3.681   9.348  10.036 -0.6573  0.0305 -1.2932
15108SOL     OW50134   9.423  12.419   5.070 -0.1858 -0.3637  0.2476
15108SOL    HW150135   9.489  12.470   5.024  0.5022 -2.1519 -0.8374
15108SOL    HW250136   9.348  12.416   5.010 -0.5183  0.0109  0.6376
15109SOL     OW50137   9.240  12.572   7.224 -0.4783 -0.4611  0.3639
15109SOL    HW150138   9.212  12.586   7.133  2.2270 -1.0418 -0.6560
15109SOL    HW250139   9.253  12.660   7.259 -0.8814 -0.2403 -0.0285
15110SOL     OW50140   0.661  12.280   8.205  0.4199  0.2338 -0.1895
15110SOL    HW150141   0.572  12.278   8.172  0.5323 -2.3892 -0.5460
15110SOL    HW250142   0.712  12.323   8.136 -0.5384  1.8924  0.0916
15111SOL     OW50143   8.141   0.135  12.320  0.1725  0.1408  0.0234
15111SOL    HW150144   8.124   0.197  12.250 -1.4116 -0.2643  0.0247
15111SOL    HW250145   8.061   0.083  12.327  1.3048 -1.6415  0.2947
15112SOL     OW50146   2.538   1.456  11.242 -0.3788  0.6276  0.3059
15112SOL    HW150147   2.509   1.489  11.327 -0.2004 -0.3295  0.7556
15112SOL    HW250148   2.556   1.534  11.190  0.5892  1.2240  1.5143
15113SOL     OW50149   5.915   6.992   1.336  0.0248 -0.1484 -0.3834
15113SOL    HW150150   5.911   7.088   1.334  0.2592 -0.0742  1.3232
15113SOL    HW250151   5.823   6.964   1.336 -0.0912  0.1692  1.1760
15114SOL     OW50152  10.688  12.610   0.723 -0.0189 -0.3934  0.0707
15114SOL    HW150153  10.642  12.527   0.738  0.5503 -0.4360  1.8713
15114SOL    HW250154  10.629  12.660   0.666 -1.2421 -1.3186  0.4605
15115SOL     OW50155   9.083   3.128  10.632  0.3177  0.0555 -0.2295
15115SOL    HW150156   9.146   3.140  10.562 -0.1100  0.5889 -0.5318
15115SOL    HW250157   9.096   3.038  10.661 -1.3574 -1.1414 -2.8503
15116SOL     OW50158  11.580  10.389   6.516  1.0596 -0.4099 -0.8189
15116SOL    HW150159  11.578  10.454   6.445 -2.0809 -1.1931 -1.5812
15116SOL    HW250160  11.589  10.442   6.596 -1.6083  1.1005 -1.3928
15117SOL     OW50161  11.775  11.699   9.459 -0.0674  0.1556 -0.5478
15117SOL    HW150162  11.803  11.621   9.412 -2.3775 -0.3247 -1.2451
15117SOL    HW250163  11.728  11.751   9.394 -0.6322  0.9904  0.4890
15118SOL     OW50164   1.130   5.355  11.132  0.3000 -0.5148  0.1458
15118SOL    HW150165   1.093   5.344  11.044 -2.0433 -0.5300  1.0621
15118SOL    HW250166   1.225   5.357  11.118 -0.0276  0.4757 -2.4834
15119SOL     OW50167  10.779  10.879  12.214  0.8983  0.3038 -0.4428
15119SOL    HW150168  10.749  10.834  12.293  0.5751  2.2737  0.6204
15119SOL    HW250169  10.859  10.925  12.240  0.7265  1.0851 -1.2043
15120SOL     OW50170  10.006   9.855   7.956 -0.4072  0.0122  0.3071
15120SOL    HW150171  10.024   9.765   7.982 -1.0108 -0.0898  0.3806
15120SOL    HW250172   9.935   9.883   8.014  0.2657  0.7825  0.7895
15121SOL     OW50173  10.268   7.311   1.140  0.1534  0.7526  0.1830
15121SOL    HW150174  10.336   7.339   1.079 -0.9343  0.0650 -1.4194
15121SOL    HW250175  10.245   7.222   1.111 -2.4315  1.4827 -0.2864
15122SOL     OW50176   8.759   4.841   6.060  0.8435  0.4318 -0.7459
15122SOL    HW150177   8.811   4.767   6.029  0.0829  0.0364 -1.1118
15122SOL    HW250178   8.704   4.804   6.129  0.9405  0.8137 -0.4612
15123SOL     OW50179   9.639   3.013   2.204 -0.3698 -0.6411 -0.1198
15123SOL    HW150180   9.672   2.975   2.123 -0.3178  0.0159 -0.4071
15123SOL    HW250181   9.702   3.081   2.226 -0.1019 -1.1576  0.7481
15124SOL     OW50182   1.763   0.882   6.898  0.9815  0.7829 -0.5014
15124SOL    HW150183   1.698   0.933   6.848 -0.0605  0.3463  0.3616
15124SOL    HW250184   1.813   0.949   6.945 -0.8342  1.0738  1.1793
15125SOL     OW50185   4.263   4.119  12.596 -0.1281  0.5513  0.4299
15125SOL    HW150186   4.311   4.049  12.640  1.8320  1.1390 -0.6566
15125SOL    HW250187   4.302   4.200  12.629  0.7932  1.0206 -1.6364
15126SOL     OW50188  10.907   7.013   2.274  0.0513 -0.0052 -0.9954
15126SOL    HW150189  11.001   7.007   2.258 -0.2183  0.4948 -3.0853
15126SOL    HW250190  10.896   7.099   2.316  0.7244 -1.0813  1.5869
15127SOL     OW50191   6.859   5.331   1.158 -0.2154  0.3401  0.2079
15127SOL    HW150192   6.907   5.294   1.231  0.5274  0.0047 -0.4287
15127SOL    HW250193   6.921   5.329   1.085 -0.2446  2.5390  0.0574
15128SOL     OW50194  10.928   3.765  12.213 -0.3627  0.2271  1.3136
15128SOL    HW150195  10.888   3.831  12.270  0.9909  1.1695  1.2097
15128SOL    HW250196  11.003   3.733  12.262 -1.0080 -1.2971  1.3664
15129SOL     OW50197   2.681  11.382   7.551 -0.0875 -0.5493 -0.0758
15129SOL    HW150198   2.765  11.407   7.587  1.1018 -2.0912 -1.6002
15129SOL    HW250199   2.677  11.425   7.466  0.9791 -3.3828 -1.7148
15130SOL     OW50200   3.335   3.246   6.771 -0.3978 -0.3375  0.4977
15130SOL    HW150201   3.354   3.321   6.714 -0.2141 -0.1147  0.8497
15130SOL    HW250202   3.249   3.264   6.807 -0.1187 -0.0232  1.0133
15131SOL     OW50203   5.397   4.698   9.273  0.1442 -0.3872 -0.2293
15131SOL    HW150204   5.334   4.739   9.215 -0.9288 -2.1592 -0.4015
15131SOL    HW250205   5.385   4.742   9.357  0.3310  0.8555 -0.8305
15132SOL     OW50206   3.041   0.331   5.539 -0.0970 -0.0689 -0.0871
15132SOL    HW150207   3.001   0.332   5.452 -0.7605 -0.4972  0.2122
15132SOL    HW250208   3.016   0.247   5.577  0.7470 -0.1738  0.2694
15133SOL     OW50209   4.049   7.665   0.403  0.4602 -0.1587 -0.3255
15133SOL    HW150210   4.089   7.665   0.490 -0.4966 -2.4069  0.1742
15133SOL    HW250211   4.107   7.611   0.349  0.2136 -0.0899 -0.6674
15134SOL     OW50212   6.694  10.692   2.632  0.1959 -0.5108 -0.9656
15134SOL    HW150213   6.725  10.711   2.543  0.5533 -0.1671 -0.7714
15134SOL    HW250214   6.761  10.731   2.689 -0.3108 -0.2556 -0.5421
15135SOL     OW50215  10.868  12.629   7.328  0.1146 -0.1154  0.2063
15135SOL    HW150216  10.773  12.640   7.329  0.0108 -0.5816 -1.4986
15135SOL    HW250217  10.882  12.537   7.349  0.2375  0.1133  1.1498
15136SOL     OW50218   7.240   5.481   5.422  0.2899 -0.9882  0.0974
15136SOL    HW150219   7.195   5.456   5.342 -0.7167  2.3221 -0.5584
15136SOL    HW250220   7.311   5.538   5.393  0.8332 -0.9285  1.4617
15137SOL     OW50221   6.175   1.322   6.739  0.6503 -0.0927 -0.1754
15137SOL    HW150222   6.238   1.354   6.674  0.2508  1.1405  0.0012
15137SOL    HW250223   6.175   1.227   6.729  1.2049  0.0178 -1.4203
15138SOL     OW50224   8.522   0.046   1.865  0.4070 -0.2474  0.0510
15138SOL    HW150225   8.539   0.027   1.957  0.5379 -1.5815 -0.2152
15138SOL    HW250226   8.587   0.112   1.841 -0.5724  1.1963  1.2595
15139SOL     OW50227   1.740   7.154   5.727 -0.4087 -0.1251 -0.3500
15139SOL    HW150228   1.692   7.073   5.710 -0.9521  0.4293 -1.5724
15139SOL    HW250229   1.826   7.125   5.757 -1.0974 -1.1366  0.7707
15140SOL     OW50230   5.146  12.544   9.803 -0.0464  0.4747  0.1372
15140SOL    HW150231   5.222  12.581   9.759 -0.5048  2.8940  1.2467
15140SOL    HW250232   5.126  12.465   9.753  2.0612  0.7578 -1.2844
15141SOL     OW50233   1.907  10.241   6.545  0.0535 -0.0743 -0.2687
15141SOL    HW150234   1.909  10.159   6.496  0.0330  1.1791 -2.4748
15141SOL    HW250235   1.822  10.241   6.589  0.4877 -1.6845  0.6840
15142SOL     OW50236   5.412   0.905   8.133 -0.5639 -0.1196  0.3778
15142SOL    HW150237   5.478   0.928   8.198 -0.4606  0.3668  0.1065
15142SOL    HW250238   5.373   0.989   8.108  0.7054 -0.0373 -1.5946
15143SOL     OW50239   9.156   3.243  12.271  0.0592  0.3284  0.1479
15143SOL    HW150240   9.071   3.198  12.277 -0.0727  0.5214 -0.2164
15143SOL    HW250241   9.197   3.205  12.193  0.5774 -0.2102  0.6716
15144SOL     OW50242   6.783   3.767   8.053  0.1210 -0.1322  0.6028
15144SOL    HW150243   6.878   3.762   8.052  0.0870 -3.4784 -2.1414
15144SOL    HW250244   6.759   3.804   7.968 -0.9994 -1.6875  0.1974
15145SOL     OW50245   7.015   9.491   5.272 -0.3875 -0.1381  0.2718
15145SOL    HW150246   7.108   9.499   5.293 -0.4094  0.9399 -0.0195
15145SOL    HW250247   7.008   9.408   5.225  0.3618 -0.4146  0.6368
15146SOL     OW50248   4.216   5.285   3.132  0.0222  0.9315  0.0871
15146SOL    HW150249   4.158   5.297   3.057 -0.3222 -0.7103  0.0576
15146SOL    HW250250   4.190   5.353   3.194 -0.4225  1.6151 -0.8413
15147SOL     OW50251   9.810   2.376  10.605  0.1314  0.2828  0.5858
15147SOL    HW150252   9.889   2.350  10.652  0.8351 -1.8884 -1.5713
15147SOL    HW250253   9.773   2.293  10.574 -0.5448  1.5147 -2.1849
15148SOL     OW50254   7.089   1.291  11.413  0.3357 -0.1923 -0.3294
15148SOL    HW150255   7.039   1.228  11.363 -0.0489 -0.4140  0.3188
15148SOL    HW250256   7.062   1.376  11.378 -0.6550 -0.2959  0.1385
15149SOL     OW50257   9.646   7.942   4.767  0.2274  0.2352 -0.1981
15149SOL    HW150258   9.684   7.874   4.712  1.8407  0.1110  0.9991
15149SOL    HW250259   9.616   8.010   4.706 -0.5271 -1.0851 -1.3447
15150SOL     OW50260  12.607   1.439   4.904 -0.4557  0.3216  0.2271
15150SOL    HW150261  12.565   1.513   4.948 -0.7372 -0.2963  0.9955
15150SOL    HW250262  12.589   1.364   4.959 -0.3559 -0.3729 -0.6666
15151SOL     OW50263   6.996   2.241   8.557  0.3070  0.6492  0.3348
15151SOL    HW150264   7.035   2.326   8.539 -0.2829  0.8747  0.1414
15151SOL    HW250265   6.907   2.246   8.524  0.7901 -0.6339 -1.2794
15152SOL     OW50266   2.342   2.774  12.105 -0.6253 -0.4549 -0.4335
15152SOL    HW150267   2.314   2.691  12.067 -1.2669 -1.4171  1.9600
15152SOL    HW250268   2.380   2.750  12.189 -1.0419  1.6999  0.4293
15153SOL     OW50269   5.850   2.268   6.908  0.3238  0.4061  0.0024
15153SOL    HW150270   5.810   2.184   6.885  2.0567 -0.2686 -0.7362
15153SOL    HW250271   5.793   2.304   6.975 -1.6106 -0.3801 -1.1368
15154SOL     OW50272   5.064   4.822   0.655 -0.0328  0.3318  0.7147
15154SOL    HW150273   5.155   4.846   0.639  0.2023 -0.2397  1.1837
15154SOL    HW250274   5.068   4.750   0.717 -0.7183 -1.1394 -0.8805
15155SOL     OW50275   3.863   2.647   3.151 -0.1632 -0.6385 -0.7203
15155SOL    HW150276   3.879   2.564   3.196 -1.0307  0.0329  0.9452
15155SOL    HW250277   3.836   2.707   3.221  0.4260  1.0533 -1.8730
15156SOL     OW50278   3.684   7.232   8.950 -0.3258 -0.3863 -0.1139
15156SOL    HW150279   3.723   7.261   9.033  0.0630 -1.1846 -0.0014
15156SOL    HW250280   3.614   7.295   8.933  0.3521  0.4759  0.2176
15157SOL     OW50281   6.240   1.923  10.480 -0.7055  0.1941 -0.0712
15157SOL    HW150282   6.208   1.977  10.553 -2.8163 -1.6697  0.5096
15157SOL    HW250283   6.301   1.862  10.521 -1.3189 -0.3633  0.0360
15158SOL     OW50284   0.961   9.267   4.530 -0.7531 -0.0017 -0.0602
15158SOL    HW150285   0.973   9.262   4.435  0.4730  1.6130 -0.0234
15158SOL    HW250286   1.048   9.252   4.566 -0.6374  2.0944  0.6660
15159SOL     OW50287  11.395   3.254   1.337  0.2507 -0.5287 -0.3529
15159SOL    HW150288  11.347   3.335   1.318  0.2446 -0.3900  0.2359
15159SOL    HW250289  11.328   3.186   1.332  0.3203 -0.5477 -1.1843
15160SOL     OW50290   0.756   6.741   4.435  0.4166  0.3492  0.9664
15160SOL    HW150291   0.710   6.670   4.480  1.8801 -0.7590  0.7727
15160SOL    HW250292   0.734   6.728   4.343  2.5645 -1.3900  0.6166
15161SOL     OW50293   8.741  12.000   0.784 -0.4728 -0.1461  0.2146
15161SOL    HW150294   8.801  12.074   0.798  2.3271 -1.9830 -1.1328
15161SOL    HW250295   8.707  11.981   0.871  1.5857  0.5039  1.2439
15162SOL     OW50296  10.623   2.428   3.690  0.4337 -0.2983  0.0668
15162SOL    HW150297  10.683   2.375   3.744  1.4134  0.5479 -0.1734
15162SOL    HW250298  10.624   2.386   3.605  2.2478  0.8126 -0.5146
15163SOL     OW50299   3.219   6.260   8.277  0.2382 -0.1245  0.0054
15163SOL    HW150300   3.282   6.306   8.221  0.5908 -1.1023 -0.4336
15163SOL    HW250301   3.157   6.327   8.304 -0.3391  0.2512 -2.1097
15164SOL     OW50302  10.816   7.807  11.553 -0.0904  0.3755 -0.1753
15164SOL    HW150303  10.899   7.771  11.522 -0.0539 -0.0986  0.4453
15164SOL    HW250304  10.813   7.784  11.646 -1.4745 -0.6689 -0.4414
15165SOL     OW50305   6.622   9.443   1.415  0.5402  0.4640  0.2771
15165SOL    HW150306   6.552   9.471   1.475  0.4669  0.2679  0.2813
15165SOL    HW250307   6.621   9.348   1.420  0.0377  0.4177 -0.5991
15166SOL     OW50308   3.702   7.345   4.925 -0.0032 -0.3845 -0.6654
15166SOL    HW150309   3.610   7.361   4.905 -0.4302 -0.1899  1.3171
15166SOL    HW250310   3.706   7.251   4.943  0.4077 -0.5801 -1.6700
15167SOL     OW50311   5.849   1.218   8.475 -0.5612  0.2695 -0.4686
15167SOL    HW150312   5.870   1.289   8.535  0.9104 -1.2563  0.9178
15167SOL    HW250313   5.897   1.240   8.395  0.9414  0.2354  0.3835
15168SOL     OW50314   3.406   6.507   3.807  0.1339 -0.1096 -0.7507
15168SOL    HW150315   3.315   6.481   3.793  0.4198 -0.9542 -1.1186
15168SOL    HW250316   3.452   6.425   3.823  0.6383  0.4134  0.6303
15169SOL     OW50317   1.829   1.302   0.692 -0.2622 -0.0704 -0.0284
15169SOL    HW150318   1.799   1.371   0.633 -1.3944 -0.6145 -0.1335
15169SOL    HW250319   1.890   1.345   0.751  0.6716  0.5581 -1.4010
15170SOL     OW50320  11.732  10.012   0.255 -0.0287 -0.1028  0.1162
15170SOL    HW150321  11.787  10.075   0.207  1.1391 -1.6903 -0.7368
15170SOL    HW250322  11.705   9.948   0.188 -1.0537 -0.6065  0.9824
15171SOL     OW50323   7.975   0.571   3.909  0.3254 -0.1792  0.2724
15171SOL    HW150324   8.066   0.541   3.904  0.2828 -0.5724  1.5035
15171SOL    HW250325   7.974   0.653   3.860  0.9498 -1.0080 -1.1963
15172SOL     OW50326   6.388   1.744   2.226  0.2044  0.2756 -0.3478
15172SOL    HW150327   6.328   1.790   2.284  1.5460  0.9071  0.5701
15172SOL    HW250328   6.433   1.813   2.177 -0.8607 -0.2326 -2.1585
15173SOL     OW50329  12.039   9.943  12.257  0.7496  0.5598  0.1801
15173SOL    HW150330  12.103   9.901  12.199  1.3192  2.6941 -0.8435
15173SOL    HW250331  12.074   9.930  12.345  0.7396 -1.3004 -0.0434
15174SOL     OW50332  11.312   2.334   9.496 -0.3233 -0.2552 -0.4442
15174SOL    HW150333  11.279   2.257   9.542  0.5949  0.2085  1.0519
15174SOL    HW250334  11.240   2.396   9.497 -0.3288 -0.2632  0.3650
15175SOL     OW50335   5.372  12.015   4.823 -0.0058 -0.2182 -0.3294
15175SOL    HW150336   5.429  12.081   4.862 -0.1947  0.3803 -1.0494
15175SOL    HW250337   5.286  12.058   4.820 -0.3962 -0.9311  0.2898
15176SOL     OW50338   9.698   2.204   7.192 -0.2247  0.2562 -0.3872
15176SOL    HW150339   9.752   2.133   7.228 -2.5633 -1.5802 -0.2889
15176SOL    HW250340   9.660   2.167   7.112 -3.1215  0.5695  0.7367
15177SOL     OW50341   5.177   6.877   4.029 -0.4178  0.3488  0.0254
15177SOL    HW150342   5.167   6.949   3.967 -0.8981  0.2754  0.0150
15177SOL    HW250343   5.148   6.799   3.981 -0.3634  0.2220  0.1955
15178SOL     OW50344   3.967   9.623   0.612  0.6509 -0.0364 -0.4195
15178SOL    HW150345   3.959   9.569   0.534  1.5352 -2.6440  1.1549
15178SOL    HW250346   3.889   9.601   0.664  1.2423 -0.1401  0.4357
15179SOL     OW50347   7.761   9.513   3.660 -0.6867 -0.0725 -0.0012
15179SOL    HW150348   7.811   9.468   3.592 -0.4729 -0.8638  0.6594
15179SOL    HW250349   7.675   9.530   3.619 -0.8154 -1.2031 -0.2350
15180SOL     OW50350  11.017  12.525   7.588  0.8315 -0.5063 -0.7981
15180SOL    HW150351  10.998  12.440   7.628  0.6415 -0.6971 -1.2840
15180SOL    HW250352  11.097  12.511   7.538  1.7494  0.0411  0.4477
15181SOL     OW50353   5.675   1.327   2.587  0.6712  0.3876 -0.3228
15181SOL    HW150354   5.636   1.386   2.523  1.5968  1.5015  0.1047
15181SOL    HW250355   5.647   1.363   2.672 -0.1741 -0.8064 -0.0691
15182SOL     OW50356   1.322   5.958   3.747 -0.2311 -0.5264 -0.7115
15182SOL    HW150357   1.402   6.011   3.750 -0.2025 -0.4688  3.2378
15182SOL    HW250358   1.353   5.869   3.731  0.6313 -0.4258  0.2459
15183SOL     OW50359  11.502   4.391   6.668 -0.5891  0.5463 -0.1737
15183SOL    HW150360  11.517   4.402   6.762  0.5993  0.4789 -0.3462
15183SOL    HW250361  11.538   4.304   6.649  1.2977  1.4818 -1.1044
15184SOL     OW50362  10.321   1.313   2.029 -0.5662 -0.5810 -0.2315
15184SOL    HW150363  10.253   1.357   2.080  0.0622  0.5458 -0.3520
15184SOL    HW250364  10.302   1.219   2.041 -1.4967 -0.3072  0.5987
15185SOL     OW50365  10.573   1.427   0.406  0.5768 -0.9959  0.1634
15185SOL    HW150366  10.539   1.391   0.324 -1.5153 -1.9399  1.3845
15185SOL    HW250367  10.588   1.520   0.386  0.3026 -1.2473 -1.3397
15186SOL     OW50368  11.257  10.388   2.929 -0.1304 -0.0637 -0.5103
15186SOL    HW150369  11.313  10.333   2.984 -0.2413  0.4342  0.1211
15186SOL    HW250370  11.181  10.406   2.984 -0.2137  0.4994 -0.8086
15187SOL     OW50371   8.049   6.705   8.920  0.5248  0.2837  0.3533
15187SOL    HW150372   8.124   6.646   8.926  1.5725  1.4921 -0.3380
15187SOL    HW250373   8.084   6.783   8.876 -1.2316  0.7208 -0.3310
15188SOL     OW50374   8.401   2.392   7.552  0.4716 -0.8146  0.5396
15188SOL    HW150375   8.314   2.431   7.557  0.1238 -1.2499 -1.3399
15188SOL    HW250376   8.457   2.461   7.518  0.2684 -1.3074 -0.8625
15189SOL     OW50377   4.882   5.071  11.573 -0.0963 -0.0954 -0.1428
15189SOL    HW150378   4.795   5.073  11.614 -0.1515  2.4163 -0.2588
15189SOL    HW250379   4.896   5.160  11.542  3.2746  0.0613  1.4327
15190SOL     OW50380   5.819   8.420   2.644  0.1559 -0.1748  0.3886
15190SOL    HW150381   5.731   8.449   2.668 -0.5137 -2.2036  0.5288
15190SOL    HW250382   5.861   8.498   2.608 -1.2335  1.1591  1.5503
15191SOL     OW50383   1.877   4.739   0.509 -0.5404  0.1239  0.3194
15191SOL    HW150384   1.828   4.785   0.441 -0.0385 -0.7292 -0.6470
15191SOL    HW250385   1.811   4.688   0.556 -0.6623 -0.7638 -0.7676
15192SOL     OW50386   5.725  11.308   7.460 -0.0090  0.2580 -0.3817
15192SOL    HW150387   5.685  11.252   7.527  2.3623 -1.4988 -0.3150
15192SOL    HW250388   5.672  11.294   7.382 -1.7297  0.9343  0.6134
15193SOL     OW50389  10.522   0.578   7.564 -0.5773  0.2661 -0.1342
15193SOL    HW150390  10.532   0.669   7.538 -0.2891  0.0856 -0.6739
15193SOL    HW250391  10.610   0.550   7.590 -1.1884  1.0921  3.3577
15194SOL     OW50392   0.891   7.951   1.955  0.4663 -0.2035 -0.4474
15194SOL    HW150393   0.797   7.930   1.956  0.5900 -0.8435 -1.1782
15194SOL    HW250394   0.924   7.917   2.038  0.0250  0.1925 -0.0992
15195SOL     OW50395  12.346   9.386   8.407 -0.3198 -0.3796  0.2022
15195SOL    HW150396  12.383   9.465   8.369  1.7525 -0.5236  1.7291
15195SOL    HW250397  12.257   9.410   8.431 -0.4768  0.7692 -1.3863
15196SOL     OW50398   7.217  10.566   7.095  0.0668  0.1616 -0.5981
15196SOL    HW150399   7.270  10.591   7.019 -0.7737  1.8530 -0.7005
15196SOL    HW250400   7.192  10.650   7.134 -0.8112 -0.6471  0.6319
15197SOL     OW50401  12.505   4.666  12.580  0.1082  0.4330  0.3751
15197SOL    HW150402  12.491   4.735  12.516  0.4672 -0.0542 -0.2434
15197SOL    HW250403  12.590   4.685  12.618  1.0412 -0.6067 -1.0548
15198SOL     OW50404   2.206   8.056  12.584 -0.7853 -0.6567 -0.3144
15198SOL    HW150405   2.262   8.067  12.661  1.5403 -0.7212 -1.8746
15198SOL    HW250406   2.117   8.055  12.618  0.1591 -0.7546  2.3563
15199SOL     OW50407   5.758   4.181   9.314  0.4863 -0.1120  0.6271
15199SOL    HW150408   5.846   4.143   9.305 -0.7411 -3.2111  0.2607
15199SOL    HW250409   5.733   4.161   9.404 -0.0008  0.3656  0.5947
15200SOL     OW50410   4.550   1.765   9.132  0.2180 -0.2528 -0.5143
15200SOL    HW150411   4.468   1.792   9.175 -0.4664 -0.8430 -1.4137
15200SOL    HW250412   4.544   1.670   9.128  0.8083 -0.2765 -0.8688
15201SOL     OW50413   1.537   0.435   1.609 -0.0685  0.0129  0.3338
15201SOL    HW150414   1.560   0.403   1.521 -1.2542  2.3303 -0.9279
15201SOL    HW250415   1.455   0.391   1.630 -0.0750 -0.1354  0.0014
15202SOL     OW50416   0.144  10.769   7.950 -0.1628  0.4647  0.6625
15202SOL    HW150417   0.225  10.722   7.966  0.6883  1.3689 -0.6948
15202SOL    HW250418   0.075  10.704   7.961  0.6682 -0.1504  2.5778
15203SOL     OW50419   7.966   3.198  10.048 -0.1815  0.0454  0.2236
15203SOL    HW150420   7.956   3.204  10.143 -0.5521 -2.6266  0.4417
15203SOL    HW250421   8.056   3.169  10.035 -0.1393  0.3825 -0.2612
15204SOL     OW50422   3.215  12.505   1.820 -0.6574 -0.2418 -0.2054
15204SOL    HW150423   3.284  12.565   1.790  0.0643 -0.2294  1.3352
15204SOL    HW250424   3.142  12.520   1.760  0.0700  1.0261 -0.8265
15205SOL     OW50425   2.102   1.124   0.198 -0.0328 -0.0856 -0.4775
15205SOL    HW150426   2.047   1.105   0.122 -0.5663 -0.1936 -0.0700
15205SOL    HW250427   2.114   1.219   0.196 -0.0544 -0.0880 -0.6941
15206SOL     OW50428   8.740   2.461   8.466  0.0904 -0.2229 -0.2369
15206SOL    HW150429   8.713   2.541   8.512  1.1784 -0.0748  0.1644
15206SOL    HW250430   8.740   2.393   8.533  0.1462 -0.3482 -0.3631
15207SOL     OW50431   5.373   4.451   0.011 -0.2804  0.4049 -0.0202
15207SOL    HW150432   5.334   4.409  -0.066 -0.6769 -1.0473  0.9367
15207SOL    HW250433   5.402   4.378   0.066 -1.8067  1.3017  2.1156
15208SOL     OW50434   9.173   9.562   7.228  0.4487 -0.1392  0.5321
15208SOL    HW150435   9.261   9.524   7.224  0.5928  0.0077  1.8912
15208SOL    HW250436   9.115   9.492   7.197  0.8742 -0.9090  1.4426
15209SOL     OW50437   9.306   9.536   3.156  0.2667  0.0786 -0.2888
15209SOL    HW150438   9.211   9.536   3.165  0.3860 -1.9745  1.8888
15209SOL    HW250439   9.326   9.457   3.105  0.9273 -2.1341  3.1233
15210SOL     OW50440   7.473   7.465   2.261 -0.3081  0.4993 -0.1863
15210SOL    HW150441   7.534   7.399   2.229 -1.2410 -0.4373 -0.0794
15210SOL    HW250442   7.447   7.513   2.183 -0.8181 -0.2782 -0.5019
15211SOL     OW50443   3.906   8.543   1.336  0.1015 -0.4777  0.0939
15211SOL    HW150444   3.890   8.547   1.430 -0.9487 -2.6359  0.0519
15211SOL    HW250445   3.984   8.598   1.323  0.6505 -0.6360  2.2934
15212SOL     OW50446   7.440   5.638   3.590  0.3890 -0.5878  0.4656
15212SOL    HW150447   7.367   5.696   3.613  0.0634 -0.9078  0.2500
15212SOL    HW250448   7.481   5.681   3.515 -0.0673 -0.8130  0.0842
15213SOL     OW50449   4.299   4.553   6.701 -0.0554 -0.3858  0.5220
15213SOL    HW150450   4.253   4.508   6.772 -1.3406 -0.7901 -0.5290
15213SOL    HW250451   4.230   4.592   6.648  0.9910  2.2322  0.9517
15214SOL     OW50452  10.615   8.334   3.797  0.4641 -0.1376  0.2111
15214SOL    HW150453  10.563   8.414   3.799  1.1588  0.3311  2.1991
15214SOL    HW250454  10.550   8.264   3.794 -0.1527  0.4548 -1.5747
15215SOL     OW50455  12.285   7.809  11.982  0.6589 -0.1734 -0.4734
15215SOL    HW150456  12.328   7.776  11.903 -0.0112 -1.3696 -0.3602
15215SOL    HW250457  12.205   7.851  11.950  0.7612  0.0144 -0.4870
15216SOL     OW50458   8.251   7.578   0.618  0.3387 -0.3316  0.1993
15216SOL    HW150459   8.246   7.487   0.588  0.5957  0.4223 -2.2714
15216SOL    HW250460   8.338   7.585   0.658  0.0857 -1.2917  0.9726
15217SOL     OW50461   3.714   8.803   2.178 -0.3530 -0.2393 -0.1729
15217SOL    HW150462   3.804   8.815   2.147 -0.9067  2.0191 -1.0624
15217SOL    HW250463   3.667   8.767   2.103 -0.4927 -0.1300 -0.1385
15218SOL     OW50464   2.368   8.878   6.082  0.3451 -0.3952 -0.3375
15218SOL    HW150465   2.356   8.953   6.140 -0.6557 -0.5636 -0.3082
15218SOL    HW250466   2.431   8.908   6.016  1.7478 -0.3143  1.0014
15219SOL     OW50467   9.031   8.634   4.174 -0.0436 -0.3108 -0.7282
15219SOL    HW150468   8.959   8.673   4.221 -0.2135 -0.7371 -0.6276
15219SOL    HW250469   9.093   8.607   4.242  1.1673  1.8523 -0.8965
15220SOL     OW50470   6.054   4.619  10.968  0.5277 -0.0332 -0.2343
15220SOL    HW150471   6.086   4.623  11.058  1.0250 -0.0139 -0.4109
15220SOL    HW250472   6.130   4.637  10.914 -0.1568  1.9707 -0.6302
15221SOL     OW50473  10.577   0.997   7.376 -0.7396  0.5477 -0.3827
15221SOL    HW150474  10.529   1.080   7.370 -2.8430 -0.4934  0.7052
15221SOL    HW250475  10.561   0.967   7.466 -0.7025 -1.4030 -0.9841
15222SOL     OW50476   7.589  12.365   0.845  0.2095  0.4939  0.3423
15222SOL    HW150477   7.684  12.379   0.844 -0.1873  4.2994  0.7505
15222SOL    HW250478   7.578  12.270   0.844  3.9960 -0.0679  0.0244
15223SOL     OW50479   9.842  10.902   6.786 -0.3250 -0.3393 -0.3383
15223SOL    HW150480   9.917  10.944   6.828 -0.7624  0.3436 -0.2265
15223SOL    HW250481   9.881  10.839   6.726  0.3316 -1.5102  1.2214
15224SOL     OW50482   8.182   4.690   0.228 -0.0828  0.1017 -0.2873
15224SOL    HW150483   8.117   4.684   0.159  1.2723  1.0430 -1.7055
15224SOL    HW250484   8.189   4.600   0.262 -0.2213 -0.5602 -1.9071
15225SOL     OW50485   9.386  12.315   2.318 -0.6237  0.8519 -0.2637
15225SOL    HW150486   9.416  12.277   2.235 -2.0071 -1.1140  0.0842
15225SOL    HW250487   9.394  12.409   2.305  1.2792  0.5440 -1.8203
15226SOL     OW50488   0.538   5.175   7.805  0.2468  0.1929 -0.3836
15226SOL    HW150489   0.454   5.136   7.832  0.7408 -0.7525 -0.1577
15226SOL    HW250490   0.604   5.128   7.857  0.9709  0.4875 -1.0153
15227SOL     OW50491   2.410   1.191   6.433 -0.7170 -0.4729 -0.8110
15227SOL    HW150492   2.381   1.154   6.350 -0.2118 -0.3502 -1.0474
15227SOL    HW250493   2.334   1.238   6.467 -1.4521 -1.9113 -0.3912
15228SOL     OW50494   9.490   9.293   9.449 -0.7214  0.8955 -0.0386
15228SOL    HW150495   9.493   9.219   9.509  1.7641  0.7387 -0.2341
15228SOL    HW250496   9.447   9.259   9.370 -1.1413  0.1893  0.4902
15229SOL     OW50497   1.432  12.303   8.166 -0.1253 -0.7369  0.3789
15229SOL    HW150498   1.353  12.288   8.219 -0.3234 -1.2255 -0.0392
15229SOL    HW250499   1.401  12.297   8.075  0.3034 -0.4236  0.2098
15230SOL     OW50500   3.591   6.724   6.316 -0.4829  0.6068 -0.0697
15230SOL    HW150501   3.665   6.681   6.274  0.4709  2.7111 -0.6484
15230SOL    HW250502   3.514   6.677   6.282  0.5039 -1.1277 -0.0250
15231SOL     OW50503   0.889   8.158   7.763  0.6010 -0.5441 -0.5071
15231SOL    HW150504   0.973   8.113   7.755  1.9593  1.9998 -1.9601
15231SOL    HW250505   0.884   8.181   7.856  1.0341 -1.5366 -0.2230
15232SOL     OW50506   9.197   4.714  11.991  0.7414  0.5421 -0.3058
15232SOL    HW150507   9.190   4.745  12.082  0.9986  0.5129 -0.2750
15232SOL    HW250508   9.168   4.623  11.995 -0.2001  0.8195 -0.4280
15233SOL     OW50509   6.308   8.776   4.389  0.4600  0.4761 -0.4317
15233SOL    HW150510   6.278   8.866   4.385  0.8162  0.8390  2.5276
15233SOL    HW250511   6.238   8.725   4.349 -0.6817  1.9047 -0.3069
15234SOL     OW50512   0.202   9.717  12.401 -0.3891 -0.2807 -0.5894
15234SOL    HW150513   0.223   9.667  12.480  1.4973  0.2221 -0.7316
15234SOL    HW250514   0.155   9.794  12.433  2.7864  1.3763  0.4371
15235SOL     OW50515  10.966   9.439   5.080 -0.2372  0.2947 -0.1753
15235SOL    HW150516  10.966   9.535   5.086 -2.4806  0.3110  0.1144
15235SOL    HW250517  10.994   9.421   4.990 -2.5559  1.3644 -1.1849
15236SOL     OW50518   6.761  10.552   7.612 -0.0592  0.7366  0.4519
15236SOL    HW150519   6.692  10.575   7.675 -0.5003  0.6241  0.0182
15236SOL    HW250520   6.838  10.599   7.643 -0.2798  0.7070  1.0585
15237SOL     OW50521   5.368   4.977  11.890 -0.1076  0.3985 -0.0428
15237SOL    HW150522   5.301   4.909  11.895 -0.9321  1.2692  1.7656
15237SOL    HW250523   5.324   5.050  11.845  0.3579  0.2008 -0.8324
15238SOL     OW50524   9.626   2.016   7.974 -0.4605  0.5965 -0.7465
15238SOL    HW150525   9.535   2.042   7.966 -0.5258  0.3112 -0.9632
15238SOL    HW250526   9.672   2.068   7.908 -0.1754  2.0405  0.5299
15239SOL     OW50527   4.233   0.863   1.550 -0.4918  0.0646 -0.3710
15239SOL    HW150528   4.163   0.801   1.569 -0.4303  0.0780 -0.1059
15239SOL    HW250529   4.246   0.855   1.455 -1.0380  0.2588 -0.4715
15240SOL     OW50530   2.389   5.152  12.286 -0.1601 -0.1346  0.7334
15240SOL    HW150531   2.372   5.198  12.368 -0.3210 -0.3531  0.8231
15240SOL    HW250532   2.310   5.166  12.234 -0.3304 -0.5467  0.8724
15241SOL     OW50533   3.642   9.256   0.671  0.5832  0.9241  0.0505
15241SOL    HW150534   3.708   9.192   0.645  1.2388  1.7793 -0.4368
15241SOL    HW250535   3.594   9.214   0.742  0.5672 -0.3689 -0.6986
15242SOL     OW50536  10.403  11.729  10.993 -0.2095 -0.0891  0.4937
15242SOL    HW150537  10.361  11.716  10.909  1.0941 -1.2581 -0.0222
15242SOL    HW250538  10.416  11.823  11.000 -3.1051  0.3614  0.8335
15243SOL     OW50539   9.501   9.835   4.271  0.1171 -0.0986 -0.2485
15243SOL    HW150540   9.516   9.778   4.195 -0.6718  1.1227 -1.3607
15243SOL    HW250541   9.579   9.891   4.273  1.1543 -1.4943  1.1736
15244SOL     OW50542  11.461   2.198   4.024 -0.0392 -0.0550  0.2799
15244SOL    HW150543  11.466   2.105   4.006  2.0161 -0.4460  2.3178
15244SOL    HW250544  11.382   2.208   4.077  0.1529 -0.7937  0.7174
15245SOL     OW50545   8.454  10.404  10.730  0.1751 -0.0520  0.1436
15245SOL    HW150546   8.373  10.358  10.750  0.1543 -0.5903 -1.1186
15245SOL    HW250547   8.426  10.484  10.685  0.2796  0.6161  1.2168
15246SOL     OW50548   6.033   3.348  10.665  0.3791  0.1449  0.0464
15246SOL    HW150549   5.970   3.277  10.677  0.4614 -0.0811 -0.7989
15246SOL    HW250550   6.096   3.336  10.736 -0.7966  0.6854  1.2059
15247SOL     OW50551   9.602   2.153   6.245 -0.1076  0.2984 -0.6001
15247SOL    HW150552   9.624   2.240   6.281 -0.6234 -0.3833  1.5335
15247SOL    HW250553   9.508   2.158   6.228 -0.1388  0.1677 -0.4704
15248SOL     OW50554  11.212   4.451   5.672 -0.0751  0.0074 -0.4566
15248SOL    HW150555  11.123   4.417   5.668 -0.2569  0.4865 -0.5403
15248SOL    HW250556  11.257   4.411   5.597  0.4132 -1.9819  0.8408
15249SOL     OW50557   1.344   6.764   7.514 -0.1442  0.4248  0.5404
15249SOL    HW150558   1.328   6.708   7.589  1.0422 -0.0294  0.4728
15249SOL    HW250559   1.440   6.772   7.509 -0.2265  1.0418 -0.4766
15250SOL     OW50560   1.836   9.673   2.972 -0.5890  0.0697  0.2166
15250SOL    HW150561   1.911   9.653   2.916 -1.9365 -0.2126 -1.5825
15250SOL    HW250562   1.841   9.610   3.044  0.7594 -0.0782  0.0133
15251SOL     OW50563   6.168   6.368  11.006  0.3362  0.1362  0.3798
15251SOL    HW150564   6.242   6.426  10.986  0.9384 -0.9318 -0.5942
15251SOL    HW250565   6.176   6.351  11.100  0.4494  1.1924  0.5788
15252SOL     OW50566   9.134   4.147  12.550 -0.2265  0.3636  0.0714
15252SOL    HW150567   9.136   4.232  12.593  0.7339  0.1411  0.4796
15252SOL    HW250568   9.150   4.166  12.457  0.6255  0.5769  0.2550
15253SOL     OW50569   6.426   1.432   5.993 -0.3918 -0.1897 -0.3026
15253SOL    HW150570   6.396   1.345   6.019  0.5096 -0.1479  0.9745
15253SOL    HW250571   6.384   1.491   6.056  2.0159 -0.1043  1.3454
15254SOL     OW50572   8.240   4.341  10.315 -0.1933  0.0919  0.7273
15254SOL    HW150573   8.270   4.362  10.403  0.4174  1.8967  0.1213
15254SOL    HW250574   8.320   4.323  10.265 -0.2713  1.8947 -0.1324
15255SOL     OW50575   8.330  10.578   4.719 -0.3767  0.2570  0.3173
15255SOL    HW150576   8.290  10.658   4.685 -0.9890 -0.3739 -0.4832
15255SOL    HW250577   8.257  10.528   4.754 -0.5349 -1.4209 -2.1797
15256SOL     OW50578   4.820   9.658   2.963  0.1019  0.0858 -0.6111
15256SOL    HW150579   4.855   9.665   2.874  0.5583 -0.8357 -0.5169
15256SOL    HW250580   4.725   9.659   2.951  0.1358 -1.4483 -1.2679
15257SOL     OW50581   7.831   5.371   5.562  0.8237 -0.9602  0.1308
15257SOL    HW150582   7.900   5.306   5.557  0.1559 -1.6971  0.2477
15257SOL    HW250583   7.761   5.329   5.612  0.2898 -0.2361  0.0211
15258SOL     OW50584   9.360  12.279   8.528  0.1331 -0.1500 -0.2635
15258SOL    HW150585   9.346  12.184   8.525 -0.9762  0.0179 -1.2097
15258SOL    HW250586   9.383  12.303   8.439 -0.3555  0.5845 -0.1991
15259SOL     OW50587  11.727   1.580  11.039 -0.1430  0.2802 -0.3307
15259SOL    HW150588  11.818   1.550  11.033 -0.7060 -2.1775  1.5295
15259SOL    HW250589  11.719   1.646  10.971  3.3225  1.4242  0.1581
15260SOL     OW50590  11.494   7.697   7.808 -0.0835 -0.1852  0.1360
15260SOL    HW150591  11.504   7.780   7.761  0.7071 -0.0342  0.5465
15260SOL    HW250592  11.535   7.632   7.750  1.8374  0.1619  1.0424
15261SOL     OW50593   0.945   9.119  12.243 -0.2593 -0.0271  0.1596
15261SOL    HW150594   0.880   9.185  12.268  1.5016  2.5176 -1.5608
15261SOL    HW250595   0.920   9.093  12.154 -1.4723 -2.5512  1.1165
15262SOL     OW50596   5.389   2.885   7.599 -0.6380  0.3533 -0.5618
15262SOL    HW150597   5.430   2.853   7.519  1.0250 -1.4006  0.8920
15262SOL    HW250598   5.303   2.844   7.601  0.6538 -2.5386  0.2103
15263SOL     OW50599   9.396  12.631   3.717 -0.4647  0.4844 -0.0240
15263SOL    HW150600   9.489  12.647   3.699 -0.3822 -0.3246 -0.3462
15263SOL    HW250601   9.397  12.572   3.793 -0.6450 -1.3297 -1.3876
15264SOL     OW50602   7.093   5.143  11.671  0.1225 -0.5941  0.1138
15264SOL    HW150603   7.036   5.139  11.594  0.6271  2.1916 -0.5001
15264SOL    HW250604   7.033   5.135  11.745 -0.7928  0.0529 -0.5388
15265SOL     OW50605   0.636   6.843   7.830 -0.2679 -0.3692 -0.2521
15265SOL    HW150606   0.664   6.771   7.885 -0.3056 -1.5337 -1.6970
15265SOL    HW250607   0.545   6.823   7.807 -0.3498  0.2413 -0.4936
15266SOL     OW50608   4.339   0.581   2.803 -0.6100 -0.2269 -0.1095
15266SOL    HW150609   4.405   0.566   2.735  0.9949 -1.9684  1.7171
15266SOL    HW250610   4.342   0.675   2.820  1.6527 -0.3075  0.1361
15267SOL     OW50611   9.295   0.640   9.486 -0.2603  0.1226 -0.5411
15267SOL    HW150612   9.204   0.644   9.514 -0.2619 -1.6145 -0.1492
15267SOL    HW250613   9.346   0.644   9.568 -0.0369  0.1405 -0.6787
15268SOL     OW50614  10.928   6.161   7.867 -0.0985  0.6049 -0.3064
15268SOL    HW150615  10.878   6.242   7.873  0.0123  0.7759 -1.4250
15268SOL    HW250616  11.007   6.185   7.818 -0.9799 -0.5492 -2.4614
15269SOL     OW50617   2.387   3.310  11.391  0.4565  0.3612  0.3074
15269SOL    HW150618   2.398   3.318  11.296 -0.1934 -0.7468  0.1223
15269SOL    HW250619   2.463   3.260  11.419  1.4464  1.9720  0.6132
15270SOL     OW50620   7.486   7.458   0.013 -0.2438  0.6498  0.4052
15270SOL    HW150621   7.424   7.510   0.064 -0.3480 -1.2294  2.3501
15270SOL    HW250622   7.483   7.371   0.053  1.0626 -0.4582 -1.6928
15271SOL     OW50623   9.025  12.327   8.754 -0.5507 -0.0415  0.4014
15271SOL    HW150624   9.116  12.302   8.769 -1.0384 -2.0805  0.3433
15271SOL    HW250625   9.028  12.388   8.680  0.7505 -0.2014  0.3047
15272SOL     OW50626   0.682   4.146   8.838 -0.2570 -0.2546  0.4551
15272SOL    HW150627   0.616   4.130   8.905 -1.0791  1.3613  0.0745
15272SOL    HW250628   0.763   4.162   8.888 -0.3367 -1.3360  0.9514
15273SOL     OW50629   4.919   7.650  10.364  0.5229  0.0512  0.1004
15273SOL    HW150630   4.871   7.732  10.371 -0.5690 -0.6312  0.9344
15273SOL    HW250631   4.944   7.628  10.454  0.4283 -0.7411 -0.0581
15274SOL     OW50632   0.385   4.669   1.514  0.1578  0.4613  0.6872
15274SOL    HW150633   0.304   4.625   1.541  0.2652  1.1866  2.3046
15274SOL    HW250634   0.442   4.597   1.485 -0.6488 -0.1690  0.6018
15275SOL     OW50635   4.000   2.358  12.536 -0.3530  0.1459 -0.0462
15275SOL    HW150636   4.019   2.399  12.620 -1.0535 -2.9233  1.7478
15275SOL    HW250637   4.079   2.308  12.516 -0.2995  0.6290 -1.1324
15276SOL     OW50638   9.662   2.440   9.630 -0.4964 -0.2587 -0.0722
15276SOL    HW150639   9.626   2.456   9.717  1.8903 -2.1898  1.4133
15276SOL    HW250640   9.719   2.516   9.614 -1.2036  0.2700 -0.1174
15277SOL     OW50641  11.815  11.438   9.370 -0.1546  0.5595 -0.2998
15277SOL    HW150642  11.733  11.389   9.376  0.0989  0.0936 -0.6318
15277SOL    HW250643  11.884  11.373   9.384  0.1470  1.2316  1.7945
15278SOL     OW50644   2.222   9.297   1.365 -0.1098  0.2468 -0.1721
15278SOL    HW150645   2.267   9.253   1.437  0.0860 -0.2750 -0.6001
15278SOL    HW250646   2.210   9.228   1.299 -0.7596  0.5882 -0.4175
15279SOL     OW50647   8.922   5.400   4.212  0.2042  0.2028  0.5062
15279SOL    HW150648   8.913   5.465   4.282  0.3283  3.3301 -2.1837
15279SOL    HW250649   8.846   5.413   4.156  1.1172 -0.7834 -1.0528
15280SOL     OW50650   3.825  11.247  11.541  0.2365  0.5666 -0.0679
15280SOL    HW150651   3.888  11.262  11.612 -0.1150 -0.1164  0.3979
15280SOL    HW250652   3.746  11.293  11.568 -0.0007  0.0460  0.1421
15281SOL     OW50653   7.168   6.159   6.925  0.0130  0.5078 -0.0561
15281SOL    HW150654   7.140   6.077   6.967  1.9009 -0.4114 -0.4909
15281SOL    HW250655   7.180   6.220   6.998  0.1355 -0.0992  0.4403
15282SOL     OW50656   9.589   4.666   5.379 -0.0439 -0.4443  0.1408
15282SOL    HW150657   9.592   4.620   5.463 -1.9431 -0.6785  0.1221
15282SOL    HW250658   9.619   4.601   5.316 -1.3503 -1.2498  0.2994
15283SOL     OW50659   2.347   6.425   7.735  0.1797  0.1096 -0.1000
15283SOL    HW150660   2.319   6.487   7.802  1.5294 -0.0814  0.6820
15283SOL    HW250661   2.441   6.439   7.727  0.3190 -1.0373 -0.7345
15284SOL     OW50662   5.344   3.514   7.033  0.6145 -0.1751  0.0417
15284SOL    HW150663   5.303   3.428   7.028 -0.1910  0.1150  1.2552
15284SOL    HW250664   5.437   3.497   7.044  0.7583 -0.8592 -1.8067
15285SOL     OW50665   6.568   5.808   4.189 -0.6240  0.1621 -0.6107
15285SOL    HW150666   6.475   5.797   4.208 -0.2211  0.5753  1.8969
15285SOL    HW250667   6.592   5.889   4.235  1.3386 -0.8996  0.3395
15286SOL     OW50668   2.669  11.033   3.276  0.1464  0.2458  0.1010
15286SOL    HW150669   2.650  10.965   3.340  1.7481 -0.4626 -0.1260
15286SOL    HW250670   2.692  10.986   3.196  1.9841  0.9802  0.1410
15287SOL     OW50671  10.835  12.012   1.458  0.0734 -0.2907 -0.0305
15287SOL    HW150672  10.791  12.077   1.403  0.3856 -0.7587 -0.8428
15287SOL    HW250673  10.840  11.934   1.404 -0.1510 -0.9566  0.8795
15288SOL     OW50674  10.991  11.113   3.183  0.6708 -0.6946  0.3564
15288SOL    HW150675  10.993  11.176   3.255  1.4414 -0.6118  0.2691
15288SOL    HW250676  11.078  11.120   3.143  0.5255 -1.3272 -0.0721
15289SOL     OW50677   3.786   7.427  11.431 -0.3697 -0.3841 -0.1192
15289SOL    HW150678   3.722   7.493  11.458 -1.5540 -0.5168 -2.3802
15289SOL    HW250679   3.739   7.371  11.369  1.4398 -1.6037 -0.4861
15290SOL     OW50680   4.561   9.285  11.630 -0.3376  0.5100 -0.3456
15290SOL    HW150681   4.560   9.320  11.541  1.1927 -0.2892 -0.7142
15290SOL    HW250682   4.617   9.344  11.678  1.0560 -0.5441 -0.6117
15291SOL     OW50683   1.103   2.817  12.109  0.3122 -0.1832 -0.3837
15291SOL    HW150684   1.063   2.899  12.138  0.7523 -0.2819  0.5422
15291SOL    HW250685   1.181   2.808  12.163 -0.5776 -2.0263  0.6959
15292SOL     OW50686  11.086   9.992   8.015 -0.2395 -0.3303  0.5134
15292SOL    HW150687  11.108   9.932   8.085  1.8091  0.8995  1.0236
15292SOL    HW250688  11.138   9.963   7.940  1.6638  1.3570  1.0904
15293SOL     OW50689   4.158  10.880   7.965 -0.1501  0.0594 -0.3403
15293SOL    HW150690   4.207  10.833   7.898 -1.1502 -1.3757 -0.1189
15293SOL    HW250691   4.216  10.879   8.041  0.7103  1.0950 -0.9613
15294SOL     OW50692   8.438   1.069   8.748  0.9469  0.3449 -0.4308
15294SOL    HW150693   8.526   1.106   8.754  0.6266  0.9046  0.9170
15294SOL    HW250694   8.402   1.076   8.836  0.2760 -1.7262 -0.4724
15295SOL     OW50695   9.200   5.533   5.920  0.7219 -0.5572 -0.3636
15295SOL    HW150696   9.202   5.625   5.946  0.5363  0.4539 -3.5857
15295SOL    HW250697   9.155   5.489   5.993 -2.6767  2.5033 -0.3382
15296SOL     OW50698   5.208  11.255  12.189  0.8933  0.2231  0.0565
15296SOL    HW150699   5.208  11.334  12.243  1.4183  0.3261 -0.0920
15296SOL    HW250700   5.147  11.274  12.118  0.7549  0.3597  0.2102
15297SOL     OW50701   4.457   4.400   5.986 -0.6248 -0.2545 -0.5584
15297SOL    HW150702   4.533   4.367   5.938 -0.7825 -1.6746  0.1085
15297SOL    HW250703   4.431   4.479   5.939 -0.0913 -0.9768 -2.1206
15298SOL     OW50704  12.091  10.528   0.250 -0.1766  0.4082  0.1017
15298SOL    HW150705  12.059  10.566   0.168  0.6150 -0.6308 -0.7186
15298SOL    HW250706  12.179  10.565   0.260 -0.5646  1.1383  0.9114
15299SOL     OW50707  12.578   0.040   8.786 -0.1988  0.0934  0.7968
15299SOL    HW150708  12.618  -0.026   8.728 -0.9937  0.1104  0.2172
15299SOL    HW250709  12.527   0.096   8.728 -1.1850 -0.0108  1.5331
15300SOL     OW50710   0.713   0.087   1.206 -0.2972 -0.0350 -0.4370
15300SOL    HW150711   0.626   0.052   1.188 -1.0509  1.4409  0.1888
15300SOL    HW250712   0.701   0.146   1.280  0.9136  1.4745 -1.3726
15301SOL     OW50713   7.080  10.624   1.200  0.2345  0.2113 -0.1946
15301SOL    HW150714   7.103  10.590   1.286  1.1925 -2.6239 -1.4335
15301SOL    HW250715   6.988  10.649   1.207  0.9926  2.8757  2.3459
15302SOL     OW50716   4.474  10.731   9.010 -0.3581 -0.2027  0.0738
15302SOL    HW150717   4.557  10.701   9.046  0.4021  0.5005 -0.9993
15302SOL    HW250718   4.451  10.665   8.944 -0.5710 -0.3002  0.2421
15303SOL     OW50719  11.117  12.184   7.385 -0.3750  0.4719  0.6341
15303SOL    HW150720  11.133  12.097   7.348 -1.4547 -0.0215  1.2794
15303SOL    HW250721  11.173  12.188   7.463 -1.2415 -0.1328  1.2951
15304SOL     OW50722  10.713   5.486  12.195  0.0948 -0.1858 -0.2189
15304SOL    HW150723  10.767   5.470  12.273  1.8013  1.3426 -1.0013
15304SOL    HW250724  10.633   5.436  12.210  1.0688 -1.2774  1.7429
15305SOL     OW50725   9.529  10.720   3.286 -0.5340 -0.2049  0.0852
15305SOL    HW150726   9.621  10.698   3.296 -0.7015 -0.2872  1.6360
15305SOL    HW250727   9.490  10.642   3.246  0.0583 -0.1671 -0.5741
15306SOL     OW50728   0.554   7.107   7.947  0.0670  0.3638 -0.4655
15306SOL    HW150729   0.577   7.015   7.937  0.1976  0.4147 -0.6220
15306SOL    HW250730   0.578   7.128   8.038 -3.0416 -0.6626  0.7540
15307SOL     OW50731  12.219  10.207   0.212  0.1330 -0.2844 -0.3480
15307SOL    HW150732  12.235  10.220   0.305 -1.5888  0.0925 -0.0721
15307SOL    HW250733  12.248  10.117   0.195  0.1900 -0.4645  0.6203
15308SOL     OW50734   4.993   1.560  11.471  0.3522  0.1125 -0.4926
15308SOL    HW150735   4.917   1.507  11.496  0.1829  1.2616  1.7203
15308SOL    HW250736   5.064   1.528  11.527  0.6838  1.0501 -0.3625
15309SOL     OW50737   0.597   6.207   6.933  0.4667 -0.1413  0.2576
15309SOL    HW150738   0.591   6.137   6.869 -3.1823 -0.8530  1.1179
15309SOL    HW250739   0.652   6.172   7.003  0.9602 -1.0204 -0.5559
15310SOL     OW50740   2.840  11.596   4.182 -0.0073 -0.0525  0.2713
15310SOL    HW150741   2.844  11.661   4.112 -1.2044 -0.5658 -0.3059
15310SOL    HW250742   2.932  11.580   4.206  0.3038  2.1304  0.7238
15311SOL     OW50743   7.965   1.057   6.050 -0.1797  0.5063 -0.0868
15311SOL    HW150744   7.999   1.090   5.967 -0.8820 -0.4833 -0.7910
15311SOL    HW250745   7.941   1.135   6.099 -1.6705  1.0967 -1.6365
15312SOL     OW50746   9.032   8.681  11.636  0.1733 -0.6207 -0.2284
15312SOL    HW150747   8.974   8.740  11.588  0.3087  0.5150  0.9562
15312SOL    HW250748   9.099   8.738  11.673  0.2078 -1.4862  1.1004
15313SOL     OW50749   1.287   1.605   1.207  0.0367  0.5517 -0.2447
15313SOL    HW150750   1.275   1.572   1.118 -0.2578  1.2262 -0.4623
15313SOL    HW250751   1.239   1.688   1.209  0.5181  0.8276  0.3702
15314SOL     OW50752   6.171   7.381   0.886  0.2991  0.4253  0.7291
15314SOL    HW150753   6.076   7.394   0.893 -0.1499 -0.8216 -1.7493
15314SOL    HW250754   6.186   7.296   0.925  0.2828  0.3375  0.5453
15315SOL     OW50755  12.368   4.658   8.467 -0.5113 -0.1047  0.1271
15315SOL    HW150756  12.376   4.567   8.437  1.1182 -0.0173  0.2075
15315SOL    HW250757  12.417   4.660   8.549 -1.4446  0.6159  0.6853
15316SOL     OW50758   7.422   7.832   8.638 -0.0360 -0.5328  0.4059
15316SOL    HW150759   7.425   7.737   8.626  1.6111 -0.2803 -1.7096
15316SOL    HW250760   7.478   7.867   8.568 -0.3442  1.9846  1.3229
15317SOL     OW50761   0.938   9.083   9.282 -0.0718 -0.6985  0.3740
15317SOL    HW150762   0.999   9.012   9.261  0.2945 -0.1727 -0.3480
15317SOL    HW250763   0.940   9.140   9.206 -1.8947 -0.9523  0.0907
15318SOL     OW50764  12.457   9.643  12.283 -0.1476  0.2223 -0.2196
15318SOL    HW150765  12.462   9.718  12.343  0.0848  0.0412 -0.0098
15318SOL    HW250766  12.548   9.618  12.269 -0.1324  0.9012 -1.4625
15319SOL     OW50767   4.362   5.287   8.085 -0.1984  0.9157 -0.2394
15319SOL    HW150768   4.385   5.208   8.134 -0.7725  0.8889 -0.0020
15319SOL    HW250769   4.318   5.255   8.007 -1.1583  1.0116  0.2452
15320SOL     OW50770   5.877   9.033   7.451 -0.2828  0.6299  0.5580
15320SOL    HW150771   5.794   9.051   7.409 -0.6346  0.8762  1.3366
15320SOL    HW250772   5.941   9.030   7.380 -0.9437  0.5140 -0.0310
15321SOL     OW50773   0.139   0.105   8.980 -0.1818 -0.1433  0.0875
15321SOL    HW150774   0.099   0.153   9.053  1.0924  2.0502 -0.5664
15321SOL    HW250775   0.067   0.090   8.919 -0.7497  0.3179  0.6289
15322SOL     OW50776   0.024   2.786  12.637  0.1099 -0.4674  0.0928
15322SOL    HW150777  -0.021   2.782  12.722  1.2992  2.4069  1.0044
15322SOL    HW250778  -0.015   2.862  12.593  0.5362 -1.0364 -1.3016
15323SOL     OW50779  12.530   2.340   6.074 -0.2795 -0.4822  0.0521
15323SOL    HW150780  12.535   2.244   6.072 -0.2441 -0.4594 -1.3617
15323SOL    HW250781  12.449   2.361   6.029 -0.4952  0.1565  0.7147
15324SOL     OW50782   4.340   5.689   6.728 -0.5922 -0.7587 -0.4468
15324SOL    HW150783   4.293   5.655   6.652 -0.2972  0.1176 -1.0499
15324SOL    HW250784   4.428   5.653   6.719 -0.9026 -1.7154  0.2158
15325SOL     OW50785   2.334   0.717   7.218  0.0038  0.2842 -0.3434
15325SOL    HW150786   2.362   0.626   7.233 -0.0232  0.0556 -1.5910
15325SOL    HW250787   2.240   0.717   7.240 -0.2972 -0.3131 -1.5581
15326SOL     OW50788   5.496   7.535   8.215 -0.4888 -0.0788  0.0631
15326SOL    HW150789   5.481   7.483   8.295 -1.0924  0.9393  0.6300
15326SOL    HW250790   5.591   7.536   8.206 -0.4589 -1.2935  0.0230
15327SOL     OW50791   4.145   0.550   1.502  0.6083  0.7586  0.1459
15327SOL    HW150792   4.196   0.546   1.583 -1.1041  0.5699  1.2479
15327SOL    HW250793   4.166   0.468   1.457 -0.4223 -0.3597  1.6563
15328SOL     OW50794   9.812   1.300   9.407 -0.2734  0.1858 -0.1706
15328SOL    HW150795   9.746   1.271   9.344 -0.1017  0.2288 -0.3706
15328SOL    HW250796   9.891   1.252   9.384  0.6359  2.3050 -1.8643
15329SOL     OW50797   0.882  12.566   7.430 -0.1040 -0.2288 -0.0720
15329SOL    HW150798   0.949  12.589   7.494  0.0698  0.6026 -0.5388
15329SOL    HW250799   0.800  12.572   7.478  0.0149  0.5114  0.0489
15330SOL     OW50800  11.664   0.453   5.627  0.4007 -0.7444 -0.2697
15330SOL    HW150801  11.694   0.541   5.652 -1.0261 -0.3402  0.0694
15330SOL    HW250802  11.655   0.456   5.532 -0.3735 -0.2774 -0.1885
15331SOL     OW50803   5.020   5.466  12.436 -0.2465 -0.0525  0.3370
15331SOL    HW150804   5.096   5.514  12.468 -0.5502  0.1192  0.8243
15331SOL    HW250805   5.011   5.393  12.497  0.8053 -1.3230 -0.9791
15332SOL     OW50806   1.908   5.388   6.005  0.4050  0.1549 -0.3600
15332SOL    HW150807   1.900   5.413   6.097 -1.2928  1.4069 -0.8029
15332SOL    HW250808   1.944   5.466   5.962 -0.1441  0.0849 -0.9616
15333SOL     OW50809   8.225   2.317   8.235  0.5333 -0.3618 -0.6972
15333SOL    HW150810   8.140   2.361   8.231  0.8424  0.1819 -1.2944
15333SOL    HW250811   8.240   2.304   8.329 -0.6933 -1.4368 -0.6206
15334SOL     OW50812   4.647   9.164   8.379  0.2339 -0.4121 -0.8769
15334SOL    HW150813   4.729   9.121   8.356  1.0075  0.5604 -0.0152
15334SOL    HW250814   4.592   9.095   8.415  1.4783 -0.6885  0.5640
15335SOL     OW50815   1.646  10.826   0.116  0.3738 -0.4592  0.1958
15335SOL    HW150816   1.551  10.837   0.119  0.3145 -0.6866 -0.5803
15335SOL    HW250817   1.669  10.786   0.199 -0.1112  0.3179  0.7138
15336SOL     OW50818  12.594   9.173  10.319 -0.1684 -0.2154  0.0138
15336SOL    HW150819  12.516   9.186  10.373 -0.5517  3.3301 -1.1267
15336SOL    HW250820  12.560   9.175  10.229  1.2033  2.6835 -0.5651
15337SOL     OW50821  11.068   5.716   8.844 -0.1706 -0.5800 -0.3418
15337SOL    HW150822  10.988   5.667   8.864 -1.0983  0.7666 -0.6127
15337SOL    HW250823  11.139   5.661   8.877 -1.2450 -1.5423  0.4306
15338SOL     OW50824   0.020   6.503  12.575 -0.2869  0.1592  0.1399
15338SOL    HW150825   0.091   6.450  12.611 -1.0592 -0.4074  0.8602
15338SOL    HW250826  -0.030   6.531  12.651 -0.3008  1.3475 -0.2914
15339SOL     OW50827   2.914  10.617   0.626  0.4974  0.3155 -0.3018
15339SOL    HW150828   2.866  10.682   0.677 -0.1980  0.7822 -1.4962
15339SOL    HW250829   2.846  10.560   0.590  1.0284 -0.4546 -0.0887
15340SOL     OW50830   2.022   6.411   2.653 -0.2666 -0.1699 -0.6285
15340SOL    HW150831   1.971   6.332   2.667 -0.5632  0.0170 -0.6471
15340SOL    HW250832   2.000   6.467   2.727 -0.8509  0.3091 -1.1582
15341SOL     OW50833   9.412  10.583   4.075 -0.4644 -0.2792 -0.2660
15341SOL    HW150834   9.349  10.636   4.124 -0.5597 -0.6337  0.0011
15341SOL    HW250835   9.369  10.498   4.064  0.0786 -0.6255  0.1939
15342SOL     OW50836   5.323   5.895   8.652 -0.5737  0.4184  0.1493
15342SOL    HW150837   5.414   5.891   8.681  0.4493  0.6689 -2.7329
15342SOL    HW250838   5.294   5.803   8.653 -0.8192  0.4699  2.4025
15343SOL     OW50839   3.748   7.479  12.085  0.3271  0.1691  0.3764
15343SOL    HW150840   3.760   7.541  12.156  1.5543  2.1809 -1.4565
15343SOL    HW250841   3.654   7.480  12.067  0.0406 -0.1966  1.7747
15344SOL     OW50842  12.478   1.649  10.643  0.1199  0.2077  0.1758
15344SOL    HW150843  12.409   1.693  10.593  0.0966 -0.6030 -0.5232
15344SOL    HW250844  12.450   1.657  10.734 -0.4011  0.7366 -0.0208
15345SOL     OW50845  12.576   5.068   7.592  0.1949  0.6736  0.2757
15345SOL    HW150846  12.548   5.001   7.655  0.9659 -0.7518 -0.8413
15345SOL    HW250847  12.497   5.117   7.572 -0.6273 -0.6006  0.3029
15346SOL     OW50848   6.729   0.638   9.766 -0.4399  0.0597  0.8358
15346SOL    HW150849   6.712   0.617   9.858  0.5455  2.9902  1.8032
15346SOL    HW250850   6.713   0.733   9.759  1.7510  0.3721 -1.4452
15347SOL     OW50851   4.148   0.628   3.511 -0.3696  0.1512  0.2416
15347SOL    HW150852   4.087   0.614   3.438 -0.5100  1.8785 -0.0227
15347SOL    HW250853   4.103   0.692   3.567  0.4331  0.0624  0.9918
15348SOL     OW50854   4.210   1.157   4.494  0.4626  0.9259 -0.1196
15348SOL    HW150855   4.168   1.124   4.572 -0.4282 -0.0409 -0.9828
15348SOL    HW250856   4.177   1.247   4.485  0.3778  0.9549  0.4558
15349SOL     OW50857   8.854   0.068   8.222  0.1390 -0.4527  0.4364
15349SOL    HW150858   8.839   0.011   8.297 -3.1653 -2.2850 -1.3857
15349SOL    HW250859   8.864   0.008   8.148  0.3129  1.3153 -1.0428
15350SOL     OW50860  10.766   4.835   9.569 -0.1350  0.2977  0.1051
15350SOL    HW150861  10.723   4.774   9.509 -0.8513  0.1451  0.7580
15350SOL    HW250862  10.838   4.872   9.517  0.2878 -1.0464 -0.3171
15351SOL     OW50863   7.264   9.163   3.275 -0.1968  0.2875  0.4127
15351SOL    HW150864   7.348   9.208   3.265 -0.6130  0.8282 -0.8847
15351SOL    HW250865   7.199   9.225   3.243 -1.1254 -0.0935  1.4720
15352SOL     OW50866   0.195   7.518  10.348 -0.1743 -0.2081  0.3706
15352SOL    HW150867   0.251   7.572  10.292  1.0460 -0.0116  1.7200
15352SOL    HW250868   0.131   7.480  10.288  1.7760 -0.9540 -1.3567
15353SOL     OW50869   9.792   3.950   5.019  0.5409 -0.0252  0.1544
15353SOL    HW150870   9.819   3.894   4.947  0.6658  0.8538 -0.5063
15353SOL    HW250871   9.701   3.927   5.035  0.6472 -0.5458  0.0192
15354SOL     OW50872   5.178   7.543   9.667 -0.1399 -0.3812  0.2582
15354SOL    HW150873   5.256   7.590   9.697  0.9868 -0.7229 -1.9614
15354SOL    HW250874   5.107   7.607   9.675  0.8336  0.7717 -0.0054
15355SOL     OW50875   2.556   3.062   5.595  0.1943 -0.2862  0.0563
15355SOL    HW150876   2.608   3.141   5.615  0.2250 -0.1348 -0.6182
15355SOL    HW250877   2.483   3.094   5.542  0.8507 -0.8721 -1.2461
15356SOL     OW50878   1.977   8.142   7.190 -0.1869 -0.2517 -0.3469
15356SOL    HW150879   1.939   8.055   7.203 -0.6076 -0.0389 -0.1192
15356SOL    HW250880   1.913   8.202   7.231 -0.7977  0.3243 -2.0665
15357SOL     OW50881   8.378   6.736  11.086  0.7224  0.1847  0.2228
15357SOL    HW150882   8.437   6.697  11.021  0.1155  0.5280 -0.5436
15357SOL    HW250883   8.292   6.735  11.044  0.2674  0.1451  1.1416
15358SOL     OW50884   0.331   6.068   6.825 -0.3936  0.0527  0.2714
15358SOL    HW150885   0.416   6.066   6.783  1.3977  2.0593  3.3710
15358SOL    HW250886   0.332   5.993   6.885 -0.1812  0.8295  1.2732
15359SOL     OW50887   4.131   8.765   3.021  0.1014  0.2410  0.0931
15359SOL    HW150888   4.171   8.777   3.107  1.7802 -0.2255 -0.5798
15359SOL    HW250889   4.171   8.832   2.966 -0.5550  0.1952 -0.4654
15360SOL     OW50890   9.553   8.881   3.174  0.3110 -0.0366 -0.2850
15360SOL    HW150891   9.463   8.869   3.143  0.8801 -0.4656 -1.9148
15360SOL    HW250892   9.566   8.812   3.239 -0.7405  0.4536  0.4604
15361SOL     OW50893  11.029   2.310   7.839 -0.3711  0.2285  0.0759
15361SOL    HW150894  10.962   2.316   7.907  1.4934 -1.2815  2.1575
15361SOL    HW250895  11.091   2.380   7.859 -0.2799  0.3655 -0.6524
15362SOL     OW50896   9.704   6.417   8.562 -0.2133  0.2787  0.4183
15362SOL    HW150897   9.772   6.386   8.501 -0.6077  1.3228 -0.5999
15362SOL    HW250898   9.637   6.349   8.560 -2.0981  1.9152 -3.4622
15363SOL     OW50899   8.510  10.157   5.868 -0.7063 -0.4566  0.1066
15363SOL    HW150900   8.504  10.251   5.855 -2.9378 -0.4832  0.4332
15363SOL    HW250901   8.507  10.120   5.779 -3.9105 -0.2722  0.0159
15364SOL     OW50902   8.338   6.123  10.819 -0.2161 -0.0373 -0.1326
15364SOL    HW150903   8.343   6.204  10.869  0.3170  0.1533 -0.4903
15364SOL    HW250904   8.388   6.059  10.871 -3.1725 -1.0246  1.7714
15365SOL     OW50905   5.548   7.092   5.985  0.0601 -0.4279  0.0031
15365SOL    HW150906   5.471   7.130   5.943  0.7919  0.4993 -0.5581
15365SOL    HW250907   5.617   7.098   5.918  0.5637 -1.4382  0.4163
15366SOL     OW50908  12.470   3.323   3.283  0.0691  0.3168 -0.2540
15366SOL    HW150909  12.517   3.381   3.344 -1.0806  1.2265 -0.2009
15366SOL    HW250910  12.515   3.335   3.200  3.2312 -2.7382  0.7773
15367SOL     OW50911   1.287   9.737   3.371  0.0139 -0.0648  0.0523
15367SOL    HW150912   1.329   9.760   3.288 -0.2408 -1.5102 -0.5001
15367SOL    HW250913   1.358   9.705   3.426 -0.3615 -3.2764 -1.1580
15368SOL     OW50914   9.762   7.718   5.182 -0.6293 -0.4381 -0.0296
15368SOL    HW150915   9.816   7.704   5.260 -1.0221 -1.8238  0.0191
15368SOL    HW250916   9.752   7.813   5.176 -0.8369 -0.3203  1.7789
15369SOL     OW50917   4.975   9.634   6.617 -0.4285  0.2290  0.4578
15369SOL    HW150918   4.962   9.626   6.523 -1.6496  0.1036  0.6211
15369SOL    HW250919   4.926   9.712   6.642  0.5657  0.7401  0.8817
15370SOL     OW50920   3.895   5.855   9.104  0.0994  0.1770  0.1277
15370SOL    HW150921   3.856   5.809   9.178 -1.3046  1.0685 -0.0271
15370SOL    HW250922   3.982   5.816   9.096 -0.7431 -1.9446  0.4384
15371SOL     OW50923   2.225   5.378  10.080 -0.4818  0.0237 -0.6142
15371SOL    HW150924   2.315   5.397  10.052 -0.2158  0.3722  0.4383
15371SOL    HW250925   2.185   5.465  10.090  0.2788  0.0947  2.7551
15372SOL     OW50926   9.755  11.683   1.270 -0.8395 -0.3909 -0.2630
15372SOL    HW150927   9.780  11.658   1.359 -1.0908 -0.5018 -0.2219
15372SOL    HW250928   9.745  11.778   1.274  0.8361 -0.1608 -0.5969
15373SOL     OW50929   6.512   0.833   2.499 -0.0413 -0.2713  0.4526
15373SOL    HW150930   6.573   0.819   2.571 -1.4613  2.1377  2.2924
15373SOL    HW250931   6.516   0.753   2.448  2.1687 -1.4898  2.3555
15374SOL     OW50932  11.823   5.315  12.337  0.6083 -0.0924  0.0810
15374SOL    HW150933  11.842   5.290  12.247  0.0982  0.1736 -0.1024
15374SOL    HW250934  11.809   5.231  12.382 -0.5895 -0.1711 -0.4179
15375SOL     OW50935   5.903   4.517  12.412 -0.1812 -0.3442 -0.9953
15375SOL    HW150936   5.957   4.552  12.482  0.8028 -1.5838 -1.0874
15375SOL    HW250937   5.850   4.449  12.453  0.9323 -1.5922 -1.5401
15376SOL     OW50938  10.550  12.408   6.966  0.4599 -0.2717  0.2835
15376SOL    HW150939  10.509  12.371   7.044 -0.8671 -0.1268 -0.3286
15376SOL    HW250940  10.554  12.334   6.905  2.0127 -0.5346  0.6457
15377SOL     OW50941  10.808   5.932  11.220  0.2859 -0.0763  0.3002
15377SOL    HW150942  10.874   5.904  11.283  2.5286  0.8536 -1.4955
15377SOL    HW250943  10.778   5.851  11.179  1.6172 -0.4185 -0.0480
15378SOL     OW50944   0.221   1.371   7.751 -0.7499  0.6772 -0.2471
15378SOL    HW150945   0.188   1.444   7.803 -0.3320  0.7308 -0.0539
15378SOL    HW250946   0.249   1.306   7.816 -1.1489  0.3288 -0.4159
15379SOL     OW50947   8.477   9.411   2.626  0.2978 -0.0617  0.4366
15379SOL    HW150948   8.545   9.440   2.687  0.1566 -0.4779  0.7941
15379SOL    HW250949   8.494   9.462   2.546  1.7246 -0.9418  0.1280
15380SOL     OW50950   4.471  11.178  10.988  0.2172 -0.0426 -0.1552
15380SOL    HW150951   4.503  11.089  10.974  0.3103 -0.2976  1.4936
15380SOL    HW250952   4.378  11.174  10.962  0.2072 -0.6385 -0.0373
15381SOL     OW50953   9.331   9.031   0.950  0.1384 -0.1961 -0.9814
15381SOL    HW150954   9.368   8.943   0.960 -0.4868 -0.2427  1.4725
15381SOL    HW250955   9.241   9.015   0.919 -0.8997 -0.6754  1.9664
15382SOL     OW50956   4.913   5.318   1.173 -0.0250 -0.6494  0.2264
15382SOL    HW150957   4.914   5.402   1.126 -0.1893 -0.7136  0.1048
15382SOL    HW250958   4.855   5.333   1.247  0.8279 -0.3223  0.8409
15383SOL     OW50959   9.627   8.956   8.410 -0.1279 -0.3943 -0.2987
15383SOL    HW150960   9.582   8.967   8.493 -0.6585 -0.4710 -0.5763
15383SOL    HW250961   9.716   8.929   8.435  0.5674  2.2180  0.3385
15384SOL     OW50962  11.299   3.507  10.744 -0.0437 -0.1190  0.5217
15384SOL    HW150963  11.270   3.597  10.756  0.3377  0.0593  0.1295
15384SOL    HW250964  11.386   3.504  10.784  1.3991  0.5649 -2.3198
15385SOL     OW50965   9.158   5.173   6.266 -0.5628  0.0157 -0.0354
15385SOL    HW150966   9.211   5.173   6.345 -1.0083 -0.0835  0.2618
15385SOL    HW250967   9.200   5.109   6.209  0.6930  1.2162 -0.5168
15386SOL     OW50968  11.411   8.282   1.811 -0.4523 -0.5157  0.1214
15386SOL    HW150969  11.497   8.271   1.770 -1.6071 -1.2791 -2.2453
15386SOL    HW250970  11.396   8.376   1.810 -0.5011 -0.5198 -1.3996
15387SOL     OW50971   2.430   0.739   2.844  0.3092 -0.2951  0.4872
15387SOL    HW150972   2.437   0.793   2.923 -0.6714  0.1797  0.2608
15387SOL    HW250973   2.339   0.710   2.843  0.6310 -1.3193  0.1872
15388SOL     OW50974   8.511   5.167   2.362  0.3949  0.5422 -0.0348
15388SOL    HW150975   8.571   5.109   2.315 -0.5627 -1.6549  1.3035
15388SOL    HW250976   8.549   5.174   2.450  0.5555  2.1106 -0.1953
15389SOL     OW50977   7.563   4.904   1.879  0.2712  0.0650 -0.2507
15389SOL    HW150978   7.586   4.996   1.892 -1.4489  0.4871  0.0369
15389SOL    HW250979   7.618   4.856   1.941  0.7143  0.9678  0.0620
15390SOL     OW50980   2.636   8.129   2.776 -0.6736 -0.4031  0.1370
15390SOL    HW150981   2.588   8.183   2.839  0.1330 -1.0579  1.3519
15390SOL    HW250982   2.703   8.188   2.741  0.7753 -0.7756  2.1099
15391SOL     OW50983  11.705  11.897   3.264 -0.4518 -0.1983  0.0960
15391SOL    HW150984  11.715  11.932   3.352 -2.3151 -0.7892  0.5898
15391SOL    HW250985  11.725  11.804   3.273 -1.6960 -0.4796  0.1581
15392SOL     OW50986   3.687   6.956   1.061  0.4471  0.5816 -0.3565
15392SOL    HW150987   3.689   7.037   1.010  1.5922  0.6659 -0.1986
15392SOL    HW250988   3.594   6.941   1.079  0.0113  0.5752 -2.3968
15393SOL     OW50989   6.814   7.775   5.605 -0.3108 -0.5740 -0.0200
15393SOL    HW150990   6.857   7.720   5.670  1.3846  1.4387  0.6591
15393SOL    HW250991   6.814   7.862   5.643 -3.6311 -0.1118 -0.7004
15394SOL     OW50992   8.392   1.866   2.522 -0.2514  0.0126 -0.5333
15394SOL    HW150993   8.330   1.902   2.585 -0.0710 -1.2698  0.4063
15394SOL    HW250994   8.478   1.897   2.551 -0.1628 -0.6229 -0.1058
15395SOL     OW50995   1.450   1.354   1.543  0.1578  0.4766  0.4438
15395SOL    HW150996   1.442   1.441   1.503  0.3294 -0.0928 -0.9013
15395SOL    HW250997   1.387   1.300   1.495  1.2365 -0.5132  0.1001
15396SOL     OW50998   7.543   7.184   1.504 -0.7616 -0.1264  0.1271
15396SOL    HW150999   7.574   7.240   1.433  1.3574 -0.8090  0.4414
15396SOL    HW251000   7.468   7.230   1.540 -0.5256  1.3214 -1.1301
15397SOL     OW51001   8.937   9.100   0.178 -0.3170  0.8182  0.1793
15397SOL    HW151002   8.925   9.190   0.147  0.7121  0.6631 -0.7102
15397SOL    HW251003   8.852   9.058   0.164 -0.4915  1.3555 -0.4173
15398SOL     OW51004   8.110   1.093  10.018 -0.0560 -0.2715 -0.5053
15398SOL    HW151005   8.018   1.070  10.004 -0.2495 -0.1160  0.4548
15398SOL    HW251006   8.135   1.139   9.939  0.2514 -3.4101 -2.4227
15399SOL     OW51007   1.806   4.631  10.453 -0.0621  0.0222  0.4834
15399SOL    HW151008   1.892   4.658  10.487 -0.1733  1.2713 -0.1632
15399SOL    HW251009   1.758   4.602  10.531  0.6111  0.2296  0.9921
15400SOL     OW51010   7.801  11.159   3.272 -0.0728  0.1102  0.0738
15400SOL    HW151011   7.860  11.096   3.231  0.3568 -1.1829  2.5205
15400SOL    HW251012   7.815  11.240   3.223  1.2820 -1.0046 -1.4877
15401SOL     OW51013   9.252   6.433   9.782  0.2743  0.5999  0.2302
15401SOL    HW151014   9.306   6.482   9.719 -1.1055  2.4231  0.3869
15401SOL    HW251015   9.209   6.500   9.834 -0.9413 -0.8322  1.1540
15402SOL     OW51016   6.804   5.016   8.124 -0.3042  0.0291  0.0129
15402SOL    HW151017   6.850   5.037   8.205  1.2330  0.5076 -0.9401
15402SOL    HW251018   6.713   5.039   8.141  0.2609  1.6402  1.1003
15403SOL     OW51019   5.032   4.978   0.394  0.3553 -0.1156  0.3572
15403SOL    HW151020   5.115   4.934   0.374  0.2899 -0.2358  0.3502
15403SOL    HW251021   5.000   4.935   0.473  2.3759  2.6975  2.9249
15404SOL     OW51022  10.893   8.605   7.072 -0.6276 -0.2126  0.4028
15404SOL    HW151023  10.957   8.594   7.143  0.2411  1.6584 -0.0206
15404SOL    HW251024  10.875   8.515   7.042  0.4396 -0.9084  1.7148
15405SOL     OW51025   5.318   4.397   7.090  0.6184  0.2211 -0.0277
15405SOL    HW151026   5.267   4.401   7.171  0.5109 -0.7681 -0.0359
15405SOL    HW251027   5.292   4.476   7.042 -1.1111 -0.3794 -0.1502
15406SOL     OW51028   3.807  11.378   8.681  0.1525  0.5948  0.0815
15406SOL    HW151029   3.733  11.351   8.736  2.0417 -3.4314  0.9639
15406SOL    HW251030   3.784  11.347   8.594 -0.0347  1.1543 -0.0727
15407SOL     OW51031   7.169   2.382   2.172  0.4414  0.4156 -0.2937
15407SOL    HW151032   7.262   2.360   2.157  0.5501  1.4989 -1.3484
15407SOL    HW251033   7.131   2.385   2.085 -0.0422  2.2620 -0.0609
15408SOL     OW51034   5.232   9.192   9.469 -0.2711  0.2370 -0.1389
15408SOL    HW151035   5.165   9.237   9.520 -0.4077 -0.1874  0.0622
15408SOL    HW251036   5.249   9.250   9.395 -0.9653  0.2834 -0.2686
15409SOL     OW51037   2.541   3.773   2.221  0.4784 -0.0182  0.4087
15409SOL    HW151038   2.491   3.724   2.286  0.5707  1.7277  1.8777
15409SOL    HW251039   2.581   3.844   2.270 -1.7477  3.1282 -1.9171
15410SOL     OW51040   9.474   3.160  11.088  0.1540  0.0905 -0.4008
15410SOL    HW151041   9.423   3.079  11.084 -0.6059  0.5905 -1.6699
15410SOL    HW251042   9.482   3.179  11.182 -1.2674 -0.4705 -0.1327
15411SOL     OW51043  10.557   7.463   9.230  0.9338 -0.3527 -0.0827
15411SOL    HW151044  10.646   7.478   9.261  0.6000 -0.1347  0.7796
15411SOL    HW251045  10.503   7.467   9.308  0.0277  0.5577 -0.7410
15412SOL     OW51046   2.365   0.152   2.463  0.0292 -0.4094 -0.2899
15412SOL    HW151047   2.453   0.113   2.458  1.6100  2.0510  3.5157
15412SOL    HW251048   2.320   0.101   2.530  1.2823  2.4005  2.9775
15413SOL     OW51049   4.929   6.291  12.566  0.4128 -0.5200  0.2907
15413SOL    HW151050   5.024   6.280  12.556  0.5032  0.5286 -0.2332
15413SOL    HW251051   4.917   6.386  12.568 -0.8495 -0.5366 -2.1845
15414SOL     OW51052   0.394   3.263   3.627 -0.1914  0.8038 -0.2857
15414SOL    HW151053   0.414   3.199   3.559 -0.0719 -0.0924  0.5790
15414SOL    HW251054   0.479   3.300   3.651 -0.1272  0.4502  0.0297
15415SOL     OW51055  11.760   3.231   0.302  0.3227  0.3438  0.1161
15415SOL    HW151056  11.839   3.249   0.352  1.2821 -0.1007 -1.1842
15415SOL    HW251057  11.746   3.137   0.311 -0.1620  0.4432  0.4704
15416SOL     OW51058  12.298   3.476   6.866 -0.6232  0.3189 -0.3754
15416SOL    HW151059  12.228   3.495   6.804 -1.6892 -1.5679  0.1666
15416SOL    HW251060  12.253   3.466   6.950 -0.1881 -3.3404 -0.3932
15417SOL     OW51061   6.089   3.174   7.617  0.2462 -0.1309  0.4379
15417SOL    HW151062   6.078   3.084   7.645 -1.1330 -0.4676 -1.0229
15417SOL    HW251063   6.086   3.225   7.698 -2.4734 -1.1179  1.0451
15418SOL     OW51064   4.576  11.896   9.865 -0.4602 -0.1041  0.1667
15418SOL    HW151065   4.615  11.944   9.792  0.7627 -2.5525 -0.9033
15418SOL    HW251066   4.495  11.858   9.829 -0.2825 -0.6314  0.3026
15419SOL     OW51067   2.608   3.522   3.174 -0.5375 -0.7583  0.3259
15419SOL    HW151068   2.572   3.514   3.086 -0.2567 -1.1093  0.2416
15419SOL    HW251069   2.650   3.438   3.192 -0.7154 -0.7399  0.8526
15420SOL     OW51070   9.834  10.238   5.020 -0.2843  0.1991  0.0074
15420SOL    HW151071   9.830  10.176   4.947 -0.3826  0.1281  0.0732
15420SOL    HW251072   9.842  10.324   4.979  1.1284  0.0518 -0.0813
15421SOL     OW51073   1.495   7.800   5.992 -0.3328  0.0028 -0.2217
15421SOL    HW151074   1.443   7.808   5.912 -1.9694  0.6609  0.8583
15421SOL    HW251075   1.573   7.854   5.976  0.0862 -1.0393 -1.8892
15422SOL     OW51076   7.221   8.423   5.254  0.4064 -0.5288  0.1286
15422SOL    HW151077   7.183   8.414   5.342  2.2482 -2.5499  0.8183
15422SOL    HW251078   7.178   8.356   5.202  0.8303 -0.7830  0.0980
15423SOL     OW51079   1.939   7.463  12.467  0.4804  0.3069 -0.2933
15423SOL    HW151080   2.004   7.451  12.397  1.5042  1.5429  0.4090
15423SOL    HW251081   1.876   7.526  12.432 -0.4558 -0.9712 -1.0154
15424SOL     OW51082   6.521  11.917   7.112  0.5349 -0.2705  0.2825
15424SOL    HW151083   6.568  11.893   7.192  0.3427  0.3012  0.5774
15424SOL    HW251084   6.586  11.960   7.058  1.4359 -3.1578 -1.1472
15425SOL     OW51085   2.346   1.170  11.521 -0.1476  0.1439  0.1388
15425SOL    HW151086   2.285   1.243  11.537  1.2655  1.2482  0.7316
15425SOL    HW251087   2.411   1.205  11.460  0.8388 -0.4309  0.8178
15426SOL     OW51088   1.713   3.051   1.186  0.0070 -0.1139 -0.3643
15426SOL    HW151089   1.624   3.074   1.159  0.7572  1.3170 -1.8055
15426SOL    HW251090   1.752   3.014   1.107  1.3908  1.4707 -0.4612
15427SOL     OW51091  10.215   4.095   0.553  0.7048 -0.1821 -0.2372
15427SOL    HW151092  10.147   4.030   0.573  0.5010  0.4576  1.2539
15427SOL    HW251093  10.262   4.107   0.635  0.5432  1.7925 -0.3856
15428SOL     OW51094   3.152   2.748   6.845  0.2444  0.0175  0.1211
15428SOL    HW151095   3.087   2.686   6.878  0.1816 -0.2427 -0.4742
15428SOL    HW251096   3.152   2.734   6.750  1.6594 -0.4762  0.1737
15429SOL     OW51097  11.973  12.302   7.684 -0.4965 -0.4071 -0.5100
15429SOL    HW151098  11.962  12.366   7.754  0.3180  0.6425 -1.3250
15429SOL    HW251099  12.026  12.346   7.619  1.2941 -2.3848 -0.4922
15430SOL     OW51100   7.535   5.661   4.684 -0.5385 -0.2588 -0.7467
15430SOL    HW151101   7.550   5.753   4.665  0.9091 -0.1167  0.8784
15430SOL    HW251102   7.596   5.614   4.628 -0.2848 -0.1543 -0.5567
15431SOL     OW51103   4.004   7.086   9.443  0.3142  0.0808 -0.1977
15431SOL    HW151104   4.008   7.083   9.538 -0.2485 -0.4269 -0.1822
15431SOL    HW251105   4.024   6.997   9.415 -0.1242  0.0812 -0.5265
15432SOL     OW51106   2.836   9.288   9.625  0.3386 -0.4070  0.6454
15432SOL    HW151107   2.744   9.293   9.599  0.2669 -3.3278  0.1019
15432SOL    HW251108   2.884   9.312   9.546  0.0659  0.0851  0.6222
15433SOL     OW51109   8.979  12.223  12.429  0.3480 -0.0194  0.1895
15433SOL    HW151110   8.951  12.225  12.338  2.3011 -0.6021 -0.4693
15433SOL    HW251111   8.914  12.170  12.474 -0.3239 -0.1981 -0.9730
15434SOL     OW51112   2.413   0.204   8.112  0.0739 -0.3233 -0.2582
15434SOL    HW151113   2.493   0.211   8.163  0.1084 -3.1497  0.2541
15434SOL    HW251114   2.344   0.235   8.170  0.5172 -0.2016  0.2067
15435SOL     OW51115   9.097   1.265   5.958 -0.0977  0.3386  0.0679
15435SOL    HW151116   9.004   1.285   5.958 -0.4546 -0.8812  2.6395
15435SOL    HW251117   9.105   1.187   5.902 -0.7406  0.0799  0.3283
15436SOL     OW51118   0.303  10.738  11.654 -0.2368  0.0768  0.1742
15436SOL    HW151119   0.298  10.759  11.748  0.6824  0.2872  0.1931
15436SOL    HW251120   0.396  10.747  11.633 -0.5065  0.5994 -0.8916
15437SOL     OW51121   1.555   1.689   0.749 -0.3000  0.0532 -0.4133
15437SOL    HW151122   1.519   1.773   0.720 -0.5482  0.2977  0.5750
15437SOL    HW251123   1.585   1.706   0.838  0.5014 -0.6663 -0.5352
15438SOL     OW51124  11.193  11.546   0.897  0.0157 -0.3522 -0.6561
15438SOL    HW151125  11.272  11.569   0.848 -0.3422 -0.9836 -1.5407
15438SOL    HW251126  11.213  11.462   0.938  0.4098  0.2923  0.5297
15439SOL     OW51127   4.555   0.674   9.371 -0.2125 -0.4520 -0.3503
15439SOL    HW151128   4.565   0.693   9.465 -0.9310 -0.2092 -0.3146
15439SOL    HW251129   4.625   0.724   9.330 -1.1313  1.1382 -0.1077
15440SOL     OW51130   2.832   8.282   3.267 -0.1830 -0.8344  0.2674
15440SOL    HW151131   2.765   8.241   3.213 -0.5086 -3.1056  2.2126
15440SOL    HW251132   2.792   8.285   3.355  1.3874 -0.0520  0.9802
15441SOL     OW51133   2.232   9.612   1.386 -0.3684 -0.3803  0.5625
15441SOL    HW151134   2.140   9.627   1.362  0.1610  1.9726 -0.2529
15441SOL    HW251135   2.242   9.516   1.385 -2.9115 -0.7246  1.1789
15442SOL     OW51136  11.022   5.765  10.104 -0.3788 -0.2030  0.0352
15442SOL    HW151137  11.011   5.744  10.197  0.0872 -0.9880 -0.0765
15442SOL    HW251138  11.070   5.690  10.068  0.3465  0.5644 -0.6326
15443SOL     OW51139   8.283   9.709   3.902  0.0734  0.3305  0.6358
15443SOL    HW151140   8.304   9.740   3.815 -0.5107 -1.2505 -0.1170
15443SOL    HW251141   8.289   9.786   3.958  1.6790  1.1287 -0.5735
15444SOL     OW51142   8.445   1.098   0.189 -0.1896  0.5954  0.7465
15444SOL    HW151143   8.364   1.072   0.232 -0.2810  1.4651  1.0976
15444SOL    HW251144   8.513   1.048   0.234 -0.7072 -1.8749 -0.9931
15445SOL     OW51145   8.089   7.062   2.954 -0.4418 -0.4417  0.5767
15445SOL    HW151146   8.137   7.070   3.037 -0.2126 -0.9082  0.4931
15445SOL    HW251147   7.999   7.043   2.981 -0.6030  0.4808  0.7354
15446SOL     OW51148   4.946   3.769   4.759  0.1248 -0.4034 -0.0686
15446SOL    HW151149   4.853   3.779   4.777  0.0267  0.8688 -1.1489
15446SOL    HW251150   4.952   3.692   4.704 -0.2049 -0.8628  0.5250
15447SOL     OW51151  10.697   2.771   3.728  0.4029  0.1201  0.5488
15447SOL    HW151152  10.701   2.864   3.704 -1.0460 -0.3456 -1.8428
15447SOL    HW251153  10.759   2.763   3.800  1.8292  2.6173 -0.2478
15448SOL     OW51154  10.549   6.115   3.277 -0.5053 -0.1766 -0.0689
15448SOL    HW151155  10.615   6.158   3.332 -0.0069  0.1402 -0.8909
15448SOL    HW251156  10.529   6.033   3.323 -1.3596  0.8467  1.4432
15449SOL     OW51157   6.462   3.392   8.626 -0.3938  0.9241 -0.0996
15449SOL    HW151158   6.485   3.350   8.709  0.8412  0.8778 -0.4510
15449SOL    HW251159   6.467   3.485   8.644  1.3445  0.9438 -0.4632
15450SOL     OW51160  10.192  10.549   5.910  0.2718 -0.4888  0.2387
15450SOL    HW151161  10.274  10.501   5.904  1.1911  1.1599 -1.0121
15450SOL    HW251162  10.179  10.586   5.823 -1.3460  0.0104  0.6593
15451SOL     OW51163   2.033   6.453  10.920 -0.1932  0.4820  0.4762
15451SOL    HW151164   2.043   6.390  10.992  0.0181  1.4504  1.3143
15451SOL    HW251165   1.971   6.412  10.861 -0.1984 -0.4398  1.1014
15452SOL     OW51166   7.213  10.790  12.366  0.0506  0.4090 -0.6795
15452SOL    HW151167   7.148  10.721  12.377  0.8296  0.0542  3.0883
15452SOL    HW251168   7.279  10.751  12.308  0.2735 -1.9249  1.0116
15453SOL     OW51169   5.323   7.110   5.449  0.4161  1.3164 -0.0330
15453SOL    HW151170   5.373   7.056   5.387  0.0892  1.6094 -0.5612
15453SOL    HW251171   5.256   7.151   5.395 -0.9946  0.2215  0.8066
15454SOL     OW51172  12.313  11.412  10.382  0.0260 -0.2362  0.2877
15454SOL    HW151173  12.345  11.502  10.376  0.9235 -0.5062  0.8187
15454SOL    HW251174  12.330  11.375  10.295  0.3048 -0.0932  0.2780
15455SOL     OW51175   8.002  10.760   3.109 -0.0889  0.5702  0.6647
15455SOL    HW151176   7.932  10.698   3.089  0.4302  0.3077 -0.4050
15455SOL    HW251177   8.082  10.716   3.082  0.3683  1.3740  0.6721
15456SOL     OW51178   2.748   4.705  10.436  0.4479  0.9814 -0.0054
15456SOL    HW151179   2.728   4.657  10.517  1.2157  2.0920  0.8626
15456SOL    HW251180   2.687   4.668  10.371  1.0277 -1.1820  0.6020
15457SOL     OW51181   5.969   6.736  11.539 -0.6909  0.0036  0.7770
15457SOL    HW151182   5.945   6.667  11.600 -1.8771 -0.6950 -0.4476
15457SOL    HW251183   5.886   6.773  11.510 -0.1591  0.3307 -0.3987
15458SOL     OW51184   4.488  11.417   2.951 -0.3264  0.2722 -0.5065
15458SOL    HW151185   4.510  11.423   3.044 -2.5289  1.1623  0.0285
15458SOL    HW251186   4.403  11.461   2.944 -0.1460  0.3668 -2.9789
15459SOL     OW51187   4.615   8.216   8.328  0.0333 -0.0997 -0.0294
15459SOL    HW151188   4.600   8.123   8.316  1.1758 -0.3119  0.1416
15459SOL    HW251189   4.699   8.233   8.286 -0.4107  0.9582 -0.5263
15460SOL     OW51190  12.469   0.987   8.119 -0.2609 -1.0352 -0.0583
15460SOL    HW151191  12.468   1.049   8.192  2.1085  1.0588 -1.6336
15460SOL    HW251192  12.380   0.992   8.082 -0.5121  0.4297  0.6747
15461SOL     OW51193   5.036  10.133   8.275 -0.2624 -0.1871 -0.3773
15461SOL    HW151194   5.071  10.044   8.263  1.0857  0.3078 -0.2171
15461SOL    HW251195   4.942  10.119   8.290  0.0581 -1.6608  0.5458
15462SOL     OW51196  11.677  10.950   8.216 -0.0756 -0.1117 -0.3378
15462SOL    HW151197  11.664  10.916   8.128 -2.1155 -0.1920 -0.0450
15462SOL    HW251198  11.772  10.951   8.227  0.1876 -1.2232 -2.0832
15463SOL     OW51199   9.859   4.403   0.909  0.4606  0.4409  0.4650
15463SOL    HW151200   9.832   4.429   0.997 -1.0555  0.2572  0.0831
15463SOL    HW251201   9.879   4.485   0.865  0.3063  0.6095  0.7024
15464SOL     OW51202  12.224   2.027   8.467 -0.6061 -0.6464 -0.6523
15464SOL    HW151203  12.181   1.942   8.458  0.2063 -1.0423 -0.9176
15464SOL    HW251204  12.253   2.048   8.378 -1.0167  0.0369 -0.6348
15465SOL     OW51205   5.386   4.496   5.861 -0.0168 -0.7277 -0.4264
15465SOL    HW151206   5.328   4.421   5.846 -0.1898 -0.6207 -0.3008
15465SOL    HW251207   5.359   4.530   5.946  1.7200 -2.0169  0.7142
15466SOL     OW51208   4.870   1.839   5.109  0.4233 -0.2405 -0.4753
15466SOL    HW151209   4.825   1.832   5.193 -1.9641  2.7719 -1.3083
15466SOL    HW251210   4.921   1.920   5.116  3.6996 -2.1079 -0.5811
15467SOL     OW51211  12.601  10.154   7.320  0.4510  0.0193  0.5088
15467SOL    HW151212  12.522  10.099   7.314 -0.6283  1.5947 -0.4330
15467SOL    HW251213  12.593  10.198   7.405 -0.2803  1.0032 -0.0532
15468SOL     OW51214   2.947   7.795   0.617  0.4326  0.4594 -0.3616
15468SOL    HW151215   2.904   7.847   0.685  1.5128  2.6812 -1.2584
15468SOL    HW251216   2.891   7.805   0.540  0.2862 -0.3191 -0.3600
15469SOL     OW51217   5.153   7.688   3.209  0.0423 -0.1740  0.1884
15469SOL    HW151218   5.131   7.741   3.286  2.0749 -0.7509  1.2354
15469SOL    HW251219   5.090   7.616   3.212 -1.7882  1.2865 -0.4135
15470SOL     OW51220   6.392   4.321   3.844 -0.0001  0.2773 -0.2821
15470SOL    HW151221   6.337   4.392   3.879 -0.4487  0.6232 -1.6092
15470SOL    HW251222   6.333   4.246   3.839  0.2935 -0.0071  0.4963
15471SOL     OW51223  10.933  11.216  10.600  0.3566  0.2963 -0.3045
15471SOL    HW151224  11.012  11.255  10.564  0.3626 -0.8335 -1.5572
15471SOL    HW251225  10.897  11.285  10.657  1.9829  0.9801 -0.0419
15472SOL     OW51226  11.054  10.532   9.830 -0.0261  0.3362  0.0073
15472SOL    HW151227  11.105  10.456   9.803 -0.2764  0.0353  0.3656
15472SOL    HW251228  11.089  10.554   9.917  0.7553  1.2732 -0.5196
15473SOL     OW51229   6.780   0.600   1.789 -0.2313 -0.4010 -0.1891
15473SOL    HW151230   6.816   0.512   1.790 -0.6967 -0.5916  0.0705
15473SOL    HW251231   6.837   0.649   1.729  0.5115 -0.6674  0.2897
15474SOL     OW51232   0.856   2.406   2.780 -0.2555 -0.3876  0.0070
15474SOL    HW151233   0.825   2.487   2.739 -2.1487 -1.2575 -0.4213
15474SOL    HW251234   0.951   2.412   2.778 -0.3335  0.9670 -1.7598
15475SOL     OW51235   5.463   1.883   9.978 -0.7120  0.3332  0.5631
15475SOL    HW151236   5.540   1.915   9.932  1.0063 -1.9540  1.6000
15475SOL    HW251237   5.474   1.914  10.068 -1.1105  0.1736  0.6698
15476SOL     OW51238  10.662  10.348   1.647 -0.3127 -0.1929 -0.0501
15476SOL    HW151239  10.627  10.406   1.714  2.0008  1.2361  0.0226
15476SOL    HW251240  10.673  10.264   1.690 -2.3790 -0.3687  0.2413
15477SOL     OW51241  12.009   3.699   2.440  0.5001 -0.4919 -0.1216
15477SOL    HW151242  11.925   3.736   2.413  0.3121 -1.2016 -0.5335
15477SOL    HW251243  12.024   3.625   2.381  0.5276 -1.5184  1.1088
15478SOL     OW51244   9.810   1.297  11.202  0.6603  0.1120 -0.3514
15478SOL    HW151245   9.894   1.262  11.174  1.2012 -1.2225  2.5019
15478SOL    HW251246   9.757   1.219  11.223 -0.1674  0.9360  0.7563
15479SOL     OW51247   6.562   9.795   5.416 -0.0878 -0.3447  0.5647
15479SOL    HW151248   6.495   9.760   5.357  0.1519 -1.1917  0.7790
15479SOL    HW251249   6.642   9.749   5.392  0.7826  1.6644 -0.6523
15480SOL     OW51250   9.582   1.931  10.827 -0.4247 -0.3791  0.1614
15480SOL    HW151251   9.595   1.904  10.736  1.2058  1.0213 -0.0778
15480SOL    HW251252   9.665   1.911  10.870 -0.2260  1.3687  0.6768
15481SOL     OW51253  10.186   5.906  11.235 -0.1729  0.2437  0.2293
15481SOL    HW151254  10.168   5.904  11.329 -1.7381  1.0209 -0.0311
15481SOL    HW251255  10.280   5.925  11.230  0.2482 -1.2573  1.6261
15482SOL     OW51256   2.924   2.822   1.260 -0.2825  0.8210 -0.0136
15482SOL    HW151257   2.924   2.904   1.309 -2.5435  1.9186 -1.6471
15482SOL    HW251258   2.863   2.765   1.307  0.4661  0.4461  0.5218
15483SOL     OW51259   5.676   2.550   4.181  0.6175  0.0462  0.1269
15483SOL    HW151260   5.672   2.520   4.272  1.0146  0.0557  0.1481
15483SOL    HW251261   5.599   2.606   4.171 -2.5416 -3.9840 -1.0370
15484SOL     OW51262   4.341   4.235   6.214 -0.0402  0.1636  0.0764
15484SOL    HW151263   4.248   4.218   6.200 -0.1696  0.5343  0.4499
15484SOL    HW251264   4.344   4.290   6.292  0.5597 -0.6947  0.6861
15485SOL     OW51265   5.032   4.489   4.318  0.0320 -0.1216 -0.2231
15485SOL    HW151266   5.022   4.507   4.411  1.0867  1.6686 -0.4116
15485SOL    HW251267   4.947   4.511   4.280 -0.1155  0.0529  0.2040
15486SOL     OW51268   8.087   3.694  10.374  0.2647 -0.4278 -0.0240
15486SOL    HW151269   8.126   3.782  10.374  1.9910 -1.1049 -2.0212
15486SOL    HW251270   8.000   3.706  10.336  0.3706  0.4683 -0.0069
15487SOL     OW51271   2.723  10.301  11.735  0.3867  0.1914  0.8378
15487SOL    HW151272   2.813  10.315  11.764  0.4740  1.1881  0.1472
15487SOL    HW251273   2.728  10.222  11.681  0.3026 -1.3932  3.0278
15488SOL     OW51274  11.527   0.657   6.862 -0.2146 -0.3393 -0.4117
15488SOL    HW151275  11.581   0.614   6.796  1.3427 -1.3126  1.3878
15488SOL    HW251276  11.439   0.655   6.826  0.7950  0.7595 -3.2089
15489SOL     OW51277   6.844   2.826   1.437 -0.1658  0.5180  0.1235
15489SOL    HW151278   6.807   2.746   1.475  0.0931 -0.3569 -1.3874
15489SOL    HW251279   6.936   2.804   1.421  0.2190  1.5577  0.8205
15490SOL     OW51280   4.923   8.774   1.285  0.5980 -0.3314  0.0598
15490SOL    HW151281   4.854   8.707   1.280  0.8475 -0.6980  1.1381
15490SOL    HW251282   4.975   8.761   1.206  1.8640 -2.8336  1.1860
15491SOL     OW51283   1.804   1.184   0.957 -0.4349  0.0057 -0.1346
15491SOL    HW151284   1.796   1.196   0.862 -3.0603 -3.1549 -0.4978
15491SOL    HW251285   1.719   1.213   0.991 -0.3540 -0.9358  0.9158
15492SOL     OW51286   0.146   7.106   8.757 -0.1770 -0.4394  0.2234
15492SOL    HW151287   0.242   7.104   8.757 -0.1595 -0.7875 -1.2354
15492SOL    HW251288   0.122   7.104   8.849  1.2197 -0.3144  0.6154
15493SOL     OW51289   2.661   1.742   0.045  0.3983  0.5392 -0.1573
15493SOL    HW151290   2.651   1.834   0.068 -1.2969  0.6405 -1.1486
15493SOL    HW251291   2.651   1.740  -0.050 -0.6990 -0.7966 -0.0364
15494SOL     OW51292   5.462   9.951  10.736  0.5808  0.1041  0.4805
15494SOL    HW151293   5.382   9.952  10.683  1.4518 -0.8602 -0.9274
15494SOL    HW251294   5.532   9.970  10.673  1.2925  4.0456  2.1401
15495SOL     OW51295  12.309   8.667   7.199  0.0305  0.6629  0.4478
15495SOL    HW151296  12.233   8.639   7.251  0.2256  1.1209  0.9908
15495SOL    HW251297  12.357   8.586   7.181 -0.1302  0.4784  0.8430
15496SOL     OW51298   1.202  12.578   8.044  0.3933  0.1393 -0.1332
15496SOL    HW151299   1.192  12.653   8.104 -0.8402  0.1139 -0.2846
15496SOL    HW251300   1.291  12.586   8.011  0.8928  0.5187  1.2233
15497SOL     OW51301   6.947   6.843  11.803  0.3422 -0.0169  0.4973
15497SOL    HW151302   6.907   6.919  11.760 -0.1272 -1.4122 -1.6634
15497SOL    HW251303   7.027   6.877  11.842  0.2058  1.5776 -0.5177
15498SOL     OW51304   4.654   0.673  12.290  0.1809 -0.3050  0.7460
15498SOL    HW151305   4.662   0.619  12.369 -0.5539 -1.5056  0.0283
15498SOL    HW251306   4.562   0.700  12.290  0.7716  1.9598  1.6998
15499SOL     OW51307  10.515  11.218   1.098 -0.1282 -0.1840  0.2308
15499SOL    HW151308  10.585  11.259   1.149  0.0022  0.4565 -0.4414
15499SOL    HW251309  10.499  11.134   1.141  0.1249  0.2482  1.1880
15500SOL     OW51310   2.140  12.290   7.513 -0.5735 -0.0488  0.3249
15500SOL    HW151311   2.104  12.331   7.592 -0.1198 -0.3533  0.6944
15500SOL    HW251312   2.084  12.215   7.496 -0.5848 -0.0654  0.4410
15501SOL     OW51313   3.268  10.734   1.607  0.2987  0.4493 -0.5714
15501SOL    HW151314   3.266  10.685   1.689 -3.3990 -0.7323 -1.1618
15501SOL    HW251315   3.183  10.716   1.566  0.8026  3.3063 -3.3150
15502SOL     OW51316   1.832   8.116   4.725  0.2377 -0.1422  0.1618
15502SOL    HW151317   1.806   8.049   4.662  0.6678 -0.7563  0.6310
15502SOL    HW251318   1.899   8.167   4.678 -0.4824  0.3091 -0.3897
15503SOL     OW51319   3.850  11.350   8.252  0.0614 -0.3450  0.6789
15503SOL    HW151320   3.781  11.286   8.266  0.3677 -1.0906 -0.9971
15503SOL    HW251321   3.811  11.434   8.275 -1.4484 -0.7354 -0.3449
15504SOL     OW51322   8.004   9.144   6.002  0.4153  0.1401  0.1394
15504SOL    HW151323   7.951   9.213   6.044 -0.3475  0.1206 -0.7481
15504SOL    HW251324   7.973   9.063   6.042 -1.4241 -0.0361 -1.4874
15505SOL     OW51325   3.685   0.929   5.760  0.3342 -0.2536 -0.1664
15505SOL    HW151326   3.699   1.017   5.723 -2.4801  0.9141  1.2419
15505SOL    HW251327   3.593   0.911   5.743  0.3183 -2.0095  1.5023
15506SOL     OW51328  11.520   7.968   2.667 -0.1865 -0.2490 -0.2032
15506SOL    HW151329  11.602   8.008   2.638  0.3869 -1.2164  0.0713
15506SOL    HW251330  11.507   7.895   2.607 -1.9607  1.1082 -1.6034
15507SOL     OW51331   2.533   5.326   5.886  0.1014 -0.1370 -0.1096
15507SOL    HW151332   2.530   5.387   5.960  0.8539 -1.0012  0.6561
15507SOL    HW251333   2.547   5.382   5.810 -4.0429  1.1878 -0.1708
15508SOL     OW51334   7.737   7.370   5.459  0.1487  0.7986  0.6638
15508SOL    HW151335   7.643   7.365   5.447  0.3524 -1.3674 -0.4889
15508SOL    HW251336   7.774   7.328   5.381  1.9650 -0.8564  2.2915
15509SOL     OW51337   9.815   9.508   5.420  0.0110 -0.3218  0.6185
15509SOL    HW151338   9.795   9.520   5.327 -2.1415  0.3383  1.1104
15509SOL    HW251339   9.804   9.414   5.436  2.0123 -0.7248 -0.0884
15510SOL     OW51340   1.993   2.785   2.444  0.0001 -0.3671 -0.2927
15510SOL    HW151341   2.030   2.841   2.376 -0.9038  0.5159 -0.0695
15510SOL    HW251342   2.019   2.828   2.526 -2.4792  0.9653 -0.1281
15511SOL     OW51343   0.309   9.457   4.488  0.2514 -0.1884  0.6213
15511SOL    HW151344   0.297   9.486   4.397 -0.4455 -2.0638  0.0532
15511SOL    HW251345   0.237   9.496   4.536  1.2442  1.7257  0.6425
15512SOL     OW51346   4.382   4.897   2.445 -0.3115 -0.2230  0.1761
15512SOL    HW151347   4.326   4.940   2.380  1.1034 -0.5715 -1.3360
15512SOL    HW251348   4.323   4.876   2.517 -1.7388  1.0720 -0.5620
15513SOL     OW51349  11.170   1.293  11.021 -0.1796 -0.2244  0.3835
15513SOL    HW151350  11.198   1.326  10.935 -2.8737  0.1446 -0.4426
15513SOL    HW251351  11.194   1.363  11.082 -0.8938  0.8709 -0.5382
15514SOL     OW51352  10.475  11.863   3.090 -0.2233 -0.6853  0.4137
15514SOL    HW151353  10.435  11.792   3.141 -1.3704 -0.6004 -0.3152
15514SOL    HW251354  10.463  11.836   2.999 -0.7196  0.4522  0.1272
15515SOL     OW51355   2.408   6.917   1.408 -0.3869 -0.0847  0.1617
15515SOL    HW151356   2.496   6.906   1.442 -0.9586  0.0545  1.7976
15515SOL    HW251357   2.412   6.994   1.352  0.2950  0.6079  1.1453
15516SOL     OW51358   1.328   4.297   2.569  0.6595 -0.0344 -0.2202
15516SOL    HW151359   1.243   4.284   2.611  0.6904 -1.2731 -0.4971
15516SOL    HW251360   1.364   4.375   2.611 -0.5548  0.4260 -0.0029
15517SOL     OW51361   9.212   6.297   0.222 -0.1758  0.5135  0.2145
15517SOL    HW151362   9.157   6.229   0.260  0.0413 -0.1573 -0.6467
15517SOL    HW251363   9.269   6.326   0.294 -0.7908  0.3344  0.7780
15518SOL     OW51364   0.648   7.463   4.902  0.5704 -0.2161  0.4457
15518SOL    HW151365   0.555   7.474   4.921  0.8311  1.6310  0.9505
15518SOL    HW251366   0.668   7.374   4.929 -1.3535 -1.1909 -1.1406
15519SOL     OW51367   2.002   2.110   7.067  0.4739 -0.7796 -0.0161
15519SOL    HW151368   2.033   2.161   7.142  1.1387 -0.6805 -0.3453
15519SOL    HW251369   2.032   2.021   7.085  0.7207 -0.7358 -0.2104
15520SOL     OW51370   2.959   6.498  10.499 -0.6373 -0.2944 -0.5145
15520SOL    HW151371   2.915   6.583  10.508 -0.6403 -0.2487 -0.9446
15520SOL    HW251372   2.931   6.465  10.413  0.0071 -0.3513 -0.7098
15521SOL     OW51373   3.625   6.607   4.852 -0.2437 -0.3240 -1.0284
15521SOL    HW151374   3.612   6.555   4.931  0.1324  2.2294  0.8032
15521SOL    HW251375   3.545   6.593   4.801 -1.2335 -0.7348  0.5788
15522SOL     OW51376   6.939   3.226   7.949  0.4722  0.4676 -0.5441
15522SOL    HW151377   6.900   3.237   7.862 -0.4630 -0.5207 -0.2713
15522SOL    HW251378   6.918   3.136   7.973  1.8000  0.3306  0.1881
15523SOL     OW51379   6.340   9.407  11.142 -0.3107  0.2510  0.2638
15523SOL    HW151380   6.261   9.356  11.159 -0.5406  0.5446  0.0890
15523SOL    HW251381   6.308   9.492  11.111  0.0598 -0.6873 -3.0340
15524SOL     OW51382   5.430   5.490  11.387  0.3474  1.0051 -0.1534
15524SOL    HW151383   5.441   5.432  11.462  1.0947  0.1909 -0.8689
15524SOL    HW251384   5.337   5.512  11.387  0.3222  0.9519  0.9506
15525SOL     OW51385  12.377   0.085   7.639 -0.2446  0.2021  0.5038
15525SOL    HW151386  12.341   0.108   7.554  0.7794 -0.7802 -0.2153
15525SOL    HW251387  12.314   0.023   7.676 -0.6257  0.5350  0.4211
15526SOL     OW51388  10.239   8.030   6.629  0.0191 -0.5623  0.4680
15526SOL    HW151389  10.189   7.962   6.584 -0.3995  0.8205 -1.2861
15526SOL    HW251390  10.220   8.017   6.722 -0.4657 -2.4777  0.1364
15527SOL     OW51391  10.864   3.521   8.132  0.5452  0.2174  0.0625
15527SOL    HW151392  10.924   3.547   8.062 -0.2216  1.2872 -0.2345
15527SOL    HW251393  10.777   3.526   8.091  0.2667 -1.7362  0.3502
15528SOL     OW51394   5.420  11.366   5.791  0.0570  0.6123 -0.0621
15528SOL    HW151395   5.478  11.305   5.839  0.3637  0.1055 -1.0402
15528SOL    HW251396   5.477  11.440   5.769 -0.4578  1.5614  1.6256
15529SOL     OW51397   7.149   1.999   9.164  0.7188 -0.1841 -0.1347
15529SOL    HW151398   7.130   1.998   9.070  0.4861  0.3419 -0.0946
15529SOL    HW251399   7.140   2.091   9.190 -0.0271 -0.4415  0.5589
15530SOL     OW51400   7.728   3.130   0.993  0.1846  0.4005 -0.0833
15530SOL    HW151401   7.786   3.094   1.061  0.0364 -0.1119 -0.2255
15530SOL    HW251402   7.687   3.053   0.953  1.1295  0.6098 -1.5308
15531SOL     OW51403   4.242   1.079  10.422 -0.5655 -0.3825  0.4631
15531SOL    HW151404   4.228   1.173  10.423  0.4257 -0.2303  0.9696
15531SOL    HW251405   4.182   1.047  10.354 -0.0548  0.7512 -0.5685
15532SOL     OW51406   8.970   5.505   8.213 -0.1783 -0.3345 -0.5319
15532SOL    HW151407   9.030   5.481   8.143  0.3424 -1.2645  0.2040
15532SOL    HW251408   8.934   5.421   8.243 -2.0322  0.2066 -1.1053
15533SOL     OW51409   5.657   6.486   0.303  0.6470 -0.4879  0.1881
15533SOL    HW151410   5.717   6.421   0.267  0.6972  0.1022 -0.8174
15533SOL    HW251411   5.662   6.473   0.398 -0.0253 -2.5366 -0.0124
15534SOL     OW51412  11.867   6.873   6.161 -0.2921 -0.3016  0.1365
15534SOL    HW151413  11.943   6.835   6.117 -0.0384 -0.6447  0.8620
15534SOL    HW251414  11.903   6.919   6.236 -0.6031  1.2724 -0.6303
15535SOL     OW51415   6.993  10.062   0.474  0.1729 -0.1065  0.1094
15535SOL    HW151416   7.063  10.127   0.487  1.4524 -1.2733 -0.7066
15535SOL    HW251417   7.006  10.031   0.385 -1.8450  0.1214 -0.3163
15536SOL     OW51418   4.095   3.569   7.574 -0.5819 -0.1211 -0.0797
15536SOL    HW151419   4.170   3.600   7.623 -1.4111  0.9062  0.5677
15536SOL    HW251420   4.072   3.485   7.615 -0.8333  0.3866  0.8347
15537SOL     OW51421  11.453   4.001   8.599  0.7182 -0.1886  0.0010
15537SOL    HW151422  11.450   3.935   8.669 -2.2053 -1.2000 -0.9684
15537SOL    HW251423  11.462   4.084   8.646 -0.3229 -0.9031  1.5437
15538SOL     OW51424   9.221  12.149   5.820  0.5635 -0.3557  0.5322
15538SOL    HW151425   9.171  12.080   5.776  1.4983 -0.4793 -0.3868
15538SOL    HW251426   9.162  12.224   5.822  0.1060 -0.6967  0.0680
15539SOL     OW51427   3.707   5.964  11.538  0.5195 -0.1602  0.3651
15539SOL    HW151428   3.784   5.925  11.497 -0.9233 -1.6172 -1.0739
15539SOL    HW251429   3.663   6.011  11.468  0.8351  1.9550  1.5118
15540SOL     OW51430   6.430  12.327   1.835 -0.0729  0.6950 -0.2252
15540SOL    HW151431   6.367  12.388   1.798 -0.3301 -1.3017 -3.5194
15540SOL    HW251432   6.515  12.371   1.827 -0.5770  1.8330  0.5033
15541SOL     OW51433  11.850   7.872   6.411 -1.1685  0.7929 -0.3753
15541SOL    HW151434  11.804   7.905   6.488  0.3287 -0.7575  1.2498
15541SOL    HW251435  11.816   7.926   6.339 -3.6688  1.3400  1.0925
15542SOL     OW51436   8.959   3.459   9.965 -0.2610 -0.0848  0.0435
15542SOL    HW151437   8.953   3.404   9.887  1.3510 -1.9846  1.1659
15542SOL    HW251438   8.980   3.398  10.036 -0.4935  1.7348  1.7715
15543SOL     OW51439   8.709  10.660   0.046 -0.1664  0.4835 -0.5295
15543SOL    HW151440   8.760  10.734   0.078 -0.1064 -0.0507  0.6685
15543SOL    HW251441   8.618  10.688   0.056 -0.1680  1.3598 -2.4842
15544SOL     OW51442   4.832   9.034   1.559 -0.2418  0.1742 -0.0658
15544SOL    HW151443   4.860   9.099   1.623  0.2360  0.4413 -0.5332
15544SOL    HW251444   4.772   9.082   1.502 -0.8416 -0.1221  0.3101
15545SOL     OW51445   3.341  10.917   0.347 -0.2399  0.2712 -0.4987
15545SOL    HW151446   3.250  10.908   0.374 -0.4485 -1.7485 -1.6694
15545SOL    HW251447   3.349  11.008   0.318 -2.0722  0.2976 -1.0328
15546SOL     OW51448   3.651   9.288   2.394 -0.0382 -0.7934 -0.3072
15546SOL    HW151449   3.737   9.262   2.361 -0.2848  0.1521 -1.7739
15546SOL    HW251450   3.600   9.207   2.394  0.3876 -1.0696 -0.9538
15547SOL     OW51451   0.039  12.577   5.328 -0.1077 -0.0734 -0.1450
15547SOL    HW151452   0.059  12.619   5.412 -0.4352  0.3274 -0.2606
15547SOL    HW251453   0.090  12.496   5.328  0.2220  0.1323  0.2584
15548SOL     OW51454   6.733  10.940   3.489 -0.4468 -0.0190 -0.3611
15548SOL    HW151455   6.794  10.879   3.530 -0.7143  0.8439  1.4460
15548SOL    HW251456   6.784  11.019   3.475 -1.0232  0.5967  0.8602
15549SOL     OW51457   5.324   1.197  12.313  0.0724 -0.2161  0.0448
15549SOL    HW151458   5.255   1.131  12.320  0.2540 -0.3080  1.2404
15549SOL    HW251459   5.402   1.154  12.351  0.9481 -0.2997 -1.7412
15550SOL     OW51460   4.707  11.440   8.950 -0.4753 -0.2748 -0.1575
15550SOL    HW151461   4.793  11.430   8.909 -0.0931  0.6735  0.3834
15550SOL    HW251462   4.724  11.434   9.044 -1.0239 -0.1936 -0.0497
15551SOL     OW51463   4.677  11.243  12.539 -0.1326  0.4348 -0.1690
15551SOL    HW151464   4.762  11.199  12.550 -0.4134 -0.5361 -1.5970
15551SOL    HW251465   4.632  11.191  12.473 -1.3801  1.6341 -0.2971
15552SOL     OW51466  10.537   1.762   3.308 -0.1988  0.5112  0.1236
15552SOL    HW151467  10.580   1.786   3.389  0.7672  0.2627 -0.3011
15552SOL    HW251468  10.589   1.691   3.272 -0.4645  0.7691 -0.8314
15553SOL     OW51469   9.222   0.221   5.753 -0.2919 -0.0363  0.2034
15553SOL    HW151470   9.134   0.219   5.791 -0.2028  1.2691  0.5184
15553SOL    HW251471   9.280   0.207   5.827 -0.2267 -0.8670 -0.0007
15554SOL     OW51472   2.336   8.884  10.981 -0.1368  0.2064  0.3680
15554SOL    HW151473   2.298   8.820  11.042  0.6430 -0.8604 -0.2270
15554SOL    HW251474   2.269   8.895  10.914 -0.3561  0.1638  0.5759
15555SOL     OW51475   9.734  12.497  10.170 -0.4498 -0.5628 -0.0339
15555SOL    HW151476   9.793  12.505  10.095  0.0960 -2.1272  0.2089
15555SOL    HW251477   9.663  12.559  10.151  0.5729  0.3608 -0.9686
15556SOL     OW51478   9.926   8.555   9.938  0.4884  0.0471 -0.3455
15556SOL    HW151479   9.948   8.626   9.877 -1.5091  0.0783 -1.0968
15556SOL    HW251480   9.880   8.599  10.009  2.3939 -0.0600  1.0192
15557SOL     OW51481   1.387   0.424   4.451 -0.3286  0.0801  0.0279
15557SOL    HW151482   1.321   0.362   4.421  0.1910 -0.4331 -0.0712
15557SOL    HW251483   1.402   0.402   4.543 -0.8141  0.6661  0.2563
15558SOL     OW51484   8.700   2.498   5.150 -0.0780  0.1777 -0.1050
15558SOL    HW151485   8.718   2.590   5.129 -0.4185  0.0095 -1.1773
15558SOL    HW251486   8.786   2.459   5.164  0.0473  0.7641  0.8582
15559SOL     OW51487   4.904   0.283   8.707 -0.4993  0.0465  0.3137
15559SOL    HW151488   4.900   0.189   8.725  0.0505 -0.3306 -1.3145
15559SOL    HW251489   4.815   0.305   8.678  0.0460 -0.6754 -2.1718
15560SOL     OW51490   9.684  12.080   2.096 -0.1415  0.0228  0.2121
15560SOL    HW151491   9.688  12.091   2.001  0.2289  0.1732  0.2435
15560SOL    HW251492   9.707  12.166   2.131 -1.4300  0.2968  0.4332
15561SOL     OW51493   4.014   3.515  12.177  0.0858 -0.4458 -0.7240
15561SOL    HW151494   4.103   3.493  12.149  0.6308 -0.0535  0.6138
15561SOL    HW251495   4.021   3.528  12.272 -0.8377  2.1822 -0.9194
15562SOL     OW51496   8.695   2.295   0.407 -0.9141 -0.0249  0.2166
15562SOL    HW151497   8.784   2.330   0.411 -0.4942 -0.9998 -0.4512
15562SOL    HW251498   8.706   2.200   0.408 -1.9195 -0.1633 -0.4434
15563SOL     OW51499   7.273   2.931   8.597 -0.2223 -0.6317 -0.1059
15563SOL    HW151500   7.191   2.897   8.561  0.1788 -2.0617  0.2502
15563SOL    HW251501   7.341   2.873   8.561  0.7114  0.8106 -0.7820
15564SOL     OW51502   4.089   8.092   8.237 -0.7669  0.6520  0.3715
15564SOL    HW151503   4.170   8.136   8.213  0.6073 -1.0357  1.6477
15564SOL    HW251504   4.103   8.000   8.213 -1.0978 -0.2481  3.2065
15565SOL     OW51505   0.174   5.343   3.807 -0.2700  0.2124 -0.3668
15565SOL    HW151506   0.164   5.434   3.777  1.9400  0.2389 -1.2099
15565SOL    HW251507   0.212   5.297   3.732 -1.1884 -1.4130  0.1046
15566SOL     OW51508   8.953   1.540  12.389  0.1945  0.0635  0.8672
15566SOL    HW151509   8.893   1.574  12.323 -0.4061 -0.6290  1.0474
15566SOL    HW251510   8.996   1.618  12.426 -0.6063  0.5580  0.7631
15567SOL     OW51511   9.027   0.895   5.864  0.4548 -0.1681  0.0132
15567SOL    HW151512   9.017   0.851   5.948  1.6533  3.1257  2.0852
15567SOL    HW251513   9.121   0.895   5.847  0.4254  0.9259 -0.2575
15568SOL     OW51514  11.724   0.631   5.115  0.1413 -0.0752 -0.2218
15568SOL    HW151515  11.726   0.640   5.019 -2.0537  0.3294 -0.2981
15568SOL    HW251516  11.691   0.543   5.130  0.1169 -0.0048  0.1520
15569SOL     OW51517   9.663   6.827   5.616  0.3881 -0.3694 -0.7235
15569SOL    HW151518   9.735   6.869   5.568  1.5303  0.2598  1.3883
15569SOL    HW251519   9.626   6.897   5.670 -0.1240 -1.2511  0.1025
15570SOL     OW51520   8.844  11.687   1.495  0.5402  0.2387 -0.2882
15570SOL    HW151521   8.883  11.765   1.533 -1.6580  0.5158  1.6516
15570SOL    HW251522   8.876  11.615   1.550  1.6319 -0.1130 -1.3450
15571SOL     OW51523   8.254   1.486   6.817 -0.1399 -0.2567 -0.0385
15571SOL    HW151524   8.248   1.581   6.819  2.4524  0.0439 -1.7882
15571SOL    HW251525   8.164   1.457   6.798 -1.0305  1.7864  0.8109
15572SOL     OW51526   6.994   2.189  10.473  0.3173  0.3265 -0.0529
15572SOL    HW151527   6.982   2.128  10.399  1.5662 -2.1413  1.6365
15572SOL    HW251528   6.965   2.139  10.549  0.4294  2.2839  1.3396
15573SOL     OW51529  10.788   0.209  12.321  0.2104 -0.7349 -0.4067
15573SOL    HW151530  10.764   0.141  12.257 -0.9826 -0.5910 -0.1223
15573SOL    HW251531  10.792   0.163  12.405  0.5498 -0.6774 -0.3899
15574SOL     OW51532   7.395   7.382   3.978  0.2777  0.2921 -0.3553
15574SOL    HW151533   7.358   7.459   4.021 -0.4126 -0.0143 -0.3816
15574SOL    HW251534   7.319   7.330   3.952  0.7285 -1.0440  0.8491
15575SOL     OW51535   6.495   1.686   3.117 -0.3137 -0.7293  0.1851
15575SOL    HW151536   6.510   1.714   3.027  0.1740 -1.0413  0.1662
15575SOL    HW251537   6.559   1.616   3.132 -2.0166 -2.4046 -0.0355
15576SOL     OW51538   7.629   4.753   3.582 -0.1294  0.0690 -0.3568
15576SOL    HW151539   7.618   4.809   3.505  0.6928  1.0367  0.2024
15576SOL    HW251540   7.550   4.768   3.634 -0.6923 -0.5954 -1.0015
15577SOL     OW51541   0.940   6.688   1.373  0.0962  0.0292 -0.7695
15577SOL    HW151542   1.025   6.723   1.401  1.8906 -3.2965 -1.5845
15577SOL    HW251543   0.933   6.714   1.281 -0.3205  1.1790 -0.4334
15578SOL     OW51544   0.948   4.457   0.766  0.1784 -0.0042  0.7415
15578SOL    HW151545   1.043   4.444   0.771 -0.0972 -2.2755  0.9000
15578SOL    HW251546   0.931   4.533   0.822  1.5759 -1.4114  3.2495
15579SOL     OW51547   3.221   1.176   4.516  0.6056 -0.2422  0.1688
15579SOL    HW151548   3.215   1.112   4.445  1.3983  1.6279 -1.7205
15579SOL    HW251549   3.265   1.251   4.476 -0.3353  1.5160  2.2188
15580SOL     OW51550   1.432   7.196   7.774 -0.0992  0.0851  0.4682
15580SOL    HW151551   1.368   7.125   7.776  0.1168 -0.1185  0.1710
15580SOL    HW251552   1.379   7.275   7.765 -0.4818  0.1654  2.8935
15581SOL     OW51553  11.005   9.160  11.264  0.0896  0.2884 -0.1661
15581SOL    HW151554  11.039   9.079  11.226  0.2972 -0.7783  2.0940
15581SOL    HW251555  11.074   9.190  11.323 -0.7404  1.0528  0.4471
15582SOL     OW51556  10.044   2.192   5.012 -0.5531 -0.4123 -0.4840
15582SOL    HW151557  10.130   2.231   5.003 -0.1406 -1.1047  0.3287
15582SOL    HW251558   9.988   2.262   5.046  0.0017 -0.3248  0.2580
15583SOL     OW51559   0.200  11.231   9.982  0.4535 -0.4669 -0.5485
15583SOL    HW151560   0.118  11.210   9.938  0.6507 -2.4668 -0.1019
15583SOL    HW251561   0.183  11.213  10.075  0.7634  1.2681 -0.1195
15584SOL     OW51562  11.680   5.805  12.315  0.0343  0.0481  0.0357
15584SOL    HW151563  11.619   5.760  12.374 -0.2940  1.3276  0.7405
15584SOL    HW251564  11.627   5.875  12.276  1.1690  1.6257  1.1776
15585SOL     OW51565   3.025   4.134  10.396 -0.0312  0.0757 -0.2809
15585SOL    HW151566   3.060   4.067  10.338  2.6269  1.0667  0.0361
15585SOL    HW251567   2.965   4.185  10.341  0.9803 -0.1503 -1.6311
15586SOL     OW51568   7.766  10.160   3.969  0.3617 -0.3517 -0.0351
15586SOL    HW151569   7.744  10.253   3.970 -0.4276 -0.5165  1.8980
15586SOL    HW251570   7.681  10.116   3.975  0.8681 -1.0929  3.2567
15587SOL     OW51571   4.265   7.945  12.248 -0.0692 -0.0122  0.2977
15587SOL    HW151572   4.361   7.945  12.240  0.3134 -1.1720  3.3261
15587SOL    HW251573   4.240   8.037  12.242  1.1706  0.2757 -0.9093
15588SOL     OW51574  11.132   5.903   3.014 -0.1462  0.0243  0.2542
15588SOL    HW151575  11.041   5.904   2.983 -0.8578 -0.4720  2.2094
15588SOL    HW251576  11.136   5.976   3.076  0.9650  0.3732 -0.2052
15589SOL     OW51577   7.169  11.781   3.329  0.4077  0.5532 -0.6470
15589SOL    HW151578   7.155  11.874   3.311  0.6703  0.4822 -1.2116
15589SOL    HW251579   7.133  11.736   3.253 -1.6831  0.0708  0.5465
15590SOL     OW51580   4.334   5.047  11.469 -0.2214  0.2594 -0.6108
15590SOL    HW151581   4.333   5.118  11.404  1.5290  0.3541 -0.5881
15590SOL    HW251582   4.396   4.984  11.434 -0.1821 -0.2721  0.3972
15591SOL     OW51583   3.520  11.530   4.566  0.7471 -0.1927 -0.3171
15591SOL    HW151584   3.570  11.457   4.602  1.7609  0.5208 -0.2321
15591SOL    HW251585   3.582  11.603   4.564 -0.5712  1.0326  0.8408
15592SOL     OW51586   8.619  12.168  11.645 -0.6360  0.5676  0.0998
15592SOL    HW151587   8.577  12.142  11.563  1.9279 -1.8695 -0.6209
15592SOL    HW251588   8.701  12.210  11.616 -0.5750  1.3973  1.4223
15593SOL     OW51589   7.763   9.525   4.270  0.2048 -0.1024 -0.5884
15593SOL    HW151590   7.694   9.462   4.294  0.1179 -1.1393 -3.2668
15593SOL    HW251591   7.715   9.603   4.241  0.1745 -0.3491 -1.2171
15594SOL     OW51592   9.488   5.171   9.994  0.5911  0.3895 -0.1316
15594SOL    HW151593   9.534   5.120  10.061  0.0489  2.1301  1.6827
15594SOL    HW251594   9.537   5.253   9.988 -0.6617  1.1672 -0.1752
15595SOL     OW51595  10.432   8.417   3.568  0.6718 -0.0561  0.1698
15595SOL    HW151596  10.403   8.338   3.613 -1.6219 -0.6968 -2.1378
15595SOL    HW251597  10.355   8.444   3.517  2.3790  1.8385 -1.5634
15596SOL     OW51598   1.454   8.871   4.969  0.3066 -0.1066 -0.0120
15596SOL    HW151599   1.442   8.951   5.021  1.5220  0.3573 -0.4068
15596SOL    HW251600   1.544   8.877   4.937  0.8464 -2.2658  0.9878
15597SOL     OW51601   0.990   5.210  12.214 -0.0165  0.4129 -0.1831
15597SOL    HW151602   1.083   5.211  12.195  0.0535 -0.2844  0.1010
15597SOL    HW251603   0.984   5.218  12.309 -0.2214 -0.1921 -0.1423
15598SOL     OW51604   4.430  11.853  11.272 -0.1683 -0.4314 -0.1513
15598SOL    HW151605   4.398  11.865  11.362 -1.6358 -1.0529 -0.5546
15598SOL    HW251606   4.408  11.762  11.251  0.4893 -0.3990 -1.0244
15599SOL     OW51607   0.086  11.963   5.088  0.0383  0.2706  0.2520
15599SOL    HW151608   0.073  11.869   5.080 -2.1499  0.6345 -1.6111
15599SOL    HW251609   0.165  11.981   5.037 -1.3581 -0.2367 -2.2510
15600SOL     OW51610   7.717   4.842   1.107  0.1382  0.0081 -0.0588
15600SOL    HW151611   7.734   4.756   1.071 -0.8280  0.4101 -1.5604
15600SOL    HW251612   7.682   4.825   1.195  1.1743 -1.0523  0.1642
15601SOL     OW51613   8.674  11.880   1.402  0.6266  0.2451  0.7293
15601SOL    HW151614   8.744  11.819   1.427  0.7346 -0.4298 -1.0470
15601SOL    HW251615   8.675  11.879   1.306 -1.2897  0.8444  0.6646
15602SOL     OW51616   1.851   5.166  10.575  0.1187  0.0110 -0.5369
15602SOL    HW151617   1.933   5.198  10.614  0.1954 -0.0987 -0.6097
15602SOL    HW251618   1.873   5.080  10.541 -0.5276 -0.8962  1.2307
15603SOL     OW51619   9.475   8.364  10.823 -0.8973 -0.2808  0.0882
15603SOL    HW151620   9.383   8.383  10.845 -0.9393 -2.1309  1.7859
15603SOL    HW251621   9.518   8.354  10.908  0.2593 -2.1915 -0.6688
15604SOL     OW51622  12.605   8.332  11.553  0.0383 -0.1732  0.4667
15604SOL    HW151623  12.679   8.290  11.595  0.0363  0.1821  0.8300
15604SOL    HW251624  12.628   8.333  11.460 -0.3687 -1.7979  0.3192
15605SOL     OW51625   4.456   5.388   6.145  0.4119  0.4207  0.2866
15605SOL    HW151626   4.411   5.356   6.223  2.3773 -1.2916  0.8002
15605SOL    HW251627   4.459   5.483   6.156 -0.0997  0.2771  1.8833
15606SOL     OW51628   8.059  12.390  11.724 -0.2776 -0.0167 -0.1575
15606SOL    HW151629   8.103  12.338  11.657 -1.0153 -0.5396 -0.2410
15606SOL    HW251630   8.025  12.466  11.677  1.3834  0.9267  0.0811
15607SOL     OW51631   5.487   2.097   1.996  0.0169 -0.0279  0.2364
15607SOL    HW151632   5.487   2.165   1.929 -1.0913 -0.2821 -0.0520
15607SOL    HW251633   5.470   2.016   1.948 -3.6026  0.1029  1.0324
15608SOL     OW51634   3.268  10.573   6.442  0.1415 -0.6429  0.0484
15608SOL    HW151635   3.351  10.598   6.401 -0.5244 -0.4786 -1.2407
15608SOL    HW251636   3.228  10.657   6.467  0.1457 -0.6924  0.2190
15609SOL     OW51637   4.156  11.584   9.996 -0.5968 -0.8724 -0.5808
15609SOL    HW151638   4.109  11.637  10.060  2.1046 -0.2825  1.1072
15609SOL    HW251639   4.112  11.499   9.998 -0.6087 -0.8803  2.1736
15610SOL     OW51640  11.774   0.961   5.204 -0.6289  0.0149  0.2321
15610SOL    HW151641  11.826   0.906   5.145  1.0300  1.3341  0.3987
15610SOL    HW251642  11.699   0.987   5.152  0.9748  1.4467 -1.5252
15611SOL     OW51643   8.446   1.606   1.021  0.9281 -0.0202  0.6133
15611SOL    HW151644   8.378   1.545   0.993  0.1101  0.3309  1.7518
15611SOL    HW251645   8.398   1.687   1.041  1.8315  0.5943  0.3620
15612SOL     OW51646   6.178  10.454   5.733 -0.2582  0.2071  0.1473
15612SOL    HW151647   6.220  10.376   5.696 -0.7373 -0.1608  0.3716
15612SOL    HW251648   6.091  10.455   5.693 -0.5848  0.1135  0.8465
15613SOL     OW51649   9.469   3.162   4.675  0.0262  0.2916  0.0281
15613SOL    HW151650   9.474   3.086   4.616  0.5612  0.8052 -0.5958
15613SOL    HW251651   9.560   3.175   4.704 -0.2577 -0.0794  1.1409
15614SOL     OW51652   3.128   4.610  12.146 -0.3369 -0.0433 -0.2438
15614SOL    HW151653   3.133   4.699  12.111 -1.3440  0.5191  0.9419
15614SOL    HW251654   3.150   4.553  12.072 -1.5784  1.1043 -1.5457
15615SOL     OW51655   1.985   3.144   0.816  0.1086 -0.2425  0.3971
15615SOL    HW151656   1.959   3.068   0.763  1.8494 -0.2800 -0.4818
15615SOL    HW251657   2.042   3.195   0.758  1.5706  0.0497  2.0262
15616SOL     OW51658   3.030   9.907   3.553  0.9066 -0.0590 -0.1546
15616SOL    HW151659   2.960   9.949   3.504  0.3142 -0.8664 -0.0231
15616SOL    HW251660   3.053   9.970   3.622 -1.9322 -1.0329  1.8442
15617SOL     OW51661   5.980  11.006   8.601 -0.1570 -0.5247  0.3576
15617SOL    HW151662   5.884  11.010   8.601 -0.2000  0.1027 -2.5314
15617SOL    HW251663   6.000  10.912   8.602 -0.8985 -0.7259 -1.0824
15618SOL     OW51664   5.153   6.986   1.045  0.0964 -0.1275 -0.4025
15618SOL    HW151665   5.205   7.066   1.038 -0.2029  0.2867  1.4478
15618SOL    HW251666   5.205   6.929   1.102 -0.3121 -0.7231 -0.6145
15619SOL     OW51667   8.100   3.229  10.600  0.4037 -0.4438 -0.4436
15619SOL    HW151668   8.193   3.236  10.578  0.2353 -0.0314 -1.0531
15619SOL    HW251669   8.060   3.306  10.559  0.1812  0.8049  1.9086
15620SOL     OW51670   3.325   6.880   6.295  0.3082 -0.0783  0.7297
15620SOL    HW151671   3.385   6.953   6.285  0.3042 -0.1361  0.2582
15620SOL    HW251672   3.338   6.827   6.216 -1.5171  0.7585 -0.1995
15621SOL     OW51673  11.896   4.335  10.631  0.2121 -0.0967  0.2541
15621SOL    HW151674  11.896   4.242  10.656  1.5260 -0.3872 -0.7135
15621SOL    HW251675  11.904   4.334  10.536  3.0796  0.9727  0.3761
15622SOL     OW51676  10.548   5.378   3.718  0.1254  0.3065  0.0990
15622SOL    HW151677  10.588   5.409   3.637  1.3029 -0.9581  0.1415
15622SOL    HW251678  10.460   5.351   3.693  1.2700 -2.4388 -1.4124
15623SOL     OW51679   9.523  11.140   6.600 -0.1491 -0.5693  0.1578
15623SOL    HW151680   9.618  11.138   6.587 -0.0973  0.2980  0.3332
15623SOL    HW251681   9.509  11.208   6.667 -1.0331  0.8710 -1.3923
15624SOL     OW51682   5.818  11.272   5.821  0.6413 -0.5406 -0.3154
15624SOL    HW151683   5.826  11.362   5.853 -1.1363 -0.9716  1.5167
15624SOL    HW251684   5.809  11.281   5.726  1.0074  1.1519 -0.2183
15625SOL     OW51685   1.884   5.155   9.466  0.3434 -0.1425  0.8438
15625SOL    HW151686   1.864   5.154   9.560  1.0018  0.4307  0.9964
15625SOL    HW251687   1.876   5.247   9.441 -2.1098 -0.5656 -0.1810
15626SOL     OW51688   7.747   4.236   2.573 -0.4734 -0.1676 -0.3868
15626SOL    HW151689   7.721   4.301   2.639  0.8735  0.0595 -0.0507
15626SOL    HW251690   7.842   4.244   2.568 -0.4136 -1.2368 -1.2803
15627SOL     OW51691   7.829   0.628  10.696 -0.2306  0.0381 -0.5386
15627SOL    HW151692   7.790   0.709  10.732 -1.4287 -0.7512  0.0285
15627SOL    HW251693   7.768   0.602  10.627 -1.3120 -1.7167  0.9676
15628SOL     OW51694   5.920   6.917  10.280  0.4665 -0.3749  0.3989
15628SOL    HW151695   5.833   6.943  10.311  0.1574 -1.6528  0.6564
15628SOL    HW251696   5.973   6.996  10.288 -0.8771  0.6631 -0.5627
15629SOL     OW51697   0.057   6.758   6.252 -0.4108  0.1907  0.2813
15629SOL    HW151698  -0.005   6.819   6.213  0.1345  0.2729 -0.4829
15629SOL    HW251699   0.117   6.735   6.181  1.3773  1.3199  1.3174
15630SOL     OW51700   8.668   7.480   4.389 -0.5985 -0.5483 -0.5669
15630SOL    HW151701   8.693   7.533   4.465  0.7606  0.6133 -1.7798
15630SOL    HW251702   8.709   7.395   4.404  0.7069  0.0625 -0.5648
15631SOL     OW51703   3.056   6.007   2.076  0.5496  0.0564  0.3992
15631SOL    HW151704   2.980   6.042   2.122  0.9375  0.3618  0.8124
15631SOL    HW251705   3.102   6.085   2.044  1.2113 -0.0818  0.9943
15632SOL     OW51706   1.569  11.198   6.498  0.0584 -0.4777 -0.1147
15632SOL    HW151707   1.584  11.138   6.425  0.5467 -1.2155  0.5706
15632SOL    HW251708   1.491  11.164   6.541  0.4839 -0.7784  0.4266
15633SOL     OW51709   7.128   7.369   0.749  0.2031  0.8418 -0.4702
15633SOL    HW151710   7.190   7.299   0.726 -0.6257  0.4587 -1.6181
15633SOL    HW251711   7.140   7.435   0.680 -1.4690  0.2263 -1.3973
15634SOL     OW51712   1.972   6.442   2.020  0.5855 -0.4312  0.4198
15634SOL    HW151713   1.908   6.478   1.959  0.1281 -3.6187 -1.1767
15634SOL    HW251714   2.048   6.422   1.966  1.0104 -1.3321  1.3204
15635SOL     OW51715   3.404   7.864  10.231 -0.1665  0.4169  0.2005
15635SOL    HW151716   3.358   7.836  10.310  0.7479 -0.8769  0.3190
15635SOL    HW251717   3.375   7.803  10.164  2.2368 -1.2940  0.5684
15636SOL     OW51718  12.381   8.612   6.534  0.3283  0.4526  0.0593
15636SOL    HW151719  12.321   8.539   6.521  2.5477 -1.8162  1.5770
15636SOL    HW251720  12.445   8.603   6.464  1.7710 -0.3946  1.4286
15637SOL     OW51721   3.302  10.027   0.004 -0.5689 -0.4315 -0.2519
15637SOL    HW151722   3.366   9.991   0.065 -1.2670 -0.3015  0.5741
15637SOL    HW251723   3.276   9.952  -0.050  1.3785 -0.1856 -1.6403
15638SOL     OW51724   7.600   7.052   7.550  0.4910 -0.5291 -0.0039
15638SOL    HW151725   7.647   7.130   7.580 -0.3950  1.4768 -3.3063
15638SOL    HW251726   7.528   7.043   7.612  0.5980  1.3000  0.4546
15639SOL     OW51727  10.004   7.059  11.643 -0.2774  0.0437 -0.5239
15639SOL    HW151728  10.017   7.023  11.556 -0.0462  1.2264 -0.9924
15639SOL    HW251729  10.081   7.030  11.692  1.5408  2.4475 -1.7744
15640SOL     OW51730   1.665  11.558   8.070  0.0194 -0.1149  0.0708
15640SOL    HW151731   1.696  11.502   7.999 -1.9442 -0.7576 -0.3689
15640SOL    HW251732   1.590  11.605   8.033  1.1101  2.2775  0.6737
15641SOL     OW51733   3.425   4.841   0.398  0.0645 -0.2325  0.2416
15641SOL    HW151734   3.472   4.896   0.460 -1.2414 -2.5876  3.6132
15641SOL    HW251735   3.471   4.757   0.401  0.1879 -0.3703 -2.4396
15642SOL     OW51736   3.689  12.200   1.542 -0.3367  0.1936 -0.1899
15642SOL    HW151737   3.771  12.175   1.585  0.0884  1.4010 -0.2693
15642SOL    HW251738   3.696  12.163   1.454  0.2372  0.5084 -0.2789
15643SOL     OW51739   7.919   5.653   9.935 -0.8399 -0.3735  0.0263
15643SOL    HW151740   7.979   5.629  10.005 -1.5797  0.4794  0.9792
15643SOL    HW251741   7.973   5.698   9.870  0.0825 -2.2284 -0.5761
15644SOL     OW51742   1.153   0.611  11.971  0.4266  0.6103  0.1439
15644SOL    HW151743   1.140   0.679  12.037 -0.6671 -0.7458  1.3929
15644SOL    HW251744   1.240   0.628  11.935 -0.1360  3.1613 -0.2158
15645SOL     OW51745  10.585   4.277   5.813 -0.3102 -0.0850  0.1760
15645SOL    HW151746  10.505   4.280   5.762 -0.8917  1.3551  1.0939
15645SOL    HW251747  10.573   4.344   5.880  0.9633 -1.0082  1.3887
15646SOL     OW51748   4.370  10.573   2.110  0.3666  0.1480  0.3622
15646SOL    HW151749   4.395  10.652   2.062  0.5573 -0.0308  0.1678
15646SOL    HW251750   4.453  10.537   2.142  0.4478 -0.8053 -0.8398
15647SOL     OW51751   9.170   6.849   7.760  0.0057  0.0124  0.4165
15647SOL    HW151752   9.079   6.839   7.790 -0.2642  0.5100 -0.2075
15647SOL    HW251753   9.162   6.878   7.669  0.7942  0.1659  0.3886
15648SOL     OW51754   6.011   2.266   5.580 -0.2259  1.1192  0.1072
15648SOL    HW151755   5.939   2.277   5.517  0.3633  2.1931 -0.4210
15648SOL    HW251756   5.972   2.220   5.654 -0.9545 -0.1576 -1.0186
15649SOL     OW51757   7.899  11.322   1.499  0.3664 -0.0140  0.1534
15649SOL    HW151758   7.992  11.302   1.514  0.3796 -0.7324 -0.7836
15649SOL    HW251759   7.900  11.382   1.424  0.0829  0.1261  0.2628
15650SOL     OW51760   9.331   6.284   6.127 -0.7039 -0.0365  0.1771
15650SOL    HW151761   9.364   6.295   6.038 -0.4876 -1.4206  0.0647
15650SOL    HW251762   9.279   6.204   6.125 -2.2644  0.8937  0.8868
15651SOL     OW51763   1.743  11.977   1.976 -0.1165 -0.1450 -0.1251
15651SOL    HW151764   1.797  12.056   1.982  0.6944 -0.7761  1.8369
15651SOL    HW251765   1.661  12.006   1.938 -0.0742  1.8032  1.1411
15652SOL     OW51766   7.589   8.263   5.238 -0.3656 -0.4521  0.4067
15652SOL    HW151767   7.550   8.348   5.256 -0.7979 -0.6212  0.2742
15652SOL    HW251768   7.661   8.256   5.301  0.8801  0.8082 -0.8221
15653SOL     OW51769   9.951   0.555   6.972  0.5149 -0.1389 -0.3204
15653SOL    HW151770  10.023   0.618   6.977  2.0885 -1.8871  0.2683
15653SOL    HW251771   9.921   0.561   6.882  0.0374  2.0295 -0.0633
15654SOL     OW51772   8.627   8.010   3.027 -0.6123  0.0691 -0.0494
15654SOL    HW151773   8.627   7.969   2.941 -2.4678  1.0436 -0.5787
15654SOL    HW251774   8.680   8.089   3.017  1.1701 -1.0321  0.3887
15655SOL     OW51775   7.658  10.451   2.060  0.0068 -0.8095 -0.8799
15655SOL    HW151776   7.733  10.480   2.008  0.4262  0.2957  0.2738
15655SOL    HW251777   7.614  10.386   2.005 -1.3236  2.3735 -3.9637
15656SOL     OW51778   7.437   3.287  10.124 -0.0013 -0.3407  0.2995
15656SOL    HW151779   7.345   3.260  10.124 -0.0948 -0.1642 -1.6309
15656SOL    HW251780   7.471   3.256  10.040  1.0951  1.6192 -0.0375
15657SOL     OW51781  12.066   9.345   2.363 -0.4859 -0.4490 -0.1321
15657SOL    HW151782  12.024   9.268   2.403 -0.1239 -0.5442  0.0729
15657SOL    HW251783  12.019   9.358   2.281 -0.2998 -1.1203 -0.3476
15658SOL     OW51784   8.013   3.367   4.069  0.1530 -0.2664 -0.0341
15658SOL    HW151785   8.091   3.405   4.110 -0.3563  0.9425 -0.1451
15658SOL    HW251786   7.982   3.303   4.131  0.8379 -0.2563  0.3316
15659SOL     OW51787   5.091   6.275   9.747 -0.2433  0.2933  0.0478
15659SOL    HW151788   5.085   6.314   9.660  0.8126  1.1961  0.3467
15659SOL    HW251789   5.049   6.339   9.804  0.3161  0.3907  0.3653
15660SOL     OW51790   0.374  10.139   9.064 -0.0923  0.0358  0.6099
15660SOL    HW151791   0.349  10.054   9.027  1.3457  0.2038 -0.8832
15660SOL    HW251792   0.299  10.196   9.047  0.1684 -0.1290 -1.3954
15661SOL     OW51793   4.211   4.549  12.314  0.1578 -0.2326  0.0046
15661SOL    HW151794   4.207   4.571  12.221 -0.5473 -0.1713  0.0474
15661SOL    HW251795   4.178   4.459  12.319 -1.2626  0.2889  0.3702
15662SOL     OW51796   9.338   1.528   2.732 -0.4841 -0.7253  0.1741
15662SOL    HW151797   9.261   1.472   2.725  0.4187 -1.9627 -0.2233
15662SOL    HW251798   9.313   1.594   2.796 -1.1851 -2.3185  1.6435
15663SOL     OW51799  11.901  11.082   1.133  0.0697  0.4585  0.0515
15663SOL    HW151800  11.875  11.172   1.118 -0.1527  0.5266  0.8140
15663SOL    HW251801  11.956  11.085   1.211 -2.0413 -0.3758  1.6797
15664SOL     OW51802  11.906  11.647   8.654  0.4517  0.0496  0.3205
15664SOL    HW151803  11.869  11.693   8.729  1.6613 -0.0854  1.0292
15664SOL    HW251804  11.998  11.634   8.677  0.9688  0.4164 -1.3859
15665SOL     OW51805   5.401   4.015   8.328 -0.1798 -0.0996  0.0462
15665SOL    HW151806   5.386   4.028   8.234  1.0287  0.5520 -0.0701
15665SOL    HW251807   5.457   3.938   8.333  0.8279  0.6156  0.1327
15666SOL     OW51808   5.139   0.384   1.145  0.3926 -0.7559  0.4080
15666SOL    HW151809   5.229   0.406   1.169  0.3459 -0.4616  0.3152
15666SOL    HW251810   5.122   0.434   1.065  0.7985 -2.2818 -0.6754
15667SOL     OW51811   4.850   8.143   2.206 -0.0535 -0.0760  0.8422
15667SOL    HW151812   4.895   8.165   2.287  0.1350 -1.4690  1.1465
15667SOL    HW251813   4.779   8.084   2.233 -2.5218  2.5067  0.4569
15668SOL     OW51814   8.265   1.509   9.635 -0.0636 -0.4700 -0.3997
15668SOL    HW151815   8.172   1.487   9.638 -0.3337  0.5008 -1.0214
15668SOL    HW251816   8.302   1.451   9.569  0.5438 -3.3685  2.2848
15669SOL     OW51817   4.629   7.081  11.146 -0.3281 -0.3201 -0.0136
15669SOL    HW151818   4.620   7.117  11.058  1.0109 -1.8401 -0.8392
15669SOL    HW251819   4.595   7.149  11.204 -1.4446  0.6325 -1.7015
15670SOL     OW51820   8.952   8.139  10.038 -0.3049  0.2613 -0.1705
15670SOL    HW151821   8.864   8.124  10.005 -0.5558  0.9238  0.1856
15670SOL    HW251822   8.964   8.071  10.105 -0.0568 -0.6325 -1.0955
15671SOL     OW51823   4.658   8.105   7.039 -0.3447 -0.2864 -0.0117
15671SOL    HW151824   4.692   8.129   6.953  0.3084 -1.3446 -0.0587
15671SOL    HW251825   4.707   8.027   7.065 -2.0580 -1.3167  0.3434
15672SOL     OW51826   6.320   1.146   9.607  0.0501 -0.0228  0.7995
15672SOL    HW151827   6.315   1.129   9.513  2.5073 -1.7470  0.8894
15672SOL    HW251828   6.345   1.238   9.613  0.4353 -0.0444 -0.2551
15673SOL     OW51829   8.238   8.427   0.866 -0.0595  0.0427 -0.0080
15673SOL    HW151830   8.235   8.331   0.864  1.5468 -0.0241 -0.9151
15673SOL    HW251831   8.274   8.452   0.781  0.2850  1.4135  0.5079
15674SOL     OW51832  12.223   4.462   7.942  0.0681  0.4088 -0.2494
15674SOL    HW151833  12.310   4.492   7.967  1.2901 -0.8446 -2.6318
15674SOL    HW251834  12.208   4.384   7.997  0.4973  0.5684  0.0993
15675SOL     OW51835   1.851   2.546   0.283 -0.3450 -0.3872  0.0771
15675SOL    HW151836   1.868   2.498   0.202  1.4772  0.5285 -0.1203
15675SOL    HW251837   1.822   2.633   0.254 -0.7377 -0.3982  0.4228
15676SOL     OW51838   3.850   4.858   0.112  0.6064 -0.0372 -0.4443
15676SOL    HW151839   3.792   4.905   0.052  0.3141  1.5598  1.0205
15676SOL    HW251840   3.830   4.766   0.096 -2.3646  0.4258 -0.0508
15677SOL     OW51841   8.504  12.148   1.641 -0.7216 -0.1125  0.2006
15677SOL    HW151842   8.523  12.175   1.731  0.5465  2.0253 -0.6221
15677SOL    HW251843   8.415  12.114   1.644 -1.4595  1.8035  1.8980
15678SOL     OW51844   3.318   4.006  11.578  0.3072 -0.6150 -0.1407
15678SOL    HW151845   3.272   3.924  11.597 -0.8260 -0.0963 -0.5474
15678SOL    HW251846   3.399   4.000  11.628  0.2237 -1.9657 -0.1297
15679SOL     OW51847   5.401   0.422   8.178  0.3818 -0.7146 -0.2089
15679SOL    HW151848   5.373   0.508   8.147  2.2702  0.7463  1.8324
15679SOL    HW251849   5.321   0.380   8.209 -0.4755  0.6243 -0.5313
15680SOL     OW51850   8.174   6.393   6.163  0.0910  0.4660  0.2614
15680SOL    HW151851   8.112   6.336   6.117  1.2439  0.2106 -1.0517
15680SOL    HW251852   8.121   6.437   6.230 -1.5129  0.2759 -0.8163
15681SOL     OW51853   1.543   8.677   6.343 -0.0170  0.4591 -0.4493
15681SOL    HW151854   1.486   8.735   6.292 -1.5042 -0.0159  0.6217
15681SOL    HW251855   1.516   8.588   6.317  0.6191  0.2200 -0.3181
15682SOL     OW51856   4.306   3.179   3.954 -0.0829 -0.1936  0.2035
15682SOL    HW151857   4.291   3.266   3.991  0.1881  0.0680 -0.2857
15682SOL    HW251858   4.322   3.195   3.861 -0.1862 -0.7839  0.0771
15683SOL     OW51859   8.439   1.560  11.173  0.1779  0.4777 -0.1117
15683SOL    HW151860   8.427   1.649  11.139 -1.0656  0.5264  0.3921
15683SOL    HW251861   8.352   1.521  11.167  0.9260 -1.0843 -1.3282
15684SOL     OW51862   1.283   3.717   6.763 -0.2839 -0.4444 -0.5229
15684SOL    HW151863   1.296   3.668   6.845 -2.0119 -0.7984 -0.4253
15684SOL    HW251864   1.251   3.803   6.791  1.4835  0.3343 -0.7573
15685SOL     OW51865   9.504   0.055   9.460  0.2696 -0.0079 -0.0579
15685SOL    HW151866   9.472   0.091   9.543 -2.7860 -0.2363 -1.0158
15685SOL    HW251867   9.536   0.131   9.412  2.5449  0.0694  1.4423
15686SOL     OW51868   9.509   2.074  12.645 -0.0326 -0.1477 -0.1001
15686SOL    HW151869   9.543   2.055  12.733 -2.8137  2.7970  1.7815
15686SOL    HW251870   9.578   2.126  12.604  1.5761 -2.0837 -0.0189
15687SOL     OW51871  12.371   3.947  10.252  0.7764 -0.2659  0.2659
15687SOL    HW151872  12.416   3.907  10.326  3.0009 -0.2421 -0.9672
15687SOL    HW251873  12.431   3.933  10.178 -0.2069  1.8598 -1.0173
15688SOL     OW51874   1.028  12.035   4.342 -0.2533  0.1327  0.2398
15688SOL    HW151875   0.941  12.022   4.304  0.2530 -1.0646 -0.5728
15688SOL    HW251876   1.078  12.079   4.274  0.5742 -1.7552 -0.4397
15689SOL     OW51877  11.113   0.836   6.107  0.2403  0.3413 -0.1255
15689SOL    HW151878  11.083   0.927   6.108 -0.0303  0.2666  1.3146
15689SOL    HW251879  11.195   0.838   6.058  1.1315  1.6836  1.3268
15690SOL     OW51880   9.400   8.228   5.762 -0.1801  0.3764  0.3845
15690SOL    HW151881   9.473   8.240   5.702  1.6895 -0.8028  2.2596
15690SOL    HW251882   9.402   8.305   5.819  0.8529 -0.4711  1.5747
15691SOL     OW51883   6.664   5.527   4.103 -0.5861  0.0074  0.0671
15691SOL    HW151884   6.597   5.460   4.111  0.9242 -1.3759  4.1179
15691SOL    HW251885   6.640   5.593   4.167 -0.2952  1.7211 -1.5151
15692SOL     OW51886  10.338   9.710  10.862 -0.4222 -0.0150 -0.2914
15692SOL    HW151887  10.295   9.660  10.793 -1.6960  0.8571 -0.1541
15692SOL    HW251888  10.344   9.799  10.827  0.2507  0.1218  0.1489
15693SOL     OW51889  11.489   5.547  10.322  0.8862  0.1049 -0.0312
15693SOL    HW151890  11.576   5.576  10.347  0.1016  1.1848  1.5584
15693SOL    HW251891  11.453   5.506  10.400 -0.4142  0.5850 -0.3470
15694SOL     OW51892   6.484   8.111   5.711  0.2614 -0.4691 -0.2471
15694SOL    HW151893   6.432   8.045   5.665  1.1682 -2.2431  1.1522
15694SOL    HW251894   6.500   8.073   5.798  2.0262  0.9781  0.1231
15695SOL     OW51895   9.513   0.801   1.127 -0.2794  0.0445  0.6072
15695SOL    HW151896   9.606   0.822   1.116 -0.0417  0.1201  2.4265
15695SOL    HW251897   9.494   0.737   1.058  1.1846 -0.1335  0.3420
15696SOL     OW51898   2.618  10.221   9.657 -0.0538  0.5208  0.0615
15696SOL    HW151899   2.526  10.247   9.652  0.0833  1.0176  0.0754
15696SOL    HW251900   2.617  10.125   9.648 -0.7343  0.3095  2.0784
15697SOL     OW51901   7.265  10.681   8.003 -0.4261 -0.0282 -0.0173
15697SOL    HW151902   7.353  10.689   7.967 -0.8142 -0.4193 -1.0831
15697SOL    HW251903   7.239  10.772   8.023  1.1102 -0.0649  2.6337
15698SOL     OW51904  10.979   1.634   4.452 -0.1752  0.2416 -0.0372
15698SOL    HW151905  10.923   1.594   4.385  0.3588 -0.6158  0.0061
15698SOL    HW251906  11.002   1.561   4.510  1.8955  0.3113 -0.6874
15699SOL     OW51907   5.867   1.016   0.669 -1.0954 -0.3770 -0.1273
15699SOL    HW151908   5.873   0.961   0.747  0.2803 -1.8219 -1.1812
15699SOL    HW251909   5.893   0.958   0.597 -1.8853  1.0271 -1.6103
15700SOL     OW51910   6.235   1.787   6.248  0.4585 -0.1501 -0.4725
15700SOL    HW151911   6.168   1.850   6.220  1.0510  1.4248  1.4383
15700SOL    HW251912   6.314   1.814   6.201  1.1682  1.7689  1.6896
15701SOL     OW51913   0.007   6.860   8.268  0.2978  0.0579 -0.5625
15701SOL    HW151914   0.011   6.941   8.320 -0.2737  0.3162 -0.9115
15701SOL    HW251915  -0.006   6.791   8.333 -0.2467  0.3614 -0.3427
15702SOL     OW51916   5.234   1.517   2.231  0.7092 -0.0960  0.2328
15702SOL    HW151917   5.321   1.550   2.207  0.9414  0.1831  1.4350
15702SOL    HW251918   5.243   1.490   2.322  0.1811 -2.3086 -0.3091
15703SOL     OW51919   9.685   9.911   0.791  0.3608 -0.1700  0.2512
15703SOL    HW151920   9.771   9.938   0.822  0.1092  0.5882  0.3079
15703SOL    HW251921   9.682   9.937   0.699 -0.5568  1.7036  0.7724
15704SOL     OW51922   5.529   2.235   1.778  0.2477 -0.1029  0.4929
15704SOL    HW151923   5.608   2.188   1.752  0.9151  0.4642  1.4271
15704SOL    HW251924   5.463   2.206   1.716  1.2890 -0.2673 -0.5864
15705SOL     OW51925   8.089   4.045   3.204  0.1576  0.1406  0.7509
15705SOL    HW151926   8.163   4.082   3.157 -0.2181 -1.6664 -1.4418
15705SOL    HW251927   8.118   3.957   3.230 -1.2479 -0.7694 -0.5148
15706SOL     OW51928   8.044   4.747   5.727  0.1917  0.4634  0.5057
15706SOL    HW151929   8.093   4.811   5.779  0.1273 -1.3949  3.0193
15706SOL    HW251930   8.112   4.696   5.682  0.4252  0.1246  1.2266
15707SOL     OW51931   3.615   8.533   9.337  0.1839  0.4431 -0.2617
15707SOL    HW151932   3.655   8.610   9.377  0.6048  0.0974 -0.0126
15707SOL    HW251933   3.587   8.563   9.250  1.0004  0.6900 -0.4507
15708SOL     OW51934  12.121  11.380   5.925 -0.0288 -0.2182  0.3590
15708SOL    HW151935  12.149  11.300   5.881 -2.6087 -0.2753 -1.3353
15708SOL    HW251936  12.027  11.385   5.910  0.1152  3.5008 -0.2199
15709SOL     OW51937   1.369   6.310   3.810 -0.3403  0.6384 -0.0988
15709SOL    HW151938   1.441   6.248   3.807 -0.8081  0.0090  1.1803
15709SOL    HW251939   1.326   6.294   3.894 -1.5271  1.5025 -0.5081
15710SOL     OW51940   1.498  10.487   2.021  0.7836 -0.2940  0.1259
15710SOL    HW151941   1.509  10.442   1.937  3.2642 -0.1632  0.3160
15710SOL    HW251942   1.418  10.539   2.009  1.5506  0.4557 -2.5118
15711SOL     OW51943   8.587   7.238   3.240  0.3376 -0.6299 -0.3943
15711SOL    HW151944   8.617   7.302   3.304 -2.4941 -0.0733  0.5154
15711SOL    HW251945   8.602   7.280   3.155  1.3989 -0.1279  0.0181
15712SOL     OW51946   6.247   9.879   2.965 -0.1075  0.1009  0.3190
15712SOL    HW151947   6.185   9.815   3.000 -1.0017 -0.4085 -2.0741
15712SOL    HW251948   6.202   9.964   2.974  0.0648  0.1194  1.1821
15713SOL     OW51949  12.564   9.791   5.952 -0.3940  0.1023 -0.6041
15713SOL    HW151950  12.562   9.878   5.911  1.7384  0.1015 -0.8237
15713SOL    HW251951  12.527   9.804   6.039  1.0466  1.5655 -0.1501
15714SOL     OW51952  10.656   2.244   3.459  0.7518  0.5799 -0.0108
15714SOL    HW151953  10.621   2.246   3.370  1.2283  0.4015 -0.2072
15714SOL    HW251954  10.589   2.199   3.510 -0.1201  1.8294 -0.0005
15715SOL     OW51955   9.247   8.656  10.701  0.0881 -0.2053 -0.7280
15715SOL    HW151956   9.174   8.594  10.695  0.6256 -1.3665  2.5269
15715SOL    HW251957   9.236   8.697  10.787  2.5948  0.4371 -0.6415
15716SOL     OW51958  11.169  11.023   4.454 -0.4357 -0.0809  0.5026
15716SOL    HW151959  11.202  11.093   4.398 -0.1033 -0.1115  0.6576
15716SOL    HW251960  11.081  11.005   4.420  0.0647 -0.6721 -0.5343
15717SOL     OW51961   1.549   5.621  11.247  0.5316 -0.2269 -0.2700
15717SOL    HW151962   1.515   5.701  11.206  0.0228 -0.1145  0.3414
15717SOL    HW251963   1.603   5.653  11.319  3.0264 -0.3709 -1.9677
15718SOL     OW51964   1.844  10.244   8.002 -0.0546 -0.3682  0.7641
15718SOL    HW151965   1.929  10.213   7.969  1.7021  2.5613  2.1566
15718SOL    HW251966   1.840  10.211   8.091  0.6540  1.1737  1.3990
15719SOL     OW51967   9.837   6.122   4.276  0.1708 -0.7314  0.6211
15719SOL    HW151968   9.891   6.076   4.341 -2.2968 -0.6757  2.8538
15719SOL    HW251969   9.769   6.059   4.252  0.0046 -0.1138 -0.5727
15720SOL     OW51970   8.658   4.245   5.452  0.7580  0.2976 -0.0397
15720SOL    HW151971   8.665   4.338   5.432  0.0644  0.5382  0.8009
15720SOL    HW251972   8.748   4.219   5.475  0.9764  0.7169 -0.4022
15721SOL     OW51973   0.241   7.001   7.256  0.2069 -0.5491 -0.2078
15721SOL    HW151974   0.258   6.952   7.336 -1.3753  0.9365  1.1426
15721SOL    HW251975   0.194   7.079   7.286 -1.4744 -0.4872 -2.7012
15722SOL     OW51976   3.693   9.180   5.804 -1.2905 -0.5446 -0.3166
15722SOL    HW151977   3.655   9.200   5.719 -0.6022 -1.9993 -0.9901
15722SOL    HW251978   3.673   9.257   5.858  0.3813  1.5158 -2.4585
15723SOL     OW51979   1.414   3.358   3.527 -0.0864  0.3807 -0.0975
15723SOL    HW151980   1.332   3.328   3.566  0.1510 -0.5309 -0.2811
15723SOL    HW251981   1.460   3.403   3.597  0.5274 -1.5896  0.8307
15724SOL     OW51982   5.102   1.407  11.087  0.0303  0.0626 -0.1692
15724SOL    HW151983   5.055   1.421  11.005  0.2366  0.0970 -0.2831
15724SOL    HW251984   5.129   1.315  11.084  1.3400  0.4503 -0.8334
15725SOL     OW51985   9.820  11.860   2.176 -0.7688 -0.1614  0.5883
15725SOL    HW151986   9.808  11.789   2.113 -2.8872 -0.9772  1.7929
15725SOL    HW251987   9.769  11.933   2.141  0.9096  0.6057 -0.3426
15726SOL     OW51988   8.329   0.143   1.563  0.0364  0.0428  0.2885
15726SOL    HW151989   8.307   0.113   1.651  0.0654  0.3886  0.4152
15726SOL    HW251990   8.265   0.100   1.506  0.1778 -0.3773  0.4506
15727SOL     OW51991   3.026   3.300   3.283  0.3250 -0.3252  0.0407
15727SOL    HW151992   3.109   3.334   3.316  0.4017 -1.3009  0.8883
15727SOL    HW251993   2.961   3.326   3.349 -0.5120  2.4660 -1.7161
15728SOL     OW51994   1.054   8.333   8.380 -0.5077  0.2315 -0.2306
15728SOL    HW151995   1.061   8.428   8.373 -0.5432  0.3182  0.7453
15728SOL    HW251996   1.036   8.317   8.473  1.1097 -0.8290 -0.0654
15729SOL     OW51997  11.881   4.043   6.367  0.8089 -0.5051 -0.3796
15729SOL    HW151998  11.975   4.028   6.361  0.9368 -0.2939  0.7653
15729SOL    HW251999  11.847   3.968   6.416  0.4382 -0.4090 -0.4843
15730SOL     OW52000   8.284   0.020   4.804  0.5207 -0.1582  0.5755
15730SOL    HW152001   8.338  -0.000   4.879 -1.3668 -1.3626  1.6941
15730SOL    HW252002   8.228  -0.057   4.793  0.4656  0.1453 -1.8295
15731SOL     OW52003   6.745  12.576   4.850 -0.5865  0.3376  0.0858
15731SOL    HW152004   6.690  12.497   4.856  1.6430 -1.3253 -0.2011
15731SOL    HW252005   6.682  12.647   4.834 -2.9761 -0.8539  3.1642
15732SOL     OW52006   4.065  10.646   7.027 -1.0069 -0.3607  0.0337
15732SOL    HW152007   4.008  10.723   7.025 -1.1290 -0.4714 -1.3993
15732SOL    HW252008   4.014  10.577   6.985  0.3358 -0.3428 -1.7049
15733SOL     OW52009   2.825   9.004  11.696 -0.4284 -0.5267  0.2948
15733SOL    HW152010   2.882   8.930  11.674 -0.2232 -0.6813  1.3018
15733SOL    HW252011   2.868   9.046  11.771 -0.8493  0.2691  0.1028
15734SOL     OW52012  10.069   4.480  12.508 -0.1249  0.0896 -0.1260
15734SOL    HW152013  10.021   4.450  12.431 -1.3462 -1.8337  1.3001
15734SOL    HW252014  10.160   4.484  12.479 -0.7195  0.8441 -2.0520
15735SOL     OW52015   1.987   1.983   5.924  0.2490  0.1613  0.5635
15735SOL    HW152016   1.920   2.047   5.950  0.0172  0.2529 -0.2202
15735SOL    HW252017   1.959   1.953   5.838  1.7122  0.9023 -0.2133
15736SOL     OW52018   4.183  12.279   0.216  0.4237 -0.1262 -0.0250
15736SOL    HW152019   4.174  12.191   0.253 -0.7328 -0.3758 -0.8412
15736SOL    HW252020   4.094  12.303   0.189  1.2205 -0.2279 -3.1837
15737SOL     OW52021   6.154   8.272   8.726 -0.1455  0.8412  0.4011
15737SOL    HW152022   6.151   8.302   8.636 -0.1233  1.2710  0.5421
15737SOL    HW252023   6.246   8.284   8.752 -0.1585  0.7462  0.4914
15738SOL     OW52024   8.366   1.100   6.584  0.2228 -0.1015  0.4451
15738SOL    HW152025   8.387   1.181   6.631 -0.0134  1.6396 -2.2452
15738SOL    HW252026   8.448   1.051   6.582  0.4606  0.1906  1.7954
15739SOL     OW52027   0.391   4.084   7.811 -0.0058  0.6708 -0.3634
15739SOL    HW152028   0.375   4.134   7.730 -2.2764 -1.1486 -1.1472
15739SOL    HW252029   0.371   3.994   7.787  0.5789 -0.1048  1.9170
15740SOL     OW52030  11.858  12.488   0.672 -0.1477 -0.0739  0.2041
15740SOL    HW152031  11.838  12.440   0.592  0.0295 -0.9659  0.6861
15740SOL    HW252032  11.784  12.470   0.730  0.5202 -0.8076  0.8449
15741SOL     OW52033   5.185   5.175   7.362 -0.4563  1.0841  0.4707
15741SOL    HW152034   5.185   5.116   7.287  0.9622  1.3397  0.2448
15741SOL    HW252035   5.206   5.261   7.326 -0.4133  1.3384  1.0769
15742SOL     OW52036   6.681  11.728   0.529 -0.7163  0.3660  0.4852
15742SOL    HW152037   6.660  11.820   0.509  2.0828  1.1803  0.8300
15742SOL    HW252038   6.756  11.709   0.473 -1.0632 -1.6608  0.6580
15743SOL     OW52039   4.635   9.544   9.620 -0.1190 -0.1114 -0.0225
15743SOL    HW152040   4.626   9.558   9.526  0.1931  0.0578 -0.0276
15743SOL    HW252041   4.670   9.455   9.628  0.9674  0.2942 -0.1150
15744SOL     OW52042   0.388   7.676   6.153  0.0814  0.0941 -0.3165
15744SOL    HW152043   0.482   7.658   6.150  0.5205  2.1289  0.0844
15744SOL    HW252044   0.379   7.744   6.219 -1.5955  0.4291 -0.8569
15745SOL     OW52045   9.475   1.344   9.852 -0.3091  0.1106 -0.2902
15745SOL    HW152046   9.381   1.326   9.848 -0.3497 -0.6657  2.2208
15745SOL    HW252047   9.516   1.258   9.846  0.3232  0.5130 -2.1815
15746SOL     OW52048   4.992   0.353   3.296 -0.3693 -0.4608 -0.3674
15746SOL    HW152049   5.000   0.446   3.318  1.1549 -0.2683 -1.5797
15746SOL    HW252050   4.951   0.351   3.210  0.4091 -0.8713 -0.7349
15747SOL     OW52051   9.871   5.051   9.544  0.2136 -0.3682 -0.6232
15747SOL    HW152052   9.923   5.101   9.481 -0.6498  3.5794  1.4809
15747SOL    HW252053   9.780   5.064   9.516 -0.2321  1.9715  1.5622
15748SOL     OW52054   2.109  10.831   7.112 -0.1376  0.2953  0.0020
15748SOL    HW152055   2.075  10.837   7.023  0.0538  0.2486 -0.0736
15748SOL    HW252056   2.204  10.827   7.102 -0.1751 -1.9986  0.0687
15749SOL     OW52057   2.749   2.013   3.146 -0.4779  0.7988 -0.0119
15749SOL    HW152058   2.661   2.049   3.151 -0.6457  0.3427  0.4194
15749SOL    HW252059   2.807   2.089   3.147 -0.6897  1.0674  3.3336
15750SOL     OW52060   2.367   8.007  10.781  0.6317 -0.2466  0.2283
15750SOL    HW152061   2.348   8.005  10.875  2.3274  1.9476  0.6878
15750SOL    HW252062   2.280   8.009  10.740 -0.1561 -1.9875  1.6524
15751SOL     OW52063  10.225   2.423   0.768 -0.1506  0.2305  0.0633
15751SOL    HW152064  10.218   2.331   0.793 -0.2626  0.1733 -0.1809
15751SOL    HW252065  10.299   2.427   0.708  0.2521  0.4040  0.5662
15752SOL     OW52066   4.789   8.383   7.167 -0.2012  0.2386 -0.3793
15752SOL    HW152067   4.841   8.325   7.224  0.7259  1.0345 -0.4010
15752SOL    HW252068   4.847   8.403   7.094 -0.9050  0.3448 -0.9227
15753SOL     OW52069   6.097  11.879   1.179 -0.2673  0.2464  0.0234
15753SOL    HW152070   6.133  11.806   1.230  1.7822  2.5894  2.1797
15753SOL    HW252071   6.156  11.886   1.103 -1.0151 -0.8245 -0.6912
15754SOL     OW52072   3.790   8.195  12.571  0.0455 -0.1931 -0.0124
15754SOL    HW152073   3.784   8.177  12.477 -3.4846 -2.2485  0.4204
15754SOL    HW252074   3.824   8.114  12.609  0.9208  0.4291  0.5689
15755SOL     OW52075   8.508  11.361  11.901  0.3913 -0.0193  0.2704
15755SOL    HW152076   8.603  11.355  11.903  0.4051  0.2796  1.1999
15755SOL    HW252077   8.479  11.301  11.970 -0.1512 -0.9594 -0.7453
15756SOL     OW52078   3.010   7.516   0.379  0.4857  0.0051  0.3228
15756SOL    HW152079   3.038   7.425   0.378 -0.1586 -0.1968  0.1590
15756SOL    HW252080   2.932   7.517   0.434  1.3572  0.7308  1.5982
15757SOL     OW52081   2.316   2.983   6.274 -0.1807  0.3124 -0.2183
15757SOL    HW152082   2.328   2.985   6.369  0.7768  1.2083 -0.3428
15757SOL    HW252083   2.226   3.014   6.261 -0.5542 -0.4739  0.4196
15758SOL     OW52084   9.475   0.633   6.103  0.2602 -0.6170 -0.4392
15758SOL    HW152085   9.470   0.539   6.119  0.5496 -0.4607  0.7496
15758SOL    HW252086   9.547   0.643   6.042 -0.3997 -1.2339 -1.3358
15759SOL     OW52087   4.390  11.239   4.464 -0.0973  0.1787  0.0067
15759SOL    HW152088   4.427  11.185   4.534  1.0807  0.0537 -0.6809
15759SOL    HW252089   4.382  11.178   4.390 -1.8045  0.1831  0.1614
15760SOL     OW52090   0.780   9.665   1.582  0.1149 -0.0568  1.0053
15760SOL    HW152091   0.752   9.728   1.649  0.9897 -0.1744  1.4910
15760SOL    HW252092   0.859   9.704   1.544  0.7086 -0.8888  1.3661
15761SOL     OW52093   4.726   4.851   8.857 -0.4313  0.2452  0.0604
15761SOL    HW152094   4.717   4.933   8.906  0.2004  0.4337 -0.1203
15761SOL    HW252095   4.820   4.846   8.836 -0.6482  0.0579 -0.9316
15762SOL     OW52096  11.774   8.241  10.380 -0.5457 -0.1033 -0.3921
15762SOL    HW152097  11.696   8.295  10.378 -0.8315 -0.4848  0.2891
15762SOL    HW252098  11.834   8.287  10.439 -1.3421 -1.2291  1.4049
15763SOL     OW52099   8.442  10.013  11.337  0.2134 -0.4813 -0.2324
15763SOL    HW152100   8.536  10.008  11.354  0.1851  0.1114  0.1526
15763SOL    HW252101   8.427   9.950  11.267  1.1085  0.3135 -1.1805
15764SOL     OW52102   3.096   3.877   8.811 -0.0285 -0.1130 -0.2789
15764SOL    HW152103   3.073   3.966   8.785  0.1233 -0.4061 -1.4958
15764SOL    HW252104   3.043   3.860   8.889 -2.2832  0.0178 -1.7011
15765SOL     OW52105  11.863  12.084   7.041  0.2789 -0.3654  0.2487
15765SOL    HW152106  11.951  12.086   7.079 -0.2060 -0.1730  1.3928
15765SOL    HW252107  11.857  11.998   6.999  0.8620 -0.5497  0.5284
15766SOL     OW52108   9.593  12.396   9.637 -0.0891 -0.1307 -0.0648
15766SOL    HW152109   9.621  12.447   9.561 -1.4340 -1.4512 -1.5446
15766SOL    HW252110   9.661  12.329   9.647  1.4808  1.6181  1.6462
15767SOL     OW52111   8.883  10.019   4.734 -0.1056 -0.0296  0.0490
15767SOL    HW152112   8.812  10.076   4.762 -0.2778 -0.4858  0.5570
15767SOL    HW252113   8.930   9.997   4.814  1.1185  0.9221 -0.3758
15768SOL     OW52114  10.613   1.541   5.676 -0.0037  0.2526  0.2143
15768SOL    HW152115  10.637   1.607   5.741  0.5897  0.9640 -0.6862
15768SOL    HW252116  10.660   1.568   5.597 -2.5850  0.8419 -1.2383
15769SOL     OW52117   5.737   5.635   5.429  0.1463  0.1274 -0.1114
15769SOL    HW152118   5.698   5.651   5.343  0.3288  1.3538  0.0032
15769SOL    HW252119   5.701   5.705   5.484  0.3713 -0.3834  0.6928
15770SOL     OW52120  12.198   1.400   4.354 -0.3918 -0.1334  0.4300
15770SOL    HW152121  12.152   1.483   4.339 -0.8560 -0.6585 -1.2472
15770SOL    HW252122  12.259   1.420   4.425 -1.2031  1.3599  0.7680
15771SOL     OW52123   9.418  10.390   6.501  0.3523 -0.1312 -0.4573
15771SOL    HW152124   9.418  10.451   6.575 -0.0423 -1.0938  0.3535
15771SOL    HW252125   9.416  10.303   6.541 -1.5852 -0.6699 -1.6016
15772SOL     OW52126   1.584   1.652  10.597  0.3733  0.2835  0.2349
15772SOL    HW152127   1.493   1.631  10.575  0.2210  1.5429 -0.4753
15772SOL    HW252128   1.636   1.590  10.545 -0.0618  0.8649 -0.9299
15773SOL     OW52129   1.549   5.726  10.137 -0.0463 -0.3936  0.0778
15773SOL    HW152130   1.454   5.735  10.127 -0.1898 -0.0756  1.4815
15773SOL    HW252131   1.585   5.797  10.084 -0.7874  2.0349  2.5786
15774SOL     OW52132   6.819   9.155   4.635 -0.0855  0.1875 -0.5966
15774SOL    HW152133   6.773   9.086   4.587  0.4673  0.0134 -0.8946
15774SOL    HW252134   6.819   9.230   4.575  1.0302 -0.1826 -1.0877
15775SOL     OW52135  10.201  11.682   1.111  0.5849 -0.2233  0.1265
15775SOL    HW152136  10.234  11.636   1.034 -0.9268  1.3189 -1.5322
15775SOL    HW252137  10.116  11.642   1.129  1.6613 -1.7915  2.1994
15776SOL     OW52138   4.571   3.758  11.685 -0.2011 -0.4319  0.1542
15776SOL    HW152139   4.551   3.700  11.759 -0.0803 -2.0390 -1.0189
15776SOL    HW252140   4.656   3.727  11.653 -0.1186  0.4328 -0.4893
15777SOL     OW52141  10.033  11.390   3.852 -0.2380 -0.0654  0.1800
15777SOL    HW152142  10.031  11.373   3.946 -0.1838  1.6470  0.5321
15777SOL    HW252143  10.122  11.368   3.825 -0.1138 -0.1037  0.6218
15778SOL     OW52144   9.840   4.954   8.725 -0.0274  0.0572  0.5269
15778SOL    HW152145   9.824   5.048   8.735  0.1869 -0.0538  2.2694
15778SOL    HW252146   9.766   4.913   8.769  1.8200 -0.5049  3.4010
15779SOL     OW52147   3.748   8.981   4.013 -0.5976  0.1772  0.0823
15779SOL    HW152148   3.747   8.993   4.108 -1.9247 -1.2826  0.3025
15779SOL    HW252149   3.672   8.925   3.996 -0.8854  1.0968 -1.9439
15780SOL     OW52150   8.824  11.411   6.255 -0.1446  0.4322 -0.6388
15780SOL    HW152151   8.840  11.431   6.163 -1.5294 -1.8395 -1.4456
15780SOL    HW252152   8.905  11.371   6.286  0.4823  1.6055 -0.7053
15781SOL     OW52153   2.606   7.103   9.216 -0.3394 -0.2053 -0.1067
15781SOL    HW152154   2.537   7.130   9.277  0.6537 -0.3505  1.1306
15781SOL    HW252155   2.638   7.184   9.178 -1.4798 -0.1705 -1.0375
15782SOL     OW52156  11.792  11.152   9.765  0.3689 -0.0795  0.1196
15782SOL    HW152157  11.798  11.068   9.810  1.9321 -0.3433 -0.5227
15782SOL    HW252158  11.743  11.133   9.685  0.1632 -0.2380  0.2809
15783SOL     OW52159   0.106   2.688   5.242 -0.1889  0.0501 -0.2161
15783SOL    HW152160   0.033   2.743   5.212 -2.4176 -1.6511  1.7365
15783SOL    HW252161   0.085   2.600   5.210  2.5609 -0.0561 -2.0479
15784SOL     OW52162   9.237   8.334   1.410  0.2647  0.1615 -0.0123
15784SOL    HW152163   9.154   8.377   1.390  0.2989  1.1533  1.7385
15784SOL    HW252164   9.241   8.333   1.506  1.6944 -1.0282 -0.0463
15785SOL     OW52165  12.362   1.482  11.127  0.0358 -0.2075 -0.1970
15785SOL    HW152166  12.330   1.393  11.114 -0.0864  0.0107 -1.5648
15785SOL    HW252167  12.294   1.525  11.179 -0.8575 -0.3773 -1.1910
15786SOL     OW52168  12.335   9.338  11.837  0.0716  0.3231  0.1358
15786SOL    HW152169  12.362   9.394  11.910 -1.9600  1.4003  0.1483
15786SOL    HW252170  12.259   9.290  11.871 -0.3212  0.1289 -0.9659
15787SOL     OW52171   1.047   1.055   1.771  0.1245  0.0420  0.4825
15787SOL    HW152172   1.035   1.144   1.739 -0.8893 -0.5309 -0.8712
15787SOL    HW252173   1.141   1.045   1.781  0.3116  0.9791 -0.2398
15788SOL     OW52174   7.012   5.708   7.422 -0.0607  0.2931 -0.2348
15788SOL    HW152175   7.028   5.685   7.513 -0.0191  0.5411 -0.1782
15788SOL    HW252176   7.085   5.669   7.374  0.3852  0.8981 -0.0538
15789SOL     OW52177   6.952   4.179   3.628 -1.2872 -0.0852 -0.1371
15789SOL    HW152178   7.025   4.123   3.653 -1.7526 -0.0755  1.3857
15789SOL    HW252179   6.905   4.130   3.561 -0.2635 -0.3687 -0.6719
15790SOL     OW52180   9.754   8.040  10.849 -1.0135 -0.8864  0.1304
15790SOL    HW152181   9.776   7.973  10.784  0.2868 -0.9627  0.6225
15790SOL    HW252182   9.818   8.110  10.834  0.2689 -1.5221  2.2345
15791SOL     OW52183   9.228   4.223  10.347 -0.1609 -0.1614 -0.5852
15791SOL    HW152184   9.318   4.227  10.314 -0.3213  0.7176 -0.9432
15791SOL    HW252185   9.237   4.189  10.436  0.5908  0.5092 -0.3941
15792SOL     OW52186   6.848   4.259  10.922  0.4267 -0.0232  0.4302
15792SOL    HW152187   6.825   4.318  10.994 -1.9970  0.1649 -0.4250
15792SOL    HW252188   6.849   4.172  10.962 -1.2329  0.0357  0.6736
15793SOL     OW52189   8.956   0.937   2.399  0.5914  0.2340 -0.0601
15793SOL    HW152190   9.025   0.958   2.336  1.8565 -2.9468  0.0769
15793SOL    HW252191   8.978   0.849   2.429 -2.2617  0.0515  1.7919
15794SOL     OW52192   9.059   2.609   9.620  0.5242  0.7163 -0.2485
15794SOL    HW152193   9.031   2.700   9.613 -0.5011  0.4634  0.3447
15794SOL    HW252194   9.002   2.562   9.559 -1.1711  0.0451  1.7266
15795SOL     OW52195   3.468  12.592   4.379  0.3543  0.1189  0.2012
15795SOL    HW152196   3.482  12.609   4.473  1.3592  0.5025 -0.0013
15795SOL    HW252197   3.380  12.556   4.374 -0.3607  1.6340  1.1108
15796SOL     OW52198   6.223   0.783   6.552  0.9477 -0.6211  0.4225
15796SOL    HW152199   6.143   0.745   6.517  0.4487  1.6762 -1.1047
15796SOL    HW252200   6.286   0.779   6.480  0.5345  2.3053 -0.2279
15797SOL     OW52201   8.747   8.265   0.121 -0.0785  0.2783  0.1657
15797SOL    HW152202   8.728   8.355   0.147  2.3326  0.0553  3.1970
15797SOL    HW252203   8.840   8.265   0.100  0.2295 -1.6909  1.3253
15798SOL     OW52204   1.233  10.431   9.128 -0.0157  0.1990  0.1381
15798SOL    HW152205   1.184  10.510   9.107 -0.4968  0.4026  1.8530
15798SOL    HW252206   1.292  10.458   9.199  1.0269 -0.5877 -0.3927
15799SOL     OW52207   1.837  12.595   3.427  0.2727  0.3873  0.0758
15799SOL    HW152208   1.767  12.626   3.370 -0.2428 -0.8544 -0.0050
15799SOL    HW252209   1.854  12.505   3.398 -0.4613 -0.5311  2.2739
15800SOL     OW52210   0.299   1.955   4.887 -0.6617  0.1984  0.4548
15800SOL    HW152211   0.317   2.044   4.918 -1.6566  0.7843 -0.5398
15800SOL    HW252212   0.377   1.905   4.909  0.2980  1.5461  0.2444
15801SOL     OW52213  10.404   3.584   7.515  0.4206  0.0842  0.4638
15801SOL    HW152214  10.317   3.594   7.476  0.7880 -1.6293 -0.9141
15801SOL    HW252215  10.390   3.525   7.589  0.1481  1.2924  1.4145
15802SOL     OW52216  10.304   7.302  11.487  0.2785  0.4570 -0.0767
15802SOL    HW152217  10.243   7.331  11.419  0.7315  0.4900 -0.4772
15802SOL    HW252218  10.389   7.300  11.443  0.6643  0.9770  0.6254
15803SOL     OW52219   7.223   7.343   7.636 -0.1384 -0.0551  0.1361
15803SOL    HW152220   7.177   7.261   7.654  0.4995 -0.2380  0.9950
15803SOL    HW252221   7.185   7.406   7.696  1.5747 -0.5208  1.8217
15804SOL     OW52222   8.588   8.725   2.232  0.0549  0.5678 -0.2173
15804SOL    HW152223   8.673   8.694   2.264 -0.0895  0.0369 -0.3502
15804SOL    HW252224   8.560   8.660   2.168 -0.1640  1.0694 -0.6413
15805SOL     OW52225  10.915   8.166   0.281  0.1008  0.2665 -0.4233
15805SOL    HW152226  10.870   8.250   0.267  1.1229  0.9321  0.1228
15805SOL    HW252227  10.985   8.165   0.216  0.9822  0.5167  0.4958
15806SOL     OW52228   1.551   8.918   8.867  0.0290 -0.3028  0.0960
15806SOL    HW152229   1.592   8.894   8.784 -0.5170  0.5041 -0.4220
15806SOL    HW252230   1.457   8.903   8.852 -0.1357  0.4338  0.3436
15807SOL     OW52231   2.015   2.770   6.311  0.0547  0.3897 -0.4886
15807SOL    HW152232   2.042   2.829   6.242  1.9278 -1.0233 -1.0475
15807SOL    HW252233   2.096   2.736   6.347 -0.9223 -0.3535  1.1373
15808SOL     OW52234   8.329   7.617   7.803  0.3243 -0.3063  0.1209
15808SOL    HW152235   8.425   7.612   7.801  0.5745  2.3316  1.6622
15808SOL    HW252236   8.307   7.676   7.730 -0.3473 -2.1927 -1.2946
15809SOL     OW52237   6.043   1.262   6.428 -0.3141  0.2281  0.6375
15809SOL    HW152238   5.954   1.282   6.458 -0.7644 -1.4680  0.5280
15809SOL    HW252239   6.099   1.287   6.502 -0.9886  0.2408  1.1543
15810SOL     OW52240  11.432   8.885   7.182 -0.5173  0.1714  0.3095
15810SOL    HW152241  11.354   8.934   7.208  0.5020  0.8351  2.3098
15810SOL    HW252242  11.496   8.952   7.160 -0.3654 -0.3633 -0.9661
15811SOL     OW52243   1.514   1.566   7.780 -0.4974 -0.3538  0.4067
15811SOL    HW152244   1.515   1.622   7.702  0.3073  0.1188  0.7454
15811SOL    HW252245   1.510   1.628   7.853  1.0806 -0.6961  0.8161
15812SOL     OW52246   1.733   2.436   8.433 -0.0240  0.1624  0.5369
15812SOL    HW152247   1.745   2.393   8.518  1.9619  2.8677  1.7809
15812SOL    HW252248   1.652   2.487   8.444 -0.8150 -0.9465  0.0655
15813SOL     OW52249   4.637  11.588   4.565  0.3231 -0.2971 -0.3086
15813SOL    HW152250   4.570  11.635   4.615 -0.4989 -0.6199 -1.0843
15813SOL    HW252251   4.718  11.636   4.583 -0.3493  0.9230 -0.4453
15814SOL     OW52252  11.765  11.576  11.741  0.1035 -0.1625  0.2281
15814SOL    HW152253  11.793  11.551  11.829 -0.4479  0.5326  0.6168
15814SOL    HW252254  11.841  11.622  11.704 -0.0728  0.6434  0.8229
15815SOL     OW52255   6.515   1.386  12.580 -0.4810  0.2581 -0.0594
15815SOL    HW152256   6.494   1.355  12.668  2.1964  1.0810  0.9974
15815SOL    HW252257   6.591   1.334  12.554  0.5088  1.9033 -0.6487
15816SOL     OW52258   7.246   3.324   9.495 -0.1355  0.0395 -0.8905
15816SOL    HW152259   7.222   3.232   9.505  1.1663 -0.1124  1.5152
15816SOL    HW252260   7.337   3.322   9.468  0.0540  0.6082 -0.3174
15817SOL     OW52261   2.226   4.982   8.049  0.2822  0.2877 -0.7610
15817SOL    HW152262   2.269   4.897   8.055  0.1539  0.2322 -0.6272
15817SOL    HW252263   2.280   5.032   7.988  0.5746  0.2420 -0.5433
15818SOL     OW52264   3.011  11.647   9.367 -0.4003 -0.0855 -0.4209
15818SOL    HW152265   2.939  11.643   9.430  2.0822 -1.2863  2.6219
15818SOL    HW252266   3.060  11.725   9.391 -0.7155  0.8564 -2.6121
15819SOL     OW52267   5.914   8.944   9.675 -0.7446 -0.3438  0.2512
15819SOL    HW152268   5.900   8.984   9.589  0.5639 -2.0493 -0.8126
15819SOL    HW252269   5.998   8.899   9.667  0.8572  1.7792  3.3646
15820SOL     OW52270   9.978  10.708   6.306 -0.0095  0.4034  0.1671
15820SOL    HW152271  10.050  10.672   6.255 -1.1693 -0.4887 -0.9064
15820SOL    HW252272   9.907  10.720   6.243 -1.1262  0.3123  1.3581
15821SOL     OW52273   8.586   6.951   9.887  0.2664  0.1872 -0.5371
15821SOL    HW152274   8.640   6.924   9.961 -0.0319  1.6264  0.2637
15821SOL    HW252275   8.604   6.887   9.819  1.1408 -0.7414  0.5210
15822SOL     OW52276   0.821  11.377   9.878 -0.1560 -0.0878  0.2065
15822SOL    HW152277   0.859  11.439   9.816 -0.4365  0.2430  0.3615
15822SOL    HW252278   0.734  11.413   9.898 -0.3857 -0.6111  0.1775
15823SOL     OW52279   1.158   6.126  11.850  0.3114  0.0511  0.2274
15823SOL    HW152280   1.085   6.139  11.790 -0.4628 -0.3260  1.0605
15823SOL    HW252281   1.235   6.157  11.802 -0.2832 -0.2342 -0.9465
15824SOL     OW52282   0.506   4.467   5.115  0.1094 -0.0402 -0.4435
15824SOL    HW152283   0.459   4.507   5.042  0.8197 -0.6428 -1.2393
15824SOL    HW252284   0.463   4.503   5.193 -0.8847  0.3361 -1.1470
15825SOL     OW52285  12.602   7.411   6.076 -0.4020 -0.0975 -0.9420
15825SOL    HW152286  12.549   7.422   6.155 -0.0730 -0.2566 -0.6965
15825SOL    HW252287  12.674   7.353   6.103  2.6910  3.7503  0.1104
15826SOL     OW52288   0.115   7.323   7.150 -0.5242 -0.6082  0.0166
15826SOL    HW152289   0.187   7.277   7.106 -0.7161 -1.2678  0.3669
15826SOL    HW252290   0.138   7.317   7.243 -0.5812 -0.0300  0.0691
15827SOL     OW52291   6.443   7.680   2.634  0.2011  0.6645  0.1441
15827SOL    HW152292   6.444   7.711   2.724 -0.5445 -1.0462  0.7903
15827SOL    HW252293   6.356   7.641   2.623  1.2169 -1.6890 -0.3466
15828SOL     OW52294   1.444   2.690   8.186  0.3035 -0.0672 -0.5095
15828SOL    HW152295   1.426   2.783   8.196  0.1984 -0.1088 -0.3046
15828SOL    HW252296   1.475   2.681   8.096  0.1680  0.1436 -0.5785
15829SOL     OW52297   1.149   0.064   1.346 -0.4700  0.4804 -0.0893
15829SOL    HW152298   1.123   0.149   1.382 -0.4887  0.2938  0.3494
15829SOL    HW252299   1.066   0.020   1.326 -0.5668 -0.3467  1.8524
15830SOL     OW52300   4.882  11.603   7.062  0.1307  0.5476 -0.1475
15830SOL    HW152301   4.922  11.633   7.143  1.6785 -1.9204  0.1215
15830SOL    HW252302   4.940  11.533   7.031 -2.6573 -1.5332 -1.1184
15831SOL     OW52303  11.209   5.981   4.085  0.0859 -0.0329  0.1583
15831SOL    HW152304  11.228   5.906   4.142 -1.6137 -0.4161  0.2922
15831SOL    HW252305  11.221   6.057   4.141  0.8527 -0.2554  0.3075
15832SOL     OW52306  10.974   2.754   8.045  0.2049  0.6022  0.1495
15832SOL    HW152307  10.890   2.726   8.009  0.5732  0.3618 -0.5367
15832SOL    HW252308  11.012   2.674   8.082 -0.5454  1.0017  1.8804
15833SOL     OW52309   6.305   9.186   7.472  0.3467 -0.2312  0.4863
15833SOL    HW152310   6.266   9.173   7.558 -0.3951  1.7868  0.5097
15833SOL    HW252311   6.320   9.280   7.466  1.2381 -0.4342 -1.2446
15834SOL     OW52312   4.954   7.405   1.371  0.1315 -0.1837 -0.0159
15834SOL    HW152313   4.988   7.325   1.411  1.1815  0.7807  1.0953
15834SOL    HW252314   4.955   7.387   1.277  2.5491 -0.7151  0.0345
15835SOL     OW52315   5.881  12.067   1.759  0.3499 -0.0610  0.7405
15835SOL    HW152316   5.957  12.105   1.715  0.6784 -1.9082 -0.4077
15835SOL    HW252317   5.837  12.016   1.691 -1.2536 -0.0161  1.6863
15836SOL     OW52318   9.811   2.494  10.096 -0.2597 -0.5288  0.1056
15836SOL    HW152319   9.776   2.406  10.089  1.5592 -1.4334  1.5919
15836SOL    HW252320   9.768   2.542  10.025 -4.4182 -1.4555  1.6840
15837SOL     OW52321   5.495   4.896   7.331 -0.3876  0.2318 -0.6378
15837SOL    HW152322   5.525   4.963   7.393  3.3554 -1.6735 -0.0981
15837SOL    HW252323   5.514   4.813   7.375 -3.9436 -1.3033 -1.6858
15838SOL     OW52324   1.503   3.209   5.523 -0.5524 -0.6436 -0.0876
15838SOL    HW152325   1.488   3.115   5.511  1.1823 -1.3190  2.1890
15838SOL    HW252326   1.448   3.232   5.599  0.3776 -0.2677  0.4865
15839SOL     OW52327   3.305   7.116   2.490 -0.6999  0.2361 -0.3101
15839SOL    HW152328   3.291   7.022   2.504  0.5774 -0.0827 -0.9668
15839SOL    HW252329   3.240   7.140   2.424 -0.5471 -0.3577 -0.6861
15840SOL     OW52330   1.262   0.729  11.107 -0.4208  0.2918  0.5399
15840SOL    HW152331   1.268   0.823  11.123 -0.2505  0.1259  1.5546
15840SOL    HW252332   1.172   0.714  11.082 -0.5359  0.6886  0.7064
15841SOL     OW52333  10.614   9.666   1.339  0.1290  0.0107 -0.8032
15841SOL    HW152334  10.553   9.648   1.268  0.2724 -0.8175 -0.7346
15841SOL    HW252335  10.577   9.742   1.384 -1.5042 -1.1610 -0.0506
15842SOL     OW52336   6.627  11.956   7.744  0.1589 -0.2663  0.4016
15842SOL    HW152337   6.676  11.877   7.765  1.1492  1.0750  3.8575
15842SOL    HW252338   6.686  12.028   7.766 -1.7818  1.4229  0.4176
15843SOL     OW52339   4.640   3.032  11.078 -0.2815  0.2977 -0.1278
15843SOL    HW152340   4.731   3.031  11.050 -0.6381  0.4613 -1.3353
15843SOL    HW252341   4.645   3.029  11.174  0.9614 -0.6737 -0.1930
15844SOL     OW52342   6.989   2.881   8.503 -0.0436  0.1713 -0.3486
15844SOL    HW152343   6.984   2.849   8.413 -0.6932  0.0508 -0.2745
15844SOL    HW252344   6.971   2.975   8.495  0.9592  0.3616 -0.4615
15845SOL     OW52345   5.012   9.612   8.404  0.5342 -0.0799  0.9499
15845SOL    HW152346   4.994   9.518   8.403 -0.8463  0.1607  0.1384
15845SOL    HW252347   5.041   9.632   8.315  2.2219  0.0412  1.4999
15846SOL     OW52348   8.697   3.077  11.029  0.4260  0.0583 -0.2001
15846SOL    HW152349   8.607   3.068  11.059  0.9893 -0.5344  1.4478
15846SOL    HW252350   8.717   2.992  10.990  0.5750 -0.1631  0.3495
15847SOL     OW52351  11.198   7.535   1.941 -0.3712 -0.4644  0.3402
15847SOL    HW152352  11.187   7.466   1.876  0.4954 -0.1624 -0.1547
15847SOL    HW252353  11.208   7.615   1.890 -0.9315 -0.0292  0.8926
15848SOL     OW52354   4.736   2.780   2.663  0.5884  0.5002 -0.3563
15848SOL    HW152355   4.641   2.786   2.667  0.5222  0.0649 -1.0509
15848SOL    HW252356   4.753   2.709   2.601  1.3545 -0.3277  0.7544
15849SOL     OW52357   0.418   5.476   4.063  0.8755  0.4293  0.1193
15849SOL    HW152358   0.409   5.502   4.155 -0.3970  0.1564  0.0891
15849SOL    HW252359   0.336   5.503   4.023  0.5959 -1.2553 -0.5078
15850SOL     OW52360   1.153  10.577  10.093  1.0330 -0.0262 -0.6494
15850SOL    HW152361   1.141  10.544  10.182  1.1625 -2.2871 -1.4043
15850SOL    HW252362   1.109  10.662  10.093 -0.1737 -0.5781  1.2004
15851SOL     OW52363  12.628   9.616   7.747 -0.3094  0.0137 -0.2172
15851SOL    HW152364  12.603   9.702   7.780  0.9970  0.2618  0.2085
15851SOL    HW252365  12.545   9.572   7.730 -1.0094  1.3857 -0.5394
15852SOL     OW52366  12.490   6.967   4.554  0.6216  0.1453  0.3773
15852SOL    HW152367  12.463   6.943   4.643 -0.6600 -0.0646 -0.0334
15852SOL    HW252368  12.536   6.889   4.522 -1.4228 -0.9739 -0.1012
15853SOL     OW52369   0.499   0.240   8.350 -0.3655 -0.4848  0.3096
15853SOL    HW152370   0.511   0.334   8.356  0.4477 -0.5826  0.2963
15853SOL    HW252371   0.582   0.203   8.380 -0.1963 -1.1745 -0.9478
15854SOL     OW52372   7.750  11.191   7.177  0.0752 -0.4239  0.1912
15854SOL    HW152373   7.683  11.246   7.136  1.4260 -0.3091 -2.0150
15854SOL    HW252374   7.823  11.252   7.195  0.0678 -0.7661  1.4551
15855SOL     OW52375  10.667   4.175   8.565 -0.0654  0.1214 -0.4084
15855SOL    HW152376  10.707   4.242   8.621 -1.9591 -0.3953  1.6919
15855SOL    HW252377  10.734   4.156   8.500  1.9614  1.3536  1.1735
15856SOL     OW52378   8.260   0.599   5.677  0.2774  0.3093 -0.5118
15856SOL    HW152379   8.223   0.613   5.590 -0.6713 -0.6585 -0.2798
15856SOL    HW252380   8.217   0.665   5.731  0.1987  0.3293 -0.5979
15857SOL     OW52381   7.246   2.972   5.492  0.0657 -0.2823 -0.1962
15857SOL    HW152382   7.170   2.922   5.521 -0.1536  0.6183  0.8584
15857SOL    HW252383   7.214   3.062   5.486  1.2191  0.2504  1.0392
15858SOL     OW52384   0.791   4.712   1.161  0.1763  0.0171  0.1186
15858SOL    HW152385   0.870   4.684   1.116  0.6906  0.0888  0.9811
15858SOL    HW252386   0.740   4.757   1.092  0.6385 -0.4740 -0.5552
15859SOL     OW52387   6.397   9.675   9.797 -0.3219  0.4441  0.3046
15859SOL    HW152388   6.479   9.702   9.838 -0.9751 -0.4347  2.3264
15859SOL    HW252389   6.386   9.735   9.723  2.9291 -0.4552 -1.0796
15860SOL     OW52390   0.306   2.660   9.190 -0.0007  0.4083  0.1925
15860SOL    HW152391   0.253   2.633   9.116 -1.3145  1.9295  0.5101
15860SOL    HW252392   0.243   2.672   9.261  0.7795  2.0058  0.6624
15861SOL     OW52393   6.968   7.083   8.481 -0.1687  0.0795  0.5610
15861SOL    HW152394   7.032   7.026   8.439 -0.1441 -0.0971  0.8315
15861SOL    HW252395   6.884   7.039   8.469 -0.7568  1.7554 -2.4576
15862SOL     OW52396   6.351  10.960  12.393 -0.3930  0.5419  0.1222
15862SOL    HW152397   6.288  10.989  12.459 -1.1065  2.4778 -1.3245
15862SOL    HW252398   6.307  10.976  12.309  0.7934 -1.0703 -0.8767
15863SOL     OW52399   8.629   7.110   3.972  0.1600 -0.0782  0.1811
15863SOL    HW152400   8.695   7.111   3.903 -0.6537 -0.8433 -0.6403
15863SOL    HW252401   8.566   7.044   3.943 -1.4591  1.2884  0.4556
15864SOL     OW52402  11.927   2.790   5.005 -0.8776 -0.5421 -0.0442
15864SOL    HW152403  11.885   2.729   4.944  0.3607 -2.2374  0.7258
15864SOL    HW252404  11.913   2.877   4.965 -2.6044 -1.3053 -1.2204
15865SOL     OW52405   0.467  10.803   4.094  0.4327 -0.2091 -0.1267
15865SOL    HW152406   0.481  10.802   4.188  0.8121 -2.1727 -0.1693
15865SOL    HW252407   0.501  10.719   4.063 -1.8765 -0.6931 -1.6749
15866SOL     OW52408  12.378   8.180   0.399  0.1436  0.6274 -0.0553
15866SOL    HW152409  12.429   8.251   0.359  1.3617 -0.1569  0.0362
15866SOL    HW252410  12.290   8.191   0.363  0.4678  1.7688 -0.5656
15867SOL     OW52411   5.829   6.901   3.983  0.0542 -0.3946 -0.0406
15867SOL    HW152412   5.873   6.828   4.026 -1.2025 -0.4170  1.2955
15867SOL    HW252413   5.848   6.977   4.039 -0.2080 -0.0723 -0.3813
15868SOL     OW52414   4.265   2.856  10.041 -0.1612 -0.1761  0.2525
15868SOL    HW152415   4.202   2.857   9.969 -2.4788  1.9274  2.0839
15868SOL    HW252416   4.236   2.784  10.097  1.4313 -1.5934 -0.6620
15869SOL     OW52417   0.912   0.515   7.069  0.7361  0.0362 -0.1078
15869SOL    HW152418   0.951   0.578   7.129  0.5018  0.0127  0.0706
15869SOL    HW252419   0.818   0.537   7.068  0.2410 -1.7450  1.7407
15870SOL     OW52420   3.577   2.690   9.361 -0.5110 -0.1614  0.0496
15870SOL    HW152421   3.618   2.635   9.294 -0.8851  0.7129 -0.9269
15870SOL    HW252422   3.500   2.726   9.318  0.1761  1.7811  0.3768
15871SOL     OW52423  11.992  10.965   3.198 -0.2127 -0.3051  0.3420
15871SOL    HW152424  11.983  11.041   3.140 -0.6911 -0.7061 -0.1181
15871SOL    HW252425  11.906  10.954   3.237  0.1778  0.1314  1.3724
15872SOL     OW52426  10.808   7.256   8.336 -0.4735 -0.5974 -0.4868
15872SOL    HW152427  10.808   7.306   8.255 -0.9671  1.1164  0.5220
15872SOL    HW252428  10.894   7.274   8.374  0.1020 -2.0897 -0.9903
15873SOL     OW52429   7.889   4.229  11.577  0.2584 -0.1889 -0.1212
15873SOL    HW152430   7.952   4.164  11.545 -1.9668 -1.9708 -1.2115
15873SOL    HW252431   7.817   4.177  11.614 -1.1106  1.6873  0.0137
15874SOL     OW52432  12.180   4.470  10.050 -0.3144 -0.2537  0.4549
15874SOL    HW152433  12.221   4.384  10.038 -1.2794 -0.7213  0.4125
15874SOL    HW252434  12.252   4.527  10.076  0.8349 -0.4912 -1.8916
15875SOL     OW52435   7.990   3.072   1.868 -0.2297 -0.3009  0.6906
15875SOL    HW152436   8.003   3.064   1.963 -0.1255 -1.8366  0.5567
15875SOL    HW252437   8.079   3.075   1.832 -0.2416 -1.6724  0.5043
15876SOL     OW52438   4.788  12.145   3.061  0.4318  0.3714  0.5355
15876SOL    HW152439   4.750  12.067   3.103  1.2813 -0.3019  0.0797
15876SOL    HW252440   4.823  12.196   3.134  1.7257 -0.6988  0.7041
15877SOL     OW52441   9.315   9.513  10.462 -0.4956 -0.2609  0.2482
15877SOL    HW152442   9.276   9.488  10.546 -1.1673 -0.1660 -0.0331
15877SOL    HW252443   9.284   9.447  10.400  1.2501 -1.2649  0.3489
15878SOL     OW52444   5.522  10.043   9.042  0.1430 -0.6719  0.1464
15878SOL    HW152445   5.600  10.096   9.028 -0.4057  0.2030  0.3627
15878SOL    HW252446   5.525  10.020   9.135  0.4465 -1.1491  0.0268
15879SOL     OW52447  11.414   3.181   0.273  0.0880 -0.7298  0.4414
15879SOL    HW152448  11.439   3.204   0.184 -1.8017 -2.9192 -0.7797
15879SOL    HW252449  11.457   3.246   0.328  0.6585  1.2077 -2.1050
15880SOL     OW52450   4.363   6.445  11.533  0.2938 -1.0328 -0.0192
15880SOL    HW152451   4.285   6.394  11.556  0.5315 -1.0229  0.8708
15880SOL    HW252452   4.434   6.381  11.535  0.3433 -0.9955 -0.5980
15881SOL     OW52453  10.569   7.273  11.769  0.0352 -0.4023 -0.1142
15881SOL    HW152454  10.646   7.258  11.825  0.2622 -1.6135 -0.7291
15881SOL    HW252455  10.542   7.362  11.790  3.1635  1.0798 -1.7131
15882SOL     OW52456   9.180   3.401  11.924 -0.4032 -0.1328  0.7355
15882SOL    HW152457   9.207   3.355  11.845 -1.1459  1.8178 -0.7359
15882SOL    HW252458   9.261   3.411  11.975  1.1057  2.4029 -1.8685
15883SOL     OW52459   7.650   8.675   9.055 -0.0527 -0.0902 -0.3227
15883SOL    HW152460   7.584   8.710   9.114 -0.0779 -1.1390  0.2916
15883SOL    HW252461   7.713   8.747   9.044 -0.9852  0.7150 -0.4666
15884SOL     OW52462  11.595  12.422   8.704 -0.4461 -0.0872  0.4633
15884SOL    HW152463  11.616  12.404   8.796 -0.6473 -0.0452  0.5189
15884SOL    HW252464  11.570  12.515   8.704  2.1551  0.6920 -0.0852
15885SOL     OW52465   4.158   8.788  10.359  0.2822 -0.0772 -0.5723
15885SOL    HW152466   4.113   8.790  10.444  0.9201  1.2806 -0.2371
15885SOL    HW252467   4.222   8.718  10.368 -0.7908 -1.0966 -0.5625
15886SOL     OW52468  11.672   1.771  10.853  0.2562 -0.0089  0.0696
15886SOL    HW152469  11.666   1.863  10.827 -0.9919  0.2417  1.1484
15886SOL    HW252470  11.674   1.722  10.771  1.2973  0.9899 -0.5221
15887SOL     OW52471   1.347   8.395   7.662 -0.4053 -0.2059  0.3351
15887SOL    HW152472   1.318   8.483   7.685 -0.2352  0.2693 -1.1782
15887SOL    HW252473   1.266   8.344   7.655 -0.4671 -0.3471  1.8003
15888SOL     OW52474   9.694   8.518   7.440  1.0312 -0.4355  0.2320
15888SOL    HW152475   9.656   8.430   7.434  0.5810 -0.1551 -1.4313
15888SOL    HW252476   9.697   8.549   7.350  0.5796  1.5262  0.8403
15889SOL     OW52477   1.836   9.497   3.179  0.6130 -0.2488 -0.3216
15889SOL    HW152478   1.899   9.434   3.212  0.3943 -0.8958 -1.1172
15889SOL    HW252479   1.763   9.493   3.241  0.5873 -0.7999 -0.3870
15890SOL     OW52480   7.106   4.421  12.050  0.0919 -0.0951  0.2849
15890SOL    HW152481   7.121   4.328  12.035  2.5928  0.4620 -1.3853
15890SOL    HW252482   7.032   4.443  11.993  0.8769 -0.6897 -1.0283
15891SOL     OW52483   2.192   4.490   1.570  0.0652  0.0316  0.2813
15891SOL    HW152484   2.242   4.554   1.621  1.5582 -1.3750  0.6701
15891SOL    HW252485   2.259   4.434   1.531 -1.1616 -0.4753 -1.1582
15892SOL     OW52486  10.012   6.989   3.167  0.0076  0.4106 -0.1664
15892SOL    HW152487  10.106   6.999   3.185  0.4073  0.1967 -1.9430
15892SOL    HW252488   9.983   6.923   3.230  0.8462  1.0950  0.9809
15893SOL     OW52489   5.898   4.161   8.969 -0.6466  0.2287 -0.6027
15893SOL    HW152490   5.929   4.152   9.059 -2.5260 -1.9206 -0.0901
15893SOL    HW252491   5.854   4.246   8.968 -0.3249  0.4229  0.3882
15894SOL     OW52492   7.690   6.308  10.279  0.8427  0.1597 -0.3096
15894SOL    HW152493   7.760   6.244  10.271  0.1730 -0.7365  0.7071
15894SOL    HW252494   7.610   6.258  10.262  0.2464  0.5406  1.2344
15895SOL     OW52495  11.875   3.937  11.084  0.2319  0.1632  0.4040
15895SOL    HW152496  11.915   3.960  11.000  1.4544  1.6806  1.3441
15895SOL    HW252497  11.872   4.020  11.132  0.0662 -0.7772  2.0726
15896SOL     OW52498   7.473   0.388   6.957  0.5821 -0.2704  0.1616
15896SOL    HW152499   7.501   0.358   7.043 -0.1053 -3.2989 -0.5644
15896SOL    HW252500   7.553   0.386   6.903  0.9583  1.3787  0.5816
15897SOL     OW52501  10.404   3.708   7.237 -0.1836 -0.1378  0.1799
15897SOL    HW152502  10.455   3.758   7.300  0.2030 -1.8388  1.2700
15897SOL    HW252503  10.468   3.673   7.176 -0.2517 -0.6868  0.4183
15898SOL     OW52504   5.555  10.282  10.021 -0.3608 -0.4451  0.1778
15898SOL    HW152505   5.630  10.231   9.992  0.4042 -0.2444  1.6932
15898SOL    HW252506   5.543  10.257  10.112 -0.6908  1.2050  0.6172
15899SOL     OW52507   0.341   0.946   2.393  0.0214  0.6508 -0.1611
15899SOL    HW152508   0.249   0.947   2.367  0.3042  1.1151 -1.2173
15899SOL    HW252509   0.342   0.903   2.478 -1.4219  2.5056  0.8734
15900SOL     OW52510   8.763   4.076  10.768  0.6156 -0.1247  0.1108
15900SOL    HW152511   8.729   4.123  10.845  1.0720  1.3392 -0.5548
15900SOL    HW252512   8.740   3.985  10.784  1.3580  0.0235  2.3491
15901SOL     OW52513  10.632  12.110   4.647  0.4585 -0.7753  0.1043
15901SOL    HW152514  10.689  12.142   4.577  0.1897 -0.3848  0.0661
15901SOL    HW252515  10.544  12.133   4.618  0.3607 -0.4467  0.6614
15902SOL     OW52516   7.835   8.933  10.086  0.0377  0.6413  0.1008
15902SOL    HW152517   7.864   8.924   9.996 -0.4856  3.1251 -0.3931
15902SOL    HW252518   7.879   9.013  10.118 -1.5783  1.1370  1.2461
15903SOL     OW52519   8.868   9.881  11.523  0.5908 -0.0481  0.5872
15903SOL    HW152520   8.812   9.813  11.562  0.4768 -1.2286 -1.4845
15903SOL    HW252521   8.957   9.848  11.534  0.6027 -0.0727  0.4119
15904SOL     OW52522   0.129   3.707   5.096  0.4834  0.1943  0.5394
15904SOL    HW152523   0.152   3.622   5.133 -3.3262 -1.0253  0.5996
15904SOL    HW252524   0.168   3.707   5.009 -0.7424 -2.4469 -0.1096
15905SOL     OW52525   3.983   9.015   3.877 -0.2345  0.2513  0.1298
15905SOL    HW152526   3.966   9.095   3.827 -0.0320  0.9124  1.0916
15905SOL    HW252527   3.904   9.003   3.930 -1.8211 -2.1573 -2.4558
15906SOL     OW52528   0.728   3.115   9.446 -0.5932 -0.7707  0.2679
15906SOL    HW152529   0.676   3.189   9.478 -0.1770  0.1439 -1.0581
15906SOL    HW252530   0.725   3.051   9.517 -1.1000  0.4539  1.4036
15907SOL     OW52531   8.950   0.058   6.335  0.3087 -0.4646  0.0053
15907SOL    HW152532   8.915  -0.018   6.382  0.3624 -0.2870  0.3378
15907SOL    HW252533   8.988   0.021   6.255 -1.1929 -0.5989 -0.6901
15908SOL     OW52534   3.983   7.121   5.740  0.5201  0.5308 -0.1863
15908SOL    HW152535   4.037   7.177   5.796  3.1345  0.0398 -1.9870
15908SOL    HW252536   4.044   7.091   5.672 -1.7097 -1.4141 -1.4623
15909SOL     OW52537  12.073   3.449   4.487  0.1960  0.2492  0.0089
15909SOL    HW152538  12.100   3.437   4.396 -0.3074 -0.1915 -0.0874
15909SOL    HW252539  11.979   3.467   4.482 -0.0501 -0.8060  0.4949
15910SOL     OW52540   2.430   2.070  10.244  0.1467 -0.2801 -0.0220
15910SOL    HW152541   2.384   2.141  10.289  0.5092 -1.3455  2.1546
15910SOL    HW252542   2.523   2.091  10.256  0.3108  0.4794 -2.1328
15911SOL     OW52543   4.707  11.151  10.320 -0.6848  0.0055 -0.2369
15911SOL    HW152544   4.779  11.177  10.378 -1.1405  0.0143  0.3341
15911SOL    HW252545   4.722  11.200  10.239  0.5230 -0.7801 -0.5020
15912SOL     OW52546   8.768   3.998   3.921 -0.5406  0.1171  0.4658
15912SOL    HW152547   8.795   4.012   3.830  1.7110 -0.0285  1.0683
15912SOL    HW252548   8.747   4.085   3.954  0.2902  0.3839  0.2990
15913SOL     OW52549   3.488   7.187   3.492  0.0309 -0.6736 -0.1968
15913SOL    HW152550   3.441   7.234   3.423  1.8680  0.0952 -0.9763
15913SOL    HW252551   3.495   7.251   3.563 -0.7914 -1.0626  0.2473
15914SOL     OW52552  12.296   2.400   5.961 -0.0631  0.1916  0.2998
15914SOL    HW152553  12.230   2.334   5.983  0.5782 -0.2968  0.7500
15914SOL    HW252554  12.281   2.418   5.868  0.1376 -1.0243  0.0193
15915SOL     OW52555   1.252   8.096   4.005 -0.2966 -0.2998  0.6263
15915SOL    HW152556   1.287   8.009   4.021 -2.0226 -0.6490  2.9442
15915SOL    HW252557   1.209   8.090   3.919  2.4473 -0.6843 -0.8554
15916SOL     OW52558   2.630   6.460   7.641  0.2694  0.1266  0.1320
15916SOL    HW152559   2.618   6.470   7.547  0.4667 -4.1381 -0.5719
15916SOL    HW252560   2.724   6.473   7.654  0.6447 -1.3894 -0.7497
15917SOL     OW52561  12.118   4.346   7.353 -0.1092 -0.3790 -0.0353
15917SOL    HW152562  12.059   4.341   7.428 -0.1723  1.0449  0.0372
15917SOL    HW252563  12.084   4.281   7.291 -1.0217 -0.4277  0.4988
15918SOL     OW52564   9.936  10.469   0.237 -0.2329 -0.4003 -0.2082
15918SOL    HW152565   9.854  10.505   0.272  0.2725  2.6835 -1.8521
15918SOL    HW252566   9.999  10.479   0.308 -0.4019  0.9407 -0.2242
15919SOL     OW52567   4.458   7.614   6.921 -0.1694 -0.0318  0.0820
15919SOL    HW152568   4.522   7.557   6.879 -0.3524 -0.6151  0.5763
15919SOL    HW252569   4.479   7.702   6.889  0.0163 -0.3909 -0.8091
15920SOL     OW52570   0.441   6.887   9.559 -0.2029  0.6625  0.1991
15920SOL    HW152571   0.438   6.886   9.464  2.5247  0.9691  0.0266
15920SOL    HW252572   0.401   6.804   9.586  0.7759 -0.3390 -1.3240
15921SOL     OW52573  12.224   9.589  12.447  0.2061 -0.5244  0.2908
15921SOL    HW152574  12.305   9.552  12.411  0.0052 -0.7910  0.1048
15921SOL    HW252575  12.216   9.549  12.534  0.5773 -0.0501  0.5452
15922SOL     OW52576  11.114   2.745   1.068  0.5466 -0.2589 -0.6538
15922SOL    HW152577  11.186   2.709   1.119  1.4085  1.9262 -0.1966
15922SOL    HW252578  11.064   2.797   1.131 -0.3045 -0.2008 -1.3647
15923SOL     OW52579   8.633   9.990   2.810 -0.1598 -0.4604  0.2274
15923SOL    HW152580   8.694   9.919   2.791 -0.8217 -1.7258  2.4992
15923SOL    HW252581   8.546   9.950   2.801 -0.6480  0.7592 -0.8758
15924SOL     OW52582   0.642   6.134  11.922  0.1915 -0.1564 -0.3735
15924SOL    HW152583   0.553   6.107  11.945 -0.3347  0.5866 -1.4486
15924SOL    HW252584   0.633   6.176  11.836  1.8356 -1.6174 -1.3373
15925SOL     OW52585   3.191   1.412  10.047  0.3151 -0.0564  0.5476
15925SOL    HW152586   3.253   1.466   9.999  0.3047  1.2395  1.9154
15925SOL    HW252587   3.240   1.379  10.123  0.0657 -1.2491  0.2200
15926SOL     OW52588   6.623   4.326  11.614  0.3081 -0.4387 -0.4629
15926SOL    HW152589   6.683   4.400  11.625  0.3992 -0.5937  0.1093
15926SOL    HW252590   6.536   4.362  11.635  0.4632 -0.6977  0.7033
15927SOL     OW52591   0.785  12.372   5.171  0.4192  0.2997  0.1405
15927SOL    HW152592   0.873  12.411   5.174  0.8007 -0.5254 -0.1034
15927SOL    HW252593   0.766  12.351   5.263  1.6048 -1.9386 -0.0644
15928SOL     OW52594  10.664   7.950   8.968  0.2787  0.1769 -0.5767
15928SOL    HW152595  10.660   7.876   9.028 -1.8118  1.2330  0.6965
15928SOL    HW252596  10.757   7.974   8.966  0.7203 -1.3110  0.3979
15929SOL     OW52597   2.642   0.838  10.524 -0.1343 -0.8211  0.6462
15929SOL    HW152598   2.673   0.907  10.583  0.3361 -0.9545  0.5554
15929SOL    HW252599   2.595   0.777  10.581 -2.8835  0.8671  0.4075
15930SOL     OW52600  11.359   3.000   6.466 -0.0113  0.3212 -0.9566
15930SOL    HW152601  11.321   2.989   6.553 -0.8960  1.3454 -1.1848
15930SOL    HW252602  11.453   2.994   6.479 -0.2002 -1.6983 -0.2691
15931SOL     OW52603   5.395   6.591   9.968  0.3350  0.2393  0.3542
15931SOL    HW152604   5.389   6.495   9.971 -1.6689  0.1217 -2.7016
15931SOL    HW252605   5.488   6.609   9.981  0.9284 -2.2039  0.0927
15932SOL     OW52606   6.729   8.641   4.757  0.2379  0.0071  0.2722
15932SOL    HW152607   6.662   8.708   4.773  0.2333 -0.2095  1.1923
15932SOL    HW252608   6.763   8.663   4.670 -2.0920 -0.7998 -0.9474
15933SOL     OW52609  10.417   0.085   1.866 -0.3773 -0.0447  0.2224
15933SOL    HW152610  10.440   0.038   1.946 -0.5018 -0.9356 -0.2411
15933SOL    HW252611  10.327   0.113   1.878 -0.6317 -0.7981  0.1231
15934SOL     OW52612  11.780   1.911  11.096  0.8360 -0.3275 -0.0585
15934SOL    HW152613  11.771   1.887  11.003  0.6628  1.6165 -0.5947
15934SOL    HW252614  11.875   1.913  11.110  0.8649 -0.5463 -0.2021
15935SOL     OW52615   7.506   9.565   3.545  0.8081  0.3185 -0.4159
15935SOL    HW152616   7.468   9.653   3.546  2.1972  0.9595 -1.2873
15935SOL    HW252617   7.454   9.518   3.479 -0.7573  0.0480  0.9282
15936SOL     OW52618   2.539   9.375   9.695 -0.2830  0.0953  0.0840
15936SOL    HW152619   2.556   9.283   9.678  1.0517  0.1962  0.7611
15936SOL    HW252620   2.457   9.376   9.745 -0.6260 -0.6649 -0.4450
15937SOL     OW52621   7.264   5.034   1.146 -0.6187  0.6232 -0.5711
15937SOL    HW152622   7.232   5.103   1.087  0.0891  0.1707 -1.5199
15937SOL    HW252623   7.350   5.011   1.109 -0.0497  0.4999  0.7966
15938SOL     OW52624   2.949   3.278   5.979 -0.5686  0.1583  0.4686
15938SOL    HW152625   2.985   3.363   5.952 -0.4380  0.3745  1.2800
15938SOL    HW252626   2.904   3.296   6.062 -0.4194 -0.5842  0.7258
15939SOL     OW52627   8.263   6.011   0.500 -0.7486  0.4674 -0.3912
15939SOL    HW152628   8.262   5.922   0.466  1.6718  0.3787 -0.3535
15939SOL    HW252629   8.212   6.061   0.435 -1.1870 -0.7274 -0.9979
15940SOL     OW52630   9.266  10.477   5.568 -0.2621 -0.0771  0.3464
15940SOL    HW152631   9.271  10.411   5.499 -0.3638  0.8340 -0.5699
15940SOL    HW252632   9.288  10.559   5.523  0.3903  0.4439  1.5618
15941SOL     OW52633   9.111   9.907  10.699  0.0556 -0.1291  0.1725
15941SOL    HW152634   9.047   9.974  10.723  0.3189  0.1801  0.0089
15941SOL    HW252635   9.196   9.945  10.720  0.1431 -1.0046  1.5403
15942SOL     OW52636   9.304   0.961   1.075 -0.1400 -0.0603 -0.3513
15942SOL    HW152637   9.355   0.881   1.087 -0.5102 -0.2978 -0.3525
15942SOL    HW252638   9.337   1.020   1.144  1.4293  0.4675 -1.4947
15943SOL     OW52639   8.806   3.606   1.250 -0.0706 -0.1940  0.5687
15943SOL    HW152640   8.729   3.559   1.282 -0.2941 -0.1383  0.1147
15943SOL    HW252641   8.797   3.606   1.155  0.6888 -0.5207  0.4947
15944SOL     OW52642   0.727   3.527   2.127 -0.2625 -0.0421  0.0649
15944SOL    HW152643   0.747   3.620   2.111  0.7303 -0.3898 -0.8967
15944SOL    HW252644   0.633   3.520   2.115 -0.1163  0.5215 -1.7891
15945SOL     OW52645   1.658   8.684  12.602 -0.5197 -0.2338 -0.0128
15945SOL    HW152646   1.752   8.677  12.586 -0.3284 -0.6199  1.1999
15945SOL    HW252647   1.622   8.714  12.518  0.7392  0.4305 -0.3429
15946SOL     OW52648   0.821   5.559  10.596 -0.4638 -0.4311  0.1584
15946SOL    HW152649   0.787   5.586  10.681  0.9689  0.2996  0.5316
15946SOL    HW252650   0.824   5.463  10.599 -0.3898 -0.4052  0.9482
15947SOL     OW52651   6.155   2.520  11.879  0.6322 -0.2207  0.1074
15947SOL    HW152652   6.245   2.527  11.848  0.3973  1.6392 -0.3084
15947SOL    HW252653   6.101   2.549  11.805 -0.0598  2.1439  1.4151
15948SOL     OW52654   7.203   3.569   6.680 -0.3405 -0.5027  0.6614
15948SOL    HW152655   7.275   3.567   6.616  1.2376 -1.5567  2.3506
15948SOL    HW252656   7.136   3.624   6.640  0.4538 -1.3133 -1.9896
15949SOL     OW52657   4.064  12.573  12.396 -0.3255  0.6259  0.3957
15949SOL    HW152658   4.019  12.525  12.466  1.4201 -0.8145  0.6186
15949SOL    HW252659   4.028  12.661  12.401 -1.9737 -0.0539  1.5336
15950SOL     OW52660   3.564   2.609   5.892 -0.3348  0.1063  0.0814
15950SOL    HW152661   3.486   2.640   5.938 -0.7663  1.5889 -1.5253
15950SOL    HW252662   3.638   2.642   5.942 -0.7677  0.5267  0.4453
15951SOL     OW52663   7.651   8.919   7.498  0.2737 -0.2090 -0.1884
15951SOL    HW152664   7.630   8.867   7.420  2.7608 -0.6364 -0.6603
15951SOL    HW252665   7.673   9.006   7.464 -1.0498  0.3420  0.3130
15952SOL     OW52666   2.016   3.585   3.356 -0.0716  0.1485  0.6308
15952SOL    HW152667   2.072   3.662   3.358  0.7553 -0.4077 -0.3683
15952SOL    HW252668   2.040   3.535   3.434 -1.0028  1.1338  1.5897
15953SOL     OW52669   2.788   5.706   2.450  0.3623  0.2590 -0.2719
15953SOL    HW152670   2.728   5.757   2.505 -0.3435  0.1509 -0.9302
15953SOL    HW252671   2.757   5.721   2.361  0.8924 -0.3572 -0.5615
15954SOL     OW52672   3.526   8.888  12.236  0.1403 -0.2740 -0.3763
15954SOL    HW152673   3.487   8.972  12.259  0.2674 -0.5035  0.7245
15954SOL    HW252674   3.618   8.908  12.217 -0.4106  0.2432 -2.8243
15955SOL     OW52675  10.095   7.190  12.203 -0.0264 -0.4082 -0.1578
15955SOL    HW152676  10.041   7.178  12.125  0.0740  0.6394 -0.4143
15955SOL    HW252677  10.048   7.146  12.273  0.4659 -2.3950 -1.0246
15956SOL     OW52678   4.404   7.367   0.726  0.9842  0.2153  0.0157
15956SOL    HW152679   4.320   7.337   0.690  0.9888 -0.8531  0.8360
15956SOL    HW252680   4.381   7.408   0.809  1.3320 -0.9906  0.7428
15957SOL     OW52681   9.799   6.748   1.148 -0.0542  0.3974  0.5312
15957SOL    HW152682   9.713   6.746   1.106  0.8521  1.0211 -1.4464
15957SOL    HW252683   9.780   6.765   1.240 -2.0492  0.3216  0.1739
15958SOL     OW52684   9.022   6.803   5.603  0.0611  0.4562 -0.0084
15958SOL    HW152685   8.946   6.773   5.554  0.6259 -0.4412 -0.3785
15958SOL    HW252686   9.011   6.766   5.690  0.6184 -0.6595 -0.3870
15959SOL     OW52687   9.689   3.933   2.842  0.4535  0.0049  0.3333
15959SOL    HW152688   9.730   3.972   2.920  0.0566  0.9261  0.0992
15959SOL    HW252689   9.687   3.839   2.861  4.3250 -0.3982 -0.4174
15960SOL     OW52690   8.684   7.905   3.543 -0.6601  0.4757  0.0481
15960SOL    HW152691   8.609   7.881   3.490 -0.6235 -0.4553  0.3952
15960SOL    HW252692   8.695   7.832   3.604  0.1448  0.8797  0.4103
15961SOL     OW52693  12.246   2.929   9.353 -0.5937  0.1682  0.2023
15961SOL    HW152694  12.178   2.862   9.359 -0.7367  0.3495  0.6515
15961SOL    HW252695  12.202   3.004   9.312 -0.1619 -0.3558 -1.2784
15962SOL     OW52696   5.668   8.261   8.169  0.0280 -0.4156 -0.3328
15962SOL    HW152697   5.714   8.285   8.249 -0.7426 -1.3585  0.4193
15962SOL    HW252698   5.613   8.337   8.148 -0.9473 -0.7445  0.9331
15963SOL     OW52699   1.629   9.454  10.472 -0.1268  0.0118 -0.2214
15963SOL    HW152700   1.692   9.477  10.403 -1.9176 -0.2149 -2.0352
15963SOL    HW252701   1.609   9.537  10.515 -0.3702  0.4943 -1.2345
15964SOL     OW52702   1.156   6.243   2.201 -0.3785 -0.1974 -0.0352
15964SOL    HW152703   1.211   6.182   2.249  0.0065 -0.5374 -0.8929
15964SOL    HW252704   1.216   6.312   2.173 -0.7522  0.4242  0.6608
15965SOL     OW52705   3.590  10.522  10.453  0.3063 -0.1373 -0.8007
15965SOL    HW152706   3.540  10.506  10.533  1.9407 -1.2466  0.0472
15965SOL    HW252707   3.681  10.505  10.477  0.7575 -1.5303 -3.1437
15966SOL     OW52708   6.933   3.693   1.952 -0.1464 -0.3035  0.4302
15966SOL    HW152709   7.012   3.703   2.005 -1.3616 -1.3814  2.5979
15966SOL    HW252710   6.949   3.615   1.898  0.7212  0.1984 -0.0459
15967SOL     OW52711   5.058   7.544  12.530  0.0217 -0.2674 -0.0237
15967SOL    HW152712   5.052   7.627  12.576  1.0360  0.1398 -0.6029
15967SOL    HW252713   5.016   7.481  12.588 -2.7344  0.9754 -0.4876
15968SOL     OW52714   0.019   5.157  12.228  0.1175  0.4248 -0.4684
15968SOL    HW152715  -0.063   5.187  12.267 -0.5700 -1.5257 -0.2907
15968SOL    HW252716   0.032   5.214  12.152 -0.6575  1.6412  0.2689
15969SOL     OW52717   2.967   8.335   3.708  0.1253 -0.2674 -0.4717
15969SOL    HW152718   2.897   8.327   3.643 -0.4233 -0.6481  0.1505
15969SOL    HW252719   3.025   8.403   3.673  0.5175 -1.3300 -1.9518
15970SOL     OW52720   6.330   7.483   1.799 -0.3203 -0.1617 -0.1525
15970SOL    HW152721   6.353   7.537   1.874 -0.9937 -0.7790  0.5144
15970SOL    HW252722   6.235   7.471   1.806 -0.2986 -0.7437 -0.7468
15971SOL     OW52723   6.474   4.964   0.977  0.4198 -0.5117  0.3650
15971SOL    HW152724   6.429   4.922   1.050 -0.0375  0.0727  0.4288
15971SOL    HW252725   6.539   4.900   0.948  0.5324 -0.7878  1.2136
15972SOL     OW52726   2.730   4.585   2.894  0.0583  0.2021 -0.1038
15972SOL    HW152727   2.786   4.600   2.971  0.1630  0.4405 -0.2254
15972SOL    HW252728   2.762   4.503   2.857 -1.0784 -0.8271  1.0629
15973SOL     OW52729   5.189   6.686   6.487  0.0283  0.2334  0.0289
15973SOL    HW152730   5.145   6.613   6.529  0.6839 -0.6325 -0.7415
15973SOL    HW252731   5.137   6.703   6.408  0.2596  0.1372 -0.1467
15974SOL     OW52732   3.232   1.049   5.955 -0.6741 -0.4704  0.1542
15974SOL    HW152733   3.283   1.100   5.892 -1.2757 -0.5702 -0.4261
15974SOL    HW252734   3.256   0.958   5.938  1.2041 -0.3859  1.8951
15975SOL     OW52735   6.006   7.812   3.853  0.9193 -0.1898 -0.2506
15975SOL    HW152736   5.926   7.761   3.866  0.3990  0.5011 -0.7340
15975SOL    HW252737   6.017   7.861   3.935  1.0141 -0.5077 -0.0711
15976SOL     OW52738  10.517   7.881   5.924 -0.0550 -0.4946 -0.7789
15976SOL    HW152739  10.588   7.869   5.861  0.0837 -1.0575 -0.5193
15976SOL    HW252740  10.518   7.801   5.977 -0.6310 -0.3361 -0.5238
15977SOL     OW52741   7.806   1.029  10.005 -0.2247  0.3359 -0.0094
15977SOL    HW152742   7.820   1.104   9.948 -1.9006  0.1174 -0.7923
15977SOL    HW252743   7.762   0.965   9.949  0.1999 -0.8113  0.9224
15978SOL     OW52744   5.333   9.998   2.656  0.3362 -0.6227 -0.2285
15978SOL    HW152745   5.306  10.068   2.597  0.4393 -1.1989 -0.9780
15978SOL    HW252746   5.423  10.021   2.682 -0.2706  0.4575  0.9895
15979SOL     OW52747   0.217   1.963  12.355  0.7598 -0.1076 -0.3885
15979SOL    HW152748   0.281   1.901  12.390  1.0774  0.0114 -0.7503
15979SOL    HW252749   0.136   1.913  12.346  0.4365  0.0634  1.3030
15980SOL     OW52750  11.976   2.559   4.636 -0.6313  0.2981  0.1096
15980SOL    HW152751  11.911   2.583   4.701 -0.4028  2.2826 -0.3274
15980SOL    HW252752  11.930   2.500   4.576 -1.0943 -0.8291  1.5300
15981SOL     OW52753   9.610   1.557   2.762  0.3657  0.8019 -0.2091
15981SOL    HW152754   9.664   1.514   2.696 -0.6188  0.1696 -0.6209
15981SOL    HW252755   9.520   1.543   2.733 -0.1199  0.0602  1.5264
15982SOL     OW52756   5.561   4.381   2.337 -0.6465  0.9419  0.0753
15982SOL    HW152757   5.562   4.287   2.321 -0.3994  0.9697 -0.0731
15982SOL    HW252758   5.653   4.405   2.349 -0.8296  0.8710  1.9136
15983SOL     OW52759   4.504  12.092   4.735  0.1607 -0.7168 -0.1144
15983SOL    HW152760   4.460  12.060   4.814  1.5737 -2.7980 -0.1191
15983SOL    HW252761   4.438  12.083   4.666  0.3991 -3.4775 -0.0602
15984SOL     OW52762   7.591   0.591   6.170  0.4762  0.1480 -0.3026
15984SOL    HW152763   7.507   0.622   6.138  0.7459  1.0889 -0.1241
15984SOL    HW252764   7.642   0.671   6.185  1.3351 -0.3988 -0.2392
15985SOL     OW52765  10.107   2.933  10.298 -0.2242  0.6297  0.0331
15985SOL    HW152766  10.031   2.921  10.241  0.2721  0.3867 -0.5858
15985SOL    HW252767  10.182   2.932  10.239  0.3790 -0.5746  0.7694
15986SOL     OW52768   5.285  11.123   8.148  0.2124  0.4297 -0.0791
15986SOL    HW152769   5.250  11.096   8.063  2.0301  3.2598 -1.8836
15986SOL    HW252770   5.222  11.187   8.181  0.5194  0.8632 -0.3203
15987SOL     OW52771   9.730   7.109   0.838 -0.5689 -0.0797 -0.1913
15987SOL    HW152772   9.681   7.028   0.823 -2.2097  0.0717  3.2892
15987SOL    HW252773   9.669   7.178   0.814  0.3115  0.1810 -1.7860
15988SOL     OW52774   2.836   4.106   5.868 -0.3379 -0.6841  0.2501
15988SOL    HW152775   2.831   4.200   5.853 -0.2700 -0.6627  0.3583
15988SOL    HW252776   2.763   4.069   5.819 -0.5815 -0.5382  0.5027
15989SOL     OW52777   0.335   3.276   2.447  0.1774 -0.0140 -0.9538
15989SOL    HW152778   0.333   3.264   2.352  0.7631  0.0565 -0.9785
15989SOL    HW252779   0.342   3.371   2.459 -0.0954 -0.0069 -0.8334
15990SOL     OW52780   8.092   2.940   8.973  0.2557  0.3033  0.5603
15990SOL    HW152781   8.083   2.994   8.895 -2.7567  1.5547  1.6019
15990SOL    HW252782   8.070   2.851   8.944  2.1009  0.1595 -0.5354
15991SOL     OW52783   1.748   5.876   8.672  0.0759  0.1589  0.3582
15991SOL    HW152784   1.769   5.933   8.598  0.5130  1.8729  1.7412
15991SOL    HW252785   1.818   5.811   8.674 -0.0760 -0.0707 -0.8453
15992SOL     OW52786   7.216   0.908   0.621 -0.3217  0.0772 -0.1741
15992SOL    HW152787   7.153   0.883   0.688 -0.2988  0.5215  0.0124
15992SOL    HW252788   7.298   0.921   0.668  0.3371 -2.0357 -0.6052
15993SOL     OW52789   4.733   1.916   3.355  0.4540  0.1126 -0.4882
15993SOL    HW152790   4.770   1.828   3.357 -1.9030 -0.9814 -1.3816
15993SOL    HW252791   4.797   1.968   3.305  1.1970 -1.4462 -1.2244
15994SOL     OW52792   8.314   3.708   7.423 -0.5460  0.0230  0.1987
15994SOL    HW152793   8.266   3.740   7.347 -0.2519 -1.8648 -0.8488
15994SOL    HW252794   8.392   3.666   7.385  0.0861 -0.1326  1.6158
15995SOL     OW52795   2.361   4.736   5.192  0.2257 -0.1952  0.4075
15995SOL    HW152796   2.339   4.647   5.163 -1.3844 -0.7535  3.0859
15995SOL    HW252797   2.282   4.787   5.176  0.7964  0.5463 -0.1456
15996SOL     OW52798   1.597   5.716   7.978 -0.1149 -0.1180  0.0848
15996SOL    HW152799   1.515   5.709   7.929  1.0881  0.0699 -2.0848
15996SOL    HW252800   1.640   5.631   7.964  0.1681 -0.1393  1.0291
15997SOL     OW52801   2.240   4.026   6.989 -0.1505 -0.2784  0.0514
15997SOL    HW152802   2.259   3.977   6.909 -1.0494 -0.1206 -0.2734
15997SOL    HW252803   2.253   4.118   6.965  0.2040 -0.2697  0.2711
15998SOL     OW52804   5.484   2.482   9.280  0.5387  0.5472  0.5528
15998SOL    HW152805   5.512   2.415   9.217  2.8447  1.3311  0.6635
15998SOL    HW252806   5.461   2.433   9.359  0.3625 -0.2388  0.0221
15999SOL     OW52807  11.078   3.112   0.961  0.2440 -0.3063  0.0785
15999SOL    HW152808  11.027   3.106   1.041  1.0476 -1.7862  0.5251
15999SOL    HW252809  11.046   3.040   0.907  0.7903 -0.2918 -0.2727
16000SOL     OW52810   8.345  10.132   4.344 -0.4137 -0.2358  0.1897
16000SOL    HW152811   8.321  10.180   4.423  0.9999 -1.4289  1.4026
16000SOL    HW252812   8.274  10.069   4.332 -0.8775  0.2729  0.2097
16001SOL     OW52813   9.052   7.884  12.146  0.2472  0.3792 -0.0692
16001SOL    HW152814   9.097   7.894  12.229  0.3475 -2.0398  0.2530
16001SOL    HW252815   8.973   7.835  12.168  0.6231 -0.9218 -1.4628
16002SOL     OW52816  11.427  11.027  10.566 -0.7159 -0.0987 -0.1852
16002SOL    HW152817  11.491  10.970  10.525 -0.0022 -0.1522  0.9508
16002SOL    HW252818  11.421  10.996  10.657 -1.2518  0.8361  0.1195
16003SOL     OW52819   8.499   7.319   5.795 -0.4520 -0.1995  0.4112
16003SOL    HW152820   8.526   7.336   5.704 -0.3611 -0.9213  0.2928
16003SOL    HW252821   8.535   7.393   5.845  0.8609 -0.5882  0.0948
16004SOL     OW52822   6.757   6.389  10.846  0.1297  0.1309 -0.0208
16004SOL    HW152823   6.721   6.476  10.864  1.4916  0.5242  0.9810
16004SOL    HW252824   6.786   6.394  10.755  1.5779  1.2772  0.4625
16005SOL     OW52825   7.367  12.472  11.715  0.1104 -0.2516 -0.1095
16005SOL    HW152826   7.420  12.437  11.643 -0.3729  1.5102 -1.3919
16005SOL    HW252827   7.420  12.544  11.751 -0.6373  0.4018 -0.2754
16006SOL     OW52828   3.211   4.914   4.322 -0.4385  0.4871 -0.1161
16006SOL    HW152829   3.206   4.945   4.413 -0.4699 -2.1622  0.8599
16006SOL    HW252830   3.142   4.848   4.315 -1.5580  1.7684 -2.6274
16007SOL     OW52831   5.965   1.405  10.800  0.0574 -0.2315 -0.0934
16007SOL    HW152832   6.036   1.360  10.846 -0.6816  0.2146  1.5624
16007SOL    HW252833   5.891   1.346  10.806 -0.3304  0.2763  0.1965
16008SOL     OW52834  10.799   0.418   5.809  0.1203  0.4204 -0.7332
16008SOL    HW152835  10.784   0.326   5.791  1.2422  0.6053 -3.0053
16008SOL    HW252836  10.874   0.441   5.754 -1.1038  3.0368 -1.4772
16009SOL     OW52837   1.631   0.412   9.774 -0.2868  0.0835 -0.3129
16009SOL    HW152838   1.554   0.468   9.776 -0.0511  0.4088 -0.3515
16009SOL    HW252839   1.703   0.469   9.748  0.1862  0.0300  0.8096
16010SOL     OW52840   5.749   1.300   0.554 -0.0676  0.6647  0.4312
16010SOL    HW152841   5.703   1.224   0.517 -0.0228  1.3528 -1.0908
16010SOL    HW252842   5.692   1.329   0.625 -0.2754 -0.5499  0.7905
16011SOL     OW52843   9.178   3.626   3.513 -0.2690 -0.1207 -0.4065
16011SOL    HW152844   9.109   3.561   3.496 -0.4126  0.1921 -1.0198
16011SOL    HW252845   9.136   3.692   3.568 -0.2998 -0.2211 -0.3097
16012SOL     OW52846   2.431   2.568   1.230 -0.7786  0.0429 -0.0907
16012SOL    HW152847   2.481   2.494   1.195 -3.8530 -2.3237  0.1129
16012SOL    HW252848   2.416   2.625   1.155 -3.3109 -2.6143 -1.8167
16013SOL     OW52849   8.444  10.751   8.974 -0.8633  0.3134 -0.1904
16013SOL    HW152850   8.508  10.704   9.027 -0.6989  0.0167 -0.6444
16013SOL    HW252851   8.374  10.774   9.035 -0.6036  0.1095  0.1843
16014SOL     OW52852   6.198  12.515   8.043  0.1464 -0.0159 -0.3603
16014SOL    HW152853   6.267  12.456   8.013  0.1045  0.0649 -0.6205
16014SOL    HW252854   6.242  12.580   8.097 -0.1037 -1.6295  1.9200
16015SOL     OW52855   5.708  12.457   7.844 -0.2914  0.0258 -0.0911
16015SOL    HW152856   5.690  12.546   7.875  0.1723  0.3095 -0.6154
16015SOL    HW252857   5.657  12.448   7.764 -0.0989 -0.0654 -0.2056
16016SOL     OW52858   2.099   2.440   6.822  0.0040 -0.3422 -0.0761
16016SOL    HW152859   2.019   2.440   6.874  0.0616 -1.1375  0.0314
16016SOL    HW252860   2.169   2.457   6.886  0.0008 -0.5598 -0.0115
16017SOL     OW52861   8.641   8.817   8.532  0.2565 -0.7347  0.9470
16017SOL    HW152862   8.699   8.891   8.512 -0.8134 -0.1340 -0.1308
16017SOL    HW252863   8.639   8.813   8.627 -0.3194  1.2188  1.0717
16018SOL     OW52864   1.490  10.580   3.465  0.0036 -0.3839 -0.8387
16018SOL    HW152865   1.456  10.650   3.520  1.0463  1.3646 -2.3087
16018SOL    HW252866   1.422  10.513   3.467 -0.0222 -0.4050  2.4554
16019SOL     OW52867   7.236   4.178   1.847  0.1683  0.0324 -0.0198
16019SOL    HW152868   7.176   4.242   1.887  1.3112  1.7646 -0.9192
16019SOL    HW252869   7.180   4.124   1.791 -0.9345 -0.2059  1.2608
16020SOL     OW52870   1.780   1.160   9.506 -0.0125 -0.3930  0.3597
16020SOL    HW152871   1.838   1.095   9.546  0.9140  0.6470  0.7632
16020SOL    HW252872   1.807   1.162   9.414  0.0719 -0.4729  0.3826
16021SOL     OW52873   5.139   0.814   6.461 -0.1290 -0.2808 -0.0223
16021SOL    HW152874   5.153   0.740   6.403  1.0830 -0.5529  0.6035
16021SOL    HW252875   5.191   0.795   6.539 -0.9539  0.5403  0.7616
16022SOL     OW52876   4.805   2.334   3.722  0.2496 -0.6522 -0.2905
16022SOL    HW152877   4.765   2.275   3.657  0.3991 -0.5357 -0.4904
16022SOL    HW252878   4.733   2.357   3.781  0.5195 -2.2550  0.7087
16023SOL     OW52879   9.901   7.606   1.031  0.1562 -0.3218 -0.1231
16023SOL    HW152880   9.940   7.561   1.107 -1.6568 -1.7291  0.0501
16023SOL    HW252881   9.912   7.544   0.959  0.0540  0.1271 -0.5254
16024SOL     OW52882   1.616  10.766   2.010 -0.3203 -0.2679  0.4950
16024SOL    HW152883   1.684  10.741   2.074  0.6790  1.1123  0.0256
16024SOL    HW252884   1.599  10.685   1.961  1.4053 -0.5426  0.2620
16025SOL     OW52885   5.041   6.692  11.706 -0.1629  0.7042 -0.3795
16025SOL    HW152886   5.107   6.758  11.726  1.2629  0.0733 -2.6344
16025SOL    HW252887   4.959   6.741  11.702  0.6382  2.0979 -0.6011
16026SOL     OW52888   1.322   5.127   3.930 -0.0177 -0.1303 -0.0610
16026SOL    HW152889   1.262   5.192   3.966  2.7380  2.7199 -0.1270
16026SOL    HW252890   1.294   5.115   3.839 -0.7692  0.7529  0.0480
16027SOL     OW52891   5.546   0.197   1.145  0.1563 -0.0372  0.5588
16027SOL    HW152892   5.468   0.183   1.093  0.3393 -2.0623  0.7212
16027SOL    HW252893   5.618   0.163   1.091  0.4924 -1.1132  1.6202
16028SOL     OW52894   6.122   6.579   1.811 -0.3671  0.2381  0.6558
16028SOL    HW152895   6.196   6.519   1.797  0.3530  1.0095  1.0836
16028SOL    HW252896   6.045   6.525   1.796  0.2133 -1.2379  2.4911
16029SOL     OW52897  12.571   3.054   4.124  0.2542 -0.4151 -0.1457
16029SOL    HW152898  12.554   3.133   4.174 -1.1553 -2.6711  3.3000
16029SOL    HW252899  12.657   3.023   4.155  0.1975 -0.9109 -0.4594
16030SOL     OW52900   0.472   7.275  10.295  0.1244  0.2665  0.0727
16030SOL    HW152901   0.445   7.288  10.204  0.8598  0.8954 -0.0674
16030SOL    HW252902   0.566   7.294  10.295  0.0817  0.5224  1.0133
16031SOL     OW52903   8.355  11.336   0.126 -0.5418 -0.3767  0.0548
16031SOL    HW152904   8.272  11.383   0.114  0.1067  0.7802  0.0079
16031SOL    HW252905   8.389  11.367   0.210 -0.1528 -0.8662  0.0882
16032SOL     OW52906   5.644   0.639   2.119 -0.0767  0.2775  0.5306
16032SOL    HW152907   5.652   0.674   2.031 -0.7578 -2.4185 -0.7047
16032SOL    HW252908   5.723   0.586   2.132 -0.1120  0.4183  1.4339
16033SOL     OW52909   4.987  12.064   7.927 -0.0279  0.5338 -0.2124
16033SOL    HW152910   4.933  12.043   8.003 -0.2596  0.6487 -0.3466
16033SOL    HW252911   4.933  12.122   7.874 -0.0676  0.0301 -0.7316
16034SOL     OW52912   3.815   3.636   5.936  0.8388  0.3717  0.0645
16034SOL    HW152913   3.839   3.721   5.900  0.9234  0.1925 -0.3061
16034SOL    HW252914   3.719   3.635   5.937  0.8246  0.9295  1.1673
16035SOL     OW52915   4.904   9.549   1.849  0.4372  0.1212  0.6945
16035SOL    HW152916   4.841   9.556   1.921  1.3535 -0.3393  1.5723
16035SOL    HW252917   4.940   9.461   1.857  3.3033  1.2793  2.0881
16036SOL     OW52918   4.260   9.841   9.260 -0.3208 -0.6423 -0.2167
16036SOL    HW152919   4.335   9.900   9.264  0.5614 -1.6987 -0.9171
16036SOL    HW252920   4.297   9.755   9.242 -1.5356 -1.5633  1.4200
16037SOL     OW52921   6.702   5.002   8.558 -0.1925 -0.4677  0.0029
16037SOL    HW152922   6.677   4.933   8.497 -0.0036 -0.0869 -0.5047
16037SOL    HW252923   6.627   5.061   8.559  0.6420  0.6746 -1.5177
16038SOL     OW52924   8.021  12.406   9.557  0.3941  0.1896 -0.0473
16038SOL    HW152925   7.931  12.386   9.530  0.6263  0.8575 -1.4134
16038SOL    HW252926   8.019  12.400   9.653 -0.9168 -0.5373 -0.0905
16039SOL     OW52927   0.662   8.213  10.114 -0.1199 -0.1513  0.0890
16039SOL    HW152928   0.617   8.280  10.063 -1.8459 -1.8619 -0.7673
16039SOL    HW252929   0.609   8.204  10.194 -0.9882 -1.6984 -0.6125
16040SOL     OW52930   3.761   1.809   0.915  0.0406  0.0331  0.5120
16040SOL    HW152931   3.803   1.755   0.983 -0.5298  0.7523  1.4663
16040SOL    HW252932   3.781   1.899   0.941  0.6807  0.3173 -0.8605
16041SOL     OW52933   6.244   9.346   3.365  0.6044 -0.1863 -0.1566
16041SOL    HW152934   6.336   9.366   3.348  0.7017  0.6454  1.2031
16041SOL    HW252935   6.200   9.364   3.281  1.4373  1.0329 -0.3554
16042SOL     OW52936   9.210   0.023   4.279 -0.0776 -0.1729  0.7273
16042SOL    HW152937   9.293   0.063   4.305 -0.0140  0.9153 -0.9503
16042SOL    HW252938   9.229  -0.070   4.273  0.4813 -0.1843  2.2343
16043SOL     OW52939   0.481   9.019   6.138 -0.1326  0.2480 -0.2285
16043SOL    HW152940   0.518   9.061   6.061 -0.5064  1.1288  0.0652
16043SOL    HW252941   0.493   8.925   6.122 -0.1334  0.4249 -1.3125
16044SOL     OW52942   1.457  11.710   0.298 -0.3441 -0.2744  0.2400
16044SOL    HW152943   1.499  11.755   0.225  0.3737  0.5738  1.1405
16044SOL    HW252944   1.464  11.771   0.371 -0.5799 -1.3052  1.1585
16045SOL     OW52945   1.283   8.894   8.803  0.0037 -0.7057 -0.0716
16045SOL    HW152946   1.266   8.900   8.897  0.2082  1.2780 -0.1212
16045SOL    HW252947   1.310   8.803   8.789 -2.2825 -1.6996  1.3773
16046SOL     OW52948   0.512   3.575   4.353 -0.8441 -0.6045 -0.1620
16046SOL    HW152949   0.585   3.516   4.371 -1.2268 -2.0702 -2.8740
16046SOL    HW252950   0.459   3.573   4.432  1.0327 -1.0220  1.1443
16047SOL     OW52951   4.038   0.965   5.108  0.0095  0.3300 -0.4517
16047SOL    HW152952   3.993   0.923   5.035 -0.1890  1.8491 -1.2344
16047SOL    HW252953   4.048   0.895   5.173 -0.9209 -0.7389 -1.4132
16048SOL     OW52954   0.961   4.400   7.426 -0.2943  0.5230  0.2489
16048SOL    HW152955   0.907   4.394   7.348  1.4174 -0.9299 -0.9007
16048SOL    HW252956   1.038   4.449   7.398  2.1038 -3.0986 -0.1666
16049SOL     OW52957  11.489   0.387   3.934 -0.2951  0.1032  0.3850
16049SOL    HW152958  11.407   0.337   3.934 -0.6358  0.6559  0.0704
16049SOL    HW252959  11.525   0.373   4.022 -0.6162 -0.3219  0.4546
16050SOL     OW52960   2.834   9.277  10.148 -0.7836 -0.4764  0.9614
16050SOL    HW152961   2.836   9.319  10.062  0.3747 -2.4527 -0.0641
16050SOL    HW252962   2.778   9.200  10.136 -0.9669 -0.5377  2.1095
16051SOL     OW52963   7.612   9.393   8.487 -0.5079 -0.2220  0.4237
16051SOL    HW152964   7.539   9.437   8.530 -0.9437 -0.3408 -0.1921
16051SOL    HW252965   7.652   9.341   8.556  0.0417  1.1489  1.1845
16052SOL     OW52966   3.390   0.409  12.408 -0.0019  0.3823 -0.3276
16052SOL    HW152967   3.468   0.463  12.423  0.9622 -0.6316 -1.4746
16052SOL    HW252968   3.413   0.354  12.333 -1.3763 -0.7946  0.0670
16053SOL     OW52969  11.527   8.053   7.212 -0.2674 -0.0993  0.4803
16053SOL    HW152970  11.543   8.065   7.119 -1.2967 -0.7324  0.1993
16053SOL    HW252971  11.554   7.963   7.231 -0.6586 -0.1900  0.6380
16054SOL     OW52972   0.359  10.230   0.905 -0.0387  0.3217 -0.4915
16054SOL    HW152973   0.360  10.315   0.950  0.3206 -0.5310  1.1636
16054SOL    HW252974   0.396  10.249   0.818  1.7473  1.5422  0.4687
16055SOL     OW52975   1.864   9.153   9.223 -0.4165  0.0748  0.0844
16055SOL    HW152976   1.855   9.063   9.253 -1.2353  0.0106 -0.3054
16055SOL    HW252977   1.800   9.161   9.151  0.2118  0.7310 -0.4206
16056SOL     OW52978   7.303   0.505   1.482 -0.1351 -0.0312 -0.0909
16056SOL    HW152979   7.251   0.526   1.560 -0.2446 -0.1638 -0.1277
16056SOL    HW252980   7.333   0.415   1.497  1.8982  0.7658  0.9350
16057SOL     OW52981   7.384   4.759  11.251 -0.4327 -0.0821  0.2060
16057SOL    HW152982   7.303   4.766  11.201 -0.3242  1.9428  0.2240
16057SOL    HW252983   7.452   4.745  11.185 -0.6948 -1.1477  0.1396
16058SOL     OW52984  10.801   6.528   6.117  0.1310 -0.6055  0.4508
16058SOL    HW152985  10.738   6.465   6.150 -1.3708  0.0029 -1.1288
16058SOL    HW252986  10.826   6.496   6.030  0.7089  0.0469  0.3575
16059SOL     OW52987   1.548   4.473   4.945 -0.5972 -0.1141  0.2041
16059SOL    HW152988   1.548   4.465   5.040  0.2448  1.1389  0.3349
16059SOL    HW252989   1.628   4.522   4.925 -0.7820 -0.3280 -1.1451
16060SOL     OW52990   3.328   9.705   5.564  0.4118 -0.2436 -0.1261
16060SOL    HW152991   3.362   9.631   5.515 -1.4347 -1.2127 -0.0597
16060SOL    HW252992   3.255   9.668   5.615 -0.3712  1.5495  0.1421
16061SOL     OW52993   6.905   2.319   7.956  0.3297  0.1041 -0.2714
16061SOL    HW152994   6.884   2.263   8.030  0.2320  1.6085  0.8947
16061SOL    HW252995   6.911   2.260   7.881  2.3669 -1.7642  1.2355
16062SOL     OW52996   5.352   0.928  11.255 -0.6697  0.0525 -0.1676
16062SOL    HW152997   5.396   0.967  11.179 -0.9515 -1.2571 -1.0494
16062SOL    HW252998   5.421   0.884  11.304  0.0808  3.4404  2.1395
16063SOL     OW52999   0.733   2.880  11.014 -0.5033 -0.1571  0.0885
16063SOL    HW153000   0.771   2.842  10.935  1.0464  2.1178 -0.3910
16063SOL    HW253001   0.778   2.836  11.086  1.5333  0.9079 -0.4430
16064SOL     OW53002   5.615   9.687   0.639  0.1213 -0.1571  0.3637
16064SOL    HW153003   5.669   9.725   0.570  0.4196  1.1186  1.2626
16064SOL    HW253004   5.535   9.739   0.638  0.4410  0.3799  1.4683
16065SOL     OW53005   9.842   7.580   7.067  0.1378 -0.1680  0.2788
16065SOL    HW153006   9.821   7.495   7.106  0.8899  0.1974  1.5410
16065SOL    HW253007   9.767   7.635   7.088 -2.0987 -1.3724 -3.6435
16066SOL     OW53008   9.191   3.697   2.870 -0.1836 -0.0666  0.2229
16066SOL    HW153009   9.103   3.692   2.907 -0.1043 -1.1094  0.3067
16066SOL    HW253010   9.183   3.654   2.785  0.6021 -1.7679  0.9675
16067SOL     OW53011  12.354   1.273   7.073  0.0116 -0.5586 -0.2271
16067SOL    HW153012  12.367   1.304   6.983  1.6901 -0.5181 -0.0135
16067SOL    HW253013  12.345   1.353   7.125  2.2360 -0.3928  0.0306
16068SOL     OW53014   3.151   3.694   1.616  0.3787  0.1750 -0.2916
16068SOL    HW153015   3.231   3.645   1.634  0.4104 -0.2126 -1.4267
16068SOL    HW253016   3.112   3.650   1.540 -0.7279  0.5762  0.0271
16069SOL     OW53017   5.557  11.823  10.753 -0.3412 -0.5485 -0.5002
16069SOL    HW153018   5.538  11.866  10.836 -2.3507  0.6313 -1.4883
16069SOL    HW253019   5.471  11.799  10.718  0.5031 -1.6446 -1.9137
16070SOL     OW53020  11.326  12.455   2.429 -0.6435  0.4039  0.3945
16070SOL    HW153021  11.251  12.465   2.488 -1.3338  1.7637 -0.6493
16070SOL    HW253022  11.388  12.522   2.459  0.5639 -1.2559  1.7761
16071SOL     OW53023   6.769  12.593  10.615 -0.2380  0.2496 -0.8954
16071SOL    HW153024   6.779  12.586  10.520 -0.0990 -0.1151 -0.8583
16071SOL    HW253025   6.702  12.660  10.628  0.2212  0.7845 -1.2353
16072SOL     OW53026   2.126   7.400  10.457 -0.0869  0.9316 -0.4048
16072SOL    HW153027   2.142   7.418  10.549 -0.6824  0.3212 -0.1727
16072SOL    HW253028   2.032   7.416  10.445 -0.2113  0.0929 -0.6744
16073SOL     OW53029   0.712   6.434   5.541 -0.1658  0.1593  0.3848
16073SOL    HW153030   0.786   6.469   5.492 -0.3086 -0.1043 -0.0338
16073SOL    HW253031   0.667   6.511   5.576  0.1119  0.3366  0.3534
16074SOL     OW53032   8.831  11.181   8.491 -0.4374 -0.3809 -0.3724
16074SOL    HW153033   8.735  11.180   8.494 -0.4336  0.7191  2.0659
16074SOL    HW253034   8.852  11.143   8.405 -3.0413  0.1146 -1.3353
16075SOL     OW53035   1.273   1.448   8.614  0.0799 -0.2382 -0.6606
16075SOL    HW153036   1.232   1.523   8.570  0.6196 -0.3844 -1.4265
16075SOL    HW253037   1.199   1.395   8.643 -0.4112  1.6422  1.8760
16076SOL     OW53038   5.510   2.368   1.356  0.0804  0.3238 -0.0585
16076SOL    HW153039   5.503   2.386   1.262  0.0438  1.4390  0.1429
16076SOL    HW253040   5.427   2.325   1.378  0.3451 -0.5160 -0.6399
16077SOL     OW53041   2.143  10.390   5.809  0.1363  0.1189 -0.1203
16077SOL    HW153042   2.191  10.346   5.880 -0.5689 -1.7313 -0.7431
16077SOL    HW253043   2.195  10.373   5.731  0.5876  1.6399 -0.1854
16078SOL     OW53044   2.176   8.476   0.664  0.0086  0.3635 -0.4933
16078SOL    HW153045   2.215   8.520   0.589 -0.1383  1.5358  0.0857
16078SOL    HW253046   2.082   8.482   0.650 -0.0066 -0.4408 -0.7731
16079SOL     OW53047  12.278   9.476   6.308  0.0678 -0.1425  0.4931
16079SOL    HW153048  12.196   9.436   6.337 -1.0233  1.7224  0.1148
16079SOL    HW253049  12.252   9.538   6.241  1.8943  0.0029 -0.1268
16080SOL     OW53050   5.815   8.044  11.296  0.4237 -0.2687  0.5694
16080SOL    HW153051   5.776   8.100  11.229  1.0579 -1.8133 -1.2032
16080SOL    HW253052   5.831   7.961  11.250  0.5860 -1.5074  2.7522
16081SOL     OW53053   0.349   9.030   6.954  0.4060  0.4645 -0.1659
16081SOL    HW153054   0.268   9.070   6.985 -1.0097 -2.4463  0.2725
16081SOL    HW253055   0.349   9.045   6.860 -0.6262  0.5884 -0.1532
16082SOL     OW53056   4.260   8.452   9.794  0.0291  0.1720 -0.1459
16082SOL    HW153057   4.199   8.524   9.811  0.5811  0.4858  0.5543
16082SOL    HW253058   4.209   8.390   9.742 -1.7046 -0.7331  2.3946
16083SOL     OW53059   1.969   7.021   7.471  0.2495 -0.2083 -0.0935
16083SOL    HW153060   1.942   7.049   7.558 -1.3836 -1.9263  0.0181
16083SOL    HW253061   1.902   7.058   7.413 -0.5305 -1.7088 -0.2079
16084SOL     OW53062   6.633   3.175   9.882 -0.8091  0.6022  0.2486
16084SOL    HW153063   6.680   3.257   9.867 -1.2429  0.9304  0.6458
16084SOL    HW253064   6.628   3.134   9.796 -1.0134  1.2214 -0.0429
16085SOL     OW53065   6.684   6.180   8.359 -0.2091 -0.2118 -0.4082
16085SOL    HW153066   6.654   6.263   8.321  0.9374  0.1482 -0.5575
16085SOL    HW253067   6.682   6.118   8.286 -0.4303 -0.1587 -0.4488
16086SOL     OW53068   7.988   3.557  12.489  0.8208  0.2962  0.5285
16086SOL    HW153069   7.959   3.515  12.570 -0.7249  1.0680  0.4038
16086SOL    HW253070   8.063   3.611  12.517  0.9230 -0.1939  1.2442
16087SOL     OW53071   2.572  11.205   8.926  0.1105  0.1270  0.1731
16087SOL    HW153072   2.583  11.244   9.012  0.8707  1.5429 -0.5343
16087SOL    HW253073   2.482  11.227   8.901  0.3993  1.1368 -0.0449
16088SOL     OW53074   0.897   8.640   5.151 -0.6001 -0.1751 -0.3939
16088SOL    HW153075   0.904   8.705   5.081 -1.4391  0.0086 -0.3137
16088SOL    HW253076   0.878   8.558   5.106  2.6613 -0.8898 -0.7065
16089SOL     OW53077  12.597  10.038   6.687  0.0735  0.0310  0.2386
16089SOL    HW153078  12.571   9.989   6.609 -2.3538 -1.1822  1.6918
16089SOL    HW253079  12.544  10.118   6.685  0.6642  0.4281  0.2003
16090SOL     OW53080   1.392   0.531   9.845 -0.4182 -0.1805  0.1030
16090SOL    HW153081   1.336   0.455   9.829 -1.0451 -0.1178  1.8428
16090SOL    HW253082   1.372   0.591   9.772 -2.6572 -0.1517  0.6775
16091SOL     OW53083   6.819  11.715   0.951  0.0300  0.1942 -0.1985
16091SOL    HW153084   6.835  11.786   1.013 -2.0490  0.1156  0.5117
16091SOL    HW253085   6.823  11.757   0.865  0.2338  0.8799  0.1361
16092SOL     OW53086   2.788   2.550   7.474  0.4251 -0.0495 -0.2033
16092SOL    HW153087   2.777   2.521   7.564  3.7714 -1.4006 -0.0810
16092SOL    HW253088   2.799   2.469   7.424 -0.5697  0.7095 -1.7544
16093SOL     OW53089   2.368   5.774  10.505 -0.1111 -0.4436 -0.2007
16093SOL    HW153090   2.371   5.735  10.418 -0.9049  0.5442 -0.6926
16093SOL    HW253091   2.275   5.794  10.519  0.0344 -0.3874  0.7903
16094SOL     OW53092   0.879   5.709   9.821  0.0445 -0.0495  0.4543
16094SOL    HW153093   0.821   5.755   9.881  0.7215  0.3581  0.8055
16094SOL    HW253094   0.967   5.736   9.846  0.3186  0.8403 -1.2889
16095SOL     OW53095  11.642  11.478   2.076  0.2018 -0.4892  0.5873
16095SOL    HW153096  11.710  11.480   2.143  0.5930  0.2860  0.1846
16095SOL    HW253097  11.572  11.534   2.110  0.3909 -0.1142  0.3725
16096SOL     OW53098   5.436   8.787   5.991 -0.1202 -0.0774 -0.5367
16096SOL    HW153099   5.489   8.865   5.974  0.6947 -0.6564 -0.6654
16096SOL    HW253100   5.436   8.739   5.908 -0.9015 -0.0621 -0.5586
16097SOL     OW53101   3.764   9.979   1.400 -0.2797 -0.0494 -0.3025
16097SOL    HW153102   3.813   9.901   1.374  1.0547  1.2534 -1.8635
16097SOL    HW253103   3.799  10.049   1.347  1.1870  2.4490  3.5161
16098SOL     OW53104  10.309  11.912   3.483 -0.1572  0.6005 -0.0896
16098SOL    HW153105  10.255  11.864   3.546 -0.5390  0.5313 -0.4663
16098SOL    HW253106  10.256  11.915   3.403  2.2191 -3.6329 -2.1240
16099SOL     OW53107  10.748   3.068   3.726 -0.1826 -0.1559 -0.4905
16099SOL    HW153108  10.764   3.040   3.816  0.4408  2.4885  0.3085
16099SOL    HW253109  10.831   3.048   3.681  1.1528  2.3818  0.6502
16100SOL     OW53110  11.117   0.085   8.409  0.5322  0.1724  0.3259
16100SOL    HW153111  11.184   0.032   8.366  0.0939 -1.1221  1.1797
16100SOL    HW253112  11.147   0.092   8.500 -0.4921 -0.4581  0.7269
16101SOL     OW53113   7.897   6.925   5.725  0.5161  0.1019  0.2213
16101SOL    HW153114   7.975   6.950   5.775 -0.0965 -0.9772  1.7834
16101SOL    HW253115   7.855   7.009   5.704  0.9609  0.6052  1.2496
16102SOL     OW53116   7.673  11.964   2.144 -0.0522 -0.3821 -0.3923
16102SOL    HW153117   7.645  11.985   2.055  0.4345 -0.2139 -0.5065
16102SOL    HW253118   7.691  11.870   2.143 -0.4143 -0.4511 -0.3712
16103SOL     OW53119   4.671   6.416   3.785 -0.1681 -0.4118 -0.2952
16103SOL    HW153120   4.743   6.429   3.724 -0.5985 -1.8981 -1.1651
16103SOL    HW253121   4.713   6.408   3.870  0.4873  1.1007 -0.4364
16104SOL     OW53122   0.963   6.700   9.132  0.3019  0.4526  0.1976
16104SOL    HW153123   0.889   6.758   9.115 -0.7254 -0.5701  0.9872
16104SOL    HW253124   0.935   6.648   9.208  2.5719  1.2663  1.6691
16105SOL     OW53125   9.175  11.255   6.986 -0.5550  0.1073  0.3951
16105SOL    HW153126   9.150  11.296   6.903  2.4768  1.0652 -0.1747
16105SOL    HW253127   9.122  11.298   7.052 -1.7170  0.6446 -0.8590
16106SOL     OW53128   1.720   1.797   0.557 -0.0919  0.4976  0.1025
16106SOL    HW153129   1.639   1.766   0.597  0.1987 -0.9100 -0.3261
16106SOL    HW253130   1.782   1.805   0.631 -0.9686  3.0022  0.6579
16107SOL     OW53131   3.418   8.217   2.628  0.3550 -0.5774  0.1464
16107SOL    HW153132   3.364   8.140   2.649  1.8809 -1.7753 -0.1301
16107SOL    HW253133   3.473   8.189   2.555  0.5898  0.9689 -0.3081
16108SOL     OW53134   5.639   9.299   7.033 -0.2704  0.3594 -0.1716
16108SOL    HW153135   5.677   9.378   6.994  3.2365 -1.2658 -0.3886
16108SOL    HW253136   5.590   9.259   6.961 -1.5581  1.9027 -0.2281
16109SOL     OW53137   6.658   8.185  10.886 -0.2704  0.5510  0.3657
16109SOL    HW153138   6.720   8.158  10.953 -0.6959  2.0009  1.3859
16109SOL    HW253139   6.653   8.110  10.826  1.9740  0.1782  0.5882
16110SOL     OW53140   6.603   7.842   3.935  0.3605 -0.9966 -0.1514
16110SOL    HW153141   6.663   7.909   3.903  1.6536 -2.0360  0.0508
16110SOL    HW253142   6.641   7.759   3.907  0.8548 -1.8936  2.7769
16111SOL     OW53143   6.865  11.965   4.067  0.2106  0.3947 -0.2572
16111SOL    HW153144   6.891  11.890   4.012  3.3395  0.8735  0.3771
16111SOL    HW253145   6.856  11.928   4.155 -0.6035  0.3886 -0.3325
16112SOL     OW53146   6.573   6.836  12.122 -0.1633 -0.3030  0.2062
16112SOL    HW153147   6.478   6.825  12.133 -0.2882 -0.1280 -0.6149
16112SOL    HW253148   6.612   6.767  12.175 -0.7474 -0.2886  0.6629
16113SOL     OW53149   6.147   2.479  10.738  0.7716 -1.0271 -0.2690
16113SOL    HW153150   6.168   2.386  10.724 -0.6170 -2.1122  3.6819
16113SOL    HW253151   6.233   2.522  10.740  1.5045 -2.3464 -1.1621
16114SOL     OW53152   2.536   5.426   1.170  0.6907 -0.0726  0.3779
16114SOL    HW153153   2.500   5.514   1.176 -1.4461 -0.7949 -0.8458
16114SOL    HW253154   2.511   5.385   1.253 -0.5839 -0.2792 -0.0855
16115SOL     OW53155   5.122   5.691   4.291  0.0545  0.1297  0.3893
16115SOL    HW153156   5.079   5.737   4.363 -0.5716  0.3401 -0.1103
16115SOL    HW253157   5.200   5.743   4.272 -1.5811  2.1269 -1.4085
16116SOL     OW53158   7.463   9.985   1.783 -0.5813  0.2622 -0.0008
16116SOL    HW153159   7.481  10.048   1.714 -0.2371  1.4925  1.1671
16116SOL    HW253160   7.368   9.973   1.781 -1.0641  2.9753  1.4920
16117SOL     OW53161   3.251   9.881  11.692 -0.0972  0.5449  0.0299
16117SOL    HW153162   3.308   9.939  11.741 -1.4665  0.3946  1.9020
16117SOL    HW253163   3.198   9.939  11.638  0.4842  0.8160 -0.2537
16118SOL     OW53164   1.418   2.334   1.589  0.1938 -0.0494 -0.2500
16118SOL    HW153165   1.456   2.346   1.676 -0.5688 -1.1678  0.2557
16118SOL    HW253166   1.378   2.419   1.568 -1.5083 -0.3667  1.4444
16119SOL     OW53167  12.614   8.972   1.320 -0.3272  0.4377  0.3008
16119SOL    HW153168  12.557   9.018   1.382 -1.0161  0.6187 -0.4519
16119SOL    HW253169  12.698   8.967   1.365 -1.2802 -1.1121  2.0441
16120SOL     OW53170   0.824   7.942  10.783 -0.8592  0.2892 -0.2843
16120SOL    HW153171   0.862   7.969  10.699  0.4671 -0.0184  0.1795
16120SOL    HW253172   0.757   8.008  10.802  0.4015  1.6896 -0.4975
16121SOL     OW53173   7.619   0.309  12.271  0.0461 -0.0434 -0.3867
16121SOL    HW153174   7.614   0.402  12.251  1.4125  0.1066 -0.1241
16121SOL    HW253175   7.643   0.268  12.188  0.5027 -0.0379 -0.2563
16122SOL     OW53176   1.662   8.677  10.831 -0.6435 -0.6378 -0.5817
16122SOL    HW153177   1.699   8.640  10.912  1.3341  2.1243 -0.0821
16122SOL    HW253178   1.569   8.689  10.851 -0.4040 -1.0331  0.8843
16123SOL     OW53179   5.736  11.185   9.614  0.6119  0.3018 -0.0850
16123SOL    HW153180   5.730  11.244   9.690  0.7589  0.0115  0.1514
16123SOL    HW253181   5.651  11.196   9.570 -0.3701 -1.1567  1.3295
16124SOL     OW53182   1.643   7.696   6.869  0.0076  0.7231 -0.2071
16124SOL    HW153183   1.575   7.646   6.915  0.8473 -1.0827 -0.8358
16124SOL    HW253184   1.656   7.649   6.787  1.7060  1.2953 -0.3042
16125SOL     OW53185   3.980   9.627   3.958 -0.2242 -0.0891  0.0955
16125SOL    HW153186   4.021   9.681   3.890 -0.4462 -0.4441 -0.3288
16125SOL    HW253187   4.035   9.549   3.963  0.0672  0.1502  0.6707
16126SOL     OW53188   5.055   5.875  11.142 -0.2238  0.3624 -0.3990
16126SOL    HW153189   5.088   5.786  11.158 -0.8116  0.4696  1.6030
16126SOL    HW253190   5.014   5.870  11.056  1.2364 -0.8590 -1.0697
16127SOL     OW53191  10.491   8.276   7.952 -0.1852 -0.0050  0.3909
16127SOL    HW153192  10.574   8.321   7.961 -0.0630 -0.2954  0.7490
16127SOL    HW253193  10.488   8.216   8.027 -0.8120  0.1605  0.5024
16128SOL     OW53194   1.118   7.050  12.023 -0.0422 -0.0261  0.1339
16128SOL    HW153195   1.149   7.028  12.111 -0.5992 -1.9973 -0.1262
16128SOL    HW253196   1.132   6.971  11.972 -2.5176  0.0547 -0.7923
16129SOL     OW53197   9.646   3.926   7.457  0.1117 -0.5537  0.3207
16129SOL    HW153198   9.684   4.008   7.425  0.7480 -2.1635 -3.6032
16129SOL    HW253199   9.626   3.943   7.549  3.7979  2.7114  0.7875
16130SOL     OW53200   0.106   1.731   6.280 -0.5013 -0.3969  0.4355
16130SOL    HW153201   0.197   1.761   6.289 -0.8977  0.3513  2.1958
16130SOL    HW253202   0.081   1.760   6.192  0.3254  1.2032  0.6842
16131SOL     OW53203   4.378  11.835  11.542 -0.4814  0.1610 -0.6862
16131SOL    HW153204   4.417  11.897  11.604 -0.1204 -1.9356  1.3146
16131SOL    HW253205   4.286  11.831  11.567 -0.2822 -0.8832 -0.0769
16132SOL     OW53206   6.418  10.382   1.815  0.1947  0.2313  0.1357
16132SOL    HW153207   6.354  10.453   1.807 -0.4014 -0.2352  0.6740
16132SOL    HW253208   6.479  10.396   1.742  1.1252  2.3459  1.2451
16133SOL     OW53209  11.368  10.956   3.324  0.7813 -0.5464  0.2130
16133SOL    HW153210  11.411  10.881   3.282 -0.9678 -1.1407 -0.6358
16133SOL    HW253211  11.401  11.032   3.276  1.8936 -0.8421  0.4832
16134SOL     OW53212  11.085   6.919   9.321  0.5038  0.0475 -0.0239
16134SOL    HW153213  11.138   6.863   9.265 -0.6149 -0.0679 -1.0151
16134SOL    HW253214  11.035   6.974   9.260 -2.5741 -1.7155  0.6726
16135SOL     OW53215   1.335   3.954  11.845  0.0384  0.0523 -0.7031
16135SOL    HW153216   1.360   3.981  11.934  2.2963  1.3793 -1.6574
16135SOL    HW253217   1.418   3.950  11.797 -0.8474 -2.9190 -2.2203
16136SOL     OW53218  10.013   7.942   3.779 -0.0921 -0.0121  0.4565
16136SOL    HW153219   9.943   8.007   3.785 -1.1782 -0.9695 -0.9633
16136SOL    HW253220   9.997   7.897   3.696  3.1486  0.7290 -0.7224
16137SOL     OW53221  11.117   0.367   5.073  0.3345  0.0644  0.3145
16137SOL    HW153222  11.079   0.427   5.138  0.4315  0.0596  0.3749
16137SOL    HW253223  11.044   0.347   5.014  0.1894 -0.1137  0.5566
16138SOL     OW53224   4.603   8.270   0.411 -0.0440 -0.3957 -0.2122
16138SOL    HW153225   4.571   8.304   0.494 -1.6711  0.6616 -1.2078
16138SOL    HW253226   4.549   8.193   0.394 -0.8909  0.3566 -1.0513
16139SOL     OW53227   6.375  12.358   5.258  0.6158  0.0324  0.5989
16139SOL    HW153228   6.383  12.294   5.188 -1.7134 -0.0954  0.3551
16139SOL    HW253229   6.423  12.321   5.331  0.5847 -1.2515 -0.0134
16140SOL     OW53230   4.586  10.621   5.401 -0.3932  0.3587 -0.6104
16140SOL    HW153231   4.661  10.651   5.350  0.2580  0.2934  0.2997
16140SOL    HW253232   4.513  10.624   5.339  0.0085  2.0777 -1.0433
16141SOL     OW53233   4.942   7.008   3.046 -0.1459  0.5498  1.1344
16141SOL    HW153234   5.038   7.006   3.042 -0.1331 -2.5061  0.4731
16141SOL    HW253235   4.922   7.066   3.119  2.1202  2.5250  0.3254
16142SOL     OW53236   7.163   2.336  11.176  0.1350  0.8327 -0.3701
16142SOL    HW153237   7.195   2.277  11.108  0.5060  0.8651 -0.2269
16142SOL    HW253238   7.118   2.405  11.127 -2.1596 -0.6291 -0.4505
16143SOL     OW53239   4.368   4.427   9.739 -0.1022 -0.5304 -0.1290
16143SOL    HW153240   4.458   4.394   9.743 -0.1570 -0.7423 -0.6554
16143SOL    HW253241   4.313   4.349   9.742 -0.2297 -0.5057 -1.3954
16144SOL     OW53242   0.732  10.667   9.722  0.3784  0.4754  0.2685
16144SOL    HW153243   0.777  10.718   9.655 -0.4922  1.0446  0.0915
16144SOL    HW253244   0.801  10.638   9.782  1.0373  0.8092 -0.3190
16145SOL     OW53245   7.389   5.406   7.841  0.1335  0.3440  0.0261
16145SOL    HW153246   7.337   5.394   7.920  0.2510  0.6233  0.1456
16145SOL    HW253247   7.406   5.317   7.809 -3.1160  0.2381 -1.7990
16146SOL     OW53248   7.369   8.795  11.968  0.7265  0.1240 -0.3427
16146SOL    HW153249   7.307   8.812  12.039  1.6608  0.3119  0.4605
16146SOL    HW253250   7.401   8.706  11.986 -0.3172 -0.5372 -1.5591
16147SOL     OW53251  11.060  11.967   4.625 -0.6647 -0.0345  0.1677
16147SOL    HW153252  11.101  12.008   4.549  0.5917 -2.3847 -0.5217
16147SOL    HW253253  11.080  11.874   4.616 -1.0391 -0.4914  3.0408
16148SOL     OW53254   8.072   3.307   2.238 -0.4261  0.3611 -0.1812
16148SOL    HW153255   8.085   3.376   2.172 -1.9298 -1.0607 -2.0621
16148SOL    HW253256   7.997   3.337   2.289 -0.9621  0.2382 -0.8768
16149SOL     OW53257  11.535   9.090   5.761 -0.6894 -0.4804  0.0863
16149SOL    HW153258  11.491   9.151   5.701 -1.5547 -0.3266  0.8489
16149SOL    HW253259  11.564   9.018   5.705  2.0132  1.4274 -1.1586
16150SOL     OW53260   7.645   6.767   6.870  0.6620  0.2313 -1.0721
16150SOL    HW153261   7.710   6.752   6.938  2.2509  0.0304 -2.5697
16150SOL    HW253262   7.639   6.862   6.861 -0.7299  0.3185  0.3820
16151SOL     OW53263   4.876   4.476   5.737  0.4542 -0.4904  0.4594
16151SOL    HW153264   4.918   4.408   5.789 -1.8293  0.2265  3.5639
16151SOL    HW253265   4.787   4.444   5.723  0.3665  0.3541 -1.1801
16152SOL     OW53266   6.466   2.654  10.322 -0.1415 -0.2397 -0.0863
16152SOL    HW153267   6.533   2.720  10.337  1.1248 -1.2019 -1.2551
16152SOL    HW253268   6.383   2.701  10.332  0.7056  1.2373  0.2596
16153SOL     OW53269   8.030   1.395   5.538 -0.1664 -0.4528  0.5783
16153SOL    HW153270   8.119   1.363   5.551  0.4025  1.0646  0.6593
16153SOL    HW253271   8.041   1.485   5.508 -1.5943 -1.1382 -2.3983
16154SOL     OW53272   7.441   8.225   8.857 -0.1595 -0.4965  0.3540
16154SOL    HW153273   7.515   8.181   8.900 -0.5237 -2.4553 -0.8950
16154SOL    HW253274   7.389   8.260   8.930  1.3723 -0.0892  1.3003
16155SOL     OW53275   1.221   9.416  11.874  0.1573  0.0119  0.0436
16155SOL    HW153276   1.288   9.465  11.923 -2.0774  1.9301  1.3630
16155SOL    HW253277   1.188   9.479  11.810 -1.8222 -0.1658  0.8323
16156SOL     OW53278   5.232   7.381   7.411 -0.0568  0.4509  0.0995
16156SOL    HW153279   5.223   7.432   7.492 -1.7135 -0.5357  0.5752
16156SOL    HW253280   5.248   7.446   7.343 -1.5291  1.5859  0.7849
16157SOL     OW53281   9.314   0.532  11.045 -0.1026 -0.2735  0.0955
16157SOL    HW153282   9.384   0.485  11.090  1.7308  1.5232 -0.6678
16157SOL    HW253283   9.321   0.502  10.954  1.0133  1.2508 -0.3751
16158SOL     OW53284  11.242  12.587   4.997  0.1181  0.3257  0.3231
16158SOL    HW153285  11.281  12.659   5.047  0.4832  0.5382 -0.2528
16158SOL    HW253286  11.289  12.588   4.913 -1.0228  0.5076 -0.3410
16159SOL     OW53287   4.251  10.060   0.497 -0.2034  0.0308 -0.4473
16159SOL    HW153288   4.184  10.123   0.521 -1.1364 -0.7822 -0.8435
16159SOL    HW253289   4.203   9.980   0.475  0.9018 -0.6357 -0.5614
16160SOL     OW53290   5.347   4.292   5.190  0.0110  0.1565 -1.4229
16160SOL    HW153291   5.325   4.333   5.106  1.5308 -0.6362 -2.2432
16160SOL    HW253292   5.376   4.204   5.167  0.4392 -0.0821 -0.0577
16161SOL     OW53293   6.603   3.234   0.694  0.6408 -0.3548 -0.1011
16161SOL    HW153294   6.565   3.318   0.666  1.3310  0.2902  0.8420
16161SOL    HW253295   6.697   3.247   0.688  0.7897 -0.5229  1.5554
16162SOL     OW53296   0.923   3.298  11.190 -0.4008 -0.4747 -0.0663
16162SOL    HW153297   0.901   3.342  11.108 -0.7075  0.6479  0.6040
16162SOL    HW253298   0.846   3.307  11.245  0.9988  2.0415  1.6894
16163SOL     OW53299   3.543   6.608   3.579 -0.2436 -0.0032 -0.2731
16163SOL    HW153300   3.555   6.541   3.512  1.1786  0.2034 -0.2647
16163SOL    HW253301   3.518   6.560   3.658 -0.1422 -0.4322 -0.5010
16164SOL     OW53302   2.562   4.949   3.897 -0.4560 -0.7396  0.2301
16164SOL    HW153303   2.655   4.943   3.916 -0.2484 -1.2889 -0.8379
16164SOL    HW253304   2.532   5.026   3.944  1.1945  1.2989 -1.8235
16165SOL     OW53305   0.675  12.548   9.840 -0.0264 -0.4525 -0.2842
16165SOL    HW153306   0.750  12.550   9.898  1.4493 -1.4405 -2.0306
16165SOL    HW253307   0.679  12.461   9.798 -1.3759 -0.0389 -1.3630
16166SOL     OW53308   2.486   3.833   6.186  0.0477  0.6592 -0.1706
16166SOL    HW153309   2.539   3.782   6.248  0.2583 -1.9200 -2.2843
16166SOL    HW253310   2.396   3.819   6.215  0.0234 -1.7603 -1.1442
16167SOL     OW53311   3.514   7.905   2.598  0.1218  0.2092 -0.2948
16167SOL    HW153312   3.443   7.842   2.613 -0.8571  1.0280 -1.2952
16167SOL    HW253313   3.593   7.852   2.589 -0.6028 -0.8345 -0.5899
16168SOL     OW53314   6.236   7.093  11.641 -0.5014  0.2479 -0.6121
16168SOL    HW153315   6.166   7.102  11.706  0.4560 -1.2992  0.7011
16168SOL    HW253316   6.198   7.038  11.573 -0.5083 -0.8463  0.2462
16169SOL     OW53317   7.281   7.840   6.861 -0.8969 -0.0277  0.5896
16169SOL    HW153318   7.219   7.802   6.799 -0.2746 -1.6956  0.9330
16169SOL    HW253319   7.336   7.767   6.888  2.0551  1.5542 -0.6139
16170SOL     OW53320   3.206   4.071   2.006  0.1046 -0.2908  0.2146
16170SOL    HW153321   3.192   4.097   1.915  0.5735  0.4605  0.3530
16170SOL    HW253322   3.217   3.976   2.002 -1.2926 -0.4569 -0.3436
16171SOL     OW53323   9.100   2.011   6.106 -0.4384  0.0335 -0.1448
16171SOL    HW153324   9.119   2.008   6.012  2.2579 -0.5191  0.3346
16171SOL    HW253325   9.166   1.954   6.146 -0.1134  1.9016  2.2532
16172SOL     OW53326   1.065   6.159   6.141  0.4561  0.4094 -0.2399
16172SOL    HW153327   1.057   6.200   6.227  0.1861 -0.9337  0.4099
16172SOL    HW253328   0.998   6.090   6.141  1.4829 -0.6357 -0.9111
16173SOL     OW53329   4.883   7.207  10.888 -0.1443 -0.0023 -0.4232
16173SOL    HW153330   4.816   7.261  10.931 -0.2210 -0.5365  0.1476
16173SOL    HW253331   4.935   7.270  10.838 -1.1687  0.4095 -1.0216
16174SOL     OW53332  10.843   5.041   2.716 -0.2178  0.0656  0.2042
16174SOL    HW153333  10.762   5.012   2.758 -0.1668  1.0591  1.0114
16174SOL    HW253334  10.864   4.971   2.655 -1.1840 -0.6419  0.6546
16175SOL     OW53335   2.963   4.150   0.987  0.4380  0.0303  0.2017
16175SOL    HW153336   2.895   4.115   0.928 -0.0107 -0.7917  1.1814
16175SOL    HW253337   3.044   4.141   0.937  0.1485 -1.1793 -0.0889
16176SOL     OW53338   3.194   1.992   3.962 -0.7730 -0.3020 -0.0812
16176SOL    HW153339   3.172   2.079   3.931 -0.7875 -0.4240 -0.4127
16176SOL    HW253340   3.249   1.954   3.893  0.0285 -0.2014  0.4922
16177SOL     OW53341   1.664   9.928   3.184  0.3636 -0.0767 -0.6979
16177SOL    HW153342   1.593   9.894   3.128  0.9286  1.4494 -2.4711
16177SOL    HW253343   1.623   9.999   3.233  0.4544  0.3045 -1.1591
16178SOL     OW53344   6.311   2.268   2.320 -0.0435 -0.2017  0.3155
16178SOL    HW153345   6.310   2.232   2.408  0.5493 -0.2112  0.3264
16178SOL    HW253346   6.281   2.359   2.331 -2.4247 -0.9127  0.1584
16179SOL     OW53347   9.326  10.117   6.366  0.2887  0.5691 -0.5417
16179SOL    HW153348   9.331  10.131   6.460  0.0460  2.2942 -0.7519
16179SOL    HW253349   9.241  10.075   6.352  1.0380 -1.3022  0.1313
16180SOL     OW53350   9.874  10.855   9.288 -0.3584  0.4818  0.3502
16180SOL    HW153351   9.869  10.950   9.302 -1.5173  0.3576  0.9338
16180SOL    HW253352   9.886  10.818   9.375  0.5155  0.1072  0.0752
16181SOL     OW53353   4.942   8.632   2.786 -0.1041 -0.3232 -0.2134
16181SOL    HW153354   4.922   8.552   2.835  1.9303 -0.1100  1.0713
16181SOL    HW253355   5.013   8.607   2.728  0.5966  0.5568  0.2522
16182SOL     OW53356   7.977  11.257   6.250  0.0893 -0.0377 -0.4440
16182SOL    HW153357   8.049  11.274   6.311  1.5966 -3.1232 -1.1527
16182SOL    HW253358   7.955  11.165   6.264 -0.9662 -0.2710 -3.0472
16183SOL     OW53359  11.683   9.982   2.257  0.3417 -0.0128 -0.0788
16183SOL    HW153360  11.767   9.986   2.303 -0.0758  1.4109  0.6223
16183SOL    HW253361  11.668  10.072   2.228  0.0310 -0.6530 -2.0251
16184SOL     OW53362  10.465   3.925   3.093  0.3560 -0.3214  0.5291
16184SOL    HW153363  10.493   3.885   3.175  2.1783 -1.4795 -0.5843
16184SOL    HW253364  10.423   3.854   3.045 -1.3057  0.5141  0.7011
16185SOL     OW53365  10.447   1.800  11.537 -0.2635  0.6829  0.2701
16185SOL    HW153366  10.389   1.835  11.470 -1.3058 -0.8508  0.3217
16185SOL    HW253367  10.448   1.706  11.522  1.6142  0.5756  0.7669
16186SOL     OW53368   3.915   5.795   4.003  0.2364 -0.3042 -0.8950
16186SOL    HW153369   3.877   5.762   3.922 -0.5426 -2.8374  0.4038
16186SOL    HW253370   4.005   5.765   4.001  0.6394  0.8830 -1.4332
16187SOL     OW53371  11.950   9.879   9.586 -0.2492  0.0277 -0.5681
16187SOL    HW153372  12.031   9.915   9.623 -0.0419  0.6656 -1.5989
16187SOL    HW253373  11.949   9.788   9.616 -1.0071  0.9128  2.4492
16188SOL     OW53374   4.888   2.444   0.358  0.0450 -0.2769  0.8590
16188SOL    HW153375   4.900   2.435   0.453  0.8468 -0.6781  0.7237
16188SOL    HW253376   4.809   2.499   0.350  0.3673  0.3573  1.7611
16189SOL     OW53377   8.850   7.839   1.660  0.0078 -0.1977 -0.1502
16189SOL    HW153378   8.763   7.840   1.619  0.0431 -0.1206 -0.2211
16189SOL    HW253379   8.841   7.775   1.731 -0.5082  0.7973  0.7127
16190SOL     OW53380   8.106   9.863   3.636  0.9273 -0.4946  0.0980
16190SOL    HW153381   8.010   9.865   3.643  0.7183  1.7808 -2.0714
16190SOL    HW253382   8.135   9.934   3.693  1.2327 -0.4263 -0.1384
16191SOL     OW53383  11.455   4.117  10.631  0.1016  0.2461 -0.2750
16191SOL    HW153384  11.540   4.082  10.656  0.4951  1.1733 -0.2651
16191SOL    HW253385  11.429   4.065  10.555  1.1834  0.6458 -0.9480
16192SOL     OW53386   2.324   8.401   0.883 -0.2772 -0.3563  0.3115
16192SOL    HW153387   2.282   8.421   0.799  0.4841 -0.8847 -0.2005
16192SOL    HW253388   2.269   8.332   0.921 -1.0375  0.3812  0.5941
16193SOL     OW53389   2.606  11.006   5.589 -0.2149 -0.1957  0.5961
16193SOL    HW153390   2.652  11.082   5.625  1.1248 -0.6463 -0.0671
16193SOL    HW253391   2.547  11.042   5.523 -1.1778  0.4431  1.7747
16194SOL     OW53392   3.694   9.248  12.071  0.0339  0.7613  0.4731
16194SOL    HW153393   3.641   9.169  12.076  0.7816  0.2099 -0.0622
16194SOL    HW253394   3.740   9.241  11.987  3.5711 -0.5247  2.2947
16195SOL     OW53395   7.469  10.046  12.249 -0.4027  0.0435 -0.1318
16195SOL    HW153396   7.564  10.041  12.258 -0.4062 -0.4214 -0.3097
16195SOL    HW253397   7.456  10.088  12.164 -0.3420 -0.7054 -0.5288
16196SOL     OW53398   0.977   1.314  10.203  0.0299 -0.3079 -0.5759
16196SOL    HW153399   0.949   1.362  10.125 -0.2520  2.0370  0.8908
16196SOL    HW253400   1.071   1.331  10.210  0.0109 -0.3242 -0.2789
16197SOL     OW53401   0.449  10.668   9.688  0.0269  0.3510 -0.2084
16197SOL    HW153402   0.432  10.575   9.700 -0.2222  0.7413  3.9191
16197SOL    HW253403   0.543  10.678   9.706 -0.4043  1.0964  1.9205
16198SOL     OW53404   9.791   3.180   6.402  0.4204  0.3773 -0.0286
16198SOL    HW153405   9.776   3.089   6.375  1.0187  0.4649 -0.7120
16198SOL    HW253406   9.846   3.173   6.480  0.4972  0.1524 -0.1012
16199SOL     OW53407   8.739   0.667  11.808  1.1502 -0.2641 -0.3569
16199SOL    HW153408   8.714   0.699  11.895 -0.8394 -3.3892  0.3597
16199SOL    HW253409   8.706   0.735  11.748  0.0834  0.6563  1.1820
16200SOL     OW53410   2.661  10.101   2.667  0.1459  0.2405  0.6743
16200SOL    HW153411   2.676  10.020   2.716 -0.5739 -1.5840 -1.9015
16200SOL    HW253412   2.743  10.149   2.676  1.1980 -1.5208  1.0124
16201SOL     OW53413  11.694   4.044  10.460  0.1789 -0.4761  0.6763
16201SOL    HW153414  11.668   4.117  10.404  0.4559 -0.6484  0.3222
16201SOL    HW253415  11.671   3.966  10.410  1.5123 -0.6357  0.2779
16202SOL     OW53416   5.636   9.323   3.562  0.2165  0.3084 -0.3487
16202SOL    HW153417   5.654   9.306   3.470 -1.2440  0.1913 -0.6366
16202SOL    HW253418   5.543   9.346   3.565  0.3914  0.9760  1.0109
16203SOL     OW53419  12.132  10.363   9.530 -0.0453  0.1324  0.2591
16203SOL    HW153420  12.081  10.443   9.517  1.9804  1.2635 -1.2757
16203SOL    HW253421  12.212  10.377   9.480 -0.5833 -3.8511 -2.1722
16204SOL     OW53422  10.833   9.417   0.647 -0.0061 -0.1825 -0.2383
16204SOL    HW153423  10.912   9.367   0.626  0.4926  0.6574 -0.4017
16204SOL    HW253424  10.776   9.405   0.571 -0.8124 -2.2571  0.6204
16205SOL     OW53425   3.256   2.451   0.752 -0.3936 -0.4453 -0.4786
16205SOL    HW153426   3.297   2.537   0.747 -1.1796 -0.0227  0.1324
16205SOL    HW253427   3.325   2.390   0.727  0.6120  0.2404  0.5402
16206SOL     OW53428   3.319   8.692   5.048  0.3403  0.6777 -0.2104
16206SOL    HW153429   3.397   8.694   4.993 -0.2800 -1.6718 -1.2749
16206SOL    HW253430   3.338   8.627   5.115 -0.6638  0.0914 -0.4694
16207SOL     OW53431  11.270   6.729   9.227 -0.1815  0.4857  0.3600
16207SOL    HW153432  11.282   6.695   9.316  0.9032 -0.2381 -0.0361
16207SOL    HW253433  11.286   6.653   9.170  1.5543  1.4504 -0.5202
16208SOL     OW53434   6.987   5.938   5.386  0.2894 -0.7432  0.4449
16208SOL    HW153435   6.995   5.936   5.481 -0.8415 -1.8489  0.5359
16208SOL    HW253436   6.987   5.846   5.360  1.6510 -0.4525 -0.7494
16209SOL     OW53437   1.768  10.066   5.327  0.1887 -0.6491 -0.3889
16209SOL    HW153438   1.805  10.028   5.406 -0.7303 -0.2176  0.2605
16209SOL    HW253439   1.691  10.114   5.356  1.2753  1.7315 -1.1514
16210SOL     OW53440   1.303   5.954   7.580 -0.0301  0.2544  0.0566
16210SOL    HW153441   1.237   5.940   7.512  2.2459 -0.1181 -2.2217
16210SOL    HW253442   1.304   5.872   7.629 -0.4076 -0.1819 -0.6455
16211SOL     OW53443   5.793   9.845   1.191 -0.5525 -0.0885 -0.8029
16211SOL    HW153444   5.858   9.844   1.121  0.8177  1.0669  0.3985
16211SOL    HW253445   5.781   9.938   1.212  1.2894 -0.4608  2.4300
16212SOL     OW53446   0.449   7.413   0.759  0.6164  0.4211  0.4955
16212SOL    HW153447   0.439   7.503   0.790 -1.7383 -0.1337  1.5585
16212SOL    HW253448   0.459   7.361   0.839  1.0428 -0.3619 -0.0537
16213SOL     OW53449   0.334  11.633   6.639  0.3467 -0.3099  0.4771
16213SOL    HW153450   0.323  11.668   6.551  0.4015 -2.0530 -0.2492
16213SOL    HW253451   0.259  11.576   6.652  0.2403  0.0693  1.6498
16214SOL     OW53452   4.513   1.060   6.973  0.3642 -0.1321 -0.1215
16214SOL    HW153453   4.498   1.025   6.885  0.7180  1.4939 -0.8864
16214SOL    HW253454   4.458   1.007   7.030  0.2833 -1.3656 -1.2937
16215SOL     OW53455  12.078   4.444   5.644 -0.8704 -0.6410 -0.0002
16215SOL    HW153456  12.104   4.355   5.669 -1.0212 -0.6451  0.1434
16215SOL    HW253457  12.139   4.468   5.574  0.4688 -0.0677  1.3253
16216SOL     OW53458   3.206   4.103   0.854  0.2642 -0.1627  0.2836
16216SOL    HW153459   3.276   4.151   0.899 -0.4048  0.1472  1.0128
16216SOL    HW253460   3.231   4.011   0.861  0.9502 -0.0113 -0.0783
16217SOL     OW53461  11.996   4.230   6.876  0.6988  0.6578 -0.3233
16217SOL    HW153462  12.051   4.202   6.949  1.7733  1.4656 -0.7834
16217SOL    HW253463  11.908   4.237   6.913  0.7949 -1.1315  0.3126
16218SOL     OW53464  12.643   3.476  11.123 -0.8306  0.3468  0.3320
16218SOL    HW153465  12.564   3.432  11.154 -0.8625 -0.2058 -0.4912
16218SOL    HW253466  12.700   3.404  11.094 -0.6540  0.8101 -0.5151
16219SOL     OW53467   5.572  10.324  12.071  0.0224  0.7492  0.4753
16219SOL    HW153468   5.624  10.264  12.017  1.1570  1.6946  0.4698
16219SOL    HW253469   5.482  10.313  12.039  0.3754 -0.1347 -0.2709
16220SOL     OW53470   1.409  10.296   7.661 -0.2164 -0.3041  0.1392
16220SOL    HW153471   1.456  10.215   7.644  0.0331 -0.0099 -0.5617
16220SOL    HW253472   1.334  10.269   7.715 -0.7239 -1.1672 -0.9544
16221SOL     OW53473   4.275  10.859   5.855 -0.3840  0.3096 -0.3215
16221SOL    HW153474   4.339  10.925   5.829  1.1763 -1.0611 -0.0981
16221SOL    HW253475   4.228  10.898   5.928  1.2179  0.7990  0.4906
16222SOL     OW53476   6.266   5.682   2.738  0.0053  0.3114  0.7811
16222SOL    HW153477   6.187   5.657   2.690  0.1640 -0.1758  0.7680
16222SOL    HW253478   6.338   5.662   2.678  0.2566 -0.9824  1.4658
16223SOL     OW53479   3.212  10.526   8.872 -0.1086 -0.2795 -0.1768
16223SOL    HW153480   3.130  10.532   8.823 -0.1581  0.2731 -0.0371
16223SOL    HW253481   3.280  10.531   8.806 -0.1764  0.4109 -0.2016
16224SOL     OW53482  11.827   1.882   7.650  0.1221  0.1855 -0.6837
16224SOL    HW153483  11.854   1.971   7.675  4.3465 -1.3126  0.9038
16224SOL    HW253484  11.799   1.843   7.733  2.2313 -1.0911 -0.5129
16225SOL     OW53485   4.382   2.426   1.356  0.3247  0.0088 -0.2943
16225SOL    HW153486   4.407   2.508   1.398  0.1328  0.2599 -0.6681
16225SOL    HW253487   4.438   2.420   1.279  0.2391 -0.1418 -0.3456
16226SOL     OW53488  11.528  12.598   0.519 -0.7246 -0.6876  0.3198
16226SOL    HW153489  11.491  12.598   0.608  3.2511  0.9041  2.2662
16226SOL    HW253490  11.555  12.507   0.505  1.0172 -0.5319  2.0693
16227SOL     OW53491   9.516   3.768   7.172 -0.1314  0.6683  0.3567
16227SOL    HW153492   9.554   3.811   7.249 -0.2979  1.6238 -0.0795
16227SOL    HW253493   9.435   3.728   7.205  0.2433  0.2974  0.8612
16228SOL     OW53494   2.662   0.592   0.259 -0.2464 -0.2091 -0.3449
16228SOL    HW153495   2.675   0.635   0.174  0.4580  0.6106  0.1666
16228SOL    HW253496   2.749   0.587   0.297 -0.6629  0.2157  0.7077
16229SOL     OW53497   7.073   4.518   7.372  0.3845  0.6347  0.2790
16229SOL    HW153498   7.016   4.591   7.398 -2.0018 -1.1289  0.3982
16229SOL    HW253499   7.027   4.440   7.403  1.5102 -1.0934 -2.0972
16230SOL     OW53500   8.435   6.149   4.970 -0.7930  0.4364 -0.0850
16230SOL    HW153501   8.501   6.088   4.936 -1.2935 -0.1853  0.0309
16230SOL    HW253502   8.483   6.205   5.031 -0.0847  0.9247 -1.0606
16231SOL     OW53503   5.038   0.621   9.819 -0.2465 -0.5931 -0.2756
16231SOL    HW153504   5.113   0.586   9.770  1.2943 -1.2600  2.3909
16231SOL    HW253505   5.064   0.711   9.840 -1.2729 -0.0217 -1.3118
16232SOL     OW53506   7.275   5.238   3.120 -0.4131  0.0060  0.1546
16232SOL    HW153507   7.220   5.165   3.091  0.1120 -0.1664 -0.4230
16232SOL    HW253508   7.357   5.197   3.147 -0.5235  0.2735  0.9011
16233SOL     OW53509   7.190   4.204   9.880  0.0413 -0.1230 -0.1384
16233SOL    HW153510   7.242   4.261   9.823  2.0721 -0.5099  1.2348
16233SOL    HW253511   7.161   4.260   9.952  1.4389 -0.5988  0.8387
16234SOL     OW53512   1.720   6.968   6.993  0.0179 -0.1470  0.3160
16234SOL    HW153513   1.799   7.019   7.007 -0.2404  0.4487 -0.3266
16234SOL    HW253514   1.704   6.925   7.077 -0.0679  1.2761  1.0625
16235SOL     OW53515   9.667  10.709   8.435  0.3947  0.6182  0.0089
16235SOL    HW153516   9.739  10.726   8.374  1.0048  0.4604  0.6691
16235SOL    HW253517   9.652  10.615   8.429  1.0259  0.4596  0.7012
16236SOL     OW53518   5.883   4.181   2.178 -0.4881  0.6119  0.6443
16236SOL    HW153519   5.939   4.221   2.112 -1.6224 -0.2468 -0.9024
16236SOL    HW253520   5.865   4.251   2.241 -0.3148  1.7951 -0.5814
16237SOL     OW53521   5.541   4.224   0.119  0.6827  0.3027 -0.2741
16237SOL    HW153522   5.605   4.187   0.058  2.0419 -0.3880  1.4790
16237SOL    HW253523   5.594   4.262   0.189 -0.8195  0.4654  0.8228
16238SOL     OW53524   2.448   6.166   7.978  0.0323  0.4894  0.2592
16238SOL    HW153525   2.471   6.096   8.039  0.6633  0.5430  0.0841
16238SOL    HW253526   2.361   6.142   7.946  0.6282 -0.7222 -0.5151
16239SOL     OW53527  12.120   9.770   0.424  0.3506 -0.0567  0.1368
16239SOL    HW153528  12.186   9.746   0.490  1.2797  0.1894 -0.6775
16239SOL    HW253529  12.037   9.767   0.471  0.8506 -1.1371  1.0017
16240SOL     OW53530   3.837   7.736   7.059 -0.5177 -0.3979 -0.8681
16240SOL    HW153531   3.824   7.830   7.046 -0.2033 -0.2856 -0.4019
16240SOL    HW253532   3.763   7.708   7.113  0.4139 -0.0188  0.6689
16241SOL     OW53533   7.656   9.048  11.449  0.3760 -0.1592 -0.4428
16241SOL    HW153534   7.615   9.070  11.365 -0.3286  1.5038  0.2931
16241SOL    HW253535   7.584   9.014  11.502  0.4188  0.5208  0.0689
16242SOL     OW53536   0.994   5.660   4.673  0.0129 -0.0065  0.4803
16242SOL    HW153537   0.941   5.729   4.634 -1.0553 -0.3529  1.2492
16242SOL    HW253538   1.074   5.659   4.622 -0.3520  1.1470 -0.1526
16243SOL     OW53539  11.052   6.822  11.893 -0.1888 -0.4534  0.4727
16243SOL    HW153540  11.070   6.790  11.804  1.6356 -1.4085  1.1401
16243SOL    HW253541  11.131   6.803  11.942 -1.3637 -0.4767  2.4779
16244SOL     OW53542   0.674  11.532  12.006  0.1037 -0.5391 -0.3803
16244SOL    HW153543   0.725  11.573  12.076 -1.1334  0.5574 -0.0929
16244SOL    HW253544   0.735  11.468  11.967  0.9387 -0.9115  1.4271
16245SOL     OW53545   4.883   7.892   8.098  0.0264 -0.2644  1.0847
16245SOL    HW153546   4.913   7.821   8.041 -2.9632 -0.4794 -0.4225
16245SOL    HW253547   4.868   7.850   8.182  2.4195 -0.4069  1.5090
16246SOL     OW53548   5.700   2.330   3.598 -0.4467  0.3369  0.0865
16246SOL    HW153549   5.778   2.382   3.580 -1.3254  1.4733 -0.5488
16246SOL    HW253550   5.713   2.297   3.687 -0.3095  2.5059  0.9385
16247SOL     OW53551   3.054   4.556  10.942  0.0825  0.4070 -0.2959
16247SOL    HW153552   3.137   4.605  10.933  1.2585 -1.3621  0.3809
16247SOL    HW253553   3.016   4.591  11.023 -0.1963  1.7026 -0.9571
16248SOL     OW53554   6.116   9.737   9.072  0.0249  0.0190 -0.0406
16248SOL    HW153555   6.110   9.772   8.983 -0.7691  0.5911  0.2232
16248SOL    HW253556   6.196   9.775   9.108  2.1256 -2.6702 -1.5254
16249SOL     OW53557   9.639   8.580   1.625 -0.6286 -0.0630  0.8366
16249SOL    HW153558   9.728   8.570   1.661 -0.4995 -1.6911  0.1528
16249SOL    HW253559   9.643   8.661   1.575  0.2492  0.3088  1.4786
16250SOL     OW53560   4.730   7.028   1.878  0.0873  0.0175  0.3197
16250SOL    HW153561   4.718   7.024   1.783 -1.2108 -1.8038  0.5030
16250SOL    HW253562   4.715   7.120   1.900 -1.9252  0.0711 -1.0042
16251SOL     OW53563   1.410   4.274   3.700 -0.0223  0.2735  0.4514
16251SOL    HW153564   1.465   4.206   3.739 -0.3787  0.2043  0.8444
16251SOL    HW253565   1.327   4.266   3.746 -0.6073 -0.1026 -0.6421
16252SOL     OW53566   6.386  10.468   1.026  0.1796 -0.1412  0.5018
16252SOL    HW153567   6.377  10.563   1.033 -0.7669 -0.1402 -0.5317
16252SOL    HW253568   6.443  10.444   1.100  0.1629  1.1755  0.9706
16253SOL     OW53569   0.833   4.630   4.342 -0.5603  0.3868 -0.0139
16253SOL    HW153570   0.880   4.588   4.414 -0.1821  2.3633  0.9374
16253SOL    HW253571   0.788   4.557   4.298  4.6350 -2.0581 -2.1432
16254SOL     OW53572   0.937   8.180   0.645  0.2338 -0.2705 -0.6199
16254SOL    HW153573   0.969   8.091   0.657 -0.6237 -0.4851  0.1882
16254SOL    HW253574   1.013   8.236   0.661  0.5019 -0.8173  0.0520
16255SOL     OW53575   0.230   6.319   9.191  0.6198  0.8634 -0.3737
16255SOL    HW153576   0.176   6.373   9.134 -2.0498 -2.1024 -0.9757
16255SOL    HW253577   0.186   6.322   9.276 -0.5859 -1.4118 -0.8148
16256SOL     OW53578   6.551  11.296   6.382  0.3032  0.3497  0.1522
16256SOL    HW153579   6.572  11.382   6.346  0.0517  0.2674 -0.1927
16256SOL    HW253580   6.481  11.314   6.445 -0.4538  0.2709 -0.6499
16257SOL     OW53581   7.746   1.056   1.746 -0.2569  0.5857 -0.2106
16257SOL    HW153582   7.724   1.134   1.796  2.2522  0.8080  0.6726
16257SOL    HW253583   7.839   1.042   1.762 -0.3568 -1.9195 -1.3010
16258SOL     OW53584   2.918   4.254   8.386  0.0552 -0.0566 -0.0456
16258SOL    HW153585   2.968   4.302   8.320 -0.4138  0.8129  0.2100
16258SOL    HW253586   2.900   4.169   8.346  0.1524  0.2998 -0.8602
16259SOL     OW53587   8.072  10.397  11.647 -0.2499 -0.1797  0.1330
16259SOL    HW153588   8.044  10.318  11.601  0.2328 -0.5575  0.4862
16259SOL    HW253589   8.167  10.399  11.637 -0.3243  0.8177 -0.6058
16260SOL     OW53590   9.455   0.372   8.002 -0.0370 -0.1449 -0.0213
16260SOL    HW153591   9.506   0.432   7.947 -1.2861  1.0789  0.0824
16260SOL    HW253592   9.390   0.429   8.044 -1.6490 -1.6845 -0.3629
16261SOL     OW53593   8.108   3.073   0.238 -0.5115  0.0797  0.1674
16261SOL    HW153594   8.202   3.058   0.246 -0.7370 -1.8059 -0.1094
16261SOL    HW253595   8.082   3.018   0.164 -1.7322  1.0707 -0.1569
16262SOL     OW53596   2.870   4.987   3.885 -0.3584 -0.4506 -0.4041
16262SOL    HW153597   2.947   4.979   3.829  0.3395 -2.4174  0.7376
16262SOL    HW253598   2.906   5.012   3.970 -1.2445  0.9259 -0.4084
16263SOL     OW53599   8.777   1.966  12.118  0.3908 -0.2173 -0.2882
16263SOL    HW153600   8.837   1.962  12.192  0.9578 -1.1629 -0.7854
16263SOL    HW253601   8.693   1.938  12.154  0.7831 -1.2127 -0.1007
16264SOL     OW53602   7.487  11.352  12.316 -0.0254  0.4168  0.2353
16264SOL    HW153603   7.416  11.414  12.301  0.2991  0.6851 -0.2084
16264SOL    HW253604   7.515  11.369  12.406  0.2319  1.0965  0.0340
16265SOL     OW53605   5.530   2.660   7.164  0.3962  0.8231  0.3571
16265SOL    HW153606   5.435   2.650   7.164  0.4915 -0.2541 -0.4327
16265SOL    HW253607   5.549   2.710   7.085  0.5768 -0.0629 -0.1679
16266SOL     OW53608   1.526   0.409  12.059 -0.2435 -0.5544  0.5866
16266SOL    HW153609   1.532   0.439  11.968  0.7328  1.1647  1.1782
16266SOL    HW253610   1.435   0.427  12.084 -0.1448  0.2754  0.3676
16267SOL     OW53611  11.172  11.817   8.039  0.8638  0.0724  0.0745
16267SOL    HW153612  11.125  11.763   8.102 -0.7684  0.8408 -0.4333
16267SOL    HW253613  11.208  11.755   7.975 -0.4215 -0.4750 -0.1453
16268SOL     OW53614   9.682   8.612   1.227  0.1362 -0.2449 -0.0229
16268SOL    HW153615   9.624   8.564   1.286  0.8386  0.6566  1.4597
16268SOL    HW253616   9.657   8.704   1.238  0.6131 -0.0184 -0.7691
16269SOL     OW53617  11.292  10.474   4.203 -0.5674 -0.2369 -0.0977
16269SOL    HW153618  11.366  10.532   4.216 -0.1582 -0.9655  1.0019
16269SOL    HW253619  11.331  10.390   4.180 -1.1244 -0.2439 -1.0943
16270SOL     OW53620  11.393   0.565   5.146  0.3409  0.2100  0.5152
16270SOL    HW153621  11.416   0.514   5.068 -0.1809  2.3959 -1.1634
16270SOL    HW253622  11.383   0.500   5.215  1.5517 -1.7560 -1.0443
16271SOL     OW53623  12.274   6.526   5.142  0.4964  0.3226  0.6272
16271SOL    HW153624  12.331   6.574   5.202  0.2988  0.0130  1.0710
16271SOL    HW253625  12.194   6.578   5.140  0.2203 -0.0651  1.2385
16272SOL     OW53626   5.204   0.977   0.154  0.2392  0.3007  0.1220
16272SOL    HW153627   5.132   0.920   0.124 -1.6501  2.3487  0.5211
16272SOL    HW253628   5.190   0.985   0.248  0.6608  1.1889  0.1118
16273SOL     OW53629   4.763  11.942   2.314 -0.4698  0.2570  0.6607
16273SOL    HW153630   4.774  12.018   2.256 -0.0020  0.7643  1.3959
16273SOL    HW253631   4.764  11.867   2.255 -0.9777  0.8175 -0.0850
16274SOL     OW53632   6.014   7.854   1.692  0.2275 -0.1466 -0.1889
16274SOL    HW153633   6.074   7.874   1.763  0.8231 -2.2404 -0.0443
16274SOL    HW253634   6.070   7.830   1.619 -0.3811 -1.8432 -0.1408
16275SOL     OW53635   1.648   6.877   8.853  0.4012  0.6091 -0.3360
16275SOL    HW153636   1.602   6.945   8.804  0.2238  0.0163 -1.0152
16275SOL    HW253637   1.612   6.795   8.820  1.3545  0.1500 -0.2818
16276SOL     OW53638   8.707  10.479  10.560  0.0837  0.6077  0.4174
16276SOL    HW153639   8.635  10.418  10.580 -1.8979  2.2667 -1.2931
16276SOL    HW253640   8.685  10.559  10.608  0.3491  1.4003 -0.7457
16277SOL     OW53641   0.353   3.800   7.770  0.4921 -0.0713  0.3430
16277SOL    HW153642   0.330   3.759   7.853 -1.2216  0.8652  0.3685
16277SOL    HW253643   0.340   3.732   7.705 -0.1070 -0.2369  0.6319
16278SOL     OW53644   8.194  11.416  10.415 -0.7516  0.3209  0.1916
16278SOL    HW153645   8.180  11.453  10.502 -0.4668  1.3531 -0.1877
16278SOL    HW253646   8.106  11.399  10.382 -0.8361 -1.2556  1.1546
16279SOL     OW53647   4.294   2.741   2.457 -0.4348 -0.1126 -0.3575
16279SOL    HW153648   4.233   2.722   2.528  2.1183 -1.2082  1.6836
16279SOL    HW253649   4.282   2.669   2.395 -0.6666 -0.7517  0.4130
16280SOL     OW53650   8.039  10.059  11.701  0.1241 -0.2377  0.4306
16280SOL    HW153651   8.118  10.055  11.646  0.1677  2.2496  0.2039
16280SOL    HW253652   8.071  10.087  11.787 -0.3733 -0.4635  0.6943
16281SOL     OW53653   9.376   9.186   1.910 -0.3268 -0.0278 -0.1286
16281SOL    HW153654   9.354   9.252   1.844  0.0443  0.7572  0.5107
16281SOL    HW253655   9.304   9.123   1.906 -1.3375  1.0626  0.0849
16282SOL     OW53656   1.145  11.068  12.024 -0.0441 -0.7771  0.0646
16282SOL    HW153657   1.137  11.032  12.112 -0.5787  1.1668  0.8667
16282SOL    HW253658   1.112  11.158  12.032  0.7547 -0.2580 -1.9157
16283SOL     OW53659   7.884   2.490   7.696  0.2084  0.3035 -0.1194
16283SOL    HW153660   7.898   2.509   7.789  0.8437  0.2351 -0.2022
16283SOL    HW253661   7.792   2.514   7.681  0.0286  0.0889  0.5801
16284SOL     OW53662   4.889  12.642   4.387  0.7298 -0.1006  0.2248
16284SOL    HW153663   4.917  12.568   4.332 -1.4905 -0.1793 -0.9363
16284SOL    HW253664   4.847  12.600   4.462  0.5337 -0.0265  0.1574
16285SOL     OW53665   1.526   4.694   3.008 -0.0174 -0.0966  0.7964
16285SOL    HW153666   1.438   4.655   3.004  0.0069 -0.0914  0.0295
16285SOL    HW253667   1.510   4.787   3.027 -0.1148 -0.3061  1.7962
16286SOL     OW53668   4.878   5.209   4.900  0.6417  0.4990 -0.2113
16286SOL    HW153669   4.965   5.213   4.941  0.0137 -0.4918  1.2948
16286SOL    HW253670   4.826   5.272   4.949  0.0490 -0.2174  0.0977
16287SOL     OW53671   8.865  10.209   0.343 -0.2590  0.1939  0.1481
16287SOL    HW153672   8.795  10.236   0.283 -0.3276 -0.0753  0.1085
16287SOL    HW253673   8.861  10.274   0.414 -0.6941  0.0506  0.2572
16288SOL     OW53674   2.555   9.126   7.363 -0.2589  0.3074 -0.2556
16288SOL    HW153675   2.640   9.082   7.354 -0.4722 -0.0353 -0.6318
16288SOL    HW253676   2.506   9.070   7.423 -0.3318  0.3367 -0.2888
16289SOL     OW53677   6.698   6.471   5.214 -0.0823 -0.3647 -0.5880
16289SOL    HW153678   6.703   6.381   5.246  0.8483  0.1281  0.7009
16289SOL    HW253679   6.640   6.516   5.276  1.5186  0.5281  0.3253
16290SOL     OW53680   2.786   8.849   0.666 -0.2266  0.1769  0.0071
16290SOL    HW153681   2.819   8.767   0.702  2.1333  0.0924 -2.0488
16290SOL    HW253682   2.699   8.859   0.704  0.2455 -2.1834  1.9447
16291SOL     OW53683   6.152   2.254  12.028  0.6285 -0.0112 -0.1647
16291SOL    HW153684   6.173   2.327  11.971  1.2050 -0.1112 -0.0890
16291SOL    HW253685   6.114   2.295  12.106  0.9026  0.2023 -0.1430
16292SOL     OW53686   9.552   0.513   3.076 -0.5065  0.5490  0.4969
16292SOL    HW153687   9.606   0.491   3.000  2.7550  2.3626  2.0598
16292SOL    HW253688   9.587   0.459   3.147 -2.0110  0.4621  1.2057
16293SOL     OW53689   5.627   4.627   8.393  0.0614  0.5661 -0.1150
16293SOL    HW153690   5.686   4.607   8.320  2.0409 -0.2634  1.6052
16293SOL    HW253691   5.550   4.573   8.378  0.5778  0.1373 -1.3705
16294SOL     OW53692   6.664   4.355   1.570 -0.4603  0.3604 -0.4472
16294SOL    HW153693   6.641   4.406   1.492 -1.3162  3.0788  1.4311
16294SOL    HW253694   6.585   4.358   1.625  0.2736 -1.0483  0.7543
16295SOL     OW53695  11.961   5.488   8.784  0.1985 -0.5496 -0.3007
16295SOL    HW153696  11.974   5.393   8.779  0.3597 -0.5518  0.0920
16295SOL    HW253697  12.042   5.524   8.747  0.4518 -0.5692  0.2149
16296SOL     OW53698  10.958   6.354   1.402  0.1385  0.0982 -0.3331
16296SOL    HW153699  10.882   6.398   1.440  0.9764  1.4122 -0.1114
16296SOL    HW253700  11.021   6.348   1.475  0.6750  0.0606 -0.7896
16297SOL     OW53701   8.941  10.530  10.387 -0.1604 -0.1035 -0.1640
16297SOL    HW153702   8.886  10.560  10.459 -0.2510 -0.0604 -0.2502
16297SOL    HW253703   8.989  10.609  10.360 -1.1401  0.2167 -1.0572
16298SOL     OW53704   3.748  11.226   7.055 -0.3037  0.4501  0.0123
16298SOL    HW153705   3.814  11.240   7.123  0.1166  0.6664 -0.4348
16298SOL    HW253706   3.728  11.132   7.059 -0.9632  0.6179  1.0461
16299SOL     OW53707   1.685   1.286   9.763 -0.5565 -0.8908  0.4891
16299SOL    HW153708   1.635   1.367   9.760 -2.5906 -2.0711  0.6985
16299SOL    HW253709   1.746   1.293   9.690  0.9333  1.7399  1.8125
16300SOL     OW53710  12.210  11.364   6.712 -0.1434  0.3874  0.3710
16300SOL    HW153711  12.180  11.277   6.685 -0.7247  0.5198  0.5784
16300SOL    HW253712  12.133  11.420   6.703 -0.1410  0.5963  1.5301
16301SOL     OW53713  10.086   5.911   0.867 -0.1681 -0.4372  0.1209
16301SOL    HW153714  10.114   6.001   0.882  0.3856 -0.6601  0.4889
16301SOL    HW253715  10.159   5.858   0.900 -2.0741 -1.1471  3.6063
16302SOL     OW53716   4.973  10.717   7.930 -0.4811 -0.6319 -0.4662
16302SOL    HW153717   5.067  10.719   7.948 -0.7805  0.5763  1.2229
16302SOL    HW253718   4.967  10.708   7.835  1.3833  1.0523 -0.8077
16303SOL     OW53719  11.712  11.175   2.215 -0.4332  0.0957 -0.0294
16303SOL    HW153720  11.639  11.223   2.255  0.3229  0.4187  0.9961
16303SOL    HW253721  11.767  11.149   2.289  0.9648  0.6150 -0.8538
16304SOL     OW53722   9.352   0.863  10.733  0.4284  0.4803  0.4092
16304SOL    HW153723   9.370   0.801  10.662  0.3357  1.4491 -0.4979
16304SOL    HW253724   9.437   0.875  10.776  0.2181 -1.1090  1.3210
16305SOL     OW53725   9.066   3.249   0.453  0.5280  0.6617  0.4694
16305SOL    HW153726   9.015   3.191   0.397 -0.1160  0.3515  1.3571
16305SOL    HW253727   9.157   3.227   0.433  0.2987  0.0765  0.0410
16306SOL     OW53728  12.482   3.359   4.845  0.7542  0.0806 -0.7825
16306SOL    HW153729  12.439   3.377   4.761  0.0472  1.9404 -0.0860
16306SOL    HW253730  12.526   3.441   4.867 -0.0216  0.0184  1.1928
16307SOL     OW53731  11.055   4.931   2.853  0.0444 -0.0216 -0.6582
16307SOL    HW153732  10.974   4.955   2.807 -0.5789  0.3100  0.5851
16307SOL    HW253733  11.046   4.970   2.940  1.2719 -0.5171 -0.2882
16308SOL     OW53734   7.600  11.343   2.900  0.0731  0.0402 -0.3917
16308SOL    HW153735   7.644  11.426   2.921 -2.0447  0.8134  1.4401
16308SOL    HW253736   7.580  11.305   2.985 -1.2299 -1.1127 -1.1842
16309SOL     OW53737   0.669   3.269   4.995 -0.1250 -0.3251 -0.4041
16309SOL    HW153738   0.692   3.182   5.027 -1.1119 -0.8619 -1.1086
16309SOL    HW253739   0.607   3.302   5.060  1.8386  0.7804  1.0383
16310SOL     OW53740   7.767   3.004   6.726  0.5474 -0.1693  0.4092
16310SOL    HW153741   7.802   3.071   6.785 -0.6125  1.2944 -0.4746
16310SOL    HW253742   7.843   2.952   6.701  1.3145  0.1607  1.9372
16311SOL     OW53743  11.459   4.130  12.341  0.3399  0.0078  0.1706
16311SOL    HW153744  11.388   4.092  12.393 -1.0789  0.2991 -1.4294
16311SOL    HW253745  11.475   4.067  12.272  0.9290  0.4125 -0.0704
16312SOL     OW53746  11.722  10.975   3.345 -0.0008  0.4676 -0.0003
16312SOL    HW153747  11.727  11.044   3.411 -2.0095  0.3407  0.3265
16312SOL    HW253748  11.688  10.899   3.393  3.3949 -1.2732 -0.0067
16313SOL     OW53749   2.952   8.970   3.691 -0.0513  0.6260  0.2524
16313SOL    HW153750   2.976   9.056   3.725 -2.0203  1.5833 -0.6181
16313SOL    HW253751   2.976   8.973   3.598  0.7198 -0.1215  0.4167
16314SOL     OW53752   5.256   6.690  11.347 -0.3553  0.7717  0.2132
16314SOL    HW153753   5.305   6.620  11.303 -0.3346  1.1625 -0.3959
16314SOL    HW253754   5.196   6.644  11.405 -0.1059  0.2571  0.0706
16315SOL     OW53755   4.968   9.489   5.736  0.2837 -0.2318  0.5396
16315SOL    HW153756   5.036   9.428   5.763  1.8989  0.4502 -1.6990
16315SOL    HW253757   4.982   9.500   5.642 -2.0014  1.0972  0.2878
16316SOL     OW53758   1.084   1.232   9.168  0.1504  0.2524 -0.0427
16316SOL    HW153759   1.011   1.176   9.142 -0.1982  0.3376  0.7243
16316SOL    HW253760   1.146   1.172   9.210 -0.0809  0.3779  0.4925
16317SOL     OW53761   5.947   8.727   5.558 -0.0819 -0.0949  0.4447
16317SOL    HW153762   5.903   8.722   5.473 -0.6911 -0.5728  0.7865
16317SOL    HW253763   5.876   8.723   5.623 -0.0598  4.0509  1.0067
16318SOL     OW53764   2.868   2.631  10.938  0.2305  0.0700 -0.6582
16318SOL    HW153765   2.875   2.547  10.982  0.5378  0.5033  0.1348
16318SOL    HW253766   2.786   2.669  10.969  0.8530  0.7449  0.2249
16319SOL     OW53767   2.555   3.548   4.708 -0.1120 -0.0114 -0.7428
16319SOL    HW153768   2.614   3.606   4.662 -0.8799 -0.2526 -2.0639
16319SOL    HW253769   2.541   3.590   4.793  2.8044 -0.4939  0.0924
16320SOL     OW53770   4.396   2.474   3.438 -0.1090 -0.5135  0.2575
16320SOL    HW153771   4.406   2.458   3.532 -0.8490 -0.3541  0.3750
16320SOL    HW253772   4.304   2.452   3.420 -0.6161  1.5743  0.0214
16321SOL     OW53773  10.443   1.164   1.266  0.2781  0.0177 -0.2085
16321SOL    HW153774  10.467   1.079   1.230  0.2885 -0.2617  0.4367
16321SOL    HW253775  10.433   1.148   1.360 -0.6956  0.5073 -0.2115
16322SOL     OW53776  11.772   7.449   3.957 -0.2472  0.0121  0.7089
16322SOL    HW153777  11.699   7.407   3.912  1.9597 -1.7027 -1.5734
16322SOL    HW253778  11.828   7.376   3.985 -0.3452  1.1419  4.3734
16323SOL     OW53779   6.494   6.925   9.419  0.1453 -0.0162  0.4296
16323SOL    HW153780   6.452   6.888   9.497 -2.1535 -0.7183 -1.0319
16323SOL    HW253781   6.471   7.017   9.421 -2.8384 -0.6206 -1.0379
16324SOL     OW53782   0.481   4.526   2.445  0.3209 -0.0092  0.1154
16324SOL    HW153783   0.454   4.609   2.405  2.7949  0.0531 -1.6642
16324SOL    HW253784   0.537   4.552   2.518  0.6926 -0.0867 -0.1373
16325SOL     OW53785   0.996   4.253   4.699 -0.1100  0.4324  0.3806
16325SOL    HW153786   1.045   4.320   4.746  1.2106 -1.4971  1.9201
16325SOL    HW253787   1.038   4.171   4.723 -0.9208 -0.8939 -2.3556
16326SOL     OW53788   3.698   2.179  11.037  0.5449 -0.0479  0.0149
16326SOL    HW153789   3.660   2.134  10.961  1.0190  0.1883 -0.3652
16326SOL    HW253790   3.693   2.114  11.107 -0.9023  0.0946  0.0903
16327SOL     OW53791   7.759   2.022   0.903  0.1393  1.2569 -0.0462
16327SOL    HW153792   7.758   2.036   0.808 -0.4957  0.1671 -0.2048
16327SOL    HW253793   7.733   1.931   0.914  3.3687  0.3353  0.9945
16328SOL     OW53794  11.572  10.435  12.356  0.5758  0.1674  0.1760
16328SOL    HW153795  11.530  10.521  12.358  0.3769  0.1242 -1.1935
16328SOL    HW253796  11.536  10.390  12.432 -0.6251  0.7068 -0.0377
16329SOL     OW53797   8.515  12.331  10.034  0.1308 -0.3475 -0.1385
16329SOL    HW153798   8.559  12.416  10.026  1.7285 -1.1749 -0.6346
16329SOL    HW253799   8.439  12.338   9.976  0.9144  0.3346 -1.1250
16330SOL     OW53800   6.399   6.761   0.791  0.1357 -0.1222 -0.3750
16330SOL    HW153801   6.415   6.715   0.708  0.4049  0.5646 -0.7094
16330SOL    HW253802   6.307   6.744   0.811  0.3586 -1.2294 -0.2293
16331SOL     OW53803   9.775   0.504   1.735 -0.1858 -0.9008  0.3217
16331SOL    HW153804   9.681   0.490   1.729 -0.3428  0.2464 -0.3178
16331SOL    HW253805   9.811   0.462   1.657 -0.5265  1.0945 -0.9902
16332SOL     OW53806   5.406   1.475  12.326 -0.2009 -0.1954  0.0831
16332SOL    HW153807   5.366   1.390  12.306 -0.7206  0.0550  0.0557
16332SOL    HW253808   5.498   1.464  12.301  0.3347 -1.5463  2.3134
16333SOL     OW53809   6.252   6.018   0.553  0.5034 -0.0145 -0.5690
16333SOL    HW153810   6.273   6.107   0.582 -0.6322 -0.0661  0.5055
16333SOL    HW253811   6.171   5.996   0.599  0.9975 -1.7832 -0.4375
16334SOL     OW53812   9.079   4.770   8.207  0.3550  0.0724  0.4239
16334SOL    HW153813   8.984   4.782   8.202  0.1332 -0.6397  2.2086
16334SOL    HW253814   9.102   4.723   8.127 -0.7424  0.4814 -0.1538
16335SOL     OW53815  12.462   0.524   4.691 -0.3907  0.1171  0.6081
16335SOL    HW153816  12.372   0.531   4.722 -0.5706  0.1630  0.0878
16335SOL    HW253817  12.455   0.476   4.608  0.1584 -0.6695  1.0055
16336SOL     OW53818   4.620   7.133   2.971 -0.6347  0.0689 -0.7181
16336SOL    HW153819   4.543   7.155   2.919 -1.1162 -0.6896 -0.3590
16336SOL    HW253820   4.660   7.060   2.924 -1.5441 -1.1926  0.3460
16337SOL     OW53821   5.135   3.959   2.424 -0.4403  0.2265 -0.4553
16337SOL    HW153822   5.051   3.926   2.391 -0.5614  0.5485 -0.4696
16337SOL    HW253823   5.201   3.909   2.376 -0.6169  0.4365 -0.9240
16338SOL     OW53824   3.327   2.098   4.468 -0.2975  0.2763  0.0984
16338SOL    HW153825   3.409   2.071   4.427  1.0488  1.0626  2.0904
16338SOL    HW253826   3.260   2.079   4.403  1.4555 -0.3916 -1.6153
16339SOL     OW53827   8.584   7.550   2.809 -0.4668 -0.4896 -0.5735
16339SOL    HW153828   8.655   7.607   2.779 -0.8569  0.6153  0.5259
16339SOL    HW253829   8.556   7.588   2.892 -0.5009 -2.5166  0.4050
16340SOL     OW53830   7.677   2.636   1.995 -0.0399 -0.5486 -0.6210
16340SOL    HW153831   7.719   2.662   1.913  3.7345  1.0962  1.5638
16340SOL    HW253832   7.708   2.546   2.010  1.0834 -0.0726 -0.0044
16341SOL     OW53833   4.451  11.510  10.308 -0.5552  0.5762  0.3717
16341SOL    HW153834   4.540  11.542  10.290 -0.2925  0.6165  1.6082
16341SOL    HW253835   4.437  11.531  10.401 -0.7014 -2.1493  1.0359
16342SOL     OW53836  12.587   6.636   0.559  0.3049 -0.5363  0.3698
16342SOL    HW153837  12.604   6.688   0.637 -1.2815 -1.6344  1.5083
16342SOL    HW253838  12.604   6.696   0.486 -1.0965  1.5105  1.6011
16343SOL     OW53839   8.152  11.941   5.698  0.1102  0.2999  0.0863
16343SOL    HW153840   8.090  11.997   5.650 -0.5123  1.0480  1.6744
16343SOL    HW253841   8.145  11.856   5.655 -1.5655  0.5344 -0.2068
16344SOL     OW53842  12.034   5.752   3.036  0.4442  0.2592  0.4549
16344SOL    HW153843  11.944   5.728   3.058  0.1537 -0.8299 -1.6750
16344SOL    HW253844  12.037   5.752   2.940  2.6741  0.4506  0.4562
16345SOL     OW53845   1.408   7.801   6.251  0.5563 -0.0518 -0.3361
16345SOL    HW153846   1.451   7.806   6.166 -0.2275 -1.4760 -0.8392
16345SOL    HW253847   1.399   7.707   6.269  1.3705  0.1818  1.6781
16346SOL     OW53848   1.125   6.827   5.453  0.8740  0.1417 -0.4246
16346SOL    HW153849   1.164   6.741   5.436  1.4535  0.0723  1.0405
16346SOL    HW253850   1.181   6.865   5.521  0.5081  1.6081 -0.8986
16347SOL     OW53851   9.356   1.430   7.296 -0.4265 -0.5541 -0.2467
16347SOL    HW153852   9.445   1.423   7.261  0.9288 -1.5461  2.9899
16347SOL    HW253853   9.363   1.494   7.368 -2.4356 -0.3542 -0.1648
16348SOL     OW53854   2.629   4.497  10.866 -0.1884  0.0679 -0.0067
16348SOL    HW153855   2.625   4.582  10.908  0.9123  1.1533 -1.9510
16348SOL    HW253856   2.569   4.504  10.792  0.5205 -0.5532 -0.6539
16349SOL     OW53857   4.001   4.990  12.403 -0.2476  0.6422 -0.1030
16349SOL    HW153858   4.026   4.964  12.491 -0.8812 -0.9938 -0.3727
16349SOL    HW253859   4.048   5.072  12.387  0.3546  0.6278  1.5065
16350SOL     OW53860   9.277   4.835   1.423 -0.7304 -0.4766  0.1660
16350SOL    HW153861   9.237   4.917   1.450  0.3331 -0.8835  3.3916
16350SOL    HW253862   9.323   4.856   1.342 -0.5433  2.0778  0.8615
16351SOL     OW53863  10.216   9.418   6.245  0.1282 -0.4287 -0.4531
16351SOL    HW153864  10.192   9.441   6.156  0.5774 -2.0255 -1.0162
16351SOL    HW253865  10.267   9.493   6.276 -0.8718  0.5699 -1.1719
16352SOL     OW53866  11.642   0.255   8.547 -0.2403  0.1257  0.0329
16352SOL    HW153867  11.621   0.193   8.477 -0.4629 -1.3249  1.3022
16352SOL    HW253868  11.687   0.201   8.613  1.0291  1.6900  0.4918
16353SOL     OW53869   7.318   4.921   1.778  0.1373  0.3118  0.1407
16353SOL    HW153870   7.410   4.908   1.804 -0.0940  1.0323  1.4031
16353SOL    HW253871   7.284   4.833   1.768  0.9185  0.0316 -0.1350
16354SOL     OW53872  11.956  11.362   1.012 -0.4887  0.3218  0.6824
16354SOL    HW153873  11.908  11.359   1.095 -0.9051 -2.2137  0.4246
16354SOL    HW253874  12.047  11.373   1.038 -0.5096 -1.3307  1.5806
16355SOL     OW53875   2.071   5.778   1.702  0.2243  0.4777  0.6419
16355SOL    HW153876   2.008   5.706   1.697  0.7638 -0.0599  1.2102
16355SOL    HW253877   2.047   5.837   1.631 -0.6445  0.0685  0.5837
16356SOL     OW53878   2.647   1.350   8.010  0.0198  0.9425  0.1087
16356SOL    HW153879   2.571   1.361   8.066 -0.0321  0.9216  0.0424
16356SOL    HW253880   2.620   1.386   7.925 -1.0557 -1.9252 -0.8801
16357SOL     OW53881  10.788   6.216   1.649  0.0049  0.7392 -0.1292
16357SOL    HW153882  10.883   6.204   1.657 -0.1130 -0.3116 -0.1880
16357SOL    HW253883  10.763   6.163   1.573 -0.9250 -0.7891  1.1700
16358SOL     OW53884   9.839   0.883   9.964 -0.1542 -0.3760 -0.4162
16358SOL    HW153885   9.766   0.859  10.020  1.0545 -0.9246  0.9806
16358SOL    HW253886   9.802   0.883   9.875 -1.4848 -2.0335  0.0959
16359SOL     OW53887   1.711  11.770  11.640  0.1868 -0.2471 -0.3974
16359SOL    HW153888   1.635  11.786  11.584 -0.4028  0.6860  0.6337
16359SOL    HW253889   1.679  11.785  11.728  0.8958 -2.4396  0.3055
16360SOL     OW53890   8.293   6.569  11.465  0.5031  0.9748  0.1729
16360SOL    HW153891   8.300   6.665  11.459 -0.2300  1.0023 -0.4301
16360SOL    HW253892   8.208   6.549  11.425  0.8252  0.0402 -0.0662
16361SOL     OW53893   7.533   7.189   9.176 -0.5470 -0.0939  0.5206
16361SOL    HW153894   7.527   7.268   9.123 -0.0168  0.3363  1.0878
16361SOL    HW253895   7.555   7.220   9.264  0.6072 -0.9170  0.5490
16362SOL     OW53896   7.565   7.644   2.607 -0.0578 -0.8515  0.5857
16362SOL    HW153897   7.541   7.556   2.577 -1.9148 -0.8624  1.9223
16362SOL    HW253898   7.651   7.633   2.647  0.8504 -1.5348 -1.4027
16363SOL     OW53899   7.123   6.398  10.138  0.5713  0.0129 -0.1706
16363SOL    HW153900   7.110   6.457  10.064  1.1704 -0.9301 -1.0562
16363SOL    HW253901   7.199   6.345  10.113  0.2087 -0.9476  0.7087
16364SOL     OW53902   4.829   0.378   6.733  0.3876  0.2190 -0.7124
16364SOL    HW153903   4.869   0.366   6.647  2.5658 -0.7068  0.3382
16364SOL    HW253904   4.874   0.453   6.771  0.4240 -0.2143  0.1306
16365SOL     OW53905   0.166   2.798  10.182  0.1934  0.1557 -0.5599
16365SOL    HW153906   0.176   2.838  10.268  0.3039  0.4626 -0.7165
16365SOL    HW253907   0.186   2.868  10.120 -0.4911  0.1117 -0.8481
16366SOL     OW53908   5.391   9.951  10.332  0.1865 -0.2577  0.2607
16366SOL    HW153909   5.299   9.942  10.307  0.6975 -1.0262 -1.5385
16366SOL    HW253910   5.437   9.960  10.248  1.9333 -1.7900  1.0092
16367SOL     OW53911   4.556  12.267  11.871 -0.5623 -0.2172  0.1568
16367SOL    HW153912   4.565  12.339  11.809 -1.3824 -0.1300  0.1364
16367SOL    HW253913   4.595  12.299  11.952  0.0042 -0.1305 -0.1412
16368SOL     OW53914   6.798   5.158  10.578  0.4383 -0.1677 -0.6129
16368SOL    HW153915   6.860   5.226  10.606 -1.7398  1.3507  0.9048
16368SOL    HW253916   6.749   5.198  10.507  0.7701 -1.1269 -1.3968
16369SOL     OW53917   0.990   2.495  11.680  0.1210 -0.3173  0.8984
16369SOL    HW153918   0.941   2.465  11.757  1.0707 -1.4011  1.1055
16369SOL    HW253919   1.075   2.521  11.714 -0.2077  1.4197  0.5163
16370SOL     OW53920   4.286   2.001   9.223 -0.5379  0.3636 -0.0699
16370SOL    HW153921   4.287   1.965   9.311 -0.9533  1.1278  0.2582
16370SOL    HW253922   4.282   1.925   9.165  2.9538 -0.3602  0.4326
16371SOL     OW53923   5.303   1.459   3.464  0.1281 -0.5460  0.2820
16371SOL    HW153924   5.343   1.405   3.532  0.7233 -0.4473  0.0165
16371SOL    HW253925   5.376   1.509   3.428 -0.1201 -0.8455 -0.6574
16372SOL     OW53926   8.679   2.404   2.229 -0.0474  0.5052  0.5801
16372SOL    HW153927   8.739   2.352   2.175  0.6652  2.4841 -0.6518
16372SOL    HW253928   8.618   2.443   2.166 -2.4503 -1.0974  1.7602
16373SOL     OW53929   1.533   9.192   9.654 -0.2347  0.0664  0.0627
16373SOL    HW153930   1.605   9.254   9.670  0.1023 -0.4490  0.5984
16373SOL    HW253931   1.539   9.172   9.561  1.8617 -1.7918  0.4975
16374SOL     OW53932   8.924   0.978   3.046  0.0540 -0.1162 -0.0855
16374SOL    HW153933   8.935   0.916   2.974  0.2852 -0.6921  0.4284
16374SOL    HW253934   8.839   1.019   3.030 -0.6524 -1.4148  0.1747
16375SOL     OW53935  11.112   4.931   0.185 -0.1375 -0.1632  0.4500
16375SOL    HW153936  11.061   4.993   0.237  0.1661 -0.3827  1.0239
16375SOL    HW253937  11.201   4.967   0.184  0.0146 -0.5223  0.6891
16376SOL     OW53938  11.148   5.456   1.664  0.3370 -0.0197 -0.5483
16376SOL    HW153939  11.237   5.447   1.629  0.5412 -0.9466  0.1757
16376SOL    HW253940  11.160   5.495   1.750  0.1105 -0.8751 -0.1228
16377SOL     OW53941  10.522  12.197   6.757  0.1720  0.0006  0.6225
16377SOL    HW153942  10.490  12.262   6.694  1.5505 -0.4001 -0.5391
16377SOL    HW253943  10.444  12.144   6.777 -0.6979  1.2528  0.6929
16378SOL     OW53944   2.204   4.526   5.068 -0.1137  0.1162  0.5653
16378SOL    HW153945   2.237   4.442   5.037 -1.4373 -0.4396  0.5598
16378SOL    HW253946   2.161   4.564   4.991 -0.8291  0.0954  0.9469
16379SOL     OW53947  11.355  11.765   3.553 -0.3933  0.5339 -0.2296
16379SOL    HW153948  11.269  11.760   3.595 -0.7262  0.1431 -0.9423
16379SOL    HW253949  11.336  11.764   3.459  0.3632  1.0061 -0.3897
16380SOL     OW53950   0.262   5.536   4.850 -0.3204  0.5150 -0.3441
16380SOL    HW153951   0.288   5.485   4.927 -0.2751  1.9932  0.6560
16380SOL    HW253952   0.277   5.476   4.776 -0.9895 -1.1723  0.8133
16381SOL     OW53953   0.293  12.125  11.892 -0.2833 -0.1156 -0.1814
16381SOL    HW153954   0.360  12.159  11.951  0.7656  1.0323 -1.9490
16381SOL    HW253955   0.319  12.034  11.875 -0.0549 -0.1506  0.3441
16382SOL     OW53956  12.303   6.772   4.413  0.0114  0.4940  0.0706
16382SOL    HW153957  12.335   6.858   4.387  2.9563 -0.6448 -0.4097
16382SOL    HW253958  12.233   6.791   4.476  2.0502  3.2754  1.7189
16383SOL     OW53959   8.700   3.887   0.014  0.2587  0.2780 -0.0100
16383SOL    HW153960   8.724   3.972  -0.025  2.2286 -0.3871 -0.3629
16383SOL    HW253961   8.712   3.824  -0.057  3.1823 -0.8656  1.3574
16384SOL     OW53962   4.405   7.267   5.852  1.0366  0.2783  0.0829
16384SOL    HW153963   4.475   7.232   5.796  1.4544 -1.8875  1.7940
16384SOL    HW253964   4.366   7.189   5.892 -0.8143  1.5993  0.9576
16385SOL     OW53965   8.348   6.984   0.540 -0.3265 -0.2245 -0.3939
16385SOL    HW153966   8.359   6.908   0.484 -1.5848 -0.9764  0.3305
16385SOL    HW253967   8.349   7.058   0.480 -2.8525 -1.0827 -1.6205
16386SOL     OW53968   7.439  10.051   4.848  0.0116  0.2419  0.5088
16386SOL    HW153969   7.410  10.132   4.807  0.4299 -0.2542 -0.8016
16386SOL    HW253970   7.463  10.077   4.937 -0.9556  1.3313  0.4788
16387SOL     OW53971   7.905  11.159   8.928 -0.0300 -0.1923  0.2927
16387SOL    HW153972   7.887  11.204   8.845  2.2700 -0.5772 -0.4975
16387SOL    HW253973   7.856  11.077   8.922 -1.6151  0.7144  0.3016
16388SOL     OW53974   5.195  11.749   1.016 -0.2111  0.3346  0.4129
16388SOL    HW153975   5.123  11.695   1.049  0.0745 -0.9117 -0.9215
16388SOL    HW253976   5.274  11.700   1.037  0.3273  1.7065  1.8896
16389SOL     OW53977   1.598   2.652   5.586 -0.0905 -0.6169 -0.4497
16389SOL    HW153978   1.574   2.611   5.669  1.0167 -0.0528  0.1691
16389SOL    HW253979   1.630   2.739   5.610 -2.5095  0.7398 -1.7382
16390SOL     OW53980  10.732   1.614   4.990 -0.2889 -0.3917  0.4077
16390SOL    HW153981  10.798   1.593   4.924 -1.1471 -0.2727 -0.5296
16390SOL    HW253982  10.670   1.672   4.944 -0.6102  0.1597  1.4903
16391SOL     OW53983  12.344   2.952  11.278 -0.0932 -0.1478  0.0214
16391SOL    HW153984  12.350   2.925  11.370 -0.3098  1.1544  0.4317
16391SOL    HW253985  12.404   3.026  11.271 -0.6338  0.2298 -0.7050
16392SOL     OW53986   5.581   6.116   0.397  0.2196 -0.0161  0.3580
16392SOL    HW153987   5.502   6.067   0.373  0.6391 -1.0878  1.0905
16392SOL    HW253988   5.550   6.182   0.459 -0.3451  0.6334 -0.5877
16393SOL     OW53989   5.730   6.090   1.508 -0.6372  0.2980  0.7011
16393SOL    HW153990   5.643   6.066   1.541 -0.4176  0.9947  1.8456
16393SOL    HW253991   5.780   6.008   1.511 -1.1107 -0.0076  0.4667
16394SOL     OW53992  10.813   5.131   1.521  0.4578  0.2299  0.4477
16394SOL    HW153993  10.722   5.157   1.536  0.4451 -0.0529  0.8739
16394SOL    HW253994  10.861   5.171   1.593  0.3301 -1.5384  1.5842
16395SOL     OW53995  10.562   0.289  11.990  0.3720  0.2716 -0.7792
16395SOL    HW153996  10.503   0.339  11.933 -0.6894  1.9739  1.6594
16395SOL    HW253997  10.639   0.345  12.000  0.5245  0.0067 -0.4711
16396SOL     OW53998   9.628   2.513   1.485  0.5686  0.6614  0.0157
16396SOL    HW153999   9.667   2.582   1.539 -2.1550  2.7561 -0.4334
16396SOL    HW254000   9.569   2.467   1.545  0.3172  0.5295 -0.3334
16397SOL     OW54001   7.904  10.675   5.157  0.3042  0.2427 -0.1986
16397SOL    HW154002   7.962  10.709   5.224  0.8037 -0.0795 -0.4650
16397SOL    HW254003   7.945  10.701   5.074  1.2384 -1.8649 -0.4410
16398SOL     OW54004   4.960   5.771   8.675  0.5309  0.4543  0.1987
16398SOL    HW154005   4.959   5.829   8.599  0.2557 -1.0327 -0.9742
16398SOL    HW254006   4.977   5.684   8.639 -0.2154 -0.3939  1.7807
16399SOL     OW54007  10.718   2.542   1.705  0.4431  0.3561 -0.3451
16399SOL    HW154008  10.630   2.554   1.671  0.0120 -0.0774  0.5936
16399SOL    HW254009  10.723   2.449   1.729 -0.6146  1.2342  4.2284
16400SOL     OW54010   8.692  11.180   1.001  0.0636 -0.0983  0.3219
16400SOL    HW154011   8.688  11.233   0.921 -1.1357 -0.4923  0.1031
16400SOL    HW254012   8.713  11.092   0.970  0.3329 -0.1042  0.5188
16401SOL     OW54013   2.005  11.088   8.149  0.0750 -0.2790  0.3114
16401SOL    HW154014   2.004  11.158   8.084 -1.2284  1.1415  1.7605
16401SOL    HW254015   1.912  11.064   8.159  0.1456  0.0357  2.0955
16402SOL     OW54016   4.196  10.718   5.625  0.2106 -0.6254  0.7733
16402SOL    HW154017   4.206  10.758   5.712  1.7886  0.6465  0.0699
16402SOL    HW254018   4.102  10.699   5.618  0.0209 -0.6348  2.6789
16403SOL     OW54019   4.998  10.124   3.149 -0.4107 -0.2288  0.0162
16403SOL    HW154020   4.977  10.031   3.140 -0.1607 -0.2915  0.0967
16403SOL    HW254021   4.998  10.157   3.059  0.3959 -0.4966 -0.0893
16404SOL     OW54022  11.769   1.465  11.305  0.2316 -0.1065  0.2614
16404SOL    HW154023  11.732   1.546  11.340 -3.0352 -1.6344  0.7204
16404SOL    HW254024  11.771   1.479  11.210  1.2590  1.0329  0.4200
16405SOL     OW54025  11.521   4.710   4.574 -0.1616 -0.1130  0.0142
16405SOL    HW154026  11.544   4.735   4.663 -0.1449  1.7796 -0.4846
16405SOL    HW254027  11.576   4.635   4.554  1.0441  0.4887  1.0149
16406SOL     OW54028   5.600  10.879   9.570 -1.0511  0.2868 -0.0336
16406SOL    HW154029   5.619  10.969   9.543  0.4471  0.1815  0.5751
16406SOL    HW254030   5.532  10.888   9.637 -0.1060  1.0975  0.8626
16407SOL     OW54031   2.165   9.367  10.393 -0.6583  0.5138 -0.3025
16407SOL    HW154032   2.136   9.431  10.328 -3.2170  0.9353  1.1019
16407SOL    HW254033   2.083   9.330  10.427  0.7027 -1.9557  0.4678
16408SOL     OW54034   7.113   4.841   1.270  0.3123 -0.1944 -0.1273
16408SOL    HW154035   7.138   4.749   1.268  0.9144 -0.0336 -1.8051
16408SOL    HW254036   7.183   4.886   1.223  0.2586  1.1964  1.0635
16409SOL     OW54037   5.718  12.512   9.353  0.0699  0.7278  0.6061
16409SOL    HW154038   5.646  12.515   9.415 -0.6870  0.1795 -0.2331
16409SOL    HW254039   5.680  12.541   9.270  0.3992 -1.0882 -0.2190
16410SOL     OW54040   3.589   5.496   2.557 -0.1430  0.1582 -0.2242
16410SOL    HW154041   3.653   5.444   2.606 -1.1534 -1.5756 -0.6721
16410SOL    HW254042   3.639   5.534   2.484  0.4621 -0.8043 -0.3165
16411SOL     OW54043  12.387   3.027   7.201  0.5081  0.2923 -0.8360
16411SOL    HW154044  12.372   3.068   7.116 -1.9076  1.4040  0.0482
16411SOL    HW254045  12.435   3.092   7.251 -0.4558  0.7498 -0.4914
16412SOL     OW54046   9.215  10.045   9.384  0.3020 -0.1600  0.0188
16412SOL    HW154047   9.182   9.970   9.335  2.2984 -1.4986  0.5663
16412SOL    HW254048   9.159  10.050   9.461  1.0800 -2.1803  0.7892
16413SOL     OW54049   6.991   2.257   7.058 -0.0512  0.4572  0.3196
16413SOL    HW154050   6.983   2.164   7.038  1.4328  0.5789 -1.0546
16413SOL    HW254051   6.943   2.301   6.988  1.2770  0.7698 -0.4233
16414SOL     OW54052   8.684   3.446  11.563 -0.3035  0.7603  0.1860
16414SOL    HW154053   8.639   3.530  11.568 -0.6348  0.5840  0.2379
16414SOL    HW254054   8.751   3.458  11.496  1.0826  1.7102  1.6861
16415SOL     OW54055   2.638   8.462   4.610 -0.5950  0.5760 -0.5944
16415SOL    HW154056   2.693   8.464   4.689 -0.7697  0.7263 -0.4752
16415SOL    HW254057   2.573   8.394   4.629 -1.6437  1.7282  0.0769
16416SOL     OW54058   0.150   1.040   7.377 -0.5061  0.2366  0.0125
16416SOL    HW154059   0.067   0.995   7.395 -0.4812  0.0169 -0.3900
16416SOL    HW254060   0.162   1.100   7.450 -0.1023 -1.0375  1.0380
16417SOL     OW54061  11.719   1.899  12.390  0.2162 -0.0322 -0.2685
16417SOL    HW154062  11.720   1.944  12.305  1.2045  1.3721  0.4491
16417SOL    HW254063  11.728   1.806  12.368 -1.7997  0.0687 -1.7864
16418SOL     OW54064  12.550   1.853   9.126 -0.2202  0.3867  0.1577
16418SOL    HW154065  12.463   1.824   9.152 -0.6368  2.1246  0.8400
16418SOL    HW254066  12.608   1.819   9.194  0.0763 -2.8656 -1.5552
16419SOL     OW54067   7.561   3.621   1.762  0.1683 -0.0067  0.0614
16419SOL    HW154068   7.630   3.593   1.703  3.7327 -0.1986  3.8408
16419SOL    HW254069   7.571   3.717   1.767 -0.2537  0.0359  0.1635
16420SOL     OW54070   5.403   0.720   2.555  0.2496 -0.8618 -0.2358
16420SOL    HW154071   5.421   0.762   2.470 -0.0556 -1.5985 -0.6796
16420SOL    HW254072   5.424   0.787   2.620  2.4361 -0.9308 -0.7918
16421SOL     OW54073   3.643  11.293   0.558 -0.7490  0.2716  0.3408
16421SOL    HW154074   3.678  11.206   0.537 -2.2185 -0.0794 -0.8194
16421SOL    HW254075   3.601  11.322   0.478  0.8902  2.7113  0.2554
16422SOL     OW54076   0.734   7.478  11.999  0.3031  0.2545 -0.2604
16422SOL    HW154077   0.754   7.552  11.942  1.0275  1.0117  0.9201
16422SOL    HW254078   0.820   7.447  12.028 -0.0281 -0.5189 -0.0901
16423SOL     OW54079   0.504   1.683   2.242 -0.0799 -0.0177  0.2982
16423SOL    HW154080   0.546   1.621   2.301  0.8271  0.5713  0.2929
16423SOL    HW254081   0.410   1.666   2.252  0.1489 -1.4772  0.1818
16424SOL     OW54082   6.064  11.496  12.211  0.2313  0.0787  0.2103
16424SOL    HW154083   6.138  11.545  12.245 -0.0363  0.9504 -0.4207
16424SOL    HW254084   5.991  11.520  12.269  0.4345 -0.8187  0.8633
16425SOL     OW54085   9.856   0.762   9.445 -0.1711 -0.0219 -0.4662
16425SOL    HW154086   9.865   0.835   9.383 -0.6859  0.2562 -0.2145
16425SOL    HW254087   9.934   0.709   9.429 -0.0398  0.3169 -1.0012
16426SOL     OW54088  12.197   5.660   9.926  0.1852  0.3192 -0.2813
16426SOL    HW154089  12.186   5.567   9.908 -3.1794  0.8143 -1.5131
16426SOL    HW254090  12.227   5.696   9.842  1.7109  0.3555  0.2590
16427SOL     OW54091   3.841   8.661   5.689  0.1436  0.0146  0.2651
16427SOL    HW154092   3.809   8.703   5.609  1.3486  0.5217  0.0269
16427SOL    HW254093   3.875   8.733   5.742  0.1571 -0.4164  0.8520
16428SOL     OW54094   6.005   8.566   8.899 -0.1696 -0.1588  0.6248
16428SOL    HW154095   6.026   8.524   8.982  2.0834  0.2176  0.2997
16428SOL    HW254096   6.079   8.624   8.882 -1.1347  0.6421 -1.0868
16429SOL     OW54097   0.854   6.501   8.261  0.0918 -0.1119 -0.5182
16429SOL    HW154098   0.814   6.581   8.228  1.8170  0.5218 -1.1866
16429SOL    HW254099   0.812   6.431   8.210 -1.8815  0.2487  0.5137
16430SOL     OW54100   7.432   1.847   1.569 -0.4599 -0.4222 -1.0213
16430SOL    HW154101   7.375   1.826   1.642 -0.4761 -0.0251 -0.9195
16430SOL    HW254102   7.417   1.940   1.552  0.2780 -0.2740 -0.8878
16431SOL     OW54103  10.538   7.034   9.161 -0.3848  0.7428  0.3024
16431SOL    HW154104  10.551   6.941   9.183 -0.3084  0.1830 -1.8665
16431SOL    HW254105  10.615   7.056   9.108 -1.1170  1.6126 -0.4177
16432SOL     OW54106   8.162   6.176   5.824 -0.2646 -0.4255 -0.0028
16432SOL    HW154107   8.194   6.165   5.735 -1.2601  1.3781 -0.6327
16432SOL    HW254108   8.200   6.259   5.853  0.4979 -1.2548  1.4824
16433SOL     OW54109  11.410   8.816   8.505 -0.7437 -0.0002  0.0598
16433SOL    HW154110  11.439   8.729   8.531 -0.7441  0.2488  0.9408
16433SOL    HW254111  11.351   8.801   8.432  0.8251 -0.5835 -1.1340
16434SOL     OW54112   4.835   2.023   6.092 -0.0630  0.8971 -0.3096
16434SOL    HW154113   4.907   2.002   6.152 -0.2736  0.5415 -0.1790
16434SOL    HW254114   4.850   2.114   6.068  1.8520  0.1817 -2.1934
16435SOL     OW54115  12.277  12.064   2.055  0.5708  0.2909 -0.2199
16435SOL    HW154116  12.199  12.009   2.064  0.7759  0.3240  2.3209
16435SOL    HW254117  12.255  12.146   2.100  1.4608  1.0214 -1.0469
16436SOL     OW54118  10.879   3.732   7.750 -0.5743 -0.3324  0.0659
16436SOL    HW154119  10.883   3.778   7.667 -0.6393 -0.4121  0.0181
16436SOL    HW254120  10.799   3.679   7.745  0.4721 -1.9136 -0.6402
16437SOL     OW54121   0.874   4.883   3.983 -0.1436 -0.2321 -0.1923
16437SOL    HW154122   0.791   4.833   3.982 -0.8439  0.6661  3.0052
16437SOL    HW254123   0.854   4.962   3.933 -1.5042  0.2710  1.0566
16438SOL     OW54124   3.246   3.521   7.966 -0.4387 -0.2768 -0.3617
16438SOL    HW154125   3.294   3.487   7.890  1.1713 -1.8141  1.2239
16438SOL    HW254126   3.212   3.605   7.938  1.5588 -0.0205 -2.2485
16439SOL     OW54127   5.141   2.952  11.816  0.4121  0.0767 -0.3013
16439SOL    HW154128   5.131   3.047  11.816  0.3452  0.0921 -1.7399
16439SOL    HW254129   5.135   2.927  11.908 -2.1866  1.1933 -0.0855
16440SOL     OW54130   4.604   5.487   9.736  0.3065  0.0756 -0.1073
16440SOL    HW154131   4.638   5.430   9.805  3.2419 -0.5652 -1.9096
16440SOL    HW254132   4.522   5.445   9.709  0.7257 -1.4411  0.8453
16441SOL     OW54133   9.605  12.286   3.762  0.4671 -0.4628 -0.1227
16441SOL    HW154134   9.610  12.226   3.836 -1.3820  1.4423  1.6712
16441SOL    HW254135   9.695  12.291   3.729  1.8534  0.2317  3.3860
16442SOL     OW54136  10.543  12.631   9.130 -0.1495  0.8581  0.1339
16442SOL    HW154137  10.554  12.646   9.036  0.5302 -0.4109 -0.0089
16442SOL    HW254138  10.628  12.657   9.168 -0.7054  2.2020  0.5367
16443SOL     OW54139   4.159   5.639   0.348 -0.0771 -0.2794  0.3894
16443SOL    HW154140   4.107   5.717   0.332 -1.6866 -1.5882 -1.1309
16443SOL    HW254141   4.237   5.650   0.294  0.0579  0.5720  0.7403
16444SOL     OW54142   7.436   0.842  12.251  0.2717  0.3433  0.2239
16444SOL    HW154143   7.434   0.882  12.164  1.9609 -1.1857 -0.5999
16444SOL    HW254144   7.507   0.888  12.296  1.5685 -0.9959 -0.3868
16445SOL     OW54145   1.210  11.459   7.920 -0.5836 -0.3410  0.1871
16445SOL    HW154146   1.258  11.434   7.841 -0.0778 -0.3342  0.4878
16445SOL    HW254147   1.120  11.473   7.891 -0.3406 -0.0632 -0.4368
16446SOL     OW54148   8.368   5.464  11.415 -0.0001 -0.0802  0.2610
16446SOL    HW154149   8.374   5.497  11.504  2.4286 -0.3979  0.2710
16446SOL    HW254150   8.381   5.370  11.422  1.5969  0.0515 -0.5143
16447SOL     OW54151   4.646   9.901   4.964  0.4086  0.3281 -0.3873
16447SOL    HW154152   4.675   9.913   5.054 -0.3528 -0.2046 -0.0701
16447SOL    HW254153   4.704   9.958   4.913  1.8028 -0.4432  0.2678
16448SOL     OW54154   6.077   6.011   0.150  0.4309  0.8408 -0.1640
16448SOL    HW154155   6.068   5.918   0.171  1.1966  0.9473  0.6809
16448SOL    HW254156   6.078   6.014   0.055 -0.2212  0.0481 -0.2093
16449SOL     OW54157   8.183  10.078   1.857  0.5421  0.5132  0.0060
16449SOL    HW154158   8.169  10.046   1.768 -0.5818 -0.2012  0.4162
16449SOL    HW254159   8.236  10.157   1.846 -0.3327  0.9419 -1.3694
16450SOL     OW54160  10.353   4.040   7.405 -0.7983 -0.2318 -0.2119
16450SOL    HW154161  10.296   4.028   7.481  0.1117  1.8572  0.9004
16450SOL    HW254162  10.437   4.002   7.433  0.0211  1.9801  0.5628
16451SOL     OW54163   4.077   0.755  12.466 -0.0570  0.0780  0.6078
16451SOL    HW154164   4.108   0.675  12.424 -0.9495  0.6921 -1.2859
16451SOL    HW254165   4.021   0.724  12.537 -1.2506 -0.9973 -0.7668
16452SOL     OW54166   5.600   6.479   0.868  0.0485 -0.1613  0.4254
16452SOL    HW154167   5.615   6.394   0.908  0.4926 -0.2826 -0.0005
16452SOL    HW254168   5.575   6.536   0.942  2.3285  0.0008  1.1622
16453SOL     OW54169  10.959   5.752   0.404  0.3188  0.2718  0.4057
16453SOL    HW154170  10.882   5.794   0.442 -0.4016 -1.5398  1.0247
16453SOL    HW254171  10.938   5.740   0.312 -0.0950 -0.0931  0.5449
16454SOL     OW54172   3.884   3.583   1.741 -0.4876  0.1780 -0.8466
16454SOL    HW154173   3.914   3.674   1.742 -0.3681  0.1818 -2.4384
16454SOL    HW254174   3.859   3.565   1.832  2.0778  0.9162  0.0881
16455SOL     OW54175   8.284   6.177   5.591  0.3412 -0.6117 -0.0599
16455SOL    HW154176   8.378   6.172   5.608  0.2121  1.1726  1.4142
16455SOL    HW254177   8.278   6.203   5.500  1.1861 -3.4181 -1.0194
16456SOL     OW54178   6.973   2.163  12.433  0.0268  0.7939  0.4114
16456SOL    HW154179   6.993   2.239  12.487  1.0957  0.7590  0.0860
16456SOL    HW254180   6.944   2.200  12.350  1.1100  0.8704  0.0493
16457SOL     OW54181   1.910   5.056   5.659  0.3088 -0.5877 -0.0063
16457SOL    HW154182   1.980   5.087   5.602 -0.0529  4.0253  1.5976
16457SOL    HW254183   1.840   5.030   5.600  1.1139  0.8950 -1.7150
16458SOL     OW54184   0.087   2.380   9.278 -0.1748 -0.4139  0.2135
16458SOL    HW154185   0.137   2.310   9.319  0.1678 -0.2813  0.0338
16458SOL    HW254186   0.029   2.336   9.216  1.0321 -0.4608 -0.9312
16459SOL     OW54187   0.111   9.548   9.306 -0.2538 -0.0325 -0.0791
16459SOL    HW154188   0.117   9.586   9.394  1.0554  2.0427 -0.9810
16459SOL    HW254189   0.122   9.454   9.319 -2.0165 -0.0078  2.1359
16460SOL     OW54190   3.571   6.635   8.060  0.0257 -0.0325  0.0540
16460SOL    HW154191   3.619   6.624   7.977 -1.9261 -0.0253 -1.1343
16460SOL    HW254192   3.593   6.724   8.088  0.8452 -0.0896 -0.3635
16461SOL     OW54193  12.505   4.149   4.502 -0.3248 -0.1768 -0.1624
16461SOL    HW154194  12.419   4.137   4.460  0.6160  1.6096 -2.9071
16461SOL    HW254195  12.515   4.244   4.510  2.1599 -0.1916 -1.8830
16462SOL     OW54196   0.178   9.276   9.345 -0.1929 -0.1130  0.5317
16462SOL    HW154197   0.161   9.200   9.401 -2.3716 -1.4020 -1.6749
16462SOL    HW254198   0.152   9.247   9.258  0.4982  2.6706 -0.6929
16463SOL     OW54199  12.345   5.056   9.630 -0.7058  0.2465 -0.0115
16463SOL    HW154200  12.334   4.984   9.567 -0.8459  0.9383 -0.7928
16463SOL    HW254201  12.285   5.034   9.701  0.3530 -1.1820  0.4874
16464SOL     OW54202  11.891   1.481   9.360 -0.1613  0.2347  0.5297
16464SOL    HW154203  11.966   1.441   9.405  0.2042 -1.0115 -1.1050
16464SOL    HW254204  11.818   1.421   9.378 -0.4054  0.6072  0.7996
16465SOL     OW54205   6.327   1.009   3.957  0.2835  0.2083 -0.4128
16465SOL    HW154206   6.342   1.031   3.865 -0.4877 -0.6450 -0.7620
16465SOL    HW254207   6.401   1.048   4.003  0.3502  1.2103 -1.3090
16466SOL     OW54208  11.712   3.185   3.572  0.2626 -0.0000 -0.5847
16466SOL    HW154209  11.718   3.208   3.479 -0.2543 -1.1378 -0.9090
16466SOL    HW254210  11.776   3.115   3.584 -0.8172 -0.9927 -0.4651
16467SOL     OW54211   4.596  11.062   5.318  0.0682 -0.3136  0.0901
16467SOL    HW154212   4.654  11.118   5.266 -0.9415  0.3419 -0.3585
16467SOL    HW254213   4.653  11.028   5.388  1.1403 -0.2042 -0.6946
16468SOL     OW54214  12.004  10.181   1.671 -0.2254  0.3093  0.2275
16468SOL    HW154215  12.034  10.228   1.593 -1.8008  0.8930 -0.0761
16468SOL    HW254216  12.046  10.095   1.665 -0.5328  0.2401 -1.4418
16469SOL     OW54217   4.654  10.495   1.262 -0.2722 -0.3315  0.7018
16469SOL    HW154218   4.745  10.476   1.285  0.0594 -0.8083 -0.8647
16469SOL    HW254219   4.656  10.583   1.225 -0.6622  0.1201  1.7236
16470SOL     OW54220   0.745   5.846   8.930 -0.2827 -0.0631  0.2608
16470SOL    HW154221   0.753   5.859   8.836  0.0685 -1.0957  0.1309
16470SOL    HW254222   0.836   5.842   8.961 -0.3595 -1.5149  0.3582
16471SOL     OW54223   7.059   6.657   2.890 -0.9228 -0.7578 -0.0759
16471SOL    HW154224   6.979   6.613   2.919 -1.6506  1.5075  1.5952
16471SOL    HW254225   7.127   6.621   2.946 -1.5430  0.2906  1.4063
16472SOL     OW54226   5.381   5.495   5.166  0.5758  0.1904  0.2617
16472SOL    HW154227   5.474   5.477   5.152  0.3996 -2.4325  1.8550
16472SOL    HW254228   5.336   5.419   5.129 -0.8637  0.7721  0.7588
16473SOL     OW54229   8.244   4.454   7.805  0.0448  0.1628  0.0770
16473SOL    HW154230   8.246   4.520   7.875 -0.4584 -0.0570  0.3006
16473SOL    HW254231   8.337   4.434   7.789  0.1607  0.0827  0.8123
16474SOL     OW54232   6.634   7.624   4.838 -0.1998  0.0285  0.3782
16474SOL    HW154233   6.623   7.711   4.877 -2.1463  0.1946 -0.4325
16474SOL    HW254234   6.614   7.563   4.909 -1.0144  0.2848  0.3770
16475SOL     OW54235   1.428   1.843  12.147 -0.3359  0.2370 -0.3682
16475SOL    HW154236   1.376   1.910  12.102 -0.4201  1.5324  1.5154
16475SOL    HW254237   1.464   1.889  12.223  2.2290 -1.0464 -0.6833
16476SOL     OW54238   0.610   4.125   0.815  0.2754 -0.2526  0.5264
16476SOL    HW154239   0.570   4.112   0.729 -1.4764 -0.4605  1.3126
16476SOL    HW254240   0.631   4.219   0.818 -1.5629  0.1980  0.5963
16477SOL     OW54241   6.919   0.375   1.089  0.0735 -0.2722 -0.1731
16477SOL    HW154242   6.959   0.461   1.077  2.7103 -1.3929 -0.1881
16477SOL    HW254243   6.826   0.393   1.098  0.6710  2.7241  1.4294
16478SOL     OW54244  11.636   0.125   3.180 -0.0138  0.0748  0.6485
16478SOL    HW154245  11.721   0.141   3.222  0.1848 -0.2793  0.3947
16478SOL    HW254246  11.630   0.029   3.175 -0.2399  0.1060  0.2807
16479SOL     OW54247  11.151   7.350   6.206  0.0468 -0.2869  0.7867
16479SOL    HW154248  11.107   7.346   6.291 -0.0166 -1.4421  0.7240
16479SOL    HW254249  11.081   7.336   6.142  0.4359 -2.1229  0.6857
16480SOL     OW54250   5.479  10.321  11.433  0.6602  0.6616  0.5340
16480SOL    HW154251   5.471  10.330  11.528  0.8116 -1.8345  0.8519
16480SOL    HW254252   5.567  10.286  11.419 -0.1174 -1.0881 -0.2972
16481SOL     OW54253   4.398   3.520   8.791  0.7110 -0.0593 -0.5559
16481SOL    HW154254   4.318   3.497   8.745  0.3675  0.2920 -0.1453
16481SOL    HW254255   4.371   3.586   8.855  0.9172 -1.4830  1.0710
16482SOL     OW54256   7.699  11.292   1.706  0.5804  0.4126 -1.1919
16482SOL    HW154257   7.742  11.338   1.778 -0.2363  2.6812 -2.0762
16482SOL    HW254258   7.750  11.313   1.628 -0.1774  0.3249 -1.7245
16483SOL     OW54259   3.011   8.847  11.534 -0.3987 -0.4209 -0.1813
16483SOL    HW154260   3.027   8.826  11.442  3.4470  0.2452  0.1782
16483SOL    HW254261   3.040   8.770  11.582  0.3557  0.2931  0.5531
16484SOL     OW54262   7.640   9.693   5.382  0.4635 -0.0588  0.1441
16484SOL    HW154263   7.667   9.760   5.444  1.2360  0.7740 -1.0555
16484SOL    HW254264   7.595   9.628   5.436  1.5185  0.3908  1.6384
16485SOL     OW54265   4.948   6.170   5.186  0.0545 -0.5760  0.0339
16485SOL    HW154266   4.888   6.234   5.223 -0.9183 -1.3127 -0.2373
16485SOL    HW254267   4.986   6.214   5.109  0.1112  0.0074  0.3949
16486SOL     OW54268   7.167  11.196  10.733  0.3069  0.1504 -0.3080
16486SOL    HW154269   7.207  11.143  10.665 -1.4023 -1.3940 -0.1883
16486SOL    HW254270   7.239  11.213  10.795  1.1357 -1.2468 -0.8211
16487SOL     OW54271   5.018   7.279   0.597  0.2290  0.0836 -0.1596
16487SOL    HW154272   5.079   7.246   0.531  1.1759 -0.3520  0.9041
16487SOL    HW254273   4.943   7.311   0.546  1.4967  1.0199 -1.5397
16488SOL     OW54274   2.496   7.009  12.180  0.2631 -0.3331  0.0814
16488SOL    HW154275   2.413   7.048  12.208  0.3876  1.1781 -1.5449
16488SOL    HW254276   2.549   7.007  12.260 -0.1035  1.9786  0.4503
16489SOL     OW54277   1.380  12.503  10.357 -0.8218 -0.4069 -0.1815
16489SOL    HW154278   1.358  12.472  10.444  1.2841  0.4562  0.7229
16489SOL    HW254279   1.322  12.577  10.342 -3.2392 -2.2725 -0.8118
16490SOL     OW54280   3.673   4.672   3.867  0.0344 -0.1470  0.1551
16490SOL    HW154281   3.667   4.757   3.910  0.8753 -0.2156  0.4344
16490SOL    HW254282   3.658   4.609   3.937 -1.5403 -0.2294 -0.2314
16491SOL     OW54283   7.928   9.064   6.381  0.1903 -0.3578  0.2387
16491SOL    HW154284   7.894   9.026   6.462  0.5306 -1.8529 -0.2907
16491SOL    HW254285   8.009   9.108   6.408 -0.9863  1.3832  1.1225
16492SOL     OW54286  11.040   5.142   4.310 -0.0280  0.7488 -0.2870
16492SOL    HW154287  11.130   5.162   4.335  0.0711 -0.8360  0.7558
16492SOL    HW254288  11.046   5.057   4.267 -1.1271  0.2632  0.4892
16493SOL     OW54289   1.853   9.715   5.663  0.1612 -0.0732  0.4283
16493SOL    HW154290   1.888   9.655   5.597  0.0944  0.7370 -0.3668
16493SOL    HW254291   1.920   9.717   5.731 -0.0861 -1.4735  0.7583
16494SOL     OW54292  11.551  10.807   0.232  0.1195 -0.1503  0.3207
16494SOL    HW154293  11.517  10.825   0.144  0.4633 -0.1228  0.1902
16494SOL    HW254294  11.473  10.789   0.285 -0.1970  1.1313  0.3180
16495SOL     OW54295   1.557   9.228  11.691 -0.1925 -0.9720  0.8249
16495SOL    HW154296   1.469   9.203  11.721 -1.3990 -0.4914 -2.0346
16495SOL    HW254297   1.561   9.323  11.704 -0.7838 -0.7359 -0.5428
16496SOL     OW54298   0.673  10.255   0.166 -0.1385  0.1164 -0.1730
16496SOL    HW154299   0.665  10.273   0.072  2.2506  0.9687 -0.2722
16496SOL    HW254300   0.681  10.159   0.171  0.4731  0.1189 -0.9079
16497SOL     OW54301  11.341  12.154   5.710  0.3506  0.4618 -0.2716
16497SOL    HW154302  11.382  12.145   5.624  0.4896  0.2371 -0.1800
16497SOL    HW254303  11.271  12.218   5.696 -0.3712 -0.4368 -0.8091
16498SOL     OW54304   6.086   3.836   6.377  0.5351  0.2142  0.0439
16498SOL    HW154305   6.001   3.816   6.417 -0.0413 -0.2505 -1.3556
16498SOL    HW254306   6.145   3.771   6.415 -0.0284 -0.3264  0.0213
16499SOL     OW54307   6.355  11.701   3.284 -0.2781  0.0943 -0.2461
16499SOL    HW154308   6.367  11.607   3.291  0.5330  0.2251  0.2007
16499SOL    HW254309   6.415  11.729   3.215  2.3913  0.7774  2.1584
16500SOL     OW54310   1.124   6.783   8.474  0.7329 -0.2897 -0.0278
16500SOL    HW154311   1.123   6.822   8.562  0.2352  1.0607 -0.5956
16500SOL    HW254312   1.077   6.700   8.484 -0.4146  0.4216  0.7461
16501SOL     OW54313   0.021   0.925   7.724  0.0609 -0.2151 -0.5782
16501SOL    HW154314   0.112   0.906   7.705  0.2887  0.4235 -0.1477
16501SOL    HW254315  -0.023   0.919   7.639  0.6627  0.3786 -0.9368
16502SOL     OW54316  11.034   1.540  11.814  0.4885 -0.1441 -0.0448
16502SOL    HW154317  11.072   1.459  11.847 -0.4844 -1.2433 -1.5115
16502SOL    HW254318  11.100   1.574  11.753  1.0403  0.3801  0.8182
16503SOL     OW54319   1.803   5.853   0.898  0.3086  0.3719  0.5277
16503SOL    HW154320   1.864   5.787   0.864 -0.0908 -0.4468  1.3686
16503SOL    HW254321   1.846   5.888   0.976 -1.0771 -1.6235  2.3096
16504SOL     OW54322   1.006   5.012  10.704  0.1442  0.1145 -0.1628
16504SOL    HW154323   1.075   5.021  10.638 -1.3490  0.1076 -1.7811
16504SOL    HW254324   0.926   5.002  10.654 -1.0547  0.0533  1.6799
16505SOL     OW54325  10.250   0.931   1.661 -0.1135 -0.7258 -0.0476
16505SOL    HW154326  10.206   1.015   1.652 -0.6418 -1.0449 -0.5077
16505SOL    HW254327  10.241   0.908   1.753  1.4015  0.4526  0.4319
16506SOL     OW54328  12.075   3.599   5.506  0.2919 -0.1462 -0.0480
16506SOL    HW154329  11.999   3.583   5.561  2.3878 -1.7822  2.5946
16506SOL    HW254330  12.087   3.694   5.509 -0.7307 -0.0297  0.7547
16507SOL     OW54331  12.342   3.167   6.979  0.1787 -0.7542 -0.0488
16507SOL    HW154332  12.430   3.198   6.959 -0.5039  1.2207 -0.2180
16507SOL    HW254333  12.295   3.245   7.010 -1.0517 -2.0801  1.6706
16508SOL     OW54334  11.751  11.819  12.097 -0.2532  0.4714  0.2608
16508SOL    HW154335  11.758  11.827  12.192 -0.2445 -2.7095  0.6510
16508SOL    HW254336  11.821  11.758  12.073 -0.8769  0.4391 -1.6491
16509SOL     OW54337  10.056  11.540   6.769  0.2127  0.4768  0.0099
16509SOL    HW154338  10.041  11.624   6.813 -1.7375 -0.8793  2.1496
16509SOL    HW254339   9.982  11.530   6.710  0.0478 -0.0379  0.2969
16510SOL     OW54340   4.170   7.938   0.923 -0.3343  0.1455 -0.1268
16510SOL    HW154341   4.143   8.006   0.861  0.3048  0.6087  0.0900
16510SOL    HW254342   4.260   7.961   0.945 -0.8525  0.5729  1.7258
16511SOL     OW54343   7.043   3.927  11.890 -0.2067  0.2475 -0.4283
16511SOL    HW154344   6.948   3.925  11.880 -0.1882 -0.4496 -0.5895
16511SOL    HW254345   7.076   3.910  11.801  0.1045  2.1333 -0.7173
16512SOL     OW54346   3.486  10.094   6.986  0.0139 -0.5803  0.2316
16512SOL    HW154347   3.410  10.105   7.044  0.0342 -0.7846  0.2979
16512SOL    HW254348   3.450  10.105   6.898 -0.5354 -2.7615  0.1036
16513SOL     OW54349   4.116   0.365  11.144  0.3292  0.1865 -0.1961
16513SOL    HW154350   4.205   0.397  11.128  0.8068 -1.2944 -0.7328
16513SOL    HW254351   4.112   0.352  11.239  0.2375  1.4556 -0.0143
16514SOL     OW54352   3.450  11.954  10.348  0.6951 -0.4713 -0.1587
16514SOL    HW154353   3.440  11.993  10.435  2.2813  0.5219 -0.3822
16514SOL    HW254354   3.531  11.903  10.354  2.0063  1.3354 -1.6221
16515SOL     OW54355   8.194   0.191   7.250  1.1421  0.8423 -0.1439
16515SOL    HW154356   8.128   0.199   7.319 -0.1672  0.7629 -1.3427
16515SOL    HW254357   8.196   0.277   7.209  1.7579  0.8237 -0.1540
16516SOL     OW54358   7.189   0.272   3.383 -0.3097  0.5977  0.2458
16516SOL    HW154359   7.234   0.189   3.397 -1.8779 -0.4013 -0.3863
16516SOL    HW254360   7.170   0.305   3.471  2.1815  1.3947  0.5498
16517SOL     OW54361   7.162  12.629   1.484  0.2134  0.4137  0.1737
16517SOL    HW154362   7.240  12.665   1.442  0.2592  0.7557  0.5393
16517SOL    HW254363   7.191  12.548   1.525  0.5851  0.9558  1.0174
16518SOL     OW54364   9.798  10.897  11.885 -0.5641  0.1400 -0.2053
16518SOL    HW154365   9.854  10.956  11.834  1.0807 -2.3984 -1.5642
16518SOL    HW254366   9.744  10.956  11.938  0.0003  2.8678 -2.3793
16519SOL     OW54367   9.829   1.607   6.806 -0.2562  0.0815  0.4915
16519SOL    HW154368   9.852   1.625   6.897 -0.8340 -2.7391  1.2855
16519SOL    HW254369   9.828   1.693   6.765 -1.8701  1.7192  3.5729
16520SOL     OW54370   1.004  10.261  12.439  0.4258  0.1817 -0.0454
16520SOL    HW154371   1.036  10.305  12.360 -0.0358 -0.7332 -0.7629
16520SOL    HW254372   0.956  10.184  12.406 -0.0348 -0.0478  1.1131
16521SOL     OW54373   9.227  12.267   1.366 -0.4848 -0.4338  0.2819
16521SOL    HW154374   9.267  12.248   1.451  1.5998  0.2234 -0.5087
16521SOL    HW254375   9.207  12.361   1.369  0.2956 -0.2481 -0.2270
16522SOL     OW54376   8.576   6.764   9.683  0.4627  0.2296 -0.5272
16522SOL    HW154377   8.604   6.710   9.609  0.3656 -1.0076  0.3153
16522SOL    HW254378   8.482   6.747   9.691  0.3050  0.9944 -0.6152
16523SOL     OW54379   8.673   3.315   6.208  0.0410 -0.0750  0.0221
16523SOL    HW154380   8.751   3.260   6.204 -0.7782 -1.3408  0.7132
16523SOL    HW254381   8.664   3.351   6.120  0.3395 -1.4584 -0.5992
16524SOL     OW54382   0.182   6.075   5.799  0.7756  0.1827 -0.2017
16524SOL    HW154383   0.250   6.133   5.764  0.6437 -0.1870 -1.0914
16524SOL    HW254384   0.123   6.133   5.846  0.8820  0.7095 -0.7155
16525SOL     OW54385   1.075  10.513   0.811 -0.2065 -0.2011 -0.0647
16525SOL    HW154386   1.062  10.601   0.778  0.1104  1.0500  2.8369
16525SOL    HW254387   1.045  10.517   0.902  0.0962 -3.0180  0.2480
16526SOL     OW54388  10.342   0.798   6.151 -0.2847 -0.2577 -0.0932
16526SOL    HW154389  10.401   0.859   6.106  0.9834 -1.0744  0.3807
16526SOL    HW254390  10.339   0.829   6.241 -0.8539 -0.0255 -0.1925
16527SOL     OW54391   5.058  12.043  10.069  0.1651 -0.3490  0.4257
16527SOL    HW154392   4.994  11.994  10.121 -0.9360  1.4700  0.8494
16527SOL    HW254393   5.128  12.065  10.131 -1.3960  2.2823  1.4107
16528SOL     OW54394   4.854   4.886  10.242  0.5628  0.7740 -0.5887
16528SOL    HW154395   4.795   4.820  10.278  0.8681  1.5197  1.3964
16528SOL    HW254396   4.797   4.945  10.193 -0.4693  1.7044  1.6187
16529SOL     OW54397  11.188   5.486   1.997 -0.5575 -0.4012  0.2888
16529SOL    HW154398  11.270   5.525   1.969 -0.9038 -0.2878 -0.5862
16529SOL    HW254399  11.126   5.558   2.000 -0.6674 -0.5079  0.8324
16530SOL     OW54400   6.167   7.473   6.048 -0.5537  0.1046  0.1644
16530SOL    HW154401   6.127   7.386   6.040  0.8521 -0.5893  0.2629
16530SOL    HW254402   6.258   7.459   6.020  0.8554  0.5986  3.9139
16531SOL     OW54403   0.245   4.892   4.660  0.4847  0.6869  0.0092
16531SOL    HW154404   0.172   4.868   4.717  0.7849  2.4135  1.2006
16531SOL    HW254405   0.318   4.908   4.720  2.1797 -1.8330 -1.1931
16532SOL     OW54406   0.974   1.036   5.820 -0.9923 -0.3014  0.0266
16532SOL    HW154407   0.981   1.030   5.916 -1.7970 -2.2173  0.0248
16532SOL    HW254408   1.037   0.971   5.789  0.6868  1.6527 -0.8588
16533SOL     OW54409   4.413   7.040  12.214  0.8778  0.0229 -0.4384
16533SOL    HW154410   4.439   6.960  12.259  0.0919  0.8620  1.5899
16533SOL    HW254411   4.477   7.106  12.241 -0.6828  1.0081  1.0862
16534SOL     OW54412   2.886   8.356  10.808  0.0847  0.6435  0.1667
16534SOL    HW154413   2.929   8.312  10.734 -1.3034  0.6862 -0.7047
16534SOL    HW254414   2.831   8.289  10.847 -0.3418  1.0243  0.2211
16535SOL     OW54415  10.121   1.561  10.057 -0.0644  0.8285 -0.3868
16535SOL    HW154416  10.113   1.476  10.101 -0.0112  0.9470 -0.1485
16535SOL    HW254417  10.043   1.609  10.084 -0.6463  0.4698 -1.3690
16536SOL     OW54418   0.222  11.114   1.702  0.0614 -0.0866  0.1504
16536SOL    HW154419   0.232  11.119   1.607 -0.4175  0.4301  0.1195
16536SOL    HW254420   0.130  11.092   1.716  0.4422 -1.5543  0.4778
16537SOL     OW54421   8.188   5.118   5.791 -0.1370 -0.4809 -0.4038
16537SOL    HW154422   8.168   5.173   5.867  1.1121 -0.3260 -0.1669
16537SOL    HW254423   8.204   5.031   5.827 -0.1380 -0.5495 -0.5656
16538SOL     OW54424  12.290  11.654   7.399  0.1187  0.2817 -0.4940
16538SOL    HW154425  12.232  11.665   7.324 -0.2993  0.4560 -0.1437
16538SOL    HW254426  12.260  11.574   7.441 -1.6510  1.7650  1.2565
16539SOL     OW54427   2.075   3.338  11.123 -0.0535 -0.0262  0.1090
16539SOL    HW154428   2.053   3.329  11.031 -2.0958  0.0030  0.5612
16539SOL    HW254429   2.031   3.265  11.166  0.5872  0.1506  1.1252
16540SOL     OW54430   3.357   8.746   3.419  0.0793  0.0902 -0.4924
16540SOL    HW154431   3.439   8.703   3.395 -1.0883 -2.1457 -0.7743
16540SOL    HW254432   3.366   8.765   3.513  0.3499 -1.5824 -0.1503
16541SOL     OW54433   0.260   1.025   6.802 -0.2709 -0.5381  0.2516
16541SOL    HW154434   0.251   1.108   6.849 -0.0558 -0.5213  0.2625
16541SOL    HW254435   0.177   1.015   6.756 -1.4630 -1.7144  2.4797
16542SOL     OW54436   6.485   2.360   2.133  0.1637  0.3881  0.0360
16542SOL    HW154437   6.567   2.314   2.155 -0.2578  0.1415  1.1520
16542SOL    HW254438   6.421   2.326   2.195 -0.2724  2.1829  0.6272
16543SOL     OW54439  11.978  11.061  11.143 -0.5843 -0.0088 -0.2396
16543SOL    HW154440  11.991  11.118  11.067 -1.9647 -1.0705 -1.3249
16543SOL    HW254441  12.060  11.012  11.150  0.3401  1.5087  0.2575
16544SOL     OW54442   4.300   8.738   4.469  0.6305  0.4251 -0.4500
16544SOL    HW154443   4.363   8.668   4.485  1.1403  1.2389  1.3785
16544SOL    HW254444   4.223   8.694   4.435  1.4454 -0.8401 -0.7101
16545SOL     OW54445   1.197   9.881   4.750 -0.1108  0.6603  0.2473
16545SOL    HW154446   1.155   9.802   4.784  0.4383  0.9608  1.6753
16545SOL    HW254447   1.126   9.946   4.746 -0.1570  0.6571  0.9510
16546SOL     OW54448   6.154   0.708   3.753  0.3939 -0.3950 -0.2272
16546SOL    HW154449   6.204   0.687   3.674  1.1620  1.0812 -0.1697
16546SOL    HW254450   6.071   0.743   3.720  1.7425  2.8410 -0.5604
16547SOL     OW54451  10.410   6.681   6.588 -0.2428 -0.2553 -0.3589
16547SOL    HW154452  10.505   6.677   6.579 -0.1754 -1.6369  0.6374
16547SOL    HW254453  10.391   6.774   6.603  0.7359  0.3314 -2.3988
16548SOL     OW54454   5.806   6.490   6.200 -0.4884 -0.4474  0.5018
16548SOL    HW154455   5.720   6.520   6.229 -0.2238  0.4334  0.4148
16548SOL    HW254456   5.862   6.499   6.277 -0.0472  0.8249  0.0750
16549SOL     OW54457   1.989   8.773  11.894  0.7202  0.4849  0.6982
16549SOL    HW154458   1.988   8.684  11.928 -0.3384  0.5047  0.7536
16549SOL    HW254459   1.897   8.798  11.888  0.8155  0.4499 -2.2418
16550SOL     OW54460   5.627  10.515   3.667 -0.3433  0.6819  0.3780
16550SOL    HW154461   5.695  10.545   3.727  0.8236  0.4095 -0.7733
16550SOL    HW254462   5.627  10.581   3.597 -1.1065  0.5483  0.2423
16551SOL     OW54463   8.364   8.052   3.907  0.6511  0.1158  0.9055
16551SOL    HW154464   8.335   8.004   3.984  2.2017 -2.1956  0.1453
16551SOL    HW254465   8.323   8.138   3.916 -3.8667 -1.8520  1.3835
16552SOL     OW54466   4.530   1.001  10.929  0.1607  0.0731 -0.4673
16552SOL    HW154467   4.485   1.054  10.863  0.5639  0.0968 -0.7275
16552SOL    HW254468   4.564   0.926  10.880 -0.3661 -0.3986 -0.1066
16553SOL     OW54469   2.126   5.310   2.117  0.6488  0.3631 -0.4499
16553SOL    HW154470   2.067   5.302   2.192 -0.6153  2.2232 -1.1870
16553SOL    HW254471   2.197   5.248   2.136 -0.5544 -0.5439  1.3805
16554SOL     OW54472   9.946  11.627   9.865  0.2297 -0.3092 -0.1302
16554SOL    HW154473   9.858  11.650   9.837  0.5880  0.8501 -0.3504
16554SOL    HW254474   9.949  11.651   9.958  0.5170  0.2941 -0.2908
16555SOL     OW54475   1.707   4.385   7.019  0.4247 -0.1596  0.3489
16555SOL    HW154476   1.746   4.388   6.932  1.0565  1.7075  0.6396
16555SOL    HW254477   1.673   4.296   7.028  1.5944 -0.8059 -1.2446
16556SOL     OW54478   1.432   4.503   4.325 -0.0632  0.3181  0.2432
16556SOL    HW154479   1.409   4.593   4.302  3.2058  0.5806 -2.9817
16556SOL    HW254480   1.465   4.508   4.414 -2.7004  1.6377  1.2370
16557SOL     OW54481   4.672   3.580   5.763 -0.3548  0.1420  0.1576
16557SOL    HW154482   4.579   3.582   5.787 -0.3548  1.8026  0.1237
16557SOL    HW254483   4.683   3.657   5.707  1.2669  0.5783  1.0281
16558SOL     OW54484   5.153   7.450   1.928  0.4937  0.3877  0.1442
16558SOL    HW154485   5.095   7.374   1.919  1.0606  0.2244 -3.1596
16558SOL    HW254486   5.231   7.416   1.971 -0.3725 -0.2102  1.2963
16559SOL     OW54487   6.625  11.638   3.589 -0.5257 -0.8966 -0.4162
16559SOL    HW154488   6.594  11.666   3.502 -2.9834  0.0801  0.6842
16559SOL    HW254489   6.574  11.558   3.607 -0.5004 -0.7336  0.3849
16560SOL     OW54490   2.979   9.824   9.506 -0.5472 -0.0111 -0.4500
16560SOL    HW154491   2.891   9.787   9.508 -1.0431  1.1317  1.6640
16560SOL    HW254492   3.025   9.780   9.577 -0.4122  1.5950  0.5073
16561SOL     OW54493   6.221  11.063   7.721  0.4652  0.6662  0.3233
16561SOL    HW154494   6.181  11.095   7.640  0.4607  0.8079  0.3815
16561SOL    HW254495   6.174  11.108   7.791  0.3726  0.4345  0.4098
16562SOL     OW54496   3.361  12.381  12.037  0.4643  0.0695  0.5228
16562SOL    HW154497   3.417  12.452  12.003 -0.3188  0.7457  0.6198
16562SOL    HW254498   3.413  12.341  12.107  0.7814  0.7724  0.6994
16563SOL     OW54499  11.055  10.427   3.104  0.0706  0.3284  0.3783
16563SOL    HW154500  11.113  10.436   3.180  2.3707 -0.2882 -1.1824
16563SOL    HW254501  11.004  10.348   3.122 -1.2139  1.5096  2.3049
16564SOL     OW54502   6.665   1.345   6.500 -0.2070 -0.5158  0.3555
16564SOL    HW154503   6.690   1.338   6.408 -0.2508  0.3443  0.2705
16564SOL    HW254504   6.712   1.421   6.533 -1.9258  0.5694  0.4371
16565SOL     OW54505   2.270   2.878  11.715  0.0418  0.2434 -0.5527
16565SOL    HW154506   2.340   2.937  11.743 -0.0628  0.6179 -1.0524
16565SOL    HW254507   2.212   2.871  11.791 -0.5093  1.6479 -0.8101
16566SOL     OW54508  12.030   9.478   1.668  0.2208  0.2084 -0.3742
16566SOL    HW154509  12.073   9.454   1.586 -2.0649  0.4716 -1.7323
16566SOL    HW254510  12.057   9.410   1.730  0.8220 -0.8537 -1.7425
16567SOL     OW54511   5.530   2.212  12.470 -0.6895 -0.7913  0.0935
16567SOL    HW154512   5.450   2.241  12.426  0.2045  0.2220 -0.9536
16567SOL    HW254513   5.566   2.145  12.413 -1.4385 -2.2213  1.2363
16568SOL     OW54514   8.872   5.919   7.502 -0.2551 -0.1465  0.4075
16568SOL    HW154515   8.887   5.828   7.528 -1.0333 -0.2633  0.4599
16568SOL    HW254516   8.803   5.950   7.560 -0.1858  0.3958  0.2066
16569SOL     OW54517   8.595   1.536   3.930  0.4016 -0.4278  0.5885
16569SOL    HW154518   8.540   1.579   3.865  0.4250 -1.2020  0.0392
16569SOL    HW254519   8.534   1.509   3.999  0.2446 -0.3813  0.4691
16570SOL     OW54520   6.273   8.089   1.145 -0.6025  0.3409  0.3509
16570SOL    HW154521   6.329   8.047   1.210 -0.3798  0.8924  0.5247
16570SOL    HW254522   6.184   8.066   1.171 -0.4611 -0.6374  0.0086
16571SOL     OW54523  12.622   8.711   8.605 -0.2360 -0.1702 -0.1843
16571SOL    HW154524  12.608   8.660   8.684 -0.6280  1.5653  0.9223
16571SOL    HW254525  12.704   8.677   8.569  1.0928  0.3346  2.1264
16572SOL     OW54526   4.276   5.666   3.495 -0.1275 -0.0108  0.3824
16572SOL    HW154527   4.312   5.691   3.410  1.7484  0.3932  1.2323
16572SOL    HW254528   4.214   5.596   3.476 -0.2547  0.5472 -1.3672
16573SOL     OW54529   4.667   5.525   0.903  0.2719  0.2372  0.1628
16573SOL    HW154530   4.586   5.520   0.952 -1.4918 -1.8819 -2.6269
16573SOL    HW254531   4.698   5.434   0.898  1.2435  0.6002 -1.2017
16574SOL     OW54532   6.620   3.082   9.582 -0.2334 -0.2439 -0.4532
16574SOL    HW154533   6.710   3.113   9.571  0.6104 -1.8432  1.3342
16574SOL    HW254534   6.573   3.116   9.506  1.2803  2.6742 -0.2147
16575SOL     OW54535   2.880  10.895   1.655 -0.5297 -0.1863  0.3904
16575SOL    HW154536   2.833  10.827   1.703 -2.3808  1.5540  1.2175
16575SOL    HW254537   2.821  10.917   1.582 -1.1354  2.0653  1.4606
16576SOL     OW54538   2.100   4.265   8.921  0.5536 -0.0452  0.0850
16576SOL    HW154539   2.093   4.335   8.986 -3.2512 -0.1752  0.0416
16576SOL    HW254540   2.059   4.300   8.842  2.2243 -0.9977 -1.2828
16577SOL     OW54541   7.629   2.111  10.587 -0.3590 -0.2948  0.1405
16577SOL    HW154542   7.686   2.089  10.513  0.5005  0.3792  0.5834
16577SOL    HW254543   7.582   2.189  10.559 -0.5439 -0.4416  0.0421
16578SOL     OW54544   4.041   5.273   6.327  0.5504 -0.7336  0.2609
16578SOL    HW154545   4.134   5.261   6.347  0.7924 -0.8762 -0.8534
16578SOL    HW254546   4.003   5.186   6.339  0.1249 -0.2681  2.6995
16579SOL     OW54547   2.499  12.038   9.365 -0.2194  0.2290 -0.4828
16579SOL    HW154548   2.430  12.014   9.303 -2.4484  0.3184  1.7973
16579SOL    HW254549   2.474  12.124   9.398  0.5288 -0.0743  0.9925
16580SOL     OW54550   1.011   3.955   0.608  0.4368 -0.5825  0.4139
16580SOL    HW154551   1.080   4.022   0.618  0.6241 -0.5506 -0.9260
16580SOL    HW254552   1.059   3.872   0.602  0.2645 -0.7262  0.9785
16581SOL     OW54553  11.539   8.801   1.713 -0.3682 -0.0185 -0.5536
16581SOL    HW154554  11.503   8.760   1.634 -0.1759 -0.2178 -0.5359
16581SOL    HW254555  11.462   8.837   1.758 -0.3208  1.7575 -1.7678
16582SOL     OW54556  12.164   1.103   6.222 -0.0055 -0.1214 -0.2549
16582SOL    HW154557  12.171   1.033   6.158 -1.5330 -0.0361 -0.5568
16582SOL    HW254558  12.080   1.145   6.203  1.1471  2.2433 -0.5193
16583SOL     OW54559   5.716   4.739  11.458  0.2867  0.2962  0.5650
16583SOL    HW154560   5.742   4.737  11.366  0.4071  0.8153  0.5843
16583SOL    HW254561   5.688   4.650  11.477  0.7554  0.0588  0.1629
16584SOL     OW54562   2.094   7.446   8.089  0.8600 -0.5593  0.1548
16584SOL    HW154563   2.031   7.399   8.143  0.8850 -0.5938  0.1539
16584SOL    HW254564   2.091   7.536   8.122 -1.7629  0.3192 -2.1191
16585SOL     OW54565   9.720  11.053   8.074  0.2188  0.1262 -0.2339
16585SOL    HW154566   9.749  10.975   8.027  0.4249 -0.3797  0.6975
16585SOL    HW254567   9.766  11.126   8.031  0.5236 -0.3407 -0.7048
16586SOL     OW54568   7.500   0.766   9.131 -0.2568 -0.3944 -0.2846
16586SOL    HW154569   7.433   0.823   9.169  0.2826 -0.3199  0.5804
16586SOL    HW254570   7.497   0.785   9.038 -0.9644  0.1162 -0.1677
16587SOL     OW54571   6.070  11.439   3.846 -0.1919  0.1522 -0.2740
16587SOL    HW154572   6.017  11.492   3.905  1.4035  1.0585  0.4184
16587SOL    HW254573   6.036  11.458   3.759 -1.6014 -0.0446  0.2108
16588SOL     OW54574   3.857   2.694   6.440 -0.4968 -0.7809 -0.0942
16588SOL    HW154575   3.849   2.718   6.347  0.0569  0.6008  0.1787
16588SOL    HW254576   3.870   2.778   6.485 -0.8140 -1.4195  1.2465
16589SOL     OW54577   4.750  12.588   6.378 -0.6111  0.4199  0.0685
16589SOL    HW154578   4.741  12.511   6.322 -2.3002 -0.4253  1.4203
16589SOL    HW254579   4.800  12.559   6.454 -2.4946  0.1881  1.2846
16590SOL     OW54580   2.502  12.456   1.905  0.0620 -0.2578 -0.1255
16590SOL    HW154581   2.484  12.516   1.977 -0.6563 -0.5022 -0.0972
16590SOL    HW254582   2.458  12.495   1.829 -1.0812 -1.1291  0.0616
16591SOL     OW54583   4.071   5.166   8.013 -0.0252 -0.2504 -0.0563
16591SOL    HW154584   4.080   5.130   7.925  0.4294  0.6471 -0.3904
16591SOL    HW254585   3.988   5.214   8.011 -0.7009 -1.3651  0.4297
16592SOL     OW54586  10.980   6.405   9.831 -0.3487  0.1212 -0.4849
16592SOL    HW154587  10.985   6.420   9.736 -1.1604  0.9610 -0.4026
16592SOL    HW254588  10.904   6.454   9.859 -1.7972 -2.3254  0.1931
16593SOL     OW54589   0.179   6.088   3.737  0.1593  0.1028 -0.2278
16593SOL    HW154590   0.095   6.113   3.700  0.0533 -0.6377 -0.5209
16593SOL    HW254591   0.194   5.999   3.704  0.1995 -0.4826  1.2790
16594SOL     OW54592   0.191  10.889   5.691 -0.4735 -0.3313  0.1092
16594SOL    HW154593   0.180  10.928   5.605 -0.9410  0.8990  0.7003
16594SOL    HW254594   0.227  10.802   5.674 -0.4229 -0.0519 -1.3074
16595SOL     OW54595   0.443   8.873   3.800  0.2654 -0.6592 -0.2935
16595SOL    HW154596   0.416   8.876   3.709 -0.6976  1.5259  0.0239
16595SOL    HW254597   0.370   8.832   3.846 -0.4208  0.6604 -0.1603
16596SOL     OW54598   7.299  10.027   7.920 -0.2094 -0.3160  0.1375
16596SOL    HW154599   7.208  10.048   7.900  0.0927  1.1429  0.1887
16596SOL    HW254600   7.313   9.940   7.883 -1.2491 -0.0072 -1.0247
16597SOL     OW54601   0.902   1.554   8.537 -0.5145 -0.2692  0.4859
16597SOL    HW154602   0.924   1.586   8.624  1.1490 -0.7141  0.2669
16597SOL    HW254603   0.806   1.559   8.533 -0.5464  0.9028  1.8725
16598SOL     OW54604  10.753  12.179   3.395 -0.8546  0.2586 -0.4626
16598SOL    HW154605  10.725  12.176   3.486 -0.2477  1.1732 -0.2331
16598SOL    HW254606  10.771  12.271   3.378 -2.1446  0.2833 -1.8818
16599SOL     OW54607   8.086   6.569   3.383 -0.0982  0.1241  0.4783
16599SOL    HW154608   8.118   6.645   3.431  1.0400 -0.2893  0.3918
16599SOL    HW254609   8.103   6.495   3.442 -1.7115 -0.0286  0.8062
16600SOL     OW54610  10.180   3.270   6.676 -0.1523  0.1089  0.4005
16600SOL    HW154611  10.122   3.281   6.601 -0.7320  0.3435  0.8798
16600SOL    HW254612  10.160   3.182   6.709  2.2078 -1.2571 -1.4901
16601SOL     OW54613   1.145   9.589   4.838 -0.5427  0.3853  0.3020
16601SOL    HW154614   1.107   9.631   4.915  0.2099  0.4464  0.6478
16601SOL    HW254615   1.223   9.545   4.871  0.5908  1.5976 -0.6607
16602SOL     OW54616   8.702   7.226   4.785  0.6228 -0.0892  0.1942
16602SOL    HW154617   8.669   7.148   4.741 -0.9740  0.4090  0.4587
16602SOL    HW254618   8.736   7.193   4.869  1.6666 -0.7293 -0.4553
16603SOL     OW54619  11.085  12.472   1.575  0.2834 -0.2233 -0.3436
16603SOL    HW154620  11.149  12.541   1.553 -0.8258  0.3930 -1.8322
16603SOL    HW254621  11.014  12.485   1.512 -1.8543 -0.1772  1.9230
16604SOL     OW54622   1.033   9.471   8.376  0.1189  0.4331 -0.1233
16604SOL    HW154623   0.959   9.461   8.436  0.9647 -1.1040  0.7298
16604SOL    HW254624   1.084   9.543   8.412 -0.0858  0.4009  0.2407
16605SOL     OW54625   0.198  11.442  11.141  0.6544  0.1574  0.1487
16605SOL    HW154626   0.216  11.387  11.217  0.2191  1.0275  0.9079
16605SOL    HW254627   0.245  11.400  11.069 -0.4927 -1.7598  0.4480
16606SOL     OW54628  10.720   0.748   0.466 -0.3063 -0.2029 -0.2031
16606SOL    HW154629  10.686   0.684   0.403  0.3256 -0.5400 -0.2096
16606SOL    HW254630  10.706   0.832   0.423 -2.8622 -0.1306  0.5775
16607SOL     OW54631   3.970  11.512   9.521  1.1035 -0.0083 -0.2154
16607SOL    HW154632   3.891  11.491   9.572  1.0332 -1.3817 -0.8289
16607SOL    HW254633   4.040  11.462   9.564  1.7129  1.3958  0.4703
16608SOL     OW54634   0.666   4.306  11.525 -0.2679  0.3679 -0.0240
16608SOL    HW154635   0.626   4.263  11.450  0.3787  3.5960 -2.4585
16608SOL    HW254636   0.746   4.256  11.543 -1.9278 -2.2282  0.6039
16609SOL     OW54637   9.746  12.326  11.783  0.1519 -0.0728  0.0585
16609SOL    HW154638   9.707  12.295  11.864 -1.6626 -0.6410 -0.9734
16609SOL    HW254639   9.750  12.249  11.727 -0.1983  0.6337 -0.9649
16610SOL     OW54640   7.858   0.395   0.498  0.1536  0.1599  0.8087
16610SOL    HW154641   7.829   0.338   0.427 -2.2229  1.8749  0.2667
16610SOL    HW254642   7.782   0.403   0.555  0.7408  1.8897  1.4270
16611SOL     OW54643   6.992  11.338   9.824 -0.1909  0.0415 -0.4202
16611SOL    HW154644   6.903  11.372   9.823  0.5764  2.1648 -0.2362
16611SOL    HW254645   7.000  11.294   9.909 -1.4625 -1.4732 -1.0236
16612SOL     OW54646   3.790   9.340   7.893 -0.7079  0.0726 -0.4547
16612SOL    HW154647   3.729   9.399   7.936 -0.6496 -0.3584  0.2233
16612SOL    HW254648   3.877   9.376   7.913 -0.6439 -0.5540  0.4472
16613SOL     OW54649   3.726  10.666   4.070  0.1109  0.4739 -0.2993
16613SOL    HW154650   3.742  10.759   4.091 -0.7734  0.3103  1.3188
16613SOL    HW254651   3.812  10.632   4.046  0.4638  1.6925 -0.8692
16614SOL     OW54652   4.583   1.953   0.110 -0.1654 -0.0768 -0.4363
16614SOL    HW154653   4.657   1.910   0.152 -0.2582 -0.3984 -0.5984
16614SOL    HW254654   4.571   1.906   0.028 -0.2307  0.2986 -0.6450
16615SOL     OW54655   5.799   0.263   7.537  0.3484  0.0482  0.0598
16615SOL    HW154656   5.750   0.219   7.606 -1.5031  2.4623  0.4267
16615SOL    HW254657   5.865   0.315   7.583  0.4289  0.1134 -0.1261
16616SOL     OW54658   1.040   7.352   3.081 -0.2648 -0.6750  0.5497
16616SOL    HW154659   0.976   7.421   3.060  0.7839  0.6452  1.5248
16616SOL    HW254660   1.090   7.341   3.000  0.7219  1.0531  0.8520
16617SOL     OW54661   3.298   0.634  11.204  0.2888  0.1594  0.5974
16617SOL    HW154662   3.301   0.542  11.178  2.0416  0.7643 -1.6012
16617SOL    HW254663   3.243   0.676  11.138  2.2606  1.2065 -0.4568
16618SOL     OW54664   8.101   5.035   7.044  0.1981 -0.1368  0.5064
16618SOL    HW154665   8.112   4.958   7.100 -1.4561  1.1458  2.7438
16618SOL    HW254666   8.141   5.106   7.094  0.7037  0.6940 -1.0205
16619SOL     OW54667   0.796   0.237   2.066  0.0066  0.2807  0.4123
16619SOL    HW154668   0.834   0.272   2.147  0.4922  0.9688 -0.1058
16619SOL    HW254669   0.705   0.269   2.067  0.5871  2.0700 -0.3144
16620SOL     OW54670   4.351  10.733   3.721  0.0734  0.3635 -0.2867
16620SOL    HW154671   4.310  10.817   3.741 -0.7224 -0.2980  1.0276
16620SOL    HW254672   4.327  10.677   3.795  2.9679 -0.2177  0.3245
16621SOL     OW54673   7.569   4.976   4.199  0.3202  0.3006  0.8504
16621SOL    HW154674   7.498   4.922   4.165  0.7535  0.1769  0.1161
16621SOL    HW254675   7.554   4.979   4.293 -0.4671  0.0025  0.7430
16622SOL     OW54676   8.583  11.972   8.971  0.0820 -0.2940  0.5357
16622SOL    HW154677   8.658  12.031   8.959 -0.4996  0.4006  0.1868
16622SOL    HW254678   8.580  11.919   8.892  0.2219 -0.3399  0.5612
16623SOL     OW54679   8.466   1.702   8.555 -0.1288  0.2572 -0.4772
16623SOL    HW154680   8.513   1.631   8.512  1.6802  1.8075 -1.2188
16623SOL    HW254681   8.483   1.779   8.500 -0.1221  1.7203  1.4572
16624SOL     OW54682   1.424   5.378   2.924 -0.1122 -0.1843  0.0367
16624SOL    HW154683   1.345   5.324   2.926 -0.2493 -0.1309 -2.0198
16624SOL    HW254684   1.486   5.332   2.982 -0.4657 -2.1970 -1.0630
16625SOL     OW54685   9.547   4.627   1.096 -0.0287 -0.1591  0.1082
16625SOL    HW154686   9.478   4.617   1.031 -0.8500 -1.6902  1.1676
16625SOL    HW254687   9.503   4.616   1.180  1.7901 -3.5312  0.7667
16626SOL     OW54688   1.174   0.171   2.700  0.1920 -0.2561 -0.5236
16626SOL    HW154689   1.160   0.248   2.644  0.2882 -0.8922 -1.4336
16626SOL    HW254690   1.086   0.143   2.725  0.1509  0.0411 -0.3211
16627SOL     OW54691   7.188  11.778   4.079  0.2329  0.1688  0.4718
16627SOL    HW154692   7.235  11.789   3.996 -1.9903  1.1951 -0.7770
16627SOL    HW254693   7.191  11.684   4.096  0.2059 -0.1703 -1.1556
16628SOL     OW54694   5.083   0.784   2.009  0.1501 -0.0771  0.2350
16628SOL    HW154695   5.139   0.721   1.965 -0.7713  0.6258 -2.0879
16628SOL    HW254696   5.003   0.736   2.029  0.8549 -0.6069  1.9567
16629SOL     OW54697  11.969   5.835   9.956 -0.3189 -0.1871  0.4935
16629SOL    HW154698  12.019   5.914   9.975 -0.4925  1.3595 -4.1833
16629SOL    HW254699  12.036   5.770   9.932 -0.2999 -0.0017  0.0250
16630SOL     OW54700  11.515   4.252  10.954  0.2972 -0.2852  0.0234
16630SOL    HW154701  11.547   4.175  10.907  1.4366 -0.1143  0.4976
16630SOL    HW254702  11.437   4.220  11.000  0.6763 -1.1198  0.1082
16631SOL     OW54703   9.448   0.562  11.701  0.3713  0.5237  0.4838
16631SOL    HW154704   9.511   0.503  11.660 -0.6628 -0.7915  0.7058
16631SOL    HW254705   9.370   0.556  11.645 -0.3973  0.1866  1.5518
16632SOL     OW54706   4.026  10.709   5.059  0.4737  0.2044  0.0161
16632SOL    HW154707   3.962  10.776   5.035 -0.8334 -1.2583 -0.7843
16632SOL    HW254708   4.023  10.706   5.154 -1.0205 -0.1584 -0.0245
16633SOL     OW54709   6.752  10.404   9.629  0.4829 -0.4922  0.1973
16633SOL    HW154710   6.660  10.424   9.642  0.2679 -0.2656 -1.5284
16633SOL    HW254711   6.796  10.489   9.631  0.3409 -0.3678 -1.2345
16634SOL     OW54712   7.602   7.338  12.219 -0.2525  0.1225  0.3004
16634SOL    HW154713   7.614   7.428  12.189  0.7575  0.2191  0.9400
16634SOL    HW254714   7.521   7.341  12.271 -0.5125  0.5389 -0.1228
16635SOL     OW54715   2.457   3.461   3.534  0.0425 -0.3657  0.2652
16635SOL    HW154716   2.544   3.486   3.503 -1.0938  2.6956 -0.7168
16635SOL    HW254717   2.475   3.404   3.609  2.8366 -2.0935 -1.5232
16636SOL     OW54718   4.145   1.223   2.681  0.1616 -0.0708  0.1063
16636SOL    HW154719   4.126   1.316   2.680 -2.8772 -0.5534  1.0487
16636SOL    HW254720   4.203   1.209   2.607 -0.7297  2.3158 -1.1466
16637SOL     OW54721   9.174   2.914   4.297  0.4963  0.3137 -0.0514
16637SOL    HW154722   9.084   2.945   4.307 -0.4603 -2.1621 -0.2508
16637SOL    HW254723   9.180   2.886   4.205  2.5414  3.3071 -0.9967
16638SOL     OW54724   8.026   1.435   0.634 -0.1275  0.0697 -0.4367
16638SOL    HW154725   8.027   1.391   0.550 -0.0666  0.8869 -0.8734
16638SOL    HW254726   8.036   1.365   0.699 -0.8891 -0.6435 -1.0664
16639SOL     OW54727   0.618   8.942  10.802  0.1490 -0.2898  0.1495
16639SOL    HW154728   0.543   8.897  10.841 -0.8949  1.6524  0.4927
16639SOL    HW254729   0.692   8.922  10.860 -1.0386  1.2608  2.2927
16640SOL     OW54730   7.588  10.057   1.164 -0.0850 -0.0676  0.3405
16640SOL    HW154731   7.665  10.042   1.219 -0.1089 -0.3012  0.3140
16640SOL    HW254732   7.548  10.137   1.199  0.0170 -0.0983  0.5293
16641SOL     OW54733   4.162   4.860   1.356  0.0896  0.4851  0.3888
16641SOL    HW154734   4.067   4.866   1.367  0.0261 -0.7025  0.5666
16641SOL    HW254735   4.185   4.935   1.301 -0.9157  0.9177  0.5445
16642SOL     OW54736   5.092  10.579   6.164 -0.3135 -0.5663 -0.1472
16642SOL    HW154737   5.153  10.506   6.180 -1.0512 -0.8969  1.3325
16642SOL    HW254738   5.013  10.554   6.212 -1.4178  0.1293 -1.5656
16643SOL     OW54739  10.565   7.412   7.488 -0.1493 -0.1610 -0.3136
16643SOL    HW154740  10.576   7.442   7.397  1.3624 -0.4325 -0.2324
16643SOL    HW254741  10.470   7.405   7.498 -0.4496  1.8236 -1.2399
16644SOL     OW54742   3.253   8.504  12.046  0.0797 -0.4175  0.2010
16644SOL    HW154743   3.342   8.539  12.054 -0.3281  0.6268  0.2812
16644SOL    HW254744   3.228   8.483  12.136  0.7823 -2.1462  0.0364
16645SOL     OW54745   4.501   0.121   2.982  0.4962 -0.8992  0.1433
16645SOL    HW154746   4.593   0.103   2.960  0.6239 -0.2027  0.0694
16645SOL    HW254747   4.465   0.036   3.008  1.0455 -1.2581 -0.2474
16646SOL     OW54748   9.883   6.906  12.133  0.2738 -0.3747 -0.5315
16646SOL    HW154749   9.975   6.924  12.113 -0.0880  2.2232 -0.1865
16646SOL    HW254750   9.886   6.858  12.216  1.2858  0.5726  0.0041
16647SOL     OW54751   5.880   7.775  11.694 -0.0228  0.3262  0.0433
16647SOL    HW154752   5.847   7.748  11.780 -0.9085  0.6047 -0.1930
16647SOL    HW254753   5.801   7.789  11.641  0.5280 -0.9220 -1.1689
16648SOL     OW54754   5.297  10.383   9.401 -0.6905 -0.6015 -0.3984
16648SOL    HW154755   5.240  10.311   9.375  1.3557 -1.6254 -2.4769
16648SOL    HW254756   5.384  10.343   9.409  0.1061  1.2283  0.6707
16649SOL     OW54757   8.192   4.481   5.888 -0.4741  0.0895  0.1195
16649SOL    HW154758   8.132   4.406   5.893  1.4187 -1.5497 -0.4785
16649SOL    HW254759   8.203   4.496   5.794 -0.1224  0.4907  0.2232
16650SOL     OW54760   6.057   8.796   1.229  0.3254  0.5019 -0.0270
16650SOL    HW154761   5.983   8.750   1.190 -0.0962  1.5905 -0.5696
16650SOL    HW254762   6.125   8.729   1.239 -0.4036 -0.3071 -0.4031
16651SOL     OW54763   0.756   6.103   7.116 -0.3967 -0.8385  0.2325
16651SOL    HW154764   0.765   6.134   7.206 -1.0200  0.6617 -0.1798
16651SOL    HW254765   0.726   6.013   7.124 -1.3299 -0.4363  1.5377
16652SOL     OW54766   6.386   9.435  10.834  0.6436  0.7831 -0.0595
16652SOL    HW154767   6.373   9.487  10.754  0.5340 -0.2190 -0.7107
16652SOL    HW254768   6.299   9.404  10.857  0.8345  0.0844 -0.2454
16653SOL     OW54769   3.880  11.812   1.128  0.2002 -0.3162  0.4644
16653SOL    HW154770   3.837  11.867   1.193 -0.3410  0.7203 -0.7353
16653SOL    HW254771   3.914  11.738   1.178  0.0043  0.5623  1.9553
16654SOL     OW54772   7.607   2.348   6.456 -0.6392 -0.4385 -0.0333
16654SOL    HW154773   7.652   2.409   6.397 -1.0934 -0.3319 -0.2677
16654SOL    HW254774   7.524   2.391   6.476  0.3590  0.5862  2.4225
16655SOL     OW54775  11.319   5.541  10.714  0.1517 -0.3115 -0.1863
16655SOL    HW154776  11.286   5.483  10.783 -1.2269  2.1440  1.3772
16655SOL    HW254777  11.396   5.583  10.752 -1.5686  2.3208  0.7007
16656SOL     OW54778   7.770   9.004   4.246  0.0263  0.3966 -0.1716
16656SOL    HW154779   7.685   8.990   4.288 -0.4982 -0.4661 -1.4508
16656SOL    HW254780   7.758   9.082   4.192 -0.6344 -0.8610 -1.9357
16657SOL     OW54781   8.316  10.112   6.955  0.3566 -0.0903  0.2848
16657SOL    HW154782   8.255  10.080   6.888  1.3955  0.4975 -0.9828
16657SOL    HW254783   8.387  10.048   6.954 -0.5676 -1.2409  2.3496
16658SOL     OW54784   6.382   5.925   8.587  1.0282 -0.4247  0.0659
16658SOL    HW154785   6.446   5.868   8.544  0.7450 -0.7544  0.0722
16658SOL    HW254786   6.328   5.865   8.638  0.6836 -0.1542  0.0195
16659SOL     OW54787   5.014   7.707   5.584  0.4146  0.1952  0.4029
16659SOL    HW154788   4.975   7.687   5.669 -0.4783 -0.6318 -0.1935
16659SOL    HW254789   5.095   7.656   5.583  0.8435  0.8429  1.0784
16660SOL     OW54790  11.284   5.465   1.206 -0.2475 -0.1904 -0.3457
16660SOL    HW154791  11.278   5.451   1.301  0.7260 -1.0654 -0.4023
16660SOL    HW254792  11.284   5.560   1.196  1.1391 -0.0519  0.6564
16661SOL     OW54793   0.323  10.216   5.127 -0.2983 -0.0650  0.1403
16661SOL    HW154794   0.413  10.249   5.136 -0.2338 -0.4684  1.0893
16661SOL    HW254795   0.317  10.145   5.191 -0.7370 -1.2551 -1.1574
16662SOL     OW54796  12.462   3.378   9.472  0.0451 -0.2626  0.2501
16662SOL    HW154797  12.531   3.354   9.535 -0.0601  1.2480  0.9863
16662SOL    HW254798  12.382   3.342   9.510  0.1873 -0.6107  0.2274
16663SOL     OW54799   3.634   1.952   1.971  0.5128  0.3590  0.2121
16663SOL    HW154800   3.601   1.906   2.049  0.8404  1.7231  1.1975
16663SOL    HW254801   3.578   1.921   1.900  0.5016 -1.2915  0.8771
16664SOL     OW54802  11.345  12.637   8.015  0.0394  0.3918  0.6754
16664SOL    HW154803  11.315  12.727   8.007  0.8022  0.7114  1.3224
16664SOL    HW254804  11.267  12.584   8.001 -0.0981  1.0732 -1.6379
16665SOL     OW54805   6.393   5.240   8.925  0.2538  0.1910  0.0887
16665SOL    HW154806   6.387   5.151   8.891 -0.2356  0.3486 -0.2514
16665SOL    HW254807   6.303   5.271   8.928  0.4395  0.7659 -0.0408
16666SOL     OW54808   9.544   3.693   6.398 -0.5018  0.1394  0.4423
16666SOL    HW154809   9.596   3.752   6.452  0.6747  0.3487 -0.8672
16666SOL    HW254810   9.568   3.715   6.308 -1.4059 -1.0989 -0.1343
16667SOL     OW54811   0.861   6.774   5.653  0.0640  0.2054 -0.2513
16667SOL    HW154812   0.838   6.761   5.745  3.7010  0.5258  0.8816
16667SOL    HW254813   0.871   6.868   5.643 -0.6172  0.2035 -1.1173
16668SOL     OW54814   1.924  11.315   3.953 -0.2336 -0.0209  0.2667
16668SOL    HW154815   1.841  11.362   3.958 -0.3675 -0.3119  1.0136
16668SOL    HW254816   1.979  11.356   4.020  0.1875  0.1031 -0.1520
16669SOL     OW54817   7.093   2.906   5.262 -0.5403  0.1470 -0.1381
16669SOL    HW154818   7.041   2.826   5.269 -2.6749  1.4184 -0.5032
16669SOL    HW254819   7.178   2.883   5.300 -0.7556 -2.5325 -1.0850
16670SOL     OW54820  10.741   7.073   5.443  0.2043  0.6407  0.7754
16670SOL    HW154821  10.812   7.137   5.445  1.1006 -0.3462  1.3677
16670SOL    HW254822  10.701   7.078   5.529 -0.1449  0.8602  0.6024
16671SOL     OW54823   7.998  11.249  10.151  0.1924 -0.1721 -0.2552
16671SOL    HW154824   7.969  11.221  10.238  0.4982 -2.1168 -0.7194
16671SOL    HW254825   8.008  11.167  10.102  1.9631  0.7312 -1.5197
16672SOL     OW54826  11.214   1.440   9.543 -0.3151  0.4140  0.3135
16672SOL    HW154827  11.228   1.524   9.587 -0.6503 -0.2951  1.8253
16672SOL    HW254828  11.124   1.416   9.563 -0.6388  0.2536 -1.1614
16673SOL     OW54829   7.171   1.483   3.190  0.1527 -0.8369 -0.1495
16673SOL    HW154830   7.226   1.546   3.236 -0.3467  0.6150 -1.4689
16673SOL    HW254831   7.120   1.441   3.259  1.0967 -0.4115  0.8361
16674SOL     OW54832   8.530   5.177   8.626  0.6153 -0.4690  0.0903
16674SOL    HW154833   8.493   5.265   8.615  2.5173  0.1479 -2.0435
16674SOL    HW254834   8.596   5.188   8.694 -0.3652 -0.7021  1.1145
16675SOL     OW54835   8.770   1.757   3.939  0.2806  0.1274  0.5357
16675SOL    HW154836   8.702   1.690   3.946 -0.0907  0.3320 -0.9089
16675SOL    HW254837   8.832   1.722   3.876 -0.7489  1.7700 -1.5212
16676SOL     OW54838   4.670   7.806   6.876  0.5184  0.0586  0.2921
16676SOL    HW154839   4.697   7.775   6.789 -0.3412 -0.1997  0.1032
16676SOL    HW254840   4.701   7.896   6.880 -1.9495  1.1178 -1.5051
16677SOL     OW54841   8.132   9.135   9.414  0.1108 -0.1711  0.0148
16677SOL    HW154842   8.222   9.165   9.402 -0.1843  1.3967  1.2446
16677SOL    HW254843   8.141   9.048   9.454  1.0996  0.0624  0.3441
16678SOL     OW54844   5.227   1.846   7.758  0.5279  0.0587 -0.2455
16678SOL    HW154845   5.282   1.861   7.835  1.4641 -0.6054 -0.7630
16678SOL    HW254846   5.288   1.838   7.685 -0.3245  0.3597 -1.0154
16679SOL     OW54847   8.333   2.205  10.659  0.0510 -0.5224  0.0631
16679SOL    HW154848   8.360   2.161  10.739 -0.7035 -0.3782  0.4090
16679SOL    HW254849   8.238   2.214  10.668  0.2463  1.7961  0.3291
16680SOL     OW54850   5.762   3.925   5.418  0.6037  0.3339  0.0675
16680SOL    HW154851   5.705   3.986   5.371 -0.0127 -0.7304 -0.6034
16680SOL    HW254852   5.848   3.968   5.419 -0.1075  1.8046  0.7859
16681SOL     OW54853   2.809  10.322   5.686  0.3473  0.3602  0.6103
16681SOL    HW154854   2.805  10.416   5.704 -0.2713  0.2816  0.9162
16681SOL    HW254855   2.741  10.307   5.621  1.2942  0.3227 -0.4054
16682SOL     OW54856   8.482   2.698   4.352 -0.1753 -0.2935  0.3266
16682SOL    HW154857   8.566   2.665   4.382 -0.1232 -1.0259 -0.5641
16682SOL    HW254858   8.420   2.674   4.421  0.4825  1.1732  1.4860
16683SOL     OW54859   2.565   8.872   3.243 -0.6603  1.0053  0.2247
16683SOL    HW154860   2.481   8.898   3.205 -1.1845 -1.1116 -0.1588
16683SOL    HW254861   2.548   8.788   3.286  1.7823 -0.9876 -2.2986
16684SOL     OW54862  10.994   7.566  12.477  0.0592 -0.2090 -0.0171
16684SOL    HW154863  10.992   7.493  12.539 -0.5682  0.4234  0.7262
16684SOL    HW254864  11.087   7.579  12.458  0.1718 -1.2426 -0.2209
16685SOL     OW54865   6.171   4.004  11.756  0.6847 -0.6590 -0.4732
16685SOL    HW154866   6.117   3.933  11.722 -0.2375  1.1851 -3.1716
16685SOL    HW254867   6.112   4.079  11.764  2.0644  0.4239  0.1876
16686SOL     OW54868   9.187   0.260   1.916 -0.2334  0.5724  0.3969
16686SOL    HW154869   9.138   0.207   1.853 -0.7991  0.6408  0.7737
16686SOL    HW254870   9.127   0.273   1.989  0.4735  0.3517  1.0381
16687SOL     OW54871   3.045   5.729   5.150 -0.3298  0.2149  0.4246
16687SOL    HW154872   3.083   5.722   5.238 -0.7805  0.2851  0.6274
16687SOL    HW254873   3.121   5.727   5.091 -0.0010  0.4836  0.8301
16688SOL     OW54874  11.278   8.105   6.100 -0.1482 -0.5408 -0.1368
16688SOL    HW154875  11.356   8.061   6.135 -0.2860 -1.8009 -1.3142
16688SOL    HW254876  11.205   8.049   6.124 -0.3385 -0.9722 -1.6204
16689SOL     OW54877   2.068   6.524   1.539  0.2376  0.4545 -0.1158
16689SOL    HW154878   2.120   6.562   1.468 -1.1414  0.3990 -1.2014
16689SOL    HW254879   2.052   6.597   1.599 -1.6034  1.4345 -1.7113
16690SOL     OW54880   5.016   3.327   9.564 -0.3832  0.1109 -0.3615
16690SOL    HW154881   4.921   3.338   9.569 -0.2244  1.2976  3.5360
16690SOL    HW254882   5.033   3.249   9.617  0.9073  1.4849  1.3717
16691SOL     OW54883  11.741   7.680  10.762 -0.0237  0.0652 -0.1457
16691SOL    HW154884  11.729   7.746  10.831  0.1161 -1.6970  1.6829
16691SOL    HW254885  11.652   7.663  10.731 -0.0690  1.0303 -0.5634
16692SOL     OW54886   6.704   9.305  10.750  0.0855  0.0454 -0.3585
16692SOL    HW154887   6.707   9.387  10.800  0.3436  1.1512 -2.0881
16692SOL    HW254888   6.778   9.254  10.783 -0.1023  0.4804  0.7794
16693SOL     OW54889   3.929  11.524  11.163  0.8907 -0.7096  0.4547
16693SOL    HW154890   3.953  11.431  11.163 -1.0901 -1.3580 -2.1144
16693SOL    HW254891   3.973  11.560  11.087  2.0310  0.6541  1.7046
16694SOL     OW54892   6.993   7.069  10.618 -0.0946  0.5597 -0.0074
16694SOL    HW154893   7.009   6.981  10.585 -0.1278  0.3319  0.5631
16694SOL    HW254894   6.957   7.117  10.544 -0.3446  0.0121 -0.2459
16695SOL     OW54895   5.867   6.023  10.275  0.5147 -0.2296  0.4830
16695SOL    HW154896   5.794   6.067  10.232  0.6881  0.2258  0.6525
16695SOL    HW254897   5.864   5.933  10.241 -1.2714 -0.7666  1.8644
16696SOL     OW54898   4.968   8.386   1.494 -0.5118 -0.0213  0.1918
16696SOL    HW154899   4.904   8.314   1.491  0.9096 -1.3023 -1.0306
16696SOL    HW254900   5.029   8.361   1.563  0.5617 -0.5310 -0.9166
16697SOL     OW54901   6.721   5.841   2.152  0.1934  0.2609 -0.7540
16697SOL    HW154902   6.680   5.919   2.116  0.4209  1.0630  0.6442
16697SOL    HW254903   6.805   5.871   2.187  0.9562 -0.9058 -1.5119
16698SOL     OW54904   5.594   9.675   8.694  0.4171  0.0252 -0.7012
16698SOL    HW154905   5.575   9.750   8.751  4.9566 -0.8229  2.3842
16698SOL    HW254906   5.530   9.609   8.719  0.4205  0.7218  1.3057
16699SOL     OW54907   7.401  10.382   5.572 -0.1573 -0.1543 -0.5186
16699SOL    HW154908   7.374  10.437   5.498 -0.6320 -0.4816 -0.5945
16699SOL    HW254909   7.322  10.334   5.596  0.4166 -1.3705 -0.9396
16700SOL     OW54910   5.539   3.288   6.607 -0.4359 -0.1953 -0.5300
16700SOL    HW154911   5.481   3.224   6.566 -0.5566 -0.3292 -0.1504
16700SOL    HW254912   5.483   3.339   6.666 -0.1723 -0.3376 -0.1491
16701SOL     OW54913   7.176   5.490   3.512  0.2146  0.1433  0.3986
16701SOL    HW154914   7.123   5.565   3.539 -2.3908 -1.1803 -0.6411
16701SOL    HW254915   7.208   5.452   3.594 -0.7251  0.8196  1.1020
16702SOL     OW54916   6.263  12.522   9.710  0.4186  0.4643  0.2041
16702SOL    HW154917   6.305  12.606   9.730  0.7042  0.6404 -1.0737
16702SOL    HW254918   6.229  12.491   9.795  0.3963  1.8112  0.7047
16703SOL     OW54919   8.871   7.192   1.882  0.2509 -0.3411  0.1168
16703SOL    HW154920   8.896   7.160   1.796 -1.4971  0.8369 -0.8931
16703SOL    HW254921   8.897   7.284   1.883 -0.2732 -0.1877  0.6072
16704SOL     OW54922   0.368  11.891   8.337  0.5592 -0.0940 -0.0464
16704SOL    HW154923   0.289  11.844   8.363 -0.8395  1.0216 -2.0156
16704SOL    HW254924   0.372  11.879   8.242  1.3393  1.9781 -0.3133
16705SOL     OW54925   4.593   3.036  10.609 -0.3088 -0.3071  0.2345
16705SOL    HW154926   4.576   3.033  10.703  2.4358 -1.1910  0.8088
16705SOL    HW254927   4.617   2.946  10.586 -2.2111 -0.4028 -1.6455
16706SOL     OW54928   2.316   2.672   5.208  0.6752  0.1748 -0.2822
16706SOL    HW154929   2.250   2.616   5.249  1.6410 -0.7966 -0.0041
16706SOL    HW254930   2.306   2.757   5.250  1.1080 -0.5747  1.4030
16707SOL     OW54931  12.462   8.310   0.636  0.3753  0.2050 -0.7844
16707SOL    HW154932  12.472   8.237   0.575 -1.7023  0.0378 -1.0083
16707SOL    HW254933  12.551   8.342   0.651  1.1294 -1.1048 -2.2339
16708SOL     OW54934   3.937   6.281   0.737  0.2735  0.2668  0.1997
16708SOL    HW154935   3.882   6.239   0.671  0.6423  4.0925 -2.9411
16708SOL    HW254936   4.026   6.250   0.717  0.1376 -0.2517  0.3809
16709SOL     OW54937   3.314   4.019   6.914 -0.1782 -0.2192 -0.7251
16709SOL    HW154938   3.342   4.107   6.938 -0.0222  0.2354 -2.4387
16709SOL    HW254939   3.261   4.031   6.835 -1.3675 -1.5352 -0.1807
16710SOL     OW54940  11.109   9.691   8.781  0.3064  0.1788 -0.5488
16710SOL    HW154941  11.043   9.645   8.729  0.6338 -0.1649 -0.6604
16710SOL    HW254942  11.150   9.623   8.834  1.1678  0.2495 -1.1118
16711SOL     OW54943   4.587   0.044   8.343  0.4426 -0.3762  0.4513
16711SOL    HW154944   4.627   0.114   8.396  2.0478 -0.6917 -0.2956
16711SOL    HW254945   4.643  -0.032   8.358  0.0616 -0.8676 -0.5508
16712SOL     OW54946   7.628   9.520   7.518 -0.1763 -0.0597 -0.8349
16712SOL    HW154947   7.632   9.499   7.611 -0.5089  0.7352 -0.6308
16712SOL    HW254948   7.678   9.601   7.510  0.8462 -0.7395 -1.5534
16713SOL     OW54949  12.154  12.131   8.921  0.2042  0.4970  0.4171
16713SOL    HW154950  12.065  12.096   8.913  0.3073  0.4655 -0.7074
16713SOL    HW254951  12.143  12.226   8.915  0.2148  0.5155  0.6595
16714SOL     OW54952   4.212   1.501   2.145 -0.2883 -0.0625  0.4429
16714SOL    HW154953   4.219   1.591   2.113  0.1557 -0.5777 -1.0008
16714SOL    HW254954   4.136   1.465   2.099  0.0726 -0.6794  0.3113
16715SOL     OW54955  11.165   9.970   9.143 -0.0716  0.5503  0.2921
16715SOL    HW154956  11.082   9.968   9.095  0.2936  0.0527 -0.3379
16715SOL    HW254957  11.140   9.973   9.235 -0.8181 -0.9838  0.1817
16716SOL     OW54958   4.901  11.373   0.595 -0.0913  0.1653  0.3394
16716SOL    HW154959   4.967  11.404   0.657  0.7891 -1.6397  0.3728
16716SOL    HW254960   4.843  11.318   0.646 -0.9833  0.8418  0.0778
16717SOL     OW54961   5.751   0.120   3.374  0.4483  0.4236  0.1776
16717SOL    HW154962   5.658   0.141   3.365  0.3522 -0.1507 -0.2132
16717SOL    HW254963   5.795   0.174   3.308  0.2815 -0.0171 -0.3048
16718SOL     OW54964   9.744  11.768  10.720  0.1592 -0.2581 -0.2887
16718SOL    HW154965   9.677  11.722  10.670  0.1558 -0.1607 -0.3755
16718SOL    HW254966   9.754  11.717  10.800 -0.4332  0.0476 -0.0111
16719SOL     OW54967   2.561  11.733   9.032  0.4189 -0.6479 -0.1864
16719SOL    HW154968   2.489  11.730   9.096  1.3648 -1.1845  0.8842
16719SOL    HW254969   2.640  11.732   9.085  1.2301 -0.4244 -1.3651
16720SOL     OW54970  11.008   5.842   9.829  0.5312  0.1977  0.3773
16720SOL    HW154971  11.078   5.800   9.779 -1.0011 -2.8562  0.5059
16720SOL    HW254972  11.015   5.803   9.917 -1.5632 -0.6220  0.2412
16721SOL     OW54973   5.329  10.704   7.307  0.3926  0.4550  0.6270
16721SOL    HW154974   5.281  10.785   7.291 -0.6814  0.2390  2.5326
16721SOL    HW254975   5.287  10.639   7.251  0.7771  1.0201 -0.3440
16722SOL     OW54976   2.453   4.335   0.167 -0.2737 -0.1113  1.0389
16722SOL    HW154977   2.501   4.412   0.137  3.9640 -2.5143  0.8932
16722SOL    HW254978   2.416   4.297   0.088 -0.4440  0.5525  0.7929
16723SOL     OW54979   8.927  12.122   6.434 -0.3701  0.3119  0.1071
16723SOL    HW154980   8.954  12.174   6.510  1.1141 -0.6455  0.2837
16723SOL    HW254981   8.833  12.110   6.445  0.0866 -1.6027  2.9664
16724SOL     OW54982   5.897   6.274   8.907 -0.4737  0.3181  0.2487
16724SOL    HW154983   5.900   6.347   8.844  1.2669 -0.4376 -0.6009
16724SOL    HW254984   5.841   6.209   8.865  2.5049 -1.1538 -1.7245
16725SOL     OW54985   7.862   5.456   2.802 -0.0995 -0.9312  0.1234
16725SOL    HW154986   7.926   5.415   2.860  0.5769  1.8486  1.4976
16725SOL    HW254987   7.900   5.446   2.715  1.3218 -0.9461  0.7062
16726SOL     OW54988   2.298   5.721   9.566  0.5047  0.0568 -0.2896
16726SOL    HW154989   2.286   5.686   9.654 -0.7098  1.7878  0.2849
16726SOL    HW254990   2.311   5.643   9.511  0.7822 -1.0841  1.3114
16727SOL     OW54991   8.744   8.329   3.934 -0.5159 -0.0967  0.0110
16727SOL    HW154992   8.705   8.270   3.869 -0.9703 -1.1284  1.1859
16727SOL    HW254993   8.735   8.283   4.017  0.3674  1.0463  0.7738
16728SOL     OW54994   5.786  11.391   2.382  0.3563  0.6050  0.0852
16728SOL    HW154995   5.741  11.317   2.340  2.6881 -0.4300 -0.7689
16728SOL    HW254996   5.729  11.466   2.366  0.1330 -0.1213 -3.2754
16729SOL     OW54997   9.379   2.726  10.271  0.1683 -0.3299 -0.0941
16729SOL    HW154998   9.450   2.662  10.275  0.3933 -0.1668 -1.2364
16729SOL    HW254999   9.308   2.680  10.226 -1.4141 -1.3422  3.1066
16730SOL     OW55000   4.482   9.731  12.193  0.4108 -0.3322  0.0206
16730SOL    HW155001   4.565   9.689  12.217  0.7004 -0.0798 -0.5244
16730SOL    HW255002   4.474   9.804  12.254 -0.2965 -1.3976  1.2461
16731SOL     OW55003  10.843   2.853  11.502  0.0609 -0.1154  0.0229
16731SOL    HW155004  10.851   2.767  11.544  0.9848  0.2499  0.6357
16731SOL    HW255005  10.919   2.902  11.533 -1.0367  1.3111  0.5722
16732SOL     OW55006   0.861  10.681   8.917  0.1636 -0.0327 -0.0594
16732SOL    HW155007   0.847  10.776   8.919  0.6734  0.1743 -2.8335
16732SOL    HW255008   0.943  10.669   8.966 -0.8199  0.6689  1.8932
16733SOL     OW55009   2.935   2.546  10.633 -0.0401  0.2703  0.0450
16733SOL    HW155010   2.894   2.632  10.621  0.2012  0.2774 -0.7799
16733SOL    HW255011   2.974   2.550  10.720 -0.5043  0.8000  0.2361
16734SOL     OW55012  11.898   7.605   6.043 -0.1127 -0.5915  0.2299
16734SOL    HW155013  11.964   7.637   6.105 -1.7530  2.0636  0.7502
16734SOL    HW255014  11.948   7.584   5.964  1.6609 -1.3401  1.4877
16735SOL     OW55015  10.339   9.728   1.766 -0.3727 -0.0337 -0.5672
16735SOL    HW155016  10.333   9.824   1.772 -1.4099 -0.0872 -0.5500
16735SOL    HW255017  10.401   9.704   1.835  0.1491  0.6485 -0.7831
16736SOL     OW55018   1.869  12.602   2.161  0.5255 -0.2082  0.1342
16736SOL    HW155019   1.846  12.612   2.253 -1.5229  1.8215 -0.5082
16736SOL    HW255020   1.835  12.516   2.137  1.1242 -0.7812  1.2400
16737SOL     OW55021   3.247   4.850   6.825 -0.1857  0.4086  0.1915
16737SOL    HW155022   3.253   4.930   6.877  2.1852 -0.3861  1.2695
16737SOL    HW255023   3.228   4.880   6.736  2.9255  2.4294  0.0684
16738SOL     OW55024   6.141   0.764   8.205 -0.2231 -0.1553  0.0334
16738SOL    HW155025   6.189   0.789   8.284 -0.6114  2.4380 -0.4366
16738SOL    HW255026   6.062   0.818   8.208 -0.2802 -0.0444 -2.0624
16739SOL     OW55027   9.757   1.757   1.855 -0.1201 -0.2032 -0.1020
16739SOL    HW155028   9.832   1.807   1.821  2.0598 -2.1116  1.5526
16739SOL    HW255029   9.726   1.808   1.930  0.7791 -0.2863  0.3450
16740SOL     OW55030   3.053   5.359   7.511 -0.0689  0.0930 -0.2718
16740SOL    HW155031   2.994   5.434   7.507  0.2274  0.3673  0.3682
16740SOL    HW255032   3.099   5.369   7.595  2.0716  0.7728 -1.4588
16741SOL     OW55033   1.131   0.481   4.224 -0.0987 -0.3466  0.3300
16741SOL    HW155034   1.096   0.408   4.275 -0.9479 -0.2350 -0.0756
16741SOL    HW255035   1.067   0.494   4.154  1.3879 -0.9526 -1.1997
16742SOL     OW55036   5.601   3.875   3.198  0.0924  0.1987  0.3710
16742SOL    HW155037   5.666   3.901   3.131 -0.9998  1.4095 -0.2723
16742SOL    HW255038   5.650   3.876   3.280  1.4667 -1.3015 -0.3812
16743SOL     OW55039   0.450   2.460   4.335 -0.1574  0.7739 -0.1109
16743SOL    HW155040   0.359   2.438   4.313 -0.3310  0.7970  0.5392
16743SOL    HW255041   0.454   2.555   4.327  0.2403  0.6528 -1.6521
16744SOL     OW55042   4.913   8.203  11.433 -0.2588 -0.3051  0.0391
16744SOL    HW155043   4.965   8.145  11.489 -0.4265 -0.6537 -0.1609
16744SOL    HW255044   4.857   8.251  11.495 -0.9758 -1.2242  0.1307
16745SOL     OW55045   6.013   8.252  11.671 -0.0885 -0.1317 -0.2665
16745SOL    HW155046   6.009   8.249  11.576 -1.0059 -1.6289 -0.2107
16745SOL    HW255047   6.016   8.160  11.698  1.1192  0.2845  1.1212
16746SOL     OW55048   5.665   1.373   9.126 -0.1432  0.0975 -0.0936
16746SOL    HW155049   5.744   1.408   9.085  0.5306 -1.0400  0.1838
16746SOL    HW255050   5.652   1.427   9.204  0.7190 -0.0692  0.1823
16747SOL     OW55051  11.443   7.452   0.405  0.0052 -0.2944 -0.6432
16747SOL    HW155052  11.535   7.426   0.395 -0.1113 -0.9148 -0.1849
16747SOL    HW255053  11.403   7.433   0.320  0.3680  0.2671 -0.9401
16748SOL     OW55054   1.752   7.725   9.878  0.4114  0.2506 -0.4337
16748SOL    HW155055   1.815   7.695   9.812  0.2775 -1.0382 -0.0020
16748SOL    HW255056   1.802   7.784   9.934  1.2947 -0.8127 -0.0568
16749SOL     OW55057  11.886   3.113  12.561 -0.6957  0.5789  0.2824
16749SOL    HW155058  11.867   3.207  12.557  0.2444  0.7502 -3.0383
16749SOL    HW255059  11.967   3.108  12.611 -1.6154  1.3054  1.9305
16750SOL     OW55060   7.604   5.957  11.865  0.0759  0.3083  0.7128
16750SOL    HW155061   7.671   5.900  11.828  0.2311  0.7922  0.2368
16750SOL    HW255062   7.563   5.999  11.790  0.4724  1.3836  1.0852
16751SOL     OW55063  12.246  12.268   8.456 -0.0302  0.0183  0.3442
16751SOL    HW155064  12.204  12.248   8.373 -1.8430 -1.5133  1.5644
16751SOL    HW255065  12.278  12.183   8.488 -0.8887  0.2774  1.9883
16752SOL     OW55066  11.631   1.632   8.350 -0.0234 -0.2633 -0.1720
16752SOL    HW155067  11.580   1.670   8.422  1.3400  1.3126  0.0200
16752SOL    HW255068  11.722   1.650   8.373  0.4530  0.5168 -2.3916
16753SOL     OW55069   5.941  10.491   5.623  0.3989  0.0627  0.3702
16753SOL    HW155070   5.968  10.472   5.533  0.4725 -1.7598  0.7313
16753SOL    HW255071   5.877  10.562   5.615  0.6560  0.1482 -1.0797
16754SOL     OW55072   1.506   2.756   1.702 -0.0468 -0.3542  0.4263
16754SOL    HW155073   1.444   2.696   1.744  0.6216 -0.6622  0.9891
16754SOL    HW255074   1.455   2.798   1.632 -1.1719  0.1276  1.4996
16755SOL     OW55075   5.968  10.821   8.111  0.3503  0.0419 -0.2027
16755SOL    HW155076   5.951  10.731   8.138  1.9767 -0.5565 -1.0613
16755SOL    HW255077   6.012  10.813   8.026 -0.4962  1.7003 -0.8453
16756SOL     OW55078   9.482   2.353   2.216  0.0724  0.0400 -0.8420
16756SOL    HW155079   9.524   2.430   2.179 -1.5996  1.6969  0.5275
16756SOL    HW255080   9.393   2.354   2.181  0.0298 -1.3216 -0.8501
16757SOL     OW55081   8.583  10.065  10.288 -0.4524  0.1782  0.5748
16757SOL    HW155082   8.602  10.157  10.305 -0.3414 -0.2395  3.2454
16757SOL    HW255083   8.663  10.019  10.312 -1.1670 -0.7521  1.2735
16758SOL     OW55084   1.634   0.272   9.320 -0.4222 -0.0481  0.1031
16758SOL    HW155085   1.644   0.239   9.409  0.9840 -0.9466 -0.3475
16758SOL    HW255086   1.542   0.298   9.314 -0.3314  0.9716  2.1022
16759SOL     OW55087  12.207   7.756   9.183  0.3345  0.3726  0.6157
16759SOL    HW155088  12.234   7.827   9.125 -2.1454  2.5463  1.9490
16759SOL    HW255089  12.160   7.695   9.126  0.1967  1.1396 -0.1029
16760SOL     OW55090   8.458   4.506   2.915 -0.1459 -0.8378  0.4223
16760SOL    HW155091   8.398   4.499   2.989 -1.0731 -0.9377 -0.3214
16760SOL    HW255092   8.404   4.537   2.842  0.9353  0.1914  0.0137
16761SOL     OW55093  12.487   5.133  11.013  0.0617  0.3935  0.0725
16761SOL    HW155094  12.452   5.053  10.973 -1.9319  0.9730  0.5554
16761SOL    HW255095  12.458   5.203  10.955 -0.0129  0.9511  0.7733
16762SOL     OW55096   0.130   4.824   9.559 -0.3173  0.2555  0.1235
16762SOL    HW155097   0.149   4.861   9.473 -0.7030  1.6656  0.6226
16762SOL    HW255098   0.214   4.793   9.591 -0.2787 -0.9045 -1.0284
16763SOL     OW55099   6.429   3.842   0.542  0.2156  0.0579 -0.4806
16763SOL    HW155100   6.470   3.928   0.543  0.8915 -0.0677 -3.8068
16763SOL    HW255101   6.339   3.859   0.516 -0.3170 -0.1171  1.1543
16764SOL     OW55102  12.385  10.747   9.104  0.2781  0.9024  0.1494
16764SOL    HW155103  12.321  10.783   9.043 -0.7635  0.7336  1.1044
16764SOL    HW255104  12.353  10.774   9.191  0.4990 -0.6818  0.7714
16765SOL     OW55105   1.403   8.154  10.069 -0.3544 -0.5931  0.2483
16765SOL    HW155106   1.316   8.163  10.108 -0.2746 -0.2122  0.3407
16765SOL    HW255107   1.390   8.094   9.996 -1.0824  0.9292 -0.9232
16766SOL     OW55108  10.310   7.873  10.423  0.1380  0.0026 -0.0693
16766SOL    HW155109  10.297   7.954  10.374  0.3322  0.3543  0.4587
16766SOL    HW255110  10.319   7.806  10.355 -0.3072  0.3714 -0.5050
16767SOL     OW55111   6.483   3.230   5.236  0.1353 -0.0442  0.8069
16767SOL    HW155112   6.435   3.282   5.172 -0.6685 -1.4307  0.2475
16767SOL    HW255113   6.575   3.251   5.221 -0.1751  1.2895  0.6836
16768SOL     OW55114   3.810   0.448   7.904 -0.4622  0.5263 -0.5373
16768SOL    HW155115   3.866   0.439   7.827 -0.4524 -2.3943 -0.2896
16768SOL    HW255116   3.731   0.491   7.870 -0.8844 -1.5793 -2.5119
16769SOL     OW55117  10.652   8.055   9.244 -0.2651 -0.0853  0.6762
16769SOL    HW155118  10.736   8.099   9.232 -0.1125 -0.2403  1.1405
16769SOL    HW255119  10.629   8.022   9.157  0.4297 -0.5422  0.6617
16770SOL     OW55120   5.028   1.111   1.046 -0.2147  0.5591  0.0053
16770SOL    HW155121   5.005   1.178   0.982  0.7041  0.2510 -0.6804
16770SOL    HW255122   5.008   1.028   1.003  1.7860  0.2882 -0.5258
16771SOL     OW55123  10.162   8.615  11.137 -0.4908  0.2815  0.3898
16771SOL    HW155124  10.193   8.535  11.095 -1.1512 -0.3115  1.0149
16771SOL    HW255125  10.113   8.585  11.214 -0.5809  1.2888  0.7400
16772SOL     OW55126   6.280   6.359   8.803  0.4737  0.3293 -0.1548
16772SOL    HW155127   6.211   6.418   8.773  2.0199  1.7967 -1.0416
16772SOL    HW255128   6.258   6.274   8.765 -0.9245  0.7041 -0.2441
16773SOL     OW55129   7.011   1.419   7.281  0.1091  0.1202 -0.3775
16773SOL    HW155130   6.965   1.425   7.197  1.4548  0.4253 -1.1222
16773SOL    HW255131   7.064   1.499   7.285  0.7777 -0.3428  0.3192
16774SOL     OW55132  11.716  10.741   9.355  0.2136  0.7083 -0.5815
16774SOL    HW155133  11.663  10.678   9.306  1.4307 -0.9549  0.1660
16774SOL    HW255134  11.682  10.826   9.328 -1.7999 -0.2446 -1.2797
16775SOL     OW55135   6.536   5.267   4.856 -0.5674  0.5275 -0.1892
16775SOL    HW155136   6.480   5.330   4.811 -1.7836 -0.7398 -0.5105
16775SOL    HW255137   6.489   5.247   4.937 -1.1456 -1.3422 -0.9455
16776SOL     OW55138   1.938   1.413   9.573 -0.1640 -0.1061  0.1151
16776SOL    HW155139   1.942   1.478   9.643 -0.7660  1.2233 -1.0485
16776SOL    HW255140   1.902   1.460   9.498 -0.0584 -1.6365 -0.9423
16777SOL     OW55141   8.854  11.487   5.962 -0.1782  0.5309 -0.4129
16777SOL    HW155142   8.817  11.455   5.880 -0.9806  0.6575 -0.1027
16777SOL    HW255143   8.948  11.467   5.955 -0.5347 -1.2913 -0.5055
16778SOL     OW55144  12.533   2.750   3.276 -0.0645  0.4148  0.8837
16778SOL    HW155145  12.462   2.761   3.339 -0.6152 -2.8397  1.0415
16778SOL    HW255146  12.613   2.758   3.329 -0.4360  0.3878  1.4562
16779SOL     OW55147   0.976   3.919  12.456 -0.1099 -0.2601 -0.5600
16779SOL    HW155148   0.935   3.851  12.510 -0.6253  0.0791 -0.5219
16779SOL    HW255149   1.068   3.918  12.482 -0.2794 -0.3755  0.0351
16780SOL     OW55150   4.910   7.144   5.804  0.0724  0.3404 -0.3829
16780SOL    HW155151   4.973   7.072   5.792 -0.0835  0.1634 -0.1433
16780SOL    HW255152   4.946   7.216   5.751  1.6163  0.9541  1.3735
16781SOL     OW55153   5.321   3.321   5.588  0.0850  0.2351 -0.3141
16781SOL    HW155154   5.345   3.314   5.496  0.4656  1.2663 -0.3031
16781SOL    HW255155   5.228   3.299   5.591 -0.4532  2.1904 -1.2539
16782SOL     OW55156   7.173  12.089  10.940  0.4489 -0.3545  0.1668
16782SOL    HW155157   7.153  12.072  10.848  0.7792  0.6024 -0.0948
16782SOL    HW255158   7.159  12.184  10.950  1.6502 -0.2228  0.7735
16783SOL     OW55159  10.922   7.559   4.534  0.6432  0.3333 -0.0613
16783SOL    HW155160  10.926   7.484   4.593  2.7806 -0.7199 -1.4386
16783SOL    HW255161  10.989   7.619   4.567 -1.3863  1.9882  1.3334
16784SOL     OW55162   7.290   4.112  10.107 -0.3749 -0.8099 -0.3826
16784SOL    HW155163   7.241   4.173  10.162  1.8711 -0.2551  1.1218
16784SOL    HW255164   7.263   4.134  10.017 -1.1032  1.0318  0.2463
16785SOL     OW55165   9.341   9.277  10.940 -0.2989 -1.1585 -0.3045
16785SOL    HW155166   9.419   9.332  10.933 -0.7111 -0.6058 -0.6255
16785SOL    HW255167   9.360   9.200  10.886  1.7535 -3.1501  2.8961
16786SOL     OW55168   1.933  11.401   8.928 -0.2762 -0.1729 -0.1714
16786SOL    HW155169   1.970  11.466   8.868  0.7044 -0.3793  0.2025
16786SOL    HW255170   2.008  11.366   8.976 -0.9486 -0.6063  0.5995
16787SOL     OW55171   2.963   1.300  12.407 -0.1598 -0.0498 -0.0666
16787SOL    HW155172   2.918   1.383  12.419 -0.8734 -0.0291 -2.4604
16787SOL    HW255173   3.052   1.324  12.381  0.0587 -0.0642  0.6491
16788SOL     OW55174  12.459   9.317   9.225 -0.3558 -0.1300  0.2264
16788SOL    HW155175  12.372   9.348   9.201  0.0675  0.3241 -0.7504
16788SOL    HW255176  12.442   9.239   9.279 -1.3574 -0.0975 -0.0148
16789SOL     OW55177   1.923   5.264   7.379 -0.0368  0.6534 -0.1580
16789SOL    HW155178   2.018   5.269   7.373  0.0465  2.6376  1.6871
16789SOL    HW255179   1.905   5.175   7.408  1.2538  0.2532 -0.5431
16790SOL     OW55180   0.835   4.235  12.436  0.2029  0.3626  0.3143
16790SOL    HW155181   0.778   4.239  12.360  0.2324 -2.3263  0.0470
16790SOL    HW255182   0.808   4.309  12.490 -0.2731  1.9540 -1.9460
16791SOL     OW55183   3.340  10.364   7.463 -0.5610  0.1595 -0.2134
16791SOL    HW155184   3.395  10.336   7.389  2.0536 -0.5292  1.8013
16791SOL    HW255185   3.345  10.291   7.525 -0.4549  1.7315  1.7358
16792SOL     OW55186   0.244   0.138   3.178  0.4305  0.0982  0.2575
16792SOL    HW155187   0.289   0.056   3.197 -0.7045 -1.1294 -1.8988
16792SOL    HW255188   0.287   0.171   3.100  0.3250  1.1451  0.6334
16793SOL     OW55189   3.305   3.587   3.754 -0.3061  0.1027  0.7427
16793SOL    HW155190   3.272   3.551   3.837  0.2345  0.7993  1.2703
16793SOL    HW255191   3.284   3.520   3.689  1.5269 -1.6636  1.8490
16794SOL     OW55192  10.788  11.422   8.479  0.1449  0.1269 -0.3781
16794SOL    HW155193  10.769  11.484   8.408 -0.1984 -1.2347 -1.5145
16794SOL    HW255194  10.769  11.472   8.559 -2.7535  0.7137 -1.2839
16795SOL     OW55195   1.059  12.155   0.885 -0.4150  0.0559  0.3665
16795SOL    HW155196   1.049  12.127   0.976  1.5919 -1.8811  0.0659
16795SOL    HW255197   1.068  12.250   0.890  0.4449 -0.0854  2.3032
16796SOL     OW55198   9.614   4.955   5.380 -0.2491 -0.0370  0.0991
16796SOL    HW155199   9.670   4.962   5.303  1.1773  0.3340  1.1242
16796SOL    HW255200   9.574   4.869   5.373  0.7368 -0.4704 -0.4963
16797SOL     OW55201   4.448   5.226  11.784  0.0259  0.1941  0.7838
16797SOL    HW155202   4.389   5.193  11.852 -0.9256  2.0931  0.9614
16797SOL    HW255203   4.398   5.220  11.703  0.5980 -0.6478  0.4792
16798SOL     OW55204   0.634  11.648   2.891  0.2471  0.5173 -0.2754
16798SOL    HW155205   0.559  11.654   2.832 -0.8660 -0.7612  0.9437
16798SOL    HW255206   0.696  11.592   2.845 -0.5123 -0.2897 -0.3332
16799SOL     OW55207  10.156  10.827   8.295 -0.2445 -0.3101  0.0775
16799SOL    HW155208  10.189  10.852   8.381  1.0913  0.3718 -0.5888
16799SOL    HW255209  10.206  10.882   8.234 -2.4402  0.5327 -1.0497
16800SOL     OW55210   4.386  12.532   7.302 -0.4964 -0.0452  0.0898
16800SOL    HW155211   4.465  12.509   7.351  1.1383  1.3909 -1.6813
16800SOL    HW255212   4.414  12.529   7.210 -2.3591  1.0454 -0.5635
16801SOL     OW55213   0.848  12.143   4.989 -0.0428  0.5636 -0.3392
16801SOL    HW155214   0.897  12.172   4.912 -0.7492  0.1177 -0.9632
16801SOL    HW255215   0.847  12.219   5.046  0.5904  0.8641 -0.7139
16802SOL     OW55216  11.335   3.351   9.138  0.4660  0.7593  0.0365
16802SOL    HW155217  11.336   3.433   9.187 -0.4340 -0.0394  1.4495
16802SOL    HW255218  11.358   3.377   9.048  1.4771  2.3503  0.7111
16803SOL     OW55219   5.188   5.168   4.733  0.1505  0.3646 -0.2759
16803SOL    HW155220   5.220   5.132   4.816  0.4717 -0.3675 -0.7163
16803SOL    HW255221   5.199   5.097   4.670 -0.4677  0.7854 -0.8639
16804SOL     OW55222  12.387  12.489   6.415  0.1960  0.2861 -0.2854
16804SOL    HW155223  12.446  12.433   6.466  0.9238  0.6525 -0.7243
16804SOL    HW255224  12.302  12.480   6.460  0.9697  1.1981  1.4861
16805SOL     OW55225   2.443   2.671  11.241 -0.3690 -0.2385 -0.1386
16805SOL    HW155226   2.369   2.699  11.295  1.3671  0.3000  2.1171
16805SOL    HW255227   2.441   2.576  11.244 -0.0626 -0.2180  1.2887
16806SOL     OW55228  11.667   7.464   6.161  0.0581  0.5212 -0.4168
16806SOL    HW155229  11.642   7.541   6.212  0.7138  0.2029  0.4067
16806SOL    HW255230  11.736   7.495   6.103  1.1463  0.3151  0.7281
16807SOL     OW55231  11.872  10.155   4.762  0.0892  0.2669 -0.0622
16807SOL    HW155232  11.929  10.200   4.700 -0.2265 -3.4880 -3.4314
16807SOL    HW255233  11.789  10.204   4.759  0.6587  1.1978 -1.1980
16808SOL     OW55234   6.730  10.501   5.208 -0.8047  0.0392  1.2192
16808SOL    HW155235   6.787  10.484   5.133 -1.9812  2.0241 -0.2352
16808SOL    HW255236   6.784  10.549   5.270  0.2549 -1.8395  1.8227
16809SOL     OW55237   3.592   3.831   6.210 -0.2200 -0.5502  0.2832
16809SOL    HW155238   3.667   3.776   6.231 -0.4628 -0.9858 -0.0027
16809SOL    HW255239   3.516   3.782   6.241 -0.5100 -0.7840 -0.7840
16810SOL     OW55240   7.188  11.581   7.928  0.1252 -0.2629  0.7086
16810SOL    HW155241   7.258  11.590   7.863 -0.1466  1.2437  0.5900
16810SOL    HW255242   7.107  11.576   7.876 -0.0438  0.3465  0.9133
16811SOL     OW55243   9.653   5.464   2.800 -0.4130 -0.4541 -0.8182
16811SOL    HW155244   9.746   5.444   2.793  0.1858  1.8344 -0.4973
16811SOL    HW255245   9.615   5.390   2.847  1.0056 -1.9519 -1.9152
16812SOL     OW55246   6.951   2.679   5.256 -0.4123  0.5378 -0.2517
16812SOL    HW155247   6.887   2.639   5.196 -0.0279 -0.2581 -0.1425
16812SOL    HW255248   6.980   2.607   5.311  0.2441  0.9913  0.0047
16813SOL     OW55249   7.115  10.256   5.570 -0.3452 -0.0291  0.2509
16813SOL    HW155250   7.082  10.175   5.608  1.4678 -1.3638 -0.8245
16813SOL    HW255251   7.039  10.313   5.563 -1.7302 -1.7441  0.7791
16814SOL     OW55252   0.364   0.867   5.455  0.1443  0.2967 -0.6916
16814SOL    HW155253   0.430   0.884   5.522 -0.6220  2.0545 -0.3188
16814SOL    HW255254   0.327   0.782   5.479  2.3884 -0.8636 -1.0716
16815SOL     OW55255   9.516   0.705   9.720 -0.2869 -0.1571 -0.3681
16815SOL    HW155256   9.596   0.753   9.742  0.8519 -2.6404  1.3074
16815SOL    HW255257   9.502   0.725   9.627  1.9457  0.7992 -0.5651
16816SOL     OW55258   3.170  10.622   0.617  0.4558  0.4588  0.6105
16816SOL    HW155259   3.196  10.624   0.525 -0.5554  0.6995  0.3204
16816SOL    HW255260   3.075  10.614   0.615  0.5011 -0.4932  1.6472
16817SOL     OW55261  12.480   3.308   5.127 -0.4828 -0.1005 -0.5132
16817SOL    HW155262  12.458   3.328   5.036 -0.3466 -0.8618 -0.7214
16817SOL    HW255263  12.400   3.267   5.162 -0.0152 -1.2492 -0.7558
16818SOL     OW55264  12.413   7.268   9.675 -0.0161 -0.2691 -0.2333
16818SOL    HW155265  12.387   7.359   9.683  0.3713 -0.1136 -0.6976
16818SOL    HW255266  12.346   7.219   9.723  0.3741  0.3400  0.9533
16819SOL     OW55267   3.242   3.984   8.376 -0.1134  0.7904  0.1476
16819SOL    HW155268   3.317   3.959   8.430  0.1736  1.6183  0.1414
16819SOL    HW255269   3.166   3.951   8.424  0.2868 -1.0556 -0.3972
16820SOL     OW55270   7.813   3.360   6.694  0.0676  0.3257  0.5063
16820SOL    HW155271   7.826   3.353   6.789  1.9670 -0.0891  0.2690
16820SOL    HW255272   7.890   3.317   6.657 -0.0968  1.4302 -1.2182
16821SOL     OW55273   9.454   2.187   0.627 -0.0984  0.2587  0.0076
16821SOL    HW155274   9.393   2.124   0.666  2.6810 -3.5737 -1.2601
16821SOL    HW255275   9.489   2.236   0.702 -0.7407 -1.2404  1.3453
16822SOL     OW55276   0.496   0.395   8.064  0.5650  0.1887 -0.2277
16822SOL    HW155277   0.509   0.490   8.054  0.3519  0.0796 -1.6883
16822SOL    HW255278   0.431   0.387   8.134  1.6750  1.0444  0.9719
16823SOL     OW55279   7.309  10.293   3.638  0.8122 -0.0588  0.1416
16823SOL    HW155280   7.275  10.361   3.580 -0.5027 -0.1111  0.8135
16823SOL    HW255281   7.260  10.214   3.615  0.4594 -0.1453  1.1371
16824SOL     OW55282   7.314  12.442   5.721  0.3216 -0.3483 -0.0889
16824SOL    HW155283   7.397  12.403   5.750  1.2936  2.2441  0.9296
16824SOL    HW255284   7.337  12.531   5.696 -1.9775  0.0479 -1.0483
16825SOL     OW55285   0.364  10.107   3.738 -0.1330  0.5007 -0.1611
16825SOL    HW155286   0.368  10.081   3.830 -0.4605  1.9183  0.2939
16825SOL    HW255287   0.283  10.069   3.706 -0.5286  0.8145  0.4372
16826SOL     OW55288  11.687  11.760   7.133  0.4522 -0.1433 -0.3234
16826SOL    HW155289  11.636  11.707   7.194 -1.5401  2.1257  0.1026
16826SOL    HW255290  11.770  11.776   7.179 -0.8072  1.1010  1.6431
16827SOL     OW55291   2.392   4.514   5.527  0.0540  0.2800  0.5530
16827SOL    HW155292   2.446   4.590   5.503 -0.4101  0.5860  0.4689
16827SOL    HW255293   2.303   4.540   5.503 -0.1570 -0.1448  0.8808
16828SOL     OW55294   5.906   7.181  12.143  0.2539  0.4542  0.4265
16828SOL    HW155295   5.978   7.224  12.189  0.3882  0.0433  0.6121
16828SOL    HW255296   5.948   7.107  12.098 -0.1102 -0.0181  0.8493
16829SOL     OW55297  12.502   6.070   7.470 -0.3973 -0.2829  0.2123
16829SOL    HW155298  12.510   6.045   7.378 -0.4297  0.3594  0.0317
16829SOL    HW255299  12.585   6.113   7.490  0.1342 -1.5401  0.8500
16830SOL     OW55300   8.934   5.690   2.721 -0.1033  0.0612 -0.0459
16830SOL    HW155301   8.932   5.758   2.789 -0.3222 -0.6440  0.6577
16830SOL    HW255302   8.842   5.671   2.703 -0.0354 -0.4821  0.1895
16831SOL     OW55303   8.354   0.723   4.521 -0.0189  0.5662  0.4316
16831SOL    HW155304   8.389   0.808   4.551 -1.2263  1.3229 -0.2504
16831SOL    HW255305   8.295   0.745   4.449  1.0199 -1.0239 -0.9733
16832SOL     OW55306   1.005   0.163  11.336  0.2716 -0.3836  0.4968
16832SOL    HW155307   0.968   0.199  11.416  1.5361  0.5571  0.6981
16832SOL    HW255308   0.934   0.165  11.273  0.0499  1.6694  0.7664
16833SOL     OW55309   4.628   4.401   1.505  0.7797  0.0236  0.0149
16833SOL    HW155310   4.609   4.334   1.439  0.2959  0.2537 -0.0853
16833SOL    HW255311   4.680   4.355   1.571  0.5377 -0.4279 -0.1001
16834SOL     OW55312  10.551   2.745   2.285 -0.6989  0.2160  0.3380
16834SOL    HW155313  10.536   2.792   2.203 -2.2712  0.3885  0.7004
16834SOL    HW255314  10.646   2.750   2.298 -0.6361  1.8639 -0.4629
16835SOL     OW55315   6.113   2.458   6.587 -0.2100 -0.0293 -0.5791
16835SOL    HW155316   6.179   2.438   6.520  0.0388 -0.4690 -0.2076
16835SOL    HW255317   6.064   2.531   6.550  0.3760  0.1939 -0.9376
16836SOL     OW55318   6.935   7.394   9.337  0.0063 -0.2700  0.3301
16836SOL    HW155319   6.843   7.386   9.362 -0.2235  0.9548 -0.0794
16836SOL    HW255320   6.946   7.332   9.265 -0.7766  0.3427 -0.3298
16837SOL     OW55321   7.215   4.944   9.917 -0.1215  0.4403  0.1363
16837SOL    HW155322   7.173   4.865   9.951  0.0287  0.5358  0.5551
16837SOL    HW255323   7.144   4.991   9.873  0.0394 -0.4846 -1.1634
16838SOL     OW55324  10.103   5.712   6.854 -0.2090 -0.4294  0.1566
16838SOL    HW155325  10.020   5.685   6.893 -0.3616 -0.4558 -0.1776
16838SOL    HW255326  10.166   5.708   6.925 -1.1995  3.2145  1.4694
16839SOL     OW55327   1.479   5.355   7.884  0.4048 -0.5070  0.3897
16839SOL    HW155328   1.492   5.450   7.890 -2.2275  0.1035 -1.7914
16839SOL    HW255329   1.460   5.328   7.973  2.8294  0.6477  1.3639
16840SOL     OW55330  12.051   1.465  12.073  0.2984 -0.5370  0.4828
16840SOL    HW155331  12.049   1.530  12.002 -1.5594 -0.1776  0.7979
16840SOL    HW255332  12.117   1.401  12.046  0.7011  0.3908 -0.8309
16841SOL     OW55333   3.287   3.456   8.225 -0.1259  0.0484  0.2264
16841SOL    HW155334   3.209   3.410   8.255 -1.8474  1.7967 -1.2594
16841SOL    HW255335   3.275   3.464   8.130  2.2866 -0.3391 -0.1734
16842SOL     OW55336  10.032   2.513  10.984  0.2684  0.2358 -0.3017
16842SOL    HW155337  10.043   2.510  11.079 -0.6868 -1.0454 -0.2140
16842SOL    HW255338  10.120   2.530  10.950  0.6271  0.6457  0.7923
16843SOL     OW55339  11.973  12.285  12.188 -0.5751  0.3395  0.2879
16843SOL    HW155340  12.014  12.230  12.254 -0.1139 -1.2590 -1.2515
16843SOL    HW255341  12.028  12.363  12.183 -0.4063  0.3072  1.4918
16844SOL     OW55342  11.692   8.107  12.380 -0.7415  0.1882  0.2883
16844SOL    HW155343  11.617   8.049  12.370 -0.2530 -0.1463 -2.2074
16844SOL    HW255344  11.689   8.163  12.302  0.2672  1.7866  1.3352
16845SOL     OW55345   7.289   9.360   8.466  0.2749  0.3775  0.3366
16845SOL    HW155346   7.342   9.282   8.481  0.9236  1.1291  2.1686
16845SOL    HW255347   7.325   9.426   8.525 -0.7340  1.8565 -0.6247
16846SOL     OW55348   1.487   3.892   1.950  0.3026  0.0665 -0.1766
16846SOL    HW155349   1.410   3.917   1.900 -0.7868 -2.4132  0.1305
16846SOL    HW255350   1.547   3.856   1.885 -0.0829 -0.8228 -0.0568
16847SOL     OW55351   9.796   5.970   8.450 -0.6196  0.1712  0.4402
16847SOL    HW155352   9.710   5.938   8.422  0.1788 -0.7712 -1.0964
16847SOL    HW255353   9.799   6.061   8.421 -0.0672 -0.5920 -2.1986
16848SOL     OW55354   3.280  12.267   6.039  0.0816  0.0287 -0.3305
16848SOL    HW155355   3.375  12.274   6.031  0.2816 -0.1011  1.4937
16848SOL    HW255356   3.250  12.357   6.046  0.0456  0.0695 -0.9035
16849SOL     OW55357   6.117   0.551   6.788 -0.5248 -0.2114 -0.3520
16849SOL    HW155358   6.082   0.587   6.870 -0.7226 -1.2358  0.0353
16849SOL    HW255359   6.047   0.493   6.756  0.6437 -2.0652  0.2710
16850SOL     OW55360   0.942   9.886   7.229  0.4418 -0.1050 -0.0293
16850SOL    HW155361   0.954   9.908   7.137  1.5812  0.1126  0.1630
16850SOL    HW255362   1.011   9.823   7.249  0.1750 -0.1936  0.6655
16851SOL     OW55363   9.783  11.244   2.772  0.1981  0.2478  0.0459
16851SOL    HW155364   9.717  11.198   2.824 -0.4176 -1.6488 -2.2541
16851SOL    HW255365   9.866  11.205   2.799  0.0315  0.2187  0.5248
16852SOL     OW55366  10.502  10.377   1.404  0.3618  0.1409 -0.4571
16852SOL    HW155367  10.528  10.458   1.359 -2.7151  1.9616  0.7548
16852SOL    HW255368  10.547  10.382   1.488 -0.2277  0.9224 -0.1717
16853SOL     OW55369   6.842   3.252   1.583  0.0744 -0.4863 -0.5929
16853SOL    HW155370   6.905   3.186   1.611 -0.2096 -0.7129 -0.4792
16853SOL    HW255371   6.794   3.210   1.511  0.3670 -0.1444 -0.9898
16854SOL     OW55372   2.850   7.780   2.207 -0.0430 -0.1221 -0.3417
16854SOL    HW155373   2.789   7.809   2.140  0.8040  0.0905 -1.0331
16854SOL    HW255374   2.926   7.837   2.197  0.4779 -0.7125  0.1691
16855SOL     OW55375   4.973  10.946  10.825 -0.2244 -0.1629  0.2191
16855SOL    HW155376   4.946  10.872  10.880  2.0730 -1.3954 -0.1849
16855SOL    HW255377   4.935  11.023  10.867 -1.4726 -1.4254  1.4877
16856SOL     OW55378   8.104   1.442   9.945 -0.1907 -0.3459 -0.4117
16856SOL    HW155379   8.069   1.427  10.033 -1.0969  1.2676 -0.4513
16856SOL    HW255380   8.181   1.497   9.959 -0.8355  0.6556 -0.6408
16857SOL     OW55381   3.833  11.999   6.791 -0.1773 -0.1647 -0.3075
16857SOL    HW155382   3.906  12.034   6.742  0.1339  1.3018  1.1145
16857SOL    HW255383   3.755  12.036   6.750 -0.1633 -1.5712 -1.6968
16858SOL     OW55384  11.076  10.317   4.263  0.2490 -0.1629  0.1114
16858SOL    HW155385  11.125  10.239   4.288  0.9037  0.1408 -0.1997
16858SOL    HW255386  11.143  10.379   4.234 -0.2689  0.4901  0.2931
16859SOL     OW55387  11.027   5.444   8.666 -0.5703 -0.4528 -0.2877
16859SOL    HW155388  11.068   5.437   8.752 -1.2285 -0.6034  0.0159
16859SOL    HW255389  11.099   5.466   8.607 -0.1191 -0.3315  0.3034
16860SOL     OW55390  11.680   8.664   3.225 -0.3838  0.6453 -0.2018
16860SOL    HW155391  11.685   8.630   3.136 -2.2409  0.0757 -0.1279
16860SOL    HW255392  11.602   8.720   3.225 -1.1794 -0.3906  1.3786
16861SOL     OW55393   9.691   9.219   3.773  0.1689 -0.3822 -0.0732
16861SOL    HW155394   9.780   9.222   3.738 -0.6336  3.3390 -2.2814
16861SOL    HW255395   9.698   9.264   3.858  1.0359 -4.3131  2.2193
16862SOL     OW55396   1.842   6.129   5.239  0.0015  0.6443 -0.0909
16862SOL    HW155397   1.851   6.139   5.334 -1.2502 -0.6139  0.1887
16862SOL    HW255398   1.932   6.133   5.206  0.4719  0.9322  1.1527
16863SOL     OW55399   2.471   4.874   8.342 -0.2821  0.4921  0.2947
16863SOL    HW155400   2.482   4.823   8.262 -1.2316  1.3972 -0.4307
16863SOL    HW255401   2.483   4.810   8.413  0.7179 -0.2849 -0.5449
16864SOL     OW55402  11.160   0.305   1.221 -0.0097  0.0525 -0.1324
16864SOL    HW155403  11.095   0.296   1.290 -1.3177  1.1345 -1.1845
16864SOL    HW255404  11.164   0.399   1.203 -0.4791 -0.2724 -2.2111
16865SOL     OW55405   1.029   4.465   5.129  0.5285 -0.3894 -0.1092
16865SOL    HW155406   0.987   4.473   5.215  0.6324 -2.1223  0.1227
16865SOL    HW255407   1.073   4.550   5.117  2.9529 -1.0406  2.8679
16866SOL     OW55408   6.473   6.890   5.083 -0.0662  0.4779 -0.2237
16866SOL    HW155409   6.506   6.829   5.148  0.5460 -0.1687 -1.1166
16866SOL    HW255410   6.404   6.938   5.128 -1.4344 -1.7177  0.1695
16867SOL     OW55411   2.895   7.973   8.617 -0.4172  0.1241 -0.1556
16867SOL    HW155412   2.812   7.928   8.633 -0.8084  0.8921  0.0559
16867SOL    HW255413   2.870   8.065   8.605  0.2295  0.0978 -1.8732
16868SOL     OW55414   2.427   8.832  11.614 -0.1633 -0.2282 -0.0702
16868SOL    HW155415   2.426   8.852  11.521 -1.3625  1.3889  0.2335
16868SOL    HW255416   2.357   8.767  11.625 -1.0605  0.7022 -0.1158
16869SOL     OW55417   5.073   9.914   4.524 -0.2877  0.9825 -0.1121
16869SOL    HW155418   4.991   9.872   4.549  0.0690  0.2367 -0.1670
16869SOL    HW255419   5.082   9.895   4.431  0.1195  0.7619 -0.0279
16870SOL     OW55420  11.017   4.897   7.779  0.4419  0.8147 -0.4535
16870SOL    HW155421  10.929   4.935   7.785  0.4844  1.2274 -2.0745
16870SOL    HW255422  11.042   4.882   7.870 -1.7831 -0.4339  0.0244
16871SOL     OW55423   7.425   3.434   4.111  0.0568  0.0985 -0.6030
16871SOL    HW155424   7.476   3.499   4.062 -1.9903 -0.4630 -3.8228
16871SOL    HW255425   7.422   3.358   4.052 -0.0192 -1.8868  1.8084
16872SOL     OW55426   7.337   4.939  11.757 -0.3099 -0.3401  0.3190
16872SOL    HW155427   7.263   4.976  11.708  0.3531  1.3100  0.4814
16872SOL    HW255428   7.335   4.986  11.841  1.9414  1.0744 -0.3423
16873SOL     OW55429  10.923  11.587   1.327 -0.5201 -0.6019 -0.6236
16873SOL    HW155430  11.011  11.583   1.366 -0.7701  0.6204  0.1061
16873SOL    HW255431  10.868  11.537   1.387 -0.7257  0.4899  0.1237
16874SOL     OW55432   4.677   7.383  10.470  0.0515  0.2407 -0.6195
16874SOL    HW155433   4.671   7.443  10.395  1.0405  0.5234 -0.4823
16874SOL    HW255434   4.771   7.373  10.486 -0.1465  0.3770  0.7391
16875SOL     OW55435   0.727   3.369  10.726 -0.3320  0.3906 -0.3518
16875SOL    HW155436   0.739   3.278  10.698  0.1375 -0.2835  1.8029
16875SOL    HW255437   0.654   3.401  10.674 -0.3430 -1.1400 -1.3359
16876SOL     OW55438   8.103   1.005   6.379  0.4845  0.0585 -0.6278
16876SOL    HW155439   8.032   0.975   6.435  0.6635 -2.2997 -1.5259
16876SOL    HW255440   8.065   1.008   6.291  1.7510 -2.8795 -1.4192
16877SOL     OW55441   3.690   6.329   7.596  0.4253 -0.3502  0.2239
16877SOL    HW155442   3.624   6.279   7.645 -0.2238 -1.1981 -1.4338
16877SOL    HW255443   3.640   6.375   7.528  1.4439 -0.4067 -0.5875
16878SOL     OW55444   8.508   8.735   8.149 -0.0540 -0.6240  0.2306
16878SOL    HW155445   8.460   8.814   8.124 -0.0038 -1.0115 -1.2079
16878SOL    HW255446   8.557   8.759   8.228 -0.0594  0.7720 -0.1755
16879SOL     OW55447   0.013   8.862  10.312 -0.1735 -0.1620 -0.9028
16879SOL    HW155448  -0.026   8.844  10.397  3.3922  0.4560  1.0455
16879SOL    HW255449   0.017   8.958  10.307 -1.2863 -0.1476 -2.3255
16880SOL     OW55450   9.532   6.789   4.728  0.1135  0.5198 -0.2087
16880SOL    HW155451   9.569   6.713   4.773 -1.5986  0.5727  1.4114
16880SOL    HW255452   9.560   6.779   4.637  2.2987 -0.5029  0.5045
16881SOL     OW55453   8.582   4.596   9.703 -0.5751 -0.2981 -0.5612
16881SOL    HW155454   8.499   4.641   9.690 -0.4510 -0.3448 -1.5431
16881SOL    HW255455   8.647   4.651   9.660 -0.4147 -1.3719 -1.7709
16882SOL     OW55456   4.195   5.880  10.651 -0.2376 -0.0198 -0.3126
16882SOL    HW155457   4.102   5.860  10.661 -0.0107 -1.1600 -0.3967
16882SOL    HW255458   4.227   5.893  10.740 -0.3840 -0.0111 -0.2606
16883SOL     OW55459   6.371  10.760   1.036 -0.4713  0.1071  0.4072
16883SOL    HW155460   6.278  10.745   1.054 -0.2921 -0.4512  0.9000
16883SOL    HW255461   6.375  10.780   0.943 -1.0368 -0.2581  0.3027
16884SOL     OW55462   9.976   4.583   8.479 -0.3116 -0.3814 -0.3629
16884SOL    HW155463  10.071   4.587   8.472 -0.1670  0.8993  1.7471
16884SOL    HW255464   9.946   4.577   8.388  1.7787 -1.5445 -1.0373
16885SOL     OW55465   5.098  10.209   7.469  0.1581  0.1270 -0.2035
16885SOL    HW155466   5.024  10.270   7.462  0.5495  0.8652  1.6408
16885SOL    HW255467   5.173  10.257   7.436  0.0087 -0.2950 -1.1920
16886SOL     OW55468  10.639   2.885  10.142 -0.1035 -0.4319 -0.5959
16886SOL    HW155469  10.588   2.901  10.221 -0.0832  2.0265 -1.0161
16886SOL    HW255470  10.712   2.830  10.172  0.8189  1.7745  1.4921
16887SOL     OW55471   5.827   7.986   0.410 -0.1443 -0.2759  0.5824
16887SOL    HW155472   5.757   7.940   0.458 -1.4729  0.3882 -0.6290
16887SOL    HW255473   5.832   7.940   0.326 -0.5092  0.8939 -0.0989
16888SOL     OW55474   2.798  11.166   4.080 -0.5991  0.0832 -0.1622
16888SOL    HW155475   2.863  11.109   4.039 -1.9425 -1.7743  0.1746
16888SOL    HW255476   2.829  11.177   4.170  0.0768  0.5574 -0.4451
16889SOL     OW55477  12.196   0.033   4.002 -0.6313  0.2772  0.0804
16889SOL    HW155478  12.140  -0.008   3.936 -2.3276  2.8845 -0.2223
16889SOL    HW255479  12.285   0.012   3.974 -1.3421  0.0132 -2.1848
16890SOL     OW55480   0.525   1.269   6.017 -0.3502  0.0062 -0.3083
16890SOL    HW155481   0.456   1.261   5.951 -0.9543  0.0344  0.3029
16890SOL    HW255482   0.566   1.182   6.020 -0.6358 -0.1319 -0.3892
16891SOL     OW55483   1.497   4.921   1.762  0.3331 -0.1329 -0.2472
16891SOL    HW155484   1.421   4.966   1.725  0.2878  0.9333  1.0591
16891SOL    HW255485   1.478   4.914   1.855  0.9688 -1.6592 -0.1992
16892SOL     OW55486   6.142   2.539   8.040 -0.1723 -0.0201 -0.2946
16892SOL    HW155487   6.089   2.482   7.984 -1.0763  0.6973 -0.1920
16892SOL    HW255488   6.225   2.493   8.049 -0.9659 -1.4390 -0.0009
16893SOL     OW55489   1.343   6.888   7.758  0.1041 -0.2160  0.1283
16893SOL    HW155490   1.330   6.894   7.664 -1.1449 -0.2867  0.2798
16893SOL    HW255491   1.255   6.892   7.795  0.6939  3.0813  1.5168
16894SOL     OW55492   8.570   0.473  12.224  0.1552 -0.3965  0.0620
16894SOL    HW155493   8.584   0.552  12.276  0.3031  0.2228 -0.9091
16894SOL    HW255494   8.658   0.437  12.212  0.3510  0.5188 -1.3906
16895SOL     OW55495   3.226   3.230   0.808 -0.2514 -1.0963  0.2841
16895SOL    HW155496   3.264   3.318   0.801 -1.6023 -0.5307 -0.4702
16895SOL    HW255497   3.132   3.246   0.815 -0.3648 -2.4223  2.5807
16896SOL     OW55498   2.402   3.186   1.262 -0.1838 -0.0313 -0.0451
16896SOL    HW155499   2.355   3.118   1.311 -0.4151 -0.1276 -0.3986
16896SOL    HW255500   2.403   3.261   1.321 -1.5784  0.2681 -0.3806
16897SOL     OW55501   6.316   0.663  10.728 -0.5682  0.0591 -0.4805
16897SOL    HW155502   6.277   0.699  10.649 -0.9076 -0.8694 -0.7531
16897SOL    HW255503   6.401   0.628  10.699 -0.1220  0.8585 -0.1659
16898SOL     OW55504   5.771   2.101  10.293 -0.0762  0.4338  0.4618
16898SOL    HW155505   5.812   2.162  10.355  0.4192  1.2617 -0.6591
16898SOL    HW255506   5.844   2.047  10.262 -0.2985  0.1224  0.4832
16899SOL     OW55507   2.305   9.367   9.858 -0.8693 -0.5607  0.5635
16899SOL    HW155508   2.292   9.462   9.860 -0.2014 -0.4560  0.2948
16899SOL    HW255509   2.288   9.338   9.948 -1.1347 -0.1949  0.6311
16900SOL     OW55510   3.023   4.105   5.607  0.4298 -0.2607  0.5068
16900SOL    HW155511   3.021   4.014   5.636  0.7959 -0.9897 -1.5818
16900SOL    HW255512   3.026   4.156   5.688 -0.9718 -2.0359  1.7566
16901SOL     OW55513   8.574   0.289   8.650 -0.3012  0.2793  0.1656
16901SOL    HW155514   8.567   0.375   8.609  0.6289 -0.2083 -1.1066
16901SOL    HW255515   8.489   0.274   8.690 -0.7670  1.4043 -0.3564
16902SOL     OW55516   7.420   7.010   5.816  0.1191  0.2025  0.0508
16902SOL    HW155517   7.504   6.964   5.815  0.1852  0.2802  1.2055
16902SOL    HW255518   7.354   6.941   5.821  0.0977  0.1416 -0.8553
16903SOL     OW55519   9.234   1.369  10.441  0.1229  0.1719  0.1454
16903SOL    HW155520   9.305   1.312  10.412  0.1877  0.4924 -0.3573
16903SOL    HW255521   9.157   1.312  10.446 -0.1247  0.2609 -1.6608
16904SOL     OW55522   4.806   9.326   0.423  0.0637  0.0799 -0.1189
16904SOL    HW155523   4.711   9.340   0.422  0.1862  0.9978 -0.5476
16904SOL    HW255524   4.819   9.246   0.371 -0.4387  0.2155 -0.4610
16905SOL     OW55525   5.414   2.817   3.837 -0.0295  0.4132 -0.0042
16905SOL    HW155526   5.343   2.792   3.895  0.1636  0.1777  0.1300
16905SOL    HW255527   5.457   2.891   3.881 -0.4776  0.8658 -0.3080
16906SOL     OW55528   1.421   7.156   9.661 -0.2432 -0.6891 -0.3276
16906SOL    HW155529   1.361   7.089   9.690 -0.0199 -0.2535  1.2058
16906SOL    HW255530   1.431   7.214   9.736  1.5889 -0.3934 -0.7490
16907SOL     OW55531   7.468   5.671   5.312  0.0422 -0.1370 -0.3823
16907SOL    HW155532   7.536   5.610   5.340  0.5565 -0.1180 -1.5237
16907SOL    HW255533   7.498   5.757   5.341  0.1199 -0.2184 -0.2194
16908SOL     OW55534   6.076   1.994   8.162 -0.2379  0.2469 -0.7008
16908SOL    HW155535   6.161   2.017   8.124 -0.0255 -2.1285 -1.8803
16908SOL    HW255536   6.095   1.978   8.254 -0.0918  2.8412 -0.2198
16909SOL     OW55537  12.431   9.038   8.047 -0.2077  0.3889 -0.0323
16909SOL    HW155538  12.350   9.078   8.078 -0.6636 -0.4773 -0.0658
16909SOL    HW255539  12.421   8.944   8.067 -0.0423 -0.0300 -1.7568
16910SOL     OW55540   5.557   0.448   0.306  0.3169 -0.1667  0.0568
16910SOL    HW155541   5.525   0.517   0.248 -0.2485 -1.5610 -1.3476
16910SOL    HW255542   5.501   0.454   0.383 -0.1289  0.5499 -0.3106
16911SOL     OW55543  12.170  10.028   5.976  0.2319 -0.1001  0.2766
16911SOL    HW155544  12.218  10.003   6.054 -1.8038 -1.5668  1.1756
16911SOL    HW255545  12.134  10.114   5.996  0.8685  0.1480  0.3713
16912SOL     OW55546  12.092   0.145   9.517 -0.2123 -0.1705 -0.1873
16912SOL    HW155547  12.130   0.056   9.519 -0.2311 -0.2032 -1.0125
16912SOL    HW255548  12.101   0.173   9.426 -1.0291  0.3246 -0.1249
16913SOL     OW55549  10.089   8.653   1.919 -0.0444 -0.1386 -0.2858
16913SOL    HW155550  10.078   8.744   1.949 -0.7112  0.4221 -2.0586
16913SOL    HW255551  10.168   8.655   1.865  0.6403 -0.9107  0.6705
16914SOL     OW55552   0.946   9.330   1.867 -0.0179  0.9078  0.3886
16914SOL    HW155553   0.969   9.244   1.834 -0.0547 -0.0529  2.6996
16914SOL    HW255554   0.855   9.343   1.841 -0.0210  0.2564  0.0699
16915SOL     OW55555   2.204   8.298   1.505  0.1732  0.0931  0.2194
16915SOL    HW155556   2.132   8.236   1.499 -2.0943  2.0774  3.6917
16915SOL    HW255557   2.172   8.377   1.463  0.8402  0.5812  0.5994
16916SOL     OW55558   4.550   4.492   3.692 -0.2415  0.1336  0.8402
16916SOL    HW155559   4.533   4.558   3.625  0.3807  0.3799  0.9191
16916SOL    HW255560   4.602   4.425   3.647 -0.3279  0.0084  0.9253
16917SOL     OW55561   1.301   8.918  11.242 -0.5265  0.3818 -0.2066
16917SOL    HW155562   1.240   8.985  11.211  0.6811  2.2523  1.2724
16917SOL    HW255563   1.246   8.856  11.290 -1.4285  1.4537  0.1801
16918SOL     OW55564   8.805   2.369   9.011 -0.1961 -0.3692 -0.7762
16918SOL    HW155565   8.880   2.423   9.036 -0.1169 -1.0435  0.5196
16918SOL    HW255566   8.737   2.393   9.074  0.0530 -2.2255  0.2609
16919SOL     OW55567   3.897  10.652  11.411  0.5668  0.3521 -0.0186
16919SOL    HW155568   3.979  10.605  11.426  1.1871  1.5582  0.4318
16919SOL    HW255569   3.849  10.643  11.493  1.3125  1.7068  0.5934
16920SOL     OW55570   4.614   3.567   6.553  0.5762  0.1450 -0.1389
16920SOL    HW155571   4.646   3.510   6.483 -2.3135 -0.6510 -0.9637
16920SOL    HW255572   4.643   3.524   6.634  1.8312 -0.3085 -0.8156
16921SOL     OW55573   7.531   2.204   6.793  0.4370  0.0778  0.0576
16921SOL    HW155574   7.537   2.169   6.882 -1.5304  1.2723  0.7214
16921SOL    HW255575   7.448   2.168   6.759  0.2670  1.0698 -0.6074
16922SOL     OW55576   2.484   2.224   4.478 -0.1472  0.4120  0.4174
16922SOL    HW155577   2.567   2.253   4.441  0.2559 -1.8216 -0.5295
16922SOL    HW255578   2.451   2.302   4.524  1.0337  2.2314 -1.5993
16923SOL     OW55579   2.542   8.755   3.707  0.3159 -0.7705  0.1845
16923SOL    HW155580   2.513   8.807   3.632  1.2260  0.3887  0.5990
16923SOL    HW255581   2.637   8.757   3.702  0.3974 -3.4333 -0.4379
16924SOL     OW55582   8.319   3.827  11.363  0.5568 -0.1166 -0.1113
16924SOL    HW155583   8.259   3.754  11.373 -0.1049  0.3842 -0.3318
16924SOL    HW255584   8.322   3.869  11.449 -0.1834  0.4352 -0.3448
16925SOL     OW55585   6.753   5.658   7.179  0.4103 -0.0735  0.4185
16925SOL    HW155586   6.733   5.743   7.138  0.9844 -0.7296 -1.3047
16925SOL    HW255587   6.728   5.670   7.270 -1.2124  1.3721 -0.1533
16926SOL     OW55588   6.461   1.107   2.844  0.2171 -0.8620  0.1566
16926SOL    HW155589   6.391   1.114   2.909 -0.8669 -1.0284 -0.9555
16926SOL    HW255590   6.464   1.014   2.822 -0.0684 -0.6746 -0.6979
16927SOL     OW55591   4.733   5.678  11.951 -0.7108  0.1489  0.1960
16927SOL    HW155592   4.826   5.656  11.941 -1.2515 -2.3904 -0.0184
16927SOL    HW255593   4.710   5.643  12.037 -1.4158  1.0707  0.3926
16928SOL     OW55594   7.356   6.297  10.035  0.6164  0.5904 -0.4015
16928SOL    HW155595   7.426   6.350   9.997  0.6899 -0.0644 -1.1814
16928SOL    HW255596   7.401   6.227  10.082  0.4864  0.1655 -0.9073
16929SOL     OW55597  10.675   6.693   6.669  0.3080 -0.0056 -0.4805
16929SOL    HW155598  10.703   6.614   6.623  0.7909 -0.1511  0.0511
16929SOL    HW255599  10.752   6.749   6.670 -0.5677  1.4017 -2.6998
16930SOL     OW55600  11.862   5.063   2.900 -0.1707  0.2781  0.1411
16930SOL    HW155601  11.937   5.041   2.845 -0.5706 -0.4648 -0.1208
16930SOL    HW255602  11.810   4.982   2.903  0.5777 -0.2130  2.7918
16931SOL     OW55603  10.979   7.975   8.799  0.2766 -0.3290 -0.1955
16931SOL    HW155604  11.009   7.884   8.800  1.0345 -0.1407  2.6898
16931SOL    HW255605  11.057   8.025   8.776  0.6649 -0.2540  1.1970
16932SOL     OW55606   7.404   2.382   9.411  0.0083 -0.1235  0.1637
16932SOL    HW155607   7.329   2.324   9.420  0.4605 -0.6692  0.4293
16932SOL    HW255608   7.374   2.466   9.446 -1.1816  0.2871 -1.6906
16933SOL     OW55609   2.680  10.966   9.015  0.6142  0.4501  0.0311
16933SOL    HW155610   2.656  11.043   8.963 -0.1931 -0.8794 -1.6807
16933SOL    HW255611   2.768  10.986   9.048  0.1794  2.3505  0.1852
16934SOL     OW55612  10.652  10.653   7.561 -0.0808 -0.3089 -0.4362
16934SOL    HW155613  10.570  10.647   7.611 -0.0043 -0.1629 -0.2901
16934SOL    HW255614  10.681  10.563   7.552  0.2116 -0.2997  0.3095
16935SOL     OW55615   1.711  11.529   4.286  0.0010 -0.0465 -0.7345
16935SOL    HW155616   1.692  11.622   4.274  0.3608  0.6267  2.8226
16935SOL    HW255617   1.627  11.490   4.311  0.3700 -0.0269  0.6327
16936SOL     OW55618   7.266   5.731  11.707  0.0107  0.2912  0.1283
16936SOL    HW155619   7.173   5.712  11.710  0.2109 -1.1106 -1.2378
16936SOL    HW255620   7.309   5.651  11.738  0.7852 -0.0865 -1.7559
16937SOL     OW55621   9.095   7.824   2.215 -0.0226 -0.3564  0.0490
16937SOL    HW155622   9.147   7.902   2.231 -1.1769  0.3683  0.3456
16937SOL    HW255623   9.012   7.840   2.259  0.0757 -2.1891  0.9904
16938SOL     OW55624   5.911   8.937   8.327 -0.1025 -0.1637 -0.0530
16938SOL    HW155625   5.908   8.889   8.410  0.0113  1.5712  1.0019
16938SOL    HW255626   5.820   8.964   8.313 -0.0911 -0.3156 -0.4211
16939SOL     OW55627   8.407   4.571   4.594 -0.3991 -0.1945  0.3326
16939SOL    HW155628   8.341   4.503   4.605 -0.1693 -0.5605 -0.4981
16939SOL    HW255629   8.477   4.546   4.655 -0.4162 -0.5754  0.1966
16940SOL     OW55630  10.121  10.914   7.786 -0.8555  0.3749 -0.4022
16940SOL    HW155631  10.188  10.967   7.744  0.9313 -1.8686 -0.5782
16940SOL    HW255632  10.048  10.913   7.724  0.0118  0.6842 -1.4577
16941SOL     OW55633  10.566   2.953   9.483 -0.5196  0.2985 -0.3136
16941SOL    HW155634  10.636   2.889   9.492  0.4966  1.5612  1.3274
16941SOL    HW255635  10.604   3.035   9.515 -2.1480  1.4760 -1.2033
16942SOL     OW55636   4.603   6.581   6.262 -0.4881 -0.0662 -0.2809
16942SOL    HW155637   4.529   6.548   6.313  0.5184 -0.3084  1.0496
16942SOL    HW255638   4.626   6.508   6.204 -0.7174 -0.3045 -0.0740
16943SOL     OW55639   1.656   9.473   9.274 -0.5515  0.0023  0.3552
16943SOL    HW155640   1.582   9.530   9.295  0.1092  0.3056  2.0487
16943SOL    HW255641   1.721   9.532   9.236 -0.7156 -0.0286  0.0305
16944SOL     OW55642   1.776   8.730   6.843 -0.1275 -0.1457 -0.0532
16944SOL    HW155643   1.774   8.813   6.796  0.3106  0.2336  0.5839
16944SOL    HW255644   1.863   8.695   6.826 -0.6886 -1.0535 -1.2681
16945SOL     OW55645   6.168   5.357   1.322  0.1601  0.4562 -0.3654
16945SOL    HW155646   6.241   5.295   1.331 -1.8598 -1.9859  0.4527
16945SOL    HW255647   6.128   5.335   1.238  0.3616  1.8251 -0.8440
16946SOL     OW55648   1.486  11.671   5.207  0.1301 -0.2684 -0.3215
16946SOL    HW155649   1.400  11.630   5.200  1.1072 -2.5693  0.1985
16946SOL    HW255650   1.485  11.741   5.141 -3.1434  1.8387  1.6704
16947SOL     OW55651   5.343   9.038  11.807 -0.2038  0.2321 -0.3519
16947SOL    HW155652   5.277   8.980  11.770 -0.2720  1.2118 -1.8746
16947SOL    HW255653   5.376   8.991  11.884 -1.8744 -0.7619 -0.1830
16948SOL     OW55654   1.063   6.971   2.025  0.1669 -0.0114 -0.0540
16948SOL    HW155655   1.047   6.928   2.110 -2.8093  0.8440 -0.0968
16948SOL    HW255656   1.071   7.064   2.047  0.5882  0.0820 -0.6004
16949SOL     OW55657  10.028   1.369   3.619 -0.1614 -0.2696 -0.0518
16949SOL    HW155658   9.976   1.327   3.550 -0.9796 -2.5349  1.8332
16949SOL    HW255659  10.060   1.449   3.578  0.0392 -1.8527 -3.3146
16950SOL     OW55660   9.127  12.025  10.406  0.0777 -0.7412 -1.1255
16950SOL    HW155661   9.098  11.941  10.371 -1.3043  0.1533 -2.2187
16950SOL    HW255662   9.061  12.047  10.472  0.2890 -0.3984 -1.0271
16951SOL     OW55663   9.844   6.934   7.906  0.3888  0.2204 -0.3229
16951SOL    HW155664   9.916   6.987   7.941  0.1241  0.6859 -0.4755
16951SOL    HW255665   9.768   6.992   7.909 -0.1642 -0.5244  0.5840
16952SOL     OW55666   0.703   8.046   6.177  0.1245  0.3891 -0.2263
16952SOL    HW155667   0.726   8.131   6.141 -0.2301 -0.2386 -2.0247
16952SOL    HW255668   0.608   8.045   6.180  0.1190 -0.0140 -0.3981
16953SOL     OW55669   7.221   3.838   0.662 -0.0464 -0.1590  0.0373
16953SOL    HW155670   7.180   3.914   0.621 -0.1242 -0.6933 -0.8998
16953SOL    HW255671   7.155   3.803   0.721  0.0019  0.5120  0.5051
16954SOL     OW55672   7.358   3.934   1.195  0.1793  0.6479 -0.3974
16954SOL    HW155673   7.383   3.846   1.170  2.1305  0.6071  1.4263
16954SOL    HW255674   7.262   3.931   1.201  0.1904 -1.2107 -0.7627
16955SOL     OW55675   9.375   9.521   3.905  0.6556 -0.3586  0.1917
16955SOL    HW155676   9.297   9.572   3.927 -0.4075 -1.7209 -0.2740
16955SOL    HW255677   9.442   9.587   3.887 -0.6859  0.8857 -0.4951
16956SOL     OW55678   4.470  11.634   2.140  0.0330 -0.4226 -0.7109
16956SOL    HW155679   4.514  11.571   2.084  1.0348 -0.2271 -0.1752
16956SOL    HW255680   4.493  11.720   2.102  0.9487 -0.2761  0.1200
16957SOL     OW55681  11.065   3.948   4.911  0.0519  0.4631  0.3906
16957SOL    HW155682  10.992   4.001   4.878  0.1198 -0.9806 -2.3763
16957SOL    HW255683  11.143   3.995   4.883  0.1693  0.5835  0.9062
16958SOL     OW55684   6.049   3.282   6.762 -0.1603  0.3086 -0.2233
16958SOL    HW155685   6.036   3.376   6.774  1.6492  0.4942  0.5935
16958SOL    HW255686   6.024   3.266   6.671 -0.2864  1.6333 -0.4406
16959SOL     OW55687   8.238   3.191  10.003 -0.5554 -0.0141  0.3382
16959SOL    HW155688   8.299   3.122   9.975  1.0775  0.7651  1.7508
16959SOL    HW255689   8.244   3.191  10.098 -1.0830  1.5854  0.4064
16960SOL     OW55690   7.688  12.647   1.456 -0.5751  0.3406  0.3582
16960SOL    HW155691   7.650  12.560   1.438 -1.0229  0.4092  0.9400
16960SOL    HW255692   7.691  12.689   1.370 -0.9900 -0.0057  0.1643
16961SOL     OW55693   8.122   3.521   2.093 -0.0492 -0.1252  0.5189
16961SOL    HW155694   8.209   3.548   2.123  0.1344  0.7822 -0.7398
16961SOL    HW255695   8.137   3.488   2.004 -0.2838 -4.2798  1.7841
16962SOL     OW55696  11.313   6.090   4.487 -1.1506  0.1569  0.0462
16962SOL    HW155697  11.364   6.012   4.466 -2.8201 -0.7735 -0.7479
16962SOL    HW255698  11.305   6.089   4.582 -1.3437 -0.7815  0.0263
16963SOL     OW55699   2.439  10.416   3.498 -0.1523  0.5707 -0.6963
16963SOL    HW155700   2.443  10.359   3.575  0.1137  0.1752 -0.9954
16963SOL    HW255701   2.510  10.385   3.442  1.7390  2.9020  0.2670
16964SOL     OW55702   5.872   6.699   0.692  0.3260 -0.0952  0.2765
16964SOL    HW155703   5.869   6.752   0.613 -2.3234 -0.5932 -0.0526
16964SOL    HW255704   5.847   6.759   0.762 -1.2673 -0.5359  0.1125
16965SOL     OW55705   8.612   0.958   0.346 -0.7270  0.4779 -0.3607
16965SOL    HW155706   8.530   0.967   0.394  0.1790  2.0469  0.9976
16965SOL    HW255707   8.640   0.868   0.362 -1.2974  0.4650  0.6516
16966SOL     OW55708   2.880  11.612   7.241  0.5891  0.1737 -0.3720
16966SOL    HW155709   2.914  11.694   7.276  0.2810  0.1368  0.0114
16966SOL    HW255710   2.939  11.545   7.277 -0.0489  0.0811  0.5262
16967SOL     OW55711   1.769   9.666   9.099 -0.3268 -0.1304 -0.1461
16967SOL    HW155712   1.702   9.728   9.071 -0.3965 -0.8903 -1.7535
16967SOL    HW255713   1.826   9.717   9.157 -0.9550  1.1643 -0.6324
16968SOL     OW55714  12.048   0.372   0.670  0.3421  0.0317 -0.7770
16968SOL    HW155715  12.003   0.303   0.718 -1.0444  1.3440 -0.1089
16968SOL    HW255716  12.140   0.360   0.693  0.1442 -1.5590 -0.6610
16969SOL     OW55717   6.861   7.192   0.562 -0.1585  0.0832  0.1288
16969SOL    HW155718   6.873   7.287   0.573  0.1214  0.0485  0.1466
16969SOL    HW255719   6.843   7.160   0.650 -1.4984  0.2838 -0.0611
16970SOL     OW55720   7.976   7.512   8.175 -0.3341 -0.2779  0.5789
16970SOL    HW155721   8.032   7.578   8.133 -0.1312 -1.2347 -0.6933
16970SOL    HW255722   7.889   7.552   8.176 -0.0715  0.3076  0.5147
16971SOL     OW55723  11.189   3.708   1.364  0.0368  0.4358  0.3103
16971SOL    HW155724  11.250   3.665   1.423  2.4175  1.5570 -1.1689
16971SOL    HW255725  11.182   3.650   1.289 -0.0583  0.7101  0.1032
16972SOL     OW55726  12.448   8.885   7.121  0.0635  0.1331  0.2426
16972SOL    HW155727  12.383   8.816   7.134  0.3693 -0.2377 -0.1940
16972SOL    HW255728  12.531   8.839   7.112  0.2408  0.5431 -0.2847
16973SOL     OW55729   1.374   0.682   8.860 -0.1018  0.2623 -0.0908
16973SOL    HW155730   1.335   0.603   8.897  1.3050 -0.8277 -0.8544
16973SOL    HW255731   1.331   0.754   8.908 -1.3784 -0.9289  0.6518
16974SOL     OW55732   5.979   9.248   0.367  0.7868  0.6323  0.0588
16974SOL    HW155733   5.917   9.196   0.418  1.0036  2.6485  2.5652
16974SOL    HW255734   6.018   9.186   0.305 -3.4963 -0.7728 -1.5557
16975SOL     OW55735   3.952   5.534   7.000 -0.1054  0.7321  0.1102
16975SOL    HW155736   3.957   5.626   6.976  1.3612 -0.0231 -2.8794
16975SOL    HW255737   3.859   5.513   6.996 -0.2759  1.6403 -1.1074
16976SOL     OW55738   2.132   4.726   6.684  0.0017 -0.2560 -0.0525
16976SOL    HW155739   2.147   4.818   6.661  0.1206 -0.1786  0.3269
16976SOL    HW255740   2.206   4.679   6.646  0.0635 -0.1624 -0.0481
16977SOL     OW55741   1.158   6.095   1.091 -0.0506  0.1243  0.6201
16977SOL    HW155742   1.155   6.179   1.136 -0.7011 -0.0958  0.9912
16977SOL    HW255743   1.184   6.117   1.001 -1.6185  0.8973  0.3209
16978SOL     OW55744   4.636   3.418   8.377 -0.2724  0.2894 -0.0911
16978SOL    HW155745   4.542   3.426   8.395 -0.7418 -1.5968 -1.3123
16978SOL    HW255746   4.642   3.421   8.281  0.8335 -0.1124 -0.0526
16979SOL     OW55747   3.267   5.296   8.072  0.5583 -0.1328 -0.3616
16979SOL    HW155748   3.261   5.332   7.983  1.3552 -1.9795 -1.2209
16979SOL    HW255749   3.359   5.311   8.097  0.6095 -0.5823 -0.2824
16980SOL     OW55750   9.134   8.527   4.396 -0.1018  0.1188 -0.0638
16980SOL    HW155751   9.063   8.571   4.443  1.0807  0.5132  1.4345
16980SOL    HW255752   9.211   8.538   4.453  1.0268 -0.8177 -1.3441
16981SOL     OW55753   6.354   2.314   0.986  0.4405 -0.5238  0.1917
16981SOL    HW155754   6.346   2.224   0.957 -1.0842 -0.9891  1.8492
16981SOL    HW255755   6.359   2.308   1.082 -0.7106  1.1875  0.3972
16982SOL     OW55756  10.860   7.692   5.624  0.2990  0.4465 -0.3556
16982SOL    HW155757  10.919   7.704   5.549  2.0697  3.2827  1.2904
16982SOL    HW255758  10.905   7.629   5.680  1.0405  1.4188  0.1677
16983SOL     OW55759   8.706   5.143   0.091  0.2690  0.3914  0.0668
16983SOL    HW155760   8.668   5.230   0.079 -0.3451 -0.0163 -1.1633
16983SOL    HW255761   8.799   5.158   0.104  0.4467  1.1794 -1.7688
16984SOL     OW55762  10.695   4.254   1.377 -0.2417  0.1326 -0.2268
16984SOL    HW155763  10.692   4.280   1.285  1.0689  1.9700  0.1930
16984SOL    HW255764  10.743   4.172   1.378  0.0542  0.2920 -1.1559
16985SOL     OW55765  10.520   0.442   8.516 -0.4530 -0.3889  0.0440
16985SOL    HW155766  10.489   0.358   8.549 -1.5308  0.5760  1.6166
16985SOL    HW255767  10.535   0.494   8.594  1.8232  0.3644 -0.8279
16986SOL     OW55768  11.011   6.386   3.586  0.0241  0.1887 -0.5548
16986SOL    HW155769  10.997   6.296   3.615 -1.3468  0.2360 -0.9874
16986SOL    HW255770  10.993   6.384   3.492 -4.2272  1.6194  0.0065
16987SOL     OW55771   2.485   1.756   9.477  0.5512  0.3469 -0.3975
16987SOL    HW155772   2.508   1.842   9.443  1.1563  0.1933 -0.3839
16987SOL    HW255773   2.472   1.769   9.571  2.5310  0.0776 -0.0423
16988SOL     OW55774   1.701  10.155  10.900  0.9294  0.3684 -0.2760
16988SOL    HW155775   1.787  10.180  10.932  1.3950 -1.3264 -0.1077
16988SOL    HW255776   1.686  10.067  10.937 -0.9624  0.7164 -0.1219
16989SOL     OW55777   7.734   9.178   6.109 -0.2191  0.1873  0.5164
16989SOL    HW155778   7.700   9.090   6.124  0.6135 -0.5865 -1.6795
16989SOL    HW255779   7.795   9.193   6.181 -1.6573 -0.2908  1.8879
16990SOL     OW55780   8.193   7.193   6.556  0.2888 -0.1328 -0.4702
16990SOL    HW155781   8.144   7.131   6.503  1.6506 -0.8666 -0.9173
16990SOL    HW255782   8.273   7.210   6.505  0.2486  1.4774 -0.0494
16991SOL     OW55783   5.427   6.141  11.535  0.2790 -0.8361  0.5111
16991SOL    HW155784   5.415   6.076  11.604 -1.1761 -1.9492 -0.7253
16991SOL    HW255785   5.341   6.147  11.492 -0.0109  2.8133  1.3145
16992SOL     OW55786  12.244  10.045   2.282 -0.1199  0.3208  0.7826
16992SOL    HW155787  12.167  10.057   2.227  0.4829 -0.7565 -0.3439
16992SOL    HW255788  12.228   9.963   2.328 -0.6952  1.2902  2.4086
16993SOL     OW55789   1.287  10.465   8.823  0.1607  0.3282 -0.3018
16993SOL    HW155790   1.228  10.437   8.752 -1.3675  2.9633 -0.1937
16993SOL    HW255791   1.255  10.418   8.900 -1.4025  1.1632 -0.4028
16994SOL     OW55792  11.692   2.501   5.038  0.0128 -0.7931  0.1221
16994SOL    HW155793  11.654   2.422   5.002 -0.8304 -0.4975  0.3268
16994SOL    HW255794  11.719   2.553   4.962 -2.2400  0.0689 -0.1629
16995SOL     OW55795   1.834   3.000   4.083 -0.8310 -0.0303 -0.3737
16995SOL    HW155796   1.898   3.068   4.105  0.5605 -0.8750 -1.6385
16995SOL    HW255797   1.780   3.040   4.015 -0.4132  0.0321 -0.6738
16996SOL     OW55798   8.050   5.351   1.914 -0.5096 -0.0624  0.6416
16996SOL    HW155799   8.138   5.318   1.897 -1.3493 -1.8546 -0.6547
16996SOL    HW255800   8.029   5.322   2.003 -0.3813 -1.1095  0.3426
16997SOL     OW55801   3.138   6.929  11.723 -0.3062  0.0566 -0.1114
16997SOL    HW155802   3.129   6.948  11.816  0.5257 -1.4811  0.3236
16997SOL    HW255803   3.050   6.942  11.688 -0.6088  0.7736  0.8492
16998SOL     OW55804  12.169   4.322   3.808  0.1701  0.0696  0.0487
16998SOL    HW155805  12.134   4.410   3.823 -0.1980 -0.0215 -0.2620
16998SOL    HW255806  12.114   4.265   3.862  0.6015  0.0584  0.4898
16999SOL     OW55807   4.503   6.774   4.382  0.4845 -0.2349 -0.4293
16999SOL    HW155808   4.576   6.746   4.437  1.2206 -0.5875 -1.5538
16999SOL    HW255809   4.506   6.870   4.386  0.4464 -0.2513  0.2233
17000SOL     OW55810  10.786   3.188   7.331 -0.6304 -0.2046  0.7999
17000SOL    HW155811  10.759   3.112   7.383  0.0643 -0.0935  1.3307
17000SOL    HW255812  10.850   3.153   7.270 -0.0786  0.0075  1.2521
17001SOL     OW55813   9.953   3.653   1.574  0.4499 -0.6431 -0.2847
17001SOL    HW155814   9.891   3.660   1.647 -0.7685 -3.2246 -0.9743
17001SOL    HW255815   9.898   3.632   1.498  1.8862  0.2135 -1.6238
17002SOL     OW55816   1.664   2.742   4.434 -0.5238  0.2217  0.1583
17002SOL    HW155817   1.652   2.804   4.362 -2.9120  0.9300  1.0830
17002SOL    HW255818   1.656   2.794   4.514 -2.1630 -1.1563  0.9587
17003SOL     OW55819   5.516   4.631   9.561 -0.2868 -0.5256 -0.4012
17003SOL    HW155820   5.525   4.568   9.490 -2.8987 -0.0933 -1.2239
17003SOL    HW255821   5.566   4.707   9.532 -0.5894 -0.6915 -1.3983
17004SOL     OW55822   6.918  11.834  11.869  0.9014  0.2645  0.9142
17004SOL    HW155823   6.832  11.820  11.908  0.5467 -0.0174  0.0418
17004SOL    HW255824   6.910  11.801  11.780  2.2770 -0.9203  1.1897
17005SOL     OW55825   9.260   0.875  12.249  0.6929 -0.7795  0.3447
17005SOL    HW155826   9.217   0.790  12.259  0.1228 -0.4746  0.5368
17005SOL    HW255827   9.198   0.927  12.198  0.8012 -0.3018  0.6955
17006SOL     OW55828   3.485   2.813  11.353  0.2170 -0.7092  0.2185
17006SOL    HW155829   3.465   2.841  11.442  0.5822  1.7368 -0.3974
17006SOL    HW255830   3.448   2.882  11.298  1.1308 -1.5196 -1.4644
17007SOL     OW55831   3.855   2.466   2.906  0.2940  0.2732 -0.0057
17007SOL    HW155832   3.826   2.490   2.818  1.0976  1.2630 -0.0203
17007SOL    HW255833   3.867   2.549   2.951  1.2602 -0.1675  0.5872
17008SOL     OW55834   1.758   0.990   3.543 -0.1858 -0.1592  0.0332
17008SOL    HW155835   1.802   0.906   3.554  1.1365  0.4456 -0.4610
17008SOL    HW255836   1.755   1.027   3.631 -1.0624 -0.8441  0.3064
17009SOL     OW55837  12.109   1.944  11.096 -0.1484  0.2720  0.1420
17009SOL    HW155838  12.091   2.007  11.166 -0.2739 -0.6938  1.0029
17009SOL    HW255839  12.203   1.927  11.103 -0.1105  0.3822 -0.1032
17010SOL     OW55840   2.608   4.669   3.914  0.4609  0.0541  0.2212
17010SOL    HW155841   2.552   4.611   3.863  0.4504 -0.2494  0.5654
17010SOL    HW255842   2.582   4.757   3.889  1.0455 -0.0822 -0.9269
17011SOL     OW55843   1.364   8.712   3.519 -0.0096  0.0550 -0.0552
17011SOL    HW155844   1.439   8.760   3.553  0.7249 -0.5118 -0.8518
17011SOL    HW255845   1.399   8.627   3.493 -0.8756 -0.1278 -0.6736
17012SOL     OW55846   0.389   5.189   6.278 -0.6455  0.5460  0.4924
17012SOL    HW155847   0.390   5.275   6.321  0.5107  0.9161 -0.2247
17012SOL    HW255848   0.466   5.144   6.314 -2.0186 -0.7707  1.9373
17013SOL     OW55849  11.923   5.172  11.068 -0.1432  0.0153 -0.2178
17013SOL    HW155850  11.833   5.195  11.046  0.8007  3.6881 -0.9581
17013SOL    HW255851  11.972   5.188  10.987  1.3760 -0.5502  0.5512
17014SOL     OW55852   6.990   9.540   0.736  0.4565 -0.1536 -0.2515
17014SOL    HW155853   6.907   9.536   0.785  1.7972 -0.4017  2.1895
17014SOL    HW255854   7.004   9.633   0.721 -0.2605 -0.1092 -0.6756
17015SOL     OW55855   1.445   7.899   3.769 -0.3962  0.4251 -0.0533
17015SOL    HW155856   1.362   7.890   3.723 -0.5118 -0.4940  0.3115
17015SOL    HW255857   1.496   7.823   3.740  0.4640  1.1761 -0.5626
17016SOL     OW55858   0.195   2.973   8.468  0.0925 -0.2015  0.1103
17016SOL    HW155859   0.200   2.943   8.377 -2.6043 -0.3325 -0.0944
17016SOL    HW255860   0.238   2.904   8.518  0.5705 -0.7167 -0.9618
17017SOL     OW55861   0.976   8.272   6.639 -0.0018  0.0338 -0.1514
17017SOL    HW155862   1.061   8.247   6.603  0.7269 -0.8470  2.0141
17017SOL    HW255863   0.933   8.189   6.659 -0.7501  0.4770  0.0930
17018SOL     OW55864   3.629   4.093   4.083 -0.2560  0.2825 -0.2111
17018SOL    HW155865   3.669   4.055   4.005 -0.5181 -0.5188  0.0450
17018SOL    HW255866   3.617   4.186   4.061 -0.2859  0.0691 -1.0978
17019SOL     OW55867   7.408   6.064   4.855  0.1775 -0.1427  0.5020
17019SOL    HW155868   7.409   5.970   4.876  0.3422  0.1915  2.0939
17019SOL    HW255869   7.354   6.070   4.776 -1.5921 -1.3448  1.5550
17020SOL     OW55870   9.696   7.509   4.810 -0.8021  0.2218 -0.3299
17020SOL    HW155871   9.784   7.472   4.806  0.2831  2.3370  1.4531
17020SOL    HW255872   9.667   7.491   4.900 -0.7110  2.4710  0.2111
17021SOL     OW55873  12.474  11.218   0.097  0.0485 -0.3955  0.1409
17021SOL    HW155874  12.519  11.208   0.181 -1.7173 -1.5174  1.0275
17021SOL    HW255875  12.536  11.185   0.032  1.4763  0.5651  0.9674
17022SOL     OW55876   1.130   9.756   8.044 -0.4672 -0.0706 -0.3618
17022SOL    HW155877   1.053   9.719   8.085 -0.2587 -1.4864 -1.1934
17022SOL    HW255878   1.097   9.797   7.964 -0.4369 -0.1458 -0.4127
17023SOL     OW55879   6.734  12.223   4.323  0.2066  0.0996  0.0559
17023SOL    HW155880   6.672  12.150   4.327  0.5116 -0.1959 -0.5122
17023SOL    HW255881   6.814  12.184   4.288  0.5253  0.6076  0.2093
17024SOL     OW55882   4.433   7.734   8.226  0.1192 -0.0675 -0.0339
17024SOL    HW155883   4.455   7.717   8.135 -2.2702 -0.8454 -0.5328
17024SOL    HW255884   4.439   7.649   8.269 -0.5935 -0.0619  0.0942
17025SOL     OW55885   6.059  10.737  12.304  0.0100 -0.1208  0.4967
17025SOL    HW155886   6.028  10.708  12.219  0.0854  0.1368  0.3801
17025SOL    HW255887   6.044  10.662  12.362 -0.2455 -0.2171  0.3070
17026SOL     OW55888   2.951   5.228   3.202  0.0257 -0.0481  0.6778
17026SOL    HW155889   2.993   5.255   3.120 -0.8884  0.8073  0.4768
17026SOL    HW255890   3.008   5.158   3.235  0.9619  0.2728 -0.1731
17027SOL     OW55891   4.679   5.243  11.138  0.6204  0.5684  0.6368
17027SOL    HW155892   4.691   5.150  11.120  0.3879  0.7117 -0.3300
17027SOL    HW255893   4.646   5.246  11.227  0.4523 -0.2872  0.6120
17028SOL     OW55894   6.348   7.838   0.177 -0.1774 -0.3291 -0.4374
17028SOL    HW155895   6.406   7.906   0.144  2.4148 -2.5392 -0.8657
17028SOL    HW255896   6.308   7.801   0.099  0.1367 -0.6882 -0.4336
17029SOL     OW55897  10.396   5.968   2.322 -0.6118 -0.5439 -0.2302
17029SOL    HW155898  10.314   5.995   2.364  0.2389 -0.3403  1.4008
17029SOL    HW255899  10.373   5.889   2.273 -1.6999 -0.7837  0.6131
17030SOL     OW55900  12.100   7.556   2.049 -0.1491  0.2711  0.2067
17030SOL    HW155901  12.091   7.650   2.033 -3.1878  0.3445  1.6436
17030SOL    HW255902  12.065   7.515   1.970  1.4640  0.2737 -0.5520
17031SOL     OW55903   4.765   0.090   2.600 -0.1998  0.5419  0.3792
17031SOL    HW155904   4.751   0.051   2.687 -0.1682  0.9392  0.5628
17031SOL    HW255905   4.785   0.182   2.618 -2.2025  1.1248 -0.1534
17032SOL     OW55906  12.503   2.383   8.326  0.1682 -1.0352 -0.0634
17032SOL    HW155907  12.511   2.464   8.376 -3.9277  0.8959 -2.0490
17032SOL    HW255908  12.550   2.400   8.244 -2.3759  0.3416 -1.3488
17033SOL     OW55909  10.429   5.015   6.730  0.5922  0.0361 -0.3858
17033SOL    HW155910  10.334   5.024   6.739  0.6082  0.2054 -0.3796
17033SOL    HW255911  10.457   4.979   6.814  0.3236 -1.7684 -1.0240
17034SOL     OW55912  10.548  11.861   5.623  0.1361 -0.0484 -0.1796
17034SOL    HW155913  10.467  11.912   5.630 -0.0030 -0.2875 -0.0401
17034SOL    HW255914  10.519  11.771   5.608  0.3970  0.1240 -1.9272
17035SOL     OW55915   0.614   0.106   9.666 -0.5659  0.8179 -0.3471
17035SOL    HW155916   0.644   0.018   9.691 -0.4610  0.6941 -0.9040
17035SOL    HW255917   0.533   0.091   9.618 -1.2688  1.1184  0.7047
17036SOL     OW55918   2.519   3.690   5.744 -0.2853 -0.5202  0.4764
17036SOL    HW155919   2.486   3.758   5.803  1.3708  0.7399  0.0269
17036SOL    HW255920   2.541   3.617   5.801  0.9826  0.5631  1.4459
17037SOL     OW55921  12.065  10.614   9.722 -0.5427 -0.0694 -0.2835
17037SOL    HW155922  11.995  10.552   9.742  0.3289 -0.9975 -0.0632
17037SOL    HW255923  12.067  10.674   9.797 -0.4612 -0.6335  0.1723
17038SOL     OW55924   9.907   5.204   7.196  0.3150 -0.0124 -0.0021
17038SOL    HW155925   9.869   5.259   7.127 -0.1866 -0.3903 -0.0370
17038SOL    HW255926   9.979   5.256   7.231  1.7159 -0.5130 -1.9817
17039SOL     OW55927   1.891   2.294   1.683 -1.0657  0.4120  0.0382
17039SOL    HW155928   1.876   2.287   1.778 -0.5406 -0.5285  0.0567
17039SOL    HW255929   1.834   2.228   1.645  0.3741 -0.7667 -0.1346
17040SOL     OW55930   2.974   5.276   2.479 -0.3066 -0.3792 -0.1726
17040SOL    HW155931   2.949   5.198   2.529  0.2153 -0.5118 -0.1184
17040SOL    HW255932   3.036   5.244   2.414 -0.3528 -0.0645 -0.3751
17041SOL     OW55933   0.791   4.449   4.919 -0.4941 -0.2187  0.3491
17041SOL    HW155934   0.795   4.357   4.891  1.6065 -0.0651 -0.0120
17041SOL    HW255935   0.792   4.445   5.014  0.0459 -0.5703  0.3342
17042SOL     OW55936   7.917   2.445   8.247 -0.5569  0.0785  0.4537
17042SOL    HW155937   7.934   2.380   8.315  0.4006  0.3284  0.4691
17042SOL    HW255938   7.828   2.474   8.264 -1.0437 -1.3056  0.3692
17043SOL     OW55939  10.722   1.424   0.088 -0.4291 -0.1884 -0.0554
17043SOL    HW155940  10.759   1.435   0.000  2.6983 -2.2904  0.8268
17043SOL    HW255941  10.629   1.445   0.078 -0.3775 -1.0969 -4.0430
17044SOL     OW55942   9.136  11.581   9.285  0.0462 -0.0489  0.0431
17044SOL    HW155943   9.093  11.585   9.371  1.0035  0.1498  0.5302
17044SOL    HW255944   9.220  11.539   9.303  0.6796  0.9070 -0.6246
17045SOL     OW55945   5.176   9.879  11.403 -0.0442 -1.1073 -0.5363
17045SOL    HW155946   5.135   9.832  11.330  0.1518 -0.5675 -0.9996
17045SOL    HW255947   5.142   9.968  11.396 -1.1084 -1.3772  0.8728
17046SOL     OW55948  11.255   8.391   3.009 -0.0651  0.0379  0.0649
17046SOL    HW155949  11.190   8.368   3.075 -1.3475  0.4926 -1.0014
17046SOL    HW255950  11.273   8.310   2.963 -0.7325  0.1265 -0.3631
17047SOL     OW55951  11.412   1.486  12.467 -0.2518 -0.2428 -0.2567
17047SOL    HW155952  11.388   1.411  12.413 -1.9581  1.4461 -1.9941
17047SOL    HW255953  11.358   1.478  12.545 -0.4979 -0.7751 -0.4786
17048SOL     OW55954   2.394   9.802  11.490  0.2434 -0.2620 -0.6275
17048SOL    HW155955   2.321   9.740  11.493  0.5402 -0.7673 -2.4660
17048SOL    HW255956   2.355   9.886  11.515 -0.7589 -0.7059 -0.6351
17049SOL     OW55957  10.916  10.677   9.474  0.1003 -0.0232 -0.3967
17049SOL    HW155958  10.829  10.699   9.507 -0.8084 -1.0713 -1.9928
17049SOL    HW255959  10.975  10.699   9.546 -1.4623  0.8218  0.6746
17050SOL     OW55960  12.159   4.223  10.881 -0.4762  0.5034 -0.1017
17050SOL    HW155961  12.239   4.231  10.828 -0.1533 -0.1612  0.2628
17050SOL    HW255962  12.148   4.308  10.922  0.4503  0.3975  0.3939
17051SOL     OW55963   8.248  10.589  10.445 -0.0740  0.1187 -0.8929
17051SOL    HW155964   8.189  10.520  10.415  0.3609 -1.0767  0.8829
17051SOL    HW255965   8.189  10.655  10.482 -0.3511 -0.9003  0.5399
17052SOL     OW55966  10.711   8.853   3.116 -0.0275  0.3379 -0.1790
17052SOL    HW155967  10.795   8.809   3.106 -0.2420  0.1614 -1.3376
17052SOL    HW255968  10.681   8.869   3.027 -0.8207  1.1852  0.2176
17053SOL     OW55969   5.041   4.067  10.404 -0.3845 -0.2917 -0.5479
17053SOL    HW155970   5.049   3.980  10.442  1.9795  0.0339 -0.1802
17053SOL    HW255971   4.946   4.082  10.399 -0.8182 -2.1716  0.9465
17054SOL     OW55972   5.865  10.519  10.949  0.3324  0.4998  0.0935
17054SOL    HW155973   5.958  10.507  10.969  0.1486 -0.5171  0.3985
17054SOL    HW255974   5.849  10.612  10.965  1.6030  1.0200 -1.3033
17055SOL     OW55975  11.984   9.385   6.155 -0.5556 -0.6776 -0.1417
17055SOL    HW155976  12.024   9.319   6.211  0.4116 -1.2676 -1.4659
17055SOL    HW255977  11.989   9.466   6.206 -0.5553 -1.3568  0.9737
17056SOL     OW55978   2.376   8.638   7.854  0.1945 -0.0380 -0.1979
17056SOL    HW155979   2.320   8.632   7.931 -0.8000  1.3038 -0.7738
17056SOL    HW255980   2.418   8.724   7.862  2.0923 -0.9428  0.1345
17057SOL     OW55981  10.311   4.460   3.632 -0.2150 -0.3516 -1.0793
17057SOL    HW155982  10.244   4.394   3.645  0.2864 -1.0085 -1.7346
17057SOL    HW255983  10.269   4.543   3.656 -0.8582 -0.8976 -0.2896
17058SOL     OW55984   5.157   4.086   7.902  0.0522  0.3350 -0.1302
17058SOL    HW155985   5.145   4.125   7.816 -1.3104  0.5607  0.1345
17058SOL    HW255986   5.109   4.143   7.962  0.3942 -0.1981  0.6791
17059SOL     OW55987   9.266   8.571   3.072  0.1446 -0.0095 -0.0233
17059SOL    HW155988   9.210   8.649   3.069  0.8189  0.4904 -3.0714
17059SOL    HW255989   9.209   8.500   3.044  0.0662 -0.2312  0.6890
17060SOL     OW55990   7.425   0.298   5.849 -0.6067 -0.7703 -0.1349
17060SOL    HW155991   7.460   0.387   5.856  1.0958 -1.4562  0.7021
17060SOL    HW255992   7.490   0.250   5.797 -0.0657 -2.1704  1.7186
17061SOL     OW55993   1.127  10.035   9.305  0.2356 -0.7607 -0.0226
17061SOL    HW155994   1.189  10.083   9.359  1.2203  0.7203 -2.3415
17061SOL    HW255995   1.046  10.086   9.311  1.2410  1.2866 -2.3788
17062SOL     OW55996   3.290   5.588  11.279 -0.1623  0.6286 -0.4073
17062SOL    HW155997   3.218   5.528  11.299  0.4618  0.4911  1.6693
17062SOL    HW255998   3.252   5.675  11.294  0.1247  0.5478  0.9319
17063SOL     OW55999   9.527  11.868   3.936 -0.5079  0.5677 -0.3152
17063SOL    HW156000   9.442  11.877   3.894 -0.6402  1.0379  0.0510
17063SOL    HW256001   9.551  11.956   3.963  0.1504  0.4554 -0.5194
17064SOL     OW56002   4.210   5.244   5.038 -0.0126  0.2953  0.1655
17064SOL    HW156003   4.155   5.286   5.104 -1.4708 -1.0501 -0.1189
17064SOL    HW256004   4.298   5.245   5.075 -0.3111  1.9860  0.9068
17065SOL     OW56005   3.320   7.483   0.665  0.5156  0.0634 -0.4116
17065SOL    HW156006   3.372   7.533   0.603  0.1432  0.5559 -0.3353
17065SOL    HW256007   3.246   7.540   0.686  0.8658  0.0876  0.8229
17066SOL     OW56008  11.495  11.346   4.405 -0.1758  0.4030  0.0918
17066SOL    HW156009  11.437  11.304   4.341  0.2755 -0.5736  0.3184
17066SOL    HW256010  11.438  11.409   4.450 -0.9268 -0.1526 -0.0594
17067SOL     OW56011   6.862   2.181  10.869 -0.3889  0.0213 -0.1496
17067SOL    HW156012   6.949   2.141  10.868  0.2057  1.2595 -0.8923
17067SOL    HW256013   6.878   2.274  10.850 -2.0944 -0.1850 -3.4431
17068SOL     OW56014  12.451  11.913   5.620 -0.1183  0.1576 -0.2160
17068SOL    HW156015  12.392  11.919   5.696  0.7587 -0.9105  0.5731
17068SOL    HW256016  12.523  11.858   5.649  0.1073 -0.5196 -1.9389
17069SOL     OW56017   9.264   7.240   7.704 -0.3243 -0.2590 -0.0977
17069SOL    HW156018   9.292   7.232   7.612 -0.5754 -0.3632 -0.1676
17069SOL    HW256019   9.317   7.175   7.751  0.5699  0.5274  0.0106
17070SOL     OW56020  11.872  12.401   6.543 -0.4399 -0.4020  0.2910
17070SOL    HW156021  11.837  12.471   6.598 -0.6404 -0.1254 -0.1829
17070SOL    HW256022  11.813  12.327   6.557 -0.3358 -0.4188  0.6499
17071SOL     OW56023   0.307   6.113   4.917 -0.0018 -0.6374 -0.2686
17071SOL    HW156024   0.397   6.127   4.890 -0.3896 -1.3594 -2.0814
17071SOL    HW256025   0.309   6.030   4.965  0.2950 -0.6903 -0.3688
17072SOL     OW56026   8.402   0.520  11.853  0.2476 -0.4129  0.0065
17072SOL    HW156027   8.461   0.532  11.778 -0.2874 -0.4888 -0.4275
17072SOL    HW256028   8.384   0.609  11.883 -0.0379 -0.3524 -0.3451
17073SOL     OW56029   3.285   1.706   4.815 -0.3540 -0.5153 -0.7085
17073SOL    HW156030   3.315   1.777   4.758 -0.6145  0.0732 -0.1363
17073SOL    HW256031   3.294   1.627   4.763 -0.1693 -0.0416 -1.4066
17074SOL     OW56032   0.635  10.138   6.608  0.5291  0.1991  0.1003
17074SOL    HW156033   0.543  10.166   6.601  0.0825  0.7118  4.7182
17074SOL    HW256034   0.683  10.217   6.630  1.8725 -0.3021 -0.9326
17075SOL     OW56035   7.036  11.033   6.962  0.2414 -0.0030 -0.2160
17075SOL    HW156036   6.985  10.963   6.921 -0.4360 -0.1596  0.8480
17075SOL    HW256037   7.004  11.036   7.053 -0.4146  2.2786 -0.4513
17076SOL     OW56038  10.811   2.759   0.694  0.2806 -0.4959 -0.5743
17076SOL    HW156039  10.822   2.809   0.614  0.6202 -0.3516 -0.4407
17076SOL    HW256040  10.807   2.826   0.763 -1.1889 -0.5535 -0.5821
17077SOL     OW56041   8.156  12.282  11.501 -0.2972 -0.1736 -0.5152
17077SOL    HW156042   8.232  12.308  11.448  1.5890 -2.0626  1.1244
17077SOL    HW256043   8.131  12.196  11.467  0.9272 -1.4090  1.5166
17078SOL     OW56044   5.216   6.017  12.313  0.0794 -0.1157 -0.3843
17078SOL    HW156045   5.154   6.071  12.266  0.3762  0.7479  0.1932
17078SOL    HW256046   5.302   6.052  12.289  0.1979  1.4150  2.0015
17079SOL     OW56047  12.369   7.870  11.281 -0.4466  0.1571  0.0059
17079SOL    HW156048  12.282   7.886  11.243 -0.5894 -0.5225  0.0334
17079SOL    HW256049  12.405   7.958  11.295 -1.7448  0.5108  1.4450
17080SOL     OW56050   3.171   1.735   4.292  0.1928  0.1381 -0.4149
17080SOL    HW156051   3.154   1.668   4.226 -1.8148 -0.2033  0.3599
17080SOL    HW256052   3.121   1.707   4.369  1.2740  1.2787  0.7622
17081SOL     OW56053   3.193   7.186  10.293  0.0253 -0.3909  0.4293
17081SOL    HW156054   3.199   7.093  10.316 -0.1647 -0.2815  0.9264
17081SOL    HW256055   3.273   7.204  10.243  0.1349 -0.7814  0.4640
17082SOL     OW56056   9.656  12.333  10.609 -0.1160 -0.2585  0.0320
17082SOL    HW156057   9.720  12.347  10.540  0.2031 -1.0317  0.1620
17082SOL    HW256058   9.571  12.337  10.564  0.1070 -1.2383 -0.5093
17083SOL     OW56059   1.647   4.946  11.206  0.2261  0.6722  0.3992
17083SOL    HW156060   1.649   4.873  11.268  2.1465  0.6259  0.3259
17083SOL    HW256061   1.554   4.955  11.184 -0.1335 -1.4167  0.7905
17084SOL     OW56062  10.108   4.885   0.322  0.3561  0.5702  0.5533
17084SOL    HW156063  10.145   4.797   0.325 -1.4159 -0.3255 -1.2386
17084SOL    HW256064  10.159   4.930   0.255  2.8910  1.8399  3.1342
17085SOL     OW56065   5.724   1.550   5.964 -0.0712 -0.5082  0.3810
17085SOL    HW156066   5.746   1.640   5.941  1.5284  0.0804  3.6610
17085SOL    HW256067   5.809   1.504   5.967 -0.3798 -1.0712  2.4366
17086SOL     OW56068   4.204   5.385   6.096  0.3665 -0.2917  0.7186
17086SOL    HW156069   4.299   5.388   6.085  0.3132  1.4364  0.5274
17086SOL    HW256070   4.187   5.444   6.169 -0.7299  1.2680 -0.7240
17087SOL     OW56071  11.845   1.703   1.238  0.3354  0.0502 -0.7199
17087SOL    HW156072  11.871   1.671   1.325 -0.0860 -1.5348 -1.1324
17087SOL    HW256073  11.750   1.695   1.238  0.3569 -0.2555 -1.4279
17088SOL     OW56074   4.271  10.048   2.327  0.7763  0.4925  0.3066
17088SOL    HW156075   4.291   9.970   2.274  0.8405  1.5090 -1.2511
17088SOL    HW256076   4.181  10.035   2.355  0.3623  0.3885 -0.9798
17089SOL     OW56077  11.166   2.413   9.106  0.1064 -0.0410 -0.3036
17089SOL    HW156078  11.148   2.323   9.132  0.0282  0.6429  2.3739
17089SOL    HW256079  11.260   2.416   9.092  0.3842 -0.2010  1.3392
17090SOL     OW56080   0.777  11.794   8.846 -0.4762  0.3441 -0.8653
17090SOL    HW156081   0.691  11.753   8.832 -0.8761  0.4971  0.9268
17090SOL    HW256082   0.770  11.879   8.801 -1.7153  0.8650  0.2507
17091SOL     OW56083   9.378   1.592   1.002 -0.2363 -0.6428  0.3558
17091SOL    HW156084   9.376   1.583   1.097  0.5384  1.2804  0.5801
17091SOL    HW256085   9.416   1.678   0.986  0.5960 -1.3214 -1.7215
17092SOL     OW56086   7.481   8.156   4.092  0.6799  0.0296 -0.3003
17092SOL    HW156087   7.569   8.160   4.053  1.3156 -0.9474  0.9541
17092SOL    HW256088   7.472   8.065   4.121 -0.2905  0.3995  0.6071
17093SOL     OW56089   3.292   9.313   2.036  0.0854 -0.1454  0.1391
17093SOL    HW156090   3.343   9.373   2.091 -0.6783  0.6903 -0.0262
17093SOL    HW256091   3.316   9.336   1.946 -0.1695 -0.1169  0.0755
17094SOL     OW56092   1.027   7.132   1.333 -0.1168  0.1273 -0.0100
17094SOL    HW156093   1.091   7.184   1.380  0.0718 -0.5062  0.4563
17094SOL    HW256094   0.970   7.196   1.290  1.0347  0.6887 -0.7363
17095SOL     OW56095   1.009   0.201  11.920  0.1154  0.4929  0.0728
17095SOL    HW156096   0.999   0.287  11.877 -1.1433 -0.5408 -1.8575
17095SOL    HW256097   1.103   0.190  11.930  0.2770  3.0468  2.4895
17096SOL     OW56098  10.376   0.822   2.322 -0.2060  0.0050  0.2204
17096SOL    HW156099  10.462   0.826   2.281  0.8803  1.0572  2.4103
17096SOL    HW256100  10.356   0.729   2.329  0.5168 -0.2368 -0.7166
17097SOL     OW56101   0.460  10.959  10.225 -0.0662 -0.0484  0.2376
17097SOL    HW156102   0.389  11.000  10.274 -0.2479 -0.3993  0.2669
17097SOL    HW256103   0.521  10.927  10.292  0.3881  0.7060  0.2083
17098SOL     OW56104  11.625   9.966   2.993  0.1069  0.2060 -0.0845
17098SOL    HW156105  11.561   9.990   2.925 -0.1658 -0.4072 -0.0571
17098SOL    HW256106  11.669  10.048   3.015 -0.7368  0.6630 -0.0447
17099SOL     OW56107   5.963   6.390   7.969  0.0710  0.2899  0.1614
17099SOL    HW156108   5.923   6.323   7.914  0.5352  0.7587 -0.7728
17099SOL    HW256109   5.900   6.461   7.971 -0.0614  0.1647  0.4600
17100SOL     OW56110   5.544   5.653  11.199 -0.7261 -0.6645 -0.4609
17100SOL    HW156111   5.506   5.621  11.281 -0.4154  0.6048  0.2191
17100SOL    HW256112   5.477   5.638  11.134 -1.7191 -0.0696  0.3881
17101SOL     OW56113   1.129   8.876   9.369 -0.3461  0.3912  0.0237
17101SOL    HW156114   1.224   8.879   9.357 -0.4633 -0.8400 -1.5495
17101SOL    HW256115   1.116   8.890   9.463  1.4909 -0.7990  0.5130
17102SOL     OW56116   0.570   3.656   6.649  0.4658 -0.3599  0.4611
17102SOL    HW156117   0.633   3.628   6.716  1.7963  0.7044 -0.2861
17102SOL    HW256118   0.621   3.712   6.591 -0.7778 -0.8925 -1.1978
17103SOL     OW56119   4.122  11.307   6.798  0.0943 -0.4473  0.3768
17103SOL    HW156120   4.113  11.371   6.869 -1.0262 -2.3282  2.0425
17103SOL    HW256121   4.214  11.280   6.801  0.0606 -0.4941  1.1261
17104SOL     OW56122   6.011   5.659  10.460 -0.2009 -0.3744  0.1341
17104SOL    HW156123   5.990   5.570  10.432  1.7177 -0.4712 -1.2234
17104SOL    HW256124   6.103   5.670  10.436  0.0287  1.4614  1.6648
17105SOL     OW56125  12.021   3.999  11.977 -0.8452 -0.2809  0.0918
17105SOL    HW156126  11.953   3.962  12.033  1.1331 -2.1909  1.3808
17105SOL    HW256127  12.033   4.088  12.009 -1.9510 -0.2894  0.5753
17106SOL     OW56128   3.976   0.155   6.974 -0.4184 -0.5728  0.2901
17106SOL    HW156129   4.016   0.118   6.896  0.5376  0.3223  0.3378
17106SOL    HW256130   3.885   0.125   6.971 -1.5999  2.5555 -3.3024
17107SOL     OW56131   8.716   8.589   3.933  0.3082 -0.5210 -0.3104
17107SOL    HW156132   8.736   8.496   3.939  0.8184 -0.4659 -1.0743
17107SOL    HW256133   8.779   8.624   3.871  0.5709  0.4745  0.4807
17108SOL     OW56134   8.028   0.750  10.429  0.2309  0.0286 -0.4660
17108SOL    HW156135   7.960   0.805  10.468  0.5029  0.7380 -0.9645
17108SOL    HW256136   8.080   0.811  10.376  2.8575  0.0368  1.9185
17109SOL     OW56137   2.218   6.865   4.258  0.0806  0.1117 -0.1599
17109SOL    HW156138   2.289   6.888   4.199  0.2549 -0.3546 -0.1351
17109SOL    HW256139   2.259   6.809   4.324  0.1578  1.5949  1.1221
17110SOL     OW56140   8.692  12.181   8.607  0.0960 -0.1366 -0.1803
17110SOL    HW156141   8.697  12.099   8.559 -0.8251  0.4827 -1.3854
17110SOL    HW256142   8.735  12.245   8.549 -1.0968  0.6346 -0.2501
17111SOL     OW56143   3.356   1.682   2.641 -0.0974  0.0189  0.2975
17111SOL    HW156144   3.363   1.691   2.736  1.5353  1.4502  0.0824
17111SOL    HW256145   3.315   1.596   2.628  0.1891 -0.4636  2.2681
17112SOL     OW56146   8.436   2.973  12.142  0.4381 -0.3486 -0.0339
17112SOL    HW156147   8.444   3.026  12.063 -0.1894  0.8651  0.6872
17112SOL    HW256148   8.473   2.888  12.118 -1.4546 -0.6387 -2.2213
17113SOL     OW56149  10.014   6.485   7.362  0.0170  0.2331  0.1356
17113SOL    HW156150   9.969   6.482   7.278 -0.6249 -0.4649  0.4908
17113SOL    HW256151  10.064   6.404   7.365  0.9885  0.8086 -0.0723
17114SOL     OW56152   8.806   7.696   3.014 -0.2941  0.5452  0.2126
17114SOL    HW156153   8.861   7.770   2.988  0.6583 -0.3276 -0.3391
17114SOL    HW256154   8.755   7.729   3.088 -0.0431  1.8089 -0.1523
17115SOL     OW56155  10.856   1.906   6.677  0.1709  0.6219 -0.5193
17115SOL    HW156156  10.921   1.904   6.607  0.5937 -1.7414 -0.1654
17115SOL    HW256157  10.907   1.909   6.757  0.1406 -3.2946 -0.1425
17116SOL     OW56158   7.058   0.617   5.895  0.4213  0.2360 -0.5357
17116SOL    HW156159   7.082   0.625   5.803 -0.4720  0.6371 -0.7410
17116SOL    HW256160   6.967   0.589   5.894  0.4994 -0.0793  0.2323
17117SOL     OW56161   9.689  10.049   3.390 -0.3898 -0.0856  0.0561
17117SOL    HW156162   9.615   9.990   3.381 -0.1632 -0.5869  1.2765
17117SOL    HW256163   9.743  10.033   3.313 -0.1732 -1.7077  0.5214
17118SOL     OW56164   8.548  10.829  10.544  0.6352 -0.0143 -0.5005
17118SOL    HW156165   8.636  10.817  10.508 -0.0402  0.2530 -2.3835
17118SOL    HW256166   8.496  10.860  10.469 -0.8188  0.8672  0.8187
17119SOL     OW56167   7.777   1.717  11.045  0.2085 -0.2759  0.5369
17119SOL    HW156168   7.756   1.625  11.033  0.3915 -0.0594 -1.9449
17119SOL    HW256169   7.868   1.725  11.015  1.1527  0.2728  3.2879
17120SOL     OW56170   0.868   5.372  10.320 -0.0790  0.0684  0.6434
17120SOL    HW156171   0.846   5.462  10.298 -1.6352 -0.5846 -0.6995
17120SOL    HW256172   0.787   5.323  10.307  1.1752 -1.8482 -0.5815
17121SOL     OW56173   4.867  11.948   7.542  0.5020 -0.3585 -0.2946
17121SOL    HW156174   4.889  11.922   7.631 -1.1394  1.9946  0.9156
17121SOL    HW256175   4.863  12.044   7.545  2.1362 -0.0627 -3.3804
17122SOL     OW56176   3.735   9.431  12.376 -0.0737 -0.4110  0.0053
17122SOL    HW156177   3.725   9.491  12.302 -0.1846 -1.5359 -0.9182
17122SOL    HW256178   3.673   9.463  12.441 -1.1620 -0.3551 -1.0265
17123SOL     OW56179   2.647   0.063  12.280  1.0631  0.0604  0.0486
17123SOL    HW156180   2.582   0.055  12.211  1.4392 -0.5631 -0.2384
17123SOL    HW256181   2.716   0.002  12.256  1.2526 -0.0889  0.9125
17124SOL     OW56182  10.468  11.656   4.310 -0.3549  0.0521  0.0936
17124SOL    HW156183  10.443  11.623   4.396  0.0959  0.7947  0.5137
17124SOL    HW256184  10.385  11.660   4.262 -0.7138  0.2809  0.7142
17125SOL     OW56185  11.131   4.318  12.144  0.5558 -0.0855  0.5024
17125SOL    HW156186  11.079   4.325  12.064  0.7008  0.3604  0.4468
17125SOL    HW256187  11.145   4.224  12.155 -0.5577 -0.2402  0.7060
17126SOL     OW56188   9.729   9.289   1.728 -0.0863  0.0442  0.1026
17126SOL    HW156189   9.643   9.259   1.758 -1.1551 -0.0031 -2.7507
17126SOL    HW256190   9.781   9.209   1.722 -0.4766 -0.1978 -0.0889
17127SOL     OW56191   3.037  11.200   6.609  0.4571 -0.4050  0.4506
17127SOL    HW156192   3.092  11.132   6.647  3.0253  0.5574 -1.2700
17127SOL    HW256193   3.001  11.161   6.530  0.7072 -0.2207  0.2474
17128SOL     OW56194   9.466   8.484   5.595  0.0326  0.1720  0.4716
17128SOL    HW156195   9.531   8.551   5.619  0.7166  0.1527 -1.1588
17128SOL    HW256196   9.440   8.445   5.679  1.7690  0.5196  1.2376
17129SOL     OW56197  10.005  11.835  12.149 -0.0797  0.3055  0.2361
17129SOL    HW156198   9.925  11.886  12.143  0.4581  1.3052  1.2544
17129SOL    HW256199  10.028  11.836  12.242 -0.3895 -2.3676  0.4221
17130SOL     OW56200   7.673   3.812   2.111 -0.0301 -0.0888  0.6679
17130SOL    HW156201   7.704   3.903   2.107  0.3030 -0.2235  0.0519
17130SOL    HW256202   7.738   3.767   2.165 -0.4614  0.1424  1.3832
17131SOL     OW56203   5.973   0.378  12.260 -0.2940  0.2091  0.4393
17131SOL    HW156204   5.901   0.360  12.200  1.2823  0.5133 -1.6690
17131SOL    HW256205   5.991   0.472  12.249  2.6510 -0.4631 -1.9069
17132SOL     OW56206   1.442  12.080   7.691 -0.3741 -0.0312  0.4086
17132SOL    HW156207   1.363  12.134   7.686 -0.4171 -0.1655 -0.5090
17132SOL    HW256208   1.439  12.025   7.612  1.5770  1.2606 -0.6403
17133SOL     OW56209   2.506   6.125   3.914  0.6388 -0.0840 -0.2079
17133SOL    HW156210   2.415   6.115   3.884  0.1063 -0.2931  1.3587
17133SOL    HW256211   2.524   6.044   3.962  2.0846 -0.5598 -1.4594
17134SOL     OW56212   4.083  12.019   9.906  0.2730  0.2017  0.1780
17134SOL    HW156213   4.006  12.056   9.861 -1.3119 -4.0947 -1.1538
17134SOL    HW256214   4.145  12.000   9.835  0.8378 -0.0300  0.7315
17135SOL     OW56215  10.854  10.077   0.181  0.0809 -0.5657  0.0873
17135SOL    HW156216  10.877  10.008   0.243  1.5854 -1.0438 -0.9413
17135SOL    HW256217  10.879  10.042   0.096  1.3478  1.3991 -0.4295
17136SOL     OW56218  12.217   2.572   1.544  0.2036 -0.0411 -0.0086
17136SOL    HW156219  12.150   2.508   1.570 -0.3528 -0.4357 -2.2156
17136SOL    HW256220  12.184   2.656   1.577 -0.7575 -0.4191  0.0454
17137SOL     OW56221   7.726   3.673   3.392 -0.0213  0.2310 -0.3301
17137SOL    HW156222   7.753   3.681   3.483 -0.0635  0.6312 -0.3536
17137SOL    HW256223   7.720   3.763   3.360 -1.9239  0.2156 -0.1625
17138SOL     OW56224   1.780  11.522   3.099  0.8277  0.1809  0.6572
17138SOL    HW156225   1.719  11.596   3.091  0.1377 -0.3816  0.6097
17138SOL    HW256226   1.867  11.561   3.084  0.2705  0.4265 -2.9557
17139SOL     OW56227   9.433   3.554   8.425  0.4920 -0.0944 -0.1031
17139SOL    HW156228   9.468   3.493   8.489  2.1509  0.4146 -0.4702
17139SOL    HW256229   9.344   3.573   8.456  0.4509 -1.5717  0.7801
17140SOL     OW56230   4.911   9.993   0.627  0.0166  0.3360 -0.0034
17140SOL    HW156231   4.915   9.898   0.615  0.6207  0.4575 -0.8530
17140SOL    HW256232   4.992  10.026   0.589 -0.6059  1.2809 -0.5543
17141SOL     OW56233  11.180   2.622   0.118  0.6612 -0.4863 -0.5765
17141SOL    HW156234  11.271   2.627   0.149 -0.2674 -0.5662  2.4567
17141SOL    HW256235  11.129   2.662   0.188 -1.8219 -2.0854 -1.3599
17142SOL     OW56236  11.250  11.544   0.061  0.0748 -0.1144  0.9193
17142SOL    HW156237  11.193  11.542   0.138 -2.2343  0.4307 -0.6930
17142SOL    HW256238  11.314  11.474   0.077 -1.4000 -1.1766  2.5350
17143SOL     OW56239  10.751   7.231   0.241  0.0051 -0.0491  0.0729
17143SOL    HW156240  10.839   7.226   0.278 -0.6231 -1.1157  1.5524
17143SOL    HW256241  10.764   7.230   0.147  1.5396 -1.2609  0.2528
17144SOL     OW56242  10.489   8.282   0.305 -0.6448  0.0248 -0.1187
17144SOL    HW156243  10.407   8.236   0.321 -0.4973  0.1155  1.0279
17144SOL    HW256244  10.557   8.215   0.319 -0.5154 -0.1255 -1.3503
17145SOL     OW56245  11.258   0.057  10.177 -0.1472  0.0624  0.2813
17145SOL    HW156246  11.204   0.014  10.244 -0.9300  0.5948  0.0182
17145SOL    HW256247  11.238   0.150  10.188  2.5057  0.5331  1.7172
17146SOL     OW56248   4.249   8.966   4.883 -0.0782  0.4462  0.1816
17146SOL    HW156249   4.280   8.916   4.808 -0.5386 -0.6195  0.6868
17146SOL    HW256250   4.315   8.950   4.951 -1.4992 -1.6257  1.1792
17147SOL     OW56251   8.775   8.068   4.769  0.2345  0.2443 -0.7583
17147SOL    HW156252   8.722   7.993   4.794 -0.2091  0.8053  0.0507
17147SOL    HW256253   8.809   8.102   4.852  1.3138  0.2993 -1.2090
17148SOL     OW56254   0.681   2.311   2.966 -0.7260  0.2928  0.2810
17148SOL    HW156255   0.664   2.378   3.033 -0.9503 -0.2993  0.8360
17148SOL    HW256256   0.728   2.356   2.897  0.3665  0.7227  1.2711
17149SOL     OW56257   8.627   1.496   3.391 -0.0021 -0.3228 -0.1673
17149SOL    HW156258   8.702   1.546   3.423  0.6997 -1.6379  0.3343
17149SOL    HW256259   8.588   1.458   3.470 -0.8521 -0.1399 -0.4874
17150SOL     OW56260   2.558   1.712  11.112  0.3555  0.0274 -0.1054
17150SOL    HW156261   2.643   1.706  11.154 -0.7130  0.3858  2.2884
17150SOL    HW256262   2.571   1.771  11.038  1.9451  1.0491  0.9380
17151SOL     OW56263   0.520  10.362  12.579  0.1216 -0.5020 -0.0860
17151SOL    HW156264   0.537  10.416  12.655 -0.1249 -1.7216  0.8745
17151SOL    HW256265   0.425  10.353  12.576  0.0520  0.3814 -1.1653
17152SOL     OW56266   4.505   7.469   3.162  0.0863  0.0109  0.2426
17152SOL    HW156267   4.578   7.407   3.165  0.1938  0.0619 -0.9927
17152SOL    HW256268   4.465   7.455   3.076 -1.0238  0.3666  0.6855
17153SOL     OW56269   8.382   6.038   7.775  0.3634  0.1994  0.2822
17153SOL    HW156270   8.361   6.127   7.802  0.8693  1.1779 -2.3055
17153SOL    HW256271   8.345   6.030   7.687  0.4092 -2.1439  0.4078
17154SOL     OW56272   2.557  11.676   5.413 -0.1774 -0.2851  0.0890
17154SOL    HW156273   2.602  11.705   5.492 -1.4647 -0.2237  0.8237
17154SOL    HW256274   2.534  11.758   5.368 -0.4689 -0.2863  0.2379
17155SOL     OW56275  10.773  10.609   9.824 -0.2614 -0.0769 -0.3144
17155SOL    HW156276  10.729  10.539   9.776  1.4572 -0.3840 -1.5142
17155SOL    HW256277  10.855  10.569   9.854 -0.1775  0.8461  0.7463
17156SOL     OW56278   1.607   1.862   0.985 -0.1428 -0.1120  0.8261
17156SOL    HW156279   1.626   1.945   0.941 -1.2108 -0.4225 -0.2913
17156SOL    HW256280   1.549   1.886   1.058 -1.5897  0.0324 -0.3089
17157SOL     OW56281   5.853   1.006   5.547  0.1584 -0.1570 -0.1531
17157SOL    HW156282   5.779   1.044   5.594  1.3838  1.1909  0.7997
17157SOL    HW256283   5.908   0.969   5.616  0.3433 -1.2135 -0.8513
17158SOL     OW56284   4.612  11.612   7.088  0.6326 -0.3695  0.1786
17158SOL    HW156285   4.702  11.623   7.057  0.0731  0.4753 -1.2735
17158SOL    HW256286   4.566  11.689   7.055 -0.8181 -1.2251  0.1264
17159SOL     OW56287  10.880  12.639   1.104 -0.1030 -0.2188 -0.4406
17159SOL    HW156288  10.802  12.646   1.050  0.8819  0.3721 -1.8626
17159SOL    HW256289  10.923  12.559   1.075  0.4583  0.1232 -0.5824
17160SOL     OW56290   1.347   5.200   4.711 -0.2801 -0.3974 -0.3704
17160SOL    HW156291   1.339   5.227   4.620 -0.6457  1.2726  0.1360
17160SOL    HW256292   1.278   5.247   4.757 -1.8440 -3.1861  0.4133
17161SOL     OW56293   6.217  11.129   8.585 -0.0851  0.6908  0.3218
17161SOL    HW156294   6.136  11.078   8.588  0.2260  0.1062 -0.8190
17161SOL    HW256295   6.274  11.087   8.649  0.8739 -1.7028 -1.9285
17162SOL     OW56296  10.513   2.428  10.766  0.4983  0.5211  0.2956
17162SOL    HW156297  10.596   2.475  10.768  1.0862 -0.5200  1.1762
17162SOL    HW256298  10.526   2.359  10.700 -0.0557  1.0093 -0.3477
17163SOL     OW56299   9.132   5.106   6.818 -0.4289 -0.3218  0.6040
17163SOL    HW156300   9.074   5.030   6.830 -0.8675  0.0522  0.8804
17163SOL    HW256301   9.073   5.177   6.793  0.1551 -0.4748 -1.4550
17164SOL     OW56302   6.390   2.137   7.506  0.3705 -0.8185  0.0643
17164SOL    HW156303   6.332   2.128   7.581 -0.3215  1.4479 -0.1236
17164SOL    HW256304   6.336   2.113   7.430 -0.3968  1.2402 -0.1053
17165SOL     OW56305   0.027   3.329   7.962 -0.1593  0.4291 -0.0846
17165SOL    HW156306  -0.025   3.391   8.014 -0.9204 -0.9141  0.8131
17165SOL    HW256307  -0.034   3.299   7.894  1.0613  2.8146 -2.4366
17166SOL     OW56308  11.289   2.454   7.097  0.0479  0.1425  0.0240
17166SOL    HW156309  11.198   2.453   7.125 -0.5024  0.4687 -1.6317
17166SOL    HW256310  11.336   2.498   7.167 -1.3430  1.4780  0.1696
17167SOL     OW56311   7.646   0.435   1.452  0.2718 -0.1550 -0.1723
17167SOL    HW156312   7.583   0.471   1.515  0.2026  0.3614 -0.5282
17167SOL    HW256313   7.728   0.480   1.471  0.9078 -1.7738  1.1670
17168SOL     OW56314  10.483  11.352   6.300  0.4176 -0.3328  0.4069
17168SOL    HW156315  10.502  11.359   6.207  1.0184 -0.1714  0.5418
17168SOL    HW256316  10.397  11.309   6.303  0.1169  0.2073 -0.2288
17169SOL     OW56317   5.475   4.935   4.426  0.0080 -0.0169  0.1553
17169SOL    HW156318   5.443   4.929   4.516  0.2706  1.4504  0.3812
17169SOL    HW256319   5.421   5.004   4.387  0.6667  0.1537 -0.4639
17170SOL     OW56320   7.988   3.204   8.120 -0.1430  0.1342 -0.5491
17170SOL    HW156321   7.963   3.296   8.115 -4.2048 -0.8598 -3.6867
17170SOL    HW256322   7.933   3.168   8.190  2.0706  0.0811  1.2947
17171SOL     OW56323  12.147   8.529   2.394  0.1467  0.2275  0.1136
17171SOL    HW156324  12.144   8.456   2.455  0.6470 -0.6838 -0.9215
17171SOL    HW256325  12.074   8.513   2.334  2.3420 -1.4385 -2.3005
17172SOL     OW56326   1.152   7.930   6.101  0.3820 -0.2694  0.0473
17172SOL    HW156327   1.143   7.842   6.137 -0.3488  0.4184  1.6388
17172SOL    HW256328   1.128   7.920   6.008 -1.2885 -1.4584  0.5489
17173SOL     OW56329   4.291   6.684   1.867 -0.2354 -0.0339 -0.6531
17173SOL    HW156330   4.345   6.607   1.848 -0.3351 -0.7083  1.4905
17173SOL    HW256331   4.353   6.750   1.898 -0.3876 -0.0030 -0.4138
17174SOL     OW56332   5.559   4.540  11.632 -0.1068 -0.5595  0.0007
17174SOL    HW156333   5.589   4.587  11.709  0.3039 -1.9188  0.6951
17174SOL    HW256334   5.465   4.555  11.629 -0.2709 -1.2234  1.2968
17175SOL     OW56335  12.338  11.535   0.264  0.3650  0.1028 -0.3977
17175SOL    HW156336  12.266  11.510   0.322  1.6906 -1.0277  0.8384
17175SOL    HW256337  12.416  11.498   0.306  1.7169  1.5985 -1.4939
17176SOL     OW56338   4.056  12.244   6.298 -0.5779  0.1704 -0.1234
17176SOL    HW156339   4.139  12.217   6.259 -1.2698 -1.5836 -0.4552
17176SOL    HW256340   4.062  12.214   6.389 -0.9038 -0.0655 -0.1809
17177SOL     OW56341   8.694  10.963   7.589 -0.2329 -0.1331 -0.3489
17177SOL    HW156342   8.733  10.945   7.504  1.7782  0.7793  0.3129
17177SOL    HW256343   8.748  10.913   7.651 -0.3799  0.8015  0.5672
17178SOL     OW56344  12.336   4.952   7.868  0.5991  0.1173 -0.4623
17178SOL    HW156345  12.271   4.974   7.801 -0.1732 -0.0302  0.2247
17178SOL    HW256346  12.367   5.037   7.900 -0.1475  0.1968  0.0568
17179SOL     OW56347  10.540  10.102  12.580  0.1948  0.4844  0.3449
17179SOL    HW156348  10.539  10.192  12.612  3.5763  0.5672  0.4992
17179SOL    HW256349  10.535  10.110  12.485  0.2026  0.8075  0.3706
17180SOL     OW56350   8.507   1.332  10.571 -0.2046  0.0448  0.1933
17180SOL    HW156351   8.483   1.402  10.509  1.0407  0.8290  0.5656
17180SOL    HW256352   8.550   1.378  10.643 -1.5276 -0.8701  1.6229
17181SOL     OW56353   5.788   0.010  11.198 -0.0838  0.3098 -0.6184
17181SOL    HW156354   5.857   0.059  11.244  0.4226 -0.2113 -0.8178
17181SOL    HW256355   5.759   0.069  11.129 -0.5762  0.9467  0.1040
17182SOL     OW56356   8.378  11.216   6.281 -0.0190 -0.7858  0.2128
17182SOL    HW156357   8.330  11.213   6.364  1.2405 -2.3219  0.9301
17182SOL    HW256358   8.415  11.304   6.279 -3.2558  0.7076 -0.6727
17183SOL     OW56359   3.972   1.941   6.070 -0.2473 -0.4786 -0.2560
17183SOL    HW156360   4.038   2.008   6.055 -0.0603 -0.5283  0.3397
17183SOL    HW256361   3.976   1.886   5.991  0.8033 -0.7968  0.0054
17184SOL     OW56362   9.268   7.076   6.546  0.8060 -0.0492 -0.0291
17184SOL    HW156363   9.267   7.088   6.451 -1.1422  0.4873  0.0326
17184SOL    HW256364   9.317   7.152   6.578  2.7013 -0.9378 -0.6334
17185SOL     OW56365   7.672  11.974  10.006 -0.7264  0.1890  0.2357
17185SOL    HW156366   7.712  11.892   9.977 -2.4415 -1.3049  1.8890
17185SOL    HW256367   7.627  12.007   9.928  2.1966  1.1035 -1.2310
17186SOL     OW56368   6.692   2.666   3.435  0.3255 -0.1181 -0.1964
17186SOL    HW156369   6.775   2.705   3.463  0.5759  1.1321 -2.4907
17186SOL    HW256370   6.718   2.592   3.380 -0.1573 -1.9542  1.8838
17187SOL     OW56371   3.370   7.649  12.578 -0.1473  0.0282  0.7079
17187SOL    HW156372   3.346   7.605  12.497  1.3549  0.0564  0.2098
17187SOL    HW256373   3.415   7.729  12.549  1.0466 -0.3152  1.5447
17188SOL     OW56374  10.786   8.396   5.408  0.2444  0.1956  0.3649
17188SOL    HW156375  10.705   8.404   5.357  0.0905 -2.5465 -0.0004
17188SOL    HW256376  10.824   8.483   5.408 -2.2497  1.3720 -0.2359
17189SOL     OW56377   8.900   5.426   5.117  0.2173 -0.6418  0.1224
17189SOL    HW156378   8.836   5.488   5.081 -0.3953 -2.8007 -3.0188
17189SOL    HW256379   8.848   5.371   5.177 -0.2000 -0.5566 -0.1513
17190SOL     OW56380   8.485   6.928   7.154  0.3271 -0.3236  0.3621
17190SOL    HW156381   8.561   6.944   7.098  1.1397 -1.8039  0.9820
17190SOL    HW256382   8.412   6.967   7.107  1.4212  0.9062 -0.3783
17191SOL     OW56383   1.701  11.382  12.137  0.3960  0.4827 -0.9804
17191SOL    HW156384   1.753  11.444  12.189 -1.2589  0.0142  1.3932
17191SOL    HW256385   1.745  11.298  12.151 -0.4056  0.2495  0.2351
17192SOL     OW56386   3.197   8.351   7.453  0.1418 -0.0280  0.1018
17192SOL    HW156387   3.121   8.295   7.437  0.9615 -0.2857 -3.9148
17192SOL    HW256388   3.221   8.385   7.367  2.7564  2.5403  1.6325
17193SOL     OW56389   2.767  11.801   3.043 -0.0166  0.0921 -0.0460
17193SOL    HW156390   2.825  11.739   2.998 -1.6603 -0.5715 -1.3479
17193SOL    HW256391   2.808  11.886   3.028  2.1661 -0.5800  1.5850
17194SOL     OW56392   8.664   1.178   4.971  0.6786  0.5776 -0.0096
17194SOL    HW156393   8.659   1.202   5.064 -0.1166  0.6457 -0.0644
17194SOL    HW256394   8.575   1.188   4.939  0.2876 -2.2749 -0.0877
17195SOL     OW56395   6.628   0.616   7.848 -0.1972 -0.3227 -0.2478
17195SOL    HW156396   6.603   0.608   7.755 -0.8272 -0.5216 -0.0693
17195SOL    HW256397   6.596   0.703   7.873  1.5448  0.4894 -0.6686
17196SOL     OW56398   7.460  12.389   6.016 -0.5040  0.1529  0.2690
17196SOL    HW156399   7.498  12.477   6.011  0.6812 -0.3011  0.9965
17196SOL    HW256400   7.534  12.330   6.002 -0.8261 -0.7627  2.1314
17197SOL     OW56401   9.214   7.851   4.786 -0.2699 -0.0165 -0.2663
17197SOL    HW156402   9.177   7.935   4.815 -1.5502 -0.4552 -0.5787
17197SOL    HW256403   9.211   7.855   4.690 -1.8597 -1.0421 -0.2919
17198SOL     OW56404  11.070   2.572   4.237 -0.0187 -0.4185 -0.2882
17198SOL    HW156405  10.987   2.524   4.244 -0.0135 -0.4573 -0.5116
17198SOL    HW256406  11.137   2.510   4.265 -0.1067 -0.2559  0.3151
17199SOL     OW56407   3.124   6.187   1.800  0.5851 -0.2085  0.1856
17199SOL    HW156408   3.084   6.114   1.753  0.3185 -1.4345  2.2097
17199SOL    HW256409   3.210   6.198   1.758 -0.3503  0.0448 -1.7964
17200SOL     OW56410  11.719   8.738   1.908  0.3922 -0.3232 -0.4058
17200SOL    HW156411  11.663   8.763   1.835 -0.9958  3.0071  1.5717
17200SOL    HW256412  11.739   8.820   1.953  1.9667 -2.0730  2.4297
17201SOL     OW56413   4.921   3.589  10.569  0.0956  0.1215  0.6539
17201SOL    HW156414   4.843   3.540  10.595  0.5425 -1.7350 -1.2195
17201SOL    HW256415   4.988   3.522  10.555  1.5240  1.5227  0.5148
17202SOL     OW56416   0.345   5.582  10.766  0.0499 -0.9803 -0.3131
17202SOL    HW156417   0.410   5.612  10.702  1.2420 -1.4710  0.6285
17202SOL    HW256418   0.348   5.647  10.836 -0.9023 -0.7062 -0.5050
17203SOL     OW56419   0.762   2.671  11.860 -0.6253  0.0793  0.0023
17203SOL    HW156420   0.729   2.698  11.946 -1.1319  0.8190 -0.4166
17203SOL    HW256421   0.689   2.686  11.800  0.2147  1.0923 -0.8178
17204SOL     OW56422   8.800   7.104   3.740 -0.1687 -0.5093  0.7454
17204SOL    HW156423   8.893   7.113   3.720 -0.2919 -1.1345 -0.1796
17204SOL    HW256424   8.770   7.032   3.685 -1.4197  0.3305  0.2691
17205SOL     OW56425   1.849   1.854   4.218 -0.2796  0.0288  0.4696
17205SOL    HW156426   1.763   1.831   4.253  0.1826 -1.5196  0.6591
17205SOL    HW256427   1.830   1.915   4.146 -1.6386 -1.3294 -0.3904
17206SOL     OW56428   3.457  10.900   5.979  0.3556 -0.0249 -0.2325
17206SOL    HW156429   3.398  10.946   6.039  0.7654  0.8517 -0.4909
17206SOL    HW256430   3.540  10.894   6.027  1.1462  2.0026 -1.2154
17207SOL     OW56431   3.972  10.260   5.925 -0.0107 -0.1393 -0.1315
17207SOL    HW156432   4.051  10.255   5.872  0.9746 -0.0839  1.2773
17207SOL    HW256433   3.998  10.307   6.004 -1.2158 -0.8790  0.7537
17208SOL     OW56434   6.648   5.219   0.886  0.0127 -0.1093  0.5385
17208SOL    HW156435   6.606   5.133   0.881 -1.3429  0.4659  1.4308
17208SOL    HW256436   6.583   5.279   0.849  2.0684  0.2673 -2.9686
17209SOL     OW56437   4.546   9.442   2.479 -0.0231  0.3243 -0.4160
17209SOL    HW156438   4.458   9.458   2.446 -0.0130 -1.4594 -1.4127
17209SOL    HW256439   4.603   9.496   2.424 -0.4265  0.9808 -0.1942
17210SOL     OW56440   6.542  10.218   8.647  0.3083  0.3728 -0.2750
17210SOL    HW156441   6.580  10.282   8.586 -0.2493 -0.5012 -1.5865
17210SOL    HW256442   6.461  10.190   8.605  0.7464 -1.5059  0.0382
17211SOL     OW56443   3.310  10.665   8.154 -0.2100  0.1172  0.1286
17211SOL    HW156444   3.309  10.590   8.214  0.8553 -0.2237 -0.2674
17211SOL    HW256445   3.361  10.731   8.201 -0.5689  0.3608  0.1829
17212SOL     OW56446  11.256   6.444   4.965  0.9587 -0.0191  0.0534
17212SOL    HW156447  11.197   6.373   4.990  3.3590 -1.4714  2.1155
17212SOL    HW256448  11.282   6.483   5.048  2.8825  0.5365 -0.7653
17213SOL     OW56449   1.288   8.367   2.370  0.3414 -0.1750 -0.0174
17213SOL    HW156450   1.213   8.338   2.422  0.6258 -0.5578  0.1845
17213SOL    HW256451   1.250   8.411   2.294 -0.0819  0.2400  0.4276
17214SOL     OW56452   3.077  10.411   4.604  0.4824 -0.0136  0.2568
17214SOL    HW156453   3.162  10.445   4.633 -0.1243  0.5987  1.3729
17214SOL    HW256454   3.028  10.488   4.577 -0.2707 -0.1725  1.1155
17215SOL     OW56455   9.227   7.221   5.074  0.3789 -0.6962  0.0144
17215SOL    HW156456   9.205   7.161   5.145  0.7473  0.8859  1.5382
17215SOL    HW256457   9.320   7.204   5.057  0.7547  0.0875  1.1478
17216SOL     OW56458   1.444   2.075   6.642 -0.5053  0.2989 -0.2735
17216SOL    HW156459   1.375   2.017   6.610 -0.3107  0.8735 -1.8674
17216SOL    HW256460   1.406   2.163   6.633  0.0573  0.5518 -0.1908
17217SOL     OW56461  10.608   4.805   0.577 -0.3698 -0.4495  0.3134
17217SOL    HW156462  10.688   4.796   0.524 -0.4275  0.6870 -0.0024
17217SOL    HW256463  10.542   4.756   0.529 -0.3997  0.5032 -0.6637
17218SOL     OW56464   0.116   0.504   5.893  0.0127  0.2306  0.0837
17218SOL    HW156465   0.020   0.502   5.893  0.0199 -0.2070  0.1157
17218SOL    HW256466   0.139   0.584   5.844 -0.3794  1.0212  1.1479
17219SOL     OW56467   0.807   0.467   0.407 -0.0684 -0.6492 -0.4417
17219SOL    HW156468   0.826   0.477   0.500 -1.7632 -0.0639 -0.1273
17219SOL    HW256469   0.713   0.479   0.400  0.0742 -0.2933 -2.2902
17220SOL     OW56470   3.132   4.336   8.244 -0.5548  0.1727 -0.1587
17220SOL    HW156471   3.123   4.309   8.152 -1.6729 -0.0426 -0.0042
17220SOL    HW256472   3.216   4.300   8.272 -1.9085 -3.2472  0.0285
17221SOL     OW56473   6.031   1.736   9.975 -0.3933 -0.2084 -0.1952
17221SOL    HW156474   5.941   1.750  10.001  0.2784  1.2563  1.5170
17221SOL    HW256475   6.041   1.785   9.893 -0.9037  0.3544  0.0833
17222SOL     OW56476   0.130   4.219   5.087 -0.4798  0.3108 -0.0786
17222SOL    HW156477   0.123   4.141   5.142 -0.2827  0.4584  0.1604
17222SOL    HW256478   0.183   4.280   5.139 -0.6108  0.5925 -0.2741
17223SOL     OW56479   7.754   7.931   3.565 -0.1934  0.1597 -0.1524
17223SOL    HW156480   7.738   7.937   3.659  0.6990  2.1769 -0.0659
17223SOL    HW256481   7.752   8.022   3.535 -0.1048 -0.4187 -2.0280
17224SOL     OW56482   6.966  10.331   6.343  0.3865 -0.4148  0.1914
17224SOL    HW156483   7.043  10.274   6.348 -0.0729 -1.0836 -0.2055
17224SOL    HW256484   6.891  10.271   6.341 -0.0643  0.1422 -1.3452
17225SOL     OW56485   8.759   5.530   1.305 -0.8191 -0.0839  0.7684
17225SOL    HW156486   8.790   5.507   1.392 -0.9211  0.2087  0.8831
17225SOL    HW256487   8.799   5.466   1.247  1.2341  1.1600  0.7084
17226SOL     OW56488   3.459   4.678   5.211 -0.7058 -0.2031  0.2267
17226SOL    HW156489   3.471   4.758   5.161 -1.0711  0.6136  1.3895
17226SOL    HW256490   3.364   4.673   5.225 -0.5958 -0.3389  0.9444
17227SOL     OW56491   8.648   0.189   4.433 -0.0858  0.4389 -0.2283
17227SOL    HW156492   8.582   0.144   4.486  0.2633 -0.5764 -0.6281
17227SOL    HW256493   8.711   0.223   4.497  0.0034 -0.2371  0.0537
17228SOL     OW56494   6.794   1.015   3.233 -0.1889  0.0143  0.6024
17228SOL    HW156495   6.871   1.068   3.213 -0.5015  0.7894  1.3708
17228SOL    HW256496   6.776   0.967   3.152  0.5311  0.5456  0.1139
17229SOL     OW56497  12.280   6.514   3.243 -0.0837  0.1423 -0.2256
17229SOL    HW156498  12.293   6.485   3.333  0.1724  1.3486  0.1489
17229SOL    HW256499  12.188   6.496   3.224  0.0050 -0.6414  0.0747
17230SOL     OW56500   3.596   5.096   5.921 -0.0500 -0.3186 -0.5452
17230SOL    HW156501   3.593   5.002   5.938  2.3088 -0.4455 -0.4750
17230SOL    HW256502   3.623   5.103   5.830  0.4485  0.2715 -0.3577
17231SOL     OW56503   4.193   4.357  10.074  0.9244  0.0211  0.1062
17231SOL    HW156504   4.203   4.447  10.044  0.6228 -0.4025 -1.3146
17231SOL    HW256505   4.144   4.313  10.004  1.2161 -1.2854  0.6930
17232SOL     OW56506   2.900   1.336  11.461  0.1494 -0.0082  0.0525
17232SOL    HW156507   2.820   1.282  11.465  0.3919 -0.3203  2.1113
17232SOL    HW256508   2.967   1.282  11.504  1.4638  0.3020 -1.5426
17233SOL     OW56509   5.768   6.612   7.062  0.2366 -0.3641  0.4721
17233SOL    HW156510   5.821   6.536   7.038 -0.1953 -0.4194 -0.3599
17233SOL    HW256511   5.772   6.615   7.157  1.6029 -0.4433  0.4301
17234SOL     OW56512   2.950   0.726   1.229  0.0915  0.3817 -0.2264
17234SOL    HW156513   2.962   0.701   1.320 -0.4753  0.0770 -0.2332
17234SOL    HW256514   3.039   0.744   1.197  0.4888 -1.1632 -0.0812
17235SOL     OW56515  11.270   8.331   6.735  0.3805 -0.0190 -0.3446
17235SOL    HW156516  11.219   8.378   6.669 -2.3009 -2.9777 -0.6339
17235SOL    HW256517  11.257   8.380   6.816 -2.3109 -0.1294 -0.6192
17236SOL     OW56518   4.986   1.347   6.006 -0.0144  0.3301 -0.1879
17236SOL    HW156519   5.000   1.280   6.073 -0.3567  1.8336  1.4526
17236SOL    HW256520   5.073   1.384   5.990 -0.1338  0.8984  0.4524
17237SOL     OW56521   3.372   6.029   1.735 -0.4316 -0.0099 -0.0198
17237SOL    HW156522   3.407   6.017   1.646  1.8571 -3.4745  1.1118
17237SOL    HW256523   3.420   6.104   1.770  0.5160 -0.1618 -0.9349
17238SOL     OW56524  11.254   4.932   0.792 -0.1282  0.0594 -0.2918
17238SOL    HW156525  11.307   5.012   0.801 -0.0972  0.4151 -2.9301
17238SOL    HW256526  11.217   4.919   0.879  1.3206  1.9042  0.6964
17239SOL     OW56527   7.954   5.827  10.319  0.1847 -0.0293 -0.0849
17239SOL    HW156528   7.972   5.905  10.372  0.7496 -0.1081 -0.1546
17239SOL    HW256529   7.969   5.856  10.229 -1.3080  0.2604 -0.2713
17240SOL     OW56530   6.275  11.768   7.052  0.1893 -0.7570 -0.1844
17240SOL    HW156531   6.283  11.767   6.957  1.6045 -0.4014 -0.1023
17240SOL    HW256532   6.353  11.816   7.082 -0.9046  0.3146  1.0860
17241SOL     OW56533  10.410   7.280   3.379 -0.2974  0.1359  0.1683
17241SOL    HW156534  10.321   7.270   3.346 -0.6379  0.1051  1.0715
17241SOL    HW256535  10.402   7.272   3.474  0.7502 -0.4595  0.2272
17242SOL     OW56536  11.591  10.467  12.096  0.0386  0.0630  0.6489
17242SOL    HW156537  11.619  10.453  12.187  0.3637  0.8358  0.6707
17242SOL    HW256538  11.500  10.495  12.103 -0.7402 -2.2156  0.5914
17243SOL     OW56539   0.410   7.515   2.687 -0.2212 -0.1088 -0.5941
17243SOL    HW156540   0.486   7.503   2.632  0.0378  2.6217 -0.9916
17243SOL    HW256541   0.445   7.549   2.770 -0.9330  0.8698 -0.6679
17244SOL     OW56542   0.200   7.699   2.772  0.2146 -0.1371 -0.2764
17244SOL    HW156543   0.171   7.658   2.690  1.8509 -2.3814  0.1982
17244SOL    HW256544   0.268   7.760   2.745  0.6739 -0.7906 -0.6205
17245SOL     OW56545   1.215   4.792  11.428  0.8290 -0.1281  0.1612
17245SOL    HW156546   1.180   4.708  11.457 -0.8173  0.7703  0.8925
17245SOL    HW256547   1.175   4.806  11.342 -0.2262  0.6356  0.7503
17246SOL     OW56548   7.469   5.427   7.537 -0.2916 -0.2074  0.3514
17246SOL    HW156549   7.442   5.401   7.448 -1.0899  1.4301  0.0830
17246SOL    HW256550   7.500   5.345   7.577 -1.6201 -1.3476 -0.8107
17247SOL     OW56551   9.952   2.724   8.116 -0.0000  0.1938 -0.8849
17247SOL    HW156552   9.867   2.711   8.075 -0.8440  1.7786  0.2672
17247SOL    HW256553   9.953   2.663   8.190 -0.5553  0.8366 -0.3337
17248SOL     OW56554   8.470  11.222   4.346  0.0208 -0.1800 -0.4603
17248SOL    HW156555   8.384  11.265   4.349  0.6179  1.0168  0.1809
17248SOL    HW256556   8.530  11.291   4.320  0.8215 -0.9696 -0.7227
17249SOL     OW56557  12.331   6.733   3.018 -0.4174  0.2095  0.1117
17249SOL    HW156558  12.264   6.798   2.998 -0.0671  1.2501  2.0788
17249SOL    HW256559  12.293   6.680   3.088  0.6756  0.6368  1.0581
17250SOL     OW56560   6.394   3.423   2.019 -0.1285  0.1847  0.2679
17250SOL    HW156561   6.359   3.398   1.933 -0.3068  1.7129 -0.1203
17250SOL    HW256562   6.390   3.518   2.021  1.0203  0.2451  1.5011
17251SOL     OW56563   7.388   4.581   2.867  0.2723 -0.2459 -0.4022
17251SOL    HW156564   7.319   4.570   2.931 -0.2080 -0.1373 -0.8928
17251SOL    HW256565   7.344   4.614   2.789  0.1403 -3.8179 -2.0698
17252SOL     OW56566   8.053   2.720   0.474  0.7227 -0.0920 -0.1119
17252SOL    HW156567   8.043   2.643   0.530  0.5293  1.0010  1.4074
17252SOL    HW256568   8.146   2.724   0.454  0.8960 -0.1279  0.6870
17253SOL     OW56569   9.233  10.952   4.355  0.1121  0.0751 -0.3575
17253SOL    HW156570   9.326  10.973   4.357  0.1064  0.0591  0.3042
17253SOL    HW256571   9.190  11.034   4.330  0.2914  0.1302 -0.4879
17254SOL     OW56572  11.218   9.178   9.792 -0.1125  0.1033 -0.5360
17254SOL    HW156573  11.182   9.252   9.742 -0.9080 -0.0371 -0.1928
17254SOL    HW256574  11.219   9.106   9.730 -0.8143  0.0078 -0.4460
17255SOL     OW56575   4.477  12.029   6.282  0.2652 -0.0888 -0.0582
17255SOL    HW156576   4.469  12.004   6.374  1.3637  1.0087  0.3582
17255SOL    HW256577   4.538  11.966   6.245  2.3579  1.3549  0.7781
17256SOL     OW56578   9.180   5.679  11.762 -0.0296  0.2219 -0.0666
17256SOL    HW156579   9.199   5.743  11.830 -0.1856 -0.3356  0.5185
17256SOL    HW256580   9.255   5.619  11.764 -0.6058 -0.5102  0.4857
17257SOL     OW56581   7.959   6.159  10.922 -0.3417  0.5257 -0.3573
17257SOL    HW156582   7.928   6.129  10.837 -2.3053  0.9228  0.1717
17257SOL    HW256583   7.925   6.248  10.931 -2.3333 -0.3266  1.7965
17258SOL     OW56584   4.428  12.035   2.013  0.3861 -0.4340  0.0729
17258SOL    HW156585   4.478  12.043   2.095 -1.1280 -1.1265  1.1231
17258SOL    HW256586   4.377  12.116   2.008  1.2707  0.0948 -0.7904
17259SOL     OW56587  10.217   5.244   0.461  0.0377 -0.3403  0.2438
17259SOL    HW156588  10.178   5.169   0.505  1.8835 -1.5315 -0.0543
17259SOL    HW256589  10.278   5.280   0.525  1.9196 -1.4137 -0.8759
17260SOL     OW56590   1.386  11.850   0.577  0.2309  0.2811  0.2333
17260SOL    HW156591   1.322  11.791   0.617 -0.7495  1.5861  0.6444
17260SOL    HW256592   1.470  11.824   0.616 -0.2777 -0.3748  0.9281
17261SOL     OW56593   3.472   3.868   4.129  0.3700 -0.4653  0.5368
17261SOL    HW156594   3.383   3.875   4.093  0.9396  0.7588 -0.7336
17261SOL    HW256595   3.515   3.948   4.100  2.4993 -1.9451 -0.6377
17262SOL     OW56596   8.971   1.272   9.829 -0.1101  0.5667  0.3358
17262SOL    HW156597   8.916   1.297   9.754  1.5134 -0.0854 -1.1517
17262SOL    HW256598   9.050   1.325   9.819  1.8392 -2.2863 -0.7773
17263SOL     OW56599   9.779   4.141   5.701  0.7895 -0.2118  0.1466
17263SOL    HW156600   9.730   4.195   5.639  0.9795  0.7429  0.7985
17263SOL    HW256601   9.781   4.054   5.661  0.8272  0.3506 -1.1445
17264SOL     OW56602   7.855   6.645   9.779 -0.1213 -0.2362 -0.2342
17264SOL    HW156603   7.775   6.648   9.727  0.5827  0.2506 -1.3162
17264SOL    HW256604   7.925   6.631   9.715  1.0556  2.9025  0.2199
17265SOL     OW56605   0.447   2.592  10.596 -0.2144 -0.3666  0.4173
17265SOL    HW156606   0.456   2.549  10.681  0.0716  0.5862  0.8864
17265SOL    HW256607   0.368   2.645  10.604  0.0014 -0.0074  0.2109
17266SOL     OW56608   7.803   7.844   1.525 -0.6254  0.1117 -0.5355
17266SOL    HW156609   7.709   7.826   1.527 -0.4012 -1.1811 -0.7364
17266SOL    HW256610   7.827   7.857   1.617 -0.6237 -1.7903 -0.2314
17267SOL     OW56611   4.861   9.722   4.722 -0.0218  0.0885 -0.0573
17267SOL    HW156612   4.841   9.703   4.630 -0.5251  2.2187 -0.4584
17267SOL    HW256613   4.832   9.813   4.734 -0.9293 -0.4659  2.5142
17268SOL     OW56614   6.932  11.586   7.803  0.3312 -0.4655 -0.1974
17268SOL    HW156615   6.888  11.668   7.826 -2.7630 -2.6847  2.7910
17268SOL    HW256616   6.881  11.518   7.846  2.8616 -4.0456 -2.2732
17269SOL     OW56617  10.778   3.869  12.549  0.1400 -0.5090 -0.0978
17269SOL    HW156618  10.849   3.918  12.508  0.6212 -0.7653  0.4284
17269SOL    HW256619  10.812   3.781  12.561 -0.3435 -0.6934 -0.0324
17270SOL     OW56620   6.511   8.664   0.185 -0.1331  0.5108  0.1930
17270SOL    HW156621   6.478   8.641   0.271 -0.6150 -0.4612 -0.2281
17270SOL    HW256622   6.581   8.600   0.168 -1.2373 -0.4840 -0.8496
17271SOL     OW56623   7.297  11.211   4.549 -0.7611 -0.7685  0.0654
17271SOL    HW156624   7.202  11.196   4.552 -1.3751  2.6021  1.3527
17271SOL    HW256625   7.334  11.131   4.585 -3.0822 -2.2033 -0.4669
17272SOL     OW56626   2.949  10.202   1.790 -0.5759  0.8167  0.4495
17272SOL    HW156627   3.033  10.192   1.834 -1.2529 -0.5583  1.4925
17272SOL    HW256628   2.946  10.294   1.764  1.6663  0.6722 -0.5167
17273SOL     OW56629  10.762   9.756  10.632 -0.1105 -0.5594 -0.1273
17273SOL    HW156630  10.814   9.731  10.556  0.7833 -0.4418  0.4305
17273SOL    HW256631  10.683   9.796  10.595  0.4745 -0.1775 -0.9974
17274SOL     OW56632   0.079   7.724  11.094  0.0433  0.1676 -0.6900
17274SOL    HW156633   0.048   7.738  11.183 -0.7758  2.2989 -1.2375
17274SOL    HW256634   0.018   7.660  11.057  0.3304 -0.6485  0.2246
17275SOL     OW56635   9.074  11.932   3.335  0.7940  0.1269  0.7221
17275SOL    HW156636   8.992  11.977   3.350  0.7022 -0.2051  1.2340
17275SOL    HW256637   9.053  11.839   3.348  0.7360 -0.1866 -1.2860
17276SOL     OW56638   4.712   4.412  11.464  0.3946  0.2184  0.1144
17276SOL    HW156639   4.774   4.460  11.409 -0.1100 -1.5321 -2.1337
17276SOL    HW256640   4.629   4.416  11.416  0.1346 -2.0454  0.2445
17277SOL     OW56641   5.001   5.055   6.087  0.5901 -0.0050 -0.2357
17277SOL    HW156642   4.960   5.073   6.003  0.7379 -2.4809 -0.8988
17277SOL    HW256643   4.929   5.023   6.142  0.8761 -0.4212 -0.1011
17278SOL     OW56644  11.735   7.571   6.946 -0.3505 -0.2582  0.4174
17278SOL    HW156645  11.711   7.661   6.922  0.3896 -0.1018  0.2363
17278SOL    HW256646  11.726   7.522   6.864  0.8999  0.0064  0.1095
17279SOL     OW56647   2.783   9.857   9.213 -0.8056 -0.3976  0.5673
17279SOL    HW156648   2.698   9.847   9.170 -0.4711 -2.2429  0.2554
17279SOL    HW256649   2.776   9.805   9.293 -0.2525  0.1607  0.9910
17280SOL     OW56650   4.295  10.009   1.538 -0.2389 -0.1530 -0.1865
17280SOL    HW156651   4.259  10.097   1.527  3.7831  1.5599 -1.3109
17280SOL    HW256652   4.323   9.983   1.450 -2.0784 -3.0501 -0.0439
17281SOL     OW56653   9.381   7.977  11.712 -0.4304 -0.4697  0.0513
17281SOL    HW156654   9.313   7.967  11.779 -0.0700  0.8777  0.6519
17281SOL    HW256655   9.436   7.900  11.722 -0.3385 -0.2626  1.3704
17282SOL     OW56656  11.705   6.953   4.507  0.1024  0.0112  0.1096
17282SOL    HW156657  11.777   6.944   4.445  0.0293  1.1048 -0.1499
17282SOL    HW256658  11.650   7.022   4.471 -0.4264  0.0402  0.9391
17283SOL     OW56659   0.263   0.209  12.002 -0.0967  0.2738  0.7407
17283SOL    HW156660   0.181   0.218  12.050  0.9696  2.3796  2.3211
17283SOL    HW256661   0.328   0.253  12.056  1.3287  2.3573 -2.3405
17284SOL     OW56662   2.438   0.281   1.446  0.0718 -0.1712 -0.1369
17284SOL    HW156663   2.435   0.337   1.523  0.9340  1.2572 -1.0870
17284SOL    HW256664   2.530   0.258   1.436  0.1320  0.4739 -1.2782
17285SOL     OW56665  12.372  12.236   1.161  0.0442 -0.4513  0.1133
17285SOL    HW156666  12.328  12.176   1.102 -0.1626  0.3780 -0.5878
17285SOL    HW256667  12.436  12.282   1.107 -2.1084  2.4128 -0.2192
17286SOL     OW56668   6.400  12.033   9.981  0.4311  0.1700 -0.8002
17286SOL    HW156669   6.366  12.084  10.054 -0.3355  0.0146 -1.0359
17286SOL    HW256670   6.353  12.066   9.904  0.0070 -0.7870 -0.9757
17287SOL     OW56671   5.800   2.880   8.720  0.1486 -0.2384 -0.1704
17287SOL    HW156672   5.789   2.938   8.644 -0.3711  2.3404  1.7399
17287SOL    HW256673   5.887   2.901   8.754 -0.2834 -0.1281  0.8953
17288SOL     OW56674  12.194   3.372   7.859 -0.0907 -0.4647 -0.0640
17288SOL    HW156675  12.134   3.330   7.798 -0.9639  0.9187 -0.1811
17288SOL    HW256676  12.194   3.314   7.936 -1.6058 -0.4668 -0.0465
17289SOL     OW56677   1.692   5.211  12.399 -0.5856 -0.6698 -0.0558
17289SOL    HW156678   1.701   5.299  12.365 -2.1473 -0.9353 -1.2429
17289SOL    HW256679   1.660   5.223  12.489  1.9604 -0.0107  0.8389
17290SOL     OW56680   6.538   5.222   9.439  0.6431 -0.2859  0.3325
17290SOL    HW156681   6.600   5.272   9.386 -0.3679  0.0457 -0.5547
17290SOL    HW256682   6.507   5.153   9.381 -0.2025 -0.1385  0.5971
17291SOL     OW56683   4.397   9.422   3.755  0.4614  0.2467 -0.2304
17291SOL    HW156684   4.481   9.389   3.787  0.3990  1.7033  1.5953
17291SOL    HW256685   4.335   9.353   3.775  0.8887  0.0219  0.3588
17292SOL     OW56686   1.544  12.460  11.820  0.0185  0.0783  0.2940
17292SOL    HW156687   1.614  12.493  11.875  0.8219 -0.1284 -0.5808
17292SOL    HW256688   1.566  12.489  11.732 -1.3012  0.4980  0.0713
17293SOL     OW56689   8.058  10.542  12.178  0.0455  0.2904 -0.2273
17293SOL    HW156690   8.010  10.607  12.230  0.4144 -0.0933  0.6192
17293SOL    HW256691   8.046  10.461  12.226  1.0128  0.0659 -0.3585
17294SOL     OW56692   6.528   3.756   8.449  0.1964  0.0337 -0.0388
17294SOL    HW156693   6.584   3.803   8.511 -1.9382  1.2955  1.0779
17294SOL    HW256694   6.565   3.776   8.363  1.8877  0.1238  0.6609
17295SOL     OW56695   2.653  11.061   8.436  0.1624  0.4032  0.3427
17295SOL    HW156696   2.559  11.077   8.434 -0.1093 -0.4711  2.6763
17295SOL    HW256697   2.687  11.127   8.496  0.5916 -0.8980  1.6067
17296SOL     OW56698   7.365   9.802   4.753 -0.8661 -0.1266 -0.5444
17296SOL    HW156699   7.437   9.784   4.693 -1.3019  2.7569 -2.0914
17296SOL    HW256700   7.394   9.878   4.803 -2.3543  0.3605 -0.3794
17297SOL     OW56701   5.451   7.486   3.824 -0.1361 -0.4341  0.4765
17297SOL    HW156702   5.413   7.532   3.899  0.1393 -2.0072  1.6523
17297SOL    HW256703   5.504   7.417   3.864 -1.4102 -2.4771 -1.1526
17298SOL     OW56704   9.095   2.708   5.923 -0.0808  0.2341 -0.2563
17298SOL    HW156705   9.101   2.614   5.937  0.0007  0.3270  0.3825
17298SOL    HW256706   9.073   2.718   5.830 -0.2285 -0.4149 -0.2937
17299SOL     OW56707   7.481   4.527   8.148 -0.4548  0.4720  0.0578
17299SOL    HW156708   7.449   4.485   8.228  0.4154  2.5365  1.5987
17299SOL    HW256709   7.573   4.548   8.168 -0.4004  1.5711 -1.2322
17300SOL     OW56710   2.375   9.035  12.532  0.0617  0.1737  0.5655
17300SOL    HW156711   2.357   8.943  12.515 -1.3550  0.8314 -2.1308
17300SOL    HW256712   2.466   9.037  12.561  0.9481 -1.9020 -1.7129
17301SOL     OW56713   5.671   6.988   9.346 -0.0058 -0.0742 -0.7176
17301SOL    HW156714   5.602   6.935   9.384 -0.9877  0.2157 -2.0445
17301SOL    HW256715   5.625   7.058   9.299  1.1703  0.0613 -1.7170
17302SOL     OW56716  11.838   9.564   0.440  0.2291 -0.5273 -0.3060
17302SOL    HW156717  11.805   9.544   0.527 -1.5166  0.7651 -0.6230
17302SOL    HW256718  11.861   9.657   0.444  0.2774 -0.4934 -1.1869
17303SOL     OW56719   8.492   1.171   5.787  0.2463  0.3125  0.2283
17303SOL    HW156720   8.448   1.247   5.824 -1.9340  0.3762 -2.2054
17303SOL    HW256721   8.423   1.107   5.774  1.3410 -0.6207 -1.3172
17304SOL     OW56722   2.671  12.334   4.725  0.5144 -0.2189  0.0971
17304SOL    HW156723   2.762  12.304   4.729  0.6695  0.3504  2.2750
17304SOL    HW256724   2.623  12.260   4.689  2.0152  0.0744 -2.7953
17305SOL     OW56725   6.581   4.905   7.781  0.2816 -0.1454  0.3743
17305SOL    HW156726   6.503   4.911   7.726  0.8122  0.2242 -0.3571
17305SOL    HW256727   6.608   4.996   7.795  1.0818 -0.2896 -0.1343
17306SOL     OW56728   4.192  10.179   9.121  0.2405 -0.0993  0.1520
17306SOL    HW156729   4.240  10.243   9.173  0.3989 -2.0199  2.5836
17306SOL    HW256730   4.100  10.201   9.133  0.2748 -0.5180  1.3528
17307SOL     OW56731   2.538   4.177   2.732 -0.8711 -0.1153 -0.1776
17307SOL    HW156732   2.482   4.134   2.667 -0.8069  2.2989 -1.9658
17307SOL    HW256733   2.485   4.178   2.812 -1.3077 -2.3747 -0.3839
17308SOL     OW56734  11.091   3.278   7.249  0.2856  0.1110 -0.7214
17308SOL    HW156735  11.157   3.347   7.236  0.5659  0.5206  2.1118
17308SOL    HW256736  11.112   3.243   7.336 -0.9937 -2.3216 -1.3335
17309SOL     OW56737  11.706  11.679   7.582  0.0734  0.2469  0.1954
17309SOL    HW156738  11.719  11.769   7.552 -0.7951  0.0840 -0.7341
17309SOL    HW256739  11.793  11.639   7.580  0.2502  0.6732 -0.7183
17310SOL     OW56740   3.161  11.911   0.529 -0.4050  0.3199  0.2202
17310SOL    HW156741   3.207  11.891   0.611 -0.4441  1.3879  0.5223
17310SOL    HW256742   3.172  12.005   0.518  0.0888  0.0971 -1.3253
17311SOL     OW56743  11.438   5.811   6.818 -0.0726  0.1342  0.1691
17311SOL    HW156744  11.497   5.744   6.854  0.2899  0.0608 -0.5488
17311SOL    HW256745  11.381   5.764   6.759  0.7062  0.5669 -0.9592
17312SOL     OW56746   1.156  11.527   1.951 -0.1629  0.0987 -0.1985
17312SOL    HW156747   1.235  11.476   1.932  0.1222  0.1481  0.7866
17312SOL    HW256748   1.187  11.601   2.003 -0.3529  2.1568 -2.7908
17313SOL     OW56749   1.816  10.642   3.723 -0.2561  0.0470 -0.2909
17313SOL    HW156750   1.797  10.580   3.793  0.4115 -1.5578 -1.4643
17313SOL    HW256751   1.905  10.673   3.741 -0.3164  0.1002 -0.0907
17314SOL     OW56752   2.244   5.493   5.877  0.3306 -0.3830 -0.0660
17314SOL    HW156753   2.272   5.556   5.943  0.1623 -1.1185  0.7284
17314SOL    HW256754   2.211   5.546   5.805 -1.0738  0.4191  1.1312
17315SOL     OW56755   8.031  12.173   5.594  0.2517  0.7523 -0.7481
17315SOL    HW156756   7.983  12.222   5.527  0.2428 -0.0856 -1.3644
17315SOL    HW256757   8.059  12.240   5.657 -1.2104  1.3312 -0.6797
17316SOL     OW56758  12.252   1.738   9.822 -0.7542  0.3290  0.3827
17316SOL    HW156759  12.165   1.751   9.787 -0.2056  2.1314 -0.4372
17316SOL    HW256760  12.297   1.822   9.807  1.2919 -0.7273  0.2522
17317SOL     OW56761   1.247   7.882   6.433  0.3598  0.2483 -0.5043
17317SOL    HW156762   1.311   7.864   6.364  0.1835  0.5446 -0.7504
17317SOL    HW256763   1.185   7.810   6.427  0.7720 -0.1451 -0.1354
17318SOL     OW56764   6.271   0.558  12.409  0.4019  0.5969  0.5967
17318SOL    HW156765   6.340   0.497  12.434 -0.0644  0.0485  0.5626
17318SOL    HW256766   6.289   0.579  12.317 -0.2967 -0.6936  0.1300
17319SOL     OW56767   9.004  11.931   0.935  0.0645 -0.3699 -0.3881
17319SOL    HW156768   8.916  11.917   0.970  0.2140  0.7632  0.5056
17319SOL    HW256769   9.048  11.846   0.944 -1.2318 -1.2282 -1.7942
17320SOL     OW56770   5.833   6.606   3.574 -0.3411 -0.6396  0.0865
17320SOL    HW156771   5.928   6.595   3.574 -0.4183 -1.9893 -2.1169
17320SOL    HW256772   5.818   6.688   3.621  2.0359  0.3394 -0.7174
17321SOL     OW56773   8.082  10.270   6.976  0.1028  0.3450  0.0178
17321SOL    HW156774   8.151  10.231   7.030 -0.3355  0.7793  0.9192
17321SOL    HW256775   8.002  10.226   7.004 -0.0473  0.1345 -0.7279
17322SOL     OW56776   6.724   5.364   9.310 -0.0064 -0.3440 -0.0476
17322SOL    HW156777   6.665   5.439   9.309  0.9205  0.4022 -0.5119
17322SOL    HW256778   6.803   5.395   9.265  1.7848 -0.4815  2.7511
17323SOL     OW56779   9.137  12.538   1.355  0.4358 -0.2946  0.5595
17323SOL    HW156780   9.071  12.511   1.418  0.9475  0.3036  1.3686
17323SOL    HW256781   9.103  12.618   1.316  0.0619 -0.7306 -0.0349
17324SOL     OW56782   2.704  11.734   5.652  0.5287  0.6971  0.0577
17324SOL    HW156783   2.778  11.675   5.668 -0.5403 -1.0206 -0.9827
17324SOL    HW256784   2.657  11.736   5.735  1.2289  1.0806  0.4593
17325SOL     OW56785   2.336   8.248   8.937 -0.6742 -0.5519  0.3055
17325SOL    HW156786   2.299   8.178   8.883 -0.8831 -0.7073  0.6486
17325SOL    HW256787   2.260   8.296   8.970 -0.5141  0.6004 -0.9068
17326SOL     OW56788   0.590   3.539   8.048  0.0740 -0.3037 -0.1164
17326SOL    HW156789   0.560   3.601   8.114  0.8618  2.0637 -1.8760
17326SOL    HW256790   0.678   3.569   8.025  0.0772 -1.4524 -1.7707
17327SOL     OW56791  10.181   3.021   4.448  0.4468 -0.1871  0.7397
17327SOL    HW156792  10.262   3.057   4.483  1.0439 -0.5130 -0.2726
17327SOL    HW256793  10.149   2.963   4.518  2.1966 -1.7056  0.3676
17328SOL     OW56794   9.757   4.614   2.181  0.0977 -0.2825 -0.0423
17328SOL    HW156795   9.832   4.556   2.169 -0.4387 -0.8619 -0.7051
17328SOL    HW256796   9.745   4.618   2.276 -0.0916 -1.5802  0.0054
17329SOL     OW56797  11.346   3.440  12.192  0.4921 -0.0568 -0.0585
17329SOL    HW156798  11.386   3.451  12.278  2.6146 -1.7370 -0.7519
17329SOL    HW256799  11.312   3.350  12.193  0.8248 -0.2001 -1.0754
17330SOL     OW56800   3.294   8.936   5.531  0.2778 -0.6251  0.4677
17330SOL    HW156801   3.338   8.901   5.453 -0.1341 -0.4407  0.1470
17330SOL    HW256802   3.327   9.026   5.539  0.7551 -0.8272  0.8461
17331SOL     OW56803   5.997   6.822   5.297 -0.4091  0.1369  0.1027
17331SOL    HW156804   5.995   6.912   5.332 -0.8643 -0.1755  0.9099
17331SOL    HW256805   6.017   6.768   5.373  1.9868 -0.2948 -0.7275
17332SOL     OW56806   9.625  11.736   3.068 -0.0558 -0.3888 -0.3183
17332SOL    HW156807   9.541  11.730   3.113  0.0884 -0.4220 -0.0506
17332SOL    HW256808   9.624  11.663   3.006  0.1574 -0.9543  0.3290
17333SOL     OW56809  11.584   3.443   3.133 -0.6270 -0.2959  0.3246
17333SOL    HW156810  11.646   3.505   3.096 -2.0225 -0.9021 -3.3791
17333SOL    HW256811  11.526   3.496   3.187  0.5823  0.9231  0.4835
17334SOL     OW56812   3.014   2.064   8.200  0.3121 -0.2727  0.1440
17334SOL    HW156813   3.087   2.021   8.244 -0.0404 -1.2483 -0.1964
17334SOL    HW256814   3.051   2.095   8.117  0.4123 -0.5257  0.0929
17335SOL     OW56815   4.936  11.682   3.532  0.2501 -0.0962  0.0778
17335SOL    HW156816   4.902  11.597   3.561 -0.6370  0.3232  0.3060
17335SOL    HW256817   4.871  11.745   3.563  0.6781  0.6268 -0.4728
17336SOL     OW56818   3.289   7.326  10.617  0.4903  0.1795 -0.1878
17336SOL    HW156819   3.318   7.253  10.671  0.6907  0.4154  0.0255
17336SOL    HW256820   3.205   7.297  10.581 -0.0952  0.3597  0.9737
17337SOL     OW56821   7.179   3.750  10.053  0.2882 -0.0238 -0.0436
17337SOL    HW156822   7.123   3.780   9.982 -0.2875 -0.8904  0.0302
17337SOL    HW256823   7.178   3.655  10.046  1.5301 -0.0627  0.1381
17338SOL     OW56824   1.278   5.929   6.812  0.9171 -0.1596  0.1298
17338SOL    HW156825   1.245   5.852   6.765  1.8232 -1.0358  0.8909
17338SOL    HW256826   1.371   5.911   6.825  1.3109  1.3916 -0.2841
17339SOL     OW56827   7.534   5.272   6.922 -0.0227 -0.1922  0.2934
17339SOL    HW156828   7.473   5.199   6.930  0.6453 -0.7633  0.3024
17339SOL    HW256829   7.488   5.337   6.868  0.0694 -1.3970 -1.2887
17340SOL     OW56830   4.388   6.682   6.815 -0.2875 -0.0088 -0.0840
17340SOL    HW156831   4.358   6.761   6.771  0.4632  0.4918  0.2938
17340SOL    HW256832   4.469   6.708   6.860  0.4505 -1.1969 -0.6792
17341SOL     OW56833   2.687   0.980   3.211  0.5368 -0.0318 -0.3212
17341SOL    HW156834   2.675   0.982   3.116 -0.2672  1.7453 -0.2264
17341SOL    HW256835   2.679   0.888   3.234 -0.0194 -0.4154 -1.8959
17342SOL     OW56836  11.366   9.749  10.887  0.3013 -0.8269  0.3887
17342SOL    HW156837  11.457   9.755  10.916  0.8436  1.1592 -1.4140
17342SOL    HW256838  11.372   9.742  10.791 -1.4392 -0.5537  0.2272
17343SOL     OW56839   9.777  12.471  12.080  0.3967  0.2817  0.2096
17343SOL    HW156840   9.824  12.479  11.997 -1.7589  0.0413 -1.1159
17343SOL    HW256841   9.819  12.534  12.138  1.9077  0.5166 -1.0829
17344SOL     OW56842   2.182  10.174  11.226 -0.0049 -0.2124  0.1640
17344SOL    HW156843   2.132  10.105  11.182 -0.2560 -0.4845  0.8701
17344SOL    HW256844   2.260  10.185  11.172 -0.9498  0.4423 -1.1430
17345SOL     OW56845   2.286   0.827  10.981  0.5254 -0.0798 -0.1311
17345SOL    HW156846   2.277   0.782  11.065  2.3565  1.3391  0.8876
17345SOL    HW256847   2.264   0.760  10.916 -0.8559 -1.2325  1.4369
17346SOL     OW56848   9.006  11.978   5.717  0.5931 -0.1450  0.0710
17346SOL    HW156849   9.008  11.988   5.622  0.3675  1.9216  0.2446
17346SOL    HW256850   8.920  12.012   5.743  0.4424 -1.1618  0.9847
17347SOL     OW56851   9.074   4.964   6.003 -0.2773 -0.2599  0.2094
17347SOL    HW156852   9.162   4.992   6.027 -1.1248  1.0578  2.0123
17347SOL    HW256853   9.016   5.016   6.059 -2.2460 -0.5118 -1.4515
17348SOL     OW56854   9.906  10.821   7.974 -0.1241  0.2202 -0.4138
17348SOL    HW156855   9.899  10.727   7.956  0.2811  0.2585 -0.8078
17348SOL    HW256856   9.991  10.846   7.936  1.3418  0.1155  2.5046
17349SOL     OW56857   3.164   6.699   8.627 -0.1406 -0.2696  0.4199
17349SOL    HW156858   3.174   6.666   8.716  1.6581 -0.5219  0.1585
17349SOL    HW256859   3.254   6.717   8.597 -0.5390 -1.6211 -1.8744
17350SOL     OW56860   7.992   5.240  12.296  0.0316  0.4966  0.0289
17350SOL    HW156861   7.988   5.330  12.266 -0.2045  0.4460 -0.0983
17350SOL    HW256862   8.076   5.207  12.264  0.6056  0.9813  0.9867
17351SOL     OW56863   1.417   6.400   9.683  0.1664  0.0849  0.0480
17351SOL    HW156864   1.338   6.391   9.631  1.2334 -0.6350 -1.5046
17351SOL    HW256865   1.426   6.317   9.729 -1.0079  0.8720  1.7970
17352SOL     OW56866   4.246   8.738   5.467 -0.0419 -0.3446  0.1190
17352SOL    HW156867   4.193   8.800   5.418 -0.3444 -0.4399  0.3216
17352SOL    HW256868   4.196   8.656   5.465 -0.3309 -0.1988  1.0571
17353SOL     OW56869  12.325   2.032   1.055  0.1560 -0.4245 -0.0561
17353SOL    HW156870  12.410   1.990   1.066  1.6498  2.3991  0.1795
17353SOL    HW256871  12.321   2.052   0.961 -0.3618 -0.7129 -0.1006
17354SOL     OW56872   3.728   9.921   9.979  0.5980  0.0957 -0.2075
17354SOL    HW156873   3.641   9.907  10.015  0.7371  0.1487  0.1504
17354SOL    HW256874   3.736  10.016   9.971 -0.6170  0.0409 -3.2983
17355SOL     OW56875   7.244   7.704   2.947  0.4000  0.1447 -0.5149
17355SOL    HW156876   7.239   7.794   2.980  2.8747 -0.0163  0.5019
17355SOL    HW256877   7.251   7.714   2.852 -1.0398  0.9028 -0.5699
17356SOL     OW56878   3.609   3.280  11.295  0.4017 -0.6721  0.1925
17356SOL    HW156879   3.578   3.263  11.384  1.7465 -0.3383  0.7535
17356SOL    HW256880   3.663   3.359  11.304  0.8204 -0.8274 -0.8509
17357SOL     OW56881   7.783   3.512   9.368 -1.1407 -0.3338  0.6590
17357SOL    HW156882   7.743   3.585   9.416 -1.2472  1.1836 -1.5707
17357SOL    HW256883   7.717   3.487   9.303 -0.0793 -0.5722 -0.3687
17358SOL     OW56884   0.064   4.859  12.633  0.3418 -0.3552 -0.3332
17358SOL    HW156885  -0.008   4.915  12.605  1.0847 -0.1972 -2.0903
17358SOL    HW256886   0.132   4.874  12.567  1.0823 -2.2655 -0.0528
17359SOL     OW56887   1.192   3.765  11.187 -0.4327 -0.2926 -0.3229
17359SOL    HW156888   1.112   3.754  11.239 -0.5055 -0.7449 -0.5240
17359SOL    HW256889   1.172   3.838  11.128 -0.5846 -0.2012 -0.1598
17360SOL     OW56890   3.803  11.139  11.045 -0.1864 -0.1798 -0.3880
17360SOL    HW156891   3.856  11.167  10.970 -1.0655  1.1497 -0.5340
17360SOL    HW256892   3.841  11.184  11.120 -0.9122  0.5471 -0.4480
17361SOL     OW56893  12.349   2.270  12.215  0.1591  0.5206  0.6981
17361SOL    HW156894  12.300   2.351  12.216 -0.5678  0.1014  0.1477
17361SOL    HW256895  12.394   2.270  12.130 -0.1683  0.1580  0.5250
17362SOL     OW56896   8.162  11.350   9.855 -0.1915  0.4423 -0.0478
17362SOL    HW156897   8.104  11.275   9.856  1.8719 -1.2665 -0.9076
17362SOL    HW256898   8.183  11.362   9.762  1.8009  0.1681  0.3302
17363SOL     OW56899   2.622   9.023   0.171  0.3927  0.2279  0.2405
17363SOL    HW156900   2.586   8.936   0.154 -0.9125  0.9404 -0.9376
17363SOL    HW256901   2.550   9.071   0.212  0.1144  1.5314 -1.6348
17364SOL     OW56902   7.107   2.361   7.367  0.0121  0.6347  0.1569
17364SOL    HW156903   7.166   2.306   7.316  0.0492  0.4400  0.4083
17364SOL    HW256904   7.022   2.317   7.361  0.2761 -0.0541  1.2693
17365SOL     OW56905   8.383   0.507   3.991 -0.6053  0.8095 -0.1939
17365SOL    HW156906   8.418   0.424   4.024 -3.7722 -1.2049 -1.4286
17365SOL    HW256907   8.404   0.504   3.897  0.7468  2.3183  0.0197
17366SOL     OW56908   9.840   3.403   5.814  0.6588 -0.1675 -0.4384
17366SOL    HW156909   9.746   3.418   5.818  1.0296  2.4407  0.6562
17366SOL    HW256910   9.865   3.429   5.725  0.6392  1.6537  0.0491
17367SOL     OW56911   8.752   8.469   6.106 -0.4995  0.6502  0.0068
17367SOL    HW156912   8.766   8.544   6.165  0.1060  1.1069 -0.7000
17367SOL    HW256913   8.837   8.455   6.064 -0.8412  0.1364 -0.5323
17368SOL     OW56914   7.463  10.173   9.574  0.6026  0.0010  0.6307
17368SOL    HW156915   7.424  10.108   9.515 -0.5272  0.1447  1.2038
17368SOL    HW256916   7.505  10.236   9.515 -1.4990  0.7864 -0.1029
17369SOL     OW56917   4.833   4.601   8.102  0.7602  0.2219  0.0080
17369SOL    HW156918   4.910   4.657   8.095  1.5169 -0.8112 -0.2670
17369SOL    HW256919   4.842   4.559   8.187  1.6367 -1.4560 -0.8591
17370SOL     OW56920   4.590   3.379   7.444  0.3562 -0.4403  0.2350
17370SOL    HW156921   4.671   3.426   7.425  0.0953 -0.6894 -1.7170
17370SOL    HW256922   4.565   3.408   7.532  1.4855  1.1787  0.0619
17371SOL     OW56923   3.324   4.857   8.566 -0.0705 -0.8305  0.4238
17371SOL    HW156924   3.352   4.915   8.495  0.0924 -0.8927  0.4364
17371SOL    HW256925   3.405   4.838   8.615 -0.4913  0.9860  1.9487
17372SOL     OW56926   8.642   6.218   2.185 -0.0035  0.2060  0.1075
17372SOL    HW156927   8.662   6.296   2.133 -0.3034 -0.4105 -0.9657
17372SOL    HW256928   8.669   6.145   2.130  0.1179 -0.4677  1.0319
17373SOL     OW56929   1.192   3.670   4.752 -0.2813  0.4967  0.2692
17373SOL    HW156930   1.127   3.601   4.761 -0.0773  0.1771 -0.6025
17373SOL    HW256931   1.193   3.714   4.837 -0.5874 -0.4162  0.7507
17374SOL     OW56932   5.790   3.336  10.325 -0.0366  0.5358 -0.1274
17374SOL    HW156933   5.784   3.406  10.389 -0.2383  1.8391 -1.5189
17374SOL    HW256934   5.884   3.318  10.317  0.1752  1.9065 -1.0384
17375SOL     OW56935   6.949   3.126   3.359  0.4745  0.0436 -0.0065
17375SOL    HW156936   6.891   3.050   3.360  1.2028 -0.5183  0.1880
17375SOL    HW256937   7.010   3.110   3.431  3.8926 -1.7834 -2.9966
17376SOL     OW56938   0.981   1.739   2.417  0.5268 -0.5254 -0.2379
17376SOL    HW156939   0.962   1.658   2.371  1.5537 -1.8083  1.4859
17376SOL    HW256940   1.063   1.770   2.379 -0.1809  0.0697 -1.3227
17377SOL     OW56941   5.044  12.071  12.006  0.2690  0.2747 -0.3161
17377SOL    HW156942   5.048  12.121  12.088 -1.0970  1.1679 -0.7558
17377SOL    HW256943   4.989  11.996  12.027 -0.6327  0.8482 -0.5541
17378SOL     OW56944   5.647   9.089   4.245 -0.7685 -0.2080  0.1143
17378SOL    HW156945   5.698   9.015   4.276  2.3969  2.6582  2.5020
17378SOL    HW256946   5.684   9.110   4.159 -1.4736 -1.1166 -0.4338
17379SOL     OW56947   5.826   7.727  11.963  0.0774  0.0988 -0.1684
17379SOL    HW156948   5.915   7.694  11.975 -0.6444 -2.2109 -0.7213
17379SOL    HW256949   5.813   7.787  12.037  1.9368  0.1908  0.1330
17380SOL     OW56950   3.321   8.637   7.398 -0.0692 -0.3691  0.5782
17380SOL    HW156951   3.290   8.618   7.310 -0.0828  0.7321  0.3353
17380SOL    HW256952   3.292   8.562   7.450 -2.1856  0.0731  0.1482
17381SOL     OW56953  11.700  11.862   0.490  0.1410 -0.1968 -0.6034
17381SOL    HW156954  11.760  11.833   0.559  0.4291  0.1862 -0.6922
17381SOL    HW256955  11.733  11.948   0.464  0.9658 -0.9767 -2.2956
17382SOL     OW56956   8.160   3.356   4.635 -0.0410 -0.0271  0.4305
17382SOL    HW156957   8.154   3.422   4.565 -0.6663 -1.9536 -1.4578
17382SOL    HW256958   8.218   3.395   4.700  0.3195  2.0114 -1.0086
17383SOL     OW56959   9.848   0.368   0.301  0.1376  0.5911 -0.2553
17383SOL    HW156960   9.839   0.456   0.338 -0.0686  0.6871 -0.5289
17383SOL    HW256961   9.810   0.375   0.213  0.7769  0.4084 -0.5485
17384SOL     OW56962   6.275   0.654   3.012  0.2016  0.4938  0.2722
17384SOL    HW156963   6.267   0.622   2.922  1.8471 -0.0104  0.2822
17384SOL    HW256964   6.317   0.739   3.004 -0.8055  1.0242  0.4945
17385SOL     OW56965   5.767  10.814   2.088 -0.1761 -0.1028 -0.0947
17385SOL    HW156966   5.691  10.785   2.138 -2.8333  1.3936 -2.8588
17385SOL    HW256967   5.803  10.734   2.049 -0.8940 -0.7623  0.5691
17386SOL     OW56968  10.413  12.280  11.105 -0.6340  0.1881  0.0099
17386SOL    HW156969  10.350  12.236  11.048 -0.1511  1.2016 -1.3613
17386SOL    HW256970  10.493  12.286  11.053  0.1575  0.2126  1.1892
17387SOL     OW56971   8.362   2.257   5.728  0.6463  0.2259 -0.0887
17387SOL    HW156972   8.403   2.222   5.806 -0.2264  1.6500  1.0683
17387SOL    HW256973   8.296   2.193   5.704 -1.1721  1.1313  2.1854
17388SOL     OW56974  10.252   4.566  11.378  1.0353  0.0275  0.4621
17388SOL    HW156975  10.276   4.531  11.464 -1.5267 -0.3162  1.1380
17388SOL    HW256976  10.289   4.504  11.315  0.7890 -1.1431  1.4455
17389SOL     OW56977   6.254  12.576   0.851 -0.4193  0.5284  0.6531
17389SOL    HW156978   6.219  12.560   0.763  1.1709 -1.5947  0.3330
17389SOL    HW256979   6.208  12.514   0.907  0.8932 -0.4599  0.6860
17390SOL     OW56980  10.423   9.625   6.303 -0.6640  0.2020 -0.3306
17390SOL    HW156981  10.423   9.675   6.221 -0.3577 -0.2985 -0.6506
17390SOL    HW256982  10.513   9.592   6.310 -1.3020 -1.9596 -1.2003
17391SOL     OW56983   7.559   2.695   4.868  0.0692  0.0008 -0.5542
17391SOL    HW156984   7.601   2.609   4.859 -0.1695 -0.2872  0.8811
17391SOL    HW256985   7.631   2.754   4.892 -0.1024 -0.2391  0.6088
17392SOL     OW56986   5.744  11.293  12.009 -0.0935  0.3818 -0.3188
17392SOL    HW156987   5.772  11.205  11.984  1.1166 -0.1296  2.4776
17392SOL    HW256988   5.664  11.279  12.060  1.0689  0.6532  1.6697
17393SOL     OW56989   3.946  10.985   8.138  0.1198  0.3603 -0.0963
17393SOL    HW156990   3.998  10.945   8.069  0.9951 -2.2650  1.9433
17393SOL    HW256991   4.002  11.053   8.175  0.6553  0.0327 -0.3076
17394SOL     OW56992   2.302   2.503   1.464 -0.3150 -0.1150  0.1774
17394SOL    HW156993   2.347   2.520   1.381 -0.4530 -1.4253 -0.1939
17394SOL    HW256994   2.345   2.561   1.527  1.8995 -1.2630 -0.1741
17395SOL     OW56995   0.455   4.846   4.208  0.7286 -0.4068 -0.0138
17395SOL    HW156996   0.440   4.931   4.250 -0.9631 -0.9100  0.4892
17395SOL    HW256997   0.422   4.782   4.270  2.7034 -1.5273 -0.0575
17396SOL     OW56998   0.926   8.490   2.767  0.6043 -0.3226  1.2273
17396SOL    HW156999   0.831   8.497   2.769  0.6461  1.3986 -0.2648
17396SOL    HW257000   0.943   8.410   2.717 -0.0217 -0.8917  1.8941
17397SOL     OW57001  11.537   9.642   7.604  0.0736  0.0937  0.0189
17397SOL    HW157002  11.553   9.547   7.609 -0.9353 -0.0249  1.9103
17397SOL    HW257003  11.624   9.681   7.609  0.3828 -0.7040  1.7042
17398SOL     OW57004  11.362   4.055   4.875  0.0702  0.2134 -0.4392
17398SOL    HW157005  11.410   4.052   4.793  0.6893 -0.1121 -0.0743
17398SOL    HW257006  11.412   3.998   4.934 -0.7398 -0.1046 -0.0352
17399SOL     OW57007  10.520   1.176  11.932 -0.5975  0.7400 -0.5592
17399SOL    HW157008  10.602   1.177  11.981 -2.1077 -2.4161  2.4889
17399SOL    HW257009  10.547   1.160  11.841  2.1691 -0.4263  0.3580
17400SOL     OW57010   8.002   5.963   4.044  0.5125  0.2057 -0.2388
17400SOL    HW157011   7.951   5.905   4.100  0.2116 -0.4160 -1.1429
17400SOL    HW257012   8.092   5.934   4.055  0.4422  0.0177 -0.1558
17401SOL     OW57013   0.809   3.549   5.249  0.2589 -0.0798  0.2054
17401SOL    HW157014   0.837   3.638   5.227 -0.4681 -0.3348 -2.0711
17401SOL    HW257015   0.720   3.559   5.282  1.2416  0.2756  2.9863
17402SOL     OW57016   4.796   8.026   8.966 -0.1311 -0.1712 -0.1971
17402SOL    HW157017   4.853   7.986   9.032  1.4673  0.8858 -0.8626
17402SOL    HW257018   4.825   7.987   8.884  0.2253  0.9906 -0.6446
17403SOL     OW57019  11.917   5.567   3.328 -0.5611 -0.3608 -0.3978
17403SOL    HW157020  11.982   5.579   3.397  1.1813 -2.6260 -1.5019
17403SOL    HW257021  11.833   5.575   3.372  0.4532  1.3364  1.3559
17404SOL     OW57022  10.454   6.753   9.238  0.7820  0.3011  0.3051
17404SOL    HW157023  10.476   6.713   9.153 -0.7590 -0.2763  0.1456
17404SOL    HW257024  10.363   6.779   9.229  1.5531  3.4776  0.5977
17405SOL     OW57025  12.455   1.545   5.122  0.1507 -0.3436  0.1613
17405SOL    HW157026  12.448   1.545   5.218  1.1675  3.0840  0.3746
17405SOL    HW257027  12.370   1.512   5.092 -0.0210 -1.9740  2.1699
17406SOL     OW57028   1.850   5.075   0.139 -0.0706 -0.1594 -0.3841
17406SOL    HW157029   1.910   5.015   0.093 -1.9916 -0.9793 -1.9780
17406SOL    HW257030   1.860   5.158   0.093  0.0622 -0.2101 -0.4486
17407SOL     OW57031   6.976   6.524   0.688  0.4072  0.1169 -0.3759
17407SOL    HW157032   6.962   6.515   0.593 -0.2673  3.0243 -0.6493
17407SOL    HW257033   7.043   6.592   0.696 -0.6882  1.0962  1.2050
17408SOL     OW57034   9.386   3.668   1.463  0.4690 -0.0045  0.2846
17408SOL    HW157035   9.311   3.724   1.445  1.2879  1.3957  1.1100
17408SOL    HW257036   9.431   3.662   1.379  0.0798  0.1116  0.0628
17409SOL     OW57037   7.021   2.859   0.605 -0.0277  0.0297  0.1213
17409SOL    HW157038   6.933   2.873   0.639 -0.3372 -0.2934 -0.5427
17409SOL    HW257039   7.027   2.918   0.529  0.1014 -0.4284 -0.2251
17410SOL     OW57040   2.634  10.786   1.919 -0.4875 -0.0293 -0.3263
17410SOL    HW157041   2.648  10.700   1.960  0.0768  0.4799  0.5861
17410SOL    HW257042   2.674  10.777   1.833  2.7226  0.3058  0.9630
17411SOL     OW57043   7.868   2.280   9.176  0.0189  0.4382  0.5978
17411SOL    HW157044   7.820   2.202   9.200  0.9149 -0.4655 -0.4275
17411SOL    HW257045   7.956   2.267   9.213  0.5846  0.2862 -0.7285
17412SOL     OW57046   4.922   0.427  11.872 -0.1280  0.2277 -0.5829
17412SOL    HW157047   4.882   0.435  11.786 -2.2419  1.0001  0.3944
17412SOL    HW257048   5.004   0.475  11.865 -1.0052  1.6312 -1.7579
17413SOL     OW57049   7.289   6.968  12.367  0.2294 -0.1894  0.0552
17413SOL    HW157050   7.282   6.994  12.459 -0.0827  1.8180 -0.4866
17413SOL    HW257051   7.199   6.966  12.335  0.4098  0.4568 -0.5288
17414SOL     OW57052  12.076   7.289   0.384  0.3689  0.8024  0.1875
17414SOL    HW157053  12.031   7.360   0.429  1.0133  1.9442 -0.9180
17414SOL    HW257054  12.166   7.318   0.376  1.0923 -0.9682  1.3513
17415SOL     OW57055   9.736   9.521   6.279  0.2220 -0.3162 -0.0842
17415SOL    HW157056   9.652   9.479   6.295 -0.5228  0.7091 -1.1835
17415SOL    HW257057   9.735   9.600   6.333  0.0250  0.2504 -0.9073
17416SOL     OW57058   7.176   0.318   7.790  0.3108 -0.1998  0.3897
17416SOL    HW157059   7.154   0.397   7.840 -1.9386 -0.1181 -0.6217
17416SOL    HW257060   7.192   0.251   7.857 -0.9750  0.3153  1.2453
17417SOL     OW57061   3.203   6.407  10.244  0.2376 -0.8320 -0.7922
17417SOL    HW157062   3.261   6.353  10.191 -1.8935 -1.9565 -2.1060
17417SOL    HW257063   3.155   6.346  10.300 -2.4200 -0.4878 -2.4996
17418SOL     OW57064   5.551   0.473   8.501 -0.2703 -0.0499  0.0910
17418SOL    HW157065   5.599   0.542   8.455 -0.8418 -0.4281 -1.1434
17418SOL    HW257066   5.541   0.404   8.435  1.6268 -2.0099  1.7035
17419SOL     OW57067   1.505   3.562   7.699  0.0411 -0.9013 -0.1348
17419SOL    HW157068   1.460   3.638   7.735  0.5063 -0.9619  0.5941
17419SOL    HW257069   1.586   3.555   7.750 -0.4032 -2.4059  0.4324
17420SOL     OW57070  10.898  10.711   6.769 -0.1863 -0.0118 -0.1106
17420SOL    HW157071  10.974  10.664   6.805 -1.2218 -1.6265  0.0442
17420SOL    HW257072  10.926  10.803   6.768  2.3026 -0.6715 -1.3670
17421SOL     OW57073   9.710   1.896   3.542 -0.1235  0.1446  0.2482
17421SOL    HW157074   9.730   1.961   3.610 -1.2037 -0.3265  1.0342
17421SOL    HW257075   9.685   1.948   3.465 -2.7316  0.7295  1.3839
17422SOL     OW57076   6.301   2.562  12.355 -0.0458 -0.4555  0.1729
17422SOL    HW157077   6.321   2.545  12.447 -0.4063 -1.2509  0.1118
17422SOL    HW257078   6.261   2.649  12.355  0.2809 -0.3001  0.7213
17423SOL     OW57079   8.104   2.664   3.604  0.2139  0.1193  0.4993
17423SOL    HW157080   8.085   2.610   3.680 -3.3930  2.8992  1.9116
17423SOL    HW257081   8.041   2.636   3.538 -0.5186  1.3412  0.6397
17424SOL     OW57082   7.508  11.165   0.693 -0.4587  0.2701 -0.2003
17424SOL    HW157083   7.489  11.241   0.639  0.1871  0.8628  0.3881
17424SOL    HW257084   7.570  11.196   0.759 -0.2330 -0.7450  0.0980
17425SOL     OW57085  12.062   1.169  12.310 -0.3119  0.0651  1.2095
17425SOL    HW157086  12.148   1.130  12.326 -0.6306 -0.4519  1.7085
17425SOL    HW257087  12.043   1.150  12.218  0.0252  0.0224  1.1488
17426SOL     OW57088   1.020   3.403   1.408 -0.1946  0.0352  0.1746
17426SOL    HW157089   0.958   3.461   1.363  0.6951  0.1574 -0.9372
17426SOL    HW257090   1.015   3.430   1.499  0.7494  2.4276 -0.4100
17427SOL     OW57091  11.710   5.025   5.595  0.2530 -0.2872 -0.6451
17427SOL    HW157092  11.710   5.020   5.499  1.5049 -1.9102 -0.6123
17427SOL    HW257093  11.757   4.946   5.622 -1.0674 -0.4419  1.3528
17428SOL     OW57094  12.444   4.060   0.262  0.1594 -0.5326  0.0497
17428SOL    HW157095  12.519   4.028   0.312  0.1844  0.0684  0.4052
17428SOL    HW257096  12.387   4.103   0.327 -0.1798 -0.4215 -0.3120
17429SOL     OW57097   0.405   4.890   8.171 -0.4488 -0.2456  0.3233
17429SOL    HW157098   0.483   4.846   8.137  1.1291  1.9085  0.9466
17429SOL    HW257099   0.359   4.821   8.219  1.2947 -1.5111  0.3166
17430SOL     OW57100  11.441   2.370   2.756  0.2057 -0.0477 -0.3444
17430SOL    HW157101  11.398   2.415   2.828 -0.3653 -0.9792 -0.0861
17430SOL    HW257102  11.449   2.279   2.785  0.0004 -0.4310 -1.4223
17431SOL     OW57103   1.752  12.307   9.732  0.2706  0.5019 -0.0051
17431SOL    HW157104   1.827  12.278   9.680  0.2739 -1.0528  0.7851
17431SOL    HW257105   1.731  12.394   9.699  1.8450  0.5915 -0.8685
17432SOL     OW57106   6.970  10.127   2.653 -0.0513 -0.1403 -0.0786
17432SOL    HW157107   7.048  10.099   2.701 -0.6730 -2.1596 -0.1489
17432SOL    HW257108   6.946  10.211   2.693 -0.0151 -1.2740  2.5721
17433SOL     OW57109   3.026   9.204   5.296 -0.1535  0.2143 -0.0615
17433SOL    HW157110   2.998   9.119   5.330 -0.9753  0.1477 -0.8411
17433SOL    HW257111   2.946   9.244   5.263  0.2348  1.2792  0.2451
17434SOL     OW57112   4.166   8.551   2.876  0.0433  0.2532 -0.3272
17434SOL    HW157113   4.228   8.587   2.812  1.8863 -0.6558  0.8594
17434SOL    HW257114   4.155   8.622   2.940  1.2708 -0.1619  0.3798
17435SOL     OW57115   2.555   3.264   8.780 -0.4753  0.6239 -0.0052
17435SOL    HW157116   2.649   3.252   8.770 -0.2180  3.6020 -2.6248
17435SOL    HW257117   2.518   3.240   8.695 -1.9801  0.4498  0.6630
17436SOL     OW57118  11.649   0.984   7.257  0.0636  0.2466  0.1975
17436SOL    HW157119  11.581   0.934   7.211  0.7158  0.6706 -1.3112
17436SOL    HW257120  11.604   1.062   7.288 -0.3769  0.0133  0.1636
17437SOL     OW57121   7.566   3.028   4.784  0.6424 -0.3475 -0.1002
17437SOL    HW157122   7.628   3.008   4.854  1.1047  1.6237  0.0945
17437SOL    HW257123   7.486   3.055   4.830  0.5501 -0.2124 -0.3410
17438SOL     OW57124   6.472   5.473   7.375 -0.5485  0.5593  0.1740
17438SOL    HW157125   6.399   5.466   7.314 -1.3222 -1.3569  1.2455
17438SOL    HW257126   6.436   5.446   7.460  1.5181 -1.1656  0.5965
17439SOL     OW57127  10.772   1.847   8.383  0.2728  0.2938 -0.3143
17439SOL    HW157128  10.727   1.770   8.346 -0.1562  1.3942 -2.2059
17439SOL    HW257129  10.862   1.838   8.354  0.4891 -0.0535  0.4337
17440SOL     OW57130  12.593  11.354  11.079  0.4964  0.4075 -0.0161
17440SOL    HW157131  12.671  11.332  11.130  0.6590  2.4357  0.6893
17440SOL    HW257132  12.550  11.424  11.129  0.0198  1.6483 -2.0483
17441SOL     OW57133   7.644   5.654   6.927 -0.0036 -0.5666 -0.4147
17441SOL    HW157134   7.736   5.630   6.937  0.0201 -0.4947 -0.4557
17441SOL    HW257135   7.626   5.643   6.834  0.4045  0.9411 -0.7076
17442SOL     OW57136  11.846   1.911   0.566  0.0297 -0.2308  0.0900
17442SOL    HW157137  11.884   1.824   0.549  0.1849  0.0631 -1.0896
17442SOL    HW257138  11.794   1.930   0.489 -0.6014  0.4220  0.6690
17443SOL     OW57139   8.780   3.586  10.815  0.5153  0.3904 -0.6886
17443SOL    HW157140   8.862   3.537  10.804  0.2941 -0.4189  1.0411
17443SOL    HW257141   8.713   3.519  10.826  0.1990  1.0088  1.6879
17444SOL     OW57142   9.018   5.733   0.403 -0.4341  0.4455 -0.5783
17444SOL    HW157143   8.999   5.647   0.365  1.4386  0.1584 -0.9932
17444SOL    HW257144   9.010   5.720   0.497 -2.4670  0.4525 -0.7129
17445SOL     OW57145  11.801   3.179   6.114  0.1785 -0.0064 -0.1538
17445SOL    HW157146  11.881   3.231   6.112 -0.1240  0.4531 -0.3258
17445SOL    HW257147  11.811   3.124   6.192  0.4456  0.3873  0.0916
17446SOL     OW57148   4.323  10.838  12.315 -0.9399 -0.5668 -0.2889
17446SOL    HW157149   4.377  10.759  12.315 -0.2333 -0.0995  0.4343
17446SOL    HW257150   4.288  10.843  12.404  0.5710  0.9307  0.2898
17447SOL     OW57151   4.379   3.951   8.395 -0.1805 -0.2186  0.1907
17447SOL    HW157152   4.308   3.888   8.380  0.9733 -1.8681  1.3275
17447SOL    HW257153   4.411   3.930   8.483  2.2656 -0.0967 -0.6091
17448SOL     OW57154  10.434   2.049  12.152 -0.0316  0.2779 -0.1156
17448SOL    HW157155  10.421   2.087  12.239  0.6177  0.9025 -0.2808
17448SOL    HW257156  10.461   1.959  12.170  2.5078  1.0613  0.4699
17449SOL     OW57157   1.481   6.546   3.851 -0.6176  0.3626 -0.3107
17449SOL    HW157158   1.435   6.471   3.813 -1.7645  1.1729 -0.5758
17449SOL    HW257159   1.473   6.533   3.946  0.1097 -0.3890 -0.3461
17450SOL     OW57160  11.347   8.708   5.017  0.1220 -0.9467  0.6073
17450SOL    HW157161  11.326   8.766   5.090 -2.8667 -2.5807  1.1765
17450SOL    HW257162  11.281   8.727   4.951  1.4689 -1.0380 -0.8318
17451SOL     OW57163   6.001   3.219   6.510 -0.3357  0.5477  0.0335
17451SOL    HW157164   6.031   3.233   6.420 -0.7848 -0.4056 -0.2812
17451SOL    HW257165   5.939   3.146   6.504 -0.9540  0.9696  1.0116
17452SOL     OW57166   2.765  12.566   7.673 -0.0231 -0.1486  0.3700
17452SOL    HW157167   2.783  12.534   7.761 -1.7022 -0.1621  0.7564
17452SOL    HW257168   2.715  12.496   7.631 -0.2275  0.3190 -0.1914
17453SOL     OW57169   0.022  10.604   8.457 -0.9664 -0.1543 -0.4577
17453SOL    HW157170  -0.022  10.663   8.395 -1.6312 -0.3541 -0.1903
17453SOL    HW257171   0.063  10.662   8.520  1.8349  0.1569 -2.4114
17454SOL     OW57172   0.174  12.137   0.111 -0.5595 -0.3504  0.2323
17454SOL    HW157173   0.241  12.120   0.044 -0.3544 -0.0117  0.3503
17454SOL    HW257174   0.209  12.097   0.190 -0.3821  0.0451  0.3534
17455SOL     OW57175   0.552   3.256   3.939  0.1294 -0.3500  0.4287
17455SOL    HW157176   0.568   3.184   3.878  0.0022 -0.5312  0.6076
17455SOL    HW257177   0.636   3.272   3.981  0.6067  0.7992 -0.8864
17456SOL     OW57178  10.141   4.254   4.923  0.0767  0.4733  0.7730
17456SOL    HW157179  10.182   4.179   4.965  1.0028  0.6496  0.2093
17456SOL    HW257180  10.048   4.231   4.918  0.3151 -0.5407  0.7887
17457SOL     OW57181   5.641  11.213   8.483 -0.2468 -0.2200  0.1546
17457SOL    HW157182   5.577  11.253   8.541 -0.3320  0.9991 -0.7459
17457SOL    HW257183   5.640  11.120   8.507 -0.3549  0.2134  2.0070
17458SOL     OW57184   8.356   1.075  11.774 -0.2689 -0.5108  0.1412
17458SOL    HW157185   8.389   1.103  11.859 -2.1391 -0.8350  1.0139
17458SOL    HW257186   8.311   1.151  11.739  0.8866 -0.2269 -0.8265
17459SOL     OW57187  11.317   4.254   7.444  0.7676 -0.3515  0.2679
17459SOL    HW157188  11.261   4.187   7.406  2.9022 -2.5105  0.6843
17459SOL    HW257189  11.278   4.274   7.529  0.3784 -1.4890  0.3735
17460SOL     OW57190  11.672   6.640   5.411 -0.6126 -0.1287  0.5970
17460SOL    HW157191  11.760   6.678   5.400 -0.3926 -1.0654 -1.2144
17460SOL    HW257192  11.681   6.581   5.486 -0.4988  1.9563  2.3090
17461SOL     OW57193  12.373   7.572   7.257  0.4096  0.1694 -0.4306
17461SOL    HW157194  12.439   7.606   7.196  0.8718 -1.1768 -0.7237
17461SOL    HW257195  12.293   7.565   7.204  0.4657  0.2622 -0.5283
17462SOL     OW57196   4.651   7.227  11.672  1.2353  0.3138 -0.1121
17462SOL    HW157197   4.586   7.182  11.726  2.4202 -0.1491  0.9768
17462SOL    HW257198   4.683   7.159  11.612  1.0314  0.4223 -0.3426
17463SOL     OW57199   2.221   4.884   7.090 -0.0401 -0.0994  0.4277
17463SOL    HW157200   2.226   4.814   7.155 -1.2172 -0.4575  0.1609
17463SOL    HW257201   2.274   4.854   7.017  1.8375  0.5929  1.4428
17464SOL     OW57202   0.242  10.381   7.145 -0.1852 -0.4080  0.2509
17464SOL    HW157203   0.164  10.386   7.090 -0.7957 -0.1723  1.1115
17464SOL    HW257204   0.289  10.463   7.127  0.6792 -1.2299 -1.4153
17465SOL     OW57205  11.824   3.511   5.904  0.3109 -0.6377  0.1480
17465SOL    HW157206  11.814   3.564   5.825 -0.9797  2.6487  2.3026
17465SOL    HW257207  11.914   3.526   5.933  0.4107 -0.8616 -0.0430
17466SOL     OW57208   2.134   3.213  10.530  0.0119  0.4697  0.3922
17466SOL    HW157209   2.193   3.235  10.458  0.9530 -0.1061  0.9630
17466SOL    HW257210   2.079   3.290  10.541 -1.3494 -0.0349 -2.0705
17467SOL     OW57211   4.084   4.051   0.958  0.5027  0.1662  0.1292
17467SOL    HW157212   4.011   4.056   1.020 -0.0226  0.9255 -0.5348
17467SOL    HW257213   4.116   3.961   0.965 -1.0964 -0.4601 -0.2594
17468SOL     OW57214   2.957   4.537   6.334  0.0036  0.2202  0.2572
17468SOL    HW157215   2.968   4.445   6.357  0.4703  0.1965 -0.0522
17468SOL    HW257216   2.913   4.536   6.249  0.8010  0.2629 -0.1665
17469SOL     OW57217  12.488   1.546  10.242  0.4441 -0.0572  0.1021
17469SOL    HW157218  12.570   1.548  10.291 -1.0149  0.0566  2.6996
17469SOL    HW257219  12.513   1.575  10.154  2.8105  2.3235  1.3957
17470SOL     OW57220  12.008   0.996   9.783  0.0857  0.3189  0.2199
17470SOL    HW157221  11.926   0.978   9.739 -0.3646 -0.6021  1.3567
17470SOL    HW257222  12.054   1.057   9.726 -0.4162 -0.8623 -1.5384
17471SOL     OW57223   2.016   3.835   4.850  0.8452  0.0334  0.2916
17471SOL    HW157224   2.096   3.879   4.820  0.0977  1.1232 -0.1742
17471SOL    HW257225   1.945   3.881   4.805 -0.0212 -1.3554  0.1662
17472SOL     OW57226   7.795   2.659   3.076 -0.5074  0.1206  0.5395
17472SOL    HW157227   7.823   2.569   3.061  0.6558  0.5393  0.0603
17472SOL    HW257228   7.746   2.682   2.997 -0.7727 -0.0793  0.6456
17473SOL     OW57229   0.020   2.415   4.762 -0.7214 -0.1372  0.3459
17473SOL    HW157230  -0.063   2.462   4.757 -1.9736 -2.2623 -0.3609
17473SOL    HW257231   0.067   2.439   4.682 -1.4642 -0.2661 -0.1415
17474SOL     OW57232   4.262   8.999   2.128 -0.6249  0.0689  0.0682
17474SOL    HW157233   4.341   9.019   2.179 -0.4605  0.0281 -0.1662
17474SOL    HW257234   4.295   8.984   2.039 -1.1171  2.0551 -0.4989
17475SOL     OW57235   9.008   0.107   1.266  0.4992 -0.1446 -0.1081
17475SOL    HW157236   8.955   0.036   1.228  1.3831 -0.7346 -0.2563
17475SOL    HW257237   8.953   0.143   1.335  0.1702 -1.2142  0.2073
17476SOL     OW57238   8.169   0.968   2.537  0.7016 -0.2774  0.3267
17476SOL    HW157239   8.222   0.916   2.475  1.7324 -0.2410  1.1536
17476SOL    HW257240   8.231   1.028   2.578  0.0082 -0.1907  1.2913
17477SOL     OW57241   9.994  11.802   1.923 -0.4779 -0.2137 -0.2212
17477SOL    HW157242   9.904  11.774   1.940 -0.2502  0.0928  1.7906
17477SOL    HW257243   9.997  11.892   1.956  0.9837 -0.8112  1.4369
17478SOL     OW57244   5.921   7.867   9.181 -0.1768 -0.2600  0.1248
17478SOL    HW157245   5.865   7.847   9.256  1.4957  3.0744  2.5535
17478SOL    HW257246   5.899   7.957   9.157  1.6992 -0.0673 -1.1322
17479SOL     OW57247   4.473   0.496   6.573 -0.0602  0.3019 -0.3359
17479SOL    HW157248   4.542   0.470   6.512 -0.4457  0.2905 -0.7728
17479SOL    HW257249   4.477   0.430   6.643  0.5350  0.4484 -0.2287
17480SOL     OW57250  12.053   7.860   5.720 -0.5841  0.5869 -0.7475
17480SOL    HW157251  12.082   7.942   5.679  2.5106  1.4113  2.6112
17480SOL    HW257252  12.123   7.798   5.702 -0.7590  0.0330  0.3862
17481SOL     OW57253  12.521   2.339   9.524  0.0361  0.1301  0.1887
17481SOL    HW157254  12.512   2.389   9.605 -0.1084  0.6475 -0.1467
17481SOL    HW257255  12.592   2.383   9.477  0.2587 -0.2934  0.1204
17482SOL     OW57256   4.572   7.056   6.085 -0.1890 -0.1345  0.5232
17482SOL    HW157257   4.553   6.994   6.156 -1.0658 -0.8264 -0.2772
17482SOL    HW257258   4.514   7.130   6.102 -0.7339 -0.4977  0.2969
17483SOL     OW57259   7.693   6.662   9.300  0.8990  0.3865 -0.5513
17483SOL    HW157260   7.743   6.642   9.221 -1.2807 -0.9683 -1.7045
17483SOL    HW257261   7.715   6.591   9.361  1.3413  0.5174 -0.5557
17484SOL     OW57262   9.449   4.383   3.661  0.1101 -0.2902  0.3217
17484SOL    HW157263   9.434   4.360   3.569  1.9551 -0.7183  0.0920
17484SOL    HW257264   9.481   4.302   3.701  3.0449  0.8020  0.3920
17485SOL     OW57265  11.741   8.719   4.206 -0.1070 -0.2688 -0.1452
17485SOL    HW157266  11.655   8.757   4.188 -0.4013 -0.2581  1.1985
17485SOL    HW257267  11.739   8.633   4.164 -0.5259  0.0070 -0.6909
17486SOL     OW57268  11.430   6.376  12.270  0.1730  0.2871 -0.5146
17486SOL    HW157269  11.422   6.311  12.201  2.4768  1.0845 -1.6479
17486SOL    HW257270  11.502   6.432  12.242 -2.4364  4.1973 -0.3140
17487SOL     OW57271   0.264  12.462  12.048  0.0554 -0.1747  0.1162
17487SOL    HW157272   0.285  12.486  11.958  1.0248 -1.6413 -0.0729
17487SOL    HW257273   0.318  12.520  12.101 -0.0138  0.2301 -0.2502
17488SOL     OW57274  11.595   7.362   9.700  0.3663  0.0167  0.6937
17488SOL    HW157275  11.661   7.343   9.634  0.1351 -1.1563  0.7818
17488SOL    HW257276  11.593   7.283   9.755 -1.4816 -0.1885  0.3693
17489SOL     OW57277   6.853   2.490  11.947  0.4742 -0.0344  0.0156
17489SOL    HW157278   6.864   2.570  11.998 -0.4968 -0.7243  1.3696
17489SOL    HW257279   6.764   2.497  11.912  0.1158 -0.8335  0.7432
17490SOL     OW57280   5.475   6.336  12.387  0.3758 -0.0924 -0.4259
17490SOL    HW157281   5.424   6.321  12.308 -1.5975  1.2218  0.4941
17490SOL    HW257282   5.409   6.344  12.457  1.7258  2.4986  0.7145
17491SOL     OW57283   3.551   3.545   5.924  0.6954 -0.1578 -0.4379
17491SOL    HW157284   3.551   3.499   5.840 -0.8953 -0.0455 -0.5223
17491SOL    HW257285   3.485   3.614   5.914  1.2597  0.5486  0.5404
17492SOL     OW57286  10.728  10.066   1.744  0.7109 -0.7909  0.1997
17492SOL    HW157287  10.654  10.058   1.804 -0.2097  1.1095 -0.5828
17492SOL    HW257288  10.783   9.991   1.763 -1.0101 -1.8225  1.3832
17493SOL     OW57289   5.251   8.730   0.802 -0.3443 -0.2083  0.3907
17493SOL    HW157290   5.293   8.797   0.747  0.6013  0.1727  1.5463
17493SOL    HW257291   5.158   8.736   0.779 -0.2747  1.4673  0.4180
17494SOL     OW57292  10.931   1.324  11.349 -0.0042  0.7549 -0.2186
17494SOL    HW157293  10.875   1.308  11.273 -0.1953 -0.8080  0.2166
17494SOL    HW257294  11.011   1.274  11.332 -0.0132  0.4562  0.5542
17495SOL     OW57295   2.106   6.972   0.240  0.1922  0.2384  0.1154
17495SOL    HW157296   2.086   6.966   0.147 -0.6168  0.7385  0.2507
17495SOL    HW257297   2.066   6.894   0.279  0.3156  0.1577  0.0806
17496SOL     OW57298  10.449   5.619   2.494  0.6546  0.1239  0.2093
17496SOL    HW157299  10.535   5.588   2.465  0.1650  0.1797 -1.4371
17496SOL    HW257300  10.390   5.595   2.422 -0.6055  0.5787  1.0634
17497SOL     OW57301   7.017   4.874   0.459  0.0060 -0.1358 -0.0417
17497SOL    HW157302   6.934   4.838   0.428 -0.5479 -1.1130  2.3020
17497SOL    HW257303   7.052   4.922   0.385 -3.0950  1.0933 -0.8641
17498SOL     OW57304   9.581   6.055   3.263  0.2251  0.4729 -0.7967
17498SOL    HW157305   9.495   6.013   3.276 -0.3980  1.3902 -1.8487
17498SOL    HW257306   9.562   6.148   3.261  1.3280  0.7128 -0.5525
17499SOL     OW57307  11.966   2.456   2.727 -0.1243  1.2543 -0.7099
17499SOL    HW157308  11.896   2.390   2.733 -1.5295  2.7030 -0.2943
17499SOL    HW257309  12.032   2.416   2.670 -0.3978 -0.9350  0.3944
17500SOL     OW57310   4.940   8.833   9.205  0.4301 -0.0567  0.4475
17500SOL    HW157311   4.939   8.746   9.246  0.8774 -0.2958 -0.0210
17500SOL    HW257312   4.954   8.894   9.276 -0.1935 -0.3437  0.8264
17501SOL     OW57313   5.978   4.364  11.620  0.7942  0.2772  0.1758
17501SOL    HW157314   5.997   4.397  11.532  1.4466 -0.9708 -0.1646
17501SOL    HW257315   6.027   4.422  11.678  0.5619  0.9499 -0.2801
17502SOL     OW57316  10.829   7.467  11.607 -0.1109  0.2548 -0.2811
17502SOL    HW157317  10.835   7.371  11.605  1.0658  0.2836  0.5351
17502SOL    HW257318  10.744   7.485  11.648 -0.2383 -0.4513 -0.2217
17503SOL     OW57319   5.905  12.576   8.978 -0.3858 -0.3919  0.0498
17503SOL    HW157320   5.908  12.483   8.956 -0.7296 -0.5717  0.7316
17503SOL    HW257321   5.823  12.586   9.026  0.7818 -0.2263  2.1117
17504SOL     OW57322  10.335   8.228   4.051  0.5122  0.1394 -0.0266
17504SOL    HW157323  10.421   8.202   4.019 -0.4998 -0.6293 -2.3994
17504SOL    HW257324  10.338   8.323   4.054  1.2980  0.1403 -0.5839
17505SOL     OW57325  11.615   7.819   0.697 -0.1076  0.3136 -0.4498
17505SOL    HW157326  11.533   7.775   0.720 -0.1382  0.6306  0.0638
17505SOL    HW257327  11.641   7.780   0.614 -1.9470  1.7567 -1.7992
17506SOL     OW57328   4.910  12.150   6.621 -0.3588 -0.3934 -0.4163
17506SOL    HW157329   4.889  12.235   6.581 -0.3116 -0.1510  0.0595
17506SOL    HW257330   4.851  12.088   6.577 -2.3178  0.3159  1.0534
17507SOL     OW57331  10.773   8.536  10.589 -0.0276  0.4756  0.3856
17507SOL    HW157332  10.761   8.453  10.543  0.2099  0.3067  0.6231
17507SOL    HW257333  10.722   8.526  10.670 -1.5412  1.2703 -0.4188
17508SOL     OW57334   3.688   0.528  12.063  0.1199 -0.1311 -0.3791
17508SOL    HW157335   3.595   0.516  12.044  0.5326 -1.0298 -2.0143
17508SOL    HW257336   3.692   0.612  12.109 -1.1479  1.8779 -3.5907
17509SOL     OW57337   0.959   2.321  10.187 -0.2880 -0.1794  0.7712
17509SOL    HW157338   1.022   2.362  10.129 -2.2860  1.3411 -0.4780
17509SOL    HW257339   0.910   2.260  10.132 -2.0986  1.1564  0.8024
17510SOL     OW57340   5.924  11.012   4.269  0.4361 -0.4278  0.4065
17510SOL    HW157341   6.007  10.966   4.255  0.0299 -1.4420  1.1384
17510SOL    HW257342   5.860  10.965   4.215  0.4760  0.8662 -0.8070
17511SOL     OW57343   3.008   0.203   0.834 -0.2713 -0.1616  0.4862
17511SOL    HW157344   2.952   0.126   0.847 -0.8525  0.2484  0.4706
17511SOL    HW257345   3.081   0.190   0.894 -0.4847 -0.6172  0.6524
17512SOL     OW57346  10.710   6.318  10.260  0.2440 -0.1989 -0.4382
17512SOL    HW157347  10.682   6.230  10.281  0.5063 -0.0808  0.4381
17512SOL    HW257348  10.760   6.309  10.178  2.6192 -1.3170  1.0111
17513SOL     OW57349   2.270  12.093   8.518  0.4785 -0.2430  0.2904
17513SOL    HW157350   2.365  12.091   8.528  0.4849 -0.8408  0.1431
17513SOL    HW257351   2.238  12.124   8.603  0.6620 -3.1725  1.5731
17514SOL     OW57352   3.647   1.149  11.967  0.3390  0.1078  0.2930
17514SOL    HW157353   3.652   1.104  12.052 -0.0931 -0.5627 -0.0272
17514SOL    HW257354   3.719   1.112  11.916 -0.5256 -0.8777 -0.2616
17515SOL     OW57355   4.512  10.608  11.363 -0.1794 -0.2473 -0.4565
17515SOL    HW157356   4.575  10.589  11.432  0.9866 -0.2431 -1.4958
17515SOL    HW257357   4.462  10.526  11.354  0.7350 -0.7895 -0.7076
17516SOL     OW57358   7.932   7.997   9.278 -0.4576 -0.0515  0.4869
17516SOL    HW157359   7.838   7.978   9.269 -0.3886 -0.0146 -0.4339
17516SOL    HW257360   7.952   8.053   9.203  0.4926 -0.7773  0.1772
17517SOL     OW57361  10.737   4.343   8.745 -0.7159 -0.3972 -0.1239
17517SOL    HW157362  10.749   4.320   8.837 -1.5259 -0.0671  0.0715
17517SOL    HW257363  10.818   4.387   8.720 -1.1717  1.0968  0.9314
17518SOL     OW57364   5.500   2.499   4.802 -0.3660  0.2301 -0.3134
17518SOL    HW157365   5.578   2.497   4.858 -0.8693  1.0644  0.4430
17518SOL    HW257366   5.470   2.408   4.800  0.3246 -0.0097 -0.1820
17519SOL     OW57367   0.997   7.707   4.170 -0.2285 -0.3144 -0.0635
17519SOL    HW157368   1.034   7.641   4.230 -0.5318  0.4202  0.9645
17519SOL    HW257369   0.972   7.780   4.227  0.0868  0.6955 -1.1713
17520SOL     OW57370   6.944   3.932   6.290  0.1187  0.3033  0.0140
17520SOL    HW157371   7.010   3.914   6.223  0.8067  0.4236  0.6487
17520SOL    HW257372   6.913   4.021   6.270 -0.6328 -0.1494 -0.9168
17521SOL     OW57373   2.112   5.173  10.896  0.0991  0.1673  0.1650
17521SOL    HW157374   2.195   5.144  10.934 -1.0004 -1.8314  1.1981
17521SOL    HW257375   2.135   5.201  10.807  1.8615 -0.3696  0.4137
17522SOL     OW57376   1.772   4.084   2.618 -0.3694  0.3841  0.1434
17522SOL    HW157377   1.678   4.084   2.598 -0.2624  1.2061 -0.4425
17522SOL    HW257378   1.808   4.151   2.560  1.0018 -1.6666 -1.5032
17523SOL     OW57379   9.773   1.902  12.367  0.2994 -0.5280 -0.5110
17523SOL    HW157380   9.847   1.921  12.311 -0.5828 -1.3959 -2.0267
17523SOL    HW257381   9.802   1.830  12.423  1.0302  0.0532 -0.1182
17524SOL     OW57382   4.647   3.564   9.880  0.5668  0.1902 -0.3077
17524SOL    HW157383   4.590   3.596   9.950  0.8638  0.6033 -0.2515
17524SOL    HW257384   4.668   3.642   9.829 -0.3811 -0.2409 -1.4058
17525SOL     OW57385   6.506   7.147   3.643  0.5757  0.4824  0.3275
17525SOL    HW157386   6.503   7.166   3.737 -0.9524  0.0628  0.3950
17525SOL    HW257387   6.537   7.228   3.603 -1.0545  1.5098  1.0205
17526SOL     OW57388   5.445   9.690  11.200  0.5490  0.5173  0.7658
17526SOL    HW157389   5.469   9.599  11.184  0.7944  0.6172  0.5670
17526SOL    HW257390   5.418   9.723  11.115 -1.0456  0.1947  1.1036
17527SOL     OW57391   0.186  12.504   4.035  0.3421 -0.0339 -0.2234
17527SOL    HW157392   0.226  12.591   4.032  0.5682 -0.0278  1.6243
17527SOL    HW257393   0.124  12.509   4.109  0.6809 -1.5486  0.1930
17528SOL     OW57394   9.593   8.720  10.690  0.1117  0.2790 -0.5084
17528SOL    HW157395   9.595   8.744  10.782 -0.0626  1.9298 -0.9005
17528SOL    HW257396   9.508   8.678  10.677  0.1083  0.1040  0.0635
17529SOL     OW57397   3.192   6.707   0.772 -0.1028 -0.3107  0.2078
17529SOL    HW157398   3.144   6.777   0.727 -1.8812 -1.3442  0.3832
17529SOL    HW257399   3.187   6.731   0.865  1.5709  0.6358  0.0894
17530SOL     OW57400   5.849   9.248  11.551 -0.5739 -0.4549  0.2397
17530SOL    HW157401   5.836   9.335  11.512 -0.6499 -0.3814  0.4233
17530SOL    HW257402   5.940   9.248  11.579  0.5784 -1.7791 -3.0220
17531SOL     OW57403   8.950   9.019   7.388  0.2161 -0.1151  0.3453
17531SOL    HW157404   8.932   8.927   7.405 -1.8414  0.2116  0.2822
17531SOL    HW257405   9.039   9.033   7.421  1.1264 -2.4096 -0.8837
17532SOL     OW57406  12.088   2.972   1.986 -0.1050 -0.3640  0.2550
17532SOL    HW157407  12.170   3.011   2.013 -1.2340  1.7545  0.8299
17532SOL    HW257408  12.114   2.896   1.932  2.1640 -0.7152  1.7135
17533SOL     OW57409   5.036   4.483  12.444  0.0485 -0.2433  0.2027
17533SOL    HW157410   4.952   4.525  12.464 -0.1405 -0.6139  0.1788
17533SOL    HW257411   5.020   4.431  12.366  0.5219  0.3603 -0.3103
17534SOL     OW57412   7.224   0.072  11.871  0.7134 -0.1176  0.0991
17534SOL    HW157413   7.290   0.044  11.935 -0.5120  0.0140  1.4629
17534SOL    HW257414   7.141   0.041  11.907  0.0171 -0.4141 -1.6628
17535SOL     OW57415   6.330   3.672   0.783  0.1331  0.3083  0.7531
17535SOL    HW157416   6.270   3.601   0.762 -0.9672  0.8924  1.8147
17535SOL    HW257417   6.312   3.739   0.717 -0.2354  0.3966  0.9420
17536SOL     OW57418  11.920   8.744   0.393 -0.3732  0.1814  0.3377
17536SOL    HW157419  11.956   8.671   0.443  0.0749  1.3617  1.8040
17536SOL    HW257420  11.830   8.752   0.425 -0.2581  0.5931  0.5599
17537SOL     OW57421   6.795   0.303   4.973  0.5145 -0.3130  0.1559
17537SOL    HW157422   6.779   0.211   4.997  0.1236 -0.1430  0.5645
17537SOL    HW257423   6.708   0.340   4.958  0.6506  0.0660  0.2817
17538SOL     OW57424   9.451   5.768   3.136 -0.0090 -0.3025 -0.2584
17538SOL    HW157425   9.488   5.836   3.078  0.6178 -0.0548  0.4133
17538SOL    HW257426   9.444   5.811   3.221 -0.0167 -0.9600  0.0754
17539SOL     OW57427   7.773   5.983   5.118  0.4749  0.1953  0.1476
17539SOL    HW157428   7.838   5.967   5.187  0.0984 -0.0211  0.4587
17539SOL    HW257429   7.808   6.057   5.068  1.1615 -0.1878  0.0548
17540SOL     OW57430  10.758   6.372   8.871 -0.1807  0.3141  0.5271
17540SOL    HW157431  10.683   6.315   8.886 -0.6677  0.8494  0.1642
17540SOL    HW257432  10.834   6.314   8.880 -0.6418 -0.2891  0.6223
17541SOL     OW57433   9.638   5.872   0.018 -0.2107 -0.0441 -0.4576
17541SOL    HW157434   9.648   5.779  -0.004  1.0583  0.4190 -1.9734
17541SOL    HW257435   9.661   5.877   0.111 -2.8250 -1.6106  0.3825
17542SOL     OW57436   6.063  12.193   1.601  0.0716  0.0137 -0.5196
17542SOL    HW157437   6.120  12.262   1.567  0.8046  0.1793  0.9838
17542SOL    HW257438   6.092  12.114   1.556  2.4545 -0.1648  1.1834
17543SOL     OW57439   7.980   8.283   1.776  0.0516  0.3056  0.5787
17543SOL    HW157440   7.976   8.195   1.738  1.2921  1.0322 -1.3307
17543SOL    HW257441   7.943   8.272   1.864  0.9505 -2.2884  0.7168
17544SOL     OW57442   7.237   4.353   6.951 -0.7963  0.3590 -0.4259
17544SOL    HW157443   7.155   4.395   6.976 -1.0073 -0.3311  0.0878
17544SOL    HW257444   7.213   4.297   6.876 -1.4263 -1.8716  1.3170
17545SOL     OW57445   5.747   8.137   5.207 -0.0805  0.2562  0.0652
17545SOL    HW157446   5.655   8.150   5.227 -0.0375 -0.0642  0.4690
17545SOL    HW257447   5.759   8.042   5.205  0.5827  0.2791  1.6320
17546SOL     OW57448   3.831  11.588  11.615  0.2112  0.2597  0.8323
17546SOL    HW157449   3.827  11.625  11.527 -1.4820 -1.0328  0.3242
17546SOL    HW257450   3.747  11.544  11.627  0.6635 -0.1604  2.8546
17547SOL     OW57451  10.897   5.844  12.041 -0.7540 -0.1231 -0.3405
17547SOL    HW157452  10.868   5.836  11.950 -2.7845  1.1561  0.1292
17547SOL    HW257453  10.919   5.937  12.051 -1.2859 -0.0927  0.6655
17548SOL     OW57454   4.468   8.353  10.660  0.4145 -0.2122 -0.0995
17548SOL    HW157455   4.487   8.393  10.744  1.2399  1.6278 -1.0980
17548SOL    HW257456   4.554   8.331  10.624  0.0394 -1.6878 -0.1799
17549SOL     OW57457   5.760   1.963   8.953 -0.4347 -0.1827  0.3517
17549SOL    HW157458   5.677   1.958   9.000 -0.3286  1.4630  0.7824
17549SOL    HW257459   5.737   2.003   8.869 -0.1324  0.0681  0.3831
17550SOL     OW57460   3.027   2.278   4.302 -0.7523 -0.8899 -0.4428
17550SOL    HW157461   3.088   2.209   4.274  0.1132  0.2956 -1.5871
17550SOL    HW257462   2.944   2.232   4.315  0.5489 -2.7771  2.2540
17551SOL     OW57463   1.495   4.306   0.125 -0.1631 -0.7274 -1.0415
17551SOL    HW157464   1.401   4.297   0.142 -0.0672 -1.9241 -1.0370
17551SOL    HW257465   1.500   4.348   0.040 -0.6902  0.1698 -0.6491
17552SOL     OW57466  12.575   9.939   1.029  0.2613 -0.3238  0.0597
17552SOL    HW157467  12.485   9.949   0.999  0.8121  1.0918 -1.3175
17552SOL    HW257468  12.568   9.932   1.124 -1.2030  2.1382  0.2243
17553SOL     OW57469  10.285   7.138   0.433  0.0225  0.4497  0.1897
17553SOL    HW157470  10.253   7.133   0.523  0.5240 -1.6023  0.3073
17553SOL    HW257471  10.368   7.186   0.440  1.1590 -1.4789  1.2356
17554SOL     OW57472  11.066   1.131   1.859  0.5026 -0.3291  0.1056
17554SOL    HW157473  10.971   1.139   1.862  0.3887 -0.8587 -1.3890
17554SOL    HW257474  11.082   1.051   1.809  1.7273  0.1406 -0.2803
17555SOL     OW57475   9.510  12.507   1.369  0.3197  0.0067 -0.8219
17555SOL    HW157476   9.600  12.504   1.336 -0.0303 -1.7249 -1.7131
17555SOL    HW257477   9.497  12.423   1.413 -0.6827  0.4718 -0.1905
17556SOL     OW57478   0.507  10.935   2.869  0.0521 -0.0570  0.0879
17556SOL    HW157479   0.421  10.916   2.831  1.3558 -1.6337 -2.4002
17556SOL    HW257480   0.543  11.004   2.812  0.8687 -0.2336  0.3806
17557SOL     OW57481   5.454   8.882   4.310 -0.4364 -0.0793 -0.1599
17557SOL    HW157482   5.533   8.828   4.317  0.0363  0.6738  0.4780
17557SOL    HW257483   5.487   8.972   4.308 -1.2931  0.2583  0.4246
17558SOL     OW57484  11.570   3.595   6.064  0.2470 -0.2624  0.4875
17558SOL    HW157485  11.628   3.671   6.065  0.6321 -0.5416 -0.1625
17558SOL    HW257486  11.614   3.532   6.008  0.1899 -1.1792  1.4529
17559SOL     OW57487   1.741   2.675   2.435  1.2084  0.4391 -0.0276
17559SOL    HW157488   1.817   2.727   2.461  0.3359  1.2186  1.0777
17559SOL    HW257489   1.682   2.679   2.510  0.0375 -0.0878 -0.8777
17560SOL     OW57490   4.332   6.339   1.990 -0.0964 -0.3306 -0.2128
17560SOL    HW157491   4.391   6.282   2.039  0.1392  0.7155  0.7421
17560SOL    HW257492   4.388   6.405   1.950 -0.5404  0.3398  0.2398
17561SOL     OW57493   7.526   0.125  10.894  0.5749  0.1905 -0.3678
17561SOL    HW157494   7.602   0.070  10.877  0.6855 -0.0188  0.7308
17561SOL    HW257495   7.451   0.069  10.875  0.6861  0.3738 -1.3812
17562SOL     OW57496   4.658  11.884   6.132  0.2510 -0.1506  0.1111
17562SOL    HW157497   4.673  11.880   6.037 -0.2075  1.5740 -0.0777
17562SOL    HW257498   4.740  11.854   6.171  1.1206  0.8589 -0.8614
17563SOL     OW57499   3.277   7.765  11.151 -0.2889 -0.2082  0.0640
17563SOL    HW157500   3.227   7.835  11.110 -1.8377 -0.3853  1.5208
17563SOL    HW257501   3.357   7.807  11.184 -0.2948  0.4581 -0.7550
17564SOL     OW57502   3.648   2.449   6.203 -0.0501 -0.5765  0.3736
17564SOL    HW157503   3.705   2.435   6.278 -0.4555 -0.8101  0.6399
17564SOL    HW257504   3.587   2.517   6.231  1.5272  1.3571 -0.7061
17565SOL     OW57505   0.868   2.876  12.467  0.7586  0.0333  0.0795
17565SOL    HW157506   0.828   2.940  12.526 -0.3397 -0.3195 -0.2545
17565SOL    HW257507   0.885   2.925  12.387 -0.8141 -0.2480 -0.4573
17566SOL     OW57508  11.023  11.268   3.434 -0.3067 -0.5088 -0.3064
17566SOL    HW157509  11.053  11.325   3.505  0.0368 -1.9250  0.7460
17566SOL    HW257510  11.065  11.184   3.452 -1.8911 -1.4988 -0.9993
17567SOL     OW57511   9.236   0.586  11.540  0.4245  0.1602 -0.1280
17567SOL    HW157512   9.146   0.609  11.562  0.4518 -0.3515  0.5514
17567SOL    HW257513   9.227   0.517  11.474  0.3313  0.7651 -0.7592
17568SOL     OW57514   8.040   4.135   1.865  0.2640  0.2550 -0.0031
17568SOL    HW157515   7.984   4.096   1.798  0.5547 -2.1974  1.0705
17568SOL    HW257516   8.052   4.065   1.929  3.8576  0.9292  0.2588
17569SOL     OW57517  11.123   2.586   3.818 -0.6005 -0.4288 -0.0526
17569SOL    HW157518  11.111   2.492   3.828 -1.3610 -0.2670  0.8147
17569SOL    HW257519  11.215   2.598   3.798 -0.8411 -1.4705 -1.9114
17570SOL     OW57520   9.473   1.791   4.313  0.2677  1.0015  0.5055
17570SOL    HW157521   9.483   1.884   4.292 -1.5529  1.2684  0.6879
17570SOL    HW257522   9.526   1.778   4.392  0.0239  2.0403  0.8489
17571SOL     OW57523   7.411   8.478  12.167  0.0271 -0.2532  0.0044
17571SOL    HW157524   7.443   8.492  12.078  0.1245 -0.3174  0.0287
17571SOL    HW257525   7.469   8.411  12.202  0.8333  0.7056  0.5655
17572SOL     OW57526   4.256   0.431   4.050 -0.2008 -0.0025  0.4231
17572SOL    HW157527   4.230   0.437   3.958 -2.6410  0.5090  1.0723
17572SOL    HW257528   4.243   0.339   4.072  1.8055 -0.4464 -0.0725
17573SOL     OW57529   5.353   0.307   2.082 -0.4845 -0.1151 -0.4537
17573SOL    HW157530   5.353   0.368   2.156  1.6079  1.5280 -1.6890
17573SOL    HW257531   5.445   0.281   2.072 -0.8622 -1.0343 -1.9017
17574SOL     OW57532   9.639   5.224  12.395 -0.7863  0.3562 -0.2655
17574SOL    HW157533   9.614   5.305  12.352 -1.7659 -0.4101 -1.1986
17574SOL    HW257534   9.644   5.160  12.323  1.5446 -0.0798  0.2018
17575SOL     OW57535   5.604   4.995   4.846  0.1116  0.0499 -0.3178
17575SOL    HW157536   5.663   5.022   4.916  1.4471 -0.6073 -1.1503
17575SOL    HW257537   5.614   4.900   4.842  0.1238  0.0900 -1.4671
17576SOL     OW57538   0.790   6.388   1.449  0.5604 -0.0595  0.3070
17576SOL    HW157539   0.702   6.375   1.415  0.6293  0.7901 -0.2497
17576SOL    HW257540   0.799   6.484   1.455  2.1781  0.0073 -1.7373
17577SOL     OW57541  11.153   5.681  11.234 -0.7846 -0.0210 -0.0340
17577SOL    HW157542  11.172   5.594  11.268 -2.2172 -0.4964 -0.3817
17577SOL    HW257543  11.126   5.666  11.143 -2.4240  0.5939  0.3089
17578SOL     OW57544   7.086  12.051  11.718 -0.2690  0.0836  0.3181
17578SOL    HW157545   7.003  12.015  11.688  0.8113 -1.7792 -0.6521
17578SOL    HW257546   7.152  11.995  11.678  1.4199  0.2055  2.7219
17579SOL     OW57547   8.292   9.912   0.807  0.1244 -0.0918  0.4417
17579SOL    HW157548   8.205   9.901   0.846  1.0304 -1.2224  2.2475
17579SOL    HW257549   8.342   9.836   0.838  1.5938  0.2031 -1.0745
17580SOL     OW57550   5.233   8.482   0.928  0.2043  0.2007  0.5253
17580SOL    HW157551   5.243   8.568   0.887 -0.0665 -1.3035 -3.1513
17580SOL    HW257552   5.138   8.465   0.925  0.4550 -1.3258 -1.6868
17581SOL     OW57553  10.057   2.145   9.627 -0.1736  0.0356 -0.7078
17581SOL    HW157554  10.003   2.169   9.702 -1.3702 -0.8513 -1.2537
17581SOL    HW257555   9.999   2.092   9.572  0.3652  1.4123 -2.7135
17582SOL     OW57556   8.913   6.991   2.046 -0.6444  0.0609 -0.4825
17582SOL    HW157557   8.905   7.074   1.999 -1.3210 -1.1936 -2.7170
17582SOL    HW257558   9.005   6.967   2.037 -1.0295 -0.8490 -2.5130
17583SOL     OW57559  11.110   4.926   0.545 -0.1734 -0.0511  0.2153
17583SOL    HW157560  11.145   4.945   0.632  1.9571  0.2978 -0.6485
17583SOL    HW257561  11.111   4.830   0.539 -0.2496 -0.0714  0.5611
17584SOL     OW57562   1.283   4.399   4.575 -0.3188 -0.2152  0.3500
17584SOL    HW157563   1.196   4.437   4.585 -0.7582 -1.1397  0.1594
17584SOL    HW257564   1.282   4.359   4.488  0.9198  1.3131 -0.4155
17585SOL     OW57565   4.340   7.427   1.000 -0.1833  0.0875  0.0818
17585SOL    HW157566   4.287   7.447   1.077 -1.1989  0.2070 -0.6321
17585SOL    HW257567   4.406   7.366   1.031 -1.1284 -0.5598  0.8581
17586SOL     OW57568   8.636   5.475   2.584 -0.4772 -0.1505 -0.4016
17586SOL    HW157569   8.653   5.556   2.631 -0.5628 -0.2419 -0.2133
17586SOL    HW257570   8.658   5.495   2.493  1.9518 -0.6336 -0.0061
17587SOL     OW57571   5.180   8.810  11.271  0.1059  0.7225 -0.2650
17587SOL    HW157572   5.101   8.850  11.234  0.6285  1.6630 -0.3885
17587SOL    HW257573   5.235   8.884  11.296  0.5005  0.0902  0.8262
17588SOL     OW57574   6.480  10.022   5.530 -0.4757  0.3891 -0.2832
17588SOL    HW157575   6.523  10.099   5.492 -1.8393  0.4782 -1.7632
17588SOL    HW257576   6.520   9.948   5.486  0.3881  0.2797  0.6751
17589SOL     OW57577   1.454   4.429  10.791 -0.2271 -0.1031 -0.2845
17589SOL    HW157578   1.416   4.416  10.704  2.0617  0.8416 -1.5020
17589SOL    HW257579   1.433   4.520  10.812  0.2630  0.0445 -0.4165
17590SOL     OW57580   5.289   4.778   6.666  0.0429  0.5307 -0.3305
17590SOL    HW157581   5.352   4.849   6.655  0.2556  0.3675 -0.2033
17590SOL    HW257582   5.214   4.802   6.612  0.1708  0.7813 -0.3968
17591SOL     OW57583  11.899   2.180   4.712 -0.2654  0.3100  0.1131
17591SOL    HW157584  11.956   2.108   4.685 -1.3414 -0.3338 -0.4997
17591SOL    HW257585  11.903   2.179   4.807  0.3224 -0.0607  0.0910
17592SOL     OW57586   8.892   9.374   4.974  0.2690  0.2189  0.3864
17592SOL    HW157587   8.874   9.445   4.912 -0.1938 -0.9767 -0.9215
17592SOL    HW257588   8.813   9.369   5.027  0.0592  0.2988  0.0874
17593SOL     OW57589   6.709   3.058  11.370 -0.0444 -0.6088 -0.3262
17593SOL    HW157590   6.745   3.144  11.393  0.1516 -0.2553 -1.8749
17593SOL    HW257591   6.618   3.062  11.400  0.2306 -0.2310  0.4927
17594SOL     OW57592  11.221   5.422   7.119 -0.3479 -0.1419  0.0967
17594SOL    HW157593  11.149   5.377   7.163 -1.9296  1.2672 -0.9344
17594SOL    HW257594  11.234   5.503   7.169 -0.0804  0.0396 -0.2590
17595SOL     OW57595   5.683   3.414   6.033  0.3242 -0.2608 -0.4455
17595SOL    HW157596   5.716   3.361   5.962 -0.0620 -1.4524  0.2278
17595SOL    HW257597   5.760   3.455   6.072  0.5699  0.0873 -1.2898
17596SOL     OW57598   5.545   6.872   7.937  1.0485 -0.0131 -0.2397
17596SOL    HW157599   5.561   6.888   8.030 -0.1755  0.1439 -0.0474
17596SOL    HW257600   5.471   6.811   7.935  0.3848  0.8059 -1.1287
17597SOL     OW57601   8.987   5.132   1.695 -0.0588  0.1532 -0.5563
17597SOL    HW157602   8.941   5.148   1.613 -0.2437 -0.8475 -0.6659
17597SOL    HW257603   8.959   5.045   1.721 -0.5466  0.7340  0.9421
17598SOL     OW57604   1.511   1.045  11.698  0.1992 -0.3199 -0.0395
17598SOL    HW157605   1.521   0.983  11.770 -0.3982 -0.1656  0.1833
17598SOL    HW257606   1.457   0.998  11.634  1.3994 -0.7618 -0.7618
17599SOL     OW57607  12.033  12.357   9.692 -0.4104 -0.9361 -0.5184
17599SOL    HW157608  12.063  12.434   9.739  1.9377 -0.3797 -2.7267
17599SOL    HW257609  12.025  12.289   9.759 -0.9610  0.7530  1.2004
17600SOL     OW57610   0.665   7.570   9.439  0.3908 -0.2155 -0.1153
17600SOL    HW157611   0.715   7.489   9.443  0.6080 -0.0641  0.3892
17600SOL    HW257612   0.731   7.640   9.443  0.2062 -0.0155 -0.5254
17601SOL     OW57613   9.973   3.480   2.663  0.6238  0.0872 -0.4946
17601SOL    HW157614   9.928   3.404   2.700 -1.6099  1.0683 -1.0486
17601SOL    HW257615  10.038   3.504   2.729 -0.4424 -0.7128  0.8977
17602SOL     OW57616   9.501   0.454   9.831 -0.2484 -0.8310 -0.8238
17602SOL    HW157617   9.505   0.534   9.779  0.6924  0.1181  0.6209
17602SOL    HW257618   9.554   0.474   9.909 -0.3245 -2.7217 -0.2436
17603SOL     OW57619   6.267   7.121   0.254 -0.8213  0.1113 -0.5691
17603SOL    HW157620   6.257   7.215   0.238 -0.4837  0.8755  2.9228
17603SOL    HW257621   6.181   7.093   0.286 -0.4800 -0.3571 -0.0361
17604SOL     OW57622  10.998   6.055   4.990 -0.2221 -0.2052 -0.5009
17604SOL    HW157623  10.982   5.962   5.002  2.1777 -0.5409  0.6731
17604SOL    HW257624  10.956   6.097   5.064 -0.1038 -0.5146 -0.2568
17605SOL     OW57625   0.980   3.679   7.650  0.8834  0.2222 -0.3644
17605SOL    HW157626   0.985   3.766   7.611 -0.4585  1.5893  2.2268
17605SOL    HW257627   0.891   3.649   7.630  0.4849  0.5639  0.8276
17606SOL     OW57628   3.473   4.099   9.784 -0.4622  0.0176  0.0913
17606SOL    HW157629   3.568   4.103   9.795 -0.5529 -0.0312  0.9659
17606SOL    HW257630   3.457   4.010   9.753 -0.2903 -0.2515  0.7574
17607SOL     OW57631   6.911   5.747   9.282  0.0044  0.0898  0.0353
17607SOL    HW157632   6.967   5.669   9.292  0.2132  0.4273  1.9671
17607SOL    HW257633   6.866   5.754   9.366  1.1307  2.9111  0.5040
17608SOL     OW57634  12.623   8.260   5.086 -0.0973 -0.0286 -0.3535
17608SOL    HW157635  12.631   8.338   5.142 -0.8692 -0.1627 -0.0420
17608SOL    HW257636  12.536   8.268   5.047 -0.4863 -1.1132  0.2687
17609SOL     OW57637  10.020  11.264   5.981  0.0852  0.4204 -0.3956
17609SOL    HW157638   9.978  11.342   6.017  0.2382  0.5269 -0.4480
17609SOL    HW257639   9.966  11.240   5.906  1.5553  2.1023 -2.1159
17610SOL     OW57640   5.735   6.409  12.403 -0.6194 -0.0339  0.2568
17610SOL    HW157641   5.643   6.382  12.399 -0.3565 -0.9331 -0.2252
17610SOL    HW257642   5.735   6.500  12.376 -1.2126 -0.4519 -1.2390
17611SOL     OW57643   4.741  10.421   5.960 -0.2783 -0.3294  0.5011
17611SOL    HW157644   4.731  10.376   6.044  0.0451  0.3030  0.8891
17611SOL    HW257645   4.747  10.514   5.983  0.2063 -0.1813 -0.1867
17612SOL     OW57646   2.926  11.964  10.707  0.3240 -0.4101 -0.2576
17612SOL    HW157647   2.907  12.049  10.747 -0.0657 -0.5098 -0.2372
17612SOL    HW257648   2.972  11.915  10.776 -0.5460 -0.6626  0.1471
17613SOL     OW57649   4.728   0.872   7.707 -0.3849 -0.4826  0.6782
17613SOL    HW157650   4.698   0.785   7.735 -0.9316 -0.5262 -0.0182
17613SOL    HW257651   4.820   0.875   7.734 -0.1686 -1.5384  0.1210
17614SOL     OW57652   8.739   5.103  11.752  0.3145  0.0338 -0.4518
17614SOL    HW157653   8.733   5.077  11.660  0.6695  2.4588 -1.2319
17614SOL    HW257654   8.699   5.190  11.755 -0.7866 -0.4685  1.9560
17615SOL     OW57655   7.758  10.313   0.450  0.7170  0.1173  0.3363
17615SOL    HW157656   7.806  10.315   0.533  0.5657 -0.5623  0.4476
17615SOL    HW257657   7.824  10.332   0.384  0.4979  2.5526  0.7231
17616SOL     OW57658   0.914   8.690   7.324 -0.1309 -0.1506  0.2807
17616SOL    HW157659   0.833   8.640   7.328  0.8084 -2.0603 -1.7536
17616SOL    HW257660   0.904   8.746   7.247  0.3207 -0.1042  0.2511
17617SOL     OW57661   5.671   8.745   3.280  0.3872  0.9596 -0.3645
17617SOL    HW157662   5.616   8.717   3.353  1.5372  2.8627  1.3495
17617SOL    HW257663   5.611   8.748   3.205 -1.6050  1.8856  1.1671
17618SOL     OW57664   7.156   1.296   6.884 -0.5536  0.6361 -0.0757
17618SOL    HW157665   7.092   1.303   6.813 -1.0705  1.4537  0.4489
17618SOL    HW257666   7.116   1.233   6.945 -1.0081  1.3637  0.3905
17619SOL     OW57667   0.052   0.502   1.943 -0.3354  0.0768  0.6045
17619SOL    HW157668   0.127   0.545   1.985 -0.3729  1.4906 -0.7368
17619SOL    HW257669   0.092   0.432   1.891  0.1582  1.3433 -0.7607
17620SOL     OW57670   9.197   4.988  10.505 -0.5413 -0.5329  0.1316
17620SOL    HW157671   9.248   5.027  10.434 -0.4723  0.1508  0.5572
17620SOL    HW257672   9.256   4.924  10.545 -0.2221 -0.1760  0.2367
17621SOL     OW57673   7.005   0.755  10.625 -0.1882 -0.4722 -0.1772
17621SOL    HW157674   7.033   0.664  10.617  0.2315 -0.2733 -1.1544
17621SOL    HW257675   7.087   0.805  10.633 -0.4404 -0.2379  1.1554
17622SOL     OW57676  12.359   1.284   9.852 -0.1100  0.0268 -0.0407
17622SOL    HW157677  12.353   1.305   9.945 -0.5560  0.0393 -0.0699
17622SOL    HW257678  12.276   1.314   9.815  0.3304  0.6257 -0.5671
17623SOL     OW57679   5.263   2.521   0.104  0.5321  0.2040 -0.1164
17623SOL    HW157680   5.299   2.444   0.147  0.4679 -0.9777 -2.0392
17623SOL    HW257681   5.169   2.519   0.125  0.1820 -1.3116 -1.5287
17624SOL     OW57682   7.120   5.968  11.363 -0.2772 -0.3423  0.1679
17624SOL    HW157683   7.076   6.036  11.415 -0.5561 -0.1041 -0.3575
17624SOL    HW257684   7.078   5.975  11.277 -0.1457 -1.0344  0.0465
17625SOL     OW57685   5.502   3.996  10.122  0.2685  0.0053  0.1863
17625SOL    HW157686   5.574   3.943  10.156  0.3496 -1.2679 -1.8048
17625SOL    HW257687   5.540   4.045  10.049 -0.8129 -0.5772 -0.8054
17626SOL     OW57688  12.010   2.256   5.691 -1.0834  0.5654 -0.2403
17626SOL    HW157689  12.013   2.243   5.786 -1.0778 -1.7049 -0.5058
17626SOL    HW257690  12.036   2.347   5.679 -2.9055  1.4771  2.0516
17627SOL     OW57691   6.262   6.531   8.346  0.2870 -0.0838 -0.0761
17627SOL    HW157692   6.249   6.516   8.253 -0.0683 -0.1901 -0.0081
17627SOL    HW257693   6.348   6.574   8.351  0.7929 -1.0234 -0.3652
17628SOL     OW57694   2.938   6.977  10.068 -0.2870 -0.4957 -0.2842
17628SOL    HW157695   2.893   6.911  10.015 -2.9393 -0.2962  1.5063
17628SOL    HW257696   2.914   7.061  10.028  0.2111 -0.4651 -0.5232
17629SOL     OW57697   1.782   0.028   1.744 -0.5615 -0.4468  0.1399
17629SOL    HW157698   1.712   0.047   1.682 -0.0570  0.3366 -0.2111
17629SOL    HW257699   1.737   0.006   1.825 -1.2223  0.6379  0.0898
17630SOL     OW57700   9.108   5.204  11.650 -0.4194  0.2621  0.4031
17630SOL    HW157701   9.152   5.280  11.612 -0.4449  0.4001  0.6473
17630SOL    HW257702   9.022   5.237  11.677 -0.7031 -0.0241 -0.1394
17631SOL     OW57703   9.995  12.367   6.262 -0.4083 -0.2257 -0.0949
17631SOL    HW157704   9.977  12.458   6.288 -0.2279 -0.8051  2.2428
17631SOL    HW257705  10.035  12.375   6.175 -1.5116  1.8315 -0.4940
17632SOL     OW57706   5.986  10.478   0.733 -0.0498 -0.0789 -0.0448
17632SOL    HW157707   6.036  10.527   0.668 -2.5399  1.0921 -1.2532
17632SOL    HW257708   5.897  10.513   0.726 -0.8154 -1.0944  2.8587
17633SOL     OW57709   3.324   1.932   8.676 -0.3514  0.2649  0.4487
17633SOL    HW157710   3.391   1.868   8.655 -0.6656  0.1202 -0.1403
17633SOL    HW257711   3.372   2.013   8.693 -0.0755  0.3906 -0.8530
17634SOL     OW57712   2.176   7.221   8.708 -0.1343  0.0758  0.6493
17634SOL    HW157713   2.192   7.238   8.615 -0.1359  0.4657  0.7170
17634SOL    HW257714   2.139   7.303   8.741 -3.3925 -1.0913  0.2697
17635SOL     OW57715   5.977  10.829   7.419  0.4802  0.0948 -0.5510
17635SOL    HW157716   5.958  10.916   7.454  1.2665  0.6578 -1.4851
17635SOL    HW257717   5.898  10.778   7.436  0.1678  0.8660  0.3777
17636SOL     OW57718  10.001  12.352   5.605  0.5324  0.3536 -0.0646
17636SOL    HW157719   9.998  12.439   5.565  1.5468  0.7386  0.6641
17636SOL    HW257720   9.936  12.356   5.675 -1.5979 -0.4741 -1.8552
17637SOL     OW57721   3.525  11.327   1.288 -0.6229 -0.7039 -0.5818
17637SOL    HW157722   3.469  11.339   1.365  1.8778  0.0807  1.2637
17637SOL    HW257723   3.564  11.413   1.274  1.8181 -1.6822 -0.3023
17638SOL     OW57724   1.192   2.134   2.141  0.3121 -0.7817  0.4740
17638SOL    HW157725   1.174   2.156   2.233  2.5269 -1.4062  1.1038
17638SOL    HW257726   1.196   2.038   2.140  0.9358 -0.7543 -0.1446
17639SOL     OW57727  11.010   0.060   8.821 -0.2337  0.3603  0.0090
17639SOL    HW157728  11.078   0.066   8.754  0.0768 -0.0807  0.2861
17639SOL    HW257729  11.044  -0.002   8.886 -2.2565 -2.5917 -1.5021
17640SOL     OW57730   6.460   9.350   6.827  0.1126  0.4547 -0.1741
17640SOL    HW157731   6.487   9.334   6.918 -0.3478  0.4476 -0.0346
17640SOL    HW257732   6.437   9.263   6.793 -1.0911  0.6236  0.1589
17641SOL     OW57733  12.096   8.267   0.370  0.0902 -0.0957 -0.0966
17641SOL    HW157734  12.095   8.250   0.464  0.9930 -0.3355 -0.1260
17641SOL    HW257735  12.029   8.208   0.335  0.4378 -0.7190  0.2741
17642SOL     OW57736  11.904   5.930   7.224  0.0214  0.0574 -0.4748
17642SOL    HW157737  11.881   5.854   7.169  0.7965 -1.0401  0.6666
17642SOL    HW257738  11.820   5.958   7.261 -0.0564 -1.6261  0.7691
17643SOL     OW57739   3.522   8.543   1.211  0.9293  0.6789  0.6892
17643SOL    HW157740   3.465   8.574   1.141  1.4099 -1.2551 -0.6373
17643SOL    HW257741   3.528   8.617   1.272 -1.3820  1.6144 -0.1131
17644SOL     OW57742  10.139   7.152  11.127 -0.5006  0.4160 -0.0975
17644SOL    HW157743  10.057   7.160  11.078 -0.1050 -0.8886 -1.0378
17644SOL    HW257744  10.154   7.058  11.133  1.3821  0.6312 -0.7503
17645SOL     OW57745   9.887   6.784  10.111  0.2849 -0.0246  0.0869
17645SOL    HW157746   9.823   6.791  10.182  1.8306  0.6017  1.4638
17645SOL    HW257747   9.916   6.694  10.113  0.4949  0.0496  0.4035
17646SOL     OW57748   9.845   0.500   8.805  0.1213 -0.8280  0.7510
17646SOL    HW157749   9.889   0.569   8.854 -1.6856 -0.8644  2.5855
17646SOL    HW257750   9.845   0.531   8.714  0.8787  0.7530  1.2508
17647SOL     OW57751   6.747   0.330   1.721 -0.1111 -0.7016 -0.1745
17647SOL    HW157752   6.779   0.312   1.633  0.8313  1.0610 -0.2369
17647SOL    HW257753   6.805   0.279   1.778  2.2089  1.5273 -0.3633
17648SOL     OW57754   1.557   3.171  12.239  0.1369  0.1448  0.6154
17648SOL    HW157755   1.489   3.164  12.306  1.0367 -0.7281  1.4773
17648SOL    HW257756   1.523   3.122  12.164 -0.1470 -0.3686  1.0719
17649SOL     OW57757  11.038   7.943  12.520  0.2884 -0.3230  0.2801
17649SOL    HW157758  11.004   7.910  12.603  0.9428 -0.0441  0.6695
17649SOL    HW257759  11.087   7.870  12.483 -0.8949 -0.7931 -0.3832
17650SOL     OW57760   5.429   1.351  12.607  0.2333  0.4006  0.2781
17650SOL    HW157761   5.412   1.304  12.525  1.2054 -0.5791  0.6239
17650SOL    HW257762   5.462   1.437  12.579  1.1386 -0.1432 -0.3753
17651SOL     OW57763  11.055   6.834   3.222 -0.0809 -0.2351  0.7719
17651SOL    HW157764  10.989   6.780   3.265  0.8092 -1.0167  1.2015
17651SOL    HW257765  11.024   6.924   3.233 -1.4400 -0.6315  0.2994
17652SOL     OW57766  11.400   2.379   4.507 -0.3088  0.0553 -0.3936
17652SOL    HW157767  11.448   2.416   4.581  0.3290 -0.7124 -0.4057
17652SOL    HW257768  11.311   2.412   4.517 -0.6664 -1.3213  1.6774
17653SOL     OW57769   3.653  10.867  10.616  0.3946  0.1011 -0.4243
17653SOL    HW157770   3.722  10.833  10.673 -0.9398 -0.4280  0.9613
17653SOL    HW257771   3.652  10.961  10.633  2.0614  0.4660 -1.9765
17654SOL     OW57772   7.686   1.965  10.823 -0.4240 -0.3965  0.2508
17654SOL    HW157773   7.668   1.872  10.809  1.3544 -0.7973  0.4857
17654SOL    HW257774   7.666   2.007  10.739  1.3877 -1.4105 -0.7271
17655SOL     OW57775   5.298  11.235   3.148  0.1633 -0.4465  0.4170
17655SOL    HW157776   5.380  11.280   3.164  0.5191 -1.3350  1.2066
17655SOL    HW257777   5.263  11.215   3.235 -1.1349  0.3360  0.1008
17656SOL     OW57778   0.979   5.292   5.788  0.3719  0.2079 -0.3219
17656SOL    HW157779   0.960   5.318   5.698 -2.1916  0.6968  0.2736
17656SOL    HW257780   0.913   5.225   5.807  1.5137 -0.6154  0.8936
17657SOL     OW57781   3.623   8.042   1.995 -0.2545 -0.2202  0.5561
17657SOL    HW157782   3.596   7.951   1.989 -1.2529  0.0877  0.1351
17657SOL    HW257783   3.641   8.056   2.088 -0.6680 -0.6917  0.7140
17658SOL     OW57784   4.238  11.228   9.267 -0.2520 -0.0708 -0.0806
17658SOL    HW157785   4.293  11.283   9.323  0.2005 -0.4150 -0.1787
17658SOL    HW257786   4.223  11.281   9.188 -0.4582  0.2106  0.1464
17659SOL     OW57787   5.372   4.067   3.658 -0.2003  0.3160 -0.3507
17659SOL    HW157788   5.297   4.026   3.700 -0.1217  1.2324  0.7281
17659SOL    HW257789   5.336   4.142   3.611  0.2042  1.8284  1.6402
17660SOL     OW57790  11.331   8.061   6.412 -0.0711  0.6521 -0.4742
17660SOL    HW157791  11.257   8.114   6.385 -1.8115 -0.6205  1.4560
17660SOL    HW257792  11.377   8.039   6.331 -3.5062 -0.9651 -2.1643
17661SOL     OW57793  12.367   7.202   5.697  0.6441  0.2485 -0.0667
17661SOL    HW157794  12.457   7.208   5.666  0.5378  0.0252 -0.4289
17661SOL    HW257795  12.314   7.226   5.621  0.3387 -1.5060 -0.4550
17662SOL     OW57796   9.412   1.060   5.469  0.7112 -0.0185  0.3889
17662SOL    HW157797   9.464   1.006   5.528  1.4270 -2.1666 -2.0372
17662SOL    HW257798   9.466   1.071   5.392 -2.1176 -1.9761 -2.1000
17663SOL     OW57799   9.032   4.634   4.640 -0.0880 -0.3769  0.3880
17663SOL    HW157800   9.097   4.587   4.692  0.3164  1.0414  1.2309
17663SOL    HW257801   8.957   4.644   4.698 -0.3789 -0.4854  0.0287
17664SOL     OW57802  11.080   8.992   4.564  0.1179  0.3823 -0.1479
17664SOL    HW157803  11.162   8.951   4.589 -0.1107  0.2702  0.4340
17664SOL    HW257804  11.041   8.931   4.500 -0.2564 -0.3616  0.7694
17665SOL     OW57805   2.380   1.768   4.557 -0.3225  0.0662 -0.2054
17665SOL    HW157806   2.393   1.697   4.495  0.5239  0.6455 -0.7178
17665SOL    HW257807   2.456   1.763   4.616 -0.5762  0.1649  0.1347
17666SOL     OW57808   3.359   1.764   0.539  0.0556  0.7863 -0.0265
17666SOL    HW157809   3.271   1.788   0.569  0.1332 -0.4287  1.2695
17666SOL    HW257810   3.410   1.753   0.619  0.9594 -0.0741 -0.6948
17667SOL     OW57811   6.534   3.726   5.300 -0.7255 -0.0206 -0.5652
17667SOL    HW157812   6.536   3.668   5.223  1.3999  1.1911 -1.5301
17667SOL    HW257813   6.502   3.809   5.266 -0.8979  0.2000  0.1289
17668SOL     OW57814   5.166   7.350   8.970 -0.7818 -0.1143 -0.3425
17668SOL    HW157815   5.220   7.372   9.046 -0.2081  0.7743 -0.9996
17668SOL    HW257816   5.076   7.351   9.004 -0.5066 -0.0816  0.4061
17669SOL     OW57817   0.664   4.996   5.293 -0.3023 -0.3290 -0.2593
17669SOL    HW157818   0.640   5.074   5.243 -0.0141 -0.8027 -1.1532
17669SOL    HW257819   0.593   4.934   5.275 -0.6728 -0.1974  0.6657
17670SOL     OW57820   1.558   9.153  12.519 -0.1124 -0.3135  0.5611
17670SOL    HW157821   1.634   9.116  12.473 -0.5411  0.0424 -0.4608
17670SOL    HW257822   1.582   9.148  12.611  1.3763  0.2531  0.2421
17671SOL     OW57823   1.891  10.540   6.628 -0.5547  0.3475 -0.4539
17671SOL    HW157824   1.880  10.447   6.608 -2.5057  0.2770  0.6796
17671SOL    HW257825   1.959  10.570   6.568 -0.4409 -1.6371 -1.3782
17672SOL     OW57826   0.454   7.718   3.461  0.4583 -0.1981 -0.0449
17672SOL    HW157827   0.410   7.637   3.432  0.6772 -0.4652  0.3562
17672SOL    HW257828   0.502   7.692   3.540  0.1480  0.4358  0.3604
17673SOL     OW57829  10.594   8.568   2.444 -0.2904  0.3282 -0.5141
17673SOL    HW157830  10.523   8.525   2.396 -1.9438  0.1988  1.8620
17673SOL    HW257831  10.649   8.497   2.476  0.3820  0.3736 -1.5315
17674SOL     OW57832   6.241   3.934   9.555  0.3951  0.1902 -0.2988
17674SOL    HW157833   6.280   3.892   9.632  0.2698  0.0859 -0.2915
17674SOL    HW257834   6.304   3.919   9.485  0.2542 -0.1969 -0.3461
17675SOL     OW57835   0.778   0.560  10.973  0.1505  0.1196  0.5768
17675SOL    HW157836   0.819   0.562  10.886 -2.3614 -1.3229 -0.7715
17675SOL    HW257837   0.826   0.625  11.024  3.1187 -0.4780 -1.2066
17676SOL     OW57838  11.565   5.379   1.991 -0.2041 -0.0364 -0.2037
17676SOL    HW157839  11.593   5.444   2.056 -0.9184  0.9049 -0.7979
17676SOL    HW257840  11.646   5.353   1.947  0.3496 -1.0165  1.3291
17677SOL     OW57841   8.959   3.226   1.125 -0.1236 -0.0603 -0.2354
17677SOL    HW157842   8.889   3.233   1.060 -0.8783 -2.1125  0.2985
17677SOL    HW257843   9.031   3.185   1.078 -0.1101 -0.0827 -0.1961
17678SOL     OW57844   3.594  11.646   1.367  0.0848 -0.5117  0.0324
17678SOL    HW157845   3.506  11.684   1.372 -0.0462 -0.7883 -0.1576
17678SOL    HW257846   3.652  11.720   1.383 -0.1806 -0.3261  0.1644
17679SOL     OW57847   5.072   6.930   5.740  0.3078  0.1191 -0.2128
17679SOL    HW157848   5.125   6.851   5.744 -3.4218 -2.6098  1.1691
17679SOL    HW257849   5.026   6.924   5.656 -1.2909 -0.1908  0.6481
17680SOL     OW57850  10.559   2.997   6.921 -0.1787  0.1789 -0.5256
17680SOL    HW157851  10.551   3.091   6.935  0.0426 -0.0040  1.0017
17680SOL    HW257852  10.625   2.969   6.984 -0.1667 -0.9865 -1.0327
17681SOL     OW57853   9.896   9.340   9.730 -0.6384  0.0703  0.0504
17681SOL    HW157854   9.892   9.399   9.655 -1.1220 -0.5329 -0.4108
17681SOL    HW257855   9.843   9.383   9.797 -2.0545 -0.4033 -0.7061
17682SOL     OW57856   8.279   0.054  10.903  0.3944 -0.5131  0.0720
17682SOL    HW157857   8.277  -0.029  10.950 -0.4641 -0.2542  0.5178
17682SOL    HW257858   8.208   0.105  10.941  0.9251  0.4419 -0.1813
17683SOL     OW57859   2.636   3.205   3.123 -0.3663  0.3676  0.3947
17683SOL    HW157860   2.541   3.208   3.112 -0.3176  1.0824  0.1562
17683SOL    HW257861   2.651   3.236   3.213 -0.6212 -3.6208  2.0355
17684SOL     OW57862  11.047   4.012   1.027  0.2155 -0.4078 -0.3190
17684SOL    HW157863  11.016   4.035   0.939 -0.1050 -1.6238 -0.5404
17684SOL    HW257864  11.121   4.071   1.042  0.1507 -0.0437 -1.3195
17685SOL     OW57865  11.165   1.412   1.935  0.3145 -0.0512  0.3383
17685SOL    HW157866  11.147   1.323   1.905  0.2283 -0.4297  1.4341
17685SOL    HW257867  11.106   1.424   2.010 -1.1887  1.7066 -1.0576
17686SOL     OW57868   5.222   7.429   4.458  0.1658  0.2367 -0.5923
17686SOL    HW157869   5.239   7.432   4.364  1.4401  1.6991 -0.3545
17686SOL    HW257870   5.290   7.485   4.497  1.8017 -2.8620  1.4989
17687SOL     OW57871   8.025   1.132   6.766  0.3729 -0.3874  0.0120
17687SOL    HW157872   8.116   1.157   6.782  0.3057  0.5023 -0.8420
17687SOL    HW257873   8.027   1.037   6.757  1.0371 -0.4896  1.0311
17688SOL     OW57874   0.666   7.144   2.361  0.0926 -0.1476 -0.1682
17688SOL    HW157875   0.720   7.065   2.360 -1.7913 -1.5022 -0.8977
17688SOL    HW257876   0.597   7.127   2.298 -0.9788  1.6776  0.4245
17689SOL     OW57877  12.317  10.397  10.163 -0.2794 -0.1473  0.4738
17689SOL    HW157878  12.250  10.459  10.134  0.5560  1.1877  1.2950
17689SOL    HW257879  12.267  10.323  10.199 -1.3253  0.7241  0.8916
17690SOL     OW57880   4.519   9.774   1.220 -0.4947 -0.3015 -0.5139
17690SOL    HW157881   4.596   9.759   1.274 -0.1850 -1.4157 -1.2365
17690SOL    HW257882   4.538   9.855   1.173 -0.3696  0.1680  0.3211
17691SOL     OW57883   6.887  12.152   1.098  0.4227 -0.3988  0.1727
17691SOL    HW157884   6.915  12.229   1.050  0.9556 -0.7948 -0.1634
17691SOL    HW257885   6.855  12.091   1.032  1.2460 -0.9825  0.2954
17692SOL     OW57886   0.866   7.459   6.414  0.5251 -0.1058 -0.1428
17692SOL    HW157887   0.788   7.512   6.431  1.3660  0.8480  0.9102
17692SOL    HW257888   0.833   7.371   6.401 -0.6862  0.1525  1.0077
17693SOL     OW57889   2.558  12.352   0.021  0.1094  0.6819 -0.4084
17693SOL    HW157890   2.576  12.400  -0.060 -0.5316  0.2424 -0.8249
17693SOL    HW257891   2.464  12.365   0.036  0.2024  0.6643  0.2025
17694SOL     OW57892   1.167   2.056   8.790 -0.0612 -0.1243  0.1060
17694SOL    HW157893   1.160   1.993   8.718 -0.0032 -0.4180  0.3568
17694SOL    HW257894   1.138   2.139   8.752  1.0114 -0.0405 -0.5638
17695SOL     OW57895  12.161   0.099   6.647  0.2220 -0.0646 -0.5472
17695SOL    HW157896  12.175   0.008   6.673 -0.5288  0.0737  0.3521
17695SOL    HW257897  12.066   0.108   6.637  0.2991  0.5735 -0.8017
17696SOL     OW57898  11.639   2.578   0.004 -0.3222  0.2397 -0.0069
17696SOL    HW157899  11.693   2.571  -0.075  0.4468 -0.3744  0.5684
17696SOL    HW257900  11.558   2.532  -0.019 -0.9918  1.8894 -1.1716
17697SOL     OW57901   1.819   6.362  11.106  0.1743 -0.1675 -0.2486
17697SOL    HW157902   1.772   6.443  11.087  0.5740 -0.0661 -0.8146
17697SOL    HW257903   1.880   6.385  11.176 -0.7149 -0.3405  0.6146
17698SOL     OW57904   8.247   4.007   4.774  0.6253  0.2500 -0.4847
17698SOL    HW157905   8.205   4.032   4.857  0.6599  0.0666 -0.4118
17698SOL    HW257906   8.285   4.088   4.741 -0.8665  0.7196 -1.1801
17699SOL     OW57907   5.924   4.108   1.558 -0.1440 -0.0531  0.2436
17699SOL    HW157908   5.913   4.128   1.651  0.7877 -1.6666  0.7458
17699SOL    HW257909   6.002   4.053   1.555  0.3805  0.7276 -1.6224
17700SOL     OW57910  11.654   7.008   4.766  0.5598  0.6271 -0.3380
17700SOL    HW157911  11.734   7.001   4.816  0.3582  0.3761 -0.0452
17700SOL    HW257912  11.673   6.963   4.683  0.1516 -1.1049  0.4502
17701SOL     OW57913   2.366  10.541  10.281 -0.3881  0.2294  0.2620
17701SOL    HW157914   2.397  10.451  10.284 -2.2163 -0.6387 -2.6779
17701SOL    HW257915   2.338  10.560  10.370  2.4217 -1.1114  1.5534
17702SOL     OW57916   9.272   7.101   8.843 -0.1629 -0.3069 -0.1730
17702SOL    HW157917   9.260   7.169   8.909 -0.7021  1.1433 -1.6822
17702SOL    HW257918   9.191   7.050   8.846  0.1666 -0.7760  0.8488
17703SOL     OW57919   1.807  12.278   8.645 -0.1514 -0.0813 -0.6624
17703SOL    HW157920   1.872  12.210   8.658  1.4739  1.5474  0.1477
17703SOL    HW257921   1.761  12.252   8.565  1.8117 -1.0462 -1.5477
17704SOL     OW57922   5.150   1.775   8.654 -0.5619 -0.2211 -0.2311
17704SOL    HW157923   5.110   1.862   8.662 -2.6978 -0.7374 -3.1866
17704SOL    HW257924   5.098   1.719   8.710 -1.2201 -0.0989 -0.7058
17705SOL     OW57925   0.634   6.577   3.439  0.0319 -0.1929 -0.1404
17705SOL    HW157926   0.619   6.630   3.517  0.2532 -1.3206  0.6961
17705SOL    HW257927   0.569   6.507   3.444 -0.6232  0.2757 -1.5181
17706SOL     OW57928  12.223   0.081  11.581 -0.1316 -0.4465  0.5231
17706SOL    HW157929  12.297   0.026  11.558 -0.8376 -1.1096 -0.2060
17706SOL    HW257930  12.260   0.148  11.639  1.1981 -0.2694 -0.4831
17707SOL     OW57931   0.570  11.098   3.664  0.0879 -0.4562  0.4499
17707SOL    HW157932   0.643  11.155   3.640 -0.8204  0.6681  0.2556
17707SOL    HW257933   0.527  11.079   3.581  0.0195 -0.9307  0.5914
17708SOL     OW57934   2.519   6.396   6.001  0.1317 -0.0470 -0.5968
17708SOL    HW157935   2.611   6.378   6.018  0.3612  0.6668 -1.0335
17708SOL    HW257936   2.507   6.377   5.908 -0.5450 -1.6393 -0.2095
17709SOL     OW57937   3.215  11.742  10.351 -0.4604 -0.0420  0.4911
17709SOL    HW157938   3.309  11.728  10.358 -0.5606 -0.7210  0.4975
17709SOL    HW257939   3.198  11.818  10.407  0.3056  1.0624 -0.7326
17710SOL     OW57940   9.205  10.823  12.132 -0.0564 -0.2532  0.0373
17710SOL    HW157941   9.202  10.811  12.227 -1.7366 -2.6447 -0.2294
17710SOL    HW257942   9.114  10.840  12.106  0.7494  3.4167 -0.9305
17711SOL     OW57943   0.981  10.088   8.923  0.3482  0.2457  0.5177
17711SOL    HW157944   0.953  10.079   8.832  3.5990 -0.1536 -0.5801
17711SOL    HW257945   0.965  10.179   8.945 -0.9735  0.2158 -0.2311
17712SOL     OW57946   8.255  10.259   1.624  0.0994  0.0355 -0.0907
17712SOL    HW157947   8.257  10.341   1.674 -1.2986  0.3213 -0.4672
17712SOL    HW257948   8.325  10.269   1.560  1.4687 -0.0545  1.3422
17713SOL     OW57949   1.248  12.165  12.030  0.0095  0.0368  0.1521
17713SOL    HW157950   1.234  12.131  12.118 -0.1805  0.3083  0.2270
17713SOL    HW257951   1.160  12.187  11.999 -0.0132 -0.8295 -0.4163
17714SOL     OW57952  10.280   8.270   5.575  0.4004  0.0843 -0.0655
17714SOL    HW157953  10.189   8.248   5.595  0.2576  0.7095 -0.0002
17714SOL    HW257954  10.314   8.193   5.530 -0.2598 -0.0287 -0.3920
17715SOL     OW57955   6.494   1.010   6.690 -0.2061 -0.6074 -0.6079
17715SOL    HW157956   6.552   0.936   6.703  2.4528  1.2747 -0.9400
17715SOL    HW257957   6.523   1.075   6.754 -1.0701  0.8788 -1.6490
17716SOL     OW57958   0.499  11.128   3.375 -0.0521  0.0502 -0.0154
17716SOL    HW157959   0.503  11.219   3.405 -1.1435 -0.0738  0.5604
17716SOL    HW257960   0.496  11.134   3.280  0.3390  0.5916  0.0026
17717SOL     OW57961   8.763   8.975  10.830  0.2970  0.4025 -0.0614
17717SOL    HW157962   8.737   8.928  10.751  1.4208 -0.1291 -0.1315
17717SOL    HW257963   8.795   9.060  10.798 -1.6060  1.2187  0.0553
17718SOL     OW57964   8.398   5.264   9.115 -0.5213  0.1791 -0.0106
17718SOL    HW157965   8.417   5.319   9.040  4.6675 -0.3744  0.4947
17718SOL    HW257966   8.421   5.175   9.086 -1.8572 -0.6119  1.2271
17719SOL     OW57967   9.464   9.913  11.389 -0.0277 -0.1115  0.5076
17719SOL    HW157968   9.558   9.914  11.407 -0.2755  0.1688  1.8740
17719SOL    HW257969   9.439  10.005  11.385  0.0211 -0.1480 -1.4802
17720SOL     OW57970   4.641   7.781   1.738  0.5548  0.1124 -0.3738
17720SOL    HW157971   4.653   7.794   1.644  1.1306  0.7413 -0.2206
17720SOL    HW257972   4.729   7.791   1.775  0.3398 -0.1640  0.2268
17721SOL     OW57973   7.308  10.953   4.763 -0.1885  0.0997  0.1912
17721SOL    HW157974   7.310  11.011   4.838  1.4858 -0.5260  0.6694
17721SOL    HW257975   7.392  10.908   4.765  0.6133  1.2194 -2.9854
17722SOL     OW57976   2.383   4.248  11.595 -0.2031 -0.1740  0.3480
17722SOL    HW157977   2.369   4.154  11.609  1.4447 -0.3998  0.7033
17722SOL    HW257978   2.360   4.287  11.679  1.1143 -0.5204  0.8940
17723SOL     OW57979   7.307   0.314   5.204  0.0107  0.1756  0.4967
17723SOL    HW157980   7.307   0.221   5.224  0.4487  0.1390  0.3385
17723SOL    HW257981   7.236   0.326   5.142  0.1347 -0.1038  0.2997
17724SOL     OW57982   3.767   6.001  10.067 -0.2483  0.1364 -0.3231
17724SOL    HW157983   3.863   5.995  10.069 -0.2143  0.3793 -0.9209
17724SOL    HW257984   3.742   6.018  10.158  0.0617 -2.6885  0.3836
17725SOL     OW57985   5.025  11.940   3.197 -0.1702  0.0386 -0.1432
17725SOL    HW157986   5.067  11.937   3.112  1.2529  0.0947  0.5271
17725SOL    HW257987   4.963  11.868   3.196  2.0267 -1.9714 -0.1419
17726SOL     OW57988  11.922   8.128  10.192 -0.3271  0.2194  0.1256
17726SOL    HW157989  11.860   8.177  10.246 -1.2925  1.3198 -1.8528
17726SOL    HW257990  11.867   8.079  10.131  0.7275 -0.0911 -0.6043
17727SOL     OW57991   2.766  10.451  10.100  0.3669  0.1595 -0.0653
17727SOL    HW157992   2.794  10.540  10.121 -0.2770  0.6281 -1.0935
17727SOL    HW257993   2.830  10.420  10.036 -0.1067  0.3614 -0.6492
17728SOL     OW57994   2.187   4.012   9.656  0.4944  0.2248  0.5196
17728SOL    HW157995   2.127   4.084   9.637  0.5573  0.8443  2.4569
17728SOL    HW257996   2.141   3.934   9.624  0.5730  1.0843 -1.9442
17729SOL     OW57997   2.535   5.280   1.407  0.2188 -0.3668 -0.0135
17729SOL    HW157998   2.471   5.256   1.474  0.4004 -0.7007  0.0400
17729SOL    HW257999   2.570   5.197   1.375  0.0377 -0.2172 -0.6237
17730SOL     OW58000   2.900   1.174   5.320  0.6415  0.0110 -0.3642
17730SOL    HW158001   2.862   1.174   5.408 -1.1989  0.7103 -1.1063
17730SOL    HW258002   2.878   1.089   5.284 -1.2616  0.7882 -1.1676
17731SOL     OW58003   4.272  11.269   4.101 -0.2401 -0.0139  0.0907
17731SOL    HW158004   4.259  11.265   4.006 -0.4184 -0.5765  0.1383
17731SOL    HW258005   4.343  11.207   4.118 -0.5190 -0.2600  0.3784
17732SOL     OW58006   1.150   0.379   0.559  0.0349  0.2401  0.4170
17732SOL    HW158007   1.186   0.356   0.474  0.8889 -2.0977  1.3237
17732SOL    HW258008   1.226   0.403   0.612 -0.3844  0.7185  0.8190
17733SOL     OW58009   9.495  10.152   9.357 -0.0652  0.0864 -0.3381
17733SOL    HW158010   9.452  10.213   9.297 -0.9242 -0.5166 -0.3539
17733SOL    HW258011   9.435  10.077   9.363  0.4098 -0.2422  0.5992
17734SOL     OW58012   6.898  10.897   8.610 -0.1330  0.3538 -0.0899
17734SOL    HW158013   6.923  10.989   8.621 -0.4857  0.6549 -1.5235
17734SOL    HW258014   6.952  10.867   8.537 -1.0115 -0.1724 -0.5349
17735SOL     OW58015   9.549   3.983   9.866 -0.4493 -0.3450 -0.3919
17735SOL    HW158016   9.629   3.947   9.904 -0.9416 -0.2176  0.8067
17735SOL    HW258017   9.567   4.077   9.857 -0.8653 -0.1033  1.0190
17736SOL     OW58018   6.529   8.406   2.503 -0.1751 -0.5015  0.2881
17736SOL    HW158019   6.580   8.461   2.444 -1.8174 -0.0790 -0.7954
17736SOL    HW258020   6.536   8.317   2.466 -1.3864 -0.2025 -0.7296
17737SOL     OW58021  11.516   7.997   6.199 -0.1678  0.5058  0.3123
17737SOL    HW158022  11.600   8.043   6.204 -0.4865  0.9611  2.9962
17737SOL    HW258023  11.535   7.917   6.150  1.9025  0.4887  1.0230
17738SOL     OW58024   6.820   5.607   1.979  0.2218  0.1650 -0.2169
17738SOL    HW158025   6.848   5.535   2.035 -0.8498 -0.4942 -0.4918
17738SOL    HW258026   6.774   5.667   2.038 -0.5863 -0.3520 -0.2928
17739SOL     OW58027   8.960  10.718  12.241 -0.0059 -0.0040  0.1640
17739SOL    HW158028   8.879  10.695  12.286  0.0632 -0.6666 -0.0408
17739SOL    HW258029   9.027  10.713  12.309  0.2978 -2.2491 -0.2419
17740SOL     OW58030   6.584   9.962   0.454  0.3485  0.3886 -0.4074
17740SOL    HW158031   6.645   9.889   0.439  1.0872  0.8045  0.4629
17740SOL    HW258032   6.600   9.988   0.545 -0.2326  1.3351 -0.5648
17741SOL     OW58033  11.896   1.742   9.435 -0.5722 -0.5900 -0.5368
17741SOL    HW158034  11.892   1.821   9.381 -1.9331  0.0375  0.4148
17741SOL    HW258035  11.890   1.670   9.373 -0.8489  0.0890 -1.3203
17742SOL     OW58036  12.257   4.137   8.470  0.1267  0.2793  0.3372
17742SOL    HW158037  12.207   4.119   8.391  1.4865  1.2127 -0.7669
17742SOL    HW258038  12.192   4.172   8.531 -0.8713 -0.1112 -0.4741
17743SOL     OW58039  10.112  10.625   4.783  1.1029  0.0998  0.1179
17743SOL    HW158040  10.206  10.623   4.802  0.8048  2.3853  2.3505
17743SOL    HW258041  10.070  10.611   4.868 -0.6167 -0.4567 -0.7708
17744SOL     OW58042   3.059   3.189  10.000 -0.0850 -0.1778  0.0002
17744SOL    HW158043   3.094   3.243   9.930  1.1226  0.5222  1.1041
17744SOL    HW258044   2.998   3.130   9.956 -0.5240  1.2582 -1.4045
17745SOL     OW58045  12.199   1.542   7.371 -0.0174 -0.6114  0.5812
17745SOL    HW158046  12.108   1.562   7.396  0.5068 -0.1984  2.3144
17745SOL    HW258047  12.196   1.532   7.276 -1.5988  0.9383  0.4176
17746SOL     OW58048   5.834  11.094   9.025  0.3165 -0.0004 -0.0233
17746SOL    HW158049   5.873  11.181   9.019  0.2047  0.0679  0.2317
17746SOL    HW258050   5.801  11.088   9.115 -0.0135 -0.1601 -0.1522
17747SOL     OW58051  10.973   0.449   3.590  0.0066  0.7708 -0.4264
17747SOL    HW158052  10.887   0.491   3.581 -0.7399 -0.9843 -2.2816
17747SOL    HW258053  11.009   0.486   3.670 -2.1807  2.0872  0.0474
17748SOL     OW58054   8.351  10.070   6.416  0.1808  0.7039  0.4261
17748SOL    HW158055   8.273  10.103   6.462 -0.3225  0.6600 -0.3710
17748SOL    HW258056   8.379   9.994   6.467 -1.4053 -0.4034 -0.2705
17749SOL     OW58057   6.702   1.476   8.777 -0.9854  0.3580  0.3513
17749SOL    HW158058   6.695   1.449   8.869 -0.4217 -1.1068 -0.0111
17749SOL    HW258059   6.723   1.569   8.781  1.8176 -0.2428  1.7995
17750SOL     OW58060  12.117   0.495   6.825  0.1989 -0.0774 -1.1150
17750SOL    HW158061  12.065   0.504   6.905  1.1412  0.7090 -0.5701
17750SOL    HW258062  12.059   0.450   6.763 -0.7638 -0.1175 -0.2044
17751SOL     OW58063   6.120   1.615   8.286  0.6114  0.4491 -0.0912
17751SOL    HW158064   6.183   1.663   8.233 -0.3342 -0.2600 -1.9201
17751SOL    HW258065   6.136   1.523   8.267 -0.0340  0.1886  0.5371
17752SOL     OW58066   9.239   2.298   4.892 -0.5161 -0.0033 -0.4109
17752SOL    HW158067   9.174   2.247   4.843 -0.5910  0.8965 -1.2673
17752SOL    HW258068   9.322   2.282   4.847 -0.5152  0.5030 -0.5971
17753SOL     OW58069   0.579  11.632   5.982  0.0351  0.3519 -0.2627
17753SOL    HW158070   0.496  11.634   5.935 -0.3402  3.0281  0.3181
17753SOL    HW258071   0.562  11.577   6.059 -1.9371  2.4747  0.9294
17754SOL     OW58072   7.639  10.716   6.820 -0.6129  0.2935  0.0437
17754SOL    HW158073   7.655  10.808   6.798 -0.3579  0.1971 -0.1757
17754SOL    HW258074   7.597  10.719   6.906 -0.1584  0.5891  0.2562
17755SOL     OW58075   5.225   2.089  11.216 -0.1160 -0.4508 -0.7885
17755SOL    HW158076   5.155   2.107  11.278  2.1177 -0.0300  1.7611
17755SOL    HW258077   5.219   2.159  11.151  1.1108  2.8400  2.3495
17756SOL     OW58078   7.767   9.643   5.658  0.2415 -0.3159  0.3163
17756SOL    HW158079   7.686   9.602   5.689  0.8524 -1.2438  0.7327
17756SOL    HW258080   7.778   9.720   5.714 -0.7133  0.2257 -0.2156
17757SOL     OW58081   3.784   6.904  11.587  0.3566 -0.1431  0.2981
17757SOL    HW158082   3.786   6.996  11.558  0.4195 -0.8029 -1.9394
17757SOL    HW258083   3.858   6.896  11.646  0.9920  1.0095 -0.2978
17758SOL     OW58084   7.368   0.016   6.187 -0.5246  0.4846 -0.2478
17758SOL    HW158085   7.431   0.004   6.116 -0.6058 -0.7350 -0.1265
17758SOL    HW258086   7.325  -0.068   6.196  0.0791  0.3306  1.8034
17759SOL     OW58087   6.822   0.770  11.624  0.1205  0.1983 -0.0555
17759SOL    HW158088   6.902   0.718  11.622 -0.1023 -0.1357 -0.3142
17759SOL    HW258089   6.765   0.725  11.685 -0.5237 -0.5345 -1.1719
17760SOL     OW58090   5.321   4.442   9.168  0.0616 -0.0878  0.1407
17760SOL    HW158091   5.367   4.526   9.173  1.5028 -0.9227  1.4016
17760SOL    HW258092   5.252   4.457   9.103  0.8807  1.7788 -0.3578
17761SOL     OW58093   7.726   0.085   5.789  0.4959  0.0666 -0.7080
17761SOL    HW158094   7.700   0.089   5.697  1.7130  0.9614 -1.0444
17761SOL    HW258095   7.776   0.166   5.804  1.6397 -0.7744  0.3071
17762SOL     OW58096   2.942   0.378   8.938  0.1721  0.3584  0.0630
17762SOL    HW158097   2.859   0.391   8.983 -0.0553 -0.2068 -0.1882
17762SOL    HW258098   2.974   0.294   8.969 -0.8922 -0.9705 -2.1745
17763SOL     OW58099   3.800   7.023  10.251 -0.6287 -0.0013  0.0658
17763SOL    HW158100   3.742   6.984  10.186  1.0204 -1.9000 -0.3808
17763SOL    HW258101   3.825   6.950  10.308  1.8718  0.5325 -0.2244
17764SOL     OW58102  11.718   5.740   7.114 -0.1080 -0.1185  0.1525
17764SOL    HW158103  11.681   5.698   7.037  0.1464  0.7942 -0.4970
17764SOL    HW258104  11.724   5.671   7.179  0.3692 -1.1017 -0.8910
17765SOL     OW58105   6.287   7.960   5.615  0.1667  0.0123 -0.1214
17765SOL    HW158106   6.244   7.890   5.566 -0.9253  0.7670 -0.2813
17765SOL    HW258107   6.227   7.978   5.687  1.8534 -1.2406  1.6934
17766SOL     OW58108   4.956   7.562   7.278  0.2044 -0.2821  0.3192
17766SOL    HW158109   4.958   7.507   7.200  0.3852 -1.3467  1.0572
17766SOL    HW258110   5.033   7.618   7.270 -0.6178  0.7156 -1.0143
17767SOL     OW58111  12.491   7.753   2.388  0.2503  1.1019 -0.5106
17767SOL    HW158112  12.444   7.795   2.316 -0.8406  0.1533 -0.3722
17767SOL    HW258113  12.574   7.801   2.393 -0.3061  2.2136 -1.3598
17768SOL     OW58114   6.719  12.263   8.907  0.1209  0.4939  0.4033
17768SOL    HW158115   6.661  12.290   8.978 -3.1565  1.2582 -2.3016
17768SOL    HW258116   6.715  12.335   8.844  0.7930 -1.1971 -1.7015
17769SOL     OW58117   8.338   7.552   2.476  0.0925 -0.4649 -0.4444
17769SOL    HW158118   8.279   7.625   2.493  1.0985  0.2825 -0.0371
17769SOL    HW258119   8.410   7.591   2.426 -0.1383 -1.5190 -1.6586
17770SOL     OW58120   6.833  10.354   2.399 -0.1147 -0.4514  0.5580
17770SOL    HW158121   6.788  10.434   2.426 -0.5874 -0.2098 -0.8462
17770SOL    HW258122   6.773  10.283   2.424  0.2282 -0.3647  1.6506
17771SOL     OW58123   8.560   3.605   9.774 -0.1344  0.4932 -0.7618
17771SOL    HW158124   8.533   3.546   9.843 -0.8351  0.7808 -0.7881
17771SOL    HW258125   8.655   3.612   9.784 -0.2974  1.0361  0.5765
17772SOL     OW58126   1.028   3.721   2.375 -0.1559  0.1383 -0.5768
17772SOL    HW158127   0.997   3.754   2.291 -1.1984  0.7624  0.0394
17772SOL    HW258128   0.954   3.673   2.412  0.4583 -0.5813 -0.2361
17773SOL     OW58129   1.792   2.641   5.921 -0.3056 -0.4427 -0.2605
17773SOL    HW158130   1.883   2.619   5.941  0.0115  1.1513  0.1826
17773SOL    HW258131   1.765   2.699   5.992 -0.3277  2.4322 -2.4440
17774SOL     OW58132   3.558   2.638  10.019 -0.1937  0.5560 -0.4519
17774SOL    HW158133   3.610   2.568   9.981 -0.5883 -0.1441  0.2555
17774SOL    HW258134   3.474   2.633   9.973 -0.4302  0.1615  0.0126
17775SOL     OW58135  10.772   1.732   2.621 -0.0881 -0.1542 -0.2042
17775SOL    HW158136  10.700   1.737   2.684 -0.2088 -1.1110 -0.2554
17775SOL    HW258137  10.793   1.639   2.616  0.1630 -0.0493 -1.3168
17776SOL     OW58138  10.264  11.909  12.029 -0.3429 -0.0197  0.5603
17776SOL    HW158139  10.357  11.885  12.024 -0.2874  0.1574  0.7682
17776SOL    HW258140  10.218  11.825  12.021 -0.1468 -0.2213  1.4467
17777SOL     OW58141   7.566  11.756   8.366 -0.3658 -0.0415  0.3014
17777SOL    HW158142   7.516  11.835   8.384  1.6855  2.3140 -3.1660
17777SOL    HW258143   7.508  11.704   8.310 -0.5290  0.6678 -0.2042
17778SOL     OW58144  12.381  11.791  12.509  0.2277  0.2842 -0.0424
17778SOL    HW158145  12.428  11.833  12.437  0.9107  0.9836  0.7746
17778SOL    HW258146  12.427  11.820  12.588 -0.2588 -0.7701  0.6592
17779SOL     OW58147  12.233   4.983   0.376 -0.4017 -0.3843 -0.1316
17779SOL    HW158148  12.178   4.951   0.448 -0.6317 -0.8294 -0.4926
17779SOL    HW258149  12.256   5.072   0.400 -1.3737 -0.1492 -0.0102
17780SOL     OW58150   7.440   8.915   5.579  0.5331 -0.1683  0.1135
17780SOL    HW158151   7.382   8.986   5.606  2.3229  1.6479 -0.5664
17780SOL    HW258152   7.409   8.890   5.492 -0.0986 -0.2633  0.3543
17781SOL     OW58153   2.988   6.743   3.774  0.1022 -0.8533 -0.1452
17781SOL    HW158154   3.070   6.756   3.726 -0.2851  2.4150 -0.1345
17781SOL    HW258155   3.009   6.766   3.864 -0.3381 -2.1753  0.3151
17782SOL     OW58156   7.353  11.600  12.146  0.4033 -0.7451  0.1986
17782SOL    HW158157   7.284  11.559  12.094  0.3350  0.5727 -0.8101
17782SOL    HW258158   7.320  11.598  12.236 -1.4238  0.6865 -0.3742
17783SOL     OW58159   4.362   7.900  10.904  0.0503  0.2442 -0.0840
17783SOL    HW158160   4.439   7.948  10.872 -0.6359  1.8037  0.5227
17783SOL    HW258161   4.347   7.934  10.992 -0.6067 -0.9389  0.2833
17784SOL     OW58162   2.120   4.273   0.746  0.3137 -0.3224  1.1595
17784SOL    HW158163   2.035   4.252   0.707  0.0958  0.4699  1.1966
17784SOL    HW258164   2.103   4.350   0.800  1.6204  1.7525 -1.1698
17785SOL     OW58165   3.888   4.465   5.844 -0.3127  0.1875 -0.2040
17785SOL    HW158166   3.845   4.539   5.888 -0.4930 -0.3832  0.6055
17785SOL    HW258167   3.871   4.480   5.751  0.4018  1.6372 -0.1351
17786SOL     OW58168   8.811   1.115   7.759 -0.1809  0.0011 -0.5538
17786SOL    HW158169   8.758   1.150   7.830 -0.3819  1.5272 -1.3984
17786SOL    HW258170   8.893   1.164   7.765 -1.0797  1.9863 -2.7881
17787SOL     OW58171  10.206   3.383  11.125 -0.4475 -0.0585 -0.2683
17787SOL    HW158172  10.112   3.397  11.124 -0.5123 -0.2614 -2.5869
17787SOL    HW258173  10.240   3.452  11.182 -1.9134  0.4931 -0.0240
17788SOL     OW58174   9.110   2.566   6.571 -0.1186 -0.3479 -0.0962
17788SOL    HW158175   9.190   2.528   6.534  0.1105 -0.4810  0.5152
17788SOL    HW258176   9.039   2.520   6.526  0.1482 -0.3752 -0.4978
17789SOL     OW58177   7.277   3.633   4.981  0.3831 -0.1388  0.0166
17789SOL    HW158178   7.370   3.644   4.963  0.9860 -2.9617  0.8116
17789SOL    HW258179   7.264   3.672   5.067  1.3948 -1.6039  0.8861
17790SOL     OW58180   7.112   0.748   0.429 -0.2460  0.6985 -0.3397
17790SOL    HW158181   7.166   0.777   0.503  1.2203 -0.3458 -0.9489
17790SOL    HW258182   7.148   0.662   0.406 -2.2179 -0.0735 -0.7645
17791SOL     OW58183   3.775   3.797  11.008  0.5270  0.0041  0.3033
17791SOL    HW158184   3.694   3.759  11.043 -1.5098  2.1359 -1.7411
17791SOL    HW258185   3.815   3.725  10.959  1.0863 -1.6911  3.0074
17792SOL     OW58186   0.678  10.890  12.459  0.0380 -0.3029  0.4917
17792SOL    HW158187   0.667  10.809  12.409  1.1031 -0.6494  0.8011
17792SOL    HW258188   0.727  10.948  12.401  0.2717 -0.2935  0.6975
17793SOL     OW58189   5.427   2.740   3.439  0.2001  0.7586  0.0074
17793SOL    HW158190   5.471   2.757   3.522 -0.1617  1.0357  0.1446
17793SOL    HW258191   5.498   2.724   3.377  0.4647 -0.4442  0.5782
17794SOL     OW58192   8.789   7.018  11.194 -0.0606  0.2993  0.1915
17794SOL    HW158193   8.731   6.985  11.262 -1.6900  0.5000 -1.0338
17794SOL    HW258194   8.756   6.979  11.113  0.5261  1.6782 -0.7548
17795SOL     OW58195   9.431   6.373   2.209  0.4839  0.1033 -0.2267
17795SOL    HW158196   9.497   6.399   2.274 -0.3458  0.3776  0.5353
17795SOL    HW258197   9.348   6.389   2.253 -0.0850 -0.9170 -0.9061
17796SOL     OW58198   3.838   9.822  10.879  0.1306  0.9563 -0.5927
17796SOL    HW158199   3.807   9.908  10.909  0.1561  0.7128  0.1353
17796SOL    HW258200   3.905   9.842  10.814 -0.0898  1.4872 -0.6610
17797SOL     OW58201   1.664   2.920   2.698  0.4391  0.8711 -0.7734
17797SOL    HW158202   1.592   2.865   2.666 -0.2026  1.6698 -0.7350
17797SOL    HW258203   1.734   2.858   2.716 -0.3311  0.0360 -0.5414
17798SOL     OW58204   1.270   4.163  10.748  0.0406 -0.1549 -0.3547
17798SOL    HW158205   1.215   4.108  10.693  1.5609 -1.5761 -0.5142
17798SOL    HW258206   1.299   4.234  10.691 -1.3606  0.4576 -0.3396
17799SOL     OW58207   1.010  11.541  11.339  0.2131  0.1467 -0.5618
17799SOL    HW158208   0.934  11.483  11.344  1.1722 -1.1603 -0.4221
17799SOL    HW258209   1.004  11.595  11.418 -0.7088  0.2570 -0.6973
17800SOL     OW58210   4.744   6.247  12.174 -0.7525  0.2181  0.4140
17800SOL    HW158211   4.650   6.255  12.156 -0.9221 -2.3457 -0.1030
17800SOL    HW258212   4.748   6.198  12.257  0.1455  0.5836  0.5945
17801SOL     OW58213   2.226   2.890   1.734 -0.4403 -0.6060 -0.0591
17801SOL    HW158214   2.138   2.852   1.736 -0.6009 -0.2449 -0.2680
17801SOL    HW258215   2.284   2.814   1.729 -0.7838 -0.8223 -1.1264
17802SOL     OW58216   5.610   3.598   7.354  0.3161 -0.9238  0.4623
17802SOL    HW158217   5.533   3.544   7.375  0.9314 -1.9998  0.0502
17802SOL    HW258218   5.629   3.577   7.262  1.4312 -1.1147  0.7248
17803SOL     OW58219   3.451   4.691   2.773  0.0099 -0.4165  0.2537
17803SOL    HW158220   3.430   4.664   2.862  0.6104  0.2812  0.6185
17803SOL    HW258221   3.425   4.783   2.769  0.6350 -0.2519 -0.0718
17804SOL     OW58222   8.543   5.934   8.428 -0.5437  0.2358 -0.4191
17804SOL    HW158223   8.530   5.999   8.497 -1.8863 -0.6657  0.2197
17804SOL    HW258224   8.456   5.919   8.392 -0.0803 -0.3855 -1.3141
17805SOL     OW58225   6.583   7.855   7.085  0.7685  0.0914 -0.4765
17805SOL    HW158226   6.526   7.920   7.043  1.4729  2.3867  1.8453
17805SOL    HW258227   6.529   7.815   7.153  0.7815 -0.6929 -0.9180
17806SOL     OW58228   7.654   3.937   7.802 -0.1658 -0.2277 -0.2642
17806SOL    HW158229   7.637   3.935   7.896 -2.2617  1.3037 -0.5622
17806SOL    HW258230   7.672   4.029   7.782  0.7920 -0.6072 -1.3148
17807SOL     OW58231  12.309   0.564   5.318 -0.0605 -0.1606 -0.0126
17807SOL    HW158232  12.243   0.611   5.266 -0.8015 -0.1426  0.9089
17807SOL    HW258233  12.385   0.559   5.261 -0.8341 -0.1150 -1.0852
17808SOL     OW58234   9.697  10.899   5.299 -0.5385  0.1767 -0.8324
17808SOL    HW158235   9.603  10.898   5.280 -0.9713  1.8256  0.8503
17808SOL    HW258236   9.703  10.937   5.387  1.6910 -0.2292 -0.7560
17809SOL     OW58237   5.275   5.781   4.890  0.4633 -0.6774 -0.0706
17809SOL    HW158238   5.326   5.816   4.963  0.6311  1.5298 -1.1773
17809SOL    HW258239   5.341   5.749   4.828  0.7749  3.1686 -2.0008
17810SOL     OW58240   8.823  10.001   8.397  0.5438  0.2936  0.2633
17810SOL    HW158241   8.799  10.048   8.317  0.1683 -0.0835  0.1499
17810SOL    HW258242   8.916  10.018   8.408  0.7352 -0.1527 -0.5889
17811SOL     OW58243   3.542   3.474  11.788  0.4203 -0.0937  0.4407
17811SOL    HW158244   3.613   3.425  11.746 -0.2519 -0.7180  0.0040
17811SOL    HW258245   3.553   3.456  11.881  1.4699  0.6905  0.4910
17812SOL     OW58246   2.365  10.842   2.317 -0.9356 -0.0108  0.2464
17812SOL    HW158247   2.443  10.886   2.282 -1.8897  1.5180 -0.0140
17812SOL    HW258248   2.388  10.821   2.407  0.7726 -2.0877 -0.5661
17813SOL     OW58249   1.400   4.055  12.092  0.2784 -0.4962 -0.4630
17813SOL    HW158250   1.478   4.018  12.133 -0.7831 -2.0164  0.2741
17813SOL    HW258251   1.330   4.040  12.155 -0.5399  1.3122 -0.8823
17814SOL     OW58252   3.398  10.195   8.365  0.1317  0.2105  0.1781
17814SOL    HW158253   3.469  10.230   8.312 -0.5998  1.5155  0.0174
17814SOL    HW258254   3.337  10.268   8.375 -0.6059 -0.5217  1.3270
17815SOL     OW58255   5.028   8.008   6.801 -0.2737 -0.1237  0.1463
17815SOL    HW158256   5.030   7.917   6.830 -1.0013 -0.3164 -0.3914
17815SOL    HW258257   5.071   8.056   6.872 -0.2658 -0.8282  0.6305
17816SOL     OW58258  10.655   9.897  11.126  0.2913 -0.3491  0.3630
17816SOL    HW158259  10.679   9.810  11.159  0.0603 -0.4748  0.2018
17816SOL    HW258260  10.714   9.912  11.052  1.5955  0.4115  1.4999
17817SOL     OW58261   7.887   8.036  10.074 -0.2447  0.2841  0.4355
17817SOL    HW158262   7.793   8.023  10.063 -0.3587  0.9155  0.5967
17817SOL    HW258263   7.905   8.121  10.034  0.5506 -0.5347 -1.0177
17818SOL     OW58264  11.786   7.846   2.473  0.4204  0.5882  0.2495
17818SOL    HW158265  11.802   7.926   2.524  2.9115  0.1960  0.2531
17818SOL    HW258266  11.835   7.860   2.391  1.1607 -1.0268  0.3769
17819SOL     OW58267   8.817   7.332  11.348 -0.4143  0.1079  0.0807
17819SOL    HW158268   8.849   7.387  11.420  0.4413  1.5273 -1.2906
17819SOL    HW258269   8.789   7.395  11.281 -2.3616 -1.1557 -0.3545
17820SOL     OW58270  11.188   7.742   3.360  0.1540  0.7681 -0.0887
17820SOL    HW158271  11.162   7.833   3.378 -0.0566  0.7465 -0.2891
17820SOL    HW258272  11.283   7.747   3.350  0.7791  0.3481  3.8965
17821SOL     OW58273   6.824   0.462   5.552  0.2723 -0.5116 -0.0436
17821SOL    HW158274   6.869   0.466   5.468 -0.7029  0.4254 -0.5443
17821SOL    HW258275   6.799   0.370   5.562  0.0043 -0.5498 -0.9884
17822SOL     OW58276   9.987   0.758  10.937 -0.0893 -0.5454  0.3911
17822SOL    HW158277   9.951   0.822  10.999 -0.9831 -1.3144  0.6851
17822SOL    HW258278   9.987   0.803  10.853 -0.7884 -0.1704  0.5814
17823SOL     OW58279   9.670   2.766   3.285 -0.0348 -0.8958 -0.0428
17823SOL    HW158280   9.615   2.745   3.209  0.8633  0.8539 -1.2182
17823SOL    HW258281   9.623   2.837   3.329  1.7859  1.5552 -1.7972
17824SOL     OW58282   6.372   8.387   7.413 -0.1669 -0.0305 -0.0417
17824SOL    HW158283   6.440   8.374   7.479  1.2097 -0.9861 -1.5577
17824SOL    HW258284   6.356   8.481   7.413  0.7419  0.1447  0.7540
17825SOL     OW58285   2.073  11.183   6.664 -0.0615  0.3149 -0.4325
17825SOL    HW158286   1.989  11.219   6.638 -0.2005 -0.1664 -0.6754
17825SOL    HW258287   2.130  11.198   6.588  0.3936  1.6264  0.1369
17826SOL     OW58288   2.724   8.011   9.841 -0.2198  0.4824 -0.2217
17826SOL    HW158289   2.775   8.087   9.870  1.5695 -0.7548 -0.0081
17826SOL    HW258290   2.739   7.945   9.909 -0.3923 -0.6225 -1.2429
17827SOL     OW58291   4.695  11.987   8.828 -0.7517 -0.3168 -0.1781
17827SOL    HW158292   4.742  12.012   8.908  0.1504 -1.7135 -0.2352
17827SOL    HW258293   4.646  12.065   8.804 -0.6613  0.3008  1.4721
17828SOL     OW58294   3.062   0.058   1.397  0.2357  0.1907 -0.0504
17828SOL    HW158295   3.154   0.082   1.404  0.8037 -1.7405 -0.2040
17828SOL    HW258296   3.063  -0.029   1.357 -1.7150  0.5338 -0.9695
17829SOL     OW58297   5.361   9.213   4.046 -0.1936  0.2247  0.6824
17829SOL    HW158298   5.377   9.228   3.953  1.2629 -1.1772  0.6526
17829SOL    HW258299   5.324   9.124   4.050  2.8612 -1.1427  1.5958
17830SOL     OW58300  11.086   9.949   3.816 -0.0038  0.1582  0.5046
17830SOL    HW158301  10.998   9.981   3.793 -0.0921  0.9390  1.8295
17830SOL    HW258302  11.093   9.865   3.771 -1.1834  0.3802 -0.1408
17831SOL     OW58303   9.610   3.237   8.226 -0.1717  0.4916 -0.5263
17831SOL    HW158304   9.615   3.166   8.290  0.7977  1.7542  0.8654
17831SOL    HW258305   9.544   3.296   8.261  0.7460  1.4597 -0.3629
17832SOL     OW58306   0.001   2.352   2.518 -0.2048  0.3429  0.3077
17832SOL    HW158307  -0.020   2.283   2.581 -1.7411  0.2752 -0.2453
17832SOL    HW258308   0.021   2.305   2.437 -0.8085  0.5206  0.0507
17833SOL     OW58309   9.684   2.170   4.591  0.5601  0.1747 -0.2089
17833SOL    HW158310   9.621   2.236   4.562 -0.0999 -0.1379  0.4648
17833SOL    HW258311   9.740   2.217   4.654 -0.9603 -0.2651  1.5687
17834SOL     OW58312  11.621  10.774   9.689  0.1916  0.0883  0.0359
17834SOL    HW158313  11.654  10.686   9.672  0.8163  0.6133 -1.6184
17834SOL    HW258314  11.527  10.763   9.696  0.4384 -1.3734  4.3937
17835SOL     OW58315   5.383   9.025   2.228 -0.1668 -0.5218 -0.4682
17835SOL    HW158316   5.370   8.985   2.314 -1.5470  0.1956 -0.3259
17835SOL    HW258317   5.451   9.090   2.242  0.3888 -1.1465 -0.1768
17836SOL     OW58318   2.645   1.654  11.465  0.6554  1.0071  0.0538
17836SOL    HW158319   2.683   1.644  11.378 -0.7501  0.4129 -0.5278
17836SOL    HW258320   2.588   1.731  11.458  0.3443  0.8111  0.3651
17837SOL     OW58321   6.933   8.328   8.959  0.2487  0.0729 -0.0693
17837SOL    HW158322   7.015   8.289   8.930 -0.0296 -0.2956 -0.3864
17837SOL    HW258323   6.873   8.253   8.966 -0.2094  0.4102 -0.3861
17838SOL     OW58324   7.703   3.963  10.703  0.6032 -0.4207  0.3669
17838SOL    HW158325   7.789   3.997  10.724  0.3454  2.2549 -2.2431
17838SOL    HW258326   7.645   4.039  10.706 -1.2930 -1.7759  0.1827
17839SOL     OW58327   4.782  11.005   2.919 -0.4994 -0.2464 -0.1818
17839SOL    HW158328   4.866  11.039   2.948  0.1030 -2.0867  0.3433
17839SOL    HW258329   4.719  11.034   2.985 -0.1198  0.3032 -0.0570
17840SOL     OW58330  11.762   4.950   6.291 -0.5513  0.0466 -0.0514
17840SOL    HW158331  11.703   4.891   6.338 -1.7991  0.0487 -1.5518
17840SOL    HW258332  11.810   4.892   6.231 -1.1137  0.4107 -0.8690
17841SOL     OW58333   8.208   2.092   4.002  0.6244  0.1239  0.1874
17841SOL    HW158334   8.212   2.141   3.920 -0.2668  0.6443  0.4445
17841SOL    HW258335   8.281   2.029   3.996  1.2066  0.8463 -0.5441
17842SOL     OW58336   2.743  10.880  12.636 -0.7479  0.3611 -0.1557
17842SOL    HW158337   2.799  10.898  12.561  0.8829  1.9376  1.3229
17842SOL    HW258338   2.753  10.786  12.652 -1.7659 -0.1584 -2.3374
17843SOL     OW58339   4.025   4.553  10.835 -0.1699 -0.8619 -0.4103
17843SOL    HW158340   4.049   4.464  10.862  0.5916 -0.5744 -0.0956
17843SOL    HW258341   4.102   4.584  10.787 -0.1012 -0.0745  0.1958
17844SOL     OW58342   3.345   0.922   5.703 -0.5089  0.1461 -0.3240
17844SOL    HW158343   3.299   0.839   5.687 -2.3013  1.0941 -0.3555
17844SOL    HW258344   3.343   0.967   5.619 -0.9455  0.8603  0.0546
17845SOL     OW58345   9.216   2.655   5.516  0.5193 -0.0030  0.0574
17845SOL    HW158346   9.269   2.576   5.508  0.6397 -0.1953  2.2341
17845SOL    HW258347   9.236   2.705   5.437  2.3961 -0.9943 -0.1587
17846SOL     OW58348   5.498   6.408   5.589  0.1097 -0.4929 -0.1935
17846SOL    HW158349   5.577   6.355   5.580 -0.2666 -0.8770 -1.4451
17846SOL    HW258350   5.496   6.433   5.681  1.2476 -1.1616  0.0290
17847SOL     OW58351   4.219   4.418   7.986 -0.6831  0.3880 -0.0559
17847SOL    HW158352   4.262   4.457   7.910 -0.6735  0.8585  0.1885
17847SOL    HW258353   4.128   4.449   7.981 -0.3774  1.4772  0.8249
17848SOL     OW58354   0.906   9.590   7.868  0.1998  0.2424  0.2952
17848SOL    HW158355   0.914   9.574   7.962 -0.0116 -0.5851  0.1753
17848SOL    HW258356   0.935   9.681   7.857  0.0184  0.4195  1.1867
17849SOL     OW58357   8.241  11.778   8.875 -0.1664 -0.1542 -0.1602
17849SOL    HW158358   8.279  11.806   8.792  0.8637  2.0671  0.9705
17849SOL    HW258359   8.312  11.731   8.919  0.5595  1.8242  0.9074
17850SOL     OW58360   0.225   8.037   0.240 -0.0853 -0.0734 -0.0516
17850SOL    HW158361   0.137   8.063   0.213 -0.4394 -2.2731 -1.2208
17850SOL    HW258362   0.211   7.989   0.322  0.0578 -0.2096 -0.1072
17851SOL     OW58363  11.901   6.653   8.069  0.0186  0.0573  0.4319
17851SOL    HW158364  11.907   6.634   7.975 -0.0893  0.4793  0.3394
17851SOL    HW258365  11.914   6.568   8.111 -0.2559 -0.1893  0.0265
17852SOL     OW58366   6.697   9.178  10.200  0.1087  0.3493 -0.0702
17852SOL    HW158367   6.709   9.182  10.295 -3.3545  1.0979  0.4845
17852SOL    HW258368   6.719   9.088  10.177  0.2230 -0.0897  1.5995
17853SOL     OW58369  10.011   1.320   7.536  0.0249 -0.5091 -0.3822
17853SOL    HW158370   9.944   1.252   7.534  0.0309 -0.4956 -1.1869
17853SOL    HW258371   9.995   1.367   7.618  1.4946 -2.9304  1.4123
17854SOL     OW58372   9.523   4.085   2.631  0.6142 -0.1742  0.1211
17854SOL    HW158373   9.597   4.033   2.661  2.1345 -0.0052 -2.9265
17854SOL    HW258374   9.516   4.065   2.537 -1.6575  1.6954 -0.2103
17855SOL     OW58375   3.006   3.328   2.258  0.1096  0.5622 -0.0499
17855SOL    HW158376   2.957   3.321   2.177  1.3095  0.7742 -0.8191
17855SOL    HW258377   2.939   3.339   2.326 -0.9116  0.2594 -0.9849
17856SOL     OW58378  10.693   9.538   3.224  0.0516 -0.3803  0.4077
17856SOL    HW158379  10.747   9.594   3.168 -0.0688 -0.2370  0.4328
17856SOL    HW258380  10.703   9.450   3.188  0.0406 -0.3025  0.2122
17857SOL     OW58381   0.305  11.682   5.934 -0.0438 -0.5770  0.3834
17857SOL    HW158382   0.309  11.728   5.850 -1.4618 -0.0113  0.5955
17857SOL    HW258383   0.328  11.749   5.999  0.2705 -0.8072  0.5131
17858SOL     OW58384  10.003   0.846   4.079 -0.5401  0.1093 -0.0793
17858SOL    HW158385  10.079   0.850   4.137 -1.4348  0.7253  1.0765
17858SOL    HW258386  10.040   0.822   3.994  0.8864 -0.0888  0.5658
17859SOL     OW58387   9.910   3.027   7.316 -0.0781  0.0735 -0.1693
17859SOL    HW158388   9.946   3.098   7.263 -0.8224 -1.1222 -2.4534
17859SOL    HW258389   9.815   3.033   7.301 -0.2708 -0.5108  0.7873
17860SOL     OW58390   2.134   5.674  10.090  0.3417  0.3341  0.2228
17860SOL    HW158391   2.068   5.667  10.158 -0.5394  0.2433 -0.6160
17860SOL    HW258392   2.177   5.758  10.106 -1.2042  1.2621 -0.2714
17861SOL     OW58393   0.882   9.550   9.362 -0.4475  0.7168 -0.0813
17861SOL    HW158394   0.880   9.642   9.337  1.3805  1.3017  1.6705
17861SOL    HW258395   0.972   9.522   9.344 -0.7467 -0.5030  0.2038
17862SOL     OW58396   3.311  10.553   2.276  0.6072 -0.1459  0.6415
17862SOL    HW158397   3.241  10.521   2.334 -1.4435 -0.1279 -1.6661
17862SOL    HW258398   3.298  10.505   2.194  1.1159  2.3140 -0.9805
17863SOL     OW58399  12.580  12.450   9.155 -0.2419 -0.0804  0.1843
17863SOL    HW158400  12.672  12.426   9.150 -0.4608 -1.2292  1.1369
17863SOL    HW258401  12.576  12.518   9.222  0.0073  0.6366 -0.5049
17864SOL     OW58402   6.947  10.285  10.347  0.1849 -0.3466 -0.0004
17864SOL    HW158403   7.012  10.225  10.382 -1.7645 -1.9809  1.0558
17864SOL    HW258404   6.892  10.307  10.423 -0.1328  1.4846 -0.7129
17865SOL     OW58405   1.115  10.672   9.128 -0.0703  0.2158 -0.0497
17865SOL    HW158406   1.104  10.716   9.212  0.1351  0.3381 -0.0849
17865SOL    HW258407   1.152  10.739   9.071  0.6997 -0.1347  0.0278
17866SOL     OW58408   7.069   9.124   4.758  0.4699  0.2975  0.1343
17866SOL    HW158409   6.995   9.143   4.700  0.4171 -0.8162 -0.1802
17866SOL    HW258410   7.136   9.086   4.700  0.6526 -0.2550  0.7031
17867SOL     OW58411   1.248   8.811   9.821  0.1532  0.0661  0.5653
17867SOL    HW158412   1.295   8.873   9.877  0.2551 -0.3917  0.9810
17867SOL    HW258413   1.236   8.859   9.739 -2.4859  1.8339  1.8401
17868SOL     OW58414   5.692   6.900   0.507 -0.7597 -0.3259  0.5683
17868SOL    HW158415   5.734   6.986   0.514 -0.7865 -0.4011  1.8342
17868SOL    HW258416   5.615   6.915   0.453  0.0570  0.1306 -0.5011
17869SOL     OW58417  10.223   3.986  12.376  0.2609 -0.2342  0.2588
17869SOL    HW158418  10.220   4.080  12.362 -1.3184 -0.2227  0.4969
17869SOL    HW258419  10.302   3.957  12.329  0.2895  1.0730 -0.5424
17870SOL     OW58420   5.655   6.401   3.490 -0.0830 -0.0443 -0.2407
17870SOL    HW158421   5.725   6.461   3.519 -0.1181 -0.0953 -0.0472
17870SOL    HW258422   5.608   6.380   3.570  0.7204 -1.3575 -0.0895
17871SOL     OW58423   0.024   1.673   2.473  0.2121 -0.0540  0.4330
17871SOL    HW158424   0.093   1.694   2.410 -0.0522 -0.2649  0.0713
17871SOL    HW258425  -0.041   1.625   2.423 -0.3384  0.3917  0.7088
17872SOL     OW58426   2.930   6.054   8.202  0.0156  0.2819 -0.1680
17872SOL    HW158427   2.936   6.150   8.194  1.4117  0.1988 -0.3308
17872SOL    HW258428   2.934   6.038   8.296  0.5010  0.3597 -0.1700
17873SOL     OW58429   3.549   9.877   5.036 -0.3881  0.6229  0.1409
17873SOL    HW158430   3.532   9.955   4.983 -0.4775  0.0754 -0.6494
17873SOL    HW258431   3.644   9.869   5.037 -0.2810  1.6893  1.6386
17874SOL     OW58432   0.111   1.416   7.084 -0.2625  0.1499  0.0563
17874SOL    HW158433   0.105   1.437   7.177  0.4358 -0.2663  0.1955
17874SOL    HW258434   0.160   1.334   7.080  0.8987  0.8513 -0.7425
17875SOL     OW58435   0.176   4.440   9.442  0.0213  0.3653 -0.4918
17875SOL    HW158436   0.216   4.514   9.396  0.3186  1.6256  1.6454
17875SOL    HW258437   0.244   4.410   9.502 -1.1610  0.4898  0.9705
17876SOL     OW58438   8.398   3.902   7.617 -0.2804  0.6916  0.0045
17876SOL    HW158439   8.492   3.916   7.612 -0.1597  0.0385  0.3303
17876SOL    HW258440   8.381   3.825   7.564 -0.1959 -0.9582  2.2249
17877SOL     OW58441   8.923  12.110   9.112 -0.0390 -0.5633 -0.0165
17877SOL    HW158442   8.886  12.157   9.187  1.9409 -0.0074  0.6783
17877SOL    HW258443   8.873  12.142   9.037  1.3792  2.9639  0.3774
17878SOL     OW58444  12.327   2.269  11.584 -0.3032  0.1136  0.3356
17878SOL    HW158445  12.404   2.212  11.587 -0.5504 -0.1820  1.9036
17878SOL    HW258446  12.345   2.337  11.649 -1.2440  0.2030  0.5201
17879SOL     OW58447   3.195   4.829   0.243  0.1239  0.3071 -0.8616
17879SOL    HW158448   3.268   4.810   0.302 -0.2832 -1.7822 -0.9360
17879SOL    HW258449   3.220   4.786   0.160 -1.4934 -1.1434 -0.6416
17880SOL     OW58450   3.441   1.847  10.491 -0.1933 -0.0684 -0.7006
17880SOL    HW158451   3.352   1.818  10.510  0.2234  0.1408  1.7874
17880SOL    HW258452   3.429   1.932  10.448 -1.2190  1.1591  1.8204
17881SOL     OW58453  10.356   1.023   6.588  0.1499 -0.2169  0.4246
17881SOL    HW158454  10.397   1.096   6.634  1.7039 -0.5240 -0.4346
17881SOL    HW258455  10.353   0.953   6.653 -0.1222  0.1742  0.8440
17882SOL     OW58456   4.314   9.084  11.278  0.1900 -0.3843  0.6914
17882SOL    HW158457   4.356   9.086  11.364  0.2220 -1.4330  0.7177
17882SOL    HW258458   4.385   9.065  11.217 -0.1823 -2.1504  0.7339
17883SOL     OW58459   0.560   2.350   6.587 -0.2012 -0.1045  0.5799
17883SOL    HW158460   0.490   2.291   6.561 -0.3845  1.1131 -2.0080
17883SOL    HW258461   0.517   2.433   6.605  0.4738  0.5572 -0.6899
17884SOL     OW58462   5.362   8.751   9.284  0.1239 -0.2188 -0.2847
17884SOL    HW158463   5.432   8.792   9.234 -0.7043  0.7201 -0.7054
17884SOL    HW258464   5.337   8.674   9.232  0.0017  0.1401 -0.7561
17885SOL     OW58465   3.067   7.461   4.031  0.0871 -0.0569  0.6165
17885SOL    HW158466   3.086   7.437   3.941 -0.2474 -1.3303  0.8605
17885SOL    HW258467   2.973   7.446   4.041  0.2876 -0.9378  1.4369
17886SOL     OW58468  10.297  10.321   5.140 -0.0587  0.3512  0.4138
17886SOL    HW158469  10.274  10.276   5.059 -0.3214 -0.2985  0.8441
17886SOL    HW258470  10.378  10.367   5.120  0.7122 -1.0508  0.2237
17887SOL     OW58471  11.348   9.747  10.610  0.5091  0.3922 -0.0195
17887SOL    HW158472  11.310   9.661  10.629 -0.1427  0.8670  0.8715
17887SOL    HW258473  11.322   9.766  10.519  0.4836 -0.2501 -0.1492
17888SOL     OW58474  10.057   9.259  10.184 -0.1093 -0.3294 -0.4177
17888SOL    HW158475  10.011   9.253  10.269  1.5735  0.4624  0.5994
17888SOL    HW258476  10.068   9.169  10.156  1.4334 -0.7942  1.4448
17889SOL     OW58477   1.067   1.428   4.265  0.4302  0.1629  0.3543
17889SOL    HW158478   1.144   1.476   4.234 -0.2928  0.3201 -1.3350
17889SOL    HW258479   1.073   1.343   4.222 -1.4555  0.9531 -1.6957
17890SOL     OW58480   6.596   4.332   8.264  0.0925  0.4643  0.1775
17890SOL    HW158481   6.600   4.285   8.181  2.2787  1.3452 -0.2995
17890SOL    HW258482   6.540   4.407   8.247  0.0032  0.2863 -0.3185
17891SOL     OW58483   0.389   1.735   4.334  0.3641  0.1602  0.6542
17891SOL    HW158484   0.306   1.770   4.302  1.0545  0.0441 -1.4180
17891SOL    HW258485   0.375   1.641   4.340  0.3034  0.1591  0.4810
17892SOL     OW58486  11.319   2.437   4.254 -0.1332  0.1708 -0.1138
17892SOL    HW158487  11.350   2.428   4.344 -1.9588  1.4756  0.7310
17892SOL    HW258488  11.337   2.528   4.232 -1.0669  0.2787 -0.4796
17893SOL     OW58489   4.866  10.925  10.232  0.5328  0.5842 -0.0690
17893SOL    HW158490   4.791  10.916  10.174 -0.4471 -0.5539  1.3068
17893SOL    HW258491   4.849  11.006  10.281  0.4223  0.5542 -0.0585
17894SOL     OW58492   4.073   3.200  11.354 -0.4389  0.0278  0.1022
17894SOL    HW158493   4.143   3.164  11.299  0.4816  0.1183  1.1620
17894SOL    HW258494   3.996   3.147  11.333  0.5673 -1.7971  0.7277
17895SOL     OW58495   7.913   3.969   5.918 -0.1902 -0.7302 -0.3282
17895SOL    HW158496   7.950   3.905   5.979 -1.0909 -0.6106  0.3727
17895SOL    HW258497   7.969   4.046   5.928  0.3040 -1.0719 -0.4430
17896SOL     OW58498  10.903  10.867   8.627 -0.3296  0.0377 -0.2409
17896SOL    HW158499  10.890  10.774   8.609  0.6825 -0.2323  0.3291
17896SOL    HW258500  10.879  10.911   8.546 -0.2516 -0.7736 -0.7174
17897SOL     OW58501   0.519  11.834   9.637 -0.3584 -0.1560  0.1555
17897SOL    HW158502   0.568  11.782   9.700 -1.5052 -0.0367  1.1670
17897SOL    HW258503   0.490  11.911   9.686  0.4538  0.9733 -1.0545
17898SOL     OW58504  10.649   0.246   1.812 -0.2525  0.0242  0.0521
17898SOL    HW158505  10.691   0.175   1.764  0.2920  0.3026  0.1080
17898SOL    HW258506  10.586   0.202   1.869  1.4844 -0.6232  1.5815
17899SOL     OW58507   2.062   0.396   9.091  0.2767 -0.1687  0.0097
17899SOL    HW158508   2.153   0.418   9.068 -0.4189 -0.0634 -3.0617
17899SOL    HW258509   2.065   0.302   9.109  1.2475  0.1382  1.6553
17900SOL     OW58510  10.921   4.070   7.434 -0.2574 -0.6136 -0.4563
17900SOL    HW158511  10.920   4.074   7.530 -1.2126 -0.8624 -0.4456
17900SOL    HW258512  10.902   3.979   7.414 -0.8127 -0.4056 -0.8908
17901SOL     OW58513   6.641   3.072   5.640  0.1908  0.4567 -0.1167
17901SOL    HW158514   6.579   3.033   5.702 -0.6654  0.9848 -0.6225
17901SOL    HW258515   6.608   3.160   5.625 -0.1363  0.0712 -1.9716
17902SOL     OW58516   7.647  10.773  12.374  0.1885 -0.3343  0.0012
17902SOL    HW158517   7.568  10.748  12.326 -0.1782  0.1371  0.3456
17902SOL    HW258518   7.719  10.741  12.320 -0.1943  0.8208 -1.2439
17903SOL     OW58519  10.555   5.153   8.254 -0.0402  0.0422  0.6163
17903SOL    HW158520  10.627   5.143   8.193 -1.0854  1.7265 -1.0198
17903SOL    HW258521  10.478   5.123   8.205 -1.3458  3.9537 -0.1256
17904SOL     OW58522   5.588   9.069   3.155 -0.8899  0.3077  0.2355
17904SOL    HW158523   5.517   9.009   3.175 -0.8513  0.2558  0.2169
17904SOL    HW258524   5.616   9.046   3.067 -1.7543  1.2279 -0.3039
17905SOL     OW58525  12.337   6.664   1.791  0.0339  0.1580  0.1577
17905SOL    HW158526  12.370   6.622   1.711  0.5683 -1.0377  0.9856
17905SOL    HW258527  12.271   6.726   1.759  2.5339  2.1708 -1.5051
17906SOL     OW58528   4.558   5.745   3.807 -0.1630  0.0046 -0.6225
17906SOL    HW158529   4.567   5.824   3.754 -0.6027  0.1896 -0.4279
17906SOL    HW258530   4.551   5.674   3.743  0.4867  0.0942 -0.7941
17907SOL     OW58531   8.886   7.554   1.373  0.1145  0.0095 -0.1153
17907SOL    HW158532   8.849   7.471   1.342 -1.1352  0.2079  0.7649
17907SOL    HW258533   8.848   7.620   1.315  0.5324  0.0437 -0.3533
17908SOL     OW58534   5.868   5.221  12.449 -0.1152  0.5024 -0.7657
17908SOL    HW158535   5.849   5.225  12.542 -0.0848 -0.6913 -0.6904
17908SOL    HW258536   5.898   5.131  12.434  0.9881  1.0005 -1.7214
17909SOL     OW58537   6.336  12.004   1.393  0.3147 -0.0102  0.2456
17909SOL    HW158538   6.252  11.966   1.418 -0.4078  1.7005  0.6045
17909SOL    HW258539   6.355  12.066   1.464  1.2211  0.5773 -0.4940
17910SOL     OW58540  10.127   8.507  12.025 -0.4591 -0.2698 -0.2126
17910SOL    HW158541  10.175   8.470  11.951 -0.3558  0.8488 -0.7319
17910SOL    HW258542  10.195   8.539  12.085 -0.5431 -0.0874 -0.2124
17911SOL     OW58543   0.361   9.539   8.212  0.2805 -0.4405 -0.4801
17911SOL    HW158544   0.353   9.524   8.306  1.2057  0.1006 -0.3087
17911SOL    HW258545   0.314   9.465   8.172  0.4679 -1.0487  0.3961
17912SOL     OW58546  12.454   1.031   9.837 -0.0491  0.2539 -0.0661
17912SOL    HW158547  12.401   1.112   9.841 -0.1767  0.1698 -0.0433
17912SOL    HW258548  12.533   1.051   9.887  0.4346  0.7535 -1.0064
17913SOL     OW58549   9.752   0.235   4.716  0.1577  0.0085 -0.1453
17913SOL    HW158550   9.726   0.293   4.644  0.6536 -1.6421 -1.7212
17913SOL    HW258551   9.847   0.249   4.724  0.5474 -1.5843 -1.5274
17914SOL     OW58552  12.145   9.543   6.957 -0.0841  0.0062  0.1215
17914SOL    HW158553  12.203   9.619   6.958  1.3648 -1.0180 -1.1153
17914SOL    HW258554  12.204   9.468   6.945 -1.6808 -1.0804 -1.4647
17915SOL     OW58555   0.620   6.967   6.031 -0.3161  0.0803 -0.2674
17915SOL    HW158556   0.554   6.959   6.099 -0.9670  1.0490 -0.7720
17915SOL    HW258557   0.593   7.042   5.979  1.7078  1.1246  0.0856
17916SOL     OW58558  10.982   5.079   3.067 -0.3122  0.6107  0.2919
17916SOL    HW158559  10.965   5.173   3.056 -0.8176  0.5952  0.9361
17916SOL    HW258560  10.937   5.055   3.148  1.4513  0.2260  1.2126
17917SOL     OW58561   3.031  10.404  12.643  0.7401 -0.0915 -0.0863
17917SOL    HW158562   3.025  10.500  12.639 -0.2901 -0.1606 -0.5833
17917SOL    HW258563   3.051  10.385  12.734 -2.0676  0.4981  0.7649
17918SOL     OW58564  12.229   9.073  12.280 -0.0255  0.5880 -0.1785
17918SOL    HW158565  12.293   9.138  12.254  0.0482  0.4431 -0.3608
17918SOL    HW258566  12.185   9.047  12.199  1.8166 -1.6006 -0.5788
17919SOL     OW58567   8.121   1.575   1.594 -0.8275 -0.1866  0.4475
17919SOL    HW158568   8.045   1.615   1.637 -0.0627  1.4008  0.3815
17919SOL    HW258569   8.137   1.630   1.517  0.7126 -0.1805  0.7443
17920SOL     OW58570   3.506  11.408   6.082  0.2141 -0.5040 -0.2020
17920SOL    HW158571   3.418  11.446   6.086 -0.3418 -1.7223  3.6463
17920SOL    HW258572   3.548  11.436   6.164  3.7968  0.6466 -2.2002
17921SOL     OW58573   4.885   7.651   5.829  0.8882 -0.2996  0.1583
17921SOL    HW158574   4.943   7.716   5.867  0.9979 -0.9853  1.2003
17921SOL    HW258575   4.798   7.673   5.864  0.4761  0.7249 -1.3947
17922SOL     OW58576   5.023   9.107  10.171 -0.3536 -0.4683  0.1477
17922SOL    HW158577   5.095   9.125  10.232  0.5910 -0.6118 -0.9001
17922SOL    HW258578   5.003   9.191  10.132 -0.6170 -0.4688  0.2793
17923SOL     OW58579   8.332   4.245   4.680 -0.4551 -0.0794 -0.0991
17923SOL    HW158580   8.407   4.270   4.734  0.1637 -0.0393 -0.9622
17923SOL    HW258581   8.365   4.248   4.590 -1.8830  1.3637 -0.6160
17924SOL     OW58582   0.633   0.752   3.954  0.3867  0.0899  0.1324
17924SOL    HW158583   0.579   0.673   3.947 -0.7395  0.7005  1.4269
17924SOL    HW258584   0.653   0.775   3.863  0.3392 -1.3938 -0.2868
17925SOL     OW58585  10.810   0.225   0.687 -0.1067  0.2215 -0.2369
17925SOL    HW158586  10.734   0.215   0.629 -0.5259  0.5589  0.2514
17925SOL    HW258587  10.824   0.138   0.723 -0.6257  0.2851  0.1219
17926SOL     OW58588   7.809   8.705   0.616  0.0667  0.3659 -0.5897
17926SOL    HW158589   7.748   8.657   0.560 -0.7131  0.6748 -0.0277
17926SOL    HW258590   7.833   8.782   0.563 -1.2495  1.0512 -0.2575
17927SOL     OW58591   6.111  11.513   2.733  0.1235 -0.8010 -0.1106
17927SOL    HW158592   6.130  11.454   2.806  1.6566 -1.4409 -0.9910
17927SOL    HW258593   6.187  11.571   2.729 -0.4049 -0.1346 -0.5928
17928SOL     OW58594   1.581  10.042  12.187  0.0257  0.7554  0.0292
17928SOL    HW158595   1.542   9.965  12.228  0.3950  0.4338 -0.2219
17928SOL    HW258596   1.577  10.025  12.093  0.1369  1.0272 -0.0275
17929SOL     OW58597   0.690   2.152   6.319  0.1262  0.2342 -0.1702
17929SOL    HW158598   0.641   2.222   6.274 -0.6715  0.6582  1.2950
17929SOL    HW258599   0.772   2.193   6.346 -0.3912  0.6565  0.7906
17930SOL     OW58600   8.968   1.038   8.391  0.0314  0.6955  0.0717
17930SOL    HW158601   9.017   1.036   8.309  1.4024  0.9150  0.8620
17930SOL    HW258602   8.883   1.074   8.367 -1.0650 -2.7539 -1.9786
17931SOL     OW58603   6.229   0.659  10.103 -0.0761  0.5360 -0.0864
17931SOL    HW158604   6.180   0.698  10.175  0.7404 -0.4775  1.0471
17931SOL    HW258605   6.263   0.577  10.138  1.7252  0.7926 -1.0789
17932SOL     OW58606   6.924   1.840   8.073  0.7284  0.2985  0.0501
17932SOL    HW158607   6.858   1.786   8.031 -1.7773  1.1988  2.4890
17932SOL    HW258608   6.959   1.786   8.144  1.3404  0.4420 -0.1314
17933SOL     OW58609   9.045   7.051   5.718  0.0321  0.0425  0.1703
17933SOL    HW158610   9.055   6.978   5.657  0.5960  0.4216 -0.1965
17933SOL    HW258611   9.040   7.009   5.805 -1.1590 -0.5252 -0.1389
17934SOL     OW58612   5.628  10.815   8.249 -0.0097 -0.5653  0.7802
17934SOL    HW158613   5.576  10.854   8.179 -0.9217 -0.7917  1.3148
17934SOL    HW258614   5.569  10.815   8.325  1.7300  2.1078  2.3271
17935SOL     OW58615   9.166  10.768   5.036  0.1196  0.1342 -0.2718
17935SOL    HW158616   9.166  10.731   4.947  0.7845  0.1812 -0.2994
17935SOL    HW258617   9.078  10.751   5.069  0.1332 -0.6738 -0.6220
17936SOL     OW58618   5.296   6.051   9.387  0.0182 -0.0271 -0.2154
17936SOL    HW158619   5.207   6.026   9.363 -0.4137  0.9454  0.3221
17936SOL    HW258620   5.331   6.091   9.308  0.7023 -2.1501 -1.0740
17937SOL     OW58621   1.995  11.092   4.936 -0.1079 -0.0822 -0.2552
17937SOL    HW158622   1.942  11.015   4.914 -0.4363  0.1572 -0.3085
17937SOL    HW258623   1.933  11.152   4.977 -0.2053  0.7725 -1.5791
17938SOL     OW58624   2.434   9.031   4.669 -0.6677  0.9812  0.4209
17938SOL    HW158625   2.415   9.066   4.756 -1.0376 -0.3375  0.8930
17938SOL    HW258626   2.350   8.997   4.638 -0.0586 -0.8275  0.6381
17939SOL     OW58627   7.760   2.647   3.750 -0.6712  0.1845 -0.1831
17939SOL    HW158628   7.802   2.562   3.735 -3.5786 -1.5116  0.6382
17939SOL    HW258629   7.822   2.694   3.806  0.8677 -1.4867 -0.3749
17940SOL     OW58630   7.841   8.171   8.158  0.5485 -0.7361  0.5487
17940SOL    HW158631   7.921   8.214   8.129  0.6681 -1.2979  0.0392
17940SOL    HW258632   7.840   8.184   8.253  0.7794  0.0505  0.4538
17941SOL     OW58633   9.125   0.669   8.165  0.3063  0.2577  0.2303
17941SOL    HW158634   9.065   0.734   8.128  1.2698  3.2311  3.3353
17941SOL    HW258635   9.075   0.588   8.168 -2.1886  1.6616 -0.8086
17942SOL     OW58636   6.690  11.205   6.975  0.3425 -0.2792  0.2959
17942SOL    HW158637   6.655  11.268   7.038  1.0962 -0.2162  0.6559
17942SOL    HW258638   6.768  11.247   6.939 -1.0146  0.4709 -2.0284
17943SOL     OW58639   3.108   8.389   0.065  0.0256  0.8215 -0.9069
17943SOL    HW158640   3.179   8.325   0.064  1.0706  1.9345 -0.3916
17943SOL    HW258641   3.087   8.399   0.158 -0.0088  1.3410 -0.9684
17944SOL     OW58642   3.871  12.221   3.137 -0.2213 -0.2334  0.3179
17944SOL    HW158643   3.933  12.149   3.130  1.3466  1.0886  0.1992
17944SOL    HW258644   3.810  12.207   3.064  0.0571 -1.4180  0.2922
17945SOL     OW58645   6.359   8.693  11.650 -0.4644 -0.1411  0.3835
17945SOL    HW158646   6.391   8.643  11.575 -1.9020  0.1935 -0.4872
17945SOL    HW258647   6.303   8.760  11.612 -1.3201 -0.0348  1.7707
17946SOL     OW58648   0.032   7.059  10.038  0.1659 -0.1445  0.0994
17946SOL    HW158649   0.082   6.987   9.999  1.0227  1.4947 -2.0238
17946SOL    HW258650  -0.016   7.018  10.110  1.5767 -2.5701 -0.2137
17947SOL     OW58651   0.865   4.560  11.508  0.5862  0.3998  0.6359
17947SOL    HW158652   0.892   4.574  11.599 -0.8414  0.5851  1.0499
17947SOL    HW258653   0.816   4.639  11.485 -0.3473 -0.2922  0.2024
17948SOL     OW58654   3.128  10.564  11.351 -0.2224 -0.1215 -0.4447
17948SOL    HW158655   3.085  10.624  11.412 -0.4185 -0.0376 -0.6611
17948SOL    HW258656   3.173  10.500  11.407  0.4733  0.5642 -0.2108
17949SOL     OW58657  10.867   2.933   3.387  0.8366 -0.0473  0.0125
17949SOL    HW158658  10.910   3.015   3.362  2.2393 -0.5663  0.6270
17949SOL    HW258659  10.929   2.890   3.446 -0.0794 -1.3336  0.0816
17950SOL     OW58660   0.066   9.278   5.425  0.3883 -0.3044 -0.1167
17950SOL    HW158661   0.016   9.305   5.502  0.3370 -0.2982 -0.1521
17950SOL    HW258662   0.118   9.355   5.402 -1.2759  0.5188 -1.4545
17951SOL     OW58663   2.473   0.860   1.114 -0.5179 -0.3589  0.1148
17951SOL    HW158664   2.482   0.943   1.068 -0.0366 -1.0200 -1.0420
17951SOL    HW258665   2.412   0.809   1.060  0.6020 -1.4174 -0.2105
17952SOL     OW58666   3.812   7.193   9.705  0.3295  0.3473  0.4657
17952SOL    HW158667   3.787   7.205   9.614  0.5560 -0.4770  0.2775
17952SOL    HW258668   3.806   7.280   9.744  1.7110  1.0303 -0.7104
17953SOL     OW58669   1.535   0.239  12.515 -0.4104  0.4724 -0.6887
17953SOL    HW158670   1.600   0.256  12.583 -0.2736  0.2862 -0.7734
17953SOL    HW258671   1.566   0.289  12.440 -0.6042  0.7424 -0.5912
17954SOL     OW58672   2.159   2.371   3.612 -0.9122 -0.1115  0.6180
17954SOL    HW158673   2.066   2.350   3.608 -1.2572  1.4264 -1.0252
17954SOL    HW258674   2.184   2.386   3.520  1.1040 -1.0650  0.9673
17955SOL     OW58675   1.118   5.177   6.009  0.0585  0.0366  0.1988
17955SOL    HW158676   1.084   5.095   5.973  1.0995  0.2929 -1.4621
17955SOL    HW258677   1.073   5.245   5.960 -0.0499  0.4527  0.8678
17956SOL     OW58678   6.569   9.036   0.977  0.1208  0.1009  0.5437
17956SOL    HW158679   6.571   9.015   1.070 -0.1374 -2.4402  0.0508
17956SOL    HW258680   6.479   9.017   0.950  0.4026  0.0187 -0.3791
17957SOL     OW58681   1.170   2.016   8.247 -0.0284  0.2640  0.3311
17957SOL    HW158682   1.257   2.047   8.273 -0.4432  2.0078 -0.2095
17957SOL    HW258683   1.116   2.095   8.247 -1.0718 -0.3983 -1.5710
17958SOL     OW58684  11.081   4.742   5.445 -0.2347 -0.0430 -0.0957
17958SOL    HW158685  11.118   4.821   5.486 -1.6404  0.3530  0.4612
17958SOL    HW258686  11.033   4.774   5.369 -1.3219 -0.2746  0.4784
17959SOL     OW58687   8.784   5.518   3.773 -0.4816 -0.0357  0.6817
17959SOL    HW158688   8.735   5.585   3.726  0.5737  1.5008  1.6718
17959SOL    HW258689   8.762   5.436   3.728 -2.7196  0.7830  0.1597
17960SOL     OW58690   2.757   5.711  12.456 -0.1671  0.5478 -0.0117
17960SOL    HW158691   2.783   5.666  12.375 -0.2185  2.0740 -0.9259
17960SOL    HW258692   2.832   5.767  12.477  1.3878 -2.3336  3.0517
17961SOL     OW58693   5.568  10.507   5.863  0.0659 -0.1381 -0.1045
17961SOL    HW158694   5.562  10.412   5.854 -0.3160 -0.1916  0.6176
17961SOL    HW258695   5.572  10.521   5.958  2.3623  0.4275 -0.2130
17962SOL     OW58696  11.416   8.169   2.093 -0.2793  0.1034  0.3961
17962SOL    HW158697  11.357   8.145   2.022  0.3337 -1.5179  0.3858
17962SOL    HW258698  11.451   8.254   2.067 -1.7943  0.6281 -0.0934
17963SOL     OW58699   7.303  12.508  10.720 -0.2055 -0.2297  0.1224
17963SOL    HW158700   7.255  12.450  10.662  0.4041 -0.8518  0.2284
17963SOL    HW258701   7.377  12.539  10.668  0.4246 -0.9042  0.6012
17964SOL     OW58702   7.608   7.391   8.251  0.4534 -0.3485  0.1219
17964SOL    HW158703   7.521   7.397   8.289  1.0338  1.6536  1.2274
17964SOL    HW258704   7.660   7.343   8.316  1.0460  1.6843  1.2265
17965SOL     OW58705   8.922  10.350   0.587 -0.0006  0.2127 -0.1320
17965SOL    HW158706   8.927  10.443   0.607  0.0209  0.0455  0.6983
17965SOL    HW258707   8.933  10.307   0.672  0.8720 -0.5721 -0.6231
17966SOL     OW58708   7.702   5.215   7.545  0.1547 -0.1097 -0.0521
17966SOL    HW158709   7.710   5.245   7.454 -2.0870  0.5308 -0.1109
17966SOL    HW258710   7.684   5.121   7.537  2.4780 -0.6068 -0.0950
17967SOL     OW58711   9.212   5.805   6.029  0.1113  0.5276 -0.3580
17967SOL    HW158712   9.286   5.862   6.006  1.0981 -1.6773 -3.1300
17967SOL    HW258713   9.138   5.842   5.982 -0.2510  1.7940  1.1244
17968SOL     OW58714  11.957   6.274   4.158  0.1657 -0.1843 -0.2566
17968SOL    HW158715  11.863   6.289   4.165 -0.5495 -3.5709 -1.0024
17968SOL    HW258716  11.975   6.204   4.220  2.4121  0.9126  0.4388
17969SOL     OW58717  10.041   7.026   2.850 -0.3280  0.3373  0.4442
17969SOL    HW158718   9.973   7.050   2.787 -0.8623  0.9508  1.2321
17969SOL    HW258719   9.994   7.016   2.933  0.0923 -2.0373  0.4735
17970SOL     OW58720   0.765   3.937  10.866 -0.4136 -0.1798 -0.4528
17970SOL    HW158721   0.732   3.917  10.779 -0.1203  0.7404 -0.7841
17970SOL    HW258722   0.693   3.985  10.908  0.1051  0.9493 -0.8254
17971SOL     OW58723   1.405   9.436  10.306 -0.0397 -0.1717  0.1577
17971SOL    HW158724   1.423   9.527  10.283 -0.9933  0.2086  0.8689
17971SOL    HW258725   1.464   9.417  10.379  0.8111 -0.4285 -0.5736
17972SOL     OW58726   0.699   4.811   6.617  0.0920  0.6156 -0.5883
17972SOL    HW158727   0.768   4.851   6.671  1.4322 -0.4524 -1.4322
17972SOL    HW258728   0.682   4.727   6.659  1.0248 -0.1514 -1.6748
17973SOL     OW58729   4.699   3.624   2.020  0.3402 -0.3142  0.3280
17973SOL    HW158730   4.616   3.662   1.994  0.7851 -0.3434 -1.1958
17973SOL    HW258731   4.690   3.531   2.001  0.4773 -0.4310  0.8187
17974SOL     OW58732  10.032   4.820  10.127 -0.4893 -0.4305  0.1077
17974SOL    HW158733   9.982   4.806  10.046  3.9172 -2.7766 -2.6290
17974SOL    HW258734  10.085   4.898  10.109 -0.9292  0.2417  1.6343
17975SOL     OW58735   1.600   6.634   8.004  0.0439  0.0325 -0.0521
17975SOL    HW158736   1.649   6.565   7.958  0.2233  0.2823 -0.2372
17975SOL    HW258737   1.658   6.659   8.076  0.6471  1.0340 -0.8531
17976SOL     OW58738   4.190  11.620   6.658 -0.1693 -0.0843  0.0973
17976SOL    HW158739   4.134  11.599   6.732 -0.4455 -0.1844 -0.1402
17976SOL    HW258740   4.161  11.561   6.588 -1.1321  1.2270 -0.6572
17977SOL     OW58741  11.534   1.826   6.528  0.4878  0.6466 -0.4990
17977SOL    HW158742  11.441   1.848   6.523  0.3705 -0.1179 -2.2770
17977SOL    HW258743  11.579   1.910   6.530 -0.2289  1.0224  0.5291
17978SOL     OW58744  11.886   1.112   0.734  0.1675  0.0159  0.1212
17978SOL    HW158745  11.882   1.145   0.824 -1.0914 -0.9951  0.4712
17978SOL    HW258746  11.891   1.017   0.744 -2.3832 -0.3138 -0.8323
17979SOL     OW58747   1.988   7.227   2.894 -0.2572  0.7432  0.0442
17979SOL    HW158748   2.040   7.289   2.842 -1.5500 -0.0050 -2.3131
17979SOL    HW258749   1.899   7.262   2.889 -0.6887 -0.3124  0.2713
17980SOL     OW58750   2.284   1.203   9.902 -0.3780 -0.0997  0.3895
17980SOL    HW158751   2.339   1.151   9.843  0.4230  0.6452  0.4564
17980SOL    HW258752   2.346   1.255   9.953 -1.1581  0.9904  0.2579
17981SOL     OW58753   7.771   4.659  12.403  0.1382  0.2643  0.2439
17981SOL    HW158754   7.830   4.596  12.362  1.3320  0.8550  0.9919
17981SOL    HW258755   7.813   4.744  12.389  0.1974  0.5637  1.9518
17982SOL     OW58756   3.343   4.856   4.712  0.5274  0.5089 -0.2555
17982SOL    HW158757   3.320   4.949   4.717  1.2635  0.6776  0.2242
17982SOL    HW258758   3.413   4.846   4.776  0.5116 -0.3643 -0.3679
17983SOL     OW58759   1.039   6.749   0.090 -0.2594 -0.3599 -0.5249
17983SOL    HW158760   1.009   6.812   0.155 -1.1503 -1.3510  0.0491
17983SOL    HW258761   1.066   6.672   0.141  0.5274 -0.5753 -1.2282
17984SOL     OW58762  11.129   0.585   7.098  0.2853  0.4335 -0.2696
17984SOL    HW158763  11.120   0.490   7.089  0.9511  0.2257  0.9573
17984SOL    HW258764  11.047   0.621   7.065  0.3374 -0.5104 -1.5040
17985SOL     OW58765  11.951   2.758  10.746  0.2023 -0.5775  0.0226
17985SOL    HW158766  11.980   2.830  10.689 -0.4635  0.5042  0.9947
17985SOL    HW258767  11.858   2.776  10.762 -0.1378 -2.0152 -0.1961
17986SOL     OW58768   4.054  11.066   7.527  0.2949  0.0217  0.2607
17986SOL    HW158769   4.124  11.028   7.474 -0.2436  0.2266 -0.6117
17986SOL    HW258770   3.976  11.017   7.501 -0.0366  0.3478  0.6359
17987SOL     OW58771   3.321  10.013   9.578  0.0238  0.1420 -0.0048
17987SOL    HW158772   3.341  10.105   9.598 -0.0811  0.9482 -3.1565
17987SOL    HW258773   3.321   9.970   9.664  2.5832  2.5645  1.3949
17988SOL     OW58774  10.194   3.116   1.387  0.2123 -0.0731 -0.0722
17988SOL    HW158775  10.262   3.138   1.323 -0.9727 -0.6534 -1.5933
17988SOL    HW258776  10.112   3.134   1.341 -0.6946  0.3367  1.6180
17989SOL     OW58777   5.924   1.192   3.121  0.0570 -0.2849 -0.4283
17989SOL    HW158778   5.964   1.279   3.114  0.2764 -0.4599 -1.4592
17989SOL    HW258779   5.877   1.195   3.204  0.9005  0.4693  0.0552
17990SOL     OW58780   0.266   3.712   8.022 -0.0760 -0.1294  0.0397
17990SOL    HW158781   0.338   3.765   8.054 -0.7201  1.1280 -0.5104
17990SOL    HW258782   0.200   3.716   8.091 -0.1558 -0.1581 -0.0337
17991SOL     OW58783  10.627   1.605   1.554 -0.6493 -0.0450 -0.0443
17991SOL    HW158784  10.601   1.697   1.553  3.1202  1.1709  0.5346
17991SOL    HW258785  10.613   1.575   1.464 -1.5076  1.2036 -0.3479
17992SOL     OW58786   5.748   7.628   6.544  0.1075 -0.0268  0.7990
17992SOL    HW158787   5.675   7.572   6.568  0.9430 -0.8489  1.5252
17992SOL    HW258788   5.767   7.678   6.624  0.7259 -0.2793  0.8188
17993SOL     OW58789   6.286  11.911   8.066  0.2147  0.9691  0.1916
17993SOL    HW158790   6.195  11.938   8.080 -0.2774  0.0631 -1.0356
17993SOL    HW258791   6.281  11.816   8.056  1.3744  0.8526  0.5839
17994SOL     OW58792   2.194   6.393   8.452  0.2273  0.3306  0.2014
17994SOL    HW158793   2.238   6.309   8.437  0.7856  0.5996  0.2841
17994SOL    HW258794   2.105   6.370   8.479  1.1958 -0.3274  3.1735
17995SOL     OW58795   2.832  11.046  11.093  0.1856  0.7544  0.0125
17995SOL    HW158796   2.785  11.021  11.013 -0.2593 -2.6245  1.1708
17995SOL    HW258797   2.924  11.049  11.067 -0.0289  0.4870 -0.8143
17996SOL     OW58798   8.901   4.116   5.486 -0.0903  0.3392 -1.0263
17996SOL    HW158799   8.975   4.057   5.475  1.5893  2.3287 -0.8603
17996SOL    HW258800   8.856   4.083   5.564  1.2459 -0.2880 -0.4829
17997SOL     OW58801   1.757  11.226   0.348 -0.2810  0.0963  0.2671
17997SOL    HW158802   1.729  11.183   0.268 -2.1971 -0.1483  1.0123
17997SOL    HW258803   1.814  11.163   0.391  1.5678  0.6079 -1.3052
17998SOL     OW58804   4.453   2.043   7.260 -0.5083 -0.3635  0.1606
17998SOL    HW158805   4.362   2.032   7.232 -0.9175  4.7638 -1.5175
17998SOL    HW258806   4.449   2.111   7.328  1.8547 -2.9503  3.1937
17999SOL     OW58807   1.820   2.699   3.325 -0.2165  0.6420 -0.4796
17999SOL    HW158808   1.889   2.661   3.271  0.2583  0.9569 -0.0918
17999SOL    HW258809   1.756   2.732   3.262  1.1967  2.6843 -0.9133
18000SOL     OW58810   8.797   9.076   3.790 -0.0899  0.4387  0.2305
18000SOL    HW158811   8.836   9.009   3.845  1.3124  0.0247 -1.1886
18000SOL    HW258812   8.871   9.130   3.762 -0.9855  1.6196  0.0527
18001SOL     OW58813   1.854   7.370   8.995  0.5113 -0.2236 -0.0744
18001SOL    HW158814   1.934   7.320   9.014 -0.9684 -2.1422  1.5637
18001SOL    HW258815   1.809   7.318   8.929 -0.8770 -0.9487  1.3765
18002SOL     OW58816   1.769   3.566   7.577 -0.2800 -0.3760 -0.7775
18002SOL    HW158817   1.769   3.593   7.669  0.5098 -0.8474 -0.6302
18002SOL    HW258818   1.838   3.618   7.536 -0.0421 -0.7861 -0.9091
18003SOL     OW58819  10.727   6.068   1.438 -0.7250 -0.4700 -0.0167
18003SOL    HW158820  10.770   6.077   1.353 -0.6656 -2.6431 -0.2950
18003SOL    HW258821  10.635   6.054   1.417 -0.6000 -1.7854  0.1680
18004SOL     OW58822  12.280   9.000  10.024  0.4142 -0.4625 -0.3850
18004SOL    HW158823  12.305   8.918   9.982 -0.1826 -0.5253 -0.6438
18004SOL    HW258824  12.212   9.036   9.966 -1.3705 -1.1700  1.1595
18005SOL     OW58825   1.397   9.267  11.444 -0.3152 -0.1919  0.0802
18005SOL    HW158826   1.437   9.251  11.529  1.3424  0.1762 -0.5864
18005SOL    HW258827   1.307   9.233  11.452  0.1735 -1.2107  1.5834
18006SOL     OW58828   8.669   3.832  10.817 -0.2230 -0.0050  0.7455
18006SOL    HW158829   8.696   3.751  10.775  0.8414  0.4988  0.4316
18006SOL    HW258830   8.668   3.812  10.911  1.7118  0.0661  0.8103
18007SOL     OW58831   5.447   6.949   5.245 -0.1052  0.1325 -0.2667
18007SOL    HW158832   5.446   6.868   5.193 -1.7540  1.4762 -2.4888
18007SOL    HW258833   5.530   6.945   5.292  0.3439 -2.3521 -1.0896
18008SOL     OW58834   6.285   5.581   5.648  0.1993 -0.0186  0.0316
18008SOL    HW158835   6.322   5.583   5.736 -0.4512 -0.2114  0.3174
18008SOL    HW258836   6.283   5.673   5.620 -0.0735  0.1004  0.4296
18009SOL     OW58837   1.490   6.689   8.721 -0.0544  0.0266  0.0049
18009SOL    HW158838   1.479   6.595   8.706  1.0554  0.0718 -1.2700
18009SOL    HW258839   1.451   6.731   8.644 -0.4479  0.6149  0.5132
18010SOL     OW58840  11.218   9.305   3.302 -0.3287 -0.3560  0.1951
18010SOL    HW158841  11.140   9.342   3.261  0.4142 -0.8762 -1.7966
18010SOL    HW258842  11.194   9.215   3.322 -0.5313 -0.2530  0.4186
18011SOL     OW58843   1.478   3.142   3.800 -0.0272  0.3329  0.3565
18011SOL    HW158844   1.420   3.096   3.739 -0.8621  0.1266  1.2871
18011SOL    HW258845   1.548   3.176   3.745  0.1821 -1.3616 -0.4737
18012SOL     OW58846   1.897   3.280   5.381  0.2074  0.2353  0.0988
18012SOL    HW158847   1.874   3.336   5.456  3.1017  1.9916 -0.1583
18012SOL    HW258848   1.977   3.319   5.346  0.1380 -1.7933 -2.6450
18013SOL     OW58849  11.431   6.878  11.615 -0.5753  0.2609 -0.1158
18013SOL    HW158850  11.390   6.810  11.670  0.3504 -0.5050 -0.3451
18013SOL    HW258851  11.524   6.859  11.620 -0.5133 -2.2832 -4.8776
18014SOL     OW58852   4.596   0.084  10.756 -0.7279  0.2347 -0.2835
18014SOL    HW158853   4.662   0.029  10.798  0.3732  1.3656 -0.4586
18014SOL    HW258854   4.579   0.042  10.672  0.0951  0.1511 -0.4168
18015SOL     OW58855   5.842   3.932   6.987 -0.2630 -0.4056 -0.0650
18015SOL    HW158856   5.774   3.998   6.977 -1.1864 -1.3190 -0.0642
18015SOL    HW258857   5.921   3.981   7.008 -0.6934  0.7567 -1.0741
18016SOL     OW58858   9.021   2.302   0.788 -0.1464  0.0044  0.3627
18016SOL    HW158859   9.091   2.312   0.723  0.3754  0.3656  0.9688
18016SOL    HW258860   8.991   2.392   0.803 -0.4601 -0.1097  0.4057
18017SOL     OW58861   0.428   6.056   6.342  0.4804  0.2274 -0.2613
18017SOL    HW158862   0.477   5.982   6.305 -0.5043 -0.0906 -0.9775
18017SOL    HW258863   0.382   6.020   6.417  2.2189  0.7981  1.1308
18018SOL     OW58864  10.383   9.681  11.542 -0.5662  0.4434  0.1168
18018SOL    HW158865  10.382   9.761  11.595  1.0532  0.3890  0.2900
18018SOL    HW258866  10.362   9.711  11.454  1.3044  1.3371 -0.0882
18019SOL     OW58867   7.397   2.798  12.621 -0.0577  0.4152  0.3876
18019SOL    HW158868   7.303   2.815  12.613 -0.1416  0.0306  0.5649
18019SOL    HW258869   7.438   2.869  12.571 -0.4842 -0.2313 -0.9086
18020SOL     OW58870   2.860   6.615   8.864  0.5940 -0.5496  0.1158
18020SOL    HW158871   2.899   6.688   8.817  0.8293 -0.4834  0.4101
18020SOL    HW258872   2.865   6.641   8.956 -1.5035  0.1601  0.1063
18021SOL     OW58873   9.375  10.217  12.318  0.0867  0.2598  0.5749
18021SOL    HW158874   9.396  10.151  12.384 -2.3779 -0.5832  0.6377
18021SOL    HW258875   9.301  10.264  12.355 -0.2265  0.9301 -0.8502
18022SOL     OW58876   1.653   4.222   9.906  0.0594  0.0161 -0.1757
18022SOL    HW158877   1.675   4.265   9.824  2.1644  0.2677  0.4693
18022SOL    HW258878   1.658   4.291   9.972 -2.0412 -0.0839  0.1652
18023SOL     OW58879  10.577   4.521   3.530 -0.1658 -0.3609 -0.2526
18023SOL    HW158880  10.642   4.454   3.549 -0.6302 -0.6285  0.4258
18023SOL    HW258881  10.501   4.472   3.498 -0.6314 -0.1996  0.5726
18024SOL     OW58882   4.731   7.847   2.127  0.1947  0.5290 -0.3978
18024SOL    HW158883   4.671   7.774   2.108  2.4211 -1.5608  0.1115
18024SOL    HW258884   4.684   7.900   2.191 -1.2264 -0.8709 -0.2120
18025SOL     OW58885   2.920   5.634   1.157  0.0639 -0.1409 -0.2161
18025SOL    HW158886   2.865   5.655   1.233 -0.1660 -1.1643 -0.0787
18025SOL    HW258887   2.966   5.554   1.182  0.3505 -0.2255 -0.9790
18026SOL     OW58888   6.051   3.178   0.665 -0.2831 -0.0331 -0.1157
18026SOL    HW158889   6.003   3.109   0.710 -1.4009  0.2138 -0.8768
18026SOL    HW258890   6.011   3.182   0.578  0.1437  1.1732 -0.2751
18027SOL     OW58891   4.318   0.864   8.677 -0.2529 -0.4243  0.3713
18027SOL    HW158892   4.302   0.775   8.646  0.8527 -0.1129 -1.2432
18027SOL    HW258893   4.350   0.853   8.766 -1.3297 -1.5476  0.6385
18028SOL     OW58894   4.122   5.147   4.581  0.2567 -0.3925 -0.1620
18028SOL    HW158895   4.167   5.092   4.645  1.7674  0.0638 -0.8005
18028SOL    HW258896   4.180   5.150   4.506  0.1322  1.8761 -0.2469
18029SOL     OW58897   3.403   1.302  10.394 -0.6681 -0.9212 -0.2258
18029SOL    HW158898   3.474   1.319  10.333 -0.6510  0.3854  0.1326
18029SOL    HW258899   3.419   1.361  10.467 -0.2299 -3.0336  1.4659
18030SOL     OW58900   9.677   3.993   9.067 -0.4553  0.1814  0.2824
18030SOL    HW158901   9.586   3.965   9.074 -0.4319  0.2452  0.8951
18030SOL    HW258902   9.724   3.937   9.129  0.1379 -0.7485 -0.9492
18031SOL     OW58903  11.559  11.311  10.438 -0.1714  0.1771  0.5119
18031SOL    HW158904  11.543  11.245  10.506  1.5469  0.0870  0.8901
18031SOL    HW258905  11.652  11.335  10.450  0.2603 -0.0480 -1.9830
18032SOL     OW58906  11.887   6.436  10.307  0.1642  0.1233 -0.0259
18032SOL    HW158907  11.935   6.354  10.314  0.5574  0.4561  1.7783
18032SOL    HW258908  11.808   6.423  10.360  0.0257  0.7645 -0.0614
18033SOL     OW58909   2.024   5.039   1.866 -0.6124 -0.3877  0.2306
18033SOL    HW158910   2.088   5.107   1.847 -0.6177 -1.0380 -2.4033
18033SOL    HW258911   1.960   5.082   1.923 -1.0206  2.0991 -1.9217
18034SOL     OW58912   1.738   4.935   8.100 -0.3872  0.2494 -0.4797
18034SOL    HW158913   1.795   4.877   8.152 -0.6290  1.8995  1.8057
18034SOL    HW258914   1.656   4.887   8.090 -0.2928 -0.1649  0.6369
18035SOL     OW58915   8.820   0.336   4.268 -0.3359 -0.0896 -0.3332
18035SOL    HW158916   8.858   0.248   4.263  0.3774  0.1003  1.1806
18035SOL    HW258917   8.795   0.346   4.360 -3.0835  0.2249 -1.0199
18036SOL     OW58918   8.931  11.975   1.472  0.2708  0.0446 -0.1765
18036SOL    HW158919   8.844  12.006   1.447 -0.2233 -0.4181  0.9076
18036SOL    HW258920   8.991  12.033   1.425 -0.6208  0.6365 -0.6219
18037SOL     OW58921  10.618   8.500   6.772 -0.1212 -0.2695 -0.5203
18037SOL    HW158922  10.525   8.481   6.787 -0.1430 -1.0687 -1.5563
18037SOL    HW258923  10.626   8.594   6.789 -1.4496  0.1373 -1.8243
18038SOL     OW58924   7.060   2.545   8.221  0.0232 -0.0139  0.1057
18038SOL    HW158925   7.095   2.472   8.170 -0.9726 -0.0093 -0.6313
18038SOL    HW258926   6.965   2.539   8.210 -0.2258  0.0397  1.9316
18039SOL     OW58927  10.312   4.953   6.363 -0.3838  0.4016  0.6636
18039SOL    HW158928  10.230   4.991   6.395 -1.5591 -0.8588 -0.6937
18039SOL    HW258929  10.307   4.861   6.387  0.4548  0.2313  0.2298
18040SOL     OW58930   9.190   3.502  12.303 -0.6990  0.1214  0.1192
18040SOL    HW158931   9.187   3.407  12.311 -3.3256  0.0407 -0.6300
18040SOL    HW258932   9.133   3.521  12.228  1.3877  2.1991 -1.0490
18041SOL     OW58933   3.816   3.824   9.441 -0.2512 -0.3165 -0.2783
18041SOL    HW158934   3.859   3.741   9.421 -0.4858 -0.3131 -0.8074
18041SOL    HW258935   3.783   3.855   9.357 -2.5258 -1.0162  0.2667
18042SOL     OW58936   1.380   3.315   8.688 -0.6138 -0.6146 -0.1101
18042SOL    HW158937   1.288   3.321   8.660 -0.0601 -0.6384 -2.0997
18042SOL    HW258938   1.396   3.397   8.734 -0.8344  0.8336 -2.4661
18043SOL     OW58939   5.429   3.992  11.032 -0.5012  0.8127 -0.6664
18043SOL    HW158940   5.488   3.945  10.973 -0.5347  2.3256 -1.9558
18043SOL    HW258941   5.405   3.927  11.098 -0.6390 -1.0093 -2.4274
18044SOL     OW58942   0.618   9.536   5.213 -0.0428 -0.7210 -0.5537
18044SOL    HW158943   0.618   9.564   5.122  0.0867 -0.5350 -0.4968
18044SOL    HW258944   0.684   9.590   5.255 -2.4048  1.6775  0.4035
18045SOL     OW58945   0.317   5.008  11.092  0.1495  0.4304  0.0728
18045SOL    HW158946   0.222   5.016  11.084  0.0941  0.3932  0.6103
18045SOL    HW258947   0.335   5.033  11.183  0.7802  1.5233 -0.3344
18046SOL     OW58948   0.953   9.732   8.765  0.0615  0.4998 -0.3168
18046SOL    HW158949   1.033   9.760   8.810 -0.0429  1.9039 -0.9267
18046SOL    HW258950   0.883   9.751   8.828  0.1995 -0.8231  0.2562
18047SOL     OW58951   3.692   6.152   6.653  0.4233  0.6513  0.2923
18047SOL    HW158952   3.690   6.233   6.705  0.3944  0.5152  0.5028
18047SOL    HW258953   3.783   6.141   6.628  0.2325  1.4298 -0.8018
18048SOL     OW58954   0.273   5.241   7.320  0.4194 -0.1397 -0.1715
18048SOL    HW158955   0.248   5.305   7.386  0.5849  0.8769 -1.0616
18048SOL    HW258956   0.338   5.286   7.266  0.3188 -0.9511 -1.0023
18049SOL     OW58957   6.316   5.690   9.754 -0.4268 -0.5598 -0.0985
18049SOL    HW158958   6.338   5.661   9.843  1.4546 -0.7791 -0.5871
18049SOL    HW258959   6.243   5.751   9.766 -1.3228 -1.8457  1.4142
18050SOL     OW58960   8.843   2.233  10.140 -0.5364  0.2735 -0.2218
18050SOL    HW158961   8.884   2.204  10.222  0.2424  0.9038 -0.3693
18050SOL    HW258962   8.854   2.160  10.080  1.4497  0.8081 -0.6117
18051SOL     OW58963   0.933   8.088   1.434  0.0428  0.5638 -0.7334
18051SOL    HW158964   0.894   8.047   1.512 -2.1523 -0.6877 -2.3734
18051SOL    HW258965   0.859   8.128   1.389  0.9356 -0.2392 -3.0461
18052SOL     OW58966   2.843   2.683   2.098 -0.9184  0.4499  0.0033
18052SOL    HW158967   2.898   2.635   2.037 -0.0673  0.8935  0.3965
18052SOL    HW258968   2.840   2.628   2.176 -1.4925  0.1728 -0.2086
18053SOL     OW58969   8.555   8.203  11.262  0.0691 -1.0978 -0.0294
18053SOL    HW158970   8.645   8.197  11.295  0.1484 -0.3890 -0.0902
18053SOL    HW258971   8.532   8.113  11.238  1.3822 -1.0794 -1.6143
18054SOL     OW58972   1.351   7.640  10.762  0.0781  0.3487 -0.3763
18054SOL    HW158973   1.314   7.592  10.837  0.5128  2.7159  1.4757
18054SOL    HW258974   1.426   7.587  10.734 -0.1805 -0.6661  0.7618
18055SOL     OW58975  11.216   5.036  10.236 -0.1418 -0.0659  0.2035
18055SOL    HW158976  11.220   5.089  10.156  0.3156  1.6562  1.3078
18055SOL    HW258977  11.124   5.036  10.261 -0.4357 -1.4052 -0.8048
18056SOL     OW58978   5.451   3.330   1.547 -0.5862  0.7275  0.4338
18056SOL    HW158979   5.536   3.327   1.591 -0.8882 -2.5519  1.0479
18056SOL    HW258980   5.406   3.405   1.587  1.1693  1.1539  1.7366
18057SOL     OW58981   5.446  12.037   5.890 -0.6882  0.7823 -0.3039
18057SOL    HW158982   5.408  12.067   5.808  1.0427 -1.1723 -1.9191
18057SOL    HW258983   5.539  12.059   5.884  0.0305 -1.8910 -0.2097
18058SOL     OW58984   9.915   5.125   5.768 -0.6766  0.6052 -0.8670
18058SOL    HW158985   9.862   5.082   5.701  0.9430 -0.4773 -1.5129
18058SOL    HW258986   9.871   5.209   5.783 -1.4691  0.5782 -2.7675
18059SOL     OW58987   9.666   2.391   1.221  0.5861  0.4010  0.2909
18059SOL    HW158988   9.706   2.312   1.256 -2.0629 -0.8421  0.7836
18059SOL    HW258989   9.635   2.439   1.297  1.6383  1.6441 -0.0373
18060SOL     OW58990   0.805   1.533   4.237 -0.4502 -0.0608 -0.1320
18060SOL    HW158991   0.798   1.581   4.155  1.4112 -0.3094 -0.4790
18060SOL    HW258992   0.891   1.492   4.234 -0.4806 -0.3832  1.7834
18061SOL     OW58993  10.353   0.401   3.643  0.0496 -0.3575  0.3473
18061SOL    HW158994  10.383   0.420   3.554 -0.4024  1.2438  0.5225
18061SOL    HW258995  10.397   0.466   3.698  1.1968 -2.0054  1.4948
18062SOL     OW58996   4.870   3.547   0.940  0.3004 -0.3209  0.8811
18062SOL    HW158997   4.843   3.624   0.889  0.4849  0.1571  1.4871
18062SOL    HW258998   4.868   3.577   1.031  1.2934 -0.7465  1.0611
18063SOL     OW58999   4.588   6.786  12.643  0.2851  0.3960 -0.0314
18063SOL    HW159000   4.653   6.820  12.705 -0.6961  1.2313  0.5845
18063SOL    HW259001   4.543   6.716  12.691 -0.6574  1.2218  0.3329
18064SOL     OW59002   6.507  11.729   5.903  0.0058  0.4104  0.1696
18064SOL    HW159003   6.483  11.809   5.856  0.2890 -0.3958 -1.4555
18064SOL    HW259004   6.594  11.707   5.869 -0.2711 -0.8289  0.2299
18065SOL     OW59005  11.695  10.394   6.202 -0.1343  0.2987 -0.1568
18065SOL    HW159006  11.659  10.442   6.276  0.2127  0.6773 -0.2251
18065SOL    HW259007  11.630  10.403   6.133 -0.4230  0.0101  0.0772
18066SOL     OW59008  11.795   8.945   8.335  0.4025  0.2934  0.4042
18066SOL    HW159009  11.880   8.917   8.302  0.1613  0.2389 -0.1783
18066SOL    HW259010  11.774   8.882   8.404 -0.0790 -0.9249 -0.8015
18067SOL     OW59011   3.039   7.828  12.249 -0.4918 -0.3184 -0.5483
18067SOL    HW159012   3.031   7.773  12.327  2.9975 -0.0042  0.1976
18067SOL    HW259013   3.041   7.918  12.283 -3.0513  0.2022 -1.4916
18068SOL     OW59014  10.657   8.600  10.858  0.4710 -0.7344  0.2282
18068SOL    HW159015  10.738   8.599  10.909  0.2672  1.6734  0.7162
18068SOL    HW259016  10.612   8.519  10.883  1.8098 -1.1398  1.4553
18069SOL     OW59017  11.606   2.077   6.548  0.1479 -0.3523 -0.4489
18069SOL    HW159018  11.547   2.132   6.496  1.8760  0.2252 -1.9244
18069SOL    HW259019  11.641   2.136   6.615 -0.6632 -0.5974  0.1928
18070SOL     OW59020   2.973  12.165   8.781 -0.6086 -0.3094  0.2547
18070SOL    HW159021   2.948  12.140   8.870 -0.6213  0.2357  0.4049
18070SOL    HW259022   2.946  12.256   8.772 -0.3298 -0.2646 -0.2053
18071SOL     OW59023   3.963   5.381   4.526  0.4215  0.1412  0.1768
18071SOL    HW159024   4.026   5.317   4.559 -1.0688 -1.0875  0.7443
18071SOL    HW259025   4.006   5.420   4.449  1.6712 -0.9634  0.2825
18072SOL     OW59026   8.946   3.950   2.778 -0.2201 -0.3410 -0.0410
18072SOL    HW159027   8.892   3.871   2.780 -3.1414  1.3806 -2.0894
18072SOL    HW259028   8.922   3.997   2.858  0.4670 -0.8741  0.4866
18073SOL     OW59029   1.670   1.054   3.254 -0.2236 -0.2124  0.0761
18073SOL    HW159030   1.575   1.046   3.245 -0.2876  2.1248 -2.4564
18073SOL    HW259031   1.685   1.049   3.348 -2.5865 -2.5286  0.4647
18074SOL     OW59032   6.002   3.014   0.290  0.1870  0.0873 -0.1108
18074SOL    HW159033   6.028   2.927   0.320  0.0807  0.4119  0.9920
18074SOL    HW259034   5.921   3.033   0.338 -0.0052  0.6307 -0.6374
18075SOL     OW59035   7.874  10.012   1.260 -0.3859 -0.3095 -0.4644
18075SOL    HW159036   7.872  10.061   1.342  0.1295 -3.1039  1.3663
18075SOL    HW259037   7.967   9.988   1.249 -0.6070 -0.8452 -1.2860
18076SOL     OW59038   3.550  11.322  12.553 -0.0660  0.0327 -0.0508
18076SOL    HW159039   3.621  11.369  12.509  0.4695 -0.8796 -0.1904
18076SOL    HW259040   3.475  11.381  12.548  0.0856  0.1195 -1.8113
18077SOL     OW59041   5.659   7.322   3.916 -0.6145  0.1685  0.4701
18077SOL    HW159042   5.731   7.345   3.974  0.8925  0.7958 -1.5133
18077SOL    HW259043   5.641   7.230   3.936  1.5799 -0.3787  0.2363
18078SOL     OW59044   4.698   1.456   8.712  0.1031  0.7056 -0.4449
18078SOL    HW159045   4.784   1.440   8.673 -0.0453  0.6009 -0.7324
18078SOL    HW259046   4.637   1.406   8.658  0.0193 -0.2974  0.5419
18079SOL     OW59047   4.252   5.399  12.198  0.1618  0.2932  0.9027
18079SOL    HW159048   4.319   5.449  12.244 -1.1806  1.1201  2.0567
18079SOL    HW259049   4.231   5.451  12.121 -0.8863  1.3255  1.8492
18080SOL     OW59050   9.952   0.410   5.708  0.1127 -0.4904 -0.1352
18080SOL    HW159051   9.951   0.505   5.702  0.4974 -0.5502 -1.4675
18080SOL    HW259052   9.964   0.392   5.801  1.6234  0.7875 -0.0426
18081SOL     OW59053   9.028  12.472   0.908  0.3987  0.5046 -0.1865
18081SOL    HW159054   9.104  12.492   0.963 -0.1542 -0.0968  0.8323
18081SOL    HW259055   9.032  12.536   0.837  2.0184  0.2994 -0.3187
18082SOL     OW59056   3.090   6.875   6.428 -0.0102 -0.3089  0.0103
18082SOL    HW159057   3.059   6.965   6.439  2.4422  0.6992 -0.6024
18082SOL    HW259058   3.181   6.884   6.399  0.2430 -3.0020 -0.3362
18083SOL     OW59059   5.924   4.497   9.859 -0.0372 -0.1697 -0.0231
18083SOL    HW159060   5.840   4.489   9.905 -0.1232 -0.8958 -0.2892
18083SOL    HW259061   5.901   4.492   9.766  0.2260  0.4056 -0.1209
18084SOL     OW59062   1.424   6.435   1.557  0.3845 -0.0849  0.1448
18084SOL    HW159063   1.401   6.402   1.470  0.9902  0.2991 -0.1651
18084SOL    HW259064   1.474   6.364   1.597  0.7366  0.0170 -0.1039
18085SOL     OW59065  12.453   3.612  10.751 -0.4636  0.2729 -0.4016
18085SOL    HW159066  12.399   3.566  10.815 -0.8987  0.1872 -0.8241
18085SOL    HW259067  12.448   3.704  10.776 -0.6287  0.2392 -0.3140
18086SOL     OW59068  12.095  10.266   4.552  0.8648 -0.2317 -0.4380
18086SOL    HW159069  12.148  10.224   4.485 -0.2289 -0.3716 -1.2502
18086SOL    HW259070  12.136  10.351   4.566 -0.0745  0.7078 -2.8665
18087SOL     OW59071   3.076   1.069   5.037  0.0772  0.7957 -0.2296
18087SOL    HW159072   3.133   1.005   5.080  0.0278  1.9407  1.6087
18087SOL    HW259073   3.111   1.074   4.948  1.7019  0.1040  0.3173
18088SOL     OW59074   4.531   4.882  10.429  0.0563  0.3315  0.2611
18088SOL    HW159075   4.576   4.821  10.370  0.0875 -0.9669  1.5834
18088SOL    HW259076   4.494   4.948  10.370 -1.3390 -1.7865 -1.4013
18089SOL     OW59077  12.583   6.802   2.935 -0.8563  0.2928 -0.3606
18089SOL    HW159078  12.488   6.810   2.933 -1.0723 -1.5382  0.2468
18089SOL    HW259079  12.599   6.708   2.947  1.0470  0.2531 -2.3898
18090SOL     OW59080  10.050   9.749   2.167 -0.2611  0.6368 -0.5681
18090SOL    HW159081  10.001   9.672   2.139 -0.1118  0.5174 -0.4982
18090SOL    HW259082  10.002   9.782   2.243  1.0628 -0.8295  0.9833
18091SOL     OW59083   5.965  12.189   7.145  0.3462 -0.6928 -0.2882
18091SOL    HW159084   5.974  12.109   7.093 -0.3798 -1.6178  0.9616
18091SOL    HW259085   5.920  12.251   7.088 -0.5848 -1.7405 -0.7094
18092SOL     OW59086   6.763  12.554  10.307 -0.4222  0.0524 -0.3742
18092SOL    HW159087   6.837  12.570  10.248 -0.1091 -0.1156 -0.0296
18092SOL    HW259088   6.718  12.479  10.268 -0.2976  0.0310 -0.4781
18093SOL     OW59089  11.869   7.241  10.002 -0.1032  0.3105 -0.4923
18093SOL    HW159090  11.773   7.245   9.996 -0.1898 -0.6423  0.0598
18093SOL    HW259091  11.890   7.291  10.081 -0.1430  0.4453 -0.5655
18094SOL     OW59092   9.032   6.686  11.622  0.6892  0.2951  0.5840
18094SOL    HW159093   8.998   6.704  11.710 -2.1681  1.5179 -0.6336
18094SOL    HW259094   9.032   6.772  11.579 -1.1214 -0.6719 -1.5407
18095SOL     OW59095  10.256  10.176   6.218  1.1920 -0.1771 -0.4199
18095SOL    HW159096  10.295  10.258   6.189  0.8334 -0.5639 -2.1057
18095SOL    HW259097  10.331  10.118   6.235  1.4072  0.0679 -0.5295
18096SOL     OW59098  10.992   7.945   5.852 -0.4597 -0.0255  0.7351
18096SOL    HW159099  11.005   7.864   5.901 -1.9857 -0.7919 -0.0379
18096SOL    HW259100  11.065   7.946   5.789 -0.8781 -1.2719  0.1822
18097SOL     OW59101   3.598   3.034   0.055 -0.0282 -0.5189 -0.2307
18097SOL    HW159102   3.668   2.971   0.041  0.5892  0.3275 -1.0627
18097SOL    HW259103   3.528   2.983   0.097 -0.4810 -2.3212 -2.9451
18098SOL     OW59104   9.484   4.483   7.336 -0.0739 -0.0141  0.4240
18098SOL    HW159105   9.391   4.469   7.352 -0.3404  2.2099  1.1039
18098SOL    HW259106   9.524   4.476   7.423  0.3205 -0.2745  0.2291
18099SOL     OW59107   3.025   2.950   2.134 -0.0302 -0.1224 -0.4599
18099SOL    HW159108   3.049   2.935   2.042  0.0583 -0.2419 -0.4177
18099SOL    HW259109   2.995   2.864   2.165  2.8503 -0.8653  0.5088
18100SOL     OW59110   5.093   8.869   8.102 -0.3431  0.4595  0.2037
18100SOL    HW159111   5.060   8.852   8.014 -0.1092 -3.0130  0.6444
18100SOL    HW259112   5.188   8.869   8.093 -0.1668 -2.7917  0.6890
18101SOL     OW59113   1.893   4.219   0.564  0.2521  0.3205 -0.5635
18101SOL    HW159114   1.850   4.176   0.490 -3.8724  0.0516  1.6992
18101SOL    HW259115   1.934   4.148   0.613 -0.4873 -0.0575 -0.4902
18102SOL     OW59116  10.275   3.224  11.729 -0.0430  0.2447 -0.3288
18102SOL    HW159117  10.233   3.242  11.645  0.0014  1.3122 -0.1338
18102SOL    HW259118  10.230   3.147  11.763  1.1571 -1.3519 -2.1502
18103SOL     OW59119   7.740   0.637   8.615  0.4749 -0.0249  0.3227
18103SOL    HW159120   7.826   0.599   8.597  0.7096 -0.6097  2.3926
18103SOL    HW259121   7.741   0.655   8.709 -0.6817  2.5241 -0.0780
18104SOL     OW59122   1.294  10.830   6.045 -0.3931  0.6237 -0.3624
18104SOL    HW159123   1.278  10.764   5.977 -0.2596 -0.2781  0.4560
18104SOL    HW259124   1.361  10.791   6.101 -1.2183  0.9102  0.8736
18105SOL     OW59125   0.059  11.761   0.656  0.0614 -0.0932 -0.4676
18105SOL    HW159126   0.004  11.836   0.633  1.8625  0.8173 -2.1852
18105SOL    HW259127   0.122  11.755   0.584  3.4178  0.1425  2.2140
18106SOL     OW59128  11.970   3.504   8.921 -0.3377 -0.1767  0.1649
18106SOL    HW159129  11.918   3.473   8.995 -1.4839 -0.6807 -0.8105
18106SOL    HW259130  11.926   3.467   8.844 -0.4114  2.0225 -0.9130
18107SOL     OW59131  11.436   8.916  10.384 -0.2196 -0.0973  0.5771
18107SOL    HW159132  11.382   8.937  10.308 -0.7118 -2.0229  0.3367
18107SOL    HW259133  11.521   8.954  10.364 -0.8070  0.8984 -0.1394
18108SOL     OW59134   1.209   5.422   0.923 -0.1410  0.6099  0.8652
18108SOL    HW159135   1.153   5.495   0.897 -0.9134 -0.5493 -0.9019
18108SOL    HW259136   1.272   5.460   0.984 -1.1595  2.5199  0.7845
18109SOL     OW59137  11.108  11.206   0.203 -0.4824  0.2315  0.0035
18109SOL    HW159138  11.171  11.269   0.239 -1.9001  1.3543  0.6557
18109SOL    HW259139  11.057  11.177   0.279  0.0348 -1.6391 -0.3118
18110SOL     OW59140  11.531   9.270   4.788  0.0756 -0.0997  0.4859
18110SOL    HW159141  11.512   9.364   4.785  2.1934  0.4245  1.5511
18110SOL    HW259142  11.477   9.237   4.860 -2.8036 -0.3408 -1.6179
18111SOL     OW59143   7.733   3.432  12.135 -0.1271 -0.0766  0.5755
18111SOL    HW159144   7.699   3.427  12.045  0.7400  2.7907 -0.0420
18111SOL    HW259145   7.735   3.342  12.166 -2.2210 -0.9809 -1.6106
18112SOL     OW59146   5.473   7.864   7.928  0.4791  0.5292 -0.0119
18112SOL    HW159147   5.502   7.776   7.903  0.4707  0.4182  0.3712
18112SOL    HW259148   5.498   7.873   8.019  0.0413  0.7411  0.0897
18113SOL     OW59149   8.928   9.635   6.701 -0.3208 -0.1454  0.2683
18113SOL    HW159150   9.005   9.622   6.756  0.9321 -0.3036 -1.4479
18113SOL    HW259151   8.947   9.714   6.650 -1.1305 -0.3920 -0.4421
18114SOL     OW59152   8.848   7.455   5.294 -0.4584  0.6848  0.4959
18114SOL    HW159153   8.853   7.458   5.389 -2.4030  1.1279  0.6241
18114SOL    HW259154   8.927   7.501   5.264  0.5114 -0.0270  1.8590
18115SOL     OW59155  11.784   3.714   6.788 -0.2044  0.2204  0.4843
18115SOL    HW159156  11.698   3.749   6.809 -0.7910 -0.8637 -0.0721
18115SOL    HW259157  11.774   3.619   6.794  0.4297 -0.0076 -1.5011
18116SOL     OW59158  11.665   6.383   6.267  0.5171 -0.4945 -0.1308
18116SOL    HW159159  11.647   6.354   6.356  2.0867 -0.2565  0.2805
18116SOL    HW259160  11.601   6.336   6.213 -1.4102  0.4175  1.2353
18117SOL     OW59161   8.472   4.786  11.445  0.9519 -0.0043 -0.4853
18117SOL    HW159162   8.382   4.804  11.419  1.2501  0.6616 -1.0691
18117SOL    HW259163   8.483   4.692  11.432 -0.2847 -0.4905  1.5450
18118SOL     OW59164   6.385   5.522   8.630  0.0127  0.3542 -0.2013
18118SOL    HW159165   6.397   5.563   8.544  1.4590  1.7943  0.6258
18118SOL    HW259166   6.402   5.592   8.693 -0.9559 -0.6790  1.2821
18119SOL     OW59167  12.400  12.589   2.323 -0.0543 -0.3690  1.2369
18119SOL    HW159168  12.478  12.547   2.287 -1.0952 -1.0043 -0.4227
18119SOL    HW259169  12.393  12.556   2.412  0.4635 -1.9192  0.7267
18120SOL     OW59170   2.964   5.647  11.815  0.2513  0.0956  0.1232
18120SOL    HW159171   3.052   5.685  11.810  0.6101 -0.7519 -0.2390
18120SOL    HW259172   2.918   5.701  11.879  0.8902  0.8347 -0.0227
18121SOL     OW59173   7.118   3.184   2.563  0.6598  0.1314  0.1020
18121SOL    HW159174   7.088   3.274   2.548  1.4746  0.5306  0.7563
18121SOL    HW259175   7.160   3.159   2.481  2.2794  1.1321  0.5808
18122SOL     OW59176   6.489   3.889   6.341 -0.4469  0.3075 -0.2110
18122SOL    HW159177   6.430   3.927   6.407  1.0463  0.9275  0.8232
18122SOL    HW259178   6.484   3.951   6.267 -3.2357 -1.1277 -1.3998
18123SOL     OW59179   2.964   0.200   3.988  0.6556 -0.3442  0.1895
18123SOL    HW159180   2.907   0.165   4.057 -0.6003  1.2698  0.0578
18123SOL    HW259181   2.909   0.265   3.944  2.5311  1.0579 -0.1727
18124SOL     OW59182   7.226  11.891   7.402  0.4314  0.7588 -0.3422
18124SOL    HW159183   7.304  11.870   7.454 -0.0488  1.7593  0.8290
18124SOL    HW259184   7.154  11.888   7.465  0.1280  4.3653 -0.3455
18125SOL     OW59185   9.649   4.722   8.480 -0.2428  0.1870  0.3213
18125SOL    HW159186   9.575   4.778   8.507 -0.3397  1.2451 -1.8863
18125SOL    HW259187   9.697   4.706   8.560 -1.8537  1.0294  1.5205
18126SOL     OW59188  10.034   9.020  11.066  0.1254 -0.4095 -0.1037
18126SOL    HW159189  10.117   9.041  11.025  0.4380 -0.8249  0.2990
18126SOL    HW259190   9.984   9.101  11.064  0.7893  0.0169  0.2289
18127SOL     OW59191   2.142   9.743  10.223  0.3819 -0.3490  0.2270
18127SOL    HW159192   2.116   9.664  10.175 -0.4069  1.0017 -1.7007
18127SOL    HW259193   2.221   9.774  10.178  0.1443  0.4730  0.3581
18128SOL     OW59194   6.477   9.843   2.824  0.1609 -0.1169  0.1586
18128SOL    HW159195   6.387   9.861   2.853  0.0764  0.7408 -0.6005
18128SOL    HW259196   6.522   9.926   2.830  0.9129 -0.5410  0.5072
18129SOL     OW59197   8.336   7.313   0.523  0.3389  0.0638  0.4934
18129SOL    HW159198   8.336   7.283   0.614  0.2460 -0.6622  0.2637
18129SOL    HW259199   8.245   7.304   0.495  0.8833 -3.1160 -0.7162
18130SOL     OW59200   7.213  10.543   6.505 -0.5941 -0.0680  0.1039
18130SOL    HW159201   7.252  10.527   6.418  0.4237  0.1916  0.4937
18130SOL    HW259202   7.245  10.470   6.558 -1.2438 -0.2436  0.2580
18131SOL     OW59203   5.844  10.056   5.349 -0.3343 -0.0860 -0.0001
18131SOL    HW159204   5.930  10.050   5.392 -0.0397  1.4718 -0.2899
18131SOL    HW259205   5.842  10.145   5.314 -1.5002 -0.5694 -1.2371
18132SOL     OW59206   7.918   1.323  10.464 -0.2160  0.4140  0.0271
18132SOL    HW159207   7.834   1.322  10.510 -0.0209  1.1554  0.4186
18132SOL    HW259208   7.921   1.240  10.417 -1.0189  0.2356  0.2801
18133SOL     OW59209   9.894   6.966   1.338  0.3898 -0.1543 -0.4225
18133SOL    HW159210   9.955   6.927   1.401  0.5396 -0.6821 -0.8801
18133SOL    HW259211   9.931   6.944   1.252 -0.8429 -1.1830 -0.7353
18134SOL     OW59212   5.476  11.398   2.897 -0.0953  0.4978  0.7494
18134SOL    HW159213   5.572  11.394   2.892 -0.1884 -0.8653 -2.2462
18134SOL    HW259214   5.458  11.466   2.962  2.8733  0.2113  2.0243
18135SOL     OW59215   6.088  11.778   6.656  0.1937  0.4783  0.3176
18135SOL    HW159216   6.016  11.841   6.664  1.0466  1.3289  1.6500
18135SOL    HW259217   6.167  11.830   6.672  1.0413 -0.6252 -0.1753
18136SOL     OW59218  12.355  12.464   4.177  0.2379  0.2874 -0.4291
18136SOL    HW159219  12.283  12.492   4.234  0.6441  0.1047  0.1890
18136SOL    HW259220  12.420  12.534   4.183  0.7229 -0.1987  0.1521
18137SOL     OW59221   8.066   1.335   2.028 -0.4249  0.0542  0.2360
18137SOL    HW159222   7.996   1.273   2.050 -0.2350 -0.5030 -0.6898
18137SOL    HW259223   8.092   1.312   1.939 -1.5018  2.5481 -0.8286
18138SOL     OW59224   5.579   1.465   8.718 -0.0203 -0.5056 -0.1698
18138SOL    HW159225   5.596   1.557   8.739 -0.5166  0.2322 -2.6784
18138SOL    HW259226   5.498   1.445   8.764  0.7084 -0.0884  1.3665
18139SOL     OW59227   9.587  11.837  10.337 -0.4917  0.0633 -0.2450
18139SOL    HW159228   9.654  11.905  10.339 -0.5633  0.1407 -0.4584
18139SOL    HW259229   9.553  11.835  10.426  0.0580 -0.2429 -0.0343
18140SOL     OW59230   7.322   9.022   6.590 -0.9476 -0.0610  0.2340
18140SOL    HW159231   7.282   9.080   6.655  1.2679  0.9464  0.8140
18140SOL    HW259232   7.349   9.081   6.519 -0.7049 -0.7158 -0.2287
18141SOL     OW59233   6.383   5.906  10.533 -0.3300  0.1326 -0.0005
18141SOL    HW159234   6.318   5.933  10.469  1.6350  0.1016 -2.1390
18141SOL    HW259235   6.400   5.984  10.585 -1.6004  0.3025  0.1892
18142SOL     OW59236  10.553   5.128   0.596  0.1885 -0.1244 -0.1242
18142SOL    HW159237  10.535   5.046   0.550 -0.7992  0.6697 -1.2191
18142SOL    HW259238  10.643   5.120   0.626  0.1552 -1.5426 -0.3563
18143SOL     OW59239   3.682   6.071   6.962  0.1528 -0.3632  0.3624
18143SOL    HW159240   3.665   6.134   7.033 -0.2568  1.2710 -1.1188
18143SOL    HW259241   3.645   5.989   6.994 -1.1260  0.6244  1.5623
18144SOL     OW59242   0.449  12.328   7.897 -0.0216  0.2415 -0.4332
18144SOL    HW159243   0.368  12.359   7.856 -0.4644  1.1783  1.0826
18144SOL    HW259244   0.455  12.376   7.979  1.6487 -0.4377 -0.1082
18145SOL     OW59245   1.070   1.407  11.344 -0.0417  0.4887 -0.3318
18145SOL    HW159246   1.008   1.461  11.294 -0.2363 -0.5445 -1.2396
18145SOL    HW259247   1.096   1.463  11.417  0.4332  2.1336 -1.7021
18146SOL     OW59248   6.333   9.654   5.365  1.1089  0.2866  0.1043
18146SOL    HW159249   6.309   9.657   5.272  0.3693 -1.2927  0.2085
18146SOL    HW259250   6.333   9.561   5.386  1.5069  0.6175  1.6338
18147SOL     OW59251  12.290   7.668   5.401  0.0642 -0.0612  0.2638
18147SOL    HW159252  12.313   7.708   5.485 -0.2081 -1.2710  0.9351
18147SOL    HW259253  12.362   7.609   5.381  0.9793  1.4604 -1.2486
18148SOL     OW59254   4.298   9.239   9.547  0.1559 -0.1462  0.0539
18148SOL    HW159255   4.378   9.291   9.541 -0.0264  0.1496  0.1574
18148SOL    HW259256   4.323   9.163   9.600  0.7785 -0.8641 -1.2222
18149SOL     OW59257   8.394   1.003  12.055  0.1563  0.5614 -0.1335
18149SOL    HW159258   8.441   0.952  12.122 -0.0297  1.6301  0.8438
18149SOL    HW259259   8.310   1.022  12.096 -0.6949 -0.3350 -1.4145
18150SOL     OW59260  12.086  11.881   3.806 -0.3961 -0.3992  0.0762
18150SOL    HW159261  12.177  11.908   3.794  0.0300 -0.8834  1.8275
18150SOL    HW259262  12.057  11.856   3.719  1.4663 -1.1710 -0.3799
18151SOL     OW59263  11.994  11.006   1.857 -0.1585 -0.1440  0.0423
18151SOL    HW159264  11.926  10.963   1.805 -1.3624 -0.5659  1.8481
18151SOL    HW259265  11.948  11.079   1.900 -0.1270 -1.6372  2.9210
18152SOL     OW59266   6.880   4.865   4.736 -0.1877 -0.1692  0.1249
18152SOL    HW159267   6.821   4.821   4.674 -1.3604  0.3412  0.8470
18152SOL    HW259268   6.837   4.949   4.754  0.9255  0.3445  0.4409
18153SOL     OW59269  10.200   8.383   2.106  0.2341 -0.1096  0.3449
18153SOL    HW159270  10.124   8.438   2.125 -1.4664 -1.8459 -0.9999
18153SOL    HW259271  10.224   8.406   2.016 -0.2959 -1.2797 -0.1141
18154SOL     OW59272   9.520   1.585   6.833 -0.4902  0.1126 -0.8961
18154SOL    HW159273   9.505   1.492   6.850  0.0345 -0.0747 -1.4496
18154SOL    HW259274   9.615   1.595   6.838 -0.5185  0.5478 -1.2263
18155SOL     OW59275   0.143   7.486   4.592  0.2531  0.1290  0.4052
18155SOL    HW159276   0.126   7.480   4.686 -0.3715 -0.2787  0.2762
18155SOL    HW259277   0.166   7.397   4.566  0.9835  0.3520  0.2644
18156SOL     OW59278   8.532   2.011  11.401 -0.2305  0.4746  0.1455
18156SOL    HW159279   8.460   1.956  11.432  1.9657 -0.7474  3.7717
18156SOL    HW259280   8.514   2.097  11.439 -1.4065  1.1765 -1.8448
18157SOL     OW59281   9.469   0.156  11.803 -0.2494  0.0517 -0.2040
18157SOL    HW159282   9.482   0.077  11.855 -1.2998  0.4078  0.6213
18157SOL    HW259283   9.557   0.187  11.785  0.1801 -1.2149 -0.4193
18158SOL     OW59284   7.332   0.945   0.379  0.2950  0.2678  0.1046
18158SOL    HW159285   7.265   0.981   0.321  1.0594 -1.8418 -2.3083
18158SOL    HW259286   7.285   0.920   0.458 -1.8333 -1.1763 -1.5020
18159SOL     OW59287   7.144   5.639   4.803 -0.1429 -0.5781  0.3962
18159SOL    HW159288   7.172   5.560   4.849 -0.1564  0.3681  2.0872
18159SOL    HW259289   7.108   5.607   4.720  1.6152 -2.1892  0.1814
18160SOL     OW59290   5.125   5.104   1.924  0.2171 -0.0807  0.4681
18160SOL    HW159291   5.068   5.180   1.916  0.1579 -0.2603 -1.2144
18160SOL    HW259292   5.204   5.139   1.966 -0.4368  0.5349  1.2302
18161SOL     OW59293   9.740   8.874   3.804  0.1212 -0.3825  0.1194
18161SOL    HW159294   9.799   8.930   3.752 -1.2894  0.5833 -0.5008
18161SOL    HW259295   9.769   8.888   3.894  0.8421  0.0646 -0.1656
18162SOL     OW59296   0.523   7.674   2.872 -0.1793  0.0018 -0.4970
18162SOL    HW159297   0.457   7.704   2.934  0.2777  1.8974 -0.8424
18162SOL    HW259298   0.523   7.741   2.803 -0.7473 -2.0768 -2.6468
18163SOL     OW59299   8.401   4.649   2.205  0.1624 -0.3092  0.3607
18163SOL    HW159300   8.376   4.741   2.200 -0.8821 -0.5821  0.4273
18163SOL    HW259301   8.492   4.648   2.176  0.1574  0.7311  0.2712
18164SOL     OW59302   9.260   9.930   3.505 -0.0471 -0.0339  0.2040
18164SOL    HW159303   9.267   9.966   3.416  0.0630 -0.9225 -0.1544
18164SOL    HW259304   9.168   9.940   3.528 -1.1733 -3.9262 -1.8296
18165SOL     OW59305   9.097   5.743   1.525  0.2263  0.1824  0.4142
18165SOL    HW159306   9.049   5.822   1.502 -0.7729  0.1867  2.3477
18165SOL    HW259307   9.056   5.712   1.606  2.1944 -0.9325  1.0585
18166SOL     OW59308   9.735   8.152   1.898 -0.1490 -0.4997 -0.3881
18166SOL    HW159309   9.819   8.154   1.943 -0.9098  0.4245  1.0953
18166SOL    HW259310   9.734   8.231   1.845 -0.8021  0.5184  1.0762
18167SOL     OW59311   5.666  10.444  12.581 -0.6420  0.4343  0.6811
18167SOL    HW159312   5.592  10.483  12.629  0.0312  0.9640  1.3132
18167SOL    HW259313   5.625  10.385  12.518 -1.5910  0.2375  1.4473
18168SOL     OW59314  11.166   4.647   0.476 -0.3163 -0.1364 -0.4599
18168SOL    HW159315  11.123   4.604   0.550 -0.0628  0.1528 -0.1449
18168SOL    HW259316  11.257   4.658   0.504 -0.0683 -0.5844 -1.0515
18169SOL     OW59317  12.188   0.671   9.898 -0.3148  0.4060  0.3036
18169SOL    HW159318  12.221   0.744   9.951 -1.2121 -1.1138  3.2033
18169SOL    HW259319  12.097   0.694   9.881  0.0158  0.9663 -0.7864
18170SOL     OW59320   5.601  10.399   8.115  0.0914 -0.8466 -0.5997
18170SOL    HW159321   5.533  10.457   8.083 -0.0078 -0.8515 -0.4043
18170SOL    HW259322   5.675  10.457   8.133 -0.2214 -0.6776  0.2091
18171SOL     OW59323   0.638   1.012   3.079  0.3241 -0.2185 -0.2734
18171SOL    HW159324   0.725   1.042   3.104 -0.1911  0.5362  0.6617
18171SOL    HW259325   0.618   0.942   3.142 -0.9222  1.6017  1.4712
18172SOL     OW59326   2.985   5.058   2.840  0.1647 -0.1134 -0.2717
18172SOL    HW159327   2.976   5.152   2.858  2.4148 -0.0520  0.8671
18172SOL    HW259328   2.944   5.046   2.755 -0.8246  1.7669 -0.1097
18173SOL     OW59329   5.440  11.362   1.305  0.0138  0.5944 -0.3567
18173SOL    HW159330   5.394  11.446   1.299  1.0196  1.0980 -1.6193
18173SOL    HW259331   5.533  11.386   1.305  0.3190 -0.4435  1.1240
18174SOL     OW59332   2.935   3.226  10.978 -0.2847  0.1733 -0.0278
18174SOL    HW159333   2.982   3.190  10.903 -1.1628  2.0017 -1.5612
18174SOL    HW259334   3.004   3.263  11.034  0.2877  0.7013 -1.0410
18175SOL     OW59335   1.289   3.022   1.343 -0.0519 -0.2738  0.0950
18175SOL    HW159336   1.281   3.117   1.341  0.3235 -0.2511 -0.3507
18175SOL    HW259337   1.382   3.005   1.330 -0.4732 -0.7848 -3.2640
18176SOL     OW59338   9.908   0.597  12.536 -0.0072 -0.7390 -0.0821
18176SOL    HW159339  10.001   0.579  12.528  0.4319  1.0359  0.7308
18176SOL    HW259340   9.896   0.625  12.627 -1.5403 -2.0009  0.1642
18177SOL     OW59341   1.283   6.654   1.452 -0.1899 -0.9527 -0.2465
18177SOL    HW159342   1.291   6.571   1.499  0.5343 -0.2422  0.9229
18177SOL    HW259343   1.261   6.718   1.519  0.5421  0.0236 -0.9065
18178SOL     OW59344   4.573   9.073   7.818  0.3237 -0.9856 -0.0184
18178SOL    HW159345   4.606   9.023   7.893  0.2746  0.1564  0.7869
18178SOL    HW259346   4.627   9.152   7.817 -2.5111  1.1867  1.6122
18179SOL     OW59347  12.350   0.835   7.802 -0.0099  0.2613 -0.2882
18179SOL    HW159348  12.436   0.828   7.844 -0.1425 -1.2471 -0.2290
18179SOL    HW259349  12.324   0.926   7.818  1.3342  0.6053  0.1465
18180SOL     OW59350  10.122  12.018   8.708 -0.1323 -0.2143  0.2779
18180SOL    HW159351  10.103  12.074   8.634 -0.9543 -1.6679 -0.6500
18180SOL    HW259352  10.216  12.030   8.723 -0.2386  1.1822 -0.0505
18181SOL     OW59353   0.450   7.720   2.407 -0.0211  0.4823  0.5624
18181SOL    HW159354   0.505   7.664   2.462 -0.5362  0.9473  1.5825
18181SOL    HW259355   0.446   7.803   2.454 -0.9036  0.7300  0.0768
18182SOL     OW59356   4.055   0.231   5.442 -0.1482 -0.4675  0.0450
18182SOL    HW159357   4.015   0.303   5.392  0.0042 -0.5066 -0.1343
18182SOL    HW259358   4.135   0.269   5.478  0.3204 -0.7523 -0.6644
18183SOL     OW59359  12.521   2.716   9.126  0.1425  0.6289  0.1611
18183SOL    HW159360  12.511   2.669   9.209 -0.1233  0.5368  0.0798
18183SOL    HW259361  12.434   2.711   9.086  1.0630 -2.5556 -1.8133
18184SOL     OW59362   2.291  10.023   2.938  0.0406  0.0911 -0.2916
18184SOL    HW159363   2.371   9.971   2.934  0.4835  0.8097 -1.4216
18184SOL    HW259364   2.225   9.965   2.975  0.2181 -1.6725 -2.5618
18185SOL     OW59365   6.391  11.331   9.309 -0.0647 -0.5322 -0.2871
18185SOL    HW159366   6.365  11.421   9.331 -0.4591 -0.4937 -0.8957
18185SOL    HW259367   6.309  11.282   9.305  0.1298 -0.8675 -0.2062
18186SOL     OW59368   9.685   7.261   6.727  0.4467  0.6289 -0.2428
18186SOL    HW159369   9.636   7.343   6.723  0.0048  0.4809  1.3645
18186SOL    HW259370   9.765   7.284   6.775  0.1570  0.0762  0.5316
18187SOL     OW59371   8.145  10.147   2.449  0.7977 -0.2261 -0.7421
18187SOL    HW159372   8.081  10.078   2.466 -1.9194  1.8748 -1.6334
18187SOL    HW259373   8.149  10.196   2.532  1.4929 -0.5070 -0.6044
18188SOL     OW59374   9.379   9.554   2.597  0.2135 -0.3176  0.2491
18188SOL    HW159375   9.474   9.545   2.605  0.3329  0.6115  0.0507
18188SOL    HW259376   9.355   9.497   2.523  0.8261  0.5257 -0.6284
18189SOL     OW59377   6.963  11.204   9.424  0.0676  0.3825  0.7854
18189SOL    HW159378   7.028  11.266   9.458  2.1373 -0.3872 -1.4779
18189SOL    HW259379   6.970  11.212   9.329 -0.3256 -2.5479  0.4217
18190SOL     OW59380   6.597   1.765   6.788  0.0487  1.3726 -0.4175
18190SOL    HW159381   6.608   1.757   6.883 -2.1450  2.5637 -0.0061
18190SOL    HW259382   6.546   1.689   6.763 -0.2279  1.5772 -0.4767
18191SOL     OW59383   3.643   1.929   0.267 -0.7514 -0.4921 -0.1561
18191SOL    HW159384   3.663   1.912   0.175 -0.3961  0.5708 -0.2908
18191SOL    HW259385   3.660   1.846   0.311  2.2734 -0.1786 -0.5370
18192SOL     OW59386  12.093   9.322  10.769 -0.2083 -0.3026  0.5363
18192SOL    HW159387  12.119   9.380  10.841  0.4442  0.4887 -0.3237
18192SOL    HW259388  12.060   9.380  10.701  2.7329 -0.6466 -1.3332
18193SOL     OW59389   9.494   1.347   6.608 -0.0903 -0.2822 -0.6619
18193SOL    HW159390   9.585   1.359   6.636  0.0832 -1.1610 -0.8317
18193SOL    HW259391   9.458   1.285   6.671 -0.0122 -1.4227 -1.6960
18194SOL     OW59392   4.891   1.862   6.655  0.0881 -0.3150  0.3529
18194SOL    HW159393   4.961   1.925   6.641  0.2247 -0.4830  0.2690
18194SOL    HW259394   4.814   1.915   6.678  0.0560 -0.0799 -0.2705
18195SOL     OW59395  11.261   5.150   3.489  0.4723 -0.1216 -0.0081
18195SOL    HW159396  11.287   5.195   3.408 -1.4376  0.0354 -0.5831
18195SOL    HW259397  11.166   5.147   3.485  0.3943 -1.1597  1.7035
18196SOL     OW59398   3.179   7.090   3.275  0.0408 -0.3706 -0.6829
18196SOL    HW159399   3.176   7.180   3.306  0.5163  0.0057 -1.6862
18196SOL    HW259400   3.117   7.043   3.331  0.3481  0.4141  0.3482
18197SOL     OW59401   4.007   1.786  10.790 -0.3313  0.1726  0.6178
18197SOL    HW159402   3.984   1.798  10.882  0.3631  0.7083  0.7372
18197SOL    HW259403   4.014   1.692  10.778 -0.4049  0.1020  1.1248
18198SOL     OW59404  12.350   4.172  11.095  0.3701 -0.0647 -0.4809
18198SOL    HW159405  12.291   4.226  11.042 -0.2799  0.9749  1.2210
18198SOL    HW259406  12.400   4.122  11.031 -1.2862  0.1522 -2.0346
18199SOL     OW59407  12.188   6.604  12.139  0.8414  0.0595  0.3469
18199SOL    HW159408  12.141   6.610  12.056  0.8867  0.1015  0.3237
18199SOL    HW259409  12.140   6.663  12.198 -1.0718 -2.2223  1.2731
18200SOL     OW59410   5.261   8.100  11.967 -0.2403 -0.1547 -0.0913
18200SOL    HW159411   5.304   8.176  12.006 -1.6040  0.6896 -0.1757
18200SOL    HW259412   5.331   8.036  11.956  0.7397  0.6967  0.9534
18201SOL     OW59413   2.877   9.586   2.783  0.1920 -0.7288  0.0875
18201SOL    HW159414   2.953   9.641   2.802 -0.7326  0.8691 -0.6884
18201SOL    HW259415   2.906   9.529   2.712  0.2940  0.7798 -1.1280
18202SOL     OW59416   2.586  11.157   2.194 -0.0843  0.4475 -0.9328
18202SOL    HW159417   2.647  11.231   2.198  0.9284 -0.4057  0.9871
18202SOL    HW259418   2.643  11.080   2.192 -1.1214 -0.3364 -2.0574
18203SOL     OW59419   4.909   3.155   3.117 -0.2381 -0.2443  0.2923
18203SOL    HW159420   4.924   3.200   3.200  0.8689  1.0871 -0.5751
18203SOL    HW259421   4.875   3.223   3.059 -0.6294 -1.0645 -0.4629
18204SOL     OW59422   5.225   0.722   6.740 -0.2602  0.4589 -0.1566
18204SOL    HW159423   5.307   0.700   6.784  0.1941  2.0496 -0.1249
18204SOL    HW259424   5.212   0.815   6.759 -2.2050  0.2012  0.0238
18205SOL     OW59425   1.536   1.522   1.149  0.2859  0.8500 -0.1436
18205SOL    HW159426   1.444   1.543   1.166 -0.3882 -1.6869 -0.2330
18205SOL    HW259427   1.582   1.551   1.228 -0.9576  0.1822  0.8588
18206SOL     OW59428   5.795   7.718   8.975 -0.7353 -0.5185 -0.0201
18206SOL    HW159429   5.846   7.644   8.942  0.5152  1.0184 -1.6978
18206SOL    HW259430   5.845   7.752   9.049 -0.3933 -0.2641 -0.3699
18207SOL     OW59431   8.866   5.088   4.167 -0.3778  0.3078  0.4232
18207SOL    HW159432   8.800   5.147   4.203  0.2180  0.9311  0.5026
18207SOL    HW259433   8.930   5.078   4.237 -1.0087 -1.3040  0.8081
18208SOL     OW59434   9.738   3.640  10.136  0.5605  0.1858 -0.2403
18208SOL    HW159435   9.645   3.621  10.146  0.1754  1.5057 -1.0738
18208SOL    HW259436   9.774   3.560  10.097 -0.4801  0.1387 -1.1678
18209SOL     OW59437  12.648   7.962   2.692 -0.5192 -0.2600 -0.1910
18209SOL    HW159438  12.720   7.953   2.754 -1.0385 -2.1409  0.1939
18209SOL    HW259439  12.590   8.026   2.733  0.1779  0.1180  0.2241
18210SOL     OW59440   7.603   1.309   1.193 -0.0185 -0.2337 -0.0625
18210SOL    HW159441   7.674   1.261   1.234  0.6673  0.5030 -0.3644
18210SOL    HW259442   7.596   1.390   1.243  0.8747  0.7143 -1.3965
18211SOL     OW59443   9.029  11.079   9.798  0.0402  0.6062  0.4848
18211SOL    HW159444   9.024  11.174   9.789 -0.7905  0.5979  0.7246
18211SOL    HW259445   9.077  11.065   9.879  1.6233  0.7852 -0.3873
18212SOL     OW59446   6.104   7.423   8.353  0.0136 -0.4875 -0.0507
18212SOL    HW159447   6.023   7.428   8.403 -0.0432 -2.1155  0.0557
18212SOL    HW259448   6.173   7.413   8.419  0.1990 -0.1739 -0.1917
18213SOL     OW59449   6.406   3.334  11.765  0.0986 -0.2071  0.0220
18213SOL    HW159450   6.352   3.255  11.763 -0.3547  0.1151 -0.7638
18213SOL    HW259451   6.475   3.317  11.700  0.2985 -0.1601  0.2195
18214SOL     OW59452  10.658   0.518   3.024  0.0284 -0.5313  0.5308
18214SOL    HW159453  10.668   0.611   3.005 -2.5477 -0.6864 -2.4343
18214SOL    HW259454  10.563   0.504   3.028  0.3143 -3.0678  0.4767
18215SOL     OW59455  12.350   5.548   9.672 -0.1291  0.1884  0.5849
18215SOL    HW159456  12.303   5.488   9.730 -0.6606 -0.5059 -0.5492
18215SOL    HW259457  12.333   5.515   9.584 -0.2489  1.8753 -0.0520
18216SOL     OW59458   3.122   7.605   8.358 -0.1425  0.6718  0.3228
18216SOL    HW159459   3.050   7.544   8.342  0.2730  0.1976  0.2087
18216SOL    HW259460   3.184   7.554   8.411  1.0832  0.3386 -1.3344
18217SOL     OW59461   7.817   4.275   7.012 -0.4605 -0.3507 -0.6585
18217SOL    HW159462   7.736   4.303   7.053 -0.0996 -0.9131  0.4988
18217SOL    HW259463   7.791   4.241   6.926 -1.7854 -2.5633  0.5196
18218SOL     OW59464  12.299   6.392   0.533 -0.1999  0.0689 -0.7226
18218SOL    HW159465  12.284   6.299   0.550 -0.5107  0.1480 -0.5657
18218SOL    HW259466  12.239   6.438   0.592 -0.3173  0.3635 -1.0653
18219SOL     OW59467  12.140   7.401   2.273 -0.6428 -0.1073 -0.0945
18219SOL    HW159468  12.109   7.439   2.191  0.6838 -0.1503 -0.6444
18219SOL    HW259469  12.233   7.383   2.257 -0.2669  0.2443  1.5510
18220SOL     OW59470  11.857   2.175   3.291  0.1944 -0.5119 -0.1649
18220SOL    HW159471  11.770   2.150   3.322 -0.3193  0.2206 -0.9588
18220SOL    HW259472  11.880   2.108   3.227  0.1606 -0.6416 -0.0404
18221SOL     OW59473   2.527   3.351   9.275  0.3031  0.4015 -0.3240
18221SOL    HW159474   2.546   3.381   9.186  0.9442 -2.0944 -1.1180
18221SOL    HW259475   2.563   3.262   9.278 -1.3872 -0.2886  1.8308
18222SOL     OW59476   4.254   6.018   4.589  0.4086  0.2105 -0.5052
18222SOL    HW159477   4.239   5.966   4.511 -2.1976  0.4323 -0.2478
18222SOL    HW259478   4.232   6.108   4.563  0.6279  0.4716  0.1832
18223SOL     OW59479   7.563   6.689   4.900  0.0018  0.3656 -0.2320
18223SOL    HW159480   7.588   6.777   4.869  1.2648 -0.0126 -0.3657
18223SOL    HW259481   7.647   6.647   4.920 -0.5071 -1.1906 -1.2044
18224SOL     OW59482   8.753   5.511   6.451 -0.1591 -0.2643  0.1646
18224SOL    HW159483   8.716   5.429   6.416 -0.9807 -0.1657  0.7727
18224SOL    HW259484   8.690   5.538   6.518 -0.9487  1.9002 -1.3344
18225SOL     OW59485   6.511   4.339   4.134  0.1489  0.3849 -0.3160
18225SOL    HW159486   6.547   4.255   4.105  1.1452  0.4366  0.6906
18225SOL    HW259487   6.470   4.376   4.056  3.8286  1.1262 -2.1438
18226SOL     OW59488   6.111  10.678   3.950 -0.2896  0.2573 -0.2292
18226SOL    HW159489   6.202  10.651   3.935 -0.5306 -0.7514  0.0589
18226SOL    HW259490   6.101  10.758   3.899  0.9502  0.7407  0.2463
18227SOL     OW59491   1.009   8.710   2.622  0.1033  0.2119  0.4241
18227SOL    HW159492   1.010   8.665   2.538  1.8725  0.1005  0.4850
18227SOL    HW259493   0.965   8.649   2.681 -1.7138  0.5374 -0.5104
18228SOL     OW59494  10.603  10.082  11.784  0.0353  0.1576  0.8800
18228SOL    HW159495  10.688  10.126  11.788 -0.1796  0.4668  2.8147
18228SOL    HW259496  10.543  10.148  11.749  0.8528 -0.6082 -2.2632
18229SOL     OW59497   4.864   4.443   4.831 -0.3174 -0.1752  0.3212
18229SOL    HW159498   4.772   4.429   4.852 -0.8598  0.6295 -1.3389
18229SOL    HW259499   4.911   4.387   4.893 -1.9868 -1.9497  0.1081
18230SOL     OW59500   3.955   7.659   5.215  0.2011  0.5426  0.3747
18230SOL    HW159501   3.903   7.617   5.283  0.9841 -1.1899 -0.0283
18230SOL    HW259502   3.908   7.640   5.133 -0.8509  2.7937  0.3899
18231SOL     OW59503   8.778   4.849   2.920  0.2888  0.2179 -0.6483
18231SOL    HW159504   8.766   4.902   2.998  0.2465 -0.5985 -0.0902
18231SOL    HW259505   8.690   4.838   2.883  0.3417  0.8176 -0.9618
18232SOL     OW59506   4.229   6.547  10.974  0.0609 -0.3901  0.1854
18232SOL    HW159507   4.277   6.615  11.022  2.2040 -1.3997 -0.3892
18232SOL    HW259508   4.221   6.582  10.885 -0.2732 -0.2100  0.2875
18233SOL     OW59509   3.002   4.396   8.795 -0.1548 -0.6678 -0.5088
18233SOL    HW159510   3.069   4.460   8.821 -1.4379 -0.0188  1.3571
18233SOL    HW259511   3.038   4.311   8.823  0.0462 -0.3715  0.1400
18234SOL     OW59512   5.639   6.697   5.182 -0.5570 -0.4926 -0.3842
18234SOL    HW159513   5.569   6.740   5.133 -0.0438  1.3908  0.4403
18234SOL    HW259514   5.606   6.690   5.271  1.1392  2.8287  0.6643
18235SOL     OW59515   0.711   0.941   7.646 -0.2197 -0.4269 -0.5446
18235SOL    HW159516   0.773   0.873   7.670 -0.0421 -0.2405 -0.4693
18235SOL    HW259517   0.708   0.999   7.723  0.2907  0.1321 -0.9340
18236SOL     OW59518  11.042   8.194  10.154  0.0938  0.0986 -0.4447
18236SOL    HW159519  11.092   8.162  10.079 -0.2395  0.1974 -0.7107
18236SOL    HW259520  10.952   8.200  10.122 -0.2404 -0.8820  0.2810
18237SOL     OW59521   3.964   1.295   1.765  0.5929 -0.1560 -0.4520
18237SOL    HW159522   3.924   1.208   1.764 -0.9926  0.5292 -0.4780
18237SOL    HW259523   3.896   1.353   1.730  1.7742  1.0417 -0.8752
18238SOL     OW59524   9.626   6.429  12.492 -0.0307 -0.7058  0.4584
18238SOL    HW159525   9.634   6.501  12.555 -1.4501  0.3610 -0.5171
18238SOL    HW259526   9.715   6.414  12.461  0.1730  1.5037 -0.2091
18239SOL     OW59527   6.375   1.352   3.130  0.2655 -0.4026  0.8459
18239SOL    HW159528   6.404   1.363   3.040  2.2277  0.1204  1.5095
18239SOL    HW259529   6.308   1.419   3.142  0.8825  0.3526  0.1370
18240SOL     OW59530  10.274   5.419   3.634 -0.8760 -0.2171  0.0621
18240SOL    HW159531  10.279   5.402   3.540 -2.2417  2.0325 -0.4975
18240SOL    HW259532  10.194   5.375   3.662  0.1940 -1.9894  0.5131
18241SOL     OW59533   5.191   2.903   3.408 -0.3995 -0.9250  0.4946
18241SOL    HW159534   5.170   2.827   3.463 -2.0035 -2.3254 -1.8743
18241SOL    HW259535   5.254   2.869   3.344  0.3639  0.2962  0.5699
18242SOL     OW59536   6.472   3.001   1.337  0.3020 -0.5493 -0.1141
18242SOL    HW159537   6.506   3.086   1.311  0.1318 -0.3011  0.4629
18242SOL    HW259538   6.389   2.993   1.290  0.5302 -0.5891 -0.5106
18243SOL     OW59539   3.853   1.969   6.721 -0.2118  0.3428 -0.3378
18243SOL    HW159540   3.796   2.028   6.769 -1.0421 -1.0059  0.4107
18243SOL    HW259541   3.895   1.915   6.788 -0.1379 -0.4824 -1.0203
18244SOL     OW59542   9.250   2.204   2.543 -0.1175 -0.1303 -0.4306
18244SOL    HW159543   9.333   2.252   2.539 -0.5783  0.6607 -0.7750
18244SOL    HW259544   9.276   2.112   2.554  0.7800  0.2634  1.0641
18245SOL     OW59545   1.450   9.322   9.873 -0.1912 -0.0516 -0.1706
18245SOL    HW159546   1.461   9.256   9.805  0.8205 -0.1332  0.0523
18245SOL    HW259547   1.371   9.297   9.920 -1.1702  0.2594 -1.5921
18246SOL     OW59548   8.413   3.759   5.490 -0.0615  0.6900  0.0132
18246SOL    HW159549   8.349   3.823   5.458 -0.8208  0.9745  1.9603
18246SOL    HW259550   8.405   3.763   5.585  1.0451 -1.1438  0.2287
18247SOL     OW59551   2.787   5.761  12.077  0.0243 -0.2221  0.8104
18247SOL    HW159552   2.866   5.782  12.028 -0.6564  0.1410 -0.1744
18247SOL    HW259553   2.774   5.836  12.135 -0.4508  0.4814 -0.1661
18248SOL     OW59554  11.929   9.737   4.144  0.4978  0.1074 -0.6335
18248SOL    HW159555  11.886   9.769   4.065 -0.7610 -0.1047 -0.0592
18248SOL    HW259556  11.866   9.754   4.214  1.8832  0.9553  0.4506
18249SOL     OW59557   9.782  10.253  10.632  0.6780 -0.5968  0.3478
18249SOL    HW159558   9.769  10.222  10.543 -0.0370 -0.6124  0.4437
18249SOL    HW259559   9.834  10.184  10.674  0.2382 -1.0349  0.1893
18250SOL     OW59560   2.779   1.583   5.830 -0.0754 -0.0155 -0.1471
18250SOL    HW159561   2.779   1.499   5.785 -0.0190 -0.5413  0.8017
18250SOL    HW259562   2.694   1.622   5.809  0.2718  0.1414 -1.3667
18251SOL     OW59563   7.334   8.544   4.454 -0.2600 -0.1989 -0.3079
18251SOL    HW159564   7.313   8.616   4.395 -0.7039  0.4022  0.5644
18251SOL    HW259565   7.354   8.470   4.396 -1.3412  0.1909 -1.2029
18252SOL     OW59566  10.365   0.806   3.500  0.1657  0.3313 -0.3837
18252SOL    HW159567  10.402   0.891   3.476  2.4570 -0.5318 -0.1469
18252SOL    HW259568  10.275   0.826   3.526  1.2956  3.1082  2.0306
18253SOL     OW59569   9.243   7.961  11.953  0.1892 -0.9403 -0.0241
18253SOL    HW159570   9.294   8.027  12.001 -1.6195  0.8999 -0.4754
18253SOL    HW259571   9.199   7.911  12.021 -0.7723  0.3371  0.3457
18254SOL     OW59572   5.622   0.709   1.868 -0.2218  0.3030  0.3251
18254SOL    HW159573   5.654   0.796   1.843  0.6195  0.0711  0.5799
18254SOL    HW259574   5.657   0.650   1.801  1.4627 -0.2210  1.6020
18255SOL     OW59575   6.997   0.166   4.450 -0.9831 -0.0109 -0.4439
18255SOL    HW159576   6.985   0.169   4.355 -0.8138  0.2364 -0.4572
18255SOL    HW259577   7.085   0.201   4.465 -1.1135  0.2131 -0.1735
18256SOL     OW59578   3.265   4.506   8.848  0.1355  0.3207 -0.4464
18256SOL    HW159579   3.300   4.476   8.932  0.1385  1.9830  0.1721
18256SOL    HW259580   3.338   4.495   8.786 -0.3025 -2.2647 -0.6046
18257SOL     OW59581  10.378   3.837   7.652 -0.6691 -0.0385  0.5187
18257SOL    HW159582  10.392   3.745   7.628 -1.2269 -0.2250  0.8749
18257SOL    HW259583  10.458   3.881   7.625 -1.2962 -0.1985 -1.7879
18258SOL     OW59584   9.924  10.166   8.695  0.4033 -0.1933 -0.3229
18258SOL    HW159585   9.961  10.109   8.628  1.1980  2.1170 -1.9526
18258SOL    HW259586   9.983  10.241   8.698 -0.9420  0.8748  1.2955
18259SOL     OW59587   8.522   1.472   6.903  0.6148 -0.4341  0.1431
18259SOL    HW159588   8.529   1.567   6.899 -1.6422  0.0017  2.8969
18259SOL    HW259589   8.439   1.452   6.860  1.0571 -1.1898 -0.3863
18260SOL     OW59590   2.942   4.808  11.057  0.5890 -0.4325 -0.5573
18260SOL    HW159591   2.913   4.874  11.120 -1.0296  0.0621 -1.7356
18260SOL    HW259592   2.980   4.859  10.986  3.3038 -1.0247  0.3524
18261SOL     OW59593   2.647  11.051   1.552  0.8960 -0.3380  0.1184
18261SOL    HW159594   2.676  11.096   1.632 -2.0184 -0.7421  1.5581
18261SOL    HW259595   2.621  11.122   1.493  2.0445 -0.0639 -0.0905
18262SOL     OW59596   4.518   9.759  11.459  0.2528 -0.1669 -0.7741
18262SOL    HW159597   4.556   9.753  11.371  2.0563  0.0117 -0.0306
18262SOL    HW259598   4.510   9.853  11.475 -0.5926 -0.1979 -0.9302
18263SOL     OW59599   9.960   5.384   5.645 -0.2057 -0.0623 -0.0520
18263SOL    HW159600   9.899   5.427   5.585 -0.7487  1.1350  1.2994
18263SOL    HW259601  10.044   5.387   5.599 -0.2729  2.2419 -0.1420
18264SOL     OW59602   1.271   9.564   2.199  0.1184  0.1859  0.2868
18264SOL    HW159603   1.203   9.599   2.141  0.2238  0.2306  0.1906
18264SOL    HW259604   1.241   9.475   2.220  0.0066  0.2224  0.2815
18265SOL     OW59605   7.443   5.976   9.836 -0.3849 -0.3318 -0.2635
18265SOL    HW159606   7.445   5.895   9.784 -1.6972 -1.5205  1.3865
18265SOL    HW259607   7.360   6.017   9.813 -0.1754  0.0281 -0.3741
18266SOL     OW59608   3.665   5.010   4.467 -0.5946  0.4336  0.1244
18266SOL    HW159609   3.619   4.928   4.484  0.2881 -0.6349 -2.1880
18266SOL    HW259610   3.754   4.994   4.495 -0.6427  0.9683  0.5934
18267SOL     OW59611   7.944   6.338   3.691 -0.2121 -0.4185  0.8791
18267SOL    HW159612   7.876   6.337   3.624  0.7864  1.3375 -0.2371
18267SOL    HW259613   7.940   6.251   3.731 -1.1553 -1.3620 -1.1334
18268SOL     OW59614   8.038   1.549   1.255 -0.3064 -0.3733  0.5623
18268SOL    HW159615   7.970   1.588   1.200  1.6959 -0.1619 -1.9358
18268SOL    HW259616   8.089   1.623   1.287  1.0427 -0.6609 -0.8175
18269SOL     OW59617   0.389   5.971  11.649  0.6806  0.1011 -0.7894
18269SOL    HW159618   0.330   6.040  11.619  0.6415  1.4159  1.9604
18269SOL    HW259619   0.331   5.902  11.683  0.6715  0.7255  0.5218
18270SOL     OW59620  10.950  10.076  12.115  0.5146 -0.4993 -0.1647
18270SOL    HW159621  10.934   9.994  12.161  1.3987  0.7865  2.6544
18270SOL    HW259622  10.868  10.094  12.069  0.2000 -2.7544 -0.6230
18271SOL     OW59623   5.356   4.862   7.115  0.4345  0.1863 -0.5349
18271SOL    HW159624   5.423   4.917   7.075  0.6652  0.1821 -0.1666
18271SOL    HW259625   5.390   4.844   7.203  0.5576 -0.8997 -0.7939
18272SOL     OW59626   0.755   7.830   7.489  0.6422 -0.0439  0.2018
18272SOL    HW159627   0.707   7.798   7.566 -0.5380  1.2986  0.0702
18272SOL    HW259628   0.739   7.765   7.421  0.0320 -0.2468  0.5337
18273SOL     OW59629   8.390   6.553  10.815 -0.0002  0.7761  0.4182
18273SOL    HW159630   8.393   6.599  10.731 -0.9968  0.8691  0.4176
18273SOL    HW259631   8.314   6.496  10.807  0.5581 -0.0462  0.8454
18274SOL     OW59632   9.894   1.627  12.485 -0.0299  0.8157 -0.3356
18274SOL    HW159633   9.896   1.583  12.400 -0.1774  0.2590 -0.0524
18274SOL    HW259634   9.816   1.593  12.529  0.1151  1.0038  0.0763
18275SOL     OW59635   6.026   1.534   5.017  0.3357  0.0570 -0.2035
18275SOL    HW159636   6.022   1.601   4.949 -1.3966  0.5464  0.3245
18275SOL    HW259637   6.015   1.583   5.099  0.7423 -0.7018  0.3120
18276SOL     OW59638   1.415   7.291   2.601 -0.8561 -1.0527 -0.6514
18276SOL    HW159639   1.423   7.305   2.506  0.4579 -1.0800 -0.5502
18276SOL    HW259640   1.412   7.196   2.612 -0.7844 -1.0541 -0.6466
18277SOL     OW59641   0.261   4.902   0.401 -0.0408 -0.2778  0.5047
18277SOL    HW159642   0.252   4.811   0.427 -1.1763 -0.9693 -1.9885
18277SOL    HW259643   0.296   4.898   0.312 -1.9894  1.6064 -0.4425
18278SOL     OW59644   2.129  10.579   6.475 -0.2317 -0.3965  0.5842
18278SOL    HW159645   2.099  10.566   6.386  0.3798 -1.6626  0.5418
18278SOL    HW259646   2.211  10.627   6.467  0.3745 -1.4262  0.3702
18279SOL     OW59647   8.364   1.257   0.621  0.1785  0.9006 -0.7559
18279SOL    HW159648   8.334   1.217   0.539 -2.6847 -0.0054  0.6149
18279SOL    HW259649   8.459   1.244   0.620  0.3925  1.6434 -4.2515
18280SOL     OW59650   3.744   7.984   8.240 -0.2159 -0.1691 -0.1809
18280SOL    HW159651   3.799   7.954   8.167 -0.5373 -0.6399 -0.2336
18280SOL    HW259652   3.792   7.958   8.318 -0.6780 -1.2081 -0.2214
18281SOL     OW59653  11.197   5.965  12.169  0.1236  0.3804 -0.5306
18281SOL    HW159654  11.135   6.026  12.129 -2.1629 -1.1843  0.4284
18281SOL    HW259655  11.151   5.930  12.245  1.5675 -2.0154 -0.6558
18282SOL     OW59656   3.452   0.135   8.898 -0.5418 -0.1776 -0.0553
18282SOL    HW159657   3.437   0.175   8.983 -0.2618  0.7208 -0.4140
18282SOL    HW259658   3.394   0.058   8.896 -1.8412  0.7706  0.2560
18283SOL     OW59659   3.938   5.802   4.432  0.3508  0.1369  0.2773
18283SOL    HW159660   3.882   5.725   4.421  1.3329 -0.8676  1.8477
18283SOL    HW259661   3.878   5.876   4.427 -0.7733 -0.7753 -0.2951
18284SOL     OW59662   2.114   1.495   5.391  0.3831  0.3800 -0.7532
18284SOL    HW159663   2.020   1.513   5.390  0.4872  1.1512 -3.1524
18284SOL    HW259664   2.120   1.400   5.389 -0.3437  0.3188 -0.3279
18285SOL     OW59665   8.129   7.488   3.725 -0.2650  0.0351  0.1721
18285SOL    HW159666   8.161   7.458   3.639 -0.4863 -0.0959  0.1349
18285SOL    HW259667   8.049   7.537   3.705 -0.7074 -0.5996  0.3668
18286SOL     OW59668   7.212   3.859   4.041  0.4452 -0.0993 -0.0473
18286SOL    HW159669   7.196   3.927   3.975 -1.5625 -0.1718  0.3189
18286SOL    HW259670   7.224   3.908   4.123  1.0935 -0.1039 -0.1330
18287SOL     OW59671   2.886   7.365   3.392  0.1352  0.0205 -0.8244
18287SOL    HW159672   2.976   7.394   3.376 -0.4538  2.0169 -0.7986
18287SOL    HW259673   2.857   7.331   3.307 -0.3221  3.0650 -2.0099
18288SOL     OW59674   4.003  12.253   7.544  0.3423 -0.2162 -0.5562
18288SOL    HW159675   4.076  12.271   7.603  0.8765 -0.4275 -1.1508
18288SOL    HW259676   4.030  12.291   7.460 -0.3260 -0.0978 -0.7251
18289SOL     OW59677  11.331   1.584   2.692  0.0784  0.1605  0.7628
18289SOL    HW159678  11.304   1.672   2.666  0.7315  0.7711  2.0430
18289SOL    HW259679  11.258   1.527   2.666 -0.0644  0.9691 -0.6806
18290SOL     OW59680   7.452   4.096   2.127 -0.1257 -0.1485  0.2507
18290SOL    HW159681   7.357   4.093   2.138 -0.0806 -1.6344  0.5054
18290SOL    HW259682   7.479   4.177   2.169 -1.2063 -0.0549  0.7932
18291SOL     OW59683  11.666   1.618   5.073 -0.2212 -0.4543 -0.3754
18291SOL    HW159684  11.630   1.701   5.103 -3.1033 -0.4728 -3.2281
18291SOL    HW259685  11.642   1.555   5.141 -0.0489  0.6244  0.7175
18292SOL     OW59686   9.909  12.177   6.439 -0.0651  0.9705  0.3767
18292SOL    HW159687   9.821  12.142   6.424 -0.0176  0.2102  1.7164
18292SOL    HW259688   9.922  12.240   6.368 -1.8363  1.3713  0.3487
18293SOL     OW59689   0.615   1.582  12.533  0.2677 -0.4615  0.2532
18293SOL    HW159690   0.620   1.488  12.549  1.6272 -0.1665  1.8719
18293SOL    HW259691   0.683   1.598  12.468 -0.0280 -0.5972 -0.0941
18294SOL     OW59692   5.064   7.954   4.730 -0.7855  0.0539  0.3014
18294SOL    HW159693   5.123   7.917   4.664 -0.4858  0.7285  0.1826
18294SOL    HW259694   5.120   7.975   4.804 -1.0306 -0.1540  0.5515
18295SOL     OW59695  11.794   5.087  10.575  0.2007 -0.2383  0.3780
18295SOL    HW159696  11.775   5.154  10.509  1.6048  0.4127  0.5927
18295SOL    HW259697  11.738   5.013  10.551 -0.2809  0.4594 -0.7555
18296SOL     OW59698  11.090   9.690   4.656 -0.4288  1.1277  0.3178
18296SOL    HW159699  11.052   9.717   4.740  0.1423  2.2677  0.2397
18296SOL    HW259700  11.031   9.729   4.591 -0.1729  1.3254  0.2019
18297SOL     OW59701  11.101  10.783   3.649 -0.1210 -0.0044 -0.5058
18297SOL    HW159702  11.109  10.853   3.584  1.6975  0.2134 -0.1238
18297SOL    HW259703  11.171  10.722   3.626  0.7532  0.2138  1.3731
18298SOL     OW59704   8.756   4.806   2.280  0.1755  0.0845  0.2345
18298SOL    HW159705   8.706   4.793   2.199 -0.2584 -1.2822  0.6965
18298SOL    HW259706   8.733   4.732   2.335 -0.6511  1.6927  2.2123
18299SOL     OW59707  10.898   6.534  10.313  0.6724  0.5425  0.1640
18299SOL    HW159708  10.925   6.534  10.404  0.1379  3.9636  0.4533
18299SOL    HW259709  10.814   6.488  10.313  1.1115 -0.3091  1.1806
18300SOL     OW59710   4.560   4.257   4.457  0.5583 -0.2362 -0.4626
18300SOL    HW159711   4.502   4.296   4.392 -0.2883 -1.8614 -0.7486
18300SOL    HW259712   4.506   4.245   4.535  1.7176  2.2570  0.8544
18301SOL     OW59713   7.612  11.167   4.986  0.1138  0.3523  0.4002
18301SOL    HW159714   7.590  11.260   4.993  1.7440  0.6127  3.9959
18301SOL    HW259715   7.706  11.167   4.964  0.6117 -0.3283  2.3535
18302SOL     OW59716   2.690   6.652   5.757 -0.1451  0.0450 -0.1921
18302SOL    HW159717   2.743   6.662   5.836 -0.9356 -0.6754  0.4438
18302SOL    HW259718   2.723   6.572   5.716 -0.4202 -0.1485 -0.0401
18303SOL     OW59719   0.735   2.782   2.871 -0.2541  0.4736 -1.0898
18303SOL    HW159720   0.666   2.745   2.925  0.3403  1.6534  0.5513
18303SOL    HW259721   0.703   2.869   2.848  0.0929  0.4911 -1.5178
18304SOL     OW59722  11.618   7.828   6.901  0.1807  0.2353 -0.3066
18304SOL    HW159723  11.635   7.922   6.909  0.2898  0.5427 -3.2417
18304SOL    HW259724  11.534   7.822   6.857 -0.3362 -1.1112  0.7724
18305SOL     OW59725   8.875   7.632  10.003  0.0624  0.3169 -0.1629
18305SOL    HW159726   8.890   7.626  10.097 -0.8545  0.3567 -0.0009
18305SOL    HW259727   8.780   7.624   9.994  0.3137 -2.6508 -1.2951
18306SOL     OW59728   2.279   8.543   7.561  0.4891  0.4188 -0.8201
18306SOL    HW159729   2.288   8.451   7.533  3.0487  0.7674 -1.3641
18306SOL    HW259730   2.309   8.543   7.652  0.3284  0.7135 -0.7666
18307SOL     OW59731   5.701   4.227   5.400 -0.0401 -0.6879 -0.1928
18307SOL    HW159732   5.620   4.200   5.358  0.2338  1.3562 -2.2754
18307SOL    HW259733   5.750   4.271   5.331  2.2560 -0.6505  1.3499
18308SOL     OW59734   6.399   0.821   1.015  0.0737 -0.1148  0.3073
18308SOL    HW159735   6.344   0.790   0.942  1.2507 -1.3512 -0.0912
18308SOL    HW259736   6.336   0.856   1.079 -1.0321  0.4334 -1.0058
18309SOL     OW59737  10.865  10.835   8.895  0.4767  0.0489 -0.3746
18309SOL    HW159738  10.864  10.857   8.802 -0.3641  3.0527  0.2337
18309SOL    HW259739  10.775  10.849   8.924  0.7344 -0.7808  0.9225
18310SOL     OW59740   7.568   6.989   8.706 -0.0417  0.7429  0.1987
18310SOL    HW159741   7.642   7.048   8.695  0.6002  0.2634  1.6877
18310SOL    HW259742   7.558   6.981   8.801 -0.0932 -1.5220  0.0566
18311SOL     OW59743  10.260   7.371   7.445 -0.1136 -0.0822  0.1417
18311SOL    HW159744  10.270   7.276   7.453  1.5386  0.1012  0.5849
18311SOL    HW259745  10.231   7.384   7.354  0.6377 -0.9615 -0.2483
18312SOL     OW59746   7.801  11.461   3.290 -0.2405  0.3318 -0.2117
18312SOL    HW159747   7.877  11.415   3.253  0.0290  0.5257  0.0890
18312SOL    HW259748   7.815  11.458   3.384 -0.2469  0.9742 -0.1853
18313SOL     OW59749   1.561   5.751   8.536  0.8970 -0.1206 -0.3508
18313SOL    HW159750   1.631   5.779   8.596 -0.2299  0.5505  0.6934
18313SOL    HW259751   1.481   5.757   8.588 -0.0054 -0.4542 -1.6560
18314SOL     OW59752   7.014   2.835   5.603 -0.1168  0.0835 -0.2333
18314SOL    HW159753   7.029   2.743   5.580  0.1460  0.0568  0.0452
18314SOL    HW259754   6.975   2.832   5.690 -1.9350  0.1396 -0.9784
18315SOL     OW59755   5.831  10.959   7.767 -0.3788  0.3388  0.5170
18315SOL    HW159756   5.810  11.010   7.689 -1.8995 -0.6305  0.2569
18315SOL    HW259757   5.799  11.013   7.840  1.6695  1.5685  0.5867
18316SOL     OW59758   1.282   7.206  11.086  0.0075 -0.3639 -0.3127
18316SOL    HW159759   1.189   7.189  11.075  0.0394 -1.5302  0.8475
18316SOL    HW259760   1.324   7.121  11.067  0.7471 -0.0829  0.0188
18317SOL     OW59761   8.930   7.422  11.826 -0.2540 -0.5361 -0.0295
18317SOL    HW159762   8.981   7.431  11.746 -1.0533  2.4546 -0.3250
18317SOL    HW259763   8.991   7.444  11.897 -0.1960 -0.6193 -0.0537
18318SOL     OW59764   3.863   5.319   7.895  0.0894  0.0472 -0.0831
18318SOL    HW159765   3.901   5.321   7.807 -0.3260  1.7565 -0.2722
18318SOL    HW259766   3.867   5.411   7.924 -0.5117 -0.3614  1.3644
18319SOL     OW59767   9.860  11.240  10.246 -0.4732 -0.1270  0.2092
18319SOL    HW159768   9.857  11.334  10.264 -2.3901 -0.1130  0.0815
18319SOL    HW259769   9.937  11.208  10.292 -0.5305  1.2936  1.3520
18320SOL     OW59770   2.822   2.846   6.078 -0.1563  0.4054  0.2964
18320SOL    HW159771   2.795   2.898   6.002 -1.5375 -0.4956  0.1241
18320SOL    HW259772   2.864   2.909   6.137  0.7529  1.1566 -1.1138
18321SOL     OW59773   4.725   5.039   1.859  0.6855  0.1322  0.2171
18321SOL    HW159774   4.790   5.077   1.919  1.5388 -1.4218  0.3297
18321SOL    HW259775   4.651   5.015   1.914  1.1673 -0.6107  0.5597
18322SOL     OW59776   7.095   1.003   7.578 -0.2093  0.0303  0.3439
18322SOL    HW159777   7.092   0.908   7.571 -0.6696  0.1177 -0.9225
18322SOL    HW259778   7.036   1.024   7.651 -0.9410 -0.5965 -0.0573
18323SOL     OW59779  10.343   6.115   6.716  0.0585  0.8467 -0.3771
18323SOL    HW159780  10.424   6.143   6.673 -1.3842  1.5698 -2.7949
18323SOL    HW259781  10.274   6.136   6.653 -1.9096 -0.9247  1.0681
18324SOL     OW59782   7.939   2.686   5.506 -0.2238  0.0525 -0.1987
18324SOL    HW159783   7.925   2.611   5.450  0.5700 -1.2554  1.2728
18324SOL    HW259784   8.034   2.695   5.513 -0.2900 -0.0160  1.1470
18325SOL     OW59785   9.145   7.105   4.248 -0.1653 -0.2341 -0.6449
18325SOL    HW159786   9.088   7.182   4.258  0.2242 -0.1038  0.9434
18325SOL    HW259787   9.228   7.131   4.287 -0.0870 -1.5111  0.1123
18326SOL     OW59788   2.384   3.480   3.917 -0.0537  0.0965 -0.6019
18326SOL    HW159789   2.325   3.548   3.950  0.0942 -0.0933  0.0702
18326SOL    HW259790   2.344   3.398   3.946  0.2253 -0.0587 -0.6542
18327SOL     OW59791   0.375   0.123   2.613  0.7273 -0.4247 -0.3860
18327SOL    HW159792   0.398   0.208   2.652  0.5293 -1.5391  2.3369
18327SOL    HW259793   0.314   0.145   2.543 -3.3804  1.5266  3.3429
18328SOL     OW59794   1.012   2.812   3.309  0.0059 -0.8423 -0.7702
18328SOL    HW159795   0.991   2.803   3.216 -0.5079 -1.9007 -0.5654
18328SOL    HW259796   1.104   2.837   3.311 -0.2865  0.3582 -1.5859
18329SOL     OW59797  11.436   9.472  11.992 -0.2951 -0.1608 -0.0275
18329SOL    HW159798  11.421   9.459  11.898  0.9934 -0.2812 -0.2411
18329SOL    HW259799  11.426   9.566  12.005 -1.5130 -0.2691 -0.0688
18330SOL     OW59800   8.000   6.045   4.780  0.2725  0.3053 -0.2913
18330SOL    HW159801   7.949   6.056   4.861 -0.2925  0.0936 -0.6120
18330SOL    HW259802   8.089   6.072   4.804  0.7370 -2.1372  1.1037
18331SOL     OW59803  10.711   1.374   4.721 -0.0707  0.4157  0.2060
18331SOL    HW159804  10.769   1.444   4.751  2.5917 -1.5380 -0.0067
18331SOL    HW259805  10.724   1.304   4.785  0.4509 -1.3111 -1.7089
18332SOL     OW59806   1.139   9.015   3.399  0.3637  0.3978  0.2322
18332SOL    HW159807   1.104   9.099   3.430  0.9420  0.2090  1.4751
18332SOL    HW259808   1.069   8.952   3.419 -0.1359  0.5879 -0.8468
18333SOL     OW59809   8.377  11.901  11.022 -0.1501 -0.0639 -0.0201
18333SOL    HW159810   8.338  11.907  11.109  0.7421  0.1676  0.3761
18333SOL    HW259811   8.323  11.837  10.975  0.7388 -1.9826  1.4549
18334SOL     OW59812   7.463   0.087   6.458  0.1970  0.0809 -0.3787
18334SOL    HW159813   7.538   0.028   6.451  0.2489  0.1517 -0.4236
18334SOL    HW259814   7.439   0.105   6.367  1.6058  1.9377 -0.4621
18335SOL     OW59815   3.526   0.604  10.620 -0.0074 -0.0084  0.3209
18335SOL    HW159816   3.535   0.686  10.572 -1.0939 -0.2739 -0.3670
18335SOL    HW259817   3.587   0.613  10.693 -0.1299  1.4275  0.2826
18336SOL     OW59818   5.706   4.712   4.813 -0.1308  0.4348 -0.3212
18336SOL    HW159819   5.787   4.710   4.761 -1.5473 -1.6392 -2.6493
18336SOL    HW259820   5.694   4.622   4.841 -1.6546  0.7208  0.0042
18337SOL     OW59821   7.115   3.301  11.524 -0.7106 -0.1015 -0.0880
18337SOL    HW159822   7.084   3.376  11.473 -2.5080 -0.3897  0.4973
18337SOL    HW259823   7.152   3.340  11.604 -0.2725  0.2222 -0.4476
18338SOL     OW59824   9.264  11.089   7.648  0.2683 -0.2300  0.0368
18338SOL    HW159825   9.179  11.069   7.608 -0.1557 -1.9430  1.6462
18338SOL    HW259826   9.241  11.134   7.730  1.0510  1.5556 -0.6712
18339SOL     OW59827   5.444   7.361  10.000 -0.2811 -0.3315  0.1658
18339SOL    HW159828   5.462   7.350   9.906  2.3524 -1.7311  0.7333
18339SOL    HW259829   5.507   7.427  10.029  0.4884 -1.5186  1.3120
18340SOL     OW59830   0.678  12.292  10.898  0.2330 -0.1241  0.0204
18340SOL    HW159831   0.703  12.237  10.972  0.9702 -0.5081 -0.5011
18340SOL    HW259832   0.596  12.254  10.866  0.0931 -0.1649  0.4184
18341SOL     OW59833   5.713   1.780   3.044  0.5694  0.3191  0.7291
18341SOL    HW159834   5.781   1.817   3.101  2.1463 -0.6581 -0.4182
18341SOL    HW259835   5.758   1.711   2.995 -0.9039  0.6021 -1.1454
18342SOL     OW59836   9.186   0.358   4.918 -0.2594 -0.0468 -0.1904
18342SOL    HW159837   9.170   0.450   4.899  0.0351  0.0951  0.2226
18342SOL    HW259838   9.103   0.315   4.898 -1.2345  0.6763  1.8977
18343SOL     OW59839   6.019   7.251   2.692 -0.1964  0.1546 -0.6443
18343SOL    HW159840   5.969   7.330   2.709 -0.0796  0.4484 -1.6367
18343SOL    HW259841   5.994   7.191   2.762  0.6452  1.4873  0.8665
18344SOL     OW59842  10.920  11.888   3.130  0.4296 -0.0441  0.6001
18344SOL    HW159843  10.984  11.899   3.060  0.4790 -0.2061  0.6196
18344SOL    HW259844  10.892  11.797   3.123  2.3320 -0.8523  2.4035
18345SOL     OW59845   0.161   1.173   3.480  0.0064 -0.4251 -0.1394
18345SOL    HW159846   0.211   1.208   3.406 -0.2038  0.5685  0.1735
18345SOL    HW259847   0.194   1.222   3.556 -0.6755 -0.5291  0.2267
18346SOL     OW59848   4.635   5.103   1.610  0.0336 -0.4568  0.4247
18346SOL    HW159849   4.566   5.153   1.652 -0.0350  0.1743 -0.4028
18346SOL    HW259850   4.695   5.080   1.681 -0.9289 -0.8768  1.1247
18347SOL     OW59851   6.457  11.471   5.602 -0.1278  0.1054 -0.3612
18347SOL    HW159852   6.407  11.551   5.619 -0.3529  0.2785 -1.7731
18347SOL    HW259853   6.547  11.494   5.629 -0.5119  0.2422  0.8731
18348SOL     OW59854  12.333   3.005   6.434  0.1937 -0.0678  0.0569
18348SOL    HW159855  12.248   3.008   6.389  1.0082 -1.0858 -1.6321
18348SOL    HW259856  12.325   2.931   6.495  0.1226 -0.6555 -0.6597
18349SOL     OW59857   6.924   9.075  10.832  0.2907 -0.3289 -0.0394
18349SOL    HW159858   6.905   8.985  10.860  0.0753 -0.2430  0.0966
18349SOL    HW259859   7.017   9.073  10.808 -0.0065 -0.8853 -1.2326
18350SOL     OW59860   2.784   6.388   9.355 -0.5635 -0.1906  0.4352
18350SOL    HW159861   2.766   6.356   9.267 -1.0659 -1.3651  0.9404
18350SOL    HW259862   2.873   6.358   9.374 -0.2998  0.4196  0.1812
18351SOL     OW59863   1.017  12.599   1.703  0.2586 -0.6240 -0.0276
18351SOL    HW159864   0.999  12.631   1.792  0.0604  1.0052 -0.6166
18351SOL    HW259865   1.107  12.628   1.686  0.7026 -1.9098  0.0295
18352SOL     OW59866   6.650   9.005  11.308  0.0883  0.5602 -0.4676
18352SOL    HW159867   6.649   9.058  11.228  1.5554 -1.3875 -1.8809
18352SOL    HW259868   6.602   8.925  11.284  2.0105 -0.7919 -0.0192
18353SOL     OW59869   0.486  10.076   9.578 -0.0580  0.3920 -0.2850
18353SOL    HW159870   0.497  10.034   9.663 -1.0580  0.5377 -0.0705
18353SOL    HW259871   0.559  10.137   9.571  0.4427 -0.1465  0.1434
18354SOL     OW59872   3.227   4.959  10.144  0.0215 -0.5599 -0.1849
18354SOL    HW159873   3.239   4.870  10.113  1.3431 -0.6252  0.4312
18354SOL    HW259874   3.292   4.968  10.214  0.2435  1.0391 -0.5670
18355SOL     OW59875   4.040   9.629   6.798  0.4811  0.0929  0.0233
18355SOL    HW159876   4.038   9.567   6.725 -0.5905 -0.8637  0.8481
18355SOL    HW259877   3.980   9.699   6.772 -2.2388 -1.6678  1.1648
18356SOL     OW59878   1.099   8.477   5.536  0.4204 -0.5186 -0.1253
18356SOL    HW159879   1.092   8.532   5.614 -0.8163 -0.2217 -0.4245
18356SOL    HW259880   1.070   8.391   5.564  2.2774 -1.0492  0.3212
18357SOL     OW59881   5.044   7.736  12.080  0.0327  0.3172 -0.1341
18357SOL    HW159882   4.989   7.670  12.122  1.5187 -1.2652 -0.5455
18357SOL    HW259883   5.112   7.755  12.145  0.6866  0.0099 -0.7157
18358SOL     OW59884   4.235  11.492   2.995  0.1058 -0.2885  0.2677
18358SOL    HW159885   4.162  11.460   2.942  1.0261 -1.4721 -0.3197
18358SOL    HW259886   4.197  11.565   3.044 -1.2141 -0.2213 -0.7609
18359SOL     OW59887  12.561   6.803   7.790  0.2342  0.0514  0.7232
18359SOL    HW159888  12.615   6.832   7.864 -0.4500  0.3026  1.1367
18359SOL    HW259889  12.560   6.877   7.730  0.7847 -0.1495  0.4569
18360SOL     OW59890   1.526   1.646   4.664  0.1608 -0.0056  0.0608
18360SOL    HW159891   1.586   1.577   4.692  0.2608 -0.0367 -0.2267
18360SOL    HW259892   1.453   1.599   4.624 -0.8267 -0.0517  1.8253
18361SOL     OW59893  10.438   0.271   9.696  0.2041 -0.5784  0.1648
18361SOL    HW159894  10.507   0.254   9.760  1.5215  1.0237 -0.7232
18361SOL    HW259895  10.359   0.232   9.734  0.9867  0.0207  2.5927
18362SOL     OW59896   9.929   3.815   3.969  0.3154 -0.4630 -0.0827
18362SOL    HW159897   9.962   3.883   3.910 -0.3046 -1.6379 -1.8232
18362SOL    HW259898   9.834   3.819   3.959  0.1858 -0.5483  1.0154
18363SOL     OW59899   6.436  10.433  11.992  0.8247  0.5796  0.3178
18363SOL    HW159900   6.439  10.519  12.033 -1.7165  1.3197 -0.7743
18363SOL    HW259901   6.477  10.446  11.906  2.0063  0.2299  0.8215
18364SOL     OW59902   4.055   0.865   6.130 -0.2716 -0.1945  0.2215
18364SOL    HW159903   4.111   0.940   6.153  0.6063 -1.0802  1.0600
18364SOL    HW259904   4.056   0.863   6.035 -0.8357  1.2368  0.1473
18365SOL     OW59905   0.262   7.371   2.904  0.1271  0.5456 -0.4169
18365SOL    HW159906   0.312   7.295   2.876 -1.0738  0.1647 -1.6638
18365SOL    HW259907   0.265   7.430   2.829  0.1779  1.2734  0.1538
18366SOL     OW59908   8.160   1.896  11.901  0.0608  0.2877  0.0971
18366SOL    HW159909   8.111   1.813  11.900 -0.4419  0.5362  1.9064
18366SOL    HW259910   8.244   1.874  11.939 -0.7286  0.8915  2.3524
18367SOL     OW59911   6.872   1.876   1.546  0.1685  0.2253  0.3696
18367SOL    HW159912   6.780   1.902   1.556  0.4565  1.7048 -0.5312
18367SOL    HW259913   6.875   1.835   1.460  0.4745  0.8265  0.0883
18368SOL     OW59914  11.323   7.155   0.192  0.3945 -0.2952  0.0523
18368SOL    HW159915  11.263   7.228   0.179 -0.4446 -1.0083 -0.1906
18368SOL    HW259916  11.323   7.140   0.287 -0.4057 -0.7589 -0.0079
18369SOL     OW59917   2.660  12.599   5.510 -0.3826  0.4137  0.4851
18369SOL    HW159918   2.753  12.603   5.531  0.2203 -1.3295 -1.4941
18369SOL    HW259919   2.638  12.688   5.482  1.3767  0.3526 -1.4013
18370SOL     OW59920   2.046  12.629   4.697  0.2774  0.0054 -0.0700
18370SOL    HW159921   1.997  12.696   4.648 -2.1847 -0.3224  1.7202
18370SOL    HW259922   2.035  12.654   4.789 -1.0141 -2.9427  0.7019
18371SOL     OW59923   9.551   4.221   6.966  0.0142 -0.0907 -0.0585
18371SOL    HW159924   9.530   4.211   7.059 -0.5665 -1.5652 -0.3159
18371SOL    HW259925   9.500   4.152   6.923  2.9816 -1.8358 -1.0946
18372SOL     OW59926   0.255  10.198   9.901  0.5732  0.1239 -0.5663
18372SOL    HW159927   0.195  10.220   9.973  2.0708  1.9673  0.1884
18372SOL    HW259928   0.219  10.243   9.825  1.2204  1.6755  0.0029
18373SOL     OW59929   1.728   7.752   9.293 -0.2794  0.0847 -0.4883
18373SOL    HW159930   1.654   7.808   9.272 -1.2040 -0.3842  1.2644
18373SOL    HW259931   1.691   7.664   9.297  0.3925 -0.1833  0.1941
18374SOL     OW59932   2.959  10.271  11.508 -1.0806  0.0632 -0.1179
18374SOL    HW159933   2.887  10.286  11.447  0.8684  0.1403 -2.5321
18374SOL    HW259934   3.006  10.355  11.511 -0.6385 -0.2047  0.8130
18375SOL     OW59935   5.152  10.335  11.524 -0.4410  0.3660  0.3247
18375SOL    HW159936   5.200  10.319  11.443 -0.8372  1.1281 -0.0729
18375SOL    HW259937   5.151  10.430  11.533  0.0344  0.2756  1.5001
18376SOL     OW59938  10.446   5.311   7.776 -0.6289  0.1055  0.4173
18376SOL    HW159939  10.536   5.290   7.797 -1.3966 -2.8271  1.1406
18376SOL    HW259940  10.429   5.392   7.825  1.6818  0.9707 -0.0902
18377SOL     OW59941   6.688  10.012  10.621  0.4293 -0.1861 -0.2582
18377SOL    HW159942   6.664  10.081  10.560 -2.1626  0.9658  1.8876
18377SOL    HW259943   6.738  10.057  10.689  0.2325 -0.7446  0.2645
18378SOL     OW59944   4.871   7.971   9.946 -0.9892 -0.0033 -0.2592
18378SOL    HW159945   4.922   7.934  10.018  0.0215  2.7103  0.5515
18378SOL    HW259946   4.910   7.934   9.867  0.1885 -0.3785  0.4766
18379SOL     OW59947  12.041  12.137   6.417 -0.2295 -0.0401  0.0580
18379SOL    HW159948  11.970  12.192   6.384 -0.7099 -0.9323 -0.4579
18379SOL    HW259949  12.007  12.101   6.499 -0.9703 -1.5352 -0.8469
18380SOL     OW59950   4.508  11.039  10.446 -0.2882  0.3938 -0.1719
18380SOL    HW159951   4.579  11.082  10.398 -0.0861 -2.5429 -2.8292
18380SOL    HW259952   4.470  10.978  10.383 -2.3803 -1.2500  2.4500
18381SOL     OW59953   2.661   6.935   5.890 -0.1029  0.1131 -0.0825
18381SOL    HW159954   2.636   7.025   5.908  0.4059  0.0215  1.1674
18381SOL    HW259955   2.585   6.883   5.915 -0.1627  0.1456 -0.1968
18382SOL     OW59956  12.638   1.735   3.614 -0.6136 -0.1014 -0.2474
18382SOL    HW159957  12.556   1.685   3.612 -0.2848 -0.6335 -0.7590
18382SOL    HW259958  12.642   1.771   3.702 -0.9896 -0.7714  0.0528
18383SOL     OW59959   9.051   6.157   2.157  0.0157  0.4484  0.0207
18383SOL    HW159960   9.011   6.213   2.090 -1.3094  0.4600  0.7972
18383SOL    HW259961   9.067   6.074   2.112 -0.6305  0.5343 -0.3766
18384SOL     OW59962   2.378   5.114   2.567 -1.0153  0.2699 -0.3889
18384SOL    HW159963   2.442   5.049   2.536 -0.6589  0.7476 -0.6552
18384SOL    HW259964   2.348   5.078   2.651  0.5499  0.6498  0.3842
18385SOL     OW59965   0.861   8.784  11.660  0.4652  0.2327 -0.3709
18385SOL    HW159966   0.792   8.720  11.681 -0.4118  2.1290  3.4327
18385SOL    HW259967   0.940   8.732  11.651 -0.3911 -1.5450  1.5837
18386SOL     OW59968   5.565   3.284  12.373 -0.0552  0.1088  0.3279
18386SOL    HW159969   5.566   3.202  12.422 -0.9767 -0.9096 -1.2573
18386SOL    HW259970   5.634   3.274  12.307  0.2836  0.8986  0.5510
18387SOL     OW59971   4.087   6.252  11.895 -0.6370  0.4304 -0.1816
18387SOL    HW159972   3.996   6.231  11.879 -0.6635  0.1807  0.2898
18387SOL    HW259973   4.108   6.209  11.978 -0.0996  0.5031 -0.2752
18388SOL     OW59974   1.835  10.130   9.642  0.1756  0.2056  0.2678
18388SOL    HW159975   1.898  10.078   9.692  1.6553  0.1769 -1.5264
18388SOL    HW259976   1.760  10.140   9.701  1.1883 -1.1449  1.8735
18389SOL     OW59977  11.620   0.880  11.480 -1.0861 -0.4765  0.0811
18389SOL    HW159978  11.654   0.871  11.391  2.0894  2.9869  0.6983
18389SOL    HW259979  11.543   0.935  11.470  0.3701  1.5945 -0.5058
18390SOL     OW59980  11.225   6.089   1.032  0.0017  0.3164  0.5309
18390SOL    HW159981  11.182   6.025   0.975  0.8699 -0.2357  0.4723
18390SOL    HW259982  11.197   6.065   1.120  0.4090 -0.2337  0.5195
18391SOL     OW59983  11.056   3.677   3.564 -0.2492 -0.9529 -0.3554
18391SOL    HW159984  11.115   3.752   3.576 -1.6157  0.5904 -2.6087
18391SOL    HW259985  11.094   3.608   3.618  3.5975 -0.0426 -1.5936
18392SOL     OW59986  10.486  10.348  10.383  0.1936 -0.0609  0.2869
18392SOL    HW159987  10.490  10.314  10.472 -0.3844 -0.4004  0.1944
18392SOL    HW259988  10.470  10.270  10.329  0.8089  0.1098 -0.1386
18393SOL     OW59989   6.941   0.863   2.456  0.1722 -0.5369  0.5578
18393SOL    HW159990   6.967   0.864   2.364  0.5802  0.1796  0.6751
18393SOL    HW259991   6.933   0.955   2.480 -1.1372 -0.7147  0.9115
18394SOL     OW59992  10.697   7.712  11.834  0.1511 -0.0916 -1.0845
18394SOL    HW159993  10.622   7.768  11.813 -0.3704 -0.0467  0.6875
18394SOL    HW259994  10.660   7.625  11.848  0.6189 -0.3627 -1.5180
18395SOL     OW59995   1.396  12.118   9.495 -0.5391 -0.2187 -0.7568
18395SOL    HW159996   1.319  12.149   9.543 -0.1846 -1.3470  0.5951
18395SOL    HW259997   1.461  12.101   9.563  0.8098  0.3742 -1.8445
18396SOL     OW59998   7.589  12.535   9.738 -0.2357 -0.1220 -0.6519
18396SOL    HW159999   7.531  12.477   9.786  0.5603 -1.5461 -1.3502
18396SOL    HW260000   7.554  12.623   9.754 -1.3593 -0.7627  0.5714
18397SOL     OW60001   7.440   2.391  12.209 -0.1704 -0.0452 -0.4159
18397SOL    HW160002   7.437   2.376  12.304 -1.9980  0.4668 -0.3552
18397SOL    HW260003   7.508   2.457  12.198 -0.6305  0.6529  0.6789
18398SOL     OW60004   5.887   6.782   6.300 -0.1303 -0.3589  0.0295
18398SOL    HW160005   5.896   6.785   6.205  0.2034  0.2580  0.0717
18398SOL    HW260006   5.864   6.691   6.320 -0.9554 -0.3108 -0.6991
18399SOL     OW60007   7.370   9.320   9.296 -0.2845  0.5282  0.0109
18399SOL    HW160008   7.315   9.333   9.373 -0.0710 -1.5461  0.5753
18399SOL    HW260009   7.459   9.338   9.328 -0.1590 -0.6344  0.3855
18400SOL     OW60010   8.537   2.179   6.645 -0.3649 -0.0545  0.3484
18400SOL    HW160011   8.479   2.223   6.583 -0.3388 -0.1182  0.2790
18400SOL    HW260012   8.611   2.150   6.593 -1.5214 -2.3969 -0.1221
18401SOL     OW60013   1.812   4.255   4.898 -0.1418 -0.1105 -0.3537
18401SOL    HW160014   1.842   4.329   4.845  0.2219  0.1065  0.1509
18401SOL    HW260015   1.726   4.282   4.931 -0.3760 -0.2520 -0.8362
18402SOL     OW60016   7.663  11.556   7.287  0.2698 -0.2670 -0.5679
18402SOL    HW160017   7.721  11.554   7.364 -0.0869  0.3307 -0.2749
18402SOL    HW260018   7.590  11.499   7.311  0.1812 -0.1169 -0.4790
18403SOL     OW60019   5.149   3.007   7.172 -0.1301 -0.1477  0.0072
18403SOL    HW160020   5.072   3.060   7.149 -2.0315 -2.8189 -0.2518
18403SOL    HW260021   5.162   3.023   7.266 -0.5433  0.8587 -0.0915
18404SOL     OW60022   8.736   2.503   8.021  0.0366  0.0181 -0.4970
18404SOL    HW160023   8.813   2.486   8.076  1.1364  1.1486 -1.6129
18404SOL    HW260024   8.696   2.580   8.060 -1.0440 -1.0256  0.5552
18405SOL     OW60025   1.855  11.672   3.845 -0.0015 -0.2380  0.6869
18405SOL    HW160026   1.803  11.748   3.820  0.6852  0.2833  0.8198
18405SOL    HW260027   1.794  11.614   3.890 -0.7515 -0.1956 -0.2500
18406SOL     OW60028  11.171  10.187   6.100 -0.5397 -0.1468  0.2377
18406SOL    HW160029  11.233  10.140   6.044  0.7516 -0.0411  1.5138
18406SOL    HW260030  11.116  10.118   6.137 -0.6203 -0.3299 -0.2107
18407SOL     OW60031  11.724  11.411   4.818 -0.0660 -0.1166 -0.1226
18407SOL    HW160032  11.631  11.386   4.820 -0.6135  1.8021  0.5427
18407SOL    HW260033  11.749  11.414   4.910  0.9952 -1.6465 -0.3268
18408SOL     OW60034   5.265   5.808   3.923 -0.2147  0.2477  0.1136
18408SOL    HW160035   5.328   5.800   3.995  0.2675  0.6204 -0.2560
18408SOL    HW260036   5.310   5.863   3.858 -0.5686 -0.2289 -0.5525
18409SOL     OW60037   3.700   9.075   9.949 -0.0281 -0.6516 -0.6768
18409SOL    HW160038   3.630   9.024   9.991 -0.1577 -0.0541 -0.1519
18409SOL    HW260039   3.752   9.109  10.022  1.2135 -1.6304 -1.0673
18410SOL     OW60040   6.127   6.081  10.083  0.1756 -0.3327 -0.1231
18410SOL    HW160041   6.036   6.064  10.107  0.0345 -1.3556 -1.2760
18410SOL    HW260042   6.167   6.116  10.163 -1.5572  1.5316  0.0266
18411SOL     OW60043   5.561  10.193   2.610  0.2114 -0.0642  0.2367
18411SOL    HW160044   5.657  10.185   2.614  0.3622  1.1425 -0.4143
18411SOL    HW260045   5.546  10.264   2.548 -1.0837  0.4216  1.0725
18412SOL     OW60046   6.578   6.270   9.220 -0.0527  0.2211  0.5172
18412SOL    HW160047   6.582   6.320   9.138 -2.0209 -0.6656 -0.1856
18412SOL    HW260048   6.642   6.313   9.277  0.2730  1.8312 -0.9568
18413SOL     OW60049   7.404  12.105   4.047 -0.3813  0.1769 -0.2881
18413SOL    HW160050   7.410  12.164   4.123 -0.7948  0.3644 -0.4021
18413SOL    HW260051   7.315  12.072   4.050  0.0895 -1.1335  0.2861
18414SOL     OW60052   9.307  10.292   5.364 -0.1618 -0.0445 -0.5017
18414SOL    HW160053   9.379  10.238   5.330  0.8348 -0.2656  1.7499
18414SOL    HW260054   9.253  10.230   5.413 -0.6482  0.5111 -0.3346
18415SOL     OW60055  11.539   0.249   0.367 -0.3003  0.1610  0.8297
18415SOL    HW160056  11.631   0.223   0.373 -0.0701  0.6630 -0.2123
18415SOL    HW260057  11.491   0.176   0.407  0.4247 -1.1512 -0.5548
18416SOL     OW60058   5.065   0.582   3.599  0.1226  0.6550  0.7438
18416SOL    HW160059   5.001   0.649   3.624  0.5474  1.6616 -0.7024
18416SOL    HW260060   5.072   0.592   3.504  0.2228 -1.4489  0.4976
18417SOL     OW60061   6.729   8.000   2.643  0.3092  0.1623  0.1103
18417SOL    HW160062   6.726   8.095   2.631  0.3565 -0.0665 -1.9982
18417SOL    HW260063   6.736   7.965   2.554 -0.5679 -1.8498  0.7929
18418SOL     OW60064  10.370   4.212   1.262 -0.3706  0.2716  0.2659
18418SOL    HW160065  10.405   4.213   1.172 -0.0407 -2.9413  0.2255
18418SOL    HW260066  10.444   4.185   1.316 -1.3409 -1.0512  0.9924
18419SOL     OW60067   3.256   5.359   5.080  0.0132 -0.5140 -0.0870
18419SOL    HW160068   3.254   5.336   4.987 -0.3088 -0.7157 -0.0329
18419SOL    HW260069   3.164   5.357   5.107  0.0577  0.0866  0.1062
18420SOL     OW60070   0.085   9.480   0.158  0.3108  0.0935 -0.1247
18420SOL    HW160071   0.133   9.441   0.084  0.7557  0.2428  0.0775
18420SOL    HW260072   0.140   9.460   0.235 -0.6061 -0.8682  0.3037
18421SOL     OW60073  10.368  10.321  12.107 -0.0235  0.0027  0.5979
18421SOL    HW160074  10.300  10.387  12.092 -1.2039 -1.0202  1.3105
18421SOL    HW260075  10.332  10.240  12.071  0.1698 -0.8782  2.2596
18422SOL     OW60076   9.792   5.109   4.062  0.3763 -0.0708 -0.2331
18422SOL    HW160077   9.794   5.204   4.066 -1.3945 -0.0546  1.5855
18422SOL    HW260078   9.862   5.080   4.121 -0.6879  0.1440  1.1749
18423SOL     OW60079   8.568   7.374   9.895 -0.0122 -0.7597 -0.2465
18423SOL    HW160080   8.557   7.325   9.814 -0.9274  0.9595 -1.2310
18423SOL    HW260081   8.652   7.344   9.930 -0.2015 -2.4614 -1.1474
18424SOL     OW60082   4.013   9.756   4.827 -0.2676 -0.9175  0.1096
18424SOL    HW160083   3.995   9.726   4.737 -0.1521 -1.2636  0.2006
18424SOL    HW260084   3.983   9.684   4.882 -1.2285 -0.3206  0.4003
18425SOL     OW60085   4.683   7.275   4.307 -0.5373  0.3612 -0.0317
18425SOL    HW160086   4.725   7.235   4.231  0.5272 -0.6495  1.0492
18425SOL    HW260087   4.613   7.330   4.270 -0.5648 -0.7278 -1.6814
18426SOL     OW60088   4.741   3.104   7.079  0.0501 -0.7772  0.2484
18426SOL    HW160089   4.773   3.114   6.990 -0.9998 -1.3167 -0.2046
18426SOL    HW260090   4.691   3.183   7.097 -0.2275 -0.9322  0.1523
18427SOL     OW60091   3.848   6.937   6.228  0.0631 -0.2241 -0.4640
18427SOL    HW160092   3.908   6.887   6.284  1.3739 -1.1601 -2.6049
18427SOL    HW260093   3.798   6.991   6.290  0.3123 -2.3385  1.7369
18428SOL     OW60094  10.131   6.097   7.621  0.0212 -0.1826  0.0824
18428SOL    HW160095  10.096   6.007   7.616 -1.5794  0.2679  1.7190
18428SOL    HW260096  10.212   6.088   7.671 -0.3857 -0.6813  0.6728
18429SOL     OW60097   1.445   1.142   9.700  0.1196  0.5223 -0.5700
18429SOL    HW160098   1.527   1.185   9.724  0.0598  0.8076 -0.8635
18429SOL    HW260099   1.471   1.078   9.633  0.4332 -0.9399  0.8848
18430SOL     OW60100  11.393   1.540   7.144  0.4320  0.0670  0.4994
18430SOL    HW160101  11.319   1.494   7.184  0.8626 -0.7716  0.3515
18430SOL    HW260102  11.365   1.557   7.054  0.3702 -0.1327  0.4811
18431SOL     OW60103   2.496  11.763   1.819 -0.2760 -0.0133 -0.1482
18431SOL    HW160104   2.545  11.732   1.743  0.4308 -1.4518  0.8602
18431SOL    HW260105   2.417  11.802   1.781  0.1322 -0.5418 -1.6270
18432SOL     OW60106   4.080   2.982  10.275 -0.4146 -0.3107 -0.9233
18432SOL    HW160107   4.109   2.901  10.234  0.8850  0.0337 -0.7299
18432SOL    HW260108   4.101   2.970  10.368  1.0338  0.7298 -1.0778
18433SOL     OW60109   1.881   8.589   7.294 -0.5232 -0.3804  0.3777
18433SOL    HW160110   1.869   8.511   7.348  0.3341  0.5456  1.9618
18433SOL    HW260111   1.931   8.649   7.349 -0.8081  1.1396 -0.9572
18434SOL     OW60112   2.040   2.914   3.723  0.7478 -0.3341 -0.0868
18434SOL    HW160113   1.980   2.988   3.712 -0.1875 -0.8656  1.1983
18434SOL    HW260114   2.027   2.861   3.644  1.2565  0.7414 -0.9104
18435SOL     OW60115   5.017  11.640  12.417  0.0354  0.2516 -0.4525
18435SOL    HW160116   4.959  11.606  12.349  1.0963 -1.4408 -0.5727
18435SOL    HW260117   5.102  11.601  12.396  0.4596 -0.0404  1.6714
18436SOL     OW60118   8.483   9.793   6.303  0.4317  0.2447  0.2422
18436SOL    HW160119   8.397   9.793   6.262  0.2538  3.5264  0.4232
18436SOL    HW260120   8.467   9.822   6.393  1.5370 -0.9994  0.8834
18437SOL     OW60121   2.664   2.755   0.273 -0.2209  0.0790 -0.2441
18437SOL    HW160122   2.734   2.725   0.332 -0.4889 -1.6895 -0.7602
18437SOL    HW260123   2.669   2.696   0.198 -2.6291 -0.4861 -0.0292
18438SOL     OW60124   2.185   3.784   2.485  0.3240 -0.2674 -0.4828
18438SOL    HW160125   2.196   3.775   2.580 -0.6759 -1.0441 -0.4332
18438SOL    HW260126   2.091   3.798   2.473  0.4994  0.2353 -1.3350
18439SOL     OW60127  11.191   9.168   5.022 -0.4515  0.5945  0.9659
18439SOL    HW160128  11.246   9.244   5.039 -0.8689  1.0788  0.1854
18439SOL    HW260129  11.252   9.099   4.998  0.1001  0.1113  3.4853
18440SOL     OW60130   1.703   6.790   5.646 -0.2613  0.1702  0.5842
18440SOL    HW160131   1.786   6.743   5.639  0.4285  1.5500 -1.2312
18440SOL    HW260132   1.679   6.781   5.739  0.6232 -2.3143  0.6488
18441SOL     OW60133   9.432   1.524   3.699 -0.1079 -0.3881  0.0782
18441SOL    HW160134   9.425   1.617   3.679  1.0089 -0.6877 -2.0103
18441SOL    HW260135   9.506   1.493   3.646 -1.8111 -2.8905 -1.0613
18442SOL     OW60136  10.919   9.967   0.569 -0.2313  0.1046 -0.2623
18442SOL    HW160137  10.900   9.882   0.608 -0.6339  1.1606  2.0099
18442SOL    HW260138  10.834  10.008   0.555 -0.0058  0.9892  0.7798
18443SOL     OW60139  12.293   0.478   4.170  0.2307  0.1675  0.6780
18443SOL    HW160140  12.365   0.450   4.114 -1.1169 -1.0847 -0.5156
18443SOL    HW260141  12.256   0.397   4.205 -1.2236  0.6924  0.4448
18444SOL     OW60142   5.177   0.262  10.709  0.5716  0.2021  0.4012
18444SOL    HW160143   5.126   0.186  10.736  2.4572 -0.6515  1.8402
18444SOL    HW260144   5.191   0.250  10.615  0.9224 -1.3140  0.6259
18445SOL     OW60145   6.604   7.714   8.120  0.6978 -0.2583 -0.4250
18445SOL    HW160146   6.557   7.767   8.056  1.1164 -0.2317 -0.7137
18445SOL    HW260147   6.686   7.762   8.135  0.1058  0.3681  1.0240
18446SOL     OW60148   7.291   5.944   0.194 -0.2852  0.2648  0.2631
18446SOL    HW160149   7.277   5.891   0.273  1.8332  0.4737  0.8359
18446SOL    HW260150   7.357   5.896   0.144  0.5501  1.5699  0.0590
18447SOL     OW60151   0.274   5.406   3.564  0.7501 -0.2615  0.1959
18447SOL    HW160152   0.334   5.481   3.572 -0.3550  0.9599 -2.0392
18447SOL    HW260153   0.214   5.431   3.494 -0.1891 -2.9366 -0.0564
18448SOL     OW60154  10.617   4.640   6.329  0.4575 -0.3104 -0.2514
18448SOL    HW160155  10.656   4.686   6.403  1.0536  0.4572 -1.0230
18448SOL    HW260156  10.605   4.550   6.360  1.5492 -0.2205  0.4662
18449SOL     OW60157   0.180   5.622   1.460  0.4238  0.6514 -0.5427
18449SOL    HW160158   0.156   5.532   1.435  0.7540  0.4501 -0.1551
18449SOL    HW260159   0.253   5.610   1.522 -0.3952  1.1361  0.5298
18450SOL     OW60160  10.851   7.058  11.131 -0.0517 -0.2240  0.1218
18450SOL    HW160161  10.921   6.994  11.114 -2.8867 -3.7158  0.3336
18450SOL    HW260162  10.859   7.078  11.224  0.8056 -0.3766  0.0868
18451SOL     OW60163  10.500  11.592   5.637 -0.4232 -0.2367 -0.5985
18451SOL    HW160164  10.565  11.530   5.670  1.2718  2.2672  1.1850
18451SOL    HW260165  10.423  11.579   5.693  0.4851  0.2788  0.8094
18452SOL     OW60166   4.124  12.437   6.578 -0.2190 -0.6066  0.4408
18452SOL    HW160167   4.099  12.346   6.593  1.7098 -0.9022  2.3091
18452SOL    HW260168   4.206  12.448   6.626 -1.0084  2.4516  1.3275
18453SOL     OW60169  10.002   1.325   0.357 -0.0244  0.3046 -0.2668
18453SOL    HW160170   9.992   1.339   0.451 -2.3792  3.1734 -0.8319
18453SOL    HW260171   9.988   1.231   0.345 -1.1258  0.1128  2.0949
18454SOL     OW60172  11.855   3.761   0.894  0.1163  0.9381  0.3548
18454SOL    HW160173  11.837   3.854   0.885 -0.7142  0.8000  0.4795
18454SOL    HW260174  11.908   3.754   0.973 -0.0694  1.2778  0.5102
18455SOL     OW60175   3.750   8.276   4.092 -0.3886 -0.4653  0.3456
18455SOL    HW160176   3.756   8.371   4.091 -1.7567 -0.3629  0.0083
18455SOL    HW260177   3.835   8.247   4.125  0.8138  0.7864 -1.4279
18456SOL     OW60178   7.552   1.026   5.299 -0.1997  0.1146  0.0338
18456SOL    HW160179   7.572   0.933   5.309  0.7728  0.5832  4.0544
18456SOL    HW260180   7.469   1.038   5.344 -1.1704  1.0241 -1.8622
18457SOL     OW60181   1.755   7.221   8.801 -0.0858 -0.1216  0.5534
18457SOL    HW160182   1.820   7.152   8.797  0.1546  0.1472 -0.3391
18457SOL    HW260183   1.681   7.188   8.750 -0.3482 -0.1087  0.9208
18458SOL     OW60184   0.123   3.275   9.409  0.2293  0.5165 -0.0059
18458SOL    HW160185   0.214   3.251   9.391 -0.2261 -0.7368 -0.8043
18458SOL    HW260186   0.071   3.215   9.355 -1.0991  0.7297  0.9709
18459SOL     OW60187   3.963   1.835  11.058  0.2128  0.7671 -0.0512
18459SOL    HW160188   3.900   1.878  11.116  0.6050  0.7905  0.3587
18459SOL    HW260189   3.986   1.754  11.104 -0.0652  0.4015 -0.5402
18460SOL     OW60190   1.913   2.483   1.961  0.4152 -0.0729 -0.2147
18460SOL    HW160191   1.873   2.534   2.031  0.1866  1.3366 -1.3299
18460SOL    HW260192   1.840   2.436   1.921  0.8395 -2.7235  1.8743
18461SOL     OW60193  12.288   5.051   8.183 -0.5339  0.4582  0.0290
18461SOL    HW160194  12.211   5.076   8.132  0.7351  3.4447 -0.6176
18461SOL    HW260195  12.341   5.130   8.188  2.9768 -1.6380 -0.3316
18462SOL     OW60196   2.402   6.138   9.242  0.1648 -0.4662 -0.0167
18462SOL    HW160197   2.406   6.171   9.332 -0.9013 -0.3806  0.0036
18462SOL    HW260198   2.490   6.104   9.226  0.4546 -0.2163  0.9565
18463SOL     OW60199   7.861   7.338   1.950  0.3544  0.1477  0.2933
18463SOL    HW160200   7.791   7.390   1.910  1.9675  1.5350 -0.8509
18463SOL    HW260201   7.911   7.304   1.876 -0.4204 -2.8646  0.9974
18464SOL     OW60202  11.979   2.978   1.537 -0.4675  0.1472 -0.2414
18464SOL    HW160203  12.067   2.966   1.499 -0.3071  0.6679 -0.0413
18464SOL    HW260204  11.926   3.011   1.465 -0.3380  0.4598 -0.1920
18465SOL     OW60205   1.549   5.893   6.264 -0.2386 -0.3325 -0.1270
18465SOL    HW160206   1.484   5.830   6.233 -1.4429  0.3484  0.9326
18465SOL    HW260207   1.603   5.844   6.326 -1.6336 -0.1859  1.2682
18466SOL     OW60208   7.523   7.760   8.338 -0.5081  0.2839 -0.0886
18466SOL    HW160209   7.445   7.741   8.287  0.6281 -1.6212 -1.2116
18466SOL    HW260210   7.536   7.855   8.329 -1.1755  0.2137 -2.1117
18467SOL     OW60211   2.853   4.554   3.896 -0.0970  0.7743  0.1366
18467SOL    HW160212   2.840   4.545   3.991  0.1006  2.0968  0.3076
18467SOL    HW260213   2.777   4.604   3.867  0.8599  2.1614 -0.0571
18468SOL     OW60214   9.915   8.195  10.255  0.0154  0.5072 -0.0575
18468SOL    HW160215   9.963   8.140  10.192 -0.4183  0.1123 -0.0514
18468SOL    HW260216   9.926   8.284  10.222  0.8169  0.4283 -0.0131
18469SOL     OW60217   6.294  12.429   5.580  0.6482  0.4870 -0.3433
18469SOL    HW160218   6.283  12.335   5.565  0.1122  0.2979  1.1274
18469SOL    HW260219   6.290  12.468   5.492 -0.4774 -0.7274 -0.8612
18470SOL     OW60220   5.954   5.469  11.811 -0.6989 -0.3128 -0.0441
18470SOL    HW160221   5.951   5.491  11.904  0.8206 -0.5483  0.0814
18470SOL    HW260222   6.043   5.489  11.784 -0.3257 -2.6620 -0.8268
18471SOL     OW60223   4.648   4.018   1.576  0.0313  0.1542 -0.4306
18471SOL    HW160224   4.689   4.094   1.615 -0.5050  0.7743 -1.0331
18471SOL    HW260225   4.716   3.978   1.522 -0.4438  1.9165 -2.4695
18472SOL     OW60226  12.104   8.231   1.643  0.3320  0.1606  0.1956
18472SOL    HW160227  12.185   8.268   1.606  0.5001 -0.5284 -0.1372
18472SOL    HW260228  12.084   8.288   1.718  1.6434 -0.2099  0.8566
18473SOL     OW60229  11.372  11.411   2.573  0.1629  0.4793 -0.4319
18473SOL    HW160230  11.315  11.483   2.600  2.0041  1.9592 -0.2878
18473SOL    HW260231  11.369  11.349   2.646  0.6942  1.7506  0.7024
18474SOL     OW60232   3.684   6.563  10.905  0.3632  0.7774  0.3748
18474SOL    HW160233   3.607   6.616  10.927  1.2799  1.5606  1.8134
18474SOL    HW260234   3.648   6.487  10.859 -1.0251  2.3666 -1.3130
18475SOL     OW60235   2.193  12.471   5.589  0.9437 -0.3607  0.0675
18475SOL    HW160236   2.186  12.536   5.519 -0.4726 -1.3181 -0.7285
18475SOL    HW260237   2.223  12.521   5.665 -0.5135  1.3392 -0.3954
18476SOL     OW60238   2.543   2.426   1.679 -0.1135 -0.6308  0.3830
18476SOL    HW160239   2.503   2.505   1.642  0.2304 -0.4047  0.4885
18476SOL    HW260240   2.487   2.404   1.754  0.4260  0.1710  1.0436
18477SOL     OW60241  11.884   1.638   0.637 -0.3273  0.0244  0.0278
18477SOL    HW160242  11.958   1.648   0.697  0.0940  2.2608 -0.7672
18477SOL    HW260243  11.818   1.592   0.688  0.8320 -0.1316  1.4634
18478SOL     OW60244  11.684   0.433   2.279 -0.0352 -0.1345 -0.2056
18478SOL    HW160245  11.652   0.439   2.189  1.7883  2.4911 -0.8128
18478SOL    HW260246  11.671   0.521   2.314  0.7003 -0.7057  1.5972
18479SOL     OW60247  12.390   3.109   9.660  0.0567 -0.0165  0.1446
18479SOL    HW160248  12.411   3.035   9.603  1.9168  0.3711  0.2662
18479SOL    HW260249  12.473   3.154   9.672 -0.5412  0.6522  2.1310
18480SOL     OW60250   4.244  10.335   5.470  0.0100 -0.3962 -0.4350
18480SOL    HW160251   4.336  10.311   5.481  0.1952  0.4145 -0.1586
18480SOL    HW260252   4.239  10.367   5.380  0.8696  3.1044  0.5835
18481SOL     OW60253   0.754  10.457   8.537 -0.0353 -0.3187  0.0613
18481SOL    HW160254   0.731  10.398   8.609  1.6957  0.4109  1.2801
18481SOL    HW260255   0.728  10.543   8.568 -0.5920 -0.1717 -0.8072
18482SOL     OW60256   2.690  10.862   1.285  0.3408 -0.2232  0.4478
18482SOL    HW160257   2.734  10.941   1.253 -0.2903 -0.5846 -1.4559
18482SOL    HW260258   2.652  10.888   1.369 -0.5015  1.7552 -0.4777
18483SOL     OW60259  10.800   4.313   5.309 -0.0543 -0.4522 -0.2896
18483SOL    HW160260  10.773   4.405   5.300  0.4997 -0.4001 -1.5232
18483SOL    HW260261  10.888   4.318   5.347 -0.9761 -0.5741  2.0185
18484SOL     OW60262   0.640   4.232   3.177 -0.2062 -0.1698  0.5677
18484SOL    HW160263   0.650   4.319   3.137 -0.8186 -0.9750 -1.4360
18484SOL    HW260264   0.722   4.187   3.158 -1.1593 -1.1863 -1.5645
18485SOL     OW60265   0.894   3.911   3.208  0.0153  0.7289 -0.2165
18485SOL    HW160266   0.868   4.002   3.224 -0.6880  0.3843  0.6429
18485SOL    HW260267   0.876   3.865   3.290 -2.1754 -0.7497 -1.4099
18486SOL     OW60268   0.040  11.168   3.483 -0.2608 -0.0041  0.5603
18486SOL    HW160269   0.105  11.214   3.537 -0.9343  1.6957  0.0119
18486SOL    HW260270   0.066  11.076   3.487  2.4253  0.6387  0.0241
18487SOL     OW60271  12.008   6.288   8.562 -0.1608  0.3498  0.3626
18487SOL    HW160272  12.062   6.216   8.532 -0.4944  0.6576 -1.0620
18487SOL    HW260273  11.921   6.249   8.576  0.1552  0.0646  1.6615
18488SOL     OW60274   8.207  11.073   6.858  0.0908  0.3245 -0.1067
18488SOL    HW160275   8.148  11.090   6.932 -1.3480 -0.0044 -1.1289
18488SOL    HW260276   8.222  11.159   6.819  1.0891  0.5391  0.7091
18489SOL     OW60277   8.706   9.098   4.919 -0.3961 -0.9700 -0.0159
18489SOL    HW160278   8.721   9.087   5.013  0.0500 -1.9440 -0.1812
18489SOL    HW260279   8.634   9.038   4.899 -1.1488 -0.0510 -0.1381
18490SOL     OW60280   7.056   9.174  12.542 -0.2853 -0.2731  0.0025
18490SOL    HW160281   7.010   9.137  12.617  0.1202 -1.6157 -0.3741
18490SOL    HW260282   7.135   9.212  12.579 -0.4521 -0.2646  0.3521
18491SOL     OW60283   2.409   8.798   0.138 -0.6288 -0.2227 -0.8251
18491SOL    HW160284   2.380   8.854   0.210 -0.6685 -0.0876 -0.9458
18491SOL    HW260285   2.386   8.709   0.166 -1.7602 -0.0631 -1.1973
18492SOL     OW60286   6.692   1.758   1.117 -0.6078 -0.6972 -0.5539
18492SOL    HW160287   6.773   1.738   1.070 -0.8036  1.3963 -1.9120
18492SOL    HW260288   6.704   1.847   1.150 -0.8672 -1.7241  2.6892
18493SOL     OW60289   0.868   0.921   9.774 -0.2868 -0.2262  0.2677
18493SOL    HW160290   0.925   0.912   9.850 -0.1816 -1.4116  0.0657
18493SOL    HW260291   0.781   0.899   9.807 -0.3061 -0.3459  0.1367
18494SOL     OW60292   7.633   7.666   9.087  0.2766  0.2104 -0.2028
18494SOL    HW160293   7.600   7.578   9.067 -0.3220  0.1337  1.0771
18494SOL    HW260294   7.593   7.722   9.021  0.3649 -0.4084 -0.8002
18495SOL     OW60295  11.870   4.569   0.419  0.0767  1.0007  0.5135
18495SOL    HW160296  11.876   4.616   0.336 -0.4487  0.6282  0.2565
18495SOL    HW260297  11.919   4.623   0.481  0.4106  1.3229 -0.0181
18496SOL     OW60298   4.955   6.631   0.230 -0.3285 -0.0911 -0.5164
18496SOL    HW160299   5.032   6.671   0.191 -2.2201  4.3681 -0.2113
18496SOL    HW260300   4.978   6.616   0.322  0.8500 -1.0883 -0.9496
18497SOL     OW60301  11.042   0.719   6.578  0.0776 -0.5288 -0.1109
18497SOL    HW160302  11.037   0.624   6.570  2.3677 -0.5867 -1.6038
18497SOL    HW260303  11.040   0.751   6.488  0.3361  0.7629  0.3261
18498SOL     OW60304  11.468   3.009  11.236  0.2690 -0.4791 -0.7005
18498SOL    HW160305  11.375   2.991  11.223  0.0535 -3.3391  3.0061
18498SOL    HW260306  11.475   3.035  11.328  3.0265  1.3250 -1.2767
18499SOL     OW60307   8.267   9.760   9.146  0.5088  0.4603 -0.3895
18499SOL    HW160308   8.328   9.812   9.198 -1.3611  0.6475  1.7617
18499SOL    HW260309   8.297   9.670   9.155 -0.2733  0.3768  1.8420
18500SOL     OW60310   8.949   9.047   9.362 -0.4063 -0.8467 -0.0380
18500SOL    HW160311   8.914   9.074   9.447 -0.3085 -1.5093  0.2222
18500SOL    HW260312   9.036   9.013   9.382  0.0754  0.0325 -0.5700
18501SOL     OW60313  12.648  10.154   7.586  0.2999 -0.1308 -0.0333
18501SOL    HW160314  12.671  10.228   7.642 -1.1529  1.2608 -1.1772
18501SOL    HW260315  12.730  10.130   7.543  0.8354  0.7291  0.4787
18502SOL     OW60316   2.284   1.058  10.287  0.2131  0.1476 -0.5493
18502SOL    HW160317   2.269   0.987  10.349  1.3635 -1.6388 -2.1699
18502SOL    HW260318   2.336   1.017  10.217 -0.5438  2.1752 -2.4087
18503SOL     OW60319   2.299   4.063  10.118 -0.6322 -0.2055  0.0068
18503SOL    HW160320   2.234   4.114  10.069 -0.2111  1.3494  1.0015
18503SOL    HW260321   2.247   4.015  10.182 -1.1605 -2.0479 -1.7091
18504SOL     OW60322  12.198   3.895   2.415  0.7531 -0.6733  0.4157
18504SOL    HW160323  12.136   3.822   2.413  0.1895 -0.1937 -0.0953
18504SOL    HW260324  12.279   3.857   2.447  0.3907 -1.4693  0.4066
18505SOL     OW60325   5.255   3.358   4.437 -0.0852 -0.7439  0.2581
18505SOL    HW160326   5.229   3.269   4.415  1.1271 -1.2437  0.7845
18505SOL    HW260327   5.267   3.358   4.532  0.3260 -0.1336  0.2183
18506SOL     OW60328   3.775   7.969   9.909  0.3816 -0.2005  0.5201
18506SOL    HW160329   3.847   7.974   9.847  1.2403  0.4225  1.5247
18506SOL    HW260330   3.707   8.025   9.871  0.9414  0.2732  0.1922
18507SOL     OW60331   8.964   0.344   2.343 -0.5161  0.5709  0.1684
18507SOL    HW160332   8.917   0.283   2.287 -0.7961  1.1813 -0.2783
18507SOL    HW260333   8.916   0.344   2.426 -0.3333 -0.0351  0.2786
18508SOL     OW60334   8.654   3.728  12.428 -0.9277 -0.2102 -0.1375
18508SOL    HW160335   8.735   3.682  12.408 -1.0925 -0.9263  0.7805
18508SOL    HW260336   8.625   3.692  12.512 -0.5865  2.1794  1.0958
18509SOL     OW60337  11.098  10.270  12.620  0.0951 -0.4465  0.0254
18509SOL    HW160338  11.187  10.236  12.630  0.8536  1.2399 -0.5865
18509SOL    HW260339  11.046  10.222  12.685  1.7783 -0.3469  1.5244
18510SOL     OW60340   0.938  11.366   9.461  0.5332  0.1701  0.3353
18510SOL    HW160341   0.865  11.315   9.496  0.9044  0.6554  1.9083
18510SOL    HW260342   0.898  11.450   9.437  0.5040  0.3006  0.8369
18511SOL     OW60343   2.126  11.774   1.987 -0.5895 -0.1077  0.0452
18511SOL    HW160344   2.055  11.717   1.958 -0.0970 -1.8548  2.0257
18511SOL    HW260345   2.144  11.830   1.912 -1.1375 -2.5191 -2.0259
18512SOL     OW60346   7.934   2.526   7.004  0.4436 -0.1392 -0.2637
18512SOL    HW160347   7.997   2.547   7.072  0.5657  0.6782 -0.6075
18512SOL    HW260348   7.883   2.453   7.039 -0.0181  0.7608  1.0398
18513SOL     OW60349   2.987   7.960   7.852  0.0770 -0.7668 -0.5943
18513SOL    HW160350   3.035   7.931   7.929 -1.2723 -3.4418 -0.6377
18513SOL    HW260351   3.027   7.913   7.779 -1.2617 -1.5026 -0.8956
18514SOL     OW60352   9.113   4.911   9.843  0.3599 -0.5831  0.2091
18514SOL    HW160353   9.196   4.901   9.890  0.6339 -1.3442 -0.4172
18514SOL    HW260354   9.127   4.866   9.759 -0.2651  0.3596 -0.4276
18515SOL     OW60355   2.957   5.877  10.040 -0.2190 -0.4851 -0.6365
18515SOL    HW160356   2.906   5.797  10.030 -0.9828 -0.3466  1.6307
18515SOL    HW260357   2.894   5.942  10.073  0.6563  0.6952 -1.2264
18516SOL     OW60358   1.624   6.591   0.595  0.8080  0.1812 -0.3016
18516SOL    HW160359   1.715   6.591   0.625  0.6910 -0.5515  0.0943
18516SOL    HW260360   1.628   6.614   0.503  1.2279  2.0115  0.1330
18517SOL     OW60361   3.361  12.118   9.271 -0.6708  0.3877  0.6128
18517SOL    HW160362   3.392  12.130   9.181  0.4043  0.9445  1.0441
18517SOL    HW260363   3.440  12.098   9.321 -1.2307  0.2994  1.4741
18518SOL     OW60364   2.317   8.578  11.671 -0.3096  0.6123  0.4423
18518SOL    HW160365   2.388   8.518  11.646 -0.7322  0.7956 -1.3157
18518SOL    HW260366   2.238   8.525  11.666 -0.6285  1.1645 -0.6246
18519SOL     OW60367   8.863   2.222   2.894 -0.1210 -0.3604  0.0229
18519SOL    HW160368   8.903   2.229   2.807 -0.7816 -0.1442 -0.2759
18519SOL    HW260369   8.835   2.311   2.914 -1.7007 -0.7261 -0.4010
18520SOL     OW60370  12.585  10.838   0.023 -0.2889  0.1222  0.1910
18520SOL    HW160371  12.633  10.909   0.065 -0.3557 -0.2223  0.8670
18520SOL    HW260372  12.493  10.861   0.036 -0.3109 -0.0823  0.3989
18521SOL     OW60373   3.965   4.371   3.616  0.1430 -0.1639  0.1312
18521SOL    HW160374   3.967   4.462   3.647 -0.2182 -0.4390  1.0066
18521SOL    HW260375   3.883   4.336   3.651 -0.0440 -0.6466 -0.7479
18522SOL     OW60376   6.684   4.332   7.627  0.0273 -0.0590  0.1043
18522SOL    HW160377   6.595   4.352   7.598 -0.7025 -2.6818  0.2956
18522SOL    HW260378   6.675   4.314   7.721  1.0244  0.9220  0.4054
18523SOL     OW60379   1.091   6.294   2.469  0.3750 -0.3015 -0.4175
18523SOL    HW160380   1.114   6.222   2.527  2.0290  0.3045 -0.2538
18523SOL    HW260381   1.096   6.257   2.381  0.4313 -0.5917 -0.2920
18524SOL     OW60382   9.202   7.285  11.104  0.3129  0.4040  0.4892
18524SOL    HW160383   9.150   7.306  11.026  1.3157  1.5789  0.1011
18524SOL    HW260384   9.150   7.221  11.151 -0.3717 -0.2621 -1.1031
18525SOL     OW60385   6.071   2.365   2.097  0.2454  0.5728 -0.2648
18525SOL    HW160386   6.115   2.438   2.054 -1.1907  1.2052 -0.7322
18525SOL    HW260387   6.096   2.288   2.046  0.6967  0.9300 -0.5890
18526SOL     OW60388   1.598   8.646  10.210  0.5817 -0.6658 -0.6883
18526SOL    HW160389   1.534   8.599  10.157 -0.6218 -0.0889  0.1854
18526SOL    HW260390   1.554   8.658  10.295  0.7194  2.1281 -0.8948
18527SOL     OW60391   3.723   3.482   6.744  0.2748  0.1513 -0.3170
18527SOL    HW160392   3.644   3.506   6.794 -0.2505 -1.3141 -0.4158
18527SOL    HW260393   3.714   3.529   6.661 -1.0852 -0.9000 -0.7901
18528SOL     OW60394   9.659  10.426  12.571  0.9191  0.4198 -0.3631
18528SOL    HW160395   9.684  10.346  12.525 -1.3785 -0.3863 -0.3293
18528SOL    HW260396   9.584  10.401  12.624  0.7997  2.3626  0.4719
18529SOL     OW60397   1.966   4.095  11.062 -0.2514  0.0762  0.9882
18529SOL    HW160398   2.022   4.172  11.056 -0.8207  0.5443  1.4946
18529SOL    HW260399   2.022   4.022  11.035  0.8217  0.4312  2.1374
18530SOL     OW60400   0.533  10.305   6.333  0.1778 -0.1211 -0.3982
18530SOL    HW160401   0.456  10.297   6.278 -0.9182  1.6423  0.7618
18530SOL    HW260402   0.506  10.269   6.418  0.7523  0.1444 -0.0957
18531SOL     OW60403  10.966   9.760   6.015 -0.1544  0.0459  0.2546
18531SOL    HW160404  10.884   9.719   5.988 -0.9564  0.8434  1.3917
18531SOL    HW260405  11.001   9.798   5.934  0.8213 -3.0651 -0.9302
18532SOL     OW60406   0.052   5.160  11.197 -0.3902 -0.3510  0.3204
18532SOL    HW160407   0.097   5.243  11.189  1.3961 -1.2442  0.6041
18532SOL    HW260408  -0.020   5.165  11.133 -0.7292  1.6138  0.7939
18533SOL     OW60409  11.874   1.895   8.993  0.2669  0.4885 -0.1804
18533SOL    HW160410  11.892   1.927   8.905 -1.7661 -1.6853 -1.5069
18533SOL    HW260411  11.807   1.828   8.981 -2.0946  1.9266  3.2793
18534SOL     OW60412   7.816   1.769   2.519 -0.0023 -0.4543  0.2860
18534SOL    HW160413   7.750   1.711   2.481 -0.0729  0.3029 -0.8149
18534SOL    HW260414   7.884   1.776   2.451  0.1960  0.4185  0.5541
18535SOL     OW60415  10.100   0.341   4.646  0.2037 -0.1197  0.3455
18535SOL    HW160416  10.057   0.345   4.732 -0.3783  0.0489  0.0485
18535SOL    HW260417  10.087   0.428   4.609 -1.5127 -0.8239 -0.8513
18536SOL     OW60418   2.699   5.373   6.865 -0.5002  0.4808 -0.7640
18536SOL    HW160419   2.735   5.299   6.913  0.0115 -0.8391 -3.0430
18536SOL    HW260420   2.653   5.425   6.932  0.2830 -1.1290  1.1297
18537SOL     OW60421   7.079   8.592  11.456 -0.3420  0.4905 -0.0009
18537SOL    HW160422   7.084   8.658  11.525  0.0676  0.1632  0.2860
18537SOL    HW260423   7.016   8.528  11.488 -1.3432  1.1420 -0.6294
18538SOL     OW60424   8.454   1.037   1.546  0.2105 -0.2924  0.0495
18538SOL    HW160425   8.486   1.049   1.635 -0.1894 -0.5316  0.2271
18538SOL    HW260426   8.423   1.124   1.521 -1.1689 -0.5508  0.7432
18539SOL     OW60427   6.943   8.575   8.662 -0.4573 -0.5203 -0.0519
18539SOL    HW160428   6.976   8.588   8.751 -1.1211 -2.6840  0.5798
18539SOL    HW260429   6.865   8.629   8.657 -0.4018 -0.3635  0.6750
18540SOL     OW60430  11.326   8.621   7.163  0.2986  0.3079  0.1717
18540SOL    HW160431  11.316   8.597   7.255  1.3897 -1.3218 -0.0815
18540SOL    HW260432  11.364   8.708   7.165 -0.3517  0.5819  1.2472
18541SOL     OW60433   0.502   8.980   9.739  0.6363  0.1266  0.1173
18541SOL    HW160434   0.583   9.026   9.717 -0.4279  1.7528 -0.5174
18541SOL    HW260435   0.460   9.034   9.805 -0.0771 -0.5720  0.2535
18542SOL     OW60436   7.786   3.860   1.087  0.2417  0.0293 -0.0615
18542SOL    HW160437   7.762   3.854   1.180  0.0165  1.6324  0.0048
18542SOL    HW260438   7.745   3.941   1.057  1.4922  0.2709 -1.2057
18543SOL     OW60439   9.217   9.072   7.470 -0.0808 -0.2199 -0.2196
18543SOL    HW160440   9.260   8.993   7.437  1.5371  0.3769  0.3731
18543SOL    HW260441   9.287   9.123   7.510 -1.4144  0.6013  1.1979
18544SOL     OW60442   3.530   2.960   6.694  0.2751 -0.0955 -0.5819
18544SOL    HW160443   3.449   2.992   6.654 -0.6121 -0.0090  1.1744
18544SOL    HW260444   3.588   3.036   6.694  0.4355 -0.1928 -1.9802
18545SOL     OW60445   6.212   2.759   2.547 -0.7913 -0.0079 -0.3850
18545SOL    HW160446   6.230   2.853   2.551 -1.4410  0.1520 -0.9482
18545SOL    HW260447   6.287   2.718   2.589 -0.6550  0.7815  0.1572
18546SOL     OW60448   7.419   5.400   6.727 -0.8502  0.6081 -0.2941
18546SOL    HW160449   7.347   5.433   6.781  0.0016  0.0416  1.2410
18546SOL    HW260450   7.389   5.315   6.696 -0.2987 -0.2705  1.5251
18547SOL     OW60451  11.542   8.743   4.454 -0.3602  0.0036  0.0391
18547SOL    HW160452  11.551   8.765   4.361 -3.6583  2.0979  0.0443
18547SOL    HW260453  11.630   8.718   4.481  0.8175 -0.3192 -3.5169
18548SOL     OW60454   1.237   9.647   3.724  0.1320  0.7332 -0.1167
18548SOL    HW160455   1.323   9.609   3.745  0.0899  1.4240  1.4161
18548SOL    HW260456   1.257   9.737   3.696 -0.0457  0.6905 -0.3834
18549SOL     OW60457   3.112  10.338   3.869  0.4406 -0.2757 -0.4772
18549SOL    HW160458   3.121  10.424   3.909 -1.7321 -0.7938  1.3768
18549SOL    HW260459   3.090  10.356   3.778 -0.5609  1.1912  0.0181
18550SOL     OW60460   3.661   5.275  10.860  0.1163  0.8165  0.4532
18550SOL    HW160461   3.622   5.280  10.947  0.5313  1.8545  0.5892
18550SOL    HW260462   3.652   5.364  10.825 -0.4517  0.3092 -0.7477
18551SOL     OW60463   1.285  12.453   8.915 -0.2146  0.3520 -0.5645
18551SOL    HW160464   1.217  12.492   8.971  0.0330 -1.0034  0.7504
18551SOL    HW260465   1.364  12.455   8.969  0.2259 -0.2685 -1.1735
18552SOL     OW60466   0.260   8.877   4.326  0.2725 -0.1775 -0.1021
18552SOL    HW160467   0.232   8.936   4.256 -1.0649  0.6572  1.0605
18552SOL    HW260468   0.334   8.829   4.290  2.5800  3.4089 -0.5731
18553SOL     OW60469   2.786   6.411   5.669  0.8825 -1.1459  0.1765
18553SOL    HW160470   2.819   6.400   5.579  3.2626 -2.0184  1.0724
18553SOL    HW260471   2.840   6.352   5.721 -0.0874 -0.2600  2.2822
18554SOL     OW60472   6.744  10.206   3.797  0.3231 -0.2206 -0.8329
18554SOL    HW160473   6.757  10.183   3.705 -0.9950 -0.8880 -0.8685
18554SOL    HW260474   6.723  10.299   3.796 -1.8066 -0.6598 -1.4483
18555SOL     OW60475   0.803   2.558   6.468  0.0596 -0.2316  0.0906
18555SOL    HW160476   0.896   2.558   6.490  0.0344 -1.1403  0.2580
18555SOL    HW260477   0.769   2.479   6.510 -0.6602 -0.2392 -0.4889
18556SOL     OW60478  10.865   1.446   4.245  0.1891 -0.0332  0.3280
18556SOL    HW160479  10.839   1.375   4.303 -0.5347  0.6310  0.8357
18556SOL    HW260480  10.941   1.412   4.197 -2.5080 -2.7885 -2.5057
18557SOL     OW60481   8.685  12.276   2.120 -0.4616  0.4607 -0.5449
18557SOL    HW160482   8.660  12.369   2.126 -0.8060  0.2781  1.6202
18557SOL    HW260483   8.602  12.229   2.126 -0.7533 -0.0605 -5.2302
18558SOL     OW60484   8.481  10.135   3.877 -0.0713  0.0634  0.1006
18558SOL    HW160485   8.546  10.073   3.845  1.2790  1.6421 -0.3408
18558SOL    HW260486   8.509  10.156   3.966  0.3741  1.1695 -0.2837
18559SOL     OW60487   6.180   8.626   0.702  0.3392 -0.7150  0.1599
18559SOL    HW160488   6.230   8.547   0.721  0.5997 -0.5058  0.3511
18559SOL    HW260489   6.242   8.697   0.715  0.1523 -0.4875 -0.1743
18560SOL     OW60490   5.531   7.725   8.996  0.3391  1.0562  0.5646
18560SOL    HW160491   5.517   7.633   8.973 -1.0323  1.4058 -0.0998
18560SOL    HW260492   5.626   7.735   9.000  0.5008 -0.4889  1.0703
18561SOL     OW60493   6.829   8.948   3.624  0.6832  0.1683 -0.2877
18561SOL    HW160494   6.850   8.984   3.710  0.2418 -1.3922  0.5270
18561SOL    HW260495   6.810   9.024   3.569  1.5642  1.2242  0.8269
18562SOL     OW60496   4.935   3.495   9.153  0.1641 -0.5267  0.5800
18562SOL    HW160497   4.867   3.556   9.127  1.7759  0.1883 -2.4484
18562SOL    HW260498   4.893   3.409   9.149 -1.2553  0.0872  1.6200
18563SOL     OW60499   1.589   3.159  12.632  0.7497  0.3795 -0.1798
18563SOL    HW160500   1.568   3.171  12.725 -0.7888 -0.4745 -0.3882
18563SOL    HW260501   1.518   3.204  12.586  0.1704 -1.2230 -0.9163
18564SOL     OW60502   9.931  11.003   8.826  0.6113  0.1166 -0.1562
18564SOL    HW160503  10.014  11.048   8.816 -0.4550  1.6370 -3.5710
18564SOL    HW260504   9.866  11.073   8.832 -0.6965 -0.9597 -1.1299
18565SOL     OW60505  10.098   6.550   2.924  0.1127  0.2920 -0.1717
18565SOL    HW160506  10.092   6.472   2.869 -2.5951  0.0874  0.2854
18565SOL    HW260507  10.064   6.621   2.868  0.8148  0.8041  0.0384
18566SOL     OW60508   6.874   7.485   0.803  0.3048 -0.3823  0.0043
18566SOL    HW160509   6.943   7.419   0.803 -0.2997 -1.0636 -1.5915
18566SOL    HW260510   6.836   7.480   0.716 -1.0193  0.7730  0.4756
18567SOL     OW60511   1.829   1.184   5.173 -0.0105  0.2202 -0.4813
18567SOL    HW160512   1.787   1.102   5.149 -0.0495  0.4603 -1.2551
18567SOL    HW260513   1.757   1.244   5.190  0.0176  0.2342 -0.4114
18568SOL     OW60514   3.045   9.676   1.310  0.4024 -0.0570  0.3293
18568SOL    HW160515   3.045   9.693   1.215 -0.2195  0.2526  0.3730
18568SOL    HW260516   3.040   9.581   1.317  2.4189 -0.2238  0.0674
18569SOL     OW60517   2.144   3.258  12.591  0.1838 -0.8734  0.4888
18569SOL    HW160518   2.053   3.245  12.615 -0.4372  0.0534 -1.1643
18569SOL    HW260519   2.164   3.184  12.533 -0.5212  0.4593 -1.5838
18570SOL     OW60520   5.031   1.764   7.946 -0.4095  0.1329 -0.5180
18570SOL    HW160521   5.059   1.780   8.036  0.8379 -0.1430 -0.8395
18570SOL    HW260522   5.106   1.789   7.893 -1.0173 -0.0122 -1.4634
18571SOL     OW60523   0.074   2.169   2.296 -0.0965  0.2942 -0.4640
18571SOL    HW160524  -0.013   2.149   2.263 -0.2841 -0.6252  0.5207
18571SOL    HW260525   0.084   2.114   2.374  1.6203 -0.1408 -0.9329
18572SOL     OW60526  11.166   5.438   4.394  0.0949  0.6993 -0.3626
18572SOL    HW160527  11.212   5.359   4.365  0.2877  1.4005 -2.0721
18572SOL    HW260528  11.173   5.499   4.321 -0.5264  2.1238  0.6985
18573SOL     OW60529   4.379   3.559   3.516  0.1389  0.3576  0.2124
18573SOL    HW160530   4.444   3.526   3.454 -0.3302  1.4128 -0.8893
18573SOL    HW260531   4.427   3.571   3.597  0.7108 -1.3294  0.1763
18574SOL     OW60532   9.254   4.280  11.720 -0.4323  0.2544 -0.2023
18574SOL    HW160533   9.296   4.331  11.650 -0.6368 -2.1891 -2.2248
18574SOL    HW260534   9.296   4.194  11.716 -0.1798  0.1094  3.0239
18575SOL     OW60535   6.552   9.137   9.919 -0.2309 -0.3299  0.6393
18575SOL    HW160536   6.529   9.216   9.870 -0.9492 -1.2459 -0.5625
18575SOL    HW260537   6.477   9.123   9.978 -1.5819 -1.7498 -1.2924
18576SOL     OW60538   5.479   8.244   4.564 -0.5943  0.5970  0.1215
18576SOL    HW160539   5.405   8.250   4.624 -2.1710 -0.9745 -1.5271
18576SOL    HW260540   5.521   8.160   4.585  0.1099  0.9952  0.3523
18577SOL     OW60541  10.871   3.668   1.645  0.4137  0.1182 -0.4381
18577SOL    HW160542  10.790   3.707   1.614  0.3724 -0.3765 -0.9718
18577SOL    HW260543  10.906   3.622   1.569 -0.0453 -1.7220  0.4079
18578SOL     OW60544  10.096   9.623   1.657  0.4485  0.4045  0.2441
18578SOL    HW160545  10.077   9.677   1.580 -0.7471 -0.8976 -0.4117
18578SOL    HW260546  10.183   9.653   1.686  1.7992 -0.2823 -2.7055
18579SOL     OW60547   4.946   5.868  12.200  0.6706  0.2715  0.4804
18579SOL    HW160548   5.004   5.920  12.255 -0.4559  1.0013  1.0304
18579SOL    HW260549   4.960   5.902  12.112  1.2699  0.2536  0.5652
18580SOL     OW60550   8.247   1.654   9.321  0.4043  0.5070  0.0803
18580SOL    HW160551   8.198   1.572   9.332  0.2000  0.2198 -2.4732
18580SOL    HW260552   8.335   1.625   9.296 -0.1012  0.9760 -2.5308
18581SOL     OW60553   4.611   1.918  10.362  0.0975 -0.5382 -0.0692
18581SOL    HW160554   4.542   1.907  10.427 -0.9327  0.6507 -0.9168
18581SOL    HW260555   4.653   2.000  10.386  1.2766 -1.2619  0.4518
18582SOL     OW60556   4.238   6.668   4.361 -0.9723 -0.0461 -0.3882
18582SOL    HW160557   4.222   6.712   4.445  2.5720  2.3406 -0.7217
18582SOL    HW260558   4.331   6.686   4.342 -1.2540 -1.6307 -4.1951
18583SOL     OW60559   4.016   0.959  10.222 -0.0505  0.4932 -0.1588
18583SOL    HW160560   3.949   0.931  10.160 -0.2972  1.5915 -0.4099
18583SOL    HW260561   4.097   0.961  10.171  0.7344 -3.0699  0.6654
18584SOL     OW60562   0.463   7.849   1.513  0.0771  0.0748 -0.9088
18584SOL    HW160563   0.484   7.850   1.606  1.9087 -0.1246 -1.2944
18584SOL    HW260564   0.454   7.941   1.489  1.5865  0.2303 -0.9387
18585SOL     OW60565   7.925   2.243   4.329  0.5120 -0.3070 -0.0317
18585SOL    HW160566   8.007   2.207   4.363  0.2249 -1.4164 -0.4513
18585SOL    HW260567   7.911   2.195   4.247 -0.9468 -0.7179  0.4289
18586SOL     OW60568  11.146   8.295  10.678  0.0699  0.2755 -0.9159
18586SOL    HW160569  11.092   8.272  10.603 -0.9401 -1.7095  0.3475
18586SOL    HW260570  11.236   8.286  10.647 -0.3347 -0.3968 -1.9265
18587SOL     OW60571  12.265  10.889   9.852 -0.2883 -0.4653  0.4034
18587SOL    HW160572  12.192  10.880   9.912  0.3193 -1.0941  1.0698
18587SOL    HW260573  12.339  10.850   9.898 -0.1718 -2.6897 -1.4668
18588SOL     OW60574   6.772   6.396   3.847  0.5124 -0.2626 -0.4068
18588SOL    HW160575   6.859   6.431   3.864  0.2486  0.2121  0.0233
18588SOL    HW260576   6.726   6.405   3.930 -0.6031  1.4737 -1.1239
18589SOL     OW60577   7.516   0.562   5.097  0.3103  0.0110 -0.0082
18589SOL    HW160578   7.463   0.519   5.030 -0.8507  0.7749  0.3965
18589SOL    HW260579   7.590   0.598   5.049  0.0869 -0.4183 -0.7010
18590SOL     OW60580   2.174   0.289   6.745  0.3901  0.2698 -0.4407
18590SOL    HW160581   2.269   0.280   6.756  0.2065 -0.5975  0.6605
18590SOL    HW260582   2.163   0.311   6.653  1.6490  0.0404 -0.6724
18591SOL     OW60583   9.501  11.965  11.275 -0.0617  0.5258  0.1431
18591SOL    HW160584   9.532  12.056  11.281 -0.0027  0.5261 -0.1511
18591SOL    HW260585   9.466  11.958  11.186  1.7545 -0.3045 -0.5588
18592SOL     OW60586   0.602   2.944   1.850 -0.2455 -0.0670 -0.2683
18592SOL    HW160587   0.650   2.946   1.767 -1.1452  2.3640 -0.8309
18592SOL    HW260588   0.656   2.995   1.910 -0.3931 -0.4212  0.1683
18593SOL     OW60589   2.763  10.082  10.725  0.0460 -0.2522  0.2833
18593SOL    HW160590   2.723  10.153  10.673  1.2390  0.1626 -0.0863
18593SOL    HW260591   2.844  10.062  10.679 -0.4934 -2.2145  0.1100
18594SOL     OW60592   5.712   1.063   8.167  0.1865 -0.1552 -0.6262
18594SOL    HW160593   5.677   1.080   8.079  0.0619  2.6857 -0.1347
18594SOL    HW260594   5.642   1.091   8.226  1.6396  1.6358  0.3588
18595SOL     OW60595   5.232   0.467   6.689 -0.0567 -0.5479 -0.1637
18595SOL    HW160596   5.262   0.453   6.779 -1.8963 -0.3060  0.5365
18595SOL    HW260597   5.212   0.561   6.686  0.2886 -0.4923 -0.9420
18596SOL     OW60598   2.660   5.277   2.862  0.3856 -0.2256  0.0740
18596SOL    HW160599   2.580   5.309   2.821 -0.4518  0.7301  2.3102
18596SOL    HW260600   2.731   5.321   2.815 -0.3554 -0.9564 -1.8181
18597SOL     OW60601   6.252   0.167   3.292  0.2887  0.2796 -0.1822
18597SOL    HW160602   6.309   0.228   3.244  0.9243 -1.0671 -1.2265
18597SOL    HW260603   6.222   0.106   3.225 -0.3230 -0.5598  0.8368
18598SOL     OW60604   2.146   5.334   1.387 -0.4915  0.2111  0.4264
18598SOL    HW160605   2.196   5.331   1.305 -1.9522  0.1191 -0.4985
18598SOL    HW260606   2.099   5.418   1.383 -2.1467 -0.6864  0.1722
18599SOL     OW60607   2.778   9.878   2.816 -0.4970 -0.5343  0.3991
18599SOL    HW160608   2.837   9.934   2.867  0.8971  1.3651 -2.9999
18599SOL    HW260609   2.823   9.793   2.814  1.9023  0.6489 -1.4530
18600SOL     OW60610   1.102   3.301   7.580  0.0507 -0.8323 -0.4118
18600SOL    HW160611   1.110   3.353   7.659 -1.8262 -0.2967 -0.5178
18600SOL    HW260612   1.053   3.356   7.519 -0.2375 -1.9606 -1.2472
18601SOL     OW60613   1.647   9.739   0.418  0.3037  0.2702 -0.2997
18601SOL    HW160614   1.736   9.738   0.383  1.2482  0.0379  1.9303
18601SOL    HW260615   1.613   9.651   0.401  1.0427 -0.0985  0.1187
18602SOL     OW60616   0.957   0.807  11.031  0.3856  0.1256  0.3751
18602SOL    HW160617   0.887   0.826  11.094  0.6634  0.0805  0.7040
18602SOL    HW260618   0.984   0.893  10.998 -0.8539  0.0439 -0.8936
18603SOL     OW60619   9.914   9.170   5.747 -0.0707 -0.9877  0.6274
18603SOL    HW160620   9.826   9.137   5.766 -0.9473  0.4398 -0.6931
18603SOL    HW260621   9.914   9.259   5.781  0.7159 -0.8204  0.2009
18604SOL     OW60622   1.619   2.133  10.739 -0.6761  0.0572  0.2404
18604SOL    HW160623   1.697   2.185  10.720 -1.2509  0.9651  0.3360
18604SOL    HW260624   1.653   2.045  10.755  0.2731  0.3085 -0.2977
18605SOL     OW60625   2.686   3.834  10.826 -0.0653 -0.2967 -0.0468
18605SOL    HW160626   2.664   3.788  10.907  1.6395 -0.3843  0.4077
18605SOL    HW260627   2.632   3.913  10.827  0.5964  0.1878  1.6711
18606SOL     OW60628   3.527  10.156   0.803 -0.3669 -0.1883 -0.4633
18606SOL    HW160629   3.490  10.133   0.889  0.7946  1.8658  0.6506
18606SOL    HW260630   3.538  10.251   0.806 -1.1877  0.0894 -3.3017
18607SOL     OW60631   9.904   6.485  11.258  0.2638 -0.4815 -0.6055
18607SOL    HW160632   9.998   6.499  11.246  0.8079 -1.1400  2.1475
18607SOL    HW260633   9.887   6.401  11.216  0.8668 -0.3232 -1.1972
18608SOL     OW60634   5.550   0.920   6.794 -0.6549  0.1235  0.3093
18608SOL    HW160635   5.515   1.008   6.806 -0.3920  0.2336  0.2850
18608SOL    HW260636   5.570   0.914   6.701 -1.8037 -0.3946  0.0758
18609SOL     OW60637   3.631  10.285   1.512  0.9204 -0.0058  0.1078
18609SOL    HW160638   3.609  10.195   1.536 -3.4259  0.8180  0.1074
18609SOL    HW260639   3.611  10.337   1.591 -1.4990  1.3673 -1.2774
18610SOL     OW60640   0.329   8.114   3.428 -0.5447 -0.1049 -0.2351
18610SOL    HW160641   0.366   8.033   3.393 -2.2230 -0.9154 -0.2219
18610SOL    HW260642   0.276   8.149   3.357 -1.5129 -0.1382  0.4587
18611SOL     OW60643   2.955  11.532  11.340 -0.2618 -0.3883 -0.0501
18611SOL    HW160644   2.898  11.594  11.294 -0.0385 -0.4354 -0.3909
18611SOL    HW260645   2.895  11.464  11.373 -0.5518  0.1883  0.6344
18612SOL     OW60646   4.373   8.001  11.704  0.5267 -0.3482  0.0308
18612SOL    HW160647   4.460   8.039  11.708  0.8466 -1.1740  1.4480
18612SOL    HW260648   4.385   7.909  11.727 -0.6147 -0.6584 -0.5170
18613SOL     OW60649  10.078   6.113   4.650 -0.0183 -0.3446  0.2331
18613SOL    HW160650  10.099   6.184   4.589 -2.2881 -0.6716 -1.0039
18613SOL    HW260651  10.163   6.092   4.690  1.5529  0.1035 -2.5499
18614SOL     OW60652   9.121   9.606   6.917  0.5706 -0.3977  0.0344
18614SOL    HW160653   9.169   9.687   6.934  0.1443  0.0376 -0.8060
18614SOL    HW260654   9.060   9.599   6.991 -0.1867  0.6597 -0.4637
18615SOL     OW60655   0.848   2.148   0.836 -0.0023  0.1674 -0.4266
18615SOL    HW160656   0.805   2.087   0.776  0.5046 -2.7297  1.9385
18615SOL    HW260657   0.933   2.165   0.796  0.6526 -2.3377 -0.2962
18616SOL     OW60658  10.869   8.565  11.005 -0.3203 -0.0793  0.5154
18616SOL    HW160659  10.894   8.472  11.011  0.9212  0.2901  2.0003
18616SOL    HW260660  10.944   8.611  11.043 -1.5270  1.4322  1.1619
18617SOL     OW60661   4.910   5.391   9.758 -0.1404  0.2933  0.0135
18617SOL    HW160662   4.849   5.368   9.828 -1.5154  0.1785 -1.1798
18617SOL    HW260663   4.880   5.341   9.682  2.0928 -0.6158 -0.3795
18618SOL     OW60664   6.415  10.483   8.743 -0.3023  0.0186 -0.2743
18618SOL    HW160665   6.361  10.408   8.767  1.7806 -0.9761  1.6419
18618SOL    HW260666   6.476  10.449   8.678  0.1306  0.2704 -0.0052
18619SOL     OW60667   0.620   1.006   6.067  0.4183  0.2838 -0.3677
18619SOL    HW160668   0.657   1.000   6.155 -3.0528 -1.9475  1.1367
18619SOL    HW260669   0.658   0.931   6.020 -0.7317 -0.9448  0.5967
18620SOL     OW60670   0.967   0.626   6.072  0.4747  0.1974 -0.3039
18620SOL    HW160671   0.965   0.605   6.165  1.3783 -1.6854 -0.6556
18620SOL    HW260672   0.986   0.542   6.029  0.0829  1.0180 -2.1815
18621SOL     OW60673  10.693  12.636   6.659 -0.2826 -0.3601 -0.4133
18621SOL    HW160674  10.744  12.716   6.648  1.7127 -1.1054  2.3286
18621SOL    HW260675  10.748  12.567   6.623 -1.0207 -0.7684 -0.7917
18622SOL     OW60676   5.484   3.780  10.395 -0.2843  0.1046  0.0681
18622SOL    HW160677   5.562   3.835  10.400 -0.0959  0.1746 -2.2665
18622SOL    HW260678   5.411   3.840  10.408 -0.0050  0.1213  1.7708
18623SOL     OW60679  10.986   5.492  10.238 -0.5100 -0.5556  0.3721
18623SOL    HW160680  10.959   5.407  10.274 -0.9177 -0.5577  0.0641
18623SOL    HW260681  11.055   5.470  10.176  0.8752 -0.4733  1.8103
18624SOL     OW60682   4.540  11.253   1.207 -0.4927 -0.4966  0.0033
18624SOL    HW160683   4.526  11.249   1.301  0.1314  1.2818  0.2125
18624SOL    HW260684   4.455  11.278   1.171 -0.7135 -1.1043  0.0898
18625SOL     OW60685   4.055   5.799   6.232 -0.2273  0.1395  0.3083
18625SOL    HW160686   4.095   5.736   6.292 -1.0244 -0.2811  0.4166
18625SOL    HW260687   4.045   5.750   6.150 -1.0526  0.0487  0.4595
18626SOL     OW60688   9.761   5.145   6.304  0.1344  0.4824  0.4681
18626SOL    HW160689   9.815   5.186   6.372  1.4196  0.1528 -0.3201
18626SOL    HW260690   9.756   5.053   6.329  0.1144  0.4725  0.4274
18627SOL     OW60691   6.918   0.807   1.680  0.3661 -0.3066 -0.5396
18627SOL    HW160692   6.879   0.882   1.635  1.8228  0.0845 -1.2081
18627SOL    HW260693   7.007   0.835   1.701  0.8422 -1.7485 -0.5175
18628SOL     OW60694   1.797   0.258   7.918 -0.2050 -0.0862 -0.3970
18628SOL    HW160695   1.814   0.285   7.828 -0.2359 -0.3043 -0.4705
18628SOL    HW260696   1.834   0.327   7.972  0.5517 -0.3539 -0.5629
18629SOL     OW60697   9.406  11.002  10.023  0.1419 -0.2267  0.0698
18629SOL    HW160698   9.486  11.039   9.986  0.2743 -0.8916 -0.3237
18629SOL    HW260699   9.410  11.022  10.117  0.1938  0.7703 -0.1413
18630SOL     OW60700  12.532   2.681   0.456  0.2702  0.0767 -0.2206
18630SOL    HW160701  12.508   2.695   0.548  3.3270 -0.4238  0.7443
18630SOL    HW260702  12.502   2.591   0.438  1.0535 -0.4157  0.8187
18631SOL     OW60703  11.802   1.153   2.878  0.2614  0.0707  0.1043
18631SOL    HW160704  11.844   1.073   2.909 -2.2636 -1.2748  0.3021
18631SOL    HW260705  11.731   1.122   2.821  0.6281  2.2691 -1.7046
18632SOL     OW60706  12.106   9.156   4.886  0.4382  0.0364  0.2026
18632SOL    HW160707  12.120   9.231   4.827 -0.9387 -0.4682 -0.8246
18632SOL    HW260708  12.031   9.181   4.940 -0.0208 -0.5833 -0.1354
18633SOL     OW60709   7.958   5.864  11.999  0.3085 -0.3471  0.2793
18633SOL    HW160710   7.870   5.859  11.961 -0.4337 -1.1288  1.9547
18633SOL    HW260711   7.945   5.906  12.084  1.3667 -1.4428  1.0179
18634SOL     OW60712  10.881  11.402   0.468  0.4367  0.5667  0.2498
18634SOL    HW160713  10.826  11.362   0.535  1.7198 -1.1062  0.3785
18634SOL    HW260714  10.941  11.458   0.518 -0.4519  1.5995  0.1979
18635SOL     OW60715  11.645   4.392   6.302 -0.3248 -0.4489 -0.3421
18635SOL    HW160716  11.582   4.426   6.365 -0.8284 -1.7129 -0.1286
18635SOL    HW260717  11.715   4.354   6.355  0.1526  0.1008 -0.5684
18636SOL     OW60718   8.768   3.306   7.850  0.5129 -0.0653 -0.7621
18636SOL    HW160719   8.752   3.273   7.762  0.1145  0.7087 -0.9844
18636SOL    HW260720   8.734   3.395   7.850 -2.3281 -1.0258  1.0555
18637SOL     OW60721   6.183   2.524   4.954  0.0860  0.1931 -0.5738
18637SOL    HW160722   6.168   2.618   4.945  0.8325  0.3522 -0.2612
18637SOL    HW260723   6.261   2.518   5.009  0.0162 -0.6125 -0.5549
18638SOL     OW60724  11.898   1.514   2.563  0.0972 -0.0660 -0.3893
18638SOL    HW160725  11.872   1.476   2.479  1.5172 -1.4321 -0.2429
18638SOL    HW260726  11.817   1.551   2.598 -0.6916 -0.1900 -1.9641
18639SOL     OW60727  12.086   8.848   5.690  0.3109 -0.1763 -0.3434
18639SOL    HW160728  12.176   8.860   5.720  0.3011  0.6871 -0.6227
18639SOL    HW260729  12.093   8.790   5.615  0.7051  0.3600 -0.7271
18640SOL     OW60730  12.242   4.566   0.652  0.2202 -0.3217  0.3076
18640SOL    HW160731  12.285   4.593   0.570  0.1385 -1.3880 -0.1061
18640SOL    HW260732  12.276   4.478   0.668  2.3428  0.8200  2.8935
18641SOL     OW60733   7.675  12.274   5.630  0.4174 -0.4310  0.0183
18641SOL    HW160734   7.684  12.189   5.587  1.2996 -1.1632  1.5329
18641SOL    HW260735   7.705  12.258   5.720  0.9974  1.5768  0.2306
18642SOL     OW60736   7.189   5.797   4.504 -0.7630  0.1400  0.2371
18642SOL    HW160737   7.172   5.703   4.513  0.8846 -0.2506 -0.3044
18642SOL    HW260738   7.159   5.819   4.416  1.9932 -0.7335 -1.0544
18643SOL     OW60739   9.186   6.237  12.606  0.4697  0.1211  0.4980
18643SOL    HW160740   9.188   6.255  12.700  0.4914  0.6662  0.3952
18643SOL    HW260741   9.157   6.319  12.566  1.5921  0.2582 -0.0651
18644SOL     OW60742   6.223   8.140  10.259  0.7560 -0.5996  0.0552
18644SOL    HW160743   6.254   8.059  10.219  1.3628 -0.1648 -0.3762
18644SOL    HW260744   6.302   8.194  10.268  0.6771 -0.7218  1.9394
18645SOL     OW60745   6.378   3.548   9.169  0.3105 -0.6089 -0.0765
18645SOL    HW160746   6.375   3.513   9.258  1.5020  0.0675  0.2630
18645SOL    HW260747   6.466   3.526   9.138  0.1788 -0.1509 -0.7937
18646SOL     OW60748  10.309   3.239  12.188 -0.5693  0.2707 -0.7441
18646SOL    HW160749  10.385   3.296  12.197 -2.6659  3.1467  0.1007
18646SOL    HW260750  10.237   3.298  12.167 -2.8312 -2.1569 -0.3431
18647SOL     OW60751   7.409   0.813   6.379  0.1799 -0.4273  0.1949
18647SOL    HW160752   7.379   0.896   6.416  1.4432 -0.8085  2.1808
18647SOL    HW260753   7.406   0.751   6.452 -0.4679 -2.0946 -1.1745
18648SOL     OW60754   4.327   1.198   2.478  0.4716 -0.1113 -0.4298
18648SOL    HW160755   4.359   1.273   2.429  2.1180 -0.1613  0.4788
18648SOL    HW260756   4.284   1.143   2.413  0.8617  0.7453 -1.4398
18649SOL     OW60757   0.600   4.615   6.829 -0.0040 -0.5723  0.5278
18649SOL    HW160758   0.514   4.574   6.826 -1.1600  1.7210 -2.1286
18649SOL    HW260759   0.596   4.674   6.904 -1.3504  0.5436 -0.3670
18650SOL     OW60760   2.867   6.706   3.517  0.2415 -0.0449 -0.1054
18650SOL    HW160761   2.951   6.691   3.473 -0.2734 -1.5530 -0.6243
18650SOL    HW260762   2.880   6.671   3.605  0.1690 -0.2398 -0.1723
18651SOL     OW60763   7.688   2.767  11.514 -0.4035  0.1578  0.1088
18651SOL    HW160764   7.772   2.742  11.553  0.3234  0.6443 -1.0931
18651SOL    HW260765   7.669   2.698  11.451 -0.8235  0.1562  0.2276
18652SOL     OW60766   6.526  10.870   6.689  0.0702 -0.6067  0.6953
18652SOL    HW160767   6.603  10.818   6.668  1.0171  0.0915  2.2281
18652SOL    HW260768   6.484  10.887   6.605  0.9999 -1.8976 -0.0509
18653SOL     OW60769   7.052   2.898   7.625 -0.5753  0.4237 -0.0704
18653SOL    HW160770   6.976   2.948   7.594 -1.6746 -1.1544 -0.0417
18653SOL    HW260771   7.047   2.905   7.721 -2.0910 -1.5565  0.0567
18654SOL     OW60772   0.197  11.221   4.906 -0.5172 -0.3634 -0.3757
18654SOL    HW160773   0.236  11.303   4.876 -0.5774 -0.3380 -0.3870
18654SOL    HW260774   0.107  11.224   4.873 -0.4896 -0.4792 -0.4578
18655SOL     OW60775  10.410   5.215   4.299 -0.0601  0.5728  0.1415
18655SOL    HW160776  10.352   5.139   4.293  0.3025  0.3185 -0.1969
18655SOL    HW260777  10.495   5.183   4.268  0.4304  0.7736  1.2353
18656SOL     OW60778   5.769  11.226   6.482 -0.4563  0.2744  0.3093
18656SOL    HW160779   5.730  11.309   6.455 -0.3073  0.5237  0.8639
18656SOL    HW260780   5.695  11.175   6.516 -0.5271  0.2165  0.0759
18657SOL     OW60781  10.014   3.761   7.721  0.0600 -0.4483 -0.4626
18657SOL    HW160782  10.012   3.790   7.630  0.1761 -1.3969 -0.7768
18657SOL    HW260783  10.016   3.665   7.716 -0.9399 -0.5436  0.5426
18658SOL     OW60784   4.158   6.545   0.128  0.1823  0.1549 -0.0464
18658SOL    HW160785   4.203   6.626   0.104 -0.0222  0.0072 -0.9743
18658SOL    HW260786   4.084   6.573   0.182 -0.1038  0.6287 -0.6698
18659SOL     OW60787   8.303   0.058   6.188 -0.7361  0.1676  0.0570
18659SOL    HW160788   8.297   0.131   6.249 -0.8392  0.9929 -0.9105
18659SOL    HW260789   8.220   0.010   6.199 -0.5241 -0.0092  0.9301
18660SOL     OW60790   8.281   7.902   2.409 -0.3173 -0.0476 -0.3862
18660SOL    HW160791   8.332   7.855   2.343 -0.0829 -0.5901  0.1787
18660SOL    HW260792   8.213   7.841   2.435 -1.1177  0.5796 -0.9465
18661SOL     OW60793   0.573   0.603   7.774  0.3266 -0.2712 -0.1193
18661SOL    HW160794   0.559   0.631   7.864  2.1294 -1.2649  0.5249
18661SOL    HW260795   0.656   0.643   7.749 -0.3036  0.2349 -1.4593
18662SOL     OW60796   8.502  10.168   0.447  0.3133  0.0346  0.0468
18662SOL    HW160797   8.586  10.156   0.490 -0.1862  0.2821  1.1133
18662SOL    HW260798   8.437  10.160   0.517 -0.8614 -3.6847 -1.2037
18663SOL     OW60799  10.162   0.387  11.698 -0.0226 -0.3365  0.1393
18663SOL    HW160800  10.231   0.441  11.737 -0.1907 -0.8302  1.1460
18663SOL    HW260801  10.206   0.305  11.676 -0.2796 -0.6403  0.7525
18664SOL     OW60802   1.586   6.881   7.907  0.4156 -0.1802 -0.2502
18664SOL    HW160803   1.499   6.874   7.869 -0.4831 -0.5784  1.7657
18664SOL    HW260804   1.597   6.802   7.960  2.2582 -0.4342 -0.9225
18665SOL     OW60805   0.884   8.500   3.683 -0.0349  0.6044  0.4362
18665SOL    HW160806   0.917   8.510   3.594 -0.6284  0.2267  0.1633
18665SOL    HW260807   0.961   8.505   3.739  0.4426  0.0109 -0.1626
18666SOL     OW60808   6.845  12.111  10.256 -0.1032 -0.3189  0.1267
18666SOL    HW160809   6.898  12.043  10.213 -0.7713 -2.0271  1.8680
18666SOL    HW260810   6.907  12.179  10.280  0.8525 -1.0227 -0.2926
18667SOL     OW60811   4.581   6.813  10.230  0.3259 -0.7751 -0.2650
18667SOL    HW160812   4.568   6.792  10.137  0.9771 -0.9178 -0.3235
18667SOL    HW260813   4.669   6.851  10.234  0.5115 -1.2709  0.3856
18668SOL     OW60814   1.821   1.197   4.036  0.1937 -0.0018 -0.2568
18668SOL    HW160815   1.774   1.249   4.102 -0.4834  0.4868 -1.1050
18668SOL    HW260816   1.893   1.253   4.008  1.1619 -0.6510  0.8577
18669SOL     OW60817   8.893   0.215   7.545 -0.3411 -0.3415  0.3759
18669SOL    HW160818   8.908   0.163   7.624 -0.2177 -0.9266 -0.0303
18669SOL    HW260819   8.936   0.299   7.564  1.0231 -0.9995  0.3558
18670SOL     OW60820   8.485   6.137  11.968  0.0595 -0.0062 -0.3438
18670SOL    HW160821   8.549   6.067  11.975 -0.6317 -0.7933 -1.6218
18670SOL    HW260822   8.426   6.123  12.042  1.0309  0.4078  0.5307
18671SOL     OW60823   0.293  11.279   7.124  0.1064  0.1638  0.2683
18671SOL    HW160824   0.378  11.234   7.122 -1.3846 -2.9041  0.6063
18671SOL    HW260825   0.264  11.270   7.215 -1.5044 -0.7720 -0.3104
18672SOL     OW60826   9.380   8.161   0.696 -0.1298  0.2367  0.2390
18672SOL    HW160827   9.324   8.204   0.761 -1.7348 -1.3699  0.0116
18672SOL    HW260828   9.409   8.081   0.740 -0.7660 -0.5830 -0.7790
18673SOL     OW60829   0.650  10.618   6.850 -0.3211 -0.1979 -0.1238
18673SOL    HW160830   0.579  10.627   6.914  0.5082  0.5587  0.7083
18673SOL    HW260831   0.730  10.629   6.901  0.4158 -1.0287 -1.0519
18674SOL     OW60832   7.637   5.236   1.655 -0.0578 -0.0138 -0.6791
18674SOL    HW160833   7.674   5.180   1.586 -1.2449 -0.8965 -0.6264
18674SOL    HW260834   7.707   5.298   1.675  1.3389 -1.5243 -0.6902
18675SOL     OW60835   4.363   6.059   8.471  0.5447 -0.7533  0.0800
18675SOL    HW160836   4.344   6.148   8.502  1.7010 -0.8746  1.2069
18675SOL    HW260837   4.277   6.024   8.445 -0.1124  0.2290  0.8528
18676SOL     OW60838   5.431   3.545   2.204  0.2460  0.7846  0.4644
18676SOL    HW160839   5.362   3.564   2.141  0.8969  0.6510 -0.3133
18676SOL    HW260840   5.396   3.473   2.257  0.2587 -0.1473 -0.7437
18677SOL     OW60841   6.585   4.459   5.062  0.2878  0.0392 -0.2963
18677SOL    HW160842   6.592   4.429   4.971 -1.5919 -0.9795 -0.1393
18677SOL    HW260843   6.493   4.479   5.075  0.4162 -0.3480  1.5513
18678SOL     OW60844   3.772   6.496   6.238  0.8245  0.1152  0.3038
18678SOL    HW160845   3.767   6.507   6.143  1.3299 -1.0826  0.1296
18678SOL    HW260846   3.701   6.435   6.260  1.0427 -0.0262  0.6290
18679SOL     OW60847   8.777  10.228   9.568 -0.1334 -0.2116  0.0363
18679SOL    HW160848   8.760  10.321   9.586 -0.0134 -0.0939 -0.4610
18679SOL    HW260849   8.739  10.182   9.643  1.2430  0.3404  1.1117
18680SOL     OW60850  11.166  12.284   3.990 -0.1875  0.4640  0.2184
18680SOL    HW160851  11.151  12.190   3.995  0.5714  0.3902  1.3259
18680SOL    HW260852  11.080  12.323   4.006 -0.2222 -0.0302  1.3136
18681SOL     OW60853  11.900   2.000   1.464 -0.8947 -0.4114  0.3769
18681SOL    HW160854  11.816   1.982   1.422  0.3666 -0.3120 -2.4554
18681SOL    HW260855  11.965   1.982   1.395  1.2459  2.2447  1.5341
18682SOL     OW60856  10.124   3.855   5.300  0.1134 -0.4763  0.2117
18682SOL    HW160857  10.100   3.786   5.238 -0.6232 -0.7526  0.7860
18682SOL    HW260858  10.220   3.859   5.296  0.0514  0.4653 -1.9465
18683SOL     OW60859  11.043   1.853   8.309  0.4437  0.4174 -0.3812
18683SOL    HW160860  11.131   1.879   8.279 -0.2540  0.6046 -2.4243
18683SOL    HW260861  11.038   1.760   8.289  1.2196 -0.3671  2.5740
18684SOL     OW60862   0.838   6.219  10.601  0.3422 -0.0642  0.6569
18684SOL    HW160863   0.823   6.313  10.593  1.5270  0.1064  0.1731
18684SOL    HW260864   0.933   6.210  10.598  0.2713 -1.5722 -3.3569
18685SOL     OW60865   2.064   6.487   0.257  0.1235  0.1303  0.3196
18685SOL    HW160866   2.091   6.460   0.345  2.1407  0.4052 -0.1609
18685SOL    HW260867   2.142   6.474   0.203 -1.1481 -0.2858 -1.5100
18686SOL     OW60868   7.216   5.011   3.915  0.2036  0.5845  0.3621
18686SOL    HW160869   7.163   5.077   3.960 -0.5500  0.5601 -0.4626
18686SOL    HW260870   7.169   4.929   3.929  0.8672  0.2917  0.9491
18687SOL     OW60871   1.170   3.370   6.831  0.1224  0.3220  0.3030
18687SOL    HW160872   1.225   3.415   6.896  0.3513 -0.1667  0.4535
18687SOL    HW260873   1.093   3.426   6.821  0.7818  1.1789 -0.1299
18688SOL     OW60874   9.685   9.075   6.531  0.0108 -0.3356  0.0937
18688SOL    HW160875   9.760   9.019   6.512 -0.7487 -0.7969 -1.8414
18688SOL    HW260876   9.722   9.159   6.556  1.1685 -0.6001 -0.6790
18689SOL     OW60877   4.105   7.471   3.517  0.1305  0.3587  0.0495
18689SOL    HW160878   4.168   7.413   3.473  0.1910  1.6253 -1.6226
18689SOL    HW260879   4.102   7.549   3.462 -2.9117  0.3513  0.0402
18690SOL     OW60880   6.905   1.032   8.593  0.5964  0.2292  0.5628
18690SOL    HW160881   6.880   1.123   8.578 -2.9793 -0.6203  0.6066
18690SOL    HW260882   6.881   1.015   8.684 -0.0485 -1.0990  0.1698
18691SOL     OW60883  10.962  11.818   7.655 -0.5711 -0.4817  0.2805
18691SOL    HW160884  10.915  11.735   7.653  0.2179 -0.9317 -1.3955
18691SOL    HW260885  10.903  11.880   7.611  0.2790 -1.0236 -1.7321
18692SOL     OW60886   0.172   9.359   1.274  0.6771  0.2464 -0.4552
18692SOL    HW160887   0.156   9.442   1.318 -1.0437 -0.4785  0.3302
18692SOL    HW260888   0.263   9.366   1.242  1.2382  1.6216  1.3168
18693SOL     OW60889  11.050  11.882   5.656  0.5598  0.3793  0.3150
18693SOL    HW160890  11.093  11.836   5.584 -0.1624  1.8294 -1.0808
18693SOL    HW260891  10.966  11.838   5.666  0.6343  0.2189  0.2335
18694SOL     OW60892   8.040   6.363   0.787  0.3215 -0.0849 -0.0972
18694SOL    HW160893   7.973   6.334   0.725 -1.4105 -0.0515  1.6552
18694SOL    HW260894   8.098   6.288   0.798 -1.9738 -1.7260  1.6040
18695SOL     OW60895   9.126   3.408   6.968 -0.0450 -0.7702  0.4431
18695SOL    HW160896   9.121   3.493   6.925  0.4762 -0.1900  1.4795
18695SOL    HW260897   9.151   3.347   6.898  1.5189  0.2642  0.0404
18696SOL     OW60898  12.127   5.838   3.502 -0.0530 -0.0372  0.3593
18696SOL    HW160899  12.086   5.753   3.516 -1.3812  0.4625 -0.3925
18696SOL    HW260900  12.168   5.831   3.416 -0.1137  0.0699  0.3219
18697SOL     OW60901   3.392   3.018   5.303 -0.1332  1.0465 -0.2057
18697SOL    HW160902   3.484   3.035   5.321 -0.3157  1.6534  0.2205
18697SOL    HW260903   3.387   2.926   5.281  0.4961  0.8757  0.3411
18698SOL     OW60904   8.250   0.308   1.317 -0.0469 -0.3132 -0.3375
18698SOL    HW160905   8.185   0.365   1.360  0.6380 -0.5455  1.0507
18698SOL    HW260906   8.325   0.309   1.376  0.3839 -1.8126 -0.8239
18699SOL     OW60907  11.205   8.438   0.353 -0.5171  0.1314  0.1152
18699SOL    HW160908  11.268   8.510   0.358 -0.6508  0.2559  0.0117
18699SOL    HW260909  11.154   8.445   0.434 -0.0088 -0.3319  0.4827
18700SOL     OW60910  11.372   4.276   7.088  0.3099 -0.2020 -0.4223
18700SOL    HW160911  11.301   4.285   7.151  0.9562 -1.0104  0.4446
18700SOL    HW260912  11.407   4.365   7.078  0.4502 -0.1208  0.6671
18701SOL     OW60913  12.107  11.605   3.904 -0.3679  0.3012 -0.4939
18701SOL    HW160914  12.135  11.696   3.901 -2.6418  1.0619 -2.6145
18701SOL    HW260915  12.064  11.595   3.989  1.6294  0.5531  0.6019
18702SOL     OW60916   1.331   8.663   3.090 -0.1072 -0.1953 -0.2410
18702SOL    HW160917   1.316   8.717   3.013 -0.8936  0.6384  0.4844
18702SOL    HW260918   1.338   8.725   3.162 -0.1927 -1.0105  0.4858
18703SOL     OW60919   5.469   1.844   7.660 -0.4688 -0.9628  0.6144
18703SOL    HW160920   5.541   1.817   7.717  0.3039 -0.7519 -0.2482
18703SOL    HW260921   5.506   1.914   7.606 -1.3384 -0.8107  0.1985
18704SOL     OW60922   2.869   4.902  12.205 -0.1754  0.5111 -0.1196
18704SOL    HW160923   2.816   4.981  12.214 -1.1555 -0.1720  0.2695
18704SOL    HW260924   2.950   4.932  12.165 -0.7883  1.6055 -0.5866
18705SOL     OW60925   8.896   5.477   7.906 -0.4353  0.3112  0.6107
18705SOL    HW160926   8.874   5.458   7.815  3.4161  1.3684 -0.7615
18705SOL    HW260927   8.913   5.392   7.945  0.4227 -0.0508 -0.4920
18706SOL     OW60928   8.719   3.693  10.232 -0.2430  0.4485 -0.5591
18706SOL    HW160929   8.701   3.757  10.163  0.5745  0.8643 -0.4004
18706SOL    HW260930   8.814   3.685  10.233 -0.3310 -0.6642 -0.4655
18707SOL     OW60931  10.904   7.865   1.347  0.0121 -0.7476 -0.5046
18707SOL    HW160932  10.974   7.802   1.366  0.2295 -0.2226  0.5285
18707SOL    HW260933  10.864   7.882   1.433  1.2182  1.9939 -0.3843
18708SOL     OW60934  12.464   2.077   2.240 -0.6474 -0.2201 -0.0139
18708SOL    HW160935  12.424   2.135   2.175  1.7656  1.1405 -0.4275
18708SOL    HW260936  12.463   1.991   2.200 -1.8430  0.0452 -0.5858
18709SOL     OW60937   7.401   8.757   8.504 -0.3972  0.3886 -0.3051
18709SOL    HW160938   7.341   8.685   8.485 -1.2125  0.7931  0.6287
18709SOL    HW260939   7.418   8.798   8.419  0.4259 -1.1466 -0.9163
18710SOL     OW60940  12.214  10.269   7.395 -0.3372 -0.4308  0.4774
18710SOL    HW160941  12.177  10.352   7.427  1.8796  1.1611 -0.7816
18710SOL    HW260942  12.209  10.276   7.299  2.8176 -0.2070  0.2370
18711SOL     OW60943  12.565   2.948   8.467  0.1591 -0.0958 -0.0144
18711SOL    HW160944  12.558   3.032   8.421 -0.6977 -0.7491 -1.1062
18711SOL    HW260945  12.657   2.944   8.495  0.1495  1.3127  0.3064
18712SOL     OW60946   4.987  10.409   0.526  0.2561  0.2038  0.0973
18712SOL    HW160947   4.945  10.396   0.441 -0.9381  0.9077  0.5476
18712SOL    HW260948   4.920  10.385   0.590  0.8615  0.4551  0.8439
18713SOL     OW60949  11.894   3.748   6.303 -0.3767 -0.5683 -0.3364
18713SOL    HW160950  11.926   3.692   6.374 -0.5945 -0.0366  0.1864
18713SOL    HW260951  11.968   3.754   6.243 -0.0663 -0.7368  0.0216
18714SOL     OW60952   3.785   4.092  10.976  0.5159 -0.3636 -0.2556
18714SOL    HW160953   3.816   4.165  11.029 -0.5437  0.9784 -1.3976
18714SOL    HW260954   3.862   4.037  10.964  1.1934  0.2318  1.1425
18715SOL     OW60955   9.776   4.439   0.434  0.3244 -0.2812 -0.5345
18715SOL    HW160956   9.779   4.531   0.461  2.0486 -0.6500  0.7132
18715SOL    HW260957   9.711   4.399   0.491  0.8145 -0.1639  0.1163
18716SOL     OW60958   0.889   1.709   5.585 -0.1409 -0.1825 -0.5424
18716SOL    HW160959   0.887   1.666   5.500 -2.0586  2.0992 -1.7909
18716SOL    HW260960   0.962   1.771   5.578  0.9334 -1.3028  0.2652
18717SOL     OW60961   7.066   2.230   9.886  0.1386  0.5094 -0.2844
18717SOL    HW160962   7.035   2.254   9.973 -2.7807  1.0186 -1.3557
18717SOL    HW260963   7.012   2.155   9.861  1.9986 -0.6366 -1.1090
18718SOL     OW60964   9.567   9.674   9.689 -0.0686  0.1350 -0.4788
18718SOL    HW160965   9.596   9.615   9.758 -1.1960  1.9922  1.6817
18718SOL    HW260966   9.520   9.617   9.628  0.1141 -1.4152  0.7635
18719SOL     OW60967  12.528  12.482   0.457 -0.2199 -0.4859  0.6503
18719SOL    HW160968  12.549  12.475   0.364  1.8773 -0.1747  1.0414
18719SOL    HW260969  12.433  12.469   0.462 -0.6060  0.9366 -1.6778
18720SOL     OW60970   8.172   3.032   6.861  0.5896 -0.1653  0.1340
18720SOL    HW160971   8.253   3.042   6.910  0.3505  0.0363  0.4884
18720SOL    HW260972   8.163   2.937   6.849  0.6020 -0.2174  0.5515
18721SOL     OW60973  10.933   9.692   0.518  0.2022 -0.4181  0.3875
18721SOL    HW160974  10.866   9.682   0.586  2.3515 -0.0551  2.6763
18721SOL    HW260975  10.950   9.603   0.487 -2.0155 -0.4280 -1.0357
18722SOL     OW60976  12.648   3.927  11.828  0.1544  0.4612  0.1791
18722SOL    HW160977  12.575   3.939  11.767  0.8173 -0.4087 -0.8364
18722SOL    HW260978  12.634   3.993  11.896  0.1927  2.5563 -1.7047
18723SOL     OW60979   2.089   8.029   4.916 -0.2499  0.4568  0.1890
18723SOL    HW160980   2.170   8.063   4.954 -0.5833  0.8499  0.5551
18723SOL    HW260981   2.035   8.107   4.903 -0.1569  0.3413 -1.0721
18724SOL     OW60982   1.884   2.244  11.637  0.4803  0.3769 -0.0773
18724SOL    HW160983   1.805   2.296  11.619  0.5246  0.2426 -0.6630
18724SOL    HW260984   1.956   2.299  11.608  0.5680  0.2642 -0.0731
18725SOL     OW60985  10.892   7.384   7.495  0.3998 -0.3507  0.2554
18725SOL    HW160986  10.924   7.474   7.488 -0.6396  0.0441  0.3926
18725SOL    HW260987  10.938   7.337   7.426  0.2430  0.5008 -0.4454
18726SOL     OW60988   0.550   8.526   6.612  0.0724  0.1646 -0.1345
18726SOL    HW160989   0.622   8.502   6.671  0.3018 -0.8887 -0.8143
18726SOL    HW260990   0.583   8.603   6.564  0.7699 -0.3249 -0.4594
18727SOL     OW60991  11.762   6.640   7.458  0.0357  0.2170 -0.4437
18727SOL    HW160992  11.843   6.652   7.409  1.1297  0.1458  1.2422
18727SOL    HW260993  11.759   6.714   7.519  0.3664 -1.2292  1.4562
18728SOL     OW60994   5.004   9.872   3.105  0.5644 -0.0852  0.0494
18728SOL    HW160995   5.079   9.830   3.064  0.4713 -1.0323  0.8099
18728SOL    HW260996   4.936   9.870   3.038  0.3871 -1.6850  0.2278
18729SOL     OW60997  10.523   3.113   1.990 -0.0904  0.0257 -0.0906
18729SOL    HW160998  10.466   3.177   2.033  0.4128  1.4105 -1.3809
18729SOL    HW260999  10.535   3.147   1.901 -0.0306 -2.0318 -0.9370
18730SOL     OW61000   8.893   5.092   5.328  0.0688 -0.2982 -0.5286
18730SOL    HW161001   8.986   5.105   5.344  0.3492 -1.9421 -0.6651
18730SOL    HW261002   8.870   5.015   5.379 -1.2846  0.2056 -0.3233
18731SOL     OW61003   6.279  11.714   3.664 -0.1135 -0.4604  0.4801
18731SOL    HW161004   6.311  11.779   3.601 -2.7660  0.8443  0.3299
18731SOL    HW261005   6.323  11.633   3.640  0.4550  0.4616 -1.7928
18732SOL     OW61006   7.158   0.051   2.879 -0.0729  0.8401 -0.4885
18732SOL    HW161007   7.190   0.140   2.892 -0.9583  0.9662  1.0382
18732SOL    HW261008   7.154   0.014   2.967 -1.7379  0.0184 -0.8714
18733SOL     OW61009   5.716  11.928   9.929  0.4815 -0.5992  0.2966
18733SOL    HW161010   5.702  11.834   9.940 -0.7171 -0.3341  1.3419
18733SOL    HW261011   5.805  11.943   9.958  1.1524 -1.5770 -1.1244
18734SOL     OW61012   7.013   0.098   3.857 -0.4445  0.2090 -0.4365
18734SOL    HW161013   7.008   0.193   3.864  1.9468  0.5325 -1.8687
18734SOL    HW261014   7.060   0.070   3.935  0.2386  0.4162 -0.7634
18735SOL     OW61015   3.526   5.843  10.065  0.6221  0.0020  0.0653
18735SOL    HW161016   3.615   5.865  10.039  0.8720 -0.7064  0.2855
18735SOL    HW261017   3.480   5.827   9.983  0.7939  0.0193 -0.0342
18736SOL     OW61018   9.693   4.209   8.534 -0.3207 -0.3805 -0.3890
18736SOL    HW161019   9.746   4.275   8.579 -0.1180 -0.7386 -0.0985
18736SOL    HW261020   9.627   4.183   8.598  0.2590 -1.2354 -0.1224
18737SOL     OW61021   1.996   7.721  10.173 -1.0369 -0.2373 -0.1610
18737SOL    HW161022   2.033   7.697  10.088  1.5938  0.6282  0.6352
18737SOL    HW261023   1.966   7.638  10.210 -1.3757 -0.7570 -1.5437
18738SOL     OW61024   4.324   2.809  11.730 -0.0441 -0.6246  0.3271
18738SOL    HW161025   4.266   2.882  11.751 -1.0270 -0.6928 -1.8626
18738SOL    HW261026   4.267   2.734  11.720  0.8359 -1.4775  1.4242
18739SOL     OW61027  11.395   0.608  12.167 -0.3075  0.3361 -0.1594
18739SOL    HW161028  11.381   0.698  12.141  0.1086  0.5566  0.3468
18739SOL    HW261029  11.312   0.564  12.148  0.1158  0.3580 -2.2543
18740SOL     OW61030   7.804  10.462  10.964 -0.8542 -0.1739  0.8944
18740SOL    HW161031   7.870  10.519  10.925 -0.1711 -1.1104  0.6668
18740SOL    HW261032   7.773  10.408  10.892 -1.5554 -0.0579  1.0975
18741SOL     OW61033  11.286   7.093   2.697 -0.2639  0.1898  0.0263
18741SOL    HW161034  11.328   7.179   2.690 -0.0788  0.0059 -1.4943
18741SOL    HW261035  11.321   7.056   2.778  2.2475  0.2152 -0.9363
18742SOL     OW61036   6.832   8.298  10.228 -0.0254  0.2357  0.1824
18742SOL    HW161037   6.909   8.352  10.248  0.6205 -0.9069  0.9431
18742SOL    HW261038   6.801   8.269  10.314 -0.5845 -0.2738 -0.1891
18743SOL     OW61039   3.856  10.194   0.831 -0.0864  0.2452 -0.1229
18743SOL    HW161040   3.766  10.226   0.825 -0.4931 -0.6939  0.7069
18743SOL    HW261041   3.902  10.262   0.881 -0.1927  0.9652 -0.9678
18744SOL     OW61042   8.812  11.455   5.381 -0.3769 -0.4128 -0.2154
18744SOL    HW161043   8.792  11.497   5.465 -1.3752  0.5355 -0.9064
18744SOL    HW261044   8.759  11.375   5.382  0.9948 -1.3518  0.8030
18745SOL     OW61045  10.745  10.496   5.333 -0.4388  0.3609  0.1173
18745SOL    HW161046  10.763  10.519   5.424 -0.4339  0.2905  0.1348
18745SOL    HW261047  10.711  10.406   5.338  1.7091 -0.5310 -0.1319
18746SOL     OW61048   5.982  10.197   1.689  0.4035 -0.2310  0.2073
18746SOL    HW161049   6.022  10.283   1.675 -1.8380  1.1729  1.7797
18746SOL    HW261050   6.017  10.143   1.618  1.9959  1.9198 -0.7647
18747SOL     OW61051  10.433   2.554   4.801  0.3985  0.2922  0.2832
18747SOL    HW161052  10.496   2.602   4.747  2.4028 -2.8619 -0.4994
18747SOL    HW261053  10.480   2.539   4.884  1.4641 -3.2475 -0.7782
18748SOL     OW61054  12.228   2.788  10.094  0.2182 -0.1007  0.3779
18748SOL    HW161055  12.192   2.755  10.176 -0.9638  1.8873  0.7038
18748SOL    HW261056  12.290   2.720  10.066 -0.9881 -1.8436  1.7542
18749SOL     OW61057   1.665   6.932   2.337  0.4852 -0.2183  0.3243
18749SOL    HW161058   1.657   6.839   2.315  2.8585 -0.2414 -0.8122
18749SOL    HW261059   1.759   6.944   2.351  0.0186  1.6745  2.1771
18750SOL     OW61060   0.097  11.570  12.399  0.2273  0.0154 -0.9559
18750SOL    HW161061   0.190  11.567  12.420  0.4038  1.0787 -1.5096
18750SOL    HW261062   0.065  11.650  12.441  0.0705  0.8667 -2.6147
18751SOL     OW61063   9.957   8.720   7.556  0.1656 -0.7073 -0.2279
18751SOL    HW161064   9.974   8.741   7.464 -0.8099 -2.2978 -0.8176
18751SOL    HW261065   9.979   8.627   7.564 -0.1283 -0.6898  1.0527
18752SOL     OW61066   4.536  10.057  11.461  0.2812  0.0256 -0.6171
18752SOL    HW161067   4.628  10.035  11.474 -0.0573  0.0874  2.7230
18752SOL    HW261068   4.518  10.126  11.525 -2.3020 -0.5898 -0.5608
18753SOL     OW61069   3.452   4.942   3.679 -0.2139  0.1006 -0.2207
18753SOL    HW161070   3.443   4.923   3.772  1.8395  0.7585  0.1624
18753SOL    HW261071   3.495   5.027   3.676  0.6846 -0.3731 -1.7410
18754SOL     OW61072   6.472  10.764   8.750 -0.3219  0.3709 -0.9480
18754SOL    HW161073   6.455  10.670   8.747  0.4796  0.1299  0.6919
18754SOL    HW261074   6.474  10.791   8.658 -0.4319 -1.2397 -1.4595
18755SOL     OW61075  12.234   7.385   6.890  0.3750  0.3138  0.0833
18755SOL    HW161076  12.157   7.329   6.903  0.2727  0.6799  1.1419
18755SOL    HW261077  12.302   7.346   6.945  0.7055  0.4691 -0.2084
18756SOL     OW61078   9.602  11.156   0.124  0.1557  0.2180 -0.2618
18756SOL    HW161079   9.609  11.252   0.123  0.4590  0.1974 -0.1103
18756SOL    HW261080   9.570  11.134   0.036  1.3604  0.3665 -0.7551
18757SOL     OW61081   5.459   2.999   8.542  0.2060  0.3867 -0.3723
18757SOL    HW161082   5.554   3.005   8.534  0.1606  1.6465 -0.1473
18757SOL    HW261083   5.435   3.073   8.597 -0.6813 -1.2848  1.6095
18758SOL     OW61084   5.870   1.108   1.363  0.1622  0.0229  0.4474
18758SOL    HW161085   5.778   1.130   1.374  0.0868  1.7422 -2.3936
18758SOL    HW261086   5.870   1.034   1.303  0.5607  1.3669 -1.3027
18759SOL     OW61087   7.858   7.280   2.906  0.4640 -0.3716  0.1901
18759SOL    HW161088   7.768   7.314   2.906  0.2488 -0.8762 -1.6076
18759SOL    HW261089   7.904   7.332   2.840  1.8953  0.7630  1.9716
18760SOL     OW61090   3.166   0.393  11.919  0.6566  0.0609  0.5104
18760SOL    HW161091   3.157   0.345  11.837  1.2161 -1.1407  1.1120
18760SOL    HW261092   3.159   0.485  11.895 -3.3271 -0.3146 -0.3520
18761SOL     OW61093  12.029   9.657   2.972 -0.4029  0.0522  0.2745
18761SOL    HW161094  11.983   9.719   3.029  0.0440 -0.7625  1.5700
18761SOL    HW261095  12.098   9.709   2.930 -2.7223  1.4352 -2.1447
18762SOL     OW61096  11.520   1.899   9.650  0.2140 -0.0120 -0.0193
18762SOL    HW161097  11.509   1.945   9.733 -2.5883 -1.7319  0.6935
18762SOL    HW261098  11.480   1.957   9.585 -0.4898 -0.0338  0.3809
18763SOL     OW61099   4.717   9.938   2.319 -0.3602 -0.5246 -0.5761
18763SOL    HW161100   4.809   9.920   2.299 -0.3739 -0.1598 -0.9794
18763SOL    HW261101   4.680   9.970   2.236 -0.1040  2.3198  0.2954
18764SOL     OW61102   9.491   8.094  10.785  0.0157  0.3205 -0.2378
18764SOL    HW161103   9.567   8.072  10.838 -0.4725  1.1653  0.8513
18764SOL    HW261104   9.478   8.188  10.799 -1.5881  0.0836  0.1024
18765SOL     OW61105   1.659   2.341   3.561  0.3184  0.7577 -0.1929
18765SOL    HW161106   1.573   2.338   3.519 -0.2314  0.4665  0.9255
18765SOL    HW261107   1.696   2.425   3.533  0.0629  0.4933 -1.3971
18766SOL     OW61108   6.920  10.233   9.430  0.0809  0.5189  0.4147
18766SOL    HW161109   6.876  10.309   9.469  0.0546  0.1873  1.0417
18766SOL    HW261110   7.004  10.266   9.400  1.1508  0.3188  2.8974
18767SOL     OW61111   4.066   5.028   7.242 -0.4775 -0.0096  0.1820
18767SOL    HW161112   4.041   5.117   7.267 -0.6088 -0.0811  0.3110
18767SOL    HW261113   4.102   5.037   7.154  2.4793  0.6589  1.3486
18768SOL     OW61114   0.296   1.864   2.459 -0.3531 -0.1471  0.5574
18768SOL    HW161115   0.260   1.910   2.535  0.7419 -0.8314  1.5280
18768SOL    HW261116   0.351   1.929   2.415 -2.4226  0.8197 -0.7718
18769SOL     OW61117   9.161   8.202  12.226  0.5491 -0.0412 -0.0969
18769SOL    HW161118   9.205   8.147  12.161 -2.4745 -1.8734 -0.8177
18769SOL    HW261119   9.115   8.140  12.282 -0.7307  1.6761  0.8446
18770SOL     OW61120   0.153   7.579  11.342 -0.2680  0.7973 -0.3910
18770SOL    HW161121   0.101   7.521  11.287 -0.3735  0.2621  0.2551
18770SOL    HW261122   0.097   7.656  11.356 -0.5960  0.5449 -0.3015
18771SOL     OW61123  11.759   8.480   7.767 -0.6658  0.4092 -0.1525
18771SOL    HW161124  11.680   8.488   7.714  0.3919  0.8768 -1.7295
18771SOL    HW261125  11.795   8.394   7.745 -1.1319 -0.1529  1.1724
18772SOL     OW61126   2.489   2.884   5.843 -0.1021 -0.0719  0.4345
18772SOL    HW161127   2.408   2.931   5.863 -0.1659  0.2769 -0.5963
18772SOL    HW261128   2.548   2.951   5.810  0.0921 -0.5687 -0.2450
18773SOL     OW61129   7.884   9.027   0.520 -0.4974 -0.1971  0.1485
18773SOL    HW161130   7.840   9.111   0.531 -2.0988 -1.1404  1.4647
18773SOL    HW261131   7.820   8.971   0.476  0.1024 -1.0474  0.3183
18774SOL     OW61132  10.004  11.043   3.541  0.1443  0.0299 -0.8087
18774SOL    HW161133   9.929  11.097   3.516 -0.8367 -0.3724  1.1439
18774SOL    HW261134   9.968  10.974   3.596  1.8639 -0.5469 -0.3334
18775SOL     OW61135   6.278   3.294   5.077 -0.1476 -0.5477 -0.6639
18775SOL    HW161136   6.256   3.387   5.066 -2.5514 -1.0824 -0.9480
18775SOL    HW261137   6.236   3.269   5.159 -0.9991 -1.7562 -1.4375
18776SOL     OW61138   4.073   9.965   4.176  0.0123  0.4872 -0.2685
18776SOL    HW161139   4.154   9.919   4.157 -0.3877  0.5149 -2.2440
18776SOL    HW261140   4.090  10.011   4.258  1.3521 -0.9495  0.3027
18777SOL     OW61141   9.173   7.606  12.132 -0.1646  0.2695 -0.0722
18777SOL    HW161142   9.112   7.678  12.147  1.0076  0.9796  1.6283
18777SOL    HW261143   9.131   7.530  12.172  0.3932  0.9484  1.9340
18778SOL     OW61144   6.471  11.663   8.739 -0.1213 -0.6955  0.2382
18778SOL    HW161145   6.444  11.572   8.733  0.1703 -0.8422  1.0960
18778SOL    HW261146   6.485  11.679   8.832  0.9058 -0.0955  0.0043
18779SOL     OW61147  11.478   0.927   2.243  0.3164 -0.0317 -0.1474
18779SOL    HW161148  11.426   0.942   2.322  0.9009  0.3259  0.1775
18779SOL    HW261149  11.494   1.015   2.208  2.4821  0.0617  0.9316
18780SOL     OW61150  11.111   8.677  11.443 -0.0735  0.1322 -0.0086
18780SOL    HW161151  11.143   8.587  11.450  0.8044  0.2820 -1.5892
18780SOL    HW261152  11.099   8.705  11.534 -1.6215 -1.9840  0.5170
18781SOL     OW61153   3.214   6.312   3.736  0.2831  0.3074  0.0708
18781SOL    HW161154   3.230   6.239   3.796  0.2728  0.2268 -0.0240
18781SOL    HW261155   3.216   6.272   3.649 -2.3823 -0.0683  0.1082
18782SOL     OW61156   9.276   2.259   9.117 -0.9639 -0.7192 -0.5089
18782SOL    HW161157   9.305   2.212   9.195 -0.4905 -1.5659 -1.1758
18782SOL    HW261158   9.186   2.230   9.103 -1.8093  1.0053  0.8752
18783SOL     OW61159   3.854   1.843  10.273 -0.2857  0.1598  0.0664
18783SOL    HW161160   3.798   1.900  10.221 -0.5065 -0.6021 -0.5544
18783SOL    HW261161   3.827   1.754  10.249  1.4699 -0.2460 -0.6081
18784SOL     OW61162   3.002  11.046   5.091 -0.5097  0.3407  0.3630
18784SOL    HW161163   3.011  11.119   5.030  2.0750  0.4087  0.7278
18784SOL    HW261164   2.945  11.079   5.160 -1.8329  0.9409 -0.9745
18785SOL     OW61165   4.941   9.079   8.340 -0.0087 -0.2440 -0.2471
18785SOL    HW161166   5.035   9.089   8.358 -0.2138 -0.1346  0.8791
18785SOL    HW261167   4.923   8.987   8.357 -0.0583 -0.3209 -0.7103
18786SOL     OW61168   8.879   6.712  10.474 -0.4823 -0.0497 -0.1114
18786SOL    HW161169   8.874   6.633  10.419 -0.3475  0.0403 -0.2538
18786SOL    HW261170   8.864   6.784  10.413 -1.7690 -0.0244  0.2167
18787SOL     OW61171   4.791  11.865   0.268  0.1951  0.1589 -0.0934
18787SOL    HW161172   4.824  11.795   0.324  2.0992  0.2525 -1.0196
18787SOL    HW261173   4.808  11.835   0.178 -4.9659 -1.1226 -0.9637
18788SOL     OW61174   8.066  10.039  12.475  0.2750  0.0935 -0.3916
18788SOL    HW161175   7.984  10.000  12.446  0.4781 -1.5629  1.0459
18788SOL    HW261176   8.108   9.970  12.527  3.4599  0.2064 -2.5487
18789SOL     OW61177   5.051   1.983   6.271 -0.3677 -0.8088  0.5593
18789SOL    HW161178   5.106   2.048   6.228 -1.3300 -1.6489 -2.1436
18789SOL    HW261179   5.047   2.011   6.362  0.8005  1.8064 -0.1101
18790SOL     OW61180   1.168   2.303   6.047 -0.2236 -0.1379 -0.3934
18790SOL    HW161181   1.194   2.334   6.133 -0.1481 -0.9011 -0.1286
18790SOL    HW261182   1.078   2.333   6.036 -0.3931 -0.4274  0.1568
18791SOL     OW61183   3.754  12.429  11.559  0.4088 -0.2204 -0.2605
18791SOL    HW161184   3.719  12.514  11.532 -1.6544 -1.9504 -3.7904
18791SOL    HW261185   3.817  12.406  11.491 -0.3475 -2.1653 -0.3744
18792SOL     OW61186  10.351   0.559   6.634  0.3602  0.2927  0.6848
18792SOL    HW161187  10.295   0.538   6.558  1.7289  0.4404 -0.4051
18792SOL    HW261188  10.308   0.633   6.676 -0.6749 -0.0927  0.3333
18793SOL     OW61189   5.110   4.538   2.699  0.8775  0.5389 -0.4016
18793SOL    HW161190   5.136   4.498   2.616  0.3930  2.5899 -1.6254
18793SOL    HW261191   5.051   4.473   2.739 -0.8689  0.4335 -2.8630
18794SOL     OW61192   8.839   3.158   8.434  0.1473  0.0601 -0.0482
18794SOL    HW161193   8.846   3.078   8.485 -0.0353  0.5334  0.7353
18794SOL    HW261194   8.875   3.135   8.348 -2.9698 -1.8706 -1.0075
18795SOL     OW61195   8.139  12.047   2.356 -0.1889 -0.1303 -0.3181
18795SOL    HW161196   8.114  12.130   2.395  0.3069 -0.3704  0.5472
18795SOL    HW261197   8.150  11.988   2.431 -1.2088 -1.1713 -0.9511
18796SOL     OW61198   7.364   1.354   4.097 -0.0226 -0.0106  0.3471
18796SOL    HW161199   7.355   1.259   4.107  1.1873 -0.2384 -0.4750
18796SOL    HW261200   7.426   1.379   4.166 -0.9604  0.3229  1.0836
18797SOL     OW61201   9.358   3.711  11.999 -0.3417  0.6733 -0.6224
18797SOL    HW161202   9.422   3.748  12.059 -1.4139  2.8261 -0.6972
18797SOL    HW261203   9.409   3.684  11.922  0.6418  0.8304 -0.0417
18798SOL     OW61204   2.186   9.435   6.876 -0.1918  0.0782 -0.2418
18798SOL    HW161205   2.187   9.362   6.814 -1.3299  1.2140 -1.6681
18798SOL    HW261206   2.094   9.449   6.894 -0.2481  2.7498 -2.0262
18799SOL     OW61207  10.785   0.030  11.786 -0.1243  0.2477  0.4525
18799SOL    HW161208  10.829   0.089  11.847 -1.0183  0.6551  0.7248
18799SOL    HW261209  10.701   0.011  11.828 -0.7145  0.4671 -0.6072
18800SOL     OW61210   6.890   1.962   4.166  0.1938  0.3228 -0.2075
18800SOL    HW161211   6.925   1.895   4.225  1.2778 -1.3168 -2.5480
18800SOL    HW261212   6.807   1.987   4.205  0.2597 -1.6011  1.3320
18801SOL     OW61213   4.397   3.117   1.844 -0.3020 -0.6661  0.0737
18801SOL    HW161214   4.335   3.073   1.902  0.1803 -0.2924  0.8865
18801SOL    HW261215   4.414   3.201   1.887  0.0611 -0.3834 -0.6137
18802SOL     OW61216   7.155   0.326  10.204  0.2638  0.7154 -0.5210
18802SOL    HW161217   7.245   0.304  10.231 -0.5852 -2.2819  0.3152
18802SOL    HW261218   7.154   0.306  10.110  0.1391 -0.7798 -0.2342
18803SOL     OW61219   9.084   5.758   2.999  0.3387  0.1610 -0.4336
18803SOL    HW161220   9.053   5.809   3.074 -1.3965 -0.6121 -0.5742
18803SOL    HW261221   9.071   5.817   2.924 -1.6824 -0.4086 -0.5983
18804SOL     OW61222  11.896   8.515   6.846 -0.0351  0.0318 -0.4974
18804SOL    HW161223  11.908   8.479   6.934  0.1311  0.2894 -0.4133
18804SOL    HW261224  11.941   8.599   6.848 -0.7735  0.4394 -0.5680
18805SOL     OW61225   0.935   2.147  11.124 -0.4507  0.6552  0.1712
18805SOL    HW161226   0.963   2.059  11.150 -0.6779  0.3794 -0.4766
18805SOL    HW261227   0.847   2.135  11.089 -0.0250  0.9258 -1.0637
18806SOL     OW61228   6.051  12.186   7.592 -0.3718 -1.0394 -0.1771
18806SOL    HW161229   6.092  12.128   7.655 -1.1410  0.0926  1.4460
18806SOL    HW261230   5.992  12.241   7.645 -1.0680 -0.0575 -1.8847
18807SOL     OW61231   2.389  12.099   7.695  0.7707  0.1208 -0.3698
18807SOL    HW161232   2.378  12.050   7.777 -0.1810 -0.4521 -0.8200
18807SOL    HW261233   2.362  12.188   7.716 -0.2613 -0.2067 -0.2538
18808SOL     OW61234   1.891   3.806   2.170 -0.3268 -0.4503  0.7836
18808SOL    HW161235   1.826   3.751   2.215 -0.5259 -0.6337  0.2754
18808SOL    HW261236   1.846   3.890   2.158 -0.9679 -0.9888 -0.7653
18809SOL     OW61237   6.003   7.086   6.368 -0.2017  0.3136 -0.2931
18809SOL    HW161238   5.982   7.001   6.330 -0.2968  0.3821 -0.3937
18809SOL    HW261239   5.971   7.150   6.303  1.9051  0.4093 -1.3373
18810SOL     OW61240   5.637  10.747   7.417 -0.5098  0.4855 -0.1876
18810SOL    HW161241   5.631  10.672   7.477  1.0490  0.0646 -0.5003
18810SOL    HW261242   5.547  10.777   7.406 -1.0905 -0.9381  0.4654
18811SOL     OW61243   1.035   1.703   5.916 -0.3988  0.3869  0.2933
18811SOL    HW161244   0.968   1.763   5.885  0.4793  0.9721 -0.5465
18811SOL    HW261245   1.116   1.754   5.913  0.6681 -1.2507 -2.0514
18812SOL     OW61246   6.348   3.356   6.465  0.1262  0.4972 -0.4947
18812SOL    HW161247   6.441   3.343   6.444  0.0973 -0.0118 -0.3190
18812SOL    HW261248   6.347   3.430   6.525  0.3346  1.0757 -1.1870
18813SOL     OW61249   9.134   6.591   9.998  0.0406  0.0910 -0.4511
18813SOL    HW161250   9.068   6.527  10.024  0.1512  0.8459  1.8890
18813SOL    HW261251   9.087   6.650   9.938 -0.8744 -0.4649 -0.2982
18814SOL     OW61252   3.371   6.253   3.265 -0.0949  0.0569 -0.0944
18814SOL    HW161253   3.383   6.254   3.170 -0.0176  0.8464 -0.0840
18814SOL    HW261254   3.398   6.165   3.291 -0.0812 -0.1572 -0.7983
18815SOL     OW61255   5.117   3.040   1.205  0.1177  0.0572  0.1478
18815SOL    HW161256   5.100   3.107   1.138  1.9949 -0.4351 -0.8885
18815SOL    HW261257   5.198   2.999   1.177 -1.0901 -2.8497  0.6329
18816SOL     OW61258  11.960   1.444   2.286  0.4896  0.0249  0.5799
18816SOL    HW161259  11.994   1.532   2.272  1.9620 -0.6723 -0.5495
18816SOL    HW261260  11.866   1.452   2.268  0.3267  1.6172  1.8931
18817SOL     OW61261   2.076   4.165   1.480 -0.2140  0.9367  0.2085
18817SOL    HW161262   2.168   4.173   1.505 -0.2656 -2.2652  1.9795
18817SOL    HW261263   2.034   4.243   1.516  1.2229  0.6421  2.7538
18818SOL     OW61264   7.119   6.288   6.446 -0.4127 -0.0455  0.0240
18818SOL    HW161265   7.097   6.322   6.533 -0.1730 -0.9310  0.4427
18818SOL    HW261266   7.037   6.253   6.413 -0.3337 -0.4366  0.2363
18819SOL     OW61267  10.504   0.731   8.855 -0.1593  0.1248 -0.7066
18819SOL    HW161268  10.599   0.738   8.851 -0.1899  1.0145 -0.1450
18819SOL    HW261269  10.472   0.818   8.832 -0.8011  0.1730  0.2907
18820SOL     OW61270   8.656   6.773  11.699  0.1661  0.1810 -0.0238
18820SOL    HW161271   8.699   6.694  11.730  0.3651 -0.4348 -1.7267
18820SOL    HW261272   8.570   6.772  11.739 -0.1297 -1.3472 -0.6378
18821SOL     OW61273   4.370   7.008  12.534 -0.2691  0.0402  0.6173
18821SOL    HW161274   4.356   7.082  12.475 -3.9027  0.5001  1.7538
18821SOL    HW261275   4.440   6.957  12.494 -1.3991  1.1782 -3.2022
18822SOL     OW61276   6.936   0.179   4.183 -0.2196 -0.2679  0.0151
18822SOL    HW161277   6.925   0.251   4.120  1.8836  1.2051  1.2341
18822SOL    HW261278   6.987   0.114   4.136 -0.3375 -0.0542 -0.4186
18823SOL     OW61279   0.561   9.853   1.941 -0.1597 -0.2830  0.3289
18823SOL    HW161280   0.600   9.824   2.023 -0.5327  1.2084  1.0733
18823SOL    HW261281   0.636   9.869   1.883  0.2923  0.9798  1.2080
18824SOL     OW61282   0.757   1.763   2.187  0.0422  0.2677 -0.1775
18824SOL    HW161283   0.791   1.681   2.223  0.8653  0.1502 -1.1553
18824SOL    HW261284   0.664   1.763   2.209  0.0889 -0.8093  0.0563
18825SOL     OW61285   4.428   2.110   7.906 -0.5954 -0.1669 -0.2133
18825SOL    HW161286   4.469   2.044   7.963  1.1774  0.1012 -1.1146
18825SOL    HW261287   4.465   2.093   7.819 -0.6335  1.5835 -0.6033
18826SOL     OW61288   7.319   4.284   0.967  0.6002 -0.0293 -0.3598
18826SOL    HW161289   7.224   4.287   0.955  0.5690  1.4282  0.0516
18826SOL    HW261290   7.353   4.258   0.881 -0.1188  0.3647 -0.7742
18827SOL     OW61291   3.346   5.196   7.558  0.3847  0.0949  0.4353
18827SOL    HW161292   3.266   5.203   7.611  2.3263  1.2667  3.5194
18827SOL    HW261293   3.394   5.123   7.597  1.3549  0.1961 -0.5400
18828SOL     OW61294   5.547  11.555   2.329  0.1899 -0.0801 -0.2988
18828SOL    HW161295   5.554  11.646   2.298  0.9544  0.4783  1.3554
18828SOL    HW261296   5.490  11.561   2.406  0.4616 -0.9726 -0.0202
18829SOL     OW61297   3.340   9.739   4.921  0.2619  0.4249 -0.3948
18829SOL    HW161298   3.370   9.652   4.945  2.2087  0.3522 -2.6577
18829SOL    HW261299   3.383   9.798   4.983  0.9023 -0.0799 -0.3525
18830SOL     OW61300   1.154  10.001   3.353 -0.0283  0.2616 -0.4423
18830SOL    HW161301   1.067  10.004   3.313 -0.5889 -0.6926  0.6358
18830SOL    HW261302   1.177   9.908   3.354 -0.8104 -0.0423  2.9118
18831SOL     OW61303   6.148   7.942   1.931 -0.4839 -0.2289 -0.1278
18831SOL    HW161304   6.191   7.990   2.001 -1.2353  1.0446 -0.5137
18831SOL    HW261305   6.057   7.934   1.959 -0.1958 -2.3377  0.3868
18832SOL     OW61306  10.144   6.669  10.466  0.0254  0.0641  0.3439
18832SOL    HW161307  10.181   6.727  10.399 -0.3464  0.7415  0.7201
18832SOL    HW261308  10.118   6.590  10.418 -1.3295  1.0014 -0.5204
18833SOL     OW61309   0.012   0.276   9.834  0.4225  0.7368  0.0359
18833SOL    HW161310  -0.031   0.351   9.876  0.8545  0.3739  1.1645
18833SOL    HW261311   0.023   0.303   9.743  1.2999  2.3832  0.5929
18834SOL     OW61312   7.978   6.678  11.774  0.4237  0.0484 -0.1138
18834SOL    HW161313   7.937   6.719  11.697  0.3448 -0.9923 -0.6345
18834SOL    HW261314   7.989   6.586  11.750 -0.5059 -0.5187  1.4953
18835SOL     OW61315   3.252   8.520  10.445  0.2995 -0.2797  0.0814
18835SOL    HW161316   3.277   8.432  10.472 -1.1154 -1.1043 -1.1894
18835SOL    HW261317   3.334   8.569  10.445  1.0921 -1.5578  0.8867
18836SOL     OW61318   6.827   1.580   5.648 -1.1481  0.1942  0.8116
18836SOL    HW161319   6.771   1.563   5.723 -0.3567 -1.0647  1.1532
18836SOL    HW261320   6.912   1.604   5.687 -0.8082 -0.2065  0.3229
18837SOL     OW61321   6.780   8.678  10.465 -0.3480  0.0015  0.1262
18837SOL    HW161322   6.798   8.769  10.441 -0.1299 -0.0652  0.0378
18837SOL    HW261323   6.719   8.648  10.398 -1.5639  0.5204  0.9641
18838SOL     OW61324   7.398   6.862   3.257  0.2604 -0.1067 -0.5060
18838SOL    HW161325   7.371   6.913   3.333 -2.1145  0.1886 -1.4579
18838SOL    HW261326   7.423   6.927   3.191  1.2252 -0.3311 -0.3813
18839SOL     OW61327   0.853   8.290   9.827 -0.2517 -0.7952  0.2162
18839SOL    HW161328   0.765   8.323   9.812 -1.3133 -2.9125  1.4130
18839SOL    HW261329   0.884   8.337   9.904 -0.1426  0.2061 -0.4100
18840SOL     OW61330  12.377   6.109   5.768 -0.5987 -0.4001  0.4363
18840SOL    HW161331  12.293   6.064   5.780 -0.2771 -0.8570  1.0240
18840SOL    HW261332  12.430   6.081   5.842  0.5070 -1.0911 -0.5795
18841SOL     OW61333   0.851   3.268   8.659  0.2112 -0.5630 -0.1872
18841SOL    HW161334   0.760   3.280   8.630  0.0513  0.5294  0.6907
18841SOL    HW261335   0.844   3.262   8.755  1.1413  0.3746 -0.0529
18842SOL     OW61336   1.287   0.464   8.999 -0.3329  0.2380  0.7014
18842SOL    HW161337   1.298   0.382   8.950  1.0421  0.6776  0.2194
18842SOL    HW261338   1.325   0.446   9.085 -0.6528  0.1671  0.8288
18843SOL     OW61339   2.046   8.561   3.258 -0.5864  0.2018 -0.0611
18843SOL    HW161340   2.111   8.631   3.263 -1.2537  0.8071  0.3108
18843SOL    HW261341   1.964   8.606   3.235 -1.6908  0.0102  3.0161
18844SOL     OW61342   9.447   7.664   9.485 -0.2325  0.1410  0.2523
18844SOL    HW161343   9.514   7.601   9.510  1.1575  1.6037  0.3629
18844SOL    HW261344   9.471   7.691   9.396  0.2602  1.8083  0.8604
18845SOL     OW61345   5.963   5.834   8.120 -0.1197  0.3850  0.5323
18845SOL    HW161346   5.917   5.791   8.047 -1.0020  0.2208  1.1625
18845SOL    HW261347   6.000   5.913   8.081 -0.5089  0.2601 -0.1141
18846SOL     OW61348   7.275   0.454   5.434 -0.0061  0.0190  0.0036
18846SOL    HW161349   7.291   0.407   5.351  1.7942 -1.1078  0.9283
18846SOL    HW261350   7.185   0.429   5.458 -0.4762  0.1701 -1.4631
18847SOL     OW61351   0.075  12.317   7.999 -0.3250  0.6832 -0.1638
18847SOL    HW161352   0.001  12.257   8.014 -0.4509  0.7742 -0.4161
18847SOL    HW261353   0.150  12.273   8.040 -0.3646  0.2231 -0.5740
18848SOL     OW61354   4.549   7.695  11.909 -0.0622  0.2905 -0.0529
18848SOL    HW161355   4.634   7.710  11.867 -0.5593 -0.7219 -1.5262
18848SOL    HW261356   4.485   7.733  11.849 -0.8097 -1.3150 -0.3313
18849SOL     OW61357   1.779  12.090   6.691  0.2959 -0.0757 -0.0453
18849SOL    HW161358   1.784  12.022   6.624  0.2634 -1.6530  1.4846
18849SOL    HW261359   1.688  12.122   6.686  0.1040 -0.6581 -0.2937
18850SOL     OW61360   9.868   9.365   2.527  0.2414  0.1229 -0.1009
18850SOL    HW161361   9.841   9.325   2.444 -0.1312 -1.5874  0.7910
18850SOL    HW261362   9.803   9.433   2.544  0.5832  0.8164 -1.4060
18851SOL     OW61363   6.467  12.624  10.831 -0.1834 -0.0229 -0.6990
18851SOL    HW161364   6.476  12.539  10.788  0.7681 -0.3473  0.0695
18851SOL    HW261365   6.376  12.628  10.859 -0.5594 -0.2220 -1.8694
18852SOL     OW61366  12.237  11.426   9.800  0.0510  0.7365  0.6393
18852SOL    HW161367  12.249  11.513   9.837 -0.9445  0.0677  2.6771
18852SOL    HW261368  12.222  11.369   9.875 -1.1900 -0.8847 -0.7342
18853SOL     OW61369   6.645   0.742   5.265  0.6803 -0.0541 -0.5444
18853SOL    HW161370   6.719   0.793   5.296  1.7100 -2.0450  0.4814
18853SOL    HW261371   6.679   0.653   5.257 -1.4433 -0.9164 -0.6361
18854SOL     OW61372   2.783  10.307   0.338 -0.4310  0.0932  0.1377
18854SOL    HW161373   2.785  10.244   0.411  0.0615 -0.9796 -0.7797
18854SOL    HW261374   2.762  10.254   0.261 -1.8569  1.3519 -0.3917
18855SOL     OW61375   7.344   4.251   7.539 -0.1172  0.0756  0.2399
18855SOL    HW161376   7.305   4.204   7.465  1.8890 -0.3085 -0.6427
18855SOL    HW261377   7.424   4.288   7.503  0.9041 -0.1235  2.2370
18856SOL     OW61378   8.398   5.971   9.761  0.1117 -0.0999 -0.1226
18856SOL    HW161379   8.346   6.048   9.739 -0.8338 -1.0568 -1.3872
18856SOL    HW261380   8.455   5.958   9.684  0.2479 -0.6746  0.0728
18857SOL     OW61381  11.196   2.062  11.392  0.1400  0.2131 -0.1513
18857SOL    HW161382  11.101   2.054  11.397  0.2784 -1.2701  1.2669
18857SOL    HW261383  11.212   2.152  11.364 -1.6780  0.3493 -0.8368
18858SOL     OW61384   3.249   5.043   7.012  0.0264  0.4203 -0.9032
18858SOL    HW161385   3.235   5.138   7.019  1.3135  0.5158  1.6182
18858SOL    HW261386   3.174   5.005   7.058  1.5269  0.4823  1.8425
18859SOL     OW61387  11.445   5.171   6.333 -0.3187  0.3986  0.2589
18859SOL    HW161388  11.420   5.079   6.339  0.1356  0.2632  0.0646
18859SOL    HW261389  11.376   5.217   6.381 -1.3066  0.0893 -0.8183
18860SOL     OW61390   3.079   8.675   3.494 -0.5819 -0.1354 -0.1971
18860SOL    HW161391   3.102   8.767   3.481  0.8035 -0.3943  0.2483
18860SOL    HW261392   2.998   8.663   3.445  0.5181  0.7113 -2.3525
18861SOL     OW61393   1.396   3.506  10.279 -0.5319 -0.4789  0.4242
18861SOL    HW161394   1.316   3.465  10.245 -0.4815  1.4679 -2.4042
18861SOL    HW261395   1.378   3.600  10.274  0.7108 -0.0290  3.0974
18862SOL     OW61396   2.537  11.949  11.527  0.2102  0.1082  0.4207
18862SOL    HW161397   2.559  11.997  11.447  1.7281 -0.7042  0.2991
18862SOL    HW261398   2.454  11.985  11.555  0.0258  0.9555 -1.1044
18863SOL     OW61399   4.112   5.756  10.262  0.1261  0.3775 -0.2651
18863SOL    HW161400   4.037   5.759  10.321  0.3452 -0.9392  0.1132
18863SOL    HW261401   4.136   5.848  10.249 -1.1395  0.7849  0.1138
18864SOL     OW61402   5.948   7.503  10.513 -0.1084 -0.0402  0.4011
18864SOL    HW161403   5.856   7.530  10.521 -0.1986 -0.0373 -0.5749
18864SOL    HW261404   5.949   7.413  10.546 -0.6807 -0.4310 -0.6215
18865SOL     OW61405   4.323   9.664   3.955 -0.2053 -0.5954  0.1565
18865SOL    HW161406   4.354   9.588   3.905 -0.5832  0.1691 -1.3210
18865SOL    HW261407   4.265   9.709   3.894  0.4624  1.1899  0.7906
18866SOL     OW61408   0.327  12.507   0.999  0.2940 -0.2331 -0.1586
18866SOL    HW161409   0.323  12.446   0.925  1.7816 -2.1173  1.2099
18866SOL    HW261410   0.313  12.452   1.076  0.7746  1.3386  1.1023
18867SOL     OW61411   4.878   0.777   2.489 -0.1098 -0.3210  0.8225
18867SOL    HW161412   4.958   0.816   2.526 -0.1493  0.0631  0.5115
18867SOL    HW261413   4.818   0.851   2.481  0.5129 -0.0067 -1.7007
18868SOL     OW61414   7.264   1.570   6.034  0.2071  0.2096  0.6544
18868SOL    HW161415   7.301   1.485   6.012 -1.7895 -0.6475  0.3895
18868SOL    HW261416   7.292   1.587   6.124  0.5655 -0.7572  0.7310
18869SOL     OW61417   4.691   0.010   4.120  0.1399  0.0868  0.1983
18869SOL    HW161418   4.690  -0.057   4.052  0.6991  1.3368 -1.0844
18869SOL    HW261419   4.749  -0.025   4.188  0.8202 -0.5132 -0.6757
18870SOL     OW61420   0.326   2.266   8.576 -0.0526  0.4252  0.3508
18870SOL    HW161421   0.259   2.253   8.509  0.3212 -0.3799  0.1217
18870SOL    HW261422   0.373   2.183   8.580  2.2176  1.5461 -0.8773
18871SOL     OW61423   6.052   0.298   9.369 -0.2198  0.1592 -0.0541
18871SOL    HW161424   5.981   0.326   9.426  0.8213  1.4061  0.6730
18871SOL    HW261425   6.017   0.220   9.325 -0.4381 -2.1093  3.6949
18872SOL     OW61426   4.901   9.422   7.680  0.5745  0.3243  0.2960
18872SOL    HW161427   4.992   9.397   7.694  0.4556  0.3218  1.1477
18872SOL    HW261428   4.905   9.495   7.618  0.9358 -1.6212 -2.1063
18873SOL     OW61429   9.123  10.574   9.827  0.0053 -0.0800  0.4478
18873SOL    HW161430   9.119  10.625   9.746 -0.4467 -0.6002  0.1310
18873SOL    HW261431   9.049  10.513   9.820  0.1134 -0.2955  1.1396
18874SOL     OW61432   6.619   8.177   2.946  0.2170  0.2871  0.4442
18874SOL    HW161433   6.623   8.082   2.953  0.8094  0.2654 -0.1081
18874SOL    HW261434   6.705   8.202   2.912 -0.7959  0.8054 -1.8620
18875SOL     OW61435  11.415   5.196   9.485 -0.0524  0.1070  0.3449
18875SOL    HW161436  11.356   5.257   9.530  0.8329  2.5543 -1.5675
18875SOL    HW261437  11.502   5.222   9.513  0.3294 -0.5968 -0.1603
18876SOL     OW61438   9.081   1.785   6.422  0.6015  0.3991  0.0520
18876SOL    HW161439   9.145   1.850   6.394  0.8517  0.5858  1.0340
18876SOL    HW261440   9.131   1.704   6.429  0.0586 -0.2271 -2.3418
18877SOL     OW61441   3.333   8.374   9.322 -0.0111 -0.0864  0.2339
18877SOL    HW161442   3.427   8.382   9.306 -0.1507 -1.0216 -1.3735
18877SOL    HW261443   3.319   8.410   9.409  1.6714  1.0578  0.0705
18878SOL     OW61444   5.877   3.115   3.869  0.1322 -0.3478 -0.7082
18878SOL    HW161445   5.898   3.207   3.851 -0.8506 -0.5785 -3.6987
18878SOL    HW261446   5.869   3.110   3.964 -0.4814  2.8048 -0.4847
18879SOL     OW61447  11.594  11.839   1.120  0.5472 -0.3062 -0.2210
18879SOL    HW161448  11.663  11.877   1.067 -0.1058 -0.8780 -1.5467
18879SOL    HW261449  11.549  11.913   1.160  0.9129  0.1574 -0.6689
18880SOL     OW61450  12.453   7.629   2.826  0.0957 -0.1625 -0.4202
18880SOL    HW161451  12.416   7.617   2.738  1.4163  0.6750 -1.1291
18880SOL    HW261452  12.463   7.724   2.835  1.1206 -0.3038  0.1229
18881SOL     OW61453   1.091   1.019   3.383 -0.3811  0.0219  0.5448
18881SOL    HW161454   1.099   0.951   3.316  0.5511  2.5785 -2.2002
18881SOL    HW261455   1.005   1.058   3.367 -0.5282  0.1072  1.4904
18882SOL     OW61456   2.315  10.220   1.518  0.1435  0.1640  0.0864
18882SOL    HW161457   2.352  10.134   1.535 -1.1811 -1.0493 -2.6024
18882SOL    HW261458   2.374  10.259   1.454 -1.1041 -0.2530 -1.3774
18883SOL     OW61459   1.515   5.184   6.765  0.0123  0.0379 -0.5438
18883SOL    HW161460   1.594   5.158   6.717  1.4433 -2.8156  2.9169
18883SOL    HW261461   1.459   5.107   6.762 -0.1523  0.0129  1.6204
18884SOL     OW61462  11.074   8.271   9.802 -0.5632  0.4573  0.6521
18884SOL    HW161463  11.005   8.284   9.737 -0.0859 -1.2507 -0.2721
18884SOL    HW261464  11.059   8.339   9.868 -0.7525  2.5911 -1.4698
18885SOL     OW61465   8.755   8.852   6.113  0.3307 -0.0920  0.4415
18885SOL    HW161466   8.713   8.844   6.199  0.1234 -0.9979  0.2619
18885SOL    HW261467   8.847   8.870   6.134 -0.0653  1.6533  0.8328
18886SOL     OW61468   3.332   2.056   9.683  0.2203 -0.7674 -0.2384
18886SOL    HW161469   3.316   2.041   9.590 -0.1861  1.6618 -0.6234
18886SOL    HW261470   3.264   2.118   9.710  1.7850  0.5122  1.0371
18887SOL     OW61471   1.552   6.050  12.032 -0.3818  0.1620 -0.2050
18887SOL    HW161472   1.540   5.961  12.064  0.9243  0.3929  1.0576
18887SOL    HW261473   1.472   6.096  12.059  0.2148  0.0793  1.9424
18888SOL     OW61474   1.845   2.437  12.616  0.6052  0.4824 -0.2467
18888SOL    HW161475   1.873   2.347  12.600  1.7382  0.9515 -1.0784
18888SOL    HW261476   1.750   2.435  12.605  0.7600 -0.3320 -1.7728
18889SOL     OW61477   7.409   9.849   1.212  0.2224 -0.0384  0.2948
18889SOL    HW161478   7.441   9.926   1.166 -1.6970  0.0816 -0.9796
18889SOL    HW261479   7.387   9.787   1.142  2.6441 -2.1882  1.3096
18890SOL     OW61480  10.268  11.732  11.437  0.1371  0.5913 -0.0368
18890SOL    HW161481  10.284  11.719  11.530  0.7239  0.2806 -0.1746
18890SOL    HW261482  10.312  11.659  11.394  0.1249  0.8911 -0.5757
18891SOL     OW61483   7.834   9.917  10.669  0.1054  0.0183  0.3485
18891SOL    HW161484   7.791   9.966  10.599  0.9011 -0.6639 -0.6435
18891SOL    HW261485   7.812   9.826  10.651  2.4513 -0.4331 -0.6044
18892SOL     OW61486  12.567   1.270   5.666 -0.4868  0.3372 -0.5189
18892SOL    HW161487  12.561   1.366   5.669 -0.7587  0.2980  1.1662
18892SOL    HW261488  12.642   1.253   5.610  0.2547  1.5907  0.0402
18893SOL     OW61489   7.937   3.961  12.334  0.0270 -0.1347  0.5484
18893SOL    HW161490   7.878   3.891  12.362 -0.8888  0.3542 -0.0945
18893SOL    HW261491   7.923   4.031  12.398 -0.2392  0.0527  0.2878
18894SOL     OW61492   6.678  12.241   2.805  0.1891 -0.5462 -0.4846
18894SOL    HW161493   6.741  12.296   2.852 -0.0791 -0.7935  0.1831
18894SOL    HW261494   6.732  12.174   2.764  0.4014 -0.5479 -0.2133
18895SOL     OW61495   8.104   5.417   7.510  0.1404  0.6638 -0.4588
18895SOL    HW161496   8.190   5.416   7.553 -0.8234 -1.8485  1.6128
18895SOL    HW261497   8.045   5.454   7.575 -0.5528  1.4821 -1.5202
18896SOL     OW61498   1.639  12.585   9.994  0.4072 -0.0459 -0.4385
18896SOL    HW161499   1.693  12.567  10.071  1.4492  0.4605 -1.0353
18896SOL    HW261500   1.555  12.543  10.013  0.3279  0.8356  1.3730
18897SOL     OW61501   4.827   7.631   6.601  0.1766  0.1268 -0.1524
18897SOL    HW161502   4.788   7.668   6.522  0.1560 -1.5341 -0.9523
18897SOL    HW261503   4.917   7.664   6.602  0.5258 -0.7061 -1.4998
18898SOL     OW61504   7.533   1.407   8.945 -0.4894  0.4878  0.2662
18898SOL    HW161505   7.592   1.477   8.919 -1.8162  2.2490  1.7740
18898SOL    HW261506   7.489   1.381   8.864  0.4118  0.9938 -0.4003
18899SOL     OW61507   3.237   0.161   5.360  0.1830  0.0820  0.1476
18899SOL    HW161508   3.242   0.250   5.324  0.6676 -0.0600 -0.1487
18899SOL    HW261509   3.171   0.117   5.308  0.6581 -0.0270 -0.3730
18900SOL     OW61510   2.281   8.735  10.077  0.1111  0.0806  0.2671
18900SOL    HW161511   2.284   8.746   9.982 -0.4054  1.9068  0.4237
18900SOL    HW261512   2.259   8.642  10.090 -0.1935 -0.1079 -1.3906
18901SOL     OW61513   3.821  10.071   5.698  0.3394 -0.9045  0.1960
18901SOL    HW161514   3.875  10.113   5.632 -1.3327  0.6712 -0.2495
18901SOL    HW261515   3.881  10.013   5.745  2.5203  1.1378  0.0855
18902SOL     OW61516   9.897   3.967   6.949  0.0434 -0.1045 -0.1320
18902SOL    HW161517   9.937   3.900   7.004  1.2630 -0.1167 -1.0082
18902SOL    HW261518   9.944   3.962   6.866 -1.5565  0.1119 -1.0981
18903SOL     OW61519  11.130   2.954   0.596  0.3649  0.4222  0.1516
18903SOL    HW161520  11.058   2.891   0.583  0.1997  0.7157 -0.3833
18903SOL    HW261521  11.207   2.900   0.608 -0.1186  0.0570  2.0104
18904SOL     OW61522   6.209   8.476  11.293  0.1647  0.5421 -0.0834
18904SOL    HW161523   6.188   8.565  11.265 -0.6267  0.0763 -1.0301
18904SOL    HW261524   6.133   8.448  11.343  0.6904  0.6196  0.7786
18905SOL     OW61525   0.534   6.533  10.359 -0.0186  0.3588 -0.0296
18905SOL    HW161526   0.438   6.526  10.359 -0.3398  3.4331 -1.3360
18905SOL    HW261527   0.553   6.610  10.305  3.2629 -0.5787 -0.4128
18906SOL     OW61528   2.497   1.368   3.624  0.2014 -0.2166  0.3554
18906SOL    HW161529   2.471   1.370   3.532 -2.9660  0.5210  1.1275
18906SOL    HW261530   2.590   1.391   3.624 -0.1631  1.8082 -2.5219
18907SOL     OW61531   1.082   3.061   2.925  0.3039  0.4770 -0.0836
18907SOL    HW161532   1.124   3.125   2.983  0.1280  0.6958 -0.1929
18907SOL    HW261533   1.155   3.020   2.878  0.4742 -0.0164  0.6022
18908SOL     OW61534   6.836  12.459   8.339 -0.6208 -0.6094 -0.2664
18908SOL    HW161535   6.807  12.465   8.248  0.3016  0.0899 -0.5303
18908SOL    HW261536   6.930  12.441   8.334 -0.0846  1.6657  0.5029
18909SOL     OW61537  11.801   3.700   1.651  0.4074  0.1663  0.1944
18909SOL    HW161538  11.795   3.605   1.645  2.9529 -0.0187 -0.9413
18909SOL    HW261539  11.853   3.716   1.730 -0.2695  0.6260  0.5470
18910SOL     OW61540  11.018   1.839   0.412 -0.1560 -0.1926  0.3858
18910SOL    HW161541  11.035   1.908   0.348  0.8529 -0.8047 -0.0217
18910SOL    HW261542  11.033   1.881   0.497  2.6361 -0.4210  0.0957
18911SOL     OW61543   9.475   5.331   0.299  0.3311  0.0640 -0.1053
18911SOL    HW161544   9.459   5.425   0.296  3.8938  0.8122  0.1707
18911SOL    HW261545   9.452   5.300   0.211  0.3276  1.4130 -0.6030
18912SOL     OW61546   7.389   1.222   6.795  0.1877 -0.1462 -0.4445
18912SOL    HW161547   7.311   1.242   6.847  0.8737  1.0018  0.1859
18912SOL    HW261548   7.458   1.208   6.860  1.1132  1.5492 -0.9915
18913SOL     OW61549  11.938   6.404   9.789  0.4328  0.3737 -0.3460
18913SOL    HW161550  12.026   6.384   9.822  0.2940  0.6354  0.1928
18913SOL    HW261551  11.891   6.435   9.866 -0.4283 -0.7035 -0.4152
18914SOL     OW61552   8.354   8.329   4.859 -0.8479 -0.1106 -0.3137
18914SOL    HW161553   8.296   8.372   4.922 -1.1220 -0.5101 -0.2905
18914SOL    HW261554   8.431   8.305   4.911 -0.4937  0.7456 -0.4235
18915SOL     OW61555   1.893   7.404   8.519 -0.3615 -0.0361  0.0174
18915SOL    HW161556   1.947   7.463   8.467  0.2078 -0.0885  0.5330
18915SOL    HW261557   1.897   7.440   8.608 -0.9567 -0.1964  0.1125
18916SOL     OW61558   3.548  12.330   5.418  0.8390 -0.1735  0.4008
18916SOL    HW161559   3.611  12.351   5.349  2.5970 -0.9503  1.6908
18916SOL    HW261560   3.564  12.395   5.486 -0.1571 -0.0617  0.5480
18917SOL     OW61561   5.793   0.136   6.637 -0.2567  0.0956  0.1598
18917SOL    HW161562   5.767   0.223   6.606 -2.0931 -0.3346  0.4265
18917SOL    HW261563   5.824   0.091   6.558 -1.6542  0.1712 -0.4596
18918SOL     OW61564   5.170   3.292  12.457 -0.0879  0.1695 -0.6219
18918SOL    HW161565   5.104   3.343  12.410 -0.3674  1.9550  1.5125
18918SOL    HW261566   5.239   3.355  12.477  0.4164 -0.7221  0.5475
18919SOL     OW61567   0.429   1.211   2.443  0.0692  0.4768 -0.0654
18919SOL    HW161568   0.454   1.242   2.356  0.2951  0.5743  0.0346
18919SOL    HW261569   0.404   1.120   2.429  1.1798  0.1568 -0.0406
18920SOL     OW61570  11.083   6.637  10.873  0.0085  0.3865 -0.2471
18920SOL    HW161571  10.987   6.632  10.877 -0.0875  2.1056  0.8985
18920SOL    HW261572  11.111   6.547  10.855 -1.8128 -0.1642 -0.5457
18921SOL     OW61573   2.720   2.170   5.489 -0.0992 -0.3456  0.2785
18921SOL    HW161574   2.775   2.217   5.551 -1.2079 -0.4277  1.3564
18921SOL    HW261575   2.633   2.171   5.528 -0.8219 -0.4752 -1.2445
18922SOL     OW61576   0.350  11.350   2.287 -0.4015  0.2753  0.0336
18922SOL    HW161577   0.310  11.323   2.204  1.8541  0.8764 -1.3369
18922SOL    HW261578   0.288  11.322   2.354 -1.4539 -1.8883 -1.7291
18923SOL     OW61579   0.732   1.337   4.393  0.3080 -0.1151  0.3816
18923SOL    HW161580   0.690   1.395   4.456 -1.3426 -1.3745  0.5186
18923SOL    HW261581   0.764   1.395   4.324 -0.2115  1.0446  1.0852
18924SOL     OW61582   6.803   9.100   4.013 -0.2328 -0.2771  0.1671
18924SOL    HW161583   6.876   9.096   3.950 -0.7079 -1.4570 -0.3364
18924SOL    HW261584   6.771   9.190   4.006  1.2810  0.3360  0.5377
18925SOL     OW61585   4.984   8.978  10.899  0.3647 -0.2793  1.0107
18925SOL    HW161586   5.040   9.051  10.873  0.3062 -0.8749 -0.9273
18925SOL    HW261587   4.962   8.996  10.990  0.2652  2.1885  0.5716
18926SOL     OW61588   7.670   8.760   7.043  0.7557 -0.0347  0.0050
18926SOL    HW161589   7.751   8.792   7.082 -0.6242  1.2053  2.0288
18926SOL    HW261590   7.632   8.836   6.999  0.5752 -0.5514 -0.7596
18927SOL     OW61591   1.676  12.404   7.459 -0.3389 -0.1166 -0.0721
18927SOL    HW161592   1.740  12.441   7.519  0.2511 -0.5425 -0.4220
18927SOL    HW261593   1.605  12.467   7.457  0.7422  1.1318 -0.8414
18928SOL     OW61594  12.134  12.533   5.373 -0.2054  0.0537  0.1157
18928SOL    HW161595  12.061  12.566   5.321 -0.1378 -0.7029 -0.4612
18928SOL    HW261596  12.095  12.504   5.455 -0.4848  0.0696 -0.0134
18929SOL     OW61597   9.017   7.190   8.586  0.0652  0.1945 -0.2911
18929SOL    HW161598   8.927   7.213   8.611 -0.7544 -0.0744 -2.6804
18929SOL    HW261599   9.028   7.227   8.499  2.2189  0.0012 -0.1613
18930SOL     OW61600  11.677   5.680   1.681 -0.1153  0.0890 -0.0384
18930SOL    HW161601  11.709   5.708   1.766  0.0584  0.2296 -0.1487
18930SOL    HW261602  11.757   5.670   1.628 -0.2492  0.3983 -0.3025
18931SOL     OW61603   9.801   4.917  11.823  1.0524  0.4678  0.0182
18931SOL    HW161604   9.816   5.004  11.861 -1.2288  1.0466 -0.2473
18931SOL    HW261605   9.819   4.928  11.730  0.0945  0.8514 -0.1264
18932SOL     OW61606   3.108   8.818   5.707 -0.1722  0.3849  0.3634
18932SOL    HW161607   3.045   8.882   5.738  0.3589  0.8211  0.5630
18932SOL    HW261608   3.194   8.857   5.725  0.1570  0.0023 -0.2964
18933SOL     OW61609   5.112   9.648   7.820  0.5958  0.0524  0.1491
18933SOL    HW161610   5.143   9.559   7.804 -1.5334 -0.5652 -0.7559
18933SOL    HW261611   5.156   9.701   7.754 -1.8154 -1.1621 -2.6157
18934SOL     OW61612  10.908   0.969   6.664 -0.1932  0.2739 -0.0539
18934SOL    HW161613  10.924   0.884   6.705 -0.3591  0.1721 -0.1953
18934SOL    HW261614  10.869   0.947   6.579  0.6220  0.4600 -0.4883
18935SOL     OW61615   3.713   2.101  10.144  0.7573  0.0308 -0.3801
18935SOL    HW161616   3.672   2.186  10.161  0.0569 -0.3600 -0.0930
18935SOL    HW261617   3.695   2.084  10.051  0.3295 -0.1043 -0.2750
18936SOL     OW61618   1.782   1.133   0.491 -0.0220  0.2898  0.0915
18936SOL    HW161619   1.826   1.175   0.417 -0.5815  1.1028  0.2051
18936SOL    HW261620   1.808   1.184   0.567 -0.2550  0.0781  0.3177
18937SOL     OW61621   7.677   0.753   4.928 -0.3954  0.6008 -0.2391
18937SOL    HW161622   7.602   0.806   4.903 -1.8089 -2.0595 -2.2050
18937SOL    HW261623   7.702   0.708   4.847  1.5883 -0.6825  0.9934
18938SOL     OW61624   4.639   8.084   6.523 -0.9747 -0.5804  0.4008
18938SOL    HW161625   4.694   8.014   6.487 -2.4590 -1.3996 -0.3340
18938SOL    HW261626   4.551   8.066   6.490 -1.5721  1.1291  0.9428
18939SOL     OW61627   9.127  11.763   9.065  0.0798 -0.3687  0.3758
18939SOL    HW161628   9.195  11.830   9.057  0.0850 -0.5381 -1.7879
18939SOL    HW261629   9.150  11.714   9.143  1.9013  0.1793  0.2321
18940SOL     OW61630   3.135   0.546   6.744  0.1244  0.4862  0.2408
18940SOL    HW161631   3.088   0.521   6.665 -0.8468 -0.2398  1.0274
18940SOL    HW261632   3.166   0.635   6.726 -0.9923  0.7357 -0.5424
18941SOL     OW61633   7.231   2.323   9.708  0.3430 -0.6515  0.2767
18941SOL    HW161634   7.162   2.312   9.773 -0.4166 -0.9004 -0.5530
18941SOL    HW261635   7.291   2.387   9.747  0.4837 -1.6139  1.6664
18942SOL     OW61636  12.499   0.495   5.879  0.3008 -0.1540  0.2484
18942SOL    HW161637  12.423   0.460   5.926  0.3189  0.0373  0.4187
18942SOL    HW261638  12.461   0.545   5.807  0.2732 -0.5554 -0.0192
18943SOL     OW61639   5.611  10.609   9.694  0.4152 -0.3004 -0.6061
18943SOL    HW161640   5.535  10.551   9.699  2.7701 -4.1067 -3.2871
18943SOL    HW261641   5.579  10.686   9.645 -1.9215 -1.2066 -0.6503
18944SOL     OW61642  12.322   8.114   3.381  0.6281  0.0730  0.6015
18944SOL    HW161643  12.363   8.113   3.468  0.2472 -0.5371  0.7857
18944SOL    HW261644  12.355   8.034   3.339  1.0866  0.5434  0.0421
18945SOL     OW61645   0.966  10.073   1.289  0.1032  0.4321  0.3348
18945SOL    HW161646   1.020   9.997   1.267  0.8010  1.1713 -0.5973
18945SOL    HW261647   0.885  10.036   1.323  0.8923 -0.7136  1.0359
18946SOL     OW61648   2.044   4.895   3.006  0.1948  0.1380 -0.2988
18946SOL    HW161649   1.970   4.890   3.067 -0.0037 -0.2559 -0.5663
18946SOL    HW261650   2.056   4.989   2.991 -0.9662  0.1776 -1.0955
18947SOL     OW61651   3.038   9.404  12.290 -0.2189 -0.0386 -0.5665
18947SOL    HW161652   2.973   9.472  12.304  1.0044  0.7942  1.5403
18947SOL    HW261653   3.011   9.332  12.347  0.8215  0.4414  0.5789
18948SOL     OW61654   1.183   3.288   2.169  0.0729 -0.1523  0.5506
18948SOL    HW161655   1.119   3.358   2.178  0.7429  0.4768  0.5726
18948SOL    HW261656   1.268   3.333   2.170  0.4858 -0.8385 -0.5900
18949SOL     OW61657   6.979   3.463   7.463  0.5539 -0.0375  0.3061
18949SOL    HW161658   6.974   3.453   7.558  0.7036 -0.7770  0.2405
18949SOL    HW261659   6.997   3.375   7.430 -2.1814 -0.3791 -0.6040
18950SOL     OW61660  12.575   3.173   3.772 -0.0946  0.2801  0.2155
18950SOL    HW161661  12.567   3.145   3.681 -2.0904  0.6251  0.2340
18950SOL    HW261662  12.660   3.217   3.776 -0.6056  1.6140 -1.8915
18951SOL     OW61663   7.759   0.684   7.777 -0.7050  0.1626  0.1774
18951SOL    HW161664   7.784   0.618   7.842 -2.0844 -1.2533 -0.6667
18951SOL    HW261665   7.842   0.714   7.740 -0.0477 -1.5243  0.2092
18952SOL     OW61666   2.972   6.064   5.051  0.1243 -0.3763  0.1950
18952SOL    HW161667   2.914   6.138   5.034  0.9408  0.8231  2.2917
18952SOL    HW261668   2.913   5.991   5.068 -0.7193  0.1778 -0.2874
18953SOL     OW61669   3.611   5.808   8.042 -0.0866  0.7687 -0.0592
18953SOL    HW161670   3.601   5.888   8.093 -0.3994  0.4583  0.3712
18953SOL    HW261671   3.672   5.754   8.093 -0.6128  0.3454  0.1260
18954SOL     OW61672   7.650   3.719   7.644 -0.1664  0.7813  0.8365
18954SOL    HW161673   7.721   3.656   7.658 -0.4472  0.4182  0.6539
18954SOL    HW261674   7.681   3.800   7.684  0.8599  0.9712 -0.3003
18955SOL     OW61675  12.621  12.349   0.205  0.3043 -0.4241 -0.0586
18955SOL    HW161676  12.699  12.298   0.187  0.0953 -0.9264  0.4364
18955SOL    HW261677  12.646  12.440   0.187  2.3661  0.0928  4.1036
18956SOL     OW61678   3.010   8.499   6.243 -0.8178 -0.2587  0.2338
18956SOL    HW161679   3.092   8.518   6.198 -0.6195  0.5607  0.9097
18956SOL    HW261680   2.977   8.585   6.270 -1.1554 -0.6958  1.2466
18957SOL     OW61681   2.125  11.586   5.250 -0.3276 -0.3891 -0.0346
18957SOL    HW161682   2.077  11.660   5.288  1.5864  1.2292 -0.5905
18957SOL    HW261683   2.198  11.572   5.311  0.3076 -0.6417 -0.8382
18958SOL     OW61684  12.084   9.583   2.049 -0.3065 -0.6024 -0.0178
18958SOL    HW161685  12.177   9.580   2.070  0.0729 -1.9980 -1.6724
18958SOL    HW261686  12.077   9.537   1.965 -2.5244 -0.8084  0.2235
18959SOL     OW61687   2.677  10.784   4.492 -0.8818 -0.0639  0.0071
18959SOL    HW161688   2.656  10.803   4.584 -1.0589  1.3064 -0.3081
18959SOL    HW261689   2.605  10.822   4.442  0.9188  2.3307 -0.9221
18960SOL     OW61690  10.048   5.173   0.693  0.8105  0.1082  0.4608
18960SOL    HW161691  10.134   5.199   0.727  0.5906  2.3767 -0.5147
18960SOL    HW261692   9.997   5.150   0.771  0.4642  4.7227  1.9158
18961SOL     OW61693  10.620   2.224   6.297 -0.2482  0.3178  0.1130
18961SOL    HW161694  10.715   2.230   6.303 -0.2611  0.7599 -0.0637
18961SOL    HW261695  10.590   2.227   6.388 -0.2335  3.0333  0.1015
18962SOL     OW61696   2.401   3.146   7.974 -0.3889 -0.8258 -0.1689
18962SOL    HW161697   2.341   3.135   7.900  1.5789 -1.3849 -1.7715
18962SOL    HW261698   2.406   3.059   8.014 -0.2345 -0.9051 -0.3619
18963SOL     OW61699  10.274  12.137   9.637 -0.0777 -0.2243 -0.0444
18963SOL    HW161700  10.239  12.052   9.611 -1.7449  0.5602 -0.5301
18963SOL    HW261701  10.213  12.168   9.705  0.8727  0.3053  0.5869
18964SOL     OW61702   2.479   5.847   9.334  0.1597 -0.5292  0.1035
18964SOL    HW161703   2.557   5.887   9.297  0.4728 -1.2536 -0.0279
18964SOL    HW261704   2.412   5.855   9.266 -0.2626  1.2146  0.6767
18965SOL     OW61705   7.839   6.984  12.129 -0.2280  0.0449 -0.2451
18965SOL    HW161706   7.761   6.955  12.176 -0.6922  1.1976 -0.2797
18965SOL    HW261707   7.884   6.903  12.105 -0.8369 -0.6021  0.7365
18966SOL     OW61708  10.958   1.485   3.127  0.1018  0.7271 -0.1196
18966SOL    HW161709  10.963   1.450   3.038  1.7076  1.8446 -0.5232
18966SOL    HW261710  10.999   1.417   3.181 -1.0987 -0.0644 -0.1571
18967SOL     OW61711   3.104  10.786   6.065 -0.1926 -0.1111 -0.3816
18967SOL    HW161712   3.120  10.839   5.987 -1.1612  0.2529 -0.3544
18967SOL    HW261713   3.161  10.823   6.132 -0.4273  0.5255 -0.5238
18968SOL     OW61714   8.097   4.459   5.414 -0.0813 -0.2787  0.7831
18968SOL    HW161715   8.126   4.473   5.323  1.5597  2.7864  1.6414
18968SOL    HW261716   8.004   4.482   5.413 -0.3252 -1.1751 -0.2343
18969SOL     OW61717   5.668   9.135   7.241 -0.8478 -0.3181 -0.7625
18969SOL    HW161718   5.647   9.196   7.171  0.0896 -0.7238 -1.4255
18969SOL    HW261719   5.596   9.072   7.241  0.3430 -1.8490 -3.1608
18970SOL     OW61720   1.853   2.319  10.803  0.3093 -0.6690  0.3215
18970SOL    HW161721   1.920   2.351  10.744 -0.7033  0.8786 -0.0458
18970SOL    HW261722   1.901   2.271  10.870  1.6729 -0.4950 -0.4916
18971SOL     OW61723   3.148   8.430   6.716 -0.0162 -0.6586 -0.2682
18971SOL    HW161724   3.168   8.378   6.638  1.9412 -0.2940 -0.0401
18971SOL    HW261725   3.083   8.494   6.686 -0.3659 -1.4363 -1.2270
18972SOL     OW61726   4.807   4.858   2.359  0.2796 -0.4344  0.3459
18972SOL    HW161727   4.885   4.906   2.333 -0.8937  0.9429 -0.8828
18972SOL    HW261728   4.839   4.786   2.413  2.4170 -0.2130 -0.5264
18973SOL     OW61729   8.109   8.486  11.459  1.0541  0.3534  0.3104
18973SOL    HW161730   8.073   8.551  11.399  0.9321 -0.1260 -0.1425
18973SOL    HW261731   8.134   8.413  11.403  2.3087  0.4894  0.6765
18974SOL     OW61732   4.992   4.144  10.069  0.5244  0.1065 -0.0587
18974SOL    HW161733   5.000   4.054  10.099  1.0691  0.5398  1.1451
18974SOL    HW261734   5.013   4.140   9.976 -1.8386 -1.3693 -0.6284
18975SOL     OW61735   4.652   8.002  11.944 -0.5054 -0.1438  0.8360
18975SOL    HW161736   4.623   8.075  11.889 -0.9080 -0.3733  0.7414
18975SOL    HW261737   4.684   7.937  11.882 -0.9546 -0.4008  0.8679
18976SOL     OW61738  10.145   7.014   0.126  0.5514  0.1020 -0.3986
18976SOL    HW161739  10.125   7.094   0.174  2.5548 -0.1585  1.0170
18976SOL    HW261740  10.208   7.042   0.059 -0.2268  0.0115 -1.1847
18977SOL     OW61741  11.325  12.380  11.613  0.2916 -0.0399  0.3077
18977SOL    HW161742  11.362  12.371  11.525  0.0198  0.2833  0.1559
18977SOL    HW261743  11.272  12.301  11.625  2.4019 -1.3992  1.2226
18978SOL     OW61744   7.705   6.591  10.303 -0.3558  0.0978 -0.1376
18978SOL    HW161745   7.729   6.500  10.319  0.1278  0.5082  1.7062
18978SOL    HW261746   7.728   6.637  10.384  0.9929  2.1770 -1.5842
18979SOL     OW61747  10.779   7.074   6.687 -0.4414  0.5077 -0.0317
18979SOL    HW161748  10.839   7.000   6.688 -2.0714 -0.8823 -0.0759
18979SOL    HW261749  10.728   7.063   6.607 -1.6138  0.9119  0.6286
18980SOL     OW61750   9.192   9.338   9.585  0.3041  0.0242  0.4081
18980SOL    HW161751   9.185   9.332   9.489  0.9201  1.9712  0.1937
18980SOL    HW261752   9.106   9.371   9.613  0.6419  1.0309  0.3174
18981SOL     OW61753   5.318   5.542   4.546  0.5369 -0.0476 -0.2855
18981SOL    HW161754   5.225   5.530   4.565  0.2117  2.3604  0.0065
18981SOL    HW261755   5.362   5.525   4.630  0.4925 -2.0198 -0.6267
18982SOL     OW61756   7.729   4.983   0.752 -0.6073 -0.3885 -0.0023
18982SOL    HW161757   7.809   4.942   0.785 -0.0150 -0.6036 -1.6253
18982SOL    HW261758   7.706   4.933   0.675  0.4469  2.5023 -2.4122
18983SOL     OW61759   7.753  11.039   6.131  0.7640  0.0285 -0.7110
18983SOL    HW161760   7.835  11.041   6.082  0.7279 -0.5057 -0.8034
18983SOL    HW261761   7.725  11.130   6.136  1.1885  0.1736 -0.9781
18984SOL     OW61762  10.434  12.350   9.312  0.2527  0.0695  0.1532
18984SOL    HW161763  10.476  12.427   9.351 -0.3995 -0.3831  1.8473
18984SOL    HW261764  10.445  12.361   9.218 -1.5587  3.2782  0.1720
18985SOL     OW61765   1.512   7.609   0.625  0.4003 -0.0393 -0.1116
18985SOL    HW161766   1.500   7.610   0.719 -0.0021 -0.9312 -0.1481
18985SOL    HW261767   1.457   7.680   0.592 -0.9559 -0.9380  0.1633
18986SOL     OW61768  11.823   1.912   2.478 -0.2658  0.0463  0.1445
18986SOL    HW161769  11.831   1.875   2.390  0.1746 -0.3211  0.3369
18986SOL    HW261770  11.910   1.943   2.499 -0.5339  0.8144  0.1658
18987SOL     OW61771   2.048   1.364  11.331 -0.1257 -0.2958  0.4109
18987SOL    HW161772   2.108   1.316  11.274  1.1462  2.6002 -0.9228
18987SOL    HW261773   2.100   1.382  11.409 -0.2323 -0.1903  0.4562
18988SOL     OW61774  11.733   1.045   4.603 -0.0740  0.2972 -0.4174
18988SOL    HW161775  11.637   1.046   4.601 -0.1586  0.3065  1.4610
18988SOL    HW261776  11.757   0.971   4.548 -1.2978 -1.1687  0.9048
18989SOL     OW61777   5.907   1.329  10.270 -0.1445 -0.0291  0.0984
18989SOL    HW161778   5.967   1.366  10.206  0.7102 -0.9324  0.3562
18989SOL    HW261779   5.956   1.331  10.353 -0.8711  0.2226  0.5371
18990SOL     OW61780  11.439   4.484  11.367  0.1952  0.1209  0.2262
18990SOL    HW161781  11.452   4.497  11.273  0.5085 -0.5765  0.1704
18990SOL    HW261782  11.344   4.485  11.378  0.0937 -1.4000 -0.3362
18991SOL     OW61783   0.976   4.160  11.181  1.3342  0.1150  0.1380
18991SOL    HW161784   1.036   4.231  11.202  1.6383  0.1409 -0.7941
18991SOL    HW261785   0.957   4.119  11.266 -0.9082  2.8684  1.1253
18992SOL     OW61786   0.066   4.743   0.654 -0.7799  0.0318 -0.0096
18992SOL    HW161787   0.042   4.663   0.701  0.1606  0.1367  0.6750
18992SOL    HW261788   0.028   4.814   0.706  1.0001  0.2062  1.1387
18993SOL     OW61789  10.923   9.314   9.135  0.3535 -0.2884  0.3279
18993SOL    HW161790  10.833   9.308   9.104 -0.1526  0.8514  1.4874
18993SOL    HW261791  10.967   9.240   9.094 -1.2212 -1.1452  0.0887
18994SOL     OW61792   6.957   7.233  10.405 -0.5257 -0.2424  0.1597
18994SOL    HW161793   6.900   7.285  10.349 -0.2774  1.2629  1.2336
18994SOL    HW261794   7.038   7.224  10.354 -1.4191 -1.7908 -1.0747
18995SOL     OW61795   8.967  12.039   8.543 -0.0177  0.8489  0.2944
18995SOL    HW161796   9.061  12.042   8.524 -0.0961  0.4844 -0.1653
18995SOL    HW261797   8.963  12.021   8.638  0.3625  3.0535  0.7770
18996SOL     OW61798   0.063   5.981   0.541 -0.0886 -0.2659 -0.1834
18996SOL    HW161799   0.044   6.038   0.467 -2.3724  1.1844  1.4097
18996SOL    HW261800   0.079   6.040   0.615  0.4331 -1.6668  0.8895
18997SOL     OW61801   1.741   4.371   5.670 -0.2397  0.2510 -0.0485
18997SOL    HW161802   1.748   4.362   5.765 -1.2807  0.4065  0.0501
18997SOL    HW261803   1.776   4.458   5.651 -1.1748  0.7257  0.3439
18998SOL     OW61804   5.353   1.209   6.234 -0.0403 -0.5040  0.3980
18998SOL    HW161805   5.378   1.182   6.322  0.0810  0.2191  0.5981
18998SOL    HW261806   5.317   1.131   6.193  0.4916 -1.0070  0.8720
18999SOL     OW61807   4.326  12.211   7.725  0.6915 -0.3259 -0.0435
18999SOL    HW161808   4.418  12.215   7.751  0.6620 -0.1686  0.0348
18999SOL    HW261809   4.295  12.301   7.729  0.0613 -0.5772  1.6612
19000SOL     OW61810   4.878  11.308   3.993  0.2203  0.0090 -0.0955
19000SOL    HW161811   4.789  11.274   3.981  0.3910  0.1338 -2.0937
19000SOL    HW261812   4.889  11.314   4.088 -2.2534  0.8875  0.2104
19001SOL     OW61813   5.473  10.821   5.000 -0.1649  0.5951 -0.2619
19001SOL    HW161814   5.455  10.900   5.051 -0.4875  1.8908 -2.2468
19001SOL    HW261815   5.507  10.758   5.063 -1.0142  1.9168  1.6022
19002SOL     OW61816   1.636   5.411   4.971 -0.4494 -0.0403  0.3064
19002SOL    HW161817   1.573   5.469   4.929  0.2077  0.6819  0.2870
19002SOL    HW261818   1.621   5.424   5.065  0.5777  1.2123  0.3369
19003SOL     OW61819   3.101   8.763   9.438 -0.1636 -0.1385  0.0262
19003SOL    HW161820   3.129   8.823   9.507  0.1642  0.1066 -0.3108
19003SOL    HW261821   3.035   8.813   9.389 -0.5002 -0.3642  0.2449
19004SOL     OW61822   6.273   5.515   0.066 -0.8138 -0.4574 -0.1215
19004SOL    HW161823   6.301   5.581   0.004 -1.7079 -0.2715 -0.3335
19004SOL    HW261824   6.192   5.480   0.030 -1.7250  0.1356  1.2649
19005SOL     OW61825   9.248  11.453  11.731 -0.0407 -0.4143 -0.1977
19005SOL    HW161826   9.208  11.531  11.692 -1.2768 -0.8140  0.2568
19005SOL    HW261827   9.313  11.425  11.665 -1.0749 -0.2381 -1.3243
19006SOL     OW61828   1.820   0.896   8.577  0.0501 -0.1134  0.1222
19006SOL    HW161829   1.738   0.847   8.582  0.1814 -0.2973  0.6624
19006SOL    HW261830   1.864   0.875   8.660  0.3976  0.4112  0.0706
19007SOL     OW61831   6.825   9.660   8.949  0.3978  0.1836 -0.0709
19007SOL    HW161832   6.908   9.705   8.939  0.1898  0.5954  0.0169
19007SOL    HW261833   6.845   9.568   8.931  0.6919  0.4070 -0.9639
19008SOL     OW61834   6.545   0.535  10.613 -0.6453 -0.2082  0.0307
19008SOL    HW161835   6.609   0.466  10.631  1.2990  1.3521 -0.5873
19008SOL    HW261836   6.556   0.555  10.520  0.0191  1.9859  0.5115
19009SOL     OW61837  10.597   7.635   5.422 -0.8562  0.4086 -0.3716
19009SOL    HW161838  10.556   7.632   5.335  1.1449  0.0910 -1.3663
19009SOL    HW261839  10.665   7.702   5.414 -0.1147 -0.1816  0.6748
19010SOL     OW61840  12.646   5.278   3.987 -0.4523  0.0889  0.0296
19010SOL    HW161841  12.715   5.317   3.933 -0.6696  1.7476  0.9062
19010SOL    HW261842  12.667   5.184   3.987  1.3181  0.4366 -0.4018
19011SOL     OW61843   6.182   9.404   4.327  0.2757 -0.7320 -0.0273
19011SOL    HW161844   6.193   9.487   4.281 -0.7852 -0.4792  0.1563
19011SOL    HW261845   6.267   9.359   4.317  1.4003  1.0208  1.1743
19012SOL     OW61846  10.706   5.350   0.247  0.0092  0.1921 -0.4857
19012SOL    HW161847  10.662   5.420   0.199 -0.6184  0.5901  0.6290
19012SOL    HW261848  10.692   5.371   0.339 -2.1167 -2.5414 -0.0622
19013SOL     OW61849   2.125   2.425   9.079 -0.1430 -0.5961  0.0704
19013SOL    HW161850   2.217   2.422   9.105  0.1697 -2.3976 -1.0370
19013SOL    HW261851   2.077   2.407   9.160  0.5422 -0.8343  0.4323
19014SOL     OW61852   1.555   5.257  10.341  0.3554 -0.6171  0.4163
19014SOL    HW161853   1.526   5.337  10.297 -0.0818 -1.5551 -1.0766
19014SOL    HW261854   1.475   5.219  10.377  0.0882 -1.7407 -1.2386
19015SOL     OW61855   7.381   9.086   5.084  0.3244  0.5921 -0.1214
19015SOL    HW161856   7.387   9.180   5.070 -0.6763  0.6306 -0.3864
19015SOL    HW261857   7.320   9.077   5.158 -0.7437  0.1308 -1.0154
19016SOL     OW61858  11.227   9.511  11.371  0.8313  0.5051 -0.0163
19016SOL    HW161859  11.194   9.444  11.431 -0.8194  0.7894 -0.5681
19016SOL    HW261860  11.181   9.495  11.289  1.1630  1.6955 -0.4554
19017SOL     OW61861   8.229   5.861   2.715  0.6270  0.3288 -0.5014
19017SOL    HW161862   8.294   5.923   2.683  1.1049  0.0578 -0.0790
19017SOL    HW261863   8.155   5.871   2.656  0.0404  2.4659  0.4754
19018SOL     OW61864  12.018   9.787   9.331  0.3717  0.1632 -0.1800
19018SOL    HW161865  12.034   9.831   9.414  1.5696 -1.9182  0.7864
19018SOL    HW261866  11.946   9.727   9.349 -1.9081  2.2617 -1.7336
19019SOL     OW61867   2.785   2.148  12.613 -0.1559  0.3159 -0.3763
19019SOL    HW161868   2.814   2.240  12.619  1.2947 -0.1975  1.1351
19019SOL    HW261869   2.828   2.115  12.534 -0.5227  0.8669 -0.8149
19020SOL     OW61870   2.792   7.507  10.868  0.0772 -0.3552 -0.9158
19020SOL    HW161871   2.806   7.501  10.963  0.6251  0.4838 -0.9351
19020SOL    HW261872   2.870   7.467  10.830  0.4731  0.4932 -1.0112
19021SOL     OW61873   2.924   3.778  10.689 -0.4973  0.2703 -0.4195
19021SOL    HW161874   2.838   3.789  10.729 -0.5622 -2.4126  0.4041
19021SOL    HW261875   2.905   3.754  10.598 -0.6518 -0.1313 -0.2882
19022SOL     OW61876   2.134   2.539   9.909  0.5107  0.2330 -0.2749
19022SOL    HW161877   2.041   2.533   9.929  0.3925 -2.1980 -1.1576
19022SOL    HW261878   2.158   2.629   9.928 -1.3479  0.1867  2.7582
19023SOL     OW61879  10.146   4.846   8.326  0.2662 -0.2100 -0.3378
19023SOL    HW161880  10.083   4.867   8.395 -0.0589 -0.8775 -0.4223
19023SOL    HW261881  10.221   4.902   8.344  0.1319 -0.2817  0.4838
19024SOL     OW61882   6.463  10.385   3.049  0.1212  0.3722 -0.2643
19024SOL    HW161883   6.480  10.476   3.072 -0.3547  0.1212  1.2508
19024SOL    HW261884   6.379  10.365   3.091  0.5802 -0.9661  0.0880
19025SOL     OW61885  10.851   5.673   2.313  0.0982 -0.0607  0.1205
19025SOL    HW161886  10.829   5.722   2.393 -0.1098  0.9005 -0.5092
19025SOL    HW261887  10.943   5.694   2.296 -0.1830  0.6708 -0.5307
19026SOL     OW61888   8.342  11.567   9.446 -0.6483  0.1208  0.0029
19026SOL    HW161889   8.374  11.556   9.356  0.0959  0.0014  0.2779
19026SOL    HW261890   8.316  11.659   9.451 -1.3723 -0.0392 -0.5411
19027SOL     OW61891   3.064   1.596   2.404  0.2062 -0.2453  0.1588
19027SOL    HW161892   3.073   1.652   2.327  1.0540 -0.0587  0.3776
19027SOL    HW261893   2.970   1.587   2.417  0.0504 -0.9013 -1.3400
19028SOL     OW61894  12.159   5.576   6.744 -0.0302  0.1344  0.2197
19028SOL    HW161895  12.152   5.508   6.812  1.6503  1.0870  1.4200
19028SOL    HW261896  12.222   5.540   6.681  0.6151  0.4277  0.6885
19029SOL     OW61897   1.612   4.157   5.123  0.7574 -0.0018 -0.3691
19029SOL    HW161898   1.597   4.247   5.152  1.2296  0.8746 -2.6162
19029SOL    HW261899   1.662   4.116   5.194 -0.6390  1.0429  1.3063
19030SOL     OW61900  10.164   8.456  10.763  0.2098 -0.5806  0.1660
19030SOL    HW161901  10.109   8.533  10.752 -0.6384 -0.9697  1.5004
19030SOL    HW261902  10.242   8.475  10.709 -1.2553 -0.1142 -1.9336
19031SOL     OW61903   1.043   0.437  10.747 -0.1141  0.1187  0.7273
19031SOL    HW161904   1.038   0.532  10.736 -1.2554 -0.1747 -1.8663
19031SOL    HW261905   0.981   0.401  10.684  0.7344 -2.4003  1.1820
19032SOL     OW61906   4.615   4.082   8.535  0.0750  0.3084  0.1803
19032SOL    HW161907   4.686   4.028   8.571  0.8925  0.7464 -0.7183
19032SOL    HW261908   4.606   4.052   8.444 -1.3958 -0.2258  0.4899
19033SOL     OW61909   6.018   3.713   7.379  0.2134 -0.2258 -0.8905
19033SOL    HW161910   5.999   3.684   7.469 -1.0026  0.6397 -0.8493
19033SOL    HW261911   6.022   3.631   7.329 -2.8042 -0.6037 -0.7126
19034SOL     OW61912   7.947   9.875  11.024  0.1095  0.7041  0.1942
19034SOL    HW161913   7.976   9.822  10.950  0.0070  0.8693  0.0344
19034SOL    HW261914   7.924   9.960  10.985 -0.2778  0.6775  0.3661
19035SOL     OW61915   1.373  11.354   7.716  0.5516  0.2092 -0.1660
19035SOL    HW161916   1.401  11.275   7.669 -1.2335  0.4100 -1.6811
19035SOL    HW261917   1.380  11.424   7.651 -3.2493  0.2629 -0.7261
19036SOL     OW61918   4.880   3.070   4.145 -0.4096  0.4038  0.3901
19036SOL    HW161919   4.834   3.008   4.201 -1.3158 -1.1410 -1.9006
19036SOL    HW261920   4.810   3.120   4.102  0.2003  0.7589 -0.2176
19037SOL     OW61921   2.578   5.146   4.066  0.4542  0.2888 -0.0823
19037SOL    HW161922   2.530   5.225   4.038 -0.3661  0.2351  1.0845
19037SOL    HW261923   2.626   5.174   4.144 -0.4748 -0.5511  0.8136
19038SOL     OW61924   6.075   0.775  12.382  0.1248  0.2313  0.2556
19038SOL    HW161925   6.149   0.831  12.356  0.4430 -0.7270 -0.9628
19038SOL    HW261926   6.116   0.698  12.422 -0.1935 -0.3776 -0.5676
19039SOL     OW61927   3.382  12.461   9.383  0.2700  0.4178  0.2189
19039SOL    HW161928   3.386  12.449   9.288 -1.3246  1.7522 -0.0463
19039SOL    HW261929   3.451  12.524   9.402  0.2275  0.5694 -0.1263
19040SOL     OW61930   6.600   8.801   9.933  0.5532  0.3229  0.3696
19040SOL    HW161931   6.584   8.866   9.865 -0.4405 -1.3949 -1.1420
19040SOL    HW261932   6.515   8.789   9.975  0.6555 -0.1896  0.4354
19041SOL     OW61933  10.312  11.827   8.968 -0.0915 -0.0309 -0.3848
19041SOL    HW161934  10.343  11.870   9.047 -2.0242  0.4329  0.1898
19041SOL    HW261935  10.307  11.734   8.991 -0.0149  0.0158 -0.1778
19042SOL     OW61936   9.315   1.495  11.664  0.2216 -0.5090  0.0341
19042SOL    HW161937   9.225   1.508  11.693  0.2640 -1.2591  0.5401
19042SOL    HW261938   9.308   1.465  11.573  0.1182  2.7343 -1.1542
19043SOL     OW61939   0.203   0.577   9.589 -0.0956 -0.9696 -0.2100
19043SOL    HW161940   0.290   0.593   9.553 -0.0992  1.0395  0.5535
19043SOL    HW261941   0.220   0.546   9.678 -0.1662 -1.7381 -0.4529
19044SOL     OW61942   7.267   0.164   2.485 -0.0464  0.1086 -0.3461
19044SOL    HW161943   7.301   0.078   2.460 -0.4972  0.1347 -1.0596
19044SOL    HW261944   7.313   0.185   2.567  0.2464 -0.6985 -0.2964
19045SOL     OW61945   9.890  11.304   3.080  0.2040 -0.0587 -0.1815
19045SOL    HW161946   9.912  11.238   3.145 -0.9599 -0.0596  0.2384
19045SOL    HW261947   9.905  11.260   2.996  2.2196  0.1150  0.0413
19046SOL     OW61948  12.387   8.116   5.170 -0.6453  0.5660 -0.3484
19046SOL    HW161949  12.395   8.176   5.244  1.0282  0.3484 -0.3087
19046SOL    HW261950  12.370   8.031   5.211  2.2699  0.0372  0.0428
19047SOL     OW61951   4.719   3.780   9.723 -0.4676  0.0588  0.0252
19047SOL    HW161952   4.726   3.860   9.775  3.8969 -0.3493  0.4621
19047SOL    HW261953   4.766   3.800   9.642  0.4236 -1.8546 -0.0049
19048SOL     OW61954  12.453  12.000   8.803 -0.1628 -0.1956 -1.2005
19048SOL    HW161955  12.358  12.008   8.804 -0.1465  0.4292 -2.3201
19048SOL    HW261956  12.483  12.080   8.759  1.0670  1.1087  1.7755
19049SOL     OW61957   6.088   2.603   8.784  0.2093 -0.9078  0.1712
19049SOL    HW161958   6.025   2.649   8.839 -0.0076 -0.9271 -0.0577
19049SOL    HW261959   6.173   2.626   8.820  0.0616 -1.1215  0.6734
19050SOL     OW61960   3.259   1.805   7.574  0.0036 -0.6511 -0.5085
19050SOL    HW161961   3.191   1.846   7.627  0.5207 -0.7562  0.2594
19050SOL    HW261962   3.212   1.751   7.511 -0.7199  1.3292 -1.7726
19051SOL     OW61963  12.633   7.699   9.934 -0.6965  0.9455 -0.0117
19051SOL    HW161964  12.679   7.675   9.854 -1.8890 -0.3111 -0.3589
19051SOL    HW261965  12.565   7.760   9.906 -2.1257 -0.6943 -0.2509
19052SOL     OW61966  11.581  10.353   5.242  0.4149  0.1121  0.0088
19052SOL    HW161967  11.497  10.398   5.229 -0.2251 -0.9125  0.5081
19052SOL    HW261968  11.645  10.409   5.198 -0.6167  0.5887 -0.9306
19053SOL     OW61969  11.238  11.476   3.349 -0.2623  0.0193  0.2006
19053SOL    HW161970  11.195  11.416   3.289  0.7602  0.2601 -0.8186
19053SOL    HW261971  11.332  11.460   3.336  0.0118  1.2049  0.5473
19054SOL     OW61972   9.874   0.789   1.591 -0.3927  0.1516 -0.2758
19054SOL    HW161973   9.847   0.878   1.614 -0.4075  0.7564 -2.4225
19054SOL    HW261974   9.794   0.737   1.599 -0.6735  0.5850 -0.2356
19055SOL     OW61975  12.006   7.153   1.715 -0.0353 -0.4453 -0.4597
19055SOL    HW161976  11.931   7.142   1.656 -0.4970  1.6019 -0.3080
19055SOL    HW261977  12.081   7.165   1.657 -0.1215 -0.6095 -0.6075
19056SOL     OW61978   9.776   9.720   8.614  0.1235 -0.2268  0.4798
19056SOL    HW161979   9.800   9.651   8.551  0.8449 -1.1706  1.7381
19056SOL    HW261980   9.783   9.801   8.564  0.7686 -0.9408 -0.6469
19057SOL     OW61981   9.108  12.463   7.970  0.0146  0.1642  0.3313
19057SOL    HW161982   9.081  12.372   7.956 -0.3864  0.2590  0.4876
19057SOL    HW261983   9.026  12.511   7.984  0.2934  0.3308  1.5331
19058SOL     OW61984   4.961   4.964   9.370  0.2458 -0.0654  0.5636
19058SOL    HW161985   4.983   4.877   9.338 -2.2860 -1.5758  2.5287
19058SOL    HW261986   4.867   4.972   9.356  0.6352  3.1843 -1.2096
19059SOL     OW61987   5.470   6.612   6.062  0.2465  0.4239  0.3269
19059SOL    HW161988   5.463   6.635   6.154  0.1349 -3.5214  1.5149
19059SOL    HW261989   5.386   6.570   6.042  1.0528 -0.7211 -0.8694
19060SOL     OW61990   4.271  10.409   5.209 -0.2100  0.1447 -0.2790
19060SOL    HW161991   4.223  10.390   5.129 -1.0439  2.1568 -0.3114
19060SOL    HW261992   4.342  10.467   5.181  1.5934 -1.8028 -0.0315
19061SOL     OW61993   0.574   9.606   1.266 -0.0757 -0.3322 -0.2023
19061SOL    HW161994   0.614   9.591   1.351  1.0213 -0.0642 -0.6515
19061SOL    HW261995   0.494   9.656   1.284  0.7404  0.7298  0.5811
19062SOL     OW61996   0.652   8.381   2.915 -0.3155  0.3307  0.0999
19062SOL    HW161997   0.656   8.421   3.002  3.1464 -0.2566  0.3589
19062SOL    HW261998   0.660   8.455   2.855  0.1130  0.5128  0.3754
19063SOL     OW61999   0.440   4.458   9.159 -0.4946  0.5813 -0.4217
19063SOL    HW162000   0.493   4.407   9.220  3.6139  2.0805 -2.3839
19063SOL    HW262001   0.400   4.394   9.101  1.8114 -0.5829 -0.7978
19064SOL     OW62002   7.979   4.672  11.813 -0.1555 -0.2901  0.9294
19064SOL    HW162003   8.005   4.758  11.844  1.4377 -0.1222 -0.7543
19064SOL    HW262004   8.059   4.620  11.815 -0.7519 -1.2597  0.3975
19065SOL     OW62005   9.258   1.281   3.636 -0.2774 -0.0209 -0.4594
19065SOL    HW162006   9.278   1.312   3.724  0.0195  0.6127 -0.7399
19065SOL    HW262007   9.336   1.233   3.608 -0.1017  0.3578 -0.6286
19066SOL     OW62008   3.240   8.089   5.968  0.0646 -0.0100 -0.3772
19066SOL    HW162009   3.304   8.158   5.987  0.0764 -0.3481  0.8583
19066SOL    HW262010   3.284   8.008   5.992 -0.9237 -0.2262  0.7684
19067SOL     OW62011   9.407  10.416   2.758  0.5103 -0.3840 -0.4264
19067SOL    HW162012   9.429  10.375   2.842  2.1057 -1.4454 -1.3027
19067SOL    HW262013   9.369  10.345   2.706 -0.8826  0.3711 -0.4940
19068SOL     OW62014  11.635  12.014   4.763  0.2229  0.1622  0.2977
19068SOL    HW162015  11.669  11.991   4.850 -0.6044  0.6634  0.7602
19068SOL    HW262016  11.675  12.099   4.744  0.3528  0.0824  0.2091
19069SOL     OW62017   8.191  10.152   9.984  0.2267 -0.3419  0.0550
19069SOL    HW162018   8.265  10.203   9.953  0.8610 -1.2026  0.0866
19069SOL    HW262019   8.176  10.087   9.915 -0.9823  0.2691 -0.2866
19070SOL     OW62020  10.589  11.545   7.844 -0.4427 -0.0456 -0.1315
19070SOL    HW162021  10.578  11.468   7.788  0.3682  0.3933 -0.9219
19070SOL    HW262022  10.635  11.512   7.921 -0.0275 -0.3443 -0.5018
19071SOL     OW62023   3.313   2.853   3.656  0.0374  0.0570  0.4122
19071SOL    HW162024   3.385   2.895   3.610  0.0767  0.4071  0.7853
19071SOL    HW262025   3.354   2.806   3.729 -0.1234  0.4378  0.7555
19072SOL     OW62026   2.278   5.445  12.054  0.1440  0.0629  0.3408
19072SOL    HW162027   2.264   5.499  12.132  1.4503  2.1804 -0.8021
19072SOL    HW262028   2.371   5.425  12.055 -0.1737 -1.5089  0.2826
19073SOL     OW62029  11.620   2.348  11.976  0.6074 -0.3185  0.8123
19073SOL    HW162030  11.639   2.377  11.887 -2.1090  0.7580  0.4750
19073SOL    HW262031  11.581   2.261  11.966 -0.2710  0.0564  0.8439
19074SOL     OW62032   6.642   0.004   8.983 -0.4126  0.5170  0.1707
19074SOL    HW162033   6.547  -0.012   8.980 -0.2101 -0.6518 -2.5689
19074SOL    HW262034   6.653   0.090   8.943 -0.2180 -0.1573 -1.2771
19075SOL     OW62035  12.384  11.075   9.710 -0.2882  0.2160 -0.2227
19075SOL    HW162036  12.307  11.126   9.685 -1.1561 -1.7970 -1.9681
19075SOL    HW262037  12.350  11.003   9.763  0.9191  1.3658  2.2373
19076SOL     OW62038   5.982   7.045   5.474  0.3601  0.7014 -0.0625
19076SOL    HW162039   5.995   7.039   5.569 -2.2949  0.7813  0.3904
19076SOL    HW262040   5.944   7.132   5.460  0.0645  0.4251 -1.0827
19077SOL     OW62041  11.780   7.376   7.774  0.3287  0.5571 -0.6265
19077SOL    HW162042  11.696   7.370   7.819  0.6886 -0.8686 -0.1220
19077SOL    HW262043  11.844   7.351   7.840  1.0011  0.0166 -1.4709
19078SOL     OW62044   0.787  10.522   1.579 -0.0463 -0.6113 -0.0479
19078SOL    HW162045   0.702  10.483   1.597  0.9703 -2.0378  2.1822
19078SOL    HW262046   0.771  10.586   1.510 -2.7586 -1.3386 -0.1855
19079SOL     OW62047   4.863   9.786   3.331  0.2379  0.5673  0.6177
19079SOL    HW162048   4.902   9.815   3.249  0.8505  2.0166  1.3767
19079SOL    HW262049   4.900   9.700   3.347  1.5520  1.0417  0.2797
19080SOL     OW62050   1.601   4.410   7.487 -0.3475  0.2188  0.0915
19080SOL    HW162051   1.643   4.358   7.419 -1.2057  0.0551 -0.3322
19080SOL    HW262052   1.673   4.447   7.538  0.2865 -1.1443  0.2170
19081SOL     OW62053  11.372  10.928   2.718 -0.4580  0.1872  0.0142
19081SOL    HW162054  11.339  10.866   2.782 -0.5236  0.5099  0.2999
19081SOL    HW262055  11.320  10.913   2.639 -1.5576  0.9539  0.5805
19082SOL     OW62056   3.707   0.311   6.527 -0.0913 -0.5087 -0.2178
19082SOL    HW162057   3.677   0.259   6.601  0.9992 -1.4244 -0.4078
19082SOL    HW262058   3.681   0.260   6.450 -1.2321  0.4408 -0.4919
19083SOL     OW62059   0.886   7.055  10.782 -0.2937  0.3036 -0.2819
19083SOL    HW162060   0.873   6.985  10.717 -0.5867 -0.3521  0.4704
19083SOL    HW262061   0.841   7.131  10.744 -1.0788 -0.2662 -0.5248
19084SOL     OW62062   0.476   8.277   9.299 -0.3054  0.7951 -0.0740
19084SOL    HW162063   0.486   8.348   9.362  0.3669  0.4689  0.1940
19084SOL    HW262064   0.513   8.200   9.343  0.0603  0.5397 -0.8096
19085SOL     OW62065   1.371   2.693   3.452  0.0081 -0.9231  0.3236
19085SOL    HW162066   1.447   2.643   3.481 -0.2278 -2.3600 -1.3910
19085SOL    HW262067   1.300   2.629   3.448 -1.4846  0.4654  2.3249
19086SOL     OW62068   3.196   5.966  12.185 -0.2122  0.5263  0.6601
19086SOL    HW162069   3.193   5.910  12.262 -0.0305 -1.1226 -0.4811
19086SOL    HW262070   3.145   5.920  12.119 -0.5332  1.9947 -0.1596
19087SOL     OW62071  10.769   6.311  10.880 -0.1168 -0.2188  0.0531
19087SOL    HW162072  10.784   6.339  10.971  1.0934  0.1788 -0.2444
19087SOL    HW262073  10.690   6.359  10.853  0.1172  0.4825  0.5667
19088SOL     OW62074   1.315  10.436   8.056  0.4281 -0.2008  0.4899
19088SOL    HW162075   1.320  10.365   8.119  0.2487 -0.5534  0.1057
19088SOL    HW262076   1.228  10.429   8.017  0.0393  0.8097  1.1289
19089SOL     OW62077   4.462   2.500  11.194  0.5077  0.0578 -0.1347
19089SOL    HW162078   4.523   2.533  11.129  1.1946  0.9410  0.9205
19089SOL    HW262079   4.377   2.537  11.169  0.0807 -2.1432 -2.3139
19090SOL     OW62080   6.886   0.737   1.307 -0.2098  0.5701 -0.5192
19090SOL    HW162081   6.915   0.672   1.372 -0.3211 -0.0763 -1.1108
19090SOL    HW262082   6.791   0.726   1.305 -0.0943 -0.3867 -1.7936
19091SOL     OW62083  10.166  11.097   1.926  0.4036  0.1839 -0.3411
19091SOL    HW162084  10.180  11.002   1.925  1.0866  0.2738 -0.0435
19091SOL    HW262085  10.234  11.131   1.868  0.3951  0.5200 -0.1511
19092SOL     OW62086   4.686   7.647   9.819  0.2491  0.0907  0.3959
19092SOL    HW162087   4.742   7.584   9.864 -0.5823 -3.0658 -2.5162
19092SOL    HW262088   4.748   7.707   9.776  1.2749 -0.9745  0.3274
19093SOL     OW62089   2.301   3.662   6.997 -0.3237  0.2564  0.6380
19093SOL    HW162090   2.241   3.652   6.923  0.7099 -0.1606 -0.1600
19093SOL    HW262091   2.362   3.731   6.970 -0.1388  0.3431  1.2509
19094SOL     OW62092   6.790  10.289   0.340  0.5024  0.3857 -0.7894
19094SOL    HW162093   6.825  10.204   0.313  0.5501 -0.6590  2.1524
19094SOL    HW262094   6.866  10.347   0.344  1.2223 -0.6247  1.1681
19095SOL     OW62095  12.491  10.367   9.799  0.3959 -0.3499  0.2865
19095SOL    HW162096  12.447  10.285   9.775  1.0358 -0.4152 -0.7321
19095SOL    HW262097  12.497  10.416   9.717  0.3000  0.5871  0.8305
19096SOL     OW62098   2.484   3.353   0.967  0.0876 -0.5987  0.4603
19096SOL    HW162099   2.469   3.418   1.035  0.7035 -0.4221  0.4318
19096SOL    HW262100   2.416   3.370   0.902 -0.1269 -0.3782  0.7420
19097SOL     OW62101   0.873  11.367   5.085  0.7853  0.3034  0.0204
19097SOL    HW162102   0.914  11.284   5.062 -0.0974 -0.2500  0.3936
19097SOL    HW262103   0.897  11.381   5.177  1.8309  1.0138 -0.3491
19098SOL     OW62104  11.128   3.555   6.456 -0.0473 -0.2103  0.0951
19098SOL    HW162105  11.206   3.501   6.451  0.2703  0.2990 -0.6899
19098SOL    HW262106  11.108   3.560   6.550  0.8909 -0.2981  0.3098
19099SOL     OW62107   7.194   7.945   8.697 -0.1331  0.4347 -0.1931
19099SOL    HW162108   7.282   7.908   8.693  0.3696  1.6218 -0.4034
19099SOL    HW262109   7.163   7.942   8.607  0.0650  0.9006 -0.2758
19100SOL     OW62110   2.637  11.396   1.830  0.5923  0.0920 -0.4906
19100SOL    HW162111   2.545  11.408   1.808  0.5424 -0.1189 -0.3942
19100SOL    HW262112   2.643  11.306   1.861  0.5042  0.6453  1.2056
19101SOL     OW62113   6.931   1.359  12.471 -0.5931  0.4162  0.4770
19101SOL    HW162114   6.980   1.277  12.473 -0.4458  0.2854 -2.7007
19101SOL    HW262115   6.990   1.422  12.429 -2.2657  0.8383 -1.4120
19102SOL     OW62116   3.503   2.734   2.922 -0.2665 -0.1510 -0.3036
19102SOL    HW162117   3.500   2.830   2.917 -0.9307 -0.2376 -2.8072
19102SOL    HW262118   3.428   2.711   2.977  0.3642  0.7574  0.9967
19103SOL     OW62119   5.746   4.286   0.333 -0.3343 -0.5724 -0.6682
19103SOL    HW162120   5.811   4.217   0.322 -0.0335 -0.2758 -0.7731
19103SOL    HW262121   5.792   4.366   0.306  0.0833  0.0339  1.6790
19104SOL     OW62122   8.016   4.291   2.509 -0.6588 -0.4069 -0.0345
19104SOL    HW162123   8.059   4.372   2.482 -2.4415  0.1468 -1.4105
19104SOL    HW262124   8.087   4.237   2.545  0.8994  1.0165 -0.8340
19105SOL     OW62125  12.516   8.429   6.747 -0.0935 -0.5803  0.2629
19105SOL    HW162126  12.494   8.511   6.704  0.1599 -1.3634 -1.4292
19105SOL    HW262127  12.436   8.377   6.741  0.7243 -1.6987 -1.7419
19106SOL     OW62128   0.896   1.096   2.334 -0.0584 -0.1096 -0.3972
19106SOL    HW162129   0.933   1.023   2.284  3.3382  2.2701 -1.7433
19106SOL    HW262130   0.949   1.099   2.414  0.5457  1.3988 -0.8226
19107SOL     OW62131   1.267   5.627  10.629 -0.5652  0.2692 -0.1994
19107SOL    HW162132   1.276   5.532  10.629 -0.9177  0.2118  1.3426
19107SOL    HW262133   1.348   5.659  10.668 -0.9298  0.5293  0.3616
19108SOL     OW62134   4.631  11.277   4.146  0.2092 -0.2610 -0.1418
19108SOL    HW162135   4.617  11.210   4.214 -0.1230 -0.3687 -0.3124
19108SOL    HW262136   4.646  11.358   4.195 -1.5741 -0.0152  0.0879
19109SOL     OW62137   8.207   1.263   8.434 -0.0429 -0.0593  0.3198
19109SOL    HW162138   8.246   1.319   8.367 -0.7264 -0.5229 -0.4856
19109SOL    HW262139   8.213   1.314   8.515  0.1750  0.7963 -0.2244
19110SOL     OW62140   4.667   6.072  10.048 -0.1073 -0.3507 -0.6987
19110SOL    HW162141   4.585   6.088  10.001 -0.5558 -0.1219  0.1457
19110SOL    HW262142   4.652   5.991  10.097 -0.7253  0.9010  1.3296
19111SOL     OW62143   7.158   7.301   9.475 -0.6140 -0.4589  0.0960
19111SOL    HW162144   7.091   7.346   9.423  1.5595  1.6861 -1.0862
19111SOL    HW262145   7.174   7.220   9.428 -0.9365 -0.0187 -0.8049
19112SOL     OW62146  10.132  10.309   8.894 -0.2233  0.0049  0.7731
19112SOL    HW162147  10.109  10.402   8.901 -1.3649 -0.1699 -0.2412
19112SOL    HW262148  10.151  10.282   8.983 -1.7691  0.7607  1.3755
19113SOL     OW62149   1.288  10.398   5.011  0.1806 -0.0945 -0.3799
19113SOL    HW162150   1.321  10.426   5.097  0.2447  0.5177 -0.5975
19113SOL    HW262151   1.261  10.307   5.024 -1.7045  0.5803  0.8402
19114SOL     OW62152   6.884   9.512  11.222  0.1837  0.5507  0.3507
19114SOL    HW162153   6.845   9.594  11.191 -0.3889 -0.0237 -0.4892
19114SOL    HW262154   6.915   9.468  11.143  0.5981  0.0088  0.8052
19115SOL     OW62155   9.765   9.833   6.795 -0.0414 -0.3049 -0.3822
19115SOL    HW162156   9.841   9.872   6.753 -0.9646  3.1425  0.8569
19115SOL    HW262157   9.757   9.747   6.753  3.5110 -0.1850 -1.6929
19116SOL     OW62158   9.894  10.810   9.014  0.2716  0.2000  0.0866
19116SOL    HW162159   9.931  10.836   9.098  0.9444 -0.8338  0.1327
19116SOL    HW262160   9.904  10.887   8.958 -0.0296  0.8391  0.9030
19117SOL     OW62161   0.917   1.192   5.622  0.0505  0.0446 -0.2560
19117SOL    HW162162   0.945   1.127   5.686  2.9858  2.6423  1.3829
19117SOL    HW262163   0.886   1.266   5.675  0.7449  1.5489 -1.8372
19118SOL     OW62164   0.730   9.589   7.310  0.1088  0.1449 -0.0874
19118SOL    HW162165   0.782   9.652   7.359  0.0175  0.4228 -0.3478
19118SOL    HW262166   0.794   9.525   7.277  0.2702  0.4160 -0.3026
19119SOL     OW62167   5.672   4.192   7.369 -0.2123 -0.1115 -0.0284
19119SOL    HW162168   5.702   4.122   7.310  0.5496  0.3775 -0.2344
19119SOL    HW262169   5.645   4.263   7.311  1.3563  0.7090  0.1887
19120SOL     OW62170   1.947   3.036  11.543  0.3888 -0.1743 -0.0381
19120SOL    HW162171   1.877   2.979  11.576  0.1385 -0.9656 -1.8200
19120SOL    HW262172   2.000   2.978  11.488  1.4923  0.8074 -0.0319
19121SOL     OW62173  11.137   8.833  10.679  0.7622 -0.9037 -0.5774
19121SOL    HW162174  11.088   8.866  10.754  1.0452 -0.2398 -0.6777
19121SOL    HW262175  11.102   8.745  10.664  0.5307 -0.9444  0.1720
19122SOL     OW62176   5.826  11.316   0.093  0.4826  0.0530  0.4416
19122SOL    HW162177   5.791  11.384   0.149  1.5990  1.5194 -0.5595
19122SOL    HW262178   5.801  11.234   0.135 -2.4987  1.0018  0.7250
19123SOL     OW62179   0.360   8.824   7.562  0.3781  0.2127  0.3055
19123SOL    HW162180   0.298   8.751   7.554  1.4410 -0.7607  0.6382
19123SOL    HW262181   0.310   8.901   7.534 -0.4872 -0.7726 -1.0111
19124SOL     OW62182   1.557  11.047  11.554 -0.0094 -0.0660 -0.5440
19124SOL    HW162183   1.550  11.091  11.469  1.1283  0.0244 -0.6028
19124SOL    HW262184   1.524  11.111  11.617  1.7278  0.9568 -0.6156
19125SOL     OW62185   4.465   6.599   4.000 -0.2581  0.0086  0.3692
19125SOL    HW162186   4.457   6.509   3.969  1.0379  0.3603 -1.1199
19125SOL    HW262187   4.383   6.641   3.972 -1.1011 -0.7878  1.5341
19126SOL     OW62188   3.425   0.845  11.287  0.2288 -0.4445  0.3194
19126SOL    HW162189   3.472   0.868  11.207  0.4907 -0.3134  0.5098
19126SOL    HW262190   3.397   0.755  11.273  1.8564 -1.0664  0.8178
19127SOL     OW62191   1.094   8.031   2.382 -0.0574 -0.1155 -0.4416
19127SOL    HW162192   1.079   8.113   2.428  2.1201 -0.1593  0.4552
19127SOL    HW262193   1.137   7.975   2.446  0.1636 -1.3129 -1.6015
19128SOL     OW62194   6.538   7.115   4.611  0.3234  0.3244 -0.3020
19128SOL    HW162195   6.623   7.070   4.613  0.6068  0.7196 -2.0001
19128SOL    HW262196   6.492   7.083   4.689  2.3822  0.8466  1.2393
19129SOL     OW62197   8.283  10.633   8.497  0.0547  0.1226  0.4916
19129SOL    HW162198   8.221  10.706   8.484 -0.8652 -0.2988  2.1366
19129SOL    HW262199   8.228  10.561   8.528  0.7663 -1.7107 -2.1855
19130SOL     OW62200   8.697   2.800  11.474  0.0828 -0.1655  0.8899
19130SOL    HW162201   8.776   2.747  11.485  0.3762 -0.0288 -0.4783
19130SOL    HW262202   8.728   2.884  11.441 -0.5010  0.4443  1.8315
19131SOL     OW62203   4.548   8.324   8.572 -0.6031 -0.2503  0.0632
19131SOL    HW162204   4.622   8.331   8.632  0.6293  0.1694 -1.4613
19131SOL    HW262205   4.578   8.265   8.503 -1.6841 -0.0328 -0.6213
19132SOL     OW62206   7.783   3.204  12.423 -0.1071 -0.3489 -0.0949
19132SOL    HW162207   7.778   3.109  12.427  0.1474 -0.4597 -1.5906
19132SOL    HW262208   7.711   3.230  12.364 -0.1488  0.3808  0.2594
19133SOL     OW62209   5.247   6.924   8.133  0.5441 -0.2411  0.0943
19133SOL    HW162210   5.225   7.015   8.151 -0.1599 -0.6377  1.3539
19133SOL    HW262211   5.221   6.876   8.212  1.1017 -1.5054 -0.4504
19134SOL     OW62212   7.889   7.473   6.573  0.6255 -0.2696 -0.3116
19134SOL    HW162213   7.853   7.392   6.538 -0.3173  0.0884 -0.1974
19134SOL    HW262214   7.936   7.447   6.652  0.3843 -0.7098 -0.3138
19135SOL     OW62215   3.573   3.393   3.427 -0.8175  0.2428  1.0779
19135SOL    HW162216   3.486   3.353   3.426 -0.8254  0.1464 -1.1625
19135SOL    HW262217   3.608   3.375   3.339  1.1214  1.0199  1.6365
19136SOL     OW62218   0.937  12.647   2.532 -0.2566  0.0395  0.2811
19136SOL    HW162219   1.021  12.601   2.527  2.6420  4.5946  0.6454
19136SOL    HW262220   0.912  12.641   2.624  0.3803 -0.2805  0.4430
19137SOL     OW62221   4.644   6.112   8.046 -0.0624  0.0248 -0.5501
19137SOL    HW162222   4.610   6.024   8.028  1.0019 -0.3873 -0.5995
19137SOL    HW262223   4.667   6.146   7.959 -0.6318  0.4295 -0.5478
19138SOL     OW62224   0.898   5.223  11.181  0.5832 -0.4781 -0.5897
19138SOL    HW162225   0.905   5.153  11.116  0.5607 -0.3872 -0.6920
19138SOL    HW262226   0.983   5.266  11.180 -0.1732  1.1423 -2.4272
19139SOL     OW62227   9.785  12.190   8.790 -0.0845 -0.2294 -0.0468
19139SOL    HW162228   9.812  12.135   8.864 -1.3445 -0.9473 -0.0933
19139SOL    HW262229   9.700  12.224   8.816  0.1799  0.8192 -0.5072
19140SOL     OW62230   7.532   9.981   6.652 -0.6172  0.2265  0.2432
19140SOL    HW162231   7.572   9.968   6.738  1.2202  1.6184 -0.3386
19140SOL    HW262232   7.603   9.968   6.590 -1.5276  0.8328 -0.9711
19141SOL     OW62233   1.466   1.998   1.183 -0.1925  0.1892  0.5475
19141SOL    HW162234   1.376   1.991   1.217  0.1039  0.3975  1.4085
19141SOL    HW262235   1.495   2.086   1.209  0.0722  0.3303 -0.2077
19142SOL     OW62236   2.751  10.589   5.482  0.6724  0.1789  0.0214
19142SOL    HW162237   2.741  10.655   5.551 -2.0868  0.9815 -1.0119
19142SOL    HW262238   2.809  10.630   5.418  1.3421  0.3860  0.7488
19143SOL     OW62239   5.272  11.525  12.273 -0.3244 -0.8439  0.1337
19143SOL    HW162240   5.352  11.493  12.315  0.4428  1.6778  0.7311
19143SOL    HW262241   5.294  11.613  12.243 -3.0528  0.1645  0.8338
19144SOL     OW62242   4.698   4.999   9.326 -0.0467  0.3387  0.4825
19144SOL    HW162243   4.656   5.081   9.352 -0.4621  0.4013 -0.3196
19144SOL    HW262244   4.627   4.935   9.330 -0.0087  0.2631 -0.0201
19145SOL     OW62245   8.005   6.393   0.086 -0.4750 -0.9340  0.5962
19145SOL    HW162246   8.033   6.466   0.142 -1.2561 -0.7255  0.7277
19145SOL    HW262247   7.962   6.436   0.012 -1.3973 -1.2803  0.9302
19146SOL     OW62248   7.150   3.207   4.532  0.0264 -0.0277 -0.2547
19146SOL    HW162249   7.103   3.237   4.454 -1.5230  0.4731  0.8384
19146SOL    HW262250   7.120   3.118   4.546  1.2895 -0.5885 -0.9457
19147SOL     OW62251   8.731  12.008  11.389 -0.2979  0.0631  0.4613
19147SOL    HW162252   8.787  12.021  11.312 -2.3080 -1.2695 -1.3441
19147SOL    HW262253   8.792  11.990  11.460  1.6044  0.1171 -1.0721
19148SOL     OW62254   4.600   8.745   8.863  0.3125 -0.3394 -0.4298
19148SOL    HW162255   4.682   8.710   8.827  1.2838  0.4460  0.9581
19148SOL    HW262256   4.627   8.806   8.931 -1.4449 -0.2719  0.2583
19149SOL     OW62257  11.690  11.849   9.244 -0.3418  0.1262  0.4042
19149SOL    HW162258  11.599  11.846   9.216  0.0479 -1.0135 -0.8209
19149SOL    HW262259  11.714  11.942   9.235 -1.4141  0.4801  0.9479
19150SOL     OW62260   9.186   5.728   9.705  0.2486  0.4864 -0.3113
19150SOL    HW162261   9.191   5.641   9.744 -0.2134 -0.2991 -1.8937
19150SOL    HW262262   9.277   5.752   9.689  0.3378 -0.9549 -2.3623
19151SOL     OW62263   6.216   0.034   3.048 -0.0184  0.3501 -0.0683
19151SOL    HW162264   6.167   0.071   2.974  0.0845 -1.6347 -1.1954
19151SOL    HW262265   6.237  -0.055   3.020  2.3783  0.4263  1.2695
19152SOL     OW62266   3.452   0.510   7.002 -0.1425  0.1530 -0.3743
19152SOL    HW162267   3.456   0.572   6.930  0.8530  0.6243  0.0716
19152SOL    HW262268   3.366   0.470   6.995 -0.5836  1.1888 -0.9981
19153SOL     OW62269   6.765   5.045   3.917  0.2921  0.1231 -0.7674
19153SOL    HW162270   6.812   5.078   3.841  1.4862 -1.1493 -0.6102
19153SOL    HW262271   6.700   4.984   3.881 -1.4371  1.9997 -0.9986
19154SOL     OW62272   0.306   1.441   1.256 -0.2342  0.4802  0.5012
19154SOL    HW162273   0.245   1.374   1.289  0.8599 -0.8622 -0.1022
19154SOL    HW262274   0.389   1.422   1.299  0.2958  0.9395 -0.2862
19155SOL     OW62275   8.222   8.058   9.606 -0.3052  0.3303  0.2342
19155SOL    HW162276   8.204   8.022   9.693 -0.1612  1.4854  0.7610
19155SOL    HW262277   8.317   8.046   9.594 -0.5821 -1.4375 -0.5402
19156SOL     OW62278   1.192   2.665   9.897  0.3592  0.2161  0.2505
19156SOL    HW162279   1.130   2.736   9.913 -0.0572 -0.0554 -0.1142
19156SOL    HW262280   1.278   2.708   9.892  0.2216  0.5677  0.9437
19157SOL     OW62281   0.596   0.845   9.852 -0.0972  0.3936 -0.4860
19157SOL    HW162282   0.546   0.812   9.926  0.9789 -1.6815 -0.6127
19157SOL    HW262283   0.550   0.925   9.825 -2.7510 -0.8884 -0.0288
19158SOL     OW62284   3.447   0.595   5.166 -0.1522  0.2735  0.4153
19158SOL    HW162285   3.390   0.613   5.091 -1.0797  0.1553  1.0779
19158SOL    HW262286   3.499   0.520   5.139 -0.4879  0.2235 -0.1042
19159SOL     OW62287   5.751  12.511   5.917  0.2008  0.0383 -0.0837
19159SOL    HW162288   5.831  12.541   5.960 -0.0463  0.3570  0.1569
19159SOL    HW262289   5.685  12.574   5.943 -0.4035 -0.8855  0.6804
19160SOL     OW62290   2.356   9.809   3.230 -0.0459  0.3362  0.1700
19160SOL    HW162291   2.272   9.819   3.184 -0.8700  0.1319  1.5897
19160SOL    HW262292   2.401   9.741   3.180 -0.6911  0.4834 -0.6466
19161SOL     OW62293   1.289   3.977   8.824  0.1699 -0.1862  0.0043
19161SOL    HW162294   1.289   3.964   8.918 -0.5566  0.5713  0.1271
19161SOL    HW262295   1.273   3.891   8.787  2.1344 -0.8119  0.4885
19162SOL     OW62296   1.092   2.055   9.489  0.0390  0.1039  0.1119
19162SOL    HW162297   1.130   2.140   9.467 -1.0850  1.1114  1.7889
19162SOL    HW262298   1.003   2.059   9.453 -0.7429  0.5305  2.0029
19163SOL     OW62299   1.987  10.513   9.320 -0.0722 -0.2348 -0.3861
19163SOL    HW162300   1.957  10.604   9.324 -0.3724 -0.3132 -0.8017
19163SOL    HW262301   2.083  10.520   9.317  0.0307 -0.0072  1.7084
19164SOL     OW62302   0.947   8.986   5.044 -0.1299 -0.5116 -0.1036
19164SOL    HW162303   0.864   8.939   5.037  0.6910 -3.1912  4.3343
19164SOL    HW262304   1.013   8.920   5.023  0.9436  0.3691  0.4330
19165SOL     OW62305   0.201  11.338  11.391 -0.1198 -0.4223  0.5629
19165SOL    HW162306   0.261  11.272  11.355  1.6583  1.1623  0.4315
19165SOL    HW262307   0.135  11.288  11.439  0.4212 -2.3330 -0.5871
19166SOL     OW62308   9.057  11.813   0.662 -0.3535 -0.5047 -0.1596
19166SOL    HW162309   9.045  11.870   0.586 -0.8446 -1.4044 -0.7696
19166SOL    HW262310   9.002  11.853   0.730 -1.5320 -0.8197 -0.8992
19167SOL     OW62311   9.031   6.722   7.348 -0.9379 -0.1873  0.0017
19167SOL    HW162312   9.038   6.811   7.383  1.0556  0.7947 -2.5378
19167SOL    HW262313   9.074   6.667   7.413  2.4769  1.5106 -0.5669
19168SOL     OW62314   1.914   8.694   6.580 -0.2009 -0.0655 -0.5525
19168SOL    HW162315   1.951   8.610   6.555  1.3774  0.7555 -1.1281
19168SOL    HW262316   1.990   8.748   6.602 -1.2541  0.7040  1.4877
19169SOL     OW62317   9.968  10.266   5.740 -0.3720  0.6185  0.3130
19169SOL    HW162318  10.017  10.340   5.703 -0.2624 -0.0263 -0.8771
19169SOL    HW262319  10.035  10.213   5.783 -0.4070  1.0445  0.9077
19170SOL     OW62320   7.095   3.575   8.700  0.3664  0.4465 -0.8613
19170SOL    HW162321   7.112   3.658   8.657 -0.1399  0.2168 -1.5244
19170SOL    HW262322   7.036   3.529   8.640  0.4295 -0.2776 -0.3760
19171SOL     OW62323   6.206   3.355   3.678 -0.0489 -0.0352  0.0240
19171SOL    HW162324   6.225   3.443   3.710  1.9736  0.6048 -2.5222
19171SOL    HW262325   6.286   3.305   3.696 -0.3071 -0.6737 -0.5471
19172SOL     OW62326   3.206   3.759   4.255 -0.1869  0.4032 -0.1528
19172SOL    HW162327   3.132   3.718   4.210  0.0773 -0.1389 -0.0986
19172SOL    HW262328   3.197   3.732   4.346  0.9540 -0.9958 -0.4134
19173SOL     OW62329   0.506   2.131   0.312 -0.0555  0.2141  0.0333
19173SOL    HW162330   0.441   2.065   0.335  0.9920 -0.1296  2.2775
19173SOL    HW262331   0.580   2.081   0.277 -0.7442  0.5723 -2.0974
19174SOL     OW62332   1.362   7.357   9.864  0.2355  1.1290  0.6754
19174SOL    HW162333   1.267   7.351   9.857  0.2510  1.2976  0.2861
19174SOL    HW262334   1.377   7.412   9.941 -0.0194  2.7186 -0.3575
19175SOL     OW62335  11.395  11.762   6.823  0.5195 -0.6736 -0.0349
19175SOL    HW162336  11.328  11.700   6.793  0.1649  0.3068 -1.3611
19175SOL    HW262337  11.345  11.836   6.858  0.7791  0.9365 -2.7982
19176SOL     OW62338   8.687  12.255   3.570 -0.8273  0.3267 -0.0840
19176SOL    HW162339   8.666  12.330   3.626  0.2237 -0.7649  1.8838
19176SOL    HW262340   8.648  12.180   3.615 -0.4206 -0.5297 -1.1233
19177SOL     OW62341   4.590   8.525  12.120 -0.1110 -0.2474 -0.5696
19177SOL    HW162342   4.620   8.533  12.211 -0.1086 -1.4632 -0.4429
19177SOL    HW262343   4.652   8.577  12.069  1.8409 -2.1079 -0.2320
19178SOL     OW62344  11.047   1.864   9.029  0.4587 -0.4001  0.6430
19178SOL    HW162345  11.114   1.876   8.962  0.5708  0.3781  0.8784
19178SOL    HW262346  11.036   1.770   9.036 -0.6906 -0.5127 -1.6107
19179SOL     OW62347  10.828   0.774   2.849  0.2455  0.3554  0.3621
19179SOL    HW162348  10.738   0.799   2.872  0.1600  1.0619 -0.6551
19179SOL    HW262349  10.877   0.785   2.931 -0.4459  0.6952  0.7475
19180SOL     OW62350   9.410   7.663   6.972  0.1902 -0.0476  0.2052
19180SOL    HW162351   9.417   7.757   6.989  0.3493  0.0363 -0.3000
19180SOL    HW262352   9.346   7.632   7.036 -2.1995  0.9375 -1.5132
19181SOL     OW62353   3.955   4.700   6.247 -0.4605  0.3356  0.0999
19181SOL    HW162354   3.871   4.723   6.287 -0.4681  0.8210 -0.1819
19181SOL    HW262355   3.931   4.661   6.162 -0.4597 -1.0143  0.6994
19182SOL     OW62356   0.491  11.164   9.239 -0.5881  0.1090 -0.2859
19182SOL    HW162357   0.466  11.080   9.200 -1.8540  0.5186 -0.4095
19182SOL    HW262358   0.532  11.141   9.322  1.7732 -0.7621 -1.5880
19183SOL     OW62359   9.908   5.086   9.811 -0.3760 -0.4421  0.2393
19183SOL    HW162360   9.843   5.155   9.826 -1.3677 -1.3632  0.3560
19183SOL    HW262361   9.895   5.061   9.720  0.0448 -0.4142  0.1702
19184SOL     OW62362   4.721  11.198   7.729 -0.2294  0.3133  0.7671
19184SOL    HW162363   4.790  11.264   7.727 -1.4417  1.6327  0.6498
19184SOL    HW262364   4.649  11.240   7.775 -0.8448 -1.1626  1.2190
19185SOL     OW62365   8.598  10.681   3.150 -0.2884  0.2171 -0.4806
19185SOL    HW162366   8.630  10.680   3.060  0.0083  1.0564 -0.3958
19185SOL    HW262367   8.572  10.772   3.165 -1.0386 -0.0662  0.0431
19186SOL     OW62368   2.535   6.896   9.061 -0.3397  0.3198 -0.0841
19186SOL    HW162369   2.553   6.966   9.124  1.1488  1.0375 -1.2422
19186SOL    HW262370   2.584   6.821   9.094 -0.9596  0.1589  0.5076
19187SOL     OW62371   5.526  11.366   0.873 -0.3311 -0.6658 -0.1860
19187SOL    HW162372   5.616  11.371   0.841  0.0446 -0.0603  0.9110
19187SOL    HW262373   5.525  11.290   0.930 -0.3316 -0.2991  0.3120
19188SOL     OW62374   5.048   6.560   2.567 -0.2819  0.4998 -0.5226
19188SOL    HW162375   5.046   6.483   2.511  0.2034  0.6676 -0.7710
19188SOL    HW262376   5.098   6.532   2.644 -1.4558  0.0847  0.1128
19189SOL     OW62377   4.154   8.899   8.816 -0.1738  0.5275 -0.1346
19189SOL    HW162378   4.218   8.849   8.766  1.8757  2.1624  0.7071
19189SOL    HW262379   4.102   8.832   8.861  1.1876 -0.8732 -0.5338
19190SOL     OW62380   9.574   2.649   4.421 -0.5447 -0.0016 -0.1344
19190SOL    HW162381   9.523   2.637   4.501 -0.9095 -2.5948 -0.6517
19190SOL    HW262382   9.633   2.573   4.419  0.4900  0.7993 -1.5833
19191SOL     OW62383   2.747   2.916   6.948 -0.3258 -0.0713  0.2151
19191SOL    HW162384   2.842   2.931   6.955  0.1693 -1.1636 -2.7250
19191SOL    HW262385   2.715   2.989   6.896 -0.5710 -1.0779 -1.1074
19192SOL     OW62386   1.182  10.686   5.404 -0.2757 -0.1773  0.4637
19192SOL    HW162387   1.159  10.779   5.412 -0.7262 -0.2277 -0.1396
19192SOL    HW262388   1.124  10.654   5.335 -0.1482 -0.9173  0.7010
19193SOL     OW62389   3.833   1.528   1.587  0.3896 -0.0758 -0.1042
19193SOL    HW162390   3.760   1.516   1.527  0.7811  2.0214 -1.0899
19193SOL    HW262391   3.910   1.503   1.535  0.7887  2.2905 -0.7828
19194SOL     OW62392   7.324   7.781   8.082  0.3711 -0.6741 -0.3511
19194SOL    HW162393   7.286   7.755   7.998 -1.5985  1.1021 -0.0951
19194SOL    HW262394   7.259   7.752   8.147  0.9759 -0.3833  0.3896
19195SOL     OW62395  12.452  11.370   2.519  0.5029 -0.0272 -0.1836
19195SOL    HW162396  12.429  11.401   2.607  1.3386 -1.8310  0.7262
19195SOL    HW262397  12.501  11.443   2.481  0.9686  0.4496  1.2274
19196SOL     OW62398   0.044  12.500   0.728 -0.2214  0.2167  0.2925
19196SOL    HW162399   0.094  12.431   0.685 -1.9812  0.3292 -2.1968
19196SOL    HW262400   0.111  12.559   0.764  1.4312 -0.4428 -1.4919
19197SOL     OW62401   4.000   8.397   5.675  0.1623  0.1694 -0.2814
19197SOL    HW162402   4.025   8.438   5.593 -0.2364  0.5468 -0.2208
19197SOL    HW262403   4.012   8.466   5.741  2.5067 -0.7190  0.3317
19198SOL     OW62404   1.669   1.305  12.190 -0.6626  0.1500 -0.5590
19198SOL    HW162405   1.742   1.323  12.131  0.8658 -0.9968  0.8511
19198SOL    HW262406   1.634   1.222  12.160  0.5887 -0.8058  0.5086
19199SOL     OW62407   5.126  10.052   8.638 -0.4045  0.2387 -0.5258
19199SOL    HW162408   5.104  10.090   8.553 -0.1410 -0.5376 -0.9516
19199SOL    HW262409   5.161   9.966   8.617 -0.9447 -0.2239  0.4157
19200SOL     OW62410   3.478  11.708   3.734 -0.2445 -0.0185 -0.0122
19200SOL    HW162411   3.456  11.801   3.726 -1.8065 -0.1494  1.8602
19200SOL    HW262412   3.396  11.663   3.712 -0.1850 -0.8169  1.2882
19201SOL     OW62413   1.107   6.622  11.671 -0.3159  0.1103 -0.3033
19201SOL    HW162414   1.114   6.532  11.639 -0.1576  0.2358 -0.6363
19201SOL    HW262415   1.024   6.654  11.636  0.3414  0.5896 -1.5094
19202SOL     OW62416   4.912  11.225   9.800 -0.7026  0.0892 -0.2230
19202SOL    HW162417   4.921  11.316   9.770 -0.1276 -0.1933 -0.9466
19202SOL    HW262418   5.000  11.200   9.828 -0.5646 -0.6474 -1.2507
19203SOL     OW62419   2.822   1.318   3.609 -0.2520 -0.1327 -0.5925
19203SOL    HW162420   2.860   1.244   3.561 -1.3777 -0.8284 -0.4308
19203SOL    HW262421   2.898   1.366   3.642  0.5072 -0.7705 -1.3602
19204SOL     OW62422   5.086   3.265   7.742  0.3984 -0.0052  0.5596
19204SOL    HW162423   5.125   3.349   7.720  1.1976 -0.0840  1.6250
19204SOL    HW262424   5.161   3.208   7.761 -0.1376 -0.8934  0.0909
19205SOL     OW62425   9.535   3.904  10.392 -0.2312  0.5875  0.6540
19205SOL    HW162426   9.502   3.990  10.365 -0.0292 -0.2328 -2.5053
19205SOL    HW262427   9.475   3.841  10.352  1.0378 -0.7920  0.8236
19206SOL     OW62428   1.306   8.286   8.397 -0.1019  0.0088  0.0664
19206SOL    HW162429   1.300   8.198   8.360 -0.0808  0.1362 -0.2441
19206SOL    HW262430   1.217   8.321   8.391  0.3523  0.9444 -2.1619
19207SOL     OW62431  10.516   9.974  12.004 -0.4854  0.1627  0.5808
19207SOL    HW162432  10.424  10.002  12.008 -0.6255  0.0021 -0.9842
19207SOL    HW262433  10.547  10.006  11.919 -0.7776 -4.6267 -1.6474
19208SOL     OW62434   9.119   1.610   9.620 -0.7303 -0.5337  0.3618
19208SOL    HW162435   9.158   1.697   9.636  0.1145 -0.8618  0.1604
19208SOL    HW262436   9.028   1.628   9.599 -0.1880  0.4792 -1.3892
19209SOL     OW62437   2.375   1.229   3.041 -0.0093 -0.1475 -0.0695
19209SOL    HW162438   2.371   1.283   2.962  1.7557  1.4495  0.8509
19209SOL    HW262439   2.292   1.246   3.085 -0.3575  0.1615 -0.8260
19210SOL     OW62440  10.638  11.520   6.677  0.0668  0.4859  0.2031
19210SOL    HW162441  10.546  11.503   6.698 -0.6075  0.7153 -2.2530
19210SOL    HW262442  10.656  11.465   6.601  2.0171  0.3664  0.6993
19211SOL     OW62443   2.342   2.885   8.094 -0.2640  0.4533 -0.0123
19211SOL    HW162444   2.404   2.846   8.155 -0.9485  0.6314  0.8146
19211SOL    HW262445   2.300   2.810   8.051  0.3444  0.3305 -0.3945
19212SOL     OW62446   2.653   8.905   9.407 -0.3717 -0.6292  0.3570
19212SOL    HW162447   2.713   8.847   9.360  2.0145  1.1873  0.9731
19212SOL    HW262448   2.684   8.903   9.497 -2.3032 -0.8480  1.0746
19213SOL     OW62449   4.660   5.021   5.731  0.3167  0.3817  0.2181
19213SOL    HW162450   4.591   5.005   5.795 -0.0155  0.7650 -0.0368
19213SOL    HW262451   4.638   4.963   5.658 -1.3580  2.4873 -1.0551
19214SOL     OW62452   8.858   1.360  11.651  0.3882 -0.6932 -0.2816
19214SOL    HW162453   8.922   1.425  11.680 -0.2361  0.2548 -0.9619
19214SOL    HW262454   8.830   1.391  11.565 -2.8361  0.3668  0.9993
19215SOL     OW62455   6.631   5.831   0.343  0.0797 -0.8542 -0.0793
19215SOL    HW162456   6.627   5.829   0.439  1.6690  0.2872  0.0411
19215SOL    HW262457   6.594   5.915   0.319 -1.2287 -1.5342 -0.5760
19216SOL     OW62458   9.596   9.569   2.930 -0.8110  0.0978  0.8483
19216SOL    HW162459   9.616   9.552   3.022  1.3048 -1.6860  0.1287
19216SOL    HW262460   9.547   9.492   2.902 -0.1872 -0.0507  0.1367
19217SOL     OW62461   4.705   5.378   3.791  0.3407 -0.3863 -0.3561
19217SOL    HW162462   4.796   5.404   3.805  0.5671 -0.5226 -1.4710
19217SOL    HW262463   4.670   5.444   3.731 -0.4882  0.0072  0.5271
19218SOL     OW62464   5.722   6.230  11.438  0.4336  0.4723 -0.9021
19218SOL    HW162465   5.773   6.300  11.397  1.5450  1.1376  1.4343
19218SOL    HW262466   5.641   6.274  11.466 -0.2065  0.0800 -2.0675
19219SOL     OW62467   2.598  10.265  11.032 -0.0660 -0.2345 -0.0668
19219SOL    HW162468   2.585  10.323  10.957  0.6001  1.2783  0.9197
19219SOL    HW262469   2.527  10.202  11.027 -1.4743  1.3200 -0.6355
19220SOL     OW62470   1.024   3.024   4.829 -0.0464 -0.0609 -0.0384
19220SOL    HW162471   1.090   2.980   4.882 -0.6807 -0.3888  0.4920
19220SOL    HW262472   0.941   3.004   4.872 -0.5090  0.2252 -0.7784
19221SOL     OW62473   6.453   4.733  10.361 -0.3670 -0.2402  0.4633
19221SOL    HW162474   6.413   4.694  10.284  0.7687  0.2425 -0.4031
19221SOL    HW262475   6.430   4.675  10.433  1.7812 -2.9501 -0.8401
19222SOL     OW62476   5.448   9.122   9.272  0.5023 -0.3432 -0.2829
19222SOL    HW162477   5.482   9.044   9.230  1.0451 -1.7290  2.4917
19222SOL    HW262478   5.525   9.165   9.309  0.0581  0.8139 -0.6582
19223SOL     OW62479   0.813   9.559   0.336  0.0655 -0.1347  0.1595
19223SOL    HW162480   0.845   9.605   0.258  1.3903 -0.1430  0.6652
19223SOL    HW262481   0.811   9.467   0.311  4.1966 -0.7016  1.1520
19224SOL     OW62482   1.682  11.116  12.481  0.6638  0.0005  0.4227
19224SOL    HW162483   1.614  11.049  12.468  0.1854  0.7692 -1.3610
19224SOL    HW262484   1.633  11.195  12.504  0.9590  0.4604 -0.4750
19225SOL     OW62485   8.355   1.149  10.120 -0.3082 -0.6131  0.9368
19225SOL    HW162486   8.343   1.218  10.186 -0.4226  0.6504 -0.3659
19225SOL    HW262487   8.278   1.155  10.064  0.0455 -1.3181  0.3561
19226SOL     OW62488   4.471  10.197   2.505 -0.1357 -0.2835 -0.2397
19226SOL    HW162489   4.406  10.144   2.458 -1.3192  1.2788 -0.4322
19226SOL    HW262490   4.488  10.271   2.447 -1.4696  1.5897  1.6077
19227SOL     OW62491   4.191   6.795   3.360  0.0399  0.0012  0.1550
19227SOL    HW162492   4.138   6.872   3.380 -0.8553 -0.5067 -0.1922
19227SOL    HW262493   4.243   6.821   3.284 -1.0021 -0.0357 -0.6108
19228SOL     OW62494   7.708   5.132   6.009 -0.3437  0.6262  0.7241
19228SOL    HW162495   7.703   5.220   5.971  0.4370  0.9621  1.3865
19228SOL    HW262496   7.692   5.074   5.934  0.2361  1.2984  0.0550
19229SOL     OW62497   6.249   9.747   3.545 -0.1839  0.7352 -0.0380
19229SOL    HW162498   6.205   9.830   3.564  0.9085  1.6983 -1.5138
19229SOL    HW262499   6.293   9.724   3.627 -0.5414  1.5880  0.4055
19230SOL     OW62500   1.560  11.395   0.726 -0.0761  0.2302 -0.5058
19230SOL    HW162501   1.488  11.359   0.673  0.6468 -0.2835 -1.1606
19230SOL    HW262502   1.628  11.328   0.723  0.4354  0.7111  0.1094
19231SOL     OW62503   5.556   0.627  10.118 -0.7059  0.4496  0.6183
19231SOL    HW162504   5.622   0.625  10.049 -0.5473 -0.7603  0.7764
19231SOL    HW262505   5.543   0.720  10.136  1.4873  0.7283  1.0796
19232SOL     OW62506   1.345   9.533   5.320 -0.0584  0.1301  0.1722
19232SOL    HW162507   1.292   9.612   5.310 -0.4563 -0.0989  0.4885
19232SOL    HW262508   1.434   9.562   5.296 -0.3902  0.4078 -0.7681
19233SOL     OW62509   6.069   8.118   9.472 -0.3439  0.0248 -0.1345
19233SOL    HW162510   6.021   8.164   9.540 -0.3317 -0.4296  0.1868
19233SOL    HW262511   6.043   8.026   9.482 -0.3301 -0.0466 -0.7284
19234SOL     OW62512   0.647   5.821   7.139 -0.3024 -0.1829 -0.0746
19234SOL    HW162513   0.681   5.746   7.188 -1.9879 -0.7024  0.3733
19234SOL    HW262514   0.568   5.787   7.096 -1.7417  1.5921  1.0360
19235SOL     OW62515   8.878   2.454  10.290  0.6087 -0.1187 -0.0099
19235SOL    HW162516   8.842   2.383  10.236 -0.4714  1.1050 -0.9549
19235SOL    HW262517   8.853   2.431  10.380 -0.4920 -0.5015 -0.3970
19236SOL     OW62518   1.217   7.580   0.734 -0.3011 -0.1243 -0.8165
19236SOL    HW162519   1.146   7.644   0.736 -0.0039  0.2150 -1.0069
19236SOL    HW262520   1.177   7.501   0.698 -1.0499 -0.5235  0.8242
19237SOL     OW62521   2.998  12.194   2.469  0.2085  0.3364 -0.0365
19237SOL    HW162522   2.960  12.282   2.479  0.7335  0.5524  0.1139
19237SOL    HW262523   3.090  12.210   2.448 -0.1849 -0.1529 -2.4165
19238SOL     OW62524   7.817   2.464   8.754 -0.6031  0.1963  0.3828
19238SOL    HW162525   7.805   2.430   8.665  1.8079  0.3757 -0.0912
19238SOL    HW262526   7.899   2.513   8.750 -0.1163 -0.2809  2.8526
19239SOL     OW62527  11.021   9.015  12.111 -0.5229 -0.6816 -1.2233
19239SOL    HW162528  11.059   9.019  12.199  0.7139 -2.0585 -1.6591
19239SOL    HW262529  11.025   8.922  12.088 -1.6706 -0.4593 -2.3868
19240SOL     OW62530   5.630   7.320   1.763  0.2278 -0.3411  0.1392
19240SOL    HW162531   5.666   7.271   1.689 -0.6017  0.7364 -1.0304
19240SOL    HW262532   5.561   7.263   1.798  0.3521 -0.6962 -0.1822
19241SOL     OW62533   7.264   1.210   5.735  0.0692  0.1594 -0.6262
19241SOL    HW162534   7.253   1.125   5.692  1.3864 -0.3046 -0.0951
19241SOL    HW262535   7.346   1.202   5.783 -0.2145  1.4565  0.1153
19242SOL     OW62536  10.642  11.434   4.384 -0.7591 -0.8275 -0.2592
19242SOL    HW162537  10.577  11.498   4.354 -1.6506 -1.8910 -0.6906
19242SOL    HW262538  10.697  11.482   4.446  0.0739  0.9812 -2.2903
19243SOL     OW62539  11.116   1.354   9.293  0.0506 -0.0334  0.3926
19243SOL    HW162540  11.063   1.282   9.327  1.1172 -1.1100 -0.1221
19243SOL    HW262541  11.130   1.411   9.368 -0.3846 -0.6318  0.9416
19244SOL     OW62542   8.113   3.471   7.285  0.4197  0.2980 -0.2795
19244SOL    HW162543   8.026   3.437   7.262  0.4261  1.0108 -1.4549
19244SOL    HW262544   8.128   3.542   7.222  0.1990  2.8234  2.3277
19245SOL     OW62545   7.364   0.757   5.508  0.2094 -0.5086  0.4166
19245SOL    HW162546   7.438   0.764   5.448  0.8935 -1.8552  1.0418
19245SOL    HW262547   7.338   0.665   5.501 -0.2718 -0.4596  1.5061
19246SOL     OW62548   7.528   8.174   2.889 -0.4329 -0.2154 -0.1698
19246SOL    HW162549   7.443   8.191   2.929  0.1517  1.2916  0.4987
19246SOL    HW262550   7.530   8.231   2.811 -0.7245 -1.5767 -1.2129
19247SOL     OW62551  12.133   4.878   9.251  0.0815 -0.0105  0.0506
19247SOL    HW162552  12.143   4.784   9.240 -0.5461 -0.2146  1.0678
19247SOL    HW262553  12.214   4.905   9.295 -0.5598 -0.4191  1.5353
19248SOL     OW62554   2.912   9.915   3.945 -0.3433  0.4208  0.0104
19248SOL    HW162555   2.828   9.961   3.932 -0.4197  0.5747  1.0016
19248SOL    HW262556   2.976   9.985   3.957 -0.1533  0.2937 -0.2568
19249SOL     OW62557  11.946   4.681   1.564  0.1618  0.7576  0.5041
19249SOL    HW162558  11.865   4.633   1.584 -0.4409  1.0874 -1.0292
19249SOL    HW262559  11.953   4.745   1.634 -0.8784  0.6842  0.7054
19250SOL     OW62560   3.677   8.464   8.158 -0.1211  0.4419 -0.5090
19250SOL    HW162561   3.763   8.423   8.153  1.1842  2.8962  0.0620
19250SOL    HW262562   3.620   8.396   8.193  1.7252 -1.0735 -0.2639
19251SOL     OW62563   1.075   8.799   0.888  0.6626 -0.4228  0.5772
19251SOL    HW162564   1.018   8.723   0.893 -2.3827  1.3564 -2.8400
19251SOL    HW262565   1.032   8.866   0.941  0.7654  0.2843 -0.2106
19252SOL     OW62566   1.909   2.287   2.719 -0.0669  0.4748 -0.4491
19252SOL    HW162567   1.876   2.321   2.636  2.0025 -1.5820 -2.2438
19252SOL    HW262568   1.881   2.195   2.720  0.9952  0.1473  0.5133
19253SOL     OW62569   2.402  10.333   6.256 -0.3204 -0.5324 -0.8719
19253SOL    HW162570   2.469  10.400   6.241 -0.9550  0.1441 -0.7098
19253SOL    HW262571   2.447  10.267   6.308 -0.3864  0.9979  1.2378
19254SOL     OW62572  12.127   8.707   5.458 -0.1849 -0.4101 -0.9771
19254SOL    HW162573  12.222   8.706   5.445  0.1052 -1.7129  0.8435
19254SOL    HW262574  12.105   8.616   5.478 -1.4602  0.2550  0.8378
19255SOL     OW62575   9.346   4.107   9.697  0.4539  0.6139 -0.4946
19255SOL    HW162576   9.280   4.058   9.747  0.3994  0.1547 -1.0103
19255SOL    HW262577   9.321   4.094   9.606  0.5507  1.4514 -0.6516
19256SOL     OW62578   6.785  11.243   2.954  0.3845 -0.9872 -0.2581
19256SOL    HW162579   6.771  11.148   2.952 -2.2177 -0.6793 -0.7474
19256SOL    HW262580   6.792  11.268   2.862 -3.0967 -0.3262 -0.4870
19257SOL     OW62581   2.614  10.379   7.719  0.1195  0.1685 -0.2496
19257SOL    HW162582   2.578  10.443   7.658  1.7195  0.5330 -0.8560
19257SOL    HW262583   2.667  10.321   7.665 -0.5915 -1.1679  0.4175
19258SOL     OW62584   1.844   5.374   0.855  0.0963 -0.7017  0.0977
19258SOL    HW162585   1.778   5.354   0.922 -1.4324 -0.1344 -1.1768
19258SOL    HW262586   1.911   5.306   0.866 -1.5798 -2.3927  0.2969
19259SOL     OW62587  10.418   6.084   3.682 -0.1131 -0.0262 -0.1972
19259SOL    HW162588  10.350   6.108   3.745 -1.4692  0.1162 -1.6646
19259SOL    HW262589  10.376   6.019   3.625  1.2030 -0.4385 -0.7223
19260SOL     OW62590   0.207   0.347   8.154 -0.3190  0.0344 -0.1395
19260SOL    HW162591   0.157   0.366   8.233  0.8962  1.1415  0.3946
19260SOL    HW262592   0.170   0.405   8.088 -0.8763 -0.4007 -0.2229
19261SOL     OW62593  12.206   6.744   0.817  0.0961  0.0738  0.1091
19261SOL    HW162594  12.272   6.697   0.868 -2.1855 -1.5602  1.7455
19261SOL    HW262595  12.122   6.710   0.848 -1.5469  0.8674 -2.9763
19262SOL     OW62596   8.913   1.952   7.623  0.2219  0.4698  0.7935
19262SOL    HW162597   9.005   1.926   7.632  0.8690  2.7437  1.3648
19262SOL    HW262598   8.913   2.015   7.551 -1.0710 -0.1677  0.2022
19263SOL     OW62599   8.614   5.333   7.787 -0.1291 -0.5084 -0.0132
19263SOL    HW162600   8.696   5.319   7.740  1.3082 -1.2976  2.4934
19263SOL    HW262601   8.554   5.268   7.750  0.3068  0.1238 -1.9466
19264SOL     OW62602  10.704   7.259   1.798  0.0193 -0.1175 -0.2446
19264SOL    HW162603  10.711   7.311   1.718 -1.4918  1.0800  0.3448
19264SOL    HW262604  10.731   7.171   1.772  3.5545  1.0575 -1.0765
19265SOL     OW62605   9.560   6.433   9.273  0.1848 -0.2472 -0.3628
19265SOL    HW162606   9.612   6.354   9.292 -1.5775 -1.1905  0.7716
19265SOL    HW262607   9.474   6.414   9.309 -0.2303  2.3289  0.1608
19266SOL     OW62608   7.585   8.756  10.477 -0.3931 -0.0664 -0.0846
19266SOL    HW162609   7.540   8.671  10.474 -0.3146 -0.0987 -0.3782
19266SOL    HW262610   7.628   8.763  10.392 -3.1979  1.7712 -1.5367
19267SOL     OW62611   4.374  10.091   3.731 -0.0202  0.3801  0.0682
19267SOL    HW162612   4.312  10.094   3.803 -0.5549  1.2026 -0.4108
19267SOL    HW262613   4.401   9.999   3.726 -0.2912  0.2381  1.0334
19268SOL     OW62614   4.509   7.699   7.942 -0.3963 -0.9769 -0.0687
19268SOL    HW162615   4.544   7.787   7.935 -3.1878  0.2127 -0.6743
19268SOL    HW262616   4.580   7.642   7.916  0.4491  1.3220 -3.3238
19269SOL     OW62617   6.429   5.615  11.277 -0.2675 -0.7174 -0.1124
19269SOL    HW162618   6.347   5.567  11.286 -1.5105  1.3039 -0.0494
19269SOL    HW262619   6.430   5.645  11.186 -0.0434  0.0125  0.1229
19270SOL     OW62620   9.460   8.349   6.597  0.4743  0.3115 -0.2250
19270SOL    HW162621   9.516   8.308   6.663 -0.5333 -0.3424  0.2548
19270SOL    HW262622   9.440   8.279   6.535 -1.5893 -0.0899  0.8236
19271SOL     OW62623   7.284   7.192  11.827 -0.6256  0.5908 -0.5517
19271SOL    HW162624   7.327   7.272  11.858 -0.7294  1.1474 -1.7894
19271SOL    HW262625   7.354   7.142  11.784 -0.7242  0.3613 -0.4494
19272SOL     OW62626   1.504   8.358  11.654  0.1489 -0.3439  0.4407
19272SOL    HW162627   1.498   8.309  11.572 -1.1770  1.5115 -0.6586
19272SOL    HW262628   1.435   8.320  11.709 -0.2339 -0.3634 -0.0385
19273SOL     OW62629  10.880   4.488   9.490 -0.1028  0.0554 -0.1921
19273SOL    HW162630  10.795   4.508   9.528 -0.2332  0.8662 -0.8837
19273SOL    HW262631  10.871   4.400   9.456 -0.6434  0.1103 -0.1961
19274SOL     OW62632   6.570   4.057   0.409  0.3401 -0.1000  0.9243
19274SOL    HW162633   6.612   4.044   0.324 -1.1674 -1.0395  0.2657
19274SOL    HW262634   6.630   4.017   0.472  0.9244 -0.4652  0.1579
19275SOL     OW62635   4.946  12.157   9.419 -0.1192 -0.3243  0.4167
19275SOL    HW162636   4.920  12.075   9.375 -0.7880 -0.5082  1.1363
19275SOL    HW262637   5.030  12.136   9.460 -0.3170 -0.6759  0.6492
19276SOL     OW62638   5.156   5.576   9.526  0.4268  0.2507  0.0358
19276SOL    HW162639   5.118   5.547   9.443 -1.2473 -1.0477  1.1866
19276SOL    HW262640   5.114   5.660   9.544 -0.2772 -0.1384  0.2368
19277SOL     OW62641   9.977   8.296   4.448  0.8896 -0.0172  0.0936
19277SOL    HW162642  10.066   8.329   4.435  2.2972 -2.6911  1.9616
19277SOL    HW262643   9.984   8.202   4.428 -1.4303 -0.3511  0.6288
19278SOL     OW62644  11.796   5.144   7.012  0.2050 -0.1273  0.2947
19278SOL    HW162645  11.874   5.105   6.973 -0.3401 -0.2173 -0.7536
19278SOL    HW262646  11.734   5.151   6.939 -1.3446 -1.5215  1.3894
19279SOL     OW62647   9.412   2.387   8.089 -0.0896 -0.4684  0.0018
19279SOL    HW162648   9.384   2.461   8.143 -0.8427 -0.0775 -0.8886
19279SOL    HW262649   9.368   2.311   8.126  0.2933 -0.3901  0.6191
19280SOL     OW62650   6.468  12.310   3.807  0.1901 -0.2946 -0.1636
19280SOL    HW162651   6.484  12.264   3.725 -0.0311 -0.8258  0.0860
19280SOL    HW262652   6.400  12.374   3.786  0.6311  0.0589 -0.5560
19281SOL     OW62653   4.835  12.264  10.209 -0.0418 -0.1840  0.5763
19281SOL    HW162654   4.871  12.330  10.150  1.4027 -0.7954  0.7401
19281SOL    HW262655   4.809  12.192  10.152 -1.0289  0.2413  0.4630
19282SOL     OW62656   1.989   6.102   1.041 -0.3744  0.0038  0.6515
19282SOL    HW162657   1.983   6.195   1.062  2.9911  0.3944  0.3942
19282SOL    HW262658   2.023   6.101   0.951  2.1798 -1.3822  1.5641
19283SOL     OW62659  11.807   8.180  11.801 -0.1313  0.2313  0.1820
19283SOL    HW162660  11.783   8.181  11.709  1.5362 -0.8636 -0.3104
19283SOL    HW262661  11.805   8.088  11.826  1.3062  0.3018  0.6864
19284SOL     OW62662   2.088   4.005   2.891  0.1187  0.2317  0.0704
19284SOL    HW162663   2.106   4.051   2.973 -1.6476  0.8126  0.1853
19284SOL    HW262664   2.124   4.063   2.823 -1.5119  1.5446  0.2556
19285SOL     OW62665   5.658  11.646   6.068 -0.4211  0.0608 -0.4150
19285SOL    HW162666   5.713  11.665   5.991 -1.0725  0.1193 -0.8759
19285SOL    HW262667   5.663  11.551   6.078  0.3530  0.1366 -0.0000
19286SOL     OW62668  10.539   7.577   5.121 -0.1905  0.4735 -0.3395
19286SOL    HW162669  10.592   7.498   5.114  2.0989  1.8995 -0.1684
19286SOL    HW262670  10.547   7.619   5.036 -0.8603  0.8524 -0.2234
19287SOL     OW62671  11.356   2.952   6.101  0.5998 -0.2442  0.2714
19287SOL    HW162672  11.413   3.028   6.094 -1.6936  1.5643  0.1364
19287SOL    HW262673  11.417   2.878   6.108  2.9305  1.5237  0.2115
19288SOL     OW62674   0.874   8.979   9.952 -0.1026 -0.2145 -0.0561
19288SOL    HW162675   0.910   9.062   9.984  0.9480 -0.6604 -0.0430
19288SOL    HW262676   0.782   8.981   9.979  0.4285 -0.0309  1.9250
19289SOL     OW62677   9.189  10.465   3.710  0.5558 -0.5401 -0.1403
19289SOL    HW162678   9.118  10.406   3.735  0.3448 -0.4562 -0.5367
19289SOL    HW262679   9.228  10.425   3.632  1.1141 -0.7188  0.2179
19290SOL     OW62680   5.233   9.772   6.276 -0.0350 -0.1341 -0.3756
19290SOL    HW162681   5.227   9.868   6.274  0.3397  0.0161  2.1217
19290SOL    HW262682   5.160   9.745   6.332 -0.8095 -1.4435 -1.9426
19291SOL     OW62683  11.905   6.196   5.090  0.5848 -0.6457  0.5690
19291SOL    HW162684  11.976   6.218   5.151 -0.1511 -0.9166  1.5563
19291SOL    HW262685  11.856   6.127   5.135 -0.7164  0.0232  0.2316
19292SOL     OW62686   5.171   0.992   2.902  0.2218  0.2679 -0.6922
19292SOL    HW162687   5.099   1.014   2.960 -0.5036 -2.9697 -0.1859
19292SOL    HW262688   5.227   0.934   2.954  0.3105 -1.5727 -2.7062
19293SOL     OW62689   3.218   9.831   2.065  0.1664  0.0795  0.1196
19293SOL    HW162690   3.276   9.789   2.129  0.8243  0.2748 -0.3387
19293SOL    HW262691   3.274   9.846   1.988 -0.1786  1.3433  0.0917
19294SOL     OW62692   2.202   6.731   9.393  0.2503  0.4339  0.6166
19294SOL    HW162693   2.261   6.747   9.467 -0.8184  0.9202  1.3931
19294SOL    HW262694   2.165   6.817   9.372 -0.9464 -0.0016  0.8250
19295SOL     OW62695   7.864   5.584   5.764 -0.1804 -0.0535  0.4838
19295SOL    HW162696   7.835   5.501   5.726 -2.8601  1.4991 -1.2361
19295SOL    HW262697   7.946   5.564   5.808 -0.8710 -3.6385  0.3807
19296SOL     OW62698   2.600   8.850  10.961 -0.6028 -0.0804 -0.4696
19296SOL    HW162699   2.506   8.834  10.964 -0.2794 -2.0395  0.4299
19296SOL    HW262700   2.628   8.810  10.879 -0.3414 -0.8046 -0.0303
19297SOL     OW62701  12.371  12.337   9.786  0.2936 -0.2090 -0.4340
19297SOL    HW162702  12.427  12.402   9.742  0.0546  0.3948  0.1427
19297SOL    HW262703  12.294  12.386   9.813 -0.1903 -0.8830 -0.5685
19298SOL     OW62704  12.336   4.793  12.152  0.3317  0.1387  0.6651
19298SOL    HW162705  12.364   4.713  12.107  1.6090  0.6204  0.5666
19298SOL    HW262706  12.252   4.814  12.114  1.1154  0.2135 -1.0997
19299SOL     OW62707   7.614   6.110   7.653 -0.5051  0.0488 -0.4306
19299SOL    HW162708   7.622   6.198   7.691 -1.1217 -0.1934  0.3090
19299SOL    HW262709   7.629   6.051   7.727  0.1643 -0.4808 -0.9753
19300SOL     OW62710   4.314  12.012   7.541  0.3804  0.4932  0.2673
19300SOL    HW162711   4.281  11.939   7.594 -0.7585  0.5423 -0.3461
19300SOL    HW262712   4.308  12.088   7.598  0.1595  0.3640  0.4178
19301SOL     OW62713   8.181   8.103   6.151 -0.1016  0.0306  0.2023
19301SOL    HW162714   8.174   8.017   6.193  0.7515 -0.5810 -0.8686
19301SOL    HW262715   8.217   8.160   6.219 -1.9834 -0.0856  1.3767
19302SOL     OW62716   0.077  11.295   1.919 -0.9248 -0.1917 -0.2541
19302SOL    HW162717   0.004  11.248   1.960 -1.0928  0.1660 -0.1332
19302SOL    HW262718   0.073  11.269   1.827 -0.6375 -0.8836 -0.0714
19303SOL     OW62719   9.272   4.049  10.043 -0.5360 -0.1898  0.2284
19303SOL    HW162720   9.363   4.061  10.015 -0.2884 -1.8206  0.2235
19303SOL    HW262721   9.236   4.137  10.046  1.1429  0.5316  0.5680
19304SOL     OW62722   8.564  10.873   1.277 -0.0802  0.1427  0.3172
19304SOL    HW162723   8.570  10.966   1.256  0.5601  0.0455  0.0331
19304SOL    HW262724   8.599  10.828   1.200 -0.2223 -0.3224  0.5191
19305SOL     OW62725   9.306  11.518   8.641 -0.2316  0.0806  0.0838
19305SOL    HW162726   9.231  11.480   8.686 -0.1278 -0.1844  0.0382
19305SOL    HW262727   9.287  11.611   8.636 -1.2065 -0.1647 -1.1698
19306SOL     OW62728   0.489   5.423   4.729  0.3074 -0.1206 -0.7281
19306SOL    HW162729   0.530   5.449   4.811 -2.1698  1.1102  0.2133
19306SOL    HW262730   0.512   5.492   4.667 -0.7851  0.9079 -0.0324
19307SOL     OW62731   0.779   6.784   5.360  0.2150  0.3815 -0.2439
19307SOL    HW162732   0.850   6.721   5.358 -1.0384 -1.0828 -1.8179
19307SOL    HW262733   0.780   6.819   5.449  0.4262 -2.5101  0.9844
19308SOL     OW62734   2.646   6.110   4.273  0.6114 -0.2732 -0.5680
19308SOL    HW162735   2.621   6.159   4.352 -0.9939 -1.8828 -0.0070
19308SOL    HW262736   2.661   6.178   4.207  1.7575  1.1120  1.0242
19309SOL     OW62737   0.040   5.462  11.242 -0.2018 -0.4325  0.3655
19309SOL    HW162738   0.004   5.466  11.153  0.7418 -0.3311 -0.0263
19309SOL    HW262739   0.120   5.514  11.238 -0.7008  0.4670  1.5578
19310SOL     OW62740   4.981   3.605   5.732  0.3947  0.3919  0.3794
19310SOL    HW162741   4.964   3.699   5.742  1.2204  0.6235 -0.3197
19310SOL    HW262742   5.001   3.593   5.640 -0.3934 -0.6042  0.3135
19311SOL     OW62743  11.657   0.437  12.155  0.0697 -0.1372 -0.4871
19311SOL    HW162744  11.567   0.462  12.132  0.1400 -1.2410 -2.1477
19311SOL    HW262745  11.648   0.377  12.229 -0.5849 -0.4232 -0.7940
19312SOL     OW62746   1.961   0.787  10.308 -0.5878  0.2252 -0.3607
19312SOL    HW162747   1.914   0.791  10.392 -0.8802  0.0535 -0.5145
19312SOL    HW262748   1.900   0.827  10.246 -0.4656  0.1415 -0.5335
19313SOL     OW62749   9.239   2.593   3.080 -0.0709 -0.6016 -0.3060
19313SOL    HW162750   9.173   2.567   3.016 -0.7018 -0.0665  0.1143
19313SOL    HW262751   9.219   2.541   3.158 -1.7202  1.4736  0.7493
19314SOL     OW62752   1.028   2.644  12.492 -0.3368  0.5904  0.2114
19314SOL    HW162753   0.969   2.708  12.452  0.2352  0.3710 -1.0310
19314SOL    HW262754   1.072   2.602  12.418  0.7732  0.1686  1.0767
19315SOL     OW62755   8.549   3.650  12.202 -0.3346 -0.5740  0.0416
19315SOL    HW162756   8.606   3.695  12.265 -0.0906  0.2049 -0.7081
19315SOL    HW262757   8.462   3.654  12.242 -0.0034 -1.0973  0.8467
19316SOL     OW62758   4.512  10.409   2.712 -0.0281 -0.5863 -0.3580
19316SOL    HW162759   4.496  10.422   2.619  0.1851 -0.9985 -0.4512
19316SOL    HW262760   4.429  10.376   2.746  0.0812 -1.0390 -0.5205
19317SOL     OW62761   0.547   3.312   8.628  0.0361  0.0102  0.3529
19317SOL    HW162762   0.509   3.256   8.696  0.0700 -1.2774 -0.6346
19317SOL    HW262763   0.473   3.335   8.572  0.3405 -0.6897 -0.3486
19318SOL     OW62764   3.577   3.755   4.716  0.2030 -0.8662 -0.3281
19318SOL    HW162765   3.521   3.749   4.639  1.4166  0.6512 -1.3946
19318SOL    HW262766   3.665   3.737   4.683  0.8788  0.7385  0.4807
19319SOL     OW62767   3.324   7.021   6.565 -0.4155  0.0524 -0.3398
19319SOL    HW162768   3.241   7.033   6.610 -0.3273  0.7223 -0.3487
19319SOL    HW262769   3.358   7.110   6.552 -0.5731 -0.1010 -1.9749
19320SOL     OW62770   8.704   7.545   9.556  0.1822 -0.0357  0.1638
19320SOL    HW162771   8.776   7.487   9.532 -0.8062 -0.9685 -0.6536
19320SOL    HW262772   8.626   7.502   9.521 -0.5904  1.8107 -0.5068
19321SOL     OW62773   4.981  10.375  11.200 -0.3134 -0.8793  0.0936
19321SOL    HW162774   4.998  10.404  11.111  0.5190  1.1733  0.8544
19321SOL    HW262775   5.068  10.356  11.236 -0.3710  0.6037  1.1437
19322SOL     OW62776   2.022   3.675   9.989  0.2157  0.2130 -0.5500
19322SOL    HW162777   2.110   3.675  10.026  0.3413  1.2136 -0.8102
19322SOL    HW262778   2.036   3.676   9.894 -0.1007 -1.5309 -0.6511
19323SOL     OW62779  11.823  11.977  10.132 -0.2784  0.1728 -0.1271
19323SOL    HW162780  11.738  11.958  10.172 -0.1524  1.4264  0.7798
19323SOL    HW262781  11.804  12.045  10.068  0.1038  0.7969  0.4127
19324SOL     OW62782   6.267   1.037   9.322 -0.2298  0.2989 -0.2631
19324SOL    HW162783   6.191   0.992   9.358  0.0903  0.9501  1.2759
19324SOL    HW262784   6.235   1.078   9.242 -1.1210 -0.6315 -0.3986
19325SOL     OW62785   9.866   0.462   1.459 -0.3493  0.1652 -0.3790
19325SOL    HW162786   9.953   0.449   1.420 -0.7582  0.6840 -1.5001
19325SOL    HW262787   9.818   0.382   1.438 -0.8293  0.7678 -1.7126
19326SOL     OW62788  11.176   5.104   5.792  0.5653  0.9383  0.6164
19326SOL    HW162789  11.085   5.133   5.794 -0.1148 -0.8486 -1.0248
19326SOL    HW262790  11.178   5.027   5.849  0.8395  0.4897  0.0111
19327SOL     OW62791   6.183   1.274  11.840  0.1714  0.2269  0.0236
19327SOL    HW162792   6.176   1.369  11.842 -0.7852  0.1709 -0.4109
19327SOL    HW262793   6.154   1.245  11.926 -2.1370  0.1918 -0.7031
19328SOL     OW62794   2.215   3.666   1.171 -0.5586  0.1837  0.2449
19328SOL    HW162795   2.238   3.582   1.132  0.0730 -0.0475  1.1084
19328SOL    HW262796   2.151   3.704   1.110 -1.2516 -1.1475  0.1217
19329SOL     OW62797   2.485   8.206   0.346  0.2728  0.1221  0.2547
19329SOL    HW162798   2.482   8.182   0.253 -0.3121  0.4342  0.1859
19329SOL    HW262799   2.447   8.131   0.392  0.5803 -0.0404  0.2438
19330SOL     OW62800   3.751   3.679   7.969  0.6547 -0.0682  0.3945
19330SOL    HW162801   3.699   3.631   7.904 -1.1840  0.2168  1.5847
19330SOL    HW262802   3.719   3.769   7.963  1.8099  0.3629  0.4173
19331SOL     OW62803   3.839  10.234   4.204  0.2266 -0.3918 -0.0976
19331SOL    HW162804   3.903  10.224   4.134 -1.8085  0.3855 -2.2197
19331SOL    HW262805   3.822  10.145   4.235  0.9012 -0.7932 -0.8528
19332SOL     OW62806   9.763   3.208   1.061  0.2035 -0.4332  0.3489
19332SOL    HW162807   9.751   3.294   1.101 -1.0600 -0.2011 -0.4857
19332SOL    HW262808   9.834   3.220   0.998 -0.5593  0.2496 -0.4042
19333SOL     OW62809   6.127   4.461   6.718  0.2643 -0.1229 -0.2306
19333SOL    HW162810   6.048   4.409   6.735  0.9756 -0.2510  3.4825
19333SOL    HW262811   6.196   4.396   6.708  0.5065  0.0168  0.4805
19334SOL     OW62812  11.523   0.225  11.575 -0.3865 -0.2089  0.2338
19334SOL    HW162813  11.480   0.143  11.551 -0.5508  0.4184 -1.7319
19334SOL    HW262814  11.614   0.212  11.549 -0.6016  0.5478 -0.9364
19335SOL     OW62815   4.078  10.698  12.468 -0.3239 -0.4056  0.5861
19335SOL    HW162816   4.079  10.663  12.557  1.0413  1.2619  1.2834
19335SOL    HW262817   4.117  10.628  12.415  0.0431 -0.9182  1.5050
19336SOL     OW62818   3.006   1.319  10.457 -0.6701  0.2699 -0.6373
19336SOL    HW162819   3.033   1.406  10.426 -2.6189  0.7642 -1.0346
19336SOL    HW262820   2.912   1.325  10.468 -0.7378 -1.5712  0.1481
19337SOL     OW62821   1.999  12.349   4.709  0.1980 -0.2304 -0.2705
19337SOL    HW162822   2.017  12.443   4.702 -1.6611  0.3580  1.8273
19337SOL    HW262823   1.982  12.321   4.619  1.2399  1.3105 -0.9931
19338SOL     OW62824   3.843   9.410   7.218 -0.4656  0.3185  0.0184
19338SOL    HW162825   3.838   9.414   7.123 -1.8821 -0.9093  0.0184
19338SOL    HW262826   3.816   9.498   7.247 -0.6374  0.5032 -0.6866
19339SOL     OW62827   1.061   8.119   2.820 -0.0923 -0.1899 -0.9668
19339SOL    HW162828   1.106   8.035   2.811 -0.0386 -0.3485  0.6348
19339SOL    HW262829   1.081   8.165   2.738  1.5742 -0.9388 -1.0175
19340SOL     OW62830   8.221  11.745  10.870 -0.4194 -0.0666 -0.3225
19340SOL    HW162831   8.150  11.731  10.932  0.0080  1.8407  0.7078
19340SOL    HW262832   8.188  11.813  10.810 -0.0786 -0.3895 -0.8867
19341SOL     OW62833   7.009   5.329  10.600  0.4032  0.1366  0.6624
19341SOL    HW162834   7.087   5.284  10.567 -0.5251 -1.0787  0.0384
19341SOL    HW262835   7.038   5.372  10.680  1.6667 -0.4526  0.5448
19342SOL     OW62836  11.143   8.955   7.798  0.0380  0.4389  0.5310
19342SOL    HW162837  11.093   8.964   7.716  0.3925  0.1277  0.2745
19342SOL    HW262838  11.234   8.969   7.771  0.0273  1.9320  1.1456
19343SOL     OW62839   4.252  12.320   7.091 -0.8763 -0.0461  0.1564
19343SOL    HW162840   4.282  12.230   7.106 -1.0205  0.0771  1.2182
19343SOL    HW262841   4.329  12.374   7.108  0.0234 -0.0687 -3.0818
19344SOL     OW62842  10.990   8.463   1.327  1.0319 -0.1193  0.3191
19344SOL    HW162843  10.923   8.457   1.394  1.4224 -1.0630  0.6428
19344SOL    HW262844  11.023   8.374   1.318  1.3277  0.0840 -0.7780
19345SOL     OW62845   3.763   5.930   8.561 -0.2668  0.3080  0.0421
19345SOL    HW162846   3.821   5.854   8.556 -1.0017 -0.2661  0.0310
19345SOL    HW262847   3.797   5.982   8.634  2.3559  1.7913 -2.0742
19346SOL     OW62848   8.338   9.860   5.899 -0.0126 -0.6043  0.2489
19346SOL    HW162849   8.375   9.948   5.890  0.4189 -0.8138 -0.0684
19346SOL    HW262850   8.253   9.865   5.855 -0.9161  0.1969  1.9894
19347SOL     OW62851   0.481   0.096   1.742  0.6699 -0.8499 -0.1389
19347SOL    HW162852   0.485   0.191   1.741  0.5945 -0.7389  2.4932
19347SOL    HW262853   0.387   0.076   1.746  0.6815 -0.7911  3.0339
19348SOL     OW62854  11.280   7.822  10.663 -0.0951  0.0177 -0.8668
19348SOL    HW162855  11.304   7.865  10.580 -1.4620  0.2215 -1.1691
19348SOL    HW262856  11.210   7.761  10.639  1.4988 -2.1274 -0.3605
19349SOL     OW62857   5.696   0.768   9.401  0.1233  0.1086  0.3045
19349SOL    HW162858   5.721   0.860   9.397  0.7586 -0.0837 -0.2950
19349SOL    HW262859   5.748   0.726   9.333 -0.8598 -0.5419 -0.0531
19350SOL     OW62860   5.340   0.231   1.821  0.3260 -0.2266 -0.8778
19350SOL    HW162861   5.323   0.247   1.914 -0.4095  0.4700 -1.1270
19350SOL    HW262862   5.415   0.287   1.800  0.7162 -0.6445 -0.6331
19351SOL     OW62863   5.876   9.084   1.663  0.4664 -0.4829  0.5044
19351SOL    HW162864   5.873   9.170   1.706  0.1438  0.4172 -1.2505
19351SOL    HW262865   5.946   9.037   1.710 -0.1358  0.2732  2.2677
19352SOL     OW62866   1.802   8.052  11.922  0.0253  0.0055 -0.4176
19352SOL    HW162867   1.750   8.092  11.852 -0.0391  0.7516  0.0525
19352SOL    HW262868   1.738   8.022  11.986 -0.1015 -2.8405 -1.7257
19353SOL     OW62869  11.849  11.778   0.756  0.3491 -0.5848 -0.2913
19353SOL    HW162870  11.830  11.836   0.829  0.6205  0.7870 -1.2717
19353SOL    HW262871  11.847  11.690   0.794 -1.2876 -0.0470  0.9725
19354SOL     OW62872   8.514   1.780   0.097  0.2412  0.1799 -0.1854
19354SOL    HW162873   8.499   1.874   0.110  3.6766  0.8634 -0.3928
19354SOL    HW262874   8.588   1.758   0.153  0.2170 -2.1866 -0.9404
19355SOL     OW62875   5.307   9.854   9.704  0.2521  0.0388  0.3268
19355SOL    HW162876   5.239   9.863   9.771  2.4603  0.6782  2.6228
19355SOL    HW262877   5.374   9.799   9.745  2.4881  1.8957 -0.6568
19356SOL     OW62878   1.294   1.448   3.253 -0.2236  0.1365 -0.4060
19356SOL    HW162879   1.291   1.389   3.178 -2.4029 -0.1612 -0.1450
19356SOL    HW262880   1.362   1.511   3.230  0.9820 -1.4623 -1.4367
19357SOL     OW62881  12.084  12.476   8.231 -0.2682  0.2353  0.0916
19357SOL    HW162882  12.079  12.384   8.257  0.4370  0.1464 -0.0649
19357SOL    HW262883  12.054  12.477   8.140  0.1220  0.0930 -0.0413
19358SOL     OW62884   3.750  11.414   3.407  0.0740  0.1205 -0.5166
19358SOL    HW162885   3.800  11.362   3.470  0.0561  0.5865 -0.1187
19358SOL    HW262886   3.661  11.415   3.442  0.1558  0.7384 -0.3272
19359SOL     OW62887  11.740   5.700   0.715 -0.1089  0.5984 -0.3223
19359SOL    HW162888  11.722   5.765   0.782 -1.4027 -0.7578  0.7167
19359SOL    HW262889  11.811   5.646   0.751 -1.1520 -0.4500  0.2520
19360SOL     OW62890   8.496  12.211   2.498  0.5011  0.2792 -0.4852
19360SOL    HW162891   8.494  12.122   2.464  1.3879 -0.6603  1.6968
19360SOL    HW262892   8.586  12.223   2.530  0.0124  1.4138  0.5662
19361SOL     OW62893   0.683   2.829   6.716 -0.0507 -0.2202 -0.1580
19361SOL    HW162894   0.652   2.915   6.690 -2.2084 -1.1604 -0.9831
19361SOL    HW262895   0.672   2.827   6.811  1.5277  0.9187  0.0779
19362SOL     OW62896   2.816   4.087   9.927  0.2818 -0.5661 -0.3606
19362SOL    HW162897   2.760   4.108  10.002  0.9450 -1.5584  0.4423
19362SOL    HW262898   2.851   4.172   9.899  1.5734 -0.3446  1.7167
19363SOL     OW62899  10.190   7.574   9.260  0.3731  0.5233 -0.2941
19363SOL    HW162900  10.201   7.669   9.266  2.1724  0.3837 -0.9774
19363SOL    HW262901  10.261   7.537   9.312 -2.0211 -0.5336  2.5255
19364SOL     OW62902   6.283   4.055   7.762  0.0038  0.9035 -0.3621
19364SOL    HW162903   6.251   4.140   7.733  0.2204  1.2144  0.3106
19364SOL    HW262904   6.332   4.021   7.687  0.8611  1.8581 -0.2406
19365SOL     OW62905  12.581   8.217   5.644 -0.3590  0.8611  0.4535
19365SOL    HW162906  12.637   8.281   5.688  1.7098 -0.2127 -0.4899
19365SOL    HW262907  12.635   8.181   5.574 -2.3312 -0.1014 -0.6705
19366SOL     OW62908   3.649   7.699   1.578  0.2651  0.2658  0.1414
19366SOL    HW162909   3.721   7.696   1.641 -0.1207 -1.7151  0.5557
19366SOL    HW262910   3.662   7.621   1.525 -1.0428  0.4089 -0.4072
19367SOL     OW62911   2.952   6.393   5.138  0.1695 -0.0369 -0.0028
19367SOL    HW162912   3.008   6.449   5.192  0.8511  1.4325 -2.0728
19367SOL    HW262913   2.987   6.404   5.049 -1.4507 -1.6072 -0.8921
19368SOL     OW62914   3.453   7.691   4.566 -0.4770  0.6347  0.0960
19368SOL    HW162915   3.535   7.730   4.536  0.1923 -0.2948  0.6623
19368SOL    HW262916   3.450   7.605   4.523 -1.0296  0.5552  0.2772
19369SOL     OW62917   7.753  11.366  11.383 -0.5155 -0.1953  0.4945
19369SOL    HW162918   7.756  11.332  11.293  0.7567 -2.1803  1.2249
19369SOL    HW262919   7.671  11.331  11.418 -1.2336  0.9410  0.0202
19370SOL     OW62920   4.086   5.993   7.537 -0.8558  0.0535  0.1029
19370SOL    HW162921   4.087   6.026   7.447  0.7304  1.8659  0.7277
19370SOL    HW262922   4.019   6.045   7.582  0.5204  1.3565  0.6973
19371SOL     OW62923  11.396   6.946   6.712  0.8118  0.3174  0.5374
19371SOL    HW162924  11.327   7.006   6.741 -0.0146  0.0092 -0.6983
19371SOL    HW262925  11.477   6.990   6.736  0.2356  0.1786  3.0646
19372SOL     OW62926   8.910   2.195   3.723  1.1270  0.0612  0.8415
19372SOL    HW162927   8.849   2.241   3.665  1.4011  0.2488  0.6972
19372SOL    HW262928   8.919   2.253   3.798 -0.0454 -0.6696  1.5602
19373SOL     OW62929  11.203   8.394   7.058 -0.0088  0.6693  0.0692
19373SOL    HW162930  11.220   8.488   7.069 -2.3680  1.0301  1.3355
19373SOL    HW262931  11.144   8.372   7.130 -2.9310 -0.7810 -2.5255
19374SOL     OW62932   7.474   5.894   6.502 -0.1095  0.5084 -0.2236
19374SOL    HW162933   7.516   5.811   6.526 -1.0734 -0.1450 -0.7596
19374SOL    HW262934   7.411   5.871   6.435 -0.7842  1.6070  0.0080
19375SOL     OW62935  10.002   1.590   0.772  0.2161 -0.2902  0.1802
19375SOL    HW162936  10.043   1.536   0.840  2.7297  0.3384 -0.7308
19375SOL    HW262937  10.015   1.680   0.802 -1.0477 -0.0666  0.1187
19376SOL     OW62938   4.467   1.986   6.959 -0.2416  0.3187  0.2078
19376SOL    HW162939   4.453   1.894   6.935  1.1933  0.4904 -1.5374
19376SOL    HW262940   4.536   1.982   7.025  0.0973  0.1466 -0.1501
19377SOL     OW62941   9.258   5.210   9.852 -0.2207  0.2101  0.5762
19377SOL    HW162942   9.344   5.189   9.887 -0.3389 -0.2446  0.6015
19377SOL    HW262943   9.197   5.159   9.905 -0.4169 -0.3328 -0.1537
19378SOL     OW62944   3.429  12.554   8.542 -0.4436 -0.5991 -0.1756
19378SOL    HW162945   3.444  12.516   8.456  1.1768 -2.8379  0.9973
19378SOL    HW262946   3.337  12.537   8.561 -0.6119 -0.7776 -1.1085
19379SOL     OW62947   5.870   7.371   5.730 -0.0670  0.0723  0.8846
19379SOL    HW162948   5.879   7.437   5.661  0.3327 -0.6932  0.1732
19379SOL    HW262949   5.838   7.419   5.806 -0.7719  0.9028  0.0907
19380SOL     OW62950   3.049   5.193   4.460  0.0156  0.7497  0.0964
19380SOL    HW162951   3.003   5.202   4.377  1.1414  1.2703 -0.4878
19380SOL    HW262952   3.043   5.280   4.500  1.6450  1.2127 -0.6156
19381SOL     OW62953   6.586   0.671  11.768 -0.2503  0.4954  0.7749
19381SOL    HW162954   6.552   0.627  11.690 -0.9247  1.4311  0.5227
19381SOL    HW262955   6.567   0.611  11.840 -1.3628  0.4590  0.4706
19382SOL     OW62956   8.994   9.264  11.258  0.1107  0.5035  0.0854
19382SOL    HW162957   8.971   9.295  11.346  1.1415  0.9024  0.2243
19382SOL    HW262958   8.979   9.169  11.262  0.9765  0.3870  0.9706
19383SOL     OW62959   9.541   9.253   9.906  0.1370  0.0732  0.2399
19383SOL    HW162960   9.459   9.275   9.951  0.0791 -0.4536  0.3923
19383SOL    HW262961   9.526   9.168   9.867  0.9934 -0.5804  1.2654
19384SOL     OW62962   8.064   0.572   9.857 -0.0952 -0.3441 -0.6116
19384SOL    HW162963   8.153   0.569   9.892  0.3551 -1.3176 -1.7459
19384SOL    HW262964   8.008   0.548   9.931  0.4548  1.4226  0.4224
19385SOL     OW62965   0.497  12.296   3.700 -0.2058 -0.1854  0.5140
19385SOL    HW162966   0.519  12.213   3.741 -0.1061  0.0292  0.9018
19385SOL    HW262967   0.582  12.340   3.688  0.0298 -1.1490 -1.9379
19386SOL     OW62968   3.864   5.578   2.429 -0.0257  0.1163  0.0976
19386SOL    HW162969   3.820   5.659   2.405  0.4359  0.2608 -0.2802
19386SOL    HW262970   3.876   5.532   2.346  0.3891  0.0085  0.2151
19387SOL     OW62971   0.597  10.668   1.128 -0.6581  0.2802  0.0107
19387SOL    HW162972   0.625  10.677   1.037 -1.7902  1.0627 -0.2694
19387SOL    HW262973   0.546  10.587   1.130 -1.5099  0.7990 -0.2870
19388SOL     OW62974  10.896   3.223   9.693  0.4549  0.7959 -0.8102
19388SOL    HW162975  10.850   3.171   9.627  1.2928  0.6647 -1.2948
19388SOL    HW262976  10.971   3.170   9.718  0.1476  0.8433  0.2664
19389SOL     OW62977   8.961   8.328   4.580  0.2196  0.4677 -0.9131
19389SOL    HW162978   8.902   8.324   4.505  2.7438  2.4533 -3.2518
19389SOL    HW262979   8.942   8.412   4.622 -0.0448  0.1321 -0.3500
19390SOL     OW62980   7.984   4.541  12.111 -0.1015  0.2858  0.2355
19390SOL    HW162981   7.912   4.525  12.050  0.0950 -0.2947  0.1502
19390SOL    HW262982   7.963   4.490  12.189  1.8306 -2.7067 -1.0338
19391SOL     OW62983   1.655   7.184  11.205 -0.5680 -0.7396  0.5333
19391SOL    HW162984   1.563   7.159  11.199 -0.9155  0.7678 -1.4707
19391SOL    HW262985   1.658   7.247  11.278 -1.5291  0.5826 -0.5133
19392SOL     OW62986   9.872   7.760  11.092  0.0383 -0.0887  0.0183
19392SOL    HW162987   9.860   7.755  10.997 -2.0496  0.5912  0.2061
19392SOL    HW262988   9.941   7.825  11.104 -1.0494  1.3134 -1.0040
19393SOL     OW62989   0.957   9.253   3.341  0.0342  0.3134  0.1380
19393SOL    HW162990   0.897   9.295   3.280 -0.1253  0.0675  0.1260
19393SOL    HW262991   0.912   9.174   3.369  0.3426  0.1372  0.1437
19394SOL     OW62992   8.174   8.624   6.606 -0.0198  0.1853 -0.4434
19394SOL    HW162993   8.121   8.644   6.529  0.8938 -0.4289 -1.2539
19394SOL    HW262994   8.245   8.687   6.604 -0.5448  0.8410  0.5011
19395SOL     OW62995   9.699  10.234   1.497 -0.0692  0.1707 -0.1967
19395SOL    HW162996   9.771  10.193   1.449 -0.8742 -0.3653 -0.9879
19395SOL    HW262997   9.741  10.303   1.549  1.0356 -0.2705 -0.4590
19396SOL     OW62998   9.656  11.801   4.811  0.2510 -0.2295 -0.3472
19396SOL    HW162999   9.654  11.893   4.837 -3.1129 -0.3628  0.3120
19396SOL    HW263000   9.707  11.758   4.881  0.3693  0.8968  0.2846
19397SOL     OW63001   2.712   1.286   1.977  0.2426 -0.4417 -0.1900
19397SOL    HW163002   2.721   1.191   1.978  0.2364 -0.4376  1.2048
19397SOL    HW263003   2.704   1.312   2.069  0.4194  0.9293 -0.5266
19398SOL     OW63004  12.287  12.146   2.976  0.1568 -0.2322  0.4232
19398SOL    HW163005  12.264  12.224   2.926  1.0392  0.1735  0.6337
19398SOL    HW263006  12.326  12.179   3.057 -1.2045 -0.8766  1.3889
19399SOL     OW63007   3.464   6.609   5.231  0.3445  0.4323  0.1415
19399SOL    HW163008   3.488   6.698   5.258 -0.5388  0.9686 -0.7225
19399SOL    HW263009   3.424   6.621   5.145  4.2833 -1.3204 -2.2014
19400SOL     OW63010   5.255   2.881   6.087  0.1971 -0.6298  0.4604
19400SOL    HW163011   5.309   2.904   6.163 -0.3322 -0.3186  0.7524
19400SOL    HW263012   5.282   2.943   6.019  1.2842 -1.4669  0.1083
19401SOL     OW63013  10.673  11.557  12.361  0.1934 -0.2335  0.1752
19401SOL    HW163014  10.741  11.546  12.428  1.6468  0.2092 -1.1548
19401SOL    HW263015  10.682  11.648  12.333 -1.1362 -0.0965  0.1444
19402SOL     OW63016   2.944  11.714  10.935 -0.0133 -0.9770  1.1092
19402SOL    HW163017   3.015  11.694  10.996 -0.2725 -2.2958  1.0057
19402SOL    HW263018   2.916  11.629  10.902 -2.1665 -0.5578  1.7238
19403SOL     OW63019   2.466  10.204   0.943 -0.6607  0.3588 -0.4495
19403SOL    HW163020   2.397  10.171   0.886 -0.6135  0.4545 -0.5613
19403SOL    HW263021   2.499  10.127   0.988 -0.3090  0.2039 -0.9734
19404SOL     OW63022   0.360   9.462   4.809 -0.2962 -0.4905  0.0499
19404SOL    HW163023   0.325   9.465   4.720 -0.6087  0.3408  0.1954
19404SOL    HW263024   0.341   9.373   4.839 -1.8350 -0.2463 -0.0735
19405SOL     OW63025   0.214   2.520   2.439  0.3475  0.3237  0.5391
19405SOL    HW163026   0.223   2.582   2.512  1.1403  0.6499  0.1749
19405SOL    HW263027   0.228   2.434   2.479 -0.8898  0.3470  1.0751
19406SOL     OW63028  10.035  11.868   0.533  0.3776  0.7086  0.1453
19406SOL    HW163029   9.965  11.834   0.589 -0.7960  2.3804 -0.2042
19406SOL    HW263030  10.036  11.811   0.456  1.8861 -1.5055  1.6932
19407SOL     OW63031   4.666   6.386   5.644  0.2222 -0.3323  0.3494
19407SOL    HW163032   4.644   6.304   5.687 -0.4719  0.6056  1.8644
19407SOL    HW263033   4.740   6.421   5.694  0.0090  0.3285  0.2187
19408SOL     OW63034   3.501   7.986   9.346 -0.1054  0.5221 -0.4934
19408SOL    HW163035   3.560   7.947   9.281  1.8876 -0.4181  1.7093
19408SOL    HW263036   3.515   8.080   9.337  1.8936  0.3295 -0.0057
19409SOL     OW63037  10.115  12.548   9.460  0.3132  0.2810  0.0193
19409SOL    HW163038  10.179  12.552   9.389 -0.0474  2.7088 -0.2475
19409SOL    HW263039  10.106  12.639   9.490  0.4200 -0.6335  3.1796
19410SOL     OW63040   9.780   5.231   3.182 -0.4217  0.6376 -0.1289
19410SOL    HW163041   9.872   5.255   3.170 -0.2370  0.2642  0.4705
19410SOL    HW263042   9.782   5.136   3.190 -0.6463  0.7499  1.5816
19411SOL     OW63043   2.371  10.664   3.533 -0.0545  0.1956  0.1164
19411SOL    HW163044   2.332  10.653   3.619  0.9461  0.8752  0.6815
19411SOL    HW263045   2.390  10.576   3.503 -3.5779 -0.3395 -0.9819
19412SOL     OW63046   6.787  12.169   7.797  0.0090  0.2807  0.2667
19412SOL    HW163047   6.869  12.182   7.749 -0.8824 -0.1846 -1.4498
19412SOL    HW263048   6.802  12.212   7.881  1.5161  1.4236 -0.5299
19413SOL     OW63049   9.689   6.350   4.392  0.0456 -0.0367  0.1241
19413SOL    HW163050   9.693   6.281   4.457  0.9278  0.8600  1.0614
19413SOL    HW263051   9.731   6.313   4.315  2.2043  0.0330  1.2058
19414SOL     OW63052   9.339   8.682   0.971 -0.6652  0.7178  0.2358
19414SOL    HW163053   9.330   8.637   1.055 -0.3560 -0.4582 -0.3356
19414SOL    HW263054   9.251   8.681   0.934 -0.8085  1.2670  0.5492
19415SOL     OW63055   5.206   6.452   8.623  0.4352  0.5564 -0.1317
19415SOL    HW163056   5.262   6.495   8.687  1.6931  0.4027 -1.0959
19415SOL    HW263057   5.264   6.431   8.550 -0.8747  0.3912 -1.1725
19416SOL     OW63058   7.726  10.003   6.473  0.2572 -0.5378  0.4696
19416SOL    HW163059   7.797  10.057   6.438  0.0792  0.5305  1.6694
19416SOL    HW263060   7.761   9.914   6.473  0.8257 -0.3515 -0.8703
19417SOL     OW63061   3.425   3.279  11.071 -0.3078  0.1077  0.1206
19417SOL    HW163062   3.481   3.266  11.148 -1.8320  1.2559  1.5103
19417SOL    HW263063   3.480   3.325  11.008  0.4875  0.7218  1.2302
19418SOL     OW63064   7.443  11.446   0.616 -0.0943 -0.5832 -0.0596
19418SOL    HW163065   7.529  11.444   0.658  0.4542 -3.5780 -1.1099
19418SOL    HW263066   7.461  11.474   0.526 -0.6603  1.3416  0.3655
19419SOL     OW63067   5.747   9.093   3.703 -0.1198  0.1768  0.0779
19419SOL    HW163068   5.827   9.062   3.660 -0.7887 -0.2344 -0.8843
19419SOL    HW263069   5.707   9.152   3.640 -0.6703  0.2437  0.4854
19420SOL     OW63070   5.050   9.164  11.329  0.2025 -0.2029  0.3591
19420SOL    HW163071   5.021   9.125  11.411 -1.6346 -0.4149 -0.3568
19420SOL    HW263072   5.142   9.138  11.322 -0.3649 -2.6044  0.9583
19421SOL     OW63073   6.946  10.604   5.336  0.1168  0.1308  0.0434
19421SOL    HW163074   7.035  10.583   5.309  0.5766  0.6645  1.0501
19421SOL    HW263075   6.945  10.700   5.343 -1.3178  0.3665 -2.4672
19422SOL     OW63076  11.817  11.459  11.287 -0.1095  0.2035  0.0840
19422SOL    HW163077  11.864  11.504  11.218 -2.9152  0.9651 -1.4772
19422SOL    HW263078  11.855  11.492  11.369 -0.2035  3.4079 -1.0286
19423SOL     OW63079   0.189   5.474   7.044  0.5536  0.2955 -0.2026
19423SOL    HW163080   0.117   5.418   7.072  1.4887  0.0773  1.9942
19423SOL    HW263081   0.189   5.468   6.948 -2.3851  0.4358 -0.2806
19424SOL     OW63082   8.245   5.030   6.101  0.2851 -0.2159  0.3054
19424SOL    HW163083   8.191   4.971   6.153  1.9774 -1.6392  0.5362
19424SOL    HW263084   8.266   4.980   6.022  1.6554  0.0959  0.4520
19425SOL     OW63085   6.844   8.291   8.645  0.1336 -0.1357  0.3354
19425SOL    HW163086   6.865   8.344   8.721 -0.8345  1.3947 -0.4025
19425SOL    HW263087   6.928   8.273   8.603  0.4312  1.6276  0.1131
19426SOL     OW63088  11.564   3.416   0.279  0.6572  0.7352  0.6156
19426SOL    HW163089  11.580   3.485   0.343  1.2253  0.5742  0.6476
19426SOL    HW263090  11.634   3.352   0.294 -0.1164 -0.0818  0.9054
19427SOL     OW63091   5.734   0.288  10.273 -0.3288 -0.2452  0.4541
19427SOL    HW163092   5.806   0.301  10.210 -0.3669  0.8160  0.6121
19427SOL    HW263093   5.756   0.206  10.317  1.1074  0.3505  0.9076
19428SOL     OW63094   8.416   6.665  10.562 -0.0999  0.1981  0.3701
19428SOL    HW163095   8.496   6.613  10.552  0.7860  1.6813 -0.6939
19428SOL    HW263096   8.383   6.676  10.472 -1.0663  0.2583  0.7232
19429SOL     OW63097   8.125   5.027   1.988  0.3592  0.1018 -0.2353
19429SOL    HW163098   8.128   5.121   1.970  1.2063  0.4009  1.2584
19429SOL    HW263099   8.069   4.991   1.919  0.3685  1.6306 -1.0885
19430SOL     OW63100   6.186   8.061   0.545  0.4524  0.7519  0.2937
19430SOL    HW163101   6.154   8.091   0.460 -0.7815 -2.7811 -0.6722
19430SOL    HW263102   6.268   8.016   0.526 -0.0616 -0.4751  0.8213
19431SOL     OW63103   8.669   9.707   8.387 -0.0434  0.5163  0.9040
19431SOL    HW163104   8.687   9.790   8.433 -1.0423  0.8209  0.7608
19431SOL    HW263105   8.648   9.733   8.298 -1.4016  0.2175  1.1108
19432SOL     OW63106   4.364   9.471   9.870 -0.0676 -0.3646 -0.0713
19432SOL    HW163107   4.384   9.382   9.899 -0.4088 -0.7228 -0.9003
19432SOL    HW263108   4.446   9.518   9.879  0.0681 -0.7120  0.5583
19433SOL     OW63109   8.527   2.085   8.399  0.3378  0.3819 -0.0987
19433SOL    HW163110   8.583   2.008   8.386  0.3627  0.3724  0.0636
19433SOL    HW263111   8.440   2.055   8.373 -0.0824 -0.3605  1.9749
19434SOL     OW63112   8.699   4.557   2.386 -0.3367  0.0802  0.2337
19434SOL    HW163113   8.724   4.476   2.340 -0.4529  0.7509 -1.0572
19434SOL    HW263114   8.617   4.535   2.429 -0.5996 -0.3718 -0.4719
19435SOL     OW63115  11.550  12.346   0.491  0.0129 -0.0969 -0.1800
19435SOL    HW163116  11.503  12.335   0.409  0.9862  1.0339 -0.9154
19435SOL    HW263117  11.484  12.332   0.559 -0.6748 -1.6210 -1.1293
19436SOL     OW63118   5.178   5.970   6.107  0.2150  0.2934 -0.2714
19436SOL    HW163119   5.202   5.950   6.016 -2.8961 -2.1332 -0.7332
19436SOL    HW263120   5.126   5.894   6.135  1.8460  0.4804  3.9373
19437SOL     OW63121   5.536   1.581   1.545 -0.4908 -0.7023  0.9444
19437SOL    HW163122   5.612   1.543   1.501 -0.7583 -2.5183  1.9797
19437SOL    HW263123   5.466   1.517   1.533 -1.9853  1.0395 -0.1991
19438SOL     OW63124   5.184   0.168  11.959  0.1555 -0.9520 -0.4594
19438SOL    HW163125   5.174   0.263  11.966  0.2609 -1.0416  1.0846
19438SOL    HW263126   5.095   0.135  11.948 -0.0407 -0.7915  0.6152
19439SOL     OW63127   0.922   1.750   9.725 -0.3417  0.5171  0.3537
19439SOL    HW163128   0.875   1.777   9.646  2.8012  0.8955 -1.5837
19439SOL    HW263129   0.914   1.655   9.726 -0.1343  0.4677 -0.6986
19440SOL     OW63130   6.049   3.465  11.183  0.0353 -0.7432  0.7982
19440SOL    HW163131   5.956   3.457  11.159  0.1328 -1.5431  0.6659
19440SOL    HW263132   6.077   3.547  11.142 -0.8777  0.0648  1.7294
19441SOL     OW63133   4.955   0.167   0.157  0.2200 -0.1714  0.9097
19441SOL    HW163134   4.985   0.147   0.069 -2.5159 -0.9441  0.0610
19441SOL    HW263135   5.018   0.231   0.190 -0.4311  2.8076 -2.9061
19442SOL     OW63136   7.201   2.786   8.943  0.0512  0.4637 -0.2316
19442SOL    HW163137   7.223   2.701   8.980  0.7666  0.4946 -0.5684
19442SOL    HW263138   7.175   2.766   8.853 -0.8079  0.4884  0.0032
19443SOL     OW63139   4.843   8.430  10.361  0.3222 -0.3789  0.3630
19443SOL    HW163140   4.786   8.507  10.360  0.0493 -0.5724 -0.5673
19443SOL    HW263141   4.932   8.465  10.369  0.1817  0.0285  0.1601
19444SOL     OW63142   8.084   1.053  11.039  0.4635 -0.4506 -0.0430
19444SOL    HW163143   8.156   1.097  11.085  1.0922 -0.9629 -0.5114
19444SOL    HW263144   8.096   1.077  10.947  1.4430 -2.3710 -0.4792
19445SOL     OW63145   9.106  10.298   8.405 -0.4021  0.2314  0.0245
19445SOL    HW163146   9.016  10.327   8.418  0.0157  0.6176  2.4991
19445SOL    HW263147   9.101  10.202   8.407 -0.7383  0.2540  0.2525
19446SOL     OW63148   2.829  10.668   5.229  0.9250 -0.3355 -0.1365
19446SOL    HW163149   2.865  10.581   5.211  0.6576 -0.2851 -0.9476
19446SOL    HW263150   2.847  10.718   5.150 -0.0681 -0.0198 -0.1727
19447SOL     OW63151   7.713   0.134   7.142 -0.3403  0.2062 -0.3635
19447SOL    HW163152   7.630   0.151   7.187  0.1232  0.3326  0.4673
19447SOL    HW263153   7.727   0.212   7.088 -0.0939  0.8105  0.5444
19448SOL     OW63154  10.509   0.473   9.331 -0.0114 -0.2088 -0.0974
19448SOL    HW163155  10.529   0.507   9.244 -0.2101  3.1459  0.9932
19448SOL    HW263156  10.415   0.458   9.330  0.0599 -0.6552 -0.5740
19449SOL     OW63157   1.425  10.651  11.172 -0.5635  0.2874  0.4689
19449SOL    HW163158   1.405  10.740  11.144  0.9122  1.0456  1.6973
19449SOL    HW263159   1.350  10.599  11.143 -1.2694  1.8409 -0.6187
19450SOL     OW63160   1.318  10.397   9.948  0.2013  0.5406 -0.0611
19450SOL    HW163161   1.261  10.456   9.998  0.3614  2.2241 -1.7468
19450SOL    HW263162   1.329  10.440   9.863  0.2313 -2.0131 -1.4667
19451SOL     OW63163  11.675  12.304   7.516  0.2210  0.1681 -1.0036
19451SOL    HW163164  11.717  12.259   7.443 -0.5270  0.2578 -1.5021
19451SOL    HW263165  11.705  12.394   7.510  0.8020  0.0006 -0.7033
19452SOL     OW63166   4.015   8.629   9.006  0.0113  0.2558  0.5928
19452SOL    HW163167   4.049   8.542   8.984  2.2612  1.6029 -1.8872
19452SOL    HW263168   3.931   8.634   8.961  0.3323 -0.2969 -0.0882
19453SOL     OW63169   3.077  11.232   1.552  0.0972  0.2220  0.0503
19453SOL    HW163170   3.126  11.190   1.623  0.3246  0.3546 -0.0277
19453SOL    HW263171   2.985  11.226   1.580  0.3414  2.6978  1.6910
19454SOL     OW63172  12.101   3.868   1.603 -0.4275 -0.0498 -0.0237
19454SOL    HW163173  12.050   3.789   1.622  1.1869 -0.9316  0.8296
19454SOL    HW263174  12.085   3.926   1.677  0.2575 -0.5699  0.5400
19455SOL     OW63175   1.972   1.445   7.861  0.2936 -0.1849 -0.1416
19455SOL    HW163176   1.932   1.502   7.926 -0.0054  1.6842 -1.8691
19455SOL    HW263177   1.898   1.393   7.826  0.6656 -2.2333  1.8898
19456SOL     OW63178   6.452   4.620   5.370  0.5257 -0.2440  0.1422
19456SOL    HW163179   6.426   4.695   5.424 -0.0099 -1.2149  1.2692
19456SOL    HW263180   6.522   4.654   5.315 -1.0006  1.6141 -0.7703
19457SOL     OW63181  10.430   6.366   3.848 -0.1464  0.0443  0.3508
19457SOL    HW163182  10.445   6.272   3.837 -1.0182  0.1128 -2.0414
19457SOL    HW263183  10.407   6.376   3.940  1.5097 -1.8401  1.0378
19458SOL     OW63184   1.959   9.512   8.540 -0.2408  0.4747  0.0956
19458SOL    HW163185   1.980   9.425   8.575 -0.6690  0.6109  0.7019
19458SOL    HW263186   2.009   9.517   8.459 -0.0070 -0.2386  0.1838
19459SOL     OW63187   8.910   3.094  12.322  0.0304  0.3946  0.2241
19459SOL    HW163188   8.879   3.086  12.231 -0.1160 -0.3155  0.3275
19459SOL    HW263189   8.830   3.100  12.374 -0.0722 -2.7346  0.6135
19460SOL     OW63190   6.851   0.997   2.800 -0.0646 -0.0034 -0.4545
19460SOL    HW163191   6.855   1.019   2.707  0.0829  1.4628 -0.1125
19460SOL    HW263192   6.842   1.080   2.845 -1.2363 -0.7697  0.8043
19461SOL     OW63193   4.014   0.941   1.134 -0.6819  0.2334  0.0845
19461SOL    HW163194   4.099   0.929   1.176 -0.0116  0.8525 -1.0335
19461SOL    HW263195   4.000   1.035   1.136 -0.3698  0.3452 -1.5067
19462SOL     OW63196   6.629   7.898   5.187 -0.2699 -0.4220 -0.1568
19462SOL    HW163197   6.568   7.905   5.261 -0.2364  0.5442 -0.2036
19462SOL    HW263198   6.660   7.808   5.191 -2.5833 -1.3231 -0.8453
19463SOL     OW63199  10.572   7.489  11.944 -0.0739 -0.1130 -0.1283
19463SOL    HW163200  10.591   7.435  12.020 -1.1101 -1.2930 -0.6597
19463SOL    HW263201  10.487   7.529  11.964  0.6891  1.3481  0.2611
19464SOL     OW63202   0.012   9.344   2.028  0.1958  0.5008  0.3023
19464SOL    HW163203   0.006   9.276   2.095 -0.1815  0.1622 -0.0709
19464SOL    HW263204  -0.032   9.307   1.952  0.8898  0.7698 -0.2348
19465SOL     OW63205   9.313  11.635  12.463 -0.1671  0.6654  0.2343
19465SOL    HW163206   9.308  11.713  12.409  0.1341  0.1051 -0.6146
19465SOL    HW263207   9.402  11.603  12.451 -0.6536 -0.5046 -0.4242
19466SOL     OW63208   1.824   6.989   6.413  0.0177 -0.1023 -0.4557
19466SOL    HW163209   1.861   6.976   6.500  1.3683  0.0709 -0.9785
19466SOL    HW263210   1.755   6.923   6.406  0.2601 -0.4795  0.5347
19467SOL     OW63211  10.806   6.569   4.301  0.0244  0.4595  0.3598
19467SOL    HW163212  10.813   6.493   4.359 -0.9525 -0.1563 -0.2965
19467SOL    HW263213  10.716   6.600   4.313 -1.0127 -1.0918 -2.4419
19468SOL     OW63214   6.640   6.584  10.057 -0.2294 -0.3769  0.6398
19468SOL    HW163215   6.629   6.521   9.986  0.1578  0.8550 -0.5369
19468SOL    HW263216   6.697   6.539  10.120 -0.8613 -1.6107  0.3645
19469SOL     OW63217  10.972   5.788   0.133 -0.1834  0.4688 -0.1096
19469SOL    HW163218  10.972   5.883   0.124 -0.9792  0.4114 -0.8204
19469SOL    HW263219  11.054   5.760   0.093  0.5056  0.9099  0.9439
19470SOL     OW63220  10.249   6.173   0.278 -0.1880 -0.2879 -0.4813
19470SOL    HW163221  10.258   6.127   0.361  1.2297  1.1323  0.2081
19470SOL    HW263222  10.207   6.256   0.300 -1.1524 -0.4935 -1.4316
19471SOL     OW63223   4.126   6.999   7.289  0.0705  0.0384 -0.1536
19471SOL    HW163224   4.079   6.942   7.229 -1.4339  0.7148  0.3402
19471SOL    HW263225   4.127   7.084   7.245  1.5317 -0.1284 -0.4971
19472SOL     OW63226   4.016   0.457   7.734 -0.2252  0.2751  0.0860
19472SOL    HW163227   4.085   0.490   7.677  0.1310  0.0358  0.3699
19472SOL    HW263228   4.054   0.378   7.774 -0.1679  0.8793  1.2664
19473SOL     OW63229   8.236   9.444   9.978  0.2145 -0.4221  0.2397
19473SOL    HW163230   8.326   9.464  10.001  0.1384 -0.9449  1.0365
19473SOL    HW263231   8.229   9.349   9.988 -0.8096 -0.2304  1.6780
19474SOL     OW63232  10.996  10.913   7.540 -0.3505  0.0723 -0.4267
19474SOL    HW163233  11.042  10.829   7.530  2.6979  1.5929 -0.3503
19474SOL    HW263234  10.973  10.916   7.633  1.7432  0.2604  0.1582
19475SOL     OW63235   0.073   4.474   4.393  0.1609 -0.6991  0.2546
19475SOL    HW163236  -0.007   4.429   4.420 -0.1188  0.1072  0.8249
19475SOL    HW263237   0.133   4.464   4.467  0.6178 -1.3597 -0.1990
19476SOL     OW63238   5.610   5.053   0.177 -0.0004 -0.5902 -0.2963
19476SOL    HW163239   5.591   4.969   0.135 -0.8256 -0.7928  0.4574
19476SOL    HW263240   5.670   5.030   0.248 -0.4038 -0.5808  0.0507
19477SOL     OW63241   3.730   2.849   0.394 -0.6978  0.1604 -0.0391
19477SOL    HW163242   3.717   2.944   0.404 -0.3747  0.0884  1.2727
19477SOL    HW263243   3.824   2.838   0.387 -0.8340  0.1003 -2.5694
19478SOL     OW63244   6.037   8.871   0.605 -0.3120 -0.5860  0.2027
19478SOL    HW163245   6.059   8.960   0.631 -1.5972  0.2059 -1.2335
19478SOL    HW263246   6.089   8.855   0.526  1.0100 -1.6925  1.2448
19479SOL     OW63247   5.473   1.677   4.242  0.4206 -0.1169  0.2415
19479SOL    HW163248   5.550   1.622   4.225  1.2399  1.5959 -2.1429
19479SOL    HW263249   5.510   1.763   4.261 -0.8297  0.9945 -1.9575
19480SOL     OW63250   0.116   5.253   0.562 -0.1312 -1.0325 -0.0450
19480SOL    HW163251   0.110   5.166   0.524 -1.7195  0.0709 -2.5066
19480SOL    HW263252   0.178   5.300   0.506 -0.0365 -0.2850  0.6599
19481SOL     OW63253  12.069   5.789   2.762  0.3492 -0.3036  0.0310
19481SOL    HW163254  12.046   5.818   2.674  3.0800  3.3064  0.2519
19481SOL    HW263255  12.158   5.756   2.754  0.3871 -0.5599  1.3183
19482SOL     OW63256   3.417   8.763   3.714  0.1038  0.4470 -0.2990
19482SOL    HW163257   3.434   8.855   3.696  3.5329 -0.1919 -1.0117
19482SOL    HW263258   3.465   8.745   3.795  0.9448 -1.0423 -1.0726
19483SOL     OW63259   2.441   3.894   5.922  0.3771  0.0016 -0.0660
19483SOL    HW163260   2.352   3.923   5.901  0.7729  1.1600 -0.2037
19483SOL    HW263261   2.437   3.864   6.012  0.0628  1.0052  0.2579
19484SOL     OW63262   8.194  11.604   6.439  0.1341 -0.2181  0.0633
19484SOL    HW163263   8.120  11.664   6.446 -0.3079 -0.4678 -1.7825
19484SOL    HW263264   8.263  11.643   6.492 -0.7190  0.9931  0.3125
19485SOL     OW63265   7.134  11.575   9.752 -0.5573 -0.2063  0.0244
19485SOL    HW163266   7.065  11.511   9.771 -0.3919 -0.6932 -0.9351
19485SOL    HW263267   7.158  11.557   9.661  0.0806  0.6773  0.0103
19486SOL     OW63268  11.794   2.136  10.598 -0.4547  0.3462  0.1490
19486SOL    HW163269  11.749   2.209  10.642  1.9126  1.1599  1.4378
19486SOL    HW263270  11.877   2.174  10.569 -0.0565 -1.3551 -1.1085
19487SOL     OW63271   5.472   1.626  11.666 -0.2114  0.6492 -0.0889
19487SOL    HW163272   5.477   1.629  11.570  0.1887  0.6612 -0.0669
19487SOL    HW263273   5.553   1.666  11.696 -1.3216  2.8032  0.2803
19488SOL     OW63274   6.251   7.548   7.639 -0.2389 -0.1144  0.0845
19488SOL    HW163275   6.272   7.548   7.733  0.2689 -2.0732  0.0154
19488SOL    HW263276   6.333   7.570   7.596  0.1596 -1.5511  0.0495
19489SOL     OW63277   9.984   5.480   1.147 -0.1710 -0.2613 -0.4111
19489SOL    HW163278   9.979   5.572   1.174 -0.6636 -1.0125  2.3901
19489SOL    HW263279   9.964   5.482   1.053 -0.8852  2.4146 -0.3002
19490SOL     OW63280   8.998   6.652  11.281  0.3408 -0.0868  0.6155
19490SOL    HW163281   8.915   6.618  11.317 -0.4931  1.5631  0.3447
19490SOL    HW263282   9.033   6.708  11.350  0.7301 -0.0005  0.3491
19491SOL     OW63283   6.922   5.505   0.203 -0.4990 -0.3568  0.4998
19491SOL    HW163284   6.865   5.456   0.262  0.4140 -0.5302  1.2611
19491SOL    HW263285   6.893   5.481   0.116 -1.3179 -0.7545  0.8713
19492SOL     OW63286   7.429   0.231  10.201  0.3634 -0.1502 -0.0869
19492SOL    HW163287   7.511   0.279  10.208  0.3660 -0.3629  1.6090
19492SOL    HW263288   7.444   0.168  10.130  1.2236  0.6309 -0.6101
19493SOL     OW63289   0.784   8.170   1.021  0.5907  0.5527 -0.8280
19493SOL    HW163290   0.862   8.119   1.043  0.8860  1.1349 -0.5079
19493SOL    HW263291   0.711   8.108   1.031  0.7184  0.6849  1.5606
19494SOL     OW63292   6.516   0.369   4.937 -0.0164 -0.1535 -0.2776
19494SOL    HW163293   6.482   0.290   4.979  0.4809  0.5508  1.5325
19494SOL    HW263294   6.472   0.441   4.982  0.6506  0.6462 -0.8737
19495SOL     OW63295   9.953   2.918   0.945 -0.4607 -0.1461 -0.4432
19495SOL    HW163296   9.994   2.857   0.884  0.1975 -2.5300  2.1682
19495SOL    HW263297   9.862   2.891   0.950 -0.1973 -0.9457  0.6167
19496SOL     OW63298   8.640   6.669   9.422  0.1936 -0.2676  0.0231
19496SOL    HW163299   8.601   6.704   9.342  0.4424 -0.1861 -0.0645
19496SOL    HW263300   8.663   6.578   9.399 -2.3830 -1.2351  0.8868
19497SOL     OW63301  10.151   3.374   7.427 -0.3424  0.6199  0.3326
19497SOL    HW163302  10.074   3.427   7.405  0.0966  0.7130 -1.0636
19497SOL    HW263303  10.115   3.298   7.472 -1.0581  1.6405  1.5810
19498SOL     OW63304   6.020  11.896   1.914  0.2347  0.5089  0.5883
19498SOL    HW163305   5.956  11.965   1.897  0.5664  0.6173 -0.2640
19498SOL    HW263306   6.005  11.831   1.846  1.7708  1.0773 -0.3586
19499SOL     OW63307   4.967  12.461   7.296 -0.3031 -0.5000 -0.2384
19499SOL    HW163308   4.980  12.477   7.203  3.2450  2.3788  0.5520
19499SOL    HW263309   4.872  12.471   7.309 -0.6975  0.5196 -3.2521
19500SOL     OW63310  10.151   6.867   6.530 -0.6338  0.1187 -0.2986
19500SOL    HW163311  10.099   6.859   6.610  1.6940 -0.8152  1.2237
19500SOL    HW263312  10.183   6.778   6.513  0.8570  0.7338 -0.8686
19501SOL     OW63313   8.404   7.798  11.121 -0.7259  0.2242 -0.3834
19501SOL    HW163314   8.328   7.783  11.065 -1.4660  0.4587  0.5282
19501SOL    HW263315   8.478   7.806  11.061 -0.6647 -4.0350 -1.2184
19502SOL     OW63316   7.737  11.890   8.222  0.7525 -0.3941  0.5571
19502SOL    HW163317   7.787  11.822   8.176 -1.1728 -1.3090 -0.2877
19502SOL    HW263318   7.699  11.845   8.297  1.2301  0.3157  1.2405
19503SOL     OW63319   2.119   8.381   9.805 -0.1042 -0.3119  0.0093
19503SOL    HW163320   2.153   8.401   9.892  0.7392  1.7953 -0.7328
19503SOL    HW263321   2.195   8.347   9.757 -0.3725 -0.6906 -0.1573
19504SOL     OW63322   1.956   4.581   8.411 -0.0667 -0.1907  0.8690
19504SOL    HW163323   1.948   4.675   8.394  1.2152 -0.0511  0.9658
19504SOL    HW263324   1.905   4.539   8.341  0.1703  0.5490  0.2440
19505SOL     OW63325   1.080   9.804   6.917  0.0730 -0.1097  0.0553
19505SOL    HW163326   1.105   9.777   7.006  1.4519 -1.4935 -0.6965
19505SOL    HW263327   1.008   9.866   6.930  0.5107  0.0526  2.1525
19506SOL     OW63328  10.605   0.670   3.654 -0.4491 -0.6089  0.4964
19506SOL    HW163329  10.679   0.626   3.612 -0.4529 -2.0164  1.8456
19506SOL    HW263330  10.545   0.690   3.583  0.7180 -0.4529 -0.4841
19507SOL     OW63331   7.923   8.860   8.071  0.2066 -0.3959  0.3723
19507SOL    HW163332   7.827   8.853   8.075  0.0915  1.2305  1.4324
19507SOL    HW263333   7.943   8.941   8.117  2.0674 -0.3449 -0.4479
19508SOL     OW63334   2.732   9.682   7.586  0.6352  0.1455 -0.8196
19508SOL    HW163335   2.712   9.591   7.608 -0.2839  1.0805  3.0349
19508SOL    HW263336   2.652   9.715   7.546 -0.0209 -0.1000  0.2555
19509SOL     OW63337   9.109  12.084   6.087  0.1544  0.2358  0.9648
19509SOL    HW163338   9.017  12.062   6.102 -0.4717 -0.4652 -2.7716
19509SOL    HW263339   9.105  12.153   6.021  2.1667 -2.6784 -2.5329
19510SOL     OW63340  11.364   3.987   1.183  0.1977  0.5694  0.1325
19510SOL    HW163341  11.352   4.081   1.200 -2.1622  0.1556  1.2418
19510SOL    HW263342  11.352   3.946   1.269 -1.9203 -0.9262 -0.7879
19511SOL     OW63343   6.384   3.064   6.510  0.1422  0.0321 -0.2077
19511SOL    HW163344   6.414   3.155   6.499 -2.6344  1.0952  0.1125
19511SOL    HW263345   6.409   3.021   6.429  3.8946  0.2194  0.6364
19512SOL     OW63346   6.592  11.673  10.159  0.1549  0.0992  0.0067
19512SOL    HW163347   6.588  11.712  10.072  0.8572  0.4240  0.1097
19512SOL    HW263348   6.672  11.619  10.157 -1.1217 -1.9048 -0.3537
19513SOL     OW63349   7.822   8.212   1.048  0.0828 -0.2047 -0.2468
19513SOL    HW163350   7.898   8.219   0.989  0.6668  1.5376  0.6327
19513SOL    HW263351   7.854   8.248   1.131 -1.7347  0.6788  0.1047
19514SOL     OW63352   9.532   3.406   2.026 -0.1017 -0.0736  0.0569
19514SOL    HW163353   9.573   3.490   2.008 -0.0746  0.2879  1.6921
19514SOL    HW263354   9.500   3.413   2.116 -2.6032 -0.8131 -0.6909
19515SOL     OW63355   5.229   1.850   3.364  0.0922  0.0441  0.3952
19515SOL    HW163356   5.293   1.810   3.304  0.1624  0.7913 -0.0409
19515SOL    HW263357   5.277   1.921   3.406 -0.2203  0.0922  0.6726
19516SOL     OW63358   7.840   0.031   8.881 -0.3152 -0.6245 -0.3274
19516SOL    HW163359   7.800   0.099   8.936 -0.1700  0.8752 -2.0103
19516SOL    HW263360   7.893  -0.020   8.942  0.0729  1.1536  0.9007
19517SOL     OW63361  11.312   9.248   7.783  0.6258  0.1188 -0.4483
19517SOL    HW163362  11.315   9.261   7.688  0.8112 -0.6210 -0.5510
19517SOL    HW263363  11.236   9.299   7.811  0.0440 -0.3465 -1.1147
19518SOL     OW63364   7.517   5.000   3.065 -0.0109  0.9354 -0.1824
19518SOL    HW163365   7.497   4.979   3.157 -0.5745  1.0485 -0.2782
19518SOL    HW263366   7.602   5.043   3.069 -0.2590  1.3851  0.3463
19519SOL     OW63367   1.204   4.907  12.382  0.6535  0.5410  0.6337
19519SOL    HW163368   1.170   4.986  12.425  0.2058  2.0161 -2.1690
19519SOL    HW263369   1.297   4.926  12.369  0.1422  1.7004 -1.9758
19520SOL     OW63370   8.174   2.639   0.798 -0.6959  0.1411  0.2327
19520SOL    HW163371   8.164   2.733   0.812  0.3199  0.1606  0.8890
19520SOL    HW263372   8.096   2.601   0.839 -0.3268  0.5903  1.4044
19521SOL     OW63373   9.271   7.612   0.925  0.3527 -0.1840 -0.1333
19521SOL    HW163374   9.191   7.664   0.919  0.9853  0.6588 -1.9925
19521SOL    HW263375   9.314   7.644   1.005  0.3006  1.5999 -0.7636
19522SOL     OW63376   7.176   0.943   1.671 -0.2301 -0.1296 -0.9973
19522SOL    HW163377   7.251   0.993   1.704  0.3483 -1.7146  0.2257
19522SOL    HW263378   7.151   0.989   1.590  0.7943  1.5860 -0.4028
19523SOL     OW63379   1.414   9.249   6.146  0.3334 -0.6241  0.2948
19523SOL    HW163380   1.338   9.281   6.194 -1.3391  0.9361 -3.1075
19523SOL    HW263381   1.383   9.171   6.099  0.2607  0.8869 -2.3284
19524SOL     OW63382   6.364  11.502  11.457 -0.0202 -0.1641  0.3669
19524SOL    HW163383   6.359  11.533  11.547 -0.9296 -0.0551  0.2872
19524SOL    HW263384   6.395  11.412  11.465 -0.7162 -0.3703  0.8411
19525SOL     OW63385   5.369   1.233   3.585  0.6724 -0.0969 -0.5761
19525SOL    HW163386   5.453   1.186   3.583  0.2016 -1.1479  1.4257
19525SOL    HW263387   5.304   1.167   3.561 -0.0699 -0.8295  2.8752
19526SOL     OW63388  10.270   4.150   8.928  0.0344  0.0837  0.2885
19526SOL    HW163389  10.324   4.144   8.849 -0.2183  0.5458  0.0809
19526SOL    HW263390  10.213   4.073   8.924  0.9269 -0.6256  0.7059
19527SOL     OW63391   8.358   5.322  11.996  0.7621 -0.4691  0.0863
19527SOL    HW163392   8.302   5.274  12.057 -2.1880  2.9076  0.4065
19527SOL    HW263393   8.410   5.380  12.052  1.2925 -0.4144 -0.4534
19528SOL     OW63394  10.586  10.932   8.494 -0.3964  0.0745  0.6851
19528SOL    HW163395  10.507  10.975   8.460 -0.2616 -0.7734 -0.7998
19528SOL    HW263396  10.646  11.004   8.513 -0.4724  0.6126 -0.9496
19529SOL     OW63397  10.921   6.375  11.713 -0.3770  0.5536 -0.2782
19529SOL    HW163398  10.991   6.376  11.647  0.8505  1.7058  0.9869
19529SOL    HW263399  10.852   6.322  11.673  0.9335 -0.0606 -1.8507
19530SOL     OW63400   4.373   2.431   9.346 -0.6573  0.4837  0.2088
19530SOL    HW163401   4.462   2.396   9.332 -0.6302  0.6003  0.0912
19530SOL    HW263402   4.345   2.460   9.259 -0.7892  0.4970  0.2569
19531SOL     OW63403   4.439   1.302   3.892  0.9016  0.4485  0.3306
19531SOL    HW163404   4.418   1.322   3.983 -1.6106 -1.4816  0.2872
19531SOL    HW263405   4.358   1.321   3.844  1.6097 -0.2373 -1.2033
19532SOL     OW63406   0.165   1.826   6.807  0.0854 -0.4873  0.4085
19532SOL    HW163407   0.119   1.874   6.738  2.7259  0.0767 -1.1405
19532SOL    HW263408   0.142   1.871   6.888  1.8440  3.1173 -0.8681
19533SOL     OW63409   2.075   9.587   2.873 -0.4051  0.2085  0.0423
19533SOL    HW163410   2.169   9.575   2.886 -0.3764  1.0456  0.7273
19533SOL    HW263411   2.036   9.504   2.900  0.1436 -0.1829 -0.3539
19534SOL     OW63412   8.116   6.231   1.517 -0.4629  0.0325  1.0552
19534SOL    HW163413   8.045   6.174   1.549 -0.1919 -1.8178 -1.3673
19534SOL    HW263414   8.071   6.300   1.469 -0.6831 -0.6834  0.2113
19535SOL     OW63415  11.443   4.616   2.007  0.4197 -0.4012  0.3596
19535SOL    HW163416  11.481   4.553   1.947 -0.5790  1.0389 -1.9047
19535SOL    HW263417  11.514   4.677   2.027  0.9678 -1.3315  1.3319
19536SOL     OW63418   5.647   6.115  10.117  0.3235 -0.0517 -0.6664
19536SOL    HW163419   5.654   6.156  10.031  0.4435  0.0999 -0.5847
19536SOL    HW263420   5.676   6.183  10.178  2.0758 -0.7537 -0.6489
19537SOL     OW63421  12.052   4.269   1.207  0.6488  0.9323 -0.0031
19537SOL    HW163422  12.078   4.360   1.222  0.9869  0.9817 -0.8099
19537SOL    HW263423  12.131   4.228   1.171  0.0393  0.7204 -1.1495
19538SOL     OW63424   4.338  10.283  11.840 -0.0753  0.4244 -0.2060
19538SOL    HW163425   4.365  10.349  11.904 -1.2000  0.2564  0.4726
19538SOL    HW263426   4.291  10.332  11.773  0.7466  0.5453 -0.7082
19539SOL     OW63427   8.506   4.840   4.000 -0.3875 -0.3910  0.4631
19539SOL    HW163428   8.592   4.871   4.028 -0.0256 -1.0655  0.1303
19539SOL    HW263429   8.520   4.748   3.979 -1.2601 -0.5844  0.6851
19540SOL     OW63430   7.774   6.396  10.773 -0.0010  0.2098 -0.2567
19540SOL    HW163431   7.742   6.405  10.684 -0.4977  1.9876  0.0728
19540SOL    HW263432   7.850   6.454  10.777 -0.3887  0.6750  0.6437
19541SOL     OW63433   9.830   2.309   3.020 -0.0353  0.0812 -0.3361
19541SOL    HW163434   9.816   2.368   3.093  0.1299  0.9629 -0.9988
19541SOL    HW263435   9.824   2.365   2.942 -1.0205 -0.9669 -1.0444
19542SOL     OW63436   4.800   3.874   3.797 -0.1280  0.1534  0.1587
19542SOL    HW163437   4.762   3.960   3.815 -0.7832 -0.0577 -0.1949
19542SOL    HW263438   4.780   3.858   3.705  1.5197  0.3795 -0.2885
19543SOL     OW63439   2.177   7.695   9.201  0.0975  0.4500 -0.3511
19543SOL    HW163440   2.200   7.635   9.272  0.5958  0.6994 -0.2974
19543SOL    HW263441   2.261   7.716   9.160  0.0004  1.5660 -0.0066
19544SOL     OW63442   2.403   9.128  11.396 -0.0750 -0.2426  0.1126
19544SOL    HW163443   2.438   9.041  11.377 -0.7092 -1.0629  2.3742
19544SOL    HW263444   2.318   9.111  11.436 -0.4994  1.4734  0.0369
19545SOL     OW63445   7.963   6.864   0.817 -0.0916  0.6019 -0.4095
19545SOL    HW163446   7.991   6.773   0.827  1.6407  1.2213  0.6519
19545SOL    HW263447   8.036   6.906   0.772 -0.5130  1.6698 -0.1022
19546SOL     OW63448   1.633  12.500   4.693 -0.4635  0.0039 -0.2082
19546SOL    HW163449   1.622  12.417   4.741  1.6107  0.3221  0.9669
19546SOL    HW263450   1.554  12.550   4.712 -0.6016 -0.7031  1.2106
19547SOL     OW63451   0.741   6.739   5.899  0.0869  0.1152 -0.1723
19547SOL    HW163452   0.780   6.703   5.978 -0.0847  0.9813  0.3191
19547SOL    HW263453   0.685   6.810   5.930 -1.6110 -0.8545 -0.8813
19548SOL     OW63454  12.281   2.363   9.969 -0.0357 -0.4342 -0.1904
19548SOL    HW163455  12.374   2.378   9.988 -0.0265 -1.2290  0.4418
19548SOL    HW263456  12.235   2.398  10.045 -0.1484 -1.4422  0.2200
19549SOL     OW63457  10.769  10.376   5.739 -0.0622 -0.0165  0.1965
19549SOL    HW163458  10.799  10.288   5.717  0.6392  0.0680  0.7730
19549SOL    HW263459  10.675  10.375   5.719 -0.3237 -1.2743  1.3506
19550SOL     OW63460   9.876   4.213   4.934  1.1001 -0.2060  0.1615
19550SOL    HW163461   9.848   4.130   4.972  2.1977 -0.2659  0.8989
19550SOL    HW263462   9.858   4.205   4.840  0.2000 -0.8450  0.3834
19551SOL     OW63463  10.511   8.951  11.107 -0.3973  0.0900 -0.5768
19551SOL    HW163464  10.550   8.900  11.036 -1.9275 -0.8050 -0.8252
19551SOL    HW263465  10.467   8.886  11.161 -1.1043  0.9969 -0.0407
19552SOL     OW63466   8.087  11.024  10.039  0.0997 -0.0858 -0.4876
19552SOL    HW163467   8.144  10.963  10.086  0.1642 -0.5304 -1.1322
19552SOL    HW263468   8.140  11.055   9.966 -0.5851 -0.7810 -1.3087
19553SOL     OW63469  12.512   7.459   3.898  0.5684  0.0606 -0.1279
19553SOL    HW163470  12.527   7.465   3.992 -1.6650  1.3230  0.2143
19553SOL    HW263471  12.473   7.373   3.884 -0.0103  0.2554  0.2662
19554SOL     OW63472   4.638   1.870  11.199  0.3162  0.0019 -0.0508
19554SOL    HW163473   4.617   1.862  11.292  1.3971 -1.6296  0.1087
19554SOL    HW263474   4.635   1.963  11.181 -0.5271  0.2997  1.4692
19555SOL     OW63475   9.716   8.184   1.015 -0.3888  0.4411  0.0499
19555SOL    HW163476   9.622   8.198   1.004 -0.1465  2.3414 -0.0286
19555SOL    HW263477   9.756   8.230   0.940  0.5381 -3.0207 -1.7697
19556SOL     OW63478   1.619   3.315   5.307 -0.3308  0.5879 -0.0531
19556SOL    HW163479   1.706   3.291   5.276 -1.1101 -0.5709 -1.5182
19556SOL    HW263480   1.615   3.283   5.397  0.4869 -0.0503 -0.2347
19557SOL     OW63481   9.902  11.570   3.689 -0.2311  0.0120  0.9043
19557SOL    HW163482   9.843  11.513   3.640  2.4002 -2.3328  0.1799
19557SOL    HW263483   9.943  11.513   3.753  1.6397  1.3512  1.0004
19558SOL     OW63484   5.518   3.517  10.130 -0.0213 -0.3154 -0.1144
19558SOL    HW163485   5.459   3.592  10.123  1.5614  1.0978  0.8800
19558SOL    HW263486   5.594   3.542  10.078  0.9195 -0.7921  0.9799
19559SOL     OW63487   0.211   5.414   5.886  0.1155  0.1067 -0.2054
19559SOL    HW163488   0.240   5.477   5.951 -0.2585  3.0049 -2.6183
19559SOL    HW263489   0.274   5.342   5.891  1.8345  1.6400  1.2500
19560SOL     OW63490  11.315  12.110  12.052  0.5080  0.0946  0.4915
19560SOL    HW163491  11.286  12.116  11.961  1.9647 -0.7358 -0.0745
19560SOL    HW263492  11.282  12.025  12.082  0.0806  0.3409  0.7216
19561SOL     OW63493  10.358   8.457   2.344 -0.2596 -0.8672 -0.4231
19561SOL    HW163494  10.292   8.492   2.404  0.7877  0.4459  0.0218
19561SOL    HW263495  10.313   8.453   2.259 -1.3408 -1.4178  0.1482
19562SOL     OW63496   7.722   7.664   7.664 -0.0998  0.3533 -0.1765
19562SOL    HW163497   7.688   7.679   7.752  1.3557  1.8513  0.1927
19562SOL    HW263498   7.775   7.585   7.673 -2.0053 -1.0205 -0.3730
19563SOL     OW63499   1.614   9.291   8.837  0.1408 -0.6316  0.2328
19563SOL    HW163500   1.621   9.202   8.872 -0.2767 -0.2438  1.3430
19563SOL    HW263501   1.683   9.340   8.882  1.0859 -0.6218 -1.1773
19564SOL     OW63502   5.476   8.581  11.481  0.0095  0.0299 -0.2798
19564SOL    HW163503   5.520   8.591  11.397  0.3513  0.7855 -0.0183
19564SOL    HW263504   5.396   8.634  11.473  1.3712  2.3801  0.7870
19565SOL     OW63505  10.740   2.624   3.277  0.3880  0.4011 -0.3476
19565SOL    HW163506  10.654   2.590   3.253  1.7158 -2.1729 -1.9799
19565SOL    HW263507  10.787   2.631   3.194  1.0171  4.3113  0.1660
19566SOL     OW63508   3.191   0.848   0.092 -0.1942 -0.3210 -0.0653
19566SOL    HW163509   3.250   0.920   0.116 -0.1771 -1.0535  2.3180
19566SOL    HW263510   3.131   0.886   0.028  0.6166  1.4448  0.1739
19567SOL     OW63511   6.656  10.269  12.051  0.0388 -0.0209 -0.0772
19567SOL    HW163512   6.645  10.225  12.135  0.6369 -1.0168 -0.4998
19567SOL    HW263513   6.583  10.331  12.047 -0.3605 -0.3984  0.8956
19568SOL     OW63514   0.709   0.448   6.581  0.0396 -0.4585  0.5696
19568SOL    HW163515   0.750   0.364   6.559  0.3645 -0.3138  0.6162
19568SOL    HW263516   0.630   0.424   6.628  0.4821 -0.7293  1.1898
19569SOL     OW63517   2.279  11.045   4.381 -0.0253  0.2988  0.2199
19569SOL    HW163518   2.281  11.122   4.325  2.4007  0.3755  0.3387
19569SOL    HW263519   2.275  11.080   4.470 -0.2515  0.2376  0.2364
19570SOL     OW63520   5.754   9.805   1.809  0.2381 -0.3285  0.0574
19570SOL    HW163521   5.832   9.801   1.754 -0.7914  0.0322 -1.5005
19570SOL    HW263522   5.682   9.781   1.750 -1.0608  1.2459  0.9313
19571SOL     OW63523   4.214   8.059   5.504 -0.1214  0.4751  0.2925
19571SOL    HW163524   4.203   8.106   5.587 -0.1770  0.6203  0.2045
19571SOL    HW263525   4.171   7.975   5.518  2.8907 -0.9752  1.6033
19572SOL     OW63526   2.387  11.297   0.901 -0.4496 -0.0583 -0.0527
19572SOL    HW163527   2.323  11.253   0.845 -0.3708  1.2551 -1.2273
19572SOL    HW263528   2.344  11.303   0.987 -1.0948 -0.9621 -0.3035
19573SOL     OW63529   1.679  12.059   2.843  0.5117 -0.3667  0.0476
19573SOL    HW163530   1.660  11.969   2.871 -0.9750 -0.2382 -0.4560
19573SOL    HW263531   1.593  12.101   2.838  0.9529  0.3808 -2.0672
19574SOL     OW63532   7.283  10.079   9.096 -0.3712  0.2910 -0.2836
19574SOL    HW163533   7.253  10.168   9.114 -3.9239 -0.2761 -2.3881
19574SOL    HW263534   7.300  10.078   9.002  1.8172 -0.7757  0.0579
19575SOL     OW63535   1.287   6.633   6.031  0.0510 -0.0037  0.1404
19575SOL    HW163536   1.263   6.543   6.054 -0.4871 -0.2709 -1.3677
19575SOL    HW263537   1.376   6.644   6.064  0.9948 -1.8601 -1.5590
19576SOL     OW63538   6.663   7.958   6.485  0.6962  0.7263 -0.5920
19576SOL    HW163539   6.750   7.981   6.451  1.1375  2.6452  1.6184
19576SOL    HW263540   6.672   7.866   6.510  2.3129  1.0361  0.1303
19577SOL     OW63541   0.099   8.910  11.945 -0.4363  0.0827 -0.0106
19577SOL    HW163542   0.008   8.936  11.962 -0.3091 -0.9133  2.7478
19577SOL    HW263543   0.092   8.833  11.889 -1.2843  0.0357  0.1438
19578SOL     OW63544  10.206   3.490   3.114  0.2792 -0.1552  0.5215
19578SOL    HW163545  10.158   3.549   3.172  0.0249  1.5359 -1.2921
19578SOL    HW263546  10.195   3.404   3.153 -3.1832  0.3170  0.9256
19579SOL     OW63547   6.324   8.356   9.210  0.3121 -0.0493 -0.1056
19579SOL    HW163548   6.329   8.261   9.206  0.5857 -0.0527  0.2277
19579SOL    HW263549   6.406   8.387   9.172 -0.0501  0.0716 -0.7936
19580SOL     OW63550   3.666   0.724  10.828 -0.1523 -0.2859  0.4982
19580SOL    HW163551   3.573   0.735  10.850 -0.4981  0.0166 -0.9907
19580SOL    HW263552   3.708   0.803  10.862 -0.5124 -0.1909  0.7332
19581SOL     OW63553  12.381   3.668   4.758 -0.1135 -0.0732 -0.5271
19581SOL    HW163554  12.429   3.724   4.697  1.9340 -0.0441  1.0275
19581SOL    HW263555  12.446   3.641   4.822 -1.8671 -1.3282  0.8088
19582SOL     OW63556   9.581  10.526   4.733  0.0350  0.0958  0.4767
19582SOL    HW163557   9.595  10.602   4.677  0.0498 -0.7169 -0.6559
19582SOL    HW263558   9.489  10.534   4.760  0.1283  0.6879  0.6343
19583SOL     OW63559   4.615   2.897   5.528  0.5439  0.3413  0.1476
19583SOL    HW163560   4.707   2.870   5.525  0.5827  0.5564 -1.0758
19583SOL    HW263561   4.613   2.980   5.481 -0.3995 -0.0294 -0.4942
19584SOL     OW63562   4.657   2.977   3.532 -0.3738 -0.4213 -0.0094
19584SOL    HW163563   4.747   2.964   3.503 -0.7906  0.2639 -1.8055
19584SOL    HW263564   4.611   2.898   3.505 -0.6016 -0.1212 -0.5283
19585SOL     OW63565   0.213   9.214   4.933 -0.2458  0.1672  0.3049
19585SOL    HW163566   0.169   9.241   4.852  0.8336 -1.5201 -0.9113
19585SOL    HW263567   0.171   9.265   5.001 -2.5669  0.2135 -1.0688
19586SOL     OW63568   2.043   0.734  11.339  0.1928  0.3136 -0.4528
19586SOL    HW163569   2.081   0.675  11.274  0.6267  0.0039  0.0768
19586SOL    HW263570   2.112   0.799  11.355  0.1379  0.3091 -0.1997
19587SOL     OW63571   5.364   6.275   4.349  0.3350  0.3161 -0.7411
19587SOL    HW163572   5.396   6.307   4.264 -2.7491 -0.0365 -2.1590
19587SOL    HW263573   5.292   6.333   4.371 -1.0529 -1.5551 -0.0547
19588SOL     OW63574   5.961   9.898   5.026 -0.6869  0.0380  0.0412
19588SOL    HW163575   5.869   9.907   5.051 -0.6113  0.4297  0.1809
19588SOL    HW263576   5.974   9.803   5.018 -0.6452 -0.1403  1.7839
19589SOL     OW63577   7.804   2.907   9.144 -0.0500 -0.3456  0.5593
19589SOL    HW163578   7.874   2.966   9.171 -0.9514  1.8211 -1.4985
19589SOL    HW263579   7.788   2.928   9.052 -2.1650 -2.0503  0.4325
19590SOL     OW63580   9.922   4.882   7.907 -0.2759  0.2447 -0.1766
19590SOL    HW163581   9.835   4.857   7.936  0.0476 -0.0385  0.5782
19590SOL    HW263582   9.957   4.935   7.979  0.1978  0.3074 -0.4463
19591SOL     OW63583   6.919   1.589   6.403  0.0087  0.1872  0.4577
19591SOL    HW163584   6.879   1.536   6.334  1.8737 -1.9569  0.9179
19591SOL    HW263585   6.998   1.626   6.362  0.6537 -0.3743  1.1613
19592SOL     OW63586   1.642   8.498   1.546  0.1037  0.1559 -0.3766
19592SOL    HW163587   1.724   8.501   1.596  0.5846 -2.1118 -0.9378
19592SOL    HW263588   1.671   8.487   1.455 -0.8154 -0.2383 -0.6258
19593SOL     OW63589   8.122   3.667  11.428 -0.0571 -0.0879 -0.2026
19593SOL    HW163590   8.055   3.608  11.393 -0.2179  0.2892 -0.5393
19593SOL    HW263591   8.099   3.676  11.521 -2.2932  2.3268 -0.8333
19594SOL     OW63592   2.774  12.378   9.699 -0.6923 -0.1328 -0.2978
19594SOL    HW163593   2.803  12.344   9.784 -0.2306  1.3126  0.1591
19594SOL    HW263594   2.810  12.316   9.635  0.1963 -0.4527  0.4773
19595SOL     OW63595   1.481  10.089   5.165 -0.4902 -0.3542 -0.0549
19595SOL    HW163596   1.389  10.105   5.190 -0.8486 -0.7825 -1.0481
19595SOL    HW263597   1.529  10.163   5.202 -0.9365 -1.0176  2.0516
19596SOL     OW63598   3.001   9.880  10.198 -0.5336  0.2423  0.5374
19596SOL    HW163599   3.059   9.807  10.173 -2.0464 -0.6769 -0.4386
19596SOL    HW263600   2.990   9.930  10.117 -1.7735 -0.0946  0.4827
19597SOL     OW63601   9.600   8.726   0.874  0.3647 -0.1442 -0.1247
19597SOL    HW163602   9.527   8.682   0.918  0.0540  0.3877 -0.1027
19597SOL    HW263603   9.630   8.791   0.937  1.3031 -0.8155  0.1330
19598SOL     OW63604   9.036   1.943  10.116 -0.0095  0.2346  0.0115
19598SOL    HW163605   9.044   1.852  10.090 -0.3401 -0.0372  0.8064
19598SOL    HW263606   9.106   1.957  10.180 -1.1186 -0.0357  1.3463
19599SOL     OW63607  10.386   6.374   7.661 -0.5126 -0.0256  0.0371
19599SOL    HW163608  10.411   6.393   7.571  1.3198  0.2180  0.5687
19599SOL    HW263609  10.304   6.421   7.673 -1.3806 -0.9408 -1.8131
19600SOL     OW63610  10.704   6.990  10.013 -0.3263  0.0159 -0.3544
19600SOL    HW163611  10.680   6.976  10.105 -2.1531 -1.5952 -1.0081
19600SOL    HW263612  10.781   6.935  10.000 -1.2705 -1.3788 -0.2537
19601SOL     OW63613   1.280  10.259   5.444  0.0712 -0.1419  0.1204
19601SOL    HW163614   1.250  10.262   5.534 -0.1225  0.6194  0.0369
19601SOL    HW263615   1.222  10.195   5.401  0.5681 -0.9721  0.6712
19602SOL     OW63616   1.513   9.716  10.332  0.4982 -0.1044  0.4592
19602SOL    HW163617   1.515   9.798  10.283 -0.5124 -0.2180  0.2128
19602SOL    HW263618   1.565   9.734  10.411  1.0702  0.4681 -0.0391
19603SOL     OW63619   3.353  10.698   0.031 -0.0881 -0.7879 -0.0287
19603SOL    HW163620   3.401  10.644  -0.032  0.6183 -0.0492 -0.1455
19603SOL    HW263621   3.421  10.732   0.090 -0.4859  0.1344 -0.0777
19604SOL     OW63622   1.819  11.888   6.523 -0.3968  0.3164  0.6354
19604SOL    HW163623   1.899  11.889   6.471  0.0216 -0.0441  1.2618
19604SOL    HW263624   1.809  11.797   6.549 -0.7170  0.4575  1.0126
19605SOL     OW63625   1.473   2.223   3.363 -0.0160 -0.1030  0.4906
19605SOL    HW163626   1.437   2.301   3.321 -0.6664 -0.2374  0.7978
19605SOL    HW263627   1.469   2.155   3.296 -1.5859 -0.4681  0.9303
19606SOL     OW63628   7.036   5.197   6.095 -1.0168 -0.1429 -0.1989
19606SOL    HW163629   7.073   5.155   6.017 -1.3722 -1.1897  0.1831
19606SOL    HW263630   7.041   5.130   6.163  0.3177  1.1090  1.0034
19607SOL     OW63631   0.634   8.370  11.505  0.1990 -0.1456 -0.0074
19607SOL    HW163632   0.656   8.426  11.579  0.0498  0.0205 -0.0874
19607SOL    HW263633   0.545   8.396  11.482  0.1817 -0.3192 -0.1343
19608SOL     OW63634   6.647   4.471  11.933  0.4037 -0.0131 -0.0454
19608SOL    HW163635   6.648   4.484  12.028 -0.3092 -0.4545  0.0265
19608SOL    HW263636   6.563   4.508  11.905  0.1898 -0.7432 -0.3802
19609SOL     OW63637  11.080  11.766   2.166 -0.6742  0.2931 -0.1979
19609SOL    HW163638  11.022  11.843   2.161  0.2036  1.1265  1.5556
19609SOL    HW263639  11.020  11.693   2.181 -1.4899  0.6597 -1.4316
19610SOL     OW63640   0.642   2.088   5.041  0.0455  0.0906 -0.4944
19610SOL    HW163641   0.587   2.159   5.007  3.1904  2.4826 -1.0932
19610SOL    HW263642   0.728   2.128   5.052  1.5523 -3.1971  1.0914
19611SOL     OW63643  12.442   4.437   0.394  0.1496  0.0261  0.6805
19611SOL    HW163644  12.412   4.528   0.404 -0.9454 -0.3641  1.1350
19611SOL    HW263645  12.507   4.440   0.324  0.2201  1.1786  0.7795
19612SOL     OW63646   9.019   8.151   8.102 -0.6941  0.3931  0.1695
19612SOL    HW163647   8.984   8.108   8.181 -1.2572  0.5052 -0.0188
19612SOL    HW263648   9.081   8.216   8.136  2.3194 -2.3193  0.4407
19613SOL     OW63649   4.897  10.222   4.732 -0.3526  0.1198  0.2947
19613SOL    HW163650   4.925  10.302   4.777  0.1213  1.1185 -1.6270
19613SOL    HW263651   4.930  10.233   4.643  0.6901 -2.7735  0.2291
19614SOL     OW63652   4.972   9.390  10.995  0.2091 -0.2990 -0.2728
19614SOL    HW163653   4.877   9.382  10.985 -0.2260  1.5926  1.4948
19614SOL    HW263654   4.991   9.480  10.968  1.1560  0.0037  1.2533
19615SOL     OW63655  11.090  10.913   2.888  0.5812 -0.4187 -0.0689
19615SOL    HW163656  11.117  10.881   2.973 -0.8368 -0.4514  0.3951
19615SOL    HW263657  11.067  10.834   2.839 -0.8956 -0.2802  0.3573
19616SOL     OW63658   8.427   2.410   2.421  0.1863 -0.7311 -0.3019
19616SOL    HW163659   8.496   2.362   2.374  1.8567  0.4004  0.8762
19616SOL    HW263660   8.358   2.345   2.435  1.2191 -2.0499 -1.0746
19617SOL     OW63661  11.389   1.449   0.946  0.0906  0.4122  0.1975
19617SOL    HW163662  11.380   1.401   1.028  1.2377  0.8081  0.5769
19617SOL    HW263663  11.478   1.485   0.949  0.9426 -1.2125 -2.0983
19618SOL     OW63664   6.908   9.120   5.953 -0.2341 -0.1384 -0.1949
19618SOL    HW163665   6.906   9.034   5.995  0.6803 -0.3809 -0.6107
19618SOL    HW263666   6.977   9.168   5.999 -1.6026  0.8726  0.9150
19619SOL     OW63667   0.329   5.347   8.792 -0.4509 -0.1860 -0.2221
19619SOL    HW163668   0.357   5.310   8.709 -0.1788 -1.2153  0.3154
19619SOL    HW263669   0.251   5.299   8.816 -1.3940  1.1146 -0.5780
19620SOL     OW63670   2.618   0.078   4.168  0.0284 -0.1913  0.1005
19620SOL    HW163671   2.623   0.174   4.168 -0.3081 -0.1499 -1.2624
19620SOL    HW263672   2.708   0.049   4.157  0.0073  0.0066 -0.6472
19621SOL     OW63673   8.456  11.950   5.678  0.0659 -0.1606  0.0582
19621SOL    HW163674   8.364  11.929   5.687  0.0777 -0.2037  0.0801
19621SOL    HW263675   8.472  12.018   5.744 -0.4021  1.2710 -1.2376
19622SOL     OW63676   2.591  11.269   5.233 -0.5966 -0.1175  0.4673
19622SOL    HW163677   2.508  11.260   5.280  0.0145 -1.3717  1.3478
19622SOL    HW263678   2.573  11.232   5.146 -1.2557  0.6582  0.2591
19623SOL     OW63679   5.381   8.820  12.178  0.2753 -0.6367  0.2091
19623SOL    HW163680   5.383   8.742  12.232 -0.1393  0.7151  2.3013
19623SOL    HW263681   5.293   8.856  12.192  1.3838  1.7230  1.6749
19624SOL     OW63682   1.761  10.558   4.790 -0.5151 -0.1212 -0.2349
19624SOL    HW163683   1.834  10.501   4.815 -1.2363 -0.9290  0.0457
19624SOL    HW263684   1.804  10.640   4.764  0.5118 -0.6565 -0.3091
19625SOL     OW63685   0.229   9.197   5.780  0.1306 -0.7746 -0.4941
19625SOL    HW163686   0.138   9.215   5.755 -0.6228 -0.8746  1.8963
19625SOL    HW263687   0.271   9.168   5.699 -1.7156  0.1498 -1.8611
19626SOL     OW63688   9.933   6.481   3.675  0.4091 -0.9800 -0.4318
19626SOL    HW163689  10.021   6.447   3.660  1.4650  1.1494  0.4589
19626SOL    HW263690   9.946   6.556   3.733 -1.5619  1.6193 -3.0574
19627SOL     OW63691   4.797   2.400   7.120  0.3372  0.1670  0.3472
19627SOL    HW163692   4.882   2.435   7.096 -0.2648  1.3381 -0.2050
19627SOL    HW263693   4.798   2.309   7.091  1.1306  0.3814 -0.3246
19628SOL     OW63694   7.364   0.700   3.198 -0.2624  0.8134 -0.2895
19628SOL    HW163695   7.365   0.668   3.108  0.5284  0.6936 -0.2455
19628SOL    HW263696   7.316   0.782   3.194 -1.8685 -0.0970 -0.4943
19629SOL     OW63697   3.597   2.982   2.556 -0.6288 -0.5777 -1.1410
19629SOL    HW163698   3.636   3.065   2.583  1.7617 -2.1386  0.5834
19629SOL    HW263699   3.622   2.920   2.624 -3.8386 -2.4076 -1.4413
19630SOL     OW63700   3.892  11.544   0.375 -0.2712 -0.0031  0.5392
19630SOL    HW163701   3.942  11.471   0.412  3.7858  2.2295  0.0104
19630SOL    HW263702   3.870  11.598   0.450 -0.2067 -0.0551  0.5959
19631SOL     OW63703  10.587   5.538   7.567  0.2664 -0.2643 -0.0388
19631SOL    HW163704  10.547   5.510   7.650 -0.5049  1.2641  0.1442
19631SOL    HW263705  10.675   5.567   7.592 -0.7377  2.4440  0.7571
19632SOL     OW63706   4.175  12.303   2.873  0.0578 -0.0888 -0.0390
19632SOL    HW163707   4.228  12.353   2.935  0.9429  2.4915 -2.6306
19632SOL    HW263708   4.231  12.229   2.849 -0.8915 -2.0583  3.1383
19633SOL     OW63709   6.611   7.551   3.885 -0.3859  0.2412  0.1186
19633SOL    HW163710   6.696   7.507   3.877 -1.2068 -1.2666 -0.5252
19633SOL    HW263711   6.572   7.513   3.964  0.4392  2.6236  1.8268
19634SOL     OW63712   1.103   8.237   9.193 -0.1484 -0.1030  0.5384
19634SOL    HW163713   1.140   8.323   9.213  1.3388 -0.3436 -1.0098
19634SOL    HW263714   1.011   8.254   9.171  0.3039  1.1960 -0.4384
19635SOL     OW63715  10.234   5.862   1.656 -0.6227  0.5999  0.4948
19635SOL    HW163716  10.239   5.946   1.701  1.0125  1.5359 -1.3014
19635SOL    HW263717  10.164   5.874   1.591 -0.1369  0.7383 -0.0155
19636SOL     OW63718   4.962   3.452  11.161 -0.4470  0.3992 -0.2344
19636SOL    HW163719   4.896   3.407  11.213 -0.1418 -0.5109 -0.6136
19636SOL    HW263720   4.975   3.395  11.085  0.4503  0.7845 -0.3798
19637SOL     OW63721  10.031   7.133   5.191 -0.2391  0.4141 -0.2374
19637SOL    HW163722  10.108   7.175   5.153 -1.2142  1.0843 -1.5564
19637SOL    HW263723  10.066   7.057   5.239  1.1236 -0.0524 -1.8806
19638SOL     OW63724   5.559   9.457   1.598 -0.0238 -0.1410  0.1087
19638SOL    HW163725   5.545   9.458   1.503 -0.8592  0.9612  0.2334
19638SOL    HW263726   5.501   9.387   1.629 -0.5621  0.2084 -0.0864
19639SOL     OW63727   0.717   5.767   2.627  0.0353 -0.0088 -0.0792
19639SOL    HW163728   0.676   5.705   2.568  1.9698 -0.8594 -0.6072
19639SOL    HW263729   0.791   5.719   2.665 -0.0240  1.1244  1.5815
19640SOL     OW63730   5.794   6.207   6.783 -0.3567  0.4244  0.3722
19640SOL    HW163731   5.716   6.242   6.740 -0.7586 -0.4382  0.3870
19640SOL    HW263732   5.846   6.169   6.713 -0.1705  0.5833  0.4232
19641SOL     OW63733   2.539  10.421   5.493  0.6143 -0.0619  0.2800
19641SOL    HW163734   2.558  10.354   5.427  1.1458 -0.9459  1.3056
19641SOL    HW263735   2.610  10.485   5.483 -0.0328  0.5049 -0.8699
19642SOL     OW63736  11.194   5.402   6.126  0.2633  0.1320 -0.4054
19642SOL    HW163737  11.254   5.364   6.062  0.8731 -0.1384  0.3188
19642SOL    HW263738  11.108   5.367   6.102  0.6601 -0.8877 -0.3808
19643SOL     OW63739   4.666  10.251   2.996  0.1196  0.4628  0.2941
19643SOL    HW163740   4.692  10.264   2.905 -0.2409  1.0243  0.2653
19643SOL    HW263741   4.701  10.328   3.042  0.0978  0.2996  0.5851
19644SOL     OW63742   6.190   6.613   6.576 -0.1083 -0.3121 -0.0594
19644SOL    HW163743   6.220   6.700   6.549 -0.0294  0.1899  1.5226
19644SOL    HW263744   6.153   6.626   6.663 -0.9294 -1.7166 -0.1631
19645SOL     OW63745   6.175   9.882   6.491  0.2175 -0.3213  0.3324
19645SOL    HW163746   6.085   9.871   6.521  0.3954 -1.5009  0.4660
19645SOL    HW263747   6.228   9.880   6.571  0.3346  0.8983  0.3063
19646SOL     OW63748   1.675   8.288   5.083  0.1342 -0.1625 -0.6772
19646SOL    HW163749   1.708   8.342   5.155 -1.5998  0.5357 -0.3693
19646SOL    HW263750   1.729   8.209   5.086  1.3975  0.6915  0.1218
19647SOL     OW63751   7.375   4.638   1.004 -0.1755 -0.1852 -0.4049
19647SOL    HW163752   7.439   4.567   0.996 -1.7643 -1.4750 -2.6302
19647SOL    HW263753   7.382   4.687   0.922 -0.9381  0.6595  0.0101
19648SOL     OW63754   4.146   8.161  11.381 -0.6945 -0.0254  0.3924
19648SOL    HW163755   4.212   8.228  11.365 -1.3630  0.8799  1.3347
19648SOL    HW263756   4.193   8.078  11.369  0.3426  0.5964  0.0337
19649SOL     OW63757   7.977   1.375   1.728  0.8805  0.7365  0.3252
19649SOL    HW163758   8.015   1.289   1.710  0.2972  0.7397 -0.9958
19649SOL    HW263759   8.021   1.434   1.667 -1.5364  0.6493 -1.6372
19650SOL     OW63760   0.817   9.715  10.585 -0.0240  0.0729  0.6076
19650SOL    HW163761   0.809   9.756  10.499 -2.0060 -0.0387  0.6803
19650SOL    HW263762   0.885   9.765  10.629 -0.5050  1.5693 -0.2567
19651SOL     OW63763   1.969   6.166   2.767  0.6453 -0.4341 -0.5241
19651SOL    HW163764   1.947   6.084   2.813 -0.0509 -0.0602 -0.1571
19651SOL    HW263765   2.029   6.211   2.826 -1.1013  0.5475  0.5959
19652SOL     OW63766  12.138   1.030   8.382 -0.1727  0.0471 -0.0415
19652SOL    HW163767  12.076   1.006   8.313  0.3077  0.4722 -0.6362
19652SOL    HW263768  12.160   1.121   8.364  1.9594 -0.5634 -0.9237
19653SOL     OW63769   5.424  10.133   9.423  0.4366 -0.0256 -0.3089
19653SOL    HW163770   5.343  10.084   9.405  0.0091  0.3176  0.6384
19653SOL    HW263771   5.492  10.084   9.376 -0.5330  0.5759 -2.5010
19654SOL     OW63772   7.393   8.638  12.496  0.1302 -0.7363  0.6015
19654SOL    HW163773   7.396   8.720  12.446 -0.3465 -1.3220 -0.4319
19654SOL    HW263774   7.316   8.648  12.553  0.3779 -0.2643  0.8629
19655SOL     OW63775   4.972   3.744   5.121  0.1061  0.0341  0.4933
19655SOL    HW163776   5.035   3.791   5.177  1.5219 -1.3538  0.1452
19655SOL    HW263777   5.025   3.710   5.050 -1.1088 -1.0144  0.0689
19656SOL     OW63778   3.351   4.360   5.836  0.1913  0.3284 -0.6412
19656SOL    HW163779   3.258   4.369   5.854  0.3019 -0.8053  0.6499
19656SOL    HW263780   3.364   4.405   5.752 -1.5992  0.0295 -1.1174
19657SOL     OW63781  12.309   0.729   2.592  0.1202  0.2903 -0.0309
19657SOL    HW163782  12.372   0.786   2.637  0.5562 -0.0247 -0.2387
19657SOL    HW263783  12.231   0.784   2.582  0.7790  1.1143 -0.8827
19658SOL     OW63784   1.377   2.286   9.642  0.0172  0.2118 -0.0020
19658SOL    HW163785   1.465   2.286   9.604  0.2843  1.0569  0.5770
19658SOL    HW263786   1.344   2.375   9.628 -0.0253  0.4423  1.3521
19659SOL     OW63787   2.963   2.887   3.451 -0.5643  0.6443 -0.2249
19659SOL    HW163788   2.872   2.871   3.424  0.5274 -5.8340 -1.8343
19659SOL    HW263789   2.977   2.824   3.522  2.7149  1.3988 -0.0570
19660SOL     OW63790   7.859   8.401  11.510  0.9294  0.3574 -0.1441
19660SOL    HW163791   7.949   8.421  11.486  0.7050  0.8740 -0.5485
19660SOL    HW263792   7.852   8.429  11.602  1.5134 -0.7689  0.2725
19661SOL     OW63793   5.995   1.886   7.854 -0.1898  0.3348  0.3302
19661SOL    HW163794   5.988   1.931   7.938 -1.3437  1.2452 -0.2289
19661SOL    HW263795   5.928   1.817   7.859  1.0939 -0.9197  0.9094
19662SOL     OW63796   5.775   6.582   7.835  0.0668 -0.1579 -0.5256
19662SOL    HW163797   5.701   6.576   7.896 -0.0233 -1.3386 -0.7220
19662SOL    HW263798   5.737   6.622   7.756 -0.0891  0.2726 -0.2401
19663SOL     OW63799   9.421   9.187   3.249  0.5013 -0.0414  0.0655
19663SOL    HW163800   9.335   9.146   3.248 -0.5910  2.1074  1.0694
19663SOL    HW263801   9.434   9.216   3.158 -0.1585  0.2985  0.0777
19664SOL     OW63802   7.727   6.634   5.987 -0.1863 -0.1391 -0.7190
19664SOL    HW163803   7.644   6.647   6.032 -0.4812 -3.0482 -0.2608
19664SOL    HW263804   7.793   6.655   6.053 -0.5102  1.5441 -0.8862
19665SOL     OW63805  10.165  12.000  10.621  0.4030 -0.0448  0.2849
19665SOL    HW163806  10.097  12.013  10.555  0.0866 -0.1051  0.5959
19665SOL    HW263807  10.139  12.056  10.694  1.2614  0.7586 -0.0045
19666SOL     OW63808   2.975   1.284   6.164 -0.0423  0.2227  0.0978
19666SOL    HW163809   2.968   1.364   6.216  2.3021  1.1353 -0.8174
19666SOL    HW263810   3.068   1.261   6.168 -0.0004 -0.4192 -2.5496
19667SOL     OW63811   1.094   6.301   7.904  0.0661  0.2314  0.3106
19667SOL    HW163812   1.000   6.281   7.907  0.1127  0.1028  1.0441
19667SOL    HW263813   1.098   6.396   7.907 -0.0242  0.2190  1.0866
19668SOL     OW63814   6.844   6.091  11.029 -0.1575 -0.4069  0.0614
19668SOL    HW163815   6.755   6.127  11.034 -0.4444 -1.0827 -0.1444
19668SOL    HW263816   6.865   6.070  11.120 -0.2727 -0.4015  0.0895
19669SOL     OW63817   1.258   4.557   3.040 -0.2624 -0.2358 -0.2715
19669SOL    HW163818   1.202   4.567   3.117  0.9335  1.3476  0.4600
19669SOL    HW263819   1.203   4.513   2.976 -1.2580 -1.7441  1.5143
19670SOL     OW63820   8.719  10.710   6.410  0.0279 -0.6460  0.0294
19670SOL    HW163821   8.666  10.664   6.475 -1.5238  0.8660 -0.0949
19670SOL    HW263822   8.750  10.788   6.455  1.2014 -0.9300 -0.2612
19671SOL     OW63823  11.862  12.074   8.990 -0.5016 -0.1833  0.5281
19671SOL    HW163824  11.775  12.033   8.989 -0.1390 -1.0674  1.7363
19671SOL    HW263825  11.855  12.143   9.056 -1.3371  2.3679 -2.0597
19672SOL     OW63826   0.751   6.479   4.563 -0.1723 -0.2972 -0.6002
19672SOL    HW163827   0.702   6.452   4.641  1.6357 -1.1267  0.3064
19672SOL    HW263828   0.826   6.420   4.560  0.9653  1.1340 -1.7420
19673SOL     OW63829   2.691  11.743  11.602  0.1448 -0.4563 -0.5148
19673SOL    HW163830   2.640  11.820  11.577  0.3709 -0.5506 -1.2963
19673SOL    HW263831   2.626  11.679  11.631 -0.2384 -0.7210 -1.8915
19674SOL     OW63832   6.031  10.106   5.745 -0.6255 -0.0860 -0.1729
19674SOL    HW163833   6.048  10.146   5.660  0.3304 -0.1079 -0.0021
19674SOL    HW263834   5.969  10.167   5.788  0.9391  1.3482  0.1530
19675SOL     OW63835   4.726   8.246   1.684  0.0514  0.2518  0.4799
19675SOL    HW163836   4.790   8.204   1.741  1.4624  0.6849 -0.7377
19675SOL    HW263837   4.687   8.314   1.739  1.5957  0.8579  0.8905
19676SOL     OW63838   8.737   3.091   3.799  0.8925  0.2353 -0.1598
19676SOL    HW163839   8.778   3.004   3.803  0.9442  0.2304 -0.7251
19676SOL    HW263840   8.796   3.142   3.743  0.0597  0.1876 -1.1101
19677SOL     OW63841   2.533   5.318   9.613 -0.5332  0.1533  0.0108
19677SOL    HW163842   2.465   5.278   9.559  0.0602  0.2863 -0.8704
19677SOL    HW263843   2.571   5.244   9.661 -0.0517 -0.2418 -0.9258
19678SOL     OW63844   4.124   7.529   6.353 -0.2125  0.5082  0.0531
19678SOL    HW163845   4.086   7.491   6.433 -1.2333  1.8674  0.2451
19678SOL    HW263846   4.219   7.525   6.368 -0.3896  1.2636  1.6130
19679SOL     OW63847   1.739  12.505  10.249  0.1258 -0.7722  0.6777
19679SOL    HW163848   1.730  12.411  10.266 -1.5129 -0.3973  2.3882
19679SOL    HW263849   1.826  12.527  10.280  0.6292 -1.7591  0.0102
19680SOL     OW63850   6.819   7.636   9.035  0.2828  0.2843 -0.4072
19680SOL    HW163851   6.806   7.548   9.002  1.8370  0.2357 -0.9528
19680SOL    HW263852   6.751   7.647   9.102  0.8261 -1.7609  0.5440
19681SOL     OW63853   1.905  12.048   6.191 -0.0651 -0.5866 -0.0641
19681SOL    HW163854   1.914  12.020   6.100 -2.7550 -0.1355 -0.5569
19681SOL    HW263855   1.838  11.991   6.228 -0.6706  0.7113  0.9408
19682SOL     OW63856   7.914   8.505   7.729 -0.1926  0.1235  0.4701
19682SOL    HW163857   7.885   8.475   7.815 -1.8486 -0.3868 -0.2276
19682SOL    HW263858   7.872   8.591   7.719 -0.5406 -0.1045 -0.0754
19683SOL     OW63859   8.112   9.273   7.027 -0.1348 -0.1449  0.1499
19683SOL    HW163860   8.060   9.195   7.050  2.2423 -2.1198 -0.6993
19683SOL    HW263861   8.143   9.306   7.111 -1.5801  0.2434  0.5609
19684SOL     OW63862   8.680   9.024   5.924 -0.4590  0.4212  0.4358
19684SOL    HW163863   8.676   8.954   5.989  1.0643  0.2292  0.3425
19684SOL    HW263864   8.754   9.001   5.868 -0.8482  1.3453 -0.4971
19685SOL     OW63865   4.550  11.413   6.157 -0.1035 -0.2024 -0.3908
19685SOL    HW163866   4.509  11.499   6.158  1.2945  0.4808  1.6646
19685SOL    HW263867   4.508  11.368   6.083 -0.3339  2.4518 -1.9710
19686SOL     OW63868   8.558   0.710   2.258 -0.0124  0.3922  0.5406
19686SOL    HW163869   8.649   0.695   2.284  0.1462 -1.1826 -0.7172
19686SOL    HW263870   8.562   0.720   2.163 -1.0741  1.0492  0.5568
19687SOL     OW63871   1.241   2.607   5.289  0.0153 -0.0737  0.3515
19687SOL    HW163872   1.186   2.602   5.210  0.0411 -0.1065  0.3353
19687SOL    HW263873   1.199   2.674   5.343  1.2177  1.5777 -0.6454
19688SOL     OW63874   7.906  11.014   2.085  0.7311 -0.0837 -0.6693
19688SOL    HW163875   7.814  10.995   2.067  0.9142 -0.9387 -0.7250
19688SOL    HW263876   7.907  11.107   2.108 -0.2391 -0.2124 -0.0457
19689SOL     OW63877   8.918   5.623   1.712  0.4282  0.0682 -0.2405
19689SOL    HW163878   8.860   5.575   1.654  0.5416 -0.5036  0.1063
19689SOL    HW263879   8.904   5.583   1.798  0.5756  0.6154  0.0402
19690SOL     OW63880   8.018   2.286  11.721  0.0629  0.3623  0.1223
19690SOL    HW163881   8.107   2.317  11.704 -0.0053 -0.5670 -2.2182
19690SOL    HW263882   7.995   2.234  11.645 -1.7495 -1.1597  1.6004
19691SOL     OW63883   1.927   3.409  10.478  0.4967 -0.2266  0.9399
19691SOL    HW163884   1.948   3.439  10.389  0.6340 -0.2665  0.9585
19691SOL    HW263885   1.995   3.448  10.533  1.3860 -1.5306  0.8013
19692SOL     OW63886   4.814   0.956   4.434 -0.1227  0.1882  0.1097
19692SOL    HW163887   4.724   0.931   4.413  0.9117 -1.8516 -2.3752
19692SOL    HW263888   4.847   0.884   4.487  0.1644  0.8062  0.7857
19693SOL     OW63889   3.329   7.306   5.118  0.5623  0.0204  0.4240
19693SOL    HW163890   3.420   7.319   5.147  0.9034 -1.5265  0.1477
19693SOL    HW263891   3.288   7.257   5.190  0.4006 -0.6500 -0.1121
19694SOL     OW63892   3.703   7.462   7.484  0.1249  0.4927 -0.5066
19694SOL    HW163893   3.798   7.469   7.492  0.2416 -1.0078 -0.3186
19694SOL    HW263894   3.671   7.459   7.575  0.0306 -0.4100 -0.5644
19695SOL     OW63895   6.155   3.552  10.211 -0.1003 -0.1217 -0.2454
19695SOL    HW163896   6.111   3.467  10.219  0.3677 -0.3468  0.0184
19695SOL    HW263897   6.229   3.546  10.272 -0.7199  0.9001  0.6422
19696SOL     OW63898   5.413   7.203   1.594 -0.1485 -0.3181  0.0857
19696SOL    HW163899   5.428   7.179   1.503  0.4341  0.6837 -0.0932
19696SOL    HW263900   5.386   7.295   1.590  1.8907  0.3793  1.0577
19697SOL     OW63901  12.236   3.975   7.757  0.4987 -0.3747  0.2627
19697SOL    HW163902  12.176   4.010   7.822  1.4940  3.4008 -0.6190
19697SOL    HW263903  12.321   3.974   7.801  0.7222 -0.4073 -0.1642
19698SOL     OW63904   8.764   9.653   2.005 -0.3484  0.1752 -0.3043
19698SOL    HW163905   8.672   9.664   1.982 -0.3956  0.6989  0.1175
19698SOL    HW263906   8.766   9.657   2.100  0.1212  0.2341 -0.3138
19699SOL     OW63907   2.320   5.246   3.455  0.2151  0.3053  0.7844
19699SOL    HW163908   2.388   5.253   3.388  0.0125  1.9639  0.7095
19699SOL    HW263909   2.344   5.168   3.505  1.7141  0.3837  0.2484
19700SOL     OW63910   2.180   0.564  11.137 -0.1216  0.2468 -0.4934
19700SOL    HW163911   2.124   0.587  11.063 -1.0224  0.3453  0.2117
19700SOL    HW263912   2.195   0.470  11.127 -0.0624  0.2949 -0.9063
19701SOL     OW63913   9.786   5.273   6.609  0.3218 -0.3760  0.7474
19701SOL    HW163914   9.698   5.306   6.590  0.2631 -1.6250 -1.5146
19701SOL    HW263915   9.840   5.303   6.535  1.7174 -0.0492  1.8434
19702SOL     OW63916   6.099   2.316   9.358  0.5414 -0.3856  0.9833
19702SOL    HW163917   6.188   2.311   9.321  0.5224  0.1614  0.8602
19702SOL    HW263918   6.102   2.390   9.418 -0.1077  0.2811  0.2131
19703SOL     OW63919   4.696   2.678   6.331  0.0916  0.3958  0.5677
19703SOL    HW163920   4.777   2.635   6.359  0.1349 -0.4812 -0.7975
19703SOL    HW263921   4.657   2.712   6.411  1.2632 -0.1333  1.3831
19704SOL     OW63922   5.341   8.810   5.448  0.2575  0.0357 -0.0796
19704SOL    HW163923   5.352   8.718   5.425  1.8549 -0.0220  0.7629
19704SOL    HW263924   5.262   8.837   5.403  0.2081 -1.5384 -0.9932
19705SOL     OW63925   5.762  10.520   8.983 -0.4203 -0.0271  0.0694
19705SOL    HW163926   5.725  10.539   9.070 -2.4140  1.0521 -0.9457
19705SOL    HW263927   5.847  10.565   8.983 -0.2262 -0.3414  1.5579
19706SOL     OW63928   2.647  11.461   6.043 -0.1287  0.3803 -0.1470
19706SOL    HW163929   2.624  11.546   6.080  0.8532  0.3574  0.5471
19706SOL    HW263930   2.577  11.402   6.074 -2.4041  1.3842 -2.8766
19707SOL     OW63931  10.649  11.409   5.138  0.2180  0.0730 -0.5183
19707SOL    HW163932  10.623  11.462   5.213 -1.3285 -1.3570  0.0396
19707SOL    HW263933  10.743  11.423   5.129 -0.1333  2.9621 -0.5012
19708SOL     OW63934   6.532   3.876   2.619 -0.2369 -0.6497 -0.0322
19708SOL    HW163935   6.544   3.917   2.705  0.8652  0.0294 -0.4814
19708SOL    HW263936   6.621   3.853   2.591 -0.3349  0.8381 -1.7832
19709SOL     OW63937   1.053   5.584   0.108 -0.5537  0.2633 -0.5699
19709SOL    HW163938   1.112   5.508   0.105 -0.6068  0.1837  0.2057
19709SOL    HW263939   0.989   5.568   0.039 -0.2598 -0.1447 -0.7511
19710SOL     OW63940  10.154   1.912   4.535 -0.3615 -0.1232  0.2396
19710SOL    HW163941  10.087   1.925   4.603 -1.1124  0.1248 -0.5313
19710SOL    HW263942  10.113   1.851   4.473 -0.3795  1.0457 -0.9220
19711SOL     OW63943   8.088  10.888   1.170 -0.8527 -0.1945  0.2114
19711SOL    HW163944   8.032  10.811   1.170  0.0685 -0.9086  1.5268
19711SOL    HW263945   8.171  10.857   1.206  0.3428  0.8730 -1.4418
19712SOL     OW63946  12.542   3.480   3.489 -0.5868 -0.3017  0.5171
19712SOL    HW163947  12.610   3.424   3.527  0.7018 -1.9606 -3.6844
19712SOL    HW263948  12.577   3.569   3.498 -0.3146 -0.5814  2.8589
19713SOL     OW63949   8.696   5.906   6.766  0.5371 -0.0465 -0.0333
19713SOL    HW163950   8.620   5.925   6.821  0.2204 -1.5006  0.0756
19713SOL    HW263951   8.762   5.874   6.827  0.3537 -1.1975 -0.4205
19714SOL     OW63952   2.548   8.818   0.790  0.0445 -0.5417 -0.5036
19714SOL    HW163953   2.481   8.886   0.778 -0.0800 -0.9094 -2.2830
19714SOL    HW263954   2.512   8.761   0.858 -0.7487  0.1025 -0.3542
19715SOL     OW63955   7.305   5.397   9.606  0.0043  0.0171  0.1528
19715SOL    HW163956   7.363   5.325   9.583  0.3023  0.3215 -0.0325
19715SOL    HW263957   7.224   5.353   9.635  0.0561 -0.3833 -0.2978
19716SOL     OW63958  12.317  11.685   7.801  0.1344  0.4064  0.0522
19716SOL    HW163959  12.374  11.760   7.788  0.0373  0.7011  1.2284
19716SOL    HW263960  12.231  11.715   7.771  0.4058  0.2513 -0.8993
19717SOL     OW63961   3.625   1.938   5.514  0.4561 -0.1366  0.7212
19717SOL    HW163962   3.657   1.848   5.513 -0.0756 -0.3474  1.4329
19717SOL    HW263963   3.704   1.992   5.516  0.7879 -0.5615 -0.2120
19718SOL     OW63964   9.538   8.356   1.495 -0.0248  0.5203  0.2531
19718SOL    HW163965   9.551   8.437   1.545  2.8320  0.7687 -0.7387
19718SOL    HW263966   9.444   8.357   1.474 -0.3673  2.8426  1.4582
19719SOL     OW63967   0.762  11.080   4.757 -0.7555  0.0226  0.1777
19719SOL    HW163968   0.848  11.105   4.790 -0.7992  1.1877 -0.5769
19719SOL    HW263969   0.700  11.115   4.821 -0.7015 -0.4141  0.4749
19720SOL     OW63970  10.300   6.986   5.367  0.0479  0.0568  0.1714
19720SOL    HW163971  10.247   7.060   5.395  1.1140  0.9510 -0.1120
19720SOL    HW263972  10.278   6.916   5.428  0.0516  1.0249  1.3028
19721SOL     OW63973  11.938   7.090   0.521  0.5958 -0.2407 -0.5496
19721SOL    HW163974  11.878   7.157   0.555  0.4682 -1.1249  1.0736
19721SOL    HW263975  12.000   7.139   0.467 -1.0174  0.8250 -1.5343
19722SOL     OW63976   6.916   4.983   9.536 -0.2912 -0.5102 -0.2612
19722SOL    HW163977   6.895   4.890   9.529 -0.5509 -0.3955 -1.1280
19722SOL    HW263978   6.866   5.024   9.466 -0.6801  0.3724  0.5112
19723SOL     OW63979   9.887   5.662   3.118 -0.1851 -0.1189  0.2556
19723SOL    HW163980   9.871   5.699   3.031 -0.8089 -0.6033  0.1556
19723SOL    HW263981   9.978   5.633   3.116 -0.4380 -0.8900 -0.5217
19724SOL     OW63982   9.872   7.914  12.381  0.4677 -0.1448 -0.2467
19724SOL    HW163983   9.968   7.910  12.379  0.4214 -1.8536 -0.9912
19724SOL    HW263984   9.847   7.840  12.437 -0.4637 -2.8516 -3.8583
19725SOL     OW63985   0.510   5.994  12.617  0.7037  0.1775 -0.0137
19725SOL    HW163986   0.507   6.089  12.622 -0.2064  0.1253  0.6103
19725SOL    HW263987   0.495   5.975  12.524 -0.4917  0.6031  0.0790
19726SOL     OW63988   1.798   0.475  10.750  0.4682  0.2208 -0.0783
19726SOL    HW163989   1.870   0.415  10.731  0.7466  0.7522 -0.7144
19726SOL    HW263990   1.727   0.418  10.781  1.4099 -0.2355  1.3696
19727SOL     OW63991   0.433   2.705   5.593  0.1863 -0.6621 -0.0152
19727SOL    HW163992   0.522   2.671   5.604  1.5625  3.1196  2.1160
19727SOL    HW263993   0.380   2.651   5.651  1.8706 -0.5242  1.7366
19728SOL     OW63994   6.056  11.657   0.045  0.0179  0.0893  0.1134
19728SOL    HW163995   6.082  11.579   0.093  0.5927  0.2561  0.0848
19728SOL    HW263996   5.987  11.697   0.098  0.3977  0.0812  0.6166
19729SOL     OW63997   3.208   7.010   4.657 -0.1441  0.3760 -0.2047
19729SOL    HW163998   3.122   7.025   4.696  0.0337 -0.8738  0.7601
19729SOL    HW263999   3.191   6.951   4.583 -0.4780  2.7240 -2.1411
19730SOL     OW64000   9.150   8.977   8.061  0.2355 -0.4962  0.1022
19730SOL    HW164001   9.228   9.003   8.012  0.1614 -0.1492  0.1653
19730SOL    HW264002   9.144   9.040   8.133  0.5538 -1.2264  0.7787
19731SOL     OW64003  10.555   4.391   2.510 -0.0640 -0.7650 -0.5258
19731SOL    HW164004  10.562   4.481   2.541 -0.8241 -0.1227 -2.1218
19731SOL    HW264005  10.525   4.341   2.586  0.0710  0.3707  0.2886
19732SOL     OW64006  10.331   1.334  10.658  0.2674  0.3407  0.3229
19732SOL    HW164007  10.308   1.360  10.569 -0.5456  1.1582  0.7540
19732SOL    HW264008  10.337   1.416  10.707 -1.0772 -0.1612  1.4162
19733SOL     OW64009   9.410   5.069   4.768  0.2489 -0.4162 -0.8415
19733SOL    HW164010   9.335   5.009   4.766  0.5423 -0.8240 -0.1416
19733SOL    HW264011   9.403   5.120   4.688 -0.7532 -0.4856 -0.8062
19734SOL     OW64012   6.292   1.708  10.001 -0.0330 -0.2627 -0.1857
19734SOL    HW164013   6.198   1.688  10.001  0.2396 -1.6660 -0.4520
19734SOL    HW264014   6.301   1.780  10.063 -1.2303 -0.3887  0.1645
19735SOL     OW64015  11.202   5.916  11.674  0.0365 -0.4084  0.0574
19735SOL    HW164016  11.240   5.947  11.592 -0.8719 -1.5341 -0.8236
19735SOL    HW264017  11.188   5.823  11.660  2.3470 -1.2433  2.4791
19736SOL     OW64018   1.213   4.298   3.445  0.0311  0.2708  0.1071
19736SOL    HW164019   1.260   4.381   3.456  0.8519 -0.4479  2.7597
19736SOL    HW264020   1.123   4.317   3.473 -0.6979  0.9957 -2.4597
19737SOL     OW64021   5.056   4.988   2.224  0.3162 -0.3209  0.3284
19737SOL    HW164022   5.131   5.038   2.193  0.4810 -0.1009  1.0612
19737SOL    HW264023   5.093   4.926   2.288 -0.4303  1.6463  2.8116
19738SOL     OW64024   7.818   6.249   7.119 -0.4054 -0.8758  0.0449
19738SOL    HW164025   7.856   6.206   7.042  0.1608 -0.4572  0.0889
19738SOL    HW264026   7.746   6.301   7.084 -0.6833 -1.3394 -0.0914
19739SOL     OW64027   8.846   2.520   7.099 -0.6106  0.1780 -0.1140
19739SOL    HW164028   8.771   2.501   7.042 -0.3213  2.1609 -1.2331
19739SOL    HW264029   8.897   2.439   7.098 -1.0667 -0.1503 -1.9990
19740SOL     OW64030   2.265   3.981   5.486  0.0839 -0.3791 -0.0499
19740SOL    HW164031   2.354   3.953   5.508  0.8149  1.1975 -0.8304
19740SOL    HW264032   2.277   4.051   5.423 -1.6473  1.0356  1.0925
19741SOL     OW64033   3.904   9.821   8.670 -0.0431 -0.4510  0.1878
19741SOL    HW164034   3.980   9.772   8.638  0.0816 -0.0881 -0.0791
19741SOL    HW264035   3.833   9.798   8.610 -0.2274 -1.0289  0.6203
19742SOL     OW64036   3.290   8.870   7.138  0.7225  0.0119  0.5386
19742SOL    HW164037   3.324   8.894   7.225 -2.4369  0.8340  1.6655
19742SOL    HW264038   3.316   8.943   7.081  0.0468  1.1098  1.5843
19743SOL     OW64039   7.033   6.282  11.991  0.0322 -0.1737 -0.5766
19743SOL    HW164040   7.004   6.299  12.080 -0.8018 -0.8235 -0.7135
19743SOL    HW264041   7.129   6.292  11.995 -0.0474  0.3731  0.2474
19744SOL     OW64042  12.637   0.221   7.531 -0.0563 -0.6416  0.0360
19744SOL    HW164043  12.687   0.282   7.585  0.0561 -1.1707  0.5418
19744SOL    HW264044  12.558   0.202   7.581 -1.1766  0.7689 -1.0884
19745SOL     OW64045   1.269   0.236  10.467  0.2456 -0.3152 -0.1511
19745SOL    HW164046   1.282   0.315  10.520  1.5525 -1.6597  1.6871
19745SOL    HW264047   1.212   0.181  10.521  0.3062 -1.0865 -0.8611
19746SOL     OW64048   2.264   4.262   3.054  0.1807 -0.0767  0.0603
19746SOL    HW164049   2.352   4.259   3.017 -0.0282 -1.7257 -0.3475
19746SOL    HW264050   2.269   4.209   3.133 -0.1056  1.0500  0.8737
19747SOL     OW64051  11.733   7.189   3.623 -0.0069 -0.9707  0.7258
19747SOL    HW164052  11.822   7.190   3.658  0.1917  0.3403  0.2272
19747SOL    HW264053  11.733   7.120   3.558  1.1029  0.0012 -0.3559
19748SOL     OW64054   8.945   4.329   1.290  0.0262  0.4578  0.1776
19748SOL    HW164055   8.924   4.294   1.376  0.1065  0.8222  0.3467
19748SOL    HW264056   8.866   4.378   1.264  0.3194  1.0774  0.4256
19749SOL     OW64057   8.212   1.200   0.926  0.2517  0.1029 -0.0395
19749SOL    HW164058   8.250   1.283   0.896  1.5021 -1.2308 -2.3822
19749SOL    HW264059   8.232   1.138   0.857 -2.0046 -1.8546  0.9231
19750SOL     OW64060   2.532   3.889   5.490 -0.5604  0.2358  0.2700
19750SOL    HW164061   2.606   3.940   5.457 -1.5428  0.9615 -0.9300
19750SOL    HW264062   2.571   3.821   5.545  1.0148  0.3442 -0.6705
19751SOL     OW64063   7.206   9.550   9.160  0.1126 -0.3681  0.7773
19751SOL    HW164064   7.184   9.589   9.245 -2.0247 -0.8075  0.4828
19751SOL    HW264065   7.224   9.625   9.103  1.3101 -0.0634  1.5093
19752SOL     OW64066   6.698   9.579   4.269  0.1989 -0.5915  0.3402
19752SOL    HW164067   6.771   9.552   4.213  0.7442 -0.7829  1.1288
19752SOL    HW264068   6.733   9.651   4.321 -0.5119  0.0310 -0.0263
19753SOL     OW64069   3.372   0.728   7.444 -0.4285 -0.0069  0.0130
19753SOL    HW164070   3.336   0.809   7.406 -1.2442  0.1388  1.0580
19753SOL    HW264071   3.298   0.667   7.445  0.0197 -0.5610 -0.1716
19754SOL     OW64072   3.563   6.954   6.453 -0.4022 -0.3417  0.1113
19754SOL    HW164073   3.566   6.860   6.434  0.5652 -0.8660  2.5100
19754SOL    HW264074   3.477   6.968   6.490 -0.7421 -0.1554 -0.7307
19755SOL     OW64075   2.971  10.188   7.627 -0.4958  0.1395  0.5617
19755SOL    HW164076   3.055  10.162   7.666 -0.8740  1.0808  2.0709
19755SOL    HW264077   2.923  10.106   7.617 -0.1572 -0.1860  1.5525
19756SOL     OW64078  11.066   6.395   1.938 -0.4999  0.5438 -0.7301
19756SOL    HW164079  11.104   6.399   1.850  0.5632 -0.9799 -0.3774
19756SOL    HW264080  11.125   6.337   1.987 -0.3770  2.3022  1.3491
19757SOL     OW64081   2.307   2.285  10.369  0.7454 -0.2120 -0.3597
19757SOL    HW164082   2.272   2.322  10.289 -1.5473  0.6665  0.9667
19757SOL    HW264083   2.364   2.353  10.405 -0.7510  0.7313  0.3228
19758SOL     OW64084   0.128  11.532   0.286  0.7669 -0.2877 -0.5233
19758SOL    HW164085   0.096  11.599   0.226 -0.9916 -1.1437 -0.5856
19758SOL    HW264086   0.223  11.528   0.269  0.3924 -0.2470 -2.9993
19759SOL     OW64087   6.842   2.742  12.099 -0.5897 -0.2033  0.2066
19759SOL    HW164088   6.901   2.817  12.098  0.9326 -1.3693 -1.2165
19759SOL    HW264089   6.755   2.780  12.087 -0.0305  1.4349  1.0150
19760SOL     OW64090   6.130  10.434   1.706 -0.1757  0.3154 -0.2728
19760SOL    HW164091   6.179  10.493   1.649 -0.6759  0.4808 -0.5297
19760SOL    HW264092   6.117  10.483   1.787  0.2022  0.2173 -0.1489
19761SOL     OW64093  10.528   8.107  10.431  0.4463  0.2225 -0.6380
19761SOL    HW164094  10.560   8.022  10.402  1.9017  1.3214 -2.4587
19761SOL    HW264095  10.441   8.115  10.392 -0.6578 -1.2359  1.2983
19762SOL     OW64096  12.466   5.869  10.655  0.2795 -0.3068  0.1065
19762SOL    HW164097  12.477   5.933  10.584  2.6510 -1.0588 -0.2893
19762SOL    HW264098  12.377   5.836  10.644  0.6391 -0.5661 -2.6745
19763SOL     OW64099   1.690   1.680   8.185 -0.6818 -1.0610  0.1880
19763SOL    HW164100   1.633   1.744   8.228 -0.6599 -2.4144  2.3577
19763SOL    HW264101   1.629   1.613   8.154 -0.6500 -0.3202 -1.6160
19764SOL     OW64102   8.674   2.438  12.254  0.1421  0.3101 -0.5519
19764SOL    HW164103   8.624   2.365  12.218  1.9409 -0.7241 -1.1183
19764SOL    HW264104   8.701   2.489  12.177  3.1296 -1.3308 -0.7494
19765SOL     OW64105   5.716   6.283  10.313  0.3144  0.2295  0.3532
19765SOL    HW164106   5.806   6.274  10.344 -0.3501 -0.6283  2.1557
19765SOL    HW264107   5.661   6.254  10.386 -1.4782  1.5341 -0.3804
19766SOL     OW64108   3.889  10.193   0.227 -0.8219  0.0618  0.6196
19766SOL    HW164109   3.887  10.184   0.131  0.6422 -0.2335  0.5975
19766SOL    HW264110   3.927  10.279   0.242  0.8608 -0.6907  0.9134
19767SOL     OW64111   1.160  11.817  11.459  0.2459  0.2347 -0.1814
19767SOL    HW164112   1.124  11.884  11.400 -0.4334 -0.4508 -0.5577
19767SOL    HW264113   1.229  11.775  11.407 -0.3194 -0.3358 -0.4906
19768SOL     OW64114  12.503   6.675   2.172  0.4703  0.2259 -0.2936
19768SOL    HW164115  12.512   6.614   2.099  0.5872 -0.0338 -0.0610
19768SOL    HW264116  12.582   6.729   2.167 -0.1719  1.1334 -1.2069
19769SOL     OW64117   0.743   3.418   9.596 -0.2974  0.3323 -0.2901
19769SOL    HW164118   0.792   3.491   9.558  0.0706  0.1336 -0.2019
19769SOL    HW264119   0.800   3.385   9.665  0.3680 -1.1985 -1.4988
19770SOL     OW64120   1.638   2.934  12.459 -0.7797  0.1727 -0.5797
19770SOL    HW164121   1.615   3.008  12.514  1.5996  0.2751  0.4067
19770SOL    HW264122   1.601   2.858  12.504 -2.7638  0.6293 -1.3158
19771SOL     OW64123   4.690   1.067   5.195  0.3473 -0.0812 -0.7777
19771SOL    HW164124   4.771   1.017   5.188  0.1182 -0.4318 -0.9251
19771SOL    HW264125   4.710   1.151   5.154  1.2559  0.6098  0.9586
19772SOL     OW64126  11.241  12.420   5.672  0.0259 -0.2710 -0.4648
19772SOL    HW164127  11.221  12.432   5.579  0.6595  1.4108 -0.4182
19772SOL    HW264128  11.163  12.453   5.717 -0.6066 -1.8094 -0.3804
19773SOL     OW64129  10.565   7.071  12.350  0.1031  0.0648  0.3583
19773SOL    HW164130  10.527   6.988  12.379 -0.4734  0.1350 -0.1766
19773SOL    HW264131  10.508   7.100  12.279  1.2747  0.0526 -0.6447
19774SOL     OW64132  10.302   1.740   6.641  0.3564 -0.2708  0.5991
19774SOL    HW164133  10.283   1.737   6.735  0.7891 -0.1240  0.6946
19774SOL    HW264134  10.217   1.755   6.599  0.3946  1.4620  1.0768
19775SOL     OW64135  12.089  12.192  10.701 -0.0702  0.5105 -0.3308
19775SOL    HW164136  12.050  12.223  10.619  0.7004  0.0734 -0.8830
19775SOL    HW264137  12.022  12.206  10.767 -1.2336 -0.3674 -1.2717
19776SOL     OW64138   3.224   6.241  12.160  0.5410 -0.0264 -0.3709
19776SOL    HW164139   3.180   6.161  12.190 -0.6310  0.5675 -0.4225
19776SOL    HW264140   3.317   6.222  12.169  0.3241 -1.7328 -1.2487
19777SOL     OW64141   8.840   7.752  11.847  0.4380  0.1930  0.0008
19777SOL    HW164142   8.819   7.779  11.757 -0.2363  1.5806  0.5416
19777SOL    HW264143   8.927   7.714  11.840  0.0659 -0.4939 -1.3740
19778SOL     OW64144   6.039   3.593   8.971  0.1909  0.0762 -0.2289
19778SOL    HW164145   5.949   3.595   8.939 -0.6497  0.7204  2.0210
19778SOL    HW264146   6.036   3.638   9.056  2.6944  0.3866 -0.2246
19779SOL     OW64147   7.944   0.928   2.673  0.2113 -0.3522 -0.4492
19779SOL    HW164148   7.928   0.940   2.766 -1.0235  1.3517 -0.8353
19779SOL    HW264149   8.016   0.987   2.653 -0.0776 -0.0899 -0.7234
19780SOL     OW64150   7.277   1.303   5.432  0.4673  0.3775  0.2845
19780SOL    HW164151   7.260   1.278   5.523  1.1556  0.1643  0.3601
19780SOL    HW264152   7.280   1.399   5.434 -1.4717  0.4861  0.1196
19781SOL     OW64153   7.545   0.181  10.459  0.5618  0.3286 -0.1894
19781SOL    HW164154   7.511   0.251  10.515  1.5754 -1.6280  3.1503
19781SOL    HW264155   7.519   0.207  10.371 -2.8256  2.7460  1.2735
19782SOL     OW64156   8.098  10.520   3.976 -0.6926  0.7862  0.1104
19782SOL    HW164157   8.072  10.444   3.924 -0.2495 -1.7290  3.1880
19782SOL    HW264158   8.194  10.519   3.973 -0.6887  1.8058 -0.5270
19783SOL     OW64159  11.836   1.804  11.936 -0.0649  0.8011 -0.2032
19783SOL    HW164160  11.864   1.791  12.027  1.5536 -0.3785 -0.8191
19783SOL    HW264161  11.845   1.898  11.921  0.4267  0.8979  0.6368
19784SOL     OW64162   4.898   0.772   4.620  0.0445 -0.0123  0.0391
19784SOL    HW164163   4.846   0.692   4.624  0.8737 -0.5603  0.2653
19784SOL    HW264164   4.988   0.742   4.637  0.2843  1.0459  0.7087
19785SOL     OW64165   4.303   1.744   9.328  0.6752  0.1605 -0.7333
19785SOL    HW164166   4.315   1.775   9.417 -1.1434  0.1361 -0.4247
19785SOL    HW264167   4.305   1.648   9.335 -0.0878  0.1482 -0.5968
19786SOL     OW64168   3.262   1.438  11.779 -0.3423 -0.1893  0.1254
19786SOL    HW164169   3.227   1.528  11.776 -0.2469 -0.0850  1.5239
19786SOL    HW264170   3.184   1.383  11.783 -0.3834 -0.1138  0.3663
19787SOL     OW64171  12.298   4.167   8.889  0.3668 -0.0342 -0.2860
19787SOL    HW164172  12.304   4.128   8.976  2.5230 -0.0967 -0.3988
19787SOL    HW264173  12.339   4.253   8.898  0.3462  0.0820 -1.1677
19788SOL     OW64174  11.151   4.930   1.333 -0.3493 -0.0197  0.0812
19788SOL    HW164175  11.059   4.905   1.334 -0.7022  1.1519  2.7284
19788SOL    HW264176  11.186   4.899   1.416  1.7703 -0.6764 -0.9660
19789SOL     OW64177  11.804   6.109   6.297 -0.1880 -0.5235 -0.2640
19789SOL    HW164178  11.803   6.198   6.262  2.3185 -0.7821 -1.1966
19789SOL    HW264179  11.835   6.119   6.387 -2.1740 -0.2870  0.4333
19790SOL     OW64180   8.843   2.782   4.641  0.6484 -0.7248  0.4265
19790SOL    HW164181   8.796   2.743   4.566  1.7309  0.4440 -0.9151
19790SOL    HW264182   8.788   2.856   4.667  0.4530 -0.9145  0.5595
19791SOL     OW64183  10.465  10.699   3.979 -0.6508 -0.3295  0.0879
19791SOL    HW164184  10.423  10.645   3.912 -0.1806 -0.0258 -0.4571
19791SOL    HW264185  10.558  10.684   3.968 -0.5126  0.5476 -0.0379
19792SOL     OW64186   6.021   1.933   6.105 -0.2234  0.2972 -0.1268
19792SOL    HW164187   6.023   1.920   6.010 -1.6951  1.0470 -0.2780
19792SOL    HW264188   5.931   1.913   6.131  0.2352 -0.2188  1.1750
19793SOL     OW64189   6.269   1.084   8.616 -0.0959 -0.0665 -0.4964
19793SOL    HW164190   6.349   1.056   8.573 -0.1421 -0.7435 -0.1539
19793SOL    HW264191   6.264   1.178   8.599  0.3319 -0.1688 -1.2213
19794SOL     OW64192   3.623   4.639   7.921  0.6254  0.1724 -0.6831
19794SOL    HW164193   3.640   4.687   7.840  0.2523 -1.3815 -1.7301
19794SOL    HW264194   3.610   4.548   7.893  0.1410 -0.3494  1.0888
19795SOL     OW64195   6.420   7.363  11.231 -0.1112 -0.0837  0.4595
19795SOL    HW164196   6.412   7.332  11.321  1.2688 -0.5043  0.4612
19795SOL    HW264197   6.403   7.457  11.236  0.0239 -0.0930  1.1795
19796SOL     OW64198   4.696  10.414   7.928  0.4219  0.3777  0.0143
19796SOL    HW164199   4.636  10.469   7.877  0.7717 -1.2884 -2.3429
19796SOL    HW264200   4.753  10.476   7.973  0.5347  1.9891 -2.2051
19797SOL     OW64201   9.036   6.774   5.875  0.3718  0.3906  1.0084
19797SOL    HW164202   8.988   6.717   5.935  0.5297  0.5287  1.2650
19797SOL    HW264203   9.072   6.843   5.930  0.2486  0.6967  0.7120
19798SOL     OW64204   7.407   9.741   4.000  0.1670  0.4709 -0.1268
19798SOL    HW164205   7.362   9.702   4.075 -0.8618  2.0038  0.1048
19798SOL    HW264206   7.466   9.672   3.969 -0.6726 -0.8129  0.9887
19799SOL     OW64207   5.138   7.558   5.337 -0.3472  0.1627 -0.6171
19799SOL    HW164208   5.052   7.595   5.358 -0.2820 -0.1877  0.3105
19799SOL    HW264209   5.200   7.607   5.392  0.1689  0.9609 -1.8555
19800SOL     OW64210  12.231  11.621  11.437  0.9744  0.4176  0.2955
19800SOL    HW164211  12.317  11.661  11.423  1.0903 -0.2704 -1.0673
19800SOL    HW264212  12.249  11.528  11.452  0.4397  0.1507 -0.6483
19801SOL     OW64213   8.337  11.467   4.529  0.4373  0.0126  0.7841
19801SOL    HW164214   8.326  11.422   4.613  2.8750 -1.3672  0.4460
19801SOL    HW264215   8.425  11.503   4.532  0.8632 -0.7103 -1.4726
19802SOL     OW64216   7.530   9.779   9.410  0.5897  0.5543  0.2729
19802SOL    HW164217   7.480   9.700   9.432  0.2789  0.4846 -0.6354
19802SOL    HW264218   7.610   9.772   9.463  0.0865  0.1801  1.0104
19803SOL     OW64219   0.108   9.914  11.803 -0.3706 -0.6618  0.2784
19803SOL    HW164220   0.097   9.895  11.710  2.5243 -2.7211  0.2229
19803SOL    HW264221   0.031   9.874  11.845 -2.2047  1.1228 -1.1996
19804SOL     OW64222   5.218  10.647  11.142  0.8008 -0.5541  0.4190
19804SOL    HW164223   5.174  10.730  11.161  0.8345 -0.8339  1.8276
19804SOL    HW264224   5.298  10.673  11.096 -0.4493  0.0058 -1.5318
19805SOL     OW64225   7.978  10.831   1.841  0.3399  0.3956  0.0963
19805SOL    HW164226   7.945  10.899   1.782 -1.0757  0.4665  0.9108
19805SOL    HW264227   7.995  10.877   1.923  1.7147  0.1873 -0.0517
19806SOL     OW64228   8.264  11.067   9.857 -0.1971  0.1015 -0.4755
19806SOL    HW164229   8.276  11.000   9.790 -0.0640  1.6529 -2.0679
19806SOL    HW264230   8.341  11.124   9.848  0.1246  0.0410  1.4089
19807SOL     OW64231   5.619   4.906   9.512 -0.3396  0.0941  0.2153
19807SOL    HW164232   5.660   4.949   9.586 -0.3221 -0.5824  0.6111
19807SOL    HW264233   5.619   4.972   9.442  0.3905  0.4651  0.5555
19808SOL     OW64234   6.070  12.254   3.109  0.6229  0.0427 -0.6363
19808SOL    HW164235   5.985  12.211   3.098  0.6837  0.0291 -1.0767
19808SOL    HW264236   6.087  12.251   3.203 -0.5705  1.3872 -0.3470
19809SOL     OW64237   3.856   3.924  11.423 -0.0021 -0.7424  0.7838
19809SOL    HW164238   3.915   3.853  11.451 -2.4187 -2.5020  1.8061
19809SOL    HW264239   3.902   4.004  11.446  2.6153 -1.9567  0.1157
19810SOL     OW64240   0.796   6.049   9.808 -0.1523 -0.2780  0.3751
19810SOL    HW164241   0.730   5.988   9.840 -1.3793  0.8370  0.0722
19810SOL    HW264242   0.770   6.134   9.846 -1.8998  1.2188 -3.6084
19811SOL     OW64243   1.113   0.953   6.362  0.7652  0.5220  0.2081
19811SOL    HW164244   1.096   1.035   6.317 -1.6077  0.6346  1.1608
19811SOL    HW264245   1.049   0.951   6.434  1.9407 -1.3341  1.3059
19812SOL     OW64246  10.434   7.971   5.306  0.8088  0.7643 -0.1423
19812SOL    HW164247  10.497   8.018   5.361  1.4097  1.6984 -1.5526
19812SOL    HW264248  10.405   8.037   5.243  0.9747 -0.5238 -1.6100
19813SOL     OW64249  10.350   7.612   0.348 -0.0652  0.1592  0.0992
19813SOL    HW164250  10.283   7.545   0.359 -1.3388  1.5619  1.5059
19813SOL    HW264251  10.418   7.589   0.411  0.5053 -0.9172 -0.8800
19814SOL     OW64252   6.355   2.908   0.448 -0.0257  0.2047  0.3132
19814SOL    HW164253   6.369   2.948   0.533  0.8892 -0.6494  0.5820
19814SOL    HW264254   6.365   2.981   0.385 -0.9805  0.8888  0.9246
19815SOL     OW64255  11.969   8.809   2.182 -0.7377 -0.0582 -0.0186
19815SOL    HW164256  11.920   8.885   2.150  0.3390  0.0120 -1.5960
19815SOL    HW264257  12.047   8.806   2.127 -0.1497 -1.5864  0.8473
19816SOL     OW64258   8.355   1.616  10.263 -0.1038  0.1605  0.8532
19816SOL    HW164259   8.292   1.545  10.272 -0.2623 -0.3264 -2.6409
19816SOL    HW264260   8.319   1.672  10.195  2.2437  0.9709  0.1565
19817SOL     OW64261   0.867  12.022   7.441 -0.5712  0.4188 -0.3651
19817SOL    HW164262   0.938  12.066   7.394  0.1213 -0.2063  0.0695
19817SOL    HW264263   0.872  11.931   7.412 -0.4301  0.1247  0.5564
19818SOL     OW64264   6.423  11.335  11.862  0.0140 -0.3946  0.0274
19818SOL    HW164265   6.454  11.425  11.876 -0.2017 -0.0779 -1.3429
19818SOL    HW264266   6.496  11.291  11.818 -0.2394 -0.5926 -0.2019
19819SOL     OW64267  12.138   1.424   1.329 -0.0844  0.1909  0.1132
19819SOL    HW164268  12.046   1.398   1.326  0.3409 -1.6914  1.3720
19819SOL    HW264269  12.144   1.480   1.406 -0.1772  0.3872 -0.0199
19820SOL     OW64270   9.127   9.753  12.216 -0.0943 -0.1567 -0.0758
19820SOL    HW164271   9.125   9.845  12.242 -0.3915  0.7793 -3.0204
19820SOL    HW264272   9.208   9.744  12.166 -0.0686 -1.5180  0.1739
19821SOL     OW64273   1.253   9.502   8.712  0.0272 -0.1286 -0.2307
19821SOL    HW164274   1.293   9.512   8.626 -0.4887  2.5770 -0.2436
19821SOL    HW264275   1.270   9.411   8.736 -0.2534 -1.1353 -3.3839
19822SOL     OW64276   7.042   5.311   3.361 -0.3150 -0.1248 -0.6837
19822SOL    HW164277   7.094   5.362   3.424  0.0757  0.1378 -1.2114
19822SOL    HW264278   7.081   5.223   3.364 -1.4008 -0.5974  0.7044
19823SOL     OW64279  11.145   0.065   7.280  0.6344  0.1139  0.1320
19823SOL    HW164280  11.133   0.144   7.226  0.1682  0.2673  0.4507
19823SOL    HW264281  11.056   0.029   7.288  0.6940  0.1224  0.8450
19824SOL     OW64282  10.912  12.370  11.049  0.2174 -0.1358  0.0007
19824SOL    HW164283  10.963  12.381  11.128  0.6909 -1.3864 -0.0984
19824SOL    HW264284  10.905  12.275  11.038 -2.5504 -0.0552  0.2702
19825SOL     OW64285   3.172  11.983   8.791  0.1701 -0.2156  0.0761
19825SOL    HW164286   3.119  11.904   8.799 -1.3164  0.7270 -0.0508
19825SOL    HW264287   3.112  12.055   8.812  1.0170  1.0009 -1.4429
19826SOL     OW64288  11.720   8.415   4.685  0.8616  0.4906 -0.4429
19826SOL    HW164289  11.626   8.428   4.693  0.7314 -0.8019  0.4641
19826SOL    HW264290  11.736   8.412   4.591 -0.1149 -0.0232 -0.6045
19827SOL     OW64291   1.489   5.446   9.858 -0.0131  0.3270  0.4592
19827SOL    HW164292   1.570   5.393   9.856  0.2877  0.7821 -1.8966
19827SOL    HW264293   1.419   5.382   9.845  0.2268  0.2813 -0.7044
19828SOL     OW64294   5.779  11.245   3.950 -0.1436  0.0108  0.3785
19828SOL    HW164295   5.835  11.224   3.876 -0.2635 -3.2616  1.0221
19828SOL    HW264296   5.691  11.217   3.922 -0.5968  0.7543  1.0040
19829SOL     OW64297   2.917  12.641   1.605  0.2785 -0.7663  0.3368
19829SOL    HW164298   2.955  12.554   1.616  2.1293  0.0672  0.9356
19829SOL    HW264299   2.954  12.673   1.522 -0.1903 -0.4467  0.2473
19830SOL     OW64300   4.736  10.536   9.601  0.3632  0.0799  0.0649
19830SOL    HW164301   4.677  10.521   9.675 -0.2737  0.2569 -0.3938
19830SOL    HW264302   4.822  10.547   9.641 -0.3146  2.7637  1.0478
19831SOL     OW64303   1.978   5.113   8.078  0.0651 -0.2506  0.1901
19831SOL    HW164304   1.906   5.050   8.079 -0.5770  0.4629  0.0445
19831SOL    HW264305   2.056   5.061   8.055 -0.4832 -0.9463 -0.1273
19832SOL     OW64306  10.258   7.249   6.860 -0.2318 -0.7340 -0.1453
19832SOL    HW164307  10.312   7.226   6.936 -0.8674 -0.4561  0.3951
19832SOL    HW264308  10.180   7.195   6.869  0.5747 -2.2682 -1.7431
19833SOL     OW64309   5.311   4.373   8.667  0.9293 -0.0125 -0.3721
19833SOL    HW164310   5.324   4.290   8.621 -0.2098 -0.2664 -0.2867
19833SOL    HW264311   5.346   4.358   8.755 -0.3751 -0.8492  0.0369
19834SOL     OW64312   8.589   3.673   9.451  0.1504  0.1644 -0.3534
19834SOL    HW164313   8.605   3.711   9.537  2.2155  1.1153 -1.0684
19834SOL    HW264314   8.629   3.586   9.455 -0.6354 -0.1962 -0.0787
19835SOL     OW64315   8.496  10.706   9.542  0.0187 -0.1984 -0.2459
19835SOL    HW164316   8.442  10.656   9.481 -0.2261 -1.0913  0.6871
19835SOL    HW264317   8.567  10.646   9.566  0.1624  0.1789  0.2756
19836SOL     OW64318   5.480   5.216   8.729 -0.1999 -0.1260  0.2868
19836SOL    HW164319   5.565   5.185   8.697 -0.7728 -1.2366 -0.2307
19836SOL    HW264320   5.469   5.302   8.690 -1.0211 -1.5422 -2.9351
19837SOL     OW64321   6.820   3.953   5.870  0.2808 -0.1094 -0.3645
19837SOL    HW164322   6.839   4.005   5.948  0.4064  1.0318 -1.1198
19837SOL    HW264323   6.731   3.921   5.883 -0.4229  1.6380 -0.5578
19838SOL     OW64324   3.079   4.783   7.517 -0.0569  0.2551 -0.5414
19838SOL    HW164325   3.114   4.746   7.436  2.4403  0.1925  0.4981
19838SOL    HW264326   3.119   4.870   7.524  2.0324 -0.7634  1.9137
19839SOL     OW64327   9.437   9.111  10.753 -0.0957  0.3294  1.0076
19839SOL    HW164328   9.374   9.048  10.716  0.6369 -0.3377  0.8621
19839SOL    HW264329   9.513   9.105  10.696  0.2063  0.9281  1.3413
19840SOL     OW64330   0.977   4.095   6.801 -0.1977 -0.4770  0.7289
19840SOL    HW164331   1.025   4.177   6.817 -0.5227 -0.2336  0.4839
19840SOL    HW264332   0.924   4.114   6.723 -0.9526 -0.6296  1.1955
19841SOL     OW64333   4.511   2.507  10.647  0.3458 -0.1237 -0.1401
19841SOL    HW164334   4.515   2.544  10.559  2.0401  0.2944  0.0692
19841SOL    HW264335   4.477   2.419  10.635 -0.0269  0.1464 -1.1236
19842SOL     OW64336   3.117  12.249   4.172 -0.2880 -0.3336  0.0960
19842SOL    HW164337   3.134  12.170   4.121 -0.6791  0.0090 -0.5780
19842SOL    HW264338   3.056  12.221   4.241  0.0882 -0.7540  0.2620
19843SOL     OW64339   5.824   3.621   4.034 -0.5744  0.1008 -0.0523
19843SOL    HW164340   5.729   3.634   4.039 -0.3878  1.3961  0.9118
19843SOL    HW264341   5.860   3.710   4.037  0.7394 -0.4264  2.2851
19844SOL     OW64342   5.016   7.987   6.276 -0.0593 -0.1291  0.1100
19844SOL    HW164343   5.010   8.082   6.269  0.3194 -0.0942  0.1959
19844SOL    HW264344   5.089   7.963   6.219 -0.6188 -0.4502 -0.4793
19845SOL     OW64345  10.631   2.061   6.589  0.3836  0.0934 -1.0318
19845SOL    HW164346  10.554   2.013   6.561 -3.0914  2.4832  3.2040
19845SOL    HW264347  10.683   1.997   6.639 -1.9323 -0.3922  0.9125
19846SOL     OW64348   3.590   0.665   5.923  0.6081 -0.2315 -0.2340
19846SOL    HW164349   3.533   0.661   5.846  1.1667 -0.9823 -0.6151
19846SOL    HW264350   3.618   0.757   5.927 -0.6903  0.1728  0.0157
19847SOL     OW64351   3.114   1.423   8.574  0.2462 -0.3225  0.0697
19847SOL    HW164352   3.046   1.490   8.567 -0.9365 -1.0761  2.7611
19847SOL    HW264353   3.196   1.470   8.557 -0.7236  1.2553 -0.4620
19848SOL     OW64354   4.535   7.143   9.814 -0.2549 -0.5283 -0.7505
19848SOL    HW164355   4.615   7.109   9.853 -0.6400  1.4492  2.0214
19848SOL    HW264356   4.558   7.230   9.782 -0.4084 -1.4235 -3.5616
19849SOL     OW64357  11.233   4.919   8.370  0.6083  0.4092  0.0036
19849SOL    HW164358  11.255   4.843   8.423 -0.3041  0.6842  0.7962
19849SOL    HW264359  11.279   4.904   8.287  2.5280  0.2368  1.0299
19850SOL     OW64360  11.503  10.992   1.602  0.1652  0.3708  0.0164
19850SOL    HW164361  11.566  11.049   1.559  1.2719 -0.4918  0.4260
19850SOL    HW264362  11.557  10.930   1.652 -1.0362  1.1038  2.3813
19851SOL     OW64363   2.643   5.029   1.374 -0.3884  0.4599 -0.0738
19851SOL    HW164364   2.664   4.956   1.316 -1.0246 -0.6459  1.0449
19851SOL    HW264365   2.717   5.089   1.365  0.8136 -0.9672  0.0189
19852SOL     OW64366   6.249   7.987   7.895 -0.4015 -0.5383  0.2413
19852SOL    HW164367   6.169   7.942   7.867 -0.8842  1.1169 -1.1995
19852SOL    HW264368   6.223   8.038   7.971 -1.0764  0.9283 -0.9245
19853SOL     OW64369   7.827   6.839   8.809 -0.2233  0.7393 -0.0775
19853SOL    HW164370   7.739   6.827   8.845 -0.7433 -0.2148 -1.5584
19853SOL    HW264371   7.873   6.757   8.828 -0.3905  0.3632 -1.2181
19854SOL     OW64372   4.566   7.633   9.546  0.1293 -0.0814 -0.0350
19854SOL    HW164373   4.643   7.670   9.503 -0.9569  1.6493 -0.5892
19854SOL    HW264374   4.590   7.629   9.638  1.2341 -0.5514 -0.3234
19855SOL     OW64375   4.922  10.800   1.567  0.5002 -0.4925  0.1322
19855SOL    HW164376   4.906  10.741   1.641  0.7129  0.8583  1.3200
19855SOL    HW264377   4.836  10.838   1.548  0.8301  0.9467  1.3242
19856SOL     OW64378   9.159   5.374   9.535 -0.4892 -0.2622  0.3368
19856SOL    HW164379   9.181   5.362   9.628  2.2263  2.3258  0.1452
19856SOL    HW264380   9.081   5.430   9.536 -0.0080  0.4121  1.0667
19857SOL     OW64381   1.122   1.823   2.039 -0.3440  0.1726  0.5684
19857SOL    HW164382   1.079   1.743   2.008 -1.7695  1.0169  0.2962
19857SOL    HW264383   1.193   1.791   2.095  1.4994 -1.3969 -2.3563
19858SOL     OW64384   9.805  11.605   1.576  0.4545  0.0042 -0.0198
19858SOL    HW164385   9.894  11.639   1.591  1.1587 -0.9795 -1.6319
19858SOL    HW264386   9.799  11.528   1.632  0.0878  0.8300  1.1150
19859SOL     OW64387   0.529   2.748   8.417 -0.1068 -0.0586  0.6263
19859SOL    HW164388   0.497   2.837   8.400  1.5331  0.6793  1.1915
19859SOL    HW264389   0.508   2.700   8.337 -0.4523  0.9970  0.0533
19860SOL     OW64390   7.917   4.972   1.819 -0.0535 -0.7936  0.1597
19860SOL    HW164391   7.952   5.030   1.752  1.6318 -1.5964  0.3036
19860SOL    HW264392   7.904   4.888   1.774 -2.4488 -0.3896 -0.0426
19861SOL     OW64393   5.314  10.748  11.972  0.2729  0.1214  0.1383
19861SOL    HW164394   5.224  10.725  11.996  0.1546  1.5165  1.2051
19861SOL    HW264395   5.337  10.688  11.902 -1.0200 -1.1490  0.7590
19862SOL     OW64396   9.859   1.002   8.884  0.3440  0.0013 -0.0523
19862SOL    HW164397   9.943   1.044   8.900  0.7078 -1.1183  1.2009
19862SOL    HW264398   9.798   1.074   8.871  1.1502  0.8813  0.9009
19863SOL     OW64399   6.911  11.887   5.542  0.1367 -0.4088  0.3699
19863SOL    HW164400   6.973  11.912   5.474 -0.2558 -0.0191  0.1480
19863SOL    HW264401   6.959  11.825   5.597  0.4350 -0.7928 -0.3057
19864SOL     OW64402   6.976   3.808  10.949  0.2131 -0.4375 -0.3871
19864SOL    HW164403   7.049   3.782  10.892  0.2824 -0.8140 -0.1336
19864SOL    HW264404   6.912   3.737  10.940 -0.0927 -0.1387 -0.5585
19865SOL     OW64405   7.413   8.999   8.804 -0.1054  0.0071  0.0981
19865SOL    HW164406   7.339   8.987   8.863 -1.5751 -0.3240 -1.6991
19865SOL    HW264407   7.470   9.062   8.848 -1.8584  0.8787  1.1997
19866SOL     OW64408   8.586  10.288   1.957  0.6495  0.2348  0.3061
19866SOL    HW164409   8.641  10.366   1.957 -0.8607  1.3294 -0.3256
19866SOL    HW264410   8.633  10.226   2.014  1.5301  1.8202  1.3729
19867SOL     OW64411   8.336   1.275   4.791 -0.0078  0.2624 -0.2990
19867SOL    HW164412   8.355   1.366   4.813  1.2292 -0.0881  0.2189
19867SOL    HW264413   8.360   1.266   4.699  0.6000  0.2910 -0.1491
19868SOL     OW64414   1.033   1.945  10.291  0.2082 -0.1404  0.3127
19868SOL    HW164415   1.082   1.917  10.368  0.5260  0.3420  0.2854
19868SOL    HW264416   1.100   1.964  10.225 -0.0201  0.3428  0.2145
19869SOL     OW64417   3.838   4.553  12.347 -0.3129  0.0651  0.3818
19869SOL    HW164418   3.852   4.468  12.306 -0.8046  0.4664 -0.6370
19869SOL    HW264419   3.851   4.617  12.277 -0.6192  0.7969  0.9715
19870SOL     OW64420   3.338  12.248   9.859  0.0658 -0.1518  0.5483
19870SOL    HW164421   3.328  12.328   9.911 -1.5932  0.4476 -0.6043
19870SOL    HW264422   3.319  12.275   9.769 -0.1329 -1.7695  0.0744
19871SOL     OW64423   4.794  11.675   6.812 -0.1365  0.2175  0.6148
19871SOL    HW164424   4.868  11.713   6.765  0.4387  0.1507  1.4572
19871SOL    HW264425   4.823  11.668   6.902 -1.2998  0.5247  1.0338
19872SOL     OW64426   5.051   6.712  11.096  0.2327 -0.5465 -0.2511
19872SOL    HW164427   5.044   6.620  11.124 -0.6809 -0.2685  0.4643
19872SOL    HW264428   4.961   6.742  11.090  0.5059  0.1199 -1.1624
19873SOL     OW64429   6.303   7.518  12.590 -0.3154 -0.1995 -0.2720
19873SOL    HW164430   6.364   7.508  12.664  1.0539  1.5515 -1.0853
19873SOL    HW264431   6.262   7.604  12.605 -1.1666 -0.5200 -0.7427
19874SOL     OW64432   0.792   7.851   0.890 -0.9202  0.3599 -0.2159
19874SOL    HW164433   0.713   7.892   0.925 -0.4895  0.8114  0.2464
19874SOL    HW264434   0.761   7.772   0.847 -1.3844 -0.8331  2.1246
19875SOL     OW64435  11.086  12.321   8.672  0.6487 -0.3758  0.1513
19875SOL    HW164436  10.998  12.309   8.707  1.3108 -0.4552  1.8817
19875SOL    HW264437  11.073  12.342   8.580 -1.2343  0.5209  0.5803
19876SOL     OW64438   4.571   7.405   1.531  0.3411  0.1514 -0.6324
19876SOL    HW164439   4.575   7.453   1.613 -0.6563 -1.2327  0.2725
19876SOL    HW264440   4.531   7.321   1.554  2.0991 -1.1903 -2.1097
19877SOL     OW64441   5.758   3.897   4.194  0.0827  0.2750 -0.3128
19877SOL    HW164442   5.692   3.900   4.264 -0.6072 -1.0510 -0.8841
19877SOL    HW264443   5.731   3.965   4.133 -0.5857 -0.0522 -0.3877
19878SOL     OW64444   5.122   8.026   1.505  0.1384  0.0963  0.3986
19878SOL    HW164445   5.177   7.988   1.436  0.0241 -0.3942  0.5700
19878SOL    HW264446   5.133   7.967   1.579 -0.8901 -0.2043  0.3259
19879SOL     OW64447   0.359   8.883   5.452 -0.1570 -0.0832 -0.4963
19879SOL    HW164448   0.381   8.879   5.359  1.1995 -0.8084 -0.1739
19879SOL    HW264449   0.411   8.813   5.491 -3.6252 -2.4725  0.2737
19880SOL     OW64450   1.773   7.664  12.391 -0.3825 -0.1562  0.3385
19880SOL    HW164451   1.700   7.634  12.336 -2.1433 -0.1028  2.5103
19880SOL    HW264452   1.805   7.743  12.347 -2.0251  0.1513 -0.4030
19881SOL     OW64453   6.857   1.009  12.288 -0.2893 -0.1657  0.0345
19881SOL    HW164454   6.826   0.953  12.359  0.6176 -1.4105 -0.5131
19881SOL    HW264455   6.926   1.062  12.327  0.1737 -0.8145  0.1096
19882SOL     OW64456   3.063   6.082   9.479 -0.4351 -0.0196  0.4954
19882SOL    HW164457   3.058   6.026   9.401 -0.5739  0.3115  0.2647
19882SOL    HW264458   3.156   6.094   9.495 -0.3475 -1.8822  1.6837
19883SOL     OW64459   0.655   1.857   3.798  0.2751  0.1702  0.7761
19883SOL    HW164460   0.737   1.901   3.776 -0.7480  1.7763 -0.0693
19883SOL    HW264461   0.606   1.922   3.849 -1.6358  0.4056 -1.2121
19884SOL     OW64462   7.977   4.455   9.758  0.3219 -0.4228  0.1139
19884SOL    HW164463   8.002   4.533   9.709  0.3265  0.1112  0.9442
19884SOL    HW264464   7.939   4.489   9.839 -1.1572 -1.2458 -0.1923
19885SOL     OW64465   4.882   4.441   0.060  0.0607 -0.1495 -0.4164
19885SOL    HW164466   4.875   4.528   0.021 -0.6010 -0.1699 -0.3487
19885SOL    HW264467   4.972   4.414   0.041  0.6060  0.9683  0.4537
19886SOL     OW64468  11.156   6.232   6.032  0.2782 -0.1577 -0.4221
19886SOL    HW164469  11.138   6.152   5.983  1.3727 -1.1516  0.7508
19886SOL    HW264470  11.120   6.216   6.119  1.8781 -0.0213  0.3020
19887SOL     OW64471   3.151   8.133   0.949  0.1347 -0.2762  0.0625
19887SOL    HW164472   3.067   8.088   0.959  0.1734 -0.3225  0.1701
19887SOL    HW264473   3.127   8.225   0.935  0.0895 -0.1521  0.8811
19888SOL     OW64474   6.477   2.135   9.479 -0.0428 -0.2614  0.5052
19888SOL    HW164475   6.456   2.228   9.494 -2.5162 -0.7791  0.7044
19888SOL    HW264476   6.515   2.106   9.562 -0.1287  0.3628  0.7710
19889SOL     OW64477   8.042   3.379   6.887 -0.0584  0.2395  0.0177
19889SOL    HW164478   8.107   3.367   6.956  0.4824  1.1820 -0.3067
19889SOL    HW264479   8.005   3.466   6.903 -0.0604  0.3928 -0.7500
19890SOL     OW64480   1.878   2.899   0.707 -0.1767  0.0587  0.1907
19890SOL    HW164481   1.870   2.808   0.738 -1.2892 -0.0407 -0.3446
19890SOL    HW264482   1.967   2.905   0.673 -0.3412 -1.0665 -0.4832
19891SOL     OW64483   9.276  10.626  12.633  0.3400  0.5084 -0.8367
19891SOL    HW164484   9.333  10.672  12.694  1.7746 -0.6833 -1.2327
19891SOL    HW264485   9.270  10.537  12.668 -0.8473  0.4663 -1.1052
19892SOL     OW64486  11.212   7.090   0.486 -0.5968 -0.0228  0.1184
19892SOL    HW164487  11.244   7.026   0.550 -0.3016  1.5994  1.6514
19892SOL    HW264488  11.175   7.160   0.539  1.7638  2.5328 -1.3748
19893SOL     OW64489   0.470   9.970  10.920  0.4315 -0.1188 -0.1749
19893SOL    HW164490   0.541   9.922  10.878  0.2873 -0.0760 -0.4687
19893SOL    HW264491   0.493  10.062  10.908  0.3803 -0.1061 -0.1770
19894SOL     OW64492  12.597   5.055   5.027 -0.0333  0.5256 -0.1307
19894SOL    HW164493  12.661   5.119   4.995  0.8592  0.0511  0.6602
19894SOL    HW264494  12.608   5.054   5.122 -1.0053  0.2034 -0.0093
19895SOL     OW64495   8.109   0.611   2.942  0.2800  0.6520  0.0706
19895SOL    HW164496   8.134   0.570   3.025 -1.1951 -0.2789  0.0902
19895SOL    HW264497   8.151   0.697   2.945  1.0503  0.2755  1.3443
19896SOL     OW64498   1.450  11.757  12.454 -0.2196 -0.1053 -1.0557
19896SOL    HW164499   1.476  11.805  12.375  2.3635  0.0137 -0.2144
19896SOL    HW264500   1.487  11.669  12.443  2.1283  0.5224  0.8697
19897SOL     OW64501   2.815   4.067   5.195 -0.0833 -0.1939 -0.0178
19897SOL    HW164502   2.903   4.033   5.204 -0.0843 -0.1706  0.0762
19897SOL    HW264503   2.766   3.997   5.152  0.0730 -0.0613 -0.4229
19898SOL     OW64504   3.088   2.048  10.231  0.2552  0.0167 -0.3584
19898SOL    HW164505   3.082   1.974  10.170 -0.4638 -1.4397  1.3889
19898SOL    HW264506   3.013   2.103  10.208 -0.7708 -1.1754 -0.0346
19899SOL     OW64507   8.924  11.301  11.429  0.4447  0.0739 -0.0704
19899SOL    HW164508   8.985  11.313  11.503  1.0525 -0.0071 -0.5543
19899SOL    HW264509   8.858  11.370  11.442  1.2351  0.8644 -0.1326
19900SOL     OW64510   7.724   0.203   3.848 -0.1083 -0.0815 -0.1458
19900SOL    HW164511   7.807   0.235   3.883 -1.0985  0.9807  1.3692
19900SOL    HW264512   7.706   0.123   3.897  0.7922 -1.2860 -1.6729
19901SOL     OW64513   4.277  11.601   2.587  0.2003 -0.2597 -0.0196
19901SOL    HW164514   4.231  11.517   2.593  0.7798 -0.5779  0.0870
19901SOL    HW264515   4.346  11.586   2.522 -1.3622  0.9443 -2.0624
19902SOL     OW64516   7.639   0.032   5.523  0.8745  0.4280 -0.2236
19902SOL    HW164517   7.602  -0.052   5.495 -1.3957  1.6092 -1.0763
19902SOL    HW264518   7.669   0.073   5.442 -0.2329  1.3959 -0.1665
19903SOL     OW64519   9.612   9.107   8.151 -0.4261  0.2904 -0.0598
19903SOL    HW164520   9.706   9.101   8.134 -0.3197  0.8524  0.2709
19903SOL    HW264521   9.600   9.062   8.235 -0.8431 -1.8975 -1.2394
19904SOL     OW64522   4.324   6.231   1.743 -0.0869  0.0660 -0.0494
19904SOL    HW164523   4.301   6.263   1.830  0.6681 -0.7694  0.4868
19904SOL    HW264524   4.272   6.151   1.733  0.8320 -0.5825  0.2203
19905SOL     OW64525   7.243   6.077   4.351 -0.4766 -0.0083 -0.2853
19905SOL    HW164526   7.317   6.128   4.318  0.3901 -1.2287 -0.2999
19905SOL    HW264527   7.201   6.134   4.416  0.6583  0.5949 -0.0669
19906SOL     OW64528   7.962   6.458  12.054  0.0084 -0.8095 -0.1616
19906SOL    HW164529   7.894   6.417  12.001  0.2881  0.3380 -1.4676
19906SOL    HW264530   7.950   6.552  12.040  0.6264 -0.5191  1.1630
19907SOL     OW64531   5.629   2.660   3.790 -0.1786  0.4979  0.3882
19907SOL    HW164532   5.547   2.709   3.791  0.0038  0.8214  0.0867
19907SOL    HW264533   5.696   2.727   3.772  0.4604  0.6895  3.0593
19908SOL     OW64534   1.620   8.275   8.557 -0.1196 -0.6449 -0.4170
19908SOL    HW164535   1.638   8.189   8.593 -1.8207 -0.7999  0.1525
19908SOL    HW264536   1.678   8.282   8.481  0.9966 -1.7300  0.3085
19909SOL     OW64537   0.763  11.599   9.481 -0.2238  0.0530 -0.2642
19909SOL    HW164538   0.732  11.678   9.437 -1.2030  1.4112  2.5507
19909SOL    HW264539   0.688  11.539   9.479  0.3603 -0.6701 -1.9806
19910SOL     OW64540   0.934   4.870   3.304 -0.3449 -0.0198  0.3397
19910SOL    HW164541   0.896   4.796   3.351 -1.1881  0.8848  1.1246
19910SOL    HW264542   0.984   4.917   3.371 -0.4624  0.5482  0.0319
19911SOL     OW64543   9.497   6.715   1.949 -0.3865  0.6829  0.2304
19911SOL    HW164544   9.487   6.798   1.904 -3.7118 -0.7759 -2.1416
19911SOL    HW264545   9.420   6.709   2.005  1.0666  0.1635  2.3210
19912SOL     OW64546  12.361   3.336   2.619  0.1303  0.0113  0.7423
19912SOL    HW164547  12.292   3.399   2.641 -1.0889 -1.8386  2.5273
19912SOL    HW264548  12.322   3.280   2.552  1.3051  1.2111 -1.0366
19913SOL     OW64549   9.052   4.173   2.278 -0.1114  0.4375  0.4066
19913SOL    HW164550   8.986   4.161   2.346 -0.6058 -1.8396 -0.3702
19913SOL    HW264551   9.006   4.154   2.196  1.5609 -1.8935 -0.1147
19914SOL     OW64552   5.171   1.152  11.075  0.1739  0.4158  0.5869
19914SOL    HW164553   5.145   1.075  11.024 -2.2925 -0.4969  2.9927
19914SOL    HW264554   5.266   1.143  11.084  0.1685 -1.4558 -0.5317
19915SOL     OW64555  10.074   8.762   4.869  1.0356 -0.2618  0.0476
19915SOL    HW164556  10.051   8.744   4.778  1.5470 -1.8245  0.1997
19915SOL    HW264557  10.153   8.817   4.863  0.4575  0.5345 -0.4403
19916SOL     OW64558   5.325   2.200   2.796  0.1144 -0.5044  0.3717
19916SOL    HW164559   5.414   2.165   2.798  0.6135  0.5399 -1.2842
19916SOL    HW264560   5.336   2.292   2.775 -1.3869 -0.4757 -0.4443
19917SOL     OW64561   2.425   2.402   1.928 -0.0401  0.2436  0.1002
19917SOL    HW164562   2.340   2.359   1.934  0.9001 -1.5124  2.6530
19917SOL    HW264563   2.414   2.483   1.978 -0.1357 -0.1482  0.7240
19918SOL     OW64564   1.029   7.371  10.180 -0.2587  0.1798  0.4452
19918SOL    HW164565   1.077   7.417  10.249 -0.7453  1.1108  0.1811
19918SOL    HW264566   1.077   7.391  10.100 -0.9139  0.9078  0.2150
19919SOL     OW64567   6.433  10.825   2.726 -0.5723  0.2062 -0.4886
19919SOL    HW164568   6.382  10.897   2.689 -1.5043 -0.7639 -1.1544
19919SOL    HW264569   6.521  10.835   2.688 -0.1283  2.0529  0.8804
19920SOL     OW64570   2.765   9.858   0.052 -0.7331  0.1238  0.0790
19920SOL    HW164571   2.807   9.843   0.137 -0.2511  1.0052  0.0118
19920SOL    HW264572   2.698   9.924   0.070 -1.1315 -0.2320 -0.0876
19921SOL     OW64573  11.969  12.010  11.609  0.3341 -0.3372 -0.1273
19921SOL    HW164574  11.890  11.987  11.560 -0.0867 -1.6826  1.1037
19921SOL    HW264575  12.020  11.929  11.611  0.7662 -0.0506  0.8535
19922SOL     OW64576   2.428   8.258   7.737 -0.0109  0.2164 -0.0518
19922SOL    HW164577   2.462   8.257   7.827 -1.1355  0.9307  0.4128
19922SOL    HW264578   2.335   8.238   7.747 -0.1441  0.2773 -1.0708
19923SOL     OW64579   2.241   6.957   0.653 -0.3664  0.5422  0.1561
19923SOL    HW164580   2.168   6.895   0.655 -0.2103  0.3247 -0.5520
19923SOL    HW264581   2.288   6.941   0.734  1.8568 -2.9605 -1.5866
19924SOL     OW64582   3.765   0.113   1.256 -0.3389 -0.3914 -0.4893
19924SOL    HW164583   3.831   0.178   1.235 -1.2678  0.3044 -1.3622
19924SOL    HW264584   3.720   0.097   1.173 -1.7796 -0.2494  0.2236
19925SOL     OW64585   6.932  10.662   4.036 -0.3025 -0.4294 -0.3439
19925SOL    HW164586   6.844  10.700   4.032 -0.1572  0.2146  1.6501
19925SOL    HW264587   6.922  10.576   3.995 -2.1575 -0.8514  0.8531
19926SOL     OW64588  10.425   2.524  11.191 -0.1760 -0.7280 -0.0305
19926SOL    HW164589  10.385   2.595  11.241 -1.3156 -0.9415 -0.6019
19926SOL    HW264590  10.421   2.554  11.100 -1.0094 -1.6657 -0.3147
19927SOL     OW64591   0.909   3.818   2.123 -0.2678 -0.0416  0.4862
19927SOL    HW164592   0.975   3.862   2.069  0.7654 -1.8625  0.1741
19927SOL    HW264593   0.837   3.799   2.063 -0.1257  0.0024  0.3021
19928SOL     OW64594  10.924   1.779   2.033 -0.1727 -0.4725  0.2245
19928SOL    HW164595  10.906   1.847   2.098 -1.4526  1.3530 -1.9065
19928SOL    HW264596  10.960   1.826   1.958 -0.2684 -2.2777 -1.0304
19929SOL     OW64597   1.451   8.087   5.613 -0.5364  0.2405 -0.1750
19929SOL    HW164598   1.506   8.032   5.558 -0.6154  0.3591 -0.3744
19929SOL    HW264599   1.369   8.096   5.564 -0.5054  0.5792 -0.1703
19930SOL     OW64600   9.529  12.463   1.818  0.5644  0.1872  0.4881
19930SOL    HW164601   9.591  12.504   1.759 -0.6541  1.6619  0.1650
19930SOL    HW264602   9.578  12.448   1.899  1.5450  0.5189 -0.0327
19931SOL     OW64603   2.998  11.855   4.143 -0.3685 -0.7816 -0.0757
19931SOL    HW164604   2.944  11.932   4.124  0.6187  0.2776  1.2035
19931SOL    HW264605   3.006  11.854   4.238  0.2215 -2.0845 -0.1125
19932SOL     OW64606  10.628   7.743   0.835 -0.3310 -0.2303 -0.1444
19932SOL    HW164607  10.540   7.736   0.798 -0.6833 -1.0057  0.8230
19932SOL    HW264608  10.663   7.824   0.798 -1.4767  0.1194 -0.4846
19933SOL     OW64609   2.457   2.188   5.609 -0.1063 -0.2737  0.0437
19933SOL    HW164610   2.407   2.222   5.684  0.3790  0.8795 -0.1320
19933SOL    HW264611   2.446   2.093   5.615 -1.7844 -0.1073  0.3730
19934SOL     OW64612   2.939   2.251   1.589 -0.1121  0.2278  0.1318
19934SOL    HW164613   2.911   2.165   1.558  0.1998  0.0398  0.3625
19934SOL    HW264614   2.993   2.286   1.518 -0.4456  0.3392 -0.0661
19935SOL     OW64615  12.081   2.088   0.632 -0.4246 -0.3834 -0.4008
19935SOL    HW164616  12.074   2.179   0.602 -1.1817 -0.6492 -1.0486
19935SOL    HW264617  12.007   2.043   0.592 -0.2179 -1.2345  0.1400
19936SOL     OW64618   3.049   2.056   3.691 -0.4968  0.4200 -0.0637
19936SOL    HW164619   3.118   2.120   3.676 -0.9456  0.5173 -1.9176
19936SOL    HW264620   3.024   2.026   3.604 -1.2921 -1.2398  0.6881
19937SOL     OW64621   7.769  12.455   6.161 -0.9244 -0.7790 -0.1089
19937SOL    HW164622   7.862  12.473   6.146 -1.4864  1.7887 -0.9298
19937SOL    HW264623   7.752  12.376   6.109  1.1088 -2.2963  1.3766
19938SOL     OW64624   5.669   2.532   3.175  0.1535  0.8186  0.1377
19938SOL    HW164625   5.722   2.585   3.235 -0.1876 -1.2854  2.4224
19938SOL    HW264626   5.725   2.459   3.151 -0.8644 -0.1357  0.6109
19939SOL     OW64627   8.568  12.576  11.068 -0.0181  0.5645 -0.3975
19939SOL    HW164628   8.522  12.657  11.089 -0.9414  0.4769 -1.9468
19939SOL    HW264629   8.659  12.603  11.052  0.0479  1.0340  0.6920
19940SOL     OW64630   8.481   3.406   8.340  0.1405  0.3797  0.6005
19940SOL    HW164631   8.406   3.418   8.281 -1.6505  1.0639  2.8347
19940SOL    HW264632   8.516   3.320   8.316 -1.6465 -0.1779 -0.2737
19941SOL     OW64633   5.134  12.194   1.519 -0.1444 -0.2461 -0.0914
19941SOL    HW164634   5.224  12.218   1.541 -0.6085 -0.9017  3.1329
19941SOL    HW264635   5.080  12.260   1.562 -1.2099 -1.6016  0.7705
19942SOL     OW64636   9.024   6.075   0.234  0.1681 -0.6839 -0.1871
19942SOL    HW164637   8.973   6.018   0.291  0.5118 -0.7223  0.0827
19942SOL    HW264638   9.055   6.018   0.164  2.2442 -1.3088  1.1678
19943SOL     OW64639  12.490  12.539   9.633  0.2786  0.0515 -0.2406
19943SOL    HW164640  12.541  12.600   9.685 -2.6547  2.7604 -0.2534
19943SOL    HW264641  12.506  12.566   9.542 -0.6551  0.5338 -0.2720
19944SOL     OW64642   4.178  10.193   0.148  0.1650  0.8218  0.6550
19944SOL    HW164643   4.158  10.261   0.212 -1.6257 -0.6656  1.7809
19944SOL    HW264644   4.157  10.232   0.063  0.1569  1.9755  1.1775
19945SOL     OW64645   9.362   8.811   8.409  0.0004 -0.0260  1.0229
19945SOL    HW164646   9.331   8.900   8.395 -0.0544 -0.2208 -0.2341
19945SOL    HW264647   9.308   8.758   8.350  1.2814 -0.6465  0.3800
19946SOL     OW64648   8.480   1.031   0.843 -0.1095 -0.4225  0.2430
19946SOL    HW164649   8.496   1.124   0.828 -2.0087 -0.2193 -0.7884
19946SOL    HW264650   8.539   1.008   0.915  0.8300  1.4196  0.1196
19947SOL     OW64651   0.806   1.110   3.851 -0.0407  0.0000  0.4940
19947SOL    HW164652   0.874   1.153   3.799 -0.4909  1.0829  0.7626
19947SOL    HW264653   0.784   1.031   3.802  0.7325  0.1366 -0.0836
19948SOL     OW64654   7.342   4.934   7.658 -0.4428 -0.0522  0.2399
19948SOL    HW164655   7.303   4.943   7.571  0.5792 -0.0705 -0.2385
19948SOL    HW264656   7.389   4.851   7.655  2.1372  1.3024 -0.2616
19949SOL     OW64657  11.879  10.006   4.988 -0.3883  0.2397 -0.5395
19949SOL    HW164658  11.885  10.071   4.917 -0.6425  1.4240  0.4929
19949SOL    HW264659  11.960   9.955   4.980  0.3681  1.4299 -0.6718
19950SOL     OW64660   8.223   1.336   7.539  0.1354  0.5242  0.1030
19950SOL    HW164661   8.238   1.384   7.620  0.2882 -0.4299  0.6646
19950SOL    HW264662   8.310   1.307   7.511 -0.0371 -0.2622  0.3302
19951SOL     OW64663   7.104  11.056   3.253 -0.4831 -0.5274  0.2042
19951SOL    HW164664   7.105  11.137   3.201 -1.3520  0.6987  2.0032
19951SOL    HW264665   7.180  11.007   3.222 -0.7232  0.3158 -1.9156
19952SOL     OW64666   2.621   3.171  11.398 -0.2532  0.2481 -0.8080
19952SOL    HW164667   2.673   3.251  11.412 -0.1613  0.5184 -2.4497
19952SOL    HW264668   2.629   3.122  11.480 -0.5864  2.0622  0.3681
19953SOL     OW64669  11.538   6.950   2.632  0.4956  0.0307  0.3660
19953SOL    HW164670  11.567   6.895   2.559  3.0630  1.2003  0.4183
19953SOL    HW264671  11.495   7.025   2.589  2.8458  1.1987 -0.0836
19954SOL     OW64672  10.492   6.900  10.297  0.3627  0.0731 -0.4207
19954SOL    HW164673  10.474   6.990  10.324 -1.1389 -0.3785  0.2173
19954SOL    HW264674  10.584   6.886  10.318  0.0633  0.7583  1.5818
19955SOL     OW64675  10.406   4.707  11.700 -0.1674 -0.0580 -0.3190
19955SOL    HW164676  10.331   4.724  11.757 -1.3225  0.2307 -1.8422
19955SOL    HW264677  10.401   4.613  11.681  0.0378 -0.0969 -0.1790
19956SOL     OW64678   1.491   9.086  10.949 -0.2958  0.0909 -0.0491
19956SOL    HW164679   1.486   9.023  11.021  0.5808  1.9471  1.7685
19956SOL    HW264680   1.400   9.100  10.922 -0.5658 -1.2603  0.1196
19957SOL     OW64681  11.887  11.551   7.992  0.4941 -0.0989 -0.5269
19957SOL    HW164682  11.955  11.571   8.056  0.4207  1.4583 -0.8869
19957SOL    HW264683  11.822  11.621   8.003 -0.1350 -0.5167 -1.4278
19958SOL     OW64684   2.101   4.946   0.411  0.1707 -0.1846  0.2089
19958SOL    HW164685   2.103   4.910   0.322  0.2493 -0.1800  0.2087
19958SOL    HW264686   2.149   5.028   0.405 -2.5742  1.4979 -0.4670
19959SOL     OW64687   6.069   5.572   9.512  0.2533 -0.5180 -0.5546
19959SOL    HW164688   5.985   5.548   9.473  0.4997 -0.9807 -0.8052
19959SOL    HW264689   6.094   5.496   9.564 -0.0691  0.0923  0.5202
19960SOL     OW64690   3.420  12.349   4.091 -0.5879  0.5779 -0.0587
19960SOL    HW164691   3.326  12.344   4.072 -0.6507  0.9834  0.1328
19960SOL    HW264692   3.430  12.300   4.173 -0.2004 -1.8322 -1.4421
19961SOL     OW64693   9.243   6.517   5.219 -0.1330  0.2705 -0.6477
19961SOL    HW164694   9.312   6.451   5.211  1.6847  2.0644 -0.7057
19961SOL    HW264695   9.240   6.559   5.133 -0.8559  0.6439 -0.4456
19962SOL     OW64696   2.115   6.401   5.331  0.1104 -0.7521  0.0546
19962SOL    HW164697   2.030   6.363   5.308  0.0878 -0.4736 -0.3085
19962SOL    HW264698   2.159   6.414   5.248  0.7280 -1.3983  0.2697
19963SOL     OW64699   7.903   3.602   4.620  0.6000  0.6300 -0.6829
19963SOL    HW164700   7.860   3.640   4.543  2.7060  3.6021 -0.5544
19963SOL    HW264701   7.992   3.582   4.591  0.8390 -0.0769  0.4786
19964SOL     OW64702   6.210   3.265   2.515 -0.0104 -0.2303  0.0008
19964SOL    HW164703   6.188   3.248   2.423 -1.9645 -1.1358  0.5735
19964SOL    HW264704   6.134   3.313   2.548 -0.1878 -1.5158  1.5832
19965SOL     OW64705   2.992  12.389   5.230  0.1501  0.3969  0.6867
19965SOL    HW164706   3.075  12.390   5.183 -0.2883 -0.5591 -0.1493
19965SOL    HW264707   3.002  12.319   5.294 -1.2694 -2.4546 -1.9384
19966SOL     OW64708   4.620   4.417   9.222 -0.1478  0.8062  0.2523
19966SOL    HW164709   4.619   4.505   9.260 -2.0572  1.4412 -1.1069
19966SOL    HW264710   4.552   4.369   9.268  0.2496  0.3195  0.3450
19967SOL     OW64711   3.417  10.192  11.647  0.0193 -0.0280 -0.7659
19967SOL    HW164712   3.491  10.175  11.588  0.8514 -0.2560  0.3032
19967SOL    HW264713   3.431  10.132  11.720 -1.4131 -0.2954 -0.6783
19968SOL     OW64714   4.469   6.762   0.325 -0.1321  0.3213  0.1019
19968SOL    HW164715   4.548   6.779   0.377  0.5945 -1.2177 -0.4358
19968SOL    HW264716   4.446   6.672   0.347 -0.7892  0.2109 -0.9894
19969SOL     OW64717   0.973  10.374   8.369  0.6853  0.0714  0.4232
19969SOL    HW164718   0.902  10.409   8.422 -0.2924 -2.0734  0.6667
19969SOL    HW264719   0.981  10.283   8.397  1.4190 -0.6095 -1.7582
19970SOL     OW64720   3.165   6.467  12.048 -0.1196 -0.0719  0.4680
19970SOL    HW164721   3.164   6.387  12.101  0.1729  0.0761  0.6968
19970SOL    HW264722   3.247   6.510  12.070 -0.7551  0.8372  1.1548
19971SOL     OW64723  10.777  11.855   2.467  0.0749  0.1460  0.3225
19971SOL    HW164724  10.693  11.820   2.437 -0.8026  0.4058  2.3154
19971SOL    HW264725  10.798  11.925   2.405 -0.5021 -0.7715 -0.9484
19972SOL     OW64726   3.783   5.689   3.770  0.4389 -0.5789  0.8090
19972SOL    HW164727   3.848   5.661   3.706 -0.0032  1.1954 -0.4740
19972SOL    HW264728   3.724   5.614   3.778  0.9274 -1.1022 -0.2693
19973SOL     OW64729   3.610   6.361   1.207  0.3939 -0.5290  0.7828
19973SOL    HW164730   3.574   6.415   1.136 -0.3531 -1.5235  0.3847
19973SOL    HW264731   3.598   6.415   1.285  3.1328  1.4879 -0.0269
19974SOL     OW64732   9.622   9.823   4.543 -0.0070 -0.1739  0.2632
19974SOL    HW164733   9.714   9.847   4.546  0.2565 -1.0123 -0.7193
19974SOL    HW264734   9.579   9.886   4.601  1.3725 -0.7236  1.9632
19975SOL     OW64735   3.541   6.391  10.777  0.2183  0.0001  0.3379
19975SOL    HW164736   3.588   6.346  10.707  1.4495 -1.0233  1.7535
19975SOL    HW264737   3.451   6.359  10.770  0.6217 -1.1143  0.0403
19976SOL     OW64738   9.781  10.981   0.270 -0.3929 -0.0089  0.1168
19976SOL    HW164739   9.770  10.900   0.220  1.1795  0.1477 -0.5304
19976SOL    HW264740   9.735  11.047   0.219  0.4822 -0.0177 -0.7182
19977SOL     OW64741  10.549  10.607   7.144 -0.1947 -0.4271 -1.0987
19977SOL    HW164742  10.641  10.582   7.156  0.0025  0.0852 -1.5153
19977SOL    HW264743  10.523  10.561   7.064 -0.8567 -2.0544 -0.0039
19978SOL     OW64744   8.895   6.414   6.880 -0.2850  0.0354 -0.3441
19978SOL    HW164745   8.980   6.448   6.907 -1.4919  1.7427  1.5131
19978SOL    HW264746   8.889   6.328   6.922  0.5660 -0.1858 -0.6528
19979SOL     OW64747   8.271   0.841  11.629 -0.9336  0.4575  0.3917
19979SOL    HW164748   8.264   0.897  11.552 -2.0065 -0.1762  0.0140
19979SOL    HW264749   8.316   0.896  11.694 -0.7111  1.2589 -0.4180
19980SOL     OW64750   2.192   1.071   4.069  0.4142 -0.4015  0.0234
19980SOL    HW164751   2.196   1.149   4.125  1.5324  0.1828 -0.8256
19980SOL    HW264752   2.160   1.104   3.985  0.3233 -0.9646 -0.1634
19981SOL     OW64753   2.193   5.812   2.075  0.4631  0.0296  0.2787
19981SOL    HW164754   2.159   5.725   2.097  0.7127 -0.9278 -2.6786
19981SOL    HW264755   2.251   5.834   2.148  1.1034 -2.7170  0.7257
19982SOL     OW64756   0.571  10.874   7.286 -0.1521 -0.0768 -0.1056
19982SOL    HW164757   0.542  10.901   7.199  1.0981  0.7988 -0.2761
19982SOL    HW264758   0.582  10.779   7.280 -1.6760 -0.2562 -0.3917
19983SOL     OW64759   8.855   5.949   3.781  0.0335 -0.4093 -0.1953
19983SOL    HW164760   8.936   5.998   3.770  1.6439 -1.4853  4.4533
19983SOL    HW264761   8.792   6.012   3.816 -0.7011  0.0283 -2.1626
19984SOL     OW64762  11.758   4.560   2.341  0.2268 -0.1601 -0.3080
19984SOL    HW164763  11.667   4.561   2.370  0.6359  0.1000  1.0590
19984SOL    HW264764  11.771   4.473   2.304 -1.0715  0.4266 -2.3225
19985SOL     OW64765   3.406  10.065   2.938  0.6114  0.1825 -0.0655
19985SOL    HW164766   3.336  10.129   2.943 -0.9488 -1.2606 -1.9308
19985SOL    HW264767   3.398  10.013   3.018  0.3384  0.7983  0.3066
19986SOL     OW64768  10.299   3.367   2.437  0.1754  0.2167 -0.3027
19986SOL    HW164769  10.247   3.301   2.482 -1.7583  2.2115  0.5930
19986SOL    HW264770  10.380   3.372   2.489 -0.7884  0.4068  1.2556
19987SOL     OW64771   7.871  11.016   4.191 -0.3007 -0.1951  0.2072
19987SOL    HW164772   7.827  10.982   4.269 -0.7104 -2.2296 -0.8329
19987SOL    HW264773   7.928  10.944   4.163  0.7785  0.9555 -0.6811
19988SOL     OW64774   7.550  10.134   8.346  0.5203 -0.4207 -0.2862
19988SOL    HW164775   7.458  10.125   8.323  0.1649  1.2858  0.3330
19988SOL    HW264776   7.578  10.045   8.366 -0.8449 -1.0422 -0.9878
19989SOL     OW64777   6.628   9.587   1.827  0.1016  0.5701  0.8593
19989SOL    HW164778   6.645   9.505   1.780 -0.4781  1.4171 -0.9122
19989SOL    HW264779   6.541   9.576   1.865  0.4730 -0.0335  1.5498
19990SOL     OW64780  10.234   7.023   1.068  0.2815  0.4855  0.5401
19990SOL    HW164781  10.172   6.953   1.088 -1.4866  2.1777  1.2843
19990SOL    HW264782  10.288   6.988   0.997  0.1413 -1.9852  1.5759
19991SOL     OW64783  12.591   7.324   3.276  0.4245 -0.1085 -0.0487
19991SOL    HW164784  12.585   7.255   3.341 -0.3549 -0.8728 -0.8942
19991SOL    HW264785  12.530   7.297   3.206  1.1230  0.7417 -1.0254
19992SOL     OW64786   3.859  10.617   3.720  0.2334  0.3226  0.0017
19992SOL    HW164787   3.885  10.582   3.805 -1.5617 -1.0063  0.0703
19992SOL    HW264788   3.908  10.699   3.711  0.6444  0.3656  2.2050
19993SOL     OW64789   3.348  11.741  10.095  0.3085 -1.0323 -0.4434
19993SOL    HW164790   3.324  11.672  10.157  1.8219 -0.4963  0.8202
19993SOL    HW264791   3.430  11.776  10.130 -0.5299  1.5676 -0.9038
19994SOL     OW64792  11.381   5.763  11.017  0.2442  0.0262 -0.2302
19994SOL    HW164793  11.413   5.716  11.094 -0.0842  0.5586  0.2434
19994SOL    HW264794  11.443   5.836  11.007 -0.6788  0.9512  0.5753
19995SOL     OW64795   0.357   9.574   2.103 -0.3989 -0.1838 -0.2221
19995SOL    HW164796   0.452   9.573   2.087 -0.6049 -1.4270 -1.5692
19995SOL    HW264797   0.328   9.658   2.067  0.0544 -0.2790 -0.8354
19996SOL     OW64798  10.686  10.795   9.989 -0.1781  0.0422  0.6932
19996SOL    HW164799  10.767  10.815  10.036  0.8268  0.7707 -1.2481
19996SOL    HW264800  10.704  10.711   9.947 -0.5032  0.1070  0.4259
19997SOL     OW64801   9.776   3.763   8.693  0.4062 -0.0986  0.0443
19997SOL    HW164802   9.816   3.769   8.606  0.4852 -1.9323 -0.1029
19997SOL    HW264803   9.788   3.849   8.732  1.7371  0.3097 -1.1926
19998SOL     OW64804   2.584  10.344   2.285 -0.0228 -0.7507 -0.0999
19998SOL    HW164805   2.549  10.346   2.374  1.0861  2.1665  0.4025
19998SOL    HW264806   2.678  10.334   2.296  0.0254 -1.4481 -1.0328
19999SOL     OW64807  11.448   6.562   8.864  0.6475  0.0242  0.3205
19999SOL    HW164808  11.480   6.606   8.785 -0.7916  0.5406  0.0012
19999SOL    HW264809  11.390   6.493   8.832 -1.0067  1.0796  0.9179
20000SOL     OW64810  12.179   4.915  10.369 -0.1412  0.2286  0.7671
20000SOL    HW164811  12.257   4.905  10.422  0.9182 -0.0108 -0.7572
20000SOL    HW264812  12.148   4.825  10.353  0.2461  0.2133  0.0319
20001SOL     OW64813  10.951   5.763  10.452 -0.0437  0.1717  0.2049
20001SOL    HW164814  11.016   5.787  10.519 -0.0029  1.6193 -0.3279
20001SOL    HW264815  10.929   5.672  10.472  1.3716 -0.0177  1.0357
20002SOL     OW64816  10.586   3.975  10.306 -0.0209  0.2412 -0.1095
20002SOL    HW164817  10.531   3.900  10.329  0.0827  0.2750  0.2477
20002SOL    HW264818  10.671   3.956  10.345  0.3896 -0.0751 -1.1281
20003SOL     OW64819   0.586   8.018  10.934  0.0475 -0.3097  0.1234
20003SOL    HW164820   0.570   8.032  11.027  2.4194  1.1224  0.3963
20003SOL    HW264821   0.602   8.105  10.899  0.9164 -0.9948 -1.2684
20004SOL     OW64822   9.322   4.994   1.749  0.5579  0.3863 -0.0961
20004SOL    HW164823   9.369   5.060   1.697 -0.2872  0.5884 -0.6237
20004SOL    HW264824   9.370   4.913   1.732  1.4998  0.8201  0.4203
20005SOL     OW64825   0.779   0.158   5.335  0.3543  0.1387  0.0686
20005SOL    HW164826   0.849   0.101   5.305 -1.2504 -0.7829 -2.2916
20005SOL    HW264827   0.800   0.244   5.298  0.4349 -0.0598 -0.3590
20006SOL     OW64828   0.018   1.723  12.263 -0.0128 -0.0777 -0.2587
20006SOL    HW164829   0.105   1.700  12.228  0.9711  0.9894  1.3281
20006SOL    HW264830  -0.031   1.641  12.260  0.9377 -0.6407 -1.4773
20007SOL     OW64831   0.951   9.809  11.819  0.1483 -0.1493 -0.0093
20007SOL    HW164832   0.890   9.871  11.860 -1.2254 -0.7703 -1.0207
20007SOL    HW264833   0.974   9.749  11.890 -1.2493 -0.5107  0.1676
20008SOL     OW64834   8.759   6.985   9.570 -0.2822 -0.6590 -0.0509
20008SOL    HW164835   8.709   6.907   9.594  1.0958 -0.9758  2.0691
20008SOL    HW264836   8.793   6.966   9.483  0.3039 -2.6249  0.5491
20009SOL     OW64837   9.255   1.547   0.502  0.5910 -0.3607  0.9562
20009SOL    HW164838   9.309   1.510   0.572 -0.7450  0.1556  2.2890
20009SOL    HW264839   9.292   1.633   0.485  0.6846 -0.3407  1.2700
20010SOL     OW64840   0.243   4.124  11.604  0.4532  0.5402  0.4372
20010SOL    HW164841   0.161   4.167  11.629 -0.8879 -0.6875 -1.5808
20010SOL    HW264842   0.308   4.159  11.665 -0.8661  4.0653  0.0534
20011SOL     OW64843  11.239   6.540   8.223 -0.2915  0.7301  0.5811
20011SOL    HW164844  11.217   6.625   8.263  0.4972  1.0791  0.2883
20011SOL    HW264845  11.329   6.523   8.250 -0.1697  0.3736 -0.0334
20012SOL     OW64846   8.153   8.185   2.703 -0.1567  0.1922  0.1917
20012SOL    HW164847   8.208   8.229   2.769 -0.9326  0.9623  0.3481
20012SOL    HW264848   8.170   8.092   2.715 -0.7510  0.2736  1.9185
20013SOL     OW64849   1.119   1.480  10.475 -0.0530  0.0566  0.1099
20013SOL    HW164850   1.189   1.537  10.505 -0.1134 -0.6132  1.6612
20013SOL    HW264851   1.052   1.539  10.442  0.6063  0.7818  0.0523
20014SOL     OW64852   0.402   7.333   6.492  0.2391 -0.0605  0.1348
20014SOL    HW164853   0.362   7.417   6.515  0.3144  0.0458 -0.1298
20014SOL    HW264854   0.478   7.326   6.550  0.0379 -0.1032  0.3947
20015SOL     OW64855   4.151   2.062   7.734 -0.3413  0.5576 -0.0615
20015SOL    HW164856   4.153   2.132   7.670  0.8224  0.6558  0.0567
20015SOL    HW264857   4.225   2.080   7.792 -1.3943  0.5161  1.3739
20016SOL     OW64858   4.258   0.827   1.294  0.5005 -0.3139  0.6504
20016SOL    HW164859   4.300   0.866   1.217 -0.7880  1.2147  0.6680
20016SOL    HW264860   4.236   0.739   1.266  2.0656 -0.5568  0.0503
20017SOL     OW64861   4.458   2.828  11.235 -0.6232 -0.1299  0.0006
20017SOL    HW164862   4.395   2.757  11.242 -1.1918  0.1708 -1.5640
20017SOL    HW264863   4.504   2.829  11.319 -3.1056  0.0401  1.4414
20018SOL     OW64864  11.892   1.300   2.012  0.3856  0.1676 -0.0907
20018SOL    HW164865  11.979   1.287   2.050  0.5187 -0.3251 -0.5528
20018SOL    HW264866  11.899   1.264   1.924  0.5468  2.6552 -1.2037
20019SOL     OW64867  12.370   9.320   8.935  0.2091 -0.3215 -0.3530
20019SOL    HW164868  12.345   9.409   8.960 -0.0921  0.0772 -2.0061
20019SOL    HW264869  12.466   9.324   8.928  0.1835 -0.0941 -0.5661
20020SOL     OW64870   3.369  11.520   4.348  0.5200  0.0524 -0.4348
20020SOL    HW164871   3.403  11.535   4.436  0.3894  0.8005 -0.5023
20020SOL    HW264872   3.386  11.428   4.330  0.7007 -0.0608  0.3073
20021SOL     OW64873   7.157  10.412   9.586 -0.4144  0.9981 -0.1450
20021SOL    HW164874   7.154  10.388   9.494 -1.3866  1.4044 -0.2283
20021SOL    HW264875   7.229  10.475   9.592  0.3344  0.1824 -0.4241
20022SOL     OW64876  11.451  10.928   5.264 -0.1478 -0.6520 -0.4372
20022SOL    HW164877  11.363  10.955   5.236  0.2394  0.6630 -0.4474
20022SOL    HW264878  11.494  10.901   5.183 -0.0992  0.0469 -0.6572
20023SOL     OW64879   8.875   9.236   2.831 -0.6116 -0.2618  0.1923
20023SOL    HW164880   8.906   9.294   2.900 -1.0529 -0.8752  0.9252
20023SOL    HW264881   8.900   9.148   2.861 -0.5587 -0.5125 -0.5670
20024SOL     OW64882   1.432   3.292   9.832 -0.3806 -0.4906 -0.3337
20024SOL    HW164883   1.486   3.302   9.910 -0.5051 -1.6310 -0.0807
20024SOL    HW264884   1.494   3.294   9.759 -0.2446  0.3914 -0.1961
20025SOL     OW64885  12.035   8.853  10.783  0.0366  0.4251  0.0602
20025SOL    HW164886  12.085   8.934  10.795  0.6458  0.2332 -1.0144
20025SOL    HW264887  12.065   8.819  10.698 -1.4370 -0.0604 -0.2951
20026SOL     OW64888   4.425   5.835   9.870 -0.1136  0.2266 -0.2603
20026SOL    HW164889   4.331   5.845   9.853 -0.4346 -2.6302 -0.7313
20026SOL    HW264890   4.429   5.799   9.958  0.5452  0.3088 -0.2584
20027SOL     OW64891   1.475   9.284   2.208 -0.4023  0.2475  0.1098
20027SOL    HW164892   1.503   9.364   2.253 -1.7302  0.5048  0.5253
20027SOL    HW264893   1.379   9.290   2.207 -0.4695 -0.7046 -1.0323
20028SOL     OW64894   5.980   3.650   1.723 -0.1970 -0.2487  0.1065
20028SOL    HW164895   6.017   3.738   1.731  2.2371 -1.0937 -0.9011
20028SOL    HW264896   5.886   3.664   1.719  0.1666  2.5392 -2.3199
20029SOL     OW64897   5.467   4.219   3.106 -0.4245  0.0015  0.5326
20029SOL    HW164898   5.497   4.168   3.181 -1.8470 -1.6266  0.0537
20029SOL    HW264899   5.535   4.284   3.093  1.5259 -1.8130  1.1429
20030SOL     OW64900   8.262   9.187   0.111 -0.3760  0.4896  0.9428
20030SOL    HW164901   8.175   9.195   0.072  0.3342  2.0227 -0.4294
20030SOL    HW264902   8.270   9.262   0.170 -0.2565 -0.0699  1.6526
20031SOL     OW64903   7.596   9.406  11.366  0.6125 -0.1120  0.1227
20031SOL    HW164904   7.592   9.356  11.285 -0.1078  2.2781 -1.3940
20031SOL    HW264905   7.689   9.405  11.390  0.6829 -1.6974 -0.1392
20032SOL     OW64906   2.485   1.696  11.888  0.2458  0.0906  0.0453
20032SOL    HW164907   2.552   1.713  11.822 -0.2198 -1.3399 -0.8684
20032SOL    HW264908   2.532   1.655  11.961  0.6330  0.8376  0.2188
20033SOL     OW64909   6.353   8.588   2.365  0.1848 -0.0695  0.2846
20033SOL    HW164910   6.442   8.553   2.374 -0.3202 -1.6350 -0.4501
20033SOL    HW264911   6.365   8.682   2.357  1.7396 -0.1924  0.7756
20034SOL     OW64912   8.794  12.012   8.106 -0.0573  0.5519  0.2557
20034SOL    HW164913   8.836  12.081   8.056 -0.9016  0.3846 -0.7174
20034SOL    HW264914   8.700  12.031   8.099 -0.2188  0.3631  1.5549
20035SOL     OW64915  10.828  10.576   6.532  0.4534  0.4661 -0.0230
20035SOL    HW164916  10.772  10.636   6.483 -0.5304 -0.4245 -0.0113
20035SOL    HW264917  10.847  10.624   6.613 -0.9205  0.5079  0.3088
20036SOL     OW64918   9.719   4.228  11.897  0.0181 -0.3499  0.3322
20036SOL    HW164919   9.734   4.136  11.876 -1.4012 -1.1699  2.5456
20036SOL    HW264920   9.702   4.269  11.812  1.8094 -1.8486 -0.8260
20037SOL     OW64921   3.138  11.865  11.691  0.3339 -0.2680  0.2205
20037SOL    HW164922   3.073  11.875  11.622  0.1852 -0.6208  0.3043
20037SOL    HW264923   3.169  11.775  11.682  1.0459 -0.0025 -0.0181
20038SOL     OW64924  11.628   2.771   8.042  0.6619  0.2039  0.8263
20038SOL    HW164925  11.609   2.822   7.963  2.0820 -0.9010 -0.2995
20038SOL    HW264926  11.631   2.836   8.112  0.8773  1.4549 -0.2902
20039SOL     OW64927   7.768   5.428   0.743  0.9799 -0.1003  0.3280
20039SOL    HW164928   7.759   5.474   0.659 -0.8913 -3.1399 -1.3113
20039SOL    HW264929   7.707   5.472   0.801 -0.8173 -0.4556 -1.2050
20040SOL     OW64930  10.519   2.738   4.352 -0.0790 -0.3131  1.0094
20040SOL    HW164931  10.466   2.708   4.426 -0.6308 -1.3902  0.1960
20040SOL    HW264932  10.488   2.826   4.334 -0.1551 -0.1583  1.8475
20041SOL     OW64933   5.226   2.175   1.345  0.2649  0.1506  0.2853
20041SOL    HW164934   5.267   2.091   1.327 -0.2250 -0.1969  0.7685
20041SOL    HW264935   5.136   2.154   1.371 -0.3507  0.9199 -1.0964
20042SOL     OW64936   0.789   0.365  11.186 -0.8141  0.4880 -0.2167
20042SOL    HW164937   0.803   0.439  11.244 -1.4066  0.7140 -0.3537
20042SOL    HW264938   0.787   0.403  11.098  0.4402  0.1031 -0.4254
20043SOL     OW64939  11.350  11.185   3.126  0.0227  0.2925 -0.0481
20043SOL    HW164940  11.265  11.216   3.093 -1.3583 -0.2242  2.6905
20043SOL    HW264941  11.389  11.262   3.168 -0.1654  0.0264  0.6387
20044SOL     OW64942   4.644   0.144   5.362 -0.4354 -0.1473  0.2662
20044SOL    HW164943   4.601   0.077   5.415 -0.5733  0.8604  1.4950
20044SOL    HW264944   4.573   0.197   5.327 -0.2859  0.8121  1.3338
20045SOL     OW64945  11.403   7.141   8.315  0.3733 -0.2933  0.1978
20045SOL    HW164946  11.378   7.229   8.288  1.3146 -0.3249 -0.8911
20045SOL    HW264947  11.342   7.084   8.269  1.2126 -0.2911 -0.9577
20046SOL     OW64948   2.044   6.924  12.624  0.3398  0.1403  0.1690
20046SOL    HW164949   2.111   6.859  12.645  0.9366  0.5395 -0.4636
20046SOL    HW264950   1.974   6.873  12.582  0.9561 -0.0511 -0.6493
20047SOL     OW64951   8.122   7.136   9.539  0.1521  0.2914  0.0517
20047SOL    HW164952   8.090   7.158   9.452  1.1375 -0.2412 -0.4687
20047SOL    HW264953   8.197   7.194   9.553  1.1525 -0.8765 -0.2563
20048SOL     OW64954   9.758   5.293  12.630 -0.0832  0.0623  0.0337
20048SOL    HW164955   9.815   5.217  12.638 -0.4613 -0.3481 -1.0039
20048SOL    HW264956   9.726   5.290  12.540 -3.6243 -1.0683  1.1643
20049SOL     OW64957   9.177   6.046   2.635  0.1424  0.3458 -0.2963
20049SOL    HW164958   9.096   6.028   2.682 -0.6134  1.1522 -1.2705
20049SOL    HW264959   9.156   6.033   2.543  0.1951  3.5289 -0.8837
20050SOL     OW64960   8.007   5.288   3.681  0.0015  0.9788 -0.3423
20050SOL    HW164961   7.963   5.221   3.629  0.5178 -1.8484  2.5194
20050SOL    HW264962   8.099   5.280   3.656  0.0964  0.3728  0.1543
20051SOL     OW64963   4.063  11.725   7.448 -0.0021  0.2031 -0.0522
20051SOL    HW164964   4.004  11.791   7.411 -1.3286 -1.1126 -0.3713
20051SOL    HW264965   4.056  11.651   7.388  1.0745 -0.4238  0.5760
20052SOL     OW64966   9.178   2.115   3.704 -0.1413 -0.7341  0.0530
20052SOL    HW164967   9.094   2.143   3.667  0.6812  0.2400 -1.1787
20052SOL    HW264968   9.200   2.182   3.768 -0.3693 -1.0770  0.4957
20053SOL     OW64969  12.186   6.798   0.538 -0.5088  0.5971 -0.0236
20053SOL    HW164970  12.181   6.775   0.630 -1.2839 -0.4037 -0.2940
20053SOL    HW264971  12.252   6.738   0.502  1.5032  2.5052  0.2826
20054SOL     OW64972   6.404   1.534  10.553 -0.6623  0.1368 -0.3905
20054SOL    HW164973   6.444   1.453  10.583 -0.5891  0.2846 -0.0886
20054SOL    HW264974   6.310   1.515  10.553 -0.6270 -0.0360 -0.5818
20055SOL     OW64975  10.845   0.541   9.130 -0.5292  0.1725  0.1058
20055SOL    HW164976  10.752   0.537   9.153 -0.6003 -0.9330 -0.3342
20055SOL    HW264977  10.851   0.496   9.046  0.4163  0.1773  0.1605
20056SOL     OW64978   0.090  10.040   8.432 -0.1030  0.0042 -0.0859
20056SOL    HW164979   0.085  10.136   8.436  1.0362  0.0791 -0.1765
20056SOL    HW264980   0.183  10.021   8.416  0.0154 -1.1673  1.6838
20057SOL     OW64981   6.097  11.103   6.784  0.4460 -0.1046  0.2935
20057SOL    HW164982   6.086  11.174   6.721  1.2802  0.5481  0.8752
20057SOL    HW264983   6.186  11.113   6.817 -0.1601 -0.0869  2.0131
20058SOL     OW64984   9.149   3.642   6.846  0.1020  0.4133  0.1161
20058SOL    HW164985   9.159   3.712   6.911 -1.6012  0.1737  0.6703
20058SOL    HW264986   9.232   3.643   6.798  0.8777  1.5022  1.3918
20059SOL     OW64987  11.185   7.055   1.697 -0.2808 -0.0065 -0.0607
20059SOL    HW164988  11.268   7.020   1.666  1.2217  1.9660  1.4967
20059SOL    HW264989  11.183   7.035   1.791 -1.5561  0.0419 -0.0561
20060SOL     OW64990   4.010  11.271  12.622  0.1237  0.0259 -0.0978
20060SOL    HW164991   3.969  11.201  12.571  0.4125 -1.1484  1.2234
20060SOL    HW264992   3.963  11.351  12.595 -2.4415 -1.1204  0.6776
20061SOL     OW64993   3.664   8.112   4.993  0.1735 -0.1188  0.4381
20061SOL    HW164994   3.665   8.133   4.899 -1.2947 -0.8089  0.2396
20061SOL    HW264995   3.716   8.181   5.033  1.4621 -0.2288 -0.9586
20062SOL     OW64996   2.124   0.536  12.261  0.0700 -0.9250 -0.6898
20062SOL    HW164997   2.126   0.552  12.166  0.2876 -1.8068 -0.8434
20062SOL    HW264998   2.045   0.484  12.275  0.3426 -1.2879 -0.4743
20063SOL     OW64999   5.366   8.256   3.433  0.2098 -0.3993  0.3424
20063SOL    HW165000   5.329   8.321   3.373  0.3961  0.3781  1.0540
20063SOL    HW265001   5.405   8.307   3.503  2.5084 -1.1526 -0.2625
20064SOL     OW65002   8.112   7.918   4.382  0.2791 -0.5092  0.3380
20064SOL    HW165003   8.101   8.012   4.393 -2.3229 -0.6910 -0.0346
20064SOL    HW265004   8.024   7.882   4.390  0.9904 -2.7781 -0.8973
20065SOL     OW65005   5.567   2.180  10.813 -0.3511 -0.1389  0.1129
20065SOL    HW165006   5.496   2.117  10.800  0.6898 -0.9207 -2.5747
20065SOL    HW265007   5.540   2.257  10.763 -0.6850  0.8283  1.7066
20066SOL     OW65008   2.554  12.450   4.168  0.0503 -0.0877  0.1845
20066SOL    HW165009   2.620  12.397   4.212  0.3659  0.8214  0.8397
20066SOL    HW265010   2.602  12.527   4.137 -0.4918  0.0593 -0.3111
20067SOL     OW65011   3.387   1.474   1.776  0.1345 -0.4044 -0.7191
20067SOL    HW165012   3.373   1.380   1.770  0.6625 -0.4048 -3.0622
20067SOL    HW265013   3.316   1.505   1.833 -0.2168 -2.1607 -0.1390
20068SOL     OW65014   0.279  12.039   0.332 -0.1239 -0.3673  0.4212
20068SOL    HW165015   0.351  12.045   0.394 -0.0716  1.8761  0.2372
20068SOL    HW265016   0.210  12.094   0.370 -1.2140 -1.3197 -0.1002
20069SOL     OW65017   3.001   2.165   6.166 -0.0897  0.0330 -0.0678
20069SOL    HW165018   3.021   2.258   6.156  1.8015 -0.4692 -1.5193
20069SOL    HW265019   2.998   2.151   6.261  2.3691  1.0706  0.2304
20070SOL     OW65020   7.697   5.212   9.863  0.5076 -0.6666  0.0418
20070SOL    HW165021   7.606   5.205   9.889  0.0229  1.5072 -0.8961
20070SOL    HW265022   7.746   5.178   9.937 -1.0079 -0.3701  1.2186
20071SOL     OW65023  11.378   6.365   4.662  0.5514  0.3376 -0.2346
20071SOL    HW165024  11.408   6.298   4.723  1.6154 -0.9474 -2.0730
20071SOL    HW265025  11.459   6.402   4.626  0.0234 -0.3298 -2.2672
20072SOL     OW65026   2.935   7.318   7.585 -0.5969 -0.3212 -0.2919
20072SOL    HW165027   2.928   7.364   7.502 -0.6747  0.1889 -0.0036
20072SOL    HW265028   2.845   7.295   7.608 -0.6168 -0.0856 -0.1364
20073SOL     OW65029   2.989  12.159   0.927 -0.6952 -0.0410  0.2355
20073SOL    HW165030   3.043  12.150   0.848 -2.5776 -0.2730 -1.1132
20073SOL    HW265031   2.952  12.072   0.941 -2.2977  0.5428 -0.1305
20074SOL     OW65032   8.925   7.138   0.869 -0.2342  0.0358 -0.4228
20074SOL    HW165033   9.016   7.116   0.849 -0.2686  0.2507 -0.8262
20074SOL    HW265034   8.899   7.075   0.936  0.5924  0.7268  0.5877
20075SOL     OW65035   4.060  12.010   3.079  0.5307  0.0951 -0.6356
20075SOL    HW165036   4.156  12.016   3.084  0.5338  1.0376 -1.4455
20075SOL    HW265037   4.040  11.922   3.110  1.6823 -0.2214 -0.7387
20076SOL     OW65038   6.440  12.060  12.414  0.3664 -0.0133  0.3303
20076SOL    HW165039   6.364  12.095  12.461  1.0362  0.9915  0.7117
20076SOL    HW265040   6.409  12.045  12.325 -0.4055 -0.0841  0.6065
20077SOL     OW65041   4.929   0.492  11.592  1.1811 -0.5099 -0.1683
20077SOL    HW165042   4.841   0.469  11.561 -0.2361  0.7536  2.5912
20077SOL    HW265043   4.978   0.514  11.513 -1.4837  0.3770 -1.6700
20078SOL     OW65044   9.522   4.832   2.312 -0.5602  0.1221  0.0003
20078SOL    HW165045   9.452   4.767   2.302 -1.1393  0.8864 -1.3045
20078SOL    HW265046   9.537   4.838   2.406  0.3237 -2.7139  0.1129
20079SOL     OW65047   6.456   4.999   0.231  0.3706 -0.1262 -0.3532
20079SOL    HW165048   6.376   4.995   0.180  0.5339  0.3234 -0.6520
20079SOL    HW265049   6.476   4.908   0.253  0.5688 -0.3748 -1.5191
20080SOL     OW65050   9.723   6.517   3.839  0.8028  0.6326 -0.0892
20080SOL    HW165051   9.810   6.490   3.809  0.8523  0.2162  0.4088
20080SOL    HW265052   9.674   6.435   3.846  0.8686  0.6845  1.1729
20081SOL     OW65053   6.808   8.494   8.382  0.2735  0.1902  0.1586
20081SOL    HW165054   6.834   8.404   8.363  2.4940  0.8000  0.0450
20081SOL    HW265055   6.862   8.518   8.458 -0.9617  1.1441  0.7671
20082SOL     OW65056  12.125  10.144   5.693 -0.3661  0.1325  0.7641
20082SOL    HW165057  12.070  10.084   5.642  0.3729  0.6164 -0.6519
20082SOL    HW265058  12.213  10.132   5.658 -0.0151  1.2542  1.2163
20083SOL     OW65059  12.146  11.910   6.337  0.3502  0.1408 -0.0271
20083SOL    HW165060  12.169  11.916   6.244 -0.5289 -2.7812 -0.5045
20083SOL    HW265061  12.109  11.996   6.357  1.8567  1.3518 -1.9493
20084SOL     OW65062   1.164   2.131   3.776 -0.0445 -0.2661  0.2488
20084SOL    HW165063   1.124   2.151   3.691 -1.0044 -4.3865 -0.4796
20084SOL    HW265064   1.244   2.083   3.754  0.1087 -0.7000  1.6744
20085SOL     OW65065  10.563  11.897   9.526 -0.0744  0.0706  0.4094
20085SOL    HW165066  10.632  11.906   9.591 -2.7585  0.7102  3.3967
20085SOL    HW265067  10.527  11.985   9.517 -1.2092 -0.4408 -0.2774
20086SOL     OW65068   2.145   9.361  12.108  0.4306  0.8867  0.0554
20086SOL    HW165069   2.191   9.436  12.070  1.1767  0.2212 -0.3884
20086SOL    HW265070   2.215   9.305  12.142  0.0006 -0.4322 -1.1569
20087SOL     OW65071  10.704  11.239   8.276  0.4697  0.3090 -0.5673
20087SOL    HW165072  10.717  11.145   8.286 -2.1839 -0.0166  0.6735
20087SOL    HW265073  10.744  11.277   8.354 -0.5758 -0.0812  0.1897
20088SOL     OW65074   2.116   0.929  12.206  0.3931  0.3914 -0.3195
20088SOL    HW165075   2.193   0.923  12.148  0.2926 -0.1083 -0.4053
20088SOL    HW265076   2.041   0.924  12.147  0.2921  0.7917 -0.2268
20089SOL     OW65077   6.109   3.298   9.787 -0.0989 -0.2907  0.1569
20089SOL    HW165078   6.037   3.235   9.781  0.0409 -0.5723  1.2129
20089SOL    HW265079   6.181   3.248   9.825  0.5754  0.0591 -0.6415
20090SOL     OW65080  12.000   3.135   0.794 -0.3768  0.0408 -0.9654
20090SOL    HW165081  11.956   3.109   0.713 -0.5125  3.0598 -2.0178
20090SOL    HW265082  11.929   3.158   0.854 -0.2726  0.1879 -0.8974
20091SOL     OW65083   8.477   5.113   7.308 -0.6145  0.2996  0.3152
20091SOL    HW165084   8.516   5.188   7.263 -1.1982  1.5836  1.8762
20091SOL    HW265085   8.401   5.090   7.254  0.0257  0.2848 -0.6141
20092SOL     OW65086   3.005   9.249   5.608  0.2817 -0.3379 -0.5129
20092SOL    HW165087   3.004   9.298   5.690  0.1863  0.5096 -1.0149
20092SOL    HW265088   3.016   9.315   5.540 -0.6575 -0.9303 -1.2626
20093SOL     OW65089   2.969  10.422   6.652 -0.1192 -0.1854  0.2488
20093SOL    HW165090   2.935  10.485   6.589 -2.5185 -1.7091 -0.1312
20093SOL    HW265091   2.997  10.475   6.727 -0.0650  1.4357 -0.8715
20094SOL     OW65092   4.384   5.786   7.457  0.5853  0.3773 -0.1801
20094SOL    HW165093   4.311   5.768   7.516  1.3373  0.5430  0.8226
20094SOL    HW265094   4.407   5.700   7.421  1.6358 -0.1082  1.5854
20095SOL     OW65095   3.490   6.847  10.381  0.1210  0.8062  0.0538
20095SOL    HW165096   3.429   6.779  10.409 -1.6277  1.8787 -0.9384
20095SOL    HW265097   3.515   6.821  10.292  1.3396  0.2586  0.5315
20096SOL     OW65098   8.886   6.601   6.030  0.3360 -0.0469  0.3397
20096SOL    HW165099   8.816   6.540   6.008  0.7410 -0.1688 -0.6464
20096SOL    HW265100   8.846   6.662   6.093 -0.5721 -0.2762 -0.0030
20097SOL     OW65101   8.441   5.223   6.260 -0.4267  0.2758  0.0556
20097SOL    HW165102   8.420   5.162   6.190 -2.1567 -0.4220  1.1210
20097SOL    HW265103   8.391   5.302   6.239 -0.8699  0.1002  0.4235
20098SOL     OW65104   2.169   9.058  11.505 -0.0039  0.4087  0.2531
20098SOL    HW165105   2.128   8.975  11.529 -2.5761  0.8498 -2.1364
20098SOL    HW265106   2.177   9.106  11.587 -2.4739 -0.5632  1.1416
20099SOL     OW65107   5.512   9.026  12.060  0.2356 -0.3000  0.1557
20099SOL    HW165108   5.497   9.088  12.131  0.7169 -0.0099  0.0044
20099SOL    HW265109   5.479   8.943  12.094  1.4910 -0.4169  1.1771
20100SOL     OW65110   6.196   9.360   4.595 -0.6418 -0.3774  0.1563
20100SOL    HW165111   6.160   9.272   4.605 -0.6690 -0.4763 -0.7190
20100SOL    HW265112   6.192   9.377   4.501 -0.2729  0.4068  0.2728
20101SOL     OW65113  10.380   7.792   9.432  0.5367  0.4196  0.0586
20101SOL    HW165114  10.410   7.865   9.485 -0.5891  0.3923  0.7729
20101SOL    HW265115  10.289   7.813   9.411  0.8472  0.2642 -1.6028
20102SOL     OW65116   9.728  12.000  10.858  0.3970 -0.9726 -0.0861
20102SOL    HW165117   9.644  12.026  10.821  0.2288 -0.9815  0.2845
20102SOL    HW265118   9.748  11.915  10.819 -0.4654 -1.6602  0.9042
20103SOL     OW65119   8.681  11.465   2.307 -0.3698 -0.0781 -0.1310
20103SOL    HW165120   8.639  11.415   2.237  0.4168 -0.1685 -0.5555
20103SOL    HW265121   8.767  11.487   2.272  0.3304 -0.7660  1.1044
20104SOL     OW65122   7.224   7.040   6.197  0.2496  0.5512 -0.6762
20104SOL    HW165123   7.166   6.988   6.253  0.7293 -0.6695 -1.2942
20104SOL    HW265124   7.186   7.031   6.109  0.2861  1.3330 -0.7758
20105SOL     OW65125   9.041  10.215   3.763 -0.5837 -0.7374  0.1211
20105SOL    HW165126   9.019  10.180   3.849 -1.5293  1.6691  0.9113
20105SOL    HW265127   8.958  10.241   3.725  0.0652  0.7074 -0.3837
20106SOL     OW65128   9.356   6.299   4.630  0.2969  0.0672 -0.1047
20106SOL    HW165129   9.387   6.252   4.553  2.1349 -0.2545  0.7496
20106SOL    HW265130   9.431   6.353   4.657 -1.4688  3.0283 -0.6251
20107SOL     OW65131   6.346   5.833   5.255  0.3611  0.4961  0.5716
20107SOL    HW165132   6.395   5.780   5.318  0.7611 -0.3919 -0.4444
20107SOL    HW265133   6.410   5.895   5.222 -0.1370  1.7384  1.8448
20108SOL     OW65134   3.509  10.410   3.519 -0.5527  0.3212 -0.1766
20108SOL    HW165135   3.461  10.388   3.599  3.0991 -0.5605  2.0092
20108SOL    HW265136   3.521  10.504   3.522 -1.8102  0.5111 -0.6047
20109SOL     OW65137   3.495   9.834  10.135 -0.4745  0.1823  0.4138
20109SOL    HW165138   3.455   9.918  10.158 -0.2291  0.4405 -0.1016
20109SOL    HW265139   3.423   9.771  10.142 -0.7158  0.4729  0.5602
20110SOL     OW65140   6.468   1.001   0.193 -0.3902 -0.3451  0.1558
20110SOL    HW165141   6.438   0.947   0.266  0.4879  1.2763  1.7890
20110SOL    HW265142   6.558   0.973   0.178  0.2427  0.9581  1.3555
20111SOL     OW65143  11.776   3.423   6.803 -0.5412 -0.3492 -0.5177
20111SOL    HW165144  11.718   3.347   6.805  1.5878 -2.1039 -1.0077
20111SOL    HW265145  11.821   3.421   6.887 -0.8141  0.6974 -0.3353
20112SOL     OW65146   1.162   8.951   2.814 -0.2475  0.1262  0.0807
20112SOL    HW165147   1.252   8.918   2.823  0.3309  1.5833 -0.1049
20112SOL    HW265148   1.121   8.891   2.751  0.5344 -0.6619  0.2980
20113SOL     OW65149  11.753   3.360   0.059  0.2169  0.5161  0.2899
20113SOL    HW165150  11.823   3.420   0.083  2.1138 -1.6287  0.4456
20113SOL    HW265151  11.742   3.304   0.136 -0.5764 -0.1667 -0.3038
20114SOL     OW65152  11.677   1.862   3.152  0.1403 -0.5891  0.0484
20114SOL    HW165153  11.677   1.945   3.200  1.8631  0.6902 -2.0044
20114SOL    HW265154  11.764   1.824   3.170 -0.8596 -2.3908  1.5210
20115SOL     OW65155   2.860   5.161   0.616 -0.0017  0.6338 -0.3884
20115SOL    HW165156   2.909   5.220   0.674  2.4540 -0.6231 -1.0286
20115SOL    HW265157   2.910   5.080   0.618  0.0233  0.4401 -4.0338
20116SOL     OW65158  10.132  12.365   7.912  0.1524  0.0497  0.0853
20116SOL    HW165159  10.041  12.374   7.941  0.6932  0.6927  1.7219
20116SOL    HW265160  10.163  12.456   7.904  0.4868 -0.1469 -1.0980
20117SOL     OW65161   9.728  12.110   3.513  0.4617  0.4322  0.5810
20117SOL    HW165162   9.638  12.088   3.535  0.5648  0.2314  0.7965
20117SOL    HW265163   9.754  12.175   3.579 -0.5407  2.8662 -1.2438
20118SOL     OW65164   2.400   3.085  10.723 -0.1886 -0.0991  0.3156
20118SOL    HW165165   2.397   3.035  10.642  1.1571  1.7856 -0.9778
20118SOL    HW265166   2.491   3.078  10.753 -0.6320 -0.6546  1.6203
20119SOL     OW65167  11.798   3.996   1.263 -0.9536 -0.4052  0.2242
20119SOL    HW165168  11.886   3.960   1.275 -0.7776 -0.3462 -0.8223
20119SOL    HW265169  11.812   4.088   1.241 -1.2780 -0.3729  0.1466
20120SOL     OW65170  11.058  12.489  12.547 -0.1683  0.1224  0.1378
20120SOL    HW165171  11.013  12.425  12.602  0.4502 -1.6242 -1.2879
20120SOL    HW265172  10.996  12.510  12.478 -0.6177  1.6475  0.9507
20121SOL     OW65173   2.768   1.295   4.059 -1.3334 -0.0956  0.0309
20121SOL    HW165174   2.747   1.252   4.142 -0.1205  0.8698  0.8743
20121SOL    HW265175   2.805   1.380   4.085 -1.9636  0.7016 -1.5354
20122SOL     OW65176   1.410   3.893   4.039  0.2139  0.4574  0.0538
20122SOL    HW165177   1.337   3.935   3.993 -0.8587 -0.1142  1.1526
20122SOL    HW265178   1.372   3.865   4.122  1.4015 -0.9085  0.1705
20123SOL     OW65179   5.789   1.297   6.851  0.3195 -0.0353 -0.6491
20123SOL    HW165180   5.708   1.255   6.820  0.2384  0.6595 -1.4328
20123SOL    HW265181   5.784   1.292   6.946 -1.4870  1.4839 -0.5946
20124SOL     OW65182   9.564   5.781   2.585 -0.5528 -0.0455  0.0587
20124SOL    HW165183   9.595   5.826   2.663 -1.1287  0.9103 -0.2533
20124SOL    HW265184   9.531   5.697   2.617 -0.1787  0.0631  0.7439
20125SOL     OW65185   5.152   7.154   8.297  0.0705  0.2179 -0.4371
20125SOL    HW165186   5.073   7.151   8.244 -0.2405  2.9420 -0.2645
20125SOL    HW265187   5.120   7.155   8.387  0.5513 -2.9367 -0.0954
20126SOL     OW65188   3.917   5.662  10.487  0.2509 -0.2206  0.4942
20126SOL    HW165189   3.924   5.572  10.520  0.7104  0.0120  1.0484
20126SOL    HW265190   3.832   5.665  10.443  1.2180 -1.6029 -1.6198
20127SOL     OW65191  11.058   6.977  12.509  0.4522 -0.3664  0.1096
20127SOL    HW165192  11.023   7.063  12.490  1.9271 -0.2462 -2.4591
20127SOL    HW265193  11.149   6.993  12.536  0.4332 -1.0517  0.6194
20128SOL     OW65194   7.742   4.849  10.823 -0.5624  0.0371 -0.7530
20128SOL    HW165195   7.828   4.807  10.824 -0.8374 -0.5465 -1.3464
20128SOL    HW265196   7.761   4.942  10.836 -0.0101 -0.3295  1.4947
20129SOL     OW65197   7.262   1.404   4.716 -0.7511  0.1564 -0.4187
20129SOL    HW165198   7.299   1.463   4.782  1.0070 -1.1267 -0.1833
20129SOL    HW265199   7.203   1.347   4.766  0.1671 -0.4641 -0.0045
20130SOL     OW65200   4.328   3.911  11.157  0.1030  0.2197  0.1031
20130SOL    HW165201   4.271   3.834  11.161  1.6018 -0.9044  0.9669
20130SOL    HW265202   4.371   3.905  11.071 -0.4470  0.5986 -0.2007
20131SOL     OW65203  12.265  11.125   0.603 -0.4878  0.4850 -0.0022
20131SOL    HW165204  12.256  11.070   0.525  0.1831  0.0529  0.2139
20131SOL    HW265205  12.355  11.158   0.599 -1.2404  2.6361 -0.8089
20132SOL     OW65206  11.760   6.023   6.798  0.0850 -0.6561 -0.3923
20132SOL    HW165207  11.682   6.002   6.746 -0.7222 -0.2673  0.6508
20132SOL    HW265208  11.733   6.094   6.856  0.5053 -2.0722  1.6483
20133SOL     OW65209  12.487   2.923   9.454  0.8252  0.1589 -0.3428
20133SOL    HW165210  12.551   2.948   9.387  0.8903  0.0355 -0.3271
20133SOL    HW265211  12.405   2.913   9.406  0.4114  2.0588 -0.0851
20134SOL     OW65212  12.539   8.974   6.551  0.2942  0.1932  0.1370
20134SOL    HW165213  12.490   9.009   6.476  1.1342 -0.8634 -0.9427
20134SOL    HW265214  12.487   8.901   6.583  0.1466  0.3778  0.3218
20135SOL     OW65215  10.701   0.985   0.730  0.3268 -0.3816  0.2204
20135SOL    HW165216  10.684   1.015   0.819  1.3862  1.7723 -0.2407
20135SOL    HW265217  10.791   1.014   0.712  1.0119 -2.8224 -0.7639
20136SOL     OW65218  11.220   0.602   0.151 -0.3900  0.0763 -0.3284
20136SOL    HW165219  11.127   0.616   0.165 -0.2981  0.3308  0.0669
20136SOL    HW265220  11.229   0.508   0.137 -0.5808 -0.1088  0.7144
20137SOL     OW65221   9.617   9.606   7.059  0.6903 -0.1574 -0.0563
20137SOL    HW165222   9.709   9.615   7.083  1.2830 -4.0966 -0.1829
20137SOL    HW265223   9.576   9.566   7.136 -0.5921  0.1895 -0.5281
20138SOL     OW65224   1.363   8.576   8.901  0.2741  0.3309 -0.6462
20138SOL    HW165225   1.382   8.597   8.993 -1.6587  0.6892 -0.2931
20138SOL    HW265226   1.388   8.484   8.892 -0.0518  0.1237  0.4121
20139SOL     OW65227   6.791   7.458   0.534  0.1064  0.1630  0.2466
20139SOL    HW165228   6.778   7.553   0.532 -0.6261  0.0853  0.8982
20139SOL    HW265229   6.711   7.423   0.494 -0.4606 -0.2300  1.6573
20140SOL     OW65230  11.246   4.219   8.187 -0.5116 -0.6124  0.2304
20140SOL    HW165231  11.255   4.156   8.258  2.7749  0.1442  0.6720
20140SOL    HW265232  11.331   4.218   8.144 -1.8321  0.2641 -2.6175
20141SOL     OW65233   3.703   8.266   8.565  0.0562  0.4301 -0.0875
20141SOL    HW165234   3.789   8.279   8.525 -0.4692  1.2130 -1.0042
20141SOL    HW265235   3.722   8.237   8.654  1.2973  2.3407  0.3185
20142SOL     OW65236   9.357   8.670  12.456  0.2290  0.1381  0.1455
20142SOL    HW165237   9.357   8.669  12.360  0.9865  1.5103  0.1129
20142SOL    HW265238   9.271   8.635  12.480 -0.6041  1.2559 -1.0724
20143SOL     OW65239  10.695  12.361   8.461  0.1245 -0.0347 -0.3025
20143SOL    HW165240  10.641  12.437   8.486  1.4710  0.4005  1.4491
20143SOL    HW265241  10.707  12.371   8.366  0.4817  2.1068 -0.0798
20144SOL     OW65242   8.690  12.300  11.169  0.7898  0.1828 -0.7678
20144SOL    HW165243   8.759  12.242  11.202  0.3287 -0.2543 -0.5593
20144SOL    HW265244   8.620  12.241  11.143 -0.6986  0.7343  1.7467
20145SOL     OW65245   6.386   6.808   3.082  0.2442 -0.4647 -0.4391
20145SOL    HW165246   6.315   6.746   3.096 -0.3791  0.2151 -0.5383
20145SOL    HW265247   6.354   6.890   3.119  1.5509 -0.4892  0.8154
20146SOL     OW65248   9.757   8.917  11.137  0.0674  0.1970  0.2399
20146SOL    HW165249   9.839   8.961  11.158 -0.1549 -0.7427  3.6446
20146SOL    HW265250   9.689   8.983  11.153  0.0023  0.8711 -2.2614
20147SOL     OW65251   7.308   1.443   1.839 -0.0410 -0.2425 -0.1482
20147SOL    HW165252   7.302   1.384   1.764 -1.6652 -0.7297  0.3149
20147SOL    HW265253   7.223   1.487   1.842 -0.0055 -0.2044  1.3638
20148SOL     OW65254   9.122   3.064   0.727 -0.2712  0.0896  0.0901
20148SOL    HW165255   9.148   2.991   0.670  1.8679  1.5699 -0.9680
20148SOL    HW265256   9.079   3.126   0.668 -0.5214  0.4325  0.6327
20149SOL     OW65257   2.495   1.708   5.177  0.9198  0.3668  0.5149
20149SOL    HW165258   2.521   1.776   5.240 -0.1924  0.4511  0.8992
20149SOL    HW265259   2.464   1.636   5.232 -1.5161  1.0139  0.1050
20150SOL     OW65260   4.176   2.726   6.716  0.3881  0.4634 -0.0858
20150SOL    HW165261   4.206   2.711   6.626  0.9168 -3.1846  0.5466
20150SOL    HW265262   4.242   2.682   6.770 -1.5856 -0.2180  1.8853
20151SOL     OW65263   5.948  10.002   9.229  0.6688 -0.4903 -0.2641
20151SOL    HW165264   5.908   9.922   9.264 -1.6329  1.4407  1.9459
20151SOL    HW265265   6.024  10.018   9.285  1.6570 -1.4956 -1.2572
20152SOL     OW65266  12.031   3.400   5.315 -0.1656 -0.2973 -0.0797
20152SOL    HW165267  12.023   3.459   5.390 -0.9911 -0.2483 -0.1966
20152SOL    HW265268  11.968   3.434   5.252  0.4141 -0.4338 -0.7377
20153SOL     OW65269   0.098   5.466   3.382 -0.9233 -0.1057 -0.5248
20153SOL    HW165270   0.050   5.549   3.375  1.1004  1.1820 -0.1232
20153SOL    HW265271   0.087   5.425   3.296 -1.9673  0.5517 -0.7265
20154SOL     OW65272  11.123  11.529   5.070 -0.1637  0.3450 -0.1496
20154SOL    HW165273  11.041  11.494   5.034 -2.2292  1.4451  3.1100
20154SOL    HW265274  11.109  11.623   5.074  1.7708  0.6859 -0.5141
20155SOL     OW65275   4.568   0.778   5.619 -0.6940  0.5522  0.0351
20155SOL    HW165276   4.560   0.743   5.708  0.2700  0.8467  0.2573
20155SOL    HW265277   4.553   0.872   5.629 -0.0772  0.6609 -0.0217
20156SOL     OW65278   0.400   7.717  12.106 -0.1099 -0.5523 -0.1969
20156SOL    HW165279   0.313   7.677  12.105 -0.4122  0.0932 -0.0914
20156SOL    HW265280   0.455   7.654  12.152 -1.1392  0.2874  2.3228
20157SOL     OW65281   7.050  12.631   8.042  0.2088  0.0041  0.1969
20157SOL    HW165282   7.135  12.613   8.002 -0.6144 -0.1448 -1.5779
20157SOL    HW265283   7.009  12.545   8.054  0.6218  0.0022  1.8742
20158SOL     OW65284   4.177  10.382   2.166  0.5525  0.1682  0.1914
20158SOL    HW165285   4.154  10.358   2.076  0.5296  0.7119  0.0485
20158SOL    HW265286   4.242  10.451   2.156  3.6760 -2.4513  0.5576
20159SOL     OW65287   2.810  11.095   5.293 -0.2188  0.1396  0.7763
20159SOL    HW165288   2.754  11.018   5.283 -1.1855  0.7156  1.5787
20159SOL    HW265289   2.750  11.170   5.287  0.7407  0.8598 -0.3020
20160SOL     OW65290   8.131   9.842  12.216  0.0528  0.0943 -0.3620
20160SOL    HW165291   8.079   9.919  12.193  1.0170  0.6395 -0.7461
20160SOL    HW265292   8.182   9.869  12.292  0.1197 -0.2972 -0.2632
20161SOL     OW65293   6.198   7.368   9.525  0.1837 -0.1881 -0.3866
20161SOL    HW165294   6.170   7.356   9.615 -2.7635  0.3786 -1.1216
20161SOL    HW265295   6.130   7.423   9.486  0.7320 -1.3529 -3.2356
20162SOL     OW65296   0.146   4.214  11.855 -1.0023  0.2282  0.5578
20162SOL    HW165297   0.179   4.129  11.884  0.5334  0.8083  0.6262
20162SOL    HW265298   0.093   4.246  11.928 -1.1236 -0.4246  0.7597
20163SOL     OW65299  11.759   8.315   3.684  0.1718  0.4201 -0.5848
20163SOL    HW165300  11.838   8.264   3.698 -0.7090 -0.5844  1.0676
20163SOL    HW265301  11.782   8.403   3.716 -0.0374 -0.4530  2.2745
20164SOL     OW65302   8.128  11.503  12.339  0.2635 -0.2559  0.1394
20164SOL    HW165303   8.142  11.499  12.245 -0.5749 -1.3756  0.0538
20164SOL    HW265304   8.182  11.577  12.368 -0.9537  1.3264 -1.4638
20165SOL     OW65305   0.898  10.717  11.841 -0.8069 -0.4175 -0.2952
20165SOL    HW165306   0.921  10.646  11.901  1.8438  0.2180 -0.4699
20165SOL    HW265307   0.973  10.776  11.842 -2.2019  1.5047 -1.4979
20166SOL     OW65308   8.118  10.400   8.881  0.5816 -0.3017 -0.4074
20166SOL    HW165309   8.036  10.411   8.832  0.2196 -1.7761 -0.1832
20166SOL    HW265310   8.178  10.463   8.841 -0.5366  0.5450 -0.8301
20167SOL     OW65311   9.357  11.452   2.760  0.3749  0.5758  0.5808
20167SOL    HW165312   9.396  11.513   2.698  0.1593  0.9054  0.7638
20167SOL    HW265313   9.311  11.387   2.706  1.0515  0.2671  0.3694
20168SOL     OW65314   6.529   7.671   3.651 -0.5672  0.4105  0.4181
20168SOL    HW165315   6.441   7.677   3.690  0.4981  1.7601  2.8615
20168SOL    HW265316   6.586   7.652   3.726  1.2863 -0.0199 -1.0459
20169SOL     OW65317   3.902   2.690   0.640  0.0089 -0.0664  0.1907
20169SOL    HW165318   3.852   2.768   0.617  0.2094  0.1695  0.5421
20169SOL    HW265319   3.849   2.617   0.606 -0.9240  0.1373  1.1373
20170SOL     OW65320  12.280  10.565  12.145 -0.0990 -0.8217  0.0870
20170SOL    HW165321  12.212  10.623  12.110  0.0574  0.2672  1.4873
20170SOL    HW265322  12.237  10.518  12.217  1.1298  1.6628  2.6509
20171SOL     OW65323   2.858   4.525  11.690  0.1121  0.1593 -0.2951
20171SOL    HW165324   2.811   4.486  11.616 -1.0591 -0.1111  0.5787
20171SOL    HW265325   2.890   4.451  11.740  3.9365  0.2162 -2.2643
20172SOL     OW65326   1.738   3.990   3.348  0.9802 -0.1101  0.2320
20172SOL    HW165327   1.743   4.075   3.304  0.4236 -1.2534 -2.1842
20172SOL    HW265328   1.645   3.969   3.350  1.2025 -1.2102 -0.3316
20173SOL     OW65329   9.564   4.915   8.778  0.4490  0.5223 -0.2632
20173SOL    HW165330   9.516   4.885   8.700  1.0905  1.7787 -1.1713
20173SOL    HW265331   9.561   4.840   8.837 -1.8852  0.2660 -0.6157
20174SOL     OW65332  11.288   1.984   6.686  0.2762 -0.2190 -0.1343
20174SOL    HW165333  11.371   2.019   6.718  0.0007  0.9604 -0.6556
20174SOL    HW265334  11.225   2.054   6.703 -0.7205 -1.2862  0.7059
20175SOL     OW65335   3.795  10.985   3.653 -0.0978  0.5331  0.4513
20175SOL    HW165336   3.874  10.955   3.698  0.1537  0.3164 -0.1348
20175SOL    HW265337   3.820  11.067   3.612  0.0205  0.1266 -0.2998
20176SOL     OW65338   1.609   4.663   5.349 -0.1313  0.0372  0.2345
20176SOL    HW165339   1.694   4.707   5.347 -0.9656  1.7409 -2.5495
20176SOL    HW265340   1.547   4.732   5.371 -0.9973 -0.8114  0.5148
20177SOL     OW65341   4.834   4.698  12.576  0.3555  0.1050  0.1732
20177SOL    HW165342   4.773   4.720  12.505  0.3289  1.7636  0.6571
20177SOL    HW265343   4.885   4.778  12.589  1.0346 -0.4929  1.3642
20178SOL     OW65344   5.841   0.310   1.209  0.3375  0.2927  0.0413
20178SOL    HW165345   5.790   0.391   1.199 -0.2500 -0.1812 -0.9566
20178SOL    HW265346   5.924   0.339   1.246 -0.4536  1.1485  1.2391
20179SOL     OW65347   1.106   9.264   8.851 -0.1711  0.1150  0.0241
20179SOL    HW165348   1.195   9.235   8.873  0.2412  1.0151 -0.4251
20179SOL    HW265349   1.110   9.286   8.758 -1.4229 -1.8375 -0.5581
20180SOL     OW65350   3.461   2.258   1.405 -0.7954 -0.9883  0.3519
20180SOL    HW165351   3.457   2.297   1.318  0.0163 -0.3350  0.5905
20180SOL    HW265352   3.539   2.297   1.445 -1.1240 -1.3277  1.3510
20181SOL     OW65353  10.817   8.207  11.263  0.3919  0.0339  0.2782
20181SOL    HW165354  10.790   8.179  11.176 -0.8704  2.1348 -0.0849
20181SOL    HW265355  10.780   8.141  11.322 -2.0279  0.5566 -0.5474
20182SOL     OW65356   6.376   2.093  12.116  0.1274  0.4935 -0.0846
20182SOL    HW165357   6.318   2.143  12.058  0.2857  0.1540 -0.5405
20182SOL    HW265358   6.364   2.002  12.090  1.7993  0.5189 -1.0691
20183SOL     OW65359   9.741   6.821  10.335 -0.2263 -0.6319  0.4482
20183SOL    HW165360   9.678   6.886  10.365  0.5404  0.6814 -0.6450
20183SOL    HW265361   9.820   6.838  10.386  0.0302 -0.5802  0.0432
20184SOL     OW65362   5.770  10.235  10.286  0.4183 -0.3989  0.5721
20184SOL    HW165363   5.749  10.142  10.282 -2.3438  0.1830 -1.3943
20184SOL    HW265364   5.705  10.271  10.347  0.0466  0.5148 -0.3381
20185SOL     OW65365   0.088   6.035   9.230  0.2917 -0.7760  0.3709
20185SOL    HW165366   0.170   5.989   9.212  1.5534  1.9838 -1.8518
20185SOL    HW265367   0.115   6.126   9.244 -2.4376  0.7910 -3.0234
20186SOL     OW65368   3.118   2.970   9.701 -0.4580  0.2112 -0.7639
20186SOL    HW165369   3.069   2.983   9.782 -0.0590 -0.1378 -0.4638
20186SOL    HW265370   3.205   2.942   9.729  0.2636  1.8335 -1.2530
20187SOL     OW65371  11.279   8.921  11.038 -0.2249 -0.1408  0.1588
20187SOL    HW165372  11.298   9.009  11.007 -0.2997 -0.1379  0.1214
20187SOL    HW265373  11.333   8.864  10.983 -0.1469 -0.1162  0.2093
20188SOL     OW65374   7.265  11.554  12.416  1.2013 -0.1432  0.4548
20188SOL    HW165375   7.215  11.506  12.481 -0.9133  0.7328 -0.4156
20188SOL    HW265376   7.209  11.629  12.393  2.9973  0.9964 -0.4871
20189SOL     OW65377   1.705   3.833   9.336  0.6864  0.0403  0.3137
20189SOL    HW165378   1.793   3.871   9.334  1.9409 -2.5346 -3.0839
20189SOL    HW265379   1.666   3.857   9.252 -1.1786 -0.3848  1.0168
20190SOL     OW65380   3.389   4.237   1.553  0.4027  0.4286  0.2734
20190SOL    HW165381   3.364   4.197   1.470  1.5803 -0.3581  0.2673
20190SOL    HW265382   3.389   4.331   1.536 -0.5471  0.3423 -0.2638
20191SOL     OW65383   7.351   9.923   6.189 -0.0953  0.1814  0.3283
20191SOL    HW165384   7.310   9.841   6.218 -0.3072 -0.0292 -0.5556
20191SOL    HW265385   7.279   9.974   6.151  0.4748 -0.2630 -1.3983
20192SOL     OW65386   6.058   6.964  10.825  0.3429  0.1049 -0.1342
20192SOL    HW165387   6.021   6.895  10.770  0.2910  0.7517 -0.9330
20192SOL    HW265388   6.149   6.972  10.795 -0.0483  1.3825 -1.1088
20193SOL     OW65389  11.822   3.543   3.292 -0.4165 -0.4686 -0.2289
20193SOL    HW165390  11.752   3.598   3.326 -1.6351 -1.8432 -0.3875
20193SOL    HW265391  11.892   3.604   3.268 -2.2008  1.1393 -1.6428
20194SOL     OW65392   4.783   0.233   3.576 -0.0702 -0.2737 -0.4699
20194SOL    HW165393   4.794   0.317   3.619  0.4790 -1.1839  1.2381
20194SOL    HW265394   4.871   0.209   3.546 -0.5757  0.8272 -3.1965
20195SOL     OW65395   0.736   3.966   8.633 -0.1734 -0.6776  0.3927
20195SOL    HW165396   0.701   3.897   8.690 -1.8781  0.7081  1.0889
20195SOL    HW265397   0.732   4.045   8.685  0.5665  0.1967 -0.8259
20196SOL     OW65398  10.879   4.818   5.187  0.0861  0.1188  0.2203
20196SOL    HW165399  10.899   4.902   5.146  0.9836  0.5321  1.4532
20196SOL    HW265400  10.925   4.754   5.134 -0.8779  0.3415 -0.9294
20197SOL     OW65401  11.888  11.997   6.106  0.4650 -0.0181  0.2991
20197SOL    HW165402  11.858  11.959   6.189  1.0399  0.8944  0.9394
20197SOL    HW265403  11.841  12.080   6.099  1.7221  0.7499  0.6118
20198SOL     OW65404   8.313   1.294   1.581  0.0769  0.4627 -0.0329
20198SOL    HW165405   8.299   1.379   1.541 -1.4273  0.1296 -0.2709
20198SOL    HW265406   8.307   1.310   1.675  0.1478  0.6659 -0.0633
20199SOL     OW65407  10.300   4.006   4.583 -0.0156  0.1280 -0.2686
20199SOL    HW165408  10.370   4.007   4.518 -0.4413 -0.2392 -0.7437
20199SOL    HW265409  10.307   4.090   4.627  1.0372 -0.0980  0.0350
20200SOL     OW65410   2.477   6.884  10.678 -0.2176  0.0309  0.5145
20200SOL    HW165411   2.509   6.937  10.605 -1.6363  0.0061 -0.1554
20200SOL    HW265412   2.384   6.870  10.659 -0.9897  1.1588  2.9948
20201SOL     OW65413  10.727  11.308  10.017 -0.4244  0.0651 -0.4953
20201SOL    HW165414  10.807  11.292   9.967 -1.1514 -1.1998 -1.3098
20201SOL    HW265415  10.691  11.221  10.033 -2.0619  0.6392 -0.8809
20202SOL     OW65416   2.993   8.344   5.830 -0.1476  0.1748  0.2344
20202SOL    HW165417   3.052   8.403   5.877 -0.0475  0.2481  0.0203
20202SOL    HW265418   2.936   8.402   5.779 -0.4310  0.1053  0.4680
20203SOL     OW65419   2.527   0.476  10.808 -0.1017  0.2532 -0.7175
20203SOL    HW165420   2.520   0.424  10.888 -0.2304  0.2569 -0.7256
20203SOL    HW265421   2.468   0.433  10.746 -2.6463  2.1453  0.2196
20204SOL     OW65422  10.492   3.020   0.444 -0.0866  0.8234  0.1176
20204SOL    HW165423  10.498   2.968   0.524  1.5485  1.4871  0.4595
20204SOL    HW265424  10.526   2.963   0.375 -1.4549  0.2675 -0.1339
20205SOL     OW65425  11.867   7.758  11.162 -0.4241 -0.0115 -0.0086
20205SOL    HW165426  11.821   7.698  11.221 -1.7765  2.2297  1.3448
20205SOL    HW265427  11.810   7.764  11.086 -0.8597  0.4121  0.3460
20206SOL     OW65428   9.575   3.311   8.973 -0.3026  0.0274  0.2316
20206SOL    HW165429   9.657   3.355   8.993  0.6811 -0.9001 -1.4841
20206SOL    HW265430   9.522   3.320   9.052  1.3963  0.7600  1.3298
20207SOL     OW65431   5.001   8.745   7.863 -0.0608  0.5100 -0.6016
20207SOL    HW165432   5.042   8.673   7.815  0.0283  0.8525 -1.0475
20207SOL    HW265433   4.907   8.730   7.852 -0.0578 -0.0030  0.0152
20208SOL     OW65434   7.735  12.379  11.082  0.1265  0.1484 -0.7617
20208SOL    HW165435   7.693  12.314  11.138 -2.5132  0.7960 -1.7995
20208SOL    HW265436   7.826  12.351  11.075  0.1163 -0.9398  2.3024
20209SOL     OW65437   2.320  11.145  10.210 -0.3893  0.2642  0.1104
20209SOL    HW165438   2.342  11.227  10.255  0.5836  0.3423 -0.4744
20209SOL    HW265439   2.313  11.081  10.280  1.4956  0.2997  0.3965
20210SOL     OW65440   2.831   6.873   5.607 -0.2358  0.2942  0.2954
20210SOL    HW165441   2.895   6.828   5.551  1.3639  1.5956  0.9946
20210SOL    HW265442   2.789   6.802   5.655  1.9291 -0.5583  1.0702
20211SOL     OW65443   1.127  11.226   0.413  0.2964  0.7319 -0.4519
20211SOL    HW165444   1.061  11.265   0.355 -0.4697 -1.1581 -0.9365
20211SOL    HW265445   1.080  11.211   0.495  0.6224  0.9242 -0.2276
20212SOL     OW65446   2.741   6.081  11.545  0.2614  0.1524 -0.4534
20212SOL    HW165447   2.686   6.050  11.617 -0.7294 -0.6015 -1.5050
20212SOL    HW265448   2.813   6.018  11.541  0.1078 -0.0301 -0.3772
20213SOL     OW65449   5.710  10.798   9.203 -0.3587 -0.0961  0.4827
20213SOL    HW165450   5.679  10.708   9.209 -0.1020 -0.1502  1.1562
20213SOL    HW265451   5.642  10.844   9.155 -0.8250 -0.5035  0.7466
20214SOL     OW65452  10.388   6.039   0.902 -0.3964 -0.1289  0.0613
20214SOL    HW165453  10.463   5.986   0.875 -2.6588 -2.6474 -1.7123
20214SOL    HW265454  10.381   6.024   0.996 -0.1420 -1.9200 -0.1688
20215SOL     OW65455   8.010  11.152   1.189 -0.4384 -0.2858 -0.3642
20215SOL    HW165456   8.054  11.067   1.196 -1.1942 -0.6616 -0.1259
20215SOL    HW265457   7.935  11.145   1.248  0.2218  1.0166  0.6813
20216SOL     OW65458   9.247  10.649  10.079 -1.1596  0.0572  0.1303
20216SOL    HW165459   9.331  10.602  10.077 -0.5364  1.1535 -1.0496
20216SOL    HW265460   9.196  10.611  10.008 -1.4854 -0.2637  0.5280
20217SOL     OW65461   2.161   9.882  12.433 -0.6423 -0.3165  0.2153
20217SOL    HW165462   2.071   9.850  12.430 -0.3607 -1.1466  0.3944
20217SOL    HW265463   2.215   9.806  12.411  0.1807 -0.5142  2.6318
20218SOL     OW65464   4.051   8.291   9.450  0.0545 -0.7804 -0.6432
20218SOL    HW165465   4.084   8.380   9.446  0.2893 -0.7092  1.5279
20218SOL    HW265466   3.966   8.298   9.493 -0.5067 -1.5070 -1.5796
20219SOL     OW65467   2.810   2.232   9.662 -0.7017 -0.4930  0.0105
20219SOL    HW165468   2.906   2.230   9.663 -0.5498  1.1374 -2.4432
20219SOL    HW265469   2.787   2.310   9.712 -0.6927 -0.3882 -0.1476
20220SOL     OW65470   5.660   4.704  11.859 -0.2371  0.5447  0.1504
20220SOL    HW165471   5.654   4.795  11.830  0.4434  0.9045  1.1106
20220SOL    HW265472   5.671   4.708  11.954  4.0300 -0.2694 -0.0878
20221SOL     OW65473   7.214  10.176   6.375  0.0312 -0.3845 -0.2960
20221SOL    HW165474   7.282  10.199   6.438  0.3528  0.4032 -0.9175
20221SOL    HW265475   7.258  10.179   6.290 -0.8811  0.6073 -0.7496
20222SOL     OW65476   6.271   8.791   1.001 -0.6306 -0.3558 -0.1071
20222SOL    HW165477   6.296   8.789   0.909 -1.0050 -1.4099 -0.2061
20222SOL    HW265478   6.218   8.712   1.012 -0.1863 -0.4985  1.1224
20223SOL     OW65479   5.623   0.133   8.807 -0.3132 -0.1746 -0.0862
20223SOL    HW165480   5.570   0.209   8.832  0.0657  0.2364 -0.4963
20223SOL    HW265481   5.634   0.141   8.713  2.1067  0.8868  0.1901
20224SOL     OW65482   2.185  11.635   2.781 -0.5870  0.0934  0.0494
20224SOL    HW165483   2.142  11.650   2.865 -0.0005 -0.2177  0.4134
20224SOL    HW265484   2.128  11.574   2.735 -0.2093 -0.8443  0.7986
20225SOL     OW65485   3.739   0.504  10.409  0.9777  0.2184  0.0570
20225SOL    HW165486   3.766   0.593  10.384  0.2387 -0.0331 -1.8172
20225SOL    HW265487   3.693   0.516  10.492  2.6059  1.2990  0.8471
20226SOL     OW65488   6.722   2.676   0.342 -0.0117  0.4214 -0.3470
20226SOL    HW165489   6.728   2.737   0.415  1.7821  2.0847 -1.7699
20226SOL    HW265490   6.643   2.701   0.295 -1.2587 -0.7528  1.0191
20227SOL     OW65491   8.555   9.182   7.181  0.2822 -0.9508 -0.5340
20227SOL    HW165492   8.469   9.171   7.220 -0.3663  0.1680 -1.5637
20227SOL    HW265493   8.608   9.110   7.216  0.1560  0.6118  3.3304
20228SOL     OW65494   0.712   4.667   0.829  0.8623  0.3214  0.1319
20228SOL    HW165495   0.764   4.722   0.770  3.0975  0.5334  2.1299
20228SOL    HW265496   0.657   4.729   0.877 -2.7798 -0.0240 -3.1234
20229SOL     OW65497   6.828   5.822  11.647 -0.1000  0.0565  0.1004
20229SOL    HW165498   6.885   5.899  11.661  0.3595 -0.2942  0.1848
20229SOL    HW265499   6.739   5.856  11.658 -0.1229  1.2947 -3.0016
20230SOL     OW65500   4.898   0.872   8.764 -0.1163 -0.1134  0.1006
20230SOL    HW165501   4.970   0.858   8.825 -1.1067 -0.8471  1.1525
20230SOL    HW265502   4.922   0.951   8.716  1.9539 -1.0131 -0.4639
20231SOL     OW65503   8.741   5.233  10.146  0.3403 -0.1203 -0.1048
20231SOL    HW165504   8.736   5.252  10.239  2.7528 -0.2729  0.1005
20231SOL    HW265505   8.714   5.314  10.103  1.5381  0.7462  0.7495
20232SOL     OW65506   0.685   8.185   5.065 -0.2099  0.4313 -0.3457
20232SOL    HW165507   0.684   8.260   5.124 -1.2583  1.1120 -1.1994
20232SOL    HW265508   0.778   8.172   5.045 -0.0119  1.4661 -0.1538
20233SOL     OW65509   8.466   1.571   7.509 -0.8525  0.0325 -0.4370
20233SOL    HW165510   8.539   1.606   7.458 -1.2791 -0.1565 -1.1960
20233SOL    HW265511   8.389   1.587   7.454 -1.5169  1.0259  0.7225
20234SOL     OW65512   9.345   1.372   3.893 -1.1814  0.1729  0.3413
20234SOL    HW165513   9.417   1.322   3.930 -1.9240 -1.3686 -0.1782
20234SOL    HW265514   9.383   1.418   3.819 -0.8668 -1.3907 -0.5294
20235SOL     OW65515   4.501   9.334  10.205  0.5181 -0.2422  0.2218
20235SOL    HW165516   4.516   9.355  10.113  0.3547  0.3287  0.3238
20235SOL    HW265517   4.567   9.385  10.252  0.4939 -0.4069  0.4341
20236SOL     OW65518   1.039  10.727   1.880 -0.8143 -0.4366  0.0640
20236SOL    HW165519   1.005  10.774   1.804 -0.1490 -0.8967 -0.5261
20236SOL    HW265520   1.040  10.636   1.853  2.0445 -0.3369 -0.4059
20237SOL     OW65521  10.256   5.189   1.565  0.0682 -0.4163 -0.1951
20237SOL    HW165522  10.217   5.230   1.642 -0.0408 -0.4866 -0.2132
20237SOL    HW265523  10.224   5.099   1.566 -0.3010 -0.2900 -0.5765
20238SOL     OW65524  11.561   5.751  10.685 -0.1480 -0.0680 -0.3975
20238SOL    HW165525  11.481   5.803  10.678  0.8215  1.5603  0.0228
20238SOL    HW265526  11.614   5.777  10.610 -0.3616 -1.8772 -1.2465
20239SOL     OW65527  11.529   7.861   5.011 -0.1704 -0.2633 -0.1708
20239SOL    HW165528  11.610   7.844   4.963 -0.7908 -0.9902 -0.9966
20239SOL    HW265529  11.535   7.807   5.090  0.6427  0.5669  0.3497
20240SOL     OW65530  10.567   4.920  12.284  0.2461  0.2210 -0.1280
20240SOL    HW165531  10.621   4.968  12.221  0.7539  2.7170  2.0317
20240SOL    HW265532  10.624   4.849  12.314  1.4755  1.3753  0.3583
20241SOL     OW65533   5.494   9.204   2.491  0.7755  0.0716 -0.2346
20241SOL    HW165534   5.461   9.235   2.406  1.2147  1.0015 -0.0813
20241SOL    HW265535   5.554   9.132   2.468 -0.3999 -0.8258 -0.5868
20242SOL     OW65536  12.484   1.273   9.206  0.1971 -0.1300  0.5625
20242SOL    HW165537  12.454   1.360   9.179 -0.3539 -0.0599  1.3874
20242SOL    HW265538  12.434   1.254   9.285 -0.2325 -1.5093 -0.0082
20243SOL     OW65539   5.534   7.820  10.441 -0.2007 -0.2738 -0.0941
20243SOL    HW165540   5.571   7.908  10.435 -1.0118  0.0460 -0.6534
20243SOL    HW265541   5.439   7.833  10.431 -0.4827 -1.0624  1.3297
20244SOL     OW65542  11.430   4.116   6.847  0.0761  0.4779  0.2357
20244SOL    HW165543  11.400   4.153   6.930  0.1322  0.1125  0.4220
20244SOL    HW265544  11.446   4.024   6.866  2.1625  0.8071  0.3799
20245SOL     OW65545   9.182   3.219   8.433  0.2910 -0.2755 -0.5412
20245SOL    HW165546   9.163   3.125   8.430  1.5128 -0.5265 -0.8529
20245SOL    HW265547   9.138   3.254   8.355 -3.2530  0.0733  1.4085
20246SOL     OW65548   7.642   7.406   9.672  0.2098 -0.1246  0.9675
20246SOL    HW165549   7.737   7.399   9.688  0.0253  0.9979  2.8452
20246SOL    HW265550   7.603   7.346   9.734 -0.3837  1.1407  1.8565
20247SOL     OW65551   3.026  11.345  12.265  0.6492 -0.4238  0.1373
20247SOL    HW165552   3.068  11.260  12.277 -2.2051 -1.7186  1.9521
20247SOL    HW265553   3.011  11.376  12.355 -0.9963  0.5824 -0.4535
20248SOL     OW65554   5.620   7.030  10.889  0.4109  0.2251  0.2991
20248SOL    HW165555   5.673   6.971  10.943 -0.4306  1.1250  2.1956
20248SOL    HW265556   5.530   7.001  10.903  0.2429 -1.7718 -3.4764
20249SOL     OW65557   6.879   8.670   2.336 -0.2543  0.2442  0.0775
20249SOL    HW165558   6.974   8.671   2.325 -0.3396  1.1335 -0.6854
20249SOL    HW265559   6.864   8.607   2.407  0.8089 -0.7388 -0.5353
20250SOL     OW65560   5.597   0.962   3.613  0.3020 -0.2981  0.7399
20250SOL    HW165561   5.637   0.875   3.622 -1.9942 -1.6425 -0.9740
20250SOL    HW265562   5.622   0.989   3.524  1.5216  1.1295  1.4851
20251SOL     OW65563   4.137   3.781  12.622 -0.1821 -0.3433  0.5630
20251SOL    HW165564   4.147   3.724  12.699  0.6736  0.1420  0.8166
20251SOL    HW265565   4.220   3.827  12.615 -0.0721 -0.7022 -0.9238
20252SOL     OW65566   4.980   3.215   6.755  0.2822 -0.4992 -0.5305
20252SOL    HW165567   5.015   3.146   6.812  1.6927  1.1528  0.7286
20252SOL    HW265568   4.976   3.175   6.669  2.0670 -1.8639 -0.0391
20253SOL     OW65569  12.305   7.892   8.081  0.2718 -0.1609  0.5248
20253SOL    HW165570  12.336   7.808   8.115  1.8603 -0.2929 -1.0986
20253SOL    HW265571  12.357   7.958   8.127  0.6793 -0.2074  0.1376
20254SOL     OW65572   7.976   2.571  11.065 -0.6234 -0.1351  0.2250
20254SOL    HW165573   7.908   2.639  11.065 -1.5077 -0.9553 -1.6273
20254SOL    HW265574   8.058   2.619  11.056 -0.7563  0.9627  3.4748
20255SOL     OW65575   8.948   4.411   2.113 -0.1455 -0.1254 -0.6460
20255SOL    HW165576   9.006   4.373   2.179  0.5461  1.1136 -0.5051
20255SOL    HW265577   8.860   4.384   2.141  0.1238  0.4145  0.8427
20256SOL     OW65578   0.295  11.309   3.579 -0.2920  0.7641  0.3022
20256SOL    HW165579   0.242  11.386   3.561 -1.6150 -0.0849  0.4300
20256SOL    HW265580   0.382  11.331   3.546 -0.9442  1.8500 -0.7609
20257SOL     OW65581  11.109  12.587   9.166 -0.5405  0.4967 -0.3257
20257SOL    HW165582  11.199  12.581   9.136  0.4215  2.1939  1.9401
20257SOL    HW265583  11.072  12.499   9.150  1.5966 -0.3312 -0.9864
20258SOL     OW65584  12.540   7.893   5.785 -0.5037 -0.2372  0.6374
20258SOL    HW165585  12.631   7.893   5.757 -0.9176  0.1191 -0.8283
20258SOL    HW265586  12.541   7.851   5.871  1.3106  1.7065  1.6655
20259SOL     OW65587  10.118   3.260   8.963  0.0038 -0.0845 -0.7042
20259SOL    HW165588  10.178   3.251   8.889  1.1546  0.2890  0.1410
20259SOL    HW265589  10.097   3.353   8.966  2.9703  0.6925  1.5869
20260SOL     OW65590  12.265   8.551   1.780  0.8482 -0.1562  1.0197
20260SOL    HW165591  12.201   8.502   1.833  0.4470  1.2582  1.8945
20260SOL    HW265592  12.217   8.627   1.748  1.1946 -0.7904 -1.1294
20261SOL     OW65593   6.547   7.253   7.552  0.1912 -0.1391 -0.0312
20261SOL    HW165594   6.466   7.225   7.595  0.5995 -1.4397 -0.0428
20261SOL    HW265595   6.551   7.200   7.472 -0.1061  1.5961 -1.2466
20262SOL     OW65596   2.389   3.927  12.534 -0.1736  0.1042  0.2624
20262SOL    HW165597   2.421   3.856  12.589 -0.5776 -0.8623 -0.7063
20262SOL    HW265598   2.298   3.938  12.559 -1.3574 -2.5332 -2.2667
20263SOL     OW65599   9.686  12.603   3.757  0.4497 -0.2495  0.8185
20263SOL    HW165600   9.751  12.571   3.695  1.5008  2.3534  0.4680
20263SOL    HW265601   9.726  12.590   3.843  1.3916  1.1614  0.6151
20264SOL     OW65602   3.564   2.650   3.451 -0.1369  0.2447  0.3678
20264SOL    HW165603   3.614   2.569   3.458 -1.2007 -0.3764  1.2145
20264SOL    HW265604   3.627   2.716   3.423  0.7560 -0.8721 -0.3243
20265SOL     OW65605  10.524   9.268  12.233 -0.2900  0.2368 -0.0036
20265SOL    HW165606  10.577   9.341  12.201  0.4191 -0.5571 -0.6783
20265SOL    HW265607  10.568   9.241  12.314 -0.3120  0.2849  0.0246
20266SOL     OW65608  11.047   9.438  10.717 -0.6946 -0.1841  0.0424
20266SOL    HW165609  11.124   9.456  10.663 -0.6102 -0.1828  0.1629
20266SOL    HW265610  11.079   9.445  10.807 -0.9049  0.1194  0.0954
20267SOL     OW65611   4.013  11.627   1.292  0.4307 -0.3024  0.0863
20267SOL    HW165612   4.000  11.563   1.362 -2.4348  0.8753  0.7444
20267SOL    HW265613   4.042  11.706   1.337 -2.1840  0.7016  0.1560
20268SOL     OW65614   5.584   2.955   5.614  0.8022  0.2502 -0.0242
20268SOL    HW165615   5.594   3.034   5.666  2.0710 -0.0402  0.2066
20268SOL    HW265616   5.512   2.908   5.655  1.1823  0.4665  0.8996
20269SOL     OW65617   8.058  12.220   9.146  0.0379  0.0146  0.1461
20269SOL    HW165618   8.089  12.181   9.064  2.2677  2.4696 -0.3191
20269SOL    HW265619   8.054  12.147   9.207 -0.9976 -1.7642 -1.9087
20270SOL     OW65620  10.034   1.569   2.872  0.4858  0.1591 -0.4499
20270SOL    HW165621  10.097   1.624   2.826 -0.6693 -0.2690 -2.6772
20270SOL    HW265622   9.951   1.615   2.864  0.2007  0.0051  1.1697
20271SOL     OW65623   9.694   0.402  11.984 -0.0374  0.5580  0.4775
20271SOL    HW165624   9.755   0.355  11.928 -0.7670 -0.1773  0.2686
20271SOL    HW265625   9.715   0.495  11.972  0.5137  0.3479 -0.1856
20272SOL     OW65626   7.092   7.089   5.953 -0.3634 -1.0638  0.1713
20272SOL    HW165627   7.112   7.057   5.865 -0.0597 -0.7080  0.1077
20272SOL    HW265628   7.089   7.184   5.944  3.2814 -0.6970  1.2246
20273SOL     OW65629   6.830   1.976   0.072  0.1843 -0.5325  0.0123
20273SOL    HW165630   6.753   1.931   0.107 -1.1536 -0.6856 -2.8044
20273SOL    HW265631   6.802   2.067   0.063 -0.2386 -0.8325 -2.2615
20274SOL     OW65632   0.897   2.137   3.132  0.1741 -0.5500  0.2940
20274SOL    HW165633   0.978   2.104   3.172  1.0755 -1.0025 -1.7943
20274SOL    HW265634   0.919   2.226   3.105  0.0602 -0.7665 -0.5129
20275SOL     OW65635   4.050   9.700   5.655 -0.4449  0.1332  0.1130
20275SOL    HW165636   4.026   9.618   5.699 -0.8037  0.5615  0.7364
20275SOL    HW265637   4.005   9.695   5.571  1.9494 -1.6699 -1.2033
20276SOL     OW65638  11.120   2.497   0.432  0.0534 -0.1712  0.2875
20276SOL    HW165639  11.151   2.441   0.503 -0.4719 -1.2044 -0.2725
20276SOL    HW265640  11.115   2.438   0.356 -1.1970  0.4571 -0.1452
20277SOL     OW65641  11.572   3.794   0.869 -0.1492 -0.3732 -0.0515
20277SOL    HW165642  11.601   3.885   0.867  1.3155 -0.6983  2.2695
20277SOL    HW265643  11.500   3.793   0.931  0.0900 -0.8509  0.2241
20278SOL     OW65644   6.417   7.782   4.643 -0.2409 -0.1674  0.3870
20278SOL    HW165645   6.446   7.772   4.733 -0.4405 -0.8939  0.3826
20278SOL    HW265646   6.451   7.704   4.598 -0.9133 -0.2750  0.0467
20279SOL     OW65647   7.586   6.204   0.346 -0.1707 -0.2545 -0.0506
20279SOL    HW165648   7.553   6.288   0.378  0.6120  0.4814 -1.1094
20279SOL    HW265649   7.644   6.227   0.273  1.5084 -1.5867  0.7979
20280SOL     OW65650   0.694   0.254   0.018 -0.4858 -0.1719 -0.0017
20280SOL    HW165651   0.741   0.335   0.040 -0.2362  0.1745 -1.7082
20280SOL    HW265652   0.630   0.281  -0.048 -2.5381 -0.8071  1.6257
20281SOL     OW65653  10.639   5.962   6.173 -0.2821 -0.1804 -0.3697
20281SOL    HW165654  10.692   5.917   6.107  0.5959  0.5036 -0.1600
20281SOL    HW265655  10.676   5.934   6.257 -0.4001  0.1198 -0.2151
20282SOL     OW65656   1.705   7.335  10.932  0.7001 -0.2196  0.1020
20282SOL    HW165657   1.677   7.305  11.019 -0.3454 -0.1099 -0.1840
20282SOL    HW265658   1.629   7.320  10.876  0.7755  1.2506 -0.4420
20283SOL     OW65659   8.289  10.628   0.239 -0.1533  0.2311  0.0224
20283SOL    HW165660   8.342  10.663   0.167  0.3178  1.2038  0.8284
20283SOL    HW265661   8.353  10.591   0.300 -0.3762  1.4963  1.0513
20284SOL     OW65662   8.890   7.464   3.611 -0.0388 -0.0400  0.6546
20284SOL    HW165663   8.815   7.443   3.555  2.6106 -1.0403 -2.9273
20284SOL    HW265664   8.899   7.559   3.603 -1.0141  0.1225  1.3187
20285SOL     OW65665   7.563  11.776   7.719  0.1172  0.0828  0.5181
20285SOL    HW165666   7.535  11.736   7.801  1.7975  1.0080  1.6052
20285SOL    HW265667   7.649  11.737   7.702 -0.5785 -0.7741 -1.3261
20286SOL     OW65668   0.624  11.986  10.647 -0.4927  0.3489 -0.6434
20286SOL    HW165669   0.538  12.018  10.676 -0.3122  1.7838 -1.5816
20286SOL    HW265670   0.674  11.974  10.728 -0.7561  1.9933 -0.1991
20287SOL     OW65671  10.098   0.876   6.063 -0.5894 -0.1207  0.0319
20287SOL    HW165672  10.189   0.850   6.077 -0.1274  1.0885 -0.5478
20287SOL    HW265673  10.061   0.881   6.151 -0.2819 -1.2210  0.2341
20288SOL     OW65674  10.727  12.176   1.255  0.7048 -0.1325  0.0957
20288SOL    HW165675  10.670  12.253   1.263 -0.5642 -1.0092 -0.1553
20288SOL    HW265676  10.804  12.208   1.208  0.9190  1.3224  1.3367
20289SOL     OW65677   0.366  12.474   5.665  0.0887 -0.1383  0.3378
20289SOL    HW165678   0.279  12.460   5.630 -0.0684 -0.1971  0.7474
20289SOL    HW265679   0.412  12.522   5.597 -0.0761 -0.6278 -0.1285
20290SOL     OW65680   9.402  10.090   2.505 -0.0045  0.4074 -0.0721
20290SOL    HW165681   9.309  10.100   2.527 -0.3363  1.8754 -1.8712
20290SOL    HW265682   9.411   9.997   2.486 -0.9836  0.1465  0.6157
20291SOL     OW65683   4.164   2.340   8.426  0.0068  0.0969 -0.0329
20291SOL    HW165684   4.173   2.274   8.495  0.6683  0.5122  0.2951
20291SOL    HW265685   4.076   2.327   8.392 -0.2250 -0.3187  0.6886
20292SOL     OW65686   4.511   5.361   1.832  0.1534 -0.3873  0.4471
20292SOL    HW165687   4.554   5.348   1.917  0.3854 -0.2794  0.3491
20292SOL    HW265688   4.433   5.306   1.835  0.7924 -1.3509  0.2723
20293SOL     OW65689  10.154  10.251   6.713 -0.3012  0.1322 -0.1168
20293SOL    HW165690  10.201  10.210   6.640 -0.5039 -1.3157  0.5195
20293SOL    HW265691  10.127  10.177   6.767 -1.8657  1.0521  0.4018
20294SOL     OW65692   6.565   0.968  12.444  0.7740 -0.0456 -0.4236
20294SOL    HW165693   6.594   1.054  12.415  1.1686 -0.4217 -1.1528
20294SOL    HW265694   6.488   0.986  12.498  1.3140  0.8227  0.0852
20295SOL     OW65695   3.559   4.060   4.374  0.0659 -0.4024 -0.2069
20295SOL    HW165696   3.623   4.074   4.305  0.0121  0.4007 -0.0963
20295SOL    HW265697   3.474   4.068   4.330 -0.0062  2.0081  0.2776
20296SOL     OW65698   1.644  10.569  11.839  0.1212 -0.1281  0.2438
20296SOL    HW165699   1.643  10.510  11.764  0.3648  1.1135 -0.7684
20296SOL    HW265700   1.588  10.526  11.904 -0.4592 -1.0159 -0.8127
20297SOL     OW65701  10.627   2.818   0.296  0.6494  0.4848 -0.5815
20297SOL    HW165702  10.635   2.814   0.201  0.9380 -0.9374 -0.5292
20297SOL    HW265703  10.606   2.728   0.322 -1.2226  1.1837  0.5641
20298SOL     OW65704   2.773   1.071  10.648 -0.0529  0.3412 -0.1530
20298SOL    HW165705   2.700   1.128  10.671 -2.0895 -1.7320 -1.0715
20298SOL    HW265706   2.787   1.087  10.554  0.1475  0.2003 -0.1477
20299SOL     OW65707  10.620   3.409   0.478  0.0991  0.0333  0.1344
20299SOL    HW165708  10.660   3.430   0.562 -0.4803 -1.2677  0.7535
20299SOL    HW265709  10.588   3.494   0.445 -2.0354  0.2571  2.4799
20300SOL     OW65710   2.630   3.536   0.227  0.3903 -0.4081  0.0799
20300SOL    HW165711   2.712   3.578   0.253  0.5748 -1.2898  0.9824
20300SOL    HW265712   2.566   3.565   0.293  0.3715 -1.0265  0.3367
20301SOL     OW65713   9.923   8.648   1.689 -0.1986 -0.3290  0.1349
20301SOL    HW165714   9.960   8.677   1.772  0.6202  0.7813 -0.5971
20301SOL    HW265715   9.980   8.685   1.623 -0.6718 -1.4357 -0.9337
20302SOL     OW65716   7.839   1.514   9.086 -0.4282 -0.4532 -0.1157
20302SOL    HW165717   7.825   1.596   9.132  1.4620 -0.7126  1.0522
20302SOL    HW265718   7.811   1.531   8.996 -1.4804  0.9772  0.4535
20303SOL     OW65719   5.126   6.718   3.138  0.5018 -0.4454 -0.5958
20303SOL    HW165720   5.117   6.691   3.046 -0.9881  1.6405 -1.1233
20303SOL    HW265721   5.162   6.807   3.133 -0.2107 -0.0572  0.8120
20304SOL     OW65722   4.323   4.519   4.464  0.4910 -0.0213 -0.1987
20304SOL    HW165723   4.373   4.520   4.382  0.5737 -0.6568 -0.1595
20304SOL    HW265724   4.255   4.454   4.450  0.0966  0.3472  0.0005
20305SOL     OW65725   0.549   4.489  11.688 -0.4652  0.2081  0.5653
20305SOL    HW165726   0.609   4.454  11.623 -0.9297  2.6183 -1.3105
20305SOL    HW265727   0.579   4.579  11.702 -1.1544  0.1416  2.7669
20306SOL     OW65728   8.873   8.853   6.593  0.6372 -0.0284  0.1856
20306SOL    HW165729   8.803   8.918   6.595 -1.5800 -2.0086 -3.0998
20306SOL    HW265730   8.948   8.900   6.556 -0.8880  0.7639 -2.1106
20307SOL     OW65731  12.515  12.190   8.108  0.2563 -0.5451 -0.1021
20307SOL    HW165732  12.449  12.122   8.095  0.1004 -0.4280  0.0797
20307SOL    HW265733  12.532  12.190   8.202 -1.8166  1.5669  0.3912
20308SOL     OW65734   3.490   7.826   9.750 -0.5573  0.1738 -0.5950
20308SOL    HW165735   3.538   7.908   9.735 -0.6512  0.5997  1.1723
20308SOL    HW265736   3.415   7.852   9.804 -0.7094 -1.0442 -0.1882
20309SOL     OW65737   1.169   2.231   4.905 -0.2459 -0.0790 -0.1389
20309SOL    HW165738   1.220   2.280   4.969 -2.1724  1.1655  0.5562
20309SOL    HW265739   1.147   2.296   4.838  1.5038 -1.2918 -1.9987
20310SOL     OW65740   2.839   6.651   9.497 -0.5046  0.6342  0.8742
20310SOL    HW165741   2.855   6.557   9.495  0.4579  0.8065  0.0698
20310SOL    HW265742   2.894   6.684   9.568  0.0192  0.7345  0.4291
20311SOL     OW65743  10.245   8.436   0.921 -0.5336  0.2601 -0.3549
20311SOL    HW165744  10.161   8.473   0.893 -0.9123 -1.6466 -1.9129
20311SOL    HW265745  10.292   8.418   0.840  0.7114 -0.2475  0.4451
20312SOL     OW65746   5.677  10.984   8.608  0.1271 -0.1679  0.8067
20312SOL    HW165747   5.597  10.936   8.589  0.7191 -1.3204  1.1649
20312SOL    HW265748   5.710  10.944   8.689  0.1719  1.4374  1.6266
20313SOL     OW65749  11.252   3.252   2.538  0.0349  0.4637  0.0173
20313SOL    HW165750  11.289   3.239   2.451  0.6986 -1.7169  0.5340
20313SOL    HW265751  11.164   3.215   2.533  0.5465 -0.8973  0.5576
20314SOL     OW65752   8.582   5.219   4.196  0.2563 -0.0466 -0.0759
20314SOL    HW165753   8.492   5.185   4.194  0.4243 -0.6340  1.4024
20314SOL    HW265754   8.605   5.230   4.104 -1.8227  1.4661 -0.4886
20315SOL     OW65755   5.507   2.530   8.917 -0.1898 -0.2935  0.6065
20315SOL    HW165756   5.540   2.475   8.988  1.4780 -0.9269 -0.5937
20315SOL    HW265757   5.414   2.542   8.937 -0.0765 -1.6139  2.1290
20316SOL     OW65758   7.781   3.120   8.293 -0.1656 -0.8393  0.0449
20316SOL    HW165759   7.773   3.133   8.388  0.8666 -2.0135  0.3191
20316SOL    HW265760   7.722   3.046   8.275 -2.1749  0.8380 -0.6626
20317SOL     OW65761   9.198   8.928   9.418  0.9403  0.1694  0.0887
20317SOL    HW165762   9.187   8.848   9.469  1.2427 -0.1364 -0.3086
20317SOL    HW265763   9.263   8.904   9.351  0.0091  0.3384 -0.8919
20318SOL     OW65764  12.194   6.327   1.004 -0.0115 -0.1259 -0.2401
20318SOL    HW165765  12.195   6.262   1.074 -0.8707  0.9041  0.7687
20318SOL    HW265766  12.185   6.276   0.924 -2.0188 -1.2122  0.5963
20319SOL     OW65767   0.806   3.588  12.350  0.2578 -0.0700  0.0359
20319SOL    HW165768   0.729   3.552  12.393 -0.5377  1.4775 -0.0360
20319SOL    HW265769   0.791   3.572  12.256  0.7934 -1.1637  0.1169
20320SOL     OW65770   3.791   6.030   1.402 -0.3873  0.1815  0.3515
20320SOL    HW165771   3.862   6.089   1.377  0.1258 -0.1572  0.9749
20320SOL    HW265772   3.835   5.952   1.437 -1.0571  0.3607  1.6611
20321SOL     OW65773   8.265   1.355  10.278 -0.4164 -0.6504  0.1182
20321SOL    HW165774   8.171   1.363  10.262 -0.6665 -1.1947  1.2060
20321SOL    HW265775   8.273   1.360  10.374  0.8178  0.9491 -0.0321
20322SOL     OW65776   1.537   9.777   3.493  0.3904  0.6265 -0.3552
20322SOL    HW165777   1.504   9.863   3.467  1.0764  1.0269  0.0708
20322SOL    HW265778   1.590   9.794   3.571  0.6157 -0.1688 -0.3269
20323SOL     OW65779   2.789   1.049   6.194 -0.4702 -0.3031  0.3440
20323SOL    HW165780   2.829   1.129   6.227  0.9642 -1.3865  1.3792
20323SOL    HW265781   2.859   1.005   6.145 -1.5469 -0.4367 -1.1463
20324SOL     OW65782   8.695   6.410   5.995  0.7806 -0.2266 -0.1562
20324SOL    HW165783   8.717   6.317   6.005 -1.1028 -0.7812 -0.7709
20324SOL    HW265784   8.686   6.422   5.900  1.1389  0.6343 -0.0873
20325SOL     OW65785   6.719   0.933   0.439  0.1514 -0.2955  0.3897
20325SOL    HW165786   6.812   0.925   0.417  0.1650 -1.0186  0.6784
20325SOL    HW265787   6.678   0.857   0.396 -0.3062  0.0018  0.2851
20326SOL     OW65788   7.882   1.831   5.363 -0.9191  0.0725 -0.0915
20326SOL    HW165789   7.846   1.827   5.275 -0.6212 -0.5125 -0.1987
20326SOL    HW265790   7.883   1.924   5.386 -0.0565  0.3326 -1.1019
20327SOL     OW65791  10.132   1.604   1.232 -0.2863  0.1141  0.4042
20327SOL    HW165792  10.225   1.604   1.209 -0.3454 -0.7646  0.1227
20327SOL    HW265793  10.121   1.527   1.288 -1.0885 -0.5722 -0.6468
20328SOL     OW65794  11.490   8.316  10.918  0.2630 -0.3309  0.2715
20328SOL    HW165795  11.500   8.383  10.850  0.4144 -1.2562 -0.6344
20328SOL    HW265796  11.398   8.323  10.945 -0.6494 -1.8984 -2.1438
20329SOL     OW65797   8.403   0.867   3.254 -0.1707 -0.0778  0.7676
20329SOL    HW165798   8.447   0.934   3.305  1.5965  1.3287 -2.3156
20329SOL    HW265799   8.463   0.792   3.256  0.3300  0.2957  0.0798
20330SOL     OW65800  10.020   4.174   9.136 -0.2610  0.0750  0.0354
20330SOL    HW165801  10.068   4.118   9.197  1.1518 -0.5503 -1.5540
20330SOL    HW265802  10.077   4.250   9.123 -1.2563  0.9552  0.6433
20331SOL     OW65803   3.176   2.195   5.399  0.3026  0.0320  0.0689
20331SOL    HW165804   3.209   2.145   5.473 -0.5180 -0.0488  0.3838
20331SOL    HW265805   3.242   2.182   5.330  2.5455  2.3198  1.6023
20332SOL     OW65806   5.361   8.714   5.715  0.5908 -0.1111 -0.0349
20332SOL    HW165807   5.339   8.642   5.656  0.9151 -0.4241  0.2255
20332SOL    HW265808   5.305   8.786   5.686 -0.3911 -0.7321  0.2801
20333SOL     OW65809  10.677   0.625   4.962 -0.2469  0.0234 -0.0754
20333SOL    HW165810  10.666   0.702   5.018  1.2374  0.3347 -0.1759
20333SOL    HW265811  10.623   0.644   4.885  1.0739  1.5552 -0.6712
20334SOL     OW65812  12.118   2.420   9.119  0.1042  0.7643 -0.7423
20334SOL    HW165813  12.192   2.456   9.167  0.0718  0.8786 -0.7794
20334SOL    HW265814  12.042   2.437   9.175  0.1467  0.3706 -0.5596
20335SOL     OW65815   4.519   8.597   8.477  0.6125 -0.5773 -0.0899
20335SOL    HW165816   4.572   8.593   8.397 -0.1936 -2.3807 -0.6037
20335SOL    HW265817   4.532   8.512   8.519  1.5403  0.5646  2.1059
20336SOL     OW65818   0.716   8.594   4.167  0.3315  0.5993  0.0140
20336SOL    HW165819   0.768   8.597   4.248 -1.6240  0.0384  1.3664
20336SOL    HW265820   0.670   8.510   4.171 -0.3770  0.8965 -1.3305
20337SOL     OW65821   3.015  12.631   6.524 -0.0869  0.2364 -0.3206
20337SOL    HW165822   2.967  12.548   6.520  0.1281  0.0363  0.8522
20337SOL    HW265823   3.091  12.612   6.578 -1.0212  1.6457  1.5981
20338SOL     OW65824   5.735   1.279   7.622 -0.2219 -0.2378 -0.2934
20338SOL    HW165825   5.666   1.302   7.560  1.7450  1.1164 -2.1573
20338SOL    HW265826   5.741   1.355   7.680 -1.0124 -0.8324  0.5828
20339SOL     OW65827   1.888  10.507   1.743  0.3410 -0.6338  0.4318
20339SOL    HW165828   1.960  10.465   1.695  0.8616  0.2289  0.4387
20339SOL    HW265829   1.859  10.440   1.805  1.3132 -0.9101  0.6073
20340SOL     OW65830   8.252   4.883   2.272 -0.1974 -0.0405 -0.2710
20340SOL    HW165831   8.256   4.923   2.358 -1.8098 -0.4634  0.0320
20340SOL    HW265832   8.324   4.924   2.223  1.5498 -0.6845  1.6036
20341SOL     OW65833   0.652   9.477   9.224  0.3415 -0.3914 -0.2690
20341SOL    HW165834   0.682   9.502   9.137  1.2691  0.0535  0.1682
20341SOL    HW265835   0.731   9.471   9.276 -0.2555  0.0142  0.7148
20342SOL     OW65836   5.483   5.981   3.530 -0.1126  0.2410 -0.0635
20342SOL    HW165837   5.503   5.937   3.613  1.4559  1.2056  0.1052
20342SOL    HW265838   5.568   6.010   3.497 -1.0350  3.1462 -0.1523
20343SOL     OW65839   0.950   1.535   6.706 -0.6215  0.2317  0.3797
20343SOL    HW165840   1.017   1.600   6.731  0.6869 -0.7645 -0.4103
20343SOL    HW265841   0.927   1.557   6.616 -0.5881 -0.0675  0.2983
20344SOL     OW65842   1.255   6.778   4.428 -0.3160 -0.0913 -0.1705
20344SOL    HW165843   1.318   6.850   4.430  1.3086 -1.4479 -0.1171
20344SOL    HW265844   1.281   6.722   4.502 -1.2315 -0.9919 -0.5068
20345SOL     OW65845   0.276   0.987   5.795 -0.8138 -0.2277  0.0953
20345SOL    HW165846   0.268   1.079   5.769 -1.0360 -0.1806  0.3349
20345SOL    HW265847   0.364   0.962   5.766  0.3371  0.8243  2.4052
20346SOL     OW65848   9.778   4.460   1.148 -0.0945  0.0182  0.1297
20346SOL    HW165849   9.763   4.430   1.238  3.6045  0.9333  1.2274
20346SOL    HW265850   9.716   4.532   1.137 -1.1537 -0.6038  1.6340
20347SOL     OW65851   1.931   3.007   0.359  0.7056  0.1511 -0.5603
20347SOL    HW165852   2.003   2.959   0.317  0.0532  0.5612 -2.2581
20347SOL    HW265853   1.930   3.092   0.314 -0.4915  0.3389 -0.2074
20348SOL     OW65854   1.100   8.887   5.700  0.7753  0.3438  0.7414
20348SOL    HW165855   1.111   8.950   5.772 -0.5335  0.3719  0.9456
20348SOL    HW265856   1.174   8.827   5.709  2.5018  2.2664  0.0786
20349SOL     OW65857   1.270   7.424   7.739  0.1346 -1.0675 -0.5592
20349SOL    HW165858   1.237   7.477   7.811  0.0329 -1.2175 -0.4945
20349SOL    HW265859   1.314   7.486   7.681  1.4270 -1.1297  0.3224
20350SOL     OW65860   4.060   7.845   1.976 -0.3237  0.2789  0.8987
20350SOL    HW165861   4.112   7.830   1.897 -1.6075 -2.6709  0.4711
20350SOL    HW265862   4.010   7.925   1.957 -1.4471 -0.9425 -1.8567
20351SOL     OW65863   2.376  10.944   6.132  0.1473  0.0187 -0.1403
20351SOL    HW165864   2.451  10.995   6.164  0.1375  0.8407 -1.3642
20351SOL    HW265865   2.362  10.877   6.199  2.1279 -0.3063  0.0091
20352SOL     OW65866   9.006   5.072  11.983 -0.0330 -0.2508 -0.2726
20352SOL    HW165867   9.008   5.036  12.072  2.8746 -0.7541 -0.4217
20352SOL    HW265868   9.007   4.995  11.926  1.0942  0.0320 -0.6638
20353SOL     OW65869   9.684   8.108   2.285 -0.1226  0.0067  0.0938
20353SOL    HW165870   9.688   8.192   2.331 -0.8351 -0.8135  1.7433
20353SOL    HW265871   9.632   8.125   2.207 -0.0444  1.1480  0.2799
20354SOL     OW65872  11.322   5.619   9.098 -0.3189  0.0348 -0.3770
20354SOL    HW165873  11.377   5.686   9.139 -0.7522 -1.5524  3.2898
20354SOL    HW265874  11.236   5.629   9.141 -0.7096 -2.0704 -0.5473
20355SOL     OW65875   2.172   3.712   6.771  0.0627 -0.0756  0.1668
20355SOL    HW165876   2.214   3.769   6.706  2.0195 -0.2257  1.2301
20355SOL    HW265877   2.095   3.761   6.799  1.1638  1.6533  0.3331
20356SOL     OW65878  10.932   0.250   2.170  0.5486  0.1855  0.0436
20356SOL    HW165879  10.951   0.194   2.095 -0.3522 -2.4436  1.6662
20356SOL    HW265880  10.836   0.247   2.179  0.6556  0.2876  1.4265
20357SOL     OW65881  10.531   6.836   1.845 -0.2226  0.2124  0.6312
20357SOL    HW165882  10.590   6.872   1.779  0.6935  1.7706  2.1955
20357SOL    HW265883  10.447   6.878   1.827 -0.0802  0.3156  0.2029
20358SOL     OW65884   2.016   7.067  10.810  0.2363 -0.1721  0.4834
20358SOL    HW165885   2.065   7.076  10.892 -0.1607 -4.0369  1.3572
20358SOL    HW265886   2.047   6.985  10.773 -0.4341  0.8941 -2.7373
20359SOL     OW65887   9.775   3.924   5.550 -0.0462 -0.0510  0.2172
20359SOL    HW165888   9.862   3.886   5.561  0.5759  1.2215 -0.1482
20359SOL    HW265889   9.767   3.937   5.456  0.8573  3.1225  0.4766
20360SOL     OW65890   2.875   7.913  12.011 -0.2892 -0.4751 -0.3342
20360SOL    HW165891   2.951   7.951  11.968 -0.0429 -1.1901 -0.5421
20360SOL    HW265892   2.897   7.913  12.104  0.5796 -1.9896 -0.5114
20361SOL     OW65893   7.590   1.944  10.314  0.0823  0.2052 -0.1862
20361SOL    HW165894   7.569   1.956  10.222  3.4864  0.3696 -1.0659
20361SOL    HW265895   7.642   1.864  10.317 -1.2968 -0.7206  1.9042
20362SOL     OW65896   7.108   7.148   9.718 -0.1631  0.5146 -0.2699
20362SOL    HW165897   7.107   7.212   9.647  1.2238  0.0996 -0.6921
20362SOL    HW265898   7.183   7.091   9.698 -0.1294  0.0065  1.1937
20363SOL     OW65899  10.564   5.160   5.011  0.5154 -0.0691  0.2165
20363SOL    HW165900  10.475   5.193   5.021  0.0355 -0.9563 -0.8020
20363SOL    HW265901  10.579   5.162   4.916  2.6141  2.6062  0.5016
20364SOL     OW65902   5.248   3.698   3.968  0.2227  0.3371  0.1486
20364SOL    HW165903   5.206   3.612   3.977 -1.2275  0.9194 -0.7063
20364SOL    HW265904   5.249   3.734   4.056 -2.3714  0.8528  0.0389
20365SOL     OW65905   5.500   4.842   8.649 -0.0254 -0.5183 -0.4617
20365SOL    HW165906   5.546   4.759   8.661 -0.4763 -0.7406 -0.2328
20365SOL    HW265907   5.464   4.862   8.735  2.3824  1.3385  0.2149
20366SOL     OW65908   6.555   4.941   3.804  0.3310 -0.4106  0.0695
20366SOL    HW165909   6.480   4.882   3.793 -0.8926  1.2624 -1.0757
20366SOL    HW265910   6.595   4.945   3.717  0.8475 -0.1293  0.3202
20367SOL     OW65911  12.158   9.624   4.249  0.1638  0.4837  0.1457
20367SOL    HW165912  12.094   9.682   4.208 -1.3749 -0.0385  1.6731
20367SOL    HW265913  12.214   9.595   4.177 -0.9604  1.3982 -1.1560
20368SOL     OW65914   9.953   9.746  11.532  0.0786  0.1350 -0.3809
20368SOL    HW165915  10.028   9.784  11.576 -0.4543 -0.1309  0.7908
20368SOL    HW265916   9.988   9.669  11.487  0.4349 -0.2791  0.5727
20369SOL     OW65917   9.104  11.920   5.431 -0.2478 -0.3192  0.1487
20369SOL    HW165918   9.168  11.900   5.362 -1.4002 -0.6313 -0.8573
20369SOL    HW265919   9.066  11.835   5.453  0.2792 -0.2558  1.3680
20370SOL     OW65920  12.251   0.829   2.261 -0.7351  0.2129 -0.0564
20370SOL    HW165921  12.313   0.770   2.303  0.5070  1.1203 -0.5333
20370SOL    HW265922  12.243   0.796   2.172 -0.5206  0.3878 -0.1430
20371SOL     OW65923   2.756   3.407   3.799 -0.1267  0.7190  0.5354
20371SOL    HW165924   2.743   3.323   3.755  1.9044 -0.5199  2.1236
20371SOL    HW265925   2.719   3.395   3.886 -0.7087  1.8395  0.4611
20372SOL     OW65926   0.395   5.649   7.143 -0.3538  0.4816 -0.0637
20372SOL    HW165927   0.413   5.643   7.237  0.1068 -1.5535 -0.2385
20372SOL    HW265928   0.334   5.578   7.125 -0.2161  0.6606 -1.3548
20373SOL     OW65929   2.142   2.221   0.448 -0.0905  0.5080 -0.3181
20373SOL    HW165930   2.123   2.128   0.456  0.0354  0.6132  1.7463
20373SOL    HW265931   2.108   2.245   0.361 -0.2132 -1.4089 -0.8452
20374SOL     OW65932  12.020  10.274   3.741  0.0644  0.7880  0.4445
20374SOL    HW165933  12.109  10.306   3.725 -0.1286  1.9030  1.4414
20374SOL    HW265934  12.020  10.184   3.707  1.3293  1.0508 -0.2899
20375SOL     OW65935   8.633   3.640   8.366 -0.1706  0.7650  0.2769
20375SOL    HW165936   8.718   3.596   8.375 -0.0335  0.8285 -0.5584
20375SOL    HW265937   8.574   3.571   8.334 -0.1906  0.9426 -0.0833
20376SOL     OW65938   9.263   8.955   1.490 -0.1890  0.2972 -0.6036
20376SOL    HW165939   9.235   8.976   1.579  0.0749  0.7201 -0.6166
20376SOL    HW265940   9.182   8.935   1.443 -0.1376 -4.9116  0.9140
20377SOL     OW65941  10.383   8.432   9.306  0.4858 -0.8266 -0.5339
20377SOL    HW165942  10.419   8.504   9.254  0.6324 -0.4304  0.0907
20377SOL    HW265943  10.459   8.378   9.328  0.2968 -1.5030 -1.4737
20378SOL     OW65944   6.232   1.515   1.916  0.0046  0.5853 -0.4524
20378SOL    HW165945   6.288   1.452   1.962 -0.0571  0.5994 -0.3565
20378SOL    HW265946   6.292   1.563   1.859 -0.1399 -0.4033 -1.4699
20379SOL     OW65947  11.286   0.812   1.258  0.2740  0.0002 -0.5275
20379SOL    HW165948  11.365   0.864   1.252  0.6571 -0.4417  0.4359
20379SOL    HW265949  11.216   0.874   1.279  0.6638  0.1762  0.2641
20380SOL     OW65950   7.852   0.318   2.302 -0.1845  0.5559 -0.1718
20380SOL    HW165951   7.890   0.259   2.237 -1.1085 -0.5130  0.2221
20380SOL    HW265952   7.928   0.356   2.348  0.4367  0.2057 -0.8911
20381SOL     OW65953   7.626   3.131   3.939  0.1650  0.0767 -0.5294
20381SOL    HW165954   7.719   3.136   3.917  0.7471 -3.0151  0.6591
20381SOL    HW265955   7.624   3.088   4.024 -2.3693 -0.1510 -0.6282
20382SOL     OW65956   6.435   6.783   7.463 -0.0955  0.0651  0.5701
20382SOL    HW165957   6.494   6.779   7.388  1.3101 -0.0763  1.6453
20382SOL    HW265958   6.399   6.871   7.460  0.7477  0.4142  0.2979
20383SOL     OW65959   9.663   0.685   2.614  0.6447  0.8217  0.0671
20383SOL    HW165960   9.600   0.633   2.564  1.4156  0.5648 -0.6668
20383SOL    HW265961   9.707   0.739   2.547  0.5715  1.6641  0.6829
20384SOL     OW65962   9.571   0.524   5.328 -0.0504 -0.1441 -0.4584
20384SOL    HW165963   9.650   0.481   5.361  0.5329 -0.2452 -1.9113
20384SOL    HW265964   9.556   0.485   5.242 -1.3360  0.3213 -0.4759
20385SOL     OW65965   7.481   7.400   0.522  0.5921  0.0046 -0.0527
20385SOL    HW165966   7.424   7.461   0.474 -1.5729 -0.2299  2.0184
20385SOL    HW265967   7.460   7.314   0.484  1.0148  0.1276 -0.5790
20386SOL     OW65968   9.435  12.014   8.129  0.5207 -0.2411 -0.4797
20386SOL    HW165969   9.528  12.027   8.112  0.8892 -1.0381  0.7805
20386SOL    HW265970   9.404  12.099   8.159  1.4226 -0.5175  1.4115
20387SOL     OW65971   7.863   6.268   5.403 -0.1554 -0.2474 -0.2225
20387SOL    HW165972   7.935   6.269   5.340 -0.4463 -0.3750 -0.5634
20387SOL    HW265973   7.882   6.340   5.462 -0.4185  0.5546 -1.0802
20388SOL     OW65974  10.271  11.024   2.532 -0.2487  0.4154  0.5561
20388SOL    HW165975  10.281  11.099   2.591  1.1865  1.3355 -0.7601
20388SOL    HW265976  10.349  10.970   2.548  0.2423  0.7561 -0.5526
20389SOL     OW65977   6.677  11.985   0.745  0.3431  0.2517 -0.2581
20389SOL    HW165978   6.677  12.008   0.652 -0.6053 -0.8096 -0.5337
20389SOL    HW265979   6.765  12.007   0.775  0.5534  0.9284 -1.3194
20390SOL     OW65980   6.583   3.209   0.964 -0.3291  0.5062  0.4310
20390SOL    HW165981   6.579   3.236   0.873 -1.1414  0.1239  0.3522
20390SOL    HW265982   6.660   3.152   0.969  0.2622  1.2692  0.1913
20391SOL     OW65983   2.342  11.166   1.655 -0.0181 -0.4619 -0.1420
20391SOL    HW165984   2.296  11.083   1.669 -0.1628 -0.4402 -0.4667
20391SOL    HW265985   2.310  11.197   1.570 -1.6598  1.0173  0.9290
20392SOL     OW65986   7.997  10.914   7.302  0.0655  0.1156 -0.0569
20392SOL    HW165987   7.939  10.925   7.226 -0.3918 -0.1840  0.2437
20392SOL    HW265988   7.946  10.946   7.376  0.6600  0.7819  0.0760
20393SOL     OW65989   5.532   5.340   7.729 -0.1889  0.6916 -0.3497
20393SOL    HW165990   5.613   5.291   7.744 -1.8037 -1.4904  2.2611
20393SOL    HW265991   5.556   5.431   7.747  1.7067  0.1446  0.1622
20394SOL     OW65992  11.530   9.912   6.696 -0.4167 -0.4185  0.0407
20394SOL    HW165993  11.564   9.828   6.725  0.1848 -0.2970 -0.2790
20394SOL    HW265994  11.446   9.892   6.656 -0.1121 -0.9177 -0.3575
20395SOL     OW65995   6.683   7.239   6.709 -0.3693 -0.0206  0.5139
20395SOL    HW165996   6.758   7.281   6.752 -1.1999  0.6674  1.3360
20395SOL    HW265997   6.643   7.309   6.658 -0.2027 -0.5012 -0.2923
20396SOL     OW65998   5.498  11.655   0.129  0.5240  0.0078 -0.2775
20396SOL    HW165999   5.418  11.604   0.115 -0.0045  1.1680 -1.7731
20396SOL    HW266000   5.550  11.641   0.050  1.8518 -0.7721  0.7047
20397SOL     OW66001   5.258   8.495   3.749 -0.5376 -0.2796 -0.1148
20397SOL    HW166002   5.239   8.510   3.657  1.4320  1.6741 -0.2954
20397SOL    HW266003   5.293   8.579   3.780 -0.6728 -1.0319  2.2858
20398SOL     OW66004   7.947   6.502   4.438 -0.3161 -0.5719 -0.5695
20398SOL    HW166005   7.975   6.508   4.347  0.6783  0.3192 -0.2235
20398SOL    HW266006   7.861   6.544   4.439 -0.1154 -0.1381 -1.0204
20399SOL     OW66007   7.691   6.733  12.204  0.3791 -0.0347  0.3695
20399SOL    HW166008   7.636   6.779  12.266  0.2435  0.3563 -0.0412
20399SOL    HW266009   7.635   6.719  12.127  0.3721 -0.9968  0.5322
20400SOL     OW66010   3.825   3.698   6.239  0.5606 -0.7687 -1.0561
20400SOL    HW166011   3.853   3.782   6.273 -1.3171 -0.4400 -0.1774
20400SOL    HW266012   3.838   3.705   6.144 -1.0512  1.1707 -1.2085
20401SOL     OW66013  10.334  11.827   5.871  0.3686  0.1487  0.4101
20401SOL    HW166014  10.320  11.735   5.850 -0.6979  0.4896 -0.5060
20401SOL    HW266015  10.304  11.874   5.793 -0.7899  1.3446  1.5217
20402SOL     OW66016  12.151   5.170   3.821 -0.0438  0.5817  0.7674
20402SOL    HW166017  12.200   5.094   3.852 -0.4937  0.1708  0.5037
20402SOL    HW266018  12.070   5.133   3.787 -0.6139  1.2536  1.3460
20403SOL     OW66019   5.995   7.537  11.148 -0.6597  0.1908 -0.1127
20403SOL    HW166020   6.055   7.600  11.188  1.6609 -1.7831 -0.3137
20403SOL    HW266021   5.944   7.502  11.222  1.0941 -0.8055  0.6775
20404SOL     OW66022   7.080   6.068  10.083  0.5320 -0.1356  0.4770
20404SOL    HW166023   7.112   5.977  10.081  0.3607 -0.1785 -0.4190
20404SOL    HW266024   7.130   6.109  10.154  1.0593 -0.7607  0.4760
20405SOL     OW66025   8.954   2.246   5.476  0.3050  0.1902  0.1681
20405SOL    HW166026   9.010   2.170   5.492 -0.3013 -0.3635 -0.2578
20405SOL    HW266027   8.886   2.241   5.543  0.3929  0.4923  0.2831
20406SOL     OW66028   0.562   5.094   2.378 -0.6835  0.5345 -0.0300
20406SOL    HW166029   0.566   5.078   2.283  0.2741 -0.2091  0.1123
20406SOL    HW266030   0.596   5.013   2.416  1.1974  1.6718  0.8636
20407SOL     OW66031   0.486  10.478   0.909  0.1271  0.7056 -0.1125
20407SOL    HW166032   0.394  10.505   0.904  0.6768  2.8027  0.3578
20407SOL    HW266033   0.512  10.463   0.818 -1.4343 -2.9582 -0.1441
20408SOL     OW66034  11.643   0.687   4.854  0.2522  0.1421 -0.2615
20408SOL    HW166035  11.554   0.662   4.827  0.9159 -0.1610 -2.3997
20408SOL    HW266036  11.700   0.638   4.794  1.9231 -0.4962  1.7568
20409SOL     OW66037   2.324   0.995   0.609  0.5886  0.0987 -0.2381
20409SOL    HW166038   2.329   1.013   0.515 -1.5047  0.3734 -0.3269
20409SOL    HW266039   2.352   1.077   0.650 -1.6528  1.1249 -0.6555
20410SOL     OW66040   0.668   9.501   7.576 -0.1894  0.1270  0.2919
20410SOL    HW166041   0.584   9.545   7.578 -0.0530  0.3570  0.9891
20410SOL    HW266042   0.700   9.514   7.486  0.0021  1.7305  0.5662
20411SOL     OW66043   9.545   6.565   9.018  0.5070 -0.8800 -0.0022
20411SOL    HW166044   9.583   6.534   9.100 -0.1747 -0.3043  0.5453
20411SOL    HW266045   9.572   6.656   9.011 -2.0292  0.0619  1.2337
20412SOL     OW66046   9.091  11.232   6.539 -0.3263  0.3132  0.6250
20412SOL    HW166047   9.150  11.289   6.589 -0.5120  1.1862 -0.1151
20412SOL    HW266048   9.091  11.270   6.451 -0.5634 -0.7681  0.1479
20413SOL     OW66049   3.754   7.669  11.154 -0.2552  0.1679  0.7044
20413SOL    HW166050   3.837   7.690  11.196  0.3493 -0.4776 -0.1523
20413SOL    HW266051   3.734   7.580  11.183 -1.0719  0.5982  1.5458
20414SOL     OW66052   3.103   2.266   1.228  0.1718  0.1486 -0.1223
20414SOL    HW166053   3.151   2.322   1.289  0.2895  1.0468 -0.9993
20414SOL    HW266054   3.115   2.309   1.143 -0.8920 -0.4620 -0.5971
20415SOL     OW66055   6.725   4.212   6.325 -0.1982 -0.2994  0.1959
20415SOL    HW166056   6.650   4.179   6.376  0.7108  1.7035  3.1450
20415SOL    HW266057   6.739   4.301   6.359  2.5065  0.0037 -1.4211
20416SOL     OW66058   5.763   2.189   0.310 -0.0352 -0.1446  0.6416
20416SOL    HW166059   5.826   2.235   0.255  0.3684 -0.2069  1.0456
20416SOL    HW266060   5.713   2.258   0.353 -0.5969 -0.0919 -0.0600
20417SOL     OW66061   7.218   5.399   4.922 -0.0224 -0.6019  0.2836
20417SOL    HW166062   7.187   5.318   4.962 -1.4047 -0.1871  0.1139
20417SOL    HW266063   7.307   5.380   4.894  0.3321 -1.4923  1.8629
20418SOL     OW66064   8.066   2.908   2.729 -0.0718 -0.2341 -0.1140
20418SOL    HW166065   8.013   2.944   2.658  0.2025 -0.6782 -0.5413
20418SOL    HW266066   8.024   2.942   2.809 -1.9020 -1.7705 -0.3735
20419SOL     OW66067   9.158  10.195   9.081 -0.5919 -0.5991 -0.5295
20419SOL    HW166068   9.178  10.118   9.135  3.1330 -0.6056 -1.6365
20419SOL    HW266069   9.220  10.262   9.110 -1.2164  0.7313 -2.1114
20420SOL     OW66070   3.745   4.060   9.800  0.2897 -0.5289  0.3448
20420SOL    HW166071   3.783   3.974   9.817 -1.2859 -1.1830  0.7813
20420SOL    HW266072   3.810   4.105   9.746  1.6197 -1.5832  0.9901
20421SOL     OW66073  11.305   8.451   8.122 -0.2247  0.2580 -0.0856
20421SOL    HW166074  11.284   8.360   8.139  1.7968 -0.0784  0.9424
20421SOL    HW266075  11.327   8.488   8.207 -2.5536  2.1971 -0.2369
20422SOL     OW66076   5.241   2.444   4.544 -0.5608  0.3193 -0.4605
20422SOL    HW166077   5.336   2.446   4.539 -0.3901  2.2060  1.8570
20422SOL    HW266078   5.213   2.520   4.494 -0.6266  1.4578  1.2429
20423SOL     OW66079   5.682  10.073   3.612  0.6912 -0.1344 -0.3924
20423SOL    HW166080   5.721  10.113   3.690 -0.3716  3.1069 -1.3396
20423SOL    HW266081   5.662  10.147   3.555 -1.8098 -2.0468 -2.2558
20424SOL     OW66082   2.471   1.861  12.197  0.2442  0.1670  0.4772
20424SOL    HW166083   2.433   1.795  12.139 -1.4332  2.5578 -1.3468
20424SOL    HW266084   2.405   1.873  12.266 -0.2309  1.0395 -0.1096
20425SOL     OW66085   0.353   1.927   9.709  0.2716  0.2445 -0.1941
20425SOL    HW166086   0.310   1.882   9.781  0.6542  0.0544 -0.0820
20425SOL    HW266087   0.351   2.020   9.734  1.1842  0.0956  0.4866
20426SOL     OW66088   1.030   6.152   8.144  0.7538  0.1048 -0.0725
20426SOL    HW166089   0.961   6.190   8.090  0.8759 -0.7104 -0.8217
20426SOL    HW266090   1.109   6.201   8.120  0.5153  0.8033  0.5328
20427SOL     OW66091   1.178  10.082   7.141  0.3753 -0.1717 -0.3696
20427SOL    HW166092   1.223  10.022   7.201  2.7873  1.6015 -0.2984
20427SOL    HW266093   1.230  10.080   7.061 -1.6598 -0.9356 -1.7727
20428SOL     OW66094   4.682  11.854   0.856 -0.4156 -0.2680  0.0954
20428SOL    HW166095   4.592  11.850   0.825 -0.1873  1.0168 -0.8053
20428SOL    HW266096   4.735  11.827   0.781  0.0258  0.7118  0.0360
20429SOL     OW66097  10.543   6.504  10.359  0.1729 -0.3600  0.1859
20429SOL    HW166098  10.594   6.446  10.302 -0.2455 -0.0574 -0.5081
20429SOL    HW266099  10.537   6.457  10.442 -0.3192 -1.4181 -0.4205
20430SOL     OW66100   2.630  11.063   0.944 -0.3448 -0.1144  0.0722
20430SOL    HW166101   2.605  11.005   0.872  0.2149  0.4892 -0.6247
20430SOL    HW266102   2.550  11.113   0.963 -0.0543  0.9228 -1.2929
20431SOL     OW66103   4.051   3.114   4.034  0.1606 -0.3333  0.0974
20431SOL    HW166104   3.998   3.107   3.955  0.0104  1.9267 -0.0528
20431SOL    HW266105   4.141   3.115   4.003  0.2533 -2.0894  0.2012
20432SOL     OW66106   6.083   3.933   3.214 -0.4385  0.6433  0.8157
20432SOL    HW166107   6.151   3.988   3.176  0.3694 -0.1114  1.1350
20432SOL    HW266108   6.079   3.856   3.157 -0.6330  0.4247  1.1215
20433SOL     OW66109   2.804   7.384   2.684  0.3005 -0.0196 -0.5831
20433SOL    HW166110   2.739   7.425   2.627 -0.0575  1.5569  0.8675
20433SOL    HW266111   2.753   7.343   2.753  0.8035  1.0072  0.4313
20434SOL     OW66112   2.611  11.517   8.531  0.1862  0.1825  0.2982
20434SOL    HW166113   2.631  11.477   8.616  1.3049  0.7931  0.3482
20434SOL    HW266114   2.674  11.477   8.471 -1.0405 -0.7551 -0.4206
20435SOL     OW66115   7.334   5.365  11.029  0.1131 -0.1322 -0.4829
20435SOL    HW166116   7.368   5.323  11.108 -1.3209 -1.8874 -0.7254
20435SOL    HW266117   7.289   5.443  11.061  0.5149 -0.2193  0.3070
20436SOL     OW66118   6.793  11.012  10.719 -0.0853  0.1396  0.5918
20436SOL    HW166119   6.741  11.070  10.664 -0.7474  1.0072  2.0806
20436SOL    HW266120   6.849  10.964  10.657 -1.5973  0.2328 -0.9141
20437SOL     OW66121   9.330   0.281  11.490 -0.5323 -0.1241  0.8646
20437SOL    HW166122   9.407   0.248  11.536 -1.1493  0.8561  2.6951
20437SOL    HW266123   9.286   0.203  11.457  2.5545 -0.6558 -2.6411
20438SOL     OW66124   6.241   4.725   0.936 -0.1907 -0.4461 -0.2590
20438SOL    HW166125   6.195   4.801   0.972 -2.0399 -2.6291  2.4089
20438SOL    HW266126   6.185   4.694   0.865 -1.2461 -1.1919  0.8544
20439SOL     OW66127   3.515   5.236  11.981 -0.0653  0.1928  0.0227
20439SOL    HW166128   3.498   5.303  12.048  1.8366  0.3383  0.4050
20439SOL    HW266129   3.566   5.282  11.914 -0.8526 -0.2820 -0.9188
20440SOL     OW66130   2.683   7.105   6.524  0.7825  0.2223  0.2446
20440SOL    HW166131   2.740   7.108   6.447  0.2518  1.6566 -0.1333
20440SOL    HW266132   2.734   7.061   6.591  1.5621 -0.3213 -0.6894
20441SOL     OW66133  12.459  12.400   8.528  0.0001  0.2356 -0.1581
20441SOL    HW166134  12.379  12.346   8.531 -0.2639  0.6144 -0.3436
20441SOL    HW266135  12.530  12.336   8.526 -0.2751 -0.1080  0.5189
20442SOL     OW66136   5.213   6.871   7.851  0.3247 -0.3350 -0.2956
20442SOL    HW166137   5.246   6.884   7.940  0.3611 -0.9699 -0.2087
20442SOL    HW266138   5.118   6.871   7.860  0.2023  2.5330 -0.6941
20443SOL     OW66139  10.120  12.560   1.761  0.5417 -0.0260  0.0439
20443SOL    HW166140  10.103  12.652   1.739 -0.1350 -0.5645 -1.8482
20443SOL    HW266141  10.052  12.511   1.714  0.7103 -1.4930  1.2463
20444SOL     OW66142  10.483  12.430   1.738  0.7038  0.0049 -0.5192
20444SOL    HW166143  10.454  12.506   1.688  1.0202  1.5787  1.5921
20444SOL    HW266144  10.433  12.433   1.819  0.0995 -2.5754 -0.6875
20445SOL     OW66145   3.646   0.075   0.413  0.5514  0.0028  0.5789
20445SOL    HW166146   3.564   0.048   0.454  2.0015 -1.2980  2.7970
20445SOL    HW266147   3.664   0.161   0.451  0.0184  0.4988 -0.2620
20446SOL     OW66148   0.092  12.123   7.400  0.0676  0.4185  0.2941
20446SOL    HW166149   0.162  12.158   7.455  1.2497 -1.4181  0.0389
20446SOL    HW266150   0.068  12.040   7.441  0.0395 -0.3475 -1.1850
20447SOL     OW66151   8.785   6.019   8.297  0.2047 -0.1435  0.0355
20447SOL    HW166152   8.712   5.957   8.298 -0.5423  0.6857 -0.4354
20447SOL    HW266153   8.823   6.011   8.210  0.0021  0.1559 -0.0849
20448SOL     OW66154   0.600   0.512   0.813  0.5389 -0.7008 -0.5212
20448SOL    HW166155   0.512   0.516   0.850  0.7823  0.5761 -0.0040
20448SOL    HW266156   0.595   0.447   0.743 -0.8247 -0.6180 -0.5157
20449SOL     OW66157   5.026  12.131   4.356 -0.4565  0.1201 -0.5117
20449SOL    HW166158   5.045  12.086   4.438  0.8973  1.0741 -0.2604
20449SOL    HW266159   5.061  12.072   4.288  2.4192  1.2112 -0.1259
20450SOL     OW66160  10.085  12.170   8.500 -0.1345 -0.1408  0.4815
20450SOL    HW166161  10.031  12.138   8.428  0.9325 -1.0777  0.0661
20450SOL    HW266162  10.175  12.162   8.468  0.3145  0.2951  1.5740
20451SOL     OW66163   1.887   2.140   0.293  0.0347 -0.1147 -0.1520
20451SOL    HW166164   1.802   2.184   0.294 -1.1596 -2.1381 -1.8942
20451SOL    HW266165   1.875   2.069   0.230  3.1604 -0.2560 -0.7209
20452SOL     OW66166   0.403   2.357   0.182 -0.4980  0.2892  0.2576
20452SOL    HW166167   0.441   2.280   0.224 -1.5789 -0.2728  0.2452
20452SOL    HW266168   0.363   2.323   0.101  1.0640  1.2604 -0.9710
20453SOL     OW66169   0.487   1.873  11.708  0.2993  0.4767 -0.1524
20453SOL    HW166170   0.572   1.916  11.712  0.9834 -0.7968 -0.4505
20453SOL    HW266171   0.487   1.826  11.625 -0.2935 -0.3306  0.2866
20454SOL     OW66172   6.436   2.019   5.014 -0.3103  0.2190 -0.4123
20454SOL    HW166173   6.438   1.991   4.922  0.1525 -0.0723 -0.3190
20454SOL    HW266174   6.478   1.947   5.061 -2.3196 -0.5770  0.2953
20455SOL     OW66175   8.607   9.039   9.514 -0.1924 -0.2929  0.2816
20455SOL    HW166176   8.641   9.127   9.531  0.1009 -0.6079  1.4308
20455SOL    HW266177   8.680   8.981   9.533 -1.5291 -1.0728  4.0632
20456SOL     OW66178   0.264   0.229  10.290 -0.3192 -0.1902 -0.6288
20456SOL    HW166179   0.323   0.172  10.341 -0.9543  0.7064  1.1988
20456SOL    HW266180   0.318   0.258  10.216  0.9674 -0.8091  0.0167
20457SOL     OW66181  11.269  10.744   0.742 -0.4878  0.6002 -0.2200
20457SOL    HW166182  11.290  10.686   0.670  1.1298  0.8715  0.0048
20457SOL    HW266183  11.173  10.745   0.744 -0.5633 -0.0816 -1.7936
20458SOL     OW66184   1.238   0.852   6.842  0.2807 -0.0901 -0.2426
20458SOL    HW166185   1.260   0.822   6.930 -0.3244 -1.5962 -0.5730
20458SOL    HW266186   1.207   0.942   6.854 -1.1432 -0.7387  1.2973
20459SOL     OW66187   6.641   5.589  10.634 -0.4227  1.0151  0.1391
20459SOL    HW166188   6.719   5.634  10.666  0.7570  0.0541 -1.2418
20459SOL    HW266189   6.616   5.530  10.705  1.9345 -0.8252 -0.4252
20460SOL     OW66190   6.549   5.835   0.945  0.3716  0.2144 -0.1450
20460SOL    HW166191   6.567   5.745   0.920 -0.1421  0.2403 -0.6463
20460SOL    HW266192   6.455   5.846   0.929 -0.4986 -0.3347  3.6140
20461SOL     OW66193   6.637  10.961   3.164  0.4309  0.7424 -0.5525
20461SOL    HW166194   6.594  10.905   3.229  1.4703 -0.5919 -0.9520
20461SOL    HW266195   6.725  10.924   3.156  1.2076  2.5346 -0.7648
20462SOL     OW66196   4.039   1.970  12.535 -0.1391  0.2822  0.4241
20462SOL    HW166197   4.063   2.016  12.616  0.3790  0.1247  0.3645
20462SOL    HW266198   3.995   1.891  12.565  2.2687 -1.0748  0.6689
20463SOL     OW66199  12.632   2.324  12.371  0.0148 -0.0536  0.0207
20463SOL    HW166200  12.551   2.374  12.382 -0.1214  1.1393 -4.3562
20463SOL    HW266201  12.701   2.390  12.367  0.3444 -0.4520 -2.0114
20464SOL     OW66202   1.866   6.350   9.430 -0.1765  0.3850 -0.5436
20464SOL    HW166203   1.780   6.390   9.425 -1.0475 -1.1828  0.9195
20464SOL    HW266204   1.852   6.260   9.399  0.6953 -0.1958  0.6860
20465SOL     OW66205   1.262  10.290  10.608 -0.4563  0.1115  0.0798
20465SOL    HW166206   1.184  10.344  10.592 -0.9163 -0.7793 -0.8492
20465SOL    HW266207   1.335  10.352  10.607 -0.9883  0.7497 -0.7382
20466SOL     OW66208  12.434   9.896   3.165  0.3439  0.5915  0.7718
20466SOL    HW166209  12.488   9.975   3.174  2.1679 -0.4292 -0.3434
20466SOL    HW266210  12.462   9.858   3.081  0.9283 -2.1889  2.0702
20467SOL     OW66211   0.471   6.992  12.302 -0.3684  0.2612  0.5298
20467SOL    HW166212   0.510   6.950  12.225 -0.5141 -0.3845  0.8074
20467SOL    HW266213   0.390   7.032  12.269 -0.0328  0.6651  0.1852
20468SOL     OW66214   1.214   0.032   6.516 -0.5015  0.6086  0.0808
20468SOL    HW166215   1.196  -0.060   6.498 -1.4961  0.9609 -0.8431
20468SOL    HW266216   1.301   0.048   6.478  0.0026 -0.1100  0.9012
20469SOL     OW66217   3.520   6.192   4.170 -0.8476  0.6712 -0.3464
20469SOL    HW166218   3.555   6.115   4.126  0.0236 -0.0702  1.5209
20469SOL    HW266219   3.480   6.158   4.250 -0.8084  2.1037  0.3249
20470SOL     OW66220   2.309   0.365   8.951 -0.3706 -0.2132  0.0546
20470SOL    HW166221   2.403   0.377   8.959 -0.3516 -0.1655 -0.2296
20470SOL    HW266222   2.292   0.365   8.857 -0.6240 -0.4619  0.0966
20471SOL     OW66223   2.378  11.461   5.027  0.7591 -0.5655 -0.4203
20471SOL    HW166224   2.320  11.516   4.974 -0.2092 -0.4590  0.6961
20471SOL    HW266225   2.319  11.412   5.084  1.7382 -1.0287  0.2234
20472SOL     OW66226   2.545   8.501   7.671 -0.1251  0.2333  0.0077
20472SOL    HW166227   2.513   8.557   7.742  0.0662 -0.2913  0.5200
20472SOL    HW266228   2.483   8.427   7.670 -0.8139  0.7862 -1.1438
20473SOL     OW66229   6.700  10.290   6.997  0.0479 -0.1598 -0.5066
20473SOL    HW166230   6.770  10.233   7.030  0.3350  1.1808  1.3164
20473SOL    HW266231   6.745  10.372   6.974 -0.4254 -0.4402 -2.6978
20474SOL     OW66232   1.285   5.273   9.784  0.0172  0.0123 -0.4285
20474SOL    HW166233   1.245   5.294   9.700 -1.0150  0.9752  0.2686
20474SOL    HW266234   1.217   5.293   9.848  1.1089  0.2246  0.6966
20475SOL     OW66235   3.077   3.896   2.664 -0.3008 -0.7991 -1.2630
20475SOL    HW166236   3.115   3.841   2.733 -1.3604  1.1806  1.0372
20475SOL    HW266237   3.123   3.869   2.585  1.4726 -2.7435  0.2939
20476SOL     OW66238  12.208   9.711   0.166  0.5867  0.0796  0.5812
20476SOL    HW166239  12.148   9.724   0.241  0.2454 -0.5070  0.4235
20476SOL    HW266240  12.179   9.628   0.128  0.5530  0.5346 -0.4006
20477SOL     OW66241   8.078   8.270  10.686 -0.5166 -0.3015 -0.2008
20477SOL    HW166242   8.092   8.229  10.601 -1.7066  1.1919 -1.1779
20477SOL    HW266243   7.986   8.253  10.706 -1.1956  2.1703 -0.8772
20478SOL     OW66244   7.109   5.643   9.042 -0.4606 -0.1836 -0.3427
20478SOL    HW166245   7.187   5.597   9.010 -0.3232 -1.0589  1.1217
20478SOL    HW266246   7.134   5.736   9.041  0.3616 -0.3967 -0.5272
20479SOL     OW66247  11.136  10.294  11.067 -0.2281 -0.3146  0.0924
20479SOL    HW166248  11.215  10.241  11.051 -2.3061 -2.7401 -3.7308
20479SOL    HW266249  11.091  10.248  11.138 -0.1419 -1.4811 -0.5730
20480SOL     OW66250   4.821  12.560  11.254 -0.0007 -0.4651  0.0141
20480SOL    HW166251   4.881  12.625  11.290  0.0573 -0.2125 -0.5295
20480SOL    HW266252   4.863  12.530  11.173 -0.5130 -0.4267 -0.2692
20481SOL     OW66253   2.466   5.890   3.320 -0.2714  0.8310 -0.2452
20481SOL    HW166254   2.552   5.930   3.330 -0.6685  1.3443  1.5117
20481SOL    HW266255   2.437   5.917   3.233  1.5157  0.2384 -1.0699
20482SOL     OW66256  10.038   0.349   6.792 -0.1702  0.1353  0.1801
20482SOL    HW166257  10.046   0.385   6.880  0.3016 -1.2785  0.7512
20482SOL    HW266258  10.019   0.256   6.806  0.8357 -0.3159 -1.1957
20483SOL     OW66259   3.799   8.137   7.027 -0.1897 -0.3079 -0.0135
20483SOL    HW166260   3.830   8.075   6.961  1.5120  0.5697 -0.1041
20483SOL    HW266261   3.796   8.086   7.108 -0.2718 -0.8767 -0.3681
20484SOL     OW66262   1.853   7.435  10.458 -0.7433  0.1931  0.7874
20484SOL    HW166263   1.843   7.341  10.475 -1.8776  0.1698  0.0418
20484SOL    HW266264   1.824   7.447  10.368  1.1649  0.9867  0.2204
20485SOL     OW66265   0.004   8.662   0.559 -0.1597 -0.3926  0.7325
20485SOL    HW166266   0.059   8.734   0.589  0.3522 -0.4264 -0.0883
20485SOL    HW266267  -0.070   8.705   0.516  0.8178 -0.3068 -0.9772
20486SOL     OW66268   5.824  10.895   8.849  0.5095  0.0339  0.6781
20486SOL    HW166269   5.798  10.946   8.925  0.0587  0.3131  0.3366
20486SOL    HW266270   5.912  10.864   8.870  1.0189  1.4146  0.6468
20487SOL     OW66271   7.929   6.086   3.824 -0.0455  0.3767  0.4735
20487SOL    HW166272   7.955   6.073   3.915  2.3783 -0.8627 -0.3378
20487SOL    HW266273   7.953   6.005   3.780 -1.0055  1.0324 -1.3460
20488SOL     OW66274   9.088   0.868   3.803 -0.2050  0.2753 -0.4228
20488SOL    HW166275   9.098   0.834   3.892  1.4094 -0.1698 -0.7487
20488SOL    HW266276   9.121   0.958   3.808  3.6359 -0.9113 -1.3037
20489SOL     OW66277  11.780   8.234  11.508  0.6953  0.0778 -0.6674
20489SOL    HW166278  11.686   8.248  11.514  0.6824 -0.3483  0.4822
20489SOL    HW266279  11.790   8.165  11.443 -0.2450 -3.4553  2.5720
20490SOL     OW66280  11.764  10.900   9.879  0.1057 -0.0550  0.6142
20490SOL    HW166281  11.695  10.941   9.931 -0.6450  1.8441 -1.6602
20490SOL    HW266282  11.717  10.841   9.819  0.6516 -0.2082  0.3325
20491SOL     OW66283   6.070   1.777   1.461 -0.4063  0.4983 -0.3408
20491SOL    HW166284   6.132   1.706   1.446 -1.0263 -0.4149  1.2006
20491SOL    HW266285   6.082   1.836   1.386 -1.2575 -2.1971 -2.7618
20492SOL     OW66286   5.136   5.635   8.044 -0.1533  0.9200 -0.1633
20492SOL    HW166287   5.151   5.695   7.971  0.1060  0.1920 -0.7132
20492SOL    HW266288   5.045   5.608   8.035  0.1335  0.1152 -0.7718
20493SOL     OW66289   9.177   5.059   3.434 -0.3808  0.1763  0.1522
20493SOL    HW166290   9.172   5.083   3.527 -0.7794 -0.1724  0.2221
20493SOL    HW266291   9.270   5.038   3.420 -0.4060 -0.2411  0.5877
20494SOL     OW66292   1.099   8.478   2.189 -0.1593 -0.8726  0.6947
20494SOL    HW166293   1.033   8.521   2.134  0.3299 -0.8867  0.0727
20494SOL    HW266294   1.178   8.477   2.134  0.7573  0.3876  1.9251
20495SOL     OW66295   7.742   4.952   6.710  0.1722 -0.0437 -0.4835
20495SOL    HW166296   7.819   4.971   6.656  2.5502 -2.6601  1.6593
20495SOL    HW266297   7.773   4.959   6.800 -2.4177 -0.1783  0.5047
20496SOL     OW66298  11.613   4.174   5.331  0.1748  0.2568 -0.6093
20496SOL    HW166299  11.588   4.117   5.258 -0.2176  0.5143 -0.6800
20496SOL    HW266300  11.581   4.261   5.305 -2.2931 -0.0852  0.9779
20497SOL     OW66301   9.849   8.229   5.825  0.0040  0.6318 -0.0882
20497SOL    HW166302   9.910   8.293   5.863 -0.0240  0.4007  0.3649
20497SOL    HW266303   9.836   8.165   5.895  1.7428 -1.0779 -1.2159
20498SOL     OW66304   2.410  12.104  12.394  0.0138 -0.5410 -0.1658
20498SOL    HW166305   2.332  12.050  12.398 -0.5228  0.2956  1.9213
20498SOL    HW266306   2.479  12.049  12.430  0.2903 -1.0531 -1.4158
20499SOL     OW66307  12.022   3.191  12.118 -0.3475 -0.0030  0.4583
20499SOL    HW166308  11.956   3.172  12.184  0.2437 -1.8140  0.5871
20499SOL    HW266309  12.088   3.123  12.130  0.0010 -0.1297 -1.7151
20500SOL     OW66310   8.895   2.974   5.471 -0.2242  0.0581 -0.0120
20500SOL    HW166311   8.962   2.972   5.402  0.3862  1.6641  0.4621
20500SOL    HW266312   8.872   2.883   5.485  0.0865 -0.3542 -1.9015
20501SOL     OW66313   4.132   5.492   7.849 -0.3385  0.3513 -0.1401
20501SOL    HW166314   4.140   5.547   7.771  1.2568 -0.7181 -0.7946
20501SOL    HW266315   4.060   5.530   7.898 -0.2595  2.1098 -1.2907
20502SOL     OW66316  12.477   3.774   8.704  0.0704 -0.4364  0.1364
20502SOL    HW166317  12.517   3.859   8.721  1.0454 -0.5602 -1.2929
20502SOL    HW266318  12.384   3.792   8.697 -0.1324 -0.0239  2.8675
20503SOL     OW66319   8.569  11.058   2.715  0.0665  0.5182  0.1397
20503SOL    HW166320   8.558  11.113   2.637  1.3578 -0.5911 -0.8949
20503SOL    HW266321   8.618  11.112   2.776 -0.7393  1.3175  0.1051
20504SOL     OW66322  10.579   4.443   9.651 -0.1107 -0.0281 -0.1282
20504SOL    HW166323  10.569   4.361   9.700 -2.8467  0.7701  0.8177
20504SOL    HW266324  10.624   4.502   9.712  0.3675 -0.3239 -0.1937
20505SOL     OW66325   8.719   8.142   0.813  0.0509 -0.5885  0.1326
20505SOL    HW166326   8.755   8.180   0.733  1.0682  1.0556  1.3170
20505SOL    HW266327   8.626   8.163   0.810  0.4302  1.2714  0.3137
20506SOL     OW66328   1.103   8.365   0.328  0.0652  0.0076 -0.3535
20506SOL    HW166329   1.094   8.396   0.238 -0.1461  0.8045 -0.0659
20506SOL    HW266330   1.064   8.278   0.328  1.5436 -0.6996 -1.3998
20507SOL     OW66331   3.146   5.987   3.559 -0.2579 -0.1468  0.1366
20507SOL    HW166332   3.150   5.957   3.650 -1.5954 -0.5559  0.0825
20507SOL    HW266333   3.159   6.081   3.565  2.9162 -0.4813  0.4105
20508SOL     OW66334   1.151   2.853   5.396  0.6245  0.5422 -0.1126
20508SOL    HW166335   1.071   2.904   5.389 -0.2987 -0.8228  0.1131
20508SOL    HW266336   1.210   2.892   5.331 -0.4531  1.1451 -0.7649
20509SOL     OW66337   7.090   5.670   5.541 -0.2040  0.2396 -0.0447
20509SOL    HW166338   7.132   5.595   5.498 -0.1568  0.8416 -1.0931
20509SOL    HW266339   7.163   5.720   5.579  0.0530  1.1630 -1.6677
20510SOL     OW66340   6.353   5.677   8.008  0.4731  1.0048  0.2628
20510SOL    HW166341   6.373   5.678   7.915  1.3593  2.7176  0.4349
20510SOL    HW266342   6.312   5.761   8.025 -0.9664  0.1678  1.1875
20511SOL     OW66343   7.037   1.824   8.654 -0.1239  0.0226  0.6130
20511SOL    HW166344   7.077   1.897   8.608 -1.1087  0.4699  0.4278
20511SOL    HW266345   7.064   1.747   8.604  0.0910  0.3596  0.1999
20512SOL     OW66346   3.181   0.665  10.595 -0.7698 -0.4874  0.0909
20512SOL    HW166347   3.196   0.759  10.594 -1.2402 -0.4035  0.4818
20512SOL    HW266348   3.091   0.655  10.563  0.1685 -1.0035 -2.6343
20513SOL     OW66349   3.240   4.430   4.933  0.0953  0.2203  0.2048
20513SOL    HW166350   3.322   4.475   4.913  0.3134 -0.3674 -0.2664
20513SOL    HW266351   3.254   4.391   5.019  0.6524 -0.6312 -0.2546
20514SOL     OW66352   2.027   1.460   2.896 -0.0228  0.0001 -0.2083
20514SOL    HW166353   2.043   1.393   2.963  0.6854 -0.4810 -0.8329
20514SOL    HW266354   2.004   1.410   2.818  2.9494  0.2659 -1.3851
20515SOL     OW66355   3.390   6.652   0.080  0.2015  0.1499 -0.2227
20515SOL    HW166356   3.397   6.691   0.167 -2.4834 -0.1820  0.2104
20515SOL    HW266357   3.404   6.559   0.094 -0.3844  0.0766 -0.1066
20516SOL     OW66358   1.208   0.794  10.645 -0.2244 -0.6191  0.4905
20516SOL    HW166359   1.137   0.774  10.705 -0.1175 -1.0385  0.4806
20516SOL    HW266360   1.185   0.746  10.565 -0.7148  0.4712 -0.0430
20517SOL     OW66361   8.515   9.966   0.991 -0.0288 -0.3632  0.0373
20517SOL    HW166362   8.454  10.006   0.930  0.9963 -1.0141 -1.4640
20517SOL    HW266363   8.514   9.873   0.968 -0.2675 -0.7766  1.6024
20518SOL     OW66364   0.971   5.163   2.546  0.0321  0.0493 -0.3935
20518SOL    HW166365   0.910   5.212   2.492  0.0978 -0.0036 -0.5141
20518SOL    HW266366   0.978   5.078   2.504 -0.8957 -0.4416  0.3929
20519SOL     OW66367   3.984   8.785   1.997 -0.4190  0.0100 -0.4960
20519SOL    HW166368   4.051   8.815   1.936  0.1536 -1.1116 -0.4502
20519SOL    HW266369   3.981   8.690   1.984  1.2124 -0.6082  2.6438
20520SOL     OW66370   0.239   2.556   8.412  0.4542  0.4792 -0.7378
20520SOL    HW166371   0.151   2.520   8.426 -0.0654  1.2784 -1.7344
20520SOL    HW266372   0.286   2.538   8.493 -0.2729 -0.9715 -0.6106
20521SOL     OW66373   2.177   2.446   3.348  0.0754 -0.5124  0.4563
20521SOL    HW166374   2.094   2.415   3.311  0.0513 -0.1656  0.2109
20521SOL    HW266375   2.197   2.525   3.298  0.4301 -0.4579  0.6815
20522SOL     OW66376   5.242   6.077   6.562  0.3090  0.0533  0.0690
20522SOL    HW166377   5.336   6.060   6.562  0.4684  0.7536  1.8676
20522SOL    HW266378   5.231   6.156   6.614 -1.3123 -0.1891  0.1714
20523SOL     OW66379   8.408   4.231   2.892  0.1967  0.0636  0.3322
20523SOL    HW166380   8.420   4.318   2.929  0.1541  0.2259 -0.0282
20523SOL    HW266381   8.468   4.227   2.818  1.9100 -1.0604  1.7026
20524SOL     OW66382   7.910   3.520  11.823  0.1004 -0.2382 -0.4946
20524SOL    HW166383   7.966   3.454  11.782  0.0346 -1.1016  0.7216
20524SOL    HW266384   7.951   3.536  11.908 -1.2333 -0.5681  0.2406
20525SOL     OW66385  11.146   6.929   2.938 -0.0600 -0.2665  0.4194
20525SOL    HW166386  11.140   6.885   3.023  0.0784  1.4229  1.3494
20525SOL    HW266387  11.103   7.014   2.952 -0.0887  0.0165 -1.2209
20526SOL     OW66388   3.985   7.658  12.454  0.3127 -0.2745 -0.2396
20526SOL    HW166389   3.892   7.648  12.474  0.4083 -0.2385  0.2474
20526SOL    HW266390   4.003   7.589  12.390 -0.0572 -0.2509 -0.3720
20527SOL     OW66391  10.555   0.671   1.019 -0.0016 -0.1064 -0.4569
20527SOL    HW166392  10.627   0.666   0.956  0.6477  1.8047  0.0384
20527SOL    HW266393  10.544   0.582   1.052  1.5530 -0.5967 -1.1999
20528SOL     OW66394   5.962  11.108   0.845 -0.1850 -0.5802 -0.5750
20528SOL    HW166395   5.916  11.119   0.762  1.8431  1.5039 -1.5528
20528SOL    HW266396   5.953  11.192   0.889  0.4583 -0.9995  0.3921
20529SOL     OW66397   3.213   3.175   9.356 -0.4232 -0.0631  0.3035
20529SOL    HW166398   3.190   3.082   9.357 -2.2694  0.3623  1.3422
20529SOL    HW266399   3.308   3.176   9.369 -0.2789 -1.8146 -0.3787
20530SOL     OW66400   8.426   8.082   8.380  0.6183 -0.7131  0.0956
20530SOL    HW166401   8.389   8.162   8.342  0.2548 -1.8152 -1.9996
20530SOL    HW266402   8.377   8.069   8.461  0.1232  0.7305  0.0542
20531SOL     OW66403   8.634   9.440  11.434  0.0852  0.0045  0.6334
20531SOL    HW166404   8.622   9.424  11.341  0.2970  0.1318  0.5824
20531SOL    HW266405   8.562   9.394  11.476  0.4856 -0.7840  0.4692
20532SOL     OW66406   3.060   8.723   3.043 -0.2987  0.5045 -0.3295
20532SOL    HW166407   3.092   8.674   3.119 -1.8382  0.0941  0.1012
20532SOL    HW266408   3.076   8.665   2.969 -3.0697 -1.2751  0.2905
20533SOL     OW66409   6.151   3.120   5.290 -0.5561  0.2588 -0.3206
20533SOL    HW166410   6.156   3.201   5.342 -0.6846  0.6578 -0.9280
20533SOL    HW266411   6.178   3.051   5.352 -1.8136  0.5737  0.6132
20534SOL     OW66412   5.367   7.452   0.109  0.0380 -0.1385  0.0788
20534SOL    HW166413   5.423   7.426   0.036 -0.3896  0.7830 -0.6039
20534SOL    HW266414   5.300   7.507   0.069  0.6730  1.6537  1.3662
20535SOL     OW66415  12.188   3.727   7.993  0.0872  0.6216  0.1857
20535SOL    HW166416  12.166   3.658   8.056  0.8671 -1.0593 -1.3140
20535SOL    HW266417  12.137   3.706   7.915  1.9947  0.4182 -1.0660
20536SOL     OW66418   4.045   6.520  12.532  0.2006 -0.1934  0.0049
20536SOL    HW166419   4.082   6.456  12.471 -1.6499 -0.1640 -1.2319
20536SOL    HW266420   4.110   6.528  12.601  1.1168 -2.3486 -0.5273
20537SOL     OW66421   1.591   9.493   0.902  0.0985 -0.0401 -0.5462
20537SOL    HW166422   1.520   9.472   0.841  1.1112 -4.1960 -0.5454
20537SOL    HW266423   1.666   9.512   0.845 -0.1423  0.9753 -0.5412
20538SOL     OW66424  12.147   5.372   4.060  0.0675 -0.1017  0.5950
20538SOL    HW166425  12.092   5.300   4.091 -0.4984  0.1190  0.1236
20538SOL    HW266426  12.176   5.345   3.973 -0.8933  0.6149  0.0287
20539SOL     OW66427   1.593   1.967  10.015 -0.0983  0.1595 -0.4605
20539SOL    HW166428   1.586   2.053  10.057  2.2944 -0.2847  1.0284
20539SOL    HW266429   1.659   1.979   9.946 -1.1826 -0.0596 -1.5770
20540SOL     OW66430   7.169   9.725   0.533 -0.3096  0.0577 -0.0837
20540SOL    HW166431   7.229   9.651   0.526 -0.3485  0.1160 -1.5164
20540SOL    HW266432   7.181   9.772   0.450 -0.3027  1.6462  0.7885
20541SOL     OW66433  10.388  11.115   5.594 -0.5890 -0.0312  0.3683
20541SOL    HW166434  10.414  11.025   5.613  1.2476  0.5205  0.6843
20541SOL    HW266435  10.467  11.156   5.560 -1.4553  1.4102  0.0204
20542SOL     OW66436   2.296   1.503   8.811  0.0782 -0.3574  0.3590
20542SOL    HW166437   2.227   1.466   8.756 -1.0184  1.0826  0.6998
20542SOL    HW266438   2.269   1.593   8.826  0.6870 -0.5048  2.7223
20543SOL     OW66439   8.789   7.793   9.630  0.2042  0.3258  0.1373
20543SOL    HW166440   8.755   7.707   9.604  2.3083 -0.7422  0.6563
20543SOL    HW266441   8.871   7.773   9.675  1.8795  2.7126 -1.6251
20544SOL     OW66442  10.977  10.771  12.448  0.0028  0.1251 -0.9416
20544SOL    HW166443  10.991  10.679  12.471 -0.4808  0.3332  0.2849
20544SOL    HW266444  10.979  10.818  12.532  0.2284  1.2360 -1.5424
20545SOL     OW66445  11.289   7.706   3.781  0.4790  0.3108  0.4453
20545SOL    HW166446  11.310   7.781   3.725  0.6989 -1.5030 -2.0830
20545SOL    HW266447  11.242   7.744   3.856  0.0487  2.8801 -1.0090
20546SOL     OW66448   8.591   7.814   9.264 -0.5784  0.1111  0.2816
20546SOL    HW166449   8.563   7.841   9.351  0.4193  0.0102  0.6393
20546SOL    HW266450   8.641   7.889   9.231 -1.3299  0.3326 -0.3954
20547SOL     OW66451  10.484   2.912   5.938 -0.0334 -0.8592  0.1570
20547SOL    HW166452  10.549   2.973   5.902 -0.5666 -1.3781 -1.7969
20547SOL    HW266453  10.401   2.940   5.901 -0.4753 -2.0171  0.2148
20548SOL     OW66454   9.093   5.137   8.353 -0.2528 -0.0968  0.3171
20548SOL    HW166455   9.135   5.209   8.305 -1.6541  0.3202 -0.3721
20548SOL    HW266456   9.005   5.133   8.315 -0.8801 -0.8180  1.7972
20549SOL     OW66457   8.422  11.918   7.887  0.0389  0.0616 -0.6559
20549SOL    HW166458   8.488  11.865   7.843 -0.3802 -0.3081 -0.8498
20549SOL    HW266459   8.345  11.911   7.832 -1.0196 -1.7303  0.9088
20550SOL     OW66460   9.072  10.368   0.883  0.0616 -0.1226  0.2067
20550SOL    HW166461   9.089  10.285   0.839  3.9590  0.9290 -0.6745
20550SOL    HW266462   9.082  10.348   0.976  1.7481 -0.5415 -0.0396
20551SOL     OW66463   2.741   2.643   4.841  0.4827  0.8422 -0.5285
20551SOL    HW166464   2.666   2.679   4.890  1.3397  0.8700  0.8230
20551SOL    HW266465   2.808   2.710   4.849  1.0748  0.2631 -0.6160
20552SOL     OW66466   6.950   4.979   7.283 -0.0920 -0.2174  1.4862
20552SOL    HW166467   7.002   5.054   7.312  0.1359 -0.3698  1.4779
20552SOL    HW266468   6.883   5.016   7.226 -0.2318  0.0282  1.8056
20553SOL     OW66469  10.910  10.100   8.468  0.1912 -0.4867 -0.1508
20553SOL    HW166470  10.926  10.182   8.515 -0.7896 -0.4448  0.1220
20553SOL    HW266471  10.834  10.119   8.413  1.7747 -0.2729 -2.4138
20554SOL     OW66472  11.805  12.565   7.412  0.2229  0.7671 -0.0200
20554SOL    HW166473  11.897  12.560   7.438 -0.3082 -1.2979  1.6600
20554SOL    HW266474  11.775  12.650   7.444  1.1768  0.8401  0.6989
20555SOL     OW66475   8.019   5.816   9.428 -0.1374 -0.1070 -0.2169
20555SOL    HW166476   8.080   5.883   9.460  0.5384 -0.7933 -0.0329
20555SOL    HW266477   8.061   5.781   9.349 -0.1328 -0.8045  0.0850
20556SOL     OW66478   8.097   8.520  12.169 -0.7728 -0.0974  0.0700
20556SOL    HW166479   8.038   8.481  12.104  0.7671 -1.1871 -0.7206
20556SOL    HW266480   8.040   8.577  12.221 -2.4745 -0.9106 -0.8095
20557SOL     OW66481   5.561   5.146   6.829 -0.0379  0.1711  0.0945
20557SOL    HW166482   5.506   5.169   6.903 -2.4815  1.4289 -1.9553
20557SOL    HW266483   5.608   5.227   6.808  0.4048 -0.0911  0.0463
20558SOL     OW66484   9.309   3.960   3.558  0.3757 -0.7066  0.3500
20558SOL    HW166485   9.266   3.889   3.606 -0.8513 -0.4342 -0.3110
20558SOL    HW266486   9.314   3.928   3.468 -1.0624  0.3917 -0.1559
20559SOL     OW66487   2.017   2.020  11.534 -0.3260  0.5049  0.5977
20559SOL    HW166488   1.959   2.094  11.555  1.0489  2.0863 -0.9230
20559SOL    HW266489   1.960   1.958  11.490 -1.2362  1.2464  0.6750
20560SOL     OW66490   1.871   8.447  12.572 -0.1061 -0.2462 -0.5852
20560SOL    HW166491   1.817   8.464  12.650  0.9240  0.3405  0.0198
20560SOL    HW266492   1.953   8.411  12.606 -0.4043 -1.9394 -1.5549
20561SOL     OW66493  11.311   0.237   1.624 -0.3743 -0.3753 -0.0338
20561SOL    HW166494  11.310   0.178   1.549 -0.0611 -1.8042  1.0498
20561SOL    HW266495  11.384   0.297   1.607 -2.4331  1.6748 -2.5380
20562SOL     OW66496  11.806   0.212   4.247  0.1205 -0.0927 -0.1645
20562SOL    HW166497  11.856   0.291   4.226  1.2994 -0.7367  0.1096
20562SOL    HW266498  11.715   0.240   4.248  0.5292  1.2799  0.0419
20563SOL     OW66499  10.468   3.405  11.901 -0.0545 -0.1486  0.3366
20563SOL    HW166500  10.414   3.340  11.857  0.9154 -1.2688  0.7389
20563SOL    HW266501  10.409   3.450  11.962 -0.7757 -0.5194 -0.0908
20564SOL     OW66502   9.873   7.027   2.639 -0.3700 -0.4494  0.3791
20564SOL    HW166503   9.854   6.986   2.555  0.9074  0.1597 -0.2313
20564SOL    HW266504   9.788   7.049   2.675 -0.9623  2.4428 -2.3379
20565SOL     OW66505   0.074   6.359   7.284 -0.2247  0.2214  0.6160
20565SOL    HW166506   0.115   6.325   7.363 -1.4071 -0.7548  0.8400
20565SOL    HW266507   0.116   6.444   7.269 -0.5833  0.8422  2.7958
20566SOL     OW66508   9.997   9.033  11.712 -0.5335  0.6092 -0.1327
20566SOL    HW166509  10.038   8.960  11.664 -0.8166 -0.4916  1.2299
20566SOL    HW266510  10.045   9.110  11.683  1.8268 -0.4853  0.5758
20567SOL     OW66511   6.267  10.396   0.532  0.4508 -0.2077 -0.0613
20567SOL    HW166512   6.266  10.486   0.564  2.6580 -0.3555  0.5849
20567SOL    HW266513   6.286  10.344   0.610 -0.1419 -1.1915 -0.5540
20568SOL     OW66514   2.794   3.518   5.357 -0.4224  0.5276  0.3115
20568SOL    HW166515   2.843   3.463   5.418  0.9118  0.6180 -0.6369
20568SOL    HW266516   2.833   3.605   5.367 -0.7586  0.7261 -0.0780
20569SOL     OW66517  10.720   9.790   4.691 -0.0365 -0.0975 -0.6725
20569SOL    HW166518  10.626   9.774   4.678  0.1621 -0.5035 -1.6473
20569SOL    HW266519  10.760   9.772   4.606  0.8284  0.8939 -0.4968
20570SOL     OW66520   6.707   8.984   4.427 -0.1920 -0.3699 -0.7553
20570SOL    HW166521   6.759   9.012   4.351  0.8051 -0.6961 -0.2066
20570SOL    HW266522   6.617   8.987   4.396  0.2213 -0.8490 -2.0779
20571SOL     OW66523  10.900   8.699  10.427 -0.5065  0.6299  0.1132
20571SOL    HW166524  10.833   8.646  10.471  1.1074 -1.0432  0.7063
20571SOL    HW266525  10.897   8.671  10.336 -0.8486  0.8155  0.0676
20572SOL     OW66526   4.322   6.994   9.822  0.2008  0.0943 -1.0442
20572SOL    HW166527   4.386   7.060   9.796  2.5763 -1.2118  1.0784
20572SOL    HW266528   4.360   6.911   9.794  0.5091 -0.8905  1.9461
20573SOL     OW66529   7.804   0.225  10.032 -0.3458  0.0632  0.2052
20573SOL    HW166530   7.796   0.191  10.121  0.4343  0.9679  0.6222
20573SOL    HW266531   7.884   0.185   9.998 -1.4136 -1.4850 -0.6601
20574SOL     OW66532   5.237   4.152  10.657 -0.4344 -0.2804  0.3299
20574SOL    HW166533   5.214   4.108  10.575 -0.2611  0.9379 -0.3893
20574SOL    HW266534   5.187   4.233  10.657  1.5938  1.0351  0.1091
20575SOL     OW66535   0.022   6.783   1.303  0.1442 -0.0347  0.3015
20575SOL    HW166536  -0.063   6.753   1.270  1.1575 -2.3454 -0.4301
20575SOL    HW266537   0.075   6.793   1.225  0.5410  1.5093  0.7493
20576SOL     OW66538  10.793   2.245   9.506  0.0166 -0.6475  0.2753
20576SOL    HW166539  10.705   2.281   9.503  0.5390  0.6480 -0.5784
20576SOL    HW266540  10.834   2.287   9.581 -0.5055 -2.3718  1.6010
20577SOL     OW66541   3.411   0.686   0.915 -0.4874  0.7114  0.2730
20577SOL    HW166542   3.475   0.633   0.963 -0.1802  1.2612  0.4874
20577SOL    HW266543   3.444   0.775   0.923 -1.1223  0.9634  0.1184
20578SOL     OW66544   7.153  10.364   6.742 -0.4669 -0.3482  0.3262
20578SOL    HW166545   7.183  10.396   6.827  0.0436  0.7442 -0.2427
20578SOL    HW266546   7.226  10.311   6.710 -1.1771 -1.8715  1.1178
20579SOL     OW66547   5.223  10.303   3.202  0.1849 -0.2251  0.0588
20579SOL    HW166548   5.221  10.383   3.150  0.3698 -1.1191 -1.4070
20579SOL    HW266549   5.139  10.261   3.183 -0.2088 -0.0505  1.3708
20580SOL     OW66550   4.591   0.961   9.496 -0.0011  0.5293  0.1996
20580SOL    HW166551   4.586   0.878   9.542  0.2161  0.0289 -0.6549
20580SOL    HW266552   4.509   0.967   9.447  0.4941  0.2314 -0.6921
20581SOL     OW66553   7.711   4.180   7.447 -0.2418 -0.4287 -0.2259
20581SOL    HW166554   7.662   4.257   7.418 -0.0431  0.7978  2.4573
20581SOL    HW266555   7.647   4.108   7.445 -0.7385  0.0113 -1.6048
20582SOL     OW66556   6.788  11.691   5.383  0.3094 -0.9222 -0.4138
20582SOL    HW166557   6.851  11.622   5.402  1.3087  0.0883  0.0399
20582SOL    HW266558   6.813  11.764   5.440 -1.2084 -0.4509 -0.3017
20583SOL     OW66559   6.988  10.894  12.201  0.5218 -0.4192 -0.1800
20583SOL    HW166560   6.940  10.917  12.121 -0.1053 -1.8160 -0.2396
20583SOL    HW266561   7.080  10.907  12.179  0.2325  2.1574 -0.1232
20584SOL     OW66562   6.166   2.743   4.043 -0.1020  0.3238 -0.2588
20584SOL    HW166563   6.185   2.828   4.004 -2.2692  1.6705  1.4113
20584SOL    HW266564   6.070   2.737   4.044 -0.0953 -0.8607  2.2042
20585SOL     OW66565  11.678   3.736   9.049 -0.3993 -0.1649 -0.1941
20585SOL    HW166566  11.747   3.750   9.114 -1.0967  0.5213  0.4187
20585SOL    HW266567  11.645   3.824   9.030 -0.8034 -0.4439 -0.8252
20586SOL     OW66568   8.166   0.796  10.011 -0.2322 -0.5886 -0.3115
20586SOL    HW166569   8.253   0.832   9.996 -0.1141 -0.8568 -0.2742
20586SOL    HW266570   8.142   0.757   9.927 -0.0943 -0.9845 -0.1685
20587SOL     OW66571   9.645   7.287   6.438  0.3201  0.4942  0.3045
20587SOL    HW166572   9.700   7.365   6.438 -1.3848  1.7441 -0.5223
20587SOL    HW266573   9.637   7.263   6.530 -0.3363  2.1905  0.7253
20588SOL     OW66574   2.137   3.834   1.364  0.0872 -0.2806 -0.2253
20588SOL    HW166575   2.163   3.763   1.307  0.9178  0.0647 -0.2910
20588SOL    HW266576   2.174   3.913   1.324 -1.9679  0.3955 -0.9072
20589SOL     OW66577   1.090  11.188   8.236  0.4291  0.3578 -0.5420
20589SOL    HW166578   1.003  11.226   8.247  0.2844  0.2659 -1.2682
20589SOL    HW266579   1.095  11.118   8.301 -1.2220 -1.6343 -2.4122
20590SOL     OW66580  11.246   7.596  11.297  0.1483 -0.1685 -0.3783
20590SOL    HW166581  11.288   7.569  11.378 -1.9159  0.6438  1.0494
20590SOL    HW266582  11.268   7.688  11.287 -0.6206  0.0662 -0.0206
20591SOL     OW66583  12.636  10.116   4.319 -0.0406 -0.6312  0.2196
20591SOL    HW166584  12.597  10.172   4.252  0.8944 -0.0168  0.1670
20591SOL    HW266585  12.582  10.037   4.319 -0.0700 -0.6258 -1.2368
20592SOL     OW66586  10.292   6.220   9.556 -0.4087  0.4949  0.1873
20592SOL    HW166587  10.329   6.290   9.501  0.4543  0.7326  1.0421
20592SOL    HW266588  10.365   6.159   9.567 -0.0885  1.1803  2.2556
20593SOL     OW66589  11.031  10.386   9.080 -0.3657  0.2444 -0.2656
20593SOL    HW166590  10.954  10.442   9.085 -0.2786  0.4760 -1.3049
20593SOL    HW266591  11.075  10.412   8.999  0.7564  0.0562  0.2566
20594SOL     OW66592   2.350   6.975  11.944  0.3173  0.2306 -0.2075
20594SOL    HW166593   2.322   7.066  11.940  1.0672  0.5225  0.7673
20594SOL    HW266594   2.415   6.973  12.014 -0.5729 -1.2828  0.6333
20595SOL     OW66595   0.352  10.789   1.537 -0.5410 -0.0524  0.1324
20595SOL    HW166596   0.363  10.701   1.500  0.5552 -0.8803  2.3041
20595SOL    HW266597   0.271  10.784   1.588 -0.5443  0.2704  0.1621
20596SOL     OW66598   6.557   6.651   4.237  0.4662  0.5710 -0.2312
20596SOL    HW166599   6.469   6.667   4.203 -0.1233 -0.7396  0.5957
20596SOL    HW266600   6.568   6.556   4.233  1.9861  0.7378 -0.6200
20597SOL     OW66601   4.001   9.823   7.539  0.3984  0.5675 -0.5866
20597SOL    HW166602   4.089   9.805   7.574  0.1398  1.1605  0.4318
20597SOL    HW266603   4.003   9.916   7.516 -0.2207  0.8112  0.2841
20598SOL     OW66604   0.703  12.163   7.102 -0.3352 -0.2456 -0.0604
20598SOL    HW166605   0.701  12.241   7.158  0.3642 -2.5399  3.5244
20598SOL    HW266606   0.622  12.116   7.123  0.4939 -1.7336 -0.0732
20599SOL     OW66607   6.712   2.376  12.313 -0.2260 -0.0298 -0.2204
20599SOL    HW166608   6.795   2.350  12.273 -0.3932 -0.2562 -0.4173
20599SOL    HW266609   6.658   2.297  12.311 -1.5712  0.8451 -2.9025
20600SOL     OW66610   3.464   8.163  10.309  0.4789 -0.6195 -0.0401
20600SOL    HW166611   3.425   8.117  10.383  0.9283 -0.1470  0.5035
20600SOL    HW266612   3.506   8.094  10.257 -0.0843 -0.9883 -0.0192
20601SOL     OW66613   6.311   4.616   6.959  0.7838 -0.8358 -0.0983
20601SOL    HW166614   6.224   4.613   6.998  0.8889 -1.1138  0.1158
20601SOL    HW266615   6.336   4.524   6.949  0.1104 -0.8218 -2.2888
20602SOL     OW66616  10.719   1.248   7.246  0.0837  0.0167 -0.2935
20602SOL    HW166617  10.788   1.232   7.182  2.9695  0.1145  2.5768
20602SOL    HW266618  10.703   1.162   7.286 -0.5028  0.2615  0.0199
20603SOL     OW66619   8.422   8.807  12.433  0.0230  0.5161 -0.0590
20603SOL    HW166620   8.441   8.818  12.340 -0.7617 -0.3710 -0.3438
20603SOL    HW266621   8.429   8.895  12.470  0.1111  0.9136 -1.0041
20604SOL     OW66622   1.493   0.010   8.372 -0.1102 -0.3178 -0.3299
20604SOL    HW166623   1.509   0.102   8.391  0.5872 -0.0298 -2.0989
20604SOL    HW266624   1.576  -0.033   8.390 -0.0825 -0.3982 -0.6447
20605SOL     OW66625   5.706  12.099   5.802  0.2721 -0.5876  0.2652
20605SOL    HW166626   5.690  12.165   5.869 -2.3751 -0.9866  0.1149
20605SOL    HW266627   5.732  12.149   5.724  0.5523  0.0755  0.7796
20606SOL     OW66628   2.094   5.158   5.491 -0.2670 -0.4370 -0.2772
20606SOL    HW166629   2.046   5.235   5.461 -0.4471  0.4738  2.1317
20606SOL    HW266630   2.180   5.192   5.516  0.2116 -1.3316 -0.6593
20607SOL     OW66631   3.145   6.237   6.763  0.4167 -0.3644 -0.0030
20607SOL    HW166632   3.123   6.269   6.850  0.7634  0.7095 -0.2948
20607SOL    HW266633   3.239   6.222   6.767  0.4061 -0.4629 -0.1448
20608SOL     OW66634   3.996   4.093  12.611  0.6216 -0.2540 -0.0564
20608SOL    HW166635   4.091   4.099  12.598  0.6491 -2.6287 -1.5707
20608SOL    HW266636   3.971   4.012  12.567 -2.1863  0.4604  0.0367
20609SOL     OW66637   1.239  10.191   4.727  0.2168  0.2336 -0.2078
20609SOL    HW166638   1.260  10.186   4.634  2.4781  2.1734  0.0916
20609SOL    HW266639   1.315  10.151   4.771  0.2345  1.3619  0.8376
20610SOL     OW66640   9.294   7.782   3.806 -0.0374  0.0196  0.1991
20610SOL    HW166641   9.369   7.825   3.847  0.0357 -0.8056  0.9671
20610SOL    HW266642   9.274   7.836   3.730 -0.5993  2.0252  1.6746
20611SOL     OW66643   6.219  11.573   9.589 -0.8119  0.2369 -0.3520
20611SOL    HW166644   6.271  11.540   9.515 -0.1323 -2.0806  1.0514
20611SOL    HW266645   6.130  11.545   9.570 -0.4510 -1.4169  0.1851
20612SOL     OW66646   3.772   2.428   3.478  0.2326 -0.2097  0.2245
20612SOL    HW166647   3.805   2.397   3.393  0.8443  0.3574  0.2476
20612SOL    HW266648   3.754   2.348   3.527  2.0696 -0.5656  0.4008
20613SOL     OW66649  10.939   1.420   2.843 -0.4284 -0.1685 -0.4791
20613SOL    HW166650  11.011   1.364   2.813 -0.6674 -0.9626  0.3938
20613SOL    HW266651  10.972   1.509   2.832  0.5932 -0.5113 -0.3237
20614SOL     OW66652  10.178  11.042   7.335  0.2109  0.2487  0.2211
20614SOL    HW166653  10.158  11.131   7.365  2.3308  0.6942  0.4666
20614SOL    HW266654  10.183  11.051   7.239 -1.9164 -0.1593  0.0332
20615SOL     OW66655   3.062   4.239  11.870 -0.4797  0.1605  0.0598
20615SOL    HW166656   3.010   4.246  11.790  1.7410  0.6955 -1.4621
20615SOL    HW266657   3.008   4.188  11.930 -2.1428 -0.4936 -1.8735
20616SOL     OW66658   7.937   9.241   0.296 -0.2282  0.3219 -0.0854
20616SOL    HW166659   7.985   9.258   0.377  0.5810 -0.9136 -0.2686
20616SOL    HW266660   7.935   9.145   0.290 -0.8760  0.3918 -1.1789
20617SOL     OW66661   3.888   9.438   8.454 -0.2303 -0.6165 -0.2420
20617SOL    HW166662   3.963   9.497   8.452  0.6340 -1.5905  1.3186
20617SOL    HW266663   3.923   9.354   8.424 -0.3980 -1.3380  1.4695
20618SOL     OW66664   6.289   5.808   0.863  0.0744  0.2625 -0.3395
20618SOL    HW166665   6.217   5.869   0.850  1.7671  2.0039 -2.0964
20618SOL    HW266666   6.251   5.722   0.843 -1.3880  1.1713 -1.7348
20619SOL     OW66667  10.741  10.019  11.366 -0.1304  0.0163 -0.0520
20619SOL    HW166668  10.745   9.944  11.425 -0.6419 -0.3794 -0.5022
20619SOL    HW266669  10.749   9.981  11.279 -0.5994  0.4613 -0.2925
20620SOL     OW66670   0.864   3.868   4.705  0.2082  0.1714  0.2822
20620SOL    HW166671   0.942   3.919   4.724  0.6843 -0.3688 -0.1888
20620SOL    HW266672   0.848   3.881   4.612 -0.4519  0.5328  0.4433
20621SOL     OW66673   4.452   6.632   5.075  0.3596 -0.4388 -0.2420
20621SOL    HW166674   4.400   6.582   5.138 -0.5616 -0.9306 -1.3511
20621SOL    HW266675   4.517   6.678   5.128 -0.4240 -0.7873  1.0642
20622SOL     OW66676  12.293   1.654  12.636 -0.4693 -0.4096 -0.2167
20622SOL    HW166677  12.379   1.690  12.659 -0.7948 -0.7040  1.6362
20622SOL    HW266678  12.256   1.718  12.576  0.7143  0.1263 -0.4141
20623SOL     OW66679  12.313  11.083  11.935  0.4309  0.3650 -0.1787
20623SOL    HW166680  12.278  11.028  12.005 -1.9852  2.2838  0.2335
20623SOL    HW266681  12.296  11.034  11.855 -0.3794 -0.1096  0.2736
20624SOL     OW66682   2.439   9.935   8.685 -0.0947  0.1795 -0.2415
20624SOL    HW166683   2.392   9.902   8.608 -2.0820 -0.0719  0.9981
20624SOL    HW266684   2.379   9.919   8.757  0.9854  1.9954  1.1343
20625SOL     OW66685   4.260   0.544   6.392  0.5824 -0.0875 -0.2454
20625SOL    HW166686   4.339   0.508   6.431  0.3531 -0.7634 -0.4008
20625SOL    HW266687   4.209   0.468   6.365 -1.4941  0.1883  2.5089
20626SOL     OW66688   5.139   9.916   9.298  0.3072 -0.2314 -0.1347
20626SOL    HW166689   5.107   9.956   9.217  4.8187  2.0070 -1.1875
20626SOL    HW266690   5.105   9.972   9.368 -1.9856 -0.9773 -0.5824
20627SOL     OW66691   9.066   2.410   5.850 -0.4682 -0.3647 -0.1075
20627SOL    HW166692   8.973   2.401   5.831 -0.3825 -0.1810 -0.6473
20627SOL    HW266693   9.109   2.355   5.785 -0.1180  1.1238 -1.1996
20628SOL     OW66694   6.423   3.481  12.363  0.5025 -0.1859  0.4153
20628SOL    HW166695   6.441   3.434  12.283 -0.8749 -1.1768  0.6607
20628SOL    HW266696   6.399   3.414  12.427 -0.2719  0.7288  1.1286
20629SOL     OW66697  10.438   4.785  12.094 -0.2351  0.0429  0.1658
20629SOL    HW166698  10.444   4.836  12.013 -1.7973  0.4663  0.2874
20629SOL    HW266699  10.451   4.848  12.164 -1.8545  0.2389  0.3078
20630SOL     OW66700  12.515   3.216   8.380 -0.0805 -0.4004  0.0194
20630SOL    HW166701  12.519   3.253   8.468 -0.3202 -2.9436  1.1986
20630SOL    HW266702  12.473   3.284   8.327 -0.4841  0.9758  2.0041
20631SOL     OW66703   9.405   1.354  11.064  0.0914  0.4388 -0.0110
20631SOL    HW166704   9.440   1.313  11.144 -0.3291  0.0550 -0.0203
20631SOL    HW266705   9.464   1.323  10.995 -0.3529 -0.3453 -0.0511
20632SOL     OW66706  11.939   5.640   0.186 -0.0783  0.8753  0.0799
20632SOL    HW166707  11.878   5.685   0.244 -0.1122 -0.0335  0.7774
20632SOL    HW266708  12.021   5.636   0.236  0.1243  0.7825 -0.2545
20633SOL     OW66709   9.495   6.098  10.654  0.2529 -0.1520 -0.9157
20633SOL    HW166710   9.538   6.142  10.581  1.3493  0.3564 -0.0120
20633SOL    HW266711   9.452   6.169  10.702  0.1129 -0.3822 -0.6958
20634SOL     OW66712   0.351   1.314   5.799  0.1137 -0.4982 -0.6192
20634SOL    HW166713   0.382   1.278   5.715 -0.0100  0.4286 -1.0777
20634SOL    HW266714   0.342   1.407   5.782 -1.4663 -0.5310 -0.0329
20635SOL     OW66715   7.103   3.016   5.009  0.5359 -0.1866  0.0947
20635SOL    HW166716   7.124   2.997   5.101  0.8919  1.2707  0.3396
20635SOL    HW266717   7.079   2.931   4.972  1.0421 -0.9137  1.3610
20636SOL     OW66718   6.192   2.826   5.766 -0.1370 -0.2489 -0.1690
20636SOL    HW166719   6.273   2.795   5.808  0.5024  0.6268 -0.7064
20636SOL    HW266720   6.220   2.901   5.713 -0.9704 -1.1560 -1.9634
20637SOL     OW66721   7.973   2.461  10.123 -0.4308 -0.3703 -0.0347
20637SOL    HW166722   7.963   2.550  10.090 -1.3423 -0.5106 -0.1610
20637SOL    HW266723   7.976   2.470  10.218  0.7851 -0.0940 -0.0847
20638SOL     OW66724   3.639  11.378  11.681  0.1242  0.4364  0.1406
20638SOL    HW166725   3.626  11.342  11.769  1.5064  1.3202  0.7271
20638SOL    HW266726   3.560  11.429  11.664 -1.4012 -1.9160 -0.2791
20639SOL     OW66727   4.540  10.250   6.321  0.6799  0.0778  0.9084
20639SOL    HW166728   4.470  10.304   6.284 -0.8571 -1.9773  0.6043
20639SOL    HW266729   4.546  10.278   6.412 -0.1853  0.6684  0.8012
20640SOL     OW66730   0.776  11.668   9.144 -0.0454  0.3134 -0.2508
20640SOL    HW166731   0.709  11.635   9.084 -0.5505 -0.0176  0.4758
20640SOL    HW266732   0.765  11.763   9.142 -0.6676  0.2547 -0.0017
20641SOL     OW66733   0.572  10.271   1.775  0.0002 -0.2082 -0.3759
20641SOL    HW166734   0.491  10.270   1.827  0.4885 -0.0965  0.4073
20641SOL    HW266735   0.551  10.325   1.699 -0.0977  1.4059  0.7591
20642SOL     OW66736   7.198  10.620  10.698 -0.5135 -0.0913  0.0609
20642SOL    HW166737   7.285  10.652  10.718 -0.2602 -0.7899  0.1025
20642SOL    HW266738   7.150  10.697  10.666  0.4408  0.0764 -1.0071
20643SOL     OW66739   0.050   4.271   7.892 -0.4125  0.6857 -0.3085
20643SOL    HW166740  -0.045   4.282   7.888 -0.6847 -1.2832 -0.6539
20643SOL    HW266741   0.071   4.277   7.985 -1.0915 -0.1988 -0.0869
20644SOL     OW66742   0.229  10.743   6.636 -0.1380 -0.5839  0.4090
20644SOL    HW166743   0.310  10.694   6.634  0.1182 -0.1538  0.1087
20644SOL    HW266744   0.161  10.678   6.654  0.2320 -0.9919  0.3218
20645SOL     OW66745   9.817   0.267  11.407  0.2011 -0.1527 -0.1897
20645SOL    HW166746   9.874   0.327  11.456 -0.6292 -0.3058  0.9965
20645SOL    HW266747   9.866   0.248  11.327  2.3107 -1.0817  1.2136
20646SOL     OW66748   6.434   8.175   4.676  0.0662  0.0829  0.1330
20646SOL    HW166749   6.472   8.262   4.690 -0.8660  0.2738  1.6982
20646SOL    HW266750   6.412   8.143   4.763 -0.0695 -1.5331 -0.4475
20647SOL     OW66751   2.272   5.282   8.152  0.0770  0.2863 -0.5367
20647SOL    HW166752   2.183   5.247   8.143  0.9905 -2.0087 -1.2937
20647SOL    HW266753   2.320   5.245   8.078  2.3135 -0.6359  1.2791
20648SOL     OW66754   4.803   0.253   7.801  0.5539  0.6734 -0.1806
20648SOL    HW166755   4.707   0.258   7.798  0.1860 -1.9707  2.1209
20648SOL    HW266756   4.832   0.274   7.713 -2.2227  0.6502 -1.1883
20649SOL     OW66757   3.268   2.620  11.861  0.0797 -0.6579  0.2040
20649SOL    HW166758   3.224   2.634  11.777  1.3706 -0.2164 -0.4217
20649SOL    HW266759   3.359   2.600  11.838  0.7691  0.7195  1.5270
20650SOL     OW66760   0.766  11.923   3.435 -0.2425  0.0481 -0.0547
20650SOL    HW166761   0.737  11.957   3.350  1.5319  0.6020 -0.4800
20650SOL    HW266762   0.853  11.961   3.447 -1.0159  1.1664  2.7131
20651SOL     OW66763   6.706   5.099   4.732  0.3211  0.1258 -0.2452
20651SOL    HW166764   6.651   5.176   4.747  1.4467  1.0603 -0.7575
20651SOL    HW266765   6.644   5.027   4.722 -0.8484  1.2372 -1.3768
20652SOL     OW66766   8.123   6.990   7.823  0.5197 -0.4151  0.3478
20652SOL    HW166767   8.094   6.993   7.914  0.4825 -0.6128  0.3424
20652SOL    HW266768   8.138   6.897   7.805  2.6566 -0.2317  0.8374
20653SOL     OW66769   9.791  11.763   3.898  0.3573 -0.1758 -0.1961
20653SOL    HW166770   9.801  11.725   3.811  1.4894 -0.2506 -0.0542
20653SOL    HW266771   9.698  11.784   3.905  0.4469  0.9027 -1.8514
20654SOL     OW66772   6.351  11.962  12.151  0.5273 -0.4617  0.3103
20654SOL    HW166773   6.430  11.908  12.152 -0.1665 -1.5477 -0.9824
20654SOL    HW266774   6.284  11.907  12.111 -0.4972  0.9732 -0.0399
20655SOL     OW66775   5.699   2.334   5.742  0.2069  0.6949  0.2127
20655SOL    HW166776   5.726   2.387   5.667 -2.2918  1.0976 -0.4863
20655SOL    HW266777   5.758   2.259   5.742  1.7293  1.8431 -0.7321
20656SOL     OW66778   8.692   8.805  10.626  0.1677  0.5028  0.4948
20656SOL    HW166779   8.606   8.764  10.618  0.7728 -0.6257 -0.5284
20656SOL    HW266780   8.710   8.841  10.539  0.7176  0.7644  0.7123
20657SOL     OW66781   3.041   4.635   0.372  0.0478  0.1929  0.0816
20657SOL    HW166782   3.115   4.577   0.390 -0.3100 -0.2290  0.2200
20657SOL    HW266783   3.079   4.708   0.324  0.3688 -0.5938 -0.9104
20658SOL     OW66784   9.643  10.814  12.415  0.2837 -0.2000  0.4417
20658SOL    HW166785   9.685  10.729  12.426 -0.3082 -0.4640  0.6934
20658SOL    HW266786   9.701  10.861  12.355  0.9868 -0.5204  0.8520
20659SOL     OW66787   3.713   5.116   0.755  0.8553 -0.6499 -0.0881
20659SOL    HW166788   3.775   5.155   0.693 -0.0091 -1.0620 -1.2380
20659SOL    HW266789   3.658   5.188   0.784 -0.0220 -0.7732 -1.3594
20660SOL     OW66790  10.292   5.522   1.179  0.0265 -0.3116  0.4475
20660SOL    HW166791  10.309   5.518   1.273 -0.4154  0.2365  0.5600
20660SOL    HW266792  10.198   5.504   1.170 -0.2478  1.0624  0.2604
20661SOL     OW66793   0.438   5.425  11.112  0.4354  0.2648 -0.1407
20661SOL    HW166794   0.519   5.406  11.158  0.2474 -0.3153 -0.0425
20661SOL    HW266795   0.400   5.499  11.160  0.9173  0.5613 -0.2093
20662SOL     OW66796   8.718   0.572   8.584 -0.0755 -0.1786 -0.0959
20662SOL    HW166797   8.717   0.558   8.489  0.0220  0.3070 -0.1703
20662SOL    HW266798   8.671   0.654   8.597  0.5252  0.1221  0.2158
20663SOL     OW66799  12.347   0.219   9.651  0.8332  0.2195  0.3513
20663SOL    HW166800  12.330   0.295   9.706  0.8803  0.6226 -0.1953
20663SOL    HW266801  12.264   0.201   9.607  0.2045 -1.2914  1.9826
20664SOL     OW66802  11.879   3.730   0.598  0.0362 -0.3860 -0.0371
20664SOL    HW166803  11.961   3.705   0.555  0.3436 -1.5336  1.1544
20664SOL    HW266804  11.906   3.784   0.672 -0.2468 -1.0259  0.5448
20665SOL     OW66805   4.810   4.345   0.915  0.7683 -0.4629  0.0731
20665SOL    HW166806   4.846   4.421   0.869  0.3807 -0.3300 -0.0061
20665SOL    HW266807   4.742   4.311   0.858  0.5242 -0.5071  0.3866
20666SOL     OW66808   8.163   5.570   8.019  0.3306 -0.1893  0.4958
20666SOL    HW166809   8.182   5.489   7.971 -1.2504 -0.2139 -0.1521
20666SOL    HW266810   8.184   5.640   7.956  1.9114 -0.0655  1.1330
20667SOL     OW66811  12.024   8.333   5.088 -0.0229  0.1095  0.1943
20667SOL    HW166812  11.968   8.411   5.089  2.1242  1.7405  1.4350
20667SOL    HW266813  12.006   8.289   5.171 -0.2976 -0.0365  0.0612
20668SOL     OW66814   9.658  10.757   4.627  0.0056 -0.2117 -0.3028
20668SOL    HW166815   9.604  10.809   4.567  0.2642 -2.1987 -2.4025
20668SOL    HW266816   9.734  10.731   4.574  1.4385 -0.1846  1.6163
20669SOL     OW66817   8.768   6.464   1.691 -0.3546 -0.0514 -0.9138
20669SOL    HW166818   8.756   6.470   1.596  2.6306  1.1991 -1.3411
20669SOL    HW266819   8.861   6.444   1.702 -0.5767  0.0370  1.7644
20670SOL     OW66820   9.566   8.461   2.005 -0.3703 -0.2556  0.3795
20670SOL    HW166821   9.566   8.450   2.100 -2.2880 -1.8844  0.2561
20670SOL    HW266822   9.478   8.494   1.985  0.3738  1.1471 -0.7674
20671SOL     OW66823  11.701   5.462   8.504  0.8759 -0.2855 -0.3763
20671SOL    HW166824  11.686   5.477   8.410  2.1658  2.3807 -0.2474
20671SOL    HW266825  11.778   5.405   8.507  0.2075 -1.2412 -0.9212
20672SOL     OW66826   0.718   8.420   5.218  0.2350 -0.2282 -0.4071
20672SOL    HW166827   0.672   8.456   5.142 -2.0518 -0.9587  0.5122
20672SOL    HW266828   0.713   8.490   5.284 -0.3031 -0.5889 -0.0528
20673SOL     OW66829   8.331   4.972   9.898  0.1936  0.1247  0.2178
20673SOL    HW166830   8.328   5.049   9.842 -1.7239 -0.1994 -0.1981
20673SOL    HW266831   8.365   5.005   9.982  1.6099  0.9156 -0.6160
20674SOL     OW66832   8.510  11.949   1.934  0.2431  0.1198  0.5697
20674SOL    HW166833   8.500  11.910   1.847 -0.1754 -2.0958  1.5216
20674SOL    HW266834   8.436  12.009   1.943  0.7152  0.9396 -0.8636
20675SOL     OW66835  11.734   6.660   2.035  0.2919 -0.3312  0.1413
20675SOL    HW166836  11.801   6.715   1.995 -0.3271  0.7266  0.5093
20675SOL    HW266837  11.762   6.648   2.125  0.1576 -0.1820  0.2024
20676SOL     OW66838   8.507   9.285   5.932  0.3098 -0.2060 -0.1841
20676SOL    HW166839   8.413   9.277   5.920  0.4947 -0.8963 -1.4181
20676SOL    HW266840   8.542   9.198   5.907  1.3322  0.3295 -0.7056
20677SOL     OW66841   3.836   5.108   3.003  0.0816  0.4133 -0.1378
20677SOL    HW166842   3.748   5.144   2.992  0.2887  0.8308 -0.4096
20677SOL    HW266843   3.854   5.118   3.096 -0.5857 -0.6649  0.1382
20678SOL     OW66844   8.101   9.012  10.469 -0.5544 -0.1688  0.1049
20678SOL    HW166845   8.032   9.056  10.419  1.4926  3.4998  0.1436
20678SOL    HW266846   8.180   9.063  10.450  2.4371 -4.4856 -0.4644
20679SOL     OW66847   8.866  11.832   9.135 -0.4194 -0.0016 -0.1047
20679SOL    HW166848   8.945  11.784   9.111 -0.3454  0.0938 -0.0545
20679SOL    HW266849   8.882  11.921   9.102  0.1536  0.4253  1.2432
20680SOL     OW66850   5.754   4.242  10.921 -0.2611  0.1086  0.0465
20680SOL    HW166851   5.741   4.247  10.826  0.2680 -1.3683 -0.1411
20680SOL    HW266852   5.673   4.203  10.954 -0.0536 -0.3164  0.0625
20681SOL     OW66853   0.970   9.646   3.300  0.0668  0.7034  0.4514
20681SOL    HW166854   0.967   9.741   3.294  0.5166  0.7255  0.6345
20681SOL    HW266855   0.929   9.616   3.218 -0.9280  1.0463  0.8091
20682SOL     OW66856   5.603  10.445   2.990  0.2488 -0.5242 -0.0122
20682SOL    HW166857   5.594  10.529   2.945 -0.8659 -0.1693  0.8117
20682SOL    HW266858   5.520  10.400   2.973  0.4265 -1.0187  0.3970
20683SOL     OW66859   9.437  10.546  11.923  0.0118  0.3209  0.4862
20683SOL    HW166860   9.520  10.591  11.933 -0.0927  1.5683 -2.9348
20683SOL    HW266861   9.461  10.454  11.908  0.4379 -0.1382  3.3928
20684SOL     OW66862   3.699   1.979   3.555  0.4266 -0.5295  0.6258
20684SOL    HW166863   3.708   2.046   3.622  2.0398 -1.8872  1.8599
20684SOL    HW266864   3.630   2.011   3.497  0.5131  1.7154  1.6882
20685SOL     OW66865  10.881   6.281   2.131  0.1764 -0.1192  0.9576
20685SOL    HW166866  10.849   6.243   2.049  0.5504 -1.4115  1.3804
20685SOL    HW266867  10.948   6.343   2.103 -0.0301 -0.1901  0.2641
20686SOL     OW66868  10.708   3.421   0.042 -0.2624  0.1565 -0.1253
20686SOL    HW166869  10.767   3.359   0.085  1.2004  1.3930 -0.2561
20686SOL    HW266870  10.688   3.485   0.110 -2.3414 -0.7982  0.2175
20687SOL     OW66871   2.317  12.274   8.235 -0.0110 -0.3831 -0.3767
20687SOL    HW166872   2.269  12.199   8.270  1.0528 -0.6182  0.6588
20687SOL    HW266873   2.316  12.338   8.305 -1.0626  0.6798 -1.3220
20688SOL     OW66874   0.848   6.899   7.655 -0.5888 -0.0596 -0.1057
20688SOL    HW166875   0.821   6.920   7.566 -0.2485  0.7396 -0.0268
20688SOL    HW266876   0.782   6.836   7.685 -0.3608 -0.8061 -1.1231
20689SOL     OW66877   7.883   3.113   6.937 -0.5169  0.4688  0.3335
20689SOL    HW166878   7.974   3.140   6.952 -0.8217  2.3282 -0.8239
20689SOL    HW266879   7.885   3.017   6.943  1.9416  0.2824 -1.6197
20690SOL     OW66880   8.356  12.002   4.273  0.0456 -0.3639  0.1710
20690SOL    HW166881   8.435  12.024   4.223  0.2099 -0.9804  0.1504
20690SOL    HW266882   8.288  12.061   4.238 -0.6065 -2.6912 -2.9246
20691SOL     OW66883   2.952   3.488   1.969 -0.2320 -0.1739  0.2380
20691SOL    HW166884   2.946   3.490   1.874 -0.2827 -0.4297  0.2326
20691SOL    HW266885   2.917   3.401   1.993  1.2252 -0.7486  0.3792
20692SOL     OW66886   4.231   7.875   6.127  0.6931  0.0609 -0.4050
20692SOL    HW166887   4.238   7.781   6.107 -2.4889 -0.5095  0.5361
20692SOL    HW266888   4.217   7.878   6.222 -1.3186  1.2449 -0.6758
20693SOL     OW66889   3.525   2.428   8.982 -0.5445 -0.5610  0.0158
20693SOL    HW166890   3.554   2.342   9.011  0.5843 -0.4523 -0.7118
20693SOL    HW266891   3.501   2.417   8.891 -0.2833 -0.0879 -0.1169
20694SOL     OW66892   1.025   4.093   7.867 -0.0372  0.4759 -0.2046
20694SOL    HW166893   0.935   4.061   7.867 -0.3194  1.2220 -1.5368
20694SOL    HW266894   1.055   4.079   7.957 -1.8086  1.1678  0.5381
20695SOL     OW66895   3.023   1.928   2.463 -0.4916 -0.3001  0.3848
20695SOL    HW166896   3.047   1.892   2.377 -0.9267 -3.0642  1.3107
20695SOL    HW266897   3.042   2.022   2.456  0.3710 -0.5850 -2.3984
20696SOL     OW66898   2.040   7.590  12.127 -0.6611 -0.2399 -0.0358
20696SOL    HW166899   1.978   7.620  12.060  0.0078  2.7124  0.5419
20696SOL    HW266900   2.125   7.595  12.084 -0.4296 -0.2777  0.4161
20697SOL     OW66901   3.390   7.063  11.695 -0.3074  0.3434  0.2520
20697SOL    HW166902   3.310   7.010  11.703 -0.8428  1.2375  1.0628
20697SOL    HW266903   3.360   7.153  11.699  0.7851  0.7020  1.1794
20698SOL     OW66904  12.291  11.907   3.128  0.2710  0.1622  0.1595
20698SOL    HW166905  12.197  11.921   3.143 -0.5568 -1.7138 -2.4669
20698SOL    HW266906  12.308  11.950   3.044  1.7628  0.3691  0.5337
20699SOL     OW66907   1.019   4.952   9.306 -0.1178 -0.3701  0.4101
20699SOL    HW166908   0.978   4.868   9.325 -3.2915  0.8311 -0.5631
20699SOL    HW266909   0.977   5.014   9.365 -0.3434  1.0747 -1.1751
20700SOL     OW66910   3.393   6.593  11.150 -0.3645  0.1131 -0.2232
20700SOL    HW166911   3.447   6.659  11.193  1.0486 -0.3048 -1.2814
20700SOL    HW266912   3.401   6.612  11.056  1.5494 -2.5544 -0.7323
20701SOL     OW66913   5.618   8.677   9.010 -0.2461  0.0159 -0.4085
20701SOL    HW166914   5.618   8.687   8.915 -1.9088  1.4887 -0.3112
20701SOL    HW266915   5.587   8.587   9.024 -0.3270 -0.1013 -1.2596
20702SOL     OW66916  12.198  10.823   1.876 -0.0964 -0.0969  0.1565
20702SOL    HW166917  12.165  10.738   1.906  1.0602 -0.1381  1.4335
20702SOL    HW266918  12.120  10.878   1.872 -0.6712 -0.8329  0.7351
20703SOL     OW66919   5.268   0.818   1.741 -0.1587 -0.3838  0.2186
20703SOL    HW166920   5.301   0.784   1.824 -1.0697 -0.2639  0.6396
20703SOL    HW266921   5.187   0.770   1.726 -1.0179  0.9725  0.3834
20704SOL     OW66922   9.108   2.599  10.229  0.2662  0.2830 -0.9020
20704SOL    HW166923   9.034   2.543  10.254 -0.9389  2.2929  0.3053
20704SOL    HW266924   9.079   2.641  10.148 -0.6628  2.2268  0.3603
20705SOL     OW66925   9.245   4.062   8.628  0.0236 -0.0084  0.1202
20705SOL    HW166926   9.159   4.023   8.644 -0.3725  0.4124 -0.8892
20705SOL    HW266927   9.249   4.138   8.686 -1.0997  1.0941 -1.1620
20706SOL     OW66928   1.549   4.436   2.260  0.6592 -0.0357  0.2725
20706SOL    HW166929   1.597   4.456   2.179  0.5690 -1.6758 -0.2306
20706SOL    HW266930   1.607   4.466   2.330  1.4965 -0.0884 -0.3735
20707SOL     OW66931  10.344  11.378   0.441 -0.3343  0.4317  0.3307
20707SOL    HW166932  10.307  11.380   0.353 -0.6248  0.4214  0.4533
20707SOL    HW266933  10.434  11.347   0.428 -0.0864  1.2871 -0.0664
20708SOL     OW66934   9.312   5.494   4.393  0.1530  0.8028 -0.5422
20708SOL    HW166935   9.256   5.498   4.471  1.6192  1.4838  0.4996
20708SOL    HW266936   9.263   5.542   4.326 -0.9190  0.5942  0.0699
20709SOL     OW66937   0.111   0.631   6.994 -0.3021  0.6685  0.1416
20709SOL    HW166938   0.071   0.716   6.976  0.1414  1.2407  1.7201
20709SOL    HW266939   0.131   0.633   7.087  2.3218 -0.0468 -0.3205
20710SOL     OW66940   1.429   8.946   1.420 -0.5610  0.1848  0.4994
20710SOL    HW166941   1.455   9.002   1.347  1.4578  0.2120  1.1854
20710SOL    HW266942   1.458   8.858   1.396 -2.1222 -0.2850  0.2115
20711SOL     OW66943   7.417   8.822   5.878  0.5176  0.5520  0.6114
20711SOL    HW166944   7.374   8.828   5.964 -1.1138 -0.3139 -0.0852
20711SOL    HW266945   7.362   8.875   5.820  2.1684  1.9716  0.2508
20712SOL     OW66946   4.273   2.613   5.787  0.2234 -0.1769 -0.5651
20712SOL    HW166947   4.206   2.658   5.840  0.2113 -0.3080 -0.4679
20712SOL    HW266948   4.229   2.593   5.705 -0.3228 -1.5415  0.0165
20713SOL     OW66949   6.282  11.988   1.820 -0.5755  0.5566  0.1835
20713SOL    HW166950   6.189  11.971   1.833 -0.4883 -0.2320 -0.1586
20713SOL    HW266951   6.323  11.902   1.834 -0.0870  0.5066 -1.4609
20714SOL     OW66952   2.549  11.727   5.076 -0.2439  0.0309 -0.2129
20714SOL    HW166953   2.485  11.656   5.083  1.3255 -1.2985  2.5411
20714SOL    HW266954   2.518  11.793   5.139 -1.0273  1.3318 -1.8691
20715SOL     OW66955   9.741   7.236   7.223  0.8186 -0.2883 -0.3395
20715SOL    HW166956   9.755   7.316   7.273 -0.2708  0.0231 -0.5026
20715SOL    HW266957   9.649   7.239   7.198  1.1044 -0.9125 -1.5419
20716SOL     OW66958   0.803   1.610   9.023  0.1869  0.1092 -0.1057
20716SOL    HW166959   0.850   1.551   9.082 -2.5935 -1.6833  0.5410
20716SOL    HW266960   0.839   1.697   9.041  3.8179 -1.1739 -0.4210
20717SOL     OW66961   1.445   1.910   7.357  0.0768 -0.0232 -0.1625
20717SOL    HW166962   1.503   1.970   7.310 -0.0268  0.1534 -0.0646
20717SOL    HW266963   1.365   1.960   7.372  0.8530  0.7008  2.0750
20718SOL     OW66964   2.196   8.115   5.428 -0.2288 -0.2364 -0.1237
20718SOL    HW166965   2.126   8.051   5.440  1.8702 -2.1894  2.8964
20718SOL    HW266966   2.263   8.069   5.378  0.5013  0.2781  0.3623
20719SOL     OW66967  12.221   1.663   8.250 -0.4327 -0.5293  0.5659
20719SOL    HW166968  12.277   1.590   8.223 -0.1452 -0.0856 -0.0604
20719SOL    HW266969  12.277   1.740   8.239 -1.4474  0.0280 -0.9579
20720SOL     OW66970   3.894   4.201  11.405  0.0550 -0.0078  0.2855
20720SOL    HW166971   3.802   4.213  11.426  0.1620  0.0718  0.7297
20720SOL    HW266972   3.901   4.219  11.312 -0.0818  1.7402  0.5892
20721SOL     OW66973   8.905   9.367   1.088 -0.2930 -0.4282 -0.5849
20721SOL    HW166974   8.987   9.381   1.135 -1.0832 -1.1350  1.1032
20721SOL    HW266975   8.889   9.450   1.043  0.4178  0.3682  0.5626
20722SOL     OW66976   6.180   9.296   3.634  0.0407 -0.4808 -0.2152
20722SOL    HW166977   6.258   9.242   3.649  0.0729  0.0144  1.7282
20722SOL    HW266978   6.181   9.315   3.540  1.8414 -1.1075 -0.3598
20723SOL     OW66979   5.249  11.373   4.735  0.1509  0.0238  0.2443
20723SOL    HW166980   5.243  11.417   4.650 -1.3194 -1.3315 -0.3997
20723SOL    HW266981   5.314  11.305   4.723  2.2315  1.7279  1.1668
20724SOL     OW66982   6.649   9.154   9.108  0.0709  0.2456  0.1747
20724SOL    HW166983   6.717   9.216   9.134  0.0223  0.0543  0.7747
20724SOL    HW266984   6.587   9.154   9.181 -0.9278  0.9127 -0.6467
20725SOL     OW66985   9.051  11.911  11.399 -0.2047  0.0937 -0.0256
20725SOL    HW166986   9.041  11.909  11.494 -0.7471 -2.3148 -0.0644
20725SOL    HW266987   9.112  11.983  11.383  0.3906  0.1644  2.1887
20726SOL     OW66988   2.193  12.253   8.744 -0.4845  0.3190  0.6724
20726SOL    HW166989   2.143  12.241   8.825  0.3750 -0.4474  1.1081
20726SOL    HW266990   2.269  12.305   8.771 -0.1362 -0.0387  0.3876
20727SOL     OW66991   0.477  12.373   2.481  0.3669  0.2606  0.3540
20727SOL    HW166992   0.537  12.438   2.518  1.0443 -0.5180  0.6527
20727SOL    HW266993   0.528  12.330   2.413 -0.3604  0.6053 -0.4275
20728SOL     OW66994   3.534   9.423   0.264 -0.2207 -0.3939  0.0206
20728SOL    HW166995   3.444   9.433   0.295  0.3796 -0.2669  1.7896
20728SOL    HW266996   3.537   9.335   0.227 -1.0667 -0.4000 -0.0444
20729SOL     OW66997   8.513   9.050   6.459 -0.5115 -0.1384 -0.1700
20729SOL    HW166998   8.473   8.964   6.446 -1.2968  0.3625 -1.2156
20729SOL    HW266999   8.460   9.090   6.529  0.1146 -0.6383  0.6163
20730SOL     OW67000   6.845  10.225   5.954 -0.2275 -0.7358  0.3452
20730SOL    HW167001   6.936  10.253   5.963 -0.2554 -0.5862  0.1697
20730SOL    HW267002   6.844  10.171   5.875 -0.3530 -0.4688  0.1616
20731SOL     OW67003   7.065  12.110  12.548 -0.0353 -0.3907 -0.1302
20731SOL    HW167004   7.011  12.180  12.511 -0.8237 -1.1524 -0.4627
20731SOL    HW267005   7.132  12.094  12.481  2.2593  2.2514  1.2971
20732SOL     OW67006   9.780  12.418   0.314  0.1807 -0.8989  0.7230
20732SOL    HW167007   9.719  12.443   0.244  2.2434 -1.2199 -1.2861
20732SOL    HW267008   9.764  12.325   0.326 -0.0352 -0.8915  0.5178
20733SOL     OW67009   1.566   5.906   8.275  0.1726  0.2253 -0.4236
20733SOL    HW167010   1.576   5.822   8.320  0.4120 -0.0498 -0.9698
20733SOL    HW267011   1.563   5.882   8.182  3.4874  1.0037 -0.8607
20734SOL     OW67012  12.380   0.362   8.886 -0.2184 -0.7673 -0.8046
20734SOL    HW167013  12.401   0.309   8.809  1.3533 -2.2368  0.5545
20734SOL    HW267014  12.288   0.343   8.902 -0.6286 -0.3047 -2.3816
20735SOL     OW67015   0.003   8.979  11.266  0.2938 -0.4954 -0.2216
20735SOL    HW167016  -0.031   9.025  11.342 -1.1840  1.2011 -1.8146
20735SOL    HW267017   0.097   8.996  11.267 -0.0986  1.9288 -0.2902
20736SOL     OW67018  10.097  10.552   8.315 -0.1472  0.3433  0.0811
20736SOL    HW167019  10.107  10.647   8.319 -0.5055  0.3506  1.1912
20736SOL    HW267020  10.107  10.531   8.222  1.1722  1.3229 -0.0295
20737SOL     OW67021   2.858   2.312   8.406 -0.3123  0.0847 -0.2652
20737SOL    HW167022   2.763   2.309   8.397 -0.3933 -2.2950  0.5047
20737SOL    HW267023   2.890   2.311   8.316 -1.0536 -1.0097 -0.5414
20738SOL     OW67024   5.261   6.482   3.515 -0.1279  0.2028  0.0136
20738SOL    HW167025   5.306   6.419   3.458  1.1305 -0.4113  1.6089
20738SOL    HW267026   5.323   6.499   3.586 -0.3290  3.4617 -0.4495
20739SOL     OW67027   0.221   0.308   0.457 -0.0665  0.3150 -0.6622
20739SOL    HW167028   0.220   0.380   0.520 -1.0832  0.9319 -1.3589
20739SOL    HW267029   0.139   0.316   0.409 -0.6149 -1.8304 -0.1922
20740SOL     OW67030   3.186   2.973  12.164 -0.4100 -0.1750 -0.2391
20740SOL    HW167031   3.220   2.884  12.159  0.4874  0.1818 -0.6828
20740SOL    HW267032   3.217   3.015  12.084  0.6346  1.0163  0.7468
20741SOL     OW67033   3.769   4.896   3.393 -0.3482 -0.3091  0.0993
20741SOL    HW167034   3.744   4.806   3.370  1.9234 -1.3028  1.1694
20741SOL    HW267035   3.715   4.917   3.469 -1.6701 -0.3219 -0.8050
20742SOL     OW67036   8.790   6.587   6.447 -0.4505 -0.6221 -0.0166
20742SOL    HW167037   8.878   6.614   6.474 -0.6920 -0.0801  0.2387
20742SOL    HW267038   8.750   6.551   6.526 -0.6178 -0.4499 -0.0215
20743SOL     OW67039   7.917   1.864   9.996 -0.3538  0.3395  1.0400
20743SOL    HW167040   7.906   1.930   9.928  2.3465 -0.1168  0.0706
20743SOL    HW267041   7.834   1.866  10.044 -1.7952  1.6869 -1.3299
20744SOL     OW67042   9.522  12.155  10.765 -0.4545  0.6101  0.1580
20744SOL    HW167043   9.573  12.231  10.740  1.3374 -0.9043 -1.0804
20744SOL    HW267044   9.448  12.155  10.704 -0.8065  1.6318  0.5561
20745SOL     OW67045   4.338   0.811   6.296 -0.5399 -0.2200  0.4646
20745SOL    HW167046   4.337   0.799   6.201  0.7439 -0.6333  0.4931
20745SOL    HW267047   4.305   0.728   6.331 -0.7694 -0.1605  0.3919
20746SOL     OW67048   7.114   2.932   1.018 -0.8639 -0.1459  0.1574
20746SOL    HW167049   7.114   2.858   1.078  2.7283  0.0321  0.6119
20746SOL    HW267050   7.113   3.009   1.076 -1.8155  0.1291 -0.2100
20747SOL     OW67051   6.719   1.064  12.029  0.7503 -0.0654  0.1462
20747SOL    HW167052   6.734   1.079  12.122  0.5484 -0.5576  0.2675
20747SOL    HW267053   6.780   0.994  12.005  0.4363 -0.3132  0.0429
20748SOL     OW67054   3.268   1.691   0.276  0.3592  0.3747 -0.6042
20748SOL    HW167055   3.176   1.717   0.266 -0.7429 -2.5146  0.9324
20748SOL    HW267056   3.302   1.748   0.345 -0.9542  0.0529  0.3346
20749SOL     OW67057   1.573   6.608   4.476 -0.3759 -0.3725  0.1064
20749SOL    HW167058   1.489   6.610   4.521  0.3620  1.5689  1.5328
20749SOL    HW267059   1.591   6.515   4.462 -3.7875 -0.8642 -2.4204
20750SOL     OW67060   8.193   1.913   7.743  0.0950 -0.2475 -0.0956
20750SOL    HW167061   8.222   1.998   7.777 -1.0139 -0.3681  1.2836
20750SOL    HW267062   8.236   1.849   7.800  0.7400 -0.6054 -0.9780
20751SOL     OW67063   2.398   2.321   7.947  0.1818  0.2945  0.6033
20751SOL    HW167064   2.382   2.325   8.042  2.0993  0.0416  0.9715
20751SOL    HW267065   2.373   2.231   7.923 -0.6376  0.4661  0.7991
20752SOL     OW67066  10.529   7.041  11.243  0.0885  0.1048 -0.1500
20752SOL    HW167067  10.521   7.111  11.178  0.2660 -0.2665 -0.5787
20752SOL    HW267068  10.617   7.005  11.228 -0.9642 -1.9744 -1.7642
20753SOL     OW67069  11.961   6.246   2.413 -0.2392  0.2505  0.2349
20753SOL    HW167070  11.905   6.168   2.417 -0.6400  0.5668  1.2461
20753SOL    HW267071  12.038   6.218   2.364  0.2617 -1.1952  1.7423
20754SOL     OW67072   3.047   5.281  12.419 -0.1541 -0.2505 -0.0376
20754SOL    HW167073   3.085   5.216  12.479 -0.1124  0.1462  0.3649
20754SOL    HW267074   3.122   5.316  12.371  0.0708  0.8641  1.0786
20755SOL     OW67075   6.252   4.542   5.544 -0.2881  0.2474 -0.2889
20755SOL    HW167076   6.298   4.543   5.460 -1.0691  2.6465 -0.7735
20755SOL    HW267077   6.164   4.511   5.522  0.0489 -0.9759  0.0189
20756SOL     OW67078   2.648   6.489  11.877 -0.3019  0.2260  0.3261
20756SOL    HW167079   2.597   6.527  11.806 -0.2088 -0.0727  0.1006
20756SOL    HW267080   2.633   6.395  11.871  0.9596  0.0496 -0.2860
20757SOL     OW67081  11.100   8.138   5.331 -0.0697  0.6818  0.2936
20757SOL    HW167082  11.015   8.099   5.348 -0.4171  1.0496 -0.5570
20757SOL    HW267083  11.121   8.187   5.411  0.2190 -0.9413  1.2424
20758SOL     OW67084   2.398   5.718   5.957  0.3313 -0.6296 -0.4054
20758SOL    HW167085   2.450   5.798   5.946 -0.2045  0.4623  3.5546
20758SOL    HW267086   2.464   5.649   5.969  0.8536 -0.0684  0.0359
20759SOL     OW67087   2.330   3.552   7.365  0.3655 -0.0748  0.1389
20759SOL    HW167088   2.246   3.581   7.401  0.6283  1.7255 -0.5994
20759SOL    HW267089   2.379   3.522   7.441 -0.2228  0.7416  0.8670
20760SOL     OW67090   4.639   8.640   0.156 -0.5756  0.3778 -0.2215
20760SOL    HW167091   4.682   8.663   0.238  0.2209 -0.2532 -0.4490
20760SOL    HW267092   4.545   8.647   0.175 -0.3920  0.4885  0.6616
20761SOL     OW67093   9.986   3.193   7.529  0.0431  0.5273  0.2910
20761SOL    HW167094   9.979   3.127   7.460  1.2170  1.1765 -0.4964
20761SOL    HW267095   9.902   3.191   7.573 -0.2635 -0.8543 -0.2954
20762SOL     OW67096  11.384  10.425   9.053 -0.0191  0.0475  0.4616
20762SOL    HW167097  11.395  10.495   8.989  0.5965  0.9590  1.5343
20762SOL    HW267098  11.346  10.353   9.003  0.6183  0.6632 -0.9582
20763SOL     OW67099   8.499   7.398   4.857 -0.8426  0.0230  0.2860
20763SOL    HW167100   8.577   7.346   4.875  0.6366  1.8076 -0.6148
20763SOL    HW267101   8.498   7.465   4.925 -2.1355 -0.5340  0.8380
20764SOL     OW67102   6.407   5.782   7.353 -0.1281  0.3454  0.5244
20764SOL    HW167103   6.461   5.703   7.361 -0.1220  0.2513 -0.4098
20764SOL    HW267104   6.317   5.750   7.361 -0.0998  0.3392  0.8360
20765SOL     OW67105   5.562   0.946   8.698 -0.2628  0.6681  0.0954
20765SOL    HW167106   5.526   0.865   8.734  2.6331 -0.9002 -0.2411
20765SOL    HW267107   5.545   1.012   8.765  1.2209 -1.2273  2.4859
20766SOL     OW67108  10.700   5.109   3.928 -0.4198 -0.0027  0.1470
20766SOL    HW167109  10.650   5.066   3.858 -2.0808  0.4406  1.0016
20766SOL    HW267110  10.700   5.202   3.904 -0.2028  0.0323  0.2808
20767SOL     OW67111   1.419  12.378  12.050  0.1319  0.1385 -0.6655
20767SOL    HW167112   1.436  12.424  11.968  0.1836  0.3607 -0.5309
20767SOL    HW267113   1.337  12.331  12.034 -0.8876  1.6907 -0.2204
20768SOL     OW67114   0.859   7.311   4.137  0.3161  0.4028 -0.1679
20768SOL    HW167115   0.875   7.267   4.220  0.9267 -0.4188 -0.7057
20768SOL    HW267116   0.871   7.242   4.071  1.4289  1.4027 -1.0441
20769SOL     OW67117   0.327   1.613   7.297 -0.2397  0.1623 -0.5676
20769SOL    HW167118   0.293   1.532   7.257 -2.4121  0.4421  0.5599
20769SOL    HW267119   0.280   1.620   7.380 -1.1185  3.2544 -1.2121
20770SOL     OW67120  12.460   0.828   7.214 -0.1026  0.1057  0.2601
20770SOL    HW167121  12.375   0.866   7.236  0.1046 -0.1255  1.5251
20770SOL    HW267122  12.518   0.904   7.204 -0.5331  0.2886 -1.0510
20771SOL     OW67123   6.891   6.565   6.047  0.0931  0.0061 -0.6504
20771SOL    HW167124   6.831   6.584   6.120  2.3349 -0.2638  1.3751
20771SOL    HW267125   6.920   6.650   6.017  0.3345  0.0952 -0.1760
20772SOL     OW67126   1.674   1.869  10.728 -0.0734 -0.3477 -0.0888
20772SOL    HW167127   1.635   1.793  10.684 -1.7016 -0.0121  0.7177
20772SOL    HW267128   1.746   1.832  10.780  0.5442 -1.0266 -1.3693
20773SOL     OW67129   4.468   2.716   2.810 -0.2720  0.2916 -0.3280
20773SOL    HW167130   4.473   2.706   2.905  0.5805  0.0785 -0.3888
20773SOL    HW267131   4.508   2.637   2.775 -1.3649 -0.0338 -0.8791
20774SOL     OW67132   6.433   1.110   2.440 -0.9126 -0.1163 -0.1495
20774SOL    HW167133   6.453   1.019   2.462 -0.7162 -0.6477 -2.3135
20774SOL    HW267134   6.482   1.128   2.360 -0.3502  2.1629  0.6101
20775SOL     OW67135   1.980   6.113  10.736  0.5817  0.2230 -0.5347
20775SOL    HW167136   1.910   6.048  10.741  0.0213  0.7271 -1.4532
20775SOL    HW267137   1.937   6.192  10.703  1.7851  0.1797 -2.3640
20776SOL     OW67138   1.844   9.174   8.118 -0.0675  0.1277  0.1922
20776SOL    HW167139   1.927   9.127   8.125  0.5022  1.2562  1.6920
20776SOL    HW267140   1.780   9.108   8.092  0.9097 -1.2308  1.1232
20777SOL     OW67141  12.459   7.842   1.895 -0.5115 -0.4452  0.2658
20777SOL    HW167142  12.392   7.896   1.853 -1.6396 -0.4630  1.9172
20777SOL    HW267143  12.539   7.894   1.890 -0.7623 -0.1700 -1.2422
20778SOL     OW67144  12.219   0.106   9.001 -0.0049 -0.6936 -0.4805
20778SOL    HW167145  12.190   0.142   8.918  1.9522 -2.4882 -2.0516
20778SOL    HW267146  12.188   0.015   9.001  1.6152 -1.2795 -0.1607
20779SOL     OW67147   2.769   8.113  10.201 -0.0821  0.2620 -0.2940
20779SOL    HW167148   2.724   8.054  10.261 -1.3340  0.9904 -0.4936
20779SOL    HW267149   2.700   8.168  10.164  1.0571  2.0299  0.0660
20780SOL     OW67150  10.022  11.467   0.777  0.4168  0.1089  0.9097
20780SOL    HW167151   9.979  11.390   0.813 -0.3533 -0.2789 -0.7519
20780SOL    HW267152  10.040  11.444   0.686  0.8835  1.5975  0.6048
20781SOL     OW67153   7.623  12.133   9.447  0.2665 -0.1463  0.2044
20781SOL    HW167154   7.653  12.051   9.408  2.9655  1.1297 -0.6554
20781SOL    HW267155   7.553  12.163   9.390  0.6955 -0.8204 -0.6990
20782SOL     OW67156   8.900   1.376   7.809 -0.0586  0.0561  0.5348
20782SOL    HW167157   8.990   1.356   7.785 -0.0454  0.8681 -0.1551
20782SOL    HW267158   8.877   1.452   7.755 -0.4404  1.2119  2.2375
20783SOL     OW67159   8.581   5.335   6.841 -0.4189  0.2561 -0.2795
20783SOL    HW167160   8.655   5.328   6.781  0.7395  0.8231  1.0175
20783SOL    HW267161   8.523   5.401   6.802 -0.7240 -0.8603 -1.7657
20784SOL     OW67162   9.838   2.889   3.606 -0.3650 -0.3335  0.1210
20784SOL    HW167163   9.758   2.930   3.575  0.7585  0.7048 -1.6066
20784SOL    HW267164   9.863   2.828   3.537  1.6058  1.1860 -0.6085
20785SOL     OW67165   1.299   6.427   4.937  0.4433  0.1947  0.4095
20785SOL    HW167166   1.311   6.463   5.025 -0.4257  1.1713  0.1447
20785SOL    HW267167   1.247   6.347   4.950  1.3798 -0.3587  0.8844
20786SOL     OW67168  10.967   4.690   4.056 -0.3292 -0.3728  0.3366
20786SOL    HW167169  10.903   4.714   3.990 -0.5542  0.7784  0.9408
20786SOL    HW267170  10.941   4.603   4.084 -1.7761  0.1456  0.7130
20787SOL     OW67171  12.081   0.756   7.709  0.3757  0.2772 -0.1071
20787SOL    HW167172  12.004   0.813   7.717  0.4471  0.7619 -2.3043
20787SOL    HW267173  12.145   0.794   7.770 -1.1548 -0.2887  1.9512
20788SOL     OW67174   8.905   5.111   8.696  0.0634 -0.5032  0.0354
20788SOL    HW167175   8.971   5.042   8.704  1.0365  0.3502 -0.4793
20788SOL    HW267176   8.928   5.157   8.615  0.4344  1.4535  1.1977
20789SOL     OW67177   6.408  11.239  10.026  0.1700 -0.0125  0.3095
20789SOL    HW167178   6.327  11.194  10.004  0.2208  0.0953 -0.1047
20789SOL    HW267179   6.400  11.325   9.987  0.3469  0.1143  0.5470
20790SOL     OW67180   3.640   7.652   7.226  0.1205 -0.1576  0.4261
20790SOL    HW167181   3.623   7.585   7.160  0.7590  0.0106  0.0859
20790SOL    HW267182   3.619   7.610   7.309 -0.2963 -0.5010  0.1538
20791SOL     OW67183  12.273   4.041   2.656  0.4767  0.1976 -0.0489
20791SOL    HW167184  12.354   3.990   2.660  0.1982 -0.3092 -0.7118
20791SOL    HW267185  12.231   4.013   2.574  0.4183  1.6327 -0.5462
20792SOL     OW67186   6.319  11.198   6.041  0.4598 -0.4053  0.2233
20792SOL    HW167187   6.370  11.279   6.056 -0.0533 -0.0728  0.1956
20792SOL    HW267188   6.228  11.225   6.053  0.1518 -0.5933 -1.4554
20793SOL     OW67189   8.381   5.511   0.010 -0.4616 -0.2687  0.1947
20793SOL    HW167190   8.367   5.573   0.082 -0.9066  0.3877 -0.4517
20793SOL    HW267191   8.400   5.565  -0.066 -0.6472 -0.9270 -0.3333
20794SOL     OW67192   9.898   7.369   5.699 -0.5953 -0.7383 -0.5003
20794SOL    HW167193   9.927   7.410   5.780 -0.9840 -2.6577  0.6766
20794SOL    HW267194   9.812   7.408   5.681 -1.1563 -1.2886  0.8282
20795SOL     OW67195  11.137   5.913   1.476 -0.8417  0.5069 -0.4192
20795SOL    HW167196  11.205   5.880   1.536 -1.5809  1.2071  0.8476
20795SOL    HW267197  11.128   5.844   1.410 -0.2996 -0.4935  0.5172
20796SOL     OW67198   0.331   3.122   5.978 -0.5680  0.2652 -0.0455
20796SOL    HW167199   0.285   3.058   6.031 -3.5730  2.1462 -0.1371
20796SOL    HW267200   0.356   3.074   5.898  0.2692 -1.5134  1.2098
20797SOL     OW67201   0.483   4.103  10.545  0.1664  0.3537  0.5155
20797SOL    HW167202   0.462   4.146  10.463 -1.1616  0.7947  1.0672
20797SOL    HW267203   0.505   4.174  10.605  1.1854  0.0332  0.5429
20798SOL     OW67204  10.588   7.461   7.227  0.5737 -0.1159 -0.1897
20798SOL    HW167205  10.666   7.434   7.179  0.2603 -0.6307 -0.4087
20798SOL    HW267206  10.515   7.443   7.168  0.4195  2.6302 -0.9906
20799SOL     OW67207  12.053   0.269   7.549  0.5118  0.2461 -0.0647
20799SOL    HW167208  12.056   0.328   7.624 -4.4577 -0.8160  1.3287
20799SOL    HW267209  12.067   0.182   7.586 -1.2625 -0.2148 -0.3845
20800SOL     OW67210   2.909   6.786   8.652  0.1964 -0.1372  0.6052
20800SOL    HW167211   3.002   6.768   8.641  0.3387  0.7540  0.2640
20800SOL    HW267212   2.906   6.857   8.716 -0.3464 -1.3077  1.9347
20801SOL     OW67213   7.245   5.488   8.085 -0.5139  0.0783  0.3667
20801SOL    HW167214   7.226   5.574   8.048 -0.0997  0.2425  0.5294
20801SOL    HW267215   7.168   5.468   8.139 -1.2080 -0.2458 -0.6985
20802SOL     OW67216   4.138  10.252   1.466 -0.1075  0.2422  0.2069
20802SOL    HW167217   4.172  10.341   1.463 -2.2023  1.1471  1.4155
20802SOL    HW267218   4.079  10.246   1.391 -0.0395 -0.1044  0.1789
20803SOL     OW67219   0.778   7.182   5.376 -0.0945  0.5066 -0.6128
20803SOL    HW167220   0.835   7.118   5.419  0.9134 -0.5440 -3.3065
20803SOL    HW267221   0.738   7.134   5.304 -1.4091  2.2705 -1.1335
20804SOL     OW67222   0.494   7.723   7.014  0.3714 -0.6123  0.2154
20804SOL    HW167223   0.581   7.717   6.975  0.8421  1.7493  0.7736
20804SOL    HW267224   0.443   7.774   6.950  0.5060  1.3031  1.5710
20805SOL     OW67225   3.747   9.716   6.040 -0.4071  0.1712  0.0806
20805SOL    HW167226   3.744   9.623   6.019  0.3752  0.1366  0.0977
20805SOL    HW267227   3.716   9.721   6.131 -2.1512  0.1358 -0.4780
20806SOL     OW67228   4.487   5.821  11.660  0.1591 -0.0401 -0.3474
20806SOL    HW167229   4.400   5.859  11.644  0.6743  1.6460  0.6529
20806SOL    HW267230   4.525   5.810  11.573  0.7854  3.7787 -0.7267
20807SOL     OW67231   6.382  11.198   4.077 -0.5350 -0.1652  0.2522
20807SOL    HW167232   6.436  11.222   4.001 -1.2457  0.1022 -0.1740
20807SOL    HW267233   6.410  11.109   4.098  1.1409  0.4960  0.9886
20808SOL     OW67234   4.415   5.274   5.199  0.0992  0.0193  0.0929
20808SOL    HW167235   4.372   5.232   5.274 -0.8711 -1.4798 -1.2231
20808SOL    HW267236   4.486   5.325   5.237  1.0977 -2.4896  1.8880
20809SOL     OW67237   0.201   3.587   0.763  0.6857  0.0364  0.0530
20809SOL    HW167238   0.225   3.678   0.779  0.0690  0.3483 -0.7700
20809SOL    HW267239   0.265   3.557   0.698  1.2904 -0.3278  0.7896
20810SOL     OW67240   7.607   5.850   0.921 -0.5965  0.2115  0.0276
20810SOL    HW167241   7.680   5.871   0.979 -2.4415  1.5919  2.0488
20810SOL    HW267242   7.612   5.915   0.851  0.5537 -0.2256 -0.3091
20811SOL     OW67243   4.845   0.427   4.885  0.0820  0.1932 -0.1321
20811SOL    HW167244   4.839   0.357   4.950  0.7859  0.3937  0.1632
20811SOL    HW267245   4.933   0.462   4.897  0.0408  0.5562 -0.8691
20812SOL     OW67246   5.381   9.707   4.358  0.0308  1.0251  0.2486
20812SOL    HW167247   5.403   9.799   4.370  1.3974  0.7234  0.2243
20812SOL    HW267248   5.429   9.662   4.427  0.7517  0.1640 -0.7810
20813SOL     OW67249   0.172  11.819   1.997 -0.2494 -0.2473  0.6150
20813SOL    HW167250   0.148  11.727   1.988  2.2731 -0.8547 -1.0186
20813SOL    HW267251   0.106  11.867   1.947 -1.1735 -1.2266  0.8743
20814SOL     OW67252   8.069   4.030   8.305 -0.0260 -0.4741 -0.2146
20814SOL    HW167253   8.034   4.118   8.291  1.0413 -0.0311 -0.1977
20814SOL    HW267254   8.037   4.005   8.391  0.4553  0.2956  0.1977
20815SOL     OW67255   1.906  10.683   5.058 -0.1365 -0.3785  0.1290
20815SOL    HW167256   1.904  10.735   5.138 -1.5025 -1.2080  0.6651
20815SOL    HW267257   1.849  10.730   4.997  0.2742 -0.1743 -0.1106
20816SOL     OW67258   6.732   8.328  11.933 -0.0093 -0.3205  0.0631
20816SOL    HW167259   6.773   8.249  11.898 -1.4775 -0.9702 -0.2497
20816SOL    HW267260   6.663   8.296  11.991 -0.9394  0.7176 -0.4384
20817SOL     OW67261   2.499  11.141  11.598 -0.1469 -0.5773  0.0232
20817SOL    HW167262   2.525  11.049  11.598 -0.4336 -0.6641  0.8402
20817SOL    HW267263   2.471  11.157  11.508 -0.1420 -1.3060 -0.1172
20818SOL     OW67264  11.636  10.327   7.630 -0.1426 -0.3528  0.3218
20818SOL    HW167265  11.646  10.326   7.534 -1.6602  1.3991  0.0914
20818SOL    HW267266  11.542  10.317   7.645  0.0690 -0.5458  1.6410
20819SOL     OW67267   2.152   6.378  10.029  0.0493  0.2723  0.2589
20819SOL    HW167268   2.125   6.301  10.079  0.6181  0.4679  0.8787
20819SOL    HW267269   2.135   6.354   9.938 -0.6823 -0.2167  0.5177
20820SOL     OW67270   7.819  11.456  10.980  0.4265  0.1340  0.0752
20820SOL    HW167271   7.745  11.416  11.026 -0.3151  0.8258 -0.4860
20820SOL    HW267272   7.792  11.547  10.966  2.2207  0.9719  1.6405
20821SOL     OW67273  10.316   8.043   6.068  0.4267  0.2149 -0.3323
20821SOL    HW167274  10.380   7.996   6.015  1.8950  3.5918 -1.8435
20821SOL    HW267275  10.349   8.133   6.071 -0.9379  0.7992  4.2914
20822SOL     OW67276   5.544   1.294   6.084 -0.0364  0.3989 -0.4444
20822SOL    HW167277   5.480   1.243   6.133  0.2479 -0.1337 -0.6235
20822SOL    HW267278   5.533   1.384   6.117  0.6115 -0.0578  1.1164
20823SOL     OW67279   1.521   8.641   1.957 -0.4752  0.6486 -0.0651
20823SOL    HW167280   1.527   8.651   1.862  0.7589 -0.6141 -0.1609
20823SOL    HW267281   1.556   8.722   1.992 -2.0157  1.6052 -0.6692
20824SOL     OW67282  11.608  12.345   0.031  0.1873  0.6589  0.3205
20824SOL    HW167283  11.636  12.407   0.097  1.9022  0.4503 -0.1647
20824SOL    HW267284  11.650  12.262   0.055  0.7575  0.5510 -0.9325
20825SOL     OW67285   0.348   5.427   6.393  0.3994 -0.0696  0.2393
20825SOL    HW167286   0.376   5.515   6.369  0.3913 -0.4987 -1.4426
20825SOL    HW267287   0.253   5.431   6.391  0.3904 -0.0316  0.5674
20826SOL     OW67288   6.402   2.676   6.692  0.4962 -0.4848 -0.5474
20826SOL    HW167289   6.333   2.715   6.746 -0.9426 -0.2377 -2.4564
20826SOL    HW267290   6.478   2.733   6.705 -0.3781  0.6423 -0.1997
20827SOL     OW67291  10.248   3.873  10.838  0.9227  0.0943 -0.1752
20827SOL    HW167292  10.303   3.804  10.800  0.6096 -0.0414 -0.3825
20827SOL    HW267293  10.243   3.940  10.769  0.1439 -0.2651 -0.4741
20828SOL     OW67294   8.636   1.502  12.367 -0.9762  0.6161  0.1464
20828SOL    HW167295   8.640   1.501  12.463 -0.7659  1.1310  0.1482
20828SOL    HW267296   8.544   1.516  12.347 -0.9355  1.1076  0.2849
20829SOL     OW67297   2.709   5.153   3.088  0.7773  0.0678 -0.0029
20829SOL    HW167298   2.683   5.194   3.006  1.4882 -0.1176 -0.3327
20829SOL    HW267299   2.789   5.200   3.115  0.0148  0.7835  1.1023
20830SOL     OW67300  10.672   5.428   3.969  0.9143  0.6447  0.1233
20830SOL    HW167301  10.593   5.456   4.015  0.6236 -1.5480  1.0745
20830SOL    HW267302  10.646   5.428   3.877 -0.2076  0.0706  0.4073
20831SOL     OW67303   0.096   8.588   4.904 -0.3099 -0.3145 -0.1281
20831SOL    HW167304   0.155   8.519   4.935  0.5940 -0.1412 -1.4045
20831SOL    HW267305   0.033   8.543   4.848 -0.9506 -0.3810  0.6237
20832SOL     OW67306   9.064   1.567   0.118  0.3974 -0.0592 -0.0419
20832SOL    HW167307   9.118   1.533   0.189  0.4817  0.4336  0.1373
20832SOL    HW267308   8.982   1.593   0.160  1.6097  3.3212  0.5359
20833SOL     OW67309   8.399   1.122   4.404  0.7497 -0.3664 -0.1829
20833SOL    HW167310   8.415   1.210   4.436  1.6993 -0.6713  0.2105
20833SOL    HW267311   8.358   1.135   4.318 -1.3381  0.4498  0.8758
20834SOL     OW67312   5.335  12.432   9.504  0.4297  0.2442  0.3158
20834SOL    HW167313   5.415  12.458   9.550  0.1399 -1.7033  2.0495
20834SOL    HW267314   5.363  12.359   9.448 -0.1780 -0.6999  1.2217
20835SOL     OW67315   1.301  11.561   2.359 -0.1251  0.0093  0.3110
20835SOL    HW167316   1.230  11.504   2.330 -0.3694 -0.0131  0.9363
20835SOL    HW267317   1.353  11.577   2.280  0.2739 -1.5383  0.2300
20836SOL     OW67318   0.008   8.933   5.547  0.4392 -0.5957 -0.0370
20836SOL    HW167319   0.087   8.881   5.560 -1.5498 -3.3156  2.6791
20836SOL    HW267320   0.016   9.005   5.610  0.5504 -1.2021  0.6558
20837SOL     OW67321   7.231   6.671   0.732  0.6113  0.0123  0.1512
20837SOL    HW167322   7.263   6.716   0.810  1.8697  1.3787 -1.0972
20837SOL    HW267323   7.263   6.582   0.741  2.9618  0.7808  0.0173
20838SOL     OW67324   4.019   0.787   0.913 -0.3470  0.3193 -0.2773
20838SOL    HW167325   4.092   0.832   0.871  0.2782  0.4293  0.8730
20838SOL    HW267326   4.001   0.840   0.991 -0.5303 -0.6442  0.3440
20839SOL     OW67327   4.136   1.504   2.733  0.6881  0.4335  0.2003
20839SOL    HW167328   4.164   1.540   2.649  0.9165 -1.1958 -0.4449
20839SOL    HW267329   4.041   1.518   2.734  0.2857 -1.6027 -1.4298
20840SOL     OW67330   2.695   3.621  10.187 -0.3915  0.3804 -0.1364
20840SOL    HW167331   2.787   3.636  10.164  0.2541  0.6123  2.2757
20840SOL    HW267332   2.674   3.692  10.247 -1.2907 -1.1509  1.4402
20841SOL     OW67333   9.819   6.035   7.243 -0.4439 -0.0820  0.7154
20841SOL    HW167334   9.851   5.952   7.207  2.3169  1.1300  0.1298
20841SOL    HW267335   9.824   6.024   7.338  0.9808 -0.2494  0.6397
20842SOL     OW67336   2.378   1.791   1.382 -0.8282  0.1808 -0.1187
20842SOL    HW167337   2.352   1.874   1.343 -1.0826 -0.1581 -0.6879
20842SOL    HW267338   2.368   1.804   1.476 -1.5142  0.5774 -0.2375
20843SOL     OW67339  12.318   9.024   6.914  0.5030 -0.7066 -0.4898
20843SOL    HW167340  12.282   8.955   6.858  2.3675 -0.0838 -2.6197
20843SOL    HW267341  12.386   8.981   6.965  1.4065 -0.5791 -1.5424
20844SOL     OW67342  12.262  11.144  10.503  0.4546 -0.1602 -0.2436
20844SOL    HW167343  12.222  11.208  10.444  1.6161  1.1917  0.3766
20844SOL    HW267344  12.261  11.062  10.453  1.4680  0.9358 -2.2035
20845SOL     OW67345   3.875   7.249  10.745 -0.3685 -0.0609 -0.0065
20845SOL    HW167346   3.938   7.312  10.713 -2.0974  1.9484  0.3433
20845SOL    HW267347   3.804   7.249  10.680 -0.4615 -1.5910  0.0448
20846SOL     OW67348   3.656   4.135   4.622  0.2423 -0.2013  0.1482
20846SOL    HW167349   3.676   4.058   4.674 -0.8492  0.1159  1.0710
20846SOL    HW267350   3.637   4.101   4.535 -0.4705 -1.0060  0.6115
20847SOL     OW67351   9.058  10.711   9.604 -0.1452 -0.3917  0.3327
20847SOL    HW167352   9.052  10.630   9.554 -0.4334 -0.8081  1.0192
20847SOL    HW267353   9.129  10.761   9.562  0.2658 -1.1483  0.1167
20848SOL     OW67354  12.326   9.622   7.228 -0.7041 -0.5256  0.3294
20848SOL    HW167355  12.373   9.551   7.185  0.1107  0.2491 -0.0986
20848SOL    HW267356  12.372   9.634   7.311  0.2443  0.5975 -0.3264
20849SOL     OW67357   3.636   4.858   6.615 -0.1475 -0.6975  0.2025
20849SOL    HW167358   3.579   4.935   6.615  1.1139  0.2686  0.3261
20849SOL    HW267359   3.577   4.784   6.630 -1.3206  0.2866  0.5819
20850SOL     OW67360   1.630   5.931   9.646  0.1655  0.1599 -0.2799
20850SOL    HW167361   1.597   6.009   9.689  0.2430  1.6076 -2.6560
20850SOL    HW267362   1.652   5.871   9.717 -1.3416  1.6903  1.5656
20851SOL     OW67363   0.277   0.284  11.339 -0.3919  0.1943  0.3400
20851SOL    HW167364   0.218   0.356  11.316 -0.2222  0.1982 -0.0892
20851SOL    HW267365   0.225   0.205  11.323 -0.0387  0.1730 -0.7651
20852SOL     OW67366   8.267   1.704  10.656  0.4743 -0.0308  0.2907
20852SOL    HW167367   8.200   1.635  10.657  0.3767  0.0655  1.2159
20852SOL    HW267368   8.336   1.670  10.599 -0.6239  0.1370 -1.2019
20853SOL     OW67369   7.448   4.773   9.592  0.1408  0.7380  0.2664
20853SOL    HW167370   7.485   4.687   9.615  1.9482  1.3926  0.0188
20853SOL    HW267371   7.353   4.761   9.597  0.3669 -0.7439  2.1412
20854SOL     OW67372   6.475   7.699  11.288 -0.2082 -0.0730  0.8577
20854SOL    HW167373   6.530   7.671  11.215 -0.3052  0.7793  0.4411
20854SOL    HW267374   6.523   7.674  11.366 -0.4667 -1.7210  0.5228
20855SOL     OW67375  10.536   5.159   4.739  0.2643 -0.2876  0.4229
20855SOL    HW167376  10.609   5.169   4.679 -1.1776  2.1280 -1.1056
20855SOL    HW267377  10.472   5.225   4.710 -1.3250 -0.3432  3.4202
20856SOL     OW67378   2.188   9.365   7.161  0.0972  0.3040  0.9923
20856SOL    HW167379   2.111   9.414   7.191  0.7845  1.2864  1.1953
20856SOL    HW267380   2.191   9.380   7.067  0.2775  0.6166  1.0466
20857SOL     OW67381  12.163   7.308   1.061  0.0521  0.2156 -0.0791
20857SOL    HW167382  12.161   7.321   0.966  1.5053  2.1501  0.0787
20857SOL    HW267383  12.094   7.365   1.094 -2.6769 -2.8303 -0.0522
20858SOL     OW67384   7.042   3.511   5.768 -0.2970  0.3402 -0.0165
20858SOL    HW167385   7.092   3.544   5.693  1.0753  1.7463  1.4275
20858SOL    HW267386   7.080   3.425   5.785 -0.0927  0.3371 -0.4638
20859SOL     OW67387   1.363   7.751  12.170 -0.2435 -0.0295 -0.4349
20859SOL    HW167388   1.326   7.675  12.126  0.3444 -0.0695 -0.8703
20859SOL    HW267389   1.371   7.817  12.101 -3.0454  1.3170  0.3934
20860SOL     OW67390  10.911   1.817   1.111 -0.0694  0.2806  0.3873
20860SOL    HW167391  10.944   1.899   1.147 -2.5807  1.4125  0.2832
20860SOL    HW267392  10.868   1.841   1.029 -1.9306 -0.8843  0.9530
20861SOL     OW67393   8.549   0.590   4.801 -0.3829 -0.2835  0.6887
20861SOL    HW167394   8.578   0.612   4.712 -1.3969  0.7563  0.5866
20861SOL    HW267395   8.465   0.635   4.810 -0.8787 -1.3829  1.7532
20862SOL     OW67396   1.833   8.833   1.573  0.4965  1.2609  0.2785
20862SOL    HW167397   1.862   8.871   1.490  0.3701  2.1919  0.6466
20862SOL    HW267398   1.742   8.861   1.582 -0.9837 -2.4246 -1.3394
20863SOL     OW67399   0.802  11.109   4.485 -0.6226 -0.2884 -0.2997
20863SOL    HW167400   0.767  11.101   4.573  0.5301 -0.6534  0.1449
20863SOL    HW267401   0.811  11.203   4.471  1.3818 -0.2434  0.9042
20864SOL     OW67402   8.379   0.041   9.352  0.3252 -0.0425 -0.2521
20864SOL    HW167403   8.314   0.031   9.421  1.3182 -1.1534  0.5598
20864SOL    HW267404   8.346  -0.013   9.280 -0.2178  0.3510 -0.3149
20865SOL     OW67405   4.788   0.566   7.570 -0.6153 -0.3225 -0.4909
20865SOL    HW167406   4.823   0.480   7.550 -0.7954 -0.4163 -0.4000
20865SOL    HW267407   4.786   0.570   7.666  0.5559  0.2512 -0.4745
20866SOL     OW67408   6.442   6.969  10.535 -0.5779 -0.6052  0.0172
20866SOL    HW167409   6.377   6.942  10.470 -1.0491 -3.3859  1.5032
20866SOL    HW267410   6.522   6.922  10.510 -0.2802 -0.3395  0.4673
20867SOL     OW67411   4.563   6.822   1.578  0.3797 -0.3073  0.0511
20867SOL    HW167412   4.545   6.861   1.493 -2.8854 -4.5702 -1.5926
20867SOL    HW267413   4.485   6.840   1.630  0.1077 -1.9506  0.2670
20868SOL     OW67414  12.355   1.238   4.523  1.0771 -0.1842 -0.3283
20868SOL    HW167415  12.386   1.238   4.433  1.6503  1.1343 -0.1577
20868SOL    HW267416  12.375   1.151   4.556 -0.6238 -1.2482 -1.9340
20869SOL     OW67417   6.857   4.471   9.354  0.4371  0.2596 -0.6178
20869SOL    HW167418   6.920   4.540   9.377  0.5968  0.9220 -2.7719
20869SOL    HW267419   6.851   4.416   9.432  2.8260  0.8348  0.0444
20870SOL     OW67420  11.929   6.902   8.540  0.1838 -0.3972 -0.5538
20870SOL    HW167421  11.868   6.937   8.475 -0.8695 -1.8721 -0.4162
20870SOL    HW267422  11.874   6.852   8.600  1.2861 -0.0199  0.8264
20871SOL     OW67423   1.179   5.871  11.984  0.2202 -0.1940  0.2500
20871SOL    HW167424   1.205   5.951  11.938 -0.3582  0.8859  1.7286
20871SOL    HW267425   1.104   5.838  11.934 -0.3613  0.9226  0.3697
20872SOL     OW67426   1.027   0.813   9.262 -0.5291  0.7384  0.7236
20872SOL    HW167427   1.105   0.758   9.263 -0.8257  0.3139  1.0153
20872SOL    HW267428   1.060   0.902   9.249  0.1336  0.7600  2.2556
20873SOL     OW67429   6.371   8.503   4.446 -0.2322  0.1170  0.7533
20873SOL    HW167430   6.453   8.473   4.405 -1.1684  0.2161 -1.3014
20873SOL    HW267431   6.355   8.588   4.407 -1.4959 -0.0542  0.8662
20874SOL     OW67432   9.120   6.301   7.772 -0.4030 -0.8096 -0.8211
20874SOL    HW167433   9.126   6.386   7.728  0.0938 -0.9180 -0.9655
20874SOL    HW267434   9.079   6.321   7.856  1.9575 -0.0048  0.2242
20875SOL     OW67435   2.206  12.561   7.516  0.8912 -1.0539 -0.2326
20875SOL    HW167436   2.190  12.627   7.448  0.9053 -2.5387 -1.7419
20875SOL    HW267437   2.160  12.483   7.486  2.2532 -2.2555  0.6232
20876SOL     OW67438   5.203   6.768   0.203 -0.0502 -0.1677 -0.2132
20876SOL    HW167439   5.279   6.712   0.219  0.1641  0.1416 -0.1619
20876SOL    HW267440   5.239   6.853   0.178 -0.3777 -0.0798 -0.4008
20877SOL     OW67441   4.919   2.898  11.648  0.2789 -0.1491 -0.3089
20877SOL    HW167442   5.001   2.921  11.691 -0.2273 -0.5911  0.9142
20877SOL    HW267443   4.852   2.952  11.691 -0.1403 -0.0830 -1.0185
20878SOL     OW67444   9.697   6.956  11.340 -0.3223  0.0250  0.1842
20878SOL    HW167445   9.632   6.983  11.405 -0.2918 -0.1517  0.2885
20878SOL    HW267446   9.715   6.865  11.361  1.2562  0.5608  1.2387
20879SOL     OW67447   1.162   4.616  10.734  0.0712 -0.1966 -0.2778
20879SOL    HW167448   1.242   4.667  10.751 -0.0417 -0.7766  2.3037
20879SOL    HW267449   1.187   4.555  10.665  1.2451  0.9813 -0.9414
20880SOL     OW67450  11.901   4.541  10.030 -0.4079 -0.2172 -0.0500
20880SOL    HW167451  11.979   4.487  10.014 -0.5059  0.2260 -2.4046
20880SOL    HW267452  11.934   4.615  10.081  0.5912 -0.3786 -0.4250
20881SOL     OW67453   5.946   9.064   7.711 -0.5322 -0.2571 -0.2917
20881SOL    HW167454   6.039   9.084   7.717 -0.8354  0.7308  1.7298
20881SOL    HW267455   5.930   9.056   7.616  1.6164 -0.6777 -0.6728
20882SOL     OW67456   9.011   6.195   4.166  0.3689 -0.0269  0.1067
20882SOL    HW167457   9.016   6.260   4.237  2.1462  2.3722 -2.0347
20882SOL    HW267458   8.978   6.244   4.091 -1.8320 -2.5807 -0.7584
20883SOL     OW67459   4.456   1.773   6.622 -0.5788  0.2753 -0.0411
20883SOL    HW167460   4.552   1.778   6.626 -0.5764 -0.3885  1.3698
20883SOL    HW267461   4.434   1.808   6.535  0.8610  1.4530  0.0212
20884SOL     OW67462  12.530   2.543   9.728 -0.7958  0.0673 -0.2768
20884SOL    HW167463  12.461   2.608   9.718  0.3268  1.2286 -0.7697
20884SOL    HW267464  12.522   2.513   9.819 -1.3740  0.8371 -0.0644
20885SOL     OW67465   7.860   2.153   1.873  0.3159  0.2886  0.3415
20885SOL    HW167466   7.911   2.233   1.870 -0.0970  0.5468  0.1738
20885SOL    HW267467   7.832   2.146   1.965  0.5767  0.1910  0.4151
20886SOL     OW67468   4.180   5.982  11.605  0.3070  0.1702 -1.0517
20886SOL    HW167469   4.240   6.045  11.645  1.0862 -1.0601 -0.1890
20886SOL    HW267470   4.193   5.992  11.511  2.1338 -0.2655 -0.8852
20887SOL     OW67471   5.829   0.997   5.846  0.5689  0.0596 -0.3271
20887SOL    HW167472   5.924   0.998   5.833  0.8664  0.1459  1.5660
20887SOL    HW267473   5.805   1.088   5.860  0.5975 -0.1873  1.5007
20888SOL     OW67474   9.621   0.654   7.925  0.0580 -0.1096 -0.0382
20888SOL    HW167475   9.717   0.659   7.929  0.0632  0.8923 -0.9628
20888SOL    HW267476   9.601   0.657   7.832 -0.8084 -2.3907  0.0148
20889SOL     OW67477  11.385   8.772   3.834 -0.0885  0.1751 -0.2438
20889SOL    HW167478  11.376   8.803   3.924 -0.8281 -0.6361 -0.0280
20889SOL    HW267479  11.314   8.815   3.787 -0.7547 -0.6977 -0.0668
20890SOL     OW67480   9.954   9.516   7.719  0.3439  0.0358  0.4826
20890SOL    HW167481   9.900   9.595   7.721 -0.5556 -0.5591  0.5267
20890SOL    HW267482   9.943   9.483   7.630 -0.4083 -0.7809  0.8681
20891SOL     OW67483  11.505   4.433   1.833  0.3167 -0.0996 -0.3462
20891SOL    HW167484  11.421   4.388   1.836 -0.4779  1.2706 -1.0250
20891SOL    HW267485  11.568   4.365   1.810 -0.6354 -1.1100 -0.0393
20892SOL     OW67486   3.150   6.623   9.581 -0.5342 -0.0970 -0.1867
20892SOL    HW167487   3.128   6.533   9.556 -1.1331 -0.6509  2.0802
20892SOL    HW267488   3.118   6.677   9.509 -0.4978 -1.6607 -1.4219
20893SOL     OW67489   6.175   8.914   9.043  0.0840 -0.0642  0.2322
20893SOL    HW167490   6.152   9.006   9.053  1.1733  0.2084  0.4168
20893SOL    HW267491   6.125   8.885   8.966 -0.5263  0.5808  0.3729
20894SOL     OW67492   3.948  10.353  11.933 -0.8094 -0.3206 -0.0482
20894SOL    HW167493   3.912  10.433  11.971  2.5098  1.2809  0.0836
20894SOL    HW267494   4.007  10.319  12.000 -1.2294 -2.2456 -0.5945
20895SOL     OW67495   8.940   0.931  11.494  0.0178 -0.1268  0.7653
20895SOL    HW167496   8.918   1.010  11.445 -0.8048 -0.4474  0.6017
20895SOL    HW267497   8.976   0.871  11.429  0.4760  0.0470  0.8575
20896SOL     OW67498  10.855  12.351   5.108 -0.7227 -0.4416 -0.1264
20896SOL    HW167499  10.905  12.270   5.093  0.1796  0.0169  0.3250
20896SOL    HW267500  10.910  12.420   5.070  0.8233  0.5482  3.4720
20897SOL     OW67501   3.773   6.086   9.613 -0.1901  0.6891  0.2989
20897SOL    HW167502   3.716   6.024   9.568 -0.9561  0.2876  1.7615
20897SOL    HW267503   3.854   6.037   9.629  0.2531  0.9747 -0.9894
20898SOL     OW67504   0.362   5.114   1.251 -0.0152 -0.0862  0.2763
20898SOL    HW167505   0.413   5.032   1.245  0.0464 -0.0250 -0.0952
20898SOL    HW267506   0.416   5.172   1.305 -0.3567 -0.5081  1.0777
20899SOL     OW67507   1.502   8.213   2.419 -0.4072  0.3719  0.1041
20899SOL    HW167508   1.424   8.266   2.405 -0.0720  0.2255 -3.1412
20899SOL    HW267509   1.574   8.277   2.424 -0.3408  0.4001 -0.8920
20900SOL     OW67510  10.449   9.706   8.576 -0.3093  0.2684  0.1255
20900SOL    HW167511  10.447   9.800   8.555  0.6478  0.1600 -0.5620
20900SOL    HW267512  10.368   9.671   8.539 -0.3870  0.7301 -0.1471
20901SOL     OW67513   4.031   0.211  12.445 -0.3605  0.4537  0.1931
20901SOL    HW167514   3.955   0.239  12.395  1.3125  0.9757 -2.2621
20901SOL    HW267515   4.049   0.284  12.505 -0.6173  1.2284 -0.6555
20902SOL     OW67516  11.400   0.091   1.407  1.3038 -0.7136  0.2686
20902SOL    HW167517  11.398   0.158   1.339  0.8326  0.3483  1.2794
20902SOL    HW267518  11.492   0.080   1.427  1.3423  2.2505  2.4741
20903SOL     OW67519   6.926   6.324   7.330 -0.0664  0.3896 -0.2225
20903SOL    HW167520   6.832   6.334   7.321 -0.3265 -1.2182  0.3723
20903SOL    HW267521   6.938   6.291   7.420  1.1887  2.0103  0.2549
20904SOL     OW67522   7.119   2.741   4.972  0.5149 -0.0928 -0.5524
20904SOL    HW167523   7.175   2.764   5.046 -1.2470  0.6710  0.5952
20904SOL    HW267524   7.099   2.648   4.985 -0.3996  0.2227  0.3777
20905SOL     OW67525  11.653   4.772   9.950 -0.1554 -0.5568 -0.2173
20905SOL    HW167526  11.592   4.701   9.972  0.9630 -1.4017  0.2538
20905SOL    HW267527  11.620   4.847   9.999  0.0025 -1.3887  1.2219
20906SOL     OW67528  12.080   9.817   0.891 -0.0037 -0.1571  0.1000
20906SOL    HW167529  12.034   9.735   0.874 -2.4369  1.4941 -2.0589
20906SOL    HW267530  12.040   9.880   0.831  1.8590  2.6069  1.5317
20907SOL     OW67531   6.549   9.528  10.380 -0.0253  0.3602  0.0728
20907SOL    HW167532   6.627   9.583  10.386  1.4647 -1.7238  1.5034
20907SOL    HW267533   6.511   9.530  10.467  0.1218 -0.8718  0.1929
20908SOL     OW67534   8.987   5.670   8.707  0.5473  0.2186  0.2347
20908SOL    HW167535   8.907   5.712   8.676  0.0542 -0.6459  0.2884
20908SOL    HW267536   9.007   5.604   8.641  1.4523  0.6959  0.0166
20909SOL     OW67537   2.104   6.310   4.295  0.0833 -0.2563  0.9121
20909SOL    HW167538   2.074   6.236   4.243 -1.1587  0.7146  0.2031
20909SOL    HW267539   2.109   6.276   4.385  0.9368 -1.5623  0.3989
20910SOL     OW67540   4.169  10.003   4.468  0.0104  0.1025 -0.1107
20910SOL    HW167541   4.098   9.939   4.479 -0.4723  0.4537 -1.0149
20910SOL    HW267542   4.131  10.085   4.499 -0.1059  0.3588 -0.9071
20911SOL     OW67543  12.614   6.023   4.195 -0.3373 -0.1240  0.2706
20911SOL    HW167544  12.657   6.056   4.274  1.3954  1.1110 -1.1049
20911SOL    HW267545  12.682   6.026   4.128 -2.3461  1.1580 -1.8451
20912SOL     OW67546   7.242  10.899  10.534  0.6450 -0.3158  0.1886
20912SOL    HW167547   7.259  10.834  10.465  0.3758  0.0627 -0.2381
20912SOL    HW267548   7.247  10.983  10.489  0.8570 -0.0444  0.7139
20913SOL     OW67549   5.244   2.858   8.063  0.1432 -0.6373  0.0684
20913SOL    HW167550   5.280   2.791   8.121 -0.7103 -0.8405  0.3771
20913SOL    HW267551   5.190   2.913   8.120  0.7733  0.2784 -0.1941
20914SOL     OW67552   8.429   2.994  10.972  0.2866  0.4488  0.2423
20914SOL    HW167553   8.468   2.915  10.935 -1.2362 -1.3035  2.1464
20914SOL    HW267554   8.414   3.051  10.896 -0.7141 -2.0266 -1.5389
20915SOL     OW67555   5.984   1.078   9.932  0.0695 -0.3485 -0.8020
20915SOL    HW167556   5.971   1.013  10.002  0.6583 -0.1558 -0.5074
20915SOL    HW267557   5.921   1.147   9.952  1.4211  0.5429  0.5651
20916SOL     OW67558   1.418   8.379   1.613 -0.1597 -0.3301 -0.1053
20916SOL    HW167559   1.489   8.427   1.571 -0.9398  0.6979 -0.2957
20916SOL    HW267560   1.461   8.323   1.678  0.9560 -0.9805 -1.3542
20917SOL     OW67561   7.716  10.311  10.764 -0.1506  0.4760 -0.2339
20917SOL    HW167562   7.630  10.271  10.778 -0.1462  1.1834  2.2376
20917SOL    HW267563   7.734  10.296  10.671 -2.1239 -1.2665 -0.4216
20918SOL     OW67564   0.477  11.037   6.746  0.0980 -0.5646  0.8382
20918SOL    HW167565   0.393  10.995   6.727  1.0174 -1.6783 -1.0734
20918SOL    HW267566   0.542  10.981   6.704  1.8917 -0.0781  2.8007
20919SOL     OW67567   5.176   4.036  10.906 -0.7203 -0.3040  0.5308
20919SOL    HW167568   5.256   4.034  10.959 -0.1729  0.4631 -0.2399
20919SOL    HW267569   5.201   4.083  10.827 -2.1571  0.7587  0.6566
20920SOL     OW67570   1.961   4.435   4.728 -0.1713  0.4514 -0.0306
20920SOL    HW167571   2.050   4.432   4.764 -0.3908  1.6768  0.6387
20920SOL    HW267572   1.960   4.365   4.662  1.7554  1.3435 -1.0880
20921SOL     OW67573   6.558   8.699   7.816 -0.6952  0.4761  0.5881
20921SOL    HW167574   6.628   8.668   7.758  0.5347 -0.2730  2.3781
20921SOL    HW267575   6.511   8.764   7.764  0.3492 -0.1280 -1.2234
20922SOL     OW67576  10.535  10.074   1.941 -0.4164  0.1041 -0.0334
20922SOL    HW167577  10.537  10.155   1.993  0.8007  0.8205 -1.1258
20922SOL    HW267578  10.558  10.005   2.004  0.8177  0.9264  0.4696
20923SOL     OW67579   5.063   2.699   1.397 -0.4921 -0.0097 -0.2487
20923SOL    HW167580   5.116   2.655   1.330  1.0283  2.7210 -0.9996
20923SOL    HW267581   5.085   2.652   1.479  1.3807 -0.3948 -0.9039
20924SOL     OW67582   4.335   6.038  12.477  0.6042  0.0830 -0.3356
20924SOL    HW167583   4.431   6.036  12.477  0.6009 -1.3485 -0.3761
20924SOL    HW267584   4.310   5.961  12.425 -0.5715  0.6466 -0.6320
20925SOL     OW67585   3.825   6.308   8.949 -0.4667  0.7569 -0.9029
20925SOL    HW167586   3.882   6.364   9.000 -0.8171  0.4472 -0.1565
20925SOL    HW267587   3.808   6.233   9.006 -2.7511  1.4888 -0.5134
20926SOL     OW67588   1.319   4.378   8.294 -0.8655 -0.5971  0.0895
20926SOL    HW167589   1.252   4.428   8.341 -0.2025 -0.2768  0.7076
20926SOL    HW267590   1.398   4.388   8.346 -0.4993 -1.5725 -0.2450
20927SOL     OW67591   7.938  10.482  10.061 -0.1365  0.1056 -0.1515
20927SOL    HW167592   7.910  10.390  10.055  2.1917 -0.8883  1.9716
20927SOL    HW267593   7.875  10.523  10.120 -0.0340 -0.7208  0.5551
20928SOL     OW67594   1.197   9.570   9.027  0.0345 -0.4516  0.1083
20928SOL    HW167595   1.213   9.498   8.966  1.2454  0.1356 -0.2885
20928SOL    HW267596   1.282   9.611   9.039 -0.6704  1.0419  0.1836
20929SOL     OW67597   4.448  11.642  11.800 -0.3624 -0.2983 -0.1986
20929SOL    HW167598   4.515  11.652  11.733  0.2042 -0.5464  0.3244
20929SOL    HW267599   4.383  11.584  11.760  0.2561 -0.9092 -0.3258
20930SOL     OW67600   2.472   0.674   0.687  0.1744 -0.1552 -0.9512
20930SOL    HW167601   2.447   0.699   0.599  0.7213 -0.8730 -1.3264
20930SOL    HW267602   2.389   0.670   0.736  0.0702  2.7036 -0.7185
20931SOL     OW67603   6.119   6.945   9.067 -0.3895  0.7073  0.7746
20931SOL    HW167604   6.092   6.961   9.157 -0.2738  0.2861  0.8849
20931SOL    HW267605   6.211   6.973   9.064  0.1752 -0.9847  1.2722
20932SOL     OW67606   5.211   6.304   6.705 -0.5200  0.4431  0.6541
20932SOL    HW167607   5.223   6.322   6.798 -0.3704  0.6895  0.5863
20932SOL    HW267608   5.158   6.377   6.673 -1.3792 -0.1296  0.7454
20933SOL     OW67609  11.218   9.694  12.455  0.3261 -0.3412  0.2373
20933SOL    HW167610  11.184   9.606  12.438 -1.3342  0.2459  0.4140
20933SOL    HW267611  11.240   9.694  12.548  1.6522 -0.9789 -0.0504
20934SOL     OW67612   4.793   6.206   8.776 -0.0063 -0.1309  0.1328
20934SOL    HW167613   4.773   6.122   8.818  1.9054 -0.5648  0.2997
20934SOL    HW267614   4.873   6.189   8.726 -1.4378  0.7380 -2.6486
20935SOL     OW67615   8.533   9.981   7.826 -0.2272 -0.2118  0.3363
20935SOL    HW167616   8.610   9.978   7.769  0.4464 -0.7918  1.2400
20935SOL    HW267617   8.546   9.907   7.886 -0.3639  1.0186  1.9347
20936SOL     OW67618  12.547  11.451   0.443 -0.3213 -0.1411  0.1275
20936SOL    HW167619  12.621  11.487   0.393 -0.0608  0.4084  0.8962
20936SOL    HW267620  12.588  11.406   0.517 -0.7732  2.2169  1.9313
20937SOL     OW67621  10.688   7.009  10.635  0.2934  0.1300  0.0778
20937SOL    HW167622  10.701   6.934  10.576  1.2897  0.8683 -0.6830
20937SOL    HW267623  10.598   7.037  10.618  0.4832  0.1750 -0.9345
20938SOL     OW67624   1.302   3.968  12.604 -0.1429  0.2060  0.6003
20938SOL    HW167625   1.369   3.912  12.642  0.5215 -0.3467 -1.2516
20938SOL    HW267626   1.343   4.002  12.524 -2.1470 -0.3694 -0.7350
20939SOL     OW67627   3.906   6.062  11.721  0.4800 -0.1754  0.3887
20939SOL    HW167628   3.963   5.991  11.692  1.0619 -0.0029  1.0823
20939SOL    HW267629   3.822   6.044  11.678  0.8814 -0.7607 -0.1712
20940SOL     OW67630   8.199   8.595   2.514  0.3004  0.6879 -0.0376
20940SOL    HW167631   8.295   8.592   2.516  0.2815 -0.9177  1.8673
20940SOL    HW267632   8.172   8.504   2.503 -1.0176  1.1470 -0.7888
20941SOL     OW67633   2.151   5.917   6.745 -0.0647  0.1818  0.2328
20941SOL    HW167634   2.100   5.862   6.685 -0.0969  0.4370  0.0244
20941SOL    HW267635   2.235   5.871   6.753  1.0637  1.5937 -2.3217
20942SOL     OW67636   4.045  12.238   9.557 -0.0243 -0.6858 -0.2756
20942SOL    HW167637   4.090  12.319   9.576 -1.1324 -0.1060 -0.0316
20942SOL    HW267638   4.102  12.169   9.592  0.8473 -0.0076 -0.3569
20943SOL     OW67639   3.736   6.876   7.275 -0.4566  0.4249  0.0416
20943SOL    HW167640   3.699   6.821   7.206 -3.0049  1.2553  0.6414
20943SOL    HW267641   3.749   6.961   7.233 -2.7428  1.1542  0.6840
20944SOL     OW67642  11.614   8.601   3.490  0.2703  0.3242  0.4704
20944SOL    HW167643  11.645   8.592   3.400  0.1709  1.8791  0.2536
20944SOL    HW267644  11.693   8.602   3.543  0.3427 -0.3239  0.3790
20945SOL     OW67645  11.070  12.335   1.296 -0.1334  0.1227  0.1246
20945SOL    HW167646  11.060  12.280   1.374  0.8134  1.2718  1.1075
20945SOL    HW267647  11.000  12.400   1.305  0.1628  0.4368  0.1901
20946SOL     OW67648   4.285   3.735  10.856  0.2922  0.6097  0.8510
20946SOL    HW167649   4.300   3.824  10.823 -0.0783  0.4044  0.1007
20946SOL    HW267650   4.344   3.680  10.804 -1.2840  0.1018 -0.4779
20947SOL     OW67651   4.082   8.422   6.198 -0.4821 -0.5374  0.2240
20947SOL    HW167652   4.009   8.483   6.212 -1.0757 -1.4037  1.0413
20947SOL    HW267653   4.122   8.414   6.285 -0.6027 -1.5556  0.1858
20948SOL     OW67654   7.169  12.089   3.250  0.3855  0.5071 -0.2753
20948SOL    HW167655   7.180  12.127   3.338  1.6125  0.0495 -0.2071
20948SOL    HW267656   7.258  12.066   3.224  0.3836  2.7089 -2.6114
20949SOL     OW67657  12.007   1.726   9.676 -0.8293  0.0340  0.4025
20949SOL    HW167658  11.971   1.710   9.589 -0.2651 -1.1583  0.3668
20949SOL    HW267659  11.947   1.679   9.735 -0.3925 -0.4027  0.5084
20950SOL     OW67660   5.194   5.025  12.468 -0.0789  0.0485  0.1842
20950SOL    HW167661   5.280   4.984  12.466  0.1896  0.5293  0.9291
20950SOL    HW267662   5.161   5.019  12.379  1.1962  0.8163 -0.3725
20951SOL     OW67663   0.254   5.343   9.392 -0.0992  0.2838 -0.0255
20951SOL    HW167664   0.246   5.330   9.298  0.0872 -1.0781  0.1299
20951SOL    HW267665   0.173   5.388   9.417 -1.0299 -1.0567 -0.5562
20952SOL     OW67666   8.896  10.313   6.867 -0.0313 -0.2662 -0.2006
20952SOL    HW167667   8.948  10.392   6.848  1.4791 -1.1487  0.0746
20952SOL    HW267668   8.806  10.337   6.845  0.9507  0.0531 -4.8274
20953SOL     OW67669   1.916  12.497   0.529 -0.1536  0.4169  0.1976
20953SOL    HW167670   2.008  12.517   0.548  0.4196 -1.2349 -0.6153
20953SOL    HW267671   1.888  12.441   0.601 -0.1114 -0.1475 -0.2187
20954SOL     OW67672   7.101   1.943   8.891 -0.4938 -0.2140 -0.5922
20954SOL    HW167673   7.079   1.907   8.806 -0.0729  0.7521 -1.1242
20954SOL    HW267674   7.182   1.991   8.877 -0.8535  0.6522  0.1607
20955SOL     OW67675  11.765   9.632  10.139  0.3927  0.0942 -0.5841
20955SOL    HW167676  11.771   9.714  10.188  1.2592  0.2765 -0.9755
20955SOL    HW267677  11.808   9.567  10.195 -1.1237 -0.3145  0.1496
20956SOL     OW67678   8.230  12.436   9.850  0.1235 -0.2498 -0.4629
20956SOL    HW167679   8.274  12.514   9.816 -1.1396  0.1724 -1.2029
20956SOL    HW267680   8.265  12.364   9.797  0.5732 -0.0378 -0.4501
20957SOL     OW67681   3.365   6.831   3.216  0.8445  0.8567 -0.6110
20957SOL    HW167682   3.345   6.757   3.158 -0.6532 -0.4428  1.4438
20957SOL    HW267683   3.456   6.816   3.242  0.3193 -0.7919  0.4330
20958SOL     OW67684   5.749   9.469   9.419  0.7778  0.1573  0.4693
20958SOL    HW167685   5.693   9.494   9.493 -0.1823  1.8582 -0.7658
20958SOL    HW267686   5.779   9.552   9.383 -0.0250 -0.5365 -1.9759
20959SOL     OW67687   2.925  10.258  11.966 -0.2229 -0.8953 -0.1830
20959SOL    HW167688   2.955  10.243  12.056 -1.0432  0.6765  0.3841
20959SOL    HW267689   2.996  10.223  11.912  1.7483  0.8658  1.0908
20960SOL     OW67690   2.550   4.260   9.643  0.4041 -0.1266  0.5144
20960SOL    HW167691   2.563   4.352   9.666  0.4373  0.0056 -0.0332
20960SOL    HW267692   2.584   4.252   9.554  0.5944 -0.7143  0.6351
20961SOL     OW67693   4.291   4.217   8.932  0.1226  0.0140  0.5341
20961SOL    HW167694   4.343   4.265   8.869 -0.2594 -0.1403  0.0903
20961SOL    HW267695   4.234   4.161   8.878  0.9233 -1.3336  1.0270
20962SOL     OW67696  12.524  12.373   7.088 -0.1789 -0.8621 -0.2379
20962SOL    HW167697  12.507  12.286   7.054 -1.6173 -0.5590 -0.3696
20962SOL    HW267698  12.587  12.411   7.026 -1.0955 -1.0877 -1.3469
20963SOL     OW67699   7.935   2.531  10.669  0.4341 -0.3483 -0.2486
20963SOL    HW167700   7.849   2.570  10.654  0.7194  0.0230 -0.9744
20963SOL    HW267701   7.922   2.469  10.741 -0.3846 -0.1209 -0.2004
20964SOL     OW67702   3.581   3.872  10.276 -0.1489 -0.4108  0.0822
20964SOL    HW167703   3.523   3.913  10.340 -0.2892 -1.3336  0.5507
20964SOL    HW267704   3.540   3.892  10.191  0.1867  1.0516  0.2296
20965SOL     OW67705   6.661   4.950   5.050 -0.5351  0.2793 -0.2931
20965SOL    HW167706   6.629   4.970   4.962  1.3674  0.7373 -0.9265
20965SOL    HW267707   6.648   5.031   5.099  0.4727  0.7621 -0.8065
20966SOL     OW67708   3.660   7.933   7.241 -0.0099  0.0332 -0.1684
20966SOL    HW167709   3.641   7.840   7.252  1.4995 -0.2587  0.2387
20966SOL    HW267710   3.706   7.957   7.322 -1.1016  1.3398  0.0957
20967SOL     OW67711   7.482   5.967   2.716  0.2861 -0.1135  0.5150
20967SOL    HW167712   7.475   5.913   2.637  0.1862  0.5119  0.0850
20967SOL    HW267713   7.396   6.008   2.725  1.1525  2.2839 -0.8910
20968SOL     OW67714   9.884  10.536   1.576 -0.2586 -0.0809 -0.8829
20968SOL    HW167715   9.922  10.622   1.595  1.0297 -0.8705  0.3712
20968SOL    HW267716   9.959  10.477   1.576 -1.2600 -1.3961 -0.4371
20969SOL     OW67717   5.368   7.550   3.416 -0.1771 -0.1142 -0.1970
20969SOL    HW167718   5.448   7.603   3.417  0.2323 -0.7216  0.0209
20969SOL    HW267719   5.298   7.613   3.403  0.3721  0.3880 -0.8251
20970SOL     OW67720   5.280   2.668   8.252 -0.3163 -0.5280  0.2308
20970SOL    HW167721   5.357   2.700   8.300 -0.7535  0.3360  0.3698
20970SOL    HW267722   5.253   2.590   8.299  1.3725 -1.7508 -0.6973
20971SOL     OW67723   0.591   3.018   2.820  0.1889  0.3443  0.1044
20971SOL    HW167724   0.527   3.040   2.752  0.9827  0.4378 -0.6292
20971SOL    HW267725   0.598   3.097   2.873 -1.4236 -0.1472  1.1413
20972SOL     OW67726   8.004   5.786   8.178  0.3586  0.2211 -0.5073
20972SOL    HW167727   7.983   5.737   8.098  1.3396 -0.7134 -0.2089
20972SOL    HW267728   8.065   5.730   8.226 -0.5269  0.5652  1.1155
20973SOL     OW67729   7.783   6.964   6.427  0.1866  0.4604  0.0964
20973SOL    HW167730   7.688   6.969   6.438 -0.0829 -1.1177 -1.2382
20973SOL    HW267731   7.797   6.978   6.334  1.3019  0.8466  0.3044
20974SOL     OW67732  10.615  12.117  12.595 -0.0761  0.2769 -0.0294
20974SOL    HW167733  10.583  12.035  12.558  0.8349  0.2849 -0.8530
20974SOL    HW267734  10.709  12.102  12.608 -0.2231  0.5571  1.5273
20975SOL     OW67735   7.210  11.503   5.561 -0.0889  0.3986  0.0517
20975SOL    HW167736   7.266  11.570   5.523 -1.3375  0.1772 -2.3501
20975SOL    HW267737   7.254  11.420   5.541  1.4053  0.3827  2.9310
20976SOL     OW67738   5.234   7.416   3.668 -0.2833 -0.6528  0.2099
20976SOL    HW167739   5.281   7.430   3.586  0.1774 -3.6105 -0.1249
20976SOL    HW267740   5.299   7.435   3.736  0.2058 -0.8770 -0.1848
20977SOL     OW67741  10.438   6.480   4.880  0.0492 -0.2524 -0.3369
20977SOL    HW167742  10.499   6.425   4.929 -2.2201 -1.2196  1.6298
20977SOL    HW267743  10.426   6.557   4.937 -0.8458 -0.2800 -0.4734
20978SOL     OW67744   2.794  11.492   0.706 -0.2468  0.4794 -0.1190
20978SOL    HW167745   2.781  11.447   0.623  1.6103 -1.0184  0.3113
20978SOL    HW267746   2.756  11.433   0.771  0.9490  0.1607  0.3252
20979SOL     OW67747   6.541  11.092  10.223 -0.1973  0.5968 -0.0395
20979SOL    HW167748   6.498  11.135  10.149 -1.0649 -0.7313 -0.3473
20979SOL    HW267749   6.603  11.157  10.257 -2.0699  2.3974  0.0928
20980SOL     OW67750   4.688  10.179   5.568  0.0510  0.0798 -0.1380
20980SOL    HW167751   4.626  10.234   5.521  0.7392  1.0054  0.0193
20980SOL    HW267752   4.646  10.159   5.651  0.5049  1.8407  0.5465
20981SOL     OW67753   9.584   7.479   9.064 -0.3034  0.0689 -0.7360
20981SOL    HW167754   9.619   7.403   9.017 -1.2418 -1.1656  0.4696
20981SOL    HW267755   9.642   7.551   9.039  1.7489 -1.4011 -0.5389
20982SOL     OW67756   1.261  11.274  10.354 -0.7198  0.7327 -0.3902
20982SOL    HW167757   1.236  11.188  10.318 -0.3826  0.3727  0.2189
20982SOL    HW267758   1.249  11.265  10.448  0.7034  0.8791 -0.1788
20983SOL     OW67759   8.251   8.055   8.588  0.1627 -0.7102  0.5332
20983SOL    HW167760   8.176   8.107   8.615 -2.1710 -3.1914 -0.6946
20983SOL    HW267761   8.260   7.988   8.655  1.1801 -0.5987  0.5361
20984SOL     OW67762   7.144   8.814   3.830 -0.2429 -0.5219  0.2275
20984SOL    HW167763   7.227   8.786   3.792  0.1497 -0.7778  1.2381
20984SOL    HW267764   7.088   8.832   3.755  0.9667  0.4214 -0.4921
20985SOL     OW67765   3.102   5.068   9.261 -0.5235 -0.4054 -0.3511
20985SOL    HW167766   3.040   5.035   9.326 -0.9787 -0.1586 -0.6530
20985SOL    HW267767   3.055   5.139   9.217 -0.9578 -1.7707 -2.2310
20986SOL     OW67768   9.378  10.450   5.083  0.2516  0.1275 -0.0197
20986SOL    HW167769   9.461  10.497   5.072  0.2745  0.2856  0.7920
20986SOL    HW267770   9.351  10.469   5.173 -2.1348  2.4372 -1.0851
20987SOL     OW67771   0.244   7.192  10.423  0.0064 -0.1809 -0.1924
20987SOL    HW167772   0.309   7.239  10.370  0.6922 -0.4307  0.4153
20987SOL    HW267773   0.169   7.251  10.425  0.2347  0.1458 -0.8539
20988SOL     OW67774   6.250   2.506   1.947  0.7588 -0.2306 -0.4067
20988SOL    HW167775   6.277   2.549   1.866  2.5902 -0.6788 -0.0878
20988SOL    HW267776   6.282   2.564   2.016 -2.7430  1.3338  0.1192
20989SOL     OW67777  11.841  10.223  11.284  0.0787  0.5402 -0.2733
20989SOL    HW167778  11.785  10.293  11.317 -0.2347 -0.0619  0.4889
20989SOL    HW267779  11.901  10.203  11.356 -1.2230 -1.4324  0.3287
20990SOL     OW67780   0.039   8.405   3.961 -0.5461 -0.1371  0.4438
20990SOL    HW167781  -0.020   8.378   3.891 -0.7063  1.5779 -0.1360
20990SOL    HW267782   0.006   8.360   4.039 -0.9429 -1.3318 -0.3817
20991SOL     OW67783   7.593  11.650   3.958  0.0873  0.3466  0.7364
20991SOL    HW167784   7.620  11.582   4.019  0.8249  1.0252  1.1928
20991SOL    HW267785   7.592  11.730   4.011  0.8634  0.9679 -0.1593
20992SOL     OW67786   7.045   1.899   7.827 -0.0037  0.1249 -0.7298
20992SOL    HW167787   7.049   1.892   7.922 -0.4243  1.5014 -0.5922
20992SOL    HW267788   6.961   1.859   7.804 -0.0562  0.0985 -0.4953
20993SOL     OW67789   5.864   3.875  12.601 -0.2801 -0.1299  0.0927
20993SOL    HW167790   5.882   3.866  12.694  0.4145  0.8002  0.0655
20993SOL    HW267791   5.948   3.855  12.559  0.1378  1.9648 -0.1731
20994SOL     OW67792   8.814   3.420   8.989 -0.0855  0.1840  0.6790
20994SOL    HW167793   8.877   3.347   8.986 -0.3827 -0.0544 -2.4875
20994SOL    HW267794   8.739   3.389   8.939 -0.3927  2.4922 -0.4117
20995SOL     OW67795   0.012   1.280  11.439  1.1050 -0.2106 -0.3338
20995SOL    HW167796   0.044   1.286  11.349  1.3216 -4.3722 -0.7325
20995SOL    HW267797   0.090   1.288  11.493  1.1470  1.0268 -0.5508
20996SOL     OW67798   4.458  11.069  11.890  0.0825 -0.3052  0.1681
20996SOL    HW167799   4.455  11.139  11.956  0.6398 -1.1469  1.1284
20996SOL    HW267800   4.552  11.058  11.872 -0.1141  1.0035 -2.0206
20997SOL     OW67801   1.613  12.192   7.089  0.1398  0.1812 -0.2957
20997SOL    HW167802   1.620  12.097   7.083  1.0705  0.3272 -1.8390
20997SOL    HW267803   1.696  12.225   7.056 -0.2724  1.5469 -0.0411
20998SOL     OW67804  12.296   1.078  11.888 -0.3170 -0.0585 -0.3814
20998SOL    HW167805  12.214   1.093  11.934  0.0654  0.9732  0.0048
20998SOL    HW267806  12.364   1.112  11.947  0.1714  1.3896 -1.6902
20999SOL     OW67807   7.013   6.551   1.342 -0.0962  0.5245  0.1742
20999SOL    HW167808   7.105   6.535   1.320 -0.0757  1.0963 -0.1645
20999SOL    HW267809   7.013   6.637   1.383 -0.3325  0.0613  1.1825
21000SOL     OW67810   5.247   0.299  10.450  0.3644 -0.5600 -0.0854
21000SOL    HW167811   5.157   0.309  10.420  0.9685 -0.8400 -2.1144
21000SOL    HW267812   5.297   0.279  10.371  2.2767 -0.0490  0.9318
21001SOL     OW67813   8.559   5.258   5.811  0.2033 -0.0485 -0.1550
21001SOL    HW167814   8.548   5.169   5.845 -0.2101  0.4788  1.1617
21001SOL    HW267815   8.620   5.248   5.738 -0.8944 -1.6075 -0.9504
21002SOL     OW67816   4.357   5.008  10.771 -0.1731 -0.2225  0.5923
21002SOL    HW167817   4.414   4.972  10.839 -0.1676 -0.0135  0.7021
21002SOL    HW267818   4.300   5.070  10.819 -0.9405 -0.9176  0.5975
21003SOL     OW67819   8.532   4.414  10.427 -0.0631 -0.6982 -0.1743
21003SOL    HW167820   8.523   4.387  10.335 -1.0191  0.0430 -0.3134
21003SOL    HW267821   8.563   4.335  10.472  1.3510 -0.8187 -1.2822
21004SOL     OW67822   6.609   3.839   7.023  0.0178  0.6017 -0.1123
21004SOL    HW167823   6.627   3.747   7.043 -0.7567  0.0752 -1.6328
21004SOL    HW267824   6.562   3.836   6.939 -3.3516  2.1192  1.5059
21005SOL     OW67825   3.336  10.672   4.047 -0.2438 -0.4544  0.0090
21005SOL    HW167826   3.297  10.747   4.002  3.0334  0.8527 -0.9918
21005SOL    HW267827   3.341  10.698   4.139  0.2199  0.3009 -0.2173
21006SOL     OW67828  10.244   0.333   5.067  0.3572  0.1145  0.0412
21006SOL    HW167829  10.185   0.378   5.006  1.8479  0.6121 -1.0821
21006SOL    HW267830  10.196   0.253   5.091 -0.4507  0.1160 -1.4465
21007SOL     OW67831   8.244  10.728   9.162 -0.2710 -0.3716  0.6207
21007SOL    HW167832   8.218  10.732   9.255  0.1218 -0.1184  0.7223
21007SOL    HW267833   8.268  10.636   9.149  0.7282 -0.1847  1.0664
21008SOL     OW67834   9.415  10.828   1.499 -0.4045  0.1525  0.4791
21008SOL    HW167835   9.389  10.915   1.469  0.7660  0.0132 -1.0402
21008SOL    HW267836   9.449  10.843   1.587 -0.1996  1.2452  0.2285
21009SOL     OW67837   5.925   1.252   0.123 -0.4088  0.6067  0.6938
21009SOL    HW167838   5.877   1.320   0.170  0.0459  0.8076  0.8772
21009SOL    HW267839   5.900   1.170   0.166 -1.2864  0.6032  0.1980
21010SOL     OW67840   9.209   9.767   4.289 -0.3076 -0.2852  0.2763
21010SOL    HW167841   9.227   9.674   4.299 -0.1839 -0.4015 -0.9136
21010SOL    HW267842   9.294   9.809   4.307  0.1484 -0.5506 -1.1358
21011SOL     OW67843   8.965   2.395   0.504 -0.2952  0.5557 -0.0355
21011SOL    HW167844   9.060   2.399   0.513 -0.3694  3.2201  0.2578
21011SOL    HW267845   8.935   2.485   0.521 -3.0341 -0.5418  1.6795
21012SOL     OW67846   2.856   2.791   9.668  0.3369  0.3871  0.2245
21012SOL    HW167847   2.787   2.729   9.690  0.2978 -0.4777 -2.0766
21012SOL    HW267848   2.936   2.739   9.663  0.2864  0.4028 -1.8395
21013SOL     OW67849   4.916   0.062   7.982  0.2428  0.7293  0.0343
21013SOL    HW167850   4.995   0.115   7.972  0.7134 -0.0965 -0.7054
21013SOL    HW267851   4.852   0.104   7.925  0.6918  0.3702 -0.7436
21014SOL     OW67852   5.971   8.429   1.363 -0.4499  0.8369 -0.7489
21014SOL    HW167853   6.002   8.390   1.445 -1.2612  3.4195  0.9022
21014SOL    HW267854   6.044   8.482   1.332 -1.1232  2.2300 -0.0349
21015SOL     OW67855  11.467   9.724   7.887  0.8692  0.3448 -0.0677
21015SOL    HW167856  11.461   9.629   7.890  0.0014  0.3918 -0.1418
21015SOL    HW267857  11.544   9.742   7.832  0.8745 -0.3063 -0.2746
21016SOL     OW67858   4.095   3.061   1.282  1.3906 -0.2961  0.1929
21016SOL    HW167859   4.055   3.125   1.340 -0.7820 -2.3406  1.0871
21016SOL    HW267860   4.061   3.082   1.195  0.0922 -0.6610  0.5989
21017SOL     OW67861   7.385   6.937   9.132 -0.3019 -0.1055  0.1748
21017SOL    HW167862   7.413   7.025   9.158 -0.6147 -0.4629  1.7680
21017SOL    HW267863   7.293   6.933   9.155  0.2584 -1.6537  2.4424
21018SOL     OW67864  10.423   4.268   9.139  0.6924 -0.0008  0.3488
21018SOL    HW167865  10.380   4.262   9.054  0.8332  1.9486  0.0884
21018SOL    HW267866  10.508   4.226   9.127  1.2551  1.4338 -0.8870
21019SOL     OW67867   2.568   4.977  11.894 -0.3742  0.1198 -0.1034
21019SOL    HW167868   2.569   4.882  11.906  1.3191  0.2455  1.2065
21019SOL    HW267869   2.656   4.998  11.862 -0.2054  1.3820  1.0807
21020SOL     OW67870   6.133   8.268  12.601  0.0960 -0.0329  0.0988
21020SOL    HW167871   6.169   8.357  12.592  1.3937 -0.3980  1.3037
21020SOL    HW267872   6.089   8.269  12.687 -1.8082  0.0430 -0.8218
21021SOL     OW67873   8.433   8.414   8.725  0.1919  0.2180  0.0883
21021SOL    HW167874   8.517   8.370   8.715  0.1072  0.3190 -1.1123
21021SOL    HW267875   8.427   8.474   8.651  0.7608  3.1030  2.1623
21022SOL     OW67876   8.864   4.833   7.805 -0.0524 -0.5071 -0.4633
21022SOL    HW167877   8.794   4.889   7.772 -0.1365 -0.1035  0.3563
21022SOL    HW267878   8.845   4.825   7.899  0.5640 -1.0367 -0.3755
21023SOL     OW67879   6.389   3.956   9.067  0.2024 -0.6166 -0.1301
21023SOL    HW167880   6.313   3.979   9.014  0.3822  0.4556  0.0527
21023SOL    HW267881   6.464   3.971   9.009  0.3897  0.3918  0.3407
21024SOL     OW67882   6.894   5.913   8.147  0.3106  0.3067 -0.0122
21024SOL    HW167883   6.952   5.975   8.104  0.2840  0.5221  0.2599
21024SOL    HW267884   6.806   5.945   8.127  0.2931  0.2162 -0.0795
21025SOL     OW67885   2.877  11.424   6.600  0.1689  0.1478 -0.0228
21025SOL    HW167886   2.932  11.346   6.593  0.7524  0.3948  1.4582
21025SOL    HW267887   2.938  11.497   6.587 -0.0044  0.3962  0.5244
21026SOL     OW67888   7.680   3.900   8.084 -0.0001  0.3866 -0.2799
21026SOL    HW167889   7.765   3.939   8.062  0.7530 -0.3715  1.0936
21026SOL    HW267890   7.661   3.932   8.173  0.0426 -1.3048  0.3885
21027SOL     OW67891  10.944   6.731  12.160 -0.4738  0.5852 -0.1022
21027SOL    HW167892  11.028   6.771  12.136 -0.4235 -0.4718 -1.9371
21027SOL    HW267893  10.882   6.803  12.162 -0.2026  0.9643 -2.3726
21028SOL     OW67894   1.790   2.636   6.246  0.3542  0.3923 -0.3378
21028SOL    HW167895   1.736   2.699   6.200  2.2692  0.2426 -3.0666
21028SOL    HW267896   1.855   2.689   6.292  0.2391  0.4900 -0.2894
21029SOL     OW67897  12.207  10.437  12.374 -0.2522  0.1580 -0.2201
21029SOL    HW167898  12.254  10.354  12.369  1.8750  1.2651  0.0981
21029SOL    HW267899  12.134  10.420  12.434 -1.4285 -2.1181 -2.1539
21030SOL     OW67900   4.378   7.302   4.666 -0.3064 -0.5500 -0.4090
21030SOL    HW167901   4.370   7.367   4.596  0.7809 -0.4793 -0.4883
21030SOL    HW267902   4.470   7.277   4.665 -0.3918 -0.9767  0.6199
21031SOL     OW67903   7.544  10.921   2.768 -0.2625  0.0730  0.6778
21031SOL    HW167904   7.546  11.009   2.730 -0.2421 -0.2030  0.0254
21031SOL    HW267905   7.549  10.935   2.863 -0.0442  0.7624  0.5667
21032SOL     OW67906   7.595   9.111   3.162 -0.2347  0.6120  0.1860
21032SOL    HW167907   7.575   9.191   3.211  0.8567  1.3265 -0.4716
21032SOL    HW267908   7.614   9.045   3.229 -0.5466  1.0641  0.7292
21033SOL     OW67909  12.314   1.349  12.120  0.0444 -0.3731  0.4083
21033SOL    HW167910  12.353   1.262  12.128 -0.0144 -0.3698  0.7524
21033SOL    HW267911  12.381   1.402  12.076 -0.8019 -1.1738 -2.0147
21034SOL     OW67912   6.986   5.427  10.070 -0.4997  0.3265 -0.2045
21034SOL    HW167913   6.925   5.454  10.139 -0.4420 -0.0270 -0.0150
21034SOL    HW267914   6.931   5.380  10.007 -0.2498 -0.9893  0.5212
21035SOL     OW67915   1.909  10.351   0.080 -0.0524  0.3249  0.4562
21035SOL    HW167916   1.875  10.280   0.024 -0.3552  1.4566 -0.8510
21035SOL    HW267917   1.945  10.306   0.156  1.9347 -1.4487 -1.3880
21036SOL     OW67918   1.452   2.511  12.121  0.8638  0.1553 -0.5529
21036SOL    HW167919   1.417   2.589  12.079 -0.7698 -0.7698 -1.0066
21036SOL    HW267920   1.384   2.445  12.108  2.7629 -1.7304 -1.3653
21037SOL     OW67921  10.932   4.376   1.011  0.4585 -0.4320  0.2026
21037SOL    HW167922  10.927   4.427   1.092 -2.2629  0.6948 -0.5394
21037SOL    HW267923  11.022   4.345   1.007  0.8313 -0.0555  3.3565
21038SOL     OW67924   0.201   2.452   4.187  0.1804  0.1908  0.1796
21038SOL    HW167925   0.260   2.401   4.132 -0.8310 -1.3656  0.4904
21038SOL    HW267926   0.116   2.409   4.179 -0.7454  1.8635  0.4331
21039SOL     OW67927  12.098   6.272   5.262  0.6305  0.0068 -0.3131
21039SOL    HW167928  12.167   6.275   5.328 -0.4718  0.8289  0.8478
21039SOL    HW267929  12.134   6.321   5.188  0.7404  1.7875  0.8604
21040SOL     OW67930   3.078   2.358  12.278  0.2404  0.0640  0.7081
21040SOL    HW167931   3.122   2.403  12.351  1.6488  0.6474 -0.4504
21040SOL    HW267932   3.046   2.430  12.222  1.0157 -0.3598 -0.3008
21041SOL     OW67933   3.686   0.913   9.011 -0.1923 -0.3634 -0.3597
21041SOL    HW167934   3.729   0.997   8.991 -1.3236  0.5827  0.9479
21041SOL    HW267935   3.725   0.886   9.094 -0.8575 -0.3777 -0.0467
21042SOL     OW67936  11.796  12.347  10.259  0.3714  0.2266  0.0056
21042SOL    HW167937  11.708  12.318  10.282  1.4503 -1.3796  2.5189
21042SOL    HW267938  11.822  12.291  10.186  0.7236 -2.2308  1.8806
21043SOL     OW67939   0.508   1.195   4.270 -0.5356 -0.5907  0.1396
21043SOL    HW167940   0.474   1.278   4.236  1.6528 -1.0626 -3.8310
21043SOL    HW267941   0.597   1.217   4.299 -1.6105 -0.6755  4.2105
21044SOL     OW67942  11.764  11.074   0.653  0.3537 -0.3763 -0.1269
21044SOL    HW167943  11.853  11.105   0.666 -0.6741  2.5255  0.9251
21044SOL    HW267944  11.746  11.020   0.730  0.3775  1.3174  1.1221
21045SOL     OW67945   3.444  10.729  10.716  0.5959  0.0607  0.1345
21045SOL    HW167946   3.452  10.762  10.806 -1.3941  2.2664 -0.3820
21045SOL    HW267947   3.517  10.768  10.670  1.7542 -1.2538  0.7952
21046SOL     OW67948   9.114   1.850  11.971  0.4683 -0.1101 -0.3531
21046SOL    HW167949   9.098   1.924  11.913  2.5579  0.2437 -0.5659
21046SOL    HW267950   9.186   1.880  12.028  0.1661 -1.3569  0.7252
21047SOL     OW67951   6.821   9.403   0.081 -0.6066  0.4330  0.2401
21047SOL    HW167952   6.813   9.310   0.103 -1.4550  0.2075 -0.9165
21047SOL    HW267953   6.757   9.417   0.011 -1.1497  2.1121  1.0178
21048SOL     OW67954   5.638   5.080  10.568  0.8313  0.0130 -0.2981
21048SOL    HW167955   5.676   5.166  10.588  0.0861  0.9374 -2.5853
21048SOL    HW267956   5.704   5.018  10.600  1.8186  1.4360  0.5789
21049SOL     OW67957  11.117   1.257   8.903 -0.1894 -0.2415 -0.7243
21049SOL    HW167958  11.144   1.231   8.815 -0.2002 -0.6118 -0.6193
21049SOL    HW267959  11.177   1.327   8.927  1.3847 -1.7416 -0.0698
21050SOL     OW67960  10.766   9.721   2.233 -0.2111  0.1449 -0.2898
21050SOL    HW167961  10.852   9.731   2.191 -1.3330  0.6995 -2.6091
21050SOL    HW267962  10.781   9.744   2.324  1.6107  2.6960 -1.1294
21051SOL     OW67963   8.292   2.482   6.786 -0.0341  0.1142 -0.3165
21051SOL    HW167964   8.370   2.513   6.741 -0.4226  0.1975 -0.9498
21051SOL    HW267965   8.241   2.439   6.717 -0.2716 -0.4568  0.2118
21052SOL     OW67966  10.663  12.600  11.348  0.2202 -0.1032  0.0995
21052SOL    HW167967  10.598  12.667  11.328  0.9105  0.4262 -0.3949
21052SOL    HW267968  10.613  12.518  11.348 -0.0097 -0.0781 -3.0287
21053SOL     OW67969   4.097  11.311   9.954  0.4167  0.3237  0.2873
21053SOL    HW167970   4.116  11.336   9.864  1.9334  1.3086  0.8275
21053SOL    HW267971   4.106  11.215   9.955  1.2014  0.3721 -0.4549
21054SOL     OW67972   8.297  11.018   2.567  0.0549  0.1982 -0.0998
21054SOL    HW167973   8.386  10.994   2.593 -0.0195 -1.3567 -1.1335
21054SOL    HW267974   8.242  10.991   2.642  0.2719 -0.5180 -0.1872
21055SOL     OW67975  12.432   3.741   6.004  0.2070 -0.0875  0.1120
21055SOL    HW167976  12.428   3.696   6.088  1.2771 -0.4948 -0.0355
21055SOL    HW267977  12.490   3.816   6.019 -0.4909  0.4940  0.0085
21056SOL     OW67978   5.098   4.195   4.313  0.2031  0.0522 -0.6592
21056SOL    HW167979   5.040   4.211   4.238 -0.4595 -0.0017 -0.1689
21056SOL    HW267980   5.132   4.282   4.336  1.7790 -0.1407 -2.0844
21057SOL     OW67981   5.889   7.753   0.829  0.1797 -0.8532  0.0513
21057SOL    HW167982   5.919   7.780   0.743 -1.1845 -0.3668 -0.2970
21057SOL    HW267983   5.822   7.817   0.853  1.3745 -0.2346  2.0253
21058SOL     OW67984   7.321   3.608   3.308  0.3426 -0.4057 -0.3942
21058SOL    HW167985   7.290   3.648   3.227 -0.4327 -1.0949 -0.4559
21058SOL    HW267986   7.410   3.580   3.289  0.7086  0.7987 -0.5148
21059SOL     OW67987   3.386  10.417   0.121  0.0166 -0.3520 -0.6533
21059SOL    HW167988   3.413  10.442   0.032 -1.2190  0.1741 -0.9114
21059SOL    HW267989   3.363  10.500   0.162  4.8395  0.1172  1.8038
21060SOL     OW67990   7.063   8.771   5.146  0.1704  0.0004 -0.6267
21060SOL    HW167991   7.050   8.793   5.054 -1.4554  1.2203 -0.1389
21060SOL    HW267992   6.993   8.708   5.166 -0.5400  1.0141  0.1734
21061SOL     OW67993   1.931   0.357  12.277 -0.0807 -0.0734 -0.3500
21061SOL    HW167994   1.942   0.327  12.367  0.3155  0.0237 -0.3635
21061SOL    HW267995   1.839   0.343  12.258  0.1739 -1.7335 -0.5237
21062SOL     OW67996   7.650  10.728   3.988 -0.2303  0.0146  0.1740
21062SOL    HW167997   7.625  10.819   3.972  2.5736  0.4475 -2.8536
21062SOL    HW267998   7.683  10.729   4.078 -0.8548  1.8184  0.4387
21063SOL     OW67999   9.843   0.857   3.768  0.0946 -0.7906  0.2178
21063SOL    HW168000   9.853   0.782   3.710 -0.2852 -2.1646  1.8723
21063SOL    HW268001   9.749   0.860   3.787  0.0885  0.1922  0.0830
21064SOL     OW68002   1.810   5.496   4.578  0.3116  0.2356 -0.2230
21064SOL    HW168003   1.891   5.489   4.526  1.2620  2.0889  0.9124
21064SOL    HW268004   1.748   5.538   4.519  0.8254  0.6872 -0.4510
21065SOL     OW68005   0.945   0.339   9.179 -0.2287 -0.3987 -0.0975
21065SOL    HW168006   0.989   0.344   9.264  0.8507 -0.3813 -0.6445
21065SOL    HW268007   0.914   0.428   9.164  1.2739  0.0768 -0.5808
21066SOL     OW68008  10.884   2.796   4.800  0.2953 -0.3533  0.3699
21066SOL    HW168009  10.931   2.851   4.738  0.5842 -0.9579  0.0494
21066SOL    HW268010  10.898   2.839   4.885 -0.7486  0.9130 -0.0560
21067SOL     OW68011   7.535   5.799   2.217 -0.1689  0.1000 -0.9014
21067SOL    HW168012   7.525   5.706   2.236 -1.1696  0.0149 -1.8021
21067SOL    HW268013   7.530   5.805   2.122 -1.1865  1.1893 -0.7948
21068SOL     OW68014   4.679   7.182   0.130  0.1942  0.4922 -0.2343
21068SOL    HW168015   4.723   7.186   0.215 -2.7912  1.9175  1.3695
21068SOL    HW268016   4.600   7.130   0.146 -0.8517  1.4703 -1.9248
21069SOL     OW68017   8.800  11.313   2.748 -1.2138 -0.9711 -0.3366
21069SOL    HW168018   8.831  11.224   2.767  2.7364  0.5799  1.6788
21069SOL    HW268019   8.794  11.316   2.652  2.3306 -2.5010 -0.7876
21070SOL     OW68020   4.437   1.717   0.308 -0.4857 -0.0321  0.0410
21070SOL    HW168021   4.466   1.702   0.218 -0.5668  1.9703 -0.3644
21070SOL    HW268022   4.507   1.770   0.347 -1.7316  1.5120  0.2701
21071SOL     OW68023   4.187   7.657   8.572  0.2140  0.0562 -0.5385
21071SOL    HW168024   4.216   7.736   8.617 -1.2079 -0.0074  0.5395
21071SOL    HW268025   4.214   7.586   8.630  1.2400 -0.2699 -1.3714
21072SOL     OW68026   8.539   4.552   1.414 -0.1118  0.6263 -0.1568
21072SOL    HW168027   8.526   4.557   1.320 -1.2326 -0.1591 -0.0734
21072SOL    HW268028   8.454   4.576   1.451  0.8644  2.9866  0.7438
21073SOL     OW68029   2.627   0.240   8.273  0.4416  0.1672 -0.5998
21073SOL    HW168030   2.618   0.323   8.321  0.9407 -0.3591  0.4344
21073SOL    HW268031   2.721   0.227   8.265  0.3652  0.1265 -1.5473
21074SOL     OW68032  11.824   9.595   4.642  0.8400 -0.0090  0.0849
21074SOL    HW168033  11.798   9.512   4.601  0.6352  0.4408 -0.7160
21074SOL    HW268034  11.889   9.570   4.708  1.4295 -0.7171 -0.7479
21075SOL     OW68035  11.543   2.818   1.028 -0.0080  0.0759  0.0358
21075SOL    HW168036  11.463   2.861   0.997  0.0756  0.1925 -0.0215
21075SOL    HW268037  11.513   2.736   1.066 -0.1435  0.0720 -0.0780
21076SOL     OW68038   6.835   2.608  12.366  0.1878 -0.4078 -0.5031
21076SOL    HW168039   6.838   2.622  12.272 -0.7371 -0.3500 -0.5239
21076SOL    HW268040   6.790   2.525  12.377  0.5077 -0.5383 -0.1134
21077SOL     OW68041   1.065  11.781   5.681  0.4262  0.3734  0.0572
21077SOL    HW168042   1.103  11.789   5.768  0.6213  0.4832 -0.0375
21077SOL    HW268043   1.133  11.739   5.629 -0.2596 -1.1293  0.3334
21078SOL     OW68044  10.045   2.209  11.945 -0.7341 -0.1848  0.3638
21078SOL    HW168045  10.117   2.153  11.915 -1.5476 -0.7547 -0.6112
21078SOL    HW268046  10.072   2.298  11.920  0.5926 -0.0953  1.9768
21079SOL     OW68047  10.593   6.369   6.190  0.2723  0.3556 -0.2342
21079SOL    HW168048  10.572   6.291   6.139  2.1095  0.2326 -0.8446
21079SOL    HW268049  10.559   6.349   6.278 -1.2808 -0.1722 -0.9060
21080SOL     OW68050   9.749   9.771   1.608  0.0115 -0.4042  0.2959
21080SOL    HW168051   9.814   9.741   1.544  1.2537  2.2599  0.1681
21080SOL    HW268052   9.691   9.828   1.558 -0.5964 -0.3657  1.0300
21081SOL     OW68053   7.472   9.528   5.546 -0.1364 -0.2269 -0.5291
21081SOL    HW168054   7.473   9.518   5.641 -1.0163 -0.0686 -0.4934
21081SOL    HW268055   7.440   9.444   5.513  2.2909 -1.1146 -0.8473
21082SOL     OW68056   1.794  11.883   3.364  0.6833 -0.9312 -0.3147
21082SOL    HW168057   1.878  11.927   3.366  0.0566  0.4117  2.7005
21082SOL    HW268058   1.812  11.798   3.325  3.0571 -0.0752 -1.2587
21083SOL     OW68059   3.633  10.796   8.148  0.1511  0.0608 -0.1116
21083SOL    HW168060   3.717  10.800   8.195 -0.4724  2.3366  0.9488
21083SOL    HW268061   3.567  10.799   8.218 -0.8149  0.1477 -1.0131
21084SOL     OW68062   9.999  10.143   2.494  0.2659  0.0645  0.0355
21084SOL    HW168063  10.065  10.212   2.490 -0.2821  0.6288 -3.8992
21084SOL    HW268064   9.930  10.178   2.551  0.6457  2.1945 -0.7244
21085SOL     OW68065   7.341   2.668   8.316  0.3924 -0.1063 -0.0173
21085SOL    HW168066   7.245   2.667   8.311  0.2128  1.1747  1.9376
21085SOL    HW268067   7.363   2.582   8.352 -0.1005 -0.1325  0.2376
21086SOL     OW68068   6.258   5.455   9.259 -0.8307  0.0312 -0.2858
21086SOL    HW168069   6.351   5.445   9.277 -0.5842 -0.7545 -1.8587
21086SOL    HW268070   6.217   5.380   9.302 -0.7754  0.4830  0.5714
21087SOL     OW68071   7.007   0.673   9.272  0.4618 -0.2335  0.3653
21087SOL    HW168072   6.997   0.745   9.209  1.8910 -0.0978  0.2805
21087SOL    HW268073   6.918   0.637   9.280  0.0264  0.5106 -0.8042
21088SOL     OW68074   9.953   5.941   4.486  0.0956 -0.1846 -0.2880
21088SOL    HW168075   9.902   5.893   4.551 -0.2689  0.0067 -0.4342
21088SOL    HW268076   9.991   6.015   4.534  1.6375 -1.2511  0.2286
21089SOL     OW68077   9.476   7.202   4.912  0.0247 -0.2723  0.1222
21089SOL    HW168078   9.521   7.206   4.996  0.3864  0.9087 -0.1038
21089SOL    HW268079   9.516   7.273   4.861 -0.3800 -0.7975 -0.9464
21090SOL     OW68080  11.179   1.946   3.414  0.1956 -0.3356  0.7207
21090SOL    HW168081  11.186   1.878   3.481 -0.4411  0.0889  1.2241
21090SOL    HW268082  11.092   1.933   3.376  0.2067 -0.0150  0.5827
21091SOL     OW68083   2.244  10.960   1.415 -1.0813  0.1172 -0.0089
21091SOL    HW168084   2.211  10.942   1.327  1.9707  1.2919 -1.5236
21091SOL    HW268085   2.202  11.042   1.439 -2.1416 -0.3423 -0.2061
21092SOL     OW68086   2.913   2.110   7.388  0.0935 -0.1638 -0.3450
21092SOL    HW168087   2.982   2.078   7.330  0.9301 -0.5387  0.8253
21092SOL    HW268088   2.854   2.036   7.398 -0.8201  0.3316 -1.8006
21093SOL     OW68089   2.466   0.135   0.557  0.5599  0.3108  0.0685
21093SOL    HW168090   2.484   0.228   0.544  0.9367 -0.0308 -2.2530
21093SOL    HW268091   2.536   0.089   0.511 -0.0172 -1.1196  0.5376
21094SOL     OW68092  11.525   7.293   1.478  0.0197  0.5957  0.3244
21094SOL    HW168093  11.548   7.335   1.395 -2.9142  2.8735  0.5233
21094SOL    HW268094  11.466   7.221   1.453  0.0886  0.5198  0.3795
21095SOL     OW68095   0.799   9.451   1.441  0.0829  0.1137  0.0567
21095SOL    HW168096   0.803   9.526   1.501 -0.6882  0.1344  0.0825
21095SOL    HW268097   0.882   9.405   1.456 -0.6723 -0.6702  2.1588
21096SOL     OW68098   3.500  10.517   9.919 -0.1618  0.1810  0.2924
21096SOL    HW168099   3.501  10.485  10.009  0.9292 -0.8617 -0.0705
21096SOL    HW268100   3.592  10.519   9.893 -0.4971  0.0370 -0.9592
21097SOL     OW68101   1.175   7.189  10.768  0.1216  0.1104 -0.1520
21097SOL    HW168102   1.165   7.094  10.762 -0.8765  0.2403 -0.6713
21097SOL    HW268103   1.105   7.218  10.826 -0.0250  0.6059 -0.5651
21098SOL     OW68104   4.685   7.690   8.954 -0.1099  0.0772  0.1530
21098SOL    HW168105   4.733   7.714   9.033  1.1964 -1.4262 -0.1196
21098SOL    HW268106   4.735   7.728   8.882  0.5828 -1.2624 -0.1174
21099SOL     OW68107   8.845  11.422  10.567 -0.1489  0.1228 -0.3416
21099SOL    HW168108   8.776  11.386  10.511  0.2034  0.6346 -1.1236
21099SOL    HW268109   8.855  11.357  10.636 -1.6887  0.2343  0.0208
21100SOL     OW68110  10.736   0.212   4.195  0.2545 -0.2015 -0.5601
21100SOL    HW168111  10.808   0.200   4.256  0.1915 -1.3192 -0.6965
21100SOL    HW268112  10.693   0.293   4.225  0.2250 -0.7196  0.8685
21101SOL     OW68113   5.478   9.153   6.855 -0.1057 -0.3622  0.3651
21101SOL    HW168114   5.510   9.064   6.840 -0.3390 -0.1808 -1.3721
21101SOL    HW268115   5.417   9.169   6.783  0.0609  1.2608  0.5546
21102SOL     OW68116   7.215   1.665   3.821 -0.2147  0.2910 -0.1822
21102SOL    HW168117   7.287   1.725   3.805 -0.5715  0.7663 -0.0285
21102SOL    HW268118   7.171   1.700   3.898 -0.1795 -0.4014  0.1595
21103SOL     OW68119  11.377  11.965   2.950 -0.2196  0.2285 -0.2929
21103SOL    HW168120  11.383  11.946   2.856  0.9377  0.5180 -0.2946
21103SOL    HW268121  11.467  11.986   2.976 -0.2216 -1.4637  1.2507
21104SOL     OW68122   6.088   0.929   6.851 -0.0271 -0.1361 -0.2275
21104SOL    HW168123   6.017   0.971   6.803 -0.2581 -0.7103 -0.3955
21104SOL    HW268124   6.140   0.885   6.783 -0.1592 -0.6627  0.0062
21105SOL     OW68125  11.727   9.520  10.498  0.0254 -0.1639  0.8829
21105SOL    HW168126  11.729   9.597  10.555  0.3045 -0.6969  1.6198
21105SOL    HW268127  11.638   9.485  10.507  0.0044 -0.1246  0.8252
21106SOL     OW68128   2.963   4.589   6.762 -0.0090 -0.2577  0.1552
21106SOL    HW168129   2.951   4.591   6.857 -0.0237  0.2654  0.1462
21106SOL    HW268130   2.933   4.502   6.736 -0.5321 -0.2016  0.5593
21107SOL     OW68131   4.560   1.490   7.569 -0.0552  0.2353 -0.0482
21107SOL    HW168132   4.639   1.450   7.605 -0.2363 -1.1963 -1.1491
21107SOL    HW268133   4.592   1.564   7.517  0.6199 -0.5687 -0.8025
21108SOL     OW68134   3.133   8.632   1.840 -0.2875 -0.6895  0.0139
21108SOL    HW168135   3.108   8.711   1.888  0.7004 -0.3234 -0.0584
21108SOL    HW268136   3.208   8.658   1.787 -1.3842 -1.0693 -1.8179
21109SOL     OW68137  12.045   4.118  12.629 -0.4736  0.0512  1.0653
21109SOL    HW168138  12.085   4.076  12.553 -0.9932  1.7076 -0.1977
21109SOL    HW268139  12.079   4.070  12.704 -1.0210 -2.5440 -0.2403
21110SOL     OW68140   6.344   9.372   5.414  0.2255 -0.0525  0.4156
21110SOL    HW168141   6.439   9.362   5.417  0.1274 -1.0594  3.5835
21110SOL    HW268142   6.312   9.287   5.385  0.2554  0.0456  0.0898
21111SOL     OW68143   0.724  11.629   1.017 -0.3602 -0.3487  0.6411
21111SOL    HW168144   0.686  11.633   0.929  0.3495  1.1762  0.3649
21111SOL    HW268145   0.649  11.625   1.076 -0.8565 -0.8352 -0.0091
21112SOL     OW68146   4.119  12.069  12.609 -0.0467  0.1379  0.2449
21112SOL    HW168147   4.169  12.062  12.690  0.5531 -1.3936 -0.2139
21112SOL    HW268148   4.161  12.140  12.560  1.1867 -0.5748  0.2234
21113SOL     OW68149   4.985   5.246   7.544  0.0186 -0.5183 -0.1887
21113SOL    HW168150   5.047   5.195   7.491 -1.1998 -1.2033 -1.0020
21113SOL    HW268151   4.901   5.233   7.501 -1.0047 -0.9803  1.8563
21114SOL     OW68152   9.363   8.490   8.948  0.1525 -0.2053 -0.3427
21114SOL    HW168153   9.435   8.436   8.914  0.6655 -0.1985  0.6974
21114SOL    HW268154   9.285   8.454   8.906  0.5744 -1.2781 -0.2411
21115SOL     OW68155  12.350   6.193   1.548  0.2001  0.2097 -0.1311
21115SOL    HW168156  12.345   6.280   1.507 -1.6928  1.0157  1.6218
21115SOL    HW268157  12.438   6.189   1.585  0.8270  0.7446 -1.4930
21116SOL     OW68158   1.044   7.704  10.234 -0.0925 -0.2742  0.1831
21116SOL    HW168159   1.036   7.676  10.142  0.0478  1.6148 -0.4450
21116SOL    HW268160   1.018   7.627  10.285 -1.3367 -0.9977 -1.4510
21117SOL     OW68161   0.088  10.626  12.613 -0.1183  0.3602  0.1989
21117SOL    HW168162   0.067  10.614  12.520  0.4299  1.4441 -0.0871
21117SOL    HW268163   0.048  10.710  12.636 -0.5655 -0.0748  1.0520
21118SOL     OW68164  11.414   3.943  10.429 -0.2038 -0.6095  0.2280
21118SOL    HW168165  11.367   3.965  10.349 -0.7299 -0.4154  0.5866
21118SOL    HW268166  11.488   3.889  10.399  1.0484  1.4683 -0.6710
21119SOL     OW68167   2.751   5.140   5.795  0.1971 -0.4730  0.6000
21119SOL    HW168168   2.680   5.204   5.790 -1.1802 -1.8609  1.5056
21119SOL    HW268169   2.754   5.114   5.887  1.7526 -0.6247  0.5397
21120SOL     OW68170  10.496  11.809   6.936 -0.0111  0.2728  0.3462
21120SOL    HW168171  10.432  11.874   6.964 -0.0684  0.0469  0.7491
21120SOL    HW268172  10.517  11.833   6.846 -0.9308  0.1394  0.0813
21121SOL     OW68173   0.139   4.217   0.325  0.9027 -0.3107  0.5032
21121SOL    HW168174   0.074   4.287   0.316  1.0587 -0.1306  0.7551
21121SOL    HW268175   0.217   4.252   0.283  1.2739  0.0619  1.4748
21122SOL     OW68176   7.749  10.201  11.371  0.2809  0.2159  0.3076
21122SOL    HW168177   7.755  10.112  11.336  0.3261 -0.0373  0.9503
21122SOL    HW268178   7.803  10.200  11.450  0.5699  0.9121  0.1283
21123SOL     OW68179  11.848   9.419   2.964 -0.2366  0.2356 -0.3451
21123SOL    HW168180  11.857   9.335   2.921 -0.4395  1.5747 -3.2664
21123SOL    HW268181  11.769   9.411   3.017  0.5187 -1.7822  0.5677
21124SOL     OW68182  12.076   6.277  10.802  0.4442 -0.3962  0.3411
21124SOL    HW168183  12.139   6.205  10.813 -0.8620 -1.6967 -0.3461
21124SOL    HW268184  12.094   6.310  10.714 -0.1087 -1.0572 -0.0257
21125SOL     OW68185  12.400   3.403   8.234 -0.1426  0.6503  0.0685
21125SOL    HW168186  12.432   3.412   8.144 -1.2726  1.3517 -0.2894
21125SOL    HW268187  12.310   3.438   8.231 -0.6139 -0.3983  1.2154
21126SOL     OW68188  12.423   4.709  10.607 -0.3991 -0.7212  0.3097
21126SOL    HW168189  12.468   4.749  10.533 -1.0758 -0.5944 -0.0381
21126SOL    HW268190  12.331   4.706  10.581 -0.5084 -1.5730  0.7427
21127SOL     OW68191   6.402   8.553   5.000 -0.6440  0.2528 -1.2009
21127SOL    HW168192   6.470   8.607   4.961 -0.3760  1.7806  1.1915
21127SOL    HW268193   6.449   8.489   5.053 -1.0235  0.3744 -0.7032
21128SOL     OW68194   3.824   5.553   8.793  0.3995  0.2449  0.8214
21128SOL    HW168195   3.872   5.471   8.799 -0.0543 -0.1221 -0.2532
21128SOL    HW268196   3.869   5.603   8.725  0.7064  0.9169  1.5050
21129SOL     OW68197   5.681  10.746   3.546 -0.2837  0.5754 -0.4098
21129SOL    HW168198   5.685  10.818   3.608  0.5877 -0.0936  0.3439
21129SOL    HW268199   5.714  10.783   3.464  1.0044  0.8264  0.1931
21130SOL     OW68200  12.023   7.995   0.564 -0.4565 -0.3995  0.0374
21130SOL    HW168201  12.000   7.997   0.657  0.5643 -0.5038  0.3112
21130SOL    HW268202  11.988   8.076   0.528 -1.9714 -0.9521  0.2257
21131SOL     OW68203   1.125   2.449   7.032  0.3901  0.4782 -0.3221
21131SOL    HW168204   1.134   2.394   6.954 -0.3851 -0.7017  0.3798
21131SOL    HW268205   1.054   2.509   7.011  2.3587  2.4529 -1.7477
21132SOL     OW68206   6.949  12.461   2.109 -0.1469 -0.3021  0.1904
21132SOL    HW168207   6.986  12.406   2.041  0.6886  0.1289  0.2875
21132SOL    HW268208   6.990  12.431   2.190 -0.4865 -0.2430  0.3865
21133SOL     OW68209   4.886   6.978   6.033 -0.4507  0.4551  0.1799
21133SOL    HW168210   4.892   7.016   5.946 -0.0984  1.3384  0.5759
21133SOL    HW268211   4.794   6.985   6.056 -0.7048 -0.5888 -0.4622
21134SOL     OW68212   1.500   7.346   0.994 -0.4079  0.5548  0.0181
21134SOL    HW168213   1.432   7.285   0.964 -0.8883  1.2021 -0.2310
21134SOL    HW268214   1.486   7.425   0.942  1.6338  0.1231 -1.2716
21135SOL     OW68215   5.100   8.366   4.630  0.3804 -0.3881  0.1493
21135SOL    HW168216   5.066   8.434   4.688  0.4905  0.8349 -1.1608
21135SOL    HW268217   5.154   8.311   4.687 -0.8781 -0.2620  1.5323
21136SOL     OW68218   3.150   5.799   3.333 -0.4955  0.0156 -0.2109
21136SOL    HW168219   3.126   5.858   3.404  0.3446 -0.4054  0.4420
21136SOL    HW268220   3.243   5.815   3.319 -0.4746 -0.4816 -0.6800
21137SOL     OW68221   4.392   9.241   4.963 -0.0067  0.4601 -0.2424
21137SOL    HW168222   4.376   9.208   5.051 -0.2003 -2.2244 -1.2173
21137SOL    HW268223   4.456   9.181   4.925  0.7319  2.0663 -1.6727
21138SOL     OW68224   1.676   8.626   3.841 -0.2360  0.2019  0.9823
21138SOL    HW168225   1.583   8.604   3.851  0.1098 -1.5317  0.6689
21138SOL    HW268226   1.696   8.605   3.750  0.0557  2.3186  0.5176
21139SOL     OW68227   7.277   3.477   5.396 -0.3803 -0.1974 -0.4923
21139SOL    HW168228   7.359   3.495   5.441  0.1246  0.6801 -1.7012
21139SOL    HW268229   7.292   3.394   5.351 -0.6961 -0.7968  0.4813
21140SOL     OW68230   4.542   8.392   6.751  0.9114 -0.4077 -0.2178
21140SOL    HW168231   4.489   8.313   6.760  1.1001 -0.4605  0.5099
21140SOL    HW268232   4.604   8.371   6.681  0.9872 -0.9164 -0.0035
21141SOL     OW68233   2.082   4.206   3.591 -0.1981 -0.4128 -0.3955
21141SOL    HW168234   2.080   4.272   3.521 -1.0318  0.4390  0.4061
21141SOL    HW268235   2.004   4.153   3.577  0.7035 -1.5609 -1.3075
21142SOL     OW68236   3.826   1.146  10.351 -0.3207 -0.1808  0.0968
21142SOL    HW168237   3.884   1.078  10.317 -0.1457 -0.0639  0.1581
21142SOL    HW268238   3.818   1.209  10.279 -1.7977 -1.0704 -0.5569
21143SOL     OW68239   3.119   7.431   3.779  0.1776  0.3209 -0.9602
21143SOL    HW168240   3.139   7.363   3.714  1.9312  0.1000 -0.2732
21143SOL    HW268241   3.093   7.507   3.728  2.1487  0.3615 -2.0131
21144SOL     OW68242   4.501   9.077   4.609 -0.0400  0.0246 -0.3816
21144SOL    HW168243   4.437   9.051   4.543  0.5388 -0.6792 -0.6784
21144SOL    HW268244   4.585   9.049   4.574  0.3412  0.1564  0.3956
21145SOL     OW68245  10.869  11.357   6.202 -0.4544  0.5000 -0.2592
21145SOL    HW168246  10.851  11.406   6.282  0.2952 -0.4009  0.4993
21145SOL    HW268247  10.918  11.418   6.147  0.0828  0.7677  0.4871
21146SOL     OW68248  12.387   7.099   7.065 -0.4552  0.7441 -0.6526
21146SOL    HW168249  12.469   7.052   7.084  0.6630  2.3890 -1.1935
21146SOL    HW268250  12.406   7.190   7.084 -2.4056  1.0944 -0.1554
21147SOL     OW68251   1.263   9.371   6.337 -1.0583  0.5719  0.1917
21147SOL    HW168252   1.351   9.406   6.346 -0.4785 -0.0950 -2.2709
21147SOL    HW268253   1.260   9.297   6.398  0.0217  0.7190  0.4412
21148SOL     OW68254  11.231  10.195   7.416 -0.3452  0.2441  0.5511
21148SOL    HW168255  11.279  10.226   7.493 -0.9826 -2.0887  1.9927
21148SOL    HW268256  11.300  10.171   7.353  0.3622 -1.0155  1.7539
21149SOL     OW68257  11.489   8.731  11.645  0.2211  0.1642  0.2881
21149SOL    HW168258  11.431   8.806  11.654 -1.3600 -0.8071 -1.1152
21149SOL    HW268259  11.518   8.733  11.554 -0.5227 -1.3528 -0.0169
21150SOL     OW68260   0.467  10.569   6.623 -0.2205  0.0003 -0.6951
21150SOL    HW168261   0.535  10.577   6.690  1.3607  0.2933 -2.2635
21150SOL    HW268262   0.404  10.509   6.661  0.4009  0.4693  1.2178
21151SOL     OW68263   0.367   4.971   1.581 -1.4208  0.7386 -0.1013
21151SOL    HW168264   0.294   4.966   1.519 -1.9458  1.2632  0.4649
21151SOL    HW268265   0.370   4.884   1.621 -0.6692  0.1849 -1.2987
21152SOL     OW68266  11.249  10.509  12.505  0.0633 -0.3504 -0.1485
21152SOL    HW168267  11.181  10.510  12.573 -2.3392 -0.4177 -2.3862
21152SOL    HW268268  11.250  10.419  12.473 -1.5237  0.3766 -2.5660
21153SOL     OW68269   1.962   2.153  12.507  0.0668  0.2316  0.9237
21153SOL    HW168270   1.904   2.114  12.442  0.6775  0.6277  0.1259
21153SOL    HW268271   1.981   2.082  12.568 -0.8218 -0.0431  0.8883
21154SOL     OW68272   4.894   3.699  11.274  0.1966 -0.0240  0.1318
21154SOL    HW168273   4.919   3.614  11.239 -0.7910 -0.2207 -0.1300
21154SOL    HW268274   4.914   3.761  11.204 -1.3405 -0.3609 -0.6563
21155SOL     OW68275  10.488   8.626   7.511  0.4618  0.3151  0.2943
21155SOL    HW168276  10.403   8.594   7.482  0.7352  0.3591 -0.5776
21155SOL    HW268277  10.495   8.596   7.602  0.1807 -1.0497 -0.1085
21156SOL     OW68278   4.446  12.412   8.415 -0.1517  0.0595 -0.2619
21156SOL    HW168279   4.362  12.366   8.423  0.5854 -1.2083  0.5927
21156SOL    HW268280   4.439  12.462   8.334 -1.7333 -0.0077 -0.1975
21157SOL     OW68281   6.324   1.306   4.012  0.3842 -0.2584  0.1136
21157SOL    HW168282   6.402   1.249   4.008  0.3394 -0.2968 -2.5183
21157SOL    HW268283   6.346   1.380   3.955 -1.0029  0.4158  0.4175
21158SOL     OW68284   9.102   3.495   2.686 -0.8525 -0.4165 -0.3641
21158SOL    HW168285   9.007   3.492   2.676 -1.0761 -0.3206  1.4091
21158SOL    HW268286   9.121   3.436   2.759  0.3676  0.2033 -0.1469
21159SOL     OW68287   9.851   7.660   4.395  0.5482 -0.3246 -0.0742
21159SOL    HW168288   9.905   7.722   4.347 -0.6747  1.0808  0.3030
21159SOL    HW268289   9.814   7.603   4.327 -0.3841  1.0205 -0.7500
21160SOL     OW68290   0.239   4.304   4.576 -0.3679  0.5148 -0.1362
21160SOL    HW168291   0.326   4.321   4.611 -0.6344  3.1846 -0.5065
21160SOL    HW268292   0.181   4.312   4.651 -0.4721  0.9814 -0.2615
21161SOL     OW68293   2.557   0.021   3.819 -0.8584 -0.3821  0.1899
21161SOL    HW168294   2.632   0.021   3.878 -0.8027  0.2653  0.1360
21161SOL    HW268295   2.594   0.007   3.732 -0.4940  2.0748 -0.1356
21162SOL     OW68296  11.826   8.000  11.354  0.0134 -0.2367  0.1941
21162SOL    HW168297  11.887   7.936  11.390 -1.3708 -1.3585  0.6015
21162SOL    HW268298  11.837   7.992  11.259  0.9450  0.0475  0.2626
21163SOL     OW68299   2.804   7.380   4.120 -0.2050 -0.1219  0.4623
21163SOL    HW168300   2.801   7.399   4.214  0.7669 -0.5411  0.5940
21163SOL    HW268301   2.713   7.385   4.092 -0.6132 -0.7129  1.5802
21164SOL     OW68302   0.721   8.371   7.544  0.0378  0.0486 -0.2058
21164SOL    HW168303   0.627   8.356   7.554 -0.1815  1.7445  0.5895
21164SOL    HW268304   0.752   8.392   7.632  1.1446 -0.3044 -0.4868
21165SOL     OW68305  10.021   3.451   1.270  0.1806 -0.5230 -0.1389
21165SOL    HW168306  10.006   3.534   1.226  0.8772 -1.1551 -1.6528
21165SOL    HW268307   9.942   3.399   1.252 -1.3102  0.5208  2.7485
21166SOL     OW68308   6.824   3.879   8.334  0.0016 -0.0595  0.1860
21166SOL    HW168309   6.809   3.789   8.305 -2.8500 -0.0793  1.3650
21166SOL    HW268310   6.837   3.872   8.428 -2.5242  0.8401  0.6903
21167SOL     OW68311   0.306   7.707  10.051 -0.0366  0.7487  0.0328
21167SOL    HW168312   0.249   7.683   9.977 -1.5396  2.1098  0.6807
21167SOL    HW268313   0.350   7.626  10.075 -0.7043 -0.0635 -1.3692
21168SOL     OW68314   9.674   4.497   6.630 -0.2379 -0.4108 -0.2995
21168SOL    HW168315   9.650   4.557   6.700 -0.9786 -1.0206 -0.0220
21168SOL    HW268316   9.767   4.514   6.614 -0.0250 -0.3633  0.9266
21169SOL     OW68317  11.257   3.384   6.260 -0.1283  0.4080  0.3762
21169SOL    HW168318  11.350   3.389   6.285  0.1536  0.6429 -0.6586
21169SOL    HW268319  11.233   3.293   6.274  0.4725  0.1765 -0.0638
21170SOL     OW68320   8.331   0.783  10.933 -0.0394  0.2078 -0.1058
21170SOL    HW168321   8.246   0.821  10.910 -0.8505 -1.9442 -1.0380
21170SOL    HW268322   8.321   0.690  10.911  1.7592 -0.5778  2.0223
21171SOL     OW68323  11.216   5.501   0.168  0.1757  0.4234  0.0370
21171SOL    HW168324  11.132   5.457   0.170 -0.3908  1.4659 -0.0737
21171SOL    HW268325  11.279   5.433   0.144 -0.7112 -0.2370 -0.4512
21172SOL     OW68326   4.962   5.509   6.989  0.2046 -0.2723 -0.2879
21172SOL    HW168327   4.952   5.594   7.032 -2.3046 -0.6924  0.1232
21172SOL    HW268328   5.047   5.514   6.947  0.7015  1.9542  0.7921
21173SOL     OW68329   9.113   4.245   4.628 -0.2796 -0.2697 -0.0892
21173SOL    HW168330   9.156   4.161   4.639  1.7873  0.7365 -0.0066
21173SOL    HW268331   9.059   4.255   4.706  1.6943 -0.2874  1.3391
21174SOL     OW68332   2.353   9.746   4.791 -1.0635 -0.0376 -0.0247
21174SOL    HW168333   2.379   9.827   4.747  0.1023  0.0771  0.8336
21174SOL    HW268334   2.264   9.730   4.760 -0.2146 -0.1552 -2.6538
21175SOL     OW68335   5.729   7.386   9.518 -0.5944  0.2340  0.0978
21175SOL    HW168336   5.708   7.441   9.593 -1.9656 -1.1327  0.7657
21175SOL    HW268337   5.728   7.297   9.552  1.6621 -0.2607 -0.9429
21176SOL     OW68338   7.600   9.002   0.656  0.0859 -0.0434 -0.3393
21176SOL    HW168339   7.633   8.924   0.611  0.5723  1.0845 -2.0413
21176SOL    HW268340   7.663   9.016   0.726 -0.5574 -1.7179  0.6316
21177SOL     OW68341   8.372  12.333   2.697  0.5124  1.1857 -0.0189
21177SOL    HW168342   8.280  12.303   2.695  0.8591 -0.9768  4.4298
21177SOL    HW268343   8.416  12.277   2.633 -1.0662  1.9324 -1.8902
21178SOL     OW68344  11.459   8.377   8.956  0.2099 -0.3993  0.0332
21178SOL    HW168345  11.400   8.414   8.890  1.3868 -1.9636 -2.0478
21178SOL    HW268346  11.545   8.378   8.913  1.3678  0.0787  2.2484
21179SOL     OW68347   9.345  11.558   1.266 -0.0281  0.3301  0.1560
21179SOL    HW168348   9.405  11.629   1.243 -1.3849  2.1502  1.7794
21179SOL    HW268349   9.398  11.495   1.313  1.3522 -0.1206 -1.8815
21180SOL     OW68350  12.026   6.522  10.947 -0.5872  0.1125 -0.3713
21180SOL    HW168351  12.114   6.558  10.949 -0.5431  0.2123 -2.2717
21180SOL    HW268352  12.038   6.430  10.922 -0.9540 -0.1954  0.5547
21181SOL     OW68353   5.177   3.533  12.269 -0.6168  0.2036  0.0922
21181SOL    HW168354   5.192   3.500  12.180  0.7487  0.1418  0.3198
21181SOL    HW268355   5.087   3.566  12.267 -1.1839 -1.2847 -0.8395
21182SOL     OW68356   4.438   8.183   3.228 -0.4417  0.3331  0.1676
21182SOL    HW168357   4.445   8.274   3.199 -0.3431  0.7235  1.3666
21182SOL    HW268358   4.411   8.189   3.319  1.0899 -0.8033  0.7327
21183SOL     OW68359   1.490   9.697   0.058  0.0375 -0.0568 -0.0878
21183SOL    HW168360   1.539   9.654   0.128  1.9669  0.7638 -0.8643
21183SOL    HW268361   1.398   9.684   0.082  0.6146 -0.6168  2.0729
21184SOL     OW68362   3.003   2.852   2.761 -0.3741 -0.4685  0.1454
21184SOL    HW168363   2.965   2.843   2.848 -0.0269  1.3256  0.5072
21184SOL    HW268364   2.999   2.945   2.741  2.0960 -0.4448 -0.5752
21185SOL     OW68365   3.699   7.937   3.621  0.2596  0.3653 -0.2981
21185SOL    HW168366   3.772   7.912   3.564  1.6499  2.7673  0.2615
21185SOL    HW268367   3.741   7.989   3.690 -1.8547  0.7638  0.7536
21186SOL     OW68368   6.870   7.660   2.655  0.6088  0.1364  0.4487
21186SOL    HW168369   6.789   7.654   2.605 -0.1614  0.4181  1.6262
21186SOL    HW268370   6.869   7.748   2.692  1.5982  0.2429  0.2515
21187SOL     OW68371   1.978   3.602  12.443  0.2767  0.2247 -0.0997
21187SOL    HW168372   1.976   3.691  12.408 -1.9735  0.1125 -0.3894
21187SOL    HW268373   2.065   3.570  12.422  0.5629  1.7750 -1.4775
21188SOL     OW68374   7.268   6.653   0.015 -0.8061  0.2853  0.3220
21188SOL    HW168375   7.173   6.653   0.029 -1.0933  2.1459 -1.1022
21188SOL    HW268376   7.289   6.745  -0.004  0.8312 -0.4582 -1.9615
21189SOL     OW68377   3.942   0.046  10.764 -0.0167  0.3030 -0.2704
21189SOL    HW168378   4.002   0.107  10.719 -2.4584  1.8434 -1.6606
21189SOL    HW268379   3.882   0.103  10.811 -3.9811 -0.6499 -3.5916
21190SOL     OW68380   0.627   3.455   3.447 -0.5454  0.1341  0.8200
21190SOL    HW168381   0.644   3.396   3.521 -0.3710 -0.3480  0.4036
21190SOL    HW268382   0.673   3.415   3.373 -0.8756  0.5056  0.4037
21191SOL     OW68383   1.443   7.913  10.337 -0.2822  0.0316 -0.0924
21191SOL    HW168384   1.361   7.899  10.290  0.7161  1.3034 -2.4041
21191SOL    HW268385   1.463   7.828  10.376 -2.4437 -0.4103  0.1729
21192SOL     OW68386  10.564   8.157   5.935 -0.2422 -0.0802  0.4833
21192SOL    HW168387  10.613   8.182   6.014 -0.6046 -1.2990  1.1267
21192SOL    HW268388  10.572   8.062   5.931  2.8536  0.1201 -3.0300
21193SOL     OW68389  11.441   2.485   1.008 -0.1581 -0.5439  0.3656
21193SOL    HW168390  11.413   2.528   1.089 -0.3205 -0.0063  0.0316
21193SOL    HW268391  11.530   2.457   1.025 -0.9003 -2.3881  1.5038
21194SOL     OW68392   6.926   9.688   5.655  0.0568  0.5508 -0.0427
21194SOL    HW168393   6.987   9.722   5.589  1.7128 -0.2550  1.0198
21194SOL    HW268394   6.961   9.603   5.680 -2.0866 -0.4163 -0.1033
21195SOL     OW68395   3.439   7.147   9.653 -0.1129  0.1310 -0.3137
21195SOL    HW168396   3.481   7.131   9.569  2.3671  0.1166  0.8380
21195SOL    HW268397   3.395   7.232   9.642  2.5968  1.5825 -0.8442
21196SOL     OW68398   7.326   0.438   6.403  0.4606  0.1948 -0.2390
21196SOL    HW168399   7.236   0.454   6.377  0.3261 -0.2225 -0.0251
21196SOL    HW268400   7.370   0.413   6.322 -0.0374 -1.4568 -0.0266
21197SOL     OW68401   2.352   1.832   8.116 -0.1173 -0.2469  0.1967
21197SOL    HW168402   2.313   1.913   8.148  2.6099  0.7641  1.2891
21197SOL    HW268403   2.310   1.763   8.168 -1.5418  0.5567  0.1727
21198SOL     OW68404   3.519  10.813   9.995  0.4371 -0.7721 -0.6405
21198SOL    HW168405   3.525  10.720   9.973  0.8181 -0.8704 -0.1487
21198SOL    HW268406   3.446  10.846   9.943  0.2711 -1.3563 -0.7801
21199SOL     OW68407  12.202   7.794   7.826 -0.3847  0.6628  0.5317
21199SOL    HW168408  12.283   7.784   7.776 -0.8837  0.6842 -0.3027
21199SOL    HW268409  12.230   7.819   7.914  0.6991 -2.3671  1.1548
21200SOL     OW68410   6.165   0.881  12.045 -0.4869  0.3795 -0.6294
21200SOL    HW168411   6.238   0.819  12.055 -0.3637  0.6934  0.6818
21200SOL    HW268412   6.203   0.965  12.069 -1.1511  0.6357 -0.4742
21201SOL     OW68413   9.149   0.852  12.539  0.0857  0.2465 -0.0114
21201SOL    HW168414   9.122   0.818  12.453  1.1768  1.3863 -0.8472
21201SOL    HW268415   9.105   0.937  12.546  1.3097  0.9136 -0.2073
21202SOL     OW68416   3.853   9.628  11.330 -0.9244  0.0354 -0.0950
21202SOL    HW168417   3.874   9.719  11.307  1.8968 -0.7406 -0.9165
21202SOL    HW268418   3.819   9.590  11.249  1.0405 -0.4617 -0.7340
21203SOL     OW68419  10.251  11.189   4.816  0.1412 -0.2190  0.2578
21203SOL    HW168420  10.231  11.170   4.724  0.5125  1.9291 -0.3076
21203SOL    HW268421  10.273  11.103   4.853  0.8661 -1.0280 -1.8764
21204SOL     OW68422   2.144   9.502   7.654 -0.0760  0.2060 -0.2102
21204SOL    HW168423   2.057   9.531   7.629 -0.4100  1.0088  1.7208
21204SOL    HW268424   2.203   9.569   7.619 -0.3878  0.5794 -0.0208
21205SOL     OW68425   0.082   8.324   3.390  0.5299  0.2073  0.1287
21205SOL    HW168426   0.152   8.378   3.354  0.8196  0.1236  0.5505
21205SOL    HW268427   0.096   8.237   3.352  0.6548  0.1912  0.2097
21206SOL     OW68428   8.186   4.388   5.137 -0.0590 -0.2006 -0.1135
21206SOL    HW168429   8.167   4.449   5.066 -0.5221  1.5459  1.4283
21206SOL    HW268430   8.281   4.374   5.132  0.2060  1.3940  0.0423
21207SOL     OW68431   8.758   8.587   8.635 -0.0482  0.0172 -0.6346
21207SOL    HW168432   8.765   8.497   8.604 -0.1669  0.1113 -0.9464
21207SOL    HW268433   8.759   8.640   8.555 -0.0025  0.2923 -0.4563
21208SOL     OW68434   3.308   5.565   7.275  0.2424 -0.6418  0.0862
21208SOL    HW168435   3.369   5.544   7.205 -0.2229 -0.6885 -0.3122
21208SOL    HW268436   3.358   5.554   7.355  0.7484 -0.6983 -0.2357
21209SOL     OW68437  10.584  10.608  11.291 -0.2526 -0.2350 -0.1287
21209SOL    HW168438  10.675  10.606  11.263 -0.2496  0.6282 -0.2009
21209SOL    HW268439  10.534  10.591  11.211 -0.2092  1.2214 -0.4927
21210SOL     OW68440  11.811   4.052   4.994 -0.5027 -0.0148  0.6132
21210SOL    HW168441  11.806   3.958   5.010  0.7196 -0.2647 -0.3147
21210SOL    HW268442  11.881   4.062   4.930 -0.4729  1.5509  0.8384
21211SOL     OW68443   3.779   9.951   6.644 -0.9409 -0.2831 -0.2011
21211SOL    HW168444   3.873   9.931   6.644 -0.6322  0.9631 -1.8127
21211SOL    HW268445   3.749   9.922   6.731  0.7851 -1.2761  0.1282
21212SOL     OW68446   5.015   9.589   7.082  0.8416  0.3517 -0.1032
21212SOL    HW168447   4.987   9.544   7.002  0.0836  0.6127  0.0098
21212SOL    HW268448   5.105   9.557   7.097  0.2685 -1.2741  0.0821
21213SOL     OW68449   2.802   8.131  11.056 -0.3479 -0.1322 -0.1433
21213SOL    HW168450   2.854   8.173  11.125 -1.7655 -0.1008  0.9658
21213SOL    HW268451   2.837   8.043  11.049 -0.6885 -0.4037  1.2300
21214SOL     OW68452   9.979   3.273   8.424  0.1831 -0.1154  0.3426
21214SOL    HW168453   9.925   3.257   8.501  0.3739 -0.0955  0.4809
21214SOL    HW268454   9.921   3.320   8.363 -0.5149 -1.6625 -0.2390
21215SOL     OW68455   6.743   7.805   8.728  0.1510  0.4604 -0.1637
21215SOL    HW168456   6.688   7.759   8.791  2.2350 -0.3692  1.1539
21215SOL    HW268457   6.767   7.739   8.663  0.3080  0.5770 -0.2268
21216SOL     OW68458  10.618   3.942   1.936 -0.0283 -0.1209  0.5305
21216SOL    HW168459  10.577   3.882   1.874  2.8104  0.0741 -1.7648
21216SOL    HW268460  10.579   4.027   1.917  1.0384  0.0079 -1.3920
21217SOL     OW68461   4.538  11.041   0.061  0.6351  0.0581  0.3189
21217SOL    HW168462   4.588  10.973   0.016  1.4715 -0.2930  1.7218
21217SOL    HW268463   4.541  11.116   0.002  0.7677 -0.7254 -0.6924
21218SOL     OW68464   6.282   3.336  12.533 -0.3922  0.7380 -0.2850
21218SOL    HW168465   6.187   3.337  12.525 -0.4221 -0.8170 -0.4628
21218SOL    HW268466   6.300   3.372  12.619 -1.2079  0.0802  0.1711
21219SOL     OW68467  11.132   1.177   6.274 -0.0750 -0.5359  0.4085
21219SOL    HW168468  11.106   1.267   6.254  1.4383 -0.0739  0.4199
21219SOL    HW268469  11.194   1.154   6.204  1.3242 -0.7276  1.6652
21220SOL     OW68470   1.178   0.202   2.221 -0.1570 -0.0307  0.1098
21220SOL    HW168471   1.239   0.275   2.214 -0.5603  0.3351  0.3544
21220SOL    HW268472   1.226   0.134   2.269  1.6579 -1.5130 -3.4180
21221SOL     OW68473   3.033   3.473   8.506 -0.1698  0.3957 -0.7377
21221SOL    HW168474   2.944   3.443   8.520 -0.2565  1.3433  0.9361
21221SOL    HW268475   3.064   3.500   8.592  1.8692 -0.2310 -1.2061
21222SOL     OW68476   4.213   4.467   3.382  1.2581  0.2852  0.2299
21222SOL    HW168477   4.249   4.555   3.381 -0.3511  0.9862 -0.0575
21222SOL    HW268478   4.118   4.480   3.371  0.9789 -1.4693  0.2601
21223SOL     OW68479   0.358   7.966  12.506 -0.3236  0.2026 -0.4455
21223SOL    HW168480   0.312   7.954  12.423 -2.8127 -1.4663  1.0571
21223SOL    HW268481   0.309   7.914  12.569  2.4175  0.0633  1.8014
21224SOL     OW68482   4.001   9.012   3.526 -0.4467  0.0699 -0.1343
21224SOL    HW168483   3.949   8.948   3.574 -0.9871 -0.9492 -1.9797
21224SOL    HW268484   4.069   8.960   3.482  0.9729  1.1539  0.6909
21225SOL     OW68485  11.058   9.180   2.038  0.6628  0.2712 -0.1781
21225SOL    HW168486  11.083   9.272   2.031 -0.9870  0.7794  0.1877
21225SOL    HW268487  11.065   9.160   2.131  0.8815  0.0631 -0.2389
21226SOL     OW68488   2.787   4.284   2.494  0.4741 -0.2689  0.4033
21226SOL    HW168489   2.823   4.202   2.527  0.3193 -0.2300  0.6725
21226SOL    HW268490   2.837   4.302   2.415  0.7018 -0.4763  0.4986
21227SOL     OW68491   1.647  11.866   7.423  0.0960 -0.7803 -0.4521
21227SOL    HW168492   1.552  11.875   7.431  0.0807 -0.3518 -1.0817
21227SOL    HW268493   1.677  11.853   7.513 -0.5898 -1.2730 -0.2828
21228SOL     OW68494   9.560   8.819   5.382  0.4548 -0.6661 -0.2795
21228SOL    HW168495   9.588   8.796   5.471  1.3436  0.1909 -0.3261
21228SOL    HW268496   9.493   8.887   5.396  0.4189 -0.7050 -0.2599
21229SOL     OW68497  11.929  10.345  12.430  0.4881  0.5814  0.6451
21229SOL    HW168498  11.972  10.269  12.469 -1.7323 -1.0650  0.1163
21229SOL    HW268499  11.901  10.315  12.343 -1.6685  1.4791  0.9525
21230SOL     OW68500  11.644   1.388   1.493 -0.2042  0.4531 -0.7149
21230SOL    HW168501  11.551   1.384   1.475 -0.0006 -3.1880 -1.6574
21230SOL    HW268502  11.668   1.299   1.517  2.6516  1.7234  1.8625
21231SOL     OW68503   1.972  12.174   9.586  0.1568 -0.2304 -0.0616
21231SOL    HW168504   2.050  12.120   9.575  1.0228  0.2159  2.9336
21231SOL    HW268505   2.006  12.259   9.616 -1.4269 -0.6396  3.3861
21232SOL     OW68506   8.644  11.993   2.184  0.7333  0.3268 -0.2010
21232SOL    HW168507   8.602  11.946   2.112  0.9880  0.7743 -0.6460
21232SOL    HW268508   8.587  11.978   2.259  0.7601 -0.6161 -0.3589
21233SOL     OW68509   1.552   0.629   9.266 -0.4082  0.6345  0.0812
21233SOL    HW168510   1.577   0.636   9.175  0.1685 -0.3782  0.1518
21233SOL    HW268511   1.531   0.536   9.279  2.5459  0.0676  1.7138
21234SOL     OW68512   0.670   1.551   6.841  0.0121  0.0314  0.4135
21234SOL    HW168513   0.742   1.542   6.779  1.5382  0.9013  1.9316
21234SOL    HW268514   0.613   1.617   6.802  0.8188  0.4048 -0.1763
21235SOL     OW68515   7.249   4.846   3.197 -0.2067  0.3846  0.2673
21235SOL    HW168516   7.313   4.776   3.181  1.9194  2.0541  0.9191
21235SOL    HW268517   7.230   4.882   3.110  0.0211  0.0867  0.0931
21236SOL     OW68518   6.411  10.346  12.300 -0.5435  0.5124 -0.6378
21236SOL    HW168519   6.388  10.401  12.225 -2.6799 -0.1872 -0.5409
21236SOL    HW268520   6.350  10.372  12.369 -0.8015 -1.1311 -0.2073
21237SOL     OW68521   7.516   8.854   7.902 -0.2121  0.5292 -0.0659
21237SOL    HW168522   7.542   8.792   7.970 -1.6210 -0.7957 -0.6677
21237SOL    HW268523   7.526   8.940   7.943 -1.2506 -0.2290  1.9363
21238SOL     OW68524   8.202   1.921  11.217 -0.1472 -0.6181 -0.4541
21238SOL    HW168525   8.152   2.001  11.206 -0.6466 -0.8295  0.2366
21238SOL    HW268526   8.140   1.858  11.253 -0.2087 -1.8232 -2.5354
21239SOL     OW68527   9.018   6.796   5.035 -0.2535  0.0097 -0.0486
21239SOL    HW168528   8.985   6.741   4.963 -0.7995  0.0084  0.1939
21239SOL    HW268529   8.941   6.809   5.091  0.1604  0.0357  0.5164
21240SOL     OW68530  11.746  10.132   2.631 -0.1062 -0.1430  0.6490
21240SOL    HW168531  11.804  10.106   2.560 -0.6247 -0.7488  0.4367
21240SOL    HW268532  11.803  10.139   2.708 -0.0870 -3.3526  1.0737
21241SOL     OW68533  12.108   8.731   6.681  0.2004  0.1182  0.7171
21241SOL    HW168534  12.019   8.724   6.647  0.6403  0.8895 -0.6421
21241SOL    HW268535  12.165   8.726   6.604  1.2736  0.8297  1.4249
21242SOL     OW68536   7.595   7.931   0.265  0.0766  0.4500  0.3126
21242SOL    HW168537   7.535   7.981   0.320 -0.3631  1.2872 -0.8758
21242SOL    HW268538   7.677   7.981   0.267  0.2826  0.0941  0.7780
21243SOL     OW68539   2.191   7.693   8.649 -0.2187  0.2261 -0.0229
21243SOL    HW168540   2.254   7.632   8.689 -0.4540 -0.4913 -0.7250
21243SOL    HW268541   2.218   7.779   8.682  0.5040 -0.1794  0.4943
21244SOL     OW68542   7.176  10.999   1.114 -0.5586 -0.2608  0.4623
21244SOL    HW168543   7.116  11.028   1.045  2.0101  1.5809 -1.1686
21244SOL    HW268544   7.195  11.077   1.165  2.1381 -0.1873 -0.5035
21245SOL     OW68545   6.013  12.454   7.457  0.2321  0.3561  0.4373
21245SOL    HW168546   6.082  12.515   7.430 -0.7370  0.9144 -0.8818
21245SOL    HW268547   5.982  12.489   7.540 -0.1093  1.5172 -0.1619
21246SOL     OW68548  10.603   9.444   6.777  0.1031 -0.2749 -0.0031
21246SOL    HW168549  10.676   9.422   6.719 -0.3409 -0.3500 -0.5438
21246SOL    HW268550  10.526   9.410   6.732 -0.3730  0.6188  0.1008
21247SOL     OW68551  11.732   0.881   6.058 -0.3492  0.5441  0.1954
21247SOL    HW168552  11.767   0.848   5.975 -1.8537 -0.9314  0.1099
21247SOL    HW268553  11.660   0.939   6.034 -1.8040 -1.0972  0.4611
21248SOL     OW68554   0.057   5.555   0.246  0.7528 -0.0591 -0.7566
21248SOL    HW168555   0.008   5.634   0.270 -2.0195 -1.6778 -0.6932
21248SOL    HW268556   0.047   5.549   0.151  1.6601  0.0594 -0.8710
21249SOL     OW68557   1.690   8.917   4.159  0.4378  0.3231 -0.6430
21249SOL    HW168558   1.764   8.864   4.128  1.8832  0.0492  2.8144
21249SOL    HW268559   1.626   8.853   4.189  1.1397  0.4472  1.2573
21250SOL     OW68560   6.154  10.656   8.298 -0.2511 -0.7308 -0.4989
21250SOL    HW168561   6.083  10.706   8.339  1.2721  0.1138  1.2466
21250SOL    HW268562   6.158  10.574   8.349  0.3554 -0.5406 -0.2343
21251SOL     OW68563   8.799   3.351   4.997 -0.0775 -1.0114  0.1405
21251SOL    HW168564   8.753   3.429   5.028 -0.0148 -1.5789  1.7223
21251SOL    HW268565   8.730   3.291   4.969 -0.1144 -0.2736 -1.4537
21252SOL     OW68566   2.941   8.784   7.909 -0.2747 -0.0401 -0.5919
21252SOL    HW168567   2.863   8.806   7.961 -1.0073  1.5296 -2.2575
21252SOL    HW268568   2.907   8.749   7.827  0.8184 -0.2366 -0.9828
21253SOL     OW68569  10.025   4.213   6.753  0.5527 -0.8228  0.2069
21253SOL    HW168570   9.933   4.240   6.752  0.2972 -1.6286  0.9736
21253SOL    HW268571  10.023   4.118   6.745  1.3108 -0.8719  0.4486
21254SOL     OW68572  10.725   3.765   4.994  0.3389 -0.1987  0.7476
21254SOL    HW168573  10.801   3.784   5.049  0.8354  0.9882 -0.3157
21254SOL    HW268574  10.662   3.834   5.014 -0.4751 -1.1293  1.5645
21255SOL     OW68575   1.885   9.818  11.439 -0.6668  0.3081  0.2972
21255SOL    HW168576   1.844   9.869  11.368  2.1662  0.8290 -1.1090
21255SOL    HW268577   1.914   9.737  11.396  0.3344  0.2533  1.0552
21256SOL     OW68578  10.687  12.417   4.069 -1.0040  0.0400  0.3548
21256SOL    HW168579  10.639  12.499   4.063 -2.5796 -0.7222  1.7230
21256SOL    HW268580  10.646  12.370   4.142  0.3881 -1.6054  0.1466
21257SOL     OW68581   2.066   8.111   8.928  0.2239  0.1920 -0.1456
21257SOL    HW168582   2.048   8.157   9.010  1.2313  1.3482 -0.5421
21257SOL    HW268583   2.012   8.032   8.933  0.7995 -0.1483  1.9517
21258SOL     OW68584  11.779   4.877   4.649  0.5767 -0.9126  0.2934
21258SOL    HW168585  11.861   4.836   4.675  0.0856 -1.8734  0.3633
21258SOL    HW268586  11.724   4.874   4.727  0.8839  0.8923  0.6437
21259SOL     OW68587  11.355   5.194   5.243  0.6315 -0.2704 -0.1288
21259SOL    HW168588  11.316   5.106   5.239  0.1895 -0.1849  1.5310
21259SOL    HW268589  11.406   5.194   5.324  0.1471  1.1824  0.2062
21260SOL     OW68590   6.011   9.486   8.514 -0.0621  0.1979  0.0448
21260SOL    HW168591   5.940   9.495   8.450 -0.9452  1.2819  1.1394
21260SOL    HW268592   5.969   9.500   8.599  1.5833  1.6919  0.6768
21261SOL     OW68593   6.499   8.997   4.248  0.4767 -0.1224  0.2509
21261SOL    HW168594   6.565   8.942   4.207 -0.6153  0.1888 -2.0727
21261SOL    HW268595   6.416   8.962   4.216 -0.3412  1.3145  0.7369
21262SOL     OW68596   5.421   5.705   9.966 -0.4879  0.1444  0.2480
21262SOL    HW168597   5.338   5.745   9.988 -1.0627 -1.1233  0.4744
21262SOL    HW268598   5.473   5.710  10.046 -0.0023  1.6677 -0.1170
21263SOL     OW68599   4.557   4.655   3.465 -0.2137 -0.0130  0.5639
21263SOL    HW168600   4.632   4.711   3.445 -0.8125  0.9395  0.9521
21263SOL    HW268601   4.568   4.579   3.407 -0.4325  1.3908 -1.4160
21264SOL     OW68602  12.497   9.701   0.841 -0.1655  0.3970 -0.2351
21264SOL    HW168603  12.539   9.690   0.755 -1.6233 -2.0452 -0.7125
21264SOL    HW268604  12.545   9.774   0.881  1.8645  0.3331 -2.3053
21265SOL     OW68605   4.078  12.273  10.910  0.4892 -0.3525 -0.4094
21265SOL    HW168606   4.041  12.341  10.965  3.1105  0.8939 -0.0247
21265SOL    HW268607   4.092  12.315  10.825  0.1951 -1.0570 -0.8194
21266SOL     OW68608  12.129  12.381   6.856 -0.1797 -0.9641 -0.1894
21266SOL    HW168609  12.036  12.362   6.854 -0.3532 -0.1184 -0.2414
21266SOL    HW268610  12.141  12.437   6.933  0.3798 -1.5644  0.1698
21267SOL     OW68611   4.806   5.941   7.422 -0.2853  0.2176 -0.3491
21267SOL    HW168612   4.734   5.936   7.484  0.5302 -0.7425  0.5855
21267SOL    HW268613   4.783   5.878   7.354 -0.4033  0.0030 -0.1167
21268SOL     OW68614   0.966   5.496   4.211  0.0821 -0.1247  0.2351
21268SOL    HW168615   0.923   5.457   4.287  0.5152  0.5671  0.8504
21268SOL    HW268616   0.995   5.582   4.241 -0.2997  0.4243 -0.9098
21269SOL     OW68617   8.091  11.421   3.223  0.3032 -0.2498  0.3504
21269SOL    HW168618   8.168  11.397   3.172  0.8235  1.3200  0.3550
21269SOL    HW268619   8.019  11.421   3.159  0.9981  1.9849 -0.5202
21270SOL     OW68620   9.276   2.980   5.586 -0.2817  0.4389 -0.1036
21270SOL    HW168621   9.357   2.940   5.556 -0.8836 -2.3325  1.6889
21270SOL    HW268622   9.239   3.020   5.507  1.7897  0.0190 -1.3664
21271SOL     OW68623   0.265   0.573   9.017  0.2050 -0.2219 -0.4337
21271SOL    HW168624   0.170   0.573   9.008  0.3730  0.8681 -2.9736
21271SOL    HW268625   0.294   0.496   8.967  0.6751 -0.4754  0.2164
21272SOL     OW68626   9.643   5.263   9.687 -0.0892 -0.2335 -0.4941
21272SOL    HW168627   9.641   5.330   9.755  0.9151 -1.2879  0.6213
21272SOL    HW268628   9.699   5.301   9.618 -0.9047  0.7344 -0.6424
21273SOL     OW68629  11.445  11.825   5.510 -0.5394  0.2876 -0.6525
21273SOL    HW168630  11.405  11.836   5.424  1.4871  1.9558 -1.4604
21273SOL    HW268631  11.455  11.914   5.543  1.2400 -0.1460  0.0850
21274SOL     OW68632   9.876   2.312   8.113  0.0595  0.4695 -0.1220
21274SOL    HW168633   9.863   2.353   8.027  0.6698 -0.0468 -0.4692
21274SOL    HW268634   9.828   2.230   8.108  0.1341  0.4167  0.0115
21275SOL     OW68635   9.247   0.359   0.029 -0.0274 -0.4326  0.1775
21275SOL    HW168636   9.218   0.450   0.038  0.3347 -0.3644  0.7221
21275SOL    HW268637   9.218   0.332  -0.058 -0.3513  0.1279  0.1117
21276SOL     OW68638   5.643   9.073  11.814 -0.5031 -0.1239  0.0746
21276SOL    HW168639   5.603   9.047  11.897  0.6351 -1.1168  0.3269
21276SOL    HW268640   5.584   9.141  11.779 -2.3093 -1.4137  0.5087
21277SOL     OW68641   3.342   0.943   1.470 -0.3151  0.2435 -0.2361
21277SOL    HW168642   3.313   1.015   1.413  1.1095 -0.2812 -1.7004
21277SOL    HW268643   3.408   0.897   1.418 -0.0502 -1.1753  1.2957
21278SOL     OW68644   4.331   3.516   2.672  0.0488  0.0394 -0.0480
21278SOL    HW168645   4.369   3.446   2.726  2.7266  1.9636  0.7688
21278SOL    HW268646   4.298   3.580   2.735  1.3016  1.3340 -0.6499
21279SOL     OW68647   1.744   4.486  12.476 -0.0953  0.2539 -0.3119
21279SOL    HW168648   1.786   4.400  12.473  2.0327  1.2470 -3.3892
21279SOL    HW268649   1.672   4.479  12.413 -1.3167  0.1710  1.0298
21280SOL     OW68650   4.620   8.598   7.076  0.4063  0.5599  0.3174
21280SOL    HW168651   4.637   8.596   6.982 -0.3660 -2.4005  0.1569
21280SOL    HW268652   4.670   8.524   7.111 -0.4853  0.7092  2.0099
21281SOL     OW68653   7.796   3.083   3.466  0.3304 -0.0073 -0.1308
21281SOL    HW168654   7.780   2.992   3.441  0.6029  0.2526 -1.3335
21281SOL    HW268655   7.891   3.093   3.457  0.3023  0.3962  0.0184
21282SOL     OW68656   0.639  11.985   0.202  0.0362  0.1300  0.3607
21282SOL    HW168657   0.588  12.020   0.128  0.4365 -0.6979 -0.3166
21282SOL    HW268658   0.589  12.012   0.279 -1.4299 -0.6013 -0.2802
21283SOL     OW68659  10.763   6.223   4.711  0.0243 -0.2636 -0.3601
21283SOL    HW168660  10.759   6.299   4.769 -0.9854  0.4981 -1.3857
21283SOL    HW268661  10.818   6.160   4.758  0.4625  0.8936  0.7358
21284SOL     OW68662   4.876   6.961   7.065 -0.1652 -0.7758  0.4438
21284SOL    HW168663   4.876   6.902   7.140 -0.0571 -0.7156  0.4909
21284SOL    HW268664   4.918   6.911   6.995 -0.8177 -1.0616  0.2407
21285SOL     OW68665   6.010   6.172   4.339  0.1623 -0.5704  0.4308
21285SOL    HW168666   5.997   6.175   4.434 -0.7569  0.6978  0.2961
21285SOL    HW268667   5.943   6.231   4.304  0.4539 -1.0565 -1.0176
21286SOL     OW68668   2.399  11.836   1.560 -0.4485  0.3944 -0.4210
21286SOL    HW168669   2.478  11.790   1.531 -0.2630 -0.3974  1.2326
21286SOL    HW268670   2.430  11.921   1.591 -0.5020  0.7897 -1.4065
21287SOL     OW68671   1.572   8.316  10.499  0.3267 -0.5060  0.2639
21287SOL    HW168672   1.605   8.381  10.561 -0.7626 -0.8743  1.2686
21287SOL    HW268673   1.521   8.255  10.553 -2.7721  0.5264 -1.2884
21288SOL     OW68674   7.005   6.928   9.863 -0.3717 -0.0824  0.4032
21288SOL    HW168675   7.072   6.865   9.838  1.2859  1.6121  0.3248
21288SOL    HW268676   7.027   7.007   9.814 -2.1338  0.7088  0.7901
21289SOL     OW68677   7.288   6.138  11.876  0.3591 -0.0248 -0.0881
21289SOL    HW168678   7.285   6.231  11.853 -0.3229 -0.4352 -1.8355
21289SOL    HW268679   7.244   6.132  11.961  0.8484  1.2922  0.2735
21290SOL     OW68680   9.257  10.721  11.024 -0.2663  0.6554 -0.2381
21290SOL    HW168681   9.257  10.764  10.938  0.3154 -0.0441 -0.6057
21290SOL    HW268682   9.184  10.761  11.071 -1.0520  0.5451 -1.3164
21291SOL     OW68683   0.870   4.721   6.154  0.5796  0.1822  0.1309
21291SOL    HW168684   0.921   4.791   6.114  0.7212 -0.3254 -0.5868
21291SOL    HW268685   0.786   4.723   6.108  1.3364 -1.5164 -1.4555
21292SOL     OW68686   6.074   6.430  10.743 -0.1849  0.0926  0.4800
21292SOL    HW168687   6.086   6.416  10.837  0.4400 -2.6609  0.0599
21292SOL    HW268688   6.024   6.355  10.713  0.8709  0.1553 -1.6335
21293SOL     OW68689   3.092   7.115   6.708  0.1379  0.1959  0.2561
21293SOL    HW168690   3.094   7.185   6.774  0.4832  0.5097 -0.0863
21293SOL    HW268691   3.006   7.075   6.719  0.3374 -0.0112  1.1666
21294SOL     OW68692   7.276   5.879   3.714 -0.3977 -0.0892 -0.3743
21294SOL    HW168693   7.208   5.941   3.740  0.1119  0.3751 -0.1278
21294SOL    HW268694   7.307   5.842   3.797  1.5259  1.6945 -0.2244
21295SOL     OW68695   9.137   2.969   2.644 -0.2148 -0.1230 -0.1756
21295SOL    HW168696   9.177   3.015   2.570 -0.0625  0.4384  0.2469
21295SOL    HW268697   9.072   3.030   2.677  0.2371 -0.0567  0.6135
21296SOL     OW68698  11.968   1.410  10.638 -0.2057 -0.6121  0.1663
21296SOL    HW168699  11.942   1.331  10.591  0.8977 -0.6953 -0.3261
21296SOL    HW268700  11.902   1.420  10.707 -0.9831 -1.3330 -0.4570
21297SOL     OW68701  11.935   1.094  11.815 -0.7701 -0.3155  0.0526
21297SOL    HW168702  11.899   1.007  11.801  0.3766 -0.6905 -0.6535
21297SOL    HW268703  11.901   1.146  11.742  0.7218 -0.8760 -1.0865
21298SOL     OW68704  11.677   1.465   1.966 -0.4326 -0.2991  0.1378
21298SOL    HW168705  11.769   1.451   1.987  0.1167  1.3856 -0.9853
21298SOL    HW268706  11.650   1.384   1.923  1.3238  0.1547 -2.0157
21299SOL     OW68707   9.357   8.573   4.891  0.6152  0.1735 -0.3887
21299SOL    HW168708   9.332   8.647   4.835 -0.9061 -1.4083 -1.9608
21299SOL    HW268709   9.375   8.612   4.976  0.2138  2.3821 -1.2466
21300SOL     OW68710  10.776   8.595   9.328 -0.1477 -0.0706  0.0424
21300SOL    HW168711  10.805   8.598   9.236  1.0572  1.9144  0.4181
21300SOL    HW268712  10.698   8.650   9.331 -0.3432 -0.3528  0.1674
21301SOL     OW68713   3.755   9.500   8.702  0.5285  0.5486  0.0533
21301SOL    HW168714   3.785   9.492   8.611  1.2986  1.0550  0.2618
21301SOL    HW268715   3.768   9.412   8.738  2.4398  0.9060  0.3338
21302SOL     OW68716   3.522   2.999   5.874 -0.0356 -0.8675  0.4612
21302SOL    HW168717   3.479   3.034   5.796 -1.4265  0.6953  1.8729
21302SOL    HW268718   3.451   2.959   5.925  0.5422 -0.3338  1.7289
21303SOL     OW68719  11.834   1.576   9.788  0.3166 -0.3090  0.2601
21303SOL    HW168720  11.770   1.594   9.857  1.9653 -2.1111  2.4234
21303SOL    HW268721  11.787   1.519   9.726 -0.5388 -0.5775  1.1335
21304SOL     OW68722   1.681   6.985   1.474 -0.1552 -0.3179  0.3350
21304SOL    HW168723   1.693   6.893   1.452  0.1158  0.3328 -2.6980
21304SOL    HW268724   1.769   7.016   1.496 -0.3241 -0.8251  1.8902
21305SOL     OW68725  11.357   5.181   8.205  0.2459  0.0017 -0.5921
21305SOL    HW168726  11.323   5.271   8.200 -1.2900 -0.5825 -1.3547
21305SOL    HW268727  11.306   5.139   8.274 -0.6498 -0.8961 -1.7587
21306SOL     OW68728   9.283   0.161   1.170  0.0581  0.2040 -0.3811
21306SOL    HW168729   9.205   0.158   1.224  1.1231 -0.6577  1.1825
21306SOL    HW268730   9.345   0.104   1.214  1.8247  1.4020 -1.1959
21307SOL     OW68731   4.300   9.005   9.254 -0.2205  0.4242 -0.1519
21307SOL    HW168732   4.308   8.910   9.251 -2.1462  0.2036  0.3326
21307SOL    HW268733   4.291   9.031   9.162 -3.5190 -0.3323 -0.1599
21308SOL     OW68734   2.218  10.462   4.049  0.4434 -0.1638  0.4304
21308SOL    HW168735   2.161  10.410   3.992  0.8186 -0.3147  0.1862
21308SOL    HW268736   2.305  10.449   4.013  0.6108  0.2029  0.6983
21309SOL     OW68737   7.066   6.899  11.511 -0.1507  0.7260  0.5153
21309SOL    HW168738   7.039   6.991  11.520 -0.4405  0.8037 -0.8838
21309SOL    HW268739   7.098   6.893  11.421 -1.1930 -0.8133  0.2222
21310SOL     OW68740   3.989   3.010   6.043 -0.2156  0.1866 -0.1237
21310SOL    HW168741   3.981   3.052   5.957 -0.6145  1.0271  0.3097
21310SOL    HW268742   3.902   3.019   6.082 -0.4504 -1.5036 -0.2080
21311SOL     OW68743   3.558   6.088   7.248 -0.5094 -0.3753 -0.5477
21311SOL    HW168744   3.497   6.091   7.174  0.7352  2.5339 -1.6101
21311SOL    HW268745   3.503   6.104   7.325 -1.3837  0.2424 -1.2713
21312SOL     OW68746   0.279   4.275   1.273  0.6025  0.0045  0.0025
21312SOL    HW168747   0.336   4.282   1.350 -1.1657  0.5236  1.3464
21312SOL    HW268748   0.202   4.328   1.295  0.1609  0.4098 -2.2795
21313SOL     OW68749   1.787  11.106   7.466 -0.0538 -0.2749  0.1562
21313SOL    HW168750   1.743  11.059   7.396 -0.9200  0.7273  0.0043
21313SOL    HW268751   1.731  11.092   7.543  0.4567 -0.6799  0.4687
21314SOL     OW68752   7.171   9.981  12.046  0.2839  0.2529  0.6246
21314SOL    HW168753   7.244  10.043  12.038  0.9726 -0.6958 -0.8486
21314SOL    HW268754   7.093  10.036  12.033  0.8439  0.9328  0.0007
21315SOL     OW68755   9.619   4.232   6.062 -0.7577  0.1049  0.4650
21315SOL    HW168756   9.617   4.145   6.023 -2.2667 -0.4894  1.7507
21315SOL    HW268757   9.690   4.278   6.017 -0.4947 -1.5041 -0.8195
21316SOL     OW68758   5.960   9.635   9.273  0.0295  0.8507 -0.5622
21316SOL    HW168759   6.009   9.685   9.208  1.0958  1.5646  0.7267
21316SOL    HW268760   5.941   9.699   9.342 -0.6699  0.0230  0.0332
21317SOL     OW68761   7.392  11.163   9.197  0.5298  0.0887 -0.0335
21317SOL    HW168762   7.486  11.179   9.205  0.5855  0.5366 -1.3499
21317SOL    HW268763   7.359  11.169   9.287  1.0432  4.4321  0.0745
21318SOL     OW68764   9.457   3.722   2.119 -0.8055 -0.1729  0.0235
21318SOL    HW168765   9.548   3.727   2.090 -1.1970 -1.5592 -1.5712
21318SOL    HW268766   9.462   3.670   2.200 -0.1495  0.0758  0.1554
21319SOL     OW68767   9.985   0.004   4.597 -0.0154 -0.6565 -0.1132
21319SOL    HW168768   9.906   0.020   4.649 -2.0136 -1.1638 -2.7637
21319SOL    HW268769   9.983   0.074   4.531  2.0306 -0.4393  0.0138
21320SOL     OW68770  10.058   7.490   7.248  0.3981  0.1724  0.0751
21320SOL    HW168771   9.972   7.486   7.289  0.0201 -0.3488 -0.7449
21320SOL    HW268772  10.051   7.562   7.185  0.2598 -0.4582 -0.6422
21321SOL     OW68773   3.786   4.471   2.760 -0.2730 -0.1841  0.1422
21321SOL    HW168774   3.706   4.435   2.720 -0.1995  0.6484 -0.7958
21321SOL    HW268775   3.832   4.395   2.794 -1.3290 -0.7118  0.4404
21322SOL     OW68776   2.320  10.945  10.394 -0.4769  0.1548  0.1440
21322SOL    HW168777   2.299  10.925  10.485  2.6118 -0.6485  0.7963
21322SOL    HW268778   2.318  10.860  10.349  0.8284  0.1129  0.1436
21323SOL     OW68779   2.887  11.910   7.546  0.2209 -0.1172  0.7718
21323SOL    HW168780   2.908  11.935   7.457  0.2353 -1.3406  0.4153
21323SOL    HW268781   2.827  11.836   7.537 -0.9670  0.6649  1.7799
21324SOL     OW68782   6.937  10.427   1.606  0.0225 -0.3665  0.2771
21324SOL    HW168783   7.004  10.494   1.596 -0.2839 -0.1334 -0.2533
21324SOL    HW268784   6.935  10.381   1.522 -2.9261  1.9254 -1.0922
21325SOL     OW68785  10.540   1.193   2.207 -0.1937  0.2559  0.3686
21325SOL    HW168786  10.517   1.265   2.149 -1.1397 -0.1945  0.1624
21325SOL    HW268787  10.633   1.206   2.227 -0.1435  1.0409 -0.3472
21326SOL     OW68788  11.457   4.467  12.638  0.4240  0.0790 -0.3663
21326SOL    HW168789  11.373   4.507  12.615 -0.1352 -1.0329 -0.2935
21326SOL    HW268790  11.452   4.378  12.604  1.0748 -0.3974  0.7320
21327SOL     OW68791   3.492  11.998   1.019  0.3500  0.0063  0.3567
21327SOL    HW168792   3.536  12.046   1.090  1.7169 -0.6908  0.0226
21327SOL    HW268793   3.538  12.026   0.940 -0.6785  0.2160 -0.1892
21328SOL     OW68794   7.599   7.649   4.780  0.0506  0.2917  0.3792
21328SOL    HW168795   7.645   7.581   4.829 -0.5506 -0.7839 -0.4821
21328SOL    HW268796   7.539   7.689   4.843 -2.4265 -2.6283  0.1398
21329SOL     OW68797   1.312   0.056  12.058  0.4515  0.1325  0.0193
21329SOL    HW168798   1.322   0.053  12.154  1.0873  1.6249  0.0270
21329SOL    HW268799   1.241  -0.006  12.040 -0.9699  1.1734  1.6507
21330SOL     OW68800   3.407   4.369   8.045  0.1663 -0.9631  0.0727
21330SOL    HW168801   3.395   4.277   8.069  0.0150 -0.7567  0.8330
21330SOL    HW268802   3.453   4.407   8.120 -2.0600  0.1476  0.9786
21331SOL     OW68803   6.733   1.768   2.291 -0.0056 -0.1999  0.3639
21331SOL    HW168804   6.691   1.828   2.230  1.0104  0.2693  0.1122
21331SOL    HW268805   6.721   1.809   2.377  0.0946  0.0162  0.2744
21332SOL     OW68806   7.607  12.306   2.356 -0.0799  0.4263  0.6528
21332SOL    HW168807   7.664  12.269   2.424  1.4016 -0.0388 -0.7833
21332SOL    HW268808   7.588  12.232   2.298  0.4025  1.2207 -0.5695
21333SOL     OW68809   0.210  12.495   8.883 -0.0713 -0.1994 -0.8527
21333SOL    HW168810   0.212  12.433   8.957  2.2040  0.8438  0.0774
21333SOL    HW268811   0.193  12.580   8.924 -2.0147  0.0086 -1.9776
21334SOL     OW68812   7.570  11.241   3.158  0.6435  0.1729 -0.1216
21334SOL    HW168813   7.645  11.220   3.214  0.5183  2.9867  1.3197
21334SOL    HW268814   7.497  11.252   3.219 -0.1579  0.7027 -1.1443
21335SOL     OW68815   5.969  10.010  10.065 -0.4557 -0.2369 -0.0572
21335SOL    HW168816   6.022  10.079  10.106  0.8194 -0.7804 -0.7142
21335SOL    HW268817   6.026   9.932  10.067 -0.3931 -0.3468 -2.5883
21336SOL     OW68818   1.360   1.246  12.633 -0.3266 -0.5026 -0.5975
21336SOL    HW168819   1.321   1.235  12.719  1.5711 -1.3062  0.2077
21336SOL    HW268820   1.417   1.322  12.642  0.0074 -0.6858 -1.1033
21337SOL     OW68821   7.691  10.297   4.256 -0.3601 -0.1687  0.3345
21337SOL    HW168822   7.700  10.353   4.179  0.4488  0.0426  0.5694
21337SOL    HW268823   7.678  10.358   4.329 -2.5238 -0.4109  0.2146
21338SOL     OW68824   8.094   0.935   0.271 -0.3302 -0.0237 -0.2238
21338SOL    HW168825   8.144   0.878   0.213 -1.7713 -1.7457  0.1496
21338SOL    HW268826   8.018   0.961   0.219  0.6198  2.1883 -0.6252
21339SOL     OW68827   2.388   6.190   8.541  0.4461 -0.2770  0.2354
21339SOL    HW168828   2.348   6.186   8.628 -0.9893 -0.6893 -0.4154
21339SOL    HW268829   2.453   6.260   8.548 -0.5614  0.5950  1.2658
21340SOL     OW68830   7.488   6.573   2.877  0.7431 -0.2460 -0.4344
21340SOL    HW168831   7.463   6.643   2.817  1.7654  1.2991  0.8594
21340SOL    HW268832   7.514   6.618   2.957  3.3080 -1.9629 -0.1843
21341SOL     OW68833   2.540  12.098   4.136  0.2332 -0.3321 -0.1194
21341SOL    HW168834   2.532  12.163   4.205 -0.9928 -0.4875 -0.0770
21341SOL    HW268835   2.633  12.095   4.115  0.3829  1.0128  0.2739
21342SOL     OW68836   2.347   3.900   1.527  0.2461 -0.5000 -0.5701
21342SOL    HW168837   2.341   3.994   1.543  0.9016 -0.3147 -1.3623
21342SOL    HW268838   2.257   3.873   1.505 -0.0753 -0.2021  0.3700
21343SOL     OW68839   7.871   7.140  11.770  0.1093  0.0891 -0.4092
21343SOL    HW168840   7.965   7.151  11.755  0.4222 -0.2556  1.1139
21343SOL    HW268841   7.832   7.144  11.683  1.4226  1.2671 -0.9844
21344SOL     OW68842   5.049   8.880   5.047 -0.3336  0.3691  0.3026
21344SOL    HW168843   4.973   8.837   5.008 -0.0434 -0.8618  1.0360
21344SOL    HW268844   5.037   8.868   5.142  2.4528 -2.9612  0.3899
21345SOL     OW68845  12.360   8.735   7.927  0.3320 -0.0839  0.2112
21345SOL    HW168846  12.299   8.789   7.978  0.9680 -1.1334  2.1864
21345SOL    HW268847  12.318   8.649   7.923  0.7834 -0.2882 -0.1476
21346SOL     OW68848  10.087   8.986  10.769 -0.4700 -0.6815  0.3783
21346SOL    HW168849  10.160   8.971  10.829 -0.8310  0.6261  1.1725
21346SOL    HW268850  10.064   8.898  10.737  1.2720 -1.1449  0.2930
21347SOL     OW68851   9.168   8.341   9.708  0.3113  0.0296  0.1710
21347SOL    HW168852   9.192   8.423   9.751  0.1221 -1.4834  3.4745
21347SOL    HW268853   9.251   8.297   9.690  0.3508 -0.4297  1.4129
21348SOL     OW68854   9.555   1.999  12.271 -0.2231  0.5122  0.2590
21348SOL    HW168855   9.634   1.966  12.314 -0.6713  1.6082  2.0437
21348SOL    HW268856   9.484   1.946  12.307 -0.3453 -0.5812 -1.4601
21349SOL     OW68857  10.620   8.540   8.252  0.2900  0.5357  0.3357
21349SOL    HW168858  10.539   8.512   8.293  0.5241  0.7803  0.9732
21349SOL    HW268859  10.606   8.632   8.231  0.1898  0.4251 -0.0890
21350SOL     OW68860   7.337   9.661   3.334 -0.4231 -0.5375  0.4582
21350SOL    HW168861   7.331   9.754   3.311  0.2753 -0.7355 -0.5837
21350SOL    HW268862   7.388   9.622   3.264 -1.0581 -1.8018  0.6665
21351SOL     OW68863   4.702   9.333   1.990  0.2114 -0.0349  0.4561
21351SOL    HW168864   4.701   9.413   2.042  0.3152  0.0207  0.3748
21351SOL    HW268865   4.684   9.363   1.900 -0.3820 -0.1777  0.5241
21352SOL     OW68866   2.167   5.593   7.374 -0.5677 -0.2539  0.2021
21352SOL    HW168867   2.169   5.534   7.450  1.4957 -0.1670  0.2623
21352SOL    HW268868   2.144   5.678   7.411 -1.4765 -0.5699  0.4133
21353SOL     OW68869   2.943   8.772   6.896  0.5805  0.3086 -0.0234
21353SOL    HW168870   3.015   8.778   6.832  0.7905 -0.9124  0.0801
21353SOL    HW268871   2.864   8.770   6.843  0.7649 -0.9021 -0.2695
21354SOL     OW68872   5.578   3.075   2.949  0.2180  0.2544 -0.1686
21354SOL    HW168873   5.484   3.065   2.963  0.1796 -1.2120 -1.1434
21354SOL    HW268874   5.588   3.163   2.912 -0.7842  0.3948 -0.1334
21355SOL     OW68875   8.197   7.974   7.387  0.2930  0.1294  0.1126
21355SOL    HW168876   8.141   8.047   7.412  0.2992 -0.7648  3.1383
21355SOL    HW268877   8.255   8.009   7.321 -0.6004  2.4659  0.4897
21356SOL     OW68878   5.840   8.045   6.877  0.5572  0.3341 -0.3020
21356SOL    HW168879   5.928   8.066   6.908  0.5262  0.0447 -0.0053
21356SOL    HW268880   5.854   7.978   6.810  0.7678  2.3032 -2.3214
21357SOL     OW68881   1.620  11.720   1.926 -0.9332  0.2903  0.7961
21357SOL    HW168882   1.635  11.678   1.841 -0.0046  1.0832  0.5444
21357SOL    HW268883   1.686  11.790   1.930 -0.5082 -0.1549  2.4477
21358SOL     OW68884   1.788   7.814   5.475 -0.4517  0.8144  0.1541
21358SOL    HW168885   1.744   7.788   5.556  0.1677  0.5456  0.4179
21358SOL    HW268886   1.813   7.731   5.434  0.9173  0.9548  0.6474
21359SOL     OW68887   1.578   2.038   7.662 -0.0963 -0.4790  0.2182
21359SOL    HW168888   1.659   2.088   7.664 -0.2339  0.0590 -2.6146
21359SOL    HW268889   1.509   2.104   7.650 -0.5208 -1.1272 -1.1792
21360SOL     OW68890   0.906   6.974   8.421  0.6278  0.3356  0.3616
21360SOL    HW168891   0.854   6.986   8.500  0.2347  0.2845  0.1131
21360SOL    HW268892   0.986   6.932   8.452  1.0498  1.5019  0.9171
21361SOL     OW68893   5.625   0.246  11.493  0.2650  0.0286  0.3278
21361SOL    HW168894   5.636   0.164  11.542 -0.3999  0.6114  1.4921
21361SOL    HW268895   5.668   0.312  11.546  0.8336  0.4483 -0.6300
21362SOL     OW68896  12.516   4.188   9.635 -0.3484 -0.5116  0.2834
21362SOL    HW168897  12.526   4.144   9.719  1.0868 -1.6030 -0.4033
21362SOL    HW268898  12.441   4.246   9.646  1.3227  1.3398  3.1291
21363SOL     OW68899   3.991   4.003   4.789  0.3201  0.3546 -0.1323
21363SOL    HW168900   3.944   3.945   4.849 -1.6843  0.3399 -1.6050
21363SOL    HW268901   4.072   4.025   4.835  0.2879 -2.0872  1.2743
21364SOL     OW68902  12.114   8.479  11.116 -0.8196 -0.2891 -0.1032
21364SOL    HW168903  12.113   8.413  11.046  1.0758 -0.5260  0.0607
21364SOL    HW268904  12.204   8.481  11.146 -1.5296 -0.0002  2.1817
21365SOL     OW68905  11.161   3.122   9.723  0.3890  0.2845 -0.2898
21365SOL    HW168906  11.167   3.191   9.657  1.9774 -1.1482 -1.7370
21365SOL    HW268907  11.250   3.085   9.728 -0.7247 -2.7501 -0.8427
21366SOL     OW68908   2.970   5.326   8.158  0.9479  0.0368  0.0018
21366SOL    HW168909   2.925   5.262   8.214  1.0097 -3.0022 -3.0449
21366SOL    HW268910   3.056   5.336   8.199  0.6727 -1.3041  1.0038
21367SOL     OW68911  12.592   8.134   8.496 -0.0964  0.4906 -0.0168
21367SOL    HW168912  12.660   8.168   8.554  2.5636 -3.0012 -0.7832
21367SOL    HW268913  12.581   8.202   8.429  3.6042  0.7897 -0.5123
21368SOL     OW68914   0.952   6.607   0.345 -0.3260  0.1365 -0.3682
21368SOL    HW168915   0.898   6.529   0.362 -0.7410  0.7959  1.6515
21368SOL    HW268916   0.903   6.679   0.384  1.0308  1.0969 -0.3610
21369SOL     OW68917  12.406   6.412   7.651 -0.2801  0.3811  0.1108
21369SOL    HW168918  12.357   6.339   7.687 -2.2605  1.5465 -0.0320
21369SOL    HW268919  12.474   6.431   7.716 -1.3845  0.0493  1.4132
21370SOL     OW68920   9.098   5.612   4.214  0.7858 -0.4566  0.4131
21370SOL    HW168921   9.039   5.542   4.185 -0.9783  0.4013  1.7301
21370SOL    HW268922   9.055   5.693   4.186  1.4105  0.1856  1.2378
21371SOL     OW68923  11.418   0.063  10.863  0.5348 -0.3753  0.5303
21371SOL    HW168924  11.349   0.126  10.841 -0.2727 -1.3289  0.2430
21371SOL    HW268925  11.371  -0.011  10.900  1.3296 -1.3804 -0.4124
21372SOL     OW68926   0.152  12.618   3.718 -0.4279  0.6924 -0.4967
21372SOL    HW168927   0.105  12.657   3.792 -0.3616  0.1237 -0.1455
21372SOL    HW268928   0.159  12.525   3.741  2.0286  0.9546  0.1030
21373SOL     OW68929   0.705  12.051   1.394  0.1458  0.6094 -0.9363
21373SOL    HW168930   0.698  11.968   1.346 -0.8711  0.5383 -0.6787
21373SOL    HW268931   0.789  12.044   1.440 -0.5051 -0.8750  0.1411
21374SOL     OW68932   1.622   4.426  10.309 -0.2371 -0.2714 -0.0883
21374SOL    HW168933   1.694   4.463  10.361 -0.1584 -0.4501 -0.0689
21374SOL    HW268934   1.547   4.425  10.369 -0.0213 -0.9326  0.1772
21375SOL     OW68935   8.065   8.990   9.917  0.0747  0.3008 -0.1597
21375SOL    HW168936   8.117   9.069   9.899 -0.0102 -0.1695 -2.9556
21375SOL    HW268937   8.123   8.918   9.897  0.6938 -0.5548  3.9180
21376SOL     OW68938   8.838   3.956   6.986 -0.2429  0.1494 -0.5862
21376SOL    HW168939   8.876   3.891   6.927 -0.4322 -0.5514  0.0537
21376SOL    HW268940   8.908   3.976   7.048  0.0162  1.0225 -1.1345
21377SOL     OW68941  10.587  11.568   8.181 -0.2275 -0.2381  0.4269
21377SOL    HW168942  10.623  11.481   8.166 -2.3192 -1.2212  0.7673
21377SOL    HW268943  10.649  11.610   8.241  0.8782 -1.4233  0.1686
21378SOL     OW68944   4.967   2.364   0.922 -0.3641  0.4447 -0.5760
21378SOL    HW168945   5.059   2.348   0.947 -1.2148 -0.9963  2.0904
21378SOL    HW268946   4.950   2.454   0.948 -0.5336 -0.2902  2.2285
21379SOL     OW68947   0.766   2.174   0.176 -0.3283  0.4069  0.8621
21379SOL    HW168948   0.840   2.149   0.232 -0.0179 -0.1900  0.2022
21379SOL    HW268949   0.753   2.267   0.193  1.3142  0.7916  0.1429
21380SOL     OW68950   2.262   5.169   5.886  0.3317 -0.2338  0.1584
21380SOL    HW168951   2.286   5.257   5.860 -1.6273 -0.2891 -2.1705
21380SOL    HW268952   2.223   5.179   5.973  0.4843  1.1012  0.0862
21381SOL     OW68953   2.907   7.377   8.286 -0.0734  0.4158 -0.3658
21381SOL    HW168954   2.991   7.337   8.307 -0.6866 -0.3461  0.7623
21381SOL    HW268955   2.860   7.309   8.237 -0.6725  0.1684  0.5275
21382SOL     OW68956   2.667   1.472   6.107  0.6544 -0.2853 -0.0136
21382SOL    HW168957   2.636   1.385   6.133  0.3034  0.5775  2.7654
21382SOL    HW268958   2.724   1.456   6.032 -0.5066 -2.7306 -0.4664
21383SOL     OW68959  11.389  11.072   0.228 -0.2161  0.0734  0.4613
21383SOL    HW168960  11.340  11.055   0.308  1.3942 -0.1055  1.4742
21383SOL    HW268961  11.479  11.045   0.249  0.8570  2.5224 -0.4618
21384SOL     OW68962   7.512   6.543  12.634  0.1313  0.3197  0.1840
21384SOL    HW168963   7.419   6.566  12.632  0.2549  0.7689 -0.8403
21384SOL    HW268964   7.513   6.447  12.635 -0.3430  0.3061 -0.2467
21385SOL     OW68965   4.673   0.382   1.694 -0.2123  0.7028 -0.0263
21385SOL    HW168966   4.647   0.375   1.602 -0.4802 -0.9753  0.1469
21385SOL    HW268967   4.675   0.477   1.711  0.8870  1.0886 -2.0276
21386SOL     OW68968   5.733   0.181  10.735  0.3500 -0.0912  0.1327
21386SOL    HW168969   5.777   0.261  10.706 -0.7405  0.3383 -0.4164
21386SOL    HW268970   5.681   0.154  10.660  0.9465 -1.5175  0.2096
21387SOL     OW68971   9.118   8.999  10.014  0.1628 -0.3274  0.1223
21387SOL    HW168972   9.051   9.010   9.947  0.1504 -1.2639 -0.0329
21387SOL    HW268973   9.156   8.913   9.996  1.4917  0.2332  0.1420
21388SOL     OW68974   6.460   1.551  11.402  0.3840 -0.0738  0.5490
21388SOL    HW168975   6.409   1.485  11.449 -1.1371 -0.1725 -1.1217
21388SOL    HW268976   6.550   1.536  11.430  0.1732 -3.1603 -0.0735
21389SOL     OW68977   7.901   7.524   6.088 -0.3026  0.1878  0.6793
21389SOL    HW168978   7.892   7.452   6.151 -0.2511 -0.5578 -0.1414
21389SOL    HW268979   7.883   7.483   6.003  1.0768  0.8431  0.0549
21390SOL     OW68980   6.583   7.806   9.604  0.4768 -0.1143 -0.1115
21390SOL    HW168981   6.600   7.855   9.684  0.0535  0.2848 -0.2563
21390SOL    HW268982   6.521   7.738   9.629  0.3414  0.0131 -0.0959
21391SOL     OW68983   5.782  11.929   2.497 -0.7714 -1.2049  0.2456
21391SOL    HW168984   5.823  11.856   2.543  0.5384 -0.9604 -0.4792
21391SOL    HW268985   5.750  11.891   2.415 -2.0247 -1.3901  0.8009
21392SOL     OW68986   9.488   7.091  12.242 -0.0974 -0.6836 -0.2147
21392SOL    HW168987   9.530   7.005  12.248  0.2270 -0.4327  1.7349
21392SOL    HW268988   9.404   7.080  12.285 -0.5684 -0.2889 -0.9953
21393SOL     OW68989  11.274   8.157   4.314  0.0840  0.4507  0.1764
21393SOL    HW168990  11.228   8.119   4.240 -0.9582  1.1712  0.4215
21393SOL    HW268991  11.296   8.246   4.286  0.1879  0.5361  0.5227
21394SOL     OW68992  10.528  11.859   2.798  0.3612 -0.2734  0.0583
21394SOL    HW168993  10.618  11.890   2.806  0.3823 -0.1221 -0.6826
21394SOL    HW268994  10.517  11.842   2.704 -0.3988 -0.2439  0.1357
21395SOL     OW68995   8.035   0.156  10.704  0.1223  0.2638  0.7334
21395SOL    HW168996   8.041   0.152  10.799 -1.7945 -1.6238  0.8622
21395SOL    HW268997   7.941   0.156  10.685  0.4454  0.9563 -1.1691
21396SOL     OW68998   8.841   0.166   8.818 -0.9698  0.2995  0.4620
21396SOL    HW168999   8.764   0.188   8.764  0.4335 -0.5535 -2.0798
21396SOL    HW269000   8.893   0.246   8.819 -1.4140  0.5906  1.3819
21397SOL     OW69001   5.992   0.491  11.452 -0.1042 -0.0496  0.3728
21397SOL    HW169002   5.998   0.454  11.363 -0.3049 -1.7345  1.0303
21397SOL    HW269003   6.082   0.484  11.486  0.4294  2.4365 -0.3556
21398SOL     OW69004   5.404  10.339   2.386 -0.0654 -0.5060 -0.1158
21398SOL    HW169005   5.409  10.432   2.364  2.1363 -0.0787  1.7899
21398SOL    HW269006   5.464  10.296   2.324  0.1028 -0.4178 -0.0160
21399SOL     OW69007   2.668   3.004  11.179  0.5385  0.2426 -0.0824
21399SOL    HW169008   2.669   3.081  11.122  1.2476  0.2850 -0.0170
21399SOL    HW269009   2.656   3.039  11.267 -0.9247  0.1545 -0.2182
21400SOL     OW69010  10.510  10.982   6.235 -0.3493 -0.0786  0.5680
21400SOL    HW169011  10.515  11.036   6.156  0.6486 -2.1628 -0.8696
21400SOL    HW269012  10.585  11.010   6.288 -1.0740  1.3917  0.8604
21401SOL     OW69013  12.087   4.505   2.042  0.4786 -0.2364 -0.7504
21401SOL    HW169014  12.074   4.539   2.130 -0.3698  1.3071 -1.4356
21401SOL    HW269015  12.054   4.415   2.046  0.4603 -0.1869  0.4995
21402SOL     OW69016   1.679   6.482   9.000  0.4573 -0.2003 -0.1097
21402SOL    HW169017   1.585   6.484   9.020  0.6938 -2.8589  1.7598
21402SOL    HW269018   1.719   6.536   9.069  0.4190 -0.4121  0.0802
21403SOL     OW69019   6.771   3.612   8.273  0.3050  0.1327  0.2529
21403SOL    HW169020   6.731   3.530   8.304  0.8531 -0.7229 -1.2113
21403SOL    HW269021   6.753   3.614   8.179  1.5093  0.9857  0.0090
21404SOL     OW69022   7.115  11.633   6.164  0.3324 -0.2834 -0.4363
21404SOL    HW169023   7.079  11.568   6.103  0.4036 -0.8678  0.1340
21404SOL    HW269024   7.193  11.591   6.200  0.0829 -0.0991  0.3374
21405SOL     OW69025   5.074   0.183  11.712  0.5199  0.3487 -0.3054
21405SOL    HW169026   5.146   0.244  11.697 -0.1953  1.1995 -0.3235
21405SOL    HW269027   5.115   0.097  11.703  1.4512  0.8098 -0.7418
21406SOL     OW69028   4.470   6.629   8.797  0.7240  0.1014  0.2210
21406SOL    HW169029   4.551   6.604   8.752  0.1044  0.2581 -1.0361
21406SOL    HW269030   4.433   6.547   8.826  0.7270 -0.0898 -0.2980
21407SOL     OW69031   4.344  11.343   8.288  0.3163  0.2055  0.1590
21407SOL    HW169032   4.323  11.432   8.317 -0.3104  0.0779  0.1208
21407SOL    HW269033   4.385  11.355   8.203  1.6488  0.5472  0.8262
21408SOL     OW69034   3.814  10.475   4.334  0.0990 -0.2730  0.2845
21408SOL    HW169035   3.815  10.530   4.256  0.1709 -0.1363  0.3817
21408SOL    HW269036   3.804  10.386   4.300 -2.0386 -0.0540  0.2003
21409SOL     OW69037  12.111   2.894   8.670  0.1566  0.1393 -0.1767
21409SOL    HW169038  12.027   2.925   8.703 -0.2150 -0.7395 -0.2646
21409SOL    HW269039  12.114   2.801   8.695  1.8884  0.5618  1.4103
21410SOL     OW69040   2.914   6.754   4.183  0.1331 -0.7081  0.9549
21410SOL    HW169041   2.952   6.785   4.100  0.3984  0.0762  1.3552
21410SOL    HW269042   2.935   6.823   4.246 -0.4492 -1.0885  1.5807
21411SOL     OW69043  10.778  10.368  10.680 -0.0603 -0.1920  0.6926
21411SOL    HW169044  10.865  10.398  10.709  0.4966 -1.8991  0.8924
21411SOL    HW269045  10.744  10.319  10.755 -0.4045 -1.1045 -0.0436
21412SOL     OW69046   5.003  10.529   0.078 -0.1185  0.6579 -0.0421
21412SOL    HW169047   5.057  10.511   0.155  2.5303 -1.1950 -2.1625
21412SOL    HW269048   5.001  10.446   0.031  0.4255  2.2802 -3.1807
21413SOL     OW69049   4.011   3.971  11.670  0.0453  0.0068  0.1478
21413SOL    HW169050   3.957   4.017  11.734 -0.2094  0.7624 -0.5982
21413SOL    HW269051   4.074   4.037  11.640  1.3084 -0.8129  0.8870
21414SOL     OW69052   9.033   9.380   9.995 -0.1901  0.4746  0.0766
21414SOL    HW169053   8.952   9.358  10.041 -0.7699 -0.6136 -1.3728
21414SOL    HW269054   9.008   9.449   9.934  0.4608  1.5591  0.9968
21415SOL     OW69055   8.063   7.145   0.242 -0.3360 -0.3755  0.2384
21415SOL    HW169056   8.023   7.208   0.302 -0.8664 -0.5564  0.0827
21415SOL    HW269057   8.099   7.199   0.172 -1.6933 -0.2754 -0.4288
21416SOL     OW69058   0.411   1.583   7.746 -0.2935 -0.1471  0.2321
21416SOL    HW169059   0.437   1.496   7.777  0.7188 -0.6423 -1.8681
21416SOL    HW269060   0.443   1.643   7.814  0.5007 -1.2703  0.8811
21417SOL     OW69061   5.888   8.484   4.131  0.2536  0.3910  0.3392
21417SOL    HW169062   5.820   8.458   4.069  1.9739 -1.4566 -0.8961
21417SOL    HW269063   5.841   8.524   4.203 -1.9979  0.6396 -1.1854
21418SOL     OW69064   9.514   2.761  10.952  0.1542 -0.3854 -0.1007
21418SOL    HW169065   9.480   2.765  10.863  0.9497  1.2662 -0.3745
21418SOL    HW269066   9.460   2.823  11.002  1.9840  1.5143 -0.3221
21419SOL     OW69067  12.516   4.289   3.113 -0.6046 -0.0331  0.2731
21419SOL    HW169068  12.529   4.305   3.019 -0.1616 -1.1579  0.1322
21419SOL    HW269069  12.432   4.331   3.132 -0.2804  0.9973 -0.4131
21420SOL     OW69070  11.320   0.903  12.189 -0.1234  0.5820 -0.0466
21420SOL    HW169071  11.294   0.947  12.269  0.7729 -0.2607  0.7458
21420SOL    HW269072  11.400   0.948  12.162 -1.7108  2.4955 -1.9001
21421SOL     OW69073   9.397   0.499   6.436  0.3827 -0.1134  0.6212
21421SOL    HW169074   9.314   0.471   6.476 -0.1401  2.0432  1.1654
21421SOL    HW269075   9.399   0.454   6.352 -1.0852 -0.6449  0.8349
21422SOL     OW69076  12.621   6.899   8.655  0.0639 -0.1450  0.0888
21422SOL    HW169077  12.579   6.892   8.741  0.5081 -0.1326  0.3083
21422SOL    HW269078  12.705   6.940   8.673  1.0884 -2.0871 -0.0669
21423SOL     OW69079   3.689  12.554   5.574  0.1900 -0.1150 -0.7053
21423SOL    HW169080   3.750  12.628   5.586 -0.5905  0.3426  0.5869
21423SOL    HW269081   3.610  12.594   5.537 -0.1860 -0.3162 -0.1302
21424SOL     OW69082   6.218   5.840   9.968  0.6894 -0.2620  0.0795
21424SOL    HW169083   6.189   5.930   9.980  2.6158  0.4898 -0.5567
21424SOL    HW269084   6.268   5.820  10.048  0.4177 -0.7200  0.1420
21425SOL     OW69085   5.429   5.798   4.130  0.4462  0.0285 -0.6195
21425SOL    HW169086   5.494   5.730   4.112  0.3173 -0.2461 -0.0787
21425SOL    HW269087   5.418   5.795   4.225 -0.0137  0.3889 -0.6607
21426SOL     OW69088   9.916   5.805   3.350  0.2960  0.2023 -0.2236
21426SOL    HW169089   9.920   5.732   3.412  1.2311 -0.7888 -1.3933
21426SOL    HW269090   9.899   5.763   3.265 -0.0421  1.4342 -0.7872
21427SOL     OW69091   1.247   6.181   0.865 -0.3103 -0.2356 -0.1957
21427SOL    HW169092   1.228   6.224   0.782 -0.7425  0.3540  0.1995
21427SOL    HW269093   1.304   6.242   0.911 -1.7042  0.4119  0.7703
21428SOL     OW69094   2.498   1.374   1.544  0.4407  0.3670  0.5004
21428SOL    HW169095   2.525   1.289   1.509  0.7409  0.6525  0.0222
21428SOL    HW269096   2.403   1.368   1.552  0.3582  0.2916 -0.3885
21429SOL     OW69097  11.411   3.577   7.429 -1.1062 -0.2873  0.5162
21429SOL    HW169098  11.471   3.652   7.435 -2.5752  0.9837 -0.0468
21429SOL    HW269099  11.469   3.501   7.429  0.4275  0.7828  1.7714
21430SOL     OW69100   5.037   1.488   1.331  0.2617 -0.0404 -0.0016
21430SOL    HW169101   4.974   1.418   1.350  0.2748 -0.2737 -0.7830
21430SOL    HW269102   4.994   1.568   1.362 -0.2561 -0.2469 -0.1787
21431SOL     OW69103   2.190  10.677   5.780  0.2103  0.2346  0.0791
21431SOL    HW169104   2.272  10.705   5.821  0.1087  1.6214 -0.5952
21431SOL    HW269105   2.198  10.582   5.773  2.7598  0.4805 -1.9559
21432SOL     OW69106   2.905   4.070  12.254  0.1310 -0.4501  0.5009
21432SOL    HW169107   2.902   3.994  12.196  3.8223 -0.0542 -0.4826
21432SOL    HW269108   2.855   4.138  12.208  0.4913 -1.0426 -0.8293
21433SOL     OW69109  12.071  10.855   2.844  0.5990  0.0341 -0.0193
21433SOL    HW169110  12.103  10.818   2.927  0.6931 -1.2550 -0.5989
21433SOL    HW269111  11.979  10.829   2.841  0.8546 -0.8440 -0.7811
21434SOL     OW69112   4.565   8.698  11.743 -0.0334  0.2112  0.2943
21434SOL    HW169113   4.473   8.724  11.742  0.1888  1.1883  1.6413
21434SOL    HW269114   4.608   8.760  11.684 -0.0748  0.5129  0.5760
21435SOL     OW69115   6.458   5.553   6.644 -0.2438  0.0538 -0.2664
21435SOL    HW169116   6.370   5.590   6.644  0.1705  1.0904 -0.3158
21435SOL    HW269117   6.512   5.621   6.684  0.4173 -0.8774  0.4486
21436SOL     OW69118   0.182   4.779   3.931 -0.2537  0.4090  0.0746
21436SOL    HW169119   0.222   4.757   3.847  1.6133  0.0729  1.0168
21436SOL    HW269120   0.207   4.707   3.990 -1.2276  0.8139  1.0253
21437SOL     OW69121  12.320   8.259  11.834  0.1748  0.1614  0.8091
21437SOL    HW169122  12.337   8.316  11.759  1.0332  0.2822  1.0805
21437SOL    HW269123  12.226   8.265  11.847  0.0435  0.3148 -0.1173
21438SOL     OW69124   3.173   3.662   9.440  0.0768  0.0743 -0.4527
21438SOL    HW169125   3.190   3.609   9.518 -0.6502 -0.9767 -0.9734
21438SOL    HW269126   3.179   3.599   9.368  0.6989  1.0195 -1.2455
21439SOL     OW69127   4.739  10.268   6.798  0.0605 -0.0415  0.5201
21439SOL    HW169128   4.722  10.342   6.857  0.9875  0.5015  0.1301
21439SOL    HW269129   4.833  10.273   6.781 -0.0005 -0.8837 -0.0928
21440SOL     OW69130   1.901   2.192   1.333 -0.1139  0.4672  0.0369
21440SOL    HW169131   1.841   2.255   1.291 -0.8386 -0.0227  0.3097
21440SOL    HW269132   1.971   2.246   1.369 -0.1325  1.0124 -0.7165
21441SOL     OW69133   8.757   4.579   8.731  0.0448 -0.0837  0.0009
21441SOL    HW169134   8.760   4.674   8.730 -1.9684  0.0182 -0.0716
21441SOL    HW269135   8.672   4.557   8.769  1.2501 -1.9054  1.8819
21442SOL     OW69136   4.930   2.829   0.590  0.2258 -0.6277 -0.4395
21442SOL    HW169137   4.885   2.884   0.526  0.1519 -0.6060 -0.3696
21442SOL    HW269138   4.860   2.777   0.629  0.3102 -0.8489 -0.5821
21443SOL     OW69139   4.825   1.659   3.372 -0.4071 -0.1014  0.2481
21443SOL    HW169140   4.861   1.616   3.295 -0.9271  1.5954 -0.9992
21443SOL    HW269141   4.889   1.642   3.442  0.6569 -0.6790 -0.8394
21444SOL     OW69142   2.073   8.208   2.566  0.0692 -0.2952  0.5764
21444SOL    HW169143   2.023   8.145   2.514 -0.9702  0.7159  0.2949
21444SOL    HW269144   2.076   8.171   2.654 -1.2077 -0.3647  0.6016
21445SOL     OW69145  10.710  11.244   3.310 -0.1406  0.4231  0.1567
21445SOL    HW169146  10.654  11.305   3.262  1.2099  1.5099 -0.0961
21445SOL    HW269147  10.755  11.193   3.243 -1.3830 -1.0384  0.3645
21446SOL     OW69148   9.733   8.171   1.460 -0.2564 -0.0201 -0.0223
21446SOL    HW169149   9.668   8.234   1.492 -0.5932  1.4856 -3.2003
21446SOL    HW269150   9.684   8.114   1.400  0.6527 -1.3580  0.4595
21447SOL     OW69151   3.382   0.202   3.831 -0.3719 -0.6880 -0.1629
21447SOL    HW169152   3.458   0.155   3.796 -1.0461 -1.7415 -0.2416
21447SOL    HW269153   3.363   0.159   3.915 -1.1007 -0.6802 -0.3143
21448SOL     OW69154   9.103   4.932   1.018  0.1997  0.2220  0.2050
21448SOL    HW169155   9.011   4.911   1.004 -0.1214  2.6499 -2.2763
21448SOL    HW269156   9.102   5.023   1.047  1.8266  0.6146 -0.8577
21449SOL     OW69157  11.040   1.401   3.798 -0.0503 -0.9312  0.0956
21449SOL    HW169158  11.003   1.433   3.880  1.3091  1.6474 -0.1964
21449SOL    HW269159  10.964   1.375   3.745 -1.0883 -0.4049  1.2872
21450SOL     OW69160   0.075   9.508   1.720 -0.5067 -0.1396 -0.6036
21450SOL    HW169161   0.100   9.448   1.650 -3.6671 -0.8582 -1.2288
21450SOL    HW269162   0.129   9.482   1.794 -1.2444 -3.3476 -1.0494
21451SOL     OW69163   4.491   0.152  10.243 -0.1050  0.0991  0.2343
21451SOL    HW169164   4.449   0.121  10.324  0.6020  0.2062  0.6444
21451SOL    HW269165   4.422   0.202  10.199  0.3425  2.6059  2.2023
21452SOL     OW69166   1.329   2.355   5.103  0.2416  0.0896  0.2314
21452SOL    HW169167   1.415   2.371   5.142  0.1182  2.7514 -0.3560
21452SOL    HW269168   1.276   2.430   5.131 -0.8793  0.2558 -2.0746
21453SOL     OW69169  12.276   6.473   6.880 -0.0687  0.0641 -0.0036
21453SOL    HW169170  12.184   6.496   6.880  0.4015  2.1516  0.0035
21453SOL    HW269171  12.301   6.474   6.787 -0.0067 -0.3343  0.0068
21454SOL     OW69172   1.774   1.946   9.781 -0.1303 -0.4083 -0.3303
21454SOL    HW169173   1.867   1.966   9.775  0.0168 -0.5773  1.1024
21454SOL    HW269174   1.735   1.992   9.707  1.1085 -0.4739 -1.0484
21455SOL     OW69175   6.373  11.040   8.813  0.0440  0.0191 -0.5423
21455SOL    HW169176   6.401  10.949   8.804 -1.3332 -0.4945  0.1487
21455SOL    HW269177   6.350  11.049   8.905 -0.2540  0.9433 -0.6961
21456SOL     OW69178   2.827   2.777   8.002 -0.1096  0.2699 -0.0442
21456SOL    HW169179   2.868   2.846   7.950 -0.9493  0.2149 -0.7904
21456SOL    HW269180   2.735   2.803   8.010  0.0518  0.4536  1.7111
21457SOL     OW69181   2.948   5.222  11.849 -0.0301  0.0101 -0.6720
21457SOL    HW169182   2.899   5.277  11.787 -1.2438 -0.0932  0.1626
21457SOL    HW269183   2.951   5.136  11.807  0.0826  0.1968 -1.0540
21458SOL     OW69184   5.527   8.140   6.213  0.4491  1.0718 -0.3685
21458SOL    HW169185   5.468   8.078   6.256  0.7496  1.4253  0.5762
21458SOL    HW269186   5.607   8.090   6.199  0.6886  1.2270  0.3832
21459SOL     OW69187   1.663   7.165   7.587 -0.5728 -0.7538  0.1027
21459SOL    HW169188   1.734   7.163   7.651  0.5010  0.7915 -0.9796
21459SOL    HW269189   1.587   7.196   7.635 -0.0537 -0.6411  0.8552
21460SOL     OW69190   6.603   0.726   1.311  0.3494 -0.1759  0.1354
21460SOL    HW169191   6.630   0.677   1.389 -0.0318  0.8305  0.9285
21460SOL    HW269192   6.517   0.689   1.289  1.3759 -1.9563 -1.1525
21461SOL     OW69193   8.877  12.344   6.884  0.1159 -0.0852 -0.0106
21461SOL    HW169194   8.852  12.408   6.951  0.6520 -1.0635  1.1739
21461SOL    HW269195   8.891  12.263   6.933  1.3889 -0.6220 -1.2024
21462SOL     OW69196   8.666   7.597  10.971  0.0005 -0.3062  0.2740
21462SOL    HW169197   8.678   7.687  11.001 -0.5080  0.0482 -0.5405
21462SOL    HW269198   8.738   7.548  11.010 -0.3272  0.2303  1.6052
21463SOL     OW69199   9.092   7.897  10.813 -0.6273 -0.4966 -0.0159
21463SOL    HW169200   9.108   7.857  10.898 -0.6169 -2.7932 -0.9940
21463SOL    HW269201   9.139   7.841  10.751  1.1087  2.2810 -1.4051
21464SOL     OW69202   8.551  10.156   4.163  0.4273 -0.1034  0.2732
21464SOL    HW169203   8.471  10.162   4.214  0.2123 -0.2213 -0.0480
21464SOL    HW269204   8.582  10.246   4.156  0.5289 -0.1001  0.7199
21465SOL     OW69205   6.596   2.180   4.709 -0.4239 -0.0054 -0.2577
21465SOL    HW169206   6.678   2.181   4.759 -0.0131 -1.5738 -0.8354
21465SOL    HW269207   6.588   2.269   4.675  0.5284  0.4389  0.5964
21466SOL     OW69208   0.068   0.775   8.900  0.6231 -0.2389 -0.2264
21466SOL    HW169209   0.026   0.688   8.899  3.2038 -1.6330  1.0208
21466SOL    HW269210   0.046   0.811   8.986  1.6067 -0.8145  0.2843
21467SOL     OW69211   5.251  11.629   7.950 -0.0850  0.0975 -0.4195
21467SOL    HW169212   5.166  11.587   7.965  0.4761 -1.2136 -0.7912
21467SOL    HW269213   5.266  11.681   8.029 -0.9798 -0.0971 -0.1092
21468SOL     OW69214   2.345   1.251   5.451 -0.3391 -0.0753 -0.0028
21468SOL    HW169215   2.428   1.248   5.498  0.5131 -1.0162 -1.4826
21468SOL    HW269216   2.296   1.177   5.484 -0.2867  0.0533  0.3607
21469SOL     OW69217   4.334   9.651   7.903  0.2056 -0.5422  0.3439
21469SOL    HW169218   4.295   9.665   7.989  0.3336 -0.4508  0.3893
21469SOL    HW269219   4.333   9.557   7.890  1.9014 -0.7283  1.2626
21470SOL     OW69220  10.206   6.724   2.344 -0.0586  0.1536  0.3795
21470SOL    HW169221  10.122   6.736   2.388 -0.2074  1.1734 -0.1627
21470SOL    HW269222  10.258   6.801   2.367 -0.3475  1.0266 -1.6514
21471SOL     OW69223  11.273   5.217   7.400  0.2945  0.4615 -0.0396
21471SOL    HW169224  11.232   5.149   7.454  0.9690 -0.2909 -0.4450
21471SOL    HW269225  11.203   5.249   7.344 -0.3785  1.1344  1.1455
21472SOL     OW69226   1.888   4.298   8.361 -0.1446 -0.5806  0.0881
21472SOL    HW169227   1.936   4.234   8.308  1.0604 -0.5281  1.0603
21472SOL    HW269228   1.827   4.245   8.412 -0.9313 -0.6820 -0.9206
21473SOL     OW69229   6.462   1.277   1.878  0.0865 -0.2200 -0.3711
21473SOL    HW169230   6.444   1.308   1.967  1.2996 -0.2518 -0.1043
21473SOL    HW269231   6.505   1.350   1.835  0.4176 -0.5591 -0.6226
21474SOL     OW69232   8.979   9.389   7.148  0.0917  0.1276  0.1473
21474SOL    HW169233   8.904   9.435   7.186  0.9590  0.9432  0.8987
21474SOL    HW269234   8.957   9.381   7.055 -0.3214  1.5764  0.1086
21475SOL     OW69235   2.903   6.335   1.863 -0.1304  0.2756  0.4022
21475SOL    HW169236   2.955   6.413   1.884  0.1963  0.1060  0.2362
21475SOL    HW269237   2.968   6.269   1.840 -0.4849  0.8527 -2.6334
21476SOL     OW69238   9.933   7.175   3.800 -0.5213 -0.0342 -0.0430
21476SOL    HW169239   9.864   7.189   3.736  0.0440  0.1420 -0.6224
21476SOL    HW269240   9.946   7.080   3.801  0.0423  0.0246 -0.8174
21477SOL     OW69241   8.625   7.593  10.069  0.0296 -0.6339 -0.0009
21477SOL    HW169242   8.561   7.604  10.139  0.2550  1.2866 -0.0622
21477SOL    HW269243   8.591   7.520  10.017 -0.5888 -1.5334  1.5787
21478SOL     OW69244   7.537  12.023   9.772 -0.1586  0.1556  0.6149
21478SOL    HW169245   7.561  11.950   9.715  0.2231  0.4339  0.4176
21478SOL    HW269246   7.455  12.055   9.735  0.8538  1.3053 -0.7189
21479SOL     OW69247  10.286   1.698   3.077  0.2609 -0.1668 -0.5320
21479SOL    HW169248  10.211   1.714   3.134  0.0661 -0.9612 -0.5583
21479SOL    HW269249  10.314   1.609   3.099  1.0344  0.0274 -0.7073
21480SOL     OW69250   9.051  11.624  10.036 -0.3726  0.4723 -0.0406
21480SOL    HW169251   9.009  11.689   9.979  0.8840  1.3221 -0.0535
21480SOL    HW269252   8.988  11.553  10.043 -1.7577  1.6544 -0.1145
21481SOL     OW69253   1.607   8.917   3.007  0.0863 -0.2953 -0.2783
21481SOL    HW169254   1.571   8.954   3.088 -2.0583 -0.5298 -1.0719
21481SOL    HW269255   1.668   8.850   3.037  1.8667  1.8266  1.1487
21482SOL     OW69256   9.962   9.893  10.424 -0.0650  0.4033  0.0153
21482SOL    HW169257   9.867   9.904  10.415  0.0071 -0.0532 -1.4203
21482SOL    HW269258   9.998   9.933  10.346  0.8025 -1.2110 -0.4372
21483SOL     OW69259   0.034   8.796   2.612 -0.7577  0.1340  0.5329
21483SOL    HW169260   0.030   8.861   2.542  0.0562 -1.9496 -1.5481
21483SOL    HW269261   0.064   8.845   2.689  1.5376  1.9106 -1.3737
21484SOL     OW69262   0.366   1.080   0.735  0.2762 -0.7624 -0.3022
21484SOL    HW169263   0.438   1.133   0.767 -1.3215  2.2654 -1.3433
21484SOL    HW269264   0.287   1.132   0.751 -1.7461 -3.8006  0.5790
21485SOL     OW69265   5.492   5.097   6.358  0.0075  0.0289  0.5405
21485SOL    HW169266   5.571   5.112   6.307  0.2084 -0.5973  0.6587
21485SOL    HW269267   5.422   5.088   6.293  0.3187 -1.1187  0.3431
21486SOL     OW69268   2.115   4.056   6.166  0.0432 -0.4714  0.2910
21486SOL    HW169269   2.129   4.072   6.073 -2.1333  0.9219  0.1193
21486SOL    HW269270   2.201   4.064   6.206  1.0190 -1.0960 -1.5766
21487SOL     OW69271   9.137   9.933   6.310  0.3117 -0.8848 -0.0062
21487SOL    HW169272   9.106   9.860   6.256  1.4101  0.0316 -2.0021
21487SOL    HW269273   9.060   9.988   6.323 -0.0896 -1.4093 -0.1636
21488SOL     OW69274  11.802   3.059   6.357 -0.0427  0.2762  0.0316
21488SOL    HW169275  11.753   2.981   6.382 -0.6257  0.8829  0.8156
21488SOL    HW269276  11.769   3.128   6.415 -0.2388  1.3416 -1.2981
21489SOL     OW69277   3.575   1.759   5.889  0.0300  0.0198  0.5097
21489SOL    HW169278   3.559   1.670   5.859 -1.2557  0.0487  1.0420
21489SOL    HW269279   3.661   1.756   5.929  0.4661 -0.7175 -0.4425
21490SOL     OW69280   5.830   8.998   1.064 -0.2766  0.9137 -0.2581
21490SOL    HW169281   5.789   8.919   1.101 -1.5126  1.6790  0.0684
21490SOL    HW269282   5.924   8.982   1.073 -0.4219 -1.3599 -2.0026
21491SOL     OW69283   0.517   3.741   4.775 -0.4588  0.2172 -0.3395
21491SOL    HW169284   0.537   3.654   4.739 -0.8352  0.1454 -0.3731
21491SOL    HW269285   0.570   3.747   4.854 -1.4709 -0.5874  0.4120
21492SOL     OW69286  11.517   8.194   3.767 -0.6614 -0.3789 -0.4155
21492SOL    HW169287  11.441   8.194   3.708 -0.3020 -0.8939 -0.8900
21492SOL    HW269288  11.582   8.248   3.722 -1.1341  1.0686  0.5390
21493SOL     OW69289   5.894   8.778   7.598  0.0015  0.2360 -0.1438
21493SOL    HW169290   5.979   8.750   7.632 -0.6027 -0.0550  1.1866
21493SOL    HW269291   5.907   8.870   7.575  0.2567  0.6758  1.5995
21494SOL     OW69292   0.187   5.394   5.485 -0.1547  0.3870 -0.5626
21494SOL    HW169293   0.182   5.319   5.544 -1.7385  0.4422 -0.5717
21494SOL    HW269294   0.274   5.388   5.445  0.0988 -0.9014  0.1240
21495SOL     OW69295   2.316  10.649   9.390  0.6292 -0.6343  0.0525
21495SOL    HW169296   2.327  10.562   9.354  0.1422 -1.1739  1.1516
21495SOL    HW269297   2.388  10.659   9.453 -0.6370 -1.2075  1.6735
21496SOL     OW69298  12.493  10.650   1.348  0.0014 -0.0539  0.1159
21496SOL    HW169299  12.435  10.674   1.276  1.1062 -0.7910 -1.0448
21496SOL    HW269300  12.567  10.711   1.341  0.0718 -0.0663  0.6933
21497SOL     OW69301   7.967   8.236   2.213 -0.4462 -0.0694  0.2163
21497SOL    HW169302   8.003   8.320   2.243 -1.2525 -0.1667  1.5434
21497SOL    HW269303   7.994   8.173   2.279 -1.1556 -0.5657  0.0486
21498SOL     OW69304   0.709   7.850   4.046 -0.2798  0.3167  0.1759
21498SOL    HW169305   0.756   7.875   3.967 -2.7739  0.6797 -1.3093
21498SOL    HW269306   0.726   7.756   4.055 -1.0507 -0.0495 -1.6653
21499SOL     OW69307  10.877   2.125  11.689 -0.6092  0.6382  0.1746
21499SOL    HW169308  10.835   2.183  11.626 -0.8806 -0.2170 -0.4600
21499SOL    HW269309  10.970   2.138  11.676 -0.6682  0.6306 -0.2487
21500SOL     OW69310  12.386   6.613   8.939 -0.4165  0.4971 -0.4136
21500SOL    HW169311  12.324   6.604   8.867 -0.4983  1.0110 -0.4092
21500SOL    HW269312  12.340   6.580   9.016 -0.0912 -0.7122 -0.7064
21501SOL     OW69313   2.130   2.123  11.869 -1.0657 -0.0018  0.4861
21501SOL    HW169314   2.098   2.111  11.780 -0.6740 -0.8234  0.4444
21501SOL    HW269315   2.197   2.055  11.880  0.5077  1.5053  0.6332
21502SOL     OW69316  11.804   6.830   7.648 -0.3440 -0.0971 -0.0940
21502SOL    HW169317  11.824   6.831   7.741  2.6240 -0.4124 -0.6475
21502SOL    HW269318  11.726   6.884   7.639  1.0102  2.4348  2.2213
21503SOL     OW69319   6.255   6.168   9.296 -0.4219 -0.4799 -0.3561
21503SOL    HW169320   6.186   6.194   9.235 -0.9996 -3.4735 -1.1361
21503SOL    HW269321   6.284   6.250   9.336 -2.8380  1.1367 -1.6768
21504SOL     OW69322   5.285   2.250   8.422 -0.3092 -0.0790 -0.2676
21504SOL    HW169323   5.378   2.274   8.432  0.0144 -1.0888 -0.7067
21504SOL    HW269324   5.253   2.242   8.511 -0.6319  2.6083 -0.0782
21505SOL     OW69325   5.671   2.375   2.222 -0.4394  0.1069 -0.2231
21505SOL    HW169326   5.689   2.457   2.268 -2.3169 -0.2282  1.2272
21505SOL    HW269327   5.628   2.402   2.140  1.2432  0.6300 -0.9730
21506SOL     OW69328   8.785  11.178   6.843 -0.3481 -0.1006 -0.1441
21506SOL    HW169329   8.764  11.100   6.893 -3.0104  0.4899 -0.2261
21506SOL    HW269330   8.761  11.156   6.753  0.4038  0.2897 -0.4505
21507SOL     OW69331   2.458   2.131   3.832  0.4165 -0.4544 -0.1711
21507SOL    HW169332   2.495   2.146   3.745  0.5561  0.4957  0.0428
21507SOL    HW269333   2.389   2.196   3.840 -0.8959 -1.7699 -0.2993
21508SOL     OW69334   2.921   4.871   0.944 -0.3757  0.4902  1.3958
21508SOL    HW169335   2.961   4.947   0.987  1.0139 -0.6476  2.2153
21508SOL    HW269336   2.854   4.842   1.004 -1.0862  1.1976  0.9628
21509SOL     OW69337  10.829   8.522   5.982 -0.0955 -0.3384 -0.2229
21509SOL    HW169338  10.878   8.477   5.913  1.6576 -1.0073  1.3828
21509SOL    HW269339  10.759   8.461   6.005  0.9295 -1.3093  0.4110
21510SOL     OW69340   2.411   6.912   4.080 -0.4402 -0.4787  0.3517
21510SOL    HW169341   2.452   6.828   4.097  0.2022  0.0250  1.4236
21510SOL    HW269342   2.462   6.951   4.009 -0.1621 -0.6113  0.4784
21511SOL     OW69343   7.084   2.627   3.692 -0.0803 -0.4590 -0.3326
21511SOL    HW169344   7.180   2.627   3.693 -0.0773 -0.0217 -0.2766
21511SOL    HW269345   7.060   2.567   3.621  0.2372 -0.4306 -0.4635
21512SOL     OW69346   7.683   9.359   7.284 -0.1227  0.4440 -0.9296
21512SOL    HW169347   7.618   9.379   7.217 -1.0723 -0.6352 -0.3618
21512SOL    HW269348   7.639   9.382   7.367  0.5886  0.6402 -0.6000
21513SOL     OW69349   1.486  10.748  10.801 -0.4181  0.2474 -0.6041
21513SOL    HW169350   1.504  10.660  10.769 -1.1557 -0.0373 -0.2287
21513SOL    HW269351   1.570  10.778  10.836 -0.2967 -0.4946 -0.2580
21514SOL     OW69352  12.507   8.334   8.822 -0.2638 -0.2105 -0.1658
21514SOL    HW169353  12.505   8.423   8.786  0.7346  0.3664  1.1250
21514SOL    HW269354  12.428   8.328   8.875  0.9487  0.8806  1.8629
21515SOL     OW69355   6.477   7.248  10.782 -0.1424 -0.0602 -0.0885
21515SOL    HW169356   6.443   7.325  10.737  1.2065 -0.3046 -1.6064
21515SOL    HW269357   6.551   7.280  10.832  1.2313 -0.5224 -1.7354
21516SOL     OW69358  12.328  10.100   6.832 -0.3603  0.0819  1.3342
21516SOL    HW169359  12.344  10.115   6.739  1.7542 -1.9990  1.2525
21516SOL    HW269360  12.236  10.075   6.836 -1.1783  2.6285  0.2134
21517SOL     OW69361  11.751   2.617   3.678  0.3963  0.0081  0.1514
21517SOL    HW169362  11.703   2.637   3.597 -0.2971 -0.3968  0.4551
21517SOL    HW269363  11.736   2.524   3.692  3.2631 -0.7462 -1.0356
21518SOL     OW69364   3.400  11.347   5.059  0.1279  0.6623 -0.0063
21518SOL    HW169365   3.346  11.364   4.981 -1.6056 -0.0846  0.9884
21518SOL    HW269366   3.457  11.424   5.064 -1.9316  2.3137 -0.2189
21519SOL     OW69367  10.150   2.643   5.792 -0.3993 -0.3600  0.4004
21519SOL    HW169368  10.151   2.730   5.832 -1.2958 -1.4538  3.0115
21519SOL    HW269369  10.239   2.611   5.805  0.5825  0.8605 -2.4827
21520SOL     OW69370   9.176   4.617   5.880 -0.0052 -0.2488  0.4068
21520SOL    HW169371   9.173   4.541   5.938 -1.6208  1.1999  2.3859
21520SOL    HW269372   9.269   4.640   5.875  0.2497 -0.8390  1.9141
21521SOL     OW69373   6.421  11.321   2.186  0.4560  0.5768 -0.4750
21521SOL    HW169374   6.510  11.316   2.220  1.4444  3.6211 -2.2161
21521SOL    HW269375   6.409  11.413   2.162 -2.8155  0.0916 -1.2487
21522SOL     OW69376   0.873  11.536   2.805 -0.1287 -0.1482  0.5537
21522SOL    HW169377   0.881  11.455   2.856  1.0295 -0.3218  0.1292
21522SOL    HW269378   0.939  11.528   2.737 -1.9911 -0.1607 -1.3431
21523SOL     OW69379   6.553   0.664   7.579 -0.3657 -0.1867 -0.1455
21523SOL    HW169380   6.500   0.729   7.533  0.9969  1.4430  0.4753
21523SOL    HW269381   6.642   0.677   7.546  0.1242 -0.9669  0.8010
21524SOL     OW69382  10.460   0.829  11.583 -0.5090  0.0332  0.3486
21524SOL    HW169383  10.420   0.899  11.531 -0.3784 -1.7192 -2.2631
21524SOL    HW269384  10.389   0.766  11.597  0.1368 -0.8100 -0.1140
21525SOL     OW69385   7.508   7.858   1.535  0.4746 -0.4076 -0.0273
21525SOL    HW169386   7.463   7.938   1.562 -0.7529 -0.7405 -0.9496
21525SOL    HW269387   7.481   7.846   1.444  0.1677 -2.1686  0.2595
21526SOL     OW69388  10.118   7.362  11.290 -0.6589 -0.4268 -0.1566
21526SOL    HW169389  10.061   7.286  11.282 -2.0854  0.5896 -0.0944
21526SOL    HW269390  10.123   7.398  11.202  0.5203 -0.9338 -0.3046
21527SOL     OW69391  12.233   7.468   1.319 -0.4604 -0.9090  0.3534
21527SOL    HW169392  12.244   7.525   1.395  0.4731 -1.7601  0.8789
21527SOL    HW269393  12.303   7.493   1.259 -0.0959 -1.4288  0.5512
21528SOL     OW69394   6.990   5.855  10.985  0.6935 -0.1017 -0.7429
21528SOL    HW169395   6.942   5.803  11.049  0.1806 -0.4308 -1.3789
21528SOL    HW269396   6.931   5.927  10.962 -0.4704 -1.6656 -3.1136
21529SOL     OW69397  12.082   3.378   5.977 -0.0809  0.6935 -0.1368
21529SOL    HW169398  12.087   3.320   5.901  1.4639 -0.8760  1.1101
21529SOL    HW269399  12.132   3.455   5.952  0.0380  0.3816 -0.8770
21530SOL     OW69400  12.186   1.779   5.738 -0.0459  0.0317  0.6080
21530SOL    HW169401  12.209   1.869   5.762  0.7687  0.4237 -1.3757
21530SOL    HW269402  12.119   1.790   5.670 -0.0812 -0.8754  0.4905
21531SOL     OW69403   4.374   2.332   3.793  0.7641 -0.1979  0.3766
21531SOL    HW169404   4.447   2.361   3.847  1.7166 -0.1932 -0.8630
21531SOL    HW269405   4.299   2.383   3.825  1.6164  0.8955  0.7090
21532SOL     OW69406   7.797   8.495   3.032 -0.4228 -0.3790 -0.7517
21532SOL    HW169407   7.829   8.541   2.954  0.6844  2.0946  1.0371
21532SOL    HW269408   7.839   8.410   3.028  0.6745  0.1840 -2.1822
21533SOL     OW69409   5.227   1.878  10.431  0.1848 -0.7475  0.5409
21533SOL    HW169410   5.298   1.923  10.386 -0.4025 -1.4884 -1.2212
21533SOL    HW269411   5.159   1.945  10.443  1.0518 -0.0969  2.0284
21534SOL     OW69412   3.645  11.419  10.531 -0.0121  0.0830  0.3506
21534SOL    HW169413   3.638  11.477  10.607 -0.0644 -0.9876  1.1807
21534SOL    HW269414   3.732  11.436  10.495 -1.0346  2.6924 -1.1186
21535SOL     OW69415  11.955   0.911   6.239  0.6644 -0.0673 -0.3954
21535SOL    HW169416  11.939   1.005   6.248 -1.4952 -0.4186  0.0376
21535SOL    HW269417  11.876   0.878   6.196  1.2659 -1.7342 -0.2784
21536SOL     OW69418   7.548   7.097   5.225 -0.4720  0.1137 -0.3183
21536SOL    HW169419   7.523   7.097   5.318 -0.3952  1.2687 -0.2804
21536SOL    HW269420   7.464   7.100   5.178 -0.5169  2.0657 -0.2185
21537SOL     OW69421   1.577   1.357   9.445 -0.2654  0.2083  0.1811
21537SOL    HW169422   1.640   1.415   9.402 -1.0545  0.9326 -0.0358
21537SOL    HW269423   1.624   1.274   9.455  0.0524  0.0841 -1.8195
21538SOL     OW69424   9.963   4.721   4.383  0.1413  0.3117  0.1943
21538SOL    HW169425   9.871   4.715   4.358  0.4989  0.6721 -1.2991
21538SOL    HW269426   9.993   4.804   4.345  1.4480 -0.4933 -0.5927
21539SOL     OW69427   3.845   5.797   1.605 -0.6059  0.2498 -0.4641
21539SOL    HW169428   3.831   5.815   1.698 -0.0507  3.3574 -0.8603
21539SOL    HW269429   3.758   5.775   1.572 -1.2609  1.4646  0.3773
21540SOL     OW69430  10.597  10.648   1.127 -0.4277  0.0457  0.0541
21540SOL    HW169431  10.505  10.675   1.133 -0.2298  0.5987  0.6084
21540SOL    HW269432  10.631  10.657   1.215  0.3039  0.3246 -0.2517
21541SOL     OW69433   2.346   3.972   9.324 -0.1045  0.4886 -0.0830
21541SOL    HW169434   2.432   3.998   9.291  0.2164 -1.2298 -0.7055
21541SOL    HW269435   2.359   3.884   9.358 -1.3024  0.7761  1.2127
21542SOL     OW69436   4.881   2.874   3.736 -0.4171 -0.8587 -0.3322
21542SOL    HW169437   4.850   2.954   3.692  0.9617  0.9711  1.7689
21542SOL    HW269438   4.802   2.833   3.769 -1.0739  0.4800 -0.1630
21543SOL     OW69439   5.609   7.679  12.270  0.2825 -0.2255 -0.4990
21543SOL    HW169440   5.523   7.694  12.230 -0.5323  0.2269  1.3231
21543SOL    HW269441   5.663   7.752  12.238 -0.6667  0.7648  0.0801
21544SOL     OW69442   0.789   9.607  12.011  0.7891  0.3658 -0.4140
21544SOL    HW169443   0.817   9.669  12.078 -0.9720 -0.1429  0.8864
21544SOL    HW269444   0.698   9.631  11.993  0.8091 -0.3748 -1.6120
21545SOL     OW69445   7.531   1.385   6.025 -0.4939  0.1828  0.3477
21545SOL    HW169446   7.527   1.361   5.932 -0.8664  0.1791  0.3624
21545SOL    HW269447   7.472   1.324   6.068  0.0666 -0.1440  0.6628
21546SOL     OW69448   9.825   5.062   6.782  0.5486  0.0248  0.0266
21546SOL    HW169449   9.852   4.999   6.716 -0.2039  0.4822 -0.7343
21546SOL    HW269450   9.811   5.143   6.734  1.9215  0.9219  1.0515
21547SOL     OW69451   9.977  11.179   1.094 -0.2385 -0.6624  0.1723
21547SOL    HW169452   9.956  11.150   1.005 -0.6708 -1.0315  0.3896
21547SOL    HW269453  10.060  11.225   1.085 -1.1782  0.9758 -0.7613
21548SOL     OW69454   7.371   2.486   3.039  0.4502  0.1917 -0.1499
21548SOL    HW169455   7.420   2.405   3.055 -0.9654 -1.0154 -1.6097
21548SOL    HW269456   7.289   2.474   3.086  0.4593  1.0633  0.1110
21549SOL     OW69457   9.048   8.768   7.954 -0.1349 -0.0793  0.1616
21549SOL    HW169458   9.101   8.773   7.874  0.3166  2.3576  0.5278
21549SOL    HW269459   9.057   8.854   7.994 -2.9752 -0.1381  1.1734
21550SOL     OW69460   9.197   6.109   8.330  0.6567  0.2853 -0.3541
21550SOL    HW169461   9.284   6.092   8.295  1.8749  0.3606  2.4203
21550SOL    HW269462   9.197   6.203   8.348  0.9274 -0.1029  1.8613
21551SOL     OW69463   2.621   1.063  11.485 -0.2337  0.4039  0.2350
21551SOL    HW169464   2.662   1.112  11.414  0.1447 -0.3815 -0.0957
21551SOL    HW269465   2.568   0.996  11.441 -1.0722  0.7633  0.6735
21552SOL     OW69466  11.958  11.110   8.495 -0.2456 -0.4969  0.1642
21552SOL    HW169467  12.036  11.102   8.441 -1.0280  0.0408 -1.1152
21552SOL    HW269468  11.943  11.204   8.501 -2.6630 -0.5747 -2.5422
21553SOL     OW69469   9.150   3.734   8.055  0.3823 -0.4629 -0.1686
21553SOL    HW169470   9.208   3.662   8.080 -1.0882 -1.2479  1.2454
21553SOL    HW269471   9.115   3.707   7.970  1.7568 -0.1552 -0.8590
21554SOL     OW69472   4.295   1.610   3.945 -0.1769  0.4630  0.1019
21554SOL    HW169473   4.232   1.596   4.016 -1.6555  1.5145 -0.9515
21554SOL    HW269474   4.270   1.547   3.878  1.0550 -0.3505  0.3816
21555SOL     OW69475   4.946   8.816   7.515  0.0221 -0.1099  0.3380
21555SOL    HW169476   4.892   8.737   7.516  0.3164 -0.3084  1.2175
21555SOL    HW269477   4.906   8.873   7.580 -0.0410  0.3719 -0.1180
21556SOL     OW69478   6.278   7.094   5.241  0.6056  0.5107  0.1017
21556SOL    HW169479   6.251   7.109   5.332  1.0216 -0.7252  0.4484
21556SOL    HW269480   6.221   7.151   5.190  0.5716  1.4657  1.1480
21557SOL     OW69481   1.551   9.969  10.252  0.1383  0.5624  0.1485
21557SOL    HW169482   1.502  10.041  10.292  0.7753  0.8093  0.5125
21557SOL    HW269483   1.504   9.949  10.171 -0.6128  0.7192  0.5378
21558SOL     OW69484   0.786   7.265   1.082  0.0461  0.3551  0.1978
21558SOL    HW169485   0.841   7.187   1.069 -1.0645 -0.6968  1.5435
21558SOL    HW269486   0.825   7.310   1.157  0.1065  0.5775  0.0342
21559SOL     OW69487   4.302   8.133   7.443  0.5822  0.3631  0.4355
21559SOL    HW169488   4.318   8.176   7.527  2.4308  0.0300  0.2911
21559SOL    HW269489   4.246   8.059   7.464  0.4788  0.6640  1.2700
21560SOL     OW69490   6.513   0.204   8.065 -0.4490  0.5777  0.1248
21560SOL    HW169491   6.564   0.124   8.053  0.0456  1.1410 -2.0227
21560SOL    HW269492   6.434   0.175   8.110  1.1116 -0.5372  2.3511
21561SOL     OW69493   8.715   7.059   2.895 -0.8845 -0.3530  0.1460
21561SOL    HW169494   8.711   7.066   2.800  0.8317 -0.0301  0.0800
21561SOL    HW269495   8.752   7.142   2.924 -1.8755 -0.2377  1.1520
21562SOL     OW69496  10.366   4.055  12.055 -0.0289 -0.2162 -0.3667
21562SOL    HW169497  10.458   4.081  12.048 -0.1705 -0.1632 -3.1732
21562SOL    HW269498  10.369   3.969  12.098  1.2220  0.1826  0.4003
21563SOL     OW69499   8.586   3.543  12.622 -0.2857 -0.1804  0.0358
21563SOL    HW169500   8.518   3.592  12.669 -1.4256 -1.2380 -0.4561
21563SOL    HW269501   8.635   3.499  12.691 -0.8466 -0.3385  0.3424
21564SOL     OW69502   4.913   8.742   1.916  0.2812 -0.0870 -0.0369
21564SOL    HW169503   4.930   8.651   1.940  0.1037 -0.2318 -0.4557
21564SOL    HW269504   4.986   8.791   1.954  1.3482 -0.6273 -1.3031
21565SOL     OW69505   4.341   0.218  12.452  0.0868 -0.0255 -0.0760
21565SOL    HW169506   4.377   0.159  12.386 -2.2102 -1.3965 -0.1887
21565SOL    HW269507   4.248   0.197  12.455 -0.7559  3.2705  0.2669
21566SOL     OW69508   1.418   8.963   0.286  0.6516 -0.0858 -0.0850
21566SOL    HW169509   1.454   8.877   0.263  1.2678  0.1199  0.0916
21566SOL    HW269510   1.324   8.954   0.271  0.3436 -1.5642  2.1583
21567SOL     OW69511   6.818   2.415   8.871 -0.3656  0.2979 -0.1590
21567SOL    HW169512   6.784   2.409   8.961  0.9038 -0.7330  0.2761
21567SOL    HW269513   6.814   2.326   8.838  3.4346 -0.3322  0.5512
21568SOL     OW69514   3.851   9.826   5.113 -0.4866  0.7344 -0.5496
21568SOL    HW169515   3.906   9.769   5.168 -1.9039  0.8962  1.1394
21568SOL    HW269516   3.908   9.899   5.090  0.7442 -0.3320 -0.9933
21569SOL     OW69517   5.209   6.874   2.796  0.5884  0.2406  0.4814
21569SOL    HW169518   5.173   6.874   2.707  1.2852 -0.5289  0.1785
21569SOL    HW269519   5.162   6.803   2.841  0.9825 -0.0871  0.3901
21570SOL     OW69520   8.157   3.968   0.768  0.3475 -0.0789 -0.0566
21570SOL    HW169521   8.108   3.888   0.748 -0.7388  0.2403  1.1458
21570SOL    HW269522   8.244   3.938   0.792 -0.0809 -0.9301  0.4952
21571SOL     OW69523  10.463   9.234   0.492 -0.7962  0.8346  0.2543
21571SOL    HW169524  10.450   9.139   0.491  3.5013  0.0484  0.9392
21571SOL    HW269525  10.404   9.267   0.424 -3.0821 -2.1430  0.6005
21572SOL     OW69526   4.553  12.367   4.393 -0.6054 -0.0973  0.0316
21572SOL    HW169527   4.575  12.459   4.404 -0.2748 -0.4303  3.1205
21572SOL    HW269528   4.626  12.320   4.433 -1.6153 -1.6090  0.1758
21573SOL     OW69529   2.080  11.912   9.500 -0.6889  0.3952  0.1536
21573SOL    HW169530   1.997  11.911   9.453 -0.0771  1.4357 -1.0237
21573SOL    HW269531   2.130  11.838   9.465 -0.9705 -0.0009  0.5866
21574SOL     OW69532   5.733   2.197   4.519 -0.1076  0.0044  0.2026
21574SOL    HW169533   5.707   2.219   4.429 -1.9236 -0.3704  0.6013
21574SOL    HW269534   5.829   2.205   4.518  0.0457 -0.9762 -2.0556
21575SOL     OW69535   1.074   5.521   7.611 -0.1589  0.3845 -0.1559
21575SOL    HW169536   1.082   5.432   7.579 -2.4450 -0.8511  2.3025
21575SOL    HW269537   1.001   5.559   7.562 -1.1100 -0.1668  0.7894
21576SOL     OW69538   5.132   2.454   8.359 -0.1490  0.0751  0.1473
21576SOL    HW169539   5.183   2.374   8.368  1.5290  1.2861  2.1948
21576SOL    HW269540   5.070   2.451   8.432 -2.0652 -0.6372 -1.4219
21577SOL     OW69541   6.905   4.489   2.821  0.1059 -0.5966  0.1710
21577SOL    HW169542   6.858   4.538   2.890  0.3280 -1.0369  0.6408
21577SOL    HW269543   6.885   4.537   2.741  0.1433  0.1474  0.5910
21578SOL     OW69544   9.138  10.456   6.338  0.6838 -0.0778  0.0390
21578SOL    HW169545   9.225  10.429   6.366  1.5265  2.4845  0.1425
21578SOL    HW269546   9.140  10.448   6.243  1.1772  0.3195  0.0110
21579SOL     OW69547   5.953   0.222   6.430 -0.6179 -0.1450 -0.1708
21579SOL    HW169548   6.046   0.214   6.412 -0.0910 -1.0443  2.4984
21579SOL    HW269549   5.910   0.198   6.348  1.4323  2.1922 -2.0858
21580SOL     OW69550   8.534   3.585   6.179 -0.8126  0.0643 -0.1617
21580SOL    HW169551   8.586   3.518   6.223  0.3441  1.1110  0.1040
21580SOL    HW269552   8.547   3.570   6.086 -0.1381  0.2342 -0.0960
21581SOL     OW69553   7.678   0.237   2.764  0.4022  0.5964 -0.3333
21581SOL    HW169554   7.748   0.301   2.753  0.7027  0.3754  0.2487
21581SOL    HW269555   7.713   0.157   2.725  0.8906  0.2106  0.8383
21582SOL     OW69556   7.408   3.841  11.988  0.2973  0.3973  0.5236
21582SOL    HW169557   7.404   3.764  11.932 -1.0101 -0.4945  1.7532
21582SOL    HW269558   7.487   3.829  12.040 -1.1311 -1.4829  2.4486
21583SOL     OW69559   1.572  11.489  12.414  0.0188  0.2019  0.0491
21583SOL    HW169560   1.490  11.455  12.379  0.5622 -1.8695  0.6733
21583SOL    HW269561   1.627  11.504  12.337 -0.3512 -0.0490 -0.2664
21584SOL     OW69562   6.568   2.423  10.303 -0.2701 -0.0234  0.5793
21584SOL    HW169563   6.522   2.503  10.326 -3.3916 -1.2178 -0.9448
21584SOL    HW269564   6.576   2.376  10.386 -0.6894  0.7743  1.0883
21585SOL     OW69565   2.502   4.224   4.590 -0.6578 -0.4233 -0.6568
21585SOL    HW169566   2.435   4.269   4.641 -0.6250 -0.4851 -0.5582
21585SOL    HW269567   2.583   4.240   4.639 -0.6480 -0.5998 -0.6150
21586SOL     OW69568   8.371   3.703   8.521 -0.4524 -0.4050 -0.8155
21586SOL    HW169569   8.380   3.798   8.531 -0.7920 -0.4039 -0.4964
21586SOL    HW269570   8.460   3.669   8.526 -0.4859 -0.3187  1.3541
21587SOL     OW69571   7.147   7.981   2.459  0.3113 -0.1156  1.0694
21587SOL    HW169572   7.094   8.048   2.415  2.9600  0.3458 -1.7611
21587SOL    HW269573   7.122   7.899   2.417 -0.3045 -0.3805  1.9293
21588SOL     OW69574  12.490   4.847   8.137  0.1819  0.6108 -0.0838
21588SOL    HW169575  12.418   4.906   8.159  0.4251  1.4993 -1.5456
21588SOL    HW269576  12.563   4.905   8.116  1.4898 -0.2668  1.6870
21589SOL     OW69577   5.336   0.019   7.633 -0.3208 -0.0469  0.1603
21589SOL    HW169578   5.248   0.014   7.596 -0.9814  0.4180  1.5851
21589SOL    HW269579   5.324   0.065   7.716  1.3871  0.6827  0.0420
21590SOL     OW69580  11.693   8.275   9.097 -0.6368  0.2275 -0.3705
21590SOL    HW169581  11.764   8.325   9.058  0.0494 -1.1850 -1.0182
21590SOL    HW269582  11.668   8.211   9.030 -2.8004  0.9090 -0.3150
21591SOL     OW69583   7.460   0.161   3.096  0.2739 -0.2764 -0.0780
21591SOL    HW169584   7.536   0.146   3.040  0.1912 -0.7665 -0.0588
21591SOL    HW269585   7.494   0.152   3.185 -0.0006 -1.4721 -0.0793
21592SOL     OW69586   8.838   5.202   9.103  0.0126 -0.0669 -0.0537
21592SOL    HW169587   8.837   5.295   9.081  0.4901 -0.0312  0.0868
21592SOL    HW269588   8.839   5.199   9.198  0.2747 -0.2159 -0.0599
21593SOL     OW69589   0.759  12.369   5.453 -0.1179  0.0440  0.3327
21593SOL    HW169590   0.847  12.344   5.479  0.6158 -0.3581 -2.2300
21593SOL    HW269591   0.758  12.465   5.458  1.3435  0.2437 -1.9003
21594SOL     OW69592  10.443   1.597  10.153  0.1011 -0.7056  0.5815
21594SOL    HW169593  10.409   1.585  10.064 -1.8732  0.9707  1.0375
21594SOL    HW269594  10.499   1.674  10.147 -2.5962  1.5100  1.2656
21595SOL     OW69595  11.172   7.949   8.250 -0.5041 -0.0679 -0.1405
21595SOL    HW169596  11.232   7.972   8.320 -0.4289 -1.3368  0.2392
21595SOL    HW269597  11.207   7.868   8.213  0.4223  1.4217 -2.8093
21596SOL     OW69598  11.069   8.469   0.605  0.2298  0.2224  0.3565
21596SOL    HW169599  11.082   8.542   0.665  2.0250 -0.1567  0.5018
21596SOL    HW269600  11.105   8.393   0.652  0.6783 -0.2800 -0.7666
21597SOL     OW69601   2.303  10.279   7.309  0.0827  0.0486  0.6177
21597SOL    HW169602   2.301  10.375   7.302  0.3338  0.2172  2.4209
21597SOL    HW269603   2.394  10.256   7.293 -0.2229 -0.0447 -1.1633
21598SOL     OW69604   7.053   3.403   0.784  0.2356 -0.0937  0.2969
21598SOL    HW169605   7.018   3.489   0.759 -0.0314 -0.0320  0.8696
21598SOL    HW269606   7.022   3.390   0.873  0.9102 -0.4527  0.4847
21599SOL     OW69607   2.685  12.188  12.016 -0.3488  0.0864  0.3216
21599SOL    HW169608   2.707  12.275  11.983 -0.7612  0.1778  0.2733
21599SOL    HW269609   2.612  12.159  11.961  1.4743 -1.4485 -1.4713
21600SOL     OW69610  12.092  10.798   1.585  0.1127 -0.2921 -0.2218
21600SOL    HW169611  12.141  10.850   1.521  0.9213 -0.4589  0.2599
21600SOL    HW269612  12.109  10.841   1.669  0.1628 -0.8809  0.0753
21601SOL     OW69613   7.585   5.937  10.932 -0.4693  0.4704  0.7251
21601SOL    HW169614   7.599   6.030  10.946 -0.9839  0.5721  0.5889
21601SOL    HW269615   7.652   5.912  10.867  0.5790  0.4375  1.7852
21602SOL     OW69616   1.478   5.588   8.798 -0.8695  0.5942  0.0353
21602SOL    HW169617   1.499   5.562   8.888  0.9708  1.8137  0.0027
21602SOL    HW269618   1.551   5.555   8.746 -0.8130  1.7824 -0.6743
21603SOL     OW69619  10.343   8.622  11.497  0.1644 -0.4120  0.2200
21603SOL    HW169620  10.281   8.549  11.506  0.4368 -0.4462  2.1714
21603SOL    HW269621  10.424   8.580  11.469  0.0778 -0.7540  0.4652
21604SOL     OW69622   0.219   5.895   5.619  0.2386  0.2658 -0.1835
21604SOL    HW169623   0.311   5.919   5.617  1.1077 -2.6244  0.3247
21604SOL    HW269624   0.181   5.952   5.686  2.1529  0.0348  1.1833
21605SOL     OW69625   9.494   6.954   1.798  0.3534  0.0214  0.1051
21605SOL    HW169626   9.410   6.984   1.764 -0.2481  1.7816  2.7731
21605SOL    HW269627   9.524   7.025   1.855  1.1366 -2.5365  3.2439
21606SOL     OW69628   7.059   4.712  11.395  0.1985  0.2823  0.1241
21606SOL    HW169629   6.964   4.720  11.405  0.2938  0.2861  1.1322
21606SOL    HW269630   7.093   4.726  11.484  1.2497  1.9539 -0.4961
21607SOL     OW69631  10.819   4.406   0.755  0.2718  0.6158 -0.1835
21607SOL    HW169632  10.797   4.499   0.768 -0.8172  0.3047  0.2968
21607SOL    HW269633  10.868   4.382   0.834 -0.6206  0.4443  0.3324
21608SOL     OW69634   5.440  11.516  10.832  0.2677 -0.4872  0.3699
21608SOL    HW169635   5.403  11.450  10.890  0.4720 -1.0579 -0.1377
21608SOL    HW269636   5.531  11.525  10.862  0.4520 -0.9817 -0.0272
21609SOL     OW69637   2.216   8.438   7.103  0.6947  0.3349  0.0794
21609SOL    HW169638   2.123   8.435   7.079 -0.0157 -1.3771  2.6321
21609SOL    HW269639   2.262   8.452   7.020 -1.8543  2.3340 -1.1208
21610SOL     OW69640   9.964   4.774   4.037  0.4342 -0.1696  0.0499
21610SOL    HW169641  10.037   4.712   4.027  0.5784 -0.5145  2.6489
21610SOL    HW269642   9.972   4.807   4.126 -1.0714  1.8084 -0.4827
21611SOL     OW69643   8.949   8.670   0.705  0.6213  1.3387 -0.2819
21611SOL    HW169644   8.951   8.615   0.627  1.6297 -0.3795  0.8910
21611SOL    HW269645   8.875   8.637   0.756  1.1806  1.0981  0.3926
21612SOL     OW69646  12.408   8.875   1.836  0.0987  0.4756 -0.2557
21612SOL    HW169647  12.425   8.969   1.833  0.3993  0.4067 -2.3894
21612SOL    HW269648  12.474   8.840   1.896  0.2774  1.5594  0.1984
21613SOL     OW69649   9.532   5.207   9.405  0.2275 -0.4389 -0.2705
21613SOL    HW169650   9.571   5.288   9.435 -1.3195  0.6358 -1.0401
21613SOL    HW269651   9.468   5.184   9.473  1.3105 -1.5652  0.4155
21614SOL     OW69652  10.340   8.355   5.852  0.0180  0.3611  0.3518
21614SOL    HW169653  10.318   8.321   5.766  2.0227  0.9970 -0.4628
21614SOL    HW269654  10.407   8.295   5.886  0.4388  1.0415  0.7545
21615SOL     OW69655  12.107   6.781   2.448 -0.1332 -0.3032  0.0844
21615SOL    HW169656  12.086   6.872   2.467 -2.0080 -0.7459  0.3302
21615SOL    HW269657  12.056   6.730   2.511  1.0244 -1.5417  0.0776
21616SOL     OW69658  10.752   7.803   9.748  0.2097 -0.3121  0.0649
21616SOL    HW169659  10.785   7.715   9.765  0.7483 -0.1426 -0.0803
21616SOL    HW269660  10.829   7.860   9.756 -0.4191  0.3507  1.6676
21617SOL     OW69661   4.961   4.587  11.838  0.0435  0.3476  0.5811
21617SOL    HW169662   4.931   4.583  11.929  0.0986 -0.4054  0.5723
21617SOL    HW269663   4.960   4.496  11.809  0.3530  0.5505 -0.0687
21618SOL     OW69664  10.968   8.798   0.027  0.7571  0.1282 -1.1318
21618SOL    HW169665  10.951   8.873  -0.030 -0.7758  1.9551  1.5172
21618SOL    HW269666  10.917   8.815   0.106 -0.1098 -4.0265 -0.5590
21619SOL     OW69667   4.006   2.404   9.417  0.4386 -0.2701  0.2464
21619SOL    HW169668   3.932   2.343   9.413  1.3783 -1.5694  1.6443
21619SOL    HW269669   4.060   2.381   9.342  0.9473 -1.4213  0.9368
21620SOL     OW69670   7.494   6.937  10.780  0.2489  0.0379  0.3347
21620SOL    HW169671   7.567   6.950  10.841  2.1406  1.1758 -1.9958
21620SOL    HW269672   7.493   6.843  10.763  1.8879  0.0876 -0.3001
21621SOL     OW69673   0.863   8.773   9.229  0.2520  0.1944 -0.1551
21621SOL    HW169674   0.886   8.713   9.300 -1.3082 -0.2268  0.0223
21621SOL    HW269675   0.820   8.846   9.272  0.0741  0.3491 -0.5951
21622SOL     OW69676  12.456   0.412   4.441  0.0195  0.2633 -0.4777
21622SOL    HW169677  12.373   0.435   4.398  0.3243 -0.6154 -1.5867
21622SOL    HW269678  12.505   0.364   4.374  0.9669 -0.2210  0.5354
21623SOL     OW69679   4.169  10.557   1.357 -0.1637  0.4936 -0.0732
21623SOL    HW169680   4.171  10.577   1.450  1.8569  0.9485 -0.1602
21623SOL    HW269681   4.259  10.530   1.336 -0.3735  1.1409 -2.0297
21624SOL     OW69682   4.132   4.054   4.466  0.3450  0.1268  0.6575
21624SOL    HW169683   4.139   3.961   4.445 -2.2658  0.0751 -0.3625
21624SOL    HW269684   4.124   4.058   4.561 -2.1741 -0.9827  0.5463
21625SOL     OW69685   4.410   1.692  12.602  0.1328  0.9123 -0.4497
21625SOL    HW169686   4.503   1.715  12.602  0.6543 -0.4075  3.7430
21625SOL    HW269687   4.408   1.598  12.586 -0.2325  0.5885  1.2729
21626SOL     OW69688   5.944   1.509   1.188  0.4595  0.2156  0.0118
21626SOL    HW169689   5.976   1.595   1.160 -0.2465  0.4115 -0.2037
21626SOL    HW269690   5.849   1.515   1.183  0.3757 -0.3363  0.7405
21627SOL     OW69691   9.119   2.849   4.586 -0.1539  0.0629  0.7868
21627SOL    HW169692   9.129   2.830   4.492 -0.2285  2.9841  0.0854
21627SOL    HW269693   9.027   2.832   4.604  0.3311 -2.7933  0.9977
21628SOL     OW69694   2.944  11.661   2.880 -0.0517  0.7564 -0.6668
21628SOL    HW169695   3.007  11.671   2.808  1.8887 -1.4224  0.6003
21628SOL    HW269696   2.909  11.572   2.870 -0.3292  0.6980  0.6235
21629SOL     OW69697   5.716   2.663   5.179 -0.3292  0.7592 -0.2762
21629SOL    HW169698   5.654   2.715   5.231 -1.1141 -1.2533  0.9249
21629SOL    HW269699   5.788   2.723   5.161 -1.1268  2.2235  1.1315
21630SOL     OW69700   9.478   7.627   5.148 -0.6114 -0.0619  0.3375
21630SOL    HW169701   9.491   7.672   5.232 -0.1227 -0.2723  0.3775
21630SOL    HW269702   9.487   7.697   5.083 -0.7537  0.0598  0.4464
21631SOL     OW69703   9.473   8.937   6.270  0.0211  0.3993  0.2882
21631SOL    HW169704   9.508   9.012   6.319 -0.0726  0.3321  0.4605
21631SOL    HW269705   9.444   8.875   6.338  4.0508 -1.7634  0.3635
21632SOL     OW69706   7.620   8.393   2.102  0.0585  0.1572  0.1613
21632SOL    HW169707   7.620   8.489   2.109  0.1012  0.2774 -1.2604
21632SOL    HW269708   7.689   8.374   2.039 -1.6174 -0.6343 -1.5392
21633SOL     OW69709   3.097   1.759   0.977 -1.0138  0.0289  0.2630
21633SOL    HW169710   3.035   1.789   0.911 -1.7622 -0.0229  0.9276
21633SOL    HW269711   3.128   1.675   0.945 -2.4400 -0.6672  0.6503
21634SOL     OW69712  11.667  11.929   7.485 -0.1815 -0.1975 -0.0506
21634SOL    HW169713  11.665  11.975   7.401  0.4920 -0.1760 -0.0635
21634SOL    HW269714  11.726  11.981   7.540 -2.6460  1.2934  1.3640
21635SOL     OW69715  12.116   2.613   6.967  0.1985 -0.3594 -0.0537
21635SOL    HW169716  12.026   2.640   6.953  0.1579 -1.1271 -1.4122
21635SOL    HW269717  12.113   2.517   6.969  0.9842 -0.3982 -0.1418
21636SOL     OW69718  12.082   4.644   3.310  0.2844 -0.2967  0.3677
21636SOL    HW169719  12.128   4.676   3.232  1.2302 -0.5701  0.8002
21636SOL    HW269720  12.018   4.582   3.276  0.1742  0.1460 -0.2524
21637SOL     OW69721   9.172  11.024  10.299  0.3512  0.2579 -0.0640
21637SOL    HW169722   9.140  11.008  10.211 -1.7837  1.9527  0.3386
21637SOL    HW269723   9.152  11.116  10.316 -0.3837 -0.3117  2.6025
21638SOL     OW69724  10.892   9.364   5.350  0.3603 -0.0394  0.6207
21638SOL    HW169725  10.926   9.423   5.283  0.5935  1.9871  2.4170
21638SOL    HW269726  10.903   9.276   5.313 -1.8524  0.9982 -3.0287
21639SOL     OW69727   7.364   1.061   3.792 -0.1429  0.9291 -0.0021
21639SOL    HW169728   7.362   1.066   3.697  0.7726 -1.4194 -0.2209
21639SOL    HW269729   7.457   1.063   3.814 -0.3286  0.9881  0.8149
21640SOL     OW69730   0.310   2.932   9.747  0.2244  0.2667 -0.3954
21640SOL    HW169731   0.293   3.026   9.736 -1.8355  0.2764  1.9773
21640SOL    HW269732   0.258   2.890   9.679 -0.4036  0.7835 -0.2428
21641SOL     OW69733  12.571  12.070   9.846  0.1990  0.3222  0.4087
21641SOL    HW169734  12.557  12.164   9.842 -0.9475  0.1495 -0.0487
21641SOL    HW269735  12.650  12.055   9.795 -1.2126  0.7485 -2.0463
21642SOL     OW69736   6.705   8.008   5.968  0.1730  0.2210  0.3855
21642SOL    HW169737   6.757   7.947   5.915  1.0891 -0.1466  1.6606
21642SOL    HW269738   6.681   7.957   6.045 -2.2945  0.3148 -0.2472
21643SOL     OW69739  11.846   4.570   3.224  0.2087  0.1974 -0.0585
21643SOL    HW169740  11.809   4.487   3.195  1.4446 -0.1206 -0.7783
21643SOL    HW269741  11.795   4.593   3.302 -1.6364 -0.0839 -1.1291
21644SOL     OW69742   0.883   6.127   4.309 -0.2281  0.2998 -0.1802
21644SOL    HW169743   0.870   6.050   4.364 -1.7419  0.3950 -0.3619
21644SOL    HW269744   0.822   6.116   4.236 -2.0330  2.5940  0.8318
21645SOL     OW69745  11.241   2.897   8.112  0.2869 -0.0283  0.1953
21645SOL    HW169746  11.318   2.841   8.115 -0.5711 -1.2021  1.0531
21645SOL    HW269747  11.194   2.870   8.033 -0.2037 -0.6517  0.6885
21646SOL     OW69748   8.891   9.459  11.080  0.8845 -0.0726 -0.1583
21646SOL    HW169749   8.894   9.549  11.112  0.9275 -0.7442  1.8977
21646SOL    HW269750   8.942   9.410  11.144  1.0319 -1.5388 -1.3591
21647SOL     OW69751   9.657   8.212   9.177  0.4042  0.1886 -0.3465
21647SOL    HW169752   9.613   8.294   9.201 -0.4816 -0.1752 -0.6939
21647SOL    HW269753   9.627   8.194   9.087  0.9951 -0.2488 -0.4610
21648SOL     OW69754   2.964   6.291  10.691  0.4089 -0.4208 -0.5895
21648SOL    HW169755   2.951   6.384  10.707  0.0880 -0.6344  0.4635
21648SOL    HW269756   3.003   6.287  10.603 -0.4955  0.6423 -1.0739
21649SOL     OW69757   2.559   6.422   2.465 -0.5328 -0.4617  0.5118
21649SOL    HW169758   2.562   6.327   2.454 -0.1585 -0.6882  2.2579
21649SOL    HW269759   2.465   6.443   2.466 -0.6386 -0.9309  0.9574
21650SOL     OW69760   7.634   1.166   7.647  0.3270  0.2164  0.2876
21650SOL    HW169761   7.632   1.170   7.742  2.3804 -0.6571  0.4076
21650SOL    HW269762   7.721   1.196   7.622  0.8695 -2.1767 -1.0981
21651SOL     OW69763   5.787   4.425   8.992 -0.5564 -0.3455 -0.3398
21651SOL    HW169764   5.844   4.459   8.923  1.3533  0.3787  1.4815
21651SOL    HW269765   5.736   4.501   9.019  0.9295  0.2187  1.0768
21652SOL     OW69766   7.074   4.106   7.151  0.6510  0.1756  0.0952
21652SOL    HW169767   6.981   4.102   7.129  0.5309  0.8098  0.4666
21652SOL    HW269768   7.118   4.060   7.079  0.0328 -0.3489  0.0504
21653SOL     OW69769   3.194   7.999   6.889 -0.3748 -0.0385 -0.6294
21653SOL    HW169770   3.180   7.924   6.831 -0.5065  0.0507 -0.7134
21653SOL    HW269771   3.280   8.033   6.863 -0.7076  0.3887 -1.2172
21654SOL     OW69772   4.430   0.250   5.169  0.0252  0.7895  0.0881
21654SOL    HW169773   4.382   0.247   5.087 -0.9251  1.5990  0.5895
21654SOL    HW269774   4.475   0.334   5.168 -0.5072  1.0939  0.6540
21655SOL     OW69775   8.062   4.719  10.469 -0.1731 -0.5954  0.5693
21655SOL    HW169776   8.129   4.711  10.537 -1.2044  0.7454  1.8138
21655SOL    HW269777   8.095   4.788  10.411  0.8873 -2.0038 -0.5570
21656SOL     OW69778  10.447   2.664   3.680 -0.2661  0.0805 -0.1281
21656SOL    HW169779  10.533   2.705   3.676 -1.0110  1.6648 -0.4747
21656SOL    HW269780  10.466   2.570   3.687  1.5363 -0.2138 -5.0779
21657SOL     OW69781   9.490  10.270   2.987 -0.1539 -0.3646  0.3798
21657SOL    HW169782   9.459  10.185   2.957 -0.0305 -0.7006  1.1791
21657SOL    HW269783   9.585  10.267   2.975 -0.1541 -0.3200  0.3646
21658SOL     OW69784   9.107   3.833   2.130 -0.7379 -0.3415 -0.0308
21658SOL    HW169785   9.078   3.793   2.213  0.2535 -2.3766 -0.5949
21658SOL    HW269786   9.195   3.864   2.149 -1.6381  2.0920  0.5119
21659SOL     OW69787  11.349  11.754   3.879  0.3894 -0.2838 -0.5816
21659SOL    HW169788  11.274  11.731   3.933  0.8104 -1.6823 -0.5440
21659SOL    HW269789  11.313  11.807   3.808 -0.0418  2.5107  1.5393
21660SOL     OW69790   2.207   2.246  12.166  0.2709  0.1197 -0.3737
21660SOL    HW169791   2.173   2.324  12.122 -0.3065 -0.4650 -0.9828
21660SOL    HW269792   2.282   2.219  12.113  1.1329  0.8489  0.4281
21661SOL     OW69793   5.629   4.217   2.686  0.1353 -0.5806  0.2748
21661SOL    HW169794   5.696   4.179   2.629  0.6963  1.0411 -0.2236
21661SOL    HW269795   5.584   4.281   2.631  0.2132  0.5193  1.4321
21662SOL     OW69796   4.643   3.981   2.865 -0.6890  0.1298  0.0420
21662SOL    HW169797   4.570   3.941   2.912 -0.9252  0.6103  0.0843
21662SOL    HW269798   4.704   4.009   2.934 -1.8454  2.4446  0.1969
21663SOL     OW69799   0.950   1.674   7.408 -0.0408  0.5723  0.1858
21663SOL    HW169800   0.905   1.631   7.481  0.1884 -0.2307 -0.1267
21663SOL    HW269801   0.890   1.742   7.379 -1.2705 -0.7589 -0.5227
21664SOL     OW69802   9.455  11.916   6.320 -0.0812 -0.7738 -0.2834
21664SOL    HW169803   9.413  11.921   6.234 -0.9000 -0.9204  0.1002
21664SOL    HW269804   9.476  11.824   6.331 -1.9289 -1.1319  0.5675
21665SOL     OW69805  12.158  11.935   6.065  0.4218 -0.4981 -0.0493
21665SOL    HW169806  12.144  11.848   6.029  0.6759 -0.6288  0.1657
21665SOL    HW269807  12.073  11.979   6.055  0.6864 -0.2514 -1.5444
21666SOL     OW69808   8.305  11.900  11.310 -0.3052 -0.1445  0.0648
21666SOL    HW169809   8.217  11.907  11.348 -0.4546  0.2678 -0.3641
21666SOL    HW269810   8.350  11.980  11.338 -0.1511 -0.2251  0.0502
21667SOL     OW69811   9.144  11.009   8.464 -0.4307  0.4316  0.0632
21667SOL    HW169812   9.196  11.088   8.452  0.5868 -0.2907 -0.4596
21667SOL    HW269813   9.113  10.987   8.376 -1.6907  0.8848  0.3769
21668SOL     OW69814   2.358   8.256   1.209  0.0502 -0.6144  0.3738
21668SOL    HW169815   2.431   8.260   1.148  1.1172  1.4795  1.6549
21668SOL    HW269816   2.366   8.172   1.253  1.7354 -0.4047  0.5131
21669SOL     OW69817   8.332   8.547   3.045 -0.1551  0.3919  0.0682
21669SOL    HW169818   8.258   8.581   2.994  0.6212  0.5282 -1.0128
21669SOL    HW269819   8.298   8.538   3.134 -1.9518 -1.1337 -0.7148
21670SOL     OW69820   6.636   3.127  11.977  1.0763  0.0332  0.8082
21670SOL    HW169821   6.568   3.172  12.027 -0.1522  0.0593 -0.8107
21670SOL    HW269822   6.639   3.039  12.016  0.5428  0.2212  1.2955
21671SOL     OW69823   1.753  12.115   8.970 -0.1259 -0.4844 -0.1892
21671SOL    HW169824   1.759  12.159   9.055 -0.0059 -0.8652  0.0032
21671SOL    HW269825   1.707  12.034   8.989  0.2453 -0.7509 -0.4184
21672SOL     OW69826   7.691   0.060   2.978  0.4268 -0.1186 -0.1126
21672SOL    HW169827   7.705   0.131   2.916  0.2396  0.4346  0.4701
21672SOL    HW269828   7.642  -0.006   2.929  0.8117  0.0465 -0.7224
21673SOL     OW69829   5.999   7.303   3.064 -0.1260 -0.0028  0.8657
21673SOL    HW169830   5.934   7.276   3.000 -0.5193 -1.2799  1.7462
21673SOL    HW269831   6.037   7.383   3.029 -1.0644 -0.1024 -0.4270
21674SOL     OW69832   2.255   2.438   4.947  0.2537  0.2344 -0.0890
21674SOL    HW169833   2.227   2.526   4.972 -0.4284 -0.1766  0.6127
21674SOL    HW269834   2.190   2.409   4.884  0.1401 -0.0014  0.1363
21675SOL     OW69835  12.610   8.870   1.620 -0.1800  0.0737  0.4285
21675SOL    HW169836  12.565   8.953   1.611  1.7601  1.1065 -0.2825
21675SOL    HW269837  12.700   8.893   1.644  0.3962 -1.8183  0.2847
21676SOL     OW69838   6.785  12.144   5.618 -0.0119 -0.0129 -0.5554
21676SOL    HW169839   6.807  12.056   5.587 -1.5643 -0.7025  0.1739
21676SOL    HW269840   6.830  12.152   5.701  2.0530  0.8402 -1.6872
21677SOL     OW69841   5.941   3.083   0.029 -0.5269 -0.0637  0.6097
21677SOL    HW169842   5.983   3.006  -0.008  0.7701  0.1473  1.5599
21677SOL    HW269843   5.941   3.068   0.124  0.3060  1.3424  0.8695
21678SOL     OW69844   7.845   0.062   7.365 -0.6398 -0.1833 -0.1870
21678SOL    HW169845   7.812   0.079   7.277  0.7142 -2.0612 -1.1050
21678SOL    HW269846   7.889   0.144   7.390  0.5107 -0.2018 -2.0049
21679SOL     OW69847   1.670   8.910   3.845 -0.2592  0.5209  0.0446
21679SOL    HW169848   1.656   8.816   3.842 -1.5139  0.7288 -1.6609
21679SOL    HW269849   1.696   8.927   3.936 -2.1116 -1.1675  0.9687
21680SOL     OW69850   2.075   2.956   5.532  0.4085 -0.2070 -0.3347
21680SOL    HW169851   2.046   3.019   5.597 -0.9583  0.4886 -1.5738
21680SOL    HW269852   2.011   2.885   5.537 -0.2765  0.2977 -1.5465
21681SOL     OW69853  10.806   4.136   6.205  0.3024 -0.2895 -0.6427
21681SOL    HW169854  10.818   4.227   6.179 -1.1374 -0.0596 -0.6188
21681SOL    HW269855  10.839   4.085   6.131  0.5495  0.2697 -0.9221
21682SOL     OW69856   2.132   1.244   6.687 -0.4122  0.0376  0.1373
21682SOL    HW169857   2.092   1.250   6.774  0.6855  2.8615  0.5458
21682SOL    HW269858   2.224   1.268   6.701 -0.3348  1.0954 -1.8541
21683SOL     OW69859   9.837   1.698   8.741  0.0974 -0.0557 -0.1217
21683SOL    HW169860   9.921   1.659   8.764 -0.0835  0.2390  1.1085
21683SOL    HW269861   9.773   1.649   8.793 -0.3101  0.7349  0.1406
21684SOL     OW69862  12.375   6.910  10.453 -0.4769  0.6091 -0.2262
21684SOL    HW169863  12.436   6.956  10.510 -0.2632  0.0815 -0.0159
21684SOL    HW269864  12.336   6.842  10.509 -1.4803  1.1268 -0.2805
21685SOL     OW69865  11.068   2.401   5.535 -0.3021 -0.5032  0.3953
21685SOL    HW169866  11.109   2.369   5.454  0.1497 -2.1485  1.2369
21685SOL    HW269867  10.975   2.407   5.513 -0.1520 -0.6838 -0.3350
21686SOL     OW69868   3.632   7.605   7.998  0.6159  0.3180 -1.0537
21686SOL    HW169869   3.667   7.578   8.083 -2.9785  1.4560  1.0471
21686SOL    HW269870   3.594   7.525   7.961  2.9878 -0.3796 -2.1530
21687SOL     OW69871   0.983   5.041   0.345 -0.0714  0.4153  0.4930
21687SOL    HW169872   1.075   5.032   0.367  0.2277  2.0048  0.0016
21687SOL    HW269873   0.976   5.127   0.302 -1.3970 -0.5809 -1.4492
21688SOL     OW69874   4.715  10.742   2.055  0.3151  0.5940 -0.5828
21688SOL    HW169875   4.718  10.691   1.975  2.2369 -0.2454 -0.0262
21688SOL    HW269876   4.777  10.814   2.040  3.6559 -1.6408  1.3966
21689SOL     OW69877  10.548   7.533   1.904  0.1476  0.0565  0.6093
21689SOL    HW169878  10.520   7.493   1.823  0.9499 -1.0983  0.8812
21689SOL    HW269879  10.643   7.546   1.894  0.7444 -2.3627  2.2321
21690SOL     OW69880  11.468   3.640  11.358 -0.0805  0.1152 -0.1948
21690SOL    HW169881  11.563   3.635  11.351  0.2609  3.7310 -0.4010
21690SOL    HW269882  11.444   3.573  11.422  2.8144  0.2267  1.1341
21691SOL     OW69883   6.420  12.301   0.828 -0.1404  0.3088  0.6118
21691SOL    HW169884   6.485  12.338   0.768 -1.6270  0.2065 -1.1182
21691SOL    HW269885   6.374  12.377   0.863 -1.2510  0.2577 -0.6959
21692SOL     OW69886   3.618  10.489   6.314  0.0914  0.2763 -0.1406
21692SOL    HW169887   3.702  10.445   6.328  0.2004  0.3776 -0.4621
21692SOL    HW269888   3.627  10.573   6.359  0.2894  0.4327 -0.4710
21693SOL     OW69889  11.800   6.078   4.349 -0.1160 -0.0689 -0.1148
21693SOL    HW169890  11.862   6.137   4.392 -0.0917 -0.5445  0.5153
21693SOL    HW269891  11.725   6.133   4.327 -0.9245 -0.1436  2.1822
21694SOL     OW69892   2.282   3.975   4.867  0.1549  0.5123  0.0663
21694SOL    HW169893   2.291   4.068   4.847  1.2226  0.4472  0.1778
21694SOL    HW269894   2.366   3.936   4.840  0.4285 -0.1100  1.6829
21695SOL     OW69895   7.177  10.874   0.407 -0.0748 -0.1784 -0.1908
21695SOL    HW169896   7.088  10.888   0.439  0.0382  0.6051 -0.1795
21695SOL    HW269897   7.181  10.782   0.384 -0.8975 -0.2113 -0.2196
21696SOL     OW69898   1.613   1.636  11.249  0.1597  0.1983 -0.3956
21696SOL    HW169899   1.665   1.556  11.240  1.1116  0.7471 -0.0034
21696SOL    HW269900   1.522   1.607  11.246  0.4911 -0.9183 -0.0931
21697SOL     OW69901  11.474   7.689   1.907 -0.1104  0.4810 -0.0821
21697SOL    HW169902  11.569   7.672   1.913 -0.5294 -1.9665  0.8959
21697SOL    HW269903  11.452   7.667   1.817  0.2721  1.2967 -0.3840
21698SOL     OW69904   2.461  10.748  12.160 -0.1256  0.1769 -0.0029
21698SOL    HW169905   2.409  10.669  12.147 -0.8999  0.3347  1.8814
21698SOL    HW269906   2.510  10.732  12.241 -0.5093  1.7323  0.5714
21699SOL     OW69907   4.441   9.074   1.596  0.4580  0.0370  0.1649
21699SOL    HW169908   4.458   8.982   1.620  0.2301  0.4189  1.9514
21699SOL    HW269909   4.414   9.070   1.505 -1.2815 -1.9159  0.6660
21700SOL     OW69910   8.573   2.717   1.879  0.6797 -0.1832  0.3917
21700SOL    HW169911   8.497   2.774   1.888  0.5028  0.1722 -2.3993
21700SOL    HW269912   8.648   2.772   1.901  0.2936  0.2317  0.6675
21701SOL     OW69913   7.440  11.321  10.526  0.4958 -0.2145 -0.1665
21701SOL    HW169914   7.429  11.226  10.532 -0.1131 -0.1742 -0.5000
21701SOL    HW269915   7.354  11.353  10.498  0.3680  0.5456  1.0389
21702SOL     OW69916   0.695   6.953   2.833  0.6730  0.3599  0.0464
21702SOL    HW169917   0.676   6.941   2.926 -1.3959 -1.0817 -0.5018
21702SOL    HW269918   0.632   7.019   2.804 -2.7527 -3.2132 -1.4226
21703SOL     OW69919   6.128   4.522   1.293 -0.2211 -0.0421 -0.3509
21703SOL    HW169920   6.159   4.547   1.380 -0.0417 -0.0913 -0.3986
21703SOL    HW269921   6.092   4.434   1.305  4.5728 -2.4704 -1.2517
21704SOL     OW69922   6.461   5.696   9.510  0.0738 -0.3195 -0.1624
21704SOL    HW169923   6.421   5.776   9.476 -0.1705 -0.4519 -0.1908
21704SOL    HW269924   6.416   5.679   9.592  0.3231 -0.2727 -0.0144
21705SOL     OW69925   8.964   3.499   7.942 -0.2907 -0.4014 -0.3000
21705SOL    HW169926   8.952   3.556   8.019 -0.8327  0.4066 -0.9617
21705SOL    HW269927   8.876   3.468   7.922 -0.1900 -0.3818 -0.7701
21706SOL     OW69928   7.577   9.539   9.588  0.2673  0.2228 -0.4180
21706SOL    HW169929   7.499   9.588   9.616 -0.1561 -0.7167  0.0894
21706SOL    HW269930   7.575   9.459   9.641  2.0507  0.5656  0.2448
21707SOL     OW69931   0.258   4.206   2.069  0.4776 -0.0534  0.5116
21707SOL    HW169932   0.227   4.277   2.125 -0.5056 -1.3558  1.7087
21707SOL    HW269933   0.320   4.158   2.124 -0.6358 -1.4504  0.5937
21708SOL     OW69934   5.682   9.537   6.029 -0.7484 -0.2282  0.0611
21708SOL    HW169935   5.675   9.557   6.122 -1.2004 -0.4807  0.0822
21708SOL    HW269936   5.697   9.621   5.987 -0.1648 -0.1540  0.3953
21709SOL     OW69937   1.102  10.869   0.023 -0.3445  0.5613  0.6711
21709SOL    HW169938   1.047  10.855  -0.054 -0.3028  1.3823  0.4848
21709SOL    HW269939   1.167  10.933  -0.006  1.0719 -0.7985  0.7129
21710SOL     OW69940  12.261   2.713   6.540  0.7436 -0.2177  0.4910
21710SOL    HW169941  12.309   2.660   6.476  0.5208 -0.0927  0.2199
21710SOL    HW269942  12.301   2.690   6.624 -0.1163 -1.6839  0.5284
21711SOL     OW69943   3.491  11.653  10.409  0.3374  0.4799  0.3360
21711SOL    HW169944   3.454  11.695  10.487 -0.6948 -0.0818  0.1747
21711SOL    HW269945   3.576  11.694  10.397  0.1369  1.1904  1.2567
21712SOL     OW69946   9.920   5.826   6.668 -0.4165  0.1125  0.6051
21712SOL    HW169947   9.968   5.889   6.616  0.7607  0.3255  1.8856
21712SOL    HW269948   9.976   5.809   6.744 -0.7214 -2.3977  0.3646
21713SOL     OW69949   2.242   3.809   6.335  0.4478  0.9024 -0.3108
21713SOL    HW169950   2.256   3.750   6.409  0.3996  0.8895 -0.3115
21713SOL    HW269951   2.163   3.858   6.357  0.6425  1.1611 -0.1898
21714SOL     OW69952  10.233   3.258   3.926 -0.4062 -0.1118 -0.2819
21714SOL    HW169953  10.210   3.187   3.866 -0.6761 -0.4753  0.2451
21714SOL    HW269954  10.185   3.238   4.007  0.0134  0.3275  0.0835
21715SOL     OW69955  11.366  10.273   5.710 -0.0275  0.7158  0.3217
21715SOL    HW169956  11.448  10.281   5.758  0.9227  1.5390 -1.3474
21715SOL    HW269957  11.376  10.333   5.636 -0.9580 -1.2672 -1.5197
21716SOL     OW69958   1.308   0.390   7.648  0.0601  0.3836 -0.1021
21716SOL    HW169959   1.360   0.424   7.721 -0.3545 -1.2852  1.0280
21716SOL    HW269960   1.359   0.412   7.570  1.7208  0.1588  0.8662
21717SOL     OW69961   5.789   9.094   0.043  0.5310 -0.5766  0.0327
21717SOL    HW169962   5.867   9.038   0.039  0.8749 -0.1414  0.5080
21717SOL    HW269963   5.715   9.033   0.037  0.9029 -1.0802  0.4464
21718SOL     OW69964   2.122   6.919  11.292  0.1519  0.3087  0.0546
21718SOL    HW169965   2.088   6.858  11.357 -0.6320 -0.9277 -1.4347
21718SOL    HW269966   2.044   6.959  11.253  0.4602 -0.4340 -1.4320
21719SOL     OW69967   8.821   6.040  10.102 -0.1210 -0.3016  0.0557
21719SOL    HW169968   8.774   6.120  10.125 -2.0373 -1.8810  2.1151
21719SOL    HW269969   8.889   6.032  10.168  0.2359 -0.2684 -0.3008
21720SOL     OW69970  11.260   6.787   1.334 -0.6261 -0.6006  0.1415
21720SOL    HW169971  11.314   6.718   1.296 -1.2068 -1.0741  0.1601
21720SOL    HW269972  11.189   6.740   1.378 -0.7272 -0.0082  0.6178
21721SOL     OW69973   0.500   2.350   8.252 -0.0872 -0.1044  0.0574
21721SOL    HW169974   0.498   2.377   8.161 -0.3225  0.5051  0.2397
21721SOL    HW269975   0.438   2.408   8.296 -0.7339 -1.0515  0.4276
21722SOL     OW69976   0.701   9.673   8.551 -0.1165  0.2757 -0.6135
21722SOL    HW169977   0.758   9.597   8.545 -1.7129 -1.0273 -0.0589
21722SOL    HW269978   0.623   9.641   8.598 -1.6655  1.7479 -2.0480
21723SOL     OW69979   9.664   3.554   5.405 -0.3718  0.5248  0.1614
21723SOL    HW169980   9.662   3.629   5.345 -1.5420  0.7872  0.4903
21723SOL    HW269981   9.608   3.489   5.363  0.6792 -0.2074 -0.1450
21724SOL     OW69982   5.327  11.013   2.639 -0.3944 -0.2591  0.0163
21724SOL    HW169983   5.233  11.001   2.652 -0.5452  0.0955 -0.7048
21724SOL    HW269984   5.354  11.068   2.712 -1.1299  1.3024 -0.8342
21725SOL     OW69985   4.432  11.848   8.476 -0.0014  1.0734  0.3152
21725SOL    HW169986   4.496  11.885   8.415  1.6431 -1.0558  0.6116
21725SOL    HW269987   4.485  11.818   8.550 -1.0560 -2.2566 -0.1245
21726SOL     OW69988   0.257   7.728   5.115  0.1210 -0.3389 -0.0825
21726SOL    HW169989   0.341   7.683   5.113  1.0157  1.2943 -0.1344
21726SOL    HW269990   0.227   7.719   5.205  1.0882  0.4003  0.3175
21727SOL     OW69991   4.675   3.509  10.665 -0.3609 -0.2497 -0.0148
21727SOL    HW169992   4.650   3.500  10.757 -0.9300 -2.8151 -0.3447
21727SOL    HW269993   4.647   3.598  10.642 -2.0103 -0.2243  1.7756
21728SOL     OW69994   0.370   6.042   1.399  0.1656  0.5030  0.4410
21728SOL    HW169995   0.317   6.025   1.322 -0.0460 -0.9450  0.8814
21728SOL    HW269996   0.456   6.007   1.377 -0.2110 -1.0294  1.2722
21729SOL     OW69997   9.251   9.821   7.304 -0.5158  0.0202 -0.1875
21729SOL    HW169998   9.169   9.840   7.259 -1.0021 -2.2008 -0.3888
21729SOL    HW269999   9.251   9.725   7.313  2.6089 -0.2178 -1.3284
21730SOL     OW70000   0.962   6.044   5.758  0.0904 -0.1118  0.0238
21730SOL    HW170001   0.957   6.127   5.711  0.8884 -0.4030 -0.5963
21730SOL    HW270002   0.930   5.979   5.696 -0.5245 -0.2733  0.5051
21731SOL     OW70003   2.870  12.032   9.000  0.5396  0.2183 -0.5718
21731SOL    HW170004   2.836  11.949   8.966 -0.2950 -1.5137  3.7135
21731SOL    HW270005   2.803  12.060   9.063  2.2811  2.4253  0.4317
21732SOL     OW70006   2.805   0.654   3.692 -0.1191 -0.1482  0.3154
21732SOL    HW170007   2.841   0.667   3.605  2.3534 -0.5127  1.1964
21732SOL    HW270008   2.739   0.723   3.702  0.0230  0.3038 -1.5567
21733SOL     OW70009   2.957   3.263   0.758 -0.3520 -0.3803 -0.5421
21733SOL    HW170010   2.863   3.277   0.765 -0.1017  1.0324  0.4205
21733SOL    HW270011   2.973   3.251   0.664 -1.3606  0.3080 -0.8163
21734SOL     OW70012  12.021  10.117   3.348 -0.4526  0.2103 -0.5610
21734SOL    HW170013  12.075  10.172   3.405 -0.8865  1.3967 -1.2738
21734SOL    HW270014  12.079  10.044   3.325  0.5066  0.9061 -0.4414
21735SOL     OW70015   9.821   8.893  10.394  0.4174 -0.3608 -0.3817
21735SOL    HW170016   9.727   8.890  10.411  0.1778  0.2923 -1.4776
21735SOL    HW270017   9.843   8.806  10.363 -0.0013 -0.2768 -0.9280
21736SOL     OW70018   9.408  10.306   7.901  0.5130 -0.4875 -0.0247
21736SOL    HW170019   9.340  10.243   7.879  1.0598 -0.5490 -1.6229
21736SOL    HW270020   9.371  10.356   7.975 -1.8882  0.4148 -1.7096
21737SOL     OW70021  11.019   6.065   9.684  0.5542 -0.0668 -0.1238
21737SOL    HW170022  10.980   5.985   9.719  0.9815 -0.5521 -0.7496
21737SOL    HW270023  11.059   6.108   9.760  1.2639 -0.9817  0.0284
21738SOL     OW70024   6.173   1.288   0.312  0.0169 -0.4484  0.0367
21738SOL    HW170025   6.081   1.299   0.288  0.2648  0.5992 -0.4752
21738SOL    HW270026   6.183   1.335   0.394  0.5194  1.1406 -0.8990
21739SOL     OW70027   4.044   6.600  11.250 -0.9749  0.8060  0.2296
21739SOL    HW170028   3.949   6.592  11.252 -0.9181 -0.9089 -1.3839
21739SOL    HW270029   4.067   6.595  11.157  0.7518  0.0015  0.6572
21740SOL     OW70030   3.964   1.347   8.926 -0.4025  0.0786 -0.3702
21740SOL    HW170031   3.946   1.263   8.968  0.6107 -0.2356 -0.5410
21740SOL    HW270032   3.889   1.361   8.868 -1.1857 -0.0986  0.5527
21741SOL     OW70033   4.286   1.165   7.858 -0.3218  0.0823  0.6849
21741SOL    HW170034   4.319   1.189   7.945 -1.4001  0.5288  0.9789
21741SOL    HW270035   4.291   1.069   7.856  1.4863  0.1488  0.5118
21742SOL     OW70036   7.750   3.980  11.658 -0.2889  0.4426  0.4655
21742SOL    HW170037   7.711   3.992  11.571 -1.7683  0.1833  1.0618
21742SOL    HW270038   7.717   3.895  11.688 -1.1951  1.2739  1.9548
21743SOL     OW70039   6.549   1.054   5.700 -0.4677  0.0859 -0.3403
21743SOL    HW170040   6.606   1.000   5.645 -1.6845  0.3523 -1.9546
21743SOL    HW270041   6.605   1.128   5.726  0.6797 -1.0076  0.3983
21744SOL     OW70042   0.394   5.977   0.373 -0.4708  0.2836  0.1089
21744SOL    HW170043   0.479   6.015   0.393  0.0677 -1.4474  1.2895
21744SOL    HW270044   0.413   5.902   0.317 -1.4196  1.0141 -1.2678
21745SOL     OW70045  12.460   0.267   2.993 -0.0021 -0.3572 -0.0223
21745SOL    HW170046  12.503   0.271   2.907  0.6725  1.9753  0.3398
21745SOL    HW270047  12.514   0.207   3.043  1.0562  0.1288 -0.5320
21746SOL     OW70048   1.636   2.951   4.255 -0.2478  0.3943 -0.3181
21746SOL    HW170049   1.574   3.023   4.251  0.5169  1.2215  1.6477
21746SOL    HW270050   1.701   2.971   4.188 -2.0703 -0.5666 -2.5278
21747SOL     OW70051   1.706   6.573   2.941  0.3123  0.7200  0.5366
21747SOL    HW170052   1.617   6.544   2.958  0.0513  0.9774 -0.3533
21747SOL    HW270053   1.730   6.529   2.859  0.8179  1.0499  0.5042
21748SOL     OW70054  10.524   3.707   4.715  0.7170 -0.0979 -0.7947
21748SOL    HW170055  10.526   3.792   4.671 -0.0334 -1.0492 -2.8078
21748SOL    HW270056  10.538   3.644   4.644 -1.6117 -1.7818  0.1301
21749SOL     OW70057   7.926   5.785   0.770  0.3664  0.1812  0.3743
21749SOL    HW170058   7.894   5.706   0.814  0.0705 -0.2142 -0.5209
21749SOL    HW270059   7.998   5.815   0.825  1.0419 -1.2015  0.3157
21750SOL     OW70060   8.043  10.239   5.069  0.3749  0.0588 -0.7377
21750SOL    HW170061   8.044  10.296   5.145 -2.2721  0.2400 -0.7430
21750SOL    HW270062   8.027  10.151   5.105 -0.2163  0.0477 -1.0084
21751SOL     OW70063   9.800   4.988  11.552 -0.2914 -0.3623  0.7739
21751SOL    HW170064   9.848   4.971  11.470 -1.7892 -0.8101 -0.0473
21751SOL    HW270065   9.821   5.079  11.573  0.4601 -0.3688  0.1322
21752SOL     OW70066   4.738   4.479  10.055  1.1552 -0.1523 -0.4555
21752SOL    HW170067   4.650   4.448  10.075  0.6209 -0.9943 -3.5281
21752SOL    HW270068   4.742   4.567  10.091 -0.3216 -0.7009  1.1709
21753SOL     OW70069  11.787   6.211   8.941 -0.1132 -0.5803 -0.0080
21753SOL    HW170070  11.853   6.143   8.954 -2.1257 -2.3748  1.4482
21753SOL    HW270071  11.819   6.285   8.994  2.0090 -0.3622 -1.4702
21754SOL     OW70072  11.196   1.478   4.323  0.2015 -0.2271 -0.4650
21754SOL    HW170073  11.157   1.405   4.275 -1.4653  0.3095 -0.0346
21754SOL    HW270074  11.223   1.540   4.255  2.1916 -1.4548 -0.8589
21755SOL     OW70075   3.635  10.340   5.113 -0.6317  0.6863  0.5296
21755SOL    HW170076   3.588  10.423   5.126  0.0912  1.4364 -1.2644
21755SOL    HW270077   3.570  10.272   5.131 -1.0487  1.5682  2.7729
21756SOL     OW70078   6.513  11.364   6.073 -0.9238  0.1897 -0.0282
21756SOL    HW170079   6.598  11.354   6.030 -0.4189 -0.2749  1.0208
21756SOL    HW270080   6.516  11.451   6.113 -1.8617  1.1152 -1.8737
21757SOL     OW70081   9.948  10.439   9.187 -0.3530  0.0422  0.5699
21757SOL    HW170082   9.982  10.470   9.271  1.2027 -0.5200  0.1965
21757SOL    HW270083   9.905  10.356   9.208 -3.5217  1.7562  1.3851
21758SOL     OW70084  11.966  11.099   8.020 -0.3207  0.1602  0.2339
21758SOL    HW170085  11.978  11.057   7.935 -1.4515 -0.6552  0.4528
21758SOL    HW270086  11.980  11.192   8.003  1.9376 -0.2217 -0.3220
21759SOL     OW70087   0.297   8.975  11.311  0.6195  0.4901 -0.0415
21759SOL    HW170088   0.375   8.931  11.346  0.6457  1.5546  1.3525
21759SOL    HW270089   0.315   8.985  11.218  2.9211  2.1696  0.4857
21760SOL     OW70090  10.376  11.240   7.939  0.7793 -0.4062  0.3763
21760SOL    HW170091  10.383  11.313   8.001  0.1200 -0.2503  0.2797
21760SOL    HW270092  10.462  11.198   7.942  1.4576  0.8805 -0.2035
21761SOL     OW70093  10.349   3.768   5.511  0.5379  0.5389  0.5324
21761SOL    HW170094  10.323   3.780   5.602  2.5483  0.1841  1.2053
21761SOL    HW270095  10.445   3.774   5.512  0.8643 -2.3933 -1.0623
21762SOL     OW70096   5.322   5.561   2.212  0.2060  0.6053  0.2710
21762SOL    HW170097   5.366   5.646   2.218  0.7651  0.4342 -1.0327
21762SOL    HW270098   5.229   5.583   2.205  0.2534  1.0616  0.9503
21763SOL     OW70099   2.924   5.416   1.602  0.4877  0.0223  0.2881
21763SOL    HW170100   2.909   5.336   1.652  0.4021  0.4797  1.0121
21763SOL    HW270101   2.838   5.442   1.571  0.5056 -0.1327  0.1117
21764SOL     OW70102   8.131   7.507   9.593 -0.0194  0.3360 -0.4214
21764SOL    HW170103   8.120   7.552   9.677  0.6415 -1.4577  0.6767
21764SOL    HW270104   8.204   7.447   9.607  0.5784  0.4959 -2.5257
21765SOL     OW70105   5.697  12.272  11.170 -0.1355 -0.1374  0.3950
21765SOL    HW170106   5.695  12.289  11.076  1.7829  0.0668  0.3499
21765SOL    HW270107   5.643  12.193  11.181 -2.2422  1.0939 -0.5206
21766SOL     OW70108   3.219   2.166  11.790  0.4125  0.0671  0.3494
21766SOL    HW170109   3.299   2.115  11.792 -0.0301 -0.6032  1.3489
21766SOL    HW270110   3.214   2.199  11.700  2.1644  0.7224  0.4542
21767SOL     OW70111   7.555   1.584   3.257 -0.3488  0.1182  0.6540
21767SOL    HW170112   7.606   1.506   3.235  0.4163  0.5954  0.6868
21767SOL    HW270113   7.592   1.614   3.340 -0.4404  0.6788  0.4988
21768SOL     OW70114   8.103   7.041   1.059  0.5314 -0.1078  0.5792
21768SOL    HW170115   8.132   7.009   0.974  0.4095  1.2246  0.0003
21768SOL    HW270116   8.017   7.080   1.042  0.9630  1.1207  1.0737
21769SOL     OW70117  10.750   0.707   0.745 -0.0449  0.1216  0.7127
21769SOL    HW170118  10.736   0.703   0.650 -2.0228 -0.6334  0.9928
21769SOL    HW270119  10.717   0.794   0.770 -3.1762 -1.0673  1.1528
21770SOL     OW70120   0.416  11.086   5.250  0.5454  0.4373  0.2480
21770SOL    HW170121   0.413  10.993   5.227 -2.8261  0.0171  1.8215
21770SOL    HW270122   0.438  11.130   5.167  0.5167 -1.6495 -0.9370
21771SOL     OW70123  11.576   6.430   4.957  0.3811  0.0527  0.3147
21771SOL    HW170124  11.487   6.464   4.945  0.5021 -0.0480 -1.0250
21771SOL    HW270125  11.601   6.459   5.044 -0.0155  2.2962 -0.2448
21772SOL     OW70126   7.983   9.365   1.342  0.1307 -0.3136 -0.6768
21772SOL    HW170127   7.901   9.329   1.376 -0.5072  0.8285 -0.9630
21772SOL    HW270128   8.044   9.292   1.346 -0.5622 -0.8666  0.6841
21773SOL     OW70129   0.607   8.339   2.463 -0.1222 -0.6647 -0.5092
21773SOL    HW170130   0.596   8.313   2.554  0.3260  0.1051 -0.2198
21773SOL    HW270131   0.680   8.287   2.431  1.0563  0.4855  0.1909
21774SOL     OW70132   8.093  11.487  11.627 -0.3885  0.1578  0.2418
21774SOL    HW170133   8.133  11.505  11.542 -1.0336 -2.9809 -0.8787
21774SOL    HW270134   8.150  11.420  11.665 -1.3887 -0.1709  1.2107
21775SOL     OW70135  11.301   6.626  12.290  0.1519 -0.1553  0.4039
21775SOL    HW170136  11.329   6.535  12.289  1.9290  0.3416  0.6307
21775SOL    HW270137  11.334   6.661  12.373 -1.0478  0.5501  0.6155
21776SOL     OW70138  10.273  10.992   0.262  0.5846 -0.2649 -0.1120
21776SOL    HW170139  10.357  11.001   0.216  1.1918  0.6787  1.1211
21776SOL    HW270140  10.213  10.959   0.196  1.1611  1.9787 -1.8632
21777SOL     OW70141   9.896   8.175  11.622 -0.1678 -0.2388 -0.5989
21777SOL    HW170142   9.874   8.105  11.561 -0.7000  0.1800 -0.8896
21777SOL    HW270143   9.825   8.239  11.613  0.4483  0.4670 -0.5303
21778SOL     OW70144   2.461  11.542   2.833  0.2621  0.1398  0.1440
21778SOL    HW170145   2.519  11.618   2.839 -1.3614  1.5084 -0.6058
21778SOL    HW270146   2.379  11.571   2.874 -0.0660 -1.5809  0.7832
21779SOL     OW70147   9.131   6.801   1.312 -0.1284 -0.0045 -0.5662
21779SOL    HW170148   9.168   6.720   1.347  2.6332  1.3709  0.0204
21779SOL    HW270149   9.207   6.849   1.278 -1.5074  2.6625 -0.1775
21780SOL     OW70150   4.714   2.679   3.947  0.5979  0.8089 -0.9826
21780SOL    HW170151   4.805   2.654   3.931  0.2610 -0.4923 -0.9564
21780SOL    HW270152   4.712   2.701   4.040  0.7267  0.0304 -0.7853
21781SOL     OW70153   4.539   9.587   2.948 -0.2835 -0.5809  0.2193
21781SOL    HW170154   4.451   9.623   2.944  0.3803  1.2454  0.9801
21781SOL    HW270155   4.565   9.577   2.857 -0.4542  1.0481 -0.0313
21782SOL     OW70156  11.591   5.758   3.686 -0.2567 -0.5898  0.2062
21782SOL    HW170157  11.612   5.772   3.779  1.1629 -2.9273  0.3156
21782SOL    HW270158  11.512   5.704   3.687 -0.4956 -0.2512  0.0190
21783SOL     OW70159  11.791   5.291   0.549 -0.3881  0.5836 -0.0802
21783SOL    HW170160  11.753   5.330   0.471 -0.2111  0.2075 -0.3568
21783SOL    HW270161  11.866   5.347   0.570  0.0649  0.2060 -0.6718
21784SOL     OW70162   7.314   1.816   4.313 -0.1646  0.2579 -0.1466
21784SOL    HW170163   7.365   1.818   4.232  0.4071 -2.2713  0.0567
21784SOL    HW270164   7.223   1.810   4.285 -0.0887  0.9030 -0.5566
21785SOL     OW70165   1.018  11.959   8.684  0.5039 -0.6592 -0.5164
21785SOL    HW170166   0.944  12.003   8.726  0.1262  0.2689 -2.0937
21785SOL    HW270167   0.994  11.866   8.687 -0.4570 -0.4286 -0.4829
21786SOL     OW70168   7.739   3.299   3.631  0.2988  0.5201 -0.2237
21786SOL    HW170169   7.721   3.248   3.710  0.9407  0.5157 -0.0679
21786SOL    HW270170   7.724   3.239   3.559 -1.3232  0.8286 -0.1658
21787SOL     OW70171   9.086   9.716  10.242 -0.1911  0.1502 -0.3195
21787SOL    HW170172   9.070   9.645  10.304  0.7689 -0.8604 -1.1807
21787SOL    HW270173   9.179   9.707  10.218  0.1831  2.1967  0.1424
21788SOL     OW70174   8.751   9.759  10.338  0.1436 -0.7649 -0.4829
21788SOL    HW170175   8.788   9.847  10.344  0.0457 -0.7242 -0.4783
21788SOL    HW270176   8.737   9.733  10.428  0.6483 -0.9881 -0.4660
21789SOL     OW70177   6.933  10.156   6.732  0.2533  0.0477 -0.0007
21789SOL    HW170178   6.933  10.170   6.638 -1.2417  1.6530  0.1966
21789SOL    HW270179   6.974  10.234   6.768 -0.4487  0.0797  0.7509
21790SOL     OW70180   2.267  11.528   0.179  0.0961 -0.5313  0.2676
21790SOL    HW170181   2.271  11.558   0.088  1.4753  0.8648  0.7562
21790SOL    HW270182   2.224  11.600   0.226  2.2856  0.2305  1.2391
21791SOL     OW70183   4.393   1.408   5.521 -0.2500  0.1196 -0.2459
21791SOL    HW170184   4.372   1.497   5.491  1.5332  0.8704  0.5551
21791SOL    HW270185   4.378   1.352   5.445 -2.7878  0.8442 -0.3808
21792SOL     OW70186   4.715   2.542   5.830  0.2035  0.7962  0.1095
21792SOL    HW170187   4.671   2.598   5.767  1.6925  1.5857 -0.2814
21792SOL    HW270188   4.681   2.570   5.915 -1.8928 -0.3547 -0.2969
21793SOL     OW70189   4.076   3.764   8.157 -0.3549 -0.1602  0.2462
21793SOL    HW170190   4.041   3.828   8.095 -0.3886 -1.5901 -1.2855
21793SOL    HW270191   4.001   3.711   8.182 -0.5283  0.9356  2.2968
21794SOL     OW70192  11.169   0.216  11.301  0.0290  0.8484  0.4281
21794SOL    HW170193  11.081   0.245  11.324  0.4297  1.4790  1.2169
21794SOL    HW270194  11.227   0.270  11.355  0.9322  0.9289 -0.5756
21795SOL     OW70195  12.446  10.566   0.732  0.1349 -0.5792  0.3534
21795SOL    HW170196  12.412  10.542   0.818 -0.8838 -1.5369 -0.2984
21795SOL    HW270197  12.374  10.613   0.690  0.4804 -0.4780 -0.1388
21796SOL     OW70198   8.179   5.796   7.607 -0.2222  0.7175 -0.2912
21796SOL    HW170199   8.097   5.754   7.581  0.3514 -1.6368  1.4146
21796SOL    HW270200   8.167   5.818   7.700  0.5897  1.6433 -0.3819
21797SOL     OW70201   0.505   8.483   3.373  0.5538 -0.0117  0.3685
21797SOL    HW170202   0.489   8.466   3.466  1.5610 -1.0977  0.3610
21797SOL    HW270203   0.422   8.462   3.330 -0.4765  2.1248  1.1677
21798SOL     OW70204   8.813   8.476  12.324  0.2409 -0.2282 -0.2841
21798SOL    HW170205   8.736   8.513  12.366  0.2461  0.9389 -1.2480
21798SOL    HW270206   8.797   8.487  12.231  2.4034  1.9184 -0.5043
21799SOL     OW70207   5.011   8.294   8.732 -0.3827  0.2172  0.9914
21799SOL    HW170208   5.098   8.310   8.767  0.3984 -0.4904 -0.5061
21799SOL    HW270209   5.015   8.205   8.696 -1.4247  0.5092  0.0734
21800SOL     OW70210   6.909  11.465  10.930  0.5119 -0.0941 -0.2926
21800SOL    HW170211   6.821  11.503  10.930  0.2434 -0.6094 -2.0178
21800SOL    HW270212   6.903  11.391  10.990  0.1789  0.7062  0.6850
21801SOL     OW70213   3.727   8.910   4.579 -0.5027  0.1100  0.0133
21801SOL    HW170214   3.820   8.931   4.576 -0.8252  1.9024  1.2667
21801SOL    HW270215   3.695   8.953   4.658 -2.3598 -0.7012 -0.2413
21802SOL     OW70216   4.238  11.110   4.789 -0.4556  0.8193  0.0348
21802SOL    HW170217   4.319  11.108   4.739 -0.2805  1.6556  0.2702
21802SOL    HW270218   4.227  11.021   4.821  0.6770  0.8338  0.4875
21803SOL     OW70219   3.095   2.509   8.323  0.1211 -0.2735  0.0086
21803SOL    HW170220   3.026   2.575   8.327 -0.4273 -0.7577 -0.9596
21803SOL    HW270221   3.061   2.442   8.263  2.4161  0.6469 -2.5337
21804SOL     OW70222   4.935   5.238  12.274  0.3794  0.1554  0.3987
21804SOL    HW170223   4.875   5.178  12.319  1.5278 -0.2481  1.4700
21804SOL    HW270224   4.927   5.320  12.322  0.6719  0.0919  0.5642
21805SOL     OW70225   2.607   2.207   7.581  0.7461 -0.1055  0.5246
21805SOL    HW170226   2.561   2.291   7.579  1.0601  0.0894  1.1730
21805SOL    HW270227   2.594   2.170   7.494 -0.5602 -0.0144  0.6661
21806SOL     OW70228  11.041   0.920   1.702 -0.2820  0.5056 -0.1469
21806SOL    HW170229  10.946   0.924   1.695 -0.4155 -1.9857 -0.6442
21806SOL    HW270230  11.058   0.854   1.769  1.0690 -0.1962 -1.1119
21807SOL     OW70231  11.266   6.657   4.770 -0.6410 -0.1539  0.3341
21807SOL    HW170232  11.182   6.702   4.764  0.6991  2.8504  2.2900
21807SOL    HW270233  11.320   6.695   4.701 -0.7592 -1.9705 -0.8303
21808SOL     OW70234   2.406   4.821   9.151 -0.2803  0.4254  0.4574
21808SOL    HW170235   2.455   4.891   9.194  0.9534 -0.1212  0.0173
21808SOL    HW270236   2.341   4.866   9.098  0.8257  1.2880 -0.2231
21809SOL     OW70237   1.585   8.074   0.043  0.1616  0.7492  0.3791
21809SOL    HW170238   1.561   7.985   0.066  2.5598  0.0752  0.5232
21809SOL    HW270239   1.645   8.065  -0.031  1.6013  2.0935  1.3081
21810SOL     OW70240   0.135   2.679   4.292  0.1599 -0.2136 -0.0712
21810SOL    HW170241   0.166   2.598   4.250 -2.0927 -1.2595  0.1636
21810SOL    HW270242   0.047   2.692   4.257  0.0535  1.5385  0.7580
21811SOL     OW70243   0.464   5.828   0.867  0.2592 -0.6492  0.0890
21811SOL    HW170244   0.469   5.843   0.773 -0.8805 -0.4164  0.0543
21811SOL    HW270245   0.439   5.736   0.876 -1.0186 -0.3052  0.1293
21812SOL     OW70246   8.030   5.995  10.533 -0.1079 -0.1942  0.4208
21812SOL    HW170247   8.083   5.944  10.594 -0.9610 -0.6190  0.8204
21812SOL    HW270248   7.967   6.041  10.588 -0.3781  0.0380 -0.0747
21813SOL     OW70249  11.412   9.581   1.994 -0.0870 -0.9894 -0.1024
21813SOL    HW170250  11.330   9.532   1.999  0.0904 -1.1923  1.3747
21813SOL    HW270251  11.385   9.671   1.974 -0.8487 -0.7158  1.9249
21814SOL     OW70252   5.762  12.154   0.652  0.2363  0.0203  0.6661
21814SOL    HW170253   5.788  12.082   0.594  0.6903  0.0304  0.8504
21814SOL    HW270254   5.788  12.233   0.604 -1.2787  0.1188 -0.0379
21815SOL     OW70255   9.551   2.599   9.246 -0.3989  0.0030 -0.0189
21815SOL    HW170256   9.623   2.661   9.259 -0.9072  0.8422 -1.0599
21815SOL    HW270257   9.585   2.515   9.278  1.0846  0.3495 -0.5965
21816SOL     OW70258   9.226   7.691   9.296 -0.0656  0.3263  0.0213
21816SOL    HW170259   9.268   7.679   9.381 -0.1535 -1.3400 -0.1427
21816SOL    HW270260   9.143   7.644   9.304 -0.5390  1.0282 -0.6559
21817SOL     OW70261   1.375   5.401  11.209 -0.4510  0.5334  0.2304
21817SOL    HW170262   1.438   5.470  11.229 -0.5928  0.9719 -0.7509
21817SOL    HW270263   1.398   5.329  11.268 -0.1687  1.3348  1.1211
21818SOL     OW70264   7.950  11.936  10.232 -0.0309  0.3811 -0.0040
21818SOL    HW170265   7.913  12.021  10.258 -2.3201 -0.4027 -0.4564
21818SOL    HW270266   7.933  11.930  10.138  0.4007 -0.4356 -0.0375
21819SOL     OW70267   9.602   5.280  10.746 -0.1512 -0.3651 -0.5055
21819SOL    HW170268   9.526   5.312  10.697 -0.8370  0.6071  1.1349
21819SOL    HW270269   9.572   5.273  10.836  1.8453  0.5275  0.2821
21820SOL     OW70270   2.613   4.095   6.058 -0.2830 -0.3243 -0.3773
21820SOL    HW170271   2.572   4.010   6.079  1.3356 -0.9084  0.5949
21820SOL    HW270272   2.676   4.074   5.989 -1.3366  0.5062 -1.6334
21821SOL     OW70273   2.221   3.090  11.298 -0.6087  0.6329  0.1648
21821SOL    HW170274   2.276   3.158  11.337 -1.0158  1.2631 -0.3329
21821SOL    HW270275   2.135   3.131  11.290 -0.6624  0.3348 -0.8750
21822SOL     OW70276   4.456   1.229  10.174 -0.2136  0.0346 -0.0951
21822SOL    HW170277   4.530   1.289  10.186  0.1237  0.2980 -2.7678
21822SOL    HW270278   4.391   1.282  10.127 -0.7515 -1.0931 -0.6599
21823SOL     OW70279   4.293  11.350   9.001 -0.1870 -0.4097 -0.4131
21823SOL    HW170280   4.341  11.269   8.981  1.2679  0.6362 -1.3323
21823SOL    HW270281   4.201  11.328   8.984  0.0202 -2.2059  0.5170
21824SOL     OW70282   6.135   6.308  11.499  0.2773 -0.0567  0.2618
21824SOL    HW170283   6.063   6.305  11.436 -1.0646 -0.5706  1.7376
21824SOL    HW270284   6.214   6.290  11.447 -0.5776  0.9417 -1.4729
21825SOL     OW70285   6.078   0.334   9.807  0.2112 -0.1374  0.1068
21825SOL    HW170286   6.158   0.361   9.763  0.1048 -1.8377 -1.2451
21825SOL    HW270287   6.008   0.362   9.748 -0.1754  0.7532  0.9627
21826SOL     OW70288  10.851   7.230  10.612 -0.0468  0.2322  0.3548
21826SOL    HW170289  10.791   7.160  10.640 -0.3861  1.0849  1.8471
21826SOL    HW270290  10.938   7.189  10.615 -0.3480 -0.4536  0.0589
21827SOL     OW70291   5.460   4.392   0.854 -0.0710 -0.4137  0.3636
21827SOL    HW170292   5.463   4.297   0.861  0.7825 -0.4001  0.2900
21827SOL    HW270293   5.471   4.423   0.944 -0.8078 -0.3822  0.4502
21828SOL     OW70294   0.682  10.799   6.337 -0.2296 -0.4440  0.6314
21828SOL    HW170295   0.678  10.812   6.243 -0.9154  0.0161  0.7163
21828SOL    HW270296   0.637  10.716   6.351 -0.0032 -0.5824  0.5438
21829SOL     OW70297   0.381  11.786  12.645  0.9874  0.5402  0.5954
21829SOL    HW170298   0.296  11.777  12.689  1.1015  2.0402  1.1665
21829SOL    HW270299   0.381  11.716  12.580  0.6535 -1.5601  2.6754
21830SOL     OW70300   7.634  11.681   0.154  0.2765  0.1262 -0.6092
21830SOL    HW170301   7.666  11.770   0.144 -1.6968  1.1817  1.5047
21830SOL    HW270302   7.666  11.654   0.240 -0.2535 -0.6748 -0.6503
21831SOL     OW70303  12.636  11.377   8.595 -0.1207 -0.1074  0.3375
21831SOL    HW170304  12.685  11.295   8.588 -1.1120 -0.8581  1.7549
21831SOL    HW270305  12.550  11.351   8.629 -0.9477  1.3703 -0.4997
21832SOL     OW70306   6.238   3.694   4.609 -0.2593 -0.2856  0.2510
21832SOL    HW170307   6.318   3.747   4.602  0.3861 -1.1944  0.6479
21832SOL    HW270308   6.223   3.662   4.521 -1.3802  1.5616 -0.2840
21833SOL     OW70309   1.391  11.168   2.842 -0.2962  0.1366  0.5580
21833SOL    HW170310   1.340  11.169   2.923  0.3529  0.9676  0.9710
21833SOL    HW270311   1.429  11.255   2.837  1.2544 -0.5220  0.3804
21834SOL     OW70312  10.260   8.781   0.749  0.0097 -0.1628 -0.1573
21834SOL    HW170313  10.337   8.759   0.801  0.8878  0.9299 -0.9325
21834SOL    HW270314  10.240   8.871   0.773 -0.9788 -0.4057 -0.0384
21835SOL     OW70315   0.151  11.654   9.124 -0.1794 -0.3342  0.0470
21835SOL    HW170316   0.140  11.688   9.035  0.3009 -1.8619 -0.6137
21835SOL    HW270317   0.212  11.716   9.166  1.6784 -1.0228 -1.5255
21836SOL     OW70318   5.661   2.097   8.715  0.0373 -0.6488 -0.3009
21836SOL    HW170319   5.690   2.188   8.709  0.7599 -0.8108  0.5887
21836SOL    HW270320   5.579   2.102   8.764 -0.1999 -0.4280 -0.7141
21837SOL     OW70321  11.128  11.446   5.321 -0.5797  0.3028 -0.2303
21837SOL    HW170322  11.212  11.407   5.345 -0.5845  0.4530  0.0378
21837SOL    HW270323  11.136  11.467   5.228 -0.4881 -0.1145 -0.3181
21838SOL     OW70324   3.634   5.644   4.693 -0.4589  0.3876 -0.2434
21838SOL    HW170325   3.715   5.675   4.732 -0.8818  1.0393  0.1276
21838SOL    HW270326   3.647   5.652   4.598 -0.1191  0.5536 -0.1813
21839SOL     OW70327   1.456   4.417   9.795 -0.3167 -0.1423 -0.0999
21839SOL    HW170328   1.495   4.398   9.881 -1.8930 -1.2168  0.4182
21839SOL    HW270329   1.383   4.355   9.787 -0.7986  0.5784 -1.8191
21840SOL     OW70330   4.781   2.136  10.389  0.0829  0.7085 -0.2073
21840SOL    HW170331   4.863   2.091  10.411 -0.5445 -0.7905 -0.8291
21840SOL    HW270332   4.798   2.177  10.305  0.2292  0.4893 -0.2849
21841SOL     OW70333   2.507   9.191  11.999  0.1585 -0.0895  0.3750
21841SOL    HW170334   2.467   9.215  11.916  1.5691  0.8799 -0.0514
21841SOL    HW270335   2.549   9.107  11.982  1.3740  0.6189 -0.2337
21842SOL     OW70336  10.672   5.703   4.244 -0.0680  0.2373  0.1529
21842SOL    HW170337  10.699   5.631   4.302 -1.2758 -0.7412 -0.4636
21842SOL    HW270338  10.598   5.668   4.195 -1.1723  2.1535  0.3545
21843SOL     OW70339   1.046   1.324   1.605  0.1163  0.2328  0.0981
21843SOL    HW170340   0.957   1.340   1.636 -0.2547 -1.7596  0.2193
21843SOL    HW270341   1.043   1.343   1.511 -0.7179 -0.6941 -0.0803
21844SOL     OW70342   8.153  12.499   3.500 -0.0980 -0.6465 -0.2514
21844SOL    HW170343   8.196  12.504   3.585 -3.1991  0.8877  1.4216
21844SOL    HW270344   8.103  12.418   3.503  0.6955 -1.1846 -1.1463
21845SOL     OW70345   0.982   2.867  10.054 -0.3247  0.4511 -0.2330
21845SOL    HW170346   0.895   2.836  10.030  0.6161 -1.3875 -1.5095
21845SOL    HW270347   1.004   2.819  10.133  0.6594 -1.4226 -1.5607
21846SOL     OW70348  10.136   2.734   3.318 -0.1076  0.5776 -0.0160
21846SOL    HW170349  10.143   2.689   3.234  4.3721 -1.2203  1.0214
21846SOL    HW270350  10.188   2.813   3.308  0.3331  0.4328  1.0028
21847SOL     OW70351   3.007   4.891   0.677 -0.8466 -0.6797  0.1635
21847SOL    HW170352   2.964   4.884   0.762  0.6055  2.9104  1.4063
21847SOL    HW270353   3.087   4.839   0.686 -0.7465 -0.3961  0.9969
21848SOL     OW70354   3.789   0.284  11.966 -0.8339 -0.3523 -0.0773
21848SOL    HW170355   3.761   0.352  12.026  0.9643 -0.1762  0.6153
21848SOL    HW270356   3.786   0.203  12.017  0.6017 -0.2170  0.2528
21849SOL     OW70357   1.161   2.534   4.355  0.4771  0.2797 -0.1079
21849SOL    HW170358   1.118   2.588   4.421  0.5666  0.1884  0.0253
21849SOL    HW270359   1.228   2.591   4.317 -0.1549  0.6266 -0.7452
21850SOL     OW70360   8.233   7.086   6.833  0.1798 -0.0937 -0.5001
21850SOL    HW170361   8.159   7.026   6.826 -0.7436  0.9912 -0.3143
21850SOL    HW270362   8.227   7.141   6.755  0.2799  0.5469 -0.0612
21851SOL     OW70363   6.468   1.285   3.372 -0.1185 -0.3783  0.4811
21851SOL    HW170364   6.395   1.328   3.416  0.0949  0.6220 -0.1013
21851SOL    HW270365   6.454   1.303   3.279 -0.5637 -2.4472  0.0970
21852SOL     OW70366   3.124   2.225  10.770 -0.0589  0.0959 -0.5338
21852SOL    HW170367   3.118   2.210  10.676  1.2589  1.8771 -0.9433
21852SOL    HW270368   3.218   2.218  10.789 -0.2074  0.7388  0.4683
21853SOL     OW70369   0.064   1.103  10.017 -0.1580 -0.3511 -0.0032
21853SOL    HW170370   0.151   1.091  10.056 -0.5524 -1.0953  0.6665
21853SOL    HW270371   0.039   1.192  10.040 -0.0321 -0.5027  0.7388
21854SOL     OW70372   4.106   8.664   9.845  0.1819  0.2470  0.3593
21854SOL    HW170373   4.168   8.710   9.902 -0.2584  0.7254  0.4644
21854SOL    HW270374   4.086   8.727   9.776  0.3455 -0.1589 -0.0608
21855SOL     OW70375  11.848   5.480   9.060 -0.2638  0.2465 -0.4960
21855SOL    HW170376  11.900   5.470   8.980  1.3433 -0.6380  0.6229
21855SOL    HW270377  11.822   5.572   9.060 -0.6408  0.1898 -2.2084
21856SOL     OW70378   3.335   6.179   2.960  0.3399 -0.1269 -0.1157
21856SOL    HW170379   3.260   6.215   2.913 -1.3436  0.1831  2.5745
21856SOL    HW270380   3.404   6.245   2.949 -0.7663  1.0615 -0.2170
21857SOL     OW70381   7.780   0.327   1.913 -0.1562 -0.4252 -0.6508
21857SOL    HW170382   7.719   0.396   1.888 -0.2582 -0.8500 -1.5953
21857SOL    HW270383   7.757   0.308   2.004 -0.8024  0.0781 -0.6981
21858SOL     OW70384   2.154   6.721   0.578 -0.2640  0.3921  0.2646
21858SOL    HW170385   2.156   6.630   0.549 -1.2402  0.5036 -0.1818
21858SOL    HW270386   2.222   6.764   0.526 -1.2676  0.3663 -1.1089
21859SOL     OW70387   5.735   8.492   0.978 -0.1294 -0.2320 -0.4281
21859SOL    HW170388   5.755   8.402   1.003 -1.7386 -0.0109  2.0226
21859SOL    HW270389   5.666   8.484   0.913 -0.2895 -0.7664 -0.2003
21860SOL     OW70390   1.213   5.235   2.960 -0.3993  0.2755  0.2522
21860SOL    HW170391   1.153   5.241   2.886 -1.1350 -0.4137  0.7665
21860SOL    HW270392   1.170   5.174   3.021  0.9950 -0.5435  0.4802
21861SOL     OW70393   1.363  12.415   1.145 -0.3221  0.6333 -0.2883
21861SOL    HW170394   1.406  12.404   1.060 -2.1950  0.8402 -1.3367
21861SOL    HW270395   1.365  12.509   1.161 -0.7377  0.6952 -0.5650
21862SOL     OW70396   0.558  11.500   9.929  0.3493  0.4749  0.0838
21862SOL    HW170397   0.483  11.461   9.884  0.5888  1.4785 -1.2529
21862SOL    HW270398   0.522  11.535  10.010 -0.5805  0.6725 -0.3983
21863SOL     OW70399   2.062   6.045   3.755 -0.8294  0.5254 -0.5091
21863SOL    HW170400   2.149   6.077   3.731 -0.8569 -0.1508 -1.5525
21863SOL    HW270401   2.035   5.990   3.682 -0.5026 -2.4981  1.4207
21864SOL     OW70402   3.533   4.765   2.503  0.4732 -0.0927 -0.2343
21864SOL    HW170403   3.621   4.799   2.486  1.1787 -2.1155 -0.9073
21864SOL    HW270404   3.537   4.729   2.591  1.0909 -2.2721 -1.0800
21865SOL     OW70405   4.536   6.832   5.237 -0.3371  0.2900 -0.4759
21865SOL    HW170406   4.563   6.923   5.225  0.8242  0.2193  1.2340
21865SOL    HW270407   4.589   6.801   5.311 -1.1106 -1.6096 -0.6659
21866SOL     OW70408  11.088   1.830   9.679  0.5022 -0.1104  0.4983
21866SOL    HW170409  11.079   1.911   9.729 -0.7092  0.0965 -0.0208
21866SOL    HW270410  10.998   1.805   9.656  1.0041  0.1949 -2.1569
21867SOL     OW70411   7.820   8.773   7.666 -0.4003  0.6330 -0.7566
21867SOL    HW170412   7.813   8.844   7.601  0.2932  1.3638 -0.0592
21867SOL    HW270413   7.729   8.754   7.690 -0.7424 -0.3577 -2.6690
21868SOL     OW70414   2.665   7.368   8.487 -0.0187  0.0519 -0.2296
21868SOL    HW170415   2.721   7.373   8.564  2.2486 -1.4426 -1.6560
21868SOL    HW270416   2.725   7.346   8.415 -2.5417 -2.4834 -1.7525
21869SOL     OW70417   5.857   9.124   2.163 -0.4734  0.4790 -0.2027
21869SOL    HW170418   5.940   9.080   2.143 -0.1483 -0.5204  2.8462
21869SOL    HW270419   5.877   9.217   2.156  0.9395  0.2497  0.5110
21870SOL     OW70420  10.207   9.773  10.061  0.0487  0.1667 -0.6850
21870SOL    HW170421  10.276   9.779  10.126 -1.0914  1.5186  0.4423
21870SOL    HW270422  10.202   9.679  10.040  0.5561 -0.2676  1.0297
21871SOL     OW70423   0.374   7.984  12.141  0.0941 -0.2650  0.2292
21871SOL    HW170424   0.280   7.981  12.121  0.3647 -0.0476 -1.2094
21871SOL    HW270425   0.398   7.893  12.158 -0.0849 -0.5447 -0.9460
21872SOL     OW70426   1.049  11.783   7.860  0.9037 -0.3578 -0.7444
21872SOL    HW170427   1.069  11.716   7.795 -1.6316 -0.8775 -1.0986
21872SOL    HW270428   0.954  11.797   7.853  0.6716  0.3121  2.1185
21873SOL     OW70429   0.056  10.448   8.872 -0.2067 -0.0404  0.5266
21873SOL    HW170430   0.005  10.473   8.795  0.2401 -0.8345 -0.0442
21873SOL    HW270431  -0.010  10.425   8.937 -0.6124  1.7078  0.7827
21874SOL     OW70432   0.686   8.392  12.302  0.9681 -0.0679 -0.1783
21874SOL    HW170433   0.679   8.305  12.340  1.1984 -0.8335 -1.8391
21874SOL    HW270434   0.780   8.410  12.301  0.8393  1.3762  2.5985
21875SOL     OW70435   4.494   4.795  12.228 -0.4209  0.4258  0.2783
21875SOL    HW170436   4.445   4.749  12.296 -1.9472 -1.5802 -2.0520
21875SOL    HW270437   4.441   4.872  12.208  0.0140  1.0031  1.2743
21876SOL     OW70438  12.147   3.205   0.056  0.0027 -0.2020  0.3217
21876SOL    HW170439  12.195   3.134   0.099 -1.8247 -0.5788  1.8555
21876SOL    HW270440  12.177   3.203  -0.035  1.8565 -1.2642  0.8992
21877SOL     OW70441   7.750   7.120   9.563  0.0641 -0.6344 -0.3291
21877SOL    HW170442   7.763   7.031   9.530  0.0661 -0.6498 -0.2867
21877SOL    HW270443   7.782   7.117   9.653 -0.4140 -0.7224 -0.1595
21878SOL     OW70444  11.335  12.258   6.111  0.1507 -0.3232 -0.2854
21878SOL    HW170445  11.253  12.234   6.154  1.1330 -0.5444  1.5714
21878SOL    HW270446  11.379  12.174   6.097  0.6720 -0.1101  0.0453
21879SOL     OW70447  11.785  11.430  10.922  0.2943 -0.4293  0.3327
21879SOL    HW170448  11.726  11.426  10.996 -0.0776  1.5139  0.1905
21879SOL    HW270449  11.844  11.356  10.934 -1.8891 -2.1875  0.6815
21880SOL     OW70450   0.100  12.210   6.840  0.8870  0.3291  0.0709
21880SOL    HW170451   0.011  12.183   6.818  1.4518 -0.0192 -2.0159
21880SOL    HW270452   0.111  12.184   6.932 -1.5508  1.5258  0.7773
21881SOL     OW70453   4.968  10.692   8.285  0.3131 -0.4901 -0.3515
21881SOL    HW170454   5.061  10.668   8.284  0.4585  0.0586 -1.2909
21881SOL    HW270455   4.937  10.664   8.371  1.9954  1.7578  1.1317
21882SOL     OW70456  10.804   1.848   2.930 -0.5712  0.1734 -0.4487
21882SOL    HW170457  10.781   1.941   2.942 -0.2994  0.3825 -1.4717
21882SOL    HW270458  10.726   1.809   2.892 -0.7900 -0.0979  0.2514
21883SOL     OW70459  12.478   5.418  10.701  0.2350  0.2499  0.2018
21883SOL    HW170460  12.509   5.480  10.634 -2.6662  1.4118 -0.2258
21883SOL    HW270461  12.453   5.340  10.652  1.6440 -0.3989  0.4598
21884SOL     OW70462  10.072   6.191  12.330 -0.2776 -0.5862 -0.0729
21884SOL    HW170463  10.150   6.241  12.356  0.6105 -1.2882 -1.2740
21884SOL    HW270464  10.069   6.199  12.235 -0.9990 -1.5583 -0.1467
21885SOL     OW70465   2.411  10.802   7.168  0.0178 -0.3979 -0.1678
21885SOL    HW170466   2.454  10.814   7.253 -1.1831 -0.6307  0.4888
21885SOL    HW270467   2.401  10.891   7.134 -0.0143 -0.2598  0.1969
21886SOL     OW70468  10.985   5.551   1.145 -0.1464  0.0347  0.3002
21886SOL    HW170469  10.991   5.573   1.052  1.0799 -0.5772  0.2128
21886SOL    HW270470  10.931   5.472   1.149 -0.5523  0.3065  0.1487
21887SOL     OW70471   1.161   7.971  10.243 -0.3956 -0.1237  0.3846
21887SOL    HW170472   1.150   7.961  10.337  1.6130 -0.8859  0.5894
21887SOL    HW270473   1.130   7.889  10.205 -0.0032 -0.3373  0.5175
21888SOL     OW70474   4.029   5.454  10.707  0.6837  0.2046  0.5435
21888SOL    HW170475   4.101   5.425  10.651  1.0039  1.1456  0.4633
21888SOL    HW270476   3.986   5.372  10.733  1.5001 -0.3421  0.2345
21889SOL     OW70477   7.460   9.513   1.317 -0.1093 -0.4012 -0.0759
21889SOL    HW170478   7.431   9.455   1.387  0.6661  0.3714  0.9207
21889SOL    HW270479   7.462   9.600   1.357 -0.1412  0.1369 -1.2098
21890SOL     OW70480  11.617   6.008   1.698 -0.1100 -0.2114  0.2460
21890SOL    HW170481  11.589   5.932   1.647 -0.1111 -0.4001  0.5278
21890SOL    HW270482  11.678   5.972   1.763  0.9501  0.2118 -0.4697
21891SOL     OW70483   6.926   3.934   1.819 -0.1172  0.0794  0.4822
21891SOL    HW170484   6.940   3.998   1.889 -0.2756 -0.0549  0.6386
21891SOL    HW270485   6.906   3.852   1.865  0.8930 -0.2780  0.2925
21892SOL     OW70486   4.180   3.636  10.169  0.4845  0.1727 -1.0645
21892SOL    HW170487   4.129   3.645  10.249  2.2840  0.2674  0.1237
21892SOL    HW270488   4.189   3.541  10.157  1.4057  0.1508 -0.3270
21893SOL     OW70489   6.392   2.342   7.803 -0.0492 -0.7394  0.3680
21893SOL    HW170490   6.313   2.306   7.763 -1.2822  1.6125  0.5072
21893SOL    HW270491   6.370   2.350   7.896 -0.7232  2.3196  0.0400
21894SOL     OW70492   8.454   8.447   8.272 -0.1511 -0.2915  0.6222
21894SOL    HW170493   8.373   8.394   8.275 -0.1252 -0.3466  0.3253
21894SOL    HW270494   8.483   8.441   8.181 -0.6867  1.0525  0.3356
21895SOL     OW70495   0.588  11.246   4.916 -0.1266  0.2076 -0.2227
21895SOL    HW170496   0.558  11.305   4.985 -2.9460 -0.7853 -0.4952
21895SOL    HW270497   0.522  11.177   4.912  2.0546 -1.9733 -1.2131
21896SOL     OW70498   9.756  11.700   1.948  0.3909  0.1498 -0.4094
21896SOL    HW170499   9.667  11.725   1.921  0.3023  0.0702 -0.1970
21896SOL    HW270500   9.753  11.605   1.955 -0.1326  0.2479  1.6604
21897SOL     OW70501   4.725   2.987   6.785 -0.0422  0.1011  0.5543
21897SOL    HW170502   4.636   3.022   6.776  0.2813  0.4951 -1.4835
21897SOL    HW270503   4.774   3.027   6.713  1.7034 -0.4021  1.4255
21898SOL     OW70504   9.588   4.347   9.455 -0.6508 -0.2370 -0.4230
21898SOL    HW170505   9.619   4.435   9.434 -2.0247  0.1241 -1.0859
21898SOL    HW270506   9.555   4.313   9.372 -0.2023 -1.3733 -0.1611
21899SOL     OW70507   3.953   4.165   5.772  0.1856  0.1122  0.4405
21899SOL    HW170508   3.864   4.173   5.738  0.8153 -0.1990 -1.3892
21899SOL    HW270509   3.958   4.231   5.842 -2.0131 -1.1058  1.8655
21900SOL     OW70510   0.605   1.831   0.480  0.0692  0.7996 -0.2935
21900SOL    HW170511   0.516   1.797   0.478  0.1996  0.4723 -1.7564
21900SOL    HW270512   0.660   1.753   0.490  0.2455  0.8602 -0.7788
21901SOL     OW70513   8.406   7.714   1.921 -0.2325 -0.6107  0.2734
21901SOL    HW170514   8.395   7.675   1.834  0.9575 -0.3207 -0.0161
21901SOL    HW270515   8.320   7.752   1.940 -0.5253 -0.7232 -0.7467
21902SOL     OW70516   0.400   2.705  11.448  0.5634  0.2969  0.6112
21902SOL    HW170517   0.471   2.689  11.386 -0.9943 -1.5929 -0.7986
21902SOL    HW270518   0.398   2.625  11.502 -0.6078  0.2242  0.4789
21903SOL     OW70519   0.059  10.274   5.666  0.0292 -0.6029  0.2690
21903SOL    HW170520   0.008  10.194   5.670  0.7105 -1.0720 -0.0847
21903SOL    HW270521   0.118  10.270   5.741  0.6053 -0.8289 -0.1813
21904SOL     OW70522   9.513   7.746   1.174 -0.9134 -0.4631  0.5554
21904SOL    HW170523   9.520   7.778   1.265  1.7316 -0.5833  0.4890
21904SOL    HW270524   9.510   7.651   1.183 -1.7591 -0.4497  0.5187
21905SOL     OW70525   2.135  12.491  12.571  0.0138  0.0770 -0.2075
21905SOL    HW170526   2.180  12.444  12.501  2.1690  2.2204 -0.4029
21905SOL    HW270527   2.164  12.448  12.651  0.2403 -0.2728 -0.4742
21906SOL     OW70528   2.543  11.374  10.030  0.1583 -0.1542 -0.4511
21906SOL    HW170529   2.577  11.341  10.114  0.6763 -0.9062 -0.9476
21906SOL    HW270530   2.621  11.405   9.984  0.0592 -1.0635 -1.2412
21907SOL     OW70531   6.896  11.597   7.280 -0.1118  0.2364  0.5183
21907SOL    HW170532   6.986  11.594   7.310 -0.1575 -1.1304  0.5708
21907SOL    HW270533   6.900  11.574   7.187 -0.4088  0.1785  0.5183
21908SOL     OW70534   3.147   0.543   7.194 -0.2505 -0.1246 -0.3493
21908SOL    HW170535   3.181   0.625   7.160 -1.3373  0.4938 -0.0136
21908SOL    HW270536   3.154   0.481   7.121 -0.4696  0.5724 -0.9703
21909SOL     OW70537   3.825   0.311   7.269  0.3932 -0.2546  0.2245
21909SOL    HW170538   3.867   0.227   7.252 -2.2171 -1.5409 -0.4022
21909SOL    HW270539   3.799   0.307   7.361 -0.6836 -0.6441 -0.0766
21910SOL     OW70540  12.432  11.080   9.030  0.1333 -0.2867  0.0166
21910SOL    HW170541  12.362  11.049   9.088  0.7403 -1.1767  0.3036
21910SOL    HW270542  12.486  11.137   9.085 -0.5180  0.6458 -0.2856
21911SOL     OW70543   0.220   5.862   9.677 -0.2476  0.0071 -0.3856
21911SOL    HW170544   0.278   5.891   9.607 -0.1677  0.4893 -0.1261
21911SOL    HW270545   0.184   5.778   9.646  3.0868 -2.0477  0.8079
21912SOL     OW70546   5.988   1.835   2.596  0.4962  0.0071  0.1683
21912SOL    HW170547   5.943   1.912   2.631 -0.1203 -0.3814  0.2462
21912SOL    HW270548   6.059   1.871   2.543 -0.6100  0.6705 -0.9155
21913SOL     OW70549   5.994  10.899   1.647  0.0294  0.1267 -0.2525
21913SOL    HW170550   6.024  10.957   1.717  0.0046  1.3796 -1.2350
21913SOL    HW270551   6.070  10.891   1.589 -0.0822 -0.5555 -0.3131
21914SOL     OW70552   9.201   4.141   4.288  0.9965 -0.5916 -0.2347
21914SOL    HW170553   9.259   4.217   4.285  1.0907 -0.6032  0.8804
21914SOL    HW270554   9.139   4.155   4.216  2.1962 -0.4550 -1.2906
21915SOL     OW70555   8.898   5.444   9.656 -0.0321 -0.1322  0.2646
21915SOL    HW170556   8.813   5.401   9.647 -0.1918 -0.0332  1.1562
21915SOL    HW270557   8.897   5.515   9.593 -1.0162  0.4753  0.9445
21916SOL     OW70558   2.988  11.504   0.314 -0.0784 -0.4771  0.4826
21916SOL    HW170559   2.979  11.593   0.347 -0.8241  0.9479 -3.0778
21916SOL    HW270560   2.899  11.476   0.294  0.3747 -0.0904 -2.6438
21917SOL     OW70561   7.000  12.626   1.749  0.5884  0.6072  0.4599
21917SOL    HW170562   7.068  12.630   1.816  1.0995 -0.9418  0.0895
21917SOL    HW270563   7.047  12.636   1.666  0.5244 -1.2465  0.1548
21918SOL     OW70564   7.624  11.125   4.477 -0.0128 -0.4384 -0.5454
21918SOL    HW170565   7.559  11.174   4.426 -0.2778  1.6409  1.6144
21918SOL    HW270566   7.705  11.173   4.465  0.7130 -1.8310 -1.5463
21919SOL     OW70567   5.796   1.645   2.654 -0.4161 -0.1691 -0.3390
21919SOL    HW170568   5.808   1.590   2.576 -0.5557  0.1222 -0.5706
21919SOL    HW270569   5.848   1.723   2.637 -0.8697  0.1311 -0.3811
21920SOL     OW70570   0.921   3.587   7.203  0.4417  0.2215 -0.5635
21920SOL    HW170571   0.897   3.673   7.238  1.6651 -0.0624  1.0671
21920SOL    HW270572   0.850   3.566   7.142 -1.5006  1.0450  1.2597
21921SOL     OW70573   0.376   5.496   2.231  0.2900  0.3413 -0.4386
21921SOL    HW170574   0.408   5.464   2.314 -0.9794  0.1437 -0.0020
21921SOL    HW270575   0.379   5.420   2.172 -1.8895 -0.4368  0.3535
21922SOL     OW70576   7.154   1.246  11.687 -0.2068 -0.2808 -0.1247
21922SOL    HW170577   7.153   1.297  11.606  0.9470 -0.5193 -0.3151
21922SOL    HW270578   7.158   1.155  11.657 -0.4767 -0.4051  0.2081
21923SOL     OW70579   9.400  11.601   4.387 -0.7193 -0.0345 -0.3524
21923SOL    HW170580   9.415  11.609   4.481  0.1760  2.1513 -0.6122
21923SOL    HW270581   9.307  11.580   4.379 -1.0177  0.6303  1.0174
21924SOL     OW70582   5.323   9.217   5.534  0.5197  0.4365  0.5058
21924SOL    HW170583   5.411   9.186   5.558  0.1085 -1.5208 -0.3451
21924SOL    HW270584   5.281   9.142   5.493 -1.6115  1.3013  0.9652
21925SOL     OW70585   6.166   8.719   7.656 -0.0191 -0.2934 -0.5259
21925SOL    HW170586   6.232   8.788   7.645 -0.2247  0.2873  1.4857
21925SOL    HW270587   6.214   8.646   7.696 -0.1887 -0.6519 -0.9664
21926SOL     OW70588   9.694   7.802   2.379  0.4522 -0.1935  0.0747
21926SOL    HW170589   9.708   7.878   2.322 -2.1007 -0.7272 -1.4287
21926SOL    HW270590   9.649   7.837   2.456  1.5919  0.1444  0.6117
21927SOL     OW70591  11.673   5.670   2.606 -0.2768 -0.0954  0.0088
21927SOL    HW170592  11.712   5.602   2.550  0.0517 -1.2569  1.5666
21927SOL    HW270593  11.700   5.646   2.695 -0.6184  1.7942  0.6697
21928SOL     OW70594   8.913   8.330   2.500 -0.2314  0.0964 -0.1077
21928SOL    HW170595   8.935   8.395   2.567  0.8550 -0.4186  0.0409
21928SOL    HW270596   8.987   8.270   2.499  1.6441  2.0991 -4.3439
21929SOL     OW70597   1.213   0.620   6.687  0.0443 -0.7630 -0.1801
21929SOL    HW170598   1.209   0.689   6.753  0.0653 -0.9789  0.0453
21929SOL    HW270599   1.179   0.662   6.607  0.7466 -0.2797 -0.2337
21930SOL     OW70600  12.158  11.080   3.453  0.1952 -0.0489  0.3010
21930SOL    HW170601  12.095  11.051   3.519 -0.6432  1.7712  0.3594
21930SOL    HW270602  12.136  11.028   3.375 -1.4223  0.5743  0.3140
21931SOL     OW70603   3.997   8.818  10.579 -0.1017  0.0020 -0.5116
21931SOL    HW170604   3.990   8.723  10.574 -0.9251  0.0809 -0.9103
21931SOL    HW270605   3.917   8.851  10.538  0.2195  0.8700 -0.4649
21932SOL     OW70606   6.137   8.854   4.950  0.6959 -0.9322  0.2579
21932SOL    HW170607   6.208   8.883   4.892  0.1724 -2.5437 -1.2674
21932SOL    HW270608   6.079   8.930   4.956  0.7570 -0.7183 -1.3702
21933SOL     OW70609   9.984   5.539   3.530 -0.7295  0.3285 -0.3945
21933SOL    HW170610  10.028   5.530   3.614 -0.0753 -0.0512 -0.7646
21933SOL    HW270611   9.949   5.451   3.512  0.6552 -0.0720 -1.3208
21934SOL     OW70612   4.079   4.743   5.654 -0.2493  0.2127  0.1573
21934SOL    HW170613   4.076   4.661   5.604  0.3113  0.8573 -0.9971
21934SOL    HW270614   4.168   4.745   5.690 -0.5017 -0.0293  0.7993
21935SOL     OW70615   0.797   3.906   0.825 -0.2963  0.1190  0.1610
21935SOL    HW170616   0.746   3.985   0.839 -2.1202 -0.4573 -2.4315
21935SOL    HW270617   0.858   3.929   0.754 -0.5495 -0.6298 -0.3189
21936SOL     OW70618   8.111  10.845   0.519  0.3000  0.0402 -0.0649
21936SOL    HW170619   8.202  10.876   0.517  0.2963  0.0738  0.2186
21936SOL    HW270620   8.058  10.924   0.506  0.2962  0.1233  0.4355
21937SOL     OW70621   6.476   2.557   2.368  0.6820 -0.1991 -0.2398
21937SOL    HW170622   6.516   2.472   2.385  0.0887 -0.5650 -0.6399
21937SOL    HW270623   6.550   2.614   2.346  1.2684 -0.1702  1.6385
21938SOL     OW70624   6.628   5.241   8.202  0.1356  0.1288  0.1241
21938SOL    HW170625   6.686   5.286   8.140  0.7601 -0.5700  0.1820
21938SOL    HW270626   6.620   5.301   8.276  0.7857  0.2402  0.1107
21939SOL     OW70627   2.996   8.879  12.624 -0.0473 -0.7398  0.4203
21939SOL    HW170628   2.915   8.859  12.576 -0.0236  0.2523 -0.0629
21939SOL    HW270629   3.066   8.850  12.565 -0.0337 -2.2446  1.1341
21940SOL     OW70630   8.590   8.910   2.053 -0.0510  0.0853  0.0563
21940SOL    HW170631   8.500   8.894   2.024  0.3215 -1.9086 -0.1302
21940SOL    HW270632   8.604   8.847   2.124  0.8993  1.0373  0.7428
21941SOL     OW70633  12.256   9.138   2.491  0.1671  0.0115  0.3735
21941SOL    HW170634  12.246   9.089   2.409 -1.4694 -0.9090  1.0840
21941SOL    HW270635  12.224   9.226   2.470  0.1687 -0.0932 -0.0878
21942SOL     OW70636  12.206   9.982   3.011 -0.2860 -0.1964  0.6924
21942SOL    HW170637  12.264   9.969   3.086 -0.2146 -0.0492  0.6633
21942SOL    HW270638  12.153  10.058   3.034  1.4509  1.4602 -0.4315
21943SOL     OW70639   4.817   9.340   6.074  0.1807  0.1963 -0.3756
21943SOL    HW170640   4.828   9.434   6.087 -0.9646  0.0967  1.4973
21943SOL    HW270641   4.816   9.330   5.979  1.2260  1.9415 -0.6275
21944SOL     OW70642   4.576  12.353   3.618 -0.5354 -0.3761  0.2135
21944SOL    HW170643   4.641  12.418   3.645  0.2057 -1.8846  2.3929
21944SOL    HW270644   4.627  12.284   3.575 -1.2832  0.3076 -1.8870
21945SOL     OW70645   5.928   4.622   6.464  0.1735 -0.2352 -0.2768
21945SOL    HW170646   5.857   4.674   6.502 -0.1116 -1.1550  0.5167
21945SOL    HW270647   5.970   4.580   6.540  0.3827 -1.1574 -0.8822
21946SOL     OW70648  12.121  12.613   4.920  0.0006  0.0362  0.1221
21946SOL    HW170649  12.168  12.608   5.003 -1.0565  0.8833  0.8022
21946SOL    HW270650  12.190  12.617   4.854  0.9931  2.8399  1.1764
21947SOL     OW70651   1.203   1.908  11.428 -0.6034  0.3604  0.4176
21947SOL    HW170652   1.185   2.001  11.443 -2.1054 -0.0421  1.3006
21947SOL    HW270653   1.298   1.904  11.414 -0.4174  1.9315  1.0096
21948SOL     OW70654   5.460   0.197  11.832  0.5508 -0.4959 -0.1162
21948SOL    HW170655   5.368   0.172  11.838  0.9442 -1.8325  0.7273
21948SOL    HW270656   5.503   0.121  11.795  1.4173 -0.1302  0.1115
21949SOL     OW70657   8.164  11.863   3.005  0.0616 -0.4669 -0.2601
21949SOL    HW170658   8.104  11.789   3.018  0.2377 -0.7732 -1.1523
21949SOL    HW270659   8.119  11.920   2.943  0.0887  0.0006  0.1434
21950SOL     OW70660   6.786   6.940   7.668 -0.1359 -0.5038  0.2198
21950SOL    HW170661   6.741   6.974   7.590 -0.6655 -0.7711  0.4055
21950SOL    HW270662   6.751   6.993   7.740  1.2056  0.5322  0.1412
21951SOL     OW70663   7.565   9.264   0.119 -0.8239  0.3872  0.7210
21951SOL    HW170664   7.651   9.304   0.131 -0.4415 -0.2535  0.1960
21951SOL    HW270665   7.503   9.333   0.143 -0.2113  1.5396 -0.7964
21952SOL     OW70666   1.419   9.671   1.521  0.1346  0.6700  0.6819
21952SOL    HW170667   1.482   9.677   1.450 -0.5973 -0.8098 -0.1398
21952SOL    HW270668   1.372   9.754   1.519  0.0451  0.5960 -0.6423
21953SOL     OW70669   2.941   2.793   9.223 -0.3846 -0.4582  0.3692
21953SOL    HW170670   2.988   2.713   9.200  1.0065  0.4926 -0.2106
21953SOL    HW270671   2.992   2.832   9.294  0.4365  1.1875 -1.0474
21954SOL     OW70672   5.752   7.767   3.348 -0.6472  0.3359 -0.6217
21954SOL    HW170673   5.669   7.808   3.374 -0.5207  0.3158 -0.1815
21954SOL    HW270674   5.813   7.790   3.417 -1.2023 -2.6885  1.0761
21955SOL     OW70675   1.901   6.965  11.898  0.2079 -0.7529  0.1182
21955SOL    HW170676   1.941   6.984  11.983 -0.3071  0.0330  0.1948
21955SOL    HW270677   1.825   6.911  11.918 -0.3132  0.0099  0.2321
21956SOL     OW70678   4.178   1.562  11.525  0.0259  0.0578 -0.0217
21956SOL    HW170679   4.263   1.570  11.482  0.5820 -1.2964  0.7483
21956SOL    HW270680   4.199   1.545  11.617 -0.9931 -2.0923 -0.1205
21957SOL     OW70681   7.097   1.110   1.486 -0.5577  0.0351  0.2258
21957SOL    HW170682   7.080   1.074   1.399  0.2266 -1.8712  0.7954
21957SOL    HW270683   7.010   1.135   1.519 -0.7449  1.9525 -1.5170
21958SOL     OW70684  10.773   4.666   0.766 -0.2393  0.3195 -0.0682
21958SOL    HW170685  10.697   4.719   0.789 -0.5719 -0.1566 -0.0548
21958SOL    HW270686  10.791   4.689   0.675 -0.6650  0.1174 -0.2056
21959SOL     OW70687   4.975   7.539   9.298 -0.0485 -0.0947  0.4874
21959SOL    HW170688   5.064   7.562   9.324 -0.2696  0.4285  0.8074
21959SOL    HW270689   4.940   7.619   9.258 -0.4466 -0.2249  0.5653
21960SOL     OW70690   8.831   8.705   2.000 -0.3161 -0.3304 -0.2679
21960SOL    HW170691   8.800   8.730   2.087 -0.2580  1.0105 -0.6164
21960SOL    HW270692   8.869   8.618   2.013  0.2128  0.0818  1.1643
21961SOL     OW70693  11.424   2.696   2.684 -0.0570 -0.0044 -0.0965
21961SOL    HW170694  11.501   2.643   2.664 -0.2252  0.5943 -2.7529
21961SOL    HW270695  11.432   2.716   2.777  2.5426 -0.6867 -0.0917
21962SOL     OW70696   1.259   9.258   7.765 -0.5976  0.2042 -0.0914
21962SOL    HW170697   1.238   9.351   7.752 -1.0312  0.0774 -0.3260
21962SOL    HW270698   1.352   9.257   7.784 -0.7067  0.7491  0.5071
21963SOL     OW70699  12.124   7.006   1.297  0.4519  0.4778 -0.5606
21963SOL    HW170700  12.098   6.916   1.276  1.2116  0.3140 -0.8004
21963SOL    HW270701  12.183   7.031   1.226 -0.1543  1.3535 -0.7761
21964SOL     OW70702   5.341   1.181   2.780  0.8738  0.4357  0.2960
21964SOL    HW170703   5.307   1.207   2.694  1.7425 -0.6597 -0.3970
21964SOL    HW270704   5.279   1.115   2.811  1.0287  0.1970  0.1074
21965SOL     OW70705   8.811  11.071  10.578  0.3539 -0.0076 -0.1461
21965SOL    HW170706   8.778  11.062  10.668  0.9047  3.0063  0.4749
21965SOL    HW270707   8.737  11.108  10.529  0.5197 -0.2118 -0.5539
21966SOL     OW70708   4.448   3.658   4.161 -0.3033  0.0668  0.3691
21966SOL    HW170709   4.473   3.706   4.240 -2.8905  0.7532  0.8445
21966SOL    HW270710   4.447   3.724   4.092  2.0023 -0.5400 -0.3643
21967SOL     OW70711  10.499   4.454   4.621  0.4108  0.0223  0.1686
21967SOL    HW170712  10.585   4.449   4.663  0.8835 -0.9062 -0.8747
21967SOL    HW270713  10.517   4.454   4.527 -0.6954  0.7833 -0.0784
21968SOL     OW70714   8.781  12.192   8.860 -0.1482  0.1295 -0.0046
21968SOL    HW170715   8.862  12.243   8.853  0.5530 -0.8231  0.8226
21968SOL    HW270716   8.764  12.161   8.772 -0.6219  1.8044 -0.5418
21969SOL     OW70717   1.827  10.720   2.191  0.0775 -0.4092 -0.1585
21969SOL    HW170718   1.854  10.749   2.278 -0.6113  0.1807 -0.1284
21969SOL    HW270719   1.906  10.726   2.138 -0.3253  3.1513 -0.5668
21970SOL     OW70720   8.154   5.383   9.701  0.1571 -0.0553  0.0922
21970SOL    HW170721   8.115   5.387   9.613  0.5009  1.0704 -0.0205
21970SOL    HW270722   8.079   5.370   9.760 -0.0273 -1.3544 -0.3871
21971SOL     OW70723   8.436   8.221  10.695 -0.0935  0.2897 -0.2007
21971SOL    HW170724   8.354   8.205  10.742  0.2357 -0.8257  0.0411
21971SOL    HW270725   8.424   8.179  10.610 -0.0871  0.8674 -0.4857
21972SOL     OW70726   3.074   5.427   9.848 -0.2733 -0.1436 -0.7697
21972SOL    HW170727   3.095   5.358   9.786 -2.4233 -2.1886  0.6064
21972SOL    HW270728   3.156   5.443   9.894  0.4293 -1.3851 -1.5313
21973SOL     OW70729   7.216  12.370   3.685  0.4758 -0.4055  0.0696
21973SOL    HW170730   7.272  12.340   3.613 -1.4278  2.0003 -2.6710
21973SOL    HW270731   7.219  12.466   3.680 -1.8593 -0.1757  1.3975
21974SOL     OW70732   7.215   1.027   8.792  0.4449 -0.0895  0.2394
21974SOL    HW170733   7.254   1.025   8.704  1.5545 -1.9185  0.7330
21974SOL    HW270734   7.142   1.089   8.784  0.6218 -0.0787 -1.9154
21975SOL     OW70735  11.189   6.328  11.730  0.3106  0.1429 -0.3731
21975SOL    HW170736  11.225   6.379  11.657  1.1784 -0.4942 -0.4117
21975SOL    HW270737  11.250   6.254  11.739 -0.7549 -0.7273 -0.1392
21976SOL     OW70738   5.657  10.821   5.850 -0.5817  0.1055 -0.0846
21976SOL    HW170739   5.562  10.818   5.866 -0.7921 -1.1927 -1.3879
21976SOL    HW270740   5.670  10.905   5.804 -1.1289  0.2089 -0.0652
21977SOL     OW70741   1.166   6.303   3.607  0.3173 -0.5865 -0.3255
21977SOL    HW170742   1.193   6.385   3.566  0.5377 -0.2556  0.4677
21977SOL    HW270743   1.219   6.297   3.686 -1.3309 -0.3257  0.8510
21978SOL     OW70744   7.180   0.375   3.627  0.0899 -0.5053  0.2412
21978SOL    HW170745   7.173   0.434   3.702 -1.0275 -0.5809  0.2079
21978SOL    HW270746   7.274   0.370   3.609  0.5650 -1.8270  2.6991
21979SOL     OW70747   5.557  12.361   2.693  0.4664  0.3297  0.9568
21979SOL    HW170748   5.604  12.279   2.675  0.1400  0.3443 -0.0112
21979SOL    HW270749   5.607  12.428   2.648 -0.7793  0.2639 -0.6109
21980SOL     OW70750  11.139  10.611   6.839 -0.2546  0.1989 -1.0177
21980SOL    HW170751  11.233  10.626   6.832 -0.0514  0.5008  1.4527
21980SOL    HW270752  11.117  10.558   6.762  2.4117 -2.0095 -0.4275
21981SOL     OW70753   7.100   6.176   2.977 -0.1298 -0.3740  0.2362
21981SOL    HW170754   7.009   6.205   2.969 -0.5008 -1.9011 -2.0584
21981SOL    HW270755   7.096   6.100   3.036 -0.2646 -0.2101  0.4402
21982SOL     OW70756   7.609   0.789   1.402 -0.1757  0.4799 -0.1036
21982SOL    HW170757   7.559   0.841   1.465 -2.7512 -1.5635 -0.2661
21982SOL    HW270758   7.670   0.739   1.456  0.5388  1.7382  0.2940
21983SOL     OW70759   0.690   7.502  12.397 -0.2614  0.2863  0.2678
21983SOL    HW170760   0.625   7.445  12.437  0.5917 -0.1403  1.0933
21983SOL    HW270761   0.720   7.558  12.469 -0.0819  0.8274 -0.2157
21984SOL     OW70762   6.739   9.829   7.213  0.7665  0.5769 -0.2670
21984SOL    HW170763   6.819   9.779   7.229  0.2450 -0.2950 -0.3574
21984SOL    HW270764   6.669   9.775   7.249 -0.0766  0.0939 -2.4591
21985SOL     OW70765   1.166   6.746   0.691 -0.4808 -0.1013  0.3873
21985SOL    HW170766   1.200   6.807   0.757 -0.1760  1.3215 -1.0113
21985SOL    HW270767   1.219   6.667   0.701 -0.2339  0.2008  1.6216
21986SOL     OW70768  10.647   6.512   7.356  0.3314  1.0139 -0.6032
21986SOL    HW170769  10.717   6.472   7.303  1.6243  1.0007  1.0544
21986SOL    HW270770  10.570   6.459   7.336  1.4076 -0.7189 -0.4490
21987SOL     OW70771   5.173  11.135   4.380  0.0987  0.1347 -0.4122
21987SOL    HW170772   5.085  11.165   4.357 -0.0212 -0.8880 -1.3684
21987SOL    HW270773   5.161  11.085   4.461 -0.4827 -1.2973 -1.3406
21988SOL     OW70774   2.848   7.171   0.580 -0.1320 -0.5557  0.5087
21988SOL    HW170775   2.774   7.161   0.640 -1.0443 -0.0129 -0.4984
21988SOL    HW270776   2.811   7.213   0.503  0.7895 -2.1479 -0.8589
21989SOL     OW70777   7.101   4.565   7.827 -0.2658  0.2210  0.1293
21989SOL    HW170778   7.185   4.588   7.867 -0.7844  0.3747  1.1693
21989SOL    HW270779   7.120   4.485   7.777  0.2400 -0.4802  1.3939
21990SOL     OW70780   8.807  12.312   5.946  0.0575  0.2741  0.8946
21990SOL    HW170781   8.895  12.344   5.927 -0.3987  0.1845 -1.7385
21990SOL    HW270782   8.760  12.389   5.980  0.6596  0.7866  0.5776
21991SOL     OW70783   1.803   9.849   8.421  0.2444 -0.2595 -0.2318
21991SOL    HW170784   1.735   9.785   8.400  0.8281 -1.6966  1.9249
21991SOL    HW270785   1.878   9.796   8.448  1.4438  1.3272 -0.3003
21992SOL     OW70786   9.108   9.277   7.920 -0.2566  0.4548 -0.0926
21992SOL    HW170787   9.151   9.220   7.857 -0.7302  0.9258 -0.8617
21992SOL    HW270788   9.014   9.263   7.905 -0.4290 -0.9549  1.9148
21993SOL     OW70789   7.491   7.678   0.362 -0.0545  0.7380  0.4022
21993SOL    HW170790   7.553   7.657   0.432  1.1703  1.1558 -0.5142
21993SOL    HW270791   7.515   7.767   0.335 -1.4211  1.1132  0.3869
21994SOL     OW70792   5.214   4.196   7.659  0.3008 -0.6518 -0.1737
21994SOL    HW170793   5.155   4.177   7.586 -0.4087  0.1470  0.1704
21994SOL    HW270794   5.260   4.276   7.633  0.7638 -0.9141 -0.1671
21995SOL     OW70795   4.919   0.784   3.092 -0.0623 -0.1954  0.2010
21995SOL    HW170796   4.964   0.864   3.120 -0.3817  0.6263 -1.4635
21995SOL    HW270797   4.826   0.806   3.097 -0.1383 -0.1950 -0.9244
21996SOL     OW70798   2.625  10.676  11.401 -0.3466  0.4336  0.6230
21996SOL    HW170799   2.591  10.619  11.333  0.8855  0.5294 -0.1165
21996SOL    HW270800   2.661  10.617  11.467  1.1017  0.3244 -0.2330
21997SOL     OW70801   4.437   9.377  11.185  0.7941 -0.0063 -0.1101
21997SOL    HW170802   4.392   9.359  11.268  3.2153  0.4245  1.4216
21997SOL    HW270803   4.426   9.471  11.172 -0.3953 -0.2264 -0.8352
21998SOL     OW70804   6.645   7.950  11.096 -0.2915 -0.3651  0.0491
21998SOL    HW170805   6.563   7.999  11.096  0.9516  1.8783 -0.9024
21998SOL    HW270806   6.638   7.892  11.021 -0.1623  1.4945 -1.4977
21999SOL     OW70807   6.093   1.439   3.814 -0.1499 -0.0379 -0.2388
21999SOL    HW170808   6.076   1.360   3.762  1.6924  0.1080 -1.1492
21999SOL    HW270809   6.188   1.438   3.829 -0.4255  0.6880  1.9310
22000SOL     OW70810   5.804  10.719   5.343  0.2966  0.7467  0.3384
22000SOL    HW170811   5.846  10.803   5.321 -0.1096  1.0060  0.5517
22000SOL    HW270812   5.788  10.724   5.438  0.8735  0.1555  0.4764
22001SOL     OW70813   1.748   0.935   5.363  0.1186  0.0517 -0.1850
22001SOL    HW170814   1.688   0.881   5.414  1.0373 -0.0929  0.7887
22001SOL    HW270815   1.693   0.976   5.296 -1.0004 -0.2943  0.4938
22002SOL     OW70816   8.099   4.424   4.129 -0.0619 -0.0153 -0.2867
22002SOL    HW170817   8.069   4.510   4.098 -1.5587 -0.5051 -0.2254
22002SOL    HW270818   8.023   4.385   4.170  0.7219 -1.2253  0.0561
22003SOL     OW70819   0.345  11.891  12.270  0.0221 -0.3568  0.0707
22003SOL    HW170820   0.383  11.806  12.247 -0.5486 -1.2543  2.1238
22003SOL    HW270821   0.254  11.872  12.290 -0.5000  1.0346 -0.8141
22004SOL     OW70822   1.620  10.991   7.764  0.6041 -0.2368  0.2062
22004SOL    HW170823   1.584  11.048   7.832  0.0271 -0.1494 -0.1628
22004SOL    HW270824   1.562  10.915   7.764  1.1373 -0.6396  0.4256
22005SOL     OW70825   2.952   9.980   6.560 -0.4011 -0.3526  0.5170
22005SOL    HW170826   2.886   9.928   6.514 -1.8249  1.3063  0.5882
22005SOL    HW270827   2.980  10.046   6.496 -0.4370  0.3116  1.1645
22006SOL     OW70828  10.171   8.623   0.213 -0.0712 -0.6662  0.1759
22006SOL    HW170829  10.154   8.532   0.237  0.7329 -0.8259  0.1780
22006SOL    HW270830  10.222   8.617   0.132 -0.0220 -0.2157  0.1717
22007SOL     OW70831   2.042   8.049  12.052 -0.1914 -0.1855  0.2781
22007SOL    HW170832   1.952   8.076  12.033  0.3372  1.9410  0.4588
22007SOL    HW270833   2.095   8.096  11.988  0.8170 -1.1792  0.3629
22008SOL     OW70834  11.349  11.605   6.239  0.3690 -0.2978 -0.3030
22008SOL    HW170835  11.442  11.627   6.251  0.3650 -0.7001  0.5496
22008SOL    HW270836  11.334  11.613   6.145  1.5356 -1.2453 -0.6006
22009SOL     OW70837   4.937   6.428  11.824 -0.0365 -0.1126  0.0723
22009SOL    HW170838   4.990   6.498  11.788 -0.2989  0.2482  0.3728
22009SOL    HW270839   4.978   6.347  11.794  0.5556  0.1652  0.1374
22010SOL     OW70840   9.223  11.913   2.660  0.2661 -0.2891 -0.7795
22010SOL    HW170841   9.161  11.965   2.710 -1.1429 -0.1918 -2.5124
22010SOL    HW270842   9.252  11.845   2.721 -0.1342  0.7524  0.6146
22011SOL     OW70843   8.316   0.028   2.090  0.8434  0.0420  0.4978
22011SOL    HW170844   8.405  -0.007   2.097  1.0609  0.5838  0.4847
22011SOL    HW270845   8.311   0.094   2.159 -0.2872 -1.5222  1.9850
22012SOL     OW70846   2.082  11.256   6.201 -0.0185  0.2431 -0.3196
22012SOL    HW170847   1.994  11.229   6.177  0.2884  0.8411 -2.3453
22012SOL    HW270848   2.131  11.254   6.119  1.3396  1.8208  0.3813
22013SOL     OW70849   4.163   2.005   1.929 -0.1796 -0.0615 -0.1240
22013SOL    HW170850   4.190   2.033   2.017 -0.0077 -0.1307 -0.1541
22013SOL    HW270851   4.068   2.008   1.932 -0.1783  1.6122 -0.4584
22014SOL     OW70852   0.926   5.299   5.518  0.3634 -0.2035  0.0495
22014SOL    HW170853   0.852   5.315   5.458  1.8867 -0.7619 -2.1083
22014SOL    HW270854   0.948   5.207   5.503  0.4118 -0.5522  2.0123
22015SOL     OW70855  12.374   4.673   3.153  0.2394 -0.3296  0.6145
22015SOL    HW170856  12.305   4.725   3.109 -1.5753 -2.5944  0.5845
22015SOL    HW270857  12.447   4.673   3.091 -0.4729  0.5165 -0.2577
22016SOL     OW70858   4.861   5.595   7.613  0.1649  0.4578  0.2669
22016SOL    HW170859   4.945   5.639   7.598  0.3912 -0.3921 -1.0945
22016SOL    HW270860   4.814   5.603   7.530 -0.5449 -0.2625  0.5875
22017SOL     OW70861   1.286   0.826  12.377  0.3286  0.2055  0.1856
22017SOL    HW170862   1.288   0.920  12.394 -0.8476  0.1961  0.4567
22017SOL    HW270863   1.377   0.799  12.382  0.8407  1.5493 -1.1209
22018SOL     OW70864   0.781   7.817  10.209  0.6960  0.1784 -0.5336
22018SOL    HW170865   0.774   7.725  10.182  0.9373 -0.0082 -0.0022
22018SOL    HW270866   0.859   7.849  10.163  2.2781 -0.6966  1.3534
22019SOL     OW70867   6.611   2.153   6.245 -0.5353  0.2588 -0.2796
22019SOL    HW170868   6.614   2.176   6.152 -1.7989 -0.7264 -0.5857
22019SOL    HW270869   6.648   2.230   6.290  0.0574  0.7627 -1.5716
22020SOL     OW70870  10.446   5.182   5.557 -0.1451 -0.0142  0.1419
22020SOL    HW170871  10.370   5.159   5.503  0.5775 -0.8335 -0.5556
22020SOL    HW270872  10.494   5.100   5.566  1.3904  0.7657 -0.6035
22021SOL     OW70873   1.015   2.603   2.463 -0.2439 -0.5107 -0.2725
22021SOL    HW170874   0.963   2.534   2.422 -2.6560  2.2921 -2.3521
22021SOL    HW270875   0.955   2.645   2.524  0.5443  0.9133 -0.4440
22022SOL     OW70876   7.206   3.878   6.705  0.4050  0.0879 -0.5375
22022SOL    HW170877   7.171   3.865   6.618  0.4923  0.6783 -0.6705
22022SOL    HW270878   7.297   3.849   6.699 -0.1276 -1.7880 -0.0947
22023SOL     OW70879   4.946   1.542   9.118  0.3499 -0.2825 -0.4421
22023SOL    HW170880   5.014   1.480   9.145 -0.0413 -0.6465 -0.2584
22023SOL    HW270881   4.866   1.489   9.118  0.1513  0.0198 -1.1431
22024SOL     OW70882   8.102  10.441   7.917 -0.3409  0.0902  0.1415
22024SOL    HW170883   8.067  10.526   7.889 -1.3669  0.1011  1.3640
22024SOL    HW270884   8.112  10.449   8.012  2.3024 -0.2113 -0.0417
22025SOL     OW70885   3.104   8.028   9.677 -0.0810 -0.3945  0.9193
22025SOL    HW170886   3.175   8.016   9.614  0.0910  0.8830  0.8408
22025SOL    HW270887   3.045   8.091   9.635 -1.1918 -1.3098  1.0556
22026SOL     OW70888   0.938   0.403   4.544 -0.3667  0.5782 -0.0858
22026SOL    HW170889   0.846   0.427   4.550 -1.7761 -4.1440  2.1166
22026SOL    HW270890   0.946   0.358   4.460 -0.3451  0.1975  0.1163
22027SOL     OW70891   5.256   8.656   4.576  0.1454 -0.3959 -0.1252
22027SOL    HW170892   5.299   8.654   4.661  1.1543 -0.4930 -0.6106
22027SOL    HW270893   5.210   8.572   4.571 -0.0644 -0.3143  0.3899
22028SOL     OW70894   9.796   1.489   5.520  0.5013 -0.2634  0.0860
22028SOL    HW170895   9.807   1.584   5.523 -0.8458 -0.1189  1.4267
22028SOL    HW270896   9.765   1.465   5.608 -0.4901 -1.7581 -0.6289
22029SOL     OW70897   2.836  10.503   2.812 -0.0050  0.2157 -0.3891
22029SOL    HW170898   2.915  10.532   2.858  1.4486 -1.1160 -1.9065
22029SOL    HW270899   2.864  10.426   2.763 -2.0746  0.1658 -1.6009
22030SOL     OW70900  11.947   4.791   1.163 -0.1799 -0.6829  0.8029
22030SOL    HW170901  11.876   4.831   1.213 -1.6345 -2.0556 -0.0978
22030SOL    HW270902  11.977   4.860   1.104  0.3763  0.4114  2.3025
22031SOL     OW70903   8.641   7.047   6.937  0.3283 -0.9275 -0.4637
22031SOL    HW170904   8.665   6.977   6.876  0.6778  0.5846 -2.1305
22031SOL    HW270905   8.680   7.126   6.900 -1.7271  0.5206  0.2789
22032SOL     OW70906   1.628   2.585   9.278  0.1121 -0.1942 -0.5379
22032SOL    HW170907   1.612   2.616   9.367  0.9527 -0.7647 -0.1716
22032SOL    HW270908   1.577   2.505   9.270  0.2547 -0.2913 -0.4741
22033SOL     OW70909   7.779   4.830   3.170 -0.1203 -0.6414 -0.0955
22033SOL    HW170910   7.772   4.907   3.113 -0.8549  0.9048  1.9565
22033SOL    HW270911   7.870   4.802   3.161 -0.3155 -0.7555 -2.3252
22034SOL     OW70912  12.572  10.747   5.002 -0.6374  0.5914  0.2316
22034SOL    HW170913  12.509  10.675   4.996  0.7489 -0.6799  0.2506
22034SOL    HW270914  12.607  10.740   5.091  0.7991  0.1467 -0.3507
22035SOL     OW70915   2.006   6.295  11.870 -0.3186 -0.1633  0.0093
22035SOL    HW170916   1.974   6.259  11.953  0.9770 -2.6130 -0.4796
22035SOL    HW270917   1.931   6.290  11.811 -0.5526 -0.7423  0.3500
22036SOL     OW70918   6.210  10.226   0.234  0.5232  0.3810  0.7294
22036SOL    HW170919   6.118  10.214   0.256  0.3887  3.3683  2.3892
22036SOL    HW270920   6.232  10.151   0.179 -2.6175 -0.9225  1.0487
22037SOL     OW70921   8.656  10.308   4.446  0.5229  0.7815  0.1098
22037SOL    HW170922   8.593  10.337   4.512  0.1597  0.1405  0.0518
22037SOL    HW270923   8.615  10.231   4.406  1.2991  0.4099  0.0148
22038SOL     OW70924   4.087   3.620   6.311 -0.0689 -0.4878  0.5101
22038SOL    HW170925   4.088   3.590   6.401 -0.2279  1.0343  1.0389
22038SOL    HW270926   3.995   3.634   6.291  0.0972  2.0539  1.1544
22039SOL     OW70927   6.068   7.835   1.191  0.8623  0.6233  0.0809
22039SOL    HW170928   6.002   7.774   1.227  2.3763 -0.8373  0.4952
22039SOL    HW270929   6.018   7.892   1.132 -0.8960  0.0430  0.9318
22040SOL     OW70930   2.596   9.919   6.772  0.6329  0.4464 -0.0037
22040SOL    HW170931   2.622   9.992   6.716 -0.5374  0.0556 -1.1066
22040SOL    HW270932   2.625   9.841   6.724  0.1106  0.1274  0.1974
22041SOL     OW70933  11.854  10.403  11.658 -0.1408 -0.0649  0.7036
22041SOL    HW170934  11.833  10.488  11.620  0.5520 -0.1457  0.1469
22041SOL    HW270935  11.816  10.407  11.746  0.1409  0.9309  0.7906
22042SOL     OW70936   0.332   2.253   8.837 -0.8268  0.2579  0.1876
22042SOL    HW170937   0.263   2.282   8.897 -0.2481  0.3425  0.8199
22042SOL    HW270938   0.295   2.266   8.749 -1.7046  0.0805  0.5180
22043SOL     OW70939   7.736   8.159  11.468 -0.3834  0.0300 -0.5416
22043SOL    HW170940   7.800   8.098  11.503  0.6355  0.5789 -1.4020
22043SOL    HW270941   7.775   8.245  11.483 -0.4169  0.3209 -2.0420
22044SOL     OW70942   8.042  12.187   7.267 -0.0764  0.2493 -0.0572
22044SOL    HW170943   8.103  12.191   7.193  1.1584 -0.9002  0.8439
22044SOL    HW270944   8.049  12.273   7.308 -1.0428  1.0255 -1.4480
22045SOL     OW70945   3.354   7.344   1.169 -0.2739 -0.3265 -1.0188
22045SOL    HW170946   3.410   7.409   1.128 -1.7765  0.9573 -1.1221
22045SOL    HW270947   3.389   7.334   1.258  0.4965 -0.0256 -1.2849
22046SOL     OW70948   2.384   4.547   1.143  0.3173 -0.0591 -0.3450
22046SOL    HW170949   2.291   4.553   1.161  0.3451  2.4569 -0.6367
22046SOL    HW270950   2.390   4.537   1.048  0.2785  2.5968 -0.7158
22047SOL     OW70951   6.527   3.896   1.498  0.2969 -0.1500 -0.4592
22047SOL    HW170952   6.432   3.889   1.504  0.2190  0.7144 -0.5983
22047SOL    HW270953   6.551   3.836   1.427 -0.0012 -1.2949  0.3722
22048SOL     OW70954   3.768   0.106   4.416  0.2117  0.4803 -0.0364
22048SOL    HW170955   3.688   0.112   4.364  1.0885  2.1567 -1.2824
22048SOL    HW270956   3.760   0.177   4.480  1.0961  1.3221 -0.8159
22049SOL     OW70957   6.051   0.104   8.799  0.4315 -0.3688  0.0853
22049SOL    HW170958   6.004   0.118   8.717  0.8819 -0.2440 -0.1548
22049SOL    HW270959   5.995   0.044   8.849 -1.6554  2.3348  1.2282
22050SOL     OW70960   0.749   0.585   8.567 -0.1634  0.0070 -0.0340
22050SOL    HW170961   0.763   0.680   8.558 -0.2402  0.0228  0.0189
22050SOL    HW270962   0.794   0.561   8.647  0.7869 -0.1882 -0.6072
22051SOL     OW70963   8.320   8.926   8.089  0.0601  0.0917  0.3252
22051SOL    HW170964   8.328   9.021   8.102 -0.0518 -0.0978  2.0590
22051SOL    HW270965   8.263   8.917   8.013  0.0443  1.4144  0.1536
22052SOL     OW70966  12.144   9.368  10.101 -1.0188 -0.0911 -0.6861
22052SOL    HW170967  12.165   9.330  10.187 -2.5296  0.9312  0.1778
22052SOL    HW270968  12.227   9.406  10.071 -0.5181 -0.2489  0.4474
22053SOL     OW70969   7.648   3.888   2.464  0.1968 -0.1841 -0.9931
22053SOL    HW170970   7.640   3.977   2.429  0.2941  0.4653  0.5949
22053SOL    HW270971   7.639   3.898   2.558 -1.1479 -2.0354 -0.8819
22054SOL     OW70972   3.231   7.208   7.272 -0.7154  0.5132 -0.1036
22054SOL    HW170973   3.173   7.200   7.348 -0.8570 -0.6092 -0.3193
22054SOL    HW270974   3.314   7.172   7.302 -1.1076 -1.0761 -0.8259
22055SOL     OW70975   8.051   5.872   8.796  0.1459 -0.1669  0.1472
22055SOL    HW170976   8.036   5.950   8.849 -1.6665  0.7580 -1.5873
22055SOL    HW270977   8.002   5.803   8.840  1.0775 -0.1480  1.2414
22056SOL     OW70978   8.180   5.753   5.703  0.4435 -0.0101  0.1415
22056SOL    HW170979   8.146   5.780   5.789  0.0031  0.4413 -0.1645
22056SOL    HW270980   8.162   5.828   5.646 -0.2678 -0.7214 -0.6011
22057SOL     OW70981   8.276   0.296   9.228  0.0190 -0.5945  0.5511
22057SOL    HW170982   8.227   0.317   9.308 -1.8432 -2.9512  0.1424
22057SOL    HW270983   8.335   0.225   9.253 -0.6635 -1.4330 -0.1628
22058SOL     OW70984   2.931   1.368   2.730 -0.3037  0.7064  0.0922
22058SOL    HW170985   2.987   1.335   2.659 -0.6990  0.6057 -0.1728
22058SOL    HW270986   2.852   1.398   2.686 -0.4689  0.8276  0.4730
22059SOL     OW70987   8.863  12.057   7.508 -0.4660  0.4768 -0.0090
22059SOL    HW170988   8.925  12.024   7.442 -1.2890 -0.5222 -0.2976
22059SOL    HW270989   8.784  12.077   7.459 -0.4155  1.7098  0.3689
22060SOL     OW70990   9.078   3.739   6.117 -0.0594 -0.3414  0.5051
22060SOL    HW170991   8.986   3.755   6.092 -0.4510  0.2078  2.1536
22060SOL    HW270992   9.124   3.818   6.088  0.1552 -1.1090 -1.3802
22061SOL     OW70993   9.270   7.060  11.656  0.6327  0.1668  0.2106
22061SOL    HW170994   9.324   6.994  11.699  1.1185  0.3549 -0.1041
22061SOL    HW270995   9.264   7.132  11.719  1.8728  0.7118 -0.2676
22062SOL     OW70996  10.715  10.121   4.922  0.0251  0.1154  0.3891
22062SOL    HW170997  10.675  10.064   4.987 -0.6497 -0.4021 -0.4492
22062SOL    HW270998  10.767  10.183   4.972  0.5546 -1.0616  1.3532
22063SOL     OW70999   2.753   9.444   1.529  0.3986  0.2117 -0.3308
22063SOL    HW171000   2.753   9.369   1.589 -0.0865  1.0913  0.7935
22063SOL    HW271001   2.827   9.427   1.471 -1.7124 -2.9655 -2.4609
22064SOL     OW71002   9.113   1.400   1.575 -0.4740  0.2295 -0.0875
22064SOL    HW171003   9.064   1.478   1.601 -2.1555 -1.1995  1.3081
22064SOL    HW271004   9.098   1.338   1.646  0.2877 -1.5961 -1.4386
22065SOL     OW71005  12.429   8.848  12.316  1.0525  0.4851  0.2944
22065SOL    HW171006  12.354   8.903  12.292 -0.0018 -0.6800  0.8306
22065SOL    HW271007  12.494   8.909  12.350  0.5837  1.5852 -0.7200
22066SOL     OW71008   6.723   3.443   9.857  0.3958  0.6559  0.3888
22066SOL    HW171009   6.649   3.495   9.888  1.0912  2.6311 -1.0686
22066SOL    HW271010   6.712   3.439   9.762  2.4585  1.5489  0.0627
22067SOL     OW71011  11.007  11.860  10.971  0.0409 -0.1268 -0.3291
22067SOL    HW171012  10.971  11.949  10.961  0.1410 -0.0621 -0.1221
22067SOL    HW271013  10.954  11.821  11.040 -0.0145 -0.2358 -0.4325
22068SOL     OW71014  11.978   6.590   7.839 -0.0559 -0.2938 -0.0572
22068SOL    HW171015  12.034   6.605   7.763  2.4320  2.3437  2.1044
22068SOL    HW271016  11.893   6.566   7.801  1.5608 -1.1494 -3.5575
22069SOL     OW71017  10.639   7.920   9.956  0.2865 -0.2579  0.7056
22069SOL    HW171018  10.674   7.885   9.874 -0.4416  1.3831 -0.3515
22069SOL    HW271019  10.568   7.860   9.979 -0.8199  0.3394 -0.9619
22070SOL     OW71020   7.763   5.514  10.834 -0.5038 -0.7591  1.2402
22070SOL    HW171021   7.805   5.596  10.809 -0.8321 -0.6352  1.0860
22070SOL    HW271022   7.744   5.470  10.751 -0.9181 -0.6913  1.2968
22071SOL     OW71023   6.276   4.042  10.836 -0.3207  0.1800 -0.5929
22071SOL    HW171024   6.185   4.018  10.817 -0.2673 -1.1133  0.6071
22071SOL    HW271025   6.273   4.135  10.855 -1.5640 -0.0188  0.3231
22072SOL     OW71026   8.589   3.331   1.915 -0.0494  0.0937  0.0441
22072SOL    HW171027   8.552   3.412   1.950 -0.3420 -0.0432  0.0518
22072SOL    HW271028   8.680   3.353   1.895  0.1743  0.1253  1.0621
22073SOL     OW71029   9.640   1.786   7.438  0.6530 -0.5009  0.1705
22073SOL    HW171030   9.625   1.772   7.345 -0.5136 -2.4735  0.5906
22073SOL    HW271031   9.715   1.730   7.459 -0.2467 -1.5300  0.7379
22074SOL     OW71032   2.404   2.945   6.538 -0.1481  0.5278 -0.3369
22074SOL    HW171033   2.331   2.899   6.580  0.5180 -1.2682 -1.0308
22074SOL    HW271034   2.482   2.900   6.571  0.5101  0.7958 -1.4799
22075SOL     OW71035  12.110   7.126  12.280 -0.2220  0.7959 -0.0073
22075SOL    HW171036  12.042   7.092  12.222 -0.3970 -0.9378  1.1361
22075SOL    HW271037  12.177   7.057  12.282  0.0701  1.0766  1.3433
22076SOL     OW71038   6.020  11.062   7.065 -0.7111 -0.4349 -0.0029
22076SOL    HW171039   6.020  11.119   7.141 -0.0729 -0.7082  0.2023
22076SOL    HW271040   6.027  11.122   6.990  0.5853 -0.2672  0.2368
22077SOL     OW71041   7.376  10.628   3.891  0.2717 -0.2976  0.2023
22077SOL    HW171042   7.309  10.691   3.920  1.5868  1.0958  0.3191
22077SOL    HW271043   7.456  10.657   3.934  1.6740  0.0685 -2.4988
22078SOL     OW71044   3.074   6.520  10.889  1.2902 -0.5185  0.4135
22078SOL    HW171045   2.980   6.538  10.885  1.4160  0.4823  1.3102
22078SOL    HW271046   3.096   6.525  10.982  2.0498 -1.8119  0.3307
22079SOL     OW71047   2.185  10.365   1.995  0.3292 -0.3289  0.1474
22079SOL    HW171048   2.250  10.431   2.016  0.9532 -0.9557  0.2349
22079SOL    HW271049   2.181  10.364   1.899  1.4767 -1.2368  0.0836
22080SOL     OW71050   7.341   7.446   9.304  0.1520  0.3202  0.2548
22080SOL    HW171051   7.291   7.379   9.349 -1.1256  1.6079  0.8549
22080SOL    HW271052   7.349   7.517   9.368 -1.1617  1.9408 -1.2445
22081SOL     OW71053  11.285  11.258   1.932  0.1616 -0.0227 -0.1408
22081SOL    HW171054  11.205  11.308   1.916  0.0018  0.4986  2.0498
22081SOL    HW271055  11.313  11.231   1.844 -0.8607  2.1648 -1.2479
22082SOL     OW71056   1.588   5.991   7.208  0.3831  0.0945  0.0583
22082SOL    HW171057   1.507   6.026   7.171  1.2989  1.5674 -0.6530
22082SOL    HW271058   1.657   6.049   7.176  1.6531 -0.6636  1.2529
22083SOL     OW71059   5.588   8.170   0.055 -0.6422 -0.8074  0.4416
22083SOL    HW171060   5.511   8.225   0.070  0.2280  0.5637  0.0632
22083SOL    HW271061   5.567   8.087   0.099 -2.2310 -0.3969  0.5294
22084SOL     OW71062   0.476   8.358   3.611  0.1989 -0.0845  0.0811
22084SOL    HW171063   0.564   8.346   3.646 -0.5910  0.2191  2.3817
22084SOL    HW271064   0.419   8.344   3.687 -1.5821  2.7345 -0.6011
22085SOL     OW71065   4.667   5.455   4.332  0.0099 -0.0703 -0.1193
22085SOL    HW171066   4.644   5.423   4.419  0.0037  0.3386  0.0326
22085SOL    HW271067   4.750   5.411   4.312 -0.6480 -1.1769 -0.4706
22086SOL     OW71068   8.658   6.719   7.371  0.5055 -0.2866  0.0531
22086SOL    HW171069   8.704   6.781   7.428 -0.7097  1.0118 -0.3265
22086SOL    HW271070   8.681   6.748   7.282  0.6204 -0.9206 -0.1252
22087SOL     OW71071   1.306   6.985   2.826 -0.3531  0.4449  0.1610
22087SOL    HW171072   1.356   6.973   2.907 -1.5042  1.7023  1.0833
22087SOL    HW271073   1.340   6.917   2.767 -0.2295 -1.1976  2.0302
22088SOL     OW71074  11.089   7.194   1.459  0.6361 -0.7015 -0.0045
22088SOL    HW171075  11.155   7.142   1.506  1.6425  0.4022 -0.1676
22088SOL    HW271076  11.139   7.256   1.407 -0.5277  0.7695  0.5470
22089SOL     OW71077   7.467   4.655   3.158 -0.0469  0.0290  0.2582
22089SOL    HW171078   7.425   4.570   3.174 -1.5509  0.2524 -2.0754
22089SOL    HW271079   7.543   4.634   3.103  1.6554 -0.0925  2.4821
22090SOL     OW71080   2.177   3.800   8.248  0.3959 -0.4591 -0.0224
22090SOL    HW171081   2.217   3.723   8.288 -0.9851 -0.8393  0.6853
22090SOL    HW271082   2.096   3.767   8.208 -1.0396  0.8454  1.6424
22091SOL     OW71083   8.053  11.776   6.146 -0.5147  0.3106 -0.1740
22091SOL    HW171084   8.021  11.797   6.234  1.4000  0.1236  0.6231
22091SOL    HW271085   8.092  11.689   6.155  2.4974  1.5047 -0.3506
22092SOL     OW71086   3.188   2.592   0.200 -0.0904  0.2627 -0.3557
22092SOL    HW171087   3.282   2.576   0.206  0.5139  1.4222 -4.2754
22092SOL    HW271088   3.161   2.548   0.120 -3.0431 -0.4061  0.8879
22093SOL     OW71089   6.304   9.063   0.883  0.0881 -0.0839 -0.1205
22093SOL    HW171090   6.242   9.090   0.815  1.6632  0.1555 -1.5299
22093SOL    HW271091   6.273   8.977   0.910 -1.0943  0.2031 -0.4654
22094SOL     OW71092  11.322  11.476   4.566  0.1123 -0.0167  0.2582
22094SOL    HW171093  11.243  11.520   4.597  0.5353  1.4279 -0.6197
22094SOL    HW271094  11.387  11.491   4.635  0.4525  1.3761 -0.3394
22095SOL     OW71095   0.824   6.912   8.840 -0.6083  0.4247 -0.6174
22095SOL    HW171096   0.796   6.979   8.777 -0.3287 -0.3294 -1.5854
22095SOL    HW271097   0.903   6.875   8.801 -1.1478 -0.9468 -0.4658
22096SOL     OW71098   0.102   2.636   9.408  0.0521 -0.6419  0.2812
22096SOL    HW171099   0.119   2.551   9.367 -1.3633 -0.8497  0.0608
22096SOL    HW271100   0.006   2.640   9.415  0.0359  1.2794 -0.4551
22097SOL     OW71101   8.805   5.367   8.484 -0.1467 -0.7548 -0.5523
22097SOL    HW171102   8.803   5.279   8.445 -1.3761 -1.2159  0.4694
22097SOL    HW271103   8.739   5.416   8.435 -0.7513 -0.9469  0.0587
22098SOL     OW71104   0.521   8.770  11.677 -0.0225 -0.3414  0.5238
22098SOL    HW171105   0.428   8.761  11.699 -0.6985 -1.3928 -2.3214
22098SOL    HW271106   0.561   8.688  11.706 -0.0792 -0.0960  1.3052
22099SOL     OW71107   0.453   2.357   6.070 -0.1126  0.2112  0.1346
22099SOL    HW171108   0.481   2.340   5.980 -1.1219 -0.0134 -0.1438
22099SOL    HW271109   0.494   2.441   6.092 -0.1559  0.4481 -0.6627
22100SOL     OW71110   5.732   8.770   5.721  0.2133  0.1527  0.0323
22100SOL    HW171111   5.640   8.786   5.701  0.1288  0.6263  0.7522
22100SOL    HW271112   5.730   8.726   5.807  0.6246 -0.5201 -0.2905
22101SOL     OW71113   5.398  10.164   8.654  0.3379  0.0431  0.6538
22101SOL    HW171114   5.389  10.257   8.675 -0.3974  0.3892 -1.0847
22101SOL    HW271115   5.310  10.128   8.663  0.4574 -0.3018  0.4739
22102SOL     OW71116   1.080   0.186   8.192  0.2259  0.7049  0.1866
22102SOL    HW171117   1.143   0.247   8.229  2.4435  0.2510 -2.5659
22102SOL    HW271118   1.062   0.220   8.104 -2.5294  0.1363  0.4148
22103SOL     OW71119   7.346  12.223   2.117  0.0218  0.5500 -0.2214
22103SOL    HW171120   7.362  12.147   2.173  0.0308 -1.2267 -2.4772
22103SOL    HW271121   7.434  12.250   2.088 -0.0188  1.0924  0.1497
22104SOL     OW71122   9.162   6.109   9.505 -0.1180 -0.1878 -0.3619
22104SOL    HW171123   9.208   6.054   9.569 -0.1367 -1.1764 -1.1551
22104SOL    HW271124   9.154   6.194   9.547  2.2857 -0.0193 -0.1068
22105SOL     OW71125  11.056   2.345   2.716  0.1085  0.1622 -0.4509
22105SOL    HW171126  11.118   2.299   2.659 -1.2011 -0.5975 -1.3446
22105SOL    HW271127  10.989   2.378   2.655 -1.2703 -0.5635  0.6063
22106SOL     OW71128   4.946   9.399   4.151  0.4222 -0.3373 -0.3532
22106SOL    HW171129   4.860   9.368   4.123  0.2628 -0.4850  0.2800
22106SOL    HW271130   4.994   9.414   4.069 -0.3697  0.2356 -0.7339
22107SOL     OW71131   0.862   4.610   5.763  0.2329 -0.2858 -0.5096
22107SOL    HW171132   0.950   4.622   5.727 -0.0343 -0.4984 -1.2469
22107SOL    HW271133   0.828   4.533   5.719 -0.8981  0.6692 -1.3797
22108SOL     OW71134  11.352   2.181  12.444 -0.6202 -0.2504 -0.6298
22108SOL    HW171135  11.414   2.232  12.391 -0.3291  0.1396  0.0700
22108SOL    HW271136  11.371   2.090  12.421  1.5945 -0.2734  0.9996
22109SOL     OW71137   6.370   4.519   8.062 -0.3817  0.3924 -0.1082
22109SOL    HW171138   6.396   4.544   8.151  0.3219 -1.7876  0.3464
22109SOL    HW271139   6.337   4.430   8.071 -0.6708  0.2837 -1.9872
22110SOL     OW71140   8.668   9.437   8.435 -0.2077  0.6488  0.2769
22110SOL    HW171141   8.654   9.531   8.441 -0.7417  0.5771  0.1799
22110SOL    HW271142   8.686   9.421   8.342  0.7846  0.7715  0.4352
22111SOL     OW71143   9.794   8.501   8.308 -0.1758 -0.2723  0.4715
22111SOL    HW171144   9.763   8.588   8.281  1.3044  0.6161  1.5135
22111SOL    HW271145   9.865   8.481   8.247  0.3012 -0.1933  0.9976
22112SOL     OW71146   5.304   2.655   5.541  0.1197  0.3400  0.4007
22112SOL    HW171147   5.366   2.685   5.608  1.6373  0.1160 -0.8387
22112SOL    HW271148   5.323   2.562   5.531 -1.6933 -0.1772  1.2462
22113SOL     OW71149  10.175   7.028   1.813  0.2396  0.8637 -0.2467
22113SOL    HW171150  10.253   7.084   1.809 -0.0580  1.2657 -0.5615
22113SOL    HW271151  10.104   7.087   1.836  0.1829  0.3152  1.0874
22114SOL     OW71152  10.797   1.058  12.400 -0.0422 -0.0118  0.3686
22114SOL    HW171153  10.720   1.100  12.438  0.1161 -0.1991  0.9087
22114SOL    HW271154  10.765   0.975  12.364 -0.1260  0.0039  0.4094
22115SOL     OW71155   4.259   7.545   1.947 -0.0802  0.0303  0.4917
22115SOL    HW171156   4.299   7.471   1.900 -0.4977 -0.4527  0.8816
22115SOL    HW271157   4.270   7.619   1.888 -1.2185 -0.7045 -0.7174
22116SOL     OW71158  10.091  12.156   5.794 -0.1506  0.6349 -0.0311
22116SOL    HW171159  10.119  12.083   5.738  0.4643  2.5225 -2.3797
22116SOL    HW271160  10.045  12.215   5.735  1.2551  3.1786  1.2147
22117SOL     OW71161   4.504  12.614  11.886 -0.3442 -0.1312 -0.2355
22117SOL    HW171162   4.563  12.580  11.953  0.8271  0.1673 -1.0924
22117SOL    HW271163   4.515  12.554  11.812 -1.9152 -0.6899 -0.0721
22118SOL     OW71164  10.929   4.848   6.345  0.8695 -0.3018 -0.3514
22118SOL    HW171165  10.901   4.884   6.261  0.2066  1.3701  0.5434
22118SOL    HW271166  10.887   4.904   6.411  2.2701 -0.8613  1.0867
22119SOL     OW71167   3.319   3.950   4.538 -0.0252  0.3362  0.3362
22119SOL    HW171168   3.388   3.990   4.486 -1.4935  0.5558 -1.5387
22119SOL    HW271169   3.312   4.005   4.616  1.5697  0.5703  0.3313
22120SOL     OW71170  11.045   5.179   5.368 -0.3689 -0.0210  0.0787
22120SOL    HW171171  10.969   5.127   5.395  0.9832 -3.3878 -1.9455
22120SOL    HW271172  11.115   5.115   5.355  2.7244  2.8187  1.2095
22121SOL     OW71173   9.371  10.812  11.896 -0.1812 -0.5378  0.2412
22121SOL    HW171174   9.317  10.837  11.972  0.4480 -1.5001  1.0354
22121SOL    HW271175   9.378  10.717  11.903  0.3458 -0.5756 -0.7267
22122SOL     OW71176   7.654   5.949  10.323 -0.5599  0.3118  0.1143
22122SOL    HW171177   7.742   5.951  10.285 -0.6417  0.0042 -0.0994
22122SOL    HW271178   7.617   5.866  10.292 -0.7520  0.2191  0.5888
22123SOL     OW71179  10.018   8.085   5.107  0.3080 -0.0034  0.3569
22123SOL    HW171180   9.948   8.086   5.172  0.3488 -0.0872  0.4031
22123SOL    HW271181  10.049   7.994   5.107  2.0234  0.5280  2.0684
22124SOL     OW71182   3.599   7.759   1.998  0.1039 -0.3622  0.3411
22124SOL    HW171183   3.610   7.707   2.078 -1.9281  0.1133  0.9856
22124SOL    HW271184   3.546   7.703   1.941  1.1360 -0.5028 -0.5017
22125SOL     OW71185   5.955   8.373   3.695  0.1239  0.1855  0.0204
22125SOL    HW171186   5.960   8.280   3.715  0.7363  0.2224  0.0638
22125SOL    HW271187   5.967   8.416   3.780  1.6843  0.3257 -0.2380
22126SOL     OW71188   4.760   2.498   2.463  0.3106 -0.5486  0.3030
22126SOL    HW171189   4.855   2.497   2.458  0.4863  1.5214  1.8421
22126SOL    HW271190   4.731   2.496   2.372  1.7789 -1.6907 -0.1728
22127SOL     OW71191   9.465  12.562   9.802  0.2294  0.3861 -0.4966
22127SOL    HW171192   9.442  12.641   9.754 -1.1991  0.4326  0.2022
22127SOL    HW271193   9.514  12.508   9.740 -0.9111  0.7621 -1.7531
22128SOL     OW71194   2.006   0.848   4.136 -0.4535  0.2584  0.7318
22128SOL    HW171195   1.980   0.798   4.059  0.2690  0.5954  0.2495
22128SOL    HW271196   2.057   0.921   4.100  1.4027 -0.5354  1.6142
22129SOL     OW71197   0.463   0.776   8.975 -0.0146  0.2922  0.0456
22129SOL    HW171198   0.474   0.682   8.962  0.7467  0.4394 -0.4029
22129SOL    HW271199   0.376   0.784   9.015 -0.9397 -0.4740 -1.6567
22130SOL     OW71200   4.614  10.502   3.854  0.2819  0.2879 -0.6998
22130SOL    HW171201   4.640  10.532   3.941  0.9254 -0.5487 -0.5906
22130SOL    HW271202   4.626  10.578   3.797 -0.0176  0.7997 -0.0770
22131SOL     OW71203   1.770  11.471   0.997 -0.1855  0.0528 -0.0218
22131SOL    HW171204   1.773  11.411   0.922  0.5921 -1.1800  0.9529
22131SOL    HW271205   1.836  11.437   1.058  0.6175  2.1606  0.3993
22132SOL     OW71206   2.949  11.505   9.914 -0.6480  0.6417 -0.2330
22132SOL    HW171207   2.954  11.583   9.969 -0.0597 -0.1157  0.8176
22132SOL    HW271208   2.931  11.434   9.975 -3.0427  0.1610 -1.3731
22133SOL     OW71209  11.335   7.832   4.667 -0.1536  0.2524 -0.5146
22133SOL    HW171210  11.344   7.792   4.754  1.1663  1.7846  0.1025
22133SOL    HW271211  11.245   7.864   4.665  0.0850  1.1126  0.7427
22134SOL     OW71212   8.390   1.030  10.651  0.6539  0.0170 -0.4232
22134SOL    HW171213   8.406   1.100  10.587 -1.0657  1.2210  0.3932
22134SOL    HW271214   8.393   0.950  10.599 -0.2455  0.9188 -1.9648
22135SOL     OW71215   5.784   2.796  11.871  0.0355 -0.4659  0.4416
22135SOL    HW171216   5.809   2.707  11.896  0.2237 -0.2750  0.9398
22135SOL    HW271217   5.832   2.812  11.789  0.5491 -0.5698  0.7188
22136SOL     OW71218  11.430   9.121   9.559  0.6163 -0.2476  0.3146
22136SOL    HW171219  11.367   9.050   9.554 -0.3323  0.5481  0.5427
22136SOL    HW271220  11.513   9.079   9.581 -0.3170 -1.0809  2.4616
22137SOL     OW71221   5.871   7.470   0.533 -0.3655 -1.0981  0.3563
22137SOL    HW171222   5.913   7.542   0.487 -0.3571 -0.8402  0.7622
22137SOL    HW271223   5.943   7.413   0.560 -0.4339 -1.7574 -0.7752
22138SOL     OW71224   8.842   8.607   5.120 -0.0441 -0.2132 -0.2633
22138SOL    HW171225   8.791   8.608   5.039 -0.5453 -1.1941  0.0220
22138SOL    HW271226   8.811   8.683   5.169 -1.4157 -0.9114 -0.0021
22139SOL     OW71227   6.416   5.174   3.265 -0.2600 -0.1333  0.3730
22139SOL    HW171228   6.444   5.262   3.238 -0.7451  0.0107  0.3267
22139SOL    HW271229   6.350   5.149   3.200  1.1835 -1.3114 -0.7401
22140SOL     OW71230   5.709   7.678   6.815  0.2655  0.7289 -0.0895
22140SOL    HW171231   5.772   7.738   6.855  1.0901  0.4076 -0.8777
22140SOL    HW271232   5.696   7.610   6.881  0.3069  1.0882  0.2981
22141SOL     OW71233  11.887   3.152   5.131  0.4915 -0.1868 -0.5175
22141SOL    HW171234  11.801   3.126   5.165  0.6209  0.6393  0.5075
22141SOL    HW271235  11.946   3.142   5.206  1.0365  0.4892 -0.8449
22142SOL     OW71236   3.888   7.075   2.230 -0.1485 -0.6733 -0.0400
22142SOL    HW171237   3.948   7.033   2.291 -1.3972  0.9701  2.5034
22142SOL    HW271238   3.807   7.087   2.280 -0.0545  4.2319 -0.5714
22143SOL     OW71239  10.524  10.472   5.023  0.4364  0.1912 -0.4085
22143SOL    HW171240  10.583  10.456   5.096 -0.1632  2.1155  0.5568
22143SOL    HW271241  10.540  10.399   4.963 -0.0655 -2.2897  2.2345
22144SOL     OW71242   4.010   1.587  11.137  0.0698  0.1067 -0.0005
22144SOL    HW171243   3.964   1.566  11.218  1.2313 -0.0302  0.6355
22144SOL    HW271244   4.025   1.502  11.095 -1.1604  0.2262 -0.7338
22145SOL     OW71245   0.155   7.857   3.068  0.4406  0.5552  0.6765
22145SOL    HW171246   0.193   7.896   2.989  2.2600 -0.3112  1.0646
22145SOL    HW271247   0.091   7.794   3.035 -0.7107  2.0138 -0.0051
22146SOL     OW71248   8.571   1.761   6.858  0.4137  0.3258  0.2289
22146SOL    HW171249   8.587   1.804   6.774 -0.7605 -2.5719 -1.5907
22146SOL    HW271250   8.655   1.720   6.880  1.0784  2.0580  1.1934
22147SOL     OW71251   1.404   4.636   1.257 -0.2367  0.6653  0.7138
22147SOL    HW171252   1.376   4.559   1.207  0.4725  1.5331 -1.1144
22147SOL    HW271253   1.324   4.669   1.297 -0.5876 -0.8969  1.4107
22148SOL     OW71254   9.732   9.453   9.456 -0.4152 -0.4041 -0.6452
22148SOL    HW171255   9.652   9.404   9.474 -0.7370  0.4319  0.3126
22148SOL    HW271256   9.711   9.505   9.377 -0.8219 -0.1970 -0.4061
22149SOL     OW71257   4.808  11.518  10.603 -0.0722  0.3040 -0.6971
22149SOL    HW171258   4.786  11.604  10.567 -0.6323  0.7129  0.5782
22149SOL    HW271259   4.723  11.476  10.620  0.1922 -0.5632 -1.4138
22150SOL     OW71260  11.943   2.164   8.188 -0.2809  0.0191  0.1776
22150SOL    HW171261  11.995   2.126   8.118  0.1033 -1.7763  1.3857
22150SOL    HW271262  12.007   2.191   8.254 -0.7062  0.6928  0.3297
22151SOL     OW71263   6.488   5.163   7.447 -0.0397  0.0355 -0.2426
22151SOL    HW171264   6.500   5.080   7.401  0.9239 -0.1690  0.3536
22151SOL    HW271265   6.567   5.214   7.429 -0.6054  0.8201 -0.5706
22152SOL     OW71266   4.830   6.586   1.251  0.6477  0.2705  0.4135
22152SOL    HW171267   4.804   6.551   1.337  2.1035 -2.5196 -0.1664
22152SOL    HW271268   4.747   6.599   1.205 -0.0868 -2.0734  0.9057
22153SOL     OW71269   5.073   2.834   6.337  0.1688  0.7708  0.4926
22153SOL    HW171270   5.110   2.825   6.249  0.4477  0.7874  0.6093
22153SOL    HW271271   5.135   2.791   6.395 -0.6569 -0.4064  0.5383
22154SOL     OW71272   6.957  11.493   5.464  0.0385 -0.3560 -0.4596
22154SOL    HW171273   7.044  11.477   5.501 -0.6228 -0.5345  1.0705
22154SOL    HW271274   6.941  11.417   5.408  0.4489 -0.8288  0.0538
22155SOL     OW71275  11.273   5.750   9.852  0.4864  0.6864  0.1927
22155SOL    HW171276  11.289   5.682   9.918  2.8276  0.5389 -0.4489
22155SOL    HW271277  11.275   5.832   9.902  0.4067  0.4581  0.5783
22156SOL     OW71278  10.958   5.593   9.090 -0.7618  0.5072 -0.2655
22156SOL    HW171279  10.966   5.507   9.049  2.4118  0.5782 -0.0348
22156SOL    HW271280  10.936   5.574   9.181  1.4029 -0.2314  0.1613
22157SOL     OW71281  12.152   3.479   2.875  0.2712 -0.5092  0.4574
22157SOL    HW171282  12.109   3.396   2.894  0.1479 -0.5637 -0.0407
22157SOL    HW271283  12.233   3.476   2.926  1.1406 -1.7218 -0.9141
22158SOL     OW71284   1.560   9.568   7.228 -0.6148 -0.0144  0.6638
22158SOL    HW171285   1.603   9.483   7.229 -1.3553 -0.4091  2.0231
22158SOL    HW271286   1.479   9.555   7.278 -1.7730  0.9812 -0.8559
22159SOL     OW71287   5.756   3.105   7.909  0.5688 -0.3617  0.2396
22159SOL    HW171288   5.818   3.033   7.920  2.0555  0.4649 -1.9814
22159SOL    HW271289   5.691   3.072   7.847 -0.9646 -1.0078  2.0867
22160SOL     OW71290  10.219   0.265   5.709  0.4912 -0.6005  0.9368
22160SOL    HW171291  10.204   0.171   5.695  0.6163 -0.4243 -0.6053
22160SOL    HW271292  10.160   0.308   5.646  2.7516  0.2505 -0.7280
22161SOL     OW71293  11.294  10.943   4.933  0.0561  0.0976 -0.2930
22161SOL    HW171294  11.239  10.982   5.001 -0.8919  0.9467 -1.5117
22161SOL    HW271295  11.236  10.931   4.858  1.1532 -0.5278 -1.0740
22162SOL     OW71296   0.816   2.182   6.996 -0.5250 -0.2832 -0.0963
22162SOL    HW171297   0.828   2.272   7.028 -1.8564  0.5171 -1.7010
22162SOL    HW271298   0.846   2.185   6.905  2.4032 -2.2966  0.6448
22163SOL     OW71299   7.041   0.902   9.682 -0.1572 -0.3705 -0.2633
22163SOL    HW171300   7.110   0.838   9.699  0.1809  0.0702  0.0376
22163SOL    HW271301   7.080   0.964   9.621 -0.3948 -0.2918 -0.3369
22164SOL     OW71302   4.955   9.539   9.905  0.5522 -0.1245 -0.0219
22164SOL    HW171303   5.030   9.571   9.856  0.1083  0.6548 -0.2040
22164SOL    HW271304   4.890   9.517   9.839  0.4839 -0.4632  0.1520
22165SOL     OW71305   9.791   1.275   5.775 -0.0139  0.0308  0.4401
22165SOL    HW171306   9.756   1.353   5.820 -1.8983 -0.1432 -0.6269
22165SOL    HW271307   9.875   1.259   5.818 -0.0866  1.9910  1.4432
22166SOL     OW71308   9.816   6.641   6.845  0.4112  0.6199  0.0617
22166SOL    HW171309   9.857   6.570   6.894  1.4894  0.6942 -0.6976
22166SOL    HW271310   9.730   6.651   6.886  0.0657 -1.3770 -0.0471
22167SOL     OW71311   0.341   9.589  12.206 -0.7560 -0.6108  0.0842
22167SOL    HW171312   0.311   9.661  12.262  1.4805 -0.3931  1.1132
22167SOL    HW271313   0.388   9.530  12.265  1.3152 -0.6064 -1.4461
22168SOL     OW71314   6.106  12.418   2.306 -0.0959  0.1456  0.2561
22168SOL    HW171315   6.179  12.449   2.252  0.0493  0.0756  0.4143
22168SOL    HW271316   6.135  12.335   2.342 -0.4959 -0.1908 -0.1804
22169SOL     OW71317  11.367   0.969   6.632 -0.2155 -0.0675 -0.0521
22169SOL    HW171318  11.349   0.887   6.677  0.5205  0.2906  0.9284
22169SOL    HW271319  11.312   0.966   6.554 -1.3361 -0.8260  0.7387
22170SOL     OW71320   8.839   7.717   7.452 -0.1500 -0.2416 -0.1007
22170SOL    HW171321   8.749   7.751   7.453  0.7634  2.5562 -1.2065
22170SOL    HW271322   8.892   7.791   7.484  2.0165 -0.7256 -2.3327
22171SOL     OW71323  10.999   6.291   9.148  0.4553 -0.1747 -0.6251
22171SOL    HW171324  10.993   6.332   9.234  1.3204 -0.8302 -0.2342
22171SOL    HW271325  10.924   6.233   9.143 -1.1431  1.8391 -1.4324
22172SOL     OW71326   7.978   5.035   6.624  0.5107 -0.6456 -0.8383
22172SOL    HW171327   8.043   4.967   6.611  2.6016  0.3684  2.8546
22172SOL    HW271328   8.021   5.116   6.597  1.9133  0.3247  3.4528
22173SOL     OW71329   5.185  12.037   0.201  0.3038  0.6038 -0.0549
22173SOL    HW171330   5.154  11.966   0.145 -0.7215  2.6477 -2.2378
22173SOL    HW271331   5.120  12.106   0.190  1.8731  2.3331  1.0481
22174SOL     OW71332   5.933  11.118   7.492  0.2573 -0.2484 -0.4228
22174SOL    HW171333   6.020  11.155   7.503 -0.0180 -0.2401  2.4735
22174SOL    HW271334   5.877  11.194   7.473  0.3283  0.3571  1.5729
22175SOL     OW71335   5.047   0.761   9.525 -0.3374 -0.0631 -0.1281
22175SOL    HW171336   4.975   0.698   9.530  0.0319 -0.3738  1.6808
22175SOL    HW271337   5.008   0.843   9.555  0.1186 -0.2975  1.1337
22176SOL     OW71338   9.560   4.214   8.765  0.0729  0.4774 -0.0529
22176SOL    HW171339   9.576   4.297   8.810  1.6779  0.2983 -0.2433
22176SOL    HW271340   9.468   4.193   8.786 -0.6307  2.6673 -0.6619
22177SOL     OW71341   5.654   5.535   5.166  0.2744 -0.0002 -0.0882
22177SOL    HW171342   5.724   5.478   5.199  1.1048  0.1044 -1.5722
22177SOL    HW271343   5.684   5.562   5.079  0.3981  3.5635  0.9221
22178SOL     OW71344   1.399  12.106   0.523 -0.1074 -0.1140 -0.5487
22178SOL    HW171345   1.406  12.010   0.523 -1.8005 -0.3089  1.9349
22178SOL    HW271346   1.443  12.133   0.603 -1.0109  1.0500 -0.4311
22179SOL     OW71347   1.254  10.637   2.006  0.1859  0.3783 -0.0731
22179SOL    HW171348   1.179  10.666   1.953  0.9235  1.4753 -0.5547
22179SOL    HW271349   1.216  10.616   2.091 -0.7723  0.2305 -0.5186
22180SOL     OW71350  10.628   0.791   5.167  0.1859  0.1028 -0.3096
22180SOL    HW171351  10.709   0.767   5.212  1.0057  1.0948 -1.2077
22180SOL    HW271352  10.611   0.882   5.194  1.0774  0.9679 -2.4708
22181SOL     OW71353   2.343   0.720   3.844 -0.4729  0.1378  0.1011
22181SOL    HW171354   2.352   0.800   3.792 -0.5875 -0.3195 -0.6351
22181SOL    HW271355   2.267   0.675   3.807 -0.2342 -0.4537  0.3151
22182SOL     OW71356   5.700   5.866   4.816 -0.1812  0.7104  0.2027
22182SOL    HW171357   5.784   5.821   4.825 -0.4238  0.1500 -0.2644
22182SOL    HW271358   5.682   5.902   4.902  0.1395  0.1099  0.5233
22183SOL     OW71359   8.368   1.720   1.278 -1.0133  0.2434  0.3925
22183SOL    HW171360   8.331   1.804   1.304 -1.2267  1.1268 -2.4012
22183SOL    HW271361   8.456   1.741   1.247 -0.3667 -0.8910  1.3932
22184SOL     OW71362   5.638   7.593   3.647 -0.4718  0.0272 -0.3407
22184SOL    HW171363   5.555   7.565   3.685 -0.6168 -0.0700 -0.7237
22184SOL    HW271364   5.635   7.689   3.652 -0.7726  0.0397 -0.6943
22185SOL     OW71365   8.846   1.269   7.062 -0.6121 -0.2592  0.0672
22185SOL    HW171366   8.834   1.363   7.074 -2.2875 -0.5783  1.2989
22185SOL    HW271367   8.871   1.259   6.971 -1.7069  1.2819 -0.4388
22186SOL     OW71368   9.275  10.722   3.832  0.7128 -0.2669 -0.3883
22186SOL    HW171369   9.255  10.634   3.799  2.9002 -0.9781 -0.0138
22186SOL    HW271370   9.286  10.710   3.926 -1.0732  0.8666 -0.0062
22187SOL     OW71371  10.627   3.978   6.338 -0.3395 -0.4762 -0.4045
22187SOL    HW171372  10.600   4.014   6.423  0.8815 -0.5766  0.0493
22187SOL    HW271373  10.702   4.032   6.312  0.1761 -1.3336 -0.7361
22188SOL     OW71374   7.743   2.439   0.160  0.5460 -0.3048  0.6146
22188SOL    HW171375   7.691   2.512   0.125 -0.0816 -0.5985  0.9146
22188SOL    HW271376   7.747   2.457   0.254 -1.1890 -1.6000  0.9876
22189SOL     OW71377   5.937   6.794  12.547  0.0376  0.1463 -0.0068
22189SOL    HW171378   5.875   6.757  12.484 -0.5975 -0.2086  0.8080
22189SOL    HW271379   5.953   6.723  12.610 -0.9202  1.1169  1.3784
22190SOL     OW71380   9.632   7.871   8.639 -0.2166  0.0421  0.3150
22190SOL    HW171381   9.616   7.875   8.545  1.1939  3.3869  0.0524
22190SOL    HW271382   9.549   7.897   8.679 -0.1620  0.9940 -0.1667
22191SOL     OW71383   4.049   6.795   1.806 -0.1162  0.0435 -0.0793
22191SOL    HW171384   4.023   6.805   1.898 -1.5483  0.0608 -0.4724
22191SOL    HW271385   4.144   6.783   1.810 -0.0288  0.9343  1.3373
22192SOL     OW71386   2.861   0.145  11.542 -0.2468  0.1357 -0.1075
22192SOL    HW171387   2.811   0.212  11.589 -0.8724  0.7785 -1.6231
22192SOL    HW271388   2.797   0.079  11.518  0.3174 -0.8922  1.1031
22193SOL     OW71389   5.739   8.947   5.042 -0.4593 -0.4455 -0.0021
22193SOL    HW171390   5.686   8.947   5.121  2.0275  0.0217  1.8016
22193SOL    HW271391   5.718   8.864   4.999 -3.1127  0.0604  0.2080
22194SOL     OW71392  11.465   1.500  12.067  0.0529  0.0201 -0.2163
22194SOL    HW171393  11.508   1.570  12.017  1.9183 -0.2433  0.9342
22194SOL    HW271394  11.426   1.545  12.142 -1.6536  0.2381 -1.1847
22195SOL     OW71395   4.427   6.208  10.382 -0.3699 -0.2647  0.2236
22195SOL    HW171396   4.340   6.240  10.409  0.4718 -0.1902  3.2826
22195SOL    HW271397   4.454   6.267  10.312 -1.8096  1.2708  0.8882
22196SOL     OW71398   5.494   4.726  10.303  0.0878  0.5215 -0.1686
22196SOL    HW171399   5.429   4.667  10.264 -0.1111  1.6586 -1.6729
22196SOL    HW271400   5.525   4.679  10.380 -1.1009 -0.9079 -0.4915
22197SOL     OW71401   1.654   6.715   8.437 -0.1884 -0.7627 -0.1387
22197SOL    HW171402   1.574   6.764   8.451  0.4657  0.1193  0.6255
22197SOL    HW271403   1.625   6.625   8.424 -1.2648 -0.5703  0.7674
22198SOL     OW71404  10.555   9.281   5.317 -0.1706  0.1761  0.1561
22198SOL    HW171405  10.583   9.370   5.338 -1.7259  1.0642 -1.3126
22198SOL    HW271406  10.507   9.252   5.395 -0.2975  0.9139  0.3588
22199SOL     OW71407   4.894   5.719   0.933 -0.5662 -0.3505  0.1281
22199SOL    HW171408   4.977   5.680   0.906 -0.6684 -1.6802  1.6383
22199SOL    HW271409   4.828   5.670   0.883 -0.5297 -0.1453 -0.1253
22200SOL     OW71410   4.851   5.505   6.181  0.4470  0.1991 -0.0617
22200SOL    HW171411   4.783   5.443   6.208  0.9966 -1.1610 -1.6097
22200SOL    HW271412   4.819   5.542   6.099  0.0216  2.2091  0.9515
22201SOL     OW71413   1.068  11.911   9.502 -0.4728  0.3887  0.1920
22201SOL    HW171414   0.998  11.870   9.452 -2.0154  1.6284  1.2377
22201SOL    HW271415   1.117  11.837   9.539 -1.2815 -0.5172 -0.4775
22202SOL     OW71416   9.409   2.902  12.233  0.2299  0.2505  0.2965
22202SOL    HW171417   9.490   2.873  12.192  0.0005  1.4968 -1.1103
22202SOL    HW271418   9.396   2.842  12.307  1.8975 -0.5720 -0.0508
22203SOL     OW71419  10.184   3.618   5.148 -0.2627 -0.2436 -0.4717
22203SOL    HW171420  10.199   3.630   5.054  2.3037 -0.9644 -0.2393
22203SOL    HW271421  10.250   3.554   5.174 -1.9563 -1.2966  1.5556
22204SOL     OW71422   6.656  11.372   1.212 -0.1508  0.3035 -0.3543
22204SOL    HW171423   6.616  11.458   1.200 -3.1401 -0.7778  0.8730
22204SOL    HW271424   6.750  11.387   1.200 -0.7007  3.4047 -1.6397
22205SOL     OW71425   6.141   3.047  10.759 -0.0386  0.9534 -0.1134
22205SOL    HW171426   6.056   3.044  10.714 -0.3660  1.4395  0.4523
22205SOL    HW271427   6.205   3.033  10.690 -0.6468 -1.9075 -0.1930
22206SOL     OW71428   0.017   3.195   1.686  0.6937  0.0204 -0.3380
22206SOL    HW171429   0.100   3.189   1.735  0.0121  1.4793  1.0931
22206SOL    HW271430  -0.029   3.268   1.727 -1.2188 -0.6148 -1.2694
22207SOL     OW71431  11.772   6.207   3.132 -0.4403  0.5633 -0.0906
22207SOL    HW171432  11.838   6.138   3.121  1.2918  1.9610  1.0163
22207SOL    HW271433  11.771   6.253   3.048 -2.4896 -1.4246 -1.2831
22208SOL     OW71434   8.345   1.718   5.921  0.5784 -0.2470 -0.3801
22208SOL    HW171435   8.423   1.768   5.946  0.6165 -0.7468  0.5220
22208SOL    HW271436   8.331   1.742   5.830  1.1759  0.6561 -0.2564
22209SOL     OW71437   8.104  12.541   5.927  0.2525  0.0517 -0.6745
22209SOL    HW171438   8.021  12.507   5.893  0.3341 -0.3536 -0.4741
22209SOL    HW271439   8.083  12.574   6.014  0.2452  0.1902 -0.7298
22210SOL     OW71440   8.111   3.000   5.190  0.1129 -0.0879 -0.3898
22210SOL    HW171441   8.066   3.057   5.252 -0.7002 -0.3843 -0.6980
22210SOL    HW271442   8.098   2.912   5.225  0.5701 -0.1639 -0.4105
22211SOL     OW71443   8.987   6.246   7.378  0.2898  0.2268  0.7068
22211SOL    HW171444   9.080   6.256   7.361  0.2592 -1.5067 -0.8398
22211SOL    HW271445   8.971   6.152   7.369 -1.7413  0.5724  0.1377
22212SOL     OW71446   1.475   2.712   5.054  0.1178  0.2246 -0.0617
22212SOL    HW171447   1.434   2.658   5.122 -0.6219 -0.4610 -1.0178
22212SOL    HW271448   1.408   2.777   5.031  0.4671  0.6323  0.0529
22213SOL     OW71449   8.279   6.504   5.643  0.2663 -0.1276 -0.2595
22213SOL    HW171450   8.279   6.469   5.732 -1.8934  0.3550 -0.0117
22213SOL    HW271451   8.322   6.589   5.650 -2.2820  1.1804  0.9659
22214SOL     OW71452   2.415   2.216  12.520  0.5074 -0.2740 -0.5383
22214SOL    HW171453   2.352   2.230  12.591  1.1227 -0.5371  0.0696
22214SOL    HW271454   2.362   2.183  12.447 -0.2285  0.5890 -0.4155
22215SOL     OW71455  10.115   7.985  10.570  0.0146 -0.0577 -0.9922
22215SOL    HW171456  10.032   7.937  10.579  0.0204 -0.0469 -0.8889
22215SOL    HW271457  10.171   7.924  10.522  0.4088 -0.6227  0.1673
22216SOL     OW71458  11.168   4.628   8.117 -0.3022 -0.3984  0.2264
22216SOL    HW171459  11.231   4.610   8.047 -0.3772 -0.7673  0.2489
22216SOL    HW271460  11.093   4.668   8.073 -0.2204 -0.3392  0.1407
22217SOL     OW71461   9.618   4.544   1.501 -0.2128 -0.1387 -0.0605
22217SOL    HW171462   9.550   4.571   1.440  0.6476  1.0743 -0.5285
22217SOL    HW271463   9.671   4.480   1.454  0.5223  0.8851 -0.6800
22218SOL     OW71464   4.567   2.498   2.729 -0.1677 -0.2751  0.3124
22218SOL    HW171465   4.600   2.479   2.816  1.7155  2.7159  0.3702
22218SOL    HW271466   4.645   2.503   2.674 -0.8424  2.4458 -0.5275
22219SOL     OW71467   1.698  10.665   0.917 -0.0278 -0.8781  0.3596
22219SOL    HW171468   1.688  10.748   0.869  0.0014 -0.7257  0.6121
22219SOL    HW271469   1.609  10.631   0.925  0.1662 -2.0542 -1.7797
22220SOL     OW71470   0.739   5.035  10.551  0.2401 -0.7458 -0.2159
22220SOL    HW171471   0.695   5.015  10.469  0.5940 -0.7471 -0.4099
22220SOL    HW271472   0.693   4.984  10.617 -0.0276 -0.7680 -0.4191
22221SOL     OW71473  11.739   2.592   8.878 -0.2580  0.1951  0.4824
22221SOL    HW171474  11.674   2.524   8.897  2.2302 -2.0849  1.4132
22221SOL    HW271475  11.761   2.628   8.964  1.1118 -0.4668  0.4294
22222SOL     OW71476  12.500   5.562   7.492  0.2767 -0.1068 -0.6769
22222SOL    HW171477  12.417   5.606   7.474  0.3116 -0.5142 -1.9049
22222SOL    HW271478  12.554   5.630   7.533 -0.0202  0.7157 -1.5926
22223SOL     OW71479   5.116   1.307   9.204  0.3694  0.3433 -0.0013
22223SOL    HW171480   5.210   1.291   9.204  0.5442  1.1776  1.4296
22223SOL    HW271481   5.078   1.230   9.163  1.6305 -0.3260  0.0533
22224SOL     OW71482   9.929   8.736   7.272  0.2647 -0.2474 -0.6023
22224SOL    HW171483   9.923   8.762   7.180  1.8590 -1.2739 -1.0429
22224SOL    HW271484   9.921   8.640   7.270  0.2493 -0.2722  0.3311
22225SOL     OW71485   6.304   4.479   6.171 -0.1211 -0.4163  0.2484
22225SOL    HW171486   6.324   4.399   6.221  0.2593  0.4467  1.5462
22225SOL    HW271487   6.219   4.507   6.205  0.8234  1.0104  1.6051
22226SOL     OW71488   1.108  10.956   5.421  0.3093  0.3514  0.0513
22226SOL    HW171489   1.137  11.046   5.411  2.3122 -0.3939 -1.5812
22226SOL    HW271490   1.014  10.959   5.402  0.4792  1.9936 -0.6897
22227SOL     OW71491   7.771  12.249   3.875  0.0736  0.0862  0.5431
22227SOL    HW171492   7.677  12.247   3.858  0.2614 -0.6393 -0.5601
22227SOL    HW271493   7.811  12.239   3.788  1.2066  2.5780  0.6910
22228SOL     OW71494   7.274  11.012  12.221  0.2123  0.3825 -0.3358
22228SOL    HW171495   7.368  11.026  12.209  0.0743 -0.1853 -2.3402
22228SOL    HW271496   7.269  10.948  12.292  1.3519  0.1937 -0.3984
22229SOL     OW71497   0.619   7.973   9.934  0.5213 -0.1069 -0.1845
22229SOL    HW171498   0.555   7.998  10.001  0.7671  0.1744 -0.0523
22229SOL    HW271499   0.702   8.010   9.965  0.8570 -0.9403 -0.0698
22230SOL     OW71500  12.257   5.143   6.133 -0.0675 -0.0594  0.7729
22230SOL    HW171501  12.283   5.051   6.144 -0.5012 -0.1989  0.6260
22230SOL    HW271502  12.203   5.144   6.054  0.2259  0.3830  0.5759
22231SOL     OW71503   5.851  10.209   2.740 -0.0501 -0.2687  0.0702
22231SOL    HW171504   5.825  10.227   2.650 -0.4071 -0.0163  0.2242
22231SOL    HW271505   5.867  10.295   2.779 -1.1637 -0.2929  0.6242
22232SOL     OW71506   8.502   9.549   9.996  0.6745 -0.2109  0.2552
22232SOL    HW171507   8.554   9.599   9.934  2.0376 -2.0440 -0.1621
22232SOL    HW271508   8.484   9.611  10.067  0.9039  1.3020 -0.9470
22233SOL     OW71509   2.359   0.406   0.339  0.2025 -0.2989  0.7034
22233SOL    HW171510   2.423   0.396   0.409  1.8144  2.0268 -0.2862
22233SOL    HW271511   2.352   0.501   0.325 -1.6327 -0.5814 -0.8919
22234SOL     OW71512   8.652   0.719  12.050 -0.7298  0.7155  0.4905
22234SOL    HW171513   8.702   0.710  12.131  0.1038 -0.0992 -0.0933
22234SOL    HW271514   8.564   0.687  12.072  0.1222 -1.8510  0.4812
22235SOL     OW71515   6.127   7.543   6.712 -0.2409 -0.7383 -0.4416
22235SOL    HW171516   6.044   7.522   6.755 -0.7340  0.7361 -0.6046
22235SOL    HW271517   6.187   7.562   6.785 -0.7442  0.5655 -0.3254
22236SOL     OW71518   2.034  11.986   2.979  0.1488 -0.2262 -0.4389
22236SOL    HW171519   1.990  11.991   2.895 -1.8753 -0.6963  0.5445
22236SOL    HW271520   2.035  11.892   3.000  3.0404 -0.4571 -1.0747
22237SOL     OW71521   2.680   0.713   9.397  0.0106 -0.5054 -0.4433
22237SOL    HW171522   2.757   0.715   9.454 -0.5774 -0.6801  0.3763
22237SOL    HW271523   2.649   0.623   9.402  0.2723 -0.6662 -1.4930
22238SOL     OW71524   0.374   0.963   3.785 -0.6998 -0.3135 -0.5823
22238SOL    HW171525   0.367   0.874   3.751 -0.1507  0.0258 -1.6137
22238SOL    HW271526   0.417   1.012   3.715  3.4799 -0.2843  1.6555
22239SOL     OW71527  12.295   5.177   7.598 -0.1004  0.0090 -0.3498
22239SOL    HW171528  12.206   5.179   7.563 -0.7135  0.6745  1.1467
22239SOL    HW271529  12.285   5.205   7.689  1.5290 -0.8189  0.1141
22240SOL     OW71530  10.627   8.083  11.049  0.4572 -0.1714  0.2363
22240SOL    HW171531  10.601   8.167  11.012  0.8087 -0.1985 -0.0781
22240SOL    HW271532  10.573   8.018  11.003  0.7888 -0.1919 -0.1320
22241SOL     OW71533   3.713   9.399  10.796  0.0740 -0.2330  0.4003
22241SOL    HW171534   3.712   9.324  10.737 -2.0170  0.5848 -0.6856
22241SOL    HW271535   3.802   9.435  10.787  0.0417 -0.5711 -1.6998
22242SOL     OW71536   2.355   1.503   4.048  0.2585  1.0275  0.0183
22242SOL    HW171537   2.384   1.593   4.042 -0.4047  1.5483  2.9162
22242SOL    HW271538   2.435   1.451   4.045  0.7925  1.8393 -0.0724
22243SOL     OW71539   0.096   7.668  12.527 -0.2662 -0.1081  0.4934
22243SOL    HW171540   0.108   7.737  12.463 -0.7837 -0.1292  0.3708
22243SOL    HW271541   0.077   7.590  12.475 -1.1664 -0.0256  0.6826
22244SOL     OW71542   4.366   3.198   3.185  0.1202  0.2229 -0.4297
22244SOL    HW171543   4.360   3.250   3.266 -1.1946  0.4869 -0.6770
22244SOL    HW271544   4.280   3.156   3.177  0.5886 -0.6411 -1.1478
22245SOL     OW71545   7.115   9.765   8.068 -0.4183  0.1815  0.1320
22245SOL    HW171546   7.086   9.846   8.110 -0.2403 -0.4511  1.5321
22245SOL    HW271547   7.048   9.748   8.001  0.2582  2.1711 -1.1639
22246SOL     OW71548   6.069   3.166  10.049  0.0912  0.0414 -0.0263
22246SOL    HW171549   6.087   3.202  10.135 -0.7530 -1.1458  0.6744
22246SOL    HW271550   5.983   3.202  10.025 -0.9928 -1.7706  0.8950
22247SOL     OW71551   8.557   1.945   1.438 -0.0756  0.6105 -0.3383
22247SOL    HW171552   8.494   1.886   1.480 -0.6799  0.8289 -0.9191
22247SOL    HW271553   8.637   1.935   1.490 -0.9684  1.3464  1.2738
22248SOL     OW71554   1.665   9.445  10.070 -0.5065  0.3156  0.9584
22248SOL    HW171555   1.590   9.443  10.010  2.4239 -0.7292 -3.0956
22248SOL    HW271556   1.705   9.531  10.055  1.9945 -1.0765 -1.2422
22249SOL     OW71557  11.818   6.734  10.714  0.3164  0.1088  0.1903
22249SOL    HW171558  11.748   6.673  10.738 -0.3049  0.7123 -0.0537
22249SOL    HW271559  11.838   6.779  10.796  0.9382 -0.5687  0.4233
22250SOL     OW71560   4.459   4.977   1.984 -0.5328 -0.2781  0.3771
22250SOL    HW171561   4.414   5.017   1.909  1.0134 -2.6135 -1.9725
22250SOL    HW271562   4.440   4.884   1.976  1.5315 -0.8593  1.5610
22251SOL     OW71563   1.747   8.931   3.385 -0.3198 -0.6438  0.4023
22251SOL    HW171564   1.756   8.853   3.331  1.4787 -0.6919  0.6947
22251SOL    HW271565   1.714   8.999   3.325  0.8672 -0.8968 -0.5721
22252SOL     OW71566   5.553   0.397   5.479 -0.3927  0.0780 -0.8577
22252SOL    HW171567   5.567   0.302   5.478 -0.9712 -0.1013  1.5295
22252SOL    HW271568   5.599   0.427   5.557 -0.3752  1.7724 -1.4685
22253SOL     OW71569   7.332   3.132   4.283  0.4924  0.2435 -0.4108
22253SOL    HW171570   7.334   3.155   4.190  0.5350  1.9639 -0.0135
22253SOL    HW271571   7.239   3.138   4.307  0.4954 -0.0930 -0.3032
22254SOL     OW71572   5.642   2.128   3.137 -0.0437 -0.0949  0.7035
22254SOL    HW171573   5.594   2.145   3.218 -1.1552 -0.8313  0.2185
22254SOL    HW271574   5.635   2.210   3.088  0.2820  0.2168  1.1637
22255SOL     OW71575   7.823   7.420   0.509  0.0667 -0.0523  0.1627
22255SOL    HW171576   7.841   7.461   0.594  4.6035  1.9481 -1.4547
22255SOL    HW271577   7.758   7.478   0.468  0.3642  0.9033  0.9941
22256SOL     OW71578   6.706   2.892  11.663  0.0935 -0.1366 -0.0469
22256SOL    HW171579   6.792   2.871  11.700  0.1839 -1.6860 -1.0240
22256SOL    HW271580   6.717   2.876  11.569 -0.7742  1.4365 -0.4567
22257SOL     OW71581   7.769   4.406   0.293  0.1116 -0.1170  0.1039
22257SOL    HW171582   7.807   4.430   0.208  0.1523 -1.2045 -0.1965
22257SOL    HW271583   7.828   4.339   0.327 -0.0207  0.1643  0.9060
22258SOL     OW71584   4.359   1.138   9.107 -0.4161 -0.4220 -0.5959
22258SOL    HW171585   4.393   1.179   9.028 -1.2714 -2.3984 -2.0686
22258SOL    HW271586   4.276   1.183   9.123 -0.0934  0.1943 -0.6129
22259SOL     OW71587   2.670   1.832   8.071  0.0011  0.2212 -0.2556
22259SOL    HW171588   2.578   1.860   8.076 -0.2760 -0.9256  2.3375
22259SOL    HW271589   2.714   1.883   8.139  0.8270 -0.8578  0.0284
22260SOL     OW71590  11.361   5.949   8.327  0.1537  0.0953 -0.2425
22260SOL    HW171591  11.361   6.021   8.264 -0.9639 -1.0549 -1.6375
22260SOL    HW271592  11.283   5.964   8.380  1.1254  1.0955  0.9388
22261SOL     OW71593   0.531   3.041  11.890  0.0260 -0.4591 -0.0341
22261SOL    HW171594   0.470   3.035  11.816  0.8134  0.9172 -0.8382
22261SOL    HW271595   0.491   2.988  11.959 -0.6066 -1.9903 -1.5208
22262SOL     OW71596   7.868   6.710   1.131 -0.4251  0.1005  0.1054
22262SOL    HW171597   7.841   6.741   1.217  2.7216  0.2905  1.1752
22262SOL    HW271598   7.828   6.771   1.069 -0.6226  1.6015  1.6409
22263SOL     OW71599   0.500   8.178   3.920  0.1823  0.0890 -0.4678
22263SOL    HW171600   0.522   8.133   3.839  0.5983  0.6280 -0.6612
22263SOL    HW271601   0.418   8.223   3.901  0.0928 -0.0773 -0.4741
22264SOL     OW71602   9.720   6.178   1.834 -0.2925  0.3562  0.1813
22264SOL    HW171603   9.633   6.184   1.875  0.1001 -1.1233  1.3019
22264SOL    HW271604   9.705   6.124   1.756 -0.4334  0.3768  0.1922
22265SOL     OW71605   0.016   2.430  10.544  0.2040  0.0103  0.3073
22265SOL    HW171606   0.054   2.511  10.510  1.1556 -0.1898  0.8394
22265SOL    HW271607  -0.076   2.452  10.561  0.4216  0.9470  0.3395
22266SOL     OW71608  12.476   9.207  10.091  0.5641  0.4948  0.0343
22266SOL    HW171609  12.432   9.284  10.054  0.5516  1.3416  1.7470
22266SOL    HW271610  12.412   9.136  10.082 -1.1918  1.6694  2.3622
22267SOL     OW71611  10.836  10.415   4.262  1.0419  0.2288 -0.0372
22267SOL    HW171612  10.926  10.384   4.253  0.4790 -0.9338 -3.3093
22267SOL    HW271613  10.837  10.503   4.225  0.7081 -0.1814 -1.0696
22268SOL     OW71614   8.495  10.496   9.372 -0.3523  0.2936 -0.1533
22268SOL    HW171615   8.488  10.508   9.277 -0.4646 -1.5464 -0.4181
22268SOL    HW271616   8.577  10.449   9.384 -0.6081  0.0309  0.6057
22269SOL     OW71617   5.362   2.286  12.229  0.4187 -0.0872  0.2456
22269SOL    HW171618   5.273   2.294  12.262  0.0461 -2.5679  0.0194
22269SOL    HW271619   5.364   2.343  12.152 -1.1362 -0.3991 -0.0552
22270SOL     OW71620   2.726   2.421   4.177  0.2418 -0.0507  0.3971
22270SOL    HW171621   2.724   2.334   4.218  2.0033 -0.3918 -0.1319
22270SOL    HW271622   2.817   2.431   4.149 -0.1102  1.6733 -0.2133
22271SOL     OW71623   7.773   5.932   5.823 -0.5428 -0.6129 -0.0188
22271SOL    HW171624   7.814   6.015   5.799 -1.6636  0.0082  0.1466
22271SOL    HW271625   7.837   5.888   5.879  0.5783 -0.4308 -1.1377
22272SOL     OW71626   3.294   3.333  10.731  0.6510 -0.0729 -0.0402
22272SOL    HW171627   3.369   3.279  10.709  1.4122  0.8884  0.0797
22272SOL    HW271628   3.247   3.283  10.798  1.2850 -0.6114  0.0132
22273SOL     OW71629   1.068   3.427   9.476  0.5704  0.1236 -0.3776
22273SOL    HW171630   1.054   3.358   9.411 -0.8501  0.9822 -1.0519
22273SOL    HW271631   1.112   3.384   9.549  0.5943 -1.2630 -1.1801
22274SOL     OW71632   9.187   5.153   0.589  0.2463 -1.0033 -0.2078
22274SOL    HW171633   9.173   5.064   0.622 -0.1347 -0.3593  1.5028
22274SOL    HW271634   9.281   5.160   0.576  0.2270 -1.8043 -0.8564
22275SOL     OW71635   0.262   4.646   9.248  0.1903  0.0663  0.6551
22275SOL    HW171636   0.316   4.578   9.207 -0.3101  0.6857 -1.1047
22275SOL    HW271637   0.319   4.723   9.252 -0.0681  0.2845  0.2033
22276SOL     OW71638   1.984   4.012   7.516 -0.3868  0.2466  0.0738
22276SOL    HW171639   1.957   4.078   7.580 -2.1586 -1.2481  0.9960
22276SOL    HW271640   1.952   4.045   7.432 -1.2879  0.5697  0.5265
22277SOL     OW71641   8.677   4.818   9.884  0.1713  0.5595  0.0270
22277SOL    HW171642   8.726   4.865   9.951  0.3104  0.3713  0.0579
22277SOL    HW271643   8.617   4.761   9.933  0.5351  0.1474 -0.0072
22278SOL     OW71644  11.000   4.227  12.562  0.1240 -0.1146 -0.4439
22278SOL    HW171645  10.918   4.182  12.583 -0.6725  0.9401 -1.1844
22278SOL    HW271646  11.059   4.203  12.633 -0.5100 -1.6833 -0.4177
22279SOL     OW71647   3.193   6.761   4.474  0.0271 -0.3874  0.3974
22279SOL    HW171648   3.159   6.723   4.555 -0.0583  1.4545  1.3002
22279SOL    HW271649   3.206   6.687   4.415 -1.4252 -1.5997  1.5391
22280SOL     OW71650   7.391   1.314   8.715 -0.1405 -0.3952 -0.5199
22280SOL    HW171651   7.301   1.294   8.691 -0.2666 -0.2198 -0.2026
22280SOL    HW271652   7.443   1.282   8.642 -0.5087  0.0685 -0.9881
22281SOL     OW71653   3.655   5.143   8.333  0.0507 -0.3651  0.7248
22281SOL    HW171654   3.704   5.098   8.265  0.8557 -1.0698  1.7305
22281SOL    HW271655   3.708   5.131   8.412 -0.9736  0.2148  1.5222
22282SOL     OW71656   0.295   5.795  12.497 -0.1795 -0.4635 -0.0628
22282SOL    HW171657   0.369   5.832  12.449 -0.6501 -0.5832 -0.9122
22282SOL    HW271658   0.322   5.797  12.589  0.4795  0.4025 -0.2588
22283SOL     OW71659   4.502   1.707   5.221  0.1984 -0.5133 -0.0763
22283SOL    HW171660   4.586   1.661   5.234 -0.1023 -0.8824  0.6385
22283SOL    HW271661   4.517   1.793   5.259 -0.5188 -1.4251  2.4403
22284SOL     OW71662   2.672  12.637  11.454 -0.0422  0.4888  0.1375
22284SOL    HW171663   2.594  12.591  11.424  0.7441 -0.9868  0.2074
22284SOL    HW271664   2.729  12.567  11.487  2.0771  1.2746 -1.6124
22285SOL     OW71665   5.709  11.924   3.274  0.3208  1.0840 -0.0091
22285SOL    HW171666   5.757  11.864   3.332 -0.8372  1.5127  1.4635
22285SOL    HW271667   5.624  11.934   3.316  0.6238  4.1353  0.0875
22286SOL     OW71668   3.435   9.475   2.257  0.4123  0.6753 -0.3048
22286SOL    HW171669   3.443   9.466   2.352 -1.0090  1.1669 -0.1002
22286SOL    HW271670   3.521   9.452   2.222  0.2814 -1.9969  0.9125
22287SOL     OW71671   7.137   7.671  10.679  0.3840  0.4659 -0.2166
22287SOL    HW171672   7.212   7.622  10.714 -1.0982 -0.5429  1.7427
22287SOL    HW271673   7.077   7.605  10.647 -0.0679  1.2244 -0.9869
22288SOL     OW71674   3.265  10.255   9.229  0.0643 -0.0799 -0.1474
22288SOL    HW171675   3.185  10.288   9.269 -0.8081 -1.0140 -1.0594
22288SOL    HW271676   3.311  10.334   9.199 -0.5765  0.4557  0.2660
22289SOL     OW71677   8.653   0.092  10.505  0.0915 -0.3468  0.7818
22289SOL    HW171678   8.574   0.039  10.518  1.4333 -2.0947  2.4275
22289SOL    HW271679   8.627   0.180  10.534 -1.9277 -0.2011 -1.1482
22290SOL     OW71680  12.646  10.191   1.464 -0.0856  0.4493  0.3165
22290SOL    HW171681  12.569  10.237   1.498 -0.6218 -0.6219  0.5853
22290SOL    HW271682  12.689  10.155   1.542  0.3240  0.4785  0.1090
22291SOL     OW71683   9.470  11.309   2.182 -0.6774  0.5906 -0.6392
22291SOL    HW171684   9.554  11.266   2.165 -2.3251 -2.8691 -0.6845
22291SOL    HW271685   9.461  11.307   2.277 -1.3599 -0.4818 -0.7136
22292SOL     OW71686   3.563  11.985  11.039  0.2694  0.5168 -0.5584
22292SOL    HW171687   3.514  11.992  11.121 -0.0652  0.3309 -0.7403
22292SOL    HW271688   3.504  12.020  10.972  0.7483  1.1757 -0.6427
22293SOL     OW71689   2.616   9.676   8.052 -0.3534 -0.0921 -0.0873
22293SOL    HW171690   2.554   9.721   7.994 -0.2942 -0.1930 -0.2284
22293SOL    HW271691   2.560   9.621   8.107 -0.3441 -0.6735 -0.6474
22294SOL     OW71692  11.676   3.454   7.119 -0.2397  0.5958 -0.1816
22294SOL    HW171693  11.713   3.383   7.066  0.7014  1.7678 -1.1379
22294SOL    HW271694  11.635   3.409   7.193  1.8270 -0.8569  0.1573
22295SOL     OW71695   1.597  10.487  11.052 -0.5518  0.6115 -0.0746
22295SOL    HW171696   1.565  10.465  10.964 -2.3553  0.0701  0.6737
22295SOL    HW271697   1.530  10.545  11.088 -0.6249 -0.3867  1.4925
22296SOL     OW71698   1.248   4.197  10.419  0.7143 -0.0429  0.1183
22296SOL    HW171699   1.324   4.140  10.415  0.6806 -0.0702 -0.1800
22296SOL    HW271700   1.174   4.137  10.436  0.5124 -0.2519 -1.3415
22297SOL     OW71701  11.565  10.246   0.031  0.4575 -0.1507  0.5571
22297SOL    HW171702  11.638  10.306   0.044  0.3711  0.4610 -1.4528
22297SOL    HW271703  11.603  10.174  -0.020 -0.0524 -0.4756  0.6344
22298SOL     OW71704   9.170  10.202   9.733 -0.4199  0.3264 -0.1582
22298SOL    HW171705   9.229  10.187   9.806 -2.2559 -1.3458  1.0832
22298SOL    HW271706   9.096  10.250   9.771 -0.4596  1.3330 -1.4131
22299SOL     OW71707   6.855   4.648  10.990  0.5740  0.6309  0.0209
22299SOL    HW171708   6.845   4.572  11.048  1.0874  0.3032 -0.3110
22299SOL    HW271709   6.776   4.646  10.935  1.8096 -1.2897 -1.8339
22300SOL     OW71710   5.365   4.137   8.562 -0.2581  0.5368  0.6419
22300SOL    HW171711   5.375   4.088   8.480 -1.1359  1.4256 -0.0188
22300SOL    HW271712   5.355   4.070   8.629  1.1075 -0.2198  0.1292
22301SOL     OW71713   3.017   4.873  10.496  0.4086 -0.4622  0.1009
22301SOL    HW171714   3.037   4.926  10.573  1.2954  1.8475 -1.5973
22301SOL    HW271715   3.004   4.785  10.530  3.7441 -0.1753  2.5857
22302SOL     OW71716   2.099  12.252   5.451 -0.1471 -0.1304 -0.4319
22302SOL    HW171717   2.177  12.219   5.406  0.7308 -1.2341  1.7248
22302SOL    HW271718   2.133  12.315   5.514 -0.8880 -1.0173  0.9121
22303SOL     OW71719   8.673  11.508   4.874 -0.2122  1.1744  0.0461
22303SOL    HW171720   8.584  11.535   4.899 -0.7282 -0.7723  0.4959
22303SOL    HW271721   8.660  11.426   4.826  1.2684  1.5351 -1.0100
22304SOL     OW71722   8.716   8.026   9.534 -0.0242 -0.1915  0.0242
22304SOL    HW171723   8.775   8.024   9.459 -0.4636  0.3168 -0.3411
22304SOL    HW271724   8.717   7.936   9.568  0.0421 -0.4666 -0.6917
22305SOL     OW71725   7.519   9.503   6.905  0.0688 -0.6570 -0.4050
22305SOL    HW171726   7.599   9.463   6.871  0.4426  0.4166 -0.8485
22305SOL    HW271727   7.505   9.461   6.990  1.8193 -0.0122  0.2629
22306SOL     OW71728   4.798   3.601   0.020 -0.3522 -0.3867 -0.0357
22306SOL    HW171729   4.853   3.550   0.078 -0.4763  0.7051  1.0747
22306SOL    HW271730   4.857   3.666  -0.019 -0.7003  0.3556  0.6467
22307SOL     OW71731   1.822  10.459   1.223  0.0206  0.1053 -0.4109
22307SOL    HW171732   1.754  10.446   1.157 -0.9592 -2.1684  0.9302
22307SOL    HW271733   1.774  10.491   1.300  0.6001 -0.5881  0.2481
22308SOL     OW71734   2.297   3.219   2.298 -0.6522  0.0319 -0.0110
22308SOL    HW171735   2.267   3.131   2.321 -0.9969 -0.3818 -1.9111
22308SOL    HW271736   2.241   3.246   2.226 -0.7585  1.9721  0.7385
22309SOL     OW71737   9.296   8.666   9.406 -0.4758 -0.2481 -0.2157
22309SOL    HW171738   9.301   8.573   9.427 -0.6482 -0.2717 -0.2744
22309SOL    HW271739   9.368   8.706   9.454  1.0627 -0.7349 -2.0071
22310SOL     OW71740   9.440   2.282   1.149 -0.1464  0.2458  0.0206
22310SOL    HW171741   9.514   2.342   1.160 -0.8949  1.2296 -0.0955
22310SOL    HW271742   9.476   2.207   1.102  1.3702 -0.5294  2.2589
22311SOL     OW71743   2.147   4.231   9.930 -0.0395 -0.5538 -0.2235
22311SOL    HW171744   2.126   4.223   9.837 -1.0839  1.1279 -0.1740
22311SOL    HW271745   2.062   4.226   9.975  0.2850  0.2431  0.5091
22312SOL     OW71746   7.416  11.632   8.159  0.3774 -0.2785  0.3364
22312SOL    HW171747   7.396  11.722   8.135  0.8245 -0.6634 -1.7666
22312SOL    HW271748   7.335  11.584   8.143  0.2299 -0.3086  1.1503
22313SOL     OW71749   9.257   9.691   8.136  0.3063  0.2894 -0.3955
22313SOL    HW171750   9.182   9.713   8.191  0.6256  0.7217 -0.1235
22313SOL    HW271751   9.225   9.700   8.047 -0.8724 -2.5391 -0.3759
22314SOL     OW71752   7.965   8.376   1.243 -0.6353  0.2611  0.0330
22314SOL    HW171753   7.901   8.440   1.211 -0.6980  0.5253  0.6728
22314SOL    HW271754   7.959   8.382   1.338  0.8542  0.8249  0.1219
22315SOL     OW71755   3.367   0.380   6.706  0.5908 -0.3176 -0.3018
22315SOL    HW171756   3.334   0.362   6.618 -1.4612  1.1441  0.1074
22315SOL    HW271757   3.326   0.462   6.731  2.3085  0.0771  1.4663
22316SOL     OW71758  12.486   7.920  12.440 -0.1896 -0.0437  0.2485
22316SOL    HW171759  12.395   7.917  12.470 -1.2239 -0.0898 -2.6539
22316SOL    HW271760  12.484   7.971  12.359  2.4637  0.3173  0.2983
22317SOL     OW71761   5.091   1.313  10.225 -0.3255 -0.1952  0.5150
22317SOL    HW171762   5.035   1.247  10.266 -2.0607  0.1899 -1.0796
22317SOL    HW271763   5.146   1.264  10.163  0.1105 -0.4110  1.0682
22318SOL     OW71764   8.676  11.331   3.803 -0.3749 -0.0600 -0.3526
22318SOL    HW171765   8.720  11.389   3.741  0.2394 -0.3142 -0.1702
22318SOL    HW271766   8.588  11.367   3.812 -0.1911  0.4929 -0.6956
22319SOL     OW71767   7.982  11.151  11.663  0.2145 -0.1156  0.0685
22319SOL    HW171768   7.974  11.130  11.570 -0.9113  2.3053 -0.4826
22319SOL    HW271769   8.034  11.232  11.665 -1.4293  0.9912  1.3008
22320SOL     OW71770   1.226   5.798   1.494  0.7082 -0.2152 -0.1390
22320SOL    HW171771   1.292   5.792   1.425 -1.1170 -1.3494 -1.8959
22320SOL    HW271772   1.176   5.878   1.473  1.7080  0.8831  1.4267
22321SOL     OW71773   5.127  12.003   6.443  0.3419 -0.6512  0.1074
22321SOL    HW171774   5.091  12.013   6.355  1.1541 -1.0827 -0.2910
22321SOL    HW271775   5.056  12.027   6.502 -0.4037 -0.9457 -0.6610
22322SOL     OW71776   6.273  11.713  11.273  0.1635 -0.3175  0.2563
22322SOL    HW171777   6.305  11.671  11.353 -0.0215 -0.3858  0.2959
22322SOL    HW271778   6.243  11.799  11.302 -0.7023 -0.6619  0.4215
22323SOL     OW71779   6.091   3.796   3.769 -0.1223  0.1781 -0.0166
22323SOL    HW171780   6.042   3.833   3.695  0.6638  2.5507  0.5588
22323SOL    HW271781   6.037   3.817   3.845  0.4196  0.2633  0.3408
22324SOL     OW71782  12.477   7.334   7.767  0.5000  0.3652 -0.2805
22324SOL    HW171783  12.420   7.291   7.831  3.6003  1.4595  3.6321
22324SOL    HW271784  12.501   7.264   7.706  0.0784 -1.7748  1.8343
22325SOL     OW71785   0.587   7.043   9.945  0.2750  0.0494  0.1207
22325SOL    HW171786   0.624   7.131   9.938  0.3741 -0.0233 -0.3015
22325SOL    HW271787   0.564   7.034  10.037  2.0900 -0.2122  0.5952
22326SOL     OW71788   9.172   4.432   8.992 -0.0392 -0.5973 -0.3687
22326SOL    HW171789   9.137   4.392   9.071  0.4534 -0.8110 -0.2538
22326SOL    HW271790   9.174   4.525   9.010 -1.4866 -0.4696 -0.7498
22327SOL     OW71791   3.637   1.304   8.904  0.0189 -0.0617  0.1827
22327SOL    HW171792   3.546   1.274   8.898 -0.4240  1.3831 -1.1088
22327SOL    HW271793   3.659   1.295   8.997 -1.7805  0.4120  0.7060
22328SOL     OW71794   5.500  10.452   6.920 -0.3986  0.0934 -0.6529
22328SOL    HW171795   5.483  10.370   6.874 -0.4894 -0.5507  0.5092
22328SOL    HW271796   5.473  10.520   6.858 -1.3376 -0.7678 -1.2118
22329SOL     OW71797   3.955   9.103   6.076  0.1989  0.7115 -0.0107
22329SOL    HW171798   3.904   9.178   6.109 -0.7471 -0.3589  1.0521
22329SOL    HW271799   3.972   9.125   5.984 -2.0843  1.1996 -0.3959
22330SOL     OW71800   2.095   9.742   0.506 -0.2071 -0.1751  0.4394
22330SOL    HW171801   2.125   9.830   0.485  0.5250 -0.4903  0.1397
22330SOL    HW271802   2.037   9.753   0.581 -0.4049  0.6007  0.1756
22331SOL     OW71803   6.893   6.483   9.881  0.3859  0.5707 -0.5980
22331SOL    HW171804   6.970   6.426   9.880  0.0173  0.0103  1.0108
22331SOL    HW271805   6.912   6.548   9.948 -1.1828 -0.5511  1.0375
22332SOL     OW71806  12.392   0.848  10.353  0.0222 -0.4653 -0.5658
22332SOL    HW171807  12.361   0.934  10.325  0.0223 -0.4748 -0.5956
22332SOL    HW271808  12.469   0.831  10.298 -0.8199 -1.1134 -1.5837
22333SOL     OW71809   7.335   9.003   2.205  0.6161  0.0861 -0.2278
22333SOL    HW171810   7.337   9.067   2.135  2.6639  2.0604  1.4518
22333SOL    HW271811   7.310   9.052   2.283  0.0291 -1.6525  0.7478
22334SOL     OW71812   3.374   6.170   7.466  0.5480  0.4753  0.0258
22334SOL    HW171813   3.343   6.085   7.498 -1.0609  1.1079  0.2778
22334SOL    HW271814   3.302   6.202   7.411  0.8923  1.8884  0.3606
22335SOL     OW71815   4.858   0.653   2.070  0.2026  0.6905 -0.2483
22335SOL    HW171816   4.779   0.707   2.070  0.0330  0.5987 -3.1349
22335SOL    HW271817   4.828   0.566   2.043  1.1089  0.2538  0.0821
22336SOL     OW71818   4.759   8.988   6.008 -0.1161  0.1469  0.4787
22336SOL    HW171819   4.668   9.016   6.000  0.0003  0.6531  0.9249
22336SOL    HW271820   4.757   8.917   6.072 -0.1991  0.1486  0.4773
22337SOL     OW71821   8.640   8.680   5.915 -0.2643 -0.2457 -0.3767
22337SOL    HW171822   8.720   8.715   5.954  0.4210 -0.1583 -1.8069
22337SOL    HW271823   8.570   8.730   5.956  0.4550  0.1549  0.3988
22338SOL     OW71824   1.697  10.407   3.232 -0.1811  0.2123  0.3518
22338SOL    HW171825   1.735  10.419   3.319  1.1148  0.0654 -0.1635
22338SOL    HW271826   1.690  10.495   3.196  1.2258  0.1528 -0.1499
22339SOL     OW71827   6.910   5.981  12.566 -0.2542 -0.3675 -0.4521
22339SOL    HW171828   6.838   6.044  12.564 -1.0216 -1.2232 -1.6166
22339SOL    HW271829   6.895   5.930  12.646  0.0252  0.5185  0.1746
22340SOL     OW71830   2.632   9.315   3.910 -0.5210  0.0037 -0.0613
22340SOL    HW171831   2.544   9.301   3.875 -0.0687 -1.5594 -0.6587
22340SOL    HW271832   2.652   9.233   3.956  1.2461 -0.3541 -1.3673
22341SOL     OW71833   9.922   3.433  11.114 -0.1548 -0.2464 -0.0468
22341SOL    HW171834   9.879   3.456  11.197 -0.3377  0.4324 -0.3157
22341SOL    HW271835   9.849   3.411  11.055 -0.0724 -0.0822 -0.2117
22342SOL     OW71836   9.135  10.476   2.543 -0.3624 -0.1129  0.1249
22342SOL    HW171837   9.080  10.523   2.480  3.3903 -0.1617 -3.6416
22342SOL    HW271838   9.096  10.389   2.548 -2.6827  0.8869  0.6599
22343SOL     OW71839  11.733   8.577   1.414 -0.2296 -0.6570 -0.1196
22343SOL    HW171840  11.653   8.616   1.449  1.7254  2.4608  1.2727
22343SOL    HW271841  11.739   8.492   1.456 -2.6555 -0.8771 -0.0898
22344SOL     OW71842   4.289   0.336   8.480  0.3238 -0.7476 -0.9950
22344SOL    HW171843   4.382   0.354   8.463  0.0494  2.0680 -0.0318
22344SOL    HW271844   4.290   0.286   8.561  1.0172 -0.7536 -0.9974
22345SOL     OW71845   6.181   7.670  10.272  0.2634  0.1808  0.0236
22345SOL    HW171846   6.160   7.603  10.207  0.1877 -0.3000  0.5406
22345SOL    HW271847   6.108   7.732  10.267  0.0818 -0.0434 -0.1051
22346SOL     OW71848   4.243   9.192   5.222 -0.1036  0.2298  0.1033
22346SOL    HW171849   4.208   9.173   5.309 -0.0638  2.8337  0.7493
22346SOL    HW271850   4.263   9.285   5.224  0.5836  0.1977 -2.4819
22347SOL     OW71851   1.367   2.353   2.050  0.0277  0.8220  0.2228
22347SOL    HW171852   1.320   2.270   2.053 -0.5656  1.0960 -0.8144
22347SOL    HW271853   1.329   2.405   2.121 -0.3168  0.5694  0.2288
22348SOL     OW71854   6.461   1.787   2.853 -0.1526 -0.1041 -0.2099
22348SOL    HW171855   6.380   1.763   2.808 -1.4739 -2.8370  3.1769
22348SOL    HW271856   6.443   1.873   2.891 -0.6870  0.1865 -1.0879
22349SOL     OW71857   1.232   1.015   9.816  0.1139  0.1234  0.0526
22349SOL    HW171858   1.176   1.089   9.839 -1.0123 -0.7275  0.1665
22349SOL    HW271859   1.315   1.054   9.790 -0.2141  1.3798  0.8193
22350SOL     OW71860   1.386   1.644   8.338 -0.7953 -0.1047 -0.3784
22350SOL    HW171861   1.322   1.647   8.410 -0.0582 -2.3796  0.4334
22350SOL    HW271862   1.431   1.729   8.343 -0.6143 -0.2716  2.0036
22351SOL     OW71863   4.134   9.472  10.033 -0.2505  0.3306 -0.6591
22351SOL    HW171864   4.215   9.476   9.982 -0.0943 -0.9182 -0.5437
22351SOL    HW271865   4.102   9.382  10.019 -1.5049  0.7463 -0.5402
22352SOL     OW71866   9.703   8.165   9.996  0.3078  0.3220 -0.1944
22352SOL    HW171867   9.647   8.241   9.982 -0.6369 -0.3200  0.0779
22352SOL    HW271868   9.681   8.133  10.083  1.8507  0.6748  0.3577
22353SOL     OW71869  12.466   2.542  12.633  0.3582 -0.2401 -0.7140
22353SOL    HW171870  12.522   2.551  12.556  0.3898 -0.9019 -0.7679
22353SOL    HW271871  12.407   2.618  12.628  0.4676 -0.1896 -1.2974
22354SOL     OW71872   3.867   8.888   9.652 -0.2090 -0.1302 -1.1022
22354SOL    HW171873   3.839   8.853   9.736  2.3633  2.3954  1.0301
22354SOL    HW271874   3.961   8.868   9.647  0.5956  3.0436 -1.3741
22355SOL     OW71875   1.342   2.638   1.902 -0.2050  0.5799  0.3683
22355SOL    HW171876   1.367   2.684   1.982 -1.2861  1.9826 -0.0618
22355SOL    HW271877   1.266   2.586   1.928 -1.8636  2.6165 -0.1453
22356SOL     OW71878   6.006   1.113   8.193  0.1121 -0.1076 -0.7032
22356SOL    HW171879   6.020   1.019   8.205  0.7523  0.0975  0.3345
22356SOL    HW271880   5.916   1.120   8.162 -0.6384 -0.9612  1.1146
22357SOL     OW71881   3.104   3.219   3.780  0.1676 -0.2369 -0.6462
22357SOL    HW171882   3.129   3.228   3.872  1.5714 -2.8604 -0.6893
22357SOL    HW271883   3.105   3.125   3.763 -1.0856  0.1022 -3.1009
22358SOL     OW71884   4.630   9.886   7.482  0.2482 -0.8214 -0.5562
22358SOL    HW171885   4.605   9.817   7.545  0.7929 -1.1326 -0.6783
22358SOL    HW271886   4.549   9.906   7.436 -0.0294 -1.0181 -0.1634
22359SOL     OW71887   2.741   7.936   1.397 -0.7836  0.8370  0.2066
22359SOL    HW171888   2.812   7.872   1.391 -0.2103  1.5285 -0.6792
22359SOL    HW271889   2.734   7.956   1.490  0.9367  1.5741  0.2089
22360SOL     OW71890  11.549   9.174   6.027 -0.0080 -0.0740 -0.0156
22360SOL    HW171891  11.619   9.238   6.015  0.4089 -0.4568  0.3599
22360SOL    HW271892  11.529   9.143   5.939 -0.8484  1.2273 -0.3233
22361SOL     OW71893  10.705   5.235   4.519  0.2323  0.2870 -0.0033
22361SOL    HW171894  10.798   5.218   4.528 -0.2500 -2.7807  0.4149
22361SOL    HW271895  10.689   5.233   4.424  0.5963  1.0595 -0.0878
22362SOL     OW71896   9.567   4.105   1.443 -0.6680  0.2041  0.4312
22362SOL    HW171897   9.475   4.088   1.424 -0.9496  1.5371  0.5061
22362SOL    HW271898   9.576   4.088   1.537 -0.2799 -2.1459  0.0249
22363SOL     OW71899  11.454  11.602   0.979 -0.4417  0.4305 -0.1406
22363SOL    HW171900  11.512  11.671   1.010 -0.5394  1.0371 -1.2693
22363SOL    HW271901  11.377  11.607   1.036 -0.2326  0.9102  0.0990
22364SOL     OW71902   6.810  10.664   1.208 -0.0575 -0.1239  0.6107
22364SOL    HW171903   6.786  10.750   1.243  0.4877  0.2466  0.0990
22364SOL    HW271904   6.733  10.609   1.222 -0.3068  0.3718  1.1990
22365SOL     OW71905  11.303   0.697  10.087  0.7261 -0.2370 -0.2517
22365SOL    HW171906  11.286   0.634  10.017  1.5712 -1.0185  0.2259
22365SOL    HW271907  11.394   0.725  10.073  0.7781 -0.1118  0.2988
22366SOL     OW71908   5.241   9.503   6.637 -0.5630  0.1670 -0.2863
22366SOL    HW171909   5.166   9.452   6.668 -0.5836 -0.7117 -1.7225
22366SOL    HW271910   5.203   9.582   6.599 -0.7723 -0.2335 -0.9255
22367SOL     OW71911  10.092   1.387   8.446 -0.0350 -0.2454 -0.0013
22367SOL    HW171912  10.052   1.355   8.366 -0.1921  1.1524 -0.4990
22367SOL    HW271913  10.140   1.466   8.420  0.7904 -0.3678  1.0799
22368SOL     OW71914   3.658   2.374  10.191 -0.5164 -0.9636  0.0833
22368SOL    HW171915   3.577   2.419  10.213  0.0406  0.6307 -0.9728
22368SOL    HW271916   3.716   2.391  10.265 -0.2374  0.2911 -0.4053
22369SOL     OW71917  12.067   0.978   7.394  0.1022  0.5952  0.7056
22369SOL    HW171918  12.103   0.895   7.362  0.6750  0.9276  0.4795
22369SOL    HW271919  12.015   0.953   7.470 -0.7389 -0.1258 -0.0819
22370SOL     OW71920   9.801   2.912  10.958 -0.1172  0.7240 -0.2219
22370SOL    HW171921   9.752   2.832  10.976  1.9898 -0.4626  0.5919
22370SOL    HW271922   9.808   2.955  11.043  0.0357  1.0200 -0.3842
22371SOL     OW71923  11.068  11.221   6.304 -0.2956  0.0581  0.0806
22371SOL    HW171924  10.991  11.238   6.249 -0.8173  0.6133  0.9511
22371SOL    HW271925  11.107  11.308   6.318  0.5873 -0.2366 -0.4720
22372SOL     OW71926   1.099   4.536  10.983  0.6564 -0.1207  0.1412
22372SOL    HW171927   1.144   4.556  10.901  0.7645 -2.2132 -0.3500
22372SOL    HW271928   1.136   4.453  11.011  0.9290  0.7639  2.5848
22373SOL     OW71929   9.846   7.416   3.296 -0.0326 -0.0974 -0.7574
22373SOL    HW171930   9.894   7.393   3.375 -0.6405  0.6140 -0.1655
22373SOL    HW271931   9.908   7.399   3.225  1.2572  1.1262  0.0061
22374SOL     OW71932   9.209   3.922   4.014  0.0203  0.3045  0.0205
22374SOL    HW171933   9.156   4.001   4.004 -1.6987 -0.8875 -0.8424
22374SOL    HW271934   9.299   3.952   4.003 -0.5071  2.2784  0.6977
22375SOL     OW71935   4.744   2.573   9.069 -0.2605  0.0448 -0.0573
22375SOL    HW171936   4.694   2.594   9.148  0.3254  2.3523 -0.2371
22375SOL    HW271937   4.761   2.657   9.027  1.1886 -0.9289 -1.5969
22376SOL     OW71938   2.197  12.471   2.845  0.2191 -0.0528 -0.1603
22376SOL    HW171939   2.162  12.415   2.915  2.2288  0.9653  1.8042
22376SOL    HW271940   2.257  12.531   2.890  0.8772  1.3204 -2.6632
22377SOL     OW71941   7.160   6.973   8.331  0.0760  0.2017  0.4790
22377SOL    HW171942   7.155   6.881   8.356 -0.2013  0.2760  0.6981
22377SOL    HW271943   7.238   6.978   8.275  1.3894  0.2386  2.2052
22378SOL     OW71944   0.085   4.916   1.457 -0.1496  0.0160  0.2360
22378SOL    HW171945   0.073   4.911   1.552  2.0635  1.1018  0.6172
22378SOL    HW271946   0.063   4.828   1.426  0.0835 -0.6551  1.8660
22379SOL     OW71947   9.592   5.317   1.576 -0.5384 -0.2351  0.3625
22379SOL    HW171948   9.604   5.247   1.511  2.5404  0.6476 -0.1990
22379SOL    HW271949   9.611   5.276   1.660  1.1213 -0.1957  0.0480
22380SOL     OW71950   4.046   0.958   2.380 -0.7322 -0.0620  0.1410
22380SOL    HW171951   4.015   0.972   2.291 -0.3688  0.1914  0.0518
22380SOL    HW271952   4.101   0.880   2.375 -1.2495 -0.4384  0.2748
22381SOL     OW71953   6.227   4.494  12.458 -0.3203 -0.4259 -0.1952
22381SOL    HW171954   6.310   4.504  12.504  0.2857 -1.4149 -1.0104
22381SOL    HW271955   6.187   4.580  12.461  0.0292 -0.2871  1.5169
22382SOL     OW71956   5.336   5.528   3.904  0.0988  0.0154  0.1030
22382SOL    HW171957   5.393   5.502   3.831  1.3967  1.4479  0.5386
22382SOL    HW271958   5.298   5.611   3.876 -0.4090 -0.0558  0.5564
22383SOL     OW71959  12.593   9.216  10.653  0.4422 -0.6539  0.1249
22383SOL    HW171960  12.583   9.290  10.713  1.2335  0.2082 -0.7719
22383SOL    HW271961  12.516   9.221  10.597  0.7600 -0.1744 -0.2763
22384SOL     OW71962  11.863   9.568  10.837 -0.3686 -0.5306  0.3832
22384SOL    HW171963  11.870   9.477  10.868 -0.8995 -0.6658  0.1059
22384SOL    HW271964  11.901   9.566  10.750 -0.9111 -0.6095  0.1452
22385SOL     OW71965   4.159  12.576   7.005 -0.4640  0.1090  0.2172
22385SOL    HW171966   4.171  12.642   7.073  0.1076  0.9294 -0.6455
22385SOL    HW271967   4.167  12.492   7.050  1.0664  0.6238  0.9717
22386SOL     OW71968  10.244   3.781   1.014 -0.0625  0.4927 -0.4527
22386SOL    HW171969  10.263   3.806   0.924  0.0019 -0.6147 -0.7573
22386SOL    HW271970  10.210   3.861   1.055  2.2353  1.7034 -0.7619
22387SOL     OW71971   1.392   3.780  11.386  0.3838  0.0142  0.8053
22387SOL    HW171972   1.330   3.740  11.325 -0.6365  0.1877  1.7080
22387SOL    HW271973   1.420   3.709  11.442  1.1660 -0.1033  0.2758
22388SOL     OW71974  10.869   5.922   7.736  0.5998 -0.2056 -0.1209
22388SOL    HW171975  10.958   5.893   7.718  1.4495 -0.0410  3.0586
22388SOL    HW271976  10.880   5.999   7.793 -1.5304 -0.5670  0.9014
22389SOL     OW71977   3.071   2.982   7.455 -0.1829 -0.1247  0.0035
22389SOL    HW171978   3.124   2.967   7.533 -0.7510 -0.4577  0.3312
22389SOL    HW271979   2.983   2.995   7.488 -0.0847  1.9379 -0.4291
22390SOL     OW71980   8.895  10.490   6.454 -0.6922  0.5949  0.1216
22390SOL    HW171981   8.905  10.570   6.506  0.1409  0.8384 -0.3951
22390SOL    HW271982   8.983  10.472   6.421 -1.3216  0.8502 -1.8069
22391SOL     OW71983   5.956  12.517   6.199 -0.4084 -0.0996 -0.3781
22391SOL    HW171984   5.979  12.441   6.145  0.4539  0.2309 -0.4936
22391SOL    HW271985   5.994  12.592   6.152 -0.4639  0.3001  0.2033
22392SOL     OW71986   8.747  12.219   2.662  0.2837  0.3296 -0.3124
22392SOL    HW171987   8.691  12.196   2.736 -2.2847  1.2650 -1.8107
22392SOL    HW271988   8.776  12.308   2.680  0.7918  0.0713  0.1734
22393SOL     OW71989   8.719   7.391  10.529 -0.1872 -0.3101  0.1742
22393SOL    HW171990   8.779   7.323  10.558 -0.6011 -0.4429  0.7348
22393SOL    HW271991   8.660   7.405  10.603  1.1813  2.1494  0.9269
22394SOL     OW71992   1.456  10.500  12.019 -0.1938  0.3907  0.1870
22394SOL    HW171993   1.402  10.456  11.953 -1.0058  1.7374 -0.0708
22394SOL    HW271994   1.456  10.439  12.094 -0.5677 -0.4292 -0.4623
22395SOL     OW71995   3.000   2.056  11.957  0.5092  0.4035 -0.1583
22395SOL    HW171996   2.999   1.960  11.951 -0.2308  0.4003 -0.0556
22395SOL    HW271997   3.087   2.081  11.925  0.9302 -0.3351  0.3567
22396SOL     OW71998   8.438  10.651   5.278  0.0622  0.3849  0.5470
22396SOL    HW171999   8.523  10.616   5.304 -0.0126  0.1936  0.5378
22396SOL    HW272000   8.377  10.618   5.343 -0.5129 -1.9776 -1.0462
22397SOL     OW72001   8.591   6.511   4.229 -0.0890 -0.3368  0.3641
22397SOL    HW172002   8.577   6.425   4.269  0.9486 -1.0853 -0.8242
22397SOL    HW272003   8.685   6.525   4.233 -0.1316  0.2632 -0.3987
22398SOL     OW72004   7.206   0.999  10.958  0.0897  0.2583  0.1297
22398SOL    HW172005   7.226   0.964  10.870  0.4227  1.8746 -0.4643
22398SOL    HW272006   7.111   0.988  10.967 -0.3450  2.1910 -1.4337
22399SOL     OW72007   3.156  12.090   6.197 -0.1570 -0.3112 -0.0089
22399SOL    HW172008   3.204  12.113   6.277  0.7879 -0.3021 -0.5691
22399SOL    HW272009   3.196  12.144   6.129 -0.3434 -0.9854 -0.6582
22400SOL     OW72010  10.443   9.990   8.454  0.3522  0.5239 -0.2903
22400SOL    HW172011  10.479  10.008   8.367 -0.6274 -1.4323 -1.1594
22400SOL    HW272012  10.520   9.987   8.511  1.3042 -0.4925 -1.5460
22401SOL     OW72013   8.476   3.436   1.665 -0.4659  0.4251  0.6909
22401SOL    HW172014   8.474   3.408   1.573  0.7174  0.6640  0.5756
22401SOL    HW272015   8.395   3.486   1.677 -1.1412 -0.4875  0.0762
22402SOL     OW72016   5.908   8.783   8.564 -0.4377 -0.5974 -0.2074
22402SOL    HW172017   5.838   8.718   8.561  0.2803 -1.5280  1.7469
22402SOL    HW272018   5.989   8.732   8.561  0.1451  0.2067  1.0260
22403SOL     OW72019  11.675   6.253   0.380  0.5159 -0.0147  0.2462
22403SOL    HW172020  11.689   6.315   0.308  1.8150  1.0266  1.3191
22403SOL    HW272021  11.754   6.198   0.379  0.8474  0.4229  1.2339
22404SOL     OW72022   0.840  11.926  10.444  0.0626 -0.1638  0.6097
22404SOL    HW172023   0.885  12.005  10.413 -0.0766 -0.7606 -1.2338
22404SOL    HW272024   0.801  11.952  10.528  1.2898  1.2555  0.7904
22405SOL     OW72025   8.424   6.260   6.419  0.0663  0.6226 -0.5410
22405SOL    HW172026   8.367   6.262   6.495 -0.6082  0.8260 -1.0415
22405SOL    HW272027   8.511   6.244   6.454 -0.0772  1.7264  0.3696
22406SOL     OW72028   2.696   1.147  11.024  0.1564  0.2520 -0.1382
22406SOL    HW172029   2.775   1.129  10.973  1.7900 -0.6485  2.5066
22406SOL    HW272030   2.628   1.094  10.982  1.0592  0.5332 -2.0819
22407SOL     OW72031   0.715   1.383   8.001 -0.4256 -0.7433  0.0694
22407SOL    HW172032   0.637   1.408   7.951  0.7137 -0.6607 -1.7704
22407SOL    HW272033   0.736   1.296   7.969  0.5173 -0.5569  0.1622
22408SOL     OW72034   0.998   8.524   3.439 -0.0217 -0.0801 -0.1736
22408SOL    HW172035   1.091   8.507   3.423  0.1077 -1.3281  1.5895
22408SOL    HW272036   0.953   8.449   3.401 -0.0506 -0.8619  1.3339
22409SOL     OW72037  12.517  11.988   7.797  0.0569  0.1076 -0.2191
22409SOL    HW172038  12.508  11.988   7.892 -1.4651 -2.6362 -0.2595
22409SOL    HW272039  12.464  12.062   7.768  0.7227  1.1211  1.0279
22410SOL     OW72040  10.465   7.892   7.817  0.2985  0.8325  0.0349
22410SOL    HW172041  10.407   7.859   7.749  0.1688 -1.5397  1.1735
22410SOL    HW272042  10.552   7.891   7.778  0.1758 -0.1757 -0.2436
22411SOL     OW72043   3.791  12.587   4.654  0.1190  0.0019 -0.0037
22411SOL    HW172044   3.806  12.655   4.587  1.4451 -0.8681 -0.6192
22411SOL    HW272045   3.855  12.605   4.722  0.5663 -0.7084 -0.2315
22412SOL     OW72046   1.783   2.850   8.070 -0.3410  0.1550  0.4120
22412SOL    HW172047   1.748   2.850   7.981  2.1174 -0.5206 -0.6460
22412SOL    HW272048   1.790   2.943   8.093  0.5233  0.4109 -0.7790
22413SOL     OW72049  10.625   2.103  12.638  0.0962 -0.2331 -0.6983
22413SOL    HW172050  10.625   2.061  12.724  0.6818 -0.2825 -0.7161
22413SOL    HW272051  10.625   2.030  12.576  0.8334 -0.2214 -0.7292
22414SOL     OW72052   2.592   9.961  12.157  0.1667  0.0564 -0.2918
22414SOL    HW172053   2.601  10.008  12.240  0.1653  0.0572 -0.2922
22414SOL    HW272054   2.619  10.025  12.091  0.1715  0.0551 -0.2918
22415SOL     OW72055   7.525  10.354   4.663 -0.3580 -0.1882 -0.3100
22415SOL    HW172056   7.595  10.292   4.684  0.9239  0.9886 -0.8963
22415SOL    HW272057   7.517  10.409   4.741 -0.8289 -0.5000 -0.1379
22416SOL     OW72058   9.076  11.777   6.970 -0.2730 -0.1150 -0.1661
22416SOL    HW172059   8.998  11.721   6.970  1.9299 -3.6034  2.8936
22416SOL    HW272060   9.120  11.756   6.888 -0.1353 -2.0481  0.3501
22417SOL     OW72061   6.617  10.311  11.711 -0.0727 -0.5059 -1.1052
22417SOL    HW172062   6.533  10.267  11.698 -0.6373  0.7273 -1.7408
22417SOL    HW272063   6.605  10.398  11.673  0.5468  0.7241  1.2674
22418SOL     OW72064   6.133   4.590   2.704  0.7553  0.4279 -0.5033
22418SOL    HW172065   6.172   4.673   2.732  1.1070  0.1787 -0.2402
22418SOL    HW272066   6.068   4.615   2.638  0.2505  0.9815  0.1853
22419SOL     OW72067   8.077   4.752   4.614  0.3441  0.4545  0.2311
22419SOL    HW172068   8.114   4.762   4.526 -0.2317 -1.6556 -0.3141
22419SOL    HW272069   8.075   4.658   4.629 -2.1337  0.5833  1.3574
22420SOL     OW72070   8.759   1.322   1.050  0.2211  0.0154 -0.1165
22420SOL    HW172071   8.710   1.271   1.115 -1.3011 -1.5561 -2.3239
22420SOL    HW272072   8.691   1.358   0.993  1.4908  1.5260 -0.7358
22421SOL     OW72073   0.396   2.278   0.577 -0.2374 -0.2237  0.5414
22421SOL    HW172074   0.457   2.350   0.568 -0.7492  0.1220 -0.2533
22421SOL    HW272075   0.402   2.230   0.494 -0.3005 -0.7825  0.8488
22422SOL     OW72076   6.745   3.292   0.201 -0.2547 -0.3751 -0.1260
22422SOL    HW172077   6.719   3.201   0.188  0.2570 -0.3510 -1.4425
22422SOL    HW272078   6.807   3.309   0.131 -1.6885  1.5291 -1.0146
22423SOL     OW72079  11.516   2.418   8.982 -0.3478 -0.3075  0.4247
22423SOL    HW172080  11.479   2.386   9.064 -0.8228  0.9797  0.7348
22423SOL    HW272081  11.586   2.356   8.961 -0.8999 -1.2288  1.2597
22424SOL     OW72082  10.478   5.335  10.148  0.6615  0.4982 -0.5221
22424SOL    HW172083  10.534   5.328  10.071  2.1119  0.0879  0.5113
22424SOL    HW272084  10.517   5.406  10.199  0.5236 -0.0889  0.4310
22425SOL     OW72085   9.645   6.189   0.957 -0.4130 -0.1940 -0.4299
22425SOL    HW172086   9.614   6.276   0.932 -0.6247 -0.0476  0.3152
22425SOL    HW272087   9.568   6.146   0.994  0.2893  0.2821  1.7342
22426SOL     OW72088  10.169   5.362   9.195 -0.2686  0.2241  0.1806
22426SOL    HW172089  10.247   5.316   9.163 -1.3669 -2.1061  0.5793
22426SOL    HW272090  10.125   5.393   9.116 -0.2841 -0.8502 -0.2583
22427SOL     OW72091   4.671   1.826   6.408  0.6452  0.0619  0.0851
22427SOL    HW172092   4.637   1.912   6.383  1.5947  0.1780 -0.9095
22427SOL    HW272093   4.754   1.845   6.451  1.9267 -0.4095 -2.0455
22428SOL     OW72094   5.943  11.777  12.082 -0.1296  0.2452  0.2858
22428SOL    HW172095   6.023  11.725  12.071 -0.4974 -0.5243  1.1833
22428SOL    HW272096   5.877  11.729  12.032  0.0784  1.1968 -0.9518
22429SOL     OW72097   7.136   3.085   3.581 -0.4171  0.1710  0.1468
22429SOL    HW172098   7.196   3.159   3.584 -0.1274 -0.0626  0.0267
22429SOL    HW272099   7.178   3.021   3.524 -1.7508  0.8594 -1.6970
22430SOL     OW72100   9.831   6.194   6.641 -0.3961 -0.1542 -0.4021
22430SOL    HW172101   9.791   6.110   6.660  0.2246 -0.6656 -1.2768
22430SOL    HW272102   9.815   6.247   6.719 -0.4454 -1.2090  0.3146
22431SOL     OW72103   3.390   3.378   1.399  0.0465 -0.6506  0.2243
22431SOL    HW172104   3.471   3.345   1.437  1.0746 -1.0682 -2.1436
22431SOL    HW272105   3.348   3.301   1.361  0.0419 -0.0167 -1.1144
22432SOL     OW72106  10.449   0.365   7.851 -0.1418 -0.2811  0.3422
22432SOL    HW172107  10.494   0.315   7.783  0.0618 -0.8536  0.8930
22432SOL    HW272108  10.374   0.404   7.806  1.2407  1.2739 -0.7696
22433SOL     OW72109   8.819   4.836   8.206 -0.0760 -0.2108  0.0692
22433SOL    HW172110   8.785   4.854   8.118 -0.4741 -0.8702  0.0815
22433SOL    HW272111   8.826   4.922   8.248 -1.0572 -0.0089 -0.1725
22434SOL     OW72112   2.441   4.566   3.382  0.9322 -0.0743  0.2245
22434SOL    HW172113   2.466   4.488   3.332  1.7869  0.3741 -0.0745
22434SOL    HW272114   2.443   4.637   3.317  1.5125  0.4244  0.7681
22435SOL     OW72115   0.222  11.155  10.263  0.2514 -0.2477  0.2471
22435SOL    HW172116   0.148  11.216  10.258 -0.5448 -1.1562  0.6564
22435SOL    HW272117   0.292  11.207  10.302 -0.8402  0.0418  1.9566
22436SOL     OW72118  12.376  11.495   9.147 -0.3519  0.0902 -0.0002
22436SOL    HW172119  12.433  11.533   9.214  0.1140 -0.5679 -0.0218
22436SOL    HW272120  12.411  11.408   9.132 -2.3330 -0.9871  1.1991
22437SOL     OW72121   2.920   3.994   3.920  0.6504  0.0454 -0.1345
22437SOL    HW172122   2.959   4.079   3.901 -0.0805  0.3069 -0.4715
22437SOL    HW272123   2.911   3.951   3.835  0.6003 -0.1859 -0.0140
22438SOL     OW72124   5.059   4.861  11.605  0.4604  0.0646  0.0134
22438SOL    HW172125   5.096   4.869  11.693  0.7987 -1.1826  0.0002
22438SOL    HW272126   5.002   4.938  11.596  0.8927  0.5322  1.0817
22439SOL     OW72127  10.810  12.016   8.772  0.1752  0.3969 -0.1278
22439SOL    HW172128  10.827  11.985   8.861 -0.3000 -0.6277 -0.3775
22439SOL    HW272129  10.879  11.975   8.719  0.8078  1.4673 -0.1531
22440SOL     OW72130   4.567   3.354  11.913 -0.4303  0.1232 -0.2129
22440SOL    HW172131   4.553   3.448  11.915 -2.6424 -0.0654  3.2690
22440SOL    HW272132   4.623   3.336  11.989  1.6251 -1.2632 -1.9498
22441SOL     OW72133   5.094   2.609   4.173 -0.3735 -0.3370  0.6649
22441SOL    HW172134   5.175   2.632   4.218 -0.6471 -0.2720  1.1325
22441SOL    HW272135   5.053   2.694   4.153 -1.0098 -0.3694  1.7050
22442SOL     OW72136   0.409   2.216   2.225 -0.1584 -0.0315  0.2113
22442SOL    HW172137   0.452   2.131   2.237 -0.8693 -0.4621 -0.2217
22442SOL    HW272138   0.361   2.230   2.307  1.0350  0.6034  0.8273
22443SOL     OW72139  12.472  12.057   2.590 -0.2093  0.1910 -0.2188
22443SOL    HW172140  12.469  12.145   2.552  1.0354 -0.2479 -1.4408
22443SOL    HW272141  12.525  12.067   2.669 -2.2380  0.9810  1.1468
22444SOL     OW72142   7.269   0.684   1.704 -0.6071 -0.1101 -0.4321
22444SOL    HW172143   7.227   0.662   1.787  0.0254 -0.1283 -0.1058
22444SOL    HW272144   7.221   0.760   1.672 -0.2201  0.5415  0.4683
22445SOL     OW72145   5.097   6.155   4.218 -0.0700 -0.1574  0.1755
22445SOL    HW172146   5.118   6.240   4.256 -1.3157  0.5546 -0.6535
22445SOL    HW272147   5.024   6.122   4.272 -0.3149 -0.1956 -0.1767
22446SOL     OW72148   2.460   0.763   0.406 -0.1444  0.2473 -0.2059
22446SOL    HW172149   2.471   0.841   0.351  1.5111 -0.1391 -0.4740
22446SOL    HW272150   2.526   0.702   0.374 -1.1441 -1.1339  0.2712
22447SOL     OW72151   6.320   4.741   2.522  0.0719  0.1217  0.7805
22447SOL    HW172152   6.245   4.695   2.486  0.0826 -1.3675  2.5458
22447SOL    HW272153   6.393   4.717   2.464 -0.5885  0.8307 -0.3898
22448SOL     OW72154   2.451   5.545   3.282 -0.6411  0.3942 -0.3836
22448SOL    HW172155   2.538   5.569   3.249 -0.2223  1.1189  1.1629
22448SOL    HW272156   2.455   5.450   3.290  1.0110  0.5980  2.1806
22449SOL     OW72157   6.121   8.799   6.009 -0.1609 -0.9345  0.0819
22449SOL    HW172158   6.047   8.836   5.959 -0.8862  0.4704  2.0740
22449SOL    HW272159   6.198   8.839   5.969 -0.4456 -2.1328 -1.7908
22450SOL     OW72160  10.469   2.157  10.317 -0.0108  0.5702  0.2774
22450SOL    HW172161  10.533   2.130  10.251  0.5152  1.9960  0.1624
22450SOL    HW272162  10.384   2.142  10.276  0.2590 -0.5338  0.0984
22451SOL     OW72163   1.988   4.542  12.187 -0.5148  0.4708 -0.2859
22451SOL    HW172164   1.910   4.596  12.199 -1.0220 -0.3630  0.1956
22451SOL    HW272165   2.053   4.602  12.149 -0.6851  1.7282  1.2983
22452SOL     OW72166   7.834   1.567   7.875 -0.3361  0.3089  0.4665
22452SOL    HW172167   7.813   1.590   7.784 -1.0690  1.8003  0.9722
22452SOL    HW272168   7.749   1.553   7.916 -0.0895  1.0431  1.2513
22453SOL     OW72169   0.791   6.346  10.232 -0.0926  0.5403  0.1411
22453SOL    HW172170   0.716   6.308  10.278 -0.3652 -0.9055 -1.3900
22453SOL    HW272171   0.752   6.407  10.170 -0.0293 -0.2507 -0.6914
22454SOL     OW72172   9.877  11.710  10.197 -0.1943  0.4062 -0.1479
22454SOL    HW172173   9.918  11.732  10.280  0.1936  0.2760 -0.3021
22454SOL    HW272174   9.847  11.794  10.162  1.5189  0.7866 -0.8596
22455SOL     OW72175   2.709   7.617  12.306 -0.0577  0.0136 -0.0649
22455SOL    HW172176   2.716   7.569  12.223  0.2081  0.0522 -0.0668
22455SOL    HW272177   2.785   7.588  12.357  0.5680  1.0411 -0.3880
22456SOL     OW72178   8.195  11.025   8.647  1.0040 -0.0969 -0.1063
22456SOL    HW172179   8.282  11.019   8.687  1.0745 -0.4668 -0.3139
22456SOL    HW272180   8.172  11.118   8.656  1.0887 -0.1383  0.6390
22457SOL     OW72181   1.503   9.448   5.819  0.0668 -0.2701 -0.4407
22457SOL    HW172182   1.555   9.468   5.741  1.4798  3.9731  1.2980
22457SOL    HW272183   1.567   9.426   5.886 -0.6273  0.9785  0.6966
22458SOL     OW72184   3.300  12.115   5.128  0.2147 -0.0427  0.3052
22458SOL    HW172185   3.311  12.080   5.217 -0.5011  0.4195  0.5858
22458SOL    HW272186   3.234  12.057   5.089 -1.6894  1.4670  1.0854
22459SOL     OW72187   4.087   3.111   2.407 -0.2751  0.5016  0.0633
22459SOL    HW172188   4.051   3.087   2.492  1.8695 -1.1491  0.5799
22459SOL    HW272189   4.164   3.164   2.427  0.5487 -0.3288 -0.7777
22460SOL     OW72190   8.548   6.478  12.236  0.6605 -0.4374  0.4849
22460SOL    HW172191   8.642   6.461  12.239  0.5410 -1.2360  3.3190
22460SOL    HW272192   8.508   6.392  12.250 -0.5826 -0.3004 -1.8258
22461SOL     OW72193   5.135   1.062   3.508  0.0551  0.5046  0.2666
22461SOL    HW172194   5.169   0.973   3.498 -0.0925  0.7351 -4.1372
22461SOL    HW272195   5.040   1.051   3.514  0.1419  0.3498  1.7168
22462SOL     OW72196   2.345  11.495   2.568  0.5284 -0.2996  0.0178
22462SOL    HW172197   2.281  11.565   2.564  1.2891  0.3378 -2.4946
22462SOL    HW272198   2.399  11.516   2.645 -1.5770 -0.3410  1.6000
22463SOL     OW72199   1.839  11.619   6.562  0.1516 -0.1104 -0.2890
22463SOL    HW172200   1.910  11.578   6.512 -0.6279 -3.1188  0.8575
22463SOL    HW272201   1.871  11.623   6.652  0.4580  2.6509 -0.4194
22464SOL     OW72202  10.997   2.222   2.152  0.4363 -0.1421  0.0186
22464SOL    HW172203  10.910   2.222   2.113  0.9336 -1.4382 -1.1613
22464SOL    HW272204  11.057   2.213   2.078  1.5372 -0.0206  0.8729
22465SOL     OW72205   5.230   0.924  11.535 -0.6062 -0.3833  0.2617
22465SOL    HW172206   5.230   0.877  11.451 -1.0860 -1.3445  0.7769
22465SOL    HW272207   5.318   0.909  11.571  0.0836  1.2066 -0.6789
22466SOL     OW72208   1.790   0.272   9.024  0.3937 -0.6615 -0.3908
22466SOL    HW172209   1.830   0.185   9.016 -1.1101 -1.2207 -4.0916
22466SOL    HW272210   1.713   0.257   9.080  1.0519 -1.3121  0.3642
22467SOL     OW72211  12.050   2.178   4.357  0.2790 -0.2727 -0.5183
22467SOL    HW172212  12.117   2.163   4.425 -0.7919 -2.2030  0.2115
22467SOL    HW272213  11.980   2.224   4.403  0.4790  0.4251 -0.9057
22468SOL     OW72214   6.903  10.050   8.192  0.5202  0.4486  0.0096
22468SOL    HW172215   6.944  10.129   8.156 -0.9667  1.4743  0.4882
22468SOL    HW272216   6.844  10.082   8.260 -2.5234 -0.7327 -1.8681
22469SOL     OW72217  12.358   0.261   0.808 -0.4737 -0.9805 -0.7062
22469SOL    HW172218  12.297   0.260   0.881  2.8359  1.6067  2.4534
22469SOL    HW272219  12.420   0.190   0.826  0.6291 -0.0491 -0.6670
22470SOL     OW72220   7.852   1.108  11.407  0.3815  0.2179  0.1492
22470SOL    HW172221   7.777   1.059  11.440  0.5269 -1.7257 -2.0952
22470SOL    HW272222   7.918   1.041  11.388  0.3092  1.0114 -3.8382
22471SOL     OW72223   8.764   5.906   3.024 -0.2512 -0.0059 -0.0757
22471SOL    HW172224   8.695   5.960   2.985 -1.6023 -0.4407  1.5976
22471SOL    HW272225   8.828   5.968   3.057  0.6017  0.3926 -2.2883
22472SOL     OW72226   8.474   2.050   0.140  0.1061 -0.0902  0.6362
22472SOL    HW172227   8.468   2.146   0.141  0.0462 -0.0733 -0.4342
22472SOL    HW272228   8.392   2.021   0.179 -0.3549  0.2884 -0.0318
22473SOL     OW72229   8.574   7.577  11.251  0.1539 -0.4545 -0.1941
22473SOL    HW172230   8.627   7.626  11.188  0.9896 -0.0313  0.7967
22473SOL    HW272231   8.485   7.582  11.217  0.7002 -0.9741 -1.7704
22474SOL     OW72232   6.616   6.471   8.270  0.0365 -0.1449 -0.4371
22474SOL    HW172233   6.582   6.548   8.315 -1.4959 -0.1391 -1.5333
22474SOL    HW272234   6.709   6.469   8.292 -0.4403  0.3895  1.9185
22475SOL     OW72235   6.277   6.433   1.339 -0.6847 -0.2490 -0.1919
22475SOL    HW172236   6.272   6.502   1.406 -1.8439 -0.6616  0.1607
22475SOL    HW272237   6.293   6.480   1.258  2.0666  0.1801  0.5070
22476SOL     OW72238   7.886  11.389  10.418 -0.3641 -0.4448 -0.2182
22476SOL    HW172239   7.800  11.355  10.391  0.6531 -4.4573  0.9609
22476SOL    HW272240   7.894  11.363  10.510  1.6622  0.8971  0.0389
22477SOL     OW72241   0.023   8.644   1.289  0.4384 -0.0363  0.4654
22477SOL    HW172242   0.069   8.685   1.216 -0.5636 -1.5490 -1.0770
22477SOL    HW272243  -0.057   8.695   1.300  0.0498 -0.4762 -0.2658
22478SOL     OW72244   3.944   1.801   0.336  0.1906 -0.3256 -0.2239
22478SOL    HW172245   3.891   1.880   0.333 -0.4591 -0.6214  1.7522
22478SOL    HW272246   4.034   1.831   0.328 -0.0174  0.6989  0.9007
22479SOL     OW72247   5.359   6.929   4.468  0.5974 -0.0621  0.4196
22479SOL    HW172248   5.325   6.944   4.380  2.7976  1.7607 -0.2049
22479SOL    HW272249   5.411   6.849   4.461  1.7278  0.7044 -0.2861
22480SOL     OW72250   1.724   3.594   5.050 -0.1515  0.1711 -0.0113
22480SOL    HW172251   1.788   3.637   5.107  0.3071 -0.8573  0.2714
22480SOL    HW272252   1.771   3.522   5.010 -0.8268  0.1014 -0.7171
22481SOL     OW72253  10.434   8.201   2.431 -0.3335 -0.2433  0.2969
22481SOL    HW172254  10.385   8.277   2.460  0.8302 -0.2489  2.5055
22481SOL    HW272255  10.421   8.198   2.336 -2.4669  1.1869  0.4960
22482SOL     OW72256   6.862   6.141   1.912 -0.0157  0.4381  0.2662
22482SOL    HW172257   6.803   6.215   1.927  0.3416  0.6677  0.5496
22482SOL    HW272258   6.808   6.075   1.869 -0.0420  1.3353 -1.1573
22483SOL     OW72259   5.129   0.423   9.364 -0.2084  0.6141 -0.3490
22483SOL    HW172260   5.195   0.370   9.409 -0.8553 -0.4607 -0.6389
22483SOL    HW272261   5.172   0.507   9.350  0.2452  0.7848  1.7014
22484SOL     OW72262   1.391  11.034   3.864  0.3385 -0.0987 -0.3716
22484SOL    HW172263   1.334  11.111   3.856 -0.3764 -0.6863 -1.2935
22484SOL    HW272264   1.331  10.959   3.852  0.9483 -0.8250  0.8626
22485SOL     OW72265  11.344  11.799   5.266 -0.6199 -0.4413 -0.0118
22485SOL    HW172266  11.380  11.859   5.202  0.5677 -0.1120  0.9348
22485SOL    HW272267  11.375  11.713   5.239  0.2039 -0.2577  0.3197
22486SOL     OW72268   3.189   4.180   1.751 -0.2414 -0.8850  0.3606
22486SOL    HW172269   3.266   4.178   1.693 -0.9194 -0.1445 -0.6010
22486SOL    HW272270   3.175   4.273   1.768 -1.6486 -0.9108 -0.5028
22487SOL     OW72271  10.344  11.147   4.489  0.3145  0.0018 -0.1678
22487SOL    HW172272  10.300  11.065   4.468  2.2467 -0.9217 -0.8028
22487SOL    HW272273  10.304  11.212   4.430 -0.4147 -0.7286 -0.4858
22488SOL     OW72274   1.655   6.947  10.924  0.3387 -0.4408 -0.7674
22488SOL    HW172275   1.736   6.992  10.946  0.1843 -0.8546  0.7746
22488SOL    HW272276   1.680   6.855  10.919  0.5719 -0.2971 -3.4953
22489SOL     OW72277   1.682   6.827  11.944  0.2245 -0.1990  0.1114
22489SOL    HW172278   1.709   6.740  11.972 -0.8569 -0.4822  0.3242
22489SOL    HW272279   1.586   6.826  11.950  0.1701  0.8734 -0.2615
22490SOL     OW72280   7.883   1.367  11.885  0.0729 -0.0828 -0.3758
22490SOL    HW172281   7.902   1.323  11.802 -1.3965 -1.0179 -0.2676
22490SOL    HW272282   7.791   1.345  11.902  0.1507  0.6764  1.1462
22491SOL     OW72283   2.328   6.387   3.003  0.1633  0.2633  0.3954
22491SOL    HW172284   2.412   6.398   3.048  2.5343 -1.1133 -3.2241
22491SOL    HW272285   2.319   6.465   2.950  0.1084 -0.3851 -0.5697
22492SOL     OW72286   8.818   6.072   4.670 -0.1272 -0.0445 -0.2648
22492SOL    HW172287   8.752   6.009   4.641 -1.1511  0.6049  0.5753
22492SOL    HW272288   8.839   6.044   4.759 -0.8243  0.9652  0.2331
22493SOL     OW72289   9.427   0.149   5.937 -0.0183 -0.1787  0.0147
22493SOL    HW172290   9.510   0.174   5.898 -0.0647  0.0215  0.0433
22493SOL    HW272291   9.418   0.205   6.014  0.0024 -0.4660  0.2311
22494SOL     OW72292   8.083  10.286   3.865 -0.1860  0.3893 -0.2934
22494SOL    HW172293   8.130  10.313   3.786 -0.9045 -0.0266 -0.8895
22494SOL    HW272294   8.010  10.233   3.831 -0.5820  0.3207  0.6479
22495SOL     OW72295   7.493   9.539   4.518  0.1053 -0.2496 -0.4632
22495SOL    HW172296   7.417   9.520   4.572  1.2774 -1.6588  0.7888
22495SOL    HW272297   7.514   9.455   4.475  0.5766  0.2704 -1.2810
22496SOL     OW72298  10.855   8.275  10.934 -0.8524 -0.3361 -0.1694
22496SOL    HW172299  10.816   8.248  10.851 -2.2528 -0.1263  0.4045
22496SOL    HW272300  10.893   8.195  10.970 -1.6886 -0.7670 -0.2374
22497SOL     OW72301  11.006  11.561   0.237 -0.0676  0.0166 -0.4046
22497SOL    HW172302  10.996  11.491   0.302  2.8958  1.2474  1.5840
22497SOL    HW272303  10.942  11.627   0.263 -0.1494 -0.2719  0.1464
22498SOL     OW72304   5.995   1.998   1.887  0.1824  0.3932 -0.3222
22498SOL    HW172305   5.965   1.925   1.834 -0.9003  0.9430 -0.4907
22498SOL    HW272306   5.975   2.076   1.834 -1.3154  0.9872  1.0242
22499SOL     OW72307   4.773  10.222   0.682  0.0615  0.1109  0.6744
22499SOL    HW172308   4.820  10.141   0.664  0.1117  0.3876 -0.4916
22499SOL    HW272309   4.809  10.253   0.765  0.5385 -0.6884  0.7690
22500SOL     OW72310   2.888  11.265   2.083 -0.5965 -0.1220  0.7616
22500SOL    HW172311   2.879  11.230   2.171  0.6598  1.1008  1.4160
22500SOL    HW272312   2.923  11.193   2.031 -0.4652 -0.5838  1.4788
22501SOL     OW72313   7.054   5.768   6.378 -0.1192 -0.2405 -0.1139
22501SOL    HW172314   7.140   5.733   6.356 -0.0110 -0.7179  0.9939
22501SOL    HW272315   7.005   5.692   6.409 -0.2151  0.3986  1.3720
22502SOL     OW72316   3.590  10.063  12.359 -0.1306 -0.0443 -0.1267
22502SOL    HW172317   3.655  10.035  12.424 -1.3707  0.1666  1.2607
22502SOL    HW272318   3.550  10.141  12.399 -1.3559 -0.2815 -0.8647
22503SOL     OW72319  10.161  10.151  11.181 -0.1003 -0.1896 -0.0397
22503SOL    HW172320  10.232  10.088  11.188  1.1401  1.1625 -0.0954
22503SOL    HW272321  10.204  10.235  11.163 -1.7006  0.6653 -0.0824
22504SOL     OW72322   8.575   6.647   5.494  0.1386  0.3649 -0.3400
22504SOL    HW172323   8.572   6.558   5.460  2.1711 -1.3158  3.2911
22504SOL    HW272324   8.657   6.683   5.459 -1.9083  2.0849 -4.0192
22505SOL     OW72325   7.840   9.312   9.549 -0.0903  0.4708 -0.0871
22505SOL    HW172326   7.876   9.230   9.582  0.1479  0.8246  0.5433
22505SOL    HW272327   7.901   9.379   9.578  0.2187  0.7842 -1.4030
22506SOL     OW72328   5.163   7.086   1.356  0.0199 -0.0666 -0.2189
22506SOL    HW172329   5.122   7.037   1.427 -1.0764  0.3748 -0.5181
22506SOL    HW272330   5.114   7.060   1.278  1.3688 -0.7267 -0.8646
22507SOL     OW72331   8.748   6.797   8.318 -0.6406  0.2180  0.4513
22507SOL    HW172332   8.768   6.887   8.292  0.5155 -0.0568  0.3512
22507SOL    HW272333   8.751   6.799   8.414 -0.0978  0.1764  0.4368
22508SOL     OW72334  11.006   1.759  11.258 -0.5126  0.0622 -0.0662
22508SOL    HW172335  11.086   1.790  11.215  1.3760 -1.8544  1.8227
22508SOL    HW272336  10.973   1.834  11.306 -1.1288  1.4640 -2.4784
22509SOL     OW72337   7.803   9.536   7.816 -0.8232 -0.8286 -0.0876
22509SOL    HW172338   7.828   9.578   7.898  4.4098 -1.8326 -0.8155
22509SOL    HW272339   7.809   9.605   7.750  0.5641 -1.1448 -0.3137
22510SOL     OW72340   8.196   0.128   6.628  0.0380 -0.1970 -0.2453
22510SOL    HW172341   8.229   0.172   6.549  0.5938 -0.6643 -0.2824
22510SOL    HW272342   8.161   0.199   6.683  1.6443  0.3911  0.0587
22511SOL     OW72343   0.033   6.743   0.793  0.2159 -0.3324 -0.2383
22511SOL    HW172344   0.039   6.674   0.859 -1.7797 -1.2126 -0.8841
22511SOL    HW272345   0.031   6.825   0.842  1.5685 -0.7757  0.5986
22512SOL     OW72346   0.468   9.945   0.004 -0.5696  0.1237 -0.1756
22512SOL    HW172347   0.510  10.025  -0.027 -1.0751  0.0067 -1.1692
22512SOL    HW272348   0.525   9.874  -0.027 -0.9051  0.0244 -0.5716
22513SOL     OW72349  11.966   8.482   3.847  0.0137 -0.1225 -0.0072
22513SOL    HW172350  11.931   8.539   3.777  1.3055  1.7000  0.7460
22513SOL    HW272351  11.906   8.494   3.920 -0.4592 -0.8068 -0.2710
22514SOL     OW72352   1.748   1.249   8.764 -0.0937 -0.1134 -0.0968
22514SOL    HW172353   1.763   1.256   8.670 -0.8022  0.5642 -0.1718
22514SOL    HW272354   1.767   1.336   8.798 -0.3888 -0.1988  0.2955
22515SOL     OW72355   6.167   3.321   1.066  0.9328 -0.3650  0.7194
22515SOL    HW172356   6.130   3.408   1.048  1.4070 -0.2693  0.1972
22515SOL    HW272357   6.158   3.273   0.984  1.0763 -0.6684  0.8773
22516SOL     OW72358   0.904   8.909   3.558 -0.2947 -0.3964  0.2191
22516SOL    HW172359   0.975   8.846   3.546  1.9494  1.8334  0.9832
22516SOL    HW272360   0.911   8.938   3.649 -0.6459  1.5930 -0.3336
22517SOL     OW72361   9.221   1.731   8.343 -0.2134 -0.1993 -0.2680
22517SOL    HW172362   9.145   1.737   8.285 -1.0867  1.5015  0.9629
22517SOL    HW272363   9.288   1.785   8.301  1.2655 -3.4536 -2.5241
22518SOL     OW72364   3.270   6.555   5.650  0.2864  0.2415  0.3651
22518SOL    HW172365   3.214   6.515   5.716  0.6697  0.9709  1.1402
22518SOL    HW272366   3.211   6.607   5.596 -0.0536 -0.4974 -0.0041
22519SOL     OW72367   2.786   6.918   0.457  0.1693 -0.4257 -0.3985
22519SOL    HW172368   2.742   6.998   0.429  0.3968 -0.5639 -1.1679
22519SOL    HW272369   2.715   6.861   0.485 -0.4086 -1.4093 -3.4987
22520SOL     OW72370   3.560   3.033  11.806  0.3509  0.0821  0.6347
22520SOL    HW172371   3.611   3.021  11.887  1.1041 -0.5010  0.0846
22520SOL    HW272372   3.609   3.098  11.756 -0.7959  1.4165  1.1824
22521SOL     OW72373   2.003   7.773   0.622 -0.3168  0.0942 -0.0908
22521SOL    HW172374   1.907   7.776   0.616 -0.3672 -1.0965 -0.2912
22521SOL    HW272375   2.026   7.842   0.684 -1.1892  1.2956 -1.0569
22522SOL     OW72376   2.901   1.443   9.750 -0.5804 -0.1338  0.1648
22522SOL    HW172377   2.908   1.348   9.753 -0.6484 -0.1400  0.1216
22522SOL    HW272378   2.814   1.462   9.785 -0.6907 -0.1061 -0.1146
22523SOL     OW72379   7.919  10.135  10.846  0.1566  0.2551 -0.7084
22523SOL    HW172380   7.857  10.204  10.822 -2.0012 -1.0502  0.7470
22523SOL    HW272381   7.906  10.067  10.780  1.4387  0.6982 -1.4609
22524SOL     OW72382   5.157   5.100  12.179 -0.4183 -0.1732 -0.1747
22524SOL    HW172383   5.210   5.151  12.119 -0.8294 -1.3983 -1.6457
22524SOL    HW272384   5.078   5.152  12.193 -0.2923  0.1434 -0.6378
22525SOL     OW72385   2.953   1.077   9.498 -0.0244  0.2860  0.0447
22525SOL    HW172386   3.033   1.115   9.461  0.8508 -2.4570 -1.1638
22525SOL    HW272387   2.889   1.147   9.494  1.3749  1.5510 -2.3097
22526SOL     OW72388   6.891   1.431   7.041  0.0269 -0.5970 -0.1484
22526SOL    HW172389   6.842   1.356   7.007 -2.5900 -0.4385  2.8031
22526SOL    HW272390   6.869   1.502   6.981  0.2138 -1.5116 -1.3430
22527SOL     OW72391  11.966   6.033  11.123 -0.2038 -0.4639 -0.4068
22527SOL    HW172392  12.012   6.100  11.174  1.7611 -1.7015 -0.4495
22527SOL    HW272393  11.905   6.083  11.068  0.4857  1.2078  0.2698
22528SOL     OW72394   1.601   2.611   9.621  0.3740 -0.0040 -0.0554
22528SOL    HW172395   1.687   2.643   9.646  0.2401 -0.7177  1.4156
22528SOL    HW272396   1.606   2.516   9.629  0.1297 -0.2768 -2.2984
22529SOL     OW72397  10.593   3.636   1.514  1.4392 -0.0506  0.5231
22529SOL    HW172398  10.507   3.600   1.492  0.8082  1.5908  0.1639
22529SOL    HW272399  10.634   3.654   1.429  1.4383  0.7280  0.6785
22530SOL     OW72400   9.590   7.975   5.546  0.0949  0.4268  0.4080
22530SOL    HW172401   9.590   8.069   5.562 -0.1685  0.5811 -0.4524
22530SOL    HW272402   9.520   7.962   5.481 -0.5115 -0.4864  1.2239
22531SOL     OW72403   0.272   8.118   8.761 -0.7108 -0.6060  0.0689
22531SOL    HW172404   0.297   8.068   8.684  2.6856  1.7941 -0.6076
22531SOL    HW272405   0.217   8.188   8.727  0.1122 -0.0256 -0.1001
22532SOL     OW72406   7.310   4.236   7.236  0.0225 -0.2304  0.1687
22532SOL    HW172407   7.237   4.240   7.174 -1.7503 -0.0752  2.1568
22532SOL    HW272408   7.335   4.143   7.239 -1.8562 -0.7467  1.3368
22533SOL     OW72409   9.338   0.599   8.600 -0.1879 -0.0090 -0.2699
22533SOL    HW172410   9.303   0.645   8.524 -1.0793 -1.0115 -0.5131
22533SOL    HW272411   9.432   0.613   8.597 -0.2461  0.1991 -1.4030
22534SOL     OW72412   0.279   6.082   8.397 -0.1320  0.3776 -0.6229
22534SOL    HW172413   0.256   6.111   8.309  2.7733  1.0717 -1.2316
22534SOL    HW272414   0.368   6.113   8.412 -0.2880 -0.2231  2.3646
22535SOL     OW72415   5.980   2.295   7.637 -0.2300  0.1868 -0.4738
22535SOL    HW172416   5.998   2.355   7.565 -0.7263 -0.8461 -1.4823
22535SOL    HW272417   5.890   2.265   7.622 -0.2061 -0.3451  0.3578
22536SOL     OW72418   0.244  10.163  10.445  0.0989 -0.1151  0.7738
22536SOL    HW172419   0.299  10.117  10.509 -1.7288 -2.3739  0.8618
22536SOL    HW272420   0.240  10.103  10.370  0.2935  1.4367 -0.5179
22537SOL     OW72421   0.630   6.485   6.609 -0.1617  0.0801 -0.0074
22537SOL    HW172422   0.567   6.416   6.591  1.9664 -1.8160 -0.6624
22537SOL    HW272423   0.673   6.458   6.691  0.9076  0.4473 -0.4266
22538SOL     OW72424   7.725   0.745   1.784 -0.3339 -0.3108 -0.6633
22538SOL    HW172425   7.740   0.836   1.758 -0.9573 -0.0755 -0.2240
22538SOL    HW272426   7.655   0.750   1.849 -0.1498 -1.0744 -0.3970
22539SOL     OW72427   9.496   7.558  11.352  0.3396 -0.3193 -0.3414
22539SOL    HW172428   9.520   7.469  11.379 -2.2488 -0.7715  0.7294
22539SOL    HW272429   9.421   7.546  11.295 -0.6830  1.2041  0.6355
22540SOL     OW72430   7.253  10.676  11.455 -0.6507 -0.1654 -0.2885
22540SOL    HW172431   7.240  10.665  11.549 -0.8636 -0.6009 -0.3677
22540SOL    HW272432   7.318  10.747  11.448 -1.1620  0.3533  0.1608
22541SOL     OW72433   2.598   6.707   0.527  0.0357  0.0710  0.0018
22541SOL    HW172434   2.620   6.617   0.503  1.1278  0.5019 -0.6945
22541SOL    HW272435   2.519   6.699   0.580 -1.0936 -1.1302 -1.7571
22542SOL     OW72436   8.784  11.714  10.225  0.1203 -0.3768 -0.8775
22542SOL    HW172437   8.775  11.809  10.230  1.3324 -0.3021  1.9296
22542SOL    HW272438   8.877  11.699  10.206  0.3719 -0.9210  0.5808
22543SOL     OW72439   7.937   8.921  10.694 -0.0855  0.2447 -0.0304
22543SOL    HW172440   8.015   8.902  10.641 -0.0687 -0.5418  0.2735
22543SOL    HW272441   7.911   9.009  10.666 -0.1859 -0.2128 -1.4846
22544SOL     OW72442   6.757   1.373   2.636  0.1347  0.6826 -0.2047
22544SOL    HW172443   6.841   1.420   2.632 -0.1949  1.3757  0.7826
22544SOL    HW272444   6.749   1.332   2.550  1.5242  0.5450 -0.2936
22545SOL     OW72445   8.607   4.835   1.624 -0.1134  0.5153  0.3459
22545SOL    HW172446   8.517   4.860   1.646 -0.3233  0.3541 -0.3266
22545SOL    HW272447   8.612   4.840   1.529  0.6433  0.6797  0.3826
22546SOL     OW72448   0.419  11.211   0.784 -0.1627  0.3239  0.0322
22546SOL    HW172449   0.351  11.214   0.717 -1.1240 -0.7194  0.9252
22546SOL    HW272450   0.376  11.174   0.861  1.8404 -2.2366  0.0878
22547SOL     OW72451  11.097   9.299  11.847 -0.3655 -0.2186 -0.0747
22547SOL    HW172452  11.167   9.355  11.815 -0.7228 -0.0433 -0.5635
22547SOL    HW272453  11.044   9.356  11.903 -0.2076 -0.3127  0.1742
22548SOL     OW72454   0.556   2.341   4.972  0.2686 -0.1593  0.6580
22548SOL    HW172455   0.555   2.389   4.889  0.4806  0.2481  0.8874
22548SOL    HW272456   0.473   2.364   5.014  0.3523 -0.0202  0.7496
22549SOL     OW72457  10.838   7.139   2.877  0.0670  0.2791  0.3712
22549SOL    HW172458  10.926   7.109   2.899  0.6194  1.1089 -0.6357
22549SOL    HW272459  10.817   7.094   2.795 -1.4530 -1.7864  1.7960
22550SOL     OW72460   1.551   5.459   0.942 -0.3835  0.4181 -0.2633
22550SOL    HW172461   1.558   5.518   0.867  1.7092  0.1764 -0.3127
22550SOL    HW272462   1.621   5.487   1.001  1.0035 -2.2690 -0.5121
22551SOL     OW72463   4.818   3.354   9.970  0.8199  0.0233 -0.0012
22551SOL    HW172464   4.760   3.334  10.044  0.2779  0.4117 -0.3154
22551SOL    HW272465   4.772   3.423   9.922  0.7928 -0.7579 -1.1291
22552SOL     OW72466   1.638   7.291   3.355  0.3315 -0.2159  0.2189
22552SOL    HW172467   1.700   7.221   3.334  1.2535  0.2706  1.2123
22552SOL    HW272468   1.554   7.247   3.366  0.4775 -0.8871 -1.1702
22553SOL     OW72469   0.324   3.625   2.951 -0.5891  0.4969  0.1254
22553SOL    HW172470   0.354   3.709   2.916  0.2433  0.2360  0.1929
22553SOL    HW272471   0.295   3.645   3.040 -0.6784  0.7597  0.0397
22554SOL     OW72472   8.709   9.434   1.289  0.1471 -0.2792  0.9711
22554SOL    HW172473   8.650   9.367   1.321 -0.6773  0.4219  0.9543
22554SOL    HW272474   8.760   9.391   1.220 -1.0595 -0.6221  0.2707
22555SOL     OW72475   2.795   8.250   8.316 -0.1588 -0.2102 -0.1897
22555SOL    HW172476   2.871   8.202   8.285  2.2280  3.7258 -1.0868
22555SOL    HW272477   2.810   8.264   8.410 -0.7723 -0.9886  0.0383
22556SOL     OW72478   8.343   7.188   2.415  0.5319  0.1781  0.0166
22556SOL    HW172479   8.331   7.247   2.489 -0.5755  1.0432 -0.8302
22556SOL    HW272480   8.315   7.102   2.447 -0.4612  0.6551  0.4474
22557SOL     OW72481   9.065   5.996   3.189  0.2388 -0.7740  0.7572
22557SOL    HW172482   9.017   6.070   3.226  2.3828  1.2105 -0.2043
22557SOL    HW272483   9.144   6.035   3.150 -0.3880 -3.0163 -3.3256
22558SOL     OW72484  10.813  10.709   3.520 -0.1362  0.4967 -0.0385
22558SOL    HW172485  10.900  10.721   3.558 -0.3889 -0.7059  0.9747
22558SOL    HW272486  10.803  10.783   3.459  2.3138 -0.3065 -1.5675
22559SOL     OW72487   5.862   8.110  10.542  0.5439 -0.3012 -0.0757
22559SOL    HW172488   5.891   8.140  10.456  0.0680  0.5263  0.0410
22559SOL    HW272489   5.778   8.155  10.556 -0.1365 -1.5846  0.1712
22560SOL     OW72490   4.571   9.315   8.880  0.4493 -0.5221  0.8099
22560SOL    HW172491   4.634   9.380   8.849  1.0495 -1.5841 -0.3453
22560SOL    HW272492   4.526   9.357   8.953  0.1965  1.4955 -0.4257
22561SOL     OW72493   8.352   6.025  10.142  0.0540  0.2400  0.1119
22561SOL    HW172494   8.309   6.047  10.225 -0.5066 -1.3029  0.2599
22561SOL    HW272495   8.329   5.934  10.126  0.8941  0.2406 -1.3046
22562SOL     OW72496   9.837  11.510  10.852 -0.1591  0.3064 -0.5495
22562SOL    HW172497   9.886  11.435  10.885 -0.6013  0.3257  0.1601
22562SOL    HW272498   9.756  11.472  10.818 -0.0215  0.3743 -0.9719
22563SOL     OW72499  11.724   8.378   5.735  0.2399  0.0198 -0.0373
22563SOL    HW172500  11.677   8.433   5.671  1.9390  0.9431 -0.5373
22563SOL    HW272501  11.672   8.387   5.815 -1.8056 -0.9633 -1.1560
22564SOL     OW72502   3.356   7.205  12.467 -0.0513  0.0772  0.0304
22564SOL    HW172503   3.352   7.145  12.542 -2.1317  0.2394  0.1188
22564SOL    HW272504   3.445   7.196  12.433 -0.1307 -2.6826  0.3518
22565SOL     OW72505  10.996  10.277   5.467  0.2045 -0.4665  1.2438
22565SOL    HW172506  11.065  10.283   5.401  0.5424 -0.4719  1.5985
22565SOL    HW272507  10.946  10.200   5.441  0.0870 -0.2373  0.7593
22566SOL     OW72508   3.006   4.997   3.404  0.1696  0.0544  0.1733
22566SOL    HW172509   3.099   4.976   3.393  0.9113  2.7076  0.4480
22566SOL    HW272510   3.002   5.048   3.485 -1.2891  1.0797 -0.4863
22567SOL     OW72511   4.571   4.641  11.058  0.2248 -0.3266  0.5458
22567SOL    HW172512   4.652   4.652  11.008 -0.7862 -0.7615 -1.2702
22567SOL    HW272513   4.590   4.570  11.119  0.7718 -1.4794 -0.9051
22568SOL     OW72514  10.611   8.264  12.210 -0.2594 -0.7262  0.3936
22568SOL    HW172515  10.705   8.266  12.197 -0.3984 -0.6752 -0.6802
22568SOL    HW272516  10.589   8.171  12.216 -0.2855 -0.7797 -0.4958
22569SOL     OW72517   5.693  10.120   1.099 -0.1627 -0.2152 -0.1202
22569SOL    HW172518   5.652  10.204   1.080 -1.2865 -0.9977 -1.3724
22569SOL    HW272519   5.780  10.126   1.059  2.0135  2.1997  4.2493
22570SOL     OW72520   2.282  12.567   5.298 -0.5964 -0.0593 -0.6773
22570SOL    HW172521   2.367  12.523   5.293 -0.9638 -0.6826 -2.0063
22570SOL    HW272522   2.230  12.527   5.228 -1.4840  1.3686 -0.8803
22571SOL     OW72523   3.834   5.760   7.714 -0.5194 -0.3697  0.0650
22571SOL    HW172524   3.758   5.811   7.683  1.0300  0.8632 -1.9573
22571SOL    HW272525   3.893   5.756   7.638  2.1241  0.0524  1.9621
22572SOL     OW72526   2.934   8.469   2.228 -0.3420  0.9854 -0.8214
22572SOL    HW172527   2.844   8.464   2.198 -0.8017  1.2951  0.4161
22572SOL    HW272528   2.975   8.389   2.197 -1.3624  0.2981 -0.4504
22573SOL     OW72529  12.519   8.957  10.642 -0.2153 -0.3440  0.2918
22573SOL    HW172530  12.594   8.914  10.683 -0.1515  0.7037  1.2987
22573SOL    HW272531  12.541   9.050  10.643 -0.8475 -0.1624 -0.8413
22574SOL     OW72532   7.893  11.763  10.843 -0.0753 -0.5923 -0.8530
22574SOL    HW172533   7.864  11.692  10.786  0.0070  0.4764 -2.3007
22574SOL    HW272534   7.892  11.841  10.786 -0.8805  0.7083  0.8594
22575SOL     OW72535   7.200   5.918   0.930  0.5165  0.2062 -0.9651
22575SOL    HW172536   7.158   5.920   1.016  0.6870  1.1164 -0.8873
22575SOL    HW272537   7.160   5.991   0.883 -0.6296 -1.1699 -2.1866
22576SOL     OW72538   9.807   3.203   5.196 -0.0027 -0.1372  0.5023
22576SOL    HW172539   9.862   3.279   5.216 -0.5397  0.0060  1.4909
22576SOL    HW272540   9.855   3.129   5.233  0.7638 -0.3651 -0.8962
22577SOL     OW72541   8.622   0.465   1.984 -0.1024 -0.6524  0.5195
22577SOL    HW172542   8.630   0.558   2.008  1.8908 -0.7721  0.5300
22577SOL    HW272543   8.643   0.418   2.064 -1.6929 -1.1573  0.6741
22578SOL     OW72544   2.446   2.357   2.795  0.5218  0.0243  0.6033
22578SOL    HW172545   2.475   2.426   2.735  2.7746 -0.3328  1.1771
22578SOL    HW272546   2.472   2.276   2.752  0.6198 -0.3175  1.2978
22579SOL     OW72547   7.274   6.202  12.366  0.6282  0.3904  0.2734
22579SOL    HW172548   7.253   6.295  12.374 -1.2512  0.1836 -1.3416
22579SOL    HW272549   7.214   6.159  12.427 -0.6354  0.0838 -1.1282
22580SOL     OW72550  10.156   7.243   7.198  0.0612  0.0564 -0.1637
22580SOL    HW172551  10.117   7.329   7.213  0.7234  0.4316 -0.5416
22580SOL    HW272552  10.083   7.182   7.206 -0.7587  0.8074 -1.5692
22581SOL     OW72553  12.572   6.316   0.695  0.1216 -0.2279  0.5486
22581SOL    HW172554  12.528   6.266   0.627 -0.5369 -1.2232  1.6684
22581SOL    HW272555  12.530   6.402   0.692  1.8799  0.6520 -1.9963
22582SOL     OW72556   5.259   3.339   3.035  0.0595  0.2340  0.0182
22582SOL    HW172557   5.295   3.256   3.006  0.9284  0.6681 -0.2001
22582SOL    HW272558   5.247   3.390   2.955 -1.8186 -0.1730 -0.0001
22583SOL     OW72559  11.507   3.601   3.387  0.3205  0.1348 -0.1952
22583SOL    HW172560  11.518   3.537   3.457 -0.5024  0.0038 -0.1855
22583SOL    HW272561  11.571   3.670   3.407  0.4721 -0.1690  0.3706
22584SOL     OW72562   3.019   1.343  11.821  0.0767  0.1991  0.1577
22584SOL    HW172563   2.973   1.262  11.838  1.5230 -0.5550  0.7046
22584SOL    HW272564   2.997   1.400  11.895  0.4538 -0.3517  0.6978
22585SOL     OW72565  10.459   0.674  10.842  0.4592 -0.7251  0.0034
22585SOL    HW172566  10.389   0.690  10.906 -0.2266 -0.1541 -0.8587
22585SOL    HW272567  10.436   0.729  10.768  2.0434 -0.2394 -0.1677
22586SOL     OW72568   9.406  10.633   9.552 -0.2655  0.7307  0.0573
22586SOL    HW172569   9.431  10.541   9.547 -0.9691  0.5535 -0.3878
22586SOL    HW272570   9.348  10.637   9.629 -2.6056  0.1781 -1.5477
22587SOL     OW72571   3.728  12.457   6.929  0.1067 -0.0434  0.2195
22587SOL    HW172572   3.796  12.392   6.942 -0.4396 -0.4468  1.1392
22587SOL    HW272573   3.665  12.416   6.870 -0.8011 -0.8101  1.6673
22588SOL     OW72574  11.655  12.219   3.275 -0.0087 -0.6804  0.2455
22588SOL    HW172575  11.664  12.161   3.351  1.6252  0.0226  0.6300
22588SOL    HW272576  11.726  12.192   3.217  1.6585  1.7290  1.0128
22589SOL     OW72577  12.188   0.302   8.501 -0.2999 -0.2942  0.0495
22589SOL    HW172578  12.219   0.385   8.466 -0.1104 -0.7831 -0.9647
22589SOL    HW272579  12.097   0.296   8.472 -0.4015 -0.3206  0.3635
22590SOL     OW72580   1.462  10.047  12.570 -0.6381  0.3474  0.7204
22590SOL    HW172581   1.487  10.107  12.640  0.4723  0.6327  0.1002
22590SOL    HW272582   1.428  10.104  12.501 -2.1089  0.0382  1.1616
22591SOL     OW72583   7.238   1.554   1.554 -0.3934  0.4230  0.7294
22591SOL    HW172584   7.264   1.462   1.555  1.8341  1.0018  0.3903
22591SOL    HW272585   7.173   1.561   1.624  0.1401 -1.1954  1.4338
22592SOL     OW72586  10.550   1.047   5.237 -0.1850  0.3228 -0.2942
22592SOL    HW172587  10.597   1.123   5.272  0.1268  1.2616 -2.5585
22592SOL    HW272588  10.462   1.054   5.274  0.2082  1.0595  0.5344
22593SOL     OW72589  10.657   7.940  10.628 -0.3222  0.4947  0.5435
22593SOL    HW172590  10.608   8.021  10.611 -0.0380  0.0310 -3.4695
22593SOL    HW272591  10.631   7.881  10.557  0.3519 -2.5882  2.6770
22594SOL     OW72592   5.669   7.077  10.628 -0.0775  0.3845 -0.1955
22594SOL    HW172593   5.605   7.148  10.632  0.8055  1.1543  0.7093
22594SOL    HW272594   5.655   7.028  10.709  0.2412  0.3441 -0.1637
22595SOL     OW72595  11.935   6.142   0.423  0.2598  0.0526  0.2412
22595SOL    HW172596  11.950   6.232   0.395  1.9327  0.3281  1.8073
22595SOL    HW272597  11.990   6.089   0.364  1.7070  0.3891  1.2226
22596SOL     OW72598  12.276   4.714  11.710 -0.0858  0.2745  0.4299
22596SOL    HW172599  12.259   4.637  11.655 -1.5355  0.8970 -0.0286
22596SOL    HW272600  12.306   4.781  11.648 -0.9801  0.7482  0.5082
22597SOL     OW72601   1.019   3.310   4.193  0.2187 -0.0901  0.3828
22597SOL    HW172602   1.059   3.249   4.255 -1.4126  1.1923  2.8368
22597SOL    HW272603   1.051   3.396   4.219 -1.1393  0.5673 -0.0192
22598SOL     OW72604   3.207   2.361   3.120  0.2726  0.2710  0.0428
22598SOL    HW172605   3.200   2.271   3.088 -3.8741  1.0119 -1.7989
22598SOL    HW272606   3.208   2.414   3.040  1.1025  1.9589  1.1175
22599SOL     OW72607   0.867   9.692   0.110 -0.0150 -0.3113  0.2227
22599SOL    HW172608   0.874   9.787   0.105 -3.4834  0.0709  0.2101
22599SOL    HW272609   0.803   9.669   0.042 -0.0391 -2.5337  0.9036
22600SOL     OW72610   9.403   8.821   6.502 -0.3837  0.4131  0.6135
22600SOL    HW172611   9.428   8.742   6.549  1.4225  0.9557  0.6432
22600SOL    HW272612   9.364   8.877   6.570 -3.1398 -0.9795  0.3033
22601SOL     OW72613   8.863   9.478   7.528  0.1913  0.3010 -0.0133
22601SOL    HW172614   8.782   9.439   7.561  0.2271  0.3894  0.1851
22601SOL    HW272615   8.834   9.536   7.457 -0.0674  1.2762  0.8587
22602SOL     OW72616   3.756  10.459   0.074  0.6774 -0.2379  0.0645
22602SOL    HW172617   3.711  10.533   0.034  1.6200  0.0736 -0.4580
22602SOL    HW272618   3.755  10.390   0.007 -0.9354 -1.0317  0.8448
22603SOL     OW72619   1.627  12.121   3.778 -0.1489 -0.4729  0.0425
22603SOL    HW172620   1.704  12.178   3.777 -0.5222  0.1056  1.4310
22603SOL    HW272621   1.628  12.082   3.866  1.0400 -4.0081 -1.3445
22604SOL     OW72622  10.592   4.257   2.306 -0.3190  0.4547 -0.1981
22604SOL    HW172623  10.634   4.179   2.342  1.1963  1.2775 -0.0701
22604SOL    HW272624  10.591   4.320   2.378 -2.2296  0.3329 -0.0728
22605SOL     OW72625   6.047   0.973   3.910 -0.0130  0.1528 -0.1164
22605SOL    HW172626   6.136   0.957   3.940  0.0928  0.0283 -0.4960
22605SOL    HW272627   6.029   0.903   3.848 -0.3047  0.2922 -0.1905
22606SOL     OW72628   0.566   7.713   5.830  0.1732 -0.5243  0.2499
22606SOL    HW172629   0.643   7.683   5.878 -0.8386 -1.3115  1.4583
22606SOL    HW272630   0.532   7.786   5.883 -0.3176 -0.6627  0.1342
22607SOL     OW72631  11.101   2.897   2.296  0.5263 -0.3200 -0.7873
22607SOL    HW172632  11.139   2.830   2.354 -1.0912 -1.3549 -0.8410
22607SOL    HW272633  11.077   2.969   2.354 -1.6434 -1.6006  0.0172
22608SOL     OW72634   5.443   1.873   2.775  0.1041  0.1498 -0.7870
22608SOL    HW172635   5.526   1.912   2.802  0.8937 -2.2965  0.5738
22608SOL    HW272636   5.442   1.884   2.679  2.0298  0.1875 -0.8466
22609SOL     OW72637  11.881   2.433  11.004 -0.0766 -0.0987 -0.0688
22609SOL    HW172638  11.842   2.374  11.069  0.3286  0.1211  0.3790
22609SOL    HW272639  11.976   2.419  11.013 -0.0379 -2.0921 -2.4767
22610SOL     OW72640   2.535   9.843   4.389 -0.2567  0.2538  0.6576
22610SOL    HW172641   2.505   9.864   4.477 -0.1798 -0.3053  0.8200
22610SOL    HW272642   2.607   9.781   4.402  0.5105  1.0433  0.2461
22611SOL     OW72643   6.831   9.166  12.131 -0.1999  0.0911 -0.4480
22611SOL    HW172644   6.754   9.223  12.122  0.0216  0.3332 -0.7930
22611SOL    HW272645   6.881   9.179  12.051 -1.1603 -2.1212 -1.4931
22612SOL     OW72646   7.386   9.914  11.272  0.1458 -0.1105  0.2879
22612SOL    HW172647   7.317   9.926  11.338 -1.7742  1.5013 -1.8389
22612SOL    HW272648   7.413   9.823  11.282 -2.7438 -1.0166  0.8525
22613SOL     OW72649   6.752   3.224   7.710  0.5767 -0.4837  0.0618
22613SOL    HW172650   6.679   3.185   7.759  0.4121  1.2576  1.2954
22613SOL    HW272651   6.722   3.312   7.687  1.1868 -0.7673 -2.0489
22614SOL     OW72652   3.618   3.767   5.312 -0.4593  0.0550  0.3918
22614SOL    HW172653   3.663   3.700   5.262  1.2107 -0.9521  3.0216
22614SOL    HW272654   3.641   3.849   5.269  0.9971 -0.7490 -0.4083
22615SOL     OW72655   9.107   1.755   5.077 -0.9025 -0.2019  0.0878
22615SOL    HW172656   9.170   1.708   5.021 -0.0397 -0.0422  0.8928
22615SOL    HW272657   9.154   1.767   5.159 -1.8301  0.3659  0.5394
22616SOL     OW72658   4.886   3.869   8.210  0.3788 -0.0218 -0.0691
22616SOL    HW172659   4.974   3.904   8.227 -0.0389  0.5406  1.0574
22616SOL    HW272660   4.870   3.809   8.282  0.4557 -1.3881 -1.1495
22617SOL     OW72661   6.350   8.803   1.255  0.2402  0.7048  0.2526
22617SOL    HW172662   6.417   8.871   1.265  0.1472  0.8457 -0.0966
22617SOL    HW272663   6.329   8.803   1.162 -0.2412  0.6548  0.3585
22618SOL     OW72664  12.173  10.252   7.108 -0.1029 -0.0066  0.2222
22618SOL    HW172665  12.122  10.203   7.042  0.0242 -0.8210  0.7156
22618SOL    HW272666  12.194  10.335   7.065 -0.5203 -0.2907 -0.5550
22619SOL     OW72667   4.716   2.398   4.671  0.2571  0.0066 -0.6252
22619SOL    HW172668   4.639   2.360   4.714 -0.6216  1.4670 -0.8241
22619SOL    HW272669   4.686   2.419   4.582  0.7784  0.8338 -0.6176
22620SOL     OW72670   4.256   5.180  12.037 -0.3100 -0.2130  0.1683
22620SOL    HW172671   4.205   5.211  11.962  1.4787  0.2328 -0.9239
22620SOL    HW272672   4.235   5.242  12.107 -0.8570  0.2704 -0.4095
22621SOL     OW72673   5.141   4.039   3.205 -0.6869  0.1816 -0.3255
22621SOL    HW172674   5.202   4.007   3.139 -0.2340 -0.8968  0.5703
22621SOL    HW272675   5.134   3.967   3.268 -1.0201  1.1973  0.8511
22622SOL     OW72676   2.582   9.543   9.134  0.0553  0.2911  0.7913
22622SOL    HW172677   2.533   9.479   9.082  2.2926 -0.7556 -0.1458
22622SOL    HW272678   2.583   9.506   9.222  0.9953 -0.8110  0.3425
22623SOL     OW72679   3.225   1.467   8.094 -0.0153  0.3613 -0.0041
22623SOL    HW172680   3.150   1.508   8.137 -0.0751 -1.1516  1.4205
22623SOL    HW272681   3.186   1.415   8.024 -0.2342  0.1212  0.2940
22624SOL     OW72682   8.820  11.038   6.313  0.0864  0.4432 -0.3036
22624SOL    HW172683   8.885  10.990   6.262  0.3093  0.1465  0.2570
22624SOL    HW272684   8.754  11.065   6.249  1.3481  1.7925 -1.1114
22625SOL     OW72685   1.642  11.730   9.772 -0.3118  0.3150 -0.3511
22625SOL    HW172686   1.590  11.753   9.849 -2.3760  1.5955 -2.0054
22625SOL    HW272687   1.709  11.798   9.766 -0.4424  0.4768  0.0533
22626SOL     OW72688   4.320   8.184   2.191 -0.1734  0.4228 -0.1899
22626SOL    HW172689   4.396   8.235   2.162 -0.2915  0.0421 -1.1883
22626SOL    HW272690   4.298   8.222   2.276  0.0441  1.7159 -0.6869
22627SOL     OW72691   7.571   1.162   6.984 -0.1479  0.0871  0.7357
22627SOL    HW172692   7.622   1.088   7.018  0.9578  0.5659  0.1699
22627SOL    HW272693   7.604   1.237   7.033 -0.5606  0.3621  0.5948
22628SOL     OW72694   4.988  10.952  12.132  0.3617 -0.0488 -0.5863
22628SOL    HW172695   5.061  11.007  12.104 -0.4320  1.3350 -0.0610
22628SOL    HW272696   5.024  10.864  12.136  2.0838  0.6453  0.0058
22629SOL     OW72697  11.211  12.249  12.385  0.1313  1.3495 -0.1583
22629SOL    HW172698  11.259  12.166  12.382  0.2015  1.3534  0.7375
22629SOL    HW272699  11.142  12.239  12.319 -0.6303  0.0983  0.7941
22630SOL     OW72700   9.654   9.572   7.465 -0.3215  0.3044  0.9785
22630SOL    HW172701   9.632   9.503   7.403 -1.1116  0.4094  1.1268
22630SOL    HW272702   9.619   9.540   7.549 -0.2499  0.6590  1.1458
22631SOL     OW72703   3.019  10.907   6.849 -0.3862 -0.0401 -0.4472
22631SOL    HW172704   3.061  10.911   6.763  0.3065  1.5326 -0.0655
22631SOL    HW272705   2.926  10.922   6.830 -0.2805  0.0249 -0.9487
22632SOL     OW72706   6.819   2.538   9.460 -0.0392 -0.1449  0.6675
22632SOL    HW172707   6.914   2.532   9.468  0.0470 -1.5365 -0.7536
22632SOL    HW272708   6.785   2.484   9.531  0.4449 -4.2483 -1.8969
22633SOL     OW72709   6.627   9.739   9.924  0.1454  0.2221 -0.4673
22633SOL    HW172710   6.672   9.799   9.865  0.6817  0.6633  0.3808
22633SOL    HW272711   6.585   9.795   9.989  0.8000 -0.3087  0.4394
22634SOL     OW72712   2.412   0.431   4.245 -0.1268  0.2043 -0.3980
22634SOL    HW172713   2.434   0.474   4.162 -0.2482 -1.1080 -1.1371
22634SOL    HW272714   2.325   0.464   4.266 -0.2112  0.3453 -0.9430
22635SOL     OW72715  10.385   8.601   8.066 -0.7319  0.2691 -0.3011
22635SOL    HW172716  10.310   8.660   8.071  0.1772  1.3339  2.3140
22635SOL    HW272717  10.461   8.659   8.066  0.1516 -0.8423  1.0346
22636SOL     OW72718   6.126   3.413   5.359 -0.2432  0.3364  0.0633
22636SOL    HW172719   6.131   3.443   5.450  0.0043 -0.3104  0.2707
22636SOL    HW272720   6.151   3.490   5.307 -0.4210  0.7201  0.5391
22637SOL     OW72721   8.091   1.583   3.006  0.0854  0.1704 -0.7234
22637SOL    HW172722   8.105   1.503   3.056 -3.0500  1.3344  2.4632
22637SOL    HW272723   8.041   1.555   2.929 -0.4545 -1.0231  0.0401
22638SOL     OW72724  11.924   7.426   1.550  0.8046 -0.0690  0.3202
22638SOL    HW172725  11.891   7.340   1.572 -0.1598  0.4841  1.1221
22638SOL    HW272726  11.911   7.435   1.456  0.9949 -0.8219  0.2210
22639SOL     OW72727  10.538   4.543  10.519 -0.1816  0.5167 -0.6247
22639SOL    HW172728  10.567   4.544  10.610 -1.9220 -1.7805  0.0741
22639SOL    HW272729  10.616   4.523  10.468  0.4538 -0.2448  0.6053
22640SOL     OW72730   3.078   1.952   1.883 -0.0501  0.3534  0.1747
22640SOL    HW172731   3.050   2.041   1.906  0.7822  1.0783 -1.4256
22640SOL    HW272732   3.158   1.938   1.933  1.4834  1.7280 -1.7223
22641SOL     OW72733  12.228   4.681   3.725 -0.2568  0.2303 -0.2665
22641SOL    HW172734  12.292   4.611   3.710  0.5612  0.6607  1.1072
22641SOL    HW272735  12.269   4.759   3.689  0.8060  0.8524  2.1483
22642SOL     OW72736   3.753   8.151   1.550 -0.1691 -0.2544  0.1296
22642SOL    HW172737   3.828   8.210   1.548 -2.4366  2.8148 -0.4203
22642SOL    HW272738   3.729   8.145   1.643 -0.6345  0.7382  0.0899
22643SOL     OW72739  11.412  10.067   5.971 -0.2308 -0.3258 -0.3158
22643SOL    HW172740  11.452  10.063   6.058 -0.9880  0.0461  0.0549
22643SOL    HW272741  11.462  10.135   5.926  0.9497 -1.3363 -0.5934
22644SOL     OW72742   0.134  12.161   3.631 -0.3887 -0.1616  0.0898
22644SOL    HW172743   0.207  12.129   3.579 -0.6859 -1.0043  0.1791
22644SOL    HW272744   0.134  12.106   3.709 -0.7232  0.2644  0.3988
22645SOL     OW72745   7.772   7.006  10.904  0.3637  0.4997 -0.6613
22645SOL    HW172746   7.855   7.049  10.884  0.3370  0.8772  0.0300
22645SOL    HW272747   7.740   7.050  10.983  0.5220 -1.0158  0.2888
22646SOL     OW72748   0.924  11.145   9.121  0.3713 -0.0352  0.0136
22646SOL    HW172749   0.986  11.087   9.076  1.6781 -0.1547  1.8735
22646SOL    HW272750   0.912  11.105   9.207 -2.2322  0.0742 -0.2302
22647SOL     OW72751   9.635   6.228  11.011 -0.1190 -0.0373  1.0457
22647SOL    HW172752   9.707   6.259  11.065  0.4837 -0.3727  0.4540
22647SOL    HW272753   9.643   6.132  11.013 -0.5046 -0.0729  0.9265
22648SOL     OW72754  10.344   7.613   7.176 -0.6889  0.0635 -0.5849
22648SOL    HW172755  10.280   7.651   7.116 -0.0047 -0.7122 -1.8321
22648SOL    HW272756  10.304   7.623   7.263 -1.6843  1.2082 -1.1537
22649SOL     OW72757  10.558   1.513   9.365 -0.0714  0.1626  0.0086
22649SOL    HW172758  10.471   1.476   9.382  0.9005 -1.6374  1.5187
22649SOL    HW272759  10.616   1.437   9.360  1.8110  1.3803  1.6183
22650SOL     OW72760   5.826   7.682   2.959 -0.8789 -0.0125 -0.2725
22650SOL    HW172761   5.914   7.700   2.925 -1.0178  0.1939 -0.5283
22650SOL    HW272762   5.783   7.767   2.961 -0.4125  0.2153  1.7922
22651SOL     OW72763   1.397   5.194   2.512  0.1590  0.5058 -0.0723
22651SOL    HW172764   1.401   5.286   2.538  0.4715  0.8592 -1.2739
22651SOL    HW272765   1.456   5.188   2.437 -1.9797 -0.0237 -1.8349
22652SOL     OW72766   6.366   4.666  10.105  0.4836  0.0498 -0.0619
22652SOL    HW172767   6.361   4.591  10.046  2.3881 -1.5431  1.6273
22652SOL    HW272768   6.451   4.706  10.086  0.0377  1.0012 -0.0784
22653SOL     OW72769   8.868   4.615   1.043 -0.0948  0.4255 -0.2235
22653SOL    HW172770   8.857   4.600   1.136  2.2410  1.3902  0.2938
22653SOL    HW272771   8.858   4.710   1.032 -1.0933  0.2394 -1.1074
22654SOL     OW72772   8.255   4.444   0.361 -0.1433  0.0513 -0.5128
22654SOL    HW172773   8.184   4.382   0.348 -0.9614  1.0922 -1.1571
22654SOL    HW272774   8.334   4.393   0.343 -0.7347 -1.0216 -0.1566
22655SOL     OW72775   8.457   5.923  10.973 -0.1095  0.7154 -0.0302
22655SOL    HW172776   8.404   5.853  11.011  1.1100 -0.8033 -1.0342
22655SOL    HW272777   8.525   5.941  11.038  0.4784 -0.1138 -0.4090
22656SOL     OW72778   0.603   0.030   0.256 -0.1137 -0.2022  0.0385
22656SOL    HW172779   0.667   0.094   0.289 -0.1362  1.0660 -2.1808
22656SOL    HW272780   0.654  -0.049   0.241  0.2825 -0.1849  1.1503
22657SOL     OW72781   3.597   5.735   5.550 -0.0349  0.1055 -0.0846
22657SOL    HW172782   3.682   5.725   5.594  0.3531 -2.0536 -1.2075
22657SOL    HW272783   3.617   5.729   5.457 -1.3608  0.2893 -0.4030
22658SOL     OW72784   4.737   8.110   9.497  0.0858 -0.1409  0.0627
22658SOL    HW172785   4.708   8.116   9.589  1.6860 -2.1891  0.7518
22658SOL    HW272786   4.826   8.076   9.502  0.0621 -0.6707 -2.2883
22659SOL     OW72787   0.574  11.858  12.022 -0.6450  0.2625  0.4006
22659SOL    HW172788   0.510  11.865  11.951 -0.5569 -1.1721  0.1541
22659SOL    HW272789   0.545  11.783  12.073 -0.1226  0.6520  1.2985
22660SOL     OW72790   0.953   6.901   2.891  0.2323 -0.4615  0.4185
22660SOL    HW172791   0.993   6.987   2.906  0.2757 -0.4865  0.4459
22660SOL    HW272792   0.861   6.921   2.871  0.0368 -0.4703  1.2895
22661SOL     OW72793   3.306  11.780   9.037 -0.3671  0.0493 -0.1173
22661SOL    HW172794   3.400  11.769   9.053 -0.4752 -0.7090  0.0461
22661SOL    HW272795   3.299  11.798   8.944 -0.0744 -0.1341 -0.1760
22662SOL     OW72796   9.115   3.981   9.851 -0.3388  0.1318 -0.1174
22662SOL    HW172797   9.026   4.003   9.877 -0.0554  0.2895  0.7259
22662SOL    HW272798   9.168   3.994   9.929  0.4831  0.3337 -0.6907
22663SOL     OW72799   5.566   7.173   9.202  0.0106 -0.1681 -0.0128
22663SOL    HW172800   5.611   7.251   9.170  0.7898 -0.7335 -0.3369
22663SOL    HW272801   5.502   7.152   9.134 -0.4207  0.3727  0.2264
22664SOL     OW72802   9.292   7.617   7.387 -0.8314  0.1773 -0.3354
22664SOL    HW172803   9.232   7.580   7.322 -2.4448  0.0194  1.1636
22664SOL    HW272804   9.245   7.691   7.425  0.8185  1.4167 -0.5792
22665SOL     OW72805   9.396  11.442   3.869  0.0456 -0.0089  0.5042
22665SOL    HW172806   9.354  11.368   3.912 -2.5041  0.5190 -0.8973
22665SOL    HW272807   9.444  11.403   3.795 -1.1336 -0.2969 -0.1230
22666SOL     OW72808   1.743   8.976   7.368  0.0020 -0.3946  0.1487
22666SOL    HW172809   1.764   9.015   7.283 -0.1010  0.9529  0.7076
22666SOL    HW272810   1.812   8.912   7.383  0.0255 -0.6481 -0.9433
22667SOL     OW72811   2.180   2.046   3.421  0.2631 -0.0137 -0.2481
22667SOL    HW172812   2.127   2.048   3.341  1.0964  0.3995 -0.7991
22667SOL    HW272813   2.118   2.022   3.490 -0.1325 -2.1804 -1.2815
22668SOL     OW72814   9.762   5.003  12.124  0.5128  0.0372  0.2361
22668SOL    HW172815   9.680   4.981  12.166 -0.1101  3.5811  1.1980
22668SOL    HW272816   9.738   5.028  12.035  1.0202 -1.7956 -0.4485
22669SOL     OW72817   4.795  12.049   7.262  0.4225 -0.3592  0.0473
22669SOL    HW172818   4.854  12.083   7.330  0.9867 -1.2994  0.0428
22669SOL    HW272819   4.807  11.954   7.265 -1.5065 -0.6374  0.4234
22670SOL     OW72820   9.609   7.922   4.429 -0.2758 -0.5929  0.8580
22670SOL    HW172821   9.645   7.979   4.497 -0.3505 -1.3814  1.5750
22670SOL    HW272822   9.675   7.853   4.417  0.2768  0.1446 -0.7124
22671SOL     OW72823   2.735   8.988   4.955  0.2260  0.2269  0.3236
22671SOL    HW172824   2.680   9.059   4.920 -0.4889 -0.1013  0.7652
22671SOL    HW272825   2.824   9.012   4.928 -0.0271  1.1909  0.2875
22672SOL     OW72826  10.388   4.981  11.896  0.1608 -0.0064 -0.3475
22672SOL    HW172827  10.433   5.065  11.890 -1.3366  0.8675  0.1572
22672SOL    HW272828  10.309   4.992  11.842 -0.9535 -0.4674  1.1289
22673SOL     OW72829   8.632   9.818   8.936 -0.5516 -0.5068  0.0842
22673SOL    HW172830   8.555   9.810   8.879  0.7827  0.1280 -1.9098
22673SOL    HW272831   8.698   9.861   8.881  1.5684 -1.9087  1.4052
22674SOL     OW72832   8.837   2.047   9.967  0.0979  0.1467 -0.2874
22674SOL    HW172833   8.908   1.992  10.000  0.2360 -0.5102 -1.6244
22674SOL    HW272834   8.816   2.011   9.882 -2.9600 -0.7037  0.7045
22675SOL     OW72835   0.337   5.169  12.128 -0.3088 -0.1290  0.4967
22675SOL    HW172836   0.407   5.204  12.072 -0.2210 -1.0731 -0.0079
22675SOL    HW272837   0.363   5.195  12.217  0.0492  0.5649  0.2027
22676SOL     OW72838   5.420   8.697   6.514 -0.4067  0.2108 -0.1961
22676SOL    HW172839   5.450   8.666   6.428  0.0593  0.9589 -0.3108
22676SOL    HW272840   5.325   8.705   6.505 -0.2219  1.7121 -1.1359
22677SOL     OW72841  11.809  10.881   1.675 -0.5225 -0.0191  0.2802
22677SOL    HW172842  11.832  10.896   1.583 -0.1974 -0.7280  0.2416
22677SOL    HW272843  11.826  10.788   1.690 -1.3983 -0.1114  0.8232
22678SOL     OW72844   3.971  12.277   8.970 -0.5764 -0.6327  0.5547
22678SOL    HW172845   3.947  12.188   8.993  0.4291 -0.7934  1.0415
22678SOL    HW272846   4.030  12.305   9.040  0.2912 -0.1210 -0.3430
22679SOL     OW72847   7.684   7.693   6.604  0.0238 -0.2731 -0.0979
22679SOL    HW172848   7.766   7.645   6.596 -0.3896 -0.9281 -0.4615
22679SOL    HW272849   7.707   7.771   6.654  1.3331  0.6829 -2.0581
22680SOL     OW72850   8.650  12.070   2.893  0.3131  0.3336 -0.1295
22680SOL    HW172851   8.632  12.007   2.962 -1.3398  0.3669 -0.4785
22680SOL    HW272852   8.664  12.017   2.814 -0.9583  0.3673 -0.3983
22681SOL     OW72853   3.798   5.813   2.230  0.4369  0.2962 -0.4614
22681SOL    HW172854   3.883   5.797   2.190  1.1898 -0.0631  1.1905
22681SOL    HW272855   3.797   5.907   2.247 -0.1381  0.5528 -1.8277
22682SOL     OW72856  10.679   0.277   8.216  0.4267  0.1412  0.4415
22682SOL    HW172857  10.724   0.344   8.268  0.3296  1.3401 -0.9769
22682SOL    HW272858  10.614   0.240   8.276  1.2421  0.5111  1.5914
22683SOL     OW72859   7.106  11.959   6.311  1.0805  0.6582  0.1002
22683SOL    HW172860   7.015  11.938   6.333  0.1989  1.8979 -2.0007
22683SOL    HW272861   7.128  11.899   6.240  1.1326  1.7104 -0.8130
22684SOL     OW72862   0.475   4.479   4.417  0.7431  0.1561  0.0400
22684SOL    HW172863   0.502   4.424   4.490  1.6445 -0.3112 -0.6181
22684SOL    HW272864   0.431   4.554   4.457  0.4735 -0.5125  1.0024
22685SOL     OW72865   4.234   9.563   7.195  0.3062  0.8756  0.3311
22685SOL    HW172866   4.327   9.581   7.185  0.4160  0.2726  0.2202
22685SOL    HW272867   4.214   9.587   7.286 -0.0249  3.4874 -0.3352
22686SOL     OW72868   0.878   9.006   3.272  0.0512  0.4296 -0.3190
22686SOL    HW172869   0.929   8.976   3.197 -0.3051 -1.2144  0.0579
22686SOL    HW272870   0.816   8.935   3.289 -3.4362  2.8749 -1.6634
22687SOL     OW72871   6.083   3.583   0.967 -0.9090  0.0821 -0.0131
22687SOL    HW172872   6.091   3.546   0.879  0.9106  0.4998 -0.0667
22687SOL    HW272873   6.054   3.673   0.952 -2.5082 -0.3996 -0.0368
22688SOL     OW72874   7.952   2.225   7.753 -0.6561 -0.2624 -0.4522
22688SOL    HW172875   8.046   2.209   7.757 -0.4457  1.0109  0.0777
22688SOL    HW272876   7.941   2.312   7.791 -2.0779 -0.5016 -0.2868
22689SOL     OW72877  12.132   0.493   7.708  0.1552  0.0895  0.6700
22689SOL    HW172878  12.111   0.573   7.660  0.2888 -1.0335 -1.3451
22689SOL    HW272879  12.155   0.524   7.796 -0.6079  2.1706  0.2028
22690SOL     OW72880   0.936   3.439   5.966  0.1230  0.6544 -0.2201
22690SOL    HW172881   0.957   3.406   6.053 -2.0445  0.6187  0.3507
22690SOL    HW272882   0.906   3.529   5.982  0.9469  1.1102 -1.1210
22691SOL     OW72883   4.706   9.263   0.907 -0.1204 -0.1312  0.0506
22691SOL    HW172884   4.785   9.219   0.938 -0.6885 -1.5416 -0.4581
22691SOL    HW272885   4.739   9.337   0.856  0.8395  0.4109  1.3946
22692SOL     OW72886   7.709   6.506   3.736  0.5500 -0.1386  0.3025
22692SOL    HW172887   7.802   6.496   3.754  0.3838 -0.8638  0.7982
22692SOL    HW272888   7.704   6.578   3.672  1.2593  1.6815  2.1894
22693SOL     OW72889   3.559   6.415   4.023 -0.1556 -0.4805  0.8110
22693SOL    HW172890   3.467   6.427   3.998 -0.0101  2.2000  1.3035
22693SOL    HW272891   3.557   6.350   4.092 -1.8467  0.3685  1.6093
22694SOL     OW72892   6.354   4.331   0.798  0.2059  0.2187 -0.4275
22694SOL    HW172893   6.358   4.425   0.779  0.9193 -0.1299 -2.1838
22694SOL    HW272894   6.358   4.289   0.712  0.0088 -1.4313  0.3338
22695SOL     OW72895   3.911   9.769   1.317 -0.5946  0.3329  0.1153
22695SOL    HW172896   3.995   9.726   1.326 -1.4816 -1.3720  0.6732
22695SOL    HW272897   3.859   9.710   1.262 -1.5751  1.1386  0.1307
22696SOL     OW72898  12.019   1.927   0.162  0.1429  0.3427 -0.0130
22696SOL    HW172899  12.032   1.832   0.158 -0.7100 -0.0048  2.9243
22696SOL    HW272900  11.932   1.941   0.127 -0.4339 -0.2368  1.1228
22697SOL     OW72901  11.683  10.938   6.440  0.4787 -0.6961 -0.1429
22697SOL    HW172902  11.736  10.976   6.370  2.1750 -0.9883  0.9229
22697SOL    HW272903  11.663  11.011   6.498 -3.1219  0.0918 -2.1203
22698SOL     OW72904   1.467   3.502   3.993  0.2722 -0.0779  0.1392
22698SOL    HW172905   1.476   3.542   4.080  0.5802  0.7495 -0.2641
22698SOL    HW272906   1.378   3.466   3.993  0.2558 -0.0537  0.7839
22699SOL     OW72907   3.187  11.951  10.554  0.5186 -0.1388 -0.6256
22699SOL    HW172908   3.097  11.966  10.582  0.0494 -0.9896 -1.5891
22699SOL    HW272909   3.228  12.038  10.554 -0.4687  0.3334 -0.7432
22700SOL     OW72910   5.901   3.243   7.433  0.2543 -0.7184 -0.5131
22700SOL    HW172911   5.977   3.210   7.480  0.2396 -0.8309 -0.5690
22700SOL    HW272912   5.836   3.261   7.502  0.6779  0.3160 -0.3625
22701SOL     OW72913  11.756  11.387   4.332  0.2353 -0.2640  0.0310
22701SOL    HW172914  11.755  11.481   4.315 -1.3033 -0.0622  1.0283
22701SOL    HW272915  11.664  11.361   4.334  0.6336 -1.8288 -0.3588
22702SOL     OW72916   3.173   2.782   5.441 -0.2006 -0.1752  0.1568
22702SOL    HW172917   3.229   2.709   5.466 -0.3191 -0.9664 -1.6904
22702SOL    HW272918   3.206   2.857   5.490  0.3164 -1.3166  1.6287
22703SOL     OW72919   9.865   9.673   2.899  0.3784 -0.2419 -0.5054
22703SOL    HW172920   9.781   9.629   2.901  1.3933 -2.2669  1.2557
22703SOL    HW272921   9.846   9.763   2.927 -1.2804 -0.3597 -1.1377
22704SOL     OW72922   5.963  12.616   1.714 -0.0708 -0.1352  0.4504
22704SOL    HW172923   5.947  12.533   1.668 -0.1447 -0.4051  0.9581
22704SOL    HW272924   5.976  12.680   1.644  2.3522 -0.9938 -0.0116
22705SOL     OW72925   3.913  10.872   6.985 -0.2990  0.1364 -0.3047
22705SOL    HW172926   3.837  10.902   7.034 -0.6376  0.9395 -1.2803
22705SOL    HW272927   3.942  10.949   6.936  0.4442 -0.4576 -0.8287
22706SOL     OW72928   8.199   0.655   3.427 -0.6047  0.3729 -0.3244
22706SOL    HW172929   8.207   0.738   3.379 -0.9419  0.6343  0.0684
22706SOL    HW272930   8.280   0.651   3.478  0.1105 -0.2679 -1.4515
22707SOL     OW72931   3.536   5.734   2.241  0.1164 -0.3096 -0.0198
22707SOL    HW172932   3.527   5.741   2.336  1.5825 -1.8066  0.2873
22707SOL    HW272933   3.630   5.748   2.225  0.1685 -1.5781 -1.0500
22708SOL     OW72934  10.386  10.178   4.273  0.2368  0.0924 -0.1776
22708SOL    HW172935  10.352  10.248   4.329 -0.3942  1.3548 -2.0469
22708SOL    HW272936  10.480  10.196   4.267  0.0187  1.0972 -0.9921
22709SOL     OW72937   2.532  10.194  11.380  0.1957 -0.3608  0.0473
22709SOL    HW172938   2.522  10.129  11.311  1.6006 -1.0111  0.4111
22709SOL    HW272939   2.443  10.219  11.404 -0.3228 -0.8888 -1.2739
22710SOL     OW72940   3.157   7.624   9.414 -0.5135 -0.7637 -0.9457
22710SOL    HW172941   3.208   7.582   9.346 -1.3616  0.6595 -2.5391
22710SOL    HW272942   3.205   7.704   9.435 -0.5115 -0.9492 -0.2238
22711SOL     OW72943   1.791  11.306   7.263 -0.0311  0.2262  0.1381
22711SOL    HW172944   1.715  11.364   7.252  0.1119  0.1590 -1.4817
22711SOL    HW272945   1.796  11.290   7.357 -1.1545  1.3982  0.4246
22712SOL     OW72946   5.263   7.796   4.252 -0.0113  0.5100  0.2334
22712SOL    HW172947   5.327   7.857   4.288 -0.4502  1.4457 -0.5352
22712SOL    HW272948   5.189   7.799   4.313  0.6913 -0.6721  1.1953
22713SOL     OW72949   7.468   6.991  11.829 -0.0652  0.0502  0.2434
22713SOL    HW172950   7.553   6.948  11.826 -0.6325 -1.0561 -0.5778
22713SOL    HW272951   7.473   7.049  11.905  2.0118  1.3089 -0.7613
22714SOL     OW72952   8.250   3.472  11.972  0.8053  0.0416 -0.1205
22714SOL    HW172953   8.176   3.516  12.014 -0.6928 -1.9324 -0.5509
22714SOL    HW272954   8.311   3.456  12.044 -1.4625 -2.7669  1.4247
22715SOL     OW72955   7.979  12.271   4.576  0.1105 -0.7977  0.0028
22715SOL    HW172956   8.041  12.238   4.642  1.1794 -3.3254 -2.1216
22715SOL    HW272957   7.893  12.258   4.616  0.6895 -2.8803  0.7077
22716SOL     OW72958   4.101  11.804   6.190 -0.3212  0.1499 -0.2897
22716SOL    HW172959   4.135  11.719   6.220  2.3803  1.1584 -0.1806
22716SOL    HW272960   4.060  11.842   6.267 -0.4411 -0.5390 -0.0067
22717SOL     OW72961   9.190   9.552   5.248 -0.1649  0.0812 -0.2866
22717SOL    HW172962   9.200   9.508   5.163  1.7283  2.8674 -1.6494
22717SOL    HW272963   9.275   9.593   5.264 -1.4339  2.2703  1.3884
22718SOL     OW72964  11.779  10.568   7.658  0.3293 -0.4161 -0.1997
22718SOL    HW172965  11.769  10.473   7.656 -0.3834 -0.3498  0.2014
22718SOL    HW272966  11.809  10.588   7.747 -0.4962 -0.1759  0.0326
22719SOL     OW72967   8.162   2.952   5.499 -0.0610 -0.1075  0.1080
22719SOL    HW172968   8.182   3.036   5.540 -1.9519  0.0963  0.6947
22719SOL    HW272969   8.188   2.887   5.564  0.6197  0.0287 -0.0119
22720SOL     OW72970  11.962   9.793   7.786  0.4467  0.0189  0.5766
22720SOL    HW172971  11.976   9.713   7.837 -1.3361  0.5863  2.0673
22720SOL    HW272972  12.018   9.858   7.829  0.9118 -0.1056  0.1686
22721SOL     OW72973  10.742  11.304  10.309 -0.9500 -0.1868 -0.1537
22721SOL    HW172974  10.729  11.317  10.215  1.2481  1.3972 -0.3246
22721SOL    HW272975  10.781  11.218  10.316  0.3099  0.2995 -0.8924
22722SOL     OW72976   8.101   5.650   6.256  0.2950  0.1153 -0.1495
22722SOL    HW172977   8.190   5.620   6.274  0.6368  0.0622 -1.8080
22722SOL    HW272978   8.097   5.737   6.296  0.4657 -0.6088  1.5397
22723SOL     OW72979   2.153   7.922   2.396 -0.4894  0.1430  0.1093
22723SOL    HW172980   2.075   7.976   2.385 -0.4547 -0.1229 -1.7743
22723SOL    HW272981   2.134   7.842   2.348  0.1648 -0.8129  1.3712
22724SOL     OW72982   1.435   6.195  12.383 -0.1587 -0.5833  0.6024
22724SOL    HW172983   1.484   6.136  12.325 -0.0352  0.2408 -0.1539
22724SOL    HW272984   1.343   6.175  12.364 -0.3362  2.5125 -3.1416
22725SOL     OW72985   0.299   6.896   6.668  0.5810 -0.3551  0.4944
22725SOL    HW172986   0.380   6.853   6.643  1.3602  1.0488  0.4694
22725SOL    HW272987   0.237   6.874   6.598  2.2233  2.1041 -1.9398
22726SOL     OW72988  11.104   7.492   3.054  0.1456  0.7323  0.1556
22726SOL    HW172989  11.038   7.490   2.985 -0.3887  0.0240  0.6751
22726SOL    HW272990  11.059   7.531   3.129  0.3655  0.4019  0.4618
22727SOL     OW72991   6.805   5.457   9.593  0.1911 -0.3125  1.1306
22727SOL    HW172992   6.758   5.447   9.510  0.2769  0.6350  0.9630
22727SOL    HW272993   6.895   5.432   9.573  0.4177  0.8084  0.7018
22728SOL     OW72994  11.660   9.801   5.225 -0.1658  0.4760  0.1716
22728SOL    HW172995  11.611   9.849   5.158  1.1953  0.8932 -0.5631
22728SOL    HW272996  11.593   9.753   5.274 -1.1883 -0.1779 -1.7474
22729SOL     OW72997   2.320   3.004   3.698 -0.8363 -0.5316  0.0055
22729SOL    HW172998   2.347   2.925   3.744 -2.1437 -1.2980 -0.4825
22729SOL    HW272999   2.224   3.004   3.704 -0.8662  1.1593  0.2119
22730SOL     OW73000  12.565   1.154   3.128  0.0703  0.3963  0.2991
22730SOL    HW173001  12.536   1.170   3.218  1.4015  1.0207  0.6449
22730SOL    HW273002  12.496   1.193   3.074 -1.5336 -1.3623  0.9808
22731SOL     OW73003   0.811   9.689   5.342  0.3595 -0.3148  0.5289
22731SOL    HW173004   0.749   9.723   5.406 -0.4346 -2.1893  0.7854
22731SOL    HW273005   0.843   9.768   5.297 -0.9044  0.8301  1.5367
22732SOL     OW73006   4.405   8.130   3.519  0.4727  0.0459  0.3641
22732SOL    HW173007   4.378   8.106   3.608  1.1004 -1.0770  0.2815
22732SOL    HW273008   4.428   8.223   3.525 -1.2403  0.4690  0.9241
22733SOL     OW73009   9.243   9.412  10.711 -0.9522 -0.0110 -0.0063
22733SOL    HW173010   9.225   9.498  10.748  0.2617  0.6127 -0.7909
22733SOL    HW273011   9.268   9.358  10.786 -0.1691  0.7668  0.3150
22734SOL     OW73012   4.715   8.272  10.588 -0.7371  0.3047  0.6336
22734SOL    HW173013   4.720   8.331  10.513 -1.3320  1.4368  1.4523
22734SOL    HW273014   4.806   8.252  10.609 -0.5044  1.2376  0.5619
22735SOL     OW73015   0.552   3.625   5.335 -0.6117 -0.3979 -0.2453
22735SOL    HW173016   0.588   3.687   5.398 -2.5132  2.2222 -1.5611
22735SOL    HW273017   0.471   3.594   5.375 -1.2610  0.4185 -0.9091
22736SOL     OW73018   5.454   0.554   4.795 -0.1656  0.2682  0.7412
22736SOL    HW173019   5.386   0.608   4.836 -0.0447  1.6269 -0.7733
22736SOL    HW273020   5.461   0.588   4.706  0.6009 -1.6562  0.0263
22737SOL     OW73021   5.695   4.437   1.790 -0.0185 -0.0556 -0.0262
22737SOL    HW173022   5.606   4.402   1.786  0.0778 -0.2836 -0.1895
22737SOL    HW273023   5.690   4.518   1.739 -0.2129  0.1113  0.2549
22738SOL     OW73024   1.398   6.564  11.494  0.0333  0.3294 -0.3811
22738SOL    HW173025   1.314   6.524  11.516 -0.5807  1.1565 -1.1673
22738SOL    HW273026   1.441   6.576  11.578 -0.0876 -1.2496 -0.0577
22739SOL     OW73027   3.496   5.604   7.476 -0.0700  0.2576  0.2646
22739SOL    HW173028   3.525   5.680   7.526  0.1895 -0.4048  1.1601
22739SOL    HW273029   3.522   5.529   7.530 -0.7724 -0.4500 -0.3516
22740SOL     OW73030   9.230   9.876   1.499  0.3186 -0.0324  0.2577
22740SOL    HW173031   9.200   9.838   1.581 -0.1661  1.5556  0.8574
22740SOL    HW273032   9.167   9.845   1.434 -0.5361  0.3882  0.8732
22741SOL     OW73033   6.000   1.373   3.356 -0.5116  0.1907 -0.0776
22741SOL    HW173034   5.905   1.363   3.365 -0.3365 -0.7310  0.9388
22741SOL    HW273035   6.011   1.459   3.316 -1.7162  0.9362  1.1237
22742SOL     OW73036   9.096  10.893   0.819 -0.4930 -0.0007  0.1304
22742SOL    HW173037   9.155  10.818   0.814  1.7172  1.6334  0.4510
22742SOL    HW273038   9.137  10.953   0.881 -1.4598  2.0814 -1.1135
22743SOL     OW73039   9.061   0.160   9.610  0.3523  0.0852 -0.0931
22743SOL    HW173040   9.020   0.242   9.637 -3.6039 -0.8180 -2.4649
22743SOL    HW273041   9.025   0.094   9.669  0.2451 -0.4360 -0.7186
22744SOL     OW73042  11.712  12.187   6.560  0.0830 -1.0138 -0.7019
22744SOL    HW173043  11.625  12.173   6.523  0.3228 -1.4507 -1.1162
22744SOL    HW273044  11.725  12.114   6.620  0.6899 -1.7095 -1.6472
22745SOL     OW73045   2.201   3.425   7.115  0.1571 -0.4327 -0.5503
22745SOL    HW173046   2.246   3.496   7.068 -0.0804 -0.7155 -1.2251
22745SOL    HW273047   2.200   3.453   7.206  0.4380  0.2416 -0.7476
22746SOL     OW73048   4.566   5.399  11.941 -0.6433 -0.2283  0.3236
22746SOL    HW173049   4.522   5.341  11.878  1.6358 -0.7135 -0.9258
22746SOL    HW273050   4.645   5.351  11.966  1.0090  2.0146 -0.2537
22747SOL     OW73051   3.675   4.484   9.756  0.0807 -0.4323  0.3052
22747SOL    HW173052   3.685   4.455   9.665 -1.5245 -0.0082 -0.0381
22747SOL    HW273053   3.632   4.569   9.750 -2.6198 -1.6012  1.4855
22748SOL     OW73054   9.939   4.641   1.372 -0.0583 -0.3070  0.2392
22748SOL    HW173055   9.888   4.668   1.449 -1.0517  1.4323 -0.9436
22748SOL    HW273056  10.004   4.710   1.361 -0.5544 -0.0028 -0.9984
22749SOL     OW73057  12.376   2.972   8.714 -0.2296 -0.1748  0.0804
22749SOL    HW173058  12.286   2.942   8.698  0.2047 -1.0691 -0.8360
22749SOL    HW273059  12.427   2.930   8.645  0.8105  0.7846  0.2441
22750SOL     OW73060   7.921   7.172   2.402 -0.0814  0.2137 -0.0880
22750SOL    HW173061   7.956   7.102   2.347 -0.4733  0.2796 -0.4234
22750SOL    HW273062   7.961   7.252   2.367  1.3771  0.0554  1.0938
22751SOL     OW73063   6.690   4.620   3.843 -0.1517  0.7271 -0.3594
22751SOL    HW173064   6.629   4.607   3.770  0.5272 -0.1296 -0.7962
22751SOL    HW273065   6.734   4.535   3.852  0.4738  1.1228  0.4001
22752SOL     OW73066   7.563   4.181   6.048 -0.0171  0.2607  0.1466
22752SOL    HW173067   7.517   4.242   5.991 -2.5223 -0.8514  0.8642
22752SOL    HW273068   7.510   4.178   6.128  2.3381  0.3144  1.8212
22753SOL     OW73069   7.525   0.816   8.876 -0.2645  0.2575  0.4471
22753SOL    HW173070   7.529   0.911   8.862  1.9775  0.1696 -0.0314
22753SOL    HW273071   7.477   0.782   8.801  1.9074  0.7850 -1.2967
22754SOL     OW73072   8.313   3.947   6.758 -0.3068  0.1569  0.2036
22754SOL    HW173073   8.365   3.898   6.694 -1.5789  0.7426 -1.3422
22754SOL    HW273074   8.368   4.022   6.782  0.8764 -0.9702  1.1558
22755SOL     OW73075   2.627   3.085   6.745  0.0610  0.0684 -0.6301
22755SOL    HW173076   2.557   3.127   6.795  0.5203 -0.2253  0.3003
22755SOL    HW273077   2.595   2.996   6.730  0.8426 -0.5938  1.2153
22756SOL     OW73078   1.943   3.783   1.562  0.4099 -0.2073 -0.4788
22756SOL    HW173079   1.998   3.824   1.496 -0.8640 -1.3883 -2.3954
22756SOL    HW273080   1.917   3.855   1.620  0.5282  1.1473 -2.0303
22757SOL     OW73081   2.398  10.825   9.764  0.3836 -0.3346 -0.3113
22757SOL    HW173082   2.367  10.880   9.836  1.4409 -0.4899  0.2867
22757SOL    HW273083   2.383  10.735   9.794  0.2459 -0.3955 -0.5600
22758SOL     OW73084   4.335   4.022   6.586 -0.1154  0.4572  0.1078
22758SOL    HW173085   4.271   3.982   6.528 -0.2727 -0.1357  0.6839
22758SOL    HW273086   4.420   4.003   6.545 -0.3283  2.4507 -1.4155
22759SOL     OW73087   5.301   0.757   9.611  0.1352 -0.2683  0.5433
22759SOL    HW173088   5.328   0.847   9.592 -0.5867  0.5380  2.8731
22759SOL    HW273089   5.206   0.757   9.599  0.1500 -0.7806  0.3845
22760SOL     OW73090  12.503   4.833  10.375  0.4389  0.2979 -0.5769
22760SOL    HW173091  12.555   4.800  10.302  3.2311 -1.6935  2.0969
22760SOL    HW273092  12.557   4.902  10.414 -1.4734  2.0868 -0.8620
22761SOL     OW73093   6.541   9.461   3.687 -0.3112  0.0565  0.0971
22761SOL    HW173094   6.491   9.381   3.668 -0.1823  0.2630 -1.1832
22761SOL    HW273095   6.633   9.432   3.689 -0.2997  0.0933  0.1022
22762SOL     OW73096   3.458   0.471   1.480  0.5625 -0.1005  0.1045
22762SOL    HW173097   3.415   0.444   1.399  0.1258 -0.6569  0.5105
22762SOL    HW273098   3.550   0.483   1.455  0.8760 -2.3335 -0.0628
22763SOL     OW73099   8.976   1.021   5.526 -0.9212  0.1080  0.6814
22763SOL    HW173100   9.039   1.081   5.486 -0.5559  0.4701  1.7465
22763SOL    HW273101   8.956   1.061   5.611 -0.6433 -1.2746  1.4415
22764SOL     OW73102   1.118   2.334   8.703 -0.1483 -0.2451  0.6241
22764SOL    HW173103   1.199   2.353   8.655  0.7521  1.0313  2.4964
22764SOL    HW273104   1.053   2.316   8.635  0.7682  2.4727 -1.1277
22765SOL     OW73105   8.030   5.128  10.400  0.3273  0.7621  0.2267
22765SOL    HW173106   8.119   5.143  10.430  0.2564  0.9886  0.3274
22765SOL    HW273107   8.039   5.062  10.331  0.5307  0.5157  0.4840
22766SOL     OW73108  11.451   8.328   7.933  0.2684 -0.0387 -0.2536
22766SOL    HW173109  11.424   8.248   7.979 -0.6412 -0.2689 -1.1422
22766SOL    HW273110  11.410   8.399   7.982 -0.0447 -0.2227 -0.2431
22767SOL     OW73111   5.306   8.035   2.940 -0.0690 -0.0848  0.4459
22767SOL    HW173112   5.371   8.023   2.870 -0.5845  0.9587 -0.2515
22767SOL    HW273113   5.356   8.030   3.021  0.7656 -0.0095 -0.0535
22768SOL     OW73114   6.539   9.270   4.542  0.7491  0.3082  0.2232
22768SOL    HW173115   6.613   9.268   4.482  0.4852  0.7436 -0.1307
22768SOL    HW273116   6.464   9.242   4.489  0.6640 -0.1477  0.5815
22769SOL     OW73117   8.588   2.083  11.895  0.1568  0.0945  0.0944
22769SOL    HW173118   8.525   2.155  11.903 -1.2812 -1.1242  0.2691
22769SOL    HW273119   8.589   2.042  11.982  1.2907  0.1474  0.1225
22770SOL     OW73120   3.450   2.931   6.335  0.1409 -0.2223  0.2683
22770SOL    HW173121   3.444   3.006   6.276 -0.8678 -0.2812  0.2635
22770SOL    HW273122   3.382   2.946   6.401  0.4551 -0.7422  0.7236
22771SOL     OW73123   1.813   1.143   9.245 -0.4257  0.8428  0.2881
22771SOL    HW173124   1.750   1.084   9.202 -1.5116  0.5049  2.2368
22771SOL    HW273125   1.813   1.222   9.191 -0.4151 -0.1778 -1.2848
22772SOL     OW73126  10.229   9.667   0.531  0.2038 -0.1302  0.4620
22772SOL    HW173127  10.276   9.681   0.449 -0.6732  0.2050  0.0067
22772SOL    HW273128  10.227   9.753   0.573 -0.5534  0.0008  0.1720
22773SOL     OW73129   0.263   4.763   1.842 -0.3068  0.2351  0.2405
22773SOL    HW173130   0.346   4.719   1.820  0.2116  1.3328 -0.0507
22773SOL    HW273131   0.208   4.693   1.876  0.9626 -0.4301  1.0490
22774SOL     OW73132   6.244   5.446   8.122 -0.4661 -0.1456 -0.3529
22774SOL    HW173133   6.292   5.512   8.073 -2.6236  0.3390 -1.9662
22774SOL    HW273134   6.267   5.363   8.081  0.1017 -0.1031 -0.1334
22775SOL     OW73135   5.290   7.638   6.904  0.1294 -0.3940  0.1673
22775SOL    HW173136   5.338   7.708   6.859 -1.5913  0.5734 -0.2556
22775SOL    HW273137   5.321   7.642   6.994  2.5722 -1.4048 -0.5356
22776SOL     OW73138  12.350   4.048   0.672 -0.1975 -0.6559  0.5175
22776SOL    HW173139  12.435   4.041   0.716  0.0989 -1.8697 -0.1916
22776SOL    HW273140  12.347   4.138   0.638 -0.1956  0.1248  2.4723
22777SOL     OW73141  12.039   9.590   9.642  0.2420  0.0757 -0.3115
22777SOL    HW173142  12.014   9.594   9.735  0.0605  0.5013 -0.3749
22777SOL    HW273143  12.118   9.643   9.636  0.9821 -0.9849 -0.1764
22778SOL     OW73144   5.009  11.982   9.780 -0.0035  0.1345  0.5672
22778SOL    HW173145   5.081  12.026   9.736 -0.3971 -0.8180 -1.0900
22778SOL    HW273146   5.026  11.996   9.873  1.0183  1.9305  0.1516
22779SOL     OW73147   5.016  10.316  10.062 -0.2537  0.3058  0.1334
22779SOL    HW173148   5.016  10.318   9.966  2.6141  1.9472  0.0716
22779SOL    HW273149   4.967  10.394  10.087  1.3036  1.4131 -0.1124
22780SOL     OW73150   0.600   7.761   8.897 -0.1595 -0.5909  0.0431
22780SOL    HW173151   0.549   7.778   8.976  1.4081 -0.0677  0.9910
22780SOL    HW273152   0.582   7.835   8.840  0.4132  0.1886  0.8475
22781SOL     OW73153   2.009   0.579   5.718  0.2525 -1.1051  0.2797
22781SOL    HW173154   1.973   0.639   5.784  0.2734 -1.7643  0.9063
22781SOL    HW273155   2.060   0.515   5.769  0.1851 -1.6845 -0.3641
22782SOL     OW73156  10.766  10.089   2.242 -0.8031  0.3492  0.6063
22782SOL    HW173157  10.700  10.029   2.207 -1.6850  1.9066 -0.5525
22782SOL    HW273158  10.821  10.035   2.299 -3.4567 -0.8822  2.1679
22783SOL     OW73159   2.953   2.963   7.870 -0.5488 -0.3632 -0.0160
22783SOL    HW173160   3.023   3.027   7.862  0.7507 -1.6361  0.7862
22783SOL    HW273161   2.873   3.013   7.855  0.3328  1.6732  1.5615
22784SOL     OW73162   4.743  11.225   1.015  0.0713 -0.2446 -0.0368
22784SOL    HW173163   4.694  11.176   0.949  0.5207  0.2856 -0.7782
22784SOL    HW273164   4.686  11.225   1.092 -0.4261 -0.9410 -0.3911
22785SOL     OW73165   3.420   3.202   4.353  0.2975 -0.0987 -0.0441
22785SOL    HW173166   3.330   3.188   4.383  0.5636  0.0475  0.8462
22785SOL    HW273167   3.471   3.209   4.433  0.7825  2.0011 -0.4784
22786SOL     OW73168   3.768   7.289   3.939 -0.4769 -0.3256  0.6902
22786SOL    HW173169   3.800   7.220   3.880 -0.0674  1.2426 -1.0178
22786SOL    HW273170   3.684   7.255   3.971 -1.0655 -1.0020 -1.3462
22787SOL     OW73171   3.213   6.112   7.788  0.1770 -0.3023  0.2204
22787SOL    HW173172   3.169   6.057   7.724 -0.0411 -0.1491  0.2360
22787SOL    HW273173   3.302   6.121   7.755  0.5968 -1.7235  0.8758
22788SOL     OW73174   9.266   5.086   8.012  0.1745 -0.4952  0.2020
22788SOL    HW173175   9.305   5.132   7.938  0.6901  0.8435  1.2722
22788SOL    HW273176   9.241   5.001   7.976  2.2613 -0.6652 -1.0174
22789SOL     OW73177   0.119   0.547   4.086 -0.3865  0.0123  0.2892
22789SOL    HW173178   0.046   0.489   4.105 -1.3044  0.9044 -0.3959
22789SOL    HW273179   0.194   0.488   4.075 -1.6034 -1.2781 -2.0987
22790SOL     OW73180   9.744   1.260   4.782 -0.1119 -0.0867  0.1999
22790SOL    HW173181   9.731   1.298   4.695 -1.7844 -0.4794  0.2431
22790SOL    HW273182   9.672   1.197   4.791 -0.9380  1.0729  2.4662
22791SOL     OW73183   8.649   4.137  12.526  0.4408  0.1463  0.0627
22791SOL    HW173184   8.637   4.229  12.506  0.0303  0.3855  1.3250
22791SOL    HW273185   8.660   4.095  12.441  0.6120  1.3464 -0.5240
22792SOL     OW73186   3.304   0.385   0.318  0.2432 -0.1991 -0.7763
22792SOL    HW173187   3.245   0.316   0.287 -2.8081  1.7853  0.1017
22792SOL    HW273188   3.295   0.454   0.252 -0.2647  1.0201  0.5156
22793SOL     OW73189   4.726   5.323   9.938 -0.3715 -0.5907  0.0913
22793SOL    HW173190   4.749   5.379  10.012 -0.5158 -1.1281  0.5446
22793SOL    HW273191   4.641   5.286   9.961 -0.9216  0.0631 -0.8215
22794SOL     OW73192  11.156   0.208   9.058 -0.5684  0.6144  0.6586
22794SOL    HW173193  11.246   0.224   9.029 -0.3420 -1.4003  0.1313
22794SOL    HW273194  11.158   0.120   9.096 -2.6184 -0.1514 -0.8097
22795SOL     OW73195   2.014   3.570  10.257 -0.3970 -0.9480  0.0470
22795SOL    HW173196   1.983   3.638  10.317 -0.3845 -1.3200  0.4851
22795SOL    HW273197   2.008   3.609  10.170  1.0632  0.1758  0.4083
22796SOL     OW73198   5.798   7.559   7.037  0.1814 -0.0222  0.8304
22796SOL    HW173199   5.832   7.557   7.127 -0.2532  0.1233  0.9962
22796SOL    HW273200   5.877   7.551   6.982  0.4214 -0.4661  1.2248
22797SOL     OW73201  11.387  11.012   7.438  0.1204 -0.2573 -0.0558
22797SOL    HW173202  11.359  10.945   7.501  1.5649  1.2947  2.3864
22797SOL    HW273203  11.358  11.094   7.477  1.5041  0.8067 -1.2001
22798SOL     OW73204   1.455   7.960   1.106  0.1038 -0.4601 -0.4609
22798SOL    HW173205   1.473   7.969   1.200  1.4149  1.2554 -0.8352
22798SOL    HW273206   1.361   7.947   1.101  0.1644 -1.9750  1.1565
22799SOL     OW73207   4.572   4.616   6.700 -0.1776 -0.4035 -0.0540
22799SOL    HW173208   4.488   4.572   6.688 -0.2562 -0.4590  0.6610
22799SOL    HW273209   4.620   4.600   6.618 -1.6953  1.4955 -1.3996
22800SOL     OW73210   8.049   1.166   4.439  0.4527 -0.0530 -0.3567
22800SOL    HW173211   8.049   1.210   4.524  1.0333  0.6131 -0.6985
22800SOL    HW273212   8.079   1.232   4.377  1.3957 -0.9377 -0.8762
22801SOL     OW73213   2.608   6.650  10.038 -0.3252 -0.0100  0.2813
22801SOL    HW173214   2.543   6.582  10.020 -1.0953  0.6062  0.7171
22801SOL    HW273215   2.614   6.655  10.133  2.1618 -1.7410  0.3148
22802SOL     OW73216   9.145  12.483   6.824  0.4762  0.8140  0.1730
22802SOL    HW173217   9.174  12.574   6.824 -0.6818  1.1962 -0.3219
22802SOL    HW273218   9.074  12.480   6.888  0.1306  0.3895 -0.2224
22803SOL     OW73219   7.813  10.189  11.649 -0.0900 -0.0138  0.0203
22803SOL    HW173220   7.769  10.170  11.732  0.8753 -0.0255  0.5364
22803SOL    HW273221   7.894  10.139  11.652 -0.6337 -1.0774 -1.5200
22804SOL     OW73222   1.632   2.316  11.038 -0.0252  0.2447  0.3158
22804SOL    HW173223   1.587   2.401  11.038 -0.1599  0.2007  1.9925
22804SOL    HW273224   1.687   2.318  10.960  0.2217  2.0106  0.4975
22805SOL     OW73225   0.266   7.755   2.220 -0.1859 -0.0247 -0.1726
22805SOL    HW173226   0.180   7.745   2.261 -1.4154  0.4763 -2.4760
22805SOL    HW273227   0.328   7.730   2.289 -2.0518  1.2869  2.1505
22806SOL     OW73228  11.355   9.171   7.250 -0.4904 -0.0935 -0.0770
22806SOL    HW173229  11.279   9.115   7.263  0.8584 -1.8394  0.6748
22806SOL    HW273230  11.322   9.246   7.200 -2.6056 -0.9456 -0.0419
22807SOL     OW73231   8.172   4.121   4.288  0.5480  0.8284 -0.1524
22807SOL    HW173232   8.184   4.026   4.295  1.2399  0.8698 -0.6090
22807SOL    HW273233   8.224   4.145   4.211  2.4246  1.9066  1.3574
22808SOL     OW73234  10.989   7.561  11.859 -0.3748 -0.3393 -0.3635
22808SOL    HW173235  10.916   7.553  11.797  0.6490  0.8237 -1.7615
22808SOL    HW273236  10.948   7.592  11.940 -1.5457 -0.6138 -0.8260
22809SOL     OW73237   7.285  10.010   0.474 -0.0554 -0.3808  0.1107
22809SOL    HW173238   7.373  10.039   0.451  0.0305 -1.9902 -1.9493
22809SOL    HW273239   7.265   9.941   0.410 -2.9224  0.1291  0.3141
22810SOL     OW73240   9.205   6.287   4.858  0.4164 -0.0240  0.1562
22810SOL    HW173241   9.266   6.293   4.784 -0.7863  1.9931 -0.7493
22810SOL    HW273242   9.153   6.367   4.853  0.4467  0.3362  3.3661
22811SOL     OW73243   2.887  12.343   6.903  0.4502  0.2315  1.3173
22811SOL    HW173244   2.982  12.348   6.915  0.6996  1.1601 -0.6402
22811SOL    HW273245   2.861  12.261   6.945  2.0057  0.2740  2.4351
22812SOL     OW73246   4.339   0.824   0.872 -0.2870  0.4194 -0.2257
22812SOL    HW173247   4.363   0.870   0.791  0.1162  0.6305  0.0098
22812SOL    HW273248   4.331   0.893   0.937  2.4430  0.0320  0.6546
22813SOL     OW73249  11.235  10.910  10.400  0.5354  0.3825 -0.2035
22813SOL    HW173250  11.288  10.941  10.473  0.6340  1.1867 -0.6073
22813SOL    HW273251  11.150  10.889  10.438  0.2530  1.7966 -0.0228
22814SOL     OW73252   7.383   4.036  11.801  0.0211  0.0725 -0.0149
22814SOL    HW173253   7.394   3.972  11.872 -0.6630 -0.6794 -0.5680
22814SOL    HW273254   7.307   4.088  11.828  0.0341  0.0761  0.0143
22815SOL     OW73255   7.126  10.219   2.087 -0.0728 -0.3162  0.0110
22815SOL    HW173256   7.221  10.230   2.092  0.2652 -2.2119 -1.2492
22815SOL    HW273257   7.106  10.214   1.994 -1.6822  1.6717  0.1673
22816SOL     OW73258   1.408   3.257   2.608  0.6696 -0.0473  0.0604
22816SOL    HW173259   1.452   3.194   2.550  1.2237 -0.0495  0.4821
22816SOL    HW273260   1.450   3.246   2.693  1.2029  1.3334 -0.0083
22817SOL     OW73261   4.857   1.647   3.712  0.1274 -0.8909  0.3996
22817SOL    HW173262   4.873   1.587   3.785  2.3202 -0.6075  0.2237
22817SOL    HW273263   4.927   1.628   3.650  0.0316  0.8786 -0.3075
22818SOL     OW73264   5.525   9.834   9.528  0.3487  0.8650 -0.5346
22818SOL    HW173265   5.591   9.815   9.594 -0.3117  0.6908  0.0949
22818SOL    HW273266   5.450   9.865   9.578 -1.1920 -1.9419 -0.8939
22819SOL     OW73267   0.919   0.492   4.014  0.0102  0.2752 -0.0069
22819SOL    HW173268   0.844   0.449   3.973 -2.8323  3.2839  1.5525
22819SOL    HW273269   0.932   0.572   3.962  0.1455  1.2644  1.4832
22820SOL     OW73270   5.443   9.897   0.416 -0.4220 -0.1636 -0.1634
22820SOL    HW173271   5.437   9.992   0.430  4.3938  0.2999  0.7152
22820SOL    HW273272   5.425   9.859   0.502 -1.6890 -0.0502 -0.3585
22821SOL     OW73273  12.474   2.852   4.397 -0.1638 -0.2067  0.0305
22821SOL    HW173274  12.498   2.926   4.343 -0.2894  0.9155  1.4465
22821SOL    HW273275  12.467   2.778   4.336  2.0904  0.4407 -1.1066
22822SOL     OW73276   7.370   6.547   2.380  0.1701 -0.2056 -0.8139
22822SOL    HW173277   7.369   6.487   2.455 -0.2555 -3.0952 -2.9220
22822SOL    HW273278   7.441   6.608   2.398  0.3612 -1.0581  1.7183
22823SOL     OW73279   0.269   5.019   2.806  0.4748 -0.2622 -0.5261
22823SOL    HW173280   0.311   5.093   2.849 -0.6055 -1.0329  2.0479
22823SOL    HW273281   0.291   4.944   2.862 -0.0336 -1.5785 -2.0098
22824SOL     OW73282   7.820  12.449  10.110 -0.1935 -0.1006  0.0439
22824SOL    HW173283   7.847  12.428  10.021 -0.1778 -0.6675  0.1767
22824SOL    HW273284   7.900  12.478  10.154  0.0547 -1.0232  0.2180
22825SOL     OW73285   7.957  10.289  12.346 -0.4795  0.2464  0.4920
22825SOL    HW173286   7.886  10.329  12.396 -1.0043  0.9473 -0.7631
22825SOL    HW273287   7.998  10.227  12.407 -0.4641  1.7510  2.0986
22826SOL     OW73288   9.261   1.249   9.581 -0.0483 -0.2789  0.1443
22826SOL    HW173289   9.223   1.162   9.572  0.3553 -0.6000  1.2980
22826SOL    HW273290   9.217   1.287   9.658 -0.5881  0.7444 -0.6408
22827SOL     OW73291   2.562  11.293  12.242  0.7204  0.2702 -0.1907
22827SOL    HW173292   2.651  11.297  12.207  0.6849 -0.3333 -0.3597
22827SOL    HW273293   2.552  11.203  12.272  0.0422  0.2379 -0.5007
22828SOL     OW73294   2.954   7.237   9.105 -0.4864  0.1253  0.6594
22828SOL    HW173295   3.012   7.161   9.095 -0.4646  0.2964 -0.8285
22828SOL    HW273296   3.012   7.312   9.098 -0.7895  0.2900 -0.4007
22829SOL     OW73297  12.323   7.015   4.250  0.1968 -0.4517 -0.2009
22829SOL    HW173298  12.338   6.963   4.172 -1.5201  0.8291 -1.4552
22829SOL    HW273299  12.411   7.042   4.278  1.4212 -5.2263  1.5508
22830SOL     OW73300  11.415   9.886   1.426 -0.1684  0.1706 -0.4250
22830SOL    HW173301  11.484   9.830   1.463 -1.1653 -0.7010  0.1456
22830SOL    HW273302  11.444   9.975   1.446  0.4876 -0.2080  0.3705
22831SOL     OW73303   5.656   9.186   9.468  0.2095 -0.1909  0.4019
22831SOL    HW173304   5.746   9.162   9.445  0.6389  0.2391  1.5550
22831SOL    HW273305   5.653   9.281   9.458  0.3571 -0.0088  1.8154
22832SOL     OW73306   9.655   1.842  11.370 -0.2886  0.3431 -0.6066
22832SOL    HW173307   9.750   1.853  11.369 -0.2469  0.0781  0.0312
22832SOL    HW273308   9.624   1.893  11.295  0.3199  0.7586 -0.5790
22833SOL     OW73309   7.562   5.962   6.859  0.1985 -0.0758  0.2499
22833SOL    HW173310   7.618   5.896   6.899 -0.8268 -0.9224  0.3258
22833SOL    HW273311   7.506   5.993   6.930  0.9995  1.2706  0.3350
22834SOL     OW73312   6.701   3.484   7.664  0.0556  0.1527 -0.1596
22834SOL    HW173313   6.629   3.509   7.606 -0.4878  0.1379  0.4979
22834SOL    HW273314   6.761   3.558   7.661  0.2524 -0.0366 -1.0862
22835SOL     OW73315   2.119   3.516   7.587  0.6702  0.1805 -0.3779
22835SOL    HW173316   2.079   3.601   7.571  1.2217  0.7838  1.1918
22835SOL    HW273317   2.181   3.532   7.659 -2.4765 -2.3395  3.3041
22836SOL     OW73318   7.626   5.324   1.350  0.0213  0.7262 -0.6378
22836SOL    HW173319   7.631   5.389   1.420 -0.8311 -0.9044  1.0278
22836SOL    HW273320   7.544   5.277   1.366  1.6581 -2.2821 -0.2941
22837SOL     OW73321   6.895  12.427   7.285 -0.0419 -0.1348  0.4631
22837SOL    HW173322   6.877  12.340   7.249  0.1599 -0.3540  0.8978
22837SOL    HW273323   6.986  12.424   7.311  0.0112  0.2645  0.3321
22838SOL     OW73324   5.325   5.930   9.643 -0.2358 -0.2834  0.0027
22838SOL    HW173325   5.242   5.956   9.681  1.1076  0.5015  2.5913
22838SOL    HW273326   5.331   5.980   9.561 -1.8555  0.3780  0.2632
22839SOL     OW73327   9.833   8.142   6.114  0.0258  0.1586  0.3496
22839SOL    HW173328   9.875   8.180   6.191 -0.3836  1.2889  0.0414
22839SOL    HW273329   9.741   8.134   6.138  0.1934 -1.1726  0.5963
22840SOL     OW73330  12.221   4.901  10.073  0.8052  0.9412  0.1658
22840SOL    HW173331  12.216   4.950   9.991  0.8399 -0.1180 -0.4767
22840SOL    HW273332  12.230   4.969  10.140 -1.2166  1.9403 -0.4890
22841SOL     OW73333   5.010   2.366   9.957  0.6504  0.2244  0.1910
22841SOL    HW173334   4.980   2.306   9.888 -2.5532  2.7711 -0.8934
22841SOL    HW273335   5.080   2.417   9.916 -0.1911  0.6885 -0.6981
22842SOL     OW73336   7.085   1.827  10.423  0.0811  0.1743  0.6240
22842SOL    HW173337   7.176   1.855  10.436  0.1064 -0.2444  1.3894
22842SOL    HW273338   7.068   1.768  10.496 -0.2298 -1.1573 -0.4848
22843SOL     OW73339   3.862   1.510   6.676  0.1072  0.1338 -0.0024
22843SOL    HW173340   3.901   1.505   6.589  0.0670 -0.0359 -0.0110
22843SOL    HW273341   3.813   1.592   6.675 -0.9809 -0.4994 -0.6022
22844SOL     OW73342   3.645   9.727  10.715  0.5209 -0.0808  0.4331
22844SOL    HW173343   3.716   9.754  10.774  0.1106  0.6291  0.6206
22844SOL    HW273344   3.651   9.789  10.642  0.2908 -0.2196  0.2977
22845SOL     OW73345   9.017  11.594   2.639  0.3283 -0.2715  0.0788
22845SOL    HW173346   8.928  11.560   2.648  0.2054 -0.0002 -0.0910
22845SOL    HW273347   9.023  11.662   2.707 -0.1998  0.9499 -1.0525
22846SOL     OW73348  10.931  10.926  10.089  0.3509 -0.2861  0.3657
22846SOL    HW173349  10.890  10.982  10.024 -0.7006  0.7892  1.8784
22846SOL    HW273350  11.017  10.967  10.105 -0.0158  0.3446  0.7511
22847SOL     OW73351   7.858   5.545   7.979  0.6292  0.2691 -0.0438
22847SOL    HW173352   7.946   5.515   7.955  0.5257  0.7745 -1.0806
22847SOL    HW273353   7.822   5.581   7.899 -0.7846 -0.5212  0.2046
22848SOL     OW73354  10.481   1.651   8.338  0.1541 -0.2307 -0.5633
22848SOL    HW173355  10.402   1.605   8.308 -0.4596 -0.1823  0.8907
22848SOL    HW273356  10.463   1.673   8.430  2.3457 -1.3001  0.1998
22849SOL     OW73357   6.869   3.158   9.455 -0.1783 -0.1552 -0.5709
22849SOL    HW173358   6.954   3.117   9.442  0.1727  1.4587 -4.6945
22849SOL    HW273359   6.889   3.247   9.485 -0.7117 -0.8520  2.1901
22850SOL     OW73360   4.178   8.355   6.897 -0.8580  0.0652 -0.6684
22850SOL    HW173361   4.220   8.435   6.866 -0.0697 -0.3246 -0.6227
22850SOL    HW273362   4.213   8.287   6.839 -0.6816 -0.4089 -0.0051
22851SOL     OW73363   3.392  10.876   6.402  0.1587  0.0326 -0.1600
22851SOL    HW173364   3.324  10.881   6.469 -0.5067 -0.4659 -0.7895
22851SOL    HW273365   3.357  10.923   6.328  1.3402  1.5363  0.1813
22852SOL     OW73366   3.731   3.723   0.623 -0.0398  0.5426  0.1537
22852SOL    HW173367   3.743   3.779   0.700 -0.2154 -1.6399  1.8443
22852SOL    HW273368   3.819   3.692   0.602  0.0069  1.1249 -0.5637
22853SOL     OW73369  11.851  12.300   6.090 -0.4635  0.5390  0.6007
22853SOL    HW173370  11.845  12.366   6.160  1.0827 -0.5536  1.8383
22853SOL    HW273371  11.766  12.302   6.048 -1.0278  2.1282  1.7063
22854SOL     OW73372   9.194   7.553   5.821 -0.1567 -0.1099 -0.4706
22854SOL    HW173373   9.169   7.511   5.904  0.3703  0.8403  0.1778
22854SOL    HW273374   9.158   7.495   5.754  1.3695 -2.1398  0.3666
22855SOL     OW73375   8.751  10.016   7.668 -0.1146  0.3017  0.1064
22855SOL    HW173376   8.825   9.964   7.638  1.0450  0.4908  2.4112
22855SOL    HW273377   8.724  10.065   7.591  2.5135  0.6298 -0.7166
22856SOL     OW73378   3.697   7.719   2.497  0.2466  0.3092  0.4839
22856SOL    HW173379   3.634   7.652   2.471 -0.8119  1.3915  0.2129
22856SOL    HW273380   3.783   7.676   2.487 -0.3615 -0.7452 -0.4264
22857SOL     OW73381   9.558   6.011   2.226  0.1555  0.6313  0.3859
22857SOL    HW173382   9.643   6.051   2.243  1.3063 -1.3266 -0.4592
22857SOL    HW273383   9.499   6.052   2.290  1.5365  2.5507  0.5085
22858SOL     OW73384  10.282   3.411  12.482 -0.0517  0.5973  0.0974
22858SOL    HW173385  10.237   3.436  12.401  0.0590 -1.4086 -0.6473
22858SOL    HW273386  10.359   3.466  12.484 -0.8943  1.8289 -0.2956
22859SOL     OW73387   4.277   6.638   3.571 -0.2999  0.1900  0.3628
22859SOL    HW173388   4.255   6.680   3.488 -1.7977  1.1060  1.1708
22859SOL    HW273389   4.365   6.671   3.591 -0.6038  1.3241 -0.0532
22860SOL     OW73390   5.936   2.497   3.586  0.3296  0.3114  0.4888
22860SOL    HW173391   5.999   2.510   3.514  0.5317  0.2525  0.6540
22860SOL    HW273392   5.920   2.585   3.620 -0.9511  0.5358 -0.6195
22861SOL     OW73393   5.311   6.740   1.838 -0.3505  0.8014 -0.3132
22861SOL    HW173394   5.325   6.775   1.926  0.2123  2.1507 -0.9054
22861SOL    HW273395   5.305   6.817   1.782  0.9876 -0.0304 -1.6967
22862SOL     OW73396   3.290   2.942   5.985 -0.2966  0.1414 -0.3495
22862SOL    HW173397   3.271   2.866   6.041 -1.1364  0.5009 -0.1251
22862SOL    HW273398   3.207   2.990   5.982  0.0796  0.7636 -0.9315
22863SOL     OW73399   4.740   2.955   0.459  0.0161  0.0397  0.2038
22863SOL    HW173400   4.701   2.994   0.537 -1.0077 -1.7608  0.6463
22863SOL    HW273401   4.730   3.022   0.391 -1.5217  0.6149  0.9566
22864SOL     OW73402   8.724  11.592   5.607 -0.4921  0.1104 -0.4048
22864SOL    HW173403   8.699  11.501   5.622 -0.4553 -0.1569 -1.8006
22864SOL    HW273404   8.672  11.642   5.669 -2.4121 -0.6660 -1.3048
22865SOL     OW73405   8.270  11.825  12.266  0.0657 -0.2073  0.0525
22865SOL    HW173406   8.317  11.749  12.301 -0.3206 -0.2392  0.5130
22865SOL    HW273407   8.330  11.863  12.202  0.6860 -0.2893  0.5750
22866SOL     OW73408   7.506   9.279   0.602 -0.3419  0.0378 -0.1110
22866SOL    HW173409   7.485   9.186   0.605 -0.1612 -0.0181 -0.4481
22866SOL    HW273410   7.595   9.282   0.565  0.0378  0.2949  0.8061
22867SOL     OW73411   9.936   9.622  10.488  0.3370  0.0913  0.5139
22867SOL    HW173412   9.949   9.581  10.573  1.9383  1.0541  0.7714
22867SOL    HW273413   9.901   9.709  10.507 -0.9076 -0.2942  0.0853
22868SOL     OW73414   5.816   3.930  11.783  0.0784 -0.0270  0.5268
22868SOL    HW173415   5.751   3.906  11.849  0.2439  1.2893  1.1989
22868SOL    HW273416   5.886   3.867  11.795 -0.6797 -0.9220  0.3841
22869SOL     OW73417   4.847  11.886  11.971  0.5075 -0.2834  0.0546
22869SOL    HW173418   4.829  11.813  11.912 -1.4030  0.1955 -0.0131
22869SOL    HW273419   4.819  11.855  12.057  0.4443  0.0815  0.1676
22870SOL     OW73420   9.051   3.273   7.792  0.1399  0.5724 -0.5484
22870SOL    HW173421   9.029   3.310   7.707  3.3356  1.1306 -1.2394
22870SOL    HW273422   9.033   3.343   7.855 -1.1438  0.5358 -0.8304
22871SOL     OW73423   0.837  11.573  11.082 -0.0951  0.3163  0.4177
22871SOL    HW173424   0.752  11.564  11.126 -1.1138  1.6455 -1.1980
22871SOL    HW273425   0.817  11.614  10.999  2.1018  0.1661 -0.2400
22872SOL     OW73426   9.067  12.387   5.853 -0.2986 -0.1021  0.1265
22872SOL    HW173427   9.065  12.398   5.758  1.3214  0.3044  0.1171
22872SOL    HW273428   9.145  12.433   5.882 -0.4017 -0.7613  1.5950
22873SOL     OW73429   0.732  12.019  12.461  0.0740  0.0479  0.1036
22873SOL    HW173430   0.804  12.072  12.494  0.4426  0.8374 -1.8023
22873SOL    HW273431   0.758  11.928  12.478  1.3729  0.3380 -0.2360
22874SOL     OW73432   6.638   0.292   9.512  0.1817  0.0914  0.0740
22874SOL    HW173433   6.649   0.249   9.427  0.2120 -0.6844  0.4662
22874SOL    HW273434   6.590   0.372   9.492  0.2716 -0.0356 -0.6885
22875SOL     OW73435   4.577   1.480   9.735  0.2992 -0.3518  0.3423
22875SOL    HW173436   4.596   1.397   9.691  0.9898 -1.2297  2.1855
22875SOL    HW273437   4.501   1.462   9.790  0.0532  0.4262  0.2739
22876SOL     OW73438  12.526   2.688   3.754 -0.0661 -0.0949 -0.2034
22876SOL    HW173439  12.529   2.604   3.800 -0.8202  0.2038  0.4338
22876SOL    HW273440  12.543   2.753   3.823 -0.1025  0.3055 -0.5685
22877SOL     OW73441  10.957  12.580   6.501 -0.1128  0.3873  0.3353
22877SOL    HW173442  10.880  12.613   6.455 -1.0747  2.2591  3.0349
22877SOL    HW273443  11.029  12.635   6.469 -1.1006  3.0319  2.2193
22878SOL     OW73444   7.957   4.466  10.443 -0.1943  0.1923 -0.3624
22878SOL    HW173445   8.006   4.411  10.503 -0.4876 -1.1076 -1.2801
22878SOL    HW273446   7.995   4.553  10.454 -0.4955  0.0901  1.9500
22879SOL     OW73447   7.539   1.031   3.243 -0.2730  0.8884 -0.6642
22879SOL    HW173448   7.444   1.044   3.246 -0.6101 -0.9556 -1.5203
22879SOL    HW273449   7.554   0.989   3.158  1.1274 -0.1461  0.0643
22880SOL     OW73450   3.461   1.483   2.145  0.2623  0.3032 -0.1218
22880SOL    HW173451   3.405   1.441   2.211 -0.2032 -0.2934 -0.8828
22880SOL    HW273452   3.431   1.574   2.142 -0.0283  0.2170  0.1463
22881SOL     OW73453   3.852   6.645   8.062 -0.1911  0.1250 -0.2567
22881SOL    HW173454   3.896   6.706   8.121  0.4526  0.6886 -1.3025
22881SOL    HW273455   3.868   6.679   7.974  0.3629 -1.6460 -0.8882
22882SOL     OW73456   4.647  10.732  12.011 -0.2894  0.6318 -0.0054
22882SOL    HW173457   4.711  10.661  11.999 -1.0580 -0.1812  0.5993
22882SOL    HW273458   4.612  10.748  11.924 -1.1950 -0.7905  0.0625
22883SOL     OW73459   7.341   2.954  12.301  0.4882  0.2524  0.3290
22883SOL    HW173460   7.330   3.022  12.368 -1.1729  0.0136  0.3499
22883SOL    HW273461   7.277   2.977  12.234 -1.3306 -2.1470  1.0978
22884SOL     OW73462   9.290   5.519   4.947  0.0067  0.0852 -0.0356
22884SOL    HW173463   9.250   5.596   4.986 -0.4705  0.9333 -2.0520
22884SOL    HW273464   9.217   5.466   4.917  0.3502 -0.6282  0.3662
22885SOL     OW73465   6.272   3.882   2.877  0.1741 -0.3285 -0.3470
22885SOL    HW173466   6.348   3.937   2.858  1.6748 -1.9461  0.6859
22885SOL    HW273467   6.279   3.808   2.817 -1.7387  0.4610 -1.6205
22886SOL     OW73468   2.981   5.980   1.690 -0.0674 -0.0212 -0.4126
22886SOL    HW173469   2.982   5.886   1.673 -1.6416 -0.0807 -0.3182
22886SOL    HW273470   2.902   6.012   1.646  0.4970  1.2918 -0.5449
22887SOL     OW73471   3.184   9.481  12.546  0.3432  0.3044 -0.5843
22887SOL    HW173472   3.113   9.479  12.611  0.1960 -1.1798 -0.7628
22887SOL    HW273473   3.140   9.500  12.463  0.1159 -0.8022 -0.7251
22888SOL     OW73474   0.586   4.679  12.000  0.5354 -0.0482  0.7937
22888SOL    HW173475   0.600   4.585  12.004  0.2416 -0.1517 -0.1677
22888SOL    HW273476   0.633   4.714  12.076  0.0093 -1.0261  1.5876
22889SOL     OW73477   4.722   7.622   6.304 -0.2778 -0.0134 -0.1397
22889SOL    HW173478   4.649   7.573   6.342  1.0283 -1.5357  0.4757
22889SOL    HW273479   4.778   7.555   6.264  0.0240  1.2565 -1.9928
22890SOL     OW73480   1.555   1.209   4.904  0.0446 -0.4080  0.0115
22890SOL    HW173481   1.608   1.199   4.825  0.1876  1.3609 -0.1771
22890SOL    HW273482   1.514   1.295   4.893 -0.6794 -0.5502  1.4316
22891SOL     OW73483  10.709   0.877   6.438 -0.2112  0.1821  0.1722
22891SOL    HW173484  10.698   0.789   6.472 -1.6758  0.8880  1.6593
22891SOL    HW273485  10.656   0.879   6.358 -2.1652  0.3472  1.4024
22892SOL     OW73486   3.315  12.239   3.221  0.4049  0.1333  0.2047
22892SOL    HW173487   3.265  12.295   3.281 -0.0901 -0.9735  0.8449
22892SOL    HW273488   3.368  12.184   3.278  0.6820 -0.2528 -0.4186
22893SOL     OW73489   0.491   6.835   2.212 -0.3864 -0.1361 -0.2272
22893SOL    HW173490   0.488   6.928   2.192 -4.4367 -0.2178 -0.9340
22893SOL    HW273491   0.533   6.794   2.136 -0.3163  0.9394 -0.7752
22894SOL     OW73492   5.309   9.186   0.189 -0.8159  0.8237 -0.4243
22894SOL    HW173493   5.297   9.242   0.266 -0.7732 -1.4458  1.3083
22894SOL    HW273494   5.382   9.227   0.141 -1.1406  2.5278  0.4676
22895SOL     OW73495   4.470  10.713   1.542 -0.6064 -0.5614 -0.3674
22895SOL    HW173496   4.386  10.738   1.581 -0.6992 -0.1013 -0.8453
22895SOL    HW273497   4.469  10.617   1.543 -1.9278 -0.6317 -1.9444
22896SOL     OW73498   1.901   5.008   8.996  0.2101 -0.6442  0.3312
22896SOL    HW173499   1.829   4.988   8.936  1.1693  1.7302 -1.7545
22896SOL    HW273500   1.858   5.046   9.073 -0.8624  3.4257 -1.9931
22897SOL     OW73501  10.010   2.552   9.766 -0.1254  0.4476  0.5537
22897SOL    HW173502   9.955   2.478   9.792  1.6457 -1.1353  0.0437
22897SOL    HW273503  10.036   2.532   9.676 -0.0675  2.0008  0.2034
22898SOL     OW73504   7.822  11.883   9.042  0.8823 -0.1376 -0.5421
22898SOL    HW173505   7.779  11.959   9.002 -0.2680 -1.2369 -1.4913
22898SOL    HW273506   7.776  11.807   9.005  1.5566 -1.2877  0.8737
22899SOL     OW73507   4.687   9.001   0.490  0.1315  0.0102 -0.2327
22899SOL    HW173508   4.756   9.063   0.514 -2.4807  2.8177  0.6396
22899SOL    HW273509   4.683   8.940   0.564  1.9037 -0.5388 -0.5287
22900SOL     OW73510  11.576   4.447   5.260 -0.5582  0.1614  0.1011
22900SOL    HW173511  11.633   4.505   5.209  0.1909 -1.0766 -0.5133
22900SOL    HW273512  11.567   4.491   5.344 -0.6049  1.5190 -0.5732
22901SOL     OW73513   6.156   8.624   8.567  0.1919  0.3258 -0.5182
22901SOL    HW173514   6.177   8.653   8.656 -4.3825  0.3749  0.7788
22901SOL    HW273515   6.170   8.529   8.569  0.9184  0.4283 -0.0680
22902SOL     OW73516   7.057   1.542   1.754 -0.0854  0.2860 -0.4866
22902SOL    HW173517   7.023   1.460   1.787  1.6195 -0.6779 -1.0308
22902SOL    HW273518   6.978   1.594   1.734 -1.1624 -0.7077  1.0132
22903SOL     OW73519   4.882   4.250   8.305 -0.1550  0.0652  0.5681
22903SOL    HW173520   4.915   4.214   8.388  0.2533 -2.0851 -0.4351
22903SOL    HW273521   4.802   4.201   8.288  0.3142 -0.2960 -0.7755
22904SOL     OW73522   9.433   3.075   9.237 -0.3248  0.5161 -0.7036
22904SOL    HW173523   9.504   3.011   9.225 -0.7749 -0.3071  0.7609
22904SOL    HW273524   9.478   3.159   9.242  0.3975  0.1996 -1.4057
22905SOL     OW73525   8.795   1.236  10.800 -0.3651 -0.3136 -0.2121
22905SOL    HW173526   8.699   1.238  10.804 -0.3918 -1.3843  3.0013
22905SOL    HW273527   8.817   1.144  10.786  0.0505 -0.8974  3.3150
22906SOL     OW73528   5.509  11.967   9.472  0.3058 -0.1895  0.3285
22906SOL    HW173529   5.539  12.007   9.554  0.1078 -0.6097  0.6138
22906SOL    HW273530   5.529  11.874   9.483 -0.5133 -0.3813  0.2605
22907SOL     OW73531  11.310   7.652   2.720  0.0445  1.1839  0.3538
22907SOL    HW173532  11.338   7.696   2.801 -0.2284  2.5547 -0.2715
22907SOL    HW273533  11.332   7.714   2.650  2.0527 -0.7578 -0.8650
22908SOL     OW73534   4.625   0.605   0.373 -0.1652  0.2006 -0.0687
22908SOL    HW173535   4.718   0.627   0.369 -0.0897 -0.0508  0.2692
22908SOL    HW273536   4.596   0.607   0.282 -0.2718  2.1277 -0.0309
22909SOL     OW73537   5.570   6.029   3.980  0.1475 -0.0689  0.0075
22909SOL    HW173538   5.567   5.983   4.064 -0.9802  0.5452  0.3221
22909SOL    HW273539   5.488   6.077   3.976  0.5396  0.5468 -1.0996
22910SOL     OW73540   2.283   4.001   6.697 -0.4388 -0.0846 -0.4705
22910SOL    HW173541   2.339   4.076   6.675  0.6286 -0.5236  0.6403
22910SOL    HW273542   2.196   4.039   6.708  0.4097  1.4224  2.0671
22911SOL     OW73543  10.314   5.812   2.616 -0.2406  0.7774  0.0958
22911SOL    HW173544  10.352   5.746   2.559 -1.2024  0.9377 -0.7553
22911SOL    HW273545  10.255   5.862   2.560 -0.4834  1.5616  1.0103
22912SOL     OW73546   6.275   4.102   3.099 -0.2468  0.8951  0.7488
22912SOL    HW173547   6.297   4.048   3.023 -1.3512 -0.2460  1.2052
22912SOL    HW273548   6.356   4.108   3.148 -0.0982 -0.4028  0.6963
22913SOL     OW73549   9.563   0.840   5.768  0.1981 -0.1972 -0.3673
22913SOL    HW173550   9.616   0.841   5.688 -0.3712  0.2020 -0.7491
22913SOL    HW273551   9.579   0.754   5.806  0.8638 -0.2029 -0.6514
22914SOL     OW73552  10.177   2.153   3.495  0.2869  0.7959 -0.3142
22914SOL    HW173553  10.157   2.243   3.520 -1.1899  1.1044 -2.3237
22914SOL    HW273554  10.094   2.106   3.507  1.0228 -0.3237  0.6719
22915SOL     OW73555   3.940   6.505   3.522  0.6921  0.1486  0.1091
22915SOL    HW173556   3.876   6.525   3.454  0.5164 -2.3369 -0.5562
22915SOL    HW273557   3.968   6.591   3.554 -0.8416  1.3590 -1.5533
22916SOL     OW73558   5.238   3.342   9.405  0.0799 -0.1050  0.1536
22916SOL    HW173559   5.168   3.319   9.467 -1.2612 -0.6763 -1.4901
22916SOL    HW273560   5.308   3.280   9.424 -0.9949 -1.4223 -0.0181
22917SOL     OW73561   0.388   3.985   4.360  0.7114  0.3419 -0.6481
22917SOL    HW173562   0.388   3.985   4.456  0.7416  0.8383 -0.6411
22917SOL    HW273563   0.312   4.040   4.337 -0.3882 -1.2431 -0.9358
22918SOL     OW73564   7.007   7.755   0.057  0.0955  0.3695 -0.2682
22918SOL    HW173565   6.936   7.710   0.104 -0.2226  1.2534  0.1335
22918SOL    HW273566   6.977   7.758  -0.034 -0.6582  1.2299 -0.0035
22919SOL     OW73567   6.525   9.236  11.098  0.4599 -0.0562  0.1752
22919SOL    HW173568   6.489   9.153  11.066  1.6411  0.8593 -4.0106
22919SOL    HW273569   6.448   9.292  11.109 -0.0389 -0.4903 -0.9685
22920SOL     OW73570   6.104   6.514  12.143  0.1868 -0.2450  0.8903
22920SOL    HW173571   6.182   6.463  12.164  2.5746  3.1976  1.1811
22920SOL    HW273572   6.081   6.559  12.224 -0.9373  0.2904  0.3157
22921SOL     OW73573   3.958   6.492  10.698 -0.3733  0.4998  0.3513
22921SOL    HW173574   3.942   6.444  10.779  0.7242  0.2567  0.4478
22921SOL    HW273575   3.958   6.425  10.630 -0.2695  0.5583  0.2933
22922SOL     OW73576   1.589   3.252   6.612  0.4703  0.3899  0.1266
22922SOL    HW173577   1.566   3.242   6.520 -0.6441  2.4431  0.1198
22922SOL    HW273578   1.548   3.177   6.656  1.6523 -1.0331 -1.0955
22923SOL     OW73579   0.077   6.557   8.730  0.7386 -0.2204  0.0366
22923SOL    HW173580   0.009   6.624   8.719  0.5953 -0.2724  0.5735
22923SOL    HW273581   0.078   6.511   8.646 -1.2454 -1.4656  0.6106
22924SOL     OW73582   3.787   6.153   2.620  0.1449  0.4223 -0.7100
22924SOL    HW173583   3.770   6.221   2.686 -1.1665 -0.5466  0.0046
22924SOL    HW273584   3.731   6.177   2.546 -0.4290  0.0659 -0.4009
22925SOL     OW73585  11.443   7.931   7.703  0.2813  0.2794 -0.0942
22925SOL    HW173586  11.361   7.882   7.698  1.0076 -1.4764  2.9641
22925SOL    HW273587  11.416   8.021   7.721 -0.9821  0.0682 -0.8495
22926SOL     OW73588   8.250  12.083   2.082 -0.5169  0.3714  0.0269
22926SOL    HW173589   8.311  12.156   2.093 -1.1680  0.8992  0.2091
22926SOL    HW273590   8.224  12.060   2.171  2.0592 -2.1918  0.2672
22927SOL     OW73591  11.811   4.556   7.248  0.3688 -0.4906 -0.6341
22927SOL    HW173592  11.901   4.542   7.218  0.6527  0.0986 -0.0699
22927SOL    HW273593  11.787   4.473   7.290  1.5463  0.1621  1.4410
22928SOL     OW73594   4.576   9.831   2.533 -0.2432  0.1508 -0.2217
22928SOL    HW173595   4.609   9.741   2.527 -3.6815 -1.1638 -2.7286
22928SOL    HW273596   4.606   9.872   2.452  0.9183  1.2268  0.7043
22929SOL     OW73597   2.350   5.236   1.604 -0.0239 -0.1182  0.4066
22929SOL    HW173598   2.320   5.219   1.693  0.3962  1.7406  0.9266
22929SOL    HW273599   2.270   5.236   1.551 -0.4026 -0.0561  0.9774
22930SOL     OW73600   4.795   3.957   8.670  0.2753  0.3384 -0.1962
22930SOL    HW173601   4.811   3.867   8.698  1.1405 -0.1236 -2.0020
22930SOL    HW273602   4.874   3.981   8.623 -0.7731  1.3019 -1.5355
22931SOL     OW73603   4.702   3.542   5.395 -0.0669  0.6025  0.2154
22931SOL    HW173604   4.649   3.493   5.332 -0.4130 -0.3425  1.2126
22931SOL    HW273605   4.719   3.480   5.466  2.1964  0.9621  0.0448
22932SOL     OW73606   1.499   4.178   8.764  0.0842 -0.2066 -0.3979
22932SOL    HW173607   1.484   4.250   8.826 -0.9321 -0.8829  0.1650
22932SOL    HW273608   1.421   4.123   8.772 -0.2473 -0.1343 -2.5274
22933SOL     OW73609   4.824   4.172   3.356  0.5672  0.2576 -0.3248
22933SOL    HW173610   4.821   4.151   3.449 -1.8140  0.2789 -0.3291
22933SOL    HW273611   4.853   4.091   3.314  3.4231  0.7564  0.4916
22934SOL     OW73612   7.741   4.708   9.028  0.0059  0.4731 -0.4812
22934SOL    HW173613   7.680   4.640   9.002  2.0814 -1.5167 -0.4279
22934SOL    HW273614   7.810   4.705   8.962  0.8251  1.5855  0.2854
22935SOL     OW73615   3.892   2.360   7.352  0.1379  0.8542  0.2600
22935SOL    HW173616   3.905   2.349   7.446  2.8167  0.6843 -0.0488
22935SOL    HW273617   3.915   2.452   7.336  1.7731  0.3490 -0.4732
22936SOL     OW73618  11.007   6.295   8.466  0.4713 -0.1836 -0.4248
22936SOL    HW173619  11.054   6.295   8.382 -0.6423  1.4520 -1.0965
22936SOL    HW273620  11.002   6.387   8.491  0.9879 -0.6486  1.6015
22937SOL     OW73621  11.679   2.424   0.605 -0.0741 -0.8895  0.4853
22937SOL    HW173622  11.729   2.360   0.656 -1.4674 -1.1187  1.6670
22937SOL    HW273623  11.642   2.483   0.671 -0.3958 -0.0467 -0.4300
22938SOL     OW73624  10.795   2.603   8.946 -0.9371  0.5147  0.3057
22938SOL    HW173625  10.846   2.572   9.020 -0.3644 -0.1772 -0.3695
22938SOL    HW273626  10.781   2.525   8.892  1.3341  1.5200 -1.9109
22939SOL     OW73627   0.735   3.070   2.048  0.0367  1.5754  1.1540
22939SOL    HW173628   0.801   3.100   2.111 -2.4281  2.7710  3.3981
22939SOL    HW273629   0.654   3.069   2.098 -1.7641  0.5623 -1.5624
22940SOL     OW73630   5.475   5.534   9.042  0.0519 -0.2917 -0.5924
22940SOL    HW173631   5.412   5.603   9.019 -0.0851 -0.0126  0.5893
22940SOL    HW273632   5.558   5.565   9.006 -0.4803 -0.7397 -2.3072
22941SOL     OW73633   4.793   3.815   6.030 -0.1287 -0.3846  0.5500
22941SOL    HW173634   4.819   3.773   5.948  0.7778 -1.2462  1.2752
22941SOL    HW273635   4.729   3.755   6.069  0.4473 -0.6319  1.1210
22942SOL     OW73636   0.824   0.799  10.118 -0.6431  0.4981  0.1737
22942SOL    HW173637   0.880   0.777  10.192 -1.8700  0.6613  1.1780
22942SOL    HW273638   0.864   0.877  10.080 -0.2103  0.6386  0.8968
22943SOL     OW73639   8.575   8.585   7.346 -0.2575  0.2067  0.0308
22943SOL    HW173640   8.530   8.600   7.429  0.3214  0.9320  0.2262
22943SOL    HW273641   8.505   8.586   7.281 -0.5995  0.7611  0.3874
22944SOL     OW73642   6.101   4.925   1.858  0.6760  0.0574  0.2004
22944SOL    HW173643   6.074   4.978   1.933  1.8387  0.5219  0.3229
22944SOL    HW273644   6.048   4.846   1.863  0.6729  0.1213  1.4623
22945SOL     OW73645   0.594   0.871   5.069 -0.3226  0.4182  0.0486
22945SOL    HW173646   0.676   0.840   5.029  0.6292  0.7077  1.6712
22945SOL    HW273647   0.540   0.899   4.995 -0.1173 -2.3732 -1.3210
22946SOL     OW73648   8.786   6.344   8.876  0.2835 -0.3272 -0.0196
22946SOL    HW173649   8.801   6.393   8.957 -2.4196  0.1615  0.3071
22946SOL    HW273650   8.824   6.399   8.807  2.8160 -0.8514  0.8495
22947SOL     OW73651   2.394   4.551  10.045 -0.1784  0.7386  0.1662
22947SOL    HW173652   2.333   4.495  10.093 -0.1519  0.2113 -0.3900
22947SOL    HW273653   2.403   4.508   9.959  0.7147  0.9798  0.1250
22948SOL     OW73654  10.503   2.507   7.302  0.5017  0.7330 -0.2436
22948SOL    HW173655  10.515   2.506   7.207 -1.1143 -1.8500 -0.5244
22948SOL    HW273656  10.559   2.436   7.334 -1.1274 -0.3719  0.3133
22949SOL     OW73657   3.997   3.669  10.874 -0.6487  0.2311 -0.3280
22949SOL    HW173658   4.092   3.683  10.870 -0.5058 -0.1922  1.0016
22949SOL    HW273659   3.983   3.589  10.824 -0.5027  0.9944 -1.6512
22950SOL     OW73660  10.558   1.030   7.058 -0.6293  0.5198 -0.0685
22950SOL    HW173661  10.539   0.958   6.997  1.3386 -0.1552  0.0635
22950SOL    HW273662  10.649   1.052   7.042 -0.6934  1.8233  1.1407
22951SOL     OW73663   4.152  11.683  12.162 -0.1547  0.3625  0.4602
22951SOL    HW173664   4.205  11.734  12.101 -1.4812  0.0667 -1.0155
22951SOL    HW273665   4.124  11.746  12.228  0.7011  0.8596  0.3620
22952SOL     OW73666   0.882   2.959   7.548  0.2930  0.0834 -0.0549
22952SOL    HW173667   0.792   2.938   7.573  0.5402  0.4629  1.2240
22952SOL    HW273668   0.873   3.005   7.464 -0.7992  1.0578  0.5654
22953SOL     OW73669   8.473   6.768   1.658 -0.6552 -1.0110  0.2060
22953SOL    HW173670   8.399   6.799   1.605  0.4429 -1.0328 -1.4167
22953SOL    HW273671   8.461   6.673   1.663 -0.4123 -1.1011 -0.6431
22954SOL     OW73672   5.532   5.015   2.934  0.1993  0.7776  1.0237
22954SOL    HW173673   5.443   4.982   2.943  0.0761  0.6458 -0.3920
22954SOL    HW273674   5.588   4.938   2.948 -0.0403  0.1863 -0.9638
22955SOL     OW73675   2.719   7.080   7.936 -0.6293 -0.1250 -0.6758
22955SOL    HW173676   2.762   7.006   7.894 -1.4861  0.1602 -2.1272
22955SOL    HW273677   2.703   7.141   7.865 -3.3595 -0.1937 -0.2026
22956SOL     OW73678   0.984   2.543  12.130  0.5779 -0.3448 -0.3215
22956SOL    HW173679   0.891   2.533  12.110  0.4393  0.9832 -0.4199
22956SOL    HW273680   1.001   2.637  12.121  1.8550 -0.5209  0.0188
22957SOL     OW73681   5.266   2.275   9.387 -0.3171  0.4555  0.3415
22957SOL    HW173682   5.349   2.237   9.415 -0.4324  0.9627  1.4240
22957SOL    HW273683   5.200   2.210   9.410 -0.2416  0.1205 -0.3734
22958SOL     OW73684   2.112   0.350  10.216 -0.8486 -0.4802  0.0586
22958SOL    HW173685   2.117   0.424  10.155 -0.6304 -0.6925 -0.1804
22958SOL    HW273686   2.103   0.391  10.302  0.5168 -0.1391  0.0646
22959SOL     OW73687   9.825  12.542   3.121 -0.1691 -0.7772 -0.6539
22959SOL    HW173688   9.894  12.608   3.121 -1.3182  0.4468 -0.9358
22959SOL    HW273689   9.838  12.493   3.203  0.0457  0.4690  0.0726
22960SOL     OW73690   0.228  12.398   7.211  0.4973 -0.1110  0.4110
22960SOL    HW173691   0.138  12.432   7.212  0.3696 -0.2792 -1.5801
22960SOL    HW273692   0.222  12.313   7.168  1.2896 -1.3298  2.5393
22961SOL     OW73693   4.107   1.442   8.676  0.0136  0.1167 -0.2544
22961SOL    HW173694   4.066   1.410   8.757  0.3441 -0.9925 -0.5036
22961SOL    HW273695   4.194   1.471   8.703  0.0763 -0.1320 -0.1868
22962SOL     OW73696   7.074   6.578  11.798 -0.3299  0.1852 -0.2733
22962SOL    HW173697   7.113   6.565  11.885  2.4181  0.8786 -1.3055
22962SOL    HW273698   7.046   6.669  11.797  1.1235  0.6623 -0.5889
22963SOL     OW73699   2.141   5.529   1.046 -0.2103  1.0500 -0.3050
22963SOL    HW173700   2.199   5.586   1.096 -0.7528  1.0951  0.2946
22963SOL    HW273701   2.167   5.440   1.070 -0.9024  1.0734  0.5988
22964SOL     OW73702   2.067   4.216   7.919  0.2604  0.4215 -0.2821
22964SOL    HW173703   2.082   4.254   8.005 -1.3626 -0.0597  0.2553
22964SOL    HW273704   2.139   4.155   7.906  1.3052  1.5578  0.0967
22965SOL     OW73705   4.202   6.856  11.278 -0.7222 -0.1981  0.3265
22965SOL    HW173706   4.230   6.853  11.186  1.4131 -1.4784  0.9519
22965SOL    HW273707   4.154   6.774  11.290 -1.1561  0.0525  0.3289
22966SOL     OW73708   4.029   7.947  10.752 -0.2225  0.7914  0.3439
22966SOL    HW173709   3.966   7.999  10.702 -0.9383 -1.2190 -1.0109
22966SOL    HW273710   3.976   7.881  10.796  0.8483 -0.7592 -0.5713
22967SOL     OW73711   9.553   6.670   7.555  0.0362  0.5206 -0.6159
22967SOL    HW173712   9.539   6.616   7.478 -0.1826  0.3315 -0.4440
22967SOL    HW273713   9.572   6.607   7.625  2.2283  0.7540 -0.9221
22968SOL     OW73714   7.490   3.645   4.476 -0.8082 -0.2916  0.1533
22968SOL    HW173715   7.568   3.650   4.421 -1.2056  0.8008 -0.3363
22968SOL    HW273716   7.516   3.591   4.550  0.0759 -0.8554 -0.5468
22969SOL     OW73717  10.980   4.773   8.687 -0.2822  0.3144 -0.3046
22969SOL    HW173718  11.052   4.817   8.733  0.8315 -0.0291 -1.6478
22969SOL    HW273719  10.912   4.764   8.753  1.1600  0.0572  1.2207
22970SOL     OW73720   7.737   9.068   0.874  0.0411 -0.0725  0.3248
22970SOL    HW173721   7.793   9.010   0.925 -0.7798 -0.3952  0.8851
22970SOL    HW273722   7.682   9.111   0.938  0.3494  1.0231 -0.1304
22971SOL     OW73723   0.965   4.218   5.444  0.2796 -0.3149 -0.0183
22971SOL    HW173724   1.001   4.161   5.376 -0.8491 -1.3387  0.2103
22971SOL    HW273725   1.042   4.254   5.488  1.0258 -0.1122 -1.4233
22972SOL     OW73726   8.829   9.291  11.954 -0.6140  0.4157 -0.1977
22972SOL    HW173727   8.834   9.308  12.048 -0.1702  0.3880 -0.2134
22972SOL    HW273728   8.802   9.374  11.916  0.7012  0.8761 -0.1890
22973SOL     OW73729   9.311   8.299  10.040 -0.1415  0.2463  0.2477
22973SOL    HW173730   9.306   8.206  10.019 -0.5003  0.3384 -0.1036
22973SOL    HW273731   9.332   8.302  10.133 -0.5774 -0.1916  0.3677
22974SOL     OW73732   4.611   6.398   8.710 -0.3129 -0.2275 -0.4735
22974SOL    HW173733   4.593   6.395   8.616 -1.3385 -2.1349 -0.2686
22974SOL    HW273734   4.684   6.338   8.722  2.2246  2.6248 -0.4213
22975SOL     OW73735   3.087   8.561   4.942 -0.4328  0.3412 -0.8172
22975SOL    HW173736   3.106   8.494   5.008 -2.6974 -0.0201 -0.4674
22975SOL    HW273737   3.134   8.639   4.974  0.2223 -0.4019  0.0955
22976SOL     OW73738   4.283  10.011  12.549 -0.4439  0.3569  0.6998
22976SOL    HW173739   4.252   9.954  12.620 -2.3487 -0.7236 -0.8822
22976SOL    HW273740   4.238  10.094  12.564 -0.7111  0.1846  0.8684
22977SOL     OW73741   5.210  10.253   4.928 -0.7963 -0.4583  0.2965
22977SOL    HW173742   5.249  10.290   5.008  2.1375 -2.9633  0.2272
22977SOL    HW273743   5.163  10.326   4.889  2.6511  2.6363  1.2949
22978SOL     OW73744   3.019   3.924   5.964  0.3556 -0.1263 -0.6925
22978SOL    HW173745   2.948   3.985   5.944 -1.6598 -2.4437 -1.1266
22978SOL    HW273746   3.055   3.901   5.878  0.3468 -0.3673 -0.6331
22979SOL     OW73747  11.372   4.903   3.447 -0.6031 -0.3533  0.7391
22979SOL    HW173748  11.356   4.977   3.506  0.4910  0.2005  0.3697
22979SOL    HW273749  11.398   4.943   3.365 -0.6050 -1.1474  0.3392
22980SOL     OW73750   5.741   0.689  11.742 -0.4425 -1.1420 -0.7047
22980SOL    HW173751   5.836   0.683  11.749 -0.3161 -0.8861 -2.0047
22980SOL    HW273752   5.719   0.772  11.783  0.0975 -0.3445 -1.9864
22981SOL     OW73753   3.755   4.650   7.355 -0.0157 -0.2943  0.2117
22981SOL    HW173754   3.743   4.736   7.313 -0.8838 -0.3316  0.3490
22981SOL    HW273755   3.739   4.667   7.448 -0.0243 -0.5688  0.2606
22982SOL     OW73756   9.885   9.457   9.988  0.1542  0.4486 -0.5253
22982SOL    HW173757   9.980   9.457   9.997  0.0851 -0.2573  0.2938
22982SOL    HW273758   9.852   9.437  10.076 -0.7289 -0.0064 -0.9448
22983SOL     OW73759   2.349  11.781   7.432  0.7610 -0.2268  0.2405
22983SOL    HW173760   2.286  11.830   7.484  0.0810  1.2679 -1.8625
22983SOL    HW273761   2.432  11.826   7.445  0.2393  1.3037 -1.2709
22984SOL     OW73762   0.637   0.624   1.521 -0.1487  0.3870 -0.6418
22984SOL    HW173763   0.576   0.560   1.557  1.1772  0.0282  1.1030
22984SOL    HW273764   0.587   0.705   1.516 -0.8290  0.0577  0.5720
22985SOL     OW73765   6.598   3.708  12.110  0.0946 -1.3442 -0.5033
22985SOL    HW173766   6.609   3.624  12.064 -0.6250 -1.5395 -0.3275
22985SOL    HW273767   6.506   3.729  12.100  0.6479  0.5164 -2.3816
22986SOL     OW73768   4.395   3.712   9.315  0.5776 -0.0578  0.3699
22986SOL    HW173769   4.342   3.758   9.249 -0.7459 -0.5322  1.0509
22986SOL    HW273770   4.371   3.754   9.398  0.5685 -0.9026  0.8015
22987SOL     OW73771   9.371   2.389  11.671  0.4590 -0.0804  0.2919
22987SOL    HW173772   9.449   2.357  11.717  0.9870 -0.3276 -0.7501
22987SOL    HW273773   9.387   2.484  11.662  0.2217  0.0167  0.8575
22988SOL     OW73774   0.606   5.467   5.650 -0.3763 -0.1862 -0.1099
22988SOL    HW173775   0.512   5.487   5.647 -0.2905  0.6128  1.3325
22988SOL    HW273776   0.617   5.416   5.730  0.4330 -0.1738 -0.2056
22989SOL     OW73777   2.413   3.035   2.868 -0.1882 -0.1651  0.0907
22989SOL    HW173778   2.491   2.986   2.892 -0.2866  0.4463  1.7692
22989SOL    HW273779   2.443   3.125   2.856 -0.7133  0.2270  1.4915
22990SOL     OW73780   1.683   9.288   7.510  0.6023 -0.0177  0.0146
22990SOL    HW173781   1.769   9.247   7.508  0.9787  0.7923 -0.5149
22990SOL    HW273782   1.688   9.351   7.581 -0.1826 -1.2871  1.2503
22991SOL     OW73783   1.563   1.037   5.143  0.4002  0.3399 -0.0968
22991SOL    HW173784   1.587   1.085   5.064  0.4464  0.8159  0.1991
22991SOL    HW273785   1.504   0.969   5.113  0.8085  0.2037 -0.6117
22992SOL     OW73786   4.223   2.443   6.409  0.2239  1.2067  0.4729
22992SOL    HW173787   4.232   2.536   6.431 -2.3604  1.4152  0.9957
22992SOL    HW273788   4.180   2.405   6.486 -2.9562  0.6049 -1.4087
22993SOL     OW73789  12.139   8.868   6.424  0.0229 -0.5429 -0.1853
22993SOL    HW173790  12.143   8.920   6.504  0.4783  0.5131 -0.8693
22993SOL    HW273791  12.072   8.910   6.371  0.2351 -0.7861 -0.6570
22994SOL     OW73792   8.096   8.687   3.130  0.0836  0.7419 -0.1302
22994SOL    HW173793   8.101   8.651   3.042  0.7834  1.0797 -0.2335
22994SOL    HW273794   8.078   8.780   3.117  0.6190  0.8760  0.0720
22995SOL     OW73795   8.580   6.480   2.371 -0.2448 -0.1554  0.3612
22995SOL    HW173796   8.490   6.472   2.404 -0.7671 -0.3972 -1.0416
22995SOL    HW273797   8.576   6.444   2.283  0.5987  2.3877 -0.7994
22996SOL     OW73798   4.688   2.425   6.830 -0.2799 -0.0981 -0.3199
22996SOL    HW173799   4.703   2.350   6.887  0.7291  0.0733 -0.3396
22996SOL    HW273800   4.593   2.432   6.823 -0.3905 -0.8699  0.3422
22997SOL     OW73801   1.872   7.362   6.178 -0.4670 -0.1115 -0.3101
22997SOL    HW173802   1.806   7.364   6.110  1.0994  0.4411 -1.8786
22997SOL    HW273803   1.824   7.336   6.257 -2.4850  0.0738 -1.4091
22998SOL     OW73804  11.821  10.413  11.976 -0.2994 -0.3781  0.7871
22998SOL    HW173805  11.740  10.454  12.006 -1.5990 -0.0703 -2.6679
22998SOL    HW273806  11.881  10.487  11.962 -0.2168 -0.3760  1.1459
22999SOL     OW73807   7.579   2.484   1.238 -0.1722 -0.2645 -0.2769
22999SOL    HW173808   7.579   2.388   1.240 -0.9507 -0.2582  0.0200
22999SOL    HW273809   7.505   2.507   1.183  0.2771  0.1708 -0.7131
23000SOL     OW73810   7.265  10.198   0.106  0.4842 -0.5909 -0.6714
23000SOL    HW173811   7.256  10.268   0.042  3.9854 -0.4749 -1.2453
23000SOL    HW273812   7.266  10.243   0.191  2.0301  0.0476 -0.9951
23001SOL     OW73813   2.862   6.511   4.086 -0.2778  0.5587 -0.3544
23001SOL    HW173814   2.945   6.517   4.039  0.5217  0.8781  1.0226
23001SOL    HW273815   2.860   6.590   4.141 -2.1998  1.3085 -1.4221
23002SOL     OW73816   2.777   2.364  11.994 -0.4706  0.0183  0.0447
23002SOL    HW173817   2.832   2.432  11.955  0.8208 -1.0754 -0.1137
23002SOL    HW273818   2.763   2.392  12.084  1.0322 -0.0427  0.3264
23003SOL     OW73819   1.140   8.963   0.258  0.0776  0.3930  0.5987
23003SOL    HW173820   1.066   8.902   0.251 -0.6223  1.0963  1.5678
23003SOL    HW273821   1.122   9.031   0.193 -1.4545  1.8681  2.4561
23004SOL     OW73822   1.995   9.795   8.872 -0.7939 -0.2494  0.1445
23004SOL    HW173823   1.959   9.742   8.943  0.1291  1.2828  1.8524
23004SOL    HW273824   1.927   9.859   8.853 -0.7209 -0.1485  0.2229
23005SOL     OW73825  10.739   3.458   6.002  0.3745  0.4827  0.1116
23005SOL    HW173826  10.696   3.536   6.039  1.9036  1.2759  0.3199
23005SOL    HW273827  10.679   3.386   6.022 -1.2760  1.6446 -0.4384
23006SOL     OW73828   1.778   0.417  11.056 -0.3890  0.2910 -0.7752
23006SOL    HW173829   1.769   0.347  11.120 -0.4773  0.3088 -0.7687
23006SOL    HW273830   1.723   0.389  10.982 -0.3089  0.2828 -0.8326
23007SOL     OW73831   4.999   5.805   4.504 -0.1125  0.1115  0.3038
23007SOL    HW173832   5.017   5.862   4.579 -2.7147  0.6745  0.6053
23007SOL    HW273833   4.985   5.718   4.544  0.0944  0.0750  0.2948
23008SOL     OW73834   3.270  10.400   1.630 -0.2368  0.2186  0.3260
23008SOL    HW173835   3.217  10.402   1.550 -2.0178  1.2884  1.4485
23008SOL    HW273836   3.292  10.308   1.643 -2.0331 -0.3134 -0.1058
23009SOL     OW73837  11.809   3.204   7.023 -0.2846  0.1058 -0.0481
23009SOL    HW173838  11.886   3.163   6.983  0.0456  1.0141 -0.3788
23009SOL    HW273839  11.798   3.159   7.106  0.0573 -0.6497 -0.4052
23010SOL     OW73840   1.215   5.295   3.349 -0.2822  0.2920 -0.0614
23010SOL    HW173841   1.137   5.339   3.381 -0.1280 -0.2668  1.1420
23010SOL    HW273842   1.191   5.203   3.344  0.4947 -0.0028  1.0660
23011SOL     OW73843  10.898   2.858   9.839  0.0788 -0.8871  0.2082
23011SOL    HW173844  10.903   2.779   9.892  0.1595 -1.1097 -0.1292
23011SOL    HW273845  10.806   2.864   9.813 -0.0565 -0.5155  0.7692
23012SOL     OW73846   1.287  10.214   1.560  0.0820 -0.2027 -0.1405
23012SOL    HW173847   1.201  10.227   1.521 -0.7857 -0.0871  1.6954
23012SOL    HW273848   1.271  10.155   1.634  1.6178 -0.3567  0.0981
23013SOL     OW73849  11.523   0.742   8.461 -0.1573  0.1893 -0.2996
23013SOL    HW173850  11.592   0.684   8.492 -0.3114  1.7205  3.4289
23013SOL    HW273851  11.569   0.823   8.437 -0.4526  0.6471  0.6189
23014SOL     OW73852   2.166   9.220   6.082 -0.2084  0.1554  0.3242
23014SOL    HW173853   2.180   9.163   6.158  1.0083  1.0668  0.8284
23014SOL    HW273854   2.074   9.210   6.060 -0.0061 -2.1119  0.2955
23015SOL     OW73855   1.306   2.020   2.408 -0.3712  0.9535 -0.6010
23015SOL    HW173856   1.238   2.043   2.471  0.2110  2.4891 -0.4775
23015SOL    HW273857   1.375   2.085   2.422 -0.2503  1.4105 -2.8615
23016SOL     OW73858   7.165   6.196   3.603  0.4046  0.4117  0.4424
23016SOL    HW173859   7.187   6.118   3.552  1.5162  1.1117 -0.2146
23016SOL    HW273860   7.070   6.203   3.597  0.4398  0.0583 -0.9604
23017SOL     OW73861   4.354   5.050   3.659 -0.0706 -0.6882  0.3535
23017SOL    HW173862   4.394   5.104   3.590  0.3836  1.0884  1.9026
23017SOL    HW273863   4.271   5.094   3.678  0.2170 -0.6194  1.5113
23018SOL     OW73864   2.023   3.080   8.505 -0.3272 -0.0598  0.0760
23018SOL    HW173865   1.929   3.088   8.522 -0.3605 -1.2427  0.5299
23018SOL    HW273866   2.049   3.002   8.554  0.7263 -0.2312 -0.7390
23019SOL     OW73867   6.070   8.677   2.573  0.4233 -0.5104 -0.1293
23019SOL    HW173868   6.125   8.753   2.591 -0.0204 -0.2963  0.3720
23019SOL    HW273869   6.018   8.666   2.653 -1.0707 -0.0075 -0.9826
23020SOL     OW73870   2.205   2.014   1.382  0.1244 -0.3257  0.3837
23020SOL    HW173871   2.239   2.057   1.304  0.9304 -1.1972  0.2423
23020SOL    HW273872   2.157   2.084   1.429  0.2213  0.3680 -0.5227
23021SOL     OW73873   0.677   5.818  11.880  0.5383  0.0696 -0.9614
23021SOL    HW173874   0.671   5.860  11.794 -3.4524  0.1268 -0.8323
23021SOL    HW273875   0.696   5.889  11.941 -2.3779  1.1950 -1.2134
23022SOL     OW73876   8.362  10.529   5.507  0.2995 -0.3941  0.0631
23022SOL    HW173877   8.299  10.458   5.494  0.6678 -1.1864  2.2106
23022SOL    HW273878   8.425  10.494   5.570  1.6838  1.1261 -0.4205
23023SOL     OW73879  10.996   9.157  10.773  0.2634 -0.0762 -0.0576
23023SOL    HW173880  10.993   9.252  10.761 -1.2623  0.1026  1.4110
23023SOL    HW273881  10.956   9.122  10.693 -0.7503  0.6129  0.1245
23024SOL     OW73882   7.475   4.398   6.764 -0.1063 -0.0315  0.0528
23024SOL    HW173883   7.474   4.399   6.860  0.1322 -0.1009  0.0549
23024SOL    HW273884   7.525   4.319   6.742 -1.4545 -0.8780 -0.1197
23025SOL     OW73885  10.816   9.512  10.991 -0.0786 -0.2658  0.6516
23025SOL    HW173886  10.747   9.523  11.056 -1.8696 -1.1138 -1.0190
23025SOL    HW273887  10.772   9.516  10.907  2.1892  0.9161 -0.5849
23026SOL     OW73888   8.560   5.205   2.637 -0.1286  0.5514 -0.6039
23026SOL    HW173889   8.623   5.189   2.708 -0.0258 -0.5019 -0.9085
23026SOL    HW273890   8.571   5.297   2.615  1.9689  0.2070 -1.2473
23027SOL     OW73891  10.174  12.287   7.173 -0.5813  0.5854 -0.0273
23027SOL    HW173892  10.128  12.363   7.137  0.3597  0.2118 -2.1866
23027SOL    HW273893  10.121  12.212   7.145  0.1200  0.2932 -0.6165
23028SOL     OW73894   7.145   3.060   9.471  0.3791  0.6890 -0.1386
23028SOL    HW173895   7.197   2.998   9.524  0.7649 -0.8783 -2.2075
23028SOL    HW273896   7.179   3.049   9.382 -4.7293 -2.0666 -2.1438
23029SOL     OW73897   9.796   0.671   6.244 -0.2922  0.4612  0.0782
23029SOL    HW173898   9.877   0.622   6.258 -0.9692 -0.5441  0.6275
23029SOL    HW273899   9.762   0.640   6.161  0.4193  1.6855 -0.6994
23030SOL     OW73900   3.061  10.547   4.976 -0.4163 -0.5029  0.2860
23030SOL    HW173901   3.009  10.490   5.032  1.7535 -1.4012  1.5308
23030SOL    HW273902   3.151  10.517   4.988  0.7611  2.6611  0.3706
23031SOL     OW73903  11.042   4.410   8.244 -0.5913  0.2582  0.2148
23031SOL    HW173904  11.082   4.490   8.211  0.0400 -0.0066  0.3310
23031SOL    HW273905  11.114   4.347   8.249 -0.9794 -0.1596  0.6260
23032SOL     OW73906  11.993   3.904   7.580 -0.2706  0.3451  0.1415
23032SOL    HW173907  12.039   3.884   7.661 -1.7079  0.4627  1.0120
23032SOL    HW273908  11.947   3.823   7.558  0.5501  0.1334 -0.8843
23033SOL     OW73909  10.785   4.578   0.183  0.0470  0.5736  0.0236
23033SOL    HW173910  10.740   4.657   0.152  0.7622  0.3787 -1.6398
23033SOL    HW273911  10.875   4.589   0.153  0.2938 -0.6006  0.2842
23034SOL     OW73912  11.535  10.074   5.515  0.2124 -0.0604  0.2453
23034SOL    HW173913  11.533  10.170   5.523 -0.7225 -0.0239 -0.2155
23034SOL    HW273914  11.608  10.055   5.457  0.0895  0.4123 -0.0659
23035SOL     OW73915  11.735  11.798  10.740 -0.0418  0.2782  0.1718
23035SOL    HW173916  11.773  11.869  10.689 -1.1377  1.0213  0.3660
23035SOL    HW273917  11.661  11.838  10.785  0.0667 -0.6932  1.2564
23036SOL     OW73918   4.298   3.845   6.840 -0.2968 -0.4745  0.0942
23036SOL    HW173919   4.388   3.815   6.852 -0.4197 -1.1238 -0.5516
23036SOL    HW273920   4.305   3.918   6.779  0.2125  2.1591  3.0135
23037SOL     OW73921   7.341  11.540   2.441 -0.0591 -0.4123 -0.2819
23037SOL    HW173922   7.290  11.467   2.405 -0.4342 -0.7877  0.9452
23037SOL    HW273923   7.379  11.505   2.522  0.0505  0.6373  0.1395
23038SOL     OW73924   3.658  10.862   4.809 -0.0378  0.2032  0.3231
23038SOL    HW173925   3.612  10.941   4.783  2.3584  1.9741  1.0735
23038SOL    HW273926   3.593  10.811   4.858 -1.2737  2.4433  1.1864
23039SOL     OW73927  10.104   0.446  11.209  0.0765  0.0686 -0.3135
23039SOL    HW173928  10.041   0.453  11.280  0.8156  0.8141  0.2890
23039SOL    HW273929  10.165   0.518  11.223  0.4172  0.0462 -1.5307
23040SOL     OW73930   0.693   4.150   2.527 -0.7487 -0.0273 -0.5957
23040SOL    HW173931   0.643   4.082   2.572  0.9473  0.4349  2.2555
23040SOL    HW273932   0.722   4.109   2.446 -4.6273 -0.6787 -1.8585
23041SOL     OW73933   2.461  11.005  12.283 -0.0872  0.0584 -0.0326
23041SOL    HW173934   2.449  10.918  12.244  1.5721 -0.2303  0.0323
23041SOL    HW273935   2.493  10.987  12.371  1.0600  0.7159 -0.2991
23042SOL     OW73936   0.410   4.568   7.175 -0.4927  0.4700  0.0273
23042SOL    HW173937   0.355   4.645   7.158  0.4802  0.8444 -1.6597
23042SOL    HW273938   0.371   4.499   7.123 -0.0835  0.4214 -0.2215
23043SOL     OW73939   9.480  10.507  10.058  0.1751 -0.0878  0.1663
23043SOL    HW173940   9.544  10.571  10.024 -0.2388 -0.9571 -2.4952
23043SOL    HW273941   9.533  10.434  10.090  0.5666 -0.0830 -0.4616
23044SOL     OW73942   1.344  12.535   9.732 -0.1425 -0.2231  0.6921
23044SOL    HW173943   1.387  12.502   9.653 -0.6168 -0.8202  0.6758
23044SOL    HW273944   1.254  12.502   9.726 -0.0021 -0.8715  1.8288
23045SOL     OW73945   7.887   7.792   0.878  0.6028  0.0806  0.8957
23045SOL    HW173946   7.797   7.775   0.850  0.4713  1.1071  0.6765
23045SOL    HW273947   7.878   7.843   0.958  0.9773  1.4144  0.1121
23046SOL     OW73948   7.769   5.442   8.795  0.5603  0.5252  0.0871
23046SOL    HW173949   7.696   5.497   8.824 -0.0574 -0.4703  0.4626
23046SOL    HW273950   7.738   5.352   8.809  1.6301  0.0838 -0.3205
23047SOL     OW73951   7.215   2.446   4.573  0.0974  0.1310 -1.0337
23047SOL    HW173952   7.212   2.528   4.622  2.8634 -0.3691  0.1863
23047SOL    HW273953   7.187   2.469   4.485 -0.2575  2.1307 -0.4410
23048SOL     OW73954  11.625   4.838   4.298 -0.4485  0.0399 -0.2972
23048SOL    HW173955  11.573   4.831   4.378 -1.9692  0.3932 -1.2051
23048SOL    HW273956  11.716   4.840   4.328 -1.0164  1.5588  1.5034
23049SOL     OW73957   0.240   9.845   9.570 -0.5917  0.0457 -0.5669
23049SOL    HW173958   0.250   9.851   9.665 -3.0989  1.0182 -0.2639
23049SOL    HW273959   0.311   9.897   9.534  0.4300 -0.3926  0.7588
23050SOL     OW73960   7.417   4.726  11.608  0.1620 -0.1302  0.2392
23050SOL    HW173961   7.403   4.797  11.671 -0.3464  0.5734 -0.6563
23050SOL    HW273962   7.509   4.703  11.619  1.0785  2.4386 -1.2352
23051SOL     OW73963  10.739  10.427  12.416 -0.2038  0.3312 -0.8979
23051SOL    HW173964  10.827  10.388  12.414 -0.7103 -0.9825  0.5490
23051SOL    HW273965  10.731  10.473  12.332  2.0899  1.0050 -0.8113
23052SOL     OW73966   9.430   3.017   7.636  0.2904 -0.6946  0.2108
23052SOL    HW173967   9.508   3.070   7.621 -0.2665  0.2909  0.6550
23052SOL    HW273968   9.387   3.011   7.551 -1.0537  1.9234  0.6050
23053SOL     OW73969  10.233  10.076   7.164 -0.5069  0.1637 -0.3749
23053SOL    HW173970  10.139  10.081   7.181 -0.2894  0.1290  0.9597
23053SOL    HW273971  10.253   9.983   7.170 -0.3192  0.2129 -0.2224
23054SOL     OW73972   8.812   9.210  10.725 -0.3732 -0.1409 -0.0828
23054SOL    HW173973   8.819   9.281  10.662  0.3654  0.2782  0.4670
23054SOL    HW273974   8.823   9.251  10.811  1.9731 -1.1428  0.1713
23055SOL     OW73975  11.126   9.802   2.386  0.3384  0.0936 -0.4579
23055SOL    HW173976  11.177   9.840   2.314  0.7497 -0.9685 -0.7426
23055SOL    HW273977  11.119   9.709   2.364  0.4135 -0.2382  0.8372
23056SOL     OW73978   6.224   3.898   8.520 -0.0553 -0.2573  0.0640
23056SOL    HW173979   6.303   3.933   8.480 -0.1113 -0.1629  0.0343
23056SOL    HW273980   6.172   3.865   8.447 -0.3605  0.3311  0.0094
23057SOL     OW73981   6.900  11.328   7.628  0.9724  0.4207 -0.2251
23057SOL    HW173982   6.897  11.363   7.717  0.2782  4.4609 -1.6296
23057SOL    HW273983   6.977  11.370   7.589 -0.1148  0.7102 -2.1791
23058SOL     OW73984   3.292  12.480   2.426  0.7191  0.2204 -0.6077
23058SOL    HW173985   3.222  12.537   2.394 -0.6553 -0.4156  1.1045
23058SOL    HW273986   3.274  12.470   2.519  2.1059 -1.3809 -0.4579
23059SOL     OW73987   4.419   7.209   9.465  0.7835 -0.0001  0.2218
23059SOL    HW173988   4.373   7.225   9.383 -1.3728 -0.7905  1.2081
23059SOL    HW273989   4.376   7.266   9.528  1.4569 -0.4552  1.1065
23060SOL     OW73990  10.206   8.551   3.367 -0.3986 -0.2324 -0.4501
23060SOL    HW173991  10.254   8.633   3.358 -0.2331 -0.1812  0.8118
23060SOL    HW273992  10.114   8.577   3.366 -0.3780 -0.1663 -1.2486
23061SOL     OW73993   0.533   2.135   2.708  0.4665 -0.4289 -0.0855
23061SOL    HW173994   0.512   2.178   2.626 -1.1176 -1.1078 -0.0797
23061SOL    HW273995   0.545   2.206   2.771 -0.6009  0.0529 -0.4080
23062SOL     OW73996  11.566  12.132   7.689  0.1577 -0.1214 -0.0477
23062SOL    HW173997  11.520  12.086   7.619 -0.3348  0.1322  0.1063
23062SOL    HW273998  11.624  12.192   7.643  0.9005 -0.9683 -0.2531
23063SOL     OW73999   7.456   2.294  12.487  0.1793  0.1829 -0.4723
23063SOL    HW174000   7.547   2.314  12.510 -0.4308  0.1665  2.2704
23063SOL    HW274001   7.404   2.352  12.542 -1.4952 -0.4214 -1.3636
23064SOL     OW74002   4.339   5.247   7.409  0.1205 -0.3061 -0.2129
23064SOL    HW174003   4.347   5.235   7.315  0.5230  1.8676 -0.5155
23064SOL    HW274004   4.246   5.262   7.424 -0.1326 -1.8733 -0.0561
23065SOL     OW74005   5.078  12.514  10.084  0.2714  0.0186  0.0621
23065SOL    HW174006   5.040  12.427  10.071 -1.0570  0.5547  0.1746
23065SOL    HW274007   5.109  12.541   9.997  0.3162 -0.3924 -0.0504
23066SOL     OW74008  12.437   5.958  12.111 -0.1849  0.2114  0.2970
23066SOL    HW174009  12.347   5.939  12.138  0.2242  1.4124  2.8551
23066SOL    HW274010  12.444   6.054  12.117  1.1250  0.1790 -0.3639
23067SOL     OW74011   7.019   3.867  11.626  0.1062  0.0673  0.3073
23067SOL    HW174012   6.943   3.920  11.602 -0.7260 -0.8891  0.7730
23067SOL    HW274013   6.990   3.777  11.616  2.3722 -0.4807 -3.5052
23068SOL     OW74014   1.906   9.694   0.307  0.2058  0.2662 -0.2215
23068SOL    HW174015   1.962   9.727   0.378 -0.0734  1.4036 -0.5139
23068SOL    HW274016   1.937   9.605   0.292  2.3109  1.0055 -0.7093
23069SOL     OW74017  10.564  10.522   9.394  0.1977 -0.0054 -0.1212
23069SOL    HW174018  10.577  10.593   9.456 -1.0404 -0.4575  0.6819
23069SOL    HW274019  10.650  10.481   9.387  1.3206  2.3767 -1.6807
23070SOL     OW74020  12.050   1.545   3.744 -0.4671  0.5638  0.9847
23070SOL    HW174021  12.055   1.449   3.749  0.4419  0.4954 -0.4039
23070SOL    HW274022  11.970   1.562   3.696 -0.2136  0.4449  0.5070
23071SOL     OW74023   7.772   2.237  11.963 -0.3613  0.2157 -0.3572
23071SOL    HW174024   7.838   2.196  11.907  0.0659 -0.0905  0.3563
23071SOL    HW274025   7.694   2.243  11.908  0.4828  1.3393 -1.4921
23072SOL     OW74026   0.294   0.887   7.681 -0.0955 -0.3787 -0.0246
23072SOL    HW174027   0.353   0.919   7.613 -1.1800 -0.6616 -1.1405
23072SOL    HW274028   0.351   0.870   7.756  1.0169  0.7213 -0.5797
23073SOL     OW74029   3.132   1.500   5.846 -0.6511 -0.0144 -0.0808
23073SOL    HW174030   3.195   1.479   5.915 -0.5110  0.5407 -0.0322
23073SOL    HW274031   3.057   1.536   5.892 -1.3042 -1.3246 -0.0832
23074SOL     OW74032   2.795   0.170   5.365 -0.0018  0.1639  0.2668
23074SOL    HW174033   2.863   0.222   5.323 -0.8225  2.5814  1.7169
23074SOL    HW274034   2.778   0.098   5.304  2.1614  0.8233 -1.2099
23075SOL     OW74035   8.789   3.749  11.706  0.2669  0.3968  0.3308
23075SOL    HW174036   8.869   3.764  11.757  0.7193 -0.7655 -0.0198
23075SOL    HW274037   8.735   3.693  11.761  0.8764 -1.0997 -0.5421
23076SOL     OW74038   0.425   6.320   1.933  0.3733 -0.5827 -0.4991
23076SOL    HW174039   0.428   6.391   1.868 -0.2668 -1.0555 -1.0576
23076SOL    HW274040   0.446   6.363   2.016  1.0375  0.0647 -0.9890
23077SOL     OW74041   7.649   8.597  10.004 -0.3275  0.5860 -0.4298
23077SOL    HW174042   7.626   8.525  10.062  1.3297  1.3780  1.3280
23077SOL    HW274043   7.679   8.554   9.923  0.2053 -0.6714  0.4083
23078SOL     OW74044  10.109   8.472   2.901 -0.9564 -0.8148 -0.0270
23078SOL    HW174045  10.079   8.423   2.979 -0.7458 -1.2735 -0.2283
23078SOL    HW274046  10.107   8.563   2.928 -1.4593 -0.9250  0.3271
23079SOL     OW74047   7.739   1.736  11.322 -0.0108  0.3375 -0.1824
23079SOL    HW174048   7.747   1.727  11.227  0.1687  2.4954 -0.4221
23079SOL    HW274049   7.660   1.687  11.344  0.1297 -0.4781 -1.3948
23080SOL     OW74050   0.821   5.449   9.444 -0.2399  0.2102 -0.0551
23080SOL    HW174051   0.861   5.535   9.459  0.1435 -0.2661  1.8051
23080SOL    HW274052   0.796   5.417   9.530 -2.2585 -0.6977 -0.8982
23081SOL     OW74053  11.784  10.925   4.883 -0.5518 -0.7503 -0.0982
23081SOL    HW174054  11.779  10.918   4.787 -1.4698  2.6265 -0.4350
23081SOL    HW274055  11.875  10.951   4.900 -1.1801  2.0010 -0.4913
23082SOL     OW74056   3.360   6.721   0.380  0.0148  0.3069  0.4591
23082SOL    HW174057   3.300   6.789   0.411 -1.1256 -0.4648  0.0382
23082SOL    HW274058   3.351   6.650   0.443  0.3283  0.0997  0.2760
23083SOL     OW74059  11.534   5.770   6.240 -0.1680  0.0236 -0.1412
23083SOL    HW174060  11.460   5.770   6.180 -0.0109 -0.5833 -0.3463
23083SOL    HW274061  11.611   5.778   6.183 -0.0866  1.0080  0.0945
23084SOL     OW74062   9.682   8.938   0.693  0.4128 -0.5227  0.1044
23084SOL    HW174063   9.672   8.908   0.603 -0.0990 -0.2428  0.0655
23084SOL    HW274064   9.651   8.864   0.746 -1.0909  0.0093  0.0038
23085SOL     OW74065   0.017  11.016   7.868  0.2293  0.2998 -0.1550
23085SOL    HW174066   0.051  11.090   7.918 -0.2853  0.3522  0.1243
23085SOL    HW274067   0.054  10.939   7.910 -0.1320  0.3477  0.2577
23086SOL     OW74068   7.466   2.118   3.269  0.6402 -0.2448 -0.6402
23086SOL    HW174069   7.407   2.166   3.328  1.2594 -0.5301  0.2161
23086SOL    HW274070   7.487   2.182   3.200 -0.1415  0.0665 -0.6045
23087SOL     OW74071   3.635   7.072  10.926 -0.2844  0.4746  0.1027
23087SOL    HW174072   3.652   7.086  11.019  0.5206 -0.9165  0.1764
23087SOL    HW274073   3.688   7.139  10.882  0.6582  0.0558  0.5791
23088SOL     OW74074   9.739   9.005   4.714 -0.6959  0.2299 -0.1370
23088SOL    HW174075   9.659   9.015   4.767  0.0715  3.5494  0.6233
23088SOL    HW274076   9.809   8.998   4.778 -0.2192 -1.7492 -0.8131
23089SOL     OW74077  12.216   9.451   8.679 -0.5839 -0.1183 -0.4234
23089SOL    HW174078  12.279   9.407   8.737  0.9655  0.0882 -1.8583
23089SOL    HW274079  12.137   9.398   8.684  0.5790 -1.9477 -0.6047
23090SOL     OW74080   1.082   2.726   2.173  0.1144  0.1812 -0.5891
23090SOL    HW174081   1.082   2.651   2.113  1.5670  0.7280 -1.3229
23090SOL    HW274082   1.054   2.800   2.118  1.7750  0.7480 -0.7132
23091SOL     OW74083   9.938   8.827   5.796 -0.6555 -0.1952 -0.0789
23091SOL    HW174084   9.917   8.861   5.709 -2.0378 -0.2448  0.2079
23091SOL    HW274085   9.967   8.737   5.781  1.1952  0.4624 -0.6661
23092SOL     OW74086   3.758   4.397   5.185 -0.2849 -0.0999 -0.4894
23092SOL    HW174087   3.832   4.424   5.130 -0.1861  0.1850 -0.2170
23092SOL    HW274088   3.799   4.357   5.262 -0.3718  1.0788  0.2034
23093SOL     OW74089   0.222  12.589   6.613 -0.1517 -0.1632 -0.5169
23093SOL    HW174090   0.311  12.619   6.633 -0.1214 -0.4002 -0.2802
23093SOL    HW274091   0.166  12.663   6.635  0.0396  0.1991 -1.2372
23094SOL     OW74092   5.819   5.528   4.261  0.0628 -0.2276  0.0567
23094SOL    HW174093   5.779   5.441   4.270 -2.5110  0.7185 -1.2953
23094SOL    HW274094   5.795   5.574   4.342  1.0513 -0.5964  0.5768
23095SOL     OW74095   2.924   0.372   4.930  0.1079  0.4467 -0.7639
23095SOL    HW174096   2.875   0.294   4.956  0.0184 -0.2723 -2.8683
23095SOL    HW274097   2.997   0.338   4.878  0.2807  1.7297 -1.4025
23096SOL     OW74098   5.802   1.371  11.994  0.7837  0.2120  0.3524
23096SOL    HW174099   5.816   1.280  12.020 -0.3937  0.0151  0.3504
23096SOL    HW274100   5.825   1.373  11.901 -0.6480 -0.4605 -0.0488
23097SOL     OW74101   1.858   5.560   9.672  0.3900  0.3414 -0.1397
23097SOL    HW174102   1.766   5.572   9.648  0.5610  1.1605 -0.4176
23097SOL    HW274103   1.897   5.513   9.598  0.5739  1.5156 -0.8055
23098SOL     OW74104   7.581   5.258  11.987  0.1515 -0.4508 -0.1451
23098SOL    HW174105   7.669   5.287  12.009 -0.6506  1.8698  0.3412
23098SOL    HW274106   7.523   5.324  12.026 -1.7430 -1.1957 -1.4959
23099SOL     OW74107  10.371   1.554   3.403  0.6383  0.0725  0.4930
23099SOL    HW174108  10.375   1.487   3.335  0.6077 -0.2134  0.7648
23099SOL    HW274109  10.430   1.623   3.374 -0.3773  0.5658 -0.4684
23100SOL     OW74110   2.853   2.337   5.950  0.2357  0.2252 -0.3102
23100SOL    HW174111   2.788   2.379   5.895 -0.5954 -0.9068 -0.2289
23100SOL    HW274112   2.891   2.408   6.001 -0.7540  0.9436 -0.5457
23101SOL     OW74113   4.876   5.175   8.527 -0.3005  0.0888  0.1864
23101SOL    HW174114   4.902   5.086   8.550  0.0889 -0.6200 -2.5549
23101SOL    HW274115   4.940   5.202   8.461 -0.7598  2.2031  0.5337
23102SOL     OW74116   1.261   3.935   0.772  0.4423  0.3179  0.0388
23102SOL    HW174117   1.217   3.862   0.730  1.4470  0.5285 -1.4458
23102SOL    HW274118   1.200   3.965   0.839 -0.0300 -1.8176  0.6480
23103SOL     OW74119   5.245   4.845   0.252 -0.0083 -0.5090 -0.0240
23103SOL    HW174120   5.246   4.752   0.275 -1.2152 -1.0418 -1.9266
23103SOL    HW274121   5.268   4.847   0.159  0.4555  1.1517  0.0954
23104SOL     OW74122   1.108  10.484   1.757  0.2802  0.0178  0.4292
23104SOL    HW174123   1.056  10.421   1.707  0.9875 -3.1223  3.3333
23104SOL    HW274124   1.198  10.455   1.747  1.0490  2.4475 -0.5046
23105SOL     OW74125   4.247  12.052  10.760 -0.1885 -0.2703 -0.1124
23105SOL    HW174126   4.160  12.025  10.731  0.5975 -0.5318 -2.4812
23105SOL    HW274127   4.255  12.143  10.730 -0.3835  0.4685  1.9501
23106SOL     OW74128  11.359   9.407   3.731 -0.1781  0.1044  0.4508
23106SOL    HW174129  11.388   9.322   3.698 -0.9110 -0.4392  1.1439
23106SOL    HW274130  11.278   9.425   3.683 -0.6753 -0.1810  1.1611
23107SOL     OW74131   5.463   6.769  12.400 -0.0532  0.2901  0.3438
23107SOL    HW174132   5.393   6.771  12.334 -0.6701 -0.5152  0.9495
23107SOL    HW274133   5.449   6.848  12.452  1.8979  2.2680 -1.8875
23108SOL     OW74134   8.456   0.842   0.640  0.3865  0.6152 -0.0777
23108SOL    HW174135   8.473   0.904   0.712 -1.2598  1.3482 -0.2732
23108SOL    HW274136   8.462   0.756   0.681  3.0672  0.8256  0.1308
23109SOL     OW74137   2.493   9.319   4.758  0.6766  0.5954 -0.1230
23109SOL    HW174138   2.491   9.251   4.826  0.2540  0.5499 -0.1805
23109SOL    HW274139   2.403   9.350   4.752  0.4494 -0.2269 -1.4873
23110SOL     OW74140   4.865   9.722   4.449  0.1519  0.3290  0.0403
23110SOL    HW174141   4.792   9.783   4.441 -1.3296 -1.4253 -0.7958
23110SOL    HW274142   4.903   9.718   4.361 -0.6974 -0.9807 -0.2974
23111SOL     OW74143   9.082  10.934   6.220  0.0857  0.4413 -0.4545
23111SOL    HW174144   9.081  10.930   6.125  1.6053  0.5795 -0.5032
23111SOL    HW274145   9.113  10.848   6.248  0.3579  0.6420 -0.1198
23112SOL     OW74146   5.879   0.039   1.321 -0.8606 -0.4478 -0.0046
23112SOL    HW174147   5.844   0.128   1.334  0.3754 -0.0873  0.9838
23112SOL    HW274148   5.880   0.027   1.226  1.6040  1.7137 -0.3419
23113SOL     OW74149   6.418   6.159   0.942 -0.0600 -0.2462  0.1236
23113SOL    HW174150   6.469   6.134   0.865 -0.5461 -2.2877  0.4145
23113SOL    HW274151   6.339   6.199   0.905 -0.6800 -1.9599 -0.5177
23114SOL     OW74152   9.304   3.881   3.302  0.3464 -0.5593 -0.2063
23114SOL    HW174153   9.214   3.853   3.283 -0.2102  0.1021  1.2885
23114SOL    HW274154   9.359   3.821   3.252 -0.9347 -0.5615 -1.6769
23115SOL     OW74155  11.176   6.551   9.973 -0.2467 -0.0005 -0.2906
23115SOL    HW174156  11.091   6.523   9.939 -0.6320  0.0692  0.5834
23115SOL    HW274157  11.155   6.595  10.056  0.5214  1.1201 -0.6651
23116SOL     OW74158   2.280  10.930   1.105 -0.7007 -0.3305 -0.1897
23116SOL    HW174159   2.342  10.932   1.032  0.0243 -0.4700  0.4095
23116SOL    HW274160   2.268  10.837   1.124 -0.6632 -0.2848  0.0609
23117SOL     OW74161   3.853   8.080   0.289 -0.9395  0.2995 -0.1493
23117SOL    HW174162   3.870   8.008   0.228 -0.5172  0.8427 -0.6845
23117SOL    HW274163   3.798   8.042   0.357  1.8125 -1.3920  1.3231
23118SOL     OW74164   7.694  11.794   1.836  0.7553 -0.1003 -0.1136
23118SOL    HW174165   7.631  11.722   1.842  0.1154  0.3295 -1.3238
23118SOL    HW274166   7.780  11.751   1.836  0.3899 -0.8534 -0.4852
23119SOL     OW74167   7.420   9.019   1.059  0.1231 -0.0957  0.3334
23119SOL    HW174168   7.377   9.008   1.143  0.0573 -0.8061  0.2113
23119SOL    HW274169   7.496   9.074   1.078 -0.7640  1.0971  0.5652
23120SOL     OW74170   6.946   1.113   2.538 -0.8223 -0.5189  0.1308
23120SOL    HW174171   7.001   1.192   2.533 -0.9974 -0.3911  0.2072
23120SOL    HW274172   6.860   1.142   2.510 -0.5717 -1.0057 -1.1962
23121SOL     OW74173   8.052   1.712  10.991 -0.0469  0.2071 -0.2449
23121SOL    HW174174   8.090   1.656  10.923  3.3136  2.2277 -0.2865
23121SOL    HW274175   8.080   1.673  11.073  1.5191  1.1960 -0.2583
23122SOL     OW74176  10.308  11.757   5.417  0.2262  0.4568 -0.0726
23122SOL    HW174177  10.251  11.682   5.401  1.6241 -0.5002 -0.8109
23122SOL    HW274178  10.274  11.796   5.497 -0.5280 -0.9918  0.3592
23123SOL     OW74179   1.576   6.715   1.680 -0.7593 -0.0828  0.1282
23123SOL    HW174180   1.558   6.809   1.686  0.4431  0.1360  0.6879
23123SOL    HW274181   1.499   6.679   1.637 -1.0834  1.2106 -0.4396
23124SOL     OW74182   1.897   9.593   6.445  0.4939 -0.1328 -0.5175
23124SOL    HW174183   1.990   9.617   6.442  1.0280 -1.1420  2.9946
23124SOL    HW274184   1.897   9.499   6.424  0.6144 -0.5663  1.2061
23125SOL     OW74185  10.350  11.121   1.730  0.2481  0.1304  0.2536
23125SOL    HW174186  10.342  11.084   1.643 -0.5650 -1.7033  1.0447
23125SOL    HW274187  10.396  11.053   1.781  3.2944  2.2881  0.6523
23126SOL     OW74188   2.380   3.194   5.438 -0.2814 -0.1176 -0.0091
23126SOL    HW174189   2.337   3.239   5.511  0.6125  2.5684 -1.0185
23126SOL    HW274190   2.316   3.197   5.367  0.2234  0.7108 -0.4459
23127SOL     OW74191   9.171   4.413   6.069  0.1515 -0.0423 -0.3668
23127SOL    HW174192   9.136   4.397   6.157  0.7498  0.4375 -0.0349
23127SOL    HW274193   9.220   4.333   6.049  0.2010 -0.0641 -0.1651
23128SOL     OW74194   2.759   6.754   5.215  0.0867  0.5074  0.0160
23128SOL    HW174195   2.831   6.727   5.272 -0.0249  1.1648  0.4772
23128SOL    HW274196   2.709   6.674   5.200 -0.5969  0.5356  1.8615
23129SOL     OW74197   1.452   6.629   2.695  0.4564  0.3435  0.1354
23129SOL    HW174198   1.369   6.664   2.662  0.6877 -1.6679 -3.0893
23129SOL    HW274199   1.433   6.539   2.718  1.4140  0.3381  0.9693
23130SOL     OW74200   0.004   6.153   0.361  0.3295  0.2743 -0.4673
23130SOL    HW174201  -0.038   6.165   0.276  1.9195 -0.0043 -1.3429
23130SOL    HW274202   0.033   6.241   0.387 -0.6556  0.4491  0.0834
23131SOL     OW74203   4.124   0.973  12.271 -0.2190  0.1544  0.3104
23131SOL    HW174204   4.073   0.985  12.190  0.3530  0.9735  0.0586
23131SOL    HW274205   4.113   0.880  12.293  0.5334 -0.3722 -1.3463
23132SOL     OW74206   7.246   1.928   3.274 -0.0246  0.7170  0.3358
23132SOL    HW174207   7.277   1.839   3.291  0.2488  0.3727 -1.7275
23132SOL    HW274208   7.325   1.981   3.269 -0.1886  1.0955  1.5763
23133SOL     OW74209  12.404   4.160   9.374 -0.0218  0.7589  0.2185
23133SOL    HW174210  12.334   4.215   9.410  0.5599  0.4175  1.9761
23133SOL    HW274211  12.469   4.155   9.444  0.7810 -0.6683 -0.5795
23134SOL     OW74212   9.441  12.492   3.953  0.4258  0.0944  0.7395
23134SOL    HW174213   9.394  12.483   4.036 -0.3792  0.3333  0.3118
23134SOL    HW274214   9.527  12.454   3.971  0.2152  0.0071  1.6420
23135SOL     OW74215  10.517   1.354   7.701  0.4701  0.1794 -0.3014
23135SOL    HW174216  10.457   1.390   7.636  0.6294  0.7399 -0.1448
23135SOL    HW274217  10.604   1.364   7.662  0.5470  0.3088 -0.1013
23136SOL     OW74218   6.490  10.031   0.198  0.7609 -0.0879  0.8744
23136SOL    HW174219   6.550  10.091   0.154  0.1055 -0.5931 -0.7625
23136SOL    HW274220   6.531  10.016   0.284  1.7422  1.4149  0.7041
23137SOL     OW74221   9.433   4.621   1.339  0.2367  0.8677 -0.3916
23137SOL    HW174222   9.390   4.700   1.372  0.4494  0.5901  0.6109
23137SOL    HW274223   9.364   4.555   1.339  0.4058  0.6844  0.2181
23138SOL     OW74224  10.027   4.547  11.745  0.2027  0.1889  0.2182
23138SOL    HW174225  10.030   4.458  11.779 -3.0712 -0.9098 -1.8407
23138SOL    HW274226  10.029   4.603  11.823  0.7256 -1.7327  1.6574
23139SOL     OW74227   2.107   5.061   2.436 -0.3348 -0.4321 -0.1297
23139SOL    HW174228   2.078   5.118   2.508 -1.0366  1.1551 -1.6072
23139SOL    HW274229   2.202   5.074   2.432 -0.4129  0.1631 -0.0706
23140SOL     OW74230   2.565   6.560   0.759  0.5936 -0.1745  0.2498
23140SOL    HW174231   2.593   6.469   0.760  0.1698 -0.3062  1.0388
23140SOL    HW274232   2.482   6.560   0.806  0.9320  0.7296  0.8716
23141SOL     OW74233   0.249   9.775  11.207  0.3283  0.0246 -0.2099
23141SOL    HW174234   0.298   9.760  11.127  0.3895 -1.2512  0.0386
23141SOL    HW274235   0.314   9.767  11.277  0.2291  0.8799 -0.0042
23142SOL     OW74236  10.758   6.835   3.769  0.6054 -0.0557  0.6429
23142SOL    HW174237  10.685   6.804   3.715  0.0768  2.6824 -0.3713
23142SOL    HW274238  10.717   6.875   3.845  0.9594  1.5790  0.0260
23143SOL     OW74239   8.962   0.360  11.411 -0.3554  0.4413  0.1197
23143SOL    HW174240   9.003   0.428  11.357 -1.1440  1.2029  0.4600
23143SOL    HW274241   8.870   0.386  11.417 -0.6923 -0.7301  0.1594
23144SOL     OW74242   3.486   2.373   0.470  1.0962 -0.1138 -0.1853
23144SOL    HW174243   3.530   2.454   0.446  2.2412 -0.3755  0.9589
23144SOL    HW274244   3.498   2.316   0.394 -0.6507  1.0793 -1.4645
23145SOL     OW74245   8.965   5.303   6.756 -0.2676 -0.0135 -0.0651
23145SOL    HW174246   8.932   5.382   6.799  1.1936  1.0670 -0.8604
23145SOL    HW274247   8.895   5.278   6.695 -0.5950  0.8736 -0.0741
23146SOL     OW74248   0.434   7.009  10.226  0.3000  0.4286  0.5300
23146SOL    HW174249   0.349   6.973  10.251 -0.1989  0.0076 -1.6166
23146SOL    HW274250   0.427   7.103  10.245 -0.9339  0.5329 -0.3427
23147SOL     OW74251   3.096   5.361  11.318 -0.0961  0.1517 -0.8368
23147SOL    HW174252   3.026   5.362  11.252 -1.2958 -0.3378  0.3641
23147SOL    HW274253   3.115   5.269  11.331  0.5362  0.2695 -0.8864
23148SOL     OW74254  10.675  12.298   2.866  0.7160 -0.2819 -0.1206
23148SOL    HW174255  10.585  12.330   2.856  0.4414 -0.4574  1.4277
23148SOL    HW274256  10.729  12.360   2.818 -0.1984  0.0415 -0.7512
23149SOL     OW74257   4.326   4.423   4.918  0.2126 -0.2771 -0.0049
23149SOL    HW174258   4.329   4.509   4.877 -1.4768  0.8611  2.0563
23149SOL    HW274259   4.233   4.400   4.919  0.2022 -0.3800  2.7944
23150SOL     OW74260   3.471   9.629  12.196  0.7765 -0.3737  0.5102
23150SOL    HW174261   3.543   9.596  12.143  1.7744 -1.5586  2.5224
23150SOL    HW274262   3.484   9.724  12.197  0.5729 -0.2658 -1.5008
23151SOL     OW74263   7.706   0.011   7.898  0.1699  0.7188  0.4814
23151SOL    HW174264   7.713  -0.081   7.873 -0.1918  0.5712  0.9015
23151SOL    HW274265   7.765   0.020   7.973 -0.6428  0.5488  1.1591
23152SOL     OW74266   3.106  10.962   0.507 -0.1997  0.0767 -0.2193
23152SOL    HW174267   3.143  10.936   0.591 -0.7522 -1.7067 -0.4699
23152SOL    HW274268   3.085  11.055   0.518  0.6495  0.1357  1.2545
23153SOL     OW74269   5.290   4.313  11.202  0.3905 -0.2599  0.0978
23153SOL    HW174270   5.315   4.298  11.293  0.1435  1.4299  0.4864
23153SOL    HW274271   5.194   4.310  11.203  0.4016 -0.8304 -0.2308
23154SOL     OW74272   2.317  10.609   4.771 -0.1288  0.1055  0.3263
23154SOL    HW174273   2.246  10.652   4.818 -0.6968 -0.5047  0.0356
23154SOL    HW274274   2.287  10.601   4.681  0.1027 -0.5740  0.2963
23155SOL     OW74275  11.040   9.286   2.440 -0.4092 -0.3430  0.2474
23155SOL    HW174276  11.080   9.373   2.437 -0.3143 -0.3649  0.7806
23155SOL    HW274277  11.015   9.274   2.532  0.5418 -1.3091  0.4014
23156SOL     OW74278   5.854   1.617   2.290  0.3237  0.1968 -0.7256
23156SOL    HW174279   5.944   1.585   2.287 -0.6159 -3.0000  0.1980
23156SOL    HW274280   5.822   1.606   2.201  0.5333  0.2438 -0.8070
23157SOL     OW74281   4.524   7.250  10.646 -0.3716  0.3162  0.3433
23157SOL    HW174282   4.554   7.305  10.574 -0.1223  1.6224  1.4015
23157SOL    HW274283   4.437   7.221  10.620  0.1632 -0.1725 -0.9683
23158SOL     OW74284   8.126   7.294  12.494 -0.4842 -0.5569  0.4881
23158SOL    HW174285   8.182   7.246  12.434  0.4646  0.3496  0.6328
23158SOL    HW274286   8.183   7.318  12.568 -0.7403  1.3378  0.1257
23159SOL     OW74287   9.570   5.257   5.618 -0.4404  0.3474  0.4454
23159SOL    HW174288   9.478   5.284   5.630 -0.0329  1.2836  1.6960
23159SOL    HW274289   9.615   5.290   5.696  1.1381  0.6903 -0.5664
23160SOL     OW74290  10.098   5.916   0.177 -0.3920  0.1190 -0.3298
23160SOL    HW174291  10.010   5.953   0.183 -0.8186 -1.0594  1.5552
23160SOL    HW274292  10.145   5.956   0.250  0.6821  0.7717 -1.3496
23161SOL     OW74293   6.612   3.998  11.266 -0.1037  0.0696  0.2057
23161SOL    HW174294   6.681   4.021  11.328  0.3333 -0.3798 -0.1034
23161SOL    HW274295   6.563   4.079  11.254  0.9845  0.6683 -0.3471
23162SOL     OW74296   9.376   3.623   5.156  0.1283  0.1414  0.7200
23162SOL    HW174297   9.382   3.541   5.205  0.1718  0.1594  0.7442
23162SOL    HW274298   9.289   3.658   5.178  1.0754  1.3906  2.7324
23163SOL     OW74299  11.202  10.525   7.565 -0.5816  0.8278  0.2954
23163SOL    HW174300  11.268  10.586   7.531 -1.5006  2.5454  1.4118
23163SOL    HW274301  11.122  10.578   7.571 -1.3386 -0.3956  1.6808
23164SOL     OW74302   6.283   8.060   9.281 -0.8664 -0.1886 -0.1572
23164SOL    HW174303   6.203   8.097   9.318  0.4283  1.7559  0.8540
23164SOL    HW274304   6.252   7.993   9.220 -3.3360  2.0495 -1.5480
23165SOL     OW74305   4.105  11.325  10.633  0.2518 -0.3059  0.2717
23165SOL    HW174306   4.180  11.265  10.628 -0.6482 -1.4501  0.0080
23165SOL    HW274307   4.053  11.303  10.556 -0.6739  0.0255  0.7978
23166SOL     OW74308   0.623   1.209   0.418  0.1728 -0.0279 -0.2152
23166SOL    HW174309   0.573   1.271   0.366  0.2245 -0.7608 -1.1521
23166SOL    HW274310   0.665   1.263   0.485 -0.9470  0.7430 -0.1061
23167SOL     OW74311   1.731   6.985   2.615 -0.1023 -0.4513  0.2241
23167SOL    HW174312   1.677   6.941   2.681 -0.4923  0.3876  0.4818
23167SOL    HW274313   1.668   7.018   2.551  0.2456 -0.9129 -0.3665
23168SOL     OW74314   9.229   2.018  11.385  0.1908 -0.0621  0.1729
23168SOL    HW174315   9.306   2.047  11.434 -0.6117  1.6164  0.5007
23168SOL    HW274316   9.265   1.985  11.302  1.2366  1.4953 -0.0485
23169SOL     OW74317   2.659   9.919   7.288  0.2251 -0.7999 -0.1314
23169SOL    HW174318   2.677   9.919   7.194  1.2471 -1.0409  0.0560
23169SOL    HW274319   2.639   9.828   7.308  2.2829 -1.1975  0.2838
23170SOL     OW74320   1.082   9.182   9.489  0.2451  0.2856  0.2731
23170SOL    HW174321   1.020   9.145   9.426 -1.8377  0.1248  2.2898
23170SOL    HW274322   1.029   9.240   9.544  2.2270  1.4381  1.1060
23171SOL     OW74323   1.585  12.599  12.200 -0.1223  0.0075 -0.2731
23171SOL    HW174324   1.506  12.651  12.186  0.1133  0.8265  1.2070
23171SOL    HW274325   1.602  12.606  12.294  1.4781 -0.4933 -0.4930
23172SOL     OW74326   2.165  10.483  10.034 -0.1642 -0.3325  0.0519
23172SOL    HW174327   2.239  10.423  10.042  1.1578  0.9756 -1.5028
23172SOL    HW274328   2.178  10.546  10.106 -0.0368 -0.3874  0.0775
23173SOL     OW74329   6.532   7.924   1.336 -0.4851  0.2772  0.5887
23173SOL    HW174330   6.508   7.831   1.334  0.4135 -0.0211  1.9618
23173SOL    HW274331   6.617   7.926   1.381 -0.3148  1.7319  0.2516
23174SOL     OW74332   8.477   2.963   7.529 -0.3417  0.0250  0.3096
23174SOL    HW174333   8.447   3.037   7.582 -1.0226 -0.0978  0.1145
23174SOL    HW274334   8.403   2.902   7.530 -0.5285  0.2087 -1.1278
23175SOL     OW74335   0.678   5.578   3.210  0.0067 -0.1980  0.2585
23175SOL    HW174336   0.671   5.672   3.191 -0.3273 -0.3981 -0.6521
23175SOL    HW274337   0.588   5.547   3.213  0.1062 -0.4476  0.8188
23176SOL     OW74338   6.625  11.267  11.671 -0.2980  0.0694  0.4302
23176SOL    HW174339   6.693  11.203  11.691 -0.2893  0.0405  0.3088
23176SOL    HW274340   6.670  11.336  11.623 -0.5154 -0.3623 -0.4091
23177SOL     OW74341   8.350  12.527   8.286 -0.3008 -0.1278  0.0775
23177SOL    HW174342   8.391  12.446   8.316  2.2583  0.4735 -1.5281
23177SOL    HW274343   8.301  12.501   8.207  0.5103 -0.1472 -0.4319
23178SOL     OW74344  12.013   3.632   9.474 -0.5496 -0.1447  0.1480
23178SOL    HW174345  12.034   3.725   9.481 -0.5014  0.0864 -2.1568
23178SOL    HW274346  12.043   3.594   9.556  0.5872  1.6645  0.6276
23179SOL     OW74347   5.496   6.709   4.437  0.0285 -0.2571  0.5111
23179SOL    HW174348   5.576   6.723   4.386  0.1213 -0.0707  0.7094
23179SOL    HW274349   5.527   6.674   4.520 -0.0415  0.5156  0.8701
23180SOL     OW74350   5.680   9.756   4.147  0.2454  0.0051  0.3305
23180SOL    HW174351   5.608   9.781   4.204  0.1994 -2.7027  1.6529
23180SOL    HW274352   5.677   9.660   4.145  2.3390 -0.1211 -1.5251
23181SOL     OW74353   5.514  10.472   4.642  0.3463 -0.6037  0.0131
23181SOL    HW174354   5.601  10.441   4.617  0.4899 -2.2782  2.2925
23181SOL    HW274355   5.498  10.547   4.585  3.2881 -0.2364 -0.4740
23182SOL     OW74356   8.466  10.641   8.268  0.4643  0.7903  0.4866
23182SOL    HW174357   8.408  10.639   8.191 -1.1539  0.1193  1.6605
23182SOL    HW274358   8.406  10.647   8.343  1.9169 -0.0577  1.7697
23183SOL     OW74359  12.069   8.509   9.845  0.3068  0.0464  0.5686
23183SOL    HW174360  11.993   8.493   9.789  0.2006 -0.4783  0.8547
23183SOL    HW274361  12.054   8.454   9.922  0.9423 -0.0011  0.6634
23184SOL     OW74362   8.799  12.422  10.933  0.1287  0.0179 -0.1325
23184SOL    HW174363   8.808  12.516  10.950  0.1972  0.1782 -1.0168
23184SOL    HW274364   8.729  12.394  10.991 -1.2948  1.0378 -1.2843
23185SOL     OW74365   5.575   6.633   2.691  0.6380  0.6942 -0.0595
23185SOL    HW174366   5.653   6.597   2.649 -0.0380  0.5640 -1.2658
23185SOL    HW274367   5.514   6.648   2.618 -0.6466  0.3037  0.9077
23186SOL     OW74368  12.041   1.095   9.470  0.3011 -0.2783  0.1770
23186SOL    HW174369  12.089   1.037   9.411 -1.3663 -1.8309  0.2553
23186SOL    HW274370  11.950   1.064   9.466 -0.0051 -0.0330  3.0453
23187SOL     OW74371   0.176   8.401   7.419  0.2906  0.3985  0.2617
23187SOL    HW174372   0.235   8.326   7.413 -1.3869 -0.8522 -2.4238
23187SOL    HW274373   0.201   8.457   7.345  0.1277  1.4447  0.9791
23188SOL     OW74374   5.208   3.463   9.166  0.6299  1.1919  0.1623
23188SOL    HW174375   5.215   3.417   9.250  0.9242  2.1237  0.6601
23188SOL    HW274376   5.114   3.473   9.152  0.5051 -0.5016 -0.4968
23189SOL     OW74377  11.901  10.056   2.424 -0.5452  0.2564  0.3307
23189SOL    HW174378  11.986  10.014   2.438 -0.4064  0.7946  1.1945
23189SOL    HW274379  11.916  10.117   2.352 -0.0520  0.7267  0.8222
23190SOL     OW74380   7.657   6.624   1.955  0.2864  0.6065 -0.0386
23190SOL    HW174381   7.696   6.548   1.999  2.0636  0.7956 -1.1662
23190SOL    HW274382   7.715   6.696   1.978 -0.1108  1.1678 -0.7669
23191SOL     OW74383   1.017   6.621  12.483  0.0163 -0.1971 -0.3092
23191SOL    HW174384   1.024   6.683  12.555 -0.3641  0.4791 -0.8433
23191SOL    HW274385   1.107   6.589  12.471  0.2709  0.4657 -0.2138
23192SOL     OW74386   5.802   4.185   5.671  0.0916  0.2102 -0.2125
23192SOL    HW174387   5.896   4.203   5.674  0.3446 -0.8182 -1.2355
23192SOL    HW274388   5.775   4.209   5.582 -0.2596 -1.0328 -0.4696
23193SOL     OW74389  11.356   7.852   6.778  0.1569 -0.0175  0.1419
23193SOL    HW174390  11.311   7.934   6.794 -0.3719  0.0224 -1.3765
23193SOL    HW274391  11.316   7.790   6.839 -3.3648 -0.4471 -2.2919
23194SOL     OW74392  11.620   2.991   2.305  0.1142  0.4608  0.3632
23194SOL    HW174393  11.581   2.961   2.387  1.3454 -2.1896  0.0644
23194SOL    HW274394  11.713   3.005   2.326  0.9108 -2.2125 -0.9062
23195SOL     OW74395  10.621   8.202   1.847  0.1610  0.4886  0.0899
23195SOL    HW174396  10.552   8.147   1.812  0.4091  0.0453  0.2947
23195SOL    HW274397  10.678   8.219   1.772  0.9439 -0.8418  0.3525
23196SOL     OW74398   0.079   4.102   3.724  0.1326  0.5367  0.4601
23196SOL    HW174399   0.050   4.186   3.759  0.9466  1.2396 -0.5180
23196SOL    HW274400   0.172   4.097   3.746  0.4540  0.6023 -0.8355
23197SOL     OW74401  11.095  10.739   9.667 -0.3710 -0.2999  0.0393
23197SOL    HW174402  11.109  10.830   9.694  0.4722 -0.3038 -0.3580
23197SOL    HW274403  11.079  10.692   9.749 -0.1298  0.0851  0.3096
23198SOL     OW74404   9.139   9.636   7.543  0.2674 -0.5562 -0.1613
23198SOL    HW174405   9.109   9.580   7.471  1.1715  0.9330 -1.7653
23198SOL    HW274406   9.070   9.630   7.609 -1.0132 -1.2703 -1.5215
23199SOL     OW74407   8.090   3.756   9.594  0.6419  0.1663  0.0512
23199SOL    HW174408   8.177   3.794   9.581  0.2497  0.6561 -1.2213
23199SOL    HW274409   8.039   3.827   9.633 -0.2590  1.2583 -2.8796
23200SOL     OW74410   9.555   7.889   3.877 -0.1904  0.2087 -0.6257
23200SOL    HW174411   9.627   7.839   3.915 -1.0582  0.0011  0.8404
23200SOL    HW274412   9.574   7.980   3.900 -0.9944  0.0344  0.9254
23201SOL     OW74413  10.563   9.224  11.404 -0.1840  0.0841  0.2857
23201SOL    HW174414  10.580   9.181  11.487  3.3737  0.5140 -0.0867
23201SOL    HW274415  10.570   9.318  11.424 -3.6311  0.4830  0.2414
23202SOL     OW74416   2.802  12.513   3.135 -0.0817  0.3617 -0.3123
23202SOL    HW174417   2.747  12.500   3.212 -0.3356 -0.2836 -0.5858
23202SOL    HW274418   2.759  12.582   3.086 -0.6566 -0.1345 -0.5183
23203SOL     OW74419   3.189   4.332   8.579 -0.1267 -0.1015  0.2246
23203SOL    HW174420   3.101   4.298   8.596 -0.0843 -1.6084 -2.0856
23203SOL    HW274421   3.174   4.420   8.544 -0.8477 -0.7048 -1.0719
23204SOL     OW74422   2.196   8.761   3.867  0.3146 -0.1027  0.0244
23204SOL    HW174423   2.203   8.785   3.774 -0.2418  2.1685  0.5154
23204SOL    HW274424   2.111   8.719   3.874 -0.0112  0.4874 -0.3402
23205SOL     OW74425  10.676   1.968   9.043 -0.8922 -0.7775 -0.2582
23205SOL    HW174426  10.750   1.982   8.984 -0.5718  3.3606  0.7660
23205SOL    HW274427  10.600   1.962   8.985 -0.4852  2.3256 -1.3004
23206SOL     OW74428   3.742   1.041   2.154  0.1223 -0.7850  0.3273
23206SOL    HW174429   3.732   0.956   2.196  2.9999 -1.3015  0.2068
23206SOL    HW274430   3.730   1.105   2.224  1.7301 -1.4950  1.2985
23207SOL     OW74431  10.673   7.720   3.338 -0.1907 -0.3268 -0.3674
23207SOL    HW174432  10.676   7.779   3.263 -0.1785  0.0339 -0.0866
23207SOL    HW274433  10.608   7.654   3.315  0.5182 -0.7911 -1.1080
23208SOL     OW74434  12.093  12.346   0.222  0.0359  0.4901  0.2019
23208SOL    HW174435  12.050  12.261   0.231  0.3205  0.4688  1.7555
23208SOL    HW274436  12.187  12.325   0.218  0.1063  0.7069  0.5744
23209SOL     OW74437  10.014   6.812   6.751  0.3785  0.3771  0.5661
23209SOL    HW174438   9.938   6.763   6.783  1.3385 -1.5762  0.0673
23209SOL    HW274439  10.060   6.840   6.830 -0.0604  0.2388  0.8712
23210SOL     OW74440   1.348   5.655   7.910  0.4965 -0.4148 -0.0775
23210SOL    HW174441   1.273   5.604   7.940 -0.9202  0.6441 -1.5693
23210SOL    HW274442   1.339   5.656   7.814  1.8239  0.6181 -0.2232
23211SOL     OW74443   1.970  12.079   5.616  0.2465 -0.0349 -0.1826
23211SOL    HW174444   1.964  12.148   5.550  0.6303  1.3033  1.1231
23211SOL    HW274445   2.053  12.035   5.597  1.7180  2.0655  0.9516
23212SOL     OW74446   4.262  10.326   4.814 -0.7578  0.6725 -0.0353
23212SOL    HW174447   4.206  10.391   4.857  1.1164  0.4513  3.0789
23212SOL    HW274448   4.349  10.367   4.810  0.1712 -1.0519  0.7810
23213SOL     OW74449   2.986   5.707   1.560 -0.0810 -0.1441 -0.1400
23213SOL    HW174450   3.068   5.690   1.606 -0.5638  2.1003  1.7005
23213SOL    HW274451   3.004   5.682   1.469  2.7449  0.5683  0.1379
23214SOL     OW74452   2.278   5.703   1.505 -0.0559 -0.6841  0.6105
23214SOL    HW174453   2.246   5.664   1.587 -1.5738  0.0966  0.4190
23214SOL    HW274454   2.324   5.782   1.533 -2.4185  0.7813  0.6614
23215SOL     OW74455  10.513   5.039  10.098 -0.1946  0.0948  0.0913
23215SOL    HW174456  10.514   5.135  10.105 -0.4342  0.2037 -1.1081
23215SOL    HW274457  10.544   5.009  10.183  0.2696  1.2461  0.3580
23216SOL     OW74458   9.570   2.402   7.406 -0.4378  0.8432 -0.5592
23216SOL    HW174459   9.618   2.328   7.369  0.8145  0.6331  1.3432
23216SOL    HW274460   9.638   2.469   7.421 -0.7483  0.6892  1.8355
23217SOL     OW74461  10.633   7.444   6.640  0.0773 -0.3355  0.6489
23217SOL    HW174462  10.696   7.516   6.642 -0.4960  0.1650  1.3519
23217SOL    HW274463  10.653   7.397   6.560  0.2587  0.8068 -0.0034
23218SOL     OW74464   8.936   4.051   2.047  0.1140  0.4433  0.4028
23218SOL    HW174465   8.991   3.973   2.052 -1.7841 -0.9918  0.1163
23218SOL    HW274466   8.861   4.025   1.994 -0.3445  2.6432 -0.1610
23219SOL     OW74467   3.785   2.760   2.451 -0.1910  0.6203 -0.3552
23219SOL    HW174468   3.696   2.737   2.477 -0.4461  1.6165 -0.3065
23219SOL    HW274469   3.827   2.789   2.532  0.7502 -1.4703 -0.0255
23220SOL     OW74470   2.750   1.133   2.593  0.2543  0.9442 -0.8047
23220SOL    HW174471   2.780   1.160   2.506  0.5229  0.3055 -0.9165
23220SOL    HW274472   2.813   1.066   2.620  0.5143  1.5459  0.1339
23221SOL     OW74473   4.178  11.523   6.959 -0.2270 -0.0948 -0.1537
23221SOL    HW174474   4.158  11.615   6.974 -0.6051  0.0454 -1.4232
23221SOL    HW274475   4.255  11.506   7.014  0.4054  1.2227 -0.5970
23222SOL     OW74476  12.050  12.366   0.798 -0.3507 -0.3725  0.9461
23222SOL    HW174477  11.986  12.404   0.738 -0.7341 -0.5984  1.2050
23222SOL    HW274478  12.081  12.440   0.850  0.8272  0.0337 -0.2662
23223SOL     OW74479   3.255  11.260  10.905 -0.0282  0.0614  0.3577
23223SOL    HW174480   3.240  11.233  10.814 -0.1627 -0.4459  0.5302
23223SOL    HW274481   3.308  11.190  10.942 -1.5557 -0.6964  1.2101
23224SOL     OW74482  11.529   5.107  12.029 -0.0921 -0.0996 -0.3337
23224SOL    HW174483  11.533   5.031  11.971  0.1149 -1.2038  1.0558
23224SOL    HW274484  11.469   5.167  11.986 -2.5336 -2.2410 -0.1810
23225SOL     OW74485   7.894   1.239   3.439 -0.0801 -0.3042  0.5827
23225SOL    HW174486   7.905   1.323   3.482 -0.4445  0.3153 -0.4902
23225SOL    HW274487   7.860   1.181   3.507  0.1561  0.4169  1.3237
23226SOL     OW74488  10.738   7.498   2.653 -0.7311 -0.1683 -0.3701
23226SOL    HW174489  10.658   7.547   2.671 -1.7196 -1.6439 -0.6215
23226SOL    HW274490  10.708   7.412   2.625  0.9796 -1.1433  0.6677
23227SOL     OW74491  10.652   5.282  11.305 -0.2384  0.2591  0.6151
23227SOL    HW174492  10.661   5.255  11.213  0.9854 -1.5724  1.2070
23227SOL    HW274493  10.571   5.241  11.334  0.9391 -1.8382  1.1414
23228SOL     OW74494   6.449   7.852   4.926  0.3600 -0.3041  0.1020
23228SOL    HW174495   6.487   7.874   5.011  0.4584  0.8712 -0.2235
23228SOL    HW274496   6.391   7.925   4.906 -0.9842 -1.3709 -0.0804
23229SOL     OW74497   5.590  11.022   6.502 -0.6650 -0.1295  0.2123
23229SOL    HW174498   5.496  11.024   6.483 -0.4913 -1.9839 -1.1047
23229SOL    HW274499   5.605  10.935   6.538  0.6665 -0.0919 -0.2168
23230SOL     OW74500  11.802   2.267   3.895  0.6602 -0.6282  0.0227
23230SOL    HW174501  11.858   2.210   3.843  2.0956  0.0807  0.7472
23230SOL    HW274502  11.796   2.348   3.844  3.4073  0.6888  1.5703
23231SOL     OW74503   7.658   4.388   1.177 -0.1314  0.3362 -0.1421
23231SOL    HW174504   7.580   4.332   1.182 -0.1508  0.2084 -1.5862
23231SOL    HW274505   7.661   4.432   1.262 -2.6713  1.5261 -0.5913
23232SOL     OW74506  11.446  12.115   3.791 -0.0729 -0.1206  0.2554
23232SOL    HW174507  11.430  12.186   3.853 -0.1159  0.6161 -0.5744
23232SOL    HW274508  11.361  12.072   3.782 -0.5907  1.0787 -0.8595
23233SOL     OW74509  11.073  10.469   6.307  0.4051  0.4011  0.1959
23233SOL    HW174510  11.072  10.463   6.212  1.0259 -0.4965  0.2336
23233SOL    HW274511  10.980  10.473   6.332  0.2466  1.0940 -0.4576
23234SOL     OW74512   8.954   3.572  11.101  0.1478  0.5032  0.4602
23234SOL    HW174513   8.888   3.525  11.050 -0.1340  0.5651  0.7639
23234SOL    HW274514   8.944   3.663  11.074  0.6895  0.4011 -0.1248
23235SOL     OW74515   1.227   6.553   3.485 -0.2168  0.6211 -0.0426
23235SOL    HW174516   1.139   6.553   3.447 -0.5934 -0.7954  0.7777
23235SOL    HW274517   1.240   6.643   3.514 -0.9312  1.1258 -1.2024
23236SOL     OW74518   1.828  10.923  10.728 -0.1070  0.3247 -0.4278
23236SOL    HW174519   1.895  10.863  10.760  0.3814  0.5072 -1.0735
23236SOL    HW274520   1.773  10.942  10.804  1.6450  1.5831  0.5996
23237SOL     OW74521   8.060   0.550  12.366 -0.8462  0.3325  0.3297
23237SOL    HW174522   8.130   0.515  12.311 -0.9697  1.0753 -0.3122
23237SOL    HW274523   8.018   0.472  12.402  0.1716 -0.1304  0.5683
23238SOL     OW74524   9.325   2.926   4.904  0.1662 -0.1711 -0.0963
23238SOL    HW174525   9.256   2.990   4.886  1.2222  0.2845 -2.9298
23238SOL    HW274526   9.326   2.919   5.000 -0.1223  3.8999  0.3600
23239SOL     OW74527   1.114   7.676   8.648 -0.1170  0.1907 -0.0493
23239SOL    HW174528   1.187   7.645   8.703 -0.3563 -1.9484 -0.8413
23239SOL    HW274529   1.083   7.597   8.603 -0.6209  1.6696 -2.4548
23240SOL     OW74530   9.624   3.613   0.894 -0.0132  0.2892  0.2893
23240SOL    HW174531   9.549   3.563   0.860  0.1458 -0.7797  1.4287
23240SOL    HW274532   9.585   3.691   0.933 -0.2991  0.9355 -1.2040
23241SOL     OW74533   5.479   1.668  12.578  0.2142 -0.2744 -0.6603
23241SOL    HW174534   5.542   1.729  12.616 -1.7253  0.6160  1.3568
23241SOL    HW274535   5.447   1.712  12.499 -0.2081  0.7622  0.0693
23242SOL     OW74536   1.328   1.602   0.919  0.2595 -0.1354 -0.0947
23242SOL    HW174537   1.402   1.640   0.873  2.4572 -1.5591  1.9855
23242SOL    HW274538   1.314   1.517   0.876  0.9751 -0.5802  0.5177
23243SOL     OW74539  11.880  11.461   9.114 -0.3683  0.0225 -0.6541
23243SOL    HW174540  11.853  11.488   9.202 -1.1709 -2.1591 -0.1585
23243SOL    HW274541  11.973  11.483   9.110 -1.0316  3.4560 -0.6697
23244SOL     OW74542  11.646   0.971   9.777 -0.3962 -0.0436  0.2867
23244SOL    HW174543  11.669   1.062   9.792  0.3648 -0.1379 -0.2786
23244SOL    HW274544  11.624   0.966   9.684  0.0484 -0.5312  0.1991
23245SOL     OW74545   2.432  10.674  10.756  0.7242  0.1337  0.1522
23245SOL    HW174546   2.424  10.758  10.800 -1.3421 -0.1742  0.4502
23245SOL    HW274547   2.424  10.609  10.826 -0.7595 -0.3252 -0.3965
23246SOL     OW74548   6.071   3.221   7.871 -0.2420 -0.6588 -0.1130
23246SOL    HW174549   6.090   3.254   7.958 -0.8736 -0.2868 -0.1119
23246SOL    HW274550   6.062   3.126   7.882  1.0573 -0.7923 -0.0288
23247SOL     OW74551   9.922   0.647   2.802  0.1820 -0.0740 -0.0429
23247SOL    HW174552   9.993   0.630   2.741  1.4462 -0.0373  1.3587
23247SOL    HW274553   9.891   0.735   2.779  3.7994  2.0574  2.1763
23248SOL     OW74554   6.000   3.483  12.051  0.2672  0.7000 -0.1689
23248SOL    HW174555   6.087   3.444  12.056 -0.0992 -0.0227  0.9425
23248SOL    HW274556   5.960   3.442  11.974  0.7490  0.7080 -0.4278
23249SOL     OW74557  11.913   9.508   3.436  0.5162  0.0325 -0.1295
23249SOL    HW174558  12.002   9.515   3.401 -0.1243 -1.0689 -2.1654
23249SOL    HW274559  11.867   9.583   3.399  0.2544 -0.2028 -0.2846
23250SOL     OW74560   0.270   8.382   5.319  0.0666 -0.0686  0.3259
23250SOL    HW174561   0.284   8.361   5.227  0.5699  0.0267  0.3741
23250SOL    HW274562   0.359   8.393   5.354 -0.1234 -0.0378  0.8039
23251SOL     OW74563   3.237   0.511   9.949 -0.2823 -0.3300  0.2410
23251SOL    HW174564   3.154   0.556   9.964  0.9061  1.5264  1.7718
23251SOL    HW274565   3.285   0.520  10.032  1.5990 -0.9755 -0.7064
23252SOL     OW74566   6.228   1.494   0.014 -0.3705  0.0366  0.7169
23252SOL    HW174567   6.305   1.458   0.058  0.5857  1.8470  0.6103
23252SOL    HW274568   6.252   1.585  -0.005 -1.4397 -0.1505 -1.8903
23253SOL     OW74569   4.116   5.980   1.305  0.0695 -0.2964  0.6003
23253SOL    HW174570   4.197   6.028   1.317  0.9026 -1.4311 -0.2781
23253SOL    HW274571   4.052   6.047   1.278  0.5708  0.6687  1.7087
23254SOL     OW74572   3.162   6.456   0.818 -0.1076 -0.2655 -0.1390
23254SOL    HW174573   3.069   6.457   0.794  0.1061  0.4994 -0.9777
23254SOL    HW274574   3.192   6.545   0.801  0.6126 -0.3089  0.8364
23255SOL     OW74575   2.380   0.290   3.799  0.1122  0.2791 -0.3445
23255SOL    HW174576   2.348   0.309   3.711  0.0248 -0.7678 -0.5499
23255SOL    HW274577   2.473   0.270   3.788 -0.2779 -1.6844 -0.5040
23256SOL     OW74578   6.030   2.116   4.934  0.3325  0.0472 -0.4460
23256SOL    HW174579   6.097   2.118   5.003  0.5109  0.1814 -0.6179
23256SOL    HW274580   6.080   2.131   4.853  0.1895 -0.5885 -0.6558
23257SOL     OW74581   0.411  10.511   2.251 -0.3819 -0.1034 -0.5575
23257SOL    HW174582   0.425  10.496   2.344 -0.4104  0.6533 -0.4274
23257SOL    HW274583   0.324  10.476   2.234 -2.3831  3.6641  0.6965
23258SOL     OW74584   3.980   0.353   4.244  0.6231  0.7202 -0.3881
23258SOL    HW174585   4.013   0.318   4.327  1.5963  1.6053 -0.3909
23258SOL    HW274586   3.902   0.402   4.268  0.4595  0.3263 -0.1046
23259SOL     OW74587  12.546   3.632  12.409  0.2086 -0.1949 -0.4349
23259SOL    HW174588  12.575   3.545  12.436 -0.4403 -0.0331  0.8750
23259SOL    HW274589  12.461   3.616  12.367 -1.9803  0.0657  3.3834
23260SOL     OW74590   9.012   6.776  12.008 -0.9586 -0.4655 -0.3494
23260SOL    HW174591   8.978   6.805  11.923  1.9998 -0.9551 -1.8312
23260SOL    HW274592   9.088   6.831  12.024 -0.6471 -1.3064  1.3165
23261SOL     OW74593   8.381   7.132   4.852  0.3933  0.0858 -0.1918
23261SOL    HW174594   8.449   7.106   4.790 -0.8710 -0.2350 -1.4904
23261SOL    HW274595   8.378   7.228   4.845  1.9236  0.2829  1.2323
23262SOL     OW74596  11.583   5.485   3.979 -0.0832 -0.3299 -0.6950
23262SOL    HW174597  11.608   5.577   3.967 -0.0098 -0.4145 -1.1978
23262SOL    HW274598  11.665   5.437   3.971  0.2952 -0.2678  1.8979
23263SOL     OW74599   1.964   7.685   2.012 -0.2983  0.5331 -0.5178
23263SOL    HW174600   1.995   7.712   1.925 -0.4158  2.3171 -0.0297
23263SOL    HW274601   1.960   7.589   2.006  2.5264  0.3597 -1.5472
23264SOL     OW74602   6.422   9.927   9.965 -0.2494  0.0456  0.3246
23264SOL    HW174603   6.379  10.011   9.950 -1.9978 -0.7808  0.4620
23264SOL    HW274604   6.354   9.872  10.004  0.2208 -2.0715 -1.6280
23265SOL     OW74605   2.625   5.457  12.272 -0.2744 -0.5235  0.1475
23265SOL    HW174606   2.719   5.445  12.288 -0.4055 -0.8867  0.6771
23265SOL    HW274607   2.589   5.478  12.358 -0.8744 -1.7007  0.2076
23266SOL     OW74608   5.471   0.916  11.707  0.0877 -0.2837 -0.5324
23266SOL    HW174609   5.482   0.841  11.766  0.4480  1.3086  1.5401
23266SOL    HW274610   5.557   0.958  11.707 -0.2662  0.4458 -1.1993
23267SOL     OW74611   7.688   7.277   0.821 -0.6392 -0.2326  0.5193
23267SOL    HW174612   7.700   7.194   0.774 -3.1890 -0.1375 -0.5025
23267SOL    HW274613   7.730   7.342   0.765  1.0132 -0.7226  1.1209
23268SOL     OW74614   5.876   6.248   7.315  0.1474  0.4170  0.2193
23268SOL    HW174615   5.961   6.210   7.292  1.1147  2.8208 -0.4158
23268SOL    HW274616   5.892   6.296   7.396 -0.4532  1.3023 -0.1644
23269SOL     OW74617  10.078   3.940   6.752 -0.1352 -0.2569  0.2056
23269SOL    HW174618  10.056   3.887   6.676  1.4164  1.2452 -1.3883
23269SOL    HW274619  10.159   3.902   6.786  0.3532  0.3635 -0.2399
23270SOL     OW74620   9.166   2.838   6.622 -0.2235  0.1917  0.5113
23270SOL    HW174621   9.150   2.743   6.629 -1.0892  0.2788 -0.1350
23270SOL    HW274622   9.255   2.849   6.654 -0.3288 -0.7650  1.1953
23271SOL     OW74623   5.271   6.366  11.805 -0.0607 -0.4511  0.7689
23271SOL    HW174624   5.339   6.412  11.854  1.1181 -2.0691  0.7418
23271SOL    HW274625   5.288   6.389  11.714 -0.5926  0.4498  0.8894
23272SOL     OW74626   8.672   0.775   3.100 -0.0251 -0.3516 -0.0304
23272SOL    HW174627   8.644   0.847   3.045 -2.1241  1.0582  2.6482
23272SOL    HW274628   8.592   0.726   3.119  0.8120 -1.4528  0.8607
23273SOL     OW74629  12.362   7.899   2.186 -0.5121 -0.0081  0.3424
23273SOL    HW174630  12.316   7.981   2.166 -1.3636 -0.2962  1.0496
23273SOL    HW274631  12.406   7.876   2.105 -1.6617  0.2668 -0.3815
23274SOL     OW74632   1.710   8.286   7.068  0.0609  0.2023  0.1810
23274SOL    HW174633   1.678   8.298   7.158 -0.4151  1.6814 -0.1619
23274SOL    HW274634   1.641   8.236   7.024  0.2351 -0.4095  0.5795
23275SOL     OW74635   4.417   5.216   8.602 -0.2337  0.3517  0.1015
23275SOL    HW174636   4.493   5.228   8.544 -1.0279  0.6515 -0.9071
23275SOL    HW274637   4.343   5.208   8.542 -0.6857 -2.8562  0.9141
23276SOL     OW74638  11.869  12.291   7.295 -0.2926 -0.2499 -0.2500
23276SOL    HW174639  11.934  12.228   7.263 -0.9667 -1.0780 -0.0308
23276SOL    HW274640  11.852  12.348   7.221  1.1379  0.3690 -0.1290
23277SOL     OW74641  10.018   2.786   2.928 -0.0297 -0.2772 -0.3131
23277SOL    HW174642   9.927   2.810   2.914 -0.1868 -0.1621  0.8258
23277SOL    HW274643  10.041   2.735   2.850 -0.3919  1.4928 -1.6401
23278SOL     OW74644  10.175   5.269   3.409  0.1776  0.1317  0.2460
23278SOL    HW174645  10.080   5.272   3.420  0.1306  0.9134 -0.2586
23278SOL    HW274646  10.188   5.232   3.322  0.3582 -0.5292  0.5505
23279SOL     OW74647   5.563   1.614   2.831  0.5550  0.4173 -0.0249
23279SOL    HW174648   5.643   1.592   2.783  2.1477  1.5118  1.9909
23279SOL    HW274649   5.536   1.699   2.795  0.2064 -0.0045 -0.7824
23280SOL     OW74650   4.643   5.298   2.492 -0.1605 -0.6009 -0.0029
23280SOL    HW174651   4.628   5.214   2.451 -1.5991  0.1044 -0.9937
23280SOL    HW274652   4.561   5.318   2.537 -0.0745  0.5625 -0.3312
23281SOL     OW74653   5.050   4.275   5.266 -0.3689  0.0868 -0.1892
23281SOL    HW174654   5.020   4.250   5.179 -1.1969 -3.3874  0.9262
23281SOL    HW274655   5.144   4.257   5.266 -0.7396 -2.1600  0.2042
23282SOL     OW74656   5.558   2.417   5.144  0.2621  0.2195 -0.3048
23282SOL    HW174657   5.602   2.356   5.085 -0.2938  0.9007 -1.4609
23282SOL    HW274658   5.626   2.477   5.173  0.4628  0.1200 -0.5734
23283SOL     OW74659   4.382   4.859   7.388 -0.4975  0.6248 -0.2991
23283SOL    HW174660   4.408   4.943   7.349 -0.9287  0.3912 -1.1138
23283SOL    HW274661   4.312   4.827   7.332 -0.6049 -0.1036  0.2317
23284SOL     OW74662   8.883   4.219   1.557  0.5205  0.1603 -0.0507
23284SOL    HW174663   8.912   4.133   1.587 -0.1389 -0.6887 -1.7044
23284SOL    HW274664   8.928   4.281   1.614  0.7764 -1.2712  1.3881
23285SOL     OW74665  10.006  12.316  11.119  0.0154 -0.6049  0.1904
23285SOL    HW174666  10.003  12.409  11.140  0.3248 -0.9619  1.9396
23285SOL    HW274667   9.921  12.298  11.079 -0.0406  0.4185 -0.1843
23286SOL     OW74668   5.907   0.804   9.775  0.2219 -0.7277 -0.5487
23286SOL    HW174669   5.912   0.889   9.731  0.6374  0.0424  0.9127
23286SOL    HW274670   5.865   0.824   9.859  2.0151 -1.6319  0.6042
23287SOL     OW74671  11.000   9.842   0.288  0.6094  0.0740 -0.2604
23287SOL    HW174672  11.077   9.786   0.301  2.0426  2.2540  1.3887
23287SOL    HW274673  10.966   9.856   0.377  0.9269  2.5551 -0.4596
23288SOL     OW74674  10.554   8.345   6.323  0.2774 -0.0982  0.1080
23288SOL    HW174675  10.493   8.297   6.378  0.1350 -2.6219 -2.0524
23288SOL    HW274676  10.508   8.426   6.300 -0.5809 -0.0944  1.7053
23289SOL     OW74677   4.644   0.700   0.087 -0.0294 -0.5989 -0.1945
23289SOL    HW174678   4.669   0.762   0.019  0.7800 -0.3033  0.3759
23289SOL    HW274679   4.592   0.634   0.040  0.0871 -0.1256 -1.0039
23290SOL     OW74680   1.880   2.828   5.707 -0.0651 -0.0332 -0.1585
23290SOL    HW174681   1.913   2.741   5.684 -0.5467 -0.5037  0.8814
23290SOL    HW274682   1.785   2.818   5.709 -0.0586 -0.0403  2.0010
23291SOL     OW74683   8.651   8.299   0.440 -0.2620 -0.4549  0.4760
23291SOL    HW174684   8.716   8.233   0.413 -0.3124 -0.2736 -0.0881
23291SOL    HW274685   8.683   8.329   0.525  0.9201  0.3115 -0.2111
23292SOL     OW74686   6.917  10.739   0.708 -0.0120 -0.4626 -0.7268
23292SOL    HW174687   6.876  10.712   0.790 -0.2168  0.1073 -0.6397
23292SOL    HW274688   7.001  10.777   0.735  1.0975 -2.5895 -0.9774
23293SOL     OW74689   9.340   7.170   9.851  0.1572 -0.3403  0.0717
23293SOL    HW174690   9.343   7.260   9.816  0.5347 -0.3548  0.0623
23293SOL    HW274691   9.410   7.167   9.915  0.2642 -0.6861 -0.0601
23294SOL     OW74692  10.406   1.754   9.179  0.6625  0.0911 -0.5474
23294SOL    HW174693  10.439   1.825   9.234  0.7993 -0.2584 -0.1740
23294SOL    HW274694  10.484   1.705   9.154  0.4659 -0.4892 -0.0146
23295SOL     OW74695   0.378   3.559   2.492  0.2059 -0.2941  0.2292
23295SOL    HW174696   0.361   3.552   2.586  0.0757 -0.6001  0.1819
23295SOL    HW274697   0.307   3.615   2.459 -1.1657 -2.1181 -0.0819
23296SOL     OW74698   7.478   6.955   6.265  0.1011 -0.1163 -0.0789
23296SOL    HW174699   7.455   6.945   6.357 -1.4619 -2.2686 -0.6293
23296SOL    HW274700   7.402   6.996   6.225  0.5217  0.2439 -0.5268
23297SOL     OW74701   5.487   7.933   2.733  0.2142 -0.2878 -0.2657
23297SOL    HW174702   5.541   7.970   2.663 -1.1731  1.6799 -0.3848
23297SOL    HW274703   5.463   7.846   2.701 -0.2622  0.5047 -2.2317
23298SOL     OW74704  12.517   1.592   3.082  0.3819 -0.3333 -0.2930
23298SOL    HW174705  12.478   1.506   3.096  1.9417 -1.1414 -0.7342
23298SOL    HW274706  12.506   1.637   3.166 -3.2253  0.2926 -0.9067
23299SOL     OW74707   1.663   5.351   7.305 -0.8941  0.4793 -0.0486
23299SOL    HW174708   1.748   5.323   7.341  0.0905  1.2412 -1.6476
23299SOL    HW274709   1.679   5.362   7.212 -3.2371 -0.9784 -0.7077
23300SOL     OW74710   8.151  11.332   6.455 -0.1490 -0.0692  0.4323
23300SOL    HW174711   8.158  11.308   6.548 -2.6612  0.0362  0.7289
23300SOL    HW274712   8.164  11.427   6.455 -1.0175  0.0682  0.8495
23301SOL     OW74713   9.008  12.023  11.027 -0.0801 -0.0836  0.4465
23301SOL    HW174714   9.001  12.105  10.978 -1.3847 -0.2444  0.3306
23301SOL    HW274715   8.928  11.974  11.004  1.0225 -1.7403 -0.1201
23302SOL     OW74716   7.121   8.138   8.881  0.6159  0.2821 -0.2262
23302SOL    HW174717   7.079   8.056   8.907  3.2125 -0.8321  0.8745
23302SOL    HW274718   7.180   8.112   8.809 -0.0811  1.6520 -1.3397
23303SOL     OW74719   9.953   9.034   2.846  0.1330  0.0293 -0.4386
23303SOL    HW174720   9.942   9.122   2.880  1.6262  0.0011  0.1921
23303SOL    HW274721   9.897   8.979   2.902  1.1789  0.2359  0.8547
23304SOL     OW74722   9.751   7.623   8.684  0.0318 -0.3891 -0.0149
23304SOL    HW174723   9.699   7.702   8.668  2.4051  1.4725  0.7470
23304SOL    HW274724   9.768   7.587   8.597 -3.0131 -1.5144 -0.2580
23305SOL     OW74725  12.536   6.416   8.048  0.0347 -0.2365 -0.0544
23305SOL    HW174726  12.547   6.451   7.960  0.9454  0.6797  0.3967
23305SOL    HW274727  12.466   6.469   8.086  0.0218 -0.2648 -0.0401
23306SOL     OW74728   5.245  10.953  10.214 -0.1427  0.0414 -0.0825
23306SOL    HW174729   5.317  10.901  10.248 -1.7873 -1.3382  1.4603
23306SOL    HW274730   5.271  11.044  10.229  1.2258 -0.4316  0.4981
23307SOL     OW74731   1.563   3.368  10.076 -0.6955 -0.0750 -0.0357
23307SOL    HW174732   1.499   3.404  10.137 -0.5526  1.6155 -0.8194
23307SOL    HW274733   1.647   3.383  10.118 -0.6673 -0.0763 -0.0916
23308SOL     OW74734  10.508   1.476   1.964 -0.3370  0.0618  0.0074
23308SOL    HW174735  10.444   1.409   1.988  0.0927 -0.4391 -0.2232
23308SOL    HW274736  10.548   1.502   2.047  0.3741 -0.8794 -0.0232
23309SOL     OW74737   4.834   7.058   5.206  0.5048  0.1047 -0.4257
23309SOL    HW174738   4.907   7.079   5.149  0.6842 -0.3754 -0.3722
23309SOL    HW274739   4.824   6.963   5.200 -2.1851  0.3995 -2.9550
23310SOL     OW74740   2.687   7.491   0.818 -0.3111 -0.9526 -0.4844
23310SOL    HW174741   2.652   7.579   0.832 -1.0665 -1.0120 -1.8230
23310SOL    HW274742   2.622   7.433   0.857 -0.3626 -0.9563 -0.5753
23311SOL     OW74743   0.922  11.452   1.053  0.8114  0.2456 -0.0408
23311SOL    HW174744   0.834  11.487   1.038  0.6328  0.3740  1.1733
23311SOL    HW274745   0.971  11.525   1.090  0.8060 -0.3861  1.2790
23312SOL     OW74746  12.078  11.823  10.661  0.0865  0.2520 -0.1518
23312SOL    HW174747  12.135  11.878  10.714 -0.8539 -0.1354  1.3334
23312SOL    HW274748  12.046  11.756  10.722 -2.0526  0.5453 -0.8653
23313SOL     OW74749   6.591   2.812   9.687 -0.3001  0.0282 -0.4440
23313SOL    HW174750   6.671   2.770   9.655 -0.7145  0.1319 -1.6588
23313SOL    HW274751   6.582   2.890   9.633 -1.1324  0.1077 -0.1952
23314SOL     OW74752   9.996   2.965   2.269  0.5193  0.3094  0.0479
23314SOL    HW174753   9.940   2.894   2.301  1.0351  0.0200  0.3367
23314SOL    HW274754   9.992   3.031   2.338  0.8580  0.1073  0.2656
23315SOL     OW74755  11.653   7.649   2.717 -0.3097  0.3234 -0.3417
23315SOL    HW174756  11.684   7.713   2.780 -0.8028  0.6857 -0.4669
23315SOL    HW274757  11.586   7.694   2.667 -0.8465 -0.3687 -0.2633
23316SOL     OW74758   7.880  12.371   7.545 -0.2169  0.1295  0.4522
23316SOL    HW174759   7.787  12.392   7.532 -0.2612  0.7673  1.6704
23316SOL    HW274760   7.920  12.388   7.460 -1.1413  0.2270  0.0151
23317SOL     OW74761  10.455   2.100   0.897  0.7106  0.5005  0.0556
23317SOL    HW174762  10.477   2.092   0.804  0.8523  0.4000  0.0990
23317SOL    HW274763  10.472   2.192   0.918  0.8769  0.4748  0.0345
23318SOL     OW74764   9.827  12.609  10.738  0.1741 -0.4615 -0.0235
23318SOL    HW174765   9.793  12.570  10.657  0.1555  2.5389 -1.6124
23318SOL    HW274766   9.920  12.625  10.721  0.8358 -2.1893  1.6295
23319SOL     OW74767  12.261   2.256   2.661 -0.6021  0.1061 -0.2432
23319SOL    HW174768  12.327   2.205   2.707 -0.1563 -0.6713 -1.6710
23319SOL    HW274769  12.213   2.191   2.609 -2.7620  0.5865  1.0477
23320SOL     OW74770   7.474   9.520   6.175 -0.1656  0.4491 -0.4718
23320SOL    HW174771   7.475   9.468   6.094 -0.8251 -0.9551  0.4029
23320SOL    HW274772   7.506   9.461   6.242 -0.4738  1.3349  0.4814
23321SOL     OW74773   5.469  12.237   4.373 -0.7423  0.9880  0.2611
23321SOL    HW174774   5.537  12.232   4.440 -1.3015  0.8209  0.8248
23321SOL    HW274775   5.390  12.261   4.421 -1.2899  0.2408 -0.2432
23322SOL     OW74776   0.170   2.321   6.609 -0.1745  0.8346 -0.0388
23322SOL    HW174777   0.204   2.234   6.589 -0.1347  0.2222  2.3191
23322SOL    HW274778   0.203   2.377   6.539  3.1618 -0.2981  0.4375
23323SOL     OW74779   7.347   4.812  10.346  0.0089  0.9400  0.0628
23323SOL    HW174780   7.291   4.890  10.351  0.0069  1.0729 -1.4232
23323SOL    HW274781   7.398   4.825  10.265  1.2422  0.1974  0.6980
23324SOL     OW74782   8.895   1.271   4.847 -0.5207  0.4794 -0.6518
23324SOL    HW174783   8.969   1.211   4.856 -0.3411  0.6698 -0.8744
23324SOL    HW274784   8.824   1.228   4.896  0.0855  0.9026  0.6425
23325SOL     OW74785  10.624   0.113   1.513 -0.9777 -0.3304  0.0498
23325SOL    HW174786  10.654   0.118   1.422 -0.9880 -1.9865 -0.0797
23325SOL    HW274787  10.641   0.200   1.549  1.4141 -0.3812 -0.8013
23326SOL     OW74788   3.827   7.728  10.146 -0.2194  0.1138 -0.2455
23326SOL    HW174789   3.757   7.723  10.211 -0.5870 -0.7290 -0.6907
23326SOL    HW274790   3.896   7.671  10.180 -0.0521  0.3644 -0.1642
23327SOL     OW74791   0.850   4.816   5.173 -0.1009 -0.0426 -0.3798
23327SOL    HW174792   0.851   4.848   5.083 -0.1187 -0.0950 -0.3986
23327SOL    HW274793   0.799   4.881   5.222  0.4004  0.2901 -0.2958
23328SOL     OW74794   6.293   0.077   5.399 -0.4219  0.1113  0.6809
23328SOL    HW174795   6.203   0.059   5.372 -0.1268  0.4726 -0.5759
23328SOL    HW274796   6.340   0.095   5.318  1.3486 -2.3933  1.0149
23329SOL     OW74797   0.065   4.401  12.455  0.1324  0.0579 -0.0714
23329SOL    HW174798   0.101   4.383  12.542  1.7080  1.2233 -0.4289
23329SOL    HW274799   0.110   4.480  12.427 -2.3686  1.3456 -0.8181
23330SOL     OW74800   4.155   2.701  10.250  0.1697  0.5963 -0.4600
23330SOL    HW174801   4.064   2.678  10.269  0.5023 -0.1241  0.3066
23330SOL    HW274802   4.193   2.622  10.212  0.9166  0.3182  0.7910
23331SOL     OW74803   7.632  10.785   1.403 -0.0336 -0.3595 -0.2126
23331SOL    HW174804   7.601  10.727   1.334 -1.6818 -0.5914  0.6592
23331SOL    HW274805   7.620  10.873   1.368 -0.9598 -0.4743 -0.2106
23332SOL     OW74806   2.002   4.311  11.986  0.1488 -0.4498 -0.3665
23332SOL    HW174807   2.014   4.353  12.072  1.8676  0.0918 -0.8277
23332SOL    HW274808   1.951   4.375  11.935  1.3577  0.3996 -0.5501
23333SOL     OW74809   5.468   8.514   6.283  0.1091 -0.2150 -0.2467
23333SOL    HW174810   5.526   8.475   6.218  0.1734 -0.1763 -0.2126
23333SOL    HW274811   5.393   8.454   6.287 -0.5559  0.5159 -1.3736
23334SOL     OW74812   5.942   4.632  10.227  0.1346  0.6057 -0.0339
23334SOL    HW174813   5.920   4.539  10.226 -0.5875  0.7602 -1.6838
23334SOL    HW274814   5.904   4.667  10.146 -1.3242  2.7389  1.4556
23335SOL     OW74815  12.500   2.324   6.552 -0.5296  0.1728 -0.1507
23335SOL    HW174816  12.491   2.231   6.529 -0.7222  0.0739  0.3224
23335SOL    HW274817  12.565   2.326   6.621 -0.8825  0.3379  0.1802
23336SOL     OW74818   6.393   4.976   5.220  0.0884  0.0563  0.2309
23336SOL    HW174819   6.352   4.927   5.149  1.1435 -1.2810  0.5058
23336SOL    HW274820   6.464   4.920   5.250  1.4837  1.8424  0.4349
23337SOL     OW74821   5.637   4.949  10.335 -0.0590  0.5705 -0.4473
23337SOL    HW174822   5.571   4.880  10.334 -1.0430  1.4804  0.0450
23337SOL    HW274823   5.620   4.997  10.417 -0.7382  2.6620 -1.7464
23338SOL     OW74824  11.296   3.184   8.178  0.7848 -0.1258  0.6559
23338SOL    HW174825  11.287   3.090   8.198  1.2684 -0.1537  0.7432
23338SOL    HW274826  11.206   3.216   8.179  0.5419 -0.7426 -0.1261
23339SOL     OW74827   8.703  12.057   7.281  0.3058 -0.1684 -0.1900
23339SOL    HW174828   8.642  12.029   7.212 -1.6054  0.3389  1.2183
23339SOL    HW274829   8.733  12.144   7.253  1.2921 -0.8639 -1.4237
23340SOL     OW74830  10.461   6.526   1.251  0.3814  0.2449  0.4569
23340SOL    HW174831  10.478   6.516   1.344 -2.3410  1.4750  1.1797
23340SOL    HW274832  10.523   6.594   1.222  1.6049 -0.5187  1.2067
23341SOL     OW74833   0.147  12.500   1.441 -0.0067 -0.4665 -0.1146
23341SOL    HW174834   0.090  12.430   1.409 -0.1807 -0.5574  0.3911
23341SOL    HW274835   0.216  12.454   1.489 -0.0757 -0.2922  0.1476
23342SOL     OW74836   7.308   2.610   5.735 -0.1605 -0.2229  0.0191
23342SOL    HW174837   7.232   2.565   5.697 -1.5570  2.5885 -0.8471
23342SOL    HW274838   7.307   2.586   5.827 -1.0818 -1.5719 -0.3122
23343SOL     OW74839   9.052   3.645  11.531 -0.2609  0.6710  0.5589
23343SOL    HW174840   8.985   3.712  11.549  0.8213  2.9897 -2.9910
23343SOL    HW274841   9.007   3.577  11.482 -0.3480  1.6857 -0.8383
23344SOL     OW74842  11.400   2.528   2.986 -0.6172 -0.3806  0.6941
23344SOL    HW174843  11.400   2.610   3.036 -1.0421  0.7556 -1.0736
23344SOL    HW274844  11.466   2.474   3.029 -0.3930  0.8383  1.9809
23345SOL     OW74845   9.742   2.407   2.390  0.2824 -0.5805  0.5031
23345SOL    HW174846   9.701   2.485   2.427 -0.8196 -0.6886 -0.4426
23345SOL    HW274847   9.734   2.418   2.295 -1.9644 -2.8596  0.3143
23346SOL     OW74848   7.938   1.035   8.260  0.2286 -0.2626  0.1136
23346SOL    HW174849   7.902   0.955   8.299  0.6898  0.1901  1.5398
23346SOL    HW274850   8.014   1.006   8.210 -0.5224 -0.8946 -0.6872
23347SOL     OW74851   2.723   6.109   1.854  0.2242 -0.4358  0.0765
23347SOL    HW174852   2.786   6.172   1.819 -1.9007  2.3241  0.8587
23347SOL    HW274853   2.775   6.031   1.873  3.1248  1.2137 -0.4891
23348SOL     OW74854   0.397   4.576   5.374  0.0902  0.4258 -0.0368
23348SOL    HW174855   0.394   4.503   5.437  0.0623  1.2271  0.9031
23348SOL    HW274856   0.305   4.599   5.360  0.1108  0.4265 -0.1731
23349SOL     OW74857  11.478   4.235   8.062  0.4488  0.3638  0.6078
23349SOL    HW174858  11.553   4.214   8.006  0.6362 -0.2674  1.0854
23349SOL    HW274859  11.500   4.320   8.100  1.8649 -0.6934  2.2866
23350SOL     OW74860   9.988   0.739   8.897  0.5893  0.8597  0.2681
23350SOL    HW174861  10.039   0.799   8.951  0.1211  1.3253  0.1992
23350SOL    HW274862   9.908   0.788   8.875 -1.3393 -0.8861  2.8544
23351SOL     OW74863   4.701  11.895   3.159  0.2478 -0.2879  0.0733
23351SOL    HW174864   4.758  11.834   3.205  0.9033 -0.6869 -1.2124
23351SOL    HW274865   4.630  11.841   3.124  0.3570 -0.1870 -0.3166
23352SOL     OW74866   1.401   5.696   5.324 -0.2567 -0.4514 -0.2750
23352SOL    HW174867   1.311   5.687   5.293 -0.2103 -0.6846 -0.3516
23352SOL    HW274868   1.453   5.700   5.243 -0.2992  0.8862 -0.2493
23353SOL     OW74869   3.541   5.160   4.042  0.2610  0.2216  0.6628
23353SOL    HW174870   3.448   5.167   4.065  0.4249  1.9868  0.9263
23353SOL    HW274871   3.584   5.138   4.125  0.0275 -1.5131  0.3713
23354SOL     OW74872   3.123   6.053   0.826 -0.0480  0.1828  0.3763
23354SOL    HW174873   3.030   6.039   0.810 -0.0194  1.0434 -0.7014
23354SOL    HW274874   3.164   5.969   0.807 -0.4933  0.0987 -0.2451
23355SOL     OW74875   3.567   7.674   3.358 -0.1577 -0.7205 -0.3552
23355SOL    HW174876   3.602   7.613   3.424  1.9655 -0.9588 -1.6124
23355SOL    HW274877   3.531   7.747   3.409  0.4985 -1.3639  1.0833
23356SOL     OW74878   4.260   9.192   3.812  0.2533 -0.3568  0.4125
23356SOL    HW174879   4.197   9.132   3.772  0.7571 -1.1623  0.8000
23356SOL    HW274880   4.306   9.138   3.876  0.0333  0.6964  1.4856
23357SOL     OW74881  12.086  10.534   5.209 -0.4204 -0.1538 -0.0503
23357SOL    HW174882  12.169  10.580   5.195 -0.6085 -0.4856 -2.9479
23357SOL    HW274883  12.058  10.560   5.296  1.1613  2.4898 -0.2385
23358SOL     OW74884   5.064  10.323   8.830  0.1554 -0.0542  0.3229
23358SOL    HW174885   5.072  10.231   8.804  2.0164  0.4279 -1.0587
23358SOL    HW274886   5.148  10.343   8.871  0.6209  1.5202 -1.2510
23359SOL     OW74887   1.701   2.386   8.169 -0.0534  0.0511  0.0603
23359SOL    HW174888   1.701   2.423   8.258 -0.8837  1.7641 -0.5917
23359SOL    HW274889   1.609   2.377   8.147  0.1471 -1.1550 -0.3401
23360SOL     OW74890   1.999   4.210   5.139  0.2193 -0.0849  0.0097
23360SOL    HW174891   1.997   4.191   5.045  1.2211 -0.4452  0.0508
23360SOL    HW274892   1.942   4.286   5.149  0.2121  0.0425 -0.9117
23361SOL     OW74893   4.593   3.606   2.963 -0.1804  0.0851 -0.0655
23361SOL    HW174894   4.630   3.625   2.876 -0.5199  1.5170  0.0694
23361SOL    HW274895   4.499   3.594   2.946  0.0643 -2.0076 -0.1948
23362SOL     OW74896   9.884  12.201  10.743  0.3712 -0.5942  0.4637
23362SOL    HW174897   9.819  12.245  10.688  2.0939  0.8421 -0.5524
23362SOL    HW274898   9.840  12.121  10.773 -2.2860  0.9195  0.9270
23363SOL     OW74899  10.250   8.349   6.141  0.4546 -0.3339  0.8599
23363SOL    HW174900  10.313   8.403   6.189  0.2301  0.4284  0.3171
23363SOL    HW274901  10.275   8.357   6.049  0.1785 -0.8428  0.7344
23364SOL     OW74902   4.283   2.917   9.566 -0.0080 -0.1047 -0.2512
23364SOL    HW174903   4.357   2.978   9.570  1.8258 -2.2091 -0.0871
23364SOL    HW274904   4.264   2.907   9.473 -0.4734  0.8508 -0.2694
23365SOL     OW74905   4.283   2.380   7.302  0.7689 -0.3422 -0.6588
23365SOL    HW174906   4.375   2.400   7.288  0.5292  0.5583 -1.0066
23365SOL    HW274907   4.249   2.456   7.350  0.2542 -0.7539 -0.3581
23366SOL     OW74908   4.271   2.587   9.530  0.7639  0.0027  0.1734
23366SOL    HW174909   4.302   2.521   9.468 -3.1067 -0.4879 -1.5975
23366SOL    HW274910   4.271   2.669   9.480 -2.6696 -0.4491 -0.8616
23367SOL     OW74911   0.382   1.248   8.578  0.0308 -0.1717  0.0725
23367SOL    HW174912   0.389   1.160   8.616  1.5990 -0.0909  0.0156
23367SOL    HW274913   0.392   1.234   8.483 -3.1012 -0.2836 -0.3472
23368SOL     OW74914   5.658  11.717   6.828 -0.6339 -0.3575 -0.1244
23368SOL    HW174915   5.675  11.701   6.735  1.0131 -0.0263  0.0893
23368SOL    HW274916   5.595  11.650   6.853 -0.5662 -0.8923 -1.3181
23369SOL     OW74917   7.481   3.030   1.148 -0.4957 -0.1826  0.1759
23369SOL    HW174918   7.530   3.095   1.198  0.7404 -1.8724  1.2858
23369SOL    HW274919   7.402   3.015   1.199  0.4062 -1.3363  1.3169
23370SOL     OW74920  10.089  11.433   4.981 -0.2155  0.2529  0.1720
23370SOL    HW174921   9.998  11.426   4.953  0.1602 -3.6191 -0.6572
23370SOL    HW274922  10.108  11.348   5.022  3.5079  0.1445 -1.3677
23371SOL     OW74923  11.073   7.754   5.433 -0.1088 -0.2973 -0.1094
23371SOL    HW174924  11.135   7.806   5.482 -1.1125  0.4616  0.3871
23371SOL    HW274925  11.103   7.664   5.443  0.3100 -0.0424  0.9966
23372SOL     OW74926   1.341  10.728  10.314 -0.1689 -0.2186 -0.1391
23372SOL    HW174927   1.413  10.791  10.315 -0.1768 -0.2141  0.0655
23372SOL    HW274928   1.365  10.666  10.244 -0.1679  0.0153 -0.3489
23373SOL     OW74929  11.046   5.457   9.774  0.1712  0.5416  0.3314
23373SOL    HW174930  11.099   5.483   9.850 -0.4998 -0.9121  1.3578
23373SOL    HW274931  10.960   5.439   9.811  0.1299 -1.3269 -0.5620
23374SOL     OW74932   1.484   0.837   0.483 -0.2820 -0.6801 -0.2162
23374SOL    HW174933   1.399   0.805   0.454  0.5448 -2.1126 -1.1667
23374SOL    HW274934   1.500   0.915   0.429 -2.2834  1.5123  2.0842
23375SOL     OW74935   7.312   3.874   1.467 -0.6768  0.0427  0.1463
23375SOL    HW174936   7.309   3.883   1.372  3.2907 -0.8146 -0.2267
23375SOL    HW274937   7.280   3.786   1.484  0.4980 -0.5696 -0.6709
23376SOL     OW74938   6.951   4.828   3.042 -0.0954  0.4780  0.1308
23376SOL    HW174939   6.888   4.819   2.971  2.2098 -1.4624 -1.8243
23376SOL    HW274940   7.005   4.903   3.017 -1.1994  1.8096  1.5411
23377SOL     OW74941   1.610   3.418   9.664 -0.2714 -0.5525  0.2429
23377SOL    HW174942   1.576   3.501   9.630 -0.4309 -0.8226 -0.2683
23377SOL    HW274943   1.659   3.442   9.742  1.0111  0.2283 -0.7608
23378SOL     OW74944  11.795   7.588   2.209  0.1124  0.4706  0.6934
23378SOL    HW174945  11.767   7.586   2.301 -2.2201 -0.9002  0.0362
23378SOL    HW274946  11.873   7.532   2.207  1.6119  2.3725  2.1706
23379SOL     OW74947  11.929   5.158   3.417 -0.0362 -0.1987  0.1175
23379SOL    HW174948  11.889   5.072   3.426 -1.5160  0.4916  0.4194
23379SOL    HW274949  11.886   5.212   3.483 -1.3148  1.5148 -1.9683
23380SOL     OW74950   9.432   7.491  12.420  0.2754  0.4250  0.4350
23380SOL    HW174951   9.501   7.476  12.485  1.6325  0.9885 -0.8219
23380SOL    HW274952   9.384   7.568  12.453  2.9996  2.8283 -0.7342
23381SOL     OW74953   6.069   3.950   4.557 -0.2229  0.0253 -0.1452
23381SOL    HW174954   6.147   3.949   4.612 -1.0585 -0.9746  1.0847
23381SOL    HW274955   6.073   3.867   4.509 -0.2813  0.2019 -0.4580
23382SOL     OW74956   3.601  10.214   0.520  0.6782 -0.3695 -0.0043
23382SOL    HW174957   3.585  10.217   0.614 -1.1843 -0.3837 -0.2796
23382SOL    HW274958   3.656  10.137   0.507 -0.0043 -1.0403  0.9604
23383SOL     OW74959   8.646   5.930   2.547 -0.2463  0.7972  0.2446
23383SOL    HW174960   8.719   5.992   2.548 -0.6727  1.4470 -1.9570
23383SOL    HW274961   8.579   5.969   2.602 -0.2293  1.9572 -0.5333
23384SOL     OW74962   5.404   5.814   0.808  0.2566  0.1198 -0.2121
23384SOL    HW174963   5.423   5.907   0.818 -0.0856  0.1789 -0.0903
23384SOL    HW274964   5.483   5.770   0.839  0.3826  0.3671 -0.1762
23385SOL     OW74965  11.179   4.709   8.511 -0.5528  0.1134  0.4486
23385SOL    HW174966  11.142   4.686   8.425 -0.5950 -2.1348  1.0094
23385SOL    HW274967  11.103   4.728   8.565 -0.5932  0.1819  0.3692
23386SOL     OW74968   6.553  11.751  12.200 -0.2199  0.3567  0.1094
23386SOL    HW174969   6.521  11.660  12.204 -0.0352  0.3274  2.0006
23386SOL    HW274970   6.584  11.769  12.289  2.2605  1.3890 -0.8698
23387SOL     OW74971   1.706   7.359   2.812  0.7348 -0.4151 -0.1201
23387SOL    HW174972   1.620   7.318   2.798  1.0750 -0.5600 -2.0296
23387SOL    HW274973   1.726   7.401   2.729  0.1565  4.2565  1.7939
23388SOL     OW74974  10.869  10.932   3.905  0.0925 -0.3534 -0.7352
23388SOL    HW174975  10.889  10.989   3.831  1.9462  1.1960  0.8453
23388SOL    HW274976  10.950  10.883   3.921 -0.6151 -1.4491 -0.3639
23389SOL     OW74977   3.100  12.643   3.906  0.2241  0.6539  0.8307
23389SOL    HW174978   3.079  12.726   3.948  2.7137  2.1588 -0.6472
23389SOL    HW274979   3.102  12.663   3.813 -1.8042 -1.7909  0.1500
23390SOL     OW74980   3.101   6.931  10.284 -0.8658  0.1935 -0.2876
23390SOL    HW174981   3.034   6.956  10.220 -2.0850 -0.0672  0.8206
23390SOL    HW274982   3.120   6.839  10.265 -0.8492  0.2600 -0.5921
23391SOL     OW74983   5.514  11.469  12.361  0.0636  0.3157  0.4372
23391SOL    HW174984   5.546  11.494  12.448  1.8711  1.3510 -0.4740
23391SOL    HW274985   5.568  11.519  12.300 -0.7929 -0.8044 -1.3177
23392SOL     OW74986   1.975  10.360  11.317  0.3963 -0.0039  0.3434
23392SOL    HW174987   2.020  10.431  11.363 -1.3623  0.8064  0.8779
23392SOL    HW274988   2.046  10.308  11.280  1.7595  1.5272  0.6707
23393SOL     OW74989   4.047   4.653   6.637 -0.0742 -0.0588  0.5162
23393SOL    HW174990   3.990   4.602   6.695  1.5859 -0.5884  1.7843
23393SOL    HW274991   4.013   4.742   6.642 -0.2792 -0.1969  1.9257
23394SOL     OW74992   1.579   3.126   5.007  0.2224  0.2166  0.6867
23394SOL    HW174993   1.529   3.158   5.082 -0.3261  0.6678  0.1446
23394SOL    HW274994   1.515   3.122   4.936  1.2106  2.1743 -0.4097
23395SOL     OW74995   0.764  12.270   5.867  0.2920 -0.3114 -0.1090
23395SOL    HW174996   0.714  12.271   5.785  1.9811  0.5562 -1.1823
23395SOL    HW274997   0.706  12.314   5.930  0.3110  2.2902 -1.7375
23396SOL     OW74998  11.034   0.363   9.256  0.9498  0.4068 -0.2292
23396SOL    HW174999  10.980   0.434   9.221  1.4931  2.5476  2.8707
23396SOL    HW275000  11.052   0.308   9.181 -1.2788  2.3933 -2.4034
23397SOL     OW75001   3.458   0.119  11.338  0.2827 -0.1451 -0.4329
23397SOL    HW175002   3.514   0.084  11.407  1.8940 -0.3672 -1.7908
23397SOL    HW275003   3.510   0.110  11.258 -0.3250  2.7603 -1.2901
23398SOL     OW75004   9.695  12.600  10.470  0.4882 -0.6508 -0.7089
23398SOL    HW175005   9.614  12.551  10.483  1.0481 -1.1087  1.5029
23398SOL    HW275006   9.747  12.544  10.411 -0.1338 -1.1590 -0.7899
23399SOL     OW75007   8.219   7.775   7.576 -0.5991  0.3588  0.1338
23399SOL    HW175008   8.241   7.837   7.506  0.6653  1.2421  1.2761
23399SOL    HW275009   8.163   7.826   7.635  0.1590  0.3280  0.8956
23400SOL     OW75010   0.377   0.653   9.271 -0.1401  0.4711 -0.4234
23400SOL    HW175011   0.341   0.731   9.228 -0.4020  0.2242 -0.6500
23400SOL    HW275012   0.410   0.599   9.199 -0.2988  0.1993 -0.2908
23401SOL     OW75013  12.641   2.920   9.715 -0.1314  0.6627  0.2089
23401SOL    HW175014  12.574   2.862   9.679  1.0815 -1.1114  0.6912
23401SOL    HW275015  12.701   2.936   9.643 -0.8994  2.0696 -0.1593
23402SOL     OW75016   2.245   2.055  12.389  0.6495  0.3748 -0.0751
23402SOL    HW175017   2.165   2.008  12.412  0.6340  0.5464  0.2250
23402SOL    HW275018   2.233   2.079  12.297  0.9263 -0.7460 -0.4173
23403SOL     OW75019   6.504   4.928   8.075  0.3211 -0.1021  0.0294
23403SOL    HW175020   6.468   5.010   8.041 -0.7805 -0.8665 -0.7495
23403SOL    HW275021   6.463   4.860   8.020  1.4386 -1.1513  0.4524
23404SOL     OW75022   2.724   2.791  11.755  0.1863  0.1408  0.1874
23404SOL    HW175023   2.645   2.748  11.720  0.4893 -0.9576  0.8042
23404SOL    HW275024   2.693   2.838  11.833 -0.1484  1.0788 -0.4948
23405SOL     OW75025   9.876   0.833   6.703 -0.8660 -0.1615  0.3174
23405SOL    HW175026   9.915   0.828   6.616 -0.4720 -0.5821  0.5135
23405SOL    HW275027   9.828   0.751   6.712 -0.7017 -0.2274  0.5929
23406SOL     OW75028   0.183   0.689   3.497  0.3546 -0.3143  0.0800
23406SOL    HW175029   0.119   0.622   3.472  0.9201 -0.6009 -0.6282
23406SOL    HW275030   0.172   0.758   3.431 -0.3748  0.4163  0.9249
23407SOL     OW75031  10.303   2.004   7.314  0.1485  0.4895 -0.1882
23407SOL    HW175032  10.311   2.057   7.235  0.4190  1.0708  0.2258
23407SOL    HW275033  10.231   1.944   7.296  1.7542 -1.0774 -1.8550
23408SOL     OW75034   3.188   6.065   4.134  0.5344  0.4345 -0.0237
23408SOL    HW175035   3.246   6.008   4.184  0.6094  1.6665  1.3615
23408SOL    HW275036   3.102   6.024   4.141  0.3215  1.1355  2.1052
23409SOL     OW75037   6.114   5.039   2.172 -0.0807  0.0955 -0.2570
23409SOL    HW175038   6.105   4.991   2.255 -0.4557 -0.9206 -0.8678
23409SOL    HW275039   6.207   5.059   2.166  0.0972 -0.6536 -0.0364
23410SOL     OW75040   7.177   2.635   7.763 -0.8496  0.1841 -0.0592
23410SOL    HW175041   7.165   2.575   7.689  2.9839  0.5749 -1.2195
23410SOL    HW275042   7.210   2.715   7.724 -1.1743  1.3401  1.9103
23411SOL     OW75043   5.267   3.469   2.781  0.0991  0.1684  0.4134
23411SOL    HW175044   5.337   3.408   2.758  0.2370 -0.1281  1.5688
23411SOL    HW275045   5.275   3.539   2.716 -0.9832 -1.6740 -1.8348
23412SOL     OW75046   5.500   2.591   9.849 -0.5699  0.3599  0.4136
23412SOL    HW175047   5.480   2.682   9.871 -0.3468  0.7100 -0.7773
23412SOL    HW275048   5.587   2.595   9.809 -1.0818 -0.1947 -0.8036
23413SOL     OW75049   8.107   0.395   2.456 -0.1970 -0.6851  0.6422
23413SOL    HW175050   8.199   0.394   2.480 -0.0472 -2.5113  0.1040
23413SOL    HW275051   8.066   0.454   2.519  1.3219  0.1362  0.8962
23414SOL     OW75052  10.679   3.557   7.189 -0.1339 -0.2341 -0.8582
23414SOL    HW175053  10.653   3.466   7.205 -1.0115  0.1341 -0.1153
23414SOL    HW275054  10.739   3.552   7.114  0.9917 -1.5870  0.0798
23415SOL     OW75055   1.049   5.035   5.459  0.0937 -0.1324  0.1003
23415SOL    HW175056   1.070   5.072   5.373  0.1238  0.4034  0.3329
23415SOL    HW275057   1.131   4.999   5.491  0.6370  1.6761  0.8741
23416SOL     OW75058   9.844   4.779   1.927  0.4268  0.0971  0.2624
23416SOL    HW175059   9.925   4.736   1.901  0.1011  0.1961 -0.9508
23416SOL    HW275060   9.814   4.728   2.003  0.4417 -1.3686 -0.6771
23417SOL     OW75061   6.631  12.413   4.064  0.0271 -0.7889 -0.1058
23417SOL    HW175062   6.554  12.367   4.029  0.0973  0.8620 -2.6963
23417SOL    HW275063   6.704  12.354   4.045 -0.2637 -1.0686 -0.3737
23418SOL     OW75064  11.426   9.706  11.347 -0.3117  0.0086  0.5535
23418SOL    HW175065  11.356   9.641  11.354  0.6656 -0.9722  1.9720
23418SOL    HW275066  11.462   9.711  11.435 -0.1817  2.3367  0.4097
23419SOL     OW75067   8.587   3.265   6.716  0.4643  0.4329  0.0447
23419SOL    HW175068   8.600   3.201   6.786 -1.4235 -1.8104 -1.5057
23419SOL    HW275069   8.673   3.276   6.677  0.7357 -1.8418 -0.1273
23420SOL     OW75070   3.133   1.893   4.925  0.5707  0.0092  0.7679
23420SOL    HW175071   3.183   1.974   4.936  0.4215  0.5226 -1.6721
23420SOL    HW275072   3.197   1.830   4.891 -0.2448  0.5614 -2.0052
23421SOL     OW75073   6.397   0.139   9.747 -0.6363  0.5178 -0.4899
23421SOL    HW175074   6.383   0.144   9.652 -2.2016  1.0124 -0.2672
23421SOL    HW275075   6.436   0.223   9.770  0.6105  0.0458 -0.7997
23422SOL     OW75076   3.385   3.395   7.739 -0.2186 -0.2251  0.5838
23422SOL    HW175077   3.403   3.337   7.665  1.7241 -0.3052  1.0576
23422SOL    HW275078   3.471   3.410   7.778 -0.9208  1.5472  1.5387
23423SOL     OW75079   1.111  10.755   1.060  0.8981 -0.2632  0.1377
23423SOL    HW175080   1.033  10.712   1.027  0.9269 -0.6304  0.5354
23423SOL    HW275081   1.124  10.718   1.148  2.9553 -2.1535 -0.8544
23424SOL     OW75082   3.886   9.558  10.616  0.2435  0.4101 -0.3351
23424SOL    HW175083   3.926   9.624  10.559  1.4380  1.5450  1.7044
23424SOL    HW275084   3.793   9.580  10.615  0.3826  1.0430 -1.0305
23425SOL     OW75085  12.390   2.082  12.407  0.3547  0.2315  0.1691
23425SOL    HW175086  12.368   2.145  12.339 -0.3695 -1.1257 -0.8939
23425SOL    HW275087  12.333   2.106  12.481 -0.8605  0.0271 -0.6814
23426SOL     OW75088   1.781   9.670  11.666  0.1831  0.1254  0.4472
23426SOL    HW175089   1.799   9.697  11.576 -0.2453 -0.2164  0.2567
23426SOL    HW275090   1.867   9.645  11.701  0.1875 -0.9080 -0.2583
23427SOL     OW75091  11.331   1.893   8.528 -0.1253 -0.4194  0.5632
23427SOL    HW175092  11.314   1.901   8.434  1.0254 -1.0905  0.2705
23427SOL    HW275093  11.348   1.983   8.557  0.8139 -0.3477 -0.1560
23428SOL     OW75094   7.703   7.750   7.939  0.1318  0.3877 -0.1676
23428SOL    HW175095   7.611   7.742   7.912  0.5608 -0.4402 -1.5162
23428SOL    HW275096   7.702   7.735   8.033 -1.0482 -0.3311 -0.2702
23429SOL     OW75097   7.975  11.074  10.393  0.1668 -1.2354 -0.4327
23429SOL    HW175098   8.040  11.083  10.462 -1.0031  0.9268  0.4707
23429SOL    HW275099   7.984  10.983  10.364  1.7092 -1.7819  1.5190
23430SOL     OW75100   3.135   4.832   9.567  0.4700  0.7827  0.5112
23430SOL    HW175101   3.117   4.821   9.660 -0.3629 -0.4557  0.2286
23430SOL    HW275102   3.211   4.776   9.550  0.4737  0.8200  0.4019
23431SOL     OW75103   6.820   7.128   0.822  0.5110  0.7093  0.1047
23431SOL    HW175104   6.894   7.110   0.880  0.6881  2.4354  0.4545
23431SOL    HW275105   6.744   7.129   0.881  0.1281 -1.1749 -0.2692
23432SOL     OW75106   7.266   5.420   4.025 -0.1105  0.1513  0.3428
23432SOL    HW175107   7.341   5.466   3.987 -1.0933  1.5584  0.0112
23432SOL    HW275108   7.222   5.380   3.950  1.0686 -1.9280  0.6929
23433SOL     OW75109   9.495   4.195  10.320  0.5737  0.6612 -0.4476
23433SOL    HW175110   9.505   4.260  10.251  2.2251 -0.1290 -0.9798
23433SOL    HW275111   9.566   4.214  10.381 -0.6938  1.1745  0.9554
23434SOL     OW75112   1.294   8.522   6.047 -0.1333 -0.3328  0.4982
23434SOL    HW175113   1.323   8.575   5.972 -1.3196 -1.1673 -0.5930
23434SOL    HW275114   1.373   8.509   6.099  0.4941  1.1994 -0.0117
23435SOL     OW75115   5.928   8.340   5.392 -0.1682  0.5820 -0.3595
23435SOL    HW175116   5.848   8.373   5.351  0.1339  2.0110  0.1450
23435SOL    HW275117   5.996   8.402   5.366  0.3471  0.5957  0.9357
23436SOL     OW75118  10.908   3.229   4.628 -0.0517  0.7116 -0.1453
23436SOL    HW175119  10.962   3.292   4.677 -0.6871  1.2913 -0.1680
23436SOL    HW275120  10.818   3.256   4.647 -0.4659 -1.8141  2.0333
23437SOL     OW75121   5.667   0.738   3.299 -0.3315 -0.0501 -0.1072
23437SOL    HW175122   5.655   0.832   3.287 -1.1655 -0.0605  0.5138
23437SOL    HW275123   5.584   0.699   3.272  0.0484 -0.6261 -0.4775
23438SOL     OW75124   2.114   5.412   7.630 -0.3537  0.1271  0.4504
23438SOL    HW175125   2.115   5.408   7.726  1.9273 -0.2707  0.4674
23438SOL    HW275126   2.124   5.321   7.602  1.1524  0.4411 -0.1048
23439SOL     OW75127   1.279   6.216   6.822  0.0088  0.3643  0.0918
23439SOL    HW175128   1.259   6.223   6.916 -0.8282  0.9007 -0.1172
23439SOL    HW275129   1.286   6.122   6.806 -0.0468  0.2593  0.6537
23440SOL     OW75130   0.255   1.986   8.732  0.0408 -0.8037 -0.2226
23440SOL    HW175131   0.266   2.073   8.772  1.2663 -1.2271  0.3984
23440SOL    HW275132   0.162   1.983   8.707  0.0949  0.8792 -0.7477
23441SOL     OW75133   7.075   9.209   4.056  0.2541  0.2999  0.0403
23441SOL    HW175134   7.040   9.296   4.038  1.3156  0.5941 -0.6910
23441SOL    HW275135   7.007   9.167   4.109 -1.0992  0.9243 -1.1145
23442SOL     OW75136   5.588   7.276   5.046 -0.1395 -0.4607 -0.2791
23442SOL    HW175137   5.558   7.243   4.961  2.4105  1.3345 -2.0112
23442SOL    HW275138   5.539   7.356   5.059 -0.1499 -0.4581 -0.3322
23443SOL     OW75139   5.686   8.069   4.270  0.1562 -0.1051  0.1766
23443SOL    HW175140   5.767   8.112   4.296 -1.0992  2.0634  0.7709
23443SOL    HW275141   5.682   8.080   4.175  1.6487 -2.3708 -0.2303
23444SOL     OW75142   8.656   0.077   9.614  0.3538  0.0186  0.5711
23444SOL    HW175143   8.563   0.071   9.637 -0.0316 -0.8332 -1.0689
23444SOL    HW275144   8.700   0.017   9.674  0.1910  1.9447  2.7709
23445SOL     OW75145   3.029   7.753   2.564  0.1132 -0.0218  0.1169
23445SOL    HW175146   3.083   7.694   2.617 -1.0037 -2.2626 -1.0712
23445SOL    HW275147   3.075   7.761   2.481 -0.7404 -1.0066 -0.4850
23446SOL     OW75148   2.177   7.732  10.611  0.6574  0.3011  0.0945
23446SOL    HW175149   2.183   7.671  10.685  0.1877 -0.3423 -0.3780
23446SOL    HW275150   2.260   7.722  10.565  0.7193  0.2725  0.2118
23447SOL     OW75151  12.601   7.312   1.675  0.3453  0.3954 -0.7519
23447SOL    HW175152  12.683   7.354   1.649  0.0406  1.8010  0.4372
23447SOL    HW275153  12.556   7.378   1.728 -0.8061 -0.9404 -0.0080
23448SOL     OW75154   1.475   3.696   7.037  0.0699  0.0858  0.3130
23448SOL    HW175155   1.559   3.717   6.996 -0.2027  0.4079 -0.0811
23448SOL    HW275156   1.426   3.778   7.037 -0.8352 -0.4217 -0.8393
23449SOL     OW75157   8.402   9.293   1.386 -0.1594 -0.1121  0.6289
23449SOL    HW175158   8.367   9.206   1.408 -0.6202  0.4312  2.1498
23449SOL    HW275159   8.398   9.342   1.468  1.2079  0.9848  0.0766
23450SOL     OW75160   6.029   9.794   4.206 -0.2745 -0.3736  0.2701
23450SOL    HW175161   5.948   9.743   4.208 -0.4142 -0.1772 -0.1010
23450SOL    HW275162   6.000   9.885   4.216 -0.4470  0.0413 -2.8901
23451SOL     OW75163   7.399   7.995  11.385  0.6992 -0.3263 -0.7832
23451SOL    HW175164   7.357   8.017  11.302  0.2902  1.7483 -0.0837
23451SOL    HW275165   7.328   8.000  11.450  1.6917  1.9573  0.2209
23452SOL     OW75166   0.979   7.048  12.508  0.3252  0.1882 -0.2479
23452SOL    HW175167   0.934   7.122  12.467  0.0555  1.2155  1.7738
23452SOL    HW275168   0.976   7.067  12.602  4.2990 -0.0309  0.1162
23453SOL     OW75169   1.581   8.500   1.047 -0.3319 -0.5425  0.1991
23453SOL    HW175170   1.490   8.517   1.073 -0.4420 -1.5644  0.5224
23453SOL    HW275171   1.626   8.484   1.130 -0.0177 -0.7502 -0.0106
23454SOL     OW75172   6.018   5.646   2.090 -0.2264  0.1313 -0.3284
23454SOL    HW175173   5.971   5.563   2.098 -0.9869  0.4990 -0.8332
23454SOL    HW275174   6.068   5.637   2.009  3.0838 -1.4449  1.6653
23455SOL     OW75175   0.378   5.156  10.545  0.1748 -0.5353 -0.1985
23455SOL    HW175176   0.437   5.082  10.535  1.3482  0.3434  0.0406
23455SOL    HW275177   0.416   5.208  10.615 -1.7116 -0.7092  1.0251
23456SOL     OW75178   0.747   4.846  11.069  0.2413 -0.0739 -0.3870
23456SOL    HW175179   0.655   4.826  11.089  1.0479 -1.7853  2.0177
23456SOL    HW275180   0.788   4.760  11.059  1.3540  0.6776 -2.8860
23457SOL     OW75181   6.166   1.654  10.308 -0.0945 -0.5223  0.1707
23457SOL    HW175182   6.183   1.566  10.275 -1.5036 -0.5188 -0.6749
23457SOL    HW275183   6.073   1.652  10.333 -0.3720  0.9202 -0.6105
23458SOL     OW75184   2.204   4.082   0.918 -0.0014  0.3019 -0.4331
23458SOL    HW175185   2.171   4.138   0.848  1.1454  1.7866  0.1651
23458SOL    HW275186   2.128   4.033   0.948 -0.7574  0.5624 -1.8581
23459SOL     OW75187   1.901   0.747  12.320 -0.0982  0.1358 -0.9173
23459SOL    HW175188   1.981   0.708  12.354 -0.6955 -0.5817 -0.2998
23459SOL    HW275189   1.880   0.696  12.242 -1.9118 -2.1551  0.9151
23460SOL     OW75190  12.206   0.709   6.652 -0.2510 -0.2379  0.3587
23460SOL    HW175191  12.162   0.644   6.706  0.5527 -2.1170 -1.1140
23460SOL    HW275192  12.299   0.694   6.668 -0.0407  0.0415 -0.5394
23461SOL     OW75193   8.913   3.845   3.532  0.3813 -0.4380 -0.4654
23461SOL    HW175194   8.825   3.809   3.536  0.4403 -0.4865  0.8418
23461SOL    HW275195   8.929   3.858   3.439 -0.4261 -1.8493 -0.8381
23462SOL     OW75196   6.133  11.905   3.269  0.0815 -0.2583 -0.1638
23462SOL    HW175197   6.226  11.881   3.268  0.1428 -0.1480  1.0180
23462SOL    HW275198   6.088  11.826   3.300 -0.2791 -0.4467 -1.1288
23463SOL     OW75199   4.453   9.654  10.406 -0.5666 -0.8660 -0.3883
23463SOL    HW175200   4.545   9.639  10.382  0.4634  1.1864  1.8114
23463SOL    HW275201   4.437   9.591  10.476 -0.4242 -0.4220  0.0492
23464SOL     OW75202   2.161   9.500   3.882 -0.2463  0.2867  0.6521
23464SOL    HW175203   2.202   9.418   3.856 -1.1346 -0.1795  0.7233
23464SOL    HW275204   2.229   9.566   3.865  0.8218 -0.5499  1.4708
23465SOL     OW75205   7.776  10.247   2.378 -0.0283  0.4338 -0.1290
23465SOL    HW175206   7.769  10.235   2.473 -1.7827 -0.1532 -0.2915
23465SOL    HW275207   7.779  10.158   2.343 -1.4113  0.5786 -0.7008
23466SOL     OW75208  12.339  12.292   3.962  0.5530 -0.1545  0.8220
23466SOL    HW175209  12.379  12.322   3.881 -1.0842 -0.2555 -0.0785
23466SOL    HW275210  12.369  12.353   4.029  1.2952  0.4118 -0.0150
23467SOL     OW75211   3.578   1.431   3.035  0.3382  0.0805 -0.5998
23467SOL    HW175212   3.550   1.353   2.987  1.4166  0.3616 -1.7381
23467SOL    HW275213   3.531   1.426   3.118 -0.0124 -1.5020 -0.8581
23468SOL     OW75214   5.215  10.953   3.116  0.0569 -0.3432  0.2564
23468SOL    HW175215   5.182  10.947   3.206 -1.6207  1.0716 -0.2110
23468SOL    HW275216   5.276  11.028   3.118  1.3464 -1.3535  0.5398
23469SOL     OW75217   6.948   7.550  10.949  0.1555  0.3548  0.3095
23469SOL    HW175218   7.035   7.588  10.961  0.1825  0.0199  1.2701
23469SOL    HW275219   6.901   7.572  11.030 -0.9376  1.2544 -0.5402
23470SOL     OW75220   0.644  11.318   1.169 -0.1084  0.0273  0.5022
23470SOL    HW175221   0.626  11.295   1.077  1.8319 -0.3241  0.1538
23470SOL    HW275222   0.602  11.403   1.181 -1.6673 -0.5969 -0.2520
23471SOL     OW75223  11.283   9.200   6.162 -0.4224  0.5083 -0.0918
23471SOL    HW175224  11.375   9.186   6.137 -0.5846 -2.4318  0.5141
23471SOL    HW275225  11.283   9.282   6.210  2.1236  0.0976  0.7916
23472SOL     OW75226   2.915   6.209   4.140  0.2938  0.8996  0.2443
23472SOL    HW175227   2.914   6.114   4.130 -0.8129  0.9812 -0.5962
23472SOL    HW275228   2.853   6.241   4.075  0.0895  2.1560  1.0167
23473SOL     OW75229   1.757  10.687   2.712 -0.7233  0.5933  0.0142
23473SOL    HW175230   1.677  10.652   2.749 -0.8475 -0.1288 -0.9076
23473SOL    HW275231   1.806  10.721   2.787  0.3112 -3.2769  1.2820
23474SOL     OW75232   1.491   6.611   4.892 -0.7424  0.4055  0.1446
23474SOL    HW175233   1.576   6.571   4.908 -0.7876  0.5462  0.7523
23474SOL    HW275234   1.428   6.547   4.925 -0.9494 -0.2650 -1.4221
23475SOL     OW75235   5.943   6.008   3.665  0.0968 -0.0461 -0.0376
23475SOL    HW175236   5.927   5.994   3.758 -0.6638  1.2217  0.0445
23475SOL    HW275237   5.863   6.049   3.633  0.3688 -0.4229 -1.2475
23476SOL     OW75238  10.373   3.583   8.195  0.1342  0.1690  0.0573
23476SOL    HW175239  10.320   3.641   8.141 -0.3032  0.3031  0.6176
23476SOL    HW275240  10.317   3.507   8.210  1.4520 -1.4311 -2.4482
23477SOL     OW75241   5.153  10.299   5.681  0.3144 -0.0167 -0.1243
23477SOL    HW175242   5.197  10.328   5.761 -0.6991  0.9148  0.1095
23477SOL    HW275243   5.061  10.318   5.696 -0.2738 -2.2584 -0.4577
23478SOL     OW75244   5.127  10.007  11.961  0.0475  0.3750 -0.0482
23478SOL    HW175245   5.120  10.057  11.879 -0.0426 -0.2720 -0.4425
23478SOL    HW275246   5.159  10.070  12.025 -1.5383  1.3629 -0.1641
23479SOL     OW75247   3.256   1.141   6.555 -0.1787 -0.0099 -0.0070
23479SOL    HW175248   3.280   1.212   6.497 -0.7382  0.9142  0.8477
23479SOL    HW275249   3.171   1.111   6.523 -0.9339  1.1203  0.8324
23480SOL     OW75250   4.278   2.862   1.237  0.4347  0.1783 -0.0692
23480SOL    HW175251   4.208   2.924   1.257 -0.8294 -0.9066 -0.9938
23480SOL    HW275252   4.325   2.851   1.320 -1.0184  0.2778  0.7885
23481SOL     OW75253  12.486   7.662   8.104  0.4117 -0.1885  0.4309
23481SOL    HW175254  12.511   7.664   8.196 -0.1506 -1.8786  0.6543
23481SOL    HW275255  12.441   7.578   8.093  1.2134 -0.4083 -1.5782
23482SOL     OW75256   8.036   9.903   9.077 -0.2433 -0.1380  0.0049
23482SOL    HW175257   8.125   9.881   9.105  0.1656  1.7854  0.3004
23482SOL    HW275258   7.980   9.875   9.150  0.2715  0.0131  0.4606
23483SOL     OW75259  10.365   4.185  10.940  0.2418  0.5271 -0.1894
23483SOL    HW175260  10.331   4.096  10.928  0.8961  0.2100  0.2607
23483SOL    HW275261  10.460   4.176  10.932  0.2315  1.4897 -1.9918
23484SOL     OW75262   8.209   7.553  12.038  0.3783 -0.2129  0.2875
23484SOL    HW175263   8.225   7.521  12.126  0.4568 -0.8722  0.0407
23484SOL    HW275264   8.151   7.628  12.050  0.2920 -0.3686  0.8892
23485SOL     OW75265   7.630   0.314   2.428 -0.1239 -0.1696 -0.1736
23485SOL    HW175266   7.605   0.222   2.417  1.6502 -0.7986  0.6680
23485SOL    HW275267   7.712   0.323   2.379 -1.3847  1.5967 -2.1572
23486SOL     OW75268   6.237   1.515   2.635 -0.0314  0.1265 -0.0860
23486SOL    HW175269   6.278   1.429   2.632  0.1750  0.2346 -0.3261
23486SOL    HW275270   6.264   1.558   2.554  0.4052  0.6660  0.3451
23487SOL     OW75271   4.417   7.275   8.949  0.3058  0.0330  0.5877
23487SOL    HW175272   4.408   7.204   9.012  0.3440 -0.2022  0.3292
23487SOL    HW275273   4.501   7.315   8.971  0.3123 -0.0373  0.6955
23488SOL     OW75274   8.772   6.916   7.556  0.4922  0.0086 -0.0232
23488SOL    HW175275   8.799   6.997   7.513 -2.1726  2.3107  2.2142
23488SOL    HW275276   8.815   6.920   7.642 -0.5354 -0.3517  0.5191
23489SOL     OW75277   3.837  10.200  11.080 -0.0774 -0.0791 -0.0323
23489SOL    HW175278   3.927  10.178  11.102 -0.1836  0.7740  1.3937
23489SOL    HW275279   3.834  10.295  11.085 -0.9169 -0.0628 -0.6754
23490SOL     OW75280  12.563   4.760   1.276  0.1545 -0.3547 -0.4974
23490SOL    HW175281  12.489   4.812   1.303 -0.9504 -1.4240 -1.3289
23490SOL    HW275282  12.570   4.775   1.181  1.6737  0.5458 -0.2766
23491SOL     OW75283  11.181   6.628   7.881 -0.4459 -0.0985  0.7292
23491SOL    HW175284  11.249   6.592   7.939 -1.7555 -1.2134  1.6407
23491SOL    HW275285  11.141   6.699   7.932 -2.5595 -1.9987  1.8938
23492SOL     OW75286   7.578   6.240  12.091  0.5010  0.1302  0.3390
23492SOL    HW175287   7.525   6.302  12.142  1.2568  0.7425  0.3949
23492SOL    HW275288   7.526   6.160  12.090 -1.2173  1.1648 -0.9638
23493SOL     OW75289   3.259  11.755   7.409 -0.6699  0.3804  0.0502
23493SOL    HW175290   3.291  11.701   7.481 -1.8320  0.2551  0.5009
23493SOL    HW275291   3.178  11.712   7.381  0.1123  0.0228 -1.8215
23494SOL     OW75292   2.987   9.787   8.599  0.3291 -0.8878  0.1795
23494SOL    HW175293   2.919   9.731   8.562  0.9614 -1.0999 -0.6974
23494SOL    HW275294   2.985   9.866   8.544 -0.3790 -0.1413  1.2393
23495SOL     OW75295   4.979   5.419   9.162 -0.1597  0.0508 -0.3152
23495SOL    HW175296   5.019   5.368   9.232  0.1961  0.8793  0.0895
23495SOL    HW275297   4.885   5.402   9.171  0.0051 -1.1136 -0.6536
23496SOL     OW75298   1.427   3.165  11.971  0.2541  0.0158 -0.9397
23496SOL    HW175299   1.457   3.112  11.898  1.2345 -0.4507 -0.2361
23496SOL    HW275300   1.459   3.253  11.952  2.5428 -0.5484 -0.0208
23497SOL     OW75301  10.931   0.687   4.831 -0.4557 -0.0710  0.3619
23497SOL    HW175302  10.993   0.738   4.883 -0.5477 -0.5297  0.9385
23497SOL    HW275303  10.861   0.666   4.892  0.4757 -2.5246  0.7123
23498SOL     OW75304   2.149   9.432   4.394  0.2705 -0.5315 -0.2773
23498SOL    HW175305   2.070   9.413   4.344 -0.0343  1.4117 -0.6029
23498SOL    HW275306   2.120   9.442   4.484 -0.1105  1.4592 -0.5854
23499SOL     OW75307   8.249  10.152  10.528 -0.1964 -0.0504  0.3903
23499SOL    HW175308   8.309  10.192  10.464 -0.8035  0.5345  0.1821
23499SOL    HW275309   8.210  10.226  10.574 -0.9107 -0.4265  0.3938
23500SOL     OW75310  10.311   7.741   6.791  0.0989  0.0909  0.0193
23500SOL    HW175311  10.334   7.650   6.812  0.1423  0.3631  1.1767
23500SOL    HW275312  10.384   7.773   6.738  1.3467  0.2495  1.7803
23501SOL     OW75313   8.813   0.566   6.446 -0.0215  0.7748 -0.0708
23501SOL    HW175314   8.905   0.589   6.459  0.4496 -1.1179  0.2229
23501SOL    HW275315   8.814   0.503   6.374 -0.6979 -1.4555  1.7554
23502SOL     OW75316   2.993   5.953   5.447 -0.0526 -0.3059  0.1062
23502SOL    HW175317   3.041   6.023   5.403 -1.5905  0.5613 -0.2732
23502SOL    HW275318   3.050   5.876   5.438  1.0988  0.5823 -0.5979
23503SOL     OW75319  10.008  10.760   4.263  0.0505  0.0920 -0.2173
23503SOL    HW175320  10.074  10.709   4.216 -1.0594 -0.4180 -1.2850
23503SOL    HW275321  10.020  10.736   4.354  0.2034 -1.3486 -0.5862
23504SOL     OW75322   9.942  11.440   2.240 -0.0755 -0.3462 -0.3533
23504SOL    HW175323   9.933  11.420   2.147  0.1010  1.4218 -0.7919
23504SOL    HW275324   9.952  11.355   2.282  0.2647 -1.1579 -1.9920
23505SOL     OW75325   6.507   0.404   6.856  0.3074 -0.3907 -0.0249
23505SOL    HW175326   6.447   0.470   6.821 -0.1842 -1.3125 -0.9650
23505SOL    HW275327   6.550   0.368   6.778  0.9674 -0.8110  0.5250
23506SOL     OW75328  12.197   2.029  12.133  0.5724 -0.3309  0.3745
23506SOL    HW175329  12.237   1.970  12.197  0.3123  0.2301  1.0642
23506SOL    HW275330  12.219   2.117  12.164 -0.0975 -0.0427  0.0488
23507SOL     OW75331   8.288   6.116  11.762 -0.3697 -0.0011  0.4704
23507SOL    HW175332   8.302   6.200  11.718 -0.2885  0.8185  1.9830
23507SOL    HW275333   8.337   6.123  11.844 -1.0055 -1.2187  0.9853
23508SOL     OW75334   7.579   7.445   6.775 -0.3093 -0.3116 -0.1152
23508SOL    HW175335   7.645   7.404   6.831  0.0017 -0.2353 -0.4272
23508SOL    HW275336   7.627   7.474   6.698 -0.3951  1.2700  0.3961
23509SOL     OW75337   4.557   4.784  11.751 -0.4165 -0.1737 -0.6122
23509SOL    HW175338   4.576   4.704  11.800  0.8560  0.9319  0.7960
23509SOL    HW275339   4.463   4.779  11.733 -1.1872 -0.2295  2.8032
23510SOL     OW75340   5.349   7.173   6.810  0.4509  0.3188  0.2907
23510SOL    HW175341   5.343   7.094   6.756 -1.7319  0.2219  0.5849
23510SOL    HW275342   5.427   7.159   6.864 -0.2848 -1.9951  0.8510
23511SOL     OW75343   7.576   6.185   2.355  0.1704  0.9375 -0.7344
23511SOL    HW175344   7.548   6.163   2.266 -0.8662 -2.2757  0.2353
23511SOL    HW275345   7.617   6.105   2.387 -2.1125  0.9504  2.6492
23512SOL     OW75346   9.474   5.060  12.554 -0.2902  0.0169 -0.0419
23512SOL    HW175347   9.521   5.122  12.499 -0.2087  0.7563  0.8337
23512SOL    HW275348   9.420   5.115  12.612 -0.4340 -0.7346  0.5606
23513SOL     OW75349   3.675   4.284   2.469 -0.4342 -0.0962 -0.0116
23513SOL    HW175350   3.604   4.310   2.410  1.6300  2.3489 -1.6045
23513SOL    HW275351   3.754   4.289   2.416  1.0755 -2.3663  1.7906
23514SOL     OW75352   0.956   3.177  10.155 -0.4745  0.0865 -0.3339
23514SOL    HW175353   0.911   3.145  10.233  1.3090  2.1551  1.6899
23514SOL    HW275354   1.011   3.104  10.127 -2.5465 -1.3395 -0.9178
23515SOL     OW75355   3.644   6.223   4.985 -0.3770 -0.1541 -0.3577
23515SOL    HW175356   3.661   6.221   4.891  0.3860  1.3092 -0.2737
23515SOL    HW275357   3.675   6.137   5.016  1.1908  0.0724 -1.1625
23516SOL     OW75358   5.348  10.618  11.701  0.1345  0.5560 -0.1085
23516SOL    HW175359   5.378  10.527  11.693 -1.7591 -0.2228  1.0360
23516SOL    HW275360   5.268  10.621  11.648  0.3477  1.6742 -0.3987
23517SOL     OW75361   0.508   9.873   0.767 -0.0226  0.3593  0.1347
23517SOL    HW175362   0.593   9.898   0.731  0.4288 -1.4069 -0.1065
23517SOL    HW275363   0.446   9.886   0.695  0.3196  0.0290 -0.2204
23518SOL     OW75364  10.506   9.895   9.452 -0.2376  0.4274 -0.3818
23518SOL    HW175365  10.582   9.859   9.499 -1.4495  0.1130  1.4085
23518SOL    HW275366  10.476   9.822   9.397  1.6983  1.0557 -2.4473
23519SOL     OW75367   4.640  10.913   1.572  0.2518 -0.0412  0.2322
23519SOL    HW175368   4.594  10.831   1.555 -0.3932  0.1930  0.8113
23519SOL    HW275369   4.623  10.931   1.665  1.6219 -0.0103  0.5036
23520SOL     OW75370   5.240   5.114   6.211  0.7859  0.4066  0.2404
23520SOL    HW175371   5.163   5.086   6.163  0.7931 -0.4119  0.6747
23520SOL    HW275372   5.214   5.196   6.253 -0.3278 -0.5242  1.4691
23521SOL     OW75373  10.446   5.329  10.905 -0.0929  0.8125 -0.3063
23521SOL    HW175374  10.518   5.270  10.926 -0.1231  0.4228 -1.2330
23521SOL    HW275375  10.436   5.383  10.983  0.7900  0.4564  0.0737
23522SOL     OW75376   6.657   4.537  10.012 -0.0708  0.0542 -0.2592
23522SOL    HW175377   6.594   4.495  10.071 -1.1351 -0.3094 -1.6155
23522SOL    HW275378   6.647   4.630  10.030 -0.3349 -0.0528  0.1794
23523SOL     OW75379   6.389   9.458   9.516 -0.2159 -0.2089 -0.5484
23523SOL    HW175380   6.296   9.449   9.495 -0.0655 -1.0006 -0.9135
23523SOL    HW275381   6.392   9.456   9.611 -0.6485  0.6759 -0.5052
23524SOL     OW75382   5.337   5.841   2.255 -0.0786 -0.1051  0.1398
23524SOL    HW175383   5.409   5.904   2.262  0.0722 -0.3518  0.9172
23524SOL    HW275384   5.261   5.895   2.230  0.0401  0.4004  0.8293
23525SOL     OW75385  12.458   0.241   8.658  0.0116 -0.2166 -0.4509
23525SOL    HW175386  12.498   0.327   8.655  1.3766 -0.8490 -1.9165
23525SOL    HW275387  12.389   0.244   8.590  0.8667 -0.6221 -1.3628
23526SOL     OW75388   7.303   0.895  10.473  0.0792  0.3129 -0.4683
23526SOL    HW175389   7.255   0.978  10.469 -1.0778 -0.1998  1.2140
23526SOL    HW275390   7.346   0.887  10.388  0.5691  2.8258 -0.5302
23527SOL     OW75391  11.685   0.119  11.197  0.2403 -0.0306 -0.6713
23527SOL    HW175392  11.734   0.044  11.232 -2.2391 -0.8725  1.2785
23527SOL    HW275393  11.680   0.180  11.270 -1.1291  0.2659 -0.9930
23528SOL     OW75394  11.089   5.112   9.751  0.8851  0.2259 -0.5750
23528SOL    HW175395  11.104   5.182   9.687  3.0349  1.4510  1.1245
23528SOL    HW275396  11.123   5.033   9.708  0.6146  0.6522 -1.6130
23529SOL     OW75397   9.178   5.759  12.120 -1.0562 -0.3681 -0.4968
23529SOL    HW175398   9.158   5.772  12.213  1.3066 -0.1013  0.0268
23529SOL    HW275399   9.092   5.758  12.077 -2.1600  0.4215  1.5598
23530SOL     OW75400   5.461  12.295   2.952  0.1589  0.6023 -0.3201
23530SOL    HW175401   5.510  12.313   2.871  1.8056 -1.5476  0.0901
23530SOL    HW275402   5.432  12.205   2.942 -0.7690  0.7444  0.9511
23531SOL     OW75403   4.904   6.217   3.554  0.3637 -0.2607 -0.2468
23531SOL    HW175404   4.952   6.198   3.473  0.1008  1.3524 -0.8165
23531SOL    HW275405   4.883   6.131   3.590  0.8662 -1.0082 -1.6631
23532SOL     OW75406  10.954  10.857   1.368 -0.4628 -0.1106 -0.0542
23532SOL    HW175407  10.970  10.791   1.436 -0.5524 -0.5668 -0.4647
23532SOL    HW275408  11.001  10.824   1.292 -1.7760 -0.5162 -0.7264
23533SOL     OW75409   0.217  12.194  11.070 -0.2460 -0.3291 -0.5823
23533SOL    HW175410   0.245  12.106  11.097 -1.0396  0.1569  2.0733
23533SOL    HW275411   0.220  12.246  11.150 -0.3459  1.9672 -1.9746
23534SOL     OW75412   4.594  10.240   5.826  0.6424 -0.1984 -0.0040
23534SOL    HW175413   4.502  10.264   5.819  0.9591  0.6485 -1.5626
23534SOL    HW275414   4.640  10.322   5.841  1.2991 -0.3664 -0.9777
23535SOL     OW75415   2.473   0.892   2.410  0.6023  0.3655 -0.4360
23535SOL    HW175416   2.481   0.917   2.502  0.5497 -3.2761  0.6904
23535SOL    HW275417   2.557   0.917   2.371  1.3084  0.4070  1.0365
23536SOL     OW75418   0.691   0.001   5.523  0.1297 -1.0025 -0.5690
23536SOL    HW175419   0.732   0.064   5.463 -0.9237 -2.1230 -2.5676
23536SOL    HW275420   0.699   0.042   5.609 -1.9463  2.7085 -1.9206
23537SOL     OW75421   2.875   1.536   4.111  0.0275  0.3692 -0.5569
23537SOL    HW175422   2.872   1.627   4.082  0.5614  0.3548 -0.6586
23537SOL    HW275423   2.966   1.522   4.138  0.1034 -0.3196 -1.1502
23538SOL     OW75424   3.278  11.966   4.066 -0.0855 -0.6467  0.1316
23538SOL    HW175425   3.308  11.876   4.072 -1.5247 -1.1878 -0.3098
23538SOL    HW275426   3.202  11.962   4.007  0.7590  1.0961 -1.1564
23539SOL     OW75427   0.372   2.420   5.216  0.7521  0.4004  0.1387
23539SOL    HW175428   0.378   2.506   5.174 -1.1369  0.1149 -0.8411
23539SOL    HW275429   0.337   2.438   5.303  1.0847  0.6804  0.2182
23540SOL     OW75430   1.836  12.250   5.171 -0.1303  0.2356  0.1038
23540SOL    HW175431   1.799  12.309   5.105  0.2447 -0.2429 -0.5515
23540SOL    HW275432   1.915  12.215   5.129 -0.9598 -1.6029  0.0363
23541SOL     OW75433   9.650   0.480   0.790 -0.0288 -0.3062 -0.3622
23541SOL    HW175434   9.650   0.403   0.847 -0.8308  1.9341  2.8975
23541SOL    HW275435   9.742   0.492   0.765  0.4717 -0.9082  1.1395
23542SOL     OW75436   3.258  12.123   0.130 -0.1351  0.1540 -0.2983
23542SOL    HW175437   3.236  12.097   0.040  0.1168 -1.4572  0.0758
23542SOL    HW275438   3.241  12.045   0.182 -0.1575  1.0337  1.0535
23543SOL     OW75439   5.343   4.749   2.626  0.0023 -0.0743  0.1830
23543SOL    HW175440   5.275   4.690   2.659 -0.5647  0.1881 -0.4836
23543SOL    HW275441   5.332   4.829   2.678 -0.2373 -0.0179  0.0507
23544SOL     OW75442   3.652   2.267   4.493  0.5424 -0.2471 -0.0452
23544SOL    HW175443   3.719   2.298   4.432 -0.7438  0.3247 -1.2252
23544SOL    HW275444   3.619   2.186   4.454 -0.4367  0.2343 -0.2528
23545SOL     OW75445   7.032   8.557  10.407 -0.2969 -0.2466 -0.2560
23545SOL    HW175446   6.953   8.590  10.451  0.0803 -0.4346  0.5922
23545SOL    HW275447   7.016   8.573  10.314 -2.2491 -2.1416 -0.3462
23546SOL     OW75448   9.126   7.959   5.975 -0.1558  0.1035  0.2809
23546SOL    HW175449   9.038   7.996   5.971 -1.0381 -1.9478 -0.9368
23546SOL    HW275450   9.155   7.954   5.884  0.6195 -0.5683  0.5465
23547SOL     OW75451   8.349   5.513   1.609  0.0427  0.2126 -0.3317
23547SOL    HW175452   8.410   5.443   1.634  0.5486  1.2814  1.6629
23547SOL    HW275453   8.266   5.467   1.593  0.5645 -0.9289  0.0948
23548SOL     OW75454   8.898  12.608   3.546 -0.4115  0.2896 -0.3028
23548SOL    HW175455   8.824  12.548   3.549 -0.7264  0.6273 -1.0926
23548SOL    HW275456   8.962  12.569   3.606  0.0551 -1.7540 -1.9968
23549SOL     OW75457   1.862   3.003   5.008  0.4314 -0.2880  0.7302
23549SOL    HW175458   1.786   3.048   5.046  0.1568 -0.2743  0.1676
23549SOL    HW275459   1.921   3.074   4.983  0.9584 -0.3184  1.8239
23550SOL     OW75460   1.511   8.144   6.918 -0.8846 -0.8326  0.3824
23550SOL    HW175461   1.436   8.132   6.860 -1.4229 -1.1324  1.1332
23550SOL    HW275462   1.510   8.067   6.975  1.3611 -2.0547 -1.0837
23551SOL     OW75463  10.692  10.333   8.510  0.9193 -0.2284  0.2300
23551SOL    HW175464  10.773  10.383   8.525  1.2899 -0.6421 -0.3441
23551SOL    HW275465  10.702  10.297   8.422  0.3934 -0.8276  0.4057
23552SOL     OW75466   1.422   3.515   5.241 -0.4961 -0.6000 -0.0005
23552SOL    HW175467   1.465   3.560   5.168 -1.0604 -1.0965 -0.6576
23552SOL    HW275468   1.476   3.437   5.256 -0.0913 -0.2365  0.4615
23553SOL     OW75469   3.751   4.508  10.751 -0.7752  0.2685  0.1897
23553SOL    HW175470   3.846   4.506  10.754 -0.7474  1.3057  0.6322
23553SOL    HW275471   3.725   4.542  10.837 -1.6234 -1.4362  0.6431
23554SOL     OW75472   5.080   5.871   5.175 -0.1505  0.3032  0.3475
23554SOL    HW175473   5.036   5.869   5.089 -0.9415  0.4746  0.7336
23554SOL    HW275474   5.008   5.870   5.238  0.4314 -0.1843  1.0205
23555SOL     OW75475   6.997   6.034  11.667 -0.3422 -0.1752 -0.3318
23555SOL    HW175476   6.996   6.128  11.684 -1.6233 -0.4376  1.2674
23555SOL    HW275477   7.090   6.011  11.668 -0.0619  0.8932  0.4027
23556SOL     OW75478   3.678   5.341  11.793  0.7220 -0.3859 -0.3694
23556SOL    HW175479   3.750   5.301  11.842  1.9350  0.8758 -1.0809
23556SOL    HW275480   3.710   5.427  11.767 -0.0437 -0.8179 -3.0010
23557SOL     OW75481   9.141   3.315   8.671  0.1585 -0.2984 -0.9005
23557SOL    HW175482   9.156   3.306   8.577  1.2409 -0.6297 -0.7140
23557SOL    HW275483   9.222   3.353   8.704  0.2475 -1.3056  0.0714
23558SOL     OW75484   9.851  12.643   1.913 -0.0323 -0.3966  0.1023
23558SOL    HW175485   9.846  12.563   1.860  0.2253  0.1508 -0.7691
23558SOL    HW275486   9.913  12.699   1.867 -2.1288  1.3578 -0.7688
23559SOL     OW75487   4.457   8.073  10.638  0.1022  0.3858  0.1646
23559SOL    HW175488   4.535   8.035  10.679  0.2855 -1.5353 -1.8045
23559SOL    HW275489   4.460   8.165  10.663  2.3799  0.1268  1.0806
23560SOL     OW75490   6.489   0.498   5.426  0.4233  0.2268  0.6086
23560SOL    HW175491   6.520   0.440   5.357 -0.1921 -0.1217  0.6106
23560SOL    HW275492   6.501   0.447   5.507 -1.9899 -0.7737  0.4325
23561SOL     OW75493   4.461   9.242   1.144  0.1209  0.0697 -0.0269
23561SOL    HW175494   4.541   9.294   1.149  0.1817 -0.0841  0.6814
23561SOL    HW275495   4.445   9.232   1.050  0.8478  0.2240 -0.1725
23562SOL     OW75496  11.693   7.478   3.607 -0.2496  0.7440 -0.0716
23562SOL    HW175497  11.742   7.404   3.573 -0.1174  1.3459 -1.2585
23562SOL    HW275498  11.622   7.439   3.658  1.3569 -0.1354  1.5911
23563SOL     OW75499  10.126  11.728   4.437  0.0861  0.1401 -0.3752
23563SOL    HW175500  10.160  11.747   4.349  0.7769  0.2845 -0.0830
23563SOL    HW275501  10.168  11.792   4.493  0.5103 -0.6543  0.2381
23564SOL     OW75502   3.860   0.985   4.038 -0.2847  0.6041  0.5037
23564SOL    HW175503   3.934   0.947   3.990 -0.3118 -2.7501  2.7304
23564SOL    HW275504   3.893   0.996   4.128 -2.0692  0.2103  1.2512
23565SOL     OW75505  10.911  10.895   3.342 -0.0470 -0.1806  0.3098
23565SOL    HW175506  10.983  10.920   3.400  0.9247 -1.9662 -0.0516
23565SOL    HW275507  10.916  10.957   3.270  2.8117 -1.6865 -0.9757
23566SOL     OW75508   1.395   3.292   0.301  0.5670 -0.1317  0.1025
23566SOL    HW175509   1.304   3.271   0.282  0.7311  0.6072 -1.7050
23566SOL    HW275510   1.444   3.260   0.226  1.6097  0.7668  0.3610
23567SOL     OW75511   1.966   9.693   7.239  0.5185 -0.1027  0.0935
23567SOL    HW175512   2.038   9.756   7.234  1.3378 -1.0482 -0.4899
23567SOL    HW275513   1.888   9.743   7.218  1.1380  0.7326 -0.2797
23568SOL     OW75514   5.344   9.476   2.522 -0.3893 -0.7839 -0.2204
23568SOL    HW175515   5.386   9.549   2.567  0.0898 -0.8363 -0.5773
23568SOL    HW275516   5.410   9.406   2.521 -0.4461 -0.8380 -0.8530
23569SOL     OW75517   4.646   0.523  12.509  0.1075 -0.2398  0.6886
23569SOL    HW175518   4.579   0.454  12.503 -0.8116  0.7187 -0.7471
23569SOL    HW275519   4.728   0.475  12.516 -0.5604 -1.4866  0.4354
23570SOL     OW75520   7.555   5.908   3.927 -0.6878  0.6737  0.0914
23570SOL    HW175521   7.633   5.954   3.956  0.3527 -0.1970 -1.1887
23570SOL    HW275522   7.554   5.920   3.832 -0.9547 -1.0520 -0.1579
23571SOL     OW75523  12.018   2.814   7.376  0.0813  0.1009 -0.2176
23571SOL    HW175524  12.040   2.902   7.344 -0.6175  0.0352 -0.9031
23571SOL    HW275525  11.923   2.816   7.387 -0.1572 -1.0624 -1.7974
23572SOL     OW75526   3.582  11.560   8.892 -0.6056  0.4342  0.0217
23572SOL    HW175527   3.649  11.537   8.956  0.8002  2.1948 -0.7105
23572SOL    HW275528   3.604  11.509   8.814  0.4343  1.5788 -0.4773
23573SOL     OW75529   6.617   6.409   6.931 -0.0135 -0.2421  0.1837
23573SOL    HW175530   6.654   6.343   6.991 -0.8064 -0.0861  0.8671
23573SOL    HW275531   6.692   6.440   6.881  0.3564 -1.7780 -0.2720
23574SOL     OW75532   1.667   3.700   5.380 -0.0121 -0.1606  0.8935
23574SOL    HW175533   1.751   3.690   5.335  0.0530 -1.7038  1.2850
23574SOL    HW275534   1.604   3.715   5.309  0.5144  0.5362  0.5615
23575SOL     OW75535  10.300  10.337   8.680 -0.4681  0.0605  0.2952
23575SOL    HW175536  10.388  10.300   8.684  0.1004  1.1695 -0.9686
23575SOL    HW275537  10.260  10.315   8.764  1.2322  0.0866  1.1472
23576SOL     OW75538   1.529  11.408  11.929 -0.1628 -0.2810 -0.8221
23576SOL    HW175539   1.572  11.382  12.011  0.0012  0.3930 -0.6838
23576SOL    HW275540   1.444  11.443  11.957  0.1843  0.6113 -0.8686
23577SOL     OW75541   4.940   7.824  11.537  0.0255 -0.2508  0.3643
23577SOL    HW175542   4.904   7.891  11.596 -2.2322  0.2359 -1.4454
23577SOL    HW275543   4.886   7.747  11.553  0.9041 -0.8354  0.5509
23578SOL     OW75544   7.585   7.905   2.755  0.5184 -0.0341  0.2626
23578SOL    HW175545   7.538   7.844   2.699 -0.4548 -1.3177  2.3388
23578SOL    HW275546   7.545   7.990   2.736 -1.0934 -0.7341  0.3080
23579SOL     OW75547   0.911   1.400   9.960 -0.4011 -0.3996 -0.3045
23579SOL    HW175548   0.923   1.482  10.007 -0.0898 -0.1851 -0.7472
23579SOL    HW275549   0.830   1.413   9.909  0.3496  0.1503 -1.4101
23580SOL     OW75550   0.221   6.843   1.091  0.2347  0.1374 -0.3958
23580SOL    HW175551   0.300   6.802   1.058  0.7879  2.2581 -1.8920
23580SOL    HW275552   0.252   6.919   1.141 -0.8167 -0.0036  0.5284
23581SOL     OW75553   1.653   9.616   2.157 -0.1176  0.0625  0.6112
23581SOL    HW175554   1.703   9.554   2.105 -2.3713 -1.5116  0.1656
23581SOL    HW275555   1.619   9.565   2.230  1.2699  1.7654  2.5792
23582SOL     OW75556   3.545   9.200   9.754 -0.1840  0.3600 -0.1762
23582SOL    HW175557   3.606   9.160   9.816  1.1984  1.2885 -0.8685
23582SOL    HW275558   3.477   9.134   9.741  1.4126 -1.3304 -0.4345
23583SOL     OW75559   8.262   9.323   8.673  0.0259  0.2921  0.6978
23583SOL    HW175560   8.181   9.373   8.661  0.2468  0.3033 -1.0168
23583SOL    HW275561   8.292   9.347   8.761 -0.7514  1.8859  0.5699
23584SOL     OW75562  10.196   8.715   3.951 -0.4445 -0.3868 -0.1236
23584SOL    HW175563  10.238   8.737   4.034 -2.0345  0.9660  0.3828
23584SOL    HW275564  10.152   8.796   3.924 -1.0071 -1.1560 -1.6532
23585SOL     OW75565  10.099   7.502  12.196 -0.2678 -0.8012  0.1158
23585SOL    HW175566  10.031   7.440  12.170  0.2427 -0.9321 -0.9977
23585SOL    HW275567  10.052   7.578  12.229 -0.9154 -1.4529  0.7265
23586SOL     OW75568  10.794  10.350   5.062 -0.0570 -0.8849  0.5383
23586SOL    HW175569  10.881  10.388   5.049  0.5411 -2.3961 -0.1341
23586SOL    HW275570  10.760  10.395   5.139  1.2265 -0.1043  0.6868
23587SOL     OW75571   3.325   9.890   3.183  0.5204  0.3752 -0.3701
23587SOL    HW175572   3.314   9.948   3.258 -2.4019  2.5552 -2.2355
23587SOL    HW275573   3.271   9.813   3.204  1.1282  0.1479  0.4224
23588SOL     OW75574   2.367   8.304   7.487 -0.2413  0.0171  0.1965
23588SOL    HW175575   2.444   8.329   7.436 -0.5969 -0.4647 -0.6036
23588SOL    HW275576   2.400   8.240   7.551  0.0742  0.0499  0.0672
23589SOL     OW75577   5.440   4.739   3.521 -0.1376  0.0030  0.1232
23589SOL    HW175578   5.531   4.713   3.527 -0.5903 -2.3247 -1.5847
23589SOL    HW275579   5.443   4.831   3.493  1.6600  0.0570  0.3958
23590SOL     OW75580   0.490   7.453   7.885 -0.2793 -0.1904 -0.2644
23590SOL    HW175581   0.456   7.543   7.890 -1.0618 -0.4202 -1.0622
23590SOL    HW275582   0.510   7.430   7.975  0.0536  0.8283 -0.0556
23591SOL     OW75583   5.669   1.054  12.225 -0.0994 -0.3654  0.7713
23591SOL    HW175584   5.597   1.024  12.279 -0.0560 -4.0074 -0.8698
23591SOL    HW275585   5.630   1.069  12.139  0.6827  0.0531  0.4780
23592SOL     OW75586   6.807   7.330   7.715 -0.1102 -0.2359 -0.3146
23592SOL    HW175587   6.716   7.345   7.743 -0.4937 -0.8824 -1.1666
23592SOL    HW275588   6.846   7.418   7.713 -0.4579 -0.0381  0.8780
23593SOL     OW75589   9.229   2.913   6.320  0.4727  0.0765 -0.0297
23593SOL    HW175590   9.275   2.831   6.338 -0.8211 -0.2862  1.9989
23593SOL    HW275591   9.163   2.919   6.389 -2.6235  0.5105 -2.7713
23594SOL     OW75592   9.919   3.348   9.244  0.3619  0.4326  0.3892
23594SOL    HW175593   9.940   3.364   9.152 -0.1125 -1.4828 -0.1021
23594SOL    HW275594   9.993   3.386   9.292  0.2304  2.1545 -0.7073
23595SOL     OW75595  11.583   7.204   4.129  0.3309 -0.2496  0.1277
23595SOL    HW175596  11.511   7.223   4.069  1.1719 -0.2794 -0.9097
23595SOL    HW275597  11.589   7.283   4.184  0.9059  0.6961 -1.2300
23596SOL     OW75598   9.808   6.707   5.987 -0.7609 -0.3097 -0.2354
23596SOL    HW175599   9.902   6.721   5.977 -0.2190 -3.1287  0.1600
23596SOL    HW275600   9.773   6.793   6.012  1.7845  0.6433  0.2999
23597SOL     OW75601   5.410   5.194   3.591 -0.2156 -0.3408  0.8049
23597SOL    HW175602   5.497   5.175   3.628  0.9145  2.4202 -0.1764
23597SOL    HW275603   5.400   5.131   3.520  2.1679  0.8557 -0.7024
23598SOL     OW75604   4.601   4.711   4.287 -0.1776  0.6146 -0.1330
23598SOL    HW175605   4.672   4.755   4.241 -1.0879  0.0947 -2.1246
23598SOL    HW275606   4.645   4.649   4.346  1.0253  1.9531  0.4243
23599SOL     OW75607   3.452   2.580   4.417 -0.0134  0.0462  0.1419
23599SOL    HW175608   3.382   2.604   4.356 -0.4354  1.1118  0.9849
23599SOL    HW275609   3.529   2.567   4.363 -0.6767 -0.3411 -0.7318
23600SOL     OW75610   7.692   4.069   1.420 -0.2817 -0.1931 -0.4858
23600SOL    HW175611   7.648   3.991   1.388 -1.2348 -0.9466  2.3874
23600SOL    HW275612   7.638   4.142   1.390 -0.7686 -0.7964 -1.0783
23601SOL     OW75613   0.651  12.413   4.106  0.3453  0.2180 -0.0424
23601SOL    HW175614   0.706  12.466   4.050  0.6152 -1.2374 -1.2273
23601SOL    HW275615   0.601  12.357   4.046 -1.6070  0.7021  1.0452
23602SOL     OW75616   7.889  10.052   5.590 -0.2172 -0.6122  0.0792
23602SOL    HW175617   7.924  10.136   5.560 -0.8384  0.1595  1.4175
23602SOL    HW275618   7.965   9.993   5.592  0.3162  0.0490 -0.4232
23603SOL     OW75619  12.438   7.064   2.906  0.1781 -0.0353 -1.0989
23603SOL    HW175620  12.529   7.045   2.886  0.6965  1.6827 -0.5189
23603SOL    HW275621  12.399   7.087   2.821  0.1502 -1.2084 -1.4147
23604SOL     OW75622  11.241   6.553   6.196  0.0294  0.3230  0.2230
23604SOL    HW175623  11.330   6.569   6.227  1.5312 -0.0710 -3.3333
23604SOL    HW275624  11.253   6.507   6.112 -3.5316  0.5754 -0.5940
23605SOL     OW75625  10.176  10.909   6.223 -0.6150 -0.0527 -0.4566
23605SOL    HW175626  10.088  10.883   6.253 -0.5234 -0.3620 -0.4471
23605SOL    HW275627  10.234  10.846   6.265 -0.1831  1.3380  1.1324
23606SOL     OW75628   9.155   9.933   7.959  0.1494 -0.5765 -0.9551
23606SOL    HW175629   9.178  10.013   8.005  1.1191 -1.2889 -0.1455
23606SOL    HW275630   9.061   9.922   7.975  0.6029 -1.3106  1.7724
23607SOL     OW75631   0.782   7.752   9.723  0.0671 -0.0746 -0.1054
23607SOL    HW175632   0.730   7.831   9.735  1.3526  0.7400  0.2871
23607SOL    HW275633   0.786   7.739   9.628 -1.1035 -0.3541 -0.1370
23608SOL     OW75634   5.791   6.284   4.249 -0.4698 -0.3211 -0.6324
23608SOL    HW175635   5.715   6.227   4.254 -1.1305  0.5720  0.0261
23608SOL    HW275636   5.829   6.268   4.163 -2.4503  0.5109 -1.6993
23609SOL     OW75637  12.285   9.138   8.314 -0.0755 -0.5023  0.6766
23609SOL    HW175638  12.330   9.218   8.340  1.8495 -0.8185 -1.3163
23609SOL    HW275639  12.316   9.072   8.376 -1.0933  0.0939  1.8690
23610SOL     OW75640   4.288   7.906   9.996  0.4347  0.2438 -0.0707
23610SOL    HW175641   4.332   7.836   9.948  1.5715  1.7482 -1.3460
23610SOL    HW275642   4.245   7.958   9.928  0.5401  1.3984  0.7108
23611SOL     OW75643  12.545   2.123   6.804  0.2958 -0.1434  0.4840
23611SOL    HW175644  12.591   2.168   6.876  0.4627  0.7713 -0.1849
23611SOL    HW275645  12.452   2.135   6.824  0.3306  1.1110 -0.0490
23612SOL     OW75646   6.964   1.281  10.509  0.7161  0.1248  0.0898
23612SOL    HW175647   6.908   1.312  10.580  0.6094 -0.5418  0.3106
23612SOL    HW275648   6.961   1.350  10.443 -0.5495  0.0023  0.0043
23613SOL     OW75649   7.966   8.984  12.113 -0.2575  0.0083  0.5087
23613SOL    HW175650   7.888   8.959  12.065 -1.0844 -0.1626  1.8852
23613SOL    HW275651   7.960   9.079  12.123 -0.8274 -0.1136  1.4684
23614SOL     OW75652  12.097  10.209   5.293 -0.0932 -0.4287  0.1577
23614SOL    HW175653  12.081  10.265   5.217  0.5048 -1.4395 -0.7513
23614SOL    HW275654  12.143  10.265   5.355  0.1647  0.1938 -0.5729
23615SOL     OW75655  11.837   7.900  11.784  0.1956 -0.4272  0.0052
23615SOL    HW175656  11.809   7.888  11.693  2.6105 -2.4276 -0.5834
23615SOL    HW275657  11.773   7.852  11.835 -2.2744  2.2213 -0.3206
23616SOL     OW75658  11.919   3.267   5.610 -0.1968 -0.0604  0.8259
23616SOL    HW175659  12.002   3.292   5.651  0.6100 -1.7737  0.2917
23616SOL    HW275660  11.860   3.251   5.684  0.7044 -1.3241  1.3000
23617SOL     OW75661   7.245   3.476  11.713  0.0471 -0.6601  0.1813
23617SOL    HW175662   7.319   3.495  11.771  0.8037 -0.4906 -0.8144
23617SOL    HW275663   7.279   3.490  11.624 -1.2035 -0.4773 -0.3011
23618SOL     OW75664   4.899   3.170   7.915  0.6250  0.4392 -0.0979
23618SOL    HW175665   4.945   3.191   7.997  0.1879 -1.7060  0.7607
23618SOL    HW275666   4.959   3.197   7.846  2.1246 -0.0476  0.9690
23619SOL     OW75667   6.350   7.729   1.974  0.0608 -0.5236  0.4863
23619SOL    HW175668   6.273   7.774   1.939 -0.6608 -1.9537  0.1486
23619SOL    HW275669   6.333   7.724   2.068  0.3714  0.3040  0.5931
23620SOL     OW75670  11.090   1.697  10.590 -0.7033 -0.1727  0.6849
23620SOL    HW175671  11.022   1.630  10.594  1.1286 -2.1769  0.0031
23620SOL    HW275672  11.172   1.648  10.589  0.6962  1.9485 -2.0022
23621SOL     OW75673  10.175   9.581   8.974  0.2067 -0.1506  0.4082
23621SOL    HW175674  10.157   9.593   8.881  2.1383  1.1232  0.1440
23621SOL    HW275675  10.092   9.603   9.018 -0.2973  0.7180 -0.9303
23622SOL     OW75676  11.442   0.593  12.441 -0.2155  0.2037  0.3175
23622SOL    HW175677  11.461   0.599  12.347  1.4361 -1.8440  0.4239
23622SOL    HW275678  11.473   0.676  12.477  0.6191  0.3938 -0.7705
23623SOL     OW75679  10.097  11.115  10.358 -0.0836 -0.2181  0.0102
23623SOL    HW175680  10.175  11.123  10.303 -0.7956 -0.9441 -1.1334
23623SOL    HW275681  10.077  11.021  10.358 -2.0072  0.1507 -1.2250
23624SOL     OW75682   4.924   2.946   2.224 -0.1100 -0.1190 -0.1905
23624SOL    HW175683   4.834   2.937   2.254 -1.2967  1.9258 -2.6708
23624SOL    HW275684   4.944   2.862   2.183 -1.3740 -0.2207 -0.6686
23625SOL     OW75685   6.730   8.987   4.942 -0.1542 -0.3476 -0.6680
23625SOL    HW175686   6.772   9.062   4.900  0.3985 -0.5856 -0.5566
23625SOL    HW275687   6.803   8.935   4.975 -0.5658  0.2168  1.2599
23626SOL     OW75688   7.646  12.261   7.794  0.2235  0.1311 -0.2711
23626SOL    HW175689   7.582  12.281   7.726  0.6053  2.2300 -0.0875
23626SOL    HW275690   7.693  12.184   7.761 -1.3903 -0.5609 -1.0807
23627SOL     OW75691   4.769  11.246  10.059 -0.4253 -0.2092  0.1701
23627SOL    HW175692   4.754  11.339  10.043  0.5620  0.0871  0.8629
23627SOL    HW275693   4.855  11.228  10.019 -1.3034 -1.2253 -1.3839
23628SOL     OW75694   2.819  12.512   0.008 -0.0770 -0.5177 -0.1326
23628SOL    HW175695   2.837  12.485  -0.082 -1.8312 -0.9351 -0.3869
23628SOL    HW275696   2.742  12.462   0.033 -0.7643  1.0075  0.9338
23629SOL     OW75697   2.821  10.829   5.648  0.0069  0.3180 -0.0958
23629SOL    HW175698   2.741  10.880   5.634  0.6410  0.8709 -2.1633
23629SOL    HW275699   2.889  10.895   5.661  0.4609 -0.0813 -0.4334
23630SOL     OW75700   1.167   9.578  11.667  0.2981  0.6435  0.5808
23630SOL    HW175701   1.126   9.641  11.607 -0.6574 -1.6365 -1.3479
23630SOL    HW275702   1.260   9.599  11.664  0.4765  0.0437 -2.6710
23631SOL     OW75703   0.666   3.039   6.363  0.6005 -0.4831 -0.2399
23631SOL    HW175704   0.583   3.068   6.323 -0.0774 -1.9695 -0.0124
23631SOL    HW275705   0.723   3.021   6.288  0.4452 -0.2069 -0.4271
23632SOL     OW75706   8.897   9.375  11.511  0.1092 -0.3064 -0.4601
23632SOL    HW175707   8.805   9.402  11.499  0.1593  0.1103  0.0722
23632SOL    HW275708   8.894   9.312  11.582  0.3459  0.4222  0.2159
23633SOL     OW75709   5.388   2.717   7.817 -0.2010  1.0966 -0.4889
23633SOL    HW175710   5.393   2.788   7.753  0.5431  2.4159  0.9730
23633SOL    HW275711   5.358   2.760   7.898 -1.0452 -0.5025  0.0903
23634SOL     OW75712   2.183   3.325  10.285 -0.3200  0.3172 -0.2503
23634SOL    HW175713   2.263   3.365  10.250 -0.2806  2.0515  1.5886
23634SOL    HW275714   2.112   3.380  10.251 -0.5856 -0.1866 -0.5108
23635SOL     OW75715   0.526   6.123   8.752  0.1082  0.1924 -0.4249
23635SOL    HW175716   0.601   6.064   8.753  1.2831  1.6303 -0.0456
23635SOL    HW275717   0.450   6.065   8.756  1.2218 -1.2653  0.9684
23636SOL     OW75718   7.223   4.801   7.163  0.1745 -0.3658 -0.2869
23636SOL    HW175719   7.227   4.850   7.081 -0.8158 -0.5901 -0.4746
23636SOL    HW275720   7.195   4.865   7.228  0.5470 -0.2884 -0.1994
23637SOL     OW75721   3.026  10.888   3.479 -0.2697 -0.4035  0.2555
23637SOL    HW175722   3.014  10.841   3.562 -0.5509  1.3863  1.3018
23637SOL    HW275723   3.119  10.879   3.459  0.5937  1.8045  2.5875
23638SOL     OW75724   5.228   5.218  10.103 -0.0601 -0.0290 -0.3052
23638SOL    HW175725   5.320   5.223  10.129 -0.4887 -1.0587  1.5586
23638SOL    HW275726   5.189   5.156  10.164 -2.0344  0.4734 -0.9870
23639SOL     OW75727   6.372  10.745   8.146  0.1401 -0.3797  0.0691
23639SOL    HW175728   6.289  10.726   8.189 -1.3032 -2.7356 -3.2675
23639SOL    HW275729   6.359  10.829   8.103 -0.1575 -0.2685  0.3844
23640SOL     OW75730   4.645  11.815   5.036 -0.2659 -0.4289 -0.5576
23640SOL    HW175731   4.598  11.742   4.996 -1.5821  0.5842 -0.9104
23640SOL    HW275732   4.701  11.774   5.102 -1.9345 -1.6404  0.1651
23641SOL     OW75733   7.530   6.597   1.110 -0.2398 -0.0361  0.2854
23641SOL    HW175734   7.619   6.562   1.113 -0.1710 -0.0866 -1.1954
23641SOL    HW275735   7.532   6.661   1.038 -1.0240  1.1138  1.2338
23642SOL     OW75736  11.318   9.454   1.534  0.1321  0.5910 -0.6871
23642SOL    HW175737  11.405   9.494   1.527  0.9319 -0.9331  0.0265
23642SOL    HW275738  11.260   9.513   1.485  2.0060  0.3560 -3.4262
23643SOL     OW75739   4.120   1.142   3.385  0.1360  0.9041 -0.2515
23643SOL    HW175740   4.025   1.142   3.392  0.1903 -1.2056  1.7566
23643SOL    HW275741   4.138   1.098   3.302 -0.6749 -0.7035  0.3847
23644SOL     OW75742  10.656  11.919   5.139 -0.0898  0.5130 -0.2558
23644SOL    HW175743  10.647  11.998   5.085 -1.7042  1.9539  1.9193
23644SOL    HW275744  10.571  11.910   5.182  0.0497 -2.4835 -0.4141
23645SOL     OW75745   4.372   9.379   7.874  0.6853 -0.5251 -0.2753
23645SOL    HW175746   4.435   9.413   7.937  0.9094  0.2638 -0.9066
23645SOL    HW275747   4.306   9.334   7.927  2.7975 -3.1856  0.2997
23646SOL     OW75748   9.292   8.163  10.309 -0.4278  0.1567 -0.2398
23646SOL    HW175749   9.223   8.106  10.342 -1.5362  1.0027 -1.0086
23646SOL    HW275750   9.324   8.210  10.386  1.2896 -2.2111  0.6223
23647SOL     OW75751   4.834   9.930   9.192  0.8290 -0.0764 -0.2977
23647SOL    HW175752   4.814  10.020   9.217 -3.3367 -0.1231 -2.6351
23647SOL    HW275753   4.911   9.938   9.136 -0.4807  2.4052 -1.9438
23648SOL     OW75754   9.808   8.135   9.418  0.1556 -0.3022 -0.1391
23648SOL    HW175755   9.798   8.040   9.427  1.0719 -0.7082 -2.6859
23648SOL    HW275756   9.739   8.160   9.357 -0.4886  0.8190  1.0050
23649SOL     OW75757   9.186   3.596   0.666  0.0172 -0.6337 -0.7720
23649SOL    HW175758   9.114   3.564   0.721 -0.7027  0.6514 -0.9255
23649SOL    HW275759   9.156   3.583   0.576  0.1836 -0.5613 -0.8394
23650SOL     OW75760   8.875   4.913   9.441  0.1464 -0.2210 -0.2588
23650SOL    HW175761   8.782   4.900   9.460  0.3069 -2.3585 -0.6491
23650SOL    HW275762   8.877   4.984   9.378 -1.2250 -0.1296 -0.2253
23651SOL     OW75763   8.236   8.126   3.070  0.3701  0.1606  0.2166
23651SOL    HW175764   8.325   8.114   3.103 -0.1696 -1.5997  1.1268
23651SOL    HW275765   8.190   8.046   3.095 -1.8632  1.6134  1.0043
23652SOL     OW75766   6.345   0.814   7.282  0.3465  0.1223 -0.3272
23652SOL    HW175767   6.289   0.738   7.292  0.3766  0.0915 -0.3939
23652SOL    HW275768   6.365   0.818   7.188  0.8771 -0.1653 -0.2275
23653SOL     OW75769   3.430   4.944   7.978  0.0776  0.3272 -0.3183
23653SOL    HW175770   3.444   4.869   8.035  0.8098  0.4505 -0.3261
23653SOL    HW275771   3.341   4.973   7.998  0.4049  0.5162  0.9302
23654SOL     OW75772   7.517  11.354   1.217 -0.4579  0.1059 -0.0629
23654SOL    HW175773   7.502  11.439   1.259 -1.7855  0.2472 -0.7613
23654SOL    HW275774   7.612  11.342   1.220 -0.2305  1.6819 -0.0491
23655SOL     OW75775  11.421   8.651   1.209  0.2153  0.0387 -0.0492
23655SOL    HW175776  11.498   8.620   1.161  0.8557 -0.3660  1.2006
23655SOL    HW275777  11.357   8.581   1.200 -0.0212  0.3547 -1.0496
23656SOL     OW75778  12.482  11.146   2.072  0.1275  0.1445  0.2098
23656SOL    HW175779  12.428  11.222   2.090  1.8191  1.2015  0.9848
23656SOL    HW275780  12.451  11.079   2.133 -0.9159  0.4269 -0.0061
23657SOL     OW75781   2.369   3.798  10.241  0.0465  0.1150  0.0020
23657SOL    HW175782   2.463   3.813  10.227  0.4355 -2.0484 -0.2106
23657SOL    HW275783   2.341   3.753  10.161 -0.8344 -0.5042  0.6463
23658SOL     OW75784   9.552   0.788   7.692  0.3726  0.2957  0.3594
23658SOL    HW175785   9.487   0.737   7.643  0.8848 -0.7217  0.7040
23658SOL    HW275786   9.552   0.874   7.650 -0.9993  0.2290  0.1846
23659SOL     OW75787  11.391  10.717  12.418 -0.1603 -0.5565  0.0820
23659SOL    HW175788  11.361  10.720  12.327  0.8132  0.4292 -0.2324
23659SOL    HW275789  11.340  10.647  12.458  0.4973 -2.0698 -1.6236
23660SOL     OW75790  12.582   3.001  11.766 -0.2654  0.1711  0.5051
23660SOL    HW175791  12.642   3.015  11.839  0.9131  1.9720 -0.7290
23660SOL    HW275792  12.543   3.087  11.750  0.1864  0.0547 -1.5262
23661SOL     OW75793   5.423   9.005   3.552  0.1951 -0.0122 -0.3322
23661SOL    HW175794   5.433   9.026   3.459  0.9564 -0.3584 -0.3312
23661SOL    HW275795   5.454   8.914   3.560 -0.2059 -0.1118  0.1979
23662SOL     OW75796  10.363   7.187   3.087  0.2791  0.3847 -0.0509
23662SOL    HW175797  10.282   7.192   3.035 -0.7436 -1.9516  1.2052
23662SOL    HW275798  10.345   7.243   3.163  0.0652  0.3165 -0.0491
23663SOL     OW75799   7.919   4.139  10.524  0.3995  0.5057 -0.0171
23663SOL    HW175800   7.908   4.092  10.441  1.8789  0.8625 -0.4444
23663SOL    HW275801   7.853   4.208  10.521  0.2486  0.3423 -0.7638
23664SOL     OW75802  10.901   6.289   9.471 -0.2347  0.9178  0.2485
23664SOL    HW175803  10.966   6.223   9.497 -0.8868  0.7465  1.5572
23664SOL    HW275804  10.943   6.373   9.491  0.0900  0.8543 -0.1625
23665SOL     OW75805   4.928   6.826   3.796 -0.2578  0.0850 -0.2102
23665SOL    HW175806   4.839   6.858   3.781 -0.9340 -1.6301 -0.1638
23665SOL    HW275807   4.919   6.731   3.794  1.3778 -0.1404  1.0031
23666SOL     OW75808   6.455   7.818   7.898  0.1220  0.6738  0.4443
23666SOL    HW175809   6.384   7.881   7.894  0.3559  0.9943  1.2065
23666SOL    HW275810   6.503   7.830   7.816 -1.3259 -0.3253 -0.6128
23667SOL     OW75811   1.679  10.941   0.786  0.0072  0.1487 -0.1101
23667SOL    HW175812   1.668  11.008   0.718  2.4119  1.2123  0.4460
23667SOL    HW275813   1.633  10.976   0.862 -0.5291  0.1410 -0.4202
23668SOL     OW75814  11.100   0.640   5.179 -0.0225 -0.3562 -0.7930
23668SOL    HW175815  11.036   0.703   5.148  0.4529 -0.1543 -1.3819
23668SOL    HW275816  11.179   0.660   5.130  0.5574 -0.4669  0.0611
23669SOL     OW75817   8.653   9.292   9.567 -0.0478  0.2851  0.3146
23669SOL    HW175818   8.597   9.345   9.624  0.2320 -0.0250  0.8822
23669SOL    HW275819   8.647   9.335   9.482 -1.5851 -0.0591  0.2161
23670SOL     OW75820   2.167   6.202   1.321  0.6159 -0.1271 -0.2511
23670SOL    HW175821   2.244   6.150   1.299  0.7590  0.5572 -1.4491
23670SOL    HW275822   2.193   6.292   1.301  0.6986  0.5932  2.6193
23671SOL     OW75823  11.640   7.119  11.377  0.0549 -0.5810  0.9594
23671SOL    HW175824  11.702   7.190  11.391 -1.8643  1.5741 -0.5571
23671SOL    HW275825  11.567   7.160  11.331 -0.7918 -3.7596 -0.8647
23672SOL     OW75826  12.621   9.121   6.781  0.6920 -0.0067 -0.1821
23672SOL    HW175827  12.572   9.200   6.804 -0.9694 -1.2833  0.9396
23672SOL    HW275828  12.625   9.123   6.685  1.0398  1.6044 -0.1697
23673SOL     OW75829   3.171   2.131  12.517 -0.3777  0.9792 -0.2748
23673SOL    HW175830   3.079   2.157  12.528 -0.2574  0.8546  1.2923
23673SOL    HW275831   3.190   2.079  12.595  1.4909  2.3985  0.2794
23674SOL     OW75832  11.645   7.717   8.036 -0.3487 -0.1315  0.0324
23674SOL    HW175833  11.723   7.705   7.982  0.0404  1.7621  0.1333
23674SOL    HW275834  11.572   7.708   7.975 -0.2374 -3.4380  0.1760
23675SOL     OW75835   7.488  10.151   2.455  0.2205 -0.1294  0.1932
23675SOL    HW175836   7.423  10.219   2.471 -0.3864 -0.6547 -0.0134
23675SOL    HW275837   7.571  10.193   2.477 -0.0685  0.8866 -0.5538
23676SOL     OW75838   7.343   2.496  12.623  0.4033  0.2207 -0.3683
23676SOL    HW175839   7.326   2.473  12.715  3.2547 -1.2482 -0.0876
23676SOL    HW275840   7.353   2.591  12.624 -1.2880  0.4284  0.4810
23677SOL     OW75841   2.914   6.029   7.586 -0.1990 -0.4093 -0.5996
23677SOL    HW175842   2.952   5.944   7.608  1.2062 -0.2504 -2.2276
23677SOL    HW275843   2.823   6.011   7.566  0.2084 -1.6268 -1.4210
23678SOL     OW75844   2.100   0.982   7.201 -0.3051  0.4253  0.2326
23678SOL    HW175845   2.061   0.968   7.114 -0.3503  2.6951 -0.1719
23678SOL    HW275846   2.194   0.981   7.185 -0.0233 -3.5811  0.9770
23679SOL     OW75847  12.631  10.786   8.681 -0.1341  0.1065 -0.3786
23679SOL    HW175848  12.708  10.788   8.737 -0.0600 -0.7743 -0.4424
23679SOL    HW275849  12.567  10.841   8.726 -0.3305 -1.1578  0.9458
23680SOL     OW75850   5.013   7.222   1.948 -0.0744 -0.1115 -0.2102
23680SOL    HW175851   4.938   7.163   1.956  0.2240 -0.3935  0.5945
23680SOL    HW275852   5.035   7.246   2.038 -1.2629  2.6225 -0.5390
23681SOL     OW75853  11.812   4.914   9.079  0.3952 -0.5548 -0.6119
23681SOL    HW175854  11.847   4.976   9.143  1.0420 -1.2759 -0.2466
23681SOL    HW275855  11.886   4.893   9.023 -0.0072 -0.4336 -1.1999
23682SOL     OW75856   2.327   1.024   0.310 -0.3255 -0.3916 -0.0884
23682SOL    HW175857   2.381   1.079   0.255 -0.1274  0.7130  1.1728
23682SOL    HW275858   2.237   1.038   0.278 -0.1324 -0.4095 -0.6463
23683SOL     OW75859  11.586   7.204   4.430 -0.2266  0.2427  0.4079
23683SOL    HW175860  11.570   7.205   4.336  2.2992  0.1636 -0.0871
23683SOL    HW275861  11.513   7.254   4.467 -0.3184  1.8701 -1.7640
23684SOL     OW75862   4.472  11.094   5.937 -0.3956 -0.5842  0.0506
23684SOL    HW175863   4.538  11.031   5.968 -0.6603 -0.0967  1.6875
23684SOL    HW275864   4.469  11.080   5.842  3.3550  0.5709 -0.4380
23685SOL     OW75865   5.431   0.951   0.037 -0.6510 -0.4143 -0.3066
23685SOL    HW175866   5.499   0.953   0.105 -0.9803  2.3699  0.0380
23685SOL    HW275867   5.349   0.968   0.083 -0.7979  2.2525 -1.3794
23686SOL     OW75868   8.955  10.590   4.630 -0.1201 -0.2276 -0.1530
23686SOL    HW175869   9.019  10.657   4.652  1.5799 -2.0184  0.7574
23686SOL    HW275870   8.873  10.637   4.614  1.5250  2.2436 -1.9906
23687SOL     OW75871   8.876   7.015   4.532  0.3442  0.2056  0.5170
23687SOL    HW175872   8.852   6.922   4.523 -0.3226  0.5858 -3.2658
23687SOL    HW275873   8.964   7.013   4.568 -0.0768 -1.8210  1.6122
23688SOL     OW75874   2.096   0.658   3.149  0.0043  0.0443 -0.1801
23688SOL    HW175875   2.107   0.710   3.069  1.3553  0.6365  0.3510
23688SOL    HW275876   2.184   0.656   3.188 -0.2937 -1.5629  0.4831
23689SOL     OW75877   0.224   0.896   9.149  0.3790  0.2815  0.0822
23689SOL    HW175878   0.253   0.974   9.195  0.7549 -0.8476  1.8608
23689SOL    HW275879   0.142   0.871   9.193  0.9207 -1.0223  0.4054
23690SOL     OW75880   1.670   5.944  11.364 -0.9147  0.2846 -0.6195
23690SOL    HW175881   1.686   5.903  11.449  1.3769  1.1334 -0.5724
23690SOL    HW275882   1.629   6.028  11.386  0.1850  0.7543 -0.2750
23691SOL     OW75883   2.060  11.264   9.338  0.0131 -0.0612 -0.9239
23691SOL    HW175884   2.145  11.246   9.297  0.9174  0.1945  0.7811
23691SOL    HW275885   2.081  11.297   9.425 -1.7650  2.5593 -1.3794
23692SOL     OW75886   0.068   8.512   5.489 -0.2656  0.1296 -0.5184
23692SOL    HW175887   0.128   8.457   5.440  0.2458  0.9689 -0.8551
23692SOL    HW275888   0.076   8.482   5.580  3.1358  2.2568  0.0736
23693SOL     OW75889   8.631   6.379  11.930  0.5208  0.1122  0.2054
23693SOL    HW175890   8.569   6.307  11.932  1.3383 -0.6784 -1.3012
23693SOL    HW275891   8.679   6.372  12.013 -0.2570 -0.2744  0.6314
23694SOL     OW75892  12.532   3.571   1.222  0.1017  0.3027 -0.4056
23694SOL    HW175893  12.588   3.601   1.150 -0.2736  0.4361 -0.6450
23694SOL    HW275894  12.587   3.510   1.271  0.8878  1.3767  0.0910
23695SOL     OW75895   7.603   3.787  10.886  0.0676  0.0186  0.0394
23695SOL    HW175896   7.638   3.833  10.810 -1.3910  1.3885  0.1298
23695SOL    HW275897   7.565   3.857  10.940  0.7122 -0.9660  1.8362
23696SOL     OW75898   7.236   5.605   7.323 -0.2605 -0.3938  0.7692
23696SOL    HW175899   7.302   5.666   7.288 -1.9520  0.4025 -1.2496
23696SOL    HW275900   7.276   5.519   7.314  0.9338  0.1460  0.6668
23697SOL     OW75901   8.962   9.724   5.835 -0.0403 -0.1118 -0.2613
23697SOL    HW175902   8.975   9.658   5.903 -0.2094  0.0973 -0.0214
23697SOL    HW275903   9.048   9.737   5.797  0.6263  1.6089  1.6226
23698SOL     OW75904   8.854   1.926   5.960 -0.0710  0.4430  0.5684
23698SOL    HW175905   8.865   1.936   6.054 -0.9502 -1.6499  0.9344
23698SOL    HW275906   8.889   1.840   5.940 -2.5676 -0.4389 -0.4768
23699SOL     OW75907   7.844   6.228   8.022 -0.1349 -0.1739 -0.2033
23699SOL    HW175908   7.817   6.202   8.111 -0.3303  0.2485 -0.1401
23699SOL    HW275909   7.868   6.320   8.030 -0.4325 -0.0585 -0.6544
23700SOL     OW75910   6.529   2.186  11.063 -0.6389 -0.5982 -0.4116
23700SOL    HW175911   6.473   2.224  11.130 -2.1361  0.3399 -2.1103
23700SOL    HW275912   6.615   2.227  11.077 -1.5026  1.3204 -0.4466
23701SOL     OW75913   4.240   9.948  12.007 -0.2240  0.3210 -0.0397
23701SOL    HW175914   4.220  10.038  12.032 -0.1177  0.8171 -1.6713
23701SOL    HW275915   4.155   9.904  12.005 -0.6203  1.0738 -1.7516
23702SOL     OW75916   3.376   9.686   9.410  0.6721 -0.3311  0.1990
23702SOL    HW175917   3.440   9.707   9.478 -0.7408 -0.3629  1.5921
23702SOL    HW275918   3.406   9.602   9.375  1.2044 -0.5394  1.1008
23703SOL     OW75919  11.218   4.690  10.573  0.1799 -0.2388 -0.3696
23703SOL    HW175920  11.262   4.698  10.488 -0.4952 -1.3155 -0.8413
23703SOL    HW275921  11.241   4.603  10.604  2.5183  1.0335  1.8115
23704SOL     OW75922   0.319   9.264   2.553  0.4291 -0.0193  0.0833
23704SOL    HW175923   0.331   9.289   2.462  1.2472 -1.8837 -0.3604
23704SOL    HW275924   0.234   9.301   2.577 -0.5852 -0.8633 -1.9426
23705SOL     OW75925   0.711  12.338   1.007  0.0152  0.0953 -0.1667
23705SOL    HW175926   0.665  12.284   1.071 -0.3668 -0.7133 -1.1079
23705SOL    HW275927   0.651  12.410   0.989 -0.0105  0.1523  0.1342
23706SOL     OW75928   4.879  10.720   7.661 -0.5012  0.6673  0.6720
23706SOL    HW175929   4.943  10.781   7.625 -0.3648  1.0556  1.5385
23706SOL    HW275930   4.813  10.777   7.700 -0.9396  0.2595  0.5296
23707SOL     OW75931   8.447   7.644   5.683 -0.2297 -0.0101  0.4150
23707SOL    HW175932   8.404   7.682   5.607  0.6663  1.1003  0.4385
23707SOL    HW275933   8.420   7.698   5.757 -0.6263 -0.7237  0.8090
23708SOL     OW75934  12.127   6.478   4.466  0.4487 -0.0443 -0.4463
23708SOL    HW175935  12.212   6.441   4.487  0.3157 -0.1101 -0.0287
23708SOL    HW275936  12.124   6.478   4.370  0.1088 -1.9147 -0.4666
23709SOL     OW75937   6.737   8.520   6.417  0.1910 -0.2504  0.5556
23709SOL    HW175938   6.732   8.613   6.437  2.1934  0.3163 -1.1658
23709SOL    HW275939   6.778   8.480   6.493  0.1861  0.4263  0.9145
23710SOL     OW75940   7.626   0.394   9.971  0.2866  0.0845 -0.2585
23710SOL    HW175941   7.563   0.352   9.913 -1.7486  1.0849  1.1184
23710SOL    HW275942   7.694   0.328   9.984 -0.6730 -1.2068 -1.4546
23711SOL     OW75943   7.678   8.257   5.970 -0.0718  0.4168  0.1592
23711SOL    HW175944   7.672   8.289   6.060 -0.4701  1.6833 -0.2945
23711SOL    HW275945   7.657   8.164   5.976 -1.4390  0.7681  1.1933
23712SOL     OW75946   7.896   1.554   0.157  0.0145  0.0696 -0.2872
23712SOL    HW175947   7.853   1.484   0.207 -1.5188  0.7075 -0.6708
23712SOL    HW275948   7.988   1.547   0.182  0.1362 -2.8298 -1.1621
23713SOL     OW75949  10.538   5.105   2.075 -0.0870 -0.2512 -0.3314
23713SOL    HW175950  10.485   5.184   2.076 -0.8002 -0.7233  0.8764
23713SOL    HW275951  10.526   5.066   2.162  0.5987 -1.4561 -0.7440
23714SOL     OW75952   6.662   4.679   1.570  0.2282  0.0050  0.9053
23714SOL    HW175953   6.748   4.662   1.531 -0.5069 -1.1956 -0.2731
23714SOL    HW275954   6.604   4.617   1.527 -1.4284  1.4366  0.9857
23715SOL     OW75955   1.910   2.823   1.930 -0.2906 -0.6369 -0.2764
23715SOL    HW175956   1.883   2.756   1.993 -1.3897 -0.4193 -0.4927
23715SOL    HW275957   1.856   2.899   1.951  0.1368 -0.1892 -0.7630
23716SOL     OW75958  10.786  12.283   9.328  0.0430 -0.1726  0.1115
23716SOL    HW175959  10.735  12.313   9.403  1.4553  0.1778  0.9846
23716SOL    HW275960  10.784  12.356   9.267  0.7996  0.4799  0.8370
23717SOL     OW75961  10.218  11.774   2.714 -0.2719 -0.2759  0.1645
23717SOL    HW175962  10.193  11.731   2.795 -1.2645  0.6736  0.3799
23717SOL    HW275963  10.314  11.777   2.717 -0.2473 -1.2884  0.7369
23718SOL     OW75964   7.523   5.627   3.326 -0.2715  0.3237  0.0836
23718SOL    HW175965   7.602   5.593   3.284  0.0048  1.2383 -0.1742
23718SOL    HW275966   7.487   5.553   3.374  1.4331  0.2034  1.2548
23719SOL     OW75967   2.760   9.182   4.701 -0.1754 -0.2885  0.2207
23719SOL    HW175968   2.688   9.238   4.730 -0.7347 -1.0188  0.2443
23719SOL    HW275969   2.743   9.167   4.608  0.3393  0.1233  0.0555
23720SOL     OW75970  10.539  11.151   7.266 -0.1336  0.0259 -0.2803
23720SOL    HW175971  10.495  11.066   7.264 -0.0840 -0.0007 -0.2292
23720SOL    HW275972  10.533  11.183   7.176 -1.0569  0.4392 -0.0771
23721SOL     OW75973   3.049   1.630   9.020 -0.0776 -0.7392  0.0512
23721SOL    HW175974   3.118   1.685   8.984 -0.2103 -0.0866  0.7664
23721SOL    HW275975   2.974   1.689   9.031 -0.5721 -1.3122 -0.1950
23722SOL     OW75976   9.403   1.695   6.010  0.0363 -0.2627 -0.1125
23722SOL    HW175977   9.342   1.622   5.999 -0.0778 -0.0933 -0.6123
23722SOL    HW275978   9.482   1.669   5.962  1.0408 -1.2405  1.9463
23723SOL     OW75979   3.156  10.957   1.991  0.6182  0.2866  0.2813
23723SOL    HW175980   3.062  10.962   1.973  0.3362  1.2295  1.8174
23723SOL    HW275981   3.178  10.864   1.979 -0.5156  0.0494 -0.0349
23724SOL     OW75982  10.450   0.245   3.910  0.3076 -0.1738 -1.0748
23724SOL    HW175983  10.463   0.305   3.983  1.1058 -0.9253 -0.5799
23724SOL    HW275984  10.386   0.289   3.853  1.3442  1.4180 -1.0559
23725SOL     OW75985  10.358  12.538   5.458 -0.1230 -0.2929 -0.3513
23725SOL    HW175986  10.416  12.532   5.534 -1.8557  0.4498  1.0877
23725SOL    HW275987  10.339  12.448   5.435  0.3521 -0.5248  0.1461
23726SOL     OW75988  12.341   4.944   1.318  0.3775 -0.6753 -0.2290
23726SOL    HW175989  12.391   5.023   1.295 -0.4891 -0.2318 -0.6545
23726SOL    HW275990  12.339   4.943   1.413  0.2664 -0.0982 -0.2236
23727SOL     OW75991   8.966   0.072  10.645 -0.6569 -0.2386 -0.0216
23727SOL    HW175992   9.054   0.106  10.630 -0.5367 -0.8141 -0.6281
23727SOL    HW275993   8.908   0.147  10.629 -0.1674  1.0916  3.4012
23728SOL     OW75994   7.595   9.899   0.288 -0.6346 -0.1103 -0.4988
23728SOL    HW175995   7.649   9.823   0.309 -1.2560 -1.2565 -2.7060
23728SOL    HW275996   7.506   9.873   0.313 -0.6587  0.4598  0.0330
23729SOL     OW75997  12.283   8.150   2.140  1.2484 -0.0852  0.0169
23729SOL    HW175998  12.277   8.202   2.220 -2.2214  0.7502 -0.6091
23729SOL    HW275999  12.307   8.214   2.072  0.4331  0.0068 -0.1921
23730SOL     OW76000   9.801   6.709  11.344 -0.3236  0.7241 -0.1309
23730SOL    HW176001   9.792   6.684  11.435 -1.7225  0.9569 -0.1889
23730SOL    HW276002   9.826   6.628  11.299  0.7932  0.6987  0.4939
23731SOL     OW76003   7.802   4.850   8.710 -0.1704 -0.4082  0.0276
23731SOL    HW176004   7.856   4.892   8.777  0.4408  2.2537 -1.9856
23731SOL    HW276005   7.714   4.885   8.725  0.5601  2.9602 -2.4237
23732SOL     OW76006   0.785   9.635   4.874 -0.0414  0.6627 -0.2071
23732SOL    HW176007   0.800   9.566   4.810 -0.5505  0.1938  0.1747
23732SOL    HW276008   0.698   9.617   4.909  0.2453  0.8945  0.6429
23733SOL     OW76009  12.289   8.761  10.301  0.6545  0.5483 -0.3518
23733SOL    HW176010  12.197   8.763  10.326  0.6102 -0.8370 -0.3279
23733SOL    HW276011  12.327   8.840  10.341  0.2333 -0.6510  2.6913
23734SOL     OW76012   7.337   1.447   7.741  0.3057 -0.0657  0.0560
23734SOL    HW176013   7.336   1.392   7.818 -2.4109 -0.1532  0.0569
23734SOL    HW276014   7.400   1.516   7.761  1.6453 -1.5563  1.1897
23735SOL     OW76015   6.087   5.761   6.351 -0.2782  0.7477 -0.1041
23735SOL    HW176016   6.009   5.817   6.357 -0.6264  0.2281  0.4013
23735SOL    HW276017   6.057   5.684   6.302 -0.5440 -0.1713  1.4194
23736SOL     OW76018  11.274   3.745   0.787  0.0007  0.1794  0.0802
23736SOL    HW176019  11.316   3.785   0.863 -0.7505 -1.5391  1.4743
23736SOL    HW276020  11.190   3.789   0.780  0.1674  0.5048  0.1096
23737SOL     OW76021  11.340  11.755   9.190 -0.5471 -0.1679  0.2144
23737SOL    HW176022  11.396  11.732   9.265 -0.6871 -0.9508  0.0875
23737SOL    HW276023  11.280  11.821   9.225 -0.6241 -0.5382  0.8133
23738SOL     OW76024   2.564   1.185   0.441  0.4685 -0.5625  0.0055
23738SOL    HW176025   2.614   1.216   0.517  1.2014 -1.3705 -0.1277
23738SOL    HW276026   2.617   1.113   0.406  0.0373 -0.3293 -1.1597
23739SOL     OW76027  11.184   4.845   8.834 -0.1299  0.2852  0.3317
23739SOL    HW176028  11.214   4.861   8.923 -1.2698  0.4140  0.7115
23739SOL    HW276029  11.250   4.888   8.778  1.9710 -1.9226  0.9672
23740SOL     OW76030   0.945   5.634   2.064 -0.1922 -0.5819 -0.5539
23740SOL    HW176031   0.970   5.581   1.989  0.7200  0.4439 -0.9901
23740SOL    HW276032   0.987   5.592   2.139  0.1839 -0.7044 -0.8356
23741SOL     OW76033   4.752   7.261   5.988  0.3680 -0.2088  0.6272
23741SOL    HW176034   4.783   7.204   5.918  0.4604  0.0842  0.4271
23741SOL    HW276035   4.687   7.208   6.035  0.5146 -0.5065  0.4992
23742SOL     OW76036   8.064   9.433   2.052 -0.1206  0.1240 -0.2857
23742SOL    HW176037   7.998   9.364   2.041  1.0682 -1.1407  0.2906
23742SOL    HW276038   8.043   9.472   2.136 -2.1477  2.0295 -1.5616
23743SOL     OW76039   5.438   3.102   2.172  0.0355 -0.8880  0.1391
23743SOL    HW176040   5.392   3.101   2.088 -0.4711  0.3789  0.3818
23743SOL    HW276041   5.530   3.110   2.150 -0.1981  0.9968 -0.3022
23744SOL     OW76042   5.805   4.665   4.113  0.0401 -0.6105  0.1438
23744SOL    HW176043   5.735   4.661   4.048 -0.7815 -0.4792  1.0057
23744SOL    HW276044   5.761   4.685   4.195  1.3787  2.3750  0.2539
23745SOL     OW76045   4.579   5.400   6.853  0.2715  0.4793  0.1232
23745SOL    HW176046   4.584   5.487   6.813  0.6994  0.8766  1.0280
23745SOL    HW276047   4.611   5.341   6.785 -1.2114  0.8517 -0.9736
23746SOL     OW76048   8.317   7.565  11.797  0.3154 -0.5998  0.5311
23746SOL    HW176049   8.287   7.579  11.887 -0.4206 -0.6781  0.3062
23746SOL    HW276050   8.376   7.490  11.803  1.4854  0.3373  1.1785
23747SOL     OW76051  12.079   7.523   9.710 -0.2372  0.1396  0.4444
23747SOL    HW176052  12.173   7.541   9.721 -0.0653 -0.5211  0.1200
23747SOL    HW276053  12.062   7.540   9.617 -0.4184  0.1808  0.4853
23748SOL     OW76054   0.645   1.256   1.175  0.3692 -0.1611  0.2383
23748SOL    HW176055   0.576   1.308   1.216 -0.4875 -1.1172  0.0631
23748SOL    HW276056   0.724   1.308   1.185 -0.3289  0.8444  0.6845
23749SOL     OW76057   0.673  11.640   0.753  0.0246  0.0053  0.3227
23749SOL    HW176058   0.761  11.625   0.718 -0.2417 -0.8107 -0.0170
23749SOL    HW276059   0.641  11.553   0.775 -0.8248  0.2623  0.1341
23750SOL     OW76060   3.100   0.598   4.738 -0.6082 -0.1160  0.1136
23750SOL    HW176061   3.172   0.625   4.680 -0.1005  0.6193  1.0606
23750SOL    HW276062   3.106   0.503   4.741 -0.1273 -0.1104 -0.3895
23751SOL     OW76063   1.234   3.698   8.696 -0.4396  0.2141  0.1324
23751SOL    HW176064   1.173   3.625   8.708  0.1233 -0.6203 -1.7110
23751SOL    HW276065   1.316   3.666   8.735 -0.5915  0.4885  0.6904
23752SOL     OW76066   8.458   0.616   3.139 -0.0979  0.0938 -0.1360
23752SOL    HW176067   8.468   0.603   3.045 -0.2833 -0.1896 -0.1203
23752SOL    HW276068   8.367   0.591   3.157 -0.3864  1.1534 -0.0464
23753SOL     OW76069   8.386   1.233   2.902 -0.2043  0.0990 -0.0532
23753SOL    HW176070   8.373   1.174   2.828  0.5358 -1.2048  0.8086
23753SOL    HW276071   8.436   1.306   2.866  2.1122 -1.5692 -0.4299
23754SOL     OW76072   6.460   2.446   0.304  0.1326  0.0091  0.7622
23754SOL    HW176073   6.389   2.408   0.356 -0.0208  0.5414  0.9496
23754SOL    HW276074   6.483   2.527   0.349  0.1250  0.3858  0.1118
23755SOL     OW76075   1.323  11.015   2.257 -0.1071  0.0920 -0.7588
23755SOL    HW176076   1.242  10.988   2.299  1.8544 -1.2340  2.6629
23755SOL    HW276077   1.337  10.952   2.187 -1.3730 -0.4486 -0.5487
23756SOL     OW76078   2.185   5.658   7.112  0.2767  0.3835 -0.1455
23756SOL    HW176079   2.238   5.738   7.101  3.0580 -1.4417 -1.0150
23756SOL    HW276080   2.206   5.627   7.200 -1.2812  0.8326  0.4342
23757SOL     OW76081   2.607   5.985   7.494 -0.1141 -0.6107 -0.2220
23757SOL    HW176082   2.558   5.911   7.530  1.4554 -1.2281  0.7645
23757SOL    HW276083   2.609   6.050   7.564  0.4271 -0.5839 -0.2514
23758SOL     OW76084   0.235   8.930   9.690  0.1071 -0.4245 -0.3919
23758SOL    HW176085   0.329   8.946   9.699  0.2948 -0.0365 -2.5371
23758SOL    HW276086   0.229   8.847   9.641 -0.6751 -0.7150  0.1747
23759SOL     OW76087   9.106   8.966  12.088 -0.0141  0.0522  0.1875
23759SOL    HW176088   9.194   8.986  12.055 -0.0605 -0.1649 -0.0778
23759SOL    HW276089   9.080   9.043  12.138  1.5835 -1.0845  2.9779
23760SOL     OW76090   1.003   0.040   7.867  0.1729 -0.2040 -0.2394
23760SOL    HW176091   1.038   0.126   7.891 -0.6773  0.2475 -0.5897
23760SOL    HW276092   1.061  -0.022   7.911  2.1810  0.4708 -1.7707
23761SOL     OW76093   3.297   2.391  12.032 -0.1999  0.1776 -0.4125
23761SOL    HW176094   3.224   2.433  11.985 -1.7587 -1.2862  0.5684
23761SOL    HW276095   3.275   2.298  12.029  1.3114 -0.2234  0.5110
23762SOL     OW76096  12.643   6.127   1.690 -1.1590  0.8339  0.0424
23762SOL    HW176097  12.711   6.138   1.756 -2.0368  0.0803  1.1327
23762SOL    HW276098  12.676   6.171   1.612  1.9097 -1.9790 -0.4606
23763SOL     OW76099   0.143  10.759   7.174 -0.0494 -0.5134 -0.0214
23763SOL    HW176100   0.167  10.848   7.199  1.0381 -1.2047  1.5720
23763SOL    HW276101   0.222  10.724   7.132 -0.4024 -0.7983 -0.4534
23764SOL     OW76102   4.915   9.672   0.634 -0.4975 -0.4447  0.4936
23764SOL    HW176103   4.819   9.662   0.637 -0.7926  1.7056 -0.0998
23764SOL    HW276104   4.940   9.633   0.551 -1.2578  1.3350 -0.6324
23765SOL     OW76105   7.301   1.277  10.593  0.1083  0.0469  0.1970
23765SOL    HW176106   7.276   1.236  10.510 -0.3244  0.7732 -0.0473
23765SOL    HW276107   7.386   1.317  10.575  0.2285 -0.1880  0.2410
23766SOL     OW76108   5.903   4.594   8.530 -0.5872  0.2694  0.2980
23766SOL    HW176109   5.909   4.689   8.517  1.7556  0.2415  0.7759
23766SOL    HW276110   5.869   4.560   8.447 -0.4889  1.4235 -0.2359
23767SOL     OW76111   0.455   3.319  11.289  0.1751 -0.3981 -0.3544
23767SOL    HW176112   0.477   3.312  11.197  1.1063 -1.1645 -0.0996
23767SOL    HW276113   0.384   3.383  11.293 -0.2561 -0.7652 -1.6508
23768SOL     OW76114   3.766   2.310  11.589  0.4103  0.7652  0.1469
23768SOL    HW176115   3.756   2.300  11.684 -1.0854 -0.8253 -0.1143
23768SOL    HW276116   3.763   2.404  11.574 -1.9126  0.9702  1.4805
23769SOL     OW76117   9.650   6.678   3.622 -0.0276 -0.2980  0.3722
23769SOL    HW176118   9.675   6.612   3.686  1.2241 -4.5733 -3.8685
23769SOL    HW276119   9.730   6.728   3.606  0.2578 -0.6477  0.7013
23770SOL     OW76120  10.690   0.283   6.882 -0.4943  0.1473 -0.4376
23770SOL    HW176121  10.659   0.200   6.918 -1.0642  0.5118 -0.0734
23770SOL    HW276122  10.726   0.330   6.957 -2.2944  1.1906 -0.1590
23771SOL     OW76123   8.584   6.342   7.004  0.2488 -0.5932 -0.1187
23771SOL    HW176124   8.661   6.291   6.982  0.9218  0.9104 -1.4856
23771SOL    HW276125   8.619   6.420   7.047 -0.4652  0.2092 -0.9501
23772SOL     OW76126   5.165   5.568  11.482  0.0283  0.1478 -0.4310
23772SOL    HW176127   5.081   5.614  11.478  0.2662  0.8493  1.4517
23772SOL    HW276128   5.230   5.637  11.466  0.3432  0.2833  1.2550
23773SOL     OW76129  12.573   3.512   5.898 -0.6266  0.3911 -0.4534
23773SOL    HW176130  12.545   3.530   5.988  1.5445  0.7180  0.2114
23773SOL    HW276131  12.637   3.581   5.879  0.5224 -0.9052 -1.4537
23774SOL     OW76132   6.931   2.115   6.096 -0.0069  0.0497  0.5392
23774SOL    HW176133   6.870   2.053   6.136 -0.0834 -0.0170  0.3168
23774SOL    HW276134   6.875   2.183   6.058 -0.1316 -1.3899 -2.1064
23775SOL     OW76135   2.272   4.483   9.790  0.1182  0.2893  0.0766
23775SOL    HW176136   2.227   4.405   9.822  1.8596 -0.7863  0.0283
23775SOL    HW276137   2.208   4.554   9.801 -0.7132 -0.7144  2.2808
23776SOL     OW76138  11.990   1.208   7.264 -0.0264 -0.4310 -0.0018
23776SOL    HW176139  11.966   1.169   7.180  1.5577 -1.4911 -0.0210
23776SOL    HW276140  11.992   1.134   7.324  0.8166 -0.0097  0.5022
23777SOL     OW76141   9.301  12.243   7.610  0.2726 -0.1420 -0.0523
23777SOL    HW176142   9.321  12.334   7.588  1.8327 -0.2470  0.7860
23777SOL    HW276143   9.238  12.249   7.681  0.0169  0.2801 -0.3140
23778SOL     OW76144  10.470   6.947   3.815  0.8748 -0.1587  0.0806
23778SOL    HW176145  10.524   6.993   3.880  1.3968 -0.7713  0.0914
23778SOL    HW276146  10.417   6.887   3.867  0.3791  0.2344  0.0421
23779SOL     OW76147   1.352  12.616   2.723  0.3250 -0.3246 -0.6522
23779SOL    HW176148   1.418  12.615   2.655 -0.2253 -0.2833 -1.1975
23779SOL    HW276149   1.299  12.693   2.704  0.1939 -0.2886 -0.1531
23780SOL     OW76150  10.174   0.043   2.241 -0.1175  0.1169 -0.1347
23780SOL    HW176151  10.235   0.088   2.300 -1.1468  2.3624 -0.6633
23780SOL    HW276152  10.198   0.074   2.154  0.1409 -1.6773 -0.7523
23781SOL     OW76153  10.655   9.699   3.810 -0.1602 -0.4229 -0.3215
23781SOL    HW176154  10.667   9.752   3.889 -0.4974 -0.7025 -0.0793
23781SOL    HW276155  10.582   9.742   3.764  0.3350  0.0084 -0.7133
23782SOL     OW76156   7.119   3.381   1.159  0.4022 -0.4788  0.6054
23782SOL    HW176157   7.187   3.352   1.098  0.1438  0.2913 -0.0603
23782SOL    HW276158   7.037   3.367   1.111  0.1504 -0.5296  1.0506
23783SOL     OW76159   8.419   0.013  10.173 -0.7312  0.4287  0.3291
23783SOL    HW176160   8.367   0.083  10.132 -1.6850 -0.6734 -0.3839
23783SOL    HW276161   8.493   0.001  10.114 -0.9428  0.3420  0.0819
23784SOL     OW76162   2.018  11.294   3.688 -0.2536 -0.1767 -0.1096
23784SOL    HW176163   2.016  11.387   3.666  0.1455 -0.4480 -1.4050
23784SOL    HW276164   1.979  11.289   3.776 -0.6162  1.1586 -0.1689
23785SOL     OW76165   3.472   4.421   9.043 -0.1639 -0.0016 -0.2996
23785SOL    HW176166   3.440   4.331   9.046  2.9169 -1.3313 -2.2597
23785SOL    HW276167   3.566   4.413   9.055  0.2513  2.9488 -0.8558
23786SOL     OW76168  12.253  10.779   9.346  0.2966  0.1241 -0.4760
23786SOL    HW176169  12.175  10.724   9.351 -0.8664  1.6789 -0.8372
23786SOL    HW276170  12.284  10.785   9.437 -1.0430  0.9149 -0.0537
23787SOL     OW76171   1.656   3.964   8.542  0.2733  0.3058 -0.5869
23787SOL    HW176172   1.701   3.985   8.624  1.0391 -0.2105 -0.8591
23787SOL    HW276173   1.564   3.978   8.561  0.4423  0.2522  0.3526
23788SOL     OW76174   2.245   2.650   8.649 -0.3514 -0.1964  0.0155
23788SOL    HW176175   2.203   2.684   8.728 -0.5297 -0.6442  0.1183
23788SOL    HW276176   2.183   2.670   8.579  0.5639  1.7590 -0.3116
23789SOL     OW76177   3.812   6.928   2.650  0.2568 -0.2516 -0.2255
23789SOL    HW176178   3.741   6.884   2.696  0.7402 -0.5843  0.2247
23789SOL    HW276179   3.852   6.859   2.596 -0.3774  0.1632 -1.2469
23790SOL     OW76180   6.808   7.417   6.972 -0.3169 -0.1352 -0.4694
23790SOL    HW176181   6.750   7.493   6.969 -1.0745 -0.6494  0.6062
23790SOL    HW276182   6.895   7.454   6.989 -0.2593  0.6501 -2.2798
23791SOL     OW76183   6.936   0.052   5.901 -0.1204 -0.4943  0.2640
23791SOL    HW176184   7.028   0.077   5.916  0.2065 -0.2487 -1.8906
23791SOL    HW276185   6.889   0.135   5.899 -0.0982 -0.4930 -0.3506
23792SOL     OW76186   5.737  10.154   8.557  0.1383  0.1338 -0.4020
23792SOL    HW176187   5.668  10.090   8.575 -0.4376  1.0464  0.7681
23792SOL    HW276188   5.734  10.214   8.631  1.6193  0.7069 -0.7655
23793SOL     OW76189   1.036   3.159   1.619  0.1763 -0.1816 -0.0945
23793SOL    HW176190   1.112   3.215   1.604  1.3320 -2.0490 -1.6371
23793SOL    HW276191   1.072   3.082   1.663 -0.9968 -0.7220 -0.0521
23794SOL     OW76192   0.445   3.761  11.289  0.0651 -0.1950 -0.1013
23794SOL    HW176193   0.424   3.818  11.215  1.5187  0.6056  0.0582
23794SOL    HW276194   0.403   3.803  11.364 -0.0608 -0.1109 -0.2186
23795SOL     OW76195   7.635   9.933   5.549 -0.3624  0.1748 -0.1160
23795SOL    HW176196   7.699   9.972   5.609 -0.1025  0.5997 -0.6570
23795SOL    HW276197   7.599  10.008   5.501 -2.6640  0.1931  1.4743
23796SOL     OW76198   7.752   9.023   8.841 -0.2421 -0.0073 -0.0039
23796SOL    HW176199   7.751   8.976   8.924 -0.1347  0.6232  0.3685
23796SOL    HW276200   7.678   9.084   8.847  0.3581  0.7364  0.0555
23797SOL     OW76201   0.291   1.512   4.579 -0.1443  0.4419  0.0543
23797SOL    HW176202   0.206   1.552   4.597  0.6323  1.9602  0.5366
23797SOL    HW276203   0.276   1.459   4.500 -1.5747  0.4947  0.2571
23798SOL     OW76204  11.828   3.127  12.290 -0.7391 -0.2228  0.2863
23798SOL    HW176205  11.856   3.099  12.377 -1.2000 -0.4272  0.3735
23798SOL    HW276206  11.756   3.188  12.307 -0.8268 -0.2585  0.0505
23799SOL     OW76207   3.556   7.543   9.290 -0.5017  0.3867  0.1333
23799SOL    HW176208   3.586   7.587   9.211 -0.0463 -0.8620 -0.4208
23799SOL    HW276209   3.476   7.498   9.263 -0.2643 -0.1626  0.3280
23800SOL     OW76210   2.122   5.194  10.615 -0.0841  0.6980  0.1940
23800SOL    HW176211   2.115   5.289  10.606 -0.3305  0.6424 -0.1901
23800SOL    HW276212   2.135   5.161  10.526 -0.1407  0.3599  0.3064
23801SOL     OW76213   5.320   3.607   5.206  0.3156  0.1513  0.6752
23801SOL    HW176214   5.291   3.626   5.116  0.5309  2.0124  0.9463
23801SOL    HW276215   5.252   3.550   5.241 -0.3684  0.3094 -0.3320
23802SOL     OW76216   6.477   3.582   4.814 -0.3972  0.1441  0.7191
23802SOL    HW176217   6.422   3.657   4.791 -1.6056 -1.1202 -0.6944
23802SOL    HW276218   6.524   3.560   4.734  0.1642 -0.4588  1.1986
23803SOL     OW76219   7.733   4.674   0.352  0.3270  0.1362  0.1003
23803SOL    HW176220   7.706   4.707   0.438  0.1434 -0.1103  0.1387
23803SOL    HW276221   7.747   4.581   0.366  0.0696  0.0511 -0.1940
23804SOL     OW76222   1.082   5.413   3.801 -0.1520  0.0695  0.4900
23804SOL    HW176223   1.105   5.362   3.878  0.5949  0.3347  0.4533
23804SOL    HW276224   1.053   5.497   3.836  2.1152  0.9393  0.4577
23805SOL     OW76225   8.141   8.153  12.033  0.4062 -0.1829 -0.0393
23805SOL    HW176226   8.217   8.211  12.023  0.5786 -0.6354 -1.5757
23805SOL    HW276227   8.069   8.200  11.991  0.3554 -0.7150 -0.5549
23806SOL     OW76228   7.294   6.889   4.903  0.1558  0.0015 -0.0393
23806SOL    HW176229   7.224   6.876   4.839 -0.0898  2.5957 -0.4104
23806SOL    HW276230   7.345   6.962   4.869  1.0102  0.3906  1.9111
23807SOL     OW76231   4.007   5.772   6.887 -0.0585 -0.3578  0.1377
23807SOL    HW176232   3.972   5.860   6.900  1.6170  0.0784  2.1172
23807SOL    HW276233   4.090   5.786   6.841  0.5624 -0.8344  1.0992
23808SOL     OW76234   8.829  12.184   2.384  0.1411  0.9219  0.2592
23808SOL    HW176235   8.806  12.181   2.477  1.0478 -2.0240  0.4975
23808SOL    HW276236   8.915  12.226   2.381  1.1078 -0.9212  1.0624
23809SOL     OW76237  12.148   4.788   8.783  0.0359 -0.2710  0.1551
23809SOL    HW176238  12.134   4.838   8.863 -0.2890 -1.4209  0.8358
23809SOL    HW276239  12.088   4.828   8.720  1.8739  2.1002 -0.2374
23810SOL     OW76240   0.586   2.962   7.517  0.0890  0.1194  0.0660
23810SOL    HW176241   0.508   2.971   7.463 -0.5418 -1.0102  0.7395
23810SOL    HW276242   0.601   3.049   7.554 -0.6428  0.4259 -0.3474
23811SOL     OW76243   0.804  12.435   0.158 -0.1479  0.0281  0.2494
23811SOL    HW176244   0.773  12.363   0.213 -0.1088 -0.7970 -0.7561
23811SOL    HW276245   0.881  12.399   0.114 -1.0400  0.1049 -1.4582
23812SOL     OW76246  10.278   0.372  10.986  0.0700  0.4009  0.5788
23812SOL    HW176247  10.312   0.461  10.998 -1.6327  1.1867 -0.1613
23812SOL    HW276248  10.218   0.359  11.059  2.1613 -1.1482  2.1306
23813SOL     OW76249   0.360  12.430   3.038 -0.1515 -0.2445 -0.3241
23813SOL    HW176250   0.358  12.338   3.065 -1.4893 -0.0274  0.4281
23813SOL    HW276251   0.402  12.475   3.112 -1.1517 -0.0339  0.1354
23814SOL     OW76252  10.808  11.523   4.007 -0.5447  0.1612 -0.6676
23814SOL    HW176253  10.881  11.482   3.961  0.5570  0.0414  1.1141
23814SOL    HW276254  10.736  11.460   3.997  0.8329 -1.8461  1.1734
23815SOL     OW76255   5.818   5.535   2.524 -0.4778 -0.0277 -0.5044
23815SOL    HW176256   5.811   5.443   2.497 -0.3264 -0.4192  0.7253
23815SOL    HW276257   5.763   5.542   2.602 -1.3217  1.1922 -1.1771
23816SOL     OW76258   5.592   1.597   0.222 -0.3215 -0.2042  0.2240
23816SOL    HW176259   5.662   1.631   0.278  0.1640 -1.2191  0.2512
23816SOL    HW276260   5.608   1.638   0.136  1.3262 -1.6941 -0.2246
23817SOL     OW76261   9.342   1.636  10.370  0.3634 -0.3263 -0.6123
23817SOL    HW176262   9.273   1.570  10.375  0.0981  0.0270  0.6300
23817SOL    HW276263   9.392   1.612  10.292 -1.3879 -0.3657 -1.8022
23818SOL     OW76264   8.751  10.600  11.064  0.3856  0.5325  0.6853
23818SOL    HW176265   8.778  10.594  11.156  0.3984  0.6297  0.6869
23818SOL    HW276266   8.751  10.693  11.044  1.2258  0.4683  0.3311
23819SOL     OW76267   8.801   7.461   2.610  0.0689 -0.0951 -0.2620
23819SOL    HW176268   8.885   7.480   2.568  0.4815 -0.6792  0.2873
23819SOL    HW276269   8.746   7.427   2.540  0.8558 -1.3682 -0.2863
23820SOL     OW76270  10.897  11.595  12.146 -0.1453 -0.4317  0.2861
23820SOL    HW176271  10.917  11.615  12.054 -1.4998 -1.9187 -0.3645
23820SOL    HW276272  10.863  11.677  12.182 -2.0973 -0.4848 -1.2930
23821SOL     OW76273   3.135  12.298  10.757  0.1042  0.4082 -0.2742
23821SOL    HW176274   3.135  12.332  10.847 -0.1530  0.4414 -0.2876
23821SOL    HW276275   3.057  12.335  10.717  0.5961  0.9647 -0.7339
23822SOL     OW76276   7.078   6.560  10.517 -0.4325  0.6244  0.2418
23822SOL    HW176277   7.078   6.475  10.473  0.5308  0.8207 -0.1584
23822SOL    HW276278   7.160   6.561  10.566  0.1443  1.7837 -0.6928
23823SOL     OW76279  11.796   7.119   6.051 -0.0094  0.1138 -0.1932
23823SOL    HW176280  11.889   7.144   6.046  0.4521 -1.0235  1.6792
23823SOL    HW276281  11.798   7.024   6.063 -1.3607  0.1979  0.9034
23824SOL     OW76282   1.242   7.002   5.623 -0.1165 -0.0114  0.1454
23824SOL    HW176283   1.292   7.058   5.564 -0.0810  0.7246  0.8675
23824SOL    HW276284   1.308   6.952   5.671 -0.1505 -2.6666 -2.3171
23825SOL     OW76285   2.970   9.648   3.114  0.2682  0.2696  0.7774
23825SOL    HW176286   2.919   9.647   3.033  1.2801 -1.1241  0.1355
23825SOL    HW276287   2.904   9.650   3.184 -0.6952 -1.2994 -0.0395
23826SOL     OW76288   9.932   9.272   7.887 -0.2758  0.3993 -0.2662
23826SOL    HW176289  10.012   9.290   7.937  0.1327  1.8194 -1.3791
23826SOL    HW276290   9.887   9.356   7.884 -1.2563 -0.1317 -0.6264
23827SOL     OW76291   6.537   8.424   1.738  0.4746 -0.5870  0.2140
23827SOL    HW176292   6.568   8.338   1.711  1.8180 -0.3085  0.7544
23827SOL    HW276293   6.582   8.485   1.679 -2.8090 -0.3102 -2.2682
23828SOL     OW76294  12.115   7.655   8.237  0.0374 -0.3855 -0.5795
23828SOL    HW176295  12.151   7.586   8.292 -1.9717 -0.8155  0.2825
23828SOL    HW276296  12.031   7.677   8.278 -0.6030  0.6744 -2.3545
23829SOL     OW76297   1.275  11.613   6.296  0.2743 -0.0758 -0.0229
23829SOL    HW176298   1.253  11.705   6.312  1.1888  0.1632 -0.1077
23829SOL    HW276299   1.292  11.577   6.383  1.6511  0.2936 -0.1236
23830SOL     OW76300   4.015   2.077   3.825  0.0177  0.7661 -0.3213
23830SOL    HW176301   3.939   2.063   3.881 -0.4370  3.1485 -0.2249
23830SOL    HW276302   4.030   1.993   3.782 -1.0270 -0.4845  1.6364
23831SOL     OW76303   4.730   3.244   6.528  0.5219 -0.8457 -0.1611
23831SOL    HW176304   4.801   3.304   6.506  0.1207 -0.1937  0.2961
23831SOL    HW276305   4.681   3.233   6.447  0.3657 -0.2408 -0.1474
23832SOL     OW76306  11.405  12.588   1.011 -0.0223  0.4271 -0.4527
23832SOL    HW176307  11.417  12.621   0.922 -1.5369 -0.3496 -0.9823
23832SOL    HW276308  11.326  12.631   1.043  0.4358  0.6024  0.4797
23833SOL     OW76309   3.198   0.983   0.983 -0.6624 -0.0071 -0.1452
23833SOL    HW176310   3.114   0.948   0.951 -1.2508  0.9633  0.2862
23833SOL    HW276311   3.222   1.049   0.918 -0.2899 -0.2018 -0.2046
23834SOL     OW76312   8.531  12.376   9.675  0.4027  0.1576  0.1991
23834SOL    HW176313   8.610  12.428   9.689  2.0441 -1.4568 -2.4264
23834SOL    HW276314   8.460  12.433   9.704  2.4237  1.9589  1.9468
23835SOL     OW76315  10.923   7.357   1.250 -0.5743  0.3690 -0.5573
23835SOL    HW176316  10.830   7.338   1.259 -0.2762 -0.3018  1.9601
23835SOL    HW276317  10.936   7.369   1.156 -3.1026  0.0901 -1.0217
23836SOL     OW76318  11.392  10.796   6.451 -0.4452  0.0543 -0.0565
23836SOL    HW176319  11.392  10.885   6.417  0.1359  0.5993  1.3160
23836SOL    HW276320  11.381  10.806   6.546 -1.5934 -1.3921 -0.0036
23837SOL     OW76321  12.546   3.960   2.711  0.3943 -0.5508 -0.0786
23837SOL    HW176322  12.583   3.912   2.637 -2.1520  0.8221 -2.4782
23837SOL    HW276323  12.616   3.964   2.775  2.7586 -1.9320 -2.3819
23838SOL     OW76324   5.972  11.853  10.313 -0.0406  0.2224 -0.3264
23838SOL    HW176325   6.048  11.898  10.349 -0.9878  1.4528  0.2162
23838SOL    HW276326   5.989  11.760  10.328  1.1657  0.5028  0.1233
23839SOL     OW76327   8.330   5.218   0.749 -0.6038 -0.3680 -0.0063
23839SOL    HW176328   8.341   5.238   0.842 -1.0158 -1.4670  0.2936
23839SOL    HW276329   8.386   5.282   0.704 -0.0175 -0.1413  1.0146
23840SOL     OW76330   5.504   1.052   1.777 -0.0020 -0.2242  0.1285
23840SOL    HW176331   5.570   0.983   1.787 -0.4806 -0.6060  0.7463
23840SOL    HW276332   5.427   1.008   1.742 -0.2587  0.0237  0.3719
23841SOL     OW76333   2.883   5.980   0.757 -0.7576 -0.4024  0.5769
23841SOL    HW176334   2.805   6.030   0.734  0.3892  1.8950  1.4534
23841SOL    HW276335   2.873   5.898   0.708 -3.0469  0.3500 -0.3699
23842SOL     OW76336  11.320   4.899   8.108 -0.6912  0.1557 -0.0883
23842SOL    HW176337  11.328   4.995   8.103 -1.2590  0.3200  1.5677
23842SOL    HW276338  11.249   4.878   8.048 -1.3534  0.9203  0.3997
23843SOL     OW76339   3.130   6.579   5.199 -0.5760  0.3678 -0.0537
23843SOL    HW176340   3.097   6.634   5.270  0.2547  0.8330 -0.0225
23843SOL    HW276341   3.199   6.631   5.158 -1.0401  0.1000 -1.2017
23844SOL     OW76342   5.919   9.125  10.093  0.5167  0.8643 -0.1574
23844SOL    HW176343   5.962   9.114  10.178  0.6781 -1.1712 -0.4581
23844SOL    HW276344   5.990   9.150  10.034  1.1507 -1.3036 -0.4023
23845SOL     OW76345  10.776   7.745  10.784 -0.3912  0.1925 -0.9153
23845SOL    HW176346  10.693   7.703  10.808 -0.1637 -0.4712 -1.2654
23845SOL    HW276347  10.750   7.817  10.727 -0.7115 -0.2480 -1.3361
23846SOL     OW76348  11.544   1.704  11.242 -0.4105 -0.0444 -0.3241
23846SOL    HW176349  11.516   1.790  11.212 -0.4797  0.4441  1.0757
23846SOL    HW276350  11.591   1.666  11.167  0.8088  1.7535 -0.5300
23847SOL     OW76351   3.166  10.831   7.514 -0.1343 -0.3646 -0.1741
23847SOL    HW176352   3.075  10.808   7.532 -0.2934 -0.2847 -0.8229
23847SOL    HW276353   3.174  10.823   7.418  0.6239 -0.6920 -0.0956
23848SOL     OW76354   0.065   0.138   6.730 -0.3494  0.7857  0.1316
23848SOL    HW176355  -0.003   0.100   6.675  0.3787 -0.6360  0.1731
23848SOL    HW276356   0.022   0.212   6.773 -1.0846  1.5886 -1.8829
23849SOL     OW76357  10.142   9.972   9.734  0.3597  0.4131 -0.4015
23849SOL    HW176358  10.140   9.939   9.644  0.9530 -2.0915  0.4108
23849SOL    HW276359  10.052   9.961   9.765  0.5819 -0.7194 -0.0907
23850SOL     OW76360  11.615   4.181   4.190  0.4011 -0.0887 -0.1075
23850SOL    HW176361  11.655   4.231   4.261  0.5277 -0.2830 -0.0405
23850SOL    HW276362  11.526   4.214   4.184  0.4147 -0.0147  0.0876
23851SOL     OW76363   4.714   8.704  11.962 -0.5797  0.0388 -0.1386
23851SOL    HW176364   4.651   8.726  11.893 -0.4249  1.9248  0.2511
23851SOL    HW276365   4.709   8.778  12.023  0.4289 -0.8308  1.0543
23852SOL     OW76366   5.127   3.941   8.377 -0.5436 -0.2102  0.6660
23852SOL    HW176367   5.130   3.856   8.420 -1.7531 -0.8110 -0.3508
23852SOL    HW276368   5.210   3.947   8.330 -0.6116 -1.0162  0.4242
23853SOL     OW76369  12.057   6.694  10.590  0.3218  0.3304 -0.1097
23853SOL    HW176370  11.967   6.713  10.616  0.0154 -1.3526  0.1278
23853SOL    HW276371  12.059   6.713  10.496 -0.6363 -0.7914 -0.3814
23854SOL     OW76372   0.541   5.764   0.580 -0.5881 -0.2820  0.4970
23854SOL    HW176373   0.450   5.738   0.571 -0.3003 -1.0138 -0.6268
23854SOL    HW276374   0.583   5.688   0.622 -0.7255  0.6124  2.3688
23855SOL     OW76375   4.614   6.200   9.487  0.3124 -0.6735  0.3825
23855SOL    HW176376   4.653   6.124   9.444  0.5031  0.1081 -0.8647
23855SOL    HW276377   4.652   6.276   9.443 -1.0902  0.1343  0.4899
23856SOL     OW76378   4.540   8.420   3.156  0.4898  0.1371 -0.2002
23856SOL    HW176379   4.552   8.434   3.062  1.8991  0.4220 -0.0054
23856SOL    HW276380   4.620   8.455   3.196 -0.8672  1.7439  1.2725
23857SOL     OW76381   4.374   0.910   8.941  0.0878 -0.3316  0.2165
23857SOL    HW176382   4.362   0.992   8.990 -0.7508  1.4126 -2.6619
23857SOL    HW276383   4.459   0.877   8.970 -0.7344  0.0083  3.4608
23858SOL     OW76384   4.918   4.645   2.474  0.1028 -0.5096  0.0470
23858SOL    HW176385   5.001   4.687   2.450  0.6008 -2.7810 -2.6999
23858SOL    HW276386   4.935   4.552   2.470 -2.2816 -1.0507  0.6588
23859SOL     OW76387  10.463   9.524   9.518  0.6076  0.1057 -0.1874
23859SOL    HW176388  10.559   9.520   9.519  0.6016 -0.1824 -0.4915
23859SOL    HW276389  10.442   9.584   9.446  0.5673  0.5694  0.2079
23860SOL     OW76390  11.999   7.999   0.859  0.4896 -0.0817 -0.2216
23860SOL    HW176391  11.928   7.975   0.918  0.9810 -2.0816 -0.3665
23860SOL    HW276392  12.051   8.062   0.908 -1.0727  1.0360  0.0793
23861SOL     OW76393   6.794   9.293   8.035  0.1050 -0.3539 -0.2492
23861SOL    HW176394   6.773   9.360   7.970 -1.9677 -0.0343  0.6975
23861SOL    HW276395   6.767   9.330   8.119 -0.1437 -1.9764  0.4300
23862SOL     OW76396   1.677   2.454   1.355 -0.2922 -0.1896 -0.3193
23862SOL    HW176397   1.725   2.441   1.273  1.5343 -1.2460  0.8492
23862SOL    HW276398   1.599   2.400   1.347 -0.0629 -0.3904 -1.2868
23863SOL     OW76399  10.311   3.046   5.495 -0.0571  0.4807  0.2960
23863SOL    HW176400  10.245   2.980   5.519  0.2308  0.5543  1.3383
23863SOL    HW276401  10.262   3.129   5.493  0.0250  0.5707  1.3017
23864SOL     OW76402   1.015   3.914   7.535  0.3317 -0.2878 -0.2253
23864SOL    HW176403   0.964   3.994   7.523  0.7872  0.3634  1.7561
23864SOL    HW276404   1.064   3.904   7.454 -0.4921  0.8810 -0.8923
23865SOL     OW76405   6.407   1.557  12.428 -0.2849 -0.2112 -0.0922
23865SOL    HW176406   6.465   1.495  12.474 -0.6345 -0.1917  0.3828
23865SOL    HW276407   6.458   1.585  12.353  0.0768 -0.6924 -0.0353
23866SOL     OW76408   9.492   1.424  10.536  0.1624 -0.1363 -0.0496
23866SOL    HW176409   9.465   1.390  10.621 -0.3962  0.1493 -0.1082
23866SOL    HW276410   9.410   1.443  10.490  0.4307  1.4164  0.0413
23867SOL     OW76411  12.551  11.061  10.481  0.4145 -0.5070  0.0344
23867SOL    HW176412  12.578  11.149  10.506 -2.0905  0.5391 -0.7186
23867SOL    HW276413  12.510  11.025  10.559  1.2136 -0.9554  0.2649
23868SOL     OW76414   3.767   9.235   6.740 -0.0612 -0.7235  0.1410
23868SOL    HW176415   3.731   9.285   6.667  0.8093 -0.3869 -0.0760
23868SOL    HW276416   3.692   9.189   6.777 -0.2980 -2.2685 -2.0299
23869SOL     OW76417   0.786   9.647  11.638 -0.3002 -0.3079  0.3497
23869SOL    HW176418   0.846   9.679  11.705 -1.0825 -0.4801  1.1373
23869SOL    HW276419   0.710   9.614  11.686 -0.9318 -0.3182 -0.6208
23870SOL     OW76420  10.335   6.101  10.286 -0.3117 -0.2160 -0.0009
23870SOL    HW176421  10.401   6.130  10.224  0.1860 -1.0907  0.0984
23870SOL    HW276422  10.385   6.063  10.358 -0.7985  2.5459  1.9117
23871SOL     OW76423   7.493   4.962   5.263  0.5599 -0.6017  0.7298
23871SOL    HW176424   7.420   4.944   5.322 -1.5133  2.9773 -0.3900
23871SOL    HW276425   7.539   5.035   5.303  1.3316 -0.4982 -0.2975
23872SOL     OW76426   7.657   1.779   0.527  0.2153 -0.0899 -0.1084
23872SOL    HW176427   7.684   1.693   0.560  0.0513 -0.1465 -0.1181
23872SOL    HW276428   7.600   1.813   0.596 -1.2105 -0.7781 -0.8991
23873SOL     OW76429   8.830   2.036   0.053 -0.2374  0.0710 -0.5644
23873SOL    HW176430   8.745   2.034   0.011 -2.1652 -0.1220  2.9802
23873SOL    HW276431   8.823   1.975   0.126  2.5829  0.8344  0.5155
23874SOL     OW76432   1.152   0.790  10.344 -1.2775 -0.3286  0.1204
23874SOL    HW176433   1.072   0.842  10.350 -1.0892  0.0882 -0.8228
23874SOL    HW276434   1.207   0.837  10.281 -1.1272 -1.6946 -0.8116
23875SOL     OW76435   8.274   2.520   8.936  0.4784  0.3400 -0.4344
23875SOL    HW176436   8.341   2.588   8.937 -1.2092  2.0864  0.6642
23875SOL    HW276437   8.298   2.460   9.007  1.6839  0.0452 -1.0671
23876SOL     OW76438   3.067   2.784   4.920  0.1199  0.3910  0.0266
23876SOL    HW176439   3.046   2.760   5.010  1.2710 -0.7178  0.0322
23876SOL    HW276440   3.071   2.880   4.921  2.4483  0.3735  1.7710
23877SOL     OW76441   2.410   7.016   8.269 -0.0755  0.0731 -0.0278
23877SOL    HW176442   2.445   6.932   8.299  0.6084  0.3495 -0.0285
23877SOL    HW276443   2.369   6.996   8.184  1.5590  0.0302 -0.8509
23878SOL     OW76444   6.267   0.318   7.140 -0.0710 -0.4260 -0.4090
23878SOL    HW176445   6.280   0.245   7.200 -0.1675  0.6203  0.9212
23878SOL    HW276446   6.354   0.357   7.129 -0.2461  0.1181  0.0442
23879SOL     OW76447   4.389   9.325  12.266 -0.7226  0.1037  0.0032
23879SOL    HW176448   4.349   9.408  12.240 -0.0908  0.2668 -0.4599
23879SOL    HW276449   4.444   9.348  12.341 -0.9652  0.0016  0.2146
23880SOL     OW76450   2.026   3.296   7.514 -0.2227  0.1808  0.1814
23880SOL    HW176451   2.054   3.383   7.541  1.2978 -0.1438 -0.2404
23880SOL    HW276452   1.978   3.310   7.432  1.1154  0.5288 -0.5759
23881SOL     OW76453  10.802  11.551  12.610 -0.0528  0.2219 -0.0522
23881SOL    HW176454  10.752  11.521  12.686  0.4506  2.5519  1.3274
23881SOL    HW276455  10.872  11.487  12.600 -1.7360 -1.6477 -0.3656
23882SOL     OW76456   6.578  11.827   1.974  0.2269  0.0476  0.5176
23882SOL    HW176457   6.576  11.754   2.035  0.8820  0.1261  0.6420
23882SOL    HW276458   6.669  11.857   1.976 -0.0236  0.8364  0.4394
23883SOL     OW76459   7.659   3.387  11.862  0.2829 -0.2250  0.3982
23883SOL    HW176460   7.710   3.306  11.861 -1.2561 -1.3161 -2.5374
23883SOL    HW276461   7.714   3.450  11.816 -0.3035 -0.9927 -1.4629
23884SOL     OW76462   3.699   2.398   5.783 -0.1866  0.3097  0.2479
23884SOL    HW176463   3.653   2.372   5.703  0.4270 -0.4260  0.1277
23884SOL    HW276464   3.645   2.468   5.820 -0.3123  0.8822 -0.9781
23885SOL     OW76465   3.147  10.062   1.618 -0.5091 -0.0895 -0.2619
23885SOL    HW176466   3.055  10.046   1.639 -0.3668 -1.6523 -0.7352
23885SOL    HW276467   3.145  10.128   1.549 -1.1961  0.9140  0.6864
23886SOL     OW76468   4.088   4.997   9.954 -0.0079 -0.7980  0.2678
23886SOL    HW176469   4.043   4.975   9.873 -0.5534 -1.5007  0.7497
23886SOL    HW276470   4.067   5.089   9.969  1.2194 -0.2602 -1.0816
23887SOL     OW76471   3.194  11.113   5.650  0.0918 -0.2300  0.5323
23887SOL    HW176472   3.236  11.168   5.717  5.5607 -1.1459 -1.6318
23887SOL    HW276473   3.224  11.150   5.567 -2.6263 -1.8635 -1.3163
23888SOL     OW76474  12.072   1.945   6.503  0.2532 -0.1107 -0.0385
23888SOL    HW176475  12.129   1.982   6.435 -1.8851  0.3255 -1.6972
23888SOL    HW276476  12.031   2.021   6.543  0.2665 -0.4501  0.6297
23889SOL     OW76477   3.440   4.526   4.219  0.0850  0.6615 -0.1851
23889SOL    HW176478   3.431   4.621   4.224  1.2009  0.7185  1.5446
23889SOL    HW276479   3.356   4.493   4.252  0.0997  1.0550  0.2535
23890SOL     OW76480   8.119   7.188   9.250 -0.0966 -0.4804  0.3625
23890SOL    HW176481   8.096   7.105   9.208 -0.9877 -1.0278  1.8470
23890SOL    HW276482   8.041   7.242   9.240 -0.7766 -1.0229  2.2040
23891SOL     OW76483  11.141   9.158   8.919 -0.4087  0.2294  0.3544
23891SOL    HW176484  11.070   9.128   8.862  0.3156  0.9149 -0.9603
23891SOL    HW276485  11.181   9.231   8.871  1.2701 -0.2366  0.9704
23892SOL     OW76486  10.060   8.242   7.903  0.0039  0.3745 -0.1635
23892SOL    HW176487  10.019   8.190   7.972  1.0029  2.2610  1.9445
23892SOL    HW276488  10.150   8.210   7.898 -0.7839 -1.8983 -2.9179
23893SOL     OW76489   7.422   4.473   6.268 -0.7748  0.2132  0.4112
23893SOL    HW176490   7.503   4.472   6.320 -0.2080  0.2189 -0.4570
23893SOL    HW276491   7.420   4.560   6.230 -0.1773 -0.3957 -1.1014
23894SOL     OW76492   6.748   2.814   7.174  0.7634 -0.1693  0.5158
23894SOL    HW176493   6.776   2.903   7.194 -0.8263 -0.1332  3.1118
23894SOL    HW276494   6.711   2.819   7.086  1.1858  1.6126  0.4086
23895SOL     OW76495  11.720   8.481   7.344  0.0099  0.0912  0.1394
23895SOL    HW176496  11.669   8.413   7.387 -1.5988  1.1116 -0.0909
23895SOL    HW276497  11.667   8.507   7.268  2.2200 -0.8575 -1.8587
23896SOL     OW76498   0.857   8.101  12.578 -0.3164 -0.1994  0.0739
23896SOL    HW176499   0.786   8.152  12.538 -1.6883 -1.2364  1.1072
23896SOL    HW276500   0.841   8.107  12.672  0.0062 -1.8238  0.2533
23897SOL     OW76501   5.450   8.187   0.722 -0.0775 -0.4940 -0.1243
23897SOL    HW176502   5.414   8.126   0.786  1.6711 -0.9746  0.4633
23897SOL    HW276503   5.400   8.170   0.642 -1.7833 -0.4058  0.8740
23898SOL     OW76504   2.515  11.812   2.916 -0.2282 -0.0750 -0.2321
23898SOL    HW176505   2.603  11.825   2.950  0.5803  1.6132 -2.6442
23898SOL    HW276506   2.489  11.899   2.883 -1.5021 -1.1764 -2.3863
23899SOL     OW76507  10.953   0.545   9.531 -0.3005 -0.0969  0.0083
23899SOL    HW176508  11.019   0.479   9.552  0.7704  0.9016 -0.1289
23899SOL    HW276509  10.869   0.500   9.544  0.3962 -1.4009  0.1420
23900SOL     OW76510   0.491   3.452   4.797 -0.0889  0.1696  0.5847
23900SOL    HW176511   0.438   3.374   4.809  1.2805 -0.5831  2.1442
23900SOL    HW276512   0.502   3.488   4.885  1.3211  0.7073  0.2276
23901SOL     OW76513   4.858   1.448  11.208  0.0818 -0.2866  0.6598
23901SOL    HW176514   4.940   1.463  11.162  0.1053  1.7673  1.2697
23901SOL    HW276515   4.808   1.391  11.150  2.8051 -3.7021  1.3246
23902SOL     OW76516  11.948   6.734  12.210 -0.2445  0.2096 -0.0432
23902SOL    HW176517  11.959   6.827  12.190  1.4258 -0.2181 -1.2793
23902SOL    HW276518  11.869   6.708  12.161  0.2197  0.6215 -1.0327
23903SOL     OW76519   1.878  12.206  10.196 -0.2135  0.4559  0.2334
23903SOL    HW176520   1.906  12.175  10.282  1.4172  0.7144 -0.1588
23903SOL    HW276521   1.880  12.127  10.141  0.4360  0.5909  0.0531
23904SOL     OW76522   8.009   7.821  11.710  0.4293 -0.2385 -0.0163
23904SOL    HW176523   8.037   7.839  11.800 -0.1546 -1.6420  0.4885
23904SOL    HW276524   8.030   7.728  11.697  0.9576  0.0658 -1.5164
23905SOL     OW76525   7.385   0.517  10.371 -0.6546  0.0600  0.0786
23905SOL    HW176526   7.440   0.506  10.294 -2.1348  0.7480 -1.1386
23905SOL    HW276527   7.335   0.596  10.353 -2.1937 -0.6573  1.0196
23906SOL     OW76528  11.447   5.278   8.876 -0.0905 -0.4499  0.0329
23906SOL    HW176529  11.465   5.276   8.782  0.4879  2.1960  0.0119
23906SOL    HW276530  11.530   5.253   8.917  0.2195  0.2004 -0.1752
23907SOL     OW76531   1.723   4.828   0.302  0.2280 -0.9645 -0.4548
23907SOL    HW176532   1.715   4.885   0.225 -1.5824 -0.1739  0.2665
23907SOL    HW276533   1.686   4.745   0.275 -1.5631 -0.3121 -0.1086
23908SOL     OW76534   9.190  10.593   3.037 -0.4092  0.0854 -0.0024
23908SOL    HW176535   9.255  10.551   3.094 -0.0852  1.2613  0.5400
23908SOL    HW276536   9.165  10.526   2.974 -0.7048 -1.2347  1.4652
23909SOL     OW76537  10.865   2.883   4.413  0.4056 -0.3180  0.3505
23909SOL    HW176538  10.824   2.827   4.346  1.8920 -1.1560  0.0820
23909SOL    HW276539  10.832   2.971   4.395 -1.5546 -0.9945  0.4145
23910SOL     OW76540  12.275  10.911  10.385  0.0366  0.1435  0.1441
23910SOL    HW176541  12.220  10.907  10.306 -0.0088  0.3979  0.1606
23910SOL    HW276542  12.330  10.833  10.381 -0.1953 -0.0146  0.0284
23911SOL     OW76543   6.047   1.046   9.677 -0.1164  0.3853  0.7290
23911SOL    HW176544   6.136   1.010   9.687  0.2768  1.3887  0.9436
23911SOL    HW276545   6.018   1.061   9.767 -0.3025  0.5387  0.6427
23912SOL     OW76546   0.358   7.458  10.582 -0.2747  0.1045  0.1427
23912SOL    HW176547   0.426   7.393  10.569 -1.3876 -1.4004  1.4151
23912SOL    HW276548   0.343   7.496  10.495  1.7540  0.0900 -0.2568
23913SOL     OW76549   9.931  12.626   6.291 -0.8447  0.4062  0.7191
23913SOL    HW176550  10.007  12.682   6.307 -0.7408  0.3574  0.4024
23913SOL    HW276551   9.900  12.653   6.205 -0.1146 -0.7980  0.0498
23914SOL     OW76552   2.879   5.583   3.024 -0.1785  0.1914  0.3470
23914SOL    HW176553   2.955   5.641   3.034 -0.1896  0.7173 -2.0640
23914SOL    HW276554   2.916   5.495   3.024  0.6805  0.4885 -2.1095
23915SOL     OW76555   4.265  10.865   7.477  0.1757 -0.3539  0.2931
23915SOL    HW176556   4.277  10.898   7.566  0.4755 -1.8439  0.8277
23915SOL    HW276557   4.255  10.770   7.488  1.0287 -0.6548 -1.3313
23916SOL     OW76558  10.923   8.793   4.451 -0.4767 -0.1141 -0.4646
23916SOL    HW176559  10.970   8.747   4.382  0.2293 -0.9813  0.5693
23916SOL    HW276560  10.861   8.729   4.486 -0.3043  0.0699  0.2067
23917SOL     OW76561  12.244   5.686   5.736  0.0385 -0.4358  0.7372
23917SOL    HW176562  12.198   5.684   5.652 -0.3602 -1.2055  0.9614
23917SOL    HW276563  12.336   5.695   5.713 -0.2540  2.3500  0.3002
23918SOL     OW76564   5.716   8.311   9.889 -0.0743 -0.7717  0.5896
23918SOL    HW176565   5.780   8.250   9.852 -1.4658 -0.8355 -1.9568
23918SOL    HW276566   5.632   8.266   9.882 -0.8474  0.5771  0.7020
23919SOL     OW76567   5.024   6.540   7.951  0.0682  0.1915  0.2762
23919SOL    HW176568   5.031   6.496   8.036 -0.2043 -1.6229 -0.5960
23919SOL    HW276569   5.086   6.493   7.895 -0.4010  0.7920 -0.7698
23920SOL     OW76570   8.177  12.005   3.621 -0.6098 -0.4491  0.6528
23920SOL    HW176571   8.173  12.046   3.707 -2.0887 -0.5980  0.6809
23920SOL    HW276572   8.270  11.998   3.602 -0.2722  0.0501  2.0141
23921SOL     OW76573   2.055   0.990   6.202  0.9840  0.2513  0.2478
23921SOL    HW176574   2.044   1.065   6.144 -0.3766  1.8730  2.4314
23921SOL    HW276575   1.976   0.938   6.188  1.6802 -0.5289 -0.8856
23922SOL     OW76576   5.842   4.679  12.214 -0.4276 -0.1417  0.5197
23922SOL    HW176577   5.747   4.665  12.209 -0.4112 -0.1825  0.3123
23922SOL    HW276578   5.870   4.627  12.289 -0.1848 -2.1949 -0.9387
23923SOL     OW76579  10.538   0.513   5.938 -0.0373  0.1794  0.2670
23923SOL    HW176580  10.479   0.438   5.932 -0.4162  0.3566  1.5881
23923SOL    HW276581  10.620   0.481   5.901 -0.2258 -0.8560  0.7106
23924SOL     OW76582   6.527   4.024   4.163 -0.8887  0.3641  0.1795
23924SOL    HW176583   6.507   3.966   4.090 -0.2661  1.1152 -0.6092
23924SOL    HW276584   6.608   3.989   4.201 -0.5811  0.6327 -0.2186
23925SOL     OW76585   3.176   2.699   1.384 -0.4282  0.1463 -0.6405
23925SOL    HW176586   3.207   2.645   1.312  3.3835  0.3439  0.6589
23925SOL    HW276587   3.167   2.787   1.347 -2.4182 -0.4450 -1.7115
23926SOL     OW76588   5.569  10.580   1.679 -0.1109  0.0567  0.1348
23926SOL    HW176589   5.658  10.609   1.659 -0.1094 -0.6541 -1.0201
23926SOL    HW276590   5.541  10.635   1.752  1.2733  0.2951  0.5168
23927SOL     OW76591   3.706   5.436  11.119  0.2943 -0.2155 -0.3445
23927SOL    HW176592   3.627   5.383  11.116 -0.8310  1.1504  2.0263
23927SOL    HW276593   3.738   5.426  11.209  1.4414  1.1167 -0.5714
23928SOL     OW76594   0.970  10.117   3.088 -0.0727 -0.2346 -0.1898
23928SOL    HW176595   1.001  10.048   3.030  0.6909 -0.9126  0.9782
23928SOL    HW276596   0.884  10.142   3.053 -0.2039 -1.5342 -0.8259
23929SOL     OW76597   1.898   5.683   5.969  0.0644  0.9455 -0.5784
23929SOL    HW176598   1.912   5.763   6.019 -2.2538  0.4550  1.0706
23929SOL    HW276599   1.808   5.658   5.990  1.2350 -3.1087  0.5157
23930SOL     OW76600  11.455   8.969   2.892 -0.3509  0.2740  0.4463
23930SOL    HW176601  11.371   8.991   2.851  0.2295 -1.3484 -1.8637
23930SOL    HW276602  11.431   8.930   2.976 -1.6556  3.0191  1.4736
23931SOL     OW76603   0.674   0.684   2.384 -0.6866 -0.2746 -0.1726
23931SOL    HW176604   0.621   0.608   2.404 -1.4710  0.7424  1.8423
23931SOL    HW276605   0.761   0.663   2.418 -0.8377 -0.3464  0.1626
23932SOL     OW76606   5.706   7.215   4.765  0.1733  0.3975 -0.1074
23932SOL    HW176607   5.755   7.159   4.826 -0.0682  0.1919 -0.1035
23932SOL    HW276608   5.657   7.154   4.711  0.2290  0.5903 -0.3772
23933SOL     OW76609   4.101   6.881  10.028  0.1476 -0.0145 -0.2244
23933SOL    HW176610   4.087   6.962   9.978 -0.0016 -0.3184 -0.6751
23933SOL    HW276611   4.189   6.852  10.003  0.5895  0.5089  0.6566
23934SOL     OW76612   1.189   2.788  10.629 -0.7769 -0.5050  0.1303
23934SOL    HW176613   1.172   2.841  10.551 -0.9817 -2.1789 -1.0224
23934SOL    HW276614   1.266   2.736  10.607  0.8205  0.8528  2.0937
23935SOL     OW76615  12.084  11.797   9.961  0.8947 -0.3439  0.5099
23935SOL    HW176616  12.084  11.881   9.915 -1.8007 -0.9025 -0.7415
23935SOL    HW276617  12.019  11.809  10.031  0.1155 -1.4948  0.0093
23936SOL     OW76618   6.504   6.282   4.106 -0.4770 -0.5023 -0.8600
23936SOL    HW176619   6.599   6.278   4.110 -0.4416  0.6893 -0.2047
23936SOL    HW276620   6.474   6.239   4.186 -0.3479  2.3615  0.8824
23937SOL     OW76621   7.203   7.035   9.378 -0.2286  0.1722 -0.0560
23937SOL    HW176622   7.162   6.988   9.306 -2.4309  1.9406 -0.0529
23937SOL    HW276623   7.189   6.978   9.454 -1.6212  0.1571 -0.2975
23938SOL     OW76624   5.113   4.531   9.313 -0.5304  0.1278 -0.3751
23938SOL    HW176625   5.157   4.480   9.245 -0.8249  0.0146 -0.4825
23938SOL    HW276626   5.109   4.620   9.278  1.6449  0.6649  0.5785
23939SOL     OW76627   9.468   4.813   8.187  0.2019  0.1745  0.3243
23939SOL    HW176628   9.393   4.845   8.237  0.4541  0.2426  0.6627
23939SOL    HW276629   9.529   4.886   8.185  0.2438  0.1340  0.0135
23940SOL     OW76630   4.451   7.046   0.160  0.4069 -0.2538  0.1564
23940SOL    HW176631   4.480   6.974   0.215 -0.6125  0.1123  1.2120
23940SOL    HW276632   4.425   7.005   0.078 -0.6165 -1.1624  0.9149
23941SOL     OW76633   7.196   0.309   9.921 -0.8197  0.3086 -0.0075
23941SOL    HW176634   7.106   0.305   9.890 -2.0779 -0.6525  3.2892
23941SOL    HW276635   7.223   0.399   9.903 -1.3441 -0.1064 -3.5098
23942SOL     OW76636   6.446  10.312   2.085 -0.3288  0.1353 -0.0490
23942SOL    HW176637   6.453  10.219   2.106 -1.7411  0.3496  1.6100
23942SOL    HW276638   6.430  10.314   1.990 -1.1857 -1.3646  0.0344
23943SOL     OW76639  12.235   9.767   2.843 -0.0984  0.5373 -0.3284
23943SOL    HW176640  12.233   9.768   2.748 -0.1959  0.8374 -0.3215
23943SOL    HW276641  12.263   9.855   2.868  0.2346  0.3669 -0.0882
23944SOL     OW76642   0.754   8.820  11.946 -0.1854 -1.1042  0.4558
23944SOL    HW176643   0.811   8.787  11.876 -0.6297 -1.3770  0.2198
23944SOL    HW276644   0.794   8.903  11.971  0.7500 -1.6392  0.8176
23945SOL     OW76645  10.856  11.341  11.722 -0.2937 -0.3499  0.1614
23945SOL    HW176646  10.808  11.261  11.699 -1.8649  0.3877  0.7641
23945SOL    HW276647  10.919  11.312  11.788  1.4633 -1.6967 -1.9539
23946SOL     OW76648  10.242   0.796   6.760  0.5469  0.5790  0.0643
23946SOL    HW176649  10.309   0.779   6.826  1.7994  1.3379 -0.9653
23946SOL    HW276650  10.161   0.810   6.810  1.5628  1.6248  1.4648
23947SOL     OW76651   0.945   5.189   8.068 -0.3295  0.0319  0.4554
23947SOL    HW176652   0.986   5.275   8.055  3.4373 -1.3191  1.9425
23947SOL    HW276653   1.009   5.127   8.033 -1.2293 -2.3150  2.6772
23948SOL     OW76654   5.317   3.606   3.102 -0.0707 -0.1718 -0.1078
23948SOL    HW176655   5.253   3.577   3.036  1.3156  0.6240 -1.8730
23948SOL    HW276656   5.395   3.554   3.085  0.9509  1.3807 -0.3746
23949SOL     OW76657   8.381  11.073   3.724 -0.5701 -0.1014 -0.3826
23949SOL    HW176658   8.344  11.029   3.801  1.4657 -1.5642 -0.1503
23949SOL    HW276659   8.317  11.058   3.654 -1.5601 -0.3741  0.5556
23950SOL     OW76660   0.371   9.579   2.872 -0.5375 -0.1710  0.0961
23950SOL    HW176661   0.286   9.535   2.872 -0.7140  0.1636  0.5528
23950SOL    HW276662   0.354   9.663   2.914 -0.2236  0.3720 -0.8391
23951SOL     OW76663   1.307   6.258   8.278 -0.3260  0.1981  0.5139
23951SOL    HW176664   1.377   6.265   8.214  1.2352 -0.3373  2.0714
23951SOL    HW276665   1.258   6.339   8.270 -0.1661  0.1372 -1.3122
23952SOL     OW76666   8.287   1.363   5.621 -0.1023 -0.3734  0.5692
23952SOL    HW176667   8.316   1.398   5.705 -1.5997  1.7711  0.2892
23952SOL    HW276668   8.330   1.418   5.556  0.4924 -1.5595 -0.0648
23953SOL     OW76669  12.333   4.443   8.903  0.2378  0.2840  0.0934
23953SOL    HW176670  12.242   4.468   8.889  0.6926  1.0567 -1.7109
23953SOL    HW276671  12.370   4.514   8.956 -0.0705  0.2452  0.3584
23954SOL     OW76672   9.198   9.532   6.648  0.4072 -0.6970  0.2120
23954SOL    HW176673   9.176   9.521   6.741 -0.1090 -2.8372 -0.1202
23954SOL    HW276674   9.284   9.576   6.649  0.6814 -1.2054  1.7039
23955SOL     OW76675   3.463   8.643   9.711  0.1210 -0.2826 -0.1104
23955SOL    HW176676   3.532   8.579   9.731  1.2342  0.2966 -1.8215
23955SOL    HW276677   3.471   8.709   9.779  1.1200 -0.3559 -0.1357
23956SOL     OW76678  12.179   7.020   3.406  0.4338  0.0169  0.0914
23956SOL    HW176679  12.156   7.054   3.320  0.0994 -0.7046 -0.1114
23956SOL    HW276680  12.119   6.947   3.420  0.4322  0.1734  0.9746
23957SOL     OW76681   7.300  10.888   3.181  0.1405  0.2899  0.1433
23957SOL    HW176682   7.308  10.793   3.169 -0.0367  0.2427  0.3904
23957SOL    HW276683   7.364  10.925   3.120  0.3178  0.0062  0.1534
23958SOL     OW76684  11.764   8.441   6.402  0.5027 -0.0732 -0.1023
23958SOL    HW176685  11.738   8.431   6.494  0.7057  0.5511  0.0310
23958SOL    HW276686  11.737   8.530   6.379 -0.5116 -0.5758 -0.9747
23959SOL     OW76687   9.539  11.487  12.463  0.1277  0.5130 -0.1239
23959SOL    HW176688   9.632  11.472  12.483 -0.2687 -0.2568  1.2939
23959SOL    HW276689   9.505  11.400  12.444 -1.1541  0.0620  3.4260
23960SOL     OW76690   4.882   5.736   4.160 -0.1898  0.7551 -0.6205
23960SOL    HW176691   4.922   5.721   4.074  1.8704 -1.3324  0.5733
23960SOL    HW276692   4.945   5.699   4.222 -2.8933 -0.4218  1.6198
23961SOL     OW76693   4.069   3.513   1.543  0.2037  0.3142 -0.4372
23961SOL    HW176694   4.092   3.420   1.544  1.3679  0.5886  0.6046
23961SOL    HW276695   4.015   3.525   1.622 -0.0548  0.5027 -0.6420
23962SOL     OW76696  12.642   8.785  12.595  0.8761 -0.2813  0.2930
23962SOL    HW176697  12.640   8.876  12.567  0.8557 -1.4497 -4.3516
23962SOL    HW276698  12.711   8.781  12.661  1.8733  2.8129 -0.4028
23963SOL     OW76699   5.533   1.623  11.415  0.6279  0.3487 -0.0846
23963SOL    HW176700   5.453   1.599  11.367  0.5806  1.4842 -0.6021
23963SOL    HW276701   5.601   1.567  11.377  0.5650  1.1258 -1.4028
23964SOL     OW76702  11.535  10.551   4.887  0.1510  0.6189  0.5031
23964SOL    HW176703  11.608  10.516   4.836 -0.4024  0.3535 -0.1162
23964SOL    HW276704  11.457  10.525   4.839 -0.6065 -2.2412  2.9235
23965SOL     OW76705   9.299  11.445   7.201  0.0510  0.0145 -0.4590
23965SOL    HW176706   9.344  11.493   7.131 -2.3725  0.4859 -1.7735
23965SOL    HW276707   9.315  11.353   7.181  2.5711  0.1070  0.6399
23966SOL     OW76708   8.963  10.921   3.689  0.0236  0.1406 -0.3888
23966SOL    HW176709   8.956  10.826   3.700 -0.9433  0.1615 -0.6962
23966SOL    HW276710   9.056  10.937   3.673  0.1550 -0.7878 -0.6084
23967SOL     OW76711   6.098   5.528   1.692 -0.1704 -0.4745 -0.5055
23967SOL    HW176712   6.036   5.497   1.626  0.5977 -1.2541 -0.8778
23967SOL    HW276713   6.184   5.499   1.660  0.1089 -2.0199  1.4560
23968SOL     OW76714   5.339   5.676   1.683  0.0567  0.2104  0.0453
23968SOL    HW176715   5.413   5.683   1.744 -0.1211  0.2228  0.2627
23968SOL    HW276716   5.268   5.641   1.736  0.4447 -1.6842 -0.6143
23969SOL     OW76717   8.332   4.183   3.651 -0.6736  0.4479 -0.3115
23969SOL    HW176718   8.285   4.266   3.658  0.7495  1.1551  2.1370
23969SOL    HW276719   8.304   4.134   3.728 -0.0764 -0.5653 -0.7202
23970SOL     OW76720   4.234   6.693   6.399  0.5694  0.2342  0.0733
23970SOL    HW176721   4.302   6.654   6.454  0.4780  0.0950  0.0876
23970SOL    HW276722   4.281   6.754   6.342  1.0948 -1.8820 -1.8624
23971SOL     OW76723   0.379   3.023   9.322  0.4873  0.1513 -0.4314
23971SOL    HW176724   0.296   2.996   9.361  0.0940  0.2087 -1.2084
23971SOL    HW276725   0.445   2.996   9.386 -0.2326  1.9505  1.1657
23972SOL     OW76726  11.549   4.604  10.572 -0.2701  0.3940 -0.0895
23972SOL    HW176727  11.532   4.594  10.478 -0.0499 -0.7174 -0.0218
23972SOL    HW276728  11.575   4.517  10.601  0.9560  1.0076  0.7507
23973SOL     OW76729   7.347   3.140   4.853  0.2119 -0.2117  0.2516
23973SOL    HW176730   7.330   3.222   4.806 -0.2022 -0.6581 -0.4034
23973SOL    HW276731   7.263   3.119   4.894  0.1898 -0.5441  0.0340
23974SOL     OW76732   6.668   1.827  12.058 -0.1005 -0.1385  0.6322
23974SOL    HW176733   6.731   1.898  12.068  0.5186 -0.8229  2.0145
23974SOL    HW276734   6.714   1.761  12.006 -0.2815  0.0420  0.2457
23975SOL     OW76735   3.986   3.623   4.444  0.0387 -0.0286  0.5093
23975SOL    HW176736   4.048   3.678   4.396  1.3144 -0.4707  1.5785
23975SOL    HW276737   3.929   3.586   4.377  1.7696 -0.6562 -0.6876
23976SOL     OW76738   7.291   6.174   6.700 -0.5964  0.1387  0.1349
23976SOL    HW176739   7.236   6.132   6.634 -1.6737  1.7802 -0.0691
23976SOL    HW276740   7.243   6.162   6.782 -0.3643  0.0241  0.2542
23977SOL     OW76741   2.049   5.995   4.555 -0.1855 -0.2650 -0.0908
23977SOL    HW176742   1.956   6.013   4.544 -0.3186  0.6537  2.1289
23977SOL    HW276743   2.091   6.081   4.561  0.6798 -0.6611 -0.1623
23978SOL     OW76744  10.454  10.078   5.397 -0.4478 -0.2514 -0.3328
23978SOL    HW176745  10.359  10.093   5.392 -0.1423  1.3283 -2.1595
23978SOL    HW276746  10.462  10.000   5.453 -2.7400  0.2093  0.7772
23979SOL     OW76747  12.358   7.001   9.245  0.7176  0.1531  0.4972
23979SOL    HW176748  12.311   6.918   9.241  0.8532 -0.0091  2.0022
23979SOL    HW276749  12.290   7.066   9.263  0.5420  0.4641 -1.1235
23980SOL     OW76750   8.256   5.128   9.482  0.3358  0.0624  0.0258
23980SOL    HW176751   8.297   5.195   9.429  0.9571  0.4311  0.9426
23980SOL    HW276752   8.162   5.137   9.466  0.5085  0.1940 -0.9480
23981SOL     OW76753   4.973   8.510   2.050  0.2710  0.0780  0.3815
23981SOL    HW176754   5.045   8.515   1.987  1.1141  0.9267  1.3738
23981SOL    HW276755   4.998   8.440   2.110  1.3853  1.7497  1.9934
23982SOL     OW76756  11.053   6.576   6.608  1.0867  0.1125  0.8214
23982SOL    HW176757  11.088   6.492   6.638 -2.8306 -1.4355  1.6806
23982SOL    HW276758  11.021   6.558   6.519  0.8241  0.9199  0.7421
23983SOL     OW76759  12.479   5.213   5.386  0.1720  0.8214  0.1727
23983SOL    HW176760  12.389   5.189   5.365 -0.6923  1.8252  2.4142
23983SOL    HW276761  12.531   5.137   5.360 -1.6003 -0.6699  0.7404
23984SOL     OW76762   0.524   8.985   3.136 -0.2082  0.0049 -0.1881
23984SOL    HW176763   0.589   8.966   3.069 -1.6143  0.3063 -1.7115
23984SOL    HW276764   0.477   8.903   3.149  1.1548 -0.5412  1.7743
23985SOL     OW76765   2.911   3.811   5.421  0.2196  0.5396 -0.2720
23985SOL    HW176766   2.895   3.814   5.515  1.5219 -1.0961  0.0626
23985SOL    HW276767   2.995   3.854   5.409  0.5523 -0.1540 -0.5198
23986SOL     OW76768  12.003   6.645   7.356  0.3758  0.3583  0.9580
23986SOL    HW176769  12.041   6.561   7.382  1.6289  1.2179  1.9408
23986SOL    HW276770  12.046   6.666   7.273 -1.5680 -1.0012 -0.4990
23987SOL     OW76771   0.989   1.958   1.639  0.0221  0.7122  0.0745
23987SOL    HW176772   0.978   1.961   1.544 -1.1349  0.2209  0.1691
23987SOL    HW276773   1.063   2.015   1.657  1.9946 -1.2120 -1.3769
23988SOL     OW76774   4.260   1.360  10.383 -0.4907 -0.0892 -0.3386
23988SOL    HW176775   4.354   1.372  10.396 -0.5932  0.0968  0.2739
23988SOL    HW276776   4.224   1.449  10.383 -0.9073 -0.2086  1.4618
23989SOL     OW76777  11.101   6.437   1.665 -0.1814  0.5006  0.9067
23989SOL    HW176778  11.049   6.503   1.619 -0.1172  1.0728  1.6406
23989SOL    HW276779  11.191   6.471   1.661  0.2049 -0.5866 -0.5451
23990SOL     OW76780   5.724  11.600  10.105 -0.2122 -0.3865 -0.3647
23990SOL    HW176781   5.810  11.584  10.067  0.8357  0.1367  1.6461
23990SOL    HW276782   5.662  11.579  10.035  1.5438 -0.4735 -1.9578
23991SOL     OW76783  11.268  11.803  12.105  0.1993 -0.5986 -0.3467
23991SOL    HW176784  11.205  11.868  12.075  1.3890  1.0454  0.5603
23991SOL    HW276785  11.263  11.733  12.040 -0.9768  0.4853 -1.4785
23992SOL     OW76786   5.177   9.383   7.798 -0.0168 -0.0779 -0.3142
23992SOL    HW176787   5.239   9.319   7.763 -0.3826 -0.5921 -0.0574
23992SOL    HW276788   5.163   9.355   7.889 -0.4535  0.1590 -0.3059
23993SOL     OW76789  10.812   3.599   4.711  1.1642 -0.4497 -0.0625
23993SOL    HW176790  10.886   3.647   4.749  0.0395  0.2425  1.3485
23993SOL    HW276791  10.744   3.602   4.778  0.1793 -1.9196 -0.9312
23994SOL     OW76792   3.996   7.317   8.872 -0.5678  0.4885 -0.1524
23994SOL    HW176793   3.966   7.326   8.963  0.7201  0.6788  0.2787
23994SOL    HW276794   3.937   7.252   8.834 -0.7355 -0.0930  1.0262
23995SOL     OW76795  11.795  11.291   0.449 -0.3402 -0.3225 -0.1810
23995SOL    HW176796  11.789  11.207   0.404 -2.4359 -0.5155  0.3584
23995SOL    HW276797  11.773  11.271   0.540  1.7787  0.4032  0.5548
23996SOL     OW76798   1.398   7.155   4.159 -0.6930  0.1517  0.1485
23996SOL    HW176799   1.467   7.105   4.204 -0.5494  1.0206  0.9411
23996SOL    HW276800   1.341   7.089   4.120  0.3760 -0.5921 -0.1950
23997SOL     OW76801   5.363   0.540  10.493  0.1028 -0.1531 -0.0587
23997SOL    HW176802   5.448   0.529  10.450  0.8508  0.0621  1.2898
23997SOL    HW276803   5.315   0.460  10.473  1.9033 -1.8479  1.8728
23998SOL     OW76804  11.612   9.545   5.959 -0.0949  0.1897  0.0221
23998SOL    HW176805  11.610   9.640   5.947 -1.3823  0.1490 -0.2538
23998SOL    HW276806  11.520   9.521   5.975 -0.0872 -1.2406 -1.7701
23999SOL     OW76807   3.244  10.646   0.319 -0.1479 -0.4213 -0.0387
23999SOL    HW176808   3.292  10.581   0.369 -0.5247  0.1224  1.0475
23999SOL    HW276809   3.279  10.730   0.348  0.3735 -0.1080 -1.4628
24000SOL     OW76810   0.467   1.386  10.390  0.2652 -0.4113  0.3175
24000SOL    HW176811   0.373   1.385  10.408  0.3695  1.0160  1.1069
24000SOL    HW276812   0.499   1.304  10.427 -0.7943 -1.3819 -0.8306
24001SOL     OW76813   7.776   5.663   1.987  0.2762 -0.4925  0.3101
24001SOL    HW176814   7.834   5.700   1.920 -0.8515 -2.0036 -1.6280
24001SOL    HW276815   7.695   5.642   1.939 -0.1170 -2.8689  1.8380
24002SOL     OW76816  10.252   7.458   2.261 -0.6361  0.0073 -0.1332
24002SOL    HW176817  10.232   7.539   2.214 -0.7144 -0.1274 -0.3349
24002SOL    HW276818  10.204   7.466   2.344 -0.3254  0.3388  0.0160
24003SOL     OW76819   9.916   8.502  11.660  0.1830 -0.5069  0.3876
24003SOL    HW176820   9.868   8.512  11.742 -1.3796 -0.0507 -0.5415
24003SOL    HW276821   9.851   8.469  11.598  1.4245 -1.2352 -0.5903
24004SOL     OW76822   3.396  11.146   9.145 -0.7113  0.2541  0.1542
24004SOL    HW176823   3.336  11.126   9.217 -2.1077  3.5294  0.0577
24004SOL    HW276824   3.430  11.233   9.165  0.1664  0.5706 -2.3128
24005SOL     OW76825   3.609   0.697   5.584  0.4061 -0.2361 -0.1930
24005SOL    HW176826   3.644   0.755   5.517 -0.3162 -0.9784 -1.2434
24005SOL    HW276827   3.664   0.712   5.661  1.2586  0.6158 -0.9556
24006SOL     OW76828   9.543  11.088   7.633  0.7997 -0.0543 -0.1145
24006SOL    HW176829   9.539  11.176   7.670 -0.0722 -0.6180  1.2199
24006SOL    HW276830   9.451  11.060   7.629  0.9894 -0.5555 -1.4214
24007SOL     OW76831   8.164   5.878   5.007 -0.2093 -0.4438  0.0252
24007SOL    HW176832   8.257   5.886   4.985 -0.3894  0.4520 -0.4313
24007SOL    HW276833   8.131   5.811   4.948  0.4310 -1.7860  1.1294
24008SOL     OW76834  12.565   0.928   7.472 -0.0277 -0.2227 -0.8170
24008SOL    HW176835  12.482   0.961   7.438 -0.2282 -0.1248 -0.2355
24008SOL    HW276836  12.547   0.837   7.496  0.1625 -0.3452 -1.1187
24009SOL     OW76837   6.800   8.740   4.509  0.0595  0.1869 -1.0209
24009SOL    HW176838   6.758   8.818   4.472 -2.4481 -1.3179 -1.6009
24009SOL    HW276839   6.894   8.756   4.499 -0.2925  3.4157 -0.4539
24010SOL     OW76840   3.762  12.021  12.397 -1.1041  0.1932  0.1195
24010SOL    HW176841   3.780  12.109  12.428  3.2373 -0.3538 -0.3045
24010SOL    HW276842   3.821  11.964  12.447 -1.6038 -2.0708 -1.6418
24011SOL     OW76843   7.008   9.515  10.210 -0.9669 -0.1764  1.0545
24011SOL    HW176844   7.092   9.470  10.226 -0.1876  0.4884 -0.9233
24011SOL    HW276845   6.961   9.457  10.150  0.0209  1.4909 -1.4775
24012SOL     OW76846   5.078   7.802  12.641 -0.0233 -0.1164 -0.3069
24012SOL    HW176847   5.033   7.786  12.724 -0.9212  0.4634 -0.6661
24012SOL    HW276848   5.116   7.889  12.652  0.4526 -0.3311 -0.2482
24013SOL     OW76849   1.087   0.410   6.825 -0.2978 -0.2820 -0.0566
24013SOL    HW176850   1.069   0.347   6.755  0.6289 -1.2265  0.5368
24013SOL    HW276851   1.139   0.478   6.782  2.0574 -1.8810  0.0965
24014SOL     OW76852   4.847   9.946  11.192  0.4090 -0.7022  0.0855
24014SOL    HW176853   4.935   9.921  11.165  0.6170 -1.0764  1.0824
24014SOL    HW276854   4.829   9.894  11.271 -0.1733  0.3408  0.6738
24015SOL     OW76855   7.916   9.145   3.475  0.8953 -0.6984 -0.6620
24015SOL    HW176856   7.820   9.145   3.484  0.7818  0.2561 -1.5768
24015SOL    HW276857   7.939   9.053   3.467 -0.0098 -0.9242 -0.8818
24016SOL     OW76858   5.726   3.700   9.186 -0.2370 -0.3570 -0.2761
24016SOL    HW176859   5.764   3.755   9.118 -0.9132 -0.5260 -0.8035
24016SOL    HW276860   5.735   3.611   9.152 -1.0106 -0.4056 -0.3689
24017SOL     OW76861   3.675   4.320   1.827  0.5417 -0.1452  0.7054
24017SOL    HW176862   3.714   4.368   1.901  1.6650  1.4171 -0.8246
24017SOL    HW276863   3.744   4.260   1.799  1.8471  2.1949 -1.6162
24018SOL     OW76864   2.077   1.604   7.638  0.3286  0.1636 -0.1108
24018SOL    HW176865   2.041   1.566   7.718  0.6107  0.9559  0.4022
24018SOL    HW276866   2.021   1.570   7.568 -0.0130 -0.4155  0.4344
24019SOL     OW76867   4.552   9.031   4.889  0.3098  0.5523 -0.3204
24019SOL    HW176868   4.589   8.943   4.881 -1.2458 -0.4352  2.1714
24019SOL    HW276869   4.532   9.057   4.799  0.3754 -1.8395 -1.1021
24020SOL     OW76870   2.528   2.428   0.005 -0.4769  0.0551  0.0788
24020SOL    HW176871   2.526   2.366  -0.068 -0.7612  1.1647 -0.8921
24020SOL    HW276872   2.456   2.401   0.061 -0.3745 -0.7065 -0.1441
24021SOL     OW76873   8.385   2.003   5.062  0.1026  0.3392 -0.9367
24021SOL    HW176874   8.310   1.959   5.101 -0.2640  0.8631 -1.0441
24021SOL    HW276875   8.435   2.035   5.137  0.1576  0.0931 -0.8679
24022SOL     OW76876  10.680   6.435   1.011 -0.7590  0.2962  0.1540
24022SOL    HW176877  10.672   6.515   1.064  0.7702 -0.7266  2.0736
24022SOL    HW276878  10.757   6.390   1.048 -0.7963 -1.4339 -1.7270
24023SOL     OW76879   0.494  12.059   8.056 -0.2384  0.2795 -0.4222
24023SOL    HW176880   0.546  12.123   8.007  0.2266  0.6260  0.5119
24023SOL    HW276881   0.520  11.975   8.019  1.5384  0.3822  0.4836
24024SOL     OW76882   8.855   7.882   2.341  0.0701 -0.0646  0.3728
24024SOL    HW176883   8.896   7.879   2.427  1.9507  2.1153 -0.3314
24024SOL    HW276884   8.773   7.929   2.354 -1.0768 -2.2034  1.3682
24025SOL     OW76885   8.289  12.027   6.894 -0.7458  0.0419 -0.0209
24025SOL    HW176886   8.288  11.935   6.921 -1.4066 -1.0307 -3.1986
24025SOL    HW276887   8.369  12.035   6.842 -2.1403  0.3171 -2.2805
24026SOL     OW76888  12.292   0.699   8.693  0.0074 -0.3088  0.6320
24026SOL    HW176889  12.242   0.711   8.613  0.9140  1.2189  0.2674
24026SOL    HW276890  12.335   0.783   8.709  2.2555 -1.4426  1.0514
24027SOL     OW76891   1.194   6.717   2.734  0.2563  0.4322  0.6139
24027SOL    HW176892   1.157   6.685   2.816 -0.1074 -0.6323  0.0529
24027SOL    HW276893   1.151   6.801   2.720 -1.1013 -0.2376  0.5763
24028SOL     OW76894   1.652   2.796   3.941  0.4689 -0.4919 -0.5151
24028SOL    HW176895   1.585   2.752   3.993  1.1753 -1.9564 -0.7819
24028SOL    HW276896   1.697   2.853   4.003 -1.5902  1.3048 -0.5217
24029SOL     OW76897   5.165   6.920  11.809 -0.0256 -0.2026  0.2140
24029SOL    HW176898   5.240   6.887  11.859 -0.4579 -0.4101  0.7312
24029SOL    HW276899   5.124   6.983  11.867  0.6334  1.0730 -0.6646
24030SOL     OW76900  11.785  11.616   3.883  0.1221 -0.1226  0.0223
24030SOL    HW176901  11.708  11.630   3.939 -0.2378 -0.6652 -0.3280
24030SOL    HW276902  11.761  11.657   3.800  0.4405  0.2078  0.0935
24031SOL     OW76903   0.776   0.476   9.570  0.0108  0.2398 -0.4303
24031SOL    HW176904   0.854   0.528   9.553  0.1308 -0.3395 -1.7630
24031SOL    HW276905   0.740   0.512   9.651  1.8997  0.2095  0.4640
24032SOL     OW76906  10.170   2.143   7.802  0.1175  0.1862  0.0027
24032SOL    HW176907  10.190   2.132   7.710  0.4721  0.4327  0.0479
24032SOL    HW276908  10.140   2.057   7.832  1.7457 -0.3740  0.0960
24033SOL     OW76909   6.255   6.384   6.697 -0.3931 -0.1692 -0.2375
24033SOL    HW176910   6.349   6.372   6.685 -0.4052 -0.9570  0.3168
24033SOL    HW276911   6.234   6.463   6.648  1.0472  1.6448  1.9021
24034SOL     OW76912  10.282  11.118   3.500 -0.4609 -0.1818 -0.3742
24034SOL    HW176913  10.188  11.105   3.512 -0.5859  1.8937  1.3303
24034SOL    HW276914  10.290  11.155   3.412 -1.2520 -0.1989 -0.4578
24035SOL     OW76915   1.199   0.259   9.697 -0.3771 -0.1064 -0.6641
24035SOL    HW176916   1.155   0.333   9.738  0.0154  0.5829 -1.4582
24035SOL    HW276917   1.184   0.186   9.757 -1.0593  0.5315 -0.0369
24036SOL     OW76918   4.792  12.259   0.296 -0.4769 -0.1283  0.2136
24036SOL    HW176919   4.733  12.243   0.370 -1.7577 -0.0739 -0.7634
24036SOL    HW276920   4.766  12.345   0.263  1.4744  0.7809  0.9391
24037SOL     OW76921   4.953   9.359   8.343 -0.5648 -0.7129  0.2427
24037SOL    HW176922   4.870   9.406   8.354  0.0996  0.5056  0.2295
24037SOL    HW276923   4.927   9.269   8.323 -1.8848 -0.3088  0.0329
24038SOL     OW76924   7.388   6.799   8.109 -0.3334  0.4506  0.0402
24038SOL    HW176925   7.374   6.731   8.175  0.2049 -1.2361 -1.4947
24038SOL    HW276926   7.402   6.879   8.159 -3.2880 -0.0443  1.8864
24039SOL     OW76927  10.373  12.460   6.237 -0.1772  0.1141  0.2010
24039SOL    HW176928  10.286  12.459   6.196 -0.3718 -0.3243  0.6138
24039SOL    HW276929  10.402  12.369   6.232  0.1332  0.2050  0.3352
24040SOL     OW76930   0.358   9.213  12.431 -0.1020 -0.0630  0.0254
24040SOL    HW176931   0.404   9.296  12.439  0.8980 -0.5724 -0.1751
24040SOL    HW276932   0.365   9.192  12.337  1.3989 -1.2981  0.3644
24041SOL     OW76933   2.308   1.966   0.617  0.1647 -0.5400  0.2718
24041SOL    HW176934   2.217   1.995   0.614  0.5019  0.6071  0.6105
24041SOL    HW276935   2.329   1.962   0.710  0.3244 -1.2674  0.2096
24042SOL     OW76936   6.422   2.069  11.366  0.5724 -0.1306 -0.0500
24042SOL    HW176937   6.397   2.128  11.438  0.7654 -0.2273  0.0992
24042SOL    HW276938   6.503   2.107  11.332 -0.4317  0.9072 -1.3711
24043SOL     OW76939  10.230   3.359   5.639 -0.2431 -0.4060  0.0239
24043SOL    HW176940  10.260   3.410   5.714  0.7060  0.8124 -1.1215
24043SOL    HW276941  10.246   3.416   5.564 -3.9001 -0.3341 -0.9040
24044SOL     OW76942   4.437   6.043   7.343  0.0399 -0.5356  0.0833
24044SOL    HW176943   4.426   5.956   7.381 -0.7492  0.3979  2.1119
24044SOL    HW276944   4.365   6.095   7.379  0.4328  0.9608 -1.1449
24045SOL     OW76945   0.160   2.219  12.645  0.0873  0.3967  0.2802
24045SOL    HW176946   0.200   2.135  12.622  0.5632  0.1350  1.9693
24045SOL    HW276947   0.075   2.218  12.601 -0.9032 -1.9645  2.0624
24046SOL     OW76948   7.314   2.699   1.577  0.2634 -0.1244  0.4280
24046SOL    HW176949   7.348   2.643   1.508 -0.3226 -0.9132  0.7563
24046SOL    HW276950   7.392   2.732   1.622  0.6247 -1.2324  0.6532
24047SOL     OW76951   4.076   6.606   6.018  0.2471 -0.3213 -0.1290
24047SOL    HW176952   4.153   6.658   6.042 -0.2543  0.7528 -0.7450
24047SOL    HW276953   4.004   6.669   6.019 -0.6180 -1.2854  0.3389
24048SOL     OW76954  11.825   9.978  11.872 -0.4005 -0.1399  0.2045
24048SOL    HW176955  11.798   9.887  11.885  1.2892 -0.4772  1.8111
24048SOL    HW276956  11.871   9.979  11.788 -1.5892 -0.4641 -0.4584
24049SOL     OW76957  10.280   3.479   1.364  0.1513 -0.3474 -0.3697
24049SOL    HW176958  10.264   3.479   1.459  0.0778  1.0145 -0.3537
24049SOL    HW276959  10.196   3.455   1.325  0.5867 -2.4966 -0.0753
24050SOL     OW76960   4.699   5.111   4.748  0.2132  0.0720 -0.0559
24050SOL    HW176961   4.645   5.085   4.823 -0.0363  0.9669  0.0919
24050SOL    HW276962   4.779   5.148   4.788 -0.8053  2.5405 -0.1051
24051SOL     OW76963  11.248   7.610   8.561  0.3683 -0.3475 -0.1505
24051SOL    HW176964  11.165   7.585   8.601  0.5998 -0.3647  0.3243
24051SOL    HW276965  11.314   7.595   8.629  0.3937  2.7887  0.6900
24052SOL     OW76966   4.951   5.897   7.983  0.2529 -0.1512 -0.4654
24052SOL    HW176967   4.895   5.868   7.911 -2.1026  2.4451  0.1414
24052SOL    HW276968   5.039   5.901   7.945 -0.4558 -1.3948 -2.3829
24053SOL     OW76969   5.604  11.161  11.602 -0.2135  0.4686 -0.5954
24053SOL    HW176970   5.696  11.136  11.607 -0.5034 -0.6495 -0.4429
24053SOL    HW276971   5.593  11.196  11.514  0.4960  1.2426 -0.3865
24054SOL     OW76972   2.316  10.553  10.537  0.6895 -0.0366  0.2376
24054SOL    HW176973   2.316  10.461  10.563 -0.7230 -0.0351  0.3104
24054SOL    HW276974   2.359  10.598  10.611 -0.6747 -0.3837  1.2859
24055SOL     OW76975   0.869   8.819   4.572  0.2523 -0.0339  0.4788
24055SOL    HW176976   0.831   8.741   4.614 -0.0920  0.4342  1.0609
24055SOL    HW276977   0.813   8.891   4.602  0.6220  0.4503  0.0165
24056SOL     OW76978   0.700   7.459   2.843 -0.6413 -0.0106  0.0539
24056SOL    HW176979   0.736   7.380   2.803 -2.3691 -0.7899 -0.0633
24056SOL    HW276980   0.608   7.439   2.857 -1.2056  2.0913 -0.2223
24057SOL     OW76981   1.103   3.784   7.992  0.2424 -0.2435  0.6952
24057SOL    HW176982   1.138   3.786   7.903 -0.3394 -0.5928  0.4546
24057SOL    HW276983   1.171   3.743   8.044  0.2133 -0.8802  0.2380
24058SOL     OW76984   2.890   2.657   3.645 -0.1788 -0.0875 -0.5697
24058SOL    HW176985   2.888   2.656   3.741 -0.9031  1.8555 -0.5321
24058SOL    HW276986   2.805   2.623   3.618 -1.3892  2.5714 -0.4048
24059SOL     OW76987   4.559   4.803   9.088 -0.2006 -0.0146 -0.1529
24059SOL    HW176988   4.617   4.879   9.086 -0.1436 -0.0628 -0.7683
24059SOL    HW276989   4.573   4.761   9.003  0.3891 -1.1783  0.4903
24060SOL     OW76990   4.092   1.607   3.494 -0.2179  0.1172 -0.3908
24060SOL    HW176991   4.064   1.576   3.407 -1.5774  1.2580 -0.3924
24060SOL    HW276992   4.012   1.642   3.534  0.7256  1.1863  0.6369
24061SOL     OW76993  11.424   2.308   5.210  0.8370 -0.8796 -0.1512
24061SOL    HW176994  11.482   2.345   5.276  1.7354 -1.8415 -0.3820
24061SOL    HW276995  11.409   2.380   5.149  1.7081 -0.5835 -0.0347
24062SOL     OW76996   7.011   6.700   0.080  0.1016  0.1943 -0.1763
24062SOL    HW176997   6.989   6.790   0.057 -0.4333  0.5318  1.5019
24062SOL    HW276998   6.939   6.648   0.045  0.6481  0.3351 -1.5649
24063SOL     OW76999   0.561   1.460   5.450  0.5723  0.0408  0.1473
24063SOL    HW177000   0.565   1.537   5.393 -0.0705 -0.5972 -0.7970
24063SOL    HW277001   0.653   1.440   5.469  0.7435  1.0430  0.4199
24064SOL     OW77002   9.614  10.737   6.814 -0.0595  0.7137 -0.3166
24064SOL    HW177003   9.557  10.779   6.751 -0.4341  2.9292  1.3714
24064SOL    HW277004   9.695  10.788   6.812 -1.4695  3.6069  3.7095
24065SOL     OW77005   6.075   5.311   6.816  0.1328  0.2547 -0.1485
24065SOL    HW177006   6.147   5.339   6.759  2.6427 -1.3370  2.0092
24065SOL    HW277007   6.043   5.231   6.775 -0.5152  0.9869 -1.1391
24066SOL     OW77008   5.927   4.024   7.487 -0.0785  0.3040 -0.4513
24066SOL    HW177009   5.934   4.114   7.457  1.5125  0.0711 -0.8787
24066SOL    HW277010   5.876   3.979   7.419 -0.1230  0.6807 -0.6683
24067SOL     OW77011   2.486   0.491   8.166  0.1603  0.3300  0.2982
24067SOL    HW177012   2.397   0.461   8.185  0.9811 -1.6203  1.4305
24067SOL    HW277013   2.510   0.544   8.242 -0.7012  2.6206 -0.9464
24068SOL     OW77014   0.030   7.230   1.088  0.7364  0.2170 -0.0582
24068SOL    HW177015   0.109   7.283   1.085  0.9701 -0.1526 -0.6976
24068SOL    HW277016   0.000   7.235   1.179  0.6189  1.6296 -0.1524
24069SOL     OW77017   9.241  12.618   3.374 -0.1705 -0.7269 -0.0078
24069SOL    HW177018   9.240  12.678   3.449  0.2801  0.9902 -1.2988
24069SOL    HW277019   9.333  12.605   3.354 -0.2316  0.8856 -1.7270
24070SOL     OW77020   1.120  12.028   0.521  0.2180  0.1125  0.0614
24070SOL    HW177021   1.210  12.053   0.505  0.0360  1.1388  0.5663
24070SOL    HW277022   1.078  12.032   0.435  0.9014 -1.5555 -0.3944
24071SOL     OW77023   2.817  11.259   1.618  0.1606  0.2040 -0.5375
24071SOL    HW177024   2.817  11.330   1.555  0.3505  0.3934 -0.3258
24071SOL    HW277025   2.798  11.301   1.702  2.1813  0.3209 -0.0740
24072SOL     OW77026   8.594  10.088   6.603  0.2384  0.1980  0.1820
24072SOL    HW177027   8.590  10.103   6.697  1.4576 -1.5236  0.5495
24072SOL    HW277028   8.639  10.004   6.593 -0.9837 -0.2985 -1.8959
24073SOL     OW77029  12.283  10.193   0.472  0.3005  0.9249  0.1353
24073SOL    HW177030  12.250  10.278   0.500 -0.4268  0.0904  1.9906
24073SOL    HW277031  12.284  10.140   0.552 -1.1205 -1.3883 -1.2518
24074SOL     OW77032   9.008   2.475   9.853 -0.0930 -0.1578  0.0979
24074SOL    HW177033   8.918   2.501   9.835  0.4576  2.7401  1.0481
24074SOL    HW277034   9.057   2.504   9.775  0.5473  1.9894  1.2140
24075SOL     OW77035   5.626  11.424   4.616  0.3989  0.2094 -0.9570
24075SOL    HW177036   5.642  11.414   4.522 -0.9810  1.4606 -1.3717
24075SOL    HW277037   5.579  11.344   4.641 -0.1447  0.3308 -1.5669
24076SOL     OW77038   9.246   2.408   8.834  0.3899 -0.0858 -0.1308
24076SOL    HW177039   9.296   2.418   8.753  0.1237 -0.0215 -0.2910
24076SOL    HW277040   9.288   2.466   8.896 -0.4991  1.2603 -0.7439
24077SOL     OW77041   8.423   7.860  10.151  0.1522  0.4935  0.1728
24077SOL    HW177042   8.411   7.770  10.182 -1.8517  0.4657 -0.5220
24077SOL    HW277043   8.496   7.855  10.090 -0.2024 -0.7726 -0.1803
24078SOL     OW77044   4.514   5.632   8.683  0.1696 -0.2223 -0.0870
24078SOL    HW177045   4.422   5.605   8.674 -0.9805  3.2185  0.0156
24078SOL    HW277046   4.557   5.595   8.606 -1.5562 -0.9042 -0.7807
24079SOL     OW77047   9.166   8.206   9.334 -0.4284 -0.4293 -0.1084
24079SOL    HW177048   9.239   8.243   9.384  0.4788 -1.1230 -0.8716
24079SOL    HW277049   9.088   8.227   9.385  0.3151  0.2388  0.7837
24080SOL     OW77050   0.445  10.307   5.396  0.0027  0.4057  0.0328
24080SOL    HW177051   0.516  10.244   5.408  1.9466  2.6754  1.3667
24080SOL    HW277052   0.462  10.347   5.311 -0.6695 -0.1709 -0.3829
24081SOL     OW77053  11.241  10.988  12.594 -0.8243  0.1603  0.1538
24081SOL    HW177054  11.254  11.054  12.662 -0.1126  0.1173  0.0739
24081SOL    HW277055  11.165  10.938  12.622  0.1878 -0.6674  1.5740
24082SOL     OW77056   6.890   4.374  10.662 -0.5800  0.6608 -0.0354
24082SOL    HW177057   6.854   4.317  10.730 -0.0875  1.4943  0.9517
24082SOL    HW277058   6.891   4.461  10.701  1.9793  0.7760 -0.1817
24083SOL     OW77059   3.936  10.950   0.147  0.1397  0.3885 -0.3177
24083SOL    HW177060   3.916  10.978   0.057 -0.8100 -1.6270 -0.7989
24083SOL    HW277061   3.982  11.024   0.186  1.5550  0.9196 -2.8065
24084SOL     OW77062   9.466  11.324  10.130 -0.1068  0.2265  0.5391
24084SOL    HW177063   9.492  11.396  10.187  0.0189  0.1532  0.5748
24084SOL    HW277064   9.406  11.363  10.067 -1.2723  0.0616  1.5084
24085SOL     OW77065   1.056   4.958   5.862 -0.4389  0.1787  0.7246
24085SOL    HW177066   0.965   4.986   5.872 -0.7809 -0.5451 -0.2106
24085SOL    HW277067   1.051   4.881   5.805  0.8292  0.7010 -0.1452
24086SOL     OW77068   7.767   3.270   2.055 -0.5145  0.3424  0.5627
24086SOL    HW177069   7.780   3.364   2.042 -1.1349  0.4726  0.8731
24086SOL    HW277070   7.838   3.244   2.114 -0.0739  0.5248  0.1200
24087SOL     OW77071   1.324   1.077  11.487 -0.1075 -0.6349  0.4601
24087SOL    HW177072   1.342   1.169  11.472 -1.1198  0.3623  4.2871
24087SOL    HW277073   1.234   1.074  11.519 -0.2651 -3.0261  0.0364
24088SOL     OW77074   0.316   8.569   1.363 -0.1960  0.1699 -0.2991
24088SOL    HW177075   0.235   8.559   1.313 -0.9414  0.3700  0.8309
24088SOL    HW277076   0.295   8.635   1.430  0.1778 -1.3991  1.4332
24089SOL     OW77077   7.176   1.653   2.340 -0.2716 -0.2341  0.5324
24089SOL    HW177078   7.144   1.722   2.282 -0.0802 -1.2808 -0.8856
24089SOL    HW277079   7.215   1.699   2.414  2.7196  1.3416 -1.8085
24090SOL     OW77080   8.246   7.659  11.341 -0.1372  0.0493  0.3236
24090SOL    HW177081   8.340   7.666  11.326  0.0421 -0.1336  1.2878
24090SOL    HW277082   8.210   7.632  11.256  0.7199 -0.2878  0.0532
24091SOL     OW77083   2.394   4.309   5.184 -0.1828  0.0109  0.0002
24091SOL    HW177084   2.441   4.311   5.101 -0.0342 -0.1173  0.0797
24091SOL    HW277085   2.459   4.339   5.248 -0.3936  0.4219  0.0241
24092SOL     OW77086  12.251   2.983   0.189 -0.1833 -0.5137 -0.2291
24092SOL    HW177087  12.197   2.917   0.231  0.4619 -0.5378  0.5760
24092SOL    HW277088  12.337   2.974   0.230 -0.3596  1.5719  0.7351
24093SOL     OW77089   8.786   1.290   9.015 -0.3264 -0.6606  0.3506
24093SOL    HW177090   8.853   1.266   8.951 -0.9614 -0.2601 -0.4836
24093SOL    HW277091   8.828   1.356   9.070  0.0335 -0.5782 -0.0194
24094SOL     OW77092   5.755   9.264   5.411 -0.1858  0.3163  0.0851
24094SOL    HW177093   5.712   9.270   5.496 -0.0871 -0.1679  0.1708
24094SOL    HW277094   5.848   9.276   5.429  0.5456 -4.4731  0.7771
24095SOL     OW77095   8.295   0.759   2.048 -0.5954 -0.0141  0.0421
24095SOL    HW177096   8.223   0.697   2.040  0.0189 -0.5765 -1.5280
24095SOL    HW277097   8.341   0.754   1.965  2.9136 -1.7363  1.8360
24096SOL     OW77098   2.899   0.432   3.811  0.0047 -0.3572 -0.5692
24096SOL    HW177099   2.861   0.505   3.762 -1.2033 -0.7929 -0.3086
24096SOL    HW277100   2.897   0.462   3.902  1.8620  0.2838 -0.6921
24097SOL     OW77101   5.065  12.238   2.115 -0.2616  0.0179  0.1096
24097SOL    HW177102   5.154  12.241   2.149  0.3419 -3.2574 -0.7825
24097SOL    HW277103   5.061  12.310   2.052  1.7229  0.2782  0.2057
24098SOL     OW77104   8.322   7.915  10.831  0.3687  0.4318  0.3442
24098SOL    HW177105   8.281   7.998  10.854 -0.0488  0.2999  0.0892
24098SOL    HW277106   8.253   7.850  10.841 -0.3088  0.5313 -2.5720
24099SOL     OW77107   8.536   5.254   3.118  0.8319 -0.0831 -0.2388
24099SOL    HW177108   8.485   5.333   3.132  0.6009 -0.3614  0.5774
24099SOL    HW277109   8.627   5.280   3.134  0.9141  0.3185 -1.2971
24100SOL     OW77110   8.425   8.781  10.966  0.1356  0.2268  0.1464
24100SOL    HW177111   8.462   8.867  10.987 -0.4264  0.5667 -0.2205
24100SOL    HW277112   8.331   8.798  10.954 -0.0796 -0.5494  0.6882
24101SOL     OW77113  10.369   1.160   7.458  0.3870  0.6115  0.3464
24101SOL    HW177114  10.290   1.125   7.416  0.2071  1.0870  0.2900
24101SOL    HW277115  10.361   1.255   7.450  1.2109  0.6556 -0.1152
24102SOL     OW77116   3.167  10.957   8.171 -0.1465  0.2229 -0.3181
24102SOL    HW177117   3.094  10.929   8.226  0.0109  0.6911  0.1343
24102SOL    HW277118   3.210  10.876   8.144  0.7205  0.0363  1.5282
24103SOL     OW77119   3.052   3.977   9.951  0.0703  0.0866 -0.1028
24103SOL    HW177120   3.094   4.044   9.896 -1.1091 -0.9782 -2.4465
24103SOL    HW277121   2.968   4.015   9.976  0.3910  0.3686  0.5777
24104SOL     OW77122   5.173   8.185   4.284 -0.0939 -0.7507  0.4448
24104SOL    HW177123   5.252   8.131   4.294  1.2670  1.0051 -0.2096
24104SOL    HW277124   5.126   8.175   4.366  0.4987 -2.2998  0.6304
24105SOL     OW77125   7.627  10.772   5.143  0.3538 -0.6426 -0.2209
24105SOL    HW177126   7.716  10.736   5.145 -0.0408 -1.6554  2.1739
24105SOL    HW277127   7.571  10.699   5.171 -0.8941  0.8075  1.1758
24106SOL     OW77128   0.481   6.360   6.034 -1.0337  0.2553 -0.0441
24106SOL    HW177129   0.517   6.396   6.116 -1.8224  1.9118 -0.3674
24106SOL    HW277130   0.550   6.305   5.999  0.2292  1.3664  0.5947
24107SOL     OW77131   5.567   0.601   6.691  0.0595  0.1363  0.1363
24107SOL    HW177132   5.495   0.621   6.752 -0.8980  1.5546 -1.3748
24107SOL    HW277133   5.590   0.685   6.652  3.0501 -0.1410  1.0147
24108SOL     OW77134   4.008   7.639  11.301 -0.2227  0.4243  0.0988
24108SOL    HW177135   4.066   7.621  11.375  0.9782  2.3006 -0.3311
24108SOL    HW277136   4.046   7.590  11.228  0.3625  1.0093  0.0094
24109SOL     OW77137   3.682  11.337   7.543 -0.2427 -0.4263 -0.2311
24109SOL    HW177138   3.704  11.430   7.539  1.2585 -0.4816  3.2759
24109SOL    HW277139   3.744  11.295   7.484 -1.1447  0.7613 -2.1002
24110SOL     OW77140   8.220   0.980   8.142  0.4847 -0.6014 -0.4188
24110SOL    HW177141   8.237   1.067   8.107 -1.6395  0.1964  0.3888
24110SOL    HW277142   8.197   0.927   8.065 -0.2143  0.0787 -0.6803
24111SOL     OW77143  11.389   9.906   4.424 -0.1747 -0.3362  0.6240
24111SOL    HW177144  11.324   9.921   4.492  0.8200  2.5529  1.0991
24111SOL    HW277145  11.465   9.872   4.471 -0.5791 -1.6093  0.3937
24112SOL     OW77146   4.057   5.413   0.168  0.1523 -0.3904  0.6293
24112SOL    HW177147   4.124   5.396   0.101  1.0935  2.0903  0.8499
24112SOL    HW277148   4.095   5.483   0.222 -3.0546  1.9562  0.0872
24113SOL     OW77149   3.243  10.866   0.741 -0.1587 -0.5438 -0.1312
24113SOL    HW177150   3.315  10.854   0.803  0.3000 -0.2298 -0.5944
24113SOL    HW277151   3.225  10.778   0.709 -0.4531 -0.7204  0.5034
24114SOL     OW77152   3.510   7.644   0.139 -0.1558 -0.3942  0.5505
24114SOL    HW177153   3.502   7.558   0.180 -2.7678  0.0326  1.0703
24114SOL    HW277154   3.446   7.643   0.068  1.4806  0.3117 -1.0112
24115SOL     OW77155  12.506   8.264   4.219 -0.4791 -0.0217 -0.3194
24115SOL    HW177156  12.432   8.245   4.277  0.1420 -1.1693  0.1399
24115SOL    HW277157  12.470   8.254   4.130 -0.9223 -0.3722 -0.1036
24116SOL     OW77158   2.942   4.102  12.532 -0.7145  0.4948  0.0026
24116SOL    HW177159   2.994   4.022  12.535 -3.1413 -1.1667  1.5886
24116SOL    HW277160   2.915   4.110  12.441  1.8476  1.1796 -0.7672
24117SOL     OW77161   1.911   2.196   9.012 -0.0115  0.4847  0.4093
24117SOL    HW177162   1.979   2.131   9.025 -0.4781 -0.2806 -0.8240
24117SOL    HW277163   1.950   2.259   8.951  0.0204  0.7174  0.6684
24118SOL     OW77164   8.955   5.849   5.410 -0.2282  0.0223 -0.5699
24118SOL    HW177165   8.968   5.914   5.340 -0.3794 -2.2989 -2.9301
24118SOL    HW277166   8.931   5.769   5.363  0.2341 -1.8392  2.1587
24119SOL     OW77167   7.167   8.083   6.368  0.3307  0.1489 -0.1641
24119SOL    HW177168   7.205   8.023   6.304  0.3772 -0.6116  0.5540
24119SOL    HW277169   7.196   8.049   6.453 -1.3546 -0.0320  0.3750
24120SOL     OW77170   9.525   5.179   6.106  0.4240  0.4420 -0.4082
24120SOL    HW177171   9.608   5.152   6.145 -0.1318 -0.5601  0.1360
24120SOL    HW277172   9.517   5.271   6.129 -0.1186 -0.2170  2.4247
24121SOL     OW77173   2.677   5.853   4.174 -0.0617 -0.1692  0.1878
24121SOL    HW177174   2.676   5.947   4.192  1.4677  0.1069 -1.0050
24121SOL    HW277175   2.623   5.842   4.096  1.4266  0.0380 -0.9074
24122SOL     OW77176   8.427   6.242   0.523  0.4227 -0.1746 -0.5175
24122SOL    HW177177   8.368   6.167   0.518 -0.2197  0.2936 -0.0444
24122SOL    HW277178   8.390   6.298   0.591 -0.0711  1.3893 -1.9937
24123SOL     OW77179   2.176   2.365  10.132 -0.2111 -0.8514  0.6759
24123SOL    HW177180   2.092   2.402  10.159  0.2077 -0.2677  1.1948
24123SOL    HW277181   2.197   2.411  10.050 -1.0085 -1.9266 -0.1692
24124SOL     OW77182   1.918   4.282   2.446  0.0974 -0.2530  0.1467
24124SOL    HW177183   1.862   4.353   2.415  0.5899  0.1207  0.0874
24124SOL    HW277184   1.984   4.273   2.377 -0.4602 -1.3516 -0.2519
24125SOL     OW77185   8.888   1.679   1.705 -0.7420  0.6550 -0.6019
24125SOL    HW177186   8.816   1.718   1.755 -0.2264 -0.3086  0.9489
24125SOL    HW277187   8.844   1.627   1.638 -1.5474 -0.1895  0.5299
24126SOL     OW77188   5.730   2.957   8.454  0.5969  0.1119  0.5702
24126SOL    HW177189   5.775   2.897   8.395 -0.8407  1.2250 -1.7815
24126SOL    HW277190   5.775   3.040   8.442 -0.5617  0.6703 -0.0131
24127SOL     OW77191   0.989   6.589   9.600 -0.1302  0.3748 -0.2389
24127SOL    HW177192   1.031   6.581   9.515  1.0629 -1.2121  0.4608
24127SOL    HW277193   1.051   6.550   9.662 -1.7688 -0.2211  1.1055
24128SOL     OW77194   7.982   2.435  11.383 -0.5290  0.0956  0.3719
24128SOL    HW177195   8.024   2.511  11.343 -1.1562  1.1115  1.5522
24128SOL    HW277196   7.889   2.442  11.358  0.1079 -3.7188 -4.7216
24129SOL     OW77197   1.109   4.753   4.694 -0.1657  0.0785 -0.7718
24129SOL    HW177198   1.194   4.731   4.732  0.6033 -1.6475 -3.1937
24129SOL    HW277199   1.044   4.720   4.756  0.9667 -0.2354  0.2658
24130SOL     OW77200   4.840   0.728   4.982  0.4784 -0.4184 -0.1328
24130SOL    HW177201   4.744   0.731   4.977  0.5256  0.6692 -0.5074
24130SOL    HW277202   4.860   0.634   4.983 -0.5032 -0.6766 -1.7170
24131SOL     OW77203   7.699   8.665   2.361  0.6242 -0.0401 -0.0216
24131SOL    HW177204   7.725   8.662   2.269  0.4752  1.5119 -0.1366
24131SOL    HW277205   7.731   8.583   2.398  1.5643 -0.2354 -1.2247
24132SOL     OW77206   2.416   6.584   8.008 -0.0572 -0.1645 -0.2217
24132SOL    HW177207   2.364   6.531   8.069  0.2833  1.2673  1.4178
24132SOL    HW277208   2.503   6.585   8.047  0.0265  1.2713 -0.3996
24133SOL     OW77209   7.586   5.228   8.498 -0.0536 -0.1820  0.0156
24133SOL    HW177210   7.631   5.310   8.478 -0.1277 -0.1523 -0.0263
24133SOL    HW277211   7.590   5.178   8.417 -0.8651  0.1751 -0.2486
24134SOL     OW77212   3.351   2.574   1.648  0.5374  0.2148  0.0622
24134SOL    HW177213   3.385   2.650   1.601 -0.1746 -0.0699 -0.9517
24134SOL    HW277214   3.256   2.589   1.653  0.6639  0.6016  2.1032
24135SOL     OW77215   0.313   4.402   8.371 -0.1672 -0.1438  0.2810
24135SOL    HW177216   0.342   4.455   8.446 -0.6269 -0.2573  0.5425
24135SOL    HW277217   0.394   4.381   8.324  0.0879  0.2221  0.5517
24136SOL     OW77218   7.941   1.293   8.304 -0.2440 -0.1389 -0.1462
24136SOL    HW177219   7.950   1.208   8.261  0.5253 -0.3679  0.4417
24136SOL    HW277220   7.998   1.287   8.380 -0.8029  0.6240  0.3430
24137SOL     OW77221   7.416   4.275   3.942 -0.7518  0.2639  0.2890
24137SOL    HW177222   7.461   4.351   3.979 -0.3926 -0.1678  0.7547
24137SOL    HW277223   7.481   4.234   3.885 -1.1756  0.7019 -0.5185
24138SOL     OW77224   2.458   4.943  10.628 -0.1943 -0.1255  0.4721
24138SOL    HW177225   2.414   4.865  10.595 -1.6559  0.8982 -0.0695
24138SOL    HW277226   2.533   4.955  10.569 -1.1905  0.0882 -0.7986
24139SOL     OW77227   3.701   2.079   8.190  0.3974 -0.0121 -0.3812
24139SOL    HW177228   3.706   2.072   8.285  0.8643  1.5103 -0.2638
24139SOL    HW277229   3.702   1.988   8.159 -0.2706 -0.5465  1.0718
24140SOL     OW77230   9.554   8.719   3.657 -0.1252  0.7936 -0.5265
24140SOL    HW177231   9.619   8.767   3.709 -0.9853  2.3598 -0.8587
24140SOL    HW277232   9.470   8.751   3.688 -0.7427 -0.5632 -0.7320
24141SOL     OW77233   8.691   5.096  11.491  0.2455  0.4548 -0.0191
24141SOL    HW177234   8.682   5.031  11.422 -0.4415 -0.0961  0.5798
24141SOL    HW277235   8.770   5.145  11.467 -0.5390  0.9623 -1.7570
24142SOL     OW77236  12.120  10.307   4.959  0.0717 -0.0004  0.2575
24142SOL    HW177237  12.186  10.368   4.927  0.1957 -0.6097 -0.6767
24142SOL    HW277238  12.037  10.339   4.923  0.0908 -0.1842  0.0472
24143SOL     OW77239   3.205  10.602   3.476 -0.7316 -0.0940 -0.6283
24143SOL    HW177240   3.251  10.627   3.556 -1.5455  0.0022 -0.1846
24143SOL    HW277241   3.240  10.661   3.409  0.3233 -0.5129 -0.4608
24144SOL     OW77242   2.396   4.520   0.540  0.2840 -0.1847  0.1608
24144SOL    HW177243   2.340   4.542   0.465  0.5215  2.1198  0.5825
24144SOL    HW277244   2.478   4.491   0.500  0.3638  0.8855 -0.5056
24145SOL     OW77245   9.420   7.250   3.212  0.0886 -0.7945 -0.3935
24145SOL    HW177246   9.399   7.333   3.167  1.2474 -1.2863 -1.9400
24145SOL    HW277247   9.337   7.202   3.213 -0.4201  0.0662 -0.1783
24146SOL     OW77248   4.380  12.033   4.499  0.4978 -0.0815  0.1866
24146SOL    HW177249   4.302  12.062   4.451 -0.8725 -1.6521  1.3176
24146SOL    HW277250   4.421  11.969   4.442  0.9029  0.6532 -0.3572
24147SOL     OW77251   8.130  12.485   2.036  0.0860 -0.3252  0.1813
24147SOL    HW177252   8.193  12.552   2.011 -2.1098  1.6611 -0.5046
24147SOL    HW277253   8.075  12.528   2.102 -1.9269 -1.0845 -0.9049
24148SOL     OW77254   3.753  11.905   5.637  0.4629 -0.7630 -0.1320
24148SOL    HW177255   3.758  12.000   5.653 -0.0729 -1.0740  2.2404
24148SOL    HW277256   3.702  11.898   5.556  0.3278  0.9688 -0.2518
24149SOL     OW77257   8.823   2.535   1.253  0.3921  0.1059 -0.3619
24149SOL    HW177258   8.895   2.515   1.194 -0.1763  0.7953 -1.3149
24149SOL    HW277259   8.865   2.562   1.335  1.1812 -1.6480 -0.1522
24150SOL     OW77260   8.296  10.060  11.998 -0.4353  0.3692 -0.4510
24150SOL    HW177261   8.336   9.984  12.040 -0.3477  0.9126  0.4713
24150SOL    HW277262   8.213  10.072  12.044 -0.2549  1.0849 -0.2953
24151SOL     OW77263   3.351   0.955  12.109 -0.3243  0.1135 -0.2933
24151SOL    HW177264   3.344   1.006  12.028  1.8943  1.2254  0.1383
24151SOL    HW277265   3.309   1.010  12.175 -1.4183 -0.4336 -0.5101
24152SOL     OW77266   9.535   5.197   7.328  0.3955  0.2834  0.0533
24152SOL    HW177267   9.522   5.145   7.249  0.3687 -1.4977  1.1602
24152SOL    HW277268   9.581   5.138   7.388 -1.7274  0.7031  2.2324
24153SOL     OW77269   5.505   5.984  10.399 -0.5756  0.4732  0.3293
24153SOL    HW177270   5.490   5.901  10.352 -0.2781  0.3184  0.5020
24153SOL    HW277271   5.503   6.051  10.330  3.0685 -0.0523 -0.4663
24154SOL     OW77272   1.861   5.511   4.859  0.0497  0.1111  0.2640
24154SOL    HW177273   1.849   5.515   4.765  1.0076  2.4297  0.1706
24154SOL    HW277274   1.786   5.460   4.891  0.1354 -1.4333 -1.7626
24155SOL     OW77275   1.952   6.603  11.767  1.0695 -0.6278  0.0198
24155SOL    HW177276   1.974   6.572  11.855  1.9802  0.3931  0.1736
24155SOL    HW277277   2.037   6.619  11.725  0.6715  1.3456 -0.1361
24156SOL     OW77278  11.796   4.585   9.381 -0.2969  0.1133 -0.5717
24156SOL    HW177279  11.713   4.591   9.335 -0.9068 -0.2129  0.4415
24156SOL    HW277280  11.789   4.648   9.453 -0.0488 -0.5730  0.0733
24157SOL     OW77281   3.000   5.126   5.395  0.1090  0.6642  0.0059
24157SOL    HW177282   3.025   5.058   5.458  1.2469  0.4357 -0.6571
24157SOL    HW277283   2.914   5.100   5.364 -0.2507  0.5130  1.0844
24158SOL     OW77284  11.500   2.745   4.438 -0.5183  0.2648 -0.8295
24158SOL    HW177285  11.562   2.675   4.417 -1.8314 -0.5720 -2.0329
24158SOL    HW277286  11.555   2.817   4.469  0.8060 -1.8054  2.1554
24159SOL     OW77287  12.222   7.526  10.157 -0.9370  0.2445 -0.0978
24159SOL    HW177288  12.172   7.604  10.133  0.8150  1.5720  0.3761
24159SOL    HW277289  12.296   7.525  10.096  0.1021  0.0729  1.1187
24160SOL     OW77290   7.355   2.606   3.686 -0.3571 -0.6360  0.5287
24160SOL    HW177291   7.413   2.532   3.669 -0.2439 -0.0959 -1.7757
24160SOL    HW277292   7.408   2.667   3.738  0.8112 -0.6212 -0.6257
24161SOL     OW77293  12.374   7.895   6.383 -0.3051  0.2498  0.5190
24161SOL    HW177294  12.281   7.900   6.408 -0.6944 -2.7323 -0.0128
24161SOL    HW277295  12.393   7.802   6.379  2.1495  0.7359 -1.5473
24162SOL     OW77296   6.960   7.759   5.363 -0.3868  0.3767  0.3527
24162SOL    HW177297   6.895   7.743   5.294  0.0820  0.2616 -0.0730
24162SOL    HW277298   6.910   7.757   5.444 -0.7213 -1.0757  0.1527
24163SOL     OW77299   9.921   6.157   2.002 -0.4684 -0.0427 -0.1590
24163SOL    HW177300   9.855   6.190   1.942 -1.7591  0.9662  1.7008
24163SOL    HW277301   9.925   6.223   2.072  1.6589 -0.6643  0.4063
24164SOL     OW77302   1.571  12.125   5.207 -0.4519 -0.4418  0.0818
24164SOL    HW177303   1.657  12.168   5.215 -0.1758 -0.4230 -2.3291
24164SOL    HW277304   1.587  12.035   5.235 -0.3792  0.2522  2.4629
24165SOL     OW77305  10.489   2.738   5.010  0.4754 -0.2113  0.1947
24165SOL    HW177306  10.506   2.832   5.001 -1.5847  0.1808 -0.1704
24165SOL    HW277307  10.498   2.720   5.103 -2.3764  1.1167  0.8063
24166SOL     OW77308  11.863   1.356   1.260 -0.0314  0.4814  0.0127
24166SOL    HW177309  11.811   1.381   1.336  0.3601  0.6278  0.2379
24166SOL    HW277310  11.804   1.304   1.206 -1.3768  3.1475 -1.2401
24167SOL     OW77311   8.754   1.615   0.702  0.3189  0.3680  0.3098
24167SOL    HW177312   8.793   1.695   0.737  0.4216  0.2324  0.5135
24167SOL    HW277313   8.702   1.643   0.628  0.1641  0.6549  0.5253
24168SOL     OW77314   6.787   5.451   5.348  0.4029 -0.4087 -0.2024
24168SOL    HW177315   6.802   5.421   5.437 -1.6338  0.4319  0.4823
24168SOL    HW277316   6.866   5.499   5.324  0.8720 -0.4444  1.2250
24169SOL     OW77317   3.862  11.669   6.457 -0.0632  0.1620 -1.1383
24169SOL    HW177318   3.777  11.692   6.494 -0.6913 -1.4837 -1.4561
24169SOL    HW277319   3.913  11.750   6.460 -0.7529  0.5940  1.4729
24170SOL     OW77320   0.098   5.251   8.410  0.0932 -0.2409  0.2915
24170SOL    HW177321   0.182   5.254   8.455 -0.4668 -0.4175  1.3728
24170SOL    HW277322   0.046   5.187   8.458 -0.6069 -0.2809 -0.4756
24171SOL     OW77323   5.232  10.706   7.627 -0.4386  0.1729 -0.0049
24171SOL    HW177324   5.310  10.746   7.590 -0.1791 -0.0602  0.2914
24171SOL    HW277325   5.159  10.749   7.581 -0.2203  1.7310  1.0545
24172SOL     OW77326  10.996   3.326   4.029 -0.0752 -0.8540 -0.1248
24172SOL    HW177327  10.908   3.287   4.022 -0.2196 -0.4437 -0.7085
24172SOL    HW277328  11.055   3.259   3.995 -0.0851 -1.3541  0.7878
24173SOL     OW77329   3.836  10.499  10.827 -0.5016 -0.0589 -0.7453
24173SOL    HW177330   3.909  10.458  10.782 -1.0351 -3.0314  0.8472
24173SOL    HW277331   3.858  10.492  10.920  0.0018  4.7187 -0.2458
24174SOL     OW77332   9.664   0.532  10.730 -0.5382 -0.6544 -0.0569
24174SOL    HW177333   9.661   0.462  10.665  3.7971 -0.5138 -0.6901
24174SOL    HW277334   9.654   0.488  10.814  1.0952 -1.9600 -0.5001
24175SOL     OW77335   2.249   0.298   8.318 -0.0742  0.1473 -0.2603
24175SOL    HW177336   2.317   0.318   8.382 -0.4194  0.1988  0.0905
24175SOL    HW277337   2.194   0.232   8.359 -0.5980  0.5526 -0.2901
24176SOL     OW77338   9.005   1.932  12.282  0.9351  0.2817  0.6094
24176SOL    HW177339   8.964   1.845  12.280 -0.4229  0.8708 -2.2976
24176SOL    HW277340   8.988   1.964  12.370 -1.5453 -1.0621  0.7019
24177SOL     OW77341   8.402   8.590   8.519 -0.9292 -0.1075  0.1617
24177SOL    HW177342   8.409   8.533   8.443 -1.3724 -0.6445  0.5129
24177SOL    HW277343   8.468   8.658   8.504  1.3849 -2.0352  0.8842
24178SOL     OW77344   7.847  12.601   2.435 -0.0038  0.6693 -0.1822
24178SOL    HW177345   7.821  12.557   2.354  1.8572 -0.7321 -0.0659
24178SOL    HW277346   7.919  12.659   2.409  0.0355  0.8590  0.3355
24179SOL     OW77347   0.349  10.386  12.077 -0.3846 -0.6367 -0.1865
24179SOL    HW177348   0.317  10.467  12.117 -1.8283 -0.0410 -2.3332
24179SOL    HW277349   0.269  10.342  12.047  0.5588 -0.5092 -3.2339
24180SOL     OW77350  11.878   8.809   6.291 -0.3744 -0.1992  0.2162
24180SOL    HW177351  11.892   8.756   6.370 -0.2466 -0.0327  0.3049
24180SOL    HW277352  11.846   8.893   6.323  1.3070  0.4887  0.2263
24181SOL     OW77353   8.998   4.094   0.218 -0.1561  0.2448  0.0732
24181SOL    HW177354   8.974   4.144   0.140 -1.3558 -0.0358  0.2442
24181SOL    HW277355   9.080   4.134   0.248 -0.2627  1.0644 -0.6934
24182SOL     OW77356   3.861  11.843   0.856  0.3342 -0.1597  0.0536
24182SOL    HW177357   3.875  11.860   0.949 -0.8572  1.2659  0.0180
24182SOL    HW277358   3.767  11.856   0.843  0.5617  0.1825 -1.4425
24183SOL     OW77359  10.139   0.951   9.295 -0.3963 -0.0620 -0.6028
24183SOL    HW177360  10.116   0.914   9.210  2.5371 -0.7661 -1.1986
24183SOL    HW277361  10.147   0.874   9.352 -1.4742  0.3359  0.1154
24184SOL     OW77362   8.841   2.032   3.498  0.7009 -0.5120  0.2598
24184SOL    HW177363   8.838   2.063   3.589  0.9710 -2.3160  0.9250
24184SOL    HW277364   8.750   2.016   3.475  0.5630  0.6739 -0.0756
24185SOL     OW77365   0.398   5.643   3.599  0.0518 -0.4301 -0.0372
24185SOL    HW177366   0.428   5.633   3.689  0.6154 -0.3261 -0.2075
24185SOL    HW277367   0.477   5.632   3.546 -0.0469  0.7413 -0.4543
24186SOL     OW77368  10.458   7.801   3.704  0.2508  0.1317 -0.1941
24186SOL    HW177369  10.477   7.708   3.714  0.4839  0.2253  0.2723
24186SOL    HW277370  10.370   7.804   3.668  0.1583 -0.2660 -0.0008
24187SOL     OW77371   3.509   0.664   4.738 -0.2234  0.1154  0.3733
24187SOL    HW177372   3.474   0.675   4.650  0.4062 -0.0310  0.0968
24187SOL    HW277373   3.544   0.575   4.739 -1.5113 -0.4161  1.2435
24188SOL     OW77374   7.354   1.888  10.455  0.3767  0.3535 -0.1696
24188SOL    HW177375   7.430   1.922  10.408  0.9094 -1.6022 -0.8467
24188SOL    HW277376   7.387   1.809  10.499 -0.9464  0.2304  0.6618
24189SOL     OW77377   2.021   7.121  10.557 -0.1396 -0.3416  0.5586
24189SOL    HW177378   2.023   7.101  10.650 -0.3630 -0.4131  0.5491
24189SOL    HW277379   1.929   7.141  10.539  0.1521  1.2795  0.6901
24190SOL     OW77380   1.151   5.296   4.048 -0.1739  0.1065 -0.2597
24190SOL    HW177381   1.205   5.356   4.100  0.3797  0.0247 -0.7292
24190SOL    HW277382   1.103   5.245   4.112  0.0370  0.4349  0.1631
24191SOL     OW77383   3.559   1.068  10.743 -0.1055  0.2772 -0.4197
24191SOL    HW177384   3.507   1.149  10.745 -0.6373 -0.0532 -0.5667
24191SOL    HW277385   3.632   1.085  10.802 -0.5594  0.6392  0.0550
24192SOL     OW77386   9.160   4.350   8.733 -0.4631  0.2674 -0.2369
24192SOL    HW177387   9.072   4.322   8.707 -0.7775  1.6994 -0.8088
24192SOL    HW277388   9.147   4.394   8.818 -0.7670  2.6893 -1.4438
24193SOL     OW77389  12.376   3.911  11.459  0.0303 -0.4776  0.2121
24193SOL    HW177390  12.306   3.943  11.402 -0.2395  0.6901  1.1505
24193SOL    HW277391  12.391   3.983  11.521  0.3365 -1.6820  1.5867
24194SOL     OW77392   2.123   9.287   1.036 -0.1148  0.0992 -0.0063
24194SOL    HW177393   2.183   9.238   1.092 -0.3363 -1.0341 -0.7372
24194SOL    HW277394   2.173   9.304   0.956 -0.1487  0.8063  0.1136
24195SOL     OW77395   7.040  11.635   8.478  0.2780 -0.0281  0.0480
24195SOL    HW177396   7.066  11.679   8.397 -0.6168  0.6045  0.0854
24195SOL    HW277397   7.039  11.704   8.544 -1.1326 -0.0701  0.1077
24196SOL     OW77398   7.301   8.643   3.164  0.2801  0.3707  0.4491
24196SOL    HW177399   7.371   8.581   3.186  0.5735  0.4802 -0.1582
24196SOL    HW277400   7.228   8.618   3.220  0.3422 -0.6354  0.0986
24197SOL     OW77401   3.191   8.965   0.662  0.3065 -0.2499 -0.5537
24197SOL    HW177402   3.190   8.871   0.643 -0.1039 -0.3293 -0.1579
24197SOL    HW277403   3.125   9.003   0.604  0.7384 -0.1483 -0.9841
24198SOL     OW77404   3.545   5.504   5.764 -0.2610 -0.3509  0.3347
24198SOL    HW177405   3.516   5.521   5.675 -0.0607 -0.1911  0.3001
24198SOL    HW277406   3.639   5.487   5.756  0.1229  1.4110  0.7294
24199SOL     OW77407  11.541   1.604   0.490  0.0905  0.2297 -0.3846
24199SOL    HW177408  11.466   1.627   0.545 -0.8091 -1.5438 -0.7802
24199SOL    HW277409  11.513   1.624   0.401  0.6590  0.9122 -0.4198
24200SOL     OW77410   3.305   1.765  10.066 -0.6074  0.0003 -0.4648
24200SOL    HW177411   3.212   1.749  10.077 -0.8494  1.4829 -0.0879
24200SOL    HW277412   3.346   1.723  10.142 -0.9264 -0.8631 -0.7576
24201SOL     OW77413  11.142  12.072   3.512 -0.4692 -0.0594 -0.7034
24201SOL    HW177414  11.094  12.153   3.528 -0.5445 -0.0903 -0.7731
24201SOL    HW277415  11.074  12.006   3.502 -0.4446  0.0719 -1.7952
24202SOL     OW77416   3.410  10.174   8.703 -0.7056  0.2847  0.6312
24202SOL    HW177417   3.380  10.118   8.631 -0.6996 -0.1383  0.9558
24202SOL    HW277418   3.500  10.146   8.720  0.3046  2.2777 -1.0576
24203SOL     OW77419   4.147  10.022  10.365 -0.0772  0.0081 -0.9636
24203SOL    HW177420   4.053  10.002  10.360 -0.0378 -0.5696  0.1398
24203SOL    HW277421   4.190   9.945  10.327 -0.0423  0.2710 -1.4656
24204SOL     OW77422   6.282   7.808   1.020  0.0218  0.2406  0.6554
24204SOL    HW177423   6.220   7.794   1.091  1.2966 -2.3461  1.3780
24204SOL    HW277424   6.311   7.899   1.031 -1.6314  0.6607  1.8965
24205SOL     OW77425   8.812   3.036  11.327 -0.2103  0.3303 -0.5279
24205SOL    HW177426   8.854   3.111  11.285  1.8772 -0.3026  0.3064
24205SOL    HW277427   8.842   2.961  11.275  1.0044 -0.2910  1.0188
24206SOL     OW77428   0.126   3.691   6.104 -0.7202 -0.1660 -0.0783
24206SOL    HW177429   0.184   3.746   6.156 -3.3606  2.2618  0.5114
24206SOL    HW277430   0.065   3.752   6.062 -0.8231 -2.2711 -3.4038
24207SOL     OW77431   5.433   2.049   4.291 -0.3464  0.1670 -0.2845
24207SOL    HW177432   5.452   2.026   4.200  0.6508  0.4344 -0.1551
24207SOL    HW277433   5.519   2.051   4.333 -0.6072  1.8890  0.2375
24208SOL     OW77434   8.796   4.596   0.784  0.5308 -0.0379 -0.7415
24208SOL    HW177435   8.702   4.612   0.779  0.5177 -0.2694 -1.3524
24208SOL    HW277436   8.816   4.598   0.877  0.0588  0.7798 -0.6530
24209SOL     OW77437   5.689   8.527   1.368  0.0671 -0.1638  0.8662
24209SOL    HW177438   5.740   8.456   1.408 -1.0385 -0.0634  2.5606
24209SOL    HW277439   5.627   8.482   1.311  0.2238 -0.4642  0.9282
24210SOL     OW77440   1.018   5.744  10.640 -0.3220  0.1225  0.2557
24210SOL    HW177441   1.103   5.711  10.610 -1.0516 -0.9094 -0.7876
24210SOL    HW277442   0.963   5.666  10.644 -1.3708  0.8535  0.3968
24211SOL     OW77443   8.466   6.597   7.210  0.6212 -0.4406  0.5175
24211SOL    HW177444   8.513   6.650   7.274 -0.4980  3.4054 -1.5332
24211SOL    HW277445   8.522   6.597   7.132 -0.2915 -0.5466 -0.1598
24212SOL     OW77446   3.281  10.845   1.118 -0.3082 -0.6946  0.0903
24212SOL    HW177447   3.339  10.821   1.046  2.0144  1.1281  1.2112
24212SOL    HW277448   3.336  10.839   1.196 -2.1995 -0.7062  1.4850
24213SOL     OW77449   0.081  10.523   5.569  0.3135 -0.4319  0.4473
24213SOL    HW177450  -0.004  10.567   5.573 -0.3066 -0.5992 -4.4329
24213SOL    HW277451   0.063  10.434   5.600 -1.5445 -0.6465 -1.0173
24214SOL     OW77452   1.358   5.200   8.693 -0.0560 -0.4679  0.5736
24214SOL    HW177453   1.419   5.238   8.756  0.8817 -0.7145 -0.1558
24214SOL    HW277454   1.411   5.139   8.642 -0.7742 -0.2546 -0.4738
24215SOL     OW77455  12.140   3.272   5.748 -0.1527  0.3307  0.3796
24215SOL    HW177456  12.146   3.177   5.750  1.5376  0.3758 -0.5502
24215SOL    HW277457  12.230   3.302   5.735 -0.6696  2.0532  0.4518
24216SOL     OW77458  11.015  11.393   6.956 -0.3684  0.2043 -0.8116
24216SOL    HW177459  11.004  11.488   6.966  0.8451  0.3161 -0.4481
24216SOL    HW277460  11.021  11.380   6.861 -0.6158  0.4770 -0.8673
24217SOL     OW77461   0.706   8.128   8.419  0.5726  0.0243 -0.4764
24217SOL    HW177462   0.624   8.125   8.468  1.1969 -1.4407  0.5662
24217SOL    HW277463   0.768   8.168   8.480  0.9042  0.0305 -0.8148
24218SOL     OW77464   0.346   7.087   9.715  0.0174  0.3910 -0.2751
24218SOL    HW177465   0.418   7.089   9.778  0.8163  1.1522 -1.1863
24218SOL    HW277466   0.350   6.999   9.676 -0.0307  0.1726  0.2008
24219SOL     OW77467  10.267   1.241   0.523 -0.1862 -0.3328  0.0603
24219SOL    HW177468  10.329   1.167   0.524  0.8721  0.5259  0.5660
24219SOL    HW277469  10.285   1.285   0.440 -1.1709 -0.8983 -0.4779
24220SOL     OW77470   6.877   6.067   9.462  0.5663 -0.0091 -0.3188
24220SOL    HW177471   6.783   6.077   9.443  0.4378  0.1927  0.4107
24220SOL    HW277472   6.886   5.976   9.490  0.0591  0.7098  2.4593
24221SOL     OW77473   3.007   1.067   6.487 -0.0171 -0.1113 -0.1019
24221SOL    HW177474   2.945   1.136   6.514  0.2594 -0.1261  0.5983
24221SOL    HW277475   2.952   0.991   6.468 -0.2094 -0.1783  0.6948
24222SOL     OW77476   0.608   7.547   6.782  0.0783 -0.9750 -0.6077
24222SOL    HW177477   0.654   7.581   6.706 -1.0855 -1.7998 -1.7391
24222SOL    HW277478   0.524   7.592   6.782  1.0663  1.1207  1.8977
24223SOL     OW77479   2.051   5.080  10.049  0.0462 -0.7416 -0.2216
24223SOL    HW177480   2.104   5.091  10.128 -0.0384  0.5871 -0.3276
24223SOL    HW277481   1.964   5.056  10.082 -0.6124  2.0023  0.2777
24224SOL     OW77482   9.386   5.505   5.378 -0.1387  0.3735 -0.1188
24224SOL    HW177483   9.293   5.490   5.358 -0.7780  0.6080  2.2941
24224SOL    HW277484   9.432   5.436   5.332 -1.6116 -0.3249 -0.6234
24225SOL     OW77485   8.446   3.478   3.267  0.5707 -0.0343  0.3592
24225SOL    HW177486   8.438   3.391   3.306  0.6197  0.2314  0.9688
24225SOL    HW277487   8.404   3.470   3.181  0.3882 -0.6032  0.5013
24226SOL     OW77488   2.474   0.546   4.010 -0.3317 -0.2022 -0.2498
24226SOL    HW177489   2.528   0.479   3.968  4.1020  2.6853  0.1184
24226SOL    HW277490   2.472   0.618   3.946 -0.2352  1.2981  1.3612
24227SOL     OW77491  10.485  10.294   3.994  0.2695  0.2751  0.5521
24227SOL    HW177492  10.423  10.227   4.024  0.7039 -0.6228 -0.4709
24227SOL    HW277493  10.549  10.300   4.064  0.3929 -0.6316  0.5356
24228SOL     OW77494   3.287   2.099   4.972 -0.1013 -0.2865 -0.5559
24228SOL    HW177495   3.367   2.047   4.975  0.3324  0.2616 -1.7827
24228SOL    HW277496   3.315   2.187   4.997 -0.8158 -0.5655  1.4449
24229SOL     OW77497   3.354   4.143  12.563 -0.0756  0.2185 -0.7249
24229SOL    HW177498   3.290   4.146  12.634 -1.1508  1.1767 -1.7062
24229SOL    HW277499   3.419   4.209  12.586  0.3435 -0.4250  0.0288
24230SOL     OW77500   5.731   3.816   0.934 -0.1073 -0.1936  0.1386
24230SOL    HW177501   5.793   3.858   0.994 -1.4387 -0.0113  1.4359
24230SOL    HW277502   5.677   3.760   0.990 -1.3170 -0.1100 -0.9036
24231SOL     OW77503   9.255   1.837   9.660 -0.0634  0.2322 -0.2147
24231SOL    HW177504   9.346   1.837   9.690 -0.2011 -0.3307  0.2009
24231SOL    HW277505   9.257   1.893   9.582  1.0449 -1.3551 -1.4198
24232SOL     OW77506   0.636   7.294   6.666 -0.1053 -0.1599  0.2142
24232SOL    HW177507   0.645   7.213   6.716  1.8029  0.2954  0.6786
24232SOL    HW277508   0.642   7.363   6.732 -1.1961  0.3870 -0.2381
24233SOL     OW77509   7.094   3.002  11.788 -0.1029 -0.0888 -0.0239
24233SOL    HW177510   7.182   2.974  11.811 -0.4141 -0.9724  0.1483
24233SOL    HW277511   7.104   3.044  11.702  0.4156 -0.6140 -0.2283
24234SOL     OW77512   7.082   3.641   1.069 -0.0909  0.0679  0.1078
24234SOL    HW177513   7.153   3.624   1.006  1.0385  0.8474  1.1128
24234SOL    HW277514   7.079   3.562   1.123 -1.4260 -0.8263 -1.2129
24235SOL     OW77515  11.907  10.102   7.311  0.2993 -0.1893  0.6187
24235SOL    HW177516  11.875  10.169   7.250  0.6248 -0.5896 -0.0087
24235SOL    HW277517  11.859  10.023   7.286  0.8855 -0.5032  0.4729
24236SOL     OW77518   3.358   4.942   2.416  0.3290 -0.4763  0.4367
24236SOL    HW177519   3.428   4.883   2.444  0.1071 -1.8377 -1.6588
24236SOL    HW277520   3.402   5.009   2.364  0.1207 -1.3793 -0.9515
24237SOL     OW77521   9.574   7.506   6.795 -0.3892 -0.2969 -0.2147
24237SOL    HW177522   9.497   7.550   6.832 -0.0834  0.6426 -0.6594
24237SOL    HW277523   9.617   7.574   6.743  1.5569 -0.3531  1.2063
24238SOL     OW77524   1.842  10.216  11.507  0.4550  0.2047 -0.3688
24238SOL    HW177525   1.885  10.252  11.429  2.7577 -1.0423  0.2228
24238SOL    HW277526   1.911  10.214  11.573 -0.1643 -3.0354  0.3124
24239SOL     OW77527   3.609   4.435   8.240 -0.0223 -0.4278  0.1211
24239SOL    HW177528   3.621   4.342   8.258 -0.6146 -0.6837 -0.7692
24239SOL    HW277529   3.698   4.471   8.240  0.1808 -0.8979  0.8862
24240SOL     OW77530  11.320   0.788  10.733  0.6997  0.4162  0.3416
24240SOL    HW177531  11.308   0.711  10.789 -0.6284  0.1686 -0.2447
24240SOL    HW277532  11.309   0.862  10.792 -0.7381  0.1600  0.4385
24241SOL     OW77533   7.280   5.651   6.348  0.4792  0.4454  0.4178
24241SOL    HW177534   7.241   5.572   6.309 -0.3167  0.1173  1.8018
24241SOL    HW277535   7.342   5.682   6.282  1.0287 -1.4935 -0.0611
24242SOL     OW77536   7.409   4.161   5.081  0.2162  0.2010  0.1393
24242SOL    HW177537   7.390   4.115   5.163 -0.2890  0.7645  0.3470
24242SOL    HW277538   7.332   4.144   5.026 -0.0910  1.0008  0.3137
24243SOL     OW77539   7.856  10.750  11.541  0.0577  0.0137  0.2009
24243SOL    HW177540   7.797  10.750  11.616  0.4928  1.5253  0.5680
24243SOL    HW277541   7.818  10.813  11.480  0.3777 -0.2795 -0.3075
24244SOL     OW77542   4.230  10.820  11.028  0.7674 -0.0444 -0.0234
24244SOL    HW177543   4.269  10.848  11.110  0.8768  0.4255 -0.2320
24244SOL    HW277544   4.136  10.821  11.044  0.7646  0.5104 -0.0424
24245SOL     OW77545   5.000  10.576  10.154  0.0065 -0.3780 -0.2441
24245SOL    HW177546   5.010  10.656  10.206 -1.5797  1.5599 -2.6756
24245SOL    HW277547   5.084  10.566  10.110 -0.2567  0.9388 -1.1219
24246SOL     OW77548   7.418   3.794   6.360  0.2992 -0.1430  0.0890
24246SOL    HW177549   7.463   3.758   6.283 -0.7798  1.5469 -1.4187
24246SOL    HW277550   7.402   3.718   6.416  2.4166 -1.2139 -0.6441
24247SOL     OW77551   6.782   0.128   7.833 -0.0842 -0.6053 -0.4707
24247SOL    HW177552   6.796   0.034   7.846  2.5097 -0.3408 -0.9109
24247SOL    HW277553   6.792   0.166   7.920  1.5134 -0.4978 -0.6753
24248SOL     OW77554   6.467   5.007   8.809  0.1729  0.3052 -0.3305
24248SOL    HW177555   6.461   5.068   8.736 -0.7584 -0.2717 -0.7658
24248SOL    HW277556   6.457   4.921   8.769  0.7576 -0.0883  0.3525
24249SOL     OW77557  12.329   0.836   8.409  0.0936  0.2509  0.1082
24249SOL    HW177558  12.278   0.917   8.401  2.5064  1.7064 -2.5353
24249SOL    HW277559  12.291   0.777   8.344  0.4968  0.5819 -0.4332
24250SOL     OW77560   5.795  10.275   5.767  0.6079 -0.5482 -0.1280
24250SOL    HW177561   5.722  10.267   5.704 -0.9761  0.0035  1.5425
24250SOL    HW277562   5.860  10.329   5.722 -0.1387 -0.7972 -1.5643
24251SOL     OW77563   8.375  10.341  11.081  0.2856  0.7406 -0.0412
24251SOL    HW177564   8.291  10.325  11.036  1.0849  0.0745 -1.3642
24251SOL    HW277565   8.408  10.421  11.040  0.2990  0.9952  0.4715
24252SOL     OW77566   4.250  12.296   1.242  0.0239  0.4557 -0.0916
24252SOL    HW177567   4.344  12.295   1.224  0.3812  0.8603  1.5809
24252SOL    HW277568   4.219  12.211   1.210  1.0074  0.2065 -0.4194
24253SOL     OW77569   5.976   3.701  11.755 -0.0150 -0.2858  0.3670
24253SOL    HW177570   6.039   3.643  11.713  0.5604  1.3806 -1.1893
24253SOL    HW277571   5.904   3.643  11.782  0.5466 -1.7085 -1.0441
24254SOL     OW77572  12.612  12.578   6.883  0.3869  0.1227 -0.2740
24254SOL    HW177573  12.681  12.638   6.854  0.3729 -0.6615 -2.0387
24254SOL    HW277574  12.549  12.576   6.812 -1.4362  0.6862  1.2355
24255SOL     OW77575   7.752   8.391  10.863 -0.4898  0.8823  0.0084
24255SOL    HW177576   7.726   8.301  10.884 -0.0301  0.6619 -0.3321
24255SOL    HW277577   7.688   8.421  10.799  0.3699  0.1515 -1.2417
24256SOL     OW77578   7.359  12.631  12.121 -0.0654 -0.4916 -0.2256
24256SOL    HW177579   7.389  12.544  12.093 -3.1676 -0.8545 -3.0882
24256SOL    HW277580   7.286  12.613  12.180 -0.4726  0.1496 -0.5277
24257SOL     OW77581  12.454   9.761   4.116 -0.0249 -0.7901  0.0568
24257SOL    HW177582  12.375   9.761   4.061 -0.0623  4.1815 -0.3057
24257SOL    HW277583  12.525   9.785   4.057  0.5594  1.2068  1.4733
24258SOL     OW77584   9.050   7.078   9.109  0.1827 -0.2339  0.0575
24258SOL    HW177585   9.010   7.117   9.031  1.6347  0.7260 -0.2301
24258SOL    HW277586   9.021   7.134   9.181  0.1477 -0.1760 -0.0016
24259SOL     OW77587   0.671   8.289   1.970  0.0633 -0.2693  0.4573
24259SOL    HW177588   0.681   8.261   1.879 -2.1469 -0.5712  0.2403
24259SOL    HW277589   0.651   8.209   2.018  0.6035 -0.0212  1.1005
24260SOL     OW77590   3.545   2.186   3.272  0.1386 -0.1503 -0.1176
24260SOL    HW177591   3.523   2.215   3.361 -3.8453 -0.5568 -0.7628
24260SOL    HW277592   3.566   2.266   3.225 -0.0209  0.3595  0.6620
24261SOL     OW77593   4.238   0.546   7.592  0.4574 -0.1159  0.0997
24261SOL    HW177594   4.281   0.571   7.674  1.3013  0.7659 -0.5875
24261SOL    HW277595   4.310   0.515   7.537  0.3256  1.7660 -1.2202
24262SOL     OW77596   6.055  10.143   6.564 -0.5550  0.4375  0.2140
24262SOL    HW177597   6.005  10.061   6.558 -1.0416  0.7811 -0.6074
24262SOL    HW277598   6.020  10.197   6.493  1.6554  0.3408 -1.0313
24263SOL     OW77599   8.523   1.001   3.002  0.2255 -0.3187 -0.1122
24263SOL    HW177600   8.451   0.999   3.065  0.2726 -0.1637 -0.0527
24263SOL    HW277601   8.540   1.094   2.987  1.0883 -0.3413  0.6528
24264SOL     OW77602   1.626   0.788   5.581  0.0290  0.4964 -0.1687
24264SOL    HW177603   1.599   0.786   5.672  2.3967 -0.4714  0.6027
24264SOL    HW277604   1.545   0.790   5.531 -1.3233  1.6992  1.9441
24265SOL     OW77605   8.736   1.621   8.258 -0.2437  0.1168 -0.2435
24265SOL    HW177606   8.670   1.640   8.191 -1.5819 -3.9143 -0.3722
24265SOL    HW277607   8.805   1.574   8.210  0.0754 -0.4505  0.7418
24266SOL     OW77608   0.741   1.393   6.107 -0.3452  0.2917  0.3424
24266SOL    HW177609   0.660   1.351   6.076  0.7488 -1.3336 -0.4620
24266SOL    HW277610   0.763   1.345   6.187  0.6687 -0.3985 -0.3310
24267SOL     OW77611   2.774   3.352  11.965 -0.0222  0.5440 -0.0122
24267SOL    HW177612   2.831   3.335  11.890  1.1823  1.4208  0.6670
24267SOL    HW277613   2.782   3.446  11.981 -1.2406  0.5931  0.4618
24268SOL     OW77614   4.945   6.503   9.845 -0.1969 -0.2319  0.0733
24268SOL    HW177615   4.855   6.528   9.828 -0.5498 -2.2680 -1.3065
24268SOL    HW277616   4.940   6.444   9.920 -0.0375 -0.5533 -0.1694
24269SOL     OW77617   4.982   0.946   4.905  0.1294  0.1565 -0.2559
24269SOL    HW177618   4.920   0.873   4.915 -1.8743  1.6745 -0.8587
24269SOL    HW277619   5.063   0.905   4.875 -1.5381 -1.6713 -2.6666
24270SOL     OW77620   2.319   9.180  12.219  0.4433  0.2358 -0.3520
24270SOL    HW177621   2.394   9.146  12.170  0.1926 -1.3894  0.3318
24270SOL    HW277622   2.332   9.147  12.308 -0.4632  0.9469  0.0524
24271SOL     OW77623   6.267   5.068   3.043  0.1548 -0.1738 -0.1352
24271SOL    HW177624   6.179   5.106   3.050  0.5044  1.2574 -2.3745
24271SOL    HW277625   6.254   4.975   3.059 -1.5128  0.2119  1.0279
24272SOL     OW77626   6.328   2.332  10.945  0.6264 -0.2914 -0.7522
24272SOL    HW177627   6.308   2.271  10.874  0.9478 -1.2353 -0.0423
24272SOL    HW277628   6.404   2.295  10.989  0.0092 -0.1008  0.5232
24273SOL     OW77629  11.831   1.531   9.086 -0.4437  0.4261  0.2581
24273SOL    HW177630  11.802   1.471   9.018  0.0837  1.0519 -0.5416
24273SOL    HW277631  11.815   1.484   9.168 -1.8846  0.0053 -0.2404
24274SOL     OW77632   2.024   3.193  11.754 -0.0889  0.2983 -0.1025
24274SOL    HW177633   2.007   3.130  11.684  0.7787 -0.6784  0.5252
24274SOL    HW277634   2.106   3.236  11.727 -0.1127  0.3960 -0.0158
24275SOL     OW77635   3.735   3.170   4.080 -0.8364  0.2778  0.6511
24275SOL    HW177636   3.778   3.102   4.132  1.0589  1.9654  1.4066
24275SOL    HW277637   3.682   3.219   4.142  0.4220  1.5004  0.8140
24276SOL     OW77638   8.988   3.770   7.504  0.1523 -0.2462  0.1018
24276SOL    HW177639   9.007   3.719   7.426 -0.4220  0.7201 -0.6942
24276SOL    HW277640   9.046   3.845   7.499  0.8541 -0.6968  1.1615
24277SOL     OW77641   7.968   0.082   2.155  0.5036  0.1067 -0.1433
24277SOL    HW177642   7.882   0.046   2.134  0.3258 -0.0687  0.8380
24277SOL    HW277643   8.007   0.104   2.070 -1.4505  2.4113 -0.5519
24278SOL     OW77644  11.917   0.252   9.199  0.0035 -0.3408 -0.8728
24278SOL    HW177645  11.908   0.339   9.160 -1.5290  0.3147  0.7886
24278SOL    HW277646  12.011   0.241   9.211  0.1888  1.4747 -0.3395
24279SOL     OW77647   9.113   5.833   8.496 -0.0852 -0.3110  0.0431
24279SOL    HW177648   9.033   5.857   8.542 -1.5540 -2.7995 -1.0222
24279SOL    HW277649   9.177   5.815   8.565 -0.5933  1.0514  0.9148
24280SOL     OW77650   9.788   6.511  12.056  0.4861 -0.6346  0.2869
24280SOL    HW177651   9.808   6.422  12.086 -0.1689 -0.5053  1.1464
24280SOL    HW277652   9.873   6.555  12.054  1.1494 -1.8217 -2.1506
24281SOL     OW77653  11.007   0.878   8.997 -0.1523 -0.3918 -0.7509
24281SOL    HW177654  11.022   0.829   9.078 -1.5162  0.2490 -0.0855
24281SOL    HW277655  11.079   0.851   8.939  2.3623  0.9911  1.5027
24282SOL     OW77656   5.667  11.409   6.968  0.5811 -0.2111  0.2460
24282SOL    HW177657   5.663  11.350   7.044 -0.1094  1.2239  1.3613
24282SOL    HW277658   5.759  11.433   6.962  1.0291 -1.9792 -0.7210
24283SOL     OW77659   2.313   3.384   0.116 -0.4130 -0.0852  0.1454
24283SOL    HW177660   2.306   3.479   0.109  0.3417 -0.0450 -0.1681
24283SOL    HW277661   2.229   3.351   0.085 -0.4799  0.4601 -0.2643
24284SOL     OW77662   0.720   1.661   1.540 -0.1411  0.0558 -0.0922
24284SOL    HW177663   0.645   1.673   1.598  1.6383  1.4142  2.1029
24284SOL    HW277664   0.773   1.593   1.583  0.5842  0.1433 -0.8107
24285SOL     OW77665   8.958   2.513   8.175 -0.4213 -0.8978 -0.0204
24285SOL    HW177666   8.918   2.529   8.261 -0.2452 -1.5647  0.1927
24285SOL    HW277667   9.029   2.451   8.193  0.4913  0.0045 -0.4458
24286SOL     OW77668   3.340  10.966  10.938 -0.2097  0.3026 -0.5217
24286SOL    HW177669   3.429  10.933  10.951 -0.9467 -2.1357 -1.0593
24286SOL    HW277670   3.322  10.951  10.846 -1.1254  0.9195 -0.4510
24287SOL     OW77671   5.333   9.930   3.487  0.4442  0.2753 -0.3933
24287SOL    HW177672   5.317   9.972   3.571 -1.1950 -1.5290  0.2789
24287SOL    HW277673   5.372   9.999   3.433  0.2661  1.8757  1.4036
24288SOL     OW77674   0.507   2.819   6.446 -1.1974  0.5176  0.7611
24288SOL    HW177675   0.434   2.878   6.464 -0.9778  1.0790 -0.1277
24288SOL    HW277676   0.584   2.876   6.446 -0.8450  0.0457  0.9857
24289SOL     OW77677   4.507   0.655   7.679  0.6911  0.0777 -0.3053
24289SOL    HW177678   4.533   0.583   7.621  1.4551 -0.0894  0.2388
24289SOL    HW277679   4.493   0.614   7.764  0.3090  0.4439 -0.1890
24290SOL     OW77680   4.293   9.542   1.530  0.5709 -0.0068  0.1106
24290SOL    HW177681   4.388   9.553   1.527  0.7203 -1.3009 -0.6858
24290SOL    HW277682   4.280   9.462   1.581 -0.1377  0.5272  0.7896
24291SOL     OW77683   2.639   9.855   9.900 -0.4083  0.0079  0.1341
24291SOL    HW177684   2.569   9.922   9.902 -1.2330 -0.8148 -0.4627
24291SOL    HW277685   2.645   9.830   9.808 -0.6219 -1.2644  0.4559
24292SOL     OW77686   2.110   1.713   5.896 -0.3641  0.2723 -0.1221
24292SOL    HW177687   2.095   1.807   5.884 -0.8061  0.4524  1.6311
24292SOL    HW277688   2.107   1.677   5.807 -1.6023  1.7098 -0.7066
24293SOL     OW77689   9.296   3.860   0.641 -0.4350 -0.1431  0.0290
24293SOL    HW177690   9.242   3.784   0.620  0.0293 -0.4123 -0.1989
24293SOL    HW277691   9.385   3.835   0.617 -0.3185  0.5818 -0.3390
24294SOL     OW77692   1.388   0.115   1.918  0.3543 -0.9381  0.3425
24294SOL    HW177693   1.346   0.198   1.898  1.6676 -0.7721 -2.1024
24294SOL    HW277694   1.480   0.138   1.933  0.3109 -1.7104  2.0385
24295SOL     OW77695  10.828   8.269  12.618  0.2158  0.5804  0.5620
24295SOL    HW177696  10.778   8.302  12.692 -0.2596  0.0859  0.4662
24295SOL    HW277697  10.895   8.336  12.602 -0.1980  1.0776  0.9067
24296SOL     OW77698   9.173   8.970   3.607 -0.0944  0.0021 -0.6227
24296SOL    HW177699   9.094   8.916   3.602  0.2329 -0.5760  0.2243
24296SOL    HW277700   9.237   8.916   3.652  0.3169  1.0092  0.0512
24297SOL     OW77701  11.159   6.668   5.789 -0.2317 -0.1422 -0.7605
24297SOL    HW177702  11.127   6.743   5.840 -0.7702  1.5329 -3.3534
24297SOL    HW277703  11.213   6.619   5.850 -0.8611  1.6936  1.4094
24298SOL     OW77704   5.832   7.984   7.995 -0.2951 -0.1869  0.4093
24298SOL    HW177705   5.768   7.968   8.064 -0.5249 -1.8374 -0.1518
24298SOL    HW277706   5.917   7.968   8.038 -0.3207  0.5639  0.7615
24299SOL     OW77707   0.835  10.715   7.163 -0.0467 -0.0601 -0.0381
24299SOL    HW177708   0.867  10.799   7.130  0.1888 -0.0513  0.2111
24299SOL    HW277709   0.844  10.655   7.089  0.8293 -0.1303  0.1154
24300SOL     OW77710   5.001   7.984   9.457 -0.0179  0.5197  0.1384
24300SOL    HW177711   5.029   7.940   9.537  1.2651 -0.7467 -0.9361
24300SOL    HW277712   4.965   7.914   9.402  0.1395  1.1489 -0.7996
24301SOL     OW77713   4.446   8.552   2.505  0.2754  0.1746  0.3732
24301SOL    HW177714   4.511   8.487   2.533  0.8761  0.2486 -0.7911
24301SOL    HW277715   4.440   8.540   2.410 -0.3743  1.1320  0.2819
24302SOL     OW77716   1.438  10.522   8.615 -0.0746  0.2032  0.4620
24302SOL    HW177717   1.376  10.546   8.685 -0.6317 -3.6691  1.5309
24302SOL    HW277718   1.386  10.471   8.553  1.0679  1.0809 -1.2920
24303SOL     OW77719   9.416   6.913   4.952  0.6765 -0.1511 -0.3917
24303SOL    HW177720   9.406   7.004   4.926  0.9555 -0.3124 -1.0845
24303SOL    HW277721   9.454   6.870   4.875  0.7611 -0.8032  0.0065
24304SOL     OW77722   2.390   9.418  11.332  0.1413 -0.1421  0.3509
24304SOL    HW177723   2.309   9.375  11.303  0.9556 -0.2805 -1.8969
24304SOL    HW277724   2.383   9.507  11.298  0.9836 -0.2028 -0.0029
24305SOL     OW77725   8.161   3.745  12.626  0.2043 -0.1088 -0.1149
24305SOL    HW177726   8.247   3.718  12.659 -0.2682  0.1712  1.4480
24305SOL    HW277727   8.178   3.825  12.577  0.7149  0.5368  1.0797
24306SOL     OW77728   7.100   2.363  11.759 -0.6663 -0.2931  0.1006
24306SOL    HW177729   7.178   2.323  11.720  0.1860  0.5273  0.9137
24306SOL    HW277730   7.040   2.289  11.773  0.1608 -1.0130 -0.0707
24307SOL     OW77731   7.031   4.526   4.774 -0.5430 -0.1240  0.1420
24307SOL    HW177732   7.097   4.594   4.760 -1.0352  0.3855  0.2466
24307SOL    HW277733   6.984   4.555   4.853 -2.0252  0.4406 -0.9105
24308SOL     OW77734  10.027  12.596  10.163 -0.5618 -0.2270 -0.1043
24308SOL    HW177735   9.988  12.641  10.237 -1.0053 -0.4330 -0.2115
24308SOL    HW277736  10.043  12.665  10.098 -1.6841 -0.2829 -0.4610
24309SOL     OW77737   2.739   3.629   8.716  0.2478 -0.3140  0.1963
24309SOL    HW177738   2.702   3.667   8.796 -0.7022 -0.9211  0.0582
24309SOL    HW277739   2.681   3.658   8.646  0.1861 -1.0533 -0.0678
24310SOL     OW77740  12.002  12.578  12.261  0.3280  0.2499  0.0989
24310SOL    HW177741  12.061  12.652  12.275  1.5316 -0.8935  1.4623
24310SOL    HW277742  11.930  12.593  12.321 -0.1765  1.0182 -0.6723
24311SOL     OW77743  10.550   4.521   8.189 -0.2125  0.0306 -0.1932
24311SOL    HW177744  10.639   4.519   8.226 -0.2064 -1.0442 -0.2193
24311SOL    HW277745  10.532   4.614   8.174 -0.4988  0.6323  3.1284
24312SOL     OW77746   2.204  10.224   4.790  0.4170  0.0428  0.1742
24312SOL    HW177747   2.201  10.260   4.701 -1.0435 -1.7208 -0.5653
24312SOL    HW277748   2.271  10.275   4.835 -0.7151  2.8547 -1.1068
24313SOL     OW77749   9.502   2.724   2.777  0.5846  0.3366  0.4271
24313SOL    HW177750   9.414   2.759   2.764  0.1629 -0.9927 -0.4776
24313SOL    HW277751   9.560   2.798   2.758 -0.2528  0.4714 -1.9927
24314SOL     OW77752   2.912   1.223   8.259  0.6151 -0.0306  0.0200
24314SOL    HW177753   3.004   1.226   8.233  0.6741  0.5098  0.2931
24314SOL    HW277754   2.872   1.299   8.216  0.6255  0.6396  1.1531
24315SOL     OW77755   2.644   0.351   3.788 -0.1228  0.4425  0.2574
24315SOL    HW177756   2.644   0.304   3.704  0.6980 -0.8244  0.9250
24315SOL    HW277757   2.736   0.374   3.802 -0.2285  0.4949  0.8846
24316SOL     OW77758   5.703   0.105   2.247 -0.2101  0.1176  0.1297
24316SOL    HW177759   5.643   0.035   2.271 -0.5839  0.5278  0.4200
24316SOL    HW277760   5.775   0.061   2.202  0.2051 -0.5962  1.4531
24317SOL     OW77761   9.001   7.310   4.331  0.0595  0.1460  0.6358
24317SOL    HW177762   8.991   7.283   4.422  0.0630  2.0501  1.2556
24317SOL    HW277763   9.005   7.406   4.335  0.3520  0.2614 -1.3432
24318SOL     OW77764   8.135  10.291  10.940  0.4838  0.3013 -0.0182
24318SOL    HW177765   8.083  10.215  10.916  0.7169  0.4754 -1.1704
24318SOL    HW277766   8.103  10.317  11.026  0.6049 -1.2649  0.5306
24319SOL     OW77767  12.329   4.341   0.753 -0.4391 -0.1567 -0.0912
24319SOL    HW177768  12.420   4.349   0.725 -0.1648  2.3996  1.1682
24319SOL    HW277769  12.334   4.304   0.841 -0.5559  0.4594  0.1799
24320SOL     OW77770   2.017   6.624  10.021  0.0782  0.7698 -0.2463
24320SOL    HW177771   2.010   6.638  10.115 -1.4914  0.1451 -0.2410
24320SOL    HW277772   2.006   6.530  10.010  1.3864  0.6843 -0.9791
24321SOL     OW77773   8.982   6.846   6.390 -0.1839 -0.3546  0.1326
24321SOL    HW177774   8.991   6.919   6.451  1.5764  0.3497 -0.8968
24321SOL    HW277775   8.998   6.768   6.443  0.6802  0.2007  0.7039
24322SOL     OW77776   4.889  11.952   4.863  0.2248  0.1605 -0.5719
24322SOL    HW177777   4.805  11.987   4.892  0.0348  1.3793 -2.4413
24322SOL    HW277778   4.951  12.024   4.873  0.9194 -0.4973  0.0716
24323SOL     OW77779   3.098   4.861   3.036  0.2716 -0.5671  0.3107
24323SOL    HW177780   3.148   4.933   3.073  2.5944 -1.2335 -1.3237
24323SOL    HW277781   3.057   4.897   2.958 -0.8347 -0.3514  0.9699
24324SOL     OW77782   5.794   5.441   7.451  0.2613  0.0359 -0.2450
24324SOL    HW177783   5.730   5.504   7.485 -0.1936 -0.8880  0.6579
24324SOL    HW277784   5.876   5.491   7.445 -0.2736  0.9257 -0.3222
24325SOL     OW77785  10.289   3.506   5.431 -0.1439  0.2307 -0.8961
24325SOL    HW177786  10.336   3.487   5.350  0.6267  0.9114 -0.6292
24325SOL    HW277787  10.296   3.601   5.441 -1.9893  0.4252 -1.0802
24326SOL     OW77788   9.266   9.590   8.692  0.0450 -0.8111 -0.1640
24326SOL    HW177789   9.207   9.549   8.756 -0.8613  1.8699  0.8772
24326SOL    HW277790   9.336   9.628   8.745  1.7083 -2.2785 -1.2334
24327SOL     OW77791   6.537   6.648   7.886 -0.1921 -0.2637 -0.2774
24327SOL    HW177792   6.553   6.565   7.842 -2.4992  0.0940 -1.9839
24327SOL    HW277793   6.495   6.623   7.969  0.1808 -0.8251 -0.2513
24328SOL     OW77794  10.852   3.427   7.407  0.0797  0.1192  0.1593
24328SOL    HW177795  10.843   3.334   7.387  0.4954  0.3409 -1.1210
24328SOL    HW277796  10.797   3.471   7.342  0.3058  0.7887  0.4132
24329SOL     OW77797   9.457   2.052   1.877 -0.4896 -0.0442  0.1813
24329SOL    HW177798   9.477   2.043   1.784 -1.6090  0.3292 -0.1091
24329SOL    HW277799   9.365   2.079   1.880 -0.3399  0.4118  1.3793
24330SOL     OW77800  12.140   2.676   4.882  0.3666  0.8601 -0.1415
24330SOL    HW177801  12.065   2.705   4.934 -0.8238 -2.7987  0.4343
24330SOL    HW277802  12.109   2.677   4.792 -0.6571 -1.1457  0.1419
24331SOL     OW77803   3.802  12.515   2.949  0.3677 -1.1896 -0.0123
24331SOL    HW177804   3.850  12.575   3.007  2.8642 -2.0070 -1.0952
24331SOL    HW277805   3.783  12.568   2.871 -0.6400 -0.8272  0.4704
24332SOL     OW77806   2.519   4.105   1.884 -0.6120  0.1261 -0.1422
24332SOL    HW177807   2.466   4.039   1.928  1.1786 -0.3930  1.3592
24332SOL    HW277808   2.521   4.179   1.944 -0.1039  0.3618 -0.4429
24333SOL     OW77809   9.466   4.661   8.891  0.7179  0.2749  0.1606
24333SOL    HW177810   9.428   4.648   8.804 -0.4869  1.3648  0.4884
24333SOL    HW277811   9.390   4.662   8.950  1.6481 -3.2262  1.6639
24334SOL     OW77812   8.685  10.015  12.517 -0.0841 -0.4334  0.0183
24334SOL    HW177813   8.597  10.051  12.512 -0.1829 -0.6875 -0.0880
24334SOL    HW277814   8.742  10.091  12.524 -0.1761 -0.1897 -1.6065
24335SOL     OW77815   1.532   0.923  11.970 -0.0657  0.0100  0.3490
24335SOL    HW177816   1.494   0.979  12.037 -1.8336 -0.1836 -0.4268
24335SOL    HW277817   1.482   0.841  11.976 -0.3477  0.0268 -1.2484
24336SOL     OW77818   4.602   8.474  12.611  0.0630  0.0967 -0.1988
24336SOL    HW177819   4.651   8.533  12.669 -0.1565  1.2150 -1.1173
24336SOL    HW277820   4.546   8.425  12.670 -1.0014  2.0208  0.4871
24337SOL     OW77821   8.312   0.256   8.750  0.0526  0.8193 -0.1527
24337SOL    HW177822   8.244   0.324   8.748 -1.2154 -0.4073 -0.4889
24337SOL    HW277823   8.288   0.201   8.824  1.4458  1.0691  0.5191
24338SOL     OW77824   8.223   8.987  10.841 -0.4814 -0.0924 -0.8455
24338SOL    HW177825   8.210   8.897  10.810  1.1726  0.1270 -2.3673
24338SOL    HW277826   8.193   8.986  10.932  0.4829 -2.4551 -0.4745
24339SOL     OW77827   9.458   8.035   1.691 -0.0006 -0.7784 -0.7366
24339SOL    HW177828   9.494   8.118   1.722  0.0944 -1.1488  0.1941
24339SOL    HW277829   9.401   8.059   1.618  0.9124 -0.0197 -1.2226
24340SOL     OW77830   4.699   7.197  12.287  0.3006  1.2113 -0.1957
24340SOL    HW177831   4.659   7.246  12.359 -0.4724 -1.3336  1.2109
24340SOL    HW277832   4.741   7.122  12.329  0.4308  0.0191 -2.3329
24341SOL     OW77833  11.454  11.733   8.126 -0.4418  0.1491  0.2242
24341SOL    HW177834  11.391  11.699   8.190 -0.5756  1.0741  0.6009
24341SOL    HW277835  11.412  11.719   8.041 -1.3905  1.1920  0.4945
24342SOL     OW77836   8.121  11.949   0.778 -0.1976  0.3870 -0.1406
24342SOL    HW177837   8.073  12.000   0.713  0.4823  1.8266  0.4377
24342SOL    HW277838   8.197  11.915   0.731 -0.9117 -0.5379 -0.6535
24343SOL     OW77839   7.891  10.674   8.391 -0.4657  0.2593 -0.4291
24343SOL    HW177840   7.905  10.676   8.297  0.6824 -1.4706 -0.3396
24343SOL    HW277841   7.953  10.738   8.426  0.9381 -0.8855 -0.7080
24344SOL     OW77842  12.423  12.141   7.011  0.2483  0.3414  0.2757
24344SOL    HW177843  12.460  12.053   7.017  0.3587  0.4912  2.4107
24344SOL    HW277844  12.355  12.134   6.944  0.8190 -1.1337 -0.2001
24345SOL     OW77845   9.768  12.162  11.056 -0.0704 -0.0141 -0.2571
24345SOL    HW177846   9.748  12.089  10.998 -0.7446  0.7341 -0.9892
24345SOL    HW277847   9.747  12.240  11.005 -0.9016  0.6610  1.0569
24346SOL     OW77848   1.907   7.601   5.353 -0.2171 -0.3459  0.0957
24346SOL    HW177849   1.959   7.575   5.430 -1.0854 -1.9547  0.1916
24346SOL    HW277850   1.955   7.563   5.279  0.0900  0.3521 -0.0654
24347SOL     OW77851   8.307   6.980   0.123 -0.0499 -0.0761  0.8174
24347SOL    HW177852   8.386   7.033   0.133  1.4937 -2.3970  1.7875
24347SOL    HW277853   8.238   7.031   0.166  0.9944  1.7795  0.3945
24348SOL     OW77854   8.399   4.184   4.134 -0.3008 -0.3074 -0.7911
24348SOL    HW177855   8.403   4.264   4.082  1.1830 -0.9721 -1.7994
24348SOL    HW277856   8.446   4.119   4.081  0.3547 -1.3059  0.9162
24349SOL     OW77857   3.735   3.919   8.339 -0.0851  0.2174  0.4269
24349SOL    HW177858   3.693   3.857   8.400 -1.7252 -0.2693 -1.0782
24349SOL    HW277859   3.816   3.876   8.313 -0.7358 -0.9038  0.1589
24350SOL     OW77860   7.647  12.401   7.174  0.0699 -0.0734 -0.1954
24350SOL    HW177861   7.706  12.446   7.114  1.1618 -1.9171 -0.5871
24350SOL    HW277862   7.563  12.399   7.128  0.4872 -0.0585 -0.9781
24351SOL     OW77863   3.981   2.640  11.081  0.4450  0.3775  0.0719
24351SOL    HW177864   3.896   2.596  11.083 -0.7418  2.4065  3.2440
24351SOL    HW277865   3.967   2.716  11.023  0.9413 -0.6082 -1.3917
24352SOL     OW77866   2.872   8.702   6.402 -0.1756 -0.2021  0.2878
24352SOL    HW177867   2.822   8.686   6.322 -0.6533 -1.9226  0.8903
24352SOL    HW277868   2.878   8.797   6.408 -3.2496  0.1131  0.0764
24353SOL     OW77869   0.999   8.402   1.170  0.3640 -0.0288 -0.1630
24353SOL    HW177870   0.905   8.421   1.167  0.2751 -0.4502 -0.1307
24353SOL    HW277871   1.034   8.444   1.093  0.3183  1.0255  0.3743
24354SOL     OW77872   2.209   4.671  12.084 -0.0881 -0.0883 -0.2744
24354SOL    HW177873   2.179   4.735  12.020  0.0548  0.7814  0.5107
24354SOL    HW277874   2.302   4.660  12.064 -0.5322 -1.6968 -1.7745
24355SOL     OW77875   9.652   1.309   0.784  0.1272 -0.0545  0.0736
24355SOL    HW177876   9.630   1.249   0.856 -0.5596 -1.4552 -1.2581
24355SOL    HW277877   9.573   1.361   0.772  0.2825  0.2604  0.3990
24356SOL     OW77878  10.097   2.128   6.729  0.1950 -0.2642 -0.4075
24356SOL    HW177879  10.180   2.095   6.695 -0.4175 -0.9795 -1.2360
24356SOL    HW277880  10.046   2.152   6.652 -0.8293 -0.9521  0.0265
24357SOL     OW77881   3.116   9.784  12.539 -0.6667 -0.2384 -0.0658
24357SOL    HW177882   3.030   9.815  12.510 -0.3243  0.1581 -0.6844
24357SOL    HW277883   3.154   9.743  12.461 -0.3765 -0.5960  0.2604
24358SOL     OW77884   3.225   4.553   6.867 -0.1707 -0.0990 -0.2988
24358SOL    HW177885   3.270   4.626   6.909  0.8041 -0.8272 -0.0356
24358SOL    HW277886   3.155   4.594   6.816  1.2082  1.1545 -1.2955
24359SOL     OW77887  11.681   0.199  10.761  0.2215  0.4755  0.1427
24359SOL    HW177888  11.608   0.143  10.787 -2.6388  3.4064 -0.8575
24359SOL    HW277889  11.683   0.193  10.665  1.1385  0.6633  0.1414
24360SOL     OW77890   3.227  11.518   0.451  0.4457 -0.2686 -0.1810
24360SOL    HW177891   3.204  11.515   0.544 -1.0017 -0.4065 -0.5145
24360SOL    HW277892   3.149  11.485   0.407 -0.2268  2.8853 -1.6251
24361SOL     OW77893   9.181   1.922   6.942  0.4562  0.0032  0.4157
24361SOL    HW177894   9.152   2.012   6.925  0.6970 -0.2912 -1.9098
24361SOL    HW277895   9.116   1.887   7.003 -0.1633  1.4652  0.6278
24362SOL     OW77896  11.737   4.291   6.931  0.0382  0.1042 -0.3334
24362SOL    HW177897  11.720   4.256   7.018  1.0076  0.1948 -0.1020
24362SOL    HW277898  11.684   4.371   6.927  1.4277  1.1205  0.8826
24363SOL     OW77899   6.645   8.223   6.655  0.4740  0.1573  0.1623
24363SOL    HW177900   6.691   8.293   6.609 -1.0515  1.5070  0.5911
24363SOL    HW277901   6.616   8.164   6.586  0.8618  0.5182 -0.3160
24364SOL     OW77902   2.736   6.714   6.672  0.4534  0.9864 -0.2988
24364SOL    HW177903   2.823   6.681   6.646  0.1105  0.8890 -1.3754
24364SOL    HW277904   2.679   6.638   6.664  0.3482  0.9342  0.8715
24365SOL     OW77905   7.926   9.592   8.172  0.2504  0.3368  0.0244
24365SOL    HW177906   7.955   9.521   8.229 -0.7102 -0.0165  0.0927
24365SOL    HW277907   7.848   9.627   8.214  0.7381  1.4745  0.0084
24366SOL     OW77908   2.074   8.447   6.486 -0.0332  0.0344  0.4065
24366SOL    HW177909   2.072   8.474   6.394 -1.3768 -0.3745  0.3025
24366SOL    HW277910   2.095   8.353   6.482  0.0277  0.0436  0.5248
24367SOL     OW77911   8.063   6.620   9.592  0.2090 -0.5539 -0.1204
24367SOL    HW177912   8.049   6.585   9.504  0.7828 -0.2084 -0.3546
24367SOL    HW277913   8.074   6.714   9.580  0.6955 -0.5525  0.2698
24368SOL     OW77914   7.943   2.440   5.845  0.3184  0.4187 -0.0451
24368SOL    HW177915   7.852   2.418   5.825  0.0731  0.7726  0.6439
24368SOL    HW277916   7.987   2.439   5.760  0.1572 -1.9170 -0.1555
24369SOL     OW77917   0.103   8.417   2.273 -0.6907  0.7164 -0.0601
24369SOL    HW177918   0.188   8.437   2.235 -0.4344  0.1132  0.1651
24369SOL    HW277919   0.107   8.454   2.361  0.1167 -0.9689  0.6783
24370SOL     OW77920   5.447   1.387  10.895 -0.5139 -0.2258 -0.1975
24370SOL    HW177921   5.356   1.371  10.870 -0.0879  0.2550 -2.2464
24370SOL    HW277922   5.498   1.335  10.833  0.6352  0.0828  0.4590
24371SOL     OW77923   0.737  11.101   1.309 -0.1107  0.0889  0.0981
24371SOL    HW177924   0.739  11.037   1.238 -1.3458  0.6718 -0.4954
24371SOL    HW277925   0.687  11.175   1.274 -0.8202  0.3661  1.5981
24372SOL     OW77926   4.610   5.332   5.872  0.5441 -0.3085  0.4494
24372SOL    HW177927   4.607   5.425   5.894  2.3568  0.4025 -1.8829
24372SOL    HW277928   4.637   5.289   5.953  2.7282  1.6037  0.8582
24373SOL     OW77929   3.364   4.708   9.454 -0.4049  0.3521  0.3525
24373SOL    HW177930   3.340   4.679   9.366  0.6881  1.2113 -0.2584
24373SOL    HW277931   3.337   4.636   9.511 -1.5144 -0.0410 -0.6246
24374SOL     OW77932   5.741   3.610   2.840 -0.3362 -0.3427  0.0905
24374SOL    HW177933   5.822   3.560   2.834 -0.0809 -0.1180  1.3898
24374SOL    HW277934   5.712   3.599   2.931 -1.0591  0.6630  0.0031
24375SOL     OW77935   4.446   5.757  10.705  0.1802  0.8735  0.0736
24375SOL    HW177936   4.427   5.849  10.685  1.3412  0.4948 -3.3005
24375SOL    HW277937   4.541   5.754  10.714  0.2460 -0.1632 -0.8511
24376SOL     OW77938   6.692   2.312   9.892  0.5835  0.2066  0.3079
24376SOL    HW177939   6.726   2.292   9.979 -0.0528  0.9369  0.7392
24376SOL    HW277940   6.627   2.380   9.907  2.8971  2.9457 -1.0568
24377SOL     OW77941   4.814   3.996   0.894  0.2632 -0.0181 -0.1498
24377SOL    HW177942   4.753   4.038   0.833 -0.1809 -1.3016 -0.6228
24377SOL    HW277943   4.793   4.035   0.979 -1.8926 -1.0726 -0.1272
24378SOL     OW77944  12.238   9.816  12.126  0.6459  0.4142  0.0347
24378SOL    HW177945  12.237   9.796  12.032  2.2310  2.0244 -0.3879
24378SOL    HW277946  12.238   9.730  12.168  1.0503 -0.3762 -1.4764
24379SOL     OW77947   6.695   2.232   5.992 -0.0297  0.3705  0.1172
24379SOL    HW177948   6.749   2.304   5.962  0.3246 -0.0984 -0.3941
24379SOL    HW277949   6.686   2.175   5.916 -3.1553  1.5369 -0.5290
24380SOL     OW77950   5.217   5.672  10.324 -0.0881  0.0441  1.0197
24380SOL    HW177951   5.218   5.698  10.232 -0.0000  2.7542  1.6944
24380SOL    HW277952   5.125   5.672  10.349 -0.0715 -0.0760  1.0854
24381SOL     OW77953  12.337   0.772   9.368 -0.8243  0.4238 -0.7684
24381SOL    HW177954  12.355   0.834   9.438  0.2469 -2.2152  1.4613
24381SOL    HW277955  12.350   0.822   9.287 -0.2364  3.0897  0.8644
24382SOL     OW77956   9.097   9.675  12.474  0.8945  0.2612 -0.3500
24382SOL    HW177957   9.030   9.744  12.477  1.9891  1.3216  0.8137
24382SOL    HW277958   9.123   9.670  12.382  1.9268  2.5766 -0.2419
24383SOL     OW77959   9.957   2.813   3.900 -0.0345 -0.1928 -0.1841
24383SOL    HW177960   9.960   2.842   3.808  0.3351 -0.1835 -0.1704
24383SOL    HW277961  10.002   2.882   3.948 -0.7974  0.1279  0.0952
24384SOL     OW77962  11.301   0.899  11.217  0.0701 -0.4415 -0.6505
24384SOL    HW177963  11.314   0.949  11.298 -0.7445 -0.7093 -0.3472
24384SOL    HW277964  11.385   0.854  11.204  0.5970  0.4877 -0.5833
24385SOL     OW77965  12.065   1.387   5.566 -0.0215 -0.7996  0.1739
24385SOL    HW177966  12.003   1.321   5.598  1.1851 -1.6367  0.8778
24385SOL    HW277967  12.144   1.337   5.545  0.5376  0.2867 -0.3867
24386SOL     OW77968   7.237   4.918  11.039 -0.0672 -0.2761  0.5682
24386SOL    HW177969   7.223   4.968  11.120 -1.9915 -1.7657  1.2403
24386SOL    HW277970   7.230   4.983  10.969 -0.7675  0.6719  1.4839
24387SOL     OW77971   8.516   4.444   4.778 -0.3570  0.3612 -0.1206
24387SOL    HW177972   8.607   4.441   4.750 -0.3618 -0.6644 -0.0803
24387SOL    HW277973   8.521   4.451   4.874 -0.3049  0.0494 -0.0965
24388SOL     OW77974   3.388   0.421   3.085 -0.4117  0.3177 -0.1475
24388SOL    HW177975   3.366   0.504   3.042  1.1378  1.1166  0.5374
24388SOL    HW277976   3.472   0.437   3.127 -0.1830 -1.5500  0.1915
24389SOL     OW77977  10.557   8.258  10.698 -0.3352 -0.1400 -0.1547
24389SOL    HW177978  10.620   8.246  10.627 -0.2105  0.8690 -0.2199
24389SOL    HW277979  10.471   8.247  10.656 -0.2483  0.0322 -0.3811
24390SOL     OW77980   1.788   3.043   6.547 -0.4218 -0.1532  0.4168
24390SOL    HW177981   1.844   3.089   6.485 -0.1078 -1.2824 -0.1786
24390SOL    HW277982   1.741   3.112   6.593  0.3482  0.7608 -0.1271
24391SOL     OW77983   8.100   2.285   1.651 -0.4619 -0.0425 -0.4408
24391SOL    HW177984   8.030   2.325   1.600 -0.2954  0.7385 -0.0598
24391SOL    HW277985   8.079   2.304   1.742  0.1257  0.0080 -0.3078
24392SOL     OW77986   6.571   7.618  10.220 -0.3266  0.1011  0.1160
24392SOL    HW177987   6.645   7.653  10.171 -0.0414 -0.5051  0.1019
24392SOL    HW277988   6.562   7.677  10.295 -1.1769  1.4072 -0.9845
24393SOL     OW77989   9.404   3.705   3.834 -0.2912  0.6196  0.6072
24393SOL    HW177990   9.378   3.615   3.852  1.9145 -0.2363 -0.1630
24393SOL    HW277991   9.332   3.741   3.782  0.2350 -1.8325 -2.0998
24394SOL     OW77992   9.786   8.640   3.980 -0.0868  0.2940  0.1399
24394SOL    HW177993   9.734   8.654   3.901  1.4444  1.2480 -0.7459
24394SOL    HW277994   9.822   8.727   4.001 -2.1511  0.5711  3.1667
24395SOL     OW77995   1.216   9.730  10.375  0.1886 -0.5641  0.3530
24395SOL    HW177996   1.196   9.824  10.377 -0.0799 -0.6346  1.1803
24395SOL    HW277997   1.310   9.726  10.361  0.0586 -0.1942 -0.8080
24396SOL     OW77998   8.637   8.090   8.533  0.3731 -0.2700  0.8281
24396SOL    HW177999   8.576   8.075   8.461  1.2129  0.8123 -0.1294
24396SOL    HW278000   8.648   8.003   8.573  0.2611 -0.9843 -0.6324
24397SOL     OW78001   0.487   9.658  10.824 -0.0287  0.2571  0.4780
24397SOL    HW178002   0.406   9.618  10.792 -0.7127  0.9685  1.2693
24397SOL    HW278003   0.508   9.725  10.758 -1.0257  1.2116  1.0923
24398SOL     OW78004   0.425   4.300   2.611 -0.3503 -0.2123  0.3593
24398SOL    HW178005   0.418   4.383   2.564  1.1147  0.5959  1.4663
24398SOL    HW278006   0.516   4.272   2.598 -0.9487 -1.9387 -0.4256
24399SOL     OW78007   7.287   6.493  11.016 -0.2693  0.5397 -0.0473
24399SOL    HW178008   7.230   6.417  11.011 -1.7043  1.5296  0.5819
24399SOL    HW278009   7.272   6.540  10.934 -2.0640  1.9120  0.9898
24400SOL     OW78010   2.967   1.874   4.028 -0.0657 -0.2851 -0.0341
24400SOL    HW178011   2.936   1.893   4.117 -1.4901  0.7879 -0.7067
24400SOL    HW278012   3.050   1.920   4.022  0.7693 -1.5613  1.1809
24401SOL     OW78013   9.288   6.165   3.098  0.4341 -0.2878 -0.0213
24401SOL    HW178014   9.355   6.224   3.133  2.0087 -1.0628 -1.6156
24401SOL    HW278015   9.229   6.222   3.049 -0.0985  0.3912  1.3428
24402SOL     OW78016   6.703  10.340  12.410  0.3176 -0.0651  0.2891
24402SOL    HW178017   6.615  10.365  12.382 -0.0178 -0.0725  1.2744
24402SOL    HW278018   6.732  10.413  12.465  1.5307  0.6179 -1.1862
24403SOL     OW78019   4.167   8.979  10.769 -0.0485 -0.8413  0.1613
24403SOL    HW178020   4.114   8.916  10.721 -1.5242 -0.1556  0.8181
24403SOL    HW278021   4.255   8.942  10.768 -0.3062 -1.5222 -1.8347
24404SOL     OW78022   8.031   5.264  11.449  0.1324  0.7185  0.2209
24404SOL    HW178023   7.972   5.201  11.408  0.6081 -0.2276  0.9532
24404SOL    HW278024   8.044   5.332  11.382  1.8533 -1.3571 -1.7437
24405SOL     OW78025   7.386   5.789   4.900  0.0176  0.0736  0.1981
24405SOL    HW178026   7.307   5.735   4.899 -0.7818  1.1409  1.5601
24405SOL    HW278027   7.447   5.743   4.843 -1.9577 -0.1830 -1.8555
24406SOL     OW78028   6.925   0.619   2.815  0.5869 -0.5083  0.0961
24406SOL    HW178029   7.013   0.583   2.800  0.9439 -0.0238  0.9580
24406SOL    HW278030   6.879   0.550   2.863  0.1565 -1.1641 -1.2071
24407SOL     OW78031   2.427   3.697   4.338 -0.8543  0.2174 -0.2052
24407SOL    HW178032   2.375   3.750   4.398  0.0861 -0.1254  0.9622
24407SOL    HW278033   2.364   3.636   4.299 -1.4192  0.1539  0.7757
24408SOL     OW78034   5.190   7.305  11.980  0.0752 -0.4581  0.1685
24408SOL    HW178035   5.190   7.399  11.968  3.0001 -0.4060 -0.1939
24408SOL    HW278036   5.179   7.293  12.075 -0.3854  0.2342  0.2034
24409SOL     OW78037   0.284   5.474   0.377  0.2599 -0.0174  0.5483
24409SOL    HW178038   0.269   5.529   0.454 -1.3776  0.0734  0.2066
24409SOL    HW278039   0.215   5.499   0.316  0.1687 -1.6500 -0.0670
24410SOL     OW78040   6.953   4.724  11.966 -0.0835 -0.4311 -0.3849
24410SOL    HW178041   6.956   4.796  12.029 -0.5690 -0.1352 -0.6918
24410SOL    HW278042   7.043   4.718  11.933 -0.5720  1.9594 -2.4554
24411SOL     OW78043  12.042  11.960   2.082 -0.8071 -0.4917  0.1116
24411SOL    HW178044  11.969  12.007   2.122 -0.7168  1.4198 -1.7864
24411SOL    HW278045  12.002  11.903   2.017 -0.6544  0.7749 -1.1377
24412SOL     OW78046   5.527   3.243   5.809  0.0718 -0.2526  0.3330
24412SOL    HW178047   5.609   3.291   5.802 -0.2994  0.7814  2.5011
24412SOL    HW278048   5.461   3.303   5.775 -0.3841  0.8818  2.9902
24413SOL     OW78049   6.382   6.918   8.255  0.2428 -0.6074  0.4500
24413SOL    HW178050   6.419   6.914   8.167  2.1725 -0.5775  1.2148
24413SOL    HW278051   6.295   6.956   8.243  0.6789 -0.1065 -1.3659
24414SOL     OW78052   7.345  10.565   9.535 -0.1529 -0.0043  0.0737
24414SOL    HW178053   7.431  10.524   9.525 -0.6824 -1.1775  0.1117
24414SOL    HW278054   7.363  10.658   9.541  0.9566 -0.0146 -2.0786
24415SOL     OW78055   6.897   6.212   3.657  0.3668 -0.1329 -0.1172
24415SOL    HW178056   6.839   6.137   3.671  0.7184 -0.4024 -0.0960
24415SOL    HW278057   6.880   6.270   3.732 -1.5016  0.8624 -1.2331
24416SOL     OW78058  12.101   0.788   5.262 -0.2991  0.2531  0.4371
24416SOL    HW178059  12.082   0.809   5.170 -2.8402 -2.0203  0.3136
24416SOL    HW278060  12.019   0.755   5.296  0.9213 -0.1617  3.2331
24417SOL     OW78061  10.257   9.301   5.927  0.2466  0.0973  0.3735
24417SOL    HW178062  10.329   9.349   5.885  2.2647 -2.3813  0.8107
24417SOL    HW278063  10.205   9.369   5.970  0.9477  2.2104 -1.8794
24418SOL     OW78064   2.271   7.577  11.657 -0.1497  0.3679 -0.1593
24418SOL    HW178065   2.206   7.620  11.602 -0.7471  0.3257  0.4950
24418SOL    HW278066   2.280   7.489  11.620 -0.7286  0.2571 -0.0407
24419SOL     OW78067   2.231   4.085   4.304 -0.1214  0.2691 -0.0249
24419SOL    HW178068   2.316   4.105   4.266 -0.9306 -1.3008 -3.0455
24419SOL    HW278069   2.244   4.002   4.350 -0.1998 -0.6346 -1.5569
24420SOL     OW78070   9.037   0.499   3.655 -0.3385 -0.3359 -0.2831
24420SOL    HW178071   9.123   0.535   3.677 -1.6042  3.0614 -0.3863
24420SOL    HW278072   9.047   0.405   3.670  2.7726  0.1460  1.7465
24421SOL     OW78073   7.721   9.670   6.235 -0.1248 -0.1410  0.1255
24421SOL    HW178074   7.638   9.638   6.202  0.7144 -2.0349 -0.2740
24421SOL    HW278075   7.702   9.700   6.324 -1.2710 -0.2864 -0.0585
24422SOL     OW78076   6.311   7.248   2.745 -0.0990  0.6355 -0.4178
24422SOL    HW178077   6.216   7.235   2.746 -0.1369  0.9540  0.5956
24422SOL    HW278078   6.342   7.208   2.826  0.6370  0.5564 -0.7279
24423SOL     OW78079   2.818  10.720   9.072 -0.5457 -0.9411 -0.0274
24423SOL    HW178080   2.778  10.695   9.155  0.3327  0.2111  0.7691
24423SOL    HW278081   2.753  10.775   9.028 -0.5438 -0.5606  0.4452
24424SOL     OW78082   5.375  11.361   2.168 -0.3807 -0.2963  0.4988
24424SOL    HW178083   5.308  11.308   2.212 -1.3749  1.0262  0.6485
24424SOL    HW278084   5.422  11.404   2.239 -0.2478 -0.1939  0.3477
24425SOL     OW78085   6.366  10.784   5.876  0.0233  0.4637  0.5526
24425SOL    HW178086   6.368  10.865   5.826 -1.5442  0.0348 -0.2858
24425SOL    HW278087   6.456  10.771   5.906  0.7634  1.3474 -1.1685
24426SOL     OW78088   7.521   2.007   2.815 -0.1997  0.5513 -0.2286
24426SOL    HW178089   7.493   1.938   2.755 -0.4885 -0.3700  0.9326
24426SOL    HW278090   7.613   2.022   2.793 -0.9101  2.1169 -2.6582
24427SOL     OW78091   1.869   9.443   0.026 -0.0359  0.7956  0.1812
24427SOL    HW178092   1.863   9.374  -0.040 -1.0119 -0.5729  1.6117
24427SOL    HW278093   1.785   9.439   0.073  0.5643  1.7954  1.4108
24428SOL     OW78094   2.432   0.196   7.188 -0.4389 -0.4889  0.0741
24428SOL    HW178095   2.384   0.269   7.149 -1.2964 -0.3343  1.3465
24428SOL    HW278096   2.456   0.227   7.275  2.5705 -0.3404 -0.7108
24429SOL     OW78097   8.535   7.198   0.131 -0.1494 -0.1523 -0.2477
24429SOL    HW178098   8.623   7.202   0.167 -0.0679 -0.6840 -0.3862
24429SOL    HW278099   8.547   7.202   0.036 -0.2406 -0.7395 -0.2862
24430SOL     OW78100   3.737   5.540  12.507  0.2408  0.5254 -0.2645
24430SOL    HW178101   3.741   5.634  12.526 -2.5732  0.5331  0.9072
24430SOL    HW278102   3.684   5.534  12.427  0.9349 -0.0605 -0.6937
24431SOL     OW78103  11.002   8.773   8.572  0.4674  0.7601  0.2846
24431SOL    HW178104  11.068   8.832   8.535  0.2768  0.1797 -1.0748
24431SOL    HW278105  10.932   8.772   8.506  1.1969 -2.2647 -0.6414
24432SOL     OW78106   2.327   9.545   8.811  0.2563 -0.2196 -0.3652
24432SOL    HW178107   2.381   9.495   8.873 -0.4980  1.0485  1.3804
24432SOL    HW278108   2.238   9.515   8.827 -0.2217  1.6739  0.7745
24433SOL     OW78109   2.634   7.764   0.432  0.7832  0.3634  0.2194
24433SOL    HW178110   2.698   7.693   0.439  0.3359  0.0395  1.1209
24433SOL    HW278111   2.559   7.734   0.483 -0.5246  0.2915 -1.6467
24434SOL     OW78112  12.508   7.433   4.175 -0.2292  0.2399 -0.4984
24434SOL    HW178113  12.551   7.364   4.227 -0.2382 -0.7910 -1.8034
24434SOL    HW278114  12.415   7.410   4.178 -0.2526  0.3016 -0.7915
24435SOL     OW78115  11.037   0.221   2.886 -0.0700 -0.5198  0.3409
24435SOL    HW178116  11.055   0.187   2.798  0.3569  1.6192 -0.4585
24435SOL    HW278117  10.969   0.287   2.872  0.8079  0.6617  1.4329
24436SOL     OW78118   4.919   4.234  11.538  0.7434  0.3634 -0.4314
24436SOL    HW178119   4.878   4.167  11.592 -0.2375  1.9383  0.8793
24436SOL    HW278120   4.853   4.303  11.530  1.4669  0.9090 -2.2870
24437SOL     OW78121   1.923   6.655   3.735  0.1690  0.8650 -0.1960
24437SOL    HW178122   1.853   6.637   3.673 -0.2885  1.5984  0.0845
24437SOL    HW278123   1.881   6.708   3.804  0.4436 -0.6293  1.1893
24438SOL     OW78124   5.685   9.880   9.800 -0.3005  0.1593  0.3750
24438SOL    HW178125   5.755   9.816   9.785 -0.8848 -0.2113 -0.8887
24438SOL    HW278126   5.609   9.828   9.825 -0.7551  0.3575 -0.5720
24439SOL     OW78127   5.701   3.657   9.478 -0.1329  0.2496  0.2059
24439SOL    HW178128   5.706   3.699   9.392 -2.5746  1.0679  0.3876
24439SOL    HW278129   5.619   3.607   9.475  0.3733 -0.7091  1.6456
24440SOL     OW78130   7.857   6.722   7.181 -0.1041 -0.1157 -0.1615
24440SOL    HW178131   7.820   6.809   7.196  1.0380  0.1765  1.1146
24440SOL    HW278132   7.879   6.689   7.268  0.3946 -1.2782 -0.6993
24441SOL     OW78133   5.500   6.054   6.604 -0.3335 -0.1560 -0.3075
24441SOL    HW178134   5.540   6.046   6.517  0.7532  0.5543  0.1175
24441SOL    HW278135   5.554   5.998   6.660 -0.7874 -0.2876  0.0024
24442SOL     OW78136   4.410   0.242   0.841  0.2857 -0.1764  0.3503
24442SOL    HW178137   4.490   0.191   0.847 -0.3053 -0.9675  2.9597
24442SOL    HW278138   4.420   0.311   0.907 -1.1495 -0.2945  0.7307
24443SOL     OW78139  10.073   3.648   4.684  0.3780 -0.3612  0.2441
24443SOL    HW178140  10.103   3.705   4.613 -0.5614  0.9094  0.8148
24443SOL    HW278141   9.995   3.605   4.649  0.8901 -1.0393 -0.0695
24444SOL     OW78142   9.996   9.091   7.486  0.2687  0.3287 -0.2477
24444SOL    HW178143   9.994   9.054   7.398 -1.3772  0.0065 -0.1023
24444SOL    HW278144  10.024   9.182   7.473 -1.3538  0.7093 -1.2905
24445SOL     OW78145   5.471   6.759   2.443  0.5089  0.2133 -0.3064
24445SOL    HW178146   5.563   6.782   2.426  0.6438 -0.3408 -0.3418
24445SOL    HW278147   5.424   6.842   2.436  0.8981  0.3796 -1.0446
24446SOL     OW78148  12.383   0.246   7.346 -0.5706  0.5258  0.2930
24446SOL    HW178149  12.380   0.150   7.346  4.0292  0.1672 -0.9790
24446SOL    HW278150  12.424   0.269   7.263  0.7672  3.4120  1.6268
24447SOL     OW78151   4.881  11.672   5.107  0.2499 -0.0526 -0.1257
24447SOL    HW178152   4.860  11.587   5.145 -1.2617 -0.0978 -0.9681
24447SOL    HW278153   4.846  11.668   5.018  2.3640  0.5825 -1.0489
24448SOL     OW78154  10.393  10.136   6.915 -0.3263  0.4710  0.1844
24448SOL    HW178155  10.367  10.046   6.937 -1.8049  1.0007  0.7530
24448SOL    HW278156  10.326  10.190   6.956  0.3942  1.8312 -0.3857
24449SOL     OW78157   4.217   3.653   0.214 -0.3510 -0.3520 -0.0776
24449SOL    HW178158   4.285   3.720   0.207  1.7473 -2.1381  1.5521
24449SOL    HW278159   4.265   3.570   0.216 -2.4214 -1.6502  2.5654
24450SOL     OW78160  10.470   4.759   8.443 -0.3017 -0.1381  0.5240
24450SOL    HW178161  10.483   4.839   8.494 -0.4893  1.0191 -1.1815
24450SOL    HW278162  10.528   4.695   8.484  0.4846  1.1011  1.4058
24451SOL     OW78163   5.680   9.335   7.423 -0.8210 -0.2296  0.4974
24451SOL    HW178164   5.692   9.254   7.372  0.4796  0.4216 -0.2817
24451SOL    HW278165   5.732   9.322   7.502 -3.2555 -1.4572  2.0472
24452SOL     OW78166   0.506  11.075   3.115 -0.4040 -0.6091 -0.6219
24452SOL    HW178167   0.590  11.118   3.098  0.2609 -1.4000  0.5402
24452SOL    HW278168   0.479  11.041   3.030 -0.4609  1.1868 -1.3756
24453SOL     OW78169  12.374   7.246  10.407 -0.1336  0.2900 -0.0362
24453SOL    HW178170  12.314   7.190  10.358 -0.5290 -0.1994  0.9649
24453SOL    HW278171  12.317   7.311  10.449  0.0996  0.1721  0.4657
24454SOL     OW78172  10.666   0.005   6.971  0.3223 -0.4615  0.1271
24454SOL    HW178173  10.619  -0.078   6.980 -0.9295  0.2208  0.1219
24454SOL    HW278174  10.685   0.013   6.878  3.2718 -2.1980  0.4672
24455SOL     OW78175   4.572   6.466   5.416 -0.1702  0.1748 -0.4259
24455SOL    HW178176   4.483   6.431   5.409  0.6803 -2.7385  1.5720
24455SOL    HW278177   4.600   6.442   5.504  1.9956  2.6801 -0.3310
24456SOL     OW78178   3.467   0.931   0.771  0.8030  0.4273  0.1314
24456SOL    HW178179   3.455   1.012   0.821  0.7420  0.2633  0.3837
24456SOL    HW278180   3.562   0.917   0.770  0.7481 -0.1091  1.0734
24457SOL     OW78181   3.363  11.674   6.799 -0.5002  0.4137  0.7859
24457SOL    HW178182   3.421  11.697   6.871  1.5447  0.0621 -0.6420
24457SOL    HW278183   3.343  11.757   6.757 -0.0289  0.4221  0.5750
24458SOL     OW78184   6.701   7.061   0.381 -0.1984 -0.2910  0.0594
24458SOL    HW178185   6.658   7.145   0.369  0.6610  0.2072  0.3532
24458SOL    HW278186   6.763   7.075   0.453 -1.2794 -1.6703  1.3252
24459SOL     OW78187   7.718   4.722   2.060  0.3405  0.0465 -0.1886
24459SOL    HW178188   7.808   4.690   2.047  0.0505 -1.2246  0.8588
24459SOL    HW278189   7.663   4.644   2.054 -0.8293  0.9415 -1.7924
24460SOL     OW78190  10.562   2.943  11.807 -0.3701 -0.0917 -0.1512
24460SOL    HW178191  10.548   3.024  11.758 -1.0689 -0.4622 -0.5760
24460SOL    HW278192  10.589   2.972  11.894 -0.8463  0.6010 -0.2258
24461SOL     OW78193   8.627  10.959   5.725 -0.7329 -0.6796  0.3656
24461SOL    HW178194   8.632  11.027   5.658 -0.9391 -0.1857  0.8439
24461SOL    HW278195   8.536  10.930   5.723 -0.6812 -0.8336  0.2644
24462SOL     OW78196   9.311   6.934  12.071 -0.4598 -0.1978  0.2666
24462SOL    HW178197   9.345   6.930  11.982 -1.7467 -1.3453 -0.2224
24462SOL    HW278198   9.256   7.012  12.072 -0.8170 -0.4385 -0.1056
24463SOL     OW78199   6.407   2.600   0.915  0.4280  0.3374 -0.3827
24463SOL    HW178200   6.384   2.510   0.937 -1.5357  1.0121  0.5326
24463SOL    HW278201   6.475   2.623   0.978 -0.0731 -0.0697  0.3206
24464SOL     OW78202   7.956   9.226  10.901  0.6124 -0.0283  0.1456
24464SOL    HW178203   7.897   9.193  10.833  0.2990 -1.3815  1.0355
24464SOL    HW278204   8.033   9.255  10.853  0.4728 -1.1139 -0.7856
24465SOL     OW78205  12.243   4.060   9.146 -0.3978 -0.1587 -0.6504
24465SOL    HW178206  12.322   4.106   9.173 -1.5893  1.9745 -0.6228
24465SOL    HW278207  12.197   4.042   9.228 -0.8356  0.3240 -0.7866
24466SOL     OW78208   5.631   4.081   5.011 -0.4989 -0.4368 -0.4000
24466SOL    HW178209   5.716   4.124   5.006 -0.1037 -1.1402  0.0897
24466SOL    HW278210   5.610   4.059   4.920 -0.1210 -0.3442 -0.5119
24467SOL     OW78211   6.258   1.661   5.932  0.3337 -0.0353 -0.3443
24467SOL    HW178212   6.202   1.738   5.918 -2.3951 -1.5915  1.1374
24467SOL    HW278213   6.209   1.588   5.895  0.6220 -1.7057  2.2817
24468SOL     OW78214  10.465   2.561   5.752 -0.3127 -0.0259  0.0927
24468SOL    HW178215  10.540   2.611   5.785 -0.1899 -0.0585 -0.1346
24468SOL    HW278216  10.423   2.527   5.830 -1.5014  1.9896  0.3971
24469SOL     OW78217   3.777   2.814   0.014  0.5204  0.5945 -0.1249
24469SOL    HW178218   3.773   2.783  -0.077 -1.7445  1.1280 -0.2856
24469SOL    HW278219   3.738   2.743   0.065 -1.1127  1.5026 -0.0192
24470SOL     OW78220   5.915   3.866   3.962  0.1210 -0.0216  0.1178
24470SOL    HW178221   5.957   3.951   3.962 -0.1712  0.1351  1.1271
24470SOL    HW278222   5.853   3.869   4.035  1.6631 -1.8557  1.5985
24471SOL     OW78223   6.693   2.840   8.506 -0.0386  0.0873 -0.2704
24471SOL    HW178224   6.734   2.759   8.536  0.0503  0.0512 -0.4880
24471SOL    HW278225   6.767   2.899   8.488 -0.1064  0.2602  0.0100
24472SOL     OW78226   9.431   3.602   3.401 -0.0932  0.0353 -0.0143
24472SOL    HW178227   9.410   3.521   3.355  0.2654 -0.1628  0.1668
24472SOL    HW278228   9.348   3.632   3.437 -0.4920  0.5171 -1.3044
24473SOL     OW78229   5.533   8.971  11.375  0.1268  0.2081 -0.3302
24473SOL    HW178230   5.613   8.980  11.323  1.8998  2.5662  2.5639
24473SOL    HW278231   5.558   8.916  11.449 -0.4198  2.1861  1.4032
24474SOL     OW78232   7.068   8.457   6.991  0.1852 -0.2983 -0.1448
24474SOL    HW178233   7.079   8.466   6.896 -0.3982  0.5403 -0.1464
24474SOL    HW278234   7.142   8.403   7.019  1.0911  0.5214 -0.8944
24475SOL     OW78235   7.581   0.552  11.170  0.4350  0.2391  0.1421
24475SOL    HW178236   7.670   0.542  11.204 -0.2748 -0.1443  2.0548
24475SOL    HW278237   7.561   0.645  11.182  0.3566  0.1992  0.3265
24476SOL     OW78238   5.433   6.083   0.780 -0.4636 -0.1319  0.1533
24476SOL    HW178239   5.446   6.138   0.703  2.2581 -1.5611 -0.5087
24476SOL    HW278240   5.499   6.111   0.842  0.4347 -2.0262  0.1259
24477SOL     OW78241   3.425   8.955   1.609  0.0183 -0.0573 -0.1588
24477SOL    HW178242   3.513   8.951   1.572  0.5075 -1.7236  1.0413
24477SOL    HW278243   3.429   9.027   1.673  0.4248  0.0411 -0.2947
24478SOL     OW78244   5.076   7.787   8.937 -0.2070  0.2607  0.4424
24478SOL    HW178245   5.032   7.788   9.022  2.1009 -0.9198  1.7429
24478SOL    HW278246   5.151   7.847   8.948  0.5292 -0.4530 -0.5082
24479SOL     OW78247   9.788   7.690   3.737 -0.4006  0.1670 -0.0965
24479SOL    HW178248   9.701   7.670   3.771  0.0530 -0.9003  0.4921
24479SOL    HW278249   9.838   7.718   3.814  0.1025 -0.4184 -0.1969
24480SOL     OW78250   6.711   7.466   4.188  0.7062  0.2099 -0.5821
24480SOL    HW178251   6.804   7.457   4.171  0.5278  0.2394 -1.6233
24480SOL    HW278252   6.698   7.560   4.200  0.6345  0.3272 -1.5437
24481SOL     OW78253   1.961   9.064   3.047  0.3806  1.0212 -0.2156
24481SOL    HW178254   2.022   9.072   3.120 -1.9833  3.0075  1.6958
24481SOL    HW278255   1.909   8.986   3.067  1.2588  0.1764 -1.0928
24482SOL     OW78256   8.317   3.234   9.602 -0.0761 -0.1102 -0.5628
24482SOL    HW178257   8.272   3.174   9.661 -0.4840 -0.3746 -1.1344
24482SOL    HW278258   8.312   3.319   9.645 -0.4928 -0.2750 -0.2851
24483SOL     OW78259   3.228   1.130   4.796 -0.0911 -0.0964  0.4028
24483SOL    HW178260   3.308   1.151   4.749 -0.6894  1.4153 -0.0244
24483SOL    HW278261   3.160   1.131   4.729 -0.8806  1.5799  1.1565
24484SOL     OW78262   3.089   6.092   3.868 -0.9837 -0.1320 -0.2915
24484SOL    HW178263   3.006   6.045   3.863 -1.3308  0.5417 -1.0705
24484SOL    HW278264   3.120   6.078   3.957 -2.9358  1.3317  0.6781
24485SOL     OW78265   6.594   4.720  12.584  0.0069 -0.5073 -0.0270
24485SOL    HW178266   6.660   4.730  12.651 -0.0407 -0.6433  0.0396
24485SOL    HW278267   6.632   4.659  12.521  0.0260 -0.4296 -0.0906
24486SOL     OW78268   2.975   5.552   7.161 -0.4077  0.1065 -0.1472
24486SOL    HW178269   2.893   5.504   7.158 -0.3867  0.0549  0.1302
24486SOL    HW278270   2.951   5.640   7.190 -0.3313  0.0212  0.1737
24487SOL     OW78271   8.235   6.689   3.152  0.0325  0.1915 -0.2320
24487SOL    HW178272   8.162   6.628   3.139  0.3187 -0.7441  2.1934
24487SOL    HW278273   8.198   6.760   3.204  0.5243  0.4123 -0.1813
24488SOL     OW78274   1.903  10.448   9.006 -0.0700  0.0524 -0.1160
24488SOL    HW178275   1.999  10.444   9.007 -0.0644  0.2207  0.0495
24488SOL    HW278276   1.878  10.445   9.098 -0.2798 -1.2454 -0.2006
24489SOL     OW78277   6.011   2.306  11.007  0.6917  0.0037  0.4976
24489SOL    HW178278   6.104   2.320  10.989  0.6362 -0.3683 -0.1157
24489SOL    HW278279   5.986   2.236  10.947 -0.3056  1.0051 -0.2892
24490SOL     OW78280   0.354   2.314   1.546 -0.1007 -0.1990  0.6969
24490SOL    HW178281   0.384   2.290   1.634  3.2008  1.6074  0.2058
24490SOL    HW278282   0.409   2.262   1.488 -0.7641  0.2053 -0.3050
24491SOL     OW78283  10.155   0.959   2.416 -0.6281  0.4313  0.5817
24491SOL    HW178284  10.238   0.913   2.425 -0.1253  1.3954  0.9515
24491SOL    HW278285  10.175   1.050   2.438 -2.0191  0.4609  1.9014
24492SOL     OW78286   9.772   7.537   9.741 -0.1233 -0.3126  0.4591
24492SOL    HW178287   9.787   7.450   9.706 -3.7463 -1.1082  0.4642
24492SOL    HW278288   9.782   7.596   9.666  0.7045 -0.9270  0.0803
24493SOL     OW78289  11.469   9.293   9.892 -0.3187 -0.0756  0.6597
24493SOL    HW178290  11.378   9.287   9.863 -0.0280  0.5465 -0.4602
24493SOL    HW278291  11.466   9.351   9.968 -0.8622 -0.0836  0.6510
24494SOL     OW78292   1.074   6.194   6.631 -0.0268  0.1358 -0.4381
24494SOL    HW178293   1.154   6.157   6.667 -1.8070 -0.4208  3.4066
24494SOL    HW278294   1.054   6.268   6.689 -2.5084 -0.0296 -0.9825
24495SOL     OW78295  11.900   1.795   8.605 -0.1316 -0.2833 -0.2971
24495SOL    HW178296  11.911   1.745   8.686  1.2430  2.1177  1.0995
24495SOL    HW278297  11.984   1.788   8.561 -0.8120 -1.4179 -1.4986
24496SOL     OW78298  10.486   6.288   5.573  0.4559  0.0991 -0.1549
24496SOL    HW178299  10.427   6.229   5.620  0.5701  0.2569  0.1877
24496SOL    HW278300  10.540   6.328   5.642  0.4488  0.5230 -0.3954
24497SOL     OW78301   2.667   5.360   4.553  0.0449  0.0500  0.4465
24497SOL    HW178302   2.705   5.318   4.630  3.4071  0.0770 -0.9973
24497SOL    HW278303   2.706   5.448   4.553 -3.1627  1.5988  0.8489
24498SOL     OW78304   7.003  11.863   7.570 -0.1784 -0.2192  0.6203
24498SOL    HW178305   6.965  11.938   7.526  0.0043 -0.0601  0.7310
24498SOL    HW278306   6.958  11.859   7.655 -2.8232 -2.3948 -0.7321
24499SOL     OW78307  10.926   4.008   5.983  0.3861 -0.7363 -0.0921
24499SOL    HW178308  10.882   3.962   5.912  0.8166 -0.9076 -0.2499
24499SOL    HW278309  11.010   3.964   5.992  0.3982 -0.6203  0.4226
24500SOL     OW78310   5.039   3.552   9.442 -0.3805  0.0017  0.2590
24500SOL    HW178311   5.023   3.480   9.503 -0.4131  0.2478  0.5433
24500SOL    HW278312   5.006   3.520   9.358  1.6458 -1.2011 -0.1474
24501SOL     OW78313   8.041   3.079   1.050  0.7402 -0.0902 -0.4261
24501SOL    HW178314   8.008   3.106   1.136  0.5142 -1.7263  0.0449
24501SOL    HW278315   8.113   3.139   1.031  0.4900  0.5835  0.6935
24502SOL     OW78316  12.059   5.990   6.227  0.4801 -1.0544 -0.6123
24502SOL    HW178317  11.969   6.022   6.227  0.7626 -0.2334 -1.2503
24502SOL    HW278318  12.050   5.895   6.228 -0.3886 -1.0859  3.3274
24503SOL     OW78319   3.760   1.745   6.590 -0.0062  0.1058 -0.4687
24503SOL    HW178320   3.668   1.749   6.563  0.0705 -0.8434 -0.9336
24503SOL    HW278321   3.776   1.828   6.635 -1.1877  0.1323 -0.0598
24504SOL     OW78322   2.976  11.871  11.482 -0.4014  0.3207  0.3026
24504SOL    HW178323   2.905  11.810  11.500  2.1834 -2.6454  1.3770
24504SOL    HW278324   2.953  11.911  11.398 -2.3048 -2.1177 -0.4433
24505SOL     OW78325   0.890   4.742   2.270 -0.1423 -0.1156  0.1289
24505SOL    HW178326   0.901   4.658   2.227  1.7658  0.6121 -0.9070
24505SOL    HW278327   0.978   4.770   2.294 -0.8895  0.8048  2.0449
24506SOL     OW78328   6.106   3.460   4.368 -0.7075  0.6425  0.2181
24506SOL    HW178329   6.026   3.506   4.392 -0.4616  0.6485  1.0586
24506SOL    HW278330   6.130   3.497   4.282 -1.3620  0.9473  0.1596
24507SOL     OW78331  12.022  11.918   5.169 -0.4965 -0.4146  0.3268
24507SOL    HW178332  12.019  11.876   5.255 -0.1641 -0.2794  0.4057
24507SOL    HW278333  12.052  11.849   5.109 -1.1676 -0.6340  0.2408
24508SOL     OW78334   6.356   4.546  10.550 -0.0298 -0.0074 -0.2677
24508SOL    HW178335   6.379   4.479  10.614 -1.4811 -0.0380  0.2588
24508SOL    HW278336   6.267   4.524  10.523 -0.2350  1.2326 -0.6914
24509SOL     OW78337   3.111   3.975   6.491 -0.1483 -1.0545 -0.2600
24509SOL    HW178338   3.201   4.007   6.489 -0.3070 -0.4551 -3.3437
24509SOL    HW278339   3.086   3.979   6.583  1.3144  3.5651  0.1940
24510SOL     OW78340  10.997   2.939   3.100  0.1569  0.2104  0.0975
24510SOL    HW178341  10.937   2.899   3.164 -2.7883  0.8238 -2.0984
24510SOL    HW278342  11.013   3.027   3.134  1.5098 -0.5887  1.6906
24511SOL     OW78343   1.238   8.590  10.107 -0.4438 -0.0155  0.1316
24511SOL    HW178344   1.247   8.665  10.165  2.0895  0.3076 -0.5786
24511SOL    HW278345   1.288   8.520  10.149 -1.4749 -0.8696  0.0112
24512SOL     OW78346   7.514   8.889   6.319  0.8479  0.1531  0.0748
24512SOL    HW178347   7.556   8.857   6.240  1.6443  0.5065  0.3389
24512SOL    HW278348   7.545   8.980   6.327 -0.2928  0.5567  0.0580
24513SOL     OW78349   9.016  10.610   7.099  0.1015  0.3328  1.3599
24513SOL    HW178350   9.105  10.636   7.123  0.7658 -0.7743  0.2259
24513SOL    HW278351   8.978  10.689   7.060  1.1115  0.4064  0.4946
24514SOL     OW78352   1.417   2.404   9.301 -0.8483 -0.3623 -0.2317
24514SOL    HW178353   1.373   2.488   9.288 -1.0986 -0.7334 -1.9425
24514SOL    HW278354   1.352   2.350   9.346 -1.7581 -0.5193 -1.6648
24515SOL     OW78355   3.981   2.194  12.217 -0.6760 -0.1515  0.2915
24515SOL    HW178356   3.969   2.289  12.223 -0.1848  0.0100 -0.9196
24515SOL    HW278357   4.002   2.178  12.125  3.2290 -0.9225  1.1089
24516SOL     OW78358   0.484   2.905   1.146  0.3335  0.3341  0.0910
24516SOL    HW178359   0.436   2.982   1.176 -0.1074 -0.5071  1.6313
24516SOL    HW278360   0.571   2.913   1.186  1.1014  1.1859 -1.6385
24517SOL     OW78361   9.908   2.886   3.336  0.0055 -0.2088 -0.4186
24517SOL    HW178362   9.827   2.838   3.318 -0.8922  1.8389 -2.1348
24517SOL    HW278363   9.977   2.819   3.330 -1.1227 -1.2650 -3.2828
24518SOL     OW78364   0.289  10.579  12.264 -0.2487  0.8310 -0.0821
24518SOL    HW178365   0.204  10.536  12.264  0.5919 -0.9320 -0.0585
24518SOL    HW278366   0.321  10.569  12.354  1.6392 -2.1690 -0.9385
24519SOL     OW78367  11.159  11.028  12.049  0.0233 -0.2435 -0.5635
24519SOL    HW178368  11.183  11.018  12.141  0.1796  1.5794 -0.3607
24519SOL    HW278369  11.233  10.990  12.001 -0.7408 -2.6319 -0.0082
24520SOL     OW78370   8.707  11.634   9.950  0.5693 -0.3570 -0.1783
24520SOL    HW178371   8.669  11.635   9.863  2.2846  0.7648 -0.9721
24520SOL    HW278372   8.681  11.718   9.988  0.2387 -0.6300  0.2038
24521SOL     OW78373  11.486   9.345   3.360 -0.5325  0.4438  0.1163
24521SOL    HW178374  11.497   9.428   3.313 -0.1034  1.0473  1.2372
24521SOL    HW278375  11.402   9.311   3.330  0.3627  0.0816 -2.1461
24522SOL     OW78376  11.502   9.041   6.854  0.0052  0.2444  0.0751
24522SOL    HW178377  11.534   9.124   6.820 -0.0095  0.0913 -0.3172
24522SOL    HW278378  11.552   9.027   6.934  1.2381 -0.1929 -0.7420
24523SOL     OW78379   4.229   4.653   2.652 -0.4853  0.2164  0.0012
24523SOL    HW178380   4.193   4.737   2.680 -0.0638  0.6620 -0.7232
24523SOL    HW278381   4.288   4.627   2.722  0.3276  1.1591 -0.3074
24524SOL     OW78382   7.325   0.363  12.306 -0.1843  0.0989  1.0032
24524SOL    HW178383   7.402   0.313  12.331 -0.8203 -0.2676  2.3443
24524SOL    HW278384   7.351   0.411  12.228  0.5917 -1.9335 -0.0434
24525SOL     OW78385   1.131   4.618   7.672  0.4011 -0.2205  0.1009
24525SOL    HW178386   1.214   4.601   7.627  0.6745  1.1177  0.0680
24525SOL    HW278387   1.096   4.531   7.691  0.7038 -0.8151 -1.9095
24526SOL     OW78388   8.093   7.739   2.474  0.3687  0.5087  0.5907
24526SOL    HW178389   8.083   7.726   2.568  0.2607 -0.9906  0.3914
24526SOL    HW278390   8.016   7.697   2.436  1.7711 -1.4157 -0.3069
24527SOL     OW78391   9.068   5.332   4.912 -0.1690  0.2315 -0.6207
24527SOL    HW178392   9.085   5.243   4.944 -0.7733 -0.3177 -1.7612
24527SOL    HW278393   9.026   5.376   4.985  0.2357 -0.3863  0.0007
24528SOL     OW78394   0.070   5.882   6.235  0.1330  0.2029  0.2014
24528SOL    HW178395   0.059   5.965   6.281 -1.1928 -0.6636  1.5735
24528SOL    HW278396   0.162   5.880   6.209  0.2207  2.0015  0.2948
24529SOL     OW78397   1.438   8.240  11.396  0.3171  0.4428  0.0599
24529SOL    HW178398   1.347   8.211  11.391  0.4995 -0.2163  0.4911
24529SOL    HW278399   1.483   8.189  11.329  0.8289 -1.0410  1.4753
24530SOL     OW78400   4.082   1.798   7.625 -0.0464  0.0128 -0.0936
24530SOL    HW178401   4.100   1.759   7.710 -2.8530  0.2768  0.7249
24530SOL    HW278402   4.109   1.890   7.634 -0.6778  0.1325  0.6719
24531SOL     OW78403  12.075  11.243   0.288  0.4555 -0.4109 -0.7887
24531SOL    HW178404  12.116  11.191   0.219 -1.0989 -1.8536 -0.7083
24531SOL    HW278405  11.982  11.218   0.283  0.3019 -0.5321  1.7916
24532SOL     OW78406   5.291   6.608   5.311  0.3751 -0.1786 -0.3501
24532SOL    HW178407   5.315   6.517   5.292 -0.2319 -0.1684 -1.2108
24532SOL    HW278408   5.369   6.644   5.354  0.3937 -1.2694  0.5933
24533SOL     OW78409   8.732  11.115   7.312  0.5365  0.2800 -0.1424
24533SOL    HW178410   8.659  11.165   7.350  1.7509  2.0571 -0.0244
24533SOL    HW278411   8.691  11.060   7.246 -0.9802  0.8328  0.2950
24534SOL     OW78412   7.165   1.476   4.990 -0.5533  0.3375  0.2200
24534SOL    HW178413   7.244   1.518   4.958 -0.9221  0.5114 -0.4765
24534SOL    HW278414   7.148   1.518   5.075 -0.9914  1.6951 -0.5181
24535SOL     OW78415  11.995  12.026   4.691  0.2381 -0.4499 -0.4514
24535SOL    HW178416  12.016  12.105   4.741 -0.8518  0.5120 -1.4393
24535SOL    HW278417  12.037  11.955   4.739 -0.2038  0.5001  1.4514
24536SOL     OW78418   9.452  12.105  11.605  0.2548 -0.1763  0.1296
24536SOL    HW178419   9.429  12.174  11.667  0.9160 -1.3086  1.7353
24536SOL    HW278420   9.380  12.041  11.613  0.9101 -0.8727  0.6381
24537SOL     OW78421   6.318  11.007   9.558 -0.5918 -0.2688  0.3694
24537SOL    HW178422   6.283  11.078   9.504 -0.0571  0.4239  0.9138
24537SOL    HW278423   6.353  10.944   9.495 -1.2399 -0.1478 -0.1266
24538SOL     OW78424   7.047   2.455  10.495  0.2623  0.2258 -0.0435
24538SOL    HW178425   7.009   2.369  10.475  2.0462 -0.6998  0.3840
24538SOL    HW278426   7.089   2.444  10.580 -0.3583  1.8428  0.5134
24539SOL     OW78427   7.694  10.993   6.845 -0.3893  0.3056 -0.1753
24539SOL    HW178428   7.783  10.994   6.808 -1.1713  0.7589 -2.1308
24539SOL    HW278429   7.690  11.070   6.901 -0.0936  1.2960 -1.4826
24540SOL     OW78430   7.985   7.541   4.873  0.2492 -0.0582 -0.0182
24540SOL    HW178431   7.948   7.503   4.952  1.0176  0.1839  0.4724
24540SOL    HW278432   8.064   7.489   4.857 -0.0484 -0.2852 -0.7892
24541SOL     OW78433   6.365   1.926   0.121  0.0759 -0.1179  0.1193
24541SOL    HW178434   6.291   1.986   0.116  2.2839  2.9794  1.4602
24541SOL    HW278435   6.344   1.857   0.058 -2.4155  2.2962 -1.9493
24542SOL     OW78436   9.707   5.033   2.337 -0.3008 -0.1688 -0.0917
24542SOL    HW178437   9.677   5.114   2.379  1.2281  0.6934 -0.5793
24542SOL    HW278438   9.627   4.991   2.306 -1.0524  1.7846 -0.9625
24543SOL     OW78439  11.569   3.641  12.626 -0.1162  0.7445 -0.2887
24543SOL    HW178440  11.652   3.597  12.644 -0.5223 -0.0539 -0.3125
24543SOL    HW278441  11.527   3.649  12.712 -1.3578 -1.6503 -0.5817
24544SOL     OW78442   3.525   9.734   7.192  0.1250  0.4926  0.3501
24544SOL    HW178443   3.499   9.811   7.242  3.1437  1.1634  1.0586
24544SOL    HW278444   3.618   9.746   7.176 -0.1160 -1.1468 -2.9735
24545SOL     OW78445   5.164   0.170   8.126  0.6567  0.0684 -0.2781
24545SOL    HW178446   5.141   0.130   8.210  0.0868 -0.4920 -0.6876
24545SOL    HW278447   5.148   0.264   8.139  1.2126  0.0672  0.4405
24546SOL     OW78448   6.568   0.798  10.417  0.2615 -0.0755  0.4794
24546SOL    HW178449   6.504   0.847  10.468  1.4427 -0.2510  2.2248
24546SOL    HW278450   6.526   0.714  10.399 -0.3684  0.1893  0.7018
24547SOL     OW78451   3.429   7.622   8.342  0.0830  0.2471 -0.1840
24547SOL    HW178452   3.519   7.643   8.317 -0.2566  0.8084 -0.9560
24547SOL    HW278453   3.409   7.683   8.413 -0.0158  0.7754 -0.6650
24548SOL     OW78454   4.865   3.875   9.071 -0.1412 -0.3105 -0.6389
24548SOL    HW178455   4.829   3.963   9.083  0.3226 -0.1482 -0.3801
24548SOL    HW278456   4.903   3.853   9.157  0.5615 -0.3839 -0.9599
24549SOL     OW78457   8.880   3.143   6.202 -0.1334 -0.3181 -0.7890
24549SOL    HW178458   8.962   3.179   6.234 -0.1216 -1.0620  0.0618
24549SOL    HW278459   8.904   3.095   6.123  0.2171 -0.3685 -0.6534
24550SOL     OW78460  10.618   6.551   7.624  0.1060 -0.4334  0.0103
24550SOL    HW178461  10.546   6.611   7.645  0.0142 -0.4751 -0.1871
24550SOL    HW278462  10.622   6.551   7.528 -0.0559 -0.9387  0.0014
24551SOL     OW78463  12.210   0.518   9.228  0.4635 -0.1603 -0.2808
24551SOL    HW178464  12.179   0.581   9.293  2.1143  1.1979 -0.7326
24551SOL    HW278465  12.135   0.506   9.169 -0.1388  0.7446  0.2677
24552SOL     OW78466   9.986   4.280   1.482 -0.2439 -0.5074 -0.1447
24552SOL    HW178467  10.025   4.199   1.516 -1.3873 -0.8501  0.4144
24552SOL    HW278468  10.013   4.348   1.544  1.7331 -0.1858 -1.2702
24553SOL     OW78469   2.327  11.373   5.817 -0.0553 -0.2552  0.7439
24553SOL    HW178470   2.322  11.306   5.886  0.6394 -1.9466 -0.7644
24553SOL    HW278471   2.421  11.384   5.802 -0.1515 -2.0892 -1.8594
24554SOL     OW78472   2.103   6.079   0.509  0.6708  0.1863 -0.0072
24554SOL    HW178473   2.155   6.155   0.535  2.8831 -0.5456 -1.9619
24554SOL    HW278474   2.136   6.008   0.564 -1.1332  0.4661  1.5481
24555SOL     OW78475  12.452   9.997  11.873 -0.0015  0.1242 -0.5357
24555SOL    HW178476  12.424   9.905  11.873  0.6217 -0.0903  1.0252
24555SOL    HW278477  12.491  10.011  11.959  1.4505  1.4017 -1.3513
24556SOL     OW78478   5.931   6.522   5.962  0.3037 -0.1086  0.3680
24556SOL    HW178479   5.876   6.490   6.034 -0.9034  0.9824 -0.0205
24556SOL    HW278480   6.004   6.460   5.958 -0.8484 -1.5924  0.9696
24557SOL     OW78481   4.918   1.533   2.374  0.5732 -0.1298  0.1144
24557SOL    HW178482   4.986   1.467   2.363 -0.4746 -1.0192 -1.4160
24557SOL    HW278483   4.899   1.563   2.286 -2.1349 -1.1020  0.2694
24558SOL     OW78484   4.802   2.509   2.975  0.2220  0.2155 -0.3539
24558SOL    HW178485   4.727   2.549   3.020 -0.2276  0.0520 -0.9378
24558SOL    HW278486   4.877   2.528   3.032 -0.2345  0.5183  0.1640
24559SOL     OW78487   9.215   7.409   1.146  0.0702  0.0098 -0.6512
24559SOL    HW178488   9.137   7.457   1.120 -0.2546 -0.4562 -0.5579
24559SOL    HW278489   9.188   7.317   1.145  0.1158 -0.0547  1.0538
24560SOL     OW78490   5.802   3.126   8.993  0.2406 -0.5152  0.6632
24560SOL    HW178491   5.711   3.098   8.997  0.3251 -0.6756  1.8452
24560SOL    HW278492   5.809   3.175   8.911 -1.0215 -0.1162  0.7765
24561SOL     OW78493   6.495   1.669   8.921  0.1358 -0.1769  0.5471
24561SOL    HW178494   6.476   1.629   8.836  2.1179 -0.6660  0.2869
24561SOL    HW278495   6.580   1.634   8.946  1.1417  2.4933  1.1901
24562SOL     OW78496   9.613   7.797   7.465 -0.1452 -0.1889 -0.2212
24562SOL    HW178497   9.598   7.720   7.410 -0.2983  0.8845 -1.7295
24562SOL    HW278498   9.708   7.799   7.478 -0.2185 -1.1043  0.5676
24563SOL     OW78499   6.831   8.097   1.702 -0.7144 -0.1205 -0.1171
24563SOL    HW178500   6.911   8.148   1.690 -1.7735  1.4362 -0.9205
24563SOL    HW278501   6.859   8.020   1.751  1.3648  0.1039 -0.8468
24564SOL     OW78502   8.900   6.989  10.818  0.2105 -0.4554  0.3004
24564SOL    HW178503   8.849   6.993  10.737  2.5284 -0.9624 -1.2583
24564SOL    HW278504   8.842   7.027  10.884 -1.6176  0.3209 -1.6299
24565SOL     OW78505   0.017   9.724  10.747  0.3235  0.5126 -0.2075
24565SOL    HW178506  -0.056   9.786  10.747 -1.7915 -1.6955  2.4998
24565SOL    HW278507   0.085   9.767  10.800 -0.4350  1.1795  0.2439
24566SOL     OW78508   9.616   7.993   0.170  0.3245 -0.4541  0.5199
24566SOL    HW178509   9.624   8.058   0.100  0.1137 -0.2672  0.6671
24566SOL    HW278510   9.662   8.032   0.244 -0.0085 -0.3644  0.6821
24567SOL     OW78511  11.968   5.892  12.310 -0.2616 -0.4081 -0.0951
24567SOL    HW178512  11.921   5.954  12.254 -1.0100 -0.6922  0.2059
24567SOL    HW278513  11.958   5.928  12.398  0.4753 -0.2362 -0.0727
24568SOL     OW78514  12.145   5.065  11.967  0.3044 -0.0633  0.6992
24568SOL    HW178515  12.103   5.141  11.925 -0.5220 -1.8928 -2.1347
24568SOL    HW278516  12.232   5.095  11.990 -0.7571  2.3745  1.8878
24569SOL     OW78517   3.919  10.918   2.296  0.0840 -0.1852  0.2636
24569SOL    HW178518   3.928  10.981   2.224 -1.5896 -1.2997 -0.9953
24569SOL    HW278519   3.993  10.858   2.284 -1.7126 -2.1045 -2.4677
24570SOL     OW78520   4.337   5.425  10.877 -0.0087 -0.5746  0.1190
24570SOL    HW178521   4.418   5.381  10.901  1.3437  1.5768 -0.2174
24570SOL    HW278522   4.353   5.459  10.789 -0.1978  2.1463  1.0388
24571SOL     OW78523   8.897   2.347   6.721  0.0726 -0.8689 -0.0070
24571SOL    HW178524   8.875   2.424   6.668  0.4348 -1.0400 -0.4060
24571SOL    HW278525   8.970   2.376   6.776 -0.1371 -0.7686  0.2205
24572SOL     OW78526   3.155   7.072   9.937  0.0978  0.0359 -0.5533
24572SOL    HW178527   3.104   7.034  10.009 -1.1942 -0.3844 -1.6506
24572SOL    HW278528   3.184   7.157   9.971 -1.2709  0.2500  0.1577
24573SOL     OW78529   1.829   9.051   5.675 -0.6219  0.2301 -0.2786
24573SOL    HW178530   1.783   8.968   5.671 -0.7483  0.2697  0.3132
24573SOL    HW278531   1.916   9.032   5.640 -0.9350  0.0580 -0.9889
24574SOL     OW78532  11.951   7.345  12.431  0.8875  0.1547 -0.6474
24574SOL    HW178533  11.977   7.435  12.411  0.9027 -0.1804 -2.2769
24574SOL    HW278534  11.950   7.301  12.346  0.8130 -1.3723  0.1088
24575SOL     OW78535   1.459  11.381  11.279 -0.1410 -0.1133  0.0382
24575SOL    HW178536   1.498  11.337  11.204  0.7844 -1.2494  1.1420
24575SOL    HW278537   1.532  11.401  11.337 -0.9268 -0.0477  1.0372
24576SOL     OW78538   6.392   0.486   2.509  0.0640  0.4787 -0.1984
24576SOL    HW178539   6.431   0.398   2.511  0.5222  0.6854  1.2242
24576SOL    HW278540   6.454   0.539   2.460  0.8973  0.4807  0.8220
24577SOL     OW78541  11.663   2.824   6.452  0.2424 -0.5409  0.3134
24577SOL    HW178542  11.718   2.796   6.524 -0.4958 -0.8480  0.7670
24577SOL    HW278543  11.662   2.750   6.392  1.6214  0.0594 -0.4877
24578SOL     OW78544   9.579   1.825   9.646 -0.4981  0.0097  0.4701
24578SOL    HW178545   9.660   1.775   9.642 -0.9991 -0.8041  0.1976
24578SOL    HW278546   9.596   1.894   9.711  0.7377  0.4845 -0.3190
24579SOL     OW78547   0.778  11.715   3.725 -0.5478 -0.2481  0.0097
24579SOL    HW178548   0.773  11.620   3.715  0.0881 -0.3302  0.3980
24579SOL    HW278549   0.867  11.737   3.697 -0.8376  0.2890 -0.4982
24580SOL     OW78550  10.181  11.304   5.473  0.1156  0.0494 -0.1394
24580SOL    HW178551  10.124  11.240   5.431 -1.1911  0.1545  1.3885
24580SOL    HW278552  10.243  11.251   5.523  0.0030 -0.0486 -0.1009
24581SOL     OW78553   5.951   5.099   1.054 -0.4765  0.1209  0.0412
24581SOL    HW178554   6.046   5.098   1.049 -0.4571 -1.8888 -0.1556
24581SOL    HW278555   5.931   5.093   1.147 -0.3752 -1.1064 -0.0063
24582SOL     OW78556  10.280  11.309   3.735 -0.1364  0.2406 -0.0108
24582SOL    HW178557  10.362  11.270   3.706 -0.1096 -0.0701  0.4674
24582SOL    HW278558  10.242  11.347   3.656  0.8115  1.0367 -0.1056
24583SOL     OW78559   4.793   9.880   1.665  0.0205  0.0075 -0.2352
24583SOL    HW178560   4.738   9.808   1.635 -0.3376 -0.6597  1.8438
24583SOL    HW278561   4.866   9.838   1.709 -0.1974  0.8820  1.0277
24584SOL     OW78562   4.828  11.148   5.171  0.1820  0.1068 -0.2393
24584SOL    HW178563   4.898  11.189   5.121 -0.5830  2.3733  0.3898
24584SOL    HW278564   4.817  11.061   5.133  3.2122 -0.2907 -0.4207
24585SOL     OW78565  12.639  11.317   4.667  1.0397  0.6380 -0.1973
24585SOL    HW178566  12.676  11.358   4.589  0.4872 -2.1294 -2.0614
24585SOL    HW278567  12.583  11.385   4.705  1.4191  2.1234 -2.1155
24586SOL     OW78568  10.741   5.761   8.729 -0.1040  0.4293  0.1176
24586SOL    HW178569  10.821   5.809   8.709 -0.9608  1.8435 -0.0334
24586SOL    HW278570  10.753   5.676   8.686  1.2022  0.7102 -0.1107
24587SOL     OW78571   7.497  12.072   1.364  0.0997 -0.1093  0.4434
24587SOL    HW178572   7.539  11.986   1.361 -0.0713 -0.2177  1.0037
24587SOL    HW278573   7.462  12.078   1.453  0.9194  0.9138  0.7124
24588SOL     OW78574  11.223   3.208   2.959  0.3038 -0.2482  0.0833
24588SOL    HW178575  11.235   3.126   2.910  3.1727 -0.6584  1.2742
24588SOL    HW278576  11.299   3.262   2.934 -0.5647  1.3359  0.7032
24589SOL     OW78577   5.980   4.403  10.758  0.3201 -0.7235 -0.5358
24589SOL    HW178578   6.013   4.454  10.832  0.2831 -0.4322 -0.7173
24589SOL    HW278579   5.887   4.390  10.777 -0.0988  0.8524 -1.3620
24590SOL     OW78580   7.523   3.336   9.451  0.0989  0.0654 -0.0679
24590SOL    HW178581   7.559   3.259   9.407 -3.3889 -1.1517 -1.0572
24590SOL    HW278582   7.563   3.334   9.538  2.2989 -1.1140 -1.0064
24591SOL     OW78583  11.442  10.614   8.384 -0.0136  0.0118  0.0186
24591SOL    HW178584  11.355  10.653   8.375 -0.7066 -1.8312 -2.5823
24591SOL    HW278585  11.499  10.686   8.412 -2.0943  1.5780  0.4354
24592SOL     OW78586   0.490   1.427  10.101 -0.2448 -1.0378  0.2943
24592SOL    HW178587   0.417   1.404  10.043 -0.4782 -0.8834  0.5227
24592SOL    HW278588   0.456   1.411  10.189 -0.9227  1.5424  0.5681
24593SOL     OW78589   4.258   4.283   6.611  0.1506 -0.1280  0.1194
24593SOL    HW178590   4.238   4.312   6.700 -0.7417  0.2478 -0.1865
24593SOL    HW278591   4.288   4.193   6.621  0.0780 -0.0825  0.8051
24594SOL     OW78592   5.275   9.071  10.641 -0.0274  0.5514 -0.1733
24594SOL    HW178593   5.219   9.098  10.713 -0.3465  0.6382 -0.4536
24594SOL    HW278594   5.344   9.137  10.638  1.2026 -0.5514  1.3887
24595SOL     OW78595   7.020   2.531   0.296 -0.3665 -0.0694 -0.4345
24595SOL    HW178596   6.945   2.481   0.327  0.0243 -0.3937  0.0067
24595SOL    HW278597   6.995   2.561   0.209 -1.0554 -0.0637 -0.2350
24596SOL     OW78598   2.920   3.055   8.312  0.2042  0.3701  0.4721
24596SOL    HW178599   2.825   3.052   8.300  0.0232 -0.5860  1.8652
24596SOL    HW278600   2.942   3.147   8.300 -0.7891  0.4980 -0.5603
24597SOL     OW78601   5.754   6.705  12.363 -0.1385  0.1356  0.1648
24597SOL    HW178602   5.773   6.731  12.273  1.7598 -0.2163  0.4211
24597SOL    HW278603   5.664   6.735  12.379 -0.0011  1.4509 -1.3678
24598SOL     OW78604   4.163   7.798   8.175  0.3978 -0.2036  0.3031
24598SOL    HW178605   4.108   7.724   8.201 -1.5497  1.0596  0.0484
24598SOL    HW278606   4.252   7.768   8.189 -0.3003 -2.6832 -0.0516
24599SOL     OW78607   1.596  12.240  10.262  0.2172  0.2611  0.0862
24599SOL    HW178608   1.548  12.322  10.270 -0.7617 -0.3218  0.3902
24599SOL    HW278609   1.624  12.237  10.170 -0.0881  0.7453 -0.0231
24600SOL     OW78610   8.072   3.570   2.468 -0.4827  0.5203  0.0586
24600SOL    HW178611   8.147   3.558   2.527  0.2471 -0.4756 -1.0240
24600SOL    HW278612   7.996   3.551   2.523  0.1021  0.8169  0.9954
24601SOL     OW78613   3.508   9.782   5.285 -0.0746  0.4653  0.6140
24601SOL    HW178614   3.419   9.750   5.274  0.1465 -0.1629  0.5423
24601SOL    HW278615   3.528   9.826   5.203 -0.7340  1.6904  1.0968
24602SOL     OW78616  11.785  12.590   8.947  0.4265 -0.2650 -0.7734
24602SOL    HW178617  11.754  12.500   8.940  0.1311 -0.4732  2.0466
24602SOL    HW278618  11.722  12.633   9.005  0.6041  1.7654 -1.9681
24603SOL     OW78619   7.335  11.081   4.992  0.8394  0.4934  0.8264
24603SOL    HW178620   7.308  11.124   5.072  1.0599  0.2705  1.0228
24603SOL    HW278621   7.431  11.074   4.999  0.6351 -2.2034  1.9242
24604SOL     OW78622   4.931   0.145   3.009 -0.0342 -0.1385 -0.0666
24604SOL    HW178623   4.921   0.240   3.019  0.9234 -0.1223  0.9327
24604SOL    HW278624   4.875   0.108   3.077  1.1144 -0.2181  0.8670
24605SOL     OW78625   0.784   6.105   0.216  0.3058  0.1558 -0.3057
24605SOL    HW178626   0.873   6.071   0.212  0.6408  1.0190 -0.4416
24605SOL    HW278627   0.742   6.056   0.287  0.9757 -0.0545 -0.0496
24606SOL     OW78628   2.601   3.604  11.640  0.6998 -0.2801  0.1063
24606SOL    HW178629   2.514   3.566  11.628  0.8963 -0.7554  0.1783
24606SOL    HW278630   2.618   3.651  11.558  0.1941  0.1906  0.2615
24607SOL     OW78631  10.138   3.644   0.385 -0.0658  0.5994 -0.1371
24607SOL    HW178632  10.051   3.683   0.393  0.1408  0.8907  0.8923
24607SOL    HW278633  10.172   3.645   0.474  2.2481  3.3972 -0.8873
24608SOL     OW78634   3.755   5.012   8.117 -0.3432 -0.0279 -0.0644
24608SOL    HW178635   3.718   4.943   8.062 -0.7658 -1.5991  2.0944
24608SOL    HW278636   3.847   4.988   8.126 -0.5840 -0.5733  1.0370
24609SOL     OW78637   0.481   4.095   3.734  0.1542 -0.4758  0.3804
24609SOL    HW178638   0.444   4.162   3.791 -0.3963 -0.7486  0.3500
24609SOL    HW278639   0.516   4.029   3.794  0.8291 -0.0988  0.4125
24610SOL     OW78640   5.667  11.616  12.580 -0.1855  0.3385  0.2641
24610SOL    HW178641   5.762  11.617  12.573 -0.2548  0.3599 -0.8483
24610SOL    HW278642   5.638  11.692  12.529 -0.7176  1.7999  2.5856
24611SOL     OW78643  11.736   5.898  10.492  0.0695  0.4711  0.0332
24611SOL    HW178644  11.813   5.842  10.499 -1.0070 -1.0808 -0.1052
24611SOL    HW278645  11.722   5.909  10.398  0.5188  1.3330  0.0603
24612SOL     OW78646   4.338   2.221   9.525 -0.0951  0.0229 -0.1255
24612SOL    HW178647   4.432   2.220   9.545 -0.4357  1.6036  1.8714
24612SOL    HW278648   4.328   2.291   9.461 -0.0731  0.9751  0.8781
24613SOL     OW78649   3.433   7.385   4.866 -1.0275 -0.1495 -0.1297
24613SOL    HW178650   3.352   7.373   4.817 -1.4961 -0.5174  0.7034
24613SOL    HW278651   3.408   7.368   4.957  0.0182 -0.4206  0.1174
24614SOL     OW78652  10.005   8.558   4.224 -0.0140 -0.3230  0.3886
24614SOL    HW178653   9.951   8.597   4.293 -2.6740 -1.6158 -0.8253
24614SOL    HW278654  10.088   8.604   4.230 -1.5467  2.5149  1.7584
24615SOL     OW78655   2.780   6.184   6.449 -0.2113 -0.0439 -0.2173
24615SOL    HW178656   2.771   6.092   6.475 -1.6629 -0.3453 -1.5914
24615SOL    HW278657   2.706   6.199   6.391  1.4491  1.2549 -2.1230
24616SOL     OW78658   7.846  12.047   2.387  0.1637 -0.3017  0.5978
24616SOL    HW178659   7.794  12.014   2.314 -0.4046  2.7456 -0.5454
24616SOL    HW278660   7.936  12.025   2.365 -0.0919 -0.1699 -0.6430
24617SOL     OW78661   7.948   4.066   9.085 -0.0117  0.1821  0.2139
24617SOL    HW178662   7.908   4.152   9.096 -0.2598  0.1132 -0.1575
24617SOL    HW278663   8.041   4.081   9.103  0.3523  1.0035 -2.0863
24618SOL     OW78664  11.307   3.697   0.518  0.3260  0.1519  0.1109
24618SOL    HW178665  11.247   3.623   0.508 -1.6918  1.8507 -1.0751
24618SOL    HW278666  11.335   3.694   0.609 -1.5078 -0.7718  0.6821
24619SOL     OW78667   1.673   4.329   9.256  0.1424  0.4014  0.1480
24619SOL    HW178668   1.628   4.342   9.340  0.2027  0.3332  0.1910
24619SOL    HW278669   1.619   4.374   9.192 -1.2676 -1.6479 -0.1903
24620SOL     OW78670   4.784   2.349  10.583 -0.9393 -0.2322  0.3599
24620SOL    HW178671   4.704   2.318  10.627 -0.9892 -1.4565 -0.5519
24620SOL    HW278672   4.798   2.286  10.513 -0.2600  1.0926 -0.7224
24621SOL     OW78673   5.948   4.802   1.446 -0.3609  0.5950 -0.4971
24621SOL    HW178674   5.977   4.751   1.371 -2.1888  0.5748 -1.2341
24621SOL    HW278675   5.857   4.777   1.458 -0.4195  1.4226  1.0608
24622SOL     OW78676   1.651   0.711  11.750 -0.1952  0.5993  0.2877
24622SOL    HW178677   1.678   0.619  11.743 -1.5575  0.2084 -0.3381
24622SOL    HW278678   1.655   0.744  11.660  0.2477  1.1509  0.5048
24623SOL     OW78679  10.987  12.205   2.532  0.3821 -0.1251  0.1709
24623SOL    HW178680  10.965  12.159   2.613  1.7271 -1.1250  0.0010
24623SOL    HW278681  10.905  12.206   2.483 -0.2045 -0.3939  1.1137
24624SOL     OW78682  12.275  10.016   9.431 -0.4711 -0.6355  0.3863
24624SOL    HW178683  12.232  10.027   9.346  0.2511 -0.2375  0.0633
24624SOL    HW278684  12.210  10.047   9.495 -0.3280  0.8728 -0.1599
24625SOL     OW78685   1.432   8.073  10.555  0.3604 -0.7195 -0.3965
24625SOL    HW178686   1.355   8.038  10.599 -0.0725  0.1987 -0.3910
24625SOL    HW278687   1.429   8.036  10.467 -0.6106  0.0137 -0.6913
24626SOL     OW78688   2.186  12.227   1.602  0.6964  0.2907 -0.3222
24626SOL    HW178689   2.275  12.195   1.615  1.3785  1.6965 -1.2422
24626SOL    HW278690   2.159  12.192   1.517 -0.0248 -0.9053  0.3677
24627SOL     OW78691   3.455   7.172  10.226 -0.3313 -0.5591 -0.1870
24627SOL    HW178692   3.450   7.145  10.318 -0.5879 -0.3294 -0.1313
24627SOL    HW278693   3.510   7.105  10.184 -0.9652 -1.1761 -0.0561
24628SOL     OW78694   2.944   5.252   0.320 -0.1387  0.1193 -0.4168
24628SOL    HW178695   3.017   5.219   0.268  0.8715 -0.0940  1.0773
24628SOL    HW278696   2.884   5.179   0.327 -0.3114  0.1660 -1.3053
24629SOL     OW78697   7.832   3.949   5.428 -0.1864 -0.2806  0.4847
24629SOL    HW178698   7.818   3.896   5.350  1.1798  1.9620 -1.4197
24629SOL    HW278699   7.750   3.998   5.439 -0.3482 -0.5374  0.4447
24630SOL     OW78700  11.797   4.080   8.819 -0.0200 -0.2748  0.4927
24630SOL    HW178701  11.741   4.044   8.750 -0.0530  1.2463 -0.3210
24630SOL    HW278702  11.787   4.175   8.811  1.3621 -0.0173  1.4435
24631SOL     OW78703  10.652   2.808   0.021 -0.0233  0.4122  0.1795
24631SOL    HW178704  10.567   2.773  -0.008  0.0437  0.8815 -0.6037
24631SOL    HW278705  10.636   2.901   0.033 -0.6361 -0.0146  3.8499
24632SOL     OW78706  12.228   8.550   3.326 -0.1138  0.4687  0.2866
24632SOL    HW178707  12.320   8.555   3.350 -0.3221  1.7468  0.8789
24632SOL    HW278708  12.185   8.510   3.402  0.2835 -2.8938 -1.0533
24633SOL     OW78709   7.628   7.778   0.792  0.6060  0.5915 -0.2772
24633SOL    HW178710   7.600   7.687   0.803  2.5200  0.1382  1.4983
24633SOL    HW278711   7.556   7.820   0.746 -0.5205 -1.7172 -0.7455
24634SOL     OW78712  10.179   7.284   4.090  0.7101  0.1698 -0.0231
24634SOL    HW178713  10.236   7.210   4.111  1.1672  0.6964  0.6342
24634SOL    HW278714  10.096   7.263   4.134  1.1280  0.4606  0.9353
24635SOL     OW78715   4.387   0.913   5.995  0.0549  0.6707 -0.0636
24635SOL    HW178716   4.301   0.886   5.963  0.4954 -0.7882 -0.0949
24635SOL    HW278717   4.390   1.007   5.980 -1.4217  0.7024 -0.3180
24636SOL     OW78718   5.461  11.038   5.157  0.4173  0.0543  0.0099
24636SOL    HW178719   5.436  10.997   5.240  1.2292 -0.4645  0.0140
24636SOL    HW278720   5.489  11.126   5.181  1.2610 -0.3059  0.3888
24637SOL     OW78721   4.380   2.928   4.090  0.6054  0.1445 -0.0810
24637SOL    HW178722   4.328   3.006   4.071 -0.7096  0.0828  2.7167
24637SOL    HW278723   4.419   2.945   4.175  1.7135 -1.5755 -0.1939
24638SOL     OW78724   6.061   6.968   9.631 -0.1347  0.1822  0.4741
24638SOL    HW178725   6.087   6.912   9.704  0.7541  0.1528  0.1501
24638SOL    HW278726   5.983   6.926   9.595  0.9679 -1.3218 -0.2592
24639SOL     OW78727   4.805   4.935  12.016  0.3191 -0.1792  0.0612
24639SOL    HW178728   4.831   4.848  11.986 -0.5103 -0.6050  0.5205
24639SOL    HW278729   4.737   4.918  12.082  0.7667  0.7846  0.8030
24640SOL     OW78730  11.307  10.793   7.598 -0.2977 -0.0532 -0.3613
24640SOL    HW178731  11.400  10.775   7.582  0.3079  1.2657  1.4090
24640SOL    HW278732  11.303  10.822   7.689 -2.0845  2.1859 -1.0556
24641SOL     OW78733  11.703   5.735   8.524  0.1441 -0.0433 -0.7056
24641SOL    HW178734  11.727   5.644   8.506  0.3017  0.2052 -1.7797
24641SOL    HW278735  11.749   5.755   8.606 -0.8804 -1.3023  0.2273
24642SOL     OW78736   0.945   4.398   3.520  0.6135  0.1700 -0.3584
24642SOL    HW178737   0.850   4.385   3.520  0.4888  0.9248 -1.7785
24642SOL    HW278738   0.967   4.404   3.613 -0.6995 -0.1628  0.0087
24643SOL     OW78739   2.296   5.141  10.194  0.1602  0.2219 -0.1152
24643SOL    HW178740   2.387   5.151  10.165  0.4079 -2.0478 -0.2713
24643SOL    HW278741   2.251   5.216  10.155  1.9393  1.4132 -0.0299
24644SOL     OW78742   5.441   3.755   0.820 -0.0764  0.0530 -0.5444
24644SOL    HW178743   5.444   3.684   0.885 -0.8155  0.8187  0.3454
24644SOL    HW278744   5.533   3.780   0.809  0.2550 -1.3081 -1.2089
24645SOL     OW78745  10.338   4.195   2.201  0.2679 -0.0161  0.0613
24645SOL    HW178746  10.425   4.227   2.225 -0.6595  2.4474  0.4567
24645SOL    HW278747  10.307   4.150   2.280  1.3353 -1.3563 -0.2528
24646SOL     OW78748   9.618   9.445   5.714 -0.2590  0.5884 -0.1422
24646SOL    HW178749   9.617   9.450   5.809  0.8777 -0.6968 -0.0390
24646SOL    HW278750   9.709   9.462   5.690 -0.1233 -0.9303 -0.8468
24647SOL     OW78751   3.663   2.848   6.072  0.0081  0.4969 -0.4465
24647SOL    HW178752   3.614   2.847   6.155  1.7581 -0.3905  0.6400
24647SOL    HW278753   3.605   2.892   6.010 -1.1220  1.7604  1.4063
24648SOL     OW78754  12.518   3.216   4.586  0.5678 -0.1992  0.4520
24648SOL    HW178755  12.426   3.238   4.571  0.6160 -1.1010 -1.4953
24648SOL    HW278756  12.516   3.136   4.639  0.1933 -0.5513 -0.0827
24649SOL     OW78757  11.736   5.738  12.639 -0.2450  0.5305 -0.1102
24649SOL    HW178758  11.645   5.714  12.621 -0.8028  1.7202  0.8889
24649SOL    HW278759  11.759   5.687  12.717 -0.8563  1.8660  0.9924
24650SOL     OW78760   0.072   5.178   7.869 -0.0326 -0.3509 -0.1034
24650SOL    HW178761   0.036   5.146   7.951 -2.0441 -2.1467 -1.5801
24650SOL    HW278762   0.133   5.109   7.840 -0.0194 -0.1577 -0.5514
24651SOL     OW78763   1.722   9.433   1.994 -0.0148  0.3290 -0.5364
24651SOL    HW178764   1.635   9.396   1.977  1.4751 -2.7142 -2.4158
24651SOL    HW278765   1.782   9.370   1.955  3.2300  0.8658  3.1018
24652SOL     OW78766   5.029   8.461   1.235  0.4348  0.3077 -0.3121
24652SOL    HW178767   5.041   8.448   1.329  2.2346  0.1020 -0.5364
24652SOL    HW278768   4.944   8.504   1.228  1.0035  1.8918  1.5545
24653SOL     OW78769   6.990   5.277   1.414  0.3349 -0.4353  0.3898
24653SOL    HW178770   7.050   5.203   1.416  1.2622  0.2806 -0.1274
24653SOL    HW278771   6.926   5.258   1.482  0.7842 -1.5147  0.5341
24654SOL     OW78772   9.974   6.423   6.070  0.2936 -0.1473 -0.0813
24654SOL    HW178773   9.893   6.379   6.095 -0.0538  0.0616 -0.8020
24654SOL    HW278774   9.963   6.513   6.101 -1.3083  0.8810 -3.1843
24655SOL     OW78775   4.561   1.069  11.443 -0.0914 -0.6065 -0.1819
24655SOL    HW178776   4.499   1.131  11.482 -1.8044 -1.7249 -1.0089
24655SOL    HW278777   4.645   1.091  11.482 -1.0969  0.6192  1.3994
24656SOL     OW78778   0.473   7.432   8.922  0.4296 -0.2345 -0.3674
24656SOL    HW178779   0.389   7.475   8.906  0.8516  0.1004 -1.7938
24656SOL    HW278780   0.516   7.487   8.987 -0.8460 -0.9827  1.2206
24657SOL     OW78781   8.749   5.796   2.331 -0.3163  0.1650 -0.4217
24657SOL    HW178782   8.704   5.833   2.407 -0.4039  0.9222 -0.8354
24657SOL    HW278783   8.751   5.867   2.267  0.5762 -0.1711 -0.7885
24658SOL     OW78784   1.408   9.115  10.490  0.0842 -0.0171  0.2772
24658SOL    HW178785   1.488   9.152  10.529  0.5845 -1.4640  0.6968
24658SOL    HW278786   1.391   9.036  10.541 -0.9301 -0.3814 -0.5977
24659SOL     OW78787   0.721   1.915   0.113 -0.1630  0.8592 -0.3388
24659SOL    HW178788   0.750   2.005   0.126 -1.3810  1.2995 -0.5176
24659SOL    HW278789   0.668   1.918   0.033  0.6843 -0.2451 -0.9775
24660SOL     OW78790  11.178   3.248   5.512 -0.3339 -1.0124  0.6621
24660SOL    HW178791  11.225   3.276   5.591  0.0939  1.2957 -0.3242
24660SOL    HW278792  11.087   3.243   5.540 -0.5133  1.8767  0.9059
24661SOL     OW78793  12.348   4.123   6.056 -1.0028  0.3102  0.6469
24661SOL    HW178794  12.380   4.210   6.031  0.4323 -0.2840  0.3330
24661SOL    HW278795  12.406   4.094   6.126  1.1497 -1.9660 -1.8296
24662SOL     OW78796   9.042   6.294   9.671  0.2069  0.0947  0.0060
24662SOL    HW178797   9.114   6.334   9.719  0.2210  0.1318 -0.0465
24662SOL    HW278798   9.004   6.366   9.620  0.5799 -0.0700 -0.5140
24663SOL     OW78799   9.899   8.811   2.424 -0.0962  0.1036  0.9794
24663SOL    HW178800   9.819   8.861   2.408 -0.0548  0.5628  2.1530
24663SOL    HW278801   9.951   8.865   2.483  1.6050  0.3167 -0.6310
24664SOL     OW78802   4.377   7.330  11.914 -0.7692 -0.6362 -0.4461
24664SOL    HW178803   4.356   7.328  12.007  1.0388  1.2968  0.0996
24664SOL    HW278804   4.298   7.364  11.872 -1.5627 -1.4195  0.3736
24665SOL     OW78805   6.844  11.175  11.473  0.4294 -0.0766 -0.3691
24665SOL    HW178806   6.787  11.214  11.407 -0.4190  1.5036  1.2414
24665SOL    HW278807   6.933  11.193  11.441  0.0615 -0.3110 -1.5939
24666SOL     OW78808   3.170  11.666  11.056  0.0728  0.0377  0.1289
24666SOL    HW178809   3.244  11.704  11.009  1.0177 -1.0276  0.6792
24666SOL    HW278810   3.195  11.672  11.149  0.3855 -2.0576  0.2361
24667SOL     OW78811   2.255   5.837   2.777  0.1227  0.2936 -0.0539
24667SOL    HW178812   2.312   5.844   2.701  1.0149  1.9885  0.7119
24667SOL    HW278813   2.231   5.928   2.797 -0.4294 -0.1487  1.4312
24668SOL     OW78814   6.617   9.467  10.980 -0.2545  0.2500 -0.3823
24668SOL    HW178815   6.611   9.382  11.023 -0.4368  0.3178 -0.2713
24668SOL    HW278816   6.532   9.478  10.937 -0.4484  0.6295  0.0833
24669SOL     OW78817   1.545   9.260   4.988  0.4828 -0.5109  0.6422
24669SOL    HW178818   1.638   9.283   4.983  0.7384 -1.7461 -1.0041
24669SOL    HW278819   1.540   9.195   5.058  0.5229  0.8458  1.9709
24670SOL     OW78820  11.211   4.202  10.707  0.2121  0.2251 -0.4242
24670SOL    HW178821  11.292   4.154  10.687  1.4314  2.1480 -0.3600
24670SOL    HW278822  11.156   4.137  10.751  1.6703 -1.1888 -0.5508
24671SOL     OW78823   8.573   7.918   4.101  0.0712  0.3568 -0.1418
24671SOL    HW178824   8.546   7.862   4.029 -1.2007 -0.3767  0.8757
24671SOL    HW278825   8.507   7.904   4.169  1.1580  1.1258  1.1198
24672SOL     OW78826   8.936   4.793   7.531  0.0670  0.0626 -0.3307
24672SOL    HW178827   8.891   4.863   7.484 -0.5745 -0.9437 -1.2653
24672SOL    HW278828   8.953   4.830   7.618 -0.2614  1.3634 -0.7865
24673SOL     OW78829   0.624   9.843   7.655 -0.3918  0.1778  0.5469
24673SOL    HW178830   0.638   9.814   7.745  0.3214  1.2993  0.8195
24673SOL    HW278831   0.701   9.812   7.608 -0.4007  0.2397  0.4920
24674SOL     OW78832   2.754   8.168   2.035  0.0244 -1.0008  0.2564
24674SOL    HW178833   2.670   8.143   1.996 -1.7240  2.7466  1.1253
24674SOL    HW278834   2.809   8.191   1.960 -0.2692 -1.9910 -0.2781
24675SOL     OW78835  11.607  11.139  11.022 -0.2881  0.1740  0.4940
24675SOL    HW178836  11.656  11.182  11.093 -1.5637 -0.0731  1.5730
24675SOL    HW278837  11.575  11.058  11.061 -0.5402 -0.2468 -0.5559
24676SOL     OW78838   8.609   5.567  11.308  0.0072  0.2576 -0.4444
24676SOL    HW178839   8.538   5.511  11.340  0.3404  0.6986  1.1475
24676SOL    HW278840   8.578   5.656  11.327  1.3930  0.4252  1.2469
24677SOL     OW78841  10.861   9.627   8.678  0.3135 -0.4707  0.1147
24677SOL    HW178842  10.778   9.593   8.646  0.3717  0.1728 -0.7867
24677SOL    HW278843  10.850   9.722   8.675  0.1185 -0.3617  2.6364
24678SOL     OW78844  10.890   0.104   0.267  0.7371  0.0557  0.8249
24678SOL    HW178845  10.890   0.021   0.315  0.7710 -0.2827  0.2404
24678SOL    HW278846  10.948   0.160   0.318 -0.9632  0.4476  2.4447
24679SOL     OW78847   7.666   2.582  10.670 -0.1889 -0.7498 -0.1170
24679SOL    HW178848   7.633   2.525  10.739  1.5958  1.0215  2.3346
24679SOL    HW278849   7.596   2.645  10.655 -0.1250 -0.3913  1.0068
24680SOL     OW78850   6.719  11.081   4.855 -0.3175 -0.2824 -0.2251
24680SOL    HW178851   6.650  11.113   4.796  0.6539  0.7724 -0.8133
24680SOL    HW278852   6.707  11.131   4.935 -0.2332 -0.1082 -0.3225
24681SOL     OW78853   5.813  11.166   2.095  0.1217 -0.1552 -0.5052
24681SOL    HW178854   5.874  11.211   2.035  0.4877  1.3250  0.8932
24681SOL    HW278855   5.870  11.115   2.152  0.0746  0.9777  0.6005
24682SOL     OW78856   5.637   3.543   3.084  0.4085  0.2827 -0.3373
24682SOL    HW178857   5.662   3.489   3.158 -0.6176  0.7475  0.3766
24682SOL    HW278858   5.603   3.624   3.123 -0.2302  0.5078 -1.3016
24683SOL     OW78859   3.398   1.264   8.243  0.0061 -0.2018  0.0184
24683SOL    HW178860   3.357   1.189   8.286 -0.5220 -0.2496 -0.5530
24683SOL    HW278861   3.324   1.323   8.222  0.1496 -0.5070 -1.4558
24684SOL     OW78862   4.002   8.487  10.317 -0.4118 -0.2073  0.4683
24684SOL    HW178863   4.059   8.490  10.394 -0.5472 -0.2669  0.5714
24684SOL    HW278864   3.922   8.444  10.348 -0.8754  0.6946  0.5614
24685SOL     OW78865   2.369   5.101   0.342  0.3584 -0.3856  0.2935
24685SOL    HW178866   2.462   5.083   0.325  0.3075  0.6033 -1.2543
24685SOL    HW278867   2.341   5.154   0.267 -1.7599 -1.6322  0.1148
24686SOL     OW78868   2.707   9.538   4.989 -0.0415 -0.1504 -0.2169
24686SOL    HW178869   2.668   9.553   4.902  1.8693  0.3435 -1.0489
24686SOL    HW278870   2.665   9.604   5.045 -1.4877 -0.6380 -0.6641
24687SOL     OW78871   1.819   4.307   6.565 -0.6424  0.3820  0.0366
24687SOL    HW178872   1.878   4.350   6.503  0.0578  0.9251  1.0413
24687SOL    HW278873   1.790   4.228   6.520  0.8574  0.1030 -0.4993
24688SOL     OW78874   6.041   6.800   1.184 -0.2797  0.9741 -0.2142
24688SOL    HW178875   6.120   6.781   1.234 -1.2726  0.2696  1.1744
24688SOL    HW278876   5.989   6.855   1.242 -1.7099 -0.3245 -0.1903
24689SOL     OW78877   1.944   6.146   4.137  0.0281 -0.1223 -0.3859
24689SOL    HW178878   1.888   6.150   4.060  1.9516 -1.1171 -1.9127
24689SOL    HW278879   1.976   6.055   4.138  1.0970  0.2411  0.8194
24690SOL     OW78880   5.513   9.935   8.532 -0.1094  0.1806  0.3207
24690SOL    HW178881   5.453  10.009   8.527 -0.8009 -0.4421 -1.1692
24690SOL    HW278882   5.486   9.888   8.612 -1.3230  0.1653 -0.0700
24691SOL     OW78883  10.845   3.910   0.299 -0.4628 -0.1519  0.1674
24691SOL    HW178884  10.866   3.934   0.208 -1.7582  1.2877  0.2193
24691SOL    HW278885  10.890   3.826   0.312  0.9970  0.3450 -1.3039
24692SOL     OW78886  10.978   7.505   5.791  0.3109  0.2014 -0.2617
24692SOL    HW178887  11.063   7.463   5.800  1.2587  2.0310 -0.3386
24692SOL    HW278888  10.950   7.524   5.880  0.6080  0.7575 -0.2789
24693SOL     OW78889   3.122  10.886  12.061  0.2968 -0.3167 -0.0101
24693SOL    HW178890   3.186  10.940  12.017  0.3717  0.4420  0.9962
24693SOL    HW278891   3.160  10.868  12.147  0.0084 -1.4710 -0.0997
24694SOL     OW78892   1.803   8.180   7.434  0.0867 -0.5872 -0.3022
24694SOL    HW178893   1.890   8.215   7.454  0.0424 -0.3291 -0.5498
24694SOL    HW278894   1.742   8.248   7.464  0.0543  0.4111 -2.4560
24695SOL     OW78895   6.261   7.246   9.149 -0.2306 -0.1438  0.0621
24695SOL    HW178896   6.327   7.256   9.218 -0.2338  1.1153 -0.0960
24695SOL    HW278897   6.225   7.334   9.138 -1.1920 -0.6117 -0.5945
24696SOL     OW78898   4.201   9.530  11.394  0.0034 -0.2360 -0.8636
24696SOL    HW178899   4.131   9.523  11.460  0.0837  0.2966 -0.7179
24696SOL    HW278900   4.179   9.462  11.330 -0.7197  0.0030 -0.8859
24697SOL     OW78901   7.097   0.702   6.528 -0.0216  0.0487  0.1923
24697SOL    HW178902   7.007   0.685   6.499 -0.3290  2.1705 -0.2693
24697SOL    HW278903   7.152   0.671   6.456 -0.4809  0.1459 -0.2047
24698SOL     OW78904   5.547   8.769   0.409  0.4255 -0.0310 -0.1360
24698SOL    HW178905   5.533   8.684   0.368 -0.2857  0.4831 -0.9690
24698SOL    HW278906   5.519   8.833   0.344  0.0617  0.8216  0.8308
24699SOL     OW78907   3.118   4.359   7.047 -0.9964  0.0833  0.4664
24699SOL    HW178908   3.063   4.413   7.105  0.1494  0.0811  1.6154
24699SOL    HW278909   3.157   4.422   6.986 -0.5878  0.4020  1.0449
24700SOL     OW78910   2.889   1.774   1.855  0.3348 -0.1869 -0.3322
24700SOL    HW178911   2.964   1.833   1.859 -0.0111  0.6019 -3.3592
24700SOL    HW278912   2.837   1.806   1.782 -1.8429 -2.0506  0.2792
24701SOL     OW78913  10.275   4.558   8.485  0.7276  0.5414 -0.1982
24701SOL    HW178914  10.339   4.498   8.446  0.9369  1.5548 -1.5228
24701SOL    HW278915  10.318   4.644   8.481 -0.0401  0.9720  0.4992
24702SOL     OW78916   4.305   4.041   2.050  0.5298  0.6531  0.7480
24702SOL    HW178917   4.398   4.020   2.058  0.5074  0.3604  0.2816
24702SOL    HW278918   4.287   4.098   2.125  1.0761  0.6911  0.8556
24703SOL     OW78919   3.807   2.422   6.418  0.3736  0.3752  0.1508
24703SOL    HW178920   3.876   2.379   6.468  0.8334  0.1315 -0.6737
24703SOL    HW278921   3.834   2.513   6.413  0.8040  0.2223 -0.4319
24704SOL     OW78922   7.282  11.934  10.184 -0.2190 -0.4990 -0.6152
24704SOL    HW178923   7.191  11.936  10.154 -0.3949  0.4065 -0.0572
24704SOL    HW278924   7.314  11.849  10.156 -2.0703 -2.0409  1.5215
24705SOL     OW78925   2.765   9.290   1.775 -0.2986 -0.3412  0.0327
24705SOL    HW178926   2.782   9.212   1.828  1.3267 -0.3893 -0.5133
24705SOL    HW278927   2.729   9.353   1.837  0.7366 -0.6952  1.0354
24706SOL     OW78928  11.685   5.211  11.362  0.0499 -0.0898  0.6010
24706SOL    HW178929  11.671   5.177  11.273 -0.1170 -1.6025  1.1872
24706SOL    HW278930  11.764   5.265  11.355  0.0485 -0.2060 -0.4616
24707SOL     OW78931   6.881   0.167   2.787 -0.3775 -0.4140  0.1646
24707SOL    HW178932   6.874   0.186   2.881  0.0273  1.8631 -0.1995
24707SOL    HW278933   6.964   0.207   2.761  1.2396 -3.9195 -0.5877
24708SOL     OW78934   0.220   4.676  10.759 -0.6143 -0.4120 -0.1199
24708SOL    HW178935   0.212   4.765  10.795  0.6300 -0.6999  0.9629
24708SOL    HW278936   0.313   4.668  10.736 -0.6040 -1.6036  0.2904
24709SOL     OW78937  10.171  10.897  11.990  0.0097 -0.4114 -0.2293
24709SOL    HW178938  10.134  10.933  11.909  1.6470 -0.1496 -0.9124
24709SOL    HW278939  10.238  10.836  11.960 -1.5608 -2.8609  0.9323
24710SOL     OW78940   4.813   2.130   0.075 -0.1588 -0.1373  0.5092
24710SOL    HW178941   4.733   2.089   0.109 -0.1584 -0.5794 -0.0052
24710SOL    HW278942   4.869   2.057   0.051 -0.2399  0.1498 -0.6111
24711SOL     OW78943   8.848   4.327  10.143  0.9575  0.0917  0.2874
24711SOL    HW178944   8.816   4.413  10.169 -2.1578 -1.3737  1.8239
24711SOL    HW278945   8.865   4.335  10.049  0.7508  2.3234  0.3840
24712SOL     OW78946  12.594   0.453  10.036 -0.1057 -0.3109  0.3299
24712SOL    HW178947  12.661   0.471  10.103 -0.0399 -2.5476  0.9298
24712SOL    HW278948  12.511   0.474  10.079 -0.0314 -1.3061  0.9856
24713SOL     OW78949  10.220   7.589   8.575 -0.3582 -0.0660 -0.4726
24713SOL    HW178950  10.280   7.568   8.646  2.0811  2.9850 -1.4449
24713SOL    HW278951  10.156   7.648   8.614 -1.3877 -1.4176 -0.0151
24714SOL     OW78952   6.344  10.432   6.027 -0.1203  0.2699 -0.3444
24714SOL    HW178953   6.288  10.400   5.956 -1.0497  0.3897  0.3237
24714SOL    HW278954   6.433  10.413   5.997 -0.4213  1.3977 -2.0764
24715SOL     OW78955   1.048   6.129   3.198 -0.4091  0.3262 -0.4262
24715SOL    HW178956   0.972   6.184   3.217 -0.1081  1.3338 -1.9321
24715SOL    HW278957   1.024   6.082   3.118 -0.5327 -1.5262  0.6554
24716SOL     OW78958  10.374   0.547   3.129  0.4634 -0.3705  0.9844
24716SOL    HW178959  10.319   0.620   3.158  0.4952 -0.2958  0.8605
24716SOL    HW278960  10.358   0.541   3.035 -0.2445 -1.1223  1.1471
24717SOL     OW78961  11.144   7.006   8.702 -0.0004 -0.3501  0.0280
24717SOL    HW178962  11.078   6.990   8.634  0.7741 -0.4023 -0.7260
24717SOL    HW278963  11.221   7.035   8.654  0.0073  1.4266  1.0180
24718SOL     OW78964   6.653   3.943   8.955 -0.4706 -0.0862 -0.0960
24718SOL    HW178965   6.703   4.009   9.003  0.6221 -0.8533 -0.1607
24718SOL    HW278966   6.667   3.965   8.863 -0.7985  0.0803 -0.1093
24719SOL     OW78967   1.838   1.442  11.190 -0.3107  0.1728  0.3592
24719SOL    HW178968   1.921   1.423  11.233 -0.3349  2.0087  1.2992
24719SOL    HW278969   1.796   1.356  11.182  0.9641 -0.5860  1.3488
24720SOL     OW78970   9.686   6.530   3.234 -0.2319 -0.6932 -0.0895
24720SOL    HW178971   9.777   6.538   3.205 -0.2305 -1.1125 -0.2115
24720SOL    HW278972   9.655   6.620   3.242 -0.0688 -0.5576 -0.8832
24721SOL     OW78973   9.718  11.279   1.041 -0.1530  0.2432  0.1132
24721SOL    HW178974   9.776  11.268   0.965  1.6310  1.6317  1.1928
24721SOL    HW278975   9.700  11.190   1.071 -2.2005 -0.4745 -2.7890
24722SOL     OW78976   2.392   7.716   4.253  0.6497 -0.1263  0.3133
24722SOL    HW178977   2.368   7.673   4.335  0.1773  0.5633  0.5396
24722SOL    HW278978   2.419   7.804   4.279  0.7233  0.0201 -0.2476
24723SOL     OW78979  10.095   1.174   9.903 -0.0161 -0.0021 -0.1604
24723SOL    HW178980  10.086   1.115   9.828 -1.5749 -2.3986  1.7257
24723SOL    HW278981  10.005   1.204   9.919  0.1069 -0.3894  1.3410
24724SOL     OW78982   6.852   0.437   0.755  0.5231  0.4367 -0.4424
24724SOL    HW178983   6.800   0.357   0.764  1.6068 -0.0430  2.6505
24724SOL    HW278984   6.933   0.408   0.713  0.7381 -0.0365  0.2785
24725SOL     OW78985  10.433   6.014  12.462 -0.1108 -0.3363 -0.1493
24725SOL    HW178986  10.484   6.043  12.538  0.3672  0.2047 -0.6720
24725SOL    HW278987  10.355   5.974  12.501  0.4384 -0.6793  0.6445
24726SOL     OW78988   5.516   5.491   8.663  0.2972 -0.4781 -0.2733
24726SOL    HW178989   5.536   5.551   8.591  1.9644 -1.0045 -0.2906
24726SOL    HW278990   5.480   5.547   8.732  2.2953  0.6550 -0.0923
24727SOL     OW78991   9.671   0.686  12.053  0.1510 -0.3922  0.4129
24727SOL    HW178992   9.637   0.760  12.103  1.1647 -0.7519  1.6902
24727SOL    HW278993   9.709   0.628  12.118 -1.0209 -2.3073 -0.4996
24728SOL     OW78994   8.591   6.896  10.694 -0.4821  0.6154  0.4744
24728SOL    HW178995   8.602   6.923  10.603 -1.1259  0.9877  0.5089
24728SOL    HW278996   8.556   6.807  10.689  1.4665 -0.2081  0.3639
24729SOL     OW78997   9.379  10.603   2.481  0.0909 -0.3936 -0.4472
24729SOL    HW178998   9.433  10.590   2.559 -1.4158  0.4949  0.8039
24729SOL    HW278999   9.289  10.585   2.510 -0.8272  2.2966 -1.2693
24730SOL     OW79000  11.910   0.589   9.910  0.4301  0.0519 -0.3571
24730SOL    HW179001  11.919   0.500   9.945  0.5339 -0.9389 -2.6685
24730SOL    HW279002  11.837   0.627   9.958  1.0654 -0.8717  1.4304
24731SOL     OW79003  11.187   3.220  10.990  0.2639 -0.2371 -0.1117
24731SOL    HW179004  11.173   3.311  10.964 -0.0319 -0.3902 -0.5029
24731SOL    HW279005  11.120   3.171  10.943  0.3492 -0.6442  0.1849
24732SOL     OW79006  10.236   3.821   1.798 -0.2116  0.0432  0.1437
24732SOL    HW179007  10.150   3.802   1.837  0.0016  0.6473  0.9345
24732SOL    HW279008  10.281   3.875   1.863  0.5842  0.1575 -0.4779
24733SOL     OW79009   6.727   9.853   9.236  0.0949  0.0311 -0.4738
24733SOL    HW179010   6.707   9.918   9.304 -1.3919 -0.1062 -0.7599
24733SOL    HW279011   6.692   9.891   9.155  3.3712  1.0204 -1.5899
24734SOL     OW79012   9.539   3.319   9.291  0.1386  0.3360  0.0525
24734SOL    HW179013   9.483   3.393   9.316 -1.1046 -0.7695  0.6161
24734SOL    HW279014   9.615   3.327   9.350 -1.8295 -1.0839  3.0512
24735SOL     OW79015   2.671   8.187   0.755  0.1329 -0.2725  0.1200
24735SOL    HW179016   2.660   8.263   0.697 -1.4286  0.0310  0.7522
24735SOL    HW279017   2.766   8.173   0.758  0.2888 -0.2354 -2.3816
24736SOL     OW79018   5.884   8.008  10.930 -0.1983 -0.3965  0.2070
24736SOL    HW179019   5.827   8.082  10.911  1.9458  1.1785 -0.5569
24736SOL    HW279020   5.863   7.944  10.862 -1.0401  0.1339 -0.0493
24737SOL     OW79021  10.471   7.829   8.069 -1.0519  0.3449 -0.0016
24737SOL    HW179022  10.470   7.850   7.976 -1.7125  0.4577  0.0232
24737SOL    HW279023  10.546   7.877   8.105 -0.8233  0.3337 -0.4643
24738SOL     OW79024   3.868   8.093  11.079 -0.2648  0.1851  0.2014
24738SOL    HW179025   3.871   8.010  11.031 -0.1621 -0.9253  2.0382
24738SOL    HW279026   3.950   8.137  11.056 -0.7662  0.2757 -1.5720
24739SOL     OW79027   1.916   4.366   6.825  0.1311 -0.6574 -0.4699
24739SOL    HW179028   1.897   4.378   6.732  1.7656  1.7512 -0.5827
24739SOL    HW279029   1.989   4.303   6.826 -0.3891 -1.2771 -0.7392
24740SOL     OW79030   2.015   2.459   8.334 -0.0417 -0.5946 -0.6700
24740SOL    HW179031   1.931   2.458   8.380 -0.5627 -0.5375 -1.5981
24740SOL    HW279032   2.001   2.516   8.258  0.7785 -0.7285 -0.9363
24741SOL     OW79033   2.640   7.842   2.835  0.0727  0.1847  0.0859
24741SOL    HW179034   2.630   7.935   2.857  0.7146  0.6156 -1.2730
24741SOL    HW279035   2.722   7.839   2.784  0.0014 -1.1089  0.0214
24742SOL     OW79036   3.645   0.035   3.730 -0.2821  0.6212 -0.4780
24742SOL    HW179037   3.679   0.035   3.819  1.7383  0.6027 -1.2034
24742SOL    HW279038   3.566  -0.019   3.734  0.6540 -0.7133  0.9695
24743SOL     OW79039   0.379   8.192   7.369  0.1544 -0.8504  0.2474
24743SOL    HW179040   0.428   8.216   7.290  1.3552 -0.7028  1.0090
24743SOL    HW279041   0.324   8.118   7.342 -0.5391  0.1161 -1.0843
24744SOL     OW79042   0.866   7.592  10.858 -0.7173 -0.0915 -0.6986
24744SOL    HW179043   0.771   7.603  10.864 -0.6029  0.4121  0.3761
24744SOL    HW279044   0.903   7.668  10.904  0.2269  0.0998 -1.7127
24745SOL     OW79045   6.476   4.648   4.312 -0.0624  0.0344 -0.7458
24745SOL    HW179046   6.514   4.733   4.334 -1.5647  0.9267 -1.4801
24745SOL    HW279047   6.468   4.649   4.217 -3.3382  0.5766 -0.5571
24746SOL     OW79048  10.197   1.810   8.713 -0.2718  0.0505  0.1321
24746SOL    HW179049  10.267   1.785   8.653 -1.2586 -1.0097 -0.6019
24746SOL    HW279050  10.159   1.889   8.675  0.4195  0.5646  0.4748
24747SOL     OW79051   3.285   0.006   6.208  0.4782 -0.2739  0.3017
24747SOL    HW179052   3.218   0.060   6.249 -1.2533 -1.1495 -1.2157
24747SOL    HW279053   3.283  -0.076   6.257  1.7162  0.2644  1.3381
24748SOL     OW79054   8.690   3.098   8.866 -0.0997  0.0005  0.2378
24748SOL    HW179055   8.778   3.133   8.879 -0.2766  0.4283  0.3347
24748SOL    HW279056   8.654   3.091   8.955 -0.0641 -0.4347  0.2176
24749SOL     OW79057   6.480  11.384   4.377 -0.2987 -0.2432  0.1047
24749SOL    HW179058   6.490  11.319   4.307 -1.8219 -1.0365  0.6030
24749SOL    HW279059   6.386  11.402   4.381 -0.0989  0.6905  1.1601
24750SOL     OW79060   4.783  12.143   2.798  0.2907 -0.2194  0.2311
24750SOL    HW179061   4.792  12.132   2.893 -0.4292 -2.7113  0.0903
24750SOL    HW279062   4.803  12.057   2.762  0.2572  0.5954 -1.8806
24751SOL     OW79063   9.816   8.972   6.862  0.1107  0.2556 -0.4804
24751SOL    HW179064   9.864   9.033   6.805  1.8963 -0.6972 -0.0414
24751SOL    HW279065   9.826   8.887   6.819 -0.9039 -0.0242 -0.1807
24752SOL     OW79066  10.453   4.506  12.073  0.3206 -0.5244  0.0199
24752SOL    HW179067  10.449   4.601  12.086  2.1242 -0.6567  2.0341
24752SOL    HW279068  10.362   4.477  12.076 -0.3554  1.2084 -1.6590
24753SOL     OW79069   7.980   7.234   8.176 -0.9325  0.0208 -0.3899
24753SOL    HW179070   7.992   7.199   8.264  1.7412 -1.0254 -1.0716
24753SOL    HW279071   7.974   7.329   8.189  1.0345  0.0455  0.8847
24754SOL     OW79072   0.940   7.649  10.598  0.2847 -0.5231 -0.2223
24754SOL    HW179073   0.941   7.611  10.686 -0.4362 -1.9856 -0.8226
24754SOL    HW279074   0.848   7.651  10.574  0.5423 -0.8749 -1.2636
24755SOL     OW79075   6.151   6.589  11.290 -0.0096 -0.6796 -0.0840
24755SOL    HW179076   6.221   6.525  11.299  1.0134  0.1999 -1.4803
24755SOL    HW279077   6.118   6.602  11.379  1.5559 -1.1627  0.5882
24756SOL     OW79078   3.260   1.705   6.611 -0.2262  0.7286 -0.2894
24756SOL    HW179079   3.287   1.679   6.699  0.7181 -0.5421 -0.9257
24756SOL    HW279080   3.339   1.737   6.569 -0.4301  0.3215 -1.0168
24757SOL     OW79081   5.740   7.302  11.175 -0.4877 -0.3324  0.3086
24757SOL    HW179082   5.675   7.234  11.159 -0.4793  0.2343 -2.7691
24757SOL    HW279083   5.801   7.295  11.101  3.0678 -0.8320  3.0334
24758SOL     OW79084  11.092   2.599   9.945 -0.1665  0.1243  0.0460
24758SOL    HW179085  11.029   2.597  10.017  0.6390 -1.7732  0.7774
24758SOL    HW279086  11.174   2.567   9.984  0.2043 -1.3095 -1.7659
24759SOL     OW79087   3.927   5.687   7.314  0.0786 -0.0501  0.2203
24759SOL    HW179088   3.851   5.633   7.333  0.4713 -1.1605 -1.1947
24759SOL    HW279089   3.894   5.777   7.318 -1.4580 -0.5253 -0.9078
24760SOL     OW79090   7.231   7.272   9.069 -0.3351 -0.2545  0.2408
24760SOL    HW179091   7.320   7.246   9.093 -0.2169  0.3159  0.4334
24760SOL    HW279092   7.231   7.367   9.074 -1.1329 -0.2745  0.8484
24761SOL     OW79093   6.058   5.907  11.663  0.3549  0.2183  0.0931
24761SOL    HW179094   6.016   5.919  11.748  0.5006 -1.4552  0.4452
24761SOL    HW279095   6.003   5.956  11.602 -1.7401 -1.2471  0.6623
24762SOL     OW79096  10.588   7.909   1.196  0.1757  0.5484 -0.0779
24762SOL    HW179097  10.635   7.843   1.145  1.2097  0.5509  0.8399
24762SOL    HW279098  10.644   7.987   1.191 -1.2835  1.5748 -1.6025
24763SOL     OW79099  10.234   2.853   3.793  0.1894 -0.1763  0.1561
24763SOL    HW179100  10.222   2.880   3.884 -0.8043 -0.4142  0.1029
24763SOL    HW279101  10.323   2.817   3.790  0.3556  0.1471  0.9490
24764SOL     OW79102   9.109  10.944   6.540 -0.0130 -0.0100  0.0208
24764SOL    HW179103   9.135  10.946   6.447  0.0682 -0.7545  0.0255
24764SOL    HW279104   9.101  11.037   6.564 -1.2793  0.1973 -1.0805
24765SOL     OW79105  10.687   5.716  10.825  0.4041  0.2312  0.0045
24765SOL    HW179106  10.634   5.641  10.799  0.7832 -0.2211  0.5278
24765SOL    HW279107  10.644   5.791  10.783  0.2124 -0.3080 -0.7736
24766SOL     OW79108   0.586   4.571   8.076 -0.2633 -0.4545 -0.5822
24766SOL    HW179109   0.619   4.483   8.057  1.5202  0.0854 -0.1091
24766SOL    HW279110   0.527   4.590   8.003  0.3233 -1.5348 -1.3727
24767SOL     OW79111   8.473   0.740  11.198  0.6184 -0.2145 -0.3608
24767SOL    HW179112   8.412   0.706  11.264  0.7914  1.8026  0.9390
24767SOL    HW279113   8.421   0.747  11.118  0.1902 -1.9955 -0.2678
24768SOL     OW79114   8.724  10.960  11.461 -0.5029  0.1778 -0.2495
24768SOL    HW179115   8.694  10.869  11.462 -0.0709  0.0018 -1.3543
24768SOL    HW279116   8.646  11.010  11.438 -0.6293  0.0333 -0.1445
24769SOL     OW79117   7.115   5.440   6.184 -0.1803 -0.4765 -0.4897
24769SOL    HW179118   7.109   5.359   6.133 -0.9158  0.4973 -2.0505
24769SOL    HW279119   7.153   5.504   6.123 -1.3281  0.8109  0.0707
24770SOL     OW79120   7.238  11.260  11.701 -0.0884 -0.1101  0.1347
24770SOL    HW179121   7.153  11.233  11.736 -0.2335  0.9649  0.6334
24770SOL    HW279122   7.299  11.193  11.732 -0.3985  0.2490  1.5746
24771SOL     OW79123   6.359   8.036   8.823  0.0096 -0.4770 -0.1987
24771SOL    HW179124   6.361   8.080   8.908  3.2763 -0.6290 -0.0387
24771SOL    HW279125   6.440   8.065   8.781 -0.8258 -1.5382 -2.6798
24772SOL     OW79126   5.508   0.236   4.759  0.1633 -0.1773  0.2580
24772SOL    HW179127   5.525   0.329   4.749 -0.0546 -0.0592  0.9356
24772SOL    HW279128   5.430   0.231   4.815  1.2882 -0.7753  1.8332
24773SOL     OW79129  10.728   1.589   5.449 -0.2802  0.5467  0.3930
24773SOL    HW179130  10.765   1.517   5.399 -0.4665 -0.4444  1.6432
24773SOL    HW279131  10.803   1.631   5.491 -0.3538 -0.1810  1.2725
24774SOL     OW79132   5.237  10.026   6.239  0.4943 -0.0122 -0.0413
24774SOL    HW179133   5.190  10.035   6.322 -1.1681  0.9582 -1.0368
24774SOL    HW279134   5.233  10.112   6.199 -1.9258 -1.2101 -2.7344
24775SOL     OW79135   4.048   7.697   9.371 -0.2609  0.1748 -0.2972
24775SOL    HW179136   4.007   7.663   9.451 -0.3169 -1.4581 -0.9816
24775SOL    HW279137   4.139   7.712   9.395  0.5892 -3.4090 -0.6571
24776SOL     OW79138   3.280   2.994   0.957  0.6036  0.4547 -0.1521
24776SOL    HW179139   3.219   2.921   0.944 -0.2863  1.1189  0.1643
24776SOL    HW279140   3.299   3.025   0.868 -0.2014  0.7688 -0.2284
24777SOL     OW79141  10.945   8.640   9.545  0.2322 -0.1803 -0.1497
24777SOL    HW179142  10.906   8.624   9.459 -0.0346  0.9563 -0.2540
24777SOL    HW279143  10.877   8.685   9.594  0.7430  0.0861  0.3186
24778SOL     OW79144   0.725   8.971   9.361  0.4157  0.7026 -0.6107
24778SOL    HW179145   0.804   9.023   9.348 -0.2618  2.4671  1.6021
24778SOL    HW279146   0.658   9.034   9.387 -0.8721 -1.0836  0.7539
24779SOL     OW79147   6.967   8.045   2.222  0.0252 -0.0462  0.3031
24779SOL    HW179148   6.899   8.025   2.158  0.1001  0.7897 -0.0559
24779SOL    HW279149   7.018   8.115   2.181  1.4304 -1.0123  0.3366
24780SOL     OW79150   2.546   0.262   9.540 -0.0687  0.2781 -0.0095
24780SOL    HW179151   2.603   0.186   9.550  0.3711  0.7181  0.8716
24780SOL    HW279152   2.494   0.265   9.620 -0.8436  0.2909 -0.4993
24781SOL     OW79153   8.642  10.848   8.032  0.0728  0.3042  0.2519
24781SOL    HW179154   8.666  10.840   8.124  0.0865  0.4880  0.2636
24781SOL    HW279155   8.585  10.772   8.016 -0.0702  0.3677  0.4556
24782SOL     OW79156   5.826   5.680   3.670  0.1293 -0.3806 -0.3205
24782SOL    HW179157   5.813   5.721   3.585  0.5833 -0.5369 -0.4664
24782SOL    HW279158   5.920   5.688   3.687 -0.1515  0.9493  0.8239
24783SOL     OW79159   8.214   4.191  11.782  0.1261 -0.1192  0.1767
24783SOL    HW179160   8.173   4.264  11.829 -1.5295  0.6113 -2.2398
24783SOL    HW279161   8.197   4.209  11.690  3.7114 -1.2044 -0.8584
24784SOL     OW79162   1.279   1.139   7.671  0.3126 -0.4881  0.0470
24784SOL    HW179163   1.188   1.124   7.699  0.2781  0.2579  0.3733
24784SOL    HW279164   1.295   1.232   7.691  0.6398 -0.1885 -1.4631
24785SOL     OW79165  12.147  12.106   2.653 -0.3227 -0.0070  0.1148
24785SOL    HW179166  12.226  12.149   2.686  0.2299 -1.0141  0.1211
24785SOL    HW279167  12.113  12.057   2.728 -0.6361 -0.0373 -0.0461
24786SOL     OW79168   9.607   6.958   7.497  0.5684 -0.3287  0.3178
24786SOL    HW179169   9.700   6.937   7.490  0.7134  0.6788 -1.0424
24786SOL    HW279170   9.565   6.876   7.523  1.8450 -0.7514  1.0956
24787SOL     OW79171   8.663   7.477   3.467 -0.4727 -0.4995 -0.3109
24787SOL    HW179172   8.673   7.521   3.383  0.2078 -0.9326 -0.4649
24787SOL    HW279173   8.577   7.504   3.499 -0.3273  0.4258 -0.6956
24788SOL     OW79174   9.819  10.774  11.366  0.2814 -0.5949  0.2349
24788SOL    HW179175   9.755  10.718  11.410  0.4654 -0.7296  0.3317
24788SOL    HW279176   9.792  10.773  11.274 -0.3747  0.0590  0.4152
24789SOL     OW79177   6.524   8.351   5.131 -0.1679  0.0367  0.4105
24789SOL    HW179178   6.479   8.284   5.182  0.9532  1.0357  2.9316
24789SOL    HW279179   6.617   8.331   5.142  0.1248  0.5283 -0.9870
24790SOL     OW79180  10.681   3.110   6.587 -0.6194  0.0319  0.3438
24790SOL    HW179181  10.619   3.182   6.577 -1.7186 -0.7550  1.2655
24790SOL    HW279182  10.707   3.113   6.679  0.7369  0.3520 -0.0266
24791SOL     OW79183   9.043   8.880   1.084  0.4546 -0.2407 -0.0199
24791SOL    HW179184   8.948   8.872   1.088  0.3015  0.8317 -1.0174
24791SOL    HW279185   9.071   8.890   1.175 -0.4655  0.2748  0.2139
24792SOL     OW79186   5.874   5.124   1.890 -0.5381  0.2708 -0.9616
24792SOL    HW179187   5.927   5.197   1.858 -1.5389  1.2398 -0.4955
24792SOL    HW279188   5.805   5.115   1.824 -0.4490 -0.2258 -0.9887
24793SOL     OW79189   3.862   2.011   9.131 -0.1668 -0.1041 -0.0166
24793SOL    HW179190   3.934   2.074   9.137 -2.0673  2.5334 -2.5348
24793SOL    HW279191   3.895   1.942   9.073  0.2665  1.2202 -1.3799
24794SOL     OW79192  12.252   5.709   2.285  0.1304  0.1043  0.0585
24794SOL    HW179193  12.303   5.734   2.208  0.1690  0.0187  0.0552
24794SOL    HW279194  12.253   5.786   2.341 -2.3247  1.1965 -1.2694
24795SOL     OW79195   9.037   4.586   7.677  0.0176  0.2696 -0.6729
24795SOL    HW179196   8.961   4.571   7.733  0.4183  1.9266  0.3923
24795SOL    HW279197   9.009   4.653   7.615 -0.1543 -0.9543 -1.9709
24796SOL     OW79198   9.584   1.451   2.327  0.0273  0.4070  0.4539
24796SOL    HW179199   9.496   1.441   2.293  0.5999 -0.2122 -0.9140
24796SOL    HW279200   9.623   1.520   2.275  1.3722 -1.4860 -1.2140
24797SOL     OW79201   6.250   7.490   3.964  0.1914 -0.4766  0.0762
24797SOL    HW179202   6.217   7.562   4.019 -0.5729 -1.7440  1.3547
24797SOL    HW279203   6.337   7.471   3.999  0.2690 -0.3833 -0.0637
24798SOL     OW79204  10.639   6.946   3.332 -0.0415 -0.3757  0.4998
24798SOL    HW179205  10.569   6.970   3.271  0.1275  0.2495  0.5479
24798SOL    HW279206  10.701   7.019   3.327 -0.0435 -0.3030  1.4446
24799SOL     OW79207  10.529   3.236   1.729  0.2971 -0.3114 -0.2363
24799SOL    HW179208  10.582   3.160   1.705  2.2143  0.1397  2.1843
24799SOL    HW279209  10.550   3.302   1.662  1.0260 -0.9071 -0.6092
24800SOL     OW79210   8.566   2.492  10.325 -0.4104 -0.9370  0.1186
24800SOL    HW179211   8.649   2.478  10.278  0.6705  0.4955  1.4928
24800SOL    HW279212   8.558   2.416  10.383  0.2944 -0.7623  0.4548
24801SOL     OW79213   3.396  11.182  12.209 -0.0629 -0.0795  0.3523
24801SOL    HW179214   3.322  11.204  12.267 -0.4734  1.7566 -0.7774
24801SOL    HW279215   3.355  11.137  12.135  0.0564  0.2359  0.0948
24802SOL     OW79216  12.435   9.969   0.380 -0.0681  0.5785 -0.6083
24802SOL    HW179217  12.382   9.957   0.301 -0.7097 -1.1308  0.0459
24802SOL    HW279218  12.395  10.045   0.424 -0.5063  0.7467 -1.2713
24803SOL     OW79219   0.209   2.622  11.276 -0.6750  0.3199 -0.2854
24803SOL    HW179220   0.275   2.672  11.324 -1.7734  1.1586  0.3881
24803SOL    HW279221   0.203   2.539  11.322 -0.8594  0.6607  0.3198
24804SOL     OW79222   0.271   1.898   7.372 -0.2335 -0.2217  0.6192
24804SOL    HW179223   0.301   1.955   7.301  1.5848  0.7643  2.0889
24804SOL    HW279224   0.238   1.820   7.328  0.2955  0.5818 -1.3215
24805SOL     OW79225   3.261   7.536   5.443  0.0745  0.4749  0.0770
24805SOL    HW179226   3.270   7.457   5.497 -0.1312 -0.5061 -1.2750
24805SOL    HW279227   3.349   7.551   5.409  0.0307  0.6110  0.0254
24806SOL     OW79228   0.994   1.626  10.126  0.5375  0.4251 -0.7179
24806SOL    HW179229   0.972   1.641  10.218 -0.0594  2.3864 -1.1229
24806SOL    HW279230   1.090   1.629  10.124  0.5742 -0.0960 -0.0980
24807SOL     OW79231  12.190  10.315   3.471  0.0935 -0.1872 -0.3048
24807SOL    HW179232  12.188  10.407   3.442  1.2285  0.3159  1.1140
24807SOL    HW279233  12.258  10.313   3.538  0.2355 -2.1349 -0.4761
24808SOL     OW79234   7.846   2.485  11.791 -0.0078  0.0645 -0.3809
24808SOL    HW179235   7.908   2.412  11.798  0.9575  0.8005 -1.0259
24808SOL    HW279236   7.884   2.542  11.725 -0.6975  1.2109  0.1910
24809SOL     OW79237   0.567   0.059   4.936 -0.1338 -0.5479 -0.5776
24809SOL    HW179238   0.645   0.070   4.882 -1.4341  3.7756 -2.0723
24809SOL    HW279239   0.507   0.128   4.905 -3.1249 -1.2721  2.8763
24810SOL     OW79240   6.803   9.357  11.842 -0.0144 -0.4907 -0.1056
24810SOL    HW179241   6.802   9.437  11.790  0.0171  0.7584  1.7370
24810SOL    HW279242   6.896   9.335  11.850  0.1322  0.3961  0.9411
24811SOL     OW79243   7.614   5.472   4.475  0.7284 -0.1765 -0.1831
24811SOL    HW179244   7.542   5.414   4.501  1.8658 -1.5733 -0.0147
24811SOL    HW279245   7.575   5.533   4.413 -0.0452 -2.6726 -2.3262
24812SOL     OW79246  11.592  12.145   1.159 -0.0512 -0.2131  0.1971
24812SOL    HW179247  11.521  12.206   1.173 -0.0277  0.2871 -1.5703
24812SOL    HW279248  11.613  12.110   1.246 -0.4765  1.8080  1.1518
24813SOL     OW79249   7.355   1.398  11.363  0.1441 -0.0377  0.2525
24813SOL    HW179250   7.268   1.363  11.383  0.8112 -0.8574  1.9040
24813SOL    HW279251   7.402   1.324  11.324 -0.4330  0.9282 -2.5167
24814SOL     OW79252   5.003   1.702   0.745 -0.2887 -0.0067 -0.2570
24814SOL    HW179253   5.030   1.614   0.717  0.6142 -0.2392  1.2411
24814SOL    HW279254   4.991   1.694   0.839  1.0264  1.7632  0.1038
24815SOL     OW79255   8.214  10.915   3.909  0.0201  0.3689  0.2191
24815SOL    HW179256   8.162  10.995   3.905 -1.3819 -0.5309 -0.7017
24815SOL    HW279257   8.171  10.862   3.977 -2.9105 -1.9817 -3.0309
24816SOL     OW79258   7.176   8.896  12.523 -0.5756  0.2037  0.9239
24816SOL    HW179259   7.194   8.979  12.479  0.2891  0.0773  1.0315
24816SOL    HW279260   7.205   8.910  12.613 -2.0048  0.3393  1.3858
24817SOL     OW79261   7.362   1.603   4.879  0.3661 -0.4332 -0.2941
24817SOL    HW179262   7.418   1.614   4.956  0.8845 -0.1231 -0.7039
24817SOL    HW279263   7.328   1.691   4.861 -0.6896 -0.7096  0.2608
24818SOL     OW79264   0.877   6.790   6.333  0.0021  0.0545  0.0348
24818SOL    HW179265   0.971   6.809   6.343 -0.0043  0.4149 -0.4914
24818SOL    HW279266   0.871   6.751   6.246 -0.4422  0.7980 -0.2718
24819SOL     OW79267   1.784   2.511   7.431  0.3044 -0.3878 -0.5433
24819SOL    HW179268   1.709   2.570   7.427  0.2270 -0.2262  1.6891
24819SOL    HW279269   1.746   2.423   7.431  0.1113 -0.3140  0.1618
24820SOL     OW79270   8.274   1.267   4.153  0.3749  0.1640 -0.0081
24820SOL    HW179271   8.247   1.330   4.219  0.1669  0.5647 -0.4678
24820SOL    HW279272   8.216   1.284   4.079 -0.1970 -1.0761  0.1350
24821SOL     OW79273   8.309   2.938   9.959 -0.3115 -0.0742  0.0292
24821SOL    HW179274   8.381   2.881   9.932  1.0892  1.7630 -0.3465
24821SOL    HW279275   8.302   2.925  10.053  3.7340  2.9880  0.9944
24822SOL     OW79276   5.142  10.521   8.605  0.2704 -0.6424  0.4705
24822SOL    HW179277   5.083  10.446   8.598  0.9762 -1.0980 -0.8524
24822SOL    HW279278   5.227  10.483   8.624  0.4645 -0.1042  0.7047
24823SOL     OW79279   4.188  10.232   9.428 -0.2231  0.0445 -0.8979
24823SOL    HW179280   4.127  10.305   9.417 -0.8267 -0.4928 -1.2146
24823SOL    HW279281   4.132  10.154   9.429  0.4654 -0.4703 -1.2798
24824SOL     OW79282   8.695   3.344   4.363  0.1264 -0.0230 -0.0601
24824SOL    HW179283   8.623   3.298   4.319  0.5247 -1.0172  0.3093
24824SOL    HW279284   8.666   3.351   4.454 -0.2192  1.0755 -0.2320
24825SOL     OW79285   9.423   0.387   5.054 -0.9947  0.1251 -0.3806
24825SOL    HW179286   9.391   0.339   5.130 -2.0561  1.1260 -0.1692
24825SOL    HW279287   9.357   0.373   4.987 -0.8848  0.5734 -0.5879
24826SOL     OW79288  10.598   9.643   0.504  0.5271  0.2855 -0.0956
24826SOL    HW179289  10.635   9.559   0.477  0.6636  0.2356  0.2352
24826SOL    HW279290  10.600   9.640   0.600  1.2039  0.9485 -0.0776
24827SOL     OW79291   3.390   4.470   3.202 -0.3481  0.2418  0.1674
24827SOL    HW179292   3.457   4.432   3.146  0.5943  1.5671  0.3422
24827SOL    HW279293   3.336   4.523   3.143 -0.6813 -0.0719  0.1827
24828SOL     OW79294   5.728  10.828   4.134 -0.3026  0.9035  0.0100
24828SOL    HW179295   5.680  10.766   4.078  1.7343 -1.3633  0.5986
24828SOL    HW279296   5.680  10.910   4.126 -2.0677 -0.2493 -2.3215
24829SOL     OW79297   9.478   9.424  11.849 -0.3804  0.1995  0.1797
24829SOL    HW179298   9.469   9.512  11.813  3.1079  0.9239  0.7619
24829SOL    HW279299   9.563   9.393  11.818 -0.4903 -2.0459  1.8493
24830SOL     OW79300   7.322  11.976   9.218 -0.0934  0.2125  0.7289
24830SOL    HW179301   7.375  11.937   9.288  1.6069 -2.3626 -1.7416
24830SOL    HW279302   7.238  11.930   9.223  0.4717 -0.9052  0.3798
24831SOL     OW79303   0.740   6.393   0.422  0.0050  0.0535 -0.3724
24831SOL    HW179304   0.682   6.381   0.498  0.5688 -1.7000 -0.1940
24831SOL    HW279305   0.683   6.430   0.354 -0.5682  1.4104  0.7840
24832SOL     OW79306  10.914   6.321   2.617  0.4598 -0.3230  0.4756
24832SOL    HW179307  10.959   6.405   2.630  0.7424 -0.4306  0.2138
24832SOL    HW279308  10.845   6.341   2.554 -1.0083  0.2337  2.1715
24833SOL     OW79309   1.582   2.205   0.586  0.4928  0.8939 -0.1953
24833SOL    HW179310   1.667   2.246   0.571  0.8000  1.9417  3.5837
24833SOL    HW279311   1.524   2.277   0.612 -0.4942 -0.3100  1.0724
24834SOL     OW79312   8.368   5.825  11.847 -0.4495 -0.5135 -0.1244
24834SOL    HW179313   8.309   5.847  11.919 -0.3630 -0.4653 -0.0681
24834SOL    HW279314   8.371   5.904  11.793 -0.9966 -0.7564 -0.5135
24835SOL     OW79315  12.030   2.343   7.022 -0.0952  0.5600  0.5835
24835SOL    HW179316  11.984   2.353   6.939  3.0056 -1.1638 -1.5351
24835SOL    HW279317  11.995   2.262   7.059 -1.5913  1.4088  1.1306
24836SOL     OW79318   4.197   5.028   3.245  0.0547  0.4289 -0.7110
24836SOL    HW179319   4.157   5.112   3.222 -0.3654  0.1909 -0.8712
24836SOL    HW279320   4.141   4.994   3.315 -0.4138 -0.2056 -1.3858
24837SOL     OW79321   9.077   8.105   4.881  0.3511 -0.3676 -0.1915
24837SOL    HW179322   9.018   8.127   4.809  0.3573 -0.5798 -0.2633
24837SOL    HW279323   9.133   8.182   4.891  0.6150 -0.4918 -0.6799
24838SOL     OW79324   7.041   0.975   6.591 -0.0166 -0.3144  0.1001
24838SOL    HW179325   7.089   0.893   6.583 -0.5386 -0.5213 -1.1001
24838SOL    HW279326   6.961   0.961   6.540  0.4852  1.3857 -1.2248
24839SOL     OW79327   2.839  10.718   4.066 -0.4306 -0.1259 -0.4963
24839SOL    HW179328   2.773  10.758   4.009  1.0174  2.7782 -0.3524
24839SOL    HW279329   2.855  10.784   4.134 -0.4407 -2.5318  2.0207
24840SOL     OW79330   9.026   8.503   3.399 -0.1535  0.2049 -0.4647
24840SOL    HW179331   8.936   8.520   3.371 -0.2680 -0.9434 -0.8606
24840SOL    HW279332   9.066   8.590   3.405 -1.9685  0.9883  2.1896
24841SOL     OW79333   9.195   4.349   8.005  0.1455 -0.5114  0.4082
24841SOL    HW179334   9.272   4.341   7.947 -0.9742  0.1471 -1.2454
24841SOL    HW279335   9.220   4.417   8.068  0.8549 -0.1709 -0.2226
24842SOL     OW79336   8.672   2.739   9.379 -0.0883 -0.3324  0.3588
24842SOL    HW179337   8.715   2.657   9.403  0.6295  0.0276  0.3251
24842SOL    HW279338   8.594   2.712   9.331  1.3109 -0.9898 -1.6754
24843SOL     OW79339   8.437   9.657   3.477 -0.1777 -0.2383  0.2317
24843SOL    HW179340   8.460   9.639   3.568  0.8102 -0.7243 -0.0955
24843SOL    HW279341   8.375   9.589   3.453 -0.2413 -0.2600  0.4620
24844SOL     OW79342   0.953   7.870  12.502  0.5431 -0.4849 -0.0808
24844SOL    HW179343   1.023   7.850  12.564  1.5260 -1.0792 -1.3320
24844SOL    HW279344   0.925   7.958  12.526  3.3088  0.7532 -0.9154
24845SOL     OW79345   8.499  12.318   8.748  0.3131  0.3259  0.5453
24845SOL    HW179346   8.442  12.293   8.675  1.1482  2.0480 -0.7537
24845SOL    HW279347   8.581  12.272   8.730  0.6456  1.0555  0.1744
24846SOL     OW79348   0.211  10.030  12.070 -0.4027 -0.2526 -0.5687
24846SOL    HW179349   0.171  10.104  12.023  1.3449  1.6780  0.7584
24846SOL    HW279350   0.226   9.964  12.003  1.1387  2.0071 -2.6531
24847SOL     OW79351  11.484   4.837  10.749 -0.1213  0.2375 -0.6119
24847SOL    HW179352  11.507   4.750  10.716 -0.2472 -0.4443  0.9997
24847SOL    HW279353  11.472   4.890  10.670 -0.4343 -1.3026 -1.6499
24848SOL     OW79354   7.782   8.753  10.828  0.3813 -0.6070 -0.1455
24848SOL    HW179355   7.726   8.828  10.849  0.6991 -0.6732  1.0355
24848SOL    HW279356   7.852   8.790  10.774 -0.1929 -0.3100 -0.6897
24849SOL     OW79357   6.662  10.498   7.350 -0.0309 -0.9850 -0.5574
24849SOL    HW179358   6.735  10.468   7.296 -0.6726 -0.5641 -1.7178
24849SOL    HW279359   6.702  10.524   7.433  1.3933  0.8099 -1.7370
24850SOL     OW79360   1.545   6.468   8.401 -0.2534  0.0903 -0.1526
24850SOL    HW179361   1.523   6.393   8.346  1.6137 -0.4497 -0.2372
24850SOL    HW279362   1.486   6.461   8.475  0.1376 -1.7391  0.0486
24851SOL     OW79363   2.760  12.340   3.901 -0.4051  0.1765 -0.3152
24851SOL    HW179364   2.666  12.335   3.913 -0.2794  1.6379  1.9549
24851SOL    HW279365   2.793  12.254   3.926 -1.0910 -0.3337 -1.1047
24852SOL     OW79366   8.431  11.615   0.534  0.3733 -0.3517  0.6452
24852SOL    HW179367   8.393  11.693   0.494  0.4859 -0.0330  1.1557
24852SOL    HW279368   8.519  11.641   0.559 -0.5182  0.2751  3.4335
24853SOL     OW79369   7.678   3.390   1.077  0.4756 -0.2848 -0.1540
24853SOL    HW179370   7.614   3.379   1.006 -1.8951 -0.2710  1.8612
24853SOL    HW279371   7.710   3.302   1.094  0.6672 -0.3635 -0.8659
24854SOL     OW79372   8.960   3.075   4.896  0.0598 -0.1461  0.2104
24854SOL    HW179373   9.030   3.081   4.831 -0.7363  0.6776 -0.6027
24854SOL    HW279374   8.972   2.989   4.936  1.9332  0.2349  0.5734
24855SOL     OW79375   4.604  11.522  12.000 -0.4721  0.4187 -0.4494
24855SOL    HW179376   4.628  11.588  12.064 -1.1506  0.1004  0.1483
24855SOL    HW279377   4.538  11.564  11.945 -1.0279  0.1902  0.0363
24856SOL     OW79378   1.371   3.492   1.918 -0.1914 -0.4103 -0.0488
24856SOL    HW179379   1.443   3.471   1.859  0.0644  1.7419 -0.5992
24856SOL    HW279380   1.412   3.538   1.991 -0.8879 -0.1019  0.1556
24857SOL     OW79381   9.586  10.241   2.382  0.3879 -0.2554 -0.9968
24857SOL    HW179382   9.657  10.262   2.443  0.4347  0.1430 -1.1838
24857SOL    HW279383   9.530  10.181   2.430  1.1121 -0.9622 -1.0164
24858SOL     OW79384   8.320  10.790   1.281 -0.9394  0.0929 -0.4855
24858SOL    HW179385   8.412  10.808   1.263 -0.0389 -3.7076 -0.4690
24858SOL    HW279386   8.319  10.699   1.312 -4.5899  0.3583  0.5994
24859SOL     OW79387   8.223   8.787   7.179 -0.4462  0.1674  0.0261
24859SOL    HW179388   8.194   8.697   7.194 -0.7795  0.3028  0.2058
24859SOL    HW279389   8.267   8.785   7.095 -2.4611  0.2834 -1.0950
24860SOL     OW79390  10.556  11.067   4.267  0.4180 -0.1990 -0.1012
24860SOL    HW179391  10.527  11.125   4.338 -2.9149 -0.3624 -1.1596
24860SOL    HW279392  10.522  10.980   4.292  0.5536 -0.5607 -1.1225
24861SOL     OW79393   7.232   2.864   9.854  0.2315 -0.1395 -0.0228
24861SOL    HW179394   7.310   2.917   9.868 -0.5180  0.6890  1.2992
24861SOL    HW279395   7.240   2.793   9.918 -0.0713 -0.0694  0.0960
24862SOL     OW79396   2.128   7.477   8.391 -0.0255 -0.6630  0.2356
24862SOL    HW179397   2.216   7.490   8.427  0.0077 -1.0786  0.3181
24862SOL    HW279398   2.130   7.388   8.356  0.3148  0.1196 -1.8565
24863SOL     OW79399   4.799   1.191   9.741 -0.0053  0.3643 -0.5062
24863SOL    HW179400   4.729   1.178   9.805  1.1382 -0.4668  0.6236
24863SOL    HW279401   4.877   1.208   9.794  0.8045  0.5083 -1.7116
24864SOL     OW79402  11.530   8.880   4.134 -0.2866 -0.0416  0.0223
24864SOL    HW179403  11.446   8.924   4.122 -0.4409  0.2905  1.9729
24864SOL    HW279404  11.593   8.951   4.147  0.2327 -0.3086 -0.9068
24865SOL     OW79405   2.825   7.982   5.951 -0.1657 -0.1654  0.0667
24865SOL    HW179406   2.878   8.038   6.008  0.3960 -0.4214 -0.2034
24865SOL    HW279407   2.849   8.009   5.863 -0.9156  0.1169 -0.0591
24866SOL     OW79408   4.145   7.684  10.561  0.3215 -0.2141 -0.1753
24866SOL    HW179409   4.191   7.764  10.584  2.9014 -1.8047  0.6299
24866SOL    HW279410   4.118   7.646  10.644  0.4683 -0.9158 -0.4390
24867SOL     OW79411   9.488   2.898   1.302  0.6191  0.1347  0.3862
24867SOL    HW179412   9.423   2.862   1.242  0.0049 -0.0804  1.1577
24867SOL    HW279413   9.567   2.848   1.285  0.7666  0.7603 -0.9490
24868SOL     OW79414   6.379  10.920   5.284 -0.3713 -0.2222  0.7429
24868SOL    HW179415   6.297  10.895   5.326 -1.1830  0.6033 -0.3029
24868SOL    HW279416   6.408  10.998   5.332 -1.4337  0.8759 -0.3388
24869SOL     OW79417   4.397   4.250   7.487  0.1881  0.1132  0.6607
24869SOL    HW179418   4.356   4.301   7.557 -1.5279 -0.6173  0.2663
24869SOL    HW279419   4.352   4.165   7.491  1.7710 -0.7698  0.2163
24870SOL     OW79420   0.058  10.353   2.488 -0.3574 -0.4769 -0.3771
24870SOL    HW179421  -0.030  10.350   2.450 -0.2551 -0.6115 -0.6046
24870SOL    HW279422   0.055  10.425   2.550 -0.8143 -0.8796  0.0751
24871SOL     OW79423   1.767   9.716  10.868  0.2753  0.1965  0.0574
24871SOL    HW179424   1.695   9.655  10.885  0.2139 -0.0253 -0.9328
24871SOL    HW279425   1.748   9.791  10.924  0.1691 -0.5417  1.0445
24872SOL     OW79426  10.712   1.888   1.420  0.2993  0.3008 -0.0704
24872SOL    HW179427  10.761   1.811   1.393 -0.9249 -0.3361 -0.5327
24872SOL    HW279428  10.778   1.958   1.424  1.5604 -0.8895  1.0621
24873SOL     OW79429   0.993   4.942  11.507  0.0678 -0.4790 -0.0616
24873SOL    HW179430   1.052   4.867  11.506 -0.7655 -1.2471  2.3322
24873SOL    HW279431   0.908   4.906  11.480 -0.2163 -0.3056  0.5837
24874SOL     OW79432   5.888   6.286   3.729 -0.2539  0.1858 -0.0839
24874SOL    HW179433   5.929   6.369   3.754 -0.7488  0.6218 -0.7086
24874SOL    HW279434   5.885   6.236   3.811  0.1339  0.7399  0.2793
24875SOL     OW79435   7.409   0.688   8.653  0.0213 -0.8579 -0.6285
24875SOL    HW179436   7.491   0.637   8.654 -0.6520 -1.9777  0.2984
24875SOL    HW279437   7.340   0.621   8.653 -0.8905  0.0717 -0.7721
24876SOL     OW79438  12.140   9.884   8.017 -0.2429  0.1234  0.2959
24876SOL    HW179439  12.201   9.819   7.982  0.1406  0.0489  1.0815
24876SOL    HW279440  12.195   9.959   8.038 -0.7055  0.7838 -0.7604
24877SOL     OW79441   6.083   2.674  11.297 -0.4344  0.0540 -0.2168
24877SOL    HW179442   6.001   2.631  11.273 -0.0580 -1.4323  1.0224
24877SOL    HW279443   6.145   2.646  11.230 -0.6354  0.2156 -0.4744
24878SOL     OW79444   1.143   4.359   6.817  0.3130  0.1107 -0.1026
24878SOL    HW179445   1.232   4.342   6.846  0.9529 -0.2085 -2.1187
24878SOL    HW279446   1.108   4.421   6.882  1.8713  0.0130  0.8797
24879SOL     OW79447   0.833   9.902   8.097 -0.3534  0.0352 -0.1341
24879SOL    HW179448   0.858   9.864   8.182  1.7039  1.7200  0.0976
24879SOL    HW279449   0.861   9.993   8.103 -0.2433  0.2156 -2.6185
24880SOL     OW79450   7.939   1.207   5.823 -0.3303 -0.0281 -0.5260
24880SOL    HW179451   7.889   1.256   5.888  1.3755  1.0464  0.0527
24880SOL    HW279452   7.946   1.268   5.749  0.6364  0.1015 -0.3420
24881SOL     OW79453  11.702   6.525  12.256  0.1030  0.6841  0.0941
24881SOL    HW179454  11.762   6.467  12.304  1.1351  2.6947  1.3866
24881SOL    HW279455  11.738   6.528  12.167 -0.3965 -1.1573 -0.2129
24882SOL     OW79456   7.113   3.812   8.037 -0.3029  0.0895 -0.1811
24882SOL    HW179457   7.208   3.813   8.029 -0.1664 -1.3715  0.8797
24882SOL    HW279458   7.096   3.764   8.118 -1.9663 -0.2359 -0.6866
24883SOL     OW79459   8.090   6.677   2.185 -0.2678 -0.9916  0.1427
24883SOL    HW179460   8.095   6.635   2.270 -0.6630 -1.2030  0.0666
24883SOL    HW279461   8.017   6.632   2.141  2.2338 -3.5470 -1.7713
24884SOL     OW79462   3.562   3.624  10.429 -0.3000  0.2317 -0.2649
24884SOL    HW179463   3.571   3.710  10.389 -1.8657  1.3849  1.6896
24884SOL    HW279464   3.474   3.594  10.404  0.0998 -0.6593 -0.6535
24885SOL     OW79465   5.817   2.405  10.715  0.2146 -0.3919 -0.7193
24885SOL    HW179466   5.882   2.475  10.704  0.0218  0.0908  0.9757
24885SOL    HW279467   5.734   2.451  10.722  0.2259 -0.6167  1.8043
24886SOL     OW79468   3.310   0.148   1.433 -0.1174  0.4798 -0.2181
24886SOL    HW179469   3.384   0.102   1.472 -1.3635 -1.3789  0.0965
24886SOL    HW279470   3.347   0.190   1.355  1.2839 -0.3358 -0.0343
24887SOL     OW79471   6.630   7.938  12.146 -0.4809  0.3565 -0.5066
24887SOL    HW179472   6.612   7.867  12.209  1.6332  1.8556  1.9830
24887SOL    HW279473   6.572   8.009  12.173  0.7882  1.1845  0.1098
24888SOL     OW79474  10.701   9.009   9.219 -0.1117  0.0894  0.3822
24888SOL    HW179475  10.758   9.054   9.282 -0.2863  1.1659 -0.2021
24888SOL    HW279476  10.762   8.960   9.163  0.1077 -0.1570  0.8334
24889SOL     OW79477  10.490   5.741   4.473  0.0656  0.3811  0.1167
24889SOL    HW179478  10.488   5.646   4.483 -0.6962  0.2094 -1.3725
24889SOL    HW279479  10.488   5.755   4.379  2.2900  1.8616  0.2105
24890SOL     OW79480   9.298   2.242   7.081  0.2727  0.2697  0.4037
24890SOL    HW179481   9.358   2.175   7.047 -1.3325 -0.7476 -0.5458
24890SOL    HW279482   9.334   2.325   7.048  1.5955 -0.2092  0.5566
24891SOL     OW79483  10.688   4.540  10.217  0.6574 -0.3407  0.1914
24891SOL    HW179484  10.704   4.502  10.303 -0.2790  0.0334  0.5468
24891SOL    HW279485  10.769   4.587  10.196  0.1707  1.3900  1.8614
24892SOL     OW79486   7.478  12.417  10.989 -0.4313  0.1895 -0.0698
24892SOL    HW179487   7.568  12.408  11.021 -0.9753 -0.2562  1.4545
24892SOL    HW279488   7.484  12.402  10.895  1.4310  2.5767 -0.4170
24893SOL     OW79489   6.549   3.979   2.873 -0.1426  0.1176 -0.2160
24893SOL    HW179490   6.562   4.074   2.879  1.7471  0.0100 -1.5590
24893SOL    HW279491   6.599   3.943   2.947  1.6102  0.0664 -1.3732
24894SOL     OW79492   9.147   4.053   2.610 -0.2275 -0.4806  0.7265
24894SOL    HW179493   9.143   4.148   2.596 -0.7366 -0.8198 -2.0074
24894SOL    HW279494   9.067   4.034   2.660 -0.7805  0.3871  0.2128
24895SOL     OW79495   6.472   7.907   0.539 -0.1186  0.4883  0.3204
24895SOL    HW179496   6.503   7.841   0.477  0.8450  0.5885  0.6813
24895SOL    HW279497   6.423   7.857   0.605 -1.2928  0.4006 -0.5883
24896SOL     OW79498   5.439   0.596   4.527 -0.3691 -0.3702  0.0887
24896SOL    HW179499   5.403   0.685   4.519  0.3930 -0.0187  0.4991
24896SOL    HW279500   5.362   0.539   4.521 -0.7583  0.2504 -1.2624
24897SOL     OW79501   7.804  10.044   4.237  0.0401 -0.1327 -0.4632
24897SOL    HW179502   7.768  10.133   4.237 -0.7915 -0.4273 -1.9427
24897SOL    HW279503   7.845  10.035   4.151  3.5065  0.0645  0.9913
24898SOL     OW79504   2.655   4.580   4.515 -0.4638 -0.0628 -0.8392
24898SOL    HW179505   2.689   4.649   4.458 -2.6851  1.4551 -0.4254
24898SOL    HW279506   2.651   4.621   4.602  0.8026 -1.6539  0.0375
24899SOL     OW79507   2.559   1.859   2.062  0.1883 -0.0190  0.4572
24899SOL    HW179508   2.581   1.951   2.046  1.9516 -0.6574 -1.1609
24899SOL    HW279509   2.497   1.862   2.135 -1.5916  2.5983 -0.9900
24900SOL     OW79510  12.192   8.428  10.304  0.0539 -0.1650 -0.4803
24900SOL    HW179511  12.166   8.371  10.232 -0.7012 -0.1910 -0.1884
24900SOL    HW279512  12.195   8.516  10.266  0.0560 -0.2356 -0.6413
24901SOL     OW79513   9.926  10.589   3.406 -0.0023 -0.4250  0.3059
24901SOL    HW179514   9.893  10.580   3.317 -0.1841 -0.4588  0.3756
24901SOL    HW279515   9.853  10.560   3.461  0.8936 -2.6820  0.4056
24902SOL     OW79516   9.245   6.105  11.504  0.7349 -0.2400  0.2452
24902SOL    HW179517   9.280   6.061  11.582 -0.4069 -0.7754  0.4705
24902SOL    HW279518   9.151   6.114  11.522  0.7198  1.0453 -0.4049
24903SOL     OW79519   0.486   4.199  11.710 -0.3950 -0.2801 -0.4312
24903SOL    HW179520   0.480   4.242  11.796 -1.2027 -0.9383 -0.1435
24903SOL    HW279521   0.531   4.263  11.655  1.0882 -0.2725  0.7452
24904SOL     OW79522  11.305   3.552   8.122 -0.5454 -0.6189 -0.0258
24904SOL    HW179523  11.396   3.524   8.133  0.1160  0.9371 -1.1958
24904SOL    HW279524  11.273   3.502   8.048  0.2444  0.7021 -1.3210
24905SOL     OW79525   1.177   7.294   0.109 -0.8986  0.5246 -0.2460
24905SOL    HW179526   1.082   7.303   0.102 -0.7903  1.1770 -0.9782
24905SOL    HW279527   1.207   7.284   0.019 -0.1672  1.4506 -0.1220
24906SOL     OW79528  11.977   1.771   5.496  0.1129  0.3119  0.2073
24906SOL    HW179529  11.927   1.835   5.446  1.5276  1.0124 -0.3751
24906SOL    HW279530  12.068   1.789   5.473  0.6531 -0.7876  1.3743
24907SOL     OW79531   1.316  11.858   7.856  0.1456 -0.2062  0.5056
24907SOL    HW179532   1.225  11.867   7.827  0.7028 -1.0609 -1.7980
24907SOL    HW279533   1.360  11.935   7.821  0.1574  0.7260  2.4809
24908SOL     OW79534   9.338   1.121   2.908  0.1005  0.3023  0.2174
24908SOL    HW179535   9.414   1.070   2.881  0.4010  0.0256  1.5516
24908SOL    HW279536   9.335   1.194   2.846  1.8810  0.7260  0.6058
24909SOL     OW79537   3.129   6.717   5.888  0.2681  0.6697 -0.0952
24909SOL    HW179538   3.140   6.625   5.862  0.3922  0.7337 -0.2777
24909SOL    HW279539   3.039   6.722   5.920 -0.3592  0.8738 -1.7916
24910SOL     OW79540   6.830   8.240   5.432  0.2613  0.1914  0.0534
24910SOL    HW179541   6.815   8.232   5.338  1.7444 -0.9175 -0.1384
24910SOL    HW279542   6.886   8.317   5.441  1.1613 -0.4182 -0.1409
24911SOL     OW79543   9.378   5.668   4.101  0.0002  0.1158 -0.4533
24911SOL    HW179544   9.390   5.686   4.007 -2.3515 -0.3904 -0.9064
24911SOL    HW279545   9.284   5.664   4.113  0.2147  0.8875  2.1193
24912SOL     OW79546  12.446   1.552   9.741 -0.3273 -0.2339  0.0745
24912SOL    HW179547  12.437   1.497   9.820  0.0923 -0.0819  0.2336
24912SOL    HW279548  12.371   1.610   9.744 -0.4106 -0.3478  0.2709
24913SOL     OW79549  11.643   3.435   5.205  0.4124 -0.5740 -0.2516
24913SOL    HW179550  11.666   3.428   5.297 -1.0461  2.4474  0.4838
24913SOL    HW279551  11.727   3.434   5.159  1.4335  1.1281  1.4423
24914SOL     OW79552   7.880  11.280   2.285  0.2393  0.0589 -0.1735
24914SOL    HW179553   7.826  11.266   2.363  0.0248 -0.4690 -0.4072
24914SOL    HW279554   7.960  11.230   2.302 -0.5976 -1.7193 -1.0826
24915SOL     OW79555   0.175   1.312   2.814  0.2379 -0.4624  0.5696
24915SOL    HW179556   0.173   1.393   2.866  0.5795 -0.5842  0.7770
24915SOL    HW279557   0.204   1.245   2.876 -0.1260 -0.7639  0.4213
24916SOL     OW79558   2.753   5.288   1.044  0.0798  0.3692 -1.0586
24916SOL    HW179559   2.680   5.329   1.090 -0.4484 -2.0235  0.3677
24916SOL    HW279560   2.722   5.278   0.954 -2.3193 -2.4970 -0.0630
24917SOL     OW79561   8.009  11.013   9.208 -0.1886  0.1737  0.3911
24917SOL    HW179562   7.948  11.021   9.135  1.7121  0.9262 -1.2033
24917SOL    HW279563   8.068  11.087   9.199  1.3174 -0.8161  1.5215
24918SOL     OW79564   3.614   7.880  11.630 -0.3260 -0.0466 -0.2614
24918SOL    HW179565   3.687   7.926  11.671  0.4811 -1.3521 -0.1694
24918SOL    HW279566   3.544   7.885  11.695  0.3885 -0.6278  0.5877
24919SOL     OW79567   7.645   7.108  10.395  0.2907 -0.1261 -0.1713
24919SOL    HW179568   7.716   7.075  10.340 -1.6360 -1.9195 -1.7244
24919SOL    HW279569   7.634   7.042  10.463  1.5290  1.2614  1.4654
24920SOL     OW79570   2.378   9.147  11.754  0.0525  0.2702 -0.3019
24920SOL    HW179571   2.298   9.101  11.779  0.7067 -0.4157  0.6127
24920SOL    HW279572   2.420   9.089  11.690  0.5564 -0.1236  0.3669
24921SOL     OW79573   0.491   2.805   3.940  1.0976  0.5300 -0.0926
24921SOL    HW179574   0.433   2.819   4.014  0.9209 -1.1850  0.1313
24921SOL    HW279575   0.577   2.792   3.979  1.0783  0.0441 -0.2030
24922SOL     OW79576   6.187   5.021   2.470  0.7870 -0.1824  0.1688
24922SOL    HW179577   6.261   4.960   2.476  0.4832 -0.7030 -1.1066
24922SOL    HW279578   6.124   4.987   2.534  0.6171 -1.2483 -0.5314
24923SOL     OW79579   2.025   2.726   1.722 -0.3749 -0.8022 -0.2401
24923SOL    HW179580   1.986   2.756   1.804  0.1148 -0.1028 -0.2584
24923SOL    HW279581   1.954   2.680   1.678 -0.7840 -0.7528  0.3567
24924SOL     OW79582   3.560   4.954   0.171  0.5603 -0.3410  0.4406
24924SOL    HW179583   3.520   4.878   0.213 -2.0106  1.2405  1.1410
24924SOL    HW279584   3.537   4.945   0.078  0.2480 -0.4245  0.5232
24925SOL     OW79585   6.799   5.571   4.687 -0.0752  0.2179  1.0134
24925SOL    HW179586   6.856   5.648   4.681 -1.8139  1.4918  0.1205
24925SOL    HW279587   6.712   5.602   4.663 -0.7638 -2.1499  0.0789
24926SOL     OW79588   3.738   7.049   6.752 -0.4858  0.4433 -0.5037
24926SOL    HW179589   3.675   6.983   6.722  1.4190 -1.2800 -0.9542
24926SOL    HW279590   3.813   6.998   6.783 -0.5140  2.2794  3.0969
24927SOL     OW79591   6.298   2.951   8.143 -0.0916 -0.2314  0.2265
24927SOL    HW179592   6.207   2.965   8.116 -0.8807  0.7335  3.0559
24927SOL    HW279593   6.336   3.038   8.146  1.1414 -0.6556 -1.3398
24928SOL     OW79594   1.630   0.281   1.365 -0.5206  0.2588 -1.1950
24928SOL    HW179595   1.713   0.234   1.361 -0.3998  0.2015  0.7716
24928SOL    HW279596   1.624   0.328   1.282  0.9042 -0.6724 -1.8510
24929SOL     OW79597   2.998   4.760   4.277  0.2006 -0.5115 -0.3015
24929SOL    HW179598   2.998   4.678   4.229 -1.3339 -1.7103  1.5638
24929SOL    HW279599   2.906   4.774   4.301  0.6726  0.7866  0.9514
24930SOL     OW79600   5.307   7.935   5.375  0.7567 -0.6296  0.3287
24930SOL    HW179601   5.364   7.998   5.417  2.3718 -1.7534 -0.0981
24930SOL    HW279602   5.245   7.988   5.324  1.0516  0.6180  1.2271
24931SOL     OW79603   0.129   2.682   3.163 -0.0165  0.2461  0.1776
24931SOL    HW179604   0.046   2.713   3.128  0.7087  0.8791 -1.0100
24931SOL    HW279605   0.161   2.619   3.098  1.5102  1.6913 -0.5205
24932SOL     OW79606   1.563   6.084   3.719  0.9359 -0.5548 -0.3905
24932SOL    HW179607   1.641   6.081   3.775  0.6136  1.7729  0.2976
24932SOL    HW279608   1.591   6.132   3.641  0.4833 -0.7742 -0.6953
24933SOL     OW79609   0.185   0.222   4.356 -0.2561 -0.7720  0.0555
24933SOL    HW179610   0.107   0.216   4.302  0.1132  0.1181 -0.6015
24933SOL    HW279611   0.247   0.161   4.316 -0.4175 -1.0614  0.2434
24934SOL     OW79612   2.698   1.217   6.813  0.0245  0.2992 -0.0186
24934SOL    HW179613   2.755   1.278   6.859 -1.5078  0.6928  1.4396
24934SOL    HW279614   2.662   1.160   6.881 -1.4085  0.1394 -0.8647
24935SOL     OW79615   0.503   0.329  12.114  0.0370 -0.2573  0.8715
24935SOL    HW179616   0.556   0.251  12.134  0.9533  0.2043  0.2897
24935SOL    HW279617   0.493   0.327  12.019 -1.3887 -0.5816  1.0196
24936SOL     OW79618   3.839   5.441   3.214  0.1058  0.1057  0.0121
24936SOL    HW179619   3.805   5.355   3.189  0.1820  0.4902 -1.5194
24936SOL    HW279620   3.934   5.430   3.213  0.1171  0.2125 -0.2386
24937SOL     OW79621   6.894   9.630   9.235 -0.1430 -0.2247  0.4057
24937SOL    HW179622   6.859   9.719   9.244 -0.5439 -0.4526  1.1997
24937SOL    HW279623   6.987   9.643   9.214 -0.3811  0.3777 -0.3288
24938SOL     OW79624   9.407  11.750   4.708  0.1364  0.0654  0.1557
24938SOL    HW179625   9.419  11.833   4.662 -1.1148  0.6742  0.8736
24938SOL    HW279626   9.475  11.750   4.776  0.0280  0.5769  0.2621
24939SOL     OW79627   7.921   3.900   8.876  0.0265 -0.1749 -0.3182
24939SOL    HW179628   7.983   3.827   8.883 -2.1685 -2.1744 -0.3994
24939SOL    HW279629   7.930   3.947   8.959  1.5491 -0.4437 -0.2998
24940SOL     OW79630   1.169   4.226   0.639  0.0778 -0.6560  0.0577
24940SOL    HW179631   1.203   4.314   0.656 -0.0568  0.1044 -3.0161
24940SOL    HW279632   1.242   4.167   0.658  0.0154  0.0076  2.6550
24941SOL     OW79633   0.459   6.657   2.942  0.0361 -0.4260  0.6356
24941SOL    HW179634   0.467   6.724   3.010  0.2611 -0.1422  0.3290
24941SOL    HW279635   0.365   6.653   2.925  0.0925  0.4069  0.0659
24942SOL     OW79636   4.627   2.246  10.837  0.3289  0.0939  0.3979
24942SOL    HW179637   4.552   2.257  10.778  1.1004  0.2854 -0.5616
24942SOL    HW279638   4.608   2.166  10.885 -0.2220 -0.1673 -0.2423
24943SOL     OW79639   2.673  10.006   3.866 -0.0152  0.2001  0.1572
24943SOL    HW179640   2.639   9.966   3.786 -1.5216 -0.6815  1.1965
24943SOL    HW279641   2.684  10.098   3.844  0.7736 -0.2379 -1.4224
24944SOL     OW79642   8.896   4.356  10.655  0.3490 -0.8712  0.6311
24944SOL    HW179643   8.975   4.400  10.623 -0.5520 -0.7349 -1.5621
24944SOL    HW279644   8.910   4.349  10.750  2.7681 -0.4391  0.3839
24945SOL     OW79645   2.566  11.176   3.913 -0.4043  0.2447 -1.0420
24945SOL    HW179646   2.625  11.204   3.983  0.9042 -0.7445 -1.6811
24945SOL    HW279647   2.598  11.222   3.835 -1.1833  0.5391 -1.1932
24946SOL     OW79648   3.297   6.008   8.064  0.1757 -0.4845  0.8084
24946SOL    HW179649   3.234   6.043   8.126 -0.0592 -0.4307  0.5378
24946SOL    HW279650   3.246   5.983   7.988  0.4104 -0.9296  0.7914
24947SOL     OW79651   2.638   3.708  11.374 -0.3399 -0.5617  0.1588
24947SOL    HW179652   2.654   3.643  11.305  1.1928  0.5762 -0.6261
24947SOL    HW279653   2.550   3.742  11.356  0.3490  0.3174 -1.8139
24948SOL     OW79654   3.183   3.298   5.210  0.4898 -0.0593 -0.1017
24948SOL    HW179655   3.087   3.294   5.208  0.5123 -1.5949  0.6538
24948SOL    HW279656   3.207   3.330   5.123 -0.6721 -0.3451 -0.5519
24949SOL     OW79657  10.627   1.532   0.991 -0.5169 -0.2321 -0.1281
24949SOL    HW179658  10.651   1.486   0.911 -0.7938  0.2467 -0.4830
24949SOL    HW279659  10.553   1.587   0.967 -0.3681  0.1950  0.3639
24950SOL     OW79660   5.377  10.455   7.601  0.4065 -0.4116  0.2026
24950SOL    HW179661   5.308  10.521   7.605  1.2899  0.7513 -1.9296
24950SOL    HW279662   5.428  10.468   7.681  0.5450  1.5266 -0.1600
24951SOL     OW79663   7.978  12.072  12.048 -0.3861 -0.2303 -0.5120
24951SOL    HW179664   7.903  12.040  12.098  0.1446  0.9745  1.1631
24951SOL    HW279665   8.045  12.091  12.115  0.0456  2.3435 -1.5324
24952SOL     OW79666   8.421  11.986   1.091 -0.2763  0.3547  0.3955
24952SOL    HW179667   8.506  11.973   1.132 -0.3866  2.0146  1.2287
24952SOL    HW279668   8.366  11.918   1.128  0.7827 -1.1150 -0.5889
24953SOL     OW79669  10.516   4.569   1.104 -0.1923  0.1614 -0.2063
24953SOL    HW179670  10.511   4.588   1.011 -0.3277 -1.6306 -0.5840
24953SOL    HW279671  10.449   4.503   1.119 -1.1318  1.3983  1.4510
24954SOL     OW79672   1.933   5.738   5.529  0.2759 -0.2117  0.1249
24954SOL    HW179673   1.972   5.723   5.615  1.2527 -2.6692 -0.6820
24954SOL    HW279674   1.873   5.665   5.516  2.6320 -1.8702 -2.6072
24955SOL     OW79675   2.939   1.205   8.529 -0.2062 -0.0850 -0.2067
24955SOL    HW179676   2.904   1.224   8.442  1.6203 -1.0968 -1.2205
24955SOL    HW279677   2.989   1.283   8.552 -0.4706  0.0746 -0.1602
24956SOL     OW79678   4.891   5.832   1.569  0.2257 -0.1653  0.0645
24956SOL    HW179679   4.854   5.801   1.652 -0.0592 -0.9037 -0.3334
24956SOL    HW279680   4.896   5.927   1.580  1.3648 -0.3489  1.4121
24957SOL     OW79681   8.562   4.876  12.644 -0.1293  0.2390  0.7220
24957SOL    HW179682   8.520   4.831  12.717  1.0947 -2.1688  0.0470
24957SOL    HW279683   8.639   4.918  12.683  0.3057 -0.7042  0.9025
24958SOL     OW79684   5.049  11.448   5.347  0.2129 -0.5718 -0.2365
24958SOL    HW179685   5.092  11.419   5.426 -1.0178 -0.1245  0.6359
24958SOL    HW279686   5.085  11.535   5.330 -1.3868  0.5038  1.4049
24959SOL     OW79687   6.846   7.023   6.025  0.2296 -0.3726  0.5358
24959SOL    HW179688   6.917   7.086   6.013 -0.7902  0.5363 -0.9383
24959SOL    HW279689   6.887   6.938   6.008  0.9867  0.1216 -0.1831
24960SOL     OW79690   5.134   6.242  11.472  0.0742  0.4081  0.1928
24960SOL    HW179691   5.105   6.213  11.385  2.0672  0.8213 -0.6817
24960SOL    HW279692   5.145   6.336  11.463  1.0209  0.3537  0.6375
24961SOL     OW79693   3.014   1.707   9.764  0.2263 -0.0044 -0.1375
24961SOL    HW179694   3.068   1.720   9.686 -0.2456 -0.0634 -0.4780
24961SOL    HW279695   2.984   1.616   9.759  0.5956 -0.1576  0.3727
24962SOL     OW79696   6.792   6.067   5.171  0.3445  0.3233  0.0333
24962SOL    HW179697   6.831   5.981   5.188 -2.4629 -1.0831 -0.1104
24962SOL    HW279698   6.734   6.082   5.246 -2.3079  0.0860 -1.8054
24963SOL     OW79699   7.140  10.738   9.830  0.2868  0.4789  0.7116
24963SOL    HW179700   7.202  10.809   9.813 -0.7384  0.8845 -1.7873
24963SOL    HW279701   7.068  10.780   9.877 -0.0380  0.9925 -0.2193
24964SOL     OW79702   7.029   7.083  11.987 -0.0830 -0.4151 -0.1541
24964SOL    HW179703   7.117   7.108  11.958 -0.8160  3.0759  0.1612
24964SOL    HW279704   7.032   7.088  12.082 -1.2481  3.1575 -0.1180
24965SOL     OW79705   4.989   8.443   9.899 -0.8792 -0.0212  0.0279
24965SOL    HW179706   5.032   8.360   9.919 -0.5658  0.2896  0.6884
24965SOL    HW279707   4.896   8.428   9.917 -0.4949  0.5905  3.0870
24966SOL     OW79708   1.318  10.283   8.475  0.6551  0.5774 -0.0136
24966SOL    HW179709   1.314  10.199   8.521 -1.4219  1.1230  0.9185
24966SOL    HW279710   1.325  10.259   8.383 -1.2214 -0.6870  0.1186
24967SOL     OW79711  11.190   7.975   7.155  0.4314  0.2307 -0.1356
24967SOL    HW179712  11.114   8.031   7.135 -1.4205 -2.3654 -0.8267
24967SOL    HW279713  11.222   7.946   7.070  0.7360 -0.5448  0.2365
24968SOL     OW79714   4.107   0.927   8.981  0.5293 -0.3208  0.3343
24968SOL    HW179715   4.096   0.843   9.025 -0.8559 -0.6517 -0.5653
24968SOL    HW279716   4.197   0.927   8.950  1.2762 -0.4629  2.3283
24969SOL     OW79717   3.756   8.418   1.144 -0.7395  0.1285  0.3318
24969SOL    HW179718   3.807   8.442   1.222  1.4502 -0.9372 -0.6959
24969SOL    HW279719   3.669   8.455   1.160 -0.0004  1.0036  2.7098
24970SOL     OW79720   6.892  10.293   4.696  0.4122  0.1378  0.4139
24970SOL    HW179721   6.803  10.259   4.702  0.9777 -1.3418  0.8977
24970SOL    HW279722   6.882  10.388   4.698 -1.2077  0.0180 -0.4899
24971SOL     OW79723   4.725   3.006   4.367 -0.3513 -0.6560  0.5585
24971SOL    HW179724   4.743   3.011   4.461  0.2100 -0.2117  0.4355
24971SOL    HW279725   4.633   3.031   4.358 -0.1004  0.4398  0.8877
24972SOL     OW79726   5.526   2.563   6.474  0.0319  0.3506 -0.7914
24972SOL    HW179727   5.560   2.480   6.443  0.0132 -0.4871  1.2614
24972SOL    HW279728   5.508   2.549   6.567 -1.9189  2.0352 -0.8259
24973SOL     OW79729   8.497   9.137   2.346  0.2711 -0.2875 -0.4423
24973SOL    HW179730   8.427   9.200   2.360  2.0290  1.2587  2.2671
24973SOL    HW279731   8.532   9.159   2.259  0.6687  2.4212  0.3146
24974SOL     OW79732   8.666   8.757   4.597  0.7019 -0.2729  0.6770
24974SOL    HW179733   8.597   8.814   4.562 -0.6981 -1.6973  1.0052
24974SOL    HW279734   8.622   8.705   4.665  2.3537 -0.5215  1.6126
24975SOL     OW79735   8.290   0.442  12.251 -0.1232 -0.3911  0.1666
24975SOL    HW179736   8.382   0.468  12.243 -0.0457 -0.8290 -0.4172
24975SOL    HW279737   8.288   0.352  12.217 -0.6193 -0.6787  0.9324
24976SOL     OW79738  11.836   6.337  12.374  0.4697 -0.2266 -0.1848
24976SOL    HW179739  11.824   6.300  12.462 -0.8416 -0.8471 -0.5928
24976SOL    HW279740  11.931   6.339  12.361  0.7894  1.2905  1.8139
24977SOL     OW79741   8.051  10.572   2.196  0.3650  0.6599  0.5291
24977SOL    HW179742   8.034  10.480   2.217  1.7188  0.5899  1.5300
24977SOL    HW279743   8.075  10.611   2.280 -0.0657  1.8999  0.0908
24978SOL     OW79744   5.614   3.040  12.474 -1.0552 -0.1008 -0.5119
24978SOL    HW179745   5.676   2.987  12.524 -0.1594  0.3041 -1.1713
24978SOL    HW279746   5.534   3.038  12.526 -0.0045  0.7545  1.2272
24979SOL     OW79747  11.180   9.516   3.537  0.1037  0.1868  0.2283
24979SOL    HW179748  11.226   9.468   3.468  0.5527  0.4031  0.3764
24979SOL    HW279749  11.130   9.583   3.490  0.6206  0.5082  0.1274
24980SOL     OW79750   5.851   3.749   5.962 -0.0617  0.9162 -0.2078
24980SOL    HW179751   5.761   3.780   5.951 -0.0589  1.2907  0.7500
24980SOL    HW279752   5.844   3.677   6.024  0.1729  0.2001 -0.9877
24981SOL     OW79753   8.714   3.235   7.341 -0.0066 -0.1665  0.2962
24981SOL    HW179754   8.683   3.318   7.378  0.9407 -0.3886  1.6426
24981SOL    HW279755   8.753   3.260   7.257 -0.6169  0.6039  0.2287
24982SOL     OW79756  10.466  11.261  11.976 -0.0389 -0.0728  0.1292
24982SOL    HW179757  10.556  11.290  11.963  0.3734 -0.9897  0.8262
24982SOL    HW279758  10.450  11.198  11.906  0.7573 -1.8327  1.4450
24983SOL     OW79759   5.012   1.142   1.318 -0.1392  0.1561 -0.0202
24983SOL    HW179760   4.935   1.197   1.328  0.0545  0.6966 -1.2611
24983SOL    HW279761   5.008   1.112   1.227  0.2980 -1.0708  0.3443
24984SOL     OW79762   8.920   7.011   0.480  0.0173 -0.1660  0.3006
24984SOL    HW179763   9.009   7.031   0.450  0.6228  2.9904  3.5244
24984SOL    HW279764   8.932   6.939   0.542  0.3258  0.1717  0.6387
24985SOL     OW79765  11.888  12.311  11.410 -0.3442  0.6876  0.3328
24985SOL    HW179766  11.880  12.221  11.377 -2.3688  1.4069 -1.3640
24985SOL    HW279767  11.910  12.301  11.502  1.6002 -1.4945 -0.2545
24986SOL     OW79768   1.385   7.535  10.077  0.0377  0.3274  0.2827
24986SOL    HW179769   1.451   7.600  10.102 -0.0407  0.6891 -0.4523
24986SOL    HW279770   1.355   7.500  10.161  0.9653  0.3510  0.6457
24987SOL     OW79771   3.519   8.699   5.394  0.0809 -0.4751 -0.8105
24987SOL    HW179772   3.593   8.750   5.362  1.0524 -0.8276  0.7499
24987SOL    HW279773   3.533   8.693   5.489 -0.9161 -2.1802 -0.7214
24988SOL     OW79774   3.739   4.013   7.614 -0.5399  0.0624 -0.7495
24988SOL    HW179775   3.714   3.959   7.689 -1.1379 -1.3134 -1.8945
24988SOL    HW279776   3.770   3.950   7.549 -1.3482  1.0798 -2.1642
24989SOL     OW79777  11.442   5.134   4.654  0.5908  0.0456  0.4466
24989SOL    HW179778  11.449   5.121   4.748  0.6149 -0.8461  0.3250
24989SOL    HW279779  11.377   5.203   4.644  0.2110 -0.2129  1.0934
24990SOL     OW79780   9.161   5.204   5.357 -0.0346 -0.8959 -0.1526
24990SOL    HW179781   9.253   5.196   5.332  0.0323 -0.6511  0.0095
24990SOL    HW279782   9.137   5.293   5.331 -0.4420 -1.2091 -0.9018
24991SOL     OW79783   3.909   9.242   2.830  0.0307  0.4194  0.3127
24991SOL    HW179784   3.925   9.173   2.766  1.8085  1.3504 -0.3084
24991SOL    HW279785   3.914   9.198   2.914  1.1380 -0.2139 -0.0699
24992SOL     OW79786   5.803   3.842   2.060  0.3423 -0.0913 -0.2558
24992SOL    HW179787   5.835   3.858   1.971  1.1618 -1.9808 -0.3477
24992SOL    HW279788   5.882   3.827   2.112 -0.1524  0.5614  0.7079
24993SOL     OW79789   7.075   7.397   8.096  0.0077 -0.2878 -0.1541
24993SOL    HW179790   6.999   7.390   8.154 -0.7696 -0.4720 -1.1653
24993SOL    HW279791   7.106   7.307   8.087 -0.1625 -0.3255 -0.3861
24994SOL     OW79792   6.560   1.898   3.235 -0.2253 -0.5760 -1.0466
24994SOL    HW179793   6.515   1.962   3.181  1.2550 -0.2355 -1.9169
24994SOL    HW279794   6.532   1.813   3.201 -2.2560 -0.4572  0.1616
24995SOL     OW79795   3.971   8.365   7.477 -0.6193  0.2365 -0.1074
24995SOL    HW179796   3.991   8.294   7.539  1.2540  1.0847  0.3407
24995SOL    HW279797   3.999   8.444   7.521 -0.8435  1.0550 -1.3751
24996SOL     OW79798   7.237   6.540   8.713  0.0626 -0.1304  0.4487
24996SOL    HW179799   7.173   6.490   8.764  0.8333 -0.2683  1.3071
24996SOL    HW279800   7.320   6.496   8.730  1.1284  2.5427  2.8195
24997SOL     OW79801  11.035  10.018   9.373 -0.2320 -0.2043 -0.4693
24997SOL    HW179802  10.975  10.067   9.317 -0.7067  0.4630  0.5732
24997SOL    HW279803  11.034  10.066   9.456 -1.0535 -2.2162  0.7570
24998SOL     OW79804   7.472   3.467   5.781  0.4679 -0.3351  0.8293
24998SOL    HW179805   7.478   3.490   5.688 -1.2690  1.1724  1.0532
24998SOL    HW279806   7.434   3.379   5.781  0.2460 -0.2492  0.1155
24999SOL     OW79807   6.804   7.017   9.060 -0.8259  0.6767 -0.2150
24999SOL    HW179808   6.744   6.957   9.104 -0.7817  1.7229  1.3742
24999SOL    HW279809   6.782   7.011   8.968 -1.8389 -0.6326  0.0925
25000SOL     OW79810   6.119   6.033  12.513  0.0021  0.4067 -0.3748
25000SOL    HW179811   6.061   6.105  12.488  0.4204  1.3756  1.2813
25000SOL    HW279812   6.069   5.954  12.493 -1.1839  1.1810 -0.5990
25001SOL     OW79813  12.191  10.802   5.478 -0.1448 -0.0900  0.3499
25001SOL    HW179814  12.188  10.749   5.558  0.1586  1.3686  1.3666
25001SOL    HW279815  12.115  10.860   5.485 -1.1065 -1.0952 -1.2860
25002SOL     OW79816   8.996   8.796   9.762 -0.0453 -0.5603 -0.7922
25002SOL    HW179817   9.073   8.795   9.818 -1.1787 -0.7494  0.8603
25002SOL    HW279818   8.951   8.714   9.783 -0.4291 -0.7195 -2.1324
25003SOL     OW79819  10.221   3.008   0.354  0.1977 -0.3036  0.3371
25003SOL    HW179820  10.311   3.033   0.374 -0.3597  1.6448  0.5683
25003SOL    HW279821  10.181   2.994   0.439  0.5529 -2.3794  0.2150
25004SOL     OW79822  11.698  12.447   3.544  0.0568 -0.4426  0.2847
25004SOL    HW179823  11.660  12.512   3.603  2.3496 -0.3601  1.8148
25004SOL    HW279824  11.678  12.363   3.584  0.0941 -0.4814  0.2225
25005SOL     OW79825   2.786   7.116   5.011  0.0051 -0.2875 -0.1746
25005SOL    HW179826   2.708   7.063   4.994 -1.5088  2.0674 -1.0185
25005SOL    HW279827   2.783   7.135   5.105  0.1651 -1.0500 -0.0068
25006SOL     OW79828   6.964   8.948   5.526 -0.0162  0.3121 -0.1440
25006SOL    HW179829   7.037   9.006   5.545  0.5368 -0.3886 -0.1164
25006SOL    HW279830   6.932   8.976   5.440  0.3346  0.5622 -0.1901
25007SOL     OW79831  11.582   1.679   2.974  0.3647  0.0600 -0.3090
25007SOL    HW179832  11.586   1.748   3.040 -1.6645  0.7935 -0.8826
25007SOL    HW279833  11.504   1.628   2.997  1.5186 -1.7605 -0.2065
25008SOL     OW79834   9.680   0.059   2.909 -0.4010  0.4653  0.4193
25008SOL    HW179835   9.716   0.006   2.980 -0.2400  1.2665  0.9485
25008SOL    HW279836   9.614   0.114   2.951 -0.6636  0.5899 -0.1456
25009SOL     OW79837  10.021   9.172   0.967  0.1356  0.5562  0.1952
25009SOL    HW179838   9.934   9.134   0.957  0.1573  0.3100  0.9205
25009SOL    HW279839  10.014   9.229   1.044  0.8186 -0.0645  0.7262
25010SOL     OW79840   2.983   2.354   5.507 -0.0854 -0.1890 -0.0865
25010SOL    HW179841   3.062   2.317   5.467  0.1190 -0.0370  0.1736
25010SOL    HW279842   3.013   2.432   5.553 -0.0240 -1.2420  1.7367
25011SOL     OW79843  12.120   0.699  11.226  0.2234  0.4072  0.0474
25011SOL    HW179844  12.121   0.762  11.298  1.1756  0.7067 -0.2105
25011SOL    HW279845  12.102   0.615  11.268  1.5127  0.4577  0.7526
25012SOL     OW79846   7.779  11.617   0.940 -1.0655 -0.2307 -0.5322
25012SOL    HW179847   7.760  11.604   0.847 -2.5750 -3.2463  0.0760
25012SOL    HW279848   7.693  11.619   0.982 -0.4939 -3.5602  1.1964
25013SOL     OW79849   9.522  12.404   5.347  0.3232  0.1795  0.0067
25013SOL    HW179850   9.593  12.341   5.334  1.2777  1.2906 -0.3479
25013SOL    HW279851   9.487  12.418   5.260  0.0764  0.1066  0.0939
25014SOL     OW79852  10.866  11.126   9.429 -0.5039 -0.2344  0.2975
25014SOL    HW179853  10.882  11.170   9.346 -0.0646  0.1184  0.5610
25014SOL    HW279854  10.856  11.033   9.406 -1.2319 -0.0218 -0.2336
25015SOL     OW79855   8.865  10.575   3.203  0.9910 -0.0092  0.3172
25015SOL    HW179856   8.770  10.586   3.211  0.8774 -1.0896  0.6474
25015SOL    HW279857   8.879  10.481   3.205  2.1544  0.1480  1.2573
25016SOL     OW79858  10.121   5.064   6.524  0.2402 -0.3382 -0.5592
25016SOL    HW179859  10.115   5.005   6.600 -0.7757 -0.1910 -0.5141
25016SOL    HW279860  10.047   5.040   6.469 -0.0585  0.7378 -0.6483
25017SOL     OW79861  10.234   8.576  12.278  0.0807  0.1511 -0.4590
25017SOL    HW179862  10.303   8.555  12.340  0.0908  2.3461  0.3742
25017SOL    HW279863  10.153   8.544  12.319  0.5187 -2.5929 -1.5214
25018SOL     OW79864   5.061   3.806  10.464 -0.1272  0.5094  0.7805
25018SOL    HW179865   4.994   3.741  10.485  0.5549 -0.6717 -0.5101
25018SOL    HW279866   5.141   3.771  10.504 -0.2242  1.8392  2.1981
25019SOL     OW79867   3.220   2.482   2.281  0.3124 -0.0666  0.5532
25019SOL    HW179868   3.254   2.544   2.216  1.2742  0.1359  1.2383
25019SOL    HW279869   3.279   2.407   2.276  0.1896 -0.1934  0.9562
25020SOL     OW79870   7.429  11.049   7.957 -0.3222  0.4827 -0.2277
25020SOL    HW179871   7.500  10.997   7.995 -1.2023 -0.5005  0.1056
25020SOL    HW279872   7.463  11.078   7.873  0.5698  0.2557  0.0387
25021SOL     OW79873   9.647   0.742  10.153 -0.2468 -0.3579 -0.6388
25021SOL    HW179874   9.578   0.750  10.218 -0.0108  1.1524 -0.5383
25021SOL    HW279875   9.621   0.668  10.099 -0.8062 -1.1787  0.7293
25022SOL     OW79876   3.492   8.068   7.079 -0.1946 -0.0271 -0.0117
25022SOL    HW179877   3.539   8.012   7.140 -0.1350 -0.0367 -0.0660
25022SOL    HW279878   3.501   8.156   7.115  1.2295  0.2132 -0.8365
25023SOL     OW79879   8.134   4.703   2.503  0.4615  0.3560  0.1788
25023SOL    HW179880   8.053   4.683   2.456 -0.3955 -0.0856  1.7994
25023SOL    HW279881   8.203   4.668   2.447 -0.4401  0.6973 -1.2131
25024SOL     OW79882   2.495   1.057   3.415  0.5144  0.0635  0.1219
25024SOL    HW179883   2.554   1.046   3.340 -0.2622  0.8681 -0.6258
25024SOL    HW279884   2.436   1.127   3.389 -0.0167  0.0939  1.3477
25025SOL     OW79885   3.963   3.742   9.083  0.2324 -0.3860 -0.9344
25025SOL    HW179886   3.990   3.687   9.009  0.8147 -2.4524  0.7370
25025SOL    HW279887   3.888   3.696   9.120 -0.6484  1.1373 -0.7590
25026SOL     OW79888   6.720   2.858   4.094  0.2778  0.0722  0.2765
25026SOL    HW179889   6.737   2.930   4.155 -3.6390  1.4903  0.0200
25026SOL    HW279890   6.674   2.793   4.147 -0.4262 -0.0719 -0.4963
25027SOL     OW79891   9.944   7.304   8.612 -0.3962  0.4147 -0.4253
25027SOL    HW179892   9.864   7.252   8.616 -0.6155  0.7832 -0.0363
25027SOL    HW279893  10.003   7.253   8.556 -1.6436  1.1279 -2.5115
25028SOL     OW79894   2.651   6.362   8.000 -0.6918 -0.1436 -0.0144
25028SOL    HW179895   2.717   6.298   8.025 -1.4396 -0.7209  0.5446
25028SOL    HW279896   2.570   6.311   7.991 -1.3978  0.7619  0.8769
25029SOL     OW79897   2.945   6.760   1.400  0.8515 -0.0337 -0.1877
25029SOL    HW179898   2.930   6.703   1.475 -0.3658  1.3839  0.7144
25029SOL    HW279899   3.037   6.748   1.377  1.2595 -0.4528  1.5718
25030SOL     OW79900   0.506  10.090   2.416  0.0762 -0.4466  0.0682
25030SOL    HW179901   0.473  10.022   2.357 -0.2095 -0.6741  0.4829
25030SOL    HW279902   0.428  10.133   2.450  0.1931 -0.8350  0.8797
25031SOL     OW79903   5.316   4.068   0.087  0.1559  0.0064  0.5768
25031SOL    HW179904   5.372   3.998   0.055  0.6707  0.6489  0.0484
25031SOL    HW279905   5.377   4.137   0.114 -0.3766  0.6786  0.0743
25032SOL     OW79906   3.597   6.808   3.354 -0.7762  0.9662 -0.2010
25032SOL    HW179907   3.564   6.748   3.421 -2.5287 -1.2708 -2.8376
25032SOL    HW279908   3.675   6.764   3.319  1.0170  2.8218  1.1947
25033SOL     OW79909   8.900  11.664   4.026 -0.4565 -0.1158  0.7531
25033SOL    HW179910   8.936  11.751   4.040 -0.5133 -0.2252  1.5987
25033SOL    HW279911   8.972  11.615   3.986 -0.9428  0.7587 -1.3280
25034SOL     OW79912   5.736   4.284  10.647 -0.5541 -0.6512  0.2553
25034SOL    HW179913   5.800   4.271  10.577 -0.2268  1.3860  0.1141
25034SOL    HW279914   5.661   4.231  10.620 -0.1005 -0.6072 -1.2115
25035SOL     OW79915   3.977   3.711   8.605  0.1763  0.6428  0.4155
25035SOL    HW179916   3.935   3.754   8.680  0.9186 -0.7075  1.6523
25035SOL    HW279917   3.936   3.624   8.601 -0.0379  0.7782 -0.9291
25036SOL     OW79918   6.080  11.749   8.905  0.1797  0.2276 -0.3382
25036SOL    HW179919   6.066  11.668   8.857  0.0170 -0.5609  0.9703
25036SOL    HW279920   6.129  11.805   8.845  0.2324 -0.8081 -1.2951
25037SOL     OW79921   1.048   4.579   2.498 -0.0368 -0.3756 -0.0083
25037SOL    HW179922   1.143   4.580   2.485  0.0882 -0.2647  0.8223
25037SOL    HW279923   1.019   4.496   2.461  0.7160 -1.5002  1.7715
25038SOL     OW79924   4.546   3.660   0.121 -0.2900  0.4320  0.3291
25038SOL    HW179925   4.482   3.592   0.101 -0.1691  0.4532 -0.1280
25038SOL    HW279926   4.628   3.626   0.086 -0.0001  0.2979  1.1182
25039SOL     OW79927   1.728   0.490   4.038  0.6036  0.8684  0.0111
25039SOL    HW179928   1.671   0.528   4.104 -0.3886  2.3255 -1.5972
25039SOL    HW279929   1.775   0.420   4.084 -0.0801  1.7616  2.2003
25040SOL     OW79930   1.544   7.496   6.732 -0.4014  0.4218 -0.3074
25040SOL    HW179931   1.592   7.417   6.706  0.7739  1.4945 -1.5892
25040SOL    HW279932   1.462   7.464   6.769 -1.0840 -1.3589 -3.0692
25041SOL     OW79933   3.558   9.278  10.138  0.0900 -0.2854  0.0149
25041SOL    HW179934   3.471   9.252  10.106 -0.5969 -0.5711  1.9103
25041SOL    HW279935   3.550   9.270  10.234  1.5354  1.7916  0.3577
25042SOL     OW79936  11.807   6.335   2.103 -0.4410 -0.1375  0.1199
25042SOL    HW179937  11.734   6.372   2.054 -1.6958 -1.7664  0.6531
25042SOL    HW279938  11.805   6.380   2.187 -0.8961 -0.2223  0.1580
25043SOL     OW79939   9.972   8.852  12.552  0.5939 -0.0182  0.0191
25043SOL    HW179940  10.016   8.813  12.477 -1.5138 -0.8354 -0.8324
25043SOL    HW279941   9.960   8.780  12.613  1.3174  0.4271  0.7206
25044SOL     OW79942   4.358   6.982   8.772  0.0540 -0.1705 -0.2057
25044SOL    HW179943   4.403   7.052   8.724 -1.6140  0.8218 -0.3901
25044SOL    HW279944   4.421   6.955   8.839  1.1585  0.7093 -0.8437
25045SOL     OW79945  11.514   5.489   4.871  0.1116  0.3257 -0.6630
25045SOL    HW179946  11.533   5.448   4.955 -2.9767 -0.3740 -0.1961
25045SOL    HW279947  11.538   5.423   4.806  0.9896  0.2423 -0.2690
25046SOL     OW79948  10.981   9.701   3.432 -0.2887 -0.0788  0.2308
25046SOL    HW179949  10.910   9.659   3.481 -0.0305  0.6965  1.3072
25046SOL    HW279950  10.962   9.794   3.438  0.3695  0.0862 -0.2053
25047SOL     OW79951   4.625   3.872   2.472 -0.7914  0.2234  0.0727
25047SOL    HW179952   4.697   3.868   2.534  0.6074 -0.7020 -1.5289
25047SOL    HW279953   4.570   3.797   2.494 -0.5980  0.2062  0.5127
25048SOL     OW79954   1.445   4.284   9.442  0.2623  0.2676  0.0067
25048SOL    HW179955   1.367   4.294   9.496  0.7246  2.8255  0.3715
25048SOL    HW279956   1.414   4.245   9.361 -0.8711 -1.3843  1.1663
25049SOL     OW79957   2.580   4.372   1.952  0.6247 -0.0646 -0.2083
25049SOL    HW179958   2.652   4.423   1.914 -0.1332  0.7486 -0.5727
25049SOL    HW279959   2.526   4.436   1.998 -0.6588 -0.4286 -1.1555
25050SOL     OW79960   7.800   7.181  11.514  0.3415  0.0311 -0.0731
25050SOL    HW179961   7.730   7.116  11.507  1.4069 -1.1020 -0.7523
25050SOL    HW279962   7.774   7.251  11.454 -1.0022  0.4524  0.9369
25051SOL     OW79963   5.330  11.573   7.437  0.0345 -0.2521 -0.7222
25051SOL    HW179964   5.410  11.555   7.487 -0.3735 -0.7514 -0.2353
25051SOL    HW279965   5.265  11.595   7.504 -0.7822 -1.9023 -0.9227
25052SOL     OW79966  11.228   0.439  12.448 -0.2176 -0.8860  0.2384
25052SOL    HW179967  11.171   0.487  12.388 -0.1694 -0.4598  0.5249
25052SOL    HW279968  11.308   0.491  12.451 -0.6515 -0.2699  1.5674
25053SOL     OW79969  10.469   6.555   6.027  0.0004 -0.7455  0.2052
25053SOL    HW179970  10.480   6.535   6.120  1.1858  1.1275  0.5341
25053SOL    HW279971  10.474   6.470   5.983 -2.9928 -1.9599  1.9742
25054SOL     OW79972   5.752   3.596   9.904  0.0439 -0.4313  0.1224
25054SOL    HW179973   5.836   3.620   9.945 -0.1106  1.6904 -0.6658
25054SOL    HW279974   5.777   3.540   9.830  0.6865 -0.6546  0.5002
25055SOL     OW79975   0.206   3.221   6.866  0.0509 -0.1099  0.3635
25055SOL    HW179976   0.181   3.215   6.774  0.8662  0.3604  0.1004
25055SOL    HW279977   0.302   3.220   6.865  0.1130  1.3990  1.0770
25056SOL     OW79978   4.408   4.857   7.007  0.0676  0.6115  0.4897
25056SOL    HW179979   4.366   4.774   7.031 -1.9621  1.1334 -1.0138
25056SOL    HW279980   4.439   4.842   6.918 -0.0381  1.3860  0.3223
25057SOL     OW79981   0.027   8.377  11.296  0.3910 -0.2322  0.2442
25057SOL    HW179982  -0.000   8.446  11.234 -0.8291 -0.6780  0.2539
25057SOL    HW279983   0.120   8.364  11.278  0.1750 -0.0051 -1.1820
25058SOL     OW79984   4.885  12.622   0.338 -0.3123 -0.4236 -0.6278
25058SOL    HW179985   4.811  12.580   0.295 -0.4205  0.1068 -0.9678
25058SOL    HW279986   4.894  12.707   0.293 -1.4982  0.9079  1.4919
25059SOL     OW79987   5.381   3.323   1.267  0.0795 -0.3310 -0.4107
25059SOL    HW179988   5.293   3.353   1.244 -1.0455 -2.5643  0.6260
25059SOL    HW279989   5.384   3.330   1.362  1.8348  1.6077 -0.5415
25060SOL     OW79990   0.632   6.011   1.325  0.3834 -0.1847  0.6500
25060SOL    HW179991   0.616   5.927   1.283  0.0827  0.4474 -0.5548
25060SOL    HW279992   0.722   6.034   1.301 -0.9315  1.9196 -2.9670
25061SOL     OW79993   8.935  12.240   1.755  0.3318  0.5355 -0.4470
25061SOL    HW179994   8.861  12.270   1.807 -0.2146 -0.7226 -0.4643
25061SOL    HW279995   8.915  12.148   1.736  2.6365 -0.3615  0.9511
25062SOL     OW79996   4.338   8.626   3.502 -0.0036 -0.0340  0.1340
25062SOL    HW179997   4.286   8.699   3.468 -0.1423  0.2834  0.9948
25062SOL    HW279998   4.426   8.643   3.470 -0.3068 -0.2656 -0.8576
25063SOL     OW79999  10.086   1.458   0.994 -0.0126  0.2656  0.1232
25063SOL    HW180000  10.098   1.516   1.069 -0.7213 -0.3349  0.7242
25063SOL    HW280001  10.168   1.407   0.990 -0.4720 -0.6328  1.3450
25064SOL     OW80002   5.140   6.413   4.340 -0.1520 -0.3791 -0.5945
25064SOL    HW180003   5.047   6.431   4.352 -0.4534 -0.2355 -2.6780
25064SOL    HW280004   5.178   6.497   4.317  0.7431 -0.2189  1.3550
25065SOL     OW80005   9.046   4.626   2.289 -0.6888  0.0237  0.5046
25065SOL    HW180006   8.995   4.706   2.299 -0.1400  0.7204 -1.8064
25065SOL    HW280007   9.004   4.579   2.217  2.9005  1.5695 -2.9024
25066SOL     OW80008   8.172   9.410   5.670  0.1644  0.0150 -0.2929
25066SOL    HW180009   8.097   9.353   5.681  0.5634 -0.3904  0.3441
25066SOL    HW280010   8.247   9.351   5.661  0.4471  0.4164 -0.6567
25067SOL     OW80011   8.369   3.505   2.499  0.0718 -0.5568 -0.0390
25067SOL    HW180012   8.436   3.573   2.491 -0.7701  0.1760 -1.0872
25067SOL    HW280013   8.383   3.468   2.586  0.3023  1.2315  0.7281
25068SOL     OW80014  11.024  11.420   9.337  0.2453  0.3054 -0.6400
25068SOL    HW180015  10.987  11.424   9.249 -1.3674 -1.0780 -0.0928
25068SOL    HW280016  11.007  11.507   9.374 -0.3105  0.4592 -1.2378
25069SOL     OW80017   6.120   4.096  11.322  0.3363 -0.2317 -0.0446
25069SOL    HW180018   6.167   4.040  11.384  0.4260  0.0994  0.1848
25069SOL    HW280019   6.189   4.133  11.267  0.2169 -0.9287 -0.6807
25070SOL     OW80020   4.881   4.545   3.574  0.1076 -0.1607  0.5471
25070SOL    HW180021   4.852   4.623   3.527  0.3766  0.1853  0.9514
25070SOL    HW280022   4.901   4.576   3.662 -2.8128 -1.2207  1.7316
25071SOL     OW80023   5.196   2.560   9.623  0.3094  0.6407 -0.3669
25071SOL    HW180024   5.126   2.571   9.559 -0.4698 -0.2449  0.3040
25071SOL    HW280025   5.274   2.595   9.580 -0.5467  1.7266 -1.1014
25072SOL     OW80026   0.709  10.692  10.991  0.4458  0.2087  0.3718
25072SOL    HW180027   0.769  10.742  10.937  0.2070 -0.4699 -0.5455
25072SOL    HW280028   0.748  10.605  10.997  0.6797  0.3793  1.6559
25073SOL     OW80029  12.357   5.659  11.973  0.0031 -0.0434 -0.2838
25073SOL    HW180030  12.322   5.570  11.974 -1.8331  0.6306 -0.1537
25073SOL    HW280031  12.432   5.656  12.033  0.3958 -1.6335 -0.8035
25074SOL     OW80032  10.069   7.785   8.622  0.0906 -0.3070  0.0235
25074SOL    HW180033   9.996   7.807   8.680  0.0382  0.9559 -0.4707
25074SOL    HW280034  10.032   7.792   8.534  0.6819 -0.1081 -0.2140
25075SOL     OW80035   2.202   7.260   4.112 -0.9844  0.5177  0.0635
25075SOL    HW180036   2.229   7.259   4.020  0.6337  1.0617  0.4893
25075SOL    HW280037   2.247   7.336   4.149 -2.3163  0.8204  1.1152
25076SOL     OW80038   6.950   2.790   2.618  0.0264  0.3722  0.3074
25076SOL    HW180039   6.894   2.741   2.679 -0.3264  0.3787 -0.0074
25076SOL    HW280040   7.033   2.743   2.619 -0.0881  0.1693  0.5296
25077SOL     OW80041   1.869   7.270  12.075 -0.9218 -0.2899 -0.7686
25077SOL    HW180042   1.936   7.262  12.008  0.6108  2.8672  0.1868
25077SOL    HW280043   1.788   7.285  12.026 -0.1076  0.4275 -1.9344
25078SOL     OW80044   1.786   3.870   8.332  0.0112 -0.0857  0.7217
25078SOL    HW180045   1.705   3.849   8.285  1.6224 -3.1685 -0.9756
25078SOL    HW280046   1.757   3.891   8.421 -2.6296 -1.7613  0.3818
25079SOL     OW80047   7.110  11.387   8.422  0.0955 -0.0883  0.1873
25079SOL    HW180048   7.106  11.472   8.464 -0.3704  0.0458 -0.1176
25079SOL    HW280049   7.168  11.399   8.347  0.3663 -0.1484  0.3867
25080SOL     OW80050   5.093   5.943  10.748 -0.6579 -0.2554  0.4573
25080SOL    HW180051   5.147   6.019  10.726 -0.5375 -0.2077  0.9120
25080SOL    HW280052   5.051   5.919  10.665  0.9387 -1.0185 -0.1614
25081SOL     OW80053  11.310  10.814   0.997 -0.1803 -0.2033 -0.0881
25081SOL    HW180054  11.323  10.908   1.010  2.9941 -0.6147  0.4384
25081SOL    HW280055  11.282  10.806   0.905  0.6629  1.1719 -0.4924
25082SOL     OW80056   8.290   7.239   3.667  0.0470  0.1120 -0.4525
25082SOL    HW180057   8.303   7.152   3.631  2.0725  0.1109  0.1539
25082SOL    HW280058   8.256   7.291   3.594 -1.4637 -1.2149 -0.7421
25083SOL     OW80059   5.212  11.865  11.290 -0.7427 -0.1218 -0.2382
25083SOL    HW180060   5.215  11.797  11.222 -1.7854  1.8663 -2.4229
25083SOL    HW280061   5.195  11.946  11.242  0.4402  1.7287  2.2562
25084SOL     OW80062  10.347   8.263   6.504 -0.1910  0.1355  0.1018
25084SOL    HW180063  10.396   8.304   6.576  1.6237 -0.8545 -0.5101
25084SOL    HW280064  10.316   8.180   6.540 -0.3771  0.2059  0.1088
25085SOL     OW80065  12.262   2.194   5.018 -0.0835 -0.0139  0.1018
25085SOL    HW180066  12.240   2.154   5.102  0.5593  0.9944  0.7671
25085SOL    HW280067  12.224   2.281   5.021  1.0959  0.5271 -0.0815
25086SOL     OW80068   3.488   4.065   1.753  0.3085 -0.1513 -0.5991
25086SOL    HW180069   3.459   4.115   1.676 -1.6822  1.5691  1.1264
25086SOL    HW280070   3.525   4.131   1.812 -0.9806 -0.8714  1.1107
25087SOL     OW80071   6.754   4.116  11.491 -0.4570 -0.4213  0.2358
25087SOL    HW180072   6.728   4.048  11.553  0.1951 -0.7615  0.1448
25087SOL    HW280073   6.694   4.188  11.508  0.2018 -0.2054  1.8041
25088SOL     OW80074   7.628   4.462   7.046  1.0190  0.3705  0.1076
25088SOL    HW180075   7.649   4.528   7.112  0.2734 -0.3192  1.0641
25088SOL    HW280076   7.533   4.469   7.034  1.0610  0.0619 -0.4326
25089SOL     OW80077   4.751   1.325   9.123 -0.2280  0.4981 -0.1017
25089SOL    HW180078   4.742   1.257   9.190 -1.1117 -0.2326 -0.9329
25089SOL    HW280079   4.773   1.278   9.043  1.6312  1.4342 -0.1978
25090SOL     OW80080  11.761  11.161  11.277  0.0296  0.0219  0.1916
25090SOL    HW180081  11.764  11.257  11.284 -2.6374  0.3412 -1.5548
25090SOL    HW280082  11.837  11.138  11.224  0.1192  1.2957 -0.2720
25091SOL     OW80083  11.033   4.045   9.133 -0.6136 -0.2426  0.2669
25091SOL    HW180084  11.073   3.960   9.114 -1.9009 -0.4783 -1.6533
25091SOL    HW280085  10.989   4.070   9.051 -3.3761  0.5238  1.8367
25092SOL     OW80086   7.960   6.999   9.164 -0.0417 -0.3325 -0.5080
25092SOL    HW180087   7.977   7.035   9.077  0.2151 -3.0461 -1.6914
25092SOL    HW280088   7.864   6.993   9.168 -0.1083  0.7890 -0.1308
25093SOL     OW80089  10.143   4.770   2.193 -0.2224  0.3661 -0.3836
25093SOL    HW180090  10.099   4.730   2.268 -0.4787  1.1900 -0.0849
25093SOL    HW280091  10.230   4.730   2.192 -0.5042 -0.2617 -0.1498
25094SOL     OW80092   3.035  10.343   7.150 -0.0698 -0.7966 -0.6154
25094SOL    HW180093   3.056  10.338   7.243  1.5859  1.9794 -0.7468
25094SOL    HW280094   2.973  10.416   7.143  0.1847 -0.6630 -1.7337
25095SOL     OW80095   2.244  12.495   6.264  0.2275  0.3731  0.0533
25095SOL    HW180096   2.259  12.587   6.241  1.2284 -0.0566 -1.1316
25095SOL    HW280097   2.188  12.499   6.341  1.5086  2.0132  0.9831
25096SOL     OW80098   9.959   7.231   0.390 -0.3750  0.1849  0.0564
25096SOL    HW180099   9.982   7.139   0.400  0.5525  0.0996 -2.2108
25096SOL    HW280100   9.863   7.232   0.385 -0.3708 -0.7183 -0.3540
25097SOL     OW80101   3.715   1.675   2.326 -0.1516 -0.0718  0.2230
25097SOL    HW180102   3.674   1.678   2.413 -0.2919 -0.3811  0.1679
25097SOL    HW280103   3.784   1.741   2.330 -0.7397  0.5507  0.2730
25098SOL     OW80104   6.515   8.807   4.839  0.1212  0.4419  0.2617
25098SOL    HW180105   6.436   8.817   4.785  0.1905 -1.1523 -0.1700
25098SOL    HW280106   6.514   8.884   4.896 -2.0866  0.1769  0.6954
25099SOL     OW80107  10.805  11.820   1.211  0.3440 -0.5509  0.3144
25099SOL    HW180108  10.714  11.792   1.221  0.3144 -1.4856 -1.9290
25099SOL    HW280109  10.857  11.745   1.238  0.3684 -0.9458 -0.7776
25100SOL     OW80110   2.369   5.239   5.574 -0.2041  0.4404  0.1246
25100SOL    HW180111   2.396   5.166   5.629  0.4612  0.3139 -0.3677
25100SOL    HW280112   2.428   5.310   5.598  0.7104  0.1176 -1.0602
25101SOL     OW80113   2.127   3.574   9.425  0.6734  0.2396  0.6432
25101SOL    HW180114   2.195   3.509   9.406  0.0194  0.6586 -4.8108
25101SOL    HW280115   2.047   3.522   9.439  0.7099 -0.2965 -0.8778
25102SOL     OW80116   3.691  12.402   1.153 -0.5040 -0.2069  0.1011
25102SOL    HW180117   3.685  12.313   1.188 -1.6875 -0.3633 -0.4571
25102SOL    HW280118   3.608  12.443   1.175 -0.8468  0.0413 -1.5259
25103SOL     OW80119   7.409  11.385  11.518 -0.9061  0.2337  0.2952
25103SOL    HW180120   7.478  11.320  11.504 -2.2018 -0.8128 -1.6940
25103SOL    HW280121   7.353  11.347  11.585 -1.1562 -0.3173 -0.2136
25104SOL     OW80122  11.331   3.527  12.512  0.0333  0.2204 -0.3910
25104SOL    HW180123  11.356   3.436  12.527 -0.5287 -0.1146 -1.4331
25104SOL    HW280124  11.405   3.578  12.546  0.3620 -0.6188  0.1727
25105SOL     OW80125  12.476  12.349   1.745  0.8398  0.0472  0.4494
25105SOL    HW180126  12.425  12.408   1.690  0.9801 -0.2202  0.0339
25105SOL    HW280127  12.416  12.276   1.765  1.0978 -0.3353 -0.1526
25106SOL     OW80128   4.473  10.513   2.447  0.1438  0.1362 -0.4709
25106SOL    HW180129   4.544  10.501   2.385  0.3914 -0.2400 -0.1230
25106SOL    HW280130   4.421  10.584   2.411  0.3845  0.0420 -1.0152
25107SOL     OW80131   3.002   2.032   0.423 -0.3837  0.4144 -0.2985
25107SOL    HW180132   2.944   2.062   0.353 -0.5519 -0.7242 -0.6843
25107SOL    HW280133   3.041   2.111   0.459 -0.8899  1.0756 -1.1758
25108SOL     OW80134  12.146   2.442   5.049 -0.1027 -0.4111 -0.6166
25108SOL    HW180135  12.192   2.511   5.001  0.1284 -0.3789 -0.3537
25108SOL    HW280136  12.063   2.432   5.003 -0.2827  0.2858 -0.4492
25109SOL     OW80137   5.906   2.667   9.011  0.2720  0.1113  0.8861
25109SOL    HW180138   5.864   2.711   9.085 -0.6705  1.2154 -0.2424
25109SOL    HW280139   5.858   2.584   9.002  0.2827  0.0498  1.4123
25110SOL     OW80140  10.847   9.293   6.948 -0.0731 -0.1542 -0.8531
25110SOL    HW180141  10.926   9.281   6.895  1.1953  1.2841  0.5959
25110SOL    HW280142  10.824   9.385   6.935 -1.3651 -0.4947 -1.0303
25111SOL     OW80143   8.716   4.481   3.624 -0.3002 -0.1475  0.4183
25111SOL    HW180144   8.642   4.428   3.654 -0.5944 -0.7106 -1.1711
25111SOL    HW280145   8.791   4.422   3.627 -0.4780 -0.4502 -0.6118
25112SOL     OW80146   7.975   8.068   1.616 -0.0921  0.7145 -0.0304
25112SOL    HW180147   7.924   8.065   1.535 -1.1884 -0.4881  0.6798
25112SOL    HW280148   7.948   7.990   1.664  0.3157  1.5738  1.6415
25113SOL     OW80149   3.191   7.890   9.225  0.0974 -0.1501  0.4613
25113SOL    HW180150   3.132   7.891   9.300  0.2166 -0.3568  0.5605
25113SOL    HW280151   3.205   7.982   9.204 -0.1729 -0.0985  0.5056
25114SOL     OW80152  10.373   7.209  12.197 -0.1404  0.0037 -0.2722
25114SOL    HW180153  10.286   7.174  12.216  0.6385 -2.5119 -0.9143
25114SOL    HW280154  10.373   7.222  12.102 -0.0334  0.6598 -0.1845
25115SOL     OW80155   5.881   2.572  11.954 -0.7683 -0.5104 -0.0202
25115SOL    HW180156   5.975   2.562  11.940 -0.4356  0.4518  1.2530
25115SOL    HW280157   5.845   2.485  11.937  0.2722 -0.7790 -0.9981
25116SOL     OW80158  12.328   1.908   3.448 -0.7496 -0.4152 -0.2528
25116SOL    HW180159  12.358   1.934   3.535 -0.8507 -0.8545 -0.0822
25116SOL    HW280160  12.322   1.990   3.398 -0.2372 -0.2176  0.0109
25117SOL     OW80161   6.165   3.020  11.368  0.1039  0.5102  0.3388
25117SOL    HW180162   6.201   3.092  11.421  1.5506  1.0706 -1.3298
25117SOL    HW280163   6.208   3.028  11.283 -0.7715 -1.4869 -0.3595
25118SOL     OW80164  11.902  10.359   3.952  0.6623  0.7408 -0.1084
25118SOL    HW180165  11.937  10.335   3.866 -1.0628 -0.8212 -0.4309
25118SOL    HW280166  11.957  10.311   4.014  0.2027 -0.3088 -0.5019
25119SOL     OW80167   3.426  12.455   1.316  0.0388 -0.2366  0.4776
25119SOL    HW180168   3.353  12.493   1.266  1.4388 -0.2590 -1.7505
25119SOL    HW280169   3.391  12.372   1.349 -0.9911 -0.2249 -0.4964
25120SOL     OW80170  10.720   9.242   3.960 -0.2995 -0.5368  0.2036
25120SOL    HW180171  10.628   9.269   3.960  0.2873  1.7185  1.8249
25120SOL    HW280172  10.726   9.177   4.030 -0.4187  0.2839  0.9812
25121SOL     OW80173   0.136  12.134   0.725  0.0965  0.6035 -0.0223
25121SOL    HW180174   0.108  12.141   0.633 -2.1623 -0.0156  0.5386
25121SOL    HW280175   0.210  12.193   0.733  1.1491 -0.2512 -2.5372
25122SOL     OW80176  11.661   3.198   9.327  0.4206 -0.0096 -0.4726
25122SOL    HW180177  11.739   3.253   9.314  0.0781  0.8526  0.9579
25122SOL    HW280178  11.687   3.134   9.393 -0.2889  0.7600  0.5811
25123SOL     OW80179  12.451   7.335   7.150  0.0689  0.0126  0.0033
25123SOL    HW180180  12.404   7.402   7.200 -1.7903 -1.5567  0.4935
25123SOL    HW280181  12.527   7.314   7.204 -0.9034 -0.3189  1.3028
25124SOL     OW80182   9.173   8.688   8.224  0.5026  0.0121 -0.0822
25124SOL    HW180183   9.122   8.625   8.275 -0.1248  0.7100  0.1755
25124SOL    HW280184   9.120   8.705   8.146  0.0853  1.1164  0.4231
25125SOL     OW80185   3.205   4.441  10.384  0.7515 -0.4696 -0.5013
25125SOL    HW180186   3.201   4.360  10.435 -1.1353  0.0910  0.3543
25125SOL    HW280187   3.292   4.477  10.401  0.2570 -0.3898  2.2607
25126SOL     OW80188  10.757  10.716   4.263 -0.0500  0.2783  0.0849
25126SOL    HW180189  10.800  10.770   4.196 -1.1092  0.7398 -0.2427
25126SOL    HW280190  10.774  10.761   4.345  2.6894 -1.1524  0.4320
25127SOL     OW80191   5.227   5.974   2.683  0.0268  0.4582 -0.3124
25127SOL    HW180192   5.203   5.897   2.630  0.6248  0.2809 -0.3301
25127SOL    HW280193   5.273   6.031   2.622 -0.2614  0.7571 -0.2534
25128SOL     OW80194   5.647   5.878   0.955 -0.3940  0.2601  0.6038
25128SOL    HW180195   5.705   5.917   1.020  2.2183 -2.0269 -0.1733
25128SOL    HW280196   5.702   5.866   0.877 -2.5935  0.1549 -1.0405
25129SOL     OW80197   0.444   4.102   5.258  0.0695 -0.1704  0.1470
25129SOL    HW180198   0.508   4.065   5.197  0.7154 -1.6422  1.6299
25129SOL    HW280199   0.485   4.093   5.344 -1.5075  0.2664  0.9815
25130SOL     OW80200  12.033   4.787   4.090 -0.0209  0.5949  0.1282
25130SOL    HW180201  12.033   4.803   3.996 -2.7708  0.0980 -0.0333
25130SOL    HW280202  12.126   4.786   4.114  0.7253  1.5741 -2.4009
25131SOL     OW80203   0.568  10.215  10.885 -0.1907 -0.0768  0.0743
25131SOL    HW180204   0.511  10.286  10.856 -0.0545  0.7664  1.7443
25131SOL    HW280205   0.654  10.255  10.892  0.2355 -0.8580 -0.5977
25132SOL     OW80206   9.678   4.993   5.628  0.1140  0.1209 -0.0148
25132SOL    HW180207   9.619   5.067   5.616 -0.6183 -0.3031  0.8815
25132SOL    HW280208   9.690   4.958   5.540  0.8908  1.6095 -0.5209
25133SOL     OW80209   8.784   6.602   3.863 -0.4288 -0.0450 -0.3525
25133SOL    HW180210   8.836   6.633   3.789 -3.0341 -0.2920 -2.4512
25133SOL    HW280211   8.764   6.681   3.913 -0.1836  0.4207 -0.9809
25134SOL     OW80212   0.922   2.243   8.547  0.6233 -0.2816  0.1463
25134SOL    HW180213   0.876   2.212   8.625  1.7005  0.0748  0.9438
25134SOL    HW280214   0.852   2.270   8.487 -0.2118 -0.4142  1.0385
25135SOL     OW80215  10.343   2.041   4.390 -0.2611  0.5022  1.2727
25135SOL    HW180216  10.377   1.955   4.364  0.7812  0.7543  1.7352
25135SOL    HW280217  10.283   2.022   4.462  0.4921  0.2021  1.8388
25136SOL     OW80218   1.259   3.504   1.671 -0.3679 -0.8738 -0.0439
25136SOL    HW180219   1.163   3.501   1.674 -0.3249 -1.9844  1.3512
25136SOL    HW280220   1.286   3.493   1.762  1.0881  2.3672  0.0225
25137SOL     OW80221   9.521   2.325  11.922 -0.1654 -0.2901 -0.0496
25137SOL    HW180222   9.616   2.315  11.912 -0.3573 -0.6249 -1.9125
25137SOL    HW280223   9.510   2.413  11.959  0.8433  0.6264 -1.7425
25138SOL     OW80224  12.359   3.926  10.679 -0.1059 -0.5464 -0.0938
25138SOL    HW180225  12.413   3.957  10.606 -1.1227  1.7002  0.0250
25138SOL    HW280226  12.269   3.946  10.652 -0.6906 -1.9239  0.7657
25139SOL     OW80227   4.749   3.277   5.191 -0.5028  0.6421 -0.8764
25139SOL    HW180228   4.685   3.303   5.257  0.8450  1.1742  0.2753
25139SOL    HW280229   4.699   3.226   5.128 -1.5679 -1.3713  1.4376
25140SOL     OW80230   7.847   4.768   3.745 -0.1630 -0.0565 -0.4328
25140SOL    HW180231   7.777   4.764   3.680 -1.5291  0.6856  0.9274
25140SOL    HW280232   7.814   4.829   3.811  2.0498  0.7972 -0.0508
25141SOL     OW80233  10.908   1.083   2.626  0.1248 -0.0739 -0.6545
25141SOL    HW180234  10.953   1.104   2.708 -0.8211 -0.8575  0.0806
25141SOL    HW280235  10.820   1.117   2.638 -0.4915 -1.5773 -0.7025
25142SOL     OW80236   8.988   3.654   3.085  0.4825  0.1190  0.2987
25142SOL    HW180237   9.042   3.583   3.120  1.1337  0.5676  0.2209
25142SOL    HW280238   8.910   3.654   3.141 -1.1595 -2.8484 -1.7670
25143SOL     OW80239  10.251   9.358   0.343 -0.4790  0.0834  0.2781
25143SOL    HW180240  10.290   9.439   0.310  1.4604 -0.1146  1.8913
25143SOL    HW280241  10.158   9.378   0.352 -0.2536  1.6877 -0.5616
25144SOL     OW80242   8.747   8.605   0.881 -0.9643 -0.1312 -0.0110
25144SOL    HW180243   8.761   8.662   0.957  0.5143  0.3566 -0.6123
25144SOL    HW280244   8.659   8.568   0.894 -0.8190  0.1062  1.8109
25145SOL     OW80245   6.126   1.331   7.953  0.1107 -0.2117  0.2039
25145SOL    HW180246   6.094   1.420   7.965 -1.0416 -0.6860  0.7312
25145SOL    HW280247   6.047   1.277   7.950  0.7733 -1.1733 -0.5131
25146SOL     OW80248   0.035   3.065   3.193  0.9420 -0.4808 -0.1971
25146SOL    HW180249  -0.009   2.999   3.139  0.0209 -0.0583  0.0138
25146SOL    HW280250  -0.001   3.148   3.162  2.0018 -0.0776 -0.3794
25147SOL     OW80251   2.603   2.113   2.367  0.1953 -0.1844  0.2373
25147SOL    HW180252   2.556   2.037   2.331  0.5483  0.1393 -0.9372
25147SOL    HW280253   2.559   2.189   2.328  0.7536  0.1680  0.2966
25148SOL     OW80254   6.037   5.220   4.124  0.0991 -0.1486  0.0921
25148SOL    HW180255   6.067   5.264   4.044  0.0730 -1.6296 -0.7592
25148SOL    HW280256   6.099   5.149   4.138  0.4377  0.4315  1.7480
25149SOL     OW80257   5.889   4.860   8.466  0.4020  0.0335  0.4643
25149SOL    HW180258   5.964   4.913   8.440  1.1670 -0.5279  1.4255
25149SOL    HW280259   5.818   4.889   8.410  1.8118 -0.7779 -1.8911
25150SOL     OW80260   3.445   7.083  10.480 -0.0804  0.1383  0.3512
25150SOL    HW180261   3.474   6.994  10.462 -1.6796 -0.0685 -1.4547
25150SOL    HW280262   3.358   7.073  10.519 -0.1265  0.8981  0.4575
25151SOL     OW80263   1.122   7.488   1.780  0.7385 -0.0098 -0.4130
25151SOL    HW180264   1.153   7.501   1.870 -1.0553  0.3535  0.1869
25151SOL    HW280265   1.068   7.409   1.784  1.2516 -0.4238 -1.3504
25152SOL     OW80266   1.644   5.073   0.480 -0.4061 -0.3096  0.5106
25152SOL    HW180267   1.649   4.991   0.430  0.4413 -0.8311  1.4106
25152SOL    HW280268   1.607   5.047   0.564  2.2379 -0.2934  1.7789
25153SOL     OW80269   3.549   6.517  11.634 -0.2728 -0.3398 -0.4060
25153SOL    HW180270   3.633   6.562  11.632 -1.3883  1.9842  0.8187
25153SOL    HW280271   3.485   6.587  11.647 -2.3979 -2.0447 -1.1462
25154SOL     OW80272   2.731   5.513   5.353 -0.0775  0.4090  0.1192
25154SOL    HW180273   2.640   5.539   5.354 -0.3344 -0.4656  0.5304
25154SOL    HW280274   2.767   5.546   5.435 -0.0851  0.5635  0.0594
25155SOL     OW80275  11.504  12.014   2.173 -0.3198 -0.4743 -0.1932
25155SOL    HW180276  11.501  12.110   2.180 -0.0482 -0.5395  0.8990
25155SOL    HW280277  11.437  11.993   2.107 -0.9186  0.4096  0.1145
25156SOL     OW80278   7.453   8.729   9.638  0.2656 -0.1016  0.8612
25156SOL    HW180279   7.414   8.780   9.709 -0.9513  0.0291  0.1103
25156SOL    HW280280   7.438   8.782   9.560  1.8292 -0.1176  0.5167
25157SOL     OW80281  11.199   4.892   7.200 -0.3652  0.3206  0.1091
25157SOL    HW180282  11.283   4.915   7.160 -0.6429  1.5500  0.2024
25157SOL    HW280283  11.222   4.845   7.280  0.2047 -1.7334 -1.1602
25158SOL     OW80284   8.308   3.673   5.932 -0.4429  0.2900  0.9509
25158SOL    HW180285   8.292   3.580   5.918  0.0031 -0.0436  2.4515
25158SOL    HW280286   8.226   3.707   5.966 -0.5894  0.4396  0.4543
25159SOL     OW80287   0.240   7.336   8.154  0.3439 -0.2460 -0.2918
25159SOL    HW180288   0.162   7.307   8.106  1.2699 -0.2932 -1.8132
25159SOL    HW280289   0.287   7.255   8.175  0.5095 -0.1503 -0.2898
25160SOL     OW80290   4.288   0.763   4.922 -0.0524 -0.2466  0.7005
25160SOL    HW180291   4.201   0.789   4.953 -0.0891 -0.4830  0.7986
25160SOL    HW280292   4.273   0.681   4.874 -0.3139  1.1229 -1.7099
25161SOL     OW80293   7.709   2.022   1.673 -0.3232 -0.0249  0.3801
25161SOL    HW180294   7.775   2.058   1.733 -0.0857  0.1548  0.0144
25161SOL    HW280295   7.625   2.049   1.711 -0.1419  2.2180 -0.6662
25162SOL     OW80296   2.958   2.859  10.826 -0.0948  0.6467  0.1083
25162SOL    HW180297   2.941   2.772  10.861 -0.1884  1.2367  1.6159
25162SOL    HW280298   2.920   2.857  10.738  0.1339 -0.8941  0.0160
25163SOL     OW80299   4.510   0.698   5.308 -0.3891  0.1572  0.0289
25163SOL    HW180300   4.583   0.707   5.368 -0.1093 -1.0015 -0.1054
25163SOL    HW280301   4.435   0.677   5.364 -0.4798  0.7129  0.1135
25164SOL     OW80302  11.812   5.322   0.947 -0.9078 -0.2355 -0.1207
25164SOL    HW180303  11.774   5.260   0.884 -1.7986  2.3829 -2.4006
25164SOL    HW280304  11.743   5.387   0.960  1.2529  2.4827 -1.1675
25165SOL     OW80305   9.907   2.195  11.702 -0.2100 -0.1321 -0.0599
25165SOL    HW180306   9.901   2.168  11.793  1.2573 -0.1781  0.0495
25165SOL    HW280307   9.974   2.137  11.664  0.3672  0.9444 -0.7465
25166SOL     OW80308   8.780   3.925   3.033  0.1285 -0.5560 -0.0621
25166SOL    HW180309   8.827   3.857   2.984 -0.0887 -0.5390 -0.2918
25166SOL    HW280310   8.688   3.908   3.015  0.1058  0.3404 -0.8293
25167SOL     OW80311  10.509   4.797   8.167 -0.7811 -0.0321 -0.0582
25167SOL    HW180312  10.486   4.794   8.260 -0.2962  0.6739  0.0944
25167SOL    HW280313  10.454   4.867   8.131 -0.4645  0.1657 -0.1565
25168SOL     OW80314   7.189  11.868   5.890  0.4847 -0.7329  0.0864
25168SOL    HW180315   7.233  11.839   5.969  0.1167 -1.8951 -0.1212
25168SOL    HW280316   7.189  11.964   5.896  0.7733 -0.7989  1.3096
25169SOL     OW80317  12.597  11.753   9.982 -0.5907 -0.0938 -0.4093
25169SOL    HW180318  12.671  11.809   9.962 -0.6747 -0.0399 -0.5700
25169SOL    HW280319  12.627  11.697  10.053  0.3957 -1.6749 -1.9937
25170SOL     OW80320   8.347   3.074   7.083  0.7319  0.0618  0.6963
25170SOL    HW180321   8.334   3.046   7.174  1.5853  1.0852  1.1452
25170SOL    HW280322   8.318   3.165   7.082  2.0505  0.4948  0.2822
25171SOL     OW80323   5.943   1.929   6.396 -0.6480 -0.2493 -0.1874
25171SOL    HW180324   5.931   2.015   6.356  0.8803 -0.5804 -1.4382
25171SOL    HW280325   5.916   1.941   6.487  1.8453  2.2507  0.3666
25172SOL     OW80326  11.249   1.001   0.184  0.6536 -0.4178  0.1735
25172SOL    HW180327  11.287   1.089   0.177 -1.6805  0.5699 -1.3622
25172SOL    HW280328  11.157   1.016   0.205  0.2295 -2.5167  0.0151
25173SOL     OW80329  10.061   6.584   8.025 -0.0970  0.1438  0.1391
25173SOL    HW180330  10.073   6.643   8.100 -0.8248  1.4567 -0.7487
25173SOL    HW280331  10.063   6.496   8.064  2.1688  0.6394  1.3571
25174SOL     OW80332   6.150   5.859   2.205  0.1035 -0.4407 -0.0949
25174SOL    HW180333   6.102   5.779   2.184  0.5072 -0.9860  0.9896
25174SOL    HW280334   6.111   5.925   2.148 -1.3803 -1.0463  0.1567
25175SOL     OW80335   6.945   2.725   1.963 -0.3521  0.6642 -0.2109
25175SOL    HW180336   7.009   2.755   1.898 -1.9103  0.7819 -1.7776
25175SOL    HW280337   6.861   2.732   1.918 -1.3301 -0.8909  1.2653
25176SOL     OW80338   0.954   0.731   5.643  0.5003 -0.1427  0.4128
25176SOL    HW180339   1.029   0.739   5.702  1.0346  0.9786 -0.4025
25176SOL    HW280340   0.962   0.805   5.583 -0.2239 -1.0605 -0.8575
25177SOL     OW80341   1.428   9.121   5.694 -0.3013 -0.0260  0.0359
25177SOL    HW180342   1.372   9.107   5.770 -0.6558 -0.1461 -0.2432
25177SOL    HW280343   1.433   9.216   5.685 -0.2236 -0.0111  0.2317
25178SOL     OW80344   3.433   9.310   9.533 -0.1459 -0.3144  0.2537
25178SOL    HW180345   3.472   9.271   9.612  0.4016 -1.7944 -0.6998
25178SOL    HW280346   3.338   9.306   9.549 -0.1300 -2.2395  0.1574
25179SOL     OW80347  11.997   0.037  10.846 -0.4711  0.2109 -0.4076
25179SOL    HW180348  12.046  -0.020  10.905 -1.6121  0.7862  1.1480
25179SOL    HW280349  12.054   0.113  10.834  0.0153 -0.1676 -0.5422
25180SOL     OW80350   0.634   2.977   0.927  0.0353 -0.4182  0.6198
25180SOL    HW180351   0.646   3.070   0.944  0.5154 -0.6445  1.6029
25180SOL    HW280352   0.578   2.947   0.998  0.4273 -1.0043  0.6894
25181SOL     OW80353   2.774  11.219   8.081 -0.1531  0.1590 -0.0352
25181SOL    HW180354   2.750  11.135   8.119  2.2163 -0.4782  0.2380
25181SOL    HW280355   2.861  11.204   8.042 -0.5708  1.9396 -1.8341
25182SOL     OW80356   1.261   9.333   5.752  0.3466  0.1996 -0.1080
25182SOL    HW180357   1.311   9.399   5.801 -0.2948  0.2788  0.4596
25182SOL    HW280358   1.188   9.311   5.810  0.4460 -0.8749 -0.3763
25183SOL     OW80359  10.647   8.834   2.421 -0.5388  0.1804  0.1779
25183SOL    HW180360  10.637   8.871   2.333  1.5309  2.9968  0.9895
25183SOL    HW280361  10.629   8.740   2.409 -3.3384  0.8694 -2.5938
25184SOL     OW80362  11.909   6.006   0.651  0.3419 -0.3355 -0.3698
25184SOL    HW180363  11.917   6.051   0.567  0.6316  1.5507  0.6162
25184SOL    HW280364  11.819   5.974   0.653 -0.4683  1.8478 -0.3510
25185SOL     OW80365  11.959   1.527   7.678  0.3960 -0.2119 -0.9839
25185SOL    HW180366  11.963   1.567   7.764  0.6881 -0.5081 -0.8583
25185SOL    HW280367  11.956   1.601   7.617  0.2531 -0.0036 -0.7255
25186SOL     OW80368  11.266   9.936  10.292 -0.8534  0.1674 -0.3962
25186SOL    HW180369  11.293  10.005  10.232 -0.1139  2.3444  2.2372
25186SOL    HW280370  11.228   9.982  10.366  0.0294 -2.2063  1.6936
25187SOL     OW80371  11.137  12.037   7.886  0.4952  0.8202  0.0194
25187SOL    HW180372  11.122  11.959   7.939 -2.1483  0.6439 -0.8119
25187SOL    HW280373  11.209  12.013   7.827 -0.5790 -1.2283 -0.5556
25188SOL     OW80374   9.827   4.845   0.230  0.4183  0.5030  0.1536
25188SOL    HW180375   9.851   4.930   0.268 -1.1881  0.4424  1.4128
25188SOL    HW280376   9.889   4.783   0.267  0.6429  0.9036  0.4500
25189SOL     OW80377   9.517   9.188  11.416  0.1420 -0.8603 -0.0682
25189SOL    HW180378   9.591   9.233  11.456 -0.1777 -0.0963 -0.3222
25189SOL    HW280379   9.553   9.145  11.339  0.7785 -2.3955  1.0419
25190SOL     OW80380  10.211   6.419   4.737  0.2107  0.0294 -0.2991
25190SOL    HW180381  10.189   6.507   4.705  2.2457  0.1975 -1.3992
25190SOL    HW280382  10.298   6.429   4.776  0.2395 -1.3934  0.0345
25191SOL     OW80383   8.007  10.598   0.225  0.5085  0.2781  0.0521
25191SOL    HW180384   8.098  10.620   0.242  0.7600  1.0038 -2.0267
25191SOL    HW280385   7.970  10.677   0.186 -0.5911 -0.5440 -0.6200
25192SOL     OW80386   9.153   9.086   3.225 -0.0932 -0.1046 -0.3110
25192SOL    HW180387   9.082   9.114   3.284 -0.0787 -1.9186  0.6406
25192SOL    HW280388   9.111   9.071   3.141 -0.3006  1.5086 -0.5385
25193SOL     OW80389   7.340   1.424   7.086  0.2041  0.5701 -0.4746
25193SOL    HW180390   7.272   1.490   7.080  0.7759  1.0748 -1.7513
25193SOL    HW280391   7.311   1.354   7.027  0.9192  0.9288 -1.2753
25194SOL     OW80392   0.917  11.590   4.897  0.0519  0.0235  0.1191
25194SOL    HW180393   0.998  11.605   4.946  0.1080  0.0178  0.0270
25194SOL    HW280394   0.862  11.538   4.957  0.7574 -1.4184 -0.4410
25195SOL     OW80395   8.187   4.601   1.272 -0.0733 -0.1970 -0.1986
25195SOL    HW180396   8.185   4.505   1.281 -1.7984 -0.4902 -2.8524
25195SOL    HW280397   8.107   4.631   1.314  0.1638  0.0419  0.0892
25196SOL     OW80398   4.379   8.457   4.438  0.4575  0.5816  0.0475
25196SOL    HW180399   4.303   8.420   4.482  1.1429  0.9328  1.6126
25196SOL    HW280400   4.368   8.432   4.346 -0.6576 -0.8387  0.5164
25197SOL     OW80401  10.159   9.484  12.136  0.4094  0.4327 -0.0696
25197SOL    HW180402  10.122   9.569  12.156  0.0613  0.0648  0.8708
25197SOL    HW280403  10.243   9.504  12.093  0.8491  1.2424  1.1251
25198SOL     OW80404   8.848   8.516   3.661  0.3271 -0.0405 -0.3355
25198SOL    HW180405   8.793   8.530   3.584  2.5428 -1.0340 -2.2236
25198SOL    HW280406   8.861   8.421   3.664  1.0310  0.0709  0.7239
25199SOL     OW80407   7.095   8.227   4.284 -0.0204 -0.3624 -0.4363
25199SOL    HW180408   7.050   8.279   4.351  2.1167 -0.1155  0.9076
25199SOL    HW280409   7.125   8.149   4.331  0.0152 -1.0395 -1.5582
25200SOL     OW80410   0.225  10.847   4.999  0.4574  0.4025 -0.2116
25200SOL    HW180411   0.168  10.919   5.026  1.7276  1.5234 -0.4268
25200SOL    HW280412   0.262  10.815   5.081 -1.1642 -0.9968  0.0460
25201SOL     OW80413   1.322   9.558   9.942 -0.3085 -0.7810  0.0658
25201SOL    HW180414   1.388   9.496   9.910 -1.2211 -1.3992 -0.6682
25201SOL    HW280415   1.276   9.586   9.864  0.3990  1.2462  0.3285
25202SOL     OW80416   6.367   0.068   8.456  0.2426 -0.2798 -0.1286
25202SOL    HW180417   6.341  -0.005   8.512  2.0828 -1.1028 -0.2857
25202SOL    HW280418   6.462   0.064   8.453  0.3856  1.8697 -0.5124
25203SOL     OW80419   6.608  10.923   5.543  0.0156  0.6133 -0.3658
25203SOL    HW180420   6.646  10.837   5.559  1.8407  1.4512  0.1159
25203SOL    HW280421   6.569  10.948   5.627  2.9671  1.8456  0.7652
25204SOL     OW80422  12.379   7.950   2.646 -0.3186  0.0851 -0.0207
25204SOL    HW180423  12.372   7.889   2.573 -0.7807  2.2572 -1.9077
25204SOL    HW280424  12.473   7.965   2.655 -0.2352 -0.4788  0.0935
25205SOL     OW80425   0.154   0.180   9.437 -0.8785 -0.0790  0.0986
25205SOL    HW180426   0.180   0.227   9.358 -0.6025  0.3136  0.4142
25205SOL    HW280427   0.087   0.236   9.476  1.1817  1.3964  1.7874
25206SOL     OW80428   2.132   1.886  10.883  0.5171 -0.1969 -0.2487
25206SOL    HW180429   2.038   1.873  10.899  0.2488  0.6025 -1.0397
25206SOL    HW280430   2.163   1.801  10.851 -0.2898 -0.0450 -1.4912
25207SOL     OW80431   9.635  10.117   7.561 -0.0775  0.1110  0.4171
25207SOL    HW180432   9.621  10.062   7.483  0.8165  0.5291 -0.0578
25207SOL    HW280433   9.614  10.059   7.635 -1.4728 -0.1240 -0.1348
25208SOL     OW80434  11.709   6.775  11.129 -0.6101  0.6087 -0.2718
25208SOL    HW180435  11.780   6.838  11.139 -1.4281  1.6621 -0.8608
25208SOL    HW280436  11.654   6.787  11.207 -0.4643  0.2128 -0.1049
25209SOL     OW80437   8.513   3.968   4.014  0.3030  0.3360  0.0505
25209SOL    HW180438   8.493   3.876   4.033 -0.4955  0.7561  1.3623
25209SOL    HW280439   8.596   3.965   3.967  0.2248 -1.0653 -0.0377
25210SOL     OW80440   5.575   1.968   8.433  0.1084 -0.2105  0.2425
25210SOL    HW180441   5.585   2.027   8.359 -1.3179  0.5058  0.5907
25210SOL    HW280442   5.582   2.025   8.510 -1.0234 -0.5208  0.5886
25211SOL     OW80443   4.678  10.041   6.042  0.0576  0.6501  0.0733
25211SOL    HW180444   4.663   9.968   5.982  2.7667 -0.6075  0.7722
25211SOL    HW280445   4.684  10.118   5.986  0.0855 -0.1166 -1.0097
25212SOL     OW80446   0.875   2.023   4.115 -0.4342  0.2886 -0.2976
25212SOL    HW180447   0.879   2.018   4.211  1.0362  0.3454 -0.3311
25212SOL    HW280448   0.929   2.099   4.093 -1.7035  0.9760 -1.1305
25213SOL     OW80449   7.963   9.669  11.264 -0.1165 -1.1253 -0.2869
25213SOL    HW180450   7.915   9.630  11.190  1.2795 -0.0461 -1.8115
25213SOL    HW280451   8.024   9.730  11.224  0.2544 -0.0160  1.8271
25214SOL     OW80452   5.302   0.395  11.673 -0.5300  0.0599 -0.2987
25214SOL    HW180453   5.299   0.351  11.588 -1.9803 -1.0937  0.3085
25214SOL    HW280454   5.381   0.361  11.715 -1.3782 -1.7018 -0.0263
25215SOL     OW80455  10.815  12.231   7.047 -0.1963  0.5675  0.2190
25215SOL    HW180456  10.724  12.226   7.075 -0.9231  0.6329 -1.9768
25215SOL    HW280457  10.815  12.196   6.958  2.0184  0.1204  0.3382
25216SOL     OW80458   1.383   9.806   3.039  0.3355  0.1670  0.2211
25216SOL    HW180459   1.359   9.889   2.998  0.1553  0.3337  0.6592
25216SOL    HW280460   1.300   9.759   3.047  0.3995  0.0526  0.2126
25217SOL     OW80461   4.745   4.601   2.750 -0.2805 -0.3793 -0.2482
25217SOL    HW180462   4.797   4.611   2.670 -0.3732  0.5189 -0.2052
25217SOL    HW280463   4.780   4.522   2.791  1.1553  0.2660 -0.1671
25218SOL     OW80464   9.128   3.127   3.191  0.2580  0.3110 -0.4239
25218SOL    HW180465   9.172   3.069   3.130  0.7193  1.2612 -1.0211
25218SOL    HW280466   9.035   3.106   3.182  0.4248 -0.3948 -0.5490
25219SOL     OW80467   5.894   1.620   2.909  0.4144 -0.1786 -0.3219
25219SOL    HW180468   5.896   1.525   2.895  0.4139 -0.2964  0.4200
25219SOL    HW280469   5.876   1.657   2.822  0.2101 -0.8635 -0.5796
25220SOL     OW80470  10.961   7.536   4.235 -0.4381  0.1515 -0.2292
25220SOL    HW180471  10.888   7.477   4.216  0.4382 -0.9839 -0.1641
25220SOL    HW280472  10.954   7.553   4.329  0.0974 -0.9601  0.0230
25221SOL     OW80473  10.723   3.919  10.642  0.1225 -0.6342 -0.7570
25221SOL    HW180474  10.655   3.964  10.592 -0.2952 -2.4937 -1.9939
25221SOL    HW280475  10.683   3.836  10.667  1.8306 -1.6908 -1.3260
25222SOL     OW80476   8.689   1.560   0.007 -0.3094 -0.0585  0.1897
25222SOL    HW180477   8.768   1.529   0.050 -0.9000 -0.9529  0.6762
25222SOL    HW280478   8.682   1.652   0.032 -0.8962 -0.6563  2.5027
25223SOL     OW80479   7.639   4.779  12.610 -0.5252 -0.3454 -0.0595
25223SOL    HW180480   7.650   4.711  12.544 -0.2312 -0.6331  0.2770
25223SOL    HW280481   7.551   4.814  12.595 -0.5175 -0.5154 -0.5000
25224SOL     OW80482  11.214  11.969   6.152 -0.6248 -0.1652 -0.1900
25224SOL    HW180483  11.182  11.971   6.062  2.0766  0.0702 -1.2379
25224SOL    HW280484  11.308  11.953   6.144  0.0228  1.5682  2.5053
25225SOL     OW80485  10.362   4.840   5.854 -0.1509 -0.1623 -0.1963
25225SOL    HW180486  10.352   4.816   5.946 -0.7321  0.6195 -0.0461
25225SOL    HW280487  10.391   4.931   5.856 -0.2139 -0.1257 -0.7918
25226SOL     OW80488  10.518   9.441   8.134 -0.1500  0.1424 -0.2615
25226SOL    HW180489  10.594   9.420   8.080 -0.1612 -0.8002  0.0602
25226SOL    HW280490  10.456   9.482   8.074 -0.4562 -1.5290 -1.1488
25227SOL     OW80491   6.909   5.036  11.920 -0.3624 -0.3487 -0.4444
25227SOL    HW180492   6.892   5.038  12.014 -1.1435  0.4477 -0.5840
25227SOL    HW280493   6.862   5.112  11.886  0.2875 -0.3685 -1.4205
25228SOL     OW80494   9.427   9.700   6.631  0.2462 -0.3316 -0.3050
25228SOL    HW180495   9.353   9.729   6.685  1.8430 -1.3490  2.6653
25228SOL    HW280496   9.457   9.779   6.587 -0.9303  0.6383  0.5597
25229SOL     OW80497  11.956   8.486   4.829  0.0824  0.1480 -0.3520
25229SOL    HW180498  11.893   8.465   4.760 -0.3917  0.2091  0.0612
25229SOL    HW280499  12.019   8.413   4.827 -1.6995 -1.5286  1.2533
25230SOL     OW80500  10.936   4.122   1.700  0.4156  0.0268  0.4736
25230SOL    HW180501  11.005   4.112   1.765  0.8087  0.6351  0.1601
25230SOL    HW280502  10.913   4.215   1.703  0.8630  0.1907 -0.6742
25231SOL     OW80503   4.003   7.577   2.397 -0.4296 -0.8365 -0.3872
25231SOL    HW180504   3.979   7.601   2.307 -1.0076  0.3790  0.0711
25231SOL    HW280505   4.098   7.587   2.399 -0.4128 -0.8538 -0.8659
25232SOL     OW80506   0.657   9.269  11.703  0.3025  0.0087 -0.0941
25232SOL    HW180507   0.656   9.173  11.694  1.2617 -0.0098 -0.0865
25232SOL    HW280508   0.613   9.301  11.625  1.1213 -0.4035 -0.7344
25233SOL     OW80509   6.487   3.523  10.748  0.0187 -0.3757 -0.0631
25233SOL    HW180510   6.473   3.616  10.763  0.0007 -0.5267  0.9490
25233SOL    HW280511   6.579   3.517  10.720 -0.1086 -0.0139 -0.5686
25234SOL     OW80512   1.833  12.439   8.909  0.3485 -0.3154 -0.2618
25234SOL    HW180513   1.824  12.375   8.839 -0.5762 -0.1421 -0.3137
25234SOL    HW280514   1.791  12.398   8.984  1.4998 -0.5819  0.2707
25235SOL     OW80515  10.767   3.680   9.721 -0.0814  1.0901 -0.4582
25235SOL    HW180516  10.741   3.590   9.738 -1.3198  1.2350 -1.4257
25235SOL    HW280517  10.845   3.694   9.776 -1.3969  0.2752  1.7288
25236SOL     OW80518   2.536   0.886  12.246  0.0355 -0.0559  0.9137
25236SOL    HW180519   2.631   0.883  12.244  0.0176 -0.8014 -0.8942
25236SOL    HW280520   2.516   0.978  12.263  1.1487  0.6945 -1.3255
25237SOL     OW80521   4.665   0.909   1.010 -0.9599  0.0369 -0.6195
25237SOL    HW180522   4.717   0.893   1.089 -1.7903 -0.5196 -0.1616
25237SOL    HW280523   4.697   0.844   0.947  0.1710  0.9308 -0.9785
25238SOL     OW80524   7.133   9.140   7.349 -1.0446 -0.3124 -0.6920
25238SOL    HW180525   7.064   9.091   7.395 -0.9632  0.8193  0.7173
25238SOL    HW280526   7.122   9.230   7.380  0.3032  0.1058 -1.3920
25239SOL     OW80527   3.159   4.816   2.206  0.0141  0.1672 -0.5134
25239SOL    HW180528   3.199   4.797   2.121 -0.5714  0.4370 -0.8561
25239SOL    HW280529   3.135   4.730   2.241 -0.4811  0.1001 -0.9939
25240SOL     OW80530   9.532   6.546   6.516  0.5301 -0.2409 -0.6349
25240SOL    HW180531   9.624   6.548   6.541  0.6906  2.5855 -1.1640
25240SOL    HW280532   9.524   6.472   6.456  2.4554 -0.5008 -0.6114
25241SOL     OW80533   9.131   3.766   1.076 -0.3027  0.0667 -0.2928
25241SOL    HW180534   9.090   3.836   1.024 -1.2598 -1.0607 -1.1133
25241SOL    HW280535   9.093   3.685   1.042  1.5586 -0.9603 -0.1039
25242SOL     OW80536  11.714   0.398   5.330 -0.2395  0.1446  0.0316
25242SOL    HW180537  11.728   0.315   5.284 -0.6698 -0.9190  1.7421
25242SOL    HW280538  11.801   0.421   5.364 -0.4836 -0.8106  1.4276
25243SOL     OW80539  10.488   9.971   3.837 -0.1691  0.5459  0.2568
25243SOL    HW180540  10.509  10.064   3.827 -0.0674  0.7347  1.9678
25243SOL    HW280541  10.458   9.944   3.750  0.7145  1.9296 -0.5237
25244SOL     OW80542   5.985   6.109   6.288  0.5082  0.9773  0.1535
25244SOL    HW180543   5.975   6.162   6.208 -0.5113  0.7293  0.1025
25244SOL    HW280544   5.949   6.024   6.265  0.2535  0.8863  0.8587
25245SOL     OW80545  10.030   6.695   5.407 -0.7046 -0.1412  0.3366
25245SOL    HW180546  10.103   6.720   5.464  0.7165 -0.0307 -1.4458
25245SOL    HW280547  10.006   6.607   5.437  1.8562 -1.2502 -0.5715
25246SOL     OW80548   4.881  11.708   4.710 -0.1004 -0.0646  0.3602
25246SOL    HW180549   4.873  11.633   4.768 -1.1151  0.6424  1.1929
25246SOL    HW280550   4.903  11.781   4.768  2.6657  0.0141 -0.6416
25247SOL     OW80551   3.707   0.022   3.985  0.2105  0.1115  0.4901
25247SOL    HW180552   3.689  -0.039   4.057  1.1726  0.5897  1.1544
25247SOL    HW280553   3.793   0.059   4.005  0.3774  0.4585 -0.7759
25248SOL     OW80554   7.634  10.806   2.531  0.2409  0.4034  0.2960
25248SOL    HW180555   7.583  10.864   2.587 -0.2941  1.4872 -1.2544
25248SOL    HW280556   7.672  10.863   2.465  2.0071 -0.6413  0.3216
25249SOL     OW80557   0.313   2.903   4.134 -0.1481  0.0725  0.8848
25249SOL    HW180558   0.352   2.954   4.205 -0.9978 -0.9918  2.1740
25249SOL    HW280559   0.281   2.823   4.176 -0.6723 -0.6122 -0.7088
25250SOL     OW80560   4.747   8.904   8.049  0.3235 -0.4396  0.9160
25250SOL    HW180561   4.835   8.941   8.046  0.4828 -0.8167 -1.1837
25250SOL    HW280562   4.756   8.818   8.008 -1.0496 -0.3505  0.3631
25251SOL     OW80563   3.012   4.497  12.394 -0.3644  0.2825  0.0352
25251SOL    HW180564   3.050   4.517  12.308 -1.3743 -2.2015 -1.0757
25251SOL    HW280565   2.928   4.544  12.395 -0.2536  0.4876 -0.2231
25252SOL     OW80566  12.059   7.909  10.277  0.1867 -0.1309  0.7607
25252SOL    HW180567  12.087   7.919  10.367 -1.1970  0.4087  1.1595
25252SOL    HW280568  12.034   7.998  10.249 -3.4573 -0.8160  1.3083
25253SOL     OW80569   9.095   9.456   8.879  0.1129 -0.0481  0.0960
25253SOL    HW180570   9.104   9.361   8.889  1.1827 -0.1456 -1.4158
25253SOL    HW280571   9.157   9.493   8.942 -1.2689 -0.2816  1.6492
25254SOL     OW80572   0.481  10.830   4.372  0.1868  0.0024  0.0243
25254SOL    HW180573   0.496  10.924   4.371  0.6288 -0.0654 -0.7046
25254SOL    HW280574   0.522  10.799   4.453 -2.0775  0.7451  1.5394
25255SOL     OW80575  11.429   7.329   2.608  0.2586  0.3826  0.6129
25255SOL    HW180576  11.345   7.373   2.620 -1.0302 -1.1703 -1.9509
25255SOL    HW280577  11.446   7.333   2.514  2.4561 -0.4590  0.9021
25256SOL     OW80578   0.548   8.099  11.208 -0.0018 -0.0069  0.3777
25256SOL    HW180579   0.595   8.026  11.246 -1.4503 -1.3087 -0.2008
25256SOL    HW280580   0.490   8.129  11.278 -0.0345  0.0033  0.3464
25257SOL     OW80581   8.057   2.504   5.047 -0.4108 -0.2526  0.9169
25257SOL    HW180582   8.090   2.432   5.101 -1.2447 -0.7024  0.8501
25257SOL    HW280583   8.125   2.519   4.982 -0.8895 -2.1046 -0.0957
25258SOL     OW80584  11.671  11.516   3.150  0.5998 -0.0910  0.4029
25258SOL    HW180585  11.700  11.497   3.061 -0.1274  1.1288 -0.1226
25258SOL    HW280586  11.738  11.574   3.186 -0.9056  2.5125 -0.7201
25259SOL     OW80587  11.016   9.063   2.293  0.2439 -0.3199  0.7415
25259SOL    HW180588  11.032   9.146   2.338 -0.6293  0.7194 -0.7845
25259SOL    HW280589  10.944   9.023   2.341  0.8028 -0.3219  1.6114
25260SOL     OW80590   2.020   0.198   9.982  0.5151 -0.2219 -0.0681
25260SOL    HW180591   2.085   0.193  10.053  1.9960  0.5950 -1.2957
25260SOL    HW280592   1.956   0.262  10.014  1.9743  1.3078 -0.0119
25261SOL     OW80593   3.042   1.683  10.041  0.0316  0.0014  0.2803
25261SOL    HW180594   3.035   1.690   9.946  2.7098 -3.2264 -0.3355
25261SOL    HW280595   3.057   1.590  10.057  1.1517  0.6448  3.7612
25262SOL     OW80596   5.812   8.693   5.233  0.3733  0.2499 -0.7845
25262SOL    HW180597   5.855   8.608   5.228  2.2007  1.1157 -0.3362
25262SOL    HW280598   5.719   8.673   5.224  0.5047 -2.0852  1.7851
25263SOL     OW80599   3.067   7.179   0.785 -0.0530  0.3022  0.2841
25263SOL    HW180600   3.050   7.262   0.830  1.9027  0.0965  1.5428
25263SOL    HW280601   2.990   7.165   0.730 -1.0358  2.2675  1.0566
25264SOL     OW80602   1.608  10.152   1.639  0.2075  0.1734 -0.0076
25264SOL    HW180603   1.604  10.086   1.570  1.1252 -0.1736  0.2496
25264SOL    HW280604   1.533  10.133   1.696 -0.4765  0.3796 -0.8226
25265SOL     OW80605   6.749   7.347  11.004  0.0748  0.1150  0.0478
25265SOL    HW180606   6.780   7.257  11.016  1.3882  0.6670  1.0487
25265SOL    HW280607   6.807   7.383  10.937 -1.2520 -0.1161 -1.2937
25266SOL     OW80608   4.969   7.228   0.298 -0.0372 -0.5402  0.0154
25266SOL    HW180609   4.964   7.134   0.317  0.1173 -0.4510  0.5056
25266SOL    HW280610   4.898   7.266   0.351 -1.0448 -0.5436 -1.2842
25267SOL     OW80611   3.777   2.885   4.600  0.2145 -0.1236  0.3707
25267SOL    HW180612   3.723   2.885   4.521  0.1505  1.5439  0.3843
25267SOL    HW280613   3.796   2.792   4.616 -1.8183 -0.6810 -0.1843
25268SOL     OW80614   6.396   4.514   5.792 -0.2127  0.1229 -0.2795
25268SOL    HW180615   6.384   4.528   5.698 -0.0760 -0.9996 -0.4725
25268SOL    HW280616   6.431   4.425   5.799  2.6349  1.2148  0.6390
25269SOL     OW80617   5.331   9.081   5.222  0.2994  0.1256 -0.3412
25269SOL    HW180618   5.425   9.075   5.204  1.3824  0.7539  4.0768
25269SOL    HW280619   5.306   8.991   5.242  0.2146  0.1503 -0.3397
25270SOL     OW80620   1.762   0.231  11.271  0.2519 -0.4173 -0.3155
25270SOL    HW180621   1.803   0.144  11.271  2.1232  0.4179 -0.3440
25270SOL    HW280622   1.783   0.267  11.356 -1.1863 -0.2628 -0.0106
25271SOL     OW80623  11.796  10.395   0.051 -0.1450  0.1284  0.7205
25271SOL    HW180624  11.769  10.486   0.039 -1.6067 -0.2582  0.9220
25271SOL    HW280625  11.820  10.366  -0.037 -0.7020  0.3992  0.4736
25272SOL     OW80626  10.539  11.941   1.250  0.2076  0.3749 -0.2878
25272SOL    HW180627  10.556  12.022   1.299 -1.8580  1.2694 -0.9436
25272SOL    HW280628  10.555  11.964   1.158  2.6686 -0.8949 -0.2545
25273SOL     OW80629   4.675   3.997  11.931 -0.1198  0.1452  0.2890
25273SOL    HW180630   4.670   4.006  11.836 -4.3041 -0.8565  0.2348
25273SOL    HW280631   4.592   4.032  11.963  0.9444  0.0269  3.5958
25274SOL     OW80632   9.264   6.193  12.323  0.0416 -0.9149 -0.2751
25274SOL    HW180633   9.214   6.186  12.404  0.9212 -0.7514  0.2916
25274SOL    HW280634   9.356   6.196  12.351  0.3287 -0.1472 -1.2215
25275SOL     OW80635  10.192   2.603   8.634  0.4108  0.0367 -0.2528
25275SOL    HW180636  10.162   2.623   8.722  0.7363  1.4229 -0.4373
25275SOL    HW280637  10.115   2.568   8.590  0.2271 -0.6044  0.5483
25276SOL     OW80638  10.288   5.906   4.801  0.1622  0.3276 -0.6670
25276SOL    HW180639  10.309   5.813   4.812  1.9206  0.7122 -0.3161
25276SOL    HW280640  10.208   5.919   4.851  0.0261 -0.9559 -0.5138
25277SOL     OW80641   1.046   4.018   5.234  0.0928  0.3041 -0.2917
25277SOL    HW180642   1.125   3.969   5.256  1.1131  0.4058 -3.2687
25277SOL    HW280643   1.071   4.069   5.157 -2.1547  2.3369  0.2122
25278SOL     OW80644   5.411   3.532   2.498  0.5702  0.0075 -0.5597
25278SOL    HW180645   5.501   3.553   2.524  0.0183  1.0595  0.5817
25278SOL    HW280646   5.401   3.440   2.522  0.4247  0.6580  2.1482
25279SOL     OW80647   4.072   8.413   4.119  0.3667  0.0422 -0.1828
25279SOL    HW180648   4.084   8.464   4.199  0.1172 -0.7381  0.3594
25279SOL    HW280649   4.067   8.322   4.148  0.2489 -0.2534 -1.0815
25280SOL     OW80650   4.735   4.470   0.590  0.2707 -0.1236 -0.4513
25280SOL    HW180651   4.661   4.441   0.644  0.5143 -1.5851 -0.8452
25280SOL    HW280652   4.695   4.501   0.509  0.1122 -2.6872 -1.4482
25281SOL     OW80653   8.432   8.637   7.567  0.1540  0.0295 -0.4622
25281SOL    HW180654   8.495   8.674   7.629  0.1313 -0.2543 -0.2636
25281SOL    HW280655   8.377   8.711   7.541  0.3679  0.2155 -0.3897
25282SOL     OW80656  10.820   4.540   3.356 -0.0942  0.6564  0.4729
25282SOL    HW180657  10.780   4.504   3.435 -0.2316  0.5604  0.3593
25282SOL    HW280658  10.814   4.469   3.292  1.3955  0.1751  0.8248
25283SOL     OW80659  11.954   7.006   8.802 -0.1629  0.6389 -0.1294
25283SOL    HW180660  11.991   6.987   8.716  1.6251 -2.1878  1.1046
25283SOL    HW280661  11.995   7.089   8.827 -1.9327  2.3714 -2.5106
25284SOL     OW80662   0.063   8.992  12.418  0.4903  0.2704  0.3152
25284SOL    HW180663   0.092   9.012  12.329  1.2843 -0.8254  0.3056
25284SOL    HW280664   0.074   9.075  12.465  0.3271  0.7872 -0.5262
25285SOL     OW80665   3.617   4.880   2.126  0.0493  0.1373  0.3110
25285SOL    HW180666   3.697   4.860   2.175  0.6601 -1.2619 -1.1567
25285SOL    HW280667   3.563   4.802   2.134  0.9083 -0.8768 -2.5595
25286SOL     OW80668   4.538  11.084   4.957  0.1382 -0.1453  0.3709
25286SOL    HW180669   4.613  11.028   4.976  0.0788 -0.0873  0.7709
25286SOL    HW280670   4.503  11.109   5.043 -0.1068  0.1403  0.1912
25287SOL     OW80671   3.682   5.798  12.020  0.2145 -0.0938 -0.3857
25287SOL    HW180672   3.738   5.875  12.026 -0.7810  0.5996  0.3444
25287SOL    HW280673   3.601   5.823  12.065 -1.0608 -0.7514 -2.2019
25288SOL     OW80674   2.238   5.417  11.718  0.2607 -0.1622  0.1122
25288SOL    HW180675   2.197   5.503  11.711 -2.2910 -1.4047 -1.5860
25288SOL    HW280676   2.246   5.402  11.812  0.3993  1.7254  0.4410
25289SOL     OW80677   7.483   2.062   7.057  0.6568  0.2796  0.0417
25289SOL    HW180678   7.545   2.078   7.128 -0.0242 -1.4645  1.1135
25289SOL    HW280679   7.434   1.985   7.086 -1.4417  1.0919 -1.1419
25290SOL     OW80680   6.539   7.766   5.510 -0.7399  0.2363 -0.1817
25290SOL    HW180681   6.633   7.749   5.515 -1.0758 -1.8400 -0.2961
25290SOL    HW280682   6.514   7.784   5.601 -0.0374  2.2064 -0.3280
25291SOL     OW80683   6.413   6.454  11.001  0.4015  0.0864  0.0602
25291SOL    HW180684   6.455   6.495  11.076  1.7188  0.2204 -0.7275
25291SOL    HW280685   6.452   6.366  10.996 -0.5234 -0.3458  0.2106
25292SOL     OW80686   7.503   0.132  12.476 -0.2739 -0.0440  0.2473
25292SOL    HW180687   7.530   0.040  12.474 -0.5170 -0.1221 -1.2169
25292SOL    HW280688   7.561   0.175  12.413 -0.7729  0.6080  0.2216
25293SOL     OW80689   4.894   2.208  10.866  0.8729  0.0168  0.6481
25293SOL    HW180690   4.807   2.246  10.854  0.2130 -2.0265 -1.6263
25293SOL    HW280691   4.953   2.267  10.817  0.2153 -0.5091 -0.8245
25294SOL     OW80692  10.173   7.800   3.964  0.4409 -0.0204 -0.0265
25294SOL    HW180693  10.120   7.853   3.905  1.9632  1.1918 -0.3407
25294SOL    HW280694  10.198   7.723   3.913 -0.4419 -0.2891 -0.0748
25295SOL     OW80695   2.545   6.714   2.909 -0.1397 -0.0161 -0.0453
25295SOL    HW180696   2.602   6.769   2.854  2.4669 -2.2357  0.2230
25295SOL    HW280697   2.518   6.772   2.980  0.1508  1.6642 -1.2314
25296SOL     OW80698   1.063  10.358   0.518 -0.7582 -0.0119  0.1225
25296SOL    HW180699   1.038  10.440   0.560 -2.3206  0.1194 -0.9758
25296SOL    HW280700   1.091  10.383   0.430 -0.0157 -0.5436  0.1923
25297SOL     OW80701   1.153  10.224   5.683 -0.2739 -0.1334  0.0903
25297SOL    HW180702   1.157  10.299   5.743  1.8541 -0.4489  0.4248
25297SOL    HW280703   1.070  10.182   5.703 -0.4156  0.7801  1.5935
25298SOL     OW80704   6.880   4.824   7.707  0.5123 -0.2073  0.1900
25298SOL    HW180705   6.808   4.887   7.697 -0.7273 -1.3111  1.6620
25298SOL    HW280706   6.862   4.780   7.789  0.8674 -3.0995 -1.1710
25299SOL     OW80707   0.597  12.607   2.171 -0.4092  0.1456 -0.2972
25299SOL    HW180708   0.551  12.535   2.128 -0.5727  0.1222 -0.0871
25299SOL    HW280709   0.527  12.666   2.199 -0.3326  0.0106  0.2065
25300SOL     OW80710   9.748   5.290   5.410 -0.4745  0.6545 -0.2739
25300SOL    HW180711   9.809   5.216   5.407 -1.9819 -0.6226 -0.6337
25300SOL    HW280712   9.689   5.269   5.482 -2.2766  0.3683 -1.7645
25301SOL     OW80713   4.912   6.106   1.552 -0.2476  0.6143 -0.1203
25301SOL    HW180714   4.895   6.144   1.466  1.1013  0.6837 -0.3866
25301SOL    HW280715   4.826   6.101   1.594 -1.4313 -2.0510 -2.5324
25302SOL     OW80716   0.023  12.499  10.245  0.3449 -0.0955 -0.5941
25302SOL    HW180717   0.097  12.439  10.243  0.1489 -0.4055  0.5027
25302SOL    HW280718   0.054  12.578  10.201  1.0043 -0.5698 -0.9863
25303SOL     OW80719  11.272   8.448   3.988 -0.0214  0.0214 -0.1136
25303SOL    HW180720  11.208   8.379   3.977  0.1690 -0.4974  1.6562
25303SOL    HW280721  11.226   8.528   3.963 -0.7228 -0.5629 -0.7356
25304SOL     OW80722   8.296  12.571   7.273 -0.2872 -0.3709 -0.1049
25304SOL    HW180723   8.269  12.554   7.183 -0.9163  1.6175 -0.3441
25304SOL    HW280724   8.273  12.663   7.288  1.2393 -0.2053  1.5674
25305SOL     OW80725   8.075   0.235   8.259 -0.4878 -0.1701 -0.1704
25305SOL    HW180726   8.148   0.188   8.300 -1.1236  0.0066  1.2071
25305SOL    HW280727   8.116   0.290   8.192  0.5850 -0.4327  0.2548
25306SOL     OW80728  12.208   9.117  11.524  0.0125  0.1049 -0.1593
25306SOL    HW180729  12.153   9.041  11.506  0.2301  0.0421 -0.5524
25306SOL    HW280730  12.297   9.088  11.504 -0.1571  1.2844 -2.9634
25307SOL     OW80731   3.415   6.915   1.093 -0.0036 -0.3516  0.3171
25307SOL    HW180732   3.373   6.830   1.080  2.8794 -2.0073  0.8083
25307SOL    HW280733   3.368   6.975   1.036 -1.9834 -2.3392 -0.2511
25308SOL     OW80734   2.911   5.328   6.279  0.5327  0.0968  0.0908
25308SOL    HW180735   2.934   5.325   6.186  0.0294  2.2350 -0.1663
25308SOL    HW280736   2.976   5.387   6.317 -0.2526  0.5602  0.7393
25309SOL     OW80737   8.508   7.283   6.755  0.1560 -0.0460 -0.1477
25309SOL    HW180738   8.457   7.206   6.732 -0.4438  0.8272 -1.9479
25309SOL    HW280739   8.518   7.278   6.850  0.2600 -2.3800 -0.2236
25310SOL     OW80740   8.416  11.007  11.063  0.2879  0.0419 -0.0474
25310SOL    HW180741   8.324  11.032  11.069  0.7839  1.6316  3.9641
25310SOL    HW280742   8.465  11.089  11.067  2.0167 -0.6820 -2.9867
25311SOL     OW80743   3.295   3.396   3.972  0.1554  0.2317  0.2704
25311SOL    HW180744   3.276   3.321   4.028 -1.9362  0.8641  0.4814
25311SOL    HW280745   3.352   3.451   4.026  1.2439 -0.9093  0.3264
25312SOL     OW80746  10.905  12.543  12.338  0.0460  0.0507 -0.7313
25312SOL    HW180747  10.956  12.576  12.264 -0.8388  0.4261 -1.1977
25312SOL    HW280748  10.815  12.568  12.317 -0.1981  0.2688  0.5462
25313SOL     OW80749   6.910   3.563   5.988  0.5845  0.2348  0.4234
25313SOL    HW180750   6.893   3.480   6.032  0.2688  0.0723  0.0012
25313SOL    HW280751   6.976   3.543   5.922 -0.1698  0.1175 -0.3038
25314SOL     OW80752   0.646   1.929   5.260  0.2665 -0.4294  0.6357
25314SOL    HW180753   0.712   1.979   5.308  2.1182  0.1273 -2.2440
25314SOL    HW280754   0.617   1.987   5.191 -2.5217 -1.0859  1.1074
25315SOL     OW80755   5.351   9.186  12.225  0.1108  0.5406 -0.3803
25315SOL    HW180756   5.309   9.230  12.299  0.0233 -1.0420  0.5534
25315SOL    HW280757   5.297   9.109  12.209  0.3502  0.6460 -1.8672
25316SOL     OW80758   6.857   1.477   7.512  0.0261 -0.0293 -0.2592
25316SOL    HW180759   6.922   1.508   7.575  0.3778  1.8949 -1.4747
25316SOL    HW280760   6.909   1.446   7.438 -0.4137  0.0117 -0.5859
25317SOL     OW80761   9.056   3.042   2.056  0.1596  0.6099  0.9625
25317SOL    HW180762   9.150   3.029   2.044  0.2435  1.2628  0.9191
25317SOL    HW280763   9.029   3.093   1.980 -0.7954 -2.1041 -0.6505
25318SOL     OW80764   1.159   0.467  11.378 -0.0429  0.1485 -0.3564
25318SOL    HW180765   1.153   0.401  11.447 -0.1254 -0.1444 -0.6468
25318SOL    HW280766   1.152   0.550  11.425 -2.4074 -0.0624 -0.2317
25319SOL     OW80767  11.614  10.340   5.506 -0.3317 -0.1353  0.0359
25319SOL    HW180768  11.600  10.343   5.411  1.5960 -2.0569 -0.3958
25319SOL    HW280769  11.709  10.333   5.516 -0.6113 -2.7056  1.9599
25320SOL     OW80770   8.273   4.876   6.815 -0.0265 -0.4218 -0.0272
25320SOL    HW180771   8.217   4.861   6.739  0.8331 -0.6582 -0.6290
25320SOL    HW280772   8.320   4.956   6.795  0.7016 -0.8507 -0.0502
25321SOL     OW80773   8.401   4.929   0.669 -0.3288  0.5303  0.2038
25321SOL    HW180774   8.331   4.901   0.610  0.0284  2.7493 -1.4376
25321SOL    HW280775   8.365   5.003   0.716  0.7214  1.3923 -0.3073
25322SOL     OW80776   3.743   4.474  11.725  0.2839  0.6015  0.4212
25322SOL    HW180777   3.720   4.567  11.721 -0.5504  0.4038  0.4254
25322SOL    HW280778   3.678   4.436  11.784  0.9284  0.1017  0.8198
25323SOL     OW80779   5.073   0.792   7.990 -0.2910  0.7453  0.5763
25323SOL    HW180780   5.127   0.775   8.068 -1.3327 -0.7457  1.0299
25323SOL    HW280781   4.983   0.791   8.023 -0.7632 -0.0792 -0.6624
25324SOL     OW80782   7.432   3.959   7.161 -0.2892  0.4022  0.1275
25324SOL    HW180783   7.385   4.001   7.089 -1.0290 -0.3208  0.1676
25324SOL    HW280784   7.524   3.961   7.134 -0.4783  0.7618 -0.5129
25325SOL     OW80785   3.431  10.700   7.141  0.0132 -0.2363 -0.3114
25325SOL    HW180786   3.358  10.700   7.203 -0.8110 -0.8654 -1.2502
25325SOL    HW280787   3.410  10.771   7.079 -0.6083 -1.4052 -1.4776
25326SOL     OW80788   8.982  12.510   8.526  0.1228  0.2636  0.2625
25326SOL    HW180789   9.038  12.490   8.452  1.3282 -0.7140  1.3908
25326SOL    HW280790   8.999  12.602   8.546 -1.0784  0.8920 -1.3294
25327SOL     OW80791  10.750   6.540   9.852  0.5513  0.3807 -0.0739
25327SOL    HW180792  10.699   6.527   9.772  1.5812  1.6488 -0.9866
25327SOL    HW280793  10.685   6.545   9.922 -0.3799 -0.5719 -0.8437
25328SOL     OW80794   2.853   0.723  11.421  0.2918 -0.2145  0.3336
25328SOL    HW180795   2.911   0.659  11.380 -0.5136 -0.9223  0.2773
25328SOL    HW280796   2.844   0.792  11.356  0.7086 -0.3248  0.1592
25329SOL     OW80797   6.763   9.925  11.452 -0.5938 -0.7085  0.0120
25329SOL    HW180798   6.679   9.890  11.483  0.4400 -1.9848  1.5470
25329SOL    HW280799   6.809   9.848  11.417  0.1242 -0.1198 -0.3596
25330SOL     OW80800  12.037  10.171   6.898 -0.1657  0.2837 -0.5949
25330SOL    HW180801  11.991  10.087   6.900 -2.1979  1.3187  1.5834
25330SOL    HW280802  12.007  10.213   6.818 -1.0999 -0.0882 -0.4491
25331SOL     OW80803   9.256   4.960   2.309 -0.0562 -0.5905 -0.1053
25331SOL    HW180804   9.185   4.924   2.362 -0.4347 -0.2007 -0.3356
25331SOL    HW280805   9.322   4.891   2.307  0.2717 -0.3579  1.4251
25332SOL     OW80806   6.452   4.810  10.681  0.1845 -0.1943 -0.2439
25332SOL    HW180807   6.378   4.867  10.705 -1.0885 -1.8790  0.0178
25332SOL    HW280808   6.460   4.820  10.586  2.1660  2.8892  0.1044
25333SOL     OW80809  11.144   0.471   7.815  0.4227 -0.9217 -0.0662
25333SOL    HW180810  11.077   0.520   7.862  0.9648 -0.4927  0.2757
25333SOL    HW280811  11.096   0.420   7.750 -0.4132 -2.1275  1.4456
25334SOL     OW80812   8.592   4.803   7.150  0.2199  0.4591 -0.0231
25334SOL    HW180813   8.509   4.817   7.106  0.3713  0.4216 -0.3249
25334SOL    HW280814   8.603   4.708   7.151  0.2005  0.4579  0.1296
25335SOL     OW80815   8.384  11.511   2.654  0.4237  0.1619  0.0821
25335SOL    HW180816   8.359  11.588   2.706  1.3129  1.4159 -1.2478
25335SOL    HW280817   8.478  11.524   2.637 -0.1883  0.9020 -3.4576
25336SOL     OW80818   6.814   3.628  11.610  0.1972  0.2189  0.0161
25336SOL    HW180819   6.808   3.546  11.658 -0.3783  0.1670 -0.1373
25336SOL    HW280820   6.781   3.607  11.523  1.9451  0.1180 -0.6703
25337SOL     OW80821   0.625  10.802   1.525  0.4300 -0.1418  0.1926
25337SOL    HW180822   0.533  10.823   1.517  0.4804 -0.5760 -2.3701
25337SOL    HW280823   0.669  10.886   1.537 -0.2418  0.1122  0.9005
25338SOL     OW80824   1.769   4.734   7.543 -1.0241 -0.1788 -0.3473
25338SOL    HW180825   1.734   4.666   7.600 -1.8297 -0.0041 -0.6169
25338SOL    HW280826   1.733   4.815   7.577  1.1535  0.3356  0.9137
25339SOL     OW80827   3.539   2.595   2.254 -0.0557  0.1272 -0.0603
25339SOL    HW180828   3.472   2.659   2.277  0.1362  0.4470 -0.3732
25339SOL    HW280829   3.615   2.648   2.230  0.5061 -0.2374  0.8596
25340SOL     OW80830   2.196   1.104   4.587  0.2274  0.1418  0.5107
25340SOL    HW180831   2.285   1.108   4.551  0.4446 -0.2786  0.9727
25340SOL    HW280832   2.208   1.062   4.673  0.1047  3.3909  2.2853
25341SOL     OW80833   1.452   1.483  10.385 -0.5025  0.2134 -0.0455
25341SOL    HW180834   1.403   1.565  10.385 -2.8155 -1.0786 -0.1161
25341SOL    HW280835   1.392   1.419  10.347  1.1017 -1.5983  0.2892
25342SOL     OW80836   2.787   0.605   0.598 -0.7717 -0.0656 -0.1163
25342SOL    HW180837   2.808   0.514   0.620 -2.3928 -0.3189  0.4856
25342SOL    HW280838   2.839   0.623   0.520  1.9083 -0.5168  1.4038
25343SOL     OW80839   8.369   0.770   1.477  0.5030  0.6789  0.3770
25343SOL    HW180840   8.408   0.853   1.506 -0.3225  0.3813  2.5322
25343SOL    HW280841   8.440   0.724   1.434  1.5250  1.6919  0.8993
25344SOL     OW80842   6.848   6.510   2.986  0.3240  0.2600  0.2067
25344SOL    HW180843   6.841   6.436   3.047 -3.0389 -0.1037 -0.4346
25344SOL    HW280844   6.781   6.571   3.016  0.8569  1.5911 -1.2129
25345SOL     OW80845   1.530   8.719   1.701 -0.4023 -0.3088  0.1644
25345SOL    HW180846   1.522   8.814   1.688 -1.1505 -0.4321 -0.2983
25345SOL    HW280847   1.585   8.689   1.629  0.3365 -0.1461  0.6517
25346SOL     OW80848   7.721   1.828   9.576 -0.1582  0.2436 -0.3426
25346SOL    HW180849   7.767   1.744   9.575 -0.7889 -0.1104 -0.7241
25346SOL    HW280850   7.647   1.815   9.517 -0.2336  1.0902 -0.4425
25347SOL     OW80851  12.635  12.044   8.507  0.2165  0.0389  0.2306
25347SOL    HW180852  12.679  11.989   8.442 -0.4813 -1.0627  0.6545
25347SOL    HW280853  12.542  12.025   8.494 -0.2710  2.8704 -1.1605
25348SOL     OW80854   7.806   5.941   5.499  0.0224  0.4314  0.3460
25348SOL    HW180855   7.809   6.023   5.450  0.9886 -0.5526 -1.3589
25348SOL    HW280856   7.838   5.964   5.586  2.1026  1.5620 -0.6238
25349SOL     OW80857   6.032  10.255   3.417 -0.0054 -0.5450 -0.5192
25349SOL    HW180858   6.008  10.181   3.360 -0.2719 -1.3168  0.5523
25349SOL    HW280859   5.954  10.311   3.417 -0.3798 -1.0486 -0.1579
25350SOL     OW80860   1.189   2.615  11.815 -0.3268 -0.0241  0.1130
25350SOL    HW180861   1.280   2.638  11.831 -0.0524  1.6415 -2.9752
25350SOL    HW280862   1.139   2.689  11.850 -0.2794  0.1871 -0.2554
25351SOL     OW80863   1.780   6.753   7.740  1.1179 -0.1182  0.3316
25351SOL    HW180864   1.711   6.730   7.678  1.9724 -0.5770 -0.4666
25351SOL    HW280865   1.749   6.834   7.781 -0.0028 -0.4403  0.1787
25352SOL     OW80866   0.128   6.157  12.067  0.5351  0.1517  0.8070
25352SOL    HW180867   0.032   6.163  12.071  0.2205 -2.7968 -0.0879
25352SOL    HW280868   0.152   6.215  11.995 -0.6079  0.7455  0.8783
25353SOL     OW80869   6.367  11.723   0.020 -0.0123  0.2592 -0.1418
25353SOL    HW180870   6.318  11.641   0.020  0.3484  0.0428 -0.3866
25353SOL    HW280871   6.346  11.764   0.104  0.8599 -0.7137  0.5635
25354SOL     OW80872   9.044  10.624   7.469 -0.2661  0.1402 -0.0752
25354SOL    HW180873   9.101  10.640   7.544 -0.2201  0.7084 -0.2260
25354SOL    HW280874   8.998  10.543   7.491  1.8766 -1.3410 -0.7269
25355SOL     OW80875  11.165   1.801   5.102  0.1885  0.3793 -0.0535
25355SOL    HW180876  11.112   1.803   5.182 -0.4401 -1.5041 -0.3892
25355SOL    HW280877  11.180   1.708   5.086  1.1237  0.7813 -1.6005
25356SOL     OW80878   3.775   3.534   1.079  0.1270  0.4046 -0.4721
25356SOL    HW180879   3.826   3.538   0.998  0.6282  0.5835 -0.1474
25356SOL    HW280880   3.809   3.458   1.126 -0.3900  0.1007 -0.5748
25357SOL     OW80881   6.593   2.991   2.703  0.1842 -0.0345  0.3972
25357SOL    HW180882   6.566   2.914   2.752  0.4593 -0.7009 -0.4731
25357SOL    HW280883   6.522   3.005   2.640 -0.5930  1.3369  1.5200
25358SOL     OW80884   3.972  10.066   5.054 -0.1081 -1.0304  0.2783
25358SOL    HW180885   3.933  10.138   5.005 -1.4495 -1.7116  0.3177
25358SOL    HW280886   4.062  10.061   5.022 -0.1413  0.3253 -0.0886
25359SOL     OW80887   2.535  12.228  10.711 -0.3487  0.0738 -0.0611
25359SOL    HW180888   2.552  12.268  10.796 -1.0269  0.0885  0.0795
25359SOL    HW280889   2.619  12.227  10.666 -0.0556  0.3746  0.4830
25360SOL     OW80890   9.630   1.442   7.995 -0.5701 -0.0938  0.3518
25360SOL    HW180891   9.693   1.445   7.923 -0.0336  0.6329  0.8212
25360SOL    HW280892   9.645   1.525   8.042 -0.7955 -0.6191  1.3703
25361SOL     OW80893   0.624  10.872   6.574 -0.2210  0.2819 -0.1916
25361SOL    HW180894   0.611  10.787   6.618  0.6803 -0.1497 -0.7175
25361SOL    HW280895   0.634  10.849   6.482  1.2429  0.8193 -0.1949
25362SOL     OW80896   5.511  10.574   9.961  0.0237  0.0673 -0.0148
25362SOL    HW180897   5.566  10.611   9.892 -1.5167 -1.0845 -1.9597
25362SOL    HW280898   5.544  10.485   9.972 -1.7909 -0.8770 -1.7063
25363SOL     OW80899  11.592   0.059   8.375  0.5636 -0.1662 -0.2322
25363SOL    HW180900  11.614  -0.027   8.410 -0.7974 -0.8530 -0.9971
25363SOL    HW280901  11.646   0.068   8.297 -0.3927 -1.0220 -1.0270
25364SOL     OW80902   7.128  10.091  10.397  0.2495  0.1554 -0.4155
25364SOL    HW180903   7.183  10.020  10.365  0.2803  0.1688 -0.3926
25364SOL    HW280904   7.190  10.153  10.437  0.1491 -0.2006  0.3080
25365SOL     OW80905   0.540   0.273   3.132  0.3570  0.2218  0.0428
25365SOL    HW180906   0.512   0.355   3.092 -2.0083 -0.3076  0.4609
25365SOL    HW280907   0.530   0.208   3.062  2.4948  0.2912 -0.3754
25366SOL     OW80908   1.726   5.846   5.730 -0.3739  0.6633 -0.6336
25366SOL    HW180909   1.761   5.816   5.646 -1.1564  0.0261 -0.7371
25366SOL    HW280910   1.712   5.766   5.781  0.1092  1.0420  0.1271
25367SOL     OW80911   5.243   6.416  12.521  0.3606 -0.1833  0.3533
25367SOL    HW180912   5.264   6.509  12.531  0.2892 -0.1778  0.4542
25367SOL    HW280913   5.215   6.389  12.608 -1.3992  0.1405 -0.0619
25368SOL     OW80914   4.893  12.115   5.465  0.5426  0.1945  0.2311
25368SOL    HW180915   4.848  12.048   5.517 -0.9345 -0.2876 -1.5513
25368SOL    HW280916   4.887  12.083   5.375  0.1834  2.4932 -0.6281
25369SOL     OW80917  12.158   5.188   0.836 -0.3878 -0.0322  0.8003
25369SOL    HW180918  12.251   5.211   0.833 -0.6376  1.0251  0.7937
25369SOL    HW280919  12.112   5.270   0.818 -1.3281 -0.5365  0.8217
25370SOL     OW80920   8.137   1.403   4.361  0.7225  0.3762  0.0502
25370SOL    HW180921   8.166   1.470   4.424  2.9247  0.0403 -0.5330
25370SOL    HW280922   8.067   1.446   4.312  0.0229  1.1841  1.6597
25371SOL     OW80923  11.815   1.109   9.156  0.4788 -0.0671  0.0956
25371SOL    HW180924  11.900   1.146   9.130  0.2099  1.4677  1.2577
25371SOL    HW280925  11.774   1.083   9.073  0.4851  2.7740 -0.9201
25372SOL     OW80926   7.097   2.631   6.160 -0.1972  0.0872  0.3042
25372SOL    HW180927   7.176   2.666   6.201 -1.0249  0.4621  1.6577
25372SOL    HW280928   7.030   2.696   6.179 -1.2197 -1.0643  0.7633
25373SOL     OW80929   3.232   0.890   5.136 -0.3367  0.3308 -0.0997
25373SOL    HW180930   3.278   0.826   5.081  1.6918  1.3971  0.2555
25373SOL    HW280931   3.263   0.872   5.225  1.8987  2.9193 -0.1862
25374SOL     OW80932   5.377  11.478  10.204 -0.3220 -0.0402  0.6658
25374SOL    HW180933   5.377  11.399  10.256 -0.7723  0.0189  0.7592
25374SOL    HW280934   5.399  11.548  10.266  0.6110 -0.1474  0.4813
25375SOL     OW80935  10.693   9.361   4.899  0.1725  0.4933  0.1075
25375SOL    HW180936  10.748   9.431   4.935  0.0548  1.0139 -0.6936
25375SOL    HW280937  10.722   9.351   4.809 -0.4955  0.2140 -0.0857
25376SOL     OW80938  10.022   2.727   6.572  0.0027  0.0028 -0.2380
25376SOL    HW180939  10.034   2.641   6.611 -1.4444  0.5980  1.6683
25376SOL    HW280940  10.092   2.780   6.611  1.2187 -0.3782 -1.8065
25377SOL     OW80941   5.962   7.756   9.749 -0.6437  0.1783 -0.2879
25377SOL    HW180942   5.928   7.758   9.838  0.6271 -0.0713  0.2190
25377SOL    HW280943   5.894   7.798   9.696 -2.3163 -1.4322  0.4680
25378SOL     OW80944   0.933   2.263   6.431 -0.3753 -0.6875  0.3014
25378SOL    HW180945   0.928   2.320   6.354 -2.4516 -2.3487 -0.9110
25378SOL    HW280946   1.025   2.265   6.456  0.0382  1.3310 -1.0949
25379SOL     OW80947  11.814   1.872  10.506 -0.1944 -0.0680 -0.0912
25379SOL    HW180948  11.809   1.965  10.526  1.1914 -0.3771  1.9486
25379SOL    HW280949  11.902   1.846  10.532 -0.1548 -1.7351 -1.6886
25380SOL     OW80950   7.493  11.948   6.450 -0.1450 -0.4752 -0.2410
25380SOL    HW180951   7.557  11.978   6.515 -2.3999  0.8811  1.4887
25380SOL    HW280952   7.547  11.917   6.377  2.6206  3.9315 -0.4958
25381SOL     OW80953   8.405  10.853   7.286 -0.2692  0.5216 -0.3847
25381SOL    HW180954   8.480  10.796   7.304 -0.4318  0.4847  0.1785
25381SOL    HW280955   8.374  10.880   7.372  0.0266  1.7581 -0.6471
25382SOL     OW80956  12.180   5.970   8.182  0.0120 -0.0284  0.2171
25382SOL    HW180957  12.263   5.986   8.228  0.4571  1.6096 -1.0421
25382SOL    HW280958  12.185   5.878   8.156  1.5409  0.0868 -0.0149
25383SOL     OW80959   7.143   4.351   8.496 -0.2587 -0.2014  0.4990
25383SOL    HW180960   7.238   4.349   8.479 -0.2803 -1.1305  0.4243
25383SOL    HW280961   7.123   4.263   8.528 -1.3969 -0.5967 -1.1627
25384SOL     OW80962   7.698   1.854   6.474 -0.1743  0.4384 -0.3271
25384SOL    HW180963   7.772   1.827   6.528 -0.4605  2.1357  0.9798
25384SOL    HW280964   7.622   1.812   6.516 -0.3025  1.1299  0.1435
25385SOL     OW80965   9.005  12.250   0.296  0.4870 -0.1565 -0.6221
25385SOL    HW180966   9.033  12.341   0.310  1.4230 -0.5300  0.0892
25385SOL    HW280967   8.937  12.256   0.230 -1.3681  1.3566  1.2746
25386SOL     OW80968   6.806   9.062   1.974  0.0108  0.0621  0.2828
25386SOL    HW180969   6.749   9.035   1.902 -0.5610  0.8827  0.4091
25386SOL    HW280970   6.789   8.998   2.043 -0.3601 -0.0101  0.1279
25387SOL     OW80971   9.112   6.360   1.146 -0.4353 -0.0409  0.0036
25387SOL    HW180972   9.027   6.350   1.188 -0.0578  2.8057  1.7565
25387SOL    HW280973   9.104   6.441   1.095  1.1545  0.2203  0.1125
25388SOL     OW80974  10.443  10.110   5.925  0.5181  0.4467  0.5187
25388SOL    HW180975  10.527  10.117   5.970  1.6044 -0.8131 -1.2422
25388SOL    HW280976  10.435  10.018   5.900  0.2149  1.1270 -2.2606
25389SOL     OW80977   9.674   6.685  12.350 -0.1730  0.5357  0.6681
25389SOL    HW180978   9.649   6.594  12.368 -1.2066  0.3883 -1.2350
25389SOL    HW280979   9.627   6.707  12.270 -1.1133  3.2500  1.8498
25390SOL     OW80980  11.353  10.159  10.091 -0.0585 -0.1904  0.5463
25390SOL    HW180981  11.395  10.154  10.005  1.7456 -0.8984  1.3963
25390SOL    HW280982  11.307  10.243  10.091  1.3606  0.6406 -0.5235
25391SOL     OW80983   3.745   8.582   8.969  0.3890 -0.2949  0.1302
25391SOL    HW180984   3.774   8.509   9.022  0.6583  1.1663  2.1038
25391SOL    HW280985   3.651   8.590   8.988 -0.0456 -1.1716 -1.4515
25392SOL     OW80986   4.515   8.862   2.978  0.2977  0.2251  0.6171
25392SOL    HW180987   4.544   8.884   3.067 -0.1455 -2.0521  1.3828
25392SOL    HW280988   4.555   8.777   2.960  0.8307  0.8737 -1.6337
25393SOL     OW80989  11.073   4.418  11.063 -0.7551  0.2196 -0.2363
25393SOL    HW180990  10.984   4.444  11.042 -0.9788  1.9169  2.2962
25393SOL    HW280991  11.127   4.491  11.031 -0.7571  1.1113  1.6444
25394SOL     OW80992   9.085   8.627   2.382  0.0638  0.0023  0.3371
25394SOL    HW180993   9.119   8.560   2.441 -0.7007 -0.7808 -0.0878
25394SOL    HW280994   9.120   8.709   2.416 -1.5612 -0.2253  2.8314
25395SOL     OW80995   0.146   1.947   9.394  0.4028  0.2511  0.1695
25395SOL    HW180996   0.201   1.953   9.315  0.4314  1.5974  0.2696
25395SOL    HW280997   0.196   1.994   9.461 -1.0761  1.9605  0.1381
25396SOL     OW80998  10.962   7.872   0.539 -0.8543 -0.3705  0.3182
25396SOL    HW180999  11.055   7.848   0.539 -0.6958  0.2283  0.2150
25396SOL    HW281000  10.924   7.820   0.468 -0.1816  0.8886 -1.0197
25397SOL     OW81001   9.722  10.719   0.197 -0.3420 -0.3466 -0.6675
25397SOL    HW181002   9.677  10.643   0.234 -1.3105 -0.9998 -2.9902
25397SOL    HW281003   9.775  10.683   0.126  0.9649  0.8985 -0.3527
25398SOL     OW81004   8.166   8.881   2.541  0.2170  0.0339 -0.3746
25398SOL    HW181005   8.168   8.786   2.532  0.3017  0.1793 -2.2327
25398SOL    HW281006   8.249   8.910   2.503 -0.4310  0.9337 -1.1427
25399SOL     OW81007   8.853  11.748  12.533 -0.3600  0.2308 -0.6043
25399SOL    HW181008   8.784  11.719  12.474 -0.9622 -1.4229  0.8220
25399SOL    HW281009   8.824  11.835  12.563 -2.6146 -0.9785  1.0254
25400SOL     OW81010   5.979   5.540   3.072  0.0195 -0.0404  0.0096
25400SOL    HW181011   6.046   5.527   3.005 -1.8334 -0.4791 -1.8379
25400SOL    HW281012   5.970   5.636   3.078  2.6525  0.1882  2.2985
25401SOL     OW81013   3.276   8.088   0.675  0.2440  0.3232  0.4090
25401SOL    HW181014   3.201   8.052   0.628 -0.2262  2.2608 -0.4066
25401SOL    HW281015   3.241   8.118   0.759  0.8160 -1.8412  1.5017
25402SOL     OW81016   3.605   1.554  12.397 -0.1120 -0.1811  0.0433
25402SOL    HW181017   3.692   1.581  12.426 -1.2075  2.1740  1.3845
25402SOL    HW281018   3.605   1.459  12.405  1.5232 -0.0509  2.4771
25403SOL     OW81019   4.620   2.620   6.078  0.1681  0.4101  0.3340
25403SOL    HW181020   4.643   2.654   6.164 -1.5618  1.6818  0.3378
25403SOL    HW281021   4.525   2.628   6.073  0.3129  1.5314 -2.1646
25404SOL     OW81022  11.600   2.329   2.401 -0.1075 -0.0057 -0.6876
25404SOL    HW181023  11.693   2.352   2.412 -0.1725 -0.5745  1.3364
25404SOL    HW281024  11.601   2.237   2.377 -0.1853 -0.8464  2.2417
25405SOL     OW81025   8.854   8.352   2.244  0.0960 -0.1838  0.2520
25405SOL    HW181026   8.876   8.356   2.337  1.4272  0.8482 -0.0669
25405SOL    HW281027   8.760   8.335   2.242 -0.0063  0.0505  1.7863
25406SOL     OW81028   2.768   2.964   9.109 -0.0031  0.1903  0.2023
25406SOL    HW181029   2.841   2.923   9.155 -0.0089  1.8671  1.8122
25406SOL    HW281030   2.724   2.892   9.063  2.5333 -0.8783 -0.6838
25407SOL     OW81031   0.128   9.584   9.595  0.3161 -0.2980 -0.0287
25407SOL    HW181032   0.195   9.558   9.658  1.8515  0.3447 -1.3175
25407SOL    HW281033   0.148   9.675   9.574 -0.8916 -0.1316 -0.5430
25408SOL     OW81034  11.110   1.972   5.867  0.8093  0.4017 -0.0144
25408SOL    HW181035  11.205   1.972   5.858  0.9264  2.0729  0.9166
25408SOL    HW281036  11.093   2.034   5.938 -0.8466 -1.3807  1.2422
25409SOL     OW81037   6.216   3.284   6.984  0.4935  0.1201 -0.7057
25409SOL    HW181038   6.185   3.374   6.975 -2.9883 -0.4845  2.3916
25409SOL    HW281039   6.173   3.237   6.913 -1.2293  0.3143  0.1406
25410SOL     OW81040   1.505   9.434   1.624  0.1399  0.5237  0.3674
25410SOL    HW181041   1.490   9.380   1.547 -1.1528 -0.4214  1.2352
25410SOL    HW281042   1.476   9.522   1.599  1.9057  0.7661 -0.9369
25411SOL     OW81043   3.968  10.273   8.896 -0.4485 -0.4751  0.2838
25411SOL    HW181044   4.048  10.234   8.861 -0.4808 -0.2722 -0.0216
25411SOL    HW281045   3.999  10.343   8.953 -0.4033  1.1810 -1.6494
25412SOL     OW81046   0.857  11.107   9.850 -0.1229 -0.2094  0.5756
25412SOL    HW181047   0.769  11.086   9.819  0.6968 -0.1933 -1.9993
25412SOL    HW281048   0.854  11.201   9.870 -0.6487 -0.1796  0.3545
25413SOL     OW81049  11.275   5.159   9.175  0.9666  0.2168  0.0139
25413SOL    HW181050  11.230   5.154   9.259  2.0177  0.7531  0.6237
25413SOL    HW281051  11.321   5.243   9.177 -0.2730  1.0092 -1.7554
25414SOL     OW81052   5.760  10.698   5.607  0.7982 -0.2021 -0.3357
25414SOL    HW181053   5.790  10.746   5.684  1.1372  2.3146 -1.9149
25414SOL    HW281054   5.669  10.676   5.626  0.9264  0.2151  0.8356
25415SOL     OW81055   2.286   9.946   8.162  0.0442 -0.2570 -0.3899
25415SOL    HW181056   2.356  10.010   8.148  0.6962 -0.9795 -0.5102
25415SOL    HW281057   2.306   9.907   8.247  0.3690 -1.1617 -0.8631
25416SOL     OW81058   2.828   0.715  10.972  0.0906 -0.2360  0.5743
25416SOL    HW181059   2.820   0.805  10.939  1.4720  0.3610  1.7217
25416SOL    HW281060   2.774   0.713  11.051  0.0590 -0.4224  0.5492
25417SOL     OW81061   5.347   5.567   2.790 -0.0492 -0.1001  0.1557
25417SOL    HW181062   5.366   5.480   2.826  0.7620 -0.1804 -0.4245
25417SOL    HW281063   5.410   5.577   2.719  0.6833  1.4675  0.9810
25418SOL     OW81064   8.125   8.743  10.175 -0.1683  0.3182 -0.1306
25418SOL    HW181065   8.133   8.686  10.252 -0.7502  0.9489  0.4206
25418SOL    HW281066   8.046   8.795  10.192 -0.5015  0.2338 -1.3225
25419SOL     OW81067   9.615   4.189   5.243 -0.5983 -0.0150  0.0030
25419SOL    HW181068   9.646   4.099   5.238  3.5478  1.1859  0.5496
25419SOL    HW281069   9.615   4.210   5.336  2.4418  1.5938 -0.2385
25420SOL     OW81070   9.279   2.765   9.486 -0.0189 -0.0206 -0.4494
25420SOL    HW181071   9.321   2.841   9.527 -0.1125 -0.6229  0.7732
25420SOL    HW281072   9.190   2.764   9.522  0.2269 -1.1702  0.1436
25421SOL     OW81073   1.882  11.867  12.267 -0.2077 -0.1207 -0.2409
25421SOL    HW181074   1.922  11.875  12.181  2.3059  0.0128  0.8516
25421SOL    HW281075   1.831  11.947  12.277  0.3133  0.3491 -1.1990
25422SOL     OW81076  10.572   0.102  10.216  0.2722 -0.6561  0.0789
25422SOL    HW181077  10.603   0.075  10.302 -0.5395  2.7052  1.5514
25422SOL    HW281078  10.477   0.110  10.225  0.1723 -0.2394 -1.1453
25423SOL     OW81079   5.214   5.597  12.567 -0.1065 -0.7132  0.0366
25423SOL    HW181080   5.216   5.593  12.662  0.0732 -0.3289  0.0506
25423SOL    HW281081   5.173   5.681  12.547 -1.0350 -1.2162 -0.2285
25424SOL     OW81082   8.151   2.308   8.640 -0.3340 -0.0086  0.1607
25424SOL    HW181083   8.081   2.357   8.596  0.2460 -0.4817 -1.3116
25424SOL    HW281084   8.115   2.220   8.653 -0.2601 -0.0530  0.0582
25425SOL     OW81085   9.245   8.394   1.672 -0.2803 -0.1258  0.0491
25425SOL    HW181086   9.265   8.399   1.765  0.6491  0.3605 -0.1640
25425SOL    HW281087   9.233   8.485   1.645 -1.0369 -0.2947 -0.2071
25426SOL     OW81088   2.661  10.583   0.963 -0.2015 -0.3218  0.4528
25426SOL    HW181089   2.583  10.549   0.917 -0.4015 -0.6151  0.9971
25426SOL    HW281090   2.734  10.542   0.918 -0.3969 -0.6133  0.3933
25427SOL     OW81091  11.676   6.472   1.698 -0.0086 -0.0710 -0.0049
25427SOL    HW181092  11.756   6.525   1.691  0.3041 -0.5624 -0.1343
25427SOL    HW281093  11.651   6.480   1.790  0.9203 -0.9642  0.3463
25428SOL     OW81094   6.245   2.932   8.477  0.3363  0.9130 -0.1668
25428SOL    HW181095   6.238   3.004   8.539  0.6766  1.1226 -0.3715
25428SOL    HW281096   6.155   2.920   8.445  0.0368  0.3844  0.8192
25429SOL     OW81097  10.820   9.885   8.640 -0.6751 -0.1978  0.2503
25429SOL    HW181098  10.734   9.920   8.661 -0.3384  0.4649  0.5575
25429SOL    HW281099  10.852   9.941   8.570 -0.9527 -1.1427 -0.6607
25430SOL     OW81100   2.383  10.090   5.482 -0.5212 -0.0274 -0.1491
25430SOL    HW181101   2.352  10.137   5.560 -0.1864  0.9758 -0.6043
25430SOL    HW281102   2.382   9.998   5.508  1.9656  0.4127  1.9363
25431SOL     OW81103   5.287   9.138   0.720 -0.3174  0.1760 -0.4500
25431SOL    HW181104   5.294   9.162   0.813 -0.8775  0.2750 -0.4268
25431SOL    HW281105   5.342   9.201   0.674  1.4713 -1.0028 -0.0317
25432SOL     OW81106   2.391   3.457   6.746 -0.1449 -0.1053  0.2622
25432SOL    HW181107   2.428   3.372   6.769 -0.4617 -0.2520  0.2353
25432SOL    HW281108   2.334   3.479   6.819  0.6010  0.4913  0.6720
25433SOL     OW81109   9.202   2.558   2.540  0.0268 -0.1335 -0.2695
25433SOL    HW181110   9.192   2.485   2.479  0.4820 -0.4036 -0.0263
25433SOL    HW281111   9.138   2.623   2.511  0.6875  0.0233 -1.4495
25434SOL     OW81112   9.199   6.992   0.492  0.0057  0.4111 -0.3065
25434SOL    HW181113   9.228   7.083   0.483  2.7700 -0.2510  0.8382
25434SOL    HW281114   9.210   6.973   0.585 -1.5522 -0.8054 -0.3436
25435SOL     OW81115   6.709   3.872   4.295 -0.4035 -0.3791  0.2226
25435SOL    HW181116   6.798   3.849   4.268 -0.3059  0.7449 -0.4861
25435SOL    HW281117   6.713   3.880   4.390  0.0642 -1.1115  0.2649
25436SOL     OW81118   2.446   3.234   8.247 -0.3212 -0.2987 -0.4108
25436SOL    HW181119   2.448   3.286   8.167 -0.8909  0.4542  0.0454
25436SOL    HW281120   2.353   3.211   8.258 -0.2273 -0.4964 -0.0300
25437SOL     OW81121   7.562   5.973   6.005  0.1864  0.2655  1.2821
25437SOL    HW181122   7.573   6.068   6.006  1.1647  0.1813  0.6205
25437SOL    HW281123   7.631   5.942   5.946 -0.6127 -0.7974  0.8827
25438SOL     OW81124   6.418   1.245   4.853 -0.3434 -0.1715  0.0763
25438SOL    HW181125   6.343   1.299   4.829 -1.3001 -1.4503  0.1161
25438SOL    HW281126   6.381   1.159   4.872  1.1665 -0.8880 -0.1097
25439SOL     OW81127   3.335   4.369   7.220 -0.3854 -0.6824 -0.9365
25439SOL    HW181128   3.388   4.319   7.158  1.4989  0.8330 -0.6462
25439SOL    HW281129   3.263   4.403   7.167  0.3604 -0.6540 -1.9705
25440SOL     OW81130   2.078   5.802   7.520 -0.0269  0.0589  0.1449
25440SOL    HW181131   1.998   5.834   7.562  0.9113  1.1704  1.1877
25440SOL    HW281132   2.139   5.790   7.593  1.3506  1.0956 -0.7853
25441SOL     OW81133   6.590   7.135   5.876  0.5422 -0.4217  0.5441
25441SOL    HW181134   6.631   7.193   5.941  0.7907 -0.9033  0.8192
25441SOL    HW281135   6.519   7.188   5.839  1.5914  0.5473 -0.1635
25442SOL     OW81136   1.826   1.326   0.050  0.1122  0.4036  0.1977
25442SOL    HW181137   1.826   1.233   0.069 -1.8132 -0.1032 -1.7556
25442SOL    HW281138   1.801   1.331  -0.043 -0.3765  2.8686  0.3899
25443SOL     OW81139   5.948  10.258   6.361 -0.1396 -0.3677  0.2879
25443SOL    HW181140   5.991  10.309   6.293  0.8712 -2.9268 -1.1395
25443SOL    HW281141   5.855  10.276   6.350  0.0217 -0.4773 -1.6143
25444SOL     OW81142   3.148   0.793   1.622  0.0070  0.5657 -1.0558
25444SOL    HW181143   3.187   0.859   1.564 -0.2532  1.9441  0.2556
25444SOL    HW281144   3.062   0.830   1.645 -0.4931 -0.6408 -0.9390
25445SOL     OW81145  11.357   2.457   2.446  0.4979 -0.0663 -0.3877
25445SOL    HW181146  11.439   2.412   2.468  1.4006  1.4274 -0.5366
25445SOL    HW281147  11.350   2.528   2.510 -1.7154 -1.3014  0.8539
25446SOL     OW81148   4.797   2.791   1.586 -0.0036 -0.0870  0.8331
25446SOL    HW181149   4.715   2.840   1.576 -0.0954 -0.2206  0.9252
25446SOL    HW281150   4.806   2.742   1.505 -1.3165 -2.0321  1.7814
25447SOL     OW81151  12.517   0.062   1.560  0.6732  0.1076  0.4678
25447SOL    HW181152  12.596   0.059   1.506  1.1787  0.0320  1.1926
25447SOL    HW281153  12.515   0.152   1.593 -0.0409  0.3711 -0.2543
25448SOL     OW81154   9.405   1.582   1.631  0.0609  0.4857  0.0020
25448SOL    HW181155   9.368   1.508   1.583  1.3923 -0.6957  0.6947
25448SOL    HW281156   9.377   1.567   1.722 -0.0494  1.1007  0.0717
25449SOL     OW81157   1.212   9.603   4.015  0.1260  0.2846  0.1423
25449SOL    HW181158   1.225   9.523   3.965 -0.2725 -0.2539  0.8789
25449SOL    HW281159   1.205   9.672   3.948 -0.0404 -0.3620 -0.5222
25450SOL     OW81160  10.676   4.471  11.611  0.3423 -0.2602  0.7966
25450SOL    HW181161  10.656   4.553  11.656  0.6081 -0.4889  1.3399
25450SOL    HW281162  10.641   4.403  11.668 -0.6205 -0.5011 -0.0552
25451SOL     OW81163   3.735   2.881   3.646  0.6419 -0.1395 -0.0941
25451SOL    HW181164   3.650   2.875   3.602  0.9717 -0.0729 -0.7458
25451SOL    HW281165   3.713   2.889   3.739 -0.0167 -2.5416  0.0069
25452SOL     OW81166   7.018   1.003   4.307 -0.4946 -0.2042  0.1700
25452SOL    HW181167   7.056   0.963   4.385 -0.0739 -0.2295 -0.0488
25452SOL    HW281168   6.973   1.081   4.340 -0.2946 -0.2001  0.4348
25453SOL     OW81169  11.962   6.913  11.796  0.0254 -0.2158 -0.2553
25453SOL    HW181170  11.965   7.005  11.768  0.8448  0.2923  1.3746
25453SOL    HW281171  12.035   6.872  11.751  2.4063  0.9815  2.2411
25454SOL     OW81172   8.284   9.475   3.333 -0.1318 -0.1766 -0.3278
25454SOL    HW181173   8.312   9.419   3.261 -1.5864  2.0490 -2.8288
25454SOL    HW281174   8.192   9.453   3.346 -0.5667  1.1384 -0.9586
25455SOL     OW81175   4.689  10.626   9.167 -0.5210  0.1014  0.2149
25455SOL    HW181176   4.670  10.570   9.243  1.3796  0.2985  0.8921
25455SOL    HW281177   4.780  10.606   9.146 -0.6641  0.9420 -1.2864
25456SOL     OW81178   9.477   6.758   5.283 -0.1391 -0.3034  0.6524
25456SOL    HW181179   9.423   6.718   5.215  0.3518 -0.8886  0.6027
25456SOL    HW281180   9.414   6.805   5.339 -0.6193 -0.4056  0.2025
25457SOL     OW81181   6.962   6.207   3.348  0.0558  0.4427  0.1603
25457SOL    HW181182   6.926   6.174   3.430 -0.5348  0.8455  0.0700
25457SOL    HW281183   6.984   6.299   3.366 -2.0034  1.1707 -0.6740
25458SOL     OW81184  11.442   7.521   8.734 -0.0184 -0.1484  0.4908
25458SOL    HW181185  11.433   7.448   8.795  1.0903  0.6252  1.6468
25458SOL    HW281186  11.498   7.584   8.781 -1.2981  1.6422 -0.2692
25459SOL     OW81187   5.776   1.217   6.219  0.3484  0.4384 -0.5623
25459SOL    HW181188   5.699   1.209   6.163 -0.6195 -0.5988  0.8559
25459SOL    HW281189   5.801   1.127   6.239  0.3005  0.7793  1.1279
25460SOL     OW81190   5.700   0.155   1.679 -0.2061  0.1873  0.0695
25460SOL    HW181191   5.637   0.163   1.608 -0.4847 -0.6665  0.2125
25460SOL    HW281192   5.784   0.179   1.640 -0.5364  0.8738 -0.2388
25461SOL     OW81193  10.215   0.779   1.933 -0.5142 -0.0237  0.5787
25461SOL    HW181194  10.160   0.836   1.987  0.1400  0.1223  1.1026
25461SOL    HW281195  10.156   0.748   1.864 -0.8926  1.2633  0.2979
25462SOL     OW81196   9.395   6.064   8.734 -0.0746 -0.1309 -0.7205
25462SOL    HW181197   9.462   6.014   8.781  0.0356 -0.0242 -0.7634
25462SOL    HW281198   9.313   6.019   8.754 -0.1266  0.3463  0.1731
25463SOL     OW81199   1.848  10.867   2.991  0.4503  0.1131 -0.5939
25463SOL    HW181200   1.893  10.911   3.064  1.3802 -0.9142 -0.5325
25463SOL    HW281201   1.775  10.926   2.970  1.2003  1.2973 -0.0027
25464SOL     OW81202   7.199   5.698   6.987  0.3443 -0.3842  0.2914
25464SOL    HW181203   7.270   5.736   6.935  0.1339  0.7331  0.7919
25464SOL    HW281204   7.138   5.770   7.000 -0.8624 -1.3212 -0.0797
25465SOL     OW81205   8.070   3.271   8.633  0.7555 -0.3098 -0.3519
25465SOL    HW181206   8.149   3.319   8.607  2.2441 -2.0996  0.6986
25465SOL    HW281207   8.065   3.198   8.572 -1.1709  0.7774 -1.5716
25466SOL     OW81208   1.431   0.849   1.951  0.3901  0.3028 -0.1739
25466SOL    HW181209   1.470   0.848   2.038 -0.9285  2.0708  0.5086
25466SOL    HW281210   1.374   0.773   1.950  0.1774  0.4357  0.6579
25467SOL     OW81211   2.611   7.631   6.342  0.6351  0.0978 -0.4177
25467SOL    HW181212   2.669   7.682   6.286  1.0906 -1.2869 -1.2745
25467SOL    HW281213   2.549   7.590   6.282  1.0353 -1.2884  0.0797
25468SOL     OW81214  10.064  12.329   9.648  0.1638  0.2707 -0.2065
25468SOL    HW181215  10.089  12.388   9.576  1.0672  1.2638  0.8721
25468SOL    HW281216   9.978  12.361   9.675  0.4782  0.8556  0.1178
25469SOL     OW81217   6.309   2.005   0.665 -0.4785 -0.3170  0.5264
25469SOL    HW181218   6.349   2.088   0.642 -2.8918  0.4675 -1.2749
25469SOL    HW281219   6.312   2.002   0.760  0.8712  1.1472  0.5722
25470SOL     OW81220   0.280   9.149  11.538  0.1803 -0.2869 -0.8214
25470SOL    HW181221   0.370   9.177  11.520 -0.0437 -0.1316 -1.7622
25470SOL    HW281222   0.256   9.095  11.463 -0.4169 -0.5656 -0.4360
25471SOL     OW81223   5.828   5.861   6.217  0.3635  0.0350  0.3305
25471SOL    HW181224   5.764   5.790   6.227  0.6206 -0.0836  1.2927
25471SOL    HW281225   5.820   5.888   6.126 -1.0558  0.0294  0.4310
25472SOL     OW81226   5.509   8.688   3.512 -0.3856  0.2250  0.2540
25472SOL    HW181227   5.574   8.665   3.579  1.1115 -0.6058 -1.4013
25472SOL    HW281228   5.453   8.611   3.506 -1.5750  0.9281  1.6571
25473SOL     OW81229  11.534   6.737   4.516  0.3900 -0.7057  0.2253
25473SOL    HW181230  11.583   6.819   4.510 -0.9803  0.1223 -0.2227
25473SOL    HW281231  11.532   6.704   4.426 -1.3303  0.2018 -0.1208
25474SOL     OW81232  11.996   9.894   7.054 -0.2893 -1.1746 -0.4314
25474SOL    HW181233  11.901   9.890   7.060 -0.3754  1.2999  2.4541
25474SOL    HW281234  12.027   9.864   7.139  1.3648 -0.1398 -0.6123
25475SOL     OW81235   0.762  10.995   3.291 -0.2854 -0.1469 -0.0136
25475SOL    HW181236   0.669  10.984   3.310 -0.7181  2.0291 -0.5760
25475SOL    HW281237   0.804  10.988   3.377 -1.3348  1.7194  0.7320
25476SOL     OW81238   4.553   7.591   5.645  0.3898  0.3208  0.3002
25476SOL    HW181239   4.573   7.665   5.703 -1.6716  0.3840  1.0176
25476SOL    HW281240   4.457   7.592   5.637  0.3924 -1.6422 -0.5248
25477SOL     OW81241   6.958   8.562   7.980  0.0028 -0.0481 -0.0709
25477SOL    HW181242   7.020   8.503   7.937 -0.1159 -0.1849 -0.0556
25477SOL    HW281243   6.956   8.640   7.923  0.5289  0.1431  0.1724
25478SOL     OW81244   9.452  10.911   9.758 -0.1171  0.0183 -0.1082
25478SOL    HW181245   9.510  10.835   9.760  1.6674  1.2929 -1.2096
25478SOL    HW281246   9.419  10.918   9.848  2.6957  0.1581  0.9889
25479SOL     OW81247  11.938   1.747   3.183 -0.2118 -0.0678 -0.0309
25479SOL    HW181248  11.993   1.752   3.261  0.7222 -0.8994 -0.6200
25479SOL    HW281249  11.981   1.683   3.127 -1.2010  0.0672 -0.9770
25480SOL     OW81250   1.271   1.854   6.498 -0.0018 -0.2940  0.3282
25480SOL    HW181251   1.345   1.801   6.527  1.1982  1.6307  0.8967
25480SOL    HW281252   1.301   1.896   6.417 -0.7377 -0.0624  0.1638
25481SOL     OW81253  11.151   0.084  11.790  0.2133  0.1641  0.2391
25481SOL    HW181254  11.176   0.009  11.845  0.6169  0.3007  0.2479
25481SOL    HW281255  11.116   0.045  11.711 -1.0341 -0.0395  0.8749
25482SOL     OW81256   7.890   5.034   9.152 -0.4524  0.0293 -0.0015
25482SOL    HW181257   7.955   5.066   9.215  0.5327 -4.1226  1.4082
25482SOL    HW281258   7.806   5.048   9.196  0.0560 -0.6893  1.2676
25483SOL     OW81259  11.050  10.043  10.913  0.5365  0.2895 -0.0388
25483SOL    HW181260  11.104  10.051  10.834  1.4106  0.2942  0.5380
25483SOL    HW281261  11.106   9.997  10.975 -1.0812 -2.1848 -0.2688
25484SOL     OW81262   2.942   4.846   5.199 -0.0465  0.0291  0.2427
25484SOL    HW181263   2.973   4.889   5.119  0.3791 -1.7982 -0.6429
25484SOL    HW281264   2.880   4.907   5.237 -0.8899  0.6325 -1.9524
25485SOL     OW81265   8.367   2.138  10.909 -0.3749  0.4677 -0.6733
25485SOL    HW181266   8.311   2.061  10.917 -0.4196  0.6567  1.6629
25485SOL    HW281267   8.314   2.209  10.946  0.7350  0.9946 -0.0478
25486SOL     OW81268   5.169   4.747   7.457 -0.1763 -0.3112 -0.5580
25486SOL    HW181269   5.207   4.780   7.539 -1.0791 -0.6169  0.0079
25486SOL    HW281270   5.171   4.651   7.467 -0.4562 -0.3457 -0.8050
25487SOL     OW81271  11.817   6.091   8.223  0.2106 -0.0345 -0.1639
25487SOL    HW181272  11.910   6.098   8.199  0.8271 -1.8073  1.3855
25487SOL    HW281273  11.791   6.005   8.190 -1.4382  1.1132 -2.0775
25488SOL     OW81274   5.738   9.422   9.876  0.0240  0.1598 -0.2674
25488SOL    HW181275   5.743   9.348   9.816  0.3085  0.3896 -0.5263
25488SOL    HW281276   5.774   9.388   9.958  0.0295 -0.0271 -0.3466
25489SOL     OW81277  10.184   4.233   3.439 -0.2020 -0.1809  0.2319
25489SOL    HW181278  10.160   4.257   3.528 -0.2174  0.7899 -0.0213
25489SOL    HW281279  10.175   4.314   3.389  2.0166 -0.1199 -0.2042
25490SOL     OW81280   8.915   8.489   7.193 -0.4510 -0.0835  0.9461
25490SOL    HW181281   8.998   8.461   7.155 -0.6364 -0.3226  0.7113
25490SOL    HW281282   8.869   8.407   7.213 -1.2518  0.0363 -0.3111
25491SOL     OW81283   0.688   8.124   0.528 -1.2018  0.1982  0.1786
25491SOL    HW181284   0.759   8.138   0.592 -0.8287  0.9684 -0.3814
25491SOL    HW281285   0.729   8.074   0.458 -0.6043  2.3581 -1.1093
25492SOL     OW81286  10.880   8.658   2.399  0.0084  0.2287  0.0511
25492SOL    HW181287  10.793   8.619   2.386  0.6450 -0.9394 -0.9107
25492SOL    HW281288  10.937   8.584   2.419  0.7477  1.0135  0.9478
25493SOL     OW81289  11.281   9.536   0.762 -0.3244 -0.3731  0.7427
25493SOL    HW181290  11.350   9.596   0.732 -1.8647  0.6067 -1.1015
25493SOL    HW281291  11.326   9.454   0.779  1.6977  0.9536  2.2886
25494SOL     OW81292  10.844  10.224  10.996  0.4914  0.6609  0.2650
25494SOL    HW181293  10.902  10.151  10.978 -1.4041 -0.6747 -0.7408
25494SOL    HW281294  10.880  10.265  11.075  1.9810 -0.9241  0.4520
25495SOL     OW81295   8.890  12.003  10.571 -0.0590 -0.3229  0.2631
25495SOL    HW181296   8.931  11.936  10.626 -1.7090  0.5874  2.7380
25495SOL    HW281297   8.851  12.065  10.632 -0.9296  1.4797 -1.9550
25496SOL     OW81298   6.285   4.078   4.705  0.7171 -0.2118 -0.5844
25496SOL    HW181299   6.305   4.171   4.710  0.5511 -0.1535 -0.9199
25496SOL    HW281300   6.295   4.045   4.794 -0.9251  0.4730 -0.0987
25497SOL     OW81301   6.765   8.652  12.311  0.0166 -0.6368 -0.0441
25497SOL    HW181302   6.745   8.741  12.281 -0.8874 -1.0137 -0.5952
25497SOL    HW281303   6.861   8.647  12.308  0.0840  0.3378  0.0612
25498SOL     OW81304   7.207   7.060   7.481  0.1095  0.0890 -0.0941
25498SOL    HW181305   7.140   7.109   7.528 -0.4858 -1.2724  0.5198
25498SOL    HW281306   7.159   6.989   7.437  0.9812 -0.1398 -0.7081
25499SOL     OW81307  11.351   3.903   5.823 -0.2943 -0.1838 -0.3490
25499SOL    HW181308  11.264   3.906   5.862 -0.3049 -0.2771 -0.3656
25499SOL    HW281309  11.398   3.977   5.862 -0.9439  0.9920 -1.6827
25500SOL     OW81310   0.880   3.221   8.941 -0.0021  0.3436  0.0940
25500SOL    HW181311   0.828   3.141   8.949  1.0222 -0.3710 -0.1181
25500SOL    HW281312   0.948   3.212   9.008  0.3221  0.8683 -0.1581
25501SOL     OW81313   4.973   5.415  10.445  0.0571  0.4877 -0.0155
25501SOL    HW181314   4.909   5.344  10.442 -1.4700  1.7247  0.7847
25501SOL    HW281315   5.015   5.414  10.360  0.7119 -1.8826  0.2702
25502SOL     OW81316   9.480   2.117  10.496  0.4873  0.2533  0.4297
25502SOL    HW181317   9.506   2.027  10.513 -1.6800 -0.6906 -0.8200
25502SOL    HW281318   9.395   2.127  10.538 -2.6281 -0.5991 -4.7763
25503SOL     OW81319   5.561   0.884  10.179 -0.1838  0.2505  0.2589
25503SOL    HW181320   5.473   0.908  10.207 -0.6479 -1.2903  0.2090
25503SOL    HW281321   5.618   0.949  10.222 -1.2173  0.4026  1.4688
25504SOL     OW81322   1.569  12.301   9.992  0.3985  0.1913 -0.4683
25504SOL    HW181323   1.597  12.350   9.915  0.8242  0.9217  0.1378
25504SOL    HW281324   1.612  12.216   9.983 -2.5896 -1.2283 -2.9909
25505SOL     OW81325   2.136   0.457   7.755 -0.3537 -0.0016  0.4723
25505SOL    HW181326   2.092   0.524   7.806  0.2223  0.3765  0.4825
25505SOL    HW281327   2.203   0.421   7.813  1.1139  1.2594 -0.3498
25506SOL     OW81328  10.873  10.515   0.243  0.1427  0.5818 -0.2326
25506SOL    HW181329  10.862  10.582   0.311  0.5783 -0.2634  0.7020
25506SOL    HW281330  10.941  10.457   0.277  1.0658  0.6789 -1.8566
25507SOL     OW81331   6.801   7.367   3.897  0.3191 -0.5254  0.8870
25507SOL    HW181332   6.833   7.374   3.987  1.3169 -0.4934  0.5462
25507SOL    HW281333   6.753   7.285   3.895  1.5087 -1.2416  1.0996
25508SOL     OW81334  10.374  10.086   9.575  0.4883  1.0635 -0.6080
25508SOL    HW181335  10.437  10.016   9.555  0.4742  1.3527 -1.6924
25508SOL    HW281336  10.384  10.100   9.670  0.0056 -0.8727 -0.2247
25509SOL     OW81337   2.222   7.874   9.502  0.4211 -0.1725 -0.4122
25509SOL    HW181338   2.221   7.803   9.438 -0.7864  0.5646 -1.2523
25509SOL    HW281339   2.130   7.902   9.508  0.6530  0.3496  0.9974
25510SOL     OW81340  10.776  11.743   6.140  0.7016 -0.2878  0.1541
25510SOL    HW181341  10.704  11.734   6.203  0.7213  1.0473  0.3888
25510SOL    HW281342  10.735  11.731   6.055  0.6972 -2.2487  0.3766
25511SOL     OW81343   2.982   5.436   0.732 -0.0962  0.1931 -0.2131
25511SOL    HW181344   2.981   5.530   0.716 -0.1413  0.0365 -1.2048
25511SOL    HW281345   3.033   5.399   0.660 -0.3816 -0.5730 -0.0391
25512SOL     OW81346   0.366   1.586   5.684 -0.2409  0.1763  0.3345
25512SOL    HW181347   0.459   1.595   5.662 -0.1184 -0.1244  0.7037
25512SOL    HW281348   0.347   1.660   5.742  0.0834 -0.4197  1.2288
25513SOL     OW81349  12.416   3.875   9.035  0.1717 -0.9536  0.6390
25513SOL    HW181350  12.380   3.804   8.982 -0.6458  0.4972 -0.8193
25513SOL    HW281351  12.342   3.907   9.087  0.4522 -0.9299  1.0291
25514SOL     OW81352  11.650   0.079   1.060 -0.3334 -0.4627 -0.4638
25514SOL    HW181353  11.589   0.007   1.045 -1.5531  0.4978 -0.2696
25514SOL    HW281354  11.737   0.039   1.053 -0.9607 -1.6958 -1.5640
25515SOL     OW81355   5.791   9.772  12.175  0.5431  0.3989  0.2479
25515SOL    HW181356   5.786   9.703  12.109 -0.2252  0.2714  0.4262
25515SOL    HW281357   5.751   9.733  12.253 -1.5111  1.6004 -0.1440
25516SOL     OW81358   9.179   6.929  10.484 -1.1844  0.1361  0.0331
25516SOL    HW181359   9.181   6.836  10.506 -3.0295  0.3676  1.4044
25516SOL    HW281360   9.251   6.967  10.535  0.6813 -0.7113 -1.8161
25517SOL     OW81361   3.914   8.338   0.725 -0.6205 -0.0034 -0.0270
25517SOL    HW181362   3.953   8.424   0.745 -1.6126  0.1896  1.1782
25517SOL    HW281363   3.822   8.347   0.749 -0.8350 -1.2879 -0.2961
25518SOL     OW81364   8.891  10.560   2.413 -0.3650  0.1007  0.2959
25518SOL    HW181365   8.877  10.630   2.476 -0.2311 -0.0920  0.5401
25518SOL    HW281366   8.842  10.587   2.335 -3.7242 -1.3792  1.6867
25519SOL     OW81367   6.073  10.818   7.830 -0.1056  0.1797  0.5917
25519SOL    HW181368   6.138  10.888   7.834 -0.0920  0.1239  1.8373
25519SOL    HW281369   5.991  10.862   7.809  0.4479  0.1455 -1.8863
25520SOL     OW81370   9.386  10.072  12.538 -0.5733  0.2421 -0.0727
25520SOL    HW181371   9.365   9.979  12.530  0.2155  0.0659 -0.1218
25520SOL    HW281372   9.406  10.085  12.630  1.4255 -0.1094 -0.4053
25521SOL     OW81373  10.845   2.212   1.171 -0.9967  0.0678  0.0352
25521SOL    HW181374  10.877   2.190   1.259 -0.5001  0.7233  0.0288
25521SOL    HW281375  10.801   2.297   1.183 -0.0959  0.6264 -0.5203
25522SOL     OW81376   3.683  10.955  11.200 -0.1758  0.2243 -0.1406
25522SOL    HW181377   3.734  11.007  11.138 -0.1710  2.2357  1.4296
25522SOL    HW281378   3.652  11.019  11.265 -1.5903 -1.5106  0.9934
25523SOL     OW81379   4.005   7.130   5.184  0.4104 -0.4925  0.5486
25523SOL    HW181380   4.056   7.151   5.262  1.1114 -1.5081  0.3901
25523SOL    HW281381   4.013   7.035   5.176 -1.2665 -0.6437  0.3392
25524SOL     OW81382   5.410   7.061   8.539  0.0591 -0.1053 -0.2880
25524SOL    HW181383   5.368   6.978   8.519 -0.2028 -0.2231  0.6947
25524SOL    HW281384   5.504   7.042   8.534  0.0890 -1.2346  2.6283
25525SOL     OW81385   1.499   7.558   2.685  0.2703  0.4850 -0.1591
25525SOL    HW181386   1.440   7.581   2.757  2.2317  1.9475  1.0943
25525SOL    HW281387   1.469   7.472   2.655 -1.0437  0.1492  1.9438
25526SOL     OW81388   9.282   5.210   2.217  0.2422 -0.3753  0.4962
25526SOL    HW181389   9.220   5.264   2.265 -0.2331 -0.4538 -0.0156
25526SOL    HW281390   9.271   5.122   2.252 -2.2933 -1.0865 -1.7481
25527SOL     OW81391   9.137   5.156  12.519 -0.0051  0.1121 -0.0882
25527SOL    HW181392   9.182   5.133  12.437 -1.4098  0.0758 -0.8706
25527SOL    HW281393   9.075   5.225  12.494 -2.5765 -1.9161  0.2696
25528SOL     OW81394   7.697  10.642   4.251 -0.6700 -0.0648 -0.2686
25528SOL    HW181395   7.765  10.593   4.204  0.2211  1.4319 -0.6132
25528SOL    HW281396   7.693  10.601   4.338 -0.5945 -1.2922 -0.8237
25529SOL     OW81397   8.965   8.809   3.575  0.4806  0.5769 -0.5525
25529SOL    HW181398   8.876   8.835   3.548 -0.1474  0.1856  1.0314
25529SOL    HW281399   8.961   8.713   3.578 -0.5806  0.5520  4.0375
25530SOL     OW81400  10.586   8.815   9.387 -0.0143 -0.1507 -0.4126
25530SOL    HW181401  10.495   8.810   9.359 -0.6846 -1.0130  1.6682
25530SOL    HW281402  10.618   8.899   9.353 -1.8802  0.5857 -0.4429
25531SOL     OW81403  10.622   4.373   0.259 -0.6667  0.2165  0.6150
25531SOL    HW181404  10.623   4.400   0.350  0.1063  2.2699  0.0495
25531SOL    HW281405  10.678   4.437   0.214 -2.2772  0.2045 -1.5429
25532SOL     OW81406  10.078  10.592  10.363 -0.1303 -0.3008  0.0987
25532SOL    HW181407  10.090  10.569  10.455  2.2460  1.1686  0.2348
25532SOL    HW281408  10.063  10.687  10.364  0.0824 -0.2454 -1.0342
25533SOL     OW81409   1.895   0.036  10.560  0.3780 -0.1663 -0.5567
25533SOL    HW181410   1.940   0.031  10.476 -0.6380  0.9842 -1.2121
25533SOL    HW281411   1.812  -0.009  10.545  0.6283 -0.8927  0.1676
25534SOL     OW81412  12.631  10.453  10.277 -0.7847  0.5684 -0.2167
25534SOL    HW181413  12.602  10.496  10.196  1.4431 -1.3177 -2.1756
25534SOL    HW281414  12.651  10.364  10.250  0.9236  0.1256  2.2332
25535SOL     OW81415   9.590   1.899   8.332 -0.2090 -0.5722  0.1320
25535SOL    HW181416   9.607   1.805   8.338 -3.2466 -1.1201  2.5557
25535SOL    HW281417   9.578   1.927   8.423 -1.3551  1.7293 -0.6603
25536SOL     OW81418   4.744  11.340   1.949  0.3947  0.0028 -0.0766
25536SOL    HW181419   4.803  11.340   1.874 -0.0331 -0.2330 -0.4197
25536SOL    HW281420   4.801  11.330   2.025  1.0445  2.3041 -0.1805
25537SOL     OW81421  12.003   3.177   1.736  0.1153 -0.2427 -0.2455
25537SOL    HW181422  11.977   3.115   1.668  1.1226  0.5749 -1.4133
25537SOL    HW281423  12.059   3.127   1.795  1.3478 -0.3544 -1.4647
25538SOL     OW81424   3.787   3.080   9.790 -0.1728  0.6764 -0.4608
25538SOL    HW181425   3.732   3.034   9.853 -0.1341  1.0315 -0.1675
25538SOL    HW281426   3.819   3.011   9.731  0.9864  0.1118  0.7743
25539SOL     OW81427   6.128   0.578   2.427 -0.2562 -0.3182 -0.0338
25539SOL    HW181428   6.073   0.505   2.398 -0.4159 -0.2304  0.0464
25539SOL    HW281429   6.212   0.537   2.451  0.0778 -0.3275 -1.1477
25540SOL     OW81430   1.445   3.337   0.928 -0.0886 -0.2817  0.0055
25540SOL    HW181431   1.465   3.322   1.020  1.8558 -0.8914 -0.4799
25540SOL    HW281432   1.351   3.320   0.921 -0.2869 -0.1266  1.8787
25541SOL     OW81433   8.019   0.918   1.263  0.4504  0.1004  0.4267
25541SOL    HW181434   8.109   0.925   1.295  0.8370 -0.6932 -0.4179
25541SOL    HW281435   8.022   0.954   1.174  0.0616 -0.4078  0.1974
25542SOL     OW81436   8.618   6.729   8.036 -0.5469 -0.0484  0.1551
25542SOL    HW181437   8.538   6.781   8.038 -0.8483 -0.5096  0.4337
25542SOL    HW281438   8.631   6.708   7.943 -0.7014  0.0979  0.1013
25543SOL     OW81439  10.083   4.424   3.247  0.7433  1.0507  0.4645
25543SOL    HW181440  10.105   4.454   3.158  1.5571  2.7000  1.1687
25543SOL    HW281441   9.996   4.460   3.264  0.6352  0.8292  0.3862
25544SOL     OW81442   3.421   7.313   8.812 -0.3253  0.2804  0.2186
25544SOL    HW181443   3.348   7.257   8.786 -0.5316  0.7072 -0.1418
25544SOL    HW281444   3.380   7.398   8.831 -0.4314 -0.3846  3.5028
25545SOL     OW81445   7.935   7.732   3.535  0.1806 -0.2624 -0.1691
25545SOL    HW181446   7.966   7.748   3.625  1.9433  0.8769 -0.9049
25545SOL    HW281447   7.869   7.800   3.521  0.4378  0.0382  0.0332
25546SOL     OW81448   8.387   1.858   5.664 -0.2369  0.0462  0.4370
25546SOL    HW181449   8.478   1.840   5.641 -0.6011  1.4783 -2.4989
25546SOL    HW281450   8.336   1.827   5.589 -1.8230  2.4242  0.4100
25547SOL     OW81451   6.959   0.371   9.508 -0.6945  0.2971 -0.4443
25547SOL    HW181452   6.930   0.339   9.422  1.8651 -2.2418 -0.5184
25547SOL    HW281453   6.900   0.330   9.571 -0.6799 -0.3236 -0.8352
25548SOL     OW81454   5.528   1.980   4.010  0.0349  0.0266 -0.0613
25548SOL    HW181455   5.538   2.053   3.949  1.5556 -0.9628 -1.0674
25548SOL    HW281456   5.577   1.908   3.970  1.2161 -0.6381  2.3680
25549SOL     OW81457  12.411   6.885   1.503  0.7789  0.5700  0.2846
25549SOL    HW181458  12.411   6.924   1.415 -1.3301  0.6238  0.2647
25549SOL    HW281459  12.458   6.949   1.556 -0.9261  2.2782 -0.1468
25550SOL     OW81460   0.492   7.211   9.088 -0.1732 -0.2869 -0.3818
25550SOL    HW181461   0.498   7.295   9.041 -1.8265 -0.2173 -0.5470
25550SOL    HW281462   0.453   7.234   9.172 -1.7355 -1.0046 -0.8744
25551SOL     OW81463   5.867   4.756   9.395  0.0307 -0.2717  0.1096
25551SOL    HW181464   5.782   4.733   9.430 -1.3337  2.7005 -0.8908
25551SOL    HW281465   5.926   4.755   9.471 -0.7785 -2.5047  0.7848
25552SOL     OW81466  12.357   4.307   6.776  0.4070  0.3773  0.4885
25552SOL    HW181467  12.431   4.343   6.727  0.7535 -0.2181  0.5637
25552SOL    HW281468  12.306   4.384   6.801  0.6069  0.7403 -0.1892
25553SOL     OW81469  11.831   5.355   6.721 -0.0579 -0.3169 -0.4301
25553SOL    HW181470  11.745   5.358   6.762 -0.0168  0.5863 -0.3901
25553SOL    HW281471  11.891   5.386   6.789  0.2600 -0.6803 -0.5447
25554SOL     OW81472   5.839   6.847   9.507  0.2453 -0.0268 -0.9549
25554SOL    HW181473   5.785   6.907   9.456 -0.1658  0.0862 -0.4030
25554SOL    HW281474   5.878   6.789   9.442  1.5997  1.5589 -1.6345
25555SOL     OW81475   4.135  10.634   7.418  0.1097  0.5810 -0.2734
25555SOL    HW181476   4.177  10.569   7.362  1.3442 -0.2732  1.5468
25555SOL    HW281477   4.045  10.641   7.385  0.3147 -1.1244 -1.2731
25556SOL     OW81478   3.046   0.865   0.334 -0.2955  0.1553 -0.4360
25556SOL    HW181479   3.081   0.860   0.245  1.1671  0.7507  0.0733
25556SOL    HW281480   3.116   0.906   0.384 -1.1196 -0.1410  0.9888
25557SOL     OW81481   8.439   5.554   2.258  0.1111  0.5564  0.4509
25557SOL    HW181482   8.433   5.648   2.241  2.0075  1.0635  2.1037
25557SOL    HW281483   8.393   5.543   2.342 -0.2094 -0.0257  0.1998
25558SOL     OW81484  11.176   9.693   3.759  0.0403  0.2624  0.0584
25558SOL    HW181485  11.204   9.624   3.699 -0.5706  0.6022 -0.6458
25558SOL    HW281486  11.096   9.658   3.799 -0.4026  0.6290 -0.4741
25559SOL     OW81487   0.045   3.452   1.624 -0.3492  0.0458 -0.0934
25559SOL    HW181488   0.016   3.437   1.534 -0.4992 -0.1981 -0.0054
25559SOL    HW281489   0.029   3.545   1.639  0.5698  0.2963 -0.6327
25560SOL     OW81490  11.786   0.653   3.857 -0.4039  0.2493  0.4927
25560SOL    HW181491  11.725   0.598   3.808 -1.5127  0.3795  1.6656
25560SOL    HW281492  11.774   0.627   3.948 -1.4662  2.8101  1.1879
25561SOL     OW81493   8.282   7.238  11.406  0.2217 -0.0222 -0.4387
25561SOL    HW181494   8.329   7.312  11.446 -0.1311 -0.0886  0.0970
25561SOL    HW281495   8.302   7.164  11.462  0.3796 -0.2914 -0.8444
25562SOL     OW81496  10.940   4.925  12.006 -0.8266 -0.1338  0.0368
25562SOL    HW181497  11.022   4.880  12.027 -0.7030  0.0206 -0.1256
25562SOL    HW281498  10.966   5.011  11.975 -0.9560 -0.7015 -1.7353
25563SOL     OW81499   1.329   8.114   7.203  0.4367 -0.6981 -0.4336
25563SOL    HW181500   1.241   8.101   7.239  0.5978  0.2057  0.3285
25563SOL    HW281501   1.365   8.026   7.197  0.0196 -0.9670  0.6827
25564SOL     OW81502   9.019   9.723   1.291  0.2857 -0.3596 -0.3138
25564SOL    HW181503   8.986   9.646   1.336  0.5243 -0.2804 -0.0007
25564SOL    HW281504   8.945   9.784   1.291  0.6280  0.0979  1.0301
25565SOL     OW81505  12.022  10.903   0.846  0.1561  0.2429 -0.8106
25565SOL    HW181506  12.043  10.995   0.861  1.3729  0.0312 -1.1029
25565SOL    HW281507  12.055  10.885   0.758  0.6631 -0.6747 -0.4503
25566SOL     OW81508   8.755   1.186  10.420 -0.1880  0.8034  0.3860
25566SOL    HW181509   8.673   1.232  10.400  0.9804  2.7626 -0.2098
25566SOL    HW281510   8.774   1.210  10.510 -1.9639 -2.5196  1.8356
25567SOL     OW81511   0.696   0.236   7.980 -0.9051  0.0202 -0.0917
25567SOL    HW181512   0.783   0.276   7.983 -0.5794 -0.6283 -0.7231
25567SOL    HW281513   0.638   0.301   8.021 -0.2858  0.8738 -0.5500
25568SOL     OW81514   5.846  11.291   8.657 -0.1656  0.0213  0.7170
25568SOL    HW181515   5.920  11.243   8.619  0.3266  0.0784  1.5528
25568SOL    HW281516   5.769  11.258   8.612  0.5448  1.9139 -2.1913
25569SOL     OW81517   8.358   8.862  11.556  0.2587  0.4441  0.2187
25569SOL    HW181518   8.326   8.822  11.637 -1.2714 -1.9433 -1.4221
25569SOL    HW281519   8.377   8.787  11.499 -0.4970  2.0243 -2.2646
25570SOL     OW81520   8.055   5.379   2.193 -0.9502  0.7483 -0.6898
25570SOL    HW181521   8.003   5.302   2.216 -0.4153  0.1332 -1.4943
25570SOL    HW281522   8.136   5.368   2.242 -1.6544  1.8847  0.8430
25571SOL     OW81523   0.418   8.837  10.947 -0.0005 -0.0797  0.0997
25571SOL    HW181524   0.441   8.776  11.018  0.9039  0.9478  0.7203
25571SOL    HW281525   0.394   8.918  10.991  0.0583  0.4159 -0.7498
25572SOL     OW81526   0.179   8.886   7.193 -0.2775 -0.1473  0.2338
25572SOL    HW181527   0.204   8.957   7.135  0.9184 -1.1100 -0.4678
25572SOL    HW281528   0.116   8.834   7.143  1.6576 -1.6680 -0.7611
25573SOL     OW81529   7.047   7.633   9.448  0.5353 -0.0312 -0.1158
25573SOL    HW181530   7.077   7.583   9.524 -2.1012 -0.5254  0.7101
25573SOL    HW281531   6.998   7.570   9.396  1.9587  0.4087 -2.0845
25574SOL     OW81532   5.970  10.450   0.340  0.0693 -0.4033  0.2652
25574SOL    HW181533   6.036  10.427   0.406  0.6254 -0.0034 -0.1419
25574SOL    HW281534   5.896  10.394   0.360  0.7863 -1.3627  0.3050
25575SOL     OW81535   7.700   9.934   7.553  0.1094 -0.5500  0.4864
25575SOL    HW181536   7.620   9.985   7.539 -0.0838 -0.1899  2.5772
25575SOL    HW281537   7.762   9.970   7.489 -0.7575  0.6620  0.2821
25576SOL     OW81538   2.904   8.206   9.889  0.6367  0.2169  0.1412
25576SOL    HW181539   2.971   8.206   9.822 -0.3674 -3.2807 -1.1073
25576SOL    HW281540   2.952   8.220   9.971  2.4754  0.5077 -0.9308
25577SOL     OW81541   8.475   0.989   5.352  0.0575 -0.3157  0.5203
25577SOL    HW181542   8.420   1.063   5.375 -0.3789 -0.8834  1.3624
25577SOL    HW281543   8.446   0.963   5.265 -0.8867 -0.4756  0.8692
25578SOL     OW81544   5.320   4.646   8.032 -0.0138  0.0794  0.0188
25578SOL    HW181545   5.264   4.677   8.103 -0.1933  0.6434 -0.3613
25578SOL    HW281546   5.378   4.582   8.073  1.0673  1.6552  1.0661
25579SOL     OW81547  12.429  10.738   5.849 -0.3035  0.0503 -0.1805
25579SOL    HW181548  12.358  10.680   5.821  0.3338 -1.4461  1.1883
25579SOL    HW281549  12.509  10.691   5.826  0.2326  0.0119  1.6218
25580SOL     OW81550   6.186   8.719   0.091 -0.4320 -0.1431 -0.2929
25580SOL    HW181551   6.254   8.667   0.048 -2.1862 -1.0872 -2.0739
25580SOL    HW281552   6.159   8.666   0.166 -0.7217 -0.8040 -0.8579
25581SOL     OW81553   2.407   9.501   8.175 -0.4811 -0.0908 -0.4765
25581SOL    HW181554   2.436   9.423   8.221 -1.2604  0.3857  0.8909
25581SOL    HW281555   2.319   9.517   8.208 -0.2300  1.5189 -0.5006
25582SOL     OW81556   8.304   8.300   7.287  0.2706  0.0040 -0.2007
25582SOL    HW181557   8.330   8.212   7.260  0.1238 -0.2932  0.6116
25582SOL    HW281558   8.331   8.306   7.378 -2.4447 -0.3394  0.7235
25583SOL     OW81559   6.604   8.083   8.038  0.4736 -0.5463 -0.1400
25583SOL    HW181560   6.554   8.165   8.048  3.5318  1.5054 -0.3013
25583SOL    HW281561   6.592   8.037   8.121  0.8665  1.4549  1.0959
25584SOL     OW81562   7.950   7.007  10.190 -0.6714  0.0223 -0.2693
25584SOL    HW181563   7.941   7.060  10.270 -0.9264 -1.0299  0.4243
25584SOL    HW281564   7.914   7.062  10.121 -1.0312  0.7156  0.4503
25585SOL     OW81565   3.359   6.699   6.082  0.1795  0.0389  0.0703
25585SOL    HW181566   3.446   6.698   6.041 -0.2967 -2.1532 -1.0869
25585SOL    HW281567   3.298   6.695   6.008 -0.7657 -2.4736  0.8881
25586SOL     OW81568   5.100   2.299   0.311 -0.2074  0.4143 -0.2650
25586SOL    HW181569   5.018   2.348   0.314  0.0129  0.7327  1.1770
25586SOL    HW281570   5.073   2.207   0.310 -0.5911  0.5119  0.3595
25587SOL     OW81571  12.315  10.655   5.299  0.1380  0.1420  0.0969
25587SOL    HW181572  12.406  10.683   5.289 -0.0015  0.8485  0.6800
25587SOL    HW281573  12.275  10.724   5.353 -1.5091  1.4950 -2.6198
25588SOL     OW81574  12.212   2.975   5.486 -0.0457  0.2545 -0.8483
25588SOL    HW181575  12.214   2.883   5.515 -2.2467  0.3844 -0.1486
25588SOL    HW281576  12.304   3.002   5.490  0.7008 -1.9549 -1.2589
25589SOL     OW81577   9.783   3.508  11.806 -0.3339  0.3592 -0.2619
25589SOL    HW181578   9.739   3.434  11.765 -0.6135 -0.1383  0.9092
25589SOL    HW281579   9.798   3.480  11.896  2.2584  0.5453 -0.5601
25590SOL     OW81580   8.018   3.087   7.298  0.0112  0.2814  0.7036
25590SOL    HW181581   8.037   3.003   7.257 -0.9435 -0.0217  0.8504
25590SOL    HW281582   7.986   3.064   7.386  1.3604  0.8831  1.3794
25591SOL     OW81583  10.991   2.087   0.963  0.3088  0.3690 -0.4889
25591SOL    HW181584  10.929   2.016   0.946  0.5027  0.2888 -0.8590
25591SOL    HW281585  10.945   2.143   1.026  0.3610 -0.3461  0.1998
25592SOL     OW81586   2.572   6.228  11.921  0.0180 -0.2952  0.1036
25592SOL    HW181587   2.642   6.168  11.895  0.3184  0.2106 -0.2786
25592SOL    HW281588   2.493   6.189  11.885  0.3683  0.1600 -1.2239
25593SOL     OW81589   7.577   2.554   2.665 -0.4066 -0.4316  0.4714
25593SOL    HW181590   7.549   2.599   2.585  5.1532  2.0316 -0.5377
25593SOL    HW281591   7.603   2.625   2.724  1.8972 -2.1916  1.7211
25594SOL     OW81592  11.542   8.619  10.174  0.3068 -0.1465  0.7644
25594SOL    HW181593  11.564   8.687  10.111  0.2391  0.0318  0.9303
25594SOL    HW281594  11.451   8.596  10.154  0.7520 -1.1635 -0.1777
25595SOL     OW81595   8.396  12.334   3.374 -0.1058 -0.0262 -0.7203
25595SOL    HW181596   8.483  12.361   3.344 -0.0533 -0.0497 -0.5900
25595SOL    HW281597   8.336  12.385   3.320 -0.0152  2.8560  1.6788
25596SOL     OW81598   2.550   5.057  11.335 -0.1698 -0.4259  0.1230
25596SOL    HW181599   2.462   5.031  11.360 -0.8089  1.4046 -0.1121
25596SOL    HW281600   2.603   5.041  11.413 -0.9433 -0.4249  0.6563
25597SOL     OW81601  10.780   2.974   3.987  0.3641  0.2520 -0.5647
25597SOL    HW181602  10.832   2.895   3.970  0.5567  0.4894 -1.0977
25597SOL    HW281603  10.816   3.009   4.068 -0.1822 -0.5812  0.0597
25598SOL     OW81604   1.427   1.215   5.562 -0.4090 -0.2785  0.8582
25598SOL    HW181605   1.413   1.247   5.651 -1.0277  0.0825  0.6376
25598SOL    HW281606   1.522   1.202   5.555  0.1062  2.8707  0.4971
25599SOL     OW81607  12.022   4.781  11.275  0.1398 -0.6960 -0.1397
25599SOL    HW181608  12.079   4.751  11.204  1.0675 -0.6029  0.5474
25599SOL    HW281609  11.939   4.734  11.261  0.1706 -0.3915 -1.4916
25600SOL     OW81610   4.741   7.331   0.873  0.2933 -0.8047  0.0848
25600SOL    HW181611   4.708   7.407   0.921  3.1147 -0.2147  1.3213
25600SOL    HW281612   4.722   7.350   0.781  0.5781  1.2399  0.3921
25601SOL     OW81613   9.535  10.994   4.090  0.2337 -0.1837 -0.4319
25601SOL    HW181614   9.525  11.061   4.158 -0.5261 -1.5013  0.8185
25601SOL    HW281615   9.550  10.913   4.139  3.3131 -0.6386 -1.9287
25602SOL     OW81616   3.584   2.430  11.189  0.3653 -0.0762 -0.1887
25602SOL    HW181617   3.646   2.433  11.116  2.2276  0.5090  1.3554
25602SOL    HW281618   3.616   2.358  11.244 -2.5028 -2.2861 -1.1168
25603SOL     OW81619   2.315   6.463   3.846  0.0621  0.0209 -0.2324
25603SOL    HW181620   2.405   6.495   3.852 -0.1087  0.2937  2.8547
25603SOL    HW281621   2.286   6.487   3.758  3.2624 -0.9384 -1.6837
25604SOL     OW81622  12.399  10.385  11.951 -0.4392  0.1202 -0.4166
25604SOL    HW181623  12.326  10.382  11.889 -0.1984  1.7963 -0.8472
25604SOL    HW281624  12.363  10.428  12.028  0.3211  2.0424 -1.0626
25605SOL     OW81625   2.121  12.340   7.958  0.3649  0.1799 -0.3177
25605SOL    HW181626   2.125  12.409   8.024  0.3697  0.6043 -0.7560
25605SOL    HW281627   2.087  12.384   7.879  1.0720 -0.1434 -0.8150
25606SOL     OW81628   7.821   4.925   0.309  0.2426 -0.0041  0.3276
25606SOL    HW181629   7.743   4.970   0.340  0.5054  0.4849  0.2905
25606SOL    HW281630   7.792   4.836   0.291 -0.4862  0.3721 -0.4105
25607SOL     OW81631   5.140   5.493   1.454  0.0744 -0.4314  0.4423
25607SOL    HW181632   5.075   5.557   1.426 -0.6250 -1.2873  0.0368
25607SOL    HW281633   5.184   5.466   1.373 -0.5679 -1.4416  0.4123
25608SOL     OW81634  10.384   4.580   2.358 -0.0586 -0.2971 -0.8833
25608SOL    HW181635  10.467   4.607   2.397 -0.5550  0.6442 -0.4515
25608SOL    HW281636  10.373   4.490   2.388  0.6486 -0.3315 -0.6923
25609SOL     OW81637   5.568   2.313   2.963  0.2392  0.5762 -0.3066
25609SOL    HW181638   5.512   2.357   3.028 -2.0237 -0.8141 -1.2031
25609SOL    HW281639   5.590   2.382   2.900 -0.2850  1.2160  0.1991
25610SOL     OW81640  12.304  10.532   4.122  0.1455  0.3900  0.1643
25610SOL    HW181641  12.316  10.573   4.036 -1.2747 -1.7274 -1.1322
25610SOL    HW281642  12.210  10.525   4.133  0.2667 -2.4910  0.2219
25611SOL     OW81643   4.217  10.093   4.951  0.6166  0.3877  1.0500
25611SOL    HW181644   4.240  10.174   4.905 -1.9608  1.2197  1.0943
25611SOL    HW281645   4.232  10.024   4.886 -1.6390  1.4098 -0.7064
25612SOL     OW81646   5.328   4.444   7.716 -0.2489 -0.0804 -0.2768
25612SOL    HW181647   5.386   4.520   7.709 -0.3278  0.0093  0.0216
25612SOL    HW281648   5.359   4.398   7.794 -0.0674 -0.4690 -0.5764
25613SOL     OW81649   8.277   1.216   6.223  0.1870 -0.7025  0.6028
25613SOL    HW181650   8.254   1.308   6.232 -1.4705 -0.9337 -0.8100
25613SOL    HW281651   8.263   1.196   6.130  1.1237 -2.2161  0.7539
25614SOL     OW81652   2.012   7.134   3.313 -0.4244  0.3144 -0.0479
25614SOL    HW181653   1.919   7.114   3.310 -0.4345  0.1740  0.9756
25614SOL    HW281654   2.053   7.054   3.346  0.0990  0.2737 -0.7775
25615SOL     OW81655  11.234  12.019  11.292 -0.1656  0.1636 -0.2468
25615SOL    HW181656  11.218  11.929  11.266 -0.4320 -0.1492  0.9679
25615SOL    HW281657  11.303  12.049  11.232  0.5486 -1.1245 -0.1040
25616SOL     OW81658   6.076  11.236  12.129 -0.3358 -0.2957 -0.3263
25616SOL    HW181659   6.170  11.218  12.124  0.0207  0.2572  2.6350
25616SOL    HW281660   6.070  11.331  12.133 -1.1368 -0.2784 -1.4670
25617SOL     OW81661  10.229   8.995   6.180 -0.0442  0.0754 -0.2414
25617SOL    HW181662  10.187   9.020   6.098  0.1472 -0.7244 -0.5892
25617SOL    HW281663  10.210   9.068   6.239 -0.2590  0.6259 -0.9629
25618SOL     OW81664   2.697  11.537   9.806 -0.2512 -0.5859  0.1877
25618SOL    HW181665   2.791  11.519   9.812  1.0567  4.2771 -1.2664
25618SOL    HW281666   2.688  11.627   9.835 -4.0856 -0.0079 -2.0819
25619SOL     OW81667   6.980  12.646  11.154 -0.4567 -0.3234 -0.3143
25619SOL    HW181668   6.966  12.740  11.144 -1.4257 -0.3336  0.7842
25619SOL    HW281669   6.985  12.613  11.064 -2.0255  0.5141 -0.7518
25620SOL     OW81670   0.885   2.341   9.487 -0.2855  0.1691  0.0826
25620SOL    HW181671   0.829   2.385   9.550  0.5207 -1.1752  1.8266
25620SOL    HW281672   0.951   2.296   9.540  1.6875  0.6373 -1.8163
25621SOL     OW81673   6.667   6.325   2.841  0.3602 -0.5272 -0.2970
25621SOL    HW181674   6.739   6.383   2.865 -0.4681  0.4289 -0.0579
25621SOL    HW281675   6.678   6.311   2.746  0.6075 -0.0363 -0.3405
25622SOL     OW81676   4.721   6.467  10.183  0.5052 -0.2992  0.6468
25622SOL    HW181677   4.685   6.537  10.129 -2.5469 -3.1322 -1.4309
25622SOL    HW281678   4.698   6.491  10.273  1.8571  2.4599  0.3515
25623SOL     OW81679   9.052   4.640   0.638  0.8288  0.0493 -0.2002
25623SOL    HW181680   9.050   4.555   0.595  2.9916 -0.6519  0.9574
25623SOL    HW281681   8.989   4.632   0.710 -0.5517  0.2034 -1.3449
25624SOL     OW81682   8.371  10.035  10.751  0.2321 -0.0004 -1.0247
25624SOL    HW181683   8.438  10.031  10.682 -0.5919 -1.7940 -1.7831
25624SOL    HW281684   8.303  10.093  10.715  1.0771  1.3954 -0.4713
25625SOL     OW81685   0.439   9.833   2.672 -0.4344  0.7350  0.6705
25625SOL    HW181686   0.484   9.791   2.598  0.2749 -1.0209  2.0030
25625SOL    HW281687   0.421   9.761   2.732 -1.2814  2.0630  2.0724
25626SOL     OW81688   0.270   3.622   2.083 -0.6141 -0.2225  0.2546
25626SOL    HW181689   0.207   3.552   2.066  0.1256 -0.3824 -2.2354
25626SOL    HW281690   0.350   3.577   2.108 -0.5225 -0.2027  0.0001
25627SOL     OW81691   2.361   3.363  10.855  0.0013 -0.3355 -0.0991
25627SOL    HW181692   2.297   3.294  10.836  0.6250 -0.6558 -1.1207
25627SOL    HW281693   2.367   3.412  10.773 -0.4608  0.9730  0.6182
25628SOL     OW81694  12.286   8.591   3.994 -0.5793 -0.6110  0.2754
25628SOL    HW181695  12.238   8.655   3.941  0.0819 -0.9479 -0.7674
25628SOL    HW281696  12.374   8.629   4.003 -0.3972 -1.0282  0.2636
25629SOL     OW81697   8.715   4.568   9.404  0.3269 -0.0350  0.1908
25629SOL    HW181698   8.706   4.485   9.357 -2.5277  0.3697 -0.1548
25629SOL    HW281699   8.793   4.557   9.458  0.6327 -2.5321 -0.6488
25630SOL     OW81700   4.624  12.141   7.488 -0.5840 -0.5796 -0.1316
25630SOL    HW181701   4.532  12.134   7.514 -0.9997  2.3075 -0.5311
25630SOL    HW281702   4.640  12.062   7.437 -1.9957 -2.5118  2.1705
25631SOL     OW81703   8.753  12.539   4.967 -0.3474  0.7617 -0.1957
25631SOL    HW181704   8.827  12.483   4.944  0.2230  0.9826  1.0446
25631SOL    HW281705   8.786  12.595   5.037 -1.8420  0.5099  0.7481
25632SOL     OW81706   9.637   7.617   3.017  0.6287 -0.1736 -0.3364
25632SOL    HW181707   9.636   7.620   3.112 -0.6137  2.1056 -0.3452
25632SOL    HW281708   9.557   7.572   2.992 -1.3065  2.8769 -0.2089
25633SOL     OW81709   9.981  11.014   2.128  0.9395 -0.2320 -0.5077
25633SOL    HW181710  10.013  11.045   2.044 -0.1321  1.0357 -0.4708
25633SOL    HW281711   9.903  10.962   2.106 -1.2732  2.6822 -0.2039
25634SOL     OW81712   2.508   3.294   0.303 -0.3265 -0.0666 -0.3349
25634SOL    HW181713   2.595   3.334   0.295 -0.9348  1.4553  0.1840
25634SOL    HW281714   2.459   3.329   0.228 -0.6139 -0.5859 -0.3930
25635SOL     OW81715   7.905   4.156  12.517  0.2120 -0.6525  0.1466
25635SOL    HW181716   7.820   4.200  12.509 -0.0193 -0.9980  0.7142
25635SOL    HW281717   7.962   4.222  12.556  0.5113 -0.0353 -1.2728
25636SOL     OW81718   0.671  12.125  10.154  0.3202  0.0010  0.2123
25636SOL    HW181719   0.722  12.098  10.078  0.2488 -1.5337  0.6770
25636SOL    HW281720   0.734  12.124  10.226  0.5938  2.2689  0.0804
25637SOL     OW81721  10.585   8.700   4.024 -0.3905  0.3081  0.0982
25637SOL    HW181722  10.660   8.738   3.979  0.2551  0.2743  1.1403
25637SOL    HW281723  10.539   8.651   3.955  0.5049  0.3678 -0.5551
25638SOL     OW81724   1.866   1.041   8.969  0.2643 -0.1712  0.4024
25638SOL    HW181725   1.859   1.116   8.911 -0.3056  0.1477  0.8804
25638SOL    HW281726   1.781   1.035   9.012 -0.0387 -1.6561 -0.3052
25639SOL     OW81727   1.905   8.367  10.995  0.3786 -0.5335  0.7832
25639SOL    HW181728   1.868   8.446  11.034 -0.4380 -1.0136  1.0136
25639SOL    HW281729   1.970   8.399  10.933 -0.3195  0.3405  0.4744
25640SOL     OW81730   2.423   9.207   7.137 -0.5761 -0.3682 -0.0823
25640SOL    HW181731   2.348   9.260   7.164 -0.4149 -0.4820  0.6210
25640SOL    HW281732   2.468   9.186   7.219  2.0619  2.4100 -0.6107
25641SOL     OW81733   3.410  12.389   1.962 -0.9727 -0.1859 -0.5338
25641SOL    HW181734   3.342  12.436   1.916 -0.1147  0.8093 -0.8270
25641SOL    HW281735   3.457  12.341   1.894 -1.0389 -0.4302 -0.4087
25642SOL     OW81736   2.687   3.360   4.040 -0.0065 -0.0819 -0.1283
25642SOL    HW181737   2.598   3.325   4.045 -0.3291  0.8676  3.4019
25642SOL    HW281738   2.681   3.447   4.080  2.8365 -0.9078  2.4788
25643SOL     OW81739  12.502  12.359   7.474  0.4001 -0.1961  0.6293
25643SOL    HW181740  12.448  12.352   7.395 -0.8996  0.6294  1.4213
25643SOL    HW281741  12.578  12.304   7.455  0.6856  0.8746 -1.6624
25644SOL     OW81742  11.082   1.594   0.276  0.3492 -0.3352 -0.1340
25644SOL    HW181743  11.015   1.539   0.316  0.6546 -0.6491 -0.0507
25644SOL    HW281744  11.047   1.683   0.282 -0.5964 -0.6097 -1.1456
25645SOL     OW81745  10.917   9.910   1.491  0.1833 -0.0978 -0.6028
25645SOL    HW181746  11.002   9.943   1.463  0.6913  0.0889  1.0429
25645SOL    HW281747  10.870   9.987   1.522  0.2380 -0.4889  0.4770
25646SOL     OW81748   5.013   0.345  10.905 -0.1565  0.2598 -0.0765
25646SOL    HW181749   4.954   0.412  10.871  0.1033  0.5898  0.1165
25646SOL    HW281750   5.080   0.336  10.837 -0.5187 -0.2416 -0.3758
25647SOL     OW81751   2.393   2.769   4.786 -0.0903 -0.1584  0.2565
25647SOL    HW181752   2.471   2.819   4.761  0.6797 -1.7508 -0.6503
25647SOL    HW281753   2.406   2.749   4.878  0.1222  0.3858  0.3471
25648SOL     OW81754  11.535   8.035   3.112 -0.1386 -0.2083 -0.0535
25648SOL    HW181755  11.603   7.972   3.136 -1.2613 -0.5534  2.5969
25648SOL    HW281756  11.493   7.997   3.035  1.0423 -1.2574 -0.2027
25649SOL     OW81757   6.258  11.793  11.940 -0.3610 -0.6900 -0.9951
25649SOL    HW181758   6.222  11.704  11.943  1.2554 -1.3853 -1.3881
25649SOL    HW281759   6.307  11.796  11.858 -1.8549  1.1834 -1.9107
25650SOL     OW81760   7.730   4.544   2.513 -0.0498 -0.0273  0.1853
25650SOL    HW181761   7.759   4.576   2.428 -0.4044  0.8237  0.3776
25650SOL    HW281762   7.637   4.524   2.500  0.2968 -1.6356 -0.1095
25651SOL     OW81763   9.412   4.910   9.152  0.1179  0.8461  0.0956
25651SOL    HW181764   9.443   4.901   9.062  0.8345  1.5678  0.2605
25651SOL    HW281765   9.433   4.827   9.193 -3.3555 -0.9249 -1.2701
25652SOL     OW81766   1.652   4.227   8.485  0.4765 -0.3151 -0.2223
25652SOL    HW181767   1.669   4.133   8.495 -0.9639 -0.7052 -1.1164
25652SOL    HW281768   1.609   4.253   8.566 -0.0247 -0.6652 -0.3705
25653SOL     OW81769   7.519  11.118  10.999  0.2405  0.7623 -0.2820
25653SOL    HW181770   7.519  11.100  10.906 -0.7155  0.6092 -0.2572
25653SOL    HW281771   7.467  11.049  11.038 -1.6082  2.2639  0.0597
25654SOL     OW81772   8.965   2.390   3.898 -0.2445  0.6225 -0.2488
25654SOL    HW181773   9.058   2.365   3.896 -0.5333 -0.5802  0.4604
25654SOL    HW281774   8.966   2.485   3.898  0.9413  0.6800 -2.1267
25655SOL     OW81775  10.177   3.633   0.678 -0.0322 -0.1658  0.0650
25655SOL    HW181776  10.236   3.693   0.723 -0.3729  1.2433 -1.2786
25655SOL    HW281777  10.165   3.560   0.739  0.0583  1.3194  1.9333
25656SOL     OW81778   0.816   7.868   5.963  0.5631 -0.4631  0.5113
25656SOL    HW181779   0.907   7.846   5.943  0.6410 -0.8460  1.2275
25656SOL    HW281780   0.808   7.850   6.057 -0.2617 -0.4605  0.4463
25657SOL     OW81781   2.609  11.245   3.655  0.5539 -1.0144  0.0112
25657SOL    HW181782   2.538  11.307   3.674  2.5173  1.0515  1.1533
25657SOL    HW281783   2.631  11.260   3.563  1.4707  0.5848  0.4541
25658SOL     OW81784   3.243   2.641  11.558 -0.3251  0.1522  0.1688
25658SOL    HW181785   3.331   2.612  11.532 -0.6192  0.6439 -1.5113
25658SOL    HW281786   3.247   2.737  11.550 -0.9409  0.1923  0.3040
25659SOL     OW81787   3.449   8.376   6.153  0.0667 -0.3267 -0.2375
25659SOL    HW181788   3.459   8.317   6.228 -1.3978  0.7313  0.8378
25659SOL    HW281789   3.522   8.354   6.095 -0.4056 -3.1970  0.0994
25660SOL     OW81790   4.032  11.194   7.193 -0.1603 -0.0157  0.3171
25660SOL    HW181791   4.061  11.234   7.111  0.8174  0.7211  0.9955
25660SOL    HW281792   4.110  11.147   7.226 -0.8207 -1.1416  0.3430
25661SOL     OW81793   4.032  11.147   3.380  0.0925  0.2241  0.0612
25661SOL    HW181794   4.058  11.234   3.349 -1.8512  0.4826 -1.0188
25661SOL    HW281795   3.967  11.165   3.448  1.4095 -0.4058  1.5457
25662SOL     OW81796   5.719   8.788   0.079 -0.3040 -0.0408  0.3403
25662SOL    HW181797   5.656   8.736   0.030  0.9715  1.2514 -2.9088
25662SOL    HW281798   5.804   8.748   0.061  0.5283  2.1292 -1.0169
25663SOL     OW81799   1.403   1.935   5.626 -0.1532 -0.4140  1.2482
25663SOL    HW181800   1.449   1.992   5.565 -0.9574 -0.8387  0.2366
25663SOL    HW281801   1.471   1.909   5.689  0.5072  0.6226  0.9878
25664SOL     OW81802   9.793  11.649   8.851 -0.0996  0.2613 -0.1612
25664SOL    HW181803   9.726  11.697   8.901 -0.5334  0.5600 -1.0076
25664SOL    HW281804   9.868  11.708   8.849 -0.4144  0.6517 -0.6668
25665SOL     OW81805   8.874  10.626   5.962  0.1285  0.1791 -0.0471
25665SOL    HW181806   8.804  10.688   5.943 -0.4268 -0.0964  0.9772
25665SOL    HW281807   8.955  10.677   5.957 -0.2151  0.6873 -0.4504
25666SOL     OW81808   6.674  11.561   9.315 -0.8732 -0.0745  0.6350
25666SOL    HW181809   6.688  11.471   9.287  0.0970  0.2608  0.0328
25666SOL    HW281810   6.643  11.607   9.237  1.0716  0.6780  0.2641
25667SOL     OW81811  12.057   6.327   7.888 -0.5027  0.0289 -1.0500
25667SOL    HW181812  12.060   6.412   7.844 -0.0152 -0.6636 -2.4252
25667SOL    HW281813  11.964   6.308   7.898 -0.6179  1.0793  0.0135
25668SOL     OW81814  10.516   6.847   3.560  0.5699 -0.4782 -0.7880
25668SOL    HW181815  10.541   6.911   3.493  3.0353 -1.4489 -0.9016
25668SOL    HW281816  10.505   6.899   3.640  0.7698  0.2929 -1.2470
25669SOL     OW81817   8.961   1.423   0.763 -0.1596  0.1201  0.4179
25669SOL    HW181818   8.883   1.476   0.744 -1.3061 -1.6209  0.0386
25669SOL    HW281819   9.023   1.485   0.801 -1.4849  1.6993  0.1232
25670SOL     OW81820   8.246   9.457   9.553  0.3909  0.6678  0.0510
25670SOL    HW181821   8.258   9.551   9.543 -0.8045  1.0011  1.4464
25670SOL    HW281822   8.154   9.446   9.575  0.7544 -0.7289  1.0628
25671SOL     OW81823  11.709   1.966  10.044 -0.0194 -0.2599 -0.8792
25671SOL    HW181824  11.622   1.965  10.006  0.2872  1.1939 -1.6826
25671SOL    HW281825  11.698   1.931  10.133 -1.2542 -0.8689 -1.2619
25672SOL     OW81826   3.175   8.553   3.247  0.0728 -0.4249  0.7519
25672SOL    HW181827   3.229   8.473   3.249 -0.1576 -0.5679  1.9385
25672SOL    HW281828   3.218   8.612   3.310  0.3260  0.4630 -0.2172
25673SOL     OW81829   1.263   9.503   8.104  0.3897 -0.6347  0.6394
25673SOL    HW181830   1.196   9.568   8.083  0.1340 -0.2436  2.4763
25673SOL    HW281831   1.294   9.528   8.191  3.0198 -0.7494 -0.1952
25674SOL     OW81832   4.170   0.543   4.786 -0.4083  0.0091 -0.4672
25674SOL    HW181833   4.107   0.610   4.814 -1.6348 -1.0150 -0.7198
25674SOL    HW281834   4.119   0.483   4.732  0.2660 -2.0812  1.1218
25675SOL     OW81835   7.107   2.498   9.520  0.4263 -0.0411  0.0028
25675SOL    HW181836   7.125   2.588   9.547  1.5459 -0.3096  0.1830
25675SOL    HW281837   7.145   2.444   9.589  2.8501 -0.7257 -1.7139
25676SOL     OW81838   2.144   5.879  12.219 -0.0607 -0.1844  0.2677
25676SOL    HW181839   2.206   5.842  12.156 -0.5990  0.1741 -0.4983
25676SOL    HW281840   2.194   5.948  12.264  0.2250 -0.1907 -0.0341
25677SOL     OW81841   5.526   3.633   7.668  0.3333  0.1432 -0.9108
25677SOL    HW181842   5.498   3.586   7.590 -0.8873 -2.3600  0.8801
25677SOL    HW281843   5.473   3.712   7.669 -0.7552 -0.5388 -1.8458
25678SOL     OW81844   7.083  11.252  10.215  0.5690  0.2957 -0.0667
25678SOL    HW181845   7.157  11.283  10.162 -1.3493  3.1711 -1.2885
25678SOL    HW281846   7.050  11.176  10.167  0.0360  1.7203 -2.1124
25679SOL     OW81847  11.704   2.701   4.055 -0.4242  0.3446 -0.4184
25679SOL    HW181848  11.794   2.677   4.078 -1.3672 -1.1798  2.0481
25679SOL    HW281849  11.664   2.621   4.023 -1.9015 -0.0644  2.1433
25680SOL     OW81850   1.432   7.593   0.883 -0.1057 -0.1196 -0.1053
25680SOL    HW181851   1.420   7.663   0.947  1.0697  0.1505 -0.1415
25680SOL    HW281852   1.345   7.578   0.846 -0.8643 -0.4484  1.7101
25681SOL     OW81853   6.862   4.564   8.870 -0.5558  0.4004  0.1664
25681SOL    HW181854   6.810   4.641   8.849 -0.7025  0.3704  0.4171
25681SOL    HW281855   6.888   4.529   8.785 -1.5719 -0.0149  0.0047
25682SOL     OW81856   7.098   0.752  12.042  0.1112 -0.0748 -0.0498
25682SOL    HW181857   7.116   0.762  11.949 -0.2624  0.0258 -0.1148
25682SOL    HW281858   7.122   0.661  12.062 -1.1735 -0.5539 -0.5762
25683SOL     OW81859   9.812   1.832   9.123 -0.4300  0.3986 -0.4156
25683SOL    HW181860   9.810   1.742   9.090 -1.2479  0.3188 -0.1576
25683SOL    HW281861   9.754   1.881   9.066 -0.7483  0.5569  0.0340
25684SOL     OW81862  10.231   9.143   7.785  0.4512  0.4155  0.2492
25684SOL    HW181863  10.211   9.205   7.855 -0.7637  1.4577 -0.9717
25684SOL    HW281864  10.202   9.186   7.705 -0.4633 -1.7278 -0.6663
25685SOL     OW81865   8.748   7.897   0.615 -0.5057 -0.4817  0.5171
25685SOL    HW181866   8.785   7.911   0.528 -0.9121 -1.1984  0.2199
25685SOL    HW281867   8.737   7.985   0.651  0.2342 -0.2016  0.0919
25686SOL     OW81868   2.444  10.193   9.095  0.0874  0.0475  0.1669
25686SOL    HW181869   2.470  10.129   9.029 -0.4403 -0.3956  0.3817
25686SOL    HW281870   2.519  10.252   9.102  0.7775 -0.8185  0.2943
25687SOL     OW81871   2.819   2.352   7.291  0.6125  0.4788 -0.4235
25687SOL    HW181872   2.817   2.338   7.196  0.0864  1.9450 -0.6690
25687SOL    HW281873   2.831   2.265   7.328 -0.0860 -0.2537 -1.8077
25688SOL     OW81874   8.520   7.114   6.158  0.3130 -0.1017  0.0837
25688SOL    HW181875   8.484   7.026   6.161 -0.8203  0.3500  0.1544
25688SOL    HW281876   8.582   7.112   6.084 -0.9488 -0.4999 -1.0003
25689SOL     OW81877   1.948   7.951  12.328  0.1423 -0.1432  0.4876
25689SOL    HW181878   2.025   7.895  12.335 -0.5557 -1.4494 -1.3941
25689SOL    HW281879   1.960   7.998  12.246  0.3636  2.0157  1.6793
25690SOL     OW81880   4.667   6.671   2.246 -0.7979 -0.1481  0.0387
25690SOL    HW181881   4.595   6.732   2.229 -1.5737 -0.7269  1.1606
25690SOL    HW281882   4.670   6.663   2.341  0.1445 -0.8709 -0.0346
25691SOL     OW81883   0.838   9.056   0.305 -0.5680  0.3165 -0.3144
25691SOL    HW181884   0.748   9.025   0.318 -0.1096 -1.1086 -0.3568
25691SOL    HW281885   0.888   9.016   0.376  0.3838 -0.5830 -1.4526
25692SOL     OW81886   1.236   5.377   1.330 -0.5662  0.2097 -0.2922
25692SOL    HW181887   1.228   5.302   1.272  0.1129  0.2304 -0.4198
25692SOL    HW281888   1.246   5.452   1.272  1.5498  0.0663 -0.1646
25693SOL     OW81889  11.233   8.519  10.474  0.0426 -0.2708 -0.0075
25693SOL    HW181890  11.153   8.568  10.497 -0.3635 -0.6721 -0.5559
25693SOL    HW281891  11.213   8.479  10.390  0.9603 -0.0953 -0.3169
25694SOL     OW81892   4.392   2.854   6.251 -0.3280 -0.0226 -0.3174
25694SOL    HW181893   4.463   2.791   6.260  0.5845  1.0493  0.0752
25694SOL    HW281894   4.434   2.935   6.221 -1.5371  0.2950 -1.2632
25695SOL     OW81895   9.260   7.427   9.701  0.0546  0.1912 -0.2954
25695SOL    HW181896   9.198   7.479   9.752 -0.1800 -0.6957  0.3364
25695SOL    HW281897   9.242   7.451   9.610 -1.5059 -0.3604 -0.1525
25696SOL     OW81898   4.380   1.091  11.815 -0.6272 -0.0036  0.1360
25696SOL    HW181899   4.439   1.032  11.769 -1.7780 -0.3161 -0.9879
25696SOL    HW281900   4.315   1.116  11.750 -0.0359  2.7545  0.4957
25697SOL     OW81901   2.331   1.230   3.787  0.3105  0.3432 -0.1469
25697SOL    HW181902   2.367   1.289   3.720  0.0663  1.0874  0.3573
25697SOL    HW281903   2.401   1.223   3.852  0.1121  0.5767  0.0946
25698SOL     OW81904  12.017   0.310   5.091 -0.2614  0.4020 -0.7772
25698SOL    HW181905  11.935   0.264   5.107 -0.0382 -0.0233 -0.8208
25698SOL    HW281906  12.065   0.303   5.173  0.6178 -1.2290 -1.3661
25699SOL     OW81907   7.621   0.379   6.520 -0.0959  0.1547 -0.1551
25699SOL    HW181908   7.605   0.318   6.448  1.7707 -0.6724  0.0722
25699SOL    HW281909   7.559   0.450   6.505 -0.2859 -0.3634 -2.1363
25700SOL     OW81910   4.223   1.282  10.813  0.1480  0.3322  0.0361
25700SOL    HW181911   4.143   1.335  10.806  0.1875  0.3669 -0.1467
25700SOL    HW281912   4.290   1.333  10.767  0.0104 -0.2258 -0.8163
25701SOL     OW81913   3.005   0.932   6.068 -0.0061  0.0680  0.1409
25701SOL    HW181914   3.059   0.882   6.130 -1.0808 -3.3215 -1.3864
25701SOL    HW281915   3.066   0.992   6.026  1.7956 -1.0684  0.9967
25702SOL     OW81916   3.013   1.282   7.590 -0.3363  0.1938  0.2984
25702SOL    HW181917   3.104   1.309   7.581 -0.2116  0.3964  1.9872
25702SOL    HW281918   3.002   1.212   7.525  0.7847  0.6989 -0.4582
25703SOL     OW81919   6.620   9.929   8.473  0.1789 -0.3621  0.4214
25703SOL    HW181920   6.642   9.912   8.565  0.3883 -3.2217 -0.0889
25703SOL    HW281921   6.674  10.005   8.450  2.3260 -1.3466  1.8834
25704SOL     OW81922   8.874   6.699   1.324  0.5152 -0.3156 -0.1638
25704SOL    HW181923   8.823   6.730   1.399  0.8439 -0.7146  0.2272
25704SOL    HW281924   8.954   6.753   1.325 -0.5032  1.3355 -1.6372
25705SOL     OW81925   5.108   6.198   2.844  0.3340  0.4723  0.3819
25705SOL    HW181926   5.138   6.192   2.934 -1.0195 -0.3322  0.7979
25705SOL    HW281927   5.161   6.134   2.796  1.3652  1.2179  0.4922
25706SOL     OW81928  11.626  12.136   8.177  0.0090  0.1180  0.0513
25706SOL    HW181929  11.575  12.108   8.252 -1.8639  0.5387 -0.9861
25706SOL    HW281930  11.597  12.079   8.105 -0.3996  1.5776 -0.9918
25707SOL     OW81931   3.786   0.037   6.639 -0.1994  0.0653  0.5295
25707SOL    HW181932   3.858   0.035   6.701  0.4143  2.2728 -0.0189
25707SOL    HW281933   3.707   0.036   6.693  0.2250 -1.3695  1.1664
25708SOL     OW81934   4.706   2.629   0.399 -0.3998 -0.0462 -0.3774
25708SOL    HW181935   4.704   2.710   0.349 -0.2361  0.2306  0.0582
25708SOL    HW281936   4.661   2.649   0.481 -1.8956 -0.8870 -0.9579
25709SOL     OW81937   5.152   4.715  10.396 -0.6354  0.4735 -0.0776
25709SOL    HW181938   5.112   4.629  10.388  0.0790  0.2059 -0.9591
25709SOL    HW281939   5.230   4.700  10.449 -0.0215  0.3921 -0.9815
25710SOL     OW81940   6.344  11.511   8.268  0.2586  0.8987 -0.0680
25710SOL    HW181941   6.333  11.449   8.341  1.7598 -0.5212 -0.9762
25710SOL    HW281942   6.380  11.590   8.309  0.5274  0.3376  0.8188
25711SOL     OW81943   4.108   2.505   5.609 -0.5292 -0.5879  0.0775
25711SOL    HW181944   4.014   2.514   5.590 -0.5163 -0.5934  0.0129
25711SOL    HW281945   4.151   2.517   5.525 -0.4670 -0.5080  0.1208
25712SOL     OW81946   5.255   9.915  10.581  0.3107 -0.0221  0.3329
25712SOL    HW181947   5.308   9.884  10.508  0.5276 -2.1536  1.3251
25712SOL    HW281948   5.171   9.870  10.571  0.0941  0.2204  0.9915
25713SOL     OW81949  11.418  10.555  10.042  0.1761  0.1826  0.2565
25713SOL    HW181950  11.374  10.578  10.123 -0.8790  0.8099 -0.4649
25713SOL    HW281951  11.408  10.632   9.986 -0.6462 -0.8383 -1.0771
25714SOL     OW81952   2.300   6.567   6.750 -0.6682  0.0827 -0.0090
25714SOL    HW181953   2.379   6.543   6.701 -1.3280  0.4007 -1.2639
25714SOL    HW281954   2.322   6.547   6.841 -0.0167 -2.1190 -0.5987
25715SOL     OW81955   5.019  10.190   4.474  0.1739  0.2594 -0.4885
25715SOL    HW181956   5.098  10.229   4.512  0.5618  0.0987 -1.1141
25715SOL    HW281957   5.031  10.096   4.486 -0.2346  0.2649  0.0023
25716SOL     OW81958   3.138   4.275   4.675 -0.1859 -0.0785 -0.5934
25716SOL    HW181959   3.112   4.221   4.750  1.1682  0.7416  0.5146
25716SOL    HW281960   3.231   4.259   4.665 -0.1007  0.7833 -1.3165
25717SOL     OW81961  10.801   9.212  10.020 -0.2571  0.4318 -0.1429
25717SOL    HW181962  10.891   9.181  10.020 -0.6704 -0.8191 -0.0226
25717SOL    HW281963  10.776   9.214   9.928 -1.4503 -3.4788 -0.0977
25718SOL     OW81964   2.154   9.594  11.313  0.5098  0.2022  0.0340
25718SOL    HW181965   2.066   9.556  11.309  0.6448 -0.0928 -0.1481
25718SOL    HW281966   2.163   9.622  11.404  1.1057 -1.9138  0.7036
25719SOL     OW81967   9.191   2.420  10.740  0.2225  0.2076  0.9757
25719SOL    HW181968   9.255   2.368  10.789 -1.0276 -1.7729  0.5989
25719SOL    HW281969   9.126   2.446  10.805 -0.3169 -0.6206  0.7847
25720SOL     OW81970   6.574   1.723   6.519 -0.1016 -0.2307  0.3944
25720SOL    HW181971   6.611   1.768   6.595 -1.1142  0.0161  0.7562
25720SOL    HW281972   6.615   1.766   6.444 -1.0015  1.2931  0.7333
25721SOL     OW81973   1.677   3.752   5.827 -0.1183 -0.7768 -0.3598
25721SOL    HW181974   1.648   3.707   5.747 -1.5330  0.1258 -0.3921
25721SOL    HW281975   1.673   3.845   5.806 -0.6626 -0.5138  0.7989
25722SOL     OW81976   7.162  11.183   5.212  0.0454 -0.1344  0.1611
25722SOL    HW181977   7.070  11.192   5.237  0.1201  0.2859  0.2951
25722SOL    HW281978   7.191  11.273   5.194  0.2712 -0.3228 -0.4401
25723SOL     OW81979   1.720   4.762   9.202 -0.2260 -0.7871  0.0803
25723SOL    HW181980   1.735   4.838   9.258  0.6752 -1.0983  0.2715
25723SOL    HW281981   1.654   4.791   9.139  0.1468  0.1707  0.1195
25724SOL     OW81982  11.338   5.251   5.948 -0.0660  0.1643 -0.0101
25724SOL    HW181983  11.420   5.272   5.905  0.1436  1.0602  0.7869
25724SOL    HW281984  11.279   5.225   5.877  0.2787  1.5772 -0.8462
25725SOL     OW81985   1.484  10.216   7.098  0.2256  0.2128 -0.2986
25725SOL    HW181986   1.518  10.195   7.185  1.1643  2.5309 -0.0368
25725SOL    HW281987   1.414  10.279   7.114 -1.8677 -1.7930 -1.0782
25726SOL     OW81988   2.900   4.778   4.597  0.0392 -0.0719 -0.3783
25726SOL    HW181989   2.877   4.782   4.689 -2.2739  0.5847 -0.9137
25726SOL    HW281990   2.943   4.693   4.586  0.7051  0.0090  1.3440
25727SOL     OW81991   1.089  12.532   4.179 -0.2653 -0.0258 -0.0988
25727SOL    HW181992   1.166  12.528   4.124 -0.7431 -2.6574 -0.7120
25727SOL    HW281993   1.015  12.522   4.119 -1.0721  1.4725  0.5777
25728SOL     OW81994   5.533   4.558  12.429  0.2486  0.2530 -0.6110
25728SOL    HW181995   5.591   4.605  12.489  1.3471 -1.4477 -0.2847
25728SOL    HW281996   5.470   4.514  12.485 -0.6602  1.1292 -0.9086
25729SOL     OW81997   5.705   9.292   2.832 -0.0974 -0.4305  0.3665
25729SOL    HW181998   5.756   9.308   2.753  0.4271  1.3134  1.0283
25729SOL    HW281999   5.642   9.364   2.836 -1.0622 -1.2636  0.8102
25730SOL     OW82000   5.209   2.457   6.544 -0.0958 -0.4302  0.8735
25730SOL    HW182001   5.171   2.455   6.456  0.2336 -0.9099  0.7403
25730SOL    HW282002   5.259   2.539   6.546 -0.6277 -0.0977  0.8401
25731SOL     OW82003   0.618   5.334  11.491  0.4948 -0.1565  0.1564
25731SOL    HW182004   0.606   5.250  11.534  1.4560 -0.2207  0.3285
25731SOL    HW282005   0.561   5.394  11.539 -1.0286 -0.9004 -0.6497
25732SOL     OW82006  10.354   6.453   8.208  0.2794  0.2156  0.9593
25732SOL    HW182007  10.368   6.464   8.114  2.5828 -1.8874  0.9377
25732SOL    HW282008  10.304   6.371   8.215 -0.0467  0.4615  1.5777
25733SOL     OW82009  11.452   9.119  12.543 -0.4907 -0.7533  0.0245
25733SOL    HW182010  11.532   9.067  12.534 -1.8299 -2.9259  0.1265
25733SOL    HW282011  11.421   9.099  12.631 -0.7428  0.7061  0.2832
25734SOL     OW82012  12.026   3.035  11.636  0.3711 -0.0492  0.8021
25734SOL    HW182013  11.956   3.099  11.623 -1.5233 -2.0836  0.3369
25734SOL    HW282014  12.100   3.086  11.670 -0.2381  2.7205 -1.6581
25735SOL     OW82015   3.544   1.597  12.116  0.1669 -0.7631  0.1452
25735SOL    HW182016   3.542   1.690  12.139 -2.0449 -0.6866 -0.1861
25735SOL    HW282017   3.572   1.554  12.197 -1.7387 -0.0060  1.2859
25736SOL     OW82018  10.305  12.519   0.806 -0.9309 -0.2767 -0.2017
25736SOL    HW182019  10.261  12.594   0.768  0.2057  0.2308 -0.5611
25736SOL    HW282020  10.330  12.547   0.894 -0.0387 -0.0251 -0.5214
25737SOL     OW82021   6.403   4.553   0.656 -0.1653  0.4960 -0.3416
25737SOL    HW182022   6.326   4.546   0.599 -0.3904  0.1947 -0.0036
25737SOL    HW282023   6.473   4.509   0.608 -1.1094 -2.6856  0.9627
25738SOL     OW82024   1.424   8.153   1.946 -0.2390 -0.4435  0.5521
25738SOL    HW182025   1.341   8.178   1.987 -0.8635 -1.1133 -0.2535
25738SOL    HW282026   1.453   8.076   1.994  0.5188  0.4523  1.5692
25739SOL     OW82027   4.646   6.357   6.111 -0.0116 -0.4109 -0.3554
25739SOL    HW182028   4.590   6.329   6.038  0.8133  0.2141 -1.2475
25739SOL    HW282029   4.729   6.311   6.097  0.0680 -0.4908  0.3438
25740SOL     OW82030  10.294   8.118   0.314  0.0042  0.3774 -0.2754
25740SOL    HW182031  10.295   8.030   0.351 -0.8770  0.7383  0.6280
25740SOL    HW282032  10.302   8.104   0.220  1.8792 -0.5731 -0.0231
25741SOL     OW82033  11.253  11.269   5.005  0.0828 -0.1426  0.1321
25741SOL    HW182034  11.225  11.274   4.914  1.6237 -0.7400 -0.4158
25741SOL    HW282035  11.234  11.356   5.041 -1.8142 -0.3193 -0.3258
25742SOL     OW82036   6.635  11.437   5.190 -0.2171 -0.8695  0.3914
25742SOL    HW182037   6.710  11.387   5.221  2.6815  3.0913  0.4661
25742SOL    HW282038   6.609  11.490   5.265  0.9945  2.1869 -1.1879
25743SOL     OW82039   1.211   0.219  10.842  0.1758  0.6955 -0.2914
25743SOL    HW182040   1.170   0.296  10.804  3.4814  1.4121 -2.7907
25743SOL    HW282041   1.221   0.240  10.935 -2.8754  1.3292 -0.0008
25744SOL     OW82042   9.879   5.266  12.183 -0.6181 -0.2090 -0.1576
25744SOL    HW182043   9.949   5.260  12.248  0.9814  1.1469 -1.6725
25744SOL    HW282044   9.873   5.178  12.146  1.3972 -0.0049 -1.0783
25745SOL     OW82045   7.769   0.457   3.512  0.6018  0.2386  0.0455
25745SOL    HW182046   7.712   0.478   3.586  0.0513 -0.3926 -0.1993
25745SOL    HW282047   7.770   0.537   3.459 -0.0995  0.2321  0.0167
25746SOL     OW82048  12.396   1.666  11.936 -0.4739 -0.2868  0.3382
25746SOL    HW182049  12.429   1.755  11.924 -1.7653  0.5435  2.4136
25746SOL    HW282050  12.376   1.636  11.847  1.9101  0.6605 -0.5985
25747SOL     OW82051   8.546   0.925   7.838 -0.0618  0.1492 -0.1237
25747SOL    HW182052   8.640   0.911   7.826 -0.4703 -2.1768 -1.0779
25747SOL    HW282053   8.529   0.898   7.928 -0.0638 -1.0996 -0.4835
25748SOL     OW82054   5.860  10.114  12.424 -0.0439 -0.0007  0.7880
25748SOL    HW182055   5.912  10.194  12.428 -1.3412  0.8564  1.1895
25748SOL    HW282056   5.827  10.102  12.514 -1.7508  0.3380  0.2398
25749SOL     OW82057   8.086   5.891  10.070  0.4707 -0.2122 -0.4827
25749SOL    HW182058   8.162   5.843  10.036 -0.1739 -0.2437 -1.9832
25749SOL    HW282059   8.079   5.968  10.013  0.9224  1.2153  1.3003
25750SOL     OW82060   3.935  10.041   1.937  0.2050  0.5194 -0.5103
25750SOL    HW182061   4.028  10.041   1.913 -0.2362  0.3095 -2.3880
25750SOL    HW282062   3.899   9.964   1.893 -1.2253  1.6472 -1.4062
25751SOL     OW82063   8.208   3.355   6.422  0.4910 -0.2999  0.0640
25751SOL    HW182064   8.279   3.341   6.360  0.9358 -0.6958  0.6517
25751SOL    HW282065   8.207   3.450   6.436 -1.0850  0.0811 -2.2395
25752SOL     OW82066   5.525   2.289   8.546 -0.1493 -0.2327 -0.1887
25752SOL    HW182067   5.597   2.339   8.507  0.2928 -1.2902 -0.7971
25752SOL    HW282068   5.552   2.273   8.636  0.3114 -0.4671 -0.3628
25753SOL     OW82069  10.267   6.040  11.693 -0.1408  0.0151 -0.0543
25753SOL    HW182070  10.338   6.009  11.638 -0.1049  1.0707 -0.6286
25753SOL    HW282071  10.189   6.032  11.638 -0.0092  1.6977 -0.5251
25754SOL     OW82072   5.100   9.210  10.839  0.4648  0.6304 -0.5612
25754SOL    HW182073   5.073   9.283  10.895  0.3986 -0.0752  0.3702
25754SOL    HW282074   5.073   9.235  10.751 -0.1078  1.4512 -0.1644
25755SOL     OW82075   7.444   9.401   4.897 -0.1507 -0.8952  0.1787
25755SOL    HW182076   7.532   9.366   4.885 -0.0519 -0.3857 -0.6548
25755SOL    HW282077   7.449   9.453   4.977  0.2594 -1.0253  0.2390
25756SOL     OW82078   9.525   0.264  10.297 -0.2537  0.5363 -0.0098
25756SOL    HW182079   9.542   0.180  10.256  1.4608  0.4132  0.8179
25756SOL    HW282080   9.431   0.278  10.288 -0.5048 -1.2684 -0.5188
25757SOL     OW82081   2.345   8.010   0.487  0.0769 -0.1853 -0.1348
25757SOL    HW182082   2.286   8.051   0.550 -0.3133 -1.7839  0.5907
25757SOL    HW282083   2.323   7.917   0.490  1.3285 -0.5559 -1.2746
25758SOL     OW82084   3.111   0.215   0.201 -0.3433  0.0921  0.0280
25758SOL    HW182085   3.045   0.146   0.196 -2.4357  2.0465 -0.8460
25758SOL    HW282086   3.184   0.182   0.148 -1.4559 -1.2466 -0.7432
25759SOL     OW82087   8.310   6.096   5.283  0.1067 -0.0384 -0.4615
25759SOL    HW182088   8.379   6.116   5.220 -0.8536 -1.8195 -2.2001
25759SOL    HW282089   8.311   6.001   5.290 -1.0041  0.0151  0.8449
25760SOL     OW82090   5.861   2.656   0.332 -0.2245  0.0375 -0.3390
25760SOL    HW182091   5.949   2.673   0.366 -0.5924  0.0585  0.6085
25760SOL    HW282092   5.873   2.655   0.237  0.4900  1.7609 -0.3014
25761SOL     OW82093   0.698  11.520   7.715  0.0942 -0.1522  0.2469
25761SOL    HW182094   0.739  11.529   7.629 -1.7532  1.0404 -0.5502
25761SOL    HW282095   0.722  11.431   7.743  1.2493 -0.3364 -1.1905
25762SOL     OW82096   4.137   1.982  10.288  0.0892 -0.1236  0.3616
25762SOL    HW182097   4.134   1.982  10.383 -1.2799  0.2310  0.3324
25762SOL    HW282098   4.051   1.949  10.261  0.8598 -1.3541 -0.7549
25763SOL     OW82099   5.146   7.087   9.181  0.1751 -0.1471  0.4921
25763SOL    HW182100   5.102   7.143   9.117 -2.5450 -1.6234  0.9035
25763SOL    HW282101   5.125   7.125   9.265  0.7901 -0.1602  0.6563
25764SOL     OW82102   7.927   5.079   4.451 -0.5709 -0.1787  0.1676
25764SOL    HW182103   7.991   5.058   4.519 -0.8143  0.5845  0.6446
25764SOL    HW282104   7.966   5.151   4.402 -0.6667 -0.3240 -0.1288
25765SOL     OW82105  12.037   8.872   6.038  0.3960  0.0336 -0.1722
25765SOL    HW182106  11.996   8.828   6.112  1.8559  1.4684  1.5751
25765SOL    HW282107  11.976   8.941   6.014  0.0675 -0.2298 -0.1068
25766SOL     OW82108   4.533   3.079   9.589 -0.1292  0.0804 -0.4593
25766SOL    HW182109   4.529   3.175   9.589 -1.3015  0.0487 -0.1291
25766SOL    HW282110   4.545   3.055   9.681 -3.7151 -0.1506  0.0897
25767SOL     OW82111   2.357  11.936   2.036  0.4124 -0.3679 -0.2495
25767SOL    HW182112   2.416  12.005   2.005  0.0334  0.6894  1.2811
25767SOL    HW282113   2.282  11.941   1.976 -0.0786  1.2818  0.4418
25768SOL     OW82114   8.884   1.048   6.558 -0.1182 -0.0196 -0.1760
25768SOL    HW182115   8.963   1.094   6.530 -0.0255  0.0384  0.1637
25768SOL    HW282116   8.906   1.015   6.646  0.2241 -1.6904 -0.8532
25769SOL     OW82117   5.848   4.078   8.732  0.1523 -0.2026 -0.0742
25769SOL    HW182118   5.866   4.104   8.822  0.4473 -0.1866 -0.1378
25769SOL    HW282119   5.792   4.148   8.698 -0.4637 -0.5155  0.2812
25770SOL     OW82120   8.174   6.985   8.591  0.4338 -0.3086 -0.9840
25770SOL    HW182121   8.269   6.990   8.604  0.2173  0.2189  0.5916
25770SOL    HW282122   8.148   7.073   8.564  0.0789  0.2700  1.1161
25771SOL     OW82123   4.206   5.400   3.396 -0.4062  0.0597 -0.2467
25771SOL    HW182124   4.133   5.348   3.429  1.4737 -0.8390  2.9398
25771SOL    HW282125   4.284   5.357   3.432  1.6191  1.9419 -2.0896
25772SOL     OW82126   9.927   7.137  11.349  0.0053  1.0610 -0.3287
25772SOL    HW182127   9.984   7.063  11.370 -0.0239  1.7740  2.7394
25772SOL    HW282128   9.841   7.098  11.337  0.2639  0.4503 -0.2783
25773SOL     OW82129   9.884   6.625   4.855  0.9685 -0.1110 -0.8471
25773SOL    HW182130   9.805   6.572   4.855  1.2415 -0.5270 -1.0426
25773SOL    HW282131   9.855   6.713   4.881  0.4699 -0.2922 -0.7896
25774SOL     OW82132  11.301   8.127   7.337  0.5028  0.5234  0.0647
25774SOL    HW182133  11.385   8.125   7.292  0.0601  1.8045 -0.8892
25774SOL    HW282134  11.241   8.079   7.279  0.6648 -0.8233  0.9820
25775SOL     OW82135  11.421   8.372   4.193 -0.0335  0.5072  0.6847
25775SOL    HW182136  11.358   8.421   4.140 -0.2372  0.3327  0.7615
25775SOL    HW282137  11.493   8.353   4.133 -1.3097 -1.7645 -0.2529
25776SOL     OW82138  11.618   8.608   8.540  0.3288 -0.5187 -0.7965
25776SOL    HW182139  11.672   8.544   8.493  2.0422 -0.3100  0.7721
25776SOL    HW282140  11.591   8.562   8.620 -0.1510  0.0528 -0.6252
25777SOL     OW82141   9.206   3.551   9.148  0.6983 -0.5596  0.3171
25777SOL    HW182142   9.217   3.462   9.114  1.4625  0.3577 -2.0743
25777SOL    HW282143   9.111   3.565   9.150  0.6110 -0.9559 -0.6989
25778SOL     OW82144   5.623  11.157  10.421  0.6791  0.4088 -0.6570
25778SOL    HW182145   5.625  11.082  10.480  0.4740  0.9829  0.1036
25778SOL    HW282146   5.677  11.223  10.465  0.9085  0.6899 -1.3449
25779SOL     OW82147   6.750   5.363   3.781  0.0267  0.5212  0.1713
25779SOL    HW182148   6.760   5.354   3.686  1.4996  0.9518  0.2696
25779SOL    HW282149   6.669   5.315   3.801  0.3972 -0.7086 -1.1218
25780SOL     OW82150   4.387   5.567   0.950  0.0858  0.7048 -0.1841
25780SOL    HW182151   4.311   5.558   1.008 -0.0419  0.5729 -0.3717
25780SOL    HW282152   4.362   5.521   0.870  0.7144 -0.1548  0.0882
25781SOL     OW82153   6.196   9.525   2.756  0.1513  0.1525 -0.0398
25781SOL    HW182154   6.222   9.596   2.815  0.1435  1.2596 -1.3157
25781SOL    HW282155   6.197   9.447   2.811  1.2902  0.9480  1.1425
25782SOL     OW82156   8.175   9.790   5.349 -0.2520  0.6854  0.0963
25782SOL    HW182157   8.145   9.881   5.346 -1.2094  0.3761  0.0278
25782SOL    HW282158   8.095   9.738   5.340 -0.0092 -0.1787  2.3271
25783SOL     OW82159   4.509   7.990   1.291  0.1283  0.3802  0.4828
25783SOL    HW182160   4.527   8.029   1.377  0.8928  0.8430  0.1201
25783SOL    HW282161   4.575   7.921   1.282 -1.5103 -1.3884  1.3300
25784SOL     OW82162  10.901   3.213   5.571  0.4811  0.9132 -0.0420
25784SOL    HW182163  10.818   3.188   5.530 -1.1526  0.5280  3.1548
25784SOL    HW282164  10.879   3.288   5.626  2.2624  0.8998  0.7519
25785SOL     OW82165   3.197  11.154   8.535 -0.2958  0.5841  0.3519
25785SOL    HW182166   3.112  11.109   8.531  0.6241 -1.3310  0.8132
25785SOL    HW282167   3.251  11.096   8.589  1.6278  1.1692 -0.8540
25786SOL     OW82168   3.233   9.330   3.632 -0.2708  0.0788  0.2910
25786SOL    HW182169   3.270   9.308   3.547 -0.9721  1.5253 -0.4241
25786SOL    HW282170   3.152   9.376   3.612 -1.0654 -0.5944  1.7772
25787SOL     OW82171  11.597  11.055   2.800 -0.2646 -0.1619 -0.1955
25787SOL    HW182172  11.525  10.994   2.782 -0.8215  0.4104  0.0631
25787SOL    HW282173  11.644  11.015   2.873 -0.5682 -0.3248 -0.0881
25788SOL     OW82174   5.322   6.981   8.808 -0.3373 -0.3299  0.1286
25788SOL    HW182175   5.249   6.921   8.793  0.9335 -1.8231 -0.3243
25788SOL    HW282176   5.380   6.967   8.734 -0.5479  2.3913 -0.6397
25789SOL     OW82177   8.017   2.647   1.855  0.8820 -0.2550 -0.1807
25789SOL    HW182178   7.948   2.713   1.854 -0.4140 -1.3395  2.9337
25789SOL    HW282179   8.074   2.673   1.927  1.0068 -1.8266  0.3415
25790SOL     OW82180   3.274   7.749   1.372 -0.1075  0.4461  0.1861
25790SOL    HW182181   3.231   7.667   1.396 -1.0075  0.9999  0.5411
25790SOL    HW282182   3.299   7.739   1.280 -1.1494  0.1622 -0.0726
25791SOL     OW82183   1.899   2.899  12.619 -0.0306  0.2736 -0.3140
25791SOL    HW182184   1.838   2.931  12.553 -0.1232 -1.9784 -1.4024
25791SOL    HW282185   1.985   2.926  12.588 -0.2496  1.4204  0.0144
25792SOL     OW82186   4.298   6.723  12.052  0.1372  0.3546 -0.1253
25792SOL    HW182187   4.231   6.791  12.062  0.9764  1.2672 -0.4276
25792SOL    HW282188   4.303   6.681  12.138 -0.2061  0.8786  0.1560
25793SOL     OW82189   7.730   4.150   8.657  0.3419 -0.7294 -0.3905
25793SOL    HW182190   7.674   4.207   8.605  0.7132 -1.2711 -1.4081
25793SOL    HW282191   7.820   4.176   8.634  0.5188 -0.7121  0.2851
25794SOL     OW82192   7.371   6.527   5.021  0.9596 -0.3293  0.0356
25794SOL    HW182193   7.410   6.451   4.978  2.1715 -0.3869  1.1823
25794SOL    HW282194   7.424   6.601   4.990 -0.9399  0.2840 -2.0092
25795SOL     OW82195   3.281  11.221   5.886 -0.4869  0.1701  0.6597
25795SOL    HW182196   3.262  11.132   5.916  0.2141 -0.2410 -0.0953
25795SOL    HW282197   3.335  11.258   5.957 -2.2621  0.6422  1.8327
25796SOL     OW82198   9.058   1.850   2.497 -0.3359  0.4772  0.1890
25796SOL    HW182199   9.047   1.756   2.486  0.7301  0.0472  2.4217
25796SOL    HW282200   9.042   1.886   2.409 -0.4250 -1.7846 -0.7835
25797SOL     OW82201   4.577   2.194   8.812  0.1726 -0.3020  0.4820
25797SOL    HW182202   4.502   2.231   8.765 -0.0648 -0.9803  0.3211
25797SOL    HW282203   4.561   2.216   8.904  0.6846  1.1097  0.2563
25798SOL     OW82204   6.928   5.630  10.567 -0.3910 -0.1562  0.3331
25798SOL    HW182205   7.022   5.638  10.550 -0.7833  0.6023 -1.7303
25798SOL    HW282206   6.922   5.562  10.634  1.6253 -0.2155  0.5157
25799SOL     OW82207   6.987   1.467   4.419 -0.3674 -0.2332  0.1808
25799SOL    HW182208   7.065   1.492   4.468  0.1499  0.2938 -0.8724
25799SOL    HW282209   6.913   1.501   4.470  0.2271  1.7209 -0.2065
25800SOL     OW82210   1.506   5.731  11.775  0.1774 -0.0759 -0.2808
25800SOL    HW182211   1.527   5.657  11.718 -0.5350 -0.7261  0.2641
25800SOL    HW282212   1.416   5.755  11.751 -0.3770 -0.7787  0.9641
25801SOL     OW82213  11.262   8.452   1.068  0.2111 -0.2819 -0.3606
25801SOL    HW182214  11.217   8.368   1.058 -0.0615  0.0117 -1.7269
25801SOL    HW282215  11.267   8.488   0.980 -0.3803  1.5081  0.2744
25802SOL     OW82216   4.210   9.077  11.701 -0.1559 -0.0692  0.3317
25802SOL    HW182217   4.266   9.018  11.651 -0.1478 -0.6712  1.0180
25802SOL    HW282218   4.241   9.165  11.680  1.2496 -0.3909  0.9154
25803SOL     OW82219   0.642   5.658  12.472 -0.1551 -0.4065  0.3244
25803SOL    HW182220   0.666   5.723  12.539 -2.4427  0.6652  0.1868
25803SOL    HW282221   0.690   5.685  12.394  0.3063  0.0375  0.7535
25804SOL     OW82222   3.859   5.623   0.109  0.2681  0.3460 -0.2020
25804SOL    HW182223   3.828   5.574   0.032 -2.6548  1.8561 -0.1343
25804SOL    HW282224   3.920   5.563   0.152 -1.9481 -2.6806 -0.8986
25805SOL     OW82225   5.712   1.568   1.085 -0.3022 -0.3240  0.2743
25805SOL    HW182226   5.718   1.531   0.997  1.7589 -0.4734  0.4263
25805SOL    HW282227   5.629   1.617   1.085  0.2980  0.8685 -2.1985
25806SOL     OW82228   4.253  12.308   9.912 -0.2237  0.4910 -0.4078
25806SOL    HW182229   4.232  12.401   9.907 -2.2318  0.0352 -1.3789
25806SOL    HW282230   4.169  12.264   9.923  0.7080 -1.2115  0.3614
25807SOL     OW82231   8.569   6.934   0.727  0.6338  0.0031  0.0045
25807SOL    HW182232   8.628   6.895   0.663  0.1323 -1.4832  0.4213
25807SOL    HW282233   8.496   6.968   0.676 -0.3005 -2.1395 -0.1908
25808SOL     OW82234   6.732   6.427  11.721  0.2265  0.3223  0.7971
25808SOL    HW182235   6.761   6.359  11.660  1.2358 -0.9420  2.5859
25808SOL    HW282236   6.810   6.480  11.736 -0.1203  0.8668  0.7103
25809SOL     OW82237   4.673   2.916   2.360 -0.0268 -0.5026 -0.2901
25809SOL    HW182238   4.629   2.983   2.307 -0.1200 -0.0134  0.3855
25809SOL    HW282239   4.669   2.837   2.307 -0.7162 -0.1887 -0.7262
25810SOL     OW82240   5.599   0.686   0.680  0.0065  0.3182  0.0987
25810SOL    HW182241   5.686   0.674   0.719  1.8379  0.7177 -3.4854
25810SOL    HW282242   5.570   0.772   0.711  0.6250 -0.0336  1.7348
25811SOL     OW82243  10.091   4.853   8.851  0.2910  0.0469  0.2324
25811SOL    HW182244  10.000   4.862   8.825  0.6190 -0.6457 -1.2957
25811SOL    HW282245  10.117   4.766   8.820  1.1658 -0.2388  1.6578
25812SOL     OW82246   6.150   8.358   8.481  0.1246  0.0243 -0.5679
25812SOL    HW182247   6.062   8.365   8.445  0.0761 -1.4087 -0.7698
25812SOL    HW282248   6.177   8.268   8.464  1.2775  0.1694  0.3106
25813SOL     OW82249   0.897   9.318  11.316  0.6986 -0.0403  0.4277
25813SOL    HW182250   0.968   9.347  11.260  0.0776  1.0351  0.1703
25813SOL    HW282251   0.877   9.394  11.371 -0.3263 -0.2753  0.3979
25814SOL     OW82252   3.425  10.007   2.206  0.1917 -0.5654 -0.0397
25814SOL    HW182253   3.457   9.926   2.247  0.7759 -0.0676  0.5081
25814SOL    HW282254   3.377  10.052   2.276  0.3898 -0.1486 -0.1680
25815SOL     OW82255   9.755   4.654   8.735  0.5400  0.1395  1.0617
25815SOL    HW182256   9.729   4.648   8.827  1.9492 -0.6314  1.4328
25815SOL    HW282257   9.786   4.566   8.713 -3.4286 -0.9040 -1.3538
25816SOL     OW82258   5.040   0.677   4.159  0.6803 -0.7112 -0.1100
25816SOL    HW182259   5.072   0.736   4.227  1.5815 -1.3113  0.0150
25816SOL    HW282260   4.979   0.619   4.203  3.4948 -3.0956  1.0085
25817SOL     OW82261   5.259   6.934   0.562 -0.0416 -0.1967  0.2611
25817SOL    HW182262   5.296   6.846   0.568  2.0279  0.6136  0.4008
25817SOL    HW282263   5.242   6.959   0.653  2.9714  0.8942  0.6310
25818SOL     OW82264  12.596   8.604   8.854  0.3919 -0.3440 -0.5174
25818SOL    HW182265  12.642   8.572   8.932 -1.0463 -1.1943  0.0038
25818SOL    HW282266  12.561   8.689   8.880 -1.8558 -1.5104  0.5279
25819SOL     OW82267  12.366  12.166   3.625 -0.4638 -0.2194 -0.0911
25819SOL    HW182268  12.271  12.176   3.618 -0.9415 -2.5937  1.5959
25819SOL    HW282269  12.383  12.079   3.588  1.0515  0.1569 -0.3185
25820SOL     OW82270   8.137   5.310   1.184  0.0544 -0.3091 -0.3118
25820SOL    HW182271   8.123   5.247   1.255  0.8382  0.9136  0.9655
25820SOL    HW282272   8.049   5.343   1.164  0.0756  1.6614  2.3511
25821SOL     OW82273   5.442   2.240   2.257  0.5304  0.4035  0.6074
25821SOL    HW182274   5.519   2.295   2.276  0.8100  0.0132  0.6186
25821SOL    HW282275   5.461   2.203   2.170  0.3123  0.3753  0.5714
25822SOL     OW82276   6.340   8.571   2.859  0.0149  0.3424  0.3856
25822SOL    HW182277   6.245   8.579   2.849  0.0554  0.1557 -0.1737
25822SOL    HW282278   6.357   8.598   2.949 -0.4916  1.0509  0.2797
25823SOL     OW82279   1.606   0.305   7.620  0.6803  0.0699  0.1982
25823SOL    HW182280   1.685   0.349   7.588 -0.3464  0.9363 -1.2246
25823SOL    HW282281   1.596   0.337   7.710  1.9650 -0.1019  0.4236
25824SOL     OW82282  11.927   4.365   4.614  0.2814 -0.6404 -0.0281
25824SOL    HW182283  11.896   4.452   4.589  2.2702  0.0435 -0.2665
25824SOL    HW282284  11.851   4.308   4.603 -1.2761  1.1729  0.8072
25825SOL     OW82285   9.582   3.567   3.074 -0.3771  0.1546  0.2895
25825SOL    HW182286   9.614   3.572   3.164  2.0522 -1.9900 -0.3213
25825SOL    HW282287   9.652   3.606   3.022 -1.3172  0.4887 -0.7665
25826SOL     OW82288   7.465   1.554  10.178  0.6795  0.6343  0.1040
25826SOL    HW182289   7.497   1.540  10.267 -0.4725  0.5436  0.5268
25826SOL    HW282290   7.529   1.511  10.122 -0.2841 -2.3721  1.0720
25827SOL     OW82291  10.124   0.131   0.859 -0.6248 -0.0237 -0.0425
25827SOL    HW182292  10.060   0.130   0.788  0.5630 -1.1204 -1.1374
25827SOL    HW282293  10.075   0.099   0.936 -1.6347  0.1119 -0.6104
25828SOL     OW82294   8.007   9.926   0.869  0.4645 -0.6140  0.0356
25828SOL    HW182295   7.976   9.856   0.811  1.1377 -0.8563 -0.0497
25828SOL    HW282296   7.949  10.000   0.852  0.2875 -0.8756 -0.5181
25829SOL     OW82297   0.684   5.304   3.864  0.7014  0.7744  0.1793
25829SOL    HW182298   0.612   5.255   3.904  2.4953 -1.1830  1.2150
25829SOL    HW282299   0.647   5.337   3.782 -0.9468 -1.5205 -0.1133
25830SOL     OW82300  12.507   3.436   4.132 -0.2328 -0.1960 -0.2553
25830SOL    HW182301  12.476   3.526   4.137 -1.5896 -0.6906  1.0036
25830SOL    HW282302  12.603   3.443   4.136 -0.3280  1.1567  0.0577
25831SOL     OW82303   0.080  11.577   1.989 -0.2372 -0.0645  0.9684
25831SOL    HW182304   0.085  11.482   1.977 -0.4545  0.0309  0.0197
25831SOL    HW282305   0.013  11.590   2.056 -2.4132 -0.4884 -0.9868
25832SOL     OW82306  11.880  11.018  10.176  0.1358 -0.2446  0.2278
25832SOL    HW182307  11.786  11.017  10.160  0.3337 -0.3603 -1.0201
25832SOL    HW282308  11.909  11.103  10.145  0.1796  0.6023  2.4252
25833SOL     OW82309   3.106   9.407  12.036  0.3115 -0.0755 -0.1547
25833SOL    HW182310   3.040   9.469  12.004 -0.3771 -1.5536 -1.7589
25833SOL    HW282311   3.107   9.419  12.131 -1.3029  0.9266 -0.2396
25834SOL     OW82312   3.166   6.273   2.763  0.0130  0.4577 -0.0594
25834SOL    HW182313   3.085   6.306   2.802  0.0734  0.1449  0.3423
25834SOL    HW282314   3.182   6.330   2.688  0.5868  1.8923  1.1101
25835SOL     OW82315   2.640   6.106   2.427 -0.3614 -0.1845  0.0207
25835SOL    HW182316   2.607   6.019   2.448 -1.4764  0.1297 -0.3287
25835SOL    HW282317   2.699   6.128   2.499 -0.9942 -0.7458  0.7231
25836SOL     OW82318  10.899   5.788   5.074 -0.2505 -0.4883  0.2730
25836SOL    HW182319  10.955   5.722   5.033  0.5651 -0.8460  1.8884
25836SOL    HW282320  10.947   5.815   5.152 -0.7954  1.6922 -0.0897
25837SOL     OW82321  12.256  12.032  10.473  0.0804  0.1487 -0.0656
25837SOL    HW182322  12.179  11.984  10.444  0.6614 -1.2162  0.5179
25837SOL    HW282323  12.222  12.102  10.529 -0.7246 -0.8511  0.7394
25838SOL     OW82324   8.187   6.936   3.837 -0.3933  0.8195  0.4633
25838SOL    HW182325   8.154   6.855   3.796  0.0395  1.3859 -1.0599
25838SOL    HW282326   8.115   6.998   3.829 -0.0048  1.1888 -0.2320
25839SOL     OW82327   5.465   1.618   4.865  0.2041 -0.2726  0.4548
25839SOL    HW182328   5.495   1.708   4.870 -1.8600  0.5653 -0.9085
25839SOL    HW282329   5.537   1.566   4.901  2.6432  1.6396 -1.3628
25840SOL     OW82330  11.813   9.788   8.057 -0.2663  0.0615  0.1179
25840SOL    HW182331  11.859   9.849   8.000  0.0408 -0.0766  0.2166
25840SOL    HW282332  11.753   9.842   8.108  0.5413  0.3772  0.7424
25841SOL     OW82333  11.032   7.663   1.032  0.4845 -0.0380  0.0531
25841SOL    HW182334  11.038   7.647   0.938 -2.3372 -1.3373 -0.0065
25841SOL    HW282335  11.022   7.758   1.040 -0.6563 -0.0474 -1.0754
25842SOL     OW82336   1.697  10.681   3.132 -0.0303  0.1001 -0.1953
25842SOL    HW182337   1.756  10.739   3.083 -0.0968 -0.1871 -0.6263
25842SOL    HW282338   1.610  10.718   3.119 -0.1031 -0.2283 -0.6766
25843SOL     OW82339  10.927   5.126   1.860 -0.4440  0.7928 -0.1127
25843SOL    HW182340  10.931   5.198   1.796  0.8922  2.1140  1.3526
25843SOL    HW282341  11.007   5.076   1.844 -1.4032 -0.4566 -1.1679
25844SOL     OW82342   2.235   6.262   1.793 -1.3348  0.2102  0.5064
25844SOL    HW182343   2.307   6.215   1.749 -1.2673  0.7749 -0.0031
25844SOL    HW282344   2.244   6.237   1.885  0.2691  1.2004  0.6618
25845SOL     OW82345  11.788   4.868   5.999  0.6073 -0.6018 -0.1135
25845SOL    HW182346  11.794   4.847   5.906  0.8386 -1.2441  0.0450
25845SOL    HW282347  11.778   4.784   6.042  2.5131 -0.4967  0.6199
25846SOL     OW82348  12.032   7.107   7.661 -0.4488  0.0364  0.2509
25846SOL    HW182349  12.001   7.096   7.750  0.9384  0.5534  0.8193
25846SOL    HW282350  11.952   7.119   7.609 -1.3439 -1.5341  1.2079
25847SOL     OW82351   4.731  12.125   6.842  0.3988  0.0467  0.2852
25847SOL    HW182352   4.795  12.103   6.774  0.7047  0.6574  0.3770
25847SOL    HW282353   4.699  12.211   6.818 -0.2892 -0.1941  0.3216
25848SOL     OW82354   7.312   7.978   4.691 -0.1069 -0.1555  0.4171
25848SOL    HW182355   7.283   7.894   4.725  0.8460 -0.9886 -0.7524
25848SOL    HW282356   7.383   8.005   4.748 -0.4950 -0.0776  0.8659
25849SOL     OW82357   5.568   5.862   5.475  0.2653 -0.2139  1.2030
25849SOL    HW182358   5.485   5.827   5.445 -0.8079  1.4678  2.0829
25849SOL    HW282359   5.560   5.957   5.466  1.0581  0.1732  3.6862
25850SOL     OW82360   8.067   3.638   0.232  0.0916 -0.2418 -0.0290
25850SOL    HW182361   8.016   3.695   0.290 -0.1402  0.8458 -1.2558
25850SOL    HW282362   8.084   3.692   0.155  1.2088 -1.3373 -0.5777
25851SOL     OW82363   3.174   1.480   6.762 -0.2271  0.2433  0.1840
25851SOL    HW182364   3.087   1.508   6.791 -1.3593 -1.0110 -1.7187
25851SOL    HW282365   3.184   1.521   6.676  1.0213  0.2595  0.3279
25852SOL     OW82366   2.556   9.114   9.641 -0.2105  0.2003 -0.5148
25852SOL    HW182367   2.589   9.026   9.659  1.1244  0.5862 -0.9705
25852SOL    HW282368   2.461   9.103   9.633 -0.4547 -0.6605  2.5501
25853SOL     OW82369   3.965   7.326   7.070 -0.6166 -0.2407 -0.0015
25853SOL    HW182370   4.053   7.292   7.088 -0.8522 -0.5285  0.6468
25853SOL    HW282371   3.919   7.316   7.153 -0.9956  0.7281 -0.0839
25854SOL     OW82372   5.256  10.813   6.531 -0.4731  0.1136  0.9037
25854SOL    HW182373   5.270  10.786   6.621 -2.2008 -1.8624  0.6571
25854SOL    HW282374   5.334  10.783   6.484  0.5081  1.3052  1.7252
25855SOL     OW82375   2.240   8.733  11.219 -0.6579 -0.4543 -0.4233
25855SOL    HW182376   2.144   8.739  11.217 -0.7430 -1.3740  0.5219
25855SOL    HW282377   2.258   8.641  11.237  0.3858 -0.0577  0.6471
25856SOL     OW82378   5.950   3.131   1.742  0.6109 -0.3757 -0.7099
25856SOL    HW182379   5.930   3.047   1.785  1.4273  0.1932  0.8597
25856SOL    HW282380   5.902   3.196   1.793 -1.3897  0.0202 -2.9230
25857SOL     OW82381  10.362   7.799  10.697 -0.1108  0.1001  0.2176
25857SOL    HW182382  10.329   7.826  10.611 -2.2500 -1.1973  0.5623
25857SOL    HW282383  10.441   7.749  10.677  1.1031  2.2673 -0.7419
25858SOL     OW82384   2.305   4.554   8.594 -0.0839 -0.6580 -0.1650
25858SOL    HW182385   2.388   4.544   8.641  0.8545  0.9125 -1.4055
25858SOL    HW282386   2.256   4.618   8.646  0.9033  0.9855 -1.1695
25859SOL     OW82387  10.038   6.925   3.805  0.4488 -0.1849  0.1195
25859SOL    HW182388  10.104   6.965   3.861  0.8153  0.2360 -0.6011
25859SOL    HW282389  10.033   6.834   3.834  1.1169 -0.1375  0.3872
25860SOL     OW82390   5.244   0.120  11.058  0.2251  0.1110 -0.4522
25860SOL    HW182391   5.188   0.053  11.019  0.9405 -1.1302  0.5807
25860SOL    HW282392   5.183   0.190  11.084 -0.4971  0.0108 -1.7805
25861SOL     OW82393   0.458  11.224  10.402 -0.0121  0.5104  0.1088
25861SOL    HW182394   0.500  11.176  10.473 -1.8571 -0.7770  0.4259
25861SOL    HW282395   0.451  11.314  10.434  2.4911  0.8168 -0.0246
25862SOL     OW82396   4.421   3.906   5.027  0.8146 -0.0521 -0.2504
25862SOL    HW182397   4.444   3.968   5.097 -0.5250 -0.9011  0.9959
25862SOL    HW282398   4.485   3.835   5.037  1.0728  0.1619 -0.3606
25863SOL     OW82399   9.347   8.975   5.367 -0.1323  0.2552  0.2307
25863SOL    HW182400   9.368   9.037   5.298  2.5203 -0.3524  0.3875
25863SOL    HW282401   9.303   9.027   5.434 -1.0770  1.2082 -1.0737
25864SOL     OW82402   6.894   9.505   0.460  0.1921  0.5232  0.0074
25864SOL    HW182403   6.809   9.550   0.461 -0.9378 -1.4526  0.8994
25864SOL    HW282404   6.924   9.511   0.551 -1.1239 -2.3509  0.7495
25865SOL     OW82405   2.274  10.958  10.005  0.1279 -0.0562 -0.1522
25865SOL    HW182406   2.318  10.890  10.055  0.3783  0.0183 -0.2679
25865SOL    HW282407   2.290  11.038  10.054 -1.1381 -0.2280  0.6130
25866SOL     OW82408   8.859   9.470   3.779 -0.4294 -0.3823 -0.5794
25866SOL    HW182409   8.858   9.452   3.685 -0.2578 -1.0580 -0.4563
25866SOL    HW282410   8.901   9.394   3.818 -2.2275 -1.0128  0.2409
25867SOL     OW82411   0.551   5.877   2.019  0.5887  0.7426 -0.0161
25867SOL    HW182412   0.630   5.855   1.969 -0.1225 -0.4121 -0.6734
25867SOL    HW282413   0.512   5.950   1.971  0.2894  0.1029 -0.7712
25868SOL     OW82414   5.133  11.465   1.904  0.1487 -0.1059 -0.6712
25868SOL    HW182415   5.066  11.408   1.865  1.2600 -1.4104 -0.7231
25868SOL    HW282416   5.098  11.486   1.991 -1.0521  0.5334 -1.2885
25869SOL     OW82417   0.642   5.996  10.677 -0.0982  0.0440 -0.1227
25869SOL    HW182418   0.672   6.087  10.674 -0.5539  0.2138  0.3392
25869SOL    HW282419   0.677   5.962  10.760 -1.6399  0.4246  0.7302
25870SOL     OW82420   9.194   4.480   4.833 -0.1305  0.2727 -0.6548
25870SOL    HW182421   9.158   4.430   4.906 -0.2935  0.4763 -0.5947
25870SOL    HW282422   9.286   4.453   4.828 -0.5700 -1.1756 -1.5827
25871SOL     OW82423   0.310   6.685   8.023 -0.4612  0.4593  0.2919
25871SOL    HW182424   0.322   6.597   7.987  0.2095  0.5476  0.2847
25871SOL    HW282425   0.310   6.673   8.117  1.3432  0.6276  0.3547
25872SOL     OW82426  10.103   5.015   9.191  0.3026 -0.4182  0.3256
25872SOL    HW182427  10.064   5.036   9.276 -1.1229  2.2718 -0.8608
25872SOL    HW282428  10.034   4.968   9.145 -0.4098  1.4253 -0.5940
25873SOL     OW82429   3.377   2.117  10.037 -0.1726 -0.1984  0.1046
25873SOL    HW182430   3.377   2.078  10.125 -1.5479  0.6050  0.4879
25873SOL    HW282431   3.421   2.051   9.982  1.2101 -0.4771  1.4645
25874SOL     OW82432   0.380   3.899   2.889 -0.1247  0.3734  0.0738
25874SOL    HW182433   0.399   3.960   2.961 -2.6414  0.4088  0.8382
25874SOL    HW282434   0.448   3.916   2.824  0.5647  2.4243  1.2282
25875SOL     OW82435   2.394   2.295   0.607  0.4734 -0.3895 -0.0935
25875SOL    HW182436   2.334   2.241   0.556 -0.2258  0.0327  0.2777
25875SOL    HW282437   2.369   2.282   0.698  0.5746  0.2153  0.0308
25876SOL     OW82438   1.722   3.946   4.290 -0.6785  0.3119  0.5827
25876SOL    HW182439   1.791   3.917   4.350  0.6344  0.6474 -0.7185
25876SOL    HW282440   1.721   4.041   4.300 -0.0697  0.4208 -0.3010
25877SOL     OW82441   0.380   1.541   3.697  0.6459 -0.9746 -0.8448
25877SOL    HW182442   0.315   1.600   3.659  1.7917  1.3176  0.5771
25877SOL    HW282443   0.461   1.563   3.651  1.4876 -0.0203  1.0136
25878SOL     OW82444  10.738  11.373   8.042 -0.1311 -0.1797  0.7956
25878SOL    HW182445  10.809  11.343   7.985 -1.1125  0.8694 -1.0746
25878SOL    HW282446  10.734  11.307   8.112  1.9555 -0.8271  0.3816
25879SOL     OW82447   9.229   5.803   0.222 -0.3891  0.3185  0.2229
25879SOL    HW182448   9.198   5.774   0.136 -0.6094  0.3015  0.3072
25879SOL    HW282449   9.159   5.777   0.283 -0.7415  1.3248  0.2600
25880SOL     OW82450   0.524  11.140   1.701  0.3736 -0.5474 -0.4548
25880SOL    HW182451   0.447  11.087   1.684 -0.0328  0.0199 -0.3958
25880SOL    HW282452   0.497  11.203   1.768  0.6699  0.1234 -0.9498
25881SOL     OW82453   3.841   0.517   6.883 -0.1204 -0.5126  0.3091
25881SOL    HW182454   3.782   0.456   6.926  1.2684 -0.3362  2.6224
25881SOL    HW282455   3.902   0.544   6.951 -0.2198  2.9296 -0.8009
25882SOL     OW82456   6.026  11.135   5.945 -0.4801  0.0085 -0.5470
25882SOL    HW182457   5.965  11.181   5.888  0.0218  0.6443 -0.5837
25882SOL    HW282458   5.992  11.150   6.033  0.4440  1.7093 -0.4204
25883SOL     OW82459   3.958   8.608   0.746  0.4692  0.2615  0.4104
25883SOL    HW182460   3.939   8.680   0.685 -1.9518 -0.0121  0.7299
25883SOL    HW282461   3.947   8.647   0.833  3.2300  0.4730  0.7531
25884SOL     OW82462  12.523   9.904   8.661  0.6140  0.2147 -0.2222
25884SOL    HW182463  12.507   9.920   8.568 -0.2609 -0.4269 -0.1921
25884SOL    HW282464  12.610   9.866   8.664  0.4112 -0.3164 -0.8462
25885SOL     OW82465   3.804   9.060  10.227  0.3293 -0.2744  0.3411
25885SOL    HW182466   3.848   9.145  10.230 -1.5324  0.7577  0.3193
25885SOL    HW282467   3.808   9.028  10.317  0.7901 -0.0242  0.4129
25886SOL     OW82468   6.689   5.810  10.041  0.9512  0.5477 -0.2868
25886SOL    HW182469   6.609   5.835   9.995  0.4718 -1.2755 -0.5406
25886SOL    HW282470   6.748   5.779   9.972  0.8853 -0.5642  0.1407
25887SOL     OW82471   7.821   2.013  11.821  0.2321 -0.1762  0.5535
25887SOL    HW182472   7.787   1.985  11.906  2.6795 -0.6452  1.4600
25887SOL    HW282473   7.771   1.960  11.758  0.2353 -1.8549  1.8664
25888SOL     OW82474   7.165   8.179   9.821  0.7396 -0.0499 -0.0404
25888SOL    HW182475   7.129   8.268   9.818 -1.9711 -1.0779 -0.3772
25888SOL    HW282476   7.096   8.126   9.861  1.7560 -2.2545 -1.0238
25889SOL     OW82477   9.870   7.759   7.451 -0.1705  0.4105 -0.0911
25889SOL    HW182478   9.926   7.800   7.386 -0.2586  2.0796  0.8361
25889SOL    HW282479   9.921   7.686   7.485  0.7364  0.8612 -0.4680
25890SOL     OW82480   3.870   4.380   4.379  0.2248 -0.3994 -0.7104
25890SOL    HW182481   3.783   4.395   4.342 -0.5466  2.6928  1.9779
25890SOL    HW282482   3.928   4.436   4.328 -0.1360  0.7792  0.1472
25891SOL     OW82483  11.604   5.388   3.289  0.4219 -0.7175  0.3406
25891SOL    HW182484  11.517   5.429   3.287  0.0190 -1.5159 -2.4191
25891SOL    HW282485  11.615   5.362   3.381 -1.9646  0.0042  0.9246
25892SOL     OW82486   8.698   6.169  11.425 -0.2103  0.2222  0.0782
25892SOL    HW182487   8.696   6.243  11.485 -1.0263  0.6300 -0.4387
25892SOL    HW282488   8.609   6.135  11.425  0.2809 -1.1691  0.7881
25893SOL     OW82489  12.176   1.450   9.709 -0.5660  0.7778 -0.6855
25893SOL    HW182490  12.122   1.423   9.635 -0.4566 -0.1227 -0.4475
25893SOL    HW282491  12.136   1.531   9.739 -1.5265  0.3623 -0.7962
25894SOL     OW82492   5.021  11.606   4.276 -0.8645  0.2120 -0.3333
25894SOL    HW182493   4.950  11.652   4.321 -2.3856 -0.6898 -1.7269
25894SOL    HW282494   5.070  11.676   4.233 -1.9104  0.7174 -0.7365
25895SOL     OW82495   8.094   3.495   9.573 -0.1539  0.8261  0.2468
25895SOL    HW182496   8.100   3.463   9.663 -0.4993  2.0700  0.7269
25895SOL    HW282497   8.079   3.589   9.582 -1.0804  0.8309 -1.0970
25896SOL     OW82498   3.777   3.381   5.773  0.3607  0.6132 -0.2265
25896SOL    HW182499   3.743   3.300   5.813 -1.5047  0.3996 -2.0866
25896SOL    HW282500   3.783   3.442   5.846  0.2809 -0.7165  0.9541
25897SOL     OW82501   7.883  10.712   1.230  0.1352 -0.5482  0.3092
25897SOL    HW182502   7.792  10.713   1.201  0.3497  0.7023 -0.3928
25897SOL    HW282503   7.885  10.647   1.300 -1.4854 -0.0171  0.9076
25898SOL     OW82504   4.103  12.086   7.824  0.0015 -0.4048  0.1076
25898SOL    HW182505   4.105  12.016   7.759  0.8384 -1.7768  1.5409
25898SOL    HW282506   4.195  12.113   7.833 -0.2229  0.3774  0.0810
25899SOL     OW82507   2.238   0.780   6.655 -0.0998  0.1338 -0.2597
25899SOL    HW182508   2.275   0.868   6.642  1.1652 -0.3362  0.0118
25899SOL    HW282509   2.312   0.721   6.642 -0.3010 -0.7487  2.1441
25900SOL     OW82510   5.284   0.364   0.798 -0.0587  0.4531 -0.0489
25900SOL    HW182511   5.328   0.329   0.875 -1.7024 -0.5826  0.4725
25900SOL    HW282512   5.352   0.369   0.731  1.0052 -0.3234  0.9466
25901SOL     OW82513   9.015   2.343   6.400 -0.0123  0.0369 -1.0726
25901SOL    HW182514   8.983   2.334   6.310 -1.6441  0.3768 -0.5575
25901SOL    HW282515   8.936   2.358   6.452  1.0340  1.1900  0.2453
25902SOL     OW82516   8.021   7.235   5.455  0.2403 -0.5824  0.2067
25902SOL    HW182517   8.082   7.248   5.383  0.5745 -0.4682  0.5098
25902SOL    HW282518   7.935   7.253   5.417  0.6003  2.0762  0.4765
25903SOL     OW82519   7.874   8.384   4.418  0.4349  0.0515 -0.1202
25903SOL    HW182520   7.813   8.449   4.384  0.7051  1.2103  1.4891
25903SOL    HW282521   7.848   8.372   4.509  0.9099 -1.4955 -0.1697
25904SOL     OW82522   5.267   3.720   6.179 -0.6398 -0.1231  0.1668
25904SOL    HW182523   5.220   3.797   6.210 -2.0636 -0.4127 -1.1431
25904SOL    HW282524   5.244   3.714   6.086  3.4367  0.7795 -1.1467
25905SOL     OW82525  10.118  11.239   7.854 -0.2333 -0.2681 -0.2075
25905SOL    HW182526  10.099  11.161   7.907 -0.0794 -1.2861 -1.5886
25905SOL    HW282527  10.213  11.250   7.861 -0.4897  1.2020  1.8156
25906SOL     OW82528   7.946   6.145  11.840 -0.1509  0.1653  0.5015
25906SOL    HW182529   7.994   6.127  11.921  1.2995  1.1936 -0.0731
25906SOL    HW282530   7.938   6.060  11.797 -1.4134 -0.4803  1.9466
25907SOL     OW82531  11.015  11.774  10.628 -0.6196 -0.0426  0.6634
25907SOL    HW182532  10.945  11.798  10.568  1.7447  2.0525 -1.4426
25907SOL    HW282533  11.045  11.689  10.596 -0.2963  0.4187 -0.3023
25908SOL     OW82534   4.077   9.346   2.097  0.1260  0.2897 -0.0869
25908SOL    HW182535   4.125   9.419   2.138 -1.5681  1.7495 -0.6185
25908SOL    HW282536   4.062   9.285   2.170  1.9638  0.1797  0.2762
25909SOL     OW82537   7.860   0.626   0.362  0.3927 -0.4802  0.1706
25909SOL    HW182538   7.841   0.697   0.423 -0.4292  0.7834 -1.4390
25909SOL    HW282539   7.874   0.549   0.417  0.9972  0.8452  1.9692
25910SOL     OW82540   9.057  11.944   8.241 -0.1553 -0.0263 -0.1300
25910SOL    HW182541   8.975  11.932   8.193 -0.5303 -0.9983  0.7200
25910SOL    HW282542   9.117  11.880   8.203  0.4126  1.0457 -1.1202
25911SOL     OW82543   6.767   0.008   4.412 -0.3311 -0.0267 -0.1206
25911SOL    HW182544   6.706   0.081   4.422 -1.4782 -0.6118 -2.2724
25911SOL    HW282545   6.852   0.049   4.395 -1.5292  1.0585 -4.9770
25912SOL     OW82546  11.018   4.248   0.366 -0.6463 -0.3242  0.1862
25912SOL    HW182547  11.059   4.315   0.420 -0.4105 -0.1777 -0.1641
25912SOL    HW282548  10.944   4.293   0.324 -0.3699 -0.2247 -0.2019
25913SOL     OW82549   0.190   3.278   3.890  0.3347 -0.2799  0.3451
25913SOL    HW182550   0.241   3.210   3.845  0.5499 -0.1083  0.3300
25913SOL    HW282551   0.255   3.326   3.942  0.1382 -0.2689  0.5827
25914SOL     OW82552   9.571  10.996   3.477  0.2258 -0.7390 -0.0832
25914SOL    HW182553   9.547  10.911   3.514 -0.5724 -0.7286 -0.5506
25914SOL    HW282554   9.496  11.020   3.422  0.0258  0.7059  0.7836
25915SOL     OW82555   0.932   5.151   9.468  0.1000 -0.1984  0.1165
25915SOL    HW182556   0.868   5.219   9.446 -0.5446 -0.8748 -0.1414
25915SOL    HW282557   1.015   5.198   9.475 -0.1381  0.4494 -1.1309
25916SOL     OW82558   1.596   3.705   4.189  0.7827 -0.5300 -0.6136
25916SOL    HW182559   1.550   3.721   4.107  0.8796  0.2705 -0.5244
25916SOL    HW282560   1.612   3.793   4.224  1.0647 -0.8546  0.0782
25917SOL     OW82561   3.996  10.749   1.282  0.7945  0.0754 -0.2817
25917SOL    HW182562   4.030  10.661   1.297 -1.8367 -1.1395 -0.9733
25917SOL    HW282563   4.072  10.806   1.297  2.2765 -2.1604  1.4541
25918SOL     OW82564  11.271   2.278   3.219 -0.0933  0.3098 -0.1688
25918SOL    HW182565  11.354   2.262   3.174 -0.7520 -1.5048 -0.8444
25918SOL    HW282566  11.283   2.240   3.306  0.2149  1.2411  0.2034
25919SOL     OW82567   6.216   8.857   0.396  0.2640 -0.2022 -0.3484
25919SOL    HW182568   6.264   8.913   0.335  2.5004 -0.1012  1.3465
25919SOL    HW282569   6.267   8.776   0.399  0.5003 -0.0449  1.6167
25920SOL     OW82570   7.322   3.576   9.227  0.3241  0.3589 -0.0321
25920SOL    HW182571   7.268   3.499   9.244  0.5777  0.0656 -0.5181
25920SOL    HW282572   7.406   3.540   9.197  0.3881  0.8255 -0.4245
25921SOL     OW82573   3.043   9.744   1.025 -0.5678 -0.2760  0.4422
25921SOL    HW182574   3.067   9.826   0.981  1.8497 -0.6282  0.9845
25921SOL    HW282575   3.042   9.679   0.955 -2.1990  0.0961  0.0625
25922SOL     OW82576   3.323  10.488   4.425 -0.2732  0.5756 -0.1737
25922SOL    HW182577   3.376  10.538   4.362  1.6022 -1.0445 -0.0129
25922SOL    HW282578   3.344  10.526   4.510 -0.3355  0.7530 -0.2386
25923SOL     OW82579   7.462   1.419   9.631 -0.0021 -0.4183  0.4234
25923SOL    HW182580   7.369   1.433   9.648  0.2366  0.6467  0.9412
25923SOL    HW282581   7.468   1.415   9.535 -0.2967  1.9907  0.2210
25924SOL     OW82582   8.902  11.951  12.021 -0.0595  0.5302  0.3348
25924SOL    HW182583   8.994  11.948  11.995 -0.9268 -0.1707 -3.2435
25924SOL    HW282584   8.879  11.859  12.037  0.1228  0.8324  2.5948
25925SOL     OW82585   9.813   7.537   6.487 -0.6857 -0.8598 -0.2680
25925SOL    HW182586   9.907   7.556   6.484 -0.6667 -0.7832  0.6333
25925SOL    HW282587   9.775   7.612   6.533 -1.0847 -1.2491  0.0409
25926SOL     OW82588   6.663   2.107   2.688  0.3506  0.1873 -0.4287
25926SOL    HW182589   6.608   2.029   2.686 -1.8880  1.6510 -2.9196
25926SOL    HW282590   6.609   2.174   2.729  1.5895  0.8808  0.1338
25927SOL     OW82591   4.430   8.558  11.415 -0.4928  0.1405  0.2743
25927SOL    HW182592   4.358   8.564  11.478 -0.6320 -0.0934  0.1381
25927SOL    HW282593   4.508   8.550  11.469 -0.5329  0.7072  0.4304
25928SOL     OW82594   7.823   9.786   3.344 -0.0377 -0.0624 -0.1299
25928SOL    HW182595   7.825   9.807   3.437  0.7928  1.9697 -0.5461
25928SOL    HW282596   7.896   9.836   3.307 -0.2823 -0.9221 -1.8543
25929SOL     OW82597   8.912   4.343   8.673  0.2506 -0.8464 -0.0157
25929SOL    HW182598   8.874   4.430   8.683  1.3746 -0.3789  0.3815
25929SOL    HW282599   8.858   4.301   8.606 -0.1222  0.2693 -0.4455
25930SOL     OW82600   6.910   0.834   0.681 -0.3646 -0.2419  0.1066
25930SOL    HW182601   6.974   0.810   0.749  2.0599  0.8692 -1.6489
25930SOL    HW282602   6.864   0.752   0.663 -0.2391 -0.8442  2.1963
25931SOL     OW82603   1.216   7.772   4.437 -0.1583  0.4810 -0.3404
25931SOL    HW182604   1.230   7.697   4.380 -0.1442  0.3684 -0.1883
25931SOL    HW282605   1.214   7.735   4.526  0.3350  0.7253 -0.2263
25932SOL     OW82606   5.619   6.720   7.639 -0.1755 -0.0856 -0.4608
25932SOL    HW182607   5.632   6.705   7.545 -0.6802  0.7119 -0.6719
25932SOL    HW282608   5.526   6.739   7.647 -0.3318 -1.0809  0.3487
25933SOL     OW82609   1.989   8.987   1.762  0.5269 -0.2302 -0.5879
25933SOL    HW182610   1.938   8.946   1.691 -0.5916 -1.4629  0.8625
25933SOL    HW282611   1.996   8.919   1.829 -0.1651  1.4748  1.3257
25934SOL     OW82612   1.721   6.978   6.027  0.0738  0.3804 -0.2066
25934SOL    HW182613   1.750   6.926   6.103  1.8878  1.0425 -0.3875
25934SOL    HW282614   1.753   6.929   5.951 -0.1373  0.6445 -0.4670
25935SOL     OW82615  10.478   2.137   2.211  1.1069  0.0162 -0.1743
25935SOL    HW182616  10.407   2.165   2.154  1.4819 -0.2450 -0.7750
25935SOL    HW282617  10.437   2.073   2.270  0.7008  0.3435 -0.1002
25936SOL     OW82618   8.891   2.451  11.396 -0.1063  0.5863 -0.1815
25936SOL    HW182619   8.827   2.385  11.425  0.3613 -0.3062 -1.1598
25936SOL    HW282620   8.961   2.401  11.356  0.0760  1.7065 -1.3094
25937SOL     OW82621   2.310   0.967   6.926  0.4017 -0.5789 -0.6883
25937SOL    HW182622   2.215   0.978   6.923  0.4724 -0.1412 -2.1523
25937SOL    HW282623   2.339   0.982   6.836  1.7500 -1.8286 -0.5015
25938SOL     OW82624   0.348   6.007   7.243  0.3026 -0.1208 -0.5977
25938SOL    HW182625   0.337   5.938   7.177 -1.9796 -0.7174  0.2772
25938SOL    HW282626   0.372   6.085   7.193  0.5540 -1.0007 -1.8976
25939SOL     OW82627   0.288   9.975   0.582 -0.6656 -0.4408  0.0271
25939SOL    HW182628   0.209  10.027   0.593 -0.8606 -0.3272 -1.7479
25939SOL    HW282629   0.299   9.965   0.488  1.0809 -1.0107  0.2396
25940SOL     OW82630   4.542   1.156   1.478 -0.5099  0.0070 -0.2547
25940SOL    HW182631   4.460   1.172   1.431 -0.0612  3.3947 -0.0846
25940SOL    HW282632   4.564   1.239   1.519  2.1322 -1.2702  1.2105
25941SOL     OW82633   0.401   4.096   3.085  0.2282 -0.2361  0.0701
25941SOL    HW182634   0.470   4.158   3.108 -0.6580  0.9787 -0.4528
25941SOL    HW282635   0.351   4.084   3.166  0.3956 -0.2634  0.1694
25942SOL     OW82636  11.897   4.344  10.344 -0.3953  0.2817 -0.0099
25942SOL    HW182637  11.821   4.290  10.364 -0.4244  0.3645  0.1093
25942SOL    HW282638  11.933   4.307  10.264  0.3827 -0.7757  0.7945
25943SOL     OW82639  11.396   0.063   5.881 -0.2673  0.6037  0.8448
25943SOL    HW182640  11.345   0.014   5.945  0.1373  1.8230  2.1799
25943SOL    HW282641  11.408   0.149   5.922  1.6256  0.8109 -0.0366
25944SOL     OW82642  11.470   4.844  12.564 -0.1078  0.4335 -0.2820
25944SOL    HW182643  11.558   4.869  12.589 -0.4275  0.5583  0.7493
25944SOL    HW282644  11.481   4.762  12.516  0.6704  1.0728 -1.2494
25945SOL     OW82645   9.451   7.392   9.300 -0.0310 -0.3071 -0.1498
25945SOL    HW182646   9.491   7.389   9.387 -0.6649 -1.7267  0.1223
25945SOL    HW282647   9.517   7.434   9.245  0.0419  1.4219  1.1579
25946SOL     OW82648   0.705   4.287   5.135 -0.6081 -0.1770  0.4447
25946SOL    HW182649   0.682   4.259   5.224  1.1024  0.7457  1.2172
25946SOL    HW282650   0.632   4.344   5.109 -1.8448 -1.5955  0.6352
25947SOL     OW82651   5.082  10.329  12.540  0.3275  1.2050  0.1020
25947SOL    HW182652   5.107  10.406  12.488  3.4952 -1.7603 -3.3710
25947SOL    HW282653   5.049  10.266  12.476 -1.8132 -0.5700  2.7363
25948SOL     OW82654   9.220   8.393  12.030  0.1981 -0.1813 -0.1079
25948SOL    HW182655   9.207   8.332  12.103  1.0146 -0.7355 -0.4148
25948SOL    HW282656   9.169   8.357  11.958 -0.1235  0.0439  0.0041
25949SOL     OW82657   0.465  10.247  10.069 -0.5591 -0.0220 -0.0845
25949SOL    HW182658   0.389  10.225  10.015 -1.0480 -0.0502  0.6018
25949SOL    HW282659   0.538  10.202  10.028 -0.9781 -0.2688 -0.5610
25950SOL     OW82660  12.298   4.968   3.863 -0.6088 -0.0428 -0.0911
25950SOL    HW182661  12.302   4.935   3.773 -1.4821  0.0980 -0.1894
25950SOL    HW282662  12.372   4.926   3.907  1.0755  1.4513 -1.3621
25951SOL     OW82663   4.031  12.347   5.346  0.4075  0.4185  0.2114
25951SOL    HW182664   4.048  12.440   5.360 -1.1734  0.8621 -0.5444
25951SOL    HW282665   3.964  12.325   5.411 -0.9691  0.4391 -1.1417
25952SOL     OW82666   5.814   7.004  11.442  0.2720  0.2867 -0.8772
25952SOL    HW182667   5.881   7.072  11.454  1.1855 -0.1617 -2.9447
25952SOL    HW282668   5.735   7.041  11.481  1.4667  1.2146  0.8274
25953SOL     OW82669   1.118   0.036  10.549  0.1059 -0.2669  0.1491
25953SOL    HW182670   1.152  -0.039  10.599  0.2915 -1.4040 -1.5918
25953SOL    HW282671   1.046  -0.000  10.498 -1.6456  1.4014  1.3260
25954SOL     OW82672   5.869   9.263   0.711  0.0252  0.8605  0.4657
25954SOL    HW182673   5.840   9.327   0.646  0.3470  2.1322  1.5381
25954SOL    HW282674   5.787   9.224   0.744 -0.1019 -0.6101 -1.4403
25955SOL     OW82675   9.843   6.599   5.708 -0.0311  0.0085 -0.0720
25955SOL    HW182676   9.771   6.642   5.661 -0.6129 -0.3935  0.4251
25955SOL    HW282677   9.857   6.653   5.785 -0.1558 -0.1919  0.0945
25956SOL     OW82678   6.512   4.138   3.227 -0.0861  0.3916 -0.1536
25956SOL    HW182679   6.568   4.119   3.303  0.9319  0.7644 -0.7991
25956SOL    HW282680   6.456   4.210   3.256  0.2077  0.4499  0.2807
25957SOL     OW82681   7.346   2.231   5.197  0.4349  0.4587  0.0718
25957SOL    HW182682   7.298   2.311   5.176 -0.5775  0.4878  2.1534
25957SOL    HW282683   7.300   2.162   5.148 -1.1047  0.6597  1.1405
25958SOL     OW82684   3.996   5.082   5.002 -0.5279  0.4080 -0.2546
25958SOL    HW182685   4.077   5.124   4.972 -0.6451  0.1452 -0.9409
25958SOL    HW282686   4.023   5.030   5.078  0.8423 -3.0335 -2.8250
25959SOL     OW82687   2.675   2.347   0.620 -0.1836  0.5419 -0.9775
25959SOL    HW182688   2.682   2.425   0.674 -1.2318 -0.5082  0.7550
25959SOL    HW282689   2.582   2.341   0.598 -0.1886 -0.4602 -0.7115
25960SOL     OW82690   7.771  11.178  12.411 -0.0501 -0.1305  0.0361
25960SOL    HW182691   7.847  11.128  12.382  0.8969  1.4631 -0.3521
25960SOL    HW282692   7.768  11.253  12.353 -2.3318 -0.4593 -0.3622
25961SOL     OW82693   7.968   8.197   5.992 -0.2736 -0.1975  0.9660
25961SOL    HW182694   7.912   8.131   6.033  0.7898 -3.1349 -1.8205
25961SOL    HW282695   8.052   8.188   6.036 -0.6887  0.9445  2.0506
25962SOL     OW82696   7.932   2.351  10.888 -0.4784 -0.1262  0.4879
25962SOL    HW182697   7.969   2.433  10.921 -0.7769  0.3274 -0.2858
25962SOL    HW282698   7.919   2.298  10.967 -0.1964  0.5267  0.9901
25963SOL     OW82699   4.351   6.187   1.061 -0.4563  0.3682  0.1475
25963SOL    HW182700   4.384   6.265   1.016  1.0973  0.3914  1.2151
25963SOL    HW282701   4.256   6.193   1.054 -0.3245  1.7473 -0.7973
25964SOL     OW82702   5.260   6.295   1.105 -0.2051  0.2239  0.2707
25964SOL    HW182703   5.304   6.346   1.172  1.6301  1.6106 -1.8668
25964SOL    HW282704   5.263   6.350   1.027 -0.2824 -2.1765 -1.5311
25965SOL     OW82705  10.152   0.108   8.568  0.1762 -0.5450 -0.2549
25965SOL    HW182706  10.137   0.084   8.477 -1.9719 -1.0727  0.1893
25965SOL    HW282707  10.132   0.202   8.571  0.2552 -0.5257 -0.3088
25966SOL     OW82708   6.325   8.547  12.576  0.1573  0.2367  0.9789
25966SOL    HW182709   6.386   8.584  12.512  0.0761  0.3089  0.9432
25966SOL    HW282710   6.380   8.495  12.634  0.0468 -1.0604 -0.0386
25967SOL     OW82711  10.195   5.729   8.932  0.0735 -0.2863  0.6450
25967SOL    HW182712  10.142   5.746   8.854 -1.1869 -0.6194  1.4017
25967SOL    HW282713  10.284   5.752   8.906 -0.0382 -1.8245 -1.3935
25968SOL     OW82714   8.152  11.010   3.550 -0.1035 -0.5960 -0.4326
25968SOL    HW182715   8.089  10.939   3.545 -0.6936 -0.0398 -1.0407
25968SOL    HW282716   8.149  11.052   3.464 -1.2662  1.4235  0.5020
25969SOL     OW82717   3.790   4.241   9.425  0.6812  0.1522  0.2477
25969SOL    HW182718   3.808   4.173   9.490  2.7359 -0.4457 -0.8508
25969SOL    HW282719   3.861   4.304   9.436  0.0116  1.0153 -0.2014
25970SOL     OW82720   7.786   7.369   7.645  1.0201  0.1441 -0.2342
25970SOL    HW182721   7.861   7.310   7.656 -1.3324 -3.8342 -2.9262
25970SOL    HW282722   7.718   7.332   7.702 -0.3209  0.7475 -1.3973
25971SOL     OW82723   1.474   6.172   9.301  0.0391  0.1331  0.3612
25971SOL    HW182724   1.427   6.244   9.343  0.9049  1.0760 -0.2098
25971SOL    HW282725   1.416   6.145   9.230 -0.8684 -0.6266  1.3659
25972SOL     OW82726   9.063  11.930   7.306  0.5954  0.1350  0.3247
25972SOL    HW182727   9.135  11.872   7.282 -0.7013 -1.1559 -0.6854
25972SOL    HW282728   9.051  11.986   7.230  1.4980  1.4090  1.0928
25973SOL     OW82729  11.091   3.820   2.523 -0.1156  0.1944 -0.1271
25973SOL    HW182730  11.090   3.773   2.607  0.9905  0.3603 -0.0004
25973SOL    HW282731  11.044   3.901   2.541 -0.2179  0.0582  0.2370
25974SOL     OW82732   8.926   8.012   3.464  0.4849 -0.4460  0.0665
25974SOL    HW182733   8.849   7.992   3.517  0.3773  0.0561  0.1060
25974SOL    HW282734   8.908   7.972   3.379  0.4396 -0.8271  0.2531
25975SOL     OW82735   5.033   9.429  10.388 -0.1529  0.0230 -0.2801
25975SOL    HW182736   5.017   9.403  10.479  1.5896 -0.4304 -0.0725
25975SOL    HW282737   4.946   9.441  10.351 -0.9816 -2.0981  0.8015
25976SOL     OW82738   3.078   2.681  10.093 -0.2224  0.4183  0.2982
25976SOL    HW182739   3.103   2.704  10.182  0.5697  0.9688 -0.0497
25976SOL    HW282740   2.986   2.704  10.086 -0.2542  0.4862  0.9333
25977SOL     OW82741   8.677   5.172   5.183 -0.4538  0.0399  0.0623
25977SOL    HW182742   8.597   5.212   5.216 -1.3614 -1.3199 -0.3567
25977SOL    HW282743   8.727   5.148   5.261 -1.4261 -0.9163  0.4235
25978SOL     OW82744   2.852   7.620   9.078 -0.8433  0.6279  0.1107
25978SOL    HW182745   2.885   7.705   9.048  1.3309 -0.6212 -1.2758
25978SOL    HW282746   2.853   7.627   9.174  3.2872  0.9040  0.2328
25979SOL     OW82747   6.677   0.698  12.377 -0.3547 -0.2131  0.1896
25979SOL    HW182748   6.676   0.720  12.284 -0.1483  1.1293  0.4903
25979SOL    HW282749   6.652   0.779  12.422  0.7590 -0.4880  1.3715
25980SOL     OW82750   7.549   2.696   9.264  0.0982  0.1542  0.1050
25980SOL    HW182751   7.583   2.632   9.201 -1.5980 -0.7155  0.0309
25980SOL    HW282752   7.551   2.780   9.216  2.3506  0.2446  0.2110
25981SOL     OW82753   9.272   8.730   5.842 -0.6101  0.7790  0.2312
25981SOL    HW182754   9.247   8.698   5.755 -2.1971  2.2229  0.1034
25981SOL    HW282755   9.352   8.781   5.827 -0.9125  1.0798 -0.3921
25982SOL     OW82756   0.501   2.615   6.208  0.2243  0.2580 -0.2015
25982SOL    HW182757   0.596   2.619   6.220  0.3606  1.0330 -1.3014
25982SOL    HW282758   0.466   2.683   6.266  0.4048  0.3728 -0.2263
25983SOL     OW82759   9.268   5.395   6.904 -0.0805 -0.7941 -0.2947
25983SOL    HW182760   9.233   5.406   6.816  1.1424  1.6337 -0.5708
25983SOL    HW282761   9.195   5.418   6.962 -0.0848  0.5421 -0.7831
25984SOL     OW82762   3.285   1.066   7.646  1.0235  0.9805  0.8066
25984SOL    HW182763   3.258   1.140   7.591 -1.5907  0.2525  0.9531
25984SOL    HW282764   3.315   1.106   7.727 -0.6507  1.9359  1.0086
25985SOL     OW82765   3.121   2.493  10.856  0.2460 -0.2348  0.4870
25985SOL    HW182766   3.199   2.540  10.827 -2.0054  2.3164 -2.0682
25985SOL    HW282767   3.117   2.416  10.800 -0.7267  1.3879 -1.8079
25986SOL     OW82768   9.833   5.324   6.076 -0.0497 -0.1350 -0.0598
25986SOL    HW182769   9.925   5.353   6.070 -0.4721  1.4835  0.6428
25986SOL    HW282770   9.834   5.254   6.141  0.7289 -0.3503 -0.2879
25987SOL     OW82771   6.152  10.212  10.203 -0.5462  0.4293  0.2415
25987SOL    HW182772   6.154  10.218  10.108 -0.3555 -1.4004  0.0845
25987SOL    HW282773   6.236  10.248  10.231 -1.0809  2.0610 -0.1676
25988SOL     OW82774   1.170   5.972  11.260 -0.4408 -0.4363  0.4471
25988SOL    HW182775   1.078   5.994  11.273 -1.1884 -3.4114  0.7774
25988SOL    HW282776   1.217   6.032  11.319 -2.3558 -0.6115  2.2724
25989SOL     OW82777   6.849   8.505   2.559 -0.1897  0.2432 -0.2670
25989SOL    HW182778   6.858   8.557   2.639 -1.2275  1.0213 -0.6239
25989SOL    HW282779   6.789   8.435   2.584 -0.0454  0.1455 -0.1990
25990SOL     OW82780  11.820   1.271   3.135  0.0107  0.2467 -0.0148
25990SOL    HW182781  11.843   1.189   3.178 -1.0388  0.8051  1.7222
25990SOL    HW282782  11.814   1.249   3.042 -3.2109 -2.3912  0.6315
25991SOL     OW82783   8.511   6.228   0.241 -0.0461  0.3426  0.2658
25991SOL    HW182784   8.442   6.267   0.187 -1.2898 -1.1426  0.7303
25991SOL    HW282785   8.497   6.264   0.328  0.6922  1.1449  0.0742
25992SOL     OW82786   7.658   8.920   8.221  0.6458  0.9311 -0.7511
25992SOL    HW182787   7.664   8.913   8.316  0.4050 -0.1075 -0.8024
25992SOL    HW282788   7.566   8.907   8.201  1.0258 -1.2220 -1.2823
25993SOL     OW82789  12.062   1.212   8.097 -0.1463  0.5231  0.1960
25993SOL    HW182790  12.100   1.284   8.046  0.0895  0.6642  0.5679
25993SOL    HW282791  11.985   1.250   8.139 -0.8463  0.1787 -0.7335
25994SOL     OW82792   2.009   2.793   3.470 -0.2008  0.4724 -0.4206
25994SOL    HW182793   2.054   2.855   3.413 -0.6135  0.7275 -0.4713
25994SOL    HW282794   1.937   2.758   3.416  0.1231 -0.1686 -0.4475
25995SOL     OW82795   7.973   7.012   0.465 -0.0627 -0.2469  0.3462
25995SOL    HW182796   8.006   7.050   0.383 -1.8153  0.3485 -0.1222
25995SOL    HW282797   7.958   7.087   0.522  2.8573 -0.7425  1.9860
25996SOL     OW82798   4.252  12.574   8.714 -0.4209  0.3121 -0.0023
25996SOL    HW182799   4.294  12.507   8.767  1.0526  0.4367 -0.9707
25996SOL    HW282800   4.161  12.574   8.744  0.0860 -0.4492  1.6617
25997SOL     OW82801   7.687  12.044  10.453  0.5251  0.4321 -0.0291
25997SOL    HW182802   7.641  11.985  10.393  0.4778  1.4724 -1.0408
25997SOL    HW282803   7.716  12.116  10.398  0.2315  1.5652  1.2591
25998SOL     OW82804   6.077   6.248   1.442  0.4674 -0.2433  0.2909
25998SOL    HW182805   6.139   6.303   1.395 -2.5479  0.8563 -2.7735
25998SOL    HW282806   6.114   6.160   1.437  0.9129  0.0054 -3.2809
25999SOL     OW82807  11.133   8.304   3.336 -0.4362 -0.1215  0.7503
25999SOL    HW182808  11.219   8.265   3.331  0.1418  1.2568 -1.0522
25999SOL    HW282809  11.130   8.345   3.423 -0.4546 -2.5865  2.0031
26000SOL     OW82810  11.676   5.759   3.982 -0.1482 -0.2795 -0.1762
26000SOL    HW182811  11.654   5.804   4.063 -0.8181 -0.3244 -0.3262
26000SOL    HW282812  11.771   5.762   3.978  0.0200 -1.6285  1.3943
26001SOL     OW82813   2.345   9.220  10.741  0.0664  0.1584 -0.0567
26001SOL    HW182814   2.426   9.247  10.784 -0.0875  1.1453 -0.3702
26001SOL    HW282815   2.317   9.297  10.692 -1.2929 -0.0379  0.3844
26002SOL     OW82816   7.934   6.670  12.301 -0.1754 -0.7883  0.4044
26002SOL    HW182817   7.964   6.708  12.219 -0.0046 -1.0829  0.3321
26002SOL    HW282818   7.838   6.681  12.299 -0.0819  0.2286  0.6778
26003SOL     OW82819   0.714   4.188   4.631  0.3446  0.0398  0.5191
26003SOL    HW182820   0.809   4.184   4.633  0.4590 -0.3123 -2.1620
26003SOL    HW282821   0.686   4.158   4.717  2.6083 -1.8629  0.6589
26004SOL     OW82822   7.655   9.273   4.404  0.0248  0.0819 -0.3009
26004SOL    HW182823   7.623   9.283   4.315  0.1418 -2.4369 -0.6968
26004SOL    HW282824   7.749   9.290   4.398  0.2432 -1.2213 -0.9328
26005SOL     OW82825   0.639   5.970   5.462 -0.1621  0.2720 -0.1055
26005SOL    HW182826   0.607   6.060   5.461 -0.6249  0.1131  0.2007
26005SOL    HW282827   0.576   5.923   5.516 -1.9131 -0.9952 -3.0259
26006SOL     OW82828   2.973   5.370   6.014 -0.2352  0.2730  0.0966
26006SOL    HW182829   3.016   5.301   5.964 -1.4238 -1.3820  1.2248
26006SOL    HW282830   3.014   5.451   5.984  3.2966 -1.0895  0.7536
26007SOL     OW82831   0.375   3.121   2.677 -0.4228 -0.2470  0.5557
26007SOL    HW182832   0.315   3.158   2.741 -1.4844 -1.6683  0.4417
26007SOL    HW282833   0.364   3.176   2.599  1.1031  1.6699  1.6373
26008SOL     OW82834  10.548   7.602  10.672 -0.3955 -0.1175  0.2759
26008SOL    HW182835  10.637   7.581  10.643 -0.9270  1.2201 -2.7634
26008SOL    HW282836  10.499   7.521  10.659  0.0084 -0.3664  0.2699
26009SOL     OW82837   6.510  12.139   6.115  0.0877  0.4437  0.2074
26009SOL    HW182838   6.429  12.093   6.095 -0.2933 -0.0390  2.5657
26009SOL    HW282839   6.579  12.084   6.079 -0.5186 -0.4875  0.4412
26010SOL     OW82840   4.035   7.638   3.961 -0.0986  0.3392  0.2158
26010SOL    HW182841   4.106   7.635   3.896 -0.8460  1.4098 -0.6793
26010SOL    HW282842   3.955   7.628   3.910 -0.8042  2.6659  0.7352
26011SOL     OW82843  10.401   1.022   5.996 -0.5549 -0.0813  0.3889
26011SOL    HW182844  10.312   1.053   5.983 -1.0112 -0.8689  1.5300
26011SOL    HW282845  10.456   1.091   5.958 -1.6457 -0.1042 -1.3425
26012SOL     OW82846   6.107   3.468   9.261  0.0965  0.1223  0.4414
26012SOL    HW182847   6.050   3.543   9.244 -0.2403  0.4127  2.5929
26012SOL    HW282848   6.176   3.476   9.195 -0.8167  1.3612 -0.4255
26013SOL     OW82849   2.151  10.788   5.180  0.4895 -0.3112  0.2894
26013SOL    HW182850   2.100  10.708   5.191 -0.3737  0.4744  2.5199
26013SOL    HW282851   2.150  10.805   5.086 -1.1723 -1.7222  0.0235
26014SOL     OW82852   0.093   7.319   0.303  0.1499  0.2319 -0.0652
26014SOL    HW182853   0.161   7.310   0.370  0.9492 -0.4848 -0.9583
26014SOL    HW282854   0.011   7.323   0.353  0.6709 -1.0451  0.9389
26015SOL     OW82855   3.833   3.352  11.020 -0.7342  0.3858 -0.4185
26015SOL    HW182856   3.754   3.330  10.971 -0.3542 -1.1522 -0.3852
26015SOL    HW282857   3.899   3.371  10.952 -1.1815  1.9660 -0.4444
26016SOL     OW82858   9.107   3.338   4.947  0.7132 -0.3379 -0.0430
26016SOL    HW182859   9.038   3.280   4.977  0.4236 -0.4334 -0.8825
26016SOL    HW282860   9.188   3.293   4.971  0.4897 -0.6704  0.0958
26017SOL     OW82861   0.151   1.097   8.791  0.5900  0.3606  0.1902
26017SOL    HW182862   0.128   1.045   8.868 -2.7831  1.5087  0.0922
26017SOL    HW282863   0.194   1.175   8.827  2.5272 -0.8096  0.5585
26018SOL     OW82864   8.253  12.172  12.079  0.2811  0.1215  0.3928
26018SOL    HW182865   8.202  12.245  12.043  1.5460  1.5882  1.4191
26018SOL    HW282866   8.203  12.144  12.156  0.4137  0.7680  0.7234
26019SOL     OW82867   5.764   6.903   2.745  0.4245 -0.2898 -0.0063
26019SOL    HW182868   5.767   6.882   2.652  0.0392  0.2124 -0.1356
26019SOL    HW282869   5.806   6.829   2.788  0.1548 -0.7520 -0.5403
26020SOL     OW82870  11.305   6.403   8.687  0.6572 -0.0734 -0.1232
26020SOL    HW182871  11.294   6.322   8.737  1.4542  0.5634  1.0968
26020SOL    HW282872  11.215   6.431   8.668  0.3381 -0.1718  1.1858
26021SOL     OW82873  10.787   5.591   1.802  0.3312 -0.0999  0.6475
26021SOL    HW182874  10.766   5.539   1.879  1.7575  0.1918  1.2817
26021SOL    HW282875  10.824   5.672   1.838  1.2630 -0.0646 -0.3226
26022SOL     OW82876   3.730   0.084   7.463  0.7042  0.2376  0.0039
26022SOL    HW182877   3.675   0.018   7.507  1.9766 -0.1201  1.1635
26022SOL    HW282878   3.669   0.150   7.432 -0.3238  0.5610  2.4529
26023SOL     OW82879   1.746   0.195   3.306  0.4429 -0.7661 -0.2215
26023SOL    HW182880   1.747   0.264   3.372 -1.3966 -1.4161  0.5300
26023SOL    HW282881   1.756   0.241   3.223 -1.5945  0.5389  0.1940
26024SOL     OW82882   5.709   9.470   1.972 -0.1448 -0.1936  0.2537
26024SOL    HW182883   5.721   9.564   1.987  0.4635 -0.1420 -0.5167
26024SOL    HW282884   5.618   9.462   1.943  0.3306  0.4110 -1.5255
26025SOL     OW82885  12.279   3.812   9.348 -0.0941  0.3087 -0.6742
26025SOL    HW182886  12.341   3.847   9.413 -1.4045 -2.6203  2.4739
26025SOL    HW282887  12.193   3.827   9.387 -1.0580 -0.1601 -2.5388
26026SOL     OW82888   0.947   9.406  11.625  0.3017 -0.6056  0.5166
26026SOL    HW182889   0.864   9.450  11.644 -0.3027 -1.4552 -0.0669
26026SOL    HW282890   1.013   9.476  11.631 -0.5601  0.2810  0.1086
26027SOL     OW82891   8.373   9.892   5.550  0.6248  0.1714 -0.6500
26027SOL    HW182892   8.322   9.960   5.594 -0.7879 -0.4098 -1.3473
26027SOL    HW282893   8.308   9.833   5.512  1.8004 -1.3204 -0.4808
26028SOL     OW82894  12.351  12.445   6.717  0.0557  0.1309 -0.0275
26028SOL    HW182895  12.277  12.423   6.773  0.5921  0.0289  0.6649
26028SOL    HW282896  12.374  12.363   6.674 -1.2607  0.5174 -1.5270
26029SOL     OW82897   5.283   0.228   1.400  0.0498 -0.7195 -0.6582
26029SOL    HW182898   5.226   0.305   1.397  1.6986  0.5787 -0.3421
26029SOL    HW282899   5.249   0.177   1.474  0.4982  1.0644  0.8632
26030SOL     OW82900   5.982   0.644   6.998  0.0544 -0.4538  0.1081
26030SOL    HW182901   5.893   0.627   6.966 -0.0076  0.0578 -0.0029
26030SOL    HW282902   5.993   0.739   6.989  1.1540 -0.6867 -1.3063
26031SOL     OW82903   8.782   8.931   2.889  0.1196 -0.2325  0.0606
26031SOL    HW182904   8.717   8.993   2.922 -0.7033 -1.6215  1.1302
26031SOL    HW282905   8.785   8.947   2.794  1.1923  2.5709  0.4730
26032SOL     OW82906   8.847   6.538   8.075 -0.1385  0.6191 -0.2885
26032SOL    HW182907   8.928   6.589   8.071 -0.2110  0.6864 -0.9792
26032SOL    HW282908   8.876   6.447   8.069 -0.2369  0.7046 -2.7161
26033SOL     OW82909   3.320   0.250   5.871  0.2091 -0.1303 -0.0368
26033SOL    HW182910   3.375   0.276   5.797 -1.1413  0.8277 -0.7478
26033SOL    HW282911   3.382   0.231   5.941  1.5574 -1.5773 -1.5434
26034SOL     OW82912   1.472   4.198   3.388 -0.5777  0.2471 -0.1033
26034SOL    HW182913   1.397   4.195   3.448 -1.1090 -1.3759 -0.8098
26034SOL    HW282914   1.447   4.261   3.321 -0.8746  0.4568  0.2011
26035SOL     OW82915   0.381  10.387  11.508  0.0460 -0.3079 -0.7399
26035SOL    HW182916   0.452  10.448  11.487  3.1782 -2.9411  1.2104
26035SOL    HW282917   0.392  10.315  11.446  0.0725 -1.4245  0.5133
26036SOL     OW82918   0.145  11.311   6.438  0.2897 -0.6093  0.5536
26036SOL    HW182919   0.189  11.358   6.509 -0.4335 -0.0864  0.6720
26036SOL    HW282920   0.097  11.241   6.481 -0.6190  0.0635  0.6582
26037SOL     OW82921   6.412  10.546   9.872  0.3390 -0.0914 -0.0310
26037SOL    HW182922   6.319  10.563   9.884  0.4162  0.6401 -0.4408
26037SOL    HW282923   6.439  10.506   9.955 -0.7968 -2.4695 -0.7148
26038SOL     OW82924   4.822   4.902   0.202 -0.4583  0.0443  0.4118
26038SOL    HW182925   4.874   4.943   0.272 -0.2492  1.7510 -0.6910
26038SOL    HW282926   4.866   4.928   0.121  0.0204 -2.9012 -0.3744
26039SOL     OW82927   6.610   6.664   7.627  0.4929  0.2764 -0.1820
26039SOL    HW182928   6.577   6.678   7.716  1.6368 -0.0307  0.3010
26039SOL    HW282929   6.558   6.725   7.573 -1.2004 -0.5288  0.4556
26040SOL     OW82930   9.976   8.700   3.328  0.5494  0.6955  0.3705
26040SOL    HW182931   9.884   8.694   3.352  0.6108  0.3802  0.5350
26040SOL    HW282932   9.979   8.768   3.261 -0.1450 -0.7836 -1.2748
26041SOL     OW82933   1.243   5.557   9.391  0.0855  1.0098 -0.1132
26041SOL    HW182934   1.228   5.638   9.343  1.1595  1.1341 -0.2511
26041SOL    HW282935   1.337   5.542   9.385 -0.3743 -1.8331 -2.6496
26042SOL     OW82936   6.201   0.026  10.986 -0.0352 -0.5252  0.5030
26042SOL    HW182937   6.148   0.079  11.046 -0.0032  1.1139 -0.8446
26042SOL    HW282938   6.139  -0.002  10.918  0.6448  0.9709 -0.8056
26043SOL     OW82939  10.885  11.000   8.407 -0.2315 -0.3303 -0.1606
26043SOL    HW182940  10.949  10.974   8.340  0.3715 -0.0652  0.3014
26043SOL    HW282941  10.917  11.084   8.439  1.1005 -1.7075  2.4461
26044SOL     OW82942   3.286   0.703   4.959 -0.2595 -0.0485  0.4356
26044SOL    HW182943   3.199   0.694   4.920  0.3008 -3.6973 -0.2746
26044SOL    HW282944   3.344   0.724   4.885 -0.3466  1.6751  0.8029
26045SOL     OW82945   4.907  11.243   4.291  0.1786 -0.0710  0.3293
26045SOL    HW182946   4.898  11.336   4.309  2.2044  0.1500  0.4865
26045SOL    HW282947   4.853  11.200   4.357 -1.0260  0.9658  0.0587
26046SOL     OW82948   9.093   3.867   5.462  0.3010  0.4011  0.2745
26046SOL    HW182949   9.101   3.776   5.489 -0.5167  0.2028 -0.1299
26046SOL    HW282950   9.175   3.908   5.492  0.9259 -0.5756 -0.0347
26047SOL     OW82951   2.091   2.560   0.087 -0.1029  0.3812 -0.3731
26047SOL    HW182952   2.022   2.531   0.028  0.8381  0.9907 -1.8431
26047SOL    HW282953   2.133   2.479   0.116 -0.4294  0.0742 -0.7432
26048SOL     OW82954   2.138   8.988  10.097  0.0576  0.6440 -0.1981
26048SOL    HW182955   2.195   9.015  10.025  0.6537 -0.4650 -0.1661
26048SOL    HW282956   2.186   8.917  10.140 -0.1507  1.4767  1.4852
26049SOL     OW82957  10.301   7.898   1.197  0.1932 -0.2914  0.0416
26049SOL    HW182958  10.396   7.890   1.187  0.2977 -0.3176  0.9929
26049SOL    HW282959  10.288   7.986   1.232 -0.1755 -0.1240 -0.4994
26050SOL     OW82960   7.432   9.061   9.196  0.8535  0.6210 -1.2205
26050SOL    HW182961   7.499   9.100   9.141  1.1062  0.6548 -0.8887
26050SOL    HW282962   7.427   9.118   9.272 -0.1113  1.0703 -1.6029
26051SOL     OW82963   4.693   0.407  11.461  0.0557 -0.5068  0.2655
26051SOL    HW182964   4.699   0.467  11.387  2.6930 -0.4937  0.3783
26051SOL    HW282965   4.726   0.324  11.427 -0.3557 -0.9665  0.9704
26052SOL     OW82966   9.925   7.320   6.840  0.3391 -0.5371  0.0957
26052SOL    HW182967   9.935   7.390   6.904 -1.5986 -0.0718 -0.0311
26052SOL    HW282968   9.990   7.338   6.773 -1.3465  2.3642 -0.9305
26053SOL     OW82969   2.628   8.650   7.074  0.4040 -0.8158  0.4798
26053SOL    HW182970   2.649   8.592   7.001 -0.8735 -1.2622  0.4460
26053SOL    HW282971   2.677   8.730   7.055  1.7911 -1.6768  0.2644
26054SOL     OW82972   7.807   6.339  11.423  0.3299 -0.2781  0.2382
26054SOL    HW182973   7.794   6.396  11.499 -2.0341  0.2726 -0.4933
26054SOL    HW282974   7.719   6.312  11.398  1.1550 -1.5215 -1.5117
26055SOL     OW82975   9.736   4.319   1.397  0.4487 -0.3912 -0.0227
26055SOL    HW182976   9.823   4.281   1.412 -0.0131 -1.5045 -0.0992
26055SOL    HW282977   9.676   4.260   1.441 -0.5322 -1.2300 -2.2994
26056SOL     OW82978   1.104  10.037   3.710 -0.3624 -0.3149  0.1480
26056SOL    HW182979   1.030  10.097   3.721 -1.4803 -1.6891  0.2410
26056SOL    HW282980   1.068   9.961   3.666  1.2108 -0.6215 -0.6846
26057SOL     OW82981   1.025   0.499   8.882  0.2717 -0.3281 -0.4815
26057SOL    HW182982   1.053   0.429   8.824  0.8864  0.5178 -1.2220
26057SOL    HW282983   1.104   0.527   8.927 -0.3207 -1.5314  1.4393
26058SOL     OW82984   4.049   1.137   9.398  0.1836  0.5119  0.2583
26058SOL    HW182985   3.985   1.079   9.357  1.1691  0.8334 -1.8510
26058SOL    HW282986   4.129   1.084   9.404  0.5000  0.9846  0.2588
26059SOL     OW82987   2.146   8.223  11.868  0.3313 -0.4745  0.0985
26059SOL    HW182988   2.110   8.188  11.786  2.7332 -1.8256 -0.4495
26059SOL    HW282989   2.227   8.267  11.842 -1.2740  3.5895  1.1150
26060SOL     OW82990   9.729   3.953  12.081  0.4724 -0.4236 -0.2433
26060SOL    HW182991   9.771   4.012  12.143  2.1990 -1.5938 -0.2188
26060SOL    HW282992   9.777   3.965  12.000 -0.7024 -0.1072 -0.9231
26061SOL     OW82993  12.257   5.143   5.271  0.3849  0.6173 -0.4475
26061SOL    HW182994  12.164   5.136   5.291  0.2216  0.6531 -1.1473
26061SOL    HW282995  12.260   5.179   5.182  1.0476 -0.0678 -0.7214
26062SOL     OW82996   6.852   8.074  11.541  0.0245 -0.0939 -0.9069
26062SOL    HW182997   6.783   8.097  11.479 -0.9764  0.7730  0.4892
26062SOL    HW282998   6.877   7.985  11.516 -0.8270 -0.0147 -2.1288
26063SOL     OW82999  11.088   7.111  10.905  0.1724  0.3863 -0.0645
26063SOL    HW183000  11.165   7.150  10.946 -0.3494 -0.9335  2.3628
26063SOL    HW283001  11.067   7.035  10.960 -3.2806  1.1026 -0.1449
26064SOL     OW83002   4.988   3.526   6.116 -0.7699 -0.0990  0.6840
26064SOL    HW183003   5.082   3.512   6.112 -0.4401  1.8933  0.0778
26064SOL    HW283004   4.952   3.469   6.048  0.4457  1.8156 -1.7247
26065SOL     OW83005  11.024   3.587   7.029 -0.2395  0.1190 -0.6871
26065SOL    HW183006  11.087   3.657   7.014  0.5278 -0.9634 -2.8935
26065SOL    HW283007  11.064   3.532   7.097  0.5749  0.1783 -1.1123
26066SOL     OW83008   7.751  10.513  11.387  0.4638  0.3978  0.0154
26066SOL    HW183009   7.781  10.559  11.465  0.8025  0.0017  0.1222
26066SOL    HW283010   7.747  10.421  11.412 -2.8459  0.5976  0.6253
26067SOL     OW83011   5.014   5.454   2.315 -0.0155 -0.7610  0.1971
26067SOL    HW183012   4.935   5.496   2.349 -1.4846 -2.1323 -1.2609
26067SOL    HW283013   5.025   5.377   2.371 -0.7534 -1.4776 -0.6062
26068SOL     OW83014   2.817   4.710  12.384  0.2385  0.0449  0.3876
26068SOL    HW183015   2.750   4.652  12.348  0.7990 -0.9031  0.8300
26068SOL    HW283016   2.824   4.781  12.320  0.6209 -1.1653 -0.9732
26069SOL     OW83017   2.858   4.631   8.757 -0.3060  0.2523 -0.0284
26069SOL    HW183018   2.897   4.546   8.737  0.8173  0.7910 -0.2130
26069SOL    HW283019   2.896   4.690   8.692 -1.0479  0.9054  0.1207
26070SOL     OW83020   9.368  11.055   2.492  0.1203  0.1801 -0.5416
26070SOL    HW183021   9.438  11.036   2.555 -1.3729  0.2185  1.2224
26070SOL    HW283022   9.368  11.151   2.485 -1.2957  0.3992  1.4404
26071SOL     OW83023   0.714   4.301  10.254 -0.0968  0.2063  0.2973
26071SOL    HW183024   0.737   4.393  10.269  0.2532  0.3092 -0.7895
26071SOL    HW283025   0.796   4.253  10.265 -0.6005 -0.2319  2.6281
26072SOL     OW83026   6.430   8.066   6.776  0.5527  0.1984 -0.0268
26072SOL    HW183027   6.405   8.001   6.710 -0.8530 -0.3284  0.9673
26072SOL    HW283028   6.513   8.102   6.745  0.6801 -1.1136 -1.2897
26073SOL     OW83029   8.846   0.298   8.484 -0.3208 -0.2821 -0.2087
26073SOL    HW183030   8.791   0.220   8.477  0.5454 -0.9275 -0.0331
26073SOL    HW283031   8.800   0.365   8.433 -1.7626 -0.5054  0.7707
26074SOL     OW83032   2.744   8.130   2.324 -0.9067  0.5027  0.3778
26074SOL    HW183033   2.648   8.125   2.329 -0.8022 -1.0411  1.5767
26074SOL    HW283034   2.763   8.140   2.231 -2.2990  4.0162  0.2893
26075SOL     OW83035   8.154   1.856   5.160  0.2117 -0.1771 -0.3680
26075SOL    HW183036   8.097   1.913   5.212 -1.6513 -1.8666 -0.4335
26075SOL    HW283037   8.121   1.864   5.070  1.7841  0.7779 -0.9058
26076SOL     OW83038   4.212  12.452   7.779 -0.4495 -0.0541 -0.2118
26076SOL    HW183039   4.293  12.502   7.795 -0.6152 -0.1148  0.8524
26076SOL    HW283040   4.167  12.502   7.711  0.3688  0.1130 -0.6419
26077SOL     OW83041   9.881   6.917   7.480  0.0316 -0.4522  0.0954
26077SOL    HW183042   9.856   6.825   7.472  0.4156 -0.5512 -0.0044
26077SOL    HW283043   9.967   6.914   7.522  0.1051 -0.1424 -0.0341
26078SOL     OW83044   2.555   5.291   3.720  0.0400 -0.2421  0.4271
26078SOL    HW183045   2.544   5.200   3.693  1.5932 -0.7803  1.5119
26078SOL    HW283046   2.466   5.327   3.718 -0.6196 -1.8006  0.1085
26079SOL     OW83047   2.350   5.527   8.275  0.1845 -0.3378 -0.1145
26079SOL    HW183048   2.260   5.552   8.298 -0.5137 -1.3171 -1.5765
26079SOL    HW283049   2.340   5.443   8.230  1.8671 -0.5537 -0.1316
26080SOL     OW83050   7.051  12.199   2.991  0.5296 -0.3135 -0.1300
26080SOL    HW183051   6.969  12.242   3.014 -0.5048 -2.0037 -0.4264
26080SOL    HW283052   7.110  12.217   3.064 -0.7466 -0.6409  1.0227
26081SOL     OW83053  11.130  10.271   3.840 -0.7932  0.4416 -0.4410
26081SOL    HW183054  11.166  10.272   3.929 -0.2738 -1.0661 -0.6028
26081SOL    HW283055  11.065  10.201   3.842 -0.8788  0.4950 -1.2144
26082SOL     OW83056   7.646   9.732   3.140 -0.0337 -0.1471  0.7211
26082SOL    HW183057   7.689   9.777   3.213 -0.1381  0.5418  0.3694
26082SOL    HW283058   7.648   9.640   3.164 -1.2837  0.1924  2.2368
26083SOL     OW83059   2.194   7.699  10.966  0.3971 -0.6770  0.2698
26083SOL    HW183060   2.259   7.629  10.965  1.0402 -0.1470 -2.1716
26083SOL    HW283061   2.241   7.774  11.003  0.0744 -1.1661  1.7376
26084SOL     OW83062   0.876  12.097   1.133 -0.1008  0.0733 -0.2153
26084SOL    HW183063   0.831  12.161   1.077 -0.8168 -0.5790 -0.4072
26084SOL    HW283064   0.812  12.073   1.199 -0.1040 -0.9908 -0.5820
26085SOL     OW83065  11.497   8.499   3.775  0.1914  0.0080 -0.4456
26085SOL    HW183066  11.444   8.447   3.835 -1.8848  0.9404 -1.4052
26085SOL    HW283067  11.459   8.587   3.780  1.6390  0.7077 -1.2094
26086SOL     OW83068  11.439   8.409   6.291  0.2320 -0.6799 -0.1217
26086SOL    HW183069  11.448   8.505   6.294  1.4728 -0.7704 -0.5897
26086SOL    HW283070  11.364   8.395   6.233 -1.8282  0.0527  2.1835
26087SOL     OW83071   4.507   2.617   3.051 -0.4084 -0.6904 -0.9210
26087SOL    HW183072   4.509   2.684   3.119  0.4445 -0.8934 -0.7276
26087SOL    HW283073   4.458   2.545   3.090  0.3963 -0.9541 -0.3630
26088SOL     OW83074   6.707   9.024   0.447  0.0730  0.1566  0.1865
26088SOL    HW183075   6.744   9.111   0.435 -0.2421  0.1560 -0.8461
26088SOL    HW283076   6.767   8.965   0.402  0.5078 -0.2249  1.2334
26089SOL     OW83077   0.553   3.829   5.731  0.1864 -0.0304  0.3947
26089SOL    HW183078   0.584   3.865   5.814 -0.0308  0.4954  0.2530
26089SOL    HW283079   0.462   3.806   5.747  0.7955 -2.2643  1.0309
26090SOL     OW83080   8.704  10.129   6.865 -0.1431 -0.8367  0.0491
26090SOL    HW183081   8.799  10.139   6.867 -0.0025 -1.2139 -2.0243
26090SOL    HW283082   8.681  10.092   6.951  1.5829 -0.8447  0.5364
26091SOL     OW83083  10.879   3.951   3.409  0.4171  0.0358 -0.0920
26091SOL    HW183084  10.914   3.947   3.498  1.0991 -0.3862 -0.3692
26091SOL    HW283085  10.886   3.861   3.377 -1.9436 -0.3285  0.2110
26092SOL     OW83086   2.251   6.376  12.021 -0.2812  0.6233 -0.3777
26092SOL    HW183087   2.207   6.303  12.063 -1.4239  0.3366 -1.9973
26092SOL    HW283088   2.299   6.419  12.092 -1.0804 -0.5899  0.9450
26093SOL     OW83089   0.743   2.701   5.941 -0.1994 -0.3273 -0.3746
26093SOL    HW183090   0.747   2.706   6.036 -0.9789  0.9874 -0.3878
26093SOL    HW283091   0.732   2.607   5.922 -1.0535 -0.5008  0.8744
26094SOL     OW83092   6.274   9.725  11.313  0.0102  0.4801  0.2856
26094SOL    HW183093   6.247   9.714  11.404  1.0018 -0.8644  0.4523
26094SOL    HW283094   6.210   9.674  11.262  0.2270  0.1272  0.3628
26095SOL     OW83095   2.708  10.948   9.484  0.0863 -0.7711  0.1472
26095SOL    HW183096   2.786  10.982   9.439  0.2633 -1.3540  0.0030
26095SOL    HW283097   2.648  10.924   9.413 -0.2476 -0.2774  0.2593
26096SOL     OW83098   6.641   3.552   1.132 -0.5313 -0.2221  0.5588
26096SOL    HW183099   6.565   3.503   1.102 -0.4358 -0.0882  0.1012
26096SOL    HW283100   6.686   3.492   1.192  1.5384 -2.1002 -2.6303
26097SOL     OW83101   9.665   9.658   3.736 -0.4738 -0.0679 -0.0826
26097SOL    HW183102   9.676   9.687   3.645  0.5738  1.1589  0.3976
26097SOL    HW283103   9.573   9.633   3.742  0.0544 -2.8993 -2.1863
26098SOL     OW83104  12.569   3.417  10.164  0.3815  0.3134 -0.5619
26098SOL    HW183105  12.539   3.402  10.075 -0.8518  1.3719 -0.3637
26098SOL    HW283106  12.618   3.499  10.159  0.3823  0.3312 -0.2827
26099SOL     OW83107   1.777   0.692   5.049  0.1101  0.3097 -0.6425
26099SOL    HW183108   1.771   0.732   4.962 -0.3965  0.8734 -0.3505
26099SOL    HW283109   1.697   0.720   5.094  0.2890 -0.1158 -0.0500
26100SOL     OW83110   9.383   7.453   2.105 -0.2966  0.3265  0.4037
26100SOL    HW183111   9.455   7.510   2.132  1.0426 -0.6152 -0.9819
26100SOL    HW283112   9.309   7.479   2.160  0.7625  2.1412  1.0405
26101SOL     OW83113   5.890   6.275  10.972  0.6049 -0.1523  0.0274
26101SOL    HW183114   5.958   6.326  11.016  1.4576  0.0410 -1.4441
26101SOL    HW283115   5.924   6.186  10.968  0.9404  0.0121 -1.0110
26102SOL     OW83116  11.986   7.599  11.715 -0.1449  0.1848  0.1741
26102SOL    HW183117  12.076   7.577  11.734 -0.0579  0.4677  0.1037
26102SOL    HW283118  11.944   7.605  11.801  0.4408  2.2827  0.3722
26103SOL     OW83119   1.450   6.129  10.855  0.0523  0.1896 -0.5001
26103SOL    HW183120   1.394   6.067  10.807 -0.4303 -0.5844  0.9897
26103SOL    HW283121   1.477   6.081  10.933  1.2819  1.2192 -0.2618
26104SOL     OW83122   5.987   9.339   5.488  0.1637  0.1296 -0.0036
26104SOL    HW183123   6.082   9.336   5.475  0.1498 -0.6981  0.0402
26104SOL    HW283124   5.974   9.410   5.551  0.7810 -0.0048  0.2814
26105SOL     OW83125   7.567   3.093   7.688  0.2643 -0.8038  0.9506
26105SOL    HW183126   7.536   3.183   7.697  0.5316 -0.5636 -0.3381
26105SOL    HW283127   7.621   3.078   7.766  1.8617  0.8435  0.2474
26106SOL     OW83128   7.675   3.297   6.977 -0.3527 -0.2254 -0.0929
26106SOL    HW183129   7.750   3.238   6.981  1.5246  1.6867 -3.0400
26106SOL    HW283130   7.617   3.257   6.913  1.2342  1.2329 -2.6073
26107SOL     OW83131   2.379   6.943   7.197  0.4678  0.1002 -0.3383
26107SOL    HW183132   2.291   6.964   7.229  1.0620 -0.4302  1.8189
26107SOL    HW283133   2.386   6.848   7.206  1.6040  0.2434  0.5457
26108SOL     OW83134  11.867   2.817   0.559 -0.5776 -0.0419 -0.0480
26108SOL    HW183135  11.945   2.870   0.544 -1.9921  2.0951 -0.3298
26108SOL    HW283136  11.840   2.838   0.648 -0.7983 -0.8356  0.0813
26109SOL     OW83137   6.449   8.106  12.285  0.1184  0.1378  0.3468
26109SOL    HW183138   6.418   8.194  12.264  1.8431  0.7890  0.3498
26109SOL    HW283139   6.423   8.093  12.377  0.6607  1.0437  0.6475
26110SOL     OW83140   5.781   7.857   5.341 -0.2655 -0.3067  0.1512
26110SOL    HW183141   5.872   7.826   5.340 -0.3737 -0.6196 -1.3737
26110SOL    HW283142   5.778   7.915   5.417  1.4220  0.2895 -0.1740
26111SOL     OW83143   7.996   4.582   7.101  0.1676 -0.5505 -0.1092
26111SOL    HW183144   7.982   4.550   7.190 -0.1423  0.8870  0.3810
26111SOL    HW283145   7.918   4.633   7.080  1.4345  1.5506 -0.0726
26112SOL     OW83146   6.204   4.601   5.958  0.0569  1.0904 -0.3599
26112SOL    HW183147   6.254   4.546   6.020 -0.7477  1.4538  0.6438
26112SOL    HW283148   6.248   4.589   5.875  0.0436 -0.9373 -0.1342
26113SOL     OW83149   0.279   7.130  12.160 -0.2261  1.0579 -0.7075
26113SOL    HW183150   0.253   7.179  12.238 -1.9613  1.5680 -1.5593
26113SOL    HW283151   0.285   7.196  12.091 -2.6850  0.1761 -1.9018
26114SOL     OW83152   6.744   2.389   6.344 -0.0179  0.1374 -0.3222
26114SOL    HW183153   6.690   2.439   6.405 -0.7068  0.9772 -1.5951
26114SOL    HW283154   6.735   2.434   6.260  1.5796 -0.4974 -0.8833
26115SOL     OW83155   1.169   0.791   7.945 -0.4639 -0.0583  0.0492
26115SOL    HW183156   1.083   0.792   7.986 -2.3162 -0.0016 -3.4289
26115SOL    HW283157   1.208   0.875   7.967 -0.9448 -0.3620  2.2439
26116SOL     OW83158   4.293   6.685   7.644  0.1037  0.2320  0.4419
26116SOL    HW183159   4.198   6.689   7.648 -0.0450 -1.8988 -0.1203
26116SOL    HW283160   4.315   6.726   7.561 -0.6796 -2.7034 -1.3481
26117SOL     OW83161   1.473   2.313   7.023  0.2127 -0.0232 -0.0101
26117SOL    HW183162   1.421   2.322   6.943  1.2782  2.9713 -0.5117
26117SOL    HW283163   1.563   2.329   6.994  0.7188  0.3115  1.6454
26118SOL     OW83164   3.997  11.468   4.442 -0.2531  0.2078 -0.4891
26118SOL    HW183165   4.055  11.418   4.499 -1.9838 -2.1057 -0.5645
26118SOL    HW283166   4.004  11.424   4.357 -0.0583  1.6263 -1.2320
26119SOL     OW83167   8.535   1.099   3.472 -0.2550  0.5252 -0.3583
26119SOL    HW183168   8.575   1.043   3.539 -0.9192 -2.4393 -2.2309
26119SOL    HW283169   8.605   1.114   3.409 -0.5838  0.0607 -0.8488
26120SOL     OW83170   9.203   4.722   9.022  0.1530  0.1557 -0.4116
26120SOL    HW183171   9.213   4.816   9.005 -0.5461  0.6234  1.5471
26120SOL    HW283172   9.124   4.715   9.075  0.8666 -1.3848  0.5311
26121SOL     OW83173   7.586   9.837   9.111  0.4793  0.5165 -0.4353
26121SOL    HW183174   7.607   9.926   9.137 -0.1609  0.2619  1.0293
26121SOL    HW283175   7.620   9.782   9.182 -1.7180 -0.1620  0.1571
26122SOL     OW83176  10.083   0.411   3.281 -0.1659 -0.2119 -0.0103
26122SOL    HW183177  10.008   0.363   3.248 -0.1639 -0.5508  0.4597
26122SOL    HW283178  10.102   0.476   3.214 -0.1115 -0.9273 -0.7068
26123SOL     OW83179  11.624   5.196  11.081  1.0027  0.6276 -0.4745
26123SOL    HW183180  11.625   5.161  10.992  0.8935 -0.4933 -0.0474
26123SOL    HW283181  11.541   5.166  11.118  0.9455  1.2786 -0.0638
26124SOL     OW83182   8.024  10.673   9.027  0.2641 -0.4089  0.4374
26124SOL    HW183183   8.053  10.590   8.989  0.1993 -0.0535 -0.4107
26124SOL    HW283184   8.095  10.699   9.086  0.2649 -1.0770  0.7393
26125SOL     OW83185   6.588   5.315   1.533 -0.0426 -0.0542  0.0421
26125SOL    HW183186   6.678   5.288   1.551 -0.2930 -0.3894  0.8235
26125SOL    HW283187   6.595   5.372   1.456  0.7803 -0.4229 -0.1644
26126SOL     OW83188   4.901  10.085   5.007  0.1477 -0.1863 -0.0784
26126SOL    HW183189   4.986  10.114   5.039  0.7170 -0.1120 -1.5886
26126SOL    HW283190   4.904  10.100   4.913 -1.1714 -1.1150 -0.2987
26127SOL     OW83191   6.968   9.471   2.324 -0.1344  0.0781 -0.2232
26127SOL    HW183192   7.008   9.422   2.252  1.5679 -0.1014  0.7739
26127SOL    HW283193   7.011   9.556   2.321 -0.4449  0.2522  0.2403
26128SOL     OW83194   2.043   8.889   9.624  0.3142 -0.7538 -0.6518
26128SOL    HW183195   1.957   8.911   9.660  1.0475  0.7211  0.2989
26128SOL    HW283196   2.061   8.801   9.657 -0.3846 -0.6551  0.0141
26129SOL     OW83197  11.556   6.143   0.607  0.3660  0.4336 -0.5788
26129SOL    HW183198  11.577   6.050   0.598  1.4430  0.3309  2.1015
26129SOL    HW283199  11.596   6.183   0.530  0.1821 -1.2599 -1.6127
26130SOL     OW83200   7.285   8.607   5.610  0.4019  0.1295  0.3598
26130SOL    HW183201   7.293   8.689   5.561 -1.4211 -0.0561 -0.3359
26130SOL    HW283202   7.366   8.560   5.592  0.0105  0.2852 -2.1091
26131SOL     OW83203  11.854   8.921   5.088 -0.4629 -0.2044 -0.3132
26131SOL    HW183204  11.863   8.836   5.044  1.9240  0.4765 -1.3248
26131SOL    HW283205  11.887   8.905   5.176  1.3508 -0.0768 -0.9239
26132SOL     OW83206   5.423   6.550  11.933  0.2850 -0.1549  0.2241
26132SOL    HW183207   5.399   6.639  11.908  3.3516  0.3812 -1.3416
26132SOL    HW283208   5.484   6.561  12.006  0.1169 -1.0183  0.5029
26133SOL     OW83209   1.043   6.658   6.582  0.4800  0.2650  0.3475
26133SOL    HW183210   1.004   6.740   6.613 -0.0175 -0.5289  1.9288
26133SOL    HW283211   1.136   6.677   6.573  0.5632  0.6782  1.9137
26134SOL     OW83212   2.789   4.583   2.061 -0.2870  0.2109  0.1814
26134SOL    HW183213   2.762   4.610   1.973 -0.4974 -0.5291  0.0193
26134SOL    HW283214   2.777   4.488   2.063  0.8870  0.0501  0.5983
26135SOL     OW83215   1.916   6.354   7.609  0.5639  0.2251  0.1053
26135SOL    HW183216   1.977   6.422   7.638  2.1281 -0.0953 -2.1933
26135SOL    HW283217   1.939   6.338   7.518 -2.6932 -0.2568 -0.7710
26136SOL     OW83218  10.960   7.666   6.959  0.3369 -0.4429  0.1243
26136SOL    HW183219  10.880   7.688   6.911 -0.4289 -2.7222  0.2396
26136SOL    HW283220  10.953   7.715   7.041 -0.5005  0.0849 -0.2482
26137SOL     OW83221   2.093   3.332   3.860  0.2136 -0.2364  0.0603
26137SOL    HW183222   2.103   3.425   3.880 -0.0822 -0.3925  0.9619
26137SOL    HW283223   2.125   3.287   3.938  2.4582 -0.9820 -1.1903
26138SOL     OW83224   3.010   1.912   6.748 -0.0520  0.0913 -0.2643
26138SOL    HW183225   2.985   2.004   6.761 -1.7893 -0.0953 -1.8526
26138SOL    HW283226   3.100   1.915   6.717 -0.0502  1.2524 -0.1761
26139SOL     OW83227   2.183   5.974  11.075 -0.5968 -0.2928  0.4044
26139SOL    HW183228   2.238   6.007  11.146 -1.3237  2.3645 -0.1720
26139SOL    HW283229   2.101   5.951  11.117 -0.6401  0.2136  0.6047
26140SOL     OW83230  11.997   0.218  11.935  0.2181  0.8032 -0.1714
26140SOL    HW183231  12.090   0.194  11.937 -0.0743 -0.5301 -1.3029
26140SOL    HW283232  11.992   0.288  11.870  0.0855 -1.0069 -2.2280
26141SOL     OW83233  11.763   8.831   7.632  0.1305 -0.8520  0.4841
26141SOL    HW183234  11.680   8.820   7.679  0.5009  1.0598  1.6631
26141SOL    HW283235  11.823   8.769   7.675 -0.3767 -1.4522  0.3461
26142SOL     OW83236  12.399   9.451   5.992 -0.1749 -0.8621 -0.3359
26142SOL    HW183237  12.350   9.523   6.032  1.6393  0.2394  0.0347
26142SOL    HW283238  12.373   9.451   5.900  1.1180  1.5441 -0.7836
26143SOL     OW83239   4.806   7.027   9.842  0.0188 -0.0452  0.4917
26143SOL    HW183240   4.858   7.008   9.920 -1.5169  1.1328  1.8754
26143SOL    HW283241   4.836   7.113   9.812 -0.7859  0.4533  1.0551
26144SOL     OW83242   5.602   5.504   5.711  0.2085  0.0746 -0.0210
26144SOL    HW183243   5.586   5.438   5.779 -0.2228 -0.3645 -0.5361
26144SOL    HW283244   5.668   5.464   5.655 -1.4397 -0.7867 -1.4479
26145SOL     OW83245   6.329   9.692   8.814  0.5562  0.1394  0.1947
26145SOL    HW183246   6.285   9.772   8.844  0.2715 -0.5183  1.5919
26145SOL    HW283247   6.409   9.688   8.866 -0.8340 -2.0031  2.3786
26146SOL     OW83248  12.030   3.789   4.478 -0.7901 -0.4721 -0.1292
26146SOL    HW183249  11.978   3.765   4.401 -2.0117 -0.4845  0.6674
26146SOL    HW283250  12.060   3.706   4.513 -1.0424 -0.5325 -0.0526
26147SOL     OW83251   1.484   8.482   2.948  0.4938  0.4146 -0.1627
26147SOL    HW183252   1.404   8.532   2.965 -1.5843 -2.1484 -1.6064
26147SOL    HW283253   1.499   8.493   2.854 -0.4415 -2.0428 -0.6842
26148SOL     OW83254   3.730   9.406   0.419  0.4873  0.2005 -0.3409
26148SOL    HW183255   3.681   9.376   0.495 -1.7319  3.7196 -0.1549
26148SOL    HW283256   3.665   9.408   0.348  1.1733  1.7853 -0.9679
26149SOL     OW83257   9.536   7.422   2.583  0.2816 -0.0663  0.3644
26149SOL    HW183258   9.576   7.388   2.504 -0.3166  1.0692 -0.4593
26149SOL    HW283259   9.485   7.498   2.554 -0.3973  0.0520  1.7495
26150SOL     OW83260   4.472   2.431   2.306  0.0080 -0.0200 -0.4433
26150SOL    HW183261   4.451   2.390   2.389 -2.3608  0.6244 -0.6556
26150SOL    HW283262   4.390   2.470   2.276  0.6145 -0.6835 -3.3414
26151SOL     OW83263  11.394   6.944   4.818 -0.3141 -0.5711  0.3217
26151SOL    HW183264  11.390   6.874   4.882 -0.2734 -0.1827  0.7571
26151SOL    HW283265  11.487   6.967   4.813 -0.2742 -0.8222 -0.1240
26152SOL     OW83266   3.348   2.049  10.314 -0.1084  0.3275 -0.2509
26152SOL    HW183267   3.352   2.141  10.337 -1.4855  0.7486 -1.5050
26152SOL    HW283268   3.256   2.034  10.290 -0.0617 -1.5406  0.5851
26153SOL     OW83269   9.806   7.336   1.526  0.2033  0.3219 -0.1969
26153SOL    HW183270   9.786   7.267   1.463  1.4632 -0.5938  0.3536
26153SOL    HW283271   9.804   7.417   1.475  3.4593 -0.5761 -2.0694
26154SOL     OW83272  10.418   5.051   7.801 -0.1657  0.7662  0.0776
26154SOL    HW183273  10.428   5.143   7.779  1.7060  0.1335 -2.1170
26154SOL    HW283274  10.419   5.006   7.716 -1.2514 -1.2826  1.0704
26155SOL     OW83275  12.094   4.610   9.393 -0.0662 -0.2449 -0.5218
26155SOL    HW183276  12.058   4.574   9.473  2.7689  0.9251  1.4569
26155SOL    HW283277  12.102   4.536   9.334  1.1557 -1.9875  1.6610
26156SOL     OW83278   7.223   0.408  10.583 -0.1869  0.2966 -0.0366
26156SOL    HW183279   7.273   0.449  10.513 -0.3376  0.1883 -0.2091
26156SOL    HW283280   7.262   0.322  10.594 -1.3581 -0.4472 -1.3002
26157SOL     OW83281   3.646   1.487   5.678  0.3261  0.0750  0.4184
26157SOL    HW183282   3.688   1.543   5.612  0.3367 -1.7205 -1.1707
26157SOL    HW283283   3.660   1.398   5.647 -0.2230 -0.8275  2.5568
26158SOL     OW83284  10.347   9.092   8.520  0.0555  0.1346 -0.0361
26158SOL    HW183285  10.312   9.154   8.584  0.3248 -0.1695  0.4100
26158SOL    HW283286  10.338   9.006   8.562  0.4176 -0.0478 -0.3276
26159SOL     OW83287   2.973   7.515  10.630  0.0700 -0.1796 -0.6407
26159SOL    HW183288   2.968   7.424  10.601 -2.9491 -0.2980 -0.1304
26159SOL    HW283289   2.900   7.558  10.586 -0.8906  1.0731  1.9498
26160SOL     OW83290   3.465  12.253  10.223  0.6249  0.2295 -0.3345
26160SOL    HW183291   3.490  12.267  10.315  1.3256  0.2282 -0.5227
26160SOL    HW283292   3.402  12.181  10.227  0.8165  0.0813  0.1199
26161SOL     OW83293   6.250   1.522   9.368  0.3459  0.2690  0.0563
26161SOL    HW183294   6.315   1.591   9.353 -0.1362  0.7321  0.0709
26161SOL    HW283295   6.262   1.460   9.296  0.7336  0.4070  0.0017
26162SOL     OW83296   9.711   5.344   5.841 -0.3028  0.5305 -0.3897
26162SOL    HW183297   9.655   5.421   5.847 -0.5962  0.2438  0.9772
26162SOL    HW283298   9.746   5.333   5.930  1.0237  0.0441 -0.9488
26163SOL     OW83299   1.265   5.351   6.427  0.0050  0.5714 -0.1432
26163SOL    HW183300   1.209   5.284   6.387 -1.4974  0.7699  1.4702
26163SOL    HW283301   1.223   5.434   6.403  0.3359  0.7945  0.0471
26164SOL     OW83302   2.300  12.200   0.890 -0.6736  0.8007  1.0217
26164SOL    HW183303   2.297  12.274   0.950  0.9870  1.9449 -0.1936
26164SOL    HW283304   2.369  12.224   0.827 -0.5441 -1.4977  0.2140
26165SOL     OW83305   1.869   6.726  10.935  0.3389  0.0762 -0.1383
26165SOL    HW183306   1.950   6.679  10.956 -0.3637 -1.0803  0.0773
26165SOL    HW283307   1.799   6.671  10.971 -0.7003 -0.1772 -2.3586
26166SOL     OW83308  10.528   7.634  11.120  0.1708  0.8565 -0.5785
26166SOL    HW183309  10.600   7.651  11.180 -0.7011 -0.7770  1.0345
26166SOL    HW283310  10.535   7.541  11.101 -0.6041  1.0053 -1.6550
26167SOL     OW83311  11.642   7.764   3.200 -0.0014 -0.3233  0.0881
26167SOL    HW183312  11.605   7.750   3.287 -1.7119  0.2855 -0.5090
26167SOL    HW283313  11.627   7.682   3.153 -1.9831  0.3808 -0.6031
26168SOL     OW83314   5.013  11.694   0.435  0.0097 -0.1139 -0.3756
26168SOL    HW183315   5.100  11.656   0.441 -0.2502 -0.6442  0.2305
26168SOL    HW283316   4.970  11.644   0.365 -0.1974 -0.6621  0.1416
26169SOL     OW83317   5.639  10.048   5.118  0.0071  0.0458 -0.0309
26169SOL    HW183318   5.700  10.083   5.183  0.9859 -0.1023 -0.8493
26169SOL    HW283319   5.553  10.083   5.144  0.7103  1.7773  0.0736
26170SOL     OW83320   8.989   5.651   9.495 -0.8144  0.2240 -0.5764
26170SOL    HW183321   8.987   5.728   9.440 -0.1617  0.7378  0.0956
26170SOL    HW283322   9.058   5.668   9.559 -2.1122  0.0565  0.9676
26171SOL     OW83323   0.869   9.739   8.322  0.2066 -0.2127 -0.2494
26171SOL    HW183324   0.942   9.755   8.382 -1.6050  1.0747  1.7370
26171SOL    HW283325   0.801   9.700   8.375 -0.5523 -1.5882 -2.1079
26172SOL     OW83326   3.622   1.397   0.143 -0.1167  0.2262  0.7660
26172SOL    HW183327   3.580   1.371   0.224 -1.0344 -0.4420  0.0942
26172SOL    HW283328   3.708   1.353   0.145 -1.2783 -2.2561  0.0735
26173SOL     OW83329   9.050   0.085   1.731 -0.1653  0.1431  0.3005
26173SOL    HW183330   9.016   0.022   1.667  2.1926 -0.7572 -0.1898
26173SOL    HW283331   9.069   0.163   1.680 -1.8916  0.8595  0.6787
26174SOL     OW83332  11.419   2.679   9.477 -0.2484 -0.1977  0.0619
26174SOL    HW183333  11.329   2.650   9.458  0.6027 -2.7021 -0.5346
26174SOL    HW283334  11.426   2.764   9.435 -1.6339 -1.0378 -2.0438
26175SOL     OW83335  10.175  11.087  12.196  0.2346 -0.2902  0.0076
26175SOL    HW183336  10.183  11.028  12.121 -0.4876  0.9658 -1.0997
26175SOL    HW283337  10.261  11.130  12.200  0.4245 -0.6747  0.1965
26176SOL     OW83338  12.314   8.204   8.365 -0.3220  0.0485  0.2838
26176SOL    HW183339  12.385   8.256   8.328 -0.9361  0.8623  0.2078
26176SOL    HW283340  12.302   8.132   8.303  1.0958 -0.6757  0.8211
26177SOL     OW83341   3.236   5.437   0.234  0.1762 -0.5967 -0.4227
26177SOL    HW183342   3.172   5.444   0.163 -1.7870  2.5477  1.4112
26177SOL    HW283343   3.238   5.343   0.255 -1.2335 -1.2385 -2.7740
26178SOL     OW83344   9.182   7.595   2.794 -0.7109  0.0181 -0.0586
26178SOL    HW183345   9.153   7.543   2.869 -2.1423 -0.5879 -0.9872
26178SOL    HW283346   9.127   7.565   2.722  1.2196 -0.0552 -1.5834
26179SOL     OW83347   0.641   6.480  10.020 -0.0610 -0.3476 -0.3535
26179SOL    HW183348   0.638   6.573   9.998 -1.3542 -0.9465 -3.1485
26179SOL    HW283349   0.554   6.461  10.054  0.2243 -0.5313  0.2795
26180SOL     OW83350  10.871  12.630   2.599 -0.5033  0.4104  0.0131
26180SOL    HW183351  10.940  12.694   2.613 -1.4619  1.5692 -0.4275
26180SOL    HW283352  10.908  12.568   2.536 -0.0154  1.2868 -0.5786
26181SOL     OW83353   6.189  11.319   1.406 -0.0094  0.0206 -0.1592
26181SOL    HW183354   6.240  11.240   1.426  1.8078  1.1510 -0.1148
26181SOL    HW283355   6.115  11.315   1.467  1.1343 -0.6372  1.2566
26182SOL     OW83356  11.159   6.451   5.373  0.4394  0.1512  0.0805
26182SOL    HW183357  11.220   6.378   5.372  0.3573  0.0766 -1.1717
26182SOL    HW283358  11.194   6.513   5.309 -0.4873  0.3494 -0.2613
26183SOL     OW83359   4.352   8.251   8.270  0.4412 -0.1026  0.7279
26183SOL    HW183360   4.444   8.258   8.297  0.6894  0.6660 -0.2487
26183SOL    HW283361   4.302   8.264   8.350  1.1872 -0.2299  1.2178
26184SOL     OW83362   5.588   6.970   9.947 -0.5846  0.0731  0.3313
26184SOL    HW183363   5.636   6.892   9.975 -1.1055  0.0624  1.2405
26184SOL    HW283364   5.626   7.041   9.998  0.1252  0.4870 -0.7506
26185SOL     OW83365   8.627   4.871   9.625 -0.1951 -0.4089  0.3114
26185SOL    HW183366   8.654   4.878   9.716  1.6430 -1.7073 -0.0946
26185SOL    HW283367   8.539   4.909   9.624 -0.5025 -0.8910  2.7195
26186SOL     OW83368  11.508   2.549   2.197  0.0680  0.1461 -0.2316
26186SOL    HW183369  11.453   2.520   2.269  1.2025  0.0046  0.6120
26186SOL    HW283370  11.588   2.497   2.205  1.1701  1.7791 -0.1460
26187SOL     OW83371   2.386   5.883   1.911  0.3138  0.7311  0.3217
26187SOL    HW183372   2.331   5.838   1.975  2.4781 -0.1089  1.7209
26187SOL    HW283373   2.380   5.976   1.935  0.4694  0.5103  1.2799
26188SOL     OW83374   6.927   6.215   8.504 -0.2522 -0.1791  0.2737
26188SOL    HW183375   6.861   6.197   8.438 -0.3502  1.1154 -0.0081
26188SOL    HW283376   6.906   6.303   8.536  1.0129  0.0406  0.5660
26189SOL     OW83377   5.865  12.400   0.520  0.8068  0.2061  0.1903
26189SOL    HW183378   5.781  12.443   0.512  1.0501  0.5777 -0.3915
26189SOL    HW283379   5.912  12.423   0.440  1.1008 -0.7790  0.0657
26190SOL     OW83380  10.845   5.379   7.734 -1.1215  0.2512 -0.2541
26190SOL    HW183381  10.776   5.332   7.780  0.9607 -1.9664  0.8490
26190SOL    HW283382  10.877   5.317   7.668  0.1917  0.9664 -0.3270
26191SOL     OW83383   5.800   0.931   8.528  0.5756 -0.0101  0.0766
26191SOL    HW183384   5.828   1.021   8.536  0.5531  0.1207 -1.1334
26191SOL    HW283385   5.723   0.924   8.586  1.6395  0.2328  1.5779
26192SOL     OW83386   2.921   5.653  10.678 -0.7805 -0.0722 -0.0301
26192SOL    HW183387   2.922   5.739  10.718 -1.0672  0.6571 -1.5192
26192SOL    HW283388   2.839   5.649  10.630  0.0581 -0.4057 -1.5116
26193SOL     OW83389  10.745   4.810   3.459  0.1277 -0.1795  0.0663
26193SOL    HW183390  10.722   4.721   3.433 -1.7981  0.9590 -2.6983
26193SOL    HW283391  10.662   4.848   3.490  0.8062  0.7981  0.7473
26194SOL     OW83392   3.986  10.121  12.326  0.5159  0.2624  0.2413
26194SOL    HW183393   3.934  10.146  12.249  0.0281  0.0501  0.4991
26194SOL    HW283394   4.009  10.029  12.311 -0.3294 -0.0466  0.7551
26195SOL     OW83395   9.954   4.924   6.178 -0.1646 -0.4638  0.1052
26195SOL    HW183396   9.998   4.939   6.094 -0.4361 -0.4721 -0.0381
26195SOL    HW283397   9.867   4.892   6.155 -2.1528  4.0574  0.1751
26196SOL     OW83398   4.074   2.384  10.870  0.4363 -0.1677 -0.9398
26196SOL    HW183399   4.151   2.328  10.859 -0.0924 -1.6129  1.9330
26196SOL    HW283400   4.110   2.473  10.879  1.7094 -0.6965 -0.5810
26197SOL     OW83401  11.163   6.886   5.965  0.0235  0.0283  0.3818
26197SOL    HW183402  11.178   6.876   6.059  0.5864 -1.0251  0.1949
26197SOL    HW283403  11.234   6.943   5.936  0.7801 -0.8948  0.3527
26198SOL     OW83404   7.342   4.103   8.075  0.1864 -0.0892  0.2485
26198SOL    HW183405   7.423   4.123   8.123  0.2340  0.2081  0.0479
26198SOL    HW283406   7.276   4.159   8.115  0.4385  0.9271 -0.6890
26199SOL     OW83407   5.181   8.235   6.726  0.3535 -0.0973  0.5071
26199SOL    HW183408   5.155   8.146   6.751 -0.1430  0.2634  1.3232
26199SOL    HW283409   5.099   8.282   6.714  0.6112  0.3901  0.6105
26200SOL     OW83410   6.846   6.721   7.169  0.3528  0.4209 -0.0003
26200SOL    HW183411   6.807   6.682   7.247 -1.4035 -0.8776 -1.4412
26200SOL    HW283412   6.918   6.662   7.146 -0.9264 -0.8371 -0.9326
26201SOL     OW83413   3.111   3.643   4.969 -0.6635  0.5639 -0.3163
26201SOL    HW183414   3.049   3.681   5.032  0.2297  1.1897  0.2022
26201SOL    HW283415   3.141   3.718   4.917  0.6630  0.4993  0.3159
26202SOL     OW83416   6.641  10.943  12.546  0.4103 -0.2203 -0.2030
26202SOL    HW183417   6.677  10.869  12.595 -0.6616  0.3860  1.6210
26202SOL    HW283418   6.583  10.903  12.481  1.1320 -1.0184 -0.3771
26203SOL     OW83419  11.116   9.262   4.597  0.2425 -0.1085 -0.0724
26203SOL    HW183420  11.067   9.264   4.679  1.5416  0.4189  0.7210
26203SOL    HW283421  11.114   9.170   4.570  0.7135 -0.5002  1.1366
26204SOL     OW83422   7.941   3.812   5.058 -0.6401 -0.2451 -0.4826
26204SOL    HW183423   7.999   3.861   5.116  0.5027  0.0679 -1.8447
26204SOL    HW283424   7.975   3.723   5.060 -0.8510 -0.3247 -0.3716
26205SOL     OW83425   5.504   8.911   9.832  0.5312 -0.4019 -0.7638
26205SOL    HW183426   5.426   8.870   9.794 -0.4503 -2.5918  3.0981
26205SOL    HW283427   5.572   8.845   9.823  1.5326  0.7702 -2.3982
26206SOL     OW83428  12.002  12.562  11.717  0.4898  0.2809 -0.1688
26206SOL    HW183429  11.987  12.607  11.801  0.1411 -0.7446  0.3299
26206SOL    HW283430  12.083  12.601  11.684 -0.8586  2.8092 -0.7945
26207SOL     OW83431   8.695   1.926   3.730  0.1773 -0.2018  0.1404
26207SOL    HW183432   8.600   1.917   3.725  0.2629 -0.3411 -1.8036
26207SOL    HW283433   8.718   1.882   3.812 -1.3325 -1.0565  0.1556
26208SOL     OW83434  11.963  12.296   2.583 -0.6681 -0.6122 -0.4243
26208SOL    HW183435  12.038  12.239   2.600 -0.1483 -0.4116 -1.8468
26208SOL    HW283436  11.892  12.237   2.559 -0.7738 -0.7646  0.2486
26209SOL     OW83437   9.454  12.080   0.853 -0.3978 -0.5159 -0.1189
26209SOL    HW183438   9.407  12.054   0.932 -1.4112  0.4091 -0.3942
26209SOL    HW283439   9.494  12.164   0.875  1.5859 -1.5038  0.2680
26210SOL     OW83440   9.138   4.629   0.993  0.0618  0.0541  0.5841
26210SOL    HW183441   9.044   4.613   0.983  0.0149 -0.2609  1.4921
26210SOL    HW283442   9.148   4.724   0.983 -0.3663  0.1026  0.6208
26211SOL     OW83443   8.808   1.971   1.571  0.6128 -0.4760  0.7487
26211SOL    HW183444   8.832   2.046   1.625  1.7237 -0.5171  0.3389
26211SOL    HW283445   8.886   1.954   1.517  0.3863 -1.9163  0.8324
26212SOL     OW83446   5.168   1.454   7.457  0.3910  0.7923 -0.1439
26212SOL    HW183447   5.216   1.526   7.498  1.0057  0.5428 -0.4177
26212SOL    HW283448   5.219   1.376   7.479  0.6288  0.6345 -1.2415
26213SOL     OW83449   5.696   4.288   3.722 -0.4820 -0.0830 -0.3346
26213SOL    HW183450   5.680   4.198   3.751  0.2771  0.0042  0.3896
26213SOL    HW283451   5.778   4.282   3.672 -0.9248  0.0493 -1.0836
26214SOL     OW83452   2.205   3.342   4.571  0.0545 -0.0591  0.3595
26214SOL    HW183453   2.216   3.436   4.561 -1.8752  0.0975 -0.9112
26214SOL    HW283454   2.114   3.331   4.599  0.5336 -1.5046  1.4872
26215SOL     OW83455  11.082   3.530   9.544 -0.0721 -0.5304  0.0902
26215SOL    HW183456  11.104   3.438   9.535 -0.3592 -0.4202 -2.2558
26215SOL    HW283457  11.148   3.576   9.493  0.0763  0.5977  1.2299
26216SOL     OW83458   7.412   4.594   1.456  0.0184 -0.1128  0.5349
26216SOL    HW183459   7.411   4.511   1.502 -0.0884 -1.7973 -2.3004
26216SOL    HW283460   7.356   4.581   1.380 -0.7005  2.8591  0.4322
26217SOL     OW83461  10.081   6.299   8.047  0.4560 -0.6928  0.5787
26217SOL    HW183462   9.996   6.269   8.078  0.3723 -1.8453 -0.6923
26217SOL    HW283463  10.144   6.258   8.107  0.1340  0.6731  1.9153
26218SOL     OW83464   5.249   7.542   2.182 -0.2590 -0.1637 -0.1163
26218SOL    HW183465   5.232   7.548   2.276  1.6960 -1.8644  0.4111
26218SOL    HW283466   5.166   7.570   2.141 -0.7397  1.8501  2.0310
26219SOL     OW83467   4.776   4.149   1.150  0.3220 -0.2635 -0.1619
26219SOL    HW183468   4.851   4.203   1.174  1.9861 -2.0006 -1.1408
26219SOL    HW283469   4.783   4.072   1.207 -0.3550 -0.7279 -0.6981
26220SOL     OW83470   6.744  12.552  11.736 -0.3442  0.3665  0.1615
26220SOL    HW183471   6.830  12.513  11.720 -0.5822  0.1258 -0.6076
26220SOL    HW283472   6.683  12.497  11.686 -0.6307  2.0087 -1.4112
26221SOL     OW83473  10.436   6.441   6.420 -0.5536  0.2860 -0.0650
26221SOL    HW183474  10.426   6.514   6.480  1.1428 -0.1286  0.7855
26221SOL    HW283475  10.366   6.453   6.355 -2.3524  0.8457  1.8621
26222SOL     OW83476  12.408   5.059  11.719 -0.4617 -0.7686 -0.2441
26222SOL    HW183477  12.337   5.006  11.754 -1.0656  0.0318 -0.2239
26222SOL    HW283478  12.365   5.117  11.656  0.4583 -1.5461 -1.6454
26223SOL     OW83479  12.435  11.885   7.391 -0.3737  0.4832 -0.0339
26223SOL    HW183480  12.502  11.885   7.323  0.3871  3.4312  0.5579
26223SOL    HW283481  12.382  11.807   7.373  1.4167 -0.3304 -2.3000
26224SOL     OW83482   7.592  11.077   7.720  0.6917 -0.0272 -0.6355
26224SOL    HW183483   7.634  11.039   7.642 -0.8095 -0.2566 -1.3793
26224SOL    HW283484   7.565  11.164   7.692  0.7634  0.1528 -0.1448
26225SOL     OW83485   0.615   3.400   4.556 -0.3747  0.0994 -0.0761
26225SOL    HW183486   0.590   3.410   4.647  0.6482 -1.4690  0.4196
26225SOL    HW283487   0.710   3.414   4.555 -0.4405  0.5631 -0.9791
26226SOL     OW83488   9.429  10.225   7.338 -0.2641  0.1467 -0.1603
26226SOL    HW183489   9.510  10.176   7.332 -0.9783 -1.3472  1.5260
26226SOL    HW283490   9.445  10.291   7.406 -0.4752 -0.1934  0.2222
26227SOL     OW83491   9.166   7.679  10.657 -0.1590 -0.9486 -0.5167
26227SOL    HW183492   9.244   7.640  10.696 -0.5442 -1.0310  0.2080
26227SOL    HW283493   9.181   7.675  10.563  1.1792  0.0126 -0.3742
26228SOL     OW83494  11.924   6.395   3.781  0.4408  0.3678 -0.5623
26228SOL    HW183495  11.860   6.331   3.812  1.1583 -0.2480 -0.3291
26228SOL    HW283496  11.914   6.394   3.686  0.9883 -0.6856 -0.6219
26229SOL     OW83497   0.713  11.955   9.470 -0.4294 -0.0000 -0.3442
26229SOL    HW183498   0.767  12.015   9.521  0.6499  0.3574 -1.8294
26229SOL    HW283499   0.662  11.907   9.535 -0.2019  1.4540  0.9643
26230SOL     OW83500   3.688   0.878  12.218  0.1538 -0.4617 -0.4519
26230SOL    HW183501   3.609   0.829  12.198 -0.4482  0.2638  0.0993
26230SOL    HW283502   3.658   0.967  12.234  0.7590 -0.6342  2.1046
26231SOL     OW83503   4.761   1.937   5.853 -0.2645 -0.2161  0.1533
26231SOL    HW183504   4.685   1.993   5.840  1.3795  2.4535  1.3354
26231SOL    HW283505   4.780   1.942   5.946  1.4446 -0.7207 -0.1296
26232SOL     OW83506   7.308   0.447   3.872  0.0485  0.7113 -0.0642
26232SOL    HW183507   7.382   0.434   3.813  0.5676  1.9635  0.2740
26232SOL    HW283508   7.313   0.539   3.897 -2.1306  1.0622 -0.6873
26233SOL     OW83509   0.150  11.244   8.001 -1.1294 -0.3256  0.7971
26233SOL    HW183510   0.246  11.249   8.003 -1.1670  0.7195  0.2510
26233SOL    HW283511   0.125  11.242   8.093 -0.5859 -0.5669  0.9463
26234SOL     OW83512   5.258   9.289  11.649 -0.3469 -0.3233 -0.1756
26234SOL    HW183513   5.272   9.202  11.685  0.3861  0.5901  1.9114
26234SOL    HW283514   5.333   9.304  11.591  1.4187  0.1284  2.0612
26235SOL     OW83515   2.589   1.692   4.687 -0.4156  0.2453  0.4601
26235SOL    HW183516   2.633   1.610   4.664  0.0500  0.5119  0.3810
26235SOL    HW283517   2.606   1.703   4.781 -0.5217  0.2272  0.4818
26236SOL     OW83518   6.869   5.920   4.455 -0.2798 -0.3807 -0.0343
26236SOL    HW183519   6.929   5.896   4.385  0.5087 -1.1804  0.8968
26236SOL    HW283520   6.896   5.866   4.530 -2.3023 -0.9664  0.3383
26237SOL     OW83521   6.247   2.276   5.761 -0.2239 -0.0779 -0.1023
26237SOL    HW183522   6.330   2.287   5.714  0.9063 -0.7090  1.6231
26237SOL    HW283523   6.182   2.318   5.706  0.8288 -1.6076 -2.7007
26238SOL     OW83524   4.573   1.775   3.032  0.2264 -0.3281  0.0853
26238SOL    HW183525   4.658   1.819   3.038  0.2298  0.1433 -2.3341
26238SOL    HW283526   4.518   1.838   2.986 -0.5577 -1.7840 -1.0315
26239SOL     OW83527   0.658   8.014  12.064  0.4997  0.7340 -0.2798
26239SOL    HW183528   0.566   8.027  12.089  0.4073 -0.8475  0.3106
26239SOL    HW283529   0.690   7.946  12.124  2.0374  1.1806 -0.5419
26240SOL     OW83530   6.435   8.280   2.781  0.3918 -0.2360 -0.0813
26240SOL    HW183531   6.394   8.199   2.751 -0.8705 -0.0084  0.9361
26240SOL    HW283532   6.493   8.253   2.852 -1.1517 -0.1386  1.2858
26241SOL     OW83533  10.671   3.069   6.285  0.2796 -0.3656 -0.5599
26241SOL    HW183534  10.741   3.134   6.284 -0.9145  0.9867 -2.3004
26241SOL    HW283535  10.616   3.094   6.359  0.7820 -0.4981 -0.1356
26242SOL     OW83536   5.863  11.401  10.738 -0.0443  0.6070 -0.0474
26242SOL    HW183537   5.959  11.398  10.735  0.1157 -0.3108  2.5096
26242SOL    HW283538   5.842  11.493  10.754  0.5602  0.5829  1.0063
26243SOL     OW83539   3.918  12.491   9.274  0.4279 -0.6705  0.2104
26243SOL    HW183540   3.990  12.488   9.210  1.3453 -3.4539  1.2503
26243SOL    HW283541   3.927  12.578   9.315  0.2020  0.9464 -2.8694
26244SOL     OW83542   7.163   6.475  12.388  0.3882 -0.3519 -0.2648
26244SOL    HW183543   7.105   6.540  12.347  1.5117 -0.3379 -1.9703
26244SOL    HW283544   7.223   6.527  12.442  0.1478 -0.1557 -0.1840
26245SOL     OW83545   2.612   4.382   5.702 -0.0352 -0.1164 -0.0809
26245SOL    HW183546   2.532   4.337   5.677 -0.0114 -0.4842  0.4964
26245SOL    HW283547   2.589   4.432   5.780 -0.1347  1.1075 -0.8719
26246SOL     OW83548   6.836  12.435   6.590 -0.8157  0.2901 -0.3342
26246SOL    HW183549   6.885  12.355   6.609 -0.8526  0.7737  2.0536
26246SOL    HW283550   6.894  12.486   6.533  0.7111  0.0479  0.9336
26247SOL     OW83551   8.728   4.246   9.474  0.5252  0.2374  0.1888
26247SOL    HW183552   8.801   4.307   9.485 -0.2154  1.1803  0.0337
26247SOL    HW283553   8.769   4.159   9.472  1.7153  0.7924 -0.6991
26248SOL     OW83554  11.415   4.653   8.664  0.0487 -0.7105  0.2932
26248SOL    HW183555  11.481   4.658   8.595 -0.1826 -0.3224  0.0961
26248SOL    HW283556  11.332   4.667   8.618 -0.1844 -1.3179  0.5160
26249SOL     OW83557   6.331   6.843  11.873 -0.2523 -0.6975  0.0323
26249SOL    HW183558   6.409   6.861  11.821  0.1011  0.9861  1.0619
26249SOL    HW283559   6.327   6.916  11.935 -1.6507 -1.7041  1.1729
26250SOL     OW83560   9.001   5.944   1.092  0.1886 -0.0149 -0.1194
26250SOL    HW183561   8.993   6.016   1.155 -1.6278  1.1157 -1.5236
26250SOL    HW283562   8.986   5.865   1.144 -1.1150  0.8654  0.9231
26251SOL     OW83563   8.331   2.719   5.284 -0.2758  0.0193 -0.1800
26251SOL    HW183564   8.237   2.702   5.287 -0.2871  0.2308  1.1054
26251SOL    HW283565   8.339   2.814   5.299  0.1367  0.0038 -0.2865
26252SOL     OW83566   5.417   2.767   5.747  0.1616  0.6817 -0.3453
26252SOL    HW183567   5.428   2.700   5.814 -1.0271 -0.9494 -1.6866
26252SOL    HW283568   5.363   2.835   5.789 -0.0338 -0.0018  0.5342
26253SOL     OW83569   1.101   2.568   7.352  0.6343  0.3071  0.2145
26253SOL    HW183570   1.050   2.491   7.326  1.5111 -0.4418  0.6174
26253SOL    HW283571   1.191   2.547   7.325  0.5393  2.2616 -1.9385
26254SOL     OW83572  10.378  12.574   1.073 -0.4200 -0.0421  0.2924
26254SOL    HW183573  10.332  12.502   1.116  0.3498 -1.5332 -1.2478
26254SOL    HW283574  10.417  12.624   1.145 -0.9106 -1.2136  1.4178
26255SOL     OW83575   8.798   4.648  12.371 -0.5188 -0.3263 -0.2311
26255SOL    HW183576   8.851   4.672  12.447 -1.2508  1.2587 -0.1811
26255SOL    HW283577   8.716   4.696  12.383 -0.2461  0.8608 -2.5573
26256SOL     OW83578   0.748   3.496  12.094  1.0168 -0.0068  0.2449
26256SOL    HW183579   0.779   3.468  12.008  0.4000 -1.9897  0.6248
26256SOL    HW283580   0.653   3.487  12.089  0.9651  0.0667  1.0784
26257SOL     OW83581  10.908   3.616  12.571 -0.3790 -0.1633  0.1370
26257SOL    HW183582  10.952   3.570  12.500 -1.7201  0.0671 -0.8893
26257SOL    HW283583  10.851   3.549  12.611 -1.9425  0.4110 -1.0276
26258SOL     OW83584   5.675   6.737   6.624  0.0878  0.1547 -0.1811
26258SOL    HW183585   5.642   6.798   6.559 -0.4749  0.0291 -0.0178
26258SOL    HW283586   5.669   6.651   6.582  2.2279  0.3142 -0.9665
26259SOL     OW83587   1.886   4.483   7.236  0.2503  0.1854  0.2003
26259SOL    HW183588   1.921   4.534   7.162  1.2162 -0.8440 -0.0885
26259SOL    HW283589   1.820   4.426   7.197  1.4107 -1.0190 -0.0684
26260SOL     OW83590   6.343   2.684   2.186 -0.3616  0.3887  0.1029
26260SOL    HW183591   6.393   2.638   2.253 -1.5049  1.1351  1.5215
26260SOL    HW283592   6.252   2.664   2.205 -0.7164  0.3844 -1.4287
26261SOL     OW83593   7.797  12.424   8.525  0.1953 -0.1972  0.1649
26261SOL    HW183594   7.828  12.335   8.506 -2.4290 -1.3498  0.6925
26261SOL    HW283595   7.778  12.422   8.619  0.6674  1.1296  0.2993
26262SOL     OW83596  10.685   0.434   9.549 -0.1767 -0.0305  0.0075
26262SOL    HW183597  10.627   0.472   9.484  0.4556  0.4449 -0.2812
26262SOL    HW283598  10.647   0.460   9.633  0.2275  1.2234 -0.1846
26263SOL     OW83599   8.720  10.686   5.664  0.0772 -0.3704  0.3823
26263SOL    HW183600   8.667  10.618   5.707  0.2851 -0.2836  0.7858
26263SOL    HW283601   8.723  10.758   5.727  0.7059 -0.3888  0.3877
26264SOL     OW83602   4.352   6.846  11.789  0.2061 -0.2790  0.1474
26264SOL    HW183603   4.317   6.831  11.877 -1.0328 -1.1832 -0.4775
26264SOL    HW283604   4.426   6.785  11.783  1.1395  0.7253  1.0105
26265SOL     OW83605  11.798  12.116   1.616  0.4567 -0.2416 -0.1415
26265SOL    HW183606  11.787  12.209   1.632 -0.3837 -0.5056  0.9707
26265SOL    HW283607  11.821  12.110   1.523  3.4696  1.2482  0.3774
26266SOL     OW83608   3.708   8.855   5.253 -0.6376  0.4492 -0.0193
26266SOL    HW183609   3.641   8.893   5.196  0.5090 -0.7677 -2.3185
26266SOL    HW283610   3.768   8.927   5.271  0.3882  0.3465 -2.6124
26267SOL     OW83611   8.762   1.424   6.516  0.1917 -0.2172  0.3713
26267SOL    HW183612   8.830   1.489   6.534  0.3469 -0.3007  0.0931
26267SOL    HW283613   8.685   1.476   6.493  0.3935 -0.1318 -0.1264
26268SOL     OW83614  10.689  10.714   8.165 -0.1281 -0.6294  0.3153
26268SOL    HW183615  10.616  10.704   8.226 -0.0939 -0.7352  0.3391
26268SOL    HW283616  10.757  10.657   8.200  0.3720  0.3131  0.9185
26269SOL     OW83617   6.547  11.183   3.308 -0.4218 -0.2300  0.2791
26269SOL    HW183618   6.465  11.133   3.310 -2.0229  2.2262  1.0382
26269SOL    HW283619   6.608  11.128   3.259 -2.7076 -1.8967 -0.8717
26270SOL     OW83620   2.995  12.262  11.348  0.7682  0.2973 -0.1913
26270SOL    HW183621   3.021  12.312  11.425  2.3079  0.1457 -0.5739
26270SOL    HW283622   3.039  12.306  11.275 -0.1698  0.0723 -0.8997
26271SOL     OW83623   9.103  11.182  12.464  1.0566 -0.1469  0.2396
26271SOL    HW183624   9.150  11.155  12.385  0.7137  1.2050 -0.4533
26271SOL    HW283625   9.143  11.265  12.488 -1.5242  1.5476 -0.9270
26272SOL     OW83626   5.106   7.350   2.855  0.5973 -0.2421 -0.1090
26272SOL    HW183627   5.103   7.263   2.816 -0.3876 -0.5526  0.6117
26272SOL    HW283628   5.095   7.335   2.949  2.4954  0.5278  0.2654
26273SOL     OW83629   8.128   2.071   1.972  0.1786  0.6370  0.3672
26273SOL    HW183630   8.097   2.156   1.941  1.1014  0.6040 -0.7042
26273SOL    HW283631   8.220   2.069   1.946  0.0693 -0.8478  0.0509
26274SOL     OW83632   6.431   5.887   8.296  0.4629 -0.9027 -0.1505
26274SOL    HW183633   6.463   5.826   8.362 -0.5032 -1.4705 -0.1966
26274SOL    HW283634   6.368   5.942   8.342  2.6780  1.3733  0.3822
26275SOL     OW83635   9.465   7.382   5.620 -0.0542 -0.5570 -0.4581
26275SOL    HW183636   9.545   7.434   5.624  0.6108 -1.5955 -0.0769
26275SOL    HW283637   9.430   7.386   5.709 -0.3844 -0.1911 -0.5992
26276SOL     OW83638   7.011   0.647   1.077 -0.4564  0.0954  0.0215
26276SOL    HW183639   7.099   0.656   1.116 -0.0973  0.3098 -0.8191
26276SOL    HW283640   6.952   0.682   1.144  0.2239  1.2060  0.0613
26277SOL     OW83641   1.735   2.816   3.682  0.3870 -0.1171  0.3477
26277SOL    HW183642   1.707   2.814   3.774  3.0169  0.9139  1.2971
26277SOL    HW283643   1.739   2.909   3.660  1.8865 -0.2417 -0.0389
26278SOL     OW83644   3.247   5.350   5.476 -0.2883  0.2418 -0.0580
26278SOL    HW183645   3.196   5.360   5.557 -0.6287  1.6463 -0.4088
26278SOL    HW283646   3.187   5.308   5.414  0.4370 -2.2356  0.7945
26279SOL     OW83647  11.645   9.433   3.572 -0.1312 -0.1545  0.0856
26279SOL    HW183648  11.592   9.400   3.500  1.5533  0.9541 -1.7370
26279SOL    HW283649  11.731   9.450   3.534  0.6882  0.9860  2.2380
26280SOL     OW83650   2.711  10.667   2.597  0.0111 -0.0137  0.2753
26280SOL    HW183651   2.754  10.670   2.512 -1.4747  1.5626 -0.4664
26280SOL    HW283652   2.773  10.621   2.653  0.2347 -2.8936 -2.0822
26281SOL     OW83653   8.566   2.504   4.669 -0.3838 -0.0316 -0.6160
26281SOL    HW183654   8.554   2.478   4.761 -1.7560 -0.8020 -0.9693
26281SOL    HW283655   8.483   2.546   4.646  0.3825  1.2111 -1.1887
26282SOL     OW83656  10.753   8.842  12.377  0.0853  0.3404 -0.3986
26282SOL    HW183657  10.829   8.785  12.385 -0.4873 -0.8166 -2.6532
26282SOL    HW283658  10.786   8.920  12.332  0.0423  0.0305 -0.9731
26283SOL     OW83659   4.495   0.521   3.878 -0.1264 -0.0288  0.2523
26283SOL    HW183660   4.417   0.565   3.845 -0.3739 -0.7139 -0.0986
26283SOL    HW283661   4.462   0.454   3.938  0.1771 -0.3757  0.0424
26284SOL     OW83662   0.189   9.939  12.591 -0.0534 -0.5515  0.3544
26284SOL    HW183663   0.152   9.994  12.659 -0.5861 -0.8906  0.3458
26284SOL    HW283664   0.270   9.906  12.629 -0.2041 -0.5133  0.7161
26285SOL     OW83665   8.335  12.575  12.326  0.1320  0.3117  0.3498
26285SOL    HW183666   8.383  12.654  12.353 -1.1495  1.0612  0.5346
26285SOL    HW283667   8.261  12.609  12.275  1.4485 -0.9342 -2.6572
26286SOL     OW83668  10.047   1.165  11.068 -0.2642  0.1967  0.3705
26286SOL    HW183669  10.025   1.139  10.979 -0.8403 -0.7298  0.7662
26286SOL    HW283670  10.110   1.237  11.058 -0.1476 -0.0536 -0.7733
26287SOL     OW83671   3.511  12.522   5.149 -0.1492  0.2379 -0.2449
26287SOL    HW183672   3.593  12.484   5.119  0.1502  1.1731 -0.6452
26287SOL    HW283673   3.525  12.538   5.242 -0.4827 -1.1096  0.0687
26288SOL     OW83674   3.944   0.521   9.716  0.6070 -0.1894  0.6417
26288SOL    HW183675   3.862   0.514   9.765 -0.6316  2.2087 -0.9172
26288SOL    HW283676   3.970   0.430   9.699 -2.3546 -1.0475  0.1785
26289SOL     OW83677   1.943   1.079   6.639 -0.0289 -0.0565 -0.1264
26289SOL    HW183678   1.993   1.159   6.652  0.0764 -0.0436 -0.5790
26289SOL    HW283679   1.991   1.012   6.688  0.4542 -0.0493 -0.5800
26290SOL     OW83680   8.453   2.404   8.099  0.2606  0.8713 -0.1930
26290SOL    HW183681   8.411   2.487   8.075 -0.8256  0.0128 -1.4269
26290SOL    HW283682   8.385   2.357   8.147 -0.0111 -0.2539 -1.6006
26291SOL     OW83683  12.373   1.050   1.950 -0.1778  0.2766 -0.6548
26291SOL    HW183684  12.399   1.019   1.863 -0.9233  1.7700 -1.4570
26291SOL    HW283685  12.415   0.990   2.011 -0.2656 -1.2752 -2.0683
26292SOL     OW83686   5.426  10.296   2.853  0.9468  0.1982  0.0606
26292SOL    HW183687   5.466  10.257   2.775  1.6676  1.1520 -0.0787
26292SOL    HW283688   5.342  10.329   2.823  2.0182  2.3113 -0.8753
26293SOL     OW83689   9.206   1.513   3.165 -0.0295 -0.2570 -0.3007
26293SOL    HW183690   9.183   1.599   3.200 -1.6203  0.1339 -2.1433
26293SOL    HW283691   9.230   1.462   3.241 -1.3487  1.1277  1.1226
26294SOL     OW83692   2.837  11.635   8.888 -0.0629  0.7121 -0.3159
26294SOL    HW183693   2.758  11.689   8.880 -0.1474  0.6613  0.1173
26294SOL    HW283694   2.837  11.607   8.980 -0.0010 -0.0034 -0.5313
26295SOL     OW83695   5.198   5.378   8.663  0.0042  0.6239  0.0431
26295SOL    HW183696   5.237   5.307   8.614 -0.6963  0.8258 -0.8332
26295SOL    HW283697   5.188   5.344   8.752  0.3527 -0.1040 -0.1929
26296SOL     OW83698   2.654   4.747   0.278  0.0935  0.4638 -0.1751
26296SOL    HW183699   2.638   4.684   0.349  0.2629  0.5060 -0.0992
26296SOL    HW283700   2.742   4.781   0.296  0.3687  0.0528 -0.7335
26297SOL     OW83701  11.183   2.262   3.681 -0.0667  0.2939 -0.5953
26297SOL    HW183702  11.127   2.186   3.695  0.5860 -0.1192 -0.1704
26297SOL    HW283703  11.269   2.234   3.712  0.0455  1.4073  0.1205
26298SOL     OW83704  11.647   2.453   6.705 -0.3453 -0.6663 -0.0965
26298SOL    HW183705  11.695   2.501   6.773 -0.3293 -0.4375 -0.2711
26298SOL    HW283706  11.666   2.361   6.725 -0.4789 -0.6081  0.3103
26299SOL     OW83707  11.716   5.611  11.417  0.0169  0.7738  0.0779
26299SOL    HW183708  11.721   5.701  11.384  1.2156  0.7913  0.2737
26299SOL    HW283709  11.759   5.559  11.349  1.3384  0.6479  0.9869
26300SOL     OW83710  11.458  10.861  12.646 -0.3911  0.5047 -0.0337
26300SOL    HW183711  11.452  10.795  12.577  0.7660  0.3409 -0.0075
26300SOL    HW283712  11.385  10.920  12.630 -0.2873  0.3211 -1.2464
26301SOL     OW83713   9.231   1.071   2.303  0.2876 -0.1068 -0.1522
26301SOL    HW183714   9.313   1.057   2.350 -0.2407  1.0599  1.1858
26301SOL    HW283715   9.247   1.034   2.216  1.9604 -0.5847  0.3169
26302SOL     OW83716  12.182   1.611  10.093  0.1623 -0.4698  0.8378
26302SOL    HW183717  12.198   1.639  10.003  2.6300  1.6478  1.7851
26302SOL    HW283718  12.097   1.568  10.090  0.3098 -0.8415 -2.5459
26303SOL     OW83719  10.618   3.396   4.218  0.1381 -0.1636  0.0520
26303SOL    HW183720  10.528   3.427   4.214  0.0392 -0.5790 -1.4515
26303SOL    HW283721  10.649   3.424   4.304 -1.4306 -0.0505  0.6113
26304SOL     OW83722   3.238   0.016   7.326 -0.1734  0.1243  0.4511
26304SOL    HW183723   3.265  -0.008   7.237 -0.2582  0.3753  0.3565
26304SOL    HW283724   3.225   0.111   7.322 -1.1788 -0.0030  0.4666
26305SOL     OW83725   2.396   8.997   1.698 -0.0651  0.1152 -0.1532
26305SOL    HW183726   2.364   8.907   1.694  1.0393 -0.3682  1.3251
26305SOL    HW283727   2.491   8.990   1.692  0.0220  1.2340 -0.4705
26306SOL     OW83728   8.059   5.904   4.496 -0.2528 -0.1446  0.0083
26306SOL    HW183729   8.020   5.987   4.523  0.7518 -0.2277  1.9038
26306SOL    HW283730   8.001   5.837   4.535 -0.1606 -0.3156 -0.1456
26307SOL     OW83731   6.612   3.341   4.916  0.4497  0.2120  0.1373
26307SOL    HW183732   6.564   3.418   4.886 -0.2798 -0.4103 -0.3476
26307SOL    HW283733   6.553   3.268   4.897  0.8358 -0.4022  1.2127
26308SOL     OW83734   7.332  11.033   4.149 -0.6978  0.3130 -0.1807
26308SOL    HW183735   7.304  10.955   4.101  0.3326  0.9425 -1.8958
26308SOL    HW283736   7.417  11.010   4.185 -1.0646  0.1501  0.5957
26309SOL     OW83737   8.010   6.413  11.663 -0.1235 -0.5060 -0.2959
26309SOL    HW183738   7.977   6.326  11.685 -0.5189 -0.9273 -2.2863
26309SOL    HW283739   8.103   6.398  11.643 -0.1689 -0.4685 -0.5390
26310SOL     OW83740   8.728   1.659  10.548  0.0704 -0.2306 -0.3838
26310SOL    HW183741   8.739   1.749  10.579  0.2699 -0.4162  0.0799
26310SOL    HW283742   8.816   1.629  10.527  0.0046 -0.3224 -0.5349
26311SOL     OW83743   8.306   1.505   7.726  0.4169 -0.3673 -0.3828
26311SOL    HW183744   8.389   1.519   7.679  1.2189 -0.6074  0.9016
26311SOL    HW283745   8.333   1.474   7.812 -0.8807  2.3817  1.1368
26312SOL     OW83746   7.308   3.988   0.311  0.0143  0.8080 -0.2347
26312SOL    HW183747   7.274   3.927   0.246 -1.9041  2.4965 -0.8943
26312SOL    HW283748   7.385   4.028   0.270 -0.0194  0.4343 -0.6592
26313SOL     OW83749   8.809   2.153   9.523  0.6473 -0.1288  0.1119
26313SOL    HW183750   8.840   2.084   9.464 -2.5212 -0.4356 -1.4189
26313SOL    HW283751   8.768   2.106   9.595  0.2903  0.1753  0.1091
26314SOL     OW83752   0.731   9.153   7.875  0.2393 -0.0417 -0.5467
26314SOL    HW183753   0.701   9.241   7.851  0.5388 -0.1110 -1.2070
26314SOL    HW283754   0.772   9.164   7.961  1.7871  0.8134 -1.3414
26315SOL     OW83755   2.158   8.767   6.640  0.1652  0.0457 -0.2011
26315SOL    HW183756   2.222   8.701   6.612  0.8739  1.4829 -2.2120
26315SOL    HW283757   2.212   8.841   6.668 -0.6214  0.1595  1.0507
26316SOL     OW83758  10.818  11.633   8.678  0.2110  0.5290  0.0844
26316SOL    HW183759  10.835  11.714   8.630 -0.5928  0.7315  0.1242
26316SOL    HW283760  10.872  11.640   8.756 -1.7203  2.2598  1.3961
26317SOL     OW83761  11.506   0.901   9.999  0.4144 -0.2849  0.2769
26317SOL    HW183762  11.548   0.909   9.913  1.5068 -3.5131  0.3857
26317SOL    HW283763  11.568   0.941  10.060  1.5048 -1.3950 -0.0516
26318SOL     OW83764  11.035   0.660  10.639  0.0127 -0.0909 -0.1167
26318SOL    HW183765  11.030   0.747  10.680 -0.6574 -0.5896  0.8869
26318SOL    HW283766  11.024   0.678  10.546  0.3965  0.9516  0.0203
26319SOL     OW83767   6.868   4.618   0.351 -0.0240  0.0538  0.1646
26319SOL    HW183768   6.818   4.696   0.328  0.8750  0.2892 -1.0707
26319SOL    HW283769   6.936   4.612   0.284  1.0970 -0.7245  1.3193
26320SOL     OW83770   6.352   4.359   3.279 -0.2854 -0.1951 -0.9903
26320SOL    HW183771   6.379   4.451   3.273  0.1768 -0.2697 -0.0536
26320SOL    HW283772   6.257   4.363   3.288 -0.1804  0.2433  0.0516
26321SOL     OW83773   9.028   0.569   6.850  0.4201 -0.0036  1.0770
26321SOL    HW183774   8.978   0.493   6.820  1.0373  0.9478 -2.8718
26321SOL    HW283775   9.119   0.539   6.849  0.6502  0.6679 -0.3433
26322SOL     OW83776   0.065  10.849   5.951 -0.0242 -0.1954 -0.1243
26322SOL    HW183777   0.031  10.888   5.871 -0.9446 -0.1457  0.2712
26322SOL    HW283778   0.087  10.924   6.007 -0.8183 -0.2191  0.2386
26323SOL     OW83779   2.224   6.146   7.803 -0.0151 -0.2566 -0.5627
26323SOL    HW183780   2.248   6.235   7.776  0.2968  0.7689  2.6933
26323SOL    HW283781   2.129   6.149   7.810  0.0880  0.3868  1.0582
26324SOL     OW83782   9.672   3.932   6.532 -0.2623  0.2645  0.1037
26324SOL    HW183783   9.666   4.026   6.549  0.1874  0.2490  0.3678
26324SOL    HW283784   9.589   3.896   6.564 -2.8013  1.1819 -4.5340
26325SOL     OW83785   0.901   0.684   6.856  0.5462 -0.7092  0.0184
26325SOL    HW183786   0.865   0.669   6.769 -2.8614  2.3846  0.6763
26325SOL    HW283787   0.912   0.596   6.893 -1.6990 -1.9972 -2.1398
26326SOL     OW83788   1.491   9.241   3.567 -0.6245 -0.3039  0.2750
26326SOL    HW183789   1.585   9.255   3.577 -0.4155 -0.9924 -0.6347
26326SOL    HW283790   1.459   9.322   3.527 -0.4845  0.0515  0.8587
26327SOL     OW83791   7.276   6.792   0.961  0.7909 -0.8712 -0.4665
26327SOL    HW183792   7.343   6.857   0.943  0.4709 -0.7280 -1.2098
26327SOL    HW283793   7.265   6.793   1.056  0.8649  0.0774 -0.4634
26328SOL     OW83794  10.673   1.529   3.237 -0.7037 -0.2969 -0.4394
26328SOL    HW183795  10.759   1.509   3.201 -0.5782  0.7502 -0.7583
26328SOL    HW283796  10.663   1.470   3.312  0.1712 -0.6125 -0.5676
26329SOL     OW83797   6.522   8.597   5.917  0.3637  0.1033  0.6610
26329SOL    HW183798   6.557   8.573   6.002  1.0929  1.6256  0.8383
26329SOL    HW283799   6.582   8.557   5.854  0.8292  0.4068  0.9078
26330SOL     OW83800   4.542   0.225   3.905 -0.9950 -0.4453 -0.0957
26330SOL    HW183801   4.527   0.226   4.000  0.6159  0.2121  0.1788
26330SOL    HW283802   4.462   0.263   3.868 -0.3676  2.4794  1.2627
26331SOL     OW83803   8.562   4.849   4.857  0.4407 -0.2165 -0.2542
26331SOL    HW183804   8.651   4.856   4.891  0.8186 -0.2509 -1.1989
26331SOL    HW283805   8.515   4.798   4.923  1.2385 -0.5842  0.0468
26332SOL     OW83806   2.656   6.106   3.390 -0.1733 -0.0873 -0.1922
26332SOL    HW183807   2.729   6.044   3.389 -0.3698 -0.3706  1.3410
26332SOL    HW283808   2.659   6.146   3.477 -0.3526  1.7092 -0.9658
26333SOL     OW83809   6.135   3.124   2.871 -0.2144 -0.3135 -0.4325
26333SOL    HW183810   6.086   3.095   2.947  1.9458 -1.7461  0.4928
26333SOL    HW283811   6.210   3.172   2.906 -0.0471  0.4655 -1.7428
26334SOL     OW83812   9.989  10.551  11.508 -0.2428 -0.5176  0.2144
26334SOL    HW183813   9.959  10.622  11.452 -0.3973  0.7813  1.8512
26334SOL    HW283814  10.078  10.576  11.534  0.0836 -1.4314  0.0340
26335SOL     OW83815   6.187   1.361   8.260  0.7177 -0.5365 -0.1270
26335SOL    HW183816   6.242   1.343   8.184  2.2014 -0.5391  0.9082
26335SOL    HW283817   6.119   1.294   8.256  0.2478 -0.0184 -1.9055
26336SOL     OW83818   6.112   4.618   0.694  0.0642  0.4625  0.0432
26336SOL    HW183819   6.140   4.622   0.603 -0.2967  1.8259 -0.0303
26336SOL    HW283820   6.025   4.658   0.694 -1.1063 -1.8557  0.5772
26337SOL     OW83821   5.835  12.484   8.613  0.0645 -0.6194  0.0377
26337SOL    HW183822   5.765  12.489   8.548  0.5410  0.1314 -0.4233
26337SOL    HW283823   5.805  12.541   8.684 -1.1309 -2.5332  1.1719
26338SOL     OW83824   0.701   2.339   8.440  0.0598  0.1573  0.3184
26338SOL    HW183825   0.720   2.429   8.466 -1.1775  0.1628  1.3489
26338SOL    HW283826   0.638   2.348   8.368 -0.3289  0.1291  0.6498
26339SOL     OW83827   5.229  12.273   4.553  0.1481  0.0767 -0.7382
26339SOL    HW183828   5.156  12.241   4.501  0.2700  0.0971 -0.9241
26339SOL    HW283829   5.244  12.205   4.618  1.1474 -0.8049 -1.8466
26340SOL     OW83830   3.079   3.020   0.139 -0.4803 -0.4801 -0.1112
26340SOL    HW183831   3.082   2.944   0.082 -0.0180 -0.5620  0.0172
26340SOL    HW283832   2.986   3.032   0.159 -0.6648 -0.3313 -1.0320
26341SOL     OW83833   6.458   7.239   3.126 -0.2687  0.5766 -0.8338
26341SOL    HW183834   6.387   7.190   3.084  0.2794 -2.1611  1.1654
26341SOL    HW283835   6.425   7.259   3.214  1.0191  0.1147 -0.2092
26342SOL     OW83836  11.261   7.716   7.232 -0.5673  0.0325 -0.3196
26342SOL    HW183837  11.237   7.806   7.210  2.0466  1.0562  0.5368
26342SOL    HW283838  11.304   7.724   7.318 -1.7062 -2.3055  0.5428
26343SOL     OW83839   7.696   6.248   3.133  0.3776  0.1063  0.1707
26343SOL    HW183840   7.680   6.301   3.054 -0.8121 -1.6031 -0.7879
26343SOL    HW283841   7.609   6.225   3.165  0.8617 -0.0474  1.4368
26344SOL     OW83842   7.006   5.352   2.169 -0.0359  0.1049 -0.5291
26344SOL    HW183843   7.059   5.431   2.176  1.0405 -0.7302  1.8215
26344SOL    HW283844   6.943   5.359   2.241  0.8059 -1.6342  0.4549
26345SOL     OW83845  11.793   5.818   5.854  0.1053  0.1888 -0.0540
26345SOL    HW183846  11.854   5.889   5.873 -0.3654  1.0861 -1.7140
26345SOL    HW283847  11.845   5.753   5.806 -0.1664  0.8817 -1.3278
26346SOL     OW83848   4.344  11.742   9.811 -0.1695 -0.2327  0.4154
26346SOL    HW183849   4.288  11.777   9.741 -0.7591  2.2566  1.9908
26346SOL    HW283850   4.290  11.675   9.853 -0.6751 -0.1596 -0.0957
26347SOL     OW83851  12.008  10.784   9.933  0.1847  0.2527  0.0666
26347SOL    HW183852  11.934  10.800   9.875 -1.1312 -0.0107  1.5973
26347SOL    HW283853  11.968  10.756  10.015  1.9828  0.4501  1.0557
26348SOL     OW83854   6.629   1.372   5.005  0.1897  0.3627 -0.4121
26348SOL    HW183855   6.644   1.460   4.971 -1.5489  0.5907 -0.6896
26348SOL    HW283856   6.569   1.332   4.942  0.0133 -0.5978  0.3384
26349SOL     OW83857   1.992   2.683   0.895 -0.5361 -0.1707  0.3388
26349SOL    HW183858   2.050   2.664   0.822 -0.0594 -0.9708  0.9125
26349SOL    HW283859   2.048   2.682   0.972 -1.3405 -1.2593  0.9424
26350SOL     OW83860   2.024   5.493   5.192 -0.7058 -0.4040 -0.4753
26350SOL    HW183861   2.101   5.443   5.219 -0.2139  0.7503  0.3257
26350SOL    HW283862   1.962   5.482   5.264  0.0510  1.4701  0.5435
26351SOL     OW83863   3.294  11.870   1.155 -0.2307  0.2129 -0.4775
26351SOL    HW183864   3.267  11.791   1.110  1.5692 -0.7445  0.0070
26351SOL    HW283865   3.353  11.914   1.094 -1.0598  1.1034 -0.6672
26352SOL     OW83866   6.522   5.412   2.363 -0.7202 -0.4397 -0.2406
26352SOL    HW183867   6.467   5.407   2.285  2.2490  0.1873 -2.5489
26352SOL    HW283868   6.580   5.336   2.356  2.3925  1.8400 -1.0755
26353SOL     OW83869  11.231   7.467  10.679 -0.3187 -0.1799  0.1395
26353SOL    HW183870  11.203   7.502  10.764  0.0961 -0.7595  0.5242
26353SOL    HW283871  11.195   7.378  10.677  0.3596 -0.4574  0.0608
26354SOL     OW83872   6.434   0.587   1.810  0.3071  0.3749  0.4655
26354SOL    HW183873   6.452   0.517   1.873 -0.8003 -1.6252 -1.3352
26354SOL    HW283874   6.510   0.645   1.817  2.8106 -2.5973 -0.0945
26355SOL     OW83875   3.595   4.059   5.994 -0.2949  0.3649 -0.0507
26355SOL    HW183876   3.580   3.999   6.067 -2.0836  0.1104 -0.5707
26355SOL    HW283877   3.608   4.144   6.035  0.0917 -0.0086  0.6128
26356SOL     OW83878   2.627   6.558   8.207 -0.2969  0.5070  0.3100
26356SOL    HW183879   2.721   6.567   8.192 -0.7453  2.4230 -1.9574
26356SOL    HW283880   2.610   6.465   8.193  1.0560  0.3693 -0.6667
26357SOL     OW83881   4.500  10.304   8.120 -0.2218  0.4379  0.2769
26357SOL    HW183882   4.505  10.340   8.209  0.3978  1.8371 -0.2843
26357SOL    HW283883   4.567  10.352   8.071  0.1519 -1.0279 -0.7185
26358SOL     OW83884   5.551   0.489   2.624 -0.2103  0.0506 -0.0158
26358SOL    HW183885   5.505   0.570   2.602  1.8435  1.1879 -0.3521
26358SOL    HW283886   5.568   0.448   2.539  1.0631  0.6281 -0.0599
26359SOL     OW83887   2.131  11.671   4.164 -0.1965 -0.0636 -0.1765
26359SOL    HW183888   2.205  11.689   4.222  0.2932 -1.6655 -0.2471
26359SOL    HW283889   2.069  11.741   4.181  0.0531 -0.3315  2.0926
26360SOL     OW83890   4.093   7.734   1.183 -0.0298 -0.5385  0.2979
26360SOL    HW183891   4.013   7.721   1.234 -0.0786 -0.0784  0.3461
26360SOL    HW283892   4.146   7.657   1.201 -1.3839 -1.9737 -1.4815
26361SOL     OW83893  11.828   7.364  11.690  0.2852  0.2140  0.2602
26361SOL    HW183894  11.857   7.349  11.600 -1.0454  0.0297 -0.1565
26361SOL    HW283895  11.833   7.459  11.701 -1.9957  0.5515 -0.9300
26362SOL     OW83896  11.002   4.671   3.161 -0.2399  0.1606  0.0648
26362SOL    HW183897  11.002   4.576   3.148  2.1048  0.1946 -0.6357
26362SOL    HW283898  10.996   4.682   3.256  0.1089 -0.7241  0.2005
26363SOL     OW83899  11.407   9.472   8.047 -0.3012 -0.2081  0.1295
26363SOL    HW183900  11.443   9.391   8.011 -0.5547 -0.9316  1.4578
26363SOL    HW283901  11.428   9.469   8.140 -1.9501  0.3492  0.5578
26364SOL     OW83902   3.649   7.850   6.758  0.3671 -0.3505 -0.1970
26364SOL    HW183903   3.664   7.882   6.669 -0.0040 -4.3253 -1.9114
26364SOL    HW283904   3.737   7.834   6.792  0.5061  0.9978  0.1195
26365SOL     OW83905   9.164   9.395   5.053 -0.1737  0.6542 -0.0543
26365SOL    HW183906   9.075   9.360   5.048 -0.1494  0.2967  1.6098
26365SOL    HW283907   9.216   9.332   5.002 -0.6626  0.1332  0.0694
26366SOL     OW83908   7.475  11.996  10.986  0.2278  0.2644  0.0478
26366SOL    HW183909   7.570  11.995  11.002  0.1806  1.2719  0.4226
26366SOL    HW283910   7.466  11.996  10.891  0.5604 -1.9308 -0.0401
26367SOL     OW83911   9.081  11.303  10.311 -0.5764 -0.8101 -0.2612
26367SOL    HW183912   9.092  11.376  10.251  0.3449  0.1024  0.9635
26367SOL    HW283913   8.989  11.278  10.303  0.0211 -2.4616 -3.9473
26368SOL     OW83914   3.964  10.476   2.886 -0.3103  0.2231 -0.3958
26368SOL    HW183915   3.954  10.398   2.940 -2.2426  0.2364 -0.6632
26368SOL    HW283916   3.879  10.519   2.889  0.2236  1.4642 -1.5797
26369SOL     OW83917  11.384  10.866  11.937  0.3679  0.0781 -0.4754
26369SOL    HW183918  11.405  10.881  11.844  3.0813 -2.0993 -0.3537
26369SOL    HW283919  11.324  10.792  11.936  1.9127 -1.2355 -0.5243
26370SOL     OW83920   4.546  11.042  12.352  0.3454  0.4841  0.0205
26370SOL    HW183921   4.462  11.002  12.327  0.7406 -1.5417  1.6322
26370SOL    HW283922   4.612  10.987  12.312  0.9074  0.4462  0.9633
26371SOL     OW83923   1.686   1.753   3.627  0.2524 -0.2033  0.2481
26371SOL    HW183924   1.693   1.749   3.532 -2.4305  0.8606 -0.0924
26371SOL    HW283925   1.774   1.776   3.657  1.1390 -0.4721 -1.9475
26372SOL     OW83926   0.031   6.140  10.431  0.0067  0.1813  0.2560
26372SOL    HW183927   0.025   6.044  10.430  1.8337  0.0248 -0.7819
26372SOL    HW283928   0.050   6.161  10.523  1.9179 -0.6847  0.1100
26373SOL     OW83929   7.531   6.234  11.349  0.3112 -0.2121 -0.9058
26373SOL    HW183930   7.587   6.170  11.306  0.5276 -0.3189 -0.4784
26373SOL    HW283931   7.466   6.182  11.396  1.2388 -0.2011  0.4781
26374SOL     OW83932   9.929   5.541   5.409  0.1845 -0.2732  0.5781
26374SOL    HW183933   9.857   5.604   5.416 -0.2717 -0.5761 -1.0111
26374SOL    HW283934   9.900   5.479   5.342  0.1523 -2.8370  2.8075
26375SOL     OW83935  11.243  12.256   7.995 -0.2733  0.1344  0.3186
26375SOL    HW183936  11.176  12.205   7.950  0.1989  0.4654 -0.7898
26375SOL    HW283937  11.282  12.195   8.057 -2.0184  0.1132  1.4595
26376SOL     OW83938   1.667  11.313   9.865  0.8079  0.1049  0.0475
26376SOL    HW183939   1.574  11.288   9.866  0.4680  1.2758  1.0575
26376SOL    HW283940   1.712  11.236   9.900  0.1596 -0.2770  0.0763
26377SOL     OW83941   5.765   5.712   6.887  0.1581 -0.1782  0.5259
26377SOL    HW183942   5.821   5.643   6.851  2.1518  1.7049 -0.2802
26377SOL    HW283943   5.779   5.708   6.981  0.5860 -0.6019  0.4474
26378SOL     OW83944   8.582   2.371   0.655 -0.0827  0.5145  0.0889
26378SOL    HW183945   8.608   2.352   0.565  2.9333  2.1225  0.4753
26378SOL    HW283946   8.520   2.443   0.648  1.5196  1.8843 -0.7298
26379SOL     OW83947  10.105   2.076   5.739  0.4080 -0.2267  0.3818
26379SOL    HW183948  10.061   1.994   5.762 -1.1650  0.3655 -0.3773
26379SOL    HW283949  10.160   2.095   5.814 -1.1350 -0.6786  1.6887
26380SOL     OW83950   9.419   3.998   0.286 -0.7919 -0.3983 -0.0055
26380SOL    HW183951   9.392   3.906   0.278  0.9412 -0.9031 -0.7897
26380SOL    HW283952   9.508   3.999   0.250 -1.2380  1.8471 -1.2119
26381SOL     OW83953  12.256   0.060  12.019 -0.3074  0.4129  0.2505
26381SOL    HW183954  12.215   0.052  12.105 -0.0074  3.1003  0.7192
26381SOL    HW283955  12.257  -0.029  11.985  1.3779 -1.1420  3.8428
26382SOL     OW83956   3.754   5.590   4.401  0.1948 -0.6063  0.1553
26382SOL    HW183957   3.810   5.517   4.428  0.5102 -0.2102  0.5666
26382SOL    HW283958   3.667   5.550   4.391  0.4733 -1.1537 -0.1651
26383SOL     OW83959   5.182   1.298   3.247 -0.2243  0.5489 -0.4684
26383SOL    HW183960   5.169   1.339   3.332  0.8330 -0.8986  0.4559
26383SOL    HW283961   5.170   1.368   3.184  0.6137  2.0658  0.9666
26384SOL     OW83962   5.889   9.159  10.760 -0.1084  0.1150 -0.2176
26384SOL    HW183963   5.862   9.070  10.743 -1.1303  0.8576 -2.9179
26384SOL    HW283964   5.976   9.166  10.721 -0.5406  0.6098 -1.1147
26385SOL     OW83965   9.268   4.927   2.674 -0.2982  0.2231 -0.0806
26385SOL    HW183966   9.192   4.940   2.618  0.3019 -0.8226 -1.1734
26385SOL    HW283967   9.322   5.005   2.660  0.2544 -0.4155 -1.6453
26386SOL     OW83968   1.217   0.434   6.222 -0.3304  0.1027  0.3471
26386SOL    HW183969   1.176   0.513   6.257 -0.2350  0.5120 -0.4509
26386SOL    HW283970   1.302   0.431   6.265  0.4087  1.4376 -0.9526
26387SOL     OW83971   8.112   3.027   8.400  0.1634  0.1519  0.0806
26387SOL    HW183972   8.169   3.001   8.472  0.6090 -1.0676 -0.6880
26387SOL    HW283973   8.170   3.036   8.324 -0.3989  0.7051 -0.3017
26388SOL     OW83974  11.246  10.963   0.445  0.0736 -0.3730 -0.0134
26388SOL    HW183975  11.322  10.957   0.502  0.4532  3.3790  0.1099
26388SOL    HW283976  11.171  10.965   0.505 -0.1883 -3.1044 -0.1006
26389SOL     OW83977   0.766   5.745   1.083 -0.3956 -0.0320  0.1443
26389SOL    HW183978   0.771   5.744   0.988  0.1992 -1.3643  0.1648
26389SOL    HW283979   0.811   5.825   1.110  0.2070 -0.0959 -0.6625
26390SOL     OW83980   2.989  11.280   3.750 -0.2033 -0.0217 -0.2486
26390SOL    HW183981   3.082  11.286   3.773 -0.0324  0.1851 -0.9469
26390SOL    HW283982   2.943  11.323   3.822  0.0223 -2.3596  1.4185
26391SOL     OW83983   3.341   6.198  10.125  0.5214 -0.0373  0.7482
26391SOL    HW183984   3.279   6.126  10.135  0.9189 -0.3746  0.8563
26391SOL    HW283985   3.413   6.159  10.075  1.1942 -0.0007  1.6574
26392SOL     OW83986   7.606   9.060   9.562 -0.0756  0.4800 -0.2933
26392SOL    HW183987   7.528   9.012   9.534  0.1282 -0.2781  0.3988
26392SOL    HW283988   7.650   9.000   9.622  0.3862  1.3931  0.2929
26393SOL     OW83989   0.526   2.131   4.668  0.0473  0.3725 -0.3370
26393SOL    HW183990   0.532   2.047   4.622 -0.0715  0.6901 -0.9472
26393SOL    HW283991   0.435   2.136   4.697  0.1886  0.0503  0.1811
26394SOL     OW83992   8.138   2.176  11.976  0.2149 -0.5303 -1.0881
26394SOL    HW183993   8.103   2.205  11.891  0.2677 -1.0016 -1.2722
26394SOL    HW283994   8.121   2.082  11.978  0.3106 -0.5389 -0.6173
26395SOL     OW83995   4.789   1.473   7.718  0.0197  0.5219  0.4124
26395SOL    HW183996   4.803   1.509   7.806 -0.3861  0.4277  0.5166
26395SOL    HW283997   4.862   1.508   7.667  0.7394 -0.0991  0.9830
26396SOL     OW83998  12.284   0.350   3.198  0.1233 -0.0368 -0.4407
26396SOL    HW183999  12.341   0.311   3.130 -1.3673 -3.1814 -0.0810
26396SOL    HW284000  12.203   0.371   3.152 -0.9445 -2.3072  0.2433
26397SOL     OW84001   4.495   3.321   2.327 -0.2044 -0.0755  0.0481
26397SOL    HW184002   4.473   3.284   2.241 -0.5008 -2.3199  1.0327
26397SOL    HW284003   4.421   3.298   2.383  0.6180  0.1466  1.2550
26398SOL     OW84004  10.068  10.581   3.953  0.0776  0.2307 -0.0167
26398SOL    HW184005  10.022  10.498   3.937  1.8015 -0.5446 -1.3395
26398SOL    HW284006  10.105  10.604   3.868  1.6374  1.1018  0.8632
26399SOL     OW84007   2.062   8.313   3.157 -0.6451  0.4725  0.5476
26399SOL    HW184008   2.137   8.304   3.098 -0.2298  0.9774  0.9927
26399SOL    HW284009   2.061   8.406   3.181  0.1472  0.0045  2.5923
26400SOL     OW84010  12.094   9.055   8.605 -0.0684  0.3934  0.0492
26400SOL    HW184011  12.095   8.979   8.547  3.3738  0.3676 -0.0531
26400SOL    HW284012  12.071   9.128   8.548  0.1302 -0.0710 -0.6398
26401SOL     OW84013  10.708   9.578   5.295 -0.5791  0.5165  0.0529
26401SOL    HW184014  10.741   9.494   5.326  0.1417  0.4195 -0.9603
26401SOL    HW284015  10.778   9.640   5.314 -0.3632  0.5561 -0.8719
26402SOL     OW84016   1.209  11.379  12.481  0.0522  0.3790  0.1466
26402SOL    HW184017   1.205  11.455  12.538 -1.3330  0.8498 -0.5359
26402SOL    HW284018   1.249  11.412  12.400 -0.1551  0.2823  0.0044
26403SOL     OW84019   6.845  11.783   5.121  0.1742 -0.0846 -0.1695
26403SOL    HW184020   6.825  11.748   5.208 -0.7952  0.1641 -0.2703
26403SOL    HW284021   6.938  11.768   5.110  0.1648 -0.8294  0.5968
26404SOL     OW84022   9.831   6.224   6.367 -0.3388  0.4246  0.0074
26404SOL    HW184023   9.773   6.295   6.341 -3.4940 -1.5064  1.3057
26404SOL    HW284024   9.837   6.230   6.462 -1.5684 -1.6060  0.2700
26405SOL     OW84025   9.114   7.439  11.626 -0.8624  0.2059  0.7839
26405SOL    HW184026   9.164   7.519  11.619 -0.4329 -0.0860  0.4354
26405SOL    HW284027   9.179   7.369  11.628 -1.1722 -0.0807  2.3901
26406SOL     OW84028   3.018   0.097  12.226  0.3946 -0.0018 -0.2135
26406SOL    HW184029   3.059   0.173  12.185  0.8780 -0.6144 -0.8996
26406SOL    HW284030   3.041   0.103  12.318  1.6152 -0.0455 -0.4962
26407SOL     OW84031  10.438   2.575   3.396 -0.4984  0.0099  0.1346
26407SOL    HW184032  10.444   2.668   3.416 -1.0301 -0.3480  2.3260
26407SOL    HW284033  10.408   2.535   3.478  0.9345 -2.2508 -0.3272
26408SOL     OW84034   0.974   6.651  10.556  0.9001 -0.3822  0.2610
26408SOL    HW184035   0.981   6.649  10.652  0.4354 -1.1033  0.2858
26408SOL    HW284036   1.064   6.659  10.526  0.9368  2.0927  0.7853
26409SOL     OW84037   6.638   2.392   7.720 -0.2471 -0.3946 -0.1607
26409SOL    HW184038   6.669   2.316   7.768 -0.4140 -1.5135 -1.7276
26409SOL    HW284039   6.546   2.401   7.746 -0.2660 -0.8235 -0.0788
26410SOL     OW84040  11.819   7.282   2.478 -0.3782  0.3854  0.1082
26410SOL    HW184041  11.790   7.371   2.457 -1.9186 -0.0882  0.1380
26410SOL    HW284042  11.832   7.240   2.392 -1.2177  0.1583  0.0864
26411SOL     OW84043   7.936  10.334   1.152  0.9846  0.1503 -0.0145
26411SOL    HW184044   7.997  10.340   1.225  0.0234 -1.7585  1.0060
26411SOL    HW284045   7.923  10.240   1.139 -1.6439  0.4748 -0.2437
26412SOL     OW84046   0.255   3.167   9.117  0.0771 -0.3735  0.4174
26412SOL    HW184047   0.225   3.111   9.046 -0.3410 -0.4366  0.6413
26412SOL    HW284048   0.316   3.112   9.166  2.1818  0.3788 -1.1854
26413SOL     OW84049   0.627   9.163   2.480 -0.0713  0.4057 -0.1471
26413SOL    HW184050   0.681   9.185   2.556  0.3989  1.4809 -0.7556
26413SOL    HW284051   0.537   9.170   2.511  0.0932  1.7397  0.1213
26414SOL     OW84052  12.196  10.262   9.759  0.1881  0.6329 -0.3308
26414SOL    HW184053  12.184  10.293   9.669  0.1149  0.3370 -0.4244
26414SOL    HW284054  12.133  10.313   9.811 -1.2148 -0.6024 -0.7524
26415SOL     OW84055   9.874   0.957   8.382 -0.9448 -0.1695 -0.0453
26415SOL    HW184056   9.880   0.900   8.305 -0.2766  0.9657 -0.8620
26415SOL    HW284057   9.835   1.038   8.349 -2.0008 -0.1683  1.1237
26416SOL     OW84058   6.033   4.216   7.333  0.4523 -0.1101 -0.1422
26416SOL    HW184059   6.078   4.178   7.258 -0.7577  1.0246 -1.4924
26416SOL    HW284060   6.062   4.307   7.335 -1.9718  0.7937 -1.3313
26417SOL     OW84061  11.937   6.836  10.359 -0.1855 -0.0578 -0.2031
26417SOL    HW184062  11.842   6.834  10.371  0.0375  0.6733  2.0588
26417SOL    HW284063  11.956   6.928  10.340  0.2254  0.0950  0.9338
26418SOL     OW84064   6.548   6.972  11.259 -0.4307 -0.1783 -0.2604
26418SOL    HW184065   6.481   6.956  11.325 -0.0666  1.4572  0.5444
26418SOL    HW284066   6.501   7.016  11.188 -0.8031 -1.8514 -1.1038
26419SOL     OW84067   8.661   4.157  11.340 -0.1986 -0.5458 -0.1833
26419SOL    HW184068   8.749   4.132  11.368  0.0851 -0.5062 -1.0200
26419SOL    HW284069   8.666   4.251  11.325 -1.1540  0.0304  2.5351
26420SOL     OW84070   1.456   6.077   3.378 -0.2512  0.0543 -0.3402
26420SOL    HW184071   1.436   6.145   3.314  0.9045  0.0853 -0.6957
26420SOL    HW284072   1.372   6.058   3.420 -0.3048  3.1269  1.1889
26421SOL     OW84073   2.860   1.327   1.290  0.3173  0.3072  0.0483
26421SOL    HW184074   2.895   1.399   1.342  0.1326  0.5319 -0.1319
26421SOL    HW284075   2.789   1.367   1.240 -1.4499 -0.5190  1.7573
26422SOL     OW84076  12.495   9.865   2.848 -0.3501  0.1346  0.0455
26422SOL    HW184077  12.571   9.813   2.821 -0.8903 -0.8903  0.4759
26422SOL    HW284078  12.494   9.939   2.786 -0.1004 -0.8393 -1.1677
26423SOL     OW84079   4.365   3.771   8.057  0.0918  0.0071 -0.0135
26423SOL    HW184080   4.280   3.731   8.076  0.8615 -1.5892  0.2325
26423SOL    HW284081   4.412   3.765   8.140 -0.4787  3.4596  0.6878
26424SOL     OW84082  11.851  12.591  11.297  0.0316 -0.3432  0.2917
26424SOL    HW184083  11.823  12.562  11.383 -0.3017 -0.3109  0.1970
26424SOL    HW284084  11.936  12.632  11.311 -1.6124  3.0283  1.2291
26425SOL     OW84085  12.022   3.687   3.185 -0.3843  0.0891  0.3644
26425SOL    HW184086  12.085   3.622   3.215 -1.2987 -0.4021  1.2830
26425SOL    HW284087  12.076   3.757   3.148  0.6415 -0.8411  0.0279
26426SOL     OW84088   0.482   1.124  11.958 -0.4469  0.4227 -0.0986
26426SOL    HW184089   0.505   1.045  11.909 -1.1435  1.6307 -2.4917
26426SOL    HW284090   0.387   1.128  11.954 -0.6500 -0.0556  2.4731
26427SOL     OW84091   6.369   3.593   9.500 -0.1683  0.4545  0.6556
26427SOL    HW184092   6.370   3.638   9.585 -0.9260 -1.2547  1.6143
26427SOL    HW284093   6.366   3.664   9.436  0.4420  1.7952  2.0388
26428SOL     OW84094   3.989   9.925   9.341 -0.0767  0.3082  0.2405
26428SOL    HW184095   3.984   9.862   9.413  0.8724 -0.8254 -0.6431
26428SOL    HW284096   4.068   9.900   9.293 -0.3509  1.4252 -0.8467
26429SOL     OW84097   4.104   8.357   8.858  0.5976  0.2522 -0.2886
26429SOL    HW184098   4.197   8.372   8.840  0.9274 -0.6236  0.5990
26429SOL    HW284099   4.099   8.263   8.877 -0.9178 -0.2925 -2.9928
26430SOL     OW84100   6.774   3.409  10.338 -0.0486 -0.0104 -0.6417
26430SOL    HW184101   6.689   3.401  10.297  0.9397 -1.6486 -2.5066
26430SOL    HW284102   6.836   3.418  10.266  1.4151  1.0134  0.6502
26431SOL     OW84103   3.563   6.361   4.640 -0.0219 -0.3256 -0.2384
26431SOL    HW184104   3.586   6.268   4.645 -1.9360 -0.8682 -0.4752
26431SOL    HW284105   3.627   6.399   4.581 -0.2202 -1.8830 -1.5295
26432SOL     OW84106   6.518   7.220   5.181 -0.1485 -0.1306 -0.1793
26432SOL    HW184107   6.524   7.148   5.117  1.7428  0.3123 -0.5547
26432SOL    HW284108   6.428   7.215   5.213 -1.5812  0.2709 -3.6345
26433SOL     OW84109   5.321   4.630   5.632 -0.3257 -0.2910  0.1920
26433SOL    HW184110   5.236   4.590   5.616 -0.3564 -0.1306 -0.0551
26433SOL    HW284111   5.348   4.597   5.717 -0.7772 -0.1010  0.4122
26434SOL     OW84112   0.042  11.889   3.489 -0.0427  0.3020 -0.3596
26434SOL    HW184113  -0.021  11.860   3.424 -0.8968  0.7166  0.2705
26434SOL    HW284114   0.092  11.957   3.445 -1.4024  1.4240 -0.2204
26435SOL     OW84115   2.636   4.426   6.727  0.1985  0.2541 -0.5198
26435SOL    HW184116   2.645   4.485   6.652  0.7962  0.3291 -0.3914
26435SOL    HW284117   2.726   4.403   6.750 -0.0368 -2.6161 -2.0677
26436SOL     OW84118   4.594   0.879   9.956 -0.0352  0.2936  0.0492
26436SOL    HW184119   4.655   0.808   9.937 -1.5688 -1.7741  2.1901
26436SOL    HW284120   4.528   0.873   9.887  0.3327  0.2286 -0.2962
26437SOL     OW84121   9.846   4.476  10.058  0.3223  0.1583 -0.2772
26437SOL    HW184122   9.911   4.421  10.101 -0.7732  0.0081  1.3089
26437SOL    HW284123   9.863   4.467   9.965  2.0495 -0.4895  0.0786
26438SOL     OW84124   1.696   4.028   0.057  0.1919  0.7870 -0.0018
26438SOL    HW184125   1.685   3.934   0.067  1.8787  0.1321 -3.0356
26438SOL    HW284126   1.623   4.055   0.001 -0.8292  1.5204  1.6214
26439SOL     OW84127  11.035  11.654   7.025 -0.0299 -0.2249  0.5977
26439SOL    HW184128  11.109  11.613   7.070 -0.6403 -1.8683  0.1802
26439SOL    HW284129  10.962  11.645   7.086 -0.4229 -0.7958  0.0650
26440SOL     OW84130   4.919   2.142   8.105  0.0084 -0.5603 -0.0042
26440SOL    HW184131   4.923   2.085   8.182 -0.5409 -2.8118 -1.5559
26440SOL    HW284132   5.010   2.158   8.082  0.2912  2.0963  2.3626
26441SOL     OW84133   7.488  10.338   6.071 -0.1810  0.1601 -0.0564
26441SOL    HW184134   7.566  10.383   6.038  0.9030 -2.1389 -0.8724
26441SOL    HW284135   7.465  10.277   6.001 -2.1071  0.0578  0.6246
26442SOL     OW84136   0.631   9.647   2.451  0.1453 -0.1005 -0.0803
26442SOL    HW184137   0.712   9.595   2.451 -0.3117 -0.9214 -2.0662
26442SOL    HW284138   0.660   9.735   2.428  0.7356  0.2284  1.7399
26443SOL     OW84139   4.722   4.030   4.386 -0.1813  0.0583  0.4282
26443SOL    HW184140   4.668   4.110   4.394  0.0309  0.0462  2.8550
26443SOL    HW284141   4.770   4.042   4.304  1.0441  3.2390  1.4314
26444SOL     OW84142   3.619  11.785   6.036  0.2699  0.1656  0.0935
26444SOL    HW184143   3.669  11.728   6.094 -1.4310 -1.6615 -0.1336
26444SOL    HW284144   3.625  11.743   5.950  0.4036  1.2978 -0.4766
26445SOL     OW84145   3.283   6.602   2.129  0.0153 -0.6344  0.3020
26445SOL    HW184146   3.271   6.694   2.103  0.8488 -1.0855 -1.8415
26445SOL    HW284147   3.194   6.570   2.144 -0.3926  0.0987 -0.5035
26446SOL     OW84148   9.454   9.702  12.274  0.0216  0.0066  0.1680
26446SOL    HW184149   9.516   9.729  12.207 -0.8084 -2.0335 -1.5610
26446SOL    HW284150   9.479   9.612  12.296 -1.8051 -0.6053 -0.0345
26447SOL     OW84151   1.065   6.930   3.825 -0.3808  0.0396 -0.2185
26447SOL    HW184152   1.038   6.928   3.733  1.0095 -1.6770 -0.6458
26447SOL    HW284153   1.009   6.865   3.867 -1.6017  1.4120  0.3890
26448SOL     OW84154   6.925   2.479   4.948  0.0105  0.0456 -0.1842
26448SOL    HW184155   6.853   2.510   5.002 -2.8565 -3.3974 -1.6478
26448SOL    HW284156   6.906   2.512   4.860  1.8012  1.3050 -0.1656
26449SOL     OW84157   8.767   5.708   0.562 -0.4080  0.4523 -0.2756
26449SOL    HW184158   8.771   5.744   0.474 -1.0962 -0.5856 -0.7448
26449SOL    HW284159   8.839   5.751   0.609 -0.7746  1.8948 -0.9883
26450SOL     OW84160  10.981   5.033   5.037  0.6581 -0.6882  0.2475
26450SOL    HW184161  11.035   5.006   4.963 -0.8117 -0.0315 -1.1435
26450SOL    HW284162  10.933   5.110   5.005 -1.0896 -1.2398  1.3655
26451SOL     OW84163   9.952   7.218  11.895 -0.2372  0.1651  0.0428
26451SOL    HW184164   9.981   7.182  11.811  0.1298  1.2573 -0.3151
26451SOL    HW284165   9.926   7.308  11.875 -0.3489  0.3701  1.0598
26452SOL     OW84166   6.802   9.184   7.300 -0.8287  0.4957  0.3427
26452SOL    HW184167   6.835   9.137   7.377 -1.8510  1.0983  1.1745
26452SOL    HW284168   6.748   9.120   7.254  0.6261 -0.1928 -0.4887
26453SOL     OW84169   9.468   7.690  10.691  0.2698  0.2365  0.3149
26453SOL    HW184170   9.530   7.626  10.655 -0.6776 -0.1325 -0.7408
26453SOL    HW284171   9.472   7.764  10.631 -0.9393 -0.1629 -0.3050
26454SOL     OW84172   3.771   6.462   8.295  0.0990  0.0790  0.4505
26454SOL    HW184173   3.772   6.516   8.374 -0.1952  0.4736  0.1865
26454SOL    HW284174   3.771   6.525   8.223 -0.8923 -0.2641  0.1456
26455SOL     OW84175  12.296  12.237   1.442 -0.3746  0.4658  0.2554
26455SOL    HW184176  12.329  12.309   1.496  0.3939 -0.5136  1.1422
26455SOL    HW284177  12.297  12.270   1.353 -1.0144  1.8979  0.7566
26456SOL     OW84178   0.252   4.700   8.285  0.1661  0.0628 -0.3294
26456SOL    HW184179   0.162   4.718   8.309  0.2722  3.3462 -1.8291
26456SOL    HW284180   0.247   4.630   8.220 -1.2338 -0.2843  0.1421
26457SOL     OW84181  11.745   3.866   7.076  0.2352  0.1395 -0.2286
26457SOL    HW184182  11.706   3.849   6.991 -1.3836 -0.7460  0.6447
26457SOL    HW284183  11.710   3.951   7.103 -0.6553 -0.3779  0.2902
26458SOL     OW84184   2.480   5.545   6.997 -0.1095 -0.3173  0.1423
26458SOL    HW184185   2.514   5.626   6.958  0.5371 -0.4987  0.3127
26458SOL    HW284186   2.460   5.568   7.087 -0.4986 -0.1921  0.0229
26459SOL     OW84187   5.411  11.744   1.782 -0.3769  0.0975  0.5490
26459SOL    HW184188   5.346  11.692   1.735  0.1999  0.5287 -0.8027
26459SOL    HW284189   5.420  11.702   1.867 -1.3058 -0.8588  0.1928
26460SOL     OW84190   6.321   3.227   0.547 -0.6332  0.0285 -0.6247
26460SOL    HW184191   6.240   3.213   0.597 -0.7096  0.2293 -0.6890
26460SOL    HW284192   6.391   3.196   0.605 -0.7605 -0.2023 -0.5920
26461SOL     OW84193  10.099  10.427   0.006 -0.2078 -0.1398 -0.4119
26461SOL    HW184194  10.056  10.416   0.091 -1.0462  0.2170 -0.7809
26461SOL    HW284195  10.128  10.339  -0.018 -0.3701 -0.3177  0.0355
26462SOL     OW84196   2.086   9.047   2.537  0.2447  0.0796 -0.1480
26462SOL    HW184197   2.009   9.042   2.480  0.4725  0.6943 -0.5109
26462SOL    HW284198   2.050   9.034   2.625 -0.0285 -1.4734 -0.4650
26463SOL     OW84199  11.641   7.219   6.285 -0.3860  0.7129  0.1004
26463SOL    HW184200  11.690   7.295   6.254  0.2734  0.2801  0.0546
26463SOL    HW284201  11.632   7.163   6.208  1.5343 -0.5117  0.7135
26464SOL     OW84202   8.027   8.209  12.421 -0.2448 -0.1595  0.1732
26464SOL    HW184203   7.962   8.265  12.379  0.1925  0.1199 -0.1352
26464SOL    HW284204   7.980   8.167  12.493 -1.0378 -0.7573 -0.6814
26465SOL     OW84205   7.238   8.836  12.193  0.1255 -0.4552  0.2799
26465SOL    HW184206   7.210   8.926  12.176  2.0629  0.0774 -0.2908
26465SOL    HW284207   7.305   8.844  12.260  1.8774 -1.2155 -1.3133
26466SOL     OW84208   6.715   3.225   3.224  0.0883 -0.3700  0.2861
26466SOL    HW184209   6.717   3.309   3.178  0.1723  0.5038  1.8267
26466SOL    HW284210   6.796   3.225   3.276 -1.0431 -0.3185  2.1211
26467SOL     OW84211   5.328   0.913  10.329  0.1920  0.4174 -0.3297
26467SOL    HW184212   5.252   0.875  10.286  0.9890 -0.2135 -1.2098
26467SOL    HW284213   5.317   0.891  10.422 -0.3720 -0.2062 -0.5436
26468SOL     OW84214   5.122   5.792   5.583 -0.1506 -0.4362 -0.1010
26468SOL    HW184215   5.047   5.747   5.545 -1.1011  2.3685 -1.7965
26468SOL    HW284216   5.195   5.731   5.571 -1.5796 -2.0352 -1.1018
26469SOL     OW84217   3.369   8.968   8.364  0.2881  0.1439  0.4692
26469SOL    HW184218   3.413   9.008   8.289  1.3231 -0.8361  0.5402
26469SOL    HW284219   3.364   8.875   8.343  0.6159 -0.1448  1.6291
26470SOL     OW84220  12.240   5.627   0.562  0.6078 -0.6145  0.0042
26470SOL    HW184221  12.183   5.677   0.621  0.5602 -1.8532  1.0539
26470SOL    HW284222  12.310   5.594   0.618 -0.3339 -3.2450 -0.2241
26471SOL     OW84223   1.128   1.242   9.898 -0.2863 -0.2123 -0.7219
26471SOL    HW184224   1.206   1.288   9.928 -0.3734  0.4700 -1.4985
26471SOL    HW284225   1.056   1.304   9.913 -1.1734 -1.7778  2.5210
26472SOL     OW84226   1.060   3.803  10.186  0.0699 -0.8705  0.3491
26472SOL    HW184227   0.998   3.843  10.124 -0.7395  0.4046  1.8871
26472SOL    HW284228   1.006   3.778  10.261  1.4332  0.8079  1.9987
26473SOL     OW84229  10.697  12.339   8.188 -0.4280 -0.3080 -0.1194
26473SOL    HW184230  10.644  12.277   8.138  0.1520 -1.0416  0.1574
26473SOL    HW284231  10.738  12.395   8.122 -0.0901 -0.9254 -0.4423
26474SOL     OW84232   5.369  11.199   7.089 -0.3658 -0.0855  0.2903
26474SOL    HW184233   5.348  11.134   7.156 -3.0418 -0.6089 -0.9276
26474SOL    HW284234   5.298  11.191   7.025  0.7242  2.1423 -1.3185
26475SOL     OW84235   4.841  10.429   8.733  0.7220  0.3446 -0.1777
26475SOL    HW184236   4.927  10.417   8.773  0.9667  0.8343 -0.5471
26475SOL    HW284237   4.840  10.369   8.659  0.6470  0.1560 -0.0243
26476SOL     OW84238  10.463  12.422   4.740 -0.0082 -0.0911  0.2104
26476SOL    HW184239  10.554  12.443   4.759  0.2266 -0.5199 -0.3957
26476SOL    HW284240  10.467  12.341   4.688 -0.5988  0.8893 -1.4537
26477SOL     OW84241   3.928  12.641   7.715  0.8362  0.1469 -0.0484
26477SOL    HW184242   3.984  12.655   7.639  0.0367  0.3840 -0.5939
26477SOL    HW284243   3.878  12.562   7.695  0.3902  0.3903  0.0956
26478SOL     OW84244   3.683   1.283   4.868 -0.2632 -0.2907  0.2073
26478SOL    HW184245   3.721   1.263   4.783  1.6387 -1.4696  1.2587
26478SOL    HW284246   3.758   1.281   4.929 -1.6743 -0.3173  2.0387
26479SOL     OW84247  11.914   5.706   4.582 -0.1739 -0.0826  0.3762
26479SOL    HW184248  11.955   5.749   4.657 -1.4129  3.3613 -0.7453
26479SOL    HW284249  11.824   5.690   4.610 -0.0593 -0.8452  0.3375
26480SOL     OW84250   2.520   4.140   9.164 -0.0095 -0.4596 -0.3323
26480SOL    HW184251   2.577   4.189   9.223  2.9646 -1.9742 -1.7921
26480SOL    HW284252   2.480   4.208   9.108  0.6397  0.6036  0.4665
26481SOL     OW84253   7.850   3.401   9.916  0.2443  0.4347  0.0653
26481SOL    HW184254   7.923   3.419   9.857  0.0726  0.6154 -0.0980
26481SOL    HW284255   7.878   3.326   9.968 -0.0000 -0.3917 -0.9609
26482SOL     OW84256   3.245  10.075   4.906 -0.6308 -0.5406  0.0407
26482SOL    HW184257   3.337  10.089   4.884 -0.4672  0.2867  1.1624
26482SOL    HW284258   3.247  10.008   4.975 -0.4770  2.1393  2.8877
26483SOL     OW84259   3.967   3.022   5.047  0.0564  0.2165  0.5360
26483SOL    HW184260   3.963   2.987   5.136  0.7843 -1.1857  0.0525
26483SOL    HW284261   4.060   3.024   5.026 -0.1818 -1.6890 -0.9881
26484SOL     OW84262   7.755   5.226   7.080  0.2589  0.4029 -0.0110
26484SOL    HW184263   7.780   5.309   7.121 -1.6279  0.7660  0.5289
26484SOL    HW284264   7.686   5.251   7.018 -2.6660 -1.0163  2.3975
26485SOL     OW84265   4.403   3.459  12.349 -0.1841  0.1221 -0.1477
26485SOL    HW184266   4.453   3.540  12.355 -0.1369  0.3496 -2.4954
26485SOL    HW284267   4.321   3.478  12.394  0.2614  1.0936  0.2811
26486SOL     OW84268   3.352  10.822   8.940  0.1313  0.2669 -0.1987
26486SOL    HW184269   3.411  10.847   9.010  1.9480 -0.5327 -1.3594
26486SOL    HW284270   3.303  10.748   8.975 -0.2990  1.0209  0.8310
26487SOL     OW84271   0.140   1.231   5.031  0.4787 -0.5261  0.0785
26487SOL    HW184272   0.143   1.322   5.059 -1.1544 -0.7938  1.3113
26487SOL    HW284273   0.230   1.200   5.040  0.7750  0.5634  1.0807
26488SOL     OW84274  11.161   9.793   2.671 -0.2086  0.1660  0.3432
26488SOL    HW184275  11.224   9.720   2.678  0.7102  0.9313  0.2847
26488SOL    HW284276  11.140   9.797   2.578 -0.6228 -0.3097  0.4105
26489SOL     OW84277   9.154  11.956  11.672 -0.0434  0.1551  0.2374
26489SOL    HW184278   9.110  12.041  11.675  0.1040  0.2285  0.3325
26489SOL    HW284279   9.163  11.930  11.764 -1.5188 -0.7132  0.1722
26490SOL     OW84280   4.959   8.965  11.170  0.0724  0.5417  0.3955
26490SOL    HW184281   4.988   9.049  11.207  1.5703  0.6685 -0.9594
26490SOL    HW284282   4.864   8.967  11.180  0.2262  1.4740  2.2635
26491SOL     OW84283   6.188   3.699   1.384 -0.0453 -0.1544  0.2198
26491SOL    HW184284   6.107   3.704   1.334 -0.3868 -0.7641  0.6992
26491SOL    HW284285   6.185   3.775   1.442  0.5300  0.7715 -0.9113
26492SOL     OW84286   2.775   6.730  10.487 -0.4484  0.2678 -0.4101
26492SOL    HW184287   2.769   6.794  10.416  0.1553  0.3062 -0.4389
26492SOL    HW284288   2.732   6.771  10.561  0.3486  0.9118 -0.2937
26493SOL     OW84289   5.492   8.186   0.353 -0.2263 -0.5132  0.4324
26493SOL    HW184290   5.491   8.121   0.282  0.3628 -0.3561  0.2721
26493SOL    HW284291   5.432   8.151   0.419 -2.9072  0.5817 -1.2298
26494SOL     OW84292   6.109   0.063   3.933 -0.0772 -1.1448  0.2327
26494SOL    HW184293   6.027   0.108   3.916 -1.4140 -1.7438  4.0714
26494SOL    HW284294   6.086  -0.029   3.937  1.7468 -1.8850 -2.8952
26495SOL     OW84295  12.486   6.259   7.153 -0.3741  0.0250 -0.0837
26495SOL    HW184296  12.412   6.237   7.209 -0.1188 -0.3185  0.1191
26495SOL    HW284297  12.550   6.299   7.213 -0.0502 -0.4574 -0.1046
26496SOL     OW84298  10.894   5.653   7.596  0.4350  0.9972 -0.5619
26496SOL    HW184299  10.912   5.628   7.686  0.1588  3.3865  0.2350
26496SOL    HW284300  10.904   5.572   7.546  4.0315  0.2158  1.0965
26497SOL     OW84301   2.999   2.259   0.776  0.4682  1.1607  0.0594
26497SOL    HW184302   3.013   2.349   0.805 -0.1626  1.1601  0.3693
26497SOL    HW284303   3.087   2.223   0.766  0.7688  2.2188 -1.3426
26498SOL     OW84304   0.174   3.855   7.552  0.0792  0.4664 -0.4798
26498SOL    HW184305   0.101   3.917   7.555  1.8053  2.6399 -1.5357
26498SOL    HW284306   0.132   3.771   7.534 -2.1852  1.5844 -0.8158
26499SOL     OW84307   3.769  10.547   8.996  0.3840  0.8073 -0.2306
26499SOL    HW184308   3.731  10.495   8.925  0.8499  0.3640 -0.1654
26499SOL    HW284309   3.695  10.568   9.053  0.3750 -1.0370  0.5218
26500SOL     OW84310   3.507   4.780   4.495  0.3072 -0.1645  0.0430
26500SOL    HW184311   3.435   4.793   4.558  0.4386 -0.6618  0.2983
26500SOL    HW284312   3.562   4.713   4.535  2.2104  1.8375  0.9925
26501SOL     OW84313  12.264   2.160   9.800 -0.0724 -0.0014 -0.1435
26501SOL    HW184314  12.274   2.235   9.859 -1.0754 -0.7695  1.0564
26501SOL    HW284315  12.208   2.193   9.729 -0.1868  0.4847  0.1699
26502SOL     OW84316   3.425   1.829   6.218  0.0686 -0.1232 -0.0932
26502SOL    HW184317   3.341   1.782   6.219 -0.3793  0.5660 -1.6627
26502SOL    HW284318   3.440   1.852   6.309 -1.6448  0.0221  0.1963
26503SOL     OW84319   1.449   6.140   1.401  0.3175  0.2087  0.1328
26503SOL    HW184320   1.542   6.125   1.418  0.4521 -0.8800 -1.3854
26503SOL    HW284321   1.411   6.052   1.395 -0.7981  0.6376  0.6546
26504SOL     OW84322  11.530   9.449   1.748 -0.3260 -0.1596  0.2470
26504SOL    HW184323  11.611   9.496   1.769  0.1628 -1.1901  0.7538
26504SOL    HW284324  11.476   9.460   1.827 -0.1455 -0.5770  0.4308
26505SOL     OW84325   0.176   4.614   6.554  0.3800  0.2611  0.4144
26505SOL    HW184326   0.263   4.634   6.518  0.6361 -0.6936  0.4777
26505SOL    HW284327   0.119   4.682   6.518  0.9012  0.1462 -0.6731
26506SOL     OW84328  11.988   3.877   2.667  0.6245 -0.2445  0.6751
26506SOL    HW184329  12.002   3.837   2.581  0.9393  0.5283  0.3521
26506SOL    HW284330  11.993   3.804   2.729 -0.1362 -0.8879  0.0000
26507SOL     OW84331   6.545   7.384   3.518 -0.2317 -0.7325 -0.6099
26507SOL    HW184332   6.568   7.453   3.580  1.0159 -1.0151 -0.7403
26507SOL    HW284333   6.477   7.424   3.463 -0.8387 -0.2415  0.4591
26508SOL     OW84334   7.044   1.645  12.159  0.5689  0.1491 -0.0110
26508SOL    HW184335   7.023   1.729  12.200  1.5614  0.2213  0.3780
26508SOL    HW284336   7.072   1.589  12.232 -1.0213 -0.8598 -0.1137
26509SOL     OW84337   9.944   7.668   1.878 -0.2924  0.2479 -0.0088
26509SOL    HW184338  10.024   7.714   1.903  0.5255 -1.5871  0.9160
26509SOL    HW284339   9.874   7.732   1.892  0.8817  1.5072  0.3004
26510SOL     OW84340  12.443   5.966   7.715 -0.4962  0.0003  0.0287
26510SOL    HW184341  12.477   5.999   7.632 -0.6053 -1.1512 -0.4960
26510SOL    HW284342  12.361   6.013   7.728 -0.5934  0.0236 -0.6353
26511SOL     OW84343   6.981   3.232   4.865 -0.0439 -0.0006 -0.6033
26511SOL    HW184344   7.017   3.311   4.906  0.7136 -0.0351 -1.1946
26511SOL    HW284345   7.020   3.160   4.914  0.3828 -0.0330 -0.9951
26512SOL     OW84346   0.744  12.615   2.965 -0.3635  0.2973 -0.0734
26512SOL    HW184347   0.736  12.521   2.979 -0.6869  0.4649  1.0157
26512SOL    HW284348   0.759  12.651   3.053 -2.2942  1.4419 -0.1384
26513SOL     OW84349   9.080   7.841   6.209  0.0724  0.1065  0.0808
26513SOL    HW184350   9.022   7.775   6.172  0.6854 -0.2115 -0.3270
26513SOL    HW284351   9.113   7.889   6.133  0.9905 -0.2640  0.2323
26514SOL     OW84352   3.936   7.661   2.160  0.5237  0.1486  0.3799
26514SOL    HW184353   3.847   7.673   2.127  0.1348 -1.7038  0.6510
26514SOL    HW284354   3.990   7.713   2.101 -0.2994 -1.9418 -2.4327
26515SOL     OW84355   9.831   1.746   2.842 -0.3297  0.6726 -0.4121
26515SOL    HW184356   9.771   1.681   2.805 -0.6261  0.0627  1.0719
26515SOL    HW284357   9.773   1.810   2.884  0.0180  0.6993  0.0351
26516SOL     OW84358   5.879   4.372  10.174 -0.5113  0.1066  0.1849
26516SOL    HW184359   5.797   4.401  10.134  0.9070  2.2457 -1.4278
26516SOL    HW284360   5.930   4.336  10.102  1.1004  1.5837  0.5285
26517SOL     OW84361   7.072   2.973   9.051  0.0405 -0.1290 -0.0270
26517SOL    HW184362   7.149   3.027   9.066 -0.5028  1.3288 -1.9785
26517SOL    HW284363   7.106   2.892   9.014  0.6999  0.2251 -0.2143
26518SOL     OW84364   7.740   5.665   3.948  0.1604  0.3014 -0.0661
26518SOL    HW184365   7.803   5.594   3.962 -0.1351  0.3157  1.4363
26518SOL    HW284366   7.745   5.718   4.027 -1.3752  0.5963 -0.1325
26519SOL     OW84367   3.431   1.190   4.952  0.0769 -0.2913 -0.0902
26519SOL    HW184368   3.368   1.130   4.911  0.0856 -0.4922  0.1820
26519SOL    HW284369   3.488   1.218   4.881  1.6840 -2.6037  0.1855
26520SOL     OW84370   4.604   7.844   9.371  0.5284  0.4067  0.8668
26520SOL    HW184371   4.598   7.907   9.442  0.1933  0.7658  0.5220
26520SOL    HW284372   4.677   7.875   9.317  0.0330  0.7984  0.4114
26521SOL     OW84373   0.032   7.479  10.607  0.0395  0.7312  0.2618
26521SOL    HW184374  -0.001   7.446  10.523  2.4553 -1.2018 -0.0388
26521SOL    HW284375   0.117   7.519  10.585  1.2524 -0.8079  1.8558
26522SOL     OW84376   3.953   8.718  12.391 -0.3025 -0.3712  0.7546
26522SOL    HW184377   4.029   8.675  12.429 -0.0770  1.2453  2.2995
26522SOL    HW284378   3.988   8.799  12.353 -0.9189 -0.7541 -0.6597
26523SOL     OW84379   3.509   1.324  10.812  0.2216 -0.3219  0.2207
26523SOL    HW184380   3.470   1.358  10.893  0.1173  2.8402 -1.0059
26523SOL    HW284381   3.601   1.312  10.834  0.0287 -0.3805  1.0549
26524SOL     OW84382   5.303  10.426   8.895  0.3690 -0.1481  0.5052
26524SOL    HW184383   5.330  10.500   8.841 -0.7634 -0.6992 -0.8878
26524SOL    HW284384   5.296  10.462   8.984  3.6486  0.4643  0.6476
26525SOL     OW84385   1.936   5.613  10.744  0.6416  0.2735  0.2326
26525SOL    HW184386   1.852   5.579  10.714  0.3250 -0.0864  1.4965
26525SOL    HW284387   1.914   5.675  10.813  1.4072  0.0338  0.7087
26526SOL     OW84388  11.970   9.479   5.502 -0.1303  0.4273  0.5322
26526SOL    HW184389  11.933   9.464   5.589 -0.4062 -0.7735  0.2344
26526SOL    HW284390  11.926   9.558   5.470  0.0333  0.9182  1.5082
26527SOL     OW84391  10.764   0.266   9.320 -0.2342 -0.3073 -0.3972
26527SOL    HW184392  10.725   0.334   9.376  0.2325 -0.5195  0.1802
26527SOL    HW284393  10.857   0.286   9.319 -0.3504  0.2671 -1.8814
26528SOL     OW84394  11.928  12.609  11.993  0.5304  0.6016  0.1018
26528SOL    HW184395  11.933  12.595  12.088 -1.5640  1.4084  0.3756
26528SOL    HW284396  11.902  12.700  11.983 -1.7122 -0.1096 -1.1489
26529SOL     OW84397   1.905   9.942  12.197  0.0939 -0.2098 -0.1011
26529SOL    HW184398   1.867   9.989  12.271  1.5987  0.2919  0.3928
26529SOL    HW284399   1.865   9.981  12.119  0.4295  1.0839  0.3588
26530SOL     OW84400   8.820  11.057  12.064 -0.2030 -0.2750 -0.0995
26530SOL    HW184401   8.784  10.983  12.014 -2.7251 -0.1956  1.4332
26530SOL    HW284402   8.816  11.028  12.155 -0.6178  1.5055  0.4791
26531SOL     OW84403   3.950   2.539   0.886  0.4102 -0.0208 -0.1112
26531SOL    HW184404   3.947   2.595   0.808 -2.4197  1.2110  0.7231
26531SOL    HW284405   3.935   2.451   0.852 -3.3612  0.7403 -0.9671
26532SOL     OW84406   2.380   9.612   2.422  0.1988 -0.1432  0.4147
26532SOL    HW184407   2.292   9.582   2.443  0.3037 -0.0295  1.0414
26532SOL    HW284408   2.405   9.667   2.496  0.2539  0.9780 -0.4029
26533SOL     OW84409   6.058  10.605  10.243 -0.5251  0.4419 -0.4744
26533SOL    HW184410   6.014  10.527  10.210  1.3758 -0.5735 -0.7359
26533SOL    HW284411   6.021  10.617  10.331 -0.8405 -0.7779 -0.4168
26534SOL     OW84412   0.360   1.374   0.911 -0.1395 -0.3047  0.0934
26534SOL    HW184413   0.265   1.367   0.905 -0.4404  1.4582  1.7997
26534SOL    HW284414   0.384   1.316   0.983 -0.2423  0.8960  1.1359
26535SOL     OW84415   8.204   0.121   0.127 -0.1233  0.2190 -0.2760
26535SOL    HW184416   8.251   0.133   0.045 -1.7348  0.7190 -1.1687
26535SOL    HW284417   8.132   0.062   0.105  0.7160 -1.4996  1.3300
26536SOL     OW84418  11.854   6.473   9.474 -0.2590  0.3976 -0.2664
26536SOL    HW184419  11.934   6.525   9.469  0.1165 -0.1561 -0.1003
26536SOL    HW284420  11.844   6.454   9.568 -1.0078  1.1082 -0.1882
26537SOL     OW84421   5.827   4.773  10.957 -0.0845  0.7305  0.1964
26537SOL    HW184422   5.760   4.742  10.896 -0.7791  1.6534  0.4768
26537SOL    HW284423   5.901   4.712  10.944 -1.4118 -1.1117  0.8218
26538SOL     OW84424   0.697   5.300   7.336 -0.2505  0.3883  0.1104
26538SOL    HW184425   0.665   5.267   7.420  2.3691 -1.0967  0.6160
26538SOL    HW284426   0.791   5.288   7.339 -0.1176 -0.7539 -3.4636
26539SOL     OW84427   1.338   3.032  10.484 -0.6671 -0.1239 -0.2686
26539SOL    HW184428   1.361   3.121  10.510  2.5970  0.0363 -3.0309
26539SOL    HW284429   1.413   2.979  10.511 -1.3047 -1.5130 -1.1049
26540SOL     OW84430   7.758  10.325   9.811  0.0786  0.1197 -0.1393
26540SOL    HW184431   7.811  10.265   9.759  1.2165  0.0383  1.0531
26540SOL    HW284432   7.813  10.403   9.822 -0.8202  0.8289 -0.4706
26541SOL     OW84433  10.277   0.196   1.289 -0.5463 -0.1303  0.0201
26541SOL    HW184434  10.333   0.199   1.366 -0.2618 -0.8087 -0.1526
26541SOL    HW284435  10.290   0.281   1.246  0.3476 -0.2771 -0.0094
26542SOL     OW84436   8.233  10.344   0.781 -0.3982  0.3284  1.0642
26542SOL    HW184437   8.223  10.439   0.783 -0.2082  0.3876 -0.3681
26542SOL    HW284438   8.301  10.326   0.846  1.6592  1.4644 -0.6817
26543SOL     OW84439   6.772   7.074   6.293 -0.6407 -0.2526 -0.5460
26543SOL    HW184440   6.676   7.080   6.299 -0.6309  0.0980 -0.7492
26543SOL    HW284441   6.789   7.047   6.203 -0.4893  1.1026 -0.9385
26544SOL     OW84442   6.115   8.758  11.998 -0.0260  0.0725 -0.3177
26544SOL    HW184443   6.155   8.843  12.019 -0.6816  0.5156 -0.7981
26544SOL    HW284444   6.084   8.769  11.908 -1.1892 -0.2608  0.0316
26545SOL     OW84445   8.469   3.973   5.843 -0.0530 -0.5444  0.3553
26545SOL    HW184446   8.499   4.042   5.783 -1.7275  0.2438  0.3487
26545SOL    HW284447   8.404   3.924   5.793 -0.8644 -0.4011  1.2388
26546SOL     OW84448   6.841   4.729   8.299 -0.1211 -0.0425  0.4604
26546SOL    HW184449   6.882   4.643   8.302  1.0303  0.4234 -0.6854
26546SOL    HW284450   6.915   4.790   8.307 -0.9422  0.8434  1.5383
26547SOL     OW84451   3.830   8.692   2.938 -0.3012  0.2823  0.3519
26547SOL    HW184452   3.897   8.728   2.881  0.1245 -0.6813  0.2203
26547SOL    HW284453   3.872   8.686   3.024 -0.4939  0.4664  0.4587
26548SOL     OW84454  11.591   4.743   8.466 -0.0212  0.1498  0.0376
26548SOL    HW184455  11.571   4.775   8.378 -1.7132 -0.2434  0.2546
26548SOL    HW284456  11.664   4.797   8.495  1.4144 -0.5155 -2.0679
26549SOL     OW84457   2.696   8.292   7.089  0.1869  0.2538 -0.3817
26549SOL    HW184458   2.681   8.214   7.036  0.7807  1.0217 -1.7403
26549SOL    HW284459   2.646   8.361   7.045 -0.5139  0.6083  0.9257
26550SOL     OW84460  12.273   1.775   1.245  0.0087  0.6968  0.0178
26550SOL    HW184461  12.354   1.826   1.254 -0.4540  1.5908 -0.6393
26550SOL    HW284462  12.204   1.835   1.276 -0.2916 -0.4933  1.7558
26551SOL     OW84463   2.030  12.086   7.988  0.5117  0.0806  0.4748
26551SOL    HW184464   2.099  12.028   7.956  1.5212  2.4659 -2.0196
26551SOL    HW284465   2.069  12.173   7.988 -2.1852  1.4034 -0.1230
26552SOL     OW84466   8.044   4.308   1.359 -0.3759  0.2496  0.2028
26552SOL    HW184467   8.129   4.305   1.315 -0.3010  0.6792  0.3134
26552SOL    HW284468   8.063   4.281   1.449 -0.4470 -0.1463  0.1041
26553SOL     OW84469   5.426   4.496   7.429 -0.3219 -0.4204 -0.2112
26553SOL    HW184470   5.410   4.404   7.452 -0.0310 -0.5739 -0.6200
26553SOL    HW284471   5.411   4.500   7.335  0.6089 -0.2585 -0.3599
26554SOL     OW84472   3.252   8.702  11.628 -0.1000 -0.5221  0.2071
26554SOL    HW184473   3.309   8.762  11.579 -0.6097 -0.1549  0.0528
26554SOL    HW284474   3.306   8.673  11.702 -0.8653  2.9016  2.3832
26555SOL     OW84475   4.254   4.242   1.092  0.3670 -0.6598 -0.4707
26555SOL    HW184476   4.194   4.178   1.054 -1.5411  0.6898  0.1248
26555SOL    HW284477   4.341   4.209   1.072 -0.5700 -2.7254 -1.3286
26556SOL     OW84478   8.838   7.609   9.188  0.3463  0.4361  0.6808
26556SOL    HW184479   8.769   7.649   9.240 -0.7171 -1.4681  0.8437
26556SOL    HW284480   8.885   7.553   9.249  0.8062  0.2409  0.1608
26557SOL     OW84481   8.501  11.094  10.681 -0.2947  0.2017  0.5427
26557SOL    HW184482   8.542  11.015  10.715  0.3360  0.4479  0.3888
26557SOL    HW284483   8.489  11.150  10.758 -0.3399  0.1206  0.5929
26558SOL     OW84484   2.028  10.732   2.849 -0.0982 -0.0630  0.4986
26558SOL    HW184485   2.072  10.678   2.915 -0.2081 -0.2444  0.4257
26558SOL    HW284486   1.974  10.793   2.899  1.0618  0.8928  0.6271
26559SOL     OW84487   0.842   0.707   7.787  0.1772  0.1877 -0.0981
26559SOL    HW184488   0.821   0.697   7.880 -0.6541  0.3088 -0.2655
26559SOL    HW284489   0.936   0.695   7.782  0.0447 -1.4308  0.5572
26560SOL     OW84490   7.082   7.192   1.762 -0.4502  0.5745  0.3291
26560SOL    HW184491   7.172   7.186   1.792 -0.4281  0.3190  0.2123
26560SOL    HW284492   7.030   7.199   1.842 -0.6067 -2.5923  0.6225
26561SOL     OW84493   8.864   5.081   7.495 -0.3979  0.7627  1.0063
26561SOL    HW184494   8.868   5.162   7.444 -1.3299  0.7054  0.8311
26561SOL    HW284495   8.801   5.026   7.448  2.1866 -1.1915 -0.4597
26562SOL     OW84496   7.359   2.418   8.400  0.8302  0.1169  0.0691
26562SOL    HW184497   7.369   2.340   8.346  0.1149 -0.2031  0.3720
26562SOL    HW284498   7.413   2.401   8.477  0.0280 -0.4739  0.5276
26563SOL     OW84499   4.416   2.904   9.027 -0.3875 -0.6013  0.1410
26563SOL    HW184500   4.449   2.875   9.112 -1.6960 -1.9819  0.2241
26563SOL    HW284501   4.494   2.924   8.976  0.4687 -1.2130  1.1819
26564SOL     OW84502   8.981   3.231   3.703  0.2600 -0.4527 -0.4763
26564SOL    HW184503   9.042   3.157   3.708 -0.4164 -0.9819  0.2145
26564SOL    HW284504   8.990   3.275   3.787  1.3258  0.8127 -1.2267
26565SOL     OW84505   3.231   3.876   3.958  0.7005  0.0755 -0.6449
26565SOL    HW184506   3.182   3.799   3.986  0.8675  0.4092  0.6365
26565SOL    HW284507   3.219   3.879   3.863  0.6850 -1.5196 -0.7263
26566SOL     OW84508  11.280   5.029   8.661  0.1719  0.2903  0.0005
26566SOL    HW184509  11.258   4.985   8.579  0.0262  1.3911 -0.5689
26566SOL    HW284510  11.376   5.028   8.664  0.1702 -0.3502  0.1742
26567SOL     OW84511   2.787   1.966   8.286 -0.1132 -0.0097 -0.0280
26567SOL    HW184512   2.739   2.049   8.281 -0.3248  0.0103  1.8200
26567SOL    HW284513   2.876   1.988   8.258 -0.2835  0.7273 -0.0183
26568SOL     OW84514   2.984   3.925   3.141 -0.3820  0.0535  0.3988
26568SOL    HW184515   2.953   3.936   3.231 -0.4267  1.5951  0.2340
26568SOL    HW284516   2.926   3.859   3.103 -1.0811  0.2012  1.1782
26569SOL     OW84517   8.650  10.456   6.803 -0.2375  0.4765  0.7793
26569SOL    HW184518   8.637  10.420   6.715  1.2718  0.4652  0.5327
26569SOL    HW284519   8.583  10.413   6.856 -2.8050  2.2643 -0.7789
26570SOL     OW84520   9.398  11.629   3.150 -0.2120  0.4308 -0.1656
26570SOL    HW184521   9.324  11.690   3.151  0.3941  1.1749 -0.1139
26570SOL    HW284522   9.360  11.546   3.118 -1.1137  0.7305  0.0983
26571SOL     OW84523   5.595  12.055   9.715  0.0387 -0.8259  0.7057
26571SOL    HW184524   5.609  11.998   9.792  0.2364 -1.2532  0.3605
26571SOL    HW284525   5.539  12.125   9.747  1.5451 -0.0325  1.7006
26572SOL     OW84526   2.289   8.370   6.258  0.8121 -0.5275 -0.3263
26572SOL    HW184527   2.217   8.423   6.224  0.3827 -1.1502 -0.4001
26572SOL    HW284528   2.368   8.422   6.240  0.4028  0.0650 -0.4268
26573SOL     OW84529   8.106   8.301  10.345  0.2877  0.3941 -0.6005
26573SOL    HW184530   8.166   8.226  10.343 -0.7901 -0.4956 -1.0583
26573SOL    HW284531   8.023   8.263  10.376 -0.1769  1.4844 -0.4799
26574SOL     OW84532   7.663   9.100   1.381  0.1576  0.0589  0.4170
26574SOL    HW184533   7.653   9.053   1.464  2.3549  1.4115  1.5425
26574SOL    HW284534   7.723   9.045   1.330 -0.4491 -0.3165  0.1096
26575SOL     OW84535   4.300   9.451   5.299  0.0429 -0.2189  0.6763
26575SOL    HW184536   4.362   9.522   5.315 -0.0413 -0.5169  2.5401
26575SOL    HW284537   4.218   9.480   5.338  0.0432 -1.3624  1.6079
26576SOL     OW84538   8.082   8.342   2.458  0.2649 -0.0663 -0.2651
26576SOL    HW184539   8.043   8.285   2.524 -0.8760 -1.2365 -1.8704
26576SOL    HW284540   8.163   8.297   2.432 -0.2287 -0.5844 -0.9549
26577SOL     OW84541   2.506   8.853   9.169 -0.9985 -0.3049  0.2699
26577SOL    HW184542   2.518   8.912   9.094  0.4349 -1.6024 -0.5931
26577SOL    HW284543   2.556   8.894   9.240 -0.1823 -0.3421 -0.2645
26578SOL     OW84544   9.917   3.866   0.904  0.2096 -0.4188  0.1947
26578SOL    HW184545   9.876   3.952   0.895  0.2195 -0.2297  1.6329
26578SOL    HW284546   9.918   3.830   0.816  1.6706  1.7170 -0.7422
26579SOL     OW84547   9.901   9.061  11.984 -0.3287  1.0341  0.2199
26579SOL    HW184548   9.963   9.068  12.056 -0.6567  1.2639  0.4847
26579SOL    HW284549   9.954   9.036  11.908  0.0412  0.9557  0.5047
26580SOL     OW84550   5.420   6.929   4.157  0.5720  0.0029  0.5313
26580SOL    HW184551   5.360   6.903   4.087  0.5079 -1.3649  1.0494
26580SOL    HW284552   5.389   7.015   4.185 -0.4002 -0.1470 -0.0243
26581SOL     OW84553   4.065  12.625  10.086 -0.1089 -0.1769 -0.0565
26581SOL    HW184554   4.073  12.615  10.181 -4.5267 -0.0846  0.5423
26581SOL    HW284555   4.002  12.558  10.061 -1.9295  2.1423 -2.2105
26582SOL     OW84556   8.960   9.587   3.252  0.5115 -0.4302  0.4183
26582SOL    HW184557   8.899   9.661   3.257  0.3694 -0.4893 -0.3831
26582SOL    HW284558   9.021   9.602   3.325  1.5552  1.4222 -0.7526
26583SOL     OW84559   6.882   6.662   8.132 -0.1825 -0.1332  0.5748
26583SOL    HW184560   6.877   6.607   8.210 -1.4601  0.5799  1.0283
26583SOL    HW284561   6.847   6.747   8.160  1.1552  0.7307 -0.2708
26584SOL     OW84562   6.995   9.288  11.046  0.2378  0.5712  0.7357
26584SOL    HW184563   7.031   9.374  11.024 -0.2854  0.7649  0.6195
26584SOL    HW284564   7.041   9.227  10.988 -1.2593  1.0988 -1.1126
26585SOL     OW84565   6.025   8.473  10.977 -0.4879  0.0886 -0.5284
26585SOL    HW184566   6.082   8.482  10.901 -1.0814 -0.2311 -1.0246
26585SOL    HW284567   6.047   8.387  11.014  0.0928  0.4220 -0.0859
26586SOL     OW84568   5.252   6.906   7.141 -0.0408 -0.2472 -0.0346
26586SOL    HW184569   5.221   6.979   7.195 -0.4815  1.4820 -2.4783
26586SOL    HW284570   5.279   6.840   7.205 -0.8177  1.5131  2.2877
26587SOL     OW84571   7.608   8.582   1.761 -0.1901  0.0875  0.1630
26587SOL    HW184572   7.616   8.617   1.850  0.5173  2.8547 -0.8679
26587SOL    HW284573   7.698   8.563   1.735 -0.2617  0.4003 -0.3363
26588SOL     OW84574  11.416   4.716  11.836  0.0373 -0.0040  0.0770
26588SOL    HW184575  11.381   4.680  11.918  1.4766  0.0580  0.7412
26588SOL    HW284576  11.460   4.641  11.795 -0.2583  0.0873 -0.4147
26589SOL     OW84577   9.971   4.368  12.286  0.7690  0.4690 -0.1161
26589SOL    HW184578  10.001   4.278  12.272  1.6671  0.5856  0.8760
26589SOL    HW284579   9.924   4.390  12.206  1.4367 -0.5256 -0.8177
26590SOL     OW84580   8.680   5.237   6.371 -0.3187  0.2485 -0.1546
26590SOL    HW184581   8.721   5.159   6.334 -0.1783  0.3025 -0.1129
26590SOL    HW284582   8.603   5.253   6.315  0.8625  1.3693 -1.5399
26591SOL     OW84583   1.540   2.654   8.436  0.2019  0.1169  0.0122
26591SOL    HW184584   1.508   2.665   8.346 -2.0370  3.4452  1.0387
26591SOL    HW284585   1.468   2.611   8.482  0.3779  0.5685  0.7120
26592SOL     OW84586   8.793   2.716   8.686 -0.1713 -0.0942 -0.0923
26592SOL    HW184587   8.717   2.661   8.704  0.4229 -1.0759 -0.5315
26592SOL    HW284588   8.866   2.655   8.677  0.3380  0.6793 -1.5802
26593SOL     OW84589  12.179   2.314  11.350  0.1492 -0.0075  0.6189
26593SOL    HW184590  12.239   2.279  11.416  0.6902 -1.1983 -0.4611
26593SOL    HW284591  12.232   2.323  11.271 -1.1058 -1.3342 -0.4387
26594SOL     OW84592   3.103   3.463   1.033  0.1426 -0.6361 -0.3543
26594SOL    HW184593   3.032   3.400   1.039  1.3769 -1.8983  2.5189
26594SOL    HW284594   3.096   3.515   1.113  2.4119 -0.8022  0.0118
26595SOL     OW84595   7.992  10.211   8.046 -0.0680  0.1193  0.1480
26595SOL    HW184596   8.008  10.236   8.137  2.5024  0.0478 -0.2126
26595SOL    HW284597   7.993  10.294   7.998 -1.0452  0.1231  0.1253
26596SOL     OW84598  11.774  11.509   5.115 -0.3436  0.4006 -0.5785
26596SOL    HW184599  11.823  11.447   5.169 -0.7035  0.0816 -0.6164
26596SOL    HW284600  11.807  11.595   5.142 -0.2713  0.2273 -0.0995
26597SOL     OW84601   9.527  12.551   8.630 -0.9053 -0.4272  0.3461
26597SOL    HW184602   9.473  12.597   8.566 -1.3513 -0.5569  0.6290
26597SOL    HW284603   9.559  12.474   8.584  0.1640  0.3479 -0.2581
26598SOL     OW84604  11.792   6.538   8.824  0.2582  0.9373  0.4292
26598SOL    HW184605  11.745   6.460   8.793  1.5049  0.6187 -0.7288
26598SOL    HW284606  11.754   6.555   8.910  1.0720 -1.9556  1.4812
26599SOL     OW84607   4.339   5.726  10.977 -0.1517  0.0932 -0.1080
26599SOL    HW184608   4.258   5.686  10.947  0.0699 -0.9618  0.6146
26599SOL    HW284609   4.394   5.730  10.899 -0.2753 -0.8188 -0.2577
26600SOL     OW84610   8.156  10.011   6.757 -0.5830 -0.1839  0.2349
26600SOL    HW184611   8.124   9.922   6.771 -2.7806  0.9703  4.2267
26600SOL    HW284612   8.076  10.063   6.742  0.4544  1.3957 -0.0909
26601SOL     OW84613  10.950   5.243   6.501  0.1848 -0.0376  0.2552
26601SOL    HW184614  10.902   5.241   6.418  0.1556  1.2737  0.2088
26601SOL    HW284615  11.026   5.298   6.484  0.0364  0.4751  1.1544
26602SOL     OW84616   6.183   1.770  11.074 -0.6135 -0.4289 -0.2396
26602SOL    HW184617   6.242   1.695  11.070 -1.5197 -1.2135  0.3657
26602SOL    HW284618   6.214   1.822  11.148 -1.6332 -1.7142  1.1393
26603SOL     OW84619   7.253   2.464   2.798 -0.3494 -0.0676 -0.1727
26603SOL    HW184620   7.239   2.520   2.722 -0.3466 -0.7118 -0.6588
26603SOL    HW284621   7.318   2.510   2.851 -0.7676  0.6522 -0.2782
26604SOL     OW84622   9.280   7.192   4.730 -0.1907 -0.4356 -0.3019
26604SOL    HW184623   9.200   7.222   4.772  0.7374  0.7095  0.7186
26604SOL    HW284624   9.345   7.189   4.801  0.4051 -2.4427 -0.8650
26605SOL     OW84625   4.104   6.878  11.708  0.0315 -0.2849  0.0314
26605SOL    HW184626   4.095   6.818  11.634 -0.1615  0.4646 -0.5625
26605SOL    HW284627   4.198   6.878  11.728  0.3342  0.7047 -1.2478
26606SOL     OW84628  12.401   7.245   1.423  0.4623 -0.1204 -0.2508
26606SOL    HW184629  12.376   7.320   1.369  0.7732 -0.8168 -1.3913
26606SOL    HW284630  12.496   7.252   1.431  0.3088  0.6243  1.2131
26607SOL     OW84631   3.414   2.728  11.015  0.1631 -0.1673  0.1503
26607SOL    HW184632   3.494   2.778  11.029  0.2834 -0.1737 -0.4913
26607SOL    HW284633   3.418   2.658  11.081 -0.1113  0.7699  1.1956
26608SOL     OW84634   4.357   7.349   8.513 -0.4904  0.1663 -0.4184
26608SOL    HW184635   4.314   7.360   8.597 -1.4614 -1.8605 -0.5772
26608SOL    HW284636   4.395   7.261   8.517 -0.4608  0.0760 -2.0354
26609SOL     OW84637  12.409   0.287   0.547 -0.1986 -0.0034 -0.3194
26609SOL    HW184638  12.326   0.277   0.501 -0.1639 -1.5950 -0.0992
26609SOL    HW284639  12.386   0.282   0.640 -0.0367  1.2248 -0.1953
26610SOL     OW84640   2.471   3.085  11.792 -0.7499  0.0608 -0.5845
26610SOL    HW184641   2.552   3.104  11.745 -1.1878 -1.6150 -2.1493
26610SOL    HW284642   2.421   3.167  11.787  0.7569  1.0754  0.3050
26611SOL     OW84643   7.972   8.884   5.562 -0.3456 -0.6064  0.6119
26611SOL    HW184644   8.057   8.861   5.523 -0.8717 -1.2222 -0.1846
26611SOL    HW284645   7.918   8.911   5.488 -1.5407 -2.3493  0.8028
26612SOL     OW84646  11.369   8.216   7.690 -0.2964  0.3354  0.3610
26612SOL    HW184647  11.285   8.254   7.663  0.0736 -0.6464 -2.5062
26612SOL    HW284648  11.393   8.264   7.769 -1.8655  3.0684 -0.7061
26613SOL     OW84649   0.783   9.135   7.183 -0.3576 -0.5508  0.1108
26613SOL    HW184650   0.850   9.075   7.215 -1.7695 -0.9822  2.4231
26613SOL    HW284651   0.704   9.082   7.175 -1.4610  0.7749  1.5378
26614SOL     OW84652   7.217   3.147  11.111 -0.2161  0.2444  0.2567
26614SOL    HW184653   7.208   3.141  11.016  0.2345  1.4596  0.1158
26614SOL    HW284654   7.307   3.119  11.129 -0.4358 -0.4038  0.3839
26615SOL     OW84655   1.737   9.368   9.701 -0.7503  0.4482  0.9615
26615SOL    HW184656   1.801   9.377   9.771  1.0109 -1.0809 -0.3700
26615SOL    HW284657   1.786   9.382   9.620 -2.1461 -0.4923 -0.1112
26616SOL     OW84658   3.700  12.404   8.538 -0.3510 -0.0170 -0.4636
26616SOL    HW184659   3.759  12.461   8.586  0.8067 -1.0852 -0.5564
26616SOL    HW284660   3.612  12.435   8.560  0.2229  1.2890  0.0766
26617SOL     OW84661   5.195   0.948   7.427  0.2128 -0.3887 -0.1770
26617SOL    HW184662   5.273   0.897   7.406  1.8996  0.5718  3.0414
26617SOL    HW284663   5.125   0.883   7.436  1.3113 -1.6182 -0.2826
26618SOL     OW84664   4.718   2.094   7.930  0.6259  0.7190  0.3968
26618SOL    HW184665   4.739   2.020   7.873  1.9236  1.2942  0.0981
26618SOL    HW284666   4.799   2.111   7.979 -0.9123 -1.0072  3.9588
26619SOL     OW84667   8.840  10.801   1.949  0.0988 -0.0789  0.5819
26619SOL    HW184668   8.872  10.875   2.002 -0.5006  0.1955  0.5702
26619SOL    HW284669   8.767  10.765   2.000 -0.4843  0.1837 -0.0477
26620SOL     OW84670   9.035   2.951   6.078 -0.4543  0.2065 -0.0896
26620SOL    HW184671   9.030   2.865   6.036 -1.6173  0.9469 -1.5985
26620SOL    HW284672   9.114   2.948   6.131  0.1538 -1.3989 -1.0269
26621SOL     OW84673   9.386   8.083   2.448  0.5160  0.0575  0.2366
26621SOL    HW184674   9.401   7.991   2.470  1.1179 -0.1512 -0.9574
26621SOL    HW284675   9.441   8.099   2.372 -0.0122  1.2621  0.0782
26622SOL     OW84676   5.770   7.404  12.046 -0.3492  0.1950 -0.1808
26622SOL    HW184677   5.816   7.321  12.058 -1.6295 -0.6909 -1.0739
26622SOL    HW284678   5.821   7.467  12.096 -0.0374 -1.3672  1.5861
26623SOL     OW84679   2.204   6.518   1.889  0.5930 -0.7140 -0.0729
26623SOL    HW184680   2.256   6.589   1.853 -0.9264  0.5490  0.1050
26623SOL    HW284681   2.218   6.444   1.829  0.3318  0.4717 -1.6378
26624SOL     OW84682   5.000   2.687  10.593 -0.2838  0.0283 -0.6629
26624SOL    HW184683   5.084   2.681  10.549 -0.8307 -0.4054 -1.6861
26624SOL    HW284684   4.938   2.646  10.533 -1.6444  2.4328 -1.0393
26625SOL     OW84685   5.538   0.457   0.929 -0.3657  0.0885 -0.3285
26625SOL    HW184686   5.593   0.513   0.983 -0.6420 -0.8059  0.9257
26625SOL    HW284687   5.596   0.385   0.903 -0.5176 -0.0443 -0.3029
26626SOL     OW84688   5.329   3.505   1.763 -0.4379 -0.1803  0.0594
26626SOL    HW184689   5.303   3.587   1.721 -1.6619 -0.8539 -0.5545
26626SOL    HW284690   5.338   3.527   1.855 -0.4860  0.6987 -0.1322
26627SOL     OW84691  10.590   5.250   6.955  0.6184  0.0628  0.4625
26627SOL    HW184692  10.584   5.342   6.984 -0.7630 -0.2589  1.2909
26627SOL    HW284693  10.599   5.256   6.860 -0.5552  1.0447  0.3876
26628SOL     OW84694   4.285   4.039   0.763 -0.6303 -0.2231 -0.2832
26628SOL    HW184695   4.244   4.089   0.692  0.9862  0.8609 -0.5187
26628SOL    HW284696   4.226   4.051   0.837 -1.0607  0.7804 -0.7629
26629SOL     OW84697   0.179   7.600   9.784 -0.6066  0.3350 -0.1020
26629SOL    HW184698   0.196   7.655   9.707  1.9475 -0.5074 -0.2267
26629SOL    HW284699   0.212   7.513   9.759  2.2530  0.4983  2.5918
26630SOL     OW84700  10.573   2.436   5.273 -0.0210  0.5016  0.2478
26630SOL    HW184701  10.615   2.448   5.187  0.9848  0.2402  0.6823
26630SOL    HW284702  10.527   2.353   5.265  0.3332  0.3181  0.0573
26631SOL     OW84703  12.637   3.343   3.075  0.1214 -0.6940  0.0380
26631SOL    HW184704  12.637   3.346   2.980 -1.1464  0.9516  0.0529
26631SOL    HW284705  12.730   3.338   3.099  0.4738 -0.6249 -1.2610
26632SOL     OW84706   8.760   6.454   1.392  0.6128  0.4969 -0.0842
26632SOL    HW184707   8.719   6.416   1.315 -2.0195  2.5944  0.1331
26632SOL    HW284708   8.802   6.534   1.360  1.4189  0.2605  0.3353
26633SOL     OW84709   2.003   8.031   4.020 -0.1392  0.1032  0.0273
26633SOL    HW184710   1.922   8.076   3.998  0.4237  1.3856  0.5136
26633SOL    HW284711   2.024   7.979   3.942 -1.0835  0.2400 -0.3313
26634SOL     OW84712   7.694   8.585  12.476  0.2560 -0.0353 -0.6954
26634SOL    HW184713   7.616   8.586  12.532  0.3103 -2.0097 -0.5115
26634SOL    HW284714   7.757   8.642  12.521 -0.2731 -0.2826  0.4051
26635SOL     OW84715   8.713   2.672   4.090 -0.2791 -0.1301  0.5718
26635SOL    HW184716   8.782   2.643   4.149 -2.1572 -0.0816  2.9552
26635SOL    HW284717   8.691   2.760   4.120 -0.4361  0.4239 -1.0708
26636SOL     OW84718   4.769   5.262   0.874  0.4307 -0.5419  0.4266
26636SOL    HW184719   4.725   5.218   0.803 -0.4405 -0.7735  1.0992
26636SOL    HW284720   4.786   5.194   0.939 -0.4737 -0.0108  1.2529
26637SOL     OW84721   2.143  11.278   9.785  0.9204 -0.0836 -1.0664
26637SOL    HW184722   2.107  11.290   9.873 -0.9947 -0.0308 -1.8057
26637SOL    HW284723   2.238  11.274   9.798  0.7515  1.0052  0.8635
26638SOL     OW84724   0.853   9.473   3.072 -0.6897 -0.6042 -0.4481
26638SOL    HW184725   0.899   9.393   3.047  0.0497  0.2664 -2.0298
26638SOL    HW284726   0.862   9.530   2.996 -0.9802  1.0838  0.7319
26639SOL     OW84727   9.864   1.534  12.229 -0.2664  0.1365  0.1168
26639SOL    HW184728   9.811   1.593  12.177 -1.5027 -0.0027  1.1736
26639SOL    HW284729   9.803   1.466  12.258  0.3647  0.2192  1.7300
26640SOL     OW84730   8.322   1.417   8.200 -0.2771 -0.7226  0.0586
26640SOL    HW184731   8.271   1.493   8.173 -1.9242 -2.4246 -1.9616
26640SOL    HW284732   8.386   1.405   8.129  0.0511 -1.1622  0.4221
26641SOL     OW84733  11.163   0.093   1.021 -0.3571 -0.3186 -0.3107
26641SOL    HW184734  11.074   0.119   0.997 -0.0307 -1.0363 -2.5129
26641SOL    HW284735  11.189   0.155   1.089 -1.8610  1.1142 -0.9789
26642SOL     OW84736   1.557   2.333   0.951 -0.0415 -0.5008  0.0757
26642SOL    HW184737   1.462   2.340   0.966 -0.3245 -1.4579 -1.0763
26642SOL    HW284738   1.579   2.411   0.901 -0.1742 -0.1808  0.5046
26643SOL     OW84739   4.776   7.332   7.735  1.0575 -0.4030 -0.2259
26643SOL    HW184740   4.792   7.316   7.642 -0.5840  0.5755 -0.7303
26643SOL    HW284741   4.682   7.320   7.745  1.1244  0.0821  1.1824
26644SOL     OW84742   7.424   7.063   4.718 -0.2890  1.1128  0.2301
26644SOL    HW184743   7.437   7.138   4.660 -0.2617  0.0099 -1.2660
26644SOL    HW284744   7.512   7.032   4.737 -0.3349  0.6607 -0.2721
26645SOL     OW84745   2.360   9.530   7.374  0.5975  0.0399 -0.0086
26645SOL    HW184746   2.340   9.457   7.315  1.5112 -0.0972 -0.1700
26645SOL    HW284747   2.403   9.489   7.449  0.8221  0.3784  0.0489
26646SOL     OW84748  10.096  12.062  11.167 -0.3169 -0.0417  0.2516
26646SOL    HW184749  10.054  12.145  11.188 -1.5716 -0.1387 -1.6834
26646SOL    HW284750  10.024  11.999  11.162  0.2642 -0.6432 -1.0938
26647SOL     OW84751   8.524   3.805   6.625  0.1171 -0.7149  0.4467
26647SOL    HW184752   8.565   3.720   6.609 -1.2637 -1.6217  1.5444
26647SOL    HW284753   8.572   3.840   6.701 -1.4336 -2.0535  2.1291
26648SOL     OW84754   8.041   8.323   8.078  0.6342 -0.1695  0.3079
26648SOL    HW184755   7.981   8.385   8.037 -0.0172 -1.0039 -0.0320
26648SOL    HW284756   8.109   8.308   8.012  0.9028  0.3298  0.4686
26649SOL     OW84757   7.552  12.170   4.574  0.2684  0.5359 -0.2508
26649SOL    HW184758   7.568  12.241   4.512  2.5029 -0.4921 -0.9724
26649SOL    HW284759   7.621  12.179   4.639  0.5586 -0.8797 -0.3094
26650SOL     OW84760  11.299   8.983   4.002  0.1945 -0.5032  0.1389
26650SOL    HW184761  11.323   9.074   4.017 -0.0533 -0.5663  0.9506
26650SOL    HW284762  11.205   8.985   3.984  0.5968 -0.3369 -2.3446
26651SOL     OW84763   0.390   3.960   4.648  0.0431  0.0719 -0.2660
26651SOL    HW184764   0.400   4.043   4.694 -1.4628  0.1258  0.0087
26651SOL    HW284765   0.430   3.895   4.707 -1.3604  0.2169  0.9304
26652SOL     OW84766   6.467   0.188   9.241  0.7230  0.2831 -0.1751
26652SOL    HW184767   6.559   0.162   9.243  0.6798  0.0633 -0.9724
26652SOL    HW284768   6.469   0.282   9.259  0.9082 -0.1118  2.2665
26653SOL     OW84769   8.941  12.420   3.794 -0.2593 -0.7074  0.2143
26653SOL    HW184770   8.990  12.440   3.874 -0.8982 -1.6649  0.8592
26653SOL    HW284771   8.856  12.462   3.807  0.6306  1.7666 -1.3066
26654SOL     OW84772   8.333   6.650   2.020 -0.0353 -0.2802  0.5591
26654SOL    HW184773   8.258   6.619   2.071 -0.6935  1.4442  0.7013
26654SOL    HW284774   8.337   6.744   2.038  1.4720 -0.1385 -0.3505
26655SOL     OW84775  12.175   7.494   9.043 -0.0143 -0.3128 -0.1389
26655SOL    HW184776  12.084   7.469   9.030 -0.2720  0.0508  0.8164
26655SOL    HW284777  12.214   7.421   9.090  0.7975 -1.4450 -2.4477
26656SOL     OW84778   3.547   8.734   6.268 -0.1796  0.1029 -0.5962
26656SOL    HW184779   3.588   8.798   6.327  1.5264 -2.4052  1.1430
26656SOL    HW284780   3.479   8.692   6.321  0.0352 -0.8533 -1.0517
26657SOL     OW84781   5.128   9.739   2.502  0.0279 -0.1719 -0.1863
26657SOL    HW184782   5.185   9.763   2.429  1.1537 -1.4360  0.2416
26657SOL    HW284783   5.101   9.822   2.540  1.7722  0.4822 -0.2857
26658SOL     OW84784   8.056   9.761   6.826 -0.5945 -0.2240  0.2228
26658SOL    HW184785   8.046   9.804   6.911 -0.0486 -0.0696  0.2128
26658SOL    HW284786   8.065   9.668   6.847  1.1791 -0.0250  0.4654
26659SOL     OW84787   8.666   6.070   8.927 -0.0598 -0.3326 -0.3442
26659SOL    HW184788   8.716   6.150   8.940 -1.0742  0.0865  1.2628
26659SOL    HW284789   8.589   6.080   8.983 -0.2099 -2.4286 -0.0837
26660SOL     OW84790   3.506  11.093   5.048  0.2635  0.0184 -0.0080
26660SOL    HW184791   3.591  11.100   5.006 -0.4035  0.4239 -1.3510
26660SOL    HW284792   3.476  11.183   5.058 -1.4877 -0.1473 -2.7873
26661SOL     OW84793   8.799   3.459   2.967 -0.6509 -0.6661  0.5725
26661SOL    HW184794   8.763   3.413   2.892  0.7075 -0.6897 -0.0938
26661SOL    HW284795   8.894   3.442   2.963 -0.3391  0.7210  1.3035
26662SOL     OW84796  12.019   4.959   5.536  0.0939 -0.0486  0.3772
26662SOL    HW184797  12.018   4.920   5.449  0.7517  1.2119 -0.2265
26662SOL    HW284798  12.080   5.033   5.529  0.9681 -0.5187  2.1665
26663SOL     OW84799   2.711   6.416   0.141  0.4189 -0.3535 -1.0740
26663SOL    HW184800   2.759   6.478   0.087  1.0465 -0.5825 -0.7951
26663SOL    HW284801   2.771   6.341   0.150  0.6307 -0.0419  0.4909
26664SOL     OW84802  10.066   3.732   6.595  0.2570 -0.1133 -0.5950
26664SOL    HW184803   9.993   3.715   6.535 -0.2009  2.3150 -0.8082
26664SOL    HW284804  10.136   3.764   6.539  0.0402  1.5734  0.0328
26665SOL     OW84805   1.361  10.170   9.120 -0.3081 -0.7815  0.7718
26665SOL    HW184806   1.326  10.254   9.090  2.1259 -0.2750 -0.8985
26665SOL    HW284807   1.364  10.178   9.215 -3.8073 -0.5753  1.0004
26666SOL     OW84808   4.466   6.570   0.652 -0.2549  0.1057 -0.3691
26666SOL    HW184809   4.471   6.665   0.645  0.8080  0.0804 -0.1148
26666SOL    HW284810   4.457   6.539   0.562 -1.0444  0.4646 -0.4170
26667SOL     OW84811  11.837   9.876   0.477 -0.1663  0.5489  0.3157
26667SOL    HW184812  11.789   9.918   0.406  1.3286  0.9315 -0.4995
26667SOL    HW284813  11.866   9.948   0.532 -1.2449  0.2598  1.3136
26668SOL     OW84814   9.937   9.462  10.731 -0.0983  0.1972  0.1417
26668SOL    HW184815  10.031   9.479  10.736  0.0662 -1.0391  2.1141
26668SOL    HW284816   9.929   9.367  10.743 -1.5665  0.1557 -0.8837
26669SOL     OW84817   7.541  11.407  12.574 -0.2902  0.1910  0.5017
26669SOL    HW184818   7.469  11.357  12.612 -1.1488 -0.6762 -2.0405
26669SOL    HW284819   7.615  11.390  12.633 -1.0443 -2.5690  0.8218
26670SOL     OW84820   9.680  10.176  10.400 -0.0035 -0.4375  0.2913
26670SOL    HW184821   9.716  10.088  10.406 -0.3653 -0.5963  0.1493
26670SOL    HW284822   9.602  10.174  10.456  0.6350  0.1263  1.2364
26671SOL     OW84823   6.787   3.659   5.734 -0.3049 -0.0666  0.5862
26671SOL    HW184824   6.707   3.611   5.753 -0.6621  0.2118 -0.1814
26671SOL    HW284825   6.849   3.630   5.801 -1.2243  0.1713  1.5768
26672SOL     OW84826   6.307   3.401   1.752 -0.6573 -0.3641 -0.0329
26672SOL    HW184827   6.310   3.341   1.677 -0.1646  0.1102 -0.4099
26672SOL    HW284828   6.303   3.488   1.712  3.2588  0.1673  0.3338
26673SOL     OW84829   1.888   4.893   4.863  0.0358 -0.0837 -0.3536
26673SOL    HW184830   1.834   4.875   4.785  0.0495 -1.0643 -0.1429
26673SOL    HW284831   1.978   4.895   4.830 -0.0597  0.8750 -0.5876
26674SOL     OW84832   0.617  11.073   7.517 -0.4757  0.3400  0.0173
26674SOL    HW184833   0.544  11.128   7.490 -1.4913 -0.2609  1.4454
26674SOL    HW284834   0.601  10.989   7.475 -1.6348 -0.3527  1.7439
26675SOL     OW84835   6.091   8.474   0.246 -0.3143  0.2748 -0.9913
26675SOL    HW184836   5.996   8.477   0.258 -0.2578 -0.9827 -0.0919
26675SOL    HW284837   6.123   8.424   0.320  1.0110  0.2307 -1.5704
26676SOL     OW84838   3.725   8.729   1.769  0.4350  0.2459 -0.4259
26676SOL    HW184839   3.706   8.823   1.766 -2.9066 -0.1250  2.2963
26676SOL    HW284840   3.777   8.717   1.848  2.1207 -0.1279 -1.5395
26677SOL     OW84841   6.430   9.562   7.204  0.1138 -0.3737 -0.5625
26677SOL    HW184842   6.480   9.491   7.244  1.2248  0.4056 -0.5250
26677SOL    HW284843   6.429   9.631   7.270 -1.2860 -0.4712 -0.4509
26678SOL     OW84844   3.887   9.267   8.842 -0.1370 -0.2333 -0.3042
26678SOL    HW184845   3.956   9.226   8.789  2.2321  1.1534  1.4856
26678SOL    HW284846   3.806   9.224   8.814  1.5327 -2.5804 -1.9288
26679SOL     OW84847   9.867   3.715   0.388 -0.1090 -0.1693 -0.3598
26679SOL    HW184848   9.810   3.782   0.351  0.3236 -0.3667 -1.4179
26679SOL    HW284849   9.832   3.632   0.356 -1.5238 -0.6289  2.1180
26680SOL     OW84850   3.559   7.342  10.720  0.1696  0.4022 -0.2637
26680SOL    HW184851   3.590   7.295  10.642  0.9846 -1.9338  1.3692
26680SOL    HW284852   3.498   7.407  10.685  2.4936  1.3016 -3.1022
26681SOL     OW84853   9.475  10.130  10.138 -0.1823 -0.0923 -0.6638
26681SOL    HW184854   9.404  10.184  10.104 -1.0098  0.2547  1.4907
26681SOL    HW284855   9.551  10.188  10.140  0.1580 -0.3842 -2.6963
26682SOL     OW84856  10.284  12.467   3.244 -0.0702 -0.1138 -0.2484
26682SOL    HW184857  10.355  12.408   3.271 -1.2236 -0.6976  1.6557
26682SOL    HW284858  10.210  12.409   3.227 -1.0688  0.7261  1.1226
26683SOL     OW84859   5.104   0.045   4.116 -0.0070 -0.2583  0.0343
26683SOL    HW184860   5.088   0.041   4.210  0.8462  0.8393  0.2403
26683SOL    HW284861   5.079   0.134   4.091 -1.0582 -0.7938 -0.9590
26684SOL     OW84862  10.473   3.784   3.356  0.4746 -0.1930 -0.2291
26684SOL    HW184863  10.541   3.806   3.419 -0.3812 -0.8767  0.9863
26684SOL    HW284864  10.399   3.840   3.380 -0.5625 -1.9057  0.7376
26685SOL     OW84865   9.107   2.355   7.462 -0.2527 -0.0919  0.1963
26685SOL    HW184866   9.192   2.328   7.496 -0.4343 -0.2113  0.5628
26685SOL    HW284867   9.127   2.427   7.402 -0.0398  1.1931  1.7454
26686SOL     OW84868   0.061   0.534   2.274  0.4489  0.2700  0.0287
26686SOL    HW184869  -0.024   0.573   2.296 -0.0893  1.2315 -3.2457
26686SOL    HW284870   0.040   0.443   2.251 -0.1243  0.9806 -2.5785
26687SOL     OW84871   0.799   7.970   8.958 -0.3044  0.3251  0.3223
26687SOL    HW184872   0.781   7.970   9.052  1.5472 -0.9519  0.7241
26687SOL    HW284873   0.773   7.883   8.929 -0.9840  0.7571 -0.3963
26688SOL     OW84874   0.156   3.555   0.330  0.0755 -0.2183 -0.1526
26688SOL    HW184875   0.127   3.643   0.305  0.1489 -0.5026 -1.2905
26688SOL    HW284876   0.166   3.509   0.247  0.5271 -1.1524  0.4088
26689SOL     OW84877   6.119   5.287   2.419 -0.5592  0.4855  0.6368
26689SOL    HW184878   6.144   5.196   2.431 -0.0450  0.7069  1.2968
26689SOL    HW284879   6.108   5.297   2.324  1.5566  0.3012  0.3369
26690SOL     OW84880   0.430   1.677   8.927  0.1780  0.4349  0.3753
26690SOL    HW184881   0.357   1.639   8.977 -0.1036  0.0137 -0.3358
26690SOL    HW284882   0.469   1.602   8.882  0.7808  0.7269  0.4085
26691SOL     OW84883  12.428   4.701   9.025  0.1011  0.4910  0.2821
26691SOL    HW184884  12.397   4.698   9.116  0.5167  3.4188  0.6377
26691SOL    HW284885  12.473   4.785   9.019 -1.3762  1.1929 -3.0813
26692SOL     OW84886   6.475   4.703  11.096  0.1051  0.2368  0.8972
26692SOL    HW184887   6.420   4.676  11.022  1.2671 -1.3921  0.5805
26692SOL    HW284888   6.550   4.644  11.092  1.3852  1.7403  1.9327
26693SOL     OW84889   1.873   4.137   5.813  0.0101  0.2745  0.2027
26693SOL    HW184890   1.899   4.047   5.797  1.7813  0.7358  0.2118
26693SOL    HW284891   1.778   4.135   5.818 -0.0796 -1.3273 -1.4094
26694SOL     OW84892  10.887  10.633   5.653  0.3379  0.3523 -0.6093
26694SOL    HW184893  10.897  10.541   5.678 -0.9559 -0.1503 -1.8165
26694SOL    HW284894  10.832  10.670   5.721  2.3235  0.7264  0.8625
26695SOL     OW84895   8.137   9.819   0.483  0.0633  0.4027  0.7154
26695SOL    HW184896   8.138   9.908   0.449 -1.2810  0.2659  0.2559
26695SOL    HW284897   8.091   9.825   0.566  0.2119  0.1826  0.8151
26696SOL     OW84898  10.856   3.848   6.889  0.5641 -0.1073  0.0411
26696SOL    HW184899  10.938   3.896   6.906  1.5919 -2.3372  1.8576
26696SOL    HW284900  10.861   3.771   6.945 -2.5606 -0.6447 -0.2549
26697SOL     OW84901  11.582   0.037   1.953  0.4205 -0.3285  0.6263
26697SOL    HW184902  11.607   0.107   2.013  0.0747 -0.1732  0.5944
26697SOL    HW284903  11.639   0.048   1.877 -1.9166  2.1426 -0.9602
26698SOL     OW84904  10.061   7.675  12.492 -0.5781 -0.2901 -0.5869
26698SOL    HW184905  10.105   7.731  12.556  1.5190 -0.9000 -1.4136
26698SOL    HW284906  10.082   7.714  12.407  1.4751 -2.5337 -1.2384
26699SOL     OW84907   1.594   2.039   1.564  0.0910  0.2323  0.0707
26699SOL    HW184908   1.540   2.088   1.502  0.6323 -0.4618 -0.9734
26699SOL    HW284909   1.612   1.956   1.520  0.8857 -0.0813  0.9611
26700SOL     OW84910   2.388   4.184   5.644  0.2334  0.4827  0.1705
26700SOL    HW184911   2.330   4.123   5.597 -0.0586 -0.0984  1.2345
26700SOL    HW284912   2.347   4.269   5.631 -0.4180  0.1913  0.2111
26701SOL     OW84913   4.056   1.963  10.552 -0.1440 -0.1621  0.3499
26701SOL    HW184914   4.055   1.905  10.629 -1.9723  0.7685  1.0963
26701SOL    HW284915   3.967   1.998  10.548  0.8242  2.4225 -0.2081
26702SOL     OW84916   3.219   0.441   3.791  0.1273 -0.4037 -0.4596
26702SOL    HW184917   3.271   0.366   3.818  1.6285  0.9103  0.4448
26702SOL    HW284918   3.130   0.407   3.781  0.8092 -2.3158 -0.2693
26703SOL     OW84919  10.758   5.354   0.814 -0.1838  0.0751  0.2592
26703SOL    HW184920  10.832   5.316   0.766 -0.2955 -0.7483  0.7146
26703SOL    HW284921  10.782   5.446   0.827  1.1428 -0.3692  1.1262
26704SOL     OW84922  10.262   1.360   4.839  0.2804  0.1150 -0.0170
26704SOL    HW184923  10.265   1.333   4.747 -2.2055 -1.7622  0.3251
26704SOL    HW284924  10.308   1.290   4.886 -1.9361 -1.1310  0.4438
26705SOL     OW84925   3.208   3.768   1.886 -0.9736 -0.2118  0.1066
26705SOL    HW184926   3.175   3.788   1.799  0.5513  0.1117 -0.4156
26705SOL    HW284927   3.269   3.696   1.874 -0.2743  0.2413  0.8051
26706SOL     OW84928   7.608   2.820   2.195  0.5060 -0.2898 -0.2011
26706SOL    HW184929   7.688   2.862   2.226  0.5030  0.6426 -1.3709
26706SOL    HW284930   7.638   2.756   2.130  0.4085 -1.0875  0.5331
26707SOL     OW84931   2.810   5.669   4.544 -0.4167 -0.0483  0.0866
26707SOL    HW184932   2.793   5.640   4.454 -1.4431 -0.3943  0.3745
26707SOL    HW284933   2.725   5.699   4.576  0.7469  4.7330 -0.6365
26708SOL     OW84934  11.055   2.507   1.695  0.7279 -0.0677 -0.1146
26708SOL    HW184935  11.074   2.519   1.788  1.7982 -0.6434 -0.2335
26708SOL    HW284936  10.997   2.431   1.692 -1.3667  1.4452  0.2301
26709SOL     OW84937   8.035   6.991   4.794  0.6453 -0.3805 -0.7240
26709SOL    HW184938   7.939   6.982   4.796  0.5143  0.8121 -1.0060
26709SOL    HW284939   8.057   6.993   4.701  1.0785 -1.7664 -0.6701
26710SOL     OW84940   3.463   9.666   5.878 -0.0879 -0.3670  0.3601
26710SOL    HW184941   3.508   9.588   5.913 -0.3422 -0.1282  1.2590
26710SOL    HW284942   3.374   9.660   5.914 -0.0456  0.4464  0.6130
26711SOL     OW84943   6.742   0.504   5.194 -0.1499  0.1844  0.0284
26711SOL    HW184944   6.835   0.498   5.173 -0.0110  2.3909 -0.1980
26711SOL    HW284945   6.711   0.413   5.194  1.4121 -0.4445 -2.5451
26712SOL     OW84946   3.568  11.188   5.382  0.2286 -0.3837  0.1026
26712SOL    HW184947   3.578  11.176   5.476  0.7848  2.4501  0.5197
26712SOL    HW284948   3.474  11.185   5.367  0.0323  0.4471  1.0209
26713SOL     OW84949  10.046  11.375   0.507  0.2034 -0.5937  0.6200
26713SOL    HW184950   9.996  11.295   0.526 -0.3207 -0.3321  0.3882
26713SOL    HW284951  10.121  11.345   0.457  0.4036 -1.0252  1.1686
26714SOL     OW84952   2.695   0.306   0.307 -0.1605 -0.6167  0.6295
26714SOL    HW184953   2.683   0.264   0.222 -0.4837 -1.0712  0.8915
26714SOL    HW284954   2.685   0.399   0.289  0.1372 -0.6804  0.1094
26715SOL     OW84955   6.359   4.541  11.936  0.1959 -0.6899 -0.3848
26715SOL    HW184956   6.377   4.635  11.927  1.9051 -0.7495  1.6530
26715SOL    HW284957   6.352   4.527  12.030 -1.1541 -2.4587 -0.7012
26716SOL     OW84958  10.360   2.680   1.231  0.1283  0.6219  0.4613
26716SOL    HW184959  10.369   2.668   1.137  0.4174 -0.3036  0.5920
26716SOL    HW284960  10.304   2.607   1.259  0.8151  0.3325  1.1295
26717SOL     OW84961   9.979  10.245   6.195 -0.7637 -0.0579 -0.2974
26717SOL    HW184962  10.002  10.325   6.243 -0.4233 -0.7435  0.6984
26717SOL    HW284963  10.062  10.201   6.180 -1.1368 -1.2537  1.0014
26718SOL     OW84964   7.040   4.519   6.158 -0.0338 -0.6568  0.2637
26718SOL    HW184965   7.043   4.426   6.139  3.0994 -0.4448 -0.9081
26718SOL    HW284966   7.017   4.524   6.251 -1.4072 -2.4721  0.0799
26719SOL     OW84967   9.878   5.357   7.895  0.3112  0.3858  0.0175
26719SOL    HW184968   9.944   5.339   7.963  1.5653  0.7940 -1.0539
26719SOL    HW284969   9.905   5.303   7.821 -1.0689 -0.0858 -0.1587
26720SOL     OW84970  10.521   8.273   3.221  0.5224 -1.1215 -0.8325
26720SOL    HW184971  10.522   8.220   3.301 -0.2444 -1.7807 -1.2354
26720SOL    HW284972  10.567   8.220   3.157  0.4504 -0.9451 -1.0312
26721SOL     OW84973   7.310   1.442   3.550  0.0547  0.2743  0.0848
26721SOL    HW184974   7.286   1.352   3.573 -0.0136  0.4215  0.5991
26721SOL    HW284975   7.380   1.465   3.612 -0.5407  0.8785  0.5469
26722SOL     OW84976   7.033   4.068   6.548  0.5671 -0.3729  0.1216
26722SOL    HW184977   6.967   4.075   6.478  0.9580  1.3200 -0.1127
26722SOL    HW284978   7.115   4.051   6.502  0.4125 -2.0280  0.3879
26723SOL     OW84979   9.912   7.269   9.654  0.1419 -0.3567 -0.3162
26723SOL    HW184980   9.966   7.282   9.732  0.0779  3.2020 -0.6675
26723SOL    HW284981   9.971   7.290   9.581 -0.4232 -1.3582 -1.0949
26724SOL     OW84982   7.131   7.713   2.336 -1.2214 -0.2720 -0.3674
26724SOL    HW184983   7.038   7.695   2.322 -1.7035  0.9051  1.0783
26724SOL    HW284984   7.171   7.626   2.346 -1.8459 -0.8808 -2.5039
26725SOL     OW84985   7.046   6.027  10.416  0.1459  0.1982 -0.1134
26725SOL    HW184986   6.993   6.024  10.496  0.9573  1.5330  0.5133
26725SOL    HW284987   6.981   6.028  10.345 -0.5684 -1.9331  0.4463
26726SOL     OW84988   2.923  12.617   5.604  0.0473  0.3903 -0.0884
26726SOL    HW184989   2.998  12.568   5.570  0.1592  1.6110 -1.7299
26726SOL    HW284990   2.955  12.658   5.685  0.3311 -1.1564  0.6095
26727SOL     OW84991  11.792   4.208   4.415  0.2461 -0.2726  0.0785
26727SOL    HW184992  11.859   4.152   4.376  0.1395  0.2066 -0.8077
26727SOL    HW284993  11.791   4.183   4.508  1.2394 -0.6891 -0.0136
26728SOL     OW84994   8.144   7.433   4.001 -0.4313 -0.6182  0.1462
26728SOL    HW184995   8.219   7.375   3.987 -1.5414 -2.4152  1.2067
26728SOL    HW284996   8.102   7.438   3.915 -0.5159 -1.7106  0.1114
26729SOL     OW84997   6.391   8.416   3.710 -0.2051 -0.6639 -0.2976
26729SOL    HW184998   6.362   8.486   3.651  1.5997  0.6804  0.3046
26729SOL    HW284999   6.311   8.385   3.752 -0.9775  1.7387  0.1442
26730SOL     OW85000   7.791   2.276   7.088 -0.2124 -0.0439 -0.7033
26730SOL    HW185001   7.813   2.200   7.140 -0.1204  0.9833  0.8280
26730SOL    HW285002   7.825   2.256   7.000  0.4998 -1.4111 -0.1460
26731SOL     OW85003   4.052   0.096   0.528 -0.3760  0.2986  0.2098
26731SOL    HW185004   4.103   0.177   0.523  0.0381  0.0173 -0.1113
26731SOL    HW285005   4.117   0.026   0.532 -0.7367 -0.0649 -0.1895
26732SOL     OW85006   6.273   8.539   4.756  0.2412 -0.1766  0.3318
26732SOL    HW185007   6.338   8.489   4.708 -0.6478 -1.3415  0.2756
26732SOL    HW285008   6.296   8.526   4.848 -0.3123 -1.2181  0.3448
26733SOL     OW85009   5.331   6.908   6.632 -0.1722 -0.3617  0.2955
26733SOL    HW185010   5.304   6.831   6.582 -1.8019 -0.7714  1.6967
26733SOL    HW285011   5.407   6.941   6.585 -1.0556 -1.2298 -1.9084
26734SOL     OW85012  11.356   9.372   5.041 -0.1503 -0.1728  0.8167
26734SOL    HW185013  11.347   9.426   5.119  2.8477  1.3611  0.2471
26734SOL    HW285014  11.369   9.434   4.969  2.7136 -1.4902  0.0207
26735SOL     OW85015  10.357   4.421  10.389  0.9357  0.8659 -0.0323
26735SOL    HW185016  10.304   4.386  10.460  1.7392 -0.4308 -0.0288
26735SOL    HW285017  10.412   4.487  10.431  1.0114  0.5038  0.4538
26736SOL     OW85018  10.609   3.771   3.839 -0.3023  0.1003 -0.0047
26736SOL    HW185019  10.584   3.832   3.769 -1.9906  0.5176  0.8820
26736SOL    HW285020  10.701   3.753   3.824  0.1949  2.6497 -0.5049
26737SOL     OW85021  11.738   8.943   3.346  0.0095  0.2134 -0.1633
26737SOL    HW185022  11.788   9.022   3.368  1.1468 -0.2259 -1.1059
26737SOL    HW285023  11.675   8.971   3.280 -0.4201  0.5787  0.3902
26738SOL     OW85024   6.182   6.716   6.194 -0.1583 -0.4927 -0.1513
26738SOL    HW185025   6.114   6.782   6.180 -0.4819 -1.0427 -1.2938
26738SOL    HW285026   6.263   6.761   6.170 -0.1152  0.1052  1.0326
26739SOL     OW85027   8.063   1.754   6.092  0.5774  0.4812  0.1673
26739SOL    HW185028   8.014   1.834   6.075 -0.8224  0.0007  1.6717
26739SOL    HW285029   8.131   1.752   6.024  0.0985  2.4686 -0.4282
26740SOL     OW85030   8.654   1.448   8.474 -0.5837 -0.2864 -0.3087
26740SOL    HW185031   8.685   1.507   8.406  0.6842 -2.1745 -1.4645
26740SOL    HW285032   8.685   1.486   8.556 -0.0309  0.7636 -0.9934
26741SOL     OW85033  11.969   2.009   8.737  0.1691  0.1020 -0.0382
26741SOL    HW185034  11.966   2.072   8.665 -0.9850 -1.1863 -1.1567
26741SOL    HW285035  11.920   1.933   8.706  1.5154 -1.3883  1.2567
26742SOL     OW85036   3.330   3.080   8.516  0.2003 -0.4449 -0.1421
26742SOL    HW185037   3.345   2.988   8.495  0.5502 -0.2272 -0.8602
26742SOL    HW285038   3.390   3.128   8.459 -0.7240  0.2743 -0.5340
26743SOL     OW85039  11.271   3.645   8.980  0.6086 -0.5802 -0.1062
26743SOL    HW185040  11.333   3.669   8.911  0.7115 -2.6252 -0.7810
26743SOL    HW285041  11.224   3.570   8.944 -1.0067 -0.1995  1.1287
26744SOL     OW85042   7.830  10.876   7.731  0.1749  0.0419 -0.8177
26744SOL    HW185043   7.755  10.863   7.673  0.4829  0.3421 -1.2904
26744SOL    HW285044   7.792  10.900   7.816 -0.2745 -0.3245 -0.9112
26745SOL     OW85045   7.161  12.369   9.679  0.2311  0.3268  0.4821
26745SOL    HW185046   7.138  12.365   9.586 -0.5640 -1.4639  0.7042
26745SOL    HW285047   7.079  12.392   9.722  0.7438  1.7926  0.7168
26746SOL     OW85048   2.342  11.732   4.343  0.2224  0.0705  0.6258
26746SOL    HW185049   2.417  11.772   4.388  1.0890  0.6634 -1.2391
26746SOL    HW285050   2.375  11.648   4.311 -0.9660 -1.2588  2.6874
26747SOL     OW85051   8.557   9.156   1.171 -0.0438 -0.3125  0.4483
26747SOL    HW185052   8.506   9.215   1.228  0.0985 -0.7833  1.0773
26747SOL    HW285053   8.634   9.135   1.223  0.6694  0.1669 -0.3862
26748SOL     OW85054   5.678   8.840   9.450 -0.5556 -0.0268 -0.8880
26748SOL    HW185055   5.609   8.906   9.450  0.2198  1.0104  2.9282
26748SOL    HW285056   5.639   8.765   9.495 -0.3150 -0.8719 -2.0501
26749SOL     OW85057  10.857  12.041   6.164  0.5703  0.3325  0.2691
26749SOL    HW185058  10.798  12.020   6.236  0.0365  0.4764 -0.1096
26749SOL    HW285059  10.853  11.965   6.106  0.4142  0.5164  0.0307
26750SOL     OW85060   0.590   0.654  10.135  0.2238  0.3885  0.3411
26750SOL    HW185061   0.609   0.613  10.219 -1.2689 -0.4404  0.3072
26750SOL    HW285062   0.669   0.704  10.114  2.1403 -2.3862  0.4225
26751SOL     OW85063   5.134  10.837   6.052  0.0329 -0.2760  0.8524
26751SOL    HW185064   5.139  10.746   6.081  1.1930 -0.4774  0.0720
26751SOL    HW285065   5.220  10.873   6.073 -0.5694  0.7996  1.5941
26752SOL     OW85066   3.081   4.225   9.050 -0.2141  0.2065 -0.2316
26752SOL    HW185067   3.006   4.166   9.058 -0.2312  0.4319  2.0490
26752SOL    HW285068   3.046   4.311   9.074  0.4120  0.6493 -0.8662
26753SOL     OW85069   1.860   1.322   1.407 -0.1460 -0.0078 -0.2068
26753SOL    HW185070   1.946   1.312   1.448  0.1175  0.5853 -0.6088
26753SOL    HW285071   1.806   1.255   1.449  0.7191 -0.9328 -0.5285
26754SOL     OW85072   7.862  11.058   2.929  0.1922 -0.4356  0.1130
26754SOL    HW185073   7.837  10.975   2.889  0.5251 -0.0386 -0.9339
26754SOL    HW285074   7.889  11.034   3.018 -0.4122 -1.3425  0.0647
26755SOL     OW85075   8.407   8.875   9.387 -0.1428  0.2862 -0.5001
26755SOL    HW185076   8.387   8.929   9.310 -0.1022  0.4564 -0.3916
26755SOL    HW285077   8.477   8.922   9.431  0.4023 -0.2370 -0.7988
26756SOL     OW85078   8.926   1.664   7.363  0.0460 -0.5523 -0.1102
26756SOL    HW185079   8.973   1.745   7.383 -0.2009 -0.5886  0.6509
26756SOL    HW285080   8.985   1.616   7.305  1.7614 -1.3660  2.1317
26757SOL     OW85081   9.948   4.170   2.254  0.0101  0.4857 -0.0013
26757SOL    HW185082   9.864   4.201   2.289  0.2175 -0.4517  1.4243
26757SOL    HW285083   9.975   4.101   2.315  0.9409 -0.4835 -1.4470
26758SOL     OW85084   4.529   0.910   4.474 -0.5731 -0.3072 -0.3207
26758SOL    HW185085   4.540   0.815   4.464  1.5471 -0.3532  1.5836
26758SOL    HW285086   4.478   0.920   4.554 -1.1171  0.1717 -0.7220
26759SOL     OW85087  12.586   8.584   1.587 -0.2196 -0.1874  0.9439
26759SOL    HW185088  12.594   8.672   1.623 -0.6126 -0.5545  1.9556
26759SOL    HW285089  12.596   8.596   1.492 -1.2350  1.0721  0.9650
26760SOL     OW85090  10.279   1.415   7.496 -0.3144  0.1026 -0.4936
26760SOL    HW185091  10.196   1.374   7.521  0.1366 -0.6750 -0.2417
26760SOL    HW285092  10.258   1.464   7.416 -1.3959  1.3038  0.4879
26761SOL     OW85093   8.412   0.927   3.988 -0.4082 -0.0255  0.1744
26761SOL    HW185094   8.482   0.876   4.027  1.7847  2.8425  0.3198
26761SOL    HW285095   8.349   0.940   4.059  0.7783  0.4611  1.1719
26762SOL     OW85096   2.564   2.478   3.967  0.0948  0.0815  0.0445
26762SOL    HW185097   2.619   2.483   4.046  0.8638 -3.5799 -0.0887
26762SOL    HW285098   2.495   2.416   3.989 -0.8158  0.4450 -1.5959
26763SOL     OW85099   5.704  10.622  10.175  0.0123 -0.6193  0.0499
26763SOL    HW185100   5.772  10.555  10.176 -1.2451 -1.9398  0.1378
26763SOL    HW285101   5.625  10.576  10.150 -0.5758  1.1895 -1.7141
26764SOL     OW85102   2.819   2.396   6.328  0.1810  0.5901 -0.0901
26764SOL    HW185103   2.901   2.408   6.280  0.1269 -0.7788 -0.5752
26764SOL    HW285104   2.755   2.377   6.259  0.6641 -4.6367  0.4579
26765SOL     OW85105   8.956   6.477   3.115 -0.3938 -0.3334 -0.4473
26765SOL    HW185106   9.035   6.508   3.160 -0.7831  0.1566 -0.0959
26765SOL    HW285107   8.905   6.556   3.100 -1.4095 -0.7985  0.4599
26766SOL     OW85108   0.795   6.920   4.058  0.6027 -0.6942 -0.1317
26766SOL    HW185109   0.714   6.933   4.108  0.6582 -1.1011  0.0680
26766SOL    HW285110   0.801   6.826   4.047  0.3587 -0.5820 -1.3012
26767SOL     OW85111  12.080   5.564   1.131  0.1145  0.8573  0.7738
26767SOL    HW185112  12.102   5.546   1.222  1.7894  1.0522  0.4409
26767SOL    HW285113  12.037   5.649   1.133  2.8877  2.3497  1.1097
26768SOL     OW85114  10.365   6.474   4.465 -0.2639  0.2022  0.4756
26768SOL    HW185115  10.408   6.558   4.482  0.9238  0.0372 -1.4680
26768SOL    HW285116  10.414   6.411   4.517 -0.4997  0.5273  1.1129
26769SOL     OW85117   9.834   0.562   6.713 -0.0669  0.0149  0.3464
26769SOL    HW185118   9.889   0.485   6.699 -0.0246 -0.0078  0.6472
26769SOL    HW285119   9.779   0.565   6.635 -0.2455 -0.4682  0.4466
26770SOL     OW85120  10.663  12.560   2.326 -0.5557 -0.1872  0.1859
26770SOL    HW185121  10.681  12.469   2.301 -0.7784 -0.7372  1.8358
26770SOL    HW285122  10.740  12.587   2.376 -0.1500  0.8232 -0.9534
26771SOL     OW85123   4.433   4.122  11.272  0.3188 -0.5493 -0.0892
26771SOL    HW185124   4.352   4.164  11.302  1.5911  0.5308  2.0185
26771SOL    HW285125   4.403   4.042  11.228 -1.8907 -0.3372  0.9038
26772SOL     OW85126  11.078  10.359   4.788  0.5848 -0.4005 -0.3254
26772SOL    HW185127  11.023  10.280   4.785  0.1692 -0.0795 -2.9436
26772SOL    HW285128  11.072  10.396   4.700  0.5225  2.7491  0.8877
26773SOL     OW85129   4.351  12.229   5.911 -0.3258  0.2547 -0.1922
26773SOL    HW185130   4.294  12.213   5.836 -0.8291 -0.1327  0.2635
26773SOL    HW285131   4.439  12.213   5.878 -0.4274  1.3508 -1.0377
26774SOL     OW85132  12.303   4.860   6.076 -0.3164 -0.1699 -0.0531
26774SOL    HW185133  12.330   4.776   6.112  0.9974 -0.0926 -0.7933
26774SOL    HW285134  12.221   4.841   6.031  0.7720 -1.4606 -1.6171
26775SOL     OW85135   3.874   5.186   2.581 -0.8840 -0.2169 -0.0144
26775SOL    HW185136   3.803   5.174   2.518 -0.5846  2.1074 -0.8931
26775SOL    HW285137   3.950   5.208   2.528  0.2595 -1.5410  0.9918
26776SOL     OW85138   4.100   9.838   0.666  0.8322 -0.2889 -0.4588
26776SOL    HW185139   4.044   9.760   0.661  0.1946  0.1992 -1.2178
26776SOL    HW285140   4.051   9.899   0.723  1.1455 -0.2956 -0.1809
26777SOL     OW85141   4.093  11.198   8.244 -0.1531  0.8930 -0.2935
26777SOL    HW185142   4.018  11.256   8.254 -0.8876 -0.1272  0.3335
26777SOL    HW285143   4.164  11.242   8.291 -0.6091  1.4220 -0.0909
26778SOL     OW85144   3.706   5.122   5.689 -0.1386  0.2000  0.0645
26778SOL    HW185145   3.661   5.168   5.618 -0.5589 -1.9377 -1.1309
26778SOL    HW285146   3.799   5.134   5.671 -0.2408 -0.3311 -0.8902
26779SOL     OW85147   4.178   6.841   7.864 -0.3075 -0.0623 -0.2137
26779SOL    HW185148   4.236   6.886   7.803 -0.3057  0.0274 -0.1437
26779SOL    HW285149   4.100   6.821   7.811 -0.3209  0.0484 -0.2359
26780SOL     OW85150   3.063   9.698  11.931 -0.4588  0.3020  0.2672
26780SOL    HW185151   2.999   9.769  11.924 -1.1132 -0.2726  0.3568
26780SOL    HW285152   3.146   9.738  11.905 -1.2302  0.4742 -2.1365
26781SOL     OW85153   7.421  11.208   8.441 -0.8420 -0.3250  0.3808
26781SOL    HW185154   7.337  11.252   8.454 -0.9844 -0.4542 -0.0742
26781SOL    HW285155   7.398  11.120   8.411 -0.5434 -0.2930  0.0452
26782SOL     OW85156   6.460   5.081   2.866 -0.1804 -0.2619 -0.2712
26782SOL    HW185157   6.500   5.157   2.907 -0.9554  0.1769 -0.3035
26782SOL    HW285158   6.376   5.071   2.911 -0.0805 -1.1083 -0.2582
26783SOL     OW85159   2.894   7.102   8.711  0.1388 -0.5266 -0.1979
26783SOL    HW185160   2.920   7.033   8.772  0.7734 -0.7637 -0.7359
26783SOL    HW285161   2.800   7.088   8.699  0.2075 -1.1228 -0.0875
26784SOL     OW85162   5.467  11.594   0.704  0.3916 -0.0375 -0.3925
26784SOL    HW185163   5.378  11.629   0.709  0.8598  1.3095 -1.1264
26784SOL    HW285164   5.463  11.513   0.756 -1.2936 -0.1099 -0.5694
26785SOL     OW85165   8.483   1.475   0.171  0.4331  0.0440 -0.0645
26785SOL    HW185166   8.446   1.519   0.247 -2.3043 -0.0804 -1.1974
26785SOL    HW285167   8.531   1.543   0.124  0.7409  0.5099  0.9031
26786SOL     OW85168  10.351   7.178   8.358 -0.1601  0.5511 -0.2191
26786SOL    HW185169  10.400   7.231   8.421 -2.3691  1.9080  0.4833
26786SOL    HW285170  10.316   7.106   8.410  0.8738 -0.3077 -0.6775
26787SOL     OW85171  11.260   8.096   8.706 -0.2292  0.5420 -0.0006
26787SOL    HW185172  11.339   8.116   8.657  0.0206  1.8715  0.8999
26787SOL    HW285173  11.197   8.162   8.678 -1.0792 -0.5366 -0.7519
26788SOL     OW85174   7.776   6.797   4.548  0.0836  0.7027 -0.2960
26788SOL    HW185175   7.742   6.864   4.608  0.0889 -0.4319  1.0168
26788SOL    HW285176   7.859   6.831   4.518 -1.0517  2.4320 -1.6550
26789SOL     OW85177   4.530  11.936   6.550 -0.2840  0.2212 -0.5849
26789SOL    HW185178   4.511  11.873   6.620  2.0960  0.8903  0.8064
26789SOL    HW285179   4.475  12.012   6.570 -1.3962 -0.4848 -0.8804
26790SOL     OW85180   8.350   1.184   7.236  0.2599 -0.0167  0.1151
26790SOL    HW185181   8.377   1.250   7.300  2.5003 -2.8159  2.3565
26790SOL    HW285182   8.405   1.200   7.160  1.0079  0.5462  0.7507
26791SOL     OW85183  10.469   5.693   8.682  0.4061  0.2512 -0.6028
26791SOL    HW185184  10.556   5.731   8.686  0.0495  1.0689 -0.3853
26791SOL    HW285185  10.459   5.665   8.591  0.4377  1.2789 -0.9407
26792SOL     OW85186   8.473   0.241   8.242  0.0282  0.8077 -0.0823
26792SOL    HW185187   8.457   0.191   8.162  1.3309  0.2814 -0.0473
26792SOL    HW285188   8.412   0.205   8.306 -1.0453  1.2515 -0.8362
26793SOL     OW85189   6.746   8.555   9.982 -0.9577 -0.0545  0.3583
26793SOL    HW185190   6.673   8.513   9.936 -2.2288  1.5394  0.8202
26793SOL    HW285191   6.758   8.638   9.936  1.3540 -0.7501 -0.4056
26794SOL     OW85192  11.908   5.999   5.503 -0.1560 -0.2793 -0.8687
26794SOL    HW185193  11.844   5.929   5.490  0.1049 -0.3277 -2.0466
26794SOL    HW285194  11.988   5.966   5.463  0.0561  0.5719 -1.1798
26795SOL     OW85195   4.384   0.556   8.856 -0.3224  0.7292  0.4992
26795SOL    HW185196   4.300   0.527   8.818  0.2887 -2.4589  1.2761
26795SOL    HW285197   4.441   0.568   8.781 -0.5918 -0.3219  0.1054
26796SOL     OW85198  12.151   4.405   5.986  0.6675  0.0343 -0.4469
26796SOL    HW185199  12.099   4.474   5.943  1.1588 -0.5768 -2.1228
26796SOL    HW285200  12.135   4.327   5.932  1.1347 -0.8488  0.6642
26797SOL     OW85201   1.057   2.531   6.634 -0.1190  0.3253  0.3764
26797SOL    HW185202   1.112   2.473   6.687  0.7619  1.5791  0.9001
26797SOL    HW285203   1.092   2.524   6.545  0.3216  0.4309  0.5375
26798SOL     OW85204  11.244   7.375   1.319 -0.2368  0.2091  0.1344
26798SOL    HW185205  11.338   7.383   1.305  0.3689  0.5470  3.4923
26798SOL    HW285206  11.210   7.465   1.312 -0.4007  0.0558 -1.3137
26799SOL     OW85207  11.855   2.418   5.889 -0.4688  0.3704  0.4124
26799SOL    HW185208  11.932   2.464   5.923  0.6175 -0.3194 -1.0174
26799SOL    HW285209  11.857   2.333   5.932 -0.7104  0.5284  0.7371
26800SOL     OW85210  11.560   4.059   9.995  0.2167 -0.7654 -0.1548
26800SOL    HW185211  11.482   4.112  10.010 -0.6434 -2.3506  1.3103
26800SOL    HW285212  11.600   4.097   9.917 -1.5999  0.5668 -0.5057
26801SOL     OW85213   3.552  11.307   8.758  0.1211  0.1232 -0.4725
26801SOL    HW185214   3.470  11.291   8.805 -0.2820  0.6664 -0.9764
26801SOL    HW285215   3.550  11.245   8.685 -0.0350  0.4064 -0.7125
26802SOL     OW85216   2.363   4.213   6.030 -0.6309 -0.4989  0.1119
26802SOL    HW185217   2.303   4.158   5.980  1.6564 -1.2768 -1.9249
26802SOL    HW285218   2.447   4.168   6.026  0.7722  1.8943  0.4934
26803SOL     OW85219  11.452   1.214   2.207  0.2843  0.3163  0.1475
26803SOL    HW185220  11.420   1.295   2.168  1.3578 -0.2329 -2.0198
26803SOL    HW285221  11.536   1.198   2.164  0.4122 -1.6083  1.0075
26804SOL     OW85222   5.378   6.066  11.262  0.4379 -0.3862 -0.6080
26804SOL    HW185223   5.432   6.087  11.186 -0.2335 -1.6075 -1.4570
26804SOL    HW285224   5.440   6.062  11.335  0.9822  1.5548 -0.9200
26805SOL     OW85225  10.738  10.879   1.862  0.3271 -0.6014  0.0568
26805SOL    HW185226  10.747  10.802   1.805 -1.5222  0.9576 -2.5861
26805SOL    HW285227  10.646  10.877   1.889  0.3133  0.5713  0.1119
26806SOL     OW85228   7.534   2.875  12.052  0.0000 -0.0482  0.2301
26806SOL    HW185229   7.490   2.795  12.081  0.7700 -0.1866  1.0302
26806SOL    HW285230   7.465   2.924  12.007 -0.3573 -1.4017 -0.7826
26807SOL     OW85231   4.761   5.397   1.381  0.7516  0.3834 -0.9516
26807SOL    HW185232   4.786   5.480   1.422  1.0399 -0.2919  0.3102
26807SOL    HW285233   4.816   5.332   1.424 -0.2196 -0.5998 -1.1555
26808SOL     OW85234   5.740   5.953   8.272  0.5903 -0.2342  0.3266
26808SOL    HW185235   5.680   5.878   8.275  2.1797 -1.6357 -0.8854
26808SOL    HW285236   5.821   5.918   8.235  1.6879  1.9206  0.5006
26809SOL     OW85237   8.744   0.706   2.524  0.2861  0.2475  0.5782
26809SOL    HW185238   8.776   0.623   2.559 -1.0615 -0.8312 -0.6111
26809SOL    HW285239   8.813   0.737   2.466  1.4803  0.8081  2.2287
26810SOL     OW85240   2.635  11.986   6.785 -0.4318  0.6011 -0.2983
26810SOL    HW185241   2.573  11.969   6.714 -1.7022 -1.6012  1.2192
26810SOL    HW285242   2.719  11.955   6.753 -1.1358 -1.0688 -0.5986
26811SOL     OW85243  10.370   8.751   2.365 -0.0124 -0.0708 -0.0427
26811SOL    HW185244  10.395   8.713   2.450  0.1945  1.3447  0.5650
26811SOL    HW285245  10.303   8.815   2.387 -0.2269  0.0422 -1.0034
26812SOL     OW85246  12.423  10.660   2.864  0.3321 -0.1636  0.1984
26812SOL    HW185247  12.415  10.742   2.815  0.4693 -0.5502 -0.4769
26812SOL    HW285248  12.338  10.617   2.852  0.7626 -0.7806 -0.6521
26813SOL     OW85249   8.737  10.434   6.225  0.4659 -0.3584 -0.6422
26813SOL    HW185250   8.691  10.483   6.157  1.0443  1.0564 -0.0672
26813SOL    HW285251   8.794  10.499   6.266  1.6877 -1.6669 -0.2005
26814SOL     OW85252   0.862   2.879   3.806 -0.4960 -0.2238 -0.2425
26814SOL    HW185253   0.806   2.853   3.880 -0.8960  0.6420 -0.2338
26814SOL    HW285254   0.891   2.796   3.768 -1.5236 -0.6874 -0.0493
26815SOL     OW85255   8.121  10.241   6.433  0.3360  0.1615 -0.2811
26815SOL    HW185256   8.146  10.278   6.518  0.0373 -1.3779  0.5246
26815SOL    HW285257   8.094  10.316   6.381  1.2071  1.2256  0.7394
26816SOL     OW85258  10.501   1.475   7.980  0.5555 -0.3483 -0.0601
26816SOL    HW185259  10.470   1.435   7.899 -0.2015  1.5369 -0.7689
26816SOL    HW285260  10.584   1.516   7.956  0.8290 -0.6341  0.3883
26817SOL     OW85261   5.397   3.429   8.962 -0.0956 -0.0776  0.3360
26817SOL    HW185262   5.478   3.445   9.010  0.9875  2.1390 -1.9908
26817SOL    HW285263   5.330   3.423   9.029  1.4646  1.7917  2.2108
26818SOL     OW85264   0.674   7.664  10.562  0.1909  0.5117  0.2566
26818SOL    HW185265   0.665   7.746  10.611  0.3949  0.3423  0.5820
26818SOL    HW285266   0.645   7.686  10.473 -2.0941  0.3439  0.9025
26819SOL     OW85267   6.929   4.522  10.132  0.4177  0.1387  0.2506
26819SOL    HW185268   6.869   4.506  10.059 -0.1640 -1.6914  1.0806
26819SOL    HW285269   6.875   4.566  10.198 -0.1414 -1.7300  1.0960
26820SOL     OW85270   5.771   1.522   3.533 -0.0734  0.5903  0.2513
26820SOL    HW185271   5.825   1.595   3.502 -0.2016 -0.3757 -2.5928
26820SOL    HW285272   5.682   1.545   3.507 -0.1891 -0.3209 -0.1978
26821SOL     OW85273  12.322   7.576   8.569  0.2842  0.0697  0.0381
26821SOL    HW185274  12.382   7.588   8.495  2.2712 -4.0569  0.7146
26821SOL    HW285275  12.250   7.523   8.533  0.2842 -0.3299  0.6244
26822SOL     OW85276   7.972  11.851  11.883 -0.4723 -0.1087 -0.3730
26822SOL    HW185277   7.995  11.922  11.942 -0.5238  0.5169 -1.0873
26822SOL    HW285278   7.972  11.772  11.938 -1.9333  0.6379  0.7677
26823SOL     OW85279   1.213   2.080   1.141  0.2556  0.0753  0.0201
26823SOL    HW185280   1.235   2.126   1.221  0.7228 -0.5475  0.2592
26823SOL    HW285281   1.120   2.097   1.128 -0.4117 -1.7066  1.9741
26824SOL     OW85282  10.320   5.349   1.780  0.6172 -0.4372  0.1597
26824SOL    HW185283  10.342   5.330   1.871  1.0641 -3.4366 -0.4994
26824SOL    HW285284  10.382   5.417   1.754  1.4036 -0.5411  1.6708
26825SOL     OW85285   9.360   4.043  11.569 -0.8317  0.1984 -0.1364
26825SOL    HW185286   9.281   3.996  11.593 -0.2229 -0.6346  0.2926
26825SOL    HW285287   9.357   4.050  11.474 -1.0097 -0.5834 -0.1925
26826SOL     OW85288   7.554   8.568   6.784 -0.0649 -0.5250 -0.2995
26826SOL    HW185289   7.564   8.662   6.769 -1.1957 -0.3833 -0.2589
26826SOL    HW285290   7.463   8.557   6.811  0.4381 -1.4568  1.1911
26827SOL     OW85291   9.900   1.383   6.091  0.3356  0.4815 -0.3610
26827SOL    HW185292   9.960   1.424   6.153 -0.2003  1.0335 -0.1915
26827SOL    HW285293   9.860   1.311   6.141 -1.5732  2.1281  0.6467
26828SOL     OW85294  10.303   6.008   5.970  0.0296 -0.5076 -0.3264
26828SOL    HW185295  10.339   5.946   6.034 -0.4905 -0.3252  0.1482
26828SOL    HW285296  10.210   6.013   5.991 -0.0981 -0.2572 -0.9457
26829SOL     OW85297   1.194   1.490   1.785 -0.1729  0.5351  0.6483
26829SOL    HW185298   1.283   1.461   1.805  0.7290  2.2361 -0.6761
26829SOL    HW285299   1.162   1.425   1.722 -0.3537 -0.7550  2.0210
26830SOL     OW85300  12.620   0.344   0.315  0.1805 -0.4676 -0.5210
26830SOL    HW185301  12.570   0.263   0.303 -0.8922  0.0701  0.1444
26830SOL    HW285302  12.553   0.413   0.315  0.9850  0.3276 -0.0995
26831SOL     OW85303  10.212   0.749   3.186 -0.0021 -0.0091  0.1758
26831SOL    HW185304  10.209   0.780   3.276  0.5299 -0.2177  0.2683
26831SOL    HW285305  10.122   0.761   3.153 -0.4343 -0.8246  1.0297
26832SOL     OW85306   7.745   6.078   9.539  0.3464  0.1002 -0.7077
26832SOL    HW185307   7.692   6.035   9.472  1.3211 -0.0179 -1.4190
26832SOL    HW285308   7.694   6.155   9.564 -0.4970 -0.3993 -0.8397
26833SOL     OW85309   5.116   0.180   6.738 -0.1936 -0.3549  0.4205
26833SOL    HW185310   5.152   0.268   6.721 -1.4966  0.2402  0.6491
26833SOL    HW285311   5.034   0.178   6.689 -0.9614 -0.8619  1.6753
26834SOL     OW85312   8.975   0.426   8.141 -0.3241  0.0111 -0.6144
26834SOL    HW185313   9.039   0.388   8.080  0.7988 -1.0516  1.1646
26834SOL    HW285314   8.899   0.369   8.135  0.2240 -0.7824 -0.1826
26835SOL     OW85315   4.144   4.871  11.030  0.2338 -0.1094  0.1107
26835SOL    HW185316   4.132   4.966  11.033 -0.0888 -0.1243 -0.5865
26835SOL    HW285317   4.056   4.836  11.015  0.8179 -0.2521 -4.7198
26836SOL     OW85318   5.758   1.346   3.759  0.4406  0.2435 -0.0746
26836SOL    HW185319   5.780   1.407   3.688  2.1402 -1.7442 -1.4035
26836SOL    HW285320   5.738   1.264   3.713 -1.7662 -0.2408  1.6343
26837SOL     OW85321  11.747  10.716   6.629  0.0210  0.1920 -0.1205
26837SOL    HW185322  11.664  10.688   6.668 -0.4710  2.1748  0.3971
26837SOL    HW285323  11.722  10.771   6.555  0.9221 -0.5761 -1.0280
26838SOL     OW85324   2.074   9.516   1.669 -0.6324  0.4478 -0.0505
26838SOL    HW185325   2.051   9.425   1.649  1.1629  0.0865 -0.7212
26838SOL    HW285326   2.016   9.568   1.613 -0.7208 -0.3414 -0.7255
26839SOL     OW85327   5.222   7.411   6.745 -0.2045 -0.7572  0.0166
26839SOL    HW185328   5.254   7.322   6.755  4.1000  0.5079 -0.5656
26839SOL    HW285329   5.251   7.456   6.825  1.7241  1.0118 -1.5475
26840SOL     OW85330   5.820   6.000  11.526 -0.0900  0.5135  0.2220
26840SOL    HW185331   5.784   6.086  11.505 -0.1330  0.1403 -1.3713
26840SOL    HW285332   5.778   5.941  11.463  1.7036 -0.2852 -0.2808
26841SOL     OW85333   4.696   4.408   2.518  0.3277 -0.3889 -0.2182
26841SOL    HW185334   4.615   4.459   2.523 -0.2144 -1.1055 -1.2239
26841SOL    HW285335   4.684   4.337   2.581  0.2466 -0.3844 -0.2281
26842SOL     OW85336   9.601   8.495   5.138 -0.4633  0.1867  0.0361
26842SOL    HW185337   9.555   8.437   5.198  0.1631  0.6836  1.0301
26842SOL    HW285338   9.651   8.437   5.081 -1.1892 -0.2970 -0.1147
26843SOL     OW85339   4.484   3.302   0.806  0.2493  0.0658 -0.2908
26843SOL    HW185340   4.548   3.252   0.756 -0.6984 -0.5614 -0.9048
26843SOL    HW285341   4.491   3.391   0.773 -1.2073 -0.5641 -2.4554
26844SOL     OW85342   0.497   1.198   0.042 -0.0416  0.0659  0.1373
26844SOL    HW185343   0.421   1.149   0.073 -0.6302  0.0455 -1.2601
26844SOL    HW285344   0.473   1.290   0.055  0.6324  0.0621  1.7581
26845SOL     OW85345   2.830   8.091   3.769 -0.3665  0.5816  0.3062
26845SOL    HW185346   2.889   8.156   3.732 -0.0492  0.3457  0.3956
26845SOL    HW285347   2.800   8.040   3.693  2.3926 -1.6775  0.5501
26846SOL     OW85348   9.198   1.164   0.076 -0.8624  0.0870 -0.3502
26846SOL    HW185349   9.129   1.164   0.010 -1.9181  0.3786  0.7233
26846SOL    HW285350   9.235   1.252   0.072 -0.6919  0.0013 -0.7650
26847SOL     OW85351  10.843   5.251   5.008 -0.1326 -0.0741  0.1855
26847SOL    HW185352  10.749   5.234   5.016 -0.1741 -0.2649 -0.6660
26847SOL    HW285353  10.850   5.312   4.935  0.6191 -2.3726 -1.7765
26848SOL     OW85354   6.791   2.125   8.878  1.1281  0.5981  0.3370
26848SOL    HW185355   6.883   2.133   8.903  1.4931 -0.7973 -0.4843
26848SOL    HW285356   6.784   2.038   8.839 -0.4951  0.7778  0.1703
26849SOL     OW85357   9.085   3.552   1.346 -0.4171 -0.1792 -0.2940
26849SOL    HW185358   9.035   3.552   1.265  0.5785  1.1247 -0.9400
26849SOL    HW285359   9.176   3.539   1.319 -0.2760 -1.9039  0.8042
26850SOL     OW85360   2.628  10.286   7.980  0.5016  0.3433  0.2051
26850SOL    HW185361   2.639  10.306   7.887  1.9739 -0.8790  0.0842
26850SOL    HW285362   2.716  10.267   8.012 -0.1925 -1.1931  1.3748
26851SOL     OW85363   1.210   6.567   0.476  0.0699 -0.2996 -0.5344
26851SOL    HW185364   1.159   6.564   0.395  0.9378  1.3563 -1.1666
26851SOL    HW285365   1.161   6.625   0.533  0.3459 -0.1016 -0.4989
26852SOL     OW85366   7.846   2.283   5.202  0.0392  0.0468 -0.4486
26852SOL    HW185367   7.871   2.374   5.220  3.0559 -0.2427 -2.4372
26852SOL    HW285368   7.817   2.284   5.111 -0.3963 -0.9332 -0.3347
26853SOL     OW85369   0.043   6.490   2.010 -0.1941  0.0737 -0.0956
26853SOL    HW185370   0.035   6.485   1.915  0.9860  0.2053 -0.2195
26853SOL    HW285371   0.027   6.401   2.040 -0.4458  0.0049 -0.4285
26854SOL     OW85372   0.932   1.664  10.376 -0.3923  0.0829  0.5006
26854SOL    HW185373   0.850   1.653  10.425 -0.4588  0.3772  0.4580
26854SOL    HW285374   0.957   1.755  10.391  0.6413 -0.3630  1.6122
26855SOL     OW85375   6.348   9.278   3.995 -0.2546  0.0793 -0.2571
26855SOL    HW185376   6.308   9.365   3.990 -1.8316 -0.5701  0.4026
26855SOL    HW285377   6.442   9.295   4.000 -0.4814  1.7099 -0.9160
26856SOL     OW85378   2.973  11.156   0.669  0.5700 -0.2682 -0.1498
26856SOL    HW185379   2.935  11.140   0.755  0.9628 -0.6590 -0.0405
26856SOL    HW285380   3.060  11.191   0.688  0.8687 -0.8742 -0.3821
26857SOL     OW85381  11.958   9.627  12.400  0.3443  0.1331 -0.3228
26857SOL    HW185382  11.906   9.675  12.464 -1.5946 -3.4287  1.0418
26857SOL    HW285383  12.045   9.621  12.439  0.8068  2.6868 -0.7482
26858SOL     OW85384   8.744   2.030  11.213  0.3677 -0.6793 -0.1904
26858SOL    HW185385   8.664   2.044  11.263  0.6203  0.1958 -0.0081
26858SOL    HW285386   8.716   2.030  11.122  0.0885 -0.9605 -0.1078
26859SOL     OW85387   8.464   0.531   8.216 -0.3827 -0.3273  0.1026
26859SOL    HW185388   8.442   0.439   8.209 -2.1412  0.0623  0.1432
26859SOL    HW285389   8.440   0.555   8.305  1.2132 -0.0961  0.4974
26860SOL     OW85390   8.575   7.900  10.942  0.1769 -0.3425 -0.1749
26860SOL    HW185391   8.645   7.901  10.878 -0.6059  0.3210 -1.0379
26860SOL    HW285392   8.496   7.923  10.893 -0.8432 -2.0786  0.5453
26861SOL     OW85393  10.057   5.199   1.806  0.4886 -0.2302  0.2230
26861SOL    HW185394   9.997   5.178   1.879  0.2036  0.3580  0.1669
26861SOL    HW285395  10.129   5.247   1.848  0.1596  0.4017  0.0757
26862SOL     OW85396   2.850   3.714   2.724 -0.1681  0.2028  0.6091
26862SOL    HW185397   2.928   3.768   2.722 -0.5947  0.7933 -0.7266
26862SOL    HW285398   2.859   3.654   2.650 -1.6612  1.2811 -0.4835
26863SOL     OW85399   3.795  11.258   2.251 -0.1452 -0.6129 -0.3551
26863SOL    HW185400   3.745  11.245   2.332  0.1160 -0.4173 -0.1621
26863SOL    HW285401   3.869  11.197   2.259 -0.1593 -0.6462 -0.4796
26864SOL     OW85402   7.711   5.624   0.077  0.3599  0.0172  0.2237
26864SOL    HW185403   7.670   5.631   0.163  1.5406  0.3262  0.7779
26864SOL    HW285404   7.730   5.530   0.067 -2.5042 -0.5296 -1.0432
26865SOL     OW85405   9.025  12.247   2.181  0.0174 -0.3430 -0.0035
26865SOL    HW185406   9.061  12.307   2.247  1.3077 -0.0622 -0.9236
26865SOL    HW285407   9.026  12.298   2.100  0.4062 -1.3596 -0.6473
26866SOL     OW85408  11.554   6.880   1.861 -0.0169  0.2461 -0.1262
26866SOL    HW185409  11.561   6.823   1.938  2.1453  0.2869 -0.2401
26866SOL    HW285410  11.561   6.968   1.897 -0.5130  0.3304 -0.2325
26867SOL     OW85411   6.710   9.488   2.308 -0.1683 -0.1654 -0.3211
26867SOL    HW185412   6.803   9.483   2.332 -0.4761  0.6118  1.1404
26867SOL    HW285413   6.689   9.401   2.274  0.4719 -1.1957  1.7506
26868SOL     OW85414   0.143   6.880  10.360 -0.5201  0.4973  0.5987
26868SOL    HW185415   0.129   6.798  10.313  3.1512 -0.6577  1.2965
26868SOL    HW285416   0.070   6.936  10.331 -0.0737 -1.0261 -4.3632
26869SOL     OW85417  11.611   2.230  12.645 -0.1452 -0.3191  0.2903
26869SOL    HW185418  11.587   2.287  12.718 -2.0044  1.2031 -1.3698
26869SOL    HW285419  11.540   2.242  12.581 -0.4394 -4.2317 -0.3719
26870SOL     OW85420  10.896   4.368   7.630 -0.0389 -0.4467  0.1458
26870SOL    HW185421  10.882   4.275   7.648 -1.5613 -0.2848 -0.0855
26870SOL    HW285422  10.808   4.404   7.619  0.5467  0.9324 -0.2479
26871SOL     OW85423   7.365   3.781   7.839  0.3398  0.2449  0.2273
26871SOL    HW185424   7.327   3.865   7.816  0.6655  0.7160  1.3747
26871SOL    HW285425   7.450   3.781   7.794 -0.1891 -0.0195 -0.7995
26872SOL     OW85426   0.406   5.316   1.983  0.2697  0.1132 -0.2956
26872SOL    HW185427   0.321   5.273   1.979 -0.6841  1.7820  1.2209
26872SOL    HW285428   0.463   5.260   1.928 -1.2483 -2.1880  0.3281
26873SOL     OW85429   4.795  11.247   0.157  0.3873  0.2994  0.0707
26873SOL    HW185430   4.826  11.175   0.103 -1.6124 -1.3694  0.9931
26873SOL    HW285431   4.720  11.282   0.110  0.6714  1.0674  0.1714
26874SOL     OW85432  10.109   3.412   4.263 -0.4192  0.6551  0.4545
26874SOL    HW185433  10.068   3.498   4.259  0.1194  1.0322  2.1380
26874SOL    HW285434  10.084   3.378   4.349  1.9905  0.5117  1.1757
26875SOL     OW85435  12.195   3.166   8.356 -0.1681 -0.0670  0.5216
26875SOL    HW185436  12.228   3.170   8.445 -1.3856  0.4588  0.9623
26875SOL    HW285437  12.271   3.140   8.304  0.7581  0.4065  1.5942
26876SOL     OW85438   6.699   7.906   2.902 -0.0457 -0.1795  0.1106
26876SOL    HW185439   6.758   7.854   2.957  0.4272  0.7900  0.5662
26876SOL    HW285440   6.749   7.922   2.822 -0.4236 -0.9125 -0.2825
26877SOL     OW85441   8.557  12.623   6.351  0.2051  0.1835 -0.1251
26877SOL    HW185442   8.554  12.536   6.390 -1.4688  0.7446  1.0837
26877SOL    HW285443   8.466  12.643   6.329  0.5534  1.6395 -0.3649
26878SOL     OW85444   0.478   8.126   3.067  0.2817 -0.1383 -0.4950
26878SOL    HW185445   0.539   8.175   3.122  0.7635 -1.6449  0.3824
26878SOL    HW285446   0.465   8.043   3.114 -1.6859 -0.2527 -1.1520
26879SOL     OW85447   4.037   2.041   6.512 -0.4104 -0.3160  0.2729
26879SOL    HW185448   4.071   1.951   6.513  1.9335  0.4880 -0.7527
26879SOL    HW285449   4.002   2.054   6.600  1.1533 -1.5447  1.1233
26880SOL     OW85450   0.558   1.253   3.067 -0.0810 -0.1391  0.1374
26880SOL    HW185451   0.577   1.160   3.057 -0.8707 -0.2617 -0.3154
26880SOL    HW285452   0.522   1.279   2.982  0.0897  0.5682  0.2772
26881SOL     OW85453  11.626   4.518  10.052 -0.0703 -0.6155  0.0286
26881SOL    HW185454  11.646   4.425  10.039  1.2408 -0.3750  0.1791
26881SOL    HW285455  11.709   4.556  10.081 -0.6969  0.5324  0.3613
26882SOL     OW85456   1.956   2.582  12.004 -0.2341 -0.4716 -0.4763
26882SOL    HW185457   2.013   2.507  11.987 -1.1205 -1.3304  0.2311
26882SOL    HW285458   1.942   2.580  12.099 -2.5654 -1.1296 -0.7762
26883SOL     OW85459   9.435   2.054   4.578 -0.1520 -0.3081  0.0779
26883SOL    HW185460   9.439   2.025   4.487 -1.9256  3.0010 -1.2446
26883SOL    HW285461   9.526   2.077   4.600  0.1925 -0.5185 -1.0613
26884SOL     OW85462   1.726  11.399   7.831  0.5654 -0.1253  0.3853
26884SOL    HW185463   1.702  11.451   7.755  0.5665 -0.4358  0.1686
26884SOL    HW285464   1.815  11.428   7.852  0.9503 -0.7255 -0.3425
26885SOL     OW85465   1.649   0.733  10.743 -0.5161  0.3620 -0.3957
26885SOL    HW185466   1.706   0.657  10.759 -0.5525  0.3585 -0.2833
26885SOL    HW285467   1.579   0.724  10.807 -0.9627  0.0488 -0.9201
26886SOL     OW85468   0.757  10.371   1.242 -0.0594  0.4218 -0.2770
26886SOL    HW185469   0.756  10.332   1.154 -1.7183 -0.0683 -0.0639
26886SOL    HW285470   0.848  10.363   1.270  0.1172 -1.1840 -1.1817
26887SOL     OW85471   6.313   0.340   3.044 -0.0112 -0.1454  0.2889
26887SOL    HW185472   6.303   0.432   3.068  2.6833 -0.1599  1.7550
26887SOL    HW285473   6.223   0.307   3.041 -0.9642  2.0823  1.5697
26888SOL     OW85474   5.032   2.815  11.171 -0.0972 -0.1429  0.4910
26888SOL    HW185475   5.126   2.810  11.193 -0.4584 -1.3617  1.9445
26888SOL    HW285476   4.988   2.805  11.255 -1.5514 -0.7919 -0.3229
26889SOL     OW85477   9.017   2.497  10.923  0.1052  0.3925 -0.1060
26889SOL    HW185478   9.010   2.550  11.002 -1.5638 -0.7732  0.5869
26889SOL    HW285479   8.944   2.527  10.868 -0.0635 -0.2827 -0.2555
26890SOL     OW85480   8.699   1.510   4.553 -0.1952 -0.4605  0.0836
26890SOL    HW185481   8.715   1.527   4.646 -0.4263 -1.0287  0.2274
26890SOL    HW285482   8.696   1.598   4.513  1.0255 -0.2435  0.4190
26891SOL     OW85483   4.940   3.351   7.488 -0.0483  0.0939  0.8888
26891SOL    HW185484   4.873   3.414   7.516  1.0181  0.5960  2.4283
26891SOL    HW285485   4.996   3.339   7.565  2.8720  1.3116 -0.8512
26892SOL     OW85486  10.936   2.917   5.042  0.3313  0.1030  0.3308
26892SOL    HW185487  10.942   2.828   5.078 -2.1497  0.2531  1.3278
26892SOL    HW285488  10.904   2.970   5.114  0.1105  1.4585 -0.7292
26893SOL     OW85489   8.013   5.144   5.584  0.7086  0.1161 -0.2688
26893SOL    HW185490   8.064   5.135   5.665  0.7953  1.4619 -0.1521
26893SOL    HW285491   8.078   5.164   5.517  0.4301  1.0763 -0.2655
26894SOL     OW85492  11.965   5.501   7.451 -0.3905 -0.1480  0.0735
26894SOL    HW185493  12.043   5.547   7.483 -0.6299  0.2832  0.0434
26894SOL    HW285494  11.972   5.413   7.488  0.0990 -0.1019  0.0912
26895SOL     OW85495   2.373   2.554   2.423  0.1519  0.5268  0.4149
26895SOL    HW185496   2.394   2.552   2.330 -1.2881 -1.6709  0.0703
26895SOL    HW285497   2.315   2.629   2.433  0.8207  1.1635 -0.3000
26896SOL     OW85498   1.758   3.051   5.437 -0.5534 -0.1050 -0.3713
26896SOL    HW185499   1.729   3.086   5.521  0.4161  1.3480 -0.5909
26896SOL    HW285500   1.811   3.122   5.399  1.0477 -1.6223 -1.1209
26897SOL     OW85501  12.406   2.470  11.814 -0.0097 -0.0452 -0.2319
26897SOL    HW185502  12.491   2.476  11.769 -0.9885  0.7481 -2.1141
26897SOL    HW285503  12.374   2.560  11.815 -0.5334 -0.2363  1.0918
26898SOL     OW85504   7.832   1.062   7.918  0.1892 -0.1846  0.1660
26898SOL    HW185505   7.906   1.114   7.888 -0.2470 -0.5175 -1.6024
26898SOL    HW285506   7.831   0.986   7.860  0.4670 -1.9420  2.3006
26899SOL     OW85507   8.548   6.213   8.065  0.6819  0.0496 -0.1058
26899SOL    HW185508   8.480   6.152   8.095  0.1042 -0.3321 -2.0553
26899SOL    HW285509   8.624   6.158   8.049  1.3719  0.4187  1.6604
26900SOL     OW85510   2.840   9.664   8.228  0.3653  0.0374  0.3600
26900SOL    HW185511   2.771   9.697   8.170  0.0710 -0.6077  0.3284
26900SOL    HW285512   2.916   9.718   8.209  0.1233  0.1650 -0.2640
26901SOL     OW85513   5.194   9.468   5.545  0.1175  0.5742  0.2336
26901SOL    HW185514   5.230   9.382   5.566  0.2298  0.7175  0.6371
26901SOL    HW285515   5.264   9.530   5.566 -0.5671  0.9045  1.6206
26902SOL     OW85516  12.104  10.678   6.983  0.2533  0.1827 -0.3419
26902SOL    HW185517  12.066  10.700   6.898  0.4619 -0.4190 -0.5941
26902SOL    HW285518  12.029  10.651   7.036  0.1955 -0.0260 -0.5265
26903SOL     OW85519   4.517   6.360   8.977  0.2155  0.1497 -0.4769
26903SOL    HW185520   4.561   6.354   8.892  2.6595 -2.2373  0.7950
26903SOL    HW285521   4.573   6.418   9.029 -0.1030 -0.0716  0.1229
26904SOL     OW85522   5.169   6.853   9.479  0.3719  0.9033 -0.2367
26904SOL    HW185523   5.186   6.807   9.396  2.7456  0.1622  0.5823
26904SOL    HW285524   5.178   6.785   9.546  0.1718  1.8248  0.7439
26905SOL     OW85525   3.532   4.808   9.258  0.0695 -0.2048 -0.1470
26905SOL    HW185526   3.483   4.783   9.337  0.6544 -2.5808 -0.4500
26905SOL    HW285527   3.468   4.853   9.203 -0.3825  1.3968  1.5824
26906SOL     OW85528   3.888   1.334   9.648  0.0539  0.7165 -0.2282
26906SOL    HW185529   3.911   1.281   9.572  0.7127 -0.9194  1.0603
26906SOL    HW285530   3.796   1.313   9.665  0.3726 -0.1966  0.4050
26907SOL     OW85531   7.101  12.379   4.112  0.1727 -0.0130  0.5090
26907SOL    HW185532   7.086  12.318   4.040 -0.4497 -0.1770  0.7697
26907SOL    HW285533   7.014  12.408   4.138  0.5179  1.8904 -0.3464
26908SOL     OW85534   9.450   5.600  10.003  0.1054  0.2923 -0.2247
26908SOL    HW185535   9.445   5.673   9.941 -0.8342  0.7272  0.3369
26908SOL    HW285536   9.458   5.642  10.088  1.1173 -0.2987 -0.0142
26909SOL     OW85537   5.753   7.238   0.151  0.1719  0.0732 -0.7209
26909SOL    HW185538   5.725   7.149   0.129  0.8701 -0.3685  0.1198
26909SOL    HW285539   5.676   7.279   0.191 -0.4976  0.2337 -2.0991
26910SOL     OW85540   1.577   8.869   3.603  0.2170  0.4168 -0.4663
26910SOL    HW185541   1.592   8.917   3.684  0.2560 -0.5992  0.1456
26910SOL    HW285542   1.626   8.918   3.537  0.6513  0.9427  0.2313
26911SOL     OW85543   8.647  10.152   4.794 -0.1117 -0.2189 -0.4991
26911SOL    HW185544   8.587  10.216   4.755  0.3743  0.7729  0.3325
26911SOL    HW285545   8.634  10.161   4.888 -0.1323 -1.4593 -0.3680
26912SOL     OW85546  10.264   4.752  12.490  0.7879  0.0870 -0.1917
26912SOL    HW185547  10.310   4.836  12.484 -0.2744  0.7341  0.4534
26912SOL    HW285548  10.212   4.748  12.410  0.1158  0.4972  0.2158
26913SOL     OW85549   5.221   4.860   9.499 -0.1850  0.4534  0.0557
26913SOL    HW185550   5.164   4.895   9.431  1.4952 -1.0441 -2.2927
26913SOL    HW285551   5.277   4.934   9.523 -1.1301  1.1340  0.2131
26914SOL     OW85552   9.586   9.771   5.746  0.1159  0.5012 -0.0102
26914SOL    HW185553   9.624   9.683   5.754  0.6574  0.7277 -0.0619
26914SOL    HW285554   9.530   9.780   5.823 -0.3427 -0.0770 -0.2610
26915SOL     OW85555   6.030   5.381   0.009  0.3263  0.4786  0.0662
26915SOL    HW185556   5.969   5.307   0.017  2.7250 -1.4705  2.1945
26915SOL    HW285557   5.975   5.458   0.021 -2.0001 -1.0257 -0.1336
26916SOL     OW85558   3.298   8.013  10.497  0.2554  0.6581 -0.3974
26916SOL    HW185559   3.334   7.924  10.501  1.3834  0.9663 -2.4200
26916SOL    HW285560   3.203   8.001  10.502  0.4323 -0.5096  0.8140
26917SOL     OW85561   8.007   6.056   3.508 -0.2215 -0.4461 -0.7419
26917SOL    HW185562   7.972   5.975   3.469  0.8053  0.0048 -2.7355
26917SOL    HW285563   7.946   6.124   3.480 -0.0841 -0.2635 -0.5933
26918SOL     OW85564   0.424   8.427   6.931  0.7063 -0.6174  0.0739
26918SOL    HW185565   0.358   8.487   6.898  0.2069 -0.6115  1.0567
26918SOL    HW285566   0.399   8.342   6.895 -0.2173 -0.7318  0.9414
26919SOL     OW85567   8.597   7.699   3.732 -0.3963 -0.0282  0.1313
26919SOL    HW185568   8.577   7.634   3.665  0.4354 -1.0021  0.7879
26919SOL    HW285569   8.551   7.669   3.810 -0.6739  0.6293  0.2268
26920SOL     OW85570   2.837   6.607  12.635 -0.0374 -0.0983 -0.8341
26920SOL    HW185571   2.823   6.701  12.635  0.8164  0.0383  0.4176
26920SOL    HW285572   2.928   6.596  12.608 -0.1181 -0.5636 -0.9296
26921SOL     OW85573   6.655   9.840   6.214 -0.3262  0.0193 -0.1799
26921SOL    HW185574   6.731   9.804   6.261  1.2045  0.7834 -1.9388
26921SOL    HW285575   6.603   9.882   6.283  0.4735 -1.1151  1.1838
26922SOL     OW85576   8.239   0.757   6.622 -0.2847  0.0467 -0.2170
26922SOL    HW185577   8.325   0.782   6.587 -0.1927  1.7993  1.1446
26922SOL    HW285578   8.186   0.741   6.545  1.2444 -1.1151 -1.0980
26923SOL     OW85579   8.248   1.540   4.543  0.3116 -0.1630  0.1322
26923SOL    HW185580   8.186   1.539   4.616  1.0940  0.1481  0.8139
26923SOL    HW285581   8.261   1.633   4.524 -0.4081 -0.2522 -0.8669
26924SOL     OW85582  10.540   9.708  12.027  0.1624  0.3818  0.0509
26924SOL    HW185583  10.519   9.801  12.024 -1.3005  0.1113  0.7726
26924SOL    HW285584  10.466   9.665  11.983 -0.4157 -0.5723  1.8265
26925SOL     OW85585   0.863   8.983   4.260  0.2774  0.2009 -0.0658
26925SOL    HW185586   0.892   9.003   4.349 -0.6713 -1.6460  0.7262
26925SOL    HW285587   0.928   8.922   4.226 -1.0562 -1.7092  0.6555
26926SOL     OW85588   0.971   0.057  12.350  0.3591 -0.3736  0.1066
26926SOL    HW185589   0.890   0.079  12.396  0.1189 -0.1798 -0.3962
26926SOL    HW285590   0.970   0.113  12.272  1.3477  0.1825  0.4719
26927SOL     OW85591   4.760   2.850   9.035  0.4514 -0.6352 -0.2523
26927SOL    HW185592   4.703   2.894   9.098 -0.9984 -1.7105 -0.7463
26927SOL    HW285593   4.725   2.874   8.949  1.1703 -0.7710 -0.5940
26928SOL     OW85594   1.053  12.159   8.516 -0.5065  0.2974  0.3742
26928SOL    HW185595   0.986  12.220   8.546  1.8990  1.9188  2.8443
26928SOL    HW285596   1.058  12.092   8.585  1.8060  1.4045  1.3840
26929SOL     OW85597   6.663   8.444  10.614  0.1903 -0.3414  0.6623
26929SOL    HW185598   6.665   8.415  10.705  1.1319 -0.3223  0.6597
26929SOL    HW285599   6.674   8.539  10.619 -0.5513 -0.2390  0.5545
26930SOL     OW85600   3.488   5.922   7.818 -0.4920 -0.1854  0.1402
26930SOL    HW185601   3.432   5.999   7.825  1.1789  1.2184 -0.9856
26930SOL    HW285602   3.544   5.927   7.895  1.0286  1.0018 -0.9684
26931SOL     OW85603   4.046   8.743   6.045 -0.5258 -0.3137  0.1561
26931SOL    HW185604   4.108   8.815   6.052  0.3687 -0.9534 -0.8330
26931SOL    HW285605   3.988   8.753   6.120 -1.8237  2.7380 -1.1071
26932SOL     OW85606   8.632  12.455   3.266  0.0104  0.5861  0.0339
26932SOL    HW185607   8.656  12.516   3.196  0.3132  0.0719 -0.3166
26932SOL    HW285608   8.678  12.374   3.244 -1.7442 -0.3354 -0.4799
26933SOL     OW85609   8.134   2.213   4.644 -0.5599  0.0690 -0.3600
26933SOL    HW185610   8.203   2.193   4.708 -2.6038 -1.2698  1.5973
26933SOL    HW285611   8.178   2.208   4.559  2.1571  1.2943  0.8450
26934SOL     OW85612   5.960  10.034   2.986 -0.1772 -0.0486 -0.6647
26934SOL    HW185613   5.884  10.084   2.958 -0.1874  0.4241  0.1851
26934SOL    HW285614   5.958   9.955   2.932 -1.1399  0.0653 -0.8058
26935SOL     OW85615   0.250   3.637   7.357  0.3337  0.2662 -0.1440
26935SOL    HW185616   0.314   3.610   7.291  0.8839 -0.3030  0.5994
26935SOL    HW285617   0.216   3.720   7.325  0.1438 -0.2839 -1.4486
26936SOL     OW85618  11.597  11.992  11.138 -0.0909 -0.2256 -0.2622
26936SOL    HW185619  11.514  11.958  11.105  0.3981 -1.1101 -0.6140
26936SOL    HW285620  11.597  12.084  11.111 -0.2334 -0.6226 -1.7380
26937SOL     OW85621   6.686   0.953   8.786 -0.4744 -0.8956  0.4855
26937SOL    HW185622   6.771   0.914   8.808 -0.7275 -0.7830  1.7281
26937SOL    HW285623   6.651   0.983   8.870 -0.6458  1.2987 -0.2888
26938SOL     OW85624   1.741   6.891   3.598 -0.1958 -0.3443  0.4623
26938SOL    HW185625   1.654   6.856   3.617  0.1922  0.1274  3.6415
26938SOL    HW285626   1.726   6.983   3.577 -0.6196 -0.7811 -1.2671
26939SOL     OW85627   2.392  12.286  11.131 -0.1894  0.1027 -0.0056
26939SOL    HW185628   2.311  12.260  11.086  1.1763 -1.0809 -1.9630
26939SOL    HW285629   2.395  12.381  11.121 -0.8900  0.0613 -0.7759
26940SOL     OW85630   8.316   8.867   7.450  0.1261 -0.1911 -0.0639
26940SOL    HW185631   8.263   8.833   7.377 -0.6825 -0.3169  0.5643
26940SOL    HW285632   8.251   8.896   7.515  0.8245  0.8793  0.1777
26941SOL     OW85633   7.960   0.816   3.784  0.1227 -0.0600  0.4242
26941SOL    HW185634   7.926   0.819   3.694 -0.0260 -0.8586  0.4411
26941SOL    HW285635   8.040   0.868   3.781  1.1254 -1.5946 -0.6331
26942SOL     OW85636   0.238   3.245   2.885 -0.1522  0.1615  0.1664
26942SOL    HW185637   0.227   3.251   2.980  0.4907  0.7894  0.2069
26942SOL    HW285638   0.291   3.321   2.862  0.7079 -0.6268 -0.5356
26943SOL     OW85639  11.714   9.346   4.506 -0.0636 -0.8948 -0.0610
26943SOL    HW185640  11.750   9.273   4.455  2.8909  0.6623 -0.3845
26943SOL    HW285641  11.721   9.317   4.597 -0.0371 -1.4739 -0.2403
26944SOL     OW85642   8.407   2.770   4.911 -0.0146  0.0608 -0.3446
26944SOL    HW185643   8.363   2.771   4.996  1.1600  1.6465  0.3013
26944SOL    HW285644   8.341   2.738   4.850 -1.6470  1.1459  0.7762
26945SOL     OW85645   8.255   9.418   4.296  0.1994 -0.2474  0.1771
26945SOL    HW185646   8.170   9.430   4.255  0.2079 -3.7400 -1.2515
26945SOL    HW285647   8.315   9.400   4.223  0.9270 -3.3036  1.3586
26946SOL     OW85648   8.720   9.383   5.294  0.6222  0.3392 -0.2486
26946SOL    HW185649   8.779   9.426   5.357  0.7176 -0.8004  0.4580
26946SOL    HW285650   8.642   9.438   5.294  0.1881 -0.1974  1.6866
26947SOL     OW85651  11.624   5.445   8.211 -0.1081 -0.3951  0.0807
26947SOL    HW185652  11.543   5.453   8.262 -0.4260  0.3026 -0.4995
26947SOL    HW285653  11.607   5.497   8.132  0.4271 -1.3261 -0.6610
26948SOL     OW85654   9.122   2.847  10.660  0.0559  0.1811 -0.1891
26948SOL    HW185655   9.148   2.768  10.612 -0.2830 -0.4281  0.6071
26948SOL    HW285656   9.091   2.815  10.745  0.6537  1.2313  0.4541
26949SOL     OW85657   5.536   7.285   9.754 -0.3575 -0.1950  0.6917
26949SOL    HW185658   5.618   7.334   9.759 -0.3178 -0.2987  1.0724
26949SOL    HW285659   5.528   7.260   9.662 -0.2955  0.3886  0.5212
26950SOL     OW85660  11.461   6.726   2.486 -0.4150  0.3146  0.2938
26950SOL    HW185661  11.374   6.745   2.520 -0.9894  1.1620 -1.5213
26950SOL    HW285662  11.453   6.737   2.391  1.6551  0.3625  0.0693
26951SOL     OW85663   2.309   2.850  11.451 -0.0557 -0.4193  0.1342
26951SOL    HW185664   2.257   2.921  11.414  0.1153 -0.4625 -0.1985
26951SOL    HW285665   2.273   2.836  11.538 -2.3374 -2.1880 -1.0098
26952SOL     OW85666   2.318  11.169   4.696 -0.1245  0.0691 -0.3594
26952SOL    HW185667   2.239  11.219   4.679 -1.9257 -2.4023  0.2694
26952SOL    HW285668   2.317  11.153   4.790  0.8263 -0.4873 -0.4309
26953SOL     OW85669   4.949   3.854   6.990 -0.1054 -0.0673 -0.1138
26953SOL    HW185670   5.027   3.798   6.996  0.0519  0.0915 -0.6666
26953SOL    HW285671   4.931   3.860   6.897  0.6552  1.8792 -0.1672
26954SOL     OW85672   7.936   7.554   9.896  0.3837  0.3977 -0.1442
26954SOL    HW185673   7.990   7.618   9.850  0.1345 -0.8966 -2.3946
26954SOL    HW285674   7.930   7.480   9.836 -1.8388 -0.5110  1.0699
26955SOL     OW85675  11.528   3.819   0.441  0.2045  0.0352  0.5685
26955SOL    HW185676  11.581   3.741   0.423 -0.4290 -0.3516  0.3444
26955SOL    HW285677  11.441   3.784   0.460 -0.3522  0.7587 -0.6266
26956SOL     OW85678   5.436   3.642   8.127 -0.8345  0.1525 -0.1467
26956SOL    HW185679   5.494   3.647   8.051 -0.6524  1.1868  0.0502
26956SOL    HW285680   5.357   3.598   8.094 -0.5186  0.0477 -0.7731
26957SOL     OW85681   5.056   1.580   2.000  0.5857 -0.4242  0.1295
26957SOL    HW185682   5.087   1.526   2.073  0.0236  0.7353  1.2678
26957SOL    HW285683   5.093   1.667   2.018 -0.5694  0.1704 -0.2983
26958SOL     OW85684   1.424  10.175   9.364 -0.3770 -0.1788  0.4936
26958SOL    HW185685   1.451  10.087   9.388 -0.9230 -0.8552 -1.2319
26958SOL    HW285686   1.394  10.214   9.446 -2.2089 -2.3753  0.9732
26959SOL     OW85687   0.037   4.008   1.494  0.4779  0.2052 -0.2533
26959SOL    HW185688   0.016   4.052   1.576 -1.0741 -0.7193 -0.1198
26959SOL    HW285689   0.017   3.915   1.510  0.0139  0.0254 -1.7050
26960SOL     OW85690   0.531   5.829   5.669  0.1928 -0.2274 -0.0702
26960SOL    HW185691   0.617   5.788   5.679  0.4684  0.3077 -0.2096
26960SOL    HW285692   0.470   5.755   5.667  0.7921 -0.7302 -1.5317
26961SOL     OW85693   3.255   2.614   9.015  0.7809  0.3339 -0.2942
26961SOL    HW185694   3.310   2.537   8.999  0.2662  0.0299 -0.6469
26961SOL    HW285695   3.309   2.671   9.069  0.9905 -0.4987  0.4092
26962SOL     OW85696  11.363   8.853   3.101  0.2996  0.4601 -0.4721
26962SOL    HW185697  11.283   8.899   3.073 -0.0034 -0.1185 -0.5874
26962SOL    HW285698  11.342   8.822   3.189  0.3838  0.2746 -0.5184
26963SOL     OW85699   3.630   7.719   9.481  0.3677 -0.3644  0.0237
26963SOL    HW185700   3.565   7.787   9.464  1.2165  0.4412 -0.0707
26963SOL    HW285701   3.611   7.651   9.416 -0.8553 -0.4894  0.4965
26964SOL     OW85702   8.235   0.460   6.655 -0.2938  0.5645  0.6612
26964SOL    HW185703   8.139   0.461   6.665 -0.7553 -0.2954 -2.5927
26964SOL    HW285704   8.259   0.553   6.650 -0.7310  0.8345  2.6935
26965SOL     OW85705   2.425   8.639   9.354  0.0793  0.1408  0.1971
26965SOL    HW185706   2.420   8.710   9.291  1.0131  1.4339  1.5184
26965SOL    HW285707   2.518   8.633   9.377 -0.0272 -1.2962  0.3658
26966SOL     OW85708   8.677  11.315  12.219 -0.8611 -0.1774 -0.4170
26966SOL    HW185709   8.764  11.355  12.216 -0.7881 -0.3663 -2.6522
26966SOL    HW285710   8.684  11.240  12.159 -1.9115 -1.6426  1.1887
26967SOL     OW85711   0.740   8.112   6.438  0.4270  0.0522  0.1197
26967SOL    HW185712   0.734   8.094   6.344 -0.3696 -0.5238  0.2736
26967SOL    HW285713   0.823   8.071   6.465  0.8135  0.4906 -0.3820
26968SOL     OW85714   8.740  11.491   0.038  0.3458  0.3014 -0.2890
26968SOL    HW185715   8.794  11.560   0.076 -1.0341  1.0366  0.4006
26968SOL    HW285716   8.700  11.448   0.113  0.9311 -1.0857 -0.7229
26969SOL     OW85717   4.032   4.994   6.326 -0.0150 -0.1408 -0.3697
26969SOL    HW185718   4.120   4.961   6.305  0.2537 -0.2519  0.8769
26969SOL    HW285719   3.974   4.921   6.303  0.3370 -0.5296 -0.0505
26970SOL     OW85720   9.334   6.350   4.147  0.2393  0.6527 -0.0646
26970SOL    HW185721   9.295   6.433   4.173 -1.2742 -0.3526  1.0995
26970SOL    HW285722   9.338   6.299   4.228 -1.0245 -1.2158 -1.0763
26971SOL     OW85723  12.405   6.885   7.405 -0.3705  0.4436 -0.1845
26971SOL    HW185724  12.317   6.903   7.372 -0.2819 -0.7721 -1.1788
26971SOL    HW285725  12.395   6.807   7.459 -0.3115  1.7767  1.8308
26972SOL     OW85726   9.153   6.327   3.429  0.5885  0.6200 -0.4460
26972SOL    HW185727   9.196   6.398   3.382 -0.5074  1.7069  0.1359
26972SOL    HW285728   9.160   6.351   3.521  1.6055 -0.8539 -0.0988
26973SOL     OW85729  11.157   2.964  10.027  0.5028 -0.2948 -0.2550
26973SOL    HW185730  11.124   3.038  10.080 -1.3163 -1.0954 -0.1770
26973SOL    HW285731  11.078   2.929   9.985  1.7354 -0.4978 -2.4897
26974SOL     OW85732   7.283  10.791   1.219 -0.1261 -0.3714  0.0772
26974SOL    HW185733   7.248  10.866   1.172  0.8947 -0.1393 -0.3403
26974SOL    HW285734   7.226  10.718   1.195  0.5318 -0.3301 -1.7784
26975SOL     OW85735   2.647  11.131   6.998  0.1686  0.5089  0.1896
26975SOL    HW185736   2.711  11.077   6.951 -0.4925 -0.5117  0.4344
26975SOL    HW285737   2.604  11.182   6.929  1.2923  1.2843  0.0291
26976SOL     OW85738  12.090  11.636   4.565  0.3220 -0.0090 -0.0143
26976SOL    HW185739  12.081  11.731   4.572  0.7216 -0.0083  0.5487
26976SOL    HW285740  12.000  11.603   4.561  0.1795  0.3704  0.0363
26977SOL     OW85741   1.211  10.027   0.708  0.6419 -0.3058 -0.0888
26977SOL    HW185742   1.125  10.068   0.719  1.0925  0.0127  3.0548
26977SOL    HW285743   1.273  10.090   0.743  1.8836 -1.5705  0.1004
26978SOL     OW85744  10.774   2.568   9.966  0.2477  0.6379 -0.0382
26978SOL    HW185745  10.708   2.507   9.999 -0.7334  1.6784 -0.0217
26978SOL    HW285746  10.794   2.625  10.041  0.4414  0.9382 -0.3133
26979SOL     OW85747   9.562   7.841  12.074 -0.7437 -0.1307 -0.7796
26979SOL    HW185748   9.601   7.843  11.987  1.4729  0.5464  0.1605
26979SOL    HW285749   9.560   7.749  12.097  1.3597 -0.1484 -0.4666
26980SOL     OW85750   1.236   7.254  12.492 -0.6338  0.1088  0.3684
26980SOL    HW185751   1.331   7.242  12.484 -0.6068 -0.5489  1.4501
26980SOL    HW285752   1.199   7.170  12.465 -0.8017 -0.2662  1.7258
26981SOL     OW85753   9.231   5.995   5.767 -0.3717 -1.1056 -0.4877
26981SOL    HW185754   9.194   6.036   5.689  2.1046 -1.2742 -1.8744
26981SOL    HW285755   9.237   5.902   5.744 -1.0897 -1.4338  0.5714
26982SOL     OW85756   8.205  10.084   2.950 -0.5453 -0.3462  0.2480
26982SOL    HW185757   8.262  10.097   2.874 -1.3847 -0.1142 -0.3451
26982SOL    HW285758   8.266  10.075   3.024  0.2306  2.3712  0.0357
26983SOL     OW85759   1.641  11.111  11.263 -0.0402  0.3167  0.6147
26983SOL    HW185760   1.655  11.182  11.326 -0.2195 -0.5411  1.6488
26983SOL    HW285761   1.727  11.070  11.253 -0.1682 -0.0150  0.8748
26984SOL     OW85762  11.175  12.337   5.124 -0.4429 -0.1475 -0.1312
26984SOL    HW185763  11.131  12.268   5.074  0.7664  0.4190 -2.0829
26984SOL    HW285764  11.199  12.403   5.058  0.6416  0.9538  1.3081
26985SOL     OW85765  11.172   1.663   8.546 -0.1675  0.3292  0.0174
26985SOL    HW185766  11.222   1.582   8.542  0.7448  0.8633  0.2035
26985SOL    HW285767  11.230   1.729   8.507 -0.8370  0.9121 -0.0123
26986SOL     OW85768  10.850   9.588   6.969 -0.8332  0.0170  0.2909
26986SOL    HW185769  10.920   9.629   6.918  0.6116 -0.2808  1.9190
26986SOL    HW285770  10.776   9.648   6.963 -0.8001 -0.1112 -2.2570
26987SOL     OW85771   4.547   6.916   1.325 -0.3304 -0.6616 -0.2616
26987SOL    HW185772   4.514   6.843   1.274 -1.0654 -1.8437  1.8038
26987SOL    HW285773   4.482   6.985   1.312 -2.4881 -2.1583  1.8343
26988SOL     OW85774  11.935   8.821   2.980 -0.1753  0.3295 -0.3295
26988SOL    HW185775  11.849   8.859   2.964 -1.3297 -1.9152  0.1940
26988SOL    HW285776  11.976   8.818   2.893 -0.2168  2.1959 -0.4623
26989SOL     OW85777   5.354   1.778   8.814 -0.4282  0.4887 -0.1116
26989SOL    HW185778   5.290   1.755   8.747 -1.7764  2.7079  0.3414
26989SOL    HW285779   5.307   1.772   8.897  0.2788  0.9997  0.3418
26990SOL     OW85780   8.350  10.144   2.288 -0.4677  0.2167 -0.3373
26990SOL    HW185781   8.323  10.222   2.240 -1.0116 -0.0181 -0.4141
26990SOL    HW285782   8.286  10.135   2.358  0.3414  0.5780  0.4680
26991SOL     OW85783   7.830   8.171   3.459 -0.0936  0.3709  0.1455
26991SOL    HW185784   7.904   8.168   3.519 -0.6386  2.3611  0.9875
26991SOL    HW285785   7.856   8.234   3.392 -0.9703  1.0133  0.3925
26992SOL     OW85786  12.061   1.806  10.636 -0.2283  0.1378 -0.1680
26992SOL    HW185787  12.143   1.758  10.627 -0.4904 -0.0918 -1.7133
26992SOL    HW285788  12.036   1.795  10.728  2.4756  1.9368  0.9078
26993SOL     OW85789   8.896   7.880   6.699  0.0453 -0.1031 -0.0235
26993SOL    HW185790   8.889   7.963   6.747 -0.7191 -0.6535  0.8383
26993SOL    HW285791   8.986   7.852   6.715  0.2803  0.5101 -0.2366
26994SOL     OW85792   3.619  10.950   0.744 -0.1361  0.6715  0.4718
26994SOL    HW185793   3.679  10.964   0.671 -1.4422 -1.3237 -1.1285
26994SOL    HW285794   3.587  11.037   0.767  2.0319  1.5825  0.2502
26995SOL     OW85795   9.940   4.291   7.622 -0.6124  0.7322  0.1756
26995SOL    HW185796   9.850   4.263   7.613 -0.7742  0.1382  3.0036
26995SOL    HW285797   9.985   4.252   7.546 -2.1148 -1.6071  0.3917
26996SOL     OW85798   6.536   2.329   7.200 -0.3395 -0.4383  0.2262
26996SOL    HW185799   6.568   2.345   7.289  2.4714  1.3740 -0.9710
26996SOL    HW285800   6.564   2.240   7.180 -0.6929 -0.7338  0.9823
26997SOL     OW85801  10.990   5.512   2.805 -0.5641 -0.1315 -0.1715
26997SOL    HW185802  10.924   5.443   2.812 -0.7395 -0.3113 -2.6791
26997SOL    HW285803  11.068   5.475   2.847 -1.0919 -1.2508 -0.1402
26998SOL     OW85804   2.488  10.863   4.291  0.0141  0.2857 -0.3335
26998SOL    HW185805   2.413  10.921   4.306  0.0080  0.0838  0.4962
26998SOL    HW285806   2.510  10.874   4.199 -1.0312  0.3605 -0.5838
26999SOL     OW85807   4.402   4.497   1.603  0.2676  0.1357 -0.0351
26999SOL    HW185808   4.492   4.490   1.572  0.1427  1.7549 -0.8714
26999SOL    HW285809   4.368   4.577   1.562 -0.0429  2.2766  3.9228
27000SOL     OW85810   5.448   2.180   8.204  0.4018  0.4042  0.0781
27000SOL    HW185811   5.456   2.273   8.182  0.6257  0.5429  0.7083
27000SOL    HW285812   5.384   2.179   8.276  0.9268  0.1472  0.5466
27001SOL     OW85813   2.860   5.787   7.261  0.6175  0.1928 -0.4993
27001SOL    HW185814   2.870   5.874   7.223  0.9589 -0.1391 -1.1920
27001SOL    HW285815   2.766   5.768   7.252  1.0180 -0.8775 -3.5169
27002SOL     OW85816  11.978   3.549   0.113 -0.1707  0.3897 -0.3610
27002SOL    HW185817  11.917   3.616   0.142  1.5261  1.5182  0.8164
27002SOL    HW285818  12.040   3.595   0.058  1.5323  0.0530  1.1656
27003SOL     OW85819   9.590   1.716   2.235 -0.1208 -0.2987 -0.1115
27003SOL    HW185820   9.495   1.712   2.248 -0.1069  0.7494  0.3821
27003SOL    HW285821   9.603   1.797   2.184  0.5432 -0.2267  0.1718
27004SOL     OW85822   7.232   9.914  10.650 -0.3883 -0.2786 -0.0594
27004SOL    HW185823   7.246   9.956  10.566 -1.1258  1.7528  0.7660
27004SOL    HW285824   7.258   9.823  10.637  0.9993  0.3536 -2.0300
27005SOL     OW85825   2.166   0.108   7.319  1.2396 -0.3952 -0.2392
27005SOL    HW185826   2.100   0.167   7.284  0.4770 -0.4050  1.0880
27005SOL    HW285827   2.250   0.148   7.297  0.7631  0.2362 -0.9219
27006SOL     OW85828  10.864  10.051   4.402  0.4007  0.2540 -1.1009
27006SOL    HW185829  10.949  10.075   4.363  0.9879 -1.8928 -1.2832
27006SOL    HW285830  10.870   9.956   4.415  0.0177  0.6705  3.7800
27007SOL     OW85831   3.866   0.978  12.408 -0.1171 -0.1290  0.0972
27007SOL    HW185832   3.818   0.992  12.326 -2.8789  0.7858  1.7632
27007SOL    HW285833   3.904   0.890  12.398 -1.2406 -0.4709 -1.7323
27008SOL     OW85834   5.396   4.129   1.281  0.5255 -0.1554 -0.2255
27008SOL    HW185835   5.342   4.053   1.300  0.0160  0.4681  0.9581
27008SOL    HW285836   5.473   4.094   1.235 -0.7435 -1.0884 -1.7219
27009SOL     OW85837   2.303   5.090   2.194  0.2731 -0.3163  0.5066
27009SOL    HW185838   2.384   5.137   2.175  0.2905  0.3112  1.9853
27009SOL    HW285839   2.330   5.000   2.210  0.6761 -0.1417  0.8383
27010SOL     OW85840   2.153   2.567   3.853 -0.5162  0.1153  0.2120
27010SOL    HW185841   2.076   2.585   3.799  0.2773 -1.5872 -1.5971
27010SOL    HW285842   2.141   2.477   3.883  0.2731  0.1929  0.7977
27011SOL     OW85843   6.899   5.034  12.447 -0.0435  0.2489  0.5779
27011SOL    HW185844   6.911   5.089  12.525 -1.9513 -0.8913  1.7777
27011SOL    HW285845   6.809   5.053  12.418  0.2936 -0.0998 -0.7538
27012SOL     OW85846   5.064   1.230   2.560 -0.6761  0.6300 -0.4619
27012SOL    HW185847   5.151   1.192   2.557 -0.8836  0.0967  0.0501
27012SOL    HW285848   5.035   1.233   2.468 -1.8329 -3.2463 -0.4122
27013SOL     OW85849  12.052   6.288   6.469  0.0764 -0.4174  0.3164
27013SOL    HW185850  12.111   6.242   6.410  1.0625  0.1209  0.8560
27013SOL    HW285851  12.017   6.220   6.526  1.8589 -0.4905  1.3963
27014SOL     OW85852   9.613   0.677   1.494  0.6829  0.1841  0.2480
27014SOL    HW185853   9.614   0.645   1.585 -0.4593 -2.7864 -0.6509
27014SOL    HW285854   9.521   0.687   1.473  0.9443  1.0341 -0.5437
27015SOL     OW85855   6.499   4.075   5.651 -0.3966 -0.2168 -0.3397
27015SOL    HW185856   6.505   4.142   5.719  1.0782 -1.4074  0.7671
27015SOL    HW285857   6.532   4.118   5.572  3.0404 -0.2965  0.9156
27016SOL     OW85858   6.884   2.171   0.691 -0.1593  0.0255 -0.6237
27016SOL    HW185859   6.904   2.162   0.598 -0.1530  0.2980 -0.6508
27016SOL    HW285860   6.821   2.102   0.709  0.4247 -0.5201 -0.6537
27017SOL     OW85861   9.743  11.946   1.250  0.6962 -0.0876  0.8106
27017SOL    HW185862   9.831  11.967   1.219  0.0211 -0.4541 -1.5498
27017SOL    HW285863   9.694  12.028   1.241  0.0874 -0.5926 -0.7192
27018SOL     OW85864  10.595   5.438   1.114 -0.0851 -0.2252 -0.0457
27018SOL    HW185865  10.675   5.388   1.101 -0.1411 -0.5156  0.7056
27018SOL    HW285866  10.615   5.497   1.187  0.1121  1.1402 -1.1417
27019SOL     OW85867  12.172   8.895   1.973  0.0056 -0.1200 -0.3414
27019SOL    HW185868  12.256   8.887   1.928  0.1970 -2.8049  0.3074
27019SOL    HW285869  12.115   8.834   1.927 -1.6696  1.6477 -0.7596
27020SOL     OW85870   1.418  10.188   3.961  0.1722  0.7236  0.2039
27020SOL    HW185871   1.329  10.223   3.966  0.2169  0.9430 -0.4504
27020SOL    HW285872   1.445  10.178   4.052  0.0343  2.0583  0.4015
27021SOL     OW85873   7.070   0.482   2.136  0.8659 -0.4090  0.1843
27021SOL    HW185874   7.002   0.439   2.188  0.4267  0.0633  0.0027
27021SOL    HW285875   7.150   0.432   2.156  0.3617 -1.3445 -0.0571
27022SOL     OW85876   6.340   1.600   1.667  0.1681  0.1937 -0.0056
27022SOL    HW185877   6.278   1.586   1.596 -1.8781  0.1385  1.6898
27022SOL    HW285878   6.391   1.519   1.670 -0.5069 -0.2702 -0.6625
27023SOL     OW85879   8.761   4.700  11.337  0.7943 -0.1132 -0.6327
27023SOL    HW185880   8.745   4.788  11.301 -0.8111 -0.1882 -0.1944
27023SOL    HW285881   8.851   4.680  11.313  0.7462  1.0884 -1.9603
27024SOL     OW85882  11.922  10.820   7.332  0.4169 -0.3340 -0.4695
27024SOL    HW185883  12.015  10.822   7.354  0.3464 -1.9093  0.0554
27024SOL    HW285884  11.879  10.867   7.404  0.6504 -1.2110  0.2639
27025SOL     OW85885   0.137   4.605   0.009  0.2336  0.2978  0.1799
27025SOL    HW185886   0.139   4.700   0.019 -0.1772  0.3138  0.1541
27025SOL    HW285887   0.228   4.579   0.000  0.6764  0.3647  3.3425
27026SOL     OW85888   7.152   3.520  10.328 -0.4199 -0.0048  0.2457
27026SOL    HW185889   7.190   3.533  10.415 -0.2006 -1.1252  0.3285
27026SOL    HW285890   7.180   3.432  10.302 -0.2309  0.4262 -1.0891
27027SOL     OW85891   1.439   6.322   5.630 -0.4833 -0.4232  0.3241
27027SOL    HW185892   1.364   6.348   5.684  0.3308 -0.3911  1.4756
27027SOL    HW285893   1.496   6.273   5.689  0.9944  0.6023 -0.1884
27028SOL     OW85894   5.793  10.535   2.389  0.1132  0.0932 -0.4848
27028SOL    HW185895   5.863  10.595   2.364 -0.2654  0.0411 -1.7402
27028SOL    HW285896   5.716  10.568   2.342 -0.6401 -0.0148  0.6431
27029SOL     OW85897   6.435   3.624   2.394 -0.0378 -0.2816 -0.3116
27029SOL    HW185898   6.500   3.600   2.328 -0.3920 -0.4915 -0.5902
27029SOL    HW285899   6.404   3.711   2.367  0.2737 -0.0949 -0.0649
27030SOL     OW85900   6.125   6.586   2.711 -0.2125  0.0794  0.6013
27030SOL    HW185901   6.047   6.544   2.675 -0.0504  0.1678  0.1434
27030SOL    HW285902   6.130   6.553   2.801  2.0610 -4.0099 -0.7739
27031SOL     OW85903   4.182  10.271  12.530  0.3046  0.4460  0.0869
27031SOL    HW185904   4.121  10.226  12.471 -1.1112  1.8827  0.3845
27031SOL    HW285905   4.251  10.303  12.472  0.4039 -0.5376 -0.3682
27032SOL     OW85906   1.200   1.805  11.665  0.1079  0.2074 -0.1178
27032SOL    HW185907   1.112   1.770  11.651  0.4047 -0.6384  0.0573
27032SOL    HW285908   1.232   1.826  11.578  0.0122 -0.1804 -0.2459
27033SOL     OW85909   9.185   8.712   9.966 -0.0149 -0.0845 -0.0583
27033SOL    HW185910   9.168   8.687  10.057 -2.2205 -0.0015 -0.3760
27033SOL    HW285911   9.240   8.642   9.931  0.8949 -0.0960  1.3432
27034SOL     OW85912   9.075   6.178  10.501 -0.4474 -0.7577 -1.1846
27034SOL    HW185913   9.036   6.152  10.584 -0.6458 -0.1304 -1.0733
27034SOL    HW285914   9.053   6.108  10.440 -1.0314 -0.8106 -0.9173
27035SOL     OW85915   3.821  11.729   0.570 -0.6125  0.8722  0.1975
27035SOL    HW185916   3.801  11.800   0.510  0.9854  0.8153 -0.4429
27035SOL    HW285917   3.881  11.768   0.635  0.7597  0.0103 -0.5011
27036SOL     OW85918  10.407  10.472  11.455  0.0742 -0.1673  0.3902
27036SOL    HW185919  10.466  10.498  11.384  2.3517 -0.1407  2.1903
27036SOL    HW285920  10.428  10.380  11.471  1.4798  0.4736  2.6599
27037SOL     OW85921   2.047  10.792  10.854 -0.2833  0.3638 -0.3411
27037SOL    HW185922   2.113  10.851  10.890 -0.7045  0.9219 -0.4639
27037SOL    HW285923   2.067  10.707  10.892  0.1679  0.6446  0.0561
27038SOL     OW85924   8.512   3.814   3.110 -0.8133  0.0993  0.1543
27038SOL    HW185925   8.438   3.754   3.102  0.2636 -1.1691 -0.8841
27038SOL    HW285926   8.575   3.768   3.166 -0.0738  0.3362 -0.4556
27039SOL     OW85927   3.878   4.991  10.640  0.5208 -0.3481 -0.6389
27039SOL    HW185928   3.865   5.033  10.555  0.0253  0.9344  0.0557
27039SOL    HW285929   3.938   4.918  10.621  0.7563  0.1677 -2.0113
27040SOL     OW85930  10.410   8.863   1.004 -0.0666  0.2487  0.1085
27040SOL    HW185931  10.401   8.951   1.040  0.0944  0.6703 -0.8310
27040SOL    HW285932  10.328   8.819   1.027  0.4855  0.0948  1.9492
27041SOL     OW85933   9.785   8.729   6.752  0.2965 -0.6207  0.1025
27041SOL    HW185934   9.761   8.749   6.661  0.5956 -0.2691  0.1003
27041SOL    HW285935   9.782   8.633   6.756 -0.1762 -0.6237 -0.1512
27042SOL     OW85936   8.617   3.320  10.323 -0.3248 -0.0516  0.7276
27042SOL    HW185937   8.651   3.381  10.389 -0.5993 -0.2991  1.1087
27042SOL    HW285938   8.523   3.319  10.339 -0.3764 -0.2087  0.4066
27043SOL     OW85939   8.648   2.117  12.508 -0.1044 -0.6865  0.3131
27043SOL    HW185940   8.706   2.108  12.432  0.5675 -3.6144  1.0324
27043SOL    HW285941   8.685   2.190  12.558  1.5022 -0.8973 -0.5040
27044SOL     OW85942   7.131   9.462  12.113 -0.3418  0.3960 -0.5791
27044SOL    HW185943   7.114   9.395  12.047  2.0016 -0.9683  0.0931
27044SOL    HW285944   7.193   9.521  12.071  0.2885  0.1582  0.0025
27045SOL     OW85945   0.775  11.797   7.829 -0.6503 -0.1015  0.2692
27045SOL    HW185946   0.773  11.719   7.773  1.8088 -0.1113  0.0769
27045SOL    HW285947   0.694  11.792   7.880 -1.5086 -1.7071 -1.1460
27046SOL     OW85948  11.050  10.632   6.011 -0.2289 -0.3103  0.5034
27046SOL    HW185949  11.112  10.702   6.032 -0.5521 -0.4466  2.0471
27046SOL    HW285950  11.104  10.558   5.985  0.1327  0.3796 -0.7518
27047SOL     OW85951   3.087   6.792   7.173  0.0385  0.0459  0.1514
27047SOL    HW185952   3.130   6.850   7.110 -1.2841  2.0406  0.9794
27047SOL    HW285953   3.059   6.850   7.244 -0.9934 -1.6865  1.2369
27048SOL     OW85954   8.193   3.420   8.245 -0.0814 -0.3105  0.2736
27048SOL    HW185955   8.138   3.436   8.321  0.4505  0.8516  0.4344
27048SOL    HW285956   8.246   3.499   8.236 -1.5727  0.5256 -2.5283
27049SOL     OW85957  10.185   8.082   7.203  0.0959 -0.3433  0.2669
27049SOL    HW185958  10.140   8.028   7.268  0.2242 -0.2046  0.4718
27049SOL    HW285959  10.278   8.064   7.216  0.0614 -3.0225 -2.1949
27050SOL     OW85960  11.126  11.710   3.680  0.3240 -0.2977 -0.0668
27050SOL    HW185961  11.104  11.681   3.768 -1.6556  1.8855  0.2498
27050SOL    HW285962  11.058  11.673   3.624  0.1257  0.3440 -0.2655
27051SOL     OW85963   3.321  10.401   4.955 -0.1480 -0.1957  0.0653
27051SOL    HW185964   3.393  10.447   4.998 -0.9915  0.3113  0.9894
27051SOL    HW285965   3.330  10.310   4.983  0.1412 -0.1343  0.1694
27052SOL     OW85966   1.100  11.009  11.277 -0.3270 -0.0342 -0.5599
27052SOL    HW185967   1.146  11.091  11.295  0.1021 -0.3547 -0.1381
27052SOL    HW285968   1.008  11.033  11.273 -0.2735  0.3634  0.2894
27053SOL     OW85969  11.316  10.184   2.430  0.0426 -0.6466 -0.2034
27053SOL    HW185970  11.410  10.194   2.445  0.0052  1.2769 -1.0016
27053SOL    HW285971  11.309  10.149   2.341 -0.0078 -0.7337 -0.1657
27054SOL     OW85972   3.053   0.583  11.303  0.3455 -0.6254 -0.3657
27054SOL    HW185973   3.139   0.622  11.287  0.2832  1.5555  3.4157
27054SOL    HW285974   3.069   0.517  11.371 -0.8563 -0.6662 -0.0968
27055SOL     OW85975   2.479  12.410   0.931  0.3350 -0.0616  0.0393
27055SOL    HW185976   2.507  12.334   0.982  0.5579  0.2101  0.3232
27055SOL    HW285977   2.492  12.484   0.990  1.0496  0.3136 -0.5822
27056SOL     OW85978   6.500   4.818   5.896  0.3870 -0.0685  0.6716
27056SOL    HW185979   6.583   4.796   5.938  1.1880  1.0950 -0.2510
27056SOL    HW285980   6.474   4.902   5.936  0.6756  0.5657 -0.4484
27057SOL     OW85981  10.537  12.387   0.759  0.5175 -0.3604 -0.5451
27057SOL    HW185982  10.462  12.436   0.792  0.3093 -0.2918 -1.1098
27057SOL    HW285983  10.507  12.297   0.753  0.2796 -0.2366 -1.3413
27058SOL     OW85984   1.356   2.240   7.643 -0.2679  0.2331 -0.3400
27058SOL    HW185985   1.308   2.203   7.569 -2.4832  0.3141  0.9695
27058SOL    HW285986   1.298   2.309   7.677  0.9929  0.6534  1.0481
27059SOL     OW85987   6.393   8.287  12.000 -0.3640 -0.9348  0.4257
27059SOL    HW185988   6.412   8.208  11.949  0.2041 -0.5444  0.0241
27059SOL    HW285989   6.336   8.339  11.944  0.4184 -0.4165  0.0800
27060SOL     OW85990   7.368   8.023   8.186  0.2037  0.2764 -0.3440
27060SOL    HW185991   7.335   7.946   8.140 -1.7048  1.4609 -1.0801
27060SOL    HW285992   7.423   8.068   8.122  1.0373 -0.2743 -0.0265
27061SOL     OW85993  10.345   4.162   0.826  0.1230 -0.1109 -0.2070
27061SOL    HW185994  10.406   4.225   0.787 -0.3184 -0.7446 -1.9773
27061SOL    HW285995  10.288   4.215   0.881  1.1314  0.7256  0.0675
27062SOL     OW85996   1.878   8.821   2.804 -0.7791 -0.0759  0.2607
27062SOL    HW185997   1.857   8.733   2.773 -1.9376  0.5294 -0.7238
27062SOL    HW285998   1.853   8.821   2.897  1.6846 -1.5511  1.0375
27063SOL     OW85999   6.175   3.555   4.996  0.4700 -0.4588  0.3071
27063SOL    HW186000   6.174   3.527   4.905  1.2913  0.1963  0.0773
27063SOL    HW286001   6.114   3.628   5.000  1.1017  0.0934  0.0681
27064SOL     OW86002  10.195   1.651   8.410 -0.3884 -0.2761 -0.7429
27064SOL    HW186003  10.208   1.669   8.317 -0.2351  0.9552 -0.5016
27064SOL    HW286004  10.110   1.689   8.430  0.5770  1.5374  0.1032
27065SOL     OW86005   2.016   9.268  11.349  0.0865  0.4687  0.0801
27065SOL    HW186006   2.040   9.188  11.396 -0.4012 -1.4815 -2.7783
27065SOL    HW286007   2.072   9.269  11.272 -0.2185  2.7075 -0.1937
27066SOL     OW86008  11.080   7.133  10.191  0.1562 -0.0589  0.0260
27066SOL    HW186009  11.039   7.069  10.249  1.4140 -0.4521  0.5099
27066SOL    HW286010  11.007   7.170  10.141 -0.7298 -1.0338  0.5560
27067SOL     OW86011   8.580  10.785   2.668  0.2555 -0.3710  0.2018
27067SOL    HW186012   8.660  10.793   2.616  1.3371  0.8902  1.9372
27067SOL    HW286013   8.555  10.875   2.688 -1.0841 -0.7845  0.4593
27068SOL     OW86014   0.202  10.979   5.412 -0.1573 -0.0519  0.0294
27068SOL    HW186015   0.271  11.043   5.396 -2.2132  2.4179  0.5746
27068SOL    HW286016   0.136  10.997   5.346 -1.0608 -1.2104  0.5819
27069SOL     OW86017   5.695   7.136  10.122 -0.2521  0.0951  0.5390
27069SOL    HW186018   5.683   7.079  10.198 -0.0101 -0.9852 -0.2088
27069SOL    HW286019   5.727   7.219  10.158  0.6541 -0.6744  1.5465
27070SOL     OW86020   2.618   7.926   0.719 -0.5664  0.1704  0.0184
27070SOL    HW186021   2.616   8.021   0.704  1.1596  0.3190  0.5014
27070SOL    HW286022   2.568   7.889   0.646  3.0255  1.1891 -3.3370
27071SOL     OW86023  12.160   0.802   7.000 -0.2238 -0.0256  0.0404
27071SOL    HW186024  12.168   0.797   6.905 -1.8596  0.1558 -0.1401
27071SOL    HW286025  12.190   0.890   7.023  3.8219 -1.2450  0.2058
27072SOL     OW86026  10.111   4.245   7.409 -0.4968  0.0798 -0.1896
27072SOL    HW186027  10.191   4.280   7.369  0.5389 -0.0779  1.6463
27072SOL    HW286028  10.048   4.241   7.337  1.1009  0.3246 -1.6604
27073SOL     OW86029   7.022   0.571   9.843 -0.1123  0.0353  0.3159
27073SOL    HW186030   6.956   0.586   9.774  0.2782 -1.8008 -0.5218
27073SOL    HW286031   6.995   0.488   9.883  1.6067 -0.7184  0.0040
27074SOL     OW86032   6.525   4.008  12.254 -0.2027 -0.3644 -0.0987
27074SOL    HW186033   6.471   3.943  12.209 -2.9296  2.3186 -1.0402
27074SOL    HW286034   6.494   4.092  12.221  2.8104  1.5074  1.3909
27075SOL     OW86035   5.660   9.463   7.859  0.2474 -0.7257 -0.0814
27075SOL    HW186036   5.742   9.482   7.905 -0.2497  1.9676 -0.1442
27075SOL    HW286037   5.600   9.434   7.927  1.2729 -3.1519 -0.0899
27076SOL     OW86038   6.334   3.013   5.100 -0.3384  0.0913  0.4990
27076SOL    HW186039   6.381   3.072   5.041  0.9158 -2.3388 -1.1427
27076SOL    HW286040   6.258   3.062   5.129  1.3857  3.0056  0.4843
27077SOL     OW86041   4.874   0.940   0.371 -0.6148  0.4730 -0.0498
27077SOL    HW186042   4.867   0.847   0.391  1.2755  0.1991 -0.3998
27077SOL    HW286043   4.804   0.958   0.309 -0.0484 -1.1116 -1.2201
27078SOL     OW86044  10.458   8.529   7.762  0.3444  0.0251 -0.6331
27078SOL    HW186045  10.421   8.464   7.822 -0.6577  0.1005 -1.1311
27078SOL    HW286046  10.442   8.613   7.805 -1.3156  0.1623 -1.4160
27079SOL     OW86047   9.801  12.367   4.556  0.0217 -0.0667  0.3980
27079SOL    HW186048   9.725  12.354   4.613  0.0872 -0.3027  0.4336
27079SOL    HW286049   9.822  12.460   4.565  0.8356 -0.3508  1.7733
27080SOL     OW86050   2.353   0.325  12.403  0.0634  0.0071 -0.1233
27080SOL    HW186051   2.275   0.320  12.347 -0.0652  1.5908 -0.1212
27080SOL    HW286052   2.360   0.237  12.441  0.3087 -1.2153 -2.7791
27081SOL     OW86053   1.031   6.918   6.714 -0.6051  0.2363  0.1604
27081SOL    HW186054   1.091   6.956   6.778 -0.7062  0.7701 -0.0568
27081SOL    HW286055   1.047   6.968   6.634  0.1369 -0.9933 -0.4903
27082SOL     OW86056   1.175   1.532  11.849 -0.1245  0.2031  0.0157
27082SOL    HW186057   1.256   1.536  11.899 -0.6176 -1.6262  1.0693
27082SOL    HW286058   1.165   1.620  11.812  2.1720  0.5558  0.0675
27083SOL     OW86059   1.015   6.317   4.171 -0.4748 -0.0540  0.1540
27083SOL    HW186060   0.979   6.240   4.215 -1.7448  0.4705  0.0679
27083SOL    HW286061   1.109   6.298   4.163 -0.8387 -1.8327 -0.3837
27084SOL     OW86062   3.833   8.341   3.014  0.2067  0.4213 -0.4108
27084SOL    HW186063   3.784   8.422   3.026  0.3174  0.7915 -2.2201
27084SOL    HW286064   3.883   8.331   3.095 -1.7850  0.7445  0.9433
27085SOL     OW86065   3.773   4.522   5.608  0.1687 -0.3070 -0.0865
27085SOL    HW186066   3.779   4.611   5.644  1.3256  0.0236 -1.0177
27085SOL    HW286067   3.725   4.534   5.526  1.4585 -0.2922 -0.8740
27086SOL     OW86068   3.383   5.940   9.091 -0.0257  0.0531 -0.4737
27086SOL    HW186069   3.379   5.876   9.020  1.1626  1.3227 -1.7596
27086SOL    HW286070   3.333   6.015   9.058 -1.5378 -0.2097  1.0640
27087SOL     OW86071   5.631   3.505  10.844  0.0126 -0.3370 -0.1394
27087SOL    HW186072   5.633   3.413  10.815 -0.9711 -0.6382  0.7231
27087SOL    HW286073   5.587   3.503  10.929  0.5535  0.8630  0.1908
27088SOL     OW86074   0.537   3.625   5.027  0.1390  0.1523 -0.1457
27088SOL    HW186075   0.506   3.679   5.100  0.8679 -0.6659  0.7989
27088SOL    HW286076   0.626   3.655   5.012  0.2563 -0.2176 -0.1808
27089SOL     OW86077   9.568   1.528  12.584 -0.5009  1.0784  0.0474
27089SOL    HW186078   9.546   1.594  12.518  1.0045  0.1610 -1.4594
27089SOL    HW286079   9.593   1.578  12.661 -1.0068  2.2248 -0.5059
27090SOL     OW86080   1.388   7.932   5.017 -0.1720 -0.2161  0.3979
27090SOL    HW186081   1.388   7.996   5.088 -1.1647 -0.7436  0.8955
27090SOL    HW286082   1.462   7.957   4.962  2.3395 -1.3682  3.0013
27091SOL     OW86083   1.765   6.115  12.598 -0.4487  0.2740  0.1817
27091SOL    HW186084   1.686   6.061  12.603 -0.2219 -0.2300 -1.1570
27091SOL    HW286085   1.736   6.196  12.556 -0.4215  0.4152  0.4393
27092SOL     OW86086   6.118   9.757   7.430  0.4799  0.1342 -0.1243
27092SOL    HW186087   6.212   9.756   7.446  0.5129 -0.4421 -0.3275
27092SOL    HW286088   6.109   9.757   7.334  0.2837  3.5237 -0.2360
27093SOL     OW86089   4.716   1.780   6.938 -0.4062 -0.0626 -0.2400
27093SOL    HW186090   4.766   1.760   6.859 -3.0377 -0.3760 -1.9568
27093SOL    HW286091   4.769   1.744   7.010  1.7259 -0.4271 -1.9055
27094SOL     OW86092   1.213   7.728   2.307 -0.5394 -0.1313  0.1390
27094SOL    HW186093   1.137   7.772   2.346 -0.6828  2.3064 -2.5529
27094SOL    HW286094   1.277   7.798   2.294  0.1555 -1.1119 -2.2690
27095SOL     OW86095   9.812  11.170   9.770  0.2556 -0.4017 -0.0855
27095SOL    HW186096   9.886  11.230   9.779  0.7709 -0.9291 -0.7186
27095SOL    HW286097   9.773  11.167   9.858  1.3330 -0.5558  0.4058
27096SOL     OW86098  11.486   1.427  11.028  0.1857 -0.2670 -0.4496
27096SOL    HW186099  11.552   1.495  11.013  1.4636 -1.6579 -1.5374
27096SOL    HW286100  11.428   1.432  10.952  2.5679 -2.7800 -2.6751
27097SOL     OW86101   0.335   2.170   5.110  0.1952  0.2502  0.3482
27097SOL    HW186102   0.352   2.243   5.170 -2.1721  0.5108  0.8097
27097SOL    HW286103   0.263   2.201   5.055  1.8552 -0.2319 -2.2920
27098SOL     OW86104   1.588  11.533  10.025 -0.4270 -0.1000 -0.3732
27098SOL    HW186105   1.587  11.513   9.931 -1.5483 -0.1330 -0.3664
27098SOL    HW286106   1.503  11.502  10.057 -0.8976  1.7026  0.2683
27099SOL     OW86107   8.313   3.304  10.409  0.9017 -0.1974 -0.6991
27099SOL    HW186108   8.307   3.394  10.441  1.5267 -0.3050 -0.2616
27099SOL    HW286109   8.249   3.300  10.337  0.6902  0.5204 -0.5620
27100SOL     OW86110   5.083   6.267   0.655  0.1061  0.1922  0.3120
27100SOL    HW186111   5.044   6.273   0.742 -0.5580 -0.0006  0.0332
27100SOL    HW286112   5.059   6.180   0.624 -2.8637  1.5127 -1.5346
27101SOL     OW86113   1.299   9.895  11.747 -0.2087 -0.7351  0.0290
27101SOL    HW186114   1.358   9.828  11.711 -0.3277 -1.0862  0.4701
27101SOL    HW286115   1.224   9.845  11.780 -1.8598 -0.1489 -2.5365
27102SOL     OW86116   5.260  11.362   8.735 -0.0779  0.2304 -0.3142
27102SOL    HW186117   5.285  11.286   8.682 -0.4536  0.1015 -0.3067
27102SOL    HW286118   5.332  11.425   8.721 -0.1627  0.1935 -0.9703
27103SOL     OW86119  12.019   8.537   0.529  0.2228  0.0258 -0.0290
27103SOL    HW186120  11.953   8.470   0.549  0.3168  0.1676  0.7640
27103SOL    HW286121  12.102   8.497   0.554  0.8100 -1.1726 -3.3868
27104SOL     OW86122   2.126   2.278   8.511  0.0849  0.2601 -0.5421
27104SOL    HW186123   2.158   2.207   8.456 -2.3271  0.0345 -1.7964
27104SOL    HW286124   2.104   2.348   8.450 -1.2890  0.5672  0.2603
27105SOL     OW86125   8.789   4.601   1.323 -0.2987  0.0807  0.1784
27105SOL    HW186126   8.702   4.601   1.362 -1.0087 -0.4013 -1.3481
27105SOL    HW286127   8.843   4.650   1.386 -1.3530 -0.7216  1.7793
27106SOL     OW86128   0.007   0.057   2.030 -0.3100  0.3523 -0.1641
27106SOL    HW186129  -0.011   0.000   1.955  0.6318  1.0622 -0.9621
27106SOL    HW286130   0.032   0.141   1.991 -0.5834  0.9877  0.9668
27107SOL     OW86131   8.945  10.607   3.718  0.0668 -0.0344  0.5729
27107SOL    HW186132   8.907  10.574   3.800 -0.3937  0.2343  0.4710
27107SOL    HW286133   9.039  10.592   3.728  0.1051  0.7017  1.4820
27108SOL     OW86134   6.480   2.401   5.086 -0.4681 -0.7070  0.3226
27108SOL    HW186135   6.534   2.321   5.083 -0.2404 -0.5617  0.5228
27108SOL    HW286136   6.469   2.426   4.995 -1.4373 -1.5688  0.1799
27109SOL     OW86137   3.143   2.741   6.576  0.2045 -0.4189  0.2576
27109SOL    HW186138   3.051   2.764   6.582 -0.0564 -1.3275 -0.1246
27109SOL    HW286139   3.190   2.822   6.596 -0.6572 -0.4153  2.4238
27110SOL     OW86140   5.832   2.819  12.518 -0.2578 -0.4146  0.4001
27110SOL    HW186141   5.924   2.831  12.541 -0.5540  2.8479  0.2584
27110SOL    HW286142   5.784   2.843  12.597 -1.0219 -1.1727  0.1765
27111SOL     OW86143   8.530   2.051   5.293 -0.2526 -0.3288  0.1606
27111SOL    HW186144   8.625   2.051   5.304  0.1027  2.2760 -2.0358
27111SOL    HW286145   8.497   2.108   5.363 -0.1922 -0.8244  0.6043
27112SOL     OW86146   5.414   8.055   4.276 -0.1094 -0.5352 -0.0796
27112SOL    HW186147   5.508   8.050   4.294 -0.1046 -0.1036  0.0105
27112SOL    HW286148   5.408   8.111   4.198 -0.4858  1.9892  1.6506
27113SOL     OW86149   2.738   0.328  11.695  0.5091  0.2301  0.6524
27113SOL    HW186150   2.709   0.286  11.776 -0.4591  0.1137  0.2533
27113SOL    HW286151   2.687   0.409  11.689  0.0516 -0.1090 -0.1983
27114SOL     OW86152   0.945   1.657   1.249  0.1141  0.1258 -0.2960
27114SOL    HW186153   0.888   1.694   1.316  0.3691  0.3915 -0.2246
27114SOL    HW286154   1.031   1.697   1.265 -0.3820  2.2292 -2.3789
27115SOL     OW86155   3.170   3.890  12.247 -0.0631 -0.2950  0.5510
27115SOL    HW186156   3.233   3.954  12.280 -0.4154 -0.1818  1.0183
27115SOL    HW286157   3.215   3.806  12.254  0.6070 -0.0445 -0.5857
27116SOL     OW86158  12.290  12.352  10.410 -0.1193 -0.6426  0.2568
27116SOL    HW186159  12.310  12.335  10.502 -2.7113 -0.1988  0.9794
27116SOL    HW286160  12.330  12.279  10.363 -1.2935 -2.5824  2.0809
27117SOL     OW86161   6.347   3.877  12.104  0.5947  0.2719  0.3108
27117SOL    HW186162   6.313   3.830  12.180 -0.1840  0.1097 -0.1344
27117SOL    HW286163   6.272   3.889  12.046  0.7924  1.9375  0.3307
27118SOL     OW86164   9.543  10.819   0.654 -0.3994 -0.2775 -0.4276
27118SOL    HW186165   9.616  10.846   0.598 -0.5062 -0.1172 -0.4909
27118SOL    HW286166   9.584  10.765   0.722 -0.3709 -1.1712 -1.1261
27119SOL     OW86167   5.733   2.683   6.590 -0.2778  0.1652 -0.3246
27119SOL    HW186168   5.818   2.640   6.577  0.2636 -0.0481  3.0566
27119SOL    HW286169   5.674   2.636   6.531  1.5029 -1.1692 -1.1522
27120SOL     OW86170   7.071  11.474   0.620 -0.3748  0.0064  0.3569
27120SOL    HW186171   7.089  11.476   0.714  1.0505 -2.9085  0.2586
27120SOL    HW286172   7.024  11.392   0.606  1.0133 -0.5303 -1.6540
27121SOL     OW86173   9.445   8.366   3.885  0.3874 -0.1277  0.1368
27121SOL    HW186174   9.401   8.403   3.962  0.2268 -0.9586  0.4520
27121SOL    HW286175   9.381   8.374   3.814  0.3651  0.2220  0.1946
27122SOL     OW86176   4.256   8.540   8.454  0.0007  0.2710 -0.1551
27122SOL    HW186177   4.233   8.448   8.465 -0.3892  0.3636 -0.1805
27122SOL    HW286178   4.351   8.543   8.468  0.1055 -0.2250 -0.7128
27123SOL     OW86179   1.956   0.230   2.271  0.3021 -0.1256 -0.2038
27123SOL    HW186180   1.925   0.172   2.202  1.1067 -1.6134  0.6335
27123SOL    HW286181   2.051   0.226   2.265  0.3745  0.6983  0.2088
27124SOL     OW86182   2.571  11.763   5.879  0.2023  0.4312  0.2836
27124SOL    HW186183   2.565  11.717   5.962 -2.5333  2.4139  1.3291
27124SOL    HW286184   2.641  11.827   5.893 -0.1139  0.6288  1.0204
27125SOL     OW86185   3.438   9.103   2.138 -0.5887 -0.1364  0.0880
27125SOL    HW186186   3.385   9.171   2.095 -0.1601 -0.7417 -1.4747
27125SOL    HW286187   3.525   9.112   2.098 -0.0947 -0.5717  1.0347
27126SOL     OW86188  11.343   4.248  10.052 -0.4558 -0.1926 -0.4632
27126SOL    HW186189  11.304   4.304   9.984 -0.9896  0.2108  0.1656
27126SOL    HW286190  11.342   4.302  10.131 -2.4087 -1.5668  0.5505
27127SOL     OW86191   1.238  12.048   4.806  0.0265  0.2792 -0.6641
27127SOL    HW186192   1.243  12.084   4.894  0.5878  1.8916 -1.3240
27127SOL    HW286193   1.276  12.115   4.750 -3.1555  0.7077 -2.5637
27128SOL     OW86194   7.344   6.504   2.076  0.1196  0.1075  0.4044
27128SOL    HW186195   7.255   6.530   2.053  0.0854 -0.8053 -0.5921
27128SOL    HW286196   7.358   6.539   2.164 -0.9091  0.9988  0.2238
27129SOL     OW86197   1.381  10.800  11.829 -0.3086 -0.2819  0.0246
27129SOL    HW186198   1.410  10.764  11.913  0.1838 -1.2586 -0.5517
27129SOL    HW286199   1.433  10.880  11.818 -0.7888  0.1654  0.9107
27130SOL     OW86200   0.667   3.804   9.385  0.3719 -0.5618 -0.4639
27130SOL    HW186201   0.732   3.775   9.448  1.1075 -0.4068 -1.1341
27130SOL    HW286202   0.595   3.741   9.394  0.7759 -0.9661  0.0111
27131SOL     OW86203   1.907   2.672   9.696  0.1875  0.7264 -0.2788
27131SOL    HW186204   1.902   2.732   9.621  1.7451  0.1051 -0.9269
27131SOL    HW286205   1.933   2.728   9.770 -0.8553  1.2534 -0.2885
27132SOL     OW86206   4.147   2.308   0.312  0.5315 -0.5969 -0.0357
27132SOL    HW186207   4.221   2.259   0.276  0.7468 -1.3892  1.3932
27132SOL    HW286208   4.113   2.358   0.239  2.2362 -0.5230 -0.8120
27133SOL     OW86209   7.319   3.559  10.539 -0.3617 -0.2623 -0.2122
27133SOL    HW186210   7.315   3.615  10.616 -0.7141  1.8482 -1.6692
27133SOL    HW286211   7.413   3.547  10.522 -0.2751 -1.3502  0.9153
27134SOL     OW86212   4.078   3.942   3.044 -0.3080  0.5326  0.2326
27134SOL    HW186213   3.983   3.941   3.042 -0.3284 -0.1173  0.9529
27134SOL    HW286214   4.101   4.030   3.074 -0.6930  0.5974  0.3348
27135SOL     OW86215   1.389   2.028   9.547 -0.0368 -0.0460 -0.7439
27135SOL    HW186216   1.301   2.006   9.580  0.6215  0.3963  1.4799
27135SOL    HW286217   1.395   2.123   9.558  1.8277 -0.3902  2.3415
27136SOL     OW86218  10.822   4.578   5.498  0.0346  0.3929  0.4039
27136SOL    HW186219  10.804   4.655   5.550  0.1314  0.2804  0.6042
27136SOL    HW286220  10.770   4.590   5.418  0.3020  0.8200  0.2882
27137SOL     OW86221   5.690   6.258   9.267  0.1038  0.0324  0.0217
27137SOL    HW186222   5.657   6.199   9.335 -0.7099  0.2369 -0.1841
27137SOL    HW286223   5.680   6.346   9.303  0.0676  0.1177 -0.1918
27138SOL     OW86224  10.734   1.306   9.386  0.0305 -0.3791  0.1264
27138SOL    HW186225  10.747   1.310   9.481 -0.5998  1.0426  0.1767
27138SOL    HW286226  10.821   1.283   9.352  1.1283  2.2278  0.8729
27139SOL     OW86227   7.324  12.486   8.773 -0.2065 -0.1726  0.5858
27139SOL    HW186228   7.339  12.576   8.744 -0.7977  0.0196  0.8523
27139SOL    HW286229   7.231  12.471   8.756 -0.6926  0.1072  2.7674
27140SOL     OW86230  11.024   0.069   4.287 -0.0375 -0.2429  0.2494
27140SOL    HW186231  10.964   0.047   4.357  0.4288 -0.6832  0.5165
27140SOL    HW286232  11.109   0.077   4.330  0.3024 -0.8028 -0.3009
27141SOL     OW86233   7.696   4.747   2.808 -0.9664  0.3574 -0.5254
27141SOL    HW186234   7.654   4.662   2.800 -1.9170  0.5659  1.4623
27141SOL    HW286235   7.624   4.810   2.808 -0.5221  0.9115  0.6308
27142SOL     OW86236   9.441   3.693   6.704 -0.2560 -0.1491 -0.6321
27142SOL    HW186237   9.485   3.746   6.770  0.4283 -0.8547 -0.5143
27142SOL    HW286238   9.449   3.603   6.736 -1.8217 -0.3123 -0.5791
27143SOL     OW86239  10.359   6.530   2.642 -0.0997  0.3353 -0.2422
27143SOL    HW186240  10.365   6.475   2.720 -0.8751  1.6153  0.7786
27143SOL    HW286241  10.403   6.480   2.573 -0.5919 -1.4361  0.6730
27144SOL     OW86242   0.400   5.052   4.360  0.1611  0.1735 -0.9941
27144SOL    HW186243   0.311   5.088   4.357  0.8484  2.1777  0.5690
27144SOL    HW286244   0.442   5.097   4.433  1.6614 -2.7020  0.1016
27145SOL     OW86245   7.638   6.112   7.288  0.2786  0.5684  0.2067
27145SOL    HW186246   7.689   6.066   7.355  1.4378  0.6505 -0.5962
27145SOL    HW286247   7.700   6.173   7.249 -0.5107  0.8430 -0.6434
27146SOL     OW86248   3.009   1.673   2.134  0.2119 -0.2774 -0.3595
27146SOL    HW186249   3.023   1.750   2.080  0.8172  0.1647  0.4019
27146SOL    HW286250   2.926   1.636   2.103 -0.9856  1.6275  0.3556
27147SOL     OW86251   6.073  10.072   1.479 -0.3324  0.0860  0.2910
27147SOL    HW186252   6.167  10.087   1.483 -0.4939  1.4882 -0.4428
27147SOL    HW286253   6.047  10.101   1.392 -1.4168 -0.4780  0.4001
27148SOL     OW86254   9.456  10.766   0.322 -0.0944 -0.0052  0.4153
27148SOL    HW186255   9.542  10.764   0.280 -0.2443 -1.0121  0.1381
27148SOL    HW286256   9.414  10.845   0.288  0.5172  0.2112  0.1569
27149SOL     OW86257   9.167   1.916   1.039  0.4970  0.0646  0.1327
27149SOL    HW186258   9.236   1.911   1.106  2.3829 -1.5837 -1.7808
27149SOL    HW286259   9.137   1.826   1.030  0.0621  0.3156 -0.9964
27150SOL     OW86260   9.740   5.699  12.285  0.2721 -0.1327  0.4280
27150SOL    HW186261   9.781   5.766  12.231  1.2841 -0.2701  1.0093
27150SOL    HW286262   9.810   5.669  12.343 -0.4268 -0.9893  0.8444
27151SOL     OW86263   6.414  11.497   6.784  0.1024 -0.0484  0.0589
27151SOL    HW186264   6.504  11.470   6.765 -0.9219 -3.0488 -1.1360
27151SOL    HW286265   6.400  11.469   6.875  0.8068  1.9015  0.8135
27152SOL     OW86266   7.269   9.814   2.499  0.1524 -0.0437  0.7556
27152SOL    HW186267   7.219   9.890   2.526 -0.6220  0.0678 -0.9117
27152SOL    HW286268   7.357   9.829   2.535 -0.1922  1.2422  1.0945
27153SOL     OW86269   2.405  12.267  10.204 -0.0107 -0.2319  0.2705
27153SOL    HW186270   2.442  12.324  10.272  1.1617 -0.3679 -0.2240
27153SOL    HW286271   2.354  12.202  10.253  3.0007 -2.0070  1.3241
27154SOL     OW86272   0.071   9.999   2.731 -0.1993  0.0281  0.0770
27154SOL    HW186273   0.085   9.980   2.638 -1.2512  1.5856 -0.4668
27154SOL    HW286274   0.099   9.921   2.777 -0.1299 -0.9858 -1.6052
27155SOL     OW86275   3.295   5.414  11.054 -0.4007 -0.2334  0.6964
27155SOL    HW186276   3.281   5.458  11.138 -1.6721 -1.1042  0.9611
27155SOL    HW286277   3.309   5.486  10.992 -1.1577  0.4957  1.3444
27156SOL     OW86278   1.178   9.632   3.022  0.0304  0.5612  0.4317
27156SOL    HW186279   1.125   9.711   3.012  0.8983  0.9206 -2.0358
27156SOL    HW286280   1.145   9.572   2.955  2.2062  0.5496 -0.7234
27157SOL     OW86281  11.630   8.179   0.592 -0.0311  0.1784 -0.1676
27157SOL    HW186282  11.542   8.178   0.552  0.2464  0.6623 -0.8198
27157SOL    HW286283  11.616   8.148   0.681 -0.5930 -1.5827 -0.8132
27158SOL     OW86284   7.906   4.627   8.824  0.2100 -0.0806 -0.3116
27158SOL    HW186285   7.993   4.642   8.863  0.2368 -1.1326  0.0648
27158SOL    HW286286   7.906   4.679   8.744  1.8741 -1.4575 -1.2722
27159SOL     OW86287  11.047   2.443   6.030  0.2444  1.0256 -0.0352
27159SOL    HW186288  11.024   2.534   6.011  0.2003  1.1639  0.6627
27159SOL    HW286289  11.079   2.409   5.946  0.2214  1.6677 -0.3142
27160SOL     OW86290   5.719   5.228  12.226 -0.4919 -0.1205 -0.0165
27160SOL    HW186291   5.791   5.260  12.280  1.1575 -0.9083 -1.6267
27160SOL    HW286292   5.664   5.178  12.286 -0.4046  1.5205  1.4965
27161SOL     OW86293  10.604  12.488   1.391  0.0489 -0.3279 -0.3370
27161SOL    HW186294  10.603  12.569   1.443  0.1428 -1.3763  1.3964
27161SOL    HW286295  10.513  12.459   1.390  0.3390 -1.4649  1.2461
27162SOL     OW86296   5.399   3.296   0.896 -0.3772  0.0784 -0.3195
27162SOL    HW186297   5.408   3.354   0.971  1.8715  0.4728 -0.8289
27162SOL    HW286298   5.453   3.337   0.828 -0.7577 -1.3134 -1.5062
27163SOL     OW86299  10.188  12.510   8.914  0.6685  0.4842  0.8292
27163SOL    HW186300  10.099  12.486   8.940  0.4128  1.0377  0.4794
27163SOL    HW286301  10.221  12.432   8.868 -0.6497  1.2159 -1.5324
27164SOL     OW86302  11.519   2.446   5.453  0.1300 -0.4086 -0.1472
27164SOL    HW186303  11.481   2.531   5.430 -1.4662 -0.9014  0.4662
27164SOL    HW286304  11.599   2.468   5.500 -1.2799  0.9020  1.8431
27165SOL     OW86305  10.610   1.575   9.116  0.2367 -1.1655 -0.9857
27165SOL    HW186306  10.599   1.547   9.207  2.9323  0.0995 -0.1510
27165SOL    HW286307  10.680   1.519   9.082  1.0121  0.0349 -1.4323
27166SOL     OW86308   2.093   0.329   4.897  0.0062 -0.4821 -0.2855
27166SOL    HW186309   2.098   0.236   4.920 -1.7542 -0.8617 -1.2423
27166SOL    HW286310   2.063   0.371   4.977 -0.2397 -0.9058 -0.1489
27167SOL     OW86311   0.648   7.037  12.495 -0.3119  0.4415  0.2122
27167SOL    HW186312   0.589   7.025  12.421 -1.6778 -0.0064  1.3314
27167SOL    HW286313   0.715   7.097  12.462 -1.4678  1.1035 -1.0636
27168SOL     OW86314   3.169   8.269   8.653 -0.0323  0.3654 -0.3829
27168SOL    HW186315   3.220   8.348   8.635  1.8404 -0.8769 -0.7377
27168SOL    HW286316   3.202   8.236   8.736  0.1040 -0.7168 -0.8442
27169SOL     OW86317   9.117   6.292   2.938 -0.1532  0.4355 -0.7632
27169SOL    HW186318   9.147   6.310   2.849 -1.6173 -0.3897 -1.4482
27169SOL    HW286319   9.065   6.368   2.962 -0.5401  0.2380 -0.9749
27170SOL     OW86320   0.165   2.935   2.838  0.0074 -0.1211 -0.2674
27170SOL    HW186321   0.183   3.028   2.821  0.6540 -0.3674 -0.9846
27170SOL    HW286322   0.084   2.936   2.889 -0.9849  0.7784 -1.7625
27171SOL     OW86323   5.950  10.130  11.915 -0.1918  0.2654  0.2319
27171SOL    HW186324   5.933  10.085  11.997  2.2985 -0.6061  0.3725
27171SOL    HW286325   5.974  10.219  11.941 -1.1435  0.5100  0.2889
27172SOL     OW86326   9.126   8.835   4.572 -0.2820  0.3485 -0.1493
27172SOL    HW186327   9.066   8.764   4.592  0.5022 -0.4467 -0.5539
27172SOL    HW286328   9.201   8.819   4.630  0.0638  0.6145 -0.5198
27173SOL     OW86329   7.540   2.169   1.157 -0.7135 -0.0791 -0.4664
27173SOL    HW186330   7.576   2.129   1.237 -0.9709 -0.2097 -0.4137
27173SOL    HW286331   7.582   2.121   1.086 -0.3610  0.1446 -0.4138
27174SOL     OW86332  10.635   0.607   6.156  0.2828  0.2177 -0.6793
27174SOL    HW186333  10.579   0.598   6.079 -1.4390  0.7644  0.4421
27174SOL    HW286334  10.589   0.670   6.212  1.5907  0.0175  0.6858
27175SOL     OW86335   1.506   7.173  12.461  0.1771  0.2909 -0.3892
27175SOL    HW186336   1.550   7.224  12.530 -1.5221  1.1888  0.0913
27175SOL    HW286337   1.576   7.120  12.422  0.8744 -1.9388  3.4404
27176SOL     OW86338  12.586   6.155   3.601  0.7646 -0.1978 -0.2138
27176SOL    HW186339  12.534   6.208   3.662 -0.3121 -0.6891 -0.6871
27176SOL    HW286340  12.533   6.150   3.522  2.1046  0.3637 -1.2049
27177SOL     OW86341   9.473  12.107   9.020  0.3799  0.3881  0.5641
27177SOL    HW186342   9.379  12.095   9.034  0.4111  2.0222  2.5760
27177SOL    HW286343   9.480  12.191   8.975  0.8431 -0.2798 -0.6431
27178SOL     OW86344   1.639  11.866   9.042 -0.2708 -0.2300 -0.0575
27178SOL    HW186345   1.694  11.789   9.054 -0.2702 -0.4361 -1.3554
27178SOL    HW286346   1.593  11.875   9.126  1.8332  0.0528  1.1417
27179SOL     OW86347   5.771   7.487   8.286 -0.0710 -0.2298 -0.0960
27179SOL    HW186348   5.819   7.556   8.240  1.4713 -1.8317 -1.0000
27179SOL    HW286349   5.796   7.498   8.378 -1.5369  1.6999  0.1331
27180SOL     OW86350   5.235   4.692  12.446  0.0565  0.0299 -0.2429
27180SOL    HW186351   5.274   4.681  12.359 -0.3926  0.9112 -0.5753
27180SOL    HW286352   5.174   4.618  12.454  0.4243 -0.3051 -0.4855
27181SOL     OW86353   9.790  10.989   5.552 -0.3666 -0.0941  0.1166
27181SOL    HW186354   9.821  11.056   5.491 -2.2575  0.7590  0.0179
27181SOL    HW286355   9.777  11.036   5.635 -2.0212 -0.2137 -0.0356
27182SOL     OW86356   0.973   4.322  11.421 -0.0038  0.1242 -0.1159
27182SOL    HW186357   1.044   4.372  11.381  0.3627  0.8219  1.3464
27182SOL    HW286358   0.913   4.387  11.456 -1.0567 -0.4678 -0.7449
27183SOL     OW86359   9.803  12.168  11.537  0.0400 -0.4836  0.0507
27183SOL    HW186360   9.774  12.220  11.462  0.3682 -0.0676  0.2112
27183SOL    HW286361   9.804  12.078  11.505 -1.5153 -0.5335  0.0583
27184SOL     OW86362   6.440   5.244   0.369 -0.6927  0.1284  0.0973
27184SOL    HW186363   6.448   5.221   0.461  0.8913  0.9139  0.1777
27184SOL    HW286364   6.409   5.163   0.327 -2.2663 -0.0014  1.4045
27185SOL     OW86365   2.120   3.386   2.954  0.1091  0.0387 -0.1779
27185SOL    HW186366   2.047   3.410   3.011 -0.9034 -0.8415 -1.0539
27185SOL    HW286367   2.126   3.457   2.891 -1.7297 -1.0566 -1.6918
27186SOL     OW86368   9.827   3.719   3.545 -0.2558 -0.0809  0.5378
27186SOL    HW186369   9.776   3.675   3.613 -0.6800  2.0644  1.6984
27186SOL    HW286370   9.905   3.664   3.534 -0.8461 -1.2051  1.7527
27187SOL     OW86371   0.752   6.470  10.554 -0.4989  0.0167 -0.2226
27187SOL    HW186372   0.683   6.494  10.492 -1.5491  0.8376  1.1870
27187SOL    HW286373   0.829   6.519  10.525 -1.0122  0.5043 -0.7911
27188SOL     OW86374   8.371   8.172   2.409 -0.4391 -0.2717  0.2196
27188SOL    HW186375   8.403   8.174   2.499  1.0345 -1.2497 -0.2426
27188SOL    HW286376   8.314   8.095   2.405  0.9096 -1.2952 -0.0871
27189SOL     OW86377   1.069  12.388  11.401  0.2090  0.1217 -0.0463
27189SOL    HW186378   1.107  12.429  11.479  0.6681 -0.2616 -0.0637
27189SOL    HW286379   0.975  12.390  11.416  0.1905  1.5656 -0.2382
27190SOL     OW86380   9.784   5.071   8.417 -0.0321 -0.2371  0.3063
27190SOL    HW186381   9.833   4.990   8.401  1.0822  0.7345 -1.5888
27190SOL    HW286382   9.796   5.088   8.511 -1.5356 -2.9845  1.0965
27191SOL     OW86383  10.243   1.959  11.964  0.1732  0.2330 -0.4946
27191SOL    HW186384  10.289   2.000  12.037  0.5949  0.0441 -0.6516
27191SOL    HW286385  10.311   1.939  11.900 -0.1569  0.1569 -0.8294
27192SOL     OW86386  12.550   0.020   4.554  0.0877  0.1609 -0.0152
27192SOL    HW186387  12.581  -0.027   4.631  0.7671 -0.1939 -0.4860
27192SOL    HW286388  12.589   0.108   4.562  1.5729 -0.3852 -0.7765
27193SOL     OW86389   7.143   5.444   4.272  0.5018 -0.4043  0.7489
27193SOL    HW186390   7.191   5.422   4.192  1.0702 -0.5977  1.1432
27193SOL    HW286391   7.051   5.434   4.248  0.1803  4.6257 -1.5601
27194SOL     OW86392   7.175   7.756   6.620  0.0193 -0.0740  0.2670
27194SOL    HW186393   7.232   7.817   6.574 -1.5078  1.2070 -0.0057
27194SOL    HW286394   7.200   7.670   6.586 -0.6286  0.7544 -2.5372
27195SOL     OW86395  10.725   8.801   0.596 -0.4901  0.1502  0.2604
27195SOL    HW186396  10.694   8.732   0.537 -2.1619  0.5264  0.6395
27195SOL    HW286397  10.809   8.828   0.559 -1.4306  0.3215 -1.9507
27196SOL     OW86398   2.188   6.602  11.648  0.7217  0.1293 -0.3960
27196SOL    HW186399   2.218   6.691  11.628  0.7667  0.5052  1.1755
27196SOL    HW286400   2.259   6.565  11.701 -0.5157  0.2143  1.4101
27197SOL     OW86401   1.916   3.803   6.823  0.9181 -0.5537 -0.4535
27197SOL    HW186402   1.887   3.740   6.756 -1.2481 -0.7133  0.5234
27197SOL    HW286403   1.873   3.885   6.799 -0.1171 -0.6862  0.8510
27198SOL     OW86404   0.937   4.429   3.149  0.0476  0.4998 -0.1806
27198SOL    HW186405   0.981   4.509   3.177 -1.6021  0.8155  1.7163
27198SOL    HW286406   0.865   4.460   3.093  0.7044  0.1641 -1.2330
27199SOL     OW86407   4.705   5.784  10.703  0.2024 -0.2310 -0.2083
27199SOL    HW186408   4.728   5.808  10.793  0.2099 -1.9845  0.2840
27199SOL    HW286409   4.788   5.783  10.657  0.2683  0.1160 -0.1011
27200SOL     OW86410  11.566   9.410   1.245  0.2538 -0.5933  0.1833
27200SOL    HW186411  11.548   9.466   1.321 -1.6491 -1.2126  0.2445
27200SOL    HW286412  11.479   9.393   1.208  1.1387 -0.1724 -2.2481
27201SOL     OW86413  11.647  11.266   8.806  0.2347 -0.0438  0.3958
27201SOL    HW186414  11.584  11.205   8.846  0.8759 -1.1741 -0.2685
27201SOL    HW286415  11.618  11.352   8.835  0.0822 -0.7423  2.4941
27202SOL     OW86416   5.296  11.711  10.723  0.0449  0.5300 -0.3425
27202SOL    HW186417   5.353  11.634  10.731 -0.0026  0.3261 -1.8307
27202SOL    HW286418   5.219  11.680  10.675 -1.2933  0.8446  1.4689
27203SOL     OW86419  11.602   4.288   3.699  0.0041 -0.4324 -0.7263
27203SOL    HW186420  11.523   4.237   3.717  2.2539 -3.6379  1.1562
27203SOL    HW286421  11.617   4.276   3.605 -1.5701  0.0958 -1.0849
27204SOL     OW86422   7.341  11.701   2.112  0.0869  0.2080  0.1272
27204SOL    HW186423   7.253  11.690   2.074 -1.1079 -1.3948  3.0279
27204SOL    HW286424   7.326  11.757   2.188  2.3359  3.1050 -1.3671
27205SOL     OW86425   7.466   6.264   0.019  0.0862 -0.1272 -0.4218
27205SOL    HW186426   7.520   6.191  -0.011  0.3260  0.4923 -1.5457
27205SOL    HW286427   7.377   6.227   0.025 -0.0773 -0.1519 -2.4678
27206SOL     OW86428   3.371   7.849   6.488 -0.5572  0.0541 -0.4968
27206SOL    HW186429   3.300   7.855   6.425 -0.6667 -2.0924 -0.6387
27206SOL    HW286430   3.353   7.770   6.538 -0.2103  1.4019  1.9586
27207SOL     OW86431   4.016  11.992  12.040 -0.2099  0.5115  0.0751
27207SOL    HW186432   4.020  12.081  12.006  2.5624  0.0344 -1.0953
27207SOL    HW286433   4.017  11.936  11.962  3.1942 -0.5531  0.7020
27208SOL     OW86434   3.608   1.110   9.961  0.0202 -0.2450  0.0503
27208SOL    HW186435   3.701   1.116   9.982  0.5368 -0.9781 -1.8928
27208SOL    HW286436   3.564   1.132  10.043  1.8907  0.3767  0.9348
27209SOL     OW86437   9.013  11.999   0.449  0.1997  0.6097  0.3674
27209SOL    HW186438   9.043  12.084   0.419 -0.3604  0.9117  0.6458
27209SOL    HW286439   8.922  12.013   0.475 -0.6235 -0.5677 -1.6656
27210SOL     OW86440   0.302   1.127   9.266 -0.0240  0.0993 -0.8280
27210SOL    HW186441   0.345   1.209   9.291 -0.9195  0.3526 -0.0852
27210SOL    HW286442   0.211   1.139   9.292 -0.2066 -1.0516 -0.9105
27211SOL     OW86443  10.697  10.679   8.574 -0.2059  0.4002 -0.3882
27211SOL    HW186444  10.661  10.766   8.553 -1.1231  0.1284 -0.0094
27211SOL    HW286445  10.634  10.642   8.635  0.3427 -0.4185 -0.3114
27212SOL     OW86446  11.486   7.941  10.473  0.5131 -0.2283 -0.3659
27212SOL    HW186447  11.559   7.893  10.433  0.1134 -0.8686 -0.3513
27212SOL    HW286448  11.409   7.912  10.425  0.1095 -0.5051  0.4183
27213SOL     OW86449   2.270  12.259   6.617 -0.1550 -0.2724 -0.4240
27213SOL    HW186450   2.199  12.284   6.559 -0.5809  0.8349  0.5383
27213SOL    HW286451   2.232  12.191   6.673  0.0103 -0.7425 -0.8658
27214SOL     OW86452   0.239   8.207   6.017 -0.3642  0.1447 -0.0662
27214SOL    HW186453   0.321   8.250   6.041 -0.0778 -0.2508 -0.3277
27214SOL    HW286454   0.197   8.266   5.954 -0.1818  0.2493 -0.0882
27215SOL     OW86455  10.288   6.745  12.149  0.1480 -0.0532 -0.2872
27215SOL    HW186456  10.366   6.692  12.133 -0.6396 -1.0170 -1.0856
27215SOL    HW286457  10.312   6.802  12.222  0.8951 -1.8502  0.9409
27216SOL     OW86458  10.527  10.336   2.832  0.3409  0.4120 -0.2079
27216SOL    HW186459  10.608  10.361   2.878  1.1806  0.1766 -1.5110
27216SOL    HW286460  10.536  10.375   2.745 -0.9202  0.3036 -0.3965
27217SOL     OW86461   9.601   4.696  11.857 -0.1774  0.3762 -0.3992
27217SOL    HW186462   9.617   4.640  11.934  0.4557  0.7729 -0.2371
27217SOL    HW286463   9.684   4.740  11.842 -0.5060  0.8314 -0.8939
27218SOL     OW86464   5.720   2.056   1.679 -0.7793  0.3635  0.5275
27218SOL    HW186465   5.808   2.094   1.688 -0.9159  0.9669 -0.5323
27218SOL    HW286466   5.736   1.970   1.640 -0.4947 -0.5909  2.6269
27219SOL     OW86467   7.636   8.359   6.295  0.1938 -0.8545 -0.4341
27219SOL    HW186468   7.563   8.340   6.353 -0.0507  0.0063 -0.4414
27219SOL    HW286469   7.712   8.366   6.353  0.1687 -1.1712 -0.3613
27220SOL     OW86470  11.396   4.920   7.765 -0.2561 -0.1828  0.8075
27220SOL    HW186471  11.354   4.999   7.732 -0.4073 -0.5177  0.1923
27220SOL    HW286472  11.484   4.922   7.726 -0.0977 -0.0837  1.1620
27221SOL     OW86473   7.765   5.400   3.688 -0.0835  0.7358 -0.6018
27221SOL    HW186474   7.727   5.346   3.758  0.2518  0.5080 -0.5892
27221SOL    HW286475   7.858   5.378   3.690  0.0386  1.2330 -0.6738
27222SOL     OW86476  12.273   1.168   5.282 -0.3199 -0.0539  0.4359
27222SOL    HW186477  12.187   1.145   5.247  0.2387  0.1609 -1.1750
27222SOL    HW286478  12.279   1.263   5.271  0.2150 -0.1012  0.3039
27223SOL     OW86479   9.079   7.657   9.803 -0.6247  0.0856  0.4152
27223SOL    HW186480   9.100   7.725   9.738  0.5230 -0.0463  0.6305
27223SOL    HW286481   8.994   7.683   9.838 -0.5411  1.0072 -0.0418
27224SOL     OW86482   2.653   6.830   6.257 -0.5459 -0.4526  0.3958
27224SOL    HW186483   2.642   6.920   6.287 -0.4757 -0.6637  1.0571
27224SOL    HW286484   2.592   6.822   6.183  3.0653  1.7343 -3.2802
27225SOL     OW86485   7.882  11.828   5.436 -0.7797 -0.3115  0.1821
27225SOL    HW186486   7.854  11.760   5.375 -1.6557  1.0401 -0.9815
27225SOL    HW286487   7.956  11.870   5.393 -0.0113 -0.7335  1.0580
27226SOL     OW86488   7.862   5.481   4.907  0.5393  0.1009  0.1933
27226SOL    HW186489   7.839   5.574   4.908 -0.6717 -0.1714 -0.0938
27226SOL    HW286490   7.945   5.476   4.954  1.3497  1.5077 -0.9807
27227SOL     OW86491   8.033  11.855   7.948 -0.3378 -0.3167 -0.4066
27227SOL    HW186492   8.127  11.863   7.933 -0.4284  0.4866 -0.6087
27227SOL    HW286493   8.025  11.791   8.018  0.4257  0.5153  0.4714
27228SOL     OW86494   5.942   9.095   5.639  0.1146 -0.5785  0.1653
27228SOL    HW186495   5.958   9.181   5.600  0.8474 -0.6110  0.3731
27228SOL    HW286496   6.016   9.041   5.610 -0.0679 -0.9907  0.4512
27229SOL     OW86497   3.921   8.078   1.958  0.1758 -0.0596 -1.1618
27229SOL    HW186498   3.933   8.098   2.051  0.9313  1.5172 -1.5599
27229SOL    HW286499   3.827   8.082   1.944 -0.0618 -1.5855 -0.2283
27230SOL     OW86500   0.272  11.229   6.216  0.0031  0.0589  0.0678
27230SOL    HW186501   0.238  11.258   6.300 -0.9448  0.1820 -0.3480
27230SOL    HW286502   0.366  11.214   6.232 -0.2854 -0.5739  1.3043
27231SOL     OW86503   8.521  11.609  10.198 -0.2227  0.4422 -0.2747
27231SOL    HW186504   8.552  11.535  10.145  0.4029  0.9641 -0.6432
27231SOL    HW286505   8.599  11.661  10.215 -0.4987  0.5375  0.7798
27232SOL     OW86506   5.302   6.844   1.203 -0.1382 -0.5553  0.2289
27232SOL    HW186507   5.387   6.870   1.237  0.8157 -1.1113 -1.5841
27232SOL    HW286508   5.264   6.789   1.271  0.4024  0.6685  1.5691
27233SOL     OW86509  10.612   4.108  10.905  0.3616  0.1644  0.3305
27233SOL    HW186510  10.624   4.060  10.823 -0.4643  0.5054 -0.0005
27233SOL    HW286511  10.691   4.089  10.956  2.1129  1.9483 -1.5413
27234SOL     OW86512  11.747  11.123  12.453  0.2941  0.1667  0.0735
27234SOL    HW186513  11.715  11.211  12.472  0.4827  0.0165  1.1346
27234SOL    HW286514  11.792  11.132  12.368 -0.3341  0.9182 -0.1934
27235SOL     OW86515   7.841   7.613  10.401 -1.2004  0.0703  0.1532
27235SOL    HW186516   7.809   7.529  10.366  3.3247 -0.6475 -3.2266
27235SOL    HW286517   7.814   7.678  10.336 -0.3448  0.3219  0.0375
27236SOL     OW86518  11.557   3.217   5.653 -0.0393  0.1248 -0.2657
27236SOL    HW186519  11.586   3.146   5.596 -0.3364  0.9057 -1.4254
27236SOL    HW286520  11.630   3.230   5.714  0.3108 -0.6889 -0.4960
27237SOL     OW86521   2.655   1.445   2.235  0.3320 -0.0369 -0.1610
27237SOL    HW186522   2.692   1.492   2.160  0.7864  0.2963  0.2598
27237SOL    HW286523   2.619   1.514   2.291 -2.4686 -0.4499 -1.3243
27238SOL     OW86524   6.679   8.462   4.490  0.2127  0.1737  0.0193
27238SOL    HW186525   6.728   8.542   4.510 -0.4166  0.8649 -1.0780
27238SOL    HW286526   6.640   8.479   4.404 -1.2928 -0.6666  0.4973
27239SOL     OW86527   7.303  10.977   0.734 -0.1571  0.5225 -0.3895
27239SOL    HW186528   7.355  11.057   0.735  0.6066  0.0803 -1.6737
27239SOL    HW286529   7.353  10.916   0.679 -0.8664 -0.7390  0.2983
27240SOL     OW86530  10.589  11.448  11.717 -0.0761  0.2685 -0.1605
27240SOL    HW186531  10.679  11.423  11.694  0.0826  1.0771 -0.4492
27240SOL    HW286532  10.592  11.461  11.812  0.2587  0.8420 -0.2428
27241SOL     OW86533  11.032   3.448  10.979 -0.2069  0.0773  0.0025
27241SOL    HW186534  10.961   3.457  10.916  0.8728 -1.1481 -1.4687
27241SOL    HW286535  11.084   3.528  10.969  1.0489 -0.8944 -2.1915
27242SOL     OW86536   5.493  11.496   8.384 -0.4030  0.6965 -0.3425
27242SOL    HW186537   5.492  11.570   8.444 -1.5485  0.7126 -0.3612
27242SOL    HW286538   5.404  11.461   8.387  0.0699 -0.5667 -0.4844
27243SOL     OW86539   8.528   2.295  10.499  0.2353  0.2728  0.5021
27243SOL    HW186540   8.471   2.251  10.562  1.2477 -1.3034  0.3649
27243SOL    HW286541   8.615   2.293  10.540  0.9416 -0.8978 -0.9599
27244SOL     OW86542   1.654   0.964   9.117 -0.1358 -0.2644 -0.1265
27244SOL    HW186543   1.664   0.870   9.099 -0.5793 -0.3680  0.1329
27244SOL    HW286544   1.565   0.972   9.151 -0.7328  0.5181 -1.7755
27245SOL     OW86545   3.342   3.936   8.746  0.4258  0.0917 -0.0282
27245SOL    HW186546   3.247   3.929   8.750  0.1652 -0.6219 -3.6926
27245SOL    HW286547   3.359   4.030   8.742 -0.1006  0.2212  0.5875
27246SOL     OW86548   1.402   2.687  11.250 -0.1304 -0.5826 -0.0084
27246SOL    HW186549   1.327   2.721  11.299  0.5042 -0.8409  1.1629
27246SOL    HW286550   1.475   2.693  11.311  0.3007 -2.7419 -0.2396
27247SOL     OW86551   9.406   9.358   2.903  0.1683  0.6027 -0.4837
27247SOL    HW186552   9.335   9.343   2.841  1.0895 -2.0829 -1.0120
27247SOL    HW286553   9.457   9.277   2.902  2.1962  1.7412  1.2493
27248SOL     OW86554   5.030   8.662  10.087  0.4016  0.1554  0.0922
27248SOL    HW186555   5.121   8.688  10.100  0.3023  1.2477 -1.2088
27248SOL    HW286556   5.030   8.617  10.002 -0.3548  0.6599 -0.1887
27249SOL     OW86557   5.561   8.459   0.325  0.7364  0.5025 -0.2022
27249SOL    HW186558   5.531   8.442   0.236 -0.3636 -0.6921  0.3779
27249SOL    HW286559   5.547   8.377   0.372  0.7694  1.2805  1.2255
27250SOL     OW86560   4.187   6.946   1.089 -0.4038 -0.2956  0.1583
27250SOL    HW186561   4.211   6.994   1.168 -0.9259  0.7178 -0.2698
27250SOL    HW286562   4.096   6.919   1.104 -0.2166 -0.8843  0.2625
27251SOL     OW86563   0.114  11.093   6.062  0.1644  0.1534 -0.0163
27251SOL    HW186564   0.177  11.153   6.102  1.5187 -1.7606  0.9356
27251SOL    HW286565   0.049  11.077   6.130  1.9608 -2.3786  1.2931
27252SOL     OW86566   2.901   7.463   2.094 -0.4948 -0.2093 -0.1642
27252SOL    HW186567   2.949   7.465   2.176 -0.8404 -0.6476  0.0472
27252SOL    HW286568   2.968   7.479   2.027 -0.6216  3.3005  0.3512
27253SOL     OW86569  10.441   7.494   1.662  0.2319  0.0307  0.0594
27253SOL    HW186570  10.518   7.546   1.638  1.2316 -0.9471  1.0057
27253SOL    HW286571  10.406   7.464   1.579 -0.0828  1.7880 -0.4794
27254SOL     OW86572   1.105   6.873   0.454  0.1871  0.0292 -0.0562
27254SOL    HW186573   1.178   6.910   0.404 -0.2496  1.1992  0.1288
27254SOL    HW286574   1.139   6.862   0.543  0.2217  0.3273 -0.0312
27255SOL     OW86575   9.811   5.978   7.517  0.4773  0.2312 -0.3316
27255SOL    HW186576   9.776   5.976   7.606 -1.0550  0.5713 -0.8861
27255SOL    HW286577   9.832   5.887   7.497  1.2173  0.2075  0.5090
27256SOL     OW86578   8.694   4.525   4.141 -0.1724  0.1829 -0.1095
27256SOL    HW186579   8.637   4.551   4.069  0.5923  0.4365 -0.6375
27256SOL    HW286580   8.634   4.496   4.210 -0.9142 -0.9873 -1.1814
27257SOL     OW86581   4.772  10.204   9.938 -0.2084  0.0011 -0.7771
27257SOL    HW186582   4.817  10.123   9.915 -0.5830 -1.5181  3.1040
27257SOL    HW286583   4.778  10.209  10.034 -2.6059  3.1378 -0.6132
27258SOL     OW86584  11.214   6.043   7.302  0.1448 -0.0993 -0.1454
27258SOL    HW186585  11.235   6.007   7.216 -0.3627  0.2004 -0.4000
27258SOL    HW286586  11.216   5.968   7.362  0.5586 -0.2967 -0.4031
27259SOL     OW86587   7.631   3.255   0.383 -0.6047 -0.6597  0.2789
27259SOL    HW186588   7.587   3.299   0.455 -0.2971  0.3597 -0.1378
27259SOL    HW286589   7.724   3.271   0.399 -0.2650 -3.2471  1.4555
27260SOL     OW86590   0.100   5.664   6.756  0.3681 -0.5554  0.0297
27260SOL    HW186591   0.018   5.641   6.713  1.0769 -1.3930 -0.9486
27260SOL    HW286592   0.120   5.752   6.724 -0.8472  0.2610  1.4101
27261SOL     OW86593   6.486   8.531   9.087 -0.3474 -0.2476 -0.6954
27261SOL    HW186594   6.433   8.610   9.081 -0.3091 -0.2368 -0.8799
27261SOL    HW286595   6.571   8.556   9.052 -0.3758 -0.4084 -0.8776
27262SOL     OW86596   4.921  11.525  11.554 -0.1348  0.1684 -0.1695
27262SOL    HW186597   4.985  11.480  11.609  0.1332 -0.4856 -1.0108
27262SOL    HW286598   4.973  11.579  11.495 -0.4082  0.5951 -0.0235
27263SOL     OW86599   6.260   9.702   6.982 -0.3322 -0.1197 -0.2441
27263SOL    HW186600   6.188   9.642   7.000 -0.1348  0.3097  2.4118
27263SOL    HW286601   6.324   9.685   7.051 -0.6582  3.6617  1.2825
27264SOL     OW86602   4.977   6.138   6.756  0.3483  0.1985  0.6782
27264SOL    HW186603   5.051   6.177   6.709 -0.6874  0.4014 -0.8783
27264SOL    HW286604   4.961   6.055   6.710  0.2869 -0.3633  1.6911
27265SOL     OW86605  11.232   4.970   2.243 -0.2772 -0.8944 -0.1757
27265SOL    HW186606  11.190   4.886   2.262 -0.8230 -0.6892 -0.4515
27265SOL    HW286607  11.161   5.034   2.245 -0.0073 -0.5605 -0.7831
27266SOL     OW86608   0.751   2.177   1.525 -0.6299  0.6658 -0.4001
27266SOL    HW186609   0.790   2.090   1.535 -0.5000  0.7803  0.1110
27266SOL    HW286610   0.807   2.220   1.460 -2.4642 -0.6596 -3.0713
27267SOL     OW86611  10.392   5.603   1.640 -0.3591  0.6149 -0.3342
27267SOL    HW186612  10.477   5.647   1.632 -1.2388  2.2432 -1.2765
27267SOL    HW286613  10.329   5.674   1.651 -1.5557 -0.5965  1.2190
27268SOL     OW86614   0.375  10.405   9.600 -0.3026 -0.5735 -0.4093
27268SOL    HW186615   0.303  10.342   9.598  0.4296 -1.4270 -0.5472
27268SOL    HW286616   0.427  10.384   9.522  0.3567 -0.2886 -0.0503
27269SOL     OW86617   7.026  10.739  10.256 -0.0147  0.2865  0.3949
27269SOL    HW186618   6.964  10.741  10.330 -0.5575  2.2648 -0.0525
27269SOL    HW286619   7.030  10.646  10.231 -1.2558 -0.1682  1.7161
27270SOL     OW86620   0.711  12.184   3.877  0.3511 -0.1820 -1.0014
27270SOL    HW186621   0.779  12.117   3.875  1.4921  0.9326 -0.7352
27270SOL    HW286622   0.755  12.264   3.851 -0.4511  0.9011  0.8012
27271SOL     OW86623   8.904   4.251  12.646  0.6382  0.3746 -0.0842
27271SOL    HW186624   8.838   4.298  12.594 -0.5932 -0.4986  0.6218
27271SOL    HW286625   8.960   4.209  12.581  0.0297  0.5158 -0.7182
27272SOL     OW86626   0.322   7.284   5.405  0.0759 -0.0126 -0.1819
27272SOL    HW186627   0.331   7.201   5.359  0.0077  0.0880 -0.3797
27272SOL    HW286628   0.340   7.350   5.338  2.0665  0.1080  0.4116
27273SOL     OW86629   0.908   5.295   4.466  0.3668 -0.1858  0.2449
27273SOL    HW186630   0.926   5.222   4.525  0.0328  1.2509  2.2471
27273SOL    HW286631   0.813   5.295   4.456  0.2968  0.3297  0.8014
27274SOL     OW86632   6.297  11.095   1.658 -0.2118 -0.2760  0.2331
27274SOL    HW186633   6.360  11.162   1.686 -1.0051  0.5465  0.0875
27274SOL    HW286634   6.351  11.027   1.617  0.7295 -0.3667  1.5852
27275SOL     OW86635   7.654  11.636   9.341 -0.4751  0.2734  0.7153
27275SOL    HW186636   7.590  11.565   9.337  0.0691 -0.2067  0.3030
27275SOL    HW286637   7.737  11.594   9.318 -0.0386  0.9178  1.0856
27276SOL     OW86638   7.300   6.179   2.422  0.4387  0.0898  0.3211
27276SOL    HW186639   7.395   6.179   2.436  0.4523 -1.5684  0.3776
27276SOL    HW286640   7.289   6.223   2.338  1.1544  1.2458  0.8008
27277SOL     OW86641   1.016  10.972   0.354 -0.5237 -0.6466  0.5952
27277SOL    HW186642   1.069  10.899   0.322  0.3287 -0.7257  2.1152
27277SOL    HW286643   1.074  11.048   0.348 -0.9477 -0.3358  0.3353
27278SOL     OW86644   1.864   7.689  10.860  0.7832  0.0126  0.0693
27278SOL    HW186645   1.833   7.731  10.779 -2.3543  1.1246  1.6765
27278SOL    HW286646   1.905   7.759  10.910  0.1921 -0.0061  0.5915
27279SOL     OW86647   0.661   5.039  11.314  0.0519 -0.3080  0.1060
27279SOL    HW186648   0.696   5.110  11.260 -0.5414  0.8057  1.1214
27279SOL    HW286649   0.566   5.055  11.315  0.0201 -0.5051  1.1750
27280SOL     OW86650   7.460   1.431   9.364  0.0608  0.0728 -0.3562
27280SOL    HW186651   7.535   1.407   9.310 -0.7564  1.5764 -2.2792
27280SOL    HW286652   7.454   1.526   9.355 -1.1420  0.1588  1.0433
27281SOL     OW86653   1.798   8.938   9.724 -0.2250  0.2728  0.3698
27281SOL    HW186654   1.811   8.920   9.817  1.2895  1.1965  0.3910
27281SOL    HW286655   1.708   8.912   9.706 -0.0863 -1.3223  1.7377
27282SOL     OW86656   3.629   4.721   1.665 -0.4771 -0.0819  0.1759
27282SOL    HW186657   3.703   4.728   1.724 -1.0677  0.5094  0.8788
27282SOL    HW286658   3.568   4.661   1.708 -0.2723 -0.8340 -0.5551
27283SOL     OW86659   6.609  10.076   2.820 -0.0465  0.4792  0.3161
27283SOL    HW186660   6.603  10.087   2.725  2.4235 -0.8951 -0.0789
27283SOL    HW286661   6.622  10.165   2.853 -0.1781  0.9002 -0.7154
27284SOL     OW86662  10.645   6.279   9.541  0.0623 -0.7955 -0.0241
27284SOL    HW186663  10.729   6.275   9.497  1.1393 -0.0871  1.8353
27284SOL    HW286664  10.628   6.372   9.555 -0.1499 -0.9848  1.1502
27285SOL     OW86665   2.665   3.027   9.966 -0.2688 -0.4779  0.1949
27285SOL    HW186666   2.656   3.014  10.061 -1.9995  2.0555  0.5064
27285SOL    HW286667   2.666   3.123   9.956 -0.4089 -0.6879 -2.3656
27286SOL     OW86668   1.775   9.297  11.853 -0.0358  0.4871 -0.5707
27286SOL    HW186669   1.701   9.357  11.852 -1.1496 -0.7271  1.4199
27286SOL    HW286670   1.739   9.214  11.823  0.7800  0.1243 -0.5608
27287SOL     OW86671   1.692  11.382  11.417 -0.2843  0.5765  0.0985
27287SOL    HW186672   1.755  11.452  11.399  2.5767 -1.7244  0.3898
27287SOL    HW286673   1.652  11.406  11.501 -0.1511  2.3415 -0.3184
27288SOL     OW86674   4.562   3.549   3.724 -0.2437  0.3122 -0.0833
27288SOL    HW186675   4.608   3.627   3.694 -0.5947  0.3637 -0.4814
27288SOL    HW286676   4.598   3.532   3.811  2.2414 -0.9725 -1.2394
27289SOL     OW86677   6.726   0.308  10.594  0.3402  0.2472 -0.0532
27289SOL    HW186678   6.809   0.337  10.556  1.0312 -0.7119  0.6829
27289SOL    HW286679   6.680   0.266  10.521 -0.9261  3.4370 -1.3136
27290SOL     OW86680  10.403  11.031   3.847 -0.2624 -0.1909  0.2594
27290SOL    HW186681  10.390  10.938   3.860  0.7170 -0.4024 -0.1523
27290SOL    HW286682  10.469  11.056   3.912  1.3682 -0.3408 -1.2531
27291SOL     OW86683   5.890   4.879   0.134 -0.3822  0.7991 -0.1229
27291SOL    HW186684   5.810   4.871   0.082 -0.3656 -0.3213 -0.0050
27291SOL    HW286685   5.953   4.823   0.090  0.6291  2.3116 -0.6946
27292SOL     OW86686   0.986  11.860   1.044  0.0890 -0.1102 -0.0379
27292SOL    HW186687   1.074  11.897   1.036  0.0436 -0.4130 -3.9963
27292SOL    HW286688   0.935  11.928   1.088  1.6026  1.4088 -0.5341
27293SOL     OW86689  10.378   1.741   7.522  0.4628  0.1373 -0.7904
27293SOL    HW186690  10.365   1.651   7.491  1.4512 -0.8470  1.4361
27293SOL    HW286691  10.470   1.760   7.504  0.5405  0.2804 -0.2581
27294SOL     OW86692   5.628   2.689   8.153  0.2849 -0.0979 -0.1043
27294SOL    HW186693   5.692   2.757   8.135  1.5026 -0.2618  2.9689
27294SOL    HW286694   5.555   2.734   8.195  1.0430 -0.5650  1.8304
27295SOL     OW86695   8.907  11.162   8.212  0.2751 -0.4576 -0.6192
27295SOL    HW186696   8.960  11.227   8.166 -0.5880 -0.8867 -2.3153
27295SOL    HW286697   8.959  11.082   8.208  1.3100  0.0362  1.4154
27296SOL     OW86698   2.034   7.261  11.043  0.6763 -0.0584 -0.3565
27296SOL    HW186699   2.026   7.344  11.090 -0.4431  0.2595 -1.0796
27296SOL    HW286700   2.019   7.283  10.952  0.8398 -0.9859 -0.6185
27297SOL     OW86701   1.480   6.134   1.924 -0.4132 -0.2748 -0.2768
27297SOL    HW186702   1.408   6.075   1.902 -0.1891 -0.6446 -0.0391
27297SOL    HW286703   1.523   6.092   1.999 -0.9886  0.7867  0.6990
27298SOL     OW86704  12.123  11.120   0.978 -0.4909  0.3074  0.0927
27298SOL    HW186705  12.043  11.088   1.019 -1.3259  1.4015 -0.6398
27298SOL    HW286706  12.165  11.173   1.046 -0.7308  0.2831  0.2617
27299SOL     OW86707   8.359   1.460   5.861 -0.3190  0.1308 -0.3227
27299SOL    HW186708   8.338   1.543   5.903  1.2243 -0.7460  2.5066
27299SOL    HW286709   8.452   1.465   5.843 -0.3840 -0.6614 -0.9384
27300SOL     OW86710   3.359   9.275  12.041  0.2365 -0.3528 -0.0057
27300SOL    HW186711   3.410   9.332  11.984  1.6780  1.1856  2.6555
27300SOL    HW286712   3.274   9.319  12.049  0.4428  0.0601 -0.0434
27301SOL     OW86713   5.152   3.595   7.987  0.0521 -0.1461 -0.5530
27301SOL    HW186714   5.073   3.540   7.979  1.4400 -2.2279 -0.7278
27301SOL    HW286715   5.165   3.632   7.900 -0.0044 -0.8707 -0.8732
27302SOL     OW86716   4.296  10.382  11.596  0.4085  0.2318  0.3331
27302SOL    HW186717   4.216  10.331  11.585 -1.1072  2.7600 -1.3810
27302SOL    HW286718   4.350  10.358  11.520  0.9021 -0.7483  0.9704
27303SOL     OW86719   7.395   9.486   9.912 -0.5114  0.5569 -0.2987
27303SOL    HW186720   7.311   9.442   9.900 -0.2923 -0.2335  0.8252
27303SOL    HW286721   7.459   9.426   9.871 -0.4368  0.8956 -0.6809
27304SOL     OW86722   1.197  10.642   1.336  0.3732 -0.3105  0.0664
27304SOL    HW186723   1.156  10.560   1.360 -1.8928  0.4399 -0.9960
27304SOL    HW286724   1.177  10.702   1.408  1.0384 -0.3766  0.3105
27305SOL     OW86725  11.607   2.978   3.155  0.4916 -0.7037 -0.9119
27305SOL    HW186726  11.599   3.045   3.222  1.9333 -1.8271  0.4678
27305SOL    HW286727  11.693   2.992   3.116  1.1889 -2.1975 -0.0149
27306SOL     OW86728   4.378   5.374  10.256 -0.5020  0.4993  0.8421
27306SOL    HW186729   4.425   5.315  10.314  1.4820  0.6937 -0.4547
27306SOL    HW286730   4.409   5.461  10.279 -0.5386  0.6804  0.2336
27307SOL     OW86731   8.867   9.950  11.137  0.8306 -1.0168 -0.0142
27307SOL    HW186732   8.849   9.954  11.043  1.8146 -1.0736 -0.2148
27307SOL    HW286733   8.911  10.033  11.156  1.1315 -1.2453  0.2863
27308SOL     OW86734   5.245  10.590  10.092  0.0897  0.1118 -0.3714
27308SOL    HW186735   5.326  10.586  10.041 -0.2138 -2.5525 -0.8096
27308SOL    HW286736   5.268  10.637  10.172  1.6422  0.7431 -1.1513
27309SOL     OW86737  10.734  11.585   9.884  0.0496  0.2920 -0.6505
27309SOL    HW186738  10.648  11.625   9.886 -0.4468 -0.7172 -0.9295
27309SOL    HW286739  10.728  11.511   9.945  0.0345 -1.0468 -2.1863
27310SOL     OW86740   0.914   2.792   5.102 -0.2318  0.0829 -0.3905
27310SOL    HW186741   0.910   2.763   5.193  0.1557 -2.4442 -1.1149
27310SOL    HW286742   0.861   2.872   5.100  0.3565  0.6080  2.1678
27311SOL     OW86743   6.329   3.905   4.936 -0.4453 -0.5381  0.4476
27311SOL    HW186744   6.251   3.864   4.973 -1.7640  1.5755  0.1867
27311SOL    HW286745   6.386   3.919   5.012 -1.1326 -0.4205  0.9526
27312SOL     OW86746  10.459  10.608   4.555  0.1707  0.4716  0.9444
27312SOL    HW186747  10.539  10.661   4.556 -0.4408  1.4270  1.2207
27312SOL    HW286748  10.485  10.527   4.512  0.4462  2.1309 -2.3890
27313SOL     OW86749   3.130  12.303   9.535  0.4849  0.1835 -0.0173
27313SOL    HW186750   3.160  12.343   9.453  3.2147  1.7718  1.6278
27313SOL    HW286751   3.178  12.349   9.603 -0.7908 -1.9089  2.4455
27314SOL     OW86752   9.301   4.118   1.384 -0.5534 -0.5660  0.1247
27314SOL    HW186753   9.261   4.171   1.453 -0.6097 -2.0135  1.2571
27314SOL    HW286754   9.250   4.037   1.385 -1.4731 -0.1343 -2.6017
27315SOL     OW86755   5.586   8.010   4.546  0.2071  0.4803  0.5380
27315SOL    HW186756   5.620   7.926   4.577 -0.8304 -0.1251  0.0980
27315SOL    HW286757   5.644   8.033   4.473  0.2082 -0.1208  0.3343
27316SOL     OW86758  12.435   5.426  10.189 -0.2794 -0.2821  0.1990
27316SOL    HW186759  12.434   5.338  10.153  0.0143 -0.1478 -0.1449
27316SOL    HW286760  12.347   5.440  10.222 -0.2919 -0.7478  0.3631
27317SOL     OW86761   1.937   6.575   5.179 -0.1514 -0.5616 -0.5657
27317SOL    HW186762   1.986   6.633   5.237  0.5712  0.3524 -2.0535
27317SOL    HW286763   1.845   6.593   5.200  0.0926 -0.5598  0.5775
27318SOL     OW86764  11.111   8.365  12.072  0.2152 -0.3291  0.0069
27318SOL    HW186765  11.197   8.389  12.106 -0.5401  1.3462  0.8323
27318SOL    HW286766  11.105   8.410  11.988 -0.3111  0.5888  0.5169
27319SOL     OW86767   9.938   2.063   3.412  0.6254 -0.0432 -0.3612
27319SOL    HW186768   9.867   2.126   3.400  0.7350  0.0222 -0.6784
27319SOL    HW286769   9.894   1.978   3.411  0.7280 -0.1311 -2.4133
27320SOL     OW86770  10.855   8.561  12.011  0.8928  0.4115  0.0322
27320SOL    HW186771  10.827   8.482  12.056  2.5032  0.2277  0.7547
27320SOL    HW286772  10.892   8.530  11.928 -0.5719  0.6213 -0.7332
27321SOL     OW86773   3.481   0.221   5.652  0.3475  0.1190  0.4250
27321SOL    HW186774   3.434   0.296   5.615  0.0086  1.1618  2.7853
27321SOL    HW286775   3.421   0.147   5.640  0.6722  0.1373 -1.8929
27322SOL     OW86776   8.853   6.382   0.860 -0.1160  0.3701  0.1971
27322SOL    HW186777   8.879   6.307   0.808  0.2228  1.1699 -0.8228
27322SOL    HW286778   8.760   6.371   0.875 -0.1356 -0.0712 -0.2537
27323SOL     OW86779   1.490   4.306   4.728  0.7890 -0.1468  0.2050
27323SOL    HW186780   1.407   4.339   4.694  0.0973 -1.9254  0.0537
27323SOL    HW286781   1.505   4.355   4.808  0.8014  1.8370 -0.9539
27324SOL     OW86782   7.162   6.433   9.858 -0.5792 -0.1528  0.1896
27324SOL    HW186783   7.210   6.359   9.897 -0.1595 -0.4267 -0.8078
27324SOL    HW286784   7.189   6.433   9.766 -1.6664  0.3789 -0.1446
27325SOL     OW86785   3.894   4.981   9.727 -0.1448 -0.5800  0.2164
27325SOL    HW186786   3.871   4.921   9.657  0.3789 -1.9548  1.1865
27325SOL    HW286787   3.956   5.042   9.687  0.0603 -1.2725 -0.5373
27326SOL     OW86788   7.859   5.760   4.603 -0.1568  0.1849  0.2627
27326SOL    HW186789   7.836   5.770   4.696 -1.3041 -0.7773  0.1024
27326SOL    HW286790   7.793   5.811   4.556  0.2990  0.4993 -0.0494
27327SOL     OW86791   4.603   1.856  12.285  0.1303 -0.3392  0.4435
27327SOL    HW186792   4.591   1.807  12.204  0.2070  1.1690 -0.5234
27327SOL    HW286793   4.664   1.926  12.261 -1.0816  1.0799  1.3988
27328SOL     OW86794   1.619   3.129   9.272  0.1075 -0.3887  0.4065
27328SOL    HW186795   1.553   3.192   9.245 -0.0187 -0.6663  0.0582
27328SOL    HW286796   1.693   3.182   9.301  0.4074 -0.0747 -0.8740
27329SOL     OW86797   0.216  10.687   5.342  0.0111 -0.1040 -0.1925
27329SOL    HW186798   0.221  10.766   5.397 -1.0720  0.4957 -0.9100
27329SOL    HW286799   0.210  10.615   5.405  2.3608  0.2197  0.5061
27330SOL     OW86800   8.231   1.924   8.680 -0.1687  0.0507 -0.4104
27330SOL    HW186801   8.324   1.939   8.664 -0.3280  0.4056 -1.0509
27330SOL    HW286802   8.222   1.829   8.685  0.4367  0.0399  1.0542
27331SOL     OW86803   9.746   3.487   1.847  0.2772  0.2417  0.1342
27331SOL    HW186804   9.718   3.500   1.756  1.0863 -1.0986 -0.3394
27331SOL    HW286805   9.733   3.573   1.889 -2.9503  0.1684 -0.4248
27332SOL     OW86806   6.379   7.982   4.056 -0.1570 -0.5418 -0.0336
27332SOL    HW186807   6.437   7.931   4.000  1.1795 -1.9859  2.4886
27332SOL    HW286808   6.301   7.927   4.066 -1.0102  0.3455 -1.5304
27333SOL     OW86809   7.449   2.047  11.476  0.8340  0.0378  0.6151
27333SOL    HW186810   7.481   1.992  11.548  2.5215 -0.6666 -0.5835
27333SOL    HW286811   7.523   2.105  11.456  0.1433  0.6928 -0.0954
27334SOL     OW86812   9.886   2.459   9.316 -0.3926  0.1374 -1.1278
27334SOL    HW186813   9.854   2.546   9.339  1.4150  0.3113  1.1301
27334SOL    HW286814   9.808   2.403   9.322 -1.0787  1.1681  0.1525
27335SOL     OW86815   5.513  10.026  12.217  0.2809  0.6143  0.0013
27335SOL    HW186816   5.608  10.021  12.201  0.3957  0.7628  0.5946
27335SOL    HW286817   5.499   9.969  12.292  0.3584  2.7063  1.7285
27336SOL     OW86818   8.755   7.735   2.658  0.1706 -0.2121 -0.1999
27336SOL    HW186819   8.843   7.767   2.678 -0.2327  0.1750  1.0699
27336SOL    HW286820   8.766   7.640   2.652  0.9297 -0.0704 -1.5706
27337SOL     OW86821   8.058   3.059   2.153 -0.0437  0.6703 -0.2324
27337SOL    HW186822   8.146   3.027   2.171 -0.4133 -0.0543  0.3697
27337SOL    HW286823   8.060   3.152   2.178 -0.0308  0.1469  1.9571
27338SOL     OW86824   1.847   6.442   5.572  0.0187  0.4416  0.2676
27338SOL    HW186825   1.766   6.458   5.524  0.2042  2.7800  0.6007
27338SOL    HW286826   1.883   6.362   5.534 -2.1907 -0.3942 -0.2017
27339SOL     OW86827   4.009   5.843   0.256 -0.7181  0.0417 -0.8347
27339SOL    HW186828   3.958   5.782   0.202 -0.3249 -0.5762 -0.5206
27339SOL    HW286829   3.961   5.925   0.251 -1.6181 -0.4621 -0.7449
27340SOL     OW86830   1.108  11.088   6.679  0.3983 -0.6183 -0.3300
27340SOL    HW186831   1.147  11.053   6.759 -0.7893  0.0702  0.5806
27340SOL    HW286832   1.049  11.019   6.649 -0.8918 -0.0011  0.6941
27341SOL     OW86833  11.578  12.354   4.158 -0.3155  0.4226  0.5934
27341SOL    HW186834  11.503  12.413   4.156  0.6575  1.9420  3.2840
27341SOL    HW286835  11.631  12.385   4.232  2.2644 -1.4439 -0.3188
27342SOL     OW86836  10.425  10.773   2.872  0.2008  0.6316 -0.0933
27342SOL    HW186837  10.475  10.753   2.793  0.4775 -0.5531  0.3531
27342SOL    HW286838  10.396  10.687   2.903 -0.4941  1.1472  0.7034
27343SOL     OW86839   8.392   9.707   1.261  0.4569  0.3736  0.1653
27343SOL    HW186840   8.327   9.637   1.261 -0.2035  0.8813  2.6455
27343SOL    HW286841   8.341   9.786   1.243  0.6986  0.5486  0.2503
27344SOL     OW86842   3.084   3.031   2.965 -0.0839  0.2206  0.4306
27344SOL    HW186843   3.153   3.028   2.899 -0.2052 -1.1115  0.3293
27344SOL    HW286844   3.022   3.096   2.932 -0.5605 -1.0064 -1.2266
27345SOL     OW86845   5.098   1.125  11.386 -0.1120 -0.0219 -0.1115
27345SOL    HW186846   5.154   1.060  11.428 -1.5305 -1.0005  0.3234
27345SOL    HW286847   5.111   1.110  11.292 -0.6015 -1.1071 -0.0172
27346SOL     OW86848   0.972   9.033   2.336  0.5097 -0.2501  0.1528
27346SOL    HW186849   0.910   8.961   2.334  1.2566 -0.9153  0.3122
27346SOL    HW286850   0.954   9.083   2.257 -0.9940  0.2480  0.7683
27347SOL     OW86851   8.331   8.291   2.879  0.1323  0.1145  0.2763
27347SOL    HW186852   8.377   8.364   2.922  1.7859 -1.2314  0.9333
27347SOL    HW286853   8.297   8.239   2.951 -0.2985 -0.2121 -0.1625
27348SOL     OW86854   0.510  12.356   6.582 -0.4519 -0.4038 -0.0892
27348SOL    HW186855   0.592  12.385   6.623 -0.2075 -0.9209 -0.2011
27348SOL    HW286856   0.476  12.290   6.642 -0.4765 -0.6237 -0.3483
27349SOL     OW86857  11.039  10.821  10.602 -0.2360  0.7702 -0.3293
27349SOL    HW186858  10.975  10.754  10.579  0.6165 -0.2861  0.3046
27349SOL    HW286859  11.010  10.855  10.687 -1.5355  2.3478 -1.3393
27350SOL     OW86860  11.577   9.502  12.437 -0.0074 -0.6237 -0.1599
27350SOL    HW186861  11.559   9.593  12.411  1.4001 -0.3456 -0.2921
27350SOL    HW286862  11.587   9.455  12.355 -1.2097 -1.0218 -0.0923
27351SOL     OW86863   5.161   7.743   8.376  0.4557 -0.3583  0.1487
27351SOL    HW186864   5.198   7.816   8.426  1.9038 -0.8785 -0.1383
27351SOL    HW286865   5.127   7.683   8.443  0.0890  0.1353  0.4126
27352SOL     OW86866  12.570   9.835  10.415  0.2830 -0.3876 -0.2211
27352SOL    HW186867  12.507   9.902  10.442  0.2472 -0.4707 -0.0994
27352SOL    HW286868  12.516   9.758  10.397  0.5127 -1.0831  1.8168
27353SOL     OW86869   1.468   7.016  10.244 -0.2122 -0.2855  0.0668
27353SOL    HW186870   1.402   7.085  10.241  0.2064  0.1692  1.0745
27353SOL    HW286871   1.529   7.038  10.173  0.0449  0.5194  0.5217
27354SOL     OW86872   3.423   4.390   6.467 -0.0051  0.0814  0.3702
27354SOL    HW186873   3.518   4.382   6.459  0.3463  3.6226 -0.7057
27354SOL    HW286874   3.391   4.396   6.377 -0.7919  1.9579  0.7080
27355SOL     OW86875   8.298   6.460   2.461  0.1340 -0.2649 -0.5330
27355SOL    HW186876   8.205   6.479   2.449 -0.1261 -0.8899  0.3424
27355SOL    HW286877   8.305   6.431   2.552  1.5108  1.6258  0.0335
27356SOL     OW86878   4.134  10.725   0.594  0.1480 -0.5160 -0.3600
27356SOL    HW186879   4.207  10.683   0.548  1.9455 -0.3908  2.1608
27356SOL    HW286880   4.135  10.816   0.562  0.7276 -0.6557 -0.7687
27357SOL     OW86881   5.291   1.427  10.361 -0.7192  0.1866 -0.0905
27357SOL    HW186882   5.341   1.347  10.350 -0.9968  0.0133 -0.1053
27357SOL    HW286883   5.206   1.409  10.320 -0.2997  0.9751 -1.3615
27358SOL     OW86884  12.061   7.485   8.028  0.0369  0.2359  0.2590
27358SOL    HW186885  11.985   7.427   8.037 -0.9519  1.3808 -0.3756
27358SOL    HW286886  12.062   7.536   8.109 -1.9383  2.5277 -1.0222
27359SOL     OW86887   1.237   2.331   3.082  0.1060  0.4129  0.2743
27359SOL    HW186888   1.173   2.392   3.119  1.1596  1.2902  0.7266
27359SOL    HW286889   1.212   2.245   3.117 -2.0164  0.3562 -1.1884
27360SOL     OW86890   3.903   2.545   9.035  0.0530 -0.4088  0.4019
27360SOL    HW186891   3.950   2.462   9.048  0.4794 -0.2665 -0.1856
27360SOL    HW286892   3.831   2.522   8.977 -0.7369 -0.6685  1.4675
27361SOL     OW86893   8.599   4.280   1.039 -0.5544  0.1748 -0.2969
27361SOL    HW186894   8.528   4.338   1.011 -0.9371  0.3854  1.0626
27361SOL    HW286895   8.601   4.288   1.134  0.3768 -0.9017 -0.2043
27362SOL     OW86896   9.368   1.541  12.109 -0.3537  0.0467 -0.7023
27362SOL    HW186897   9.380   1.533  12.204 -0.3690  0.1430 -0.6928
27362SOL    HW286898   9.424   1.473  12.072  0.6093  0.8058 -0.6853
27363SOL     OW86899   1.417   9.375   5.524 -0.1125  0.3105  0.0568
27363SOL    HW186900   1.355   9.356   5.594 -0.3158  1.1929  0.1320
27363SOL    HW286901   1.370   9.433   5.465  0.3008  0.1571 -0.4301
27364SOL     OW86902   5.953   6.804  10.605  0.0977  0.4206 -1.1606
27364SOL    HW186903   5.978   6.880  10.553  1.3356 -0.6908 -2.2673
27364SOL    HW286904   5.955   6.731  10.543 -0.6110 -0.5954 -0.0344
27365SOL     OW86905   2.129   2.602   2.173  0.2574 -0.0204  0.2828
27365SOL    HW186906   2.111   2.533   2.237 -2.6329  0.6555  0.3333
27365SOL    HW286907   2.089   2.571   2.092  5.3123 -1.6653 -1.9801
27366SOL     OW86908   1.900   1.793  10.000 -0.3897 -0.3361 -0.1340
27366SOL    HW186909   1.984   1.828  10.030 -1.4028  0.0420  2.5779
27366SOL    HW286910   1.864   1.861   9.944  0.6451 -0.0516 -0.4712
27367SOL     OW86911   8.834   2.844   8.447  0.5113 -0.2536 -0.2038
27367SOL    HW186912   8.816   2.803   8.532  0.6054  1.2843  0.6003
27367SOL    HW286913   8.930   2.850   8.444  0.4724  0.8165  0.1740
27368SOL     OW86914   0.583   5.428   0.969  0.4869 -0.0021 -0.2105
27368SOL    HW186915   0.571   5.460   1.059 -0.6838  0.2593 -0.4490
27368SOL    HW286916   0.675   5.401   0.966 -0.2469 -3.3669  2.1368
27369SOL     OW86917   5.058   1.225   2.006  0.4067  0.5633  0.2077
27369SOL    HW186918   4.973   1.229   2.050  0.5754 -0.5555  0.6711
27369SOL    HW286919   5.041   1.176   1.926  0.1888  2.2291 -0.7997
27370SOL     OW86920   2.578  11.723   6.144  1.1838  0.0740 -0.0685
27370SOL    HW186921   2.653  11.762   6.188  0.1849  0.5777  1.2628
27370SOL    HW286922   2.526  11.685   6.214  0.8754 -1.5167 -1.0937
27371SOL     OW86923   4.809  10.752   5.317 -0.3687 -0.0763 -0.0663
27371SOL    HW186924   4.764  10.814   5.373  1.2320  0.3742  0.7673
27371SOL    HW286925   4.855  10.806   5.253  0.4776 -0.4357  0.2354
27372SOL     OW86926   0.577  12.408  12.060 -0.0112  0.2271  0.6350
27372SOL    HW186927   0.619  12.338  12.010 -0.9712 -2.5288  3.3236
27372SOL    HW286928   0.486  12.406  12.032  0.0537  0.7810  0.3716
27373SOL     OW86929   9.686  11.544   2.383  0.1893  0.3384 -0.2233
27373SOL    HW186930   9.758  11.511   2.329  1.7913  0.2872  1.8578
27373SOL    HW286931   9.672  11.634   2.353  1.4856  0.5215 -0.3027
27374SOL     OW86932   9.233   2.564   4.905  0.0300 -0.3201  0.1483
27374SOL    HW186933   9.278   2.480   4.911 -1.0925 -0.8798  4.7410
27374SOL    HW286934   9.151   2.545   4.859  0.8531 -1.1491 -1.0027
27375SOL     OW86935  10.188   3.450   2.834  0.3997  0.4214 -0.0480
27375SOL    HW186936  10.179   3.463   2.928 -0.7026 -1.1873  0.1005
27375SOL    HW286937  10.201   3.356   2.823 -0.0025  0.5078 -1.5317
27376SOL     OW86938   9.516  10.055   5.302  0.0924  0.4390  0.0608
27376SOL    HW186939   9.505  10.019   5.390  0.3653 -0.3070 -0.1962
27376SOL    HW286940   9.606  10.088   5.301  0.9268 -1.6672 -0.6340
27377SOL     OW86941   9.154   5.073   1.421 -0.3225 -0.9936 -0.1046
27377SOL    HW186942   9.177   5.162   1.395 -0.2791 -0.3195  2.1007
27377SOL    HW286943   9.081   5.083   1.482 -1.1394 -2.5795 -0.7574
27378SOL     OW86944  11.426   3.435   5.551  0.7455  0.6832  0.7205
27378SOL    HW186945  11.453   3.352   5.592 -0.5526  0.0407  0.3400
27378SOL    HW286946  11.362   3.471   5.612  1.0917  1.2673  0.7404
27379SOL     OW86947   2.847   8.911  10.461 -0.4279  0.2388 -0.1561
27379SOL    HW186948   2.906   8.840  10.486  1.7199  1.8130 -0.3726
27379SOL    HW286949   2.798   8.877  10.386  0.3839 -1.0757 -0.1231
27380SOL     OW86950  10.919   5.247  10.335  0.2311  0.4984 -0.0141
27380SOL    HW186951  10.916   5.174  10.273 -0.9463 -0.7848  1.4765
27380SOL    HW286952  10.829   5.254  10.367  0.5505  1.9714  0.6109
27381SOL     OW86953   5.963  12.377   1.062  0.1872  0.0897  0.1453
27381SOL    HW186954   6.051  12.405   1.089 -0.9478  1.1734  3.0310
27381SOL    HW286955   5.950  12.292   1.104 -0.2040 -0.0439 -0.2323
27382SOL     OW86956   0.316   1.194  12.361  0.1597 -0.3972 -0.2425
27382SOL    HW186957   0.330   1.139  12.439 -0.4171 -3.3330 -2.0351
27382SOL    HW286958   0.237   1.158  12.321 -0.0286  1.5756 -1.7531
27383SOL     OW86959   7.732   0.404  10.876  0.3195 -0.1491 -0.1907
27383SOL    HW186960   7.681   0.476  10.839  0.5204  0.8950  1.4795
27383SOL    HW286961   7.822   0.421  10.848  0.2001 -0.3855 -0.7283
27384SOL     OW86962   1.764   1.099  11.548 -0.2871 -0.5719 -0.2688
27384SOL    HW186963   1.687   1.090  11.605  0.9242 -0.3751  1.4724
27384SOL    HW286964   1.751   1.033  11.480 -0.5160 -2.7876  1.7777
27385SOL     OW86965   4.845   4.863   7.488  0.0603 -0.1393 -0.5397
27385SOL    HW186966   4.765   4.811   7.490  0.8146 -1.3445  1.3758
27385SOL    HW286967   4.846   4.909   7.572 -0.7574  3.4054 -2.2854
27386SOL     OW86968   0.389   3.338   5.722 -0.0004 -0.0542 -0.1777
27386SOL    HW186969   0.435   3.409   5.677  2.0327 -1.4163 -0.3781
27386SOL    HW286970   0.443   3.320   5.799  0.0397 -1.9376 -0.5932
27387SOL     OW86971   8.774   6.098   7.982 -0.6831  0.0230 -1.0110
27387SOL    HW186972   8.862   6.086   8.016 -0.4385  0.9334 -1.3007
27387SOL    HW286973   8.768   6.038   7.907  0.0591  0.7027 -1.6342
27388SOL     OW86974   4.667   9.701  10.699  0.1242 -0.2608 -0.2618
27388SOL    HW186975   4.571   9.703  10.695  0.1649  0.0463 -1.2941
27388SOL    HW286976   4.688   9.614  10.734 -0.5358 -0.1132  0.5352
27389SOL     OW86977   2.755   4.660   5.181 -0.0371  0.7047 -0.8614
27389SOL    HW186978   2.830   4.718   5.190  0.1231  0.3738  0.0729
27389SOL    HW286979   2.793   4.574   5.162 -0.0012  0.1073  1.5083
27390SOL     OW86980   2.926   4.630   3.104 -0.4026  0.0404 -0.2389
27390SOL    HW186981   2.854   4.675   3.148 -0.2282  0.9637 -0.8530
27390SOL    HW286982   2.984   4.701   3.077  0.5634 -0.6719 -0.0556
27391SOL     OW86983   9.005   2.701  10.023  0.4863  0.2222 -0.6498
27391SOL    HW186984   8.912   2.723  10.023  1.0723  3.1543  0.8438
27391SOL    HW286985   9.021   2.666   9.936 -1.9251 -0.0879 -1.0486
27392SOL     OW86986   1.747   5.121  10.199 -0.4221  0.2655  0.0307
27392SOL    HW186987   1.773   5.063  10.270 -0.0613  1.2134  0.7057
27392SOL    HW286988   1.687   5.184  10.239  1.5567  2.2493  0.1185
27393SOL     OW86989   5.356   9.719  10.090  0.0933  0.9936  0.1947
27393SOL    HW186990   5.326   9.670  10.167  0.4442 -1.2308 -1.0021
27393SOL    HW286991   5.393   9.799  10.126  1.0119 -0.3478  2.4384
27394SOL     OW86992   4.037   3.620   1.175 -0.1100  0.2574 -0.1370
27394SOL    HW186993   4.078   3.648   1.257 -0.2758 -0.0347  0.0479
27394SOL    HW286994   4.010   3.529   1.192  2.4096 -0.8571 -1.4368
27395SOL     OW86995  11.947   8.226  10.747  0.0194  0.3513  0.2684
27395SOL    HW186996  11.953   8.286  10.672  1.1549 -0.6605 -0.5065
27395SOL    HW286997  11.860   8.241  10.783 -0.6121  0.8106 -1.3347
27396SOL     OW86998   1.269   0.531  12.507  0.0874 -0.2586  0.1292
27396SOL    HW186999   1.243   0.561  12.420 -0.0598 -0.0139  0.2566
27396SOL    HW287000   1.333   0.595  12.536  0.0642 -0.2862  0.2416
27397SOL     OW87001   6.515   9.144   1.927 -0.1903 -0.2849 -0.4263
27397SOL    HW187002   6.504   9.068   1.870  1.5064 -0.8727 -0.0205
27397SOL    HW287003   6.559   9.209   1.873 -1.3334  0.3177 -0.6695
27398SOL     OW87004   9.345  10.997   9.347  0.1575 -0.6144 -0.1484
27398SOL    HW187005   9.434  11.008   9.314  0.0737  1.6213  0.2155
27398SOL    HW287006   9.289  11.022   9.274 -0.1067 -0.2297  0.1779
27399SOL     OW87007   6.954   1.262   6.686 -0.1483 -0.5153  0.2781
27399SOL    HW187008   6.974   1.172   6.661 -0.5628 -0.0716 -1.8343
27399SOL    HW287009   6.858   1.266   6.687 -0.1861  0.3309 -1.5933
27400SOL     OW87010   0.982   9.289   4.249 -0.5578 -0.1409 -0.5912
27400SOL    HW187011   1.056   9.231   4.232 -1.1322 -1.4948  1.1787
27400SOL    HW287012   0.920   9.269   4.179  0.6970  1.0090 -2.0909
27401SOL     OW87013   9.221   0.072   6.798 -0.0298  0.0647  0.3198
27401SOL    HW187014   9.232   0.164   6.821  0.0125 -0.5742  3.2914
27401SOL    HW287015   9.193   0.073   6.706 -1.2751  3.0920  0.6144
27402SOL     OW87016  11.445  11.369  11.467  0.0693 -0.2048 -0.3687
27402SOL    HW187017  11.535  11.372  11.500  0.1209 -1.8459 -0.2609
27402SOL    HW287018  11.441  11.438  11.401  1.7428 -0.7920 -1.1464
27403SOL     OW87019   0.230  10.119  12.329 -0.1294 -0.0412 -0.1633
27403SOL    HW187020   0.228  10.086  12.239  0.9951 -1.6380  0.3557
27403SOL    HW287021   0.200  10.045  12.382 -0.5811  0.8136  0.8102
27404SOL     OW87022   8.868   7.502   5.784  0.1394  0.1114  0.2496
27404SOL    HW187023   8.885   7.411   5.756 -1.5073 -0.2893  0.4451
27404SOL    HW287024   8.784   7.497   5.829 -1.1778  2.1116 -1.7878
27405SOL     OW87025   2.725   2.392   1.497 -0.3744  0.3604  0.0122
27405SOL    HW187026   2.805   2.353   1.533 -0.5451  0.7345  0.8049
27405SOL    HW287027   2.665   2.398   1.572 -1.1957 -0.0261 -0.5967
27406SOL     OW87028   1.309  12.085   0.806  0.0385  0.3272 -0.5024
27406SOL    HW187029   1.231  12.113   0.853  1.0521  1.0138  0.8489
27406SOL    HW287030   1.286  11.999   0.771 -1.4388  0.6737 -0.4560
27407SOL     OW87031   6.797   1.759   7.762 -0.1459  0.1767 -0.6573
27407SOL    HW187032   6.807   1.726   7.673 -2.3118 -0.2233 -0.7937
27407SOL    HW287033   6.703   1.758   7.778 -0.0586  2.9217  0.6226
27408SOL     OW87034  12.343   7.813   5.181  0.8285 -0.1371 -0.1067
27408SOL    HW187035  12.310   7.776   5.263 -0.4770  1.6393  0.2267
27408SOL    HW287036  12.438   7.818   5.193  0.7627 -0.9100  0.8456
27409SOL     OW87037   0.954   9.986   4.601  0.2567 -0.0828  0.5681
27409SOL    HW187038   0.930   9.956   4.688 -0.3296  0.4196  0.5858
27409SOL    HW287039   0.963   9.906   4.549  2.6789 -0.5543  1.5701
27410SOL     OW87040   4.338   1.022   0.613 -0.1435  0.3488 -0.2304
27410SOL    HW187041   4.293   1.105   0.632  1.3186  0.8920  1.0717
27410SOL    HW287042   4.287   0.984   0.541 -0.5810  2.6029 -1.2252
27411SOL     OW87043   0.985  11.636   1.743  0.0089 -0.2135 -0.3186
27411SOL    HW187044   0.895  11.621   1.771 -0.3844  1.8020 -0.3193
27411SOL    HW287045   1.039  11.587   1.805 -1.0706 -3.8372 -1.9725
27412SOL     OW87046   8.428   8.344   0.220  0.5522  0.4170  0.0518
27412SOL    HW187047   8.380   8.263   0.238 -1.1838  1.3010 -0.4930
27412SOL    HW287048   8.497   8.345   0.287  0.2921 -1.2357  0.4018
27413SOL     OW87049  10.024  10.355  11.747  0.3768 -0.3360 -0.3156
27413SOL    HW187050  10.067  10.376  11.664 -0.8100  0.6658 -0.7054
27413SOL    HW287051  10.046  10.263  11.763  1.1055 -0.3695 -1.4417
27414SOL     OW87052   4.994  11.213   5.955  0.6757 -0.8127  0.8009
27414SOL    HW187053   4.938  11.190   5.880 -0.6484  1.9336  0.8123
27414SOL    HW287054   5.081  11.224   5.917  0.1921 -0.2980 -0.2091
27415SOL     OW87055  10.565   0.427  10.923 -0.0280  0.0666  0.2989
27415SOL    HW187056  10.549   0.521  10.913  0.4105  0.1585  0.4358
27415SOL    HW287057  10.478   0.387  10.918 -0.0677  0.2646 -2.1228
27416SOL     OW87058   2.286   2.810  10.649 -0.6199 -0.2351  0.6208
27416SOL    HW187059   2.306   2.795  10.742 -0.3532 -0.6527  0.4985
27416SOL    HW287060   2.363   2.778  10.602 -1.2354 -1.1329  0.1877
27417SOL     OW87061   7.310   7.933   0.395  0.1186  0.3779  0.0921
27417SOL    HW187062   7.285   8.019   0.427 -0.3069  0.8542 -1.4312
27417SOL    HW287063   7.282   7.932   0.304 -0.4754 -1.6216  0.2452
27418SOL     OW87064   5.235  11.294   3.434 -0.1757 -0.4149 -0.0303
27418SOL    HW187065   5.170  11.343   3.485  1.2709 -0.0155  1.4998
27418SOL    HW287066   5.200  11.205   3.430 -0.0739 -0.6200  2.2382
27419SOL     OW87067   1.661   0.803   1.786 -0.0600  0.0440  0.3059
27419SOL    HW187068   1.746   0.808   1.830 -0.1550  0.1095  0.4817
27419SOL    HW287069   1.601   0.848   1.845 -0.6988 -2.0380  1.3218
27420SOL     OW87070   9.686   1.622   1.632  0.1531  0.3737  0.3665
27420SOL    HW187071   9.706   1.679   1.706 -0.6786 -0.1958  1.0458
27420SOL    HW287072   9.590   1.615   1.632  0.2470 -2.3126  1.3453
27421SOL     OW87073   9.843  12.091   3.926 -0.3425 -0.0642 -0.3573
27421SOL    HW187074   9.927  12.136   3.915 -1.0016  0.9438 -1.5482
27421SOL    HW287075   9.865  11.998   3.917  0.7037  0.1602 -0.2959
27422SOL     OW87076   7.144  12.049   4.046  0.6107 -0.4382 -0.2661
27422SOL    HW187077   7.151  11.955   4.065 -2.2534 -0.8596 -0.8316
27422SOL    HW287078   7.052  12.070   4.064  0.3537  1.5012 -3.2367
27423SOL     OW87079   0.830   4.412   6.101  0.3955  0.3392  0.1877
27423SOL    HW187080   0.838   4.507   6.108 -0.0802  0.3915  0.1116
27423SOL    HW287081   0.860   4.379   6.186  2.3554  0.4228 -0.4245
27424SOL     OW87082  10.532   0.516   2.213 -0.1573  0.1080  0.3849
27424SOL    HW187083  10.617   0.485   2.244 -0.2336  0.8031  1.3495
27424SOL    HW287084  10.474   0.440   2.221  0.2198 -0.1790  0.3804
27425SOL     OW87085   7.347   5.233  12.537  0.6540 -0.4162 -0.1621
27425SOL    HW187086   7.254   5.214  12.528  0.8286 -1.5229  0.2007
27425SOL    HW287087   7.355   5.326  12.518 -0.3749 -0.5286 -1.2359
27426SOL     OW87088   0.829   3.621   4.446 -0.4907 -0.1662  0.0376
27426SOL    HW187089   0.834   3.603   4.539 -0.4286  1.4338  0.3746
27426SOL    HW287090   0.919   3.644   4.421 -0.8872  1.5476  0.0802
27427SOL     OW87091   6.287   6.877  10.317  0.3882 -0.1689  0.3830
27427SOL    HW187092   6.268   6.964  10.282  1.7451  0.1880  0.4871
27427SOL    HW287093   6.288   6.820  10.240 -1.3126 -0.2824  0.3950
27428SOL     OW87094   8.559  12.372   6.457  0.0220  0.0228 -0.2687
27428SOL    HW187095   8.584  12.340   6.544  1.2601 -1.7015 -1.2122
27428SOL    HW287096   8.508  12.301   6.418  0.1585  0.4548 -1.2696
27429SOL     OW87097   1.517   3.488   1.262  0.0338 -0.4919  0.0340
27429SOL    HW187098   1.465   3.411   1.238 -0.0105 -0.7828  1.0437
27429SOL    HW287099   1.607   3.458   1.254  0.0159 -0.6924  0.5393
27430SOL     OW87100   1.750   4.244  11.682 -0.0957  0.0443 -0.4211
27430SOL    HW187101   1.764   4.327  11.727 -0.6508  0.5070 -1.0843
27430SOL    HW287102   1.656   4.241  11.666 -0.2192 -1.1457  0.3979
27431SOL     OW87103   5.125  12.442  12.193  0.1787 -0.0896 -0.0904
27431SOL    HW187104   5.080  12.359  12.209 -1.8595  0.8807 -0.4863
27431SOL    HW287105   5.215  12.416  12.175  0.5619 -1.9449  3.5145
27432SOL     OW87106   1.731   7.321  12.602 -0.3588  0.5259  0.1364
27432SOL    HW187107   1.758   7.296  12.690  0.0249  0.8298  0.1088
27432SOL    HW287108   1.813   7.347  12.559 -0.3686 -0.7198 -0.6753
27433SOL     OW87109   4.334   5.653   5.969  0.0473 -0.2695 -0.1189
27433SOL    HW187110   4.240   5.637   5.973  0.2944 -1.5831  1.0873
27433SOL    HW287111   4.359   5.621   5.882 -0.4132 -1.1462  0.0624
27434SOL     OW87112   6.393   6.864  11.450 -0.1365 -0.1211 -0.1619
27434SOL    HW187113   6.387   6.783  11.500 -0.3544 -0.3745 -0.5962
27434SOL    HW287114   6.303   6.892  11.438 -0.3773 -1.7331 -3.1021
27435SOL     OW87115   1.993   7.634   6.190 -0.1671  0.3945  0.4207
27435SOL    HW187116   1.990   7.540   6.175 -0.0706  0.4302  0.1744
27435SOL    HW287117   2.077   7.650   6.234  0.0502  0.4276  0.0043
27436SOL     OW87118   1.072   4.346   7.712  0.8899 -0.2015  0.1750
27436SOL    HW187119   1.051   4.258   7.744 -0.3518  0.3290  0.8921
27436SOL    HW287120   1.044   4.345   7.620 -0.2691 -0.2046  0.5085
27437SOL     OW87121   4.907   6.350   6.323  0.2274  0.7263 -0.0850
27437SOL    HW187122   4.970   6.279   6.311  0.8077  1.2231 -0.0272
27437SOL    HW287123   4.825   6.306   6.346  0.5168  0.0655 -0.3041
27438SOL     OW87124   7.041   7.570  10.212 -0.3769 -0.1503 -0.1291
27438SOL    HW187125   6.983   7.577  10.288  0.5089  0.3022  0.5189
27438SOL    HW287126   6.985   7.534  10.143 -1.5261  0.6036  0.3687
27439SOL     OW87127  10.116   8.931   3.787  0.5026  0.3971  0.1631
27439SOL    HW187128  10.080   9.014   3.819 -2.0157 -0.3438 -0.4708
27439SOL    HW287129  10.044   8.892   3.738  1.9702 -1.6948 -0.4489
27440SOL     OW87130   8.176   0.470   7.176 -0.4901  0.3727  0.1447
27440SOL    HW187131   8.226   0.528   7.234 -1.7897  0.0502  1.6389
27440SOL    HW287132   8.235   0.455   7.102  1.4843  0.3116  1.6407
27441SOL     OW87133   1.338  10.539  12.301 -0.1964 -0.1396 -0.1716
27441SOL    HW187134   1.388  10.613  12.337 -0.3034  0.6702 -1.6213
27441SOL    HW287135   1.381  10.462  12.337  0.9725  0.5867  0.0620
27442SOL     OW87136   9.767   9.356   4.708 -0.0613  0.0974  0.2844
27442SOL    HW187137   9.724   9.337   4.625  0.6619  0.5114 -0.1903
27442SOL    HW287138   9.697   9.388   4.765 -0.6939 -0.8580  0.0674
27443SOL     OW87139   7.108   8.144  10.732  0.7910 -0.1125  0.1377
27443SOL    HW187140   7.101   8.070  10.793  1.6146  1.4884  2.2900
27443SOL    HW287141   7.027   8.192  10.743 -0.0335 -0.9468 -1.7446
27444SOL     OW87142   6.654   7.323   9.324  0.7423 -0.0786 -0.1218
27444SOL    HW187143   6.622   7.321   9.234  2.0047  2.0050 -0.6910
27444SOL    HW287144   6.580   7.355   9.376  0.2835 -0.4237 -0.5556
27445SOL     OW87145   6.376   6.725   1.269 -0.6093  0.4778 -0.5422
27445SOL    HW187146   6.364   6.693   1.358  1.2355 -1.5556 -0.9697
27445SOL    HW287147   6.470   6.726   1.256 -0.8034  1.6732 -2.1911
27446SOL     OW87148   0.996   0.714  10.777 -0.1068  0.3654  0.8597
27446SOL    HW187149   0.939   0.777  10.733 -0.9062 -0.2147  1.0436
27446SOL    HW287150   0.980   0.727  10.870 -1.8854 -1.4877  0.8978
27447SOL     OW87151  10.395   2.740   9.525  0.0207  0.8022  0.4820
27447SOL    HW187152  10.467   2.715   9.582 -0.7392 -0.0664  1.0881
27447SOL    HW287153  10.391   2.836   9.531  0.6161  0.7935  1.0483
27448SOL     OW87154  11.768   7.436   4.529 -0.6785  0.5438 -0.0041
27448SOL    HW187155  11.803   7.350   4.507  0.6369  0.3078  2.5642
27448SOL    HW287156  11.807   7.495   4.465 -0.7505 -0.6100 -1.1430
27449SOL     OW87157   1.264   6.205   0.292 -0.2010 -0.2515 -0.1874
27449SOL    HW187158   1.213   6.133   0.330 -0.5109  0.0525 -0.0116
27449SOL    HW287159   1.199   6.257   0.244  0.2695 -0.9172 -1.6024
27450SOL     OW87160   6.751   2.655   7.665  0.1595 -0.2314 -0.2100
27450SOL    HW187161   6.842   2.636   7.688  0.0720 -0.3883  0.0115
27450SOL    HW287162   6.700   2.584   7.706 -0.0164 -0.4241 -0.7472
27451SOL     OW87163   1.108   1.299   8.827  0.4877  0.3296 -0.5235
27451SOL    HW187164   1.188   1.257   8.858  1.3570  1.2275 -1.4824
27451SOL    HW287165   1.101   1.378   8.881 -0.6952 -0.5767  0.7129
27452SOL     OW87166   5.906   7.598   2.388 -0.1215  0.3205 -0.1611
27452SOL    HW187167   5.987   7.639   2.354  0.8526 -0.3737  1.2386
27452SOL    HW287168   5.878   7.656   2.459 -0.9249  0.5940 -0.6860
27453SOL     OW87169  10.549  10.001   8.720 -0.1392 -0.3072 -0.5213
27453SOL    HW187170  10.495   9.970   8.793 -0.0606 -1.3352 -0.8884
27453SOL    HW287171  10.515  10.088   8.701 -0.2544 -0.0794  0.6469
27454SOL     OW87172  10.234   1.927   8.995  0.3423 -0.1956 -0.3720
27454SOL    HW187173  10.307   1.943   8.935 -0.0437 -2.0031 -1.3919
27454SOL    HW287174  10.263   1.853   9.048  0.4629  1.0395  1.4000
27455SOL     OW87175   4.454   6.940   4.972  0.7472  0.0715 -0.0490
27455SOL    HW187176   4.438   7.026   5.011  2.9010  0.3263  0.4089
27455SOL    HW287177   4.437   6.878   5.044 -0.6835  0.0949 -0.3445
27456SOL     OW87178   5.448   3.742   8.379  0.1403  0.0618 -0.2461
27456SOL    HW187179   5.529   3.704   8.411 -0.6350 -0.1691  1.5697
27456SOL    HW287180   5.443   3.715   8.287  1.3868 -1.1220  0.0067
27457SOL     OW87181  11.685   3.553   2.460 -0.6182 -0.1977  0.4761
27457SOL    HW187182  11.702   3.637   2.417 -2.1334 -0.2954 -0.3775
27457SOL    HW287183  11.713   3.567   2.551  0.9949  0.5759 -0.1125
27458SOL     OW87184   1.923   4.470   1.474 -0.2834  0.3012 -0.5040
27458SOL    HW187185   1.866   4.468   1.551 -0.9720 -1.1105 -1.0266
27458SOL    HW287186   2.011   4.477   1.511 -0.6242 -0.0180  0.4173
27459SOL     OW87187   1.189   8.456   9.349  0.3052 -0.2832  0.0674
27459SOL    HW187188   1.175   8.416   9.435 -1.4293 -0.1783 -0.1368
27459SOL    HW287189   1.176   8.550   9.363 -1.9632 -0.4270 -0.6185
27460SOL     OW87190   2.575   4.110  10.827  0.0552 -0.5986  0.5090
27460SOL    HW187191   2.572   4.166  10.750  1.2337 -1.5184 -0.2278
27460SOL    HW287192   2.639   4.151  10.885 -0.2310 -0.3452  0.6454
27461SOL     OW87193   4.598   7.122   0.923  0.6964  0.2971 -0.3282
27461SOL    HW187194   4.527   7.125   0.858  0.3505  0.4121  0.0543
27461SOL    HW287195   4.648   7.202   0.907 -0.8329  1.6054  1.1644
27462SOL     OW87196   5.537   4.824   5.089  0.2266  0.6828 -0.2977
27462SOL    HW187197   5.542   4.729   5.096 -1.3717  0.5129 -0.9766
27462SOL    HW287198   5.628   4.853   5.081  0.9639 -0.5247  2.6294
27463SOL     OW87199  10.751   5.813   2.534 -0.1388  0.5738  0.4489
27463SOL    HW187200  10.714   5.901   2.532  1.5437  1.2956  0.3995
27463SOL    HW287201  10.802   5.809   2.615  0.2868 -0.1715  0.1561
27464SOL     OW87202  12.123  12.446   6.520  0.1575  0.0910  0.7191
27464SOL    HW187203  12.154  12.356   6.529  0.5781  0.1967  0.3323
27464SOL    HW287204  12.030  12.437   6.497  0.0861 -0.2338  1.1183
27465SOL     OW87205   1.003   2.458   8.921  0.0790 -0.0020  0.3604
27465SOL    HW187206   1.075   2.431   8.864  1.1501 -1.4212  2.2699
27465SOL    HW287207   1.039   2.455   9.009 -1.3833  2.5756  1.1600
27466SOL     OW87208   3.778   8.324   1.915 -0.1941 -0.3684  0.1844
27466SOL    HW187209   3.737   8.360   1.994 -0.2377  0.4323 -0.1956
27466SOL    HW287210   3.707   8.278   1.871 -0.1197 -1.0018  0.7141
27467SOL     OW87211   2.048   4.794   1.430 -0.1146 -0.5858 -0.2494
27467SOL    HW187212   2.125   4.737   1.430  0.5329  0.2770 -0.5536
27467SOL    HW287213   2.017   4.792   1.520  1.2442  0.3549  0.2625
27468SOL     OW87214   7.719   5.267   4.203  0.2187  0.0957 -0.3868
27468SOL    HW187215   7.743   5.215   4.279  0.2739 -0.9129 -1.0706
27468SOL    HW287216   7.625   5.281   4.212  0.1542 -0.3511 -0.3237
27469SOL     OW87217   7.125  11.542   6.785  0.0661  0.2407 -0.0750
27469SOL    HW187218   7.122  11.447   6.780 -0.4101  0.2830 -0.8106
27469SOL    HW287219   7.075  11.571   6.708  0.5589  1.0820 -0.0852
27470SOL     OW87220   6.841   7.417   8.293  0.4470  0.0054  0.7930
27470SOL    HW187221   6.824   7.448   8.204  1.2346 -0.7500  0.3652
27470SOL    HW287222   6.779   7.345   8.305  1.2758 -0.7927  0.3391
27471SOL     OW87223   9.618  10.360   9.542 -0.1979 -0.1733 -0.1536
27471SOL    HW187224   9.564  10.356   9.464 -0.1231  1.8922 -0.3511
27471SOL    HW287225   9.580  10.294   9.601 -0.7350 -1.1920 -1.5969
27472SOL     OW87226  11.323   5.227   1.982  0.6941  0.5525  0.0121
27472SOL    HW187227  11.404   5.272   1.956 -0.0184  1.2379 -1.1155
27472SOL    HW287228  11.275   5.292   2.033  0.3963  0.5183 -0.2188
27473SOL     OW87229  11.012   7.405   0.064 -0.0451  0.4662 -0.8172
27473SOL    HW187230  11.105   7.426   0.050 -0.1181  1.2297 -0.2323
27473SOL    HW287231  11.012   7.346   0.139 -0.1213  1.6509  0.1468
27474SOL     OW87232  10.224   5.160   6.974 -0.2587 -0.1269 -0.5815
27474SOL    HW187233  10.203   5.074   7.010  2.0236 -0.7410 -0.5614
27474SOL    HW287234  10.259   5.210   7.048 -2.5761  1.2602 -0.3390
27475SOL     OW87235   0.442   7.875   7.541 -0.1741 -0.8306 -0.1337
27475SOL    HW187236   0.432   7.957   7.493  0.1414 -1.1751 -0.8044
27475SOL    HW287237   0.499   7.897   7.614 -0.5363 -0.3316  0.0035
27476SOL     OW87238  11.724   0.384   2.548  0.0956 -0.3099  0.2342
27476SOL    HW187239  11.786   0.313   2.564  0.8181  0.2551 -0.0351
27476SOL    HW287240  11.732   0.404   2.455  2.0985  2.0916  0.8065
27477SOL     OW87241   4.202   8.469   9.220 -0.1408  0.4705 -0.2929
27477SOL    HW187242   4.277   8.494   9.274 -0.0010 -0.2639 -0.1348
27477SOL    HW287243   4.230   8.390   9.174 -1.0949 -0.2933  0.3881
27478SOL     OW87244   8.092   7.658  10.313 -0.5868  0.0215 -0.0406
27478SOL    HW187245   8.007   7.620  10.336  0.2127 -2.1512 -0.4676
27478SOL    HW287246   8.116   7.615  10.231  1.8404 -0.9843  1.1050
27479SOL     OW87247   6.142   2.705   9.731 -0.1697  0.0173  0.3947
27479SOL    HW187248   6.205   2.659   9.786  3.1781  1.5369 -1.8332
27479SOL    HW287249   6.124   2.787   9.778 -0.3512 -0.3347  0.9470
27480SOL     OW87250   6.333   1.937   9.312 -0.0325  0.4287 -0.4433
27480SOL    HW187251   6.351   2.020   9.358 -0.0753  1.2492 -1.8578
27480SOL    HW287252   6.393   1.937   9.238 -0.4840 -0.5146 -0.8182
27481SOL     OW87253   7.097   3.032   1.783 -0.4472  0.2196 -0.4164
27481SOL    HW187254   7.117   3.046   1.690 -0.8425 -0.1136 -0.5541
27481SOL    HW287255   7.171   3.071   1.829 -0.0363  0.0173 -0.8868
27482SOL     OW87256   4.056   4.575   1.654 -0.0559  0.0061 -0.1290
27482SOL    HW187257   4.011   4.584   1.738  1.6448  0.0165  0.8201
27482SOL    HW287258   4.057   4.481   1.638 -2.1668  0.1177 -1.1885
27483SOL     OW87259   6.110   0.590   1.040 -0.1015  0.2741 -0.1784
27483SOL    HW187260   6.030   0.548   1.007 -0.5212  0.1967  0.8879
27483SOL    HW287261   6.099   0.683   1.021 -0.3215  0.2248 -0.2872
27484SOL     OW87262   5.631  12.510  10.382 -0.6867  0.1997 -0.0166
27484SOL    HW187263   5.552  12.476  10.424 -1.9550 -0.0637 -2.4059
27484SOL    HW287264   5.647  12.448  10.310  2.1682 -0.1650  0.8317
27485SOL     OW87265   1.560   6.363   6.859 -0.2577  0.1503 -0.1137
27485SOL    HW187266   1.477   6.407   6.840 -0.8285 -0.0211  1.7865
27485SOL    HW287267   1.549   6.274   6.825 -0.7036  0.2354 -0.1888
27486SOL     OW87268   7.927   9.677   4.020 -0.1160  0.5235  0.1775
27486SOL    HW187269   7.980   9.624   3.960  2.2971 -0.3467  2.8719
27486SOL    HW287270   7.961   9.766   4.009  0.6865  0.2791  0.5566
27487SOL     OW87271   7.568   7.911   9.803  0.6354  0.2227  0.0400
27487SOL    HW187272   7.500   7.957   9.754 -1.3318 -1.4757  0.9944
27487SOL    HW287273   7.565   7.821   9.769  3.0340  0.2593 -0.4595
27488SOL     OW87274   0.843   4.009   0.386  0.1747 -0.2394  0.1677
27488SOL    HW187275   0.831   3.980   0.476  1.8088 -0.6386  0.2859
27488SOL    HW287276   0.937   4.024   0.378  0.2529 -1.5343 -1.8595
27489SOL     OW87277   5.597  11.682   9.059 -0.1339  0.0817 -0.1011
27489SOL    HW187278   5.630  11.644   8.977 -0.8492 -1.0569  0.1244
27489SOL    HW287279   5.600  11.610   9.122 -0.6372  0.6537  0.5949
27490SOL     OW87280   4.692   4.637   9.348  0.0322  0.0435 -0.1478
27490SOL    HW187281   4.667   4.727   9.368  1.3463  0.7214 -1.3844
27490SOL    HW287282   4.736   4.606   9.427  0.9063  1.0133 -0.2365
27491SOL     OW87283  10.185   9.640   5.775  0.0723  0.2013 -0.5812
27491SOL    HW187284  10.136   9.636   5.694 -0.0170 -0.9187 -0.4905
27491SOL    HW287285  10.264   9.589   5.758 -0.2235 -0.5427  0.2083
27492SOL     OW87286   7.471   5.109   3.351 -0.0099 -0.0349 -0.2805
27492SOL    HW187287   7.484   5.197   3.388 -0.3610 -0.2618  0.4041
27492SOL    HW287288   7.522   5.051   3.407  1.4639 -0.1053 -1.6466
27493SOL     OW87289  11.051   4.280   6.643 -0.4197 -0.0756  0.3734
27493SOL    HW187290  10.961   4.249   6.655 -0.3132 -1.2428 -1.4370
27493SOL    HW287291  11.093   4.263   6.727 -1.5280 -0.7834  0.8123
27494SOL     OW87292  11.963   5.782  11.223  0.4075 -0.1550 -0.2002
27494SOL    HW187293  11.932   5.867  11.192 -0.4793 -0.5284 -0.3763
27494SOL    HW287294  11.968   5.728  11.145 -0.9934 -0.8427  0.1336
27495SOL     OW87295   2.522   3.133  10.465  0.3301  0.0508 -0.3204
27495SOL    HW187296   2.513   3.211  10.520 -0.1707 -0.3629  0.1967
27495SOL    HW287297   2.585   3.159  10.397  2.0437  0.1521  1.2086
27496SOL     OW87298   6.983   2.281   5.524 -0.1836  0.4196  0.1418
27496SOL    HW187299   6.926   2.252   5.453 -0.9934  1.4020  0.3502
27496SOL    HW287300   7.006   2.202   5.571 -0.7750 -0.0878 -0.4032
27497SOL     OW87301  11.145  11.280  12.391 -0.0395 -0.6534 -0.2758
27497SOL    HW187302  11.082  11.315  12.453 -0.4294 -0.3635 -0.8241
27497SOL    HW287303  11.199  11.220  12.442 -0.6546 -0.7803  0.2288
27498SOL     OW87304   3.363   6.574  10.408 -0.0374  0.0646 -0.1298
27498SOL    HW187305   3.325   6.573  10.496 -2.2547  0.8818 -1.0088
27498SOL    HW287306   3.311   6.511  10.358 -1.9708  2.8825 -1.9695
27499SOL     OW87307   9.600   3.132   3.138 -0.1768  0.3544 -0.2228
27499SOL    HW187308   9.566   3.069   3.201 -0.5800 -1.3028 -2.0155
27499SOL    HW287309   9.689   3.150   3.168 -0.5783  0.1272  1.1747
27500SOL     OW87310   9.777   5.347   7.025  0.3699  0.0716  0.2717
27500SOL    HW187311   9.835   5.359   6.950  0.4054 -0.5960  0.1839
27500SOL    HW287312   9.693   5.321   6.986  0.3093  0.0083  0.4438
27501SOL     OW87313  10.972   3.509   8.664  0.5418 -0.1015  0.3701
27501SOL    HW187314  10.932   3.594   8.649  2.5627  1.1862  1.8632
27501SOL    HW287315  10.900   3.454   8.695 -1.2911  0.3254 -2.6769
27502SOL     OW87316  10.247   8.196   5.085 -0.2669  0.3254 -0.3499
27502SOL    HW187317  10.157   8.167   5.101 -0.5146  1.2589  0.0188
27502SOL    HW287318  10.264   8.260   5.153  1.0479 -0.5627  0.1973
27503SOL     OW87319  11.005   0.070  11.493 -0.2793  0.1993 -0.1771
27503SOL    HW187320  11.096   0.068  11.465 -0.1471 -0.6080  0.2871
27503SOL    HW287321  10.972  -0.019  11.475 -0.9788  0.4928 -0.3766
27504SOL     OW87322   6.154   1.433   4.714  0.3069 -0.6056  0.3350
27504SOL    HW187323   6.102   1.451   4.636  0.8835 -0.3435  0.0024
27504SOL    HW287324   6.091   1.433   4.786 -0.0309  0.5703  0.0563
27505SOL     OW87325   6.548  12.191  11.216 -0.2495 -0.4751 -0.0727
27505SOL    HW187326   6.502  12.269  11.185 -0.2577 -0.4532 -0.0069
27505SOL    HW287327   6.641  12.210  11.200 -0.3203 -0.8565 -0.9528
27506SOL     OW87328   5.788   0.839   6.911  0.0994  0.3741  0.1413
27506SOL    HW187329   5.705   0.819   6.866  0.1020 -1.2757  0.8268
27506SOL    HW287330   5.829   0.905   6.855 -2.8892  3.4384  1.1773
27507SOL     OW87331   3.434   0.002   0.563 -0.2177  0.6936 -0.1856
27507SOL    HW187332   3.357  -0.011   0.508 -1.3128  2.8743  0.6921
27507SOL    HW287333   3.400   0.007   0.652  1.3259 -1.1642  0.5795
27508SOL     OW87334   8.381  10.583   1.485  0.1154  0.0089 -0.3108
27508SOL    HW187335   8.431  10.664   1.497 -1.2406  0.7843  0.2911
27508SOL    HW287336   8.340  10.567   1.570 -1.8624  0.2560 -1.1482
27509SOL     OW87337  11.020   7.517   8.686  0.1445 -0.2386  0.0186
27509SOL    HW187338  10.976   7.559   8.761 -0.3905 -0.8600  0.0658
27509SOL    HW287339  11.076   7.450   8.726  0.7717  0.2239 -0.0733
27510SOL     OW87340   3.282   1.576   7.762  0.0540  0.1432 -0.4071
27510SOL    HW187341   3.305   1.652   7.708 -1.3479  0.1263 -1.0783
27510SOL    HW287342   3.213   1.608   7.819 -0.5110 -0.6081 -0.6646
27511SOL     OW87343   5.955   4.129   0.216 -0.4981 -0.2218 -0.1407
27511SOL    HW187344   6.003   4.153   0.137 -0.6522  0.5083 -0.0241
27511SOL    HW287345   5.937   4.036   0.206  0.1558 -0.3077 -0.6036
27512SOL     OW87346   0.543   8.647  12.612 -0.2318  0.3989  0.5253
27512SOL    HW187347   0.509   8.725  12.568  0.7317 -0.0895 -1.1717
27512SOL    HW287348   0.635   8.668  12.629  0.0428 -0.3755  0.0228
27513SOL     OW87349  10.524   6.428   8.437  0.3176  0.2893  0.3725
27513SOL    HW187350  10.567   6.343   8.436 -0.1102  0.0190  1.8298
27513SOL    HW287351  10.472   6.429   8.357  1.5072 -0.1688 -0.4342
27514SOL     OW87352   0.462   7.562  10.203  0.4075 -0.2632  0.1197
27514SOL    HW187353   0.435   7.501  10.272  0.0643  0.4365  0.6196
27514SOL    HW287354   0.503   7.506  10.137 -1.5873 -1.2969 -0.3292
27515SOL     OW87355  11.404   4.235  11.457  0.1914 -0.3101 -0.1482
27515SOL    HW187356  11.411   4.329  11.441  2.2818 -0.4974 -0.5021
27515SOL    HW287357  11.410   4.226  11.552  1.2869 -0.1737 -0.2008
27516SOL     OW87358   9.209   3.455   1.814 -0.3781  0.0945  0.3357
27516SOL    HW187359   9.146   3.437   1.744 -2.2813  0.0358  1.9641
27516SOL    HW287360   9.263   3.377   1.820 -1.4488 -0.6736  0.1664
27517SOL     OW87361   2.955   3.774  11.104  0.1447  0.6171  0.2931
27517SOL    HW187362   3.009   3.748  11.029 -2.0886 -0.0048 -1.1791
27517SOL    HW287363   2.948   3.869  11.097 -2.3187  0.3790 -2.0507
27518SOL     OW87364  10.621   9.127   8.498  0.4336  0.1315  0.2279
27518SOL    HW187365  10.650   9.214   8.471  1.4803 -0.0060  0.8771
27518SOL    HW287366  10.529   9.139   8.521  0.4701  0.9856 -0.0418
27519SOL     OW87367   6.410   3.955   5.204 -0.3433  0.3428  0.1245
27519SOL    HW187368   6.337   4.011   5.230 -0.5382  0.0611  0.1890
27519SOL    HW287369   6.476   4.016   5.170 -1.6590  0.4374 -2.4749
27520SOL     OW87370   6.076  10.901  10.826 -0.2526 -0.1247  0.1556
27520SOL    HW187371   6.066  10.819  10.873  1.5703 -0.4283  0.0978
27520SOL    HW287372   6.010  10.898  10.757 -1.1287 -0.8942  0.9937
27521SOL     OW87373   6.819   0.489   3.043 -0.2072  0.0389  0.3211
27521SOL    HW187374   6.838   0.397   3.060 -0.7716 -0.2143 -0.3726
27521SOL    HW287375   6.724   0.493   3.034 -0.2458  0.8074  1.0029
27522SOL     OW87376  11.810   3.508   4.448 -0.3316  0.1236 -0.5626
27522SOL    HW187377  11.730   3.480   4.493 -0.7207  1.5894 -0.2876
27522SOL    HW287378  11.787   3.592   4.407  0.9211  0.3377 -0.8808
27523SOL     OW87379   5.583   8.965  10.319 -0.0674  0.6738 -0.4849
27523SOL    HW187380   5.534   9.036  10.277  0.4544  2.0426  1.1098
27523SOL    HW287381   5.600   8.903  10.248 -3.1210  0.6373 -1.3314
27524SOL     OW87382   6.174   2.084   4.702  0.3078  0.4485  0.0108
27524SOL    HW187383   6.243   2.019   4.686 -2.1190 -2.2345 -0.2541
27524SOL    HW287384   6.126   2.089   4.619 -1.4837  0.1011  0.9851
27525SOL     OW87385   6.227  12.452   1.095 -0.1917  0.1655  0.1215
27525SOL    HW187386   6.315  12.487   1.112 -0.6862  0.5663  2.1076
27525SOL    HW287387   6.232  12.361   1.125  0.4259 -0.8944 -2.8660
27526SOL     OW87388   4.248   6.093   9.151  0.6394  0.1658 -0.3399
27526SOL    HW187389   4.249   6.188   9.140  0.9463  0.1495 -0.4708
27526SOL    HW287390   4.176   6.077   9.212 -0.8772  0.2762 -2.0163
27527SOL     OW87391  11.966  11.577  11.474  0.3426  0.4569 -0.0254
27527SOL    HW187392  12.050  11.623  11.472  0.9454 -0.6066  0.0861
27527SOL    HW287393  11.981  11.502  11.532 -0.5032 -0.0809 -0.4799
27528SOL     OW87394   0.483   0.377   2.408  0.1588  0.5303 -0.1878
27528SOL    HW187395   0.551   0.389   2.475  2.3692  1.6701 -2.4665
27528SOL    HW287396   0.419   0.446   2.427 -0.0602 -0.0881  1.5666
27529SOL     OW87397   0.795   6.216   7.357  0.4969  0.1498 -0.0507
27529SOL    HW187398   0.773   6.212   7.451  1.3344  0.4632  0.1623
27529SOL    HW287399   0.769   6.304   7.331 -0.5860 -0.2395 -0.3400
27530SOL     OW87400   0.316  10.118  11.711 -0.0439 -0.3668  0.5654
27530SOL    HW187401   0.231  10.118  11.755  0.2661  1.4131  1.2679
27530SOL    HW287402   0.296  10.136  11.619 -0.5612 -2.2618  0.2728
27531SOL     OW87403   2.887   0.106   7.974 -0.6143 -0.0928  0.7614
27531SOL    HW187404   2.976   0.082   7.997 -0.9948 -0.5584  1.8068
27531SOL    HW287405   2.866   0.178   8.033 -0.4180  1.0560 -0.5167
27532SOL     OW87406   0.165   1.662  10.785 -0.7239  0.5745 -0.0044
27532SOL    HW187407   0.205   1.710  10.712 -0.2284  0.2220  0.0327
27532SOL    HW287408   0.082   1.631  10.750 -0.3707  0.1758 -0.5132
27533SOL     OW87409   8.053   2.858   0.085  0.2100 -0.1108 -0.1818
27533SOL    HW187410   8.045   2.843  -0.009  0.9014 -0.9520 -0.1145
27533SOL    HW287411   8.011   2.782   0.126  1.4958 -0.6616  0.1718
27534SOL     OW87412   8.513   0.604   0.784  0.8171  0.1080 -0.3035
27534SOL    HW187413   8.522   0.626   0.877 -1.3782  3.3896 -0.6960
27534SOL    HW287414   8.589   0.549   0.765  3.5538  2.5329  2.5044
27535SOL     OW87415  11.294   4.512  11.998  0.3147 -0.2812 -0.0263
27535SOL    HW187416  11.243   4.468  12.066  0.4361 -1.7058 -0.8314
27535SOL    HW287417  11.257   4.481  11.916 -1.2780  3.0414 -0.7422
27536SOL     OW87418   5.804  12.593   6.835 -0.8945  0.6226 -0.2135
27536SOL    HW187419   5.775  12.650   6.763  1.1579 -0.5448 -2.0917
27536SOL    HW287420   5.891  12.624   6.857 -1.1347  0.3703  1.1615
27537SOL     OW87421   1.487   2.542  11.045  0.0296 -0.0366  0.3753
27537SOL    HW187422   1.467   2.582  11.130  2.6543  1.7492  0.2814
27537SOL    HW287423   1.424   2.582  10.985  0.8093  1.9470  0.7922
27538SOL     OW87424  12.112   3.030   7.175 -0.1522 -0.0573  0.3375
27538SOL    HW187425  12.206   3.017   7.184  0.4068  2.2266 -1.4349
27538SOL    HW287426  12.093   3.007   7.084 -1.0997  0.5722  0.3623
27539SOL     OW87427   8.110  10.337   2.657 -0.1108  0.2148  0.0414
27539SOL    HW187428   8.140  10.326   2.748 -1.9574 -0.8815  0.5715
27539SOL    HW287429   8.080  10.428   2.653 -1.1883 -0.0706  0.9409
27540SOL     OW87430   1.543   1.656  12.518 -0.1269 -0.1903 -0.2905
27540SOL    HW187431   1.473   1.646  12.453  0.1009  1.7310 -0.8691
27540SOL    HW287432   1.624   1.637  12.469 -0.0710 -0.2294 -0.1827
27541SOL     OW87433   9.980  11.406   4.609 -0.4221 -0.7974 -0.3289
27541SOL    HW187434   9.981  11.412   4.513  0.4366  0.2689 -0.2846
27541SOL    HW287435   9.929  11.328   4.628 -2.3332  0.0722 -1.5988
27542SOL     OW87436   4.199   7.155   3.638 -0.1243  0.2481  0.8325
27542SOL    HW187437   4.103   7.162   3.639 -0.3586 -0.6517 -2.4779
27542SOL    HW287438   4.216   7.061   3.642  0.5293  0.3196 -0.0148
27543SOL     OW87439   0.010  10.268  11.245  0.0529 -0.1001  0.3897
27543SOL    HW187440  -0.030  10.222  11.171  1.8917  1.0527 -1.4252
27543SOL    HW287441   0.085  10.213  11.270  2.3071  1.6993 -1.8365
27544SOL     OW87442   1.544   7.827   0.082  0.8426  0.3588  0.1357
27544SOL    HW187443   1.505   7.769   0.148 -2.7513  1.3786 -0.8293
27544SOL    HW287444   1.555   7.772   0.005 -0.2442  0.3493 -0.0333
27545SOL     OW87445   6.856   0.122   8.620  0.6977 -0.0588 -0.0664
27545SOL    HW187446   6.883   0.211   8.642 -1.6895  0.8905 -0.6245
27545SOL    HW287447   6.868   0.073   8.701  2.8367  0.5215  0.0256
27546SOL     OW87448   7.564  11.515  10.180  0.1527  0.1135  0.1069
27546SOL    HW187449   7.601  11.475  10.100  1.5400 -0.7372  1.1280
27546SOL    HW287450   7.574  11.447  10.247 -0.1196  1.1478  1.2253
27547SOL     OW87451   9.311  11.231   8.564 -0.2374 -0.1973  0.6387
27547SOL    HW187452   9.328  11.324   8.583 -0.0695 -0.1068  0.0863
27547SOL    HW287453   9.398  11.192   8.557 -0.3158 -0.5547  1.5790
27548SOL     OW87454  12.229   3.972   5.832 -0.4729 -0.0331  0.2483
27548SOL    HW187455  12.299   3.995   5.770  0.6111 -3.1115  0.1426
27548SOL    HW287456  12.259   4.007   5.916  1.1811 -1.1266  0.1638
27549SOL     OW87457   1.916  11.668  12.521 -0.2492 -0.6010 -0.3218
27549SOL    HW187458   1.882  11.612  12.591 -0.0607 -0.5635 -0.1989
27549SOL    HW287459   1.916  11.756  12.558  2.6498 -0.9377  0.7366
27550SOL     OW87460  10.303   7.163   9.155 -0.1349  0.4260  0.3334
27550SOL    HW187461  10.282   7.188   9.065 -2.1175  1.9495  1.1428
27550SOL    HW287462  10.393   7.131   9.150  0.0310  1.0354 -2.0769
27551SOL     OW87463   6.737  11.430   6.743 -0.2555 -0.0979 -0.3450
27551SOL    HW187464   6.745  11.335   6.746 -2.0624 -0.4428 -3.1120
27551SOL    HW287465   6.814  11.460   6.695  1.1340  0.0970  1.8487
27552SOL     OW87466  12.254   8.750   0.151 -0.0634 -0.1807  0.2842
27552SOL    HW187467  12.295   8.667   0.126  0.9841 -0.4074  2.5629
27552SOL    HW287468  12.162   8.727   0.165 -0.3130 -0.4010 -1.4814
27553SOL     OW87469   5.298   1.165  10.084  0.3181  0.1443 -0.3491
27553SOL    HW187470   5.346   1.242  10.053  0.7815 -0.4660 -1.2132
27553SOL    HW287471   5.298   1.106  10.009 -0.7097 -0.3875  0.0522
27554SOL     OW87472   4.823  11.418   8.583 -0.5865 -0.1941  0.3758
27554SOL    HW187473   4.731  11.397   8.597 -0.9782  0.1580 -1.4240
27554SOL    HW287474   4.831  11.510   8.609 -0.8303 -0.1074  0.1425
27555SOL     OW87475  12.022   9.583   7.431  0.1631 -0.2053 -0.5576
27555SOL    HW187476  12.010   9.510   7.492  0.0187  0.4758  0.2495
27555SOL    HW287477  11.949   9.574   7.369 -0.7097  0.0935  0.4074
27556SOL     OW87478   9.633   2.561   6.978  0.2615  0.2240 -0.5112
27556SOL    HW187479   9.664   2.481   7.020 -1.7313 -0.2219  0.2268
27556SOL    HW287480   9.685   2.631   7.018 -0.9238 -0.2741  2.1484
27557SOL     OW87481   3.034   5.285   2.043 -0.0516 -0.2211  0.5289
27557SOL    HW187482   2.962   5.339   2.076  0.6301 -0.1366  2.0058
27557SOL    HW287483   3.050   5.222   2.113  1.1793 -0.3409  0.1663
27558SOL     OW87484   1.604  12.429   3.874  0.3953 -0.0013  0.4948
27558SOL    HW187485   1.534  12.484   3.909  0.4781 -0.4463  1.3840
27558SOL    HW287486   1.593  12.435   3.779  1.1734  2.5406  0.4978
27559SOL     OW87487   5.629   7.746   0.474  0.3727 -0.1753  0.2721
27559SOL    HW187488   5.540   7.716   0.453  0.6390 -0.9707  0.2644
27559SOL    HW287489   5.669   7.761   0.389 -0.4436  2.3445  0.2520
27560SOL     OW87490   2.339   2.749   1.034 -0.3977  0.2133  0.9987
27560SOL    HW187491   2.272   2.817   1.029 -0.7625 -0.2387 -1.9145
27560SOL    HW287492   2.414   2.785   0.986 -0.1148 -0.9284  0.5531
27561SOL     OW87493   4.165  10.829   0.172 -0.0645 -0.0195 -0.3667
27561SOL    HW187494   4.151  10.742   0.134  0.0314 -0.5299  0.7408
27561SOL    HW287495   4.078  10.868   0.176 -0.4046 -0.8588  0.9866
27562SOL     OW87496   6.940   7.079   3.579 -0.3472 -0.5296  0.2518
27562SOL    HW187497   6.893   7.125   3.509  0.8953 -0.7507 -0.7759
27562SOL    HW287498   6.943   6.988   3.549 -2.4493 -1.2814  2.0781
27563SOL     OW87499   2.985   5.553   6.505  0.3625  0.5797  0.3724
27563SOL    HW187500   3.059   5.534   6.564  0.7804 -0.0738 -0.3460
27563SOL    HW287501   2.911   5.507   6.545  0.3290  1.2586  1.1103
27564SOL     OW87502  10.350   8.932   9.736  0.8608 -0.1657 -0.2011
27564SOL    HW187503  10.378   9.013   9.779 -0.6685 -0.0662  0.6830
27564SOL    HW287504  10.430   8.880   9.730  1.9710  1.5489 -1.1739
27565SOL     OW87505   7.221   6.653   3.133  0.2459  0.4164 -0.0877
27565SOL    HW187506   7.169   6.720   3.178  0.9364  0.6337  0.4106
27565SOL    HW287507   7.309   6.663   3.170  0.1559 -1.3905  0.6942
27566SOL     OW87508   4.290   6.645   9.098  0.6056  0.2031  0.2390
27566SOL    HW187509   4.196   6.630   9.108  1.0415 -2.6217  0.9816
27566SOL    HW287510   4.297   6.697   9.017 -1.5662  0.4442  0.1314
27567SOL     OW87511   5.031  11.409  12.028  0.2317 -0.4913 -0.0794
27567SOL    HW187512   4.997  11.470  12.095  0.4214 -1.6524  1.1113
27567SOL    HW287513   4.957  11.395  11.969 -0.3192 -0.3677  0.5645
27568SOL     OW87514   1.248   2.967   2.076  0.2092 -0.9383  0.0588
27568SOL    HW187515   1.286   3.052   2.051 -0.9326 -0.6315 -0.7058
27568SOL    HW287516   1.170   2.959   2.022 -0.5481 -1.7826  1.2395
27569SOL     OW87517   8.231   8.025  11.423  0.1027  0.9960 -0.2003
27569SOL    HW187518   8.144   8.041  11.460  0.2506  1.1115  0.0993
27569SOL    HW287519   8.216   7.962  11.352  0.1457 -1.3292  1.7223
27570SOL     OW87520   1.987   1.822   6.793  0.4251  0.2612  0.3821
27570SOL    HW187521   2.056   1.755   6.798 -0.1968 -0.3576  0.9344
27570SOL    HW287522   1.906   1.773   6.803 -0.2871  0.6731 -2.4561
27571SOL     OW87523   4.688   8.161  10.109 -0.0640 -0.1333 -0.0483
27571SOL    HW187524   4.703   8.115  10.027 -2.6236 -0.5479 -0.3756
27571SOL    HW287525   4.593   8.168  10.116  0.1027  1.0629  2.2530
27572SOL     OW87526   7.250   9.451   8.198  0.1593 -0.3941 -0.0131
27572SOL    HW187527   7.248   9.421   8.289 -1.4158 -2.2727 -0.6176
27572SOL    HW287528   7.161   9.482   8.181  1.0161  2.2029 -0.2798
27573SOL     OW87529   5.299   8.088  12.453 -0.3709  0.4932 -0.0724
27573SOL    HW187530   5.270   8.026  12.387  0.3172  1.2789 -1.1356
27573SOL    HW287531   5.386   8.115  12.424  0.4333  0.0108  1.7505
27574SOL     OW87532  12.302   9.246  12.542 -0.6559  0.0099 -0.5322
27574SOL    HW187533  12.313   9.151  12.537 -1.6045 -0.0657 -1.8717
27574SOL    HW287534  12.211   9.258  12.570 -0.4287  0.5393  0.0086
27575SOL     OW87535  10.326   7.965   4.586  0.1483 -0.0602  0.1948
27575SOL    HW187536  10.266   7.954   4.513  0.5176 -0.7380 -0.0142
27575SOL    HW287537  10.359   7.877   4.604 -1.1528 -0.2133  2.2272
27576SOL     OW87538   6.702   4.015   0.673 -0.0994  0.2323  0.6236
27576SOL    HW187539   6.768   4.015   0.742  0.4635 -0.4348  0.1033
27576SOL    HW287540   6.669   4.105   0.670  0.8326  0.5860  0.8411
27577SOL     OW87541  12.458   6.073   6.452  0.1964 -0.3337  0.6234
27577SOL    HW187542  12.546   6.086   6.416  0.1774 -0.2958  0.5885
27577SOL    HW287543  12.400   6.110   6.385  0.1687 -0.1057  0.7735
27578SOL     OW87544   8.386   7.104   2.887  0.0002  0.3934 -0.3640
27578SOL    HW187545   8.417   7.026   2.933  0.8165 -0.1514 -1.7665
27578SOL    HW287546   8.431   7.101   2.802 -0.8248  1.7897 -0.8819
27579SOL     OW87547   9.961   2.326   9.073  0.1013 -0.0427 -0.1303
27579SOL    HW187548   9.937   2.369   9.155  0.7727  0.2484 -0.0815
27579SOL    HW287549   9.970   2.233   9.096  0.3836  0.0519  0.1472
27580SOL     OW87550  12.525   0.625  10.766  0.4850 -0.1138  0.3220
27580SOL    HW187551  12.571   0.648  10.686  1.1116 -0.5846  0.5415
27580SOL    HW287552  12.508   0.531  10.757  0.5287 -0.1606  0.7305
27581SOL     OW87553  10.708   8.590   0.371 -0.2303 -0.2850 -0.1056
27581SOL    HW187554  10.618   8.571   0.397  0.2143 -1.6118  0.5643
27581SOL    HW287555  10.762   8.551   0.440  0.8907 -0.3982 -1.0084
27582SOL     OW87556   9.950   3.748  10.285  0.6968  0.3488  0.2409
27582SOL    HW187557   9.868   3.721  10.244  0.3539  1.2495  0.2973
27582SOL    HW287558   9.994   3.667  10.308  0.1973 -0.1524 -0.5377
27583SOL     OW87559   4.739   9.189  10.870  0.2101  0.0939  0.2070
27583SOL    HW187560   4.735   9.136  10.949  1.1487  0.5354  0.5671
27583SOL    HW287561   4.833   9.203  10.855  0.0989 -0.7312 -1.4912
27584SOL     OW87562   9.430   0.967   6.514  0.0982  0.0355 -0.1771
27584SOL    HW187563   9.347   0.951   6.468 -0.4856  0.7972  0.5968
27584SOL    HW287564   9.497   0.949   6.448 -0.6004 -2.1065 -0.3899
27585SOL     OW87565   7.974   1.166  11.694  0.0528  0.1226  0.3414
27585SOL    HW187566   7.925   1.168  11.613 -0.1549 -1.2395  0.4122
27585SOL    HW287567   8.064   1.185  11.668 -0.1314  0.3859 -0.1056
27586SOL     OW87568   9.086  10.911   2.694  0.0052  0.3251 -0.5638
27586SOL    HW187569   9.129  10.917   2.779 -1.0982  1.0373 -0.0359
27586SOL    HW287570   9.031  10.833   2.700 -0.2954  0.5381 -0.5115
27587SOL     OW87571   5.543   9.931  10.098  0.1640 -0.7052 -0.3510
27587SOL    HW187572   5.629   9.888  10.096  0.0403 -0.9453 -0.4222
27587SOL    HW287573   5.530   9.960  10.007  1.9373  2.8060  0.3191
27588SOL     OW87574   1.527   1.515   3.608 -0.0924 -0.4999 -0.3745
27588SOL    HW187575   1.440   1.551   3.592  1.1516  2.1914 -1.6600
27588SOL    HW287576   1.579   1.590   3.638  1.6810 -2.1504  0.9541
27589SOL     OW87577   0.181   0.110   0.972 -0.6430 -0.7310 -0.9217
27589SOL    HW187578   0.198   0.019   0.996  1.0328 -0.2415 -0.1535
27589SOL    HW287579   0.264   0.155   0.986 -1.4167  0.9102 -1.3698
27590SOL     OW87580   5.204   1.194  10.611  0.0867  0.3717  0.1624
27590SOL    HW187581   5.155   1.219  10.532 -0.4350  0.9026  0.6364
27590SOL    HW287582   5.226   1.278  10.652  0.0808  0.0943  0.7376
27591SOL     OW87583  12.189  10.899  12.092 -0.1889  0.3346  0.2533
27591SOL    HW187584  12.142  10.817  12.078 -1.5832  0.9008  1.3249
27591SOL    HW287585  12.150  10.936  12.172 -0.7474  2.7849 -1.0255
27592SOL     OW87586  12.545  12.250  11.209  0.1387 -0.0543 -0.5068
27592SOL    HW187587  12.634  12.279  11.226  0.2416 -0.6433  0.0146
27592SOL    HW287588  12.501  12.257  11.294 -0.3629  0.3963 -0.7971
27593SOL     OW87589  12.457   4.398   5.973 -0.4803 -0.4797  0.2382
27593SOL    HW187590  12.476   4.414   6.066 -1.2798  1.0610  0.1569
27593SOL    HW287591  12.364   4.417   5.964  0.0751  1.7468 -1.3500
27594SOL     OW87592   1.751   2.793   0.200  0.0856  0.3373  0.4070
27594SOL    HW187593   1.724   2.877   0.238 -1.4710  0.4200 -0.7616
27594SOL    HW287594   1.786   2.816   0.114 -0.7974 -0.2315 -0.1194
27595SOL     OW87595  10.368   9.215   2.294 -0.6612 -0.2279  0.1504
27595SOL    HW187596  10.339   9.277   2.227  0.4844 -0.4498 -0.5708
27595SOL    HW287597  10.463   9.219   2.291 -0.5134  1.3387  3.2789
27596SOL     OW87598   3.388   5.182   2.863 -0.1908 -0.3671 -0.2048
27596SOL    HW187599   3.370   5.254   2.802 -0.4806  1.3826  1.8317
27596SOL    HW287600   3.322   5.116   2.842 -0.6443  0.4227 -1.3824
27597SOL     OW87601   6.537   7.211   9.036 -0.4604 -0.0056 -0.1555
27597SOL    HW187602   6.442   7.224   9.037 -0.5805 -0.8080 -0.7112
27597SOL    HW287603   6.551   7.138   8.977  0.4350 -0.4948  0.6345
27598SOL     OW87604   8.229   7.861   0.364 -0.0874  0.3561  0.4327
27598SOL    HW187605   8.166   7.799   0.328 -1.6830  1.3427  1.3892
27598SOL    HW287606   8.208   7.865   0.457  1.5996  0.4958  0.8302
27599SOL     OW87607   4.186  11.924   1.010 -0.0356  0.3686  0.2620
27599SOL    HW187608   4.163  11.992   0.947  0.4416 -0.1789 -0.5370
27599SOL    HW287609   4.136  11.945   1.089  1.0562  2.3718  0.4915
27600SOL     OW87610  12.115   2.489  10.135  0.6332 -0.4556 -0.0197
27600SOL    HW187611  12.155   2.558  10.189 -0.3841  0.1228  0.0292
27600SOL    HW287612  12.022   2.510  10.135  0.6444  0.0268 -2.6139
27601SOL     OW87613  11.784   3.265   8.522 -0.1640  1.0301  0.3575
27601SOL    HW187614  11.816   3.184   8.481 -1.4118  0.8192 -0.2758
27601SOL    HW287615  11.737   3.310   8.451  1.4805  2.9103  0.3762
27602SOL     OW87616  10.095   4.974   8.091  0.6003  0.1693  0.1469
27602SOL    HW187617  10.100   4.910   8.161 -1.0156 -0.1288  0.0308
27602SOL    HW287618  10.069   5.056   8.134  0.1790  0.1275 -0.0263
27603SOL     OW87619   9.574   0.700  11.355  0.2016  0.1691 -0.4448
27603SOL    HW187620   9.488   0.726  11.387  0.3670  0.3208 -0.1237
27603SOL    HW287621   9.588   0.612  11.389  0.3085  0.2690 -0.2255
27604SOL     OW87622   8.642  12.390   0.567 -0.1011 -0.2101 -0.4682
27604SOL    HW187623   8.598  12.473   0.584 -1.1505 -0.8850  0.2341
27604SOL    HW287624   8.647  12.384   0.472  0.8981  1.1025 -0.5273
27605SOL     OW87625   1.974   2.647   8.133 -0.0529 -1.1194  0.3748
27605SOL    HW187626   1.901   2.703   8.106  0.0436 -1.7327 -1.2796
27605SOL    HW287627   1.997   2.598   8.054  1.3170 -1.8770  1.2054
27606SOL     OW87628   1.369   8.366   0.867 -0.2824  0.6535 -0.4797
27606SOL    HW187629   1.411   8.355   0.781 -0.7136  1.3308 -0.7811
27606SOL    HW287630   1.434   8.413   0.919 -0.1695  0.5773 -0.5515
27607SOL     OW87631  10.315   2.578   4.500  0.1622 -0.1387 -0.2395
27607SOL    HW187632  10.236   2.565   4.446 -0.5017 -2.1156  1.0884
27607SOL    HW287633  10.364   2.497   4.490  0.9038  0.1784  0.7289
27608SOL     OW87634  10.622   8.140   3.439  0.0336 -0.7140  0.4426
27608SOL    HW187635  10.683   8.194   3.489  1.7433  0.1137 -2.2950
27608SOL    HW287636  10.632   8.052   3.474 -0.3126  0.0837  2.7510
27609SOL     OW87637   6.475   5.914   5.936  0.3510  0.5458 -0.0167
27609SOL    HW187638   6.507   5.991   5.982  0.6361 -0.6439  1.9046
27609SOL    HW287639   6.399   5.884   5.987  0.7930 -0.9328 -0.1606
27610SOL     OW87640   2.600  11.692   0.364 -0.4884  0.4662  0.4244
27610SOL    HW187641   2.558  11.609   0.340 -0.2164  0.5397 -0.3302
27610SOL    HW287642   2.680  11.693   0.312  0.7124  0.1033  2.1914
27611SOL     OW87643   1.095   2.323   4.563  0.1127  0.1396  0.1418
27611SOL    HW187644   1.175   2.294   4.518  0.4735 -0.0331  0.8763
27611SOL    HW287645   1.117   2.411   4.595 -0.3533  0.5085 -0.5270
27612SOL     OW87646  11.596   7.067   9.650  0.4737 -0.6733 -0.0427
27612SOL    HW187647  11.520   7.057   9.593  0.7659 -1.6435 -0.2674
27612SOL    HW287648  11.566   7.038   9.736  0.5877 -1.0841 -0.1376
27613SOL     OW87649   3.688   4.212   5.627 -0.1587 -0.5708  0.1817
27613SOL    HW187650   3.627   4.276   5.591 -0.9337 -0.7759  1.0964
27613SOL    HW287651   3.636   4.160   5.688  1.3279  0.6438  2.6785
27614SOL     OW87652  10.356   4.530   6.713 -0.5333  0.6579 -0.2943
27614SOL    HW187653  10.288   4.490   6.767  0.3296 -0.8908 -0.3086
27614SOL    HW287654  10.433   4.533   6.769  0.0795  0.0289 -1.0798
27615SOL     OW87655   0.957   7.672   8.164 -0.3477 -0.1354 -0.0062
27615SOL    HW187656   1.036   7.652   8.214  0.1708 -0.9034 -1.0906
27615SOL    HW287657   0.889   7.682   8.231  0.4059 -0.7101  0.8819
27616SOL     OW87658  10.287   9.870   6.603 -1.3626  0.6996  0.0105
27616SOL    HW187659  10.277   9.961   6.572  0.2092  0.4737 -1.3021
27616SOL    HW287660  10.375   9.846   6.576 -2.5048 -1.9773 -1.7397
27617SOL     OW87661   5.306   7.810   5.792 -0.3314  0.8541  0.1748
27617SOL    HW187662   5.229   7.807   5.849 -0.5535  0.4002 -0.1401
27617SOL    HW287663   5.378   7.776   5.845 -0.5581  0.3347  0.1555
27618SOL     OW87664   2.212   3.393   6.230 -0.1882 -0.4376 -0.1582
27618SOL    HW187665   2.128   3.407   6.187 -0.6839  0.6338  1.0598
27618SOL    HW287666   2.188   3.370   6.320  0.8225 -0.6053  0.0725
27619SOL     OW87667   5.676  11.780   7.149 -0.0277 -0.4100  0.3222
27619SOL    HW187668   5.686  11.728   7.069 -1.3233 -0.8496  0.4303
27619SOL    HW287669   5.595  11.748   7.188  0.3164  0.1722  1.5467
27620SOL     OW87670  10.768   4.863  10.011  0.1185 -0.7153 -0.0886
27620SOL    HW187671  10.690   4.867  10.066  0.4887 -0.0121  0.4119
27620SOL    HW287672  10.839   4.894  10.068  0.5431 -0.1079 -0.9210
27621SOL     OW87673   2.315  11.529  10.071  0.1882  0.1511  0.0343
27621SOL    HW187674   2.267  11.446  10.071 -0.4708  0.5230  0.6699
27621SOL    HW287675   2.402  11.506  10.040 -0.3608 -0.5618 -1.0405
27622SOL     OW87676   5.211   3.680  11.470 -0.3906  0.3016  0.1583
27622SOL    HW187677   5.188   3.741  11.400 -1.1183 -0.0193  0.1118
27622SOL    HW287678   5.242   3.736  11.542 -1.6910  0.7894  0.3610
27623SOL     OW87679  11.250   1.838   2.589 -0.7728 -0.2403 -0.5299
27623SOL    HW187680  11.155   1.847   2.598 -0.5082  1.4576  1.1634
27623SOL    HW287681  11.281   1.926   2.570  0.6313 -0.3841  0.9025
27624SOL     OW87682  10.327   9.987   1.788  0.1613 -0.1518  0.1245
27624SOL    HW187683  10.270  10.015   1.859  1.9343 -0.1199  1.6035
27624SOL    HW287684  10.413  10.019   1.812  0.7745  0.2526 -2.2889
27625SOL     OW87685   7.675  10.084  10.507 -0.4832 -0.2521  0.1314
27625SOL    HW187686   7.618  10.081  10.584  0.6354 -1.7301  0.9648
27625SOL    HW287687   7.697  10.176  10.497 -1.5989  0.1126  0.8702
27626SOL     OW87688   7.785   5.215   0.529  0.3443  0.1083 -0.4851
27626SOL    HW187689   7.726   5.209   0.455  2.1264  0.2565 -1.9897
27626SOL    HW287690   7.867   5.175   0.499  1.0761 -0.0118  1.4709
27627SOL     OW87691   5.662   3.521   2.591  0.0738 -0.6512  0.3430
27627SOL    HW187692   5.714   3.559   2.661  0.5028 -0.9225  0.1719
27627SOL    HW287693   5.685   3.428   2.591  0.2387 -0.6137 -0.2988
27628SOL     OW87694  12.157   4.768  11.030 -0.2174 -0.5846 -0.3998
27628SOL    HW187695  12.140   4.721  10.949 -0.3735  1.5249 -1.6859
27628SOL    HW287696  12.145   4.860  11.007 -0.7963  0.0725  2.1636
27629SOL     OW87697   6.702   9.476  10.088  0.2109 -0.0049  0.1789
27629SOL    HW187698   6.692   9.385  10.116  1.3424 -0.4613 -0.7864
27629SOL    HW287699   6.615   9.514  10.096 -0.5839 -1.5486 -0.6684
27630SOL     OW87700   1.111   6.354   1.247 -0.0477 -0.2749 -0.2486
27630SOL    HW187701   1.100   6.433   1.195 -1.5473  0.3913  0.9949
27630SOL    HW287702   1.204   6.352   1.268  0.0558  1.0787 -0.4664
27631SOL     OW87703   4.096  12.406   2.623  0.2195  0.2733  0.0005
27631SOL    HW187704   4.130  12.363   2.702  3.6337  0.0331 -1.4389
27631SOL    HW287705   4.087  12.498   2.647  1.5877  0.2692  0.6010
27632SOL     OW87706   6.949  10.536  11.855 -0.3939  0.9060  0.4442
27632SOL    HW187707   6.947  10.512  11.762 -1.1744  0.4704  0.5650
27632SOL    HW287708   6.986  10.459  11.898 -0.8908  0.7558  0.5984
27633SOL     OW87709   8.720  10.661   2.894  0.4513  0.2461  0.0586
27633SOL    HW187710   8.688  10.684   2.807  0.0781  0.6281  0.2956
27633SOL    HW287711   8.775  10.584   2.880  0.3500  0.2774 -0.5069
27634SOL     OW87712  10.660  11.991   0.588 -0.0833  0.2037  0.1393
27634SOL    HW187713  10.585  12.039   0.554 -0.3136  0.7964  1.4008
27634SOL    HW287714  10.670  12.023   0.678  2.7585  1.4417 -0.5060
27635SOL     OW87715   7.736  10.638   3.044  0.1488  0.7123  0.2171
27635SOL    HW187716   7.657  10.619   2.992 -0.5269 -1.6362  1.8932
27635SOL    HW287717   7.703  10.688   3.119  0.5749  1.3148  0.0038
27636SOL     OW87718   7.400   4.210   8.486  0.4113  0.3631 -0.3689
27636SOL    HW187719   7.361   4.154   8.554 -0.7460 -1.1537 -2.1848
27636SOL    HW287720   7.454   4.151   8.434  0.0457  1.1437 -1.6830
27637SOL     OW87721   5.195   6.898   6.893  0.0036  0.8249  0.3987
27637SOL    HW187722   5.228   6.882   6.981 -2.3396 -0.8023  1.0739
27637SOL    HW287723   5.251   6.843   6.837  0.4157  0.5351  1.0823
27638SOL     OW87724   1.618   1.647   5.670  0.9444 -0.2118 -0.1008
27638SOL    HW187725   1.650   1.736   5.685  0.3289 -0.2020  1.2581
27638SOL    HW287726   1.548   1.635   5.734 -0.0181 -1.1454 -1.2864
27639SOL     OW87727   2.697   1.847   0.429 -0.2208 -0.0160  0.8753
27639SOL    HW187728   2.763   1.819   0.366 -0.7783 -1.5633  0.9268
27639SOL    HW287729   2.746   1.890   0.499  0.5642  0.2218  0.1951
27640SOL     OW87730   0.793   8.826   7.586  0.5475 -0.2984  0.9215
27640SOL    HW187731   0.881   8.851   7.557  0.8467 -0.8428  1.3344
27640SOL    HW287732   0.797   8.731   7.593 -0.3726 -0.4166  0.0119
27641SOL     OW87733   9.091  11.363  12.011  0.4722  0.0137 -0.5313
27641SOL    HW187734   9.159  11.428  11.992 -0.1734  0.6191 -0.8481
27641SOL    HW287735   9.134  11.279  11.999  1.3774  0.3801  0.0669
27642SOL     OW87736   6.667   4.837   0.759  0.7857  1.0039  0.2461
27642SOL    HW187737   6.663   4.869   0.669  1.2531 -0.3166 -0.2797
27642SOL    HW287738   6.760   4.834   0.780  0.8925 -1.3041 -0.2726
27643SOL     OW87739   2.264   6.894   1.918 -0.3118  0.0983  0.7845
27643SOL    HW187740   2.172   6.920   1.920 -1.1407 -1.8755 -2.7301
27643SOL    HW287741   2.298   6.934   1.839  1.0607 -1.3882  0.5782
27644SOL     OW87742   1.140   9.207   2.509 -0.4238 -0.1761 -0.1006
27644SOL    HW187743   1.064   9.169   2.465  0.0718 -0.3653 -0.8157
27644SOL    HW287744   1.157   9.148   2.582 -1.8344  0.6577  0.9657
27645SOL     OW87745   5.970   9.561  11.012 -1.2513 -0.1720 -0.5295
27645SOL    HW187746   5.922   9.596  10.937 -2.2393 -0.1256  0.1041
27645SOL    HW287747   5.963   9.466  11.003 -0.2852 -0.2028 -1.1593
27646SOL     OW87748   1.460   4.897   2.026 -0.3875 -0.2692 -1.0082
27646SOL    HW187749   1.452   4.813   2.070 -0.0225 -0.2588 -0.9185
27646SOL    HW287750   1.382   4.946   2.054  0.4338  0.1896  0.6482
27647SOL     OW87751   9.059   0.609   3.319 -0.2328  0.0779 -0.1075
27647SOL    HW187752   9.149   0.636   3.336 -0.6480  0.5812  1.5708
27647SOL    HW287753   9.007   0.686   3.342 -1.2395 -1.0169  1.4920
27648SOL     OW87754   1.484   9.420  12.487 -0.3713  0.1487  0.9518
27648SOL    HW187755   1.523   9.455  12.567  1.2726 -1.7108  1.0369
27648SOL    HW287756   1.521   9.333  12.478 -0.6636  0.2103 -1.7540
27649SOL     OW87757   2.305   0.060   5.032 -0.1786  0.3447 -0.4542
27649SOL    HW187758   2.317   0.145   5.074  0.3734  1.2328 -2.3096
27649SOL    HW287759   2.213   0.038   5.046 -0.0333  0.6410  1.0994
27650SOL     OW87760   8.571   0.525   7.501  0.3181  0.9786  0.9398
27650SOL    HW187761   8.595   0.614   7.476 -0.6477  1.5443  1.9887
27650SOL    HW287762   8.602   0.516   7.591  0.5841  0.1707  0.7785
27651SOL     OW87763   4.428   1.796   4.497 -0.3386 -0.6847 -0.0045
27651SOL    HW187764   4.346   1.798   4.547  0.9265  1.6242  2.1989
27651SOL    HW287765   4.452   1.703   4.497 -3.4643 -1.6559 -1.8302
27652SOL     OW87766   4.511   9.565   7.259 -0.4878 -0.1799 -0.3643
27652SOL    HW187767   4.600   9.594   7.282 -0.7650 -0.8743  1.7446
27652SOL    HW287768   4.518   9.540   7.166  0.8892  2.0645 -0.9427
27653SOL     OW87769   0.705   1.359  11.855  0.2172 -0.0270 -0.0030
27653SOL    HW187770   0.668   1.284  11.902 -0.3162  1.4473  2.0280
27653SOL    HW287771   0.787   1.378  11.899 -0.6771  1.8893  0.9426
27654SOL     OW87772   5.419   1.820   6.354 -0.4771 -0.1126 -0.2706
27654SOL    HW187773   5.412   1.841   6.261 -0.2955 -0.1902 -0.3043
27654SOL    HW287774   5.511   1.838   6.375 -0.6130  0.2813 -0.0120
27655SOL     OW87775   2.286   4.528  11.430 -0.2784  0.2896 -0.1804
27655SOL    HW187776   2.329   4.448  11.459  0.7634  0.6353 -0.7374
27655SOL    HW287777   2.329   4.598  11.480 -1.3280  0.5106  0.4658
27656SOL     OW87778   2.074   8.242   0.783 -0.4948 -0.1213 -0.0017
27656SOL    HW187779   2.102   8.321   0.736 -1.0280  0.2452  0.2939
27656SOL    HW287780   1.981   8.255   0.800 -0.6983 -1.0190 -0.3493
27657SOL     OW87781   4.250   9.041   5.710 -0.1610  0.4348 -0.3541
27657SOL    HW187782   4.301   8.977   5.661  0.8288  2.2878 -1.8767
27657SOL    HW287783   4.289   9.041   5.797  0.3214 -0.4563 -0.5597
27658SOL     OW87784   1.806   8.631   9.814 -0.0874  0.3367  0.2117
27658SOL    HW187785   1.711   8.642   9.805 -0.6616 -2.7404  1.2711
27658SOL    HW287786   1.824   8.649   9.906 -0.0783 -1.3087  0.5571
27659SOL     OW87787  12.435   6.068   5.503 -0.1254 -0.1921 -0.4801
27659SOL    HW187788  12.441   6.093   5.595 -0.7657  0.3850 -0.5934
27659SOL    HW287789  12.509   6.008   5.490 -0.6742 -1.1571  0.6847
27660SOL     OW87790   4.919   4.285   9.641 -0.1286 -0.2588 -0.1323
27660SOL    HW187791   5.012   4.306   9.629 -0.5542  2.0568  0.1782
27660SOL    HW287792   4.898   4.229   9.567  1.0394  0.9265 -1.4277
27661SOL     OW87793   4.816   0.172   0.659  0.2570 -0.0346 -0.1477
27661SOL    HW187794   4.756   0.211   0.595  0.1108  0.6370  0.3763
27661SOL    HW287795   4.889   0.234   0.664 -0.1668  0.3984  0.9942
27662SOL     OW87796  11.693   3.947   1.580  0.3066 -0.5322  0.8522
27662SOL    HW187797  11.751   4.021   1.560 -2.2191  0.8490 -2.1795
27662SOL    HW287798  11.753   3.873   1.593  2.8264  1.3950  0.9469
27663SOL     OW87799   0.509   1.781   7.913 -0.2752 -0.4468 -0.2438
27663SOL    HW187800   0.567   1.750   7.983 -0.2772  1.4200  0.6490
27663SOL    HW287801   0.551   1.860   7.881 -1.5712  0.1184 -0.6048
27664SOL     OW87802   6.654   0.394   3.345 -0.0019 -0.1751 -0.0295
27664SOL    HW187803   6.619   0.305   3.339  0.8187 -0.4560 -0.6842
27664SOL    HW287804   6.739   0.390   3.302 -0.3525  1.1391 -0.8903
27665SOL     OW87805   6.542  10.271  10.202  0.2355  0.2034 -0.5262
27665SOL    HW187806   6.548  10.365  10.182  2.3139 -0.0439 -1.4273
27665SOL    HW287807   6.498  10.234  10.126 -1.8794  0.5788  0.4653
27666SOL     OW87808   3.868   3.149  12.541  0.5952  0.6513  0.3974
27666SOL    HW187809   3.944   3.147  12.598 -0.0588  0.2719  1.2834
27666SOL    HW287810   3.793   3.150  12.601 -0.1536 -1.2795 -0.4250
27667SOL     OW87811   1.589   8.324   9.966 -0.4380  0.0422  0.5033
27667SOL    HW187812   1.653   8.294  10.031  0.7052 -0.6849 -0.9009
27667SOL    HW287813   1.504   8.298  10.001  0.1085  0.1113  1.9232
27668SOL     OW87814   4.482   6.940   9.464 -0.0420  0.3036  0.1279
27668SOL    HW187815   4.490   7.016   9.522 -0.8480 -1.3249  2.5005
27668SOL    HW287816   4.441   6.975   9.385 -0.7399  2.2800  1.2786
27669SOL     OW87817   9.442   8.733   4.412  0.2335  0.0628  0.4818
27669SOL    HW187818   9.516   8.693   4.459  0.8889  0.8187  0.1191
27669SOL    HW287819   9.434   8.682   4.332  1.5236  1.0475 -0.3145
27670SOL     OW87820   9.193   5.268   8.820  0.3973 -0.0337  0.4083
27670SOL    HW187821   9.168   5.353   8.857 -0.9568 -0.3974  0.3947
27670SOL    HW287822   9.193   5.283   8.726 -2.2239 -0.5869  0.2460
27671SOL     OW87823   3.679   9.144  12.394 -0.2438  0.3878 -0.5898
27671SOL    HW187824   3.701   9.107  12.308 -2.1734 -0.2779 -0.8500
27671SOL    HW287825   3.706   9.236  12.387 -0.2313  0.3157 -1.8771
27672SOL     OW87826   7.699   4.080   5.072  0.3834  0.1149  0.0253
27672SOL    HW187827   7.662   4.105   4.987  3.2061  1.7095 -0.8484
27672SOL    HW287828   7.755   4.153   5.097  2.2509 -1.7168  1.6229
27673SOL     OW87829   8.356   5.469   2.021 -0.4033 -0.3492 -0.2523
27673SOL    HW187830   8.376   5.486   2.113 -2.6523 -2.2248  0.6806
27673SOL    HW287831   8.415   5.397   1.997 -1.0743 -1.1086  0.3223
27674SOL     OW87832   9.151   5.563   4.651 -0.0640 -0.2323 -0.4148
27674SOL    HW187833   9.221   5.591   4.710 -0.2898 -0.8415  0.1580
27674SOL    HW287834   9.089   5.636   4.651 -0.7731 -0.7844  1.2581
27675SOL     OW87835   8.528   2.784  11.249 -0.1965 -0.7809  0.2086
27675SOL    HW187836   8.493   2.871  11.268 -0.1747 -0.5717 -0.6714
27675SOL    HW287837   8.601   2.773  11.311 -1.7111 -1.2084  2.0417
27676SOL     OW87838   5.412   8.685   2.189  0.2972 -0.1242  0.1824
27676SOL    HW187839   5.381   8.695   2.100 -1.1335 -0.4191  0.6286
27676SOL    HW287840   5.366   8.753   2.239 -1.0842 -1.7353  1.1972
27677SOL     OW87841   8.431   6.160   4.656  0.2514 -0.3286 -0.5392
27677SOL    HW187842   8.380   6.172   4.576 -0.1234  0.4269 -0.1973
27677SOL    HW287843   8.365   6.156   4.726  0.6820  1.8087  0.0388
27678SOL     OW87844   4.221   5.535   6.313 -0.3187 -0.3400  0.1289
27678SOL    HW187845   4.173   5.514   6.393  1.0748 -2.2815  0.5183
27678SOL    HW287846   4.297   5.584   6.343 -1.1484  1.3078 -0.3309
27679SOL     OW87847   0.859   0.606   3.586 -0.0121  0.5761  0.4792
27679SOL    HW187848   0.945   0.628   3.550  0.7388 -2.0789  0.4803
27679SOL    HW287849   0.877   0.542   3.655 -1.9412  0.6424  1.0947
27680SOL     OW87850  12.504   5.032   1.881 -0.2967  0.0033 -0.4383
27680SOL    HW187851  12.550   4.971   1.939 -0.0754 -1.1898 -1.8415
27680SOL    HW287852  12.412   5.007   1.887 -0.4268  0.5711  0.1760
27681SOL     OW87853  11.611   4.889   7.588  0.5077  0.2058  0.9279
27681SOL    HW187854  11.667   4.882   7.665  0.5764  5.2965  1.7388
27681SOL    HW287855  11.668   4.927   7.521 -0.3788 -1.0461 -0.5842
27682SOL     OW87856   4.453   7.710   3.815  0.0707 -0.2317 -0.8331
27682SOL    HW187857   4.359   7.723   3.800 -0.2966  0.3652  1.6358
27682SOL    HW287858   4.462   7.706   3.910  2.4103 -1.5562 -1.0438
27683SOL     OW87859   8.215   0.570   7.852  0.0773 -0.0324 -0.3796
27683SOL    HW187860   8.282   0.613   7.799  1.3081 -0.1050  1.0717
27683SOL    HW287861   8.191   0.635   7.918 -0.2167 -0.5300  0.0095
27684SOL     OW87862   0.581   3.221   7.617  0.0630 -0.7059 -0.0967
27684SOL    HW187863   0.617   3.268   7.692 -0.4148 -0.2411 -0.1601
27684SOL    HW287864   0.486   3.222   7.630  0.0415 -1.6850 -0.0751
27685SOL     OW87865   5.219  12.625   8.352  0.3023 -0.2455 -0.6542
27685SOL    HW187866   5.236  12.534   8.376  0.8358 -0.1038 -0.4832
27685SOL    HW287867   5.124  12.631   8.345 -0.1301  0.1163  3.1849
27686SOL     OW87868   5.092   7.995   7.289  0.2551 -0.0164  0.5880
27686SOL    HW187869   5.152   8.042   7.346  0.6130  1.2205 -0.7356
27686SOL    HW287870   5.138   7.913   7.268  0.7708  0.1990  0.8687
27687SOL     OW87871   2.146  11.301   8.408  0.1507  0.1547 -0.0190
27687SOL    HW187872   2.110  11.218   8.440 -0.9195  0.1206 -1.2466
27687SOL    HW287873   2.185  11.341   8.486 -1.1222 -0.5542  1.0389
27688SOL     OW87874   5.058   6.851   4.302 -0.6254  0.1268 -0.0732
27688SOL    HW187875   5.103   6.768   4.315  1.6965  1.3370  0.2752
27688SOL    HW287876   5.053   6.862   4.207 -1.3826 -0.6060 -0.1254
27689SOL     OW87877  12.236   7.236  11.939  0.4758 -0.6519 -0.6755
27689SOL    HW187878  12.260   7.303  11.875 -1.5112  2.0683  1.2490
27689SOL    HW287879  12.319   7.193  11.960  1.9037  1.4209 -1.7114
27690SOL     OW87880   6.822   0.814   5.862 -0.3595 -0.4365  0.2359
27690SOL    HW187881   6.807   0.863   5.781  2.6347  0.1867 -0.0717
27690SOL    HW287882   6.803   0.723   5.840  2.2063 -0.5808 -1.8407
27691SOL     OW87883  10.955   7.772   6.477 -0.6291  0.3019 -0.5574
27691SOL    HW187884  11.046   7.801   6.485 -0.7574  0.5801  0.0152
27691SOL    HW287885  10.952   7.723   6.395  0.7239 -2.1985  0.7512
27692SOL     OW87886   7.903   3.162   1.281  0.1393  0.2703 -0.7055
27692SOL    HW187887   7.919   3.243   1.329  2.1772 -0.5101  0.0693
27692SOL    HW287888   7.894   3.095   1.349 -0.0574 -0.3686 -1.3476
27693SOL     OW87889   8.316   4.247  10.579  0.2663 -0.2024  0.4668
27693SOL    HW187890   8.403   4.230  10.542 -0.2253 -0.9782 -0.3911
27693SOL    HW287891   8.327   4.234  10.673  1.0836 -0.2937  0.3667
27694SOL     OW87892   2.362   6.052  10.077 -0.7059 -0.1357 -0.1782
27694SOL    HW187893   2.364   6.005  10.160  0.1167 -0.6805 -0.4942
27694SOL    HW287894   2.304   6.127  10.093 -1.2742 -0.7262  0.6076
27695SOL     OW87895   7.750   0.302   4.727  0.3302  0.3391 -0.0259
27695SOL    HW187896   7.792   0.334   4.806  0.2035  1.9266 -0.5535
27695SOL    HW287897   7.677   0.363   4.713  0.1832 -0.0780 -1.1941
27696SOL     OW87898  11.033  11.418   3.087  0.1040  0.1172 -0.5041
27696SOL    HW187899  11.015  11.388   2.998 -1.0714 -1.2024  0.1465
27696SOL    HW287900  10.950  11.452   3.119 -0.0389 -1.2952  0.7659
27697SOL     OW87901   7.744  10.358  10.493 -0.5901 -0.5523 -0.2034
27697SOL    HW187902   7.816  10.399  10.445 -1.7910 -0.7800 -2.3298
27697SOL    HW287903   7.681  10.428  10.506 -0.7066 -0.7257  0.1848
27698SOL     OW87904   7.781   9.952  11.230 -0.3658  0.6928 -0.3213
27698SOL    HW187905   7.821   9.890  11.169  0.1387 -0.2372  0.8952
27698SOL    HW287906   7.690   9.924  11.236 -0.5071  1.0229 -0.9335
27699SOL     OW87907   8.501   0.710   8.009 -0.4129  0.1099  0.5284
27699SOL    HW187908   8.418   0.746   7.976 -0.8768 -0.7545  0.7118
27699SOL    HW287909   8.474   0.651   8.079  0.2224 -1.5171 -0.5620
27700SOL     OW87910   5.817   9.434  12.302 -0.0181  0.3807  0.2505
27700SOL    HW187911   5.752   9.400  12.240  1.1606 -0.3660 -0.6256
27700SOL    HW287912   5.848   9.357  12.349 -0.8911  0.9401  1.7981
27701SOL     OW87913   4.988   0.190   1.035 -0.0637  0.0372 -0.0032
27701SOL    HW187914   5.041   0.263   1.066 -1.0123  1.8528 -2.3295
27701SOL    HW287915   4.900   0.210   1.067 -0.0986 -0.8518  0.4909
27702SOL     OW87916   3.983   1.513   3.984  0.4760  0.1411  0.0602
27702SOL    HW187917   3.894   1.498   4.017  0.7621 -2.3977 -0.1148
27702SOL    HW287918   4.007   1.599   4.019 -1.2357 -0.0707  1.9804
27703SOL     OW87919   6.464   2.220  10.036 -0.0490  0.1620  0.0179
27703SOL    HW187920   6.486   2.153  10.102  3.3160 -1.1728 -2.1953
27703SOL    HW287921   6.477   2.303  10.082  2.0630 -0.7278  1.2149
27704SOL     OW87922   9.398  10.557   5.819 -0.0955 -0.0455 -0.4116
27704SOL    HW187923   9.477  10.581   5.771  0.0395 -1.5736 -0.9982
27704SOL    HW287924   9.330  10.550   5.752 -0.1776 -1.0296 -0.2476
27705SOL     OW87925   6.498   0.311   1.570  0.1517  0.3756  0.3314
27705SOL    HW187926   6.551   0.266   1.504 -1.0560 -1.5328  0.5738
27705SOL    HW287927   6.537   0.284   1.654 -0.4395 -0.0297  0.4765
27706SOL     OW87928  11.760   7.905   1.410 -0.0100  0.3605  0.5170
27706SOL    HW187929  11.826   7.973   1.427  0.3888  0.0841  0.0922
27706SOL    HW287930  11.799   7.825   1.445  0.7402 -0.1823 -1.4093
27707SOL     OW87931   5.332   6.552   4.971 -0.3775 -0.0079  0.5713
27707SOL    HW187932   5.297   6.494   4.904 -1.0228  1.0666 -0.0491
27707SOL    HW287933   5.268   6.548   5.042  0.0497 -0.7574  0.9212
27708SOL     OW87934   1.348  12.277   0.295 -0.2893  0.0257 -0.0975
27708SOL    HW187935   1.370  12.225   0.372  0.3107 -1.7203 -1.3760
27708SOL    HW287936   1.406  12.352   0.299 -0.1178 -0.1454  1.0326
27709SOL     OW87937   8.265   1.419  12.605  0.2729 -0.1659 -0.8053
27709SOL    HW187938   8.296   1.435  12.695  2.1805  0.4795 -1.5309
27709SOL    HW287939   8.172   1.440  12.608  1.1445  4.9061 -0.0384
27710SOL     OW87940   4.731   5.988   2.697 -0.7313 -0.3535  0.4018
27710SOL    HW187941   4.769   6.002   2.783  0.7329  1.0740 -0.4150
27710SOL    HW287942   4.639   6.014   2.706 -0.2993  0.9519  1.2460
27711SOL     OW87943   3.529   8.120   4.377 -0.6856 -0.1898 -0.0733
27711SOL    HW187944   3.604   8.177   4.358 -0.3975  0.1643  1.9421
27711SOL    HW287945   3.454   8.180   4.381 -0.4999 -0.0237  1.3147
27712SOL     OW87946   2.491   3.530   2.009  0.2596  0.1906  0.4484
27712SOL    HW187947   2.490   3.436   2.024  2.2060 -0.4311 -2.4866
27712SOL    HW287948   2.556   3.564   2.070 -0.5790 -0.3119  1.6418
27713SOL     OW87949   0.657   6.649   2.765 -0.0473  0.3899 -0.2492
27713SOL    HW187950   0.588   6.658   2.832  1.1449 -1.0885  1.2841
27713SOL    HW287951   0.672   6.738   2.734 -2.9591  0.7298 -1.0306
27714SOL     OW87952  12.182   6.460   7.410  0.0197  0.4030 -0.0984
27714SOL    HW187953  12.237   6.440   7.486  0.1266 -0.9586 -0.5056
27714SOL    HW287954  12.194   6.385   7.351 -0.7153  1.0348 -1.0848
27715SOL     OW87955   5.941   9.342   4.224  0.2197 -0.4586 -0.0098
27715SOL    HW187956   6.018   9.381   4.265 -1.1217  0.3859  1.8708
27715SOL    HW287957   5.902   9.287   4.292 -1.7035  0.3957 -0.3488
27716SOL     OW87958   6.456   0.595   5.101  0.5560  0.5170 -0.3553
27716SOL    HW187959   6.399   0.664   5.134  1.2630  1.6806 -1.5025
27716SOL    HW287960   6.538   0.606   5.150  0.7014  0.5483 -0.6051
27717SOL     OW87961   1.746   0.430   6.052 -0.2949 -0.3150  0.9337
27717SOL    HW187962   1.830   0.466   6.082  0.4777 -1.2361 -0.0824
27717SOL    HW287963   1.749   0.338   6.078 -1.2430 -0.2287  1.3837
27718SOL     OW87964   2.962   9.824   4.367 -0.1235  0.2487  0.7158
27718SOL    HW187965   2.960   9.795   4.276  1.1574  1.1479  0.3863
27718SOL    HW287966   2.882   9.787   4.405 -0.8433  0.1277 -0.8431
27719SOL     OW87967  11.944   2.107   1.699 -0.4096 -0.2169  0.5602
27719SOL    HW187968  11.883   2.052   1.749 -1.1843  0.9263  0.9127
27719SOL    HW287969  11.929   2.083   1.608  0.1800 -1.4786  0.7589
27720SOL     OW87970   0.359   2.123   6.533  0.2909 -0.2504  0.4776
27720SOL    HW187971   0.307   2.109   6.454 -0.2457  0.8814  0.6038
27720SOL    HW287972   0.396   2.037   6.553 -1.3381 -1.0406  0.2501
27721SOL     OW87973   1.857   5.584   7.580 -0.2924  0.3518 -0.4009
27721SOL    HW187974   1.784   5.525   7.600 -0.7177  0.2621 -2.0332
27721SOL    HW287975   1.931   5.547   7.627 -1.0833 -0.0904  0.5459
27722SOL     OW87976   7.839  11.700   4.972  0.1762 -0.6314  0.5096
27722SOL    HW187977   7.881  11.635   4.915  0.0703 -0.7555  0.5724
27722SOL    HW287978   7.812  11.650   5.049 -1.2281 -0.8153 -0.0706
27723SOL     OW87979   7.867   4.866  12.041 -0.0911 -0.6958 -0.2630
27723SOL    HW187980   7.891   4.773  12.047 -0.3787 -0.7118  0.8273
27723SOL    HW287981   7.893   4.903  12.125 -0.5009  0.0908 -0.4743
27724SOL     OW87982   0.317   5.363   1.106 -0.1479  0.0268  0.1657
27724SOL    HW187983   0.245   5.341   1.047 -0.4643  1.1001  0.1302
27724SOL    HW287984   0.352   5.279   1.134 -1.7325 -0.5175  0.5867
27725SOL     OW87985   5.747   2.309  11.110 -0.2665 -0.0301  0.1522
27725SOL    HW187986   5.832   2.295  11.070 -0.1377  1.8648 -0.3754
27725SOL    HW287987   5.708   2.222  11.117  0.8228 -0.7100 -1.6047
27726SOL     OW87988   5.390   8.268   7.562 -0.1245 -0.5290  0.0623
27726SOL    HW187989   5.325   8.200   7.540 -1.9628  0.9930  0.4950
27726SOL    HW287990   5.378   8.282   7.656  1.3485 -0.6903  0.2861
27727SOL     OW87991   9.315   3.439   1.226 -0.4965 -0.6018  0.9218
27727SOL    HW187992   9.345   3.348   1.230 -1.8174 -1.0840  0.1405
27727SOL    HW287993   9.392   3.490   1.252  0.2197 -1.9351  1.5332
27728SOL     OW87994   2.014   4.824   2.531 -0.2783  0.2105 -0.5266
27728SOL    HW187995   2.023   4.872   2.448  0.5798  0.7990 -0.1119
27728SOL    HW287996   1.978   4.888   2.592 -1.0699 -0.2717 -0.4717
27729SOL     OW87997   8.345  12.187  12.591 -0.0709 -0.0719 -0.3174
27729SOL    HW187998   8.337  12.221  12.502 -0.6509 -2.0187 -1.0554
27729SOL    HW287999   8.265  12.136  12.606 -0.0286  0.2812  1.3582
27730SOL     OW88000   4.841   7.086   4.873 -0.1253 -0.3818 -0.1999
27730SOL    HW188001   4.895   7.037   4.811  0.1410  2.0276 -2.0364
27730SOL    HW288002   4.753   7.082   4.836  0.1600  1.6652 -1.2336
27731SOL     OW88003   2.611   1.403   4.329 -0.5605  0.0185  0.6174
27731SOL    HW188004   2.678   1.419   4.396 -0.1442 -1.1436  0.5014
27731SOL    HW288005   2.532   1.443   4.365  0.4487  2.6087  0.1667
27732SOL     OW88006   2.159   9.930   5.815  0.2856  0.0095 -0.1602
27732SOL    HW188007   2.207   9.863   5.767 -0.9623 -0.6700 -0.4887
27732SOL    HW288008   2.121   9.884   5.890 -1.6177  0.0307 -1.0574
27733SOL     OW88009   9.969   6.518   1.145 -0.1315  0.0320  0.2387
27733SOL    HW188010   9.913   6.583   1.102  0.8934  1.9864  1.6546
27733SOL    HW288011  10.059   6.547   1.124  0.3551 -1.0380  0.7859
27734SOL     OW88012   1.223   6.983   1.232  0.2391 -0.2861 -0.9510
27734SOL    HW188013   1.157   7.036   1.277  1.4908  0.1382  0.4885
27734SOL    HW288014   1.305   7.032   1.244  1.0661 -1.4932 -1.4410
27735SOL     OW88015  12.582   3.839   3.007 -0.5504  0.1096 -0.4026
27735SOL    HW188016  12.582   3.793   2.923  1.5929 -0.3294 -0.2262
27735SOL    HW288017  12.645   3.910   2.995  2.2325 -1.7968  1.6990
27736SOL     OW88018   0.136   3.651   9.800 -0.1014  0.3612  0.3203
27736SOL    HW188019   0.141   3.733   9.751  1.3795 -0.0419 -0.2630
27736SOL    HW288020   0.130   3.678   9.891  1.8249  1.1698  0.2663
27737SOL     OW88021  11.926   7.180  11.896 -0.1012  0.7888  0.3394
27737SOL    HW188022  12.019   7.185  11.876 -0.1429 -0.2791 -0.2219
27737SOL    HW288023  11.887   7.253  11.847  0.1676 -0.1179 -1.2956
27738SOL     OW88024   7.569   9.810   4.572  0.0515  0.1438 -0.1546
27738SOL    HW188025   7.502   9.866   4.533  0.7816 -0.0299 -1.7298
27738SOL    HW288026   7.567   9.729   4.521  1.2928  0.0378 -0.0776
27739SOL     OW88027   6.126  10.860   2.000  0.1500 -0.3802  0.5812
27739SOL    HW188028   6.119  10.883   2.093 -0.1175 -0.8798  0.6909
27739SOL    HW288029   6.099  10.939   1.954  1.1543  0.1651  0.9116
27740SOL     OW88030   6.065   7.137   0.493  0.0050  0.2313 -0.0874
27740SOL    HW188031   6.026   7.184   0.419  2.1947  0.1272 -1.3949
27740SOL    HW288032   6.109   7.205   0.544  0.7955 -0.0060 -0.4291
27741SOL     OW88033   7.507   7.024   3.062 -0.7292 -0.2521 -0.0761
27741SOL    HW188034   7.489   7.007   2.970  1.5649 -2.1744 -0.2748
27741SOL    HW288035   7.581   7.084   3.062  0.9903 -2.2652  0.3888
27742SOL     OW88036   8.415   3.242   1.431  0.5275  0.2617 -0.2564
27742SOL    HW188037   8.455   3.290   1.359  1.2581  1.0116  0.6251
27742SOL    HW288038   8.447   3.152   1.421 -0.9860 -0.1374 -2.0125
27743SOL     OW88039   8.400   8.601  11.497 -0.1690  0.1604  0.0362
27743SOL    HW188040   8.474   8.606  11.559  1.2601  0.8750 -1.6261
27743SOL    HW288041   8.368   8.511  11.504  0.1498  0.1360  1.5648
27744SOL     OW88042  10.579   9.906   2.131  0.0295 -0.3392 -0.9272
27744SOL    HW188043  10.633   9.827   2.142  0.6522  0.1935 -0.0120
27744SOL    HW288044  10.491   9.878   2.154 -0.1955 -1.3136 -2.7823
27745SOL     OW88045  11.783   1.175   4.102 -0.0435  0.0151  0.1023
27745SOL    HW188046  11.734   1.105   4.145  1.5575 -1.2438  0.0121
27745SOL    HW288047  11.749   1.256   4.141 -1.9248 -0.7902  0.2317
27746SOL     OW88048   5.223   5.636   1.149  0.7038 -0.0939 -0.1918
27746SOL    HW188049   5.208   5.543   1.164 -2.0693  0.2504 -0.4705
27746SOL    HW288050   5.206   5.649   1.055  0.2685  0.8153 -0.0003
27747SOL     OW88051   2.576   1.229   6.215 -0.2486 -0.3449  0.0265
27747SOL    HW188052   2.524   1.218   6.295 -0.7372  0.5318 -0.1656
27747SOL    HW288053   2.625   1.146   6.207 -0.3007 -0.5019  1.1470
27748SOL     OW88054  12.127   0.250   1.957  0.1369 -0.0545  0.1458
27748SOL    HW188055  12.217   0.220   1.971  1.0901  2.8348  0.7949
27748SOL    HW288056  12.086   0.245   2.043  0.5337  1.0876  0.4214
27749SOL     OW88057   0.771  10.873   0.438  0.5075 -0.6391  0.2215
27749SOL    HW188058   0.789  10.783   0.410 -0.1144 -0.6896 -0.0349
27749SOL    HW288059   0.849  10.922   0.412  0.7842 -1.0755  0.2174
27750SOL     OW88060   2.577   2.343   6.200 -0.0487  0.9045  0.6318
27750SOL    HW188061   2.534   2.390   6.129  1.4115  1.5794  0.1507
27750SOL    HW288062   2.548   2.252   6.190  0.3670  0.9252 -1.0171
27751SOL     OW88063   9.805   7.335   8.973 -0.0260 -0.1804 -0.0474
27751SOL    HW188064   9.857   7.388   9.033  1.5671  0.0637 -1.5650
27751SOL    HW288065   9.838   7.246   8.986 -1.1738 -0.4966  0.9197
27752SOL     OW88066   1.730   6.535   1.327  0.3044 -0.1602 -0.0922
27752SOL    HW188067   1.644   6.517   1.364  0.5483 -1.1064  0.0431
27752SOL    HW288068   1.778   6.579   1.398  0.0528  0.0416 -0.0468
27753SOL     OW88069   2.242  10.604   7.424  0.3399 -0.2949 -0.1993
27753SOL    HW188070   2.179  10.612   7.495  0.2063 -2.4463  0.0050
27753SOL    HW288071   2.189  10.606   7.344  0.2986  0.4255 -0.1535
27754SOL     OW88072   7.746   4.224   7.802 -0.2613  0.1118  0.0813
27754SOL    HW188073   7.767   4.255   7.890 -0.1340  0.5405 -0.0995
27754SOL    HW288074   7.826   4.239   7.751 -0.6914  0.8875 -0.3779
27755SOL     OW88075   8.466   6.303  10.490  0.3429 -0.1448  0.0335
27755SOL    HW188076   8.529   6.245  10.447  1.3004  0.7098  0.2244
27755SOL    HW288077   8.407   6.330  10.420  0.0907 -1.0578 -0.1233
27756SOL     OW88078   6.111   6.993  12.375 -0.3868  0.0862  0.3717
27756SOL    HW188079   6.079   7.063  12.432 -1.4929  2.1002 -2.4892
27756SOL    HW288080   6.061   6.916  12.402  0.7152  0.3286  3.4807
27757SOL     OW88081   2.834   9.056   1.906  0.1288  0.4114 -0.5826
27757SOL    HW188082   2.755   9.006   1.885  0.8274 -0.9513 -0.1171
27757SOL    HW288083   2.903   8.989   1.913  0.6361  1.0830  2.5791
27758SOL     OW88084  11.303   4.525   2.573  0.1290 -0.2637  0.1358
27758SOL    HW188085  11.359   4.494   2.644 -0.9593 -2.4874  0.0952
27758SOL    HW288086  11.228   4.565   2.618 -1.3014 -2.9892  0.4142
27759SOL     OW88087   9.255   0.188   2.550  0.0067  0.2849  0.2548
27759SOL    HW188088   9.274   0.099   2.581  1.8764  1.4572  2.8715
27759SOL    HW288089   9.159   0.195   2.556 -0.1147 -1.3234  0.6879
27760SOL     OW88090   6.645   5.877   6.183  0.0016  0.2560 -0.1917
27760SOL    HW188091   6.667   5.849   6.272  1.5159  0.4058 -0.5027
27760SOL    HW288092   6.573   5.819   6.157  1.3141 -1.6169  0.1551
27761SOL     OW88093   3.603   0.719   4.419  0.3284  0.1811  0.6564
27761SOL    HW188094   3.597   0.787   4.351 -1.0094 -1.3717 -0.8720
27761SOL    HW288095   3.514   0.710   4.451  0.5908 -0.4952  1.2155
27762SOL     OW88096   2.592   3.638   2.552  0.4367 -0.8370  0.0568
27762SOL    HW188097   2.627   3.727   2.550  1.1661 -1.0171  1.9863
27762SOL    HW288098   2.577   3.621   2.645 -0.4284 -2.4563 -0.3443
27763SOL     OW88099   8.054   0.488   7.675  0.1795  0.4074  0.4446
27763SOL    HW188100   8.104   0.524   7.748 -0.4668 -0.4639  1.3458
27763SOL    HW288101   8.047   0.395   7.694 -3.0206  0.6841  1.1580
27764SOL     OW88102   6.827   6.147   5.818  0.3603  0.3287  0.0175
27764SOL    HW188103   6.888   6.211   5.781 -0.2232  0.3813 -0.9084
27764SOL    HW288104   6.744   6.195   5.824  0.6572  0.6580  2.4752
27765SOL     OW88105   0.562   5.961   2.310  0.2397  0.6239 -0.0990
27765SOL    HW188106   0.550   5.953   2.216  0.4513  3.2603 -0.4187
27765SOL    HW288107   0.645   6.007   2.321  1.2975 -1.4738  1.5029
27766SOL     OW88108   9.068   2.183  12.136  0.3673  0.1637  0.1340
27766SOL    HW188109   9.026   2.100  12.158  0.5526 -0.1379 -0.5999
27766SOL    HW288110   9.129   2.199  12.207 -0.1522  0.0191  0.6240
27767SOL     OW88111  10.877   8.285   9.252  0.2259 -0.1709  0.2392
27767SOL    HW188112  10.948   8.253   9.195 -1.2084 -2.7082 -0.2729
27767SOL    HW288113  10.817   8.330   9.192 -0.2931 -1.1059  0.0299
27768SOL     OW88114   6.720   8.906  10.157  0.0403  0.1919  0.5018
27768SOL    HW188115   6.661   8.893  10.231  0.4029  0.0078  0.7643
27768SOL    HW288116   6.679   8.861  10.084  0.7920 -1.6155  1.1491
27769SOL     OW88117  11.806   2.633   7.650  0.0847  0.4532 -0.7013
27769SOL    HW188118  11.742   2.610   7.718  0.5698  0.5557 -0.2116
27769SOL    HW288119  11.885   2.656   7.697 -0.1722  2.5885 -1.1703
27770SOL     OW88120   0.642   8.495   5.728 -1.1280 -0.0766 -0.1533
27770SOL    HW188121   0.621   8.587   5.744 -1.2215 -0.0494 -0.4237
27770SOL    HW288122   0.559   8.449   5.740 -0.3608 -0.7280  4.1866
27771SOL     OW88123   9.779   3.535   3.755 -0.2011  0.1667  0.1644
27771SOL    HW188124   9.830   3.463   3.793  1.4474  1.5308  0.6702
27771SOL    HW288125   9.771   3.599   3.826 -0.7553  0.9253 -0.5650
27772SOL     OW88126   2.295   3.473   8.145 -0.0599 -0.1228  0.2137
27772SOL    HW188127   2.356   3.518   8.086  0.0286 -0.8675 -0.2770
27772SOL    HW288128   2.225   3.443   8.087 -0.8170  0.5719  0.7457
27773SOL     OW88129  10.260  10.239   9.152  0.0655  0.2749 -0.1779
27773SOL    HW188130  10.225  10.287   9.226 -0.8017  0.8067 -0.9067
27773SOL    HW288131  10.337  10.193   9.186 -0.6805  0.0058  1.1890
27774SOL     OW88132  11.742   8.835   0.132 -0.1699  0.4903  0.5046
27774SOL    HW188133  11.807   8.766   0.123 -0.8511 -0.0185 -0.7933
27774SOL    HW288134  11.711   8.827   0.223  0.6704 -0.0644  0.7562
27775SOL     OW88135   8.101   1.212   9.777  0.4540 -0.7400  0.6266
27775SOL    HW188136   8.105   1.306   9.798 -1.0814 -0.7127  0.9624
27775SOL    HW288137   8.140   1.204   9.691  2.7607 -0.1539  1.5539
27776SOL     OW88138   6.432   6.442   2.889  0.2555  0.7122 -0.1357
27776SOL    HW188139   6.380   6.391   2.827  1.4329 -1.8690  0.8481
27776SOL    HW288140   6.522   6.412   2.876  0.6147  0.4743  2.3817
27777SOL     OW88141   3.680   4.274  12.075 -0.9164  0.2325  0.1335
27777SOL    HW188142   3.590   4.294  12.102 -1.0178 -0.2244  0.1395
27777SOL    HW288143   3.683   4.178  12.069 -0.0565  0.1556  1.4518
27778SOL     OW88144   7.794   8.749   1.480  0.3984  0.6005 -0.1252
27778SOL    HW188145   7.744   8.670   1.458 -1.5367  1.2486  1.5915
27778SOL    HW288146   7.817   8.787   1.395 -1.8946  0.1198 -1.0365
27779SOL     OW88147   7.332   0.370   6.678 -0.4862 -0.2177 -0.0584
27779SOL    HW188148   7.321   0.275   6.673 -0.1314 -0.3019  0.6288
27779SOL    HW288149   7.352   0.396   6.588  1.0103 -1.0081  0.0064
27780SOL     OW88150   1.223   3.469   7.258 -0.1477  0.2322  0.1120
27780SOL    HW188151   1.136   3.504   7.280  0.3001  0.4821  1.6136
27780SOL    HW288152   1.282   3.510   7.322  1.4096  1.5587 -2.0650
27781SOL     OW88153  11.393  12.633   6.616 -0.1223  0.0184 -0.0201
27781SOL    HW188154  11.403  12.564   6.551 -0.6390  0.9046 -1.0813
27781SOL    HW288155  11.457  12.700   6.589 -0.1367  0.2718  0.5587
27782SOL     OW88156  10.139   7.210   5.482 -0.2544  0.3776 -0.5296
27782SOL    HW188157  10.115   7.207   5.575  1.8571  0.1651  0.0531
27782SOL    HW288158  10.143   7.304   5.462  5.0738  0.8758  1.3560
27783SOL     OW88159   1.191   3.228  12.090  0.1015  0.2441 -0.5169
27783SOL    HW188160   1.280   3.200  12.069  0.6438  2.5514 -1.6116
27783SOL    HW288161   1.139   3.202  12.015 -0.2273 -1.2215  0.1790
27784SOL     OW88162   3.384   3.005  11.203 -0.4846 -0.9134 -0.2569
27784SOL    HW188163   3.401   3.068  11.134 -0.0233  1.9105  2.2107
27784SOL    HW288164   3.302   2.963  11.178 -0.5531  0.2941 -2.2641
27785SOL     OW88165   1.897   3.593   1.757  0.0515  0.2095  0.9181
27785SOL    HW188166   1.913   3.653   1.684 -0.9715 -1.5954 -0.9329
27785SOL    HW288167   1.936   3.510   1.728 -0.0026 -0.4556  2.6432
27786SOL     OW88168   6.970  11.603  11.529  0.3327 -0.2144 -0.5229
27786SOL    HW188169   6.892  11.576  11.578 -1.2041 -0.1203 -2.7639
27786SOL    HW288170   6.958  11.566  11.442  2.1406  0.9524 -1.3335
27787SOL     OW88171   4.985   7.673   7.976 -0.1819  0.4336  0.1161
27787SOL    HW188172   5.003   7.637   8.062 -2.1142 -0.2969  0.2633
27787SOL    HW288173   4.896   7.643   7.955  0.1275  0.8272 -2.0055
27788SOL     OW88174   2.889  12.401   3.407  0.3888  0.5286  0.1419
27788SOL    HW188175   2.796  12.419   3.401  0.7195  2.6017  0.3434
27788SOL    HW288176   2.913  12.428   3.496  1.0012 -1.0212  0.4799
27789SOL     OW88177   5.343   7.030   3.395 -0.5125  0.1965  0.3251
27789SOL    HW188178   5.365   6.951   3.346 -1.8305  1.1835 -2.0070
27789SOL    HW288179   5.401   7.097   3.359 -1.3564  0.8959  0.2514
27790SOL     OW88180   5.225  10.119   0.929  0.0724 -0.1667  0.0288
27790SOL    HW188181   5.166  10.048   0.955 -0.5666  0.2067 -0.3960
27790SOL    HW288182   5.292  10.119   0.997 -0.5387 -0.4456  0.6463
27791SOL     OW88183   1.628  10.456   4.583 -0.3948  0.1502  0.1303
27791SOL    HW188184   1.660  10.366   4.575 -0.0364  0.1180  1.6846
27791SOL    HW288185   1.681  10.495   4.653 -0.1273  1.7729 -0.9068
27792SOL     OW88186   0.385   8.769   3.163  0.3090 -0.0426  0.6552
27792SOL    HW188187   0.297   8.803   3.180  0.5689  0.8828  0.2140
27792SOL    HW288188   0.378   8.675   3.179 -1.1737 -0.2525 -0.9720
27793SOL     OW88189   6.703   9.162   9.424  0.4810 -0.5136 -0.4839
27793SOL    HW188190   6.662   9.220   9.488  0.7547  0.1241 -0.8781
27793SOL    HW288191   6.675   9.074   9.450 -0.1436 -0.1873 -0.0322
27794SOL     OW88192   4.278  12.457   4.302  0.1800 -0.0873  0.4532
27794SOL    HW188193   4.349  12.442   4.240 -0.4813 -1.8188  0.0722
27794SOL    HW288194   4.301  12.403   4.378  0.0883  0.6401  1.0145
27795SOL     OW88195   1.648   9.730  10.590 -0.0114  0.0522 -0.4298
27795SOL    HW188196   1.715   9.709  10.655  0.6255  0.0959 -1.0628
27795SOL    HW288197   1.640   9.825  10.593 -2.2807 -0.1052  1.8266
27796SOL     OW88198   4.225   2.594  11.195  0.0283 -0.9260 -0.3013
27796SOL    HW188199   4.176   2.593  11.277  1.4945 -3.1443  0.6402
27796SOL    HW288200   4.159   2.580  11.127 -0.8253 -2.5388  0.8007
27797SOL     OW88201   5.856   0.074  12.338  0.1412  0.0423  0.0678
27797SOL    HW188202   5.843  -0.009  12.292  0.9557 -0.2746  0.3882
27797SOL    HW288203   5.805   0.138  12.288 -0.0056 -0.5375 -0.5348
27798SOL     OW88204  11.163   9.755   5.486  0.0027  0.1690  0.0904
27798SOL    HW188205  11.171   9.820   5.555 -0.5491  0.9441 -0.5643
27798SOL    HW288206  11.195   9.674   5.526  0.0642  0.6868  1.1237
27799SOL     OW88207   1.810   6.381   3.177 -0.3587 -0.0260 -0.1231
27799SOL    HW188208   1.741   6.357   3.116  1.4185 -0.2558 -2.1427
27799SOL    HW288209   1.840   6.298   3.214 -0.7799  0.0307  0.3645
27800SOL     OW88210   7.377   8.035  10.440  0.0315 -0.1749 -0.4599
27800SOL    HW188211   7.307   8.100  10.446  0.2646 -0.0332  1.5444
27800SOL    HW288212   7.448   8.071  10.492  1.4676 -0.5288 -2.0869
27801SOL     OW88213   9.381   4.746   4.950  0.4124  1.1425  0.0374
27801SOL    HW188214   9.468   4.730   4.985  1.3304 -2.2967 -3.1233
27801SOL    HW288215   9.391   4.735   4.855 -3.3630  0.9771 -0.5025
27802SOL     OW88216   1.858   9.762   3.474  0.0097  0.4599 -0.8833
27802SOL    HW188217   1.814   9.791   3.554  2.4785  1.0509  0.3393
27802SOL    HW288218   1.864   9.841   3.420 -2.6433 -0.1528 -2.2771
27803SOL     OW88219   1.497   1.868   8.277 -0.5416 -0.5602 -0.3504
27803SOL    HW188220   1.466   1.902   8.361 -0.6064 -0.1652 -0.5300
27803SOL    HW288221   1.533   1.944   8.232 -0.8554 -0.6916 -0.8380
27804SOL     OW88222   2.236   6.243   6.778 -0.1704  0.1869 -0.2454
27804SOL    HW188223   2.261   6.332   6.803  0.1803 -0.9957  4.3301
27804SOL    HW288224   2.316   6.205   6.742  0.4729  0.9031  0.3910
27805SOL     OW88225   6.120   7.795  11.504  0.2146 -0.0242 -0.7533
27805SOL    HW188226   6.038   7.794  11.553  0.2566  0.9757 -0.6479
27805SOL    HW288227   6.188   7.798  11.572  0.2525  2.4834 -0.8392
27806SOL     OW88228   6.140   4.631   9.883 -0.1794 -1.0897 -0.1501
27806SOL    HW188229   6.054   4.587   9.880  0.1451 -1.7057 -0.8784
27806SOL    HW288230   6.202   4.560   9.902  0.4025 -1.0561 -1.7879
27807SOL     OW88231   9.555  11.472   9.041 -0.2392  0.4204 -0.5161
27807SOL    HW188232   9.462  11.478   9.020 -0.4346 -2.3665 -0.8227
27807SOL    HW288233   9.595  11.435   8.962  1.0462  0.9839 -0.1549
27808SOL     OW88234   6.690   3.445   3.062 -0.1179 -0.8063 -0.5483
27808SOL    HW188235   6.612   3.498   3.078  0.7913  0.2887  0.4178
27808SOL    HW288236   6.763   3.502   3.084  0.9169 -2.4238  0.3947
27809SOL     OW88237   0.837   5.689   6.313 -0.0523 -0.1399  0.0630
27809SOL    HW188238   0.792   5.640   6.381 -0.5982 -0.4959 -0.5426
27809SOL    HW288239   0.836   5.631   6.237 -0.1167  0.5459 -0.4709
27810SOL     OW88240  12.050   6.074   4.659  0.4095 -0.0030 -0.1082
27810SOL    HW188241  12.007   6.150   4.620 -0.6572  0.0878  1.1498
27810SOL    HW288242  11.978   6.021   4.692  1.2315 -0.1389  1.5783
27811SOL     OW88243   1.544  10.339  12.469  0.0931  0.0087 -0.4772
27811SOL    HW188244   1.611  10.407  12.472 -2.7209  3.0426  0.1213
27811SOL    HW288245   1.499  10.347  12.553  0.5391 -3.7695  0.2783
27812SOL     OW88246   6.782   8.270   3.426  0.3029 -0.1081 -0.2794
27812SOL    HW188247   6.748   8.329   3.492  0.5122  0.6276 -0.8121
27812SOL    HW288248   6.761   8.182   3.458  0.5344  0.2304  0.8212
27813SOL     OW88249   1.337   3.967   1.743  0.9334 -0.4048 -0.0117
27813SOL    HW188250   1.301   4.046   1.784  1.3933 -0.5522  0.7023
27813SOL    HW288251   1.426   3.990   1.720  0.7475 -0.3966 -0.7493
27814SOL     OW88252   0.733   2.583   8.521 -0.1360 -0.4472  0.6837
27814SOL    HW188253   0.768   2.614   8.605 -1.2054  0.5708  0.7888
27814SOL    HW288254   0.666   2.648   8.498  1.6275  0.5506 -2.0879
27815SOL     OW88255  11.424   8.912   1.326 -0.3172  0.2325 -0.6225
27815SOL    HW188256  11.440   8.864   1.245 -0.0785  1.7739 -1.5458
27815SOL    HW288257  11.511   8.929   1.362 -0.3830  0.2044 -0.4494
27816SOL     OW88258   1.538   1.494  10.065  0.3739  0.2357  0.3392
27816SOL    HW188259   1.497   1.409  10.055  0.1556  0.4243 -0.4387
27816SOL    HW288260   1.630   1.475  10.086  0.4935 -0.1876 -0.5586
27817SOL     OW88261   5.963  10.435   9.305  0.2513  0.1962  0.4835
27817SOL    HW188262   6.052  10.468   9.318  0.0275  0.3379  1.7953
27817SOL    HW288263   5.908  10.496   9.354 -0.2597 -1.5771  2.2788
27818SOL     OW88264   1.419   9.109   3.792  0.2600  0.7828  0.9071
27818SOL    HW188265   1.474   9.044   3.749  2.9633  1.9993  2.2940
27818SOL    HW288266   1.419   9.184   3.732  1.8169  1.4936  1.7382
27819SOL     OW88267   4.408   4.825   1.077  0.1062 -0.9609  0.3371
27819SOL    HW188268   4.388   4.918   1.083  1.5479 -0.5334 -0.7297
27819SOL    HW288269   4.492   4.816   1.124 -0.0662 -1.7373  0.5086
27820SOL     OW88270   7.290   2.296   3.393  0.0663 -0.1056 -0.0121
27820SOL    HW188271   7.243   2.350   3.330  0.4556 -0.0229 -0.2375
27820SOL    HW288272   7.256   2.322   3.478 -2.4403 -2.1120 -0.2929
27821SOL     OW88273   5.711   1.518   4.214 -0.1411  0.8950  0.3458
27821SOL    HW188274   5.755   1.457   4.155 -0.7291 -0.6752  1.4682
27821SOL    HW288275   5.781   1.573   4.248  0.2908  1.4272 -1.3112
27822SOL     OW88276   6.358  12.647   9.075 -0.7810 -0.5276 -0.0318
27822SOL    HW188277   6.388  12.704   9.146 -1.5966  1.5231 -1.2409
27822SOL    HW288278   6.289  12.594   9.115 -0.8289  0.1878  0.8770
27823SOL     OW88279   0.866   4.811  12.527 -0.0341  0.0636  0.4578
27823SOL    HW188280   0.940   4.788  12.472  1.2381  0.3435  1.9792
27823SOL    HW288281   0.844   4.730  12.573 -1.5393 -0.3499 -0.9150
27824SOL     OW88282  10.119   7.915   4.864  0.9362  0.3878 -0.1529
27824SOL    HW188283  10.158   8.002   4.852 -0.1257  0.8460 -0.3802
27824SOL    HW288284  10.072   7.898   4.782 -0.1840  0.2985  0.4847
27825SOL     OW88285   1.116   6.970  10.352 -0.1816  0.1253 -0.0782
27825SOL    HW188286   1.151   7.053  10.383  1.0042 -0.5095  0.3612
27825SOL    HW288287   1.025   6.969  10.382  0.7278 -0.2287  3.0572
27826SOL     OW88288   5.333   8.314   7.819 -0.1658 -0.5787 -0.0218
27826SOL    HW188289   5.310   8.252   7.889  0.1692  0.4001  0.9928
27826SOL    HW288290   5.383   8.383   7.864 -0.9459  0.6775 -1.0181
27827SOL     OW88291   7.945  11.655  12.089 -0.4344  0.2717 -0.5481
27827SOL    HW188292   7.854  11.683  12.084  0.0257  1.8854 -0.3118
27827SOL    HW288293   7.978  11.692  12.170  0.9119  1.2714 -1.5016
27828SOL     OW88294   9.734   2.249   6.764 -0.5326  0.7711 -0.6620
27828SOL    HW188295   9.808   2.293   6.803  0.7100 -1.8985  0.2296
27828SOL    HW288296   9.771   2.198   6.691 -1.3874 -0.7905 -0.0595
27829SOL     OW88297   6.794   1.923  11.161  0.5810  0.4549 -0.4680
27829SOL    HW188298   6.719   1.967  11.121  1.4217  1.8380 -0.5885
27829SOL    HW288299   6.758   1.884  11.241 -0.2163  1.3503 -0.3604
27830SOL     OW88300   8.927   6.402  10.682 -0.5062  0.3156  0.2308
27830SOL    HW188301   8.989   6.371  10.748 -1.4345 -0.7258  0.6600
27830SOL    HW288302   8.949   6.353  10.603 -0.7646 -0.0547  0.3830
27831SOL     OW88303   0.240   4.782   8.743  0.4757  0.0232 -1.0192
27831SOL    HW188304   0.300   4.783   8.668  0.4155 -0.7024 -1.0898
27831SOL    HW288305   0.213   4.690   8.750 -0.4651  0.3040 -0.8599
27832SOL     OW88306   7.882   5.805   3.722 -0.0507 -0.0819 -0.2058
27832SOL    HW188307   7.866   5.767   3.808 -0.0009  1.0644  0.3228
27832SOL    HW288308   7.824   5.756   3.663 -1.4455  0.3295  0.7710
27833SOL     OW88309  11.925  12.195   3.255 -0.1840 -0.0996  0.8108
27833SOL    HW188310  11.906  12.160   3.342 -2.2088  3.1475  1.8194
27833SOL    HW288311  11.983  12.270   3.271  1.4322 -0.8716 -0.9461
27834SOL     OW88312   1.589   6.722   5.921  0.3051  0.0370  0.1933
27834SOL    HW188313   1.580   6.630   5.896  0.0809  0.0284  0.2997
27834SOL    HW288314   1.618   6.719   6.012 -1.6950  0.0526  0.8964
27835SOL     OW88315  11.260   8.609   5.447  0.4626  0.0113  0.1139
27835SOL    HW188316  11.280   8.701   5.463  0.5035 -0.1686  1.1361
27835SOL    HW288317  11.290   8.564   5.525 -2.3116 -0.4851  0.9831
27836SOL     OW88318   7.193   2.512   3.261  0.4931 -0.0459  0.1041
27836SOL    HW188319   7.129   2.575   3.229 -1.3672 -1.2566  1.2525
27836SOL    HW288320   7.266   2.565   3.293 -1.4509  1.6407  1.9996
27837SOL     OW88321  11.053  10.400  10.362 -0.0086  0.0923  0.5172
27837SOL    HW188322  11.111  10.330  10.391  0.7365  0.8365  0.8567
27837SOL    HW288323  11.082  10.477  10.411 -1.1202  0.5390  0.4996
27838SOL     OW88324  12.171  10.639  10.519 -0.1931 -0.2975  0.7328
27838SOL    HW188325  12.214  10.555  10.502 -1.7087 -1.0417  0.3609
27838SOL    HW288326  12.231  10.704  10.482  1.2346 -1.1490  1.4400
27839SOL     OW88327  11.903   6.486   1.275 -0.2194  0.5653 -0.4880
27839SOL    HW188328  11.986   6.445   1.302 -0.6771  1.0499  1.9213
27839SOL    HW288329  11.865   6.423   1.213  0.9975 -0.6690 -0.0492
27840SOL     OW88330   6.855  11.874   6.339 -0.0449 -0.1402  0.1976
27840SOL    HW188331   6.809  11.867   6.422 -1.5311  0.4689 -0.5209
27840SOL    HW288332   6.836  11.791   6.294 -0.0851 -0.0654  0.0756
27841SOL     OW88333  10.690  10.745   5.844 -0.1330  0.4779 -0.2766
27841SOL    HW188334  10.685  10.840   5.832  0.0600  0.4383 -0.6946
27841SOL    HW288335  10.648  10.729   5.928 -1.2644  0.8059 -0.7631
27842SOL     OW88336   0.495   4.843   4.933 -0.6810 -0.4128  0.1392
27842SOL    HW188337   0.572   4.897   4.912 -0.6585 -0.1156  0.9575
27842SOL    HW288338   0.526   4.753   4.921  0.1684 -0.3532  1.5767
27843SOL     OW88339   5.574   3.769   9.800 -0.1247  0.0499  0.0105
27843SOL    HW188340   5.630   3.721   9.861  1.3659  2.2876  0.5668
27843SOL    HW288341   5.500   3.798   9.852 -1.2950 -1.9775 -0.4526
27844SOL     OW88342   4.854   9.057   3.491  0.0744 -0.3893 -0.7105
27844SOL    HW188343   4.798   9.070   3.415  1.1670  0.1054 -1.4645
27844SOL    HW288344   4.943   9.055   3.455  0.5284 -1.6411  0.3793
27845SOL     OW88345   9.199   2.279   5.651  0.2523 -0.2587  0.4180
27845SOL    HW188346   9.201   2.349   5.586 -0.9428 -0.6394 -0.0550
27845SOL    HW288347   9.219   2.199   5.601  2.4948 -0.2122  1.1003
27846SOL     OW88348   6.121   6.980   8.531 -0.1637 -0.1474  0.1180
27846SOL    HW188349   6.068   6.949   8.604  1.4092  0.9900  1.8346
27846SOL    HW288350   6.064   7.040   8.483 -0.5179  0.8837  1.7824
27847SOL     OW88351   5.638   4.246   5.900 -0.2738 -0.1265  0.8541
27847SOL    HW188352   5.684   4.204   5.827 -0.2062  0.1474  0.7396
27847SOL    HW288353   5.608   4.173   5.954  0.0605 -0.3164  0.7870
27848SOL     OW88354   9.008   6.331   2.468 -0.7831  0.3883  0.1269
27848SOL    HW188355   8.934   6.391   2.473 -0.2344  1.0526  0.3098
27848SOL    HW288356   8.974   6.256   2.419 -1.5783  0.6778  0.2196
27849SOL     OW88357   9.477   4.021   6.730  0.2527 -0.0849 -0.4000
27849SOL    HW188358   9.402   3.983   6.684 -0.7928  0.3550  0.8507
27849SOL    HW288359   9.496   3.958   6.799 -0.4424  0.8290  0.6704
27850SOL     OW88360  10.108   4.909   5.183 -0.0073 -0.0679  0.1497
27850SOL    HW188361  10.071   4.897   5.271 -0.0315  0.4299  0.2131
27850SOL    HW288362  10.057   4.851   5.127 -2.5443  2.2485 -0.1927
27851SOL     OW88363  11.232  12.128  11.800 -0.4083 -0.7235  0.6398
27851SOL    HW188364  11.144  12.121  11.763  0.6198  0.3816 -2.2759
27851SOL    HW288365  11.276  12.047  11.772  0.4152  0.1762 -0.8090
27852SOL     OW88366   4.306   2.703   6.477  0.4005  0.1033  0.0403
27852SOL    HW188367   4.336   2.749   6.399  0.8058  0.4262  0.3795
27852SOL    HW288368   4.385   2.668   6.516  0.2030 -0.0306  0.3232
27853SOL     OW88369   5.916  10.729  11.775 -0.0421  0.3315 -0.5428
27853SOL    HW188370   5.852  10.732  11.704 -0.6376 -0.1980 -0.0397
27853SOL    HW288371   5.942  10.637  11.780  0.1814  0.4098 -0.2315
27854SOL     OW88372  12.088   6.746   7.595 -0.3727  0.0363  0.8680
27854SOL    HW188373  12.081   6.739   7.500  0.3767  2.0538  0.6103
27854SOL    HW288374  12.018   6.807   7.620  0.9708  1.5160  1.2360
27855SOL     OW88375   6.333   3.183   9.859  0.5983 -0.6513 -0.3958
27855SOL    HW188376   6.422   3.218   9.852  0.9259 -0.6028  2.6070
27855SOL    HW288377   6.322   3.163   9.952 -3.3047  1.4301 -0.1957
27856SOL     OW88378  10.455  12.245   7.496 -0.3196 -0.1702  0.1321
27856SOL    HW188379  10.440  12.291   7.414  1.4837 -1.0935 -0.7794
27856SOL    HW288380  10.395  12.171   7.494 -0.0566 -0.3660 -0.5132
27857SOL     OW88381   8.445   9.197   6.243 -0.1358  0.1685 -0.1689
27857SOL    HW188382   8.414   9.241   6.322  0.9624  1.3577 -0.3650
27857SOL    HW288383   8.528   9.157   6.269 -0.4021 -0.5287 -0.3877
27858SOL     OW88384   0.670   5.560  10.070 -0.4205  0.4298  0.4622
27858SOL    HW188385   0.702   5.470  10.069 -0.2237  0.4552 -2.1654
27858SOL    HW288386   0.685   5.590  10.160  1.5929 -1.4260  0.8218
27859SOL     OW88387   0.494   3.799  10.017 -0.0346 -0.2307  0.5986
27859SOL    HW188388   0.405   3.796  10.052  0.2423  1.0120  1.4722
27859SOL    HW288389   0.510   3.711   9.984 -1.0548 -0.8838  1.7842
27860SOL     OW88390   5.152   3.332   5.169  0.0973  1.0996  1.1315
27860SOL    HW188391   5.070   3.376   5.149 -1.0165 -1.2723  0.2570
27860SOL    HW288392   5.130   3.267   5.235  1.0142 -0.3672  0.0459
27861SOL     OW88393   2.241  11.259  11.550  0.1447  0.0604 -0.0523
27861SOL    HW188394   2.150  11.285  11.541 -0.1643 -0.9281  0.1528
27861SOL    HW288395   2.240  11.187  11.612  1.1617  0.5443  0.5520
27862SOL     OW88396   4.737  11.185   3.595  0.5935 -0.3115 -0.6028
27862SOL    HW188397   4.829  11.170   3.573  0.9920  1.3126 -0.1415
27862SOL    HW288398   4.721  11.124   3.667  1.0004 -1.3338 -1.3468
27863SOL     OW88399  10.703  11.163   5.585 -0.2204 -0.0060  0.1811
27863SOL    HW188400  10.772  11.143   5.521  1.2025 -0.2038  1.6983
27863SOL    HW288401  10.633  11.203   5.533  0.0840 -1.8101 -1.7605
27864SOL     OW88402   2.643   3.849   0.709  0.1917 -0.2443 -0.3902
27864SOL    HW188403   2.689   3.778   0.754  0.7682  0.0520 -0.4951
27864SOL    HW288404   2.575   3.805   0.658  1.4260 -0.8738 -1.5565
27865SOL     OW88405   0.729  11.567   3.412 -0.8101  0.2601  0.1203
27865SOL    HW188406   0.744  11.508   3.485 -0.7077 -1.4559 -1.2182
27865SOL    HW288407   0.787  11.641   3.428  1.4200 -1.4440  0.2908
27866SOL     OW88408   0.991  12.025   0.258  0.1933  0.3235  0.4315
27866SOL    HW188409   1.010  12.080   0.182 -1.9423  0.6171  0.0314
27866SOL    HW288410   1.050  11.950   0.250  0.0549  0.3840 -1.5041
27867SOL     OW88411   4.163   6.228   4.460  0.4434  0.3222 -0.5026
27867SOL    HW188412   4.197   6.213   4.372  0.1315  0.2833 -0.6167
27867SOL    HW288413   4.072   6.254   4.447 -0.0114 -0.9683 -0.1384
27868SOL     OW88414   5.453  10.517   0.635 -0.0062  0.0457  0.0648
27868SOL    HW188415   5.450  10.452   0.704 -0.3047  1.3501  1.3351
27868SOL    HW288416   5.401  10.590   0.669  0.6593  1.1087 -1.1233
27869SOL     OW88417   5.245   8.538   3.464 -0.6640 -0.1417  0.0943
27869SOL    HW188418   5.215   8.477   3.396  1.1068 -1.3715  0.3535
27869SOL    HW288419   5.207   8.622   3.439 -1.4133 -0.9091 -1.4875
27870SOL     OW88420   3.781   1.309   0.540  0.1768  0.2203  0.2581
27870SOL    HW188421   3.821   1.266   0.465 -0.0586  1.6161 -0.6996
27870SOL    HW288422   3.838   1.385   0.558  0.3128 -0.1593  1.5878
27871SOL     OW88423   5.266   0.694  12.603 -0.1669  0.2468  0.2963
27871SOL    HW188424   5.172   0.691  12.583 -0.0496 -1.4702 -0.1342
27871SOL    HW288425   5.291   0.785  12.586 -1.6722  0.6384  0.0413
27872SOL     OW88426   9.799  10.999   7.665  0.0092  0.5445 -0.0650
27872SOL    HW188427   9.802  10.915   7.710  1.6522  0.2997 -0.5627
27872SOL    HW288428   9.706  11.021   7.661 -0.3044 -0.2050  1.9554
27873SOL     OW88429  10.384  10.378   6.456 -0.1872 -0.5467  0.0769
27873SOL    HW188430  10.300  10.341   6.483  0.0298 -0.5825  0.7259
27873SOL    HW288431  10.377  10.389   6.361 -0.0749 -2.7186 -0.2372
27874SOL     OW88432  10.867   4.388   9.814 -0.0345 -0.2372  0.4114
27874SOL    HW188433  10.812   4.330   9.866  2.2504 -0.7573  2.4127
27874SOL    HW288434  10.939   4.333   9.782  0.6684  0.8981 -0.0514
27875SOL     OW88435   8.937  11.815   9.861 -0.1612  0.5123 -0.1578
27875SOL    HW188436   8.872  11.849   9.923 -0.6319  1.6838 -1.2377
27875SOL    HW288437   8.886  11.782   9.788  0.4191  1.1451 -0.8769
27876SOL     OW88438   9.290   1.229   8.171 -0.1337 -0.1712 -0.6726
27876SOL    HW188439   9.299   1.199   8.080  1.0349 -0.3173 -0.5181
27876SOL    HW288440   9.375   1.264   8.193 -0.5566  0.3162  0.2217
27877SOL     OW88441   7.842  12.473  10.492 -0.4676  0.2876  0.2822
27877SOL    HW188442   7.870  12.481  10.583 -1.2141 -0.6360  0.6049
27877SOL    HW288443   7.877  12.551  10.449  0.2916  0.4937  1.2536
27878SOL     OW88444   2.328  11.580   6.618  0.0175  0.5786 -0.8987
27878SOL    HW188445   2.276  11.660   6.612  1.8184  1.8654 -0.1875
27878SOL    HW288446   2.274  11.520   6.668 -1.6426  1.0934 -1.9871
27879SOL     OW88447   4.873   1.010   3.552  0.2583 -0.6007 -0.5813
27879SOL    HW188448   4.817   1.019   3.475 -0.6173 -3.2553 -0.3651
27879SOL    HW288449   4.812   1.007   3.626  0.7255 -2.2581 -0.2216
27880SOL     OW88450  11.622   4.009  11.789 -0.4227  0.4246 -0.0017
27880SOL    HW188451  11.528   3.994  11.779 -0.1070 -0.5914 -1.8527
27880SOL    HW288452  11.658   3.996  11.701  1.4546  0.7999  0.6686
27881SOL     OW88453   6.766   6.898   8.168  0.0836 -0.0001  0.5438
27881SOL    HW188454   6.732   6.902   8.257  2.4554  0.7880  1.5023
27881SOL    HW288455   6.690   6.916   8.112 -1.1670  1.0628  2.4653
27882SOL     OW88456   4.481   3.425   7.743  0.5036 -0.0202 -0.1077
27882SOL    HW188457   4.439   3.510   7.730  0.5066 -0.0570 -0.3528
27882SOL    HW288458   4.426   3.363   7.695  0.7156 -0.1005 -0.2470
27883SOL     OW88459   5.423   5.009   3.398 -0.4645  0.0205 -0.2368
27883SOL    HW188460   5.491   5.057   3.350 -0.3536 -1.6416 -1.8523
27883SOL    HW288461   5.352   4.999   3.334 -0.9395 -0.9768  0.4308
27884SOL     OW88462   4.578   1.629  10.481 -0.0621  0.1441  0.3021
27884SOL    HW188463   4.540   1.678  10.555 -3.5254 -1.0191 -0.5079
27884SOL    HW288464   4.613   1.697  10.423  0.3760  1.2348  1.7733
27885SOL     OW88465   6.879   4.035   0.880  0.4365 -0.4674  0.1753
27885SOL    HW188466   6.926   4.118   0.873  0.6114 -0.6468 -1.0651
27885SOL    HW288467   6.826   4.044   0.959  0.7782  0.6579  0.2950
27886SOL     OW88468  12.282   2.567   6.164  0.0671 -0.4006  0.9860
27886SOL    HW188469  12.269   2.533   6.076  1.1192  1.9044 -0.1610
27886SOL    HW288470  12.357   2.518   6.198  0.3638 -0.5551  0.1293
27887SOL     OW88471   0.379   2.734   5.969  0.0296 -0.4777 -0.0587
27887SOL    HW188472   0.310   2.795   5.996 -1.1283 -2.1044  0.7700
27887SOL    HW288473   0.424   2.710   6.050 -0.0041 -1.2964 -0.2771
27888SOL     OW88474   9.319  12.069   6.525 -0.4781 -0.1906  0.0466
27888SOL    HW188475   9.342  12.031   6.440 -1.1908 -0.4246 -0.0547
27888SOL    HW288476   9.306  12.162   6.507  0.0803 -0.1127  0.0459
27889SOL     OW88477   3.340   8.329   4.260 -0.1980 -0.0176 -1.1054
27889SOL    HW188478   3.279   8.340   4.333 -1.2778 -0.5686 -1.8866
27889SOL    HW288479   3.421   8.372   4.289 -0.9294  0.6725 -0.0024
27890SOL     OW88480   1.692   7.652   5.688  0.1701 -0.2478  0.0851
27890SOL    HW188481   1.597   7.652   5.704  0.1982  0.3618  0.2798
27890SOL    HW288482   1.729   7.698   5.763  0.5234  0.4702 -0.5103
27891SOL     OW88483  11.595   9.527   3.821 -0.6285  0.0745  0.2846
27891SOL    HW188484  11.624   9.487   3.739 -0.8008  0.3982  0.0668
27891SOL    HW288485  11.509   9.488   3.838 -0.7360  0.2541  0.1446
27892SOL     OW88486   2.637   5.116   0.230 -0.5508 -0.3589  0.6275
27892SOL    HW188487   2.690   5.043   0.199  2.7548  2.2842 -0.5489
27892SOL    HW288488   2.641   5.181   0.160 -2.6051  1.3328  1.9415
27893SOL     OW88489   7.997  10.858   1.520  0.2659  0.2234 -0.2371
27893SOL    HW188490   7.955  10.773   1.535 -0.0249  0.4973  0.5753
27893SOL    HW288491   7.927  10.913   1.483 -0.0592  0.6142  0.9060
27894SOL     OW88492   9.265   2.727  11.912  1.0297  0.3093 -0.3280
27894SOL    HW188493   9.263   2.812  11.955 -0.0554  0.7511 -1.2091
27894SOL    HW288494   9.328   2.737  11.841  1.4291  0.1533  0.0015
27895SOL     OW88495  11.565   0.725   5.369  0.0834  0.0994 -0.2826
27895SOL    HW188496  11.482   0.678   5.374  0.6856 -0.8850  0.7792
27895SOL    HW288497  11.587   0.724   5.275 -1.0904  0.3957 -0.5817
27896SOL     OW88498   5.073  10.765   0.347  1.0204  0.3985 -0.1262
27896SOL    HW188499   5.139  10.719   0.296  1.4343  1.4125 -0.5298
27896SOL    HW288500   5.105  10.856   0.351  0.5134  0.5480  1.1089
27897SOL     OW88501   7.334   5.564   5.698 -0.5658  0.6871 -0.0709
27897SOL    HW188502   7.301   5.628   5.762  2.0403 -0.8030  3.0662
27897SOL    HW288503   7.419   5.599   5.670  0.3999 -0.7755  0.8704
27898SOL     OW88504   0.355  12.391   1.244  0.4469  0.1426 -0.3643
27898SOL    HW188505   0.287  12.337   1.203 -0.3267  1.8232 -1.4337
27898SOL    HW288506   0.314  12.426   1.323  0.7637 -0.4111  0.0475
27899SOL     OW88507   8.765   7.411   2.134  0.4362 -0.2186  0.7725
27899SOL    HW188508   8.673   7.436   2.129  1.0075  2.2691  1.1345
27899SOL    HW288509   8.808   7.465   2.069  1.9644  0.6185  2.3923
27900SOL     OW88510   9.529   2.500  10.242 -0.1924 -0.3186 -0.5062
27900SOL    HW188511   9.619   2.532  10.235 -0.4036  0.0678 -1.5395
27900SOL    HW288512   9.539   2.406  10.258  0.4044 -0.0346  0.9890
27901SOL     OW88513   1.334   2.206  12.226 -0.2518  0.0372  0.1224
27901SOL    HW188514   1.286   2.126  12.244  0.3832 -0.4186 -0.1618
27901SOL    HW288515   1.278   2.255  12.166 -1.8000  0.9819  2.2124
27902SOL     OW88516   0.966   5.345   7.289 -0.1685 -0.1937  0.2285
27902SOL    HW188517   0.992   5.366   7.379 -0.9603 -1.8100  0.8956
27902SOL    HW288518   1.047   5.350   7.238  0.9054 -2.0048  1.6175
27903SOL     OW88519  11.354   1.131   1.819  0.5867  0.3027 -0.2538
27903SOL    HW188520  11.266   1.117   1.855  0.2904  2.9951  0.2681
27903SOL    HW288521  11.339   1.154   1.728  1.1384 -3.2634 -1.4155
27904SOL     OW88522   3.407   4.703  11.751 -0.5065  0.7067 -0.6841
27904SOL    HW188523   3.401   4.620  11.704 -0.5137 -1.0710  2.2616
27904SOL    HW288524   3.494   4.736  11.730 -0.5093  0.0106 -1.9048
27905SOL     OW88525   0.494   6.770   5.431  0.1338  0.0335  0.4255
27905SOL    HW188526   0.587   6.772   5.406 -0.1874  1.3677 -0.7743
27905SOL    HW288527   0.495   6.767   5.527  1.4324  1.2222  0.4880
27906SOL     OW88528   9.037   3.393   4.664  0.3347  0.2216 -0.3794
27906SOL    HW188529   9.119   3.366   4.621 -0.0821 -0.6107 -0.6823
27906SOL    HW288530   9.040   3.352   4.750  0.0927 -0.0878 -0.5149
27907SOL     OW88531   3.539   2.185   3.914 -0.0061 -0.1137 -0.2679
27907SOL    HW188532   3.513   2.256   3.973 -0.3532 -0.9053  0.5317
27907SOL    HW288533   3.459   2.163   3.866 -0.1640 -0.7131  0.2684
27908SOL     OW88534  10.061   5.764  10.499 -0.1620  0.1433 -0.1825
27908SOL    HW188535  10.021   5.680  10.521 -1.0822  0.8346  0.9192
27908SOL    HW288536  10.127   5.778  10.568  0.1755  0.2046 -0.5155
27909SOL     OW88537   2.454   9.304   2.520 -0.1912  0.1914 -0.1742
27909SOL    HW188538   2.490   9.392   2.531 -0.4336  0.1499  1.0273
27909SOL    HW288539   2.386   9.296   2.587  0.9434 -1.4881  0.8607
27910SOL     OW88540   9.495   8.651   8.628 -0.7662 -0.5315 -0.3995
27910SOL    HW188541   9.582   8.677   8.658 -0.6753  0.9608 -1.8056
27910SOL    HW288542   9.450   8.734   8.612 -2.6795 -1.2573  0.8320
27911SOL     OW88543   8.005   0.991   2.935 -0.1595 -0.5560 -0.7824
27911SOL    HW188544   8.082   0.944   2.904  0.4645 -0.5565  0.6696
27911SOL    HW288545   8.039   1.049   3.004 -1.5101 -0.8966  0.2063
27912SOL     OW88546   2.806  10.578  12.578  0.2682  0.7436 -0.3222
27912SOL    HW188547   2.794  10.559  12.671 -0.8428 -0.2593 -0.6506
27912SOL    HW288548   2.891  10.622  12.574  0.4465  0.5929  1.1353
27913SOL     OW88549   6.423   1.298   2.638 -0.0181  0.2076 -0.3170
27913SOL    HW188550   6.435   1.218   2.689 -2.3024  0.2395  0.3797
27913SOL    HW288551   6.429   1.269   2.547  1.7389 -0.2634 -0.0851
27914SOL     OW88552   4.057   6.679   3.749 -0.6607  0.0049 -0.7341
27914SOL    HW188553   4.145   6.651   3.723  0.7289  2.6391  0.6177
27914SOL    HW288554   4.018   6.603   3.791  3.3718  0.1283  4.1089
27915SOL     OW88555   7.094   7.625   7.017  0.3576 -0.6100  0.1920
27915SOL    HW188556   7.066   7.696   6.958 -0.4671 -0.9625  0.1455
27915SOL    HW288557   7.072   7.657   7.104  1.4052 -0.1689  0.3106
27916SOL     OW88558  11.872  10.792   8.769 -0.8665 -0.1430 -0.3012
27916SOL    HW188559  11.810  10.798   8.842 -0.2136  0.9510  0.1940
27916SOL    HW288560  11.846  10.862   8.710 -0.0635  0.4016 -0.0334
27917SOL     OW88561   4.986   6.821   2.481  0.1238 -0.1669 -0.3818
27917SOL    HW188562   5.002   6.844   2.390 -1.1240 -1.5291 -0.9741
27917SOL    HW288563   5.013   6.730   2.489  2.5476  0.5984  1.2742
27918SOL     OW88564  10.645   0.815   2.272 -0.2995  0.0407 -0.4720
27918SOL    HW188565  10.658   0.723   2.250  0.5473  0.5371 -2.2457
27918SOL    HW288566  10.632   0.816   2.367 -1.1800 -1.9740 -0.5228
27919SOL     OW88567  10.128   8.348   0.238 -0.0258  0.4197 -0.3629
27919SOL    HW188568  10.174   8.273   0.276  0.3708  1.9254  2.4096
27919SOL    HW288569  10.039   8.342   0.273 -0.0422  1.0926 -0.2662
27920SOL     OW88570   3.170  10.699   7.263  0.0828 -0.0386 -0.0802
27920SOL    HW188571   3.098  10.734   7.211 -1.4759 -1.0259  1.3194
27920SOL    HW288572   3.140  10.613   7.291  2.3356 -1.0089 -0.4722
27921SOL     OW88573   0.534  11.469   0.036  0.7548  0.3974 -0.5595
27921SOL    HW188574   0.574  11.382   0.028 -0.7466 -0.3792  0.1897
27921SOL    HW288575   0.588  11.514   0.101 -0.1592 -1.0101  1.2382
27922SOL     OW88576  11.541  10.145  12.205  0.1099  0.4315 -0.3949
27922SOL    HW188577  11.579  10.139  12.117 -0.8222  1.0787 -0.8629
27922SOL    HW288578  11.589  10.216  12.247  0.4578  0.2208 -0.4320
27923SOL     OW88579   9.703   7.544  11.943  0.1729  0.0685  0.4357
27923SOL    HW188580   9.630   7.483  11.931  0.6539 -0.5081  0.4099
27923SOL    HW288581   9.743   7.518  12.025  1.1360 -0.4516 -0.1874
27924SOL     OW88582   4.271   8.792   8.351 -0.5570  0.2981 -0.0826
27924SOL    HW188583   4.283   8.711   8.401 -1.3509 -0.1104 -0.5277
27924SOL    HW288584   4.338   8.851   8.385 -1.0688  0.0343  1.4574
27925SOL     OW88585   6.036   6.676   7.842 -0.7597  0.2854  0.3740
27925SOL    HW188586   6.066   6.655   7.930  0.6820 -0.3092 -0.2211
27925SOL    HW288587   5.941   6.664   7.845 -0.6106 -0.7728  1.5525
27926SOL     OW88588  10.277   1.277   1.055  0.2378 -0.0006 -0.1133
27926SOL    HW188589  10.320   1.283   1.140 -1.3058  0.7667  0.6611
27926SOL    HW288590  10.348   1.263   0.993  1.2608 -3.0585  1.5194
27927SOL     OW88591   6.514   6.296   6.706 -0.2599  0.0651 -0.9315
27927SOL    HW188592   6.534   6.340   6.789 -1.7905 -0.3297 -0.3188
27927SOL    HW288593   6.565   6.343   6.641  1.1540  0.2557  0.2534
27928SOL     OW88594   1.980   3.611  11.144 -0.3293 -0.2103  0.7641
27928SOL    HW188595   1.979   3.605  11.048  1.3546 -0.3485  0.7172
27928SOL    HW288596   2.002   3.523  11.173  2.0929  0.4080  1.0923
27929SOL     OW88597   5.921   2.728   4.179  0.4882 -0.0402  0.1316
27929SOL    HW188598   5.854   2.661   4.166  0.3919  0.2621 -1.0346
27929SOL    HW288599   5.885   2.785   4.247 -0.9197  0.6806 -1.1467
27930SOL     OW88600  10.368  12.613   7.716  0.0961 -0.3587 -0.5136
27930SOL    HW188601  10.337  12.625   7.626  1.9481  1.0586 -1.0302
27930SOL    HW288602  10.404  12.525   7.718 -1.4923 -1.0504 -0.6287
27931SOL     OW88603   8.632   7.690  12.019 -0.3199 -0.2235 -0.5768
27931SOL    HW188604   8.700   7.729  11.964 -0.0955  0.5291  0.2301
27931SOL    HW288605   8.556   7.748  12.008 -0.4832 -0.4373 -0.5897
27932SOL     OW88606   4.367  11.602  11.356  0.0568  0.1855 -0.2696
27932SOL    HW188607   4.363  11.664  11.430  2.5337  0.7256 -0.4721
27932SOL    HW288608   4.296  11.540  11.372  1.2746 -0.5206  3.3631
27933SOL     OW88609  12.265  11.276   3.291 -0.3895  0.5090  0.4714
27933SOL    HW188610  12.225  11.199   3.332 -0.5942  0.1252 -0.4219
27933SOL    HW288611  12.191  11.331   3.266 -0.2747  0.6516  0.4450
27934SOL     OW88612   0.918   8.309   3.313  0.3054 -0.5875  0.4250
27934SOL    HW188613   0.828   8.300   3.282  0.5560  0.3405 -0.6709
27934SOL    HW288614   0.971   8.308   3.233  1.2219 -0.6059  1.0158
27935SOL     OW88615   4.821   3.368  11.591 -0.2655  0.2396  0.2052
27935SOL    HW188616   4.829   3.458  11.624 -2.0136 -0.1657  1.9213
27935SOL    HW288617   4.806   3.378  11.498  0.1763  1.6873  0.2594
27936SOL     OW88618   3.497   6.938   4.392 -0.1050 -0.1957 -0.2136
27936SOL    HW188619   3.410   6.973   4.370  0.1710  1.8194  1.6025
27936SOL    HW288620   3.480   6.874   4.461 -0.1389  0.6487  0.5853
27937SOL     OW88621  12.251  10.182   8.992  0.1405 -0.0930 -0.1225
27937SOL    HW188622  12.271  10.247   8.924  0.9951  0.0774  0.2771
27937SOL    HW288623  12.313  10.111   8.977 -0.9172 -0.9358 -0.6754
27938SOL     OW88624   7.255  11.073   2.691 -0.5660  0.6420 -0.3887
27938SOL    HW188625   7.187  11.023   2.736  0.4990 -0.6122 -0.1229
27938SOL    HW288626   7.303  11.007   2.640 -1.0678  1.8474 -2.5613
27939SOL     OW88627  11.762   4.133   4.675 -0.8835  0.2592 -0.1133
27939SOL    HW188628  11.827   4.068   4.701  0.0990  0.8559 -1.0189
27939SOL    HW288629  11.726   4.166   4.757 -1.8727 -1.8492  0.3814
27940SOL     OW88630  10.471   3.687   5.852  0.3196  0.2481  0.2329
27940SOL    HW188631  10.469   3.778   5.821 -0.6069 -0.1423 -0.9179
27940SOL    HW288632  10.527   3.690   5.930 -0.4978  1.9888  0.8192
27941SOL     OW88633   5.428   8.737   6.841 -0.1972  0.3745 -0.3208
27941SOL    HW188634   5.414   8.710   6.750  3.9475 -2.6128 -0.3718
27941SOL    HW288635   5.369   8.680   6.891  0.6380 -1.1890 -1.0207
27942SOL     OW88636   7.942  10.992   6.758 -0.1741  0.1896  0.4619
27942SOL    HW188637   7.949  10.914   6.704 -1.9173 -0.3913  1.0164
27942SOL    HW288638   8.025  10.996   6.806  0.4912 -0.5172 -0.6064
27943SOL     OW88639   5.730  10.263  11.370 -0.2590 -0.0171 -0.2598
27943SOL    HW188640   5.810  10.279  11.321 -0.6069 -1.2808 -1.3070
27943SOL    HW288641   5.750  10.188  11.426 -1.3662 -1.9979 -2.3476
27944SOL     OW88642   7.297   2.131   9.539  0.2507 -0.1032 -0.1816
27944SOL    HW188643   7.218   2.134   9.485 -0.0441  0.0195  0.2544
27944SOL    HW288644   7.278   2.189   9.613  0.7607 -0.0485 -0.0931
27945SOL     OW88645  11.566   4.793   5.427  0.0417  0.4915 -0.1285
27945SOL    HW188646  11.492   4.743   5.461  1.2975  0.4225  2.8571
27945SOL    HW288647  11.640   4.733   5.433  0.5216  0.7260 -2.5791
27946SOL     OW88648   2.799   4.401  12.002 -0.0403 -0.1138  0.0169
27946SOL    HW188649   2.779   4.351  12.081  1.8197  0.1144  0.6592
27946SOL    HW288650   2.804   4.492  12.031 -0.1068  0.0645 -0.5160
27947SOL     OW88651  10.780   8.597   8.982  0.6637 -0.5028  0.6041
27947SOL    HW188652  10.834   8.520   8.964  2.5936  0.9305 -0.1172
27947SOL    HW288653  10.740   8.619   8.898 -0.6038 -1.2017  1.0032
27948SOL     OW88654  11.747   9.207   1.304 -0.2499 -0.1267 -0.5985
27948SOL    HW188655  11.700   9.290   1.295 -0.4890 -0.3686 -1.8385
27948SOL    HW288656  11.829   9.221   1.256  0.9313  0.2363  1.4015
27949SOL     OW88657  12.613   7.041   5.120  0.6215  0.4670 -0.1319
27949SOL    HW188658  12.589   7.071   5.033 -0.9599 -1.9675 -0.6242
27949SOL    HW288659  12.643   6.951   5.108 -1.7972 -0.7650  2.0454
27950SOL     OW88660   5.709   5.415   1.844  0.3894 -0.0731 -0.3561
27950SOL    HW188661   5.797   5.381   1.860  1.0920  1.4237 -0.9018
27950SOL    HW288662   5.679   5.368   1.766  0.3732 -1.1431  0.2704
27951SOL     OW88663   2.704   8.737   8.097  0.0441 -0.0299 -0.0411
27951SOL    HW188664   2.662   8.791   8.030  0.4586  0.2791 -0.0559
27951SOL    HW288665   2.658   8.654   8.093 -0.0783  0.0577 -0.5669
27952SOL     OW88666   0.593   2.983  12.338  0.2553  0.1017 -0.3371
27952SOL    HW188667   0.620   2.985  12.430  3.1458  0.6024 -1.0846
27952SOL    HW288668   0.592   3.075  12.312 -2.5786  0.1364 -0.3678
27953SOL     OW88669  10.299   1.399   5.466  0.8965  0.2948 -0.2636
27953SOL    HW188670  10.203   1.391   5.460  0.8386  1.1677 -0.6004
27953SOL    HW288671  10.313   1.482   5.512  1.4966 -0.0772  0.2403
27954SOL     OW88672   5.110  10.212   2.889  0.2686 -0.9039  0.0812
27954SOL    HW188673   5.167  10.288   2.896  1.8945 -2.0374 -0.2046
27954SOL    HW288674   5.032  10.245   2.844  0.6559  0.7058  0.5102
27955SOL     OW88675   5.368   4.023   9.788 -0.1904 -0.2621 -0.6361
27955SOL    HW188676   5.352   3.968   9.712 -1.5584 -0.9583  0.1106
27955SOL    HW288677   5.463   4.024   9.799  0.2892  1.7248 -3.6732
27956SOL     OW88678   8.034  10.584   2.734  0.2361 -0.0099 -0.1834
27956SOL    HW188679   8.083  10.625   2.805 -0.9646  0.5186  0.3563
27956SOL    HW288680   8.002  10.657   2.682 -0.6678 -0.3132 -0.0602
27957SOL     OW88681   0.146  11.225   9.641  0.3187 -0.4455 -0.0046
27957SOL    HW188682   0.222  11.170   9.624 -0.1687 -1.2476  0.3124
27957SOL    HW288683   0.106  11.186   9.719 -0.2954  0.0863 -0.0462
27958SOL     OW88684  10.782  11.144   6.904 -0.2823 -0.2125  0.1254
27958SOL    HW188685  10.819  11.113   6.986 -1.8993 -2.3598  0.1123
27958SOL    HW288686  10.770  11.238   6.917  1.2959 -0.1671  1.5869
27959SOL     OW88687  11.982   6.486   5.011  0.1110  0.1998  0.3803
27959SOL    HW188688  11.945   6.401   4.988  0.0022 -0.2141  1.9717
27959SOL    HW288689  12.061   6.493   4.957  0.7440 -1.4198  1.0322
27960SOL     OW88690   7.306  12.243   0.396  0.0849  0.2418 -0.2928
27960SOL    HW188691   7.274  12.238   0.306  1.1426  0.6613 -0.7027
27960SOL    HW288692   7.234  12.284   0.445 -0.8478 -0.7757 -0.7511
27961SOL     OW88693   6.740   0.137   9.834  0.0735 -0.9078  0.3076
27961SOL    HW188694   6.703   0.053   9.861  0.3716 -1.3266 -0.5490
27961SOL    HW288695   6.754   0.128   9.740 -0.2285  0.2354  0.1370
27962SOL     OW88696   7.635   5.576   0.935  0.1644  0.1545 -0.4620
27962SOL    HW188697   7.545   5.607   0.936  0.0862  0.0430 -2.0400
27962SOL    HW288698   7.688   5.655   0.947 -0.1190  0.4036 -0.8394
27963SOL     OW88699  11.004  11.971  10.143  0.0579  0.3310  0.2637
27963SOL    HW188700  11.006  11.876  10.160  0.8019  0.3840  0.5110
27963SOL    HW288701  11.083  12.004  10.185  1.2267  0.6764 -2.0092
27964SOL     OW88702   7.097   3.029   6.677  0.8081 -0.6136  0.2857
27964SOL    HW188703   7.114   3.122   6.662 -2.0045 -0.1088 -0.3061
27964SOL    HW288704   7.060   2.999   6.594  0.3758 -1.9295  0.9386
27965SOL     OW88705   2.010  10.952   2.639 -0.2642  0.1472  0.2019
27965SOL    HW188706   1.945  11.002   2.687 -0.2267 -0.6625  1.1397
27965SOL    HW288707   2.008  10.865   2.679  1.4005  0.1036  0.2909
27966SOL     OW88708   7.821   9.075   9.370  0.5836 -0.0046  0.2799
27966SOL    HW188709   7.898   9.122   9.401  0.7498  0.4761 -0.7950
27966SOL    HW288710   7.761   9.074   9.444  1.2749  0.3802  0.8578
27967SOL     OW88711   2.586   9.885   3.644  0.0332 -0.5346 -0.3595
27967SOL    HW188712   2.515   9.821   3.653 -0.1045 -0.4148 -0.5720
27967SOL    HW288713   2.646   9.847   3.580  0.3882 -0.8359  0.1482
27968SOL     OW88714  11.416   8.459   0.670  0.1026 -0.1735  0.0889
27968SOL    HW188715  11.418   8.393   0.600 -0.0723  0.1940 -0.2648
27968SOL    HW288716  11.324   8.464   0.695 -0.1130  0.9144 -0.8326
27969SOL     OW88717   1.458   1.874  11.419  0.0961 -0.2798 -0.4579
27969SOL    HW188718   1.501   1.828  11.491 -0.7782 -1.2235 -0.5257
27969SOL    HW288719   1.501   1.839  11.340 -1.1878 -1.7105 -0.5656
27970SOL     OW88720   1.413   0.541  11.258 -0.3099  0.1032 -0.2086
27970SOL    HW188721   1.387   0.613  11.201 -0.6999 -0.3135 -0.5739
27970SOL    HW288722   1.331   0.514  11.301 -0.4629 -1.0988 -1.2177
27971SOL     OW88723   3.465   1.668  10.266 -0.1958 -0.1147 -0.0147
27971SOL    HW188724   3.500   1.705  10.347  0.8425  1.3996 -1.0822
27971SOL    HW288725   3.543   1.646  10.215 -0.7997 -2.6654  0.0281
27972SOL     OW88726   4.573   6.791   6.975  0.0816 -0.3182  0.1479
27972SOL    HW188727   4.588   6.883   6.953  1.1231 -0.8373 -1.4824
27972SOL    HW288728   4.660   6.757   6.996 -0.3976 -0.7716  1.5100
27973SOL     OW88729   5.076   2.751   9.105 -0.4978 -0.4103  0.0466
27973SOL    HW188730   4.995   2.793   9.077 -0.5585 -1.1060 -0.8641
27973SOL    HW288731   5.122   2.818   9.156 -1.8068 -0.1310  0.9085
27974SOL     OW88732  11.834   1.047   6.763 -0.4323 -0.0161 -0.2625
27974SOL    HW188733  11.777   1.123   6.749 -0.6259  0.6901  3.3442
27974SOL    HW288734  11.916   1.069   6.719 -1.3767  0.9898 -1.6174
27975SOL     OW88735  12.308   9.361  11.536  0.3675  0.1053 -0.1417
27975SOL    HW188736  12.312   9.352  11.631  1.6927 -0.0554 -0.1924
27975SOL    HW288737  12.283   9.274  11.505 -0.2429  0.2040  0.0614
27976SOL     OW88738  12.352   1.195   9.432  0.1030 -0.1958 -0.0448
27976SOL    HW188739  12.418   1.195   9.500 -0.3178 -0.9288  0.3703
27976SOL    HW288740  12.286   1.132   9.461 -0.3832 -0.0755 -0.8340
27977SOL     OW88741   0.242   9.107   8.956 -0.0852 -0.2196  0.1696
27977SOL    HW188742   0.211   9.043   8.892 -0.5536 -0.3409  0.5118
27977SOL    HW288743   0.283   9.054   9.024 -2.3011 -0.3571  1.4968
27978SOL     OW88744   3.072   2.697   6.050 -0.0917 -0.3308 -0.1322
27978SOL    HW188745   3.088   2.698   5.956  1.7619 -0.4239  0.1352
27978SOL    HW288746   3.001   2.759   6.063 -0.6285 -0.5846 -1.6140
27979SOL     OW88747   0.507   1.812   1.192  0.2066 -0.6317 -0.2789
27979SOL    HW188748   0.493   1.882   1.128 -0.2799  0.6573  1.1842
27979SOL    HW288749   0.467   1.735   1.151 -0.0828  0.1399 -1.5325
27980SOL     OW88750   5.851  10.172   6.025  0.1774  0.2640  0.3909
27980SOL    HW188751   5.789  10.215   6.083 -1.9162 -0.3597 -1.2472
27980SOL    HW288752   5.813  10.181   5.938  1.4097 -1.8229 -0.4490
27981SOL     OW88753   9.244   6.066   7.784  0.0931 -0.3109 -0.2415
27981SOL    HW188754   9.332   6.097   7.806 -0.8311  1.5410  1.1307
27981SOL    HW288755   9.191   6.146   7.781 -1.4505 -1.3242 -1.6513
27982SOL     OW88756  11.745   6.613   7.028 -0.0194 -0.3058 -0.1926
27982SOL    HW188757  11.840   6.616   7.017  0.0430  2.5843  0.4760
27982SOL    HW288758  11.732   6.550   7.099  1.2451 -1.7742 -1.1977
27983SOL     OW88759  10.219   3.133  10.660 -0.1368  0.7055  0.1121
27983SOL    HW188760  10.151   3.070  10.684 -1.3138  1.2518 -1.6466
27983SOL    HW288761  10.233   3.184  10.740 -0.0085 -0.9720  1.2169
27984SOL     OW88762  12.451   3.503   7.997 -0.1619  0.4111  0.4419
27984SOL    HW188763  12.496   3.568   7.943 -0.7411  1.5014  1.2433
27984SOL    HW288764  12.371   3.483   7.948 -0.4075  0.9685  0.6069
27985SOL     OW88765   0.589  12.501   6.351 -0.1558 -0.2260 -0.5024
27985SOL    HW188766   0.630  12.418   6.326 -1.1853 -0.4437 -1.5501
27985SOL    HW288767   0.531  12.477   6.423  1.6374  0.1219  1.1347
27986SOL     OW88768   2.832   9.026  10.734 -0.1399  0.0852 -0.2531
27986SOL    HW188769   2.849   8.964  10.806 -0.1753  0.5968  0.2014
27986SOL    HW288770   2.746   9.000  10.700 -0.3911  0.1987  0.2747
27987SOL     OW88771  11.420   0.278   1.225  0.2761  0.1629 -0.2596
27987SOL    HW188772  11.457   0.334   1.156 -0.2034 -1.8213 -2.2487
27987SOL    HW288773  11.326   0.281   1.210  0.1602 -0.2502  0.3563
27988SOL     OW88774  10.038   0.558   9.691  0.6156 -0.4398  0.0266
27988SOL    HW188775  10.113   0.504   9.666  0.0138 -1.6318  0.7027
27988SOL    HW288776   9.962   0.506   9.667 -0.0649  1.1339 -1.4925
27989SOL     OW88777   9.987   6.913   4.114  0.2913 -0.7757  0.3176
27989SOL    HW188778  10.046   6.985   4.134 -0.4383  0.4688 -1.7759
27989SOL    HW288779  10.034   6.835   4.144  1.7599  0.4074  1.2337
27990SOL     OW88780   2.241   6.579   2.836 -0.7320  0.7451 -0.4466
27990SOL    HW188781   2.278   6.662   2.803 -0.3500  1.0598  0.7093
27990SOL    HW288782   2.156   6.604   2.873 -0.6898  0.5971 -0.2487
27991SOL     OW88783  11.625   9.690  10.928  0.4764  0.4031  0.0870
27991SOL    HW188784  11.581   9.645  10.999  0.8723 -1.1190 -0.6026
27991SOL    HW288785  11.718   9.671  10.942  0.8222  2.2739  0.6330
27992SOL     OW88786   8.229   1.241  11.606  0.6319  0.7060  0.6329
27992SOL    HW188787   8.220   1.169  11.542 -0.2515  0.3726  1.1127
27992SOL    HW288788   8.249   1.318  11.553  2.9780 -0.1292  0.2140
27993SOL     OW88789   2.778  10.433   6.420  0.0393 -0.2274  0.1668
27993SOL    HW188790   2.838  10.507   6.407  0.7237 -0.6705  0.7407
27993SOL    HW288791   2.729  10.426   6.338  1.2831 -0.3163 -0.5794
27994SOL     OW88792   6.328  10.997  11.776 -0.1606 -0.7245 -0.1443
27994SOL    HW188793   6.393  10.966  11.839  0.4143  0.0781 -0.3313
27994SOL    HW288794   6.364  10.973  11.690  0.0687  0.0295 -0.2664
27995SOL     OW88795  10.230   2.994   2.160  0.2813  0.2059  0.2426
27995SOL    HW188796  10.220   2.999   2.065  1.5554 -2.4934 -0.1321
27995SOL    HW288797  10.142   2.976   2.193 -0.1592  1.1053 -0.4184
27996SOL     OW88798  12.141   7.350  12.628  0.1130 -0.1087 -0.2016
27996SOL    HW188799  12.116   7.429  12.676 -0.4712  0.1350 -0.8754
27996SOL    HW288800  12.069   7.336  12.566 -0.4929 -2.0003  0.8657
27997SOL     OW88801   4.635   8.165   7.837  0.5967  0.7025 -0.2713
27997SOL    HW188802   4.719   8.199   7.806  0.5989  0.8543 -0.1012
27997SOL    HW288803   4.654   8.075   7.864  0.5923  0.5674 -0.7181
27998SOL     OW88804   7.300   2.232   5.477  0.0946  0.1254  0.0822
27998SOL    HW188805   7.272   2.146   5.509  1.2009  0.0563  0.9166
27998SOL    HW288806   7.311   2.221   5.383  0.2742 -0.6632  0.1925
27999SOL     OW88807   1.546  11.837  11.441  0.3527  0.4959 -0.8028
27999SOL    HW188808   1.521  11.930  11.449 -0.1042  0.2284  2.9421
27999SOL    HW288809   1.464  11.792  11.421  0.2114  0.7503 -0.8003
28000SOL     OW88810   1.173   7.260  11.873  0.2751  0.2764  0.2072
28000SOL    HW188811   1.161   7.198  11.945  0.0300 -0.6304 -0.5870
28000SOL    HW288812   1.165   7.207  11.794 -0.1698  1.3703 -0.5121
28001SOL     OW88813  10.125   8.776  11.598  0.4819 -0.4490 -0.3376
28001SOL    HW188814  10.059   8.716  11.633 -1.2285  0.3557 -1.9697
28001SOL    HW288815  10.171   8.724  11.532  0.4075 -0.5637 -0.3000
28002SOL     OW88816   1.483  10.039  11.925  0.3574 -0.0738 -0.5016
28002SOL    HW188817   1.412   9.975  11.931 -0.1500  0.4121 -1.1943
28002SOL    HW288818   1.450  10.106  11.866  0.3967  1.4624  1.1330
28003SOL     OW88819  11.301  11.476  12.292 -0.0291 -0.5627 -0.4033
28003SOL    HW188820  11.335  11.540  12.355 -0.8748  1.0462 -1.5135
28003SOL    HW288821  11.250  11.415  12.346 -0.5408  0.6368  0.5365
28004SOL     OW88822  10.430   6.363  11.392 -0.3477  0.2108  0.6243
28004SOL    HW188823  10.395   6.307  11.462 -0.4049 -0.2326  0.2475
28004SOL    HW288824  10.442   6.448  11.434 -2.0122  0.4239  0.7401
28005SOL     OW88825   2.461   6.614   6.346  0.2928  0.6767 -0.3754
28005SOL    HW188826   2.444   6.574   6.261 -0.1365  0.8623 -0.3761
28005SOL    HW288827   2.542   6.664   6.334  0.8159 -0.1528 -0.3866
28006SOL     OW88828   3.010   5.444   5.259 -0.1644 -0.4704 -0.2342
28006SOL    HW188829   2.928   5.396   5.269 -0.4462  0.2720  1.2569
28006SOL    HW288830   2.995   5.527   5.303  0.4271  0.9173 -2.4530
28007SOL     OW88831   8.250   8.091   0.592  0.0437  0.1123 -0.1301
28007SOL    HW188832   8.187   8.031   0.630  0.2984 -1.2047 -1.6853
28007SOL    HW288833   8.219   8.105   0.502  0.2407  1.9619  0.0475
28008SOL     OW88834  11.690  12.212   3.695 -0.3040  0.3673 -0.3359
28008SOL    HW188835  11.665  12.134   3.745 -1.1929  0.6126 -0.3905
28008SOL    HW288836  11.701  12.281   3.760  0.4321  0.2167 -0.2930
28009SOL     OW88837  11.696   7.980   5.586 -0.6199  0.3857 -0.0005
28009SOL    HW188838  11.771   7.927   5.613 -0.0526  0.1413 -1.9561
28009SOL    HW288839  11.684   8.042   5.658  2.7721  1.8286 -0.4665
28010SOL     OW88840   5.660   8.306   6.946  0.0279  0.3282 -0.1608
28010SOL    HW188841   5.647   8.363   6.870 -0.9943 -1.9653 -1.8252
28010SOL    HW288842   5.725   8.243   6.917 -1.1700 -1.2454  0.4240
28011SOL     OW88843   1.195   7.104   6.867 -0.2765  0.7192  0.0529
28011SOL    HW188844   1.181   7.090   6.961 -0.2701  0.5598  0.0291
28011SOL    HW288845   1.225   7.195   6.861  1.2242  0.2684  0.3527
28012SOL     OW88846  12.561  12.412  10.016 -0.1496  0.5121 -0.4125
28012SOL    HW188847  12.597  12.458  10.091  1.4974  2.1037 -2.0598
28012SOL    HW288848  12.480  12.459   9.995  0.7071  1.7178 -1.1275
28013SOL     OW88849  12.441   8.751   5.175 -0.2658 -0.6806  0.0870
28013SOL    HW188850  12.529   8.758   5.139 -0.7986 -0.6579 -1.2603
28013SOL    HW288851  12.452   8.769   5.269  1.1175 -0.4783 -0.0920
28014SOL     OW88852   9.718   9.422   6.534  0.1227  0.5510  0.4639
28014SOL    HW188853   9.691   9.482   6.602 -0.2523  3.0500 -1.7317
28014SOL    HW288854   9.796   9.462   6.495  2.0484 -2.2192  1.1382
28015SOL     OW88855   7.380   5.739  12.093  0.2653 -0.6637 -0.0660
28015SOL    HW188856   7.387   5.647  12.117 -1.1170 -0.6416  0.5341
28015SOL    HW288857   7.337   5.738  12.007 -0.7110 -0.5794  0.4010
28016SOL     OW88858   0.014   2.889   5.010  0.2087 -0.8554 -0.4903
28016SOL    HW188859   0.045   2.931   4.929  0.4803  1.1689  0.5785
28016SOL    HW288860  -0.080   2.880   4.999  0.3019 -1.0088 -1.1988
28017SOL     OW88861   2.767   6.441  11.318  0.0733 -0.1470 -0.1075
28017SOL    HW188862   2.817   6.387  11.256 -1.9171 -1.7311 -0.4443
28017SOL    HW288863   2.791   6.531  11.296  0.8650 -0.7493 -1.9285
28018SOL     OW88864  11.399   7.396   4.539 -0.4116  0.4483 -0.0008
28018SOL    HW188865  11.307   7.370   4.548 -0.8347  1.4632 -1.0021
28018SOL    HW288866  11.394   7.486   4.505  0.9575  0.8125  0.7056
28019SOL     OW88867  10.754   0.906  10.165 -0.3928  0.0159  0.1388
28019SOL    HW188868  10.769   1.000  10.152  2.1513 -0.2804  0.4524
28019SOL    HW288869  10.758   0.894  10.260 -0.4315 -0.4353  0.0863
28020SOL     OW88870   2.120  11.008   1.741 -0.2517 -0.4278  0.4541
28020SOL    HW188871   2.132  11.036   1.831 -0.7008 -2.8689  1.3498
28020SOL    HW288872   2.026  10.995   1.732 -0.3928  1.1871 -0.8678
28021SOL     OW88873   0.578  11.881   0.749  0.0876 -0.8911  0.0851
28021SOL    HW188874   0.595  11.788   0.762 -1.8459 -1.5073 -1.2443
28021SOL    HW288875   0.664  11.921   0.744  1.0169 -2.8492 -0.7680
28022SOL     OW88876   6.137   7.696   9.512 -0.1114 -0.6864  0.0999
28022SOL    HW188877   6.089   7.748   9.576  0.7763 -1.8208  1.7494
28022SOL    HW288878   6.069   7.643   9.470 -0.6361 -0.3449  0.5034
28023SOL     OW88879   1.982   1.909   4.463  0.3229  0.1454  0.2376
28023SOL    HW188880   2.076   1.897   4.452  0.2498  0.6634 -1.1103
28023SOL    HW288881   1.943   1.869   4.385 -0.5150  0.7120  0.3444
28024SOL     OW88882   0.481   7.578   1.859 -0.3973  0.2122 -0.3544
28024SOL    HW188883   0.466   7.510   1.924 -2.5171  0.7572 -0.2056
28024SOL    HW288884   0.418   7.647   1.880  0.5402  1.4917 -1.5138
28025SOL     OW88885   1.438   4.385   1.112 -0.0525 -0.1135  0.1128
28025SOL    HW188886   1.499   4.411   1.043 -0.2443 -0.7775 -0.3155
28025SOL    HW288887   1.490   4.331   1.171 -0.1216 -0.3431 -0.0342
28026SOL     OW88888  11.068   1.920   1.834  0.0950  0.6866  0.3931
28026SOL    HW188889  11.118   1.844   1.864 -0.0541  0.0326 -0.9285
28026SOL    HW288890  11.133   1.976   1.792  0.0871  0.9733  0.7542
28027SOL     OW88891  11.311   1.676   9.111  0.2986 -0.5685  0.1154
28027SOL    HW188892  11.216   1.688   9.112  0.4943  1.2048  1.2354
28027SOL    HW288893  11.333   1.653   9.201  1.0178 -0.1542  0.0494
28028SOL     OW88894  11.342   7.688   0.806 -0.4174  0.2715  0.0523
28028SOL    HW188895  11.297   7.614   0.767 -1.8745  0.7758  0.7112
28028SOL    HW288896  11.411   7.649   0.860  0.1006 -0.4977 -1.1315
28029SOL     OW88897  12.582  11.319   9.505 -0.0825 -0.1146 -0.1725
28029SOL    HW188898  12.650  11.264   9.542  0.0193 -0.8739 -1.4381
28029SOL    HW288899  12.588  11.401   9.554 -0.2445 -1.2025  1.7449
28030SOL     OW88900   8.002   6.575   3.070  0.1567 -0.4363  0.5423
28030SOL    HW188901   7.988   6.485   3.101 -0.1526 -0.9522 -0.9843
28030SOL    HW288902   7.919   6.620   3.090  0.7654 -0.0933  2.4816
28031SOL     OW88903   3.023  11.228   4.897  0.1099 -0.2235 -0.5091
28031SOL    HW188904   2.966  11.305   4.891  1.9921  1.1908 -1.7832
28031SOL    HW288905   3.109  11.261   4.870  1.0411 -2.7447 -0.8609
28032SOL     OW88906   9.503   3.444  11.165  0.1671  0.4481  0.3431
28032SOL    HW188907   9.506   3.429  11.071  0.9733  1.4927  0.1974
28032SOL    HW288908   9.550   3.525  11.179  0.0314  0.3283  1.6537
28033SOL     OW88909   8.686  11.883  12.331  0.1588  0.6118 -0.2790
28033SOL    HW188910   8.685  11.824  12.256 -0.0363  0.2474  0.0086
28033SOL    HW288911   8.672  11.970  12.293  1.5526  0.6164 -0.8169
28034SOL     OW88912  11.386  12.563   1.843  0.2499  0.6759 -0.5020
28034SOL    HW188913  11.464  12.598   1.885 -0.2037  1.7350 -0.5105
28034SOL    HW288914  11.415  12.483   1.800  1.3987  1.2296 -0.7872
28035SOL     OW88915   9.406   6.011  12.592  0.0322 -0.3959 -0.4332
28035SOL    HW188916   9.443   6.051  12.513  0.5319  0.4152  0.1923
28035SOL    HW288917   9.449   5.925  12.597 -1.2990 -1.2145 -1.9716
28036SOL     OW88918   0.392   4.492   0.907 -0.3744 -0.4934 -0.2319
28036SOL    HW188919   0.471   4.488   0.853 -0.1718 -0.5625  0.0655
28036SOL    HW288920   0.402   4.418   0.967  0.4819  0.8561  1.3828
28037SOL     OW88921   8.704   6.374   9.765  0.0766 -0.0025  0.0692
28037SOL    HW188922   8.654   6.299   9.733 -0.3638  0.7277 -1.0280
28037SOL    HW288923   8.785   6.336   9.797 -0.0204 -0.9364 -0.7106
28038SOL     OW88924   6.208   5.890   7.640  0.2270  0.2539 -0.2936
28038SOL    HW188925   6.196   5.879   7.545  0.0058  1.8012 -0.4745
28038SOL    HW288926   6.226   5.983   7.651 -2.1562  0.5930  1.4215
28039SOL     OW88927   2.082   6.111   5.194  0.4974  0.2001 -0.1554
28039SOL    HW188928   2.146   6.145   5.256  1.0397  0.5674 -0.8942
28039SOL    HW288929   2.114   6.023   5.173  0.8243  0.4207 -0.5990
28040SOL     OW88930   9.625   7.098   2.729  0.7669 -0.4004  0.3552
28040SOL    HW188931   9.636   7.172   2.788 -2.0416  1.1712 -0.9288
28040SOL    HW288932   9.619   7.022   2.787 -0.1730  0.8556  1.9867
28041SOL     OW88933   2.135   8.244  10.588 -0.0290 -0.0115  0.1625
28041SOL    HW188934   2.222   8.280  10.609 -0.1049  0.5509 -0.4489
28041SOL    HW288935   2.084   8.321  10.561 -0.6272 -0.3851  0.2237
28042SOL     OW88936  12.123   8.113   7.931  0.3767  0.0386 -0.8024
28042SOL    HW188937  12.075   8.087   7.853 -1.6523 -0.7725  0.6386
28042SOL    HW288938  12.137   8.031   7.979  2.3206  0.4038 -0.6409
28043SOL     OW88939   1.834   5.157  11.136 -0.6563 -0.2572 -0.4333
28043SOL    HW188940   1.752   5.114  11.158 -0.4900 -0.0094  0.6870
28043SOL    HW288941   1.879   5.094  11.080 -1.8054 -0.1957 -1.4731
28044SOL     OW88942  11.365   2.252   0.411  0.2744 -0.5549  0.2682
28044SOL    HW188943  11.355   2.163   0.379  0.9630 -0.5396 -0.0241
28044SOL    HW288944  11.427   2.245   0.484  0.2623 -0.3320  0.3021
28045SOL     OW88945   2.601  10.661   2.890  0.4417  0.2653 -0.4747
28045SOL    HW188946   2.608  10.607   2.968  0.9415  0.5131 -0.3448
28045SOL    HW288947   2.656  10.618   2.825  2.9221  1.9231  0.3864
28046SOL     OW88948  11.666   3.200   0.618 -0.0622  0.4865  0.0087
28046SOL    HW188949  11.697   3.156   0.539 -0.2253 -0.1493  0.2896
28046SOL    HW288950  11.665   3.131   0.685  0.7828  1.1748  0.7576
28047SOL     OW88951   7.920   0.047   0.068 -0.1040 -0.2492  0.4928
28047SOL    HW188952   7.851   0.047   0.001 -0.7835  1.3652  1.1471
28047SOL    HW288953   7.966  -0.036   0.055  0.1103  0.2320 -2.2976
28048SOL     OW88954   8.764   2.487   2.966  0.4982  0.3801  0.2763
28048SOL    HW188955   8.734   2.492   3.057 -2.3984  0.7209 -0.6089
28048SOL    HW288956   8.794   2.575   2.945 -0.2667  0.6912  0.4667
28049SOL     OW88957   9.949  11.770   6.880  0.9907 -0.4559 -0.4046
28049SOL    HW188958   9.988  11.786   6.966  2.1262  0.6890 -1.0997
28049SOL    HW288959   9.905  11.852   6.858 -1.5278 -1.5655  0.1484
28050SOL     OW88960   1.983  10.839  11.426  0.0587  0.1323  0.3629
28050SOL    HW188961   1.929  10.899  11.476 -1.6021 -1.2184  0.2770
28050SOL    HW288962   2.067  10.839  11.473  0.0896  2.3854  0.4013
28051SOL     OW88963  11.422   9.438   6.571  0.1094 -0.4239  0.2904
28051SOL    HW188964  11.462   9.494   6.504  0.1666 -1.8269 -0.9053
28051SOL    HW288965  11.333   9.472   6.581  0.2221  0.0349 -0.2369
28052SOL     OW88966   2.334   0.622   9.450 -0.5031 -0.4386 -0.0116
28052SOL    HW188967   2.248   0.594   9.483 -0.9314  1.3421  0.5012
28052SOL    HW288968   2.371   0.543   9.411 -0.5710 -2.3840  3.4377
28053SOL     OW88969   2.197   9.778  11.803 -0.0288 -0.2856 -0.2608
28053SOL    HW188970   2.171   9.737  11.886  1.3037  0.8121  0.7378
28053SOL    HW288971   2.120   9.828  11.776 -0.4954 -0.7055  0.2558
28054SOL     OW88972   6.785   1.563  10.904  0.1837 -0.2865  0.0838
28054SOL    HW188973   6.754   1.540  10.992 -2.2570  2.0823 -0.0341
28054SOL    HW288974   6.810   1.655  10.911  0.6944 -0.2655 -1.5570
28055SOL     OW88975   6.289  11.632  12.311  0.7066 -0.1659 -0.1969
28055SOL    HW188976   6.341  11.712  12.299  1.4281 -0.8322 -1.8905
28055SOL    HW288977   6.353  11.561  12.300 -0.5175 -1.0171 -2.4379
28056SOL     OW88978   6.747   5.438   0.005  0.1200 -0.3110 -0.3180
28056SOL    HW188979   6.691   5.403  -0.064  0.5253 -1.1189 -0.2604
28056SOL    HW288980   6.692   5.499   0.053  0.3672  1.7699 -2.5011
28057SOL     OW88981   4.033   8.345  12.639  0.6360  0.5201  0.3204
28057SOL    HW188982   3.943   8.314  12.628  0.1550  1.5618  1.1907
28057SOL    HW288983   4.069   8.289  12.707  0.4276  0.5533  0.4581
28058SOL     OW88984   0.835   1.445   5.440 -0.5263  0.3946 -0.7660
28058SOL    HW188985   0.862   1.356   5.459  1.8771  1.3656  0.8520
28058SOL    HW288986   0.860   1.460   5.349 -2.8000 -1.1168 -1.7414
28059SOL     OW88987   0.181   4.848   6.802  0.1058  0.4614  0.2670
28059SOL    HW188988   0.239   4.796   6.746  2.2920  1.0517  1.8319
28059SOL    HW288989   0.160   4.789   6.875 -3.1856 -0.5039 -1.2561
28060SOL     OW88990   5.906   7.000   4.956 -0.1126 -0.0323  0.6531
28060SOL    HW188991   5.939   6.910   4.957  0.1708  0.0449 -0.6671
28060SOL    HW288992   5.855   7.007   5.037  1.5519 -0.7149  1.8151
28061SOL     OW88993   7.347  12.305   3.038 -0.1093  0.0205  0.7252
28061SOL    HW188994   7.348  12.232   3.100  0.8683  0.4773  1.2825
28061SOL    HW288995   7.429  12.351   3.055 -1.5523  2.3840  1.7416
28062SOL     OW88996  10.277   9.458  11.665  0.4585 -0.1942  1.1386
28062SOL    HW188997  10.360   9.420  11.636 -0.3453 -1.7563  0.7759
28062SOL    HW288998  10.279   9.549  11.633  0.4835 -1.2292 -2.1603
28063SOL     OW88999   6.009   4.758  11.855  0.0419  0.5865  0.0838
28063SOL    HW189000   5.987   4.787  11.944  3.7119 -0.3837  1.5088
28063SOL    HW289001   6.019   4.839  11.805 -0.6609  1.2334  0.9645
28064SOL     OW89002   2.291   0.243   1.239 -0.1901  0.0240 -0.0723
28064SOL    HW189003   2.350   0.242   1.314 -0.2966 -1.4647  0.0234
28064SOL    HW289004   2.255   0.154   1.235 -2.8437  0.9872  0.2037
28065SOL     OW89005   2.907   1.671   8.267 -0.2977 -0.0785 -0.4301
28065SOL    HW189006   2.840   1.698   8.330  1.1683 -0.4630  1.3866
28065SOL    HW289007   2.989   1.687   8.313  0.8281 -0.6326 -2.1913
28066SOL     OW89008   7.311   4.608   2.212 -0.1977 -0.4314  0.5830
28066SOL    HW189009   7.252   4.615   2.136 -0.9616  0.0043  1.2061
28066SOL    HW289010   7.298   4.689   2.261  0.1020 -0.8152  1.3155
28067SOL     OW89011   0.674   0.202   1.438  0.1629  0.0619 -0.0161
28067SOL    HW189012   0.594   0.184   1.487 -1.1363  0.5841 -1.8246
28067SOL    HW289013   0.739   0.222   1.505 -1.1960 -0.4161  1.5216
28068SOL     OW89014   3.784   2.033  10.657 -0.0085  0.1511  0.0192
28068SOL    HW189015   3.783   2.053  10.564  0.6882  0.8009  0.1350
28068SOL    HW289016   3.828   2.109  10.697 -0.5721  0.0301  0.9074
28069SOL     OW89017   1.857  11.486   0.065 -0.3868  0.0841 -0.3105
28069SOL    HW189018   1.825  11.515   0.151 -1.3386 -0.6699 -0.3934
28069SOL    HW289019   1.910  11.409   0.085 -0.5956 -0.0823 -0.3997
28070SOL     OW89020   2.435  12.077   1.665  0.2887  0.3337  0.0132
28070SOL    HW189021   2.458  12.112   1.751 -3.2629  1.8712  0.5222
28070SOL    HW289022   2.498  12.117   1.605  2.6472 -0.5246  1.7637
28071SOL     OW89023   9.854   6.808   3.330 -0.0805  0.2085 -0.1561
28071SOL    HW189024   9.915   6.735   3.336  1.1875  1.0680 -1.8022
28071SOL    HW289025   9.862   6.852   3.415 -0.8992 -1.5198  0.8800
28072SOL     OW89026   1.701  11.714   7.171  0.2747  0.8588 -0.3542
28072SOL    HW189027   1.719  11.761   7.252  0.1829 -0.7356  0.6157
28072SOL    HW289028   1.651  11.637   7.197  0.4353  0.1815 -1.8880
28073SOL     OW89029   0.554   0.671   2.776  0.2053 -0.1232 -0.2055
28073SOL    HW189030   0.488   0.652   2.844  0.7552 -0.7694  0.1582
28073SOL    HW289031   0.550   0.766   2.766 -0.7168 -0.1347 -0.1205
28074SOL     OW89032   2.825   6.055  10.611 -0.1271  0.8315 -0.3109
28074SOL    HW189033   2.842   6.121  10.678 -2.6709  0.0833  1.1869
28074SOL    HW289034   2.807   6.105  10.532  1.6454  1.7709 -0.1668
28075SOL     OW89035   6.053   5.000  11.749  0.4275 -0.4714 -0.4448
28075SOL    HW189036   6.012   5.081  11.778  1.5903 -0.3090  0.8228
28075SOL    HW289037   5.985   4.957  11.696 -0.7171  0.6296  0.0668
28076SOL     OW89038   9.278   8.960   2.439 -0.4728 -0.2186  0.4782
28076SOL    HW189039   9.357   8.958   2.384  0.8234  1.1673  2.1601
28076SOL    HW289040   9.290   8.888   2.501 -1.8646 -1.6928 -0.8811
28077SOL     OW89041   1.945   0.069   0.150 -0.3173 -0.1739  0.1175
28077SOL    HW189042   1.914   0.024   0.071 -0.5202  0.6755 -0.2981
28077SOL    HW289043   2.026   0.023   0.174 -0.4969 -0.7281 -0.3201
28078SOL     OW89044   3.000   1.021  12.611  0.3653  0.4006 -0.1363
28078SOL    HW189045   2.947   1.050  12.536 -0.2889  1.6713  0.7825
28078SOL    HW289046   2.970   1.074  12.684  1.3353 -0.4701  0.9442
28079SOL     OW89047  12.196   9.983   0.658 -0.2708  0.1130 -0.8155
28079SOL    HW189048  12.103   9.973   0.677 -0.5287  1.0358 -1.5136
28079SOL    HW289049  12.228   9.894   0.644 -1.4543 -0.1027 -2.3894
28080SOL     OW89050   3.428   3.786   0.930  0.5203 -0.0004  0.7818
28080SOL    HW189051   3.425   3.714   0.993  0.8886  0.4973  1.3845
28080SOL    HW289052   3.346   3.780   0.882  1.6473 -2.4731 -1.0642
28081SOL     OW89053   3.760   2.474   7.722  0.6011  0.1302  0.1122
28081SOL    HW189054   3.689   2.452   7.661 -0.1120 -0.1991  1.0499
28081SOL    HW289055   3.719   2.472   7.808  1.8119 -0.3131  0.6934
28082SOL     OW89056   6.085   2.499   9.580 -0.2969 -0.1290 -0.2109
28082SOL    HW189057   6.092   2.570   9.643  0.7628 -0.9353  0.6096
28082SOL    HW289058   6.077   2.420   9.632 -0.5586 -0.7076 -1.0972
28083SOL     OW89059   8.541   7.569   0.050 -0.3552  0.3670  0.2283
28083SOL    HW189060   8.607   7.537   0.112  0.8157  2.0455 -0.0680
28083SOL    HW289061   8.504   7.646   0.092  0.1073  1.2481 -0.9154
28084SOL     OW89062   8.144   8.785   3.955  0.2763 -0.6984 -0.0468
28084SOL    HW189063   8.103   8.812   4.037  0.6864 -0.5145  0.1032
28084SOL    HW289064   8.094   8.829   3.887 -0.5810 -1.4981  0.0523
28085SOL     OW89065   9.313   7.295  11.825  0.5688 -0.5958  0.1075
28085SOL    HW189066   9.401   7.292  11.863  0.7298  0.8099 -0.0880
28085SOL    HW289067   9.275   7.375  11.860  0.6913  0.7482 -2.5555
28086SOL     OW89068   0.362   4.305  12.369  0.0720  0.3709 -0.0485
28086SOL    HW189069   0.275   4.291  12.333  0.5114  0.3246 -1.1525
28086SOL    HW289070   0.409   4.223  12.349  0.0593 -0.0344  1.5059
28087SOL     OW89071  12.369   2.960   3.850 -0.4418 -0.1489  0.1925
28087SOL    HW189072  12.444   3.015   3.871 -0.6297  0.3760 -0.4811
28087SOL    HW289073  12.298   3.022   3.832 -0.7829 -0.6219 -0.1109
28088SOL     OW89074   8.579  11.354   2.065  0.2445  0.2838 -0.2527
28088SOL    HW189075   8.507  11.350   2.003 -0.1333 -0.3726  0.2226
28088SOL    HW289076   8.651  11.394   2.016 -0.8075  2.1388 -0.3779
28089SOL     OW89077   4.685   8.610   6.827 -0.2070 -0.2290  0.0814
28089SOL    HW189078   4.749   8.641   6.763 -0.6545  0.4757 -0.0416
28089SOL    HW289079   4.642   8.536   6.785  0.0485 -0.2650 -0.1160
28090SOL     OW89080  10.459  12.423   8.668  0.1393  0.1244 -0.2128
28090SOL    HW189081  10.502  12.369   8.603  1.4004  1.3879 -0.4841
28090SOL    HW289082  10.420  12.495   8.618 -0.5835  0.0609  0.2366
28091SOL     OW89083   3.235   7.437   7.093 -0.5208 -0.2296  0.5338
28091SOL    HW189084   3.249   7.354   7.138 -1.0828 -0.6613 -0.0650
28091SOL    HW289085   3.197   7.494   7.160 -0.2965 -0.5075  0.9024
28092SOL     OW89086   7.540   3.585   4.949  0.8242  0.1037  0.1496
28092SOL    HW189087   7.600   3.653   4.918  2.7896 -1.5450  0.1007
28092SOL    HW289088   7.547   3.515   4.883  0.8354 -1.1650  1.4426
28093SOL     OW89089   5.407   4.102   6.724  0.0570  0.3905  0.2914
28093SOL    HW189090   5.378   4.155   6.798  2.2902  1.3021  0.5900
28093SOL    HW289091   5.451   4.164   6.666  0.2568 -0.6895 -0.7470
28094SOL     OW89092   3.907  11.030  12.531 -0.5470  0.1143  0.1640
28094SOL    HW189093   3.877  11.076  12.453  1.8997  1.1633 -0.2550
28094SOL    HW289094   3.921  10.940  12.502 -1.0776  0.1409 -0.1874
28095SOL     OW89095  10.060   4.360  11.023 -0.6126 -0.1072 -0.4159
28095SOL    HW189096   9.993   4.344  10.956 -1.7405 -0.1790  0.6807
28095SOL    HW289097  10.096   4.274  11.043  1.7851  0.2049 -2.9071
28096SOL     OW89098  10.102   7.051   3.468 -0.4052  0.1523 -0.0646
28096SOL    HW189099  10.164   7.035   3.539  0.4417  0.1898 -0.7911
28096SOL    HW289100  10.148   7.025   3.389 -1.5096 -0.3314 -0.5738
28097SOL     OW89101   1.463  10.426  11.461  0.4360 -0.8539 -0.0799
28097SOL    HW189102   1.436  10.510  11.497 -0.3257 -1.1222 -0.0125
28097SOL    HW289103   1.434  10.429  11.369 -0.3459 -1.3662  0.1423
28098SOL     OW89104   3.995   2.249   2.766 -0.0648 -0.1098  0.5796
28098SOL    HW189105   3.962   2.333   2.798 -1.2371 -0.3052 -0.0834
28098SOL    HW289106   4.066   2.272   2.706 -2.5776  0.6879 -2.3516
28099SOL     OW89107   6.099   5.310   6.486 -0.0690  0.7888 -0.1311
28099SOL    HW189108   6.121   5.310   6.393 -0.2290 -1.3900 -0.2239
28099SOL    HW289109   6.004   5.295   6.488  0.1266 -0.5513  0.3552
28100SOL     OW89110  11.690   0.183   6.009 -0.3308 -0.1135  0.2056
28100SOL    HW189111  11.667   0.208   6.099  0.8669  0.7551  0.2946
28100SOL    HW289112  11.727   0.262   5.971  0.0004 -0.7222 -0.7714
28101SOL     OW89113   4.824   7.752   3.142 -0.4951  0.1282  0.5113
28101SOL    HW189114   4.729   7.745   3.140 -0.5321  0.3632  1.2131
28101SOL    HW289115   4.850   7.758   3.050 -1.1482 -0.0596  0.3150
28102SOL     OW89116   8.561  10.942   4.428 -0.5247 -0.2436  0.2393
28102SOL    HW189117   8.483  10.980   4.387  0.2355 -2.3052 -3.5235
28102SOL    HW289118   8.626  11.012   4.425  0.1515 -0.7311 -4.4393
28103SOL     OW89119   1.697   0.807   4.819 -0.8615 -0.5059  1.0590
28103SOL    HW189120   1.612   0.766   4.832 -0.4266 -3.2832 -3.0785
28103SOL    HW289121   1.676   0.889   4.773 -1.3015 -0.7862  0.7534
28104SOL     OW89122   6.587   3.661   6.616 -0.3340 -0.3132  0.5889
28104SOL    HW189123   6.557   3.591   6.557 -0.4715 -0.1698  0.4902
28104SOL    HW289124   6.652   3.709   6.564 -1.1488  0.4021  0.2113
28105SOL     OW89125   2.627   4.665   3.607  0.0234  0.0651  0.1336
28105SOL    HW189126   2.610   4.693   3.517 -0.4361  0.9470  0.4821
28105SOL    HW289127   2.669   4.740   3.648  1.0104 -0.6306  0.4331
28106SOL     OW89128   2.846   8.229   1.049 -0.3549 -0.1892 -0.0703
28106SOL    HW189129   2.799   8.254   1.129 -0.2239 -1.7526  0.5345
28106SOL    HW289130   2.852   8.310   0.999 -1.0388  0.6923  1.1960
28107SOL     OW89131   6.433   6.565   0.588  0.4430 -0.8297  0.3741
28107SOL    HW189132   6.404   6.542   0.500  0.7688 -0.0035  0.0453
28107SOL    HW289133   6.487   6.490   0.615  0.9252 -0.7799 -0.4110
28108SOL     OW89134   6.566  10.551  11.617 -0.3063 -0.0103 -0.1231
28108SOL    HW189135   6.475  10.578  11.632  0.2605  1.1864  1.4146
28108SOL    HW289136   6.585  10.578  11.528 -0.7397  1.9714  0.3384
28109SOL     OW89137  10.659   9.794   6.912 -0.2617 -0.0781 -0.2224
28109SOL    HW189138  10.646   9.767   6.821 -0.1187 -1.7236  0.2126
28109SOL    HW289139  10.576   9.774   6.956 -0.2639  0.5238  0.0608
28110SOL     OW89140   0.621   5.019   9.580  0.0611 -0.3634 -0.1806
28110SOL    HW189141   0.565   4.943   9.569 -2.7166  1.6191 -0.6249
28110SOL    HW289142   0.615   5.066   9.497  1.8945  0.3009  0.0030
28111SOL     OW89143   6.969   1.763   4.334 -0.3930  0.0061 -0.3660
28111SOL    HW189144   6.965   1.778   4.428 -1.2935  0.5426 -0.4706
28111SOL    HW289145   6.927   1.678   4.322 -0.9405  0.2615 -0.3331
28112SOL     OW89146   4.708   5.534   5.665 -0.5882 -0.3247  0.2187
28112SOL    HW189147   4.703   5.624   5.697  0.5778 -0.9566  2.3529
28112SOL    HW289148   4.771   5.537   5.593  0.8659  0.3011  1.4721
28113SOL     OW89149   5.401   9.429   3.443 -0.4170  0.3586 -1.0263
28113SOL    HW189150   5.347   9.457   3.517 -0.7981  1.9636 -1.8907
28113SOL    HW289151   5.427   9.510   3.399 -0.4560 -0.5757 -2.8469
28114SOL     OW89152   1.292   5.111   7.355  0.3383 -0.8678 -0.0925
28114SOL    HW189153   1.206   5.094   7.317  1.2490 -1.8690 -1.8563
28114SOL    HW289154   1.349   5.045   7.316  1.9378 -0.1378  0.9050
28115SOL     OW89155   6.742   3.225   3.942  0.2628 -0.1798  0.0904
28115SOL    HW189156   6.811   3.179   3.893 -1.5190 -3.5056  0.3944
28115SOL    HW289157   6.788   3.294   3.989  3.2648 -1.6880 -0.3777
28116SOL     OW89158   9.443  10.128  10.507 -0.2253  0.3200 -0.0625
28116SOL    HW189159   9.380  10.195  10.534 -1.9578 -0.4293 -1.9411
28116SOL    HW289160   9.391  10.065  10.457  1.1634 -2.9021  2.1962
28117SOL     OW89161   2.977   8.688   0.171  0.6215  0.2980  0.0735
28117SOL    HW189162   3.024   8.749   0.114  1.3174  0.5496  0.8858
28117SOL    HW289163   3.046   8.638   0.215  0.0626 -1.4933 -0.9739
28118SOL     OW89164   4.590   4.367   4.872  0.4524  0.0177  0.7223
28118SOL    HW189165   4.598   4.276   4.844  1.4487  0.2068  0.3436
28118SOL    HW289166   4.499   4.376   4.898  0.0770 -0.7927 -0.2567
28119SOL     OW89167  11.239   2.908  11.095 -0.1831  0.1493  0.5174
28119SOL    HW189168  11.244   2.813  11.108  0.0814  0.2309  1.0300
28119SOL    HW289169  11.208   2.918  11.005  1.6937 -0.4431 -0.2612
28120SOL     OW89170   4.134   0.037   5.131 -0.7567  0.2311  0.2112
28120SOL    HW189171   4.127   0.102   5.201 -0.8254 -0.9441  1.3255
28120SOL    HW289172   4.186   0.081   5.063  0.8125  0.8025  1.7131
28121SOL     OW89173   9.633   2.338   9.376 -0.0742  0.5635 -0.1116
28121SOL    HW189174   9.568   2.269   9.359  1.0127 -0.4026 -0.5054
28121SOL    HW289175   9.612   2.369   9.464 -1.9890  1.3290 -0.7848
28122SOL     OW89176   8.846   2.239   8.753  0.7480 -0.4814 -0.0173
28122SOL    HW189177   8.755   2.235   8.726  1.1937 -0.2651 -1.7051
28122SOL    HW289178   8.846   2.291   8.834 -0.8325 -2.3693  1.2748
28123SOL     OW89179   8.798   7.717  11.578  0.1226 -0.1313 -0.2099
28123SOL    HW189180   8.833   7.659  11.510  0.5578  0.2243 -0.2914
28123SOL    HW289181   8.806   7.805  11.542 -1.5810 -0.0828 -0.5491
28124SOL     OW89182   1.947   8.083   0.038 -0.1048 -0.3617 -0.2498
28124SOL    HW189183   1.871   8.106  -0.016 -1.1341 -0.3719  1.1377
28124SOL    HW289184   1.909   8.035   0.112  1.3928 -1.4308 -0.1338
28125SOL     OW89185   4.813   1.177   4.584  0.4997 -0.8280 -0.3664
28125SOL    HW189186   4.813   1.100   4.528 -0.2212 -0.1059 -1.4028
28125SOL    HW289187   4.746   1.159   4.651  0.1538 -0.9954 -0.7565
28126SOL     OW89188   0.024   5.055   0.392  0.3296 -0.0239  0.5695
28126SOL    HW189189   0.112   5.022   0.376 -0.3386 -1.6858  0.1489
28126SOL    HW289190  -0.016   5.063   0.305 -0.0694  0.2956  0.7781
28127SOL     OW89191  12.496   7.511   1.834  0.0070  0.0887 -0.6016
28127SOL    HW189192  12.550   7.590   1.831 -0.0784  0.1858  0.2724
28127SOL    HW289193  12.464   7.507   1.924  0.1520 -1.0363 -0.5815
28128SOL     OW89194  12.241   5.562   9.428  0.3978 -0.0948 -0.5166
28128SOL    HW189195  12.182   5.608   9.369 -0.3647 -0.4869 -0.0786
28128SOL    HW289196  12.328   5.573   9.389  0.0488  0.5507 -1.1317
28129SOL     OW89197  11.331   4.227   0.701 -0.3895 -0.1277  0.3815
28129SOL    HW189198  11.257   4.277   0.667  0.1478  0.3789 -0.0637
28129SOL    HW289199  11.336   4.150   0.643  1.7788  1.7071 -2.1631
28130SOL     OW89200   1.923   3.470   3.114  0.0536  0.0683  0.0898
28130SOL    HW189201   1.966   3.497   3.194 -1.0873 -0.0751  0.7667
28130SOL    HW289202   1.831   3.457   3.138  0.0415 -1.8318 -0.7784
28131SOL     OW89203   9.913   7.540   7.610 -0.0319 -0.1256 -0.1011
28131SOL    HW189204   9.873   7.466   7.657 -0.0035  0.8742  1.5870
28131SOL    HW289205  10.005   7.539   7.638  0.3198 -0.3037 -1.2140
28132SOL     OW89206   3.013  10.427   3.255 -0.0801 -0.2626 -0.2032
28132SOL    HW189207   3.093  10.421   3.203  0.6157  0.0831  0.7873
28132SOL    HW289208   2.985  10.336   3.268 -0.6845 -0.3293 -1.7616
28133SOL     OW89209  10.327   7.192  11.891 -0.0227 -0.2875 -0.4263
28133SOL    HW189210  10.279   7.241  11.824 -0.4274  1.9516  1.3857
28133SOL    HW289211  10.418   7.194  11.862 -0.3608 -0.4266 -1.5215
28134SOL     OW89212  12.363   8.466   9.362  0.6394  0.2906 -0.7953
28134SOL    HW189213  12.406   8.493   9.281  1.0939 -0.5242 -0.8356
28134SOL    HW289214  12.407   8.517   9.430  2.4641 -1.2979 -0.7028
28135SOL     OW89215   6.794   1.422   3.101  0.1818 -0.6314 -0.0903
28135SOL    HW189216   6.856   1.350   3.114  3.4389  1.5848 -1.9937
28135SOL    HW289217   6.730   1.386   3.039  1.4842 -2.0360 -0.6858
28136SOL     OW89218   2.626   9.582   3.897  0.5313  0.6990 -0.1830
28136SOL    HW189219   2.611   9.618   3.985 -1.2494 -1.0742  0.3183
28136SOL    HW289220   2.617   9.487   3.909  2.3246  0.2584 -1.9287
28137SOL     OW89221   5.497   9.189   9.699  0.5003 -0.2066  0.3486
28137SOL    HW189222   5.496   9.105   9.746  0.4775 -0.0593  0.6155
28137SOL    HW289223   5.538   9.169   9.615  0.2463 -0.5419  0.3016
28138SOL     OW89224   2.424   8.980   6.514 -0.3084 -0.2620 -0.0497
28138SOL    HW189225   2.379   8.975   6.599  0.4100  0.3891  0.3909
28138SOL    HW289226   2.485   9.054   6.524 -0.4473  0.0402 -1.2514
28139SOL     OW89227   0.306   7.313  10.818  0.6783 -0.1246 -0.1739
28139SOL    HW189228   0.331   7.373  10.888  0.2159 -0.6410  0.4544
28139SOL    HW289229   0.326   7.359  10.737  2.9407 -0.2127  0.2796
28140SOL     OW89230  12.309   3.194   1.009 -0.3188 -0.1288  0.0730
28140SOL    HW189231  12.384   3.246   0.980 -1.0097  1.5559  1.1651
28140SOL    HW289232  12.310   3.202   1.104 -1.4704 -0.6849  0.1493
28141SOL     OW89233   1.291   3.463   6.399 -0.0787 -0.4285 -0.0628
28141SOL    HW189234   1.337   3.514   6.465 -0.4815  1.4701 -1.1954
28141SOL    HW289235   1.226   3.413   6.449  0.5263 -0.0950  1.1001
28142SOL     OW89236   8.226  11.976  10.732  0.6489 -0.4823 -0.0529
28142SOL    HW189237   8.178  12.053  10.764 -2.3158 -1.8808 -0.7785
28142SOL    HW289238   8.313  12.010  10.710 -0.0103  2.3055  1.1135
28143SOL     OW89239   1.011  10.899   1.314  0.1912 -0.4368 -0.4721
28143SOL    HW189240   0.953  10.970   1.286  0.7194 -0.5419 -1.9309
28143SOL    HW289241   0.968  10.819   1.283  0.9269 -0.5392 -1.2723
28144SOL     OW89242   0.983   6.021   8.978 -0.4471 -0.0274 -0.3421
28144SOL    HW189243   0.948   6.078   8.910 -2.4798 -0.1191  0.5285
28144SOL    HW289244   1.073   6.050   8.991 -0.8486  1.7397 -1.2196
28145SOL     OW89245   3.494   5.944  12.150 -0.4434  0.0234  0.4343
28145SOL    HW189246   3.402   5.952  12.125 -0.8507 -1.1865  1.4839
28145SOL    HW289247   3.504   6.005  12.223 -0.6612 -0.5229  0.9295
28146SOL     OW89248   9.908   5.900   3.623 -0.8301  0.4371 -0.6639
28146SOL    HW189249   9.841   5.921   3.558 -2.3032  2.4167  1.3425
28146SOL    HW289250   9.948   5.984   3.644  0.9916 -0.4479 -0.4110
28147SOL     OW89251  11.979   5.960   5.977  0.2663  0.0921  0.1860
28147SOL    HW189252  12.011   5.972   6.066  1.8605  0.0806 -0.3530
28147SOL    HW289253  12.057   5.934   5.927 -0.5612  0.2779 -1.2458
28148SOL     OW89254   7.947   2.253   0.192 -0.0388  0.3742  0.5343
28148SOL    HW189255   8.019   2.288   0.139 -0.4778  1.3382  0.5685
28148SOL    HW289256   7.879   2.319   0.187 -0.8536 -0.4369  0.6836
28149SOL     OW89257   3.390   0.708   6.823  0.2994 -0.4409 -0.0123
28149SOL    HW189258   3.347   0.771   6.766 -0.0332 -1.7111 -1.2096
28149SOL    HW289259   3.482   0.709   6.795  0.9623  1.6086  1.9422
28150SOL     OW89260  12.215   3.473   3.234  0.0941  0.2000  0.3018
28150SOL    HW189261  12.281   3.457   3.302  1.6870  2.0649 -0.6868
28150SOL    HW289262  12.265   3.482   3.153 -1.5729 -0.0608 -0.8133
28151SOL     OW89263   3.569   9.823   6.516 -0.6088 -0.4417 -0.0650
28151SOL    HW189264   3.628   9.866   6.578 -0.4550  0.2922 -0.7003
28151SOL    HW289265   3.507   9.892   6.490 -1.5253 -1.1004  0.3106
28152SOL     OW89266   9.691  10.654  11.937  0.0605 -0.0521 -0.3797
28152SOL    HW189267   9.728  10.736  11.903  1.0660 -0.1201  0.5342
28152SOL    HW289268   9.718  10.651  12.028 -1.5415 -0.5002  0.1130
28153SOL     OW89269   1.338   2.690   9.020 -0.2170  0.4353 -0.3298
28153SOL    HW189270   1.429   2.721   9.022  0.0985 -0.4939 -0.0422
28153SOL    HW289271   1.344   2.599   8.991 -0.8864 -0.1963  1.3636
28154SOL     OW89272   5.006   6.243   2.576 -0.2947 -0.7223  0.1042
28154SOL    HW189273   4.925   6.282   2.609  1.1713  1.4003  1.3891
28154SOL    HW289274   5.049   6.207   2.654  1.5678  1.2656  0.0928
28155SOL     OW89275   5.590   6.215   9.032 -0.2395  0.1376  0.2501
28155SOL    HW189276   5.636   6.236   9.113  0.7256  0.4512 -0.3611
28155SOL    HW289277   5.640   6.143   8.994  0.2635  1.0194 -0.8273
28156SOL     OW89278   8.890  11.272   0.031  0.2400  0.3651 -0.4346
28156SOL    HW189279   8.977  11.282  -0.008 -0.4391  2.3574 -1.6312
28156SOL    HW289280   8.849  11.357   0.018 -1.0025  0.3120  2.4521
28157SOL     OW89281   3.438   5.617   7.937 -0.1467  0.1679  0.2331
28157SOL    HW189282   3.383   5.632   8.013  0.0366 -0.9833  0.6124
28157SOL    HW289283   3.498   5.692   7.935  0.0561  0.0461  1.4129
28158SOL     OW89284   7.620  12.164   6.813 -0.0984 -0.2038 -0.2862
28158SOL    HW189285   7.558  12.233   6.788 -1.7189 -1.2539  0.6691
28158SOL    HW289286   7.590  12.087   6.766  1.2437 -0.4620 -0.7542
28159SOL     OW89287  11.960   6.486   2.538 -0.0867  0.1920 -0.6539
28159SOL    HW189288  11.867   6.502   2.553 -0.0588 -1.3804  1.8420
28159SOL    HW289289  11.964   6.407   2.485 -0.1096  1.4386 -2.6311
28160SOL     OW89290  10.701   4.990   8.430 -0.7543 -0.1527 -0.4394
28160SOL    HW189291  10.706   4.996   8.525  0.4110  2.5856 -0.5722
28160SOL    HW289292  10.624   5.044   8.407  1.9937  3.9311 -1.1660
28161SOL     OW89293   6.733  11.001   2.808 -0.2890 -0.1525  0.6897
28161SOL    HW189294   6.757  11.026   2.719 -0.4840  0.4848  0.8142
28161SOL    HW289295   6.793  10.929   2.829  1.4681  1.3066  0.9381
28162SOL     OW89296   9.075  11.437   6.796  0.4933  0.3720  0.3934
28162SOL    HW189297   9.152  11.482   6.763  0.1699  0.1929 -0.6498
28162SOL    HW289298   9.014  11.508   6.820  0.8311  0.5075  0.8547
28163SOL     OW89299   7.827  11.674   0.478 -0.2884 -0.9264 -0.0970
28163SOL    HW189300   7.909  11.624   0.483  0.3195  0.1254  1.5560
28163SOL    HW289301   7.762  11.612   0.446  0.9964 -1.9984 -0.7087
28164SOL     OW89302   6.994   2.626  11.551 -0.5280 -0.4292 -0.2607
28164SOL    HW189303   6.968   2.712  11.518 -1.7713 -1.6044 -2.6487
28164SOL    HW289304   6.968   2.565  11.481 -0.0674 -2.7964  1.5114
28165SOL     OW89305   8.465   7.918  11.960  0.4668 -0.3998  0.2723
28165SOL    HW189306   8.370   7.915  11.975  0.6135 -1.6700  1.0730
28165SOL    HW289307   8.474   7.932  11.866 -0.5086  0.3977  0.2799
28166SOL     OW89308   6.066   9.853   8.362 -0.0135  0.0135  0.1264
28166SOL    HW189309   6.038   9.866   8.452  0.8669 -0.8025  0.5361
28166SOL    HW289310   6.161   9.862   8.365  0.1790 -1.6101 -0.4173
28167SOL     OW89311   3.149   0.441  10.784  0.3608  0.0955  0.0393
28167SOL    HW189312   3.095   0.399  10.717  0.0771 -0.0513  0.3556
28167SOL    HW289313   3.098   0.433  10.864  0.8812 -0.1011  0.3588
28168SOL     OW89314  12.642   0.203   1.202  0.1840 -0.0437 -0.3691
28168SOL    HW189315  12.565   0.174   1.251  0.0072 -1.6113 -1.4882
28168SOL    HW289316  12.658   0.134   1.138  2.6100  0.1660 -0.1148
28169SOL     OW89317   7.655   2.597  10.057  0.1559 -0.3652  0.3104
28169SOL    HW189318   7.676   2.650   9.980 -4.7691  0.2004 -0.9813
28169SOL    HW289319   7.635   2.661  10.125  0.4133 -0.7763  0.7803
28170SOL     OW89320   3.190   5.858   1.866 -0.0640 -0.6249 -0.2728
28170SOL    HW189321   3.172   5.914   1.942  1.6968 -0.1092 -0.1864
28170SOL    HW289322   3.225   5.918   1.800  1.8908 -1.5769 -0.1742
28171SOL     OW89323  10.719  11.192  11.424  0.2407 -0.3786 -0.3669
28171SOL    HW189324  10.687  11.105  11.402 -0.6993  0.3565 -2.1478
28171SOL    HW289325  10.760  11.224  11.344  0.8240  0.7203  0.3384
28172SOL     OW89326   7.136   2.045   5.920  0.2252  0.4581 -0.1133
28172SOL    HW189327   7.185   1.989   5.980  0.3493  0.2363 -0.4202
28172SOL    HW289328   7.077   2.095   5.976 -0.7566 -0.8501  0.0476
28173SOL     OW89329   9.155   2.682  12.377  0.1986 -0.2306  0.1630
28173SOL    HW189330   9.241   2.685  12.418 -0.1572  1.2714  0.8846
28173SOL    HW289331   9.173   2.667  12.284  1.1759 -0.8849  0.4490
28174SOL     OW89332   4.542   7.089  11.930  0.2705 -0.2299 -0.4483
28174SOL    HW189333   4.473   7.155  11.934  0.4837  0.0885 -1.4920
28174SOL    HW289334   4.496   7.005  11.929  0.0073 -0.1368  1.1519
28175SOL     OW89335   3.494   7.899   1.473 -0.2920  0.0769 -0.4546
28175SOL    HW189336   3.429   7.842   1.431  0.9690 -1.3168 -0.5822
28175SOL    HW289337   3.568   7.842   1.491  1.1851  1.7540 -0.9093
28176SOL     OW89338   0.063   8.073   0.857 -0.3206  0.1199  0.2854
28176SOL    HW189339   0.106   8.026   0.928  0.1575  2.8778  1.9417
28176SOL    HW289340   0.026   8.151   0.898 -0.7096  1.4483 -2.3685
28177SOL     OW89341   3.033   7.084  10.845  0.2640  0.1234 -0.0075
28177SOL    HW189342   3.064   7.048  10.762  1.1874 -0.1233  0.4241
28177SOL    HW289343   3.060   7.019  10.911 -0.9850  0.0166  0.4277
28178SOL     OW89344   0.702   1.696   6.603  0.4949  0.0463 -0.3181
28178SOL    HW189345   0.622   1.650   6.578 -0.7278  2.2907 -0.8655
28178SOL    HW289346   0.765   1.674   6.535  0.4418 -1.9118  0.2213
28179SOL     OW89347   0.720   0.863   8.537  0.3178  0.5179 -0.7497
28179SOL    HW189348   0.770   0.926   8.485 -1.4556  2.9907  0.3304
28179SOL    HW289349   0.629   0.877   8.510 -0.1503 -1.6115 -0.4292
28180SOL     OW89350   8.810   4.605  10.129 -0.0464  0.5934 -0.5229
28180SOL    HW189351   8.850   4.572  10.209  0.3787 -0.3469 -1.1102
28180SOL    HW289352   8.824   4.700  10.132  1.9411  0.3407 -0.5404
28181SOL     OW89353   3.025  12.417   1.649 -0.1132  0.7680 -0.3954
28181SOL    HW189354   3.013  12.382   1.561  0.5705  1.6841 -0.8734
28181SOL    HW289355   3.023  12.341   1.706 -2.5838  0.3192 -0.9599
28182SOL     OW89356  11.128   5.379   3.870  0.1586 -1.0235 -0.5544
28182SOL    HW189357  11.095   5.330   3.945 -0.8026  0.8813  0.3373
28182SOL    HW289358  11.063   5.448   3.855  0.9449 -0.6140 -2.3715
28183SOL     OW89359   0.685   6.397   4.804 -0.3862 -0.2150 -0.3411
28183SOL    HW189360   0.777   6.379   4.826 -0.2587 -0.4318 -1.0330
28183SOL    HW289361   0.635   6.341   4.864 -0.1135  0.9247  0.9962
28184SOL     OW89362   7.212  10.847   7.159  0.1585 -0.1366 -0.2416
28184SOL    HW189363   7.211  10.933   7.116 -0.8089  0.2730  0.5495
28184SOL    HW289364   7.260  10.861   7.240 -0.7743 -0.0904  0.3262
28185SOL     OW89365   2.880   3.640   2.212  0.4565  0.0521 -0.0847
28185SOL    HW189366   2.914   3.728   2.195 -1.3002  0.5473 -1.2581
28185SOL    HW289367   2.897   3.592   2.131 -0.7875  0.0611 -0.3757
28186SOL     OW89368   2.130   9.516   2.474 -0.3119 -0.1444  0.2709
28186SOL    HW189369   2.098   9.587   2.529  2.0556  0.0084  1.5781
28186SOL    HW289370   2.093   9.437   2.512 -0.0414  0.1026  1.0545
28187SOL     OW89371   2.751  11.921  11.957 -0.1538  0.5514  0.2875
28187SOL    HW189372   2.825  11.862  11.940 -1.5039 -0.9375 -0.6648
28187SOL    HW289373   2.792  12.003  11.983  1.9064  0.3920 -2.1376
28188SOL     OW89374   3.699   8.083  11.276  0.5182 -0.1312  0.1872
28188SOL    HW189375   3.764   8.113  11.212 -0.7009  3.1336  0.2692
28188SOL    HW289376   3.736   8.108  11.361 -1.5277  3.9922  0.1563
28189SOL     OW89377   9.578  10.347   6.754  0.4258 -0.0978 -0.1083
28189SOL    HW189378   9.527  10.428   6.749  1.5467  0.5995 -0.5265
28189SOL    HW289379   9.635  10.359   6.830  1.0481 -0.2186 -0.5488
28190SOL     OW89380   0.576   5.202   7.545  0.0197  0.1948  0.0482
28190SOL    HW189381   0.517   5.134   7.514  0.4963  0.5695 -1.8426
28190SOL    HW289382   0.556   5.212   7.638 -1.0877 -1.4558  0.0193
28191SOL     OW89383   2.534   5.014   0.730  0.3797  0.0620  0.1533
28191SOL    HW189384   2.438   5.012   0.727  0.3781  0.6476 -0.4852
28191SOL    HW289385   2.561   4.979   0.645  0.7475 -0.5836  0.5288
28192SOL     OW89386   4.139   5.439  11.691 -0.1349 -0.0042  0.5202
28192SOL    HW189387   4.146   5.529  11.723 -0.7295 -0.1583  1.1080
28192SOL    HW289388   4.144   5.447  11.596  0.9558  0.5308  0.6116
28193SOL     OW89389   6.528   2.523  12.125  0.0115  0.6585  0.6143
28193SOL    HW189390   6.495   2.567  12.203  0.4836 -1.4849  2.1186
28193SOL    HW289391   6.605   2.474  12.155  1.3849  1.2678 -1.6352
28194SOL     OW89392  11.755   4.375   3.994 -0.2359 -0.4690 -0.1861
28194SOL    HW189393  11.711   4.296   3.962  0.0041 -0.3937 -0.7226
28194SOL    HW289394  11.739   4.375   4.088 -0.2593 -1.1481 -0.1808
28195SOL     OW89395   6.025   0.734   5.927 -0.1270 -0.1151 -0.3489
28195SOL    HW189396   6.079   0.665   5.967  0.0566  0.0173 -0.3653
28195SOL    HW289397   5.936   0.698   5.928 -0.3587  0.3936  1.3624
28196SOL     OW89398   8.183   2.480   3.124 -0.4226 -0.1376 -0.0798
28196SOL    HW189399   8.140   2.431   3.054  1.6856 -2.0445 -0.1511
28196SOL    HW289400   8.243   2.539   3.078 -0.7271  0.3102  0.0895
28197SOL     OW89401   6.223   7.110   3.018  0.1213 -0.5052 -0.1042
28197SOL    HW189402   6.211   7.059   2.938 -2.8346 -2.1323  1.2077
28197SOL    HW289403   6.152   7.174   3.017  1.1931  0.7430  0.3683
28198SOL     OW89404   9.178  10.471   4.369  0.5543  0.1522 -0.2109
28198SOL    HW189405   9.088  10.444   4.390  0.9327 -0.5912  0.5355
28198SOL    HW289406   9.168  10.545   4.309 -0.5382 -0.8838 -1.3477
28199SOL     OW89407   2.140   8.433   9.045  0.1113  0.4659  0.0309
28199SOL    HW189408   2.126   8.415   9.138  0.3971 -2.5468 -0.4171
28199SOL    HW289409   2.057   8.468   9.015 -0.9515 -1.2045  0.8776
28200SOL     OW89410  11.100   1.914   7.739  0.0959 -0.1484  0.2211
28200SOL    HW189411  11.194   1.893   7.741  0.0998 -0.0820  1.2418
28200SOL    HW289412  11.098   2.008   7.721  0.2886  0.1238  1.5137
28201SOL     OW89413   8.875   5.742   4.053 -0.6079  0.0327 -0.6731
28201SOL    HW189414   8.814   5.723   3.982 -0.1474  1.4895 -1.5012
28201SOL    HW289415   8.820   5.754   4.130 -1.0027 -3.5424 -0.2477
28202SOL     OW89416   1.842   3.907   3.983  0.0115  0.2404  0.1982
28202SOL    HW189417   1.763   3.946   4.020  0.1170 -0.9801  1.7844
28202SOL    HW289418   1.915   3.955   4.024  0.1153  0.0520  0.2357
28203SOL     OW89419  12.446   2.459   0.328 -0.2741  0.0331  0.1453
28203SOL    HW189420  12.505   2.414   0.267 -0.4650 -1.1594  0.8053
28203SOL    HW289421  12.360   2.423   0.308 -0.3011 -0.5889  1.2884
28204SOL     OW89422   0.607   5.357   8.072  0.2767 -0.3481 -0.7178
28204SOL    HW189423   0.534   5.296   8.071  1.0828 -1.4122  1.0842
28204SOL    HW289424   0.649   5.345   7.987  0.1120 -1.9370 -0.6007
28205SOL     OW89425   9.931   6.743   9.380  0.7434 -0.0070 -1.0286
28205SOL    HW189426   9.844   6.762   9.414  0.1958 -1.2094 -1.6830
28205SOL    HW289427   9.991   6.790   9.438 -0.2428 -0.5480  0.4765
28206SOL     OW89428  12.417  10.363   2.454  0.0922  0.3773 -0.4958
28206SOL    HW189429  12.336  10.369   2.403  0.1143 -1.1939 -0.7628
28206SOL    HW289430  12.422  10.271   2.480  0.8229  0.8414  1.1471
28207SOL     OW89431  10.558   7.347  11.366  0.0214  0.3248 -0.4899
28207SOL    HW189432  10.587   7.438  11.371 -0.1858  0.4636 -1.4935
28207SOL    HW289433  10.544   7.332  11.272  0.0723 -0.7456 -0.3360
28208SOL     OW89434   1.578   7.941   5.405 -0.3110 -0.4505 -0.2048
28208SOL    HW189435   1.583   7.923   5.311 -0.3015 -0.9667 -0.1087
28208SOL    HW289436   1.656   7.900   5.442  0.6893  1.3658 -0.2036
28209SOL     OW89437   6.856   9.626   3.331 -0.3209 -0.5531 -0.4536
28209SOL    HW189438   6.773   9.583   3.309 -0.7449 -0.4130  0.8211
28209SOL    HW289439   6.916   9.553   3.350 -0.2875 -0.6387 -0.8711
28210SOL     OW89440   4.546   1.976   1.924 -0.5502 -0.1749 -0.0971
28210SOL    HW189441   4.555   2.029   2.003  0.6502 -0.1396 -0.2383
28210SOL    HW289442   4.481   2.023   1.871 -0.5553  0.3927  0.3983
28211SOL     OW89443   5.916   4.578   8.817 -0.0773 -0.4675  0.2582
28211SOL    HW189444   5.982   4.549   8.754  2.1173 -0.3443  2.3605
28211SOL    HW289445   5.932   4.672   8.826 -0.2220 -0.5229  1.1405
28212SOL     OW89446   8.077   1.796   9.562 -0.2287  0.9553  0.2549
28212SOL    HW189447   8.111   1.732   9.500  1.0491 -0.0534  1.9351
28212SOL    HW289448   8.021   1.745   9.620 -0.3630  1.6415  0.7337
28213SOL     OW89449   2.534   4.211   6.605  0.3105  0.1292  0.1937
28213SOL    HW189450   2.551   4.222   6.511 -0.2017  1.2717  0.2260
28213SOL    HW289451   2.568   4.291   6.645  0.2718 -0.2289  0.9565
28214SOL     OW89452   5.470   7.683   6.477  0.2261  0.1176 -0.5004
28214SOL    HW189453   5.562   7.697   6.453  0.1438  0.5073 -0.5867
28214SOL    HW289454   5.475   7.647   6.566  0.4271  1.1841 -0.0612
28215SOL     OW89455   2.696   1.225  11.281 -0.5747 -0.0005 -0.4456
28215SOL    HW189456   2.698   1.200  11.188 -0.6780  0.2392 -0.5146
28215SOL    HW289457   2.642   1.304  11.282 -0.0463  0.3594 -0.2653
28216SOL     OW89458   0.931   0.010   2.788 -0.1462  0.4313 -0.1260
28216SOL    HW189459   1.002  -0.043   2.824 -1.2689 -3.0951 -2.5623
28216SOL    HW289460   0.867   0.015   2.859 -0.2088 -2.0758  0.0735
28217SOL     OW89461  12.327   9.974   0.125  0.0163  0.0954  0.6184
28217SOL    HW189462  12.357   9.972   0.034 -2.4278 -0.6975 -0.2461
28217SOL    HW289463  12.268   9.900   0.132 -1.2963  1.2368  2.3238
28218SOL     OW89464   1.142   8.937   2.534 -0.1186  0.0775  0.0190
28218SOL    HW189465   1.087   8.864   2.561  0.3415 -0.7205 -1.0920
28218SOL    HW289466   1.112   8.958   2.445  1.1789 -0.2293 -0.5177
28219SOL     OW89467  11.513   7.524   5.876 -0.3934  0.0503 -0.8616
28219SOL    HW189468  11.585   7.472   5.910 -0.4177 -0.0592 -0.9761
28219SOL    HW289469  11.488   7.582   5.948 -1.4811 -1.2634 -0.1336
28220SOL     OW89470   3.675   9.583  10.442  0.2025 -0.2504  0.3675
28220SOL    HW189471   3.762   9.564  10.407  0.0377  0.5193 -0.5255
28220SOL    HW289472   3.670   9.679  10.443 -0.8878 -0.2854 -0.2921
28221SOL     OW89473  12.618   0.514   8.974  0.1093 -0.0224  0.1280
28221SOL    HW189474  12.586   0.551   9.056  2.0181  1.6124  0.2204
28221SOL    HW289475  12.549   0.454   8.946 -1.5727  1.0176  1.8010
28222SOL     OW89476  10.352  12.624  10.572  0.5395 -0.2168  0.2915
28222SOL    HW189477  10.349  12.695  10.635  1.2504  1.3821 -1.3731
28222SOL    HW289478  10.440  12.588  10.581  0.5843 -0.0962  0.3381
28223SOL     OW89479  12.307   2.718   5.545  0.2571  0.0887 -0.7964
28223SOL    HW189480  12.274   2.679   5.464  0.4596 -1.5939 -0.1036
28223SOL    HW289481  12.384   2.665   5.567 -0.5470 -0.3103  1.1713
28224SOL     OW89482   4.533   0.606   6.111  0.1608 -0.3894 -0.2458
28224SOL    HW189483   4.559   0.578   6.199 -1.3439  1.3604  0.8482
28224SOL    HW289484   4.452   0.558   6.094 -0.8513  1.0080  0.4063
28225SOL     OW89485   8.033  11.836   6.446 -0.2036 -0.1508 -0.3531
28225SOL    HW189486   8.087  11.867   6.519  0.1032  0.9526 -1.0055
28225SOL    HW289487   8.027  11.912   6.388 -2.5543 -0.1966 -0.2724
28226SOL     OW89488   2.172   5.083  12.597 -0.0554 -0.1647 -0.4914
28226SOL    HW189489   2.179   5.052  12.507 -1.2061  2.1864 -1.4726
28226SOL    HW289490   2.245   5.144  12.608 -0.5953  0.4509 -0.2384
28227SOL     OW89491   8.625  10.199   6.302  0.1053  0.0139  0.0337
28227SOL    HW189492   8.655  10.288   6.279  2.3610 -0.7177 -0.1412
28227SOL    HW289493   8.660  10.144   6.233  1.1898 -1.3636  1.6102
28228SOL     OW89494   4.834   7.841   0.518  0.4446  0.0758  0.0160
28228SOL    HW189495   4.798   7.910   0.463 -0.0772  0.5767  0.9613
28228SOL    HW289496   4.822   7.873   0.607  0.0970 -1.2861  0.4717
28229SOL     OW89497   6.980   9.531   8.219  0.7124 -0.2601 -0.0723
28229SOL    HW189498   7.001   9.625   8.221  0.8167 -0.2646 -0.7287
28229SOL    HW289499   6.910   9.524   8.154  1.0947 -0.7122 -0.4375
28230SOL     OW89500   4.535   1.165   9.885  0.4963 -0.1687 -0.3948
28230SOL    HW189501   4.514   1.218   9.961 -1.4753  0.2006 -1.1283
28230SOL    HW289502   4.517   1.075   9.912 -1.7823  0.1026 -0.8610
28231SOL     OW89503   0.419   5.883   7.936  0.3345 -0.4633  0.2873
28231SOL    HW189504   0.428   5.802   7.987  1.7606 -1.2781 -1.1731
28231SOL    HW289505   0.464   5.865   7.854  0.7221  1.8441 -0.0771
28232SOL     OW89506  11.443   9.890  12.571  0.8180  0.3796 -0.3418
28232SOL    HW189507  11.410   9.895  12.481  2.4592 -1.6195 -1.1389
28232SOL    HW289508  11.389   9.822  12.612  0.9292  0.3652 -0.2215
28233SOL     OW89509   9.592  11.432   4.258 -0.7917 -0.7342  0.5909
28233SOL    HW189510   9.590  11.476   4.173  0.3519  0.2041  1.0177
28233SOL    HW289511   9.529  11.480   4.311 -1.0918 -0.9592  0.4386
28234SOL     OW89512   7.108   7.660   3.783 -0.1936 -0.1515 -0.6544
28234SOL    HW189513   7.059   7.593   3.735 -1.0149  0.1798 -0.2941
28234SOL    HW289514   7.197   7.653   3.750  0.0855 -2.3901  0.3665
28235SOL     OW89515  11.541   8.491   5.537 -0.1681 -0.0664  1.2032
28235SOL    HW189516  11.461   8.469   5.585 -1.3142 -0.0539 -0.6076
28235SOL    HW289517  11.536   8.439   5.457  1.7675 -0.2291  1.1389
28236SOL     OW89518   3.987   6.851   7.091 -0.1776  0.2679  0.2201
28236SOL    HW189519   3.972   6.764   7.055  1.7543  1.1833 -3.3239
28236SOL    HW289520   3.959   6.911   7.021  1.7806  2.3660  1.0935
28237SOL     OW89521   1.351   7.284   6.445  0.0364  0.0919 -0.0774
28237SOL    HW189522   1.337   7.230   6.367  0.6902  0.0674 -0.1849
28237SOL    HW289523   1.263   7.296   6.482 -0.3713  0.6381 -1.1739
28238SOL     OW89524   2.695   3.047   7.779 -0.3268 -0.3943 -0.6039
28238SOL    HW189525   2.650   2.963   7.772  0.2137 -0.9335  1.7520
28238SOL    HW289526   2.637   3.101   7.833  1.7332 -1.1751  2.7086
28239SOL     OW89527  12.491  10.285   4.913  0.4046  0.0653 -0.5447
28239SOL    HW189528  12.461  10.358   4.966 -0.5680 -0.5618 -0.2181
28239SOL    HW289529  12.529  10.326   4.835  2.3928  1.0299  0.8346
28240SOL     OW89530   7.367   2.380   0.619  0.0291 -0.4330 -0.2709
28240SOL    HW189531   7.370   2.397   0.525 -1.3066 -0.8754 -0.4155
28240SOL    HW289532   7.409   2.294   0.629  0.8876 -0.0343 -0.3469
28241SOL     OW89533   8.031   2.566  12.506  0.0550 -0.0360  0.3516
28241SOL    HW189534   8.051   2.654  12.476 -0.0956  0.0913  0.6237
28241SOL    HW289535   8.019   2.516  12.425 -1.2799  0.5166  0.1735
28242SOL     OW89536   4.423   7.686   0.887  0.4990  0.1262 -0.5925
28242SOL    HW189537   4.397   7.760   0.942 -0.1277  0.8686 -1.8242
28242SOL    HW289538   4.386   7.609   0.931  0.1993  0.6695  0.1302
28243SOL     OW89539   7.716   2.801  10.881  0.3952  0.3828 -0.0947
28243SOL    HW189540   7.715   2.891  10.850  0.6684  0.9204  1.3938
28243SOL    HW289541   7.762   2.752  10.813 -1.9282  0.8536 -2.1665
28244SOL     OW89542   8.235   9.730   7.210  0.5521  0.6356 -0.3220
28244SOL    HW189543   8.274   9.706   7.295  0.8234  0.6590 -0.4382
28244SOL    HW289544   8.280   9.674   7.147 -0.9260 -0.6886 -0.2521
28245SOL     OW89545   9.292   4.039   8.000  0.1972  0.9235  0.1930
28245SOL    HW189546   9.254   3.954   8.025  0.7648  0.9808  1.3167
28245SOL    HW289547   9.338   4.069   8.079 -0.5159  2.5823  0.0109
28246SOL     OW89548   6.049   0.432   1.324 -0.0567  0.2456  0.1040
28246SOL    HW189549   6.102   0.392   1.392 -0.2256 -0.7924 -0.3615
28246SOL    HW289550   6.113   0.460   1.258  0.0201  0.3065  0.2034
28247SOL     OW89551   8.167   3.464   1.814 -0.0815 -0.6095 -0.1274
28247SOL    HW189552   8.128   3.548   1.790  1.1544 -0.0368 -0.1673
28247SOL    HW289553   8.176   3.417   1.731 -0.6815 -0.7565 -0.1161
28248SOL     OW89554   4.928   1.908  12.614 -0.3068 -0.3478  0.4565
28248SOL    HW189555   4.991   1.851  12.658  0.0550 -0.0008  0.3938
28248SOL    HW289556   4.937   1.885  12.521 -0.8702 -0.8833  0.5304
28249SOL     OW89557   4.949   1.214   6.684  0.0544 -0.9135 -0.4773
28249SOL    HW189558   5.023   1.245   6.736  0.7913 -0.8951 -1.4943
28249SOL    HW289559   4.880   1.277   6.701  0.0836 -1.2273  0.9071
28250SOL     OW89560   5.183   2.257  10.579  0.6385  0.5113 -0.3591
28250SOL    HW189561   5.165   2.329  10.640 -0.8418 -0.2357  0.1549
28250SOL    HW289562   5.278   2.251  10.575  0.7715  1.1089  1.2689
28251SOL     OW89563   3.456  10.557  11.054  0.0774 -0.0298 -0.3447
28251SOL    HW189564   3.395  10.625  11.084 -0.4096 -1.0004  0.9742
28251SOL    HW289565   3.543  10.594  11.069 -0.0460 -0.7837  3.5312
28252SOL     OW89566   4.036   5.018   4.273 -0.3026 -0.3527  0.1579
28252SOL    HW189567   4.114   5.057   4.312 -0.2993 -0.1793 -0.0201
28252SOL    HW289568   4.069   4.942   4.224 -0.2691 -0.3846  0.2292
28253SOL     OW89569   0.199  10.460   8.235 -0.2742 -0.1608 -0.0915
28253SOL    HW189570   0.135  10.531   8.230 -1.8368 -1.4723  0.3644
28253SOL    HW289571   0.152  10.383   8.203  1.2104 -1.1005 -0.1041
28254SOL     OW89572   6.623   9.553   3.226  0.1464 -0.0654 -0.0771
28254SOL    HW189573   6.602   9.618   3.159 -0.3502 -0.9597 -0.8150
28254SOL    HW289574   6.553   9.562   3.291  1.6765  2.1734  1.4262
28255SOL     OW89575   6.315   2.198  11.580 -0.0505  0.3009 -0.5031
28255SOL    HW189576   6.260   2.246  11.519 -1.5037 -1.1049 -0.3721
28255SOL    HW289577   6.263   2.121  11.604  0.8441  0.3347  1.7952
28256SOL     OW89578  11.602   0.780   0.377 -0.1321  0.3312  0.4986
28256SOL    HW189579  11.593   0.865   0.334 -0.4731 -0.1906 -0.4972
28256SOL    HW289580  11.529   0.777   0.439  0.0350  0.8648  0.7274
28257SOL     OW89581  11.530   5.670   3.234 -0.1754  0.3399 -0.2961
28257SOL    HW189582  11.459   5.666   3.170  0.2494  0.3433 -0.7694
28257SOL    HW289583  11.605   5.704   3.186  0.8690 -2.0020 -0.4735
28258SOL     OW89584   7.133   5.002   0.743  0.3498 -0.6021  0.0655
28258SOL    HW189585   7.153   5.083   0.791  0.4410 -0.5256 -0.0989
28258SOL    HW289586   7.103   5.033   0.657  1.7272 -0.7704 -0.4979
28259SOL     OW89587  12.282   8.680  11.807  0.1185 -0.2897 -0.1441
28259SOL    HW189588  12.239   8.626  11.873  0.5969 -2.1166 -1.2593
28259SOL    HW289589  12.314   8.618  11.742  2.0182  1.2222 -0.7560
28260SOL     OW89590  12.127   5.862  12.075  0.2129 -0.1562  0.0886
28260SOL    HW189591  12.111   5.790  12.014 -1.7046  1.4570 -1.4614
28260SOL    HW289592  12.082   5.836  12.156  0.0462 -0.9406 -0.2513
28261SOL     OW89593   7.780   3.087   9.880  0.1460 -0.1480 -0.1802
28261SOL    HW189594   7.850   3.052   9.825 -0.7312  0.1454 -1.5248
28261SOL    HW289595   7.826   3.132   9.951  1.4303  2.0883 -2.2930
28262SOL     OW89596   3.295   1.942  10.764 -0.5658  0.4892  0.0295
28262SOL    HW189597   3.371   2.001  10.768 -0.1142  0.0254 -1.2558
28262SOL    HW289598   3.254   1.950  10.850  1.7671 -0.3552  1.2833
28263SOL     OW89599   4.301   4.858   0.816  1.0071 -0.4725  0.3409
28263SOL    HW189600   4.376   4.878   0.761  1.7299  0.3989  1.6072
28263SOL    HW289601   4.337   4.809   0.889 -0.1509 -3.0191 -0.6544
28264SOL     OW89602   4.475   5.664   6.201  0.5024  0.1856 -0.2868
28264SOL    HW189603   4.437   5.668   6.113 -2.1360 -0.3998  0.7344
28264SOL    HW289604   4.421   5.723   6.253  1.2242 -0.4270  1.2214
28265SOL     OW89605   8.006   9.536   9.227 -0.2180 -0.3884  0.1068
28265SOL    HW189606   8.006   9.440   9.230  0.2231 -0.5995 -2.9461
28265SOL    HW289607   8.097   9.560   9.242 -0.5670 -0.2765  2.3659
28266SOL     OW89608  11.157   5.971   7.727  0.0746  0.1209 -0.0319
28266SOL    HW189609  11.176   5.949   7.636 -1.2085  1.0095 -0.5566
28266SOL    HW289610  11.236   6.015   7.758  1.1242 -1.5696 -0.1989
28267SOL     OW89611   2.433  10.926   0.795 -0.2064 -0.2193 -0.2800
28267SOL    HW189612   2.372  10.997   0.778 -1.2831 -0.6005  1.7100
28267SOL    HW289613   2.381  10.846   0.789  0.4089 -0.6560  0.0137
28268SOL     OW89614  12.423  11.377   1.110  0.0357  0.3247  0.3290
28268SOL    HW189615  12.348  11.331   1.148 -0.4191  1.1943  0.4987
28268SOL    HW289616  12.422  11.353   1.017 -0.2321  0.0416  0.4059
28269SOL     OW89617   3.079   7.523  10.061  0.2816 -0.3027 -0.0471
28269SOL    HW189618   3.001   7.513  10.007 -1.8896 -1.4354  3.0500
28269SOL    HW289619   3.119   7.436  10.064  0.2879 -0.2916  0.2837
28270SOL     OW89620  12.450   7.540   1.150 -0.1947 -0.5113 -0.4963
28270SOL    HW189621  12.544   7.538   1.171 -0.1430  1.0651 -0.4447
28270SOL    HW289622  12.446   7.521   1.056  0.1178 -1.1641 -0.3826
28271SOL     OW89623   2.601   7.251  11.985  0.2287  0.4370 -0.3857
28271SOL    HW189624   2.506   7.265  11.980  0.1852  0.0690 -0.6400
28271SOL    HW289625   2.612   7.193  12.061  0.1164 -0.6111 -1.1461
28272SOL     OW89626   9.271   8.216   0.070 -0.2744 -0.0626 -0.0194
28272SOL    HW189627   9.308   8.180  -0.010 -1.4492 -1.4993  0.0386
28272SOL    HW289628   9.242   8.139   0.120 -2.3434  0.9128  0.3786
28273SOL     OW89629   5.019  10.322  10.532 -0.1923 -0.0148 -0.2094
28273SOL    HW189630   5.057  10.286  10.612 -0.5899  0.3520  0.1516
28273SOL    HW289631   4.987  10.245  10.484  0.8437 -0.3088 -0.4401
28274SOL     OW89632   1.727   9.769   7.120  0.2348 -0.0244 -0.1770
28274SOL    HW189633   1.728   9.775   7.024  0.2374 -1.2539 -0.2718
28274SOL    HW289634   1.658   9.705   7.139  2.0623 -1.9105  0.4750
28275SOL     OW89635   0.093   2.286   1.546 -0.0634  0.0227  0.0301
28275SOL    HW189636   0.186   2.309   1.553 -0.1055  0.2638 -0.1744
28275SOL    HW289637   0.093   2.191   1.540  0.0767 -0.0930  1.4948
28276SOL     OW89638   2.307   9.563  12.032  0.4547 -0.2310  0.3746
28276SOL    HW189639   2.358   9.575  11.952  0.6892 -0.3584  0.5033
28276SOL    HW289640   2.363   9.599  12.101 -0.6170  1.8652  0.2388
28277SOL     OW89641   5.701   4.761  10.105  0.1146  0.2171 -0.2996
28277SOL    HW189642   5.764   4.826  10.134  1.2951 -1.2374  0.5429
28277SOL    HW289643   5.631   4.764  10.170  0.5420  0.1313  0.1705
28278SOL     OW89644  10.013   5.978   9.581 -0.5475 -0.1859 -0.4888
28278SOL    HW189645  10.016   6.000   9.675  1.2239 -1.8841 -0.0909
28278SOL    HW289646   9.919   5.971   9.562 -0.9428 -0.1228  1.2336
28279SOL     OW89647   4.196   8.341   2.027  0.1639 -0.4495  0.6193
28279SOL    HW189648   4.248   8.288   2.087  0.3090  0.2566  1.1187
28279SOL    HW289649   4.154   8.277   1.969  0.8242 -1.0706  0.8225
28280SOL     OW89650  10.367   9.710   3.127 -0.0497  0.5713  0.3167
28280SOL    HW189651  10.364   9.787   3.071 -3.1119  1.4527  1.4556
28280SOL    HW289652  10.334   9.639   3.072  3.0091 -0.1329 -0.8107
28281SOL     OW89653   4.442  10.290   7.259  0.1152  0.2607 -0.1460
28281SOL    HW189654   4.351  10.320   7.258 -0.2947 -0.9235 -0.4821
28281SOL    HW289655   4.491  10.358   7.213 -0.3882  1.5134  1.1190
28282SOL     OW89656   1.047  10.673   8.710  0.6440  0.1416 -0.2857
28282SOL    HW189657   0.969  10.693   8.763  0.9679  0.6675 -0.0080
28282SOL    HW289658   1.040  10.579   8.693 -0.6631  0.3884 -1.2472
28283SOL     OW89659  11.781   5.906   1.904 -0.0561 -0.5197  0.7686
28283SOL    HW189660  11.829   5.844   1.958 -0.4124 -0.4870  1.1286
28283SOL    HW289661  11.823   5.991   1.922  0.4060 -0.6446  0.3044
28284SOL     OW89662   4.873   3.986   5.006 -0.1515 -0.4107 -0.2529
28284SOL    HW189663   4.912   3.899   5.001  0.2329 -0.2692  0.1702
28284SOL    HW289664   4.875   4.008   5.100 -0.0987  0.1128 -0.3680
28285SOL     OW89665   5.435   5.232   7.054 -0.0248  0.1427  0.0039
28285SOL    HW189666   5.349   5.246   7.093 -0.2472 -3.0706  1.0182
28285SOL    HW289667   5.495   5.227   7.129  1.5041  3.9999 -0.7336
28286SOL     OW89668   5.082   2.391   3.976  0.0961 -0.0290 -0.1712
28286SOL    HW189669   5.105   2.474   4.018 -1.0320 -0.1741  0.7900
28286SOL    HW289670   5.009   2.413   3.917 -1.7000 -0.6540  1.7018
28287SOL     OW89671   8.191  12.225   8.897  0.1104 -0.7440 -0.3171
28287SOL    HW189672   8.278  12.221   8.934  0.7714 -0.6842 -1.7785
28287SOL    HW289673   8.184  12.314   8.861 -0.5027 -0.7789 -0.3029
28288SOL     OW89674  10.535  10.985   6.599 -0.0921  0.5368  0.2168
28288SOL    HW189675  10.547  10.898   6.637 -1.4566  0.2955  0.1201
28288SOL    HW289676  10.462  10.975   6.539  0.6825  1.4183 -0.9044
28289SOL     OW89677   9.614   9.530   5.978 -0.0940 -0.3331 -0.4336
28289SOL    HW189678   9.700   9.570   5.988 -0.6425  1.4201 -2.0424
28289SOL    HW289679   9.586   9.511   6.067  1.7324 -0.5077  0.1483
28290SOL     OW89680  10.756  10.174  10.485 -0.0863  0.2675 -0.7245
28290SOL    HW189681  10.784  10.239  10.549  0.1279 -1.8219  1.4233
28290SOL    HW289682  10.660  10.178  10.487 -0.0760  0.2871 -0.3783
28291SOL     OW89683   2.509   2.647   6.003  0.5969 -0.1086 -0.3344
28291SOL    HW189684   2.586   2.635   6.059 -0.8407  0.8669  1.9705
28291SOL    HW289685   2.522   2.732   5.962  1.7042 -0.8715 -1.6618
28292SOL     OW89686   6.557   1.520   2.294 -0.5299 -0.3164 -0.2274
28292SOL    HW189687   6.485   1.565   2.250  1.1279  1.1731 -1.5679
28292SOL    HW289688   6.623   1.588   2.308  0.9246 -1.7578  0.2697
28293SOL     OW89689   7.050   9.120   7.724 -0.0361  0.5727  0.0424
28293SOL    HW189690   6.999   9.116   7.804  0.6417 -0.4530  0.4490
28293SOL    HW289691   7.139   9.094   7.751  0.2736  0.5322 -0.9757
28294SOL     OW89692   8.354   0.035   1.168  0.5414  0.3769 -0.6072
28294SOL    HW189693   8.291   0.066   1.233  0.8686  1.2628 -0.7080
28294SOL    HW289694   8.438   0.066   1.199  0.7348  0.5794 -1.3164
28295SOL     OW89695   3.619   4.305   6.117  0.1101 -0.1001 -0.4860
28295SOL    HW189696   3.694   4.338   6.068  0.4581 -0.6027 -0.2970
28295SOL    HW289697   3.648   4.304   6.208 -0.5689  0.9237 -0.2406
28296SOL     OW89698   2.629   6.803   1.633  0.3851 -0.3036  0.6217
28296SOL    HW189699   2.693   6.732   1.631  0.6593 -0.0867  1.5967
28296SOL    HW289700   2.680   6.882   1.615  0.0956 -0.3220 -0.3608
28297SOL     OW89701   2.695   0.157   4.689 -0.0102 -0.4028 -0.3924
28297SOL    HW189702   2.621   0.149   4.630  0.6884 -0.9875 -1.2204
28297SOL    HW289703   2.664   0.122   4.773 -0.9474  0.2545 -0.4542
28298SOL     OW89704   3.243   4.110   3.706 -0.8902  0.3154  0.8548
28298SOL    HW189705   3.259   4.016   3.699 -0.4078  0.4877 -1.0960
28298SOL    HW289706   3.262   4.144   3.618  2.6092  2.7899  2.3232
28299SOL     OW89707   9.997  11.607  11.703  0.0343 -0.0913 -0.4982
28299SOL    HW189708   9.949  11.680  11.664 -1.5290 -0.9194 -0.1850
28299SOL    HW289709  10.041  11.646  11.779  1.2764  1.0348 -1.7213
28300SOL     OW89710  11.894   3.054   3.276 -0.0298 -0.1683  0.4664
28300SOL    HW189711  11.979   3.086   3.244 -0.6595 -0.7936 -2.0645
28300SOL    HW289712  11.837   3.131   3.273 -0.4121 -0.4853 -1.2937
28301SOL     OW89713   9.967  10.907   1.599 -0.5636  0.3766 -0.4569
28301SOL    HW189714  10.016  10.895   1.680 -0.9872 -0.4843 -0.3215
28301SOL    HW289715  10.032  10.894   1.529 -0.3181  0.5593 -0.2621
28302SOL     OW89716   1.168   3.761   3.213  0.1952  0.2508 -0.1935
28302SOL    HW189717   1.075   3.779   3.229  0.3695  0.0626  1.0955
28302SOL    HW289718   1.169   3.719   3.126 -0.7963  1.2136 -0.6955
28303SOL     OW89719   9.917   6.900   0.416  0.4470  0.6895  0.0430
28303SOL    HW189720   9.845   6.838   0.410 -0.0815  1.3606 -0.8198
28303SOL    HW289721   9.938   6.905   0.510  0.7457 -1.0394  0.0911
28304SOL     OW89722   0.765  11.108   7.248 -0.5377 -0.7634 -0.2896
28304SOL    HW189723   0.808  11.047   7.188  1.4450 -0.9695  1.2222
28304SOL    HW289724   0.719  11.052   7.310 -0.9297 -0.6273 -0.4589
28305SOL     OW89725  10.210   2.856   9.925  0.1631 -0.6846  0.7786
28305SOL    HW189726  10.254   2.918   9.983 -2.3498  1.6012  0.4382
28305SOL    HW289727  10.217   2.894   9.838  0.6324 -2.1677  0.1233
28306SOL     OW89728   2.651   0.516   8.410  0.1914 -0.1638 -0.2206
28306SOL    HW189729   2.697   0.525   8.493  0.9179 -0.9956 -0.5188
28306SOL    HW289730   2.673   0.596   8.362 -0.2953  0.3554  0.4034
28307SOL     OW89731   3.877   9.117   9.469  0.3814 -0.2353  0.0620
28307SOL    HW189732   3.944   9.063   9.427  0.9080 -1.8607  2.7741
28307SOL    HW289733   3.842   9.062   9.539 -1.0868  1.9682  1.1792
28308SOL     OW89734   2.616   9.324  12.246 -0.3248  0.1496 -0.0135
28308SOL    HW189735   2.674   9.254  12.274  0.7867  0.5648 -1.1810
28308SOL    HW289736   2.562   9.284  12.177  1.3737  0.7848 -1.7968
28309SOL     OW89737   9.363   4.439   3.914 -0.5172  0.5099 -0.6894
28309SOL    HW189738   9.426   4.395   3.970 -2.1278 -0.7006  0.2297
28309SOL    HW289739   9.382   4.406   3.826 -1.1386 -1.4200 -0.1361
28310SOL     OW89740  10.113   8.152   8.174  0.3418 -0.5164  0.3669
28310SOL    HW189741  10.151   8.079   8.223  0.9634 -1.0753 -0.8993
28310SOL    HW289742  10.187   8.208   8.152  0.3635 -1.2001 -1.4362
28311SOL     OW89743   3.812   5.253   5.107  0.1570 -0.1236 -0.4773
28311SOL    HW189744   3.857   5.210   5.034 -1.9632 -1.0416 -1.3283
28311SOL    HW289745   3.734   5.292   5.068 -1.0205 -0.5971  1.2743
28312SOL     OW89746   4.989   7.781   4.347  0.2769 -0.2318 -0.0487
28312SOL    HW189747   4.975   7.686   4.350 -0.2742 -0.1363  1.1708
28312SOL    HW289748   4.980   7.809   4.438 -0.0572  1.0668 -0.4586
28313SOL     OW89749  11.204   4.262   2.626  0.1573  0.2815 -0.0015
28313SOL    HW189750  11.205   4.341   2.572 -1.1730 -0.4080 -1.0829
28313SOL    HW289751  11.196   4.295   2.716  0.8420  1.3926 -0.3173
28314SOL     OW89752  12.464   0.106   7.081  0.2684 -0.4861 -0.7419
28314SOL    HW189753  12.497   0.195   7.072  1.0033 -0.4791  1.4816
28314SOL    HW289754  12.476   0.067   6.994  1.2700  1.1424 -1.3692
28315SOL     OW89755   5.389   2.031  11.552 -0.1248  0.2621  0.4844
28315SOL    HW189756   5.325   1.972  11.512  0.3064 -0.3089  0.6138
28315SOL    HW289757   5.474   1.992  11.531  0.2695  1.8245 -0.9918
28316SOL     OW89758  10.951   9.792   4.891 -0.3545 -0.2434  0.1857
28316SOL    HW189759  10.968   9.770   4.983 -0.8664 -0.8789  0.1377
28316SOL    HW289760  10.862   9.761   4.875 -0.1389 -0.4680 -0.6245
28317SOL     OW89761   5.255   7.551   9.392  0.9444 -0.1671 -0.1345
28317SOL    HW189762   5.223   7.534   9.480  0.9788  1.3321  0.1826
28317SOL    HW289763   5.320   7.621   9.402 -0.4521  1.4211 -1.5442
28318SOL     OW89764   6.643   4.729  12.130  0.4563  0.0920 -0.0826
28318SOL    HW189765   6.695   4.686  12.199  1.0214 -2.1054 -1.7872
28318SOL    HW289766   6.706   4.747  12.060 -0.8205 -1.7468 -1.8054
28319SOL     OW89767   2.181   5.149   7.540 -0.0433  0.2001  0.3382
28319SOL    HW189768   2.205   5.115   7.454 -1.0138 -0.3595  0.2740
28319SOL    HW289769   2.216   5.085   7.602  0.5839  0.5604  0.3631
28320SOL     OW89770  11.203   4.179   5.065  0.2412 -0.1441  0.6241
28320SOL    HW189771  11.186   4.163   5.158 -0.8895 -0.9767  0.3038
28320SOL    HW289772  11.279   4.125   5.045  0.4280 -0.0414  1.0301
28321SOL     OW89773   7.978   9.915   8.047 -0.1538  0.5266 -1.0591
28321SOL    HW189774   7.892   9.890   8.014 -0.8543  1.1212  0.2293
28321SOL    HW289775   7.985  10.009   8.029 -0.4555  0.8158  0.1967
28322SOL     OW89776   4.096   5.619   5.656  0.1764 -0.1947 -0.1302
28322SOL    HW189777   4.160   5.637   5.587 -0.3060  0.7429 -0.3507
28322SOL    HW289778   4.144   5.568   5.721  1.0485  0.1939 -0.4528
28323SOL     OW89779   3.215  10.787  10.557 -0.1232  0.1192  0.2278
28323SOL    HW189780   3.228  10.778  10.463  0.6885 -0.9410  0.4165
28323SOL    HW289781   3.299  10.759  10.596 -0.8623 -0.7392  1.2922
28324SOL     OW89782   4.466   6.033   0.590  0.4473 -0.4400  0.1528
28324SOL    HW189783   4.415   6.088   0.529  0.6752 -0.2396  0.1436
28324SOL    HW289784   4.557   6.053   0.569  0.5556 -1.8422 -0.7979
28325SOL     OW89785   5.005  11.461   9.090  0.7426 -0.0424 -0.1331
28325SOL    HW189786   4.975  11.403   9.021  0.8054 -0.2050 -0.0251
28325SOL    HW289787   5.095  11.483   9.067  1.3156 -1.3763  0.7199
28326SOL     OW89788   7.749  10.519   6.422  0.5883 -0.2845 -0.2804
28326SOL    HW189789   7.734  10.596   6.477  1.2919 -0.5873  0.3665
28326SOL    HW289790   7.662  10.481   6.409  0.3205  0.2372 -0.0335
28327SOL     OW89791  11.286   8.041  10.821  0.1245 -0.0772 -0.6894
28327SOL    HW189792  11.340   8.105  10.775  2.0171 -0.9185  0.2266
28327SOL    HW289793  11.271   7.972  10.757 -0.8946  0.6926 -1.3066
28328SOL     OW89794   7.173   9.279   3.654 -0.1210 -0.1154  0.3012
28328SOL    HW189795   7.266   9.274   3.634 -0.3502 -1.6001 -0.5787
28328SOL    HW289796   7.150   9.371   3.641  0.8215 -0.0904 -1.3692
28329SOL     OW89797   8.559   8.556   6.658  0.0573  0.3662 -0.1988
28329SOL    HW189798   8.505   8.493   6.611  0.1592  0.4789 -0.4713
28329SOL    HW289799   8.618   8.591   6.591  0.5503  0.1551  0.1245
28330SOL     OW89800   1.324   1.737   3.865 -0.0827 -0.4925 -0.1268
28330SOL    HW189801   1.360   1.798   3.800  0.9465 -0.0033  0.8758
28330SOL    HW289802   1.401   1.693   3.901 -0.7221 -1.4769  0.0777
28331SOL     OW89803  11.667   6.429   4.701 -0.1098  0.8653  0.3359
28331SOL    HW189804  11.685   6.522   4.705  0.3764  0.7803  0.2312
28331SOL    HW289805  11.650   6.403   4.792  1.8572  0.6630  0.6878
28332SOL     OW89806  10.762   4.763  12.446  0.2779 -0.2946 -0.1137
28332SOL    HW189807  10.836   4.735  12.393  0.4866 -2.1247  1.0264
28332SOL    HW289808  10.791   4.844  12.488  2.5724 -2.0740  2.0216
28333SOL     OW89809   3.365   4.363  10.965  0.0495  0.2765  0.6199
28333SOL    HW189810   3.439   4.304  10.950 -0.0108  0.0681  1.1437
28333SOL    HW289811   3.354   4.409  10.881 -1.1096 -1.7919 -0.4514
28334SOL     OW89812  12.232   1.942   0.348 -0.6646  0.1406 -0.3708
28334SOL    HW189813  12.295   2.011   0.327 -0.8680  0.5497  0.3273
28334SOL    HW289814  12.170   1.943   0.275 -0.3142  0.2681 -0.6726
28335SOL     OW89815   0.891   7.362   9.446  0.0495  0.2259  0.6136
28335SOL    HW189816   0.965   7.416   9.421  1.3491 -1.5483  0.4474
28335SOL    HW289817   0.904   7.280   9.398 -1.7156 -0.3530  1.0371
28336SOL     OW89818   5.117   5.540  12.174  0.2271 -0.2267 -0.3446
28336SOL    HW189819   5.077   5.529  12.260 -0.7663  0.1015 -0.7558
28336SOL    HW289820   5.173   5.617  12.184 -0.0109 -0.0872 -0.0340
28337SOL     OW89821   8.146  10.599   9.519 -0.2332  0.3997 -0.2296
28337SOL    HW189822   8.120  10.534   9.454  0.1425  0.2898 -0.2703
28337SOL    HW289823   8.118  10.683   9.482  0.6719  0.4210 -0.9035
28338SOL     OW89824   4.260   2.963  12.438  0.1274 -0.0408  0.2666
28338SOL    HW189825   4.217   3.006  12.513  0.5122  0.2591  0.3172
28338SOL    HW289826   4.292   3.035  12.384 -1.2143 -0.2318 -0.8261
28339SOL     OW89827  10.365   2.265   4.232  0.3439  0.5691 -0.5821
28339SOL    HW189828  10.345   2.177   4.265 -0.7642  0.9150 -0.2863
28339SOL    HW289829  10.280   2.301   4.209  0.6397  2.0113  0.4426
28340SOL     OW89830   7.571  12.577  10.576  0.0690  0.0048 -0.3257
28340SOL    HW189831   7.648  12.545  10.528  1.6283  1.3225  1.1763
28340SOL    HW289832   7.542  12.653  10.527  0.1912 -0.0390 -0.4679
28341SOL     OW89833  12.201   6.185   1.245  0.9045 -0.0327  0.3153
28341SOL    HW189834  12.268   6.195   1.313  0.8070  0.0866  0.3945
28341SOL    HW289835  12.169   6.096   1.256 -0.8955  0.7394  2.0864
28342SOL     OW89836   4.494   1.867   8.544  0.6139  0.3441  0.7340
28342SOL    HW189837   4.461   1.854   8.632  1.0732  0.8223  0.9842
28342SOL    HW289838   4.536   1.953   8.546 -3.4790  2.6723 -1.1922
28343SOL     OW89839   6.216   8.880   7.955  0.2235 -0.2962  1.0410
28343SOL    HW189840   6.237   8.951   7.894 -1.0886 -1.1154 -0.4419
28343SOL    HW289841   6.253   8.802   7.914 -1.1018 -0.9382  1.0177
28344SOL     OW89842  10.931   8.689   3.125  0.0756  0.6251  0.1702
28344SOL    HW189843  10.894   8.605   3.102 -0.6069  0.7218  0.8733
28344SOL    HW289844  10.990   8.711   3.052  0.2861 -0.4622  0.0029
28345SOL     OW89845   9.643   7.440   5.059 -0.6646  0.4833  0.0838
28345SOL    HW189846   9.646   7.370   5.124  0.0079  1.5912  1.3075
28345SOL    HW289847   9.588   7.508   5.100 -1.6088  0.5415 -1.2258
28346SOL     OW89848   5.990   0.334   8.943  1.0056 -0.6477  0.2147
28346SOL    HW189849   6.021   0.269   8.879 -0.6012 -1.4729  0.2237
28346SOL    HW289850   5.935   0.393   8.893  1.4286 -0.0441  0.4555
28347SOL     OW89851   3.937   4.624   3.706 -0.6327  0.0045 -0.4893
28347SOL    HW189852   3.864   4.654   3.760  0.6053 -0.2389  1.4065
28347SOL    HW289853   3.991   4.702   3.693 -0.5047 -0.1202 -0.7096
28348SOL     OW89854   5.578   6.182  12.603  0.0473  0.4167 -0.4282
28348SOL    HW189855   5.544   6.213  12.519 -0.7110 -0.9261 -0.6383
28348SOL    HW289856   5.503   6.144  12.648  0.7074 -0.0933  0.2866
28349SOL     OW89857   5.688   4.500   5.928  0.0298 -0.4277  0.1318
28349SOL    HW189858   5.691   4.407   5.905  0.5936  0.0075 -1.7173
28349SOL    HW289859   5.595   4.521   5.927 -0.2206 -1.2450  1.9316
28350SOL     OW89860   9.751   8.497  10.603 -0.1166  0.1690  0.0690
28350SOL    HW189861   9.720   8.418  10.647  0.0782 -0.4404 -0.8619
28350SOL    HW289862   9.687   8.564  10.627 -0.3046 -0.2766  0.8377
28351SOL     OW89863   5.045   9.960   2.666 -0.3551 -0.0743 -0.4489
28351SOL    HW189864   5.127  10.009   2.666  0.0434 -0.6378  1.8523
28351SOL    HW289865   4.981  10.018   2.707 -0.2216 -0.9008  0.9872
28352SOL     OW89866   6.423   2.512  11.302 -0.6151  0.2934  0.5094
28352SOL    HW189867   6.374   2.530  11.221 -0.8179 -0.3861  0.4790
28352SOL    HW289868   6.515   2.515  11.275 -0.7029 -1.9098 -0.1970
28353SOL     OW89869   3.657   4.991  11.994  0.2929 -0.1205 -0.1469
28353SOL    HW189870   3.604   5.068  11.971  1.3262  0.5472 -0.3572
28353SOL    HW289871   3.657   4.938  11.914  0.6599  0.3090 -0.4376
28354SOL     OW89872   0.444   6.468   8.423  0.5630  0.5550  0.0129
28354SOL    HW189873   0.495   6.398   8.381 -0.9015 -1.1121  0.8523
28354SOL    HW289874   0.453   6.451   8.516 -0.9248  0.6361  0.1954
28355SOL     OW89875   4.084   4.160   2.370  0.3701 -0.7434  0.3352
28355SOL    HW189876   4.177   4.173   2.349  0.4675 -2.4241 -0.4408
28355SOL    HW289877   4.041   4.237   2.334  1.4679  0.0993  0.7749
28356SOL     OW89878   9.747   3.693   1.393 -0.3074 -0.0670  0.6047
28356SOL    HW189879   9.751   3.788   1.403 -0.2485 -0.2553  3.0766
28356SOL    HW289880   9.666   3.678   1.343 -0.4856  1.2581  0.4495
28357SOL     OW89881   9.181   8.477   2.189  0.1398  0.0153 -0.5305
28357SOL    HW189882   9.146   8.549   2.241 -0.6401  0.9779 -2.2878
28357SOL    HW289883   9.104   8.435   2.152  0.6570 -0.9093 -0.5844
28358SOL     OW89884  11.021   7.692  10.606  0.0152 -0.2843  0.0830
28358SOL    HW189885  10.938   7.682  10.653 -0.4652  0.4165 -0.5927
28358SOL    HW289886  11.017   7.628  10.535 -0.0423 -0.1038 -0.0770
28359SOL     OW89887   0.096   3.652   6.548  0.0929  0.2986  0.0368
28359SOL    HW189888   0.143   3.641   6.631  2.3826 -1.6601 -1.4054
28359SOL    HW289889   0.012   3.609   6.563  1.5904 -2.7445  0.5604
28360SOL     OW89890   1.213   7.029   4.594 -0.4695 -0.0035  0.7006
28360SOL    HW189891   1.157   6.971   4.542  1.4946 -1.9746  0.5927
28360SOL    HW289892   1.153   7.092   4.633 -2.6252 -1.4393 -0.0670
28361SOL     OW89893   1.428   9.321  11.132 -0.0885 -0.0199 -0.3310
28361SOL    HW189894   1.439   9.249  11.070 -2.3310 -0.4039 -0.3568
28361SOL    HW289895   1.415   9.279  11.217  3.1953  0.5076  0.5808
28362SOL     OW89896   4.709   9.405   5.554 -0.3382 -0.1854  0.0991
28362SOL    HW189897   4.776   9.351   5.514  0.7620  1.1096  0.1348
28362SOL    HW289898   4.632   9.393   5.498  0.5653  0.0147 -1.2392
28363SOL     OW89899   1.950   9.147   1.350  0.2554 -0.1771  0.5380
28363SOL    HW189900   2.042   9.136   1.328  0.4707  0.8306  0.8664
28363SOL    HW289901   1.921   9.220   1.295 -0.2208 -0.1819  0.7753
28364SOL     OW89902  12.251   8.847   3.377  0.2035  0.1730  0.6503
28364SOL    HW189903  12.219   8.761   3.349  0.4013  0.0391  0.8383
28364SOL    HW289904  12.281   8.889   3.296 -0.7599  0.4352  0.4093
28365SOL     OW89905   6.417  11.048   4.997 -0.5942 -0.3449 -0.2002
28365SOL    HW189906   6.407  11.133   5.038 -3.4367 -0.0844 -1.2144
28365SOL    HW289907   6.461  10.994   5.063 -0.0742  1.4749  1.0081
28366SOL     OW89908   4.718   0.988   3.772  0.2649 -0.0656  0.1007
28366SOL    HW189909   4.626   0.963   3.761  0.0187  0.0565  1.6544
28366SOL    HW289910   4.717   1.055   3.840  1.4786  0.1755 -0.0885
28367SOL     OW89911   4.144  11.479   1.092 -0.1206 -0.3425  0.2832
28367SOL    HW189912   4.088  11.502   1.017  1.4581  1.8300 -0.2965
28367SOL    HW289913   4.101  11.519   1.167 -2.0581 -3.0524  0.8012
28368SOL     OW89914   8.634  11.504   1.514  0.3690 -0.3607  0.5358
28368SOL    HW189915   8.650  11.447   1.440 -1.1538 -0.4605  0.2478
28368SOL    HW289916   8.691  11.580   1.500 -1.6020  0.7832 -2.0895
28369SOL     OW89917   6.751   0.235   2.554 -0.3499 -0.5162  0.3478
28369SOL    HW189918   6.758   0.194   2.641  1.4475 -1.6523 -0.2817
28369SOL    HW289919   6.840   0.265   2.535 -0.8432  0.2291 -0.8806
28370SOL     OW89920  10.828   2.013  10.235  0.0815  0.5518  0.0594
28370SOL    HW189921  10.820   2.038  10.327  0.5387 -0.3610  0.3577
28370SOL    HW289922  10.838   2.096  10.188 -3.4428  1.3605  0.4322
28371SOL     OW89923   6.722   2.321   4.245  0.2716  0.1478 -0.3794
28371SOL    HW189924   6.790   2.326   4.312  1.5618  0.1852 -1.6369
28371SOL    HW289925   6.766   2.348   4.164 -0.9773 -0.8025 -1.4242
28372SOL     OW89926   7.422   2.675   0.396 -0.0602  0.1926 -0.0172
28372SOL    HW189927   7.428   2.599   0.338  0.3976  0.0405  0.2197
28372SOL    HW289928   7.513   2.693   0.420 -0.0440  1.5536 -1.0146
28373SOL     OW89929   8.930   2.354   5.220  0.0671 -0.1532 -0.2284
28373SOL    HW189930   8.994   2.423   5.237 -1.6337  1.4274  0.1037
28373SOL    HW289931   8.943   2.290   5.290  1.5830 -0.1310 -0.4587
28374SOL     OW89932   5.237   9.035   6.388  0.0532  0.0097  0.1550
28374SOL    HW189933   5.312   9.090   6.367  0.7815 -1.1818 -0.4846
28374SOL    HW289934   5.167   9.067   6.330  0.8242 -0.4982 -1.0991
28375SOL     OW89935   7.951   7.664   5.341  0.3490 -0.5072  0.2864
28375SOL    HW189936   7.873   7.617   5.371  0.1314  0.2490  0.9623
28375SOL    HW289937   7.932   7.756   5.362  1.5571 -0.3493  0.7574
28376SOL     OW89938   4.468  11.583   4.908  0.3425  0.1459  0.6272
28376SOL    HW189939   4.377  11.553   4.907  0.2265  0.4662 -1.0190
28376SOL    HW289940   4.520  11.503   4.918 -0.0598 -0.3665 -1.0823
28377SOL     OW89941   6.403   6.773   2.366  0.2920 -0.2900 -0.3957
28377SOL    HW189942   6.324   6.723   2.348  0.4481 -1.6309  2.2360
28377SOL    HW289943   6.416   6.826   2.287 -2.7936 -0.5331 -1.1897
28378SOL     OW89944   5.357   3.581   5.666  0.1709 -0.2666 -0.3474
28378SOL    HW189945   5.381   3.583   5.759  1.0864  0.1185 -0.5887
28378SOL    HW289946   5.344   3.488   5.647 -0.0267 -0.3508  0.1578
28379SOL     OW89947   6.881   0.088   9.567 -0.4683 -0.0922 -0.1336
28379SOL    HW189948   6.963   0.091   9.517 -0.5556  0.2792 -0.2561
28379SOL    HW289949   6.813   0.077   9.501 -0.4496 -1.4380  0.0360
28380SOL     OW89950   9.647   3.269  11.696  0.2213  0.5430 -0.3773
28380SOL    HW189951   9.699   3.204  11.745 -0.1047 -0.2332 -1.0327
28380SOL    HW289952   9.682   3.266  11.607 -1.4393 -0.5869 -1.0334
28381SOL     OW89953  11.115  11.911   7.348  0.5331 -0.3299 -0.0189
28381SOL    HW189954  11.059  11.834   7.355  0.2636  0.0012  3.5460
28381SOL    HW289955  11.190  11.883   7.297 -1.5227 -1.5928 -2.5643
28382SOL     OW89956   5.103   7.806   2.909 -0.2117 -0.5256  0.1189
28382SOL    HW189957   5.184   7.767   2.941 -0.2120  0.1425  0.9605
28382SOL    HW289958   5.081   7.872   2.974 -0.7822  0.1391 -0.7365
28383SOL     OW89959   7.735   1.680   8.209 -0.1066 -0.0180  0.7782
28383SOL    HW189960   7.812   1.729   8.236  0.0295  0.4818 -0.4459
28383SOL    HW289961   7.768   1.592   8.190  0.8857  0.9599 -2.8257
28384SOL     OW89962   5.273   7.169   5.858  0.1272  1.1602  0.2795
28384SOL    HW189963   5.213   7.113   5.809  2.1580 -1.9866  1.1101
28384SOL    HW289964   5.229   7.183   5.943 -0.5241  1.1160 -0.0408
28385SOL     OW89965   9.407   9.911   9.705  0.1118 -0.1349 -0.4790
28385SOL    HW189966   9.470   9.843   9.727  0.0354  0.0892  0.4537
28385SOL    HW289967   9.348   9.870   9.641  0.4323 -0.7425 -0.3875
28386SOL     OW89968   2.694  12.259   1.683 -0.2949 -0.0925  0.8178
28386SOL    HW189969   2.713  12.318   1.756  0.8015 -0.5525  0.9166
28386SOL    HW289970   2.717  12.172   1.715  0.8432 -0.2321 -0.2792
28387SOL     OW89971  10.927   3.656   0.364  0.2539  0.0419 -0.6464
28387SOL    HW189972  10.950   3.610   0.444 -0.5105  0.2867 -0.2707
28387SOL    HW289973  10.971   3.608   0.294 -1.7277 -2.2441 -0.4652
28388SOL     OW89974   3.258  10.713  11.157  0.0517 -0.3516  0.2737
28388SOL    HW189975   3.256  10.797  11.204  1.8307 -0.6252  0.8981
28388SOL    HW289976   3.213  10.652  11.214 -1.2798  0.1573 -0.1946
28389SOL     OW89977  12.611   7.265   4.653 -0.1751  0.1658 -0.6537
28389SOL    HW189978  12.563   7.315   4.586 -0.0916  0.5008 -0.4627
28389SOL    HW289979  12.592   7.174   4.632 -3.5940  0.2579  1.3022
28390SOL     OW89980   0.965   5.824   7.101  0.5195  0.4914 -0.0447
28390SOL    HW189981   0.902   5.754   7.089  0.6289  0.3759  0.0546
28390SOL    HW289982   0.985   5.825   7.194 -0.8061  1.8156  0.2558
28391SOL     OW89983   9.638   1.744   8.029 -0.0632  0.2159 -0.0493
28391SOL    HW189984   9.731   1.764   8.021 -0.0730 -0.1405 -1.3372
28391SOL    HW289985   9.594   1.824   8.000 -0.1150 -0.4176 -1.8751
28392SOL     OW89986   3.525   7.265   5.687 -0.0869  0.1597 -0.0295
28392SOL    HW189987   3.608   7.301   5.717 -0.7136  2.3658 -0.7508
28392SOL    HW289988   3.496   7.210   5.759  3.1193 -2.7706 -0.7424
28393SOL     OW89989   6.554   6.307   1.231  0.2673  0.6065 -0.6186
28393SOL    HW189990   6.543   6.274   1.142  1.6292 -2.7423  0.2941
28393SOL    HW289991   6.468   6.343   1.254 -0.6226 -0.0422 -2.6748
28394SOL     OW89992   6.754  10.197   9.100  0.5373 -0.5341  0.0556
28394SOL    HW189993   6.811  10.162   9.031  0.4926 -0.3392 -0.0807
28394SOL    HW289994   6.778  10.289   9.106  0.6420 -0.5824  0.4038
28395SOL     OW89995   7.440   4.035   0.068  0.2283  0.0268  0.1640
28395SOL    HW189996   7.467   3.952   0.029  0.6711  1.0343 -1.7954
28395SOL    HW289997   7.509   4.055   0.132  1.4943  0.1067 -1.1862
28396SOL     OW89998  10.364  11.701  10.519 -0.1238 -0.3113 -0.2782
28396SOL    HW189999  10.375  11.730  10.429  0.3645  0.1437 -0.0746
28396SOL    HW290000  10.441  11.734  10.565  0.7242 -2.3463 -0.1231
28397SOL     OW90001   3.760   7.837   3.264  0.5460 -0.3948 -0.0429
28397SOL    HW190002   3.693   7.776   3.294 -2.0215  0.3918 -3.5245
28397SOL    HW290003   3.817   7.784   3.208  1.1286 -0.4668  0.6016
28398SOL     OW90004   9.364   8.099  12.488 -0.1006 -0.0443  0.2915
28398SOL    HW190005   9.427   8.057  12.430 -0.1216 -1.2183  1.1010
28398SOL    HW290006   9.297   8.135  12.429 -0.5638 -1.9363 -0.3840
28399SOL     OW90007   2.531   0.812   4.585 -0.2038  0.2907 -0.2866
28399SOL    HW190008   2.500   0.791   4.497  0.5852 -1.2343 -0.2247
28399SOL    HW290009   2.613   0.860   4.571 -0.4429  0.6768 -0.3835
28400SOL     OW90010  11.257   3.576   2.754 -0.1343 -0.0411 -0.1797
28400SOL    HW190011  11.293   3.636   2.819 -0.0960 -0.6670  0.3736
28400SOL    HW290012  11.169   3.555   2.787 -1.0870  1.4949 -1.5187
28401SOL     OW90013   6.934   4.778   2.314 -0.0436 -0.0028  0.1449
28401SOL    HW190014   6.932   4.858   2.262  2.3463  1.0912  1.5521
28401SOL    HW290015   6.926   4.707   2.250  2.1856  1.2691 -1.6924
28402SOL     OW90016   6.050   3.174   3.357  0.2782  0.4160  0.4127
28402SOL    HW190017   6.140   3.156   3.384  0.0396 -0.0785  0.8905
28402SOL    HW290018   6.033   3.263   3.390  0.2300  0.0930  1.2783
28403SOL     OW90019   4.538   0.351   5.780  0.3016 -0.0272  0.1822
28403SOL    HW190020   4.466   0.366   5.842  0.6049  0.4861  0.4137
28403SOL    HW290021   4.617   0.349   5.834  0.4717 -0.5815 -0.0734
28404SOL     OW90022   8.994   0.684   7.749 -0.2066  0.1527 -0.3381
28404SOL    HW190023   9.019   0.614   7.809  0.0080 -0.5990 -1.2724
28404SOL    HW290024   8.963   0.638   7.671 -0.2355  1.1037 -0.9000
28405SOL     OW90025   4.451  11.015   5.674 -0.1647  0.2976 -0.0198
28405SOL    HW190026   4.539  11.024   5.637 -0.0462  1.2350  0.4753
28405SOL    HW290027   4.395  11.004   5.597  0.2309  0.9847 -0.4262
28406SOL     OW90028   8.411   7.269   8.195 -0.9892  0.3277 -0.5203
28406SOL    HW190029   8.407   7.360   8.164  2.2883 -0.0358 -2.4870
28406SOL    HW290030   8.395   7.217   8.116 -1.6872 -0.8389  0.3667
28407SOL     OW90031   7.758   7.569   3.883  0.5747  0.3329 -0.0372
28407SOL    HW190032   7.685   7.627   3.865 -0.8777 -1.3675  0.1230
28407SOL    HW290033   7.772   7.522   3.800  1.3899  0.5128 -0.0141
28408SOL     OW90034   4.522   6.614   4.659  0.5020 -0.0738  0.2999
28408SOL    HW190035   4.523   6.552   4.587 -1.9174  0.9862 -0.7582
28408SOL    HW290036   4.523   6.560   4.738  0.9847 -1.3357 -0.5433
28409SOL     OW90037   3.728   8.517   0.100 -0.1630 -0.6266 -0.4335
28409SOL    HW190038   3.766   8.484   0.182 -1.8445 -1.9096 -0.1289
28409SOL    HW290039   3.725   8.441   0.042 -1.2558 -0.3018 -0.8189
28410SOL     OW90040   1.237  12.466   3.213 -0.9425 -0.7900 -0.7438
28410SOL    HW190041   1.202  12.393   3.265  0.5795 -0.2157  1.2079
28410SOL    HW290042   1.332  12.455   3.217 -0.7397  0.2337 -2.0496
28411SOL     OW90043  11.555  12.397   4.761  0.1620  0.2154  0.1191
28411SOL    HW190044  11.526  12.404   4.670  0.4104  0.7688  0.0781
28411SOL    HW290045  11.628  12.335   4.759  0.0980  0.1453 -0.0406
28412SOL     OW90046   2.194   3.050   1.398 -0.1266 -0.2803  0.2408
28412SOL    HW190047   2.129   3.038   1.329 -0.2502  1.1985  0.0605
28412SOL    HW290048   2.215   2.961   1.427  0.7714 -1.0609 -2.4651
28413SOL     OW90049   3.043   3.440   4.220  0.4059  0.0427 -1.0143
28413SOL    HW190050   3.035   3.497   4.144  3.0130 -2.7662 -3.6548
28413SOL    HW290051   2.985   3.366   4.202 -0.1840  0.0639  0.5830
28414SOL     OW90052   1.512   8.419  10.744  0.1199  0.1827  0.2003
28414SOL    HW190053   1.424   8.409  10.708  0.5068 -2.4845 -0.2549
28414SOL    HW290054   1.500   8.468  10.825 -1.6745  0.4166 -0.1657
28415SOL     OW90055   2.538   3.138   9.656 -0.0636 -0.8917 -0.3940
28415SOL    HW190056   2.484   3.098   9.587  0.6338 -1.2378 -0.7435
28415SOL    HW290057   2.628   3.113   9.634  0.4938  1.3758 -1.0042
28416SOL     OW90058   0.050   7.954  11.788  0.1285 -0.6374  0.0706
28416SOL    HW190059  -0.035   7.985  11.817  1.5640  0.2498  4.0072
28416SOL    HW290060   0.097   8.033  11.760  0.2024 -0.9108 -0.6153
28417SOL     OW90061   0.707   1.939  10.800  0.5142 -0.2534 -0.0408
28417SOL    HW190062   0.622   1.923  10.760  0.8592 -0.4425 -0.7238
28417SOL    HW290063   0.689   1.999  10.872 -0.5390 -2.1095  1.3293
28418SOL     OW90064   8.697   2.286   6.173  0.4385 -0.1293 -0.5117
28418SOL    HW190065   8.790   2.292   6.149  0.7175 -0.7297  0.4035
28418SOL    HW290066   8.689   2.202   6.219 -0.4882  0.0858 -0.2645
28419SOL     OW90067   8.024   1.482   9.331  0.0727 -0.3688 -0.0923
28419SOL    HW190068   7.958   1.492   9.263 -0.0599  0.8694  0.1923
28419SOL    HW290069   8.046   1.389   9.330 -2.5073 -1.0565  0.5814
28420SOL     OW90070   2.848   3.609   5.931  0.5247 -0.4674 -0.2808
28420SOL    HW190071   2.943   3.597   5.938  0.5608 -0.2437 -0.3751
28420SOL    HW290072   2.826   3.665   6.005  0.4097 -0.8161 -0.0463
28421SOL     OW90073   2.704   2.746   8.445  0.0709  0.2567 -0.4424
28421SOL    HW190074   2.654   2.724   8.524  2.3437 -1.2411  0.6660
28421SOL    HW290075   2.786   2.782   8.477  0.6389  0.5849 -2.1545
28422SOL     OW90076   7.439   6.575   4.694  0.6056  0.1473  0.2375
28422SOL    HW190077   7.396   6.498   4.732  2.1276 -0.7375  0.2605
28422SOL    HW290078   7.492   6.610   4.764  1.5175 -0.0238 -0.3465
28423SOL     OW90079   9.034  11.670   3.377  0.1543  0.4117  0.3026
28423SOL    HW190080   9.066  11.585   3.345 -3.2681 -1.1309  0.5754
28423SOL    HW290081   9.023  11.657   3.471 -1.0133  0.9102  0.2476
28424SOL     OW90082   6.844   5.608   8.943  0.1790  0.5701 -0.1403
28424SOL    HW190083   6.924   5.636   8.988 -0.3855  1.9070  0.0774
28424SOL    HW290084   6.780   5.595   9.013  0.3932 -1.2904 -0.2351
28425SOL     OW90085   0.591   1.067   8.166 -0.5381  0.3383  0.2431
28425SOL    HW190086   0.645   1.092   8.241  0.4692  4.1012 -1.4959
28425SOL    HW290087   0.654   1.053   8.095 -1.6324  0.3790 -0.7543
28426SOL     OW90088  12.250  11.362   8.633 -0.2267  0.0363  0.1393
28426SOL    HW190089  12.187  11.305   8.677  0.9073  0.2649  2.1601
28426SOL    HW290090  12.335  11.335   8.666  0.4989  1.7117 -0.2378
28427SOL     OW90091   4.805   3.694   8.387 -0.2348  0.5117 -0.2929
28427SOL    HW190092   4.845   3.607   8.393  1.7790  1.4058  0.1399
28427SOL    HW290093   4.772   3.711   8.476  1.1945  0.9627  0.1870
28428SOL     OW90094   0.491   1.438   9.692 -0.0052 -0.3731 -0.4093
28428SOL    HW190095   0.411   1.390   9.668 -0.4011  0.0062  0.1296
28428SOL    HW290096   0.562   1.385   9.656 -0.5241 -0.4552 -1.3262
28429SOL     OW90097   7.188  10.126   8.591  0.0362 -0.2347  0.2881
28429SOL    HW190098   7.233  10.195   8.541  1.0200 -0.7853  0.3946
28429SOL    HW290099   7.202  10.047   8.540 -0.6103 -0.4738  0.4635
28430SOL     OW90100   8.804   6.154  12.501  0.5678 -0.6328 -0.4366
28430SOL    HW190101   8.753   6.165  12.421 -1.1497 -1.2239  0.5116
28430SOL    HW290102   8.776   6.227  12.557  1.2353 -0.6055 -0.1273
28431SOL     OW90103   8.292   3.315   0.078  0.3450 -0.3366  0.0301
28431SOL    HW190104   8.312   3.223   0.090 -1.3729 -0.5306  1.8976
28431SOL    HW290105   8.307   3.355   0.164  1.2790  1.1870 -0.7953
28432SOL     OW90106   1.948   5.236   8.876  0.7946 -0.1627 -0.5360
28432SOL    HW190107   1.922   5.159   8.926  2.4147 -0.0902  0.4944
28432SOL    HW290108   2.010   5.203   8.810  0.0914  0.0080 -1.2961
28433SOL     OW90109   2.432   1.140  10.708  0.3134 -0.1280  0.7292
28433SOL    HW190110   2.418   1.048  10.731  0.8036 -0.0673  1.3034
28433SOL    HW290111   2.447   1.184  10.792 -3.3157  1.1600  0.8982
28434SOL     OW90112   6.596   8.946  10.701 -0.4813  0.3574  0.9097
28434SOL    HW190113   6.682   8.938  10.744 -1.0982 -1.2740  1.9459
28434SOL    HW290114   6.544   8.875  10.739 -1.7648  0.2341 -0.9678
28435SOL     OW90115   8.277  10.127   0.636  0.1500 -0.2788 -0.3106
28435SOL    HW190116   8.223  10.188   0.686  0.1072  0.4619 -1.2116
28435SOL    HW290117   8.284  10.049   0.691 -0.4291  0.2553  0.5428
28436SOL     OW90118   3.225   1.386   0.204 -0.1078  0.5530  0.2796
28436SOL    HW190119   3.207   1.395   0.298  0.8700  2.1708  0.3640
28436SOL    HW290120   3.203   1.472   0.167  1.5472  0.6614 -0.5686
28437SOL     OW90121   6.988   9.052   4.313 -0.0391  0.1895  0.2345
28437SOL    HW190122   7.001   8.967   4.355  0.6380  0.8528  1.4241
28437SOL    HW290123   7.062   9.105   4.343 -0.3798  1.1667 -0.5944
28438SOL     OW90124   8.826   2.283  10.533  0.9779 -0.5613 -0.3309
28438SOL    HW190125   8.842   2.254  10.623  3.3334  0.2235 -0.4301
28438SOL    HW290126   8.835   2.203  10.481  0.0626 -0.9318  0.0462
28439SOL     OW90127   8.096   8.588  10.387 -0.5359  0.7059 -0.7844
28439SOL    HW190128   8.001   8.590  10.383 -0.5697  0.5278 -0.1444
28439SOL    HW290129   8.118   8.500  10.415 -0.1677  0.6463 -1.2514
28440SOL     OW90130   4.318   7.651  10.802 -0.3846  0.4025 -0.4618
28440SOL    HW190131   4.397   7.657  10.748  0.0780  0.6215  0.2271
28440SOL    HW290132   4.319   7.731  10.854  0.1917 -0.6495  1.2243
28441SOL     OW90133   2.689  11.437   5.402  0.0128  0.2142 -0.0636
28441SOL    HW190134   2.661  11.527   5.383 -1.0801 -0.6814 -3.1865
28441SOL    HW290135   2.662  11.387   5.326  2.2804 -2.4700  0.7546
28442SOL     OW90136   5.390   2.733  12.539  0.2057 -0.0051 -0.1329
28442SOL    HW190137   5.397   2.829  12.534 -1.3509  0.1441 -0.0692
28442SOL    HW290138   5.478   2.701  12.520  1.2843  1.4992  1.9203
28443SOL     OW90139   9.739   4.245   2.388  0.0532 -0.2851  0.2587
28443SOL    HW190140   9.679   4.170   2.388  0.9423 -1.1149  3.1633
28443SOL    HW290141   9.681   4.322   2.388 -0.8812 -0.9086 -1.8066
28444SOL     OW90142   1.785  11.401   2.841  0.1320 -0.0482  0.4441
28444SOL    HW190143   1.734  11.480   2.824  1.0618  1.0217  2.3439
28444SOL    HW290144   1.762  11.376   2.930 -0.6307 -2.3642 -0.3202
28445SOL     OW90145   0.983  10.337   1.581  0.0826  0.0334 -0.2561
28445SOL    HW190146   0.918  10.404   1.561  0.7887  0.8591  0.1577
28445SOL    HW290147   0.931  10.261   1.608 -0.7285  0.3752 -0.8074
28446SOL     OW90148   3.806   2.514   8.726 -0.1379 -0.3299  0.4131
28446SOL    HW190149   3.786   2.421   8.737  0.8636 -0.8250 -1.5381
28446SOL    HW290150   3.737   2.546   8.667  0.3962 -0.2207 -0.1626
28447SOL     OW90151   8.074   7.136   3.244 -0.0139 -0.0732  0.0270
28447SOL    HW190152   8.048   7.117   3.334  1.3579 -1.4117  0.1903
28447SOL    HW290153   8.166   7.111   3.240 -0.1939 -0.5938 -1.8930
28448SOL     OW90154   6.844   5.278   9.910  0.1268  0.1797  0.3865
28448SOL    HW190155   6.784   5.259   9.839 -1.0234  1.4035  0.9860
28448SOL    HW290156   6.813   5.226   9.983 -1.4426  2.2035  1.2595
28449SOL     OW90157  11.966   2.012   9.931  0.3715  0.7164 -0.1337
28449SOL    HW190158  12.008   2.017  10.016  1.3154 -0.7743 -0.4767
28449SOL    HW290159  11.884   1.964   9.947  1.5600 -1.5050 -0.3625
28450SOL     OW90160  11.482   5.409   9.866  0.5525  0.3367 -0.1954
28450SOL    HW190161  11.507   5.490   9.820  0.2200  1.3152  1.2870
28450SOL    HW290162  11.408   5.434   9.920  0.7231 -0.8678  0.6298
28451SOL     OW90163   2.209   1.634   8.243 -0.1549 -0.0106 -0.0858
28451SOL    HW190164   2.140   1.605   8.183 -0.8463  1.4817 -0.0771
28451SOL    HW290165   2.180   1.603   8.329  1.9783 -4.1857 -0.6404
28452SOL     OW90166   9.275   5.677   8.644  0.3585  0.6531  0.2812
28452SOL    HW190167   9.244   5.611   8.583  1.5092  0.2909  0.0625
28452SOL    HW290168   9.248   5.645   8.730  0.4504  0.1523  0.1298
28453SOL     OW90169   7.224   4.184   6.742 -0.3546  0.2507  0.2762
28453SOL    HW190170   7.156   4.117   6.730 -1.8964  1.4062  2.0017
28453SOL    HW290171   7.255   4.202   6.653 -1.9287 -0.7079 -0.5254
28454SOL     OW90172   3.981  11.025  10.151  0.4813  0.0317 -0.4369
28454SOL    HW190173   3.903  10.974  10.130  1.1551 -1.1835 -0.0823
28454SOL    HW290174   3.962  11.112  10.116 -1.9527  0.4367  1.5528
28455SOL     OW90175   0.114   0.924   0.853 -0.0072  0.3588  0.0809
28455SOL    HW190176   0.208   0.939   0.862  0.2800 -0.6019 -1.0337
28455SOL    HW290177   0.099   0.840   0.896 -0.9185  1.8407  2.8749
28456SOL     OW90178   6.716   4.926   6.706  0.3093  0.6897  0.6098
28456SOL    HW190179   6.672   4.892   6.784 -0.5914  0.6771  0.0992
28456SOL    HW290180   6.685   4.871   6.634  0.2436  1.4276  0.0607
28457SOL     OW90181   7.159   7.764   7.863 -0.1720  0.2433 -0.4170
28457SOL    HW190182   7.146   7.670   7.849 -2.3903 -0.1117  2.8903
28457SOL    HW290183   7.075   7.795   7.897  1.3894  2.7451  1.5574
28458SOL     OW90184   6.231   1.924   2.485 -0.5984 -0.0602 -0.5149
28458SOL    HW190185   6.314   1.886   2.516 -0.8651  0.4597  0.8938
28458SOL    HW290186   6.233   2.014   2.516 -1.0784  0.3721 -1.6934
28459SOL     OW90187  10.503  12.176   0.437  0.4142 -0.2271 -0.7946
28459SOL    HW190188  10.549  12.241   0.383  0.3990 -0.3434 -0.9492
28459SOL    HW290189  10.460  12.118   0.373 -1.4184  0.9076 -0.6643
28460SOL     OW90190   6.353   9.865   9.591  0.4039 -0.3623  0.2590
28460SOL    HW190191   6.375   9.851   9.498 -0.1178 -0.1931  0.1081
28460SOL    HW290192   6.344   9.959   9.600 -0.6017 -0.4535  0.2384
28461SOL     OW90193   9.788   1.124  11.913 -0.2266  0.3200  0.2868
28461SOL    HW190194   9.876   1.121  11.951 -0.6193 -2.2197  1.1986
28461SOL    HW290195   9.733   1.163  11.981  0.1244  1.7841 -0.2328
28462SOL     OW90196   9.443   8.075   1.299  0.2888  0.1080 -0.1635
28462SOL    HW190197   9.454   8.170   1.305 -0.5961  0.1012  2.8947
28462SOL    HW290198   9.378   8.053   1.365  0.3990 -2.6603 -0.8223
28463SOL     OW90199   5.345   7.569   8.580 -0.1208  0.3698  0.0242
28463SOL    HW190200   5.268   7.532   8.623 -0.3001  0.6692 -0.0393
28463SOL    HW290201   5.378   7.498   8.525 -1.2116  0.6981 -1.0868
28464SOL     OW90202   9.146   9.763   1.717 -0.7126 -0.1949  0.4577
28464SOL    HW190203   9.231   9.732   1.750 -0.6127  1.8968  2.3852
28464SOL    HW290204   9.084   9.694   1.743 -0.0446 -0.3361  1.7714
28465SOL     OW90205   9.304  10.093   4.442 -0.1922 -0.0257 -0.6015
28465SOL    HW190206   9.309  10.044   4.524  0.1634 -0.2204 -0.7399
28465SOL    HW290207   9.211  10.093   4.420  0.0344 -2.7271 -1.8616
28466SOL     OW90208   2.644   0.068   1.573  0.2503 -0.3977  0.0809
28466SOL    HW190209   2.735   0.048   1.595  0.1705  0.0277  0.8249
28466SOL    HW290210   2.601  -0.017   1.567  0.6373 -0.5870 -0.0125
28467SOL     OW90211   7.501   2.589   6.162 -0.6688 -0.4031  0.2056
28467SOL    HW190212   7.534   2.625   6.079  1.5209 -1.4944  0.5477
28467SOL    HW290213   7.448   2.514   6.136 -2.4332  0.9703 -0.3212
28468SOL     OW90214   2.664  11.383   4.497 -0.1687 -0.3534  0.2127
28468SOL    HW190215   2.587  11.435   4.520 -0.9173 -0.2912 -2.1009
28468SOL    HW290216   2.641  11.294   4.523 -0.8369 -0.2570 -0.0121
28469SOL     OW90217  11.299   6.641   5.223  0.0871 -0.3936  0.5756
28469SOL    HW190218  11.360   6.669   5.155 -0.2867 -1.3805 -0.2079
28469SOL    HW290219  11.315   6.699   5.297  0.5189  0.6993 -0.3535
28470SOL     OW90220   5.619   2.691   0.900 -0.2315  0.1935 -0.2017
28470SOL    HW190221   5.545   2.728   0.853 -0.6076  3.2002  2.4575
28470SOL    HW290222   5.693   2.747   0.878  0.4419 -0.6015 -0.0357
28471SOL     OW90223   9.796  12.420  12.586  0.2494 -0.0402 -0.0688
28471SOL    HW190224   9.837  12.340  12.554 -0.8419 -1.9685  2.9070
28471SOL    HW290225   9.869  12.477  12.609  1.0488 -0.2779 -1.8186
28472SOL     OW90226  10.242   6.318  12.140 -0.1653  0.6126 -0.3141
28472SOL    HW190227  10.285   6.403  12.149  0.7264  0.2706 -1.1783
28472SOL    HW290228  10.301   6.267  12.085 -0.3695 -0.7951  0.7180
28473SOL     OW90229   1.132  11.407   6.156  0.6058  0.0009 -0.3773
28473SOL    HW190230   1.091  11.457   6.085  1.0196 -1.7280 -1.9043
28473SOL    HW290231   1.192  11.468   6.197 -0.7822  1.5050 -0.4746
28474SOL     OW90232  10.912   6.879   4.585  0.3870  0.0889  0.3479
28474SOL    HW190233  10.900   6.968   4.553 -1.3422  0.2607  1.3897
28474SOL    HW290234  11.007   6.867   4.586  0.7761 -0.2817 -5.5809
28475SOL     OW90235   1.804  11.838  10.331  0.0031  0.2992  0.1400
28475SOL    HW190236   1.783  11.831  10.237  1.2828  2.1493 -0.3220
28475SOL    HW290237   1.871  11.772  10.345 -1.1488 -0.9309  0.1011
28476SOL     OW90238   4.086   6.069   9.378 -0.1147  0.4833 -0.3286
28476SOL    HW190239   4.169   6.098   9.416  0.9049 -0.2722 -1.8958
28476SOL    HW290240   4.030   6.147   9.380 -0.1650  0.4619  2.7150
28477SOL     OW90241   0.939   6.224  11.674  0.1038 -0.4008  0.5588
28477SOL    HW190242   0.892   6.235  11.592  1.7548 -0.5660 -0.4630
28477SOL    HW290243   0.928   6.308  11.719 -0.9151 -0.3501  0.2403
28478SOL     OW90244   3.500  11.394  10.146  0.2167  0.1771  0.4239
28478SOL    HW190245   3.435  11.394  10.075  0.6271  1.0837  0.0299
28478SOL    HW290246   3.578  11.435  10.107  2.1121 -3.4416 -0.0621
28479SOL     OW90247  12.579   3.346   5.418  0.4713 -0.6867 -0.1650
28479SOL    HW190248  12.565   3.308   5.331  0.0853  0.6190 -0.7005
28479SOL    HW290249  12.559   3.439   5.407 -1.2512 -0.7473  1.6993
28480SOL     OW90250   8.162   8.749   4.642 -0.2313  0.1446  0.2119
28480SOL    HW190251   8.214   8.672   4.666  0.1272  0.3903  0.2350
28480SOL    HW290252   8.087   8.714   4.595  0.5739 -0.1482 -0.9060
28481SOL     OW90253  11.151   7.253   7.393  0.3819 -0.0284 -0.9144
28481SOL    HW190254  11.107   7.214   7.318 -1.6890  0.5309 -0.0773
28481SOL    HW290255  11.210   7.319   7.356 -2.1211  1.7130 -2.0559
28482SOL     OW90256   9.132  12.303   2.445 -0.4770 -0.4029  0.4720
28482SOL    HW190257   9.220  12.317   2.481 -1.0389 -1.0405  2.1854
28482SOL    HW290258   9.080  12.374   2.482 -0.6668  0.0673 -0.6682
28483SOL     OW90259  10.690   3.758  10.939  0.3927  0.1493 -0.2209
28483SOL    HW190260  10.620   3.804  10.892  1.7406  2.7841  0.1611
28483SOL    HW290261  10.644   3.694  10.994 -1.7340  1.7297 -0.0107
28484SOL     OW90262   2.767  10.962   9.914 -0.3609 -0.6991 -0.1530
28484SOL    HW190263   2.706  10.971   9.987  0.1428  0.1538  0.1840
28484SOL    HW290264   2.712  10.962   9.836 -0.7268  4.0945 -0.1891
28485SOL     OW90265   4.933   7.156   3.892 -0.2352 -0.0475  0.0668
28485SOL    HW190266   5.009   7.171   3.835 -0.0312 -1.4375 -0.0744
28485SOL    HW290267   4.859   7.146   3.832 -0.1683 -0.6759  0.0826
28486SOL     OW90268  11.377   8.033   2.884  0.2276  0.0918 -0.1613
28486SOL    HW190269  11.444   7.994   2.826  0.3315  0.3177 -0.1945
28486SOL    HW290270  11.379   8.126   2.862  0.4287  0.2142  0.3676
28487SOL     OW90271   7.998   9.506   4.881 -0.4296  0.3697  0.3456
28487SOL    HW190272   7.969   9.583   4.930  0.1032  0.6154  0.2795
28487SOL    HW290273   8.089   9.494   4.907 -0.5765 -0.3728  0.5233
28488SOL     OW90274   7.063   0.284   4.918 -0.3899 -0.7930  0.6394
28488SOL    HW190275   7.052   0.252   5.007 -1.1408  0.6717  1.1066
28488SOL    HW290276   6.975   0.312   4.892 -0.0869 -0.7444 -0.3756
28489SOL     OW90277   9.805   7.609   9.453 -0.2071  0.2285 -0.0611
28489SOL    HW190278   9.787   7.662   9.375 -1.7914 -0.4959 -0.2312
28489SOL    HW290279   9.767   7.524   9.432  0.0556 -0.2105  1.2050
28490SOL     OW90280   1.440   9.636   9.113 -0.2567  0.2511  0.1804
28490SOL    HW190281   1.446   9.648   9.208  0.6818  0.3674  0.1167
28490SOL    HW290282   1.513   9.686   9.077 -0.9422  0.6722 -0.6549
28491SOL     OW90283   9.987   1.950   5.335  0.0265 -0.1379 -0.3412
28491SOL    HW190284  10.075   1.940   5.369  0.1881 -1.1855 -1.0198
28491SOL    HW290285   9.931   1.900   5.395 -0.7039  3.2575  2.1369
28492SOL     OW90286   6.176   9.441  11.955  0.3264  0.0097  0.0718
28492SOL    HW190287   6.184   9.500  11.880  0.9941 -0.5076 -0.2770
28492SOL    HW290288   6.082   9.421  11.960  0.3991 -0.8290 -1.3364
28493SOL     OW90289  10.133  11.577   4.753  0.5151  0.0741  0.2423
28493SOL    HW190290  10.093  11.512   4.695  0.0586  0.6145 -0.0563
28493SOL    HW290291  10.143  11.531   4.837  1.2072 -0.7248 -0.2577
28494SOL     OW90292   6.748   8.539   8.951  0.1917 -1.2235  0.4915
28494SOL    HW190293   6.813   8.471   8.935  0.3744 -0.4755 -2.4231
28494SOL    HW290294   6.798   8.621   8.949 -0.7116 -0.6592 -1.4803
28495SOL     OW90295   6.965   3.808   4.216 -0.3220  0.3445 -0.0332
28495SOL    HW190296   6.951   3.862   4.138  0.8583  0.5371 -0.1291
28495SOL    HW290297   7.057   3.783   4.212  0.1365  1.4703  1.9825
28496SOL     OW90298   8.531  11.570  10.706  0.0949 -0.8637 -0.1684
28496SOL    HW190299   8.508  11.660  10.685  1.8671 -0.3250  0.0296
28496SOL    HW290300   8.465  11.517  10.661 -1.5745  0.5331  0.5395
28497SOL     OW90301   2.061   7.711   1.773 -0.1197 -0.3684  0.5103
28497SOL    HW190302   2.016   7.666   1.702 -0.3841  1.4641 -0.5446
28497SOL    HW290303   2.148   7.672   1.775 -0.4144 -1.0832 -0.1923
28498SOL     OW90304   3.541   7.404   0.236  0.0957  0.0278  0.2343
28498SOL    HW190305   3.445   7.402   0.234  0.0613  1.2872 -0.4580
28498SOL    HW290306   3.564   7.364   0.320 -1.1921  3.0181  2.1738
28499SOL     OW90307   2.573   4.282  11.825 -0.0006  0.3923 -0.0296
28499SOL    HW190308   2.628   4.346  11.871  0.7174 -1.5376  1.9639
28499SOL    HW290309   2.500   4.334  11.791  1.7114  2.6269 -0.5518
28500SOL     OW90310  10.086   9.215  12.142  0.1765 -0.2515  0.5234
28500SOL    HW190311  10.136   9.192  12.064  0.9700 -0.3869  1.0617
28500SOL    HW290312  10.126   9.296  12.174 -0.4853  0.0924  0.4954
28501SOL     OW90313   8.173   0.677   9.037  0.0189 -0.4817  0.5093
28501SOL    HW190314   8.173   0.655   9.130  1.6109 -0.9973  0.4257
28501SOL    HW290315   8.258   0.647   9.006  0.1414  1.0869 -0.7854
28502SOL     OW90316   9.180   2.119   0.239 -0.0568 -0.1145  0.3234
28502SOL    HW190317   9.127   2.122   0.319 -1.5473  1.1409 -0.6337
28502SOL    HW290318   9.180   2.027   0.214 -0.4892 -0.3627  1.1917
28503SOL     OW90319   0.060  11.593  11.490 -0.4710 -0.2156  0.8291
28503SOL    HW190320   0.127  11.528  11.467 -0.7577 -0.4216  0.5653
28503SOL    HW290321   0.020  11.559  11.570 -1.3560 -0.9413  0.1101
28504SOL     OW90322   7.576   2.678   5.631  0.4261  0.4247 -0.4768
28504SOL    HW190323   7.492   2.684   5.678  0.7029  0.1594  0.0632
28504SOL    HW290324   7.552   2.677   5.539 -0.3281 -1.8427 -0.3159
28505SOL     OW90325  11.554   4.172   9.268 -0.1153  0.4248  0.4578
28505SOL    HW190326  11.573   4.263   9.293 -0.0204 -0.0195  2.0716
28505SOL    HW290327  11.460   4.171   9.250 -0.4762  0.4637  2.2271
28506SOL     OW90328   6.401   3.224  12.076 -0.3752 -0.0342  0.2987
28506SOL    HW190329   6.310   3.243  12.096 -0.3966  1.1629 -0.7648
28506SOL    HW290330   6.397   3.171  11.996 -0.1260  0.6806 -0.1948
28507SOL     OW90331  11.760   3.262   5.842  0.6306 -0.1702 -0.1739
28507SOL    HW190332  11.747   3.353   5.870  0.7451 -0.0118 -0.6346
28507SOL    HW290333  11.778   3.215   5.923  0.9382  0.2855  0.0268
28508SOL     OW90334   1.312  12.026   7.199  0.0773  0.1518 -0.3921
28508SOL    HW190335   1.280  11.989   7.117 -0.5270  0.9072 -0.4995
28508SOL    HW290336   1.403  12.050   7.181 -0.1091  0.4899 -0.8971
28509SOL     OW90337   2.668   2.808   7.176 -0.3480 -0.1216  0.1100
28509SOL    HW190338   2.591   2.860   7.203 -0.4917 -0.2296 -0.0930
28509SOL    HW290339   2.691   2.842   7.090  0.2971  0.4273  0.4944
28510SOL     OW90340   6.694   6.070  11.878  0.1885 -0.1928  0.0237
28510SOL    HW190341   6.647   6.017  11.813  0.9340  0.9438 -1.4760
28510SOL    HW290342   6.677   6.160  11.853  2.8381  0.2625 -0.3344
28511SOL     OW90343  12.148  11.718   6.499 -0.3552 -0.4632 -0.4299
28511SOL    HW190344  12.134  11.774   6.423 -0.0945 -1.5898 -1.3396
28511SOL    HW290345  12.203  11.646   6.467 -1.3084 -1.6601  0.4964
28512SOL     OW90346   3.810   7.493  11.827 -0.3851  0.2033  0.5639
28512SOL    HW190347   3.820   7.588  11.824 -1.2773  0.3010  0.2377
28512SOL    HW290348   3.814   7.471  11.920 -0.3489  0.5780  0.6541
28513SOL     OW90349   8.846   4.978  10.021  0.2850 -0.3448 -0.1630
28513SOL    HW190350   8.905   4.913  10.059 -0.4620 -0.6596  0.5100
28513SOL    HW290351   8.821   5.033  10.095  0.1270  0.0816 -0.5328
28514SOL     OW90352   1.276   1.806   9.410 -0.5999  0.3155  0.3304
28514SOL    HW190353   1.200   1.863   9.416  0.3689  2.0077 -1.9339
28514SOL    HW290354   1.348   1.858   9.446 -0.0660 -0.2962  0.1630
28515SOL     OW90355   6.211   1.711   8.938  0.2906  0.2308  0.3170
28515SOL    HW190356   6.195   1.796   8.896 -0.8992 -0.0948  0.0822
28515SOL    HW290357   6.306   1.710   8.955  0.5310  1.0555 -0.8719
28516SOL     OW90358   1.715   4.138  12.044 -0.1172  0.4976  0.4433
28516SOL    HW190359   1.669   4.222  12.034  0.0998  0.6211  0.4868
28516SOL    HW290360   1.702   4.094  11.960 -0.4456  0.4670  0.5079
28517SOL     OW90361   5.130   3.336   1.478 -0.0065  0.2021 -0.1599
28517SOL    HW190362   5.207   3.325   1.533 -0.2481 -0.2036  0.1044
28517SOL    HW290363   5.056   3.317   1.536 -0.4287  2.3893  0.1062
28518SOL     OW90364   5.620   2.318  10.043  0.4956  0.6591 -0.6466
28518SOL    HW190365   5.642   2.411  10.045  0.2498  0.7094  0.4177
28518SOL    HW290366   5.562   2.306  10.119 -0.4389 -0.1214 -1.4605
28519SOL     OW90367   7.848   5.344  11.998 -0.7091 -0.3002  0.7965
28519SOL    HW190368   7.845   5.369  11.906 -2.4403 -1.1163  0.5889
28519SOL    HW290369   7.919   5.397  12.035 -0.8216  0.9810 -0.7095
28520SOL     OW90370   0.316   9.327   7.908 -0.3864 -0.6645  0.4761
28520SOL    HW190371   0.408   9.325   7.879 -0.8537  0.3811 -1.2029
28520SOL    HW290372   0.279   9.404   7.866 -2.4401 -1.9076 -0.1208
28521SOL     OW90373   4.117   0.890   7.251  0.5547  0.1782 -0.2567
28521SOL    HW190374   4.090   0.819   7.309  2.8130 -0.4982  0.0864
28521SOL    HW290375   4.081   0.969   7.291 -0.1246 -0.5482  0.6065
28522SOL     OW90376   4.871   5.979   8.498  0.0361  0.1737  0.0514
28522SOL    HW190377   4.927   5.947   8.427 -0.8596  2.0214 -1.5761
28522SOL    HW290378   4.783   5.950   8.473 -0.2398  0.5056  0.6266
28523SOL     OW90379   1.741   5.239   8.372  0.1448  0.3646  0.1031
28523SOL    HW190380   1.710   5.270   8.457  0.1259 -0.1367  0.2854
28523SOL    HW290381   1.666   5.190   8.337  1.1761 -2.2036  1.2236
28524SOL     OW90382   5.483   4.287  11.640 -0.7152 -0.0266 -0.0824
28524SOL    HW190383   5.523   4.371  11.663 -1.2056  0.5783 -1.3132
28524SOL    HW290384   5.445   4.255  11.721  0.1317  0.5730  0.5662
28525SOL     OW90385   1.739   8.942   7.751 -0.2479  0.0852  0.1988
28525SOL    HW190386   1.780   9.027   7.766 -0.9166  0.0976  2.2369
28525SOL    HW290387   1.736   8.901   7.837  1.5214 -2.7473 -0.9576
28526SOL     OW90388   7.314   0.314   6.104 -0.0623 -0.0849  0.1886
28526SOL    HW190389   7.303   0.409   6.094 -2.8685 -0.2855  0.4386
28526SOL    HW290390   7.356   0.286   6.023 -1.2374  1.1358 -0.8984
28527SOL     OW90391  10.723   9.281   7.976  0.7486  0.4739 -0.6346
28527SOL    HW190392  10.794   9.222   7.948  1.1018 -0.2917  1.6543
28527SOL    HW290393  10.651   9.223   7.999  0.8261  0.9420  0.9080
28528SOL     OW90394  11.141  11.176   2.951  0.0742  0.0359 -0.2642
28528SOL    HW190395  11.133  11.081   2.940  1.0592 -0.1767  0.7189
28528SOL    HW290396  11.119  11.212   2.865  2.4889 -1.2579 -1.5287
28529SOL     OW90397   1.582  11.873  11.884  0.2425 -0.0030 -0.4492
28529SOL    HW190398   1.621  11.955  11.913 -0.1174  0.9459 -2.4248
28529SOL    HW290399   1.489  11.894  11.871  0.2538 -0.5176 -1.5410
28530SOL     OW90400  12.379   4.579  10.904 -0.5795 -0.1512 -0.1948
28530SOL    HW190401  12.316   4.620  10.845  0.2474  1.4327 -0.0146
28530SOL    HW290402  12.325   4.542  10.974 -1.3357  0.8815 -0.2079
28531SOL     OW90403   3.464   1.681   3.171  0.3422 -0.0543 -0.7369
28531SOL    HW190404   3.465   1.589   3.145 -1.3254 -0.5920  0.8601
28531SOL    HW290405   3.404   1.684   3.246  1.4173  2.1077  0.1318
28532SOL     OW90406   0.654   1.081  10.733  0.3454  0.7098  0.1229
28532SOL    HW190407   0.559   1.081  10.745  0.1970 -0.4506 -0.9082
28532SOL    HW290408   0.681   1.171  10.752 -0.9395  1.0240  0.5182
28533SOL     OW90409   6.597   2.622   5.772  0.2364 -0.1839  0.4288
28533SOL    HW190410   6.537   2.683   5.815 -0.5037 -0.3734 -0.2931
28533SOL    HW290411   6.638   2.675   5.703 -2.2402 -0.9896 -1.8675
28534SOL     OW90412   4.921  12.087  11.043  0.3729 -0.0854  0.1732
28534SOL    HW190413   4.831  12.072  11.012  0.8152 -0.4140 -1.0152
28534SOL    HW290414   4.913  12.159  11.105 -0.3926  1.8085 -1.9627
28535SOL     OW90415   2.019   0.725  10.629  0.0714  0.3083 -0.1601
28535SOL    HW190416   1.960   0.667  10.581  0.1547  1.2760 -1.5006
28535SOL    HW290417   1.985   0.813  10.613  2.2323  0.9881 -1.6468
28536SOL     OW90418   6.878   0.319   2.254  0.1725 -0.2065 -0.0591
28536SOL    HW190419   6.807   0.325   2.318  1.2273  1.4701  1.0381
28536SOL    HW290420   6.916   0.232   2.269  0.3640  0.1231  1.6042
28537SOL     OW90421   4.421   3.643   1.983 -0.3734 -0.4800 -0.1529
28537SOL    HW190422   4.363   3.646   1.907 -2.2403  3.3650  1.1600
28537SOL    HW290423   4.365   3.612   2.055 -0.2173  1.1120  0.6829
28538SOL     OW90424   5.202   8.486   4.095 -0.0486  0.7695  0.0771
28538SOL    HW190425   5.228   8.398   4.122 -0.1524  0.1866 -1.5750
28538SOL    HW290426   5.284   8.526   4.067  0.0578  1.3589  1.1858
28539SOL     OW90427   6.836   0.747   2.005 -0.5703  0.0276  0.1905
28539SOL    HW190428   6.827   0.687   1.931 -2.1397  0.2976  0.1447
28539SOL    HW290429   6.811   0.695   2.081  0.2554 -0.0107  0.4468
28540SOL     OW90430   4.059   8.359   0.491 -0.3622 -0.3155  0.0894
28540SOL    HW190431   4.122   8.427   0.518  1.3626 -2.0613  0.7412
28540SOL    HW290432   4.007   8.342   0.569 -0.0392 -0.5075  0.2664
28541SOL     OW90433   5.017  11.994   4.594 -0.3397 -1.3693  0.5216
28541SOL    HW190434   5.036  12.024   4.683 -0.6802  1.6416 -0.3026
28541SOL    HW290435   4.921  11.990   4.590 -0.3394 -1.0346  0.1520
28542SOL     OW90436   5.875   3.652  10.833  0.0654  0.1849 -0.1178
28542SOL    HW190437   5.795   3.605  10.852  0.1133 -0.8850 -2.2594
28542SOL    HW290438   5.851   3.744  10.838 -1.3723 -0.1183 -0.9203
28543SOL     OW90439   7.206   7.598  11.611 -0.0097 -0.3630 -0.3341
28543SOL    HW190440   7.291   7.609  11.654  0.4881 -0.8899 -1.1563
28543SOL    HW290441   7.143   7.590  11.683  0.9544 -2.4982  0.3451
28544SOL     OW90442   0.265   5.579   6.087  0.2756 -0.5818  0.4141
28544SOL    HW190443   0.301   5.663   6.059  1.2482 -1.5146 -1.3014
28544SOL    HW290444   0.313   5.557   6.167 -0.1452  0.5501  1.0093
28545SOL     OW90445   7.869   4.352   1.617  0.0348 -0.4330 -0.0121
28545SOL    HW190446   7.865   4.336   1.523  0.5005  0.6504 -0.2360
28545SOL    HW290447   7.863   4.265   1.657 -2.9187 -0.7312 -0.9167
28546SOL     OW90448   2.114   1.830   1.565  0.0429 -0.7855 -0.5251
28546SOL    HW190449   2.027   1.870   1.563  0.8391  1.7055  3.3414
28546SOL    HW290450   2.162   1.874   1.495 -1.1855 -0.5547 -1.2594
28547SOL     OW90451  10.495   7.608   2.665 -0.2615  0.0301  0.1638
28547SOL    HW190452  10.422   7.549   2.686 -0.1507 -0.6664 -1.2989
28547SOL    HW290453  10.494   7.673   2.736 -0.5663 -1.5403  1.6723
28548SOL     OW90454  12.017   9.794   6.061 -0.1899 -0.1632 -0.2393
28548SOL    HW190455  11.940   9.838   6.098  0.3449  0.8487 -0.2914
28548SOL    HW290456  12.052   9.856   5.997  0.7218 -0.5611 -0.1452
28549SOL     OW90457   6.296  10.777   2.366  0.2204  0.1560  0.1533
28549SOL    HW190458   6.361  10.707   2.374  0.7372  0.2244 -2.5075
28549SOL    HW290459   6.212  10.732   2.367  0.5316 -0.5025 -1.1290
28550SOL     OW90460   8.981   4.383   5.457 -0.3046 -0.1292  0.3746
28550SOL    HW190461   8.952   4.293   5.449 -1.8423  0.2854  0.9742
28550SOL    HW290462   9.007   4.392   5.549 -0.3351  0.0841  0.3641
28551SOL     OW90463  12.199   1.948   7.242  0.1398 -0.2300 -0.0509
28551SOL    HW190464  12.207   1.914   7.153  0.1008 -0.7962  0.1560
28551SOL    HW290465  12.252   1.889   7.295  2.3760  1.6188 -0.0525
28552SOL     OW90466   2.578   6.699   4.947 -0.3653  0.0545  0.0663
28552SOL    HW190467   2.563   6.621   4.894 -1.2864 -1.1522  1.9607
28552SOL    HW290468   2.673   6.703   4.959 -0.2680 -0.4195 -0.5467
28553SOL     OW90469   4.541  12.207   8.853 -0.1438  0.1904  0.2819
28553SOL    HW190470   4.587  12.281   8.893  0.7086  0.5906 -1.3264
28553SOL    HW290471   4.465  12.192   8.909 -1.0041  3.0591  0.0413
28554SOL     OW90472  10.877   1.002   7.585 -0.1483  0.3035 -0.3527
28554SOL    HW190473  10.933   0.938   7.630 -0.1912 -0.4461 -1.3453
28554SOL    HW290474  10.855   1.066   7.653  3.0721  1.4569 -0.2117
28555SOL     OW90475   6.633   2.090   0.984  0.2597  0.5333 -0.1216
28555SOL    HW190476   6.681   2.115   1.062 -0.0254  1.1946 -0.1512
28555SOL    HW290477   6.551   2.052   1.018  0.6212 -0.2315 -0.0809
28556SOL     OW90478   5.728   5.340  11.032  0.2192 -0.3923 -0.5296
28556SOL    HW190479   5.696   5.271  10.974  0.7588  0.0739 -1.4013
28556SOL    HW290480   5.677   5.329  11.113 -2.7970  0.8777 -2.1214
28557SOL     OW90481  10.165   6.373   3.330 -0.5505 -0.3279 -0.3577
28557SOL    HW190482  10.157   6.284   3.365 -2.8334  0.0567  0.2557
28557SOL    HW290483  10.243   6.370   3.275 -0.1077 -2.4854  0.2955
28558SOL     OW90484   3.616  12.208   0.867  0.2948  0.3061 -0.0228
28558SOL    HW190485   3.568  12.181   0.789 -0.3376  0.8975  0.1527
28558SOL    HW290486   3.553  12.259   0.918  0.6403 -0.1979  0.9556
28559SOL     OW90487   2.741   0.242  12.464 -0.5922  0.2334 -0.1883
28559SOL    HW190488   2.802   0.282  12.403 -1.4152  0.3698 -0.9371
28559SOL    HW290489   2.679   0.194  12.409 -1.1878  0.1342  0.5505
28560SOL     OW90490  11.821   7.245   7.523 -0.4288  0.6104 -0.1659
28560SOL    HW190491  11.801   7.289   7.606  0.9311  1.2789 -0.1707
28560SOL    HW290492  11.735   7.226   7.485 -1.1101 -0.2735  1.6738
28561SOL     OW90493   9.971   8.446   4.702 -0.1480  0.0959 -0.4392
28561SOL    HW190494   9.924   8.395   4.636 -1.2219  1.8261 -1.0765
28561SOL    HW290495   9.974   8.535   4.667  0.8326  0.7016  1.0520
28562SOL     OW90496   8.607   5.670   4.489  0.2265  0.6854  0.4245
28562SOL    HW190497   8.626   5.723   4.565  1.1831  0.1178  0.6049
28562SOL    HW290498   8.568   5.590   4.524  2.6993 -0.5566  0.5889
28563SOL     OW90499   4.546   9.761   7.707  0.2736 -0.0659 -0.0311
28563SOL    HW190500   4.607   9.693   7.733  0.7557  0.1258 -0.6460
28563SOL    HW290501   4.512   9.796   7.789  2.0651  0.8028  0.3782
28564SOL     OW90502   5.461   0.091   9.292  0.0603  0.8123  0.3638
28564SOL    HW190503   5.486   0.146   9.366 -0.1174 -1.7117  2.4256
28564SOL    HW290504   5.366   0.082   9.300  0.1519 -0.2166  0.3893
28565SOL     OW90505   1.503   7.114   6.011  0.5731  0.2965  0.4128
28565SOL    HW190506   1.529   7.198   6.048  2.4256 -0.6721  1.4198
28565SOL    HW290507   1.581   7.058   6.019 -0.8503 -1.7891  0.5630
28566SOL     OW90508  12.148   0.043  11.254  0.5732  0.0833  0.1998
28566SOL    HW190509  12.229   0.087  11.277 -0.1802  0.8559  1.5039
28566SOL    HW290510  12.100   0.105  11.200  0.2384  0.2137  0.6366
28567SOL     OW90511  10.135   4.991  10.410 -0.5454 -0.0639 -0.0456
28567SOL    HW190512  10.187   4.970  10.488 -0.8066  0.1669  0.1977
28567SOL    HW290513  10.198   4.990  10.338  0.0919  1.5751  0.4353
28568SOL     OW90514   4.981   1.126   8.714  0.2209  0.4099 -0.5283
28568SOL    HW190515   5.069   1.125   8.750  0.4037  0.7990 -0.9450
28568SOL    HW290516   4.977   1.207   8.663 -0.5020  0.5848 -0.2070
28569SOL     OW90517   9.659   5.006  10.622  0.0696  0.2383 -0.7397
28569SOL    HW190518   9.740   4.955  10.618  0.7617  1.1241  0.7552
28569SOL    HW290519   9.685   5.095  10.596 -0.4587  0.4820 -0.4586
28570SOL     OW90520   2.381   8.573   2.199 -0.6973 -0.0670  0.5292
28570SOL    HW190521   2.327   8.498   2.174 -0.7351  0.4067 -0.9070
28570SOL    HW290522   2.399   8.618   2.116  1.0026  0.3972  1.1155
28571SOL     OW90523   8.787   4.103   2.431  0.9768 -0.1674 -0.2922
28571SOL    HW190524   8.795   4.186   2.479  2.9962 -1.0995  1.1107
28571SOL    HW290525   8.702   4.068   2.458  0.8497  0.6469  0.4304
28572SOL     OW90526   6.503   6.619  11.684 -0.6745  0.0509 -0.3126
28572SOL    HW190527   6.555   6.578  11.615  0.0357  1.0012 -0.3718
28572SOL    HW290528   6.418   6.577  11.679 -0.6828  0.2021 -1.8643
28573SOL     OW90529  12.443   3.880   9.540 -0.2656 -0.0941  0.3177
28573SOL    HW190530  12.482   3.794   9.519 -0.9706 -0.3477  0.0177
28573SOL    HW290531  12.518   3.940   9.540  0.1548 -0.5983 -0.1028
28574SOL     OW90532  11.091   3.600   2.286 -0.2599  0.3659 -0.2125
28574SOL    HW190533  11.113   3.543   2.213 -0.7008  0.7873 -0.6830
28574SOL    HW290534  11.003   3.633   2.266 -0.3625  0.5391  0.4735
28575SOL     OW90535   1.987   7.604   1.497 -0.3850  0.3877 -0.4448
28575SOL    HW190536   2.001   7.509   1.501  0.2257  0.4545 -0.9720
28575SOL    HW290537   1.945   7.618   1.412 -2.0517  0.4029  0.3406
28576SOL     OW90538   1.288   7.426   5.799  0.0868 -0.6309  0.3753
28576SOL    HW190539   1.361   7.475   5.836  0.7828 -0.6061 -0.9634
28576SOL    HW290540   1.315   7.408   5.709 -1.9063  0.0889 -0.4173
28577SOL     OW90541   8.558  11.215   5.275 -0.4804  0.0249 -0.2283
28577SOL    HW190542   8.632  11.176   5.322 -1.4434 -0.8813  0.5701
28577SOL    HW290543   8.515  11.141   5.232 -1.5485  0.3799  0.2007
28578SOL     OW90544  12.267   4.427   3.202  0.0680 -0.3309  0.5342
28578SOL    HW190545  12.310   4.512   3.193  0.3068 -0.5041 -0.0438
28578SOL    HW290546  12.237   4.424   3.293  0.5840  0.1189  0.7223
28579SOL     OW90547   1.539   1.048   7.593  0.1664  0.5334  0.3711
28579SOL    HW190548   1.566   0.985   7.660  2.2802  0.6245 -0.3318
28579SOL    HW290549   1.463   1.092   7.631 -1.7528 -2.7051  0.7130
28580SOL     OW90550   5.693   5.258   9.132 -0.3716  0.1259 -0.4228
28580SOL    HW190551   5.654   5.343   9.151  0.0741  0.3466 -0.4737
28580SOL    HW290552   5.766   5.278   9.072  1.3560  0.0176  1.5374
28581SOL     OW90553   2.387   9.868   5.224 -0.2418 -0.6028  0.0174
28581SOL    HW190554   2.306   9.905   5.260  0.3078  1.2309 -0.5087
28581SOL    HW290555   2.358   9.802   5.161 -1.3863  0.5259 -0.6932
28582SOL     OW90556   3.194   7.894   6.282 -0.0673  0.1271 -0.2557
28582SOL    HW190557   3.101   7.873   6.293 -0.1289  0.4162 -0.2106
28582SOL    HW290558   3.218   7.852   6.199 -0.1834 -0.1273 -0.1622
28583SOL     OW90559  11.742  11.572   8.469  0.6533  0.3182  0.5351
28583SOL    HW190560  11.764  11.629   8.395 -0.3391  1.1202  0.8321
28583SOL    HW290561  11.791  11.608   8.543  0.9104  0.0846  0.4832
28584SOL     OW90562   0.398   1.738  12.445  0.1691 -0.2633 -0.1238
28584SOL    HW190563   0.483   1.775  12.468  0.4149 -0.3648 -0.8648
28584SOL    HW290564   0.362   1.707  12.529 -0.0819  1.6852  0.5374
28585SOL     OW90565   5.665   1.827   5.335  0.3005  0.0906 -0.3001
28585SOL    HW190566   5.740   1.865   5.288  1.1777  1.2148  1.8550
28585SOL    HW290567   5.644   1.893   5.401  0.0264 -1.9712  1.7721
28586SOL     OW90568  10.486   8.984   6.079 -0.2422 -0.0620  0.6553
28586SOL    HW190569  10.393   8.991   6.099 -0.8557 -0.2782 -1.7759
28586SOL    HW290570  10.506   8.890   6.089 -0.4751 -0.1303  0.4899
28587SOL     OW90571   1.098   8.108   5.083 -0.6448  0.2116 -0.1682
28587SOL    HW190572   1.183   8.148   5.065 -0.7370  0.2281 -0.5758
28587SOL    HW290573   1.072   8.144   5.168 -0.3703  0.4118 -0.1676
28588SOL     OW90574  12.302  10.831   6.898 -0.1816  0.1833  0.7878
28588SOL    HW190575  12.241  10.904   6.901  1.5438  1.7142  0.0863
28588SOL    HW290576  12.252  10.757   6.933 -2.8196  1.0465 -0.8834
28589SOL     OW90577   1.618   8.263   5.454  0.3272 -0.0470 -0.1232
28589SOL    HW190578   1.709   8.278   5.480  0.4902 -1.0063 -0.1182
28589SOL    HW290579   1.602   8.171   5.473 -1.3916  0.6229  2.1295
28590SOL     OW90580   7.363  12.599   8.035  0.2650  0.0071 -0.2419
28590SOL    HW190581   7.412  12.586   8.117  0.1164  2.0507  0.2062
28590SOL    HW290582   7.412  12.664   7.987  0.8807 -1.8614 -2.3063
28591SOL     OW90583   7.443   7.253   1.030  0.2421  0.6349  0.1233
28591SOL    HW190584   7.427   7.162   1.057 -0.4530  0.1348 -1.7580
28591SOL    HW290585   7.517   7.281   1.083  1.2259 -1.4342 -0.0258
28592SOL     OW90586   1.569   7.920   1.980  0.0786  0.7441  0.8113
28592SOL    HW190587   1.616   7.913   1.896 -0.9484 -1.7154  0.3351
28592SOL    HW290588   1.605   7.998   2.021  2.1770  0.8298 -0.9727
28593SOL     OW90589   9.277   0.949   5.798  0.5062  0.1442 -0.2207
28593SOL    HW190590   9.300   1.041   5.784 -0.0580  0.4595  0.8466
28593SOL    HW290591   9.356   0.909   5.834  0.2804  0.5932  0.8165
28594SOL     OW90592   7.164  12.283   4.488 -0.3628 -0.9985 -1.0351
28594SOL    HW190593   7.224  12.265   4.560  0.0584  0.7599 -0.8972
28594SOL    HW290594   7.134  12.372   4.503 -2.5949 -1.6231 -1.4268
28595SOL     OW90595  12.211  10.966   6.474  0.0127  0.1497  0.3848
28595SOL    HW190596  12.269  10.891   6.490  1.0886  0.9222  0.2389
28595SOL    HW290597  12.243  11.004   6.392 -2.1199 -0.6790 -0.9210
28596SOL     OW90598  12.405   6.907   4.005 -0.0706 -0.3818  0.2303
28596SOL    HW190599  12.485   6.872   4.045 -0.1426  0.0047  0.7262
28596SOL    HW290600  12.374   6.836   3.949  0.2952 -0.7601  0.4939
28597SOL     OW90601   9.762   3.255   7.999  1.1003  0.0241  0.2957
28597SOL    HW190602   9.727   3.220   8.081 -1.9008  0.6014 -0.5992
28597SOL    HW290603   9.771   3.349   8.015 -3.2916  0.9087 -0.9585
28598SOL     OW90604  12.281  10.054   4.992 -0.3625 -0.5767 -0.0854
28598SOL    HW190605  12.195  10.087   5.017 -0.3321  0.5646 -1.3511
28598SOL    HW290606  12.303  10.102   4.912  1.3086 -1.0880  0.0223
28599SOL     OW90607   4.339  11.164  10.625  0.1529 -0.0847  0.0738
28599SOL    HW190608   4.403  11.155  10.555 -1.3942 -0.0308 -1.4092
28599SOL    HW290609   4.349  11.085  10.678  0.8887 -0.4484 -0.5902
28600SOL     OW90610   8.685   9.658   3.873  0.1971  0.3809 -0.6362
28600SOL    HW190611   8.620   9.604   3.918 -0.2817  0.8534 -0.7452
28600SOL    HW290612   8.757   9.598   3.853  0.5245  0.2064  0.9439
28601SOL     OW90613   4.557   7.347   7.548 -0.0588  0.0349  0.0877
28601SOL    HW190614   4.559   7.390   7.462  0.0232  0.4399  0.2851
28601SOL    HW290615   4.465   7.325   7.562 -0.3654  1.5080  0.6278
28602SOL     OW90616   5.410  11.398   9.759 -0.3170 -0.1406  0.2506
28602SOL    HW190617   5.504  11.383   9.744 -0.0769 -0.5001  1.9425
28602SOL    HW290618   5.368  11.370   9.678  1.0484  0.2563 -0.6369
28603SOL     OW90619   8.180   8.047  12.321  0.1253 -0.5978  0.0169
28603SOL    HW190620   8.121   8.106  12.368  1.2511  1.3963 -0.9700
28603SOL    HW290621   8.167   8.068  12.229  0.2976 -2.1940 -0.4082
28604SOL     OW90622   8.652   4.104  10.183 -0.4203  0.4557 -0.2881
28604SOL    HW190623   8.727   4.161  10.195 -0.9539  0.7834  1.8547
28604SOL    HW290624   8.648   4.051  10.262 -0.7421 -1.6387 -1.6378
28605SOL     OW90625   3.564  11.447   6.334 -0.0698  0.2816  0.2132
28605SOL    HW190626   3.638  11.418   6.388  0.6363  2.6556  0.6789
28605SOL    HW290627   3.497  11.474   6.397 -1.2238 -1.4696 -0.2064
28606SOL     OW90628   6.439   7.438  10.083 -0.0795  0.1757  0.1702
28606SOL    HW190629   6.470   7.512  10.135  2.2798 -0.6457  0.0500
28606SOL    HW290630   6.405   7.376  10.147 -0.2376  0.5316  0.4338
28607SOL     OW90631   1.610  11.568   0.536  0.1083 -0.0286  0.0420
28607SOL    HW190632   1.650  11.525   0.611 -1.4218  0.9167  1.4513
28607SOL    HW290633   1.516  11.553   0.546 -0.2101  1.0303 -1.0965
28608SOL     OW90634   3.356   2.683   6.056  0.0623 -0.1728 -0.0500
28608SOL    HW190635   3.384   2.655   6.143 -0.2735 -1.9657 -0.4793
28608SOL    HW290636   3.261   2.674   6.057  0.0669 -0.3466 -0.6521
28609SOL     OW90637  10.119   1.392  11.495 -0.6403  0.7173  0.0230
28609SOL    HW190638  10.202   1.385  11.448 -0.5074  0.9781  0.2183
28609SOL    HW290639  10.139   1.445  11.573 -0.8627  0.3176  0.3581
28610SOL     OW90640   6.569   9.458   8.582  0.6012 -0.5341 -0.5832
28610SOL    HW190641   6.602   9.447   8.671  1.2507 -0.7839 -0.8441
28610SOL    HW290642   6.474   9.444   8.589  0.7059 -0.9830 -0.0038
28611SOL     OW90643   7.173   4.748  12.347  0.6314 -0.1320  0.4640
28611SOL    HW190644   7.156   4.792  12.264  1.4996 -1.1888 -0.3083
28611SOL    HW290645   7.245   4.796  12.387  0.0587  0.5194  0.7351
28612SOL     OW90646   7.085  11.268   8.006 -0.4830 -0.5722  0.7685
28612SOL    HW190647   7.103  11.199   7.942 -2.1316 -0.7610  0.4437
28612SOL    HW290648   6.994  11.294   7.987 -0.4800  0.4485  2.0353
28613SOL     OW90649   3.694   4.166   0.603 -0.1168 -0.4627  0.3223
28613SOL    HW190650   3.761   4.116   0.556 -0.3497  1.0698 -1.8029
28613SOL    HW290651   3.611   4.134   0.567 -0.3577 -0.0458  0.5019
28614SOL     OW90652   1.419   5.811   9.409 -0.4563  0.2982  0.4276
28614SOL    HW190653   1.452   5.901   9.409  1.6299 -0.3242  2.9511
28614SOL    HW290654   1.384   5.799   9.497 -1.6777 -1.0753 -0.2147
28615SOL     OW90655  10.827   8.016   3.710 -0.4567 -0.1335  0.1958
28615SOL    HW190656  10.829   8.100   3.664 -0.5919  0.0682  0.5612
28615SOL    HW290657  10.763   7.964   3.662  1.5832 -1.0061 -1.7411
28616SOL     OW90658  12.367   4.952   5.742  0.3015  0.3182  0.2144
28616SOL    HW190659  12.342   4.862   5.721 -1.3999  1.0723 -1.2652
28616SOL    HW290660  12.437   4.973   5.681 -1.4099  0.9491 -1.6325
28617SOL     OW90661   6.790   7.979   3.767 -0.4503 -0.3158 -0.1325
28617SOL    HW190662   6.799   8.068   3.733 -1.5443  0.4977  1.5999
28617SOL    HW290663   6.879   7.956   3.795  0.3182 -0.7016 -2.6223
28618SOL     OW90664   6.660   4.188   2.633  0.0556  0.2719  0.3683
28618SOL    HW190665   6.739   4.162   2.680 -0.2967 -2.3951 -0.3374
28618SOL    HW290666   6.680   4.275   2.600  1.8863  0.5273  1.9181
28619SOL     OW90667  10.158  11.889   9.660  0.1814 -0.0963 -0.0479
28619SOL    HW190668  10.141  11.805   9.618 -0.3395  0.1804 -0.3993
28619SOL    HW290669  10.163  11.869   9.754 -0.8307 -0.3791 -0.0519
28620SOL     OW90670  10.406   7.828  12.131 -0.5109  0.3475  0.2256
28620SOL    HW190671  10.375   7.860  12.047  0.7843 -0.8384 -0.7540
28620SOL    HW290672  10.460   7.900  12.166 -0.2927  0.4963 -0.4058
28621SOL     OW90673   2.478  10.007  11.197 -0.2745  0.2631  0.7925
28621SOL    HW190674   2.537   9.934  11.180  0.4101  0.7763  0.9276
28621SOL    HW290675   2.410   9.998  11.130 -1.1068 -1.4205  1.8019
28622SOL     OW90676   7.723  11.934   1.128  0.2682  0.3821  0.5546
28622SOL    HW190677   7.755  12.000   1.189  0.9174  0.3655  0.2460
28622SOL    HW290678   7.647  11.895   1.171 -0.5614  1.8024  0.4460
28623SOL     OW90679  11.840   9.157  11.255 -0.1509 -0.3909  0.3022
28623SOL    HW190680  11.863   9.066  11.238  0.3246  0.1962 -2.6628
28623SOL    HW290681  11.764   9.173  11.200 -0.9845  0.7220  1.7066
28624SOL     OW90682   9.970   4.967  10.813  0.0943 -0.4497 -0.6536
28624SOL    HW190683  10.001   4.877  10.802  0.8708 -0.2616 -0.0706
28624SOL    HW290684   9.999   5.013  10.734 -1.5224 -1.0202 -1.6222
28625SOL     OW90685   4.016   2.886   8.916 -0.2295  0.0854 -0.6110
28625SOL    HW190686   4.112   2.885   8.912 -0.2305 -1.6324 -1.0532
28625SOL    HW290687   3.989   2.809   8.866 -1.7500 -0.6538  1.2055
28626SOL     OW90688   3.603   6.238   2.440  0.2711  1.0961 -0.0875
28626SOL    HW190689   3.577   6.303   2.376  0.4274 -0.9553 -2.3606
28626SOL    HW290690   3.528   6.179   2.446  1.4155 -0.5151 -0.8533
28627SOL     OW90691   4.565   9.986   1.024 -0.4769  0.3724 -0.3827
28627SOL    HW190692   4.644  10.039   1.032 -1.1616  1.5363 -1.0694
28627SOL    HW290693   4.565   9.957   0.933  0.5216 -1.8932  0.2635
28628SOL     OW90694   5.622   6.558  11.348 -0.3552 -0.3895  0.7213
28628SOL    HW190695   5.539   6.515  11.330 -1.6237  2.1678 -0.0175
28628SOL    HW290696   5.647   6.598  11.264 -0.9573  2.9303  1.9532
28629SOL     OW90697   0.519   8.828  11.395  0.4679  0.4785  0.1714
28629SOL    HW190698   0.495   8.811  11.486  0.0924 -2.6368 -0.3813
28629SOL    HW290699   0.615   8.834  11.396  0.6455 -1.6404  0.5778
28630SOL     OW90700   9.849   1.988   6.255 -0.1399  0.5425  0.3091
28630SOL    HW190701   9.770   2.030   6.221 -0.1066 -0.0679 -0.5417
28630SOL    HW290702   9.849   1.901   6.215  1.7127  1.0308 -0.8409
28631SOL     OW90703   0.065   3.215   1.055 -0.4078  0.0955  0.4769
28631SOL    HW190704  -0.007   3.263   1.013 -1.3093 -0.4265  1.3837
28631SOL    HW290705   0.042   3.123   1.043  0.0182 -0.0720  0.9469
28632SOL     OW90706  11.275   0.617   0.869  0.5078 -0.3572 -0.0294
28632SOL    HW190707  11.215   0.664   0.811  0.8575  0.0263 -0.0819
28632SOL    HW290708  11.266   0.661   0.954  0.6529 -0.3543 -0.0165
28633SOL     OW90709   1.304   7.686   4.952 -0.2699  0.0739  0.4333
28633SOL    HW190710   1.333   7.627   5.021 -0.2483 -0.5907 -0.1316
28633SOL    HW290711   1.319   7.773   4.987  1.6724 -0.2300  0.5095
28634SOL     OW90712  11.866   5.741   1.084  0.0065  0.2067  0.6252
28634SOL    HW190713  11.827   5.805   1.025  2.6854  0.5833 -0.9034
28634SOL    HW290714  11.805   5.667   1.083 -0.8648  0.8819 -1.3174
28635SOL     OW90715  10.369   4.491  12.502 -0.3622  0.3929  0.1258
28635SOL    HW190716  10.452   4.506  12.457  0.6778  0.2023  1.9079
28635SOL    HW290717  10.331   4.579  12.509  0.0378  0.5851 -0.0255
28636SOL     OW90718  10.679   7.342  12.142 -0.6911 -0.0431 -0.1046
28636SOL    HW190719  10.745   7.397  12.186 -0.6092  0.1557 -0.4749
28636SOL    HW290720  10.611   7.328  12.209 -1.1587  1.2697 -0.2834
28637SOL     OW90721  10.433   6.054   1.421 -0.2220 -0.5716  0.5855
28637SOL    HW190722  10.421   5.984   1.486 -1.5671  0.6934  1.7707
28637SOL    HW290723  10.436   6.134   1.473  1.0126  0.3079 -0.7674
28638SOL     OW90724   6.771   4.137   9.101 -0.2529 -0.1519  0.5398
28638SOL    HW190725   6.749   4.051   9.136  0.2787  0.3207  2.0966
28638SOL    HW290726   6.851   4.162   9.147 -0.1927  1.0260 -0.1654
28639SOL     OW90727   2.615   5.820   5.356 -0.1923  0.1446 -0.5309
28639SOL    HW190728   2.658   5.871   5.425  0.4596  0.4453 -1.1609
28639SOL    HW290729   2.678   5.816   5.285 -0.6269 -0.6941 -0.8818
28640SOL     OW90730   0.249   2.291   1.818  0.3133  0.4396  0.3455
28640SOL    HW190731   0.198   2.269   1.896 -2.6491  1.0990 -1.2420
28640SOL    HW290732   0.272   2.207   1.779 -0.7618  0.0983  0.4216
28641SOL     OW90733   7.591   4.163   3.796 -0.6636  0.1747  0.2647
28641SOL    HW190734   7.667   4.220   3.809 -0.3985 -0.4631  1.7627
28641SOL    HW290735   7.563   4.180   3.706 -0.3064  2.3057  0.4911
28642SOL     OW90736   1.972   7.709   6.844  0.1809 -0.0110  0.3540
28642SOL    HW190737   1.949   7.648   6.775  0.7074 -0.2517  0.3931
28642SOL    HW290738   2.063   7.689   6.866  0.5603  1.1742 -0.0494
28643SOL     OW90739   6.640   5.994   8.150 -0.1649 -0.1231  0.2725
28643SOL    HW190740   6.617   6.056   8.080 -1.0552  1.4407  1.8842
28643SOL    HW290741   6.556   5.962   8.182  0.2432 -0.9409  0.5459
28644SOL     OW90742   8.296   1.347   8.727 -0.3527  0.0264  0.0095
28644SOL    HW190743   8.316   1.260   8.695  0.6933 -0.1008  0.9738
28644SOL    HW290744   8.231   1.333   8.795 -1.2511  0.1473 -0.7935
28645SOL     OW90745   5.276   3.151  12.226 -0.5910 -0.3681  0.2590
28645SOL    HW190746   5.250   3.175  12.315 -0.0919 -0.2155  0.3652
28645SOL    HW290747   5.194   3.152  12.176 -0.9274 -0.8066  0.7929
28646SOL     OW90748   7.038  10.440   0.311  0.0460 -0.0513  0.0332
28646SOL    HW190749   7.087  10.395   0.379  0.2242  0.8459  0.5226
28646SOL    HW290750   7.106  10.474   0.251 -0.1604 -2.1035 -1.4533
28647SOL     OW90751   3.070   8.708   7.124 -0.0708  0.4783 -0.0828
28647SOL    HW190752   3.037   8.729   7.037  1.8266  1.2667 -0.6594
28647SOL    HW290753   3.149   8.760   7.133  1.1068 -1.3853  1.1442
28648SOL     OW90754   3.760   6.097   7.920  0.4892  0.1906  0.4287
28648SOL    HW190755   3.778   6.171   7.978 -1.4523  2.0765 -1.2186
28648SOL    HW290756   3.839   6.043   7.925  1.4752  1.7104  2.6407
28649SOL     OW90757   8.579  12.173   8.127 -0.1660  0.4724  0.8391
28649SOL    HW190758   8.531  12.207   8.203 -1.2361 -0.0316  0.4062
28649SOL    HW290759   8.524  12.195   8.052  0.1381 -0.3748  0.3522
28650SOL     OW90760   5.244   6.815  10.410  0.3931  0.0209  0.4775
28650SOL    HW190761   5.149   6.803  10.405  0.3345  0.5971  0.1448
28650SOL    HW290762   5.264   6.809  10.504 -0.3491  2.5587  0.8802
28651SOL     OW90763   5.811   7.734   8.205 -0.2468 -0.6962  0.0501
28651SOL    HW190764   5.753   7.810   8.206 -0.3909 -0.7530 -1.4303
28651SOL    HW290765   5.899   7.770   8.198 -0.2706 -0.6427  0.0276
28652SOL     OW90766   8.507   6.177   3.641  0.3891 -0.0275 -0.1576
28652SOL    HW190767   8.416   6.158   3.666  0.5698 -1.0217 -0.1913
28652SOL    HW290768   8.535   6.098   3.595  1.5310 -0.0666  0.5683
28653SOL     OW90769   0.965   4.360   8.972 -0.0966  0.4087  0.6025
28653SOL    HW190770   0.975   4.265   8.983 -0.1049  0.6716  3.6579
28653SOL    HW290771   0.886   4.381   9.022  0.2489  2.1205  0.4758
28654SOL     OW90772   6.464   6.123   0.242  0.6358 -0.0271  0.1425
28654SOL    HW190773   6.444   6.046   0.188  0.5917  0.1709 -0.1238
28654SOL    HW290774   6.380   6.167   0.255  0.9157  1.0048 -1.2852
28655SOL     OW90775   1.890  11.210  11.922 -0.5320  0.1103 -0.2310
28655SOL    HW190776   1.846  11.294  11.909 -1.2689 -0.1880  0.2547
28655SOL    HW290777   1.836  11.164  11.987  1.1656  0.2030  1.3246
28656SOL     OW90778  11.615   1.295   8.183 -0.0905  0.4699 -0.4846
28656SOL    HW190779  11.534   1.344   8.197 -0.0362  0.3387  0.3288
28656SOL    HW290780  11.588   1.203   8.181  0.1468  0.3638  0.7184
28657SOL     OW90781   1.710   9.615  12.187  0.3163  0.2651  0.3128
28657SOL    HW190782   1.767   9.553  12.233  1.0680  1.1467  0.5907
28657SOL    HW290783   1.764   9.651  12.118 -0.5431 -0.3812 -0.7369
28658SOL     OW90784   6.741   0.476   3.809  0.0983  0.3270  0.5008
28658SOL    HW190785   6.693   0.455   3.728  1.5786  0.4499 -0.4411
28658SOL    HW290786   6.687   0.542   3.852 -1.7446 -1.1940  0.6533
28659SOL     OW90787   7.367   4.988   4.697 -0.0871  0.2007 -0.0021
28659SOL    HW190788   7.458   5.008   4.719  0.1782 -0.4536 -0.4658
28659SOL    HW290789   7.373   4.917   4.633 -0.8546  1.6322 -1.7426
28660SOL     OW90790   0.349   6.294  11.355  0.5799  0.3888  0.5384
28660SOL    HW190791   0.347   6.378  11.401 -0.6166  0.2929  0.6947
28660SOL    HW290792   0.283   6.303  11.286  0.3556 -0.4540  0.6304
28661SOL     OW90793   9.123   0.428  10.001  0.0060 -0.2150  0.2704
28661SOL    HW190794   9.113   0.408  10.094  0.6950  0.2601  0.4578
28661SOL    HW290795   9.134   0.523   9.999 -1.5468 -0.0183 -0.4408
28662SOL     OW90796   7.032   2.716   8.707 -0.2180  0.2077 -0.4045
28662SOL    HW190797   7.014   2.786   8.644 -0.0742  1.3003  0.7394
28662SOL    HW290798   7.099   2.662   8.664  1.8204  2.4072 -0.1680
28663SOL     OW90799   7.911   0.856   5.081  0.4077  0.2173  0.4392
28663SOL    HW190800   7.958   0.785   5.126  0.3548  0.3306  0.6755
28663SOL    HW290801   7.829   0.816   5.052 -0.4200  0.5986  2.0925
28664SOL     OW90802   3.638   5.648  10.415  0.0856  0.1886  0.0894
28664SOL    HW190803   3.579   5.630  10.489 -1.3462  2.0550 -0.5131
28664SOL    HW290804   3.615   5.582  10.349 -0.5001  0.1788  0.3008
28665SOL     OW90805   0.513  11.793   4.913  0.3824 -0.3513 -0.2059
28665SOL    HW190806   0.520  11.712   4.862 -2.3078 -1.2914  0.7912
28665SOL    HW290807   0.604  11.817   4.932  1.2944 -2.3846 -1.6491
28666SOL     OW90808   0.604   3.717   3.497  0.2013 -0.0152 -0.0375
28666SOL    HW190809   0.607   3.735   3.591 -0.9495 -1.4465  0.2955
28666SOL    HW290810   0.623   3.623   3.490  0.8609  0.1904 -1.3018
28667SOL     OW90811   7.665   8.409   0.946  0.0256  0.2082 -0.3729
28667SOL    HW190812   7.706   8.324   0.965 -2.0083 -0.6522  0.4035
28667SOL    HW290813   7.585   8.387   0.899 -0.5905  1.6998 -0.0876
28668SOL     OW90814   4.779   2.108  12.392  0.0387  0.7956  0.2052
28668SOL    HW190815   4.852   2.120  12.332  1.0826 -0.1953  1.2268
28668SOL    HW290816   4.820   2.092  12.477 -1.2867 -1.7852  0.4459
28669SOL     OW90817  10.590  10.407   4.452  0.2382  0.0346 -0.2774
28669SOL    HW190818  10.626  10.338   4.397  0.8637  0.3661 -0.2932
28669SOL    HW290819  10.646  10.408   4.530 -1.1206 -0.9707  0.7541
28670SOL     OW90820   7.737   1.240  12.191  0.1115 -0.2010  0.0777
28670SOL    HW190821   7.721   1.294  12.114 -0.8548  0.2480  0.5755
28670SOL    HW290822   7.827   1.260  12.216  0.0097  0.6267 -0.1847
28671SOL     OW90823   2.264   0.890   0.874 -0.6097  0.0172 -0.0467
28671SOL    HW190824   2.288   0.912   0.784  1.1346 -1.8717 -0.1207
28671SOL    HW290825   2.237   0.798   0.870  1.3732 -0.7146  1.5886
28672SOL     OW90826   9.462   7.490   1.838 -0.0461  0.3491  0.1438
28672SOL    HW190827   9.436   7.572   1.795 -0.6859  0.7851  1.2930
28672SOL    HW290828   9.441   7.505   1.931 -1.4985 -1.6246  0.2024
28673SOL     OW90829   4.236   9.519   8.660  0.3185  0.1107 -0.1912
28673SOL    HW190830   4.189   9.572   8.595 -2.3174 -3.6440 -1.6933
28673SOL    HW290831   4.197   9.543   8.744  0.8973  2.1297 -0.4484
28674SOL     OW90832   1.126  11.308   2.372 -0.0533 -0.2374  0.0527
28674SOL    HW190833   1.085  11.232   2.413  0.8596 -0.8990 -0.2270
28674SOL    HW290834   1.070  11.328   2.297  0.9556 -2.1710 -1.3152
28675SOL     OW90835   2.112   1.006   9.480  0.5244  0.1046  0.3564
28675SOL    HW190836   2.199   0.968   9.487 -0.0534 -1.1631  1.2807
28675SOL    HW290837   2.125   1.100   9.487  1.7185 -0.1323  1.9310
28676SOL     OW90838   8.794   3.806   9.025  0.0368  0.0899  0.0758
28676SOL    HW190839   8.775   3.796   8.932  1.2454 -0.4168 -0.1435
28676SOL    HW290840   8.773   3.897   9.045 -0.5246  0.1177 -0.6191
28677SOL     OW90841   4.210  10.232   7.060 -0.2121 -0.7289  0.1718
28677SOL    HW190842   4.296  10.192   7.047 -0.2481 -0.8857  0.4026
28677SOL    HW290843   4.153  10.159   7.084 -0.4144 -0.6281 -0.0013
28678SOL     OW90844   2.097   3.763  11.351  0.0481  0.3013 -0.0876
28678SOL    HW190845   2.040   3.839  11.337 -1.7651 -0.9279  0.2154
28678SOL    HW290846   2.081   3.707  11.274  0.1986 -0.4479  0.4142
28679SOL     OW90847   4.171   4.588   9.950  0.0220 -0.2462 -0.1046
28679SOL    HW190848   4.120   4.574   9.870  0.6748 -1.0627 -0.3935
28679SOL    HW290849   4.244   4.644   9.923 -0.5064  0.6157  0.2279
28680SOL     OW90850  11.539  10.659   7.532 -0.4997  0.2199  0.4559
28680SOL    HW190851  11.556  10.655   7.438  1.0100  2.5556  0.5472
28680SOL    HW290852  11.585  10.584   7.568 -0.0410 -0.0025 -0.5529
28681SOL     OW90853   1.355   9.024   9.952  0.2791 -0.0384  0.0060
28681SOL    HW190854   1.446   9.054   9.952  1.2662 -2.7205  0.4113
28681SOL    HW290855   1.333   9.016  10.045 -0.0128 -0.2995 -0.0841
28682SOL     OW90856  12.386   2.879  11.534 -0.5120 -0.0518 -0.2323
28682SOL    HW190857  12.445   2.823  11.483  0.4218  0.3240  0.4200
28682SOL    HW290858  12.443   2.942  11.577 -1.3017 -0.2011  1.0905
28683SOL     OW90859   5.734   6.769  12.094 -0.3422 -0.0915  0.5152
28683SOL    HW190860   5.705   6.832  12.028 -0.3613 -0.7164 -0.0826
28683SOL    HW290861   5.829   6.772  12.089 -0.3475 -0.4670  0.1373
28684SOL     OW90862   1.510  10.919  10.346  0.2725 -0.2921 -0.0633
28684SOL    HW190863   1.503  10.991  10.283 -0.4762  0.4821  0.8659
28684SOL    HW290864   1.579  10.948  10.407 -1.1467  0.4411  1.2677
28685SOL     OW90865   2.621   8.031   8.199 -0.2666  0.1415 -0.1924
28685SOL    HW190866   2.681   8.106   8.198 -0.7217  0.5179 -0.0011
28685SOL    HW290867   2.623   8.001   8.290  1.4630 -1.3739 -0.6595
28686SOL     OW90868   4.913   0.234   1.644  0.2600 -0.1448 -0.1561
28686SOL    HW190869   4.932   0.272   1.558  0.3252 -0.5319 -0.3124
28686SOL    HW290870   4.851   0.295   1.684 -1.0185 -0.7759 -1.1127
28687SOL     OW90871   1.949   2.603   3.690  0.3198  0.5413 -0.3308
28687SOL    HW190872   1.898   2.679   3.718  1.3842  1.0241  0.3875
28687SOL    HW290873   1.977   2.625   3.601 -0.9837  0.1172 -0.8606
28688SOL     OW90874  11.361   8.428   8.583  0.5569 -0.2046  0.3002
28688SOL    HW190875  11.304   8.451   8.510 -0.5577  1.4346  1.6217
28688SOL    HW290876  11.403   8.346   8.555  1.8894  1.4350 -3.1106
28689SOL     OW90877   3.883   9.334   4.226 -0.2137 -0.1250 -0.2789
28689SOL    HW190878   3.940   9.259   4.210 -1.2619 -1.1539  0.5961
28689SOL    HW290879   3.816   9.328   4.157 -0.6535 -0.3844  0.1590
28690SOL     OW90880   3.573   5.194   3.773  0.1033 -0.0743  0.1223
28690SOL    HW190881   3.658   5.236   3.759  0.6521 -0.8330  1.1205
28690SOL    HW290882   3.564   5.188   3.868 -2.3998  2.6522  0.2311
28691SOL     OW90883   7.229  10.347  12.522  0.1640  0.0280 -0.2912
28691SOL    HW190884   7.297  10.367  12.458  0.2999  0.3997 -0.0283
28691SOL    HW290885   7.197  10.261  12.496  0.4030  0.0606 -0.7021
28692SOL     OW90886   7.106   0.430   1.681 -0.1837  0.5351  0.1932
28692SOL    HW190887   7.109   0.502   1.743  0.9005 -0.4961  1.3851
28692SOL    HW290888   7.115   0.351   1.734  2.1981 -0.3427 -1.3203
28693SOL     OW90889   6.833  10.278   7.555 -0.2813 -0.2529  0.1596
28693SOL    HW190890   6.802  10.366   7.574 -0.6845 -0.5048  0.7248
28693SOL    HW290891   6.844  10.276   7.460 -1.4383  0.0340  0.0068
28694SOL     OW90892   5.710   3.784   7.521 -0.1457 -0.1079  0.2585
28694SOL    HW190893   5.686   3.719   7.455 -1.9576 -0.0897  0.8518
28694SOL    HW290894   5.680   3.747   7.604  1.8842 -0.0266  1.0960
28695SOL     OW90895   2.610   8.932   6.280  0.0594 -0.0051  0.0458
28695SOL    HW190896   2.618   8.847   6.237  1.6105  0.6350 -1.0192
28695SOL    HW290897   2.547   8.918   6.351 -1.3964 -1.4820 -1.4678
28696SOL     OW90898   8.575   3.063   6.084 -0.1090 -0.6388  0.1745
28696SOL    HW190899   8.639   3.066   6.014 -0.6864 -0.8806 -0.3749
28696SOL    HW290900   8.599   2.988   6.137 -0.6684 -1.4975 -0.7559
28697SOL     OW90901   2.957   1.225   0.120  0.6585  1.0389  0.0797
28697SOL    HW190902   3.047   1.258   0.116  1.8787 -2.0207 -0.3411
28697SOL    HW290903   2.946   1.195   0.210  1.2213 -1.3881 -0.6068
28698SOL     OW90904   6.101  11.871   2.907  0.0682 -0.3531  0.0428
28698SOL    HW190905   6.148  11.794   2.940 -2.1127 -1.9750 -0.4524
28698SOL    HW290906   6.039  11.893   2.976 -1.3647 -0.9296 -1.0128
28699SOL     OW90907   1.719   7.444   9.757 -0.0381 -0.0775  0.3799
28699SOL    HW190908   1.703   7.530   9.794 -1.1444 -0.5241  0.9978
28699SOL    HW290909   1.666   7.441   9.677  1.0526  0.2838 -0.3819
28700SOL     OW90910   8.375   5.231   0.058  0.1665  0.3777 -0.0725
28700SOL    HW190911   8.312   5.159   0.069  0.4886  0.1583  0.3523
28700SOL    HW290912   8.326   5.298   0.010 -0.8767  0.8366  1.5499
28701SOL     OW90913   8.011   0.905  11.300  0.2424 -0.5866 -0.4846
28701SOL    HW190914   7.998   0.905  11.206 -0.9620 -0.4449 -0.3391
28701SOL    HW290915   7.979   0.819  11.329 -1.3668  0.1513  0.0160
28702SOL     OW90916  11.120  10.671   9.051 -0.4121  0.2285  0.3412
28702SOL    HW190917  11.027  10.657   9.071 -0.4767  0.9958  0.5936
28702SOL    HW290918  11.166  10.611   9.111 -0.6948  0.9278  1.2835
28703SOL     OW90919  11.913   6.045   6.557  0.2890  0.8322 -0.7358
28703SOL    HW190920  11.888   5.967   6.506  0.5566  0.9934 -1.1162
28703SOL    HW290921  11.861   6.039   6.637  1.4503 -0.5566 -0.0472
28704SOL     OW90922   0.841   1.526   2.278  0.2082 -0.1544 -0.0570
28704SOL    HW190923   0.778   1.524   2.350  0.0006  1.6582 -0.1419
28704SOL    HW290924   0.802   1.470   2.211  0.7655 -2.5100  1.4342
28705SOL     OW90925   4.547   0.299   4.450  0.2474  0.2171  0.6537
28705SOL    HW190926   4.592   0.340   4.523  0.7623 -1.0186  1.0373
28705SOL    HW290927   4.462   0.344   4.446 -1.0097 -1.5830  3.8458
28706SOL     OW90928  11.226  10.285   9.858 -0.5105  0.3577 -0.3291
28706SOL    HW190929  11.292  10.215   9.857 -0.6401  0.1873  0.9201
28706SOL    HW290930  11.255  10.347   9.791  0.3925 -0.1890 -0.4566
28707SOL     OW90931   1.014   3.411   3.465  0.1625 -0.0812  0.2625
28707SOL    HW190932   1.072   3.405   3.390  0.8613 -0.4178  0.8170
28707SOL    HW290933   1.026   3.328   3.512 -0.9428 -0.2563  0.2600
28708SOL     OW90934   7.748   2.485   4.775  0.5519 -0.1727  0.8861
28708SOL    HW190935   7.842   2.488   4.788  0.4360 -1.3610  2.3280
28708SOL    HW290936   7.718   2.413   4.831 -0.8772 -1.7665 -1.7469
28709SOL     OW90937   6.231   8.326   3.931  0.1279 -0.4723  0.6196
28709SOL    HW190938   6.164   8.394   3.919  0.1073 -0.7566 -1.1319
28709SOL    HW290939   6.216   8.292   4.019 -1.4555  0.0789  0.5804
28710SOL     OW90940  11.983   6.007   3.830 -0.3504 -0.1744  0.1112
28710SOL    HW190941  11.932   6.083   3.856  1.8192  0.8587  1.6577
28710SOL    HW290942  11.990   5.954   3.910  0.6192 -0.5030 -0.1731
28711SOL     OW90943   7.398   7.021   1.138 -0.5417  0.7323 -0.1966
28711SOL    HW190944   7.475   6.986   1.183 -0.8841 -1.5545 -1.2191
28711SOL    HW290945   7.324   6.989   1.189 -0.8615  0.5313 -0.7735
28712SOL     OW90946   9.076   9.934   2.165 -0.4682  0.2164 -0.7529
28712SOL    HW190947   9.102   9.842   2.155  0.5438  0.5162 -1.0084
28712SOL    HW290948   9.145   9.983   2.120 -1.3025  1.0787 -1.1244
28713SOL     OW90949   2.175   3.264   1.571  0.0870  0.0724  0.3053
28713SOL    HW190950   2.182   3.188   1.513  0.6212 -0.9333  1.6312
28713SOL    HW290951   2.202   3.338   1.517  0.8621 -0.8749 -0.6386
28714SOL     OW90952   6.028   3.253  11.664 -0.0174  1.3959 -0.3577
28714SOL    HW190953   5.949   3.211  11.628  0.4274 -0.6957  0.9604
28714SOL    HW290954   6.070   3.292  11.587 -0.7213 -0.1698 -1.6016
28715SOL     OW90955   0.753   7.117   4.708 -0.5982 -0.0326  0.0656
28715SOL    HW190956   0.688   7.156   4.767  0.2094 -0.1290  1.0370
28715SOL    HW290957   0.835   7.119   4.758  0.2099  0.3247 -1.2374
28716SOL     OW90958   9.859   3.137   6.658  0.4912  0.2147 -0.4511
28716SOL    HW190959   9.923   3.113   6.725 -0.3986 -1.1385 -0.0523
28716SOL    HW290960   9.791   3.184   6.706 -0.4554 -1.2991 -0.2582
28717SOL     OW90961   2.641  12.461   2.847  0.1974  0.6292  0.0407
28717SOL    HW190962   2.613  12.548   2.876 -2.5078  0.5247 -1.8464
28717SOL    HW290963   2.730  12.474   2.814 -0.0259  2.6286  0.1198
28718SOL     OW90964   7.455   7.748   3.935 -0.0544  0.6426  0.2869
28718SOL    HW190965   7.375   7.763   3.985 -1.3191  0.7878 -1.6702
28718SOL    HW290966   7.425   7.716   3.850  2.0591 -1.2378  0.1394
28719SOL     OW90967  11.908  11.324   1.532  0.3613  0.6372 -0.2319
28719SOL    HW190968  11.847  11.346   1.602  1.0806  1.1143  0.2573
28719SOL    HW290969  11.993  11.358   1.562  0.8974 -0.1258 -0.8331
28720SOL     OW90970  12.392   9.542   2.988 -0.1804 -0.2012  0.3267
28720SOL    HW190971  12.370   9.631   2.960 -0.6954 -0.2306  0.6390
28720SOL    HW290972  12.470   9.553   3.043 -0.3491  0.0769  0.5095
28721SOL     OW90973  12.439   3.614   0.728 -0.0470  0.0522 -0.1629
28721SOL    HW190974  12.378   3.580   0.663 -0.1313  0.5490 -0.3474
28721SOL    HW290975  12.407   3.581   0.812 -0.6405  0.4053 -0.2457
28722SOL     OW90976   5.719   3.975   1.387  0.8049  0.1265 -0.5348
28722SOL    HW190977   5.684   4.011   1.469  0.5636 -1.8060  0.2435
28722SOL    HW290978   5.746   4.053   1.337  1.5359  1.3370  1.6036
28723SOL     OW90979   8.755   6.427   4.955 -0.2447 -0.1419 -0.1729
28723SOL    HW190980   8.719   6.394   4.873  0.0129  2.4578 -1.4255
28723SOL    HW290981   8.746   6.353   5.016  0.2293 -2.4368 -2.6659
28724SOL     OW90982   9.318  12.477   0.221 -0.3151  0.1705 -0.4971
28724SOL    HW190983   9.253  12.490   0.290 -0.1642  2.3522 -0.7081
28724SOL    HW290984   9.401  12.468   0.268 -0.3988  0.2268 -0.3370
28725SOL     OW90985   6.914   3.510   8.498 -0.4891 -0.7878 -0.0064
28725SOL    HW190986   6.846   3.506   8.565 -0.2526 -0.9442  0.2230
28725SOL    HW290987   6.882   3.576   8.436 -0.9620 -1.0254 -0.0217
28726SOL     OW90988   9.645   6.215   4.607 -0.1096  0.1054 -0.6668
28726SOL    HW190989   9.711   6.268   4.651 -1.5494  2.4940 -1.1987
28726SOL    HW290990   9.668   6.125   4.629  1.8047  0.9664  1.2418
28727SOL     OW90991   8.755   1.971   2.950  0.0597 -0.3771  0.2604
28727SOL    HW190992   8.810   1.935   3.020  0.9141 -0.6846 -0.5461
28727SOL    HW290993   8.804   2.047   2.919  2.3908 -3.0579 -3.4206
28728SOL     OW90994   7.111   2.805  12.620 -0.0234 -0.7259 -0.7164
28728SOL    HW190995   7.111   2.870  12.690  0.8438 -0.7811 -0.6493
28728SOL    HW290996   7.068   2.849  12.546 -1.5219 -0.8944  0.0321
28729SOL     OW90997   2.236   1.641  10.770  0.5058  0.3128  0.4305
28729SOL    HW190998   2.314   1.667  10.721 -0.4008 -0.3828 -1.4549
28729SOL    HW290999   2.184   1.590  10.708 -0.9275 -0.2125  1.9902
28730SOL     OW91000   2.260  12.253   6.122  1.1174 -1.4455 -0.1328
28730SOL    HW191001   2.269  12.333   6.174 -0.7394  1.0077 -3.2350
28730SOL    HW291002   2.256  12.183   6.187  1.0721  1.1241  2.8760
28731SOL     OW91003   4.660   9.289   3.763 -0.5408  0.3658 -0.0462
28731SOL    HW191004   4.714   9.366   3.744 -2.2328  1.5765 -0.2352
28731SOL    HW291005   4.721   9.216   3.764  1.5806  1.9798  2.6181
28732SOL     OW91006   2.882   4.058   2.589 -0.1546  0.1150 -0.7427
28732SOL    HW191007   2.806   4.025   2.638 -0.3153  3.1209  1.3130
28732SOL    HW291008   2.956   4.014   2.630 -0.4110  1.5113  1.3857
28733SOL     OW91009   5.973   2.894   3.065  0.4206  0.6071  0.0483
28733SOL    HW191010   6.008   2.807   3.082  0.6977  1.1083  2.3226
28733SOL    HW291011   5.954   2.930   3.151 -1.2709  2.1835 -0.8962
28734SOL     OW91012   3.731   3.891   9.205  0.1478  0.1489  0.3757
28734SOL    HW191013   3.741   3.986   9.209  0.2468  0.1685 -0.2057
28734SOL    HW291014   3.649   3.877   9.159  1.0694 -0.0376 -1.3166
28735SOL     OW91015  11.685   7.833   0.037 -0.3123 -0.3521  0.3653
28735SOL    HW191016  11.626   7.908   0.024 -0.5275 -0.1348  2.2702
28735SOL    HW291017  11.678   7.814   0.130 -0.1082 -2.6443 -0.0482
28736SOL     OW91018  12.163  12.502   8.598 -0.4504 -0.3032  0.5662
28736SOL    HW191019  12.183  12.428   8.540 -0.7270 -0.3331  0.5062
28736SOL    HW291020  12.094  12.550   8.552  0.4278  0.5788  0.1130
28737SOL     OW91021  10.857   3.882   4.596  0.2462 -0.1386  0.1420
28737SOL    HW191022  10.940   3.852   4.559  0.5151 -1.6798  1.8766
28737SOL    HW291023  10.796   3.809   4.582 -0.1367 -0.0128  1.0658
28738SOL     OW91024   6.000   0.572   4.416  0.2814  0.5241 -0.3372
28738SOL    HW191025   5.929   0.518   4.450 -0.2343  0.5736 -1.2901
28738SOL    HW291026   5.962   0.660   4.411  0.9720  0.9123  0.7815
28739SOL     OW91027  10.246   6.091   1.805  0.4505 -0.3828  0.1780
28739SOL    HW191028  10.255   6.114   1.898  2.4520 -2.2604  0.5413
28739SOL    HW291029  10.291   6.161   1.758  1.9583 -0.8221  0.8832
28740SOL     OW91030   8.554   4.329   3.752 -0.5791 -0.1840  0.3623
28740SOL    HW191031   8.565   4.279   3.833  0.9330  0.2878  0.4847
28740SOL    HW291032   8.506   4.270   3.694  0.9041 -1.7164  0.5920
28741SOL     OW91033   5.739   6.612  11.812  0.2498 -0.2505 -0.4750
28741SOL    HW191034   5.672   6.662  11.765  1.6983  2.3443  0.0430
28741SOL    HW291035   5.693   6.573  11.886 -0.6694  2.0338  0.2619
28742SOL     OW91036  10.505   5.922   2.751 -0.3066  0.4668  0.0224
28742SOL    HW191037  10.454   5.862   2.696 -1.4026  0.3340  1.1393
28742SOL    HW291038  10.573   5.956   2.693  0.0193 -1.4409 -0.7890
28743SOL     OW91039   0.580   9.240  10.347  0.0951  0.4441 -0.0302
28743SOL    HW191040   0.581   9.182  10.424 -0.6680  0.1871 -0.2001
28743SOL    HW291041   0.671   9.264  10.334  0.5819 -1.5200 -0.5491
28744SOL     OW91042   0.576   4.434   8.826  0.3403  0.2149  0.0678
28744SOL    HW191043   0.608   4.458   8.913 -0.4949  1.1658  0.1409
28744SOL    HW291044   0.533   4.350   8.838  0.2910  0.3108  0.5642
28745SOL     OW91045  11.690   2.070   8.125  0.0844 -0.1669  1.0978
28745SOL    HW191046  11.641   2.072   8.207  0.6242 -1.0614  1.4471
28745SOL    HW291047  11.779   2.047   8.150  0.2819 -0.3261  0.2767
28746SOL     OW91048   5.573  11.138   3.828 -0.9241 -0.5994 -0.2153
28746SOL    HW191049   5.552  11.157   3.737 -0.1412 -1.0658 -0.4960
28746SOL    HW291050   5.491  11.155   3.875 -1.3421 -0.3868 -1.0010
28747SOL     OW91051   1.844   3.107   8.119 -0.5337 -0.3397 -0.4321
28747SOL    HW191052   1.845   3.184   8.177 -0.7433  0.1683 -1.0948
28747SOL    HW291053   1.934   3.073   8.123 -0.7866 -0.9081  0.9700
28748SOL     OW91054   2.587  12.153   9.734 -0.1520  0.7908 -0.2905
28748SOL    HW191055   2.507  12.159   9.786  1.2858 -1.4941  2.4603
28748SOL    HW291056   2.652  12.201   9.784  0.5892  1.3823 -1.7509
28749SOL     OW91057   0.581  10.828   8.916 -0.7737  0.5858 -0.3455
28749SOL    HW191058   0.511  10.864   8.971 -0.9382 -1.5619  0.9542
28749SOL    HW291059   0.630  10.770   8.974  1.9380  1.7723 -1.3094
28750SOL     OW91060  10.867   6.982   7.810  0.1826 -0.3324  0.1236
28750SOL    HW191061  10.877   6.890   7.786 -1.9924 -0.8335  0.8647
28750SOL    HW291062  10.840   6.979   7.902  0.0123  1.0352  0.1332
28751SOL     OW91063   9.253  11.529   7.908 -0.0403 -0.3964  0.1187
28751SOL    HW191064   9.291  11.546   7.822 -1.7008 -0.9086 -0.7733
28751SOL    HW291065   9.277  11.438   7.928  3.3678  0.7536  1.9146
28752SOL     OW91066   6.473   9.161  11.716 -0.1852 -0.4506 -0.3143
28752SOL    HW191067   6.440   9.251  11.721 -2.3507 -1.1969 -0.2546
28752SOL    HW291068   6.419   9.119  11.649  0.0210 -2.0274  0.4636
28753SOL     OW91069   4.199   3.026   4.472 -0.6657 -0.1476  0.3384
28753SOL    HW191070   4.161   2.961   4.414 -0.7875  1.1574 -1.1041
28753SOL    HW291071   4.199   2.984   4.558  1.4137 -2.9503 -0.8677
28754SOL     OW91072  11.931   2.663   1.062  0.4850 -0.0756 -0.3738
28754SOL    HW191073  12.011   2.618   1.089  0.3334  0.3392  0.8680
28754SOL    HW291074  11.907   2.717   1.138 -0.5290  0.4285 -1.0167
28755SOL     OW91075  12.196   3.198   8.901  0.0901  0.4287  0.0780
28755SOL    HW191076  12.115   3.189   8.851  0.1306  0.3464  0.0252
28755SOL    HW291077  12.222   3.289   8.890 -0.0140  0.4648  0.1235
28756SOL     OW91078   3.650  10.843  12.424 -0.4796 -0.0563  0.2412
28756SOL    HW191079   3.669  10.837  12.518 -0.1220 -1.7756  0.1073
28756SOL    HW291080   3.625  10.934  12.410  4.2020  1.6396  1.1339
28757SOL     OW91081   8.239   0.336   2.916  0.1818  0.5279  0.1766
28757SOL    HW191082   8.199   0.415   2.878  2.1765  1.4819 -0.0589
28757SOL    HW291083   8.333   0.354   2.913  0.5944 -1.2799  1.4613
28758SOL     OW91084   7.713   6.014   9.863  0.3236 -0.2392  0.1648
28758SOL    HW191085   7.725   5.922   9.840  0.1374 -0.7361  1.9094
28758SOL    HW291086   7.619   6.022   9.878  0.2885  0.3429 -0.3423
28759SOL     OW91087   3.738  11.862   0.340 -0.0055 -0.1761 -0.2602
28759SOL    HW191088   3.792  11.941   0.342  1.1755 -0.9542 -0.7055
28759SOL    HW291089   3.760  11.820   0.257 -0.1268 -1.3071  0.2651
28760SOL     OW91090   7.468   9.729  11.743 -0.0509 -0.1155  0.1053
28760SOL    HW191091   7.492   9.692  11.827  0.0128  0.2621  0.2523
28760SOL    HW291092   7.419   9.659  11.699  0.0377 -0.3588  0.3965
28761SOL     OW91093   5.980   7.522   9.375 -0.4952 -0.6326 -0.0935
28761SOL    HW191094   5.888   7.551   9.372 -0.7325 -1.4037 -1.1552
28761SOL    HW291095   5.980   7.440   9.327  0.9976  0.0344 -1.3235
28762SOL     OW91096   4.373   4.025   1.487 -0.3181 -0.2826  0.6819
28762SOL    HW191097   4.414   4.066   1.412  0.2971  0.1685  1.2539
28762SOL    HW291098   4.444   3.977   1.530 -0.8548 -1.3112  0.4638
28763SOL     OW91099   6.442   2.865   7.349  0.5763 -0.4324 -0.1880
28763SOL    HW191100   6.519   2.848   7.404  1.4104  0.2588 -1.0966
28763SOL    HW291101   6.404   2.945   7.385  2.9922  1.9525 -2.4254
28764SOL     OW91102   6.568  11.839   1.600 -0.3149  0.1187 -0.6869
28764SOL    HW191103   6.531  11.835   1.512 -2.6305  3.0377  0.0155
28764SOL    HW291104   6.621  11.918   1.601  0.1338 -0.1721  0.4048
28765SOL     OW91105   5.041   3.949   1.769  0.2469 -0.6848 -0.0850
28765SOL    HW191106   5.049   4.041   1.745 -1.6864 -0.3346  0.4951
28765SOL    HW291107   5.024   3.950   1.863  1.4735 -1.7229  0.1728
28766SOL     OW91108   5.074  11.636   2.841 -0.0046 -0.2137  0.2607
28766SOL    HW191109   4.988  11.609   2.874 -0.4644 -1.7177 -1.9609
28766SOL    HW291110   5.136  11.599   2.904 -0.9123 -0.9688  0.7433
28767SOL     OW91111   9.243  11.958   7.659 -0.3732 -0.1510  0.1054
28767SOL    HW191112   9.255  11.890   7.593 -2.9311 -0.7116  0.0933
28767SOL    HW291113   9.222  12.037   7.609 -1.3248 -0.3359  0.1991
28768SOL     OW91114   9.938   9.235   4.883 -0.0410  0.2405 -0.4207
28768SOL    HW191115   9.996   9.294   4.930 -1.3821  0.6497  0.7907
28768SOL    HW291116   9.871   9.291   4.845 -0.9092 -0.4180  0.1054
28769SOL     OW91117  12.128   7.063   2.396  0.4949  0.0075  0.2189
28769SOL    HW191118  12.142   7.044   2.304  1.5769  0.0261  0.3660
28769SOL    HW291119  12.114   7.158   2.399 -1.4208 -0.2248 -0.1164
28770SOL     OW91120   8.257   3.177   5.655  0.5861  0.3534  0.2136
28770SOL    HW191121   8.311   3.174   5.733  0.0077  1.2602  0.6631
28770SOL    HW291122   8.300   3.240   5.598  0.1677  0.8490  0.4453
28771SOL     OW91123   9.848  12.263   2.982  0.6278 -0.3143  0.2991
28771SOL    HW191124   9.855  12.335   3.044  0.0914  0.8020 -0.8780
28771SOL    HW291125   9.911  12.198   3.012  1.6033  0.9323  1.0188
28772SOL     OW91126   9.230  10.447   4.826 -0.1586  0.1342 -0.1340
28772SOL    HW191127   9.281  10.449   4.908 -0.3048  1.3271 -0.0602
28772SOL    HW291128   9.145  10.411   4.852  0.4613 -1.4478 -0.1735
28773SOL     OW91129   8.986   4.251  11.247 -0.0820 -0.1256 -0.2539
28773SOL    HW191130   8.981   4.228  11.154 -0.7673  0.7931 -0.4578
28773SOL    HW291131   9.023   4.339  11.248  2.4753 -1.1199  0.5103
28774SOL     OW91132   8.444   0.320   0.168 -0.4000 -0.3829 -0.2360
28774SOL    HW191133   8.539   0.330   0.172  0.0019 -3.3851  3.8659
28774SOL    HW291134   8.429   0.254   0.100  0.8137 -1.8492  0.8551
28775SOL     OW91135   4.059  10.429   0.980  0.1522 -0.7837 -0.2493
28775SOL    HW191136   4.135  10.485   0.992 -0.0041  0.0015 -2.4814
28775SOL    HW291137   4.044  10.428   0.886 -1.8431 -1.9562  0.0133
28776SOL     OW91138   8.173   6.918   6.435  0.6499  0.4721  0.3951
28776SOL    HW191139   8.106   6.859   6.400 -0.1678  1.0154  0.9717
28776SOL    HW291140   8.203   6.875   6.515  1.9394 -0.3848 -0.5160
28777SOL     OW91141   6.179   6.119   2.932 -0.0047  0.2725  0.0000
28777SOL    HW191142   6.138   6.040   2.897 -0.7793  1.1999 -1.2485
28777SOL    HW291143   6.269   6.115   2.902  0.2788 -0.6664  0.8900
28778SOL     OW91144   9.095  10.658   7.773 -0.0881  0.1004 -0.6159
28778SOL    HW191145   9.159  10.727   7.790 -0.5683  0.7397 -1.2999
28778SOL    HW291146   9.094  10.606   7.853 -0.6900  1.6918  0.4783
28779SOL     OW91147   2.056   8.625   9.700  0.1870 -0.3673  0.3534
28779SOL    HW191148   2.078   8.546   9.749  0.1979 -0.6562 -0.1135
28779SOL    HW291149   1.967   8.646   9.728  0.7875  0.4592  1.7833
28780SOL     OW91150   4.054   7.147   8.005  0.0987 -0.6794 -0.1642
28780SOL    HW191151   4.099   7.138   7.921 -1.7244 -0.5096 -1.2054
28780SOL    HW291152   4.110   7.206   8.056  0.1155  1.1346 -2.1323
28781SOL     OW91153   6.000   1.256   0.734 -0.0983 -0.5264 -0.8520
28781SOL    HW191154   6.074   1.234   0.791  0.0008  0.0282 -0.7598
28781SOL    HW291155   5.984   1.177   0.683 -0.2762 -1.0821  0.0436
28782SOL     OW91156   6.263   1.086  11.381  0.1831 -0.5878  0.2531
28782SOL    HW191157   6.324   1.019  11.351  0.7138 -0.7819  1.7014
28782SOL    HW291158   6.192   1.038  11.424 -2.4307 -0.5668 -3.5230
28783SOL     OW91159  10.170   7.407   9.666  0.1550 -0.4757 -0.3865
28783SOL    HW191160  10.226   7.330   9.668  0.4582 -0.2536 -0.0351
28783SOL    HW291161  10.161   7.432   9.758  0.1795 -0.0148 -0.5043
28784SOL     OW91162   6.782  11.663  11.099 -0.4672  0.0683  0.1962
28784SOL    HW191163   6.687  11.664  11.110 -0.6291  1.6168 -0.9679
28784SOL    HW291164   6.802  11.744  11.051  1.2712 -0.9378 -0.9302
28785SOL     OW91165   6.166  11.202   0.217  0.2594 -0.0557  0.1294
28785SOL    HW191166   6.249  11.249   0.226 -0.1468  0.8509 -0.6657
28785SOL    HW291167   6.098  11.268   0.232 -0.3181 -0.6745  0.2876
28786SOL     OW91168   5.411   2.949   7.059 -0.0022  0.6024 -0.2753
28786SOL    HW191169   5.436   2.874   7.006  0.4725  1.6783 -1.6614
28786SOL    HW291170   5.325   2.927   7.094  0.4555 -0.8788 -0.0177
28787SOL     OW91171   2.034   8.846   6.361  0.2614 -0.0239 -0.9727
28787SOL    HW191172   2.077   8.780   6.415  1.3498  0.2283 -1.4964
28787SOL    HW291173   1.952   8.805   6.334  0.0127 -0.4034  0.2904
28788SOL     OW91174   4.325   8.014   4.206 -0.0400 -0.0218 -0.0179
28788SOL    HW191175   4.404   8.067   4.202 -0.4085  0.5684  0.3676
28788SOL    HW291176   4.271   8.045   4.133  0.3534 -0.8864 -0.6984
28789SOL     OW91177   0.374   0.178   8.671  0.5048 -0.1901  0.4587
28789SOL    HW191178   0.297   0.156   8.618 -0.5680 -0.1941  1.9348
28789SOL    HW291179   0.445   0.127   8.633 -0.3158 -0.5200 -0.6928
28790SOL     OW91180  10.787  11.253   4.190  0.2196 -0.3216 -0.1283
28790SOL    HW191181  10.720  11.202   4.235  1.6665 -0.1216  2.4281
28790SOL    HW291182  10.759  11.344   4.198  0.2276 -0.3209 -0.1138
28791SOL     OW91183   2.482   8.289   1.543 -0.1702 -0.3688  0.2058
28791SOL    HW191184   2.487   8.194   1.541  1.0167 -0.3111 -1.3860
28791SOL    HW291185   2.393   8.309   1.515 -1.2608 -0.9944  2.8992
28792SOL     OW91186   1.206   5.371   0.039  0.3330 -0.6195 -0.1326
28792SOL    HW191187   1.246   5.379  -0.048 -1.5112 -3.6623 -1.4064
28792SOL    HW291188   1.238   5.288   0.073  0.7135  0.3404  2.0264
28793SOL     OW91189   3.724   9.291   4.008  0.1705  0.0671  0.3094
28793SOL    HW191190   3.636   9.326   4.001  0.8302  1.7688 -0.0739
28793SOL    HW291191   3.712   9.197   4.020 -1.6557  0.1537 -0.5303
28794SOL     OW91192   0.802  11.043  11.530 -0.5029  0.2486 -0.4295
28794SOL    HW191193   0.816  11.079  11.617  0.4545 -0.0256 -0.4564
28794SOL    HW291194   0.844  10.957  11.532 -1.5250 -0.2892 -0.7955
28795SOL     OW91195  11.738  12.357   1.071  0.7223 -0.0172  0.3971
28795SOL    HW191196  11.691  12.390   0.995  0.2467 -1.7427 -0.1039
28795SOL    HW291197  11.687  12.281   1.100  4.1676 -3.4172 -1.4903
28796SOL     OW91198   1.123   2.285   2.470 -0.0553  0.3545  0.0228
28796SOL    HW191199   1.027   2.292   2.467  0.0278  1.3111 -2.8571
28796SOL    HW291200   1.139   2.207   2.524 -2.4180  0.2027  0.6361
28797SOL     OW91201   8.590   3.530  11.179  0.0898  0.5301  0.0125
28797SOL    HW191202   8.520   3.492  11.125 -0.0191 -0.0169  0.5303
28797SOL    HW291203   8.639   3.455  11.212  0.3912  0.8742  0.3650
28798SOL     OW91204   6.932   1.728  10.635 -0.7189  0.1780 -0.0569
28798SOL    HW191205   6.883   1.645  10.627  1.7263 -1.8092  3.0149
28798SOL    HW291206   6.907   1.761  10.722 -0.2408  1.7090 -0.4858
28799SOL     OW91207   4.158   2.723   1.668  0.0664 -0.2333 -0.2202
28799SOL    HW191208   4.172   2.806   1.622  1.1801 -0.2428  0.0665
28799SOL    HW291209   4.211   2.731   1.747 -0.6490 -0.8153  0.3288
28800SOL     OW91210   2.902  11.151   2.344 -0.6961  0.0801  0.2985
28800SOL    HW191211   2.855  11.159   2.428  0.0092  1.4815  0.6040
28800SOL    HW291212   2.940  11.064   2.346 -1.5455 -0.2946  0.9812
28801SOL     OW91213   8.187  11.958  12.539 -0.5671 -0.2086  0.0818
28801SOL    HW191214   8.128  11.908  12.596 -0.7280 -0.9829 -0.7389
28801SOL    HW291215   8.244  11.892  12.500 -0.3751  0.3275 -0.5544
28802SOL     OW91216  12.616   9.056   5.306  0.1897  0.0116  0.3490
28802SOL    HW191217  12.629   8.987   5.371  0.0019 -0.5592 -0.2054
28802SOL    HW291218  12.662   9.131   5.342  1.3848 -0.7322  0.4386
28803SOL     OW91219  10.411   8.569   3.827 -0.5188 -0.2283 -0.3170
28803SOL    HW191220  10.343   8.630   3.856 -0.9990 -0.8510 -0.1152
28803SOL    HW291221  10.402   8.566   3.732  0.3810  1.0213 -0.4768
28804SOL     OW91222   7.952   6.960   4.256  0.0868 -0.1719 -0.0852
28804SOL    HW191223   8.021   7.025   4.243  0.4759 -0.6952 -0.6856
28804SOL    HW291224   7.878   7.010   4.290  0.8024  0.3777  0.6942
28805SOL     OW91225   8.208   4.433   3.676 -0.1292  0.5048 -0.0759
28805SOL    HW191226   8.115   4.448   3.660 -0.3976  0.4875  1.3149
28805SOL    HW291227   8.249   4.518   3.663 -0.6287  0.9407  1.0912
28806SOL     OW91228   1.782   2.248   1.925  0.4567  0.3841  0.4903
28806SOL    HW191229   1.740   2.298   1.996 -0.2084  1.8618 -0.8626
28806SOL    HW291230   1.777   2.157   1.954  1.6850  1.0393  3.0613
28807SOL     OW91231   9.546   7.671   2.164 -0.9232  0.0247  0.1297
28807SOL    HW191232   9.584   7.719   2.237  3.6535 -0.0658 -1.8434
28807SOL    HW291233   9.521   7.738   2.101 -1.3078 -0.0149  0.2357
28808SOL     OW91234  11.070  10.866   8.229 -0.2126  0.3689  0.2277
28808SOL    HW191235  11.059  10.785   8.277  0.2652  0.0388 -0.2097
28808SOL    HW291236  11.140  10.912   8.276 -1.1664  1.0030  1.0804
28809SOL     OW91237   7.755  11.292   9.857 -0.3423 -0.0931 -0.0608
28809SOL    HW191238   7.719  11.220   9.908 -0.3019 -0.3158 -0.3429
28809SOL    HW291239   7.750  11.262   9.766  0.3524 -0.0423 -0.1242
28810SOL     OW91240   0.330  11.341   0.575  0.4549 -0.2249 -0.3076
28810SOL    HW191241   0.379  11.346   0.493  1.1614  0.1549  0.1295
28810SOL    HW291242   0.335  11.429   0.611  0.8286 -0.5825  0.5313
28811SOL     OW91243   2.793   4.983   7.447  0.1190  0.1745 -0.7425
28811SOL    HW191244   2.818   4.891   7.438 -1.6270 -0.1598 -3.2934
28811SOL    HW291245   2.799   5.001   7.541  0.6309 -2.5018 -0.1978
28812SOL     OW91246   9.992   9.876  11.192  0.1486 -0.2815  0.0141
28812SOL    HW191247   9.994   9.813  11.120  1.8001 -0.8968  0.5582
28812SOL    HW291248   9.951   9.954  11.154 -1.2466 -1.4162 -0.8707
28813SOL     OW91249   8.043   2.017  12.347  0.0044  0.1610 -0.1787
28813SOL    HW191250   8.000   2.083  12.292 -2.1752 -2.1426 -1.4548
28813SOL    HW291251   8.026   2.046  12.437 -1.1254  1.1903 -0.6948
28814SOL     OW91252   9.380  11.279   1.217  0.0331  1.1141  0.5994
28814SOL    HW191253   9.461  11.308   1.175 -0.1613  0.7491 -0.0585
28814SOL    HW291254   9.323  11.356   1.218 -0.2907  0.9123 -0.6521
28815SOL     OW91255   8.961  10.287  11.160  0.0318  0.3411 -0.3591
28815SOL    HW191256   8.878  10.271  11.114  0.7171 -1.2615 -1.1082
28815SOL    HW291257   9.028  10.258  11.099  1.1191  0.7839  0.5948
28816SOL     OW91258   8.963   8.450   2.002  0.1895 -0.1475 -0.4529
28816SOL    HW191259   8.922   8.392   2.066  0.2643  1.1102  0.8050
28816SOL    HW291260   8.996   8.392   1.934 -2.5014 -1.3361 -0.8899
28817SOL     OW91261   2.766   1.745   5.307  0.2345 -0.5451  0.2638
28817SOL    HW191262   2.729   1.827   5.273 -0.7310 -1.8341 -2.0178
28817SOL    HW291263   2.848   1.734   5.259 -0.4375 -1.6743 -0.6855
28818SOL     OW91264   0.179   5.052   7.156  0.3931  0.5538  0.3966
28818SOL    HW191265   0.211   5.058   7.066 -2.9762  0.5402 -0.9658
28818SOL    HW291266   0.221   5.125   7.202 -0.6379  3.0069 -2.2607
28819SOL     OW91267  12.338   6.887   0.059 -0.2751  0.3900  0.0851
28819SOL    HW191268  12.325   6.957  -0.004  0.0470 -0.0956 -0.5348
28819SOL    HW291269  12.424   6.852   0.038 -0.6163 -0.4780  0.0910
28820SOL     OW91270   3.095   3.319   6.371 -0.0713 -0.2121 -0.0898
28820SOL    HW191271   3.101   3.401   6.323 -0.6474 -0.1368 -0.0476
28820SOL    HW291272   3.074   3.344   6.461  0.0815 -0.3883 -0.0043
28821SOL     OW91273   6.187   9.166  11.883 -0.4582  0.5943 -0.0094
28821SOL    HW191274   6.101   9.160  11.924 -0.6051  1.8262 -0.0888
28821SOL    HW291275   6.220   9.252  11.910  0.5914  0.2924 -0.2789
28822SOL     OW91276   9.247  12.584  12.628 -0.0636  0.4267 -0.1193
28822SOL    HW191277   9.266  12.544  12.713 -0.4108  1.0263  0.2475
28822SOL    HW291278   9.163  12.548  12.602  0.0294  0.2645 -0.1946
28823SOL     OW91279   1.130  11.820   4.492  0.1232  0.1982  0.3354
28823SOL    HW191280   1.147  11.749   4.429 -0.2661 -0.1863  0.6566
28823SOL    HW291281   1.115  11.897   4.438  2.4344  0.4944  0.0041
28824SOL     OW91282   5.517  12.645   5.690 -0.2656 -0.0181  0.0907
28824SOL    HW191283   5.458  12.624   5.617 -1.3400  0.2598  0.8535
28824SOL    HW291284   5.561  12.562   5.710 -0.9379 -0.4094 -0.0227
28825SOL     OW91285   7.089   4.707  11.649 -0.0653  0.1658  0.3071
28825SOL    HW191286   7.019   4.741  11.705  1.2645  3.7776  0.0141
28825SOL    HW291287   7.164   4.697  11.706  0.6559  1.6801 -0.3101
28826SOL     OW91288   1.936  10.404   6.168 -0.6053 -0.2111 -0.0843
28826SOL    HW191289   1.938  10.312   6.195  1.4451 -0.4353 -0.8329
28826SOL    HW291290   2.028  10.427   6.154 -1.1308  1.7576 -0.5927
28827SOL     OW91291   6.409   9.157   5.742  0.1266 -0.5086 -0.4262
28827SOL    HW191292   6.425   9.076   5.692 -0.1518  0.2029 -1.7099
28827SOL    HW291293   6.496   9.197   5.751  0.0490 -0.1488 -1.2207
28828SOL     OW91294   1.559   0.159  10.530 -0.2866 -0.0530 -0.1207
28828SOL    HW191295   1.596   0.192  10.612 -1.5116 -0.2785  0.5393
28828SOL    HW291296   1.601   0.074  10.517  1.0900  0.6634 -0.5773
28829SOL     OW91297  10.790  11.850   0.943  0.1222  0.2419  0.5214
28829SOL    HW191298  10.797  11.856   1.039  1.3437  1.2991  0.3917
28829SOL    HW291299  10.706  11.807   0.928  0.1340 -0.4106  2.0818
28830SOL     OW91300   4.151   0.973   8.286 -0.0337 -0.2434 -0.2798
28830SOL    HW191301   4.202   0.893   8.298 -0.2286 -0.2072  0.8491
28830SOL    HW291302   4.216   1.044   8.295  0.5616 -0.2441 -3.3198
28831SOL     OW91303   7.312  10.325   8.354 -0.2816  0.1550  0.2984
28831SOL    HW191304   7.396  10.294   8.318 -0.3314 -0.0692  0.3742
28831SOL    HW291305   7.287  10.397   8.297  0.5007  0.9274  0.9096
28832SOL     OW91306   1.344  10.003   1.123  0.0478  0.0952 -0.2272
28832SOL    HW191307   1.433  10.038   1.126 -0.5006  1.6111 -0.9190
28832SOL    HW291308   1.332   9.977   1.032  0.7218 -2.7891  0.4091
28833SOL     OW91309   6.475   7.177  12.259 -0.2549  0.6797 -0.1011
28833SOL    HW191310   6.560   7.218  12.239 -0.9472  2.1687 -0.1072
28833SOL    HW291311   6.410   7.237  12.223 -1.4109  1.0245  2.3291
28834SOL     OW91312   3.798   4.093   8.626  0.4258  0.2382  0.0929
28834SOL    HW191313   3.797   4.025   8.694 -1.5835  0.8511  0.7346
28834SOL    HW291314   3.744   4.058   8.556 -1.7731  1.6262  0.9855
28835SOL     OW91315  10.995   4.433  12.370  0.4308  0.1227  0.0319
28835SOL    HW191316  11.046   4.397  12.297 -0.3916 -1.1040  0.0423
28835SOL    HW291317  11.003   4.368  12.439 -0.3841  0.3563  0.3526
28836SOL     OW91318  11.286   6.153   8.786 -0.4690 -0.2950 -0.6969
28836SOL    HW191319  11.365   6.098   8.792 -0.3222 -0.0825 -0.6603
28836SOL    HW291320  11.220   6.105   8.836 -0.3719 -0.4909 -0.7544
28837SOL     OW91321   3.329   0.099   4.096 -0.2849 -0.2433  0.5081
28837SOL    HW191322   3.265   0.168   4.108 -0.0795 -0.0466  0.4801
28837SOL    HW291323   3.286   0.020   4.129 -0.0686  0.1156  1.7112
28838SOL     OW91324  10.994  12.029  12.404  0.1992  0.1036  0.0701
28838SOL    HW191325  10.924  11.989  12.351  1.1870 -0.1620 -1.0849
28838SOL    HW291326  11.011  12.113  12.360  0.4418  0.2733  0.4879
28839SOL     OW91327   6.216   6.114  11.926 -0.3176  0.3101  0.5065
28839SOL    HW191328   6.141   6.173  11.929 -0.4142  0.2608 -0.5564
28839SOL    HW291329   6.230   6.088  12.017 -0.7988  1.3044  0.8803
28840SOL     OW91330   3.308   0.389  10.515 -0.4551 -0.6610 -0.6168
28840SOL    HW191331   3.296   0.393  10.420  4.2268  0.8204 -1.4493
28840SOL    HW291332   3.344   0.302  10.531  1.6277  0.1015 -0.8265
28841SOL     OW91333   1.684   8.172  11.714 -0.5491  0.6475  0.0890
28841SOL    HW191334   1.709   8.102  11.654 -1.3374 -0.5014  1.0640
28841SOL    HW291335   1.625   8.228  11.662  0.5181  0.9246 -0.8564
28842SOL     OW91336   6.028   2.605   1.685  0.0169  0.1603  0.0397
28842SOL    HW191337   6.093   2.535   1.678  0.0760  0.2170  0.0143
28842SOL    HW291338   5.996   2.616   1.596 -1.2029 -0.9687  0.3120
28843SOL     OW91339   2.951   1.568   7.523 -0.1007 -0.0662 -0.2500
28843SOL    HW191340   2.938   1.481   7.560  0.8379  0.7888  2.2611
28843SOL    HW291341   2.917   1.628   7.589  0.1233  1.5290 -1.5161
28844SOL     OW91342   3.939   7.527   2.663 -0.4960 -0.3829 -0.6986
28844SOL    HW191343   3.940   7.555   2.572  0.9863 -0.2807 -0.6724
28844SOL    HW291344   3.990   7.593   2.710 -1.4984 -0.2594  0.2754
28845SOL     OW91345   6.385   6.946   8.535  0.1914  0.5993 -0.1973
28845SOL    HW191346   6.290   6.956   8.543 -0.0908 -1.6859  0.1683
28845SOL    HW291347   6.400   6.933   8.441 -0.2716 -1.7779 -0.0059
28846SOL     OW91348   4.194   8.754   9.188 -0.0789  0.2803  0.7009
28846SOL    HW191349   4.147   8.756   9.105  0.6950  0.6569  0.2595
28846SOL    HW291350   4.187   8.664   9.218  0.3384 -0.0488 -0.1858
28847SOL     OW91351   4.063   4.528   5.496  0.2845  0.5826 -0.1349
28847SOL    HW191352   3.996   4.471   5.459  0.0282  1.5816 -1.2479
28847SOL    HW291353   4.116   4.470   5.551 -0.9623 -0.3869  0.0790
28848SOL     OW91354   1.987   5.663   0.380 -0.1629  0.6311 -0.2786
28848SOL    HW191355   2.024   5.589   0.427  0.3072  2.6650  2.8447
28848SOL    HW291356   1.909   5.629   0.338  0.9127 -1.9606 -0.3429
28849SOL     OW91357   3.302   8.008   2.222  0.0759  0.1260 -0.3060
28849SOL    HW191358   3.318   8.015   2.127 -0.4028 -0.9484 -0.4856
28849SOL    HW291359   3.389   7.993   2.259  0.1744 -0.3051 -0.6844
28850SOL     OW91360   0.667  10.659   5.199 -0.4851  0.0345  0.2043
28850SOL    HW191361   0.714  10.705   5.129  1.4780 -1.7934  0.2071
28850SOL    HW291362   0.687  10.709   5.278  0.3320  0.0790 -0.0168
28851SOL     OW91363  11.581   9.074   3.857  0.4724 -0.1005 -0.3588
28851SOL    HW191364  11.503   9.033   3.895  0.6260 -1.5326 -1.5104
28851SOL    HW291365  11.610   9.136   3.924 -1.7465  0.6162  0.0342
28852SOL     OW91366   3.359  11.208   8.891  0.0781  0.1819  0.3518
28852SOL    HW191367   3.280  11.159   8.871  0.8190 -1.3488  1.0024
28852SOL    HW291368   3.386  11.176   8.978  0.4330  1.9741  0.9472
28853SOL     OW91369   0.444   8.051  11.781  0.3160  0.1415 -0.0428
28853SOL    HW191370   0.363   8.096  11.759  1.3415  1.9209 -0.4300
28853SOL    HW291371   0.471   8.008  11.699 -0.5059 -0.9678  0.2440
28854SOL     OW91372   0.294   9.947   0.317  0.2431 -0.5085  0.5686
28854SOL    HW191373   0.325   9.954   0.227 -0.6169 -0.4820  0.2649
28854SOL    HW291374   0.201   9.925   0.309  0.3654 -1.4467  1.4576
28855SOL     OW91375   5.112   9.034   8.694 -0.4043 -0.2434 -0.1181
28855SOL    HW191376   5.033   8.982   8.702 -0.2623 -0.5076 -0.4112
28855SOL    HW291377   5.133   9.062   8.783 -0.5841 -0.5320  0.0132
28856SOL     OW91378   6.036   2.988  10.304 -0.3037  0.2156  0.2308
28856SOL    HW191379   5.943   2.968  10.313 -0.1100 -0.3739  1.0178
28856SOL    HW291380   6.042   3.082  10.320 -0.8905  0.4543 -0.8803
28857SOL     OW91381   3.150   5.823  11.334 -0.0395  0.1389  0.2449
28857SOL    HW191382   3.078   5.773  11.372  0.1131 -0.6568 -0.4892
28857SOL    HW291383   3.108   5.882  11.272 -0.0559 -0.4019 -0.2634
28858SOL     OW91384   9.290   6.142   1.118  0.2327  0.6201 -0.0163
28858SOL    HW191385   9.342   6.131   1.197 -0.5821 -0.6116  0.3855
28858SOL    HW291386   9.242   6.224   1.132  0.2539  0.5217  0.6792
28859SOL     OW91387   4.335  10.482  10.339 -0.2381 -0.1622  0.1519
28859SOL    HW191388   4.262  10.520  10.389 -1.0639 -0.6271 -0.6709
28859SOL    HW291389   4.301  10.473  10.250  0.2998 -1.8002  0.0754
28860SOL     OW91390   6.272   8.694   8.800  0.0508 -0.2573  0.6062
28860SOL    HW191391   6.229   8.779   8.804  0.2581 -0.0449 -1.1092
28860SOL    HW291392   6.361   8.710   8.831  0.9050  0.7627 -2.1310
28861SOL     OW91393   0.190   7.994   6.159  0.5339  0.4432  0.2933
28861SOL    HW191394   0.096   7.977   6.157  0.7993 -1.2059 -0.1056
28861SOL    HW291395   0.202   8.074   6.109 -0.5360  0.0091 -0.6955
28862SOL     OW91396   9.093   2.141   6.824 -0.0008  0.4621  0.5766
28862SOL    HW191397   9.071   2.226   6.787  1.2891  0.6926  0.2923
28862SOL    HW291398   9.181   2.122   6.791 -1.1701 -2.1487 -1.4566
28863SOL     OW91399  11.108   3.567   6.719 -0.5386 -0.1335 -0.5149
28863SOL    HW191400  11.027   3.554   6.767  1.0401 -3.2468  1.6986
28863SOL    HW291401  11.166   3.611   6.781  0.3633 -0.6372 -0.9756
28864SOL     OW91402   8.339   9.226   2.809  0.5856  0.1140 -0.3897
28864SOL    HW191403   8.245   9.228   2.829  0.2026 -0.4127 -1.9902
28864SOL    HW291404   8.354   9.304   2.756  1.2171  0.5663  0.4270
28865SOL     OW91405   6.745  11.872  10.932  0.4156 -0.5069 -0.0232
28865SOL    HW191406   6.666  11.902  10.976  1.7844  0.8206  1.6875
28865SOL    HW291407   6.718  11.858  10.841 -1.4266  1.4954  0.1216
28866SOL     OW91408   4.080  10.952  10.497  0.3561  0.1947 -0.0806
28866SOL    HW191409   4.147  10.958  10.428  0.5971 -0.4606  0.0883
28866SOL    HW291410   4.015  11.019  10.473  2.2029  2.5128  1.0385
28867SOL     OW91411   7.457   5.249   8.879 -0.1720 -0.0606  0.4912
28867SOL    HW191412   7.385   5.222   8.936 -0.2537  0.5018  0.6570
28867SOL    HW291413   7.414   5.289   8.803 -0.0754 -1.1421 -0.1504
28868SOL     OW91414   9.439   8.566  11.915 -0.0818 -0.2173 -0.2967
28868SOL    HW191415   9.370   8.505  11.941 -2.2474  2.0470 -0.4074
28868SOL    HW291416   9.486   8.521  11.845 -2.1428 -1.4205 -0.9831
28869SOL     OW91417  11.802   7.167   1.512  0.7643  0.4645  0.3183
28869SOL    HW191418  11.707   7.177   1.505  0.4641 -1.7214  0.5563
28869SOL    HW291419  11.833   7.169   1.421  0.2784 -0.4582  0.1260
28870SOL     OW91420   9.512   5.450   0.756 -0.2796  0.4366  0.6342
28870SOL    HW191421   9.563   5.523   0.792 -0.3205  0.6050  0.3558
28870SOL    HW291422   9.472   5.485   0.676 -0.3805  0.1395  0.5498
28871SOL     OW91423  12.082   9.883   8.968  0.2213 -0.2303  0.1824
28871SOL    HW191424  12.171   9.874   8.932  0.0623 -0.2096 -0.2161
28871SOL    HW291425  12.033   9.812   8.929  0.0223 -0.1467  0.2811
28872SOL     OW91426  10.035   2.331   1.337  0.1268  0.1546 -0.3925
28872SOL    HW191427   9.951   2.288   1.351  0.2390  0.0884  0.0888
28872SOL    HW291428  10.082   2.320   1.420 -0.5294  2.7596  0.4150
28873SOL     OW91429   0.359   2.828   1.902  0.2496  0.2153 -0.1932
28873SOL    HW191430   0.448   2.863   1.900  0.0943  1.2243  3.7490
28873SOL    HW291431   0.364   2.752   1.960 -1.6185  0.9030  0.9362
28874SOL     OW91432   5.773   4.697   7.422 -0.0081  0.2471 -0.5707
28874SOL    HW191433   5.796   4.627   7.483  0.8781  0.9767 -0.0506
28874SOL    HW291434   5.784   4.777   7.472  0.8697  0.8679 -1.7260
28875SOL     OW91435   3.982   3.637  10.365  0.0663  0.2453 -0.0993
28875SOL    HW191436   3.951   3.680  10.445 -0.2424 -0.3932  0.1363
28875SOL    HW291437   3.935   3.553  10.364 -0.3727  0.4898 -1.2529
28876SOL     OW91438   6.571   5.908  11.660 -0.3565  0.3328  0.1211
28876SOL    HW191439   6.487   5.883  11.699 -1.4447  2.0314 -0.9533
28876SOL    HW291440   6.558   5.893  11.566  0.6070  0.4805 -0.0395
28877SOL     OW91441   0.954   1.034  10.897  0.6062 -0.5896 -0.4240
28877SOL    HW191442   0.965   1.107  10.836  0.3572 -1.8959 -2.1089
28877SOL    HW291443   0.867   0.999  10.877  0.4329 -0.9377  0.8445
28878SOL     OW91444   2.267   4.554  10.913 -0.0002  0.2117  0.1539
28878SOL    HW191445   2.293   4.562  11.005  0.8856  1.4035 -0.1710
28878SOL    HW291446   2.222   4.636  10.894 -0.1064  0.0075 -0.5018
28879SOL     OW91447   3.987  11.709  10.211  0.4036  0.3473  0.7766
28879SOL    HW191448   3.943  11.794  10.210  2.2321  1.3704 -1.3388
28879SOL    HW291449   4.056  11.719  10.278  0.8237  0.6639  0.3027
28880SOL     OW91450   7.825   2.937   2.290 -0.5396 -0.4265  0.0085
28880SOL    HW191451   7.892   2.974   2.231 -0.6014 -1.4310 -0.7246
28880SOL    HW291452   7.859   2.850   2.312 -2.2102 -1.5432 -1.4975
28881SOL     OW91453  12.033  10.679   1.121  0.5570  0.7355  0.5052
28881SOL    HW191454  11.956  10.735   1.109 -0.5331 -1.0047 -1.1466
28881SOL    HW291455  12.013  10.628   1.200  0.3144  0.7189  0.4337
28882SOL     OW91456   7.357   0.142   8.304 -0.3162 -0.2423  0.5667
28882SOL    HW191457   7.324   0.053   8.312  2.1501 -1.1849  1.1937
28882SOL    HW291458   7.365   0.173   8.395 -0.5559  0.3835  0.3810
28883SOL     OW91459   4.644   7.252   2.270 -0.0223 -0.1917 -0.8214
28883SOL    HW191460   4.648   7.157   2.282 -1.0813 -0.3669 -1.6958
28883SOL    HW291461   4.695   7.288   2.342 -2.2650 -1.3132  1.4668
28884SOL     OW91462   4.304   0.166  10.981  0.2067 -0.2339 -0.2717
28884SOL    HW191463   4.361   0.225  10.932 -0.6112 -0.2472 -1.2643
28884SOL    HW291464   4.286   0.212  11.063  0.5741  0.3480 -0.5140
28885SOL     OW91465   2.513   0.995  10.919 -0.3703  0.0595 -0.4999
28885SOL    HW191466   2.506   0.900  10.931 -0.2830 -0.1167 -1.6701
28885SOL    HW291467   2.435   1.031  10.962 -0.4442 -0.5444 -0.1197
28886SOL     OW91468  12.192   6.857  11.233  0.0497 -0.3865 -0.6624
28886SOL    HW191469  12.216   6.818  11.149  1.6686 -1.3133  0.1722
28886SOL    HW291470  12.177   6.783  11.291 -2.7400  0.2048 -0.4821
28887SOL     OW91471   8.259   6.778   4.104  0.3125  0.1045  0.4056
28887SOL    HW191472   8.322   6.711   4.075 -0.9140 -1.9571  2.2133
28887SOL    HW291473   8.207   6.798   4.026  2.0338  0.5841 -0.6863
28888SOL     OW91474   4.698   3.338   2.024 -0.1949 -0.7934 -0.4158
28888SOL    HW191475   4.722   3.249   1.996 -2.0527 -1.9742  1.4758
28888SOL    HW291476   4.750   3.353   2.102  1.9408  0.8652 -2.0304
28889SOL     OW91477   1.467   3.594   4.983  0.1092  0.3576  0.3645
28889SOL    HW191478   1.559   3.595   5.009 -0.3161 -1.6039  2.2244
28889SOL    HW291479   1.435   3.682   5.003  1.2331  0.6456  0.9903
28890SOL     OW91480   9.538  12.563  11.975 -0.1355 -0.2484 -0.1522
28890SOL    HW191481   9.543  12.623  12.049  0.0778 -1.7213  1.0672
28890SOL    HW291482   9.615  12.507  11.985 -0.4096 -0.8319 -1.1830
28891SOL     OW91483   0.964   0.054   6.243  0.5538 -0.1411 -0.9622
28891SOL    HW191484   0.928  -0.011   6.304  1.2204  0.0932 -0.3137
28891SOL    HW291485   0.990   0.002   6.166  0.9687 -0.6320 -0.4987
28892SOL     OW91486  11.286   9.828   6.089  0.1839 -0.2148  0.0308
28892SOL    HW191487  11.302   9.783   6.006  1.3321  0.5106 -0.1707
28892SOL    HW291488  11.299   9.921   6.069 -1.6198  0.1851  0.5529
28893SOL     OW91489  11.174  11.990   1.047  0.3118  0.4222 -0.4297
28893SOL    HW191490  11.205  11.992   1.138 -3.1876  1.6598  0.8975
28893SOL    HW291491  11.132  11.904   1.039  1.4469 -0.0781 -1.2590
28894SOL     OW91492   6.148   6.986   1.594 -0.8780  0.2232  0.3930
28894SOL    HW191493   6.082   6.988   1.525 -1.1471 -1.5931  0.5348
28894SOL    HW291494   6.183   7.075   1.597  0.2402  0.0495 -3.1478
28895SOL     OW91495   1.883  12.395   1.290 -0.1207  0.3105 -0.4234
28895SOL    HW191496   1.933  12.423   1.214  0.9986  1.6542  0.7458
28895SOL    HW291497   1.813  12.461   1.298 -0.9429 -0.4761 -0.9328
28896SOL     OW91498  12.507   7.765   6.729  0.2060  0.2162 -0.6147
28896SOL    HW191499  12.454   7.687   6.744 -1.4827  1.4063 -0.2091
28896SOL    HW291500  12.478   7.827   6.796  0.1285  1.8731 -2.1342
28897SOL     OW91501   3.280   0.671  10.323 -0.4176  0.0823  0.2707
28897SOL    HW191502   3.209   0.735  10.317  0.1662  0.7103 -0.0977
28897SOL    HW291503   3.309   0.676  10.414 -0.2972  0.4387  0.2161
28898SOL     OW91504   8.532   7.325   0.997  0.2300 -0.5409 -0.1456
28898SOL    HW191505   8.567   7.352   0.912  2.6719 -1.7882  0.3762
28898SOL    HW291506   8.551   7.231   1.002 -1.4378 -0.8598  1.0953
28899SOL     OW91507   5.045   5.780   8.342  0.8609  0.3934  0.1733
28899SOL    HW191508   5.083   5.709   8.394 -0.9216  0.9605  2.4103
28899SOL    HW291509   5.016   5.737   8.262  0.2523 -1.3709  1.2753
28900SOL     OW91510  10.770  10.693   7.893 -0.2213 -0.0979 -0.1936
28900SOL    HW191511  10.707  10.735   7.953  0.0967  1.5513 -0.9525
28900SOL    HW291512  10.716  10.661   7.821 -0.3264  0.1637 -0.2321
28901SOL     OW91513   9.550   2.918   5.540 -0.3533 -0.0636 -0.2532
28901SOL    HW191514   9.576   2.870   5.618 -2.0944  0.4705  0.7096
28901SOL    HW291515   9.577   3.008   5.557 -1.2375  0.1594 -0.0117
28902SOL     OW91516   0.586   9.860  10.645  0.0590 -0.0216 -0.4770
28902SOL    HW191517   0.628   9.946  10.648  0.1190 -0.0768  0.4905
28902SOL    HW291518   0.659   9.798  10.644  0.0398 -0.1113  1.0082
28903SOL     OW91519   6.608   5.183   0.095 -0.1039  0.6747  0.2148
28903SOL    HW191520   6.552   5.235   0.038 -0.3583  1.3133  1.0411
28903SOL    HW291521   6.547   5.133   0.149  0.1396  0.3099  0.1612
28904SOL     OW91522   8.521   9.751   7.998 -0.3607  0.0024 -0.5542
28904SOL    HW191523   8.560   9.789   8.077 -0.8303 -1.9451  0.6740
28904SOL    HW291524   8.458   9.686   8.031 -0.5849 -0.8387 -2.5239
28905SOL     OW91525   4.652   6.979  10.598  0.7970  0.5480  0.3329
28905SOL    HW191526   4.621   7.067  10.619  0.3554  0.7032 -0.8999
28905SOL    HW291527   4.586   6.921  10.635  1.0750  0.7268  1.1262
28906SOL     OW91528   3.729   8.538   3.646 -0.0445  0.2586 -0.2190
28906SOL    HW191529   3.658   8.559   3.586 -0.9840 -1.9350  0.0450
28906SOL    HW291530   3.800   8.506   3.589 -0.4400 -0.5253 -0.2877
28907SOL     OW91531   4.662   8.659   9.463 -0.7757  0.2813 -0.0597
28907SOL    HW191532   4.744   8.611   9.457 -0.3029  0.9793  0.5784
28907SOL    HW291533   4.622   8.629   9.545 -0.6554  0.6839  0.1530
28908SOL     OW91534   5.737   7.992  10.110 -0.5828 -0.4271  0.4622
28908SOL    HW191535   5.651   8.026  10.083 -0.0684  0.4748 -0.0795
28908SOL    HW291536   5.774   8.062  10.164 -0.2777 -0.9148  0.8909
28909SOL     OW91537   0.173   6.116   3.315 -0.0174  0.9946 -0.0420
28909SOL    HW191538   0.192   6.103   3.222  2.7471  0.3655  0.5137
28909SOL    HW291539   0.124   6.038   3.341  1.0183  0.1351 -0.5738
28910SOL     OW91540   6.307   1.364   9.869  0.0324 -0.2029 -0.1652
28910SOL    HW191541   6.374   1.411   9.918 -0.2022 -1.6158  1.6168
28910SOL    HW291542   6.340   1.274   9.863 -1.3946 -0.7856  0.2311
28911SOL     OW91543   6.801   0.217   3.089  0.6396 -0.2448 -0.1223
28911SOL    HW191544   6.709   0.195   3.073  0.6077  1.2341 -2.5663
28911SOL    HW291545   6.838   0.139   3.129 -2.1243 -0.1243  3.1564
28912SOL     OW91546   2.047   6.816   8.105  0.3674  0.4399  0.4063
28912SOL    HW191547   2.036   6.777   8.192 -0.0349 -1.8548 -0.5808
28912SOL    HW291548   2.141   6.829   8.097  0.5988 -0.8666  0.6378
28913SOL     OW91549   3.953   7.165   9.189  0.0513  0.2898  0.1318
28913SOL    HW191550   3.972   7.166   9.282 -1.5807  0.6203  0.4934
28913SOL    HW291551   3.884   7.231   9.178  1.3367  1.4506 -1.5668
28914SOL     OW91552  10.602   0.350  11.349  0.0206 -0.5041  0.3785
28914SOL    HW191553  10.541   0.280  11.328 -0.3854 -0.5306  1.5770
28914SOL    HW291554  10.686   0.319  11.315 -0.2762 -1.2973  0.3523
28915SOL     OW91555   3.335   4.339   6.748 -0.7437 -0.5189  0.1405
28915SOL    HW191556   3.307   4.411   6.805  0.0814 -0.6115  0.6859
28915SOL    HW291557   3.365   4.381   6.668  3.6523  0.2253  1.9299
28916SOL     OW91558   6.014   1.857   4.839 -0.0525  0.0833 -0.1398
28916SOL    HW191559   6.087   1.876   4.780  0.8139 -0.5943  0.6949
28916SOL    HW291560   5.995   1.941   4.881 -0.1372  0.3891 -0.7742
28917SOL     OW91561   9.844   6.202   8.135 -0.7136  0.0960  0.4397
28917SOL    HW191562   9.859   6.108   8.124  0.2735  0.2012  0.7847
28917SOL    HW291563   9.813   6.231   8.050 -1.0175 -0.5421  0.3272
28918SOL     OW91564   8.869   9.366  12.224  0.0778 -0.3200  0.1387
28918SOL    HW191565   8.824   9.347  12.306 -0.1142 -0.3897  0.0188
28918SOL    HW291566   8.880   9.461  12.225  1.7759 -0.4807  1.1136
28919SOL     OW91567  11.095   8.201   2.390  0.0575 -0.1803  0.4514
28919SOL    HW191568  11.112   8.260   2.317  0.8041  0.5772  1.2135
28919SOL    HW291569  11.176   8.152   2.401  0.5210  0.8331  1.7570
28920SOL     OW91570   4.850   0.868   4.068 -0.4588  0.0070 -0.0746
28920SOL    HW191571   4.773   0.813   4.053 -0.4509 -0.8323  2.4377
28920SOL    HW291572   4.922   0.806   4.080  0.4851  0.7625 -1.5396
28921SOL     OW91573  10.794   6.027  12.455  0.3732  0.0223 -0.2217
28921SOL    HW191574  10.717   6.014  12.510  0.6591  1.5621  0.5798
28921SOL    HW291575  10.818   6.118  12.468  2.4259 -0.4567 -0.3538
28922SOL     OW91576  10.211   3.775   5.791 -0.2037  0.3493  0.2594
28922SOL    HW191577  10.241   3.834   5.860  0.7786 -0.1678  0.2881
28922SOL    HW291578  10.216   3.688   5.830 -0.9916  0.1759 -0.0062
28923SOL     OW91579   7.742   8.457  11.973  0.4056 -0.1249  0.3129
28923SOL    HW191580   7.688   8.486  11.900  1.2069 -1.5199 -0.8872
28923SOL    HW291581   7.697   8.379  12.007  0.0920  0.4541  1.2805
28924SOL     OW91582   3.706   4.725   7.610  0.0517 -0.3251 -0.3287
28924SOL    HW191583   3.612   4.740   7.607  0.0536 -0.1290  0.4651
28924SOL    HW291584   3.744   4.811   7.593  0.0705  0.0485  1.4590
28925SOL     OW91585   2.799   6.659  11.150  0.2089 -0.7320 -0.2146
28925SOL    HW191586   2.873   6.707  11.186 -0.7003  0.4494  0.1575
28925SOL    HW291587   2.819   6.650  11.057 -0.0017  1.2606 -0.5066
28926SOL     OW91588   8.616   8.782   0.024  0.3388  0.0671  0.1547
28926SOL    HW191589   8.637   8.784  -0.070 -0.6143 -0.9950 -0.1110
28926SOL    HW291590   8.613   8.874   0.050  2.1749  0.3493 -0.4686
28927SOL     OW91591   9.434   7.904   7.113  0.5384  0.8162 -0.0982
28927SOL    HW191592   9.514   7.955   7.123  0.9340  0.0716  0.5652
28927SOL    HW291593   9.364   7.969   7.112  0.8978  1.3285  2.2250
28928SOL     OW91594   6.727   0.119   1.119  0.2508 -0.1621  0.2120
28928SOL    HW191595   6.700   0.211   1.125  0.0503 -0.1057 -1.2209
28928SOL    HW291596   6.774   0.102   1.201 -0.6496  0.8989  0.9685
28929SOL     OW91597   9.137   3.421   7.238  0.4138 -0.1303  0.0615
28929SOL    HW191598   9.069   3.469   7.287 -0.5828 -2.5852  1.2621
28929SOL    HW291599   9.116   3.437   7.146  0.7024  2.4136  0.3671
28930SOL     OW91600   4.310  11.422   3.492 -0.2130 -0.4706  0.0542
28930SOL    HW191601   4.297  11.397   3.583 -0.9073 -0.8572 -0.1378
28930SOL    HW291602   4.379  11.487   3.494  0.7905 -1.5207  0.7136
28931SOL     OW91603   5.164   7.485   7.899 -0.2846  0.2591  0.3133
28931SOL    HW191604   5.152   7.565   7.948  1.5956  0.5353  0.4117
28931SOL    HW291605   5.098   7.424   7.934 -0.7262  1.2746  1.2845
28932SOL     OW91606   7.642   0.402  10.252 -0.3174 -0.1486 -0.3956
28932SOL    HW191607   7.732   0.399  10.283 -0.6372  0.0221  0.6230
28932SOL    HW291608   7.648   0.428  10.160  0.6607  0.0031 -0.2958
28933SOL     OW91609   3.628  10.888   9.480  0.0059  0.1041  0.2994
28933SOL    HW191610   3.695  10.927   9.537 -0.8637  2.0844  0.0586
28933SOL    HW291611   3.553  10.947   9.489 -0.5350 -0.1622 -2.0345
28934SOL     OW91612   2.590   3.599  12.103 -0.0014  0.0183  0.5630
28934SOL    HW191613   2.678   3.600  12.064 -0.3412  0.4433 -0.2092
28934SOL    HW291614   2.577   3.689  12.134  0.1569 -0.2457  1.4452
28935SOL     OW91615   9.584  10.130   9.731  0.2252  0.2208  0.5862
28935SOL    HW191616   9.615  10.110   9.820 -0.4337  0.0771  0.7940
28935SOL    HW291617   9.533  10.052   9.706 -0.4939  0.7088  0.5134
28936SOL     OW91618  12.452   9.336   1.177 -0.0815  0.3059 -0.2461
28936SOL    HW191619  12.511   9.369   1.109  2.5707 -2.5916  0.4475
28936SOL    HW291620  12.464   9.397   1.250  0.5104  0.8828 -0.8048
28937SOL     OW91621   0.604   9.847   3.208  0.0877 -0.0058  0.0348
28937SOL    HW191622   0.549   9.923   3.226  1.6073  1.6236 -1.7214
28937SOL    HW291623   0.583   9.823   3.117  1.3350 -0.1287 -0.2472
28938SOL     OW91624   3.426   3.214   9.601 -0.7375 -0.1730  0.4057
28938SOL    HW191625   3.442   3.224   9.507 -3.0070  1.7877  0.1375
28938SOL    HW291626   3.399   3.122   9.610 -1.6674 -0.0925 -1.0971
28939SOL     OW91627   5.424  11.722  10.337  0.8978  0.0812 -0.4135
28939SOL    HW191628   5.343  11.759  10.372  0.4606 -0.3124 -0.9797
28939SOL    HW291629   5.489  11.790  10.348  0.0454  1.1563 -1.7083
28940SOL     OW91630  11.841   5.194   9.897  0.1731  0.1115  0.2196
28940SOL    HW191631  11.868   5.205   9.805  0.7203 -0.1006  0.3515
28940SOL    HW291632  11.755   5.153   9.891 -0.4029  1.3112 -0.2166
28941SOL     OW91633   6.205  12.255   9.140  0.1688  0.2242  0.0316
28941SOL    HW191634   6.141  12.306   9.189  1.9250  0.8129  1.8494
28941SOL    HW291635   6.153  12.195   9.087 -1.8683  0.9042  1.1647
28942SOL     OW91636   0.254   5.400   7.532  0.4445  0.2898 -0.1117
28942SOL    HW191637   0.308   5.434   7.602 -0.7025  1.2824  0.3309
28942SOL    HW291638   0.179   5.361   7.576 -0.2304  0.8161 -0.7567
28943SOL     OW91639   0.993   6.927   5.223  0.1511 -0.3245  0.1266
28943SOL    HW191640   0.963   6.842   5.192 -0.3065 -0.0927 -0.0714
28943SOL    HW291641   1.051   6.907   5.296  0.8071 -0.8499 -0.5298
28944SOL     OW91642   6.849   3.163   5.802 -0.2782  0.0010  0.0950
28944SOL    HW191643   6.806   3.164   5.717 -0.7286  2.0559  0.3075
28944SOL    HW291644   6.806   3.231   5.852  1.0314 -0.1027  1.4534
28945SOL     OW91645   8.859   7.441  11.062  0.0221  0.3679  0.6335
28945SOL    HW191646   8.837   7.350  11.077  2.5966 -0.1193  2.0112
28945SOL    HW291647   8.944   7.438  11.017  0.5492  2.0653  1.4278
28946SOL     OW91648   3.993  11.437   8.003  0.3781 -0.4779  0.5022
28946SOL    HW191649   3.916  11.452   7.947 -0.1371  1.9856  1.7275
28946SOL    HW291650   3.956  11.408   8.086  0.7310  0.6531  1.0750
28947SOL     OW91651   1.556   6.145   0.277  0.0315  0.1868  0.3331
28947SOL    HW191652   1.601   6.078   0.329 -1.5969 -0.3526  1.1326
28947SOL    HW291653   1.516   6.203   0.342 -2.0850 -0.5290 -0.2543
28948SOL     OW91654  11.727   1.502   7.951  0.5983  0.0596  0.1929
28948SOL    HW191655  11.681   1.464   8.026  0.4996  0.9169  0.5735
28948SOL    HW291656  11.791   1.435   7.926 -1.9576 -1.9673 -1.5023
28949SOL     OW91657  12.042   2.366  12.102 -0.5821  0.6379 -0.6330
28949SOL    HW191658  12.105   2.342  12.034 -0.2013  0.9729 -0.3977
28949SOL    HW291659  12.025   2.459  12.087 -1.0091  0.5535 -0.6853
28950SOL     OW91660  10.831  10.455   5.993 -0.2411  0.1158  0.4298
28950SOL    HW191661  10.826  10.393   5.920 -0.3824 -0.4852  0.9416
28950SOL    HW291662  10.908  10.508   5.975 -1.4319  1.3669 -1.2460
28951SOL     OW91663   5.173   0.711  12.293  0.5254 -0.0138 -0.2857
28951SOL    HW191664   5.097   0.698  12.235 -0.3603  0.4244  0.7297
28951SOL    HW291665   5.241   0.747  12.235  0.2655 -1.2290 -1.3988
28952SOL     OW91666  11.239   6.906   9.029  0.2695 -0.0216 -0.7847
28952SOL    HW191667  11.160   6.883   8.979 -0.5054  0.5779  0.1262
28952SOL    HW291668  11.251   6.833   9.090 -1.3865  1.2381  1.1592
28953SOL     OW91669   0.793   5.291   1.285  0.4856 -0.0483 -0.1073
28953SOL    HW191670   0.861   5.226   1.305 -1.4349 -1.9501  0.6366
28953SOL    HW291671   0.842   5.370   1.261  2.9643 -1.7571 -1.1828
28954SOL     OW91672   2.779  11.329  12.094 -0.1144  0.3716  0.3246
28954SOL    HW191673   2.856  11.349  12.148  0.9852 -0.2402 -0.9469
28954SOL    HW291674   2.802  11.248  12.048 -1.8560 -0.2617  0.4918
28955SOL     OW91675   4.654   6.279   2.448 -0.2304  0.6931  0.0494
28955SOL    HW191676   4.710   6.274   2.371 -0.3069  1.2417 -0.0471
28955SOL    HW291677   4.613   6.192   2.454 -0.2576  0.6600 -0.5495
28956SOL     OW91678   7.125   3.397   3.362  0.1675 -0.0500  0.0294
28956SOL    HW191679   7.075   3.378   3.282  0.4087 -0.2771 -0.0683
28956SOL    HW291680   7.183   3.469   3.337  1.8783 -1.6058 -0.6855
28957SOL     OW91681   4.292   3.377   5.058 -0.0781  0.6076  0.3344
28957SOL    HW191682   4.253   3.456   5.019 -0.7391 -0.1076 -0.4847
28957SOL    HW291683   4.314   3.404   5.147 -2.0290  1.1991  0.7006
28958SOL     OW91684   3.736   6.425   5.173 -0.1120 -0.4867 -0.0041
28958SOL    HW191685   3.683   6.437   5.252  1.6522  1.4531  0.9854
28958SOL    HW291686   3.687   6.361   5.121 -2.4665 -0.1572  1.6320
28959SOL     OW91687   0.374   1.905   2.841 -0.4611  0.0723 -0.2026
28959SOL    HW191688   0.395   1.970   2.773  0.3548 -1.9206 -1.9841
28959SOL    HW291689   0.287   1.873   2.816 -0.1100 -0.7482 -0.4157
28960SOL     OW91690   1.876   5.414   0.069 -0.6716 -0.5820 -0.0940
28960SOL    HW191691   1.795   5.427   0.020  0.0352  2.2452 -0.6651
28960SOL    HW291692   1.876   5.485   0.133  1.7357  0.0127 -0.6843
28961SOL     OW91693   2.663   9.593   1.312 -0.2224  0.5325 -0.0139
28961SOL    HW191694   2.687   9.668   1.366  2.4679 -1.5018  1.9031
28961SOL    HW291695   2.663   9.519   1.373 -0.0180 -1.4424 -2.2594
28962SOL     OW91696  10.853   4.991   6.546 -0.6124 -0.8733  1.0506
28962SOL    HW191697  10.898   5.075   6.542  0.3858 -1.4414 -0.0509
28962SOL    HW291698  10.760   5.014   6.541 -0.3792  0.1798  1.2656
28963SOL     OW91699   1.535  10.239   0.182 -0.2133  0.4926 -0.4422
28963SOL    HW191700   1.471  10.233   0.253 -2.4537 -2.1037 -2.4571
28963SOL    HW291701   1.495  10.297   0.118 -0.2597 -0.5386 -1.3859
28964SOL     OW91702   1.891   7.063   4.735 -0.3674 -0.1552 -0.5741
28964SOL    HW191703   1.847   6.997   4.788 -1.2871 -0.6423 -1.8910
28964SOL    HW291704   1.981   7.064   4.767 -0.7758 -0.7955  0.6326
28965SOL     OW91705   3.661  11.959   9.899  0.3246 -0.4373 -0.1383
28965SOL    HW191706   3.728  11.977   9.833 -0.3091  1.3600 -0.3483
28965SOL    HW291707   3.585  11.929   9.850  0.1994 -0.1233 -0.1410
28966SOL     OW91708  10.987  10.633  10.901 -0.8389 -0.1632  0.8053
28966SOL    HW191709  11.000  10.540  10.883  0.0326  0.3165 -1.3089
28966SOL    HW291710  11.075  10.666  10.921 -0.3334  0.9330 -2.5531
28967SOL     OW91711   6.907  12.124   5.033 -0.0181 -0.4013  0.0686
28967SOL    HW191712   6.920  12.212   5.069  0.8911  0.2026 -1.6440
28967SOL    HW291713   6.989  12.103   4.990 -1.0612 -1.0105 -1.7505
28968SOL     OW91714  12.591   8.304  10.988  0.1042  0.5459 -0.1516
28968SOL    HW191715  12.638   8.225  11.016  0.5514  1.2377  1.0977
28968SOL    HW291716  12.543   8.276  10.909  1.2922 -0.6153 -0.5008
28969SOL     OW91717   4.406   7.114   0.538  0.5585  0.1453  0.3265
28969SOL    HW191718   4.418   7.191   0.593 -1.2210  0.9570 -0.3383
28969SOL    HW291719   4.381   7.150   0.453 -0.4096 -1.1563  0.0318
28970SOL     OW91720   2.801   5.840   9.789  0.6082 -0.1349  0.0510
28970SOL    HW191721   2.774   5.887   9.709 -1.6334 -1.0777  0.1630
28970SOL    HW291722   2.876   5.889   9.821  0.6961  1.1265 -1.8635
28971SOL     OW91723  12.395   6.977   1.897 -0.4103 -0.4872  0.0544
28971SOL    HW191724  12.447   6.901   1.920 -0.2247 -0.2383  0.4582
28971SOL    HW291725  12.445   7.019   1.826 -0.1729 -0.3695  0.2913
28972SOL     OW91726   3.715   0.069  11.783  0.0297 -0.0698  0.2556
28972SOL    HW191727   3.660   0.020  11.843  0.3958 -1.1693 -0.2810
28972SOL    HW291728   3.723   0.156  11.823 -2.3616  0.2521  0.1593
28973SOL     OW91729   4.022   1.637   8.035 -0.6436 -0.0791 -0.1754
28973SOL    HW191730   4.104   1.622   8.084 -0.6475 -0.0333 -0.1551
28973SOL    HW291731   3.953   1.626   8.100 -0.7550 -1.8624 -0.5574
28974SOL     OW91732   8.705   1.194   8.013 -0.2211 -0.2628  0.6089
28974SOL    HW191733   8.652   1.262   7.972 -0.8254 -1.2422 -0.2968
28974SOL    HW291734   8.646   1.151   8.075 -0.2300 -0.7540  0.2726
28975SOL     OW91735   1.383   8.859   6.210  0.3442 -0.1709 -0.1902
28975SOL    HW191736   1.323   8.869   6.284  1.4236  0.5613  0.6268
28975SOL    HW291737   1.345   8.913   6.141  0.2725  0.6215  0.4556
28976SOL     OW91738   1.979  10.503   4.391 -0.4538  0.2992  0.0911
28976SOL    HW191739   2.065  10.518   4.352  0.2730 -0.7647  1.2236
28976SOL    HW291740   1.950  10.590   4.418 -0.2586  0.8261 -1.3176
28977SOL     OW91741   7.885   0.676   4.660 -0.6644  0.0349 -0.0644
28977SOL    HW191742   7.845   0.744   4.606 -0.8225  0.9834  1.1881
28977SOL    HW291743   7.896   0.601   4.602 -0.2241  1.2250 -1.5624
28978SOL     OW91744   6.766  11.994   9.793 -0.0130  0.1423 -0.1360
28978SOL    HW191745   6.831  12.064   9.790  0.9974 -0.7957 -0.6752
28978SOL    HW291746   6.785  11.940   9.717  0.0769 -1.4617  0.9843
28979SOL     OW91747  12.405   6.240   5.306 -0.4107  0.0902  0.2574
28979SOL    HW191748  12.432   6.177   5.372 -0.7807 -0.4427 -0.0999
28979SOL    HW291749  12.449   6.322   5.332  0.7444 -0.5031  0.2589
28980SOL     OW91750   1.732   6.457   8.741 -0.3276 -0.4850  0.4534
28980SOL    HW191751   1.652   6.481   8.694 -0.1178 -0.3519  0.1597
28980SOL    HW291752   1.710   6.467   8.833 -0.7909 -0.9039  0.3867
28981SOL     OW91753   9.959   2.985   5.382  0.7480 -0.4120 -0.1627
28981SOL    HW191754   9.934   3.057   5.440 -0.8614 -1.6656  0.8056
28981SOL    HW291755   9.998   2.919   5.440  1.1982 -0.7666 -0.8501
28982SOL     OW91756   2.225  11.910   1.347 -0.2955  0.3708  0.5871
28982SOL    HW191757   2.280  11.966   1.292  0.9740 -2.2206 -1.0323
28982SOL    HW291758   2.285  11.875   1.413 -0.8607  0.2489  1.0439
28983SOL     OW91759   5.964   9.347   2.640 -0.1112  0.1320 -0.2996
28983SOL    HW191760   6.031   9.330   2.706 -0.6620  0.5344  0.3891
28983SOL    HW291761   6.006   9.328   2.557  1.1602  1.2483  0.0477
28984SOL     OW91762   2.631   3.184   5.228 -0.7271 -0.5531  0.0605
28984SOL    HW191763   2.558   3.188   5.166 -0.7669 -2.3785 -0.0704
28984SOL    HW291764   2.590   3.169   5.313 -0.5658 -0.3830  0.1683
28985SOL     OW91765   6.241   8.440   2.568  0.4176 -0.6536 -0.4137
28985SOL    HW191766   6.308   8.432   2.501  1.6033 -2.2225  0.9067
28985SOL    HW291767   6.192   8.519   2.543  3.2326  1.0517 -0.9813
28986SOL     OW91768   7.614   6.313   8.427 -0.2120 -0.1365  0.2516
28986SOL    HW191769   7.533   6.273   8.394  0.4048 -0.6984 -0.6176
28986SOL    HW291770   7.620   6.397   8.382  0.8195 -1.0599 -1.4250
28987SOL     OW91771  11.184   6.614   3.468 -0.3079  0.1342  0.3995
28987SOL    HW191772  11.176   6.519   3.477  1.2342 -0.1474 -0.6518
28987SOL    HW291773  11.278   6.630   3.473 -0.3655  1.3525 -1.3978
28988SOL     OW91774   6.415   4.014   8.355 -0.0691 -0.4311  0.0339
28988SOL    HW191775   6.455   3.948   8.297  1.0175 -0.2795  0.5873
28988SOL    HW291776   6.414   4.094   8.302 -0.3212 -0.6073 -0.2350
28989SOL     OW91777   6.993  10.080   2.344 -0.2966 -0.2864  0.0120
28989SOL    HW191778   7.002  10.093   2.438 -1.4462  0.7772  0.0059
28989SOL    HW291779   6.930  10.009   2.336  0.4704 -0.9804  0.0350
28990SOL     OW91780   8.641  11.790   4.000 -0.0941 -0.4760 -0.7253
28990SOL    HW191781   8.683  11.848   4.064 -1.0124  0.8551 -1.2989
28990SOL    HW291782   8.715  11.753   3.951  0.6175 -1.4417  1.0030
28991SOL     OW91783   0.886   6.930   0.323 -0.4356  0.1174  0.3672
28991SOL    HW191784   0.958   6.902   0.381 -0.0113 -0.7316 -0.5550
28991SOL    HW291785   0.807   6.907   0.371 -0.0890 -0.5339  0.6383
28992SOL     OW91786   7.445   5.611   8.701  0.3680 -0.3431 -0.5472
28992SOL    HW191787   7.350   5.616   8.692  0.3898  0.9037 -0.1483
28992SOL    HW291788   7.477   5.605   8.611 -0.1039 -1.3893 -0.6632
28993SOL     OW91789   4.864   4.294   6.284 -0.4639 -0.4955 -0.0341
28993SOL    HW191790   4.771   4.316   6.274 -0.8509 -1.3458  1.4107
28993SOL    HW291791   4.869   4.200   6.264  0.2188 -0.3161 -0.7690
28994SOL     OW91792   5.481   6.916   0.778  0.3128 -0.1652  0.1203
28994SOL    HW191793   5.516   6.924   0.689  1.8763 -0.6390  0.6678
28994SOL    HW291794   5.456   6.824   0.786  3.1554 -0.9604  1.1571
28995SOL     OW91795   8.478   6.479   2.703 -0.5392 -0.6081  0.7211
28995SOL    HW191796   8.541   6.408   2.687 -1.2174 -1.1358  0.3361
28995SOL    HW291797   8.392   6.436   2.698 -0.9094 -0.2774  3.0919
28996SOL     OW91798   9.353   2.265   7.495 -0.6627  0.6794 -0.0425
28996SOL    HW191799   9.355   2.231   7.584  1.4242 -0.0674 -0.3262
28996SOL    HW291800   9.442   2.297   7.479 -0.2060 -1.5622 -2.7167
28997SOL     OW91801  11.836  11.171   1.982 -0.2240  0.4182 -0.0398
28997SOL    HW191802  11.793  11.178   2.067 -0.8894 -0.6773 -0.2644
28997SOL    HW291803  11.764  11.177   1.919  0.0397 -0.5143 -0.4518
28998SOL     OW91804   9.325   0.631   3.403 -0.1500 -0.6368 -0.5924
28998SOL    HW191805   9.399   0.689   3.424  0.0791 -0.8197 -0.8857
28998SOL    HW291806   9.356   0.544   3.425 -0.2801 -0.7137 -0.7149
28999SOL     OW91807  10.814   9.184   9.398  0.7718 -0.7402  0.0296
28999SOL    HW191808  10.725   9.171   9.431  0.8292 -1.3091 -0.0259
28999SOL    HW291809  10.816   9.276   9.372  0.6768 -0.3084  1.4444
29000SOL     OW91810   0.955   4.251   6.284  0.5772  0.8498 -0.3951
29000SOL    HW191811   1.007   4.178   6.250 -0.9240 -1.1630  1.3829
29000SOL    HW291812   0.993   4.270   6.370 -0.2545  0.8467 -0.0187
29001SOL     OW91813   4.855   3.306   8.547 -0.9608  0.0083  0.2053
29001SOL    HW191814   4.906   3.379   8.512 -0.4724 -1.4209 -2.3206
29001SOL    HW291815   4.765   3.338   8.550 -0.6946  0.8435 -0.4967
29002SOL     OW91816   6.515   7.500  10.957  0.0417  0.0704  0.6396
29002SOL    HW191817   6.433   7.453  10.968 -0.3169  0.3427 -0.7242
29002SOL    HW291818   6.582   7.441  10.993 -0.6710 -0.3956  1.2283
29003SOL     OW91819   8.344   6.453   0.727  0.0216  0.4851  0.0867
29003SOL    HW191820   8.253   6.480   0.710  0.3194  1.8249  0.4474
29003SOL    HW291821   8.343   6.423   0.818 -0.0015  0.8544  0.2126
29004SOL     OW91822   9.284   9.742   1.032  0.6935  0.6014 -0.3474
29004SOL    HW191823   9.334   9.662   1.044 -0.8611 -0.2908  0.5938
29004SOL    HW291824   9.207   9.714   0.982  0.1740  1.5148 -0.0831
29005SOL     OW91825   6.191  12.425  12.598  0.0089  0.0720  0.2099
29005SOL    HW191826   6.205  12.475  12.517 -2.4201 -1.9110 -1.5829
29005SOL    HW291827   6.131  12.479  12.649 -0.9825 -0.0450 -0.7894
29006SOL     OW91828   8.308   6.106   8.172  0.0060 -0.5445 -0.0318
29006SOL    HW191829   8.263   6.164   8.112 -0.4996 -0.9126 -0.0167
29006SOL    HW291830   8.342   6.163   8.241 -1.2563 -0.3480  0.4604
29007SOL     OW91831  10.873   2.239  10.117  0.1325 -0.1232  0.3083
29007SOL    HW191832  10.965   2.248  10.090  0.3425  0.1740  1.1030
29007SOL    HW291833  10.823   2.257  10.038  0.7740 -1.0223 -0.3196
29008SOL     OW91834   6.224   7.410   8.609 -0.2593 -0.6215  0.3564
29008SOL    HW191835   6.189   7.341   8.665 -0.7115  0.6498  1.7092
29008SOL    HW291836   6.316   7.418   8.635 -0.9242  1.3490  2.5388
29009SOL     OW91837   2.563   0.411   6.262 -0.0211  0.1611  0.1755
29009SOL    HW191838   2.578   0.500   6.231 -1.9917 -0.3630 -2.6422
29009SOL    HW291839   2.484   0.417   6.316 -0.1899  0.1408 -0.0651
29010SOL     OW91840  11.703   2.630   7.387 -0.0134 -0.0992  0.8448
29010SOL    HW191841  11.760   2.592   7.320  0.4496  3.4979 -1.1033
29010SOL    HW291842  11.754   2.624   7.467  1.4575 -0.4486 -0.0719
29011SOL     OW91843   0.881   9.523  10.939  0.0419  0.1764  0.0749
29011SOL    HW191844   0.972   9.518  10.910 -0.3741 -1.1223 -1.1435
29011SOL    HW291845   0.886   9.556  11.029  2.1902 -4.4221  1.9748
29012SOL     OW91846   0.666   2.335   0.905  0.0399  0.0971 -0.5108
29012SOL    HW191847   0.732   2.277   0.865  1.6549  0.5243  1.3926
29012SOL    HW291848   0.691   2.423   0.875  0.5861  0.3016  0.5248
29013SOL     OW91849   2.245   7.321   7.093  0.2700  0.1296 -0.0940
29013SOL    HW191850   2.335   7.350   7.081  0.4976 -1.0592 -1.4739
29013SOL    HW291851   2.232   7.254   7.026 -1.2970 -0.5007  0.7924
29014SOL     OW91852   0.116   3.585   7.010 -0.0022  0.0755 -0.0170
29014SOL    HW191853   0.021   3.588   7.001 -0.1230 -0.1355  1.0496
29014SOL    HW291854   0.147   3.666   6.968 -0.5963 -0.1663 -0.9319
29015SOL     OW91855   3.799   6.352   3.084 -0.0737  0.3177 -0.9389
29015SOL    HW191856   3.738   6.284   3.111  0.4533  0.1572 -0.0908
29015SOL    HW291857   3.882   6.328   3.127  0.3078  1.0882 -1.2218
29016SOL     OW91858   4.761   6.898   2.869  0.2647  0.1788  0.0391
29016SOL    HW191859   4.788   6.806   2.873 -0.3293  0.0513  1.8074
29016SOL    HW291860   4.826   6.945   2.921 -0.3643  0.4958  0.5639
29017SOL     OW91861  11.668   7.129  12.312  0.5312  0.0150 -0.3526
29017SOL    HW191862  11.758   7.097  12.311  1.6156  2.7900 -1.1069
29017SOL    HW291863  11.675   7.221  12.287 -2.7037 -0.0571 -2.0088
29018SOL     OW91864  10.357   6.636   2.980 -0.4205  0.5393 -0.0679
29018SOL    HW191865  10.286   6.572   2.975 -0.0210  0.1769 -1.3257
29018SOL    HW291866  10.328   6.709   2.926 -0.8215  1.4063  1.2675
29019SOL     OW91867   5.497   6.853   2.909 -0.2716 -0.0474  0.3760
29019SOL    HW191868   5.421   6.826   2.857 -0.0447 -1.3226  0.6769
29019SOL    HW291869   5.558   6.890   2.845 -0.4863 -0.5111 -0.1000
29020SOL     OW91870   1.386  11.343   9.276 -0.0392 -0.2030 -0.1583
29020SOL    HW191871   1.428  11.262   9.247 -1.3847 -1.3307  0.9184
29020SOL    HW291872   1.295  11.334   9.249 -0.2950  0.8044  0.3096
29021SOL     OW91873   7.000   3.631   7.034 -0.4142  0.1577  0.3911
29021SOL    HW191874   6.931   3.678   6.988  0.4980  1.8920  0.7016
29021SOL    HW291875   6.975   3.636   7.126 -0.5097 -0.2956  0.3886
29022SOL     OW91876  11.208  10.605  10.509  0.5299 -0.4278  0.2440
29022SOL    HW191877  11.157  10.674  10.551  1.2985  0.9706 -0.9850
29022SOL    HW291878  11.295  10.611  10.550  0.5882 -0.6834  0.1613
29023SOL     OW91879   8.489   1.792  10.844  0.2111 -0.7225  0.3975
29023SOL    HW191880   8.462   1.797  10.936  0.8170 -1.0021  0.5937
29023SOL    HW291881   8.411   1.761  10.798 -0.2608 -0.0539  0.7362
29024SOL     OW91882   3.750   9.770   3.973  0.3249 -0.1954 -0.4476
29024SOL    HW191883   3.820   9.708   3.953  0.2963  0.6150 -3.5740
29024SOL    HW291884   3.792   9.856   3.973 -0.3865  0.1679 -0.7410
29025SOL     OW91885   0.115   5.214  10.771 -0.6485  0.2803  0.3195
29025SOL    HW191886   0.198   5.249  10.803 -2.3824  2.6001  2.7624
29025SOL    HW291887   0.096   5.263  10.692  0.4874 -0.6536 -0.5700
29026SOL     OW91888   4.379   1.595   8.053 -0.2265  0.9301 -0.0345
29026SOL    HW191889   4.351   1.519   8.104 -1.0953 -0.4574 -2.4184
29026SOL    HW291890   4.379   1.564   7.963 -0.9837  3.9023 -1.1484
29027SOL     OW91891   1.331   9.777   4.182 -0.2769 -0.8529  0.2230
29027SOL    HW191892   1.310   9.698   4.133 -1.0780 -0.2956 -0.3587
29027SOL    HW291893   1.246   9.820   4.195  0.2673  0.5203 -0.5395
29028SOL     OW91894   5.996   1.730   0.953  0.2539 -0.0699 -0.7236
29028SOL    HW191895   5.937   1.662   0.922  1.4136 -1.4329 -0.0595
29028SOL    HW291896   6.074   1.721   0.898  0.5650  0.4894 -0.3809
29029SOL     OW91897   1.413  10.935  11.197  0.1407 -0.7392 -0.0655
29029SOL    HW191898   1.493  10.979  11.227  1.9227 -2.2856 -2.2419
29029SOL    HW291899   1.376  10.995  11.133 -0.2509 -0.2172  0.6286
29030SOL     OW91900   9.572   4.574  12.109 -0.1700 -0.3506  0.9156
29030SOL    HW191901   9.578   4.659  12.154  0.2732 -0.6869  1.4982
29030SOL    HW291902   9.481   4.547  12.122 -0.9652  1.0715 -1.2040
29031SOL     OW91903   2.901   1.973   4.786  0.5791 -0.1892 -0.4749
29031SOL    HW191904   2.991   1.966   4.817  0.8687  1.7765 -0.7373
29031SOL    HW291905   2.874   1.883   4.770  1.7041 -1.0215  1.8072
29032SOL     OW91906   7.027   6.661   6.655  0.4524 -0.1237 -0.6530
29032SOL    HW191907   6.989   6.627   6.575  1.8018 -1.4855 -0.7614
29032SOL    HW291908   7.121   6.643   6.647  1.0428  2.2079  0.0188
29033SOL     OW91909   3.384   1.865   3.802  0.1758 -0.0035 -0.0281
29033SOL    HW191910   3.424   1.783   3.772  1.4359  0.5034  0.1626
29033SOL    HW291911   3.416   1.874   3.892 -1.5293 -0.2558  0.6297
29034SOL     OW91912  11.914   0.638   0.917  0.5433 -0.0655 -0.3489
29034SOL    HW191913  11.863   0.582   0.858  0.7975 -1.2098  0.4874
29034SOL    HW291914  11.871   0.724   0.911 -0.5297 -0.6103 -0.8369
29035SOL     OW91915   6.068  10.073  11.603  0.6942 -0.0703  0.8921
29035SOL    HW191916   6.047  10.144  11.543  1.3515 -0.4933  0.1428
29035SOL    HW291917   6.122  10.113  11.671  2.4090 -0.1382 -0.3835
29036SOL     OW91918  10.541   8.146   5.480 -0.5458 -0.2032 -0.1769
29036SOL    HW191919  10.546   8.230   5.435  0.9376 -0.3898 -0.3850
29036SOL    HW291920  10.601   8.154   5.554 -1.4412 -0.6078  0.6147
29037SOL     OW91921   9.555   0.209   4.185  0.2947  0.6756  0.2628
29037SOL    HW191922   9.629   0.252   4.142  0.9474 -0.5385  0.1360
29037SOL    HW291923   9.484   0.215   4.122  0.7389  0.4835 -0.2671
29038SOL     OW91924   8.686   5.555   0.928  0.1007  0.3652 -0.4447
29038SOL    HW191925   8.617   5.524   0.987 -0.6390  0.5717 -1.1987
29038SOL    HW291926   8.641   5.606   0.862  1.0586  1.0972 -0.5576
29039SOL     OW91927  12.136   6.069   6.766 -0.6471 -0.4091  0.0819
29039SOL    HW191928  12.071   6.044   6.700 -1.4997  1.7014  0.0431
29039SOL    HW291929  12.085   6.083   6.846 -0.1023  0.3048  0.3133
29040SOL     OW91930  12.291   3.306  10.632 -0.1436  0.2308  0.1708
29040SOL    HW191931  12.220   3.343  10.685 -1.5062 -1.2294 -0.5247
29040SOL    HW291932  12.251   3.291  10.546  1.5757  1.0914 -0.8261
29041SOL     OW91933  11.034   5.656   0.896 -0.0478  0.5016 -0.3487
29041SOL    HW191934  11.111   5.624   0.941 -1.2543 -0.1535  1.3581
29041SOL    HW291935  11.067   5.691   0.813  1.9349 -0.5646 -0.0599
29042SOL     OW91936   8.046   6.941   5.338 -0.2562 -0.2815  0.0593
29042SOL    HW191937   8.092   6.917   5.418  0.9128  0.1990 -0.4490
29042SOL    HW291938   8.044   7.036   5.339  0.0085 -0.2611 -0.6022
29043SOL     OW91939   7.775   5.401  10.544  0.6172 -0.5409 -0.3454
29043SOL    HW191940   7.762   5.308  10.565 -1.2596 -0.1072  0.7125
29043SOL    HW291941   7.705   5.421  10.482 -0.0991  0.5287  0.7449
29044SOL     OW91942   9.698   6.440   0.265  0.1640  0.0174 -0.3896
29044SOL    HW191943   9.662   6.369   0.318 -0.0935  0.4223 -0.0150
29044SOL    HW291944   9.628   6.462   0.203  1.2167 -1.9171 -2.4007
29045SOL     OW91945   1.770  12.149   9.400 -0.0711 -0.4444 -0.2287
29045SOL    HW191946   1.689  12.170   9.445  0.6819 -1.5701  1.7659
29045SOL    HW291947   1.838  12.162   9.467  1.1517 -1.7008 -1.1849
29046SOL     OW91948   5.637  12.622   9.101  0.1246  0.8423  0.3133
29046SOL    HW191949   5.583  12.653   9.174 -2.0501 -1.1088 -0.3281
29046SOL    HW291950   5.576  12.617   9.027 -0.6157 -6.4264  0.6635
29047SOL     OW91951   0.631  11.791   6.317  0.2684 -0.3604 -0.9508
29047SOL    HW191952   0.714  11.837   6.327 -0.0333  0.4115 -1.7888
29047SOL    HW291953   0.625  11.771   6.224 -1.1061  0.8657 -1.1739
29048SOL     OW91954   5.876   0.461   0.097 -0.2380  0.3584 -0.8085
29048SOL    HW191955   5.845   0.540   0.054  1.7269  0.1465 -2.8335
29048SOL    HW291956   5.916   0.491   0.179 -0.5466  1.2982 -0.9998
29049SOL     OW91957   5.839   3.030   5.296 -0.5743  0.3426  0.7379
29049SOL    HW191958   5.825   3.123   5.314 -0.7500 -0.0939  3.2545
29049SOL    HW291959   5.900   3.001   5.363 -0.2427 -1.3148 -0.2152
29050SOL     OW91960   0.161  12.329  12.424 -0.3204  0.3708 -0.1511
29050SOL    HW191961   0.255  12.308  12.419 -0.7007 -1.1891 -1.3919
29050SOL    HW291962   0.159  12.421  12.453  1.6422  1.0429 -1.8817
29051SOL     OW91963  11.238   1.782   6.434  0.1152  0.0835  0.3394
29051SOL    HW191964  11.196   1.868   6.440  2.3278  1.1869  1.2236
29051SOL    HW291965  11.287   1.785   6.352 -0.3496 -0.6254  0.0303
29052SOL     OW91966   4.470   6.817  10.734 -0.1252 -0.2171  0.3278
29052SOL    HW191967   4.485   6.760  10.809  1.4321 -0.6791 -0.3061
29052SOL    HW291968   4.429   6.761  10.669 -1.2301  0.1191  0.7048
29053SOL     OW91969  10.047   2.319   1.972  1.0525  0.5851  0.0851
29053SOL    HW191970   9.997   2.244   2.002  1.6579  0.5427  1.0348
29053SOL    HW291971  10.005   2.345   1.890  1.2266 -1.1645 -0.5902
29054SOL     OW91972   9.027   9.970   3.600 -0.0709  0.3314 -0.0444
29054SOL    HW191973   8.941   9.983   3.560  0.2068 -1.2331 -1.2307
29054SOL    HW291974   9.035  10.042   3.662 -1.7604  1.1594 -0.7134
29055SOL     OW91975  11.429  12.232   5.208 -0.0249  0.1286  0.4122
29055SOL    HW191976  11.484  12.306   5.184 -0.6842  1.0633  1.6215
29055SOL    HW291977  11.342  12.254   5.173  0.0664 -0.7154 -0.3728
29056SOL     OW91978   8.281   6.300   7.871 -0.0737  0.1446 -0.2205
29056SOL    HW191979   8.256   6.356   7.798  1.0977  0.2042 -0.6024
29056SOL    HW291980   8.228   6.330   7.945  0.1352  1.3863 -0.5576
29057SOL     OW91981   5.090  10.170  11.725 -0.0834 -0.0067  0.0778
29057SOL    HW191982   5.056  10.095  11.676 -0.1586  0.2956 -0.3447
29057SOL    HW291983   5.135  10.223  11.659  0.9336 -0.2377  0.5816
29058SOL     OW91984   1.791   8.024   5.121 -0.1167  0.2355 -0.2430
29058SOL    HW191985   1.847   7.976   5.060 -1.2264  1.9389 -2.7960
29058SOL    HW291986   1.723   7.962   5.146  0.4769 -0.5664 -0.5801
29059SOL     OW91987   1.344   1.974   7.865  0.2741 -0.1812  0.3067
29059SOL    HW191988   1.416   1.911   7.873  0.2497 -0.0894  1.5244
29059SOL    HW291989   1.387   2.058   7.851  0.3412 -0.3223 -0.3761
29060SOL     OW91990   0.218   5.164  11.591  0.7881 -0.1283 -0.2195
29060SOL    HW191991   0.254   5.104  11.656  2.6070  0.5742 -0.5032
29060SOL    HW291992   0.157   5.110  11.540  0.8890 -1.2101  0.7587
29061SOL     OW91993   6.853  11.324   6.305 -0.1840 -0.1825  0.1452
29061SOL    HW191994   6.791  11.252   6.310 -0.9965  0.4848 -0.1152
29061SOL    HW291995   6.930  11.287   6.262 -0.1663 -1.1682  0.9878
29062SOL     OW91996   4.767  10.471   3.100  0.0146 -0.6069 -0.6218
29062SOL    HW191997   4.745  10.556   3.139 -1.1539 -0.4503 -1.5754
29062SOL    HW291998   4.851  10.486   3.057  0.5521 -0.3585  0.4717
29063SOL     OW91999   7.610   2.440   7.233  0.5272  0.7398 -0.1871
29063SOL    HW192000   7.679   2.387   7.192 -0.9461 -0.2929 -1.4525
29063SOL    HW292001   7.544   2.451   7.164 -0.0551  2.7244  0.6087
29064SOL     OW92002   0.793   2.464   7.071  0.1425 -0.7102  1.1337
29064SOL    HW192003   0.830   2.511   6.996 -1.3288 -2.8702 -1.0907
29064SOL    HW292004   0.753   2.532   7.125 -0.9893  0.7380 -1.3723
29065SOL     OW92005   5.257  10.549   3.073  0.0717  0.6182 -0.9208
29065SOL    HW192006   5.176  10.551   3.023  0.1489  1.8477 -1.0153
29065SOL    HW292007   5.325  10.575   3.010  0.3803  0.6890 -0.5647
29066SOL     OW92008   9.267   6.915  11.425  0.2869 -0.0391  0.5620
29066SOL    HW192009   9.324   6.839  11.434 -2.5085 -2.4905 -0.7185
29066SOL    HW292010   9.262   6.952  11.513  3.9371  0.5321  0.6845
29067SOL     OW92011   0.716  10.446   2.424 -0.2784  0.0252 -0.2921
29067SOL    HW192012   0.630  10.456   2.463 -0.4593  0.1864 -0.7226
29067SOL    HW292013   0.700  10.448   2.329  0.3466  1.4531 -0.3988
29068SOL     OW92014   0.663   3.895   7.901 -0.8411  0.0899  0.3316
29068SOL    HW192015   0.691   3.983   7.875 -1.8052  0.7502  1.4130
29068SOL    HW292016   0.572   3.889   7.872 -0.1773 -1.4320 -1.7301
29069SOL     OW92017   7.153   2.981   6.048 -0.2125 -0.2055  0.0237
29069SOL    HW192018   7.196   3.031   5.978  0.1703 -0.4084  0.1095
29069SOL    HW292019   7.078   2.941   6.005  0.1535 -0.5220 -0.3382
29070SOL     OW92020   2.474   7.432   4.074 -0.5603 -0.2752 -0.0128
29070SOL    HW192021   2.452   7.523   4.057  0.9494  0.0222 -0.4789
29070SOL    HW292022   2.514   7.401   3.993  0.4000 -0.8800  0.6807
29071SOL     OW92023   8.420   2.580   0.637 -0.1829  0.0784  0.5127
29071SOL    HW192024   8.390   2.667   0.663 -2.6909 -0.6917  0.4552
29071SOL    HW292025   8.447   2.590   0.546 -0.0087  0.8906  0.6469
29072SOL     OW92026   7.905  10.817  12.459 -0.8917  0.2868  0.1429
29072SOL    HW192027   7.945  10.744  12.508  0.6882 -0.5297 -2.1907
29072SOL    HW292028   7.823  10.781  12.426  0.3499 -0.9063 -1.8561
29073SOL     OW92029   5.337   6.292   0.515  0.5111  0.3341 -0.1219
29073SOL    HW192030   5.266   6.275   0.577  0.8186  1.3477  0.5267
29073SOL    HW292031   5.308   6.369   0.466  1.1230  0.7097  0.0988
29074SOL     OW92032   1.142   7.066   7.135  0.0828 -0.0868 -0.5886
29074SOL    HW192033   1.072   7.000   7.141  0.8183 -0.8228  0.0588
29074SOL    HW292034   1.120   7.130   7.202 -0.6970  0.4136 -1.2956
29075SOL     OW92035   1.741   4.036  12.296  0.1879  0.3865 -0.1747
29075SOL    HW192036   1.743   4.052  12.201 -0.8079  1.8913  0.0266
29075SOL    HW292037   1.774   3.946  12.305  1.1381  0.5131 -1.8567
29076SOL     OW92038   1.754  11.295  10.724  0.4795  0.1987 -0.1633
29076SOL    HW192039   1.792  11.382  10.737 -0.8885  1.1728 -2.1175
29076SOL    HW292040   1.757  11.255  10.810 -0.4926  2.8847  1.2425
29077SOL     OW92041  11.382   7.094   8.588 -0.0072  0.7467 -0.0147
29077SOL    HW192042  11.429   7.175   8.606  1.8940 -0.2812 -0.1449
29077SOL    HW292043  11.386   7.084   8.493 -0.3999  0.5743 -0.0171
29078SOL     OW92044   1.637   7.167   0.451 -0.0752 -0.1386 -0.3472
29078SOL    HW192045   1.591   7.089   0.482  0.7503 -0.5467 -0.1455
29078SOL    HW292046   1.569   7.234   0.446 -0.7593 -0.8196 -0.3545
29079SOL     OW92047   5.682   1.704   9.138  0.3759 -0.4067 -0.4419
29079SOL    HW192048   5.769   1.708   9.100  0.1682 -0.3489 -0.9185
29079SOL    HW292049   5.692   1.648   9.215  0.8446 -0.3402 -0.4526
29080SOL     OW92050  12.306   1.248   8.791 -0.4406  0.0761  0.3084
29080SOL    HW192051  12.387   1.209   8.760 -0.1785  1.3898 -0.7240
29080SOL    HW292052  12.283   1.197   8.869 -0.6405 -2.7251 -1.4857
29081SOL     OW92053   2.917   2.153   3.943 -0.3680  0.2950  0.4774
29081SOL    HW192054   2.842   2.101   3.970 -1.5020  1.9941  0.7699
29081SOL    HW292055   2.948   2.112   3.862 -1.5704 -0.4775  0.3939
29082SOL     OW92056  11.129   3.082   4.897 -0.4254  0.3614 -0.2730
29082SOL    HW192057  11.083   3.167   4.896 -1.8632 -0.3794 -0.9699
29082SOL    HW292058  11.070   3.024   4.945  0.8203 -0.1273  0.7046
29083SOL     OW92059  10.307   8.322   2.642 -0.0807  0.0171  0.2489
29083SOL    HW192060  10.273   8.411   2.627  0.4415  0.4791  1.6923
29083SOL    HW292061  10.384   8.335   2.697  0.5025 -1.2826 -0.2353
29084SOL     OW92062  10.327   3.908   9.573 -0.0740 -0.2910 -0.5867
29084SOL    HW192063  10.401   3.885   9.517  0.9553  2.6960 -0.6077
29084SOL    HW292064  10.361   3.897   9.662 -0.9017 -2.5366 -0.4675
29085SOL     OW92065   2.654   3.712   6.994  0.0276 -0.1184  0.0449
29085SOL    HW192066   2.622   3.760   6.917 -0.9663 -1.5581 -0.4841
29085SOL    HW292067   2.667   3.779   7.061 -2.1051  0.8171 -0.4015
29086SOL     OW92068   3.521   0.220  12.222 -0.1161  0.7221 -0.5297
29086SOL    HW192069   3.477   0.210  12.137 -0.0292  1.8382 -0.7220
29086SOL    HW292070   3.502   0.138  12.268 -0.7423  0.3777 -1.3630
29087SOL     OW92071   1.658   0.610   3.390 -0.6643  0.0907  0.7134
29087SOL    HW192072   1.642   0.595   3.297  1.2442  1.2363  0.1438
29087SOL    HW292073   1.604   0.686   3.411  0.8584  1.4841 -0.1802
29088SOL     OW92074  10.890   0.413   1.817  0.6707 -0.0985 -0.1989
29088SOL    HW192075  10.938   0.432   1.898  1.4460 -0.8186 -0.4783
29088SOL    HW292076  10.819   0.355   1.845 -0.7475  1.7803  0.3901
29089SOL     OW92077   4.648   2.142   3.579  0.2621  0.0605  0.3117
29089SOL    HW192078   4.558   2.170   3.564  0.3731 -0.2250 -1.0269
29089SOL    HW292079   4.675   2.103   3.496  0.4808 -3.0455  1.7179
29090SOL     OW92080   0.283   9.491  11.933 -0.3671 -0.6383  0.3470
29090SOL    HW192081   0.285   9.407  11.888 -0.2720 -1.1038  1.2219
29090SOL    HW292082   0.341   9.481  12.008 -2.0641 -0.5385  1.7402
29091SOL     OW92083  11.908   5.219   4.983 -0.2932  0.0311 -0.0468
29091SOL    HW192084  11.946   5.202   4.897 -1.9439 -1.1127 -0.6178
29091SOL    HW292085  11.871   5.135   5.010 -3.8162  1.2945 -0.3455
29092SOL     OW92086   6.146  12.614  10.484  0.0584  0.0244  0.0607
29092SOL    HW192087   6.217  12.666  10.521 -0.2978  0.8995 -0.4738
29092SOL    HW292088   6.157  12.621  10.389  0.1414 -1.0651 -0.0244
29093SOL     OW92089  10.330  11.530   4.494 -0.1890  0.1583 -0.0862
29093SOL    HW192090  10.356  11.488   4.577 -0.9428 -0.3664 -0.1037
29093SOL    HW292091  10.240  11.559   4.510 -0.0776  0.7236 -0.4779
29094SOL     OW92092   0.809   3.562  11.792  0.0076  0.3204 -0.2160
29094SOL    HW192093   0.814   3.478  11.747  1.5504  0.7314 -0.9057
29094SOL    HW292094   0.782   3.624  11.724 -0.7256  0.4569  0.1909
29095SOL     OW92095   2.173   5.001  10.412 -0.3205 -0.5418 -0.1977
29095SOL    HW192096   2.221   5.039  10.339 -0.8823 -0.4416 -0.5199
29095SOL    HW292097   2.230   4.931  10.445  0.4275  0.1560 -0.0094
29096SOL     OW92098   7.520   0.761   1.123  0.9031 -0.5046  0.0305
29096SOL    HW192099   7.585   0.809   1.071  0.8290  0.4422  0.7738
29096SOL    HW292100   7.554   0.764   1.212  0.6071 -1.3677  0.1751
29097SOL     OW92101   7.928   6.713   5.510  0.5719  0.0949  0.0441
29097SOL    HW192102   7.900   6.771   5.582  1.3042  0.0335  0.3829
29097SOL    HW292103   7.911   6.764   5.431  1.2592  0.8079  0.3399
29098SOL     OW92104   5.297  11.284   7.433 -0.0973 -0.4178  0.1861
29098SOL    HW192105   5.317  11.288   7.527 -0.5965 -1.5903  0.3720
29098SOL    HW292106   5.282  11.375   7.407 -2.3656 -0.2304  1.8097
29099SOL     OW92107  11.487  11.356   3.298 -0.0239 -0.0985 -0.5753
29099SOL    HW192108  11.541  11.317   3.366 -1.1309  1.7999  1.5353
29099SOL    HW292109  11.539  11.429   3.265  0.1375 -0.4678 -1.1617
29100SOL     OW92110   8.902   7.172   7.445  0.0412  0.6993 -0.1497
29100SOL    HW192111   8.862   7.249   7.406  0.0348  0.1863 -1.2052
29100SOL    HW292112   8.912   7.193   7.538 -0.7327  1.6312 -0.2723
29101SOL     OW92113  11.954   7.113  10.303 -0.1471  0.0336 -0.1370
29101SOL    HW192114  11.944   7.197  10.257  0.9162 -1.2979 -3.0512
29101SOL    HW292115  12.042   7.084  10.280 -0.0102 -1.3183  1.8981
29102SOL     OW92116   0.056  10.361   3.297  0.0944  0.0702 -0.3546
29102SOL    HW192117   0.082  10.381   3.207  1.7727 -1.0782 -0.1635
29102SOL    HW292118  -0.008  10.429   3.319  1.0963  1.5279 -1.7330
29103SOL     OW92119   4.522   9.278   0.689 -0.1396  0.0918  0.3863
29103SOL    HW192120   4.542   9.371   0.686  0.2901  0.0079  0.5757
29103SOL    HW292121   4.546   9.250   0.777 -0.4535 -0.1584  0.3982
29104SOL     OW92122   5.214  10.991  11.852  0.4587 -0.2869  0.6858
29104SOL    HW192123   5.186  10.904  11.878  1.0926 -0.5446  0.5405
29104SOL    HW292124   5.301  11.001  11.891  0.2741  0.3919  0.9415
29105SOL     OW92125   8.009   6.530   9.348  0.4159  0.7482  0.4459
29105SOL    HW192126   7.974   6.461   9.292 -2.2304  0.7393  1.9263
29105SOL    HW292127   8.001   6.610   9.297 -3.5459  1.0211  1.1571
29106SOL     OW92128   4.803  12.247   4.480  0.3290 -0.3313  0.3388
29106SOL    HW192129   4.878  12.233   4.423  0.6024  1.9124  0.0582
29106SOL    HW292130   4.841  12.276   4.563 -0.1856  0.8714  0.1775
29107SOL     OW92131   7.923   1.234   7.309  0.2231 -0.7877 -0.0914
29107SOL    HW192132   7.965   1.196   7.231  1.4556  0.9004 -0.2972
29107SOL    HW292133   7.844   1.276   7.274  0.2536 -0.8735 -0.2690
29108SOL     OW92134   5.316   6.725   7.327  0.0701  0.0321 -0.1717
29108SOL    HW192135   5.342   6.733   7.419  0.9059 -0.1035 -0.3913
29108SOL    HW292136   5.323   6.631   7.309  1.0520  0.1889 -0.6927
29109SOL     OW92137   2.355  10.088  12.468 -0.1852 -0.8634 -0.0829
29109SOL    HW192138   2.315  10.175  12.464  1.6220 -0.0101 -0.6909
29109SOL    HW292139   2.281  10.028  12.473 -1.4900  0.7442  1.5320
29110SOL     OW92140   6.646  12.571   9.959 -0.5452 -0.2515 -0.5343
29110SOL    HW192141   6.627  12.500   9.898  1.6242 -1.6370  0.2956
29110SOL    HW292142   6.634  12.532  10.045  0.3963  0.4684 -0.0666
29111SOL     OW92143  12.352   3.006  12.463  0.3210  0.3482 -0.3203
29111SOL    HW192144  12.446   3.007  12.479  0.4881  0.5442 -1.2739
29111SOL    HW292145  12.330   3.098  12.445 -0.0359  0.2901 -0.1874
29112SOL     OW92146   6.039   4.962   6.334 -0.2751  0.4146  0.1019
29112SOL    HW192147   6.020   4.931   6.245  2.3251  0.4083 -0.5101
29112SOL    HW292148   6.066   4.884   6.382 -0.8304  0.5690  0.6885
29113SOL     OW92149   8.443  11.749  11.727 -0.1888 -0.2975 -0.3926
29113SOL    HW192150   8.374  11.781  11.669 -0.0234  0.9054  0.0399
29113SOL    HW292151   8.400  11.738  11.812 -0.1005 -0.6573 -0.3905
29114SOL     OW92152   6.066   7.571   1.858 -0.2845  0.1692  0.6599
29114SOL    HW192153   6.043   7.648   1.806  1.0700  1.3737  1.7685
29114SOL    HW292154   5.982   7.530   1.878 -0.9599  0.7538 -0.8454
29115SOL     OW92155   0.628   8.288   3.246 -0.3005  0.0522  0.3403
29115SOL    HW192156   0.604   8.371   3.287  0.9718 -0.4681  2.2559
29115SOL    HW292157   0.596   8.222   3.307  1.1009 -0.7794  0.2119
29116SOL     OW92158   7.701  10.176   5.771  0.0841  0.6565 -0.0262
29116SOL    HW192159   7.768  10.178   5.840 -0.4233 -1.9693  0.6328
29116SOL    HW292160   7.751  10.166   5.690  0.5423 -0.0890  0.3373
29117SOL     OW92161  11.882   9.223   5.035  0.6317  0.2409  0.0806
29117SOL    HW192162  11.926   9.239   5.118 -0.4561  2.0708  0.3486
29117SOL    HW292163  11.829   9.145   5.050 -0.7993  1.4651  1.6450
29118SOL     OW92164   8.829   4.141   0.452  0.1493  0.1104  0.3948
29118SOL    HW192165   8.767   4.192   0.400 -0.9438 -0.7158  0.8646
29118SOL    HW292166   8.887   4.101   0.388  1.8038  2.8235  0.0360
29119SOL     OW92167  11.732   7.053   5.601  0.3848 -0.5175 -0.3179
29119SOL    HW192168  11.660   7.081   5.658  1.8766  1.1757  0.8327
29119SOL    HW292169  11.719   7.101   5.520  1.5569  1.8187  0.7846
29120SOL     OW92170   5.776   3.169  11.603 -0.0320  0.3776 -0.1032
29120SOL    HW192171   5.802   3.103  11.538  1.3746  0.1216  0.6621
29120SOL    HW292172   5.764   3.249  11.553  0.1465 -0.0213 -0.8018
29121SOL     OW92173   4.919   3.615   1.213  0.3357  0.2854  0.3509
29121SOL    HW192174   4.850   3.582   1.271  1.1173 -0.9782  0.5951
29121SOL    HW292175   4.910   3.710   1.217 -1.4101  0.1620  0.3514
29122SOL     OW92176   6.337   3.755  10.094  0.8084  0.5062  0.1347
29122SOL    HW192177   6.387   3.729  10.171 -2.1262 -0.9346  1.6919
29122SOL    HW292178   6.253   3.710  10.103  0.3690  0.0993 -4.0342
29123SOL     OW92179   4.680   2.555  11.424 -0.1797 -0.1091  0.0788
29123SOL    HW192180   4.585   2.550  11.436 -0.2213 -0.4659 -0.3553
29123SOL    HW292181   4.709   2.463  11.424  0.3987  0.0297  1.8934
29124SOL     OW92182   7.832   5.794   3.130  0.2750 -0.2392  0.4190
29124SOL    HW192183   7.906   5.762   3.079  1.6152  2.1079  0.7325
29124SOL    HW292184   7.757   5.788   3.071  0.7828 -2.1181 -0.1000
29125SOL     OW92185   4.116   5.953   0.895 -0.1020 -0.3534 -0.2317
29125SOL    HW192186   4.055   5.880   0.886 -0.8353 -0.1348  2.1183
29125SOL    HW292187   4.201   5.911   0.912 -0.6208 -0.7172  1.6601
29126SOL     OW92188   1.265  12.415  11.603 -0.3571 -0.4094  0.2896
29126SOL    HW192189   1.321  12.492  11.609  0.2130 -0.8644  0.9706
29126SOL    HW292190   1.321  12.342  11.629 -1.2986 -0.8605  1.1455
29127SOL     OW92191   5.403   1.855  11.847 -0.1486  0.1232 -0.1180
29127SOL    HW192192   5.407   1.795  11.773 -0.5723 -0.4893  0.3433
29127SOL    HW292193   5.309   1.871  11.860 -0.1451 -0.6332  0.9471
29128SOL     OW92194   2.456   9.938   9.347 -0.2497  0.3796 -0.5741
29128SOL    HW192195   2.521   9.916   9.281 -0.1793 -0.8418 -0.1207
29128SOL    HW292196   2.394   9.865   9.346 -0.2334  0.3152  0.7006
29129SOL     OW92197   4.083   4.461  12.081  0.3463  0.3061  0.0812
29129SOL    HW192198   4.122   4.530  12.027  1.2064 -1.5703 -1.8041
29129SOL    HW292199   3.988   4.472  12.068  0.5215  0.0130 -1.7495
29130SOL     OW92200   6.075   4.978   0.313  0.5956 -0.3254  0.1918
29130SOL    HW192201   6.096   5.071   0.309  3.0443 -0.8186 -3.3679
29130SOL    HW292202   5.997   4.968   0.259  0.9410 -0.4394 -0.2913
29131SOL     OW92203   1.032   8.814   7.869 -0.6237  0.1691  0.0047
29131SOL    HW192204   0.941   8.788   7.888 -0.6552  0.9488  0.9787
29131SOL    HW292205   1.024   8.886   7.807 -0.6654  0.2026  0.0484
29132SOL     OW92206   9.907   3.018   9.207 -0.2842 -0.2790 -0.2076
29132SOL    HW192207   9.973   2.993   9.142 -0.1200  0.1275 -0.2001
29132SOL    HW292208   9.889   3.110   9.189 -1.8005 -0.7081 -1.0262
29133SOL     OW92209   3.388   5.534   5.244  0.1891  0.3704  0.2605
29133SOL    HW192210   3.336   5.479   5.185  1.6721 -0.9575  0.1156
29133SOL    HW292211   3.346   5.524   5.329  0.7812 -1.5791  0.3747
29134SOL     OW92212  12.238   3.584   5.241  0.5932  0.2244  0.1880
29134SOL    HW192213  12.196   3.573   5.326  1.3885 -0.3553  0.5244
29134SOL    HW292214  12.201   3.514   5.187  0.4342  0.2962  0.2043
29135SOL     OW92215  11.616   9.771   3.192 -0.5823 -0.3087  0.3817
29135SOL    HW192216  11.626   9.830   3.117 -0.8471  1.3384  1.5718
29135SOL    HW292217  11.589   9.687   3.154 -0.9407  0.5458 -1.3414
29136SOL     OW92218   8.940   9.495   1.424  0.2125 -0.0076  0.0775
29136SOL    HW192219   8.849   9.473   1.406 -0.5119  1.3642  1.7914
29136SOL    HW292220   8.955   9.464   1.513  1.1337  0.6016  0.1484
29137SOL     OW92221   1.889  12.375  10.983 -0.7977 -0.1836 -0.5226
29137SOL    HW192222   1.858  12.286  10.966 -2.1959 -0.0320  1.0384
29137SOL    HW292223   1.904  12.412  10.896 -1.2532 -1.5749 -1.2136
29138SOL     OW92224   6.675   4.632   2.113  0.3534  0.0873  0.3245
29138SOL    HW192225   6.764   4.628   2.148  0.1732  0.8297  0.8932
29138SOL    HW292226   6.686   4.667   2.024  0.6236  0.3349  0.4533
29139SOL     OW92227  10.154   2.258   3.827  0.1140 -0.2347  0.3951
29139SOL    HW192228  10.217   2.325   3.855  0.3177 -0.4698  0.4998
29139SOL    HW292229  10.178   2.180   3.877  0.3481 -0.5988 -0.2708
29140SOL     OW92230   0.213   1.480   5.059  0.7859 -0.5216 -0.4815
29140SOL    HW192231   0.275   1.481   4.987  2.6284  0.1555  1.0382
29140SOL    HW292232   0.218   1.568   5.097 -0.9417 -0.5201 -0.1572
29141SOL     OW92233   0.213   4.633   1.053 -0.1031 -0.3855  0.1582
29141SOL    HW192234   0.274   4.588   0.996  1.7791  1.4932  0.5601
29141SOL    HW292235   0.267   4.667   1.124 -1.7131  0.8691  0.8510
29142SOL     OW92236  10.088   8.835   8.612  0.2753  0.6853  0.3681
29142SOL    HW192237  10.067   8.743   8.622  1.1765  0.2676 -1.1716
29142SOL    HW292238  10.103   8.866   8.701  1.2318 -0.9944  0.8466
29143SOL     OW92239   0.144   1.536   5.501  0.2583 -0.2235 -0.1889
29143SOL    HW192240   0.062   1.574   5.532  0.1665 -0.5456 -0.0245
29143SOL    HW292241   0.209   1.564   5.565  0.0970 -0.7587  0.2195
29144SOL     OW92242  12.508   5.236   9.039  0.0837 -0.4962  1.0337
29144SOL    HW192243  12.479   5.327   9.031  0.4999 -0.3588  1.1005
29144SOL    HW292244  12.449   5.188   8.981  1.2344  0.1037 -0.7206
29145SOL     OW92245  11.751   2.560   6.471  0.4466  0.1355  0.1359
29145SOL    HW192246  11.839   2.593   6.488  0.8151 -0.9431  0.4240
29145SOL    HW292247  11.715   2.542   6.557  0.7225 -1.3259 -0.0239
29146SOL     OW92248   3.374   6.513   9.263  0.5892  0.3619 -0.2185
29146SOL    HW192249   3.468   6.515   9.245  0.5458  0.5925 -0.4337
29146SOL    HW292250   3.356   6.598   9.305  0.5184  0.2198  0.0403
29147SOL     OW92251   2.077   1.132  11.886  0.3916  0.0664  0.8551
29147SOL    HW192252   2.014   1.097  11.949 -0.9339  1.6185  0.4708
29147SOL    HW292253   2.054   1.090  11.803  1.2331 -0.9239  1.1065
29148SOL     OW92254   8.316   3.297   8.861 -0.0771  0.2148 -0.0946
29148SOL    HW192255   8.340   3.332   8.775 -1.5942  0.1005 -0.5955
29148SOL    HW292256   8.239   3.243   8.844 -0.9554  0.9084  1.4562
29149SOL     OW92257   1.810   9.903  10.257 -0.0971  0.0409 -0.4050
29149SOL    HW192258   1.837   9.965  10.324 -2.1199 -2.5916  3.2170
29149SOL    HW292259   1.714   9.912  10.253 -0.3167 -1.9001 -0.6479
29150SOL     OW92260   3.908   6.389  10.948 -0.5085 -0.2916  0.1928
29150SOL    HW192261   3.904   6.321  11.015  0.1228  1.3753  2.0302
29150SOL    HW292262   3.820   6.427  10.947 -1.0482 -1.4838 -1.2921
29151SOL     OW92263   5.742   6.146   3.499 -0.1848  0.0765  0.2485
29151SOL    HW192264   5.753   6.179   3.410  2.4415  1.0166  0.8264
29151SOL    HW292265   5.740   6.225   3.554  0.5329 -0.5424  1.1905
29152SOL     OW92266   7.038   1.260   5.885  0.3434 -0.1105 -0.4481
29152SOL    HW192267   7.131   1.247   5.904  0.1612  0.4215  0.8997
29152SOL    HW292268   7.023   1.209   5.805  1.4415 -1.5489  0.2027
29153SOL     OW92269   9.916   4.399   9.794 -0.0933  0.5293  0.1566
29153SOL    HW192270   9.822   4.408   9.782  0.1011  1.1060 -1.1354
29153SOL    HW292271   9.928   4.308   9.821 -1.1341  0.8789  1.9714
29154SOL     OW92272   0.914   2.806   6.560 -0.2045 -0.1990 -0.6451
29154SOL    HW192273   0.866   2.770   6.635  1.9399 -1.2189  0.3114
29154SOL    HW292274   0.894   2.746   6.488 -1.3677  0.1352 -0.6183
29155SOL     OW92275   5.628  10.877   4.659  0.5858  0.4183 -0.2595
29155SOL    HW192276   5.603  10.892   4.568  0.5235 -1.0798 -0.5034
29155SOL    HW292277   5.655  10.786   4.662  0.9810  0.5650  1.1448
29156SOL     OW92278   0.820   5.689  11.628  0.1288  0.0106 -0.1028
29156SOL    HW192279   0.851   5.779  11.617 -1.2756  0.5124 -0.1829
29156SOL    HW292280   0.726   5.694  11.611  0.2734 -1.7658 -1.8068
29157SOL     OW92281   5.337   3.087   4.549  0.1224  0.0477 -0.0905
29157SOL    HW192282   5.373   3.164   4.593  2.8052 -0.5212 -1.0989
29157SOL    HW292283   5.309   3.029   4.621  2.5343 -0.0133  0.8818
29158SOL     OW92284   2.016   8.526   5.165  0.3556  0.0227  0.5170
29158SOL    HW192285   2.000   8.620   5.161  1.7038  0.2516  0.0979
29158SOL    HW292286   1.934   8.489   5.199 -1.2134  1.0524 -1.9062
29159SOL     OW92287   2.182   6.621   3.651  0.2980  0.1089  0.7737
29159SOL    HW192288   2.188   6.601   3.557 -0.6901  2.1128  0.2231
29159SOL    HW292289   2.088   6.620   3.670  0.4947 -0.3793  1.7846
29160SOL     OW92290   9.759   4.705   0.487 -0.3366  0.2384 -0.4035
29160SOL    HW192291   9.693   4.718   0.555  2.2057 -1.5015  2.6893
29160SOL    HW292292   9.815   4.782   0.492 -0.0359  0.0215 -0.3749
29161SOL     OW92293   0.722   8.717   2.457  0.6377  0.2072  0.0440
29161SOL    HW192294   0.748   8.786   2.395  0.0765  0.7775  0.4280
29161SOL    HW292295   0.773   8.640   2.431 -0.3429  0.1248 -1.7917
29162SOL     OW92296  12.103   3.915   8.627 -0.0435 -0.4947 -1.0125
29162SOL    HW192297  12.178   3.943   8.575  0.5387  0.7265  0.4131
29162SOL    HW292298  12.035   3.980   8.609 -0.0659 -0.4454 -0.7510
29163SOL     OW92299  10.236  12.644   3.874 -0.6171 -0.2751  0.0670
29163SOL    HW192300  10.233  12.740   3.880  1.6120 -0.1030 -0.6540
29163SOL    HW292301  10.230  12.626   3.780 -0.5933 -0.8246  0.1707
29164SOL     OW92302   8.709   0.105   0.752 -0.2710  0.0738  0.4133
29164SOL    HW192303   8.796   0.068   0.737 -1.3169 -1.6746 -2.0388
29164SOL    HW292304   8.672   0.052   0.823  0.3218  0.2085  0.8256
29165SOL     OW92305   2.396   9.761   4.183 -0.0850 -0.1464 -0.1759
29165SOL    HW192306   2.456   9.809   4.239 -0.5038  1.3393 -0.9519
29165SOL    HW292307   2.418   9.788   4.094 -1.2216 -0.3471 -0.5466
29166SOL     OW92308  11.040   8.667   5.736 -0.9265 -0.1240  0.8703
29166SOL    HW192309  11.033   8.733   5.667 -0.3243 -1.0496 -0.1006
29166SOL    HW292310  10.987   8.702   5.808 -2.1456  0.5426 -0.3022
29167SOL     OW92311   7.564   8.658   5.594 -0.1317 -0.3686  0.4378
29167SOL    HW192312   7.534   8.748   5.598 -0.0023 -0.1828 -1.6406
29167SOL    HW292313   7.636   8.653   5.657  0.9547  1.4543 -0.5916
29168SOL     OW92314   4.152  12.556  12.131  0.8613  1.0095  0.0100
29168SOL    HW192315   4.103  12.521  12.206  0.6918 -0.9982 -0.9868
29168SOL    HW292316   4.085  12.571  12.064  1.3580 -0.1670 -0.7841
29169SOL     OW92317   2.746  11.916   9.751 -0.5680  0.5251  0.1920
29169SOL    HW192318   2.823  11.971   9.759  0.3503 -0.7390  0.3120
29169SOL    HW292319   2.673  11.977   9.744  0.4910  1.7396 -0.4337
29170SOL     OW92320   4.288   2.569  10.057  0.2804  0.3851  0.1883
29170SOL    HW192321   4.350   2.502  10.027 -1.2284 -1.1893  0.3674
29170SOL    HW292322   4.265   2.617   9.978  0.3044 -0.2706 -0.2315
29171SOL     OW92323   1.093   7.977   0.810  0.7316 -0.0954  0.2122
29171SOL    HW192324   1.067   7.886   0.822  2.2023 -0.7955 -1.5481
29171SOL    HW292325   1.071   8.019   0.894 -2.3642 -1.4026  0.2096
29172SOL     OW92326   6.647  10.967   5.902  0.2009  0.0098  0.0719
29172SOL    HW192327   6.615  11.057   5.911 -1.3489 -0.3438 -1.5306
29172SOL    HW292328   6.735  10.977   5.865  0.3052  0.8680  0.5224
29173SOL     OW92329   8.361  11.657   7.322  0.0039 -0.1914 -0.4605
29173SOL    HW192330   8.415  11.687   7.396  0.4835  0.8350 -1.1974
29173SOL    HW292331   8.276  11.639   7.361  0.4896 -0.5144  0.4951
29174SOL     OW92332   8.096   7.535   7.527  0.3023 -0.0998 -0.1278
29174SOL    HW192333   8.051   7.502   7.605 -0.1423 -0.2060 -0.4284
29174SOL    HW292334   8.143   7.613   7.557 -0.0274 -0.0290  0.1985
29175SOL     OW92335  11.379  10.966   8.665 -0.5599 -0.0472  0.0268
29175SOL    HW192336  11.396  11.021   8.741 -0.3219 -1.3112  0.9317
29175SOL    HW292337  11.466  10.934   8.639 -0.6934 -0.0152 -0.4568
29176SOL     OW92338   8.124   8.612   2.871 -0.0467 -0.0630  0.4098
29176SOL    HW192339   8.124   8.517   2.865  0.1994 -0.1257  1.2436
29176SOL    HW292340   8.033   8.637   2.854 -0.0760 -0.4285  0.0190
29177SOL     OW92341  11.946   0.698   9.656  0.2546  0.7283 -0.3600
29177SOL    HW192342  11.937   0.640   9.732 -0.7063  0.3602 -0.7223
29177SOL    HW292343  11.861   0.742   9.650  0.0504  0.2211 -1.6146
29178SOL     OW92344   3.866   4.178  10.714  0.0606  0.5584 -0.0563
29178SOL    HW192345   3.816   4.127  10.778  2.4471  0.8552  2.2374
29178SOL    HW292346   3.805   4.195  10.643 -1.7595 -2.7759  0.5133
29179SOL     OW92347   0.044   7.629   2.966 -0.0109  0.1465 -0.4694
29179SOL    HW192348   0.117   7.649   2.907 -0.5226 -0.4682 -1.3279
29179SOL    HW292349  -0.028   7.604   2.908 -0.9370  0.8107  0.3567
29180SOL     OW92350  11.501   6.283   6.061 -0.4084 -0.2877 -0.4538
29180SOL    HW192351  11.561   6.238   6.003  1.3253  0.1089  0.9630
29180SOL    HW292352  11.440   6.215   6.091  0.0121 -0.9295 -1.0303
29181SOL     OW92353  12.176  11.661  11.928  0.3177 -0.0533 -0.9739
29181SOL    HW192354  12.185  11.745  11.883 -0.4617  1.1013  0.9159
29181SOL    HW292355  12.109  11.676  11.994  1.7279 -1.5099  0.9084
29182SOL     OW92356   9.054   2.328   7.138  0.0485 -0.4974  0.0480
29182SOL    HW192357   9.107   2.400   7.172 -0.6438  0.6736 -1.2480
29182SOL    HW292358   9.117   2.267   7.101  0.6166 -0.2981  0.6730
29183SOL     OW92359   0.123  10.247  11.893 -0.1129  0.5088  0.0937
29183SOL    HW192360   0.111  10.303  11.816  0.1506 -0.2879 -0.5476
29183SOL    HW292361   0.043  10.258  11.944 -0.0333  1.5170  0.0188
29184SOL     OW92362   1.390  12.292   4.100 -0.0153 -0.1813 -0.2728
29184SOL    HW192363   1.429  12.320   4.183  0.5904 -0.6064 -0.4094
29184SOL    HW292364   1.359  12.373   4.060 -2.4424 -0.1732  1.4054
29185SOL     OW92365   2.662  10.432   1.806  0.3792 -0.5148 -0.3010
29185SOL    HW192366   2.684  10.378   1.882 -0.0687  1.1175  1.0545
29185SOL    HW292367   2.746  10.465   1.775  0.3724  1.6086  1.7082
29186SOL     OW92368   2.450   5.915  10.731  0.1314 -0.6731 -0.3329
29186SOL    HW192369   2.427   5.877  10.646  2.1695 -0.2313 -1.1423
29186SOL    HW292370   2.407   5.858  10.795  0.7136 -2.6351 -1.5889
29187SOL     OW92371   0.706   1.081   1.977 -0.1025 -0.0214 -0.1390
29187SOL    HW192372   0.691   1.042   2.063  2.5873 -0.1520  0.3563
29187SOL    HW292373   0.691   1.010   1.915 -0.2973 -0.4110  0.3517
29188SOL     OW92374   3.259   2.090   6.549 -0.1561 -0.1301 -0.3973
29188SOL    HW192375   3.315   2.013   6.533  0.4584  0.5548 -1.7126
29188SOL    HW292376   3.179   2.072   6.500 -0.9746 -0.9407  1.1797
29189SOL     OW92377   3.657   4.021   6.535 -0.0555 -0.3331  0.1859
29189SOL    HW192378   3.649   4.066   6.620  0.9682  0.2266  0.0100
29189SOL    HW292379   3.746   3.985   6.537  0.1713  0.1382 -0.8576
29190SOL     OW92380  10.827   5.252  12.420 -0.3387 -0.1296  0.1855
29190SOL    HW192381  10.850   5.162  12.396  0.5446 -0.8158  3.2243
29190SOL    HW292382  10.733   5.258  12.405 -0.0352 -0.6690 -2.4670
29191SOL     OW92383   7.256  11.826   6.502  0.5145 -0.3199 -0.9236
29191SOL    HW192384   7.346  11.848   6.482  1.0516 -1.3682  0.1728
29191SOL    HW292385   7.204  11.892   6.457  1.7292 -0.7022 -3.0374
29192SOL     OW92386   7.436  10.631   2.123  0.2331 -0.0172 -0.4652
29192SOL    HW192387   7.427  10.705   2.062  0.4899  0.3062 -0.1143
29192SOL    HW292388   7.513  10.584   2.090  1.5072  1.1800  0.6422
29193SOL     OW92389   8.607   1.004  12.454 -0.3642  0.6786  0.0617
29193SOL    HW192390   8.530   1.052  12.485 -0.7212 -0.4954  1.0877
29193SOL    HW292391   8.662   0.995  12.532  0.2151  0.4040 -0.3739
29194SOL     OW92392   6.722   3.430   7.992 -0.1350 -0.3838  0.0126
29194SOL    HW192393   6.807   3.390   8.013  0.3822  1.5175  1.8813
29194SOL    HW292394   6.737   3.473   7.908  1.3612  1.3907  1.1093
29195SOL     OW92395   1.699   7.911  10.679 -0.2495 -0.3330  0.2752
29195SOL    HW192396   1.774   7.903  10.620 -0.5793  0.3889 -0.2584
29195SOL    HW292397   1.673   8.003  10.673 -2.6122 -1.0101 -1.3648
29196SOL     OW92398   7.371   5.697   7.602 -0.1728  0.1486  0.1015
29196SOL    HW192399   7.365   5.620   7.546 -0.4616  1.0302 -1.1291
29196SOL    HW292400   7.347   5.665   7.689 -1.0116 -0.9962 -0.5139
29197SOL     OW92401  10.027   3.825   2.829 -0.6601 -0.2491 -0.1945
29197SOL    HW192402  10.007   3.749   2.883 -0.7283  0.6086  1.0390
29197SOL    HW292403  10.082   3.880   2.885  0.8900 -0.1833 -1.6861
29198SOL     OW92404   7.909   2.255   1.253 -0.1768 -0.2041 -0.1649
29198SOL    HW192405   7.997   2.275   1.220 -0.3705 -0.9788 -1.2283
29198SOL    HW292406   7.858   2.238   1.173 -0.8197 -1.6098  0.5185
29199SOL     OW92407   6.723  10.922  11.560 -0.0016  0.5634  0.1190
29199SOL    HW192408   6.766  10.976  11.494 -0.2328  2.0397  1.1169
29199SOL    HW292409   6.707  10.982  11.633 -2.1569 -0.3734  0.4759
29200SOL     OW92410   0.866   8.328  10.289  0.3779 -0.3083  0.1093
29200SOL    HW192411   0.863   8.282  10.204 -1.8665  0.2432 -0.1661
29200SOL    HW292412   0.796   8.288  10.340  0.0489  1.0987  0.7879
29201SOL     OW92413   4.800   9.535   7.245 -0.6172  0.2384 -0.2364
29201SOL    HW192414   4.847   9.559   7.325 -1.4603  0.8815  0.0851
29201SOL    HW292415   4.865   9.546   7.175 -0.3751  1.4892  0.1508
29202SOL     OW92416   8.625   8.700   8.865 -0.2073 -0.3285  0.2578
29202SOL    HW192417   8.580   8.628   8.910  0.9710 -0.4348  1.3226
29202SOL    HW292418   8.667   8.658   8.790  0.0742 -0.6746  0.6017
29203SOL     OW92419   0.898   2.722   4.819  0.0180  0.2995 -0.3076
29203SOL    HW192420   0.897   2.705   4.913  0.2160 -0.3135 -0.4084
29203SOL    HW292421   0.807   2.740   4.796 -0.4561 -1.9785 -0.4079
29204SOL     OW92422   9.702   7.143   6.201  0.4174 -0.0875  0.3017
29204SOL    HW192423   9.671   7.212   6.259 -0.7092 -1.2999  1.2160
29204SOL    HW292424   9.622   7.102   6.167  1.0324 -1.2228  0.1457
29205SOL     OW92425   3.945   2.849  10.919  0.0861  0.3084 -0.0372
29205SOL    HW192426   3.905   2.914  10.977  3.5266  0.5354  2.4210
29205SOL    HW292427   4.021   2.893  10.882 -0.3818 -0.8079 -2.5118
29206SOL     OW92428  12.486   0.050   6.626  0.1461  0.4188  0.1349
29206SOL    HW192429  12.444  -0.035   6.609  1.5621 -0.0539 -1.1749
29206SOL    HW292430  12.413   0.109   6.647 -1.3777 -0.0774 -3.1542
29207SOL     OW92431   1.806   9.326   5.029  0.3488  0.0377  0.1881
29207SOL    HW192432   1.869   9.350   5.097  0.1142  1.1990  0.0063
29207SOL    HW292433   1.851   9.343   4.946  0.7828 -1.7571  0.0184
29208SOL     OW92434   7.956   3.158   8.865  0.2270 -0.4307  0.4339
29208SOL    HW192435   7.865   3.138   8.883 -0.0918  1.3351  1.0275
29208SOL    HW292436   7.954   3.210   8.784  0.9537 -2.2128 -0.7966
29209SOL     OW92437   9.415   9.215   8.786 -0.7448 -0.5122  0.0794
29209SOL    HW192438   9.440   9.250   8.871 -2.6895  0.2666  0.3885
29209SOL    HW292439   9.323   9.189   8.797 -1.4927  0.9017 -2.1014
29210SOL     OW92440   8.692   8.668  11.068  0.4031  0.4480  0.9940
29210SOL    HW192441   8.635   8.605  11.112  1.2953 -1.2206 -0.1296
29210SOL    HW292442   8.632   8.722  11.016 -0.4300  0.9173  2.3931
29211SOL     OW92443   1.095   0.812  12.156  0.0859 -0.0131  0.0689
29211SOL    HW192444   1.176   0.847  12.193 -0.9282  1.2496  1.2138
29211SOL    HW292445   1.033   0.884  12.163 -1.5422 -1.4148  0.5856
29212SOL     OW92446   3.078   2.102  10.509  0.5683 -0.2141 -0.1085
29212SOL    HW192447   3.078   2.079  10.416 -0.5035  1.4306 -0.5510
29212SOL    HW292448   2.989   2.083  10.539  0.5780  0.3341  0.2925
29213SOL     OW92449   8.605  10.466   1.226  0.0218 -0.2492 -0.3002
29213SOL    HW192450   8.689  10.425   1.248  0.8331 -1.4922 -4.6685
29213SOL    HW292451   8.629  10.537   1.166 -1.9857 -0.6734 -1.6815
29214SOL     OW92452  11.042   3.115   1.850 -0.8365  0.1675 -0.0192
29214SOL    HW192453  11.092   3.047   1.895 -2.7075 -2.4043 -1.5077
29214SOL    HW292454  10.959   3.119   1.898 -1.8538 -0.7605 -1.6168
29215SOL     OW92455   6.905   4.744   7.157  0.0935 -0.1155  0.1627
29215SOL    HW192456   6.819   4.722   7.194  1.2613 -3.3565  1.2771
29215SOL    HW292457   6.932   4.822   7.205 -2.1818  1.0077 -0.2505
29216SOL     OW92458   9.364   3.210   2.791 -0.5085 -0.4452  0.1599
29216SOL    HW192459   9.296   3.208   2.725  1.1577 -0.7667 -1.6496
29216SOL    HW292460   9.362   3.299   2.826 -1.4861 -0.2974 -0.2651
29217SOL     OW92461   5.875   3.002   6.055 -0.2636  0.3927  0.4848
29217SOL    HW192462   5.860   2.940   5.984  0.8280  0.2901  0.3370
29217SOL    HW292463   5.932   3.069   6.017 -0.2430  0.7119  1.0690
29218SOL     OW92464   4.502   7.691  11.393  0.6985  0.3926 -0.1601
29218SOL    HW192465   4.548   7.772  11.418 -0.9169  1.3296 -0.0515
29218SOL    HW292466   4.554   7.656  11.321  2.8334  0.1550  1.3600
29219SOL     OW92467   5.849   5.364   5.243 -0.7119 -0.1902 -0.3221
29219SOL    HW192468   5.838   5.291   5.182  0.5354 -0.3475 -0.3790
29219SOL    HW292469   5.885   5.324   5.322 -1.0325  0.2096  0.0279
29220SOL     OW92470   6.394   0.815   7.002 -0.4338  0.0087 -0.8458
29220SOL    HW192471   6.375   0.898   6.959  0.2834 -0.2818 -1.7698
29220SOL    HW292472   6.379   0.749   6.934 -0.0307 -0.5279 -0.4277
29221SOL     OW92473   0.392   9.482   9.274  0.7929  0.7820 -0.1709
29221SOL    HW192474   0.345   9.409   9.314 -0.4055  2.6077  2.0182
29221SOL    HW292475   0.481   9.450   9.263  0.4659 -0.8290  1.3363
29222SOL     OW92476  11.534   4.860  11.050  0.2713  0.0592 -0.3351
29222SOL    HW192477  11.625   4.849  11.022  0.7348  0.7098  0.8504
29222SOL    HW292478  11.490   4.898  10.975  0.7699 -1.0841 -1.2310
29223SOL     OW92479   4.471   6.663  11.360 -0.3731 -0.4301 -0.4372
29223SOL    HW192480   4.445   6.754  11.371 -0.2585 -0.4142 -0.3018
29223SOL    HW292481   4.399   6.613  11.399 -0.6425 -0.4130 -0.8954
29224SOL     OW92482  10.264   1.106   0.171 -0.0471  0.0846 -0.3597
29224SOL    HW192483  10.243   1.195   0.141 -0.9720 -0.1230 -0.3573
29224SOL    HW292484  10.359   1.100   0.161 -0.1182  0.6162 -1.6264
29225SOL     OW92485   8.724   9.582   1.674 -0.1471 -0.1057  0.1441
29225SOL    HW192486   8.733   9.487   1.679  0.5087 -0.1304 -1.0430
29225SOL    HW292487   8.629   9.598   1.676 -0.2767 -0.8228 -0.1300
29226SOL     OW92488   9.519   5.667  10.589 -0.2822 -0.3115  0.6257
29226SOL    HW192489   9.565   5.660  10.505  0.4600  0.3977  0.9635
29226SOL    HW292490   9.550   5.592  10.640  1.7408  1.0077  1.4234
29227SOL     OW92491   7.427   5.623   4.309 -0.1715 -0.1947 -0.1031
29227SOL    HW192492   7.353   5.563   4.314 -0.8958  0.6187 -0.5713
29227SOL    HW292493   7.415   5.667   4.224  1.0900 -0.3476 -0.3724
29228SOL     OW92494   7.900   7.367   9.688  0.5881 -0.3972 -0.1280
29228SOL    HW192495   7.964   7.389   9.621 -0.9666 -0.6264 -1.7809
29228SOL    HW292496   7.940   7.294   9.737  1.7796 -0.1861 -0.7546
29229SOL     OW92497   3.315  11.221   3.489  0.3401 -0.1163  0.4185
29229SOL    HW192498   3.226  11.248   3.513  0.1953 -1.8792  2.0785
29229SOL    HW292499   3.306  11.130   3.460  1.1402  0.7154 -2.8977
29230SOL     OW92500   6.499   7.776   3.397  0.8268  0.0474 -0.1157
29230SOL    HW192501   6.495   7.716   3.472  1.2325 -1.0924 -0.9830
29230SOL    HW292502   6.576   7.748   3.347  1.1217  1.4033 -0.4652
29231SOL     OW92503  10.816   8.849   3.569 -0.1468  0.1002  0.6353
29231SOL    HW192504  10.868   8.793   3.512 -0.6879  0.4321 -0.2187
29231SOL    HW292505  10.769   8.907   3.508  0.4611  1.5368  1.4868
29232SOL     OW92506   6.710   0.626  12.066 -0.1071  0.0295 -0.3883
29232SOL    HW192507   6.786   0.576  12.036  0.3503  0.1242  0.5730
29232SOL    HW292508   6.636   0.588  12.019  0.3408 -1.0138 -0.2832
29233SOL     OW92509   4.591  11.390   9.687 -0.2231 -0.2781  0.5981
29233SOL    HW192510   4.661  11.329   9.709 -0.7056 -0.8348  0.6280
29233SOL    HW292511   4.513  11.353   9.729 -0.7013 -0.1139 -0.1228
29234SOL     OW92512   3.372   9.369   1.798  0.3073  0.0424 -0.2490
29234SOL    HW192513   3.318   9.361   1.719  1.0099 -1.8033 -0.6021
29234SOL    HW292514   3.424   9.288   1.800  1.5542  0.8150  1.1895
29235SOL     OW92515  11.555  10.097   6.194  0.3576 -0.6264 -0.5133
29235SOL    HW192516  11.547  10.068   6.284  1.4169  1.9503  0.4969
29235SOL    HW292517  11.649  10.111   6.181 -0.0022  1.7043 -1.0512
29236SOL     OW92518   0.894   5.981  11.287  0.0185  0.5467 -0.7406
29236SOL    HW192519   0.924   5.900  11.247 -0.0034  0.8728 -1.4180
29236SOL    HW292520   0.808   5.959  11.323  0.1686  0.1739 -0.6026
29237SOL     OW92521   3.761   2.351   1.216 -0.0031  0.0452 -0.5457
29237SOL    HW192522   3.816   2.281   1.253 -1.1806 -1.4043 -1.4275
29237SOL    HW292523   3.725   2.396   1.293  0.3437 -0.6629  0.0515
29238SOL     OW92524   1.815  12.499   6.759 -0.1376 -0.4943 -0.3075
29238SOL    HW192525   1.820  12.478   6.665  0.2773  0.1039 -0.4230
29238SOL    HW292526   1.816  12.594   6.763 -0.6913 -0.5038  0.2861
29239SOL     OW92527   5.693   0.447   6.915  0.7485  0.5008 -0.2144
29239SOL    HW192528   5.650   0.494   6.843  1.6985 -0.5411 -1.5031
29239SOL    HW292529   5.659   0.489   6.994 -1.4123  0.7643 -1.2112
29240SOL     OW92530   3.623   0.825  12.475  0.2220 -0.4704 -0.8400
29240SOL    HW192531   3.663   0.852  12.392 -0.8824  0.2991 -1.1417
29240SOL    HW292532   3.618   0.905  12.527  1.3611 -1.0277  0.2039
29241SOL     OW92533   8.451   2.948   6.739  0.0445  0.1690  0.5084
29241SOL    HW192534   8.463   3.043   6.738 -0.9398  0.3005 -0.0785
29241SOL    HW292535   8.370   2.934   6.690  1.7417 -1.2113 -2.1470
29242SOL     OW92536   0.545   6.745   7.360  0.0727  0.4538  0.0729
29242SOL    HW192537   0.537   6.721   7.268 -0.1304 -2.4073  0.7438
29242SOL    HW292538   0.456   6.764   7.389  0.1208  1.2236 -0.2634
29243SOL     OW92539   2.708   3.948   9.162  0.4567  0.5140 -0.2051
29243SOL    HW192540   2.683   3.900   9.241  1.4755 -1.1629 -0.8487
29243SOL    HW292541   2.638   4.012   9.150  0.6426  1.3077  2.4254
29244SOL     OW92542   4.419   0.945   6.752  0.2552 -0.0577 -0.6487
29244SOL    HW192543   4.422   0.878   6.684 -2.6775 -1.2036  0.1911
29244SOL    HW292544   4.359   1.011   6.717 -1.6425 -0.8741  0.9162
29245SOL     OW92545   2.444   2.289   6.603  0.4819 -0.0248  0.1917
29245SOL    HW192546   2.537   2.274   6.584  0.3133 -0.6126 -0.2106
29245SOL    HW292547   2.414   2.209   6.645 -0.0974 -0.2816 -0.6685
29246SOL     OW92548   8.160   8.567   7.307  0.0822 -0.1938 -0.2635
29246SOL    HW192549   8.092   8.522   7.356  0.1627 -0.3284 -0.2753
29246SOL    HW292550   8.224   8.499   7.285  0.6839  0.0906  0.5410
29247SOL     OW92551   0.699   3.291   3.246 -0.1046  0.5814  0.4498
29247SOL    HW192552   0.746   3.210   3.268  1.3119  1.0362 -0.7384
29247SOL    HW292553   0.656   3.271   3.163  0.4166  1.0857  0.0476
29248SOL     OW92554   4.899   5.912   4.948  0.1372  0.9158 -0.4183
29248SOL    HW192555   4.817   5.871   4.922  0.0979  1.4150 -1.1217
29248SOL    HW292556   4.884   6.006   4.935  1.2097  0.9252 -1.7094
29249SOL     OW92557   7.335  10.360   2.532  0.1257 -0.0654 -0.0333
29249SOL    HW192558   7.297  10.402   2.456  0.0165 -1.0879 -0.5605
29249SOL    HW292559   7.394  10.426   2.569 -0.9236  0.9512 -0.1391
29250SOL     OW92560   6.181   3.330  11.437  0.5601  0.0150  0.3978
29250SOL    HW192561   6.126   3.374  11.372  0.7734  1.5285  1.1967
29250SOL    HW292562   6.262   3.381  11.439  1.2011 -0.9812  0.6967
29251SOL     OW92563   0.721   3.260  11.359  0.1410 -0.6198 -0.1481
29251SOL    HW192564   0.714   3.185  11.419 -0.0231 -1.4376 -1.1732
29251SOL    HW292565   0.630   3.287  11.344  0.2038 -0.1502  0.2844
29252SOL     OW92566  12.302   5.832   6.762 -0.4966  0.0075 -0.8413
29252SOL    HW192567  12.246   5.759   6.736 -1.5502  0.1342  0.9175
29252SOL    HW292568  12.244   5.908   6.760  0.3063  0.6203 -1.5433
29253SOL     OW92569   4.474   6.585  11.745 -0.4193  0.6294  0.5008
29253SOL    HW192570   4.546   6.522  11.748  1.7581  2.6559 -2.6569
29253SOL    HW292571   4.423   6.559  11.668 -0.4707  1.7296  0.1498
29254SOL     OW92572  12.438   0.621   2.378 -0.3200 -0.1562 -0.1022
29254SOL    HW192573  12.376   0.587   2.314 -0.7727  0.8707 -0.2249
29254SOL    HW292574  12.384   0.667   2.442  0.3158  0.9963 -0.3650
29255SOL     OW92575   0.140  12.267  11.340  0.2396 -0.2844  0.1553
29255SOL    HW192576   0.105  12.314  11.416 -0.2185  1.1119 -0.8842
29255SOL    HW292577   0.233  12.257  11.358 -0.2029 -1.9018  1.8624
29256SOL     OW92578  11.533   4.239   8.670 -0.3116  0.1591 -0.1721
29256SOL    HW192579  11.545   4.278   8.757  0.4480 -0.0486 -0.1756
29256SOL    HW292580  11.523   4.314   8.611  1.2751  0.3896 -0.1990
29257SOL     OW92581   5.803  10.656   9.410 -0.1573 -0.0531  0.1644
29257SOL    HW192582   5.792  10.722   9.342  3.2706 -1.3549 -1.9145
29257SOL    HW292583   5.819  10.706   9.490  1.2016  1.6734 -1.1007
29258SOL     OW92584   5.234   6.098   5.201  0.1891 -0.1968  0.3620
29258SOL    HW192585   5.278   6.065   5.280 -0.2523 -0.7029  0.4028
29258SOL    HW292586   5.149   6.053   5.201 -1.3723  2.5118  1.5885
29259SOL     OW92587  10.911  10.269   7.289 -0.0852 -0.1051  0.4927
29259SOL    HW192588  10.869  10.242   7.371 -0.3448  1.0171  0.7482
29259SOL    HW292589  11.001  10.238   7.296  0.4435  1.6147  2.0760
29260SOL     OW92590   3.530   5.541   2.973 -0.6540 -0.0779 -0.1113
29260SOL    HW192591   3.559   5.450   2.970 -0.7811 -0.1407  0.4302
29260SOL    HW292592   3.600   5.590   2.928 -0.5435 -0.4264 -0.3264
29261SOL     OW92593   8.538   4.555   4.360  0.0452 -1.0916  0.0820
29261SOL    HW192594   8.490   4.545   4.442  1.8413  2.2234  1.7159
29261SOL    HW292595   8.483   4.611   4.306  0.0194 -1.1543  0.0423
29262SOL     OW92596   2.761   7.964  10.627 -0.8406 -0.2537  0.2699
29262SOL    HW192597   2.721   7.933  10.546 -0.9932 -0.1396  0.3017
29262SOL    HW292598   2.735   7.898  10.692 -0.0317 -0.7900  0.0613
29263SOL     OW92599   3.715   4.816  11.749 -0.5173  1.0383  0.1307
29263SOL    HW192600   3.694   4.815  11.656 -3.2662 -0.6964  0.6312
29263SOL    HW292601   3.800   4.774  11.756 -1.6167 -1.7021 -1.4499
29264SOL     OW92602  10.915   0.483   0.679  0.2055 -0.2112 -0.0323
29264SOL    HW192603  10.865   0.404   0.698  0.5379  0.0258  2.0999
29264SOL    HW292604  10.849   0.551   0.665 -0.2874  0.3915  3.9887
29265SOL     OW92605   1.554   6.253   5.870 -0.6679 -0.1518  0.7184
29265SOL    HW192606   1.570   6.334   5.919  0.9818  0.2830 -0.4562
29265SOL    HW292607   1.553   6.184   5.937  0.8359  0.5003  1.4572
29266SOL     OW92608   4.838  11.695  12.641  0.3667  0.3858 -0.2256
29266SOL    HW192609   4.758  11.718  12.595  0.4755  0.8336 -0.1973
29266SOL    HW292610   4.896  11.661  12.573  0.8918  1.9756 -0.6173
29267SOL     OW92611   6.134   2.586   2.327 -0.0093 -0.5354 -0.3592
29267SOL    HW192612   6.141   2.632   2.411 -0.5390  0.6070 -0.9116
29267SOL    HW292613   6.082   2.508   2.346  0.0393 -0.3815  0.4139
29268SOL     OW92614  11.019  10.573   0.015  0.0000  0.0087 -0.0844
29268SOL    HW192615  10.997  10.483  -0.010 -0.4812  0.4193 -1.1970
29268SOL    HW292616  10.995  10.579   0.107  0.4210 -1.1171  0.1091
29269SOL     OW92617   4.689   1.815   4.087  0.3102  0.6746  0.4689
29269SOL    HW192618   4.598   1.817   4.057 -0.4559 -2.0990  2.2783
29269SOL    HW292619   4.740   1.840   4.010 -1.8430 -0.3033 -1.3837
29270SOL     OW92620   2.575   6.629   3.162 -0.1420 -0.2668 -0.2046
29270SOL    HW192621   2.525   6.690   3.216 -2.0068 -1.1814 -0.7957
29270SOL    HW292622   2.551   6.651   3.072  2.5502  0.9191 -0.7079
29271SOL     OW92623  10.811  11.760   3.628 -0.2513 -0.4385 -0.2005
29271SOL    HW192624  10.722  11.766   3.592 -0.3829  2.6886  0.3918
29271SOL    HW292625  10.799  11.775   3.722  0.8018 -1.5334  0.1397
29272SOL     OW92626   2.350  11.855   0.674 -0.5178  0.5621 -0.3707
29272SOL    HW192627   2.284  11.803   0.629 -0.1509  0.2169 -0.5070
29272SOL    HW292628   2.394  11.794   0.732  0.8015  0.4150 -1.4843
29273SOL     OW92629   7.404  11.928   7.033 -0.1187  0.3233  0.1180
29273SOL    HW192630   7.447  11.994   7.087 -2.9587  3.1477 -0.8332
29273SOL    HW292631   7.429  11.950   6.943  0.5184 -1.2259 -0.1224
29274SOL     OW92632   7.559   4.932   8.775  0.0791 -0.1710 -0.4542
29274SOL    HW192633   7.482   4.913   8.829 -0.9020  0.9683 -1.3968
29274SOL    HW292634   7.537   5.014   8.730  1.7756  0.0767 -0.8900
29275SOL     OW92635  11.083  11.428  11.605 -0.0779 -0.0372 -0.4196
29275SOL    HW192636  11.082  11.403  11.513 -0.4672 -0.5911 -0.2709
29275SOL    HW292637  10.993  11.413  11.634  0.0453  0.1316  0.0496
29276SOL     OW92638   6.024   1.245   5.034  0.0497 -0.3151 -0.0343
29276SOL    HW192639   6.028   1.223   5.128  0.8789 -0.6007 -0.1292
29276SOL    HW292640   6.029   1.340   5.032 -1.8177 -0.1720  0.2920
29277SOL     OW92641   8.772   7.691   8.870 -0.1265  0.1245 -1.0275
29277SOL    HW192642   8.791   7.621   8.807 -0.1764 -0.0218 -0.8786
29277SOL    HW292643   8.711   7.652   8.932 -0.0970  0.2778 -0.9022
29278SOL     OW92644  11.529  12.221  10.139  0.1142  0.2351  0.2751
29278SOL    HW192645  11.451  12.254  10.183 -1.3873 -0.1095 -1.9645
29278SOL    HW292646  11.499  12.196  10.052  2.4016 -1.5162 -0.1117
29279SOL     OW92647  10.029   0.617   4.589  0.0025 -0.5424  0.0151
29279SOL    HW192648   9.947   0.649   4.551  0.5521  0.1021 -0.6680
29279SOL    HW292649  10.095   0.681   4.560  0.5467 -0.3695  1.5781
29280SOL     OW92650  10.368   6.318   2.825 -0.0172  0.3591 -0.1531
29280SOL    HW192651  10.298   6.306   2.889  0.2641  2.7138  0.6954
29280SOL    HW292652  10.447   6.286   2.869  0.2783  2.5238  0.9811
29281SOL     OW92653  11.772  10.110   1.304  0.3507  0.1166 -0.8554
29281SOL    HW192654  11.766  10.041   1.370 -2.5269  0.0411 -1.0588
29281SOL    HW292655  11.773  10.064   1.220 -0.0977  0.2863 -0.9565
29282SOL     OW92656   1.755   8.077  12.448 -0.2061  0.2842  0.0147
29282SOL    HW192657   1.813   8.006  12.422  0.0749  0.2663  0.6994
29282SOL    HW292658   1.773   8.146  12.384 -0.7576 -0.3780 -0.8997
29283SOL     OW92659  11.044   2.731  12.258  0.3470  0.0830  0.2996
29283SOL    HW192660  10.998   2.777  12.188 -0.8160 -1.3278  0.0930
29283SOL    HW292661  10.975   2.685  12.306  1.4722 -1.7398  0.2632
29284SOL     OW92662   4.812  10.309   2.719  1.1311  0.4502  0.3165
29284SOL    HW192663   4.721  10.301   2.690  1.1971 -1.5293  0.5499
29284SOL    HW292664   4.864  10.285   2.643  1.4153  0.1713  0.5969
29285SOL     OW92665   5.216   5.683  10.747  0.0253  0.3057 -0.2881
29285SOL    HW192666   5.152   5.666  10.678 -2.6763 -0.9144  2.3065
29285SOL    HW292667   5.195   5.771  10.778  2.1218  1.4128 -1.7813
29286SOL     OW92668   5.744   8.730  12.141  0.5107  0.2307  0.2756
29286SOL    HW192669   5.756   8.817  12.179 -1.4928 -0.2163  2.1236
29286SOL    HW292670   5.650   8.714  12.146  0.8144 -2.0217 -0.0985
29287SOL     OW92671  10.170  10.992   3.139  0.0960  0.3912  0.0241
29287SOL    HW192672  10.115  10.914   3.132  0.6712 -0.0950  0.7865
29287SOL    HW292673  10.214  10.998   3.055  0.4511 -0.4260  0.1422
29288SOL     OW92674  10.342   4.238   2.646  0.3726 -0.2941 -0.0173
29288SOL    HW192675  10.260   4.278   2.672  0.3869 -1.0287  1.2510
29288SOL    HW292676  10.319   4.183   2.570 -0.3999 -0.7895  0.5577
29289SOL     OW92677   3.300   1.623   3.516 -0.0131 -0.7348 -0.7968
29289SOL    HW192678   3.345   1.558   3.462  0.6338 -0.2644 -0.8379
29289SOL    HW292679   3.365   1.649   3.581 -0.5203 -0.6972 -0.2957
29290SOL     OW92680   1.947   8.556   4.492  0.5012 -0.2576 -0.2684
29290SOL    HW192681   1.986   8.580   4.408  0.3162  0.1589 -0.2342
29290SOL    HW292682   1.856   8.537   4.470 -0.0790  1.8119  0.1474
29291SOL     OW92683   3.539   8.214   9.178 -0.2576 -0.2290 -0.1062
29291SOL    HW192684   3.466   8.245   9.123 -0.2868  0.3245  0.2400
29291SOL    HW292685   3.584   8.150   9.123  0.8158  1.6426 -1.4986
29292SOL     OW92686   6.980  12.231   8.803  0.2044  0.3196 -0.0339
29292SOL    HW192687   6.900  12.225   8.855  0.1029 -0.7510 -0.2937
29292SOL    HW292688   6.992  12.325   8.789 -0.6949  0.5282  0.4742
29293SOL     OW92689   2.799  10.344   1.280  0.2636 -0.1176  0.2014
29293SOL    HW192690   2.884  10.384   1.297  0.2571  0.4742 -1.0254
29293SOL    HW292691   2.818  10.267   1.227  0.1012 -0.5585  0.7684
29294SOL     OW92692   9.558   8.293   1.779  0.0636 -0.7005  0.2565
29294SOL    HW192693   9.569   8.331   1.691 -1.3305 -0.7799  0.0098
29294SOL    HW292694   9.577   8.365   1.839 -0.2113 -0.2781 -0.1535
29295SOL     OW92695   8.893   7.661   7.208 -0.6855  0.1531  0.8034
29295SOL    HW192696   8.928   7.737   7.161 -0.9414 -0.8439 -1.0892
29295SOL    HW292697   8.906   7.683   7.300  1.3951  1.4757  0.2784
29296SOL     OW92698   1.796   3.260   0.205  0.0213 -0.1201 -0.0814
29296SOL    HW192699   1.831   3.256   0.116  0.4749  0.5300  0.0568
29296SOL    HW292700   1.752   3.176   0.218 -0.2140 -0.1423 -0.9857
29297SOL     OW92701   0.337   8.366   1.865 -0.1703 -0.2719 -0.2332
29297SOL    HW192702   0.341   8.309   1.789  1.2566  1.8419 -1.8576
29297SOL    HW292703   0.250   8.405   1.861 -0.2743 -0.5256 -0.4902
29298SOL     OW92704   5.140   0.518   0.501  0.1850  0.4168 -0.3183
29298SOL    HW192705   5.224   0.552   0.531  0.9591 -1.9684  0.4082
29298SOL    HW292706   5.091   0.501   0.581  0.1926 -0.9734 -0.5766
29299SOL     OW92707   3.199   4.333   7.643  0.2576  0.3235 -0.5266
29299SOL    HW192708   3.221   4.390   7.717 -1.4638  1.2680 -0.6757
29299SOL    HW292709   3.206   4.390   7.566  4.1190 -1.1661 -1.4785
29300SOL     OW92710  10.808   1.801   0.630 -0.8456 -0.0479  0.1455
29300SOL    HW192711  10.720   1.838   0.621 -0.2808  1.2983 -0.1328
29300SOL    HW292712  10.851   1.819   0.546  0.1646  0.6683  0.7880
29301SOL     OW92713   8.237  11.231   7.533 -0.8264  0.4407  0.3730
29301SOL    HW192714   8.286  11.272   7.605 -1.3547  1.1835  0.3135
29301SOL    HW292715   8.153  11.277   7.531 -1.7764 -1.1907  0.8336
29302SOL     OW92716   8.932  10.496   0.121  0.1838 -0.0610 -0.3539
29302SOL    HW192717   8.839  10.506   0.101  0.3602  0.1316 -1.0952
29302SOL    HW292718   8.948  10.558   0.192  0.0729  1.0394 -1.2526
29303SOL     OW92719   4.917   9.556   0.079  0.5541 -0.1610  0.0862
29303SOL    HW192720   4.829   9.564   0.116 -0.0042  1.6726 -1.4277
29303SOL    HW292721   4.902   9.534  -0.013  1.7740 -1.7248  0.2238
29304SOL     OW92722   7.151   7.150   3.834 -0.4184 -0.3226 -0.7149
29304SOL    HW192723   7.247   7.153   3.835 -0.4086 -0.3802  0.8242
29304SOL    HW292724   7.129   7.084   3.769  0.5685  0.1050 -1.5007
29305SOL     OW92725   3.200   7.197  12.234  0.0486  0.0842 -0.4160
29305SOL    HW192726   3.212   7.135  12.306 -0.3341 -0.5139 -0.8596
29305SOL    HW292727   3.206   7.284  12.275 -1.5004 -0.2406  0.5602
29306SOL     OW92728   8.256   8.770   8.295  0.1895  0.3008 -0.2675
29306SOL    HW192729   8.265   8.818   8.213 -1.9927  0.6510 -0.3419
29306SOL    HW292730   8.277   8.680   8.273 -0.4740  0.3760 -1.2477
29307SOL     OW92731   9.382   2.837   7.154  0.2885  0.7958 -0.2164
29307SOL    HW192732   9.396   2.763   7.212  1.9763  0.7392 -0.6438
29307SOL    HW292733   9.326   2.803   7.084 -0.4832  0.4526  0.5547
29308SOL     OW92734   0.687   6.617  11.408 -0.4256  0.6298 -0.2138
29308SOL    HW192735   0.681   6.707  11.375 -0.1670  0.6184 -0.2912
29308SOL    HW292736   0.780   6.598  11.410 -0.4528  0.5227  0.2393
29309SOL     OW92737   6.649   5.864   7.070 -0.2894 -0.1199  0.3805
29309SOL    HW192738   6.564   5.823   7.053 -0.6195  1.3154 -1.7626
29309SOL    HW292739   6.630   5.957   7.075  1.3652  0.4367 -2.1140
29310SOL     OW92740   6.418   2.873   0.901  0.2996  0.4506  0.0334
29310SOL    HW192741   6.474   2.885   0.978  0.6191  1.1978 -0.3063
29310SOL    HW292742   6.407   2.778   0.894  2.1839  0.2270 -0.3480
29311SOL     OW92743  11.508   8.593   2.637  0.3405 -0.8177 -0.3177
29311SOL    HW192744  11.496   8.684   2.609  0.8614 -0.8866 -0.7710
29311SOL    HW292745  11.464   8.589   2.722  1.1087  0.0946  0.1493
29312SOL     OW92746  12.296  11.263   7.732  0.3560  0.1835  0.4126
29312SOL    HW192747  12.386  11.292   7.724 -0.5508  3.4655  0.5376
29312SOL    HW292748  12.298  11.195   7.798  3.0008 -1.6252 -1.3470
29313SOL     OW92749   3.373   2.850   0.030  0.2412 -0.0196 -0.3993
29313SOL    HW192750   3.421   2.792  -0.028 -0.2696 -3.3065  2.1822
29313SOL    HW292751   3.283   2.818   0.028 -0.1404  0.8986  0.8726
29314SOL     OW92752   1.897   8.427   9.520  0.0033  0.1579  0.0032
29314SOL    HW192753   1.846   8.351   9.549 -1.3683  1.3916  0.9602
29314SOL    HW292754   1.966   8.435   9.586 -0.6813  0.5401  0.6945
29315SOL     OW92755  10.584   2.188   6.826 -0.0762 -0.2817 -0.5960
29315SOL    HW192756  10.529   2.137   6.885 -0.8083  1.4758  0.2868
29315SOL    HW292757  10.599   2.129   6.752 -1.1660 -1.6499  0.2151
29316SOL     OW92758   1.173   6.129  12.346 -0.6176 -0.3922  0.2289
29316SOL    HW192759   1.164   6.034  12.356  1.8311 -0.5118  2.2226
29316SOL    HW292760   1.115   6.151  12.272 -0.0726 -3.6336 -1.3406
29317SOL     OW92761   4.559  11.933   1.811  0.3291  0.2075 -0.0715
29317SOL    HW192762   4.500  11.918   1.738  1.3681  0.5309 -1.0015
29317SOL    HW292763   4.503  11.967   1.881 -0.5607  0.6311 -0.9704
29318SOL     OW92764   8.614   1.486   1.781 -0.0309  0.3749  0.3626
29318SOL    HW192765   8.545   1.538   1.739  1.6335  1.4509 -1.1758
29318SOL    HW292766   8.610   1.510   1.874 -0.6723  1.6457  0.0183
29319SOL     OW92767  11.011   0.749   4.470 -0.1305  0.6090  0.6597
29319SOL    HW192768  10.959   0.800   4.407 -1.6971 -1.6949 -0.0200
29319SOL    HW292769  10.950   0.687   4.508  1.7404 -1.0212  1.1977
29320SOL     OW92770   4.563  12.020  12.042 -0.3762  0.1700  0.2072
29320SOL    HW192771   4.596  12.049  11.957 -0.1889  0.2846  0.3189
29320SOL    HW292772   4.636  12.035  12.103 -0.6220  0.4048  0.4504
29321SOL     OW92773   4.132  12.606   8.468 -0.1896 -0.3268 -0.2400
29321SOL    HW192774   4.178  12.619   8.385 -1.0973  1.6383 -0.4816
29321SOL    HW292775   4.202  12.588   8.531  0.6654 -0.0414 -1.0799
29322SOL     OW92776  10.753  12.305   3.651  0.2391 -0.9013 -0.5545
29322SOL    HW192777  10.658  12.295   3.647  0.2204 -1.2837  0.4471
29322SOL    HW292778  10.767  12.388   3.696  0.3314 -2.0068  1.6079
29323SOL     OW92779   8.032   3.403   0.107 -0.1010 -0.4133  0.2334
29323SOL    HW192780   8.033   3.471   0.175  0.8961 -0.0432 -0.1398
29323SOL    HW292781   8.121   3.369   0.105 -0.3569 -1.0704 -0.2499
29324SOL     OW92782   5.550   5.165  12.454  0.6786  0.2115 -0.1363
29324SOL    HW192783   5.570   5.205  12.539  1.3090  0.9497 -0.6207
29324SOL    HW292784   5.484   5.223  12.415 -1.4891 -1.4458  0.8527
29325SOL     OW92785   2.748   1.923   6.411  0.1202  0.3030  0.4064
29325SOL    HW192786   2.686   1.915   6.338 -1.1551 -0.0092  1.4929
29325SOL    HW292787   2.703   1.884   6.485  1.6589  0.0383  1.2289
29326SOL     OW92788   8.529   4.031   2.451  0.1596  0.7095 -0.5002
29326SOL    HW192789   8.434   4.030   2.438  0.0465  2.2973 -0.0680
29326SOL    HW292790   8.548   3.957   2.509 -0.7697  0.2267 -0.8027
29327SOL     OW92791  11.321   5.214   4.316  0.8143 -0.2142  0.0417
29327SOL    HW192792  11.356   5.164   4.243  1.0586 -0.6451  0.4482
29327SOL    HW292793  11.398   5.254   4.357  0.4831  2.0301 -1.3653
29328SOL     OW92794   9.425   4.294   6.574  0.0377 -0.2155 -0.7884
29328SOL    HW192795   9.516   4.322   6.588  0.3428 -1.1366 -0.8959
29328SOL    HW292796   9.400   4.249   6.655 -0.1128 -0.5182 -1.0013
29329SOL     OW92797   9.340   4.546   5.255 -0.2189  0.7102  0.7247
29329SOL    HW192798   9.424   4.581   5.225 -0.2713  1.5743  1.5363
29329SOL    HW292799   9.328   4.585   5.342 -1.5578  0.7637  0.5273
29330SOL     OW92800   6.442   0.913   5.171 -0.0226  0.4702 -0.0259
29330SOL    HW192801   6.512   0.852   5.196  0.0811  0.2154 -0.9207
29330SOL    HW292802   6.408   0.945   5.255  0.4732 -0.1888  0.4425
29331SOL     OW92803   4.804   7.209   8.864  0.9234 -0.0526  0.5715
29331SOL    HW192804   4.842   7.135   8.912 -1.9342 -1.4105  0.9744
29331SOL    HW292805   4.758   7.259   8.932 -2.8277 -1.7612 -0.4601
29332SOL     OW92806   1.959   6.753   0.267  0.2871 -0.4155 -0.5297
29332SOL    HW192807   1.891   6.739   0.201 -1.9367 -0.5759  1.6532
29332SOL    HW292808   2.013   6.674   0.264 -1.2157 -1.4791 -0.5960
29333SOL     OW92809   9.953   1.077   0.230 -0.2774 -0.3053  0.1005
29333SOL    HW192810  10.044   1.068   0.200  0.1366  0.3428  1.0817
29333SOL    HW292811   9.948   1.019   0.306 -1.2422 -1.7672 -1.0469
29334SOL     OW92812   0.322   1.637  11.415  0.1039  0.3442 -0.1969
29334SOL    HW192813   0.396   1.643  11.355  0.4304  0.9438  0.2519
29334SOL    HW292814   0.292   1.727  11.425 -1.1151  0.0398 -0.8850
29335SOL     OW92815  10.114   1.163   8.861  0.1298  0.5221 -0.0993
29335SOL    HW192816  10.149   1.126   8.780  0.5890 -3.7359  1.7761
29335SOL    HW292817  10.185   1.153   8.925 -0.9339  1.7344  1.3432
29336SOL     OW92818   6.084   4.076   2.491  0.7260  0.4699 -0.2179
29336SOL    HW192819   6.164   4.117   2.525 -0.2124  2.2457 -0.0861
29336SOL    HW292820   6.110   4.041   2.405  2.1426 -0.7861  0.6676
29337SOL     OW92821   2.865   9.015   8.891  0.0030  0.3723 -0.1559
29337SOL    HW192822   2.860   9.111   8.898  0.0971  0.6122 -2.4347
29337SOL    HW292823   2.783   8.991   8.848  0.2225 -0.5034 -0.0890
29338SOL     OW92824   0.216   2.840   7.552 -0.0732  0.2060 -0.0185
29338SOL    HW192825   0.266   2.775   7.602 -0.1937 -0.4239 -0.6899
29338SOL    HW292826   0.165   2.787   7.490  0.4102  0.9899 -1.1022
29339SOL     OW92827  10.997   5.647   6.377  0.1669 -0.2241  0.1317
29339SOL    HW192828  11.031   5.603   6.455 -1.2745  0.0003  0.9176
29339SOL    HW292829  10.916   5.601   6.357 -1.2084  1.7781  0.7637
29340SOL     OW92830  10.024   7.964  11.367  0.0905 -0.8638 -0.0025
29340SOL    HW192831  10.023   7.963  11.272  0.2096  0.5356 -0.0391
29340SOL    HW292832   9.933   7.982  11.392  0.4336  0.9816  0.0585
29341SOL     OW92833   7.868  12.465   3.162  0.0868  0.4499 -0.2917
29341SOL    HW192834   7.844  12.556   3.181  0.0716  0.1459  1.2925
29341SOL    HW292835   7.835  12.415   3.237  0.3501 -0.8313 -0.9971
29342SOL     OW92836   1.068   3.605   3.010 -0.2639 -0.4138 -0.1477
29342SOL    HW192837   0.994   3.546   3.021  0.3564 -1.2074 -0.0813
29342SOL    HW292838   1.137   3.550   2.973  0.8950 -0.1814  1.5259
29343SOL     OW92839   4.826   8.470   5.175  0.5217  0.5237  0.3828
29343SOL    HW192840   4.856   8.381   5.156  3.3185  1.5670 -0.5769
29343SOL    HW292841   4.866   8.491   5.259 -0.9078  0.5879  1.0695
29344SOL     OW92842   1.083   8.755  11.527  0.1698 -0.3476 -0.1099
29344SOL    HW192843   1.159   8.698  11.539  1.4466  1.1145 -0.8354
29344SOL    HW292844   1.074   8.763  11.432  0.0723  0.6996 -0.0194
29345SOL     OW92845  12.460  10.040  11.594 -0.0582 -0.2297  0.1070
29345SOL    HW192846  12.505   9.958  11.575 -1.2439 -1.2612  1.4732
29345SOL    HW292847  12.446  10.038  11.689  0.8305  2.0759  0.3417
29346SOL     OW92848  12.202   3.009   2.300  0.2445 -0.5561  0.0388
29346SOL    HW192849  12.175   3.094   2.264 -0.0561 -0.7437 -0.1862
29346SOL    HW292850  12.242   3.030   2.384 -1.6957 -0.3625  0.9748
29347SOL     OW92851   4.783   1.522  10.655 -0.4421  0.0395 -0.2336
29347SOL    HW192852   4.712   1.584  10.641 -0.6738 -0.3781 -1.0201
29347SOL    HW292853   4.859   1.576  10.678  0.5298  1.1600 -4.9829
29348SOL     OW92854  11.086   5.177   9.418  0.1420  0.6254 -0.2726
29348SOL    HW192855  11.134   5.254   9.447  0.5365  0.1741  0.2964
29348SOL    HW292856  11.000   5.185   9.460  0.0163  0.9860 -0.5915
29349SOL     OW92857  10.269   5.567  11.978 -1.2589  0.0418 -0.2157
29349SOL    HW192858  10.316   5.520  12.046  1.2339 -0.9159 -2.4607
29349SOL    HW292859  10.265   5.658  12.010 -0.3968 -0.4145  1.2773
29350SOL     OW92860  10.919   4.949   0.872  0.1392 -0.4564  0.2113
29350SOL    HW192861  10.945   4.933   0.963  1.9567  0.0973 -0.1710
29350SOL    HW292862  10.938   4.867   0.827 -2.2198 -1.2799  0.5568
29351SOL     OW92863   0.174   6.108   7.445  0.1922 -0.2329 -0.9922
29351SOL    HW192864   0.241   6.175   7.459 -0.1157 -0.0359 -0.4347
29351SOL    HW292865   0.224   6.027   7.433  0.5302 -0.1408 -0.2668
29352SOL     OW92866   0.989   0.794   2.758  0.5171 -0.5891  0.5829
29352SOL    HW192867   0.923   0.733   2.791  0.6671 -0.5353  0.9855
29352SOL    HW292868   1.029   0.748   2.684  1.7891 -1.7062  1.9047
29353SOL     OW92869   6.335   4.366  11.608  0.3414  0.4703  0.0248
29353SOL    HW192870   6.305   4.446  11.564  0.1604  0.5373  0.2730
29353SOL    HW292871   6.278   4.357  11.684  1.1868  0.8111  0.7183
29354SOL     OW92872   5.799  10.505   1.355  0.2893  0.0781  0.1769
29354SOL    HW192873   5.735  10.561   1.311  0.9696  0.0272 -0.9308
29354SOL    HW292874   5.817  10.549   1.438 -1.4356 -0.1056  0.6712
29355SOL     OW92875   9.952   5.341   5.176  0.1506  0.3082 -0.1902
29355SOL    HW192876   9.975   5.272   5.114  0.9720  1.2619 -0.9981
29355SOL    HW292877  10.000   5.319   5.255 -1.0612 -1.0285  0.2034
29356SOL     OW92878   1.680   5.190   6.008 -0.2256  0.1256 -0.3524
29356SOL    HW192879   1.592   5.203   6.044 -0.1099 -2.1379  0.9111
29356SOL    HW292880   1.719   5.278   6.009 -2.1866  1.0440 -0.2186
29357SOL     OW92881   3.828  10.934   2.005  0.5842  0.0554  0.6156
29357SOL    HW192882   3.906  10.988   2.017  1.3413 -0.9426  0.3244
29357SOL    HW292883   3.852  10.849   2.042  0.1404 -0.6826 -0.7316
29358SOL     OW92884   4.364   8.052   3.794 -0.0696  0.4342  0.3725
29358SOL    HW192885   4.415   7.997   3.853 -1.0744  1.3001  2.1143
29358SOL    HW292886   4.284   8.071   3.841 -0.7704  1.4687 -1.1402
29359SOL     OW92887   7.794   3.250   1.747  0.0478 -0.0794 -0.1698
29359SOL    HW192888   7.833   3.319   1.800  0.2512  0.2001 -0.6756
29359SOL    HW292889   7.849   3.173   1.763  0.4151  0.1383 -0.3589
29360SOL     OW92890   0.406  10.062   7.797  0.3836 -0.3441  0.0857
29360SOL    HW192891   0.466  10.003   7.841  0.2400  0.6445  1.7277
29360SOL    HW292892   0.415  10.145   7.845 -1.5616  0.1009 -0.2296
29361SOL     OW92893   4.127   7.903  12.473  0.0345  0.3222  0.8461
29361SOL    HW192894   4.179   7.899  12.393  0.2257 -0.1474  0.9877
29361SOL    HW292895   4.067   7.829  12.466 -0.8118  1.0160  0.5591
29362SOL     OW92896  10.238   5.327   7.573  0.3349 -0.4281 -0.1408
29362SOL    HW192897  10.324   5.300   7.605  1.1430  0.5371 -1.3663
29362SOL    HW292898  10.176   5.276   7.624  1.6320 -1.1178  0.8144
29363SOL     OW92899  11.261   8.814   1.822 -0.0792 -0.1458  0.0912
29363SOL    HW192900  11.183   8.760   1.832 -0.3031 -0.3223 -2.0884
29363SOL    HW292901  11.245   8.890   1.878 -2.0692  0.0747 -0.6943
29364SOL     OW92902   2.806  11.034   2.903 -0.1698 -0.0478 -0.0633
29364SOL    HW192903   2.867  10.997   2.839 -2.0175 -0.6668 -1.5708
29364SOL    HW292904   2.771  10.958   2.949 -0.7217  0.1818 -0.0954
29365SOL     OW92905  11.347  10.039  12.336 -0.1929  0.3710  0.0360
29365SOL    HW192906  11.424  10.065  12.285 -1.9580  0.3077 -2.8792
29365SOL    HW292907  11.294  10.118  12.342 -2.4396 -0.7047 -3.0073
29366SOL     OW92908   9.802   8.104   0.367 -0.2425  0.4783 -0.0143
29366SOL    HW192909   9.873   8.054   0.327 -0.6798 -0.3083  0.1811
29366SOL    HW292910   9.847   8.171   0.419  0.4668 -1.5404  2.1548
29367SOL     OW92911   0.410   2.290   2.932  0.0385  0.2342 -0.2503
29367SOL    HW192912   0.366   2.356   2.986 -0.2912 -0.5565  0.4664
29367SOL    HW292913   0.502   2.317   2.931 -0.2368  1.1986 -0.7161
29368SOL     OW92914   4.821   5.912   2.982 -0.6745 -0.4819  0.4152
29368SOL    HW192915   4.820   6.007   2.991  0.6635 -0.5477  1.5193
29368SOL    HW292916   4.810   5.878   3.070 -0.9535 -1.3651  0.0594
29369SOL     OW92917   2.700   5.708  10.535 -0.2515 -0.1789 -0.4471
29369SOL    HW192918   2.607   5.688  10.542 -0.2455  0.0072  0.2639
29369SOL    HW292919   2.705   5.791  10.488 -0.3795 -0.7517 -1.5087
29370SOL     OW92920   9.249   7.252  10.462  0.1585 -0.1203  0.4921
29370SOL    HW192921   9.334   7.287  10.438  0.3485 -1.3304 -0.7269
29370SOL    HW292922   9.267   7.163  10.495 -0.8039 -1.6008 -2.5953
29371SOL     OW92923   9.804   3.504  11.355 -0.6197 -0.4426  0.8245
29371SOL    HW192924   9.731   3.559  11.324 -0.5902 -0.7332  0.2072
29371SOL    HW292925   9.843   3.553  11.427 -2.2426 -0.8749  2.0677
29372SOL     OW92926  10.195  10.583  10.654 -0.5878 -0.9305  0.5668
29372SOL    HW192927  10.196  10.488  10.664 -1.6420 -0.7229  3.5967
29372SOL    HW292928  10.268  10.601  10.593 -0.7724 -3.6490 -0.6207
29373SOL     OW92929   0.665   7.721   7.244  0.0563 -0.3842 -0.0752
29373SOL    HW192930   0.716   7.645   7.214  0.3374 -0.2422  0.0381
29373SOL    HW292931   0.584   7.718   7.193 -0.7307 -1.7867  1.1783
29374SOL     OW92932   0.324   8.433  11.468 -0.3211 -0.1692  0.3809
29374SOL    HW192933   0.270   8.507  11.441 -0.2434 -0.9219 -2.1002
29374SOL    HW292934   0.274   8.390  11.537 -2.0215  0.2471 -0.5330
29375SOL     OW92935   6.317   6.099  12.183  0.3434  0.3554 -0.0725
29375SOL    HW192936   6.272   6.131  12.261  0.8163  1.1271 -0.1105
29375SOL    HW292937   6.402   6.067  12.216  0.2902  0.0970 -0.1845
29376SOL     OW92938   3.620   8.784   0.678  0.1666  1.0859  0.0815
29376SOL    HW192939   3.558   8.857   0.673  0.1957  1.1640  0.7406
29376SOL    HW292940   3.565   8.708   0.698  0.2465  1.0984  0.3500
29377SOL     OW92941  10.315   9.091   1.204 -0.1190 -0.3346  0.5614
29377SOL    HW192942  10.297   9.185   1.190  2.5276  0.1386 -0.2696
29377SOL    HW292943  10.352   9.086   1.292 -0.7484 -0.7034  0.8115
29378SOL     OW92944   8.851  11.584   5.075 -0.6177 -0.1633 -0.5977
29378SOL    HW192945   8.783  11.580   5.008 -0.5101 -0.9854 -0.6644
29378SOL    HW292946   8.841  11.504   5.125 -1.8499  1.2443  1.5464
29379SOL     OW92947   3.252   0.955   7.406  0.0676  0.0207  0.1151
29379SOL    HW192948   3.279   0.978   7.494  0.6510 -2.3748  0.6216
29379SOL    HW292949   3.161   0.984   7.400 -0.6415 -1.5766  2.2456
29380SOL     OW92950   9.057   1.944   4.242 -0.4476 -0.0359 -0.4422
29380SOL    HW192951   9.083   1.952   4.150 -1.3776  0.2296 -0.6980
29380SOL    HW292952   9.129   1.896   4.283  0.0754  0.0121 -1.2641
29381SOL     OW92953   6.291  11.907   6.724 -0.2400  0.2169  0.6362
29381SOL    HW192954   6.254  11.995   6.716  0.0095  0.2262 -0.5364
29381SOL    HW292955   6.378  11.920   6.760  0.5168  0.6394 -1.2496
29382SOL     OW92956   5.660  11.795   2.257  0.0444  0.3456 -0.2175
29382SOL    HW192957   5.691  11.856   2.191  0.8817 -1.5839 -1.6878
29382SOL    HW292958   5.737  11.743   2.281 -0.2353  0.9584  2.3041
29383SOL     OW92959   7.194   7.364   1.017  0.4724  0.2714 -0.3310
29383SOL    HW192960   7.288   7.349   1.024  1.0446  3.6006  1.0122
29383SOL    HW292961   7.181   7.390   0.926  1.3881  2.2409  0.0418
29384SOL     OW92962  10.228   2.989   9.696 -0.8658 -0.0143 -0.0979
29384SOL    HW192963  10.267   3.061   9.646  0.5766 -0.5852  0.1362
29384SOL    HW292964  10.187   2.933   9.631 -0.7363  0.2752 -0.4340
29385SOL     OW92965   7.273   6.558   3.547  0.1158  0.0053  0.1633
29385SOL    HW192966   7.357   6.604   3.545 -0.1056  0.5161  1.5371
29385SOL    HW292967   7.262   6.532   3.638 -0.3214 -1.7860 -0.3602
29386SOL     OW92968   2.937   0.575   9.257  0.1702 -0.8019 -0.0483
29386SOL    HW192969   2.857   0.534   9.290  0.0893 -0.0125  0.7879
29386SOL    HW292970   2.917   0.669   9.255  1.2280 -0.5483  0.6311
29387SOL     OW92971  11.240   1.505   0.072 -0.4252 -0.4141  0.2365
29387SOL    HW192972  11.172   1.531   0.133  0.6146  0.2982  1.1200
29387SOL    HW292973  11.193   1.487  -0.010 -1.5020  1.7994  0.2874
29388SOL     OW92974   2.787   0.123   4.998  0.0675  0.3304  0.3735
29388SOL    HW192975   2.693   0.131   4.985  0.3323  1.3714 -1.2145
29388SOL    HW292976   2.796   0.062   5.071 -1.7910 -1.5047 -0.8058
29389SOL     OW92977   6.218   5.334   2.038  0.2757  0.3779  0.6081
29389SOL    HW192978   6.274   5.305   1.966 -0.0463 -0.3111  0.6281
29389SOL    HW292979   6.242   5.277   2.111 -3.1098 -2.7410 -0.3916
29390SOL     OW92980   0.950   8.541   2.400 -0.1819  0.2651 -0.2835
29390SOL    HW192981   0.973   8.457   2.441 -0.8662  0.2734  0.1423
29390SOL    HW292982   0.984   8.534   2.311 -0.6742 -0.6847 -0.4208
29391SOL     OW92983  11.937   3.997   4.344 -0.4662 -0.3712  0.2781
29391SOL    HW192984  11.982   3.943   4.409  1.5921  2.6353  1.6031
29391SOL    HW292985  11.909   3.935   4.276  1.7234 -3.0393  1.5928
29392SOL     OW92986   0.616   1.209  11.414 -0.2516 -0.4337 -0.1472
29392SOL    HW192987   0.650   1.240  11.330  1.0837 -1.1038  0.1174
29392SOL    HW292988   0.634   1.280  11.475 -1.2762  0.0782 -0.4163
29393SOL     OW92989   9.228  11.932   7.941  0.5538 -0.6789  0.1404
29393SOL    HW192990   9.304  11.916   7.997  2.3388 -2.1881 -2.5089
29393SOL    HW292991   9.264  11.941   7.853 -2.4216 -3.0505 -1.5186
29394SOL     OW92992   4.212   7.803   5.819  0.3591  0.2269 -0.6169
29394SOL    HW192993   4.129   7.844   5.795  0.7756  0.8943 -0.9473
29394SOL    HW292994   4.261   7.873   5.863  0.3175 -0.4651  0.5892
29395SOL     OW92995   3.914   6.966   1.650 -0.2291 -0.0746 -0.4374
29395SOL    HW192996   3.962   6.905   1.705 -0.9915 -1.3818 -1.1549
29395SOL    HW292997   3.844   6.913   1.610 -1.8246  1.5801  0.0099
29396SOL     OW92998   5.846  11.535   1.667  0.3140 -0.5676 -0.2833
29396SOL    HW192999   5.839  11.582   1.750 -0.3173 -0.4450 -0.4008
29396SOL    HW293000   5.767  11.481   1.663 -1.3972  1.8781 -2.3019
29397SOL     OW93001  11.554   4.209   0.187 -0.0538 -0.8646  0.4883
29397SOL    HW193002  11.561   4.233   0.095  1.8795 -0.5043  0.6791
29397SOL    HW293003  11.485   4.143   0.190 -0.9109 -0.0833 -1.0373
29398SOL     OW93004   7.826   5.112   1.148  0.1842 -0.1431 -0.1547
29398SOL    HW193005   7.912   5.102   1.191  0.4072 -2.3429 -0.9722
29398SOL    HW293006   7.783   5.027   1.161 -1.1580  0.3310 -1.2830
29399SOL     OW93007   9.280  12.317   0.643  0.2078 -0.1873 -0.2213
29399SOL    HW193008   9.190  12.336   0.671  0.7339  0.3395  1.1610
29399SOL    HW293009   9.323  12.402   0.641  0.1960 -0.1679 -2.8009
29400SOL     OW93010  12.123  10.137  10.546  0.9585 -0.4874 -0.1261
29400SOL    HW193011  12.044  10.191  10.552  1.4941  0.3120 -0.1270
29400SOL    HW293012  12.158  10.135  10.635  0.9440 -0.8387 -0.1258
29401SOL     OW93013  10.972   1.155   2.992 -0.0087  0.3661  0.3944
29401SOL    HW193014  11.060   1.130   3.021  0.5557  1.8153  0.0115
29401SOL    HW293015  10.985   1.199   2.909 -1.0438  1.0285  0.5614
29402SOL     OW93016  10.740  11.764  10.996  0.2013  0.2543 -0.2618
29402SOL    HW193017  10.678  11.738  11.064  0.7356  1.6844  0.8122
29402SOL    HW293018  10.725  11.857  10.983  0.6255  0.1595 -1.5802
29403SOL     OW93019   2.995   1.591  11.480  0.4096 -0.6344  0.3005
29403SOL    HW193020   3.035   1.570  11.565  0.9836  1.6139  0.6391
29403SOL    HW293021   2.965   1.506  11.447 -0.8939 -1.4726  3.2494
29404SOL     OW93022   4.066   6.457   7.436  0.3245 -0.6415  0.4175
29404SOL    HW193023   4.026   6.544   7.428  0.7270 -0.4979 -0.1521
29404SOL    HW293024   4.051   6.432   7.527  0.1945  0.0225  0.5885
29405SOL     OW93025   9.764   8.042   5.303  0.7602  0.2013 -0.2940
29405SOL    HW193026   9.698   8.006   5.361  0.3085 -0.8290 -1.4210
29405SOL    HW293027   9.718   8.058   5.221  1.9029 -0.5210 -1.0950
29406SOL     OW93028   3.909   1.580   8.522 -0.1308 -0.3019  0.3162
29406SOL    HW193029   3.873   1.518   8.585 -0.9550 -2.1004 -1.7947
29406SOL    HW293030   4.000   1.592   8.550 -0.5181 -0.8748  1.9354
29407SOL     OW93031   1.841   7.621   0.924 -0.2842  0.1461  0.0623
29407SOL    HW193032   1.830   7.538   0.969 -0.7483  0.8173  1.2323
29407SOL    HW293033   1.768   7.675   0.955 -0.7416  0.5793 -1.6521
29408SOL     OW93034   3.330   7.200   2.981  0.3844 -0.2972 -0.3431
29408SOL    HW193035   3.376   7.283   2.973 -1.7315  0.8736 -1.0829
29408SOL    HW293036   3.262   7.203   2.914 -2.3386 -0.8413  2.1885
29409SOL     OW93037  10.125   2.854  12.572 -0.4823 -0.0146  0.0522
29409SOL    HW193038  10.119   2.837  12.478 -2.0432  4.1103 -0.7947
29409SOL    HW293039  10.055   2.801  12.611  0.3933 -2.0208 -1.0091
29410SOL     OW93040   9.004   5.794   6.346 -0.2271 -0.3083 -0.3652
29410SOL    HW193041   8.940   5.812   6.414 -0.2779  0.3032 -0.5694
29410SOL    HW293042   9.053   5.876   6.336 -0.7306 -0.1219 -1.5927
29411SOL     OW93043  10.071   2.909   7.760 -0.3160 -0.7539 -0.4349
29411SOL    HW193044  10.056   2.936   7.851 -0.9370  0.3002 -0.8324
29411SOL    HW293045  10.140   2.967   7.729  0.6953 -1.8569 -0.3180
29412SOL     OW93046  10.037  10.498   0.681 -0.1848 -0.7521 -0.6406
29412SOL    HW193047  10.019  10.490   0.587  1.2780 -0.9900 -0.9341
29412SOL    HW293048   9.989  10.576   0.708 -1.2285 -1.1109 -1.4212
29413SOL     OW93049   2.376   9.216   0.955  0.3767 -0.5078  0.5013
29413SOL    HW193050   2.376   9.306   0.921 -0.6621 -0.1828  1.2741
29413SOL    HW293051   2.444   9.217   1.022 -0.3118  0.0224  1.2209
29414SOL     OW93052  10.322   2.718  11.354 -0.3319 -0.0748 -0.1391
29414SOL    HW193053  10.339   2.806  11.387  0.2072 -0.8109  1.6923
29414SOL    HW293054  10.299   2.668  11.432  1.1986 -2.0062 -0.8599
29415SOL     OW93055  11.102  12.638   3.503 -0.2223 -0.0303 -0.1992
29415SOL    HW193056  11.153  12.658   3.581 -0.1764 -0.5903 -0.0799
29415SOL    HW293057  11.022  12.689   3.513 -1.3795 -1.9832  1.5131
29416SOL     OW93058  11.494  10.980   4.364 -0.2228 -0.0145  0.2719
29416SOL    HW193059  11.533  11.024   4.439 -0.5892 -1.5965  1.4263
29416SOL    HW293060  11.566  10.968   4.303  0.1202  1.0932  0.4261
29417SOL     OW93061   4.255   3.397   4.118 -0.0561 -0.3187  0.2632
29417SOL    HW193062   4.311   3.475   4.110  0.0525 -0.5374 -1.7442
29417SOL    HW293063   4.279   3.358   4.202  0.5631  1.2883  0.8702
29418SOL     OW93064  10.486  12.234   5.776 -0.1403  0.1406 -0.1717
29418SOL    HW193065  10.441  12.150   5.779  0.1979 -0.0952 -1.2409
29418SOL    HW293066  10.427  12.294   5.823 -0.0413 -0.8205  1.2472
29419SOL     OW93067  12.308   5.439   0.236 -0.9178 -0.4880 -0.2161
29419SOL    HW193068  12.358   5.453   0.316 -2.5926  2.7432  0.4637
29419SOL    HW293069  12.233   5.387   0.262 -0.0677 -1.8329 -0.3600
29420SOL     OW93070   3.047  10.127   4.025  0.0282  0.5889 -0.1874
29420SOL    HW193071   3.069  10.189   3.956 -0.8781  2.2818  0.9555
29420SOL    HW293072   3.096  10.158   4.101 -1.4950  0.7614  0.7650
29421SOL     OW93073   9.497  10.243   1.759  0.1007 -0.3501 -0.2905
29421SOL    HW193074   9.472  10.306   1.692 -1.8436 -1.2339 -0.4458
29421SOL    HW293075   9.468  10.159   1.725  0.2669 -0.9897  1.0793
29422SOL     OW93076   8.252   7.234   7.780 -0.2320 -0.4272 -0.3460
29422SOL    HW193077   8.207   7.309   7.817 -0.1014 -0.1488 -0.7478
29422SOL    HW293078   8.202   7.158   7.811  0.2636 -0.2491  0.9474
29423SOL     OW93079   0.267   4.138   5.610  0.1579  0.4366 -0.1313
29423SOL    HW193080   0.272   4.113   5.703  0.0668 -0.1540 -0.2780
29423SOL    HW293081   0.238   4.058   5.566 -1.0891  1.0694 -0.5060
29424SOL     OW93082   7.702  11.351   0.722 -0.1107 -0.4631 -0.1482
29424SOL    HW193083   7.783  11.348   0.670  0.3585  1.9793  0.3075
29424SOL    HW293084   7.724  11.306   0.803  0.6554 -0.2381 -0.2244
29425SOL     OW93085  10.279   3.968   3.376 -0.2029 -0.1459  0.5134
29425SOL    HW193086  10.245   4.051   3.409 -0.7046  0.1995 -0.8494
29425SOL    HW293087  10.308   3.987   3.287  1.0942 -1.0746  0.7045
29426SOL     OW93088   9.035  11.336   5.294 -0.2909  0.2195  0.3462
29426SOL    HW193089   9.090  11.382   5.357 -0.6551  1.0451  0.0693
29426SOL    HW293090   8.948  11.374   5.305 -0.3361  0.4841 -0.7413
29427SOL     OW93091   6.956   5.200   1.945 -0.2172  0.3674 -0.1681
29427SOL    HW193092   6.977   5.258   2.018  2.0366 -0.8766  0.2711
29427SOL    HW293093   6.924   5.120   1.987 -2.7450  0.9891 -0.7469
29428SOL     OW93094   0.211   6.302   6.914  0.2995  0.3728 -0.2297
29428SOL    HW193095   0.245   6.223   6.872  1.7267  1.1475 -0.5925
29428SOL    HW293096   0.158   6.269   6.986 -1.1044 -0.9529 -1.7822
29429SOL     OW93097   8.901  10.385  12.311  0.3189  0.2414  0.5761
29429SOL    HW193098   8.808  10.397  12.294  0.6061  1.0229 -0.5425
29429SOL    HW293099   8.921  10.447  12.380  0.4838  1.8292 -0.8391
29430SOL     OW93100  11.609   0.034   4.062 -0.1127 -0.0559 -0.1637
29430SOL    HW193101  11.696   0.009   4.094 -0.2311  0.0822  0.2659
29430SOL    HW293102  11.580   0.103   4.122 -0.4059  0.0855 -0.4681
29431SOL     OW93103   3.088   9.971   8.408 -0.0309 -0.0030  0.1650
29431SOL    HW193104   3.048  10.055   8.428 -0.0321 -0.0078  0.1834
29431SOL    HW293105   3.177   9.978   8.443 -0.0292 -0.0071  0.1617
29432SOL     OW93106  12.023   2.449   7.900 -1.0102  0.0427  0.0367
29432SOL    HW193107  12.076   2.526   7.877  0.4988 -1.0008 -0.1447
29432SOL    HW293108  11.933   2.481   7.898 -0.4698  1.6674 -0.5900
29433SOL     OW93109   1.867   0.735   3.615  0.8127  0.7612  0.6511
29433SOL    HW193110   1.869   0.679   3.538  0.5587 -0.1676  1.3049
29433SOL    HW293111   1.951   0.722   3.658  0.3807  0.1183  1.3251
29434SOL     OW93112   6.186   5.899   6.722  0.4111 -0.8315  0.4394
29434SOL    HW193113   6.207   5.967   6.786  0.0229 -0.9959  0.7451
29434SOL    HW293114   6.199   5.940   6.637 -2.1095  0.3798  0.5712
29435SOL     OW93115   7.361   6.734   2.662 -0.0809 -0.4961 -0.1503
29435SOL    HW193116   7.434   6.727   2.600 -1.0651 -0.4094 -1.3574
29435SOL    HW293117   7.314   6.651   2.652 -0.7948 -0.0800 -0.2180
29436SOL     OW93118  10.493   6.954   3.090 -0.5455  0.3316 -0.2307
29436SOL    HW193119  10.499   6.943   2.995 -0.2613 -2.5664  0.0129
29436SOL    HW293120  10.429   7.024   3.103 -3.0197 -1.2919 -2.5890
29437SOL     OW93121   4.380  12.618   9.065  0.2286  0.0288  0.0221
29437SOL    HW193122   4.393  12.696   9.119  1.1642  1.3787 -2.0441
29437SOL    HW293123   4.404  12.645   8.976 -0.5828 -2.2871 -0.9879
29438SOL     OW93124   7.183  11.569   6.439  0.1903  0.1318 -0.3689
29438SOL    HW193125   7.179  11.664   6.449  0.0376  0.1932 -0.9908
29438SOL    HW293126   7.276  11.548   6.450  0.1360  0.2712  0.4161
29439SOL     OW93127  10.157   9.045   0.795 -0.0656  0.1465 -0.2791
29439SOL    HW193128  10.113   9.092   0.865 -0.8764 -1.4873  0.3419
29439SOL    HW293129  10.094   9.044   0.723 -0.0301  0.0243 -0.3082
29440SOL     OW93130   2.497  12.286   9.503 -0.0917 -0.2042  0.1565
29440SOL    HW193131   2.540  12.253   9.582 -0.7845  1.4422  1.2741
29440SOL    HW293132   2.416  12.326   9.535 -0.3339  0.6085 -1.3867
29441SOL     OW93133   8.854   9.437   0.429 -0.1727  0.6354 -0.2470
29441SOL    HW193134   8.875   9.404   0.342 -0.4643 -2.1828  0.6563
29441SOL    HW293135   8.758   9.431   0.433 -0.0549 -1.4064  0.9552
29442SOL     OW93136   4.677   0.119   9.112 -0.0458 -0.6961  0.0486
29442SOL    HW193137   4.747   0.055   9.125  0.4476 -0.0926  0.4404
29442SOL    HW293138   4.615   0.102   9.183  0.4286 -0.3048  0.5667
29443SOL     OW93139   8.085   0.080   3.380  0.3005  0.0934 -0.0500
29443SOL    HW193140   8.008   0.088   3.437  0.4380 -1.3996  0.3911
29443SOL    HW293141   8.140   0.014   3.423  0.5524 -0.8789 -1.7726
29444SOL     OW93142   8.817   5.065   4.954 -0.1370 -0.4824 -0.4762
29444SOL    HW193143   8.907   5.058   4.986 -0.3700  0.2375  0.3564
29444SOL    HW293144   8.768   5.103   5.027 -0.5672  1.8049 -1.8680
29445SOL     OW93145   5.263  12.341   3.123  0.1686 -0.2236  0.3014
29445SOL    HW193146   5.294  12.291   3.198  0.9887  1.5071  1.1620
29445SOL    HW293147   5.323  12.317   3.052 -1.4984 -3.0068 -0.3309
29446SOL     OW93148   2.333   0.383  11.765 -0.2193  0.1833  0.1924
29446SOL    HW193149   2.301   0.449  11.703 -0.4216 -1.2682 -1.3117
29446SOL    HW293150   2.422   0.413  11.787 -0.0215  0.5868 -1.0550
29447SOL     OW93151   5.183   9.155   9.767 -0.0540 -0.4738 -0.0356
29447SOL    HW193152   5.258   9.153   9.709 -0.6418 -0.9441 -0.7962
29447SOL    HW293153   5.201   9.226   9.829  0.6145 -0.0317 -0.7373
29448SOL     OW93154   7.286  11.268   7.251 -0.3460  0.2184 -0.0576
29448SOL    HW193155   7.337  11.205   7.302 -0.2820  0.2915 -0.0301
29448SOL    HW293156   7.279  11.229   7.164 -0.5923  0.0203  0.0524
29449SOL     OW93157  10.809  12.115   5.826 -0.2141  0.1469 -0.1471
29449SOL    HW193158  10.874  12.108   5.756 -1.1771 -0.2793 -1.0234
29449SOL    HW293159  10.777  12.206   5.820  0.4108  0.4060  0.3920
29450SOL     OW93160   8.793  10.788   9.662  0.1795  0.1207 -0.1511
29450SOL    HW193161   8.880  10.806   9.627 -0.7787  3.4322 -1.2221
29450SOL    HW293162   8.780  10.856   9.728 -1.3221 -0.8264  0.5866
29451SOL     OW93163   9.598  11.313   5.956 -0.2086 -0.0961 -0.6704
29451SOL    HW193164   9.650  11.389   5.980  0.1449 -0.5604  0.0998
29451SOL    HW293165   9.583  11.268   6.039 -0.3394 -0.9027 -1.1210
29452SOL     OW93166   8.524   9.897   3.521 -0.3792 -0.1054  0.1223
29452SOL    HW193167   8.461   9.957   3.483  0.5911 -0.0210 -1.4584
29452SOL    HW293168   8.487   9.810   3.506 -0.5489 -0.0184  0.0393
29453SOL     OW93169  10.157   3.975   5.961  0.2256 -0.0169  0.5219
29453SOL    HW193170  10.141   4.063   5.996 -0.7304  0.0155  0.0333
29453SOL    HW293171  10.120   3.977   5.873  1.6287 -0.4331 -0.1145
29454SOL     OW93172  11.503   1.811   4.342  0.2292 -0.2311  0.4158
29454SOL    HW193173  11.567   1.794   4.411 -1.3016 -1.3078  1.6576
29454SOL    HW293174  11.468   1.898   4.362  0.6186 -0.0428  0.2887
29455SOL     OW93175   4.273   3.486   0.496  0.1926  0.0667 -0.3768
29455SOL    HW193176   4.196   3.485   0.439 -0.6143 -0.9451  0.6887
29455SOL    HW293177   4.338   3.432   0.451 -1.0192 -2.1362  0.3856
29456SOL     OW93178   5.241   8.802  10.452  0.7895  0.0894 -0.0233
29456SOL    HW193179   5.238   8.780  10.546  0.1473  1.3863  0.2822
29456SOL    HW293180   5.199   8.888  10.446  0.8536  0.0405 -1.5094
29457SOL     OW93181   3.540   7.837  10.818 -0.9074  0.4775 -0.0300
29457SOL    HW193182   3.490   7.862  10.740  0.5074 -1.3292 -1.6261
29457SOL    HW293183   3.495   7.759  10.851  0.1708 -0.5132 -0.8347
29458SOL     OW93184  12.422   5.300   7.377 -0.3292 -0.4049 -0.9372
29458SOL    HW193185  12.472   5.374   7.412 -0.8193  0.5485 -2.1882
29458SOL    HW293186  12.351   5.287   7.439 -1.5613  1.6705 -1.8177
29459SOL     OW93187  12.098   3.921   0.193  0.0903 -0.1038 -0.1103
29459SOL    HW193188  12.136   3.882   0.272 -3.3230 -2.9498  0.3981
29459SOL    HW293189  12.008   3.943   0.219 -0.1185  2.0153 -2.3517
29460SOL     OW93190  11.031   2.982   7.484 -0.3675  0.3389 -0.5928
29460SOL    HW193191  11.055   2.980   7.577  1.1020 -1.9141 -0.9223
29460SOL    HW293192  11.108   3.018   7.441 -0.0609 -0.9036 -1.1193
29461SOL     OW93193   2.395   6.600  12.474 -0.1646  0.6555 -0.0423
29461SOL    HW193194   2.461   6.561  12.417 -1.7938 -1.5108 -0.5691
29461SOL    HW293195   2.437   6.602  12.561  0.3536 -1.4261 -0.1967
29462SOL     OW93196  10.645   5.496   2.338  0.1423 -0.4973 -0.2420
29462SOL    HW193197  10.718   5.557   2.326 -1.8520  2.0206 -0.3721
29462SOL    HW293198  10.687   5.410   2.347  3.0628  0.7550 -0.7496
29463SOL     OW93199  11.257  11.938   7.664 -0.0759 -0.4320 -0.1019
29463SOL    HW193200  11.290  11.967   7.579 -1.1052  0.9105 -0.0742
29463SOL    HW293201  11.173  11.896   7.645 -0.3354 -0.0862  0.2269
29464SOL     OW93202  10.915   2.209  11.220  0.8275 -0.2919  0.3476
29464SOL    HW193203  10.884   2.150  11.150 -0.4691 -0.0553  0.6971
29464SOL    HW293204  10.999   2.241  11.189 -0.0757  0.4354 -1.5166
29465SOL     OW93205   1.200   5.887  11.604 -0.2709  0.4648 -0.0893
29465SOL    HW193206   1.259   5.961  11.589 -1.1127  0.8607 -1.6716
29465SOL    HW293207   1.202   5.839  11.522 -0.4615 -0.7681  0.6081
29466SOL     OW93208   3.654   1.866  11.669  0.2109  0.3358 -0.2483
29466SOL    HW193209   3.723   1.931  11.660  1.6856 -0.4862  3.4467
29466SOL    HW293210   3.700   1.783  11.680 -1.3957 -0.4697  0.8117
29467SOL     OW93211   4.806   6.702   6.407  0.7048 -0.5032  0.5246
29467SOL    HW193212   4.783   6.702   6.500  1.4549 -0.5906  0.7160
29467SOL    HW293213   4.744   6.641   6.367 -0.7233  0.8010  0.6718
29468SOL     OW93214   4.335  10.106   5.199  0.5373  0.3986  0.6572
29468SOL    HW193215   4.358  10.191   5.237 -1.2229  0.8425  0.8232
29468SOL    HW293216   4.327  10.123   5.105 -0.3742  0.5711  0.7567
29469SOL     OW93217   9.192   1.861   3.677  0.0577 -0.0384 -0.1551
29469SOL    HW193218   9.207   1.955   3.686 -1.6659  0.6571 -3.1864
29469SOL    HW293219   9.274   1.826   3.643  0.7767  0.2858  1.1919
29470SOL     OW93220   5.397   4.301   6.167  0.4545  0.3553  0.7600
29470SOL    HW193221   5.489   4.328   6.174  0.1905  1.0903  1.6537
29470SOL    HW293222   5.351   4.379   6.135  0.1734 -0.0963  0.0318
29471SOL     OW93223   5.098   0.666  10.894  0.3997  0.0606  0.5093
29471SOL    HW193224   5.177   0.636  10.848 -0.5015  0.3003 -1.2423
29471SOL    HW293225   5.026   0.649  10.833 -0.7833  0.9217  1.6133
29472SOL     OW93226   1.718   7.374   5.913  0.3413  0.0502 -0.0114
29472SOL    HW193227   1.723   7.316   5.837  0.8310 -0.9429  0.7571
29472SOL    HW293228   1.654   7.441   5.887  0.3309 -0.3877 -1.2066
29473SOL     OW93229   7.261   9.993   3.614 -0.3805 -0.0419 -0.2422
29473SOL    HW193230   7.188   9.990   3.551 -0.4900 -1.7051 -0.0868
29473SOL    HW293231   7.230   9.941   3.688  0.2552  0.8180  0.6432
29474SOL     OW93232   4.334   4.768   3.618 -0.3519 -0.3959 -0.4959
29474SOL    HW193233   4.418   4.722   3.617 -0.0778 -0.0249  1.2828
29474SOL    HW293234   4.356   4.860   3.634 -1.0550 -0.2049 -0.5575
29475SOL     OW93235   1.928  12.398  11.664 -0.2144 -0.4761  0.3023
29475SOL    HW193236   1.989  12.471  11.670  1.5821 -1.8732 -0.0155
29475SOL    HW293237   1.884  12.410  11.580  2.0708 -1.1726 -1.0887
29476SOL     OW93238   1.164  11.503   0.102  0.2843  0.2253  0.2545
29476SOL    HW193239   1.248  11.480   0.141  0.3690 -0.4715 -0.3247
29476SOL    HW293240   1.182  11.581   0.051 -0.1641  2.1579  2.8273
29477SOL     OW93241   4.747   0.258   1.138 -0.2023 -0.2558 -0.3522
29477SOL    HW193242   4.728   0.299   1.222  0.5167 -0.6428  0.0071
29477SOL    HW293243   4.694   0.307   1.075 -0.4946  0.2513  0.2769
29478SOL     OW93244   1.704  10.643  11.353  0.1691 -0.0519 -0.6138
29478SOL    HW193245   1.614  10.641  11.322  0.1318  0.6280 -0.5477
29478SOL    HW293246   1.706  10.578  11.424  0.1872 -1.4035 -1.7952
29479SOL     OW93247   5.483   0.814   1.403  0.2891  0.5038 -0.0506
29479SOL    HW193248   5.534   0.759   1.462 -1.2340 -0.5343  0.3534
29479SOL    HW293249   5.548   0.868   1.358  1.7648 -1.0198  0.1682
29480SOL     OW93250   1.492  10.659   8.893 -0.5004  0.4632 -0.3783
29480SOL    HW193251   1.438  10.731   8.860 -1.0736  0.6702  0.9531
29480SOL    HW293252   1.434  10.583   8.894 -0.2060  0.2298 -0.7596
29481SOL     OW93253   4.922   7.016   9.007 -0.0159 -0.1846  0.5408
29481SOL    HW193254   4.859   6.950   9.038  0.3294 -0.4804  0.6204
29481SOL    HW293255   4.996   7.008   9.068  0.4236 -0.3668 -0.0060
29482SOL     OW93256   6.424   8.261   9.692 -0.3648  0.0957  0.0702
29482SOL    HW193257   6.426   8.211   9.610  2.6814 -0.4987  0.3991
29482SOL    HW293258   6.343   8.234   9.734 -0.9428 -1.2548 -1.7510
29483SOL     OW93259  10.044   8.049   9.625 -0.7119  0.3253 -0.4552
29483SOL    HW193260  10.118   8.089   9.581 -0.7912 -0.0886 -0.9631
29483SOL    HW293261   9.968   8.099   9.595 -0.7855 -0.0666 -0.9154
29484SOL     OW93262   8.751   9.100   6.584 -0.3732  0.5275 -0.3806
29484SOL    HW193263   8.778   9.165   6.519 -1.1065  0.7792 -0.4530
29484SOL    HW293264   8.662   9.075   6.556 -0.1227 -0.4596 -0.3173
29485SOL     OW93265   6.043   5.294   6.182 -0.1097 -0.6057 -0.6515
29485SOL    HW193266   6.075   5.233   6.116 -0.3529 -1.4054 -0.0453
29485SOL    HW293267   5.951   5.308   6.160  0.1182  0.1176 -1.2055
29486SOL     OW93268   2.764   0.981  11.720 -0.0529 -0.0619  0.4563
29486SOL    HW193269   2.715   1.000  11.640  1.5472  0.8465 -0.3537
29486SOL    HW293270   2.702   0.997  11.791 -1.5615 -1.0631 -0.5801
29487SOL     OW93271  10.785   5.801   1.122 -0.7270  0.0949  0.1685
29487SOL    HW193272  10.812   5.893   1.116 -0.1958 -0.1238 -1.1377
29487SOL    HW293273  10.716   5.792   1.056  0.5163 -0.8546 -1.0712
29488SOL     OW93274   4.909  10.748   3.651 -0.4298  0.0101 -0.1541
29488SOL    HW193275   4.976  10.693   3.690  0.2735  1.5623  0.8985
29488SOL    HW293276   4.941  10.837   3.661 -1.0731  0.6244 -2.6660
29489SOL     OW93277  12.564   1.538   8.709 -0.3037 -0.3080 -0.5325
29489SOL    HW193278  12.569   1.540   8.613 -1.5387 -1.4793 -0.6392
29489SOL    HW293279  12.647   1.576   8.737  0.4066 -0.6280 -2.0686
29490SOL     OW93280  11.202  11.629   2.652 -0.0947 -0.7547  0.3862
29490SOL    HW193281  11.120  11.637   2.604 -0.1875 -4.0816 -0.2186
29490SOL    HW293282  11.176  11.611   2.742 -0.1092 -2.8823 -0.0102
29491SOL     OW93283  10.291   2.365   2.947 -0.0059 -0.1329  1.0750
29491SOL    HW193284  10.315   2.344   2.857 -1.0844  0.6312  0.5742
29491SOL    HW293285  10.302   2.283   2.995  1.3010 -0.3628  0.4161
29492SOL     OW93286  11.654   7.968   4.658 -0.0727  0.3269  0.2429
29492SOL    HW193287  11.640   7.966   4.753  2.0277  1.1138  0.6343
29492SOL    HW293288  11.567   7.980   4.621 -1.3685 -2.9264  1.8553
29493SOL     OW93289   4.945  11.921   8.562  0.0122  0.3609  0.1326
29493SOL    HW193290   5.005  11.873   8.619  1.4962 -1.0537 -2.3984
29493SOL    HW293291   5.000  11.990   8.524 -0.7723  0.8877 -0.0618
29494SOL     OW93292   7.709   5.213   6.524 -0.1997  0.1004 -0.3407
29494SOL    HW193293   7.754   5.192   6.442 -0.5334  0.9968 -0.7653
29494SOL    HW293294   7.741   5.147   6.586 -1.5523 -1.9684 -1.7146
29495SOL     OW93295   3.225   2.097   3.085  0.0465 -0.5929  0.8316
29495SOL    HW193296   3.316   2.067   3.088 -0.2949 -1.6731  1.1071
29495SOL    HW293297   3.174   2.016   3.092 -0.9315  0.0354  1.0911
29496SOL     OW93298  11.338   5.610   9.615  0.0923  0.1863 -0.4923
29496SOL    HW193299  11.430   5.613   9.640  0.0642 -0.6324 -0.2569
29496SOL    HW293300  11.292   5.656   9.685  0.4545  2.0675 -1.4159
29497SOL     OW93301   6.591   7.439   1.806  0.4584 -0.1865 -0.8771
29497SOL    HW193302   6.603   7.345   1.822 -0.6073 -0.2051 -0.0356
29497SOL    HW293303   6.497   7.449   1.791  0.4557  0.8364 -0.2920
29498SOL     OW93304   6.922  12.261  12.346  0.0445 -0.2942 -0.3587
29498SOL    HW193305   6.973  12.228  12.272  0.8417 -1.0152  0.5024
29498SOL    HW293306   6.844  12.205  12.348  1.0267 -1.6628  0.6279
29499SOL     OW93307   6.754   5.374  11.120 -0.1851 -0.7184  0.7072
29499SOL    HW193308   6.712   5.308  11.175  0.5445 -0.8318  1.1396
29499SOL    HW293309   6.832   5.330  11.086 -1.3933 -1.1789 -1.6760
29500SOL     OW93310   7.332   1.301   1.545  0.3367  0.7372  0.2303
29500SOL    HW193311   7.410   1.249   1.527 -0.7204 -0.3441 -1.4570
29500SOL    HW293312   7.260   1.238   1.546 -0.7476  1.9182 -0.0731
29501SOL     OW93313   1.889   4.562   9.310  0.2780 -0.1682  0.3691
29501SOL    HW193314   1.831   4.617   9.257  0.4055 -0.5549 -0.1844
29501SOL    HW293315   1.949   4.624   9.352  1.5103  0.0501 -1.5846
29502SOL     OW93316  10.951   7.415  12.205  0.1962  0.7915  0.0939
29502SOL    HW193317  10.964   7.509  12.192 -1.5113  0.9638 -0.6742
29502SOL    HW293318  11.016   7.374  12.149  2.6569  1.4261  2.2625
29503SOL     OW93319   9.182   1.405   5.593 -0.3214 -0.2479  0.4602
29503SOL    HW193320   9.261   1.410   5.646 -0.2886 -1.0442  0.4969
29503SOL    HW293321   9.137   1.488   5.609  0.3035  0.0387  0.7546
29504SOL     OW93322   6.165   1.188   2.917  0.1131 -0.0006  0.0226
29504SOL    HW193323   6.143   1.247   2.844 -1.0074  1.1369  1.2342
29504SOL    HW293324   6.193   1.247   2.987 -0.3265 -0.9691  1.0364
29505SOL     OW93325   2.921  10.496   1.722 -0.1300 -0.8364 -0.4138
29505SOL    HW193326   2.930  10.546   1.803  0.0150 -1.7514  0.1462
29505SOL    HW293327   2.950  10.556   1.654  1.3315 -0.5946  0.3875
29506SOL     OW93328   0.738   4.166   4.323  0.2862  0.2807  0.1116
29506SOL    HW193329   0.828   4.177   4.353  0.0093  0.3795  0.9301
29506SOL    HW293330   0.701   4.100   4.382 -0.4586  0.9399  0.4005
29507SOL     OW93331  11.396   2.704   3.244  0.0953  0.0125 -0.0677
29507SOL    HW193332  11.381   2.785   3.194 -3.3575 -0.2889  0.2360
29507SOL    HW293333  11.310   2.661   3.246  1.3031 -2.5543  1.7423
29508SOL     OW93334   1.767   0.878   6.134 -0.0817 -0.0420 -0.1585
29508SOL    HW193335   1.807   0.816   6.073  0.4153  0.4207 -0.3119
29508SOL    HW293336   1.715   0.936   6.079 -2.1514 -1.4874  0.1696
29509SOL     OW93337   5.060   3.007  10.523  0.0553 -0.1059 -0.0211
29509SOL    HW193338   5.071   3.038  10.433  2.1877 -1.4275 -0.2866
29509SOL    HW293339   4.997   2.936  10.517  2.3934 -2.2513 -1.0881
29510SOL     OW93340   6.163   7.405   3.715  0.1947  0.0876  0.1681
29510SOL    HW193341   6.196   7.446   3.796 -0.0553  0.2840  0.1715
29510SOL    HW293342   6.111   7.331   3.745 -0.1992  0.3754  0.2043
29511SOL     OW93343   0.759   0.813   3.391  0.5090  0.5585 -0.3840
29511SOL    HW193344   0.814   0.739   3.366 -0.3753 -0.2747  0.0246
29511SOL    HW293345   0.675   0.795   3.348 -0.4732  0.0371  1.6296
29512SOL     OW93346   8.523   4.579   3.929  0.0504 -0.1111 -0.3649
29512SOL    HW193347   8.554   4.515   3.865 -0.2722 -0.3995 -0.2346
29512SOL    HW293348   8.447   4.538   3.969 -0.1336  0.3366 -0.2486
29513SOL     OW93349   8.709   8.911  11.816 -0.2850 -0.0360 -0.3475
29513SOL    HW193350   8.644   8.868  11.761 -1.4070 -0.2453  1.0888
29513SOL    HW293351   8.728   8.993  11.771 -0.8844 -0.3605 -1.2172
29514SOL     OW93352   7.233   9.541  11.771  0.6007  0.5006 -0.4521
29514SOL    HW193353   7.248   9.447  11.768  0.5510  0.4235  0.9036
29514SOL    HW293354   7.157   9.555  11.714 -1.4915 -0.7891  1.7928
29515SOL     OW93355  11.852  12.289   9.196  0.3387 -0.6151  0.2374
29515SOL    HW193356  11.918  12.350   9.162  0.5063 -1.0451 -0.2079
29515SOL    HW293357  11.860  12.296   9.291 -1.3943  2.0107  0.3102
29516SOL     OW93358   8.234   3.343   7.091  0.0665  0.0749 -0.4778
29516SOL    HW193359   8.292   3.390   7.031 -0.6558  1.1092 -0.3967
29516SOL    HW293360   8.218   3.405   7.163 -0.9805 -0.2422 -0.4120
29517SOL     OW93361   0.115   8.907   8.773  0.8813  0.0103 -0.2885
29517SOL    HW193362   0.102   8.874   8.861 -0.0140 -0.0664 -0.4456
29517SOL    HW293363   0.084   8.837   8.716  2.4895 -0.4023 -0.6996
29518SOL     OW93364   0.929   1.112   1.220  0.0568  0.1917  1.0850
29518SOL    HW193365   0.964   1.070   1.299  0.0271  1.7005  1.9501
29518SOL    HW293366   0.943   1.048   1.150  1.2108 -0.6992  2.0886
29519SOL     OW93367   1.378   4.813   5.132 -0.3417  0.1803 -0.6114
29519SOL    HW193368   1.441   4.795   5.062 -0.6522  0.0996 -0.8701
29519SOL    HW293369   1.299   4.765   5.107 -0.6052  0.5166 -0.4395
29520SOL     OW93370   6.314  10.994   3.331 -0.0750 -0.1694  0.1273
29520SOL    HW193371   6.297  10.963   3.420 -0.5041 -1.8467 -0.4921
29520SOL    HW293372   6.276  10.927   3.275  1.4955  0.0791 -1.3238
29521SOL     OW93373   9.795  12.213   6.673  0.3021 -0.3658 -0.2943
29521SOL    HW193374   9.806  12.217   6.578 -0.2120 -0.3016 -0.3548
29521SOL    HW293375   9.747  12.293   6.694  0.5605 -0.3002  0.0429
29522SOL     OW93376   4.848   1.562   0.259 -0.0266 -0.5526  0.0255
29522SOL    HW193377   4.755   1.546   0.248 -0.1362  0.3995 -0.4897
29522SOL    HW293378   4.888   1.475   0.250 -0.9192 -1.0889  1.0640
29523SOL     OW93379  10.196  10.861   3.669  0.3311 -0.0922 -0.1223
29523SOL    HW193380  10.291  10.856   3.659  0.7193  0.7640  2.3741
29523SOL    HW293381  10.179  10.954   3.684 -0.4473 -0.5671  2.5361
29524SOL     OW93382   1.548   2.349   7.445  0.4569  0.1753  0.4762
29524SOL    HW193383   1.472   2.298   7.472  0.6627 -0.4853 -0.1637
29524SOL    HW293384   1.516   2.439   7.439  0.1898  0.2041  2.0020
29525SOL     OW93385   1.882  11.424   8.498 -0.0606 -0.1492  0.1982
29525SOL    HW193386   1.976  11.419   8.481  0.1687 -2.3332  1.7622
29525SOL    HW293387   1.848  11.479   8.427  2.3725  0.7912 -0.3559
29526SOL     OW93388  11.288   3.615   9.423  0.1907 -0.3030  0.2862
29526SOL    HW193389  11.358   3.557   9.391 -0.5263 -0.8798 -0.2625
29526SOL    HW293390  11.306   3.699   9.382  0.6704 -0.3924  0.3005
29527SOL     OW93391  12.268   4.883  11.467 -0.2293 -0.1845  1.0328
29527SOL    HW193392  12.207   4.821  11.425 -0.6508  0.4871  0.6447
29527SOL    HW293393  12.349   4.873  11.418  0.1667 -1.4591  1.8715
29528SOL     OW93394  11.773   3.061   4.842 -0.0522 -0.0760  0.2437
29528SOL    HW193395  11.792   3.146   4.882  1.8797 -0.5261  0.3775
29528SOL    HW293396  11.699   3.026   4.893 -0.1640  1.0498  0.8702
29529SOL     OW93397   5.029   8.386   3.883 -0.5776 -0.3461 -0.3313
29529SOL    HW193398   5.113   8.414   3.848 -1.1338  0.3070 -1.1888
29529SOL    HW293399   5.046   8.300   3.922  0.4642 -0.2424 -0.5391
29530SOL     OW93400   9.477   5.520   5.893 -0.3792  0.0343  0.4861
29530SOL    HW193401   9.481   5.513   5.988 -1.7919 -2.6134  0.4386
29530SOL    HW293402   9.383   5.523   5.873 -0.2113 -1.9119 -0.8905
29531SOL     OW93403   8.684   0.174   5.272 -0.8211 -0.3808  0.5678
29531SOL    HW193404   8.666   0.100   5.330 -1.4457 -0.4214  0.3302
29531SOL    HW293405   8.597   0.209   5.250 -0.5611  0.0230  0.1654
29532SOL     OW93406  11.109  10.579   2.474  0.2949  0.1241  0.0862
29532SOL    HW193407  11.061  10.514   2.424  2.4770  0.3273 -2.4995
29532SOL    HW293408  11.176  10.529   2.521 -0.7558  0.1072  1.6240
29533SOL     OW93409   7.446   6.423  12.243 -0.2559  0.0425  0.2813
29533SOL    HW193410   7.373   6.474  12.210 -0.4628 -0.6393 -0.3522
29533SOL    HW293411   7.490   6.480  12.306 -0.8450  0.7555  0.0503
29534SOL     OW93412   9.086   6.423   8.805  0.1647 -0.3208 -0.3782
29534SOL    HW193413   9.125   6.451   8.888  1.3663 -0.6005 -0.8195
29534SOL    HW293414   9.089   6.501   8.750 -0.2502 -0.2457 -0.2963
29535SOL     OW93415   9.998   7.914   2.290 -0.5537 -0.1621 -0.9493
29535SOL    HW193416  10.093   7.910   2.293 -0.4792  1.0394 -1.2988
29535SOL    HW293417   9.978   7.981   2.225 -1.6320 -0.1788 -0.6663
29536SOL     OW93418   7.428   1.742   9.298 -0.2494 -0.0303  1.1763
29536SOL    HW193419   7.441   1.824   9.252  1.1846 -0.3659  0.9536
29536SOL    HW293420   7.370   1.765   9.371 -0.9016  0.8999  0.4000
29537SOL     OW93421   1.347   8.839  11.528 -0.3723 -0.5519  0.2352
29537SOL    HW193422   1.267   8.867  11.571  0.9784  0.3029  2.3036
29537SOL    HW293423   1.372   8.913  11.472 -0.4678 -0.4062  0.3856
29538SOL     OW93424   8.337   3.353   4.022  0.4119 -0.4754  0.5956
29538SOL    HW193425   8.419   3.375   3.978 -0.4885 -0.9584 -1.4038
29538SOL    HW293426   8.304   3.437   4.055  1.2877 -0.1624  0.7024
29539SOL     OW93427   8.877  11.068   2.804 -0.0501  0.1867  0.2803
29539SOL    HW193428   8.967  11.097   2.819 -0.0127  0.9174 -1.0852
29539SOL    HW293429   8.864  10.995   2.864  1.0820  0.7684  1.2778
29540SOL     OW93430   7.480   8.848   7.260 -0.2199  0.2179 -0.3168
29540SOL    HW193431   7.407   8.790   7.281  1.3480 -1.3426  1.1952
29540SOL    HW293432   7.541   8.792   7.212  0.2699  1.3097 -0.9959
29541SOL     OW93433  11.849   2.719   1.322  0.5239 -0.2268 -0.7082
29541SOL    HW193434  11.872   2.627   1.336 -1.7899 -0.9056 -0.9427
29541SOL    HW293435  11.770   2.733   1.375  0.2749  1.3575 -1.4218
29542SOL     OW93436  11.271   5.831   4.758 -0.2419  0.0894 -0.9039
29542SOL    HW193437  11.333   5.892   4.798  0.1912  0.2940 -1.8691
29542SOL    HW293438  11.185   5.863   4.785  0.0177  0.6310 -0.7106
29543SOL     OW93439   0.599   5.148   0.846 -0.0107 -0.2284 -0.4813
29543SOL    HW193440   0.634   5.123   0.931 -0.2104  0.1324 -0.2940
29543SOL    HW293441   0.594   5.243   0.848 -0.2756 -0.2324 -0.7943
29544SOL     OW93442   6.567   0.355   9.845  0.2479 -0.0034 -0.5390
29544SOL    HW193443   6.629   0.286   9.870 -0.4258 -0.9586 -1.4317
29544SOL    HW293444   6.603   0.392   9.764 -0.5519 -0.8584 -1.3001
29545SOL     OW93445   3.551   5.286   5.010 -0.4376 -0.2160 -0.4278
29545SOL    HW193446   3.488   5.291   5.082  1.6219  1.4941  1.4342
29545SOL    HW293447   3.543   5.198   4.976 -1.0544 -1.3593  2.4134
29546SOL     OW93448  11.849   1.447   4.723 -0.0811 -0.3297  0.0427
29546SOL    HW193449  11.922   1.485   4.772 -0.6130 -1.6297  1.9725
29546SOL    HW293450  11.859   1.353   4.735 -1.6258 -0.5647 -0.3286
29547SOL     OW93451   9.718   2.732  12.398  0.0621  0.2988  0.0976
29547SOL    HW193452   9.736   2.818  12.360  0.6529 -1.1356 -3.2747
29547SOL    HW293453   9.796   2.680  12.379 -0.6105 -1.2328  1.2909
29548SOL     OW93454   1.926   8.217   9.900  0.2293  0.0586  0.4526
29548SOL    HW193455   1.946   8.235   9.992  1.5501 -2.1349  0.6667
29548SOL    HW293456   1.972   8.286   9.852  0.5097  0.5381  1.3671
29549SOL     OW93457   9.449   2.670   4.182  0.0715 -0.1732  0.2259
29549SOL    HW193458   9.489   2.650   4.267  0.6911  1.7563  0.4358
29549SOL    HW293459   9.475   2.760   4.164  1.3439 -1.0339 -2.8264
29550SOL     OW93460   3.085   8.671   4.682 -0.3052  0.0967 -0.2790
29550SOL    HW193461   2.997   8.700   4.657 -0.0542 -0.1102 -1.4649
29550SOL    HW293462   3.070   8.611   4.756 -1.1437  0.2037 -0.3491
29551SOL     OW93463   0.542   2.507   8.005 -0.1117 -0.0842 -0.7075
29551SOL    HW193464   0.507   2.560   7.934  1.0026  1.7886  0.0782
29551SOL    HW293465   0.506   2.546   8.085 -0.5139 -1.5111 -0.1618
29552SOL     OW93466   6.825   8.640   0.888 -0.5358  0.1118 -0.4755
29552SOL    HW193467   6.796   8.684   0.808  1.9686 -1.0454 -2.1486
29552SOL    HW293468   6.918   8.658   0.893 -0.1908 -1.7679  0.9427
29553SOL     OW93469   3.192   5.096   0.451 -0.2913  0.7128  0.1473
29553SOL    HW193470   3.191   5.026   0.516 -1.6206  0.9666  0.4316
29553SOL    HW293471   3.174   5.052   0.368 -1.8637  0.7729  0.4246
29554SOL     OW93472  11.763   0.595   6.485 -0.7513 -0.0267  0.2186
29554SOL    HW193473  11.774   0.690   6.478 -0.6152 -0.0965 -0.5433
29554SOL    HW293474  11.801   0.560   6.405  1.9031 -0.9513  1.7667
29555SOL     OW93475   5.187   1.128   8.377  0.0292 -0.3440 -0.1381
29555SOL    HW193476   5.233   1.185   8.439 -0.7820  0.2657 -0.0756
29555SOL    HW293477   5.256   1.086   8.327  0.6886 -0.5066  0.8771
29556SOL     OW93478   3.861   5.563  11.768  0.4655  0.2659  0.0603
29556SOL    HW193479   3.942   5.574  11.719  0.0580  0.8170 -0.5057
29556SOL    HW293480   3.813   5.645  11.754 -0.6736 -0.4730 -0.5430
29557SOL     OW93481   3.610   2.854   7.744 -0.8397 -0.3479 -0.4515
29557SOL    HW193482   3.699   2.889   7.748 -1.1371  0.3918 -0.0542
29557SOL    HW293483   3.579   2.861   7.834 -2.2816  2.0304 -1.0604
29558SOL     OW93484   9.682   3.470   1.568  0.5517 -0.3844  0.5517
29558SOL    HW193485   9.728   3.396   1.527  0.3409  0.9277 -2.2796
29558SOL    HW293486   9.709   3.546   1.516 -1.8103  1.0139  1.2466
29559SOL     OW93487   4.145   3.514   9.853  0.3432 -0.1854 -0.1082
29559SOL    HW193488   4.086   3.493   9.781 -0.3919 -0.0731  0.4470
29559SOL    HW293489   4.173   3.603   9.836  0.0210 -0.0915 -0.1600
29560SOL     OW93490  10.123   9.582   1.319 -0.3670 -0.2316  0.2779
29560SOL    HW193491  10.193   9.580   1.385 -0.7633  0.9940  0.7746
29560SOL    HW293492  10.042   9.590   1.371 -0.6893  0.6792 -0.3441
29561SOL     OW93493  10.057   2.933  10.796 -0.6490  0.1667  0.3195
29561SOL    HW193494  10.032   2.897  10.711  0.3266  0.3785 -0.0737
29561SOL    HW293495   9.977   2.931  10.848 -0.9196 -1.3205 -0.1241
29562SOL     OW93496   7.474   9.681   0.961  0.3368 -0.3411  0.4867
29562SOL    HW193497   7.468   9.603   0.905 -0.3562  0.0623 -0.0156
29562SOL    HW293498   7.412   9.742   0.923  0.3875  0.2133  1.2810
29563SOL     OW93499  10.260   0.665   8.752  0.0432 -0.4751 -0.2653
29563SOL    HW193500  10.213   0.701   8.827  1.3487  0.7881 -0.0188
29563SOL    HW293501  10.352   0.664   8.779  0.3492 -1.5207 -1.2636
29564SOL     OW93502  10.495  11.646   3.966  0.0223 -0.0041  0.1271
29564SOL    HW193503  10.563  11.708   3.990  1.8669 -1.9547  0.2196
29564SOL    HW293504  10.510  11.627   3.874 -0.9035  0.1050 -0.0634
29565SOL     OW93505  11.367   2.133   6.117  0.1107  0.5416  0.4426
29565SOL    HW193506  11.379   2.227   6.100 -2.8852  0.4813 -3.1254
29565SOL    HW293507  11.276   2.125   6.144 -0.5557 -1.5138 -2.0631
29566SOL     OW93508   5.895  10.758   8.372 -0.0459 -0.3836 -0.3596
29566SOL    HW193509   5.835  10.823   8.337  0.7907  0.3726 -0.4336
29566SOL    HW293510   5.841  10.704   8.430 -0.9776 -0.3039 -1.1156
29567SOL     OW93511   0.699  10.784  10.643  0.1955  0.2007 -0.0534
29567SOL    HW193512   0.735  10.824  10.722  0.3609 -2.4304  1.2973
29567SOL    HW293513   0.605  10.800  10.648  0.2995  0.7295  0.2419
29568SOL     OW93514  12.208   2.654   7.467  0.3636  0.3835  0.4830
29568SOL    HW193515  12.289   2.691   7.431  0.0989 -0.2901 -0.8491
29568SOL    HW293516  12.138   2.703   7.425  0.0357 -0.8892 -0.5390
29569SOL     OW93517  11.729   4.229   3.481  0.2102 -0.0041 -0.4188
29569SOL    HW193518  11.672   4.214   3.406 -1.6967  0.2569  0.8931
29569SOL    HW293519  11.798   4.163   3.472 -1.7550 -2.1654 -0.7090
29570SOL     OW93520   3.843   8.675  10.210 -0.2853  0.4293  0.5432
29570SOL    HW193521   3.785   8.669  10.286  1.0922  0.4674  1.6295
29570SOL    HW293522   3.919   8.621  10.233 -0.3782 -0.6035 -1.3384
29571SOL     OW93523   8.980   3.752   4.746  0.6332  0.4702  0.3124
29571SOL    HW193524   8.985   3.830   4.801  1.4151 -0.3577  1.4612
29571SOL    HW293525   9.039   3.689   4.787  0.9657 -0.3237 -1.2747
29572SOL     OW93526  11.134  10.476   0.824 -0.3731  0.5957  0.5326
29572SOL    HW193527  11.178  10.420   0.888 -2.6251 -0.4957  1.2601
29572SOL    HW293528  11.100  10.415   0.759 -0.3147  1.4415 -0.3103
29573SOL     OW93529   9.872   3.811   4.802  0.2590 -0.2434 -0.5042
29573SOL    HW193530   9.964   3.793   4.779  0.2953  0.8664 -1.3369
29573SOL    HW293531   9.835   3.726   4.822  1.2898 -0.7989 -0.8796
29574SOL     OW93532   8.389   3.182   0.563 -0.5287  0.4880 -0.7131
29574SOL    HW193533   8.429   3.241   0.627 -0.7514 -0.4978  0.3750
29574SOL    HW293534   8.453   3.174   0.493  1.0601 -0.7774  0.8141
29575SOL     OW93535   5.023   9.339   6.362  0.5034 -0.0846 -0.4003
29575SOL    HW193536   5.003   9.274   6.294 -1.3677  0.4539 -0.4345
29575SOL    HW293537   5.033   9.287   6.442  1.7371 -0.6366 -0.9001
29576SOL     OW93538   6.504  12.218   0.066  0.3628 -0.7476  0.3004
29576SOL    HW193539   6.531  12.297   0.018  1.1148 -0.2154  1.5667
29576SOL    HW293540   6.456  12.166   0.001  1.1008  0.0838 -0.9481
29577SOL     OW93541   9.520   0.444   1.356 -0.2306 -0.4411 -0.4025
29577SOL    HW193542   9.590   0.399   1.309  1.3686 -0.3026  1.6952
29577SOL    HW293543   9.554   0.532   1.373 -1.4068  0.0282 -0.3525
29578SOL     OW93544   6.392   2.941   2.309 -0.1335  0.0579 -0.4764
29578SOL    HW193545   6.383   2.851   2.279 -0.3165  0.3735 -1.4098
29578SOL    HW293546   6.442   2.984   2.240 -1.2290  0.9931 -0.7180
29579SOL     OW93547   2.134   0.218  10.879  0.1163  0.5302  0.0381
29579SOL    HW193548   2.144   0.123  10.885  2.8553  0.7604  0.2232
29579SOL    HW293549   2.167   0.251  10.963 -0.8595  1.6777  0.0023
29580SOL     OW93550   9.054   1.537   2.381  0.1540 -0.8062 -0.1772
29580SOL    HW193551   9.043   1.570   2.292  0.7638  1.1571  0.4244
29580SOL    HW293552   9.147   1.515   2.387  0.4426  0.4722  0.3850
29581SOL     OW93553   1.405   9.562  11.983  0.2424  0.3730 -0.1756
29581SOL    HW193554   1.478   9.615  12.015 -0.0982 -0.1048  1.4883
29581SOL    HW293555   1.332   9.623  11.977  0.2228  0.4023  0.3173
29582SOL     OW93556   5.826  10.180   1.900 -0.5765 -0.0231 -0.0689
29582SOL    HW193557   5.761  10.249   1.883 -0.6195 -0.2348 -0.7839
29582SOL    HW293558   5.875  10.172   1.818  0.4347  0.2103  0.4964
29583SOL     OW93559  10.600  10.823   8.901 -0.3943  0.3280 -0.3649
29583SOL    HW193560  10.546  10.901   8.889 -0.3017  0.2692 -1.2558
29583SOL    HW293561  10.560  10.757   8.843 -0.5470 -0.3254  0.4684
29584SOL     OW93562   3.138   0.057   8.048 -0.4551 -0.2106  0.3583
29584SOL    HW193563   3.151   0.104   8.130  0.3224  0.7744 -0.3042
29584SOL    HW293564   3.181  -0.027   8.060  0.6763  0.3922  0.5594
29585SOL     OW93565   6.677   3.150  12.337  0.5290  0.0469 -0.6102
29585SOL    HW193566   6.585   3.142  12.363  0.4204  1.8225 -0.3279
29585SOL    HW293567   6.681   3.235  12.293  2.0779  0.0638 -0.4644
29586SOL     OW93568  10.167   7.292   3.260  0.0320 -0.1496  0.4101
29586SOL    HW193569  10.164   7.384   3.234  1.4863  0.1065  1.0891
29586SOL    HW293570  10.110   7.248   3.197 -1.5144  1.3360  0.6936
29587SOL     OW93571   6.364   4.399   2.960  0.3832 -0.1587  0.6389
29587SOL    HW193572   6.432   4.332   2.969  0.8896  0.5037  2.0480
29587SOL    HW293573   6.392   4.469   3.018 -0.5824  0.9221 -0.1562
29588SOL     OW93574   1.882   9.275  12.429  0.0102  0.0668  0.5713
29588SOL    HW193575   1.835   9.254  12.349 -2.1854  0.9296  1.5493
29588SOL    HW293576   1.934   9.197  12.449 -0.6252 -0.7328 -0.8348
29589SOL     OW93577   3.411   7.514   7.434 -0.0366  0.0691 -0.1213
29589SOL    HW193578   3.503   7.501   7.457 -0.5954 -0.6692  1.9714
29589SOL    HW293579   3.365   7.443   7.478 -1.6119  0.3310 -1.2569
29590SOL     OW93580  11.276   0.665   1.685  0.5279  0.2207  0.1535
29590SOL    HW193581  11.235   0.579   1.687  0.2245  0.3187 -1.1869
29590SOL    HW293582  11.302   0.681   1.776  1.0537 -1.4966  0.3350
29591SOL     OW93583   8.113   0.085   4.359  0.2899 -0.5847 -0.1853
29591SOL    HW193584   8.122   0.026   4.284 -0.9456 -0.9347 -0.0859
29591SOL    HW293585   8.074   0.030   4.428  0.6048 -0.0487  0.4345
29592SOL     OW93586   4.234  10.688   9.496  0.3071  0.5175  0.4250
29592SOL    HW193587   4.325  10.714   9.507  0.1850  0.7755  0.8745
29592SOL    HW293588   4.186  10.770   9.484  0.0240  0.4555  1.0674
29593SOL     OW93589   5.237  11.525   4.955  0.1163 -0.3677 -0.4281
29593SOL    HW193590   5.200  11.612   4.938 -0.8592 -0.7456 -0.2484
29593SOL    HW293591   5.234  11.480   4.871  1.9097  0.2151 -0.8681
29594SOL     OW93592   8.178   2.938   4.319  0.1095 -0.4825  0.2395
29594SOL    HW193593   8.238   2.997   4.363  1.6823 -0.4250 -1.7896
29594SOL    HW293594   8.105   2.928   4.379 -0.4835  3.8532  0.5501
29595SOL     OW93595   6.079   7.862   0.218 -0.1401 -0.2471  0.1550
29595SOL    HW193596   6.174   7.859   0.228 -0.2540 -0.9819  1.2854
29595SOL    HW293597   6.064   7.860   0.124  0.9565 -0.9618 -0.0228
29596SOL     OW93598   0.348   3.060   7.413 -0.4027  0.1943  0.2116
29596SOL    HW193599   0.295   3.136   7.435 -0.3266  1.6867 -3.9273
29596SOL    HW293600   0.290   2.985   7.429 -1.9052  1.4080  0.6798
29597SOL     OW93601   4.979   6.719  10.345  0.7808  0.2058 -0.2493
29597SOL    HW193602   4.922   6.666  10.402  0.3055  0.6334 -0.3196
29597SOL    HW293603   4.941   6.806  10.348 -0.3185 -0.1275 -2.5940
29598SOL     OW93604   3.316   3.751   6.278 -0.2854  0.4611  0.0764
29598SOL    HW193605   3.286   3.730   6.366  0.4986 -1.2255 -0.0126
29598SOL    HW293606   3.258   3.821   6.248 -2.1237 -0.5765  1.0350
29599SOL     OW93607   9.090   8.892   5.060  0.2118 -0.9721 -0.6916
29599SOL    HW193608   9.103   8.933   4.975 -0.0042 -1.8298 -1.1488
29599SOL    HW293609   9.060   8.963   5.117  0.9421 -0.2630 -1.1624
29600SOL     OW93610   9.955  11.244  11.416 -0.5213  0.2238  0.0554
29600SOL    HW193611   9.890  11.304  11.453 -0.2944  0.6153 -0.1637
29600SOL    HW293612   9.916  11.157  11.425 -1.3806  0.5053 -0.6926
29601SOL     OW93613   7.743   0.904   1.037 -0.3268  0.5735  0.0453
29601SOL    HW193614   7.713   0.983   0.992 -0.3667  0.9738  0.7487
29601SOL    HW293615   7.834   0.924   1.061  0.9864 -1.0476 -3.0453
29602SOL     OW93616   6.667  10.202   5.455 -0.0517  0.5151  0.0337
29602SOL    HW193617   6.662  10.290   5.492 -1.0019 -0.3741  2.1711
29602SOL    HW293618   6.711  10.214   5.370 -0.8199  3.1137 -0.0702
29603SOL     OW93619   8.934   0.991   1.448 -0.4184 -0.3018  0.1328
29603SOL    HW193620   8.916   1.080   1.417 -0.4842  0.4429  2.1401
29603SOL    HW293621   9.022   0.971   1.415  0.2416  1.1498  0.9253
29604SOL     OW93622   9.478   8.913  11.543  0.0541  0.4805  0.9187
29604SOL    HW193623   9.535   8.986  11.565 -0.4433  1.8246 -1.7974
29604SOL    HW293624   9.486   8.904  11.448 -0.8647 -2.2277  0.9951
29605SOL     OW93625   7.889  10.478   5.536  0.0182 -0.5924 -1.1786
29605SOL    HW193626   7.935  10.395   5.520 -1.3401 -1.3417 -1.4050
29605SOL    HW293627   7.892  10.490   5.631  1.7232  0.0285 -1.2765
29606SOL     OW93628   3.130   6.369   1.451  0.3097 -0.1130  0.2317
29606SOL    HW193629   3.036   6.351   1.448  0.3244 -0.1187 -0.2490
29606SOL    HW293630   3.169   6.302   1.394  0.4396  0.9790 -0.9981
29607SOL     OW93631   2.920  12.575  11.163  0.2080 -0.2061 -0.4974
29607SOL    HW193632   2.976  12.588  11.240  0.1011 -2.6704  0.0982
29607SOL    HW293633   2.909  12.662  11.126 -0.3568  1.2156  2.7007
29608SOL     OW93634  12.123   6.415  10.009 -1.3042  0.3312 -0.3984
29608SOL    HW193635  12.104   6.506  10.031  0.4095  0.5355  0.3374
29608SOL    HW293636  12.206   6.417   9.963 -0.7919 -0.9274  0.3939
29609SOL     OW93637  10.312  11.637   3.156  0.0475  0.0760 -0.0552
29609SOL    HW193638  10.219  11.615   3.163  0.2151 -0.7196 -0.2601
29609SOL    HW293639  10.343  11.590   3.078  0.9992 -1.0156  0.9462
29610SOL     OW93640   8.387   1.902   1.665 -0.2606  0.3104  0.2400
29610SOL    HW193641   8.304   1.949   1.669 -0.0445  0.7605 -0.3510
29610SOL    HW293642   8.367   1.814   1.694 -1.0907  0.2136 -0.5879
29611SOL     OW93643   3.851  11.620   4.092  0.3086 -0.6382  0.1886
29611SOL    HW193644   3.795  11.647   4.166  1.5840 -0.4605  1.1176
29611SOL    HW293645   3.897  11.543   4.124  2.0951  0.3815  0.2236
29612SOL     OW93646   3.476  11.976   3.807  0.1966 -0.2571 -0.2931
29612SOL    HW193647   3.565  11.954   3.836  0.0264 -1.5744 -0.6916
29612SOL    HW293648   3.435  12.016   3.884  1.2854  0.8793 -0.2647
29613SOL     OW93649  10.526   0.988   8.539  0.4231  0.3381  0.4330
29613SOL    HW193650  10.570   1.055   8.486 -0.8359  0.2373 -0.8000
29613SOL    HW293651  10.561   0.905   8.506  1.8684  0.3237  1.8561
29614SOL     OW93652  12.516   3.642   6.943  0.2744  0.3625  0.0222
29614SOL    HW193653  12.442   3.601   6.898  0.4900  1.1475 -1.0844
29614SOL    HW293654  12.475   3.686   7.019 -0.0850 -0.9748  0.6346
29615SOL     OW93655   0.296   4.838   3.283 -0.0182  0.7701 -0.3541
29615SOL    HW193656   0.316   4.754   3.242 -1.3308 -0.1036  0.7033
29615SOL    HW293657   0.379   4.886   3.280  0.7678 -0.5585 -0.9715
29616SOL     OW93658  11.246  10.921   7.155  0.1872  0.3899  0.1996
29616SOL    HW193659  11.331  10.891   7.187  0.4273  0.3418 -0.4721
29616SOL    HW293660  11.225  10.998   7.208 -0.1783 -0.6259  1.5725
29617SOL     OW93661  10.225   0.027   7.467  0.0155  0.4430  0.3088
29617SOL    HW193662  10.313   0.035   7.429 -1.0107 -0.0135 -2.3440
29617SOL    HW293663  10.195   0.117   7.477 -0.3765  0.5944 -1.8029
29618SOL     OW93664   5.111   3.087   5.821 -0.2543  0.0440  0.1787
29618SOL    HW193665   5.088   3.120   5.734 -0.9232 -1.5431 -0.2701
29618SOL    HW293666   5.041   3.025   5.842  0.2443 -0.0614  1.5861
29619SOL     OW93667  12.188   9.857  12.460  0.3445  0.1533 -0.1502
29619SOL    HW193668  12.216   9.765  12.454 -0.1747  0.0134 -0.5464
29619SOL    HW293669  12.267   9.907  12.442  0.2656 -0.2368 -1.7283
29620SOL     OW93670  11.915   8.391   4.449 -0.0104  0.6291 -0.3799
29620SOL    HW193671  11.952   8.306   4.474 -0.6593  0.8503  1.4738
29620SOL    HW293672  11.852   8.370   4.380  2.0062  0.0136 -2.1762
29621SOL     OW93673  10.714  12.038   2.005 -0.4972  0.0105 -0.0561
29621SOL    HW193674  10.649  12.107   2.013  0.2075  0.6448  0.2774
29621SOL    HW293675  10.729  12.030   1.911 -0.2732  0.6003 -0.0698
29622SOL     OW93676   3.332   3.671   7.571  0.1958 -0.5580  0.2647
29622SOL    HW193677   3.368   3.646   7.656 -1.6359  1.9502  1.9393
29622SOL    HW293678   3.316   3.588   7.526  0.0482 -2.0653  2.8888
29623SOL     OW93679   1.376   8.681   8.420 -0.1982 -0.2422  0.6906
29623SOL    HW193680   1.390   8.692   8.514 -0.6365 -0.5660  0.7945
29623SOL    HW293681   1.288   8.715   8.404  0.0038  0.1252  0.3365
29624SOL     OW93682   2.047   3.326   1.818  0.3352  0.3576 -0.3338
29624SOL    HW193683   2.113   3.390   1.844  0.4648  0.0435  0.1207
29624SOL    HW293684   2.083   3.284   1.741 -0.0318  1.2682 -1.0189
29625SOL     OW93685   2.407  10.191   0.544  0.9165 -0.0918  0.0563
29625SOL    HW193686   2.421  10.261   0.481 -1.8657  0.0950 -0.4784
29625SOL    HW293687   2.410  10.111   0.492 -1.6509  0.0787 -0.4936
29626SOL     OW93688   4.031   9.485   2.461  0.3288  0.3867  0.4157
29626SOL    HW193689   4.115   9.507   2.423  0.5236  2.6134  1.8915
29626SOL    HW293690   4.050   9.414   2.523  1.0978  0.7051  0.5569
29627SOL     OW93691   1.126  12.192   9.437 -0.0652  0.0495  0.0322
29627SOL    HW193692   1.114  12.216   9.346 -1.0391 -1.4621 -0.2759
29627SOL    HW293693   1.109  12.097   9.440  2.0196 -0.3494  1.4138
29628SOL     OW93694   9.433   5.612   6.933  0.2007  0.5527  0.0471
29628SOL    HW193695   9.387   5.538   6.895  1.7449 -1.3162  1.5693
29628SOL    HW293696   9.377   5.641   7.005 -1.1097  1.9049 -1.4458
29629SOL     OW93697   0.133  11.465   5.898 -0.2578 -0.4155 -0.9250
29629SOL    HW193698   0.153  11.458   5.804  1.0808  1.0631 -0.7912
29629SOL    HW293699   0.171  11.549   5.924 -0.4516 -0.8882  0.9936
29630SOL     OW93700   2.888   5.652   8.277 -0.4616 -0.0907  0.0453
29630SOL    HW193701   2.851   5.599   8.206 -1.3375  2.2078 -1.3526
29630SOL    HW293702   2.972   5.683   8.242  0.5292 -1.2960  1.2462
29631SOL     OW93703   4.605   9.094   6.457  0.6936 -0.4312 -0.6409
29631SOL    HW193704   4.548   9.020   6.478  1.4830 -0.9115 -0.1019
29631SOL    HW293705   4.554   9.171   6.480  0.7350 -0.8764  1.1734
29632SOL     OW93706   7.195   5.962   5.175 -0.1013 -0.4105  0.4159
29632SOL    HW193707   7.270   6.020   5.178  0.0486 -0.6221  0.9302
29632SOL    HW293708   7.161   5.963   5.265 -1.6026  0.8365 -0.1120
29633SOL     OW93709   3.914   8.014  11.479 -0.1023 -0.1715  0.0396
29633SOL    HW193710   3.986   8.052  11.429  0.1823  1.1885  1.4300
29633SOL    HW293711   3.926   7.919  11.468  0.8179  0.0542 -1.2071
29634SOL     OW93712   3.096   6.856   3.992 -0.5096  0.3805 -0.5578
29634SOL    HW193713   3.099   6.942   3.950  2.4200  0.1338 -1.0283
29634SOL    HW293714   3.187   6.830   4.001 -1.1827 -1.5817  1.9269
29635SOL     OW93715   5.221   9.350   9.952 -0.0983 -0.2604  0.4705
29635SOL    HW193716   5.176   9.356  10.037 -0.4198  0.5017  0.2539
29635SOL    HW293717   5.314   9.358   9.973 -0.1161 -0.9483  0.8363
29636SOL     OW93718   3.481   2.695  10.537 -0.0517 -0.0442  0.2124
29636SOL    HW193719   3.409   2.660  10.589  1.3196 -0.3298  2.0346
29636SOL    HW293720   3.505   2.623  10.478 -1.4571  0.1977 -0.7116
29637SOL     OW93721   4.977   0.362  11.266 -0.4422 -0.2698 -0.1236
29637SOL    HW193722   5.049   0.396  11.213  0.5318 -1.1694  0.5893
29637SOL    HW293723   4.959   0.276  11.229  0.7009 -1.1941  1.3731
29638SOL     OW93724   0.332   0.694   4.810  0.3270  0.8587 -0.0600
29638SOL    HW193725   0.263   0.687   4.744 -0.3573  0.3533  0.6844
29638SOL    HW293726   0.318   0.619   4.867  1.3536  0.8877  0.2491
29639SOL     OW93727   0.290  10.326   6.185 -0.4061 -0.4636  0.3582
29639SOL    HW193728   0.213  10.319   6.241 -0.8705 -2.0802 -0.4116
29639SOL    HW293729   0.262  10.289   6.101  0.5451  1.0265 -0.6591
29640SOL     OW93730   2.051   4.221   7.242 -0.1682 -0.0167  0.4427
29640SOL    HW193731   2.013   4.278   7.175  1.0886  1.4548  0.8937
29640SOL    HW293732   2.022   4.133   7.220 -1.9998  0.7625 -0.4421
29641SOL     OW93733   8.794   1.157   4.595 -0.2650  0.1010  0.3366
29641SOL    HW193734   8.863   1.091   4.600  1.0494  1.4532  0.5937
29641SOL    HW293735   8.833   1.237   4.631 -1.6924  1.1291 -0.2708
29642SOL     OW93736  12.257   9.856   5.755  0.4997  0.3589  0.3325
29642SOL    HW193737  12.244   9.923   5.822 -0.6257  2.9079 -2.2091
29642SOL    HW293738  12.178   9.803   5.759  0.3425  0.6271  0.8842
29643SOL     OW93739  10.494   2.281   8.504 -0.3762  0.8081  0.4676
29643SOL    HW193740  10.429   2.220   8.538  1.1382 -0.8116  0.5456
29643SOL    HW293741  10.463   2.367   8.532 -2.6488  0.1358  0.2174
29644SOL     OW93742   1.230   9.004  10.881 -0.5732  0.5222  0.3009
29644SOL    HW193743   1.166   8.939  10.852 -2.2958  1.5449  1.6534
29644SOL    HW293744   1.193   9.088  10.855 -0.1276  1.1823  1.7137
29645SOL     OW93745   6.843   1.239   9.165 -0.0076 -0.7080 -0.0649
29645SOL    HW193746   6.812   1.191   9.241 -0.4006  0.4322  0.5275
29645SOL    HW293747   6.934   1.262   9.186 -0.0334 -0.6163 -0.0530
29646SOL     OW93748   5.952   6.159   4.618  0.4411  0.9050 -0.1854
29646SOL    HW193749   5.862   6.155   4.652  0.5743 -0.4044  0.0481
29646SOL    HW293750   5.991   6.075   4.641  1.6652  1.3579 -0.4978
29647SOL     OW93751   7.363   5.268  11.286 -0.1476 -0.3431 -0.3267
29647SOL    HW193752   7.329   5.270  11.376  0.9283 -1.9038  0.1385
29647SOL    HW293753   7.453   5.300  11.294 -0.8577  2.2086 -1.3224
29648SOL     OW93754   2.306   8.747   1.710  0.6652 -0.5530  0.1820
29648SOL    HW193755   2.218   8.715   1.689  1.2430 -1.3067 -1.1705
29648SOL    HW293756   2.341   8.681   1.770 -0.2596  0.5954  2.0867
29649SOL     OW93757   3.692   6.921   8.412  0.5132 -0.4402  0.2695
29649SOL    HW193758   3.664   6.902   8.322 -0.1215  2.1364 -0.1439
29649SOL    HW293759   3.729   6.838   8.443 -1.9348 -2.2659 -1.3007
29650SOL     OW93760   0.209   4.627  12.365 -0.2673  0.1160 -0.2474
29650SOL    HW193761   0.180   4.713  12.395  2.4711  0.9556  0.2860
29650SOL    HW293762   0.242   4.642  12.276 -2.0809 -0.9760 -1.1779
29651SOL     OW93763   5.747   5.756   2.134 -0.0181 -0.5552 -0.3352
29651SOL    HW193764   5.717   5.786   2.048 -0.4456  0.9392  0.3195
29651SOL    HW293765   5.823   5.702   2.114 -0.7113 -1.0944 -1.7261
29652SOL     OW93766  11.310   3.227   3.239  0.0753 -0.7154 -0.0208
29652SOL    HW193767  11.262   3.295   3.286 -0.5273 -0.9787 -0.2404
29652SOL    HW293768  11.302   3.253   3.147  0.8404 -0.4600 -0.0278
29653SOL     OW93769   5.938   8.639   0.865  0.3373 -0.2873 -0.1274
29653SOL    HW193770   5.854   8.616   0.904 -0.1682  2.3736  0.6045
29653SOL    HW293771   6.003   8.613   0.929 -0.1768  0.2294  0.6175
29654SOL     OW93772   0.406  11.091   0.008  0.3236  0.5363  0.1115
29654SOL    HW193773   0.482  11.144  -0.014 -0.1535  0.4610 -1.9289
29654SOL    HW293774   0.385  11.045  -0.073 -1.8625  0.5077  0.6391
29655SOL     OW93775   1.700  12.094  12.007  0.6226  0.3043  0.0100
29655SOL    HW193776   1.650  12.155  12.061  0.8198  0.4669  0.0090
29655SOL    HW293777   1.730  12.146  11.933 -0.3622 -0.1162 -0.7050
29656SOL     OW93778   5.820   8.619   3.663 -0.0227  0.2292  0.0695
29656SOL    HW193779   5.748   8.598   3.723 -0.4466 -0.2186 -0.5824
29656SOL    HW293780   5.870   8.538   3.657  0.1164  0.3244 -0.0568
29657SOL     OW93781   7.976   9.527   9.650 -0.3771  0.7400 -0.3608
29657SOL    HW193782   8.023   9.565   9.724  1.4588  0.9482 -1.5712
29657SOL    HW293783   7.919   9.597   9.619 -0.2815  1.0374  0.1164
29658SOL     OW93784   0.546   7.970   9.671  0.3360  0.7485  0.0336
29658SOL    HW193785   0.451   7.985   9.669  0.2995  0.4890 -0.1247
29658SOL    HW293786   0.566   7.965   9.765 -0.0063 -0.4438  0.0605
29659SOL     OW93787   5.736   4.363  12.582  0.4996 -0.2782 -0.0057
29659SOL    HW193788   5.784   4.360  12.665 -1.8712  0.2498  1.5011
29659SOL    HW293789   5.713   4.272  12.565  0.1813 -0.2881  0.4513
29660SOL     OW93790   9.395   4.788   6.783  0.5060 -0.7736  0.5401
29660SOL    HW193791   9.352   4.804   6.867  0.8590  1.9118  0.3014
29660SOL    HW293792   9.324   4.766   6.723 -0.0787 -0.1171  0.9853
29661SOL     OW93793  10.099   9.262  11.330  0.8171 -0.5939  0.0540
29661SOL    HW193794  10.055   9.250  11.245 -0.0189 -1.8538  0.6309
29661SOL    HW293795  10.113   9.172  11.361 -2.4864 -0.3012  3.0443
29662SOL     OW93796   0.424   7.937   6.822  0.4072 -0.5268  0.2449
29662SOL    HW193797   0.344   7.886   6.813  0.5305 -0.7150  0.2129
29662SOL    HW293798   0.474   7.918   6.743  0.4044 -0.2665  0.1784
29663SOL     OW93799   9.310   6.120   1.965 -0.2035 -0.2662  0.0742
29663SOL    HW193800   9.311   6.159   2.053  3.0807  0.7372 -0.2728
29663SOL    HW293801   9.343   6.031   1.978  1.5652  0.3147 -0.2414
29664SOL     OW93802   1.395   6.924   5.848 -0.3237  0.1480  0.0479
29664SOL    HW193803   1.460   6.854   5.859  0.5856  0.9078 -0.3912
29664SOL    HW293804   1.423   6.993   5.907 -0.5891  0.5853 -0.3288
29665SOL     OW93805   8.747   8.049   6.379  0.4687  0.1162  0.1387
29665SOL    HW193806   8.823   8.013   6.425  0.5694  0.2742  0.0949
29665SOL    HW293807   8.672   8.009   6.423  0.5945 -0.5803 -0.2689
29666SOL     OW93808   0.509   0.033   5.193 -0.5367 -0.0984 -0.0886
29666SOL    HW193809   0.527   0.025   5.099  0.0575  1.2006 -0.1009
29666SOL    HW293810   0.593   0.057   5.231 -1.1286  0.9781  0.5594
29667SOL     OW93811   0.949  12.190  11.031  0.2662 -0.3592 -0.0034
29667SOL    HW193812   0.917  12.182  11.120  0.6823 -0.3768  0.1484
29667SOL    HW293813   0.991  12.276  11.028 -1.5911  0.5786 -0.7927
29668SOL     OW93814   0.978  11.404   2.163  0.1145 -0.3652  0.1334
29668SOL    HW193815   1.015  11.408   2.074  1.8328  2.2207  0.8531
29668SOL    HW293816   0.938  11.490   2.175  0.2003 -0.5628  1.9822
29669SOL     OW93817   3.802  10.954   1.155  0.0674  0.1106 -0.0771
29669SOL    HW193818   3.733  10.899   1.118 -1.3319  1.2230  0.7730
29669SOL    HW293819   3.870  10.891   1.182 -1.4610 -1.2303  0.8358
29670SOL     OW93820   2.863   5.568   7.547 -0.1722  0.0641 -0.2549
29670SOL    HW193821   2.886   5.656   7.578 -1.5021 -0.1602  1.5527
29670SOL    HW293822   2.817   5.528   7.621 -0.7963 -1.6751 -1.5167
29671SOL     OW93823  10.408   0.983   0.527  0.4247 -0.8811 -0.3764
29671SOL    HW193824  10.409   0.894   0.563  1.5648 -1.0124 -0.6877
29671SOL    HW293825  10.465   0.978   0.450 -0.3495 -0.1223 -1.0187
29672SOL     OW93826   5.717   1.807   7.848 -0.6186  0.0595 -0.1894
29672SOL    HW193827   5.675   1.772   7.927 -4.1643 -0.0459 -1.9269
29672SOL    HW293828   5.680   1.894   7.838 -0.4885 -0.0511 -1.9074
29673SOL     OW93829   0.230   8.540   7.175  0.8007 -0.0637  0.6267
29673SOL    HW193830   0.298   8.607   7.180  0.2961  0.4178  1.2051
29673SOL    HW293831   0.189   8.553   7.090 -0.0976  1.1797  1.2131
29674SOL     OW93832   9.216   9.334   3.588  0.6221  0.2467  0.0603
29674SOL    HW193833   9.305   9.308   3.567  0.0664 -1.8535  0.1193
29674SOL    HW293834   9.209   9.321   3.683 -0.3399 -1.7011 -0.2338
29675SOL     OW93835   2.657   2.771  12.195 -0.5713  0.0453 -0.1029
29675SOL    HW193836   2.646   2.833  12.123 -0.2430  1.5481  1.0784
29675SOL    HW293837   2.582   2.786  12.252 -1.0722 -1.4498 -0.3261
29676SOL     OW93838   7.396   4.605   5.660 -0.3564 -0.0098  0.0910
29676SOL    HW193839   7.483   4.645   5.654 -1.0337  1.4263 -0.8374
29676SOL    HW293840   7.388   4.552   5.581  0.9754 -3.1091  1.8397
29677SOL     OW93841   2.813  10.916   6.147  0.3561 -0.0888 -0.3325
29677SOL    HW193842   2.819  10.864   6.227  0.8248  0.3351 -0.0841
29677SOL    HW293843   2.892  10.970   6.148 -0.6092  1.3645 -0.0578
29678SOL     OW93844   9.858  11.947   4.241 -0.2398  0.1570 -0.0567
29678SOL    HW193845   9.788  11.965   4.178 -1.1828 -0.8118  0.6794
29678SOL    HW293846   9.853  12.020   4.303 -0.0888  0.4893 -0.4338
29679SOL     OW93847  12.075   1.165   4.451  0.3636 -0.0754 -0.2591
29679SOL    HW193848  11.999   1.220   4.469 -0.2756 -1.5890  2.0783
29679SOL    HW293849  12.149   1.226   4.449 -0.2619  0.9044  2.5368
29680SOL     OW93850   0.923  11.571   9.705  0.0570  0.3497  0.2681
29680SOL    HW193851   1.011  11.584   9.671  0.2932 -0.9913  0.3251
29680SOL    HW293852   0.866  11.576   9.628  0.5512 -2.2681 -0.3635
29681SOL     OW93853   9.218  11.199  11.052  0.0372 -0.4187 -0.6116
29681SOL    HW193854   9.258  11.135  11.110 -2.0885 -0.7083  0.6494
29681SOL    HW293855   9.285  11.266  11.040  1.7999 -2.1352 -0.8084
29682SOL     OW93856   6.327   0.543   0.872 -0.3575 -0.5560 -0.0747
29682SOL    HW193857   6.402   0.602   0.861 -0.6459 -0.3080 -0.7738
29682SOL    HW293858   6.304   0.551   0.965  0.4777 -0.6382  0.1521
29683SOL     OW93859  10.705  11.240   0.167  0.4040 -0.1397 -0.7020
29683SOL    HW193860  10.632  11.235   0.105  1.7317  1.3690 -2.4807
29683SOL    HW293861  10.715  11.333   0.186 -0.6588 -0.5710  2.7833
29684SOL     OW93862   6.746   2.894   2.401  0.6621 -0.2048  0.6188
29684SOL    HW193863   6.751   2.864   2.492 -0.0720 -1.0370  0.3959
29684SOL    HW293864   6.730   2.815   2.350 -1.5515  0.5310  0.0497
29685SOL     OW93865  11.906   1.860   1.850  0.3612  0.0096  0.5126
29685SOL    HW193866  11.902   1.779   1.902  1.8740 -1.1573 -1.0803
29685SOL    HW293867  11.989   1.855   1.804 -1.1863  0.5683 -2.6217
29686SOL     OW93868   5.015   2.562   2.514 -0.5326 -0.7724 -0.4955
29686SOL    HW193869   5.105   2.590   2.499  0.4983 -2.3369  2.1839
29686SOL    HW293870   4.987   2.609   2.592 -0.2292 -3.7463  1.5740
29687SOL     OW93871  10.739  11.956   0.222 -0.4037 -0.0776 -0.1351
29687SOL    HW193872  10.794  12.033   0.235 -1.0845  0.2648  0.8040
29687SOL    HW293873  10.649  11.988   0.236 -0.6189 -1.2724  1.4588
29688SOL     OW93874   1.259  10.799  11.384 -0.5465 -0.0138  0.5627
29688SOL    HW193875   1.340  10.822  11.338  0.9123 -0.3743  2.7715
29688SOL    HW293876   1.198  10.868  11.363  1.2153  1.7325  0.8981
29689SOL     OW93877  10.344   4.320   8.187 -0.5858  0.3035 -0.0815
29689SOL    HW193878  10.395   4.393   8.224 -1.0270  0.6259 -0.0961
29689SOL    HW293879  10.268   4.362   8.146 -0.2782 -0.0792 -1.0712
29690SOL     OW93880   3.556   1.704   9.609 -0.4491  0.2875  0.4932
29690SOL    HW193881   3.494   1.748   9.667 -0.3359 -1.1295  1.7351
29690SOL    HW293882   3.628   1.677   9.667  0.7110  0.7381 -0.6920
29691SOL     OW93883   6.591  12.087   7.481  0.4602  0.0896 -0.3796
29691SOL    HW193884   6.579  11.998   7.449 -2.4739  0.5296 -0.7643
29691SOL    HW293885   6.601  12.078   7.576 -0.4004 -0.6506 -0.3453
29692SOL     OW93886   3.454  11.113   8.015  0.1178  0.2924  0.0835
29692SOL    HW193887   3.381  11.111   8.077 -0.5653 -0.3689 -0.7213
29692SOL    HW293888   3.413  11.125   7.930  1.0308  0.9471 -0.2797
29693SOL     OW93889   8.069   7.469   6.979 -1.0117 -0.2789 -0.0576
29693SOL    HW193890   8.099   7.403   7.042 -0.7211 -1.0768 -1.0148
29693SOL    HW293891   8.121   7.547   7.001  0.9905 -1.2864 -0.9091
29694SOL     OW93892   0.576   1.911   4.470 -0.4188 -0.0681  0.0843
29694SOL    HW193893   0.510   1.855   4.430  0.8151 -1.9292  0.5197
29694SOL    HW293894   0.610   1.859   4.543  1.8562  0.5962 -0.4274
29695SOL     OW93895   7.476  12.230   5.253  0.0143  0.2667 -0.1674
29695SOL    HW193896   7.409  12.164   5.275  1.7744 -2.2819 -1.9316
29695SOL    HW293897   7.559  12.185   5.265  1.3177  2.1004 -1.7504
29696SOL     OW93898  10.249   7.572   3.832  0.5970  0.1226 -0.0518
29696SOL    HW193899  10.221   7.490   3.873  2.1760 -0.1725  0.5355
29696SOL    HW293900  10.308   7.545   3.762  0.9562  0.7494 -0.0000
29697SOL     OW93901   1.748   3.436  12.319 -0.2915 -0.5602  0.1150
29697SOL    HW193902   1.805   3.482  12.382 -0.6387  0.5337 -0.3455
29697SOL    HW293903   1.663   3.477  12.330 -0.3363 -0.2666 -1.1365
29698SOL     OW93904   3.434   6.241   8.733 -0.0036  0.3910  0.3661
29698SOL    HW193905   3.397   6.155   8.753  0.3674 -0.1429 -1.0982
29698SOL    HW293906   3.505   6.252   8.797 -0.1804 -0.3081  0.6896
29699SOL     OW93907   1.451   5.630   2.833 -0.1814 -0.0582 -0.2851
29699SOL    HW193908   1.442   5.545   2.877 -2.2540  1.0066  1.5058
29699SOL    HW293909   1.397   5.690   2.884  0.7493  2.2534 -1.8417
29700SOL     OW93910  12.353   9.457   4.793 -0.4189 -0.3093  0.1246
29700SOL    HW193911  12.306   9.479   4.713 -1.2870  0.2712  0.7792
29700SOL    HW293912  12.386   9.540   4.826 -1.2327 -0.3363  1.0771
29701SOL     OW93913   5.601   6.705   1.240  0.0110  0.0752 -0.1092
29701SOL    HW193914   5.578   6.743   1.325  1.0699 -1.4843  0.9439
29701SOL    HW293915   5.693   6.681   1.249  0.0339 -0.4756 -1.5680
29702SOL     OW93916   8.125   6.728   7.799 -0.4918 -1.0148 -0.1327
29702SOL    HW193917   8.047   6.687   7.763  0.0392 -2.0463 -0.1374
29702SOL    HW293918   8.198   6.675   7.765  0.1350 -0.8089  0.8528
29703SOL     OW93919   3.080   2.015   7.215  0.3542 -0.4607 -0.2603
29703SOL    HW193920   3.136   1.951   7.171  2.5559  1.0099  0.2434
29703SOL    HW293921   3.082   2.092   7.158 -1.5541 -0.5070 -0.4339
29704SOL     OW93922   3.228   5.579   8.578  0.6451 -0.7449 -0.0831
29704SOL    HW193923   3.323   5.571   8.585  0.8908  0.0900 -1.8651
29704SOL    HW293924   3.200   5.496   8.540  0.6650 -0.9213  0.2782
29705SOL     OW93925   1.775   9.529   0.650  0.2472 -0.2542  0.3177
29705SOL    HW193926   1.688   9.520   0.609  0.6887  0.1988 -0.7496
29705SOL    HW293927   1.827   9.458   0.611  0.4152 -0.4220  0.8341
29706SOL     OW93928   3.989   4.333   7.190  0.0955  0.0277 -0.1608
29706SOL    HW193929   4.065   4.283   7.163  2.6004  3.2243  0.3730
29706SOL    HW293930   3.985   4.322   7.285 -1.0256 -1.2154 -0.3228
29707SOL     OW93931   8.827   0.448  10.055 -0.1728  0.1871  0.1108
29707SOL    HW193932   8.913   0.464  10.094 -1.1276 -0.8161  2.8891
29707SOL    HW293933   8.835   0.482   9.966  2.6336  1.4317  0.6983
29708SOL     OW93934  11.577   9.100   9.229  0.0501  0.1813 -0.0093
29708SOL    HW193935  11.659   9.148   9.216 -0.1551  0.9891  1.5118
29708SOL    HW293936  11.509   9.160   9.199 -0.2287  1.0225  2.1765
29709SOL     OW93937   2.707   4.057  11.259 -0.2747 -0.1545 -0.0536
29709SOL    HW193938   2.692   3.989  11.324  1.3923 -0.6484 -0.1507
29709SOL    HW293939   2.622   4.100  11.249 -0.7487 -0.5635  1.8739
29710SOL     OW93940   5.913   2.287   6.529 -0.6326  0.4875 -0.1193
29710SOL    HW193941   6.005   2.314   6.529 -0.1964 -0.8092  1.9832
29710SOL    HW293942   5.893   2.268   6.437  0.4475  3.0738 -0.9746
29711SOL     OW93943   1.675   0.438   7.007  0.1491 -0.0916 -0.0464
29711SOL    HW193944   1.644   0.365   6.952  1.7323 -1.5639  0.9125
29711SOL    HW293945   1.717   0.498   6.945 -1.4073  0.1856 -0.8869
29712SOL     OW93946  11.219   4.951   5.554 -0.1579 -0.0556 -0.0258
29712SOL    HW193947  11.294   5.004   5.528  0.3433 -0.8848 -0.3312
29712SOL    HW293948  11.184   4.994   5.632 -1.2389  2.0562 -1.6006
29713SOL     OW93949   3.200   7.055   9.423  0.6244 -1.0649 -0.1997
29713SOL    HW193950   3.145   7.133   9.434  0.5278 -0.8834 -1.6744
29713SOL    HW293951   3.287   7.090   9.402  1.4050 -1.3480  2.2923
29714SOL     OW93952  12.062   4.339   0.392  0.3829  0.3242  0.3375
29714SOL    HW193953  12.015   4.406   0.442  3.3270  1.7342  1.4948
29714SOL    HW293954  12.055   4.367   0.301 -0.1202  1.0698  0.5951
29715SOL     OW93955   9.060   4.719  10.619 -0.0405 -0.5143  0.3866
29715SOL    HW193956   9.145   4.758  10.597  0.2075 -0.8136  0.8103
29715SOL    HW293957   9.078   4.627  10.635 -0.4345 -0.5671  0.5544
29716SOL     OW93958  10.838  11.864   5.341 -0.2351 -0.0217 -0.0486
29716SOL    HW193959  10.847  11.957   5.362  0.2216 -0.2221  0.6713
29716SOL    HW293960  10.796  11.863   5.255  0.0826  0.8517 -0.2220
29717SOL     OW93961   9.479   2.801   0.747 -0.1708 -0.4418 -0.3123
29717SOL    HW193962   9.465   2.856   0.670  1.2223  0.9754  0.3856
29717SOL    HW293963   9.393   2.762   0.765 -1.5103  2.2609 -0.3160
29718SOL     OW93964   6.648   6.650  10.857  0.3290  0.1138 -0.1326
29718SOL    HW193965   6.582   6.632  10.790  0.1756 -0.5716  0.1974
29718SOL    HW293966   6.598   6.674  10.935  0.5173  1.5061 -0.4145
29719SOL     OW93967   1.358   2.426   0.334 -0.4853  0.2577  0.0970
29719SOL    HW193968   1.331   2.451   0.246  1.0145  0.0696 -0.4520
29719SOL    HW293969   1.434   2.481   0.352  0.4955 -1.1536  0.4158
29720SOL     OW93970  11.767   6.408   8.403  0.1437 -0.2048 -0.7410
29720SOL    HW193971  11.765   6.327   8.453 -0.3110 -1.2187 -2.3236
29720SOL    HW293972  11.860   6.428   8.392  0.3185 -1.3804 -1.6275
29721SOL     OW93973   2.724   4.757  11.734 -0.6770 -0.7825  0.2383
29721SOL    HW193974   2.752   4.667  11.721 -2.1009 -1.0431 -1.3149
29721SOL    HW293975   2.636   4.761  11.696 -0.7644  1.1898  0.5341
29722SOL     OW93976   0.015   0.884  11.631  0.2874 -0.2439  0.4163
29722SOL    HW193977   0.026   0.877  11.536 -1.3002 -1.0216  0.2480
29722SOL    HW293978   0.089   0.937  11.660  0.3916  0.6579 -1.3431
29723SOL     OW93979   2.982  10.743   3.708  0.9002 -0.8247  0.1939
29723SOL    HW193980   3.001  10.703   3.792  0.3360 -2.2502 -0.3380
29723SOL    HW293981   2.932  10.677   3.660 -2.0530  1.2723  0.0847
29724SOL     OW93982   4.112   2.190   6.833 -0.4927  0.2227 -0.1131
29724SOL    HW193983   4.147   2.246   6.902 -3.2966  1.1559  0.6665
29724SOL    HW293984   4.123   2.101   6.866  0.1621  0.5293  0.5314
29725SOL     OW93985   7.726   0.253   9.341  0.2148  0.8677  0.1415
29725SOL    HW193986   7.734   0.158   9.336 -1.0104  0.7999 -2.3519
29725SOL    HW293987   7.729   0.273   9.434  0.8201 -1.5588  0.7148
29726SOL     OW93988   8.370   7.463   7.492  0.0786  0.1330  0.4214
29726SOL    HW193989   8.275   7.451   7.496  0.1102  0.2425  3.3322
29726SOL    HW293990   8.406   7.378   7.517  0.6810  0.5775  1.1088
29727SOL     OW93991   8.880  10.447   2.794 -0.2064  0.3777  0.0919
29727SOL    HW193992   8.844  10.399   2.719 -1.4536  1.8292 -0.2989
29727SOL    HW293993   8.887  10.381   2.864 -0.9406 -0.5673 -0.6947
29728SOL     OW93994   2.133  10.300   0.580  0.3201 -0.4752  0.4237
29728SOL    HW193995   2.117  10.211   0.612 -0.6798 -0.6022 -0.3701
29728SOL    HW293996   2.177  10.288   0.496  0.0831 -0.2216  0.2625
29729SOL     OW93997   7.407   8.917   7.668 -0.0706 -0.2482  0.3130
29729SOL    HW193998   7.456   8.894   7.748  0.9691  0.6408 -0.0444
29729SOL    HW293999   7.471   8.905   7.597 -0.7822 -0.3607 -0.3154
29730SOL     OW94000   4.896   7.091   3.346 -0.0160  0.6377  0.1878
29730SOL    HW194001   4.869   7.166   3.400 -0.5119  1.0595 -0.6151
29730SOL    HW294002   4.921   7.024   3.409  0.5898  1.5302  0.9288
29731SOL     OW94003   2.789   7.660   9.709  0.0079  0.2102 -0.0581
29731SOL    HW194004   2.798   7.594   9.778 -1.1721  0.6712  0.5608
29731SOL    HW294005   2.877   7.695   9.698  0.4206 -0.6284  0.4432
29732SOL     OW94006  10.700   8.131   3.057  0.1724  0.0669 -0.1992
29732SOL    HW194007  10.787   8.150   3.091  0.7315  0.1828 -1.6148
29732SOL    HW294008  10.716   8.102   2.967 -1.3035  0.8091 -0.7312
29733SOL     OW94009  11.414   2.867   6.745  0.6487  0.4786 -0.4527
29733SOL    HW194010  11.507   2.847   6.753  0.9820  2.2612  0.7940
29733SOL    HW294011  11.371   2.810   6.809  1.2739  1.7512  1.1718
29734SOL     OW94012   7.293   9.927   3.274  0.3050  0.0469 -0.0538
29734SOL    HW194013   7.207   9.940   3.315 -0.6740 -0.9385 -1.6448
29734SOL    HW294014   7.344  10.004   3.298 -0.8055  0.3583  1.4493
29735SOL     OW94015   9.274   6.400   8.249  0.4501 -0.2180  0.0730
29735SOL    HW194016   9.348   6.445   8.289  0.0753  1.7624 -1.3112
29735SOL    HW294017   9.309   6.364   8.168  1.0033 -3.5060  1.6062
29736SOL     OW94018   3.629   5.479   4.009 -0.0170 -0.5111  0.2439
29736SOL    HW194019   3.676   5.430   3.942  0.2290 -0.9151  0.7065
29736SOL    HW294020   3.572   5.538   3.960  0.2190 -0.7450 -0.3191
29737SOL     OW94021   5.329   0.354   6.445  0.4792  0.5619  0.0544
29737SOL    HW194022   5.276   0.398   6.379 -0.9118  0.6900  1.1822
29737SOL    HW294023   5.287   0.377   6.528  1.2362 -0.8175  0.8680
29738SOL     OW94024   0.129   5.495   4.532 -0.0190 -0.6519 -0.2962
29738SOL    HW194025   0.058   5.498   4.467  0.3668 -2.1356 -0.8253
29738SOL    HW294026   0.191   5.562   4.502 -0.1772 -0.8436 -1.0785
29739SOL     OW94027   0.084   7.853   2.483  0.2988 -0.0510 -0.3057
29739SOL    HW194028   0.176   7.876   2.491  0.3829 -1.0242  3.0902
29739SOL    HW294029   0.042   7.891   2.560 -1.6673 -1.6049 -0.4981
29740SOL     OW94030   4.965   4.248   0.303 -0.6509  0.0707 -0.1187
29740SOL    HW194031   4.929   4.164   0.276  1.5064 -0.8104 -0.4350
29740SOL    HW294032   4.989   4.292   0.222  0.9333 -0.2875  0.1369
29741SOL     OW94033   8.440   9.063  10.070  0.3557  0.0273 -0.8012
29741SOL    HW194034   8.450   8.968  10.070 -0.0223 -0.0400  0.8987
29741SOL    HW294035   8.421   9.086  10.161  1.0161  1.7996 -1.0584
29742SOL     OW94036  12.076   2.001   1.191 -0.3643 -0.0884  0.3623
29742SOL    HW194037  12.160   2.002   1.144 -0.1263  0.7043  0.7862
29742SOL    HW294038  12.065   2.091   1.222 -1.5295 -0.1058  0.0527
29743SOL     OW94039   5.703  11.006   1.721 -0.5639  0.1941  0.0069
29743SOL    HW194040   5.793  10.990   1.696 -0.6090 -0.7283  0.4096
29743SOL    HW294041   5.655  11.012   1.638 -0.1290  0.7683 -0.2086
29744SOL     OW94042   2.953   8.514  11.382  0.2368  0.5408 -0.2843
29744SOL    HW194043   2.875   8.570  11.382 -0.8371 -0.8463 -2.2427
29744SOL    HW294044   2.995   8.532  11.298  2.1342  1.3088  0.7643
29745SOL     OW94045   4.189   9.793   6.579  0.9665  0.0061 -0.0412
29745SOL    HW194046   4.178   9.877   6.535 -1.9270  0.2339  0.8968
29745SOL    HW294047   4.137   9.731   6.527  0.0525 -0.3700  1.2731
29746SOL     OW94048   1.509   6.981   1.736  0.0476  0.5504 -0.0664
29746SOL    HW194049   1.519   7.032   1.656 -1.7307 -1.4488 -1.7062
29746SOL    HW294050   1.423   7.005   1.770 -0.8750 -1.2890 -0.9350
29747SOL     OW94051   6.395   3.644   0.305 -0.1241 -0.0700  0.1581
29747SOL    HW194052   6.480   3.610   0.276 -0.4519  0.0228 -0.9744
29747SOL    HW294053   6.416   3.714   0.366  0.5918 -0.9230  0.9002
29748SOL     OW94054   8.703   1.194   1.510 -0.2057  0.0781 -0.1455
29748SOL    HW194055   8.632   1.197   1.445  0.5026  1.8749 -0.9003
29748SOL    HW294056   8.747   1.278   1.501  1.0921 -0.3923  1.3861
29749SOL     OW94057   0.553   4.476   1.481 -0.8236  0.1735  0.1764
29749SOL    HW194058   0.478   4.419   1.496 -0.1884 -1.1973 -1.5900
29749SOL    HW294059   0.625   4.435   1.529 -0.9562  0.9887  1.1117
29750SOL     OW94060   3.312  10.599   3.729 -0.1612 -0.3494 -0.1012
29750SOL    HW194061   3.395  10.620   3.772  0.5793  0.2693 -1.7200
29750SOL    HW294062   3.245  10.621   3.793  0.9245 -1.2936  1.4099
29751SOL     OW94063   6.282   7.101   6.705  0.3892  0.3561 -0.1336
29751SOL    HW194064   6.266   7.037   6.636  1.4110 -0.1891  0.1141
29751SOL    HW294065   6.195   7.118   6.743  0.1214 -1.0151 -0.0830
29752SOL     OW94066   4.869   9.935   5.285  0.4346 -0.5446  0.3125
29752SOL    HW194067   4.888  10.025   5.310 -1.9578  0.5349 -1.4865
29752SOL    HW294068   4.948   9.906   5.238  0.7515  1.0372 -0.1834
29753SOL     OW94069   5.250   0.375   4.509 -0.0399  0.2096  0.0982
29753SOL    HW194070   5.176   0.336   4.463  1.0704  0.1946 -1.8065
29753SOL    HW294071   5.327   0.339   4.465  1.2365 -1.5105  3.4394
29754SOL     OW94072  11.985   1.528   5.348  0.5151 -0.4020 -0.0977
29754SOL    HW194073  11.964   1.614   5.383 -0.8586 -0.4368 -0.7886
29754SOL    HW294074  12.020   1.479   5.423  0.9237  0.6079  0.3873
29755SOL     OW94075   3.058   5.695   0.164 -0.3949  0.5019  0.0437
29755SOL    HW194076   3.007   5.627   0.120  1.0110 -0.5126 -0.0725
29755SOL    HW294077   3.060   5.667   0.256 -1.4567  1.4465  0.3747
29756SOL     OW94078  10.440   9.258   3.093  0.6028  0.0941  0.6255
29756SOL    HW194079  10.471   9.348   3.082 -1.8974  1.2826  2.3870
29756SOL    HW294080  10.396   9.238   3.010  0.0608  1.0097  0.6745
29757SOL     OW94081   7.374   4.076   4.722 -0.3402 -0.1985  0.1117
29757SOL    HW194082   7.284   4.055   4.748  0.3808 -1.1376  2.0923
29757SOL    HW294083   7.378   4.053   4.629 -2.3022  0.5206 -0.1990
29758SOL     OW94084   7.724   4.738   7.345 -0.1823 -0.5091  0.0474
29758SOL    HW194085   7.802   4.684   7.350 -0.0570 -0.4319 -0.8975
29758SOL    HW294086   7.708   4.749   7.251 -0.2006  1.0756  0.2000
29759SOL     OW94087   1.825   8.734   0.395 -0.0909  0.0873 -0.1775
29759SOL    HW194088   1.914   8.718   0.363 -0.2937 -0.4113 -0.4989
29759SOL    HW294089   1.834   8.735   0.490  0.4514  1.1883 -0.2299
29760SOL     OW94090   7.759   7.120   4.366  0.3841  0.0499 -0.3387
29760SOL    HW194091   7.781   7.180   4.437 -1.4925  1.7096 -1.0566
29760SOL    HW294092   7.699   7.057   4.405 -0.4139  0.7820 -0.3698
29761SOL     OW94093   6.782   1.137  11.021  0.2841  0.5712  0.2919
29761SOL    HW194094   6.860   1.186  10.997  0.4943  0.7768  1.3654
29761SOL    HW294095   6.730   1.197  11.074  0.6021 -0.3786  1.7255
29762SOL     OW94096  12.584   6.784   5.073 -0.2116 -0.0819  0.5891
29762SOL    HW194097  12.662   6.729   5.066 -0.0626  0.1414  0.4599
29762SOL    HW294098  12.524   6.749   5.007  0.5249  0.9389 -0.6792
29763SOL     OW94099   4.598   8.627   4.864  0.7706 -0.4505 -0.2999
29763SOL    HW194100   4.543   8.635   4.942  0.8416  0.4214 -0.3371
29763SOL    HW294101   4.638   8.540   4.872  1.1884 -0.1574  0.8923
29764SOL     OW94102  12.245   4.515   5.411  0.0314 -0.1867  0.1418
29764SOL    HW194103  12.208   4.430   5.388 -0.0872 -0.4845  1.3301
29764SOL    HW294104  12.311   4.533   5.344  0.3632 -1.4159  0.1260
29765SOL     OW94105  11.584   5.205   7.870  0.0860  0.7126 -0.3105
29765SOL    HW194106  11.490   5.213   7.888 -0.1512 -1.2197 -0.4104
29765SOL    HW294107  11.602   5.272   7.804 -0.9152  2.0109  0.7027
29766SOL     OW94108   7.470   9.628  10.280 -0.4480 -0.8144  0.4006
29766SOL    HW194109   7.405   9.674  10.226  0.6108 -0.9247 -1.0241
29766SOL    HW294110   7.542   9.691  10.289  0.3624 -1.6194 -0.2729
29767SOL     OW94111   5.174   1.485   7.135 -0.0104 -0.6058 -0.4656
29767SOL    HW194112   5.229   1.414   7.100  1.1666 -0.3384  0.7395
29767SOL    HW294113   5.085   1.456   7.120  0.4531 -1.4999 -1.6479
29768SOL     OW94114   0.291   0.499   6.815 -0.0516 -0.4074  0.3775
29768SOL    HW194115   0.226   0.524   6.881 -1.3311 -0.5901 -0.7740
29768SOL    HW294116   0.247   0.512   6.731  1.2916 -0.8656 -0.4368
29769SOL     OW94117   5.852  11.042  11.592  0.1989 -0.1726 -0.4059
29769SOL    HW194118   5.914  11.008  11.657  0.1497  1.7252  0.7328
29769SOL    HW294119   5.906  11.062  11.515  0.5953 -0.7283 -0.2780
29770SOL     OW94120   6.890   8.231   8.303  0.1380  0.4790 -0.7204
29770SOL    HW194121   6.832   8.162   8.336  0.2850  0.6385 -0.1135
29770SOL    HW294122   6.959   8.238   8.369  0.0808  1.2635 -0.7283
29771SOL     OW94123   4.813   3.836  11.505  0.3899  0.1568 -1.0534
29771SOL    HW194124   4.815   3.771  11.434  1.1516 -1.4509  0.3489
29771SOL    HW294125   4.802   3.920  11.461 -1.3888 -0.9539 -2.9290
29772SOL     OW94126  12.233   5.731  12.524 -0.6211 -0.3598 -0.7038
29772SOL    HW194127  12.283   5.680  12.587  0.9630  1.4883 -0.3510
29772SOL    HW294128  12.154   5.758  12.571 -0.9726 -1.5853 -0.5693
29773SOL     OW94129   5.250   0.329   5.700 -0.1010  0.1998  0.2115
29773SOL    HW194130   5.186   0.263   5.672  0.1008 -1.1378  2.6434
29773SOL    HW294131   5.224   0.351   5.790  1.9888  0.6970  0.7394
29774SOL     OW94132  12.495   6.238   1.311  0.1598 -0.1885 -0.4001
29774SOL    HW194133  12.542   6.320   1.326 -0.5934  0.0885  0.5643
29774SOL    HW294134  12.551   6.171   1.351  1.6350 -0.4257 -2.6994
29775SOL     OW94135   7.369   8.401   9.991 -0.1082 -0.1077  0.1422
29775SOL    HW194136   7.324   8.476  10.029  0.6485  0.8502 -0.8120
29775SOL    HW294137   7.323   8.384   9.908 -1.7628 -2.1938  1.3841
29776SOL     OW94138   9.122   5.962  10.041 -0.4920  0.4743  0.4028
29776SOL    HW194139   9.048   5.968   9.980  0.8506 -0.1646 -1.3610
29776SOL    HW294140   9.133   5.868  10.056  0.3228  0.5218  0.1582
29777SOL     OW94141   3.522  10.114   4.848  0.1884 -0.6199 -0.5274
29777SOL    HW194142   3.504  10.168   4.771  0.5975  0.4554  0.0912
29777SOL    HW294143   3.608  10.075   4.831  1.6793  1.9043  0.5090
29778SOL     OW94144   3.017   5.341   0.977 -0.3069 -0.1947  0.3838
29778SOL    HW194145   2.934   5.303   1.004 -1.6121  0.7979 -1.8963
29778SOL    HW294146   2.999   5.378   0.890  2.5695 -0.0964 -0.2729
29779SOL     OW94147   9.020   0.704  10.160  0.2385 -0.1411  0.3361
29779SOL    HW194148   9.083   0.774  10.146 -0.3335 -0.1363 -2.9249
29779SOL    HW294149   8.941   0.749  10.191  0.0237  0.6425 -1.2793
29780SOL     OW94150   0.331   2.071   7.577 -0.1449 -0.0164 -0.4104
29780SOL    HW194151   0.296   2.158   7.556  2.2367  1.1598  0.2474
29780SOL    HW294152   0.302   2.017   7.503 -0.8404  1.5415 -1.3577
29781SOL     OW94153   1.060   6.828   7.793 -0.1039  0.0506  0.1577
29781SOL    HW194154   1.064   6.888   7.868  3.1845  0.6213 -0.3205
29781SOL    HW294155   0.978   6.851   7.749 -0.0700  2.6334  1.2494
29782SOL     OW94156   0.026   0.155   3.895  0.3107  0.1328 -0.5582
29782SOL    HW194157   0.084   0.223   3.862 -0.4074  1.8072  1.4743
29782SOL    HW294158  -0.019   0.194   3.969 -0.2574 -2.5197  0.6284
29783SOL     OW94159   5.153   8.902   3.600  0.0966 -0.2788 -0.6330
29783SOL    HW194160   5.146   8.997   3.589 -0.7170 -0.2893 -0.3188
29783SOL    HW294161   5.142   8.867   3.512 -1.3353 -0.1491 -0.5266
29784SOL     OW94162   3.205   6.094   0.544 -0.0807  0.0820  0.3635
29784SOL    HW194163   3.177   6.042   0.619 -0.6878 -1.1847 -0.6918
29784SOL    HW294164   3.206   6.184   0.576  0.7956 -0.5306  2.1910
29785SOL     OW94165   9.787   5.813  10.011  0.2070  0.1783 -0.2872
29785SOL    HW194166   9.802   5.848  10.099 -2.2905 -0.5026  0.4642
29785SOL    HW294167   9.732   5.879   9.969  0.1118 -0.2359 -0.8081
29786SOL     OW94168  12.257  12.495   7.791 -0.3568  0.1493 -0.2795
29786SOL    HW194169  12.172  12.472   7.829 -0.5497 -0.6588 -1.1331
29786SOL    HW294170  12.320  12.479   7.861 -0.7652 -0.6856 -0.0813
29787SOL     OW94171   6.881   7.664   4.481 -0.1509  0.5318  0.2152
29787SOL    HW194172   6.900   7.570   4.483  2.0363  0.8508 -1.4064
29787SOL    HW294173   6.786   7.669   4.483 -0.4613 -1.8812 -2.0585
29788SOL     OW94174   4.305   2.346   8.189 -0.1324 -0.3744 -0.3405
29788SOL    HW194175   4.393   2.333   8.224  0.1761  2.2327  0.0672
29788SOL    HW294176   4.247   2.338   8.265  0.0873  0.7835 -0.0257
29789SOL     OW94177  12.476   8.570   0.048  0.4720  0.4804 -0.1361
29789SOL    HW194178  12.513   8.650   0.013  1.5340  0.1710  0.2375
29789SOL    HW294179  12.509   8.501  -0.010 -0.8157  0.3384 -0.7439
29790SOL     OW94180  10.176   0.157   9.714  0.3131 -0.1631 -0.0564
29790SOL    HW194181  10.106   0.092   9.717 -0.4940  0.6957  0.4463
29790SOL    HW294182  10.184   0.180   9.621 -0.4721  0.1381 -0.0554
29791SOL     OW94183   5.087  10.923   6.348 -0.1470  0.1950  0.1761
29791SOL    HW194184   5.143  10.902   6.423 -0.3087  1.3248  0.6398
29791SOL    HW294185   5.011  10.866   6.358  0.7753 -1.1884 -0.3296
29792SOL     OW94186  11.132   3.893   0.223  0.0220 -0.2495 -0.5110
29792SOL    HW194187  11.116   3.799   0.213  1.5795 -0.3434 -2.6161
29792SOL    HW294188  11.188   3.899   0.300  0.6760 -1.1429 -0.9012
29793SOL     OW94189  11.129  10.016   1.730  0.0429 -0.5479 -0.2250
29793SOL    HW194190  11.156  10.002   1.639  0.3837 -3.0888  0.1824
29793SOL    HW294191  11.033  10.009   1.728 -0.1214  1.4512 -0.6509
29794SOL     OW94192   2.602   1.349   2.685  0.1008  0.0345  0.2108
29794SOL    HW194193   2.642   1.272   2.643  0.5479  0.0238  0.6458
29794SOL    HW294194   2.624   1.340   2.777 -2.5911 -1.0313  0.8387
29795SOL     OW94195   0.500   1.841   4.086  0.4371  0.2994  0.4230
29795SOL    HW194196   0.465   1.849   4.175  0.3377  1.0271  0.3184
29795SOL    HW294197   0.442   1.778   4.043 -1.0416  1.8105  0.1068
29796SOL     OW94198   0.001   4.887  12.339 -0.1455  0.3922 -0.3637
29796SOL    HW194199  -0.078   4.937  12.360  0.2274  1.3157 -1.1083
29796SOL    HW294200   0.058   4.949  12.294  1.2314 -0.1159  0.6063
29797SOL     OW94201   7.632   6.299   7.856 -0.4444 -0.5454  0.5450
29797SOL    HW194202   7.723   6.309   7.886 -0.7040 -0.3871  1.2884
29797SOL    HW294203   7.580   6.302   7.936 -0.9589 -2.5761  0.3520
29798SOL     OW94204  10.107   8.146  12.051 -0.3388  0.0282 -0.0024
29798SOL    HW194205  10.106   8.065  12.002  2.0955  0.1920 -0.4627
29798SOL    HW294206  10.148   8.210  11.992 -0.6810  1.1646  0.9350
29799SOL     OW94207   1.772   2.431   7.872 -0.0014  0.4125 -0.8074
29799SOL    HW194208   1.681   2.416   7.848  0.3085 -0.5288 -1.4687
29799SOL    HW294209   1.774   2.419   7.967 -0.7821  1.6755 -0.6095
29800SOL     OW94210   7.254   7.094   6.579 -0.2211  0.1997 -0.1584
29800SOL    HW194211   7.163   7.103   6.606 -0.6446  1.1825 -1.7459
29800SOL    HW294212   7.271   7.172   6.526  0.2108 -1.8989 -3.3846
29801SOL     OW94213   7.633  11.701   6.623  1.0293  0.5641  0.0293
29801SOL    HW194214   7.667  11.717   6.535  0.0221 -2.7467 -1.1034
29801SOL    HW294215   7.694  11.638   6.661  2.2683  3.0095  2.3865
29802SOL     OW94216   3.395   2.867   1.155 -0.2875  0.5100  0.1919
29802SOL    HW194217   3.319   2.811   1.170 -0.6912  0.6585 -1.1373
29802SOL    HW294218   3.380   2.905   1.068  2.0670 -0.7206 -0.8545
29803SOL     OW94219   6.985  11.170   4.866  0.2529  0.1302  0.3390
29803SOL    HW194220   7.016  11.101   4.924  0.9414  0.2124  0.0772
29803SOL    HW294221   6.902  11.137   4.832  0.9925 -0.9715 -0.4676
29804SOL     OW94222   6.541  10.283   4.119  0.3379  0.2187  0.0431
29804SOL    HW194223   6.512  10.331   4.197  0.7703  3.4296 -1.6248
29804SOL    HW294224   6.637  10.283   4.125  0.3441 -1.3154  0.4400
29805SOL     OW94225  10.974   0.790   6.330  0.2390  0.6742 -0.0008
29805SOL    HW194226  11.015   0.806   6.245  2.4800 -0.1341  0.8574
29805SOL    HW294227  10.880   0.782   6.310  0.6428  1.0168 -2.3048
29806SOL     OW94228  10.833   5.300   1.140 -0.1562  0.0709 -0.8940
29806SOL    HW194229  10.780   5.220   1.147  0.5259 -0.3148  0.0767
29806SOL    HW294230  10.920   5.274   1.169 -0.0937  1.3238  0.1777
29807SOL     OW94231   0.106   0.626   8.502  0.2088  0.2195  0.2490
29807SOL    HW194232   0.179   0.649   8.560 -0.1466 -1.0548  1.2476
29807SOL    HW294233   0.043   0.697   8.515 -0.0846 -0.2917  1.8387
29808SOL     OW94234   0.161   4.516  10.250  0.6016 -0.3781 -0.1442
29808SOL    HW194235   0.068   4.503  10.230  0.2314  1.6273  0.1001
29808SOL    HW294236   0.162   4.554  10.337  1.7681 -1.6583  0.4424
29809SOL     OW94237   2.689   7.120  11.757 -0.0884  0.3154  0.5750
29809SOL    HW194238   2.608   7.073  11.736 -0.6225  1.6768 -0.6250
29809SOL    HW294239   2.666   7.175  11.832 -1.1976  2.7355 -1.3864
29810SOL     OW94240   1.764   7.717   6.320  0.0317 -0.0275  0.2466
29810SOL    HW194241   1.850   7.695   6.282 -0.4163  0.8891 -1.3858
29810SOL    HW294242   1.730   7.787   6.264 -1.1973  0.5974  1.6958
29811SOL     OW94243   2.965   4.431   4.824 -0.2165 -0.2809 -0.0316
29811SOL    HW194244   2.992   4.472   4.906  1.3445 -0.1382 -0.5800
29811SOL    HW294245   3.045   4.393   4.788 -1.0659 -1.2489 -0.9904
29812SOL     OW94246   0.147   7.129   3.510  0.2716 -0.1436 -0.1378
29812SOL    HW194247   0.191   7.051   3.543  0.0376 -0.0640  0.3760
29812SOL    HW294248   0.055   7.104   3.504  0.1722  0.1362  0.1731
29813SOL     OW94249   2.651   2.995   8.252  0.0530  0.1956 -0.0968
29813SOL    HW194250   2.649   3.090   8.239 -1.0408  0.1069 -0.6772
29813SOL    HW294251   2.561   2.973   8.278  0.4295 -0.6170  0.5419
29814SOL     OW94252   5.070   1.602   3.548 -0.0966 -0.0876 -0.6234
29814SOL    HW194253   5.107   1.517   3.526 -0.4501 -0.4313  0.0728
29814SOL    HW294254   5.126   1.665   3.502  2.3528 -0.4891  1.5821
29815SOL     OW94255   8.136   7.881  11.947  0.4633  0.5062 -0.4683
29815SOL    HW194256   8.112   7.972  11.965  1.7449  1.1663 -1.8959
29815SOL    HW294257   8.186   7.853  12.024 -1.5705  0.2985  0.8771
29816SOL     OW94258   7.805   9.353   8.978 -0.3933  0.0634  0.5558
29816SOL    HW194259   7.804   9.434   9.028  1.4904 -0.0128  0.7811
29816SOL    HW294260   7.803   9.284   9.045 -1.3685 -0.0848  0.3870
29817SOL     OW94261   8.049   7.875   9.495 -0.2430 -0.6187 -0.7056
29817SOL    HW194262   7.982   7.922   9.447 -0.0890  0.2780 -0.0832
29817SOL    HW294263   8.124   7.935   9.497  0.1939 -1.1560 -0.4574
29818SOL     OW94264   8.630   4.739   8.440 -0.0497  0.7152 -0.2086
29818SOL    HW194265   8.618   4.734   8.345  1.4978 -0.0386 -0.3882
29818SOL    HW294266   8.656   4.830   8.455  1.8146  0.3343 -0.8194
29819SOL     OW94267   8.819   9.773   0.521 -0.2721  0.1509  0.0965
29819SOL    HW194268   8.887   9.770   0.454  0.5249  0.3559  0.8779
29819SOL    HW294269   8.782   9.685   0.523  1.7841 -0.7542  1.4659
29820SOL     OW94270  10.756   4.350   3.603  0.2063  0.3933 -0.2747
29820SOL    HW194271  10.846   4.361   3.635  0.4033  0.6980 -0.9207
29820SOL    HW294272  10.704   4.337   3.682  1.3637 -3.9860  0.0282
29821SOL     OW94273   0.271  10.942   8.425 -0.0099 -0.1430  0.0967
29821SOL    HW194274   0.214  10.946   8.348 -1.2215  0.2512  0.9794
29821SOL    HW294275   0.308  10.854   8.423 -0.3672 -0.2780 -0.7050
29822SOL     OW94276   2.684   7.317   4.554  0.0824 -0.7869 -0.2633
29822SOL    HW194277   2.716   7.341   4.467 -2.6631 -1.5366 -1.5632
29822SOL    HW294278   2.740   7.244   4.581  0.7897 -0.7317 -1.5010
29823SOL     OW94279   9.742   9.878  10.743 -0.2201  0.5069  0.2848
29823SOL    HW194280   9.831   9.895  10.712 -1.0503  2.5777 -1.1947
29823SOL    HW294281   9.711   9.807  10.686  0.9681 -1.4342  1.9236
29824SOL     OW94282   9.294   3.915   4.430  0.2256  0.4163 -0.2154
29824SOL    HW194283   9.257   3.987   4.380 -0.1246 -0.5323 -1.3516
29824SOL    HW294284   9.267   3.933   4.521 -0.8601  1.0836 -0.6530
29825SOL     OW94285   7.347   3.784  10.321  0.3461 -0.3524 -0.6730
29825SOL    HW194286   7.359   3.694  10.293  0.5944 -0.4276 -0.3278
29825SOL    HW294287   7.426   3.806  10.370 -0.0213 -0.1865 -0.1378
29826SOL     OW94288  10.978   9.263   5.817 -0.1533  0.1569 -0.2037
29826SOL    HW194289  10.955   9.351   5.848  1.3563  0.2412  0.7719
29826SOL    HW294290  10.990   9.212   5.897 -1.2720 -1.0378 -0.7621
29827SOL     OW94291  11.492   9.207  10.809  0.1071  0.2692  0.3902
29827SOL    HW194292  11.411   9.161  10.786  0.2604  0.7762 -1.2929
29827SOL    HW294293  11.556   9.177  10.745 -0.2150  3.9917 -1.9689
29828SOL     OW94294   4.366   1.067   6.413 -0.8443 -0.1934 -0.0952
29828SOL    HW194295   4.365   0.984   6.367 -0.3359  0.7720 -1.9538
29828SOL    HW294296   4.343   1.132   6.346  1.4133  1.4635  0.5978
29829SOL     OW94297   0.634   9.445  10.910 -0.0069 -0.0283  0.0519
29829SOL    HW194298   0.593   9.509  10.852 -1.1722 -2.3117 -1.8106
29829SOL    HW294299   0.721   9.480  10.927 -0.3431  1.6990 -1.4653
29830SOL     OW94300  11.546   6.074   8.862  0.2114 -0.4325 -0.3389
29830SOL    HW194301  11.541   5.987   8.901  0.7599 -0.8632 -1.1984
29830SOL    HW294302  11.623   6.114   8.902 -0.5664  0.0219  0.7441
29831SOL     OW94303   4.888  11.048   6.849 -0.2075  0.4248  0.6046
29831SOL    HW194304   4.886  11.111   6.777 -0.2332  0.7214  0.8629
29831SOL    HW294305   4.858  10.966   6.809  2.7691 -0.2635 -0.5158
29832SOL     OW94306  11.334   5.262   7.914  0.2498 -0.4446 -0.6475
29832SOL    HW194307  11.346   5.263   8.009  2.6126  1.2653 -0.8520
29832SOL    HW294308  11.249   5.221   7.900 -1.8891  2.4198  2.4024
29833SOL     OW94309   1.411   1.099   1.636  0.2869  0.2820 -0.2416
29833SOL    HW194310   1.399   1.051   1.554  1.4306  0.2939 -0.4274
29833SOL    HW294311   1.422   1.191   1.609  0.4305  0.3209 -0.0529
29834SOL     OW94312  11.854   9.080   5.963 -0.3264  0.2184  0.2183
29834SOL    HW194313  11.812   9.165   5.976  0.8658  0.9641 -0.5575
29834SOL    HW294314  11.887   9.083   5.873 -0.0047 -0.9567  0.2704
29835SOL     OW94315   8.368   0.507   2.253 -0.1459 -0.1249 -0.0721
29835SOL    HW194316   8.299   0.573   2.245 -0.7344 -0.6367  0.5801
29835SOL    HW294317   8.449   0.557   2.256 -0.5216  0.5187 -0.4031
29836SOL     OW94318   7.513   4.192   9.816 -0.2299  0.3471 -0.1126
29836SOL    HW194319   7.449   4.121   9.822  0.3837 -0.2299 -0.2799
29836SOL    HW294320   7.528   4.202   9.722 -0.8314  1.1751 -0.1262
29837SOL     OW94321   5.706   8.309  12.519 -0.0608  0.0044  0.4475
29837SOL    HW194322   5.790   8.264  12.519 -0.6463 -1.2085  2.2719
29837SOL    HW294323   5.658   8.271  12.592 -2.2069  0.6746 -0.5121
29838SOL     OW94324   8.488  12.278   2.970  0.9641 -0.1068  0.0432
29838SOL    HW194325   8.499  12.318   2.883 -0.8256  0.4945  0.0582
29838SOL    HW294326   8.533  12.194   2.963 -1.1057 -1.1758 -2.3121
29839SOL     OW94327   1.148   4.778   6.490 -0.1756 -0.1798 -0.3312
29839SOL    HW194328   1.086   4.805   6.558 -0.6856  0.4128 -1.0198
29839SOL    HW294329   1.163   4.856   6.438  1.7209 -0.1259  0.2255
29840SOL     OW94330   1.660  12.536   6.292  0.1717  0.7112 -0.3987
29840SOL    HW194331   1.701  12.599   6.234  0.5201 -0.9645 -2.0861
29840SOL    HW294332   1.566  12.550   6.280  0.2389  0.4273 -1.3633
29841SOL     OW94333   8.706   5.641   5.279 -0.4259 -0.1215  0.2554
29841SOL    HW194334   8.659   5.561   5.254  0.1938 -0.6039  0.6084
29841SOL    HW294335   8.730   5.681   5.195 -1.2431  0.0120  0.0697
29842SOL     OW94336   6.767   0.277   6.175 -0.0351 -0.1954  0.4731
29842SOL    HW194337   6.860   0.301   6.171 -0.4536  1.7482  1.3456
29842SOL    HW294338   6.729   0.313   6.095  0.4133 -3.6535 -1.5112
29843SOL     OW94339  11.266  12.490   0.255 -0.4522 -0.0728 -0.1484
29843SOL    HW194340  11.270  12.415   0.314 -0.9997 -0.0896 -0.1195
29843SOL    HW294341  11.173  12.496   0.231  0.1968 -2.4067 -3.9936
29844SOL     OW94342  12.393  10.174   5.856  0.6963 -0.1978 -0.0421
29844SOL    HW194343  12.384  10.208   5.767 -1.1583  0.0345  0.1959
29844SOL    HW294344  12.330  10.101   5.860  0.7800 -0.2183  1.0663
29845SOL     OW94345   8.895   8.281   1.057  0.1642  0.2571  0.2835
29845SOL    HW194346   8.863   8.213   1.117 -0.5353 -0.8188 -1.2678
29845SOL    HW294347   8.853   8.262   0.974  2.4854  0.6398 -1.0523
29846SOL     OW94348  11.137   3.482   0.476  0.4609  0.3901 -0.0517
29846SOL    HW194349  11.170   3.392   0.470  2.7382  1.0012  1.9998
29846SOL    HW294350  11.054   3.474   0.523 -0.5059 -0.8068 -1.8475
29847SOL     OW94351  12.097   2.237   6.009  0.0904  0.0740 -0.1936
29847SOL    HW194352  12.106   2.143   6.023  2.9267  0.1172 -1.0735
29847SOL    HW294353  12.005   2.255   6.024 -0.4613 -2.7739  0.3663
29848SOL     OW94354   5.138   8.851   0.149  0.0825 -0.3240  0.3082
29848SOL    HW194355   5.124   8.757   0.143 -2.4472  0.0023 -0.1237
29848SOL    HW294356   5.125   8.872   0.242  1.6407 -0.5021  0.5839
29849SOL     OW94357   1.523   6.312   4.768 -0.0187  0.0344  0.0922
29849SOL    HW194358   1.578   6.319   4.847 -1.8773 -0.9077  1.5454
29849SOL    HW294359   1.447   6.367   4.787 -0.1925  0.3136 -1.3368
29850SOL     OW94360   3.526   1.899   9.995  0.2824  0.6551  0.3212
29850SOL    HW194361   3.445   1.885  10.044 -0.7130  0.6721 -1.2582
29850SOL    HW294362   3.574   1.817  10.004  0.3259  0.8124  1.6709
29851SOL     OW94363   0.768   7.251   8.096  0.1470  0.5932 -0.1270
29851SOL    HW194364   0.831   7.292   8.037  0.8032 -0.1812  0.0058
29851SOL    HW294365   0.692   7.308   8.095 -0.0519  0.3418 -2.0889
29852SOL     OW94366   4.746   6.074  11.271 -0.4798  0.0889  0.4392
29852SOL    HW194367   4.704   6.030  11.197  1.9494  0.7549 -1.4620
29852SOL    HW294368   4.787   6.003  11.321  0.3173 -0.1664 -0.5389
29853SOL     OW94369   8.699  11.234   4.726  0.5219 -0.2122  0.8120
29853SOL    HW194370   8.794  11.245   4.719  0.3538  0.5794 -0.5877
29853SOL    HW294371   8.681  11.152   4.681  0.4778 -0.0582  0.5505
29854SOL     OW94372   7.465   5.276   6.398 -0.0833 -0.2716 -0.1771
29854SOL    HW194373   7.558   5.264   6.418 -0.0347  1.9665  1.3430
29854SOL    HW294374   7.419   5.228   6.467  0.0146  0.6343  0.5465
29855SOL     OW94375   1.221   1.570   0.657  0.0541 -0.4038  0.3294
29855SOL    HW194376   1.224   1.665   0.643  0.2225 -0.1080  2.1518
29855SOL    HW294377   1.127   1.550   0.665  0.0416 -0.2976  0.4591
29856SOL     OW94378   9.176  11.683  11.594  0.4591 -0.8620  0.2444
29856SOL    HW194379   9.144  11.664  11.506  1.3292 -2.1109  0.1723
29856SOL    HW294380   9.124  11.758  11.622  1.6930  1.0792 -2.2105
29857SOL     OW94381   5.915   8.288   6.566  0.5239 -0.1569 -0.2913
29857SOL    HW194382   5.888   8.327   6.482  1.3806 -0.4941 -0.7329
29857SOL    HW294383   6.009   8.303   6.570  0.4784 -0.0794  0.6620
29858SOL     OW94384   0.350  10.870   3.851 -1.0695 -0.4304  0.5909
29858SOL    HW194385   0.350  10.777   3.827 -1.4986 -0.7952  1.9279
29858SOL    HW294386   0.390  10.872   3.938  0.7300  0.8782 -0.1857
29859SOL     OW94387   6.466  10.038   2.129 -0.7825 -0.1501 -1.1264
29859SOL    HW194388   6.415   9.974   2.179  2.2001 -0.2160  2.2833
29859SOL    HW294389   6.522   9.985   2.072  0.5500 -0.6227  0.5310
29860SOL     OW94390   0.337   5.135   0.924 -0.2494 -0.3843 -0.1326
29860SOL    HW194391   0.292   5.068   0.872 -0.2058 -0.8524  0.4259
29860SOL    HW294392   0.430   5.124   0.902  0.0528 -2.0827  1.6722
29861SOL     OW94393  12.525   6.524   0.166  0.3194  0.4876  0.8183
29861SOL    HW194394  12.606   6.537   0.215  1.8013 -1.4094 -0.9608
29861SOL    HW294395  12.504   6.432   0.179 -0.5687  0.5391 -0.1872
29862SOL     OW94396   4.061   5.316   2.341  0.1778 -0.1877 -0.1355
29862SOL    HW194397   3.989   5.373   2.315 -0.1033 -0.8547 -0.8755
29862SOL    HW294398   4.120   5.316   2.267  0.7234 -0.0004  0.2952
29863SOL     OW94399  10.657   3.289  12.031 -0.1508  0.4220 -0.3265
29863SOL    HW194400  10.599   3.340  11.975 -1.8743 -0.9300  0.1346
29863SOL    HW294401  10.711   3.354  12.075 -1.4819  1.7669 -0.5871
29864SOL     OW94402   4.379  11.438   7.142 -0.2305  0.1699  0.3818
29864SOL    HW194403   4.440  11.493   7.093 -2.1746  2.5832  0.4764
29864SOL    HW294404   4.384  11.471   7.232 -1.5517  0.3391  0.4103
29865SOL     OW94405   3.414  11.318   2.613 -0.3380  0.3314 -0.4100
29865SOL    HW194406   3.352  11.388   2.634  0.5349  0.4190  2.3079
29865SOL    HW294407   3.375  11.239   2.652  0.6622  0.1654  0.2976
29866SOL     OW94408   5.018   6.679   4.881  0.3993  0.1773 -0.2432
29866SOL    HW194409   4.927   6.690   4.909  0.6965  3.0579 -0.1251
29866SOL    HW294410   5.012   6.657   4.788 -0.4155 -1.4784  0.1656
29867SOL     OW94411   2.107  10.712   2.091 -0.9798  0.2684 -0.4582
29867SOL    HW194412   2.086  10.741   2.003  1.3273  1.5525 -0.6577
29867SOL    HW294413   2.192  10.668   2.083 -0.7279  0.3908  1.1040
29868SOL     OW94414   2.058  10.166  12.348  0.4921 -0.0695  0.1821
29868SOL    HW194415   2.071  10.090  12.403  1.1857 -1.2243 -1.4844
29868SOL    HW294416   1.963  10.180  12.348  0.3066 -1.2120  0.1872
29869SOL     OW94417   7.555   0.654   7.209 -0.1558  0.0181  0.1462
29869SOL    HW194418   7.618   0.598   7.164 -0.8341 -0.5730 -0.0830
29869SOL    HW294419   7.606   0.699   7.276  0.1760 -1.8609  1.2279
29870SOL     OW94420   2.857   4.583   6.078 -0.6420  0.5391 -0.0455
29870SOL    HW194421   2.905   4.529   6.016 -0.4019 -1.1220  1.4962
29870SOL    HW294422   2.780   4.612   6.031 -0.2487 -0.3111 -1.2483
29871SOL     OW94423   0.429   3.455  10.629 -0.3473 -0.0593  0.3084
29871SOL    HW194424   0.396   3.368  10.652  0.8041 -1.3726 -2.5947
29871SOL    HW294425   0.365   3.490  10.567  1.1310 -0.5907 -1.6049
29872SOL     OW94426   0.920   6.924  10.011 -0.3344  0.2629 -0.1163
29872SOL    HW194427   1.000   6.872  10.017 -0.8548 -0.4936  0.3675
29872SOL    HW294428   0.893   6.917   9.920 -2.2208 -3.1420  0.5542
29873SOL     OW94429   3.223   5.105   0.786 -0.0864 -0.1997 -0.3203
29873SOL    HW194430   3.279   5.070   0.855 -0.8829 -0.3155  0.2801
29873SOL    HW294431   3.178   5.028   0.750  0.4119 -0.1593 -1.0641
29874SOL     OW94432   9.920   1.349   0.654 -0.0854 -0.6691 -0.0777
29874SOL    HW194433   9.962   1.434   0.671 -0.2380 -0.5882 -0.1049
29874SOL    HW294434   9.826   1.367   0.660 -0.1125 -0.9506  0.4717
29875SOL     OW94435   5.073   2.721   3.588 -0.4680 -0.0212  0.3217
29875SOL    HW194436   5.030   2.801   3.616 -1.9960 -1.7907  3.6005
29875SOL    HW294437   5.001   2.662   3.566  0.3107 -1.8855  2.3941
29876SOL     OW94438   4.899   5.419   6.735 -0.0370  0.5075 -0.8659
29876SOL    HW194439   4.849   5.433   6.655  0.4857 -0.4782 -1.3865
29876SOL    HW294440   4.900   5.504   6.779 -0.9013  0.8889 -1.5698
29877SOL     OW94441   0.392  12.076   5.967  0.3325  0.2335 -0.3119
29877SOL    HW194442   0.411  12.048   5.877  1.1019  0.7206 -0.3049
29877SOL    HW294443   0.339  12.155   5.957 -1.6053 -0.9798 -0.3282
29878SOL     OW94444   5.731   1.106   2.091 -0.7460 -0.7133  0.1075
29878SOL    HW194445   5.814   1.151   2.105 -0.7601 -0.5783 -0.2199
29878SOL    HW294446   5.755   1.015   2.076 -0.6267 -0.6161 -0.3153
29879SOL     OW94447   4.194   2.210   2.231 -0.2230  0.3894 -0.8124
29879SOL    HW194448   4.250   2.272   2.185  1.5137 -0.2618  0.3225
29879SOL    HW294449   4.253   2.164   2.291 -1.6677 -1.5576 -0.7864
29880SOL     OW94450   3.168  11.272   9.478  0.2572  0.2505  0.2809
29880SOL    HW194451   3.120  11.233   9.551  0.6068 -0.4437  0.1552
29880SOL    HW294452   3.176  11.200   9.415  1.2416  0.4158  0.1990
29881SOL     OW94453   1.099   6.238  10.537  0.1813  0.0917 -0.1521
29881SOL    HW194454   1.194   6.224  10.536  0.8484  3.5552 -0.9341
29881SOL    HW294455   1.087   6.321  10.490 -3.1406  0.3801  0.9374
29882SOL     OW94456   2.690   6.967  11.269 -0.0315 -0.0919 -0.7326
29882SOL    HW194457   2.604   6.929  11.248  0.3745 -0.5338 -1.6360
29882SOL    HW294458   2.705   6.941  11.360 -2.0275  2.2467  0.3822
29883SOL     OW94459   7.887   2.061   3.032 -0.1269 -0.1783  0.0833
29883SOL    HW194460   7.855   1.989   2.977 -0.4532 -1.3846  1.7785
29883SOL    HW294461   7.931   2.120   2.970  1.2073 -2.3978 -1.2361
29884SOL     OW94462   9.568   1.100   5.744 -0.2839 -0.1249  0.0778
29884SOL    HW194463   9.571   1.007   5.768  1.1659 -0.1267 -0.0085
29884SOL    HW294464   9.657   1.132   5.761 -0.8330  1.3289  0.3863
29885SOL     OW94465   8.177   3.647   6.368 -0.5329 -0.2280 -0.1055
29885SOL    HW194466   8.263   3.688   6.355 -1.1273  0.5344 -2.0108
29885SOL    HW294467   8.128   3.709   6.420 -1.3800  1.5730 -2.8509
29886SOL     OW94468  11.094   9.227   4.021 -0.0676 -0.0143 -0.0336
29886SOL    HW194469  11.022   9.202   4.078 -0.6333  0.3853 -0.5546
29886SOL    HW294470  11.053   9.277   3.950  0.9823  2.4872  0.9767
29887SOL     OW94471   1.723   8.024   7.650  0.2705  0.1619 -0.6256
29887SOL    HW194472   1.779   7.947   7.639  1.6191  1.2257 -1.4209
29887SOL    HW294473   1.728   8.069   7.566 -3.0018 -0.4628 -1.2898
29888SOL     OW94474   5.164   1.290   0.072  0.0044 -0.1096 -0.2676
29888SOL    HW194475   5.257   1.278   0.089  0.3873 -0.2998 -2.2561
29888SOL    HW294476   5.138   1.209   0.027 -0.5908  0.8467 -1.6830
29889SOL     OW94477  10.250   2.752   4.853  0.2533  0.3875 -0.1640
29889SOL    HW194478  10.283   2.666   4.826 -1.1392 -0.6574  1.2570
29889SOL    HW294479  10.316   2.785   4.914  1.0902  0.6354 -1.1718
29890SOL     OW94480   5.365   0.777   8.792 -1.0741  0.1851  0.2222
29890SOL    HW194481   5.395   0.689   8.767 -0.0462  0.2382  1.1913
29890SOL    HW294482   5.270   0.773   8.784 -1.1457 -1.4175  1.4579
29891SOL     OW94483   7.473  10.690   3.596 -0.4558  0.3883 -0.0152
29891SOL    HW194484   7.425  10.677   3.677 -1.1536  2.9076  0.0716
29891SOL    HW294485   7.405  10.708   3.531  0.2019  0.7319 -0.6175
29892SOL     OW94486   1.942   0.642   3.941  0.3937 -0.0951 -0.5360
29892SOL    HW194487   2.009   0.587   3.982 -0.1210 -2.1595 -2.2300
29892SOL    HW294488   1.859   0.601   3.966 -0.1865  1.4446  0.1841
29893SOL     OW94489   3.806  12.221   2.183  0.0790 -0.0700 -0.2970
29893SOL    HW194490   3.896  12.189   2.177  0.9932  2.5000 -2.9410
29893SOL    HW294491   3.781  12.238   2.092 -2.9568 -0.2600  0.4058
29894SOL     OW94492   0.170   4.232   4.171 -0.4450  0.0790 -0.2524
29894SOL    HW194493   0.135   4.226   4.260  1.4075  0.6008  0.5634
29894SOL    HW294494   0.093   4.229   4.115 -1.5874 -1.4679  1.2947
29895SOL     OW94495   6.664  10.470   0.925 -0.0252  0.7398 -0.3511
29895SOL    HW194496   6.574  10.440   0.939 -0.4496  1.5069 -1.3572
29895SOL    HW294497   6.676  10.463   0.830  0.8492  1.0175 -0.2599
29896SOL     OW94498   9.431   3.067   5.286 -0.1298 -0.8549 -0.4125
29896SOL    HW194499   9.519   3.036   5.305 -1.0114 -2.0670  2.2154
29896SOL    HW294500   9.378   2.987   5.284 -1.2494 -0.1188 -1.5775
29897SOL     OW94501   5.042   5.756   6.189  0.5700  0.1907  0.1349
29897SOL    HW194502   4.965   5.700   6.174  0.2765  0.4973  0.4604
29897SOL    HW294503   5.067   5.738   6.280  0.6350  0.3914  0.1575
29898SOL     OW94504   1.228   5.701   4.116  0.1914  0.4731  0.7122
29898SOL    HW194505   1.317   5.681   4.088 -0.5944 -0.6360 -1.2000
29898SOL    HW294506   1.213   5.644   4.191  0.8831  0.2076  0.6564
29899SOL     OW94507  11.251   9.874   5.218 -0.0579 -0.5877  0.0822
29899SOL    HW194508  11.307   9.950   5.237  0.2252 -1.0388  1.1398
29899SOL    HW294509  11.235   9.835   5.304 -0.4321 -1.5627 -0.4222
29900SOL     OW94510   0.288   9.374   9.035 -0.0738 -0.5626  0.4544
29900SOL    HW194511   0.225   9.304   9.014 -1.1095  0.0406  1.4404
29900SOL    HW294512   0.257   9.410   9.118  0.1995  1.3394 -0.2273
29901SOL     OW94513   9.842   0.097   7.020 -0.3811  0.1451 -0.4016
29901SOL    HW194514   9.830   0.179   7.070 -1.8614  0.1072 -0.6423
29901SOL    HW294515   9.763   0.046   7.040  0.7942 -1.4990  0.2121
29902SOL     OW94516   2.991   6.540   1.110 -0.5139  0.2052 -0.1397
29902SOL    HW194517   3.006   6.453   1.073  0.4611  0.1341  0.3898
29902SOL    HW294518   2.984   6.525   1.205 -1.6104  0.5579 -0.1470
29903SOL     OW94519   3.663   8.965   1.117  0.4494  0.5136 -0.1648
29903SOL    HW194520   3.583   9.014   1.133  0.4751  0.4609  0.1399
29903SOL    HW294521   3.691   8.992   1.029  1.5868  2.6622  0.7557
29904SOL     OW94522   0.738   0.129   8.439 -0.6794  0.0758  0.3978
29904SOL    HW194523   0.800   0.072   8.393  1.4748  2.6480 -0.1187
29904SOL    HW294524   0.764   0.124   8.530  0.2588  1.0386  0.2008
29905SOL     OW94525   6.149   8.474   5.313  0.0117 -0.1352 -0.3193
29905SOL    HW194526   6.146   8.560   5.270 -1.4396  1.0464  1.9373
29905SOL    HW294527   6.234   8.472   5.355  0.0524  0.2097 -0.3774
29906SOL     OW94528  11.441  11.764   8.896 -0.2420 -1.0361  0.1129
29906SOL    HW194529  11.404  11.763   8.985  0.9581 -0.4908  0.6378
29906SOL    HW294530  11.380  11.818   8.845 -0.6346 -0.8733  0.7396
29907SOL     OW94531   5.834  11.258  10.040 -0.4347  0.0412  0.0383
29907SOL    HW194532   5.820  11.320   9.968  0.7920 -0.5757 -0.7805
29907SOL    HW294533   5.914  11.212  10.016 -0.5240 -0.8559  1.3497
29908SOL     OW94534   9.476   1.305   1.924 -0.4984 -0.2013  0.3276
29908SOL    HW194535   9.563   1.343   1.932 -0.6870  0.2767  0.1214
29908SOL    HW294536   9.482   1.222   1.972  0.6960 -1.2666 -1.5413
29909SOL     OW94537   1.207   0.734   0.412  0.0565 -0.1336 -0.1310
29909SOL    HW194538   1.236   0.643   0.414 -2.4921 -1.0323  0.0015
29909SOL    HW294539   1.153   0.739   0.333  0.7928  1.5057 -0.5595
29910SOL     OW94540   3.068   5.766   4.397  0.1486  0.0318 -0.1741
29910SOL    HW194541   3.132   5.694   4.389 -0.8446 -0.9752  0.6504
29910SOL    HW294542   2.995   5.728   4.446 -1.6139  0.7971 -2.0418
29911SOL     OW94543  11.060   9.060   9.417 -0.2376 -0.2723 -0.2589
29911SOL    HW194544  11.064   9.058   9.321 -3.9320 -1.3483 -0.5387
29911SOL    HW294545  10.979   9.106   9.437  1.1097  1.1668  2.4853
29912SOL     OW94546  10.131  11.208   0.332 -0.3597 -0.1187 -0.1696
29912SOL    HW194547  10.192  11.133   0.333  0.3027  0.3976 -0.8172
29912SOL    HW294548  10.065  11.185   0.268 -1.1760 -0.9189  0.9212
29913SOL     OW94549   4.821  11.419   5.234  0.2679 -0.1608 -0.5132
29913SOL    HW194550   4.798  11.326   5.232  0.8617 -0.3259 -2.1760
29913SOL    HW294551   4.910  11.421   5.271 -0.3291 -0.0676  0.9769
29914SOL     OW94552   5.009   7.078   4.450  0.4318 -0.4308  0.3472
29914SOL    HW194553   4.999   7.025   4.529  0.9192 -0.0167  0.6916
29914SOL    HW294554   5.012   7.015   4.378 -1.3947 -0.7597  0.5104
29915SOL     OW94555  11.508  11.629   7.379  0.8809  0.1913  0.1309
29915SOL    HW194556  11.467  11.557   7.427 -0.5593  0.5130 -0.5334
29915SOL    HW294557  11.570  11.667   7.440  0.9537 -1.0006  0.8309
29916SOL     OW94558   6.545   1.000   3.370 -0.0143 -0.9385  0.0112
29916SOL    HW194559   6.518   1.090   3.387 -0.7089 -1.7898  4.3838
29916SOL    HW294560   6.635   1.008   3.339 -0.5891  1.2652 -1.3197
29917SOL     OW94561   8.771   5.233   3.366  0.2338 -0.4911 -1.0307
29917SOL    HW194562   8.785   5.289   3.289 -1.3489  0.7481 -0.4771
29917SOL    HW294563   8.854   5.237   3.414  0.5471  0.4114 -1.6152
29918SOL     OW94564   8.649   8.188   4.154 -0.2259  0.4709 -0.0167
29918SOL    HW194565   8.570   8.205   4.206 -0.8023 -0.6834 -0.4783
29918SOL    HW294566   8.639   8.098   4.124  1.5378  0.1111  0.3568
29919SOL     OW94567   1.831   9.256   1.121  0.6082 -0.3865  0.1615
29919SOL    HW194568   1.903   9.308   1.085  0.2164  0.1643  0.1607
29919SOL    HW294569   1.830   9.176   1.067  0.7371 -0.0638 -0.3238
29920SOL     OW94570   2.412   0.771   6.301 -0.1321  0.1877  0.3923
29920SOL    HW194571   2.407   0.689   6.350  0.6887 -0.8033 -1.1040
29920SOL    HW294572   2.505   0.782   6.280 -0.3406  1.0722 -0.1507
29921SOL     OW94573   7.429   6.810   2.063 -0.2922  0.1773  0.3533
29921SOL    HW194574   7.343   6.836   2.031 -0.2135 -0.1055 -0.1001
29921SOL    HW294575   7.440   6.720   2.031 -0.0820  0.0004  0.9179
29922SOL     OW94576   2.474  12.435  11.378 -0.3705 -0.1769 -0.1401
29922SOL    HW194577   2.428  12.362  11.419  0.7638 -0.7483  0.1411
29922SOL    HW294578   2.535  12.395  11.317  1.8564  0.3732  1.6031
29923SOL     OW94579   0.892  10.274   5.253 -0.0331 -0.4462  0.2437
29923SOL    HW194580   0.898  10.187   5.213 -1.5782 -1.0663  1.2997
29923SOL    HW294581   0.836  10.324   5.193 -2.5398 -1.4443  1.6135
29924SOL     OW94582   7.340   7.207   1.869 -0.2309  0.0977 -0.0215
29924SOL    HW194583   7.360   7.275   1.933 -1.2353 -0.1398  0.5494
29924SOL    HW294584   7.371   7.244   1.786  0.6878  0.5848  0.5132
29925SOL     OW94585   3.346   1.621  12.447  0.7036 -0.4045 -0.2063
29925SOL    HW194586   3.311   1.532  12.441  0.1390 -0.1280 -1.5253
29925SOL    HW294587   3.441   1.610  12.445  0.6313 -0.9609 -0.8893
29926SOL     OW94588   4.190   5.817   7.879  0.1765  0.6409 -0.0054
29926SOL    HW194589   4.283   5.837   7.877  0.1041  1.3761  1.8660
29926SOL    HW294590   4.179   5.756   7.952 -0.6305 -0.6445 -1.1466
29927SOL     OW94591   9.270   1.128   7.619 -0.3344 -0.4464  0.3821
29927SOL    HW194592   9.207   1.145   7.550 -0.2586 -2.1526 -0.1300
29927SOL    HW294593   9.228   1.063   7.676 -0.0005  0.2038  1.4136
29928SOL     OW94594   4.019   1.421   6.047 -0.1852 -0.1765 -0.1564
29928SOL    HW194595   4.042   1.378   6.129 -0.3543  0.4573  0.2251
29928SOL    HW294596   4.050   1.361   5.979 -0.0978 -0.7303  0.3674
29929SOL     OW94597   9.291   8.552   6.047  0.1520 -0.2475 -0.5140
29929SOL    HW194598   9.357   8.500   6.000  0.4933  0.1914 -0.5195
29929SOL    HW294599   9.273   8.626   5.990 -0.4565 -0.4355 -0.5770
29930SOL     OW94600   8.338   4.792   3.387 -0.4023 -0.1845 -0.1907
29930SOL    HW194601   8.399   4.865   3.394  0.4195 -0.6887 -1.6978
29930SOL    HW294602   8.388   4.723   3.342 -2.2134 -0.4576 -1.9023
29931SOL     OW94603  12.645   7.709  11.667 -0.5918  0.0144  0.4471
29931SOL    HW194604  12.691   7.793  11.663 -0.7918  0.0913 -1.3791
29931SOL    HW294605  12.699   7.654  11.723  0.6234  0.7482  0.0385
29932SOL     OW94606   7.312  11.239   3.661 -0.2056 -0.2221 -0.0613
29932SOL    HW194607   7.363  11.218   3.740 -2.7139  0.8307  1.9869
29932SOL    HW294608   7.348  11.322   3.631 -0.2859  0.2036  0.9783
29933SOL     OW94609   4.124   4.668   2.941 -0.0148  0.1356 -0.4130
29933SOL    HW194610   4.161   4.755   2.953  1.2034 -0.6734  3.4269
29933SOL    HW294611   4.200   4.612   2.923  0.2417 -0.8209  2.8436
29934SOL     OW94612   9.990  11.190   2.348 -0.1175  0.0422 -0.3571
29934SOL    HW194613   9.964  11.135   2.421  0.6262  0.6986  0.4179
29934SOL    HW294614   9.967  11.138   2.270 -3.3526  0.4074  0.2237
29935SOL     OW94615  10.358   9.425   8.343 -0.3398 -0.0728 -0.0788
29935SOL    HW194616  10.318   9.342   8.319  0.7897 -0.5839 -0.2519
29935SOL    HW294617  10.422   9.442   8.273  0.0165  0.5322  0.3876
29936SOL     OW94618  12.317   8.401   9.708  0.1057  0.3267  0.3423
29936SOL    HW194619  12.409   8.418   9.729 -0.1583  1.2580  0.7863
29936SOL    HW294620  12.269   8.424   9.788 -0.5123 -0.1537  0.1149
29937SOL     OW94621   7.521   0.720   1.964 -0.0192 -0.1808 -0.1028
29937SOL    HW194622   7.564   0.798   1.999  1.8294 -1.4509  0.6142
29937SOL    HW294623   7.428   0.736   1.979  0.2257  2.2160 -0.7184
29938SOL     OW94624  11.290   4.283   1.207 -0.6853  0.3801  0.1199
29938SOL    HW194625  11.241   4.275   1.289 -0.0441  0.4728  0.5256
29938SOL    HW294626  11.312   4.376   1.201  0.0345  0.2321  0.3084
29939SOL     OW94627   6.695  11.375   7.186 -0.1135 -0.5531 -0.4740
29939SOL    HW194628   6.671  11.355   7.276  0.2773 -0.3164 -0.3187
29939SOL    HW294629   6.785  11.344   7.177 -0.5807 -1.7743 -1.1677
29940SOL     OW94630  10.636   1.226   3.696  0.4853 -0.4861  0.4545
29940SOL    HW194631  10.633   1.130   3.688 -0.1292 -0.3281 -2.2274
29940SOL    HW294632  10.550   1.255   3.666  0.6808  0.9294  1.1914
29941SOL     OW94633   6.337   4.445   9.962  0.6544 -0.2489  0.4235
29941SOL    HW194634   6.313   4.392  10.038 -0.6448  0.0332  0.2341
29941SOL    HW294635   6.362   4.381   9.895 -1.6063 -0.7331 -0.0528
29942SOL     OW94636   6.073  10.287   9.084 -0.0606 -0.3257  0.2565
29942SOL    HW194637   6.032  10.327   9.161 -0.0486 -2.6424  1.5778
29942SOL    HW294638   6.162  10.322   9.083 -0.6678  1.2740  0.0681
29943SOL     OW94639   5.322   0.372   3.895 -0.3406  0.0103 -0.1685
29943SOL    HW194640   5.398   0.429   3.878 -0.6060  0.3479 -0.2244
29943SOL    HW294641   5.291   0.399   3.981  0.6303 -1.2840  0.6317
29944SOL     OW94642   9.890  11.129   9.302 -0.1747 -0.0104 -0.2384
29944SOL    HW194643   9.875  11.216   9.265 -1.8211 -0.9259 -1.9226
29944SOL    HW294644   9.819  11.117   9.364  0.6176  0.1953  0.7296
29945SOL     OW94645   5.421   4.682   9.808 -0.0429 -0.4227  0.3219
29945SOL    HW194646   5.405   4.776   9.803  0.1356 -0.4219 -0.4843
29945SOL    HW294647   5.480   4.664   9.734  0.6924 -1.0132  1.0252
29946SOL     OW94648   6.126   3.562   6.565 -0.6777 -0.4316 -0.1663
29946SOL    HW194649   6.212   3.576   6.525 -0.4103 -2.3216 -0.3577
29946SOL    HW294650   6.097   3.477   6.530 -1.6171 -0.9002  1.6209
29947SOL     OW94651   6.945   1.879   9.553  0.2577  0.3608  0.1086
29947SOL    HW194652   6.963   1.965   9.592  1.6192 -0.4311  1.2915
29947SOL    HW294653   7.011   1.821   9.590 -0.4862 -1.1676 -0.8613
29948SOL     OW94654  11.364   2.090   2.572  0.3392 -0.1465 -0.1863
29948SOL    HW194655  11.447   2.129   2.544  1.5188 -1.4789  1.2342
29948SOL    HW294656  11.299   2.159   2.557  1.7126  0.9915 -1.2218
29949SOL     OW94657   6.109   6.932   8.153  0.6812 -0.1203 -0.4813
29949SOL    HW194658   6.139   6.917   8.064  1.3605  0.3349 -0.3322
29949SOL    HW294659   6.041   6.999   8.145  0.5360 -0.2879 -0.6771
29950SOL     OW94660  10.038   8.056  12.612  0.3193  0.7004  0.6380
29950SOL    HW194661  10.129   8.039  12.636  0.7641 -0.7552 -1.7600
29950SOL    HW294662   9.994   7.972  12.623 -0.3225  0.9576  0.1109
29951SOL     OW94663   8.741   2.879   6.184 -0.3152 -0.2052  0.6226
29951SOL    HW194664   8.806   2.949   6.190  1.6892 -1.8428 -0.6076
29951SOL    HW294665   8.781   2.806   6.232 -1.0094 -1.4243 -0.5910
29952SOL     OW94666   5.588   9.980   2.202 -0.0046 -0.0233 -0.0690
29952SOL    HW194667   5.570  10.074   2.203  0.2282  0.0595  2.4229
29952SOL    HW294668   5.678   9.972   2.234 -0.4891 -1.1262  1.1358
29953SOL     OW94669   0.933   2.247  10.435  0.4171  0.1564 -0.4836
29953SOL    HW194670   0.996   2.266  10.504 -0.0103  0.6323 -0.2184
29953SOL    HW294671   0.962   2.300  10.361  1.0268 -0.5523 -0.7642
29954SOL     OW94672  11.265   5.721   7.923  0.0985  0.3355  0.1835
29954SOL    HW194673  11.344   5.773   7.942 -0.3305  1.0132  0.1483
29954SOL    HW294674  11.203   5.785   7.888  0.1812 -0.5138 -1.6220
29955SOL     OW94675  10.529   9.462   0.736 -0.0258 -0.4933  0.3483
29955SOL    HW194676  10.461   9.418   0.686  0.3183 -1.0560  0.3667
29955SOL    HW294677  10.577   9.391   0.779 -0.2084 -0.0443  1.3434
29956SOL     OW94678   3.588   4.813   7.221 -0.0229  0.3678  0.7157
29956SOL    HW194679   3.536   4.813   7.141  0.1950  1.3128  0.5616
29956SOL    HW294680   3.544   4.751   7.279 -0.5787  0.1995  0.1149
29957SOL     OW94681  10.296   1.428   8.871 -0.0239  0.0215  0.5473
29957SOL    HW194682  10.294   1.441   8.776  1.1356 -0.1676  0.4868
29957SOL    HW294683  10.373   1.374   8.887  0.3883  0.8980  1.7003
29958SOL     OW94684   4.673   6.833   3.431  0.4429 -0.8210 -0.7674
29958SOL    HW194685   4.695   6.791   3.349  0.3504 -1.4065 -0.4947
29958SOL    HW294686   4.614   6.905   3.406 -1.2799 -2.2613 -1.0292
29959SOL     OW94687  10.324   5.463   0.090 -0.4744  0.2754  0.1071
29959SOL    HW194688  10.356   5.545   0.054  1.9774 -0.4198  0.5405
29959SOL    HW294689  10.278   5.421   0.018  3.7518 -0.8171 -2.2543
29960SOL     OW94690   7.140   5.062   1.461  0.0860 -0.4231 -0.5210
29960SOL    HW194691   7.147   4.986   1.402 -0.6412 -0.7348 -0.2170
29960SOL    HW294692   7.219   5.113   1.444  0.1378 -0.7801 -1.3895
29961SOL     OW94693   0.006   4.552   5.822 -0.6896  0.1114  0.4289
29961SOL    HW194694   0.013   4.623   5.885 -0.2281 -0.0704  0.5864
29961SOL    HW294695  -0.074   4.506   5.845  1.0830 -1.9847  3.0208
29962SOL     OW94696   4.183   5.649   8.732  0.1548 -0.6839  0.1382
29962SOL    HW194697   4.233   5.719   8.772 -0.8124  0.2620 -0.2532
29962SOL    HW294698   4.155   5.594   8.805  0.2315 -0.2039  0.5299
29963SOL     OW94699   5.436   8.430   2.208  0.2447  0.0336 -0.1581
29963SOL    HW194700   5.433   8.525   2.200 -0.7176 -0.0251 -0.5477
29963SOL    HW294701   5.353   8.399   2.171  0.9553 -1.0217 -0.9652
29964SOL     OW94702  11.595  11.762   3.672  0.4807 -0.0920 -0.8129
29964SOL    HW194703  11.644  11.699   3.619 -0.0822 -1.0853 -0.1770
29964SOL    HW294704  11.514  11.777   3.622 -0.1578 -1.2121 -0.1391
29965SOL     OW94705   1.634   6.083   0.791 -0.5709  0.3932  0.3355
29965SOL    HW194706   1.709   6.027   0.812 -1.6404 -1.4467 -0.5626
29965SOL    HW294707   1.614   6.127   0.873  1.1361  0.5217  0.7291
29966SOL     OW94708   2.756  10.591   3.629 -0.3565  0.4073 -0.6245
29966SOL    HW194709   2.752  10.537   3.708 -0.6628  1.0881 -0.1613
29966SOL    HW294710   2.761  10.528   3.557 -0.4129 -0.2312 -0.0833
29967SOL     OW94711  11.917   6.252  11.566 -0.0678  0.0566  0.2117
29967SOL    HW194712  11.967   6.328  11.593  1.4981 -1.1402  0.8665
29967SOL    HW294713  11.970   6.177  11.594 -0.5725 -1.2930 -2.1126
29968SOL     OW94714   8.291   2.876   6.006  0.0326 -0.2109 -0.2677
29968SOL    HW194715   8.300   2.923   6.089 -0.6190  1.0402 -0.8725
29968SOL    HW294716   8.199   2.885   5.984  0.4757  0.8470 -1.8820
29969SOL     OW94717   8.406   6.406   5.084 -0.4424 -0.6724  0.1015
29969SOL    HW194718   8.370   6.445   5.164  2.0303  0.1887  0.8924
29969SOL    HW294719   8.386   6.470   5.016 -1.2837 -0.7121  0.2943
29970SOL     OW94720   1.675   5.523   9.016  0.1502 -0.6638 -0.3541
29970SOL    HW194721   1.610   5.557   9.078  0.5205 -1.6916  0.6367
29970SOL    HW294722   1.749   5.584   9.024 -0.5547  0.3518 -1.2849
29971SOL     OW94723   1.020   6.692   2.236  0.8533 -0.2475  0.4233
29971SOL    HW194724   1.042   6.633   2.309  0.8363 -1.8424 -0.8008
29971SOL    HW294725   1.007   6.634   2.161  1.1069  1.3502 -0.9308
29972SOL     OW94726   4.146  10.138   8.751  0.0753  0.3213  0.4387
29972SOL    HW194727   4.215  10.203   8.739  0.9525 -0.3476  1.6054
29972SOL    HW294728   4.180  10.059   8.709 -0.1945  0.1292  0.5764
29973SOL     OW94729  10.753   1.640   0.290  0.3726  0.0940 -0.0672
29973SOL    HW194730  10.700   1.714   0.259 -1.8896 -0.7896  1.3715
29973SOL    HW294731  10.757   1.580   0.216 -0.3706  0.3421 -0.3163
29974SOL     OW94732  10.044   6.404   4.999  0.3735 -0.3522 -0.5391
29974SOL    HW194733  10.111   6.451   5.048  0.0220 -1.0955  0.6929
29974SOL    HW294734   9.991   6.472   4.958  2.0901  0.2501 -1.8670
29975SOL     OW94735   1.866   0.850   1.171  0.1294 -0.0881  0.0625
29975SOL    HW194736   1.841   0.759   1.156  0.0499 -0.1353  0.4605
29975SOL    HW294737   1.927   0.846   1.245 -0.8924  0.2992  0.9568
29976SOL     OW94738   7.738   4.686   9.822  0.0472 -0.3982 -0.6626
29976SOL    HW194739   7.826   4.704   9.856 -0.0536  0.1484 -0.6931
29976SOL    HW294740   7.698   4.772   9.812 -0.6762 -0.6681 -0.1562
29977SOL     OW94741   8.178   4.731   8.896  0.0835 -0.6811 -0.6526
29977SOL    HW194742   8.238   4.801   8.871 -0.3168 -0.2127 -0.3207
29977SOL    HW294743   8.218   4.652   8.861  0.9080 -0.3773 -0.4128
29978SOL     OW94744   0.203   5.159   0.091  0.3205 -0.3042 -0.3523
29978SOL    HW194745   0.219   5.141  -0.001  0.1600 -0.3670 -0.3672
29978SOL    HW294746   0.112   5.187   0.095  0.1770 -0.7837 -0.1442
29979SOL     OW94747   2.565  12.422  11.772 -0.0828  0.3846 -0.0465
29979SOL    HW194748   2.473  12.438  11.796  0.0318  1.5672 -0.3298
29979SOL    HW294749   2.562  12.343  11.719 -0.8976  0.2022  0.2484
29980SOL     OW94750   9.373   6.000   2.902  0.1634  0.0057 -0.0179
29980SOL    HW194751   9.304   6.004   2.837  1.1098  1.1005 -1.0084
29980SOL    HW294752   9.336   6.043   2.979 -0.2342  0.6724 -0.5718
29981SOL     OW94753  12.213   3.552  12.625 -0.1737  0.4358 -0.0451
29981SOL    HW194754  12.288   3.527  12.679 -0.0317 -0.6935 -0.7357
29981SOL    HW294755  12.232   3.514  12.539 -0.2035  2.4944 -1.0326
29982SOL     OW94756   7.441   3.736   3.518  0.2813  0.4286 -0.2692
29982SOL    HW194757   7.490   3.800   3.467 -0.7866  0.8884 -0.7319
29982SOL    HW294758   7.392   3.686   3.454  2.2321 -1.9343 -0.0897
29983SOL     OW94759   2.994   1.072   7.404  0.5978 -0.2329 -0.6829
29983SOL    HW194760   2.948   1.132   7.346  0.7907 -0.2823 -0.8865
29983SOL    HW294761   2.951   0.988   7.392  1.4881 -0.5641 -1.7641
29984SOL     OW94762   7.686  10.140  11.886  0.2578 -0.1512  0.0410
29984SOL    HW194763   7.594  10.151  11.909  0.4410 -0.0668  0.7569
29984SOL    HW294764   7.713  10.061  11.934  0.8685  0.5168  0.8264
29985SOL     OW94765   6.824  11.651   8.225  0.0903  0.1901  0.6669
29985SOL    HW194766   6.903  11.701   8.245 -0.7549  1.6464  0.4584
29985SOL    HW294767   6.756  11.688   8.281 -0.0572 -2.4108  2.3879
29986SOL     OW94768   2.310   1.927  11.864  0.1616  0.0972 -0.0769
29986SOL    HW194769   2.356   1.843  11.874 -0.8998 -0.3609  1.3067
29986SOL    HW294770   2.284   1.929  11.772  1.4880 -0.3825 -0.4902
29987SOL     OW94771   0.407   5.223   3.939  0.6340  0.2177 -0.1046
29987SOL    HW194772   0.318   5.232   3.904  0.1543 -1.0109  0.7480
29987SOL    HW294773   0.422   5.305   3.986  0.0604  0.5540 -0.4896
29988SOL     OW94774  12.136   7.005   0.735 -0.4031  0.1583  0.3376
29988SOL    HW194775  12.186   6.923   0.737  1.1868  1.0515 -0.3776
29988SOL    HW294776  12.111   7.015   0.643 -0.7261  0.4047  0.4498
29989SOL     OW94777   2.557   5.433  11.998 -0.3911  0.5095  0.2594
29989SOL    HW194778   2.586   5.482  12.075 -0.8242  0.6321  0.3492
29989SOL    HW294779   2.556   5.342  12.027  0.7288  0.4011 -0.0036
29990SOL     OW94780  11.032  12.378   3.578 -0.6455  0.2804  0.2252
29990SOL    HW194781  10.987  12.398   3.496  0.3211 -0.1788 -0.4410
29990SOL    HW294782  10.975  12.413   3.646 -0.7697  1.9715 -0.7074
29991SOL     OW94783  11.459  11.513   6.629 -0.1243 -0.7951  0.4649
29991SOL    HW194784  11.410  11.514   6.712 -1.1340 -1.0741 -0.1094
29991SOL    HW294785  11.436  11.595   6.586  0.2874 -0.7130  0.4031
29992SOL     OW94786  12.034   8.208   1.076  0.2723  0.0187 -0.2486
29992SOL    HW194787  12.033   8.162   1.160  1.1011 -1.2665 -0.9013
29992SOL    HW294788  11.943   8.233   1.061  0.1999  0.7362  1.2610
29993SOL     OW94789   2.370   9.786   7.963  0.3683 -0.0454  0.0998
29993SOL    HW194790   2.348   9.844   8.036  0.6709 -1.9547  1.8020
29993SOL    HW294791   2.298   9.722   7.960  1.5899 -1.4960  0.4228
29994SOL     OW94792   7.491   5.106   7.189  0.3195  0.0376  0.0409
29994SOL    HW194793   7.582   5.095   7.217 -0.6607 -1.6622  2.9418
29994SOL    HW294794   7.482   5.044   7.116  1.3612 -0.1273  0.0266
29995SOL     OW94795   6.398   2.465   3.251  0.2134 -0.1369 -0.0852
29995SOL    HW194796   6.434   2.450   3.338 -0.8717  0.4234  0.4735
29995SOL    HW294797   6.473   2.491   3.198  1.0423 -1.3262  0.4461
29996SOL     OW94798   4.015   0.467  10.749 -0.6236 -0.4459 -0.1742
29996SOL    HW194799   4.101   0.502  10.773  1.3685 -3.4147 -2.3625
29996SOL    HW294800   3.969   0.541  10.710  0.9041  1.2152  1.0245
29997SOL     OW94801  12.466   0.995   4.633 -0.1010  0.1484  0.1601
29997SOL    HW194802  12.509   0.928   4.580  1.4037  1.2104 -0.0352
29997SOL    HW294803  12.413   0.946   4.696  0.2252 -1.1897 -0.5654
29998SOL     OW94804   5.325  11.218  11.395 -0.8018 -0.4394  0.4960
29998SOL    HW194805   5.256  11.248  11.335 -2.3070 -1.0527  1.8307
29998SOL    HW294806   5.289  11.234  11.482  2.1807  2.3991  1.3719
29999SOL     OW94807  10.026   9.325  11.667  0.3061 -0.1888 -0.3738
29999SOL    HW194808  10.018   9.350  11.759 -0.9068  1.2643 -0.8341
29999SOL    HW294809  10.101   9.375  11.636 -0.2539  0.5515 -0.5494
30000SOL     OW94810   9.113  10.648  11.553  0.1087  0.0626  0.7662
30000SOL    HW194811   9.148  10.606  11.474 -0.1055  1.5827 -0.1793
30000SOL    HW294812   9.150  10.736  11.552  0.0468  0.1255  2.3514
30001SOL     OW94813  10.176   1.448   2.590 -0.6451 -0.1942  0.1379
30001SOL    HW194814  10.195   1.373   2.533  0.4990  1.3110 -1.5877
30001SOL    HW294815  10.257   1.460   2.640 -1.3793 -1.0335  1.5698
30002SOL     OW94816  12.378   7.725   0.684 -0.1363  0.0275  0.0696
30002SOL    HW194817  12.439   7.699   0.616  3.5811  0.4051  2.9300
30002SOL    HW294818  12.325   7.794   0.644  0.5755 -1.0150 -2.8866
30003SOL     OW94819   9.399   5.912   9.216  1.4208 -0.0151  0.0034
30003SOL    HW194820   9.492   5.895   9.208  1.4331 -0.1547  0.3902
30003SOL    HW294821   9.361   5.827   9.242  1.0059 -0.2871 -1.4248
30004SOL     OW94822   3.496   0.005  12.375  0.2551 -0.0888  0.0788
30004SOL    HW194823   3.421  -0.012  12.432  0.9393 -3.0022  0.2746
30004SOL    HW294824   3.564  -0.055  12.406  1.0025 -1.1067 -3.1089
30005SOL     OW94825   2.051   3.965   4.550  0.0944 -0.3151 -0.0811
30005SOL    HW194826   2.046   4.059   4.534  0.3925 -0.2407  0.2443
30005SOL    HW294827   1.967   3.944   4.592 -0.8106 -0.5630 -1.8972
30006SOL     OW94828  10.468   0.259   5.601 -0.4165 -0.7039  0.3911
30006SOL    HW194829  10.376   0.284   5.611 -0.5487 -1.1649  0.3115
30006SOL    HW294830  10.477   0.179   5.653  0.0152 -0.4843  0.6564
30007SOL     OW94831  10.799   2.867   8.969  0.0584 -0.1502  0.0463
30007SOL    HW194832  10.718   2.917   8.970  0.5287  0.6748 -1.0932
30007SOL    HW294833  10.774   2.781   8.936 -0.4738 -0.1432  0.4218
30008SOL     OW94834   8.547   0.921   9.045 -0.5059 -0.6709  0.0010
30008SOL    HW194835   8.641   0.918   9.028 -0.5447  2.2402 -1.3922
30008SOL    HW294836   8.510   0.851   8.991  0.6506  0.1153 -1.9154
30009SOL     OW94837  12.445  10.150   2.137  0.1937 -0.3024 -0.2162
30009SOL    HW194838  12.429  10.236   2.099  0.8962 -0.7168 -1.5237
30009SOL    HW294839  12.366  10.131   2.187 -0.1651  0.8960 -0.2845
30010SOL     OW94840   8.986   6.529  10.308 -0.0059 -0.0078 -0.6722
30010SOL    HW194841   8.947   6.525  10.221  0.4026  1.0167 -0.9210
30010SOL    HW294842   9.050   6.458  10.310 -2.0723 -1.9727 -0.1243
30011SOL     OW94843   1.672   1.179   7.883 -0.1305 -1.1265  0.0823
30011SOL    HW194844   1.687   1.196   7.976  0.3949 -1.7851  0.1256
30011SOL    HW294845   1.679   1.084   7.874 -0.2814 -1.0781 -0.6121
30012SOL     OW94846   3.607   4.244   3.476  0.3642  0.2300  0.2153
30012SOL    HW194847   3.613   4.328   3.431 -0.9623 -0.5537 -1.5627
30012SOL    HW294848   3.516   4.217   3.463  0.2835 -0.6933  2.2786
30013SOL     OW94849   5.499   4.611   8.866 -0.0288 -0.2631 -0.3793
30013SOL    HW194850   5.536   4.584   8.782  1.6930 -1.1195  0.5947
30013SOL    HW294851   5.536   4.550   8.929 -0.4519  1.0071  1.1668
30014SOL     OW94852   9.176   5.577  11.427  0.0516  0.1187 -0.8055
30014SOL    HW194853   9.086   5.604  11.405  0.2845  0.9455 -0.7769
30014SOL    HW294854   9.231   5.622  11.363  0.4353 -0.5587 -0.9609
30015SOL     OW94855  12.185  11.587  12.474 -0.3598  0.2320  0.3527
30015SOL    HW194856  12.228  11.514  12.518  1.7233  1.8324  1.1389
30015SOL    HW294857  12.251  11.657  12.474 -1.4390  1.4069 -2.3730
30016SOL     OW94858   4.827   6.142   4.640  0.5848 -0.0135  0.1202
30016SOL    HW194859   4.819   6.163   4.733 -0.0842  0.9623 -0.1522
30016SOL    HW294860   4.739   6.116   4.613  1.0854 -1.8637  0.1075
30017SOL     OW94861  12.418  12.175   9.184 -0.0100 -0.0819 -0.1655
30017SOL    HW194862  12.344  12.218   9.226 -0.5297 -0.4651 -0.6495
30017SOL    HW294863  12.476  12.246   9.157  2.4860  0.1476  4.7413
30018SOL     OW94864   3.415   0.425   1.749 -0.5587  0.1038 -0.9643
30018SOL    HW194865   3.413   0.426   1.653 -1.5435 -0.2413 -0.9638
30018SOL    HW294866   3.335   0.471   1.774  0.2099  1.1197 -0.2903
30019SOL     OW94867   8.008   4.048   6.843 -0.0385 -0.0186 -0.0596
30019SOL    HW194868   8.001   3.953   6.831  1.5051 -0.2071  0.3223
30019SOL    HW294869   8.056   4.058   6.925  2.0672  1.0547 -1.3535
30020SOL     OW94870  10.618   7.846   1.773  0.1348 -0.4289  0.4195
30020SOL    HW194871  10.642   7.817   1.861 -0.5932  0.1664  0.8269
30020SOL    HW294872  10.525   7.868   1.779  0.2029  0.1377 -0.3577
30021SOL     OW94873   9.108  12.526  10.807 -0.0905  0.2372  0.5005
30021SOL    HW194874   9.060  12.579  10.743 -0.4460  0.6105  1.0730
30021SOL    HW294875   9.119  12.584  10.883  0.3751 -0.1847  0.7593
30022SOL     OW94876   7.689   2.712   0.551  0.0232  0.1098  0.0336
30022SOL    HW194877   7.719   2.795   0.588 -0.3564  0.2389  0.0539
30022SOL    HW294878   7.623   2.680   0.612 -0.5841  0.3082 -0.5031
30023SOL     OW94879   9.415   9.011   7.972 -0.1853 -0.4154 -0.3664
30023SOL    HW194880   9.457   9.071   8.033  0.5614 -1.3167  0.0395
30023SOL    HW294881   9.468   9.017   7.892 -1.4255  1.0977 -1.1167
30024SOL     OW94882   9.438  11.932   7.162 -0.6822 -0.8179 -0.1081
30024SOL    HW194883   9.422  11.979   7.244  0.7454 -1.1593  0.4039
30024SOL    HW294884   9.365  11.871   7.155 -2.6013  1.4330 -0.8118
30025SOL     OW94885  10.370   3.775   4.312 -0.1122 -0.2442  0.2416
30025SOL    HW194886  10.285   3.768   4.355 -0.3078  0.5211  0.0030
30025SOL    HW294887  10.349   3.801   4.222  0.4136  1.2263  0.5095
30026SOL     OW94888   8.589   3.353   5.898 -1.0035  0.4976 -0.6081
30026SOL    HW194889   8.661   3.291   5.902 -0.4449  1.1766  0.0805
30026SOL    HW294890   8.526   3.313   5.838 -2.2470 -2.3660  2.3131
30027SOL     OW94891   1.393   3.679   6.511  0.1555  0.4454 -0.1101
30027SOL    HW194892   1.477   3.637   6.528 -1.0487 -1.3995  1.6045
30027SOL    HW294893   1.354   3.692   6.597 -2.6980 -1.7747 -0.9011
30028SOL     OW94894  10.511   2.671   6.750 -0.5975 -0.0404  0.1033
30028SOL    HW194895  10.606   2.661   6.746 -0.6931 -0.7949 -0.7446
30028SOL    HW294896  10.492   2.752   6.704 -0.4561 -0.6260 -1.0201
30029SOL     OW94897   9.923   0.975  11.661 -0.0977  0.1176 -0.0137
30029SOL    HW194898   9.833   0.967  11.630  0.3168  0.7856 -1.4504
30029SOL    HW294899   9.959   1.049  11.612  1.5046 -0.7077 -0.1391
30030SOL     OW94900   7.303   2.611   8.710 -0.3562 -0.1825  0.4420
30030SOL    HW194901   7.268   2.522   8.722 -0.6600 -0.0277  0.7373
30030SOL    HW294902   7.393   2.606   8.743 -0.1213 -0.5626 -0.2376
30031SOL     OW94903   9.328   5.941   1.591 -0.3399 -0.2585 -0.1379
30031SOL    HW194904   9.386   5.867   1.609 -1.3745 -1.4871 -1.6260
30031SOL    HW294905   9.242   5.911   1.620 -0.9425 -0.0276 -1.6319
30032SOL     OW94906   7.509   6.247  11.674  0.1317 -0.3770  0.3413
30032SOL    HW194907   7.446   6.179  11.654  0.2813 -0.2272 -0.6619
30032SOL    HW294908   7.486   6.276  11.763  1.6430 -3.4970  1.9419
30033SOL     OW94909  11.598   8.865   9.669  0.4754  0.5892 -1.1192
30033SOL    HW194910  11.578   8.835   9.581 -0.0234 -1.2779 -0.4107
30033SOL    HW294911  11.525   8.833   9.722  0.8596  1.5271  0.0201
30034SOL     OW94912   8.507   6.067   1.934  0.5893 -0.1314 -0.1477
30034SOL    HW194913   8.596   6.037   1.952  0.5610  0.0444  0.3073
30034SOL    HW294914   8.452   5.990   1.948  0.5874 -0.0395  0.3695
30035SOL     OW94915  10.512  10.590   8.744 -0.2058  0.5027  0.1624
30035SOL    HW194916  10.520  10.501   8.708  0.9345 -0.3231  2.3174
30035SOL    HW294917  10.426  10.590   8.787 -0.3946  0.6038 -0.2076
30036SOL     OW94918   9.281   5.870   4.347  0.0462  0.5351 -0.2467
30036SOL    HW194919   9.198   5.900   4.311 -1.0951 -2.6547 -0.5606
30036SOL    HW294920   9.309   5.799   4.290  0.6749 -1.4349  2.3162
30037SOL     OW94921   6.601   1.660  12.268 -0.2658  0.1255  0.2537
30037SOL    HW194922   6.613   1.701  12.182 -1.5147  0.0793  0.0371
30037SOL    HW294923   6.661   1.707  12.326  1.9718 -1.0513 -0.9760
30038SOL     OW94924   6.657   6.406   0.342  0.4786 -0.7980 -0.3691
30038SOL    HW194925   6.648   6.425   0.249 -0.6826 -0.1149 -0.1451
30038SOL    HW294926   6.595   6.335   0.359  0.0572 -0.3522  0.0237
30039SOL     OW94927  12.170   7.726   6.503  0.1532  0.1621  0.2264
30039SOL    HW194928  12.198   7.753   6.591  0.1992  2.8377 -0.5330
30039SOL    HW294929  12.125   7.802   6.467 -0.6511 -1.1683 -1.7790
30040SOL     OW94930   9.840  10.066   5.873 -0.2947 -0.4344 -0.4008
30040SOL    HW194931   9.868  10.011   5.799 -0.2718  0.1370 -0.8264
30040SOL    HW294932   9.882  10.151   5.857 -0.4674 -0.2388  0.1562
30041SOL     OW94933   0.813   5.124  12.014 -0.0725 -0.7492 -0.1435
30041SOL    HW194934   0.865   5.151  12.090 -0.8236 -1.3350  0.5904
30041SOL    HW294935   0.809   5.203  11.959  0.0755 -0.1744  0.6451
30042SOL     OW94936   5.887   0.457   8.708 -0.2956 -0.0855 -0.1302
30042SOL    HW194937   5.896   0.415   8.623 -2.8737 -0.7582 -0.1394
30042SOL    HW294938   5.858   0.546   8.688  1.1749  0.4639  0.0298
30043SOL     OW94939   6.008   2.617  10.230 -0.4827  0.4293 -0.0830
30043SOL    HW194940   5.934   2.660  10.272 -0.3950 -1.3629  2.1128
30043SOL    HW294941   6.084   2.669  10.257 -0.5891  0.1460  0.8032
30044SOL     OW94942   9.642   4.040   1.728  0.6946 -0.5453 -0.5160
30044SOL    HW194943   9.600   4.018   1.811  1.9782  0.1845  0.3633
30044SOL    HW294944   9.691   4.120   1.746  0.7271 -0.1808 -2.0793
30045SOL     OW94945   9.307   9.050  10.181  0.7627 -0.5643 -0.0256
30045SOL    HW194946   9.226   9.015  10.143  1.5324 -0.8829 -1.4430
30045SOL    HW294947   9.277   9.105  10.253 -0.8763  1.0201 -1.7757
30046SOL     OW94948   5.898   6.015  11.898  0.1310 -0.5605  0.0529
30046SOL    HW194949   5.921   6.102  11.866  0.4194 -1.0624 -1.1780
30046SOL    HW294950   5.965   5.994  11.962  1.4482 -0.7939 -1.3351
30047SOL     OW94951   6.664   6.178   4.929 -0.2472  0.1323 -0.1264
30047SOL    HW194952   6.714   6.145   5.004 -1.5172  0.1584  0.7659
30047SOL    HW294953   6.705   6.262   4.909  1.1374 -0.6034 -0.5350
30048SOL     OW94954   4.766  10.091   8.256  0.0991  0.4613 -0.0078
30048SOL    HW194955   4.675  10.115   8.277 -1.2587 -2.6645 -1.6589
30048SOL    HW294956   4.783  10.014   8.311  1.2090  0.0956 -0.8404
30049SOL     OW94957   6.111   5.463   0.426 -0.1776  0.3484 -0.5510
30049SOL    HW194958   6.192   5.486   0.381 -0.7119  0.7915 -1.3191
30049SOL    HW294959   6.135   5.393   0.487  0.8778  0.8571 -0.3781
30050SOL     OW94960   9.265   6.624  12.291 -0.2510  0.0541 -0.0017
30050SOL    HW194961   9.212   6.552  12.324 -0.8245  0.4572 -0.0400
30050SOL    HW294962   9.206   6.698  12.287  0.0493  0.2549 -1.0323
30051SOL     OW94963  10.879   2.340   4.252 -0.0273 -0.1509 -0.7986
30051SOL    HW194964  10.863   2.311   4.342  3.0800  1.9015  0.5792
30051SOL    HW294965  10.793   2.367   4.220 -1.2477 -1.0747  1.4828
30052SOL     OW94966   4.295   4.183   7.842 -0.5806  0.1169  0.1741
30052SOL    HW194967   4.336   4.101   7.868 -0.6413 -0.0943 -0.3802
30052SOL    HW294968   4.250   4.214   7.920  0.2469  0.1122  0.6527
30053SOL     OW94969   7.309   6.898   6.782  0.2417  0.5143  0.4308
30053SOL    HW194970   7.307   6.921   6.689  0.9604 -1.3760 -0.1029
30053SOL    HW294971   7.225   6.930   6.816 -0.1838  0.9335 -0.9401
30054SOL     OW94972   9.437   9.706   5.302 -0.6179  0.0702  0.1849
30054SOL    HW194973   9.422   9.719   5.396  1.1529  2.2942  0.2522
30054SOL    HW294974   9.381   9.771   5.259  0.0809  0.4689 -0.1489
30055SOL     OW94975  12.442   2.209  10.763  0.4414  0.4836 -0.3801
30055SOL    HW194976  12.355   2.183  10.795  1.0113 -2.2038 -0.7686
30055SOL    HW294977  12.424   2.281  10.702 -1.5213  0.0773 -0.3660
30056SOL     OW94978  11.605   8.894   5.486 -0.2879 -0.6295  0.2370
30056SOL    HW194979  11.611   8.818   5.428  0.0045 -0.9611  0.6971
30056SOL    HW294980  11.536   8.948   5.448 -1.9428 -2.0987  1.0165
30057SOL     OW94981   1.675   6.325   4.473 -0.2227 -0.3717 -0.3206
30057SOL    HW194982   1.584   6.316   4.445  0.0718  0.1995 -1.5198
30057SOL    HW294983   1.673   6.307   4.567 -1.5747 -0.3287 -0.3218
30058SOL     OW94984   1.809   1.209   3.068 -0.3075 -0.1475  0.7326
30058SOL    HW194985   1.810   1.148   3.142 -0.2901  1.1066  1.7962
30058SOL    HW294986   1.729   1.187   3.020 -0.5643 -0.6695  1.3830
30059SOL     OW94987   9.389   2.230  11.198 -0.1878 -0.2971 -0.4475
30059SOL    HW194988   9.371   2.209  11.290 -1.8988 -0.8476 -0.8722
30059SOL    HW294989   9.457   2.297  11.202  0.3468 -0.8854  1.1853
30060SOL     OW94990   9.466   3.275  11.376  0.0816 -0.2158  0.1333
30060SOL    HW194991   9.560   3.261  11.385  0.1748  0.2869 -0.0183
30060SOL    HW294992   9.457   3.341  11.308 -0.1167  3.1505  3.1328
30061SOL     OW94993  11.752   8.378   1.595  0.0632 -0.6899 -0.2173
30061SOL    HW194994  11.763   8.312   1.527  0.3231 -0.4334 -0.4268
30061SOL    HW294995  11.732   8.328   1.674 -0.4688 -0.9786 -0.5260
30062SOL     OW94996   9.813  10.221   0.169  0.2448  0.1250 -0.0464
30062SOL    HW194997   9.883  10.159   0.189  1.1799  0.8910 -0.8270
30062SOL    HW294998   9.850  10.307   0.190 -1.1095  0.4474  1.2659
30063SOL     OW94999   2.730   6.161   6.758 -0.0073 -0.3645 -0.2300
30063SOL    HW195000   2.721   6.248   6.797  3.4178 -0.7014  1.6437
30063SOL    HW295001   2.779   6.175   6.677  1.1385 -0.5860  0.4134
30064SOL     OW95002   6.697  11.899   1.119  0.1154 -0.0735  0.0654
30064SOL    HW195003   6.670  11.974   1.067 -0.9765 -0.9830 -0.7256
30064SOL    HW295004   6.622  11.882   1.176  0.2182 -0.7719 -0.0028
30065SOL     OW95005   6.870   7.040   4.165 -0.7061 -0.4376 -0.2747
30065SOL    HW195006   6.824   6.957   4.162 -0.4583 -0.6055  0.4319
30065SOL    HW295007   6.824   7.091   4.231  0.1923 -0.6640  0.5573
30066SOL     OW95008   3.857   7.252   8.268  0.3486 -0.1061 -0.1457
30066SOL    HW195009   3.883   7.164   8.242  1.3031  0.6452 -1.8991
30066SOL    HW295010   3.900   7.266   8.352 -0.1231 -1.4330  0.3410
30067SOL     OW95011   0.708  10.267  12.084  0.4794  0.2618 -0.5300
30067SOL    HW195012   0.733  10.331  12.151  1.8188  0.6743 -1.3947
30067SOL    HW295013   0.633  10.222  12.122  0.8257  0.8954  1.0019
30068SOL     OW95014   2.402   3.497  10.605 -0.3085  0.1471  0.3036
30068SOL    HW195015   2.401   3.584  10.565 -1.9214 -0.1792 -0.4417
30068SOL    HW295016   2.488   3.461  10.581  0.6584  1.7533  1.1816
30069SOL     OW95017  12.407   2.796   1.200  0.0722 -0.2001 -0.5631
30069SOL    HW195018  12.475   2.832   1.257  0.5172 -0.8070 -0.6984
30069SOL    HW295019  12.374   2.720   1.247  0.6413 -0.8706 -1.2267
30070SOL     OW95020   2.640   7.077   8.410  0.1780  0.1719  0.5551
30070SOL    HW195021   2.558   7.079   8.360  0.3224  3.0735  0.2552
30070SOL    HW295022   2.619   7.125   8.491  2.1965  3.7630 -0.8038
30071SOL     OW95023   4.700   7.526  10.221  0.0461  0.5996 -0.4063
30071SOL    HW195024   4.661   7.612  10.238 -0.0939  0.5898 -0.6755
30071SOL    HW295025   4.792   7.536  10.246  0.1574  0.9840 -0.9368
30072SOL     OW95026  11.862   8.712   6.558 -0.1793  0.2091  0.5141
30072SOL    HW195027  11.837   8.799   6.587 -0.7396  0.0875  0.3999
30072SOL    HW295028  11.783   8.659   6.568 -0.5706  0.2848 -1.7093
30073SOL     OW95029   6.877  12.151   2.547  0.4105 -0.4101  0.3734
30073SOL    HW195030   6.930  12.113   2.477  0.4662  1.1274 -0.4660
30073SOL    HW295031   6.940  12.197   2.602  0.3647 -1.6085  1.4651
30074SOL     OW95032   7.578   1.023   0.484  0.2351 -0.0988 -0.1775
30074SOL    HW195033   7.629   0.963   0.429  1.2599  0.1647  0.4440
30074SOL    HW295034   7.487   1.009   0.458  0.7009  0.1551 -2.0346
30075SOL     OW95035   5.813  10.783  10.991  0.5067  0.0786  0.2575
30075SOL    HW195036   5.717  10.785  11.001  0.1761 -1.9745 -1.7077
30075SOL    HW295037   5.839  10.875  10.998 -1.5986  0.6915  0.9013
30076SOL     OW95038  10.379   4.366   0.545 -0.1251 -0.1947  0.1045
30076SOL    HW195039  10.308   4.406   0.595 -0.3762  0.0857 -0.4747
30076SOL    HW295040  10.341   4.286   0.509  0.2736 -0.7962  0.9718
30077SOL     OW95041   7.751   4.763  10.226 -0.3538  0.8873 -0.4871
30077SOL    HW195042   7.716   4.675  10.210 -1.0572  0.9285  0.6809
30077SOL    HW295043   7.681   4.808  10.273 -0.0171  2.0991 -1.0878
30078SOL     OW95044   0.618   6.179  10.398 -0.3389  0.0936 -0.6725
30078SOL    HW195045   0.678   6.179  10.473 -0.2831 -0.4150 -0.7165
30078SOL    HW295046   0.537   6.216  10.432 -0.4675 -0.5807 -0.2352
30079SOL     OW95047   1.626   3.839   1.418  0.3244 -0.4360  0.6325
30079SOL    HW195048   1.545   3.787   1.423 -0.2628  0.5383  1.9603
30079SOL    HW295049   1.695   3.777   1.443  0.2262 -1.6549 -1.8538
30080SOL     OW95050   9.423  10.463   3.171 -0.3367  0.4338 -0.4499
30080SOL    HW195051   9.450  10.458   3.263  0.7176  2.0484 -0.6370
30080SOL    HW295052   9.449  10.379   3.133  1.7664  0.7901  0.0998
30081SOL     OW95053   2.482   3.931   3.603  0.3047  0.0580  0.4545
30081SOL    HW195054   2.440   3.869   3.663  0.3709 -0.0250  0.4142
30081SOL    HW295055   2.552   3.881   3.562  0.3834  0.1714  0.4513
30082SOL     OW95056   0.197   8.163   9.957 -0.0412 -0.0819 -0.1395
30082SOL    HW195057   0.116   8.130   9.918 -0.1914  1.2439 -1.0186
30082SOL    HW295058   0.186   8.258   9.958  0.6830  0.0281  1.6041
30083SOL     OW95059   3.983  12.448   2.182  0.6276  0.2179  0.1852
30083SOL    HW195060   3.893  12.432   2.210 -0.0866  0.7681 -1.6655
30083SOL    HW295061   4.010  12.367   2.139  0.5819  0.4530 -0.2968
30084SOL     OW95062  12.053  11.938   8.477  0.4127  0.0840  0.1667
30084SOL    HW195063  11.998  11.959   8.553  2.1400  1.9733  0.9725
30084SOL    HW295064  12.105  11.864   8.504  0.0213 -0.1496  0.2918
30085SOL     OW95065  10.428   0.701   0.503  0.0366 -0.0413 -0.4924
30085SOL    HW195066  10.486   0.689   0.428 -0.7921 -0.3983 -1.0814
30085SOL    HW295067  10.488   0.711   0.577  0.8569 -0.2590 -1.1053
30086SOL     OW95068   7.426   2.055   5.823 -0.5086  0.4440  0.0968
30086SOL    HW195069   7.403   2.140   5.785  0.6866  0.2173 -1.2238
30086SOL    HW295070   7.342   2.010   5.832 -0.9154  0.6477 -2.0778
30087SOL     OW95071   1.303  10.797   8.733 -0.0071  0.2157  0.0142
30087SOL    HW195072   1.216  10.791   8.695  0.3022 -1.2982 -0.5139
30087SOL    HW295073   1.343  10.872   8.689 -0.3757 -0.2612 -1.1667
30088SOL     OW95074   7.895  10.325   4.571  0.3813  0.1815 -0.3199
30088SOL    HW195075   7.901  10.246   4.516  0.5071  1.1368 -1.7317
30088SOL    HW295076   7.864  10.293   4.656 -0.7662 -1.2212 -1.2227
30089SOL     OW95077   5.592   9.383  11.700  0.1011 -1.0415  0.2389
30089SOL    HW195078   5.549   9.454  11.653  1.0744  0.5911  1.7241
30089SOL    HW295079   5.633   9.330  11.631 -1.0505 -0.4669 -0.9227
30090SOL     OW95080   9.532   3.332   5.281  0.0121  0.3536 -0.0633
30090SOL    HW195081   9.619   3.302   5.253  0.2739  0.2539  0.7984
30090SOL    HW295082   9.472   3.263   5.253  0.2153  0.3904 -0.6049
30091SOL     OW95083  11.156   1.491   3.529  0.1254  0.0473  0.6809
30091SOL    HW195084  11.108   1.489   3.611 -1.5940  1.6847 -0.2219
30091SOL    HW295085  11.121   1.418   3.478  0.3785 -0.2738  0.9678
30092SOL     OW95086   2.128   1.509   0.581  0.1320  0.2406 -0.3734
30092SOL    HW195087   2.207   1.559   0.604 -0.0868  0.6281 -0.4407
30092SOL    HW295088   2.130   1.433   0.639  0.1874  0.6138  0.1318
30093SOL     OW95089   2.892  11.046   1.880 -0.3542  0.5263  0.3880
30093SOL    HW195090   2.882  10.980   1.812 -1.6337 -0.1944  1.2271
30093SOL    HW295091   2.840  11.121   1.849  0.0579  0.6619  0.0204
30094SOL     OW95092   5.328  11.997   9.277 -0.4317  0.1930  0.1092
30094SOL    HW195093   5.270  12.072   9.275  0.2365  0.7024 -1.6460
30094SOL    HW295094   5.399  12.023   9.336 -0.9735  0.3121  0.7225
30095SOL     OW95095  12.608   5.530   9.786 -0.1001  0.7203 -0.5957
30095SOL    HW195096  12.614   5.564   9.875 -0.2768  0.4056 -0.4662
30095SOL    HW295097  12.521   5.557   9.756 -1.0500 -1.2761  0.1901
30096SOL     OW95098   7.494   9.367   6.432  0.3966  0.3924 -0.1872
30096SOL    HW195099   7.433   9.398   6.499  0.4449  0.9970 -0.4189
30096SOL    HW295100   7.578   9.406   6.456  0.4002  0.6621 -0.6292
30097SOL     OW95101   4.930   0.189  10.555  0.3243  0.1979 -0.0315
30097SOL    HW195102   4.914   0.143  10.473  1.6473  0.8004 -0.6498
30097SOL    HW295103   4.894   0.131  10.623 -1.2462 -0.0796 -1.0453
30098SOL     OW95104   1.497   1.371   3.967  0.0448  0.0779  0.4019
30098SOL    HW195105   1.471   1.448   3.917  0.2621 -0.3648 -0.4000
30098SOL    HW295106   1.562   1.326   3.912  0.0820 -0.5655  0.9493
30099SOL     OW95107   1.951   9.226  10.531  0.3858  0.4984  0.2319
30099SOL    HW195108   1.922   9.218  10.621  1.6926  1.6532  0.7914
30099SOL    HW295109   1.871   9.220  10.479 -0.2249 -2.1690  1.2918
30100SOL     OW95110   5.339   1.331   1.794 -0.7992  0.2543  0.3216
30100SOL    HW195111   5.291   1.249   1.784 -1.8968  0.7246  1.3873
30100SOL    HW295112   5.331   1.352   1.888 -0.4488  1.5080  0.0952
30101SOL     OW95113   3.290  12.508  10.571 -0.2213 -0.5785 -0.4535
30101SOL    HW195114   3.264  12.564  10.644  0.2497  1.0530 -1.4798
30101SOL    HW295115   3.235  12.536  10.498 -0.4030 -1.9020 -0.8540
30102SOL     OW95116   6.840  12.331   0.197  0.2345  0.3913 -0.8473
30102SOL    HW195117   6.844  12.417   0.156 -0.7514  0.9232  0.1091
30102SOL    HW295118   6.785  12.344   0.275  0.5189 -0.9791 -0.3842
30103SOL     OW95119   3.858   6.826   7.873 -0.6190 -0.4312  0.0032
30103SOL    HW195120   3.803   6.870   7.938 -0.5341  0.3013 -0.4197
30103SOL    HW295121   3.862   6.886   7.799 -1.6160 -1.7195 -1.1470
30104SOL     OW95122  11.279  11.137   2.436  0.2489 -0.3816  0.0223
30104SOL    HW195123  11.203  11.084   2.458 -0.3516  0.1318 -0.7932
30104SOL    HW295124  11.273  11.152   2.342  1.3138 -0.2658 -0.0436
30105SOL     OW95125   8.284   1.040   9.145 -0.4089 -0.4333 -0.1521
30105SOL    HW195126   8.364   1.005   9.106  1.1113  0.7715  1.6835
30105SOL    HW295127   8.297   1.135   9.145 -1.0057 -0.3094  1.7731
30106SOL     OW95128   2.485   0.301   5.598  0.4782 -0.1843  0.0210
30106SOL    HW195129   2.418   0.270   5.658  0.4085 -1.2967 -0.6281
30106SOL    HW295130   2.448   0.289   5.511  0.6713  1.2152 -0.2783
30107SOL     OW95131   1.451   9.907   6.990 -0.1652 -0.2696  0.2594
30107SOL    HW195132   1.427   9.894   7.082 -1.3705 -0.0108  0.0042
30107SOL    HW295133   1.380   9.961   6.955  0.4349 -0.1264 -0.7541
30108SOL     OW95134   4.887   4.275  11.861 -0.2358  0.2720  0.0386
30108SOL    HW195135   4.852   4.274  11.950 -1.4884 -0.0317 -0.4331
30108SOL    HW295136   4.921   4.187  11.849  0.7356  0.5726  0.5075
30109SOL     OW95137  11.328   9.022   2.384  0.5585 -0.1463 -0.3219
30109SOL    HW195138  11.245   9.021   2.337  0.8469 -2.1394 -0.8540
30109SOL    HW295139  11.384   9.080   2.331 -0.4364  1.1516  0.0040
30110SOL     OW95140   5.241  12.644  11.567  0.1535 -0.3220  0.1973
30110SOL    HW195141   5.276  12.616  11.483  0.6749 -0.0639  0.3295
30110SOL    HW295142   5.305  12.614  11.631 -0.3446 -0.7023  0.5292
30111SOL     OW95143   3.446   4.547   7.460 -0.1538 -0.3311 -0.1640
30111SOL    HW195144   3.416   4.636   7.478  0.0440 -0.3095  0.0617
30111SOL    HW295145   3.404   4.524   7.377 -1.7946 -0.7486  0.7240
30112SOL     OW95146   6.231   0.272   5.960  0.1324  0.4353  0.5269
30112SOL    HW195147   6.177   0.282   5.882 -0.6274  2.1475  1.2137
30112SOL    HW295148   6.292   0.345   5.957  1.5834 -0.7360  0.4435
30113SOL     OW95149   2.252   4.905  11.919 -0.2928  1.3320 -0.2912
30113SOL    HW195150   2.333   4.931  11.874 -0.0712 -0.1544 -0.8035
30113SOL    HW295151   2.183   4.956  11.876  0.3032  2.2780 -0.1530
30114SOL     OW95152   2.137   2.925  12.216  0.7354  0.3097 -1.0896
30114SOL    HW195153   2.121   2.835  12.244  1.0061  1.2931  2.6931
30114SOL    HW295154   2.218   2.920  12.164  1.3163 -1.5063 -0.0745
30115SOL     OW95155   6.074   5.149  10.106  0.6235 -0.7666 -0.6094
30115SOL    HW195156   6.141   5.213  10.131  0.3787 -0.5929 -0.3900
30115SOL    HW295157   6.077   5.147  10.011 -0.6938  1.0181 -0.7294
30116SOL     OW95158  12.275   7.628   6.777 -0.3978 -0.1627  0.3374
30116SOL    HW195159  12.186   7.663   6.783 -0.7941 -1.0694 -0.1530
30116SOL    HW295160  12.266   7.535   6.798  0.2058 -0.5829 -1.1657
30117SOL     OW95161   2.012   5.531   7.982 -0.3069  0.0013 -0.1174
30117SOL    HW195162   1.921   5.524   8.013 -0.2302  1.3234  0.4800
30117SOL    HW295163   2.040   5.619   8.009  2.0685 -1.3146  2.2592
30118SOL     OW95164  10.631   0.137   1.244  0.5804 -0.5832 -0.4069
30118SOL    HW195165  10.669   0.053   1.219  0.4489 -0.6587 -0.3552
30118SOL    HW295166  10.654   0.196   1.172 -0.0763 -0.8808 -0.8723
30119SOL     OW95167   5.250  10.786   3.846  0.3632 -0.2272 -0.2780
30119SOL    HW195168   5.183  10.855   3.842  0.0729 -0.3342  1.6224
30119SOL    HW295169   5.300  10.796   3.765  1.3127  3.2104  0.5712
30120SOL     OW95170  12.482   0.193  11.951  0.0615  0.5297  0.5663
30120SOL    HW195171  12.416   0.133  11.986  0.2298  0.2569  0.4178
30120SOL    HW295172  12.551   0.194  12.019 -1.0939  2.5634  1.8047
30121SOL     OW95173   1.778   0.869   2.392 -0.4104  0.0395  0.6703
30121SOL    HW195174   1.822   0.805   2.337 -1.6423 -1.0027  0.8649
30121SOL    HW295175   1.693   0.883   2.349 -0.0802  1.7526  0.4845
30122SOL     OW95176   2.837   7.409   8.765 -0.0213 -0.4806  0.5280
30122SOL    HW195177   2.901   7.478   8.746 -1.1128  0.4762  0.2568
30122SOL    HW295178   2.891   7.331   8.781  1.1607 -0.2225 -1.7827
30123SOL     OW95179   6.536  11.550   9.539 -0.1817  0.0785 -0.1218
30123SOL    HW195180   6.519  11.641   9.563 -1.9219  0.2973 -1.9341
30123SOL    HW295181   6.611  11.554   9.480 -0.4965  0.3788 -0.4986
30124SOL     OW95182   7.851   5.428   1.190 -0.1467 -0.0388 -0.0248
30124SOL    HW195183   7.842   5.360   1.123 -0.5499  0.3195 -0.3339
30124SOL    HW295184   7.782   5.409   1.253 -1.3159  1.0384 -0.9476
30125SOL     OW95185   0.412  10.616   0.579  0.2760  0.0968 -0.7577
30125SOL    HW195186   0.468  10.539   0.591  1.1657  0.7553 -0.6623
30125SOL    HW295187   0.431  10.647   0.491  0.4192  0.6014 -0.5542
30126SOL     OW95188   9.989   4.457  11.272  0.9326 -0.0212 -1.1656
30126SOL    HW195189  10.034   4.430  11.192  0.8295 -0.0689 -1.2080
30126SOL    HW295190  10.056   4.505  11.321  1.3378 -0.9830 -0.7517
30127SOL     OW95191   7.927   4.922  12.333  0.1044  0.0770 -0.3070
30127SOL    HW195192   7.922   5.015  12.315  1.7524  0.3133  0.2652
30127SOL    HW295193   7.911   4.914  12.428 -0.3443 -0.2673 -0.4048
30128SOL     OW95194   8.156   2.905  12.002 -0.6078  0.1187 -0.7651
30128SOL    HW195195   8.168   2.998  11.984 -1.6116  0.7388  1.3474
30128SOL    HW295196   8.186   2.895  12.093  0.0294 -1.7571 -1.1429
30129SOL     OW95197   8.879   9.653  12.191 -0.0329 -0.2318 -0.0214
30129SOL    HW195198   8.830   9.707  12.130 -1.1370 -0.0022  1.0332
30129SOL    HW295199   8.963   9.699  12.202 -0.6085  0.8105  0.1783
30130SOL     OW95200   1.863   4.358   4.346  0.1060 -0.6099  0.1503
30130SOL    HW195201   1.927   4.302   4.389  0.0247 -0.6184  0.2586
30130SOL    HW295202   1.781   4.343   4.394  0.3578  0.5126  0.9510
30131SOL     OW95203   4.850   8.729   4.044 -0.3381 -0.0054 -0.0287
30131SOL    HW195204   4.934   8.707   4.005 -1.5150  0.8156 -3.3501
30131SOL    HW295205   4.805   8.645   4.056  0.2201 -0.3143 -0.1002
30132SOL     OW95206   3.100  10.306   5.659 -0.0911 -0.0719 -0.6210
30132SOL    HW195207   3.101  10.388   5.709 -1.0520 -0.6399  0.3910
30132SOL    HW295208   3.007  10.287   5.647  0.1266 -0.8813 -1.0680
30133SOL     OW95209   2.098  11.261  12.129 -0.1903 -0.1311  0.3970
30133SOL    HW195210   2.097  11.355  12.112 -0.2947 -0.2899 -0.5651
30133SOL    HW295211   2.157  11.250  12.204 -1.6999  0.8744  1.7854
30134SOL     OW95212   0.936   1.811  10.662 -0.0780  0.6501  0.0172
30134SOL    HW195213   0.851   1.845  10.691  0.5136  0.8949  1.5568
30134SOL    HW295214   0.951   1.734  10.717  0.0691 -0.2476 -1.2309
30135SOL     OW95215   1.238   2.467   2.300  0.4993 -0.2359 -0.8082
30135SOL    HW195216   1.223   2.414   2.378  0.6664  0.6758 -0.1350
30135SOL    HW295217   1.162   2.526   2.297  0.8210  0.1728 -0.9561
30136SOL     OW95218   3.369   3.083   3.264  0.2568  0.6414 -0.3804
30136SOL    HW195219   3.384   3.056   3.173  0.9782  0.5361 -0.2372
30136SOL    HW295220   3.328   3.169   3.257 -1.2607 -0.0995 -0.8304
30137SOL     OW95221   3.947   1.937   1.090  0.2115 -0.0946  0.4085
30137SOL    HW195222   4.009   1.995   1.046  0.4861 -2.2935 -2.3688
30137SOL    HW295223   4.001   1.876   1.138  0.0200  0.2145  1.0305
30138SOL     OW95224  10.680  11.743   4.894 -0.3592  0.2135 -0.0438
30138SOL    HW195225  10.705  11.784   4.811  0.2653 -1.4671 -0.7417
30138SOL    HW295226  10.679  11.815   4.957  1.9696  1.1057 -0.9170
30139SOL     OW95227   6.109   1.048  10.247 -0.2200  0.1332 -0.0018
30139SOL    HW195228   6.017   1.025  10.238 -0.1015 -1.3619  1.9024
30139SOL    HW295229   6.130   1.097  10.167 -3.0829  2.0985  0.3070
30140SOL     OW95230   7.316   7.983  12.488  0.0954  0.0995 -0.0460
30140SOL    HW195231   7.268   8.060  12.458  1.3800  0.4872 -1.2506
30140SOL    HW295232   7.405   8.016  12.503  0.8850 -1.2734 -1.3819
30141SOL     OW95233   5.845   8.960  11.640 -0.0933  0.1531 -0.2942
30141SOL    HW195234   5.867   9.032  11.580 -0.2137  1.1347  0.8188
30141SOL    HW295235   5.767   8.990  11.686 -0.0905 -0.6562  0.2433
30142SOL     OW95236   0.471  11.164   8.289 -0.1990 -0.1188  0.4094
30142SOL    HW195237   0.557  11.197   8.265 -1.3337  1.7889 -1.4333
30142SOL    HW295238   0.461  11.084   8.238 -0.4345  1.0077 -1.4147
30143SOL     OW95239   3.924   8.732   0.335 -0.3635  0.4403  0.1412
30143SOL    HW195240   3.976   8.721   0.256  0.5094  1.7392  0.5062
30143SOL    HW295241   3.959   8.668   0.396 -1.2298 -0.7715 -0.5737
30144SOL     OW95242   2.172   4.803  10.922 -0.5444  0.2330 -0.1232
30144SOL    HW195243   2.087   4.784  10.883 -0.5856 -1.4800  0.7185
30144SOL    HW295244   2.152   4.835  11.009 -0.3367  0.3356 -0.1129
30145SOL     OW95245  11.250   1.384   5.660  0.1477  0.2288 -0.0867
30145SOL    HW195246  11.299   1.303   5.667 -0.3274  0.0553  1.7084
30145SOL    HW295247  11.301   1.439   5.600  2.2822 -0.1200  1.3245
30146SOL     OW95248  10.462   9.877   1.409 -0.6305 -0.4038  0.0304
30146SOL    HW195249  10.391   9.866   1.346 -0.5398  0.3264 -0.2082
30146SOL    HW295250  10.465   9.971   1.426  0.2956 -0.4217  0.0131
30147SOL     OW95251   4.427   3.241   6.245 -0.4083  0.6579 -0.3048
30147SOL    HW195252   4.432   3.291   6.163  1.4350  0.7417 -0.1794
30147SOL    HW295253   4.346   3.190   6.236 -0.4344  0.9243 -2.0278
30148SOL     OW95254   1.056   8.871   8.607 -0.5367 -0.1054  0.0697
30148SOL    HW195255   1.106   8.936   8.559 -1.3412  0.4149 -0.0773
30148SOL    HW295256   1.115   8.843   8.678  0.0815  0.2324 -0.3013
30149SOL     OW95257   8.894   8.795   9.298 -0.0403  0.2100  0.1110
30149SOL    HW195258   8.916   8.889   9.299  2.2834 -0.2697  0.5503
30149SOL    HW295259   8.846   8.782   9.216  0.2874  1.6467 -0.3362
30150SOL     OW95260   5.546   6.123   1.887 -0.5877  0.0678 -0.0643
30150SOL    HW195261   5.543   6.169   1.970  0.0970 -0.7644  0.4455
30150SOL    HW295262   5.497   6.178   1.826  1.0141  1.9391  0.2607
30151SOL     OW95263   2.064  12.612  11.983 -0.6834 -0.0866  0.0989
30151SOL    HW195264   2.053  12.656  11.899  1.7789 -0.2488 -0.3994
30151SOL    HW295265   2.071  12.684  12.046  1.4234  0.2676 -0.4521
30152SOL     OW95266  12.195   0.771   8.117  0.2610  0.0969 -0.6279
30152SOL    HW195267  12.268   0.771   8.055  0.9524  0.6626  0.1604
30152SOL    HW295268  12.193   0.681   8.150 -0.2845 -0.2804 -1.6483
30153SOL     OW95269   3.405   0.037   2.692 -0.7050  0.1413 -0.0251
30153SOL    HW195270   3.405  -0.048   2.648 -0.2626  0.7650 -1.2742
30153SOL    HW295271   3.324   0.079   2.662 -1.4128 -0.1871  1.3382
30154SOL     OW95272   2.439   7.951   3.381  0.1295 -0.0650 -0.0567
30154SOL    HW195273   2.365   7.890   3.379  0.0570  0.0347 -0.6820
30154SOL    HW295274   2.403   8.034   3.349  0.6677 -0.2006 -1.0630
30155SOL     OW95275  12.153  12.358   2.840 -0.0677 -0.0090  0.3118
30155SOL    HW195276  12.064  12.355   2.807 -0.1947  1.2650  0.5188
30155SOL    HW295277  12.151  12.422   2.911  1.5915  2.2756 -1.5483
30156SOL     OW95278   4.584   5.309   2.094 -0.8942 -0.5230  0.1143
30156SOL    HW195279   4.621   5.222   2.110  0.8417  0.2310  0.4518
30156SOL    HW295280   4.562   5.343   2.181  1.8059  0.7275  0.4286
30157SOL     OW95281   5.057   0.990   2.247 -0.1469 -0.4114  0.2014
30157SOL    HW195282   5.107   0.931   2.304 -0.0475 -0.1289  0.4129
30157SOL    HW295283   5.045   0.941   2.166 -1.5342 -1.3957  0.9566
30158SOL     OW95284   5.793  10.010   4.537  0.4368  0.2629  0.2214
30158SOL    HW195285   5.834  10.009   4.450  1.0906 -0.1223  0.5243
30158SOL    HW295286   5.717   9.952   4.528 -0.2506  1.2245 -0.4285
30159SOL     OW95287   7.677  10.970   8.705  0.1812 -0.1862  0.0718
30159SOL    HW195288   7.753  10.918   8.729 -0.3345 -0.1448  1.9528
30159SOL    HW295289   7.618  10.908   8.661 -0.1082 -1.0708  1.6182
30160SOL     OW95290  10.662   8.008   9.541 -0.3268 -0.3437 -0.2630
30160SOL    HW195291  10.618   8.008   9.456 -1.1891 -0.4796  0.1731
30160SOL    HW295292  10.735   8.070   9.530 -1.5211  1.0793 -0.5519
30161SOL     OW95293  12.110  11.812   5.422  0.1659 -0.0594  0.3744
30161SOL    HW195294  12.173  11.883   5.413 -0.2043  0.0964 -1.4070
30161SOL    HW295295  12.162  11.732   5.417  0.3813  0.0773  0.4375
30162SOL     OW95296   7.461   2.763   7.136  0.2915  0.4697  0.0186
30162SOL    HW195297   7.439   2.832   7.073  1.4898  1.2056  0.3631
30162SOL    HW295298   7.556   2.772   7.148  0.5111 -1.4166 -0.1172
30163SOL     OW95299   9.945   9.932   1.786 -0.6419 -0.5576 -0.5585
30163SOL    HW195300   9.883  10.001   1.763 -0.3768  0.0890  0.5498
30163SOL    HW295301   9.921   9.858   1.731 -1.5364  0.1152 -1.1034
30164SOL     OW95302   7.129   5.962   2.428  0.2203  0.2446 -0.1374
30164SOL    HW195303   7.184   6.037   2.450 -0.8055  0.8472  0.4136
30164SOL    HW295304   7.057   5.999   2.378 -0.4468 -0.3321  0.3828
30165SOL     OW95305   8.955   2.329   1.883 -0.0737  0.7944 -0.4627
30165SOL    HW195306   8.928   2.269   1.952 -0.3691  0.7143 -0.6472
30165SOL    HW295307   8.878   2.382   1.865 -0.0669  0.6713 -0.8746
30166SOL     OW95308   5.232   5.964   1.690 -0.2083 -0.6335  0.5736
30166SOL    HW195309   5.152   5.976   1.742 -0.9233 -1.0449 -0.3996
30166SOL    HW295310   5.250   5.870   1.696  0.9764 -0.3567  1.8630
30167SOL     OW95311   8.241  11.739  10.189  0.2459 -0.0905 -0.3540
30167SOL    HW195312   8.193  11.687  10.125 -1.4360 -0.4663  1.1315
30167SOL    HW295313   8.324  11.693  10.199  1.1363  0.6952 -3.1401
30168SOL     OW95314   2.816  12.569  12.108  0.1288 -0.2410 -0.5344
30168SOL    HW195315   2.813  12.596  12.016  1.8309  0.5529 -0.3795
30168SOL    HW295316   2.878  12.629  12.149 -0.0746 -1.0315  0.9942
30169SOL     OW95317   3.845   0.415  11.723  0.2820 -0.3542 -0.0460
30169SOL    HW195318   3.916   0.473  11.749  0.0966 -0.1479  0.0044
30169SOL    HW295319   3.817   0.373  11.804  0.2094 -0.2811 -0.0331
30170SOL     OW95320   0.716   9.639   0.560 -0.0545  0.0646 -0.4671
30170SOL    HW195321   0.653   9.571   0.583 -1.2519  1.0996 -0.5831
30170SOL    HW295322   0.747   9.615   0.473  0.8383 -1.2298  0.1678
30171SOL     OW95323   1.763   5.617   3.047 -1.0871  0.6601 -0.4180
30171SOL    HW195324   1.701   5.546   3.029  0.9618 -1.3272 -0.1160
30171SOL    HW295325   1.830   5.608   2.980 -0.0189  1.3353  0.5235
30172SOL     OW95326   8.547  10.933   9.397 -0.2064 -0.5493  0.6467
30172SOL    HW195327   8.531  10.872   9.469  0.9503 -0.4312  1.0276
30172SOL    HW295328   8.620  10.894   9.348  0.1085  0.1883  0.5109
30173SOL     OW95329   7.665   1.260   0.781  0.4131  0.5802 -0.0018
30173SOL    HW195330   7.632   1.299   0.700  1.1126 -0.3733 -0.7740
30173SOL    HW295331   7.706   1.178   0.753  1.3002  0.5754  1.2261
30174SOL     OW95332   9.341   3.285  10.183 -0.0150 -0.3904  0.2927
30174SOL    HW195333   9.247   3.287  10.166  0.1703 -0.2684 -0.7381
30174SOL    HW295334   9.382   3.307  10.100  0.9647 -1.8541  0.3488
30175SOL     OW95335  11.144   0.428   1.718 -0.5341 -0.1643 -0.0585
30175SOL    HW195336  11.193   0.347   1.703 -1.5204 -1.1263  1.6025
30175SOL    HW295337  11.055   0.399   1.738 -1.0816  1.3783 -0.1242
30176SOL     OW95338   6.838  10.981   5.120  0.0266  0.0319 -0.1871
30176SOL    HW195339   6.923  10.940   5.105  0.5820  1.0974 -0.0521
30176SOL    HW295340   6.859  11.067   5.156 -1.1296 -0.0749  0.8318
30177SOL     OW95341  10.462   2.274   6.527  0.4866 -0.1999 -0.1307
30177SOL    HW195342  10.488   2.197   6.577 -0.4679 -0.0535  0.6249
30177SOL    HW295343  10.370   2.286   6.548  0.2297  0.2681 -1.4256
30178SOL     OW95344   0.860   6.342   3.264  0.6642 -0.1488 -0.7423
30178SOL    HW195345   0.844   6.360   3.172 -1.9193  0.6763 -0.2230
30178SOL    HW295346   0.897   6.424   3.299  0.6810 -0.1116 -0.8475
30179SOL     OW95347   2.634  10.227   7.015 -0.6291  0.2231  0.2213
30179SOL    HW195348   2.721  10.192   6.998 -0.4910  0.2890  0.7791
30179SOL    HW295349   2.632  10.309   6.966 -0.3642  0.2420  0.2390
30180SOL     OW95350   0.675  11.873   7.180 -0.1753  0.2332  0.2231
30180SOL    HW195351   0.748  11.910   7.230 -0.4887 -0.8151  1.5066
30180SOL    HW295352   0.717  11.818   7.115  0.2126  0.8599 -0.0716
30181SOL     OW95353   7.641   4.006   0.244 -0.0462 -0.1162  0.4310
30181SOL    HW195354   7.714   4.011   0.182 -0.4554  0.4744 -0.0118
30181SOL    HW295355   7.638   3.914   0.269  3.0808  0.3415  3.2060
30182SOL     OW95356   9.299   2.116   5.899 -0.0159 -0.0392  0.2682
30182SOL    HW195357   9.298   2.204   5.861  0.8408 -0.8975 -1.8909
30182SOL    HW295358   9.234   2.068   5.849  0.3149 -0.9211  0.6703
30183SOL     OW95359   3.168   3.326  11.080 -0.1322 -0.4227 -0.1184
30183SOL    HW195360   3.262   3.316  11.065  0.0372  2.6532 -2.0111
30183SOL    HW295361   3.161   3.367  11.166  0.3379 -0.0356 -0.2606
30184SOL     OW95362   8.717  10.524   1.975 -0.3507  0.0483  0.1645
30184SOL    HW195363   8.783  10.563   1.917  0.2159 -3.4151 -1.7470
30184SOL    HW295364   8.767  10.494   2.051  0.9604 -4.2180 -2.0574
30185SOL     OW95365   2.169   0.392   1.786  0.3510  0.0712  0.1643
30185SOL    HW195366   2.178   0.340   1.706 -1.5790  0.5419 -0.4050
30185SOL    HW295367   2.119   0.336   1.845  0.1360  0.4540  0.3466
30186SOL     OW95368   8.592   7.071   0.950  0.1911  0.0328 -0.4398
30186SOL    HW195369   8.680   7.051   0.984 -1.1002 -2.3399  1.7959
30186SOL    HW295370   8.578   7.007   0.880 -1.7761 -3.6572  2.9862
30187SOL     OW95371   4.837   1.406   0.595  0.4643  0.4946 -0.0989
30187SOL    HW195372   4.767   1.363   0.546  1.8150 -0.3758 -1.3603
30187SOL    HW295373   4.808   1.496   0.604 -1.0815  0.0296 -0.0420
30188SOL     OW95374  11.650   3.908   5.735 -0.2823  0.5231 -0.2683
30188SOL    HW195375  11.557   3.884   5.738 -0.4605  1.1857 -0.4211
30188SOL    HW295376  11.667   3.948   5.821 -0.4407  1.4773 -0.6689
30189SOL     OW95377   5.948   4.713   1.857 -0.2999  0.3870  0.4665
30189SOL    HW195378   5.883   4.731   1.789 -0.0159  0.4321  0.2071
30189SOL    HW295379   5.950   4.618   1.864  2.5397  0.0727 -2.4318
30190SOL     OW95380   4.014   8.128   7.614  0.8795 -0.0656  0.1929
30190SOL    HW195381   4.057   8.047   7.639  0.0467 -0.5773 -0.0169
30190SOL    HW295382   3.974   8.161   7.694  0.6222 -0.2239  0.1282
30191SOL     OW95383   6.054   9.606   1.526 -0.1031 -0.1966 -0.5500
30191SOL    HW195384   6.080   9.516   1.504 -0.5132  0.0634 -2.2273
30191SOL    HW295385   5.968   9.617   1.487  0.3104  1.2010 -1.1489
30192SOL     OW95386   1.121   7.376   6.565  0.4114 -0.2873  0.2419
30192SOL    HW195387   1.177   7.400   6.639 -0.1623  3.0114 -0.2404
30192SOL    HW295388   1.055   7.445   6.562 -0.4284 -1.1091 -2.5046
30193SOL     OW95389   1.022  10.398  12.200  0.4599  0.2203 -0.1660
30193SOL    HW195390   0.946  10.452  12.219  0.4843  1.1890 -2.5145
30193SOL    HW295391   1.097  10.453  12.225  0.4303  0.1150  0.1563
30194SOL     OW95392   0.472   9.032   3.415  0.0517  0.4122  0.1188
30194SOL    HW195393   0.473   9.028   3.320 -1.5397  0.8201  0.0441
30194SOL    HW295394   0.514   8.951   3.444  1.0465  0.5465 -0.9168
30195SOL     OW95395   6.172   4.314   6.426  0.3646 -0.0882  0.3601
30195SOL    HW195396   6.099   4.320   6.489  0.0902  0.6925 -0.0188
30195SOL    HW295397   6.240   4.369   6.464  0.2150  0.3480 -0.0031
30196SOL     OW95398   9.847  10.883   3.687 -0.1638  0.1469  0.3375
30196SOL    HW195399   9.860  10.897   3.781 -0.1008 -0.0743  0.3625
30196SOL    HW295400   9.752  10.879   3.677 -0.2436  1.6335  0.1721
30197SOL     OW95401   6.320   3.013   2.554 -0.5449 -0.6907 -0.1467
30197SOL    HW195402   6.354   2.992   2.467  1.3204 -0.3633  0.4416
30197SOL    HW295403   6.291   3.103   2.548  0.0999 -0.4878 -0.3144
30198SOL     OW95404   8.940   8.609   4.631  0.0087 -0.1087 -0.2755
30198SOL    HW195405   8.854   8.651   4.634 -0.8896 -1.8566  0.6356
30198SOL    HW295406   8.972   8.614   4.721 -0.1875 -1.4065 -0.1049
30199SOL     OW95407   3.419   9.492   6.292 -0.2700  0.4557  0.3703
30199SOL    HW195408   3.461   9.478   6.206 -0.4288 -3.2606  0.7620
30199SOL    HW295409   3.490   9.479   6.355 -0.6871  0.6981  0.8926
30200SOL     OW95410   7.042   9.505  10.732  0.3617  0.5620 -0.0034
30200SOL    HW195411   6.981   9.576  10.751 -1.7534 -1.4887  1.5737
30200SOL    HW295412   7.012   9.469  10.648 -0.3535 -0.1024  0.5105
30201SOL     OW95413   9.074   5.879   9.336  0.5852  0.0464  0.5520
30201SOL    HW195414   9.102   5.959   9.381 -3.0093  3.2417 -2.1465
30201SOL    HW295415   9.152   5.848   9.290  2.1877  1.8342  1.9139
30202SOL     OW95416   3.820   4.727   1.857 -0.8633  0.5208 -0.2800
30202SOL    HW195417   3.765   4.723   1.935 -0.4739 -1.6415 -0.0395
30202SOL    HW295418   3.908   4.704   1.889 -0.7778 -0.8185 -1.3582
30203SOL     OW95419   9.404   1.430   0.757  0.5253  0.1260  0.0948
30203SOL    HW195420   9.341   1.358   0.759  0.7151 -0.1524 -1.8148
30203SOL    HW295421   9.389   1.477   0.839 -0.4403 -1.3644  0.8277
30204SOL     OW95422   0.059   9.788   0.233 -0.5547  0.3261  0.2510
30204SOL    HW195423   0.084   9.721   0.170 -0.6624  1.6573 -1.2934
30204SOL    HW295424  -0.014   9.749   0.281 -1.4235 -0.2647 -1.4276
30205SOL     OW95425   3.597   2.171   6.503  0.1787  0.5254 -0.1225
30205SOL    HW195426   3.545   2.091   6.489 -1.0678  1.4229 -0.8215
30205SOL    HW295427   3.669   2.163   6.442  0.0091 -0.0150 -0.2632
30206SOL     OW95428  12.299   5.356  10.904 -0.2278  0.3483 -0.0502
30206SOL    HW195429  12.358   5.391  10.837 -0.1722 -0.9963 -0.7535
30206SOL    HW295430  12.305   5.418  10.977 -0.0979  1.7216 -1.1839
30207SOL     OW95431   4.878   7.941   7.440  0.9399  0.2736  0.3589
30207SOL    HW195432   4.938   7.942   7.365  1.0035  0.1655  0.4078
30207SOL    HW295433   4.902   7.862   7.489  0.9250  0.3641  0.5144
30208SOL     OW95434   6.926   6.095   2.617  1.5891 -0.0841  0.1668
30208SOL    HW195435   6.877   6.079   2.698  1.9686  1.8429  0.8435
30208SOL    HW295436   6.905   6.021   2.561 -0.6565 -0.2539  1.1145
30209SOL     OW95437   0.701   5.709   5.906  0.5595  0.4204  0.1416
30209SOL    HW195438   0.631   5.654   5.942  0.2989  0.6235 -0.0548
30209SOL    HW295439   0.781   5.656   5.917  0.0933 -0.7097 -1.5592
30210SOL     OW95440   3.655  12.028   8.294  0.0104 -0.3158  0.1895
30210SOL    HW195441   3.730  12.079   8.321 -0.6488  0.0414  1.4192
30210SOL    HW295442   3.580  12.071   8.336 -1.2698  0.9140 -3.0384
30211SOL     OW95443   7.679   0.258   9.602  0.2158  0.5805 -0.5472
30211SOL    HW195444   7.761   0.276   9.649  0.9214 -0.9690 -1.1204
30211SOL    HW295445   7.620   0.224   9.669  1.2075 -1.5934 -0.7132
30212SOL     OW95446   8.408   7.761   2.912 -0.8216 -0.5052 -0.5719
30212SOL    HW195447   8.450   7.819   2.848 -0.0502 -0.6069 -0.1750
30212SOL    HW295448   8.380   7.820   2.982  1.9473 -0.7698  0.9026
30213SOL     OW95449   5.143   2.481  10.768 -0.4038 -0.2193 -0.2332
30213SOL    HW195450   5.069   2.523  10.725 -0.1168 -0.1083 -0.6304
30213SOL    HW295451   5.209   2.550  10.772 -0.4681 -0.1973  0.4887
30214SOL     OW95452  10.609  10.284   7.287  0.4118  0.4266  0.9045
30214SOL    HW195453  10.665  10.348   7.243  1.2521 -1.8251 -1.5957
30214SOL    HW295454  10.668  10.211   7.308 -1.0802 -0.9993  0.4181
30215SOL     OW95455   8.159   0.018   9.518  0.0783  0.1800 -0.2981
30215SOL    HW195456   8.199   0.020   9.605  0.1398 -0.1082 -0.3206
30215SOL    HW295457   8.094  -0.052   9.523 -1.6417  1.7260  0.2774
30216SOL     OW95458   2.248   3.075   4.751  0.4322  0.7734 -0.4440
30216SOL    HW195459   2.311   3.147   4.751  0.6326  0.5991 -0.9598
30216SOL    HW295460   2.243   3.047   4.660  1.7585 -1.0873 -0.0032
30217SOL     OW95461   7.794   4.501  11.923  0.1232 -0.3120  0.2984
30217SOL    HW195462   7.864   4.558  11.889 -0.8975  1.1591  0.5825
30217SOL    HW295463   7.775   4.441  11.850  0.7797  0.1312 -0.2521
30218SOL     OW95464   5.376   1.256   9.168 -0.3733  0.2085  0.3795
30218SOL    HW195465   5.465   1.291   9.173 -0.4302  0.2924  0.9058
30218SOL    HW295466   5.364   1.231   9.076 -0.2112  1.2628  0.0623
30219SOL     OW95467   7.403   8.894   9.429 -0.2752 -0.8799 -0.3711
30219SOL    HW195468   7.310   8.912   9.437  0.0404  1.2480 -1.0661
30219SOL    HW295469   7.419   8.892   9.335  0.5136 -0.4242 -0.2543
30220SOL     OW95470  11.576  11.336   7.984 -0.5409  0.2377 -0.3509
30220SOL    HW195471  11.530  11.282   8.048 -1.8453  0.7897 -0.7883
30220SOL    HW295472  11.573  11.425   8.020  0.6155  0.2235 -0.1675
30221SOL     OW95473   5.095   7.518   6.185 -0.5564 -0.0219  0.4009
30221SOL    HW195474   5.057   7.501   6.099  0.2725  1.4604 -0.2791
30221SOL    HW295475   5.189   7.520   6.170 -0.4565  1.9191  0.9935
30222SOL     OW95476   2.826   3.834   4.871 -0.1115 -0.5023  0.0124
30222SOL    HW195477   2.752   3.814   4.929  0.8985 -1.2972  1.0590
30222SOL    HW295478   2.804   3.919   4.833 -1.7690 -0.9037 -0.0406
30223SOL     OW95479   0.819  10.723   4.179  0.2879 -0.5971  0.4192
30223SOL    HW195480   0.782  10.653   4.232  0.7043 -0.2909  1.1280
30223SOL    HW295481   0.848  10.788   4.243 -0.1229  0.2406 -0.2261
30224SOL     OW95482   5.752   5.022   7.280  0.1033 -0.0455  0.0788
30224SOL    HW195483   5.796   4.989   7.202  0.0049  0.0771 -0.0303
30224SOL    HW295484   5.669   4.973   7.283  0.6847 -1.0171  0.8563
30225SOL     OW95485   7.640   3.227   3.281 -0.2841  0.7383 -0.2121
30225SOL    HW195486   7.555   3.192   3.304 -0.0456  0.6402  0.5710
30225SOL    HW295487   7.701   3.182   3.340  0.5592 -0.5213 -1.9638
30226SOL     OW95488   5.829  10.815   9.952  0.3108 -0.2807 -0.5096
30226SOL    HW195489   5.891  10.853  10.014 -0.4680  1.1871 -0.5592
30226SOL    HW295490   5.774  10.758  10.005  1.7315 -1.6678 -0.4867
30227SOL     OW95491   6.000   9.603   2.278  0.2068  0.1478  0.1896
30227SOL    HW195492   5.925   9.639   2.231  0.1015 -1.5704 -1.0355
30227SOL    HW295493   6.076   9.638   2.232  0.2178  1.8963  1.4372
30228SOL     OW95494   8.718   9.574   9.133  0.1678  0.1399  0.2386
30228SOL    HW195495   8.765   9.568   9.051 -0.1282  0.5345  0.0340
30228SOL    HW295496   8.679   9.662   9.132 -0.1027  0.0299  0.6529
30229SOL     OW95497   0.066   8.863   8.225 -0.1008 -0.1618 -0.0206
30229SOL    HW195498   0.009   8.839   8.152 -1.9915  1.2543  0.8890
30229SOL    HW295499   0.147   8.815   8.210 -1.5940 -2.4225 -1.2843
30230SOL     OW95500  10.443   7.130   8.123  0.0780 -0.1834  0.0039
30230SOL    HW195501  10.408   7.149   8.210  0.7803 -0.2762  0.3214
30230SOL    HW295502  10.426   7.036   8.110 -3.1465  0.4819 -1.4491
30231SOL     OW95503  10.273   5.274   5.745  0.2328 -0.2491  0.0733
30231SOL    HW195504  10.221   5.195   5.756 -1.1535  0.4324 -1.1955
30231SOL    HW295505  10.358   5.244   5.712 -0.2746 -1.2050 -0.3782
30232SOL     OW95506   0.426   5.551   7.688 -0.1128  0.5841 -0.1600
30232SOL    HW195507   0.370   5.517   7.758 -0.2185  1.3300  0.1206
30232SOL    HW295508   0.392   5.638   7.669  0.9021  1.0229 -0.0328
30233SOL     OW95509  11.668   9.236  10.291 -0.2238  0.3948 -0.4426
30233SOL    HW195510  11.683   9.142  10.283 -0.7123  0.4159 -1.6656
30233SOL    HW295511  11.578   9.244  10.322  0.1617  0.4511  0.7324
30234SOL     OW95512   5.640   5.006   9.015  0.7289  0.0885 -0.4084
30234SOL    HW195513   5.733   5.004   8.994  0.3691 -0.1278 -2.1787
30234SOL    HW295514   5.630   5.080   9.076  2.1460 -0.3973  0.4549
30235SOL     OW95515  11.043   0.748   1.937 -0.3078  0.1752 -0.3262
30235SOL    HW195516  11.082   0.662   1.925 -0.1801  0.2709 -0.6046
30235SOL    HW295517  11.099   0.791   2.002 -0.5359 -0.0537  0.0224
30236SOL     OW95518   7.468  11.562   8.592 -0.1052 -0.1079  0.2027
30236SOL    HW195519   7.495  11.639   8.541 -0.1299  0.4189  0.9706
30236SOL    HW295520   7.535  11.496   8.574  0.6730  0.5534  0.6143
30237SOL     OW95521  11.984   6.392   0.362  0.3333  0.1480  0.0769
30237SOL    HW195522  12.065   6.431   0.330  0.4333 -0.1776 -0.0664
30237SOL    HW295523  11.921   6.465   0.361  0.8482  0.6168  1.0560
30238SOL     OW95524   8.800   6.953   1.051  0.2809  0.4773  0.1448
30238SOL    HW195525   8.796   6.943   1.146  0.6019 -0.4936  0.0748
30238SOL    HW295526   8.817   6.864   1.019  0.9261  0.9198 -0.7729
30239SOL     OW95527   1.944   0.632   0.673  0.3764  0.2348 -0.5940
30239SOL    HW195528   1.952   0.537   0.684  1.2857  0.3438 -0.1541
30239SOL    HW295529   1.879   0.658   0.738  2.5378  0.3007  1.6944
30240SOL     OW95530   0.425   0.344   4.064  0.0015 -0.1365  0.2877
30240SOL    HW195531   0.437   0.260   4.021  0.3889 -0.1308  0.3811
30240SOL    HW295532   0.430   0.408   3.993 -0.3386 -0.1935  0.2107
30241SOL     OW95533   9.779   2.670  11.271  0.1853 -0.6241 -0.2520
30241SOL    HW195534   9.786   2.642  11.179 -0.1610 -0.5690 -0.2986
30241SOL    HW295535   9.779   2.765  11.267 -1.0281 -0.6053 -0.3085
30242SOL     OW95536  10.925   7.269   2.379  0.6409  0.1868 -0.1104
30242SOL    HW195537  11.020   7.258   2.384  0.6756 -0.1576 -1.1506
30242SOL    HW295538  10.894   7.250   2.467  1.3820 -1.4818 -0.1544
30243SOL     OW95539   4.595   0.263   4.170  0.3250  0.2117 -0.2269
30243SOL    HW195540   4.587   0.288   4.262 -3.8502  0.6516 -0.4826
30243SOL    HW295541   4.645   0.182   4.171 -0.1290 -0.1457  2.5435
30244SOL     OW95542   3.803   4.299   3.118  0.1745 -0.1047 -0.0007
30244SOL    HW195543   3.736   4.231   3.115 -1.2784  1.2811 -0.5622
30244SOL    HW295544   3.829   4.303   3.210 -1.9401  0.5814  0.6434
30245SOL     OW95545  12.639   8.541   9.528  0.6677 -0.1831  0.4144
30245SOL    HW195546  12.715   8.580   9.571  0.2549 -0.8881  1.8547
30245SOL    HW295547  12.630   8.455   9.568 -1.4969  0.2708  1.0624
30246SOL     OW95548  10.014   0.731  11.498 -0.3098 -0.1672  0.1648
30246SOL    HW195549   9.929   0.734  11.542 -1.7484  1.6923 -2.4242
30246SOL    HW295550  10.049   0.820  11.508  1.3396 -0.8915  1.1142
30247SOL     OW95551   8.123   6.990   5.849  0.2325 -0.1357 -0.2288
30247SOL    HW195552   8.070   6.961   5.923 -0.0826 -0.9237 -0.7522
30247SOL    HW295553   8.143   7.082   5.868  1.9204 -0.8631  1.8696
30248SOL     OW95554   6.006  11.995  11.569  0.1866  0.3099 -0.1400
30248SOL    HW195555   5.914  11.981  11.546  0.0359  1.3857 -0.2324
30248SOL    HW295556   6.015  11.958  11.657 -0.2367 -0.1543 -0.2879
30249SOL     OW95557   8.665   3.796   5.432  0.1783  0.0411  0.3762
30249SOL    HW195558   8.571   3.802   5.453  0.3348  0.6399  0.9249
30249SOL    HW295559   8.706   3.771   5.514  0.7282  1.7851  0.6704
30250SOL     OW95560   1.989   3.790  11.630 -0.1725  0.8580  0.1976
30250SOL    HW195561   2.007   3.778  11.537 -0.1430  0.5249  0.2457
30250SOL    HW295562   1.965   3.703  11.662 -0.0732  0.9470  0.5235
30251SOL     OW95563  12.201   7.076   2.707 -1.2645 -0.3904  0.1528
30251SOL    HW195564  12.154   7.152   2.743  1.6672  1.8171 -0.2660
30251SOL    HW295565  12.165   7.066   2.619 -1.5926  0.6562  0.1422
30252SOL     OW95566   7.463   4.234  12.289  0.2193 -0.3232 -0.5737
30252SOL    HW195567   7.436   4.293  12.360 -1.5826  0.5187 -1.8693
30252SOL    HW295568   7.538   4.277  12.249  0.6604 -0.3372  0.2113
30253SOL     OW95569   8.281   0.252   6.372  0.1132  0.1304 -0.0527
30253SOL    HW195570   8.197   0.292   6.395  1.0770  0.2648  3.9547
30253SOL    HW295571   8.339   0.326   6.357  0.2611  0.0924  0.3386
30254SOL     OW95572   8.729   6.202   5.127 -0.1284 -0.4031 -1.0702
30254SOL    HW195573   8.708   6.145   5.202 -1.3246  0.2307 -0.9075
30254SOL    HW295574   8.822   6.186   5.111  0.6776  0.8563  1.7740
30255SOL     OW95575   1.555   7.661   9.550  0.1031  0.5174  0.1467
30255SOL    HW195576   1.521   7.679   9.638  0.2126  1.7003 -0.0294
30255SOL    HW295577   1.564   7.748   9.510  2.2952  0.2033 -0.2026
30256SOL     OW95578   0.159  12.306   2.673 -0.4543  0.1635 -0.2601
30256SOL    HW195579   0.220  12.345   2.735 -0.4698 -1.0670  0.5531
30256SOL    HW295580   0.171  12.357   2.593  0.9498  0.5353  0.1604
30257SOL     OW95581   9.104  10.134   0.235  0.2197  0.5273  0.3383
30257SOL    HW195582   9.151  10.171   0.310 -0.5681  0.9178  0.6514
30257SOL    HW295583   9.012  10.147   0.256 -0.1159 -1.7759  0.5457
30258SOL     OW95584   1.664   2.832   6.107  0.0121  1.1349 -0.2916
30258SOL    HW195585   1.654   2.877   6.191  1.1173 -0.1500  0.5651
30258SOL    HW295586   1.642   2.899   6.042 -1.4650  2.0074  1.0076
30259SOL     OW95587   6.099   2.527   3.390  0.0299  0.6406  0.2772
30259SOL    HW195588   6.191   2.513   3.368 -0.0713  1.0773 -0.4497
30259SOL    HW295589   6.058   2.552   3.307 -1.0225 -0.8469  0.3110
30260SOL     OW95590   0.518   8.669   9.648  0.1224 -0.4717  0.8004
30260SOL    HW195591   0.553   8.748   9.606  0.6823 -0.9945  0.2767
30260SOL    HW295592   0.524   8.687   9.741 -0.3791  0.3777  0.6789
30261SOL     OW95593   5.815   2.018   2.093  0.5549  0.1487 -0.4793
30261SOL    HW195594   5.749   2.068   2.046 -1.2503 -1.0126  0.6856
30261SOL    HW295595   5.888   2.010   2.032 -0.5898  1.0418 -2.0158
30262SOL     OW95596  10.003   1.148  11.460  0.3716 -0.0842 -0.6337
30262SOL    HW195597  10.032   1.239  11.466 -1.0770  0.4266 -0.9363
30262SOL    HW295598   9.940   1.147  11.388 -1.1829 -0.8786  0.6633
30263SOL     OW95599  12.191  11.014  12.375 -0.1106 -0.0554  0.2646
30263SOL    HW195600  12.130  11.081  12.343 -0.3722 -0.3800  0.0768
30263SOL    HW295601  12.268  11.063  12.402 -0.0159  0.2623 -0.5561
30264SOL     OW95602  12.544   7.782  12.086 -0.4182 -0.0224 -0.2550
30264SOL    HW195603  12.501   7.804  12.004  0.7869  0.5484 -0.7491
30264SOL    HW295604  12.472   7.765  12.147 -1.3246 -0.0314 -1.3074
30265SOL     OW95605   1.431   9.422   2.768 -0.1210 -0.3586  0.3544
30265SOL    HW195606   1.490   9.490   2.800 -0.5306 -0.0732  0.5131
30265SOL    HW295607   1.430   9.435   2.673  0.5916 -0.7963  0.2769
30266SOL     OW95608  12.271   7.492   5.820 -0.0888  0.4819  0.0780
30266SOL    HW195609  12.258   7.423   5.885  0.7254 -1.7438 -1.9599
30266SOL    HW295610  12.336   7.455   5.759 -0.9283  2.3431 -2.0816
30267SOL     OW95611   2.045   3.755   7.896 -0.1121 -0.0301  0.0782
30267SOL    HW195612   1.957   3.727   7.871 -0.5830  0.7541  0.8048
30267SOL    HW295613   2.042   3.758   7.992  0.6534  0.1955  0.0993
30268SOL     OW95614   4.317   1.820   6.389 -0.6583  0.3261 -0.3609
30268SOL    HW195615   4.229   1.801   6.420 -1.4452 -1.1526 -3.0926
30268SOL    HW295616   4.334   1.751   6.324  1.9103  1.4546 -0.9999
30269SOL     OW95617  11.457   1.244   6.666 -0.3612 -0.5228  0.1799
30269SOL    HW195618  11.542   1.267   6.704 -0.7364  0.1599  0.6416
30269SOL    HW295619  11.473   1.241   6.572  0.0699  0.0834  0.2286
30270SOL     OW95620   4.728   3.046   1.418 -0.2760 -0.3318  0.0275
30270SOL    HW195621   4.709   3.127   1.370 -2.5517 -0.0685  1.2219
30270SOL    HW295622   4.751   2.983   1.350 -1.3405  0.5598 -1.2238
30271SOL     OW95623   1.341  12.195   3.831 -0.0399 -0.3182 -0.1313
30271SOL    HW195624   1.373  12.163   3.915 -1.3698  0.1865  0.6020
30271SOL    HW295625   1.396  12.271   3.811 -0.8405  0.6443  1.1840
30272SOL     OW95626  10.654   5.252  10.413 -0.4119  0.6228 -0.3761
30272SOL    HW195627  10.582   5.207  10.369  1.3025 -0.3168 -2.3754
30272SOL    HW295628  10.648   5.222  10.504 -3.0132  1.2707 -0.2556
30273SOL     OW95629   6.272   9.598   2.503  0.0197 -0.5773 -0.1242
30273SOL    HW195630   6.359   9.569   2.531  0.2206 -0.2878 -0.4434
30273SOL    HW295631   6.213   9.563   2.569  0.4311 -0.3394  0.3758
30274SOL     OW95632   6.647   7.403   2.104 -0.0377 -0.2950  0.0972
30274SOL    HW195633   6.700   7.453   2.043 -0.7359 -0.5131 -0.7110
30274SOL    HW295634   6.558   7.436   2.090 -0.3754 -1.1662  0.1627
30275SOL     OW95635   8.479   6.818   3.208  0.7267  0.5300  0.2564
30275SOL    HW195636   8.394   6.779   3.228  1.3476 -0.4298  1.1657
30275SOL    HW295637   8.542   6.757   3.244  1.8643  0.5886 -1.5218
30276SOL     OW95638   8.708   5.145   8.871 -0.1156  0.2336 -0.2047
30276SOL    HW195639   8.754   5.139   8.954  1.1791  1.6033 -0.7673
30276SOL    HW295640   8.777   5.149   8.805 -1.0730  0.6435 -1.2221
30277SOL     OW95641   5.154   8.175   2.025  0.3845  0.1611  0.2220
30277SOL    HW195642   5.146   8.234   2.100  0.4986  0.2108  0.1956
30277SOL    HW295643   5.179   8.091   2.063 -0.5774 -0.0873  0.3409
30278SOL     OW95644   7.286  12.105   9.678  0.3333 -0.1269 -0.1208
30278SOL    HW195645   7.247  12.192   9.667 -0.5100 -0.5182 -0.3470
30278SOL    HW295646   7.213  12.050   9.709  0.7005 -0.8905 -0.5855
30279SOL     OW95647   5.092   0.303   2.611  0.0773 -0.2854 -0.2969
30279SOL    HW195648   5.110   0.258   2.529 -2.3945  0.0025 -1.0713
30279SOL    HW295649   5.090   0.233   2.676 -1.3120 -1.0083 -1.0793
30280SOL     OW95650   9.669   6.578   5.320 -0.2597 -0.3912  0.3890
30280SOL    HW195651   9.749   6.630   5.327 -0.4738  0.2144 -1.2686
30280SOL    HW295652   9.598   6.642   5.324 -0.5848 -0.7124 -0.1081
30281SOL     OW95653   7.985   4.778   0.602 -0.3644 -0.5274 -0.6639
30281SOL    HW195654   7.926   4.704   0.588  0.9875 -2.0187  1.0418
30281SOL    HW295655   7.990   4.788   0.697 -0.3468  1.6644 -0.8381
30282SOL     OW95656   8.038  10.245  11.401  0.2999  0.0796  0.3792
30282SOL    HW195657   8.134  10.252  11.398  0.2970  0.1311  0.4141
30282SOL    HW295658   8.008  10.294  11.324  0.2324  1.3038  1.1554
30283SOL     OW95659   7.773   0.780   3.995  0.3367  0.3217  0.1900
30283SOL    HW195660   7.719   0.854   4.019  0.4448  0.0772  1.2263
30283SOL    HW295661   7.834   0.815   3.930  0.7201  1.2775  1.0373
30284SOL     OW95662   8.166   5.286   8.412 -0.4574  0.0586  0.5580
30284SOL    HW195663   8.096   5.238   8.457 -0.5120  0.1173  0.5353
30284SOL    HW295664   8.125   5.320   8.333 -0.7017  1.0320  1.0933
30285SOL     OW95665   8.391  11.123   4.608  0.4362  0.1443 -0.3252
30285SOL    HW195666   8.430  11.149   4.524 -1.0283  0.6361 -0.8743
30285SOL    HW295667   8.298  11.114   4.589  0.4509 -2.7234  0.5232
30286SOL     OW95668   1.603   0.079  10.248  0.2701  0.4800  0.0290
30286SOL    HW195669   1.612   0.102  10.156 -2.7744  2.4010  0.0673
30286SOL    HW295670   1.652  -0.003  10.258  2.3338  1.2513 -2.7899
30287SOL     OW95671  11.336   2.108   5.750  0.5160 -0.6431 -0.7282
30287SOL    HW195672  11.393   2.124   5.675  0.0652  0.1328 -0.9196
30287SOL    HW295673  11.349   2.183   5.807 -0.8891 -0.0328 -1.1562
30288SOL     OW95674   2.592   2.203   0.280 -0.1419 -0.2086  0.0056
30288SOL    HW195675   2.551   2.119   0.298  0.6197 -1.3086 -2.7861
30288SOL    HW295676   2.543   2.266   0.333 -0.0607 -2.4680  3.0376
30289SOL     OW95677   8.238   2.527   0.263 -0.3356  0.1451 -0.2397
30289SOL    HW195678   8.271   2.614   0.242 -1.5515  0.7269  0.1470
30289SOL    HW295679   8.309   2.484   0.311 -0.8903  2.2213  2.7434
30290SOL     OW95680   5.332  11.034   4.196 -0.8691 -0.0332 -0.1185
30290SOL    HW195681   5.290  11.077   4.271  0.3789  0.8212  0.1360
30290SOL    HW295682   5.275  10.960   4.175 -2.2920  0.8658  0.4116
30291SOL     OW95683  10.220   5.300   2.038  0.4121 -0.5840  0.0585
30291SOL    HW195684  10.179   5.265   2.117 -0.1826 -0.4012 -0.1629
30291SOL    HW295685  10.274   5.373   2.070  1.3993 -1.4793  0.4773
30292SOL     OW95686  11.398   8.456   2.091  0.3958  0.3521 -0.3856
30292SOL    HW195687  11.450   8.516   2.145 -0.7465  1.2027 -0.1850
30292SOL    HW295688  11.418   8.482   2.001  0.1097  0.8663 -0.3058
30293SOL     OW95689  10.224   5.045  10.104  0.4991  0.8291 -0.2973
30293SOL    HW195690  10.183   5.095  10.034 -1.5992  0.0299  0.2667
30293SOL    HW295691  10.313   5.029  10.074 -0.5727 -0.2646 -3.2276
30294SOL     OW95692   1.972   9.537  10.587  0.1296 -0.6661 -0.0831
30294SOL    HW195693   1.955   9.443  10.595 -0.6030 -0.5666 -0.4076
30294SOL    HW295694   1.919   9.565  10.513 -1.6726  0.5010  1.5738
30295SOL     OW95695   0.791   7.374  11.650  0.3097  0.3197  0.2163
30295SOL    HW195696   0.861   7.407  11.705  2.5969 -1.1305 -1.6630
30295SOL    HW295697   0.744   7.311  11.705  0.9204  0.7647  1.2724
30296SOL     OW95698   8.310   2.091  11.581 -0.1779 -0.2220 -0.0206
30296SOL    HW195699   8.234   2.042  11.550  0.5763 -0.1626 -2.0557
30296SOL    HW295700   8.352   2.032  11.644 -1.7842 -0.3092  1.0375
30297SOL     OW95701   8.611   9.370   9.281 -0.1211 -0.7282 -0.6281
30297SOL    HW195702   8.656   9.450   9.255 -1.1165  0.1915  0.4132
30297SOL    HW295703   8.668   9.300   9.250  0.7426  0.3656 -1.6079
30298SOL     OW95704   7.167  11.723   1.298 -0.0523 -0.7732 -0.1389
30298SOL    HW195705   7.124  11.805   1.322  2.1217  0.0824  1.1445
30298SOL    HW295706   7.183  11.679   1.381  1.7001 -0.9349 -0.5227
30299SOL     OW95707   7.363   3.316   9.840  0.7897 -0.2690  0.3176
30299SOL    HW195708   7.290   3.256   9.856  0.8760 -0.0598  1.5689
30299SOL    HW295709   7.429   3.263   9.797 -0.2648 -0.3563 -1.2962
30300SOL     OW95710   4.290   0.318   5.640 -0.3877  0.3484 -0.1559
30300SOL    HW195711   4.385   0.330   5.637 -0.4366  0.6198 -2.2306
30300SOL    HW295712   4.278   0.236   5.688  0.8300  0.6973  0.7986
30301SOL     OW95713   0.307   9.686   0.027 -0.3028 -0.2629 -0.5991
30301SOL    HW195714   0.399   9.711   0.020 -0.4663  0.1613 -1.3989
30301SOL    HW295715   0.303   9.628   0.103  0.6958 -0.6009 -0.7869
30302SOL     OW95716   8.508   9.624   4.087  0.5406  0.3696  0.2668
30302SOL    HW195717   8.573   9.667   4.143  1.6754  0.0376 -0.7694
30302SOL    HW295718   8.440   9.690   4.074  0.6788  0.7427  1.3191
30303SOL     OW95719   3.478   8.483   8.886 -0.0360 -0.3835 -0.1682
30303SOL    HW195720   3.443   8.395   8.903 -1.0728  0.2030  0.8986
30303SOL    HW295721   3.463   8.531   8.968  2.2636  0.2608 -0.0626
30304SOL     OW95722   1.842  10.074   7.704 -0.3289 -0.2668 -0.0991
30304SOL    HW195723   1.928  10.037   7.685 -0.1033  0.3123 -0.2237
30304SOL    HW295724   1.803  10.013   7.767 -0.1016 -0.8948 -0.5562
30305SOL     OW95725   6.435   5.245   1.138  0.1856 -0.1329 -0.1665
30305SOL    HW195726   6.433   5.221   1.230  0.7656 -0.7494 -0.3064
30305SOL    HW295727   6.520   5.214   1.107 -0.4049 -0.8415 -1.1426
30306SOL     OW95728   5.818   2.950   7.601 -0.0781 -0.2856  0.2322
30306SOL    HW195729   5.843   2.942   7.509  0.0109 -1.4067  0.3298
30306SOL    HW295730   5.836   2.863   7.638 -1.0263 -0.1396  1.0851
30307SOL     OW95731   1.182   8.188   2.117  0.1108 -0.0605  0.2519
30307SOL    HW195732   1.159   8.273   2.154  0.9852  0.9680 -1.4720
30307SOL    HW295733   1.108   8.131   2.141 -0.8164  1.3417  0.8408
30308SOL     OW95734  10.652   8.905   0.863 -0.2249 -0.0623  0.0756
30308SOL    HW195735  10.637   8.889   0.770  0.2720  0.3348 -0.0813
30308SOL    HW295736  10.567   8.894   0.904 -0.2578 -1.2452 -0.2795
30309SOL     OW95737   0.633  12.251  11.844  0.2383  0.3627  0.1640
30309SOL    HW195738   0.613  12.197  11.768 -0.3834 -0.7500  1.0927
30309SOL    HW295739   0.693  12.199  11.897  1.4906  1.5390 -0.0142
30310SOL     OW95740   7.856  11.049   4.887 -0.1487  0.3606  0.3630
30310SOL    HW195741   7.776  11.012   4.851 -1.1672 -0.5416  3.2598
30310SOL    HW295742   7.920  10.978   4.883 -0.1180  0.4070 -0.0135
30311SOL     OW95743   4.615   8.656   3.452 -0.3916 -0.0224 -0.2686
30311SOL    HW195744   4.618   8.560   3.448 -0.5834  0.0090 -2.6897
30311SOL    HW295745   4.707   8.683   3.446 -0.3288 -0.0366  0.5277
30312SOL     OW95746   2.656   2.443  10.323 -0.2915  0.4722  0.4177
30312SOL    HW195747   2.605   2.451  10.404 -1.2485  1.4545 -0.2506
30312SOL    HW295748   2.593   2.460  10.253  0.5279 -0.3077 -0.5486
30313SOL     OW95749   9.372   7.381   2.790 -0.6732 -0.2196 -0.0554
30313SOL    HW195750   9.422   7.384   2.709  0.6022 -1.5587  0.6443
30313SOL    HW295751   9.337   7.470   2.800 -0.2385  0.1589 -1.6752
30314SOL     OW95752  10.781   4.239  10.658 -0.2898 -0.0582  0.2031
30314SOL    HW195753  10.700   4.187  10.653  0.6300 -1.6873  1.4025
30314SOL    HW295754  10.848   4.177  10.685  1.0345  1.6061  0.9394
30315SOL     OW95755   5.069   9.439  11.255 -0.3795 -0.3062  0.0055
30315SOL    HW195756   5.059   9.387  11.335 -1.1260 -0.0808  0.0678
30315SOL    HW295757   5.050   9.378  11.184  0.7193 -0.6223 -0.0392
30316SOL     OW95758   8.875   6.706   2.965  0.3169 -0.0901 -0.3969
30316SOL    HW195759   8.894   6.643   2.896  1.9938 -2.5771  2.1126
30316SOL    HW295760   8.781   6.721   2.959 -0.3821 -3.7211 -0.5299
30317SOL     OW95761   9.870   9.810   7.300  0.5417 -0.3200 -0.2133
30317SOL    HW195762   9.811   9.790   7.372  1.1629 -0.7711  0.1794
30317SOL    HW295763   9.876   9.729   7.250  1.3180 -0.4738  0.1123
30318SOL     OW95764  11.627   2.517   9.378 -0.3067  0.1242  0.5634
30318SOL    HW195765  11.589   2.495   9.293  1.5268 -1.4319  0.0846
30318SOL    HW295766  11.585   2.599   9.403 -2.1114 -0.2578 -1.0462
30319SOL     OW95767   7.544   8.982  11.187 -0.4595  0.0078 -0.2403
30319SOL    HW195768   7.452   8.965  11.166 -0.8887 -0.7962  2.0466
30319SOL    HW295769   7.581   8.897  11.209 -0.7156  0.7923  4.2644
30320SOL     OW95770   6.615   8.853   9.577  0.1652 -0.3767  0.0018
30320SOL    HW195771   6.531   8.845   9.622  0.0074  1.7833  0.1627
30320SOL    HW295772   6.596   8.827   9.486 -0.8096  0.5337 -0.0743
30321SOL     OW95773  12.420   2.778   7.323  0.5986 -0.2470  0.5658
30321SOL    HW195774  12.404   2.869   7.298 -1.2503 -0.8940 -0.8051
30321SOL    HW295775  12.439   2.733   7.241  2.1794 -1.0257  1.3015
30322SOL     OW95776   8.494   2.733  10.867  0.9618  0.1000  0.4192
30322SOL    HW195777   8.506   2.671  10.939  1.3724 -0.2841  0.0255
30322SOL    HW295778   8.481   2.678  10.790  2.5672  0.4612 -0.1563
30323SOL     OW95779   7.550   5.643   6.603  0.3401 -0.0875  0.7404
30323SOL    HW195780   7.641   5.627   6.578  1.1957 -1.1371  3.9645
30323SOL    HW295781   7.507   5.559   6.591  0.8181 -0.6700  2.7009
30324SOL     OW95782   6.457   5.549   6.225  0.0345  0.2996  0.2267
30324SOL    HW195783   6.550   5.569   6.230 -0.0302  1.3794 -1.7711
30324SOL    HW295784   6.413   5.631   6.246 -0.3728  0.6301 -1.7461
30325SOL     OW95785   6.494   2.687   1.361  0.3438  0.0095 -0.0764
30325SOL    HW195786   6.405   2.671   1.331  0.0333 -1.0594  1.3078
30325SOL    HW295787   6.487   2.764   1.418 -0.1991 -1.4283  1.9307
30326SOL     OW95788   2.754  11.369  11.443  0.4226  0.3146 -0.5699
30326SOL    HW195789   2.776  11.306  11.512  2.2013  0.3832 -1.0121
30326SOL    HW295790   2.664  11.395  11.462  0.6675 -0.0774  1.3978
30327SOL     OW95791   7.983   0.974  12.451 -0.1964  0.4029  0.3974
30327SOL    HW195792   7.925   0.914  12.498 -0.1139  0.0081 -0.0024
30327SOL    HW295793   7.945   1.061  12.466  0.4387  0.4366  2.1286
30328SOL     OW95794   0.617   9.013  11.623  0.0035  0.4596  0.6893
30328SOL    HW195795   0.705   8.981  11.602 -0.2887  1.2520 -2.0890
30328SOL    HW295796   0.567   8.935  11.646  1.0916 -0.1553  1.0297
30329SOL     OW95797  11.340   6.057  11.163  0.2036 -0.0200  0.2317
30329SOL    HW195798  11.425   6.048  11.122  1.1142 -1.1861  2.2194
30329SOL    HW295799  11.282   6.001  11.112  0.6139  0.7134 -1.0814
30330SOL     OW95800   0.058   8.663  11.780  0.0709  0.1771  0.1689
30330SOL    HW195801   0.009   8.599  11.831  0.4884 -0.0386  0.3026
30330SOL    HW295802   0.150   8.649  11.805  0.4035 -0.6369 -1.4011
30331SOL     OW95803   2.918   5.259  10.185  0.2588 -0.3228  0.2973
30331SOL    HW195804   2.830   5.231  10.212  0.2387 -0.5752 -0.0295
30331SOL    HW295805   2.902   5.322  10.115  0.3233  0.0999  0.6552
30332SOL     OW95806   5.394  10.441   9.683 -0.5784  0.0810  0.6670
30332SOL    HW195807   5.358  10.406   9.601  0.8755 -0.4775  0.2366
30332SOL    HW295808   5.410  10.363   9.737  0.2310  0.2876  0.7344
30333SOL     OW95809   2.295   6.935   5.441  0.1882 -0.5708 -0.2559
30333SOL    HW195810   2.312   6.968   5.529 -2.0369 -1.0218  0.3966
30333SOL    HW295811   2.364   6.870   5.426  1.1299  0.1603  0.7617
30334SOL     OW95812  11.210   2.233   4.166 -0.1828 -0.2685  0.4419
30334SOL    HW195813  11.244   2.315   4.201  1.0222 -0.6316  0.1514
30334SOL    HW295814  11.172   2.189   4.243  0.3114 -0.0066  0.8426
30335SOL     OW95815  11.236   0.025   8.681  0.0909 -0.2643 -0.2135
30335SOL    HW195816  11.307   0.047   8.741 -1.3647  0.1996  1.4152
30335SOL    HW295817  11.258  -0.062   8.648  1.8805  0.2657 -0.4995
30336SOL     OW95818  11.722   1.192  11.089  0.2509 -0.1690  0.1933
30336SOL    HW195819  11.675   1.227  11.014  0.5847 -0.7054 -0.2781
30336SOL    HW295820  11.655   1.180  11.156 -0.0703  0.2093 -0.0559
30337SOL     OW95821   5.359   8.711   1.230  0.6356 -0.0665 -0.4848
30337SOL    HW195822   5.419   8.783   1.211  0.1917  0.9084  1.5750
30337SOL    HW295823   5.394   8.672   1.311  1.4095 -2.8165 -2.0157
30338SOL     OW95824   4.438   1.393   4.842  0.2439  0.1479  0.9367
30338SOL    HW195825   4.421   1.454   4.770  1.9902  0.2231  0.5449
30338SOL    HW295826   4.492   1.324   4.803 -1.8390 -1.8117  1.3329
30339SOL     OW95827  12.455  12.013   1.453 -0.1120  0.0984 -0.4231
30339SOL    HW195828  12.394  12.086   1.467  0.3260  0.7169 -1.5704
30339SOL    HW295829  12.414  11.960   1.385 -0.8300 -1.2323  0.9912
30340SOL     OW95830  11.192  10.045   8.352 -0.1657 -0.4799  0.5792
30340SOL    HW195831  11.187  10.105   8.278  2.0643  2.0607  2.3067
30340SOL    HW295832  11.112  10.061   8.401 -0.1774  0.1998  0.3516
30341SOL     OW95833   6.820   7.106  10.024 -0.5383 -0.4266 -0.1272
30341SOL    HW195834   6.779   7.025  10.053  1.3408 -0.9547  1.2047
30341SOL    HW295835   6.902   7.079   9.983  1.3568  0.8078  2.5157
30342SOL     OW95836   4.381   7.301   4.945  0.3510  0.1080  0.2270
30342SOL    HW195837   4.476   7.291   4.958  0.5391 -0.0921 -1.1120
30342SOL    HW295838   4.369   7.292   4.850 -0.9587  0.5959  0.3254
30343SOL     OW95839   6.349   8.764  10.323 -0.4841 -0.0431 -0.2454
30343SOL    HW195840   6.275   8.760  10.263 -0.5041 -1.8066 -0.1389
30343SOL    HW295841   6.419   8.716  10.280 -0.3000 -0.8045  0.8580
30344SOL     OW95842   2.059   1.048   9.892 -0.4577  0.2061 -0.4420
30344SOL    HW195843   1.986   1.108   9.908  0.2851  0.8831  0.4640
30344SOL    HW295844   2.137   1.099   9.912  0.3388 -0.2337 -2.2205
30345SOL     OW95845  10.461   8.163   8.955 -0.1262 -0.1330  0.1349
30345SOL    HW195846  10.496   8.074   8.957  0.1009 -0.0427  1.5640
30345SOL    HW295847  10.370   8.154   8.983  0.3764  0.2316  2.0782
30346SOL     OW95848   6.319  12.111   3.133 -0.4307  0.4168  0.0692
30346SOL    HW195849   6.285  12.153   3.212  0.2276  0.6946  0.2093
30346SOL    HW295850   6.244  12.109   3.074 -1.0504 -0.1662  0.8394
30347SOL     OW95851   6.525   3.526   3.293  0.2430 -0.0153 -0.1277
30347SOL    HW195852   6.464   3.582   3.341  1.0334  1.3153 -0.6470
30347SOL    HW295853   6.607   3.532   3.341  0.5114 -0.2384 -0.5456
30348SOL     OW95854   4.374   0.053  10.465 -0.3728 -0.4260 -0.6131
30348SOL    HW195855   4.303   0.002  10.427 -1.1500  0.5508 -0.5064
30348SOL    HW295856   4.413  -0.005  10.530 -2.5355 -0.2300  0.9689
30349SOL     OW95857   8.461   4.371   5.149  0.1477  0.1224  0.1763
30349SOL    HW195858   8.489   4.304   5.085 -0.8724  0.4691 -0.6583
30349SOL    HW295859   8.540   4.422   5.166  0.4719 -0.0635 -0.7151
30350SOL     OW95860   6.702   5.873   3.953 -0.4206 -0.2452  0.1559
30350SOL    HW195861   6.667   5.835   4.034  0.3841 -2.4661 -0.4580
30350SOL    HW295862   6.630   5.865   3.890 -0.6258  0.3100  0.3170
30351SOL     OW95863   2.589   4.545   8.474 -0.2749 -0.3567 -0.3096
30351SOL    HW195864   2.656   4.569   8.410  0.2076 -1.6316 -0.3292
30351SOL    HW295865   2.570   4.625   8.522  1.0828  0.0924 -0.4846
30352SOL     OW95866   8.441   1.288  11.354  0.3601  0.2271 -0.3521
30352SOL    HW195867   8.532   1.317  11.347 -0.4009  2.4586 -2.1041
30352SOL    HW295868   8.400   1.353  11.411 -0.2516 -0.4933  0.0382
30353SOL     OW95869   2.721   4.786   9.059  0.4123  0.0680  0.1881
30353SOL    HW195870   2.815   4.799   9.067  0.4316  0.5176 -0.6252
30353SOL    HW295871   2.682   4.848   9.121  0.6620 -0.8142  1.2513
30354SOL     OW95872  11.968  11.671  11.102  0.0254  0.2582 -0.3628
30354SOL    HW195873  11.939  11.668  11.011  0.8614 -2.4646 -0.6364
30354SOL    HW295874  11.972  11.765  11.123 -1.6384  0.9188 -2.6094
30355SOL     OW95875  10.705   1.795  10.544 -0.2546  0.3590  0.2669
30355SOL    HW195876  10.799   1.799  10.560 -0.2972  0.5228  0.4804
30355SOL    HW295877  10.682   1.703  10.562  0.1321 -0.0915 -1.3354
30356SOL     OW95878   7.005   8.858   4.879  0.2279 -0.1018 -0.0812
30356SOL    HW195879   7.059   8.935   4.862 -0.0230  0.0306 -0.3040
30356SOL    HW295880   6.966   8.838   4.794  0.4156 -0.5695 -0.0571
30357SOL     OW95881  12.631   0.684  10.504  0.0891  0.5586  0.3254
30357SOL    HW195882  12.659   0.711  10.416  0.4685 -0.1204  0.2360
30357SOL    HW295883  12.581   0.604  10.489 -0.4535  0.8268  0.6643
30358SOL     OW95884   1.037   1.389   3.450 -0.1990 -0.7032  0.3586
30358SOL    HW195885   1.029   1.484   3.444  0.9243 -0.4164  2.3583
30358SOL    HW295886   1.035   1.358   3.359 -0.4862  1.2266 -0.3253
30359SOL     OW95887  11.351   5.615   3.665 -0.1079 -0.2330 -0.2701
30359SOL    HW195888  11.341   5.636   3.758  1.0614 -0.8436  0.0075
30359SOL    HW295889  11.280   5.664   3.623 -1.3487 -0.8014  1.0500
30360SOL     OW95890  10.085  10.342   8.475  0.0744  0.9474 -0.5863
30360SOL    HW195891  10.165  10.358   8.526  0.2798 -0.1318 -0.5603
30360SOL    HW295892  10.079  10.418   8.417  0.5550  1.5466  0.1180
30361SOL     OW95893   8.719   3.630   4.346  0.1431  0.3166 -0.3412
30361SOL    HW195894   8.696   3.538   4.355 -1.2149  0.5098 -1.4351
30361SOL    HW295895   8.734   3.660   4.436 -0.7302 -0.6551  0.1488
30362SOL     OW95896   9.365  12.322   8.156  0.4703  0.6005  0.0720
30362SOL    HW195897   9.402  12.384   8.093  0.9522  2.6943  2.2625
30362SOL    HW295898   9.277  12.355   8.174 -0.0025 -0.4975 -0.1552
30363SOL     OW95899   3.895   4.230  12.291 -0.5571  0.1164  0.3433
30363SOL    HW195900   3.838   4.241  12.215  0.2422 -0.9288 -0.4393
30363SOL    HW295901   3.836   4.226  12.365 -1.3327  1.7788 -0.1251
30364SOL     OW95902  12.620   4.717  11.791  0.0630 -0.2538  0.1117
30364SOL    HW195903  12.627   4.801  11.746  0.4693 -1.9491 -3.2883
30364SOL    HW295904  12.694   4.715  11.852  1.6079  0.8035 -1.6658
30365SOL     OW95905   5.381   3.716   0.048  0.0938 -0.6249  0.5636
30365SOL    HW195906   5.393   3.690   0.139  0.6451 -2.7313 -0.0688
30365SOL    HW295907   5.469   3.720   0.012  0.1389  2.9279  0.7345
30366SOL     OW95908   7.693   0.305   8.772  0.4959  0.0041 -0.1314
30366SOL    HW195909   7.770   0.247   8.777  1.8851  1.8012  0.6098
30366SOL    HW295910   7.728   0.392   8.794 -1.7781  0.8788  0.2242
30367SOL     OW95911   7.848   0.628   3.297  0.2319  0.2333  0.4397
30367SOL    HW195912   7.931   0.666   3.326 -0.7524  1.5933  1.6553
30367SOL    HW295913   7.810   0.694   3.239  0.1869 -0.5788 -0.4836
30368SOL     OW95914   7.265   2.729   6.646 -0.2895 -0.1914 -0.2020
30368SOL    HW195915   7.338   2.729   6.583  0.3600  1.6930  0.4876
30368SOL    HW295916   7.192   2.768   6.599 -0.0983  0.2731 -0.1201
30369SOL     OW95917   3.510   8.321  11.622 -0.2946 -0.3463 -0.7000
30369SOL    HW195918   3.416   8.316  11.641  0.0030  1.9745  2.0915
30369SOL    HW295919   3.519   8.388  11.555 -0.6548 -1.3243 -1.7548
30370SOL     OW95920   9.651   9.385   3.232 -0.6118  0.2524  0.4113
30370SOL    HW195921   9.694   9.302   3.254  1.3590  1.4392  1.2490
30370SOL    HW295922   9.600   9.407   3.310 -0.4404  0.2803  0.5142
30371SOL     OW95923  11.297   3.856  11.317 -0.5274  0.4402 -0.7221
30371SOL    HW195924  11.360   3.785  11.333 -1.0732  0.5964  3.0729
30371SOL    HW295925  11.350   3.925  11.276  1.8540  0.3956  1.8982
30372SOL     OW95926   6.308   3.191   3.414 -0.4983 -0.3418 -0.1805
30372SOL    HW195927   6.392   3.183   3.458 -0.4556 -1.0386 -0.3778
30372SOL    HW295928   6.325   3.246   3.338  0.1202 -1.6736 -1.0423
30373SOL     OW95929   9.620   0.204   3.622  0.5184 -0.3719 -0.1198
30373SOL    HW195930   9.666   0.179   3.543  2.3124 -0.1274  0.8031
30373SOL    HW295931   9.659   0.150   3.691 -1.9057 -1.5524  0.4412
30374SOL     OW95932  10.615   4.420  11.177 -0.1095 -0.3245  0.0898
30374SOL    HW195933  10.590   4.469  11.256 -2.8045 -2.7797  0.9186
30374SOL    HW295934  10.675   4.353  11.209  1.3812  0.6244 -0.5911
30375SOL     OW95935   7.055   4.545   5.413  0.0512  0.1821 -0.2781
30375SOL    HW195936   7.074   4.612   5.479  1.5951 -2.7859  2.5675
30375SOL    HW295937   6.967   4.515   5.435  0.8689 -1.3614  1.0842
30376SOL     OW95938   1.746  11.610   0.296  0.1666  0.3406  0.8125
30376SOL    HW195939   1.671  11.598   0.354 -1.9709  0.9478 -1.6483
30376SOL    HW295940   1.771  11.702   0.307 -1.5387  1.0147 -0.6135
30377SOL     OW95941   0.278   1.973   5.287 -0.4674  0.1476 -0.3182
30377SOL    HW195942   0.294   1.893   5.237  1.3045 -0.1495  0.6543
30377SOL    HW295943   0.303   2.044   5.227 -0.8638 -0.0738 -0.7509
30378SOL     OW95944   9.786   8.238   7.319 -0.7747 -0.8779 -0.2120
30378SOL    HW195945   9.846   8.266   7.250 -1.0191  0.7292  0.2007
30378SOL    HW295946   9.705   8.216   7.273 -0.6297 -0.7508 -0.5288
30379SOL     OW95947   2.328   0.307   5.135  0.3476  0.4309 -0.5061
30379SOL    HW195948   2.380   0.358   5.074 -1.6685  2.3347 -0.7899
30379SOL    HW295949   2.312   0.366   5.208  0.2164 -0.7728  0.4765
30380SOL     OW95950  10.631   7.225   2.602 -0.5574  0.6329  0.0608
30380SOL    HW195951  10.557   7.231   2.663 -0.5464 -0.6449  0.2268
30380SOL    HW295952  10.672   7.140   2.622  1.3572  1.5724  0.4304
30381SOL     OW95953   0.026   7.216   1.364  0.2464 -0.5280  1.2394
30381SOL    HW195954   0.052   7.160   1.437  1.7099  1.6733  2.5626
30381SOL    HW295955   0.109   7.253   1.332 -0.6634  1.4971  1.0293
30382SOL     OW95956  10.078   2.433   9.531  0.5069 -0.1304  0.0114
30382SOL    HW195957  10.096   2.341   9.550 -0.8941 -0.1170  1.6418
30382SOL    HW295958  10.008   2.430   9.465 -1.3968 -0.3273  1.9394
30383SOL     OW95959   8.181   4.001  11.969 -0.4019 -0.3491  0.5178
30383SOL    HW195960   8.198   4.073  11.908  0.0154 -0.0880  0.9455
30383SOL    HW295961   8.254   4.003  12.030  1.2870 -2.9783 -1.1847
30384SOL     OW95962  10.628   7.670   2.272  0.2142  0.0781  0.0965
30384SOL    HW195963  10.715   7.632   2.257  0.2934 -0.2804  1.2840
30384SOL    HW295964  10.572   7.594   2.289 -0.4372  0.2811 -1.0582
30385SOL     OW95965   3.908   3.987   0.498 -0.1082 -0.1142 -0.1437
30385SOL    HW195966   3.959   3.961   0.421  2.4724  2.7195  0.3825
30385SOL    HW295967   3.952   3.945   0.571 -0.1548  0.2285  0.0846
30386SOL     OW95968  12.310   1.858  10.258  0.2526  0.0434  0.0703
30386SOL    HW195969  12.307   1.930  10.195  0.3885 -0.5943 -0.6696
30386SOL    HW295970  12.268   1.785  10.214  0.5263 -0.4701  0.6490
30387SOL     OW95971   4.326   4.269   2.328 -0.3087 -0.2216  0.0025
30387SOL    HW195972   4.322   4.352   2.375 -2.5554 -1.4440  2.1773
30387SOL    HW295973   4.403   4.224   2.363  0.1417  0.3656 -0.2191
30388SOL     OW95974   9.324   5.725   2.456  0.0434  0.4235  0.4279
30388SOL    HW195975   9.391   5.689   2.513  0.6933 -1.0488 -1.1952
30388SOL    HW295976   9.365   5.800   2.414  0.0400  0.6382  0.8030
30389SOL     OW95977   0.005   6.200  11.010 -0.3314 -0.1957 -0.5975
30389SOL    HW195978  -0.028   6.110  11.019 -1.4667 -0.0584 -2.7088
30389SOL    HW295979  -0.074   6.254  11.012  0.3621  0.8216  0.8372
30390SOL     OW95980  12.615   6.099   2.538  0.6357  0.2734  0.5217
30390SOL    HW195981  12.665   6.136   2.465  0.5544  0.8265  0.7413
30390SOL    HW295982  12.615   6.005   2.522  2.7251  0.1297  1.1344
30391SOL     OW95983   0.792   4.631   9.812  0.2997  0.7381 -0.4172
30391SOL    HW195984   0.876   4.586   9.817  0.9235  1.9312  0.1897
30391SOL    HW295985   0.805   4.701   9.748 -0.0675  1.2477  0.0516
30392SOL     OW95986  11.028   0.710   9.231  0.6368 -0.6768  0.1919
30392SOL    HW195987  10.957   0.649   9.209  0.2928  0.5745 -2.5695
30392SOL    HW295988  11.102   0.654   9.254 -0.3182 -2.0764 -0.0436
30393SOL     OW95989   8.630   9.400   6.711  0.4348 -0.4878  0.6601
30393SOL    HW195990   8.600   9.310   6.725 -0.2034 -0.3783  0.0462
30393SOL    HW295991   8.683   9.395   6.632 -0.4810 -0.1437  0.0117
30394SOL     OW95992   7.956  12.245  11.060  0.5507  0.4049 -0.4717
30394SOL    HW195993   7.974  12.156  11.092 -1.9477 -1.4452 -3.6140
30394SOL    HW295994   8.041  12.276  11.027  1.9318  0.1675  2.5043
30395SOL     OW95995   4.287   1.639   5.397 -0.1886 -0.1208 -0.4269
30395SOL    HW195996   4.335   1.683   5.326  0.1535  0.4412  0.1399
30395SOL    HW295997   4.197   1.633   5.365 -0.3369  1.3829 -0.3509
30396SOL     OW95998  11.712   2.998   0.416 -0.4678  0.0474  0.8364
30396SOL    HW195999  11.750   2.943   0.486  1.6131  0.4089  0.0758
30396SOL    HW296000  11.685   2.936   0.349  0.4437 -0.1651  0.6470
30397SOL     OW96001  10.796   6.652  10.922  0.0812  0.3188 -0.3581
30397SOL    HW196002  10.792   6.747  10.936  1.2903  0.4768 -0.9988
30397SOL    HW296003  10.729   6.617  10.980  1.9558  1.2823  2.5903
30398SOL     OW96004   1.046  11.899  12.395 -0.0841  0.0907 -0.0668
30398SOL    HW196005   1.118  11.955  12.365 -0.3187 -0.6656 -2.2464
30398SOL    HW296006   1.008  11.946  12.469  1.2506  1.5979 -0.2742
30399SOL     OW96007  11.680   9.157   7.820 -0.0250 -0.1757  0.2340
30399SOL    HW196008  11.730   9.159   7.902 -0.8669 -0.8313  0.7811
30399SOL    HW296009  11.743   9.133   7.753  0.0723 -2.7885  1.1761
30400SOL     OW96010   3.769  11.846   1.446  0.3956 -0.3360 -0.4397
30400SOL    HW196011   3.746  11.930   1.405 -0.3054  0.3905  1.3576
30400SOL    HW296012   3.864  11.843   1.441  0.4098  0.3851 -0.8605
30401SOL     OW96013   3.929  11.574   1.916  0.1824 -0.3498  0.5901
30401SOL    HW196014   3.987  11.519   1.969 -0.2667 -0.9269  0.4947
30401SOL    HW296015   3.978  11.588   1.835  0.9813  0.7584  1.2447
30402SOL     OW96016   2.452   7.797   8.504 -0.2602  0.1055 -0.3779
30402SOL    HW196017   2.460   7.705   8.479 -1.4800 -0.1362  0.0274
30402SOL    HW296018   2.492   7.801   8.591 -2.1003 -0.5521  0.5684
30403SOL     OW96019  10.754   5.446   9.727  0.1110 -0.2455  0.2124
30403SOL    HW196020  10.708   5.487   9.654 -0.6624 -1.8960 -0.2701
30403SOL    HW296021  10.767   5.517   9.790 -1.0097  0.7688 -0.6563
30404SOL     OW96022   6.161   9.033   2.537  0.1362 -0.1833  0.2674
30404SOL    HW196023   6.083   9.040   2.593  0.9169 -1.0354  1.5231
30404SOL    HW296024   6.168   9.118   2.495 -0.4159  0.5542  1.5827
30405SOL     OW96025  12.054   7.377  10.518  0.3734  0.5549 -0.4163
30405SOL    HW196026  11.991   7.401  10.586 -0.3271 -0.1232 -0.7991
30405SOL    HW296027  12.099   7.300  10.553  1.1764  1.1917 -0.0370
30406SOL     OW96028  10.077   1.101   0.634 -0.0941 -0.0730 -0.2606
30406SOL    HW196029  10.134   1.154   0.579 -0.5019  0.2079 -0.4161
30406SOL    HW296030  10.136   1.056   0.694  0.3765 -0.5538 -1.0694
30407SOL     OW96031   3.045   9.386   5.846 -0.0001  0.0627  0.0238
30407SOL    HW196032   3.119   9.360   5.900 -0.6466 -0.0341  0.8803
30407SOL    HW296033   2.979   9.417   5.908 -1.1163 -0.9050 -0.6308
30408SOL     OW96034   1.634   5.910  10.922  0.5099  0.7212  0.4521
30408SOL    HW196035   1.576   5.919  10.998  1.5476 -0.0354  1.3756
30408SOL    HW296036   1.700   5.978  10.934  0.5324  0.7648  0.0888
30409SOL     OW96037   9.381   5.327   3.977 -0.2808 -0.1524 -0.1697
30409SOL    HW196038   9.426   5.297   4.056  0.3839  0.6753 -0.2085
30409SOL    HW296039   9.452   5.349   3.916 -0.7378  0.9700 -0.3175
30410SOL     OW96040   3.678   6.378   3.768 -0.0369  0.2653  0.5740
30410SOL    HW196041   3.637   6.381   3.855 -0.1433  1.7398  0.4950
30410SOL    HW296042   3.763   6.421   3.780  0.4047 -0.4827  0.1727
30411SOL     OW96043   6.008   0.539   1.877  0.0863 -0.0826 -0.5325
30411SOL    HW196044   6.017   0.444   1.869 -0.9604 -0.1876 -0.5656
30411SOL    HW296045   5.991   0.554   1.970  2.6075  0.3058 -0.0606
30412SOL     OW96046   4.795  11.197   6.590 -0.0571 -0.2646 -0.0423
30412SOL    HW196047   4.748  11.280   6.576 -1.6919 -1.1936 -0.3476
30412SOL    HW296048   4.813  11.165   6.501  0.1185 -0.4758  0.0698
30413SOL     OW96049   9.373   0.441  12.343  0.1351  0.3862 -0.0807
30413SOL    HW196050   9.279   0.441  12.359  0.2757  0.5522  0.8163
30413SOL    HW296051   9.382   0.416  12.251 -0.9075  2.9209 -0.9638
30414SOL     OW96052   4.578   1.756  12.031 -0.7316  0.2166 -0.5333
30414SOL    HW196053   4.512   1.689  12.052 -0.4213  0.4579  1.3417
30414SOL    HW296054   4.649   1.707  11.990 -0.9946 -0.4272 -0.2366
30415SOL     OW96055   0.168   6.404   8.528  0.5262 -0.7295 -0.7008
30415SOL    HW196056   0.253   6.363   8.545  0.3347 -1.1111 -0.6637
30415SOL    HW296057   0.134   6.359   8.451  0.2118 -0.8075 -0.5211
30416SOL     OW96058   0.447   7.935   5.964 -0.7425 -0.6120 -0.6702
30416SOL    HW196059   0.433   7.985   6.044  1.5489 -0.1160 -0.5271
30416SOL    HW296060   0.366   7.885   5.953 -1.6757  0.3917  1.1439
30417SOL     OW96061   0.247  11.790   0.393 -0.1727  0.5733  0.2681
30417SOL    HW196062   0.254  11.882   0.368 -1.3322  0.7099  0.4095
30417SOL    HW296063   0.237  11.743   0.310  2.6117  0.3002 -0.0045
30418SOL     OW96064   2.276   9.907   8.924 -0.3506 -0.1548 -0.9793
30418SOL    HW196065   2.226   9.826   8.936 -0.8652 -0.0371 -2.1528
30418SOL    HW296066   2.221   9.975   8.961 -0.2030 -0.2612 -0.5625
30419SOL     OW96067  10.679   2.724   5.839 -0.0234  0.4496 -0.0137
30419SOL    HW196068  10.760   2.760   5.803  0.1347  1.1536  1.0004
30419SOL    HW296069  10.618   2.798   5.838 -0.9561 -0.2906 -1.5883
30420SOL     OW96070   7.592   1.971   8.280 -0.0175 -0.0497  0.3644
30420SOL    HW196071   7.673   1.957   8.329 -0.0826 -1.2198  0.1714
30420SOL    HW296072   7.573   1.886   8.242 -1.2823  0.2507  0.3059
30421SOL     OW96073   0.890   9.372   7.651 -0.0940 -0.4352  0.0795
30421SOL    HW196074   0.811   9.414   7.617 -0.0617 -0.1001  0.4099
30421SOL    HW296075   0.902   9.410   7.738 -0.0608 -1.1338  0.3860
30422SOL     OW96076   8.755  12.029   0.511 -0.0543 -0.5160 -0.2159
30422SOL    HW196077   8.674  12.064   0.475  0.4323  1.0810  0.1277
30422SOL    HW296078   8.739  12.026   0.606 -0.5815 -2.6514 -0.3313
30423SOL     OW96079   0.902  10.815   2.136  0.3357 -0.1750  0.0696
30423SOL    HW196080   0.876  10.907   2.138 -0.1845 -0.3256  0.7286
30423SOL    HW296081   0.944  10.803   2.051 -2.3911 -0.0953 -1.4063
30424SOL     OW96082   2.849   3.619  12.011  0.3042  0.3309 -0.5763
30424SOL    HW196083   2.925   3.561  12.019 -1.7436 -2.6296 -0.7046
30424SOL    HW296084   2.881   3.705  12.038  3.4741 -0.9111  0.0833
30425SOL     OW96085   8.452   7.490   8.451 -0.3155  0.9002 -0.7452
30425SOL    HW196086   8.543   7.490   8.421 -0.0941 -1.8364 -0.3690
30425SOL    HW296087   8.402   7.459   8.375 -0.3288 -1.6799  0.2309
30426SOL     OW96088   6.368   2.499  11.657 -0.6810  0.5987  0.1520
30426SOL    HW196089   6.424   2.465  11.727 -0.6048  0.8280  0.2047
30426SOL    HW296090   6.328   2.421  11.619  1.6638  0.1229 -1.6039
30427SOL     OW96091   1.016   2.313   9.182 -0.5867 -0.0206  0.4704
30427SOL    HW196092   1.048   2.276   9.100 -1.1972 -0.8369  0.5856
30427SOL    HW296093   0.922   2.299   9.180 -0.8433  1.4953  0.5607
30428SOL     OW96094  11.696   4.599   3.471 -0.8876  0.4347 -0.3486
30428SOL    HW196095  11.705   4.690   3.498 -0.4313  0.5319 -0.8225
30428SOL    HW296096  11.605   4.590   3.443 -1.3693  0.3520  1.1285
30429SOL     OW96097   5.646   9.055  11.111  0.1684  0.1948  0.1127
30429SOL    HW196098   5.725   9.004  11.091 -0.1720 -0.7072  0.9855
30429SOL    HW296099   5.582   9.027  11.046  0.0642 -0.2966  0.4261
30430SOL     OW96100   0.520   8.700   5.542 -0.4629  0.5974 -0.5805
30430SOL    HW196101   0.491   8.621   5.497  1.2319 -0.4242  0.0223
30430SOL    HW296102   0.614   8.705   5.524 -0.1161  1.2369  1.1859
30431SOL     OW96103   0.896   1.138   4.473 -0.0552  0.3608 -0.3436
30431SOL    HW196104   0.851   1.222   4.465 -1.0184 -0.2481 -1.7026
30431SOL    HW296105   0.860   1.098   4.551 -0.1862  0.8621 -0.1418
30432SOL     OW96106   8.465   2.395   0.324  0.1141 -0.3438  0.0883
30432SOL    HW196107   8.465   2.376   0.230  1.0332 -0.9307  0.1989
30432SOL    HW296108   8.549   2.362   0.355  0.0793  0.4044  1.0121
30433SOL     OW96109   5.606   4.131  11.449 -0.1366  0.3344 -0.4199
30433SOL    HW196110   5.536   4.066  11.437 -0.4444  0.6069 -0.1401
30433SOL    HW296111   5.575   4.186  11.521 -0.0518  1.0281 -0.9051
30434SOL     OW96112   8.147   7.372   5.643  0.5916 -0.1835 -0.2037
30434SOL    HW196113   8.127   7.295   5.589 -1.1540  0.9766 -1.3368
30434SOL    HW296114   8.208   7.423   5.590  0.6632 -0.1147 -0.0569
30435SOL     OW96115   2.959   6.261   1.065 -0.2443 -0.0759 -0.0645
30435SOL    HW196116   2.922   6.183   1.106  0.2585 -0.0119  0.5336
30435SOL    HW296117   3.043   6.233   1.030  0.0580  0.2463  0.3814
30436SOL     OW96118   7.838   7.386   2.215 -0.0202  0.2184 -0.0476
30436SOL    HW196119   7.836   7.391   2.120 -2.1760  0.3228 -0.0541
30436SOL    HW296120   7.798   7.301   2.236  0.4884  0.1656  0.7546
30437SOL     OW96121  11.791   8.571  11.995 -0.0362  0.1033 -0.0240
30437SOL    HW196122  11.786   8.614  11.909 -1.1285  1.4176  0.6626
30437SOL    HW296123  11.740   8.491  11.984  0.1500  0.0654 -0.6973
30438SOL     OW96124   9.808   7.519   0.512  0.0870  0.0491  0.1940
30438SOL    HW196125   9.799   7.427   0.485  0.0200 -0.4125  1.7007
30438SOL    HW296126   9.786   7.519   0.605  3.1036  1.0508  1.0207
30439SOL     OW96127  11.477   2.546  10.933 -0.5399 -0.0136 -0.1067
30439SOL    HW196128  11.567   2.579  10.935 -0.5328 -0.0475  0.9005
30439SOL    HW296129  11.438   2.587  10.856  0.3033  0.0861 -0.4998
30440SOL     OW96130  12.617   1.374   7.940 -0.1909 -0.5228 -0.4194
30440SOL    HW196131  12.535   1.408   7.902 -0.1145 -1.3344 -1.3253
30440SOL    HW296132  12.610   1.279   7.932  0.2985 -0.6613  0.6564
30441SOL     OW96133   3.320   8.380   4.840  0.1684 -0.2927 -0.1019
30441SOL    HW196134   3.290   8.458   4.887  0.0010  0.1168 -0.8789
30441SOL    HW296135   3.414   8.393   4.830 -0.0780  0.5439 -1.5486
30442SOL     OW96136   4.717   7.633   3.525  0.3405 -0.5112 -0.2022
30442SOL    HW196137   4.783   7.692   3.561 -0.5507  0.5502 -0.2496
30442SOL    HW296138   4.673   7.684   3.457 -0.3151 -1.3027 -0.3985
30443SOL     OW96139   2.287   3.677  10.011 -0.3009  0.0587  0.4798
30443SOL    HW196140   2.304   3.757   9.961 -0.2701  1.2396  2.2557
30443SOL    HW296141   2.364   3.622   9.995 -0.2551  0.4274 -0.6643
30444SOL     OW96142   9.204   6.002   0.908  0.3614  0.4202  0.2055
30444SOL    HW196143   9.237   6.044   0.988 -0.0847  1.1769 -0.0053
30444SOL    HW296144   9.118   5.970   0.932  0.1008  0.9172 -0.0571
30445SOL     OW96145   0.113   8.417   0.141 -0.0767  0.0174  0.8545
30445SOL    HW196146   0.056   8.385   0.071 -0.6652  0.7351  0.9888
30445SOL    HW296147   0.175   8.475   0.096  0.1893 -0.3084  0.7925
30446SOL     OW96148  12.294   0.609  10.425 -0.7289  0.2653 -0.4193
30446SOL    HW196149  12.319   0.698  10.400 -1.3259 -0.2203 -3.0179
30446SOL    HW296150  12.292   0.561  10.343 -0.7247 -2.0992  0.8962
30447SOL     OW96151   6.347   3.783   9.277  0.2516 -0.7700  0.1485
30447SOL    HW196152   6.342   3.700   9.230 -1.5211 -0.7809  0.2808
30447SOL    HW296153   6.359   3.849   9.208  0.0591 -0.9978 -0.1066
30448SOL     OW96154   3.800   3.946   3.022 -0.4653 -0.3940 -0.3263
30448SOL    HW196155   3.724   3.991   3.060  1.0708  1.4022  0.7795
30448SOL    HW296156   3.779   3.939   2.928 -1.3714  1.3919 -0.2938
30449SOL     OW96157   8.151   2.731   9.496  0.3414  0.5227  0.1568
30449SOL    HW196158   8.059   2.740   9.522 -0.2784 -1.9521 -0.8235
30449SOL    HW296159   8.183   2.656   9.547  1.6074  0.9255 -0.0114
30450SOL     OW96160   9.552  11.119   8.541  1.1126 -0.0232  0.1305
30450SOL    HW196161   9.629  11.176   8.544  1.5754 -0.6603  0.8083
30450SOL    HW296162   9.558  11.073   8.457  0.1417  1.6858 -0.9482
30451SOL     OW96163   4.900  11.425   7.688 -0.0324  0.1406  0.1287
30451SOL    HW196164   4.885  11.519   7.685 -1.6857 -0.1123 -0.7777
30451SOL    HW296165   4.918  11.401   7.597 -0.0013 -0.4657  0.2930
30452SOL     OW96166   1.750   5.397   9.876 -0.3929  0.0885 -0.3515
30452SOL    HW196167   1.757   5.414   9.970  0.0134  0.6114 -0.4690
30452SOL    HW296168   1.803   5.466   9.835 -2.0707  1.0104 -1.0539
30453SOL     OW96169   9.587   5.172   2.901  0.9553 -0.5519  0.6018
30453SOL    HW196170   9.515   5.132   2.950  0.1299  0.4398  0.2249
30453SOL    HW296171   9.665   5.152   2.953  0.5521 -2.4306  0.5465
30454SOL     OW96172   3.759   1.588  11.670 -0.1684  0.0948 -0.1645
30454SOL    HW196173   3.694   1.524  11.699 -0.9461  1.9534  2.6044
30454SOL    HW296174   3.794   1.625  11.751  3.2143  0.3758 -1.5760
30455SOL     OW96175   1.223  12.188   5.307  0.0031 -0.2846 -0.3461
30455SOL    HW196176   1.269  12.140   5.375  0.6582 -0.5760 -0.9783
30455SOL    HW296177   1.266  12.162   5.226 -1.6655 -1.0619 -1.0498
30456SOL     OW96178   8.289  10.631   8.787  0.0896 -0.3973 -0.6071
30456SOL    HW196179   8.285  10.683   8.706 -0.3211 -1.5704 -1.3612
30456SOL    HW296180   8.332  10.689   8.849 -0.7785  1.0406 -1.2698
30457SOL     OW96181   1.571  12.415   0.396 -0.2020 -0.2713 -0.1137
30457SOL    HW196182   1.641  12.478   0.415 -1.2497  0.7540  0.4525
30457SOL    HW296183   1.507  12.429   0.465 -0.9821 -1.1868 -0.6356
30458SOL     OW96184   0.220   6.804   3.987 -0.1851  0.2289  0.0919
30458SOL    HW196185   0.157   6.866   4.023  0.2790  0.9229 -0.2642
30458SOL    HW296186   0.180   6.718   4.000 -1.1328  0.6451  0.0041
30459SOL     OW96187  10.984   5.122   3.652 -0.1773 -0.4723  0.3500
30459SOL    HW196188  11.004   5.213   3.633 -0.8558 -0.1752  1.0193
30459SOL    HW296189  10.891   5.112   3.633  0.3004 -1.5766 -1.7261
30460SOL     OW96190   2.771  11.647   4.510 -0.4252 -0.6280 -0.5746
30460SOL    HW196191   2.738  11.557   4.508 -0.4904 -0.6519  0.7368
30460SOL    HW296192   2.814  11.658   4.425 -0.8866 -1.7070 -0.9790
30461SOL     OW96193  11.566   6.009   8.100  0.2395 -0.2854  0.4045
30461SOL    HW196194  11.559   5.957   8.180  1.3882  0.5178  1.0546
30461SOL    HW296195  11.561   5.945   8.030 -0.1656 -1.0762  1.1274
30462SOL     OW96196   8.363   8.607   3.517  0.0263 -0.0963  0.3079
30462SOL    HW196197   8.300   8.667   3.475  0.7617 -0.8231 -2.0089
30462SOL    HW296198   8.314   8.525   3.528 -0.0252 -0.0496  0.4247
30463SOL     OW96199   8.971   4.476   5.202  0.2823  0.3157  0.4491
30463SOL    HW196200   9.019   4.559   5.201 -1.4012  1.3459  1.1076
30463SOL    HW296201   8.990   4.439   5.289  1.2778 -0.1878  0.0436
30464SOL     OW96202   6.208   2.093   4.283  0.0231 -0.3836 -0.2404
30464SOL    HW196203   6.201   2.000   4.263 -2.0083 -0.5494  1.0208
30464SOL    HW296204   6.273   2.097   4.353 -0.2091 -0.9010  0.0072
30465SOL     OW96205   2.659   4.868   6.607 -0.2468  0.0332  0.2246
30465SOL    HW196206   2.697   4.949   6.640  1.3765 -0.1336 -1.1123
30465SOL    HW296207   2.648   4.813   6.685 -0.1248  1.0336  0.9637
30466SOL     OW96208   6.690   7.067  10.721 -0.4160  0.0564 -0.9317
30466SOL    HW196209   6.623   7.111  10.669  1.3043  2.5156 -1.2303
30466SOL    HW296210   6.769   7.071  10.666  0.0952 -2.5705 -0.5257
30467SOL     OW96211  10.436   0.808   9.521 -0.0492  0.8375 -0.2540
30467SOL    HW196212  10.401   0.894   9.543 -0.1484  0.8810 -0.5794
30467SOL    HW296213  10.486   0.782   9.598 -0.4677  0.9483  0.0581
30468SOL     OW96214   2.577  12.502   8.132 -0.0936 -0.2336 -0.6540
30468SOL    HW196215   2.617  12.493   8.218  0.3717 -0.6249 -0.9016
30468SOL    HW296216   2.483  12.490   8.147 -0.0572  0.1028 -0.1504
30469SOL     OW96217   1.373   9.454   3.456  0.1007  0.2283 -0.4731
30469SOL    HW196218   1.322   9.457   3.375 -1.7675  0.1680  0.6285
30469SOL    HW296219   1.310   9.425   3.522  1.8193 -0.7011  0.8330
30470SOL     OW96220  11.005   3.923  11.354 -0.4888  0.2104 -0.2782
30470SOL    HW196221  10.934   3.884  11.303  0.1947 -0.2083 -0.9268
30470SOL    HW296222  11.084   3.881  11.321 -0.0176 -0.0563  1.1085
30471SOL     OW96223  10.175   1.612   9.227 -0.3232 -0.0824 -0.0203
30471SOL    HW196224  10.216   1.693   9.195  0.5071 -0.5342 -0.1039
30471SOL    HW296225  10.096   1.642   9.272  0.5576  0.8719  0.9278
30472SOL     OW96226   4.754   1.664   1.291  0.3622  0.0582  0.0457
30472SOL    HW196227   4.715   1.628   1.212 -0.3650  0.5108  0.1896
30472SOL    HW296228   4.685   1.658   1.357  0.8925 -0.1351  0.5988
30473SOL     OW96229  12.344  12.557   2.754  0.0271  0.2814 -0.4429
30473SOL    HW196230  12.261  12.514   2.773  0.5958 -0.6485 -0.0123
30473SOL    HW296231  12.387  12.565   2.839  0.1917  1.1650 -0.6015
30474SOL     OW96232   0.264   9.091   8.119 -0.3942  0.0544 -0.2964
30474SOL    HW196233   0.256   9.146   8.041 -2.1537 -0.2498 -0.3822
30474SOL    HW296234   0.184   9.038   8.119  0.3379 -1.1054  0.8470
30475SOL     OW96235   7.550   7.393   6.193  0.1284 -0.1858 -0.0571
30475SOL    HW196236   7.522   7.353   6.111 -0.2749  0.3331 -0.1845
30475SOL    HW296237   7.645   7.383   6.195  0.6304  2.7935 -2.2791
30476SOL     OW96238   9.779  12.134   0.366 -0.2474 -0.2238 -0.3825
30476SOL    HW196239   9.867  12.143   0.329 -0.0457  0.6152  0.2727
30476SOL    HW296240   9.730  12.086   0.299 -0.1239  1.9857 -2.1735
30477SOL     OW96241   3.955  11.160   5.867 -0.2068 -0.1037 -0.4448
30477SOL    HW196242   3.965  11.198   5.779  0.5404  1.1273  0.1370
30477SOL    HW296243   3.861  11.163   5.884 -0.6353 -2.3235 -2.0014
30478SOL     OW96244   8.649   5.912  12.058 -0.0061  0.3437  0.6731
30478SOL    HW196245   8.587   5.843  12.032 -1.3363  1.7092  0.0594
30478SOL    HW296246   8.727   5.865  12.087 -0.0231 -1.3972 -1.8238
30479SOL     OW96247   9.910   1.611  10.699 -0.9472  0.5059 -0.0667
30479SOL    HW196248   9.927   1.539  10.760  0.3166  0.5237 -0.3811
30479SOL    HW296249   9.876   1.569  10.620 -1.0010  0.3370  0.0454
30480SOL     OW96250   7.013   2.321  10.140  0.0097  0.0949 -0.0972
30480SOL    HW196251   6.963   2.402  10.149 -1.2395 -0.7643  1.2344
30480SOL    HW296252   7.087   2.331  10.200 -0.5093  0.0008  0.5670
30481SOL     OW96253  11.847   5.395   6.260 -0.4458  0.2082 -0.0394
30481SOL    HW196254  11.802   5.311   6.249  0.9445 -0.5787  0.0970
30481SOL    HW296255  11.818   5.447   6.185 -1.3120 -0.3799 -0.1362
30482SOL     OW96256   1.816   9.996   9.129  0.0953 -0.1725  0.2298
30482SOL    HW196257   1.854  10.073   9.171 -2.3404 -0.0579  2.5351
30482SOL    HW296258   1.826   9.926   9.194 -1.2678 -0.7497 -0.1407
30483SOL     OW96259  11.763   8.381   1.091  0.2535 -0.1943  0.4087
30483SOL    HW196260  11.775   8.467   1.129 -0.0518  0.1416 -0.2385
30483SOL    HW296261  11.691   8.391   1.029  1.7721 -0.2921 -1.4857
30484SOL     OW96262   5.008   6.352   9.504 -0.3350  0.4365  0.9359
30484SOL    HW196263   4.916   6.376   9.511 -0.3076  0.8790 -0.0906
30484SOL    HW296264   5.024   6.344   9.410  0.2183 -1.4322  1.1477
30485SOL     OW96265   7.765   1.124   6.677  0.0458  0.4045  0.1550
30485SOL    HW196266   7.704   1.143   6.748 -1.7937 -1.9583 -0.6626
30485SOL    HW296267   7.850   1.119   6.719 -0.9540 -0.6918  2.1889
30486SOL     OW96268   3.857   1.132   3.391  0.1269  0.6443 -0.1600
30486SOL    HW196269   3.775   1.084   3.376  0.4971 -0.2177  0.4934
30486SOL    HW296270   3.832   1.202   3.452 -0.4370  1.3658 -1.1901
30487SOL     OW96271   9.821  11.890   9.675  0.5507 -0.2899 -0.2491
30487SOL    HW196272   9.852  11.804   9.646  0.0613 -0.9416  1.0652
30487SOL    HW296273   9.770  11.871   9.754  0.9028  1.2705  0.3789
30488SOL     OW96274   5.975   4.447   5.526 -0.7418 -0.1827  0.2439
30488SOL    HW196275   5.966   4.391   5.449 -0.8517  0.1293  0.0282
30488SOL    HW296276   5.917   4.521   5.509  1.0689  1.1371 -0.4908
30489SOL     OW96277   3.521   9.645   2.514  0.6682  0.3019  0.0228
30489SOL    HW196278   3.499   9.679   2.600 -1.1221 -1.2663  0.2481
30489SOL    HW296279   3.615   9.630   2.517  1.0494  2.5440  0.8249
30490SOL     OW96280   1.274   3.294   5.663  0.5584  0.3223 -0.5482
30490SOL    HW196281   1.272   3.277   5.757 -0.3419  0.1820 -0.5757
30490SOL    HW296282   1.262   3.389   5.655  0.3345  0.2960 -0.5270
30491SOL     OW96283   9.240  11.883  11.034  0.0701 -0.1172 -0.1047
30491SOL    HW196284   9.303  11.954  11.041  1.8353 -1.7638  5.0626
30491SOL    HW296285   9.155  11.925  11.049  0.9021  1.1475  1.2854
30492SOL     OW96286   9.470  11.002   7.349  0.6044  0.2533 -0.3327
30492SOL    HW196287   9.487  11.015   7.442  0.6210  0.2268 -0.3320
30492SOL    HW296288   9.405  10.932   7.346  0.5477  0.3065 -0.3378
30493SOL     OW96289   4.500   6.877   6.301 -0.4883 -0.0990  0.2710
30493SOL    HW196290   4.527   6.872   6.393  0.7343  0.8580 -0.0025
30493SOL    HW296291   4.555   6.812   6.257  0.2678  0.7210 -0.0394
30494SOL     OW96292   1.217   9.195   2.899  0.1898  0.3486 -0.4399
30494SOL    HW196293   1.310   9.183   2.916  0.0202 -0.1280  0.1852
30494SOL    HW296294   1.188   9.111   2.862 -0.0142  0.4486 -0.5079
30495SOL     OW96295   0.232   9.374   9.786  0.3461 -0.5341 -0.5604
30495SOL    HW196296   0.192   9.299   9.742 -1.3339 -0.1896  0.2749
30495SOL    HW296297   0.189   9.377   9.872 -0.9244  2.3654 -1.1957
30496SOL     OW96298   8.245  12.365   5.573  0.5152 -0.1846 -0.0575
30496SOL    HW196299   8.303  12.295   5.541  0.9715  0.2629 -0.2353
30496SOL    HW296300   8.234  12.346   5.666 -0.8030 -1.4882 -0.4419
30497SOL     OW96301   8.264   6.545   8.294  0.2840  0.1585 -0.3274
30497SOL    HW196302   8.246   6.634   8.264 -1.2126 -0.6845 -2.0984
30497SOL    HW296303   8.319   6.557   8.372  2.2615  2.5451 -1.9342
30498SOL     OW96304   2.460  11.484  11.876 -0.5649 -0.6288  0.8045
30498SOL    HW196305   2.466  11.393  11.904 -1.2270 -1.5048 -1.7099
30498SOL    HW296306   2.543  11.523  11.905  0.6734 -2.5779  0.0789
30499SOL     OW96307   7.866   2.962   8.643 -0.3753 -0.0734  0.5612
30499SOL    HW196308   7.864   2.891   8.580 -0.9279  0.0517  0.4402
30499SOL    HW296309   7.824   3.036   8.599  1.9988  0.9919 -0.1112
30500SOL     OW96310   4.779   5.170   7.338 -0.0982 -0.5358  0.1451
30500SOL    HW196311   4.861   5.197   7.297 -0.1916  0.3707  0.5245
30500SOL    HW296312   4.720   5.154   7.264 -0.1009  0.5432 -0.1028
30501SOL     OW96313   9.930   0.017   8.707  0.1393  0.3024  0.3431
30501SOL    HW196314  10.023   0.032   8.687  0.2038  0.0544  0.4562
30501SOL    HW296315   9.911   0.079   8.778 -1.1423  4.2018 -3.0167
30502SOL     OW96316  12.544   0.393   7.120  0.1763  0.0798 -0.5949
30502SOL    HW196317  12.585   0.430   7.198 -0.0799  0.8736 -0.8273
30502SOL    HW296318  12.515   0.469   7.070 -0.3045 -0.4376 -1.1180
30503SOL     OW96319   1.476   2.007   4.237  0.2772  0.2153  0.3075
30503SOL    HW196320   1.531   2.041   4.166  0.2292 -0.2455  0.0421
30503SOL    HW296321   1.490   2.066   4.310  1.6191 -0.2570  0.4528
30504SOL     OW96322   9.347   4.578   0.672  0.0718  0.0086  0.6385
30504SOL    HW196323   9.256   4.593   0.646  0.6089  0.9507 -0.8137
30504SOL    HW296324   9.341   4.543   0.761 -1.6905  0.3517  0.6899
30505SOL     OW96325   5.044   0.241   6.249  0.2991 -0.4379 -0.2136
30505SOL    HW196326   5.119   0.203   6.202 -0.4594  0.7786 -2.5610
30505SOL    HW296327   5.069   0.332   6.264 -0.4312 -0.1950 -0.4270
30506SOL     OW96328  10.048   7.507  10.231  0.7601 -0.1925 -0.1473
30506SOL    HW196329  10.144   7.500  10.230  0.8698  0.7905  0.9057
30506SOL    HW296330  10.030   7.592  10.191  0.3026 -0.4740 -0.5534
30507SOL     OW96331   6.970   4.015   0.116 -0.2328 -0.2565 -0.1366
30507SOL    HW196332   7.040   3.950   0.112 -0.0931 -0.0594 -0.9003
30507SOL    HW296333   7.003   4.090   0.066 -0.3751  0.4273  0.7676
30508SOL     OW96334   8.516  11.657   8.374 -0.0421 -0.2394  0.1667
30508SOL    HW196335   8.523  11.632   8.282 -1.8574  1.0435 -0.3929
30508SOL    HW296336   8.589  11.612   8.418  0.3118 -1.6157 -1.7185
30509SOL     OW96337   7.852   2.377   3.033 -0.6911 -0.2257  0.1429
30509SOL    HW196338   7.827   2.386   2.941  1.0969  1.2556 -0.2691
30509SOL    HW296339   7.928   2.319   3.033  0.1314  0.8111  0.4932
30510SOL     OW96340  11.173   0.895   8.174 -0.6168 -0.2773  0.5527
30510SOL    HW196341  11.253   0.947   8.178 -0.6946 -0.2183  1.6302
30510SOL    HW296342  11.104   0.956   8.201 -1.0464 -0.3078 -0.4329
30511SOL     OW96343  12.622   3.357  12.180  0.5002 -0.0895 -0.3002
30511SOL    HW196344  12.630   3.386  12.089 -0.9563  0.2216 -0.3590
30511SOL    HW296345  12.673   3.276  12.184  1.5983  0.5373 -1.0658
30512SOL     OW96346   0.093  12.638   9.795  0.0043 -0.0052 -0.1558
30512SOL    HW196347   0.131  12.576   9.856  1.2430  0.9205  0.0481
30512SOL    HW296348   0.110  12.724   9.833 -1.5193  0.5023 -0.5134
30513SOL     OW96349   4.977   7.436   5.958 -0.0177  0.5720 -0.2381
30513SOL    HW196350   4.938   7.507   5.908  1.5417  0.7456 -1.2876
30513SOL    HW296351   4.920   7.361   5.941 -0.9860  1.2625 -0.1086
30514SOL     OW96352   6.958   7.087   6.489 -0.5184  0.2773  0.1706
30514SOL    HW196353   7.001   7.009   6.454  0.5996  1.1177 -0.3801
30514SOL    HW296354   6.882   7.099   6.434 -0.2141  0.0763 -0.3016
30515SOL     OW96355   0.478   8.343   7.175  0.4914 -0.6932 -0.2753
30515SOL    HW196356   0.571   8.322   7.161  0.5532 -0.9775  0.5154
30515SOL    HW296357   0.447   8.370   7.088  1.3775 -0.3343 -0.5020
30516SOL     OW96358   5.736   5.939  10.881  1.1609 -0.2018 -0.3235
30516SOL    HW196359   5.649   5.941  10.921  1.2433  0.6200 -0.1524
30516SOL    HW296360   5.723   5.978  10.795  1.4788  0.6146 -0.0171
30517SOL     OW96361  10.008   7.082   9.041 -0.4108 -0.1230 -0.1642
30517SOL    HW196362  10.096   7.042   9.039 -0.2826  0.1848 -2.0475
30517SOL    HW296363   9.949   7.011   9.017 -0.6148 -0.1707  0.4740
30518SOL     OW96364   1.165   6.789   9.967  0.3743  0.0907 -0.2729
30518SOL    HW196365   1.205   6.717   9.919 -0.3256  0.0076 -0.7498
30518SOL    HW296366   1.167   6.761  10.058 -0.6910 -0.9352 -0.5433
30519SOL     OW96367   1.298   2.646   9.294 -0.0843  0.1552  1.1635
30519SOL    HW196368   1.284   2.667   9.201  0.0109 -2.4656  0.4884
30519SOL    HW296369   1.351   2.718   9.327  3.8712 -0.9565 -2.0044
30520SOL     OW96370   6.100   7.199   8.852 -0.3889  0.9032 -0.4244
30520SOL    HW196371   6.186   7.178   8.814  0.3609  0.4867  1.4053
30520SOL    HW296372   6.043   7.129   8.822 -0.0148  0.9664 -1.3351
30521SOL     OW96373   6.119   7.026   7.558  1.1942  0.4191 -0.3179
30521SOL    HW196374   6.101   6.933   7.543  0.5978  0.6544 -1.0663
30521SOL    HW296375   6.111   7.067   7.472  0.1324  1.3770  0.2020
30522SOL     OW96376   8.640   7.399   5.572  0.3919 -0.7875 -0.1523
30522SOL    HW196377   8.692   7.468   5.613 -1.4216  0.2377  0.5301
30522SOL    HW296378   8.612   7.437   5.489 -0.5459 -0.7036  0.1896
30523SOL     OW96379   0.902   6.790   0.668  0.0070  0.3399 -0.3667
30523SOL    HW196380   0.880   6.736   0.744  1.2104  1.5635  0.9295
30523SOL    HW296381   0.992   6.765   0.646 -0.3867 -0.1105 -1.4989
30524SOL     OW96382   1.053  11.490   2.610  0.2289  0.6235 -0.1934
30524SOL    HW196383   1.038  11.559   2.545 -0.1903  0.3782 -0.3627
30524SOL    HW296384   1.137  11.452   2.586  0.0106  0.4418 -0.6779
30525SOL     OW96385   2.939   0.061  12.504  0.3654 -0.1717  0.2929
30525SOL    HW196386   2.904   0.009  12.576 -0.0227 -1.1300 -0.5628
30525SOL    HW296387   2.881   0.136  12.497  0.9450  0.4233  1.5569
30526SOL     OW96388  12.352   7.619   1.508  0.0269  0.3389  0.0632
30526SOL    HW196389  12.301   7.699   1.520  1.3741  1.0239  1.4660
30526SOL    HW296390  12.349   7.575   1.593  0.9842 -0.0803 -0.1133
30527SOL     OW96391   6.528   2.459   6.566 -0.5661  0.1849 -0.1855
30527SOL    HW196392   6.469   2.520   6.611 -0.1400  0.3068  0.2199
30527SOL    HW296393   6.480   2.377   6.563 -0.5007  0.0953  0.7497
30528SOL     OW96394  11.890   2.698  10.323  0.3427  0.2384 -0.2229
30528SOL    HW196395  11.802   2.731  10.340 -0.1522 -1.2001  0.2088
30528SOL    HW296396  11.893   2.683  10.229 -0.4898 -1.2730 -0.0374
30529SOL     OW96397   1.619  11.857   5.372  0.2740 -0.3818 -0.1854
30529SOL    HW196398   1.603  11.779   5.319 -0.2274  0.8353 -1.8954
30529SOL    HW296399   1.532  11.893   5.388  0.4104 -0.6827  1.5006
30530SOL     OW96400   4.461   2.330   3.187 -0.2299  0.0403 -0.2954
30530SOL    HW196401   4.446   2.241   3.220  2.5086 -0.8570 -1.1736
30530SOL    HW296402   4.477   2.382   3.266 -1.6095 -0.2481  0.2086
30531SOL     OW96403   6.050  11.434   9.859 -0.4406 -0.1414  0.4030
30531SOL    HW196404   6.055  11.377   9.782 -0.3226 -0.6049  0.7542
30531SOL    HW296405   5.959  11.466   9.858 -0.3702  0.0580 -0.0705
30532SOL     OW96406   7.961   8.860   3.475  0.0333 -0.1597  0.1906
30532SOL    HW196407   8.036   8.802   3.464  0.9381  0.7081  1.5938
30532SOL    HW296408   7.941   8.857   3.569 -1.3127  0.0877 -0.0652
30533SOL     OW96409   3.625  11.693   2.861  0.4705  0.1505 -0.1734
30533SOL    HW196410   3.674  11.767   2.824  0.5544  0.8989  1.3761
30533SOL    HW296411   3.688  11.649   2.918  0.2115 -0.7113 -0.5357
30534SOL     OW96412   6.549   3.237   1.214  0.2699 -0.2990  0.2265
30534SOL    HW196413   6.568   3.225   1.122  1.5960 -0.7119  0.5412
30534SOL    HW296414   6.480   3.304   1.216  0.4536 -0.0559 -1.0352
30535SOL     OW96415   2.177   6.291   9.460 -0.1641 -0.4067  0.1874
30535SOL    HW196416   2.134   6.207   9.470 -1.7668  0.2870 -0.5733
30535SOL    HW296417   2.265   6.277   9.495 -0.5649 -2.2306  0.5650
30536SOL     OW96418   6.682   5.434   6.770 -0.2293 -0.0757  0.1530
30536SOL    HW196419   6.603   5.461   6.724 -0.7278  1.4163  1.7939
30536SOL    HW296420   6.665   5.454   6.862  1.4833 -1.1250  0.7556
30537SOL     OW96421  10.350   9.223   7.280  0.0445  0.0396 -0.5206
30537SOL    HW196422  10.425   9.218   7.221 -0.3705 -2.2392 -0.9535
30537SOL    HW296423  10.355   9.142   7.332 -1.5966  0.2867  0.0773
30538SOL     OW96424   8.216   3.309  10.869  0.3737 -0.1949  0.2953
30538SOL    HW196425   8.210   3.395  10.827 -2.1448 -0.7239 -0.5911
30538SOL    HW296426   8.249   3.251  10.800 -0.8772 -0.4827 -0.0916
30539SOL     OW96427   4.060   4.785   1.021  0.1125 -0.4066  0.6979
30539SOL    HW196428   4.124   4.819   0.960  0.8368 -0.0174  1.6489
30539SOL    HW296429   4.083   4.692   1.032 -0.3374 -0.6061 -0.0008
30540SOL     OW96430   7.729   1.327   8.055 -0.3923  0.6308 -0.1487
30540SOL    HW196431   7.792   1.300   7.988  1.2150  2.5818  0.4676
30540SOL    HW296432   7.775   1.312   8.138 -1.1591  1.0325  0.3589
30541SOL     OW96433  12.360   6.180   8.561  0.5645  0.2841  0.1405
30541SOL    HW196434  12.275   6.137   8.559  0.8577 -0.4748  1.8456
30541SOL    HW296435  12.343   6.266   8.601  0.6454 -0.0548  0.9281
30542SOL     OW96436   1.735   5.523  10.130  0.2069 -0.0631  0.0165
30542SOL    HW196437   1.749   5.499  10.222  0.0037  1.0039  0.3380
30542SOL    HW296438   1.666   5.590  10.133  0.6787  0.4754 -0.8593
30543SOL     OW96439  10.053  11.833   3.248  0.9172  0.0337  0.1446
30543SOL    HW196440  10.057  11.740   3.226  1.1317  0.4157 -1.5360
30543SOL    HW296441   9.976  11.841   3.304  0.1264 -0.9609 -0.7573
30544SOL     OW96442   7.583   6.233   2.815 -0.7130 -0.3535  0.1090
30544SOL    HW196443   7.678   6.239   2.826 -0.2639 -0.9142 -2.8308
30544SOL    HW296444   7.564   6.140   2.818 -1.1308 -0.2678  0.2215
30545SOL     OW96445   9.628   9.542   4.917  0.0595 -0.4086 -0.0675
30545SOL    HW196446   9.615   9.511   5.007 -1.0493 -0.4213 -0.2180
30545SOL    HW296447   9.560   9.607   4.904  0.7000  0.1563 -0.6513
30546SOL     OW96448   0.197  11.514   6.204  0.2259 -0.2045  0.6687
30546SOL    HW196449   0.287  11.544   6.192 -0.0694  0.5451  0.2854
30546SOL    HW296450   0.197  11.425   6.168  0.7863 -0.1691  0.5690
30547SOL     OW96451  10.424   3.787   2.722  0.4298 -0.6260  0.3911
30547SOL    HW196452  10.439   3.693   2.720 -0.9915 -0.8758 -0.6120
30547SOL    HW296453  10.503   3.824   2.761  2.4817 -1.9468 -2.2046
30548SOL     OW96454  12.633   2.670  11.970 -0.4552 -0.0301 -0.1443
30548SOL    HW196455  12.648   2.630  11.884 -1.7899 -0.2069 -0.3169
30548SOL    HW296456  12.642   2.598  12.031  2.1327  0.3861  0.0862
30549SOL     OW96457  11.274   5.449  11.347  0.1090  0.4452 -0.1345
30549SOL    HW196458  11.352   5.497  11.321  1.0515 -1.7083 -1.5288
30549SOL    HW296459  11.299   5.402  11.427 -0.0141  0.3387 -0.1577
30550SOL     OW96460   3.447   7.396   3.283  0.2450  0.7648  0.0280
30550SOL    HW196461   3.481   7.484   3.269 -0.1880  0.7080 -1.5794
30550SOL    HW296462   3.517   7.338   3.250  0.8460  0.4442  1.7472
30551SOL     OW96463   4.954   2.870   0.065  0.2292 -0.2612 -0.1885
30551SOL    HW196464   4.988   2.782   0.084  0.6236  0.0232  0.4430
30551SOL    HW296465   5.013   2.929   0.111  1.2981  0.4963 -2.4029
30552SOL     OW96466  12.096   8.035  10.543  0.4944 -0.2864 -0.1551
30552SOL    HW196467  12.017   8.062  10.589  0.2789 -1.2262  0.0488
30552SOL    HW296468  12.145   8.116  10.530  0.5859  0.0148  1.7555
30553SOL     OW96469   1.745   7.881   4.614  0.8707 -0.5488 -0.3020
30553SOL    HW196470   1.770   7.791   4.637 -0.2465 -0.7463  0.1968
30553SOL    HW296471   1.659   7.873   4.573  0.5002  0.3467  0.2627
30554SOL     OW96472   7.783   7.257   6.871  0.1300 -0.2109  0.2496
30554SOL    HW196473   7.862   7.282   6.824 -0.4227  0.2745 -0.4348
30554SOL    HW296474   7.811   7.250   6.962  1.8782 -3.9140 -0.4147
30555SOL     OW96475   9.941  11.339   1.335 -0.1080  0.1733 -0.3641
30555SOL    HW196476   9.933  11.280   1.260  0.8209  0.4902 -0.7258
30555SOL    HW296477  10.003  11.294   1.393  0.1579  0.5190 -0.3787
30556SOL     OW96478   6.177   6.314   2.206 -0.5627  0.0287  0.8249
30556SOL    HW196479   6.171   6.410   2.204 -0.3938  0.0469 -1.3356
30556SOL    HW296480   6.265   6.296   2.236 -0.5659  0.5580  1.1613
30557SOL     OW96481   5.068   2.913   3.023 -0.3204 -0.0262  0.0333
30557SOL    HW196482   5.022   2.996   3.037 -0.6259  0.4402 -3.0964
30557SOL    HW296483   5.004   2.856   2.982  1.0226 -0.3764 -1.6942
30558SOL     OW96484   4.049   3.648  11.523 -0.2527  0.5193  0.8604
30558SOL    HW196485   4.123   3.683  11.574 -0.2037 -0.1391  1.2631
30558SOL    HW296486   3.972   3.667  11.577 -0.1580 -0.5402  1.4004
30559SOL     OW96487   7.397  12.358   9.817 -0.5760  0.3726  0.1574
30559SOL    HW196488   7.323  12.364   9.756 -0.4067  1.0544  0.0183
30559SOL    HW296489   7.398  12.266   9.844 -0.6017  0.0405 -0.9361
30560SOL     OW96490   6.095   9.586   1.061 -0.0679 -0.4313 -0.2801
30560SOL    HW196491   6.093   9.552   0.971  0.1326 -0.3283 -0.3250
30560SOL    HW296492   6.071   9.512   1.116 -1.4022 -0.1852 -0.5023
30561SOL     OW96493   5.513   9.643  10.417  0.0127  0.2746 -0.2377
30561SOL    HW196494   5.492   9.723  10.369  1.6264  0.4182 -0.7364
30561SOL    HW296495   5.534   9.579  10.348  1.9681  0.3729  0.2177
30562SOL     OW96496   2.266   2.351   8.179  0.1582  0.2532 -0.6213
30562SOL    HW196497   2.179   2.380   8.206  0.4939 -0.0785  0.8578
30562SOL    HW296498   2.277   2.265   8.218  0.6746 -0.2664 -1.8382
30563SOL     OW96499   1.408   0.410  10.991  0.8432 -0.8645 -0.6132
30563SOL    HW196500   1.403   0.444  11.081  4.5746  0.1437 -0.6237
30563SOL    HW296501   1.367   0.478  10.938  1.4299  0.0539  0.0785
30564SOL     OW96502   6.689   8.715   3.565  0.1495  0.4273 -0.0237
30564SOL    HW196503   6.760   8.776   3.584  1.3318 -1.0488  0.5045
30564SOL    HW296504   6.709   8.638   3.617 -1.4580 -0.3126 -0.4421
30565SOL     OW96505   2.602   2.849   4.005 -0.3204  0.6173 -0.2819
30565SOL    HW196506   2.520   2.833   3.959  0.3092 -1.9981 -0.6646
30565SOL    HW296507   2.666   2.866   3.936  0.1501 -1.0156 -0.2980
30566SOL     OW96508  11.726   5.398   2.502  0.6256  0.2448  0.0647
30566SOL    HW196509  11.635   5.367   2.498  0.6943 -0.2032  1.3640
30566SOL    HW296510  11.764   5.352   2.577  2.0868  0.0453 -0.7635
30567SOL     OW96511   6.879   5.125   4.940 -0.6960  0.0935 -0.2501
30567SOL    HW196512   6.836   5.172   5.012 -0.0730  0.3096 -0.0178
30567SOL    HW296513   6.810   5.116   4.874 -1.1366  0.3307  0.1664
30568SOL     OW96514   9.148  11.609   3.931 -0.2632 -0.2305  0.2239
30568SOL    HW196515   9.222  11.548   3.924 -0.4004 -0.7343  2.3002
30568SOL    HW296516   9.188  11.696   3.934  0.0754 -0.3434 -0.6933
30569SOL     OW96517   8.276   3.181   0.953 -0.2715 -0.1497  0.2586
30569SOL    HW196518   8.216   3.227   0.894  0.7098  2.1217  0.9056
30569SOL    HW296519   8.352   3.161   0.899  0.9806  2.6664  0.7938
30570SOL     OW96520   4.746   0.438  10.058  0.1634  0.1772  0.1230
30570SOL    HW196521   4.744   0.377   9.984  2.3060  0.6304 -0.3763
30570SOL    HW296522   4.741   0.381  10.135 -0.3894 -0.4278 -0.3403
30571SOL     OW96523   2.331   0.785  11.631 -0.0466  0.1669  0.4164
30571SOL    HW196524   2.265   0.826  11.575  0.9523  0.7665 -0.3732
30571SOL    HW296525   2.331   0.693  11.605 -0.6714  0.1314  0.5315
30572SOL     OW96526   0.816   0.952   1.592  0.2928  0.3069 -0.1452
30572SOL    HW196527   0.906   0.974   1.619  0.3152 -2.2036  2.2513
30572SOL    HW296528   0.826   0.874   1.537 -0.3671  1.0663 -1.4084
30573SOL     OW96529   4.646   1.377  11.484  0.1982 -0.1392  0.4785
30573SOL    HW196530   4.718   1.340  11.433 -0.4720 -0.2295 -0.4353
30573SOL    HW296531   4.607   1.443  11.426 -0.2593  0.1253  1.0796
30574SOL     OW96532   0.642   6.657   4.193 -0.0564  0.5124 -0.2053
30574SOL    HW196533   0.548   6.637   4.192 -0.4479  2.1964 -1.2894
30574SOL    HW296534   0.680   6.590   4.136 -0.6913  0.2286 -0.3124
30575SOL     OW96535   0.414   4.271   1.853 -0.0505 -0.6485 -0.1420
30575SOL    HW196536   0.484   4.205   1.848 -0.1268 -0.9644  1.8380
30575SOL    HW296537   0.354   4.237   1.920  1.2600  2.5467  3.0223
30576SOL     OW96538   8.423   0.035   2.945 -0.0856 -0.0087 -0.4623
30576SOL    HW196539   8.388  -0.050   2.917 -0.4549 -0.3207  0.8661
30576SOL    HW296540   8.518   0.022   2.946 -0.0824 -0.0925 -1.2072
30577SOL     OW96541  11.301   6.269  10.006 -0.2898  0.1015  0.3939
30577SOL    HW196542  11.214   6.235   9.985 -0.4617  1.5222 -1.4666
30577SOL    HW296543  11.299   6.359   9.973  2.2509 -0.1812 -0.7398
30578SOL     OW96544   5.956   5.974   1.249  0.1094 -0.8791 -1.0629
30578SOL    HW196545   5.993   6.059   1.227  2.9983 -0.8556  2.8389
30578SOL    HW296546   5.861   5.988   1.247  0.4119  3.1248  1.2264
30579SOL     OW96547   0.207   3.508   4.412  0.2611  0.4337  0.4406
30579SOL    HW196548   0.114   3.488   4.409 -0.1914  1.8399  2.8305
30579SOL    HW296549   0.249   3.434   4.368 -1.9566 -0.1507 -0.8243
30580SOL     OW96550   2.262   1.648  12.078 -0.3108 -0.4549  0.3765
30580SOL    HW196551   2.233   1.605  12.158  1.2638 -0.3716  1.0228
30580SOL    HW296552   2.338   1.596  12.049 -1.4996 -1.1534 -1.6915
30581SOL     OW96553   5.554   5.638   6.541 -0.1591  0.0430 -0.1833
30581SOL    HW196554   5.585   5.558   6.584 -1.7180 -0.6877 -0.3819
30581SOL    HW296555   5.598   5.639   6.456  0.4946 -0.1529  0.1459
30582SOL     OW96556   2.151   7.861   4.688 -0.3572  0.0059 -0.2309
30582SOL    HW196557   2.115   7.912   4.760 -0.1594 -0.1080 -0.0517
30582SOL    HW296558   2.094   7.784   4.682 -1.0475  0.5519 -0.9168
30583SOL     OW96559   4.823   1.457   6.823  0.1087  0.6734  0.4391
30583SOL    HW196560   4.733   1.485   6.804  0.0119 -0.3759 -0.8041
30583SOL    HW296561   4.874   1.538   6.821 -0.7139  1.2079  0.5521
30584SOL     OW96562   7.689   6.034  11.280  0.4714 -0.4434 -0.0690
30584SOL    HW196563   7.690   5.960  11.341 -1.1745 -1.7208 -1.4845
30584SOL    HW296564   7.690   5.993  11.193  0.5064  1.2422 -0.9037
30585SOL     OW96565   9.369   2.534   1.708 -0.1362 -0.4197  0.2672
30585SOL    HW196566   9.344   2.572   1.624 -1.1873 -1.4432  0.0945
30585SOL    HW296567   9.386   2.610   1.764  0.1467  0.2799 -0.7239
30586SOL     OW96568   7.784   6.537   9.055  0.6252 -0.1185 -0.0419
30586SOL    HW196569   7.829   6.453   9.059  2.3175  0.7596  2.1679
30586SOL    HW296570   7.847   6.596   9.012  0.6062  0.5832  0.8549
30587SOL     OW96571   3.403   6.786   9.370 -0.2769 -0.0916 -0.2512
30587SOL    HW196572   3.331   6.844   9.396 -1.3428 -0.6538 -1.8277
30587SOL    HW296573   3.446   6.832   9.298  1.5167  0.6241  1.2077
30588SOL     OW96574  10.496  11.131   5.297  0.6640  0.3677 -0.2718
30588SOL    HW196575  10.531  11.122   5.209 -2.6632  1.6342 -1.8794
30588SOL    HW296576  10.464  11.043   5.320 -1.0591  0.5848 -1.6315
30589SOL     OW96577   6.903  10.876   9.059 -0.2817 -0.2608  0.2453
30589SOL    HW196578   6.838  10.887   8.989  0.6041 -0.1479 -0.5859
30589SOL    HW296579   6.940  10.789   9.043 -2.7442 -1.9915  2.9252
30590SOL     OW96580   3.511   8.815  11.251  0.1445  0.3080  0.0816
30590SOL    HW196581   3.554   8.900  11.258 -0.3726  0.5879 -0.0871
30590SOL    HW296582   3.582   8.753  11.232  0.5360  0.6801  0.3192
30591SOL     OW96583  11.242   5.974  12.549 -0.5895 -0.1909 -0.4252
30591SOL    HW196584  11.224   5.893  12.596 -0.0908 -0.1042 -0.0815
30591SOL    HW296585  11.178   5.975  12.478 -2.0703  0.2099  0.8749
30592SOL     OW96586   7.930   6.963   7.428  0.3743  0.6601  0.5601
30592SOL    HW196587   7.886   6.954   7.343 -0.9113  0.2663  1.2557
30592SOL    HW296588   8.016   6.922   7.414 -0.8720 -2.0193  0.2242
30593SOL     OW96589   8.309   4.809   7.392  0.4076 -0.3683 -0.6332
30593SOL    HW196590   8.316   4.835   7.300  1.2764  2.4870  0.1487
30593SOL    HW296591   8.229   4.851   7.423  0.9838  0.0745  0.2977
30594SOL     OW96592   3.073  10.133   4.687 -0.0716 -0.1483  0.1413
30594SOL    HW196593   3.130  10.106   4.759  0.3608  0.8678  0.1844
30594SOL    HW296594   3.080  10.228   4.684 -0.8346 -0.1028 -0.6311
30595SOL     OW96595   1.202   0.616   1.271  0.2896  0.2815  0.0936
30595SOL    HW196596   1.267   0.566   1.222  0.0306 -1.6566  1.5767
30595SOL    HW296597   1.221   0.708   1.251  1.6787 -0.3346 -1.6764
30596SOL     OW96598  10.431   8.585   0.670  0.0571 -1.0699  0.1212
30596SOL    HW196599  10.364   8.654   0.674  2.2575  1.1423  0.8488
30596SOL    HW296600  10.436   8.563   0.576 -1.5648 -1.2426  0.0343
30597SOL     OW96601   1.855  10.784  11.777 -0.0786 -0.2883 -0.1726
30597SOL    HW196602   1.910  10.708  11.794  0.4526 -0.1925 -1.3246
30597SOL    HW296603   1.769  10.747  11.758  0.3829 -0.7117 -1.6226
30598SOL     OW96604  12.312  10.702   9.614  0.3480  0.0826  0.1113
30598SOL    HW196605  12.222  10.713   9.644  0.5142 -0.3289  0.7736
30598SOL    HW296606  12.365  10.744   9.681  0.7372 -1.0661  0.5336
30599SOL     OW96607   7.266   8.370   3.381  0.2505 -0.5189  0.4592
30599SOL    HW196608   7.285   8.361   3.475 -0.8587 -0.7295  0.6727
30599SOL    HW296609   7.345   8.411   3.345 -0.2871  1.9806  1.8999
30600SOL     OW96610   3.201  10.223   2.948  0.1864 -0.2408  0.5693
30600SOL    HW196611   3.131  10.167   2.981 -0.2929  0.2320  0.3705
30600SOL    HW296612   3.166  10.260   2.867 -0.2258  1.7141  1.5661
30601SOL     OW96613  11.820   4.955   8.743 -0.2877  0.0147  0.3679
30601SOL    HW196614  11.761   4.885   8.769  0.5271 -0.0101  2.2797
30601SOL    HW296615  11.858   4.924   8.660 -1.0869 -1.0858  0.3942
30602SOL     OW96616  10.494   4.940   1.389  0.1404 -0.5603 -0.0148
30602SOL    HW196617  10.524   5.022   1.428 -0.1082  0.1123 -1.1859
30602SOL    HW296618  10.434   4.903   1.454  2.0423 -1.0360  1.5759
30603SOL     OW96619   8.940  11.028   2.497  0.5124  0.0885  0.6134
30603SOL    HW196620   8.878  11.094   2.529  2.0682  1.6045  0.6561
30603SOL    HW296621   8.989  11.002   2.575  1.5014  0.6856  0.2176
30604SOL     OW96622   1.320   5.707   2.416 -0.5151  0.1556  0.5626
30604SOL    HW196623   1.415   5.699   2.424 -0.2843  2.8884  1.5514
30604SOL    HW296624   1.304   5.705   2.322  0.7553  1.4146  0.2862
30605SOL     OW96625   1.365   4.588   6.748 -0.2981 -0.1643  0.1088
30605SOL    HW196626   1.393   4.500   6.774 -1.2293 -0.6948 -0.6218
30605SOL    HW296627   1.283   4.602   6.794 -0.3612  0.1634 -0.0987
30606SOL     OW96628   2.444   3.709   1.309 -0.0283 -0.3296 -0.1009
30606SOL    HW196629   2.359   3.684   1.274 -1.3334  0.5378  2.2018
30606SOL    HW296630   2.447   3.804   1.299 -0.0421 -0.1728  1.1668
30607SOL     OW96631  10.781   6.141   1.935 -0.1981 -0.3935  0.1843
30607SOL    HW196632  10.822   6.153   1.849  0.8267  0.1757  0.7379
30607SOL    HW296633  10.702   6.091   1.916 -0.6467  0.7724 -1.2548
30608SOL     OW96634  10.474  11.683   9.919  0.3246  0.0505 -0.4100
30608SOL    HW196635  10.409  11.630   9.873  1.1980 -0.9469 -0.5445
30608SOL    HW296636  10.434  11.769   9.926 -1.4552 -0.7936  0.4518
30609SOL     OW96637   1.658   7.204   2.302 -0.4775 -0.7674  0.0971
30609SOL    HW196638   1.632   7.209   2.210  0.2052 -2.2143 -0.2129
30609SOL    HW296639   1.649   7.111   2.324  1.4966 -0.8334  0.8215
30610SOL     OW96640   4.743   7.016   7.668  0.2220  0.1613  0.6907
30610SOL    HW196641   4.674   6.990   7.729  1.0069 -1.2054  1.0381
30610SOL    HW296642   4.824   7.003   7.717  0.8839 -1.2374 -0.7055
30611SOL     OW96643   6.558   4.579   6.046 -0.2352 -0.0984  0.2469
30611SOL    HW196644   6.529   4.620   5.964  0.7599  1.2768  0.5567
30611SOL    HW296645   6.476   4.554   6.089 -0.7673 -1.4336 -1.4268
30612SOL     OW96646   6.236   7.512   2.598 -0.1326  0.4417  0.2947
30612SOL    HW196647   6.196   7.470   2.522  1.0862  0.6335 -0.4915
30612SOL    HW296648   6.245   7.443   2.663 -2.2974  0.5345  0.7588
30613SOL     OW96649   7.343   5.832   1.465  0.2651 -0.5287  0.2262
30613SOL    HW196650   7.401   5.784   1.406 -0.4797 -1.6599  0.3683
30613SOL    HW296651   7.254   5.807   1.436 -0.1993  1.7963 -0.5162
30614SOL     OW96652   5.218   3.594   7.292 -0.0112  0.4147 -0.3181
30614SOL    HW196653   5.165   3.514   7.299 -1.2574  1.2825  0.5712
30614SOL    HW296654   5.238   3.601   7.198 -1.8906  0.3082 -0.7586
30615SOL     OW96655  11.126   3.154   3.869 -0.3862 -0.0048 -0.4281
30615SOL    HW196656  11.077   3.109   3.800 -0.7863 -1.3371  0.6880
30615SOL    HW296657  11.216   3.155   3.838 -0.4041 -1.4034 -0.6015
30616SOL     OW96658   2.600   0.537   5.848 -0.4724 -0.0545 -0.0086
30616SOL    HW196659   2.641   0.571   5.928  1.7052  0.5296 -1.2761
30616SOL    HW296660   2.649   0.457   5.829 -0.5798  0.1136 -1.0509
30617SOL     OW96661   7.613   4.725   5.489 -0.5556 -0.2071  0.3598
30617SOL    HW196662   7.649   4.658   5.431 -1.3722  0.5748 -1.1114
30617SOL    HW296663   7.683   4.790   5.499 -0.2759 -0.5410  0.5763
30618SOL     OW96664   8.747   5.666   7.259 -0.1660  0.7009 -0.4043
30618SOL    HW196665   8.751   5.595   7.194  1.5574  0.0188  0.3659
30618SOL    HW296666   8.655   5.671   7.285 -0.1395 -2.3799  0.6709
30619SOL     OW96667   4.403   6.687   7.921 -0.5574 -0.0196  0.6030
30619SOL    HW196668   4.370   6.679   7.831 -1.6782 -0.9400  1.0611
30619SOL    HW296669   4.326   6.713   7.972 -0.8711 -2.9754  1.8394
30620SOL     OW96670  12.193   3.596  11.342 -0.5351  0.1138 -0.1636
30620SOL    HW196671  12.141   3.531  11.389 -0.7477  0.3972 -0.0070
30620SOL    HW296672  12.250   3.544  11.285 -1.0181 -0.1964 -0.3708
30621SOL     OW96673   4.016  10.523   0.730 -0.1558  0.5651  0.0471
30621SOL    HW196674   3.928  10.559   0.721 -0.0965  1.6438  2.8232
30621SOL    HW296675   4.074  10.599   0.721  0.4832 -0.0074 -0.9462
30622SOL     OW96676   8.219   6.848   1.246  0.1802  0.0406  0.5147
30622SOL    HW196677   8.202   6.917   1.182  0.7333  0.5768  0.9257
30622SOL    HW296678   8.138   6.842   1.297 -0.5149 -0.8686 -0.6515
30623SOL     OW96679   8.633   8.432   9.828 -0.1579  0.5322  0.3267
30623SOL    HW196680   8.545   8.466   9.810 -0.5125 -0.6680 -0.3374
30623SOL    HW296681   8.636   8.423   9.924 -1.3243 -0.8258  0.2577
30624SOL     OW96682   3.175   4.851   4.005 -0.1860  0.2527  0.2134
30624SOL    HW196683   3.169   4.849   4.100  0.5274 -0.5523  0.2543
30624SOL    HW296684   3.217   4.768   3.982 -2.4178 -0.6063 -0.9737
30625SOL     OW96685   7.179   7.359   3.348  0.1871 -0.1300 -0.2004
30625SOL    HW196686   7.152   7.288   3.290 -0.4754  0.5542 -0.7526
30625SOL    HW296687   7.180   7.436   3.292  2.6681  0.0205 -0.0618
30626SOL     OW96688   4.400  10.630   5.944 -0.0051 -0.6145  0.2680
30626SOL    HW196689   4.352  10.705   5.907  1.9844  1.9461  2.4730
30626SOL    HW296690   4.431  10.582   5.867 -1.5958  0.6336 -1.2453
30627SOL     OW96691   7.505   6.346   4.852 -0.6988  0.0905 -0.1616
30627SOL    HW196692   7.505   6.251   4.847 -0.1940  0.1105 -0.6610
30627SOL    HW296693   7.587   6.373   4.810  0.3746  0.6454  2.1406
30628SOL     OW96694  12.328  11.476   0.654  0.7528  0.0749  0.6347
30628SOL    HW196695  12.239  11.444   0.639  0.8970  0.3145 -0.8594
30628SOL    HW296696  12.354  11.514   0.571  2.2689 -0.0087  1.0460
30629SOL     OW96697   2.245   6.745   6.424 -0.1706  0.2922  0.5964
30629SOL    HW196698   2.292   6.825   6.399  0.4487 -0.0252  0.7212
30629SOL    HW296699   2.314   6.679   6.432 -0.3395  0.3373  3.0376
30630SOL     OW96700  11.847  11.739   9.729 -0.2408 -0.4408 -0.3745
30630SOL    HW196701  11.821  11.708   9.642 -0.0776 -1.6813 -0.0082
30630SOL    HW296702  11.770  11.785   9.762  0.9246  3.7361 -2.7138
30631SOL     OW96703   2.092  11.869   5.848 -0.0268  0.1232 -0.2795
30631SOL    HW196704   2.180  11.899   5.871 -0.5728  0.6348  1.2412
30631SOL    HW296705   2.106  11.789   5.798  1.2644 -0.8366  1.5090
30632SOL     OW96706   7.794   1.280   5.502  0.3452  0.0471 -0.5994
30632SOL    HW196707   7.863   1.329   5.548  0.2428  0.0002 -0.3939
30632SOL    HW296708   7.837   1.245   5.424  0.6741 -0.3776 -0.2312
30633SOL     OW96709   8.143   9.804  12.582 -0.3241 -0.5539  0.5877
30633SOL    HW196710   8.214   9.768  12.528 -0.3166  0.1827  0.0896
30633SOL    HW296711   8.159   9.767  12.669  1.9562  1.1933  1.0349
30634SOL     OW96712  11.970   2.624   3.926 -0.1167 -0.3147  0.2560
30634SOL    HW196713  11.949   2.625   3.832  0.0531 -2.1737  0.1597
30634SOL    HW296714  12.056   2.665   3.932 -0.3352  0.2504 -0.3375
30635SOL     OW96715   0.735   0.417   3.840  0.0233  1.0047 -0.3419
30635SOL    HW196716   0.818   0.383   3.806 -0.0341  1.2611 -0.7481
30635SOL    HW296717   0.699   0.469   3.768 -0.6482  0.6249 -0.2915
30636SOL     OW96718   6.679   9.942   7.872  0.1018  0.2107  0.0769
30636SOL    HW196719   6.648   9.925   7.783 -2.1027 -1.7797  1.0814
30636SOL    HW296720   6.722  10.027   7.868  1.0868 -0.3265 -3.0843
30637SOL     OW96721   6.237   0.827   0.744  0.4441  0.2736 -0.1147
30637SOL    HW196722   6.325   0.803   0.713 -0.1831  0.1684 -1.9406
30637SOL    HW296723   6.203   0.885   0.677 -2.1261 -2.2836 -1.2546
30638SOL     OW96724   3.788   0.625   2.849  0.6460  0.0515  0.0531
30638SOL    HW196725   3.866   0.587   2.807  0.2785 -0.5276 -0.1175
30638SOL    HW296726   3.821   0.703   2.893  1.1342  0.4005 -0.9005
30639SOL     OW96727   8.948   0.626  11.571  0.5427  0.0732  0.4883
30639SOL    HW196728   8.901   0.638  11.654  2.0662 -0.4012  1.4677
30639SOL    HW296729   8.885   0.582  11.514  0.1816 -1.8263  2.2005
30640SOL     OW96730   4.458   2.912   1.468  0.2010 -0.0409 -0.2387
30640SOL    HW196731   4.394   2.968   1.512  0.0334  0.4480 -1.0732
30640SOL    HW296732   4.531   2.970   1.449 -0.8157  0.5172 -2.9923
30641SOL     OW96733  12.224   7.503   3.304 -0.1549 -0.5023  0.0830
30641SOL    HW196734  12.259   7.497   3.215  0.3633  1.1259  0.1580
30641SOL    HW296735  12.132   7.523   3.292  0.4423  2.4543 -0.1390
30642SOL     OW96736   4.906   2.756   1.172 -0.1153  0.2983 -0.2378
30642SOL    HW196737   4.967   2.734   1.242  1.0834  1.6655 -0.7878
30642SOL    HW296738   4.820   2.734   1.207  0.3532  1.7293  2.0321
30643SOL     OW96739   9.726   0.234   1.628 -0.6134  0.0152  0.2657
30643SOL    HW196740   9.712   0.231   1.534  0.3668  0.8674  0.0729
30643SOL    HW296741   9.656   0.289   1.662  0.6459  2.1320 -0.3612
30644SOL     OW96742  10.411  11.400   1.627 -0.1541  0.6799 -0.3950
30644SOL    HW196743  10.411  11.321   1.682  3.5551  0.2568 -0.7928
30644SOL    HW296744  10.425  11.367   1.539 -3.3790  1.5681 -1.3731
30645SOL     OW96745   3.767   3.292   2.389 -0.1685 -0.4197  0.3248
30645SOL    HW196746   3.677   3.268   2.366 -0.2718 -0.3056  0.6152
30645SOL    HW296747   3.815   3.286   2.306 -0.8682  1.5627 -0.2706
30646SOL     OW96748   8.250   0.113   8.399 -0.0515 -0.0631  0.2278
30646SOL    HW196749   8.285   0.035   8.355 -0.0362  0.3468 -0.4953
30646SOL    HW296750   8.229   0.083   8.487 -0.5823 -1.0362 -0.2149
30647SOL     OW96751  11.681   2.226   7.073  0.2351 -0.0141 -0.7272
30647SOL    HW196752  11.614   2.174   7.117  1.1503  0.1943  0.9613
30647SOL    HW296753  11.686   2.307   7.123  0.0125  1.0376 -2.3306
30648SOL     OW96754  11.301  10.183   6.821 -0.2716  0.4443 -0.0420
30648SOL    HW196755  11.302  10.245   6.748  1.3965 -0.0842 -0.4941
30648SOL    HW296756  11.242  10.223   6.885  0.5858  2.3937 -0.4037
30649SOL     OW96757   8.342   7.308   9.610  0.0514  0.4542  0.1919
30649SOL    HW196758   8.401   7.353   9.550  0.5826 -1.1216 -0.5433
30649SOL    HW296759   8.399   7.246   9.657 -0.6856  0.3299  0.9339
30650SOL     OW96760  11.506   6.044   9.407 -0.0153  0.2103 -0.5897
30650SOL    HW196761  11.425   6.045   9.457 -1.4245 -2.1548 -2.6071
30650SOL    HW296762  11.573   6.019   9.471 -1.1851  0.2840  0.7198
30651SOL     OW96763   1.390   4.777   2.758  0.2865 -0.0871  0.2232
30651SOL    HW196764   1.327   4.830   2.807  0.3439  0.5999 -0.4310
30651SOL    HW296765   1.451   4.841   2.721  0.4932 -0.6292 -0.3822
30652SOL     OW96766   6.726   2.341   9.626 -0.6412 -0.0820 -0.1856
30652SOL    HW196767   6.642   2.359   9.584 -1.2549  1.0671  1.4411
30652SOL    HW296768   6.706   2.336   9.719  1.1351  0.5412  0.2732
30653SOL     OW96769  11.790   8.445   1.919  0.0575 -0.3825 -0.2283
30653SOL    HW196770  11.717   8.387   1.941  0.8609 -1.4007 -0.2280
30653SOL    HW296771  11.747   8.528   1.896 -1.1107 -0.9860 -0.3287
30654SOL     OW96772   1.351  10.922  10.620 -0.2369 -0.5085 -0.1905
30654SOL    HW196773   1.383  10.881  10.700 -0.5974 -1.3108 -0.4452
30654SOL    HW296774   1.424  10.916  10.558  0.4556  1.1545  0.4105
30655SOL     OW96775  11.664   3.578   6.367  0.0130 -1.2286  0.1961
30655SOL    HW196776  11.581   3.585   6.415  0.1410 -1.7112  0.4901
30655SOL    HW296777  11.677   3.665   6.330  0.0046 -0.7931  1.1972
30656SOL     OW96778   5.032   5.780   6.728  0.1093 -0.5231  0.2648
30656SOL    HW196779   5.123   5.751   6.724  0.2771  0.0853 -0.8642
30656SOL    HW296780   4.999   5.744   6.809  1.1898 -1.2605  0.4003
30657SOL     OW96781   7.549  11.576   4.751 -0.0916 -0.1019 -0.0775
30657SOL    HW196782   7.569  11.593   4.659  1.0392 -1.7675 -0.1806
30657SOL    HW296783   7.535  11.481   4.756 -0.6905  0.0262  1.3721
30658SOL     OW96784  11.101   4.340   0.617 -0.0434 -0.2219  0.8887
30658SOL    HW196785  11.012   4.306   0.606 -0.3648  1.2515 -1.8448
30658SOL    HW296786  11.092   4.410   0.682 -1.0644  0.4076  0.1024
30659SOL     OW96787   6.170   7.566   5.413 -0.0879 -0.0178 -0.1567
30659SOL    HW196788   6.165   7.627   5.486 -2.4124 -0.4459  0.1012
30659SOL    HW296789   6.121   7.608   5.343 -1.2420 -1.3121 -0.1594
30660SOL     OW96790  11.614   3.584  11.102 -0.4500  0.4917 -0.0243
30660SOL    HW196791  11.670   3.580  11.180  1.1065 -1.9161 -1.1432
30660SOL    HW296792  11.593   3.677  11.092  0.8020  1.0889  2.1894
30661SOL     OW96793   6.886   0.215  11.832  0.3009  0.1182  0.0051
30661SOL    HW196794   6.935   0.156  11.888  1.1658  0.5012 -0.3292
30661SOL    HW296795   6.890   0.174  11.745 -0.8375 -0.3581  0.1590
30662SOL     OW96796   9.576   5.716  11.573 -0.0125  0.5061  0.1222
30662SOL    HW196797   9.564   5.703  11.667  0.1572  2.5598  0.4722
30662SOL    HW296798   9.518   5.789  11.551 -1.6009 -1.2211 -1.8234
30663SOL     OW96799   6.621   6.200   1.513 -0.2162 -0.1732  0.0110
30663SOL    HW196800   6.625   6.245   1.429  1.0330  0.7477  0.5432
30663SOL    HW296801   6.698   6.144   1.514  2.1820  2.8501  2.1617
30664SOL     OW96802   7.770   8.489   8.696 -0.5135  0.2177 -0.2091
30664SOL    HW196803   7.862   8.491   8.719 -0.6856 -1.4547  0.8236
30664SOL    HW296804   7.724   8.500   8.779 -1.2912  2.0429 -0.8317
30665SOL     OW96805  11.917   6.994  12.115 -0.8506  0.0967 -0.3202
30665SOL    HW196806  11.912   7.060  12.046  0.0415 -0.5576 -1.0555
30665SOL    HW296807  11.876   6.917  12.077  0.2522 -0.4767 -0.4074
30666SOL     OW96808   1.209  12.135   2.803 -0.3916 -0.5525  0.2797
30666SOL    HW196809   1.210  12.040   2.793  0.3763 -0.8283  2.3713
30666SOL    HW296810   1.169  12.149   2.889  2.2247  0.7893  1.3704
30667SOL     OW96811   0.677   6.628   2.374  0.0771  0.1999 -0.5286
30667SOL    HW196812   0.602   6.684   2.392  0.0413 -0.1183  0.3538
30667SOL    HW296813   0.749   6.689   2.356  0.8070  0.7357  3.3101
30668SOL     OW96814  11.601   0.793   9.352  0.2160 -0.3957  0.3757
30668SOL    HW196815  11.552   0.717   9.384 -0.6935 -0.1598 -0.4215
30668SOL    HW296816  11.686   0.758   9.328 -0.1976 -1.1790 -0.0025
30669SOL     OW96817   4.612   5.653   7.972 -0.8784  0.4788 -0.5540
30669SOL    HW196818   4.519   5.640   7.953 -0.8432  1.7717 -1.7815
30669SOL    HW296819   4.656   5.579   7.928 -1.2626  0.3020 -0.6399
30670SOL     OW96820   5.883   5.373   3.450  0.0886  0.0344 -0.3357
30670SOL    HW196821   5.837   5.413   3.523  0.2037  1.7156 -1.1406
30670SOL    HW296822   5.844   5.413   3.372  2.3941  1.0356 -1.0648
30671SOL     OW96823  10.424   3.294   3.363  0.7196 -0.6631 -0.1338
30671SOL    HW196824  10.372   3.268   3.286  0.7764  0.8296 -0.7116
30671SOL    HW296825  10.500   3.236   3.361  1.1897 -0.0431 -1.7691
30672SOL     OW96826   5.841   7.205   9.912 -0.3921 -0.0963  0.3881
30672SOL    HW196827   5.921   7.219   9.964 -0.4917 -1.7139  1.0192
30672SOL    HW296828   5.780   7.164   9.972 -1.3853  0.2611 -0.3559
30673SOL     OW96829  11.188   2.659   8.565 -0.1545 -0.2067  0.1101
30673SOL    HW196830  11.167   2.607   8.642 -0.3130 -1.0425 -0.4819
30673SOL    HW296831  11.118   2.639   8.502 -0.1427  0.6145 -0.1796
30674SOL     OW96832  10.177   7.740   0.975  0.0828  0.2884  0.1554
30674SOL    HW196833  10.221   7.783   1.048  0.2673 -1.0200  0.8414
30674SOL    HW296834  10.089   7.721   1.008 -0.8150  2.1928 -0.9472
30675SOL     OW96835   0.169   4.939   6.496 -0.0184 -0.1429  0.7566
30675SOL    HW196836   0.239   4.894   6.543  0.2426 -1.2308 -0.6231
30675SOL    HW296837   0.089   4.892   6.520 -0.0417  0.0226  1.0029
30676SOL     OW96838   5.053   4.978   4.202 -0.0616 -0.4590 -0.0886
30676SOL    HW196839   5.088   4.940   4.283 -0.0356  0.5917  0.4138
30676SOL    HW296840   5.058   4.907   4.138 -0.5217 -1.4555  0.9471
30677SOL     OW96841   4.123   9.278   1.831  0.1327 -0.2549  0.2633
30677SOL    HW196842   4.107   9.309   1.920  1.3044  1.6997 -0.1596
30677SOL    HW296843   4.212   9.306   1.811 -0.1659 -0.5212 -1.5892
30678SOL     OW96844   4.152   2.448   2.011 -0.0319 -0.0088 -0.4314
30678SOL    HW196845   4.087   2.392   1.969 -0.5218 -0.4081  0.8208
30678SOL    HW296846   4.127   2.537   1.986  0.0710 -0.2532 -1.4807
30679SOL     OW96847  10.186   4.268   8.549  0.2531 -0.5348 -0.2321
30679SOL    HW196848  10.198   4.291   8.457 -1.6462 -3.0843 -1.2355
30679SOL    HW296849  10.091   4.262   8.560  0.3222  1.3551  2.4247
30680SOL     OW96850   7.289   2.299   7.018  0.1277  0.5903 -0.5015
30680SOL    HW196851   7.222   2.277   7.082 -0.0249 -0.4111 -0.9784
30680SOL    HW296852   7.355   2.229   7.028  0.2973  0.6508 -1.1517
30681SOL     OW96853   5.693   1.508   5.061  0.5619  0.1960 -0.3156
30681SOL    HW196854   5.753   1.498   5.135 -0.0650  1.3579  0.3751
30681SOL    HW296855   5.749   1.516   4.985  1.3066  1.5916  0.3533
30682SOL     OW96856  10.687   7.473   0.740 -0.1169  0.0686 -0.5092
30682SOL    HW196857  10.768   7.481   0.689  0.3911  1.0790  0.4207
30682SOL    HW296858  10.680   7.556   0.786 -2.4362  0.5577 -1.6228
30683SOL     OW96859   1.862   1.186   4.636 -0.4366  0.0832  0.2519
30683SOL    HW196860   1.903   1.100   4.624 -0.1363  0.0186  1.6601
30683SOL    HW296861   1.863   1.224   4.548  1.3704 -0.4813 -0.0291
30684SOL     OW96862   9.681   7.832   3.481  0.1724  0.0337  0.1476
30684SOL    HW196863   9.661   7.739   3.467  0.1888 -0.0183  0.4723
30684SOL    HW296864   9.736   7.833   3.558 -1.0296  0.4286  1.0335
30685SOL     OW96865   4.404   1.469   5.139  0.1964 -0.2770  0.3858
30685SOL    HW196866   4.437   1.559   5.133  1.1421 -0.6478 -0.2415
30685SOL    HW296867   4.401   1.439   5.048  2.1893 -1.6586  0.6936
30686SOL     OW96868   3.586   3.854   7.030  0.2297 -0.2022 -0.5185
30686SOL    HW196869   3.556   3.938   6.996 -0.8846 -0.0094  0.8513
30686SOL    HW296870   3.681   3.853   7.013  0.0971  0.8949 -1.4049
30687SOL     OW96871   9.136   7.824   8.811 -0.4042  0.4264 -0.1928
30687SOL    HW196872   9.160   7.735   8.835 -0.5440  0.3413 -0.3629
30687SOL    HW296873   9.078   7.852   8.881 -1.1410  0.0306 -0.6255
30688SOL     OW96874   9.549   4.693   3.722  0.1684 -0.0025  0.6463
30688SOL    HW196875   9.537   4.600   3.739 -2.0205 -0.0406 -0.7170
30688SOL    HW296876   9.469   4.734   3.757  0.2098  1.0950 -0.4714
30689SOL     OW96877   2.018  11.926  10.090 -0.0791 -0.2205  0.1044
30689SOL    HW196878   2.040  11.837  10.063 -0.6827 -0.8724  1.6321
30689SOL    HW296879   2.019  11.977  10.009 -1.6218 -1.9944 -1.1107
30690SOL     OW96880   0.447   2.896   7.161  0.2696 -0.8249  0.6851
30690SOL    HW196881   0.372   2.839   7.175  0.0188 -0.6515  0.1048
30690SOL    HW296882   0.463   2.937   7.246  0.8993 -2.2790  1.2989
30691SOL     OW96883  11.735   6.921   0.006  0.4050  0.2281  0.6111
30691SOL    HW196884  11.680   6.969   0.068 -0.4650 -2.3430  1.9629
30691SOL    HW296885  11.809   6.979  -0.010 -1.3586  2.6949  0.7870
30692SOL     OW96886   1.183   6.060   5.190 -0.9615  0.0403  0.3131
30692SOL    HW196887   1.177   6.029   5.281  2.9937  0.2256  0.7912
30692SOL    HW296888   1.163   6.153   5.194  1.7605  0.6725  1.6172
30693SOL     OW96889   1.866   6.099   7.172 -0.0634  0.5796 -0.3833
30693SOL    HW196890   1.850   6.037   7.101  1.2047 -0.3157  0.0656
30693SOL    HW296891   1.949   6.070   7.210 -1.7149 -0.3543  2.8764
30694SOL     OW96892   1.396   6.841  12.019  0.2311 -0.3372  0.6165
30694SOL    HW196893   1.304   6.814  12.032 -0.2631  1.2861  0.7119
30694SOL    HW296894   1.440   6.815  12.100 -0.6967  1.0224  1.5875
30695SOL     OW96895   9.802   2.015   8.187  0.4004  0.3802 -0.0357
30695SOL    HW196896   9.729   1.966   8.225 -0.5300 -0.1672 -2.3502
30695SOL    HW296897   9.771   2.040   8.100  3.2674 -0.6537 -1.4871
30696SOL     OW96898   7.130   2.936   7.238  0.2836  0.6528 -0.4208
30696SOL    HW196899   7.070   2.957   7.167  0.0116  1.4042  0.0120
30696SOL    HW296900   7.084   2.872   7.291  0.3518  0.3397 -0.7376
30697SOL     OW96901  10.184  10.890   9.750 -0.0032 -0.5889  0.0858
30697SOL    HW196902  10.124  10.930   9.686 -3.4970  0.7974  3.7929
30697SOL    HW296903  10.148  10.802   9.765 -0.6088 -0.1242  1.5758
30698SOL     OW96904   0.193   1.767   9.888  0.3875 -0.2932  0.0175
30698SOL    HW196905   0.155   1.733   9.807 -0.8959  1.3350 -0.1248
30698SOL    HW296906   0.118   1.802   9.937  1.3950  0.6981  0.9229
30699SOL     OW96907   2.405   0.444   8.487  0.0956 -0.2471  0.1342
30699SOL    HW196908   2.498   0.465   8.481  0.0339  0.0664  0.2182
30699SOL    HW296909   2.361   0.528   8.471 -0.1714 -0.4010  0.0594
30700SOL     OW96910  11.997   8.809   2.709 -0.0143 -0.4212  0.0403
30700SOL    HW196911  11.952   8.839   2.630  1.6744 -1.5571 -1.4231
30700SOL    HW296912  12.073   8.867   2.717 -0.1313 -0.3629  0.8039
30701SOL     OW96913  10.525  11.017   0.470 -0.0047 -0.4268  0.4051
30701SOL    HW196914  10.443  11.064   0.483 -0.6200 -1.1169 -0.9001
30701SOL    HW296915  10.511  10.932   0.512 -1.1161 -1.7188 -2.3274
30702SOL     OW96916  11.363   1.538   6.408 -0.5480  0.5846  0.0132
30702SOL    HW196917  11.353   1.475   6.480  1.9362  2.0268  1.7643
30702SOL    HW296918  11.327   1.619   6.443  1.0514  1.4077 -0.1600
30703SOL     OW96919   3.298   2.400   3.384 -0.1277 -0.0455 -0.3362
30703SOL    HW196920   3.274   2.491   3.367  0.3819  0.0555 -0.5460
30703SOL    HW296921   3.277   2.354   3.302  0.2483  0.0152 -0.4683
30704SOL     OW96922  12.480  10.457   5.869  0.6299 -0.3564 -0.6681
30704SOL    HW196923  12.470  10.362   5.864 -0.6008 -0.3845  1.2071
30704SOL    HW296924  12.391  10.490   5.873  1.0561  0.7490  0.2400
30705SOL     OW96925   8.214   4.586   5.632 -0.3536 -0.0875 -0.0953
30705SOL    HW196926   8.164   4.541   5.564  1.3768 -2.2018 -0.0866
30705SOL    HW296927   8.302   4.595   5.596  0.6211 -1.2813  1.8091
30706SOL     OW96928   6.740  10.988  10.005  0.6673 -0.7590 -0.4661
30706SOL    HW196929   6.671  11.030  10.056  0.7989  0.4243 -1.2379
30706SOL    HW296930   6.734  11.028   9.919  1.4367 -1.6404 -0.9458
30707SOL     OW96931   7.303   3.962   2.855 -0.4964  0.9688 -0.4863
30707SOL    HW196932   7.324   4.052   2.831  2.4831  0.5472  0.1255
30707SOL    HW296933   7.269   3.968   2.945  0.8533  1.4165  0.0165
30708SOL     OW96934   9.314   5.112   7.611  0.1772  0.4312 -0.1197
30708SOL    HW196935   9.328   5.031   7.562 -0.0101  0.8031 -0.8009
30708SOL    HW296936   9.224   5.107   7.641  0.2241  0.3014  0.0018
30709SOL     OW96937   1.908   6.167   5.494  0.2740 -0.2602  0.0617
30709SOL    HW196938   1.989   6.126   5.525  0.0626  0.1502  1.2135
30709SOL    HW296939   1.845   6.153   5.564 -0.0424  1.2910  0.1324
30710SOL     OW96940   4.406   6.456   5.701 -0.1208 -0.4060  0.3940
30710SOL    HW196941   4.403   6.454   5.797  0.6706 -0.3689  0.4265
30710SOL    HW296942   4.498   6.442   5.680  0.5457  3.6280 -0.2230
30711SOL     OW96943   7.012   1.176   8.347 -0.8053 -0.0476  0.4424
30711SOL    HW196944   6.956   1.101   8.362  0.5826 -1.3976 -0.7388
30711SOL    HW296945   6.998   1.199   8.255 -0.7161  0.6898  0.6092
30712SOL     OW96946   0.633   4.147   4.065 -0.1748 -0.1434 -0.0266
30712SOL    HW196947   0.608   4.055   4.065 -1.1666  0.1181  0.7850
30712SOL    HW296948   0.678   4.160   4.148  0.2048  0.0523 -0.2580
30713SOL     OW96949  11.170   1.556   1.583 -0.0648  0.4055 -0.0558
30713SOL    HW196950  11.077   1.541   1.569 -0.3069  1.6088  0.1242
30713SOL    HW296951  11.188   1.640   1.540  1.1108 -0.1849 -0.7696
30714SOL     OW96952   8.079  11.371   0.111  0.3333 -0.2206  0.6774
30714SOL    HW196953   8.011  11.411   0.057  0.1314 -1.7961 -0.3099
30714SOL    HW296954   8.039  11.360   0.197 -1.3483 -2.5939 -0.2878
30715SOL     OW96955   1.209   1.650  11.234 -0.1707  0.1081  0.4596
30715SOL    HW196956   1.209   1.711  11.309 -0.6854  1.5937 -0.6980
30715SOL    HW296957   1.268   1.580  11.261  0.2541  0.9868  1.9662
30716SOL     OW96958  12.621   5.872   8.161  0.2801 -0.0298  0.4172
30716SOL    HW196959  12.562   5.883   8.087  0.6953  1.3670  0.2630
30716SOL    HW296960  12.704   5.909   8.131  0.4869  0.4605  1.5346
30717SOL     OW96961  10.522   4.058   6.031  0.5290 -0.4281  0.4816
30717SOL    HW196962  10.520   4.050   5.936 -0.0491  0.3685  0.4192
30717SOL    HW296963  10.615   4.051   6.054  0.7242 -0.0864 -0.1835
30718SOL     OW96964   4.852   0.572   9.538 -0.2437 -0.0052  0.8742
30718SOL    HW196965   4.867   0.484   9.505 -1.1222  0.1569 -0.0287
30718SOL    HW296966   4.772   0.601   9.494 -0.6952  0.7613  2.1252
30719SOL     OW96967   6.410   9.607  10.636 -0.5113 -0.4209  0.1096
30719SOL    HW196968   6.486   9.652  10.673 -0.6742  0.9914 -1.1883
30719SOL    HW296969   6.338   9.670  10.644 -0.7726 -0.4402 -1.6333
30720SOL     OW96970   6.094   6.633   9.570  0.2607  0.6243  0.4300
30720SOL    HW196971   6.063   6.647   9.480 -0.3278 -2.6688  0.0028
30720SOL    HW296972   6.016   6.604   9.617  1.0255  0.1785  1.4412
30721SOL     OW96973   7.640   3.808   1.357  0.2676 -0.4417  0.3685
30721SOL    HW196974   7.682   3.727   1.327  0.7306 -1.3680  3.2006
30721SOL    HW296975   7.578   3.779   1.424 -0.0491  1.5132  0.9778
30722SOL     OW96976   3.651   7.047   2.022  0.1809  0.4011 -0.7165
30722SOL    HW196977   3.674   6.956   2.042 -0.9125  0.3342  0.3223
30722SOL    HW296978   3.731   7.084   1.984  0.0060 -1.5714 -3.2087
30723SOL     OW96979  12.009   6.772   1.203  0.2913 -0.1743  0.6244
30723SOL    HW196980  12.071   6.707   1.171 -0.2280 -0.1956 -0.3699
30723SOL    HW296981  11.959   6.726   1.271 -0.6243 -1.0907 -0.6368
30724SOL     OW96982   9.358   5.140   4.472  0.1396  0.0732  0.2317
30724SOL    HW196983   9.267   5.142   4.501 -0.0693 -0.3821 -0.3781
30724SOL    HW296984   9.365   5.210   4.407 -0.4072 -1.4174 -1.5031
30725SOL     OW96985  12.058  10.533   1.548  0.1327 -0.5191 -0.1232
30725SOL    HW196986  12.108  10.467   1.501  1.3108  1.7887 -2.4076
30725SOL    HW296987  12.117  10.609   1.553 -1.8651  1.1103  0.2954
30726SOL     OW96988   5.750   2.540   5.535  0.2860 -0.0896  0.1974
30726SOL    HW196989   5.761   2.635   5.543 -1.9621  0.3175 -0.7342
30726SOL    HW296990   5.667   2.530   5.489  0.4526 -2.5339  0.3256
30727SOL     OW96991   1.637   2.470  10.666  0.0409  0.3277  0.2328
30727SOL    HW196992   1.664   2.402  10.728 -2.5553  0.4227  1.5718
30727SOL    HW296993   1.717   2.520  10.650  1.5925 -1.8715  0.6601
30728SOL     OW96994   5.087   8.590   7.295  0.0560  0.5111 -0.5056
30728SOL    HW196995   5.056   8.617   7.209 -1.2643 -2.1567 -0.9589
30728SOL    HW296996   5.162   8.534   7.277 -0.0418  0.1743  0.1080
30729SOL     OW96997   6.092   6.502   0.571  0.1912 -0.5738  0.0199
30729SOL    HW196998   6.116   6.496   0.663 -1.8696 -0.0032  0.6460
30729SOL    HW296999   6.076   6.595   0.556 -0.1156 -0.7387 -0.7453
30730SOL     OW97000   0.541   5.684   9.027 -0.0667  0.1978  0.0008
30730SOL    HW197001   0.593   5.639   9.093  1.0450 -0.7202 -1.4190
30730SOL    HW297002   0.600   5.751   8.991 -0.4924  0.3934 -0.3426
30731SOL     OW97003   4.740   6.581  10.804 -0.4041  0.0483  0.8979
30731SOL    HW197004   4.655   6.621  10.820 -0.7642 -1.1506  2.1869
30731SOL    HW297005   4.721   6.488  10.794  0.8401 -0.3948  2.2353
30732SOL     OW97006   9.673   8.362   7.987  0.2960 -0.2825 -0.0580
30732SOL    HW197007   9.676   8.457   7.983 -1.0143 -0.1705  1.0810
30732SOL    HW297008   9.664   8.334   7.895  1.0063  0.6453 -0.4288
30733SOL     OW97009   4.517   4.126   6.005  0.0156  0.0995  0.2954
30733SOL    HW197010   4.519   4.200   6.066 -0.6522  1.2313 -1.0002
30733SOL    HW297011   4.523   4.049   6.061 -1.1077  1.0664  1.8330
30734SOL     OW97012   2.243  12.592   2.188  0.2599 -0.3636  0.2820
30734SOL    HW197013   2.164  12.543   2.166 -0.1299  0.4568 -0.1631
30734SOL    HW297014   2.214  12.654   2.256  0.4549  0.1042 -0.0566
30735SOL     OW97015   6.748   1.570   5.906  0.5622  0.5466  0.0420
30735SOL    HW197016   6.782   1.533   5.987 -0.4523 -0.8930 -0.1535
30735SOL    HW297017   6.659   1.599   5.929  0.2751  0.1419 -0.5315
30736SOL     OW97018  11.857   6.902   0.331 -0.2051 -0.4962  0.3247
30736SOL    HW197019  11.907   6.954   0.394 -0.4293 -0.0633  0.1503
30736SOL    HW297020  11.768   6.936   0.337 -0.5179 -1.3500  0.7260
30737SOL     OW97021   7.238   5.588   5.969  0.3271  0.5678  0.2929
30737SOL    HW197022   7.314   5.641   5.946  0.4376  0.7988  1.1872
30737SOL    HW297023   7.163   5.643   5.946  0.4048  0.2996 -0.6894
30738SOL     OW97024   7.432  12.142   4.968  0.2758 -0.5035  0.5037
30738SOL    HW197025   7.499  12.176   5.028  0.3920 -1.0169  0.6679
30738SOL    HW297026   7.478  12.077   4.915  0.4004  0.5940 -0.7773
30739SOL     OW97027   3.981  10.988   5.467  0.0765 -0.4622  0.2848
30739SOL    HW197028   3.921  10.983   5.392  2.3885 -0.1025 -1.7082
30739SOL    HW297029   3.979  11.080   5.493 -0.1215 -0.4238  0.1358
30740SOL     OW97030   5.383   3.820  11.219 -0.4775  0.2258 -0.5165
30740SOL    HW197031   5.373   3.863  11.304  0.7045 -0.7268  0.1373
30740SOL    HW297032   5.339   3.736  11.229  0.1105 -0.1049 -0.6787
30741SOL     OW97033   9.825   4.791  11.154  0.0332  0.1767 -0.6067
30741SOL    HW197034   9.853   4.820  11.240 -0.9922  1.0948 -0.5550
30741SOL    HW297035   9.775   4.865  11.119 -0.6145 -0.6441 -1.4733
30742SOL     OW97036   8.196   1.582   7.283  0.5058  0.0868  0.2422
30742SOL    HW197037   8.180   1.617   7.371  1.4190 -0.7981  0.7856
30742SOL    HW297038   8.142   1.636   7.226 -0.3202  0.5089  1.3758
30743SOL     OW97039   2.269  10.085   0.758 -0.0567  0.5018  0.0912
30743SOL    HW197040   2.308  10.131   0.684  0.0398  0.3446  0.0435
30743SOL    HW297041   2.321  10.005   0.767  1.6324  1.7032  1.9379
30744SOL     OW97042  11.230   4.064   5.341  0.4354 -0.3572  0.4042
30744SOL    HW197043  11.258   4.002   5.408  0.2837  1.9348  2.7072
30744SOL    HW297044  11.142   4.035   5.317  0.8216 -1.7062  0.5349
30745SOL     OW97045   9.368  11.425   9.279  0.5823 -0.3108  0.7424
30745SOL    HW197046   9.441  11.395   9.332  2.3815  1.2696 -0.6784
30745SOL    HW297047   9.386  11.391   9.191  0.4573  1.3144  0.0417
30746SOL     OW97048   9.136  11.433   7.430 -0.2336  0.1328  0.2447
30746SOL    HW197049   9.178  11.446   7.345 -0.7566  1.1942  0.1250
30746SOL    HW297050   9.089  11.350   7.422 -0.4407  0.3197 -0.5830
30747SOL     OW97051   8.015   0.341   6.409  0.1771 -0.5625 -0.2244
30747SOL    HW197052   7.951   0.343   6.479 -1.0582  1.2684 -1.3250
30747SOL    HW297053   8.043   0.433   6.399  2.4399 -1.1912 -0.2662
30748SOL     OW97054   8.548   9.749   9.537  0.2587 -0.1027 -0.0134
30748SOL    HW197055   8.528   9.740   9.631  0.5293 -0.9795 -0.0282
30748SOL    HW297056   8.463   9.763   9.496  0.0539 -0.3941  0.2978
30749SOL     OW97057   9.792   7.747   9.927 -0.2534 -0.1429  0.7063
30749SOL    HW197058   9.753   7.817   9.875  0.8632  0.9925  1.3456
30749SOL    HW297059   9.821   7.683   9.863 -0.3944  0.4486  0.0338
30750SOL     OW97060   5.670   5.575  10.444  0.4212 -0.2262 -0.2076
30750SOL    HW197061   5.631   5.579  10.532 -1.8555 -0.3178 -1.1566
30750SOL    HW297062   5.758   5.540  10.459  0.4951  0.7772  2.1438
30751SOL     OW97063   0.387  11.796  10.376 -0.4185  0.6937 -0.9466
30751SOL    HW197064   0.479  11.770  10.382 -0.8086 -0.4834  3.7003
30751SOL    HW297065   0.389  11.891  10.367  1.3482  0.8690  0.6208
30752SOL     OW97066   7.265   8.996   4.606  0.5621  0.4495 -0.4613
30752SOL    HW197067   7.307   8.950   4.678  0.9188 -0.5384 -1.2715
30752SOL    HW297068   7.331   9.057   4.574  0.0347  1.7053  0.7174
30753SOL     OW97069   2.889   2.014   1.479 -0.0106  0.1364 -0.6932
30753SOL    HW197070   2.861   1.974   1.397  1.4385  1.5905 -1.9358
30753SOL    HW297071   2.952   1.952   1.516 -0.0063 -0.1037 -1.1046
30754SOL     OW97072   3.014   9.849   9.079 -0.0644 -0.5648 -0.1243
30754SOL    HW197073   2.995   9.765   9.038 -0.6802 -0.1091 -0.7842
30754SOL    HW297074   2.940   9.865   9.137 -1.0382  0.5076 -1.5891
30755SOL     OW97075   3.577   7.311   7.966  0.4870 -0.4401  0.1938
30755SOL    HW197076   3.552   7.238   8.023 -0.8863 -1.9031 -2.1186
30755SOL    HW297077   3.660   7.283   7.927 -1.2393 -2.1938 -2.6641
30756SOL     OW97078   8.566   0.916   3.704 -0.5248 -0.4339 -0.1213
30756SOL    HW197079   8.662   0.924   3.704 -0.3188 -2.4849  0.2590
30756SOL    HW297080   8.541   0.931   3.795 -0.5443 -0.2715 -0.1520
30757SOL     OW97081   1.410  10.252   0.655 -0.4929 -0.0615  0.0143
30757SOL    HW197082   1.499  10.221   0.669 -0.2673 -0.9643 -2.8613
30757SOL    HW297083   1.380  10.277   0.742  2.2007 -0.6478  1.2197
30758SOL     OW97084   4.205   1.102   3.666 -0.0101  0.2516  0.4474
30758SOL    HW197085   4.230   1.163   3.597 -3.1298 -1.0960 -2.1584
30758SOL    HW297086   4.127   1.142   3.705  0.0818 -0.3442  1.2698
30759SOL     OW97087   6.802   2.615   2.813  0.0302 -0.9674 -0.2215
30759SOL    HW197088   6.709   2.620   2.792 -0.4461  0.2435  1.9271
30759SOL    HW297089   6.809   2.544   2.876  0.6335 -1.2348 -0.5737
30760SOL     OW97090   3.281   5.878  11.036  0.2196  0.3966 -0.3805
30760SOL    HW197091   3.271   5.973  11.028  0.4296  0.4930  0.4948
30760SOL    HW297092   3.352   5.866  11.098  0.0494 -0.3410 -0.3229
30761SOL     OW97093   8.444   4.076   0.074 -0.4927  0.1226 -0.1299
30761SOL    HW197094   8.508   4.098   0.008  0.3167 -1.4781  0.0724
30761SOL    HW297095   8.494   4.034   0.144 -1.4052  1.2125  1.2344
30762SOL     OW97096   0.308   5.602   0.940 -0.0547 -0.1536  0.3463
30762SOL    HW197097   0.255   5.625   1.017 -2.1443  0.7260 -1.2607
30762SOL    HW297098   0.361   5.527   0.969  0.4734  1.1462  3.1003
30763SOL     OW97099   6.962   9.154   3.086 -0.3902 -0.1416 -0.2364
30763SOL    HW197100   6.899   9.225   3.097  0.3518  0.2180  2.4477
30763SOL    HW297101   6.910   9.074   3.091 -1.1896  0.1112 -2.9811
30764SOL     OW97102   0.866   1.823   9.988  0.6687 -0.2936 -0.4467
30764SOL    HW197103   0.895   1.808   9.898 -0.6713 -1.0669 -0.7824
30764SOL    HW297104   0.927   1.773  10.041 -0.9514 -3.4192 -1.2523
30765SOL     OW97105   9.478  10.199  11.123  0.2152 -0.0217  0.3305
30765SOL    HW197106   9.504  10.154  11.203  0.6896 -1.0535 -0.3944
30765SOL    HW297107   9.525  10.282  11.126  1.0631 -0.4983  0.6141
30766SOL     OW97108   4.450  10.533   5.616  0.5395  0.3464 -0.1732
30766SOL    HW197109   4.367  10.581   5.620  0.0357 -0.4992 -0.3759
30766SOL    HW297110   4.504  10.585   5.555  1.0345  2.1652  1.6803
30767SOL     OW97111   8.669   7.851   8.643  0.3975 -1.0586 -0.8447
30767SOL    HW197112   8.618   7.770   8.638  1.4487 -1.8835  0.7960
30767SOL    HW297113   8.712   7.847   8.729 -0.2159  1.6688 -0.3156
30768SOL     OW97114   3.262   9.569   2.574 -0.1644 -0.5391  0.9106
30768SOL    HW197115   3.355   9.589   2.559 -0.6085  0.0812 -1.3828
30768SOL    HW297116   3.224   9.653   2.601 -0.4255 -0.2978 -0.1825
30769SOL     OW97117   0.020   1.805   7.512  0.2721  0.0142 -0.3898
30769SOL    HW197118   0.007   1.830   7.604  0.1373  1.4832 -0.7918
30769SOL    HW297119   0.110   1.772   7.510 -0.6778 -2.9898  0.8589
30770SOL     OW97120  11.894   6.403   6.677  0.2406 -0.3107  0.4044
30770SOL    HW197121  11.864   6.494   6.673  1.7411  0.2332  0.9219
30770SOL    HW297122  11.949   6.392   6.600 -0.2952 -0.9216  0.1049
30771SOL     OW97123   3.121   7.017   9.165  0.6994 -0.3213  0.2890
30771SOL    HW197124   3.203   7.041   9.122  0.5913  2.1575  1.3281
30771SOL    HW297125   3.146   6.997   9.255  0.1805  0.3911  0.5969
30772SOL     OW97126   1.145  11.335   7.061  0.1144 -1.1626 -0.4333
30772SOL    HW197127   1.106  11.361   6.977  0.2950  1.9006  0.3021
30772SOL    HW297128   1.237  11.362   7.053 -0.4216  1.6648  1.5641
30773SOL     OW97129  10.576   4.458   1.551  0.0636  0.4743 -0.2357
30773SOL    HW197130  10.612   4.378   1.511 -1.2389  0.8477 -2.3061
30773SOL    HW297131  10.481   4.447   1.544 -0.1378  2.1285 -0.3546
30774SOL     OW97132   2.597  10.291   3.327 -0.1135 -0.1943  0.0478
30774SOL    HW197133   2.638  10.333   3.251  1.9914  1.0570  1.7636
30774SOL    HW297134   2.571  10.205   3.296 -0.0661  0.5739 -2.2955
30775SOL     OW97135   7.817  10.547   8.004  0.3745 -0.0989 -0.1158
30775SOL    HW197136   7.737  10.547   8.057 -0.5852  1.8465 -1.4531
30775SOL    HW297137   7.813  10.465   7.954  0.2459 -0.9458  1.2345
30776SOL     OW97138   3.640   9.573   0.036  0.3007 -0.0631 -0.0166
30776SOL    HW197139   3.608   9.539   0.120  0.6487  0.2163  0.2328
30776SOL    HW297140   3.611   9.509  -0.029  0.5261 -0.5791  0.3873
30777SOL     OW97141  10.739   9.766  11.780 -0.0212  0.2053  0.6155
30777SOL    HW197142  10.799   9.837  11.802  1.7306 -0.6356 -1.0813
30777SOL    HW297143  10.681   9.759  11.855  1.4523  1.6660  1.9698
30778SOL     OW97144   9.205   2.676   2.024  0.1670 -0.5466  0.5301
30778SOL    HW197145   9.283   2.712   1.982  0.3019 -0.9391  0.4345
30778SOL    HW297146   9.134   2.734   1.996  0.3044 -0.6239  0.0046
30779SOL     OW97147   0.247   3.264   4.285 -0.2058 -0.2827  0.2986
30779SOL    HW197148   0.167   3.211   4.290 -1.5965  1.8152  2.0551
30779SOL    HW297149   0.315   3.208   4.323 -1.6387 -0.8391  2.1644
30780SOL     OW97150  11.730   7.494  10.408 -0.3803 -0.1164 -0.0730
30780SOL    HW197151  11.771   7.551  10.472 -0.6071 -0.6337  0.5448
30780SOL    HW297152  11.801   7.471  10.347  0.0029 -0.1935  0.4006
30781SOL     OW97153   3.724   9.697   6.318 -0.0042 -0.6823  0.1758
30781SOL    HW197154   3.754   9.610   6.346 -1.1565  0.1461  4.8063
30781SOL    HW297155   3.677   9.732   6.394 -1.7175  3.0910 -2.3040
30782SOL     OW97156   5.633   1.351   3.178  0.3298  0.2531  0.0523
30782SOL    HW197157   5.546   1.385   3.158  1.1123  2.7294  0.5275
30782SOL    HW297158   5.617   1.272   3.230 -1.6060 -0.0863 -0.9546
30783SOL     OW97159  11.777  11.800   4.540  0.1381 -0.3695 -0.0141
30783SOL    HW197160  11.800  11.759   4.623 -1.6077  0.5526  0.9849
30783SOL    HW297161  11.814  11.889   4.546  0.8919 -0.6192 -0.6937
30784SOL     OW97162   9.416   5.554   2.660  0.3529 -0.5983  0.5174
30784SOL    HW197163   9.488   5.542   2.722 -0.3574  1.5719  1.8807
30784SOL    HW297164   9.337   5.550   2.714 -0.3919 -0.5415 -0.5459
30785SOL     OW97165  11.109   2.544   6.448  0.1455 -0.6489  0.0054
30785SOL    HW197166  11.162   2.617   6.415 -1.8580  1.1067  0.4795
30785SOL    HW297167  11.109   2.555   6.543 -2.5841  0.5798 -0.0703
30786SOL     OW97168   5.892   7.308   7.382 -0.4279 -0.3553  0.3503
30786SOL    HW197169   5.865   7.385   7.432 -0.0757 -0.5454  0.8392
30786SOL    HW297170   5.838   7.237   7.415 -1.5208 -0.1218 -0.8532
30787SOL     OW97171   7.879   5.094   3.532 -0.2747 -0.1992 -0.0081
30787SOL    HW197172   7.905   5.005   3.555  0.4955  0.3819  1.4945
30787SOL    HW297173   7.792   5.105   3.571 -0.0277 -0.0364  0.5034
30788SOL     OW97174   5.120   0.694   1.376 -0.0012  0.5084  0.1257
30788SOL    HW197175   5.158   0.723   1.294  0.3035 -0.5606 -0.1269
30788SOL    HW297176   5.183   0.631   1.411 -1.6129 -1.5535 -0.4563
30789SOL     OW97177   2.526   0.348  11.044 -0.3855  0.0072  0.0888
30789SOL    HW197178   2.440   0.332  11.081 -0.3605 -1.6221 -0.4973
30789SOL    HW297179   2.587   0.305  11.104  0.0508  1.1754  0.5220
30790SOL     OW97180  10.537   3.426   5.658  0.1287 -0.0297 -0.6208
30790SOL    HW197181  10.472   3.454   5.593 -2.0931 -1.5210  0.8433
30790SOL    HW297182  10.573   3.345   5.622  0.6012  0.3660 -1.0528
30791SOL     OW97183   2.228   2.112   2.678 -0.1216  0.2497  0.5994
30791SOL    HW197184   2.220   2.063   2.596 -2.0388  1.7349 -0.2035
30791SOL    HW297185   2.182   2.194   2.660  1.1242  1.4321  2.5599
30792SOL     OW97186   1.806   0.555   1.091 -0.0717 -0.2021  0.3928
30792SOL    HW197187   1.901   0.559   1.083 -0.0565 -1.0212  0.0652
30792SOL    HW297188   1.773   0.610   1.020  0.1591  0.7574  1.0194
30793SOL     OW97189   4.467  11.665   6.120 -0.0915  0.1685  0.3853
30793SOL    HW197190   4.389  11.660   6.174 -0.7915  1.1122 -0.4955
30793SOL    HW297191   4.493  11.758   6.123 -0.6578  0.4277 -1.5460
30794SOL     OW97192   9.361   7.024   3.437  0.2360  0.1371  0.4632
30794SOL    HW197193   9.375   7.108   3.394 -0.9122  0.5465  0.8552
30794SOL    HW297194   9.444   6.978   3.428 -0.0316 -0.0025 -2.6365
30795SOL     OW97195   5.456   7.330  10.897  0.0703  0.2979  0.0879
30795SOL    HW197196   5.386   7.389  10.922 -0.7126 -0.3726 -0.4525
30795SOL    HW297197   5.474   7.279  10.976 -1.0837 -0.5229 -0.1488
30796SOL     OW97198  12.154   6.350   3.914 -0.2686  0.1502  0.2128
30796SOL    HW197199  12.134   6.339   4.007 -1.6806  1.7904  0.1479
30796SOL    HW297200  12.069   6.352   3.871  0.3772 -1.2388 -1.2469
30797SOL     OW97201  12.132   5.020   5.899  0.0920 -0.5178  0.4568
30797SOL    HW197202  12.100   5.090   5.842 -1.4646 -0.2458  1.5739
30797SOL    HW297203  12.191   4.969   5.844  1.3354  1.6799 -0.3922
30798SOL     OW97204   8.086   1.197   3.957 -0.2951 -0.3750 -0.5014
30798SOL    HW197205   8.054   1.191   3.867 -0.3506 -0.1678 -0.4961
30798SOL    HW297206   8.011   1.173   4.011 -0.9425  1.6656 -0.4231
30799SOL     OW97207  10.194   1.787   2.361 -0.6507 -0.4674  0.1989
30799SOL    HW197208  10.239   1.871   2.353 -0.7169 -0.1703  2.2975
30799SOL    HW297209  10.126   1.803   2.428 -2.3628 -1.5191 -1.2054
30800SOL     OW97210   0.545   5.200   1.444  0.2414 -0.4610 -0.2060
30800SOL    HW197211   0.528   5.228   1.534 -0.0445  0.0611 -0.4184
30800SOL    HW297212   0.607   5.264   1.410  3.0821 -2.5527  0.6795
30801SOL     OW97213   1.578   8.493  11.252 -0.1275  0.4007 -0.0138
30801SOL    HW197214   1.550   8.403  11.266 -0.2065  0.3022 -0.7709
30801SOL    HW297215   1.558   8.538  11.334  4.1629 -1.2733  2.2484
30802SOL     OW97216   8.796   7.011   5.003 -0.3597 -0.1106  0.2387
30802SOL    HW197217   8.744   6.954   5.061 -0.9858  1.6408  1.4766
30802SOL    HW297218   8.835   7.076   5.062  0.9162  0.3372 -1.0467
30803SOL     OW97219   2.541   6.742   6.880  0.0925  0.1593  0.3684
30803SOL    HW197220   2.592   6.750   6.800  1.8442  0.7875  1.4784
30803SOL    HW297221   2.493   6.824   6.886 -1.8142 -0.7749 -1.1181
30804SOL     OW97222  12.563  10.393   6.702 -0.2429 -0.5261  0.5397
30804SOL    HW197223  12.533  10.484   6.712  2.1235  0.4710 -0.5488
30804SOL    HW297224  12.489  10.347   6.663 -1.7264  0.7476  1.7138
30805SOL     OW97225  10.481   4.141   0.210 -0.2217  0.2978  0.0889
30805SOL    HW197226  10.426   4.144   0.132 -0.6182  0.4079  0.3733
30805SOL    HW297227  10.516   4.230   0.218  1.0184 -0.0677 -0.8094
30806SOL     OW97228   5.861   0.868   8.261 -0.1642 -0.7093 -0.1064
30806SOL    HW197229   5.812   0.937   8.216  0.4201 -0.1469  0.1173
30806SOL    HW297230   5.831   0.873   8.352 -0.4866 -1.0822 -0.1882
30807SOL     OW97231   4.958   7.259   6.738 -0.0451  0.1307  0.2583
30807SOL    HW197232   4.964   7.245   6.832  0.6581  1.3893  0.4305
30807SOL    HW297233   5.040   7.223   6.703  0.1581  0.5767  0.2660
30808SOL     OW97234   1.563   6.190   6.392 -0.2962  0.3110  0.2621
30808SOL    HW197235   1.509   6.245   6.450  0.1683  0.8849  0.1662
30808SOL    HW297236   1.501   6.132   6.349 -0.7335  0.3581  0.8076
30809SOL     OW97237   3.884   7.775   7.573  0.0756  0.1789 -0.2767
30809SOL    HW197238   3.895   7.695   7.521 -1.7154  0.0465 -0.5057
30809SOL    HW297239   3.901   7.749   7.663 -0.3795 -0.4344 -0.3685
30810SOL     OW97240   8.870   9.690   4.933 -0.1021 -0.5507  0.2217
30810SOL    HW197241   8.800   9.711   4.994  0.2940  1.0402  0.1589
30810SOL    HW297242   8.950   9.716   4.978  0.1964  0.6200 -0.9463
30811SOL     OW97243   2.990   8.546   8.937 -0.0782  0.2209  0.1149
30811SOL    HW197244   3.034   8.492   9.003 -0.8397  1.2299  1.4913
30811SOL    HW297245   3.017   8.635   8.956  0.2445  0.4898 -1.4189
30812SOL     OW97246  10.417   4.611   5.208 -0.2155 -0.0549  0.3662
30812SOL    HW197247  10.351   4.664   5.252  1.5091  2.3550  0.2939
30812SOL    HW297248  10.385   4.603   5.118 -0.7585  0.4837  0.5011
30813SOL     OW97249   1.156  11.388   4.694  1.1012 -0.1692  0.0160
30813SOL    HW197250   1.103  11.391   4.615 -0.4949 -1.2808  0.9779
30813SOL    HW297251   1.109  11.444   4.757  0.7875 -1.4807  1.0047
30814SOL     OW97252   8.255   2.179  12.560  0.1148  0.4402 -0.6063
30814SOL    HW197253   8.204   2.259  12.564 -0.4354  0.0465  1.0202
30814SOL    HW297254   8.335   2.198  12.609  1.1360  0.7552 -2.3409
30815SOL     OW97255   5.858   5.864   1.610 -0.0935 -0.0025  0.0917
30815SOL    HW197256   5.926   5.902   1.666  0.6271  1.9023 -1.9684
30815SOL    HW297257   5.782   5.858   1.667  0.8499  1.0193  1.5376
30816SOL     OW97258  11.561   5.430  12.080  0.0249 -0.0576 -0.4781
30816SOL    HW197259  11.554   5.380  12.161  0.3835 -0.3048 -0.5939
30816SOL    HW297260  11.483   5.406  12.030 -0.1381  0.0075 -0.2536
30817SOL     OW97261   4.508  11.746  10.943  0.5017  0.6414 -0.2680
30817SOL    HW197262   4.507  11.651  10.942 -0.5566  0.6253  0.3982
30817SOL    HW297263   4.594  11.769  10.977  1.2581 -0.0342 -1.6468
30818SOL     OW97264   7.938   7.673   4.113  0.2621 -0.1615  0.4012
30818SOL    HW197265   8.034   7.675   4.122  0.6371 -2.0279 -2.0240
30818SOL    HW297266   7.916   7.580   4.115 -1.4415  0.2017  0.1939
30819SOL     OW97267   5.130  11.488   9.851  0.2681  0.2886 -0.5500
30819SOL    HW197268   5.144  11.453   9.939 -1.1416  1.6366  0.2678
30819SOL    HW297269   5.212  11.472   9.806  0.8080 -1.0141  0.8065
30820SOL     OW97270  11.776   4.319   2.258  0.1359  0.1156 -0.4503
30820SOL    HW197271  11.846   4.266   2.220  0.9158  0.0454  1.0092
30820SOL    HW297272  11.696   4.282   2.221  0.8138 -0.2925 -1.5624
30821SOL     OW97273  11.646   7.963   4.313 -0.2280  0.1431  0.1922
30821SOL    HW197274  11.590   8.038   4.335 -0.4603 -0.4106  1.5753
30821SOL    HW297275  11.602   7.888   4.353  0.5456 -0.5834 -0.2952
30822SOL     OW97276   4.547  12.371  12.545 -0.1100  0.0200  0.2748
30822SOL    HW197277   4.522  12.293  12.595 -0.6088 -0.0604 -0.0903
30822SOL    HW297278   4.474  12.432  12.557 -0.0260  0.1744  0.0170
30823SOL     OW97279   0.505   9.103   0.017  0.4610  0.6365 -0.3155
30823SOL    HW197280   0.595   9.080  -0.006  0.6533  2.3219 -1.5016
30823SOL    HW297281   0.480   9.169  -0.048 -1.3413  0.8307  0.5029
30824SOL     OW97282   6.570  11.510  10.962  0.0072  0.0597  0.2734
30824SOL    HW197283   6.559  11.587  10.906 -0.0294  0.2716  0.5743
30824SOL    HW297284   6.536  11.536  11.047  1.4578  0.2585  0.8291
30825SOL     OW97285   7.804   9.801   3.635  0.1702  0.1654  0.4028
30825SOL    HW197286   7.767   9.717   3.663  0.3098  0.3065  1.0473
30825SOL    HW297287   7.728   9.855   3.613  0.1066 -0.3317 -0.6454
30826SOL     OW97288   1.167   5.739   4.875 -0.0392  0.3733  0.2999
30826SOL    HW197289   1.237   5.743   4.811  0.4010 -1.7372  0.5665
30826SOL    HW297290   1.093   5.701   4.828 -0.8224  1.9668  0.1958
30827SOL     OW97291   6.304   7.703  10.878  0.2335 -0.1687  0.2119
30827SOL    HW197292   6.230   7.650  10.848 -0.3250  0.3575  0.6384
30827SOL    HW297293   6.265   7.786  10.905  1.1105  0.5791 -0.6928
30828SOL     OW97294   8.782   3.993   9.476 -0.3989  0.1943  0.2160
30828SOL    HW197295   8.731   3.954   9.404 -1.1146  0.8301  0.3748
30828SOL    HW297296   8.757   3.942   9.553  1.4305 -1.4416 -0.1720
30829SOL     OW97297   3.784   0.989   6.540 -0.2313 -0.2364  0.1437
30829SOL    HW197298   3.731   1.050   6.490 -0.4844 -2.0230 -1.9245
30829SOL    HW297299   3.873   1.002   6.508 -0.7012 -3.0337 -2.8146
30830SOL     OW97300   6.724   9.124   5.680  0.6344  0.3572  0.2324
30830SOL    HW197301   6.802   9.137   5.734 -0.1874  1.1923  1.2754
30830SOL    HW297302   6.733   9.186   5.608 -0.3697  2.6119  1.9083
30831SOL     OW97303   0.458   3.014   8.318  0.2833  0.7028 -0.0171
30831SOL    HW197304   0.409   3.066   8.254  0.2353  0.9248  0.1962
30831SOL    HW297305   0.519   3.076   8.357  1.6067  0.1535 -1.1503
30832SOL     OW97306  10.412   2.257  11.978  0.5129 -0.2061 -0.3951
30832SOL    HW197307  10.410   2.180  12.036  0.6498  0.3407  0.3474
30832SOL    HW297308  10.495   2.300  11.999 -1.3998  2.5781  2.4601
30833SOL     OW97309   4.660   9.579   4.975 -0.0774  0.0187  0.1839
30833SOL    HW197310   4.675   9.492   5.012  0.2634  0.2554  0.6171
30833SOL    HW297311   4.746   9.620   4.975  0.1908 -0.4503 -2.1655
30834SOL     OW97312   9.957  10.860   3.948  0.2012 -0.4978 -0.3055
30834SOL    HW197313   9.997  10.773   3.955  0.1595 -0.5596 -0.8707
30834SOL    HW297314  10.031  10.918   3.929  0.6784  0.0050  2.5289
30835SOL     OW97315  11.386  11.039   9.541  0.0876  0.5908 -0.5927
30835SOL    HW197316  11.420  10.956   9.508 -1.1588 -0.2906  0.2272
30835SOL    HW297317  11.323  11.067   9.475 -1.4372 -0.5078  0.3065
30836SOL     OW97318   5.122   3.850   7.785 -0.2168  0.0622  0.1647
30836SOL    HW197319   5.045   3.815   7.831 -0.3841  1.3596  0.9368
30836SOL    HW297320   5.134   3.938   7.823  2.2351 -0.4624  0.7882
30837SOL     OW97321   3.029  12.377  12.207  0.3577 -0.3905 -0.1609
30837SOL    HW197322   2.959  12.440  12.185  0.8374 -0.0655 -0.7796
30837SOL    HW297323   3.102  12.403  12.152  0.6125 -1.4189 -0.3150
30838SOL     OW97324   0.734   8.672   7.906 -0.3330 -0.4897  0.6031
30838SOL    HW197325   0.761   8.636   7.821 -0.1855 -0.1544  0.5048
30838SOL    HW297326   0.652   8.718   7.887 -0.3103 -0.4322  0.6468
30839SOL     OW97327   4.778  10.928   5.025  0.2836  0.2519  0.2565
30839SOL    HW197328   4.781  10.922   4.930 -0.7380 -0.0150  0.2351
30839SOL    HW297329   4.768  10.837   5.054 -0.6806  0.4424  0.5528
30840SOL     OW97330   0.331   4.144   6.808 -0.4334  0.1469 -0.2451
30840SOL    HW197331   0.238   4.159   6.795 -0.9488  0.3182  2.8981
30840SOL    HW297332   0.347   4.057   6.772 -2.3172 -0.8199  1.1177
30841SOL     OW97333   2.378  11.897   9.581 -0.0884  0.0204 -0.1558
30841SOL    HW197334   2.451  11.926   9.527  1.0424 -1.0185  0.7663
30841SOL    HW297335   2.390  11.803   9.589 -2.0869 -0.3209 -0.7723
30842SOL     OW97336   2.590  11.044   9.267  0.3364  0.1117  0.3314
30842SOL    HW197337   2.576  10.984   9.193 -0.5060  0.9639 -0.2284
30842SOL    HW297338   2.671  11.091   9.246 -0.2676  0.8504 -0.4231
30843SOL     OW97339   7.795   4.789  11.141 -0.3081 -0.6068 -0.0478
30843SOL    HW197340   7.766   4.727  11.075 -0.7182 -1.5194  0.9507
30843SOL    HW297341   7.749   4.762  11.221  0.0439  0.5566  0.5702
30844SOL     OW97342   7.753   6.363   0.577 -0.0595 -0.4165  0.2554
30844SOL    HW197343   7.712   6.420   0.642 -1.9039 -2.0663  0.6545
30844SOL    HW297344   7.754   6.415   0.496 -1.1426  0.3883  0.7422
30845SOL     OW97345  11.653   0.169   5.596  0.3131  0.3480  0.1902
30845SOL    HW197346  11.558   0.177   5.588  0.5101  1.4248 -1.9052
30845SOL    HW297347  11.682   0.256   5.625  0.6363 -0.1349  1.3534
30846SOL     OW97348   5.478   7.301  10.620  0.0956 -0.5481 -0.2400
30846SOL    HW197349   5.387   7.329  10.613  0.0348 -0.7500 -0.2613
30846SOL    HW297350   5.497   7.306  10.714 -0.0344 -0.8000 -0.1973
30847SOL     OW97351   9.000   1.636  11.182 -0.3971 -1.1124  0.3116
30847SOL    HW197352   8.960   1.681  11.107 -2.4422 -1.0731  1.3629
30847SOL    HW297353   9.091   1.621  11.155 -0.3695  1.1749 -1.1695
30848SOL     OW97354   5.508  11.630   1.491  1.2670 -0.0992  0.2054
30848SOL    HW197355   5.546  11.655   1.575 -1.6425  1.3790  1.2312
30848SOL    HW297356   5.413  11.631   1.507  0.6755 -1.8208 -2.5774
30849SOL     OW97357   5.483   7.025   7.363 -0.2192  0.3950 -0.0563
30849SOL    HW197358   5.390   7.033   7.343 -0.4663 -1.2864  0.2514
30849SOL    HW297359   5.522   7.104   7.328 -1.6084  0.6394 -1.1472
30850SOL     OW97360   7.698   4.277   5.402  0.1011  0.1395  0.2237
30850SOL    HW197361   7.644   4.207   5.439 -0.8857  0.5920 -0.3192
30850SOL    HW297362   7.639   4.325   5.343  1.2555  0.2886 -0.8578
30851SOL     OW97363   8.280   6.285  12.636  0.2146  0.0115  0.2387
30851SOL    HW197364   8.301   6.223  12.567  0.6072  0.9880 -0.5334
30851SOL    HW297365   8.185   6.279  12.645  0.0909  0.2775 -0.7838
30852SOL     OW97366  10.063   9.577   8.715 -1.0521  0.5313  0.1028
30852SOL    HW197367  10.126   9.604   8.648 -1.2909 -0.0486 -0.3675
30852SOL    HW297368  10.010   9.510   8.672 -2.5159  1.5623  0.2245
30853SOL     OW97369  12.130   0.499   0.420  0.3446 -0.1773  0.5263
30853SOL    HW197370  12.059   0.501   0.483  0.3666 -0.7960  0.5723
30853SOL    HW297371  12.144   0.406   0.401  0.8920 -0.0448  0.2416
30854SOL     OW97372   0.558  11.590   7.290  0.4239  0.0623  0.5838
30854SOL    HW197373   0.612  11.655   7.245  0.2141  0.8996  1.5228
30854SOL    HW297374   0.501  11.555   7.222  1.9017 -0.6042 -0.3716
30855SOL     OW97375  11.071   9.565   9.031  0.2959  0.1266 -0.4344
30855SOL    HW197376  11.023   9.494   9.075 -1.0479  1.0005 -0.4103
30855SOL    HW297377  11.144   9.584   9.090  1.4522 -2.0614 -1.0617
30856SOL     OW97378   5.417   2.850   0.790  0.8828 -0.1861 -0.2390
30856SOL    HW197379   5.437   2.929   0.841  2.6385 -0.8007  0.0933
30856SOL    HW297380   5.328   2.865   0.757  0.5305  1.1871  1.1916
30857SOL     OW97381   6.338   8.841   5.361 -0.3123 -0.3735 -0.1261
30857SOL    HW197382   6.283   8.793   5.299 -1.3550 -0.6477  0.9742
30857SOL    HW297383   6.329   8.793   5.443  2.1694 -0.8521 -0.0586
30858SOL     OW97384  12.141   2.049   1.904 -0.2855 -1.3494 -0.2977
30858SOL    HW197385  12.046   2.041   1.898 -0.4010 -0.0637 -0.4001
30858SOL    HW297386  12.174   1.974   1.854 -1.2797  0.3814 -3.8711
30859SOL     OW97387   5.845   7.889   2.281 -0.4572  0.4618 -0.2626
30859SOL    HW197388   5.855   7.841   2.364 -0.8487  0.3259 -0.2899
30859SOL    HW297389   5.881   7.976   2.299 -2.6230  1.2357  0.8027
30860SOL     OW97390   3.853  12.204   1.011 -0.2817 -1.0584 -0.0688
30860SOL    HW197391   3.812  12.171   1.090 -0.6013  4.1096  2.3231
30860SOL    HW297392   3.782  12.212   0.947 -1.3386  0.1329  1.2120
30861SOL     OW97393   4.266   6.835   5.398  0.2798 -0.3839 -0.9207
30861SOL    HW197394   4.257   6.748   5.437  2.0223  0.0736  0.6683
30861SOL    HW297395   4.344   6.828   5.344  1.9988  0.7618  1.2243
30862SOL     OW97396  10.298   0.184  10.766 -0.0998 -0.0685 -0.4418
30862SOL    HW197397  10.277   0.261  10.713 -0.5595 -1.0864 -1.7645
30862SOL    HW297398  10.294   0.216  10.856  3.2321  2.3704 -0.9820
30863SOL     OW97399   1.933   3.211  11.996 -0.0274  0.0399  0.3777
30863SOL    HW197400   1.984   3.201  11.916  2.5866 -0.4792  1.9493
30863SOL    HW297401   1.893   3.125  12.011 -0.2668  0.0516 -0.2003
30864SOL     OW97402   6.720   9.867   5.646  0.0632 -0.2730 -0.3366
30864SOL    HW197403   6.659   9.826   5.584 -0.4971  1.1251 -0.7323
30864SOL    HW297404   6.791   9.802   5.655 -0.6013 -1.1601 -1.2402
30865SOL     OW97405   8.309   9.095   4.992 -0.4772 -0.2270 -0.7463
30865SOL    HW197406   8.359   9.031   4.941 -0.6012  0.7433 -2.1528
30865SOL    HW297407   8.218   9.068   4.982 -0.4197 -0.6378 -0.1629
30866SOL     OW97408   5.294   1.554  11.296  0.1844 -0.0357 -0.2281
30866SOL    HW197409   5.251   1.639  11.292  0.6050  0.1968  0.1752
30866SOL    HW297410   5.226   1.492  11.269 -1.2162  0.0611  2.7169
30867SOL     OW97411   6.694   2.378   1.001  0.0449 -0.5225 -0.1125
30867SOL    HW197412   6.641   2.306   0.967 -1.2453  0.3091  0.0572
30867SOL    HW297413   6.777   2.337   1.026 -0.3228 -1.7799 -0.8462
30868SOL     OW97414   2.888  11.411   2.704 -0.0484 -0.1752  0.5589
30868SOL    HW197415   2.940  11.332   2.714 -1.2047 -1.1436 -0.6586
30868SOL    HW297416   2.829  11.412   2.779  0.2514 -0.2436  0.7934
30869SOL     OW97417   1.564  11.567   3.543  0.0562 -0.1247  0.4667
30869SOL    HW197418   1.542  11.565   3.637  0.2903 -0.8452  0.5157
30869SOL    HW297419   1.536  11.653   3.514 -2.3210 -0.7477  0.6664
30870SOL     OW97420   1.738  11.783  11.107 -0.1505 -0.0172  0.1522
30870SOL    HW197421   1.679  11.837  11.055 -0.2543 -0.3449 -0.0738
30870SOL    HW297422   1.708  11.693  11.092  0.1274 -0.1504  0.3882
30871SOL     OW97423  10.434   6.145   6.967 -0.4038 -0.5437  0.3900
30871SOL    HW197424  10.383   6.120   6.890  0.1416 -1.1929  0.2271
30871SOL    HW297425  10.463   6.235   6.948 -3.6332  0.9094  1.6444
30872SOL     OW97426   0.108   5.101   6.842 -0.1312  0.4973  0.1190
30872SOL    HW197427   0.136   5.012   6.822 -3.4009 -0.6196 -0.1406
30872SOL    HW297428   0.136   5.153   6.766  1.5657 -0.3107  0.1419
30873SOL     OW97429   7.371   9.467  11.526  0.2198 -0.2370  0.0154
30873SOL    HW197430   7.297   9.451  11.467 -0.6114 -0.1408  0.9932
30873SOL    HW297431   7.433   9.396  11.508  0.4017  0.3054 -1.5915
30874SOL     OW97432   3.762   2.987   5.721 -0.0852 -0.6689  0.1400
30874SOL    HW197433   3.801   2.899   5.727 -1.9397 -1.7802 -2.2288
30874SOL    HW297434   3.677   2.979   5.763 -0.2116  0.0334  0.0318
30875SOL     OW97435  12.256   7.420   8.321  0.7837  0.2229  0.0204
30875SOL    HW197436  12.218   7.333   8.329  1.8288 -0.5014 -2.0513
30875SOL    HW297437  12.333   7.408   8.265  1.4083  2.3504  0.3209
30876SOL     OW97438   0.926   1.621   3.800  0.6071 -0.1493  0.2274
30876SOL    HW197439   0.949   1.709   3.830  1.5466 -0.6343  0.9499
30876SOL    HW297440   1.004   1.590   3.754 -0.4260  0.1654 -1.8849
30877SOL     OW97441   1.062   5.884   8.156  0.1909 -0.6374  0.4819
30877SOL    HW197442   1.052   5.979   8.147  1.6447 -0.5529 -0.7063
30877SOL    HW297443   1.014   5.848   8.081  0.0035 -0.8343  0.6930
30878SOL     OW97444   6.092   7.958   4.335  0.5688 -0.0424  0.5111
30878SOL    HW197445   6.066   7.894   4.402  0.0366 -0.1611  0.1899
30878SOL    HW297446   6.170   7.999   4.372  1.8041 -1.8741  0.1079
30879SOL     OW97447   5.452   4.034   5.967 -0.0497 -0.3587  0.6076
30879SOL    HW197448   5.513   4.016   6.038  0.4082 -1.4765 -0.0383
30879SOL    HW297449   5.488   3.987   5.892 -0.2553  1.2106 -0.5086
30880SOL     OW97450   2.484   4.778   5.425 -0.0560 -0.3415 -0.1072
30880SOL    HW197451   2.571   4.744   5.401  0.3160  0.4763  0.0319
30880SOL    HW297452   2.438   4.788   5.341 -0.4788 -1.9408 -0.0928
30881SOL     OW97453   9.380  12.421  11.351 -0.1404 -0.1611 -0.1051
30881SOL    HW197454   9.354  12.411  11.443  1.7820  0.8564  0.5841
30881SOL    HW297455   9.305  12.466  11.310 -0.4700  0.5855  1.2672
30882SOL     OW97456   1.357   5.653   5.048 -0.1950 -0.3431  0.1274
30882SOL    HW197457   1.426   5.702   5.003  0.4239 -0.4069  0.9792
30882SOL    HW297458   1.275   5.687   5.011  0.2234  1.2020  0.5370
30883SOL     OW97459   3.988   8.387   7.101  0.0527 -0.0506  0.1828
30883SOL    HW197460   3.979   8.300   7.141 -1.6186 -1.0730 -2.1909
30883SOL    HW297461   4.050   8.374   7.029 -0.8809  0.4980 -0.7373
30884SOL     OW97462   4.050   0.261  10.585 -0.3690 -0.0046 -0.7829
30884SOL    HW197463   4.034   0.345  10.629 -2.9020  0.2123 -1.9358
30884SOL    HW297464   4.027   0.278  10.494 -0.8408 -1.9387 -1.0564
30885SOL     OW97465   7.170   3.274   5.774 -0.5324 -0.0315  0.4834
30885SOL    HW197466   7.258   3.244   5.794 -0.0974  0.8020 -0.0894
30885SOL    HW297467   7.154   3.244   5.684 -0.7289  0.0391  0.4947
30886SOL     OW97468   1.186  10.175   4.251 -0.7073  0.0018 -0.0872
30886SOL    HW197469   1.165  10.082   4.259  2.1012 -0.6657  0.6244
30886SOL    HW297470   1.195  10.189   4.156 -1.8528 -0.2250 -0.2506
30887SOL     OW97471   9.556   8.144   8.935 -0.4554  0.7021  0.4360
30887SOL    HW197472   9.462   8.139   8.915 -0.7174 -0.1394  1.7409
30887SOL    HW297473   9.588   8.214   8.879 -1.2396 -0.9254 -2.2448
30888SOL     OW97474   0.739   3.411  10.381 -0.0938 -0.2965  0.3446
30888SOL    HW197475   0.702   3.323  10.390 -0.6291 -0.0620  0.4537
30888SOL    HW297476   0.673   3.469  10.417 -0.1611  0.2361 -0.6005
30889SOL     OW97477  11.983  10.990  10.503  0.1558 -0.3216 -0.3276
30889SOL    HW197478  11.969  10.969  10.411  1.1473  1.8737 -1.0561
30889SOL    HW297479  12.042  10.922  10.535 -0.5102 -1.3304 -1.1694
30890SOL     OW97480   1.019   6.431  10.373  0.3093 -0.0604 -1.0423
30890SOL    HW197481   1.010   6.524  10.354 -2.3084 -0.2257 -1.1045
30890SOL    HW297482   0.944   6.391  10.328 -0.4371 -1.7481  1.4655
30891SOL     OW97483   3.080  11.428   5.871  0.1318 -0.3400 -0.4274
30891SOL    HW197484   3.030  11.443   5.951  0.2076  0.5218 -0.5373
30891SOL    HW297485   3.130  11.348   5.889  0.5838  0.1642  0.6038
30892SOL     OW97486   8.297   2.851   1.522 -0.6087  0.2519  0.3783
30892SOL    HW197487   8.324   2.915   1.455  0.3212  0.9057  1.3449
30892SOL    HW297488   8.262   2.778   1.472 -0.9076  1.1593 -0.7983
30893SOL     OW97489   5.095   1.326  11.619 -0.4298 -0.0592 -0.0042
30893SOL    HW197490   5.107   1.267  11.544  0.8915  0.0863  0.0679
30893SOL    HW297491   5.039   1.277  11.679 -0.8916 -0.4776 -0.7710
30894SOL     OW97492  10.565   4.153   2.841 -0.4146  0.2681 -0.2956
30894SOL    HW197493  10.555   4.193   2.928  0.4248  1.0551 -0.5424
30894SOL    HW297494  10.500   4.198   2.787 -0.4130  0.3272 -0.2493
30895SOL     OW97495   7.134  10.976   9.425 -0.3019 -0.0330 -0.0660
30895SOL    HW197496   7.103  11.065   9.441 -0.3100 -0.0903  0.2480
30895SOL    HW297497   7.061  10.920   9.449 -0.0779 -0.1517  0.3440
30896SOL     OW97498   2.504   0.541  12.430 -0.1014 -0.1150  0.3814
30896SOL    HW197499   2.584   0.518  12.382 -0.5349 -1.7341  0.3800
30896SOL    HW297500   2.444   0.468  12.412 -2.3843  2.0341 -1.3246
30897SOL     OW97501  11.837   2.204   9.524 -0.1181 -0.3678 -0.4603
30897SOL    HW197502  11.748   2.201   9.492 -0.6684 -1.7545  1.0427
30897SOL    HW297503  11.863   2.112   9.534  1.4903 -0.0015 -0.8953
30898SOL     OW97504   0.025   5.293   7.647 -0.8453 -0.2373 -0.4841
30898SOL    HW197505  -0.027   5.224   7.606 -1.2249 -0.7899  0.8579
30898SOL    HW297506   0.048   5.258   7.733 -3.3668  2.2731  1.4026
30899SOL     OW97507   3.072   5.337   2.966  0.2777 -0.2090  0.2053
30899SOL    HW197508   3.053   5.373   2.880 -0.2688  1.2652  0.9185
30899SOL    HW297509   3.157   5.374   2.990  0.0464  0.0502  0.6389
30900SOL     OW97510   3.767   2.960  11.564  0.1477 -0.1204  0.5932
30900SOL    HW197511   3.740   3.051  11.577 -0.3241 -0.0741 -0.5725
30900SOL    HW297512   3.819   2.939  11.641  2.0683  1.8103 -0.0840
30901SOL     OW97513   2.887   0.370   0.631 -0.2688  0.4558  0.3341
30901SOL    HW197514   2.918   0.330   0.550 -0.1339  0.9519  0.1326
30901SOL    HW297515   2.917   0.312   0.700  1.1192  0.9122  0.1521
30902SOL     OW97516   6.614   0.046  11.362 -0.2805 -0.2662  1.2732
30902SOL    HW197517   6.524   0.020  11.341 -0.3510  0.7073  0.2518
30902SOL    HW297518   6.662   0.034  11.280  0.3880 -0.2066  1.6506
30903SOL     OW97519   1.236   4.054   3.284 -0.7327  0.5373 -0.3620
30903SOL    HW197520   1.196   4.117   3.344  0.0084 -0.0639  0.8065
30903SOL    HW297521   1.184   4.061   3.204 -1.0746  2.1344 -0.0288
30904SOL     OW97522   0.051  10.125   4.600 -0.3890 -0.5366  0.5495
30904SOL    HW197523   0.033  10.128   4.506 -0.9245  0.7692  0.6757
30904SOL    HW297524   0.034  10.034   4.625  2.6840 -1.7269 -1.1473
30905SOL     OW97525   4.380   1.807  11.727 -0.7874 -0.2362 -0.6966
30905SOL    HW197526   4.441   1.740  11.697 -1.4113 -0.4335 -1.5283
30905SOL    HW297527   4.363   1.861  11.650 -2.3679 -0.7199 -0.7217
30906SOL     OW97528   4.073   5.720   2.599 -0.2526  0.5257  0.0887
30906SOL    HW197529   4.045   5.754   2.685 -0.2139 -2.2505  1.3137
30906SOL    HW297530   3.991   5.703   2.552 -0.2704  2.2787 -0.5843
30907SOL     OW97531  11.532  10.569   6.328 -0.1562 -0.9605 -0.0652
30907SOL    HW197532  11.580  10.632   6.275  1.0223 -0.5633  1.4164
30907SOL    HW297533  11.463  10.620   6.371 -2.5041 -1.6425 -2.7087
30908SOL     OW97534   5.369  10.169   3.687  0.2681 -0.8913  0.2589
30908SOL    HW197535   5.416  10.248   3.712  0.3448 -1.0651  0.6650
30908SOL    HW297536   5.387  10.159   3.593 -1.1341  0.5258 -0.2047
30909SOL     OW97537   7.516  12.539   8.484  0.6121  0.8687 -0.1873
30909SOL    HW197538   7.494  12.579   8.568  1.4358 -0.8063  0.8681
30909SOL    HW297539   7.610  12.523   8.489  0.6958  0.8808 -1.4975
30910SOL     OW97540   6.919   4.571   0.934 -0.1656  0.0067  0.3123
30910SOL    HW197541   6.828   4.564   0.905 -0.0183 -0.2811 -0.0794
30910SOL    HW297542   6.956   4.640   0.880  0.0167 -0.3004  0.0422
30911SOL     OW97543   2.970   3.445   3.036  0.0674  0.9172  0.0776
30911SOL    HW197544   3.025   3.520   3.058 -0.9026  1.2432  1.5658
30911SOL    HW297545   2.990   3.380   3.103 -1.9242  1.3787  1.2103
30912SOL     OW97546  12.135   9.860   6.462 -0.6115 -0.0967  0.5758
30912SOL    HW197547  12.202   9.881   6.397  1.2809 -1.6175  1.9165
30912SOL    HW297548  12.077   9.798   6.418 -0.0636 -0.1954 -0.0203
30913SOL     OW97549  10.175   3.834   9.839  0.3822  0.7467  0.1672
30913SOL    HW197550  10.204   3.863   9.926 -0.6663  1.2467  0.3691
30913SOL    HW297551  10.214   3.748   9.828 -0.5373  0.0980  1.7059
30914SOL     OW97552   8.543   3.369   0.718 -0.5179 -0.1748  0.0752
30914SOL    HW197553   8.511   3.452   0.753  0.8406  0.2949  0.2622
30914SOL    HW297554   8.631   3.389   0.685  0.0648 -1.6579  0.6396
30915SOL     OW97555   0.326  10.413   8.865  0.2900  0.0845  0.3108
30915SOL    HW197556   0.237  10.448   8.878  0.2867 -0.0401  0.6380
30915SOL    HW297557   0.325  10.378   8.776  0.3904  1.1996 -0.1498
30916SOL     OW97558  12.623  12.086   1.658  0.1419 -0.1509 -0.2821
30916SOL    HW197559  12.580  12.164   1.692  0.2535  0.4354 -1.4473
30916SOL    HW297560  12.561  12.049   1.595  0.1898 -0.8807  0.0820
30917SOL     OW97561   3.239   8.417   0.802 -0.0732  0.3702 -0.2334
30917SOL    HW197562   3.256   8.422   0.896  2.5916  0.1331 -0.6396
30917SOL    HW297563   3.167   8.478   0.787  0.4430  1.5273  1.7406
30918SOL     OW97564   1.579  11.565  10.830  0.3562 -0.3855 -0.7019
30918SOL    HW197565   1.545  11.646  10.867  0.2917 -0.6099 -0.2607
30918SOL    HW297566   1.670  11.585  10.808  1.7927 -1.3220  3.3809
30919SOL     OW97567   1.693   8.784   9.073 -0.3057 -0.7221  0.2249
30919SOL    HW197568   1.634   8.717   9.107 -0.4075  0.4310  2.5992
30919SOL    HW297569   1.645   8.823   8.999 -2.3156 -0.2387  1.6797
30920SOL     OW97570  11.556  11.533  10.712 -0.0319  0.3959 -0.4553
30920SOL    HW197571  11.574  11.582  10.632 -0.7844 -0.3022 -1.0847
30920SOL    HW297572  11.600  11.449  10.699  0.1390  0.4133  0.0172
30921SOL     OW97573   6.772   4.018   2.155  0.2534 -0.4918 -0.8708
30921SOL    HW197574   6.744   4.040   2.244 -0.0600 -0.5344 -0.9595
30921SOL    HW297575   6.853   4.068   2.143  0.7002 -1.0585 -0.2999
30922SOL     OW97576   8.826   2.174  10.797  0.1948 -0.0507 -0.3339
30922SOL    HW197577   8.754   2.119  10.827 -0.7308  1.5910  0.5524
30922SOL    HW297578   8.871   2.200  10.877  1.1973 -0.2341 -0.8123
30923SOL     OW97579  12.582  10.808  11.846 -0.5055 -0.4083 -0.2739
30923SOL    HW197580  12.659  10.847  11.887  0.3365 -1.5993 -0.6539
30923SOL    HW297581  12.564  10.731  11.899 -0.1339 -1.2974 -1.3937
30924SOL     OW97582   3.124   9.238   1.087 -0.2434  0.3461  0.5005
30924SOL    HW197583   3.147   9.158   1.039 -2.5312 -0.4205  0.5834
30924SOL    HW297584   3.149   9.309   1.028 -1.2144 -0.5307 -1.0329
30925SOL     OW97585   6.139   7.851   6.124 -0.1605  0.5676 -0.8679
30925SOL    HW197586   6.211   7.807   6.167  0.7457  0.4760 -2.3875
30925SOL    HW297587   6.072   7.784   6.113  0.6059 -0.0824 -1.8056
30926SOL     OW97588   9.980   0.730   2.387  0.4887 -0.0984 -0.2907
30926SOL    HW197589  10.019   0.817   2.390 -0.1538  0.3007 -2.0765
30926SOL    HW297590  10.028   0.679   2.452  1.9444  1.1536 -0.3409
30927SOL     OW97591   7.262   1.748  12.503  0.0924 -0.0430 -0.1606
30927SOL    HW197592   7.343   1.776  12.460  0.2092  1.3539  0.8966
30927SOL    HW297593   7.244   1.817  12.567 -1.6059 -0.6437  0.0564
30928SOL     OW97594  12.607   0.805  10.186 -0.2779 -0.0873  0.4960
30928SOL    HW197595  12.649   0.720  10.199  0.5806  0.6356  2.9478
30928SOL    HW297596  12.665   0.851  10.125 -0.6778 -1.1715 -0.7403
30929SOL     OW97597   3.871   2.086   7.809  0.1550 -0.3168 -0.0106
30929SOL    HW197598   3.777   2.069   7.799  0.2998 -0.1027 -2.2721
30929SOL    HW297599   3.911   2.000   7.815  0.0216 -0.5145 -1.6591
30930SOL     OW97600   6.010  12.539   3.607  0.6771  0.8482  0.1947
30930SOL    HW197601   6.083  12.591   3.574  0.2939  0.9086 -0.6057
30930SOL    HW297602   5.989  12.479   3.535 -0.0362  0.8139  0.4216
30931SOL     OW97603   7.921  10.261  11.960 -0.4759 -0.3187  0.8999
30931SOL    HW197604   7.842  10.226  11.919 -0.9772 -0.4859  1.9773
30931SOL    HW297605   7.940  10.341  11.911 -0.0321 -1.4125 -0.7850
30932SOL     OW97606   0.821   8.737   3.314  0.4081 -0.6943 -0.5376
30932SOL    HW197607   0.872   8.667   3.353  0.7825 -2.0840 -3.2768
30932SOL    HW297608   0.802   8.707   3.225  0.1448  2.4644 -1.6971
30933SOL     OW97609   0.406   0.356   6.510  0.1035  0.2179  0.1124
30933SOL    HW197610   0.344   0.312   6.452 -0.0275  1.2767 -0.5582
30933SOL    HW297611   0.412   0.445   6.477  3.7166 -0.3440 -1.3036
30934SOL     OW97612  11.834   9.729   3.849 -0.1922  0.0677  0.4177
30934SOL    HW197613  11.885   9.671   3.793  0.7963  0.1351  1.2066
30934SOL    HW297614  11.743   9.711   3.827  0.1551  1.2002 -2.2766
30935SOL     OW97615   3.696  12.170   6.631 -0.5108 -0.5483  0.3055
30935SOL    HW197616   3.771  12.229   6.640 -2.3521  1.5606  4.8822
30935SOL    HW297617   3.635  12.217   6.574 -0.4043  0.1618  0.7696
30936SOL     OW97618   6.330  11.874  11.660  0.2643 -0.3853 -0.1793
30936SOL    HW197619   6.293  11.880  11.572  1.4375  1.6734 -0.6055
30936SOL    HW297620   6.411  11.926  11.656  2.3350 -3.2241  1.1517
30937SOL     OW97621   1.042   6.326   0.163  0.0339 -0.0690 -0.6147
30937SOL    HW197622   0.996   6.410   0.160 -0.4191 -0.3301 -1.1359
30937SOL    HW297623   0.984   6.265   0.117 -0.0052 -0.8546  0.4541
30938SOL     OW97624   2.445  11.708   8.441  0.7562  0.0996 -0.1959
30938SOL    HW197625   2.519  11.648   8.445  0.3356 -0.4734 -0.7143
30938SOL    HW297626   2.379  11.661   8.389 -0.0802  0.4683  0.5054
30939SOL     OW97627   9.946   4.009   1.780 -0.1237  0.5025  0.1722
30939SOL    HW197628   9.877   3.999   1.846 -2.0303 -1.4483 -1.9320
30939SOL    HW297629  10.006   4.074   1.817 -2.7582  1.8549  2.4167
30940SOL     OW97630   9.498   9.870  10.127 -0.2820  0.4369 -0.4489
30940SOL    HW197631   9.489   9.964  10.141 -1.3928  0.3253 -0.3595
30940SOL    HW297632   9.465   9.830  10.207 -0.7314 -0.0552 -0.8760
30941SOL     OW97633   6.057  11.537   7.506  0.1743 -0.2079 -0.2822
30941SOL    HW197634   6.059  11.570   7.596 -1.1405  0.0923 -0.3402
30941SOL    HW297635   5.976  11.485   7.501  0.7013 -0.9765 -1.0386
30942SOL     OW97636   6.354   5.162   9.728 -0.0133 -0.4510  0.2672
30942SOL    HW197637   6.359   5.094   9.661 -0.3437 -0.7173  0.5081
30942SOL    HW297638   6.424   5.224   9.706 -0.5048 -0.2136 -0.6796
30943SOL     OW97639   6.533   0.933  10.896 -0.1494 -0.5843  0.9701
30943SOL    HW197640   6.466   0.956  10.832 -0.7789 -1.4874  1.2786
30943SOL    HW297641   6.541   0.838  10.889  2.6192 -0.3352 -0.5365
30944SOL     OW97642  10.707   7.962   2.827  0.3079  0.5836 -0.2932
30944SOL    HW197643  10.649   7.889   2.803  1.2975  0.0730 -1.2489
30944SOL    HW297644  10.714   8.014   2.748  0.0794  1.4068  0.2191
30945SOL     OW97645   5.712   9.498   4.156 -0.1293 -0.5301 -0.3744
30945SOL    HW197646   5.801   9.477   4.185 -0.6787 -1.0231  1.0590
30945SOL    HW297647   5.687   9.425   4.100  0.3464 -0.4148 -0.7431
30946SOL     OW97648   2.281   2.903   5.360 -0.3377  0.6129 -0.0885
30946SOL    HW197649   2.289   2.963   5.285  0.7894  0.0382 -0.4560
30946SOL    HW297650   2.210   2.940   5.413 -0.8692  1.2683 -1.2210
30947SOL     OW97651   5.769  12.062   5.058  0.4411 -0.0765 -0.3541
30947SOL    HW197652   5.778  12.128   5.126  0.9204 -1.5764  1.0968
30947SOL    HW297653   5.755  12.112   4.977 -1.8420  1.7437  1.0296
30948SOL     OW97654  12.264   6.282  10.281  0.5220  0.1476  0.7069
30948SOL    HW197655  12.334   6.271  10.217 -1.4296 -2.1211 -1.2076
30948SOL    HW297656  12.202   6.341  10.238 -0.5369 -0.9385  0.6989
30949SOL     OW97657   9.240  11.002   0.023  0.2063 -0.1987  0.2542
30949SOL    HW197658   9.151  10.966   0.017  0.8121 -1.7377  0.0895
30949SOL    HW297659   9.245  11.063  -0.050 -1.1220  0.8840  1.0145
30950SOL     OW97660   3.108   1.603   7.095 -0.0477  0.1397  0.9002
30950SOL    HW197661   3.030   1.625   7.146 -1.0171  1.4176 -1.0426
30950SOL    HW297662   3.075   1.554   7.020  1.5013 -3.0131  2.0970
30951SOL     OW97663  11.004  11.188   0.747  0.5561 -0.1001  0.2393
30951SOL    HW197664  10.915  11.165   0.774  0.0752  1.4951  0.1176
30951SOL    HW297665  11.024  11.126   0.677 -0.7002 -0.1202 -0.1313
30952SOL     OW97666   9.448   1.086  10.467 -0.2217 -0.0353 -0.4743
30952SOL    HW197667   9.535   1.080  10.428 -0.1781  0.1964 -0.4102
30952SOL    HW297668   9.465   1.096  10.561 -0.3118  0.4444 -0.5095
30953SOL     OW97669   6.606   2.630   1.123  0.6399  0.2652  0.6413
30953SOL    HW197670   6.661   2.552   1.113 -0.0497 -0.1063 -0.5260
30953SOL    HW297671   6.584   2.633   1.216  2.1538  0.1095  1.0254
30954SOL     OW97672  11.736   7.239   9.058 -0.5140  0.0110  0.0786
30954SOL    HW197673  11.692   7.267   9.138  0.4493  0.3553  0.5067
30954SOL    HW297674  11.768   7.151   9.079  0.1673  0.2960  0.2558
30955SOL     OW97675   4.463   1.963  11.930  0.8633 -0.1603  0.0558
30955SOL    HW197676   4.440   1.904  11.859 -1.7293 -0.4612  1.0514
30955SOL    HW297677   4.528   1.915  11.981 -1.0900 -2.1875  0.7745
30956SOL     OW97678   5.466  10.653   5.644  0.2361  0.2745 -0.2651
30956SOL    HW197679   5.423  10.582   5.597  1.4064 -0.2995 -0.5056
30956SOL    HW297680   5.502  10.611   5.722  0.2438  0.7676 -0.0010
30957SOL     OW97681   0.541   1.419   1.380 -0.0671 -0.6658  0.1595
30957SOL    HW197682   0.632   1.451   1.374 -0.1691 -0.2363  0.8315
30957SOL    HW297683   0.544   1.349   1.444 -0.3013 -0.2817  0.6007
30958SOL     OW97684  12.366   8.916   2.791 -0.0260  0.0275 -0.5742
30958SOL    HW197685  12.428   8.958   2.732 -1.1450  0.5149 -1.4536
30958SOL    HW297686  12.420   8.860   2.847  1.4596  2.2730  0.3512
30959SOL     OW97687  11.354   8.289   9.728  0.4110 -0.4307 -0.4975
30959SOL    HW197688  11.403   8.210   9.705  0.7838 -0.7216  1.1560
30959SOL    HW297689  11.266   8.259   9.749 -0.0691 -0.1050 -1.9414
30960SOL     OW97690   2.696  10.152   6.658  0.0440  0.3822  0.2414
30960SOL    HW197691   2.618  10.190   6.698 -0.4861 -0.3873 -0.0439
30960SOL    HW297692   2.768  10.177   6.717 -0.4936  0.6212  0.8068
30961SOL     OW97693   0.436   5.346   0.151 -0.4969 -0.0360  0.4441
30961SOL    HW197694   0.439   5.260   0.108  0.3247  0.0917  0.2288
30961SOL    HW297695   0.411   5.407   0.081  4.3069  0.7511 -0.9429
30962SOL     OW97696  12.514   0.474  12.034  0.3666 -0.4810 -0.8175
30962SOL    HW197697  12.507   0.383  12.004 -0.1884 -0.9034  0.5154
30962SOL    HW297698  12.596   0.505  11.998  0.7858 -1.6673 -0.9202
30963SOL     OW97699   2.317   1.173   9.285  0.0140 -0.2712  0.1586
30963SOL    HW197700   2.238   1.225   9.271  0.5422  0.4037 -0.4093
30963SOL    HW297701   2.356   1.210   9.364  0.3080  0.1072 -0.1579
30964SOL     OW97702  12.066  11.372   4.961  0.2454 -0.1204  0.4149
30964SOL    HW197703  12.104  11.389   4.875  1.1162 -2.2854  0.3218
30964SOL    HW297704  12.049  11.459   4.996  2.4254  0.9110 -0.8252
30965SOL     OW97705   0.557  10.512  11.921  0.0208  0.2655 -0.4942
30965SOL    HW197706   0.494  10.461  11.971  0.7421 -0.1993 -0.0357
30965SOL    HW297707   0.631  10.452  11.907  1.1873  1.3722  0.6448
30966SOL     OW97708   8.528   2.931   8.708 -0.0768 -0.1592 -0.9357
30966SOL    HW197709   8.571   2.989   8.770 -0.6062 -0.2019 -0.5169
30966SOL    HW297710   8.586   2.855   8.702 -1.0598 -1.1545  1.2221
30967SOL     OW97711  10.120   4.096   9.725  0.8939 -0.6104 -0.2945
30967SOL    HW197712  10.173   4.145   9.663  0.7975 -0.0930  0.0327
30967SOL    HW297713  10.168   4.013   9.736  0.2448 -1.2606 -2.0392
30968SOL     OW97714   4.760   4.058   0.197  0.2962 -0.2036  0.3919
30968SOL    HW197715   4.721   3.988   0.249  0.3318  0.7422  1.7368
30968SOL    HW297716   4.799   4.013   0.122 -0.8890 -1.4706  0.4881
30969SOL     OW97717   8.700   7.098   5.495  0.0873  0.0097 -0.2158
30969SOL    HW197718   8.717   7.037   5.567 -0.2068  0.5128  0.2882
30969SOL    HW297719   8.663   7.043   5.425  0.1511 -0.4442  0.1054
30970SOL     OW97720  11.394  10.017   8.702  0.3129 -0.1815  0.3038
30970SOL    HW197721  11.331  10.079   8.737  0.0275 -0.3001  0.0041
30970SOL    HW297722  11.474  10.032   8.753  0.3533  0.6672  0.0032
30971SOL     OW97723   1.798   7.783  10.366  0.0244 -0.4369  0.2198
30971SOL    HW197724   1.835   7.824  10.444 -1.2447 -0.4728  0.8736
30971SOL    HW297725   1.852   7.814  10.294 -0.6466  2.1258  0.7245
30972SOL     OW97726  11.519   6.591   3.699  0.6703  0.1886  0.4545
30972SOL    HW197727  11.515   6.682   3.667 -2.0177 -0.4410 -1.3230
30972SOL    HW297728  11.591   6.552   3.650  0.7036  0.9183 -0.0977
30973SOL     OW97729   9.649   8.270   9.611 -0.1141  0.0866 -0.2265
30973SOL    HW197730   9.691   8.348   9.648 -0.1644 -0.1884  0.4409
30973SOL    HW297731   9.721   8.218   9.575 -0.0875  0.4630 -0.7238
30974SOL     OW97732   2.442  10.031   9.900 -0.2774 -0.6292 -0.4007
30974SOL    HW197733   2.424  10.123   9.879 -2.2106 -0.7949  0.3085
30974SOL    HW297734   2.367   9.983   9.863  0.2777 -1.8143 -0.0228
30975SOL     OW97735   1.368   1.321   7.024  0.0884  0.5136 -0.2141
30975SOL    HW197736   1.462   1.309   7.015  0.2655  0.5911  1.2701
30975SOL    HW297737   1.353   1.414   7.006  0.5112  0.8141  0.8691
30976SOL     OW97738   0.192   6.641   9.953 -0.5187 -0.0500 -0.4727
30976SOL    HW197739   0.192   6.728   9.913  0.9996 -0.1914 -0.8521
30976SOL    HW297740   0.104   6.607   9.938 -0.9482  1.1755 -0.8454
30977SOL     OW97741   0.147  10.464   1.729  0.5897 -0.1101 -0.4363
30977SOL    HW197742   0.139  10.369   1.718 -0.7347 -0.4749  2.5587
30977SOL    HW297743   0.241  10.479   1.742  0.7962 -1.0492 -0.7504
30978SOL     OW97744   5.780  10.652   7.645 -0.0508  0.1519  0.3594
30978SOL    HW197745   5.855  10.602   7.679  0.4191  1.4187  1.2740
30978SOL    HW297746   5.754  10.707   7.718 -0.1367  1.6998 -0.8066
30979SOL     OW97747   2.763  12.449   7.918  0.2566  0.1450 -0.6299
30979SOL    HW197748   2.710  12.371   7.899 -0.6314  0.6940 -0.4629
30979SOL    HW297749   2.728  12.482   8.000  0.4987  0.8290 -0.8014
30980SOL     OW97750   2.672   8.334   0.497 -0.0109 -0.3965 -0.5054
30980SOL    HW197751   2.590   8.308   0.455  0.2600  0.9478 -1.9448
30980SOL    HW297752   2.655   8.420   0.534  0.5101 -0.4664 -0.0867
30981SOL     OW97753   2.884   9.132   9.184 -0.1313 -0.2274  0.0137
30981SOL    HW197754   2.977   9.116   9.166  0.5272  1.5987  1.4700
30981SOL    HW297755   2.856   9.188   9.112 -0.4414 -1.6386 -1.0115
30982SOL     OW97756   5.681  12.573   2.520 -0.2023  0.0493 -0.7491
30982SOL    HW197757   5.751  12.556   2.457 -0.7402  0.6442 -1.5244
30982SOL    HW297758   5.703  12.656   2.560 -0.1927 -0.0193 -0.6106
30983SOL     OW97759  12.303  11.510   6.474  0.3995  0.1460 -1.0783
30983SOL    HW197760  12.357  11.537   6.549  1.5027 -0.1207 -1.7514
30983SOL    HW297761  12.317  11.416   6.467 -0.3119  0.0421 -1.1522
30984SOL     OW97762   6.852  10.321   5.003  0.3057 -0.0355  0.1107
30984SOL    HW197763   6.943  10.323   4.973 -0.1794  1.3839 -1.4538
30984SOL    HW297764   6.801  10.327   4.922 -1.1553  0.0627  1.0119
30985SOL     OW97765  10.459  10.731   8.307 -0.0661 -0.1890 -0.3208
30985SOL    HW197766  10.492  10.806   8.356 -0.4619  0.0632 -0.4406
30985SOL    HW297767  10.375  10.760   8.271 -0.5852 -0.9423  0.2592
30986SOL     OW97768   2.862   7.610   9.340  0.3265 -0.5552  0.2917
30986SOL    HW197769   2.946   7.601   9.383 -0.3135  0.3311  1.8233
30986SOL    HW297770   2.812   7.669   9.397 -1.5393 -1.5362 -0.2275
30987SOL     OW97771   1.856   0.807   8.070 -0.0786  0.6110  0.4167
30987SOL    HW197772   1.784   0.807   8.007  1.9815 -0.3780 -2.1432
30987SOL    HW297773   1.880   0.899   8.080 -0.4483  0.7846 -0.2527
30988SOL     OW97774   7.028  11.102   4.168  0.2906 -0.2863  0.4012
30988SOL    HW197775   6.993  11.190   4.179 -0.6897 -0.4418 -1.1402
30988SOL    HW297776   7.123  11.113   4.171  0.2325  1.0576 -1.1522
30989SOL     OW97777   9.231  11.697   6.721  0.5968 -0.1350  0.4271
30989SOL    HW197778   9.310  11.748   6.701  0.2475  0.5441  0.7672
30989SOL    HW297779   9.191  11.680   6.636  0.3041  0.8345  0.3606
30990SOL     OW97780   2.322   8.686   4.332 -0.1201  0.2822  0.0891
30990SOL    HW197781   2.296   8.775   4.308 -0.5598  0.4103  1.0000
30990SOL    HW297782   2.347   8.692   4.424  0.8908 -0.3276 -0.1382
30991SOL     OW97783   3.901   0.354   0.631  0.1661  0.0805 -0.2839
30991SOL    HW197784   3.906   0.429   0.571  1.2597  0.6287  0.4684
30991SOL    HW297785   3.988   0.315   0.627  0.5005  0.5770  1.5051
30992SOL     OW97786   1.859  11.581  12.262  0.2481 -0.9014 -0.1799
30992SOL    HW197787   1.891  11.586  12.352 -0.2489  0.6794 -0.0483
30992SOL    HW297788   1.846  11.673  12.236 -3.2343 -1.3567 -0.5339
30993SOL     OW97789   4.509   8.738   7.795  0.0445 -0.7171 -0.0869
30993SOL    HW197790   4.420   8.735   7.830  0.0242 -2.2287 -0.2040
30993SOL    HW297791   4.513   8.819   7.745 -1.0689 -0.3212  0.4456
30994SOL     OW97792   8.050   6.342   8.837 -0.3213 -0.1204 -0.7194
30994SOL    HW197793   8.058   6.361   8.930 -0.8720 -0.5272 -0.5846
30994SOL    HW297794   7.978   6.398   8.806  0.6924  0.9612 -1.1815
30995SOL     OW97795  12.429  11.401  10.647  0.3592 -0.4077  0.1987
30995SOL    HW197796  12.387  11.339  10.706 -0.1927  1.3397  1.7469
30995SOL    HW297797  12.378  11.397  10.566 -1.2585 -0.1476  1.1634
30996SOL     OW97798   2.318   7.120  12.345 -0.0329 -0.1911  0.0953
30996SOL    HW197799   2.365   7.109  12.428  2.4518  2.1105 -0.8773
30996SOL    HW297800   2.232   7.153  12.370  1.2190  2.0702  1.8046
30997SOL     OW97801  11.161   4.211   7.804  0.2456  0.5700  0.3979
30997SOL    HW197802  11.211   4.279   7.759  1.9934 -0.7968  0.1175
30997SOL    HW297803  11.209   4.197   7.886 -0.2421 -0.1050  0.5794
30998SOL     OW97804  10.749   6.669   2.623  0.3561 -0.0989 -0.0892
30998SOL    HW197805  10.731   6.641   2.533  2.6374 -0.1591 -0.5899
30998SOL    HW297806  10.834   6.630   2.643  0.2686  0.6148  1.7997
30999SOL     OW97807  12.027   5.679   3.790  0.0967  0.1658 -1.0949
30999SOL    HW197808  12.102   5.693   3.848 -0.0115 -0.9215 -0.6595
30999SOL    HW297809  11.959   5.736   3.825  0.1361 -0.2433 -0.3449
31000SOL     OW97810   4.434   8.815   6.006 -0.0162  0.0568  0.4139
31000SOL    HW197811   4.469   8.863   5.931  0.0503 -0.3422  0.1821
31000SOL    HW297812   4.374   8.875   6.048  0.6703  0.6306  0.5980
31001SOL     OW97813   2.879  10.239   2.747 -0.1246  0.1849  0.0913
31001SOL    HW197814   2.955  10.277   2.703 -0.0444  1.5914  1.3517
31001SOL    HW297815   2.916  10.173   2.805 -0.2490 -1.8169 -1.9938
31002SOL     OW97816   4.855   5.661   3.203 -0.0843  0.5080  0.1565
31002SOL    HW197817   4.848   5.634   3.111  1.8428 -0.2268  0.1752
31002SOL    HW297818   4.939   5.707   3.208 -0.5565  1.2745  1.3914
31003SOL     OW97819   2.374  12.134   8.017  0.0073  0.8112 -0.2675
31003SOL    HW197820   2.335  12.182   8.089  0.4974 -0.5496  0.9691
31003SOL    HW297821   2.305  12.077   7.985 -0.4903  2.0776 -1.5446
31004SOL     OW97822   4.612   6.123   1.510 -0.5103 -0.0907  0.2340
31004SOL    HW197823   4.631   6.103   1.418  0.3422  0.3045  0.3128
31004SOL    HW297824   4.518   6.141   1.512 -0.6295 -0.5982 -0.4644
31005SOL     OW97825   3.419  12.527   8.278 -0.4553  0.4163 -0.4309
31005SOL    HW197826   3.437  12.505   8.186 -1.7726  1.2837 -0.9250
31005SOL    HW297827   3.327  12.553   8.279  0.0429  2.3917  0.7403
31006SOL     OW97828   3.883   7.688   0.134 -0.2780 -0.4757 -0.2251
31006SOL    HW197829   3.963   7.648   0.169  0.2543  0.5147 -0.2441
31006SOL    HW297830   3.816   7.621   0.144  0.2759 -0.8898  0.9839
31007SOL     OW97831   4.223   0.899   0.349  0.2943 -0.2314  0.1704
31007SOL    HW197832   4.258   0.973   0.301 -1.4266  0.9133  0.6040
31007SOL    HW297833   4.256   0.822   0.302  0.4768  0.8144 -1.4736
31008SOL     OW97834  12.120   1.468   3.446  0.3257  0.0797  0.2040
31008SOL    HW197835  12.038   1.428   3.416  1.3648  0.0749 -3.0346
31008SOL    HW297836  12.136   1.428   3.532 -0.9380 -3.1404 -0.9015
31009SOL     OW97837   8.107  10.538   3.334 -0.1289  0.0102  0.3422
31009SOL    HW197838   8.074  10.622   3.304  0.4848  0.3570  0.6332
31009SOL    HW297839   8.194  10.529   3.294  0.4569  0.2195  1.5248
31010SOL     OW97840   8.085   0.237  12.078 -0.1665 -0.1918 -0.5948
31010SOL    HW197841   8.061   0.324  12.045  0.0907  0.0789 -0.0975
31010SOL    HW297842   8.054   0.176  12.012 -0.7298  0.2560 -0.7480
31011SOL     OW97843   0.101   3.023   0.205 -0.1220 -0.0032 -0.1117
31011SOL    HW197844   0.083   3.072   0.286 -0.4268 -1.0010  0.4410
31011SOL    HW297845   0.146   3.086   0.149 -1.0125  1.0961  0.3488
31012SOL     OW97846   9.027   7.957  10.236 -0.3765 -0.0052  0.3990
31012SOL    HW197847   9.082   7.954  10.315 -0.1554  1.0532  0.3098
31012SOL    HW297848   8.950   7.905  10.258  0.2632 -0.7988  0.8389
31013SOL     OW97849  11.021  11.367  12.631  0.4143  0.3039 -0.7433
31013SOL    HW197850  11.045  11.313  12.706  0.4063 -1.5896 -2.0469
31013SOL    HW297851  11.066  11.451  12.647  2.3397 -0.8324  0.2248
31014SOL     OW97852  12.215   1.364  11.520 -0.1752  0.1407 -0.0206
31014SOL    HW197853  12.283   1.309  11.482  0.4484  0.4059  0.6818
31014SOL    HW297854  12.134   1.337  11.476  0.2504 -0.7434 -0.2732
31015SOL     OW97855   5.050   2.003   1.174  0.7640  0.2414  0.4256
31015SOL    HW197856   5.008   1.965   1.251 -1.6679 -0.8149 -1.3188
31015SOL    HW297857   5.112   1.937   1.145  0.8434  0.1527  0.7944
31016SOL     OW97858   0.115  11.191   6.884 -0.3462 -0.7001  0.0532
31016SOL    HW197859   0.049  11.190   6.953 -0.5920 -3.7696 -0.0806
31016SOL    HW297860   0.198  11.208   6.929 -0.9627  1.5297  0.4436
31017SOL     OW97861   5.946   7.768   6.381  0.6055  0.5307 -0.2588
31017SOL    HW197862   5.929   7.824   6.306 -0.0562 -0.7697 -1.1017
31017SOL    HW297863   5.859   7.741   6.412  0.9269 -0.8821 -0.5373
31018SOL     OW97864  10.378   8.990   6.811  0.0862  0.3503  0.2819
31018SOL    HW197865  10.393   9.065   6.869 -1.2169 -0.7958  2.2212
31018SOL    HW297866  10.331   9.027   6.736  0.5808  1.6668  0.5975
31019SOL     OW97867   1.226  10.028  10.653  0.1534  0.3187 -0.4221
31019SOL    HW197868   1.299   9.993  10.704  0.1233  0.6656 -0.1453
31019SOL    HW297869   1.226  10.122  10.670 -0.5127  0.2908 -0.2216
31020SOL     OW97870   3.150   6.235   5.409 -0.2096  0.6851  0.2462
31020SOL    HW197871   3.210   6.261   5.479  0.6460  2.0884 -0.9636
31020SOL    HW297872   3.192   6.265   5.329 -1.2293 -0.7672 -0.8841
31021SOL     OW97873  11.328  11.568  10.379 -0.2664 -0.4733  0.3475
31021SOL    HW197874  11.377  11.572  10.297 -1.6261 -1.8780 -0.5756
31021SOL    HW297875  11.381  11.513  10.437  1.2852  1.4910  0.8857
31022SOL     OW97876   6.231  10.505   6.359  0.0104 -0.4945 -0.7290
31022SOL    HW197877   6.277  10.589   6.364 -1.0740  0.2097 -1.9290
31022SOL    HW297878   6.165  10.509   6.428 -1.2319  0.4448 -1.9056
31023SOL     OW97879  10.804   7.031   7.147 -0.0178  0.0845  0.1592
31023SOL    HW197880  10.767   6.944   7.162 -1.2737  0.6232  0.2933
31023SOL    HW297881  10.746   7.090   7.195  1.0557  0.9674  0.4197
31024SOL     OW97882   3.259   1.264   9.209 -0.1363  0.0244 -0.4169
31024SOL    HW197883   3.187   1.326   9.204 -0.2637 -0.1216 -0.4121
31024SOL    HW297884   3.218   1.178   9.193 -0.1757 -0.2081  0.7892
31025SOL     OW97885   2.747   6.000   5.534 -0.1862  0.1171 -0.0582
31025SOL    HW197886   2.750   5.986   5.629  1.4818  0.9533  0.0531
31025SOL    HW297887   2.838   5.989   5.505 -0.7945 -0.9028 -1.6968
31026SOL     OW97888   4.292   8.785  11.678 -0.0096  0.5911 -0.0738
31026SOL    HW197889   4.245   8.804  11.759  0.9793 -1.1019  0.9515
31026SOL    HW297890   4.222   8.771  11.613 -0.8637  0.5773  0.8199
31027SOL     OW97891  11.982   9.431   9.902 -0.6448  0.4916  0.3441
31027SOL    HW197892  11.889   9.425   9.925 -0.5155  2.9356  1.7531
31027SOL    HW297893  12.028   9.391   9.976 -0.4997  0.9140  0.4799
31028SOL     OW97894   9.228  12.199  12.050  0.4577 -0.3022 -0.5245
31028SOL    HW197895   9.219  12.108  12.022  2.4039 -0.1605 -1.7728
31028SOL    HW297896   9.318  12.206  12.082 -0.0110  0.9265  0.6418
31029SOL     OW97897  11.533   2.201  11.500 -0.4979 -0.2380 -0.1721
31029SOL    HW197898  11.531   2.297  11.493 -0.4697 -0.0419  1.8553
31029SOL    HW297899  11.619   2.177  11.466  0.4768  0.7209  1.5072
31030SOL     OW97900   8.791   6.768   6.223  0.1023  0.0838 -0.0291
31030SOL    HW197901   8.861   6.828   6.249  0.1118  0.2839 -0.4998
31030SOL    HW297902   8.773   6.717   6.301  0.7583  0.0487  0.1055
31031SOL     OW97903   6.937   9.868   1.931 -0.4107 -0.2597 -0.2632
31031SOL    HW197904   6.974   9.956   1.922  3.7929 -1.9039 -1.3435
31031SOL    HW297905   6.898   9.867   2.019  0.9299  2.1984  0.4410
31032SOL     OW97906   2.964   0.397  10.069 -0.1276  0.0366  0.2173
31032SOL    HW197907   2.971   0.344   9.989 -0.1683 -1.9365  1.4551
31032SOL    HW297908   2.872   0.421  10.074 -1.1123 -3.4945  1.7997
31033SOL     OW97909   5.931  12.569   3.311 -0.5106 -0.1571  0.2474
31033SOL    HW197910   5.900  12.483   3.341 -0.3102 -1.0126 -1.8441
31033SOL    HW297911   5.881  12.632   3.363 -1.2981 -1.5393  1.2118
31034SOL     OW97912   1.569   4.411   0.894 -0.1253  0.1546  0.3206
31034SOL    HW197913   1.550   4.427   0.802  1.1178 -1.4500 -0.2586
31034SOL    HW297914   1.662   4.388   0.897 -0.2986 -0.5270  1.8600
31035SOL     OW97915   9.596   5.909   3.716  0.5271 -0.0504  0.5750
31035SOL    HW197916   9.512   5.956   3.711  0.8494  0.5337  0.6241
31035SOL    HW297917   9.659   5.969   3.678  0.8164 -0.7669 -0.1072
31036SOL     OW97918   6.680   1.239  12.416 -0.7277 -0.0513  0.1969
31036SOL    HW197919   6.656   1.298  12.344 -0.3183  0.6271  0.6075
31036SOL    HW297920   6.773   1.257  12.431 -0.7575 -0.3555  0.7484
31037SOL     OW97921   7.933   5.529   7.677 -0.3240 -0.0228  0.2722
31037SOL    HW197922   7.869   5.469   7.716  0.2677  0.1055  1.5133
31037SOL    HW297923   7.904   5.616   7.704 -0.1863  0.1097 -0.0081
31038SOL     OW97924  12.220   2.226   7.282 -0.0508  0.3546 -0.3920
31038SOL    HW197925  12.189   2.136   7.282 -2.8173  1.1911 -1.3415
31038SOL    HW297926  12.150   2.275   7.238  2.0830  2.7308 -1.4135
31039SOL     OW97927   8.259   9.351  11.641  0.4079  0.7802  0.7163
31039SOL    HW197928   8.230   9.260  11.648  1.9217  0.1670 -0.2538
31039SOL    HW297929   8.220   9.383  11.560  0.1441  0.8893  0.8863
31040SOL     OW97930   7.033   3.311   0.083 -0.1921  0.2001  0.2438
31040SOL    HW197931   7.005   3.376   0.018  0.1711  0.5938  0.4755
31040SOL    HW297932   7.126   3.328   0.095  0.0931 -0.9129 -0.3071
31041SOL     OW97933   2.008  10.911   3.196 -0.3816  0.0110  0.0617
31041SOL    HW197934   2.006  10.821   3.228 -0.9581 -0.8223 -2.1357
31041SOL    HW297935   2.092  10.918   3.151  0.0175  0.8499  0.9189
31042SOL     OW97936   4.055   1.206   2.921 -0.1263 -0.0375 -0.0197
31042SOL    HW197937   3.963   1.200   2.896 -0.1840  1.7591 -0.4271
31042SOL    HW297938   4.102   1.214   2.838  0.2918  0.0344  0.2197
31043SOL     OW97939   1.495  11.859   3.525  0.4700 -0.0973  0.0239
31043SOL    HW197940   1.414  11.900   3.556  0.0981 -0.8794  0.1261
31043SOL    HW297941   1.500  11.884   3.432 -0.3880 -0.7752 -0.2245
31044SOL     OW97942   9.867   0.224   0.750  0.6873 -0.2791  0.3734
31044SOL    HW197943   9.929   0.286   0.711 -0.3750  0.4135 -0.2727
31044SOL    HW297944   9.821   0.186   0.674  0.5139 -0.9908  0.8269
31045SOL     OW97945   3.099   4.435   1.715  0.1960 -0.0643 -0.2978
31045SOL    HW197946   3.149   4.509   1.680 -0.1837  0.4329  0.1764
31045SOL    HW297947   3.011   4.446   1.678  0.2772 -0.6039 -0.6681
31046SOL     OW97948   3.851  10.172   9.607  0.1837 -0.1111 -0.2382
31046SOL    HW197949   3.791  10.106   9.572 -0.9266 -0.2638  1.7869
31046SOL    HW297950   3.860  10.236   9.537 -1.8701 -0.4178 -0.8684
31047SOL     OW97951   1.215   1.638   7.653  0.1041 -0.1967  0.1350
31047SOL    HW197952   1.148   1.705   7.664  0.0226 -0.5374  2.1754
31047SOL    HW297953   1.295   1.687   7.632 -0.0230  0.5464  1.2767
31048SOL     OW97954   1.437   2.230   9.093 -0.0121  0.1142  0.2620
31048SOL    HW197955   1.398   2.158   9.142 -3.9556  0.3431 -2.0787
31048SOL    HW297956   1.429   2.306   9.152  0.5534 -0.5770  1.2662
31049SOL     OW97957   4.725   6.942   8.677  0.3083 -0.3100  0.1073
31049SOL    HW197958   4.691   7.011   8.734 -0.7697 -0.1616 -0.6805
31049SOL    HW297959   4.753   6.873   8.737  0.3791  0.3597  0.8599
31050SOL     OW97960  10.686   0.431   3.548  0.2594 -0.4318  0.1108
31050SOL    HW197961  10.645   0.447   3.463 -0.2664 -1.4881  0.1383
31050SOL    HW297962  10.685   0.335   3.557  0.5153 -0.3491  1.2021
31051SOL     OW97963   0.304   4.956   9.827  0.0002 -0.1400  0.0974
31051SOL    HW197964   0.301   5.052   9.818  2.1087 -0.0404 -0.1177
31051SOL    HW297965   0.340   4.926   9.743 -0.5620 -1.1225  0.1986
31052SOL     OW97966   1.190   1.223  10.517 -0.1105 -0.5549  0.5511
31052SOL    HW197967   1.117   1.171  10.486  0.5193 -1.2558  0.2094
31052SOL    HW297968   1.162   1.314  10.506 -0.8985 -0.8138  0.3834
31053SOL     OW97969   0.553   3.542   5.652  0.6117  0.2396 -0.5381
31053SOL    HW197970   0.609   3.592   5.711 -1.0502  1.8833 -0.2502
31053SOL    HW297971   0.491   3.607   5.617  0.5107 -0.9804 -2.8392
31054SOL     OW97972   7.477  10.999   1.079 -0.0890  0.8531 -0.5475
31054SOL    HW197973   7.471  10.905   1.067  1.2047  0.7316 -0.4679
31054SOL    HW297974   7.387  11.029   1.090 -0.4541 -0.5044  0.4193
31055SOL     OW97975   8.467  10.979   7.893  0.0771  0.4032 -0.3261
31055SOL    HW197976   8.512  11.024   7.821  1.2196 -0.3238 -0.1011
31055SOL    HW297977   8.538  10.947   7.948 -0.7719  1.7642  1.6662
31056SOL     OW97978   5.285   5.359   2.001  0.0685  0.0550 -0.1482
31056SOL    HW197979   5.245   5.413   1.932 -0.8521 -0.4753 -0.0471
31056SOL    HW297980   5.307   5.421   2.070 -1.2127  0.2846  0.0707
31057SOL     OW97981   3.225   8.114   8.418 -0.1120  0.0639  0.0307
31057SOL    HW197982   3.320   8.120   8.416 -0.1358  0.3974 -1.9144
31057SOL    HW297983   3.200   8.153   8.502  1.5490 -2.2408  1.7004
31058SOL     OW97984   4.511   7.273   1.139 -0.2961  0.1315  0.0192
31058SOL    HW197985   4.454   7.213   1.187 -1.6475  0.2951 -1.2831
31058SOL    HW297986   4.566   7.216   1.085  0.9887 -0.0371  1.4511
31059SOL     OW97987  12.269   8.067   0.134 -0.0963  0.5702  0.1095
31059SOL    HW197988  12.241   8.018   0.056 -0.8149 -0.8955  1.2233
31059SOL    HW297989  12.322   8.005   0.183 -1.5889  0.6299  1.9030
31060SOL     OW97990   8.903   2.617   6.205  0.1830 -0.0039  0.4999
31060SOL    HW197991   8.879   2.657   6.288 -0.0937  0.3721  0.2435
31060SOL    HW297992   8.996   2.596   6.213 -0.2003 -1.4829  1.5143
31061SOL     OW97993  11.031   0.581   2.767 -0.3315 -0.3877  0.2641
31061SOL    HW197994  10.940   0.608   2.764 -0.9445 -2.2982  0.4897
31061SOL    HW297995  11.064   0.618   2.849 -1.2798 -0.8000  0.8406
31062SOL     OW97996   2.171   7.180   1.243  0.4104  0.0151  0.0876
31062SOL    HW197997   2.137   7.224   1.321 -0.5907  0.0855 -0.3806
31062SOL    HW297998   2.266   7.194   1.247  0.2615  0.8732  0.7559
31063SOL     OW97999   3.024  10.698   1.519  0.1831  0.2347  0.1407
31063SOL    HW198000   2.947  10.670   1.469  0.7427 -1.6879  0.2760
31063SOL    HW298001   3.003  10.786   1.548 -1.4119  0.2534 -0.9538
31064SOL     OW98002  11.986   7.128   7.233 -0.1184 -0.2269  0.0536
31064SOL    HW198003  11.941   7.189   7.174 -0.1503 -0.8273 -0.5619
31064SOL    HW298004  11.992   7.175   7.316 -0.1240  0.6237 -0.4064
31065SOL     OW98005   6.903  10.458   5.593 -0.3324 -0.2022 -0.1561
31065SOL    HW198006   6.808  10.448   5.601 -0.2064 -0.8706  0.6098
31065SOL    HW298007   6.915  10.511   5.514 -1.4651  2.0988  1.1094
31066SOL     OW98008  10.965   7.255   5.572  0.3543 -0.3916 -0.3952
31066SOL    HW198009  11.012   7.193   5.628  2.5698  0.3272 -1.3405
31066SOL    HW298010  10.901   7.296   5.630  2.0529 -0.2051  1.4592
31067SOL     OW98011   3.915  11.527   2.280 -0.3016 -0.1182  0.0500
31067SOL    HW198012   3.990  11.536   2.222  1.3746 -0.4311  2.0365
31067SOL    HW298013   3.876  11.443   2.257  1.7597 -1.3785  0.8502
31068SOL     OW98014   3.909   3.708   3.824  0.1527  0.1316 -0.3129
31068SOL    HW198015   3.890   3.631   3.770 -0.7747 -0.5204  0.8726
31068SOL    HW298016   3.999   3.696   3.853 -0.0032 -0.5741 -0.0851
31069SOL     OW98017   3.309   3.821   6.683 -0.1663  0.0336  0.5950
31069SOL    HW198018   3.332   3.836   6.775 -0.8226  0.8555  0.6412
31069SOL    HW298019   3.308   3.909   6.645 -1.7054 -0.1167  0.2448
31070SOL     OW98020   0.980  11.155   4.925 -0.4540  0.4186  0.1224
31070SOL    HW198021   0.987  11.074   4.977  1.3046 -0.4874 -1.4011
31070SOL    HW298022   1.061  11.202   4.945 -0.1286  0.4258 -1.1590
31071SOL     OW98023   8.838   5.507  11.426  0.2543 -0.1325  1.1663
31071SOL    HW198024   8.859   5.576  11.488  0.1120  0.4492  0.5799
31071SOL    HW298025   8.755   5.535  11.386  1.6621  0.9093 -1.2341
31072SOL     OW98026   2.671   4.158   7.831  0.7149  0.2406 -0.1438
31072SOL    HW198027   2.703   4.130   7.917  0.7294 -1.3482 -0.6279
31072SOL    HW298028   2.616   4.085   7.801 -0.4557  1.3741 -0.8840
31073SOL     OW98029   5.810   6.433   0.545  0.6477  0.0650 -0.1590
31073SOL    HW198030   5.849   6.500   0.603 -0.5827  0.4783  0.2127
31073SOL    HW298031   5.801   6.356   0.601 -0.1392  0.3300  0.0818
31074SOL     OW98032   1.525   2.681   7.586 -0.3328  0.5637 -0.4062
31074SOL    HW198033   1.532   2.676   7.491 -0.1420  1.9648 -0.4856
31074SOL    HW298034   1.438   2.717   7.602 -0.9904 -1.1215  0.0249
31075SOL     OW98035   7.390   8.963   8.299  0.1276 -0.9472  0.8348
31075SOL    HW198036   7.366   9.022   8.227 -0.8880 -2.2356  0.0703
31075SOL    HW298037   7.407   9.022   8.373  0.6511  0.3799 -0.2937
31076SOL     OW98038  11.764   3.786   5.115 -0.3241 -0.0563  0.0827
31076SOL    HW198039  11.778   3.823   5.203  1.5206  1.0834 -0.6201
31076SOL    HW298040  11.671   3.768   5.111 -0.5673  0.5173  2.0399
31077SOL     OW98041   9.074   5.754   6.713 -0.0381  0.1702  0.3958
31077SOL    HW198042   9.167   5.739   6.695 -0.2098  0.0903 -0.4925
31077SOL    HW298043   9.058   5.843   6.683  0.2392  1.0484  2.6513
31078SOL     OW98044   0.877  12.212   3.133 -0.2281  0.3389  0.0905
31078SOL    HW198045   0.850  12.151   3.065 -0.0922  0.3391  0.0358
31078SOL    HW298046   0.796  12.234   3.179 -0.0594 -1.0798  1.1069
31079SOL     OW98047  12.268   3.844   3.092  0.1864  0.1751 -0.2370
31079SOL    HW198048  12.310   3.914   3.144  1.0108  0.7308 -1.5925
31079SOL    HW298049  12.329   3.771   3.099  1.0355  0.7248 -1.5627
31080SOL     OW98050   3.194   0.032  11.999 -0.0073 -0.2879  0.2571
31080SOL    HW198051   3.261   0.099  12.018 -1.6253  1.8684 -1.1928
31080SOL    HW298052   3.135   0.035  12.074 -0.2202  0.1074  0.0743
31081SOL     OW98053   4.142   4.391   1.324  0.5861 -0.4786  0.1331
31081SOL    HW198054   4.179   4.316   1.279 -0.4493 -1.1280  0.3279
31081SOL    HW298055   4.160   4.375   1.417  0.0451 -0.6861  0.2089
31082SOL     OW98056   7.868   6.133   4.322  0.4486 -0.2509  0.0160
31082SOL    HW198057   7.922   6.207   4.352  2.3682 -1.7355  0.4592
31082SOL    HW298058   7.926   6.085   4.263 -0.3250 -2.0289  0.6528
31083SOL     OW98059   8.099  10.059   7.177  0.5336  0.2966  0.3460
31083SOL    HW198060   8.009  10.089   7.172  0.7886  1.0893  0.3817
31083SOL    HW298061   8.092   9.964   7.188 -0.2606  0.0487 -1.8651
31084SOL     OW98062   1.558  10.819   5.844 -0.6938  0.0474  0.0035
31084SOL    HW198063   1.488  10.830   5.779  0.5274  2.7668 -1.0225
31084SOL    HW298064   1.548  10.894   5.902  0.5861 -0.2396  0.6137
31085SOL     OW98065   3.553   8.320   2.834 -0.1540 -0.0288  0.0777
31085SOL    HW198066   3.487   8.296   2.769  0.3509  1.4059 -1.0186
31085SOL    HW298067   3.513   8.391   2.884  0.0901  0.0051  0.2273
31086SOL     OW98068   6.336   2.621   3.594  0.3742 -0.3852  0.1348
31086SOL    HW198069   6.362   2.529   3.604  1.0960  0.0228  3.1859
31086SOL    HW298070   6.264   2.632   3.656  1.2022  1.3915  0.8544
31087SOL     OW98071   0.340   3.246   4.875 -1.0076 -0.0197  0.3273
31087SOL    HW198072   0.245   3.248   4.883 -1.1221  1.5814 -0.9207
31087SOL    HW298073   0.368   3.176   4.934 -3.0681 -1.6591 -0.5072
31088SOL     OW98074   1.349   6.409   9.332  0.3314 -0.1666 -0.7832
31088SOL    HW198075   1.374   6.497   9.305 -0.4613 -0.2285 -1.7909
31088SOL    HW298076   1.254   6.412   9.338  0.3228 -0.8561 -0.4804
31089SOL     OW98077  10.959   5.731   4.611 -0.1400  0.2661  0.5176
31089SOL    HW198078  10.875   5.741   4.654 -0.0878 -1.1964  1.0260
31089SOL    HW298079  10.938   5.727   4.518 -0.5370  0.7012  0.5829
31090SOL     OW98080   0.385   5.231   8.526 -0.8415 -0.4918 -0.2356
31090SOL    HW198081   0.458   5.170   8.532  0.0328  0.6319  2.4123
31090SOL    HW298082   0.427   5.318   8.528 -2.1334  0.2104 -1.8044
31091SOL     OW98083   1.157   1.813   1.359  0.1843  0.1583 -0.0468
31091SOL    HW198084   1.086   1.874   1.377  1.6928  2.1178 -0.3546
31091SOL    HW298085   1.195   1.794   1.445 -0.2356 -0.3161  0.0401
31092SOL     OW98086   2.705   9.441   0.331 -0.3881  0.0635  0.2590
31092SOL    HW198087   2.618   9.422   0.298 -0.6082 -1.5766  1.6234
31092SOL    HW298088   2.763   9.381   0.284 -0.1669  0.3129  0.2081
31093SOL     OW98089   4.113   1.896   3.320 -0.3714  0.1650  0.3557
31093SOL    HW198090   4.020   1.883   3.302 -0.2928 -0.0667  0.1113
31093SOL    HW298091   4.144   1.951   3.248  0.3327 -2.2042 -1.2631
31094SOL     OW98092   4.516   7.151   2.717 -0.2801  0.4514  0.8921
31094SOL    HW198093   4.456   7.201   2.662 -0.4696 -1.0611 -0.3394
31094SOL    HW298094   4.485   7.061   2.711  2.6382 -0.5548 -0.5647
31095SOL     OW98095   9.680   2.287  11.563 -0.0561  0.0372 -0.4170
31095SOL    HW198096   9.753   2.250  11.612 -0.7957  1.3024  1.7635
31095SOL    HW298097   9.714   2.370  11.529 -0.0544 -0.0625 -0.6633
31096SOL     OW98098   8.326   7.542   4.410  0.3790 -0.6781 -0.5068
31096SOL    HW198099   8.312   7.587   4.494 -2.3486 -0.7832 -0.8001
31096SOL    HW298100   8.364   7.457   4.434 -0.4673 -0.7493  0.6572
31097SOL     OW98101   2.161   9.968   0.380  0.2596  0.2712  0.1358
31097SOL    HW198102   2.104  10.024   0.329 -0.1812 -1.4902 -1.4170
31097SOL    HW298103   2.245   9.970   0.334  0.1281 -0.6062 -0.1681
31098SOL     OW98104   2.001   9.455  10.176 -0.6164 -0.0215  0.0976
31098SOL    HW198105   2.004   9.361  10.156 -0.5477 -0.0176  0.0868
31098SOL    HW298106   1.913   9.482  10.151 -0.2635  0.1600 -1.0146
31099SOL     OW98107   6.988  12.104   0.171  0.2035 -0.3143 -0.7852
31099SOL    HW198108   6.937  12.184   0.188 -0.8216 -0.8084 -1.4469
31099SOL    HW298109   7.014  12.112   0.079 -0.6836 -1.1605 -1.1205
31100SOL     OW98110   0.493   2.389   3.790  0.2057 -0.5995 -0.0364
31100SOL    HW198111   0.462   2.480   3.783 -1.8880 -1.2687 -0.1095
31100SOL    HW298112   0.582   2.397   3.823  0.4351  1.5266 -0.9691
31101SOL     OW98113   4.310   7.912   3.165  0.1911  0.6092 -0.0915
31101SOL    HW198114   4.389   7.862   3.145 -0.5291 -0.0595 -1.3897
31101SOL    HW298115   4.319   7.992   3.114  0.0616  0.5558 -0.1995
31102SOL     OW98116   0.151  10.166  11.452 -0.5647 -0.0248 -0.0604
31102SOL    HW198117   0.086  10.223  11.494 -0.6645 -1.0066  1.1713
31102SOL    HW298118   0.102  10.087  11.428  0.0290 -0.4966  0.2610
31103SOL     OW98119  10.768  12.648   4.462  0.2852  0.3380  0.1687
31103SOL    HW198120  10.676  12.656   4.485 -0.2393 -0.6538 -1.4723
31103SOL    HW298121  10.796  12.565   4.502  0.1485  0.0600 -0.3069
31104SOL     OW98122   2.435   3.866   2.818  0.3415  0.7166  0.7053
31104SOL    HW198123   2.476   3.847   2.902 -1.1536  0.4820  1.4170
31104SOL    HW298124   2.508   3.890   2.760  1.3670  1.1858  2.1400
31105SOL     OW98125   8.518  12.079   7.552 -0.2051 -0.5500  0.6082
31105SOL    HW198126   8.536  12.107   7.462 -0.3557 -1.1536  0.3811
31105SOL    HW298127   8.458  12.145   7.586  0.5412  0.1634  0.5655
31106SOL     OW98128   9.483   2.925   8.447 -0.2833  0.6402 -0.1922
31106SOL    HW198129   9.480   3.001   8.504  1.2050  0.3001  0.3886
31106SOL    HW298130   9.393   2.912   8.419 -0.6571  2.2361  0.1854
31107SOL     OW98131   6.758   5.182   5.200  0.1237  0.3687 -0.6082
31107SOL    HW198132   6.729   5.264   5.239  1.0071 -0.0551  1.0237
31107SOL    HW298133   6.759   5.119   5.273  1.6002 -0.5237 -1.3428
31108SOL     OW98134   3.981   9.029  12.588  0.4912  0.0131 -0.5140
31108SOL    HW198135   4.022   8.971  12.524 -0.8074 -0.2466 -1.1485
31108SOL    HW298136   3.963   9.109  12.538 -0.7842 -0.2941 -0.5621
31109SOL     OW98137   4.387   6.432   7.702 -0.4913 -0.4400  0.0364
31109SOL    HW198138   4.347   6.516   7.681  0.9958  0.0264 -1.1227
31109SOL    HW298139   4.481   6.448   7.695 -0.1553 -2.0362  0.4897
31110SOL     OW98140   6.218   2.731   9.064  0.2341 -0.5728 -0.2580
31110SOL    HW198141   6.192   2.705   9.152  0.2346  0.6551  0.1176
31110SOL    HW298142   6.138   2.764   9.024  0.7727  1.5339  0.2891
31111SOL     OW98143   7.309   6.198   8.758  0.1872 -0.3568 -0.1200
31111SOL    HW198144   7.365   6.272   8.735  1.2101 -0.8229  0.8121
31111SOL    HW298145   7.366   6.137   8.803 -0.9796 -1.0462  0.4839
31112SOL     OW98146   4.164  11.709  11.094 -0.0638  0.6739  0.1559
31112SOL    HW198147   4.148  11.803  11.107  0.3934  0.8577 -0.5246
31112SOL    HW298148   4.159  11.672  11.182 -0.3523  1.3200  0.4248
31113SOL     OW98149   6.349   2.520  12.644 -0.1891  0.9545 -0.4893
31113SOL    HW198150   6.292   2.556  12.712 -0.0651  1.0325 -0.4259
31113SOL    HW298151   6.435   2.518  12.684 -0.3352 -0.1991 -0.2029
31114SOL     OW98152  10.879   8.141   5.492  0.8634  0.2280  0.2099
31114SOL    HW198153  10.842   8.215   5.444 -2.2322 -0.6718  0.9797
31114SOL    HW298154  10.930   8.181   5.562 -1.8720  1.8265  1.4891
31115SOL     OW98155   2.717   5.454  11.773 -0.8783  0.2166 -0.1267
31115SOL    HW198156   2.789   5.515  11.789  0.2417 -1.3934  1.3396
31115SOL    HW298157   2.659   5.465  11.848 -0.3716 -0.8765  0.4517
31116SOL     OW98158   0.909   3.653  11.415  0.4669  0.2175  0.2805
31116SOL    HW198159   0.976   3.586  11.401  1.4367  1.4240 -1.1458
31116SOL    HW298160   0.832   3.621  11.368  0.7227 -0.1877  0.1398
31117SOL     OW98161  10.915  10.488   3.431 -0.1023 -0.6061 -0.5261
31117SOL    HW198162  10.924  10.444   3.516  1.6609 -0.2874 -0.4984
31117SOL    HW298163  10.867  10.568   3.449 -1.4188 -1.4530 -0.1859
31118SOL     OW98164   8.224   2.201   2.383  0.0755  0.3799  0.6496
31118SOL    HW198165   8.158   2.134   2.403  1.0716 -0.5628  0.8717
31118SOL    HW298166   8.295   2.153   2.341 -0.0479  1.6347 -1.0828
31119SOL     OW98167  12.549   1.177   8.649 -0.2698 -0.4660 -0.4942
31119SOL    HW198168  12.642   1.166   8.669  0.1013 -1.0024 -2.2701
31119SOL    HW298169  12.536   1.272   8.646 -0.4475 -0.3175  2.3346
31120SOL     OW98170  10.099  10.330   3.184 -0.1405  0.1670  0.1740
31120SOL    HW198171  10.072  10.382   3.108 -1.0109  0.5900  0.7547
31120SOL    HW298172  10.135  10.393   3.246 -0.4122 -0.0319  0.5382
31121SOL     OW98173   5.930   4.161   4.414  0.8844  0.1216 -0.3702
31121SOL    HW198174   5.984   4.092   4.453 -1.0613  0.0072  2.4255
31121SOL    HW298175   5.930   4.231   4.480 -2.1163  0.1868 -0.3329
31122SOL     OW98176   1.697   8.422   8.116  0.1555  0.7198  0.4428
31122SOL    HW198177   1.665   8.357   8.053  0.3354  0.0219  1.0563
31122SOL    HW298178   1.619   8.450   8.164  0.2782 -0.1046  1.1378
31123SOL     OW98179   4.102   4.126   5.441 -0.5420  0.4240  0.5643
31123SOL    HW198180   4.162   4.109   5.369  0.2014  3.4942  0.3134
31123SOL    HW298181   4.147   4.092   5.519 -0.1436 -0.5099 -0.0551
31124SOL     OW98182  12.054   5.743   0.710 -0.1055  0.1890 -0.2242
31124SOL    HW198183  12.133   5.772   0.757  1.1315 -1.8107 -0.9436
31124SOL    HW298184  12.004   5.824   0.695  0.5767  1.1921  2.4074
31125SOL     OW98185  12.183   5.199   2.044 -0.1853  0.0421  0.3010
31125SOL    HW198186  12.155   5.287   2.071 -0.8745  0.2521 -1.0225
31125SOL    HW298187  12.193   5.151   2.126  0.5764  1.4531  1.0690
31126SOL     OW98188   8.160   4.119   0.993  0.3011 -0.0407  0.1616
31126SOL    HW198189   8.085   4.175   1.015  1.2483  2.2783 -1.9549
31126SOL    HW298190   8.137   4.080   0.908  0.9146 -0.4207  0.1612
31127SOL     OW98191  11.809   1.104  12.332 -0.4150  0.1872  0.2469
31127SOL    HW198192  11.810   1.116  12.427 -1.6156  0.0499  0.2920
31127SOL    HW298193  11.897   1.130  12.303 -0.1116  0.4403  1.3629
31128SOL     OW98194   2.707   6.747   3.871 -0.0407  0.0601  0.1917
31128SOL    HW198195   2.702   6.843   3.867 -1.1551  0.0624  1.1175
31128SOL    HW298196   2.789   6.726   3.827 -0.6190  1.3273 -1.6162
31129SOL     OW98197   0.041   7.502   2.615 -0.3922 -0.0848  0.5844
31129SOL    HW198198   0.034   7.437   2.684  0.7628  1.0649  1.8369
31129SOL    HW298199  -0.028   7.566   2.634 -1.2290 -0.6555 -0.3850
31130SOL     OW98200   4.112   3.801   2.118 -0.5956 -0.0319  0.4808
31130SOL    HW198201   4.197   3.794   2.161  0.4994 -1.0660 -1.6893
31130SOL    HW298202   4.131   3.843   2.034 -2.1761 -0.6488 -0.2192
31131SOL     OW98203  10.546   3.100   2.369 -0.0783  0.6261 -0.4503
31131SOL    HW198204  10.517   3.126   2.456  1.4161 -2.0402  0.9762
31131SOL    HW298205  10.596   3.175   2.337 -1.0134  1.8151  0.7864
31132SOL     OW98206  10.543   7.043   9.812  0.4359 -0.1480  0.5819
31132SOL    HW198207  10.588   7.101   9.750 -1.6100 -0.5764 -1.4297
31132SOL    HW298208  10.607   7.029   9.882  2.7213  0.7224 -1.1960
31133SOL     OW98209   7.867   2.717  12.264  0.1999 -0.0471  0.0829
31133SOL    HW198210   7.824   2.796  12.232  1.6043  0.6691 -0.1228
31133SOL    HW298211   7.891   2.669  12.184 -0.2964 -0.4964  0.1967
31134SOL     OW98212  12.269   7.642   4.145 -0.0653  0.2990  0.4500
31134SOL    HW198213  12.268   7.693   4.064 -0.8616  0.0349  0.2876
31134SOL    HW298214  12.361   7.642   4.172  0.1763  0.5433 -0.3520
31135SOL     OW98215   3.106   4.889   4.985  0.5432  0.1309  0.0010
31135SOL    HW198216   3.145   4.863   4.902 -0.0713 -0.5682 -0.0778
31135SOL    HW298217   3.029   4.940   4.960  1.4780  1.7083  0.1535
31136SOL     OW98218   2.985   8.927   9.748 -0.1200 -0.2215 -0.0646
31136SOL    HW198219   2.936   8.997   9.790  1.3652 -0.5809  2.5100
31136SOL    HW298220   2.983   8.854   9.811  0.8377 -1.4303 -1.3507
31137SOL     OW98221   9.403   2.230  11.453  0.1058  0.0827  0.1540
31137SOL    HW198222   9.368   2.307  11.497  0.3441  0.5782 -0.5218
31137SOL    HW298223   9.497   2.233  11.470  0.4405  1.1460 -1.6812
31138SOL     OW98224   2.050   3.480   0.319  0.5429  0.8683 -0.0373
31138SOL    HW198225   1.998   3.487   0.238  1.7295  1.5012 -0.7751
31138SOL    HW298226   2.110   3.407   0.303  1.1113  1.3058  0.0729
31139SOL     OW98227   1.755  11.150  10.971 -0.1462 -0.6035 -0.3954
31139SOL    HW198228   1.689  11.204  11.015  0.7507  0.6597 -0.5359
31139SOL    HW298229   1.710  11.068  10.952 -1.3002 -0.2382  0.6140
31140SOL     OW98230   7.866   0.388   5.610  0.1473 -0.2675 -0.3452
31140SOL    HW198231   7.862   0.347   5.523  0.4044 -2.4186  0.5847
31140SOL    HW298232   7.955   0.372   5.640 -0.4751 -1.3014  1.0644
31141SOL     OW98233   5.881  10.911  10.624 -0.4090 -0.4276  0.1133
31141SOL    HW198234   5.816  10.856  10.581 -0.3638 -0.4281  0.0468
31141SOL    HW298235   5.830  10.984  10.661 -0.2561  0.5428 -1.4939
31142SOL     OW98236   1.806  10.185   5.961  0.2601  0.0060 -0.3269
31142SOL    HW198237   1.827  10.095   5.987  1.6305  0.7518  1.2866
31142SOL    HW298238   1.857  10.199   5.881  0.4639 -0.4589 -0.2828
31143SOL     OW98239   5.279   8.161   8.029  0.1895 -0.0746 -0.0940
31143SOL    HW198240   5.320   8.159   8.115  1.7946 -0.8298 -0.8276
31143SOL    HW298241   5.264   8.069   8.007 -1.4644  0.1583 -0.0819
31144SOL     OW98242   7.422   1.600   6.265 -0.4289 -0.5834 -0.4002
31144SOL    HW198243   7.387   1.689   6.254  2.8592  0.6347 -3.0616
31144SOL    HW298244   7.473   1.604   6.346  0.1712  0.2276 -0.7951
31145SOL     OW98245   9.022  10.092   3.166 -0.0973 -0.2871  0.2356
31145SOL    HW198246   8.968  10.019   3.194 -1.5544  0.9888  0.9339
31145SOL    HW298247   9.106  10.079   3.211 -0.7396 -0.8866  1.2915
31146SOL     OW98248   6.385   1.998   6.990  0.0117 -0.1391  0.7394
31146SOL    HW198249   6.341   1.933   7.045  0.5923 -1.0946  0.1221
31146SOL    HW298250   6.376   1.963   6.901  0.1265  0.7623  0.3669
31147SOL     OW98251   8.086   4.312  11.984 -0.2526  0.2297 -0.4503
31147SOL    HW198252   7.992   4.295  11.978 -0.2925  0.2452  0.0716
31147SOL    HW298253   8.092   4.402  12.017 -0.0503  0.3617 -0.8405
31148SOL     OW98254   9.342   9.988  10.759  0.3275 -0.9463  0.2064
31148SOL    HW198255   9.397   9.958  10.832  0.9390  0.6414  0.4222
31148SOL    HW298256   9.404  10.025  10.696 -0.1657 -2.4554 -1.2659
31149SOL     OW98257   4.160   4.565   5.246  0.4584 -0.2284 -0.2143
31149SOL    HW198258   4.243   4.602   5.277 -0.2872  0.5480  0.9891
31149SOL    HW298259   4.124   4.521   5.323 -0.8870  0.6609 -0.3081
31150SOL     OW98260  10.885   0.164  12.004 -0.2734  0.3506  0.1132
31150SOL    HW198261  10.972   0.138  12.036  0.7145  0.3278 -2.3794
31150SOL    HW298262  10.824   0.122  12.064  1.3512  2.2790  3.4421
31151SOL     OW98263   5.271  11.599   9.062 -0.0848 -0.4619  0.1475
31151SOL    HW198264   5.302  11.530   9.121 -1.1071 -1.4816 -0.4700
31151SOL    HW298265   5.346  11.617   9.005  1.0040  0.7093  1.8319
31152SOL     OW98266  10.745   7.517   8.528 -0.4277 -0.4813 -0.0608
31152SOL    HW198267  10.730   7.606   8.494  0.5415 -0.4366 -0.4156
31152SOL    HW298268  10.839   7.514   8.546 -0.3646 -1.5880 -0.5005
31153SOL     OW98269   9.317   7.984   6.703 -0.0261  0.2155  0.4223
31153SOL    HW198270   9.390   7.994   6.765  2.1906  0.5439 -2.0923
31153SOL    HW298271   9.261   8.059   6.720  1.0995  0.8827  1.3045
31154SOL     OW98272   6.120   3.816   5.104 -0.5979  0.2886 -0.1676
31154SOL    HW198273   6.124   3.770   5.188 -2.8187 -2.4218 -1.4105
31154SOL    HW298274   6.035   3.859   5.105 -0.6183  0.2683 -1.0562
31155SOL     OW98275   7.554   6.404   4.250 -0.4018 -0.1130 -0.5086
31155SOL    HW198276   7.548   6.422   4.157 -3.2260  0.6312 -0.2964
31155SOL    HW298277   7.615   6.469   4.284  1.0251 -0.6930 -1.8529
31156SOL     OW98278   0.185   3.875   7.212  0.2755 -0.1326 -0.2171
31156SOL    HW198279   0.101   3.894   7.253  0.4107  1.4393 -0.5794
31156SOL    HW298280   0.162   3.849   7.122  0.1442 -0.5764 -0.0592
31157SOL     OW98281   8.222   6.687   3.602 -0.3600 -0.7920  0.0557
31157SOL    HW198282   8.316   6.699   3.589 -0.6072 -0.4993 -1.7215
31157SOL    HW298283   8.210   6.592   3.608  0.0150 -0.8399  0.0291
31158SOL     OW98284   3.995   9.269  10.245 -0.8236 -0.2804 -0.2732
31158SOL    HW198285   4.033   9.353  10.271  0.5996 -1.2359  0.9451
31158SOL    HW298286   4.041   9.204  10.300 -1.5039 -1.9001 -1.5283
31159SOL     OW98287   5.692  11.495   1.323  0.3671  0.0606 -0.1624
31159SOL    HW198288   5.651  11.546   1.392 -0.5053 -1.2721  0.3473
31159SOL    HW298289   5.786  11.507   1.336  0.1891  0.7617  0.5252
31160SOL     OW98290  10.089  11.182   1.483  0.3701 -0.1465 -0.6785
31160SOL    HW198291  10.044  11.123   1.543 -1.4104  0.9989 -0.8167
31160SOL    HW298292  10.180  11.152   1.484 -0.2392 -2.1672  0.0981
31161SOL     OW98293   8.119   8.630  11.697  0.0392 -0.3403 -0.1212
31161SOL    HW198294   8.128   8.614  11.603  2.0475  0.1950 -0.0613
31161SOL    HW298295   8.122   8.543  11.737  0.1910 -0.4992 -0.4786
31162SOL     OW98296   7.557   5.395   3.459 -0.0993  0.6031 -0.2345
31162SOL    HW198297   7.645   5.411   3.425  0.7009 -0.8022  1.0336
31162SOL    HW298298   7.566   5.403   3.554 -0.1713 -3.9057  0.3769
31163SOL     OW98299   4.274  11.079   2.091 -0.1817  0.4039  0.1174
31163SOL    HW198300   4.292  10.985   2.089  0.2758  0.5054 -1.3509
31163SOL    HW298301   4.318  11.114   2.014 -2.2680  1.4738 -0.6628
31164SOL     OW98302   4.943   2.225  11.173 -0.0263  0.3347 -0.3692
31164SOL    HW198303   4.893   2.148  11.199  0.9388 -0.8691 -1.9316
31164SOL    HW298304   4.880   2.280  11.127 -0.5323  0.0983  0.0308
31165SOL     OW98305   3.113   2.399   0.985 -0.5080 -0.0433  0.0695
31165SOL    HW198306   3.160   2.395   0.902  0.4085  0.7952  0.5156
31165SOL    HW298307   3.037   2.455   0.967  1.2591  2.6938  0.4420
31166SOL     OW98308   9.131   7.936   4.541 -0.3356  0.0907 -0.3140
31166SOL    HW198309   9.138   8.022   4.501 -1.6092  0.3157 -0.1000
31166SOL    HW298310   9.218   7.897   4.530 -0.3652  0.4931 -2.4693
31167SOL     OW98311   2.908   1.958  11.280  0.4391  0.5827 -0.0706
31167SOL    HW198312   2.951   2.043  11.271  1.5895 -0.1399 -2.2708
31167SOL    HW298313   2.980   1.897  11.298 -0.0652 -0.2012 -0.6618
31168SOL     OW98314   0.342  11.548  10.567 -0.0206 -0.7122 -0.1731
31168SOL    HW198315   0.279  11.480  10.593  0.7144 -1.3841 -0.0898
31168SOL    HW298316   0.427  11.510  10.588  0.5137 -0.5199 -1.8634
31169SOL     OW98317   2.858   9.915  11.485  0.5534 -0.0234  0.2294
31169SOL    HW198318   2.938   9.967  11.480  0.7777 -0.1068  2.3551
31169SOL    HW298319   2.794   9.972  11.526  0.1728 -0.6927  0.5941
31170SOL     OW98320   3.405   5.935   2.096 -0.7255 -0.5861 -0.2744
31170SOL    HW198321   3.439   5.852   2.129 -1.2189 -1.1427 -1.1197
31170SOL    HW298322   3.481   5.980   2.061 -0.4647 -0.7079  0.1269
31171SOL     OW98323   8.298   9.368  12.448 -0.6789  0.1451  0.4184
31171SOL    HW198324   8.247   9.347  12.370 -1.4044  2.7404  0.1063
31171SOL    HW298325   8.239   9.420  12.502  0.8201  1.1020  1.2098
31172SOL     OW98326   9.715   9.920  12.009  0.0918  0.2397  0.2614
31172SOL    HW198327   9.621   9.933  11.994  0.1093 -0.9651 -1.0053
31172SOL    HW298328   9.727   9.826  12.009  1.6526  0.3713 -2.0092
31173SOL     OW98329   4.235   5.866   2.437 -0.0357  0.0759 -0.1965
31173SOL    HW198330   4.268   5.944   2.482  1.6271 -1.9122  2.3284
31173SOL    HW298331   4.189   5.817   2.505  0.1503 -1.8018 -1.3539
31174SOL     OW98332   9.562   7.288  11.964  0.2290 -0.2667 -0.0074
31174SOL    HW198333   9.600   7.201  11.967 -1.0156 -0.8173  1.2207
31174SOL    HW298334   9.560   7.316  12.056  1.2862  1.3821 -0.4436
31175SOL     OW98335   2.745   0.728  10.002  0.3169  0.2810  0.0711
31175SOL    HW198336   2.747   0.758   9.911  0.0687  0.1258  0.0145
31175SOL    HW298337   2.671   0.774  10.040  0.6122  0.5885  0.2815
31176SOL     OW98338   1.738  11.245   9.040 -0.7195 -0.3175 -0.7487
31176SOL    HW198339   1.730  11.263   9.133  0.6412 -2.6722 -0.1063
31176SOL    HW298340   1.796  11.313   9.007 -0.1036 -0.2552  0.4230
31177SOL     OW98341   3.990   7.315   8.513  0.3952 -0.1038 -0.4323
31177SOL    HW198342   4.047   7.293   8.440  1.4024  0.3140  0.2143
31177SOL    HW298343   4.024   7.263   8.586 -0.9084 -0.9063 -0.3590
31178SOL     OW98344  11.808   8.941   4.674 -0.2625  0.0135 -0.1755
31178SOL    HW198345  11.793   8.863   4.621  1.1756  0.6796 -1.6371
31178SOL    HW298346  11.883   8.918   4.730 -1.3154 -0.4292  1.1202
31179SOL     OW98347   8.381   7.652   6.925  0.0581 -0.0836  0.1711
31179SOL    HW198348   8.332   7.649   7.008 -0.7937  2.0512 -0.1913
31179SOL    HW298349   8.473   7.653   6.952 -0.1529 -1.0997  0.9984
31180SOL     OW98350  11.441   6.264   7.919 -0.2917 -0.1733 -0.1220
31180SOL    HW198351  11.474   6.181   7.885 -0.4969 -0.2379 -0.1691
31180SOL    HW298352  11.421   6.315   7.840  0.8595  0.3451 -0.1005
31181SOL     OW98353   3.481  12.383   2.219  0.1784 -0.4526  0.5864
31181SOL    HW198354   3.455  12.474   2.237 -0.7948 -0.9689  1.9220
31181SOL    HW298355   3.467  12.373   2.125 -0.0566  0.6786  0.4860
31182SOL     OW98356  11.142   2.341   5.789 -0.2670 -0.2247 -0.4336
31182SOL    HW198357  11.140   2.357   5.695  0.7890  0.2411 -0.3907
31182SOL    HW298358  11.234   2.354   5.814 -0.5452 -0.2470  0.6734
31183SOL     OW98359   2.901   6.582  11.954  0.3225 -0.1730 -0.1128
31183SOL    HW198360   2.820   6.534  11.933  1.5645 -2.6694  0.4638
31183SOL    HW298361   2.967   6.514  11.965  2.1533  1.6951  1.1407
31184SOL     OW98362   1.186   0.054   8.617  0.3651  0.4530  0.8094
31184SOL    HW198363   1.161  -0.036   8.637  0.1539  0.8142  2.2871
31184SOL    HW298364   1.275   0.047   8.582  0.6357 -0.2879  1.6057
31185SOL     OW98365   6.107   5.233   2.735  0.6943  0.0083 -0.4480
31185SOL    HW198366   6.127   5.274   2.651  1.4096 -0.0522 -0.3158
31185SOL    HW298367   6.071   5.147   2.712  0.1550  0.2913 -0.7014
31186SOL     OW98368  11.371   6.452   3.917 -0.7197 -0.0778  0.8033
31186SOL    HW198369  11.420   6.482   3.840  0.1280 -0.4386  1.1942
31186SOL    HW298370  11.306   6.521   3.932  0.0212  0.6761  0.6018
31187SOL     OW98371   4.369   8.108  10.371  0.2667  0.0755  0.4545
31187SOL    HW198372   4.353   8.201  10.360 -0.5786 -0.0672  0.4279
31187SOL    HW298373   4.406   8.099  10.459 -1.5050  0.2342  1.2579
31188SOL     OW98374  10.277   8.373   5.294  0.0505 -0.4759 -0.3727
31188SOL    HW198375  10.272   8.350   5.387  0.5932 -0.9246 -0.4519
31188SOL    HW298376  10.202   8.431   5.280 -1.2854 -2.1115 -0.1666
31189SOL     OW98377   6.612   9.355  12.054 -0.0281 -0.1376  0.0302
31189SOL    HW198378   6.658   9.364  11.971  1.8651 -0.1628  1.0196
31189SOL    HW298379   6.602   9.445  12.086  2.2702 -0.2425  1.2757
31190SOL     OW98380  10.135   3.325   9.651  0.3454  0.7228 -0.0196
31190SOL    HW198381  10.084   3.249   9.678  0.9181  0.4179  0.2194
31190SOL    HW298382  10.073   3.398   9.654  0.5674  0.9069  3.0378
31191SOL     OW98383   1.465   3.284   7.192  0.0362 -0.1008 -0.0624
31191SOL    HW198384   1.463   3.210   7.253  0.5929  0.1729  0.2966
31191SOL    HW298385   1.414   3.353   7.236 -0.5842 -0.3011 -0.4496
31192SOL     OW98386  10.130  10.833   1.867  0.6399  0.0985  0.0098
31192SOL    HW198387  10.223  10.815   1.853  0.1907 -1.1942 -1.5795
31192SOL    HW298388  10.088  10.747   1.864 -0.6568  0.6906  0.4043
31193SOL     OW98389   2.732   8.451   6.020 -0.1055  0.2743  0.4367
31193SOL    HW198390   2.708   8.393   5.947  1.2263  0.9222 -0.5645
31193SOL    HW298391   2.802   8.405   6.066  0.5126  0.7806  0.0233
31194SOL     OW98392   2.962   0.809   6.574 -0.2266  0.4386 -0.2432
31194SOL    HW198393   3.025   0.748   6.535 -1.2385 -0.9711  0.2434
31194SOL    HW298394   3.017   0.874   6.619  0.8872  0.1271 -1.0886
31195SOL     OW98395   0.605   8.108  12.426  0.6358  0.0166 -1.0368
31195SOL    HW198396   0.543   8.051  12.470  0.3961  0.5681 -0.6379
31195SOL    HW298397   0.670   8.049  12.387 -0.1394 -0.5623 -1.4679
31196SOL     OW98398  12.069   6.666   6.839  0.0035 -0.0198 -0.2420
31196SOL    HW198399  12.138   6.717   6.797 -1.1419  1.4527 -0.4134
31196SOL    HW298400  12.073   6.693   6.931 -0.3976  0.1358 -0.2715
31197SOL     OW98401  12.368   4.119   2.336  0.1348 -0.4596  0.6301
31197SOL    HW198402  12.418   4.055   2.285 -1.2311 -0.9787 -0.1080
31197SOL    HW298403  12.288   4.072   2.362 -1.7311  1.3786 -1.3799
31198SOL     OW98404   5.248   5.762  12.231 -0.2702 -0.0862 -0.0489
31198SOL    HW198405   5.237   5.856  12.249 -0.3648  0.1534 -1.2924
31198SOL    HW298406   5.330   5.739  12.275  0.2311  0.7952 -0.5024
31199SOL     OW98407   3.580   6.781  11.246  0.5189 -0.5855  0.0297
31199SOL    HW198408   3.509   6.802  11.307  1.0489  0.6045  0.2619
31199SOL    HW298409   3.616   6.865  11.221 -0.4798 -0.9293 -2.9701
31200SOL     OW98410   1.908   0.021   5.325  0.3347 -0.0753  0.1141
31200SOL    HW198411   1.940   0.029   5.235  0.3569 -0.4891  0.0848
31200SOL    HW298412   1.909  -0.073   5.343  1.5892  0.0908  1.0091
31201SOL     OW98413   5.213   5.045   1.382 -0.0146  0.0164 -0.4905
31201SOL    HW198414   5.216   5.086   1.296 -1.5842 -0.7116 -0.9182
31201SOL    HW298415   5.122   5.016   1.393  0.3886 -0.8411  0.9645
31202SOL     OW98416   8.654   1.465  11.032  0.0215 -0.3868 -0.0043
31202SOL    HW198417   8.686   1.386  11.077  1.4981 -0.1882 -0.6360
31202SOL    HW298418   8.592   1.505  11.093 -0.6545 -1.9526  0.3858
31203SOL     OW98419   5.106  11.136   0.108 -0.1263  0.0263 -0.2547
31203SOL    HW198420   5.086  11.181   0.191  1.7175  0.8644 -0.2155
31203SOL    HW298421   5.020  11.109   0.075 -1.0379  0.9027  1.2348
31204SOL     OW98422   2.802   8.738   9.243  0.1755 -0.2274 -0.2320
31204SOL    HW198423   2.746   8.689   9.184  1.4159 -1.7615 -0.2165
31204SOL    HW298424   2.872   8.772   9.188 -0.8327  1.9265 -0.3088
31205SOL     OW98425   0.462   2.734   4.303  0.5553  0.0519 -0.4477
31205SOL    HW198426   0.411   2.793   4.359  2.3818 -0.0178  1.4251
31205SOL    HW298427   0.551   2.769   4.307  1.5294 -2.2856  0.0177
31206SOL     OW98428   3.464   1.273   5.202  0.5822  0.0830 -0.0317
31206SOL    HW198429   3.372   1.266   5.227 -0.0939  3.3925 -1.0436
31206SOL    HW298430   3.465   1.248   5.110  0.3092  1.6356 -0.4874
31207SOL     OW98431   9.014   6.989   4.790  0.1038  0.4314  0.4272
31207SOL    HW198432   8.937   7.045   4.785  0.0692  0.3947  0.5548
31207SOL    HW298433   9.002   6.938   4.870  0.4274  0.6668  0.6299
31208SOL     OW98434  10.613   5.669   0.218  0.2736  0.0877  0.1621
31208SOL    HW198435  10.606   5.757   0.254  0.7446 -0.3085  1.2599
31208SOL    HW298436  10.685   5.674   0.155 -0.6282  0.8129 -0.8465
31209SOL     OW98437   8.751   5.309   3.980  0.1254 -0.2194 -0.3570
31209SOL    HW198438   8.770   5.387   3.929  1.8549  0.8256  1.7208
31209SOL    HW298439   8.797   5.239   3.935  0.4379  0.3898 -1.0004
31210SOL     OW98440   3.764   2.105   2.674  0.6151  0.3872  0.3369
31210SOL    HW198441   3.850   2.145   2.688  0.3858  0.6633  0.9908
31210SOL    HW298442   3.750   2.051   2.752  0.3537  0.0612  0.0637
31211SOL     OW98443   9.236   4.666   1.957  0.0770  0.3983 -0.2379
31211SOL    HW198444   9.330   4.676   1.944  0.3263  0.0755  1.1856
31211SOL    HW298445   9.204   4.629   1.875  1.2229  0.2877 -0.6485
31212SOL     OW98446   7.155   5.943   6.091  0.0055 -0.4257 -0.0646
31212SOL    HW198447   7.150   5.859   6.045  0.0710 -0.9472  0.8509
31212SOL    HW298448   7.065   5.962   6.118  0.1477 -0.7746  0.6979
31213SOL     OW98449   1.826   0.684   2.829 -0.3366 -0.6403  0.6183
31213SOL    HW198450   1.745   0.676   2.777  2.1964 -2.1010 -3.6481
31213SOL    HW298451   1.841   0.778   2.835 -0.2386 -0.3267 -2.5895
31214SOL     OW98452   5.709   3.003   0.336  0.3018  0.3710  0.0792
31214SOL    HW198453   5.730   3.054   0.415  1.8715  0.1895 -0.2043
31214SOL    HW298454   5.617   2.979   0.348  0.6292 -0.0625  2.0975
31215SOL     OW98455   8.719  11.706   2.897 -0.3337 -0.0618 -0.1515
31215SOL    HW198456   8.733  11.763   2.821 -0.2407  0.2823  0.1205
31215SOL    HW298457   8.659  11.754   2.953  1.2321  0.6473  0.9886
31216SOL     OW98458   6.234   0.362   3.581 -0.9556  0.1410 -0.0773
31216SOL    HW198459   6.233   0.448   3.540  1.5217 -0.0987 -0.7943
31216SOL    HW298460   6.146   0.327   3.565 -1.7572  2.1961 -0.4450
31217SOL     OW98461   4.632   2.381   0.779  0.3123  0.7273 -0.3027
31217SOL    HW198462   4.640   2.304   0.835 -0.8433  0.5532 -0.3648
31217SOL    HW298463   4.718   2.389   0.736  0.8974  0.3032  0.7510
31218SOL     OW98464   9.569   7.604   4.166 -0.2099 -0.2799 -0.3675
31218SOL    HW198465   9.477   7.590   4.188 -0.1774 -2.7977 -1.5339
31218SOL    HW298466   9.617   7.542   4.221  1.0542  2.2854  1.6181
31219SOL     OW98467  12.618   2.808   3.531  0.0227 -0.1688 -0.5709
31219SOL    HW198468  12.591   2.792   3.622 -0.3208 -0.1896 -0.6766
31219SOL    HW298469  12.668   2.731   3.507 -0.7570 -0.6372 -0.7359
31220SOL     OW98470   9.598   2.008   8.593  0.4089 -0.3900 -0.5107
31220SOL    HW198471   9.533   2.078   8.593 -1.2832 -1.8412 -2.3144
31220SOL    HW298472   9.680   2.051   8.617 -1.3958  1.2379  3.6966
31221SOL     OW98473   0.546  12.593   1.495  0.2210  0.3725 -0.1029
31221SOL    HW198474   0.498  12.580   1.577 -0.5577 -2.0497 -0.8563
31221SOL    HW298475   0.633  12.555   1.512 -0.5710 -2.0124 -0.8983
31222SOL     OW98476   7.072   9.504   1.780  0.0769 -0.1011 -0.2231
31222SOL    HW198477   6.996   9.462   1.821  1.0353 -0.6663  1.0566
31222SOL    HW298478   7.102   9.567   1.846  3.2573 -2.8577  1.2691
31223SOL     OW98479   7.006   4.144  11.480  0.1583  0.2515  0.1047
31223SOL    HW198480   6.913   4.154  11.464 -0.0567 -0.4593  0.8355
31223SOL    HW298481   7.030   4.219  11.535 -0.7669 -1.3677  2.9129
31224SOL     OW98482   0.231   5.740   0.562  0.3460  0.5155 -0.2679
31224SOL    HW198483   0.208   5.811   0.502 -1.3180 -1.1055 -1.6583
31224SOL    HW298484   0.161   5.742   0.628 -0.0879 -0.2010 -0.6895
31225SOL     OW98485   6.578   4.918   4.363 -0.2122 -0.1460  0.2697
31225SOL    HW198486   6.487   4.942   4.378 -0.1730 -0.6432  1.4161
31225SOL    HW298487   6.596   4.946   4.273 -1.3035  0.5240  0.2417
31226SOL     OW98488   1.420   7.030   1.450  0.1345 -0.0805  0.0868
31226SOL    HW198489   1.514   7.036   1.435  0.0497  0.4183 -0.2852
31226SOL    HW298490   1.399   6.937   1.442  0.2340  0.0493 -2.0784
31227SOL     OW98491   0.370   6.478   4.116 -0.4173  0.1725 -0.7302
31227SOL    HW198492   0.341   6.514   4.200 -3.7412 -0.0588 -1.6299
31227SOL    HW298493   0.398   6.389   4.135 -0.6797  0.2863  0.2050
31228SOL     OW98494   0.413   8.599   3.827 -0.2561 -0.2267 -0.3154
31228SOL    HW198495   0.360   8.602   3.747  1.6186 -3.1302 -1.8399
31228SOL    HW298496   0.494   8.644   3.804 -1.3241  3.0789  1.6114
31229SOL     OW98497  10.356   5.549   0.885  0.3539  0.0767 -0.2017
31229SOL    HW198498  10.346   5.580   0.796  0.3398  0.5603 -0.0313
31229SOL    HW298499  10.313   5.615   0.939 -2.1496 -1.5770 -0.0323
31230SOL     OW98500   3.339   2.722  12.111 -0.6520 -0.2737  0.3819
31230SOL    HW198501   3.308   2.716  12.021  0.5748 -0.0192 -0.0737
31230SOL    HW298502   3.359   2.631  12.135  1.4336 -0.0939 -0.5072
31231SOL     OW98503   5.338   1.741   0.512  0.1570 -0.0839 -0.4054
31231SOL    HW198504   5.336   1.646   0.513 -0.9372 -0.1270  2.3118
31231SOL    HW298505   5.412   1.764   0.569 -0.5019  0.6702  0.1638
31232SOL     OW98506   9.315   8.223   6.118 -0.1900  0.0642 -0.6913
31232SOL    HW198507   9.270   8.176   6.048 -2.6962  0.8547  0.2609
31232SOL    HW298508   9.245   8.269   6.164  1.7249  1.8302  0.6116
31233SOL     OW98509  11.648   1.047   2.682  0.1699 -0.0931 -0.7733
31233SOL    HW198510  11.694   1.066   2.601  1.3685 -1.8029 -0.5434
31233SOL    HW298511  11.633   0.952   2.679 -1.7867  0.1315 -0.0089
31234SOL     OW98512   4.385   9.892   4.340 -0.4042  0.0426 -0.3628
31234SOL    HW198513   4.321   9.954   4.377 -0.2571 -0.2559  0.4205
31234SOL    HW298514   4.339   9.808   4.341  0.2444 -0.3214  0.9287
31235SOL     OW98515  12.169   7.890   9.553  0.2287 -0.3207 -0.1002
31235SOL    HW198516  12.135   7.963   9.502 -0.1928 -0.0226  0.5862
31235SOL    HW298517  12.186   7.927   9.640 -0.3827 -1.1179  0.3761
31236SOL     OW98518   2.659  10.078   6.122 -0.2218  0.5441  0.5452
31236SOL    HW198519   2.640  10.099   6.213  0.4106 -0.8818  1.0372
31236SOL    HW298520   2.689   9.987   6.124  1.3860  0.9927 -0.8785
31237SOL     OW98521   0.075   9.628   0.552  0.2188 -0.8129 -0.3018
31237SOL    HW198522   0.015   9.600   0.483 -2.7638  0.0638  1.6909
31237SOL    HW298523   0.041   9.714   0.579  0.5420 -1.5374  2.8769
31238SOL     OW98524   2.439  11.518   4.554 -0.5445  0.6196 -0.2883
31238SOL    HW198525   2.348  11.512   4.584 -0.8326  0.5204 -1.1551
31238SOL    HW298526   2.433  11.512   4.459  0.5458 -1.7115 -0.2830
31239SOL     OW98527   2.193  12.063   6.321  0.1298 -0.4793  0.0199
31239SOL    HW198528   2.191  12.024   6.408  0.9621 -0.2220  0.1686
31239SOL    HW298529   2.111  12.037   6.280 -0.1405 -0.8376  0.7815
31240SOL     OW98530   3.676   3.354   3.175 -0.3846 -0.9582  0.6605
31240SOL    HW198531   3.692   3.397   3.091  1.1115  1.3530  2.0193
31240SOL    HW298532   3.723   3.271   3.169  0.6807 -0.3119 -0.3934
31241SOL     OW98533   1.776   8.150   2.601  0.3445  0.0277  0.2283
31241SOL    HW198534   1.818   8.107   2.526 -0.8027  0.0468 -0.4442
31241SOL    HW298535   1.749   8.236   2.567  0.4493  0.3216  0.8714
31242SOL     OW98536   1.386  11.459   6.979 -0.1131 -0.0968 -0.0104
31242SOL    HW198537   1.365  11.550   6.956  1.2153  0.2282 -0.0511
31242SOL    HW298538   1.446  11.467   7.053 -1.1982 -1.0091  1.0002
31243SOL     OW98539   6.252   4.982   9.032  0.5342 -0.2286 -0.5242
31243SOL    HW198540   6.256   4.975   9.127  0.9598 -1.9048 -0.6349
31243SOL    HW298541   6.343   4.997   9.006  0.1805  2.1423 -0.5849
31244SOL     OW98542   1.957   3.249   5.909  0.1475  0.4468 -0.2945
31244SOL    HW198543   1.964   3.292   5.994 -2.8967  0.8251 -0.1267
31244SOL    HW298544   1.977   3.318   5.846 -1.3306  1.2668  0.0764
31245SOL     OW98545   0.586   9.378   7.849 -0.3628 -0.0519 -0.5159
31245SOL    HW198546   0.611   9.427   7.927  2.5656 -1.5510 -0.3694
31245SOL    HW298547   0.600   9.440   7.777  0.0610  0.3730 -0.0840
31246SOL     OW98548   0.276   7.845   4.118  0.1440 -0.0051 -0.6540
31246SOL    HW198549   0.357   7.894   4.134  1.0549 -1.8381  0.7914
31246SOL    HW298550   0.250   7.870   4.029  2.8768 -0.1423 -1.5925
31247SOL     OW98551   3.225   5.745   2.550  0.3695 -0.7337  0.7776
31247SOL    HW198552   3.320   5.741   2.549  0.4426  0.0238 -1.9156
31247SOL    HW298553   3.205   5.836   2.573  0.4154 -0.2541 -0.9285
31248SOL     OW98554   0.256   0.152   8.412 -0.0344  0.1282 -0.5023
31248SOL    HW198555   0.336   0.195   8.384 -0.2664 -0.4070 -2.0495
31248SOL    HW298556   0.259   0.065   8.373 -1.7836  0.4159 -1.3928
31249SOL     OW98557   5.605  11.194   7.674 -0.1971  0.0308  0.2818
31249SOL    HW198558   5.653  11.147   7.742  1.0132 -0.1715 -0.6726
31249SOL    HW298559   5.517  11.205   7.709  0.2234 -0.6524  1.5930
31250SOL     OW98560   7.430   6.366   0.963  0.0449 -0.1690  0.1784
31250SOL    HW198561   7.475   6.427   1.021 -0.5840 -0.5041  1.0380
31250SOL    HW298562   7.395   6.299   1.021 -1.6968  0.1656 -0.4269
31251SOL     OW98563   0.805   8.414  10.889  0.3497  0.5027  0.2823
31251SOL    HW198564   0.775   8.350  10.954 -0.1292 -0.3065 -0.7120
31251SOL    HW298565   0.737   8.481  10.888 -0.0402  0.1051  0.0389
31252SOL     OW98566  10.957   2.802   6.299  0.1125 -0.2156  0.2466
31252SOL    HW198567  11.050   2.778   6.303  0.0345 -0.2827  2.6720
31252SOL    HW298568  10.910   2.720   6.313 -0.3714 -0.2679 -1.4704
31253SOL     OW98569   5.450  11.541   8.740 -0.2917 -0.0774 -0.2106
31253SOL    HW198570   5.444  11.631   8.772 -0.1360  0.6534 -2.1464
31253SOL    HW298571   5.543  11.521   8.744 -0.4042 -0.4811  0.9739
31254SOL     OW98572   6.700   3.392  12.201 -0.7898 -0.0582  0.0614
31254SOL    HW198573   6.652   3.427  12.127 -0.0472 -0.6292 -0.7111
31254SOL    HW298574   6.783   3.440  12.201  0.4959 -2.1263 -1.3725
31255SOL     OW98575   6.575   5.221   7.859 -0.4072 -0.3418  0.8848
31255SOL    HW198576   6.637   5.252   7.925  0.7601  0.0984 -0.3789
31255SOL    HW298577   6.608   5.256   7.777 -2.2988 -0.1648  0.1481
31256SOL     OW98578  11.983  12.015   4.226  0.0971  0.5329  0.5658
31256SOL    HW198579  11.957  11.964   4.150  4.5735 -0.7255 -0.4142
31256SOL    HW298580  11.988  12.105   4.194  0.0956  0.3003 -0.0886
31257SOL     OW98581   2.276   0.112   6.202  0.1358 -0.0353 -0.1229
31257SOL    HW198582   2.351   0.155   6.161  0.7072  0.9148  1.8053
31257SOL    HW298583   2.204   0.174   6.189 -0.1872 -0.6575 -1.4147
31258SOL     OW98584   5.599   5.070   7.872 -0.3803  0.5811 -0.1537
31258SOL    HW198585   5.614   5.063   7.777  0.5356 -0.4718  0.0491
31258SOL    HW298586   5.594   4.980   7.902  1.6389  0.8379  1.1364
31259SOL     OW98587   0.894   9.641  11.202  0.0689  0.4727  0.2178
31259SOL    HW198588   0.839   9.716  11.225  0.2722 -0.0291  2.6178
31259SOL    HW298589   0.978   9.680  11.176 -0.1245  1.1236  0.5344
31260SOL     OW98590  10.172   5.629  11.725  0.2583 -0.2627 -0.0631
31260SOL    HW198591  10.246   5.634  11.665 -0.6447  1.4249 -1.1005
31260SOL    HW298592  10.207   5.583  11.802  1.4315 -2.4999 -1.8216
31261SOL     OW98593  10.189   9.117   0.240  0.1678 -0.3318  0.3130
31261SOL    HW198594  10.263   9.092   0.185 -0.4257  2.4306 -2.0027
31261SOL    HW298595  10.218   9.199   0.282 -0.9130 -0.1997  0.8297
31262SOL     OW98596   0.468  10.860  11.267 -0.0494 -0.2496  0.3218
31262SOL    HW198597   0.511  10.902  11.342  0.9887 -0.4476 -0.1502
31262SOL    HW298598   0.384  10.831  11.302  0.9165 -1.4521  1.7805
31263SOL     OW98599   1.554  10.237   5.439  0.2888 -0.2259 -0.1631
31263SOL    HW198600   1.460  10.246   5.451  0.3713  1.3384 -0.4824
31263SOL    HW298601   1.578  10.306   5.378  1.3743 -1.8262 -1.6488
31264SOL     OW98602   4.203  10.921   1.231  0.7922  0.1143 -0.1066
31264SOL    HW198603   4.265  10.850   1.244 -0.1522 -0.6818  0.1621
31264SOL    HW298604   4.209  10.941   1.137  0.5338 -0.8278 -0.3338
31265SOL     OW98605  11.164  12.258   1.727  0.4271 -0.2768  0.3004
31265SOL    HW198606  11.125  12.337   1.690 -0.1443 -0.9639 -0.6160
31265SOL    HW298607  11.253  12.283   1.750  0.4661  0.4560 -0.5994
31266SOL     OW98608   4.950   6.248   0.921  0.3428 -0.2096  0.1041
31266SOL    HW198609   4.917   6.336   0.940  1.6627  0.0368  1.4212
31266SOL    HW298610   5.003   6.225   0.997  2.1719 -1.0989 -1.3624
31267SOL     OW98611  10.302   9.628   5.251  0.3199  0.0706 -0.1509
31267SOL    HW198612  10.313   9.574   5.330 -2.7649 -1.7728 -0.8154
31267SOL    HW298613  10.298   9.565   5.180  1.4392  1.5983 -1.6441
31268SOL     OW98614   6.376  11.254  12.120 -0.1495  0.1113 -0.9529
31268SOL    HW198615   6.387  11.296  12.035  0.3746  0.5157 -0.6919
31268SOL    HW298616   6.379  11.326  12.183 -0.3108 -0.2084 -0.5762
31269SOL     OW98617   9.321   4.378   5.526 -0.2488  0.2064 -0.5896
31269SOL    HW198618   9.340   4.471   5.542  0.4599 -0.2022  1.1728
31269SOL    HW298619   9.256   4.356   5.593 -0.1017 -0.6651 -0.7313
31270SOL     OW98620   6.600   5.705  12.483  0.0143 -0.3822  0.0198
31270SOL    HW198621   6.597   5.615  12.518  0.2722 -0.4401 -0.1093
31270SOL    HW298622   6.686   5.712  12.442  0.0713 -0.0102  0.1994
31271SOL     OW98623   6.070  10.903   2.720 -0.3020  0.5440  0.1291
31271SOL    HW198624   6.096  10.898   2.628 -1.5894 -0.1018 -0.2156
31271SOL    HW298625   5.975  10.910   2.717 -0.5204 -1.2719  1.4572
31272SOL     OW98626  10.634   2.766  10.778 -0.7172 -0.0869  0.1219
31272SOL    HW198627  10.721   2.766  10.738 -1.5330 -0.4578 -1.7586
31272SOL    HW298628  10.575   2.791  10.707 -1.9840  1.9673  1.8068
31273SOL     OW98629  10.759   3.504  12.165  0.1708  0.4077 -0.0438
31273SOL    HW198630  10.668   3.517  12.192  0.4106  0.6457  0.6930
31273SOL    HW298631  10.798   3.592  12.170  0.6344  0.1829  0.4214
31274SOL     OW98632   4.002   6.593   1.640 -0.4987  0.2145 -0.3946
31274SOL    HW198633   4.080   6.541   1.621 -1.1228 -0.5608 -0.8360
31274SOL    HW298634   4.037   6.680   1.663  0.4361  0.2770 -1.9217
31275SOL     OW98635   8.652   1.897   7.521 -0.3197  0.3643 -0.2184
31275SOL    HW198636   8.743   1.892   7.550 -0.7658  0.5373  1.2742
31275SOL    HW298637   8.648   1.842   7.442  1.3717  1.4535 -1.1222
31276SOL     OW98638   2.103   1.414  10.591 -0.5791 -0.0546 -0.2170
31276SOL    HW198639   2.082   1.402  10.498  1.6459 -1.3665 -0.6300
31276SOL    HW298640   2.141   1.330  10.617  2.3888  1.4832  0.8307
31277SOL     OW98641   4.489   8.747  10.265 -0.2672  0.1833 -0.3915
31277SOL    HW198642   4.445   8.779  10.344 -0.1937  0.7538 -0.5732
31277SOL    HW298643   4.520   8.827  10.222  2.6066 -0.2712  0.6604
31278SOL     OW98644   8.431   1.796   3.748  0.2958  0.7393  0.2980
31278SOL    HW198645   8.416   1.702   3.735  0.6497  0.8314 -0.9066
31278SOL    HW298646   8.385   1.838   3.675  2.3041  1.3144 -0.7378
31279SOL     OW98647   2.064   4.901   3.616  0.1565 -0.6681 -0.2248
31279SOL    HW198648   2.096   4.986   3.646 -0.6121 -0.8094  1.0425
31279SOL    HW298649   1.973   4.896   3.646  0.1757 -1.9200 -0.2861
31280SOL     OW98650  12.396   3.326   9.946  0.1517  0.4322  0.3918
31280SOL    HW198651  12.317   3.281   9.978  0.9446 -0.0393  1.7302
31280SOL    HW298652  12.465   3.260   9.953  0.7670  0.9848 -0.3678
31281SOL     OW98653   0.672   3.368   0.244  0.2092 -0.1719  0.6561
31281SOL    HW198654   0.710   3.282   0.263 -0.7152 -0.4393  1.3093
31281SOL    HW298655   0.597   3.350   0.189  0.8642  0.3476 -0.4496
31282SOL     OW98656  11.044   7.330   8.451  0.1077  0.2496  0.1437
31282SOL    HW198657  11.062   7.348   8.543  0.1655 -3.6132  1.0843
31282SOL    HW298658  11.128   7.343   8.406  0.0085  2.4480  0.5203
31283SOL     OW98659   6.306   1.477   0.781  0.3131 -0.2170 -0.1963
31283SOL    HW198660   6.275   1.565   0.804 -0.4492 -0.0779 -1.6287
31283SOL    HW298661   6.386   1.466   0.832 -0.7805  0.3907  1.7609
31284SOL     OW98662  12.339   9.313   2.132 -0.1863 -0.5469 -0.6332
31284SOL    HW198663  12.275   9.242   2.139 -1.0107 -0.1959 -3.3950
31284SOL    HW298664  12.385   9.295   2.050 -1.6674  3.0224 -2.4306
31285SOL     OW98665   4.401   4.573  11.371 -0.2479 -0.3627  0.7803
31285SOL    HW198666   4.322   4.616  11.339 -0.3498 -1.1859 -0.1191
31285SOL    HW298667   4.377   4.539  11.457 -0.9438 -0.7791  0.4320
31286SOL     OW98668  11.034   0.849   7.787  0.4969 -0.3640  0.0401
31286SOL    HW198669  11.060   0.781   7.725  1.9717 -0.5850  0.8614
31286SOL    HW298670  11.042   0.807   7.873 -0.3873  0.2950  0.4588
31287SOL     OW98671   8.724   2.375  12.520  0.2346 -0.2350  0.2324
31287SOL    HW198672   8.705   2.409  12.432 -0.5583  1.0399  0.8698
31287SOL    HW298673   8.813   2.404  12.538  0.9725 -1.7804 -0.7075
31288SOL     OW98674  10.987   7.472   5.128  0.3595  0.0105 -0.1178
31288SOL    HW198675  11.040   7.539   5.085  0.4209 -1.0268 -1.7493
31288SOL    HW298676  10.982   7.400   5.064 -0.9581 -0.9259  0.9681
31289SOL     OW98677   5.259   9.704  12.131  0.0437 -0.3001 -0.2902
31289SOL    HW198678   5.279   9.671  12.044  2.5084 -0.0006  0.0917
31289SOL    HW298679   5.223   9.791  12.116 -0.7761 -0.7509 -1.0324
31290SOL     OW98680   7.557   4.362  10.039  0.2083 -0.4129  0.4198
31290SOL    HW198681   7.531   4.445   9.998  1.0959 -0.2807  0.0872
31290SOL    HW298682   7.568   4.302   9.966 -0.6299 -0.8925  0.6788
31291SOL     OW98683  10.703   7.775   6.849  0.3102 -0.1926  0.1142
31291SOL    HW198684  10.643   7.751   6.919  0.1012 -0.9735 -0.3178
31291SOL    HW298685  10.661   7.742   6.769  1.0977 -0.3569 -0.2426
31292SOL     OW98686  10.743   0.574   4.251  0.0702  0.3972 -0.8842
31292SOL    HW198687  10.804   0.646   4.239  1.6234 -0.5898  0.6991
31292SOL    HW298688  10.722   0.546   4.162  0.7312  1.7068 -1.4880
31293SOL     OW98689   6.634   9.311   0.761 -0.7424 -0.2181  0.0354
31293SOL    HW198690   6.673   9.393   0.791 -0.0836  0.2533 -1.9329
31293SOL    HW298691   6.542   9.333   0.744 -1.3963 -0.7456  2.4769
31294SOL     OW98692   6.004  11.909  11.833 -0.4303  0.4244 -0.2136
31294SOL    HW198693   6.079  11.885  11.888 -0.3836 -0.7389 -0.7484
31294SOL    HW298694   5.930  11.909  11.893 -0.3052 -0.3640 -0.0463
31295SOL     OW98695   0.376   7.522   1.352 -0.5387  0.0868 -0.2272
31295SOL    HW198696   0.444   7.546   1.416 -0.7596  0.8838 -0.2826
31295SOL    HW298697   0.358   7.603   1.304 -0.8958 -0.3319 -0.8161
31296SOL     OW98698  11.697  11.194   3.502 -0.1048 -0.0550  1.0896
31296SOL    HW198699  11.621  11.240   3.536 -0.0375  0.9438 -0.0327
31296SOL    HW298700  11.761  11.263   3.485  0.3608 -0.6694  0.2684
31297SOL     OW98701   2.147  12.594  10.950 -0.2227  0.4912  0.2851
31297SOL    HW198702   2.140  12.608  11.044 -0.6327  0.8191  0.2070
31297SOL    HW298703   2.161  12.499  10.941  0.2994  0.5271  0.6954
31298SOL     OW98704   0.907   3.800   5.146  0.8843  0.2939 -0.1398
31298SOL    HW198705   0.994   3.760   5.139  0.7366 -0.3431  1.4108
31298SOL    HW298706   0.923   3.888   5.178  1.0150  0.5785 -0.9511
31299SOL     OW98707   5.129   9.398   1.480  1.0527  0.0164  0.5092
31299SOL    HW198708   5.037   9.371   1.476  0.8860  0.3643  1.6228
31299SOL    HW298709   5.154   9.384   1.571  1.1648  2.8642  1.0249
31300SOL     OW98710   0.665  10.982  11.788  0.1096  0.5071  0.0274
31300SOL    HW198711   0.643  10.889  11.773 -0.4115  0.9149 -2.0826
31300SOL    HW298712   0.582  11.021  11.816  0.0736  0.5340 -0.1164
31301SOL     OW98713   7.431   8.244   7.760 -0.2023 -0.2369  0.5011
31301SOL    HW198714   7.423   8.315   7.824 -0.4749 -0.8574  1.1791
31301SOL    HW298715   7.342   8.209   7.751 -0.2880  0.2628 -0.7302
31302SOL     OW98716   7.904  10.373   5.828 -0.1385  0.1100 -0.3371
31302SOL    HW198717   7.991  10.338   5.808 -0.5584 -0.5799 -1.0235
31302SOL    HW298718   7.904  10.384   5.923  1.3620  1.9475 -0.4993
31303SOL     OW98719  11.170   7.003   7.911 -0.4720  0.6698  0.2012
31303SOL    HW198720  11.225   6.956   7.849 -1.3217 -0.6191  0.4003
31303SOL    HW298721  11.086   7.012   7.867 -1.6384 -1.7690  1.7488
31304SOL     OW98722   8.335   2.275   6.191  0.3232  0.0992  0.4134
31304SOL    HW198723   8.258   2.263   6.135 -0.4527  2.1205  0.9562
31304SOL    HW298724   8.339   2.369   6.206  1.2312 -0.2482  2.7641
31305SOL     OW98725   7.185   6.011  10.864  0.0299 -0.3033  0.0626
31305SOL    HW198726   7.214   6.056  10.943 -1.8408  0.7491  0.2041
31305SOL    HW298727   7.122   5.946  10.895 -0.3474 -0.2206 -0.5040
31306SOL     OW98728   1.125   9.410  11.160  0.3138  0.0476  0.5164
31306SOL    HW198729   1.211   9.422  11.202  0.6911 -2.3326  0.5654
31306SOL    HW298730   1.134   9.453  11.075 -0.0874  3.9800  2.2692
31307SOL     OW98731   9.150   0.500   3.996 -0.1026 -0.6869 -0.1125
31307SOL    HW198732   9.182   0.437   4.061  1.3478  0.9583  0.8713
31307SOL    HW298733   9.207   0.487   3.920 -0.6938 -1.4736 -0.4213
31308SOL     OW98734   8.402   2.123   3.598 -0.5119  0.5962  0.3508
31308SOL    HW198735   8.443   2.156   3.679 -0.1884 -0.3635  0.5966
31308SOL    HW298736   8.325   2.074   3.629  0.3727 -0.9456  0.2146
31309SOL     OW98737   9.888   9.020   4.475  0.0369  0.2672  0.0961
31309SOL    HW198738   9.831   9.017   4.551  0.3024  1.1184  0.3342
31309SOL    HW298739   9.892   9.112   4.451  2.3467  0.4354  0.8746
31310SOL     OW98740   8.004   5.111   8.666  0.2967  0.1727  0.2633
31310SOL    HW198741   7.990   5.203   8.687  1.3173  0.8704 -1.8471
31310SOL    HW298742   7.960   5.064   8.736 -2.8623  2.2062 -0.1641
31311SOL     OW98743   9.781   3.373  10.060 -0.1131  0.8457 -0.0597
31311SOL    HW198744   9.834   3.306  10.103  1.8800  1.8453 -0.8302
31311SOL    HW298745   9.695   3.332  10.050  0.0902 -0.3742  2.3921
31312SOL     OW98746   4.021   4.787   9.249  0.6574 -0.0663  0.7224
31312SOL    HW198747   4.045   4.856   9.310  0.8385  1.4420 -0.9874
31312SOL    HW298748   4.099   4.774   9.195 -0.1286  0.0961 -0.4992
31313SOL     OW98749   9.970  11.998   7.940  0.8157  0.3307  0.2307
31313SOL    HW198750   9.958  11.950   7.858  1.3747 -1.8646  1.3495
31313SOL    HW298751  10.034  12.065   7.920 -0.3227  0.9582 -1.5172
31314SOL     OW98752   5.710   6.023   0.150  0.1212 -0.6753 -0.3417
31314SOL    HW198753   5.686   6.080   0.077  3.3877 -0.3559 -1.3292
31314SOL    HW298754   5.679   6.069   0.228 -0.9300  0.3669 -1.3386
31315SOL     OW98755   0.587   8.118   4.704  0.3916  0.7001  0.0340
31315SOL    HW198756   0.568   8.025   4.693  0.6428  0.4821  1.2453
31315SOL    HW298757   0.530   8.145   4.777 -0.6532  1.8208 -1.1619
31316SOL     OW98758   6.487   1.349   7.744  0.1759 -0.3619 -0.4403
31316SOL    HW198759   6.411   1.291   7.746  0.8451 -1.2820 -0.8313
31316SOL    HW298760   6.452   1.435   7.766 -1.3508 -0.3792 -2.4905
31317SOL     OW98761   7.770  12.531  11.889  0.4767 -0.3633 -0.0169
31317SOL    HW198762   7.720  12.450  11.878 -1.1788  0.5041  0.8095
31317SOL    HW298763   7.721  12.596  11.838  1.8681  0.1148 -0.7973
31318SOL     OW98764   1.862   2.140   5.232 -0.0043 -0.4608 -0.4349
31318SOL    HW198765   1.879   2.129   5.139  0.3418 -0.8705 -0.3283
31318SOL    HW298766   1.943   2.178   5.267 -0.9816  2.0795 -0.7044
31319SOL     OW98767   6.193  11.556   1.824  0.8284  0.5725  0.6802
31319SOL    HW198768   6.280  11.560   1.786  0.8326 -0.0552  0.6148
31319SOL    HW298769   6.208  11.531   1.916  0.6050 -2.6368 -0.0185
31320SOL     OW98770   2.388   3.911   2.041 -0.4290  0.5380 -0.1768
31320SOL    HW198771   2.453   3.862   2.091  0.4411  2.2029  0.4383
31320SOL    HW298772   2.305   3.869   2.062  0.4426 -2.0300 -1.4710
31321SOL     OW98773   0.696  12.124   2.462  0.6529 -0.1004  0.1214
31321SOL    HW198774   0.756  12.193   2.433  3.1255 -1.9764  0.4007
31321SOL    HW298775   0.750  12.067   2.516 -1.4595 -1.8917  0.4925
31322SOL     OW98776   0.240   1.570  11.073 -0.5276  0.3699  0.0936
31322SOL    HW198777   0.207   1.482  11.055  0.9502 -0.5428  1.5974
31322SOL    HW298778   0.221   1.585  11.166  1.1553  0.7295  0.4139
31323SOL     OW98779   1.742   8.297   9.712  0.2895 -0.0270 -0.2436
31323SOL    HW198780   1.681   8.345   9.768  1.5281  1.8972 -0.4376
31323SOL    HW298781   1.820   8.285   9.766 -0.2484 -2.7045  0.0948
31324SOL     OW98782   6.569   8.863   5.988  0.0701 -0.3824 -0.4318
31324SOL    HW198783   6.578   8.768   5.983  0.4777 -0.4684  1.3617
31324SOL    HW298784   6.481   8.880   5.953 -0.2081 -1.4676 -0.3071
31325SOL     OW98785   5.455   7.667   2.632 -0.0768 -0.0394  0.1241
31325SOL    HW198786   5.534   7.624   2.600 -0.8545 -1.1939 -0.3150
31325SOL    HW298787   5.437   7.626   2.717 -0.7527 -0.5289 -0.2407
31326SOL     OW98788   3.619   0.480   8.810 -0.0596  0.5471  0.2068
31326SOL    HW198789   3.602   0.559   8.863 -0.2823 -1.0037  2.6139
31326SOL    HW298790   3.549   0.480   8.745  0.9021  3.1632 -0.9418
31327SOL     OW98791  10.701  10.807   6.440 -0.5745 -0.1363 -0.3284
31327SOL    HW198792  10.615  10.843   6.464  0.2427  0.5901  1.6896
31327SOL    HW298793  10.754  10.883   6.419  0.2054 -0.3868  0.6707
31328SOL     OW98794   3.380  10.502  12.207 -0.3744 -0.4003  0.6842
31328SOL    HW198795   3.436  10.579  12.213  1.5766 -1.5767 -0.9924
31328SOL    HW298796   3.339  10.509  12.120 -0.0475 -1.2909  0.4408
31329SOL     OW98797   9.636   2.558   0.075 -0.2381 -0.4505 -0.0639
31329SOL    HW198798   9.630   2.556   0.170  1.2232 -0.7048  0.0459
31329SOL    HW298799   9.560   2.608   0.047 -1.1343 -1.0825  1.1798
31330SOL     OW98800  12.231   3.269   4.583 -0.3426 -0.6957 -0.2131
31330SOL    HW198801  12.184   3.349   4.563 -1.5525 -0.2855  3.4967
31330SOL    HW298802  12.164   3.202   4.592  0.4966 -1.7761 -1.6010
31331SOL     OW98803   4.912  12.337   4.699 -0.2581 -0.7820  0.0922
31331SOL    HW198804   4.986  12.301   4.748  0.7402  0.0508 -0.7690
31331SOL    HW298805   4.912  12.430   4.721 -0.8889 -0.7246 -0.1268
31332SOL     OW98806  10.856   8.102  10.704  0.0965 -0.1489  0.0186
31332SOL    HW198807  10.807   8.029  10.666  1.2385 -0.8959 -0.0549
31332SOL    HW298808  10.947   8.087  10.678  0.4062  1.1133  0.3002
31333SOL     OW98809   5.634   3.332   2.866  0.3470  0.2073  0.3175
31333SOL    HW198810   5.718   3.311   2.826 -0.5638  0.1029 -1.6624
31333SOL    HW298811   5.654   3.398   2.931  1.8462  0.9370 -0.8278
31334SOL     OW98812  11.903   7.614   3.754  0.4746 -0.1009  0.0773
31334SOL    HW198813  11.843   7.579   3.688 -0.6401  1.3879  0.2270
31334SOL    HW298814  11.882   7.566   3.834  0.2710 -0.3725 -0.1385
31335SOL     OW98815   0.661   1.448  11.595 -0.4776 -0.1124 -0.4000
31335SOL    HW198816   0.675   1.420  11.685 -0.3588 -0.2022 -0.4463
31335SOL    HW298817   0.741   1.494  11.570 -0.5713  0.0486 -0.4086
31336SOL     OW98818   3.304   7.027   5.048 -0.6782 -0.1501 -0.1491
31336SOL    HW198819   3.290   7.026   5.143  0.2283  1.5298  0.0534
31336SOL    HW298820   3.304   7.120   5.026  1.1608 -0.4266 -1.4666
31337SOL     OW98821   7.397   2.455   1.772 -0.2180  0.1830 -0.2629
31337SOL    HW198822   7.364   2.542   1.794 -0.7150  0.5269 -2.1281
31337SOL    HW298823   7.364   2.439   1.683  1.7645 -0.9510 -0.8577
31338SOL     OW98824   4.825   6.953  12.373 -0.2025  0.1697  0.4166
31338SOL    HW198825   4.850   6.963  12.465 -0.0412  0.8339  0.3049
31338SOL    HW298826   4.850   6.863  12.351 -0.1664  0.0336  0.9992
31339SOL     OW98827  10.740   8.791   3.829 -0.0771  0.3701 -0.7120
31339SOL    HW198828  10.700   8.878   3.836  1.4383  1.0112  1.0460
31339SOL    HW298829  10.769   8.785   3.738 -0.5297  1.5558 -0.9538
31340SOL     OW98830   5.249   7.294   7.043  0.2354 -0.6254  0.0576
31340SOL    HW198831   5.296   7.275   6.962  3.2993 -1.2100  1.7829
31340SOL    HW298832   5.177   7.232   7.045 -0.6275  0.1741 -2.6875
31341SOL     OW98833   8.295  11.330   1.228 -0.0072 -0.1501 -0.2399
31341SOL    HW198834   8.333  11.388   1.294 -1.0688 -1.8080  1.9585
31341SOL    HW298835   8.212  11.302   1.266 -0.8407 -0.8833 -2.4837
31342SOL     OW98836   8.981   1.286   5.292 -0.7987 -0.0355 -0.6786
31342SOL    HW198837   8.915   1.216   5.284 -0.8931  0.0998 -1.1320
31342SOL    HW298838   9.054   1.245   5.338 -1.2731 -0.1397 -0.0110
31343SOL     OW98839   9.770   6.141   9.054 -0.3385  0.1524 -0.0962
31343SOL    HW198840   9.735   6.199   8.986  0.6909  1.1899  0.2177
31343SOL    HW298841   9.832   6.196   9.103  1.0515 -1.3419 -0.0812
31344SOL     OW98842   2.699   9.462  11.324 -0.2936 -0.1655 -0.4129
31344SOL    HW198843   2.721   9.549  11.357  0.6571 -0.7766  0.6542
31344SOL    HW298844   2.753   9.452  11.246  1.7552 -0.8018  0.9753
31345SOL     OW98845   7.739  12.524   3.432 -0.0017 -0.2262 -0.4148
31345SOL    HW198846   7.765  12.485   3.515 -2.0844  0.3433  0.5658
31345SOL    HW298847   7.800  12.597   3.419 -0.3329  0.3556  1.1737
31346SOL     OW98848   9.888   2.209   3.843  0.8582  0.1681 -0.1678
31346SOL    HW198849   9.982   2.226   3.832  0.5004  1.0871 -2.2674
31346SOL    HW298850   9.846   2.259   3.773 -1.2479  0.0626  0.9529
31347SOL     OW98851   9.217  10.167   8.110 -0.2145  0.3728 -0.0554
31347SOL    HW198852   9.296  10.212   8.140  0.7152 -1.3416  0.2477
31347SOL    HW298853   9.185  10.121   8.188 -1.5880  1.1185 -0.1544
31348SOL     OW98854  11.811   7.693   9.343 -0.0705 -0.0222  0.6367
31348SOL    HW198855  11.845   7.615   9.299  0.9642  1.8260 -2.1192
31348SOL    HW298856  11.872   7.708   9.416  1.0147 -0.5674 -0.1361
31349SOL     OW98857   7.531   1.962   4.936 -0.5913  0.2336 -0.2224
31349SOL    HW198858   7.576   1.919   4.863  0.3286  3.1241 -1.5011
31349SOL    HW298859   7.438   1.949   4.918 -0.3559 -0.2958 -1.1266
31350SOL     OW98860  10.987   5.068   3.957  0.3966  0.0792  0.5103
31350SOL    HW198861  10.895   5.095   3.948  0.8719  1.3747 -1.0166
31350SOL    HW298862  11.023   5.077   3.869  1.7465 -1.4521  0.8566
31351SOL     OW98863   1.279   0.260  12.644 -0.1129 -0.2983 -0.2138
31351SOL    HW198864   1.365   0.233  12.613  0.6852  0.5738  1.1534
31351SOL    HW298865   1.259   0.339  12.594 -0.3832 -0.7749 -0.8920
31352SOL     OW98866   4.295   2.840   7.184  0.1402  0.0190 -0.4361
31352SOL    HW198867   4.296   2.759   7.235 -0.7999  0.6422  0.6309
31352SOL    HW298868   4.386   2.867   7.180  0.3462 -0.5690  0.0842
31353SOL     OW98869  10.226   9.555  10.677 -0.4043 -0.5340  0.2345
31353SOL    HW198870  10.247   9.559  10.584  0.6504 -1.7837  0.3912
31353SOL    HW298871  10.268   9.475  10.708 -0.0492  0.2568  1.9502
31354SOL     OW98872   6.731   6.980  12.302  0.0204  0.2755 -0.0727
31354SOL    HW198873   6.637   6.974  12.290 -0.0371  0.9204  0.0577
31354SOL    HW298874   6.750   6.922  12.377 -0.1582 -0.4854 -0.6021
31355SOL     OW98875   9.197   7.511   5.282  0.0811  0.0744  0.1911
31355SOL    HW198876   9.241   7.435   5.320 -0.3617  0.4853  1.5702
31355SOL    HW298877   9.268   7.565   5.247  0.3862 -1.0726 -1.0655
31356SOL     OW98878  12.385   2.632   7.118 -0.4877  0.5537 -0.3500
31356SOL    HW198879  12.291   2.648   7.110 -0.5190 -0.1781 -1.6938
31356SOL    HW298880  12.391   2.548   7.164 -0.5069  0.3674 -0.6850
31357SOL     OW98881   3.170   4.648   8.505 -0.4102  0.1835 -0.4167
31357SOL    HW198882   3.233   4.621   8.439 -1.0341 -1.2912 -0.4539
31357SOL    HW298883   3.211   4.722   8.550  2.9313 -2.7304  1.8700
31358SOL     OW98884   5.070  11.866   6.948 -0.2472 -0.6950  0.1153
31358SOL    HW198885   5.023  11.939   6.988 -1.1868  0.2635 -2.5042
31358SOL    HW298886   5.028  11.854   6.863  0.9350 -3.2753 -0.2101
31359SOL     OW98887   1.848   4.239   6.196 -0.6780  0.1083  0.1069
31359SOL    HW198888   1.916   4.261   6.132  0.4934 -0.4919  1.0962
31359SOL    HW298889   1.796   4.171   6.154 -0.0306 -0.1463 -0.2959
31360SOL     OW98890  11.469  10.405   0.720 -0.2788 -0.7087 -0.0331
31360SOL    HW198891  11.409  10.357   0.663  0.5059 -2.7436  0.7734
31360SOL    HW298892  11.511  10.338   0.773  1.1057  0.8676  0.9719
31361SOL     OW98893   9.652   2.061   0.219  0.4460  0.2779 -0.1071
31361SOL    HW198894   9.706   2.139   0.229  0.6623 -0.0003  0.9914
31361SOL    HW298895   9.669   2.009   0.298 -1.0567 -0.0523  0.0308
31362SOL     OW98896   7.827   6.838  11.178 -0.5823 -0.0028  0.0332
31362SOL    HW198897   7.794   6.828  11.089 -1.2837  0.7265  0.1998
31362SOL    HW298898   7.762   6.795  11.233 -1.2811  1.4103  0.3609
31363SOL     OW98899  10.820   5.507   5.309  0.3948 -0.1901  0.1221
31363SOL    HW198900  10.794   5.539   5.223 -1.1878  2.4723  1.4554
31363SOL    HW298901  10.915   5.495   5.303  0.1496 -1.5599 -2.3583
31364SOL     OW98902  11.122  11.013   8.758 -0.2015  0.3446 -0.5683
31364SOL    HW198903  11.076  10.930   8.752  1.2895 -0.6652  1.2872
31364SOL    HW298904  11.201  11.001   8.704  0.0479  0.5379 -0.2479
31365SOL     OW98905   3.579   8.382   4.792  0.7879  0.4573  0.2932
31365SOL    HW198906   3.588   8.459   4.736  0.1672  1.3360  1.3527
31365SOL    HW298907   3.641   8.318   4.756  0.6970  1.1338 -1.1213
31366SOL     OW98908  11.931   7.218   4.003 -0.1183  0.1872  0.6115
31366SOL    HW198909  12.000   7.211   3.937 -1.6949 -0.3719 -1.0598
31366SOL    HW298910  11.972   7.187   4.084  0.9346 -2.5415 -0.8231
31367SOL     OW98911  12.520   8.496   5.189  0.0443  0.3538 -0.3423
31367SOL    HW198912  12.494   8.453   5.270 -0.5826 -0.4469 -0.9426
31367SOL    HW298913  12.506   8.589   5.205 -1.5159  0.0869 -0.0286
31368SOL     OW98914  11.656   5.117   6.554 -0.3437  0.3062 -0.2102
31368SOL    HW198915  11.574   5.154   6.585 -0.6149  1.6606 -2.2924
31368SOL    HW298916  11.634   5.079   6.468  0.7255 -1.4709  0.2598
31369SOL     OW98917   3.076   7.415   1.677  0.1466  0.3305 -0.1185
31369SOL    HW198918   3.133   7.341   1.655  0.2213  0.2630  0.3030
31369SOL    HW298919   3.113   7.452   1.757 -0.9846 -0.3476  0.7506
31370SOL     OW98920   9.455   2.754  11.706  0.0919  0.6309 -0.3894
31370SOL    HW198921   9.481   2.720  11.620  0.3240  1.7466 -0.7779
31370SOL    HW298922   9.399   2.829  11.686  0.3741  1.0751  0.4229
31371SOL     OW98923   6.923   5.633   8.145 -0.1368  0.0141 -0.6305
31371SOL    HW198924   7.004   5.640   8.196  0.8030  2.1201 -2.2529
31371SOL    HW298925   6.869   5.705   8.177 -1.3958 -1.3188  0.3726
31372SOL     OW98926   0.282   0.707   8.698  0.1323  0.0854 -0.2592
31372SOL    HW198927   0.212   0.738   8.756  0.6250  0.8167 -0.0417
31372SOL    HW298928   0.329   0.642   8.750 -1.3931 -1.7018 -0.9964
31373SOL     OW98929  10.743   1.159   3.115  0.4343  0.7351  0.2311
31373SOL    HW198930  10.824   1.168   3.065  0.8679 -0.3611  0.6967
31373SOL    HW298931  10.759   1.207   3.196  1.1129 -0.4887  0.8569
31374SOL     OW98932   7.405   7.959   0.663  0.0693  0.1971  0.5096
31374SOL    HW198933   7.462   8.036   0.674 -1.3314  1.3166  0.2768
31374SOL    HW298934   7.419   7.932   0.572  0.5655  0.1615  0.5911
31375SOL     OW98935   9.766   7.852   2.931 -0.6792  0.0293 -0.3615
31375SOL    HW198936   9.730   7.781   2.984  0.9226 -1.1361 -0.7675
31375SOL    HW298937   9.744   7.828   2.841 -0.5937  0.3232 -0.4622
31376SOL     OW98938   6.598  11.412   8.063  0.0625  0.3610  0.0771
31376SOL    HW198939   6.545  11.462   8.125  0.5660 -0.4514  1.1916
31376SOL    HW298940   6.575  11.321   8.079 -1.4711  0.1774 -2.4912
31377SOL     OW98941   7.961  10.542   9.768 -0.0369 -0.6702 -0.4114
31377SOL    HW198942   8.009  10.521   9.848 -0.0114  0.2605 -0.1790
31377SOL    HW298943   7.984  10.633   9.749 -1.5576 -0.2654 -0.4068
31378SOL     OW98944   1.906   5.304   3.142 -0.3535  0.1678 -1.0030
31378SOL    HW198945   1.925   5.376   3.202 -2.2176  0.9846 -1.3304
31378SOL    HW298946   1.991   5.263   3.127  0.9880  2.9361 -1.6340
31379SOL     OW98947   2.721   4.768   4.301  0.1394 -0.0099 -0.1816
31379SOL    HW198948   2.655   4.728   4.245  0.1462  2.1358 -1.8632
31379SOL    HW298949   2.672   4.828   4.358  0.3752 -0.3642  0.3969
31380SOL     OW98950   5.203  10.465   7.170  0.4680 -0.2134 -0.4273
31380SOL    HW198951   5.222  10.456   7.076  0.9660  0.2227 -0.3736
31380SOL    HW298952   5.108  10.456   7.176  0.5700 -1.6291 -0.7966
31381SOL     OW98953   9.069   7.309   4.039 -0.6240 -0.6386  0.0017
31381SOL    HW198954   9.041   7.347   4.123  0.9839  0.5978  0.0317
31381SOL    HW298955   9.067   7.382   3.978 -1.1024 -1.3747 -0.8815
31382SOL     OW98956  11.679   2.337   2.030 -0.2107 -0.0577  0.0121
31382SOL    HW198957  11.741   2.346   2.102 -0.6025 -2.3639  0.7171
31382SOL    HW298958  11.665   2.427   2.000  2.0910  0.7069  0.9561
31383SOL     OW98959   2.089  10.602   0.505 -0.3990 -0.0596 -0.4265
31383SOL    HW198960   2.164  10.633   0.454  0.1636 -0.3175  0.2271
31383SOL    HW298961   2.115  10.515   0.536 -0.2785  0.5207  1.1815
31384SOL     OW98962   7.136   0.543   2.450 -0.6686 -0.0348  0.0874
31384SOL    HW198963   7.149   0.630   2.413 -0.4670  0.0703  0.4072
31384SOL    HW298964   7.189   0.485   2.394  0.6977  0.3034  0.9960
31385SOL     OW98965   7.479   6.440   1.337 -0.0297  0.4848 -0.1692
31385SOL    HW198966   7.501   6.495   1.262  0.8650  1.2277  0.5988
31385SOL    HW298967   7.473   6.502   1.410  2.4207 -0.5352  1.0198
31386SOL     OW98968   1.100  12.296   1.209  0.2150  0.0031 -0.0338
31386SOL    HW198969   1.160  12.339   1.270  0.3861 -0.5500  0.1962
31386SOL    HW298970   1.043  12.244   1.265 -0.6694  0.7454 -0.2308
31387SOL     OW98971   6.483   1.658  10.316  0.1509 -0.4522 -0.4281
31387SOL    HW198972   6.393   1.689  10.308  0.0372 -0.0682  1.6453
31387SOL    HW298973   6.487   1.620  10.404  2.3610  0.7610  0.0678
31388SOL     OW98974   7.345   8.171   7.446  0.3823 -0.0714  0.0621
31388SOL    HW198975   7.383   8.138   7.364 -1.2204 -0.5243 -0.5463
31388SOL    HW298976   7.385   8.117   7.514 -0.1133 -1.4304 -0.6719
31389SOL     OW98977   0.710   9.194   2.946 -0.4514 -0.0104  0.0742
31389SOL    HW198978   0.684   9.103   2.930 -2.6894  0.6007 -0.0856
31389SOL    HW298979   0.805   9.190   2.958 -0.4815 -2.3472 -0.0093
31390SOL     OW98980   7.063  10.015   3.366  0.5926 -0.1841  0.1505
31390SOL    HW198981   7.043  10.107   3.348  0.8528 -0.1478  0.0438
31390SOL    HW298982   6.977   9.974   3.378  0.4484 -0.0444 -0.3591
31391SOL     OW98983   7.445  11.998   7.614  0.1364 -0.0933 -0.0632
31391SOL    HW198984   7.489  11.931   7.667  0.1936  0.6076  0.7875
31391SOL    HW298985   7.507  12.016   7.543  1.9785  1.9345  1.8941
31392SOL     OW98986   1.123  11.576   7.643 -0.2352 -0.0636  0.3583
31392SOL    HW198987   1.063  11.501   7.648 -1.1121  0.5016 -1.0403
31392SOL    HW298988   1.188  11.551   7.578 -0.9945  0.6575 -0.7218
31393SOL     OW98989  11.585  12.561   7.261 -0.1530  0.5594 -1.2670
31393SOL    HW198990  11.665  12.534   7.305 -1.7655 -2.1375  0.2453
31393SOL    HW298991  11.565  12.648   7.297 -0.8797 -1.0885  2.8624
31394SOL     OW98992   3.839   6.482   1.839  0.0970  0.3715  0.4918
31394SOL    HW198993   3.834   6.405   1.784 -1.5588  0.3451  0.6374
31394SOL    HW298994   3.888   6.546   1.787  0.7285 -0.4683  0.0275
31395SOL     OW98995  10.870   3.595   3.408  0.4966 -0.8259  0.1643
31395SOL    HW198996  10.930   3.623   3.477  1.3866 -4.6360  1.1742
31395SOL    HW298997  10.908   3.628   3.327  1.7409  0.2160  1.1318
31396SOL     OW98998   9.480  11.778   1.875 -0.1314 -0.1018 -0.2413
31396SOL    HW198999   9.416  11.719   1.913  1.5097 -1.1531  0.9944
31396SOL    HW299000   9.430  11.830   1.812 -2.2753 -0.5114  1.0414
31397SOL     OW99001   4.002   2.187  11.486  0.2765  0.3434 -0.3695
31397SOL    HW199002   4.066   2.209  11.554 -1.1984  1.7647  0.6306
31397SOL    HW299003   3.920   2.227  11.516 -1.1356 -1.5066 -1.5373
31398SOL     OW99004   5.780   4.678  11.209 -0.0301  0.3283 -0.2707
31398SOL    HW199005   5.814   4.707  11.124 -0.1162  1.1007 -0.0515
31398SOL    HW299006   5.796   4.584  11.211  1.6242  0.5820 -0.3937
31399SOL     OW99007   7.067   5.222   7.333  0.0296  0.1622 -0.0545
31399SOL    HW199008   7.045   5.242   7.424  2.5758  0.4434  0.5739
31399SOL    HW299009   7.105   5.303   7.299  1.7877 -0.7615 -0.4149
31400SOL     OW99010   8.128   3.583   4.431  0.1729  0.7062  0.7881
31400SOL    HW199011   8.055   3.636   4.400 -0.4698 -0.3661  0.4158
31400SOL    HW299012   8.179   3.564   4.352  0.3049  0.6192  0.8935
31401SOL     OW99013   9.952   2.754   4.932  0.2324 -0.5035 -0.2691
31401SOL    HW199014   9.976   2.833   4.980  0.1935 -0.8653  0.3522
31401SOL    HW299015  10.035   2.719   4.900  0.2692 -0.3378 -0.3602
31402SOL     OW99016   3.527  11.609   0.080  0.0820  1.2261 -0.1118
31402SOL    HW199017   3.453  11.613   0.141 -0.7984 -0.3712 -1.0221
31402SOL    HW299018   3.597  11.658   0.124 -0.1755 -0.7023  2.7020
31403SOL     OW99019  10.679   4.859  10.803  0.0384 -0.1660 -0.5454
31403SOL    HW199020  10.705   4.883  10.892  0.9532 -0.9807 -0.5781
31403SOL    HW299021  10.591   4.821  10.813 -0.1219  0.3133 -0.0877
31404SOL     OW99022  11.381   0.247   6.824  0.2502  0.4993 -0.4958
31404SOL    HW199023  11.289   0.256   6.852  0.2116  0.7636 -0.7044
31404SOL    HW299024  11.429   0.310   6.877  0.7700 -1.5624  1.6653
31405SOL     OW99025   4.984   6.109   9.064  0.6852  0.1499 -0.0458
31405SOL    HW199026   5.029   6.158   8.994  0.1590  0.0931 -0.4289
31405SOL    HW299027   4.977   6.020   9.029  2.3536 -0.4211  0.9691
31406SOL     OW99028   3.464   3.658   9.704  0.4210  0.2762 -0.4879
31406SOL    HW199029   3.372   3.638   9.721  0.6627 -0.8197 -0.4038
31406SOL    HW299030   3.467   3.754   9.699 -0.5874  0.3642  0.2416
31407SOL     OW99031   9.519   7.476   6.140 -0.3584  0.2859  0.1281
31407SOL    HW199032   9.473   7.547   6.185  1.8078  0.9113  1.5277
31407SOL    HW299033   9.558   7.517   6.063 -2.1435 -0.2690 -1.1219
31408SOL     OW99034  10.196   4.434  12.111 -0.0018  0.2817  0.2168
31408SOL    HW199035  10.131   4.417  12.179  1.0459 -0.0868  1.1675
31408SOL    HW299036  10.151   4.416  12.029 -0.8222 -0.9403  0.8944
31409SOL     OW99037   4.692   4.497   3.072  0.0219 -0.0457 -0.4324
31409SOL    HW199038   4.639   4.495   3.151  1.0991 -1.9125  0.3030
31409SOL    HW299039   4.722   4.588   3.066 -1.3788  0.4998  0.3888
31410SOL     OW99040   5.781  10.689   4.373  0.0251  0.4187  0.0507
31410SOL    HW199041   5.784  10.707   4.279  0.0759 -0.5092 -0.1394
31410SOL    HW299042   5.689  10.702   4.397  0.2584  2.0502  0.1862
31411SOL     OW99043   8.215   4.066   5.966  0.2885 -0.0162 -0.2792
31411SOL    HW199044   8.281   4.002   5.938  2.3464  2.0286 -0.4162
31411SOL    HW299045   8.203   4.049   6.059  0.7384 -0.6576 -0.3304
31412SOL     OW99046  11.375   3.896   2.426  0.7736 -0.1622 -0.3670
31412SOL    HW199047  11.414   3.824   2.476 -0.9394 -0.5771  0.4251
31412SOL    HW299048  11.405   3.975   2.471  0.1970 -0.4967  0.6415
31413SOL     OW99049  12.017   8.063   2.376 -0.2884 -0.1701  0.8247
31413SOL    HW199050  12.037   8.109   2.458 -1.1042 -0.6492  1.3051
31413SOL    HW299051  11.962   8.124   2.327  0.9277  0.4863  0.2115
31414SOL     OW99052   4.304   6.248   4.224  0.0456 -0.2264 -0.3550
31414SOL    HW199053   4.380   6.226   4.171 -0.3789  1.5632 -1.8117
31414SOL    HW299054   4.234   6.262   4.160 -0.5724  1.7155  0.6852
31415SOL     OW99055   6.842   9.274  12.409 -0.1304 -0.0292  0.2625
31415SOL    HW199056   6.933   9.255  12.434 -0.2368 -2.0047 -0.6715
31415SOL    HW299057   6.840   9.260  12.314 -1.6674 -1.2475  0.4407
31416SOL     OW99058  11.640   8.895   5.977  0.7090  0.3563  0.1200
31416SOL    HW199059  11.663   8.874   5.887 -0.9312  2.2283 -0.7942
31416SOL    HW299060  11.699   8.967   6.001  1.7209 -0.6765  0.9048
31417SOL     OW99061   7.668   7.820   2.334  0.4485 -0.6037  0.1900
31417SOL    HW199062   7.578   7.791   2.347  0.4815 -1.0661 -0.5635
31417SOL    HW299063   7.722   7.750   2.372  0.5018 -0.5457  0.2225
31418SOL     OW99064   8.723   8.813   9.923  0.7795 -0.3522 -0.0339
31418SOL    HW199065   8.765   8.735   9.887 -0.0760 -0.3575 -1.0408
31418SOL    HW299066   8.629   8.797   9.913  0.3238 -1.0699  3.6455
31419SOL     OW99067  12.233  11.237   8.157  0.2775 -0.2341 -0.3721
31419SOL    HW199068  12.243  11.308   8.220  1.9641 -2.3416  1.9019
31419SOL    HW299069  12.261  11.276   8.074  0.4097  1.9400  0.6028
31420SOL     OW99070   1.098   1.408   7.739 -0.4572 -0.3194 -0.1946
31420SOL    HW199071   1.130   1.494   7.710  0.6056 -0.6165  0.0503
31420SOL    HW299072   1.062   1.424   7.826  1.7809 -0.4828  0.8436
31421SOL     OW99073   4.229   9.009   1.075  0.0069  0.1816 -0.4507
31421SOL    HW199074   4.298   8.943   1.084 -0.9702 -0.8272 -0.0205
31421SOL    HW299075   4.215   9.042   1.164  0.5417  1.0391 -0.6758
31422SOL     OW99076   6.080   4.243   5.718 -0.0084  0.3423 -0.7780
31422SOL    HW199077   6.093   4.254   5.812  0.5074 -0.5678 -0.7322
31422SOL    HW299078   6.050   4.329   5.688 -1.0868  0.3969  0.3633
31423SOL     OW99079   9.298   2.121   1.334 -0.1808 -0.4228 -0.1185
31423SOL    HW199080   9.323   2.181   1.263  0.3963 -0.4567  0.0514
31423SOL    HW299081   9.206   2.140   1.350 -0.1427  0.0441 -0.4310
31424SOL     OW99082   3.252   3.959  10.942  0.3334  0.4207  0.1657
31424SOL    HW199083   3.299   3.942  11.024 -0.5285 -0.8001  0.4362
31424SOL    HW299084   3.173   4.006  10.970 -0.0937 -0.2314  0.0886
31425SOL     OW99085   4.832   6.430   1.507 -0.5307 -0.5600  0.2503
31425SOL    HW199086   4.910   6.461   1.552 -1.2960  0.8797  0.6156
31425SOL    HW299087   4.863   6.355   1.456  1.6399  1.3398 -1.4676
31426SOL     OW99088   9.473   6.801   3.140  0.2793  0.2159  0.2589
31426SOL    HW199089   9.483   6.828   3.231 -0.6473  1.5546 -0.0084
31426SOL    HW299090   9.554   6.828   3.097  0.1739  0.7767  0.4153
31427SOL     OW99091  10.122   1.871   0.338  0.4215  0.3164  0.4165
31427SOL    HW199092  10.114   1.815   0.261 -0.7069 -0.8119  1.2942
31427SOL    HW299093  10.081   1.954   0.312  1.6887  0.6049 -0.7546
31428SOL     OW99094   5.171   1.760   6.205 -0.1753  0.3122  0.1482
31428SOL    HW199095   5.113   1.831   6.233 -0.9919 -0.2327 -0.1427
31428SOL    HW299096   5.254   1.804   6.184 -0.3189  1.0342  1.0382
31429SOL     OW99097   8.471   6.543   0.440 -0.0022 -0.4887 -0.3728
31429SOL    HW199098   8.453   6.483   0.512 -0.8951 -0.0870 -0.2450
31429SOL    HW299099   8.566   6.547   0.435  0.0666 -1.2562  0.1647
31430SOL     OW99100  10.746   2.712   1.043 -0.2653 -0.3289 -0.2411
31430SOL    HW199101  10.693   2.744   1.117 -0.3734 -0.7229 -0.1470
31430SOL    HW299102  10.813   2.657   1.084 -0.2804 -0.4877 -0.4337
31431SOL     OW99103   6.799   3.733   2.513  0.6256  1.2179  0.4496
31431SOL    HW199104   6.866   3.783   2.559  2.7398  0.9360 -2.0477
31431SOL    HW299105   6.763   3.674   2.579  2.6435  1.5854  1.9856
31432SOL     OW99106   1.143   6.296   5.368 -0.2625 -0.5197 -0.8427
31432SOL    HW199107   1.110   6.293   5.458  1.4182 -1.5215 -0.2162
31432SOL    HW299108   1.237   6.287   5.376  0.0626  0.6725 -2.6597
31433SOL     OW99109   6.760   6.592   7.411  0.2683 -0.3630  0.4983
31433SOL    HW199110   6.697   6.616   7.478  0.7105  1.1140  0.4232
31433SOL    HW299111   6.842   6.576   7.459  0.6789  1.0539  0.3112
31434SOL     OW99112  12.536   2.708  10.879 -0.0178  0.2872  0.3501
31434SOL    HW199113  12.603   2.705  10.947 -0.9628 -1.5306  1.2462
31434SOL    HW299114  12.585   2.724  10.798  1.2691  1.0061  1.2410
31435SOL     OW99115   5.146   2.862  12.063  0.1906 -0.3556  0.0601
31435SOL    HW199116   5.217   2.800  12.082 -0.7390 -1.2367  0.7268
31435SOL    HW299117   5.149   2.925  12.135  0.2148 -0.4747  0.1642
31436SOL     OW99118  10.940   8.877  10.869 -0.1344  0.3728 -0.6452
31436SOL    HW199119  10.950   8.972  10.877  0.5183  0.2184  0.5760
31436SOL    HW299120  10.848   8.865  10.848 -0.6905  1.1925  1.1537
31437SOL     OW99121   9.285  11.518   6.180  0.2734 -0.3251 -0.3636
31437SOL    HW199122   9.250  11.594   6.134 -0.7367 -0.4910  0.0880
31437SOL    HW299123   9.366  11.548   6.220 -0.8334  0.9475  1.0267
31438SOL     OW99124   8.764   8.165   6.702  0.8135  0.5300 -0.2560
31438SOL    HW199125   8.821   8.233   6.666  1.7213 -0.6905 -1.2198
31438SOL    HW299126   8.692   8.158   6.640  1.1193  0.0958 -0.5663
31439SOL     OW99127   3.952   6.044   5.731  0.2174 -0.4260 -0.1576
31439SOL    HW199128   3.975   6.120   5.783 -4.0425  0.7162  0.3857
31439SOL    HW299129   3.927   6.080   5.646 -0.4597 -1.3620 -0.3711
31440SOL     OW99130   8.663   6.411   9.347 -0.0805 -0.0620  0.8124
31440SOL    HW199131   8.713   6.345   9.299  0.7419 -0.1539  1.7442
31440SOL    HW299132   8.592   6.437   9.288  1.9986  1.2937 -1.2744
31441SOL     OW99133   5.933   8.043   1.074  0.4114  0.0269  0.5116
31441SOL    HW199134   5.881   8.031   0.994  1.2548  0.0075 -0.0441
31441SOL    HW299135   5.920   8.135   1.097 -0.3634 -0.1330  0.7298
31442SOL     OW99136   1.438   0.680   1.653  0.0211 -0.2134 -0.0084
31442SOL    HW199137   1.492   0.602   1.641  0.2346 -0.0243 -0.2709
31442SOL    HW299138   1.492   0.739   1.706 -1.0294 -1.1797  2.3228
31443SOL     OW99139   1.087   1.852   4.164  0.2502 -0.3695 -0.1769
31443SOL    HW199140   1.130   1.938   4.171 -1.2014  0.2513  2.1526
31443SOL    HW299141   0.997   1.871   4.139  0.3169 -1.3837 -1.3056
31444SOL     OW99142   1.671   8.986   4.796 -0.3007 -0.6125  0.2744
31444SOL    HW199143   1.695   8.910   4.743  0.9580  1.1997 -1.9607
31444SOL    HW299144   1.754   9.015   4.835 -0.9651 -1.0271  2.0531
31445SOL     OW99145  11.215  12.178   8.871 -0.0089  0.2602  0.9335
31445SOL    HW199146  11.160  12.221   8.806  2.2877  2.8594  0.5199
31445SOL    HW299147  11.199  12.227   8.952 -0.1367 -0.5769  1.4208
31446SOL     OW99148  10.066  12.134  12.308 -0.2458 -0.2845 -0.3603
31446SOL    HW199149  10.151  12.123  12.350  0.1078  1.9153 -0.3852
31446SOL    HW299150  10.073  12.086  12.226  0.8783 -0.3842 -0.2229
31447SOL     OW99151   4.006  11.635   4.799  0.5850  0.7052 -0.1184
31447SOL    HW199152   4.070  11.567   4.778 -1.8085 -1.9039  0.4275
31447SOL    HW299153   4.059  11.713   4.818  3.3692 -0.2215 -3.1972
31448SOL     OW99154   5.541   7.310  12.140  0.7868 -0.2429  0.1263
31448SOL    HW199155   5.603   7.347  12.076  1.7541  1.7516  2.0788
31448SOL    HW299156   5.589   7.240  12.183  1.1124  0.2009  0.4950
31449SOL     OW99157  11.259   0.055   4.049 -0.0489  0.0978 -0.5623
31449SOL    HW199158  11.260   0.128   4.111  2.0101  0.6618 -1.1633
31449SOL    HW299159  11.167   0.040   4.030 -0.5940  1.5126  0.7749
31450SOL     OW99160   3.841   1.850   4.187 -0.8822  0.1711  0.5314
31450SOL    HW199161   3.812   1.938   4.209 -0.9708 -0.0417  1.3007
31450SOL    HW299162   3.766   1.794   4.209 -0.2384 -0.2803  1.6624
31451SOL     OW99163  10.085   7.878   5.619 -0.2144 -0.0270 -0.3035
31451SOL    HW199164  10.087   7.826   5.539 -0.2386  0.0474 -0.3530
31451SOL    HW299165  10.177   7.887   5.644 -0.2585 -0.6878  0.0970
31452SOL     OW99166   2.594   8.731   0.458 -0.4739  0.0473 -0.1386
31452SOL    HW199167   2.649   8.792   0.507 -1.2339 -2.2340  4.0327
31452SOL    HW299168   2.644   8.712   0.378  0.9042  4.0474 -0.4373
31453SOL     OW99169   3.067  10.592   3.953  0.0987 -0.7523  0.6062
31453SOL    HW199170   2.992  10.635   3.995 -0.8268  1.1862 -2.6671
31453SOL    HW299171   3.140  10.609   4.012 -1.1437  1.4919  1.6452
31454SOL     OW99172   4.529   5.791   5.319  0.0681  0.2263 -0.4845
31454SOL    HW199173   4.505   5.825   5.233  0.6238  0.5466 -0.5222
31454SOL    HW299174   4.625   5.799   5.322 -0.0218  1.2075  0.5634
31455SOL     OW99175  10.431  10.739  10.831  0.1845 -0.1520  0.0625
31455SOL    HW199176  10.431  10.833  10.811 -2.0545  0.5614  2.8252
31455SOL    HW299177  10.372  10.701  10.766  0.7172  0.3811 -0.7587
31456SOL     OW99178  10.962  11.633   4.197 -0.9384 -0.1172  0.2144
31456SOL    HW199179  10.896  11.607   4.133 -0.2936 -0.8321 -0.1799
31456SOL    HW299180  11.008  11.707   4.156  1.1547 -2.1219 -1.3634
31457SOL     OW99181   8.674   2.677   0.275  0.0121 -0.0768  0.0553
31457SOL    HW199182   8.758   2.632   0.273 -0.4891 -1.1135  0.9763
31457SOL    HW299183   8.621   2.630   0.210 -0.2231 -0.2035  0.3371
31458SOL     OW99184   6.697  12.289   5.389 -0.1163  0.5093 -0.1580
31458SOL    HW199185   6.757  12.312   5.319 -0.1543  0.2570 -0.2745
31458SOL    HW299186   6.753  12.254   5.458 -0.2214 -0.8799 -0.7367
31459SOL     OW99187   0.137   3.728  11.045  0.1815 -0.0364 -0.3367
31459SOL    HW199188   0.085   3.787  11.100  0.6525 -1.0206  1.2150
31459SOL    HW299189   0.092   3.644  11.051  0.1526 -0.1315 -1.6216
31460SOL     OW99190   3.379  10.530   1.833  0.0604  0.2432  0.1943
31460SOL    HW199191   3.337  10.475   1.767  0.9252  0.7559 -0.8202
31460SOL    HW299192   3.472  10.529   1.809  0.3561  0.6563  1.2557
31461SOL     OW99193  11.299   7.954   0.851  0.3692  0.7479  0.0103
31461SOL    HW199194  11.372   7.993   0.804  1.4588 -1.2602 -0.0686
31461SOL    HW299195  11.301   7.861   0.827 -1.0857  0.2859  1.4286
31462SOL     OW99196   0.715   5.511   7.694 -0.5098  0.2612  0.4461
31462SOL    HW199197   0.748   5.515   7.605  0.4661 -0.6243  0.7577
31462SOL    HW299198   0.621   5.495   7.684 -0.0289 -2.4650 -0.4332
31463SOL     OW99199   8.244   3.557  10.784 -0.3199 -0.4330  0.0770
31463SOL    HW199200   8.282   3.560  10.872 -0.2211  0.5942  0.0072
31463SOL    HW299201   8.209   3.645  10.770  0.3541 -0.3534 -1.2127
31464SOL     OW99202   6.083   4.328   1.962  0.5536  0.2326 -0.3293
31464SOL    HW199203   6.160   4.276   1.985  0.6641  1.2387  1.7888
31464SOL    HW299204   6.098   4.413   2.002 -1.0691  0.8953 -1.0155
31465SOL     OW99205   5.733   5.000   5.792  0.0719 -0.0482  0.2082
31465SOL    HW199206   5.655   5.031   5.746 -0.1809 -1.5472 -0.4302
31465SOL    HW299207   5.703   4.924   5.841  1.4144 -1.6258 -1.2937
31466SOL     OW99208  11.328  11.060   1.074  0.5091 -0.1490  0.0138
31466SOL    HW199209  11.415  11.091   1.099  0.4950 -0.2663  0.2101
31466SOL    HW299210  11.279  11.057   1.156  0.3206 -0.0861 -0.0954
31467SOL     OW99211   9.106   9.947   5.990 -0.0739 -0.0219 -0.2336
31467SOL    HW199212   9.052   9.977   5.917  0.1029 -0.5251 -0.5775
31467SOL    HW299213   9.074   9.859   6.010  1.0160 -0.5790 -0.8586
31468SOL     OW99214   5.698   9.437   0.984  0.4094  0.9104 -0.4298
31468SOL    HW199215   5.759   9.487   0.929  2.6194  1.7538  2.5291
31468SOL    HW299216   5.674   9.497   1.054 -0.4615 -0.7888  0.8052
31469SOL     OW99217   4.636  10.411   9.816  0.3096 -0.3977 -0.0090
31469SOL    HW199218   4.696  10.346   9.855  1.5516  0.8610  0.2631
31469SOL    HW299219   4.606  10.463   9.891  2.1693  1.6008 -0.5500
31470SOL     OW99220  12.569   4.442  10.139 -0.2882  0.4772  0.0362
31470SOL    HW199221  12.546   4.430  10.047  2.0476  2.0273 -0.8561
31470SOL    HW299222  12.506   4.389  10.187 -0.8481 -1.3453 -2.5026
31471SOL     OW99223  11.943   7.424   9.366  0.7467  0.0914  0.5459
31471SOL    HW199224  11.896   7.348   9.401  0.1990 -0.4066 -1.1813
31471SOL    HW299225  12.026   7.424   9.413 -0.0151 -0.4333  1.9461
31472SOL     OW99226   4.071  10.606   4.723  0.5582  0.2040 -0.2650
31472SOL    HW199227   4.123  10.682   4.747  0.6701  0.0114  0.1098
31472SOL    HW299228   3.993  10.611   4.779 -0.1051  0.8025 -1.2215
31473SOL     OW99229  10.615   3.333  10.373 -0.0585 -0.0985 -0.0870
31473SOL    HW199230  10.670   3.410  10.387  1.3750 -1.3465  1.7979
31473SOL    HW299231  10.648   3.295  10.291 -0.4127  0.9843 -0.7410
31474SOL     OW99232   6.730   3.326   5.170  0.3789  0.9246  0.5705
31474SOL    HW199233   6.779   3.249   5.196 -1.7433 -0.8116 -0.2671
31474SOL    HW299234   6.712   3.313   5.077  0.0142  2.4704  0.3862
31475SOL     OW99235   8.849  10.336   7.756 -0.2328 -0.7577 -0.6643
31475SOL    HW199236   8.852  10.415   7.811 -0.7880  0.8223 -2.7818
31475SOL    HW299237   8.894  10.269   7.807 -1.3648  0.3920  2.0345
31476SOL     OW99238   3.832   3.098  10.194  0.2972 -0.0254  0.7119
31476SOL    HW199239   3.870   3.134  10.113  0.4802  0.6863  1.1038
31476SOL    HW299240   3.893   3.031  10.221 -0.2367 -0.9274 -0.2349
31477SOL     OW99241   4.612   0.388   9.094 -0.4966  1.1398  0.1857
31477SOL    HW199242   4.520   0.412   9.087 -0.9771 -0.6418  0.1355
31477SOL    HW299243   4.613   0.293   9.097  1.3893  1.0936 -0.3486
31478SOL     OW99244   6.882   4.617   2.524 -0.7336  0.2178 -0.2868
31478SOL    HW199245   6.906   4.674   2.451  1.5699 -0.3429 -0.0354
31478SOL    HW299246   6.864   4.677   2.596 -2.6705  0.7581 -1.1391
31479SOL     OW99247   9.368  10.811   6.952  0.2488 -0.4447  0.0414
31479SOL    HW199248   9.445  10.800   6.896  0.6604 -1.8380  0.8336
31479SOL    HW299249   9.369  10.904   6.975  1.5180 -0.3717 -0.2109
31480SOL     OW99250   7.029   5.382   8.875  0.0215  0.6915 -0.2355
31480SOL    HW199251   7.048   5.460   8.927 -1.4903  1.5070 -0.8153
31480SOL    HW299252   6.939   5.358   8.899 -0.0406 -0.0238 -1.0919
31481SOL     OW99253   0.235   1.938   1.044  0.2429 -0.5005  0.5200
31481SOL    HW199254   0.322   1.977   1.033  0.0236  0.5372  2.0947
31481SOL    HW299255   0.250   1.844   1.042  1.1188 -0.3561 -1.0914
31482SOL     OW99256   3.489  10.264   4.270 -0.9777 -0.2233 -0.2566
31482SOL    HW199257   3.523  10.337   4.218 -1.9783  1.1022  0.8817
31482SOL    HW299258   3.489  10.296   4.360  3.5387 -3.3864  1.2627
31483SOL     OW99259   6.711   9.281   3.149 -0.0392 -0.1775 -0.4554
31483SOL    HW199260   6.629   9.232   3.157 -0.1230  0.1759  1.4513
31483SOL    HW299261   6.683   9.373   3.147  0.2096 -0.1138 -2.2130
31484SOL     OW99262   3.958   0.531   7.147  0.1669 -0.3069  0.3566
31484SOL    HW199263   4.030   0.494   7.199 -0.0589 -0.2350  0.7288
31484SOL    HW299264   3.890   0.463   7.150  0.2911 -0.4538 -0.1521
31485SOL     OW99265  12.293   8.245   6.882 -0.1796  0.0194  1.1063
31485SOL    HW199266  12.325   8.156   6.862  1.2848  0.6109  0.6436
31485SOL    HW299267  12.222   8.259   6.820 -0.4407 -0.8383  1.1933
31486SOL     OW99268   5.886  12.361   6.942  0.3750  0.0629 -0.2479
31486SOL    HW199269   5.824  12.423   6.903  0.6170  0.0103 -0.7255
31486SOL    HW299270   5.903  12.297   6.872  0.7955 -0.0477 -0.0461
31487SOL     OW99271  12.276   4.831   5.371 -0.1056 -0.0647 -0.5372
31487SOL    HW199272  12.240   4.868   5.290 -1.2940  0.6320  0.2798
31487SOL    HW299273  12.210   4.769   5.401  1.0025 -1.4483 -0.8552
31488SOL     OW99274   0.208   6.901   5.651 -0.4301 -0.4677  0.2596
31488SOL    HW199275   0.241   6.979   5.607 -0.9451  0.0829  0.8224
31488SOL    HW299276   0.224   6.918   5.744 -0.6819 -0.9650  0.3973
31489SOL     OW99277   4.819   4.049   6.150 -0.0774  0.5355 -0.1026
31489SOL    HW199278   4.807   4.112   6.079  1.2213  0.1405 -0.7197
31489SOL    HW299279   4.811   3.964   6.108 -1.8010  0.2555  0.7232
31490SOL     OW99280   4.818  12.498   2.442  0.0865 -0.4523 -0.3882
31490SOL    HW199281   4.908  12.467   2.435 -0.3704 -2.0743  0.3073
31490SOL    HW299282   4.822  12.571   2.503  0.8144 -1.1671  0.4514
31491SOL     OW99283  11.473   5.669  12.431 -0.7362  0.3920 -0.3762
31491SOL    HW199284  11.417   5.738  12.467 -3.3166 -0.3029 -2.6852
31491SOL    HW299285  11.456   5.592  12.486 -0.2671  0.7568  0.2925
31492SOL     OW99286   7.975  10.973  11.876  0.6442  0.0633  0.0126
31492SOL    HW199287   7.904  10.911  11.861  1.4202 -0.7819 -0.2780
31492SOL    HW299288   7.983  11.021  11.794  1.0466 -0.5319 -0.3093
31493SOL     OW99289   7.133  11.737   5.172  0.6209  0.2614  0.0396
31493SOL    HW199290   7.226  11.729   5.150  0.5607  1.0937 -0.5603
31493SOL    HW299291   7.107  11.649   5.200  0.9701 -0.6455 -2.2515
31494SOL     OW99292   6.953   0.071   2.339 -0.5989  0.3986  0.0307
31494SOL    HW199293   6.975   0.056   2.431  0.5804  1.6332 -0.0086
31494SOL    HW299294   6.865   0.035   2.329 -0.8146  0.3764  1.6700
31495SOL     OW99295   3.512   5.095   6.872 -0.2338 -0.2337 -0.5436
31495SOL    HW199296   3.484   5.080   6.782 -0.5486  1.9244 -0.8746
31495SOL    HW299297   3.431   5.094   6.923 -0.3299  0.6894 -0.6554
31496SOL     OW99298   3.226  10.697   2.001  0.6210  0.2800 -0.2641
31496SOL    HW199299   3.154  10.644   1.967  0.1526  0.4506  0.4480
31496SOL    HW299300   3.305  10.652   1.969  0.2088  0.5323 -1.6925
31497SOL     OW99301   8.019   0.291   9.013  0.0563 -0.3785 -0.1532
31497SOL    HW199302   8.028   0.334   8.928 -0.0086  1.5569  0.7682
31497SOL    HW299303   8.087   0.332   9.067 -0.7072 -0.6876  1.0680
31498SOL     OW99304   8.705   2.284   1.222 -0.1632 -0.6802 -0.3350
31498SOL    HW199305   8.716   2.255   1.132 -0.9170  0.9998 -1.0112
31498SOL    HW299306   8.723   2.378   1.220 -3.3865  0.0742  0.5762
31499SOL     OW99307   7.929   1.376  11.290 -0.5322 -0.2845 -0.0617
31499SOL    HW199308   7.911   1.283  11.306 -1.6277 -0.5355 -2.2843
31499SOL    HW299309   7.855   1.405  11.236 -0.3408  1.9760  0.8013
31500SOL     OW99310   3.260   3.920   3.065  0.1434  0.0594  0.6444
31500SOL    HW199311   3.171   3.954   3.056  0.0246 -0.7566 -2.1237
31500SOL    HW299312   3.313   3.997   3.085 -0.7837  1.0992 -0.6902
31501SOL     OW99313   5.949   4.168  11.823 -0.4128 -0.7655 -0.8080
31501SOL    HW199314   5.947   4.232  11.751  0.4490  1.0547  0.6849
31501SOL    HW299315   5.867   4.120  11.814 -1.3308  0.8644 -1.7626
31502SOL     OW99316   0.555   2.873   8.852  0.7021 -0.2579  0.0985
31502SOL    HW199317   0.634   2.924   8.835  0.2216  0.3881 -0.2434
31502SOL    HW299318   0.524   2.905   8.937  2.0992 -2.1961  1.4047
31503SOL     OW99319   0.352   8.606   0.491 -0.0797  0.1444  0.1841
31503SOL    HW199320   0.425   8.645   0.443  0.3677 -1.8770 -0.8708
31503SOL    HW299321   0.284   8.594   0.426 -0.8815  0.7742  0.8818
31504SOL     OW99322   8.080   1.616   2.043 -0.8812  0.6451  0.1623
31504SOL    HW199323   8.168   1.596   2.075 -0.3817  1.5228 -0.6227
31504SOL    HW299324   8.048   1.533   2.007 -0.4665  0.2689  0.6492
31505SOL     OW99325   6.944   3.630   7.704  0.6549 -0.7440  0.2082
31505SOL    HW199326   6.989   3.613   7.786  2.1405  3.4116  0.4497
31505SOL    HW299327   7.014   3.637   7.639 -0.2884 -1.3052 -0.9057
31506SOL     OW99328   7.583   7.121  12.520 -0.2478 -0.3244 -0.5196
31506SOL    HW199329   7.671   7.092  12.542  0.1596  1.5696  0.5274
31506SOL    HW299330   7.532   7.108  12.600 -0.1487  1.3387 -0.1403
31507SOL     OW99331   9.228  12.075  10.700  0.6152  0.0463  0.1738
31507SOL    HW199332   9.181  11.993  10.685 -0.0435  0.0393  2.0992
31507SOL    HW299333   9.167  12.130  10.748  2.3838  0.1760  2.4242
31508SOL     OW99334   4.545   6.632  10.029  0.0308  0.6391  0.0259
31508SOL    HW199335   4.463   6.645   9.983 -0.2192 -0.1982  0.2071
31508SOL    HW299336   4.611   6.629   9.960 -0.2050  0.4519 -0.1931
31509SOL     OW99337   8.116   5.168   8.131  0.0645 -0.0045 -0.3858
31509SOL    HW199338   8.208   5.194   8.137 -0.2445  0.8342  1.6227
31509SOL    HW299339   8.106   5.100   8.197 -1.6010  2.9682  2.7870
31510SOL     OW99340   0.328   7.769   1.966 -0.1893  0.0003 -0.3511
31510SOL    HW199341   0.349   7.862   1.976  0.3674 -0.1312 -0.2867
31510SOL    HW299342   0.289   7.744   2.050  1.2411 -0.2390  0.2566
31511SOL     OW99343   7.655   2.848   0.960 -0.4855 -0.2583  0.3184
31511SOL    HW199344   7.594   2.898   1.014 -1.5997 -1.0822 -0.1165
31511SOL    HW299345   7.605   2.830   0.880  1.2700  1.3540 -1.2370
31512SOL     OW99346   2.748   8.861   2.377  0.2561 -0.1068 -0.1171
31512SOL    HW199347   2.741   8.942   2.427 -0.0420 -0.0564 -0.2361
31512SOL    HW299348   2.658   8.826   2.375  0.5588 -0.9840  0.8394
31513SOL     OW99349   3.759   0.232  11.194  0.1007  0.6515  0.0102
31513SOL    HW199350   3.826   0.275  11.247 -0.2570  0.4808  0.6024
31513SOL    HW299351   3.695   0.301  11.176 -0.2621  0.4809  0.6115
31514SOL     OW99352   1.009   2.721   9.664 -0.3832 -0.4062 -0.2286
31514SOL    HW199353   0.938   2.771   9.625 -0.4509  0.6733  1.1960
31514SOL    HW299354   0.969   2.678   9.740  0.0464 -1.3687 -0.5295
31515SOL     OW99355   0.597  11.244  10.985  0.1540  0.3033  0.2457
31515SOL    HW199356   0.658  11.263  10.914 -0.0450 -2.9834 -0.9546
31515SOL    HW299357   0.531  11.313  10.979  0.9253  0.9416 -1.8208
31516SOL     OW99358   7.663   2.421   7.962 -0.1842  0.2286 -0.6282
31516SOL    HW199359   7.648   2.497   8.018  1.2781  0.2025 -0.1511
31516SOL    HW299360   7.631   2.347   8.014  0.6412  0.2693 -0.0300
31517SOL     OW99361   1.866   2.597   3.066 -0.3778 -0.1522 -0.1424
31517SOL    HW199362   1.858   2.504   3.089  1.6170  0.3841  3.3138
31517SOL    HW299363   1.959   2.616   3.071 -0.8014  2.2340 -0.0132
31518SOL     OW99364  12.279   0.439   6.025 -0.0148  0.1203 -0.3717
31518SOL    HW199365  12.218   0.420   5.953 -0.6830 -0.1484  0.2521
31518SOL    HW299366  12.229   0.420   6.104  1.3371 -1.4753  0.1487
31519SOL     OW99367   6.129   3.531   2.595 -0.2021  0.2425 -0.2841
31519SOL    HW199368   6.197   3.595   2.618  0.1138  0.1728 -1.0085
31519SOL    HW299369   6.079   3.520   2.676 -0.4893  1.6712 -0.2363
31520SOL     OW99370   1.084   4.281   1.201 -0.1495  0.5145  0.0651
31520SOL    HW199371   1.102   4.336   1.125  0.1296  1.4487  0.7793
31520SOL    HW299372   0.993   4.300   1.224 -0.7092 -0.8839 -0.9051
31521SOL     OW99373   1.385   7.205   2.139 -0.3048 -0.0298 -0.2975
31521SOL    HW199374   1.362   7.277   2.079 -1.0939 -0.4912 -0.5517
31521SOL    HW299375   1.477   7.188   2.119 -0.3715  0.2709 -0.9133
31522SOL     OW99376  10.932   4.182   2.039  0.1846 -0.3237  0.3247
31522SOL    HW199377  10.845   4.215   2.063 -0.3322 -0.1432 -1.6204
31522SOL    HW299378  10.915   4.099   1.995  1.2363 -1.5490  2.0841
31523SOL     OW99379   5.347   0.877   5.104  0.1381 -0.2273 -0.4290
31523SOL    HW199380   5.316   0.814   5.040  0.9727  1.1970 -2.3488
31523SOL    HW299381   5.335   0.962   5.062  0.0912  0.8345  1.6033
31524SOL     OW99382   4.859   3.593   3.382 -0.3979  0.3177  0.0663
31524SOL    HW199383   4.829   3.590   3.292 -2.0116 -0.0730  0.5878
31524SOL    HW299384   4.954   3.600   3.376 -0.5250  0.8144 -1.6513
31525SOL     OW99385   0.593   1.503   4.538  0.0805  0.2667  0.3176
31525SOL    HW199386   0.514   1.542   4.499 -0.9567 -0.3489  1.7284
31525SOL    HW299387   0.626   1.571   4.597  0.2262  0.2665  0.2371
31526SOL     OW99388   3.589   8.762   2.821  0.6705  0.1215  0.3617
31526SOL    HW199389   3.667   8.722   2.858  1.5739  1.8131  0.3551
31526SOL    HW299390   3.620   8.815   2.747 -0.4570  0.8203  0.3470
31527SOL     OW99391   7.490   7.061   5.515  0.4005  0.1422  0.1191
31527SOL    HW199392   7.445   7.001   5.574 -0.3380  1.4077  0.8652
31527SOL    HW299393   7.566   7.091   5.564 -0.6317  1.8023  0.7998
31528SOL     OW99394   6.152   8.525  12.329 -0.3214 -0.4455 -0.0437
31528SOL    HW199395   6.207   8.532  12.407 -1.8804 -2.0399  1.2618
31528SOL    HW299396   6.136   8.616  12.304  1.8016  0.0772  0.2902
31529SOL     OW99397   2.019   8.825   7.407  0.2221  0.1882 -0.1575
31529SOL    HW199398   2.105   8.795   7.377  0.4039  0.8913 -0.3590
31529SOL    HW299399   2.033   8.847   7.500  0.2344  0.1918 -0.1603
31530SOL     OW99400   0.258   3.298   5.289 -0.1230 -0.1012 -0.5261
31530SOL    HW199401   0.251   3.257   5.375 -0.9130 -0.2141 -0.6306
31530SOL    HW299402   0.185   3.261   5.239  0.3308 -0.0441 -1.2492
31531SOL     OW99403   0.403   4.818   8.486  0.0266  0.0164 -0.0649
31531SOL    HW199404   0.447   4.889   8.439 -0.0779 -0.0457 -0.2575
31531SOL    HW299405   0.363   4.765   8.418 -0.1036 -0.0903  0.0920
31532SOL     OW99406   3.882   2.918   7.717  0.0813  0.2259  0.2689
31532SOL    HW199407   3.958   2.923   7.774 -0.6802 -0.0560  1.3425
31532SOL    HW299408   3.916   2.939   7.630  0.7434  3.7463  1.2336
31533SOL     OW99409   7.239  10.994  11.336  0.1500  0.4041  0.0290
31533SOL    HW199410   7.237  11.010  11.241 -0.9343  1.5443  0.2076
31533SOL    HW299411   7.327  10.962  11.353  1.1920  2.4525 -1.0488
31534SOL     OW99412   9.267   8.547   6.611  0.4713 -0.4961 -0.2499
31534SOL    HW199413   9.236   8.570   6.524  0.5896 -0.8391 -0.3838
31534SOL    HW299414   9.341   8.488   6.596 -0.0134 -1.2090  0.0871
31535SOL     OW99415   7.423  12.071   3.159 -0.1081  0.0265  0.1644
31535SOL    HW199416   7.506  12.058   3.206 -0.9673 -1.6245  1.3256
31535SOL    HW299417   7.425  12.004   3.090  0.1209  0.9180 -0.7105
31536SOL     OW99418   3.416  10.522  10.217  0.0022  0.7426 -0.2686
31536SOL    HW199419   3.457  10.526  10.304 -1.8412  0.9587  0.6399
31536SOL    HW299420   3.323  10.539  10.234 -0.1147  2.9424 -2.5402
31537SOL     OW99421   2.829   8.859   7.147  0.0694  0.2267  0.0572
31537SOL    HW199422   2.890   8.793   7.179  0.0868  0.1564 -0.1217
31537SOL    HW299423   2.844   8.863   7.052  0.6447  1.0735  0.1645
31538SOL     OW99424   6.922   5.759  11.410  0.0205  0.1255 -0.1543
31538SOL    HW199425   6.883   5.779  11.495 -2.1334 -1.9192 -0.5661
31538SOL    HW299426   6.990   5.694  11.429  0.3557  0.5633  0.1342
31539SOL     OW99427   6.290   3.075   4.246 -0.4569  0.2221  0.1475
31539SOL    HW199428   6.298   3.138   4.318  0.1134  0.0145  0.2659
31539SOL    HW299429   6.379   3.043   4.232 -0.9782 -1.8092  1.1945
31540SOL     OW99430   7.761   0.452   0.056 -0.5620 -0.0045  0.6411
31540SOL    HW199431   7.773   0.366   0.096 -2.2470 -0.2488  0.6950
31540SOL    HW299432   7.843   0.498   0.074  0.8615 -1.9770 -0.4233
31541SOL     OW99433   1.048   6.155   9.761 -0.3730  0.2201  0.0949
31541SOL    HW199434   0.972   6.108   9.727 -0.7541  0.6041  0.4005
31541SOL    HW299435   1.013   6.208   9.832 -0.0899  1.5391 -0.7182
31542SOL     OW99436  10.883   1.873  12.186  0.4921  0.1611  0.0465
31542SOL    HW199437  10.851   1.963  12.178 -3.5084 -1.1457 -1.0701
31542SOL    HW299438  10.893   1.843  12.096  0.6774 -0.8616  0.3973
31543SOL     OW99439   2.726   0.324   1.918  0.4675 -0.7519 -0.3654
31543SOL    HW199440   2.675   0.345   1.839  2.3166 -0.1930 -1.4682
31543SOL    HW299441   2.745   0.231   1.909 -2.7681 -1.7627  1.5769
31544SOL     OW99442   7.222   6.422   8.147  0.4143  0.0447  0.0573
31544SOL    HW199443   7.226   6.487   8.218  0.7390 -0.9555  0.9809
31544SOL    HW299444   7.138   6.377   8.161  0.0003  0.5272 -0.8233
31545SOL     OW99445   6.806  10.185   7.816  0.1525  0.2749  0.2640
31545SOL    HW199446   6.752  10.255   7.853 -0.1818  0.1598  0.0035
31545SOL    HW299447   6.807  10.204   7.722 -2.1039 -1.5058 -0.2044
31546SOL     OW99448   2.070   5.294   9.820  0.1338  0.3023  0.0405
31546SOL    HW199449   2.063   5.247   9.903  1.3532 -0.7987 -0.4594
31546SOL    HW299450   2.163   5.294   9.800 -0.0059  1.6434 -0.7342
31547SOL     OW99451   4.091   7.076   9.729 -0.8475 -0.1097  0.4423
31547SOL    HW199452   4.168   7.061   9.784 -1.4255 -1.1296  0.9859
31547SOL    HW299453   4.019   7.088   9.790 -1.7557 -2.5835 -0.0287
31548SOL     OW99454   8.696   1.333   3.204 -0.0913 -0.4702 -0.2883
31548SOL    HW199455   8.761   1.280   3.250 -0.1140 -0.0116  0.2843
31548SOL    HW299456   8.669   1.398   3.268  0.9441  1.1130 -1.3762
31549SOL     OW99457   7.864   0.540   7.982 -0.2618  0.4390 -0.0282
31549SOL    HW199458   7.904   0.465   8.026 -1.5666 -0.7968 -0.8596
31549SOL    HW299459   7.879   0.613   8.042 -2.6502 -1.2929  2.9944
31550SOL     OW99460   2.273   5.184   2.991 -0.0668  0.3076 -0.0995
31550SOL    HW199461   2.312   5.096   2.992  0.2530  0.3896 -2.2639
31550SOL    HW299462   2.225   5.189   3.074  0.8222 -1.4776  0.5856
31551SOL     OW99463   6.428   1.513   8.687  0.0544 -0.4100  0.1581
31551SOL    HW199464   6.517   1.486   8.667  0.6652  2.4831 -1.6605
31551SOL    HW299465   6.373   1.462   8.628  0.4779 -1.9864  1.0720
31552SOL     OW99466   5.836   5.907   2.367  0.4269  0.1491 -0.3594
31552SOL    HW199467   5.815   5.863   2.285  1.3188 -0.2531 -0.3852
31552SOL    HW299468   5.868   5.994   2.340 -0.6395  0.5640 -0.3460
31553SOL     OW99469   5.021   5.078  10.566 -0.7223 -0.2979  0.1802
31553SOL    HW199470   4.990   5.000  10.613 -1.6105  0.2489  0.5228
31553SOL    HW299471   4.946   5.105  10.513 -0.2898  0.0998 -0.2371
31554SOL     OW99472   9.675   6.039   1.611  0.1649  0.5041 -0.5828
31554SOL    HW199473   9.671   6.103   1.540  2.3517  0.0030 -1.2397
31554SOL    HW299474   9.709   5.959   1.570  0.7133 -0.0464  0.8655
31555SOL     OW99475  10.630   0.374   4.882 -0.8459 -0.0124  0.9128
31555SOL    HW199476  10.657   0.464   4.895 -1.2008  0.0729  1.0613
31555SOL    HW299477  10.712   0.325   4.872 -0.6577  0.3409  0.7161
31556SOL     OW99478   3.229  11.858   0.772 -0.0695  0.4122  0.5472
31556SOL    HW199479   3.267  11.939   0.807 -0.0738  0.5609  0.2081
31556SOL    HW299480   3.178  11.822   0.845 -1.4879  1.5989  0.1852
31557SOL     OW99481  11.965   5.349   3.205  0.3959  0.3337 -0.1856
31557SOL    HW199482  11.939   5.431   3.249  0.6416 -0.5324  1.6782
31557SOL    HW299483  11.914   5.281   3.251  2.8921 -0.9591  0.8575
31558SOL     OW99484   0.106  12.391   8.644 -0.2269 -0.3059  0.5237
31558SOL    HW199485   0.152  12.434   8.716 -1.5069  0.6063  0.8292
31558SOL    HW299486   0.168  12.393   8.571  0.6844 -0.2810  1.2800
31559SOL     OW99487   6.620   6.046   6.701  0.1386  0.5188 -0.3696
31559SOL    HW199488   6.572   6.121   6.738 -0.4305 -0.4781  0.9949
31559SOL    HW299489   6.705   6.049   6.746 -1.2208 -1.8178  2.7028
31560SOL     OW99490  10.929   6.716   7.356 -0.3694 -0.3362 -0.0054
31560SOL    HW199491  10.976   6.708   7.273  0.1375 -0.0777  0.2608
31560SOL    HW299492  10.837   6.726   7.330 -0.1858 -0.0318 -0.5403
31561SOL     OW99493   2.780   1.190   6.556  0.3999 -0.9298  0.0474
31561SOL    HW199494   2.758   1.207   6.648 -1.9317 -1.8251 -0.2577
31561SOL    HW299495   2.751   1.269   6.510  2.3198 -0.1369  0.1227
31562SOL     OW99496   3.192  12.362   8.396  0.3908  0.3957 -0.3262
31562SOL    HW199497   3.170  12.445   8.438  1.4620  0.7273 -0.3724
31562SOL    HW299498   3.123  12.302   8.423 -0.3093  1.2555 -0.1532
31563SOL     OW99499   0.519   0.114  11.856  0.3823 -0.0111 -0.0337
31563SOL    HW199500   0.429   0.096  11.881  0.8373 -2.4289  0.1739
31563SOL    HW299501   0.528   0.209  11.860 -1.7485  0.1808  1.3133
31564SOL     OW99502   1.078   5.231   7.538 -0.1807  0.3332  0.0943
31564SOL    HW199503   1.005   5.193   7.588  1.1363 -0.7343  1.2832
31564SOL    HW299504   1.098   5.165   7.472  1.2806 -0.5461  1.3521
31565SOL     OW99505   2.257   1.956  11.596 -1.0048  0.4629 -0.0409
31565SOL    HW199506   2.166   1.969  11.570 -1.1377 -1.9264 -1.0967
31565SOL    HW299507   2.304   1.943  11.514  0.2374  1.2632  0.5130
31566SOL     OW99508  10.352   6.744   3.935 -0.1202  0.2231  0.6019
31566SOL    HW199509  10.319   6.710   4.018 -1.3547 -1.3911 -0.4813
31566SOL    HW299510  10.438   6.703   3.925 -2.0646 -3.9890 -1.2671
31567SOL     OW99511   7.135  12.204   9.970  0.2125  0.0411 -0.1486
31567SOL    HW199512   7.186  12.252  10.035 -0.6278 -0.5590  0.9932
31567SOL    HW299513   7.084  12.141  10.022  0.0380 -0.9250 -1.4556
31568SOL     OW99514  12.440   2.982   7.635 -0.5444 -0.0160 -0.1537
31568SOL    HW199515  12.439   2.917   7.565 -1.6147  0.4191 -0.5633
31568SOL    HW299516  12.455   2.932   7.715  0.1677 -0.5784 -0.6284
31569SOL     OW99517   3.700   9.421   1.657 -0.1763 -0.5503  0.2709
31569SOL    HW199518   3.652   9.469   1.725 -0.9936 -1.2926  0.2409
31569SOL    HW299519   3.774   9.477   1.636  0.4639 -0.5718  2.2194
31570SOL     OW99520   3.656   3.156   0.705 -0.1916 -0.1251 -0.6819
31570SOL    HW199521   3.677   3.148   0.612  0.2589 -0.0696 -0.5857
31570SOL    HW299522   3.630   3.247   0.716  3.6537  1.0387  0.0048
31571SOL     OW99523  11.613   2.054   2.396  0.1742  0.5274 -0.4382
31571SOL    HW199524  11.579   1.969   2.367  0.5921 -0.0229  0.6479
31571SOL    HW299525  11.701   2.036   2.427 -0.8066  0.7087  2.7758
31572SOL     OW99526  12.314   3.238   2.010 -0.0122  0.3002  0.0472
31572SOL    HW199527  12.396   3.245   2.059  0.2570  2.5763 -0.5851
31572SOL    HW299528  12.246   3.256   2.075 -0.1135 -1.9607  0.6559
31573SOL     OW99529  11.601   6.650   5.835 -0.6697 -0.9078 -0.7308
31573SOL    HW199530  11.550   6.705   5.776 -2.5934  0.2031  1.7829
31573SOL    HW299531  11.674   6.705   5.864  0.5437 -1.6074 -2.3006
31574SOL     OW99532   0.327   7.300   1.802  0.2748  0.2213 -0.0170
31574SOL    HW199533   0.285   7.344   1.728 -1.6270 -1.1197  0.1946
31574SOL    HW299534   0.256   7.253   1.845  1.5610  0.0133  1.9871
31575SOL     OW99535   8.322  11.700   6.679  0.3782  0.1596  0.3934
31575SOL    HW199536   8.396  11.741   6.723  1.1901 -2.1740  1.3378
31575SOL    HW299537   8.268  11.665   6.750 -0.3051 -0.3430 -0.3611
31576SOL     OW99538   3.997   7.422   9.542  0.1111  0.4804  0.4510
31576SOL    HW199539   3.949   7.477   9.603  0.4897 -0.2198  1.4073
31576SOL    HW299540   3.929   7.376   9.492 -0.2024  0.8082  0.5763
31577SOL     OW99541  10.042   1.954   4.187  0.2852 -0.2106 -0.5889
31577SOL    HW199542   9.967   2.009   4.211  1.9594  1.7808  0.3778
31577SOL    HW299543  10.031   1.875   4.240 -0.0397  0.9526  1.1712
31578SOL     OW99544   6.351  10.124  12.029  0.1261 -0.4757 -0.6973
31578SOL    HW199545   6.299  10.104  12.107  0.9477 -1.0165 -0.2771
31578SOL    HW299546   6.367  10.218  12.035 -0.1990 -0.4322 -0.4567
31579SOL     OW99547   5.340   8.805   8.730  0.1159 -0.4009  0.2557
31579SOL    HW199548   5.317   8.852   8.811  0.4497  0.6047 -0.2211
31579SOL    HW299549   5.420   8.757   8.752  0.7933  0.6828  0.2465
31580SOL     OW99550   7.075   8.246   5.111  0.0114  0.3797 -0.4102
31580SOL    HW199551   7.063   8.152   5.125  2.5159  0.1022  0.2935
31580SOL    HW299552   7.155   8.252   5.060  0.9522  2.1786  1.1605
31581SOL     OW99553  12.228  10.563   3.165  0.0495 -0.1923  0.6478
31581SOL    HW199554  12.266  10.490   3.117 -0.5256 -0.5307  0.6946
31581SOL    HW299555  12.146  10.528   3.201 -1.1269  0.9503 -0.7981
31582SOL     OW99556  11.528   4.837   3.891  0.4556 -0.0209  0.1995
31582SOL    HW199557  11.593   4.825   3.961  0.7390  0.5235  0.0273
31582SOL    HW299558  11.444   4.823   3.935  0.7087 -2.7184  0.0488
31583SOL     OW99559   6.171  10.807   3.179 -0.0012  0.1770  0.0384
31583SOL    HW199560   6.231  10.783   3.108  0.2311 -0.6890  0.5216
31583SOL    HW299561   6.086  10.819   3.135  0.2259  0.0417 -0.4454
31584SOL     OW99562   8.095   3.346   3.833  0.2009 -0.4308 -0.2925
31584SOL    HW199563   8.168   3.404   3.856  0.6786 -1.2790  0.3969
31584SOL    HW299564   8.045   3.337   3.914 -0.4140 -0.2237 -0.6436
31585SOL     OW99565   9.212   3.860  11.105  0.2560  0.0335 -0.1376
31585SOL    HW199566   9.231   3.772  11.136  0.3125  0.4808  1.1860
31585SOL    HW299567   9.117   3.869  11.111 -0.0152 -0.6985 -2.5104
31586SOL     OW99568  10.720   5.972   7.079 -0.1999 -0.5006 -0.2458
31586SOL    HW199569  10.681   6.058   7.090  0.5921  0.2234 -2.5503
31586SOL    HW299570  10.805   5.989   7.037  1.4672 -2.2033  2.1058
31587SOL     OW99571   4.542   3.318   5.372 -1.0613  0.1823  0.1389
31587SOL    HW199572   4.454   3.345   5.347 -0.7379  1.3562  0.2060
31587SOL    HW299573   4.530   3.265   5.451 -1.7217  0.0957 -0.0131
31588SOL     OW99574   4.740   4.712   6.401 -0.1958 -0.3652  0.3771
31588SOL    HW199575   4.738   4.624   6.438  0.6069 -0.3683  0.4294
31588SOL    HW299576   4.833   4.731   6.387 -0.4294 -0.1191 -1.0580
31589SOL     OW99577   8.789   7.066   8.283  0.0046 -0.0846  0.3380
31589SOL    HW199578   8.715   7.100   8.333 -1.2536 -0.4996 -1.1554
31589SOL    HW299579   8.862   7.122   8.307 -0.6848  0.1141  2.1450
31590SOL     OW99580  12.405   7.573  10.441 -0.0609  0.1090  0.0805
31590SOL    HW199581  12.478   7.615  10.397  0.0639 -0.0331  0.1509
31590SOL    HW299582  12.373   7.508  10.378  0.7692 -0.8157  0.5718
31591SOL     OW99583   7.125   5.772   2.785  0.4707  0.4629  0.0252
31591SOL    HW199584   7.159   5.715   2.854 -0.1112 -1.8179 -1.4631
31591SOL    HW299585   7.031   5.772   2.798  0.3004 -0.4368 -1.0334
31592SOL     OW99586   2.493   3.351   1.467 -0.1103 -0.1202  0.7620
31592SOL    HW199587   2.559   3.418   1.486  0.8687 -1.0248  0.6892
31592SOL    HW299588   2.502   3.288   1.538  0.7360 -1.4403 -0.4526
31593SOL     OW99589  10.185   6.287   5.288 -1.4064 -0.7238 -0.2100
31593SOL    HW199590  10.222   6.349   5.225 -0.4146 -0.3925  0.6678
31593SOL    HW299591  10.096   6.271   5.257 -1.2196  0.0840 -1.2129
31594SOL     OW99592   8.927  11.741   6.106 -0.1541 -0.2391 -0.2966
31594SOL    HW199593   8.917  11.650   6.078  0.1173 -0.1344 -0.7583
31594SOL    HW299594   8.848  11.784   6.074 -0.3845 -0.3545  0.1096
31595SOL     OW99595  12.617  12.001  11.353  0.3378  0.0421  0.3486
31595SOL    HW199596  12.704  12.036  11.372  0.6110 -0.0238 -0.6896
31595SOL    HW299597  12.624  11.969  11.263 -1.0448  0.9281 -0.1002
31596SOL     OW99598   5.730   7.209  11.730 -0.1422 -0.1412  0.1771
31596SOL    HW199599   5.752   7.228  11.639  0.2795  0.1283  0.3329
31596SOL    HW299600   5.634   7.211  11.732 -0.1589 -0.4275 -0.3170
31597SOL     OW99601   3.396  12.124   9.011 -0.0646 -0.3757  0.5237
31597SOL    HW199602   3.304  12.114   8.985 -0.2386 -0.3054  1.0817
31597SOL    HW299603   3.446  12.086   8.940 -0.5891 -2.4463  1.1969
31598SOL     OW99604  10.987   8.622   4.881 -0.0821  0.6280  0.7863
31598SOL    HW199605  10.987   8.549   4.943 -2.5362  2.2696  2.9619
31598SOL    HW299606  10.924   8.597   4.814  0.8782 -0.2026  0.1674
31599SOL     OW99607   9.119   0.820   8.792  0.2425  0.1023 -0.1196
31599SOL    HW199608   9.074   0.754   8.739  0.7487  0.5786 -1.1787
31599SOL    HW299609   9.165   0.874   8.728  0.9615  0.6379  0.8302
31600SOL     OW99610   4.281   2.925   2.821  0.3861 -0.0264  0.0322
31600SOL    HW199611   4.328   2.994   2.868  0.9007 -1.3859  1.6213
31600SOL    HW299612   4.341   2.850   2.821 -1.3166 -1.4804  1.1851
31601SOL     OW99613  11.132   1.058   1.372 -0.0360  0.1778  0.1885
31601SOL    HW199614  11.135   1.149   1.402 -0.7654  0.6129 -0.9875
31601SOL    HW299615  11.156   1.007   1.449 -0.1278  1.3393  1.0210
31602SOL     OW99616  10.258   7.292   8.922 -0.0149  0.2155  0.3354
31602SOL    HW199617  10.316   7.366   8.938  0.8235 -0.1698 -0.7962
31602SOL    HW299618  10.174   7.332   8.898  0.3988  0.7932 -0.1623
31603SOL     OW99619  12.600   1.459   0.693  0.1186  0.2641  0.3663
31603SOL    HW199620  12.622   1.512   0.769 -0.7804  0.8250  0.2504
31603SOL    HW299621  12.504   1.461   0.689  0.0954 -0.8339 -0.0193
31604SOL     OW99622   5.307   5.416   6.662  0.3296 -0.8486  0.1569
31604SOL    HW199623   5.372   5.361   6.620 -1.3664 -1.1091 -2.3687
31604SOL    HW299624   5.332   5.505   6.640  0.0229 -0.9371 -0.5955
31605SOL     OW99625   6.974  12.177  12.069  0.2700 -0.1854 -0.0035
31605SOL    HW199626   7.002  12.086  12.054 -1.3026 -0.4785 -1.4970
31605SOL    HW299627   6.975  12.216  11.982  1.2346  1.3641  0.6715
31606SOL     OW99628  10.449   7.492   0.555  0.3960 -0.1577 -0.2775
31606SOL    HW199629  10.470   7.410   0.510 -1.2703 -1.0912  0.5169
31606SOL    HW299630  10.510   7.496   0.628  1.1924 -0.1285 -0.9372
31607SOL     OW99631   1.993   1.974   7.740 -0.9456 -0.1384  0.2148
31607SOL    HW199632   1.909   1.932   7.757 -0.9170 -0.8705 -1.2298
31607SOL    HW299633   2.038   1.914   7.681  0.0717  0.8383 -0.0477
31608SOL     OW99634  11.181   1.428  10.504 -0.1999  0.0059 -0.0781
31608SOL    HW199635  11.242   1.427  10.578 -0.6653 -1.9807  0.3420
31608SOL    HW299636  11.095   1.424  10.545 -0.4279 -2.8211 -0.6566
31609SOL     OW99637   4.186   0.870   5.835  0.6703 -0.1021 -0.5104
31609SOL    HW199638   4.136   0.922   5.772 -1.5880 -0.2055  1.0690
31609SOL    HW299639   4.167   0.779   5.811  0.3093 -0.1447 -0.0766
31610SOL     OW99640   2.080   9.281   5.335  1.1491 -0.4288 -0.3099
31610SOL    HW199641   2.064   9.195   5.296  0.9403  0.0040 -1.1831
31610SOL    HW299642   2.132   9.328   5.271  0.1315  0.5728 -0.4398
31611SOL     OW99643  10.828   9.745   9.336  0.0444 -0.4309  0.2100
31611SOL    HW199644  10.821   9.808   9.263  0.7294  0.3892  0.8278
31611SOL    HW299645  10.881   9.791   9.401 -0.7413 -1.0760  1.3170
31612SOL     OW99646   1.625   9.304   1.378  0.3271  0.0854 -0.1477
31612SOL    HW199647   1.686   9.234   1.403  2.4561  1.9756  0.1900
31612SOL    HW299648   1.680   9.376   1.349 -1.8357  1.1748 -1.9055
31613SOL     OW99649   5.149  11.592   3.880 -0.0790  0.3176 -0.5199
31613SOL    HW199650   5.076  11.557   3.931 -3.1025  2.5711 -2.9277
31613SOL    HW299651   5.153  11.684   3.903  2.3281  0.2304 -0.2653
31614SOL     OW99652   6.232   6.747   3.974  0.5391 -0.1614  0.2714
31614SOL    HW199653   6.142   6.719   3.990 -0.9637  4.1041  0.7742
31614SOL    HW299654   6.271   6.755   4.061  0.7259 -0.1098  0.1849
31615SOL     OW99655   9.056  11.672  11.911 -0.4696 -0.4835  0.5089
31615SOL    HW199656   8.984  11.685  11.973 -1.8154 -0.3641 -0.9941
31615SOL    HW299657   9.013  11.637  11.833  1.1817 -0.7366 -0.3174
31616SOL     OW99658   6.438   4.979  11.225  0.2213 -0.3171  0.0610
31616SOL    HW199659   6.469   4.918  11.157 -0.3164 -0.0969 -0.3897
31616SOL    HW299660   6.346   4.992  11.204  0.3034  0.5518  0.2328
31617SOL     OW99661   0.195  10.178   1.665  0.2580 -0.0523 -0.0879
31617SOL    HW199662   0.264  10.173   1.731 -0.4859 -0.3899  0.6848
31617SOL    HW299663   0.119  10.135   1.705  0.6937 -3.3355 -2.3983
31618SOL     OW99664  12.032   1.782   7.450  0.2522  0.3612 -0.3289
31618SOL    HW199665  11.970   1.821   7.512  0.2387  0.6802 -0.5407
31618SOL    HW299666  12.020   1.832   7.369  2.6236  2.1903  0.3440
31619SOL     OW99667   4.851   7.971   1.928 -0.3363  0.2411  0.0266
31619SOL    HW199668   4.793   7.918   1.983  0.6198 -0.4550  0.4058
31619SOL    HW299669   4.854   8.056   1.971  1.8060 -0.7932  2.1956
31620SOL     OW99670   9.413   4.499  12.447 -0.7395 -0.3007  0.3287
31620SOL    HW199671   9.505   4.508  12.423 -0.6487 -1.1687  0.3121
31620SOL    HW299672   9.409   4.416  12.494 -1.2621  0.4197  1.6056
31621SOL     OW99673   4.802  11.945   6.507  0.1104 -0.0943  0.5437
31621SOL    HW199674   4.818  11.919   6.416 -1.6868  2.3421 -0.5732
31621SOL    HW299675   4.710  11.922   6.523  0.2736 -0.0669  1.5961
31622SOL     OW99676  11.811  10.760   4.398  0.6187 -0.0174 -0.5125
31622SOL    HW199677  11.798  10.816   4.321  0.1606  1.2810  0.4648
31622SOL    HW299678  11.787  10.673   4.369 -0.0454  0.5379 -1.7022
31623SOL     OW99679   5.963   9.641   2.565 -0.4101  0.0301  0.0576
31623SOL    HW199680   5.956   9.562   2.618  2.8790 -0.6418 -0.3323
31623SOL    HW299681   5.969   9.610   2.475  1.1485  0.6837 -0.0854
31624SOL     OW99682   4.645   7.058   6.938 -0.0309  0.0319  0.8506
31624SOL    HW199683   4.647   7.135   6.882 -0.8869  1.3872  2.6063
31624SOL    HW299684   4.727   7.062   6.987  0.8871 -1.3504 -0.4714
31625SOL     OW99685   6.664   5.061   5.493 -0.0906 -0.2657 -0.4093
31625SOL    HW199686   6.570   5.044   5.505 -0.2953  0.4390 -0.9274
31625SOL    HW299687   6.695   5.082   5.581 -0.0540 -2.1199  0.0584
31626SOL     OW99688   1.870   6.225   9.709  0.1842 -0.2907  0.7895
31626SOL    HW199689   1.880   6.283   9.634  1.4448 -1.1125  0.2785
31626SOL    HW299690   1.779   6.194   9.704 -0.3092  1.1062  0.7058
31627SOL     OW99691   4.320  11.859   1.694  0.2106 -0.1524 -0.2956
31627SOL    HW199692   4.229  11.865   1.665  0.8041  0.8947 -2.0335
31627SOL    HW299693   4.349  11.773   1.664 -0.5032 -0.9735  1.2639
31628SOL     OW99694   1.032   6.044   3.777  0.5831  0.7850 -0.1779
31628SOL    HW199695   1.124   6.022   3.760  0.1351 -0.9891 -0.5570
31628SOL    HW299696   0.988   5.959   3.782 -1.2624  1.6163 -1.2303
31629SOL     OW99697   5.556   8.369   9.084  0.1955 -0.0949  0.1875
31629SOL    HW199698   5.574   8.311   9.158  0.0366  1.1172  1.2259
31629SOL    HW299699   5.635   8.364   9.030  1.1894  0.5110  1.5077
31630SOL     OW99700  11.762   3.820   2.374 -0.4441 -0.0571 -0.0091
31630SOL    HW199701  11.698   3.820   2.302 -0.8513 -0.9271  0.3427
31630SOL    HW299702  11.806   3.905   2.367  0.4194 -0.6138 -2.0891
31631SOL     OW99703   7.299   2.368  10.651  0.0487 -0.3082  0.3453
31631SOL    HW199704   7.393   2.373  10.670  0.1686 -0.6199 -0.1286
31631SOL    HW299705   7.286   2.278  10.621 -0.2992 -0.1151 -0.0981
31632SOL     OW99706  10.827   5.923  11.756 -0.8027  0.2980 -0.2004
31632SOL    HW199707  10.922   5.921  11.748 -0.8342 -1.5062 -0.3874
31632SOL    HW299708  10.809   6.009  11.794  0.8075  1.0905 -1.1201
31633SOL     OW99709   3.419   5.936   4.925 -0.9299 -0.6505  0.0131
31633SOL    HW199710   3.374   6.015   4.955  0.5699  1.4340 -2.6789
31633SOL    HW299711   3.501   5.935   4.975 -0.2938  0.4392 -0.9339
31634SOL     OW99712  11.187   7.375  11.604  0.0931  0.1868  0.2613
31634SOL    HW199713  11.283   7.373  11.612  0.1530 -0.7494 -0.4919
31634SOL    HW299714  11.160   7.285  11.620 -0.4702 -0.0175 -1.6277
31635SOL     OW99715   8.005   3.290   3.386  0.7326  0.4475  0.3941
31635SOL    HW199716   7.993   3.341   3.307 -1.3746 -0.1217  0.2846
31635SOL    HW299717   8.026   3.354   3.454  0.0823  1.2416 -0.1367
31636SOL     OW99718   6.725   1.259   1.408  0.7679  0.3442  0.6678
31636SOL    HW199719   6.762   1.310   1.336  0.3222  3.0159  2.2027
31636SOL    HW299720   6.668   1.195   1.365 -0.8886  2.9831 -1.3430
31637SOL     OW99721  12.295   7.397   0.336 -0.4121  0.2062 -0.2584
31637SOL    HW199722  12.272   7.486   0.360 -1.9415  0.8629 -3.5577
31637SOL    HW299723  12.359   7.408   0.265  0.6206 -1.4167  0.3558
31638SOL     OW99724   8.245   2.009   2.690  0.2322 -0.2113  0.0982
31638SOL    HW199725   8.276   2.085   2.738  3.9292 -0.8546 -0.9308
31638SOL    HW299726   8.253   1.936   2.752 -2.4954  0.0120  0.8176
31639SOL     OW99727  10.877   9.249   2.685 -0.1013  0.3284  0.2813
31639SOL    HW199728  10.851   9.340   2.676  2.3580  0.8796 -2.7346
31639SOL    HW299729  10.827   9.203   2.617  1.8647  0.3054 -1.2357
31640SOL     OW99730   5.572   6.715   9.028 -0.2119 -0.1274 -0.0820
31640SOL    HW199731   5.563   6.620   9.016  1.8745 -1.0475  3.9083
31640SOL    HW299732   5.513   6.736   9.100 -0.8323  1.7642 -1.0687
31641SOL     OW99733   8.893   2.988   7.163  0.4380  0.3737  0.5604
31641SOL    HW199734   8.910   2.894   7.169 -1.1645  0.0054 -0.1843
31641SOL    HW299735   8.797   2.996   7.169  0.5491  1.9769  0.7936
31642SOL     OW99736  10.065   8.512  12.476 -0.2934 -0.1286  0.1302
31642SOL    HW199737  10.116   8.582  12.515  0.4264 -1.2150  1.1973
31642SOL    HW299738   9.991   8.500  12.536 -0.1593 -0.6020  0.2014
31643SOL     OW99739   1.766   4.051   0.302 -0.0992  0.1387 -0.1571
31643SOL    HW199740   1.741   4.072   0.212 -1.6930  1.6739  0.5839
31643SOL    HW299741   1.702   3.986   0.330 -0.3117  0.5167  0.2334
31644SOL     OW99742   5.446   2.880   6.280 -0.1807 -0.3611 -0.5227
31644SOL    HW199743   5.540   2.868   6.264 -0.0904  1.3017 -1.4334
31644SOL    HW299744   5.438   2.874   6.376  0.6808 -1.4967 -0.4933
31645SOL     OW99745  11.282   0.977   7.804  0.1346 -0.2891 -0.3279
31645SOL    HW199746  11.261   1.042   7.737 -2.7540 -0.3253  0.4079
31645SOL    HW299747  11.201   0.928   7.816  0.6749 -0.6271  2.8234
31646SOL     OW99748   3.716   7.659  12.483 -0.2322 -0.2902 -0.2013
31646SOL    HW199749   3.659   7.611  12.422  0.0351  0.6016 -1.1852
31646SOL    HW299750   3.659   7.723  12.524  0.0858  0.8152 -1.4192
31647SOL     OW99751  12.504  11.836   4.939  0.1222 -0.7512 -0.3320
31647SOL    HW199752  12.499  11.750   4.896  0.7149 -1.3000  0.6848
31647SOL    HW299753  12.459  11.824   5.023  0.1158 -0.0309 -0.2240
31648SOL     OW99754   6.099   2.735   1.018 -0.1005  0.3631  0.1165
31648SOL    HW199755   6.082   2.678   0.943  0.6685  0.5702 -0.2286
31648SOL    HW299756   6.030   2.714   1.081  1.2262 -2.3031  0.7844
31649SOL     OW99757   9.236   3.600   4.443  0.7082  0.0836  0.4359
31649SOL    HW199758   9.191   3.564   4.367  1.7753  0.1198 -0.2333
31649SOL    HW299759   9.249   3.524   4.501  1.1929 -0.2352 -0.0835
31650SOL     OW99760   7.288   3.068   0.543  0.5349 -0.1754 -0.3262
31650SOL    HW199761   7.279   3.015   0.622  0.5002  0.7257  0.2921
31650SOL    HW299762   7.278   3.158   0.574  3.3216  0.4134 -0.9078
31651SOL     OW99763   2.914   7.877  11.068  0.5392 -0.1621 -0.4106
31651SOL    HW199764   2.983   7.863  11.134  0.8700  0.0797 -0.6965
31651SOL    HW299765   2.957   7.857  10.985 -0.3300 -2.0282 -0.4525
31652SOL     OW99766  10.741  12.448   5.369 -0.2515  0.5507 -0.2583
31652SOL    HW199767  10.815  12.508   5.370 -1.8546  2.6713  1.1598
31652SOL    HW299768  10.732  12.422   5.277  1.0602  1.7782 -0.7604
31653SOL     OW99769   8.867   8.134   8.895  0.1105  0.5331  0.3582
31653SOL    HW199770   8.951   8.155   8.934  0.3890 -0.1221  0.1207
31653SOL    HW299771   8.881   8.143   8.801 -0.0601  0.3467  0.3138
31654SOL     OW99772  11.414   7.688   6.101 -0.3846  1.1722 -0.5175
31654SOL    HW199773  11.464   7.703   6.181  0.1496  0.2840 -0.6712
31654SOL    HW299774  11.474   7.715   6.031  1.2390 -2.7756 -0.9181
31655SOL     OW99775   6.288   0.469  11.291 -0.2747  0.4319 -0.2162
31655SOL    HW199776   6.313   0.507  11.207  1.2969 -0.6236 -0.2622
31655SOL    HW299777   6.316   0.378  11.286 -0.7066  0.1941  1.2222
31656SOL     OW99778   9.736   1.572   1.270 -0.2187  1.0379  0.1847
31656SOL    HW199779   9.791   1.545   1.343 -0.6948 -1.2558 -0.2301
31656SOL    HW299780   9.793   1.625   1.214  0.6728  1.2461  1.2680
31657SOL     OW99781   3.074   1.381   3.759 -0.4482  0.0971  0.4846
31657SOL    HW199782   3.007   1.446   3.776  1.0790  1.5594  1.2223
31657SOL    HW299783   3.105   1.354   3.846  0.4195 -0.0040  0.1544
31658SOL     OW99784  11.334  10.361   9.603 -0.0557 -0.1773  0.2336
31658SOL    HW199785  11.303  10.280   9.562 -0.0099  0.0209 -0.2039
31658SOL    HW299786  11.303  10.431   9.544  0.3462  0.0873  0.3291
31659SOL     OW99787  11.907   0.589   5.630  0.6614  0.1782  0.1643
31659SOL    HW199788  11.985   0.547   5.665 -1.1696 -2.4316  1.4050
31659SOL    HW299789  11.905   0.563   5.538  0.7361 -0.5797  0.3748
31660SOL     OW99790  11.409   2.644  11.687 -0.0388 -0.3779  0.4302
31660SOL    HW199791  11.450   2.711  11.633 -0.5205  0.1217  0.6778
31660SOL    HW299792  11.430   2.668  11.777 -1.8644  0.5994  0.6498
31661SOL     OW99793   2.149   0.525  10.010 -0.2980 -0.4383  0.1605
31661SOL    HW199794   2.174   0.499   9.921 -3.7171 -1.8336 -0.5442
31661SOL    HW299795   2.111   0.612   9.999  0.4733 -0.0433  0.5305
31662SOL     OW99796   0.508   8.454   1.020  0.2719 -0.1821 -0.0461
31662SOL    HW199797   0.514   8.460   0.925  0.8837  0.6298  0.0317
31662SOL    HW299798   0.495   8.545   1.049 -1.5486 -0.5751  0.5493
31663SOL     OW99799   4.193   8.927  11.934 -0.1652 -0.2924 -0.0641
31663SOL    HW199800   4.219   8.993  11.870  0.3652  0.9507  1.3576
31663SOL    HW299801   4.255   8.939  12.006 -0.9294 -1.4262  0.8068
31664SOL     OW99802   2.582   8.531   0.715  0.4139  0.9013 -0.1995
31664SOL    HW199803   2.557   8.608   0.663 -0.1860  0.1049 -1.1437
31664SOL    HW299804   2.519   8.530   0.787 -0.3814  0.6262 -0.8698
31665SOL     OW99805   4.372   9.419   5.954  0.0188  0.8409 -0.4191
31665SOL    HW199806   4.391   9.504   5.994 -0.1009  0.3192  0.7824
31665SOL    HW299807   4.339   9.440   5.867  0.2273  2.0145 -0.2237
31666SOL     OW99808  10.353  12.237  10.765  0.0066 -0.4907 -0.3160
31666SOL    HW199809  10.316  12.304  10.707  1.6033 -0.2100 -1.0731
31666SOL    HW299810  10.281  12.212  10.823 -1.2516  0.2149 -1.5346
31667SOL     OW99811   9.428   4.856   8.565  0.0597 -0.2199  0.3720
31667SOL    HW199812   9.369   4.781   8.572 -0.5287 -0.3183 -3.5216
31667SOL    HW299813   9.382   4.918   8.509  2.6302  0.7708 -0.7887
31668SOL     OW99814  11.985   1.321   2.821 -1.0406 -0.5109  0.4841
31668SOL    HW199815  11.935   1.389   2.776  0.6522 -0.3537 -1.2795
31668SOL    HW299816  11.920   1.254   2.842 -2.2230  0.2716 -0.4984
31669SOL     OW99817  10.301   5.075   3.849  0.6955 -0.1295 -0.0809
31669SOL    HW199818  10.386   5.031   3.841  0.8015  0.1205 -0.3320
31669SOL    HW299819  10.273   5.089   3.758  0.6347  0.2748 -0.0005
31670SOL     OW99820   2.546   1.148   9.708  0.3902  0.3104 -0.5482
31670SOL    HW199821   2.510   1.059   9.708 -0.1506  0.5237 -0.4353
31670SOL    HW299822   2.560   1.168   9.801 -0.6497  0.7893 -0.4719
31671SOL     OW99823  11.327   7.125   9.732 -0.1762  0.4430 -0.0323
31671SOL    HW199824  11.324   7.070   9.810  1.0285  2.9057  1.8756
31671SOL    HW299825  11.275   7.202   9.755 -1.3088  0.4764 -2.3845
31672SOL     OW99826   9.417   3.236  10.654  0.3078  0.0999 -0.3268
31672SOL    HW199827   9.394   3.198  10.569  1.1864  0.0430 -0.5434
31672SOL    HW299828   9.501   3.196  10.677  0.1142  0.1718  0.5383
31673SOL     OW99829  10.274   9.623   4.394  0.4567  0.1052 -0.1923
31673SOL    HW199830  10.242   9.709   4.369  0.5215  0.3777  0.6216
31673SOL    HW299831  10.198   9.579   4.433  0.3094 -0.3785 -1.0059
31674SOL     OW99832   2.293   6.202   2.369  0.9173  0.1988  0.3849
31674SOL    HW199833   2.215   6.181   2.421  0.9292 -0.6116  0.0943
31674SOL    HW299834   2.330   6.279   2.412 -0.0089  0.5554  0.5597
31675SOL     OW99835   8.047   2.850  12.448 -0.1383  0.0194 -0.6954
31675SOL    HW199836   8.023   2.843  12.355  2.0648  0.7549 -1.3940
31675SOL    HW299837   8.102   2.929  12.452 -0.9524  0.5456  1.4411
31676SOL     OW99838  12.471  10.993   5.741  0.2775 -0.0732  0.2693
31676SOL    HW199839  12.497  10.917   5.793  0.5214 -0.1922 -0.0249
31676SOL    HW299840  12.459  10.958   5.653 -4.8051 -0.9540  0.9801
31677SOL     OW99841   0.006   6.253   5.888 -0.1081  0.0066 -0.2545
31677SOL    HW199842  -0.039   6.294   5.815 -3.0040 -3.1323 -0.4720
31677SOL    HW299843  -0.008   6.314   5.961  0.7654  2.0373 -1.6853
31678SOL     OW99844  12.585  11.443   5.040  0.6939  0.6261  0.0473
31678SOL    HW199845  12.532  11.504   5.092 -0.5902  0.1265 -0.6231
31678SOL    HW299846  12.588  11.484   4.953  2.9648  1.5454  0.5029
31679SOL     OW99847   5.467   3.716   0.310  0.2077 -0.1023  0.1598
31679SOL    HW199848   5.462   3.699   0.404 -0.9965 -0.6133  0.0187
31679SOL    HW299849   5.558   3.698   0.288  0.0670 -1.9351  0.8779
31680SOL     OW99850   5.152   3.638   8.281 -0.1411  0.5515 -0.7522
31680SOL    HW199851   5.216   3.567   8.271 -1.4287 -1.0304  1.2565
31680SOL    HW299852   5.146   3.678   8.194  0.9286 -1.5597 -1.8792
31681SOL     OW99853   4.335   8.905   5.227 -0.1299 -0.5394  0.5059
31681SOL    HW199854   4.245   8.872   5.233 -0.3543 -1.4596 -4.0266
31681SOL    HW299855   4.325   9.000   5.218 -0.6063 -0.5622  0.7737
31682SOL     OW99856   6.033   9.984  11.161 -0.0238 -0.3015 -0.2123
31682SOL    HW199857   6.028  10.078  11.144 -0.5647 -0.2303  0.3489
31682SOL    HW299858   6.034   9.945  11.073  2.5980  0.3161 -0.5692
31683SOL     OW99859   0.284   1.544   2.227 -0.3745  0.5863  0.5724
31683SOL    HW199860   0.260   1.495   2.305 -0.9472 -0.7232 -0.3825
31683SOL    HW299861   0.272   1.482   2.155  0.1871  1.7308 -0.5566
31684SOL     OW99862   0.800   0.499  12.169 -0.1691 -0.3643 -1.1289
31684SOL    HW199863   0.780   0.579  12.120 -0.1111  0.2899 -0.1174
31684SOL    HW299864   0.726   0.489  12.229 -0.4681 -1.4120 -1.6493
31685SOL     OW99865  12.581   0.423   5.439  0.4527 -0.3724 -0.2313
31685SOL    HW199866  12.654   0.481   5.458 -0.5499  1.2552 -1.0916
31685SOL    HW299867  12.515   0.444   5.505  0.5918 -1.5701  0.3211
31686SOL     OW99868  11.216   0.388  10.516  0.1856 -0.3213 -0.0123
31686SOL    HW199869  11.253   0.473  10.491  1.0897 -0.3552  1.1477
31686SOL    HW299870  11.161   0.363  10.442  0.1052  1.1584 -0.4795
31687SOL     OW99871   7.946   4.586   6.271  0.4889 -0.5880  0.0637
31687SOL    HW199872   7.999   4.518   6.313 -1.2852 -0.5995  2.4366
31687SOL    HW299873   7.890   4.538   6.210 -0.3591 -1.2329  1.3120
31688SOL     OW99874   0.477   5.075   5.582  0.1270  0.2393  0.7491
31688SOL    HW199875   0.508   5.115   5.663 -0.4294  0.1314  1.0157
31688SOL    HW299876   0.463   4.983   5.604 -0.4344  0.2955  0.6466
31689SOL     OW99877   7.357   8.357   6.018 -0.5721  0.3600  0.2159
31689SOL    HW199878   7.408   8.406   5.953 -0.5006  1.9748  1.4349
31689SOL    HW299879   7.379   8.398   6.102 -1.0108 -1.3793  1.2200
31690SOL     OW99880   1.662  10.873  10.974  0.2534 -0.0205  0.6896
31690SOL    HW199881   1.608  10.898  11.049 -0.6063 -1.0521  0.4298
31690SOL    HW299882   1.735  10.824  11.012  2.2675  3.1243  1.2688
31691SOL     OW99883   7.595  10.528  11.165 -0.9030  0.0041  0.4510
31691SOL    HW199884   7.632  10.518  11.253 -0.4426 -0.9839  0.1588
31691SOL    HW299885   7.664  10.496  11.107 -1.5733 -0.2526 -0.2127
31692SOL     OW99886   0.698   4.020   9.237 -0.1062 -0.3250  0.7273
31692SOL    HW199887   0.713   3.942   9.290  0.3643 -0.5571  0.2696
31692SOL    HW299888   0.785   4.043   9.203 -0.4085 -0.2516 -0.0236
31693SOL     OW99889  11.435   9.855   2.579  0.2539  0.0834  0.1046
31693SOL    HW199890  11.414   9.772   2.621 -0.5311 -0.1066 -0.6259
31693SOL    HW299891  11.432   9.919   2.649 -0.9440 -0.2407  0.3713
31694SOL     OW99892  10.574   9.417   2.491  0.0682 -0.2159 -0.7294
31694SOL    HW199893  10.638   9.464   2.545 -0.1326 -0.5112 -0.2307
31694SOL    HW299894  10.490   9.438   2.530 -0.1329  0.0741 -1.3134
31695SOL     OW99895   5.018   0.595   2.278 -0.2962  0.2381 -0.0246
31695SOL    HW199896   4.960   0.625   2.208 -0.3169  1.8811  0.6742
31695SOL    HW299897   4.975   0.622   2.359 -0.6380 -2.2717  0.7328
31696SOL     OW99898   6.541   0.530  11.553 -1.0942 -0.6195 -0.6175
31696SOL    HW199899   6.538   0.435  11.548 -0.9549 -0.6800  0.2865
31696SOL    HW299900   6.557   0.558  11.463  1.8319 -1.5755 -0.4980
31697SOL     OW99901   4.886   3.825   7.922 -0.0931  0.1766 -0.3136
31697SOL    HW199902   4.918   3.831   8.012 -0.8921  0.5417 -0.0518
31697SOL    HW299903   4.792   3.811   7.930  0.0022 -1.1069 -1.0805
31698SOL     OW99904   5.620  10.284   4.223 -0.0969  0.0460 -0.3798
31698SOL    HW199905   5.613  10.310   4.314 -0.3154  0.0591 -0.4005
31698SOL    HW299906   5.554  10.336   4.177  0.5265  0.5979 -0.6662
31699SOL     OW99907   6.261   3.131   9.607  0.0778 -0.4661 -0.2061
31699SOL    HW199908   6.304   3.137   9.693  1.1393 -0.5038 -0.7226
31699SOL    HW299909   6.323   3.169   9.546 -0.2123 -1.3902 -1.1136
31700SOL     OW99910   9.989   2.391   7.778  0.1438 -0.6462  0.4396
31700SOL    HW199911   9.964   2.470   7.731  2.3176 -0.8534 -1.2146
31700SOL    HW299912  10.085   2.392   7.777  0.2714 -1.7969  3.0324
31701SOL     OW99913   0.385   5.701   6.385 -0.0697  0.8345 -0.4216
31701SOL    HW199914   0.434   5.779   6.359 -0.4489  0.2565 -3.1895
31701SOL    HW299915   0.406   5.689   6.477  3.1356  1.9445 -0.8907
31702SOL     OW99916   6.784   6.762   3.871 -0.1497 -0.4645  0.1172
31702SOL    HW199917   6.858   6.822   3.863  0.7432 -1.3737  1.1244
31702SOL    HW299918   6.811   6.700   3.940 -0.6133 -2.6135 -1.5255
31703SOL     OW99919   1.358   0.433   2.276  0.5198  0.1319 -0.4657
31703SOL    HW199920   1.309   0.513   2.295 -0.9696 -1.1313  1.4728
31703SOL    HW299921   1.423   0.428   2.347 -0.0460 -0.8217  0.0096
31704SOL     OW99922  12.332  11.975   9.958 -0.2561 -0.3800  0.1186
31704SOL    HW199923  12.415  11.994   9.914  1.0589 -0.9760  2.1999
31704SOL    HW299924  12.265  12.015   9.902  1.4772  0.7244 -1.2591
31705SOL     OW99925  10.643   2.411  11.993  0.1357  0.4045  0.5333
31705SOL    HW199926  10.666   2.423  12.085  1.7444 -0.7964  0.3537
31705SOL    HW299927  10.704   2.343  11.963 -0.9856  0.1000 -1.1755
31706SOL     OW99928  10.604   1.492  12.480 -0.2403  0.0759 -0.5824
31706SOL    HW199929  10.528   1.529  12.527  0.9773 -1.3305  2.8487
31706SOL    HW299930  10.585   1.399  12.474  1.4653 -0.4296  1.0404
31707SOL     OW99931   6.675   2.808  10.364  0.0076 -0.2086 -0.0800
31707SOL    HW199932   6.712   2.839  10.281 -0.6311 -0.7897 -0.5872
31707SOL    HW299933   6.743   2.753  10.401  0.0861 -0.3862 -0.4803
31708SOL     OW99934   6.415  11.303   7.365 -0.2474 -0.2713 -0.2652
31708SOL    HW199935   6.371  11.387   7.354 -0.9714 -0.8099 -1.8000
31708SOL    HW299936   6.495  11.323   7.413 -2.0070  0.7851  2.4615
31709SOL     OW99937   2.551   2.165   2.643  0.4502 -0.0502 -0.1943
31709SOL    HW199938   2.569   2.126   2.558  0.3130  0.3960 -0.4321
31709SOL    HW299939   2.628   2.145   2.696  0.9434  0.4534 -0.7074
31710SOL     OW99940   3.585   6.702   5.934  0.5575 -0.0924  0.0280
31710SOL    HW199941   3.626   6.616   5.926 -0.1685 -0.3275 -1.5308
31710SOL    HW299942   3.601   6.745   5.850  0.5584  1.1466  0.6328
31711SOL     OW99943   2.755   8.776   7.675 -0.4754 -0.3478 -0.3265
31711SOL    HW199944   2.704   8.824   7.740 -0.3692 -0.6042 -0.0566
31711SOL    HW299945   2.689   8.733   7.620 -0.6094  0.8212 -1.1336
31712SOL     OW99946   3.066   6.359   0.215 -0.6482  0.1007 -0.3577
31712SOL    HW199947   3.116   6.297   0.163 -0.4752  0.4034 -0.5550
31712SOL    HW299948   2.978   6.321   0.222 -0.4224 -0.3786 -0.1013
31713SOL     OW99949   7.544   2.782   9.590  0.4101  0.3373  0.5836
31713SOL    HW199950   7.456   2.748   9.602 -0.0693  1.4240  0.3464
31713SOL    HW299951   7.593   2.710   9.551  0.2987 -1.0803  2.9451
31714SOL     OW99952   8.758   0.827   5.487 -0.2710  0.2542  0.3446
31714SOL    HW199953   8.798   0.779   5.414 -2.6216  0.1256 -0.9767
31714SOL    HW299954   8.813   0.906   5.496 -0.6136  0.9624 -2.5240
31715SOL     OW99955   3.887   4.919   1.428 -0.0071 -0.3814  0.2779
31715SOL    HW199956   3.844   4.999   1.399  0.3041  0.3084  1.6135
31715SOL    HW299957   3.877   4.920   1.523 -0.4298 -2.2040  0.2793
31716SOL     OW99958   7.533   7.856   3.146 -0.5695  0.2201 -0.6148
31716SOL    HW199959   7.568   7.932   3.193 -0.2061  0.3107 -1.0193
31716SOL    HW299960   7.510   7.793   3.214  0.7972 -0.0151 -0.3377
31717SOL     OW99961  11.565   7.713   3.464 -0.1948 -0.8642  0.8403
31717SOL    HW199962  11.577   7.792   3.516  0.6550 -0.3988 -0.0379
31717SOL    HW299963  11.590   7.642   3.523  1.0895 -0.3240  0.9680
31718SOL     OW99964   7.716   4.561  10.924  0.2153  0.4748 -0.0168
31718SOL    HW199965   7.695   4.624  10.855  0.3650  0.0097 -0.4970
31718SOL    HW299966   7.639   4.504  10.927  1.7428 -2.0105 -2.6435
31719SOL     OW99967   7.745   2.806   3.529 -0.4502 -0.0567  0.1065
31719SOL    HW199968   7.734   2.741   3.598  1.1335 -2.0703 -1.4165
31719SOL    HW299969   7.740   2.755   3.447  4.0273  1.0670 -1.1353
31720SOL     OW99970  12.353   1.575  11.660  0.7701  0.2466  0.2060
31720SOL    HW199971  12.414   1.506  11.686  1.3091  0.2387 -0.9996
31720SOL    HW299972  12.311   1.541  11.580  0.1704  0.8168  0.2719
31721SOL     OW99973  10.863   8.545   7.699 -0.4003 -0.5330 -0.2706
31721SOL    HW199974  10.821   8.629   7.719  0.1037  0.0851 -1.6824
31721SOL    HW299975  10.956   8.567   7.690 -0.1000 -1.4545  0.4183
31722SOL     OW99976   4.166   7.660   3.702  0.3745  0.6811  0.6023
31722SOL    HW199977   4.139   7.574   3.671 -2.0815  0.8792  1.9412
31722SOL    HW299978   4.150   7.719   3.629  0.9967  0.1824  0.0587
31723SOL     OW99979   6.603   5.466   8.346 -0.0863 -0.2878 -0.0785
31723SOL    HW199980   6.528   5.526   8.346  0.8986  0.9861 -0.6373
31723SOL    HW299981   6.667   5.508   8.403  1.3283  0.1300 -1.9005
31724SOL     OW99982  12.502   1.047   0.192  0.0648  0.3001  0.3616
31724SOL    HW199983  12.429   1.089   0.146  0.1489 -0.3707 -0.4066
31724SOL    HW299984  12.490   1.072   0.284  0.3788  2.3759 -0.1132
31725SOL     OW99985  12.214   4.078   5.203  0.2379  0.0248 -0.3709
31725SOL    HW199986  12.206   3.985   5.181 -1.0152  0.1834 -0.7099
31725SOL    HW299987  12.241   4.120   5.121  0.0927  0.0418 -0.4113
31726SOL     OW99988   7.546   0.373   5.489 -0.2023  0.3280  0.3483
31726SOL    HW199989   7.462   0.418   5.498 -0.6489 -0.4065 -0.0997
31726SOL    HW299990   7.593   0.395   5.569 -1.0116  0.3558  0.8280
31727SOL     OW99991   7.489   6.114  10.193 -0.6545 -0.6541  0.0967
31727SOL    HW199992   7.438   6.085  10.268 -0.7091 -0.3867  0.1668
31727SOL    HW299993   7.566   6.058  10.192  1.0845  1.4709  2.3983
31728SOL     OW99994   0.490   6.264  12.594 -0.3263 -0.5345  0.1654
31728SOL    HW199995   0.501   6.265  12.499 -0.3744  0.2944  0.1566
31728SOL    HW299996   0.540   6.340  12.624 -1.0936 -0.2299  0.6996
31729SOL     OW99997   2.393   8.777   2.820 -0.2117  0.3063 -0.0736
31729SOL    HW199998   2.419   8.708   2.881 -1.1018 -0.8654 -0.9744
31729SOL    HW299999   2.297   8.782   2.829  0.0092  3.2889  1.8938
31730SOL     OW    0   4.671   6.308   7.015  0.7470 -0.4742 -0.3034
31730SOL    HW1    1   4.762   6.337   7.024  0.4604  0.0104  1.5023
31730SOL    HW2    2   4.648   6.276   7.103 -1.4913  1.4124 -0.1180
31731SOL     OW    3   4.153   1.701   1.991  0.1179  0.6575  0.3028
31731SOL    HW1    4   4.072   1.694   1.940 -0.2805 -0.7845  1.0683
31731SOL    HW2    5   4.180   1.792   1.981 -0.6188  0.7204 -1.4410
31732SOL     OW    6  12.295  10.071  11.367  0.7373  0.9986  0.5705
31732SOL    HW1    7  12.310   9.979  11.347 -0.0876  1.0558 -0.4040
31732SOL    HW2    8  12.364  10.094  11.429  1.1889 -0.1677  0.5231
31733SOL     OW    9   7.048  12.502   8.750  0.2931  1.0369  0.0734
31733SOL    HW1   10   6.955  12.484   8.732  0.7338 -0.2292 -1.0664
31733SOL    HW2   11   7.048  12.590   8.789 -1.2701  1.6061 -1.0990
31734SOL     OW   12   8.955  12.191  11.251  0.3859  0.3400 -0.4041
31734SOL    HW1   13   9.042  12.174  11.288 -0.0212 -0.3451  0.2547
31734SOL    HW2   14   8.952  12.138  11.171 -0.4026 -1.7993  0.9736
31735SOL     OW   15   1.837  11.923   9.735  0.2140 -0.5021  0.2203
31735SOL    HW1   16   1.819  11.960   9.821 -0.9103  0.4532 -0.3911
31735SOL    HW2   17   1.898  11.985   9.694 -0.6716  0.0216 -0.3300
31736SOL     OW   18   0.234   1.598   2.668 -0.1336  1.0266  0.2621
31736SOL    HW1   19   0.157   1.632   2.621 -0.1722  3.4175  1.8706
31736SOL    HW2   20   0.199   1.564   2.750 -0.1669 -3.8079 -1.4403
31737SOL     OW   21   6.618   0.078   2.100  0.1817 -0.7482 -0.2490
31737SOL    HW1   22   6.710   0.082   2.073  0.3343 -0.2083  0.3232
31737SOL    HW2   23   6.571   0.124   2.030  0.4790 -0.0612 -0.0064
31738SOL     OW   24   6.769  10.471   0.661 -0.1944  0.0040 -0.3311
31738SOL    HW1   25   6.830  10.514   0.601 -0.7514 -0.2502 -1.1100
31738SOL    HW2   26   6.802  10.381   0.668 -0.6038 -0.2024 -0.9506
31739SOL     OW   27  10.596   9.097   8.914  0.2193  0.1761 -0.3705
31739SOL    HW1   28  10.518   9.042   8.918  1.1447 -1.1196  0.6202
31739SOL    HW2   29  10.650   9.057   8.846  0.8450 -0.0928  0.2704
31740SOL     OW   30   4.359   2.166   4.994  0.2721 -0.6092  0.2583
31740SOL    HW1   31   4.335   2.098   4.931  0.3728 -0.4625  0.0585
31740SOL    HW2   32   4.276   2.196   5.031  0.1165  0.1400 -0.6773
31741SOL     OW   33   2.497  11.723   3.953 -0.2944  0.5093  1.0195
31741SOL    HW1   34   2.466  11.699   3.866  3.1829  0.2858 -0.2904
31741SOL    HW2   35   2.507  11.639   3.999  0.6322  0.3686  0.5800
31742SOL     OW   36   6.451   5.460   2.828  0.2518 -0.3548  0.6286
31742SOL    HW1   37   6.442   5.407   2.749  1.4159  0.8179 -0.3151
31742SOL    HW2   38   6.506   5.407   2.886  1.4960 -0.1536 -0.3469
31743SOL     OW   39   7.621   6.547   8.248 -0.5022  0.1468  0.7795
31743SOL    HW1   40   7.572   6.603   8.308 -1.0635  0.9901 -0.4144
31743SOL    HW2   41   7.693   6.602   8.217  0.8802 -0.8804  2.0415
31744SOL     OW   42   7.765   6.980   2.890  0.3473 -0.5688  0.0817
31744SOL    HW1   43   7.680   6.972   2.847 -0.0353  0.2564  0.6681
31744SOL    HW2   44   7.814   7.041   2.834  0.7979 -1.5323 -0.6048
31745SOL     OW   45   7.715   9.352   3.913  0.1137 -0.4745  0.0690
31745SOL    HW1   46   7.787   9.292   3.930 -0.8549 -1.3153  1.3400
31745SOL    HW2   47   7.740   9.397   3.832  0.7059 -2.8550 -1.1514
31746SOL     OW   48   3.751   0.541  11.021 -0.5302 -0.0338 -0.5098
31746SOL    HW1   49   3.834   0.583  11.044 -0.5641 -0.2148 -0.0272
31746SOL    HW2   50   3.733   0.569  10.932  0.8525 -1.2341 -1.2121
31747SOL     OW   51   3.418  10.262   6.753  0.0141 -0.5552 -0.3214
31747SOL    HW1   52   3.389  10.314   6.828  0.8871 -1.1204  0.4216
31747SOL    HW2   53   3.358  10.287   6.683  0.2659  1.2964  0.0599
31748SOL     OW   54   2.605  11.245   5.838 -1.2260 -0.3524 -0.3795
31748SOL    HW1   55   2.636  11.307   5.904 -1.5584 -0.1446 -0.4161
31748SOL    HW2   56   2.654  11.268   5.759 -1.8542  0.3248 -0.5798
31749SOL     OW   57   3.438   6.083  12.586 -0.2871  0.1178 -0.2803
31749SOL    HW1   58   3.490   6.021  12.636 -0.7957  0.5005  0.7521
31749SOL    HW2   59   3.353   6.041  12.575  0.0622 -0.3165 -1.5806
31750SOL     OW   60   4.281   2.172  10.000 -0.3144  0.0865 -0.1032
31750SOL    HW1   61   4.238   2.222   9.931  0.7637  1.0916 -0.0547
31750SOL    HW2   62   4.208   2.139  10.053 -1.2256 -1.3959 -2.1217
31751SOL     OW   63   0.811  11.026   6.780  0.4631 -0.0093  0.0722
31751SOL    HW1   64   0.837  10.994   6.694  0.3805 -2.0499  0.7543
31751SOL    HW2   65   0.715  11.021   6.779  0.5280 -2.5647  1.1283
31752SOL     OW   66   2.721   5.465   7.747  0.4811  0.2982 -0.2317
31752SOL    HW1   67   2.661   5.470   7.821  2.2373  1.5425  1.2074
31752SOL    HW2   68   2.679   5.405   7.686 -1.3370 -0.2840  1.4827
31753SOL     OW   69   4.383   9.510   9.023 -0.0782 -0.1081 -0.0595
31753SOL    HW1   70   4.431   9.536   9.101  0.4244 -0.0534 -0.3830
31753SOL    HW2   71   4.307   9.569   9.021  0.7808  1.0233 -0.5146
31754SOL     OW   72   3.228   8.489   3.614 -0.3103 -0.2233  0.1656
31754SOL    HW1   73   3.250   8.554   3.680  0.9616  0.2124 -0.6512
31754SOL    HW2   74   3.180   8.538   3.547 -0.7427 -0.4634  0.2938
31755SOL     OW   75   9.899  10.887   5.103 -0.3339 -0.3672 -0.1729
31755SOL    HW1   76   9.828  10.910   5.163  0.1027  0.2629  0.1221
31755SOL    HW2   77   9.855  10.860   5.022 -0.9043  0.1539 -0.0468
31756SOL     OW   78   0.233   4.097   8.415 -0.0742  0.3797 -0.1899
31756SOL    HW1   79   0.305   4.150   8.379  1.3319 -2.6366 -2.2286
31756SOL    HW2   80   0.168   4.095   8.345 -0.7668  0.5419  0.4422
31757SOL     OW   81   9.425   3.379   8.774 -0.2011 -0.1663 -0.2415
31757SOL    HW1   82   9.454   3.469   8.759 -1.0340  0.2155  0.3509
31757SOL    HW2   83   9.484   3.346   8.842 -0.3186  0.1650  0.0250
31758SOL     OW   84  12.296  10.817   0.121 -0.0127 -0.2958 -0.5256
31758SOL    HW1   85  12.316  10.747   0.183  1.8877  0.3360 -0.3683
31758SOL    HW2   86  12.291  10.773   0.036  0.1316 -0.7578 -0.2990
31759SOL     OW   87   1.532   1.505   9.799  0.1184 -0.1288 -0.1764
31759SOL    HW1   88   1.599   1.568   9.774  0.7235 -0.4175  0.6535
31759SOL    HW2   89   1.521   1.518   9.893 -0.7432 -0.3212 -0.2413
31760SOL     OW   90   2.434   1.894   9.710 -0.0516  0.2485 -0.6562
31760SOL    HW1   91   2.386   1.907   9.792  0.2957 -0.1663 -0.3842
31760SOL    HW2   92   2.508   1.955   9.717  0.5795 -0.5643 -0.1772
31761SOL     OW   93   4.251   9.784   2.216 -0.2447 -0.6058  0.3638
31761SOL    HW1   94   4.266   9.696   2.252 -1.4669 -0.6389  0.8381
31761SOL    HW2   95   4.233   9.769   2.123 -1.7446 -1.0046  0.7017
31762SOL     OW   96   7.138   5.170   5.021 -0.2954 -0.2906  0.1282
31762SOL    HW1   97   7.145   5.080   5.053 -1.6629  0.0586  1.5471
31762SOL    HW2   98   7.049   5.175   4.985  0.2948  0.0913 -1.3506
31763SOL     OW   99   0.525   6.171   8.499 -0.4257 -0.3468  1.0470
31763SOL    HW1  100   0.587   6.109   8.462  0.3829  0.9053  0.2290
31763SOL    HW2  101   0.525   6.152   8.593 -2.1076 -3.2269  0.5773
31764SOL     OW  102   1.445  11.826   9.965 -0.2723  0.1155  0.0444
31764SOL    HW1  103   1.444  11.776  10.047 -1.3401 -0.9428 -0.5766
31764SOL    HW2  104   1.356  11.818   9.931  0.2751  0.1269 -1.4566
31765SOL     OW  105   0.017   0.789   4.868 -0.2770 -0.2958  0.4811
31765SOL    HW1  106   0.044   0.770   4.958  2.3719 -0.5327 -0.2822
31765SOL    HW2  107   0.020   0.705   4.823  0.1977  0.0837 -0.2236
31766SOL     OW  108  11.349   3.190  10.692 -0.3139  0.3927 -0.4467
31766SOL    HW1  109  11.342   3.277  10.730 -1.1649  0.7893 -1.4437
31766SOL    HW2  110  11.274   3.185  10.632  0.2979 -0.6492 -1.1418
31767SOL     OW  111   2.878   1.944   9.838 -0.0137 -0.3005 -0.3310
31767SOL    HW1  112   2.914   1.863   9.803 -0.7240 -1.0205  0.5641
31767SOL    HW2  113   2.950   1.984   9.886 -0.2504 -1.5457  1.1454
31768SOL     OW  114   6.503   8.121   0.853 -0.1230  0.3416  0.6549
31768SOL    HW1  115   6.590   8.120   0.815  0.1402  1.0545  1.2186
31768SOL    HW2  116   6.514   8.083   0.940 -0.0093  2.0437  1.4318
31769SOL     OW  117  12.625   5.436   1.750 -0.1329 -0.2266 -0.1692
31769SOL    HW1  118  12.567   5.399   1.817 -0.2226 -1.2485 -0.7897
31769SOL    HW2  119  12.703   5.462   1.799 -0.2171 -0.9056  0.3496
31770SOL     OW  120  11.361   7.547   6.702  0.5883 -0.3962  0.0635
31770SOL    HW1  121  11.328   7.607   6.769 -1.0677 -1.7034  0.4775
31770SOL    HW2  122  11.383   7.467   6.751  0.3879 -0.9929 -0.8054
31771SOL     OW  123   5.554   8.151  12.333  0.3538  0.4661  0.1705
31771SOL    HW1  124   5.617   8.132  12.264 -1.0054  1.7382 -1.4969
31771SOL    HW2  125   5.605   8.199  12.399  1.8859 -1.6006  0.5894
31772SOL     OW  126  12.367   5.745   9.005  0.9528 -0.4051  0.4568
31772SOL    HW1  127  12.402   5.784   8.925  0.5973  0.2866  0.6391
31772SOL    HW2  128  12.272   5.743   8.993  0.8326  0.4360  1.1857
31773SOL     OW  129   4.460   8.601   9.633 -0.1882  0.2841 -0.9585
31773SOL    HW1  130   4.479   8.675   9.690 -0.5942 -0.3005 -0.0421
31773SOL    HW2  131   4.414   8.539   9.689  0.6626 -0.9225 -1.5589
31774SOL     OW  132   6.208   2.795   6.831  0.6523 -0.1045 -0.0480
31774SOL    HW1  133   6.184   2.847   6.907  3.4943  1.7533 -0.2253
31774SOL    HW2  134   6.178   2.847   6.756 -0.1146 -0.7819 -0.2155
31775SOL     OW  135   2.816   3.527   5.670  0.5129  0.2483 -0.0416
31775SOL    HW1  136   2.832   3.531   5.764 -0.6337 -0.5686  0.2136
31775SOL    HW2  137   2.801   3.617   5.643 -0.6438  0.3455  0.8584
31776SOL     OW  138   2.791   0.275   6.353  0.4417  0.1659 -0.1039
31776SOL    HW1  139   2.811   0.205   6.291  1.3353  0.8109 -0.5528
31776SOL    HW2  140   2.702   0.303   6.329 -0.0599 -1.0206  0.2965
31777SOL     OW  141   4.867   2.575   9.566  0.1446  0.0708  0.0022
31777SOL    HW1  142   4.930   2.638   9.530 -0.5904  1.2025  0.6455
31777SOL    HW2  143   4.790   2.627   9.587 -1.9001 -1.5927 -2.7384
31778SOL     OW  144   3.400   1.775   2.891 -0.0368 -0.2879 -0.3544
31778SOL    HW1  145   3.309   1.800   2.903  0.1651 -0.0154  0.7287
31778SOL    HW2  146   3.439   1.784   2.978  1.1070 -0.0502 -0.8710
31779SOL     OW  147   2.402   3.932   7.292 -0.2301 -0.7492 -0.2198
31779SOL    HW1  148   2.320   3.911   7.248  0.2242  0.8033 -1.9506
31779SOL    HW2  149   2.466   3.871   7.254  0.4568  1.4610 -2.9745
31780SOL     OW  150  10.016   3.968   7.462  0.4727 -0.7187 -0.5812
31780SOL    HW1  151   9.988   4.047   7.415  1.0013 -1.3898 -2.0685
31780SOL    HW2  152  10.092   3.997   7.513 -0.3492  0.1095  0.2182
31781SOL     OW  153   8.256   8.104   4.768  0.6214 -0.1663 -0.3964
31781SOL    HW1  154   8.168   8.136   4.746  0.6007  1.0210  1.2368
31781SOL    HW2  155   8.306   8.184   4.786  1.9934 -0.8370 -1.0973
31782SOL     OW  156   7.865   6.246   2.822 -0.2537 -0.0748 -0.2910
31782SOL    HW1  157   7.933   6.240   2.890  0.2485 -0.1364 -0.7858
31782SOL    HW2  158   7.908   6.291   2.749 -0.3564 -1.1886 -1.0761
31783SOL     OW  159   5.993   6.631   8.940 -0.3387  0.0131  0.0943
31783SOL    HW1  160   6.020   6.566   8.875  1.3499  0.6957  0.0618
31783SOL    HW2  161   5.910   6.598   8.975 -1.1636 -0.4916 -2.2161
31784SOL     OW  162  11.163   1.154   1.007  0.0161  0.5467  0.2191
31784SOL    HW1  163  11.240   1.194   1.049 -1.4560  3.1327  0.6475
31784SOL    HW2  164  11.089   1.202   1.043 -1.8112 -1.5574 -0.5479
31785SOL     OW  165   0.804   1.809   1.822 -0.4558  0.4199 -0.5013
31785SOL    HW1  166   0.843   1.848   1.900 -1.1532 -1.1726  0.7218
31785SOL    HW2  167   0.844   1.854   1.749  2.4269  0.0270  0.7106
31786SOL     OW  168   4.524   2.797   4.683  0.3905 -0.1644  0.3410
31786SOL    HW1  169   4.472   2.866   4.724  1.9208  0.9675  0.4731
31786SOL    HW2  170   4.469   2.719   4.686 -0.3370  0.3878  2.6588
31787SOL     OW  171   6.395   5.742   7.033  0.4415 -0.2884  0.8308
31787SOL    HW1  172   6.325   5.677   7.024  0.5260 -0.2160 -0.5381
31787SOL    HW2  173   6.350   5.820   7.065  0.2278 -0.7986  1.8296
31788SOL     OW  174  11.237   1.543  11.259  0.2398  0.5117 -0.2943
31788SOL    HW1  175  11.164   1.600  11.236 -0.0593 -0.0937 -0.8725
31788SOL    HW2  176  11.303   1.558  11.192  1.4310  2.3859  1.1956
31789SOL     OW  177   4.192   1.794   9.997 -0.0131  0.2771 -0.2394
31789SOL    HW1  178   4.288   1.792   9.993  0.0470  2.0951 -0.6519
31789SOL    HW2  179   4.170   1.749  10.079  1.4105  2.6323  1.5714
31790SOL     OW  180   3.173   0.706   6.096 -0.0410  0.3140  0.5093
31790SOL    HW1  181   3.130   0.623   6.076  0.7383 -0.3044  1.3189
31790SOL    HW2  182   3.199   0.698   6.188  3.6009 -0.2021 -0.4230
31791SOL     OW  183   0.420   5.151   8.075 -0.0186  0.8800 -0.0952
31791SOL    HW1  184   0.408   5.058   8.092 -0.7814  0.8419 -0.7996
31791SOL    HW2  185   0.331   5.184   8.060  0.4523  1.1232 -2.8100
31792SOL     OW  186   3.133  10.468   4.241  0.1893 -0.2316  0.2707
31792SOL    HW1  187   3.201  10.473   4.308 -0.5555  0.2932  0.9996
31792SOL    HW2  188   3.125  10.374   4.222  0.4669 -0.3738  0.8445
31793SOL     OW  189   9.862   4.491   3.595 -0.3823 -0.0593 -0.0721
31793SOL    HW1  190   9.807   4.509   3.519 -2.1170  1.8277  1.5016
31793SOL    HW2  191   9.906   4.574   3.612  1.3803 -0.9615 -0.0294
31794SOL     OW  192   9.488   2.323   2.508 -0.1386  0.4353  0.0110
31794SOL    HW1  193   9.565   2.372   2.536  0.0987  0.1802 -0.1927
31794SOL    HW2  194   9.493   2.323   2.412 -0.0520 -0.1125  0.0117
31795SOL     OW  195  11.764   7.214   2.135  0.3683  0.4251  0.0756
31795SOL    HW1  196  11.680   7.211   2.090  0.4551 -0.6773 -0.0536
31795SOL    HW2  197  11.828   7.192   2.067  0.4547 -1.7515  0.7678
31796SOL     OW  198  11.288  10.494   9.312  0.2502 -0.3760 -0.1050
31796SOL    HW1  199  11.211  10.445   9.341  0.8197 -0.3526  1.5490
31796SOL    HW2  200  11.313  10.453   9.229 -0.0028 -2.1180  0.6331
31797SOL     OW  201  10.449   5.671  12.604 -0.0712 -0.6617 -0.1134
31797SOL    HW1  202  10.494   5.684  12.521  0.5931 -1.2946  0.1348
31797SOL    HW2  203  10.520   5.662  12.668 -0.5688  0.0165  0.5591
31798SOL     OW  204   7.361   8.813   1.457  0.3364 -0.5552 -0.1179
31798SOL    HW1  205   7.330   8.889   1.408 -2.8880 -1.0671  0.8803
31798SOL    HW2  206   7.366   8.743   1.391  0.3113 -0.2051 -0.4934
31799SOL     OW  207  10.408  11.849   1.802  0.1650  0.1171 -0.2148
31799SOL    HW1  208  10.361  11.806   1.731 -2.0127  0.5981  0.8635
31799SOL    HW2  209  10.498  11.857   1.770 -0.4302 -0.9590 -2.3058
31800SOL     OW  210   2.554   1.654   2.383 -0.0118 -0.2530  0.2925
31800SOL    HW1  211   2.536   1.745   2.361  0.3248 -0.1625  0.3905
31800SOL    HW2  212   2.555   1.651   2.478  2.5769  0.1864  0.3542
31801SOL     OW  213  12.001   2.298   2.070  0.2619  0.6434  0.2525
31801SOL    HW1  214  12.030   2.361   2.004  0.1722 -0.0359 -0.4506
31801SOL    HW2  215  11.952   2.232   2.021 -0.6789  0.6533  1.1346
31802SOL     OW  216   8.370   4.985   8.029 -0.6124  0.3750 -0.1613
31802SOL    HW1  217   8.353   4.918   8.096  2.4526 -1.1922 -0.7852
31802SOL    HW2  218   8.366   5.068   8.077 -1.5138 -0.4540  1.2824
31803SOL     OW  219  11.785   2.686   9.123  0.0156 -0.8319 -0.1450
31803SOL    HW1  220  11.856   2.740   9.087 -0.7302 -1.4947 -2.8578
31803SOL    HW2  221  11.739   2.745   9.184  0.2484  1.0894 -1.7089
31804SOL     OW  222   1.749   1.631   1.002  0.4083 -0.2263  0.5368
31804SOL    HW1  223   1.687   1.595   1.065 -0.4777  1.0083  0.3909
31804SOL    HW2  224   1.723   1.723   0.991  0.3629 -0.4467 -1.8058
31805SOL     OW  225  10.358   1.407   8.604  0.1560  0.1345  0.4250
31805SOL    HW1  226  10.426   1.376   8.545 -0.1013 -0.9461  0.6865
31805SOL    HW2  227  10.278   1.366   8.573 -0.2043  0.5789  0.7498
31806SOL     OW  228   1.036   4.690  10.021 -0.3684 -0.4640  0.3549
31806SOL    HW1  229   0.970   4.759  10.013 -0.5762 -0.4159  2.0733
31806SOL    HW2  230   0.988   4.609  10.009 -0.3997 -0.3761 -0.1519
31807SOL     OW  231   1.548  10.149   3.253  0.4355  0.0457 -0.0494
31807SOL    HW1  232   1.472  10.161   3.195  0.1488 -2.6954 -0.3534
31807SOL    HW2  233   1.588  10.236   3.257 -0.6386  0.7780 -2.7965
31808SOL     OW  234  11.082   1.599   8.094  0.2177  0.4712 -0.0075
31808SOL    HW1  235  11.046   1.563   8.176  0.7423 -1.1051 -0.4408
31808SOL    HW2  236  11.133   1.527   8.057 -0.7489  0.8568 -2.1947
31809SOL     OW  237  11.355  12.113   8.474 -0.3951  0.4413  0.4714
31809SOL    HW1  238  11.313  12.188   8.432 -1.5558 -0.2949  0.2800
31809SOL    HW2  239  11.283  12.053   8.493  0.7803 -2.0983 -2.3291
31810SOL     OW  240   9.775   4.600   5.894  0.0591 -0.2422  0.4303
31810SOL    HW1  241   9.800   4.682   5.937 -0.0609  0.2119 -0.3422
31810SOL    HW2  242   9.780   4.619   5.800 -1.7414 -0.5545  0.2282
31811SOL     OW  243   7.794   1.567  10.193 -0.4141  0.0284  0.1852
31811SOL    HW1  244   7.747   1.612  10.123 -0.8922 -1.9386 -0.8550
31811SOL    HW2  245   7.773   1.616  10.272  0.4430  2.5511 -1.0387
31812SOL     OW  246   1.990   9.318   4.053 -0.2823  0.5189  0.5151
31812SOL    HW1  247   1.938   9.298   3.975 -0.0002 -1.5740  0.7911
31812SOL    HW2  248   2.066   9.365   4.020  0.4853 -1.4761 -0.7121
31813SOL     OW  249   0.699   6.710   8.157 -0.3333 -0.3163 -0.1773
31813SOL    HW1  250   0.619   6.673   8.119  0.6631 -0.4804 -2.2510
31813SOL    HW2  251   0.671   6.796   8.191 -1.2052  0.1060 -1.8419
31814SOL     OW  252   7.983  12.585   4.530 -0.3897 -0.2212  0.1959
31814SOL    HW1  253   7.986  12.493   4.556 -1.5234 -0.7495 -1.3448
31814SOL    HW2  254   7.961  12.632   4.610  0.3626 -1.2689  1.0436
31815SOL     OW  255   9.421   2.481   9.847 -0.0897  0.6687  0.1555
31815SOL    HW1  256   9.373   2.428   9.911  0.0333 -0.4756 -0.6766
31815SOL    HW2  257   9.385   2.454   9.763  0.4665  1.4177 -0.3252
31816SOL     OW  258   2.223   7.862   2.037  0.4970 -0.4693 -0.6000
31816SOL    HW1  259   2.301   7.850   1.982  0.2197 -1.9842 -0.7056
31816SOL    HW2  260   2.206   7.775   2.074  0.7044  0.4827  1.9532
31817SOL     OW  261   3.867   2.978   2.256 -0.2144  0.0905 -0.4136
31817SOL    HW1  262   3.861   2.892   2.298  1.2246 -1.4133 -3.0082
31817SOL    HW2  263   3.941   3.021   2.300 -1.8743  0.7479  1.9419
31818SOL     OW  264   1.443   3.647   1.479 -0.4815 -0.5066  0.5355
31818SOL    HW1  265   1.482   3.587   1.416 -0.1787 -0.2869  0.5130
31818SOL    HW2  266   1.410   3.590   1.549 -0.7176 -0.7397  0.2348
31819SOL     OW  267  11.982  10.144   0.516  0.5339 -0.5017 -0.4638
31819SOL    HW1  268  11.960  10.201   0.442  0.3827 -0.0089 -0.0469
31819SOL    HW2  269  12.042  10.197   0.569 -0.0772 -0.5015  0.2372
31820SOL     OW  270   4.989   4.792   9.818 -0.5533  0.1975 -0.1383
31820SOL    HW1  271   5.047   4.747   9.757  0.8394  1.1608  0.4277
31820SOL    HW2  272   4.930   4.843   9.762 -0.5670 -0.4283 -0.7056
31821SOL     OW  273   2.030  10.521  10.327 -0.5436  0.2148 -0.1737
31821SOL    HW1  274   1.985  10.558  10.403  1.7088  0.5187  1.0690
31821SOL    HW2  275   2.100  10.583  10.308 -0.0429 -0.7097 -1.4735
31822SOL     OW  276   4.698  11.778   1.117 -0.1936  0.3082  0.0875
31822SOL    HW1  277   4.645  11.847   1.156 -0.8791 -0.3990  0.4394
31822SOL    HW2  278   4.705  11.802   1.025 -0.9013  0.5550  0.0932
31823SOL     OW  279   0.113   8.645   4.239  0.1937  0.3550 -0.8136
31823SOL    HW1  280   0.158   8.728   4.258 -0.2877  0.6213 -0.8183
31823SOL    HW2  281   0.183   8.581   4.230  0.5641  0.7367 -0.6678
31824SOL     OW  282  10.732   1.363   5.312  0.3712 -0.4720  0.1891
31824SOL    HW1  283  10.691   1.393   5.231  0.0092  0.6511  0.7674
31824SOL    HW2  284  10.673   1.296   5.345  0.6993 -1.1920 -0.6410
31825SOL     OW  285  12.549   1.989   5.624 -0.5101 -0.4890  0.4965
31825SOL    HW1  286  12.551   1.984   5.528  1.4745 -1.7252  0.5398
31825SOL    HW2  287  12.548   2.083   5.643  0.9369 -0.1694 -0.7880
31826SOL     OW  288   2.944  10.668   6.484 -0.8061 -0.2940 -0.1778
31826SOL    HW1  289   2.864  10.721   6.479 -0.9468 -0.5001 -0.1076
31826SOL    HW2  290   3.010  10.729   6.515 -1.0326 -0.2262  0.1800
31827SOL     OW  291   0.826  12.621   7.012  0.3130 -0.4250  0.0641
31827SOL    HW1  292   0.879  12.650   7.086  1.5154 -2.6525  0.1787
31827SOL    HW2  293   0.889  12.584   6.950 -0.7869  0.2384 -1.5239
31828SOL     OW  294  10.221   8.872   5.450  0.1468  0.1085 -0.0748
31828SOL    HW1  295  10.277   8.822   5.390 -1.5036 -1.3650 -0.4858
31828SOL    HW2  296  10.281   8.904   5.517  1.4815 -1.5174 -0.4125
31829SOL     OW  297   0.628   7.769   5.097 -0.2781 -0.3515  0.0935
31829SOL    HW1  298   0.636   7.743   5.006 -0.0235 -0.4471  0.1424
31829SOL    HW2  299   0.577   7.699   5.138 -0.6912 -0.1383 -0.0476
31830SOL     OW  300   7.964   2.068   4.110 -0.3642 -0.0268  0.4742
31830SOL    HW1  301   7.999   1.985   4.144 -0.3343  1.0474  3.2839
31830SOL    HW2  302   8.038   2.106   4.062 -0.0524 -1.1156  0.0440
31831SOL     OW  303   2.317  11.255  10.916 -0.3716  0.8728 -0.1547
31831SOL    HW1  304   2.222  11.246  10.905 -0.0186 -0.0147 -3.5865
31831SOL    HW2  305   2.332  11.349  10.920 -1.4492  1.0124  1.8298
31832SOL     OW  306   7.209   8.729   4.281  0.6499 -0.2667 -0.4646
31832SOL    HW1  307   7.193   8.822   4.297  1.7450  0.0684 -1.2265
31832SOL    HW2  308   7.204   8.720   4.186  0.7577 -0.9474 -0.4096
31833SOL     OW  309   9.166   1.051  10.788  0.5621  0.0359  0.0486
31833SOL    HW1  310   9.245   1.001  10.808 -0.2420 -0.5572  1.9922
31833SOL    HW2  311   9.154   1.042  10.694  0.0313 -4.1792  0.3473
31834SOL     OW  312   1.598   1.425   2.310 -0.1160 -0.3263  0.3217
31834SOL    HW1  313   1.629   1.362   2.375  1.4575 -1.8947 -1.8293
31834SOL    HW2  314   1.581   1.373   2.232  0.3859  1.7980 -1.2930
31835SOL     OW  315  12.400   1.867  12.240  0.0008  0.7989  0.1610
31835SOL    HW1  316  12.476   1.814  12.262  0.8374  1.5853 -0.7622
31835SOL    HW2  317  12.409   1.946  12.292 -1.0287  0.2595  1.2223
31836SOL     OW  318   1.873   5.254  11.410  0.1517 -0.1370  0.2604
31836SOL    HW1  319   1.967   5.270  11.403  0.8192 -3.1765  0.8334
31836SOL    HW2  320   1.848   5.219  11.324 -0.8580  2.0660 -0.4096
31837SOL     OW  321   8.248   4.112  11.516  1.0321  0.0926 -0.4866
31837SOL    HW1  322   8.323   4.056  11.536 -0.3040 -1.2029  1.2325
31837SOL    HW2  323   8.175   4.051  11.505 -0.6592  1.4162  2.2648
31838SOL     OW  324   1.203   7.285   7.516  0.0441 -0.1995 -0.2668
31838SOL    HW1  325   1.187   7.298   7.609  0.2870  0.0739 -0.2624
31838SOL    HW2  326   1.191   7.191   7.502 -0.6996 -0.1354 -0.0990
31839SOL     OW  327   8.393  12.175   7.230 -0.2391 -0.0672 -0.0026
31839SOL    HW1  328   8.407  12.232   7.154 -0.4847  1.0071  0.7433
31839SOL    HW2  329   8.443  12.096   7.210 -2.5815 -1.0450 -2.5999
31840SOL     OW  330   6.907   0.024   3.295  0.0840 -0.3051  0.0009
31840SOL    HW1  331   6.899   0.007   3.389 -0.5329  0.2163  0.0465
31840SOL    HW2  332   7.002   0.023   3.278  0.2538  0.7055  0.8361
31841SOL     OW  333   4.858  12.530   0.607  0.5685  0.2399 -0.2667
31841SOL    HW1  334   4.852  12.540   0.512  0.2904  1.2676 -0.1593
31841SOL    HW2  335   4.846  12.619   0.641  1.4430  0.0133  0.6949
31842SOL     OW  336   1.794   5.167  11.661  0.0795  0.1327 -0.0592
31842SOL    HW1  337   1.747   5.241  11.700 -1.7489  0.1103 -1.9948
31842SOL    HW2  338   1.819   5.198  11.574 -0.7457 -1.4863 -0.9222
31843SOL     OW  339   1.885  12.224   0.073 -0.4005 -0.0893  0.3706
31843SOL    HW1  340   1.880  12.279  -0.006 -0.6246 -1.3574 -0.5316
31843SOL    HW2  341   1.966  12.252   0.116 -0.0524  0.3459 -0.5308
31844SOL     OW  342   8.148   0.909   3.303 -0.0212 -0.2660  0.7813
31844SOL    HW1  343   8.112   0.963   3.233  0.8099 -0.2190  0.3776
31844SOL    HW2  344   8.236   0.887   3.273 -0.2017 -1.5190  1.1119
31845SOL     OW  345   7.764   3.096  11.236  0.2818 -0.5917 -0.6721
31845SOL    HW1  346   7.837   3.106  11.175  1.1047  0.8413  0.4862
31845SOL    HW2  347   7.699   3.160  11.206 -0.4181 -1.6675 -1.5310
31846SOL     OW  348   8.272   2.287   9.728 -0.1514  0.3136  0.0512
31846SOL    HW1  349   8.348   2.230   9.719  0.4667  1.3045 -1.4794
31846SOL    HW2  350   8.205   2.233   9.769  1.3419 -0.6059  1.3878
31847SOL     OW  351   8.405   6.556   4.052 -0.2307  0.0216 -0.0113
31847SOL    HW1  352   8.451   6.519   3.976  1.9950  2.2189  0.1356
31847SOL    HW2  353   8.465   6.543   4.125 -2.0268 -1.3816  1.3157
31848SOL     OW  354   8.116  11.973   9.838  0.1420  0.4454 -0.2239
31848SOL    HW1  355   8.056  12.022   9.894  0.6679  3.4736 -2.0695
31848SOL    HW2  356   8.060  11.931   9.773 -0.2039 -0.0041  0.3593
31849SOL     OW  357  10.867  12.525   1.368  0.1138 -0.0217 -0.8559
31849SOL    HW1  358  10.874  12.549   1.275 -0.6261 -0.9755 -1.1785
31849SOL    HW2  359  10.778  12.490   1.376  1.6006 -4.3853 -0.8760
31850SOL     OW  360  11.714  12.215  11.716 -0.0021 -0.2666 -0.1425
31850SOL    HW1  361  11.630  12.206  11.671 -1.2438 -0.2812  2.0052
31850SOL    HW2  362  11.701  12.289  11.776  0.2852 -2.2544  2.5971
31851SOL     OW  363   0.080  12.233   0.458  0.5043  0.1568  0.4711
31851SOL    HW1  364  -0.001  12.264   0.418  1.4763  0.2001 -1.6304
31851SOL    HW2  365   0.137  12.310   0.459  1.0855 -0.2622  0.3388
31852SOL     OW  366   8.877  10.517   8.418 -0.0237  0.0349 -0.5297
31852SOL    HW1  367   8.837  10.439   8.456 -0.0931  0.4863  0.3525
31852SOL    HW2  368   8.898  10.572   8.493 -0.4923  1.1204 -1.1715
31853SOL     OW  369   1.660   5.053  12.124 -0.0522  0.1301  0.3321
31853SOL    HW1  370   1.654   5.148  12.131  0.3676  0.3711 -1.8189
31853SOL    HW2  371   1.699   5.025  12.207  0.4555  1.9012  0.7382
31854SOL     OW  372   5.174   3.221  11.807  0.1538  0.2143  0.3924
31854SOL    HW1  373   5.154   3.289  11.742  0.2667 -1.4517 -1.4703
31854SOL    HW2  374   5.255   3.182  11.777 -0.6785 -1.7425  0.5445
31855SOL     OW  375  11.900  10.513  10.018  0.2685  0.0376 -0.3431
31855SOL    HW1  376  11.822  10.506  10.073  1.0067  0.4744  0.8003
31855SOL    HW2  377  11.972  10.523  10.080  1.2172 -0.1504 -1.3835
31856SOL     OW  378   2.496   0.419  12.044  0.0333  0.3690 -0.4463
31856SOL    HW1  379   2.438   0.481  12.088  0.3476  1.8859 -2.0803
31856SOL    HW2  380   2.583   0.458  12.052  0.5985 -1.0255  0.4769
31857SOL     OW  381   0.698  10.690   9.219  0.3229  0.2947 -0.6666
31857SOL    HW1  382   0.622  10.677   9.276 -0.2314 -0.1675 -1.4953
31857SOL    HW2  383   0.750  10.757   9.264 -1.4674  1.9528 -0.9410
31858SOL     OW  384   7.933   0.980   4.138 -0.1859 -0.2312  0.0782
31858SOL    HW1  385   7.942   0.890   4.108 -0.4158 -0.8180  1.7178
31858SOL    HW2  386   7.875   0.976   4.213  0.8466  1.1068  1.0079
31859SOL     OW  387   7.809  11.807   5.701  0.3198  0.5547  0.0532
31859SOL    HW1  388   7.827  11.837   5.612  0.4336  0.9544  0.2063
31859SOL    HW2  389   7.850  11.721   5.707 -0.3133  0.1977 -0.5129
31860SOL     OW  390   7.451   8.518   7.154  0.4245 -0.3025  0.0407
31860SOL    HW1  391   7.381   8.568   7.194  0.0888 -1.1215  0.5127
31860SOL    HW2  392   7.471   8.564   7.073 -0.7164 -0.1036 -0.1404
31861SOL     OW  393   9.920   8.887   5.525 -0.0434  0.0570 -0.1233
31861SOL    HW1  394   9.997   8.836   5.501  0.8291  1.9464 -1.5881
31861SOL    HW2  395   9.942   8.977   5.501 -2.8410  0.6183 -0.9835
31862SOL     OW  396   2.006   7.905   8.051  0.3919 -0.3678 -0.3256
31862SOL    HW1  397   2.081   7.947   8.008  0.6577 -1.3363 -0.8644
31862SOL    HW2  398   1.975   7.969   8.114  1.3062  0.2912 -0.5185
31863SOL     OW  399   1.533  11.673   4.736  0.1267 -0.0080 -0.4279
31863SOL    HW1  400   1.623  11.690   4.710  0.0202 -0.6956 -1.2857
31863SOL    HW2  401   1.481  11.732   4.681  0.1647  3.3045  2.6820
31864SOL     OW  402   2.192   1.917   9.908  0.2148 -0.6168 -0.1716
31864SOL    HW1  403   2.268   1.894   9.961  0.1772  2.0731  1.1951
31864SOL    HW2  404   2.144   1.981   9.960 -1.3274  0.1086 -2.3163
31865SOL     OW  405   5.011  12.490  10.606 -0.4542  0.6684  0.6086
31865SOL    HW1  406   4.946  12.430  10.570 -1.3537  2.0362 -0.1575
31865SOL    HW2  407   5.060  12.522  10.530 -1.0579  2.0802  0.7757
31866SOL     OW  408  11.965   8.715   8.770 -0.2158  0.5655 -0.2418
31866SOL    HW1  409  11.946   8.624   8.745 -1.1558  0.4595  0.7713
31866SOL    HW2  410  12.058   8.715   8.793 -0.4496 -0.4279  0.8150
31867SOL     OW  411   9.678   8.791   0.454  0.2170  0.0598  0.3550
31867SOL    HW1  412   9.631   8.792   0.371 -0.1986 -0.2894  0.5841
31867SOL    HW2  413   9.656   8.706   0.493  1.0518 -0.1284  0.4544
31868SOL     OW  414   1.408   2.465   4.558 -0.1795  0.0945 -0.2868
31868SOL    HW1  415   1.490   2.500   4.594 -0.2779 -1.3715  1.5249
31868SOL    HW2  416   1.340   2.508   4.609 -0.5725  1.0264 -1.5413
31869SOL     OW  417  11.085  12.046   6.379 -0.4581 -0.0314 -0.0794
31869SOL    HW1  418  11.177  12.018   6.378  0.0233  1.4539  0.0667
31869SOL    HW2  419  11.062  12.057   6.287 -0.6251 -0.7944 -0.1343
31870SOL     OW  420   8.987   9.529  10.414  0.5974  0.3442  0.1144
31870SOL    HW1  421   8.907   9.477  10.417  1.0510 -0.3252  0.8410
31870SOL    HW2  422   8.983   9.586  10.491  1.0514 -0.0571  0.4447
31871SOL     OW  423   9.826  10.299  11.431  0.1437  0.1232 -0.3823
31871SOL    HW1  424   9.870  10.383  11.426 -0.4064  0.6803  2.3144
31871SOL    HW2  425   9.895  10.236  11.452  0.4269  0.0144 -1.5782
31872SOL     OW  426  11.445   2.451   7.823 -0.3186  0.3100 -0.1036
31872SOL    HW1  427  11.448   2.539   7.786 -1.7437  0.2434 -0.4311
31872SOL    HW2  428  11.461   2.463   7.916  2.8511  0.5382 -0.5597
31873SOL     OW  429   3.868  12.341   0.755 -0.9505  0.2534 -0.8375
31873SOL    HW1  430   3.825  12.331   0.840 -1.0533  0.5109 -0.8566
31873SOL    HW2  431   3.808  12.396   0.704 -1.0446 -0.1735 -1.1909
31874SOL     OW  432   4.189   6.157  12.146  0.3553  0.2972 -0.3269
31874SOL    HW1  433   4.241   6.079  12.128  0.9985  1.1038 -2.1541
31874SOL    HW2  434   4.240   6.206  12.210  0.9839  0.2502 -0.7904
31875SOL     OW  435   9.865   8.425  11.935  0.1581  0.0451  0.0535
31875SOL    HW1  436   9.843   8.467  12.018  1.0334  1.6289 -0.4689
31875SOL    HW2  437   9.958   8.404  11.943  0.4821  1.0611 -0.8454
31876SOL     OW  438   3.419   8.776   1.110  0.4181  0.5067 -0.0699
31876SOL    HW1  439   3.509   8.793   1.139  0.0174  3.0945 -0.1385
31876SOL    HW2  440   3.384   8.862   1.088 -1.7609 -0.5592 -1.0634
31877SOL     OW  441   6.652   7.385   0.954 -0.1663  0.3131  0.5288
31877SOL    HW1  442   6.735   7.425   0.928 -0.2357  1.1496  1.5059
31877SOL    HW2  443   6.588   7.456   0.945 -0.5372  0.0468  1.0024
31878SOL     OW  444   1.858  10.399   5.064  0.0856  0.0319 -0.0786
31878SOL    HW1  445   1.882  10.366   4.977 -0.4412  1.3091 -0.7414
31878SOL    HW2  446   1.875  10.493   5.059 -0.3887  0.1943  1.0589
31879SOL     OW  447   2.790   1.886  11.022 -0.2914 -0.0688  0.1397
31879SOL    HW1  448   2.855   1.946  10.984  0.4267 -0.8367  0.1447
31879SOL    HW2  449   2.803   1.895  11.117 -1.0631  0.7197  0.1832
31880SOL     OW  450   9.975   5.213   9.356 -0.5329 -0.3660 -0.2143
31880SOL    HW1  451  10.050   5.268   9.336  0.4597 -2.5382 -3.4056
31880SOL    HW2  452   9.926   5.209   9.273 -3.1053 -0.6254  1.2143
31881SOL     OW  453   6.296  11.410   4.807  0.0996  0.4590 -0.0970
31881SOL    HW1  454   6.303  11.317   4.830  0.8524  0.5062 -0.1256
31881SOL    HW2  455   6.381  11.431   4.769 -0.2102  1.0616 -0.4567
31882SOL     OW  456  12.589   4.035  12.352 -0.3216 -0.6688 -0.0534
31882SOL    HW1  457  12.517   4.096  12.336  0.3547 -0.1104 -1.0892
31882SOL    HW2  458  12.578   4.008  12.443 -1.8863 -0.6744 -0.2141
31883SOL     OW  459   2.948   1.648   3.249  0.1393 -1.0720 -0.0244
31883SOL    HW1  460   2.871   1.626   3.303  1.6864 -0.0421  2.8187
31883SOL    HW2  461   3.003   1.570   3.254  0.1580 -1.0826 -0.4034
31884SOL     OW  462   9.910   6.445   5.401  0.3248  0.0011  0.1807
31884SOL    HW1  463   9.939   6.400   5.321 -0.5794 -1.6061  0.7156
31884SOL    HW2  464   9.819   6.467   5.384 -0.2183 -1.3780  1.1680
31885SOL     OW  465   6.187   9.692   5.604  0.0094  0.3716 -0.1026
31885SOL    HW1  466   6.249   9.735   5.663 -0.5962 -0.5402  1.2627
31885SOL    HW2  467   6.240   9.668   5.528  1.1236  0.4526  0.6112
31886SOL     OW  468   3.474   7.054   3.784 -0.3864  0.1797 -0.6236
31886SOL    HW1  469   3.474   7.095   3.697  1.7859  0.0512 -0.7221
31886SOL    HW2  470   3.523   6.973   3.772 -0.8388 -0.2816  0.5475
31887SOL     OW  471   6.033   6.324   3.500 -0.1941  0.0127 -0.1907
31887SOL    HW1  472   5.973   6.304   3.572 -1.3673 -0.0152 -1.1355
31887SOL    HW2  473   6.109   6.268   3.515 -0.5961 -0.2813  0.7970
31888SOL     OW  474   2.398   8.697  11.930  0.4054  0.0959  0.0730
31888SOL    HW1  475   2.410   8.791  11.936  0.2061  0.1598 -0.4510
31888SOL    HW2  476   2.394   8.679  11.836  2.1329 -0.6501  0.1031
31889SOL     OW  477   1.360   5.589  12.115 -0.6080 -0.0812  0.1549
31889SOL    HW1  478   1.277   5.613  12.156 -0.3703 -2.3884  2.1364
31889SOL    HW2  479   1.411   5.670  12.116 -2.2013  0.9646  0.4257
31890SOL     OW  480   3.468  10.568   5.110  0.0006  0.2829  0.2498
31890SOL    HW1  481   3.526  10.614   5.170 -0.5353  2.2311 -0.6356
31890SOL    HW2  482   3.432  10.637   5.054 -2.5888 -0.9158  0.2657
31891SOL     OW  483  11.439   1.863  12.086 -0.6039 -0.1149  0.2257
31891SOL    HW1  484  11.406   1.806  12.155  2.0972 -1.2684  0.6870
31891SOL    HW2  485  11.483   1.804  12.025 -0.8603  1.1353 -1.2411
31892SOL     OW  486   3.204  10.053   1.207  0.0275 -0.2729 -0.2969
31892SOL    HW1  487   3.227   9.992   1.136  0.9329 -1.1261  0.6900
31892SOL    HW2  488   3.259  10.025   1.281 -0.5530  0.8904  0.6000
31893SOL     OW  489  12.344  11.583   5.098 -0.1873  0.3073 -0.6151
31893SOL    HW1  490  12.390  11.603   5.016  0.8238 -2.5596 -0.8322
31893SOL    HW2  491  12.251  11.580   5.073 -0.2195  2.3096 -0.9729
31894SOL     OW  492   8.736   8.543   0.142 -0.0923 -0.1433  0.1011
31894SOL    HW1  493   8.678   8.612   0.110 -0.7417 -1.3632 -1.5276
31894SOL    HW2  494   8.819   8.586   0.158 -1.2238  1.5312  1.8270
31895SOL     OW  495   7.176   9.004   9.524  0.0428 -0.5775  0.1876
31895SOL    HW1  496   7.201   9.023   9.615  0.2698  1.5241 -0.2782
31895SOL    HW2  497   7.106   9.067   9.505  0.7101 -0.2812 -1.4157
31896SOL     OW  498   3.786  12.267   9.440  0.5817  0.7075 -0.5276
31896SOL    HW1  499   3.771  12.355   9.406  1.0953  0.5801 -1.1040
31896SOL    HW2  500   3.874  12.269   9.477 -0.1186  0.9561  1.2268
31897SOL     OW  501   5.913   4.207  10.421  0.4538 -0.3265 -0.4437
31897SOL    HW1  502   5.921   4.134  10.360  2.6018 -0.8043  0.3333
31897SOL    HW2  503   5.922   4.285  10.366  0.5820 -0.6944 -0.9534
31898SOL     OW  504   0.402   9.248   0.839  0.3074  0.1930 -0.2516
31898SOL    HW1  505   0.424   9.340   0.850 -0.1075  0.3013 -0.3474
31898SOL    HW2  506   0.310   9.247   0.814  0.4621 -0.2167 -0.8149
31899SOL     OW  507   5.951   5.928   3.942  0.2766 -0.8217  0.3440
31899SOL    HW1  508   5.920   5.848   3.984  0.0318 -1.2904 -0.6806
31899SOL    HW2  509   5.906   5.999   3.987 -1.6647 -1.4267 -0.5119
31900SOL     OW  510   0.410   3.079  10.755  0.0094  0.1872  0.4405
31900SOL    HW1  511   0.328   3.061  10.708  0.1571  0.8007 -0.0795
31900SOL    HW2  512   0.433   2.996  10.796  0.0426 -0.4752 -0.8502
31901SOL     OW  513   7.405  12.586   0.825  0.0549 -0.3732  0.6870
31901SOL    HW1  514   7.423  12.501   0.866 -1.4579 -1.4131 -0.6779
31901SOL    HW2  515   7.479  12.601   0.767  0.6428 -0.4541  1.4105
31902SOL     OW  516   8.975   6.067   5.148 -0.0688 -0.5013 -0.6698
31902SOL    HW1  517   9.060   6.086   5.109 -0.6129  1.9651 -0.7858
31902SOL    HW2  518   8.973   6.119   5.229 -1.0546 -1.3520 -0.1203
31903SOL     OW  519   0.380   4.011   0.336 -0.3755  0.5273 -0.1502
31903SOL    HW1  520   0.400   4.084   0.278 -0.5412  0.3908 -0.3868
31903SOL    HW2  521   0.452   3.949   0.321 -0.1977  0.6728  0.1032
31904SOL     OW  522   4.617   3.093   0.661 -0.0082  0.5665  0.5419
31904SOL    HW1  523   4.612   3.064   0.752  0.8783 -1.0858  0.1134
31904SOL    HW2  524   4.529   3.077   0.626  0.1801 -0.7218  0.6010
31905SOL     OW  525   9.778   0.988  12.188  0.6368 -0.1928  0.4039
31905SOL    HW1  526   9.796   1.081  12.194  0.9130 -0.1980 -0.3354
31905SOL    HW2  527   9.685   0.983  12.164  0.2030 -0.1407  1.9545
31906SOL     OW  528   7.624   1.199   5.773 -0.1418 -0.0952  0.0937
31906SOL    HW1  529   7.675   1.172   5.696  4.0916  1.0633  2.2196
31906SOL    HW2  530   7.637   1.294   5.778  0.7247 -0.2952  2.8403
31907SOL     OW  531   6.971   9.234   8.416  0.4188 -0.9449 -0.3108
31907SOL    HW1  532   6.977   9.145   8.381 -1.0617 -1.2150  0.0417
31907SOL    HW2  533   6.974   9.223   8.511  0.0193 -0.6532 -0.2592
31908SOL     OW  534   8.381   5.002   4.433 -0.6595  0.2956 -0.1980
31908SOL    HW1  535   8.368   4.941   4.505  0.7767 -0.4926 -0.5534
31908SOL    HW2  536   8.449   5.062   4.465 -1.1656  0.9468 -0.3181
31909SOL     OW  537   8.330   9.786   7.649  0.0498 -0.2269  0.5433
31909SOL    HW1  538   8.334   9.881   7.639 -0.5944 -0.0559  1.7633
31909SOL    HW2  539   8.282   9.772   7.730 -1.7946 -1.6394 -0.6950
31910SOL     OW  540   9.854   8.300   6.345  0.1267 -0.3231  0.2173
31910SOL    HW1  541   9.925   8.236   6.346  0.3755 -0.0573  1.4375
31910SOL    HW2  542   9.891   8.378   6.386 -1.3001 -0.7373  2.5213
31911SOL     OW  543   6.101   5.980   7.354 -0.0425  0.1060 -0.4498
31911SOL    HW1  544   6.119   6.035   7.279  2.1654  1.2525  0.8349
31911SOL    HW2  545   6.114   5.890   7.323  1.4608  0.5967 -1.2879
31912SOL     OW  546   4.047   5.031   7.762 -0.1771 -0.2336 -0.3068
31912SOL    HW1  547   4.045   5.104   7.699 -1.7430 -1.2688 -1.5511
31912SOL    HW2  548   4.127   4.982   7.739  2.2565  2.2445  2.0867
31913SOL     OW  549   9.427   6.063   1.342 -0.5655 -0.0130 -0.3249
31913SOL    HW1  550   9.509   6.099   1.375  0.2173 -1.1589 -0.9516
31913SOL    HW2  551   9.376   6.043   1.420  0.8875 -1.8542  0.2271
31914SOL     OW  552   7.459   1.860   4.097  0.2221  0.2970 -0.9127
31914SOL    HW1  553   7.457   1.888   4.006  1.3514 -0.1772 -1.1056
31914SOL    HW2  554   7.552   1.847   4.116  0.1011  1.2968  0.5969
31915SOL     OW  555   8.657   6.308   2.611  0.1748 -0.2533  0.2327
31915SOL    HW1  556   8.698   6.248   2.549 -0.8527 -1.4641  0.6692
31915SOL    HW2  557   8.689   6.395   2.586 -0.2670 -0.6839 -2.0549
31916SOL     OW  558  11.086   4.303   6.913 -0.0341  0.3173 -0.3872
31916SOL    HW1  559  11.141   4.239   6.958  0.4514 -0.8607 -2.4987
31916SOL    HW2  560  11.024   4.332   6.979  0.8039 -1.0767  1.0932
31917SOL     OW  561  10.089   1.540   6.805 -0.4131 -0.2643  0.6648
31917SOL    HW1  562  10.100   1.446   6.789  1.9484 -0.3460  2.2472
31917SOL    HW2  563   9.994   1.552   6.814 -1.0146 -1.9485 -2.2814
31918SOL     OW  564   8.919   3.046  11.690 -0.1375  0.3272  0.3049
31918SOL    HW1  565   8.880   2.961  11.711 -1.2357  0.9602  0.9035
31918SOL    HW2  566   9.013   3.035  11.707 -0.3638 -0.5661  1.0128
31919SOL     OW  567   7.730   7.378   8.826  0.1719 -0.9423  0.1420
31919SOL    HW1  568   7.765   7.397   8.913 -1.4545  0.9084  0.4629
31919SOL    HW2  569   7.795   7.414   8.766  0.9044 -1.4805  0.5939
31920SOL     OW  570   9.778   5.578  11.414 -0.0240 -0.3806 -0.3154
31920SOL    HW1  571   9.697   5.622  11.438 -1.0782 -1.9270 -0.8704
31920SOL    HW2  572   9.831   5.580  11.494 -1.0470 -0.2866  0.3771
31921SOL     OW  573   2.680   6.991   2.225  0.1557 -0.6232 -0.0656
31921SOL    HW1  574   2.631   6.986   2.143 -0.4427 -0.3435  0.2715
31921SOL    HW2  575   2.615   7.014   2.291  0.9792  1.1506  0.1718
31922SOL     OW  576   9.649  11.131   0.491 -0.1228  0.3619  0.8054
31922SOL    HW1  577   9.575  11.162   0.439  0.5172  0.0201 -0.3269
31922SOL    HW2  578   9.713  11.100   0.427  0.9712  0.5670  1.7608
31923SOL     OW  579   0.117   0.528   9.314 -0.0512  0.6846 -0.4583
31923SOL    HW1  580   0.103   0.529   9.408 -0.6562  0.9017 -0.5460
31923SOL    HW2  581   0.203   0.569   9.302  0.0660  0.5782  0.0006
31924SOL     OW  582   5.653   6.023  10.627 -0.3370 -0.0137  0.2982
31924SOL    HW1  583   5.600   5.991  10.554  1.3679 -0.6106 -0.7355
31924SOL    HW2  584   5.646   6.119  10.621  0.9842  0.0324 -1.6630
31925SOL     OW  585   5.133   5.563   1.834 -0.0261 -0.4642 -0.0144
31925SOL    HW1  586   5.111   5.484   1.785  1.8592 -3.1769  3.1053
31925SOL    HW2  587   5.053   5.587   1.879 -0.6935 -0.3564 -1.2126
31926SOL     OW  588   0.903  12.027   3.779 -0.2932 -0.0338 -0.2770
31926SOL    HW1  589   0.937  11.982   3.702 -1.3709  0.0039 -0.7880
31926SOL    HW2  590   0.957  12.106   3.787  0.6208 -0.6446 -0.2572
31927SOL     OW  591   8.445  12.252   1.201  0.0842  0.0308  0.0782
31927SOL    HW1  592   8.398  12.170   1.191  0.3957 -0.2642  0.8920
31927SOL    HW2  593   8.421  12.282   1.289 -0.5872  1.1768 -0.4740
31928SOL     OW  594   6.877   0.032  10.068  0.4113 -0.3231 -0.2124
31928SOL    HW1  595   6.789   0.027  10.032 -0.4384  3.7903  0.8091
31928SOL    HW2  596   6.935   0.015   9.994 -1.1667 -1.9942 -1.1323
31929SOL     OW  597   9.136   9.270  12.424  0.0538  0.2426 -0.1209
31929SOL    HW1  598   9.135   9.179  12.452  2.6142  0.0475 -0.4435
31929SOL    HW2  599   9.227   9.287  12.400 -0.7644  2.2604 -2.1670
31930SOL     OW  600   5.446  11.185   4.610 -0.4874  0.3430  0.0612
31930SOL    HW1  601   5.418  11.097   4.584  0.2089  0.1418 -0.0253
31930SOL    HW2  602   5.422  11.240   4.536  1.1804 -0.1746 -0.9333
31931SOL     OW  603   9.364   0.281   5.289 -0.4822 -0.1546  0.2967
31931SOL    HW1  604   9.309   0.203   5.283  0.9183 -1.1423 -0.4195
31931SOL    HW2  605   9.395   0.282   5.380 -1.0532 -0.0421  0.4893
31932SOL     OW  606  10.561   6.617  11.818 -0.3274 -0.5274 -0.0287
31932SOL    HW1  607  10.654   6.612  11.839 -0.6639  0.0974  1.7556
31932SOL    HW2  608  10.557   6.597  11.724  1.9411  2.5185 -0.9209
31933SOL     OW  609   2.487   3.166   3.976 -0.0976  0.3413  0.4027
31933SOL    HW1  610   2.477   3.214   3.894 -2.7117  1.2220  1.1472
31933SOL    HW2  611   2.454   3.079   3.957  2.3970 -0.5384 -0.2905
31934SOL     OW  612  10.133   5.982   3.301  0.8848 -0.0113  0.5248
31934SOL    HW1  613  10.077   6.058   3.286  0.4653 -0.7976 -2.8568
31934SOL    HW2  614  10.075   5.918   3.342 -1.0622 -0.9437 -3.2345
31935SOL     OW  615  11.828  11.698   8.944 -0.0259 -0.1625 -0.0677
31935SOL    HW1  616  11.869  11.634   9.003 -0.2812 -0.7391 -0.5046
31935SOL    HW2  617  11.873  11.780   8.964  0.6439 -0.5734  0.1754
31936SOL     OW  618  10.161  10.061   5.381 -0.0973 -0.0628  0.2470
31936SOL    HW1  619  10.110  10.096   5.454 -0.9106  0.5786 -0.6072
31936SOL    HW2  620  10.134  10.112   5.305  0.1211 -1.2471 -0.6708
31937SOL     OW  621   9.692  11.164   4.268 -0.4943 -0.0382  0.1514
31937SOL    HW1  622   9.684  11.233   4.203 -1.1423 -0.9901 -0.8129
31937SOL    HW2  623   9.766  11.111   4.239 -0.0904  0.1550  0.8018
31938SOL     OW  624   5.897   0.403   9.615  0.0188 -0.0047  0.1177
31938SOL    HW1  625   5.845   0.326   9.593 -0.5218  1.0699 -2.8200
31938SOL    HW2  626   5.879   0.465   9.545  1.4253  2.3491  1.6817
31939SOL     OW  627  11.063   7.972   3.923  0.3768 -0.8244  0.1046
31939SOL    HW1  628  11.036   7.891   3.965 -0.0084 -0.7172  0.0667
31939SOL    HW2  629  10.992   7.993   3.862  0.5875 -0.5898 -0.0649
31940SOL     OW  630   2.643  12.391  10.920  0.0212  0.2176  0.4623
31940SOL    HW1  631   2.645  12.396  11.015  3.0289  0.2431  0.4913
31940SOL    HW2  632   2.674  12.477  10.890 -0.6734  0.1397 -0.5482
31941SOL     OW  633   0.761  11.223   5.492 -0.5076 -0.0688  0.1032
31941SOL    HW1  634   0.672  11.196   5.513 -0.2589 -1.9636 -1.0042
31941SOL    HW2  635   0.810  11.213   5.574 -1.0818 -0.0950  0.4461
31942SOL     OW  636   8.623   4.565   1.718  0.5984 -0.2465 -0.2183
31942SOL    HW1  637   8.598   4.555   1.626  0.4229 -1.2610 -0.0625
31942SOL    HW2  638   8.655   4.656   1.724 -2.2769  0.8895 -0.6062
31943SOL     OW  639  12.378   7.276   2.510  0.0668  0.1790  0.2360
31943SOL    HW1  640  12.388   7.370   2.523 -0.1911  0.6993 -2.7505
31943SOL    HW2  641  12.290   7.257   2.542 -0.6940  1.3967 -1.0286
31944SOL     OW  642   4.611   6.524  11.162 -0.4279  0.4674 -0.2191
31944SOL    HW1  643   4.564   6.571  11.231 -1.3803 -0.7145 -0.0320
31944SOL    HW2  644   4.570   6.554  11.081 -0.2571  0.8078 -0.1809
31945SOL     OW  645   5.009   5.717   3.929 -0.1498 -0.1276 -0.5580
31945SOL    HW1  646   5.103   5.728   3.942 -0.1584  0.0764 -0.6602
31945SOL    HW2  647   4.985   5.785   3.866 -0.4847  0.2572 -0.0316
31946SOL     OW  648   5.690   8.567   5.920 -0.4996  0.1403  0.3908
31946SOL    HW1  649   5.754   8.523   5.864 -0.0778  2.0314 -0.6896
31946SOL    HW2  650   5.648   8.496   5.968  0.6745 -1.3623 -0.6989
31947SOL     OW  651   9.403   8.157   6.996 -0.6061  0.2108 -0.2003
31947SOL    HW1  652   9.444   8.143   6.911  0.6293 -3.3185  0.8102
31947SOL    HW2  653   9.349   8.235   6.984  2.5826  2.2351 -3.0194
31948SOL     OW  654   2.647   4.830   1.149  0.5784 -0.6348  0.2203
31948SOL    HW1  655   2.695   4.748   1.153  0.0926 -0.8656  1.6210
31948SOL    HW2  656   2.605   4.829   1.063  2.7449 -0.5931 -0.8896
31949SOL     OW  657   2.759   0.205   8.729 -0.7847  0.2482 -0.7296
31949SOL    HW1  658   2.750   0.215   8.824  0.8004 -0.6714 -0.4475
31949SOL    HW2  659   2.675   0.233   8.694 -0.3094  3.9808  0.6705
31950SOL     OW  660  10.247  12.000  12.475  0.3225  0.2140 -0.3218
31950SOL    HW1  661  10.226  11.992  12.568  2.5963 -0.6449  0.1845
31950SOL    HW2  662  10.330  11.953  12.465 -0.9799 -1.7307 -3.2536
31951SOL     OW  663  11.896   3.652   7.137 -0.1596 -0.2513 -0.5285
31951SOL    HW1  664  11.844   3.732   7.123 -0.7783 -0.6019 -0.2619
31951SOL    HW2  665  11.833   3.581   7.127  0.2010 -0.6727  0.1841
31952SOL     OW  666   8.824   5.403   1.583  0.0721 -0.0813  0.7491
31952SOL    HW1  667   8.914   5.378   1.602  0.0746 -0.1107  0.7020
31952SOL    HW2  668   8.799   5.345   1.510 -0.1415 -0.4041  1.0767
31953SOL     OW  669   3.140   3.088  11.448 -0.0020  0.3609  0.2077
31953SOL    HW1  670   3.065   3.138  11.479 -0.1188  0.0489  0.4434
31953SOL    HW2  671   3.102   3.017  11.396  0.1427  0.3694  0.0910
31954SOL     OW  672   0.507   9.488   3.850  0.0970 -0.2830 -0.3364
31954SOL    HW1  673   0.595   9.504   3.884 -0.5042 -0.4627  1.4242
31954SOL    HW2  674   0.487   9.399   3.878 -1.2335  0.3127  0.7156
31955SOL     OW  675  12.544   2.901   2.953  0.0152  0.5322 -0.1763
31955SOL    HW1  676  12.478   2.946   2.901 -0.5838 -1.1525 -0.9425
31955SOL    HW2  677  12.516   2.810   2.953  1.5517  0.0285  0.7433
31956SOL     OW  678   7.004   7.891   2.812  0.0523 -0.4962  0.1971
31956SOL    HW1  679   6.968   7.895   2.900 -2.6289  0.2273 -0.8469
31956SOL    HW2  680   7.063   7.966   2.808 -0.8989  0.3216  0.9444
31957SOL     OW  681  11.357   2.718   8.355  0.0472  0.6990  0.3376
31957SOL    HW1  682  11.340   2.812   8.355 -0.2974  0.6439 -0.5437
31957SOL    HW2  683  11.295   2.683   8.420  2.2014  1.3828  2.9666
31958SOL     OW  684   9.185   3.815   9.116 -0.3415  0.4312  0.1717
31958SOL    HW1  685   9.122   3.812   9.188  0.4986 -0.3242  0.9099
31958SOL    HW2  686   9.199   3.723   9.092  0.1323  0.6135 -0.2841
31959SOL     OW  687   1.083  10.966   3.381 -0.6114 -0.2211 -0.1623
31959SOL    HW1  688   1.130  10.893   3.341 -0.3959  0.5292 -1.3247
31959SOL    HW2  689   1.093  10.953   3.475 -0.0685 -1.3479 -0.3660
31960SOL     OW  690   3.612   5.057   8.674  0.3601  0.4393  0.2745
31960SOL    HW1  691   3.553   5.133   8.662  0.2702  0.4593  0.8401
31960SOL    HW2  692   3.686   5.076   8.617  1.0188  1.6626  1.4810
31961SOL     OW  693   2.014   4.312   8.630 -0.0196 -0.1775 -0.0712
31961SOL    HW1  694   2.092   4.271   8.593 -0.6446 -1.1526 -0.3679
31961SOL    HW2  695   1.958   4.331   8.555 -2.0085 -3.6598  0.3011
31962SOL     OW  696   9.877  10.789   7.394  0.1507  0.2076  0.2292
31962SOL    HW1  697   9.899  10.866   7.343 -0.2791  0.6686  0.7301
31962SOL    HW2  698   9.787  10.768   7.370  0.0755  0.1988  0.5126
31963SOL     OW  699   1.302   2.587   1.531  0.1773  0.2869 -0.1394
31963SOL    HW1  700   1.236   2.655   1.518  0.1026  0.2588  0.0901
31963SOL    HW2  701   1.374   2.613   1.474 -0.2365  0.0394 -0.7925
31964SOL     OW  702   9.270   7.234   0.409  0.3780  0.1944  0.0100
31964SOL    HW1  703   9.327   7.307   0.383 -0.3482  0.8270  0.1527
31964SOL    HW2  704   9.228   7.207   0.328  2.3866 -1.6724 -0.5201
31965SOL     OW  705   4.797   3.888   1.248 -0.6871  0.3926 -0.6337
31965SOL    HW1  706   4.821   3.930   1.331 -0.5824 -0.9552  0.0420
31965SOL    HW2  707   4.710   3.852   1.264 -0.6983  0.1810 -1.1482
31966SOL     OW  708   9.311  12.125   1.968 -0.5424  0.3894  0.0176
31966SOL    HW1  709   9.263  12.058   2.016  0.1853 -1.0868 -1.2039
31966SOL    HW2  710   9.259  12.141   1.890  0.5340 -0.7391 -0.9893
31967SOL     OW  711   4.809   0.175   3.850 -0.2502  0.1600  0.4815
31967SOL    HW1  712   4.792   0.182   3.756  2.1839  1.5107  0.0428
31967SOL    HW2  713   4.726   0.198   3.891 -0.8177  1.7542 -1.3763
31968SOL     OW  714   3.783   1.205  11.621  0.4164  0.1969 -0.1925
31968SOL    HW1  715   3.722   1.279  11.629  1.8296  1.2770  1.4283
31968SOL    HW2  716   3.823   1.216  11.535 -0.8086  0.1567 -0.7793
31969SOL     OW  717  12.031   8.357  11.907 -0.0747 -0.1906 -0.3768
31969SOL    HW1  718  11.975   8.279  11.897  0.4184 -0.6773  0.5403
31969SOL    HW2  719  12.004   8.415  11.835 -0.9745 -0.8854 -0.6234
31970SOL     OW  720   2.166   4.332  10.802  0.0215  0.0379 -0.3474
31970SOL    HW1  721   2.074   4.344  10.780 -0.5878 -0.6260  1.6327
31970SOL    HW2  722   2.192   4.414  10.844 -0.0132 -0.1959  0.1400
31971SOL     OW  723   1.755   9.889   8.751 -0.6415 -0.1591 -0.1921
31971SOL    HW1  724   1.737   9.827   8.680 -2.0054 -0.4254  0.3424
31971SOL    HW2  725   1.676   9.942   8.757 -0.2288  0.3812  0.6021
31972SOL     OW  726   7.730   2.111   7.832  0.1033 -0.4658  0.4676
31972SOL    HW1  727   7.802   2.163   7.799  0.3656 -1.1748 -0.1033
31972SOL    HW2  728   7.771   2.034   7.871 -0.3513 -1.6469 -1.2168
31973SOL     OW  729   1.784   6.724   1.523 -0.5762  0.1083  0.1970
31973SOL    HW1  730   1.729   6.722   1.602 -0.0921 -1.6201  0.5204
31973SOL    HW2  731   1.873   6.718   1.556 -0.3148  0.3846 -0.4517
31974SOL     OW  732   2.351  11.092   8.448  0.2584  0.4188 -0.6043
31974SOL    HW1  733   2.313  11.054   8.527  3.4884  2.2884  2.1236
31974SOL    HW2  734   2.296  11.168   8.429  0.1234  0.6493  0.6178
31975SOL     OW  735   7.829  10.421   7.310 -0.1724 -0.3102 -0.5745
31975SOL    HW1  736   7.803  10.449   7.397 -0.4458  1.8705 -1.2766
31975SOL    HW2  737   7.916  10.461   7.297  0.4408 -1.6746 -0.8421
31976SOL     OW  738   0.177  11.597   1.216  0.2501  0.2785 -0.3740
31976SOL    HW1  739   0.165  11.689   1.190 -1.1633  0.0179 -0.6962
31976SOL    HW2  740   0.102  11.551   1.178  0.3565 -0.8281  0.7048
31977SOL     OW  741   7.567  10.396   8.079 -0.0082  0.4434  0.0325
31977SOL    HW1  742   7.492  10.428   8.029 -1.1237  0.2455  1.4999
31977SOL    HW2  743   7.596  10.318   8.032  0.2142  1.3320 -1.3529
31978SOL     OW  744   8.117   9.770   8.327  0.0006  0.1827 -0.2670
31978SOL    HW1  745   8.035   9.736   8.293 -0.4046 -0.0853  0.9381
31978SOL    HW2  746   8.103   9.778   8.422  1.6098 -0.6071  0.0789
31979SOL     OW  747  11.990   5.086   6.387  0.1665 -0.4152 -0.0597
31979SOL    HW1  748  11.960   5.125   6.306 -0.9852 -0.2257  0.4366
31979SOL    HW2  749  11.914   5.036   6.420  1.0725 -1.7030  0.1585
31980SOL     OW  750   1.264   5.288   8.401 -0.4758  0.1481 -0.3307
31980SOL    HW1  751   1.348   5.304   8.445  0.2244  1.7272 -2.1103
31980SOL    HW2  752   1.212   5.366   8.419 -0.6294  0.2705 -1.2694
31981SOL     OW  753   3.276   8.894   0.365  0.1179  0.1966 -0.0211
31981SOL    HW1  754   3.243   8.911   0.276 -0.4386  0.0714  0.1574
31981SOL    HW2  755   3.369   8.919   0.361 -0.0140  0.6369 -0.5115
31982SOL     OW  756   9.968   4.972   1.267 -0.6562  0.1315  0.1157
31982SOL    HW1  757  10.013   5.001   1.346 -0.9578  0.7100  0.0777
31982SOL    HW2  758   9.875   4.973   1.291 -0.8045  0.9954 -0.4566
31983SOL     OW  759   1.450   8.672   8.674  0.5652  0.8958  0.5283
31983SOL    HW1  760   1.530   8.629   8.644  1.0176  2.0164  0.0896
31983SOL    HW2  761   1.420   8.617   8.747  0.8419 -0.4275 -0.3052
31984SOL     OW  762  12.362   1.518   9.484 -0.7209 -0.3475 -0.2236
31984SOL    HW1  763  12.372   1.517   9.579  0.9523  1.0178 -0.3436
31984SOL    HW2  764  12.296   1.451   9.467 -0.8329 -0.8521  1.8603
31985SOL     OW  765  10.114  10.659   9.305 -0.2566  0.2674  0.1759
31985SOL    HW1  766  10.035  10.675   9.252  2.1840  1.1419 -3.5782
31985SOL    HW2  767  10.166  10.739   9.296  1.4067 -0.5414  1.9305
31986SOL     OW  768   0.344   8.198   6.831  0.1624 -0.2625  0.1780
31986SOL    HW1  769   0.279   8.204   6.762  0.2625  0.2152  0.1237
31986SOL    HW2  770   0.368   8.105   6.833 -0.8049 -0.5214  0.4689
31987SOL     OW  771  11.552   6.837   6.119  0.2244 -0.0772  0.0955
31987SOL    HW1  772  11.537   6.744   6.137  1.7005 -0.0807  1.4850
31987SOL    HW2  773  11.647   6.846   6.116  0.1466  0.8494 -3.2415
31988SOL     OW  774   2.940   2.912   4.374 -0.3308  0.0108 -0.5380
31988SOL    HW1  775   2.866   2.927   4.316 -0.2956  0.9168 -0.3623
31988SOL    HW2  776   2.900   2.890   4.458 -0.4191  1.0298 -0.3036
31989SOL     OW  777   7.347   8.330  12.472 -0.2482  0.1444 -0.2641
31989SOL    HW1  778   7.395   8.413  12.466  0.8729 -0.3189  1.6468
31989SOL    HW2  779   7.329   8.307  12.381  1.6631  1.2176 -0.9700
31990SOL     OW  780   9.537  10.057   8.106  0.0525 -0.1976  0.0791
31990SOL    HW1  781   9.464  10.005   8.141 -0.1742 -0.5046 -0.8321
31990SOL    HW2  782   9.533  10.140   8.154  1.9449 -1.8168  3.4746
31991SOL     OW  783   0.550  11.185   7.060 -0.3793  0.3924  0.1843
31991SOL    HW1  784   0.549  11.090   7.049 -1.6200  0.3420  0.5457
31991SOL    HW2  785   0.632  11.203   7.108 -0.7916 -0.6617  1.3460
31992SOL     OW  786  11.615  11.505  12.138 -0.1834  0.6598 -0.6844
31992SOL    HW1  787  11.540  11.512  12.197  0.0918  3.0921 -0.5494
31992SOL    HW2  788  11.576  11.480  12.054 -1.1321  1.6133 -0.5516
31993SOL     OW  789  12.631   8.277   1.609  0.4180  0.0712 -0.2448
31993SOL    HW1  790  12.649   8.318   1.693 -3.8445 -0.3044  1.0772
31993SOL    HW2  791  12.585   8.344   1.559 -0.0205 -0.7439 -0.9667
31994SOL     OW  792   6.240   3.824   8.813  0.3847 -0.1834  0.4523
31994SOL    HW1  793   6.315   3.780   8.852  0.7132  0.8216  0.9931
31994SOL    HW2  794   6.266   3.840   8.722  0.8442  0.1989  0.6473
31995SOL     OW  795   6.103   2.132   2.899  0.2351 -0.5126  0.4459
31995SOL    HW1  796   6.138   2.215   2.867  1.6097 -0.7602  1.2133
31995SOL    HW2  797   6.042   2.104   2.831  0.0859  0.8940 -0.0349
31996SOL     OW  798   4.935   2.711   4.869 -0.1643 -0.3555  0.0486
31996SOL    HW1  799   4.959   2.664   4.949  1.7705 -0.9865 -0.8210
31996SOL    HW2  800   4.960   2.651   4.798 -2.6088 -0.1744 -1.0493
31997SOL     OW  801   3.546   3.769   6.566 -0.1847  0.3537 -0.3393
31997SOL    HW1  802   3.573   3.855   6.535 -0.1113  0.4044 -0.1414
31997SOL    HW2  803   3.462   3.785   6.610 -0.5997  0.1760 -1.0575
31998SOL     OW  804  12.550   6.855  12.320  0.2213 -0.0501 -0.3968
31998SOL    HW1  805  12.633   6.872  12.275 -0.1910 -1.1618 -1.6498
31998SOL    HW2  806  12.574   6.847  12.412  1.1231  2.1510 -0.3585
31999SOL     OW  807   8.685   3.115   0.472  0.1427  0.3447  0.0964
31999SOL    HW1  808   8.749   3.096   0.404 -0.1626  0.3433 -0.1918
31999SOL    HW2  809   8.667   3.208   0.463  0.2217  0.3789  0.2810
32000SOL     OW  810   8.735  11.951  11.083 -0.1617 -0.1031  1.1179
32000SOL    HW1  811   8.731  11.958  10.988  1.8058 -0.2849  0.9791
32000SOL    HW2  812   8.644  11.958  11.111 -0.8235 -0.4023 -0.7862
32001SOL     OW  813   8.261   3.927   9.823 -0.3291 -0.9732 -0.2806
32001SOL    HW1  814   8.165   3.919   9.822 -0.4435  0.2711 -1.1437
32001SOL    HW2  815   8.282   3.978   9.745  0.9737 -0.5876  0.2904
32002SOL     OW  816  11.098  12.095   1.502 -0.0174  0.2347 -0.4223
32002SOL    HW1  817  11.119  12.111   1.594  0.2799  0.8104 -0.5854
32002SOL    HW2  818  11.036  12.022   1.504 -1.0522  1.1085  0.3322
32003SOL     OW  819  11.258   0.437   5.570  0.2281 -0.1003  0.0974
32003SOL    HW1  820  11.205   0.475   5.641 -0.4541  0.2193 -0.5621
32003SOL    HW2  821  11.292   0.513   5.522  0.8710 -0.3132  0.2103
32004SOL     OW  822   9.124   2.436   6.850 -0.3058  0.1076  0.7097
32004SOL    HW1  823   9.128   2.528   6.823 -0.7254  0.0389  0.4145
32004SOL    HW2  824   9.185   2.431   6.924  0.1680  0.4901  0.3507
32005SOL     OW  825   8.299   3.478   0.313  0.0888 -0.6637  0.1220
32005SOL    HW1  826   8.237   3.546   0.286  0.4103 -1.0003 -1.5089
32005SOL    HW2  827   8.301   3.486   0.409 -1.6429  0.0717  0.1475
32006SOL     OW  828   0.890   3.047  10.398  0.3806 -0.3828  0.3194
32006SOL    HW1  829   0.804   3.005  10.392 -0.5982  1.5463 -0.2243
32006SOL    HW2  830   0.899   3.072  10.490  0.5244 -0.8971  0.4467
32007SOL     OW  831   4.256   5.929   6.836 -0.5432 -0.1633 -0.2966
32007SOL    HW1  832   4.293   5.845   6.808 -0.2434  0.3540 -1.5211
32007SOL    HW2  833   4.276   5.933   6.929 -0.9134 -1.6308 -0.1184
32008SOL     OW  834  10.988   6.052   0.105  0.0269 -0.1476  0.4489
32008SOL    HW1  835  10.913   6.109   0.121 -0.7916 -0.7496 -1.0937
32008SOL    HW2  836  11.060   6.112   0.085 -1.1158  0.4338 -2.4305
32009SOL     OW  837  10.472   1.212   0.878 -0.8654  0.2260  0.1855
32009SOL    HW1  838  10.501   1.239   0.791 -3.1517  2.3439 -0.0389
32009SOL    HW2  839  10.531   1.141   0.902  1.7356  1.5210 -1.8205
32010SOL     OW  840   9.829   5.693   9.209 -0.0123  0.4799  0.1663
32010SOL    HW1  841   9.746   5.646   9.221 -0.3057  0.8018 -0.5419
32010SOL    HW2  842   9.886   5.659   9.278 -0.0349 -1.2714 -0.6359
32011SOL     OW  843  10.822   6.813   2.962  0.2711  0.2680  0.1635
32011SOL    HW1  844  10.773   6.783   2.886 -0.5008 -0.1367  0.7984
32011SOL    HW2  845  10.754   6.829   3.028  1.1117 -2.7243  1.9216
32012SOL     OW  846   4.495  10.529   3.302  0.3443  0.2434  0.2619
32012SOL    HW1  847   4.460  10.460   3.245  1.9111 -0.9727  0.6931
32012SOL    HW2  848   4.426  10.543   3.368  0.6450 -2.2246  1.2099
32013SOL     OW  849   9.539   5.289  11.510 -0.0113  0.0562 -0.5398
32013SOL    HW1  850   9.632   5.303  11.522  0.1621 -0.3707 -1.3000
32013SOL    HW2  851   9.526   5.195  11.525  0.0148 -0.2607 -2.2639
32014SOL     OW  852   4.780   0.737   0.813 -0.2887 -0.2272  0.6759
32014SOL    HW1  853   4.750   0.650   0.788 -0.5210 -0.2248  0.9443
32014SOL    HW2  854   4.749   0.794   0.742 -0.3887 -0.3177  0.6457
32015SOL     OW  855   9.293   6.736   2.145 -0.4979  0.2433  0.1097
32015SOL    HW1  856   9.370   6.753   2.199  0.3161  0.1787 -1.0121
32015SOL    HW2  857   9.268   6.822   2.111  0.2127  0.0202 -1.0152
32016SOL     OW  858   7.416  10.809   0.561 -0.0788  0.3776  0.4583
32016SOL    HW1  859   7.458  10.728   0.531 -0.0825  1.1060 -1.6884
32016SOL    HW2  860   7.375  10.845   0.482  0.5821  2.8714  1.1666
32017SOL     OW  861   0.594   6.912  10.479  0.7050 -0.1194  0.0661
32017SOL    HW1  862   0.542   6.877  10.551  2.4838  0.7125  1.8359
32017SOL    HW2  863   0.551   6.879  10.400 -1.0657 -1.4089  1.4986
32018SOL     OW  864   8.407  11.995   1.392 -0.0785 -0.0439  0.1320
32018SOL    HW1  865   8.414  12.048   1.471 -0.2111  1.5480 -0.8880
32018SOL    HW2  866   8.493  11.952   1.384  0.2289  0.4655  0.6575
32019SOL     OW  867   6.403  10.881   7.793  0.2085  0.0085  0.3618
32019SOL    HW1  868   6.335  10.942   7.764  1.0447  0.0533 -1.6940
32019SOL    HW2  869   6.472  10.936   7.829  0.2606  0.1516  0.0407
32020SOL     OW  870   0.678   5.575   4.287  0.3273  0.0849 -0.0405
32020SOL    HW1  871   0.650   5.653   4.240  0.5407  0.2510  0.1098
32020SOL    HW2  872   0.678   5.506   4.220  0.1099  0.2049 -0.1650
32021SOL     OW  873   3.928   8.456   8.667  0.3952 -0.3803 -0.5369
32021SOL    HW1  874   3.922   8.377   8.614  0.5744 -0.7168 -0.0662
32021SOL    HW2  875   3.966   8.427   8.750  1.2072  0.3308 -0.6395
32022SOL     OW  876   2.193  10.274   0.319  0.3596  0.5961  0.0515
32022SOL    HW1  877   2.142  10.216   0.263  1.1971  1.4095 -1.6417
32022SOL    HW2  878   2.226  10.341   0.260  3.1605  0.2719  1.0687
32023SOL     OW  879   0.203   6.494   2.353 -0.3016 -0.0605  0.2700
32023SOL    HW1  880   0.218   6.554   2.426  0.6210 -1.3714  1.1857
32023SOL    HW2  881   0.280   6.504   2.298 -0.8630  0.7098 -0.4047
32024SOL     OW  882   6.316  11.671   2.772 -0.0480  0.2715  0.2449
32024SOL    HW1  883   6.373  11.669   2.849  0.9638  0.8890 -0.4581
32024SOL    HW2  884   6.377  11.683   2.699 -1.1217  1.3242 -0.5001
32025SOL     OW  885   8.120  12.472   4.770  0.1860  0.3449 -0.3043
32025SOL    HW1  886   8.029  12.492   4.792  0.2791  2.0009 -1.3129
32025SOL    HW2  887   8.126  12.377   4.781 -1.6966  0.1809 -0.3316
32026SOL     OW  888   8.840   9.945   9.865  0.6039 -0.3828 -0.3501
32026SOL    HW1  889   8.839   9.902   9.950  1.8083  1.2006  0.5132
32026SOL    HW2  890   8.913   9.905   9.819  0.3946 -0.7366 -0.3828
32027SOL     OW  891   2.938   8.163   8.871 -0.2189 -0.3959 -0.4528
32027SOL    HW1  892   3.027   8.135   8.851  1.3257  1.8257  2.4392
32027SOL    HW2  893   2.925   8.140   8.963 -1.3723  2.0996  0.1093
32028SOL     OW  894   0.992   4.868  12.195 -0.7282  0.0668  0.8111
32028SOL    HW1  895   1.063   4.901  12.249  0.1448 -0.5458  0.0715
32028SOL    HW2  896   0.998   4.918  12.114  2.2892 -3.4400 -1.4128
32029SOL     OW  897   8.440   0.314   6.723 -0.1628  0.4097 -0.0856
32029SOL    HW1  898   8.370   0.349   6.668  0.1845 -0.8456 -1.3814
32029SOL    HW2  899   8.512   0.297   6.662  0.4871 -0.3804  0.8723
32030SOL     OW  900   4.821   9.930   8.482 -0.5223  0.5239  1.0199
32030SOL    HW1  901   4.831   9.924   8.578 -1.2949  0.1356  1.0803
32030SOL    HW2  902   4.777   9.849   8.458 -0.5694  0.7446  0.3585
32031SOL     OW  903   7.927   2.831   8.398  0.1804 -0.0285 -0.0868
32031SOL    HW1  904   7.843   2.873   8.377 -0.2547 -0.3019  1.0317
32031SOL    HW2  905   7.985   2.904   8.419 -0.8834  0.0673  2.9661
32032SOL     OW  906   5.363   8.722   7.204  0.2347 -0.3317  0.4155
32032SOL    HW1  907   5.366   8.630   7.178 -1.2977 -0.4647  0.6219
32032SOL    HW2  908   5.270   8.744   7.206  0.5742  1.6657 -1.1570
32033SOL     OW  909   2.154   4.200   9.365  0.5368 -0.5599  0.5561
32033SOL    HW1  910   2.189   4.271   9.419 -1.7573  0.8691  0.3466
32033SOL    HW2  911   2.225   4.136   9.358  3.5127  2.5936 -0.9377
32034SOL     OW  912   6.078   4.935   0.668  0.1434  0.3624 -0.1248
32034SOL    HW1  913   6.055   4.911   0.758 -0.2983  0.1818 -0.2819
32034SOL    HW2  914   6.157   4.989   0.677 -0.3286  0.9810  0.4295
32035SOL     OW  915  10.324   7.728   5.397 -0.5935  0.2316 -0.3611
32035SOL    HW1  916  10.393   7.723   5.463 -1.7641 -0.7230  0.8431
32035SOL    HW2  917  10.336   7.813   5.356  0.7791  0.4295  0.4064
32036SOL     OW  918   3.004   3.856  10.258  0.5575  0.8313  0.6082
32036SOL    HW1  919   3.049   3.790  10.311 -2.1270 -0.9163  0.9061
32036SOL    HW2  920   2.962   3.806  10.187 -1.9896  2.0441  1.1386
32037SOL     OW  921   5.623   6.426   3.905 -0.1022 -0.2859  0.3029
32037SOL    HW1  922   5.549   6.433   3.845  0.0584  1.4234  0.2439
32037SOL    HW2  923   5.654   6.516   3.915  2.4471 -1.0361 -0.2361
32038SOL     OW  924   7.061   3.090   1.243 -0.1528 -0.1506  0.3470
32038SOL    HW1  925   6.971   3.119   1.228  0.1719  0.7839  0.1142
32038SOL    HW2  926   7.114   3.168   1.228  0.6277 -0.4565  1.4069
32039SOL     OW  927   0.152   8.901   2.829  0.3682  0.5845  0.2965
32039SOL    HW1  928   0.127   8.831   2.890 -1.0111  0.1665 -0.7122
32039SOL    HW2  929   0.099   8.976   2.855 -0.3681  0.3456 -0.5099
32040SOL     OW  930   3.435   6.307   9.841  0.0743 -0.4595 -0.1361
32040SOL    HW1  931   3.436   6.399   9.869  0.3459  0.2626 -2.2781
32040SOL    HW2  932   3.524   6.277   9.856  0.2570 -0.0410 -0.3380
32041SOL     OW  933   1.216   2.102   4.206 -0.1084 -0.0425  0.1202
32041SOL    HW1  934   1.205   2.148   4.289  0.4157 -1.3410  0.9439
32041SOL    HW2  935   1.307   2.072   4.207 -0.1505 -0.2158 -0.8483
32042SOL     OW  936   8.972   8.520   1.154  0.9710  0.2140 -0.1763
32042SOL    HW1  937   8.954   8.426   1.150  1.0056  0.1752  0.5377
32042SOL    HW2  938   8.990   8.537   1.246 -0.1962  1.1433 -0.0977
32043SOL     OW  939  12.088  10.547   7.363 -0.5244  0.3915 -0.1909
32043SOL    HW1  940  12.006  10.580   7.401  0.8656  1.2638  2.3083
32043SOL    HW2  941  12.131  10.625   7.328 -0.1964  0.1503 -0.3267
32044SOL     OW  942   3.175   1.825  10.529 -0.3668 -0.4411  0.0571
32044SOL    HW1  943   3.220   1.888  10.586 -0.4220 -0.4001  0.0547
32044SOL    HW2  944   3.082   1.841  10.544 -0.4051  0.4070 -0.9432
32045SOL     OW  945   8.388   4.924   1.390 -0.4586  0.6331 -0.2962
32045SOL    HW1  946   8.296   4.944   1.370 -0.1008  0.5694 -2.1304
32045SOL    HW2  947   8.407   4.845   1.340  0.7412  0.9154 -0.3087
32046SOL     OW  948   7.383  10.413   3.370  0.2046 -0.3198  0.8363
32046SOL    HW1  949   7.392  10.479   3.301  1.1368 -1.2615  0.0180
32046SOL    HW2  950   7.290  10.415   3.393 -0.1754 -0.1297 -0.6083
32047SOL     OW  951   1.700   0.610  12.098 -0.4796 -0.1682 -0.2724
32047SOL    HW1  952   1.664   0.528  12.064  0.3329 -1.0288  0.8666
32047SOL    HW2  953   1.772   0.632  12.040 -0.6435 -0.3027 -0.5269
32048SOL     OW  954  12.013   1.251   7.580  0.1787  0.1152 -0.0327
32048SOL    HW1  955  11.999   1.261   7.486 -2.0392 -1.6977  0.0244
32048SOL    HW2  956  11.969   1.326   7.619 -0.5881 -0.1624 -0.3574
32049SOL     OW  957  10.817  12.353   0.630  0.0627  0.4160  0.8750
32049SOL    HW1  958  10.858  12.279   0.674 -1.1123 -1.8839 -1.6402
32049SOL    HW2  959  10.725  12.349   0.658 -0.5291 -0.6161 -1.0805
32050SOL     OW  960   0.452  11.896   1.080  0.3097 -0.8284 -0.0806
32050SOL    HW1  961   0.458  11.990   1.100 -0.7330 -0.6882 -0.3603
32050SOL    HW2  962   0.409  11.893   0.994 -0.7409 -1.5870  0.4541
32051SOL     OW  963  10.719   7.080   4.903  0.2823 -0.7806  0.0720
32051SOL    HW1  964  10.675   6.996   4.885  0.2606 -0.6102 -0.6684
32051SOL    HW2  965  10.660   7.146   4.867  0.7772 -0.5026 -0.2200
32052SOL     OW  966  11.159   8.115   0.596 -0.2723  0.0745 -0.0977
32052SOL    HW1  967  11.088   8.079   0.543  0.1068 -0.9640  0.0843
32052SOL    HW2  968  11.148   8.074   0.682  1.7334 -1.7246 -0.6140
32053SOL     OW  969   5.644   7.840   7.212  0.9210 -0.6839 -0.1083
32053SOL    HW1  970   5.600   7.854   7.295 -1.0835 -0.3089 -1.1868
32053SOL    HW2  971   5.726   7.796   7.235  0.7846  0.1337  2.1001
32054SOL     OW  972  12.283   2.316   8.556  0.1604 -0.3641 -1.0795
32054SOL    HW1  973  12.284   2.221   8.557 -0.4594 -0.3706 -0.9301
32054SOL    HW2  974  12.300   2.341   8.647 -0.2826 -0.3435 -0.9990
32055SOL     OW  975  10.760  11.665   8.387  0.6247  0.4443 -0.3434
32055SOL    HW1  976  10.829  11.724   8.357  0.0155  1.2096 -0.2834
32055SOL    HW2  977  10.713  11.716   8.454  0.1076 -0.1207 -0.2707
32056SOL     OW  978   5.266   4.843   2.931 -0.6021 -0.4694  0.0626
32056SOL    HW1  979   5.181   4.818   2.894 -0.2292 -1.1128 -0.3588
32056SOL    HW2  980   5.316   4.762   2.935 -0.4387 -0.3329  1.4920
32057SOL     OW  981   8.434   8.066   9.183 -0.3332  0.2863 -0.0740
32057SOL    HW1  982   8.513   8.108   9.147 -0.3527  0.3797 -0.0095
32057SOL    HW2  983   8.395   8.021   9.108 -0.6381  0.8813 -0.2824
32058SOL     OW  984   8.351   2.547   6.145  0.3180  0.0720 -0.0900
32058SOL    HW1  985   8.272   2.553   6.090  0.6051 -0.9517 -0.6474
32058SOL    HW2  986   8.414   2.606   6.102  0.0719  0.3965 -0.0129
32059SOL     OW  987   7.618   4.174  11.801  0.2345  0.2766  0.0058
32059SOL    HW1  988   7.529   4.138  11.802 -0.0237  0.8380  1.7955
32059SOL    HW2  989   7.671   4.107  11.759 -0.5707 -1.3263  1.4248
32060SOL     OW  990  12.333   2.274   1.182  0.1360  0.0237  0.4022
32060SOL    HW1  991  12.424   2.273   1.210 -0.5705 -1.1515  2.9640
32060SOL    HW2  992  12.319   2.189   1.141 -0.2790 -0.6148  1.8298
32061SOL     OW  993  10.109   6.685   4.704  1.3371 -0.0511  0.1709
32061SOL    HW1  994  10.031   6.658   4.751  1.4271 -0.5947  0.0153
32061SOL    HW2  995  10.163   6.730   4.770  0.6093  0.9063  0.1231
32062SOL     OW  996   5.686   5.481   3.802 -0.0074 -0.1758 -0.4456
32062SOL    HW1  997   5.606   5.482   3.749 -0.0756 -0.7307 -0.3639
32062SOL    HW2  998   5.743   5.546   3.761  0.2623 -1.1747 -1.7342
32063SOL     OW  999  11.596  11.859  10.326 -1.0079  0.4623 -0.8396
32063SOL    HW1 1000  11.590  11.772  10.288 -1.9006 -0.9226  2.1565
32063SOL    HW2 1001  11.505  11.884  10.345 -0.6133  0.8013  0.8013
32064SOL     OW 1002   9.684  11.122  12.040 -0.0711  0.5428  0.3056
32064SOL    HW1 1003   9.594  11.112  12.009  0.1859 -0.7869 -0.0654
32064SOL    HW2 1004   9.691  11.214  12.065 -0.8474  1.2441 -1.8677
32065SOL     OW 1005   1.308  12.476   5.704 -0.2426 -0.4060 -0.6225
32065SOL    HW1 1006   1.303  12.546   5.639  0.5283  0.4853  0.2465
32065SOL    HW2 1007   1.366  12.411   5.665  1.6981  0.9441 -0.1332
32066SOL     OW 1008   5.309   0.889   4.556 -0.3035 -0.1497 -0.1951
32066SOL    HW1 1009   5.311   0.880   4.651  1.6448 -1.2034 -0.2916
32066SOL    HW2 1010   5.365   0.965   4.538 -0.5096 -0.0722 -0.5317
32067SOL     OW 1011   6.734   0.820   2.967  0.1823 -0.4435  0.0190
32067SOL    HW1 1012   6.782   0.738   2.954 -0.8247 -0.7572 -2.1053
32067SOL    HW2 1013   6.758   0.873   2.891  0.4438  1.0740  1.1291
32068SOL     OW 1014  12.328   7.381  11.728 -0.1401 -0.0069  0.0461
32068SOL    HW1 1015  12.398   7.437  11.693 -2.0223  2.9718  0.6929
32068SOL    HW2 1016  12.274   7.361  11.652 -0.0938  0.0337  0.0022
32069SOL     OW 1017  10.860   8.369   6.343 -0.0182 -0.6185  0.3178
32069SOL    HW1 1018  10.890   8.453   6.311 -1.6197 -0.1182  0.0539
32069SOL    HW2 1019  10.772   8.385   6.376 -0.6600 -2.3275 -0.4118
32070SOL     OW 1020   2.977  12.085   5.786 -0.0973 -0.5667 -0.2187
32070SOL    HW1 1021   3.072  12.100   5.794 -0.0237 -0.5061 -1.0958
32070SOL    HW2 1022   2.962  12.081   5.692 -1.5169  2.9910 -0.2900
32071SOL     OW 1023   5.545   4.843   5.959  0.0013  0.0091 -0.1207
32071SOL    HW1 1024   5.482   4.782   5.919  0.0848 -0.4544  0.4453
32071SOL    HW2 1025   5.498   4.926   5.963  0.3890  0.4131 -2.2927
32072SOL     OW 1026   4.671  12.033   9.620  0.0490  0.3517  0.4384
32072SOL    HW1 1027   4.646  11.979   9.545 -0.6604  0.3792  0.6466
32072SOL    HW2 1028   4.625  12.116   9.606 -0.6051  0.1356  1.2208
32073SOL     OW 1029   6.144   2.414  10.067  0.5743 -0.2007 -0.7108
32073SOL    HW1 1030   6.082   2.480  10.097 -0.8328 -1.5598 -0.4786
32073SOL    HW2 1031   6.141   2.346  10.134  2.8175 -0.0513 -0.3756
32074SOL     OW 1032   2.101   8.988   6.980  0.1093  0.2389 -0.3661
32074SOL    HW1 1033   2.099   9.001   7.075  1.1989 -1.9160  0.0145
32074SOL    HW2 1034   2.096   8.893   6.969  2.2603  0.2783 -2.3344
32075SOL     OW 1035   1.050   2.588   0.421  0.2431  0.0789 -0.7501
32075SOL    HW1 1036   1.142   2.580   0.445 -0.0285 -0.8346  0.0521
32075SOL    HW2 1037   1.020   2.667   0.467  0.5948  0.3294 -0.9441
32076SOL     OW 1038  10.636   8.525  11.162 -0.5514  0.6688  0.0391
32076SOL    HW1 1039  10.695   8.581  11.111  1.5015 -1.3198  0.1011
32076SOL    HW2 1040  10.604   8.461  11.099 -1.6405  0.9030  0.3218
32077SOL     OW 1041   6.749   4.384   5.968 -0.6756 -0.0544  0.2203
32077SOL    HW1 1042   6.693   4.434   6.027 -0.2460 -0.8467  1.3248
32077SOL    HW2 1043   6.814   4.447   5.937 -1.5806  0.6415 -0.3363
32078SOL     OW 1044   7.995   6.335  11.229  0.6408 -0.0241 -0.2761
32078SOL    HW1 1045   7.924   6.293  11.278  1.6526 -1.4041  0.0859
32078SOL    HW2 1046   7.952   6.376  11.154 -0.5045 -1.1463 -0.2626
32079SOL     OW 1047   2.452   4.818  12.330 -0.6112 -0.2338  0.1178
32079SOL    HW1 1048   2.474   4.796  12.420 -1.6108 -0.0238  0.4237
32079SOL    HW2 1049   2.498   4.901  12.314  0.3804 -0.7722  0.0880
32080SOL     OW 1050   8.839   0.319  10.679  0.0425  0.0185  0.5246
32080SOL    HW1 1051   8.910   0.372  10.642  0.7346 -0.0538  1.7064
32080SOL    HW2 1052   8.759   0.358  10.642  0.6150  0.9100  0.1702
32081SOL     OW 1053   2.535   9.997   7.844 -0.2247  0.3759  0.4208
32081SOL    HW1 1054   2.487   9.916   7.855 -0.0183  0.1828 -0.0595
32081SOL    HW2 1055   2.626   9.974   7.862 -0.5168  1.1998  3.4974
32082SOL     OW 1056   8.497   6.039   8.676 -0.3255  0.0667 -0.0523
32082SOL    HW1 1057   8.506   6.090   8.756  0.7697 -1.1855  0.6588
32082SOL    HW2 1058   8.446   5.962   8.701 -3.1473  1.3449 -1.4142
32083SOL     OW 1059  11.086   9.734  11.892 -0.2702 -0.2460 -0.1659
32083SOL    HW1 1060  11.147   9.781  11.949 -1.2134  2.6170 -1.3477
32083SOL    HW2 1061  11.140   9.706  11.817 -0.3220  2.5981 -1.3939
32084SOL     OW 1062   3.048  10.818   8.959  0.0144 -0.0874  0.1916
32084SOL    HW1 1063   2.970  10.799   9.010 -0.2615  0.0785 -0.1670
32084SOL    HW2 1064   3.102  10.872   9.017 -0.2056 -0.0677  0.3788
32085SOL     OW 1065   1.112   4.707  10.290  0.4138  0.2628 -0.0414
32085SOL    HW1 1066   1.022   4.730  10.313  0.2439  0.9652 -1.3572
32085SOL    HW2 1067   1.114   4.707  10.195  1.9133  0.6501 -0.0376
32086SOL     OW 1068   5.306   5.894  11.989  0.0866  0.1611  0.1811
32086SOL    HW1 1069   5.342   5.965  12.042 -0.8261  0.3125  0.6284
32086SOL    HW2 1070   5.289   5.823  12.052 -1.5524  0.5545  0.2229
32087SOL     OW 1071   9.009   5.756   3.329  0.0280 -0.1354  0.9969
32087SOL    HW1 1072   9.016   5.835   3.275 -1.7138 -0.3762  0.3687
32087SOL    HW2 1073   8.941   5.775   3.392  0.0757 -0.8866  1.2889
32088SOL     OW 1074  10.843   1.398   3.619  0.2233 -0.0775  0.2673
32088SOL    HW1 1075  10.801   1.478   3.650  0.2130 -0.1446  0.4267
32088SOL    HW2 1076  10.777   1.330   3.629  0.7103 -0.3862  1.5133
32089SOL     OW 1077   8.726  11.722   7.508  0.2590  0.4794  0.1615
32089SOL    HW1 1078   8.810  11.684   7.534  0.3236 -0.9495 -1.8805
32089SOL    HW2 1079   8.748  11.776   7.431 -0.6095  0.5095 -0.0721
32090SOL     OW 1080   4.935   2.950   3.451  0.3228  0.0355 -0.2797
32090SOL    HW1 1081   4.897   2.911   3.372  0.1425 -0.1929 -0.0809
32090SOL    HW2 1082   5.021   2.981   3.422  1.0012 -1.6078 -0.1699
32091SOL     OW 1083   4.935   4.508   1.823 -0.0414 -0.4687  0.1347
32091SOL    HW1 1084   4.915   4.512   1.916  1.7914  0.2770  0.5321
32091SOL    HW2 1085   4.908   4.592   1.788 -2.2292 -1.3180 -0.3883
32092SOL     OW 1086   6.736   9.313   4.348  0.2735  0.0872  0.2323
32092SOL    HW1 1087   6.822   9.303   4.307 -0.8769  0.6914 -2.5330
32092SOL    HW2 1088   6.715   9.405   4.338 -0.1848  0.2174  2.0689
32093SOL     OW 1089   2.164   9.056   4.601 -0.4586 -0.4345  0.1917
32093SOL    HW1 1090   2.106   9.115   4.553  1.0483 -0.0855 -1.3411
32093SOL    HW2 1091   2.168   9.092   4.689 -0.9483  0.7479 -0.2450
32094SOL     OW 1092  10.616  10.494   2.601  0.1814 -0.3675  0.3836
32094SOL    HW1 1093  10.694  10.441   2.584  0.0130 -0.1730 -1.1071
32094SOL    HW2 1094  10.651  10.580   2.626  0.4600 -0.1905 -0.5768
32095SOL     OW 1095   6.878   7.523   1.986  0.4733  0.1235  0.2617
32095SOL    HW1 1096   6.941   7.551   2.052 -0.4846  1.8147  0.5059
32095SOL    HW2 1097   6.927   7.523   1.904  1.0093  0.5725  0.5772
32096SOL     OW 1098   0.284   9.436  11.398  0.5829 -0.0965  0.0538
32096SOL    HW1 1099   0.258   9.473  11.483  0.2175 -0.4001  0.0772
32096SOL    HW2 1100   0.334   9.357  11.421 -0.3227 -0.7078 -0.0182
32097SOL     OW 1101  11.517   4.719   2.987 -0.3824 -0.5833  0.2104
32097SOL    HW1 1102  11.536   4.810   2.965 -2.8592 -0.1218 -0.3205
32097SOL    HW2 1103  11.464   4.724   3.067  0.0070 -1.6086  0.5519
32098SOL     OW 1104   2.626   8.706   5.924  0.2117  0.0658 -0.0388
32098SOL    HW1 1105   2.551   8.684   5.869  1.6273 -0.8325 -1.7188
32098SOL    HW2 1106   2.666   8.621   5.945  1.6819  0.5840 -0.5835
32099SOL     OW 1107   7.858   8.938   6.620  0.0034 -0.0471  0.3463
32099SOL    HW1 1108   7.917   8.896   6.682 -0.8689 -1.4985  0.2264
32099SOL    HW2 1109   7.770   8.918   6.652 -0.4828 -1.2119 -1.5707
32100SOL     OW 1110   8.238   8.774   1.378 -0.2008  0.2356  0.5362
32100SOL    HW1 1111   8.212   8.719   1.452  1.6572 -1.7224 -0.1646
32100SOL    HW2 1112   8.177   8.750   1.308 -1.7118  1.8106  1.2320
32101SOL     OW 1113   3.943   5.180   0.261  0.1242 -0.2400 -0.4819
32101SOL    HW1 1114   3.991   5.263   0.264 -0.2845 -0.0225  0.3374
32101SOL    HW2 1115   4.011   5.114   0.249  0.5268  0.1549 -0.4161
32102SOL     OW 1116   6.894   2.354   6.793 -0.6002  0.2617  0.1503
32102SOL    HW1 1117   6.912   2.434   6.743 -1.5719 -0.2869 -1.1509
32102SOL    HW2 1118   6.799   2.353   6.804 -0.5439 -0.4397  0.6320
32103SOL     OW 1119   1.051   8.706   0.252 -0.0648  0.1157  0.2889
32103SOL    HW1 1120   1.134   8.695   0.206 -0.1777 -1.0897  0.3311
32103SOL    HW2 1121   1.066   8.668   0.339 -0.6912 -0.2495  0.2481
32104SOL     OW 1122   0.358   9.970   0.980 -0.2108  0.1945 -0.7327
32104SOL    HW1 1123   0.358  10.063   0.956  3.6397  0.6044  0.1653
32104SOL    HW2 1124   0.407   9.927   0.909  0.2176 -0.7033  0.0842
32105SOL     OW 1125   4.505  11.085   4.688  1.1645 -0.1520  0.2413
32105SOL    HW1 1126   4.516  11.088   4.783  0.4094 -3.0485  0.5234
32105SOL    HW2 1127   4.594  11.075   4.654  1.5915  2.3789  0.4684
32106SOL     OW 1128  12.590   4.803   6.532 -0.7335  0.0473  0.0633
32106SOL    HW1 1129  12.524   4.843   6.590 -0.9740 -1.3156  0.7733
32106SOL    HW2 1130  12.581   4.850   6.450 -3.0813 -0.5165 -0.0745
32107SOL     OW 1131   4.509   7.478   7.313  0.0552  0.3282  0.8047
32107SOL    HW1 1132   4.417   7.454   7.303 -0.4684  2.6663 -1.4618
32107SOL    HW2 1133   4.551   7.447   7.232  0.8472  0.7691  1.0285
32108SOL     OW 1134  11.821   6.629   0.365  0.4612  0.1144 -0.0225
32108SOL    HW1 1135  11.848   6.718   0.343 -0.7725  0.6587  0.5350
32108SOL    HW2 1136  11.809   6.631   0.460 -0.4965 -0.3737 -0.1224
32109SOL     OW 1137   1.748   4.151   7.409  0.0424  0.9507  0.1911
32109SOL    HW1 1138   1.731   4.072   7.358 -0.3304  1.2586 -0.1696
32109SOL    HW2 1139   1.719   4.130   7.498  0.2244  0.5850  0.1648
32110SOL     OW 1140   8.264   6.956   2.553  0.1858  0.2504  0.4970
32110SOL    HW1 1141   8.358   6.939   2.552  0.0530 -0.5018 -0.5673
32110SOL    HW2 1142   8.228   6.889   2.611  0.5443  2.1411  3.0790
32111SOL     OW 1143  12.255   4.221  10.006 -0.0410  0.4269  0.3169
32111SOL    HW1 1144  12.345   4.188  10.001 -0.0512  0.5190 -0.8037
32111SOL    HW2 1145  12.208   4.174   9.938 -1.0472 -0.1617  1.3769
32112SOL     OW 1146   8.219  10.350   5.807 -0.2465  0.2709  0.0044
32112SOL    HW1 1147   8.314  10.357   5.802 -0.1624 -0.6399  0.2137
32112SOL    HW2 1148   8.192  10.321   5.720 -0.0762 -1.9146  0.6124
32113SOL     OW 1149   7.493   7.435   9.055  0.4316 -0.3142 -0.2872
32113SOL    HW1 1150   7.458   7.464   9.139 -1.1658 -0.7795 -0.7528
32113SOL    HW2 1151   7.440   7.483   8.990  1.0907 -0.5738 -1.0251
32114SOL     OW 1152  12.089   0.667   9.441 -1.1145 -0.0884  0.2928
32114SOL    HW1 1153  12.057   0.691   9.528 -0.6944  0.3358  0.3331
32114SOL    HW2 1154  12.165   0.723   9.427 -1.6773  0.4633 -0.7001
32115SOL     OW 1155   5.839   6.041   0.508 -0.1837  0.3766 -0.2014
32115SOL    HW1 1156   5.781   6.104   0.466  1.4137  0.6512 -2.1649
32115SOL    HW2 1157   5.918   6.091   0.529  0.4613 -0.5960 -0.2309
32116SOL     OW 1158   7.312   9.690   6.952 -0.1280  0.9836  0.2985
32116SOL    HW1 1159   7.388   9.647   6.914 -0.2974  1.5305 -0.7328
32116SOL    HW2 1160   7.311   9.776   6.910 -1.0684  1.1382  0.6169
32117SOL     OW 1161   7.758  11.583   5.229  0.3005 -0.2058 -0.2610
32117SOL    HW1 1162   7.761  11.488   5.230 -2.7113 -0.4012 -0.1386
32117SOL    HW2 1163   7.668  11.604   5.205  0.8823  2.6237 -0.3323
32118SOL     OW 1164   4.150   5.679   3.978 -0.4409  0.1770  0.5107
32118SOL    HW1 1165   4.220   5.667   4.043 -0.2201  1.0967  0.4616
32118SOL    HW2 1166   4.135   5.592   3.942  2.5062  0.2845 -1.3486
32119SOL     OW 1167   9.740   8.493  10.976  0.2722  0.1273  0.1727
32119SOL    HW1 1168   9.678   8.566  10.985  1.6834  1.4676 -0.5380
32119SOL    HW2 1169   9.826   8.533  10.988  1.0983 -1.3962 -0.4235
32120SOL     OW 1170  11.338  10.183   3.525 -0.2101 -0.2269 -0.4809
32120SOL    HW1 1171  11.317  10.160   3.616  1.9919 -1.0747 -0.1326
32120SOL    HW2 1172  11.281  10.126   3.472 -0.0336 -1.2391  0.3835
32121SOL     OW 1173   6.988   8.063   0.617 -0.1222 -0.0165  0.2816
32121SOL    HW1 1174   6.986   8.012   0.537  2.1685 -1.9899  1.3806
32121SOL    HW2 1175   7.075   8.103   0.619  0.1086 -0.4918  2.0132
32122SOL     OW 1176   2.899  11.985   3.530 -0.4127 -0.4094  0.0648
32122SOL    HW1 1177   2.840  12.049   3.491 -2.2711 -1.1008  1.5760
32122SOL    HW2 1178   2.843  11.932   3.586  1.4795 -1.8468  0.7006
32123SOL     OW 1179   0.420   7.208   4.303  0.2230 -0.1627  0.0078
32123SOL    HW1 1180   0.477   7.166   4.239  1.7319  1.0526  0.4987
32123SOL    HW2 1181   0.444   7.301   4.300 -1.7026  0.3904  0.2842
32124SOL     OW 1182  11.694   1.593  12.365  0.0673 -0.0392 -0.0102
32124SOL    HW1 1183  11.714   1.536  12.291  0.1876  1.4595 -1.1796
32124SOL    HW2 1184  11.601   1.578  12.381 -0.3323  0.6457 -1.4463
32125SOL     OW 1185   0.164   0.030   5.101  0.4510  0.2695  0.0485
32125SOL    HW1 1186   0.092  -0.004   5.153  0.7119  1.3032  1.1054
32125SOL    HW2 1187   0.217   0.081   5.162  0.3157  2.2250 -1.3751
32126SOL     OW 1188  11.438   2.448   1.726 -0.1996  0.6337  0.2802
32126SOL    HW1 1189  11.432   2.507   1.801  0.4031  0.6025  0.3609
32126SOL    HW2 1190  11.396   2.496   1.654  2.6190  2.4052 -0.3759
32127SOL     OW 1191   6.297   9.576  12.181  0.2673  0.0849 -0.3631
32127SOL    HW1 1192   6.286   9.517  12.107  0.4039 -2.8756  1.7778
32127SOL    HW2 1193   6.382   9.617  12.168  2.6236 -4.0585  0.3314
32128SOL     OW 1194   8.287   2.338  11.684 -0.3886 -0.0871 -0.2960
32128SOL    HW1 1195   8.298   2.253  11.643 -0.7643  0.3309 -1.2992
32128SOL    HW2 1196   8.351   2.339  11.755  0.0006 -0.9844 -0.6230
32129SOL     OW 1197   4.565   3.797   7.872  0.2823 -0.4929 -0.7505
32129SOL    HW1 1198   4.570   3.890   7.848  0.4782 -0.6129 -1.1712
32129SOL    HW2 1199   4.501   3.795   7.944  0.9069  0.0845 -0.1603
32130SOL     OW 1200   2.954   2.401   4.017  0.5309 -0.6425 -0.2394
32130SOL    HW1 1201   3.040   2.410   4.059 -0.4852  0.1606  1.7886
32130SOL    HW2 1202   2.939   2.307   4.012  0.6529 -0.7582  1.3319
32131SOL     OW 1203   9.613   8.788   6.988  0.5047  0.0739 -0.1625
32131SOL    HW1 1204   9.580   8.723   6.926  0.4695  0.4009 -0.4904
32131SOL    HW2 1205   9.655   8.854   6.933 -1.4362  1.5054 -0.0109
32132SOL     OW 1206   4.361   7.744   6.572  0.5453  0.1459  0.1510
32132SOL    HW1 1207   4.331   7.724   6.660  0.1490  0.7723  0.1665
32132SOL    HW2 1208   4.388   7.660   6.535 -0.4350 -0.2998  0.4349
32133SOL     OW 1209   1.091   6.892   8.720 -0.2012 -0.3614 -0.4761
32133SOL    HW1 1210   1.073   6.980   8.752 -0.9226 -0.7013  0.0841
32133SOL    HW2 1211   1.142   6.851   8.789 -1.3507 -0.9421  0.0356
32134SOL     OW 1212   8.722   3.843   2.232 -0.2018 -0.8610 -0.6002
32134SOL    HW1 1213   8.775   3.832   2.311 -0.6791 -3.7777 -0.5842
32134SOL    HW2 1214   8.639   3.879   2.264  0.3643  0.0699 -0.1135
32135SOL     OW 1215   2.999  11.847   6.756 -0.3783 -0.2711 -0.7950
32135SOL    HW1 1216   3.007  11.897   6.675  2.4453 -0.9420 -1.0369
32135SOL    HW2 1217   3.046  11.899   6.821 -1.7484 -0.2318  0.2104
32136SOL     OW 1218   9.460   7.946  10.564  0.2765  0.5417 -0.2809
32136SOL    HW1 1219   9.538   7.931  10.510  0.6345 -1.5706  0.7316
32136SOL    HW2 1220   9.488   8.010  10.630  1.3890 -0.6906  0.4798
32137SOL     OW 1221   2.185  11.944   7.548  0.0243 -0.2035 -0.1206
32137SOL    HW1 1222   2.237  11.986   7.617  0.6110  0.1804 -0.7748
32137SOL    HW2 1223   2.116  12.007   7.529  2.0852  1.5602 -2.5524
32138SOL     OW 1224   8.810   2.367   2.487  0.1259  0.5384  0.0271
32138SOL    HW1 1225   8.786   2.352   2.395  0.5270 -0.2814  0.0509
32138SOL    HW2 1226   8.763   2.447   2.511 -0.5270  0.3820 -0.6887
32139SOL     OW 1227   8.576   6.252   0.870 -0.7122  0.2966 -0.0096
32139SOL    HW1 1228   8.494   6.267   0.916 -0.7987  0.9313 -0.3569
32139SOL    HW2 1229   8.575   6.158   0.849 -1.4173  0.3256 -0.1365
32140SOL     OW 1230   7.118   5.506   0.375 -0.0596 -0.8621  0.2650
32140SOL    HW1 1231   7.046   5.540   0.322 -1.5729 -1.2636  1.9416
32140SOL    HW2 1232   7.090   5.417   0.399  1.0026 -1.0362  0.9459
32141SOL     OW 1233   7.866  10.473   9.376 -0.1696  0.4036  0.1168
32141SOL    HW1 1234   7.944  10.500   9.326 -1.0265  3.3121  0.1566
32141SOL    HW2 1235   7.853  10.381   9.352  2.6067  0.1267 -0.7403
32142SOL     OW 1236   2.009   6.282   1.658  0.5225  0.0201  0.1284
32142SOL    HW1 1237   2.001   6.359   1.602  0.5580 -1.9262 -2.7813
32142SOL    HW2 1238   2.098   6.286   1.692  1.2634  0.2513 -1.7137
32143SOL     OW 1239   5.232  12.012  10.256  0.1092  0.1101 -0.3258
32143SOL    HW1 1240   5.239  12.028  10.350  1.1544 -0.8286 -0.2272
32143SOL    HW2 1241   5.313  12.049  10.219 -1.0771  2.0783 -1.1187
32144SOL     OW 1242   0.379   4.627   6.338 -0.5997  0.2605  0.4743
32144SOL    HW1 1243   0.459   4.593   6.378 -1.0642  0.1842  1.3526
32144SOL    HW2 1244   0.389   4.722   6.342 -0.6150  0.2521  0.7031
32145SOL     OW 1245   8.278   4.224   5.727 -0.0331  0.1006 -0.4126
32145SOL    HW1 1246   8.357   4.178   5.698 -0.1001 -0.3699  0.1421
32145SOL    HW2 1247   8.262   4.191   5.816  0.2013  1.5601  0.1940
32146SOL     OW 1248  12.091   8.083   7.490 -0.0845  0.4048  0.7233
32146SOL    HW1 1249  12.010   8.048   7.453  0.2295 -1.2454  1.4664
32146SOL    HW2 1250  12.135   8.124   7.416 -0.4635 -0.9158 -0.2895
32147SOL     OW 1251  11.582   8.629   4.867  0.0628 -0.4338 -0.5956
32147SOL    HW1 1252  11.514   8.650   4.931  0.4154 -1.1881  0.0373
32147SOL    HW2 1253  11.535   8.592   4.793 -0.2152 -1.0256 -0.1292
32148SOL     OW 1254   6.768   6.841   1.083  0.1666  0.4519 -0.4336
32148SOL    HW1 1255   6.678   6.872   1.083 -0.1007 -0.2910  0.3962
32148SOL    HW2 1256   6.778   6.796   0.999 -0.5718 -0.4016 -0.0740
32149SOL     OW 1257   8.753   0.946   4.313 -0.2577  0.4431  0.3251
32149SOL    HW1 1258   8.818   0.928   4.381  0.9508 -0.3723 -0.9899
32149SOL    HW2 1259   8.671   0.958   4.360  0.0129 -2.6164  1.8022
32150SOL     OW 1260   2.982   7.332   5.536 -0.0177 -0.2704  0.2698
32150SOL    HW1 1261   2.917   7.287   5.590 -0.5103 -0.3323 -0.3712
32150SOL    HW2 1262   3.011   7.267   5.473 -1.2625  0.4598 -1.1327
32151SOL     OW 1263   7.115   5.694   8.341  0.5111  0.8528  0.6270
32151SOL    HW1 1264   7.116   5.636   8.418  0.5523  2.0610  1.5591
32151SOL    HW2 1265   7.149   5.777   8.373 -0.3638  1.6709 -0.4753
32152SOL     OW 1266   4.234   7.910  11.389  0.3082 -0.1139  0.8618
32152SOL    HW1 1267   4.286   7.869  11.458 -1.8413 -0.4788  2.3365
32152SOL    HW2 1268   4.194   7.836  11.343  1.8067  0.1194 -0.9360
32153SOL     OW 1269   2.224   3.873   0.568 -0.9831  0.0382 -0.5975
32153SOL    HW1 1270   2.218   3.958   0.524  0.7860  0.6687  0.2725
32153SOL    HW2 1271   2.312   3.872   0.606 -1.6510 -1.4054  1.0290
32154SOL     OW 1272  10.452   5.629   8.415 -0.0426  0.0758  0.0911
32154SOL    HW1 1273  10.490   5.552   8.374  2.6110  1.6217 -0.5708
32154SOL    HW2 1274  10.362   5.631   8.381 -1.1464 -4.0028  2.1060
32155SOL     OW 1275   0.226   2.398   3.318  0.6540 -0.3420  0.1264
32155SOL    HW1 1276   0.237   2.313   3.362  0.4123 -0.9570 -0.9576
32155SOL    HW2 1277   0.132   2.403   3.300  0.7186 -0.0094 -0.1184
32156SOL     OW 1278   0.010   0.458   3.444 -0.1114 -0.1342 -0.5663
32156SOL    HW1 1279   0.088   0.421   3.403 -0.6938 -0.8784 -1.0527
32156SOL    HW2 1280  -0.035   0.382   3.483 -1.3967  0.0163 -1.6765
32157SOL     OW 1281   2.754   8.565   5.083 -0.3258  0.1635 -0.1324
32157SOL    HW1 1282   2.678   8.605   5.041 -0.8021  1.0849  1.5128
32157SOL    HW2 1283   2.807   8.640   5.112 -0.3571 -0.3908  1.4544
32158SOL     OW 1284   7.735   2.110   3.974  0.9352 -0.1678 -0.1235
32158SOL    HW1 1285   7.822   2.143   3.994  1.3979 -1.3585 -0.0926
32158SOL    HW2 1286   7.750   2.040   3.910 -0.0246 -0.2005 -0.3319
32159SOL     OW 1287   1.001  10.439   6.385  0.6060 -0.8625 -0.0807
32159SOL    HW1 1288   0.918  10.393   6.374 -1.3465  2.1964  0.5118
32159SOL    HW2 1289   1.018  10.480   6.300  0.6389 -0.1978  0.2376
32160SOL     OW 1290   1.092   8.826   4.199 -0.2294  0.6101  0.0151
32160SOL    HW1 1291   1.132   8.815   4.112  0.2957 -0.5641  0.3745
32160SOL    HW2 1292   1.166   8.824   4.259 -0.6132  1.1811  0.5063
32161SOL     OW 1293   1.385  10.835   7.647  0.6721  0.5443  0.8319
32161SOL    HW1 1294   1.398  10.751   7.603  0.1273  1.1068 -0.4737
32161SOL    HW2 1295   1.333  10.814   7.724 -1.7411 -0.0240 -0.8539
32162SOL     OW 1296   7.035   0.304   2.567  0.2728 -0.5697 -0.3943
32162SOL    HW1 1297   7.100   0.240   2.540  2.2665  0.5522  1.4192
32162SOL    HW2 1298   7.062   0.386   2.525 -1.0412 -0.4281 -1.0337
32163SOL     OW 1299  11.485  11.974   5.114  0.1078 -0.0544 -0.4018
32163SOL    HW1 1300  11.580  11.976   5.103  0.3644 -0.7150  1.3221
32163SOL    HW2 1301  11.463  12.060   5.151 -0.0597  0.3308 -1.3852
32164SOL     OW 1302   9.013   2.198  11.645 -0.1952  0.1665 -0.4572
32164SOL    HW1 1303   8.955   2.167  11.716  1.2796 -0.0453  0.7103
32164SOL    HW2 1304   8.965   2.179  11.565 -1.5247 -0.4695  0.4521
32165SOL     OW 1305   5.900   2.833   5.093  0.0011  0.0796 -0.3670
32165SOL    HW1 1306   5.903   2.905   5.155  2.4534  0.8173 -1.2190
32165SOL    HW2 1307   5.992   2.811   5.077 -0.6126 -1.5657 -2.0300
32166SOL     OW 1308   8.163  11.642   5.162 -0.3060 -0.5257  0.2247
32166SOL    HW1 1309   8.219  11.708   5.204 -0.7053 -0.0079 -0.0444
32166SOL    HW2 1310   8.134  11.586   5.234  0.1645 -0.5056  0.4344
32167SOL     OW 1311  12.577   5.967   5.164  0.7302  0.1516 -0.1015
32167SOL    HW1 1312  12.654   5.914   5.187  0.1683 -0.6426 -0.0212
32167SOL    HW2 1313  12.567   5.954   5.069  0.4076 -0.1356 -0.0283
32168SOL     OW 1314   6.102   7.175   4.349 -0.0764 -0.4815 -0.0193
32168SOL    HW1 1315   6.087   7.268   4.333  0.9038 -0.5058 -1.2496
32168SOL    HW2 1316   6.072   7.132   4.269 -0.1105 -1.1784  0.3636
32169SOL     OW 1317   8.204   2.301   7.010 -0.3407 -0.6418 -1.0374
32169SOL    HW1 1318   8.285   2.272   7.050 -0.9331  0.9326  1.5915
32169SOL    HW2 1319   8.231   2.354   6.934  1.1366  0.2708  0.0868
32170SOL     OW 1320   8.887  11.311   7.073  0.3140 -0.3845 -0.2326
32170SOL    HW1 1321   8.884  11.258   6.994  1.2421 -0.7074 -0.0611
32170SOL    HW2 1322   8.826  11.267   7.133 -1.8284  0.8978 -1.3524
32171SOL     OW 1323   7.972   7.627   1.814 -0.0991  0.0408  0.0909
32171SOL    HW1 1324   8.010   7.714   1.830 -0.0021 -0.0362  0.2800
32171SOL    HW2 1325   7.972   7.585   1.899  1.4151 -0.7727 -0.2815
32172SOL     OW 1326   5.799   7.991   6.234  0.0581 -0.3764 -0.3482
32172SOL    HW1 1327   5.807   8.013   6.327  1.5978  0.1376 -0.5704
32172SOL    HW2 1328   5.806   8.075   6.188  0.4279 -0.7359 -0.9718
32173SOL     OW 1329   0.184   0.971   2.891  0.1457 -0.3564 -0.4763
32173SOL    HW1 1330   0.208   1.022   2.968 -1.3581  0.2343 -0.3652
32173SOL    HW2 1331   0.109   1.017   2.854 -0.7425 -2.0146 -0.8537
32174SOL     OW 1332   6.926   4.138   8.123  0.1463  0.3703 -0.0818
32174SOL    HW1 1333   6.958   4.108   8.037 -0.0173 -0.0267 -0.0050
32174SOL    HW2 1334   6.966   4.224   8.134  1.4185 -0.2293  0.1367
32175SOL     OW 1335   8.726   8.341   8.530  0.1802 -0.5059 -0.0734
32175SOL    HW1 1336   8.713   8.368   8.439 -0.9985  0.7162  0.4306
32175SOL    HW2 1337   8.690   8.252   8.533  0.6232 -0.7285 -0.8826
32176SOL     OW 1338  10.496   5.035   0.022  0.1435 -0.0106 -0.0896
32176SOL    HW1 1339  10.535   5.088   0.092 -1.0709  0.5091  0.2233
32176SOL    HW2 1340  10.555   4.960   0.013  1.0687  0.6247  0.5270
32177SOL     OW 1341  10.840   8.413   0.226  0.1627 -0.1187  0.5025
32177SOL    HW1 1342  10.819   8.484   0.286 -0.6834 -1.5069  1.9016
32177SOL    HW2 1343  10.899   8.453   0.162  0.4849  1.5943  1.8022
32178SOL     OW 1344   0.207   6.470   5.691 -0.0331  0.0484 -0.5499
32178SOL    HW1 1345   0.146   6.401   5.717  0.6015  0.1830  1.4911
32178SOL    HW2 1346   0.151   6.546   5.675 -0.5279 -0.1858  0.0196
32179SOL     OW 1347   8.999   7.306   8.344  0.2731  0.0287 -0.2726
32179SOL    HW1 1348   9.078   7.286   8.294 -0.5310 -2.2316 -0.7602
32179SOL    HW2 1349   8.971   7.392   8.311  1.2970 -0.1317 -1.6719
32180SOL     OW 1350   4.246   0.473   2.253 -0.0784 -0.2765 -0.5846
32180SOL    HW1 1351   4.174   0.536   2.252  1.4219  1.5716  1.0299
32180SOL    HW2 1352   4.223   0.412   2.322 -0.0684  0.3590 -0.0147
32181SOL     OW 1353   8.734   7.259  12.175  0.2841 -0.0603  0.4974
32181SOL    HW1 1354   8.677   7.336  12.178  0.6405  0.1754  1.6450
32181SOL    HW2 1355   8.674   7.185  12.178 -0.0125  0.1773  0.5579
32182SOL     OW 1356   9.243   3.008   2.943 -0.8063 -0.1231 -0.3728
32182SOL    HW1 1357   9.236   2.938   2.878  0.9710 -0.5121 -0.2038
32182SOL    HW2 1358   9.282   3.081   2.895 -0.1910 -0.1558  0.0602
32183SOL     OW 1359   2.697  11.292  11.151  0.3779  0.0779  0.5560
32183SOL    HW1 1360   2.735  11.299  11.239 -0.4117  0.0951  0.9022
32183SOL    HW2 1361   2.757  11.234  11.104  0.4887 -0.4253  1.2863
32184SOL     OW 1362   5.264   2.089  12.041 -0.1141 -0.5913 -0.1244
32184SOL    HW1 1363   5.304   2.119  11.960  1.3295 -1.2811  0.2924
32184SOL    HW2 1364   5.298   2.148  12.108 -1.6530  0.2604 -0.0573
32185SOL     OW 1365   2.704   2.215   6.502 -0.1903 -0.5013 -0.0367
32185SOL    HW1 1366   2.738   2.127   6.485  1.5386  0.2757 -0.9767
32185SOL    HW2 1367   2.724   2.263   6.422 -0.7104  0.8644  0.6280
32186SOL     OW 1368   7.631   2.142   5.976  0.1506 -0.6118  0.3827
32186SOL    HW1 1369   7.624   2.070   6.039 -1.6084  1.1356  2.3494
32186SOL    HW2 1370   7.551   2.135   5.924 -0.9289  0.8269  1.7383
32187SOL     OW 1371  12.496   5.633  10.403 -0.0041 -0.5990  0.3974
32187SOL    HW1 1372  12.518   5.575  10.330 -2.3332 -0.9164 -0.1219
32187SOL    HW2 1373  12.404   5.616  10.421  0.2285  0.2328  2.7654
32188SOL     OW 1374   2.941   3.224   2.832  0.3103 -0.0479  0.3627
32188SOL    HW1 1375   2.910   3.296   2.887  1.0755  0.7732 -0.2490
32188SOL    HW2 1376   2.954   3.263   2.746 -0.4630 -1.2239 -0.3120
32189SOL     OW 1377   1.168   5.211  11.896 -0.7001 -0.1302  0.0605
32189SOL    HW1 1378   1.101   5.224  11.829  0.5690  0.1169 -1.2013
32189SOL    HW2 1379   1.240   5.267  11.869  0.4518 -1.2169  0.7686
32190SOL     OW 1380  11.116   7.815  10.110 -0.0524  0.0498  0.0660
32190SOL    HW1 1381  11.128   7.874  10.036 -0.5265  1.2626  0.9160
32190SOL    HW2 1382  11.082   7.734  10.071  0.9671  0.1831 -1.1687
32191SOL     OW 1383   1.831   3.596   4.153 -1.2379  0.0187  0.0509
32191SOL    HW1 1384   1.746   3.639   4.164 -1.9668 -1.1632 -0.6785
32191SOL    HW2 1385   1.843   3.547   4.235 -2.1513 -1.2405 -0.5264
32192SOL     OW 1386   0.127   2.912   1.426  0.6166  0.0854  0.0291
32192SOL    HW1 1387   0.164   2.855   1.493  1.0058  0.3052  0.0063
32192SOL    HW2 1388   0.201   2.933   1.369 -0.2835 -2.7514 -2.4348
32193SOL     OW 1389  10.029   1.685   4.431 -0.0870  0.2326 -0.2345
32193SOL    HW1 1390  10.055   1.638   4.510  1.0502 -0.1644 -0.8104
32193SOL    HW2 1391  10.050   1.625   4.360  1.4047  1.5642 -1.0011
32194SOL     OW 1392   8.340   6.285   8.380  0.3874 -0.2042 -0.3487
32194SOL    HW1 1393   8.399   6.300   8.453 -0.4340 -0.8999  0.4870
32194SOL    HW2 1394   8.281   6.361   8.382  0.8283  0.1548 -0.7683
32195SOL     OW 1395   3.743   8.150   4.719 -0.4166 -0.3746  0.0583
32195SOL    HW1 1396   3.753   8.159   4.625  1.0177  0.3021  0.2413
32195SOL    HW2 1397   3.830   8.168   4.754 -1.4764  2.2492  1.7002
32196SOL     OW 1398  10.040   0.167  10.591 -0.3730  0.3156  0.5081
32196SOL    HW1 1399  10.099   0.092  10.585 -0.9620 -0.2532  1.4576
32196SOL    HW2 1400  10.097   0.242  10.606  0.0703 -0.4301  2.9152
32197SOL     OW 1401   8.355   9.384   7.524 -0.0995 -0.1888  0.0589
32197SOL    HW1 1402   8.331   9.324   7.594  0.1846  0.3389  0.6141
32197SOL    HW2 1403   8.384   9.327   7.453  1.0221 -0.6925  0.8909
32198SOL     OW 1404   7.288   1.856   4.902  0.0572  0.5075 -0.1950
32198SOL    HW1 1405   7.213   1.895   4.856 -0.7664  2.0015  2.2052
32198SOL    HW2 1406   7.259   1.850   4.993  2.1398 -0.8641  0.4276
32199SOL     OW 1407   1.420   5.830   1.307  0.2871  0.0852  0.3678
32199SOL    HW1 1408   1.447   5.846   1.217  0.3010  1.2834  0.5622
32199SOL    HW2 1409   1.450   5.741   1.327  1.3332  0.2545 -0.4143
32200SOL     OW 1410   2.067   1.566   1.646 -0.1981  0.2351 -0.3460
32200SOL    HW1 1411   2.083   1.653   1.608  0.8873  0.2847  0.1679
32200SOL    HW2 1412   1.982   1.574   1.690 -1.8037 -0.0094 -3.1818
32201SOL     OW 1413   8.675   9.094   4.476  0.1023  0.1405  0.0044
32201SOL    HW1 1414   8.636   9.115   4.561 -0.0513  1.5769 -0.3920
32201SOL    HW2 1415   8.761   9.057   4.497  0.1415  0.6569  0.7742
32202SOL     OW 1416   1.851   1.542  10.949  0.1325 -0.7292  0.0606
32202SOL    HW1 1417   1.835   1.477  10.881 -1.1877 -0.2473 -0.1119
32202SOL    HW2 1418   1.850   1.492  11.031 -0.4573 -0.9940 -0.1035
32203SOL     OW 1419   0.980   6.843   7.319 -1.1802 -0.8124  0.2368
32203SOL    HW1 1420   0.907   6.886   7.362 -0.3997  1.1761 -0.3163
32203SOL    HW2 1421   0.954   6.837   7.227 -0.1893  1.1576 -0.2367
32204SOL     OW 1422   0.126   2.716  11.033 -0.1304 -0.6039 -0.2622
32204SOL    HW1 1423   0.155   2.680  11.116  0.5043 -0.6260 -0.4874
32204SOL    HW2 1424   0.171   2.800  11.026  1.3704 -1.4529 -1.4585
32205SOL     OW 1425   8.971  10.805   5.540 -0.0508  0.2354 -0.2579
32205SOL    HW1 1426   8.920  10.835   5.465 -0.9680 -0.1649  0.1910
32205SOL    HW2 1427   8.925  10.727   5.570 -0.4597  1.1136  1.5122
32206SOL     OW 1428  10.163   4.559   2.998 -0.1606  0.3551  0.2141
32206SOL    HW1 1429  10.164   4.644   3.041 -1.9523  0.7788 -0.5112
32206SOL    HW2 1430  10.195   4.575   2.910 -0.0068  0.1771  0.2362
32207SOL     OW 1431   0.868   8.365   9.142 -0.7872 -0.6276  0.2664
32207SOL    HW1 1432   0.859   8.452   9.104 -1.9099 -1.1636 -0.7555
32207SOL    HW2 1433   0.815   8.368   9.222  0.2570  0.0045  0.9628
32208SOL     OW 1434   8.712   6.793   1.532 -0.0647 -0.0178 -0.0176
32208SOL    HW1 1435   8.631   6.815   1.578 -1.0181  0.0691 -1.6321
32208SOL    HW2 1436   8.779   6.793   1.600 -1.3869  0.0456  1.3532
32209SOL     OW 1437   2.868  10.570   4.287  0.3186  0.0778  0.4583
32209SOL    HW1 1438   2.848  10.609   4.201  0.1444 -1.4939 -0.2519
32209SOL    HW2 1439   2.941  10.511   4.270  1.3001  0.8675  1.7315
32210SOL     OW 1440   1.212   7.344   8.483 -0.2484  0.4191  0.5740
32210SOL    HW1 1441   1.201   7.328   8.389 -0.5340  1.0697  0.4851
32210SOL    HW2 1442   1.282   7.410   8.488  0.3460 -0.2198  0.8719
32211SOL     OW 1443   0.429  10.701   8.383 -0.2914 -0.2418  0.0161
32211SOL    HW1 1444   0.497  10.762   8.411  0.1969 -1.4113  1.5457
32211SOL    HW2 1445   0.452  10.619   8.427 -1.7612 -1.1128 -0.7829
32212SOL     OW 1446   3.399  11.760  10.926 -0.4055 -0.0276  0.1905
32212SOL    HW1 1447   3.424  11.669  10.941 -1.2256  0.0722  2.8184
32212SOL    HW2 1448   3.468  11.811  10.969 -1.9095  0.3969  2.2715
32213SOL     OW 1449   6.749   5.608   7.793  0.0097 -0.3114 -0.2692
32213SOL    HW1 1450   6.684   5.539   7.784 -0.1822 -0.1945  0.1724
32213SOL    HW2 1451   6.713   5.666   7.860  0.0566  0.3463 -0.8001
32214SOL     OW 1452   1.980   7.004   5.744 -0.6539 -0.1479  0.1660
32214SOL    HW1 1453   1.956   6.916   5.774 -1.0981  0.3427  1.3169
32214SOL    HW2 1454   2.036   7.038   5.813 -1.4189  0.8964  0.2942
32215SOL     OW 1455   9.148  12.311   7.277  0.1182  0.3070 -0.0363
32215SOL    HW1 1456   9.189  12.376   7.221  0.4585 -1.6991 -2.2804
32215SOL    HW2 1457   9.198  12.231   7.262  0.3433 -0.3492  3.3635
32216SOL     OW 1458  10.073   7.508   5.539 -0.2389 -0.1623 -0.2930
32216SOL    HW1 1459  10.028   7.571   5.484 -0.8389 -1.0695 -0.8717
32216SOL    HW2 1460  10.002   7.458   5.581  0.2065 -1.2800 -0.8307
32217SOL     OW 1461   9.049   8.285   9.090  0.3551  0.4373  0.2451
32217SOL    HW1 1462   9.090   8.240   9.163  1.1293 -0.7572 -0.8798
32217SOL    HW2 1463   9.008   8.362   9.129  1.2376  0.1415  1.8323
32218SOL     OW 1464   1.856   1.062   0.017  0.5168 -0.0072 -0.5094
32218SOL    HW1 1465   1.898   0.976   0.018  0.8800 -0.0366 -4.1255
32218SOL    HW2 1466   1.800   1.060  -0.061 -1.5895  2.1428  0.8239
32219SOL     OW 1467   5.534   1.293   1.605  0.5053  0.6602 -0.2733
32219SOL    HW1 1468   5.469   1.335   1.662  0.9779  0.4055  0.4621
32219SOL    HW2 1469   5.543   1.205   1.640  0.7318  0.4720 -0.8067
32220SOL     OW 1470  12.567   6.237   4.866 -0.0307 -0.2306  0.0494
32220SOL    HW1 1471  12.476   6.265   4.872 -0.3268 -1.1808  0.2561
32220SOL    HW2 1472  12.593   6.219   4.956 -0.2222 -1.6755 -0.1603
32221SOL     OW 1473   3.027   0.136   9.023  0.0050  0.2097 -0.4774
32221SOL    HW1 1474   3.034   0.043   9.000 -2.0963  0.1899 -1.2975
32221SOL    HW2 1475   3.033   0.137   9.119  0.9387 -0.6436 -0.5079
32222SOL     OW 1476  12.623  11.806  12.176  0.2092  0.1334 -0.4653
32222SOL    HW1 1477  12.533  11.834  12.190 -0.3813 -0.7027 -2.2208
32222SOL    HW2 1478  12.656  11.866  12.109  0.6965 -0.0585 -0.4021
32223SOL     OW 1479   5.442   3.290   2.671  0.1773  0.1400 -0.4336
32223SOL    HW1 1480   5.480   3.230   2.606 -0.4006  0.0188 -0.6656
32223SOL    HW2 1481   5.514   3.307   2.732  0.2512 -1.0916 -0.1478
32224SOL     OW 1482   9.958  11.394   3.375  0.6898  0.4956 -0.1209
32224SOL    HW1 1483  10.020  11.326   3.347  0.3087 -0.0017  0.2337
32224SOL    HW2 1484   9.894  11.347   3.428  0.3684  1.1207  0.0441
32225SOL     OW 1485   8.154   5.723   3.333  0.2871 -0.4079  0.5636
32225SOL    HW1 1486   8.088   5.787   3.362  0.2678  0.8089 -1.9002
32225SOL    HW2 1487   8.116   5.684   3.254  2.2972 -0.0396 -0.6332
32226SOL     OW 1488   1.631   2.856   6.385  0.3451 -0.6068 -0.2670
32226SOL    HW1 1489   1.681   2.914   6.442  0.4341  0.4107 -1.3457
32226SOL    HW2 1490   1.634   2.771   6.429  2.8017 -0.5236 -0.1232
32227SOL     OW 1491   9.425   8.056   1.013  0.0634 -0.0357 -0.4200
32227SOL    HW1 1492   9.457   8.015   1.093  2.2747  0.6358 -0.8910
32227SOL    HW2 1493   9.462   8.004   0.942  0.5515  1.0383 -0.9915
32228SOL     OW 1494   5.744   1.107  11.407  0.1252 -0.0102  0.2249
32228SOL    HW1 1495   5.738   1.161  11.485 -0.9359  1.1315 -0.6043
32228SOL    HW2 1496   5.739   1.017  11.439  0.1959  0.4270  1.4896
32229SOL     OW 1497  12.565   3.718   1.552 -0.4554  0.0128  0.3177
32229SOL    HW1 1498  12.500   3.649   1.560  0.0289 -0.2809  2.3125
32229SOL    HW2 1499  12.586   3.742   1.642  2.6788 -0.3888 -0.1728
32230SOL     OW 1500   8.821  10.269  12.569  0.1911 -0.3152  0.3265
32230SOL    HW1 1501   8.819  10.351  12.518  1.0216 -1.2601 -1.3008
32230SOL    HW2 1502   8.836  10.298  12.659  1.0494  1.3149 -0.2827
32231SOL     OW 1503   8.555   6.487  10.238  0.0377 -0.2314  0.0871
32231SOL    HW1 1504   8.460   6.479  10.232 -0.2753  0.0793  2.9279
32231SOL    HW2 1505   8.571   6.582  10.236 -0.0099 -0.1483  1.7516
32232SOL     OW 1506   2.579   0.136   7.894  0.4392 -0.1031  0.0539
32232SOL    HW1 1507   2.641   0.066   7.913  1.3680  0.6379 -0.1542
32232SOL    HW2 1508   2.516   0.132   7.966  0.0365 -1.6268 -0.3714
32233SOL     OW 1509  12.246   6.674   7.210 -0.0323  0.2593 -0.6660
32233SOL    HW1 1510  12.234   6.616   7.286  0.1541 -1.0536 -1.5914
32233SOL    HW2 1511  12.310   6.628   7.156 -1.2789  0.4031 -2.3299
32234SOL     OW 1512   2.168   8.715   5.985  0.0455  0.7387  0.2674
32234SOL    HW1 1513   2.106   8.786   5.996  0.1013  1.0687 -1.2831
32234SOL    HW2 1514   2.252   8.752   6.011 -0.3434  0.3050  2.3249
32235SOL     OW 1515  11.167   1.737   6.699 -0.2133  0.7902  0.4410
32235SOL    HW1 1516  11.198   1.814   6.747 -0.1645  0.2528  1.2892
32235SOL    HW2 1517  11.177   1.761   6.607  0.3662  1.5697  0.6927
32236SOL     OW 1518   0.637   6.995   9.133  0.4250 -0.0400 -0.5209
32236SOL    HW1 1519   0.573   7.061   9.106  0.2306 -0.3759 -0.8904
32236SOL    HW2 1520   0.720   7.025   9.098  0.1664 -0.4952 -1.5453
32237SOL     OW 1521  12.137   1.361   9.437  0.7833 -0.1181 -0.7401
32237SOL    HW1 1522  12.123   1.266   9.442 -1.4035  0.1831 -0.1941
32237SOL    HW2 1523  12.143   1.379   9.344  0.5342 -0.7164 -0.8780
32238SOL     OW 1524   8.954  12.535   5.260 -0.6782 -0.1404  0.1960
32238SOL    HW1 1525   8.998  12.451   5.245 -0.8600  0.0983 -2.1098
32238SOL    HW2 1526   8.862  12.516   5.245 -0.5271  0.8055 -2.5526
32239SOL     OW 1527  10.435   1.893   4.089  0.5164  0.4029 -0.8244
32239SOL    HW1 1528  10.434   1.812   4.139 -0.6382  1.2301  0.5701
32239SOL    HW2 1529  10.386   1.873   4.009 -0.5989 -0.0302 -0.0545
32240SOL     OW 1530  11.892   9.157   2.822  0.5105  0.1542  0.9991
32240SOL    HW1 1531  11.825   9.095   2.849 -0.9147  1.9448  1.8278
32240SOL    HW2 1532  11.974   9.107   2.822 -0.9351 -2.5326 -1.5390
32241SOL     OW 1533  12.189   4.607   7.580 -0.0743 -0.1186  0.0658
32241SOL    HW1 1534  12.241   4.554   7.519 -0.5277 -0.3206 -0.1460
32241SOL    HW2 1535  12.249   4.624   7.653  0.4263  0.0017 -0.3670
32242SOL     OW 1536   0.623   3.695   7.416  0.4584 -0.1421  0.3228
32242SOL    HW1 1537   0.618   3.653   7.330  0.8352 -0.8559  0.6416
32242SOL    HW2 1538   0.661   3.782   7.398  0.1945 -0.1446 -0.2701
32243SOL     OW 1539  10.735   7.657   6.272  0.5703 -0.1305 -0.2926
32243SOL    HW1 1540  10.800   7.602   6.315  1.2745  0.2848 -0.8112
32243SOL    HW2 1541  10.664   7.596   6.249  0.6133 -0.5206  0.5661
32244SOL     OW 1542  12.566   3.305  12.425 -0.3377  1.0760  0.4927
32244SOL    HW1 1543  12.586   3.327  12.334 -2.1412  1.4009  0.1381
32244SOL    HW2 1544  12.634   3.349  12.476  1.3188  0.0403 -0.7214
32245SOL     OW 1545   9.835   1.046   8.066  0.2258 -0.7437 -0.0012
32245SOL    HW1 1546   9.804   1.017   7.980  0.1405 -0.0393 -0.2128
32245SOL    HW2 1547   9.872   0.967   8.106 -1.0803 -1.4152 -0.0753
32246SOL     OW 1548   6.322   6.374  12.195 -0.6241  0.3873  0.4342
32246SOL    HW1 1549   6.314   6.280  12.179 -1.0164  0.1646  1.8127
32246SOL    HW2 1550   6.303   6.384  12.288 -3.4336  2.1478 -0.2079
32247SOL     OW 1551   7.628   9.592   1.603  0.0834  0.3485 -0.3396
32247SOL    HW1 1552   7.706   9.602   1.658 -1.1713 -0.3822  1.6870
32247SOL    HW2 1553   7.554   9.603   1.663 -1.3859 -0.0865 -1.9733
32248SOL     OW 1554  10.346  10.484   9.745 -0.0688 -0.3391 -0.2293
32248SOL    HW1 1555  10.435  10.475   9.711  0.2191  2.1732 -0.3296
32248SOL    HW2 1556  10.347  10.435   9.827  1.7197  0.4249  0.2505
32249SOL     OW 1557   3.069   4.376   3.071 -0.4793 -0.2781  0.0652
32249SOL    HW1 1558   3.005   4.446   3.086 -1.5714 -1.1480 -0.3254
32249SOL    HW2 1559   3.065   4.361   2.976  1.0112  0.2849 -0.1000
32250SOL     OW 1560   0.141  11.240   2.833  0.1530  0.4263 -0.1598
32250SOL    HW1 1561   0.143  11.255   2.927  1.0501  2.5809 -0.4651
32250SOL    HW2 1562   0.050  11.218   2.814 -0.0089 -0.1686  1.2119
32251SOL     OW 1563   3.311   8.383   1.070 -0.3351 -0.8939 -0.2565
32251SOL    HW1 1564   3.254   8.360   1.143 -0.9901 -1.6809 -0.9826
32251SOL    HW2 1565   3.377   8.313   1.068 -0.1397 -0.7101 -0.2274
32252SOL     OW 1566  11.671  11.310  10.165  0.2800 -0.1163 -0.0241
32252SOL    HW1 1567  11.750  11.297  10.113 -0.4916  0.6700 -1.4472
32252SOL    HW2 1568  11.702  11.314  10.255  1.5706 -2.3959 -0.2826
32253SOL     OW 1569   8.226   0.080   8.952  0.3004  0.0214  0.3914
32253SOL    HW1 1570   8.141   0.093   8.994 -0.0115 -1.2327  0.1808
32253SOL    HW2 1571   8.272   0.020   9.009  0.3528 -0.7129 -0.3987
32254SOL     OW 1572   8.654   3.050  10.571 -0.0144 -0.4655 -0.0985
32254SOL    HW1 1573   8.712   3.125  10.558  0.8265 -0.7702  1.5832
32254SOL    HW2 1574   8.714   2.977  10.587 -0.7820 -1.6913 -2.3796
32255SOL     OW 1575   8.230   3.067   1.709  0.0240 -0.4450  0.3908
32255SOL    HW1 1576   8.243   2.980   1.670 -0.9246  0.4719 -2.2079
32255SOL    HW2 1577   8.313   3.086   1.754  0.8984 -1.9727 -0.5016
32256SOL     OW 1578   3.427   3.604   4.532  0.0502 -0.1160 -0.2574
32256SOL    HW1 1579   3.480   3.529   4.561 -0.9963 -2.3310 -3.4685
32256SOL    HW2 1580   3.479   3.644   4.461 -0.1157  1.2685  0.3751
32257SOL     OW 1581   1.852  12.235   4.161  0.3593 -0.1166 -0.0079
32257SOL    HW1 1582   1.846  12.324   4.127  0.3963  0.5995  1.7448
32257SOL    HW2 1583   1.924  12.195   4.111  1.4124  1.3641  0.2439
32258SOL     OW 1584   2.415   8.577  10.435 -0.5001 -0.2029 -0.5022
32258SOL    HW1 1585   2.497   8.615  10.404 -1.0517  0.7371 -0.8729
32258SOL    HW2 1586   2.361   8.653  10.457 -1.0609 -0.8211  0.2978
32259SOL     OW 1587   3.686   2.273   2.992 -0.7174 -0.0569  0.2333
32259SOL    HW1 1588   3.750   2.334   2.955 -0.3692 -1.2435 -1.2184
32259SOL    HW2 1589   3.601   2.314   2.974 -0.4862  2.2495  3.4440
32260SOL     OW 1590   7.500   0.021  11.443 -0.4778  0.0012 -0.1803
32260SOL    HW1 1591   7.447   0.003  11.364  0.0874 -1.4179 -0.2700
32260SOL    HW2 1592   7.436   0.051  11.508 -1.2040 -0.4327 -0.6754
32261SOL     OW 1593   2.863  10.826  11.766 -0.1410  0.0023  0.3801
32261SOL    HW1 1594   2.770  10.812  11.748 -0.2306  1.5151 -0.5677
32261SOL    HW2 1595   2.891  10.749  11.815 -1.6231 -1.0165 -0.3203
32262SOL     OW 1596  11.007   5.060   8.290  0.0984 -0.4017  0.5189
32262SOL    HW1 1597  11.065   5.000   8.335 -0.5291 -0.5770  1.1080
32262SOL    HW2 1598  10.974   5.119   8.358  1.9345  1.6857 -0.2759
32263SOL     OW 1599   4.292   5.692   9.320  0.3634 -0.0456 -0.5585
32263SOL    HW1 1600   4.268   5.704   9.412  2.6366 -1.8736  0.3887
32263SOL    HW2 1601   4.357   5.761   9.303  0.5640 -0.2225 -0.5181
32264SOL     OW 1602   8.088   0.518  10.228  0.0446  0.6754  0.2622
32264SOL    HW1 1603   8.041   0.531  10.146  0.1274 -1.0864 -0.1072
32264SOL    HW2 1604   8.024   0.538  10.296 -0.2926  1.2773 -0.2172
32265SOL     OW 1605  10.142  10.109   8.298  0.3976  0.5470  0.1916
32265SOL    HW1 1606  10.136  10.182   8.359  2.0759  0.3387  0.6576
32265SOL    HW2 1607  10.216  10.131   8.241  0.6788 -0.5921  0.0848
32266SOL     OW 1608   1.873   2.619   8.842 -0.0039  0.5057  0.0469
32266SOL    HW1 1609   1.801   2.566   8.806 -1.2637  1.9453  0.3319
32266SOL    HW2 1610   1.852   2.628   8.935  0.8876  0.4199  0.2588
32267SOL     OW 1611   2.366   3.771  11.313  0.0224  0.0279  0.2491
32267SOL    HW1 1612   2.376   3.865  11.298 -1.5718  0.4180  1.3279
32267SOL    HW2 1613   2.273   3.754  11.301  0.3274 -1.4806 -0.2037
32268SOL     OW 1614  10.359   8.777  11.238 -0.2431 -0.3972 -0.2655
32268SOL    HW1 1615  10.350   8.756  11.331 -1.1984 -0.0617 -0.2722
32268SOL    HW2 1616  10.298   8.719  11.194  1.1852 -1.5289 -0.8530
32269SOL     OW 1617   5.168   3.283   6.043 -0.3912  0.1729 -0.7092
32269SOL    HW1 1618   5.142   3.228   5.969 -0.6947 -1.4268  0.5254
32269SOL    HW2 1619   5.260   3.263   6.056 -0.5653 -0.2557 -0.0990
32270SOL     OW 1620   7.062   4.162   1.087 -0.4920 -0.5381  0.5098
32270SOL    HW1 1621   7.076   4.248   1.128  1.3308 -0.8042  0.5262
32270SOL    HW2 1622   7.018   4.182   1.004  1.4176  0.6179 -0.2856
32271SOL     OW 1623  10.194  10.563   4.200  0.0299  0.2915  0.1468
32271SOL    HW1 1624  10.170  10.571   4.108  1.0458  0.8995 -0.0764
32271SOL    HW2 1625  10.263  10.628   4.213  0.5140 -0.3913  1.1173
32272SOL     OW 1626   0.299  10.264   2.797 -0.4667 -0.2086  0.0772
32272SOL    HW1 1627   0.284  10.194   2.861 -0.1004 -0.0075  0.3850
32272SOL    HW2 1628   0.299  10.344   2.848 -2.4139  0.1906 -0.4772
32273SOL     OW 1629   4.464  11.761   4.659 -0.1623  0.1816 -0.0732
32273SOL    HW1 1630   4.399  11.830   4.648 -0.2110  0.4755  1.7557
32273SOL    HW2 1631   4.449  11.727   4.747  0.7663 -1.2264 -0.4144
32274SOL     OW 1632  10.804   3.209   2.005  0.1685 -0.1330  0.7383
32274SOL    HW1 1633  10.784   3.289   1.956  0.6207 -0.1079  0.5967
32274SOL    HW2 1634  10.718   3.168   2.019 -0.0790  0.4292  0.9066
32275SOL     OW 1635   2.413  11.415   3.609 -0.1248  0.7725  0.5385
32275SOL    HW1 1636   2.385  11.483   3.671  1.3492  1.7904  0.1501
32275SOL    HW2 1637   2.404  11.456   3.523  0.8252  0.5150  0.3009
32276SOL     OW 1638   5.389  12.621  10.092  0.0990 -0.2107  0.3248
32276SOL    HW1 1639   5.301  12.652  10.113  0.3880  0.9762 -0.1411
32276SOL    HW2 1640   5.430  12.694  10.047  0.5510 -1.5463 -1.5444
32277SOL     OW 1641   6.014   4.893   8.733  0.5452 -0.5424  0.1707
32277SOL    HW1 1642   5.999   4.842   8.654  2.1130 -0.4716 -0.2162
32277SOL    HW2 1643   6.049   4.977   8.701  0.6482 -0.2934  0.9115
32278SOL     OW 1644  10.306   7.570   8.303 -0.4923  0.4593  0.2807
32278SOL    HW1 1645  10.374   7.637   8.291  1.1885 -0.7827  2.2302
32278SOL    HW2 1646  10.263   7.593   8.385  0.1230 -0.7955  0.9921
32279SOL     OW 1647   4.118   8.064   8.645 -0.0847 -0.7115 -0.0848
32279SOL    HW1 1648   4.192   8.004   8.650  1.2967  0.8925 -0.4778
32279SOL    HW2 1649   4.083   8.067   8.734  1.0057 -0.6744  0.3602
32280SOL     OW 1650  11.156  11.700  11.544  0.0897  0.1505 -0.3928
32280SOL    HW1 1651  11.064  11.718  11.560 -0.0053  0.0249 -0.7713
32280SOL    HW2 1652  11.162  11.604  11.544  0.3387  0.1581  0.2651
32281SOL     OW 1653   4.100  12.641   6.258  0.6592 -0.6223 -0.3599
32281SOL    HW1 1654   4.183  12.594   6.264 -0.1299 -1.8681  2.2526
32281SOL    HW2 1655   4.069  12.646   6.349 -1.5850  0.7965 -1.1308
32282SOL     OW 1656   8.780   8.221   7.077 -0.4170  0.2437  0.1536
32282SOL    HW1 1657   8.730   8.262   7.148  0.6051 -0.6109  1.4135
32282SOL    HW2 1658   8.722   8.226   7.001 -0.9519  2.5964  0.6183
32283SOL     OW 1659  12.524   0.117  10.333 -0.2608  0.3619  0.4290
32283SOL    HW1 1660  12.598   0.112  10.273 -1.8094  1.2996 -1.6507
32283SOL    HW2 1661  12.451   0.078  10.285 -1.5807  1.1806  1.6936
32284SOL     OW 1662   9.626   5.576  12.633 -0.1844 -0.6144 -0.1813
32284SOL    HW1 1663   9.693   5.508  12.639  0.9068  0.5460  2.7868
32284SOL    HW2 1664   9.589   5.581  12.721 -0.6249  2.2121 -0.4372
32285SOL     OW 1665   0.002   1.336   4.120 -0.0280 -0.1486 -0.2220
32285SOL    HW1 1666   0.007   1.415   4.065 -1.3623  0.3138  0.2765
32285SOL    HW2 1667  -0.051   1.275   4.070 -0.7308  0.0464  0.2708
32286SOL     OW 1668   5.116   8.538   9.677  0.0824  0.4267 -0.8680
32286SOL    HW1 1669   5.057   8.468   9.649  0.6461 -1.0384  1.3168
32286SOL    HW2 1670   5.074   8.575   9.755  0.7400  1.2020 -0.8632
32287SOL     OW 1671   2.980   7.951   9.389 -0.2561 -0.6083  0.4913
32287SOL    HW1 1672   2.894   7.916   9.411 -1.3004  1.4074 -0.1262
32287SOL    HW2 1673   2.985   8.034   9.435  1.6498 -0.9473  0.9935
32288SOL     OW 1674  12.536  12.040   6.738 -0.0847  0.1369  0.6009
32288SOL    HW1 1675  12.452  12.086   6.735 -0.7964 -1.1660 -0.3872
32288SOL    HW2 1676  12.521  11.967   6.799  1.6489  2.2308  3.8353
32289SOL     OW 1677   2.741   3.508   3.530  0.1653 -0.0167 -0.0952
32289SOL    HW1 1678   2.752   3.462   3.613  0.1567  0.6470  0.2791
32289SOL    HW2 1679   2.829   3.542   3.510  0.1146  0.0327 -0.2337
32290SOL     OW 1680   7.701   1.622   8.487  0.4875  0.1623 -0.1921
32290SOL    HW1 1681   7.615   1.611   8.528  0.1864  1.4812 -0.3972
32290SOL    HW2 1682   7.709   1.548   8.427 -0.1940 -0.3703  0.3589
32291SOL     OW 1683   1.532   2.469   6.251 -0.7161  0.4566  0.7337
32291SOL    HW1 1684   1.628   2.467   6.243 -0.8696 -0.2478 -1.5407
32291SOL    HW2 1685   1.510   2.562   6.250  0.0404  0.8068  4.0781
32292SOL     OW 1686  12.527   6.586   3.939  0.4341  0.1222  0.2007
32292SOL    HW1 1687  12.463   6.603   4.008 -0.1843 -2.0528  0.2442
32292SOL    HW2 1688  12.602   6.546   3.985  0.5663 -0.1115 -0.2084
32293SOL     OW 1689   6.459  12.257  10.504 -0.1358 -0.6082 -0.2095
32293SOL    HW1 1690   6.395  12.315  10.547  0.2810 -1.0786  1.0978
32293SOL    HW2 1691   6.438  12.263  10.411 -1.7291 -0.3243  0.1337
32294SOL     OW 1692   3.816   6.686   8.473 -0.3281 -0.4035  0.0803
32294SOL    HW1 1693   3.908   6.705   8.490  0.1028 -0.0547 -2.3901
32294SOL    HW2 1694   3.789   6.635   8.549  1.9496 -0.6818  0.7888
32295SOL     OW 1695   6.891   3.419   2.245  0.1216 -0.2253 -0.1558
32295SOL    HW1 1696   6.872   3.334   2.284 -0.0284  0.0499  0.3794
32295SOL    HW2 1697   6.807   3.465   2.244  0.7163  1.1797  2.6740
32296SOL     OW 1698   1.074   8.334   7.646 -0.7472 -0.0898 -0.0234
32296SOL    HW1 1699   1.041   8.245   7.634 -3.3705  0.9051 -0.9470
32296SOL    HW2 1700   1.077   8.370   7.558  3.0836 -0.0596 -0.0208
32297SOL     OW 1701   8.730   1.910  10.702  0.3197  0.3143 -0.1517
32297SOL    HW1 1702   8.647   1.915  10.655  1.5631 -2.6342 -3.0889
32297SOL    HW2 1703   8.711   1.857  10.780 -1.1075  2.4376  1.0287
32298SOL     OW 1704   5.666   9.737   6.750 -0.4097  0.3469 -0.1940
32298SOL    HW1 1705   5.711   9.788   6.682 -1.4621  0.8480 -0.5287
32298SOL    HW2 1706   5.576   9.770   6.750 -0.7273 -0.4689  0.6375
32299SOL     OW 1707   6.090   5.203   8.761 -0.2894 -0.2486 -0.2199
32299SOL    HW1 1708   6.134   5.214   8.677  3.3766 -0.2588  1.5205
32299SOL    HW2 1709   6.145   5.250   8.824 -1.9588 -1.6003  2.4457
32300SOL     OW 1710   4.582   3.707   7.609  0.3866 -0.9472  0.2858
32300SOL    HW1 1711   4.580   3.746   7.696  0.8143 -0.8577  0.2565
32300SOL    HW2 1712   4.492   3.716   7.577  0.4690 -0.0265  0.2883
32301SOL     OW 1713   6.842   9.236   2.715  0.5612  0.1825 -0.5832
32301SOL    HW1 1714   6.917   9.253   2.772  0.4276 -1.2798  0.0847
32301SOL    HW2 1715   6.866   9.273   2.630  1.4773  0.8831 -0.0304
32302SOL     OW 1716  10.160  10.301  10.645  0.4962  0.1467 -0.3182
32302SOL    HW1 1717  10.075  10.260  10.660  1.3678 -2.1799 -1.2473
32302SOL    HW2 1718  10.175  10.293  10.551  0.8654  2.4526 -0.5185
32303SOL     OW 1719   3.494   8.684   2.004 -0.1774 -0.5507  0.3292
32303SOL    HW1 1720   3.485   8.607   2.059 -2.3706 -1.0787 -0.6260
32303SOL    HW2 1721   3.503   8.650   1.915  1.0296  0.3012  0.0950
32304SOL     OW 1722  12.525  12.032  10.498  0.3770  0.0806  0.1465
32304SOL    HW1 1723  12.549  11.981  10.575  0.7655 -0.2623 -0.1906
32304SOL    HW2 1724  12.430  12.037  10.500  0.2991 -1.1545 -0.1216
32305SOL     OW 1725   4.042   5.288   2.896 -0.5048  0.1871 -0.2232
32305SOL    HW1 1726   3.991   5.368   2.908 -1.2271 -0.2688 -0.2237
32305SOL    HW2 1727   3.978   5.217   2.900  0.1415 -0.4037 -0.1096
32306SOL     OW 1728   0.976   0.321   6.193 -0.0207 -0.7525 -0.1656
32306SOL    HW1 1729   0.972   0.225   6.198  0.6164 -0.8684 -1.4807
32306SOL    HW2 1730   1.069   0.341   6.197 -0.1429 -0.2003 -0.0430
32307SOL     OW 1731   0.751   6.765   1.755  0.1382 -0.0053  0.6476
32307SOL    HW1 1732   0.714   6.765   1.667  0.2295  1.5677  0.5752
32307SOL    HW2 1733   0.771   6.673   1.773  0.1875 -0.3432 -0.9854
32308SOL     OW 1734   5.459   6.963   0.378  0.5242  0.3101  0.6327
32308SOL    HW1 1735   5.432   7.028   0.313 -1.6219 -0.1133  1.0342
32308SOL    HW2 1736   5.383   6.953   0.436  0.9008 -2.2536  0.8173
32309SOL     OW 1737   8.863   3.586   7.036 -0.0555  0.0055  0.0854
32309SOL    HW1 1738   8.856   3.518   6.970 -3.7609 -1.5080  1.7599
32309SOL    HW2 1739   8.890   3.664   6.988  0.5771 -1.7398 -2.5811
32310SOL     OW 1740   8.789   8.598  10.205  0.3161 -0.6633  0.6066
32310SOL    HW1 1741   8.845   8.642  10.141  0.8395 -0.0092  1.4942
32310SOL    HW2 1742   8.847   8.583  10.280 -0.4823 -0.7474  1.2129
32311SOL     OW 1743   1.505   0.983   8.246  0.0661  0.0280  0.4708
32311SOL    HW1 1744   1.517   1.067   8.290  0.8671 -0.8400  2.0199
32311SOL    HW2 1745   1.435   0.998   8.183  0.9676  2.1422 -0.1220
32312SOL     OW 1746   0.973   0.319  11.565  0.0099  0.0486  0.0053
32312SOL    HW1 1747   0.886   0.354  11.546 -0.7577 -1.7880 -0.0577
32312SOL    HW2 1748   1.001   0.366  11.643 -0.2853  1.8764 -0.9259
32313SOL     OW 1749   7.038   9.924   8.904 -0.2066 -0.2508  0.1989
32313SOL    HW1 1750   7.050   9.895   8.995  0.3020 -1.4589 -0.2275
32313SOL    HW2 1751   7.073  10.013   8.902 -0.1377 -0.2439  1.1663
32314SOL     OW 1752   6.638  11.276  11.319 -0.7508 -0.2396  0.2822
32314SOL    HW1 1753   6.549  11.294  11.349 -1.5845 -0.9309 -1.6312
32314SOL    HW2 1754   6.629  11.259  11.225  1.2054 -1.7004  0.3005
32315SOL     OW 1755   1.412  11.860   4.571  0.1937 -0.0808 -0.2969
32315SOL    HW1 1756   1.322  11.836   4.551  0.4329 -0.9234 -0.4097
32315SOL    HW2 1757   1.417  11.954   4.553 -0.5013 -0.1488 -0.8723
32316SOL     OW 1758   6.479   9.760   9.303  0.3989  0.3733  0.6055
32316SOL    HW1 1759   6.571   9.770   9.329  0.4371  1.7487  0.0365
32316SOL    HW2 1760   6.461   9.666   9.315  1.6697  0.1946  1.3600
32317SOL     OW 1761  12.272   7.195  10.027  0.4466 -0.9200 -0.0646
32317SOL    HW1 1762  12.222   7.218   9.948  2.4096 -2.3940 -1.8567
32317SOL    HW2 1763  12.346   7.255  10.026 -0.5088  0.3627  1.8265
32318SOL     OW 1764   5.039   8.284   9.055 -0.3576 -0.5530  0.0484
32318SOL    HW1 1765   5.098   8.254   8.986 -1.2310  0.5732 -1.2348
32318SOL    HW2 1766   5.062   8.230   9.131  0.5474 -1.9125 -1.1373
32319SOL     OW 1767  11.291   4.149  11.091  0.4007  0.1118  0.2346
32319SOL    HW1 1768  11.362   4.146  11.155  0.7644 -1.2319 -0.1967
32319SOL    HW2 1769  11.240   4.227  11.114  3.4392  2.6660 -1.0146
32320SOL     OW 1770  11.221   0.330   3.933 -1.0079  0.1114  0.8259
32320SOL    HW1 1771  11.207   0.294   4.020  1.2568  1.8858  2.0095
32320SOL    HW2 1772  11.164   0.407   3.929 -0.7648  0.2927  0.8940
32321SOL     OW 1773   3.233   3.792   1.346 -0.0951  0.5722 -0.1747
32321SOL    HW1 1774   3.328   3.800   1.352 -0.1734  0.7995  0.9094
32321SOL    HW2 1775   3.198   3.862   1.401 -0.8981  0.5674 -0.6500
32322SOL     OW 1776  12.221   5.105   1.780  0.4851 -0.7394  0.1359
32322SOL    HW1 1777  12.218   5.147   1.866  1.8429  1.5092 -0.8376
32322SOL    HW2 1778  12.144   5.048   1.779 -0.7172  0.7244  2.0785
32323SOL     OW 1779   6.768  12.487   8.771  0.7644 -0.1932  0.0679
32323SOL    HW1 1780   6.702  12.465   8.706 -0.3428  0.7160  0.8400
32323SOL    HW2 1781   6.730  12.559   8.821  2.9385  1.3963 -0.3843
32324SOL     OW 1782   0.072   1.915   3.337 -0.0718 -0.1619 -0.4941
32324SOL    HW1 1783   0.025   1.937   3.417 -0.0388 -1.7597  0.0101
32324SOL    HW2 1784   0.008   1.867   3.284  0.3859 -0.5793 -0.6781
32325SOL     OW 1785   2.317  11.159   9.220  0.5481  0.0732  0.8506
32325SOL    HW1 1786   2.410  11.175   9.236  0.5565 -1.5989  2.9161
32325SOL    HW2 1787   2.309  11.064   9.220 -0.8321  0.0884 -1.8440
32326SOL     OW 1788   2.781   9.651   8.495  0.3745  0.2817  0.0322
32326SOL    HW1 1789   2.779   9.644   8.400  1.2000 -2.0720  0.1078
32326SOL    HW2 1790   2.692   9.629   8.523 -0.8603  4.1978 -0.1908
32327SOL     OW 1791   2.713  10.548   7.357 -0.2452 -0.5661  0.6111
32327SOL    HW1 1792   2.761  10.541   7.274 -0.8518 -1.0543  0.2890
32327SOL    HW2 1793   2.723  10.461   7.397 -0.5674 -0.5578  0.7078
32328SOL     OW 1794   4.529   9.938  10.183  0.2742 -0.4213  0.2107
32328SOL    HW1 1795   4.587   9.951  10.109 -0.2743  2.6930  0.2072
32328SOL    HW2 1796   4.582   9.891  10.248  2.8211  2.1503  0.1680
32329SOL     OW 1797   8.880   6.692   4.774 -0.0296 -0.7879  0.1258
32329SOL    HW1 1798   8.819   6.630   4.734 -0.5433 -0.4054  0.3017
32329SOL    HW2 1799   8.885   6.764   4.711 -0.9905 -0.0950  0.8288
32330SOL     OW 1800  11.536   7.575  10.999  0.3736 -0.1874  0.0804
32330SOL    HW1 1801  11.534   7.601  10.907 -0.5234 -0.0753  0.1218
32330SOL    HW2 1802  11.583   7.492  10.999  0.1549 -0.3221 -0.5217
32331SOL     OW 1803   8.394   3.040   5.100 -0.1616  0.4684 -0.1458
32331SOL    HW1 1804   8.312   3.062   5.056 -0.4305  1.2996  0.7328
32331SOL    HW2 1805   8.383   3.072   5.189  0.8143 -0.1391  0.2134
32332SOL     OW 1806  10.982  12.232  11.616  0.2990  0.3445 -0.4402
32332SOL    HW1 1807  10.939  12.289  11.553  0.4586  0.9466 -0.0066
32332SOL    HW2 1808  11.010  12.156  11.564 -1.7533 -0.3473 -0.6456
32333SOL     OW 1809   4.959   7.367   0.084 -0.3679  0.6536 -0.0261
32333SOL    HW1 1810   4.999   7.326   0.161 -0.0733  1.0219  0.0251
32333SOL    HW2 1811   4.896   7.430   0.120 -0.5204  0.5380 -0.0928
32334SOL     OW 1812   3.419   6.137   5.811  0.0981 -0.6888 -0.1461
32334SOL    HW1 1813   3.406   6.068   5.877  2.8282 -1.1211  0.0448
32334SOL    HW2 1814   3.483   6.101   5.750  0.8507  1.3074 -0.6070
32335SOL     OW 1815   2.261   2.212  11.290  0.7216 -0.6129  0.3546
32335SOL    HW1 1816   2.193   2.259  11.340  0.4634  0.3474 -0.8639
32335SOL    HW2 1817   2.227   2.122  11.284 -1.9216  0.4015 -2.5969
32336SOL     OW 1818   7.553  11.002   3.900  0.0996  0.4875  0.2970
32336SOL    HW1 1819   7.521  11.022   3.812 -0.6506 -0.3297  0.3602
32336SOL    HW2 1820   7.647  10.988   3.889  0.0446  0.5880 -0.3381
32337SOL     OW 1821   7.654   1.985   5.516 -0.5047  0.0713 -0.1548
32337SOL    HW1 1822   7.569   1.996   5.475  0.0308  0.3692 -1.2111
32337SOL    HW2 1823   7.654   2.048   5.589 -1.9603 -1.3889  1.1787
32338SOL     OW 1824   5.385   5.762   8.346 -0.1060 -0.0701 -0.1118
32338SOL    HW1 1825   5.335   5.683   8.367  0.4935  0.1164  2.3776
32338SOL    HW2 1826   5.321   5.821   8.306 -1.5108 -0.4655  1.4302
32339SOL     OW 1827   0.790   6.117  12.330 -0.9301  0.5419  0.5472
32339SOL    HW1 1828   0.698   6.097  12.311 -0.0138 -2.6903 -1.3714
32339SOL    HW2 1829   0.812   6.187  12.269 -2.0036  1.0750  0.7421
32340SOL     OW 1830  11.460  12.057  11.542  0.0554  0.4707  0.1124
32340SOL    HW1 1831  11.432  12.020  11.625  0.0741 -0.1990 -0.1708
32340SOL    HW2 1832  11.411  12.007  11.476  0.1791  0.8679 -0.2795
32341SOL     OW 1833   0.626   5.491   0.402  0.9697  0.1633  0.3226
32341SOL    HW1 1834   0.666   5.510   0.487  1.8048  0.1217 -0.0529
32341SOL    HW2 1835   0.653   5.564   0.346  1.1367 -0.2439 -0.1390
32342SOL     OW 1836   7.149   3.880  12.181  0.0854 -0.4843 -0.5463
32342SOL    HW1 1837   7.124   3.878  12.089 -0.1207  1.1246 -0.5539
32342SOL    HW2 1838   7.222   3.819  12.188 -1.0606 -2.0221 -1.3952
32343SOL     OW 1839   1.883   8.915  10.525  0.2050  0.2810 -0.4150
32343SOL    HW1 1840   1.881   8.944  10.617  0.2773  2.1692 -0.9615
32343SOL    HW2 1841   1.933   8.834  10.527  0.5244  0.4788  1.1806
32344SOL     OW 1842   3.391   1.886   4.675  0.0474 -0.8707 -0.7191
32344SOL    HW1 1843   3.339   1.952   4.629 -0.3786  0.1730  1.1709
32344SOL    HW2 1844   3.473   1.931   4.696  0.1325 -1.2402 -0.2391
32345SOL     OW 1845  10.663   8.799   0.199 -0.3139 -0.4998  0.2962
32345SOL    HW1 1846  10.702   8.730   0.253  0.3024 -1.4845 -1.3440
32345SOL    HW2 1847  10.571   8.775   0.191 -0.3256 -0.5560  0.5990
32346SOL     OW 1848   5.774   3.155   4.845 -0.0709  0.3712 -0.1599
32346SOL    HW1 1849   5.852   3.119   4.887  0.3972  0.2347 -1.1234
32346SOL    HW2 1850   5.806   3.193   4.763 -0.7620  1.8038  0.2015
32347SOL     OW 1851   7.534   3.046   8.807 -0.0767  0.6181  0.8368
32347SOL    HW1 1852   7.582   3.127   8.825 -0.2744  0.7977  0.5614
32347SOL    HW2 1853   7.445   3.075   8.788  0.0735  0.4205 -0.2159
32348SOL     OW 1854   4.832   7.392   6.224 -0.2931 -0.4323 -0.4119
32348SOL    HW1 1855   4.827   7.314   6.280 -0.8021 -0.6591 -0.7696
32348SOL    HW2 1856   4.820   7.358   6.135  1.9168 -0.2787 -0.8284
32349SOL     OW 1857   9.851   5.543   7.658 -0.1547 -0.0229 -0.6279
32349SOL    HW1 1858   9.828   5.473   7.596  0.7568 -0.8993 -0.0072
32349SOL    HW2 1859   9.845   5.502   7.744  1.0115  0.4794 -0.2887
32350SOL     OW 1860   5.760  10.953  12.395  0.2775 -0.1486  0.0425
32350SOL    HW1 1861   5.839  10.992  12.432  0.4743 -2.5108  2.3349
32350SOL    HW2 1862   5.783  10.935  12.304  1.7536  0.7438  0.1992
32351SOL     OW 1863  12.293   9.506   4.531  0.6217  0.1651 -0.3682
32351SOL    HW1 1864  12.253   9.591   4.512  2.9492  0.9669 -2.1266
32351SOL    HW2 1865  12.338   9.482   4.450  1.1747 -2.1154  0.5311
32352SOL     OW 1866   0.400   8.280   1.408  0.2366 -0.1895 -0.3447
32352SOL    HW1 1867   0.308   8.258   1.394  0.4302 -1.3670  0.0755
32352SOL    HW2 1868   0.405   8.375   1.396 -1.2560  0.0769  0.8014
32353SOL     OW 1869  11.061   2.062   9.814  0.1452 -0.8664 -0.4504
32353SOL    HW1 1870  10.967   2.068   9.831  0.2844  0.7845 -0.0892
32353SOL    HW2 1871  11.101   2.118   9.880  1.2994 -0.5408 -1.3835
32354SOL     OW 1872   8.471   7.311   1.733 -0.2197  0.4472  0.2634
32354SOL    HW1 1873   8.422   7.233   1.709  1.0078  0.0036 -0.9425
32354SOL    HW2 1874   8.528   7.283   1.804  2.1643 -0.6001 -1.8839
32355SOL     OW 1875  11.307   7.571   7.566  0.0667  0.4977  0.5788
32355SOL    HW1 1876  11.306   7.594   7.659 -0.3620 -0.0235  0.7092
32355SOL    HW2 1877  11.367   7.634   7.527 -0.4976  1.3556  1.0482
32356SOL     OW 1878  12.031  10.544   4.164 -0.4142  0.0573  0.4662
32356SOL    HW1 1879  11.964  10.612   4.156 -1.3101 -0.7789  0.6487
32356SOL    HW2 1880  11.988  10.474   4.212 -0.7056 -2.1101 -2.6563
32357SOL     OW 1881  10.685   8.262   2.234 -0.3063  0.7596  0.1663
32357SOL    HW1 1882  10.616   8.217   2.283 -0.4240  0.2298 -0.4806
32357SOL    HW2 1883  10.761   8.206   2.244 -0.8177 -0.3834 -1.8501
32358SOL     OW 1884   7.291   0.377   2.289 -0.0221  0.2096  0.1168
32358SOL    HW1 1885   7.366   0.383   2.230  0.2392  2.0699  0.5681
32358SOL    HW2 1886   7.318   0.314   2.355  0.1255 -1.0406 -1.0901
32359SOL     OW 1887   1.807   4.032   8.089  0.0798 -0.2832 -0.0236
32359SOL    HW1 1888   1.901   4.044   8.099 -0.2764  0.3316  3.9736
32359SOL    HW2 1889   1.782   3.972   8.160 -2.6203 -0.1205 -0.7087
32360SOL     OW 1890  10.241   9.010   2.451 -0.8061  0.6677  0.2802
32360SOL    HW1 1891  10.161   9.010   2.398 -0.6966 -1.4743  0.0222
32360SOL    HW2 1892  10.302   9.066   2.403 -1.3850  0.4081 -0.7848
32361SOL     OW 1893  12.240   4.681   5.775  0.2809  0.1490  0.6875
32361SOL    HW1 1894  12.224   4.642   5.689 -1.8203  0.1172  1.0412
32361SOL    HW2 1895  12.159   4.668   5.823 -0.5005  4.5917  0.9866
32362SOL     OW 1896   5.244   4.191   2.402 -0.3504 -0.1334 -0.3911
32362SOL    HW1 1897   5.336   4.171   2.381 -0.0348 -1.3060  1.7151
32362SOL    HW2 1898   5.203   4.105   2.411 -1.0154  0.3015  1.0701
32363SOL     OW 1899   3.927  11.268   0.733  0.2691  0.7299  0.3569
32363SOL    HW1 1900   3.840  11.295   0.703 -0.1179  0.8127  1.5152
32363SOL    HW2 1901   3.980  11.266   0.653 -0.4395  2.0328 -0.1811
32364SOL     OW 1902   4.895   2.340   1.628 -0.7273  0.0393  0.8072
32364SOL    HW1 1903   4.954   2.275   1.590  0.9144  2.1137 -0.4005
32364SOL    HW2 1904   4.833   2.359   1.558 -0.2062  0.9191  0.5755
32365SOL     OW 1905   4.741   9.364   5.819  0.8805 -0.2389 -0.4223
32365SOL    HW1 1906   4.817   9.417   5.795 -1.2489  3.2483 -0.1891
32365SOL    HW2 1907   4.690   9.356   5.738  1.2411 -2.2024 -0.4960
32366SOL     OW 1908   5.507   9.369   6.480  0.6200 -0.0293 -0.0646
32366SOL    HW1 1909   5.492   9.280   6.446  0.2150 -0.0431  0.1450
32366SOL    HW2 1910   5.430   9.387   6.535  0.2071  0.8384 -0.8952
32367SOL     OW 1911   0.749   6.916   7.395 -0.1050  0.2676 -0.1096
32367SOL    HW1 1912   0.688   6.843   7.384  0.5458 -0.1050 -1.5559
32367SOL    HW2 1913   0.693   6.993   7.405 -0.8180 -0.4799  2.3171
32368SOL     OW 1914   4.601  11.648   7.798 -0.4927  0.1527  0.2311
32368SOL    HW1 1915   4.662  11.701   7.850 -0.0795 -1.6121  1.6354
32368SOL    HW2 1916   4.645  11.637   7.714  0.4888  0.0769  0.7444
32369SOL     OW 1917   7.891   7.360   7.377 -0.0799  0.5149  0.3351
32369SOL    HW1 1918   7.836   7.358   7.455  1.7743  2.1621  1.7940
32369SOL    HW2 1919   7.971   7.406   7.404  1.3141 -0.2166 -2.1223
32370SOL     OW 1920   5.814  11.694   8.606  0.1182  0.0003 -0.3252
32370SOL    HW1 1921   5.902  11.731   8.617  0.1860 -0.7025  2.0832
32370SOL    HW2 1922   5.760  11.769   8.580  1.1794  0.7129 -0.5405
32371SOL     OW 1923  10.952   4.021   5.545 -0.0112 -0.1257 -0.0438
32371SOL    HW1 1924  10.933   4.085   5.613 -1.8722 -0.1867 -0.4662
32371SOL    HW2 1925  10.987   3.945   5.592  2.5149  1.2269  0.4384
32372SOL     OW 1926   3.239   1.487   0.523 -0.0930 -0.2586  0.1733
32372SOL    HW1 1927   3.158   1.496   0.473 -0.3300  0.4509  0.6581
32372SOL    HW2 1928   3.275   1.576   0.528  1.4575 -0.7607 -1.2090
32373SOL     OW 1929   0.678   6.086   3.666  0.0429  0.4375 -0.5631
32373SOL    HW1 1930   0.758   6.124   3.628  0.2579 -0.1149 -0.6738
32373SOL    HW2 1931   0.632   6.047   3.591 -0.8443  1.6357 -0.6673
32374SOL     OW 1932   9.092   4.251   6.818  0.2704 -0.5124  0.4585
32374SOL    HW1 1933   9.161   4.315   6.835  0.5558 -0.7379  0.1603
32374SOL    HW2 1934   9.129   4.167   6.845 -0.8207 -0.3224  2.7609
32375SOL     OW 1935  10.764   6.623   4.669 -0.5540 -0.4534 -0.0009
32375SOL    HW1 1936  10.849   6.656   4.640 -1.5467  1.1490 -1.3055
32375SOL    HW2 1937  10.783   6.538   4.709  1.7919  0.4121  0.9028
32376SOL     OW 1938   0.189   7.420   3.172  0.1691  0.4552 -0.4180
32376SOL    HW1 1939   0.201   7.406   3.078  0.4502 -1.1877 -0.1598
32376SOL    HW2 1940   0.108   7.373   3.193 -0.9370  2.3750 -0.1530
32377SOL     OW 1941   9.663   2.788   1.596 -0.3363 -0.2165  0.6098
32377SOL    HW1 1942   9.669   2.883   1.609 -0.2691 -0.4258  2.2797
32377SOL    HW2 1943   9.705   2.750   1.673  1.1442 -1.6351 -0.8231
32378SOL     OW 1944   5.095  12.426   2.848  0.1804 -0.0979 -0.4653
32378SOL    HW1 1945   5.150  12.374   2.906  1.0563 -1.6371 -2.5339
32378SOL    HW2 1946   5.012  12.435   2.894  1.3438  0.1765  1.6834
32379SOL     OW 1947  10.287  11.986   6.726 -0.8329  0.4519 -0.3774
32379SOL    HW1 1948  10.319  11.903   6.691  0.5479  0.6267  0.4020
32379SOL    HW2 1949  10.240  12.026   6.653  2.7813  1.2735 -2.4984
32380SOL     OW 1950  10.655  11.226   8.603  0.0906  0.0036 -0.1534
32380SOL    HW1 1951  10.731  11.188   8.647 -0.2019 -0.4883 -0.0571
32380SOL    HW2 1952  10.691  11.276   8.530  0.5581  0.5641  0.4561
32381SOL     OW 1953   8.007   8.561   2.271  0.2851  0.4606  0.6063
32381SOL    HW1 1954   8.079   8.565   2.334  0.1430  1.0131  0.7380
32381SOL    HW2 1955   7.951   8.636   2.293  1.0760  1.6526 -1.1754
32382SOL     OW 1956  10.893  11.055   2.730  0.0112 -0.0040 -0.0152
32382SOL    HW1 1957  10.936  11.013   2.804  1.8910  1.1505 -0.3842
32382SOL    HW2 1958  10.893  10.989   2.661 -1.6337 -1.0430  0.9150
32383SOL     OW 1959   5.213   7.392   1.522  0.7581 -0.1011  0.2179
32383SOL    HW1 1960   5.140   7.447   1.495  1.5259  1.8087  1.7700
32383SOL    HW2 1961   5.173   7.317   1.564 -0.3080  0.1200 -0.3674
32384SOL     OW 1962   0.652   7.324   9.914 -1.1331 -0.2397  0.5345
32384SOL    HW1 1963   0.731   7.302   9.963 -0.5202 -0.7152 -0.6244
32384SOL    HW2 1964   0.670   7.294   9.825 -1.2833  2.6395 -0.5620
32385SOL     OW 1965   9.136   8.109   0.557 -0.2826 -0.0373  0.1238
32385SOL    HW1 1966   9.099   8.166   0.489  0.5691  1.0266  0.5381
32385SOL    HW2 1967   9.214   8.154   0.587 -0.7654 -0.3703  1.9965
32386SOL     OW 1968   2.802   6.542   2.533 -0.0440 -0.2372  0.5345
32386SOL    HW1 1969   2.730   6.579   2.481 -0.9275  0.2014  2.0044
32386SOL    HW2 1970   2.787   6.448   2.530  0.0254 -0.2322 -0.1462
32387SOL     OW 1971   2.635  12.205   7.895  0.5292  0.7018  0.1270
32387SOL    HW1 1972   2.648  12.127   7.949  0.7461 -1.3029 -2.5641
32387SOL    HW2 1973   2.542  12.227   7.907  0.0452 -0.9680 -0.1571
32388SOL     OW 1974   8.348  10.481   2.493 -0.2946  0.0283  0.7385
32388SOL    HW1 1975   8.300  10.406   2.528 -1.0414 -0.4897 -1.2174
32388SOL    HW2 1976   8.279  10.538   2.458  0.3667  0.7696  0.6249
32389SOL     OW 1977  11.414  12.283   7.430 -0.3022 -0.7532 -0.5789
32389SOL    HW1 1978  11.504  12.285   7.463 -0.3110 -0.4688 -0.5718
32389SOL    HW2 1979  11.398  12.191   7.410 -0.5127 -1.0421  0.7993
32390SOL     OW 1980   9.346   3.928   5.654 -0.0997  0.3617 -0.1828
32390SOL    HW1 1981   9.317   3.858   5.712 -0.6833  0.3902 -0.4340
32390SOL    HW2 1982   9.410   3.886   5.597  0.2861  0.2716  0.3051
32391SOL     OW 1983   7.613   3.997   0.505 -0.7324  0.1102 -0.4776
32391SOL    HW1 1984   7.573   4.061   0.446  0.7169  2.1863  0.6893
32391SOL    HW2 1985   7.605   3.913   0.458 -2.2554  1.1835 -2.2703
32392SOL     OW 1986   1.084   0.552  10.442 -0.6500  0.6856 -0.4819
32392SOL    HW1 1987   1.162   0.525  10.490 -1.0435  0.0482 -0.1921
32392SOL    HW2 1988   1.112   0.629  10.392  0.2680  0.2113 -0.7097
32393SOL     OW 1989   8.833  11.756   1.197  0.1427  0.4411 -0.1511
32393SOL    HW1 1990   8.866  11.669   1.176 -0.3330  0.4376 -0.9228
32393SOL    HW2 1991   8.896  11.792   1.260  0.5094 -0.3327 -0.0727
32394SOL     OW 1992   2.293   9.392   5.464  0.0336 -0.4007  0.3217
32394SOL    HW1 1993   2.226   9.450   5.500  1.1974  1.3995 -0.2869
32394SOL    HW2 1994   2.243   9.322   5.422 -1.6446  1.9343 -1.9386
32395SOL     OW 1995   9.057   2.232   9.624  0.3498  0.4271 -0.1350
32395SOL    HW1 1996   8.977   2.218   9.573  0.3984  1.2892 -0.4555
32395SOL    HW2 1997   9.026   2.252   9.712  0.1493  2.1234 -0.5662
32396SOL     OW 1998  11.238   6.844   6.235  0.0080  0.7681  0.2187
32396SOL    HW1 1999  11.327   6.847   6.272  0.1204 -0.5452  0.0991
32396SOL    HW2 2000  11.226   6.752   6.210 -0.6445  1.3263 -1.6204
32397SOL     OW 2001   2.452   3.262   2.043  0.9562  0.3197  0.4641
32397SOL    HW1 2002   2.438   3.208   2.120 -1.1637  1.4512  0.9365
32397SOL    HW2 2003   2.364   3.284   2.012  1.7474  1.9756 -0.7904
32398SOL     OW 2004   7.823   1.316   2.356  0.3703  0.6983  0.8780
32398SOL    HW1 2005   7.904   1.365   2.344  1.2847 -0.6278  1.4190
32398SOL    HW2 2006   7.848   1.224   2.350 -1.7518  0.1512 -3.1064
32399SOL     OW 2007   8.533   7.945  12.593  0.2863 -0.1229  0.0649
32399SOL    HW1 2008   8.445   7.969  12.565  0.6216  1.4771  0.2773
32399SOL    HW2 2009   8.555   8.009  12.661  1.0770 -1.3808  1.0305
32400SOL     OW 2010   6.207   8.016   8.420 -0.0802 -0.0562  0.2847
32400SOL    HW1 2011   6.187   7.925   8.443  1.0444  0.3479  3.4402
32400SOL    HW2 2012   6.302   8.023   8.435 -0.1506  1.6309  0.0470
32401SOL     OW 2013  11.924   8.955   1.182  0.1215  0.3148  0.4636
32401SOL    HW1 2014  12.015   8.982   1.167 -0.4052  1.6380 -0.5170
32401SOL    HW2 2015  11.905   8.987   1.271 -1.0236  5.1316 -1.2262
32402SOL     OW 2016  11.654   4.724   5.175  0.3957 -0.1660 -0.0674
32402SOL    HW1 2017  11.628   4.762   5.259  2.1243  0.0393  0.4110
32402SOL    HW2 2018  11.696   4.796   5.128 -0.8360 -0.1915 -1.2763
32403SOL     OW 2019   4.794  11.779   5.884 -0.3864  0.1824 -0.2355
32403SOL    HW1 2020   4.768  11.687   5.894 -1.4679 -0.0362 -3.7158
32403SOL    HW2 2021   4.888  11.775   5.865 -0.0492  0.0165  1.3093
32404SOL     OW 2022   1.463   1.769   7.596 -0.2124 -0.4695 -0.2841
32404SOL    HW1 2023   1.452   1.856   7.635 -0.8404 -0.7514  0.1844
32404SOL    HW2 2024   1.450   1.783   7.502 -0.9744 -0.1660 -0.1392
32405SOL     OW 2025   1.597   4.014   9.145  0.0928  0.5890 -0.5910
32405SOL    HW1 2026   1.503   4.024   9.156  0.0353 -0.0684 -0.4662
32405SOL    HW2 2027   1.634   4.097   9.176 -0.3143  0.1185  1.2760
32406SOL     OW 2028   9.090   4.349   0.576 -0.4215 -0.0334 -0.3751
32406SOL    HW1 2029   9.100   4.311   0.664 -1.4205 -0.5247 -0.4612
32406SOL    HW2 2030   9.082   4.273   0.519  0.6579  0.2760 -0.9610
32407SOL     OW 2031   6.965   8.691   2.753  0.3108 -0.0881  0.2259
32407SOL    HW1 2032   7.051   8.661   2.724  0.7047  0.3579  0.9030
32407SOL    HW2 2033   6.952   8.649   2.838 -0.0036  0.0996  0.2727
32408SOL     OW 2034   2.795   7.668   8.228 -0.4639  0.0542  0.1585
32408SOL    HW1 2035   2.853   7.594   8.246 -1.9871 -0.9928  0.9624
32408SOL    HW2 2036   2.839   7.743   8.269  1.4228 -0.2180 -1.2276
32409SOL     OW 2037   3.388  11.388   1.537  0.2602  0.0439 -0.0102
32409SOL    HW1 2038   3.404  11.293   1.541 -1.4508 -0.3232 -1.0757
32409SOL    HW2 2039   3.317  11.402   1.598  0.9820  0.7879  0.6800
32410SOL     OW 2040  10.647  11.060   3.702 -0.2646 -0.1985  0.1485
32410SOL    HW1 2041  10.596  11.055   3.783 -1.6230 -0.8872 -0.7139
32410SOL    HW2 2042  10.601  11.002   3.641 -0.3486  1.7045 -1.6886
32411SOL     OW 2043  11.051   2.096  12.084 -0.6708  0.5624 -0.0432
32411SOL    HW1 2044  11.110   2.162  12.120 -0.7675  1.2803 -1.1520
32411SOL    HW2 2045  11.110   2.031  12.045 -0.5276 -0.7041  2.0871
32412SOL     OW 2046  12.558   5.752   1.864  0.0488 -0.0504  0.0527
32412SOL    HW1 2047  12.591   5.699   1.792  0.7137  0.7645 -0.2607
32412SOL    HW2 2048  12.475   5.788   1.831  1.1270  1.6276 -0.9752
32413SOL     OW 2049   2.524   6.475   4.795  0.2735  0.4136  0.6436
32413SOL    HW1 2050   2.500   6.385   4.772  1.1266 -0.4575  2.8400
32413SOL    HW2 2051   2.457   6.530   4.754 -0.0717 -1.1823 -1.0363
32414SOL     OW 2052   7.396   1.640  10.582  0.1741 -0.2572  0.5138
32414SOL    HW1 2053   7.438   1.658  10.666  0.0293 -0.7919  0.7035
32414SOL    HW2 2054   7.311   1.602  10.606 -0.0474 -0.0116  0.1276
32415SOL     OW 2055   5.576   2.535  10.716 -0.5292  0.5075 -0.6010
32415SOL    HW1 2056   5.566   2.469  10.784  0.6661 -0.2969 -1.1742
32415SOL    HW2 2057   5.615   2.611  10.761 -0.6068  0.3209 -0.2173
32416SOL     OW 2058   1.309   7.167   9.169 -0.6626 -0.1891  0.1368
32416SOL    HW1 2059   1.287   7.132   9.256  0.4399 -2.7585 -0.5347
32416SOL    HW2 2060   1.349   7.253   9.187  0.9098 -1.2902  2.3096
32417SOL     OW 2061   0.050   5.854   7.763 -0.6509 -0.6748 -0.1157
32417SOL    HW1 2062  -0.024   5.905   7.730 -1.2181 -1.6876 -0.4680
32417SOL    HW2 2063   0.015   5.765   7.772  0.9648 -1.5696 -1.9388
32418SOL     OW 2064   6.119  10.765   9.484 -0.2305 -0.1170 -0.2048
32418SOL    HW1 2065   6.025  10.777   9.478 -0.3178 -0.5378  0.2467
32418SOL    HW2 2066   6.150  10.836   9.540 -0.6260 -1.3978  1.7406
32419SOL     OW 2067  12.000   5.456  11.710  0.0844 -0.4806 -0.2516
32419SOL    HW1 2068  12.082   5.493  11.742 -0.5044 -0.0495  0.8440
32419SOL    HW2 2069  12.001   5.471  11.616  1.9465 -1.8620 -0.5133
32420SOL     OW 2070   8.759   8.885  12.092  0.1596 -0.3232 -0.1164
32420SOL    HW1 2071   8.670   8.886  12.129  0.2582 -0.8718  0.1569
32420SOL    HW2 2072   8.746   8.883  11.998 -0.1436 -1.2108 -0.0667
32421SOL     OW 2073   2.824  10.368   8.890 -0.1810  0.3446  0.3003
32421SOL    HW1 2074   2.733  10.386   8.867  0.1147  1.1592 -0.2827
32421SOL    HW2 2075   2.875  10.413   8.822  0.6345 -1.5978 -0.4449
32422SOL     OW 2076   6.766   5.283  11.834  0.2755 -0.2539 -0.1851
32422SOL    HW1 2077   6.672   5.297  11.837 -0.1798 -2.0267 -2.8425
32422SOL    HW2 2078   6.800   5.359  11.786  0.1947  0.2830  0.5967
32423SOL     OW 2079   0.640   7.366   0.066 -0.2266 -0.2140  0.6546
32423SOL    HW1 2080   0.628   7.273   0.083 -1.0271 -0.4003 -0.8252
32423SOL    HW2 2081   0.567   7.391   0.009  0.2979  1.1829  0.5396
32424SOL     OW 2082   5.106   5.929   4.751  0.4459 -0.3944 -0.5164
32424SOL    HW1 2083   5.183   5.880   4.780  1.2059  0.8219 -0.3761
32424SOL    HW2 2084   5.048   5.930   4.828  1.1547  0.3041  0.0317
32425SOL     OW 2085   3.239  11.360   3.813  0.1128  0.5932 -0.0179
32425SOL    HW1 2086   3.223  11.305   3.890 -0.6290 -1.7859 -1.7379
32425SOL    HW2 2087   3.326  11.397   3.827  0.1712 -0.1134  1.7629
32426SOL     OW 2088   7.534   1.026  11.102 -0.5596  0.3348  0.3957
32426SOL    HW1 2089   7.532   1.053  11.011  0.2377  1.0236  0.5654
32426SOL    HW2 2090   7.457   1.067  11.142  0.3855  2.0764  0.5499
32427SOL     OW 2091  11.702   9.118  10.675  0.0984 -0.3345  0.0354
32427SOL    HW1 2092  11.752   9.187  10.718 -0.2939 -0.6157  0.9538
32427SOL    HW2 2093  11.695   9.147  10.584 -2.2831  2.1318  0.8886
32428SOL     OW 2094   1.376   5.306   8.171  0.1377  0.5279  0.0855
32428SOL    HW1 2095   1.324   5.313   8.251  1.3057 -0.0028  0.9063
32428SOL    HW2 2096   1.435   5.232   8.186  2.2488  2.0618 -0.1372
32429SOL     OW 2097   3.666   0.048   2.199 -0.7663  0.1348  0.0426
32429SOL    HW1 2098   3.657   0.054   2.294 -1.3104 -1.4328  0.1086
32429SOL    HW2 2099   3.578   0.031   2.167 -0.1772 -2.2461 -0.4625
32430SOL     OW 2100   8.693   7.750   6.550  0.2971  0.1657  0.2867
32430SOL    HW1 2101   8.754   7.806   6.599  0.6128 -1.0297  1.3368
32430SOL    HW2 2102   8.698   7.666   6.595  0.0468 -0.7977 -1.4086
32431SOL     OW 2103   7.084   1.259  10.757  0.1588 -0.1393 -0.0045
32431SOL    HW1 2104   7.052   1.251  10.667  0.0193 -1.2752  0.1269
32431SOL    HW2 2105   7.164   1.207  10.758 -0.1469 -0.6236  0.6527
32432SOL     OW 2106   7.624   1.267   2.599 -0.1857  0.4978  0.7548
32432SOL    HW1 2107   7.648   1.323   2.674  3.5652  0.6373 -0.3965
32432SOL    HW2 2108   7.690   1.285   2.533 -2.8254 -0.3212 -2.3513
32433SOL     OW 2109   7.071  12.551   0.063  0.1197 -0.6300 -0.0691
32433SOL    HW1 2110   7.005  12.610   0.028  0.4350  0.9288  1.8130
32433SOL    HW2 2111   7.155  12.595   0.048  0.3366 -0.3875  1.6209
32434SOL     OW 2112   7.978   2.480   3.291  0.5282  0.1788 -0.1517
32434SOL    HW1 2113   7.956   2.414   3.225  0.3863 -0.7222  0.7718
32434SOL    HW2 2114   8.060   2.518   3.261 -0.2899  0.8660 -1.6350
32435SOL     OW 2115   9.275   7.316   3.784  0.1381 -0.2998  0.2040
32435SOL    HW1 2116   9.238   7.232   3.813 -0.4225  0.2813  1.2531
32435SOL    HW2 2117   9.215   7.346   3.716  1.2702 -1.5170 -1.4036
32436SOL     OW 2118   0.167  10.392   6.522 -0.6413 -0.3033  0.1258
32436SOL    HW1 2119   0.138  10.383   6.431  0.6925  1.3374 -0.5070
32436SOL    HW2 2120   0.092  10.432   6.567 -1.6985 -2.0742  0.0294
32437SOL     OW 2121   0.039   4.224   6.371  0.1108  0.2955 -0.5328
32437SOL    HW1 2122   0.059   4.139   6.410 -1.3288 -0.2064 -0.8160
32437SOL    HW2 2123  -0.054   4.237   6.388  0.3636  1.9621 -0.2560
32438SOL     OW 2124   2.668   5.822   8.377  0.1885 -1.0493  0.4520
32438SOL    HW1 2125   2.738   5.759   8.360 -0.4296 -1.8226  0.6739
32438SOL    HW2 2126   2.626   5.789   8.458  0.4305  0.1630  1.0866
32439SOL     OW 2127   0.150   7.849   7.206 -0.1678 -0.1942  0.0914
32439SOL    HW1 2128   0.157   7.766   7.160 -0.1783 -0.6895  0.9680
32439SOL    HW2 2129   0.227   7.899   7.178 -0.5279 -0.2181 -0.9704
32440SOL     OW 2130   2.814  11.576   3.582 -0.4244 -0.1278 -0.0800
32440SOL    HW1 2131   2.754  11.648   3.563 -2.2358 -1.2749  0.9881
32440SOL    HW2 2132   2.879  11.613   3.641 -1.9032  0.4167  1.2588
32441SOL     OW 2133  11.223   0.830   7.167  0.4166  0.5128 -0.2440
32441SOL    HW1 2134  11.273   0.861   7.243  2.3255 -0.8310 -0.8539
32441SOL    HW2 2135  11.227   0.735   7.173 -2.2506  0.3278 -0.3020
32442SOL     OW 2136   9.694   6.629  12.638  0.5045  0.1869 -0.0547
32442SOL    HW1 2137   9.776   6.674  12.658 -0.4221  0.5525  3.6302
32442SOL    HW2 2138   9.625   6.693  12.658 -0.7415 -1.0732 -0.1035
32443SOL     OW 2139   7.865   5.164  11.278  0.2537 -0.6191 -0.2151
32443SOL    HW1 2140   7.904   5.128  11.198  2.4639  1.1625 -0.0248
32443SOL    HW2 2141   7.820   5.243  11.248  0.9660 -0.0251  0.2775
32444SOL     OW 2142  11.071   0.540   5.721 -0.8936 -0.3935 -0.2131
32444SOL    HW1 2143  11.059   0.619   5.774 -0.5029 -0.0895 -0.5761
32444SOL    HW2 2144  11.052   0.567   5.632 -0.6723 -0.6888 -0.3509
32445SOL     OW 2145   0.318   1.848   9.240 -0.1079  0.1303 -0.6997
32445SOL    HW1 2146   0.345   1.846   9.148  1.8649 -0.5164 -0.1626
32445SOL    HW2 2147   0.381   1.792   9.285  1.1176  3.0192  1.5508
32446SOL     OW 2148   6.009   8.325   2.942  0.1339  0.0377 -0.4815
32446SOL    HW1 2149   6.057   8.299   2.864 -1.3056  1.4275 -1.9260
32446SOL    HW2 2150   5.917   8.308   2.921 -0.4073  1.6023  0.3860
32447SOL     OW 2151  11.840  11.467   4.605 -0.1295  0.4206 -0.2599
32447SOL    HW1 2152  11.802  11.415   4.534  2.2349 -2.2527  0.2459
32447SOL    HW2 2153  11.791  11.440   4.683  0.3458 -0.2156 -0.1752
32448SOL     OW 2154   7.540  10.887   0.255  0.7375  0.5640 -0.4539
32448SOL    HW1 2155   7.539  10.792   0.241 -1.5416  0.3997  0.4150
32448SOL    HW2 2156   7.574  10.898   0.344  0.9529  0.5692 -0.5357
32449SOL     OW 2157  11.430  12.401   6.426 -0.3838  0.3355  0.4393
32449SOL    HW1 2158  11.451  12.307   6.425  1.2599  0.6725 -0.1018
32449SOL    HW2 2159  11.336  12.404   6.408 -0.4862 -1.2107  0.5253
32450SOL     OW 2160   8.371   9.471   0.848 -0.2086 -0.1710 -0.5336
32450SOL    HW1 2161   8.311   9.458   0.774 -1.2149 -0.2333  0.2612
32450SOL    HW2 2162   8.406   9.384   0.866 -2.3151 -0.7818  0.9658
32451SOL     OW 2163   9.722  10.665   2.943 -0.0676  0.5528  0.5435
32451SOL    HW1 2164   9.661  10.721   2.894 -2.1949 -2.2908 -0.3787
32451SOL    HW2 2165   9.775  10.623   2.875 -0.8692 -1.0437  0.8518
32452SOL     OW 2166   4.878   0.378  12.529  0.0428  0.2407  0.1451
32452SOL    HW1 2167   4.890   0.387  12.434 -1.2256 -0.5826 -0.1200
32452SOL    HW2 2168   4.917   0.294  12.551  0.5810  0.5555  0.4064
32453SOL     OW 2169   3.639  10.432   8.784 -0.1774  0.1401 -0.3625
32453SOL    HW1 2170   3.649  10.343   8.817 -1.1677  0.8129  1.9309
32453SOL    HW2 2171   3.556  10.431   8.737  0.1144 -0.2718 -0.8859
32454SOL     OW 2172   0.716   8.857   5.012  0.1756  0.1153 -0.5276
32454SOL    HW1 2173   0.674   8.770   5.014 -0.3686  0.3479  1.7654
32454SOL    HW2 2174   0.664   8.907   4.950 -0.3659 -0.8172 -0.8500
32455SOL     OW 2175   9.815  10.587   4.483 -0.1145  0.2857  0.6348
32455SOL    HW1 2176   9.728  10.546   4.485 -0.3602  0.7679  0.1228
32455SOL    HW2 2177   9.853  10.558   4.400 -0.0531  0.6130  0.5482
32456SOL     OW 2178   9.787  11.157   3.437  0.1281 -0.3349 -0.0298
32456SOL    HW1 2179   9.731  11.082   3.458  0.6152 -0.3112  1.4971
32456SOL    HW2 2180   9.734  11.233   3.457 -0.7372 -0.1926 -2.5594
32457SOL     OW 2181   1.325   6.728   1.166 -0.4288  0.1684 -0.6131
32457SOL    HW1 2182   1.283   6.698   1.247 -2.0239  0.7584 -1.1830
32457SOL    HW2 2183   1.396   6.785   1.196  0.5949 -1.5655  0.3910
32458SOL     OW 2184   0.166   1.674   8.771  0.4655  0.1466  0.1242
32458SOL    HW1 2185   0.212   1.755   8.751 -2.6416  2.3396  1.0667
32458SOL    HW2 2186   0.193   1.652   8.860  1.4718  0.0186 -0.2085
32459SOL     OW 2187   6.560   9.621   2.490 -0.6041 -0.8003 -0.4268
32459SOL    HW1 2188   6.586   9.599   2.580  1.5676  2.4589 -0.0776
32459SOL    HW2 2189   6.627   9.582   2.435  0.1480  0.2039 -0.2596
32460SOL     OW 2190   3.990   2.636   2.306 -0.5044  0.5233  0.1847
32460SOL    HW1 2191   3.927   2.667   2.241 -0.6045 -1.6695 -0.8644
32460SOL    HW2 2192   3.938   2.620   2.384 -1.3197 -1.3047 -0.6817
32461SOL     OW 2193   0.327  11.505   8.165 -0.0348 -0.2554 -0.3889
32461SOL    HW1 2194   0.262  11.442   8.196  0.1654 -0.2780 -0.0117
32461SOL    HW2 2195   0.399  11.499   8.229  0.4036 -0.3391 -0.8817
32462SOL     OW 2196   8.361  12.170   0.547 -0.4167  0.9251 -0.0225
32462SOL    HW1 2197   8.348  12.165   0.641  1.4356 -2.1727  0.1801
32462SOL    HW2 2198   8.278  12.204   0.513 -2.1333 -0.5121  2.4695
32463SOL     OW 2199  12.016  10.017   1.986 -0.3237 -0.4126  0.5830
32463SOL    HW1 2200  12.022  10.091   2.047  0.5507  0.0777 -0.0811
32463SOL    HW2 2201  11.939  10.036   1.933 -0.4448 -0.2837  0.8023
32464SOL     OW 2202   5.146   2.505   7.493 -0.8415  0.0080 -0.3263
32464SOL    HW1 2203   5.180   2.591   7.519  0.8035 -0.8091  0.3900
32464SOL    HW2 2204   5.079   2.525   7.427 -0.1722  1.8045 -0.5368
32465SOL     OW 2205  10.224  10.554   0.319 -0.9451 -0.1793  0.1210
32465SOL    HW1 2206  10.278  10.600   0.383 -0.5468  0.5851 -0.7456
32465SOL    HW2 2207  10.286  10.505   0.266 -1.1210  0.4735 -0.6975
32466SOL     OW 2208   0.386   8.831   2.324  0.0012  0.1690 -0.4532
32466SOL    HW1 2209   0.396   8.921   2.293  2.1218 -0.3648 -1.5437
32466SOL    HW2 2210   0.443   8.826   2.400 -0.3123 -0.1793 -0.2423
32467SOL     OW 2211   3.202   0.568   1.820  0.6473 -0.2963  0.0088
32467SOL    HW1 2212   3.182   0.545   1.911  0.9133  1.3330  0.5178
32467SOL    HW2 2213   3.120   0.606   1.787  0.8330  0.0109 -0.1061
32468SOL     OW 2214   0.405   5.861   2.499  0.0641 -0.3353 -0.2211
32468SOL    HW1 2215   0.455   5.894   2.424 -1.4518  1.4810 -0.5275
32468SOL    HW2 2216   0.421   5.767   2.500  0.0700 -0.4312 -2.9144
32469SOL     OW 2217   9.802   8.583   2.560 -0.0132 -0.3777 -0.0738
32469SOL    HW1 2218   9.836   8.634   2.487 -0.9700  1.6363  0.8231
32469SOL    HW2 2219   9.880   8.546   2.602  0.7767  0.8712 -0.3804
32470SOL     OW 2220   7.480   6.406   8.733  0.2221  0.7607 -0.2446
32470SOL    HW1 2221   7.508   6.399   8.824  0.3811 -1.0611 -0.3961
32470SOL    HW2 2222   7.560   6.430   8.686  0.8123 -0.9963 -0.2234
32471SOL     OW 2223   5.505   8.326   2.687 -0.6600 -0.1728  0.0265
32471SOL    HW1 2224   5.412   8.304   2.696 -0.6976  0.1789  0.5955
32471SOL    HW2 2225   5.535   8.275   2.612 -1.0353 -1.1595  0.5262
32472SOL     OW 2226   0.396   4.236   1.022  0.4212  0.3474  0.4859
32472SOL    HW1 2227   0.353   4.235   1.108 -2.1709  2.1062 -0.6793
32472SOL    HW2 2228   0.359   4.160   0.976  0.1546  0.6599  0.1845
32473SOL     OW 2229   8.440  11.922   6.215 -0.3698 -0.0435 -0.2527
32473SOL    HW1 2230   8.358  11.952   6.175 -0.3660  1.6249  0.9180
32473SOL    HW2 2231   8.427  11.828   6.226 -2.3038  0.2344  0.2552
32474SOL     OW 2232   9.304   1.007   2.060 -0.1180  0.1942  0.0861
32474SOL    HW1 2233   9.318   1.067   1.987  0.7208 -0.1366 -0.0393
32474SOL    HW2 2234   9.384   0.955   2.064 -0.5499 -0.4564  0.6225
32475SOL     OW 2235  11.097   1.858   7.993  0.4470  0.5359 -0.0659
32475SOL    HW1 2236  11.135   1.773   8.017 -0.9837 -0.4481 -1.0887
32475SOL    HW2 2237  11.096   1.858   7.897 -2.8286  0.0537 -0.1634
32476SOL     OW 2238   5.319   2.904   1.091  0.0809  0.1505  0.2374
32476SOL    HW1 2239   5.385   2.856   1.141  1.1996  2.5161  1.1859
32476SOL    HW2 2240   5.369   2.971   1.044 -1.4166  0.5381 -0.8725
32477SOL     OW 2241  11.496   9.059   8.421  0.1044  0.2175 -1.1433
32477SOL    HW1 2242  11.471   8.974   8.456 -0.9027  0.8056 -0.4054
32477SOL    HW2 2243  11.568   9.040   8.361  0.6655 -1.0200 -0.1117
32478SOL     OW 2244  10.948   6.522   9.309 -0.1589 -0.1274 -0.3563
32478SOL    HW1 2245  10.944   6.572   9.391 -0.9267  0.3307 -0.6682
32478SOL    HW2 2246  10.943   6.587   9.240 -1.4389 -0.6309 -0.7702
32479SOL     OW 2247   8.916   7.189   5.190 -0.4214  0.4442 -0.0634
32479SOL    HW1 2248   8.964   7.269   5.167  0.1668  0.0965 -0.0696
32479SOL    HW2 2249   8.971   7.147   5.257 -1.5254  0.8498  1.1314
32480SOL     OW 2250  10.197   1.695   8.138 -0.1995  0.0324 -0.1104
32480SOL    HW1 2251  10.128   1.645   8.094  1.3004 -1.5505 -0.8030
32480SOL    HW2 2252  10.171   1.786   8.127 -2.1277 -0.5067 -0.3929
32481SOL     OW 2253   9.698   1.761   4.472  0.1800  0.3143 -0.6105
32481SOL    HW1 2254   9.745   1.757   4.388  0.0383 -0.3570 -0.6629
32481SOL    HW2 2255   9.759   1.807   4.531  0.6675 -0.0425 -0.8289
32482SOL     OW 2256   0.367  10.035   4.583 -0.2520  0.1691  0.6002
32482SOL    HW1 2257   0.336  10.111   4.631  2.9592  1.6531  0.5636
32482SOL    HW2 2258   0.426   9.990   4.644  0.8299 -0.1236 -0.6176
32483SOL     OW 2259   4.128   6.275   0.420  0.5616 -0.0685  0.4240
32483SOL    HW1 2260   4.164   6.200   0.373 -0.8395 -0.8429  0.5325
32483SOL    HW2 2261   4.161   6.266   0.509  1.6840  0.3427  0.0608
32484SOL     OW 2262   8.083   7.742   9.750  0.0445  0.3940 -0.2788
32484SOL    HW1 2263   8.083   7.784   9.664 -0.5808  1.0123  0.0115
32484SOL    HW2 2264   8.113   7.811   9.810  1.7468 -0.3933 -0.1435
32485SOL     OW 2265   8.189  12.013   6.075  0.0550 -0.4936 -0.2826
32485SOL    HW1 2266   8.137  11.934   6.085  0.2389 -0.5973 -0.1404
32485SOL    HW2 2267   8.140  12.066   6.012 -0.5962 -0.2671  0.4018
32486SOL     OW 2268   3.221   5.832  11.792 -0.7380 -0.2294  0.1702
32486SOL    HW1 2269   3.211   5.893  11.719 -0.7770  1.0007  1.1558
32486SOL    HW2 2270   3.310   5.846  11.823 -0.7679 -0.6345  0.4417
32487SOL     OW 2271   1.866   2.540   1.550 -0.3783  0.1493 -0.3472
32487SOL    HW1 2272   1.795   2.501   1.499  1.4038 -1.5219 -1.7283
32487SOL    HW2 2273   1.900   2.468   1.604  0.3775  0.8435  0.1351
32488SOL     OW 2274  11.781  11.887  12.391  0.0784  0.0568  0.3363
32488SOL    HW1 2275  11.759  11.794  12.391 -0.7090  0.2165 -0.7140
32488SOL    HW2 2276  11.752  11.919  12.476  0.5514 -0.6893  0.7931
32489SOL     OW 2277   9.742   2.987   8.407 -0.1667 -0.3002  0.2421
32489SOL    HW1 2278   9.652   2.956   8.414  0.2916 -1.9628 -0.7053
32489SOL    HW2 2279   9.787   2.950   8.483  0.9101 -4.1956 -1.9912
32490SOL     OW 2280  12.392   2.423  10.557  0.0838 -0.5818 -0.0284
32490SOL    HW1 2281  12.385   2.363  10.483 -0.7883 -1.3196  0.6248
32490SOL    HW2 2282  12.304   2.423  10.596  0.8841 -1.4429  1.9191
32491SOL     OW 2283   2.239   3.798   3.391 -0.4293 -0.1251 -0.1828
32491SOL    HW1 2284   2.249   3.781   3.484  0.2279  1.6273  0.0923
32491SOL    HW2 2285   2.156   3.845   3.383  0.0148  0.6506 -0.3361
32492SOL     OW 2286   9.054   8.089   7.023  0.0258 -0.9689 -0.0719
32492SOL    HW1 2287   8.960   8.087   7.039  0.2270  0.5762  1.7390
32492SOL    HW2 2288   9.084   8.168   7.068  1.9958 -0.5975 -1.8737
32493SOL     OW 2289   4.015   5.898   4.685 -0.1781  1.0479 -0.5519
32493SOL    HW1 2290   4.088   5.957   4.668  1.5404 -0.5896  0.7763
32493SOL    HW2 2291   3.990   5.867   4.598  1.8282  0.4080 -0.9627
32494SOL     OW 2292   1.115  11.120   7.254 -0.3330 -0.1312  0.3232
32494SOL    HW1 2293   1.135  11.184   7.322  1.3584  2.1066 -2.1164
32494SOL    HW2 2294   1.123  11.168   7.171 -1.1613 -2.9773 -1.5743
32495SOL     OW 2295   4.440   3.355   1.935 -0.7817  0.4843 -0.0131
32495SOL    HW1 2296   4.530   3.367   1.964 -0.9056  1.4101  0.0131
32495SOL    HW2 2297   4.401   3.443   1.938 -0.6246  0.8404 -3.5522
32496SOL     OW 2298   2.073   0.000  11.702  0.2180  0.6131  0.3387
32496SOL    HW1 2299   1.985   0.033  11.718 -0.3022 -0.0167 -1.0675
32496SOL    HW2 2300   2.120   0.075  11.664 -0.9916 -0.1560 -2.9552
32497SOL     OW 2301   9.727   5.714   5.463 -0.9659 -0.0220 -0.1680
32497SOL    HW1 2302   9.660   5.667   5.512 -0.0704  0.4726  1.6105
32497SOL    HW2 2303   9.740   5.796   5.511  1.6967 -0.5867  0.2710
32498SOL     OW 2304  10.951  11.728   4.985 -0.3326  0.0658 -0.0745
32498SOL    HW1 2305  10.862  11.730   4.950 -0.2873 -1.9558 -0.4193
32498SOL    HW2 2306  10.980  11.819   4.983 -2.0884  0.6468 -0.7229
32499SOL     OW 2307   0.680   9.071   1.783 -0.2628  0.3641  0.2448
32499SOL    HW1 2308   0.732   9.079   1.703 -1.2482  0.4594 -0.4063
32499SOL    HW2 2309   0.625   9.149   1.784 -1.7390 -0.6261 -0.0900
32500SOL     OW 2310   7.584   7.268   2.867 -0.0975 -0.1476  0.4836
32500SOL    HW1 2311   7.545   7.229   2.789 -0.0464 -2.4293  1.5355
32500SOL    HW2 2312   7.520   7.334   2.896  0.1997  1.2564 -1.7961
32501SOL     OW 2313  12.244   5.401  12.030  0.1913 -0.1780  0.1452
32501SOL    HW1 2314  12.283   5.314  12.035 -1.2044 -0.7569  2.1521
32501SOL    HW2 2315  12.158   5.387  11.992 -0.5987  0.0537  1.7461
32502SOL     OW 2316   3.302   3.600  12.230  0.4963 -0.4617 -0.1681
32502SOL    HW1 2317   3.385   3.605  12.183 -0.1602 -0.8762 -1.4358
32502SOL    HW2 2318   3.248   3.542  12.176 -0.1823 -1.2584  1.3126
32503SOL     OW 2319   6.819   9.908   3.356 -0.0217 -0.1621  0.1386
32503SOL    HW1 2320   6.829   9.815   3.374 -0.8493  0.0688  1.9560
32503SOL    HW2 2321   6.725   9.924   3.359  0.1546  0.8798  0.7100
32504SOL     OW 2322   6.450   3.402   2.569  0.6099 -0.1088  0.0428
32504SOL    HW1 2323   6.445   3.467   2.498 -0.3248 -0.3109 -0.0868
32504SOL    HW2 2324   6.366   3.357   2.566  0.8724 -0.6613  0.7763
32505SOL     OW 2325   3.460   7.156   4.727 -0.0213  0.1247 -0.5636
32505SOL    HW1 2326   3.378   7.117   4.695 -0.7249  0.6683  0.4843
32505SOL    HW2 2327   3.432   7.238   4.768  0.9925  0.1029  0.1953
32506SOL     OW 2328  12.461   0.177  11.007  0.0577 -0.1517 -0.2176
32506SOL    HW1 2329  12.419   0.262  11.017  0.2801 -0.2054  1.4351
32506SOL    HW2 2330  12.554   0.194  11.024  0.2298 -0.5987 -0.6761
32507SOL     OW 2331  11.379   7.765   0.105 -0.0055 -0.5942  0.1881
32507SOL    HW1 2332  11.413   7.791   0.190  1.9840  1.1002 -1.0109
32507SOL    HW2 2333  11.426   7.684   0.085 -0.2674 -0.8452  0.5899
32508SOL     OW 2334   0.838   0.621   2.864  0.5550  0.5221  0.4655
32508SOL    HW1 2335   0.748   0.643   2.890  0.7217  1.0263  0.6315
32508SOL    HW2 2336   0.882   0.599   2.946  0.7131  0.7658  0.4478
32509SOL     OW 2337   3.941   0.051   7.273 -0.9065 -0.0045 -0.7657
32509SOL    HW1 2338   3.877   0.041   7.344 -1.0608 -1.8430 -1.0907
32509SOL    HW2 2339   3.906  -0.005   7.203  0.2031  0.2956 -1.5762
32510SOL     OW 2340   9.157   8.557  11.181 -0.0589 -0.5630  0.4122
32510SOL    HW1 2341   9.196   8.551  11.093  0.0342 -1.9447  0.5189
32510SOL    HW2 2342   9.082   8.498  11.178 -1.8318  1.5739  0.4130
32511SOL     OW 2343   0.626   2.283  10.388 -0.3933  0.2437 -0.1400
32511SOL    HW1 2344   0.649   2.372  10.361  0.2203  0.3310  0.6054
32511SOL    HW2 2345   0.537   2.270  10.357 -0.6059  1.2439  0.0307
32512SOL     OW 2346  11.810  10.191  10.604  0.0003  0.1935 -0.4426
32512SOL    HW1 2347  11.828  10.205  10.697 -2.8463 -1.8116  0.5276
32512SOL    HW2 2348  11.783  10.100  10.598  0.0078  0.2992 -3.2720
32513SOL     OW 2349  11.146   4.937   1.039 -0.3173 -0.1506 -0.0820
32513SOL    HW1 2350  11.176   4.925   1.129  1.5472 -0.7923 -0.7363
32513SOL    HW2 2351  11.147   5.032   1.026  1.7247 -0.1249 -0.0997
32514SOL     OW 2352   0.453   1.685   9.971  0.1124 -0.1957 -0.0277
32514SOL    HW1 2353   0.358   1.697   9.968  0.2169  0.6322 -0.0290
32514SOL    HW2 2354   0.464   1.607  10.026 -0.5971 -0.7571 -0.6606
32515SOL     OW 2355   6.230   9.031   3.429 -0.9069  0.9083 -0.0467
32515SOL    HW1 2356   6.303   8.972   3.448 -0.9408  1.5140  2.3102
32515SOL    HW2 2357   6.272   9.114   3.405 -0.8635  0.2866 -2.2864
32516SOL     OW 2358   2.433   6.016   0.098 -0.1816 -0.2606 -0.0159
32516SOL    HW1 2359   2.460   5.982   0.183 -0.7265  0.4575  0.4520
32516SOL    HW2 2360   2.426   6.110   0.110  0.1252 -0.1015 -0.9724
32517SOL     OW 2361   7.455   3.078  10.932 -0.0493  0.0512 -0.0892
32517SOL    HW1 2362   7.541   3.117  10.950  1.2812 -2.3058 -0.9505
32517SOL    HW2 2363   7.434   3.029  11.012  0.2505 -0.7674 -0.4988
32518SOL     OW 2364  12.157   6.476   2.338 -0.0376  0.6428  0.0190
32518SOL    HW1 2365  12.126   6.498   2.425  1.5512 -1.2848  1.1653
32518SOL    HW2 2366  12.247   6.444   2.352 -0.1007 -0.7242 -2.1517
32519SOL     OW 2367   7.577  10.465   6.702  0.1841 -0.1276  0.1019
32519SOL    HW1 2368   7.654  10.411   6.686  0.7267 -0.4969  3.1685
32519SOL    HW2 2369   7.612  10.550   6.728 -0.3545 -0.3227  1.5979
32520SOL     OW 2370   9.035   0.102   9.345  0.0855 -0.0321  0.3198
32520SOL    HW1 2371   9.060   0.116   9.437  1.6225 -0.1214 -0.0679
32520SOL    HW2 2372   9.117   0.106   9.297 -0.3815 -2.2726 -0.7954
32521SOL     OW 2373   3.715   4.319   7.156 -0.0973  0.0226  0.5364
32521SOL    HW1 2374   3.671   4.319   7.241 -1.1478  2.5807  0.0963
32521SOL    HW2 2375   3.802   4.357   7.174 -0.6920  1.5466  0.3805
32522SOL     OW 2376  12.281   1.567   7.090  0.1871 -0.0478  0.5068
32522SOL    HW1 2377  12.355   1.616   7.056 -0.2250  0.5686  0.4809
32522SOL    HW2 2378  12.209   1.630   7.091 -0.6050 -0.8838 -0.4213
32523SOL     OW 2379   7.455   3.512  12.151 -0.1777 -0.1102  0.5999
32523SOL    HW1 2380   7.420   3.494  12.238 -1.1691  0.1888  0.2683
32523SOL    HW2 2381   7.548   3.529  12.166 -0.3662  0.0753  1.6187
32524SOL     OW 2382   5.324   2.611  11.405 -0.1656 -0.2732  0.3830
32524SOL    HW1 2383   5.405   2.644  11.444 -0.4279 -0.7146  1.3448
32524SOL    HW2 2384   5.266   2.687  11.399  0.0565 -0.1044  0.3720
32525SOL     OW 2385   7.923  12.329   0.160  0.0185  0.1750 -0.2937
32525SOL    HW1 2386   7.857  12.374   0.212 -1.4623 -0.9318 -1.1493
32525SOL    HW2 2387   7.947  12.252   0.211  1.2240  0.9261  0.3382
32526SOL     OW 2388   9.674   8.486  10.251 -0.0226 -0.0797  0.6087
32526SOL    HW1 2389   9.593   8.491  10.302  0.4520  3.0928  1.2743
32526SOL    HW2 2390   9.743   8.474  10.316  0.3355  1.0777  0.4641
32527SOL     OW 2391  11.038   9.759   4.234 -0.3559 -0.1274 -0.6497
32527SOL    HW1 2392  11.089   9.679   4.222  0.0326  0.2783 -1.8791
32527SOL    HW2 2393  11.086   9.825   4.184  0.8438  1.5631  2.4262
32528SOL     OW 2394   3.287  10.502   4.705  0.4650  0.1278 -1.1089
32528SOL    HW1 2395   3.285  10.597   4.721 -0.0151 -0.0851  0.2724
32528SOL    HW2 2396   3.281  10.464   4.792 -0.6370 -1.1811 -1.7233
32529SOL     OW 2397  12.377   2.142   8.197  0.0957 -0.2715 -0.1153
32529SOL    HW1 2398  12.306   2.198   8.166 -0.6572 -0.6870  0.7876
32529SOL    HW2 2399  12.438   2.202   8.240 -1.4163 -0.2098  2.1525
32530SOL     OW 2400   5.262   0.061   1.161  0.4899 -0.0945  0.3951
32530SOL    HW1 2401   5.275   0.102   1.075  0.0264 -0.0278  0.3526
32530SOL    HW2 2402   5.269   0.133   1.223 -1.4290  0.2845  0.2435
32531SOL     OW 2403   6.410   6.226   6.389 -0.0492  0.1534  0.1779
32531SOL    HW1 2404   6.476   6.218   6.458  0.6312 -0.8486 -0.5577
32531SOL    HW2 2405   6.418   6.317   6.359  0.6120  0.2025  0.4756
32532SOL     OW 2406   0.246   9.815   7.911 -0.3225  0.1067 -0.1917
32532SOL    HW1 2407   0.263   9.909   7.901 -1.2267  0.1982 -1.0951
32532SOL    HW2 2408   0.285   9.792   7.995  2.6685  0.6218 -1.3091
32533SOL     OW 2409   7.773   0.977   5.459 -0.1872  0.3623 -0.5172
32533SOL    HW1 2410   7.739   0.943   5.542  0.4848  1.9966  0.4739
32533SOL    HW2 2411   7.698   1.019   5.418 -0.0374  1.5216  0.3517
32534SOL     OW 2412  10.609  10.520  10.199  0.4492 -0.0708  0.1363
32534SOL    HW1 2413  10.571  10.463  10.267 -1.6656 -1.0942 -1.7712
32534SOL    HW2 2414  10.602  10.469  10.119  2.1762  1.4030 -1.0171
32535SOL     OW 2415   0.531   1.004   1.275  0.9775 -0.3079  0.5285
32535SOL    HW1 2416   0.537   0.936   1.207 -0.0458  1.2891 -1.2829
32535SOL    HW2 2417   0.578   1.078   1.238 -3.5303  2.2936 -0.8023
32536SOL     OW 2418  10.324   5.767   7.684 -0.1304 -0.4853 -0.1693
32536SOL    HW1 2419  10.344   5.841   7.627  1.3540 -1.2585 -0.7091
32536SOL    HW2 2420  10.326   5.690   7.627  2.0690 -1.3598  0.9609
32537SOL     OW 2421   1.021   1.412  12.222  0.1133  0.1646 -0.1304
32537SOL    HW1 2422   1.105   1.427  12.264 -0.2054  1.5142  0.0995
32537SOL    HW2 2423   1.000   1.321  12.240  0.8901  0.1871  0.9749
32538SOL     OW 2424   0.839   1.941   3.612  0.3739  0.1392  0.8537
32538SOL    HW1 2425   0.823   2.034   3.593 -0.0849 -0.1380 -0.1409
32538SOL    HW2 2426   0.934   1.932   3.607  0.3613  0.3746  0.0354
32539SOL     OW 2427   2.472   0.736   4.328  0.3586  0.9970 -0.0803
32539SOL    HW1 2428   2.509   0.654   4.296 -0.2520  0.4340  0.6294
32539SOL    HW2 2429   2.455   0.787   4.249  0.7314  0.4334 -0.5278
32540SOL     OW 2430   9.587   0.954   6.938 -0.4527  0.1461 -0.0885
32540SOL    HW1 2431   9.571   0.931   6.846 -2.9841  1.5209 -0.0871
32540SOL    HW2 2432   9.539   0.888   6.988  1.4128 -0.9576  0.3322
32541SOL     OW 2433  11.663   4.684   6.761  0.1007  0.3291 -0.1861
32541SOL    HW1 2434  11.732   4.655   6.702 -0.8481 -0.9230 -0.7456
32541SOL    HW2 2435  11.596   4.722   6.702  0.1569  1.2193  0.3086
32542SOL     OW 2436   9.322   8.484   8.522 -1.1915  0.3209 -0.1490
32542SOL    HW1 2437   9.362   8.565   8.554  0.1496 -0.5164  0.3888
32542SOL    HW2 2438   9.357   8.474   8.433 -0.4916 -0.2042  0.1752
32543SOL     OW 2439   7.811   7.301  12.507  0.0316 -0.0773  0.3846
32543SOL    HW1 2440   7.906   7.304  12.494  0.2035 -2.8680  0.4022
32543SOL    HW2 2441   7.775   7.305  12.419  0.2797 -0.9672  0.2348
32544SOL     OW 2442  10.171   3.352   3.562 -0.0783 -0.4678  0.1832
32544SOL    HW1 2443  10.251   3.342   3.510  0.4960 -0.4810  1.0608
32544SOL    HW2 2444  10.162   3.269   3.609 -0.6404 -0.4877  0.0544
32545SOL     OW 2445   8.153   6.515   7.220 -0.2897  0.7532  0.3254
32545SOL    HW1 2446   8.236   6.564   7.216 -0.3962  0.8627 -0.7257
32545SOL    HW2 2447   8.086   6.583   7.233 -0.2021  0.6393  1.4712
32546SOL     OW 2448   4.966  12.342   5.635 -0.3856 -0.2507 -0.7785
32546SOL    HW1 2449   4.880  12.320   5.597 -0.7631 -0.6183  0.2578
32546SOL    HW2 2450   4.990  12.264   5.685 -0.8112  0.9263  1.3321
32547SOL     OW 2451   1.088  12.525   6.809 -0.4640  0.1847 -0.0096
32547SOL    HW1 2452   1.107  12.483   6.725  1.0745  0.3594  0.2244
32547SOL    HW2 2453   1.032  12.599   6.787 -0.6298 -0.1644 -0.7927
32548SOL     OW 2454   1.263   4.942  10.830  0.2721 -0.5218  0.3700
32548SOL    HW1 2455   1.291   5.017  10.777  0.5187  0.0485  1.2780
32548SOL    HW2 2456   1.172   4.929  10.806  1.0944 -2.1085 -2.2845
32549SOL     OW 2457   1.151  11.415   4.358  0.2126 -0.2990 -0.1830
32549SOL    HW1 2458   1.062  11.426   4.324 -0.0664 -0.4751  0.4866
32549SOL    HW2 2459   1.202  11.479   4.308 -0.0927 -0.8576 -1.2574
32550SOL     OW 2460   3.552   3.290   6.927  0.0562  0.7866 -0.0609
32550SOL    HW1 2461   3.495   3.274   6.851  1.1741 -2.6819 -0.3132
32550SOL    HW2 2462   3.494   3.331   6.991 -1.4468  1.9124 -2.0140
32551SOL     OW 2463   8.201   4.389  11.393 -0.0542  0.5948 -0.0392
32551SOL    HW1 2464   8.231   4.303  11.421 -0.6340  0.5753  0.5425
32551SOL    HW2 2465   8.108   4.377  11.374 -0.0006  0.9551 -0.5403
32552SOL     OW 2466   8.662   8.291  11.881 -0.1106  0.0445 -0.3471
32552SOL    HW1 2467   8.722   8.254  11.816 -1.1595 -1.4896 -0.4876
32552SOL    HW2 2468   8.579   8.302  11.834 -0.7059 -0.4864  0.5466
32553SOL     OW 2469   5.800   6.531   2.563  0.7294  0.4854  0.4693
32553SOL    HW1 2470   5.816   6.558   2.472  0.6119  0.6808  0.5061
32553SOL    HW2 2471   5.805   6.435   2.561  0.2776  0.4617  0.1693
32554SOL     OW 2472   3.703   7.772   1.015 -0.3456  0.1000  0.0106
32554SOL    HW1 2473   3.668   7.849   0.970 -0.3000 -1.0406 -2.0732
32554SOL    HW2 2474   3.794   7.768   0.988 -0.7264 -1.5086 -1.1484
32555SOL     OW 2475  11.358   3.716   2.177  0.1310 -0.1465 -0.0698
32555SOL    HW1 2476  11.453   3.724   2.185 -0.0683  2.2845  0.5963
32555SOL    HW2 2477  11.341   3.728   2.083  0.3747  1.8236  0.0850
32556SOL     OW 2478  10.747  11.007  10.602 -0.2969  0.0292  0.0576
32556SOL    HW1 2479  10.800  10.946  10.653  0.3828 -2.1033 -2.8916
32556SOL    HW2 2480  10.796  11.090  10.604  0.3376 -0.3537  1.6892
32557SOL     OW 2481  10.835   4.669   1.787  0.3605  0.2476 -0.2425
32557SOL    HW1 2482  10.799   4.753   1.758 -0.9997 -0.8100 -1.7996
32557SOL    HW2 2483  10.928   4.673   1.763  0.4811  1.5530  0.3572
32558SOL     OW 2484   0.908   8.305  10.660 -0.3187 -0.7943  0.3769
32558SOL    HW1 2485   0.846   8.235  10.637 -2.3293  0.7838  0.7501
32558SOL    HW2 2486   0.878   8.336  10.745  2.3701 -1.4053  1.6673
32559SOL     OW 2487   2.230   7.908   1.673 -0.4920 -0.0514 -0.2545
32559SOL    HW1 2488   2.200   7.915   1.582 -1.1564 -0.2432 -0.0540
32559SOL    HW2 2489   2.167   7.850   1.715  0.5640 -1.0510  0.0135
32560SOL     OW 2490   5.292   7.532   4.781 -0.6770 -0.3990 -0.2009
32560SOL    HW1 2491   5.357   7.561   4.717  0.4970 -2.2905  0.0609
32560SOL    HW2 2492   5.241   7.466   4.734 -0.0768 -1.5007  0.6772
32561SOL     OW 2493  12.324   6.397  12.002  0.0249 -0.2208  0.1376
32561SOL    HW1 2494  12.267   6.423  11.930 -0.5676  1.0421  1.0066
32561SOL    HW2 2495  12.304   6.460  12.071  2.5067  0.3077  0.4712
32562SOL     OW 2496  10.353   3.782  11.518  0.1495 -0.0417  0.3947
32562SOL    HW1 2497  10.280   3.799  11.459 -0.7108  0.6501  1.6242
32562SOL    HW2 2498  10.383   3.868  11.544  1.9113 -0.2968 -0.6400
32563SOL     OW 2499   0.868   7.087   9.036 -0.0314 -0.1931 -0.0459
32563SOL    HW1 2500   0.849   7.027   8.964  0.7093  1.8976 -2.0794
32563SOL    HW2 2501   0.961   7.105   9.030  0.2146 -0.5552  1.9588
32564SOL     OW 2502   8.893   0.697   0.640  0.9172  0.2325 -0.1824
32564SOL    HW1 2503   8.987   0.681   0.629  1.1876 -0.0769  2.1117
32564SOL    HW2 2504   8.887   0.752   0.718 -0.7652  1.3254 -1.0185
32565SOL     OW 2505   9.551   2.041   2.760 -0.0387 -0.5897 -0.2484
32565SOL    HW1 2506   9.470   2.029   2.710  0.0955 -1.1772 -0.3303
32565SOL    HW2 2507   9.550   1.971   2.825  0.1959 -0.3357  0.0307
32566SOL     OW 2508   9.690   6.997  11.051 -0.4662 -0.2591 -0.0892
32566SOL    HW1 2509   9.696   6.969  11.143  1.4714  1.2091  0.2897
32566SOL    HW2 2510   9.635   7.075  11.053  1.0473  0.8354  0.1313
32567SOL     OW 2511   0.095  11.936   4.695 -0.3590  0.2333  0.3723
32567SOL    HW1 2512   0.020  11.987   4.723  0.9084  2.0778  0.6003
32567SOL    HW2 2513   0.074  11.846   4.720 -1.9911  0.8723  1.4545
32568SOL     OW 2514   9.480   3.949   5.021 -0.0529  0.1441  0.3489
32568SOL    HW1 2515   9.416   3.893   4.977 -0.0442 -0.1146  0.6582
32568SOL    HW2 2516   9.439   4.035   5.023  0.0718  0.2299 -0.4250
32569SOL     OW 2517   5.189   9.722   2.928  0.0099  0.2129  0.3135
32569SOL    HW1 2518   5.225   9.642   2.967 -1.4214  0.0596  1.4026
32569SOL    HW2 2519   5.135   9.691   2.856 -0.0064  0.2486  0.3104
32570SOL     OW 2520   0.734  11.386   4.756 -0.5121 -0.0200 -0.4031
32570SOL    HW1 2521   0.674  11.336   4.811 -1.9196 -0.4457 -2.2365
32570SOL    HW2 2522   0.795  11.427   4.818 -2.2134 -0.1950  1.4834
32571SOL     OW 2523   0.287   5.000   7.844  0.3357  0.2465  0.3641
32571SOL    HW1 2524   0.250   4.978   7.759 -1.8551 -1.8009  1.7370
32571SOL    HW2 2525   0.310   4.916   7.883 -0.1904  0.9845  2.3918
32572SOL     OW 2526   5.181  11.254   5.161 -0.3977 -0.0983  0.2341
32572SOL    HW1 2527   5.142  11.277   5.245 -0.7471  0.3290 -0.0445
32572SOL    HW2 2528   5.209  11.337   5.124  0.5438 -0.3705  0.3102
32573SOL     OW 2529   3.111   0.039   2.335  0.6665  0.2028 -0.2798
32573SOL    HW1 2530   3.128   0.069   2.246 -0.0754  2.0405  0.1504
32573SOL    HW2 2531   3.018   0.014   2.334  0.9050 -0.7242 -0.2481
32574SOL     OW 2532  11.773   4.409   1.981 -0.1403  0.4996  0.4431
32574SOL    HW1 2533  11.829   4.350   2.032 -2.3617 -1.3718  0.8736
32574SOL    HW2 2534  11.821   4.492   1.979  3.2674 -1.3266 -0.4501
32575SOL     OW 2535   3.566   5.500   6.178  0.3045 -0.0828 -0.3986
32575SOL    HW1 2536   3.525   5.417   6.202 -0.5214 -0.0090 -1.5106
32575SOL    HW2 2537   3.617   5.524   6.256  0.2016 -1.3950  0.1058
32576SOL     OW 2538   9.032   6.146   3.669 -0.0417  0.2736  0.4278
32576SOL    HW1 2539   9.006   6.133   3.577  1.3192  1.5540 -0.1840
32576SOL    HW2 2540   9.048   6.240   3.676  1.0727  0.0225  1.6396
32577SOL     OW 2541   1.593   0.766   8.652 -0.3358  0.0397 -0.1711
32577SOL    HW1 2542   1.568   0.708   8.724 -0.0801  0.5938  0.3729
32577SOL    HW2 2543   1.510   0.801   8.619 -0.5351 -1.0472 -0.8650
32578SOL     OW 2544   3.434  11.083   9.520  0.3339  0.1225 -0.2623
32578SOL    HW1 2545   3.400  11.084   9.609 -0.4727  0.9883 -0.5616
32578SOL    HW2 2546   3.357  11.097   9.465  1.0081  0.9967 -1.0159
32579SOL     OW 2547   4.386   8.608   8.943  0.1893  0.0889  0.1977
32579SOL    HW1 2548   4.459   8.664   8.914  0.6415 -0.4977  0.1893
32579SOL    HW2 2549   4.360   8.646   9.027 -0.4275  1.1517 -0.4439
32580SOL     OW 2550   5.025   0.688  12.067  0.4068  0.3816 -0.4975
32580SOL    HW1 2551   4.941   0.724  12.037  0.7365 -0.3119 -2.3687
32580SOL    HW2 2552   5.058   0.639  11.992  2.2840  0.2588  0.3631
32581SOL     OW 2553   4.858   6.478  12.104  0.5437 -0.1990 -0.0337
32581SOL    HW1 2554   4.868   6.455  12.011  0.2815 -0.3337 -0.0305
32581SOL    HW2 2555   4.815   6.402  12.142 -0.6632  0.4328 -0.0891
32582SOL     OW 2556  10.249  10.420   5.395  0.1772 -0.2010 -0.5663
32582SOL    HW1 2557  10.313  10.491   5.401 -0.3627  0.1923  0.9226
32582SOL    HW2 2558  10.244  10.400   5.302  2.2468 -0.0491 -0.7493
32583SOL     OW 2559   9.027   5.900   2.067  0.1340 -0.1167  0.0859
32583SOL    HW1 2560   9.001   5.823   2.118  1.1525 -0.1898  0.5081
32583SOL    HW2 2561   9.088   5.865   2.001 -1.8212 -0.1912 -1.8323
32584SOL     OW 2562   4.535  12.089   3.303 -0.0696 -0.3426  0.6855
32584SOL    HW1 2563   4.618  12.043   3.290 -0.1700 -0.4334  0.3417
32584SOL    HW2 2564   4.550  12.146   3.379 -0.2359 -1.6231  1.6981
32585SOL     OW 2565   8.377   3.899  10.249 -0.5521 -0.0134 -0.3659
32585SOL    HW1 2566   8.344   3.939  10.330 -0.8161 -0.2901 -0.3356
32585SOL    HW2 2567   8.394   3.974  10.191 -0.2790  0.1911 -0.0259
32586SOL     OW 2568   1.046   5.268  10.500 -0.0780  0.8818 -0.6060
32586SOL    HW1 2569   1.068   5.177  10.482 -2.8686 -0.1981  0.9490
32586SOL    HW2 2570   1.001   5.298  10.421 -1.3726  0.0681 -0.2064
32587SOL     OW 2571   9.164   5.447   6.628  0.2262 -0.6945 -0.4341
32587SOL    HW1 2572   9.086   5.396   6.650  0.1455 -0.3686  0.0275
32587SOL    HW2 2573   9.132   5.517   6.572  0.0741 -0.1363  0.3421
32588SOL     OW 2574  11.233   2.402   0.675  0.0516  0.1256 -0.2433
32588SOL    HW1 2575  11.176   2.447   0.737 -1.3189 -1.0290 -0.6231
32588SOL    HW2 2576  11.274   2.332   0.726 -1.1371 -0.8743 -0.6177
32589SOL     OW 2577   2.075   9.913   5.364 -0.3733 -0.2221  0.1733
32589SOL    HW1 2578   2.108  10.001   5.345  1.9518 -0.9861  0.3290
32589SOL    HW2 2579   1.996   9.927   5.416  0.2469  1.7764  0.6498
32590SOL     OW 2580   6.181   5.763  10.695  0.2391  0.4258  0.3740
32590SOL    HW1 2581   6.247   5.819  10.653  0.1065  1.0345  0.9525
32590SOL    HW2 2582   6.099   5.789  10.654  0.1177  0.9784  0.9455
32591SOL     OW 2583   6.245   7.566   1.351  0.4128  0.2538 -0.6546
32591SOL    HW1 2584   6.192   7.507   1.297  1.0186  0.4827 -1.5203
32591SOL    HW2 2585   6.330   7.568   1.308 -0.1928  3.4746 -1.9698
32592SOL     OW 2586  11.030   6.826   8.877 -0.0559 -0.2314  0.6972
32592SOL    HW1 2587  11.065   6.896   8.823 -0.6248  0.1325  0.7960
32592SOL    HW2 2588  11.014   6.754   8.815 -0.3804  0.0624  0.4338
32593SOL     OW 2589   4.255   3.939   3.432 -0.7276 -0.6355  0.2560
32593SOL    HW1 2590   4.237   4.029   3.407  0.6323 -0.2758  0.4936
32593SOL    HW2 2591   4.172   3.893   3.418 -2.1457  1.0947  2.3402
32594SOL     OW 2592   4.298   0.650   3.775 -0.1633  0.4967  0.4043
32594SOL    HW1 2593   4.253   0.729   3.803 -0.4838  0.5822 -0.3325
32594SOL    HW2 2594   4.238   0.608   3.714  0.7496  0.6324 -0.6193
32595SOL     OW 2595   7.790   3.667  10.433 -0.1728 -0.0222 -0.4381
32595SOL    HW1 2596   7.822   3.744  10.479  1.2793 -0.1054 -1.2547
32595SOL    HW2 2597   7.715   3.699  10.382  1.1970  1.2065 -1.7908
32596SOL     OW 2598   1.234   4.893   3.406 -0.3103  0.3010  0.1241
32596SOL    HW1 2599   1.314   4.935   3.373 -0.4793  0.7678  0.2984
32596SOL    HW2 2600   1.200   4.844   3.332 -0.9639  1.7508 -0.5744
32597SOL     OW 2601   8.917  10.568   1.684  0.3432  0.1077 -0.3958
32597SOL    HW1 2602   8.965  10.651   1.673  0.9698 -0.4855 -3.0285
32597SOL    HW2 2603   8.859  10.565   1.608  2.2874 -3.0330 -1.9778
32598SOL     OW 2604   5.030   9.472   9.514  0.7850 -0.4685  0.2426
32598SOL    HW1 2605   4.988   9.537   9.457  0.1510 -2.1998 -1.3519
32598SOL    HW2 2606   5.104   9.519   9.553  0.4258  1.1742 -0.9362
32599SOL     OW 2607  10.396   9.182   0.748 -0.0977 -0.2458  0.1954
32599SOL    HW1 2608  10.302   9.163   0.740  0.0168 -0.8858  0.2991
32599SOL    HW2 2609  10.423   9.206   0.659 -0.0299 -1.6698 -0.2010
32600SOL     OW 2610  12.012   4.636   2.280  0.2068 -0.1531 -0.3566
32600SOL    HW1 2611  11.918   4.622   2.293  0.1491  0.6092  0.0517
32600SOL    HW2 2612  12.052   4.610   2.363  0.4361 -1.1487 -0.7626
32601SOL     OW 2613   5.388   3.543   1.018  0.4599  0.3467 -0.4984
32601SOL    HW1 2614   5.387   3.580   1.106 -1.0767  1.9767 -1.1578
32601SOL    HW2 2615   5.296   3.532   0.995  0.8122 -2.6015 -0.9459
32602SOL     OW 2616  10.667   7.638   4.523 -0.5387  0.3892  0.8810
32602SOL    HW1 2617  10.748   7.590   4.536 -1.2466 -1.3429 -0.6657
32602SOL    HW2 2618  10.694   7.730   4.520  1.2648 -0.1043  1.0434
32603SOL     OW 2619   1.100  10.648   2.231 -0.5876 -0.1205 -0.0624
32603SOL    HW1 2620   1.022  10.686   2.189 -1.2317  0.1951  1.3763
32603SOL    HW2 2621   1.119  10.707   2.304  1.8716  0.6038 -1.1575
32604SOL     OW 2622  12.189   2.384   6.663  0.2692 -0.0933 -0.4971
32604SOL    HW1 2623  12.272   2.413   6.700 -0.6972  1.3678  0.6490
32604SOL    HW2 2624  12.199   2.396   6.569  0.4226  2.7687 -0.1866
32605SOL     OW 2625  12.596   3.265   0.165 -0.1596  0.1627 -0.4414
32605SOL    HW1 2626  12.594   3.235   0.256 -2.4799  0.5381 -0.3100
32605SOL    HW2 2627  12.543   3.200   0.117  1.6067 -0.4345 -1.7052
32606SOL     OW 2628   8.326   0.350   1.901 -0.1438 -0.0497 -0.5391
32606SOL    HW1 2629   8.361   0.386   1.983  3.3358  1.0908 -2.3165
32606SOL    HW2 2630   8.270   0.277   1.929  0.9159  0.2281  2.8260
32607SOL     OW 2631  11.099   2.261   8.124 -0.4706 -0.0871 -0.2868
32607SOL    HW1 2632  11.027   2.198   8.137 -0.0291 -0.4676  0.3890
32607SOL    HW2 2633  11.167   2.211   8.080  0.3126 -0.4192  1.2220
32608SOL     OW 2634  12.031   4.473   4.000 -0.0088  0.4546 -0.0394
32608SOL    HW1 2635  12.056   4.533   4.070  1.7526  0.2551 -0.4397
32608SOL    HW2 2636  12.035   4.386   4.040  1.9035  0.2562 -0.5502
32609SOL     OW 2637   7.051  10.814  11.259 -0.4100 -0.8979  0.0386
32609SOL    HW1 2638   7.107  10.881  11.300 -0.0582 -1.4355  0.4511
32609SOL    HW2 2639   7.113  10.748  11.227 -0.7761 -1.1929 -0.0626
32610SOL     OW 2640  10.893   2.573   9.699 -0.0598 -0.5436 -0.1818
32610SOL    HW1 2641  10.844   2.504   9.743 -1.9298  1.4995  1.1732
32610SOL    HW2 2642  10.967   2.590   9.756 -0.3970 -0.4641  0.2358
32611SOL     OW 2643  10.387  10.915   3.290 -0.4671 -0.0647  0.0317
32611SOL    HW1 2644  10.314  10.953   3.241  0.2052  0.6127 -0.4602
32611SOL    HW2 2645  10.464  10.932   3.236  0.1676 -0.0869  0.9066
32612SOL     OW 2646   2.079   1.341   2.394  0.4075 -0.3765  0.3489
32612SOL    HW1 2647   2.029   1.260   2.389  1.0000 -0.7387  0.2147
32612SOL    HW2 2648   2.170   1.314   2.382  0.4650  0.5006 -1.6726
32613SOL     OW 2649   9.644   3.983   5.941 -0.2530  0.2508 -0.2333
32613SOL    HW1 2650   9.577   3.915   5.934 -1.9039  1.8473 -0.7156
32613SOL    HW2 2651   9.665   4.005   5.851  1.0355 -0.3098 -0.0850
32614SOL     OW 2652   9.891   3.474   5.533  0.3751 -0.5829 -0.2520
32614SOL    HW1 2653   9.962   3.532   5.505 -0.2245  0.7824  0.9204
32614SOL    HW2 2654   9.813   3.510   5.492  0.2986 -2.0425 -1.4881
32615SOL     OW 2655  10.606   4.834  11.317  0.1212  0.0842  0.4773
32615SOL    HW1 2656  10.622   4.892  11.391 -0.1367  0.1098  0.5151
32615SOL    HW2 2657  10.564   4.889  11.251 -0.5185 -0.1463  0.6768
32616SOL     OW 2658   3.210   3.791   0.776 -0.7443  0.2361  0.2372
32616SOL    HW1 2659   3.197   3.840   0.694  0.3356  1.5590  0.8198
32616SOL    HW2 2660   3.135   3.731   0.780 -0.7438  0.0124 -1.7956
32617SOL     OW 2661   4.151   9.524   4.446  0.3109 -0.5546 -0.1012
32617SOL    HW1 2662   4.136   9.524   4.541  0.2959  0.1727 -0.1007
32617SOL    HW2 2663   4.197   9.442   4.430  1.0225 -0.3206  0.6495
32618SOL     OW 2664  12.295   9.986   7.790  0.0619  0.0779  0.0837
32618SOL    HW1 2665  12.321   9.985   7.698 -1.1809  0.7708 -0.2907
32618SOL    HW2 2666  12.209  10.027   7.791 -0.8637 -1.7463  1.3206
32619SOL     OW 2667   1.602   4.077   5.778 -0.5061 -0.0576  0.1260
32619SOL    HW1 2668   1.600   4.125   5.695  0.9507  0.8320  0.5631
32619SOL    HW2 2669   1.511   4.054   5.795 -0.7222 -1.2600 -2.2662
32620SOL     OW 2670   0.792   7.926  12.285 -0.4312 -0.0165  0.0962
32620SOL    HW1 2671   0.860   7.895  12.345 -0.5480 -0.0963  0.1854
32620SOL    HW2 2672   0.773   7.852  12.229  0.4969  0.3917 -0.7934
32621SOL     OW 2673   9.558   7.066  11.539 -0.1224 -0.3835  0.0506
32621SOL    HW1 2674   9.474   7.091  11.577 -0.0238  0.4799 -0.2807
32621SOL    HW2 2675   9.607   7.030  11.613 -0.8804 -1.1815  0.1849
32622SOL     OW 2676   5.318   0.991   0.616  0.0773  0.4284  0.5632
32622SOL    HW1 2677   5.254   1.012   0.548 -0.2056 -0.2925  0.6095
32622SOL    HW2 2678   5.382   1.063   0.611 -1.7181  2.2214  1.8005
32623SOL     OW 2679  12.107  12.203   3.861  0.0836  0.0852 -0.3733
32623SOL    HW1 2680  12.075  12.140   3.925  0.0357  1.1495  0.6924
32623SOL    HW2 2681  12.191  12.233   3.897 -0.0543  0.8736 -0.6918
32624SOL     OW 2682   2.218   0.241  11.962 -0.5076  0.0396  0.3168
32624SOL    HW1 2683   2.304   0.217  11.997 -1.1086 -1.0763  1.0786
32624SOL    HW2 2684   2.238   0.301  11.889  0.8434  1.0113  1.4270
32625SOL     OW 2685   5.848   7.619  11.406 -0.3946  0.0106 -0.0661
32625SOL    HW1 2686   5.855   7.713  11.385  1.9992 -0.2590 -0.8391
32625SOL    HW2 2687   5.878   7.612  11.496  1.6854 -0.2029 -0.7211
32626SOL     OW 2688   1.876   2.593   4.167  0.1493 -0.3501  0.6806
32626SOL    HW1 2689   1.911   2.676   4.136 -0.4271  0.0213  1.0134
32626SOL    HW2 2690   1.820   2.562   4.096  3.2325 -2.3516 -1.1274
32627SOL     OW 2691   8.202   3.466   9.022 -0.3859  0.6224 -0.0644
32627SOL    HW1 2692   8.267   3.409   8.982  0.3616  1.0242  0.5396
32627SOL    HW2 2693   8.189   3.430   9.109 -1.0670  0.4728 -0.2273
32628SOL     OW 2694   7.267   1.089   3.240 -0.3205 -0.5818 -0.2757
32628SOL    HW1 2695   7.235   0.999   3.231 -0.9091 -0.3876 -0.1414
32628SOL    HW2 2696   7.238   1.134   3.161 -0.5984 -0.3422 -0.0413
32629SOL     OW 2697   7.091  10.790   2.643  0.6572  0.7268  0.0036
32629SOL    HW1 2698   7.165  10.801   2.703  0.2653  0.6156  0.5115
32629SOL    HW2 2699   7.109  10.708   2.598  0.6966  0.5495  0.3400
32630SOL     OW 2700   0.698   4.392   0.847 -0.4495 -0.1430  0.0354
32630SOL    HW1 2701   0.675   4.484   0.860 -0.3760 -0.2659  1.1536
32630SOL    HW2 2702   0.787   4.395   0.811  0.3342  0.2299  1.8497
32631SOL     OW 2703   8.923   6.533   7.769 -0.4746  0.3356 -0.1474
32631SOL    HW1 2704   8.848   6.475   7.753 -0.7143  0.5436  0.2011
32631SOL    HW2 2705   8.937   6.577   7.685 -0.5235  0.0388 -0.3113
32632SOL     OW 2706   8.903   6.517   9.565  0.4900 -0.3698 -0.2257
32632SOL    HW1 2707   8.823   6.483   9.525  0.4774 -0.7310  0.1016
32632SOL    HW2 2708   8.879   6.603   9.598  0.2446 -0.4694 -0.1474
32633SOL     OW 2709   4.226   5.823   4.390 -0.1623  0.5101 -0.1843
32633SOL    HW1 2710   4.133   5.809   4.408 -0.1966  1.5429  0.5152
32633SOL    HW2 2711   4.254   5.744   4.343 -1.3905  0.2007 -0.4146
32634SOL     OW 2712   9.991   9.611   9.670 -0.1710  0.1040 -0.4702
32634SOL    HW1 2713   9.931   9.656   9.611  0.8545  0.7746 -1.0353
32634SOL    HW2 2714   9.976   9.653   9.755  0.2967  1.0893 -0.8482
32635SOL     OW 2715   1.659  12.550  10.572 -0.3910 -0.4895  0.6144
32635SOL    HW1 2716   1.590  12.557  10.638  0.4314  1.1128  1.3562
32635SOL    HW2 2717   1.685  12.458  10.574 -0.3028 -0.4624  2.6670
32636SOL     OW 2718   3.542   1.409   3.683  0.4309 -0.0422 -0.1809
32636SOL    HW1 2719   3.503   1.335   3.637 -0.8673  0.1975  0.4843
32636SOL    HW2 2720   3.521   1.393   3.776  0.3258  1.0289 -0.0059
32637SOL     OW 2721  11.038   3.787   4.182  0.4183 -0.0172  0.4821
32637SOL    HW1 2722  10.996   3.706   4.212 -1.3090  1.0843  1.2141
32637SOL    HW2 2723  11.087   3.761   4.104  0.8769 -1.9839  1.3530
32638SOL     OW 2724   7.852   8.646   3.953 -0.1002  0.6345 -0.3381
32638SOL    HW1 2725   7.903   8.675   4.029  0.8318 -1.0025 -0.2839
32638SOL    HW2 2726   7.865   8.715   3.888  2.8413 -0.0093 -0.5812
32639SOL     OW 2727   4.735   8.998   1.229 -0.2133  0.6653 -0.1032
32639SOL    HW1 2728   4.787   8.929   1.270 -0.3658 -1.1290 -2.6924
32639SOL    HW2 2729   4.656   8.954   1.199  0.0808  1.6789 -2.6504
32640SOL     OW 2730   1.872   5.774   4.978  0.2873 -0.6032 -0.4379
32640SOL    HW1 2731   1.885   5.679   4.980  1.8230 -0.4250 -0.2804
32640SOL    HW2 2732   1.860   5.795   4.885 -2.4789 -1.1757 -0.3023
32641SOL     OW 2733   6.079   3.450   1.906 -0.0147 -0.1843 -0.7326
32641SOL    HW1 2734   6.149   3.404   1.861 -1.8002 -2.2721 -1.6106
32641SOL    HW2 2735   6.052   3.520   1.847  2.2002  1.6284  0.2588
32642SOL     OW 2736   5.460   7.461   5.323 -0.6492 -0.4702 -0.0497
32642SOL    HW1 2737   5.395   7.391   5.329 -0.2274 -1.0084 -1.4234
32642SOL    HW2 2738   5.421   7.524   5.261  0.2271 -0.9396 -1.1201
32643SOL     OW 2739   9.468   9.984   9.004  0.4697 -0.0115 -0.1805
32643SOL    HW1 2740   9.503  10.073   9.003 -1.6437  0.8755 -0.4236
32643SOL    HW2 2741   9.512   9.942   9.078  0.0315  1.8903  1.2491
32644SOL     OW 2742   8.859   1.753  11.964  0.6612 -0.2108  0.0073
32644SOL    HW1 2743   8.953   1.770  11.958  0.2354  3.2091  0.6690
32644SOL    HW2 2744   8.825   1.824  12.018 -2.4137 -0.9813 -0.6712
32645SOL     OW 2745   7.720   0.949   7.062  0.3913  0.2934  0.3672
32645SOL    HW1 2746   7.814   0.952   7.045  0.3660 -2.7289 -0.8558
32645SOL    HW2 2747   7.712   0.968   7.156  1.9576  2.6491  0.1051
32646SOL     OW 2748   4.966  10.074   3.430 -0.0695  0.5042  0.1367
32646SOL    HW1 2749   4.972  10.089   3.335 -2.5960  2.0602  0.1224
32646SOL    HW2 2750   4.961   9.978   3.439  3.9374  0.0161 -0.8815
32647SOL     OW 2751   5.386   1.473   9.624 -0.0361 -0.3622  0.2469
32647SOL    HW1 2752   5.390   1.543   9.559  1.1151 -0.5176  0.1261
32647SOL    HW2 2753   5.322   1.411   9.589 -0.2679  0.1046 -0.1682
32648SOL     OW 2754   6.496   4.277   5.451 -0.3484  0.1955  0.0278
32648SOL    HW1 2755   6.417   4.264   5.399  0.7879  0.5335 -1.9064
32648SOL    HW2 2756   6.517   4.369   5.440  0.0255  0.2266  0.9504
32649SOL     OW 2757   0.239   3.912   8.972  0.2582  0.0398 -0.1639
32649SOL    HW1 2758   0.161   3.933   8.920 -0.2631 -0.9400  0.2082
32649SOL    HW2 2759   0.250   3.989   9.029 -1.0204 -0.2121  0.4631
32650SOL     OW 2760   6.857   8.344   1.298  0.0411  0.4380  0.3875
32650SOL    HW1 2761   6.813   8.404   1.237 -0.6759 -0.5581 -0.1134
32650SOL    HW2 2762   6.786   8.310   1.352  0.3554 -0.3694  0.3024
32651SOL     OW 2763   1.937   1.585   5.658  0.0333 -0.5386 -0.0329
32651SOL    HW1 2764   1.903   1.673   5.639  2.2019  0.2950 -0.2535
32651SOL    HW2 2765   1.886   1.528   5.600 -2.1967  0.3720  0.9098
32652SOL     OW 2766   3.069   1.053   3.515 -0.2228 -0.0464 -0.3247
32652SOL    HW1 2767   2.985   1.089   3.487 -0.9588 -0.2794  1.4587
32652SOL    HW2 2768   3.123   1.129   3.535 -0.3977  0.0976 -0.4008
32653SOL     OW 2769  10.878   9.868   7.719 -0.2663  0.6675  0.2805
32653SOL    HW1 2770  10.789   9.865   7.754 -0.0259  0.8616  0.9227
32653SOL    HW2 2771  10.909   9.956   7.741  0.1929  0.4962  0.3325
32654SOL     OW 2772  12.055  11.640   6.815 -0.1742 -0.2324 -0.0744
32654SOL    HW1 2773  12.117  11.646   6.888 -0.8637  0.2467  0.4826
32654SOL    HW2 2774  11.990  11.577   6.844 -1.6032  1.4875  0.6276
32655SOL     OW 2775   8.731  11.659   4.402 -0.0626 -0.0348  0.0870
32655SOL    HW1 2776   8.764  11.616   4.323  1.0774  0.7969  0.0813
32655SOL    HW2 2777   8.701  11.745   4.371 -0.6614 -0.1299  0.3870
32656SOL     OW 2778   0.624   5.593   4.550 -0.2925  0.0601  0.3650
32656SOL    HW1 2779   0.694   5.653   4.575 -0.7116  0.1112  1.4809
32656SOL    HW2 2780   0.648   5.564   4.462  2.1433 -1.3862  1.3882
32657SOL     OW 2781   4.716   1.231  12.236 -0.4172 -0.1905 -0.1635
32657SOL    HW1 2782   4.786   1.172  12.208 -0.6687 -0.5923  0.0291
32657SOL    HW2 2783   4.653   1.228  12.164 -0.9429 -1.0226  0.3032
32658SOL     OW 2784   8.164   5.484   7.236 -0.1154 -0.3624 -0.1851
32658SOL    HW1 2785   8.135   5.452   7.322 -0.2733 -1.7986 -0.7410
32658SOL    HW2 2786   8.131   5.574   7.232  0.2143 -0.1382  1.3932
32659SOL     OW 2787   1.100   3.452   3.931  0.2583  0.0040 -0.1464
32659SOL    HW1 2788   1.126   3.366   3.964 -0.4102 -0.6233 -1.1733
32659SOL    HW2 2789   1.109   3.511   4.005 -3.1904 -1.6929  1.8737
32660SOL     OW 2790   6.778   6.771  11.089  0.1635  0.3949 -0.0373
32660SOL    HW1 2791   6.761   6.850  11.038  1.5339  1.1727  0.6459
32660SOL    HW2 2792   6.691   6.736  11.109 -0.4417 -0.2948 -3.3448
32661SOL     OW 2793   0.248   2.866   6.850 -0.1173  0.0062  0.3136
32661SOL    HW1 2794   0.233   2.931   6.920 -0.2273 -0.2418  0.5209
32661SOL    HW2 2795   0.290   2.793   6.894 -0.7661 -0.4189  0.2442
32662SOL     OW 2796   4.140   3.838   9.732 -0.2146  0.4625 -0.5826
32662SOL    HW1 2797   4.185   3.906   9.783 -0.2197 -1.5571  2.3867
32662SOL    HW2 2798   4.056   3.828   9.776  0.3116 -2.3174 -0.0421
32663SOL     OW 2799   9.753   9.008   5.236  0.8664 -0.1277 -0.3783
32663SOL    HW1 2800   9.697   8.941   5.276 -1.7666  1.6519 -0.8518
32663SOL    HW2 2801   9.822   8.957   5.193 -1.4088 -2.6720 -1.3818
32664SOL     OW 2802   0.354   8.474   2.781  0.3564 -0.1418  0.4421
32664SOL    HW1 2803   0.405   8.466   2.701 -0.4582  0.8635 -0.2118
32664SOL    HW2 2804   0.349   8.385   2.816 -1.0527 -1.0130 -1.7632
32665SOL     OW 2805   5.708   9.435   2.429  0.2127 -0.1930 -0.0362
32665SOL    HW1 2806   5.800   9.411   2.439  0.6190  1.8045  1.9260
32665SOL    HW2 2807   5.708   9.531   2.434 -1.9295 -0.1195 -0.5247
32666SOL     OW 2808   3.506   7.526   2.468 -0.1501 -0.4731  0.0640
32666SOL    HW1 2809   3.549   7.447   2.433  0.2157  0.0180 -0.6054
32666SOL    HW2 2810   3.413   7.501   2.474  0.1107 -1.3153  0.8854
32667SOL     OW 2811   5.041   7.308   5.616 -0.2712  0.0300  0.2445
32667SOL    HW1 2812   5.057   7.264   5.532 -0.3370  1.8860 -0.7915
32667SOL    HW2 2813   5.115   7.367   5.627 -0.9791  0.8545  0.7607
32668SOL     OW 2814  10.696   6.477   0.213  0.8090  0.2634 -0.1566
32668SOL    HW1 2815  10.748   6.477   0.294  1.2439  1.2594 -0.4167
32668SOL    HW2 2816  10.606   6.490   0.242  1.0853  1.7047  0.1201
32669SOL     OW 2817   7.670   3.383  12.621  0.0416 -0.1738  0.1405
32669SOL    HW1 2818   7.597   3.398  12.560  0.0285 -1.6910 -0.2756
32669SOL    HW2 2819   7.735   3.335  12.569  1.2583  0.9394  0.5743
32670SOL     OW 2820   5.074   5.860  12.534  0.3464 -0.3892 -0.0858
32670SOL    HW1 2821   4.994   5.903  12.565  0.6252 -1.5165  2.4734
32670SOL    HW2 2822   5.135   5.932  12.518  0.8434  0.4161  4.2163
32671SOL     OW 2823   0.178   0.317   6.348  0.2754 -0.4016  0.0399
32671SOL    HW1 2824   0.087   0.292   6.330 -0.3268  2.2923 -1.0605
32671SOL    HW2 2825   0.207   0.363   6.269  1.7709  0.9182  1.2845
32672SOL     OW 2826  11.089  12.501   8.053  0.2742  0.1577 -0.1285
32672SOL    HW1 2827  10.994  12.490   8.058  0.4925 -1.4187  1.0556
32672SOL    HW2 2828  11.123  12.414   8.037  1.5160  0.7850 -1.0669
32673SOL     OW 2829   0.898   5.127   3.770  0.1265  0.0210  0.0276
32673SOL    HW1 2830   0.825   5.185   3.791 -0.7768 -1.8735  2.6433
32673SOL    HW2 2831   0.858   5.057   3.717  0.6551  0.4110 -0.9036
32674SOL     OW 2832   2.309   0.888  10.486  0.0264  0.6589 -0.2631
32674SOL    HW1 2833   2.261   0.820  10.439 -0.2253  1.1341 -0.7093
32674SOL    HW2 2834   2.401   0.864  10.476 -0.0540  0.4485 -0.5273
32675SOL     OW 2835   1.086  10.432   7.928  0.1747 -0.2239 -0.3330
32675SOL    HW1 2836   1.051  10.502   7.873  3.0490  0.0722 -1.9935
32675SOL    HW2 2837   1.071  10.352   7.877 -1.4597 -0.6365  0.7310
32676SOL     OW 2838  11.590   8.737  11.361 -0.8400 -0.3441  0.1457
32676SOL    HW1 2839  11.652   8.741  11.287  0.4107 -3.3952  0.8463
32676SOL    HW2 2840  11.505   8.725  11.320 -0.5775  0.8474 -0.8110
32677SOL     OW 2841   2.965  10.549  12.225 -0.3627 -0.2220 -0.4514
32677SOL    HW1 2842   2.889  10.493  12.242 -0.8852  0.1923 -1.3225
32677SOL    HW2 2843   2.929  10.621  12.173  0.4045  0.6218  0.1594
32678SOL     OW 2844   7.400  11.919   4.536 -0.3688 -0.2883 -0.0115
32678SOL    HW1 2845   7.415  12.013   4.548 -0.5524 -0.2283 -0.2390
32678SOL    HW2 2846   7.469  11.877   4.587 -1.4041 -0.0626  1.6451
32679SOL     OW 2847   8.775  10.637   1.451  0.0548  0.1317  0.4889
32679SOL    HW1 2848   8.830  10.699   1.402 -0.9783 -1.3276 -2.8570
32679SOL    HW2 2849   8.696  10.687   1.470  0.1167  0.5204 -0.2038
32680SOL     OW 2850   6.163   6.938   6.535 -0.2028 -0.0408 -0.0932
32680SOL    HW1 2851   6.076   6.898   6.539 -1.4655  2.5327  2.5692
32680SOL    HW2 2852   6.154   7.008   6.470  0.2638 -0.5356 -0.6932
32681SOL     OW 2853   8.843   8.164  11.301  0.0198 -0.4818 -0.6258
32681SOL    HW1 2854   8.936   8.142  11.309  0.1709  0.2590 -0.1367
32681SOL    HW2 2855   8.840   8.234  11.235 -0.1422 -0.2805 -0.4104
32682SOL     OW 2856   2.269   9.278   6.674  0.7182  0.4600 -0.3012
32682SOL    HW1 2857   2.362   9.254   6.666  0.2524 -1.1983 -1.1545
32682SOL    HW2 2858   2.249   9.325   6.593  0.5133 -0.3042 -0.7023
32683SOL     OW 2859   1.472   1.718   2.065  0.4409  0.0160 -0.8147
32683SOL    HW1 2860   1.560   1.710   2.029  1.1268  1.7233  0.3625
32683SOL    HW2 2861   1.486   1.742   2.157 -1.1433  4.2398 -1.4756
32684SOL     OW 2862   8.348  11.828   0.708  0.3116 -0.2724 -0.6021
32684SOL    HW1 2863   8.417  11.889   0.682  0.6155  0.0811  0.9750
32684SOL    HW2 2864   8.385  11.779   0.781 -1.5997  0.9979  1.3295
32685SOL     OW 2865   6.885   0.316  10.180 -0.0029 -0.3055  0.0068
32685SOL    HW1 2866   6.973   0.347  10.202  0.7975 -0.4655 -2.6152
32685SOL    HW2 2867   6.898   0.226  10.152 -0.5759  0.3125 -2.4899
32686SOL     OW 2868   9.763   6.684   8.055 -0.2342 -0.0034  0.0681
32686SOL    HW1 2869   9.847   6.666   8.098 -0.7130  1.1830  1.6052
32686SOL    HW2 2870   9.782   6.751   7.990  0.3249 -1.1304 -0.9777
32687SOL     OW 2871   9.585   3.795   8.421 -0.0145 -0.0533  0.0285
32687SOL    HW1 2872   9.547   3.707   8.422 -1.0517  0.3868  0.7815
32687SOL    HW2 2873   9.562   3.832   8.506 -0.5962  1.3564 -0.7138
32688SOL     OW 2874   3.693   2.399   1.487 -0.0780  0.1356 -0.8304
32688SOL    HW1 2875   3.670   2.463   1.554 -1.1491 -0.5788 -0.4924
32688SOL    HW2 2876   3.778   2.364   1.516 -1.0276 -0.9693  0.8006
32689SOL     OW 2877   3.202   0.378   6.989 -0.1921 -0.1532 -0.2498
32689SOL    HW1 2878   3.209   0.439   6.916  0.4479  0.6837  0.5006
32689SOL    HW2 2879   3.176   0.295   6.948 -1.2079  0.6306 -1.2701
32690SOL     OW 2880   8.459  10.358   6.978  0.3227 -0.1693 -0.6699
32690SOL    HW1 2881   8.414  10.273   6.983 -1.3819  0.5949 -2.0858
32690SOL    HW2 2882   8.430  10.405   7.056 -1.1776  0.2018 -1.4141
32691SOL     OW 2883  10.599   8.885   9.979  0.3016  0.1555 -0.1954
32691SOL    HW1 2884  10.631   8.928  10.059  1.7629  3.1492 -2.1741
32691SOL    HW2 2885  10.543   8.952   9.938 -0.9502 -1.5627 -1.4001
32692SOL     OW 2886   0.674   6.019   4.149 -0.7903  0.2933  0.3570
32692SOL    HW1 2887   0.681   6.003   4.055  0.1682  0.6963  0.3443
32692SOL    HW2 2888   0.647   5.935   4.186  0.0386 -0.2151 -0.1566
32693SOL     OW 2889   3.168   5.999  10.166 -0.0615  0.2329  0.4505
32693SOL    HW1 2890   3.111   5.954  10.104  1.1335 -0.6902 -0.0181
32693SOL    HW2 2891   3.120   5.995  10.249 -1.4681  1.0751 -0.2916
32694SOL     OW 2892   6.256   0.984  12.326 -0.2523 -0.1956 -0.3690
32694SOL    HW1 2893   6.284   0.989  12.417 -1.1286  1.3372 -0.1452
32694SOL    HW2 2894   6.314   1.043  12.279 -1.6681  1.3282 -0.2645
32695SOL     OW 2895  10.934   1.031  11.986  0.6150 -0.3553 -0.8542
32695SOL    HW1 2896  10.982   1.023  12.068 -0.1910  0.0678 -0.3216
32695SOL    HW2 2897  10.883   1.111  11.996 -0.4995 -0.9932 -1.2275
32696SOL     OW 2898   4.175  11.340   4.607 -0.2499 -0.3336 -0.1410
32696SOL    HW1 2899   4.252  11.330   4.552 -0.7859 -1.2471 -0.7421
32696SOL    HW2 2900   4.186  11.277   4.677 -0.3461 -0.3112 -0.1046
32697SOL     OW 2901   8.606   8.351   5.652 -0.1369 -0.6551  0.4186
32697SOL    HW1 2902   8.684   8.303   5.624 -1.6215 -2.4166 -0.9763
32697SOL    HW2 2903   8.538   8.284   5.661 -1.4741  0.7891  1.7903
32698SOL     OW 2904   5.091   2.526   2.198 -0.1778  0.3030  0.2138
32698SOL    HW1 2905   5.094   2.509   2.104 -0.8166 -1.0454  0.4086
32698SOL    HW2 2906   5.033   2.602   2.207 -0.2886  0.3069 -0.4599
32699SOL     OW 2907   3.633   8.905   7.085  0.3338  0.2383  0.0556
32699SOL    HW1 2908   3.639   8.833   7.148  0.5282  0.3298  0.1402
32699SOL    HW2 2909   3.591   8.976   7.134 -0.0033  0.1345 -0.0726
32700SOL     OW 2910   0.072   5.379   3.137 -0.4872 -0.5765  0.3851
32700SOL    HW1 2911   0.017   5.457   3.129 -1.5463 -1.1600  1.6880
32700SOL    HW2 2912   0.155   5.404   3.096 -0.4061  1.6149  1.7684
32701SOL     OW 2913  12.198   4.341   2.606 -0.8249  0.6187 -0.0261
32701SOL    HW1 2914  12.173   4.307   2.520  1.0639 -0.0943 -0.3237
32701SOL    HW2 2915  12.167   4.432   2.605 -0.0945  0.8914 -1.8065
32702SOL     OW 2916   5.531  10.141   8.057 -0.2711 -0.2583  0.6298
32702SOL    HW1 2917   5.599  10.113   8.117  0.8674 -0.1220 -0.5505
32702SOL    HW2 2918   5.525  10.236   8.069  1.6900  0.1685 -1.1027
32703SOL     OW 2919   9.464   6.586  10.136 -0.0282  0.6745 -0.0514
32703SOL    HW1 2920   9.440   6.678  10.123  0.0104  0.6643 -0.1988
32703SOL    HW2 2921   9.380   6.541  10.143 -0.0809  0.9735  1.9412
32704SOL     OW 2922   2.962   0.010   0.585 -0.3325  0.2942 -0.0664
32704SOL    HW1 2923   2.905   0.029   0.660 -0.0818  0.1472  0.1610
32704SOL    HW2 2924   2.994   0.096   0.557 -0.8447  0.4040 -0.3420
32705SOL     OW 2925   9.337   1.409   8.754 -0.1020 -0.2414 -0.2393
32705SOL    HW1 2926   9.244   1.413   8.729  0.1678  1.1128 -1.1261
32705SOL    HW2 2927   9.341   1.453   8.839 -0.5649 -2.2158  0.8668
32706SOL     OW 2928   9.207   1.405   9.823 -0.1635 -0.3819  0.7971
32706SOL    HW1 2929   9.224   1.470   9.890  0.0903  0.5292 -0.1280
32706SOL    HW2 2930   9.182   1.456   9.746  0.4153 -1.3597 -0.0555
32707SOL     OW 2931   7.667   8.716   4.493 -0.1157 -0.2584 -0.6336
32707SOL    HW1 2932   7.646   8.808   4.478 -1.0059 -0.6049 -1.6906
32707SOL    HW2 2933   7.614   8.691   4.568  1.2822  0.4452  0.6614
32708SOL     OW 2934  10.574  10.942  12.569  0.0535  0.6225  0.3831
32708SOL    HW1 2935  10.627  10.876  12.524 -0.3498 -0.7842  1.9099
32708SOL    HW2 2936  10.545  10.900  12.649 -1.0968  2.3165  0.9134
32709SOL     OW 2937  11.124   3.811  11.588  0.0377  0.2967 -0.4398
32709SOL    HW1 2938  11.111   3.717  11.576 -0.3983  0.1596  1.0105
32709SOL    HW2 2939  11.082   3.851  11.511 -1.2276 -0.6117 -0.2499
32710SOL     OW 2940   2.914   6.416   6.406  0.3909  0.7480 -0.3702
32710SOL    HW1 2941   2.917   6.479   6.478 -2.4114  0.3229  0.2704
32710SOL    HW2 2942   2.859   6.344   6.440  0.6796 -0.4225 -2.2356
32711SOL     OW 2943   8.392  10.516   3.986 -0.1849 -0.8082 -0.1758
32711SOL    HW1 2944   8.457  10.460   4.028 -1.1105 -1.4345  0.4832
32711SOL    HW2 2945   8.434  10.602   3.979 -0.1578 -0.4634  2.6958
32712SOL     OW 2946  12.123   0.340   6.226 -0.1788  0.1911  0.5607
32712SOL    HW1 2947  12.073   0.259   6.217  0.8563 -0.3038 -1.4230
32712SOL    HW2 2948  12.174   0.329   6.306  0.1568 -1.2804  0.1742
32713SOL     OW 2949   3.540  10.558  12.512  0.1627 -0.4739 -0.6853
32713SOL    HW1 2950   3.564  10.644  12.477  1.2045 -0.2437  0.5446
32713SOL    HW2 2951   3.584  10.495  12.455  0.4536 -0.1558 -0.8124
32714SOL     OW 2952   8.824   0.598   2.858 -0.5553  0.0124 -0.4700
32714SOL    HW1 2953   8.846   0.600   2.952  0.5289  0.0603 -0.7113
32714SOL    HW2 2954   8.729   0.589   2.856 -0.6741  0.7567  0.6436
32715SOL     OW 2955   9.844   5.556  10.115 -1.0035 -0.1162 -0.3941
32715SOL    HW1 2956   9.854   5.637  10.065 -0.9691 -0.3207 -0.7226
32715SOL    HW2 2957   9.789   5.580  10.189 -2.0036 -0.0671 -1.1311
32716SOL     OW 2958  11.594   5.783   8.807  0.7324 -0.2913 -0.2954
32716SOL    HW1 2959  11.620   5.695   8.782 -0.6167 -0.6705 -0.4606
32716SOL    HW2 2960  11.509   5.796   8.763  0.3495  0.6329  0.6744
32717SOL     OW 2961   4.285   8.844  10.068  0.2162  0.1078 -0.3485
32717SOL    HW1 2962   4.192   8.859  10.087 -0.3687 -1.7018 -1.5313
32717SOL    HW2 2963   4.319   8.799  10.145  0.1177  0.7541  0.0777
32718SOL     OW 2964   2.080   1.677  11.315  0.2734 -0.7918 -0.2417
32718SOL    HW1 2965   2.113   1.656  11.227 -1.3632 -3.5619 -0.3236
32718SOL    HW2 2966   2.076   1.592  11.359 -4.1486 -0.3610  0.6124
32719SOL     OW 2967  12.089  11.921   4.458  0.3725  0.1627 -0.1295
32719SOL    HW1 2968  12.045  11.955   4.380 -0.0086 -0.4089 -0.1699
32719SOL    HW2 2969  12.064  11.983   4.528 -0.2448  0.0241 -0.2198
32720SOL     OW 2970   7.271   6.487   4.398  0.8090 -0.1235 -0.0758
32720SOL    HW1 2971   7.238   6.558   4.453 -1.2263 -1.7174  0.8810
32720SOL    HW2 2972   7.334   6.440   4.453  0.9476 -0.0167 -0.1426
32721SOL     OW 2973   5.175   6.032   5.524 -0.3123 -0.1452  0.0264
32721SOL    HW1 2974   5.102   6.045   5.465  0.8124 -0.6337 -1.5371
32721SOL    HW2 2975   5.165   5.943   5.556  0.2760 -0.6728 -1.2044
32722SOL     OW 2976   1.978  11.771   8.694  0.0165 -0.1714  0.3625
32722SOL    HW1 2977   1.984  11.755   8.600  0.9279 -0.5236  0.4672
32722SOL    HW2 2978   1.986  11.866   8.703  0.2365 -0.1639  0.1054
32723SOL     OW 2979   5.714   0.505   7.976 -0.2411  0.6171 -0.0284
32723SOL    HW1 2980   5.639   0.559   8.001  0.9744  1.7307  1.4519
32723SOL    HW2 2981   5.788   0.564   7.981  0.9967 -0.9103  0.4813
32724SOL     OW 2982   7.042   2.729  10.951 -0.5000 -0.0039 -0.1477
32724SOL    HW1 2983   7.015   2.791  11.019 -1.4581  0.0858 -0.5962
32724SOL    HW2 2984   7.135   2.712  10.970 -0.7321  0.0353  1.1648
32725SOL     OW 2985   2.813   9.712   2.090 -0.6286 -0.1582 -0.9839
32725SOL    HW1 2986   2.769   9.680   2.169 -0.0290 -0.0431 -0.5929
32725SOL    HW2 2987   2.778   9.658   2.020 -3.0921  1.4155 -1.0703
32726SOL     OW 2988   6.335   3.688   2.656 -0.0335  0.2121  0.3149
32726SOL    HW1 2989   6.378   3.616   2.609  0.6951  0.8239  0.0160
32726SOL    HW2 2990   6.390   3.764   2.637 -1.6714  1.1995 -0.7025
32727SOL     OW 2991   9.478   3.283   0.184 -0.2717 -0.4446 -0.0421
32727SOL    HW1 2992   9.446   3.282   0.094 -1.3600 -1.3259  0.3312
32727SOL    HW2 2993   9.434   3.357   0.224 -0.9150 -0.9170  0.1396
32728SOL     OW 2994   2.915   0.703   3.372 -0.1633 -0.0555  0.2690
32728SOL    HW1 2995   2.869   0.643   3.314  1.2005 -1.2104  0.3138
32728SOL    HW2 2996   2.956   0.767   3.314  2.5653 -2.1478 -0.3191
32729SOL     OW 2997   8.234   5.152   5.415 -0.6322  0.0832 -0.1199
32729SOL    HW1 2998   8.322   5.133   5.450 -1.5315 -0.5669  1.9696
32729SOL    HW2 2999   8.221   5.088   5.346 -0.1635 -1.0716  0.8246
32730SOL     OW 3000  10.182   2.413  11.806 -0.1841 -0.0774  0.4712
32730SOL    HW1 3001  10.180   2.378  11.717 -1.1259 -1.8371  1.1362
32730SOL    HW2 3002  10.271   2.396  11.837  0.3850  1.2315 -0.3461
32731SOL     OW 3003   3.145  11.917   7.017  0.2573 -0.4664 -0.1447
32731SOL    HW1 3004   3.183  11.838   7.055 -1.1798 -0.5562  1.2178
32731SOL    HW2 3005   3.085  11.950   7.085 -1.1393  0.3201 -1.6826
32732SOL     OW 3006   0.805   9.181   2.680 -0.0871  0.4782  0.1055
32732SOL    HW1 3007   0.732   9.181   2.741  0.3752 -0.2172  0.6838
32732SOL    HW2 3008   0.853   9.262   2.700  0.4867 -0.1129  1.2095
32733SOL     OW 3009  12.286   6.760   5.595 -0.1463  0.0165 -0.4543
32733SOL    HW1 3010  12.342   6.828   5.559 -0.1929 -0.7406 -2.0186
32733SOL    HW2 3011  12.244   6.801   5.671  0.8102  1.2925 -0.5927
32734SOL     OW 3012  10.785   1.783   9.877  0.4396  0.4773 -0.1370
32734SOL    HW1 3013  10.816   1.772   9.967 -1.5767  1.1855  0.7022
32734SOL    HW2 3014  10.714   1.720   9.868  1.2439 -0.2867 -1.6124
32735SOL     OW 3015   0.585   1.767   8.206  0.2347 -0.3819  0.0715
32735SOL    HW1 3016   0.679   1.779   8.219  0.3174 -1.8918  1.1035
32735SOL    HW2 3017   0.548   1.855   8.215  1.4157  0.0628  0.7761
32736SOL     OW 3018   6.741  11.008  11.837  0.3039 -0.0952  0.4498
32736SOL    HW1 3019   6.743  11.056  11.920 -0.0979 -2.0884  1.6737
32736SOL    HW2 3020   6.797  10.932  11.851 -1.4340 -1.6158 -0.3202
32737SOL     OW 3021  11.526   0.249   4.205 -0.0732 -0.2733 -0.3294
32737SOL    HW1 3022  11.498   0.185   4.271 -1.8122  0.3999 -0.3333
32737SOL    HW2 3023  11.458   0.317   4.208  1.0153  0.9116 -1.2414
32738SOL     OW 3024   0.872   3.612   0.918  0.0714  0.2769  0.5878
32738SOL    HW1 3025   0.882   3.704   0.893  1.3441  0.3805  1.3952
32738SOL    HW2 3026   0.961   3.583   0.940 -0.6180 -0.4215  2.7423
32739SOL     OW 3027   6.511   8.174   0.556 -0.4203  0.1999 -0.1376
32739SOL    HW1 3028   6.585   8.169   0.617  0.0109  0.7987 -0.6145
32739SOL    HW2 3029   6.489   8.082   0.538  0.5743  0.0207 -0.4500
32740SOL     OW 3030   2.553   9.014   2.787  0.4837  0.3213  0.2382
32740SOL    HW1 3031   2.505   9.061   2.856  0.9138 -0.4772  1.1116
32740SOL    HW2 3032   2.505   8.932   2.776 -1.2864  1.5707 -2.5090
32741SOL     OW 3033   8.277   2.922   1.067 -0.1040  0.0968  0.1379
32741SOL    HW1 3034   8.266   3.013   1.041 -1.5374 -1.1111 -4.4300
32741SOL    HW2 3035   8.188   2.891   1.085  0.3299 -0.5260  1.3470
32742SOL     OW 3036  11.342   0.529  10.887  0.0712  0.1477 -0.4217
32742SOL    HW1 3037  11.341   0.574  10.972  1.0662 -0.8027  0.1159
32742SOL    HW2 3038  11.271   0.465  10.894 -0.6230  0.8596 -0.7731
32743SOL     OW 3039   5.288   0.156   5.173 -0.2523 -0.2727 -0.2245
32743SOL    HW1 3040   5.272   0.063   5.162 -1.0734 -0.4815  2.2092
32743SOL    HW2 3041   5.206   0.191   5.208 -0.2184  1.5473 -1.7286
32744SOL     OW 3042  11.295  12.447   9.814  0.2092 -0.0227 -0.6330
32744SOL    HW1 3043  11.323  12.414   9.728  2.3111 -0.3346  0.1204
32744SOL    HW2 3044  11.269  12.368   9.862 -2.7866  0.2977 -1.4968
32745SOL     OW 3045   3.717   7.320   6.706 -0.4569 -0.2886 -0.0433
32745SOL    HW1 3046   3.711   7.228   6.735  1.2705 -0.7152 -0.9240
32745SOL    HW2 3047   3.792   7.355   6.754 -1.4007  0.8563  0.6600
32746SOL     OW 3048   6.594  12.619   5.966 -0.2032 -0.5324  0.0861
32746SOL    HW1 3049   6.514  12.566   5.961 -0.1442 -0.5552 -0.9453
32746SOL    HW2 3050   6.568  12.704   5.930  0.1841 -0.4787 -0.0639
32747SOL     OW 3051  11.499   9.798  10.313  0.0169  0.6287  0.4681
32747SOL    HW1 3052  11.414   9.841  10.306 -1.0639 -1.4586  0.0427
32747SOL    HW2 3053  11.563   9.865  10.289 -1.6470  1.6502 -1.3013
32748SOL     OW 3054   5.541   6.692   4.124 -0.0777  0.3084 -0.1602
32748SOL    HW1 3055   5.511   6.782   4.140  1.4100  0.6792  0.6696
32748SOL    HW2 3056   5.625   6.686   4.169  0.1601 -1.3117 -0.7607
32749SOL     OW 3057   3.934   3.722   7.728 -0.3211 -0.3423  0.1699
32749SOL    HW1 3058   3.987   3.673   7.664  0.6645  0.9637 -0.0574
32749SOL    HW2 3059   3.945   3.673   7.809  0.1075 -0.8719 -0.1925
32750SOL     OW 3060   3.032   9.544  10.753 -0.4514 -0.1061 -0.3036
32750SOL    HW1 3061   3.089   9.610  10.792 -0.1612 -0.2871 -0.4216
32750SOL    HW2 3062   2.957   9.594  10.720 -0.8970  0.0203  0.8146
32751SOL     OW 3063   8.170   8.395  11.831  0.0643 -0.1128 -0.1053
32751SOL    HW1 3064   8.221   8.402  11.911  0.6339  1.3587 -0.5611
32751SOL    HW2 3065   8.092   8.346  11.856  0.5862 -0.3410  1.1503
32752SOL     OW 3066   0.905  10.672   5.568 -0.1694 -0.3410 -0.7889
32752SOL    HW1 3067   0.894  10.578   5.559  0.9976 -1.1758  3.8019
32752SOL    HW2 3068   0.999  10.686   5.553  0.0933 -0.3647  0.6744
32753SOL     OW 3069  10.104   2.024  10.466 -0.2181  0.1379 -0.0344
32753SOL    HW1 3070  10.153   2.106  10.474  0.9533 -0.2719 -2.4349
32753SOL    HW2 3071  10.022   2.042  10.513  0.5441  2.2093  0.6482
32754SOL     OW 3072   5.604   8.382   6.098  0.0089 -0.2649 -0.5158
32754SOL    HW1 3073   5.543   8.310   6.115 -0.6683  0.7627  1.8936
32754SOL    HW2 3074   5.690   8.339   6.092 -0.2234 -1.2729  1.9644
32755SOL     OW 3075   3.561  11.999   8.828  0.0807 -0.0595  0.5566
32755SOL    HW1 3076   3.513  11.918   8.849 -0.5763 -0.0946 -0.9826
32755SOL    HW2 3077   3.619  11.975   8.756  1.4419  0.3458  1.4649
32756SOL     OW 3078   2.366   7.011   8.789 -0.3614  0.0264  0.0822
32756SOL    HW1 3079   2.302   6.944   8.811  0.0883 -0.5417 -0.3180
32756SOL    HW2 3080   2.330   7.054   8.711 -1.7860  1.8158  1.6300
32757SOL     OW 3081   6.294  12.139   0.354  0.2817 -0.0525  0.2746
32757SOL    HW1 3082   6.248  12.169   0.432  0.5349 -0.6154  0.6487
32757SOL    HW2 3083   6.314  12.219   0.305 -1.5479  0.1667 -0.1650
32758SOL     OW 3084   0.873   3.775   2.961 -0.3134 -0.1465 -0.1993
32758SOL    HW1 3085   0.950   3.719   2.949 -0.3336 -0.2083 -0.0517
32758SOL    HW2 3086   0.883   3.810   3.050  0.1653  0.7986 -0.6038
32759SOL     OW 3087   0.840   0.871   0.305 -0.0020 -0.4205  0.1680
32759SOL    HW1 3088   0.754   0.880   0.265 -0.1041 -0.2025  0.4361
32759SOL    HW2 3089   0.889   0.816   0.244 -0.6479 -1.4043  0.5021
32760SOL     OW 3090   3.749  10.990   5.296  0.5141  0.0157  0.1228
32760SOL    HW1 3091   3.678  11.054   5.293  0.9287  0.5415  1.0444
32760SOL    HW2 3092   3.776  10.981   5.204  1.1915  2.0471  0.0511
32761SOL     OW 3093   0.022   6.563  11.604  0.3402 -1.0200  0.2862
32761SOL    HW1 3094   0.015   6.539  11.696  1.3651 -0.6185  0.4775
32761SOL    HW2 3095   0.022   6.480  11.557 -0.9472 -1.2056  0.5739
32762SOL     OW 3096   1.518   9.799   3.945 -0.3724  0.0447  0.3620
32762SOL    HW1 3097   1.436   9.791   3.897 -1.1891 -0.7296  1.8209
32762SOL    HW2 3098   1.495   9.780   4.036  1.4304 -0.2534  0.8049
32763SOL     OW 3099   2.260   4.071   7.528 -0.7457 -0.0924 -0.7486
32763SOL    HW1 3100   2.325   4.036   7.467  0.7964  0.6232  0.4385
32763SOL    HW2 3101   2.179   4.026   7.504  0.2866 -1.4337 -1.8945
32764SOL     OW 3102  12.158   3.683   6.552 -0.0826  0.3709 -0.1332
32764SOL    HW1 3103  12.099   3.615   6.585  1.2396 -1.2462 -0.9230
32764SOL    HW2 3104  12.177   3.737   6.629 -0.9601 -0.3109  0.5966
32765SOL     OW 3105   7.351   1.379  12.128  0.4588  0.1495  0.0980
32765SOL    HW1 3106   7.335   1.335  12.212  0.2829  2.0042  1.0699
32765SOL    HW2 3107   7.365   1.471  12.150 -1.5268  1.0885 -2.0628
32766SOL     OW 3108   1.682   1.014   5.900 -0.0210  0.0963 -0.2733
32766SOL    HW1 3109   1.600   1.011   5.851 -0.6048 -0.4874  0.6986
32766SOL    HW2 3110   1.750   0.995   5.836 -0.6949  0.0604 -0.9868
32767SOL     OW 3111   8.258   5.241   2.327 -0.0813  0.3991 -0.0224
32767SOL    HW1 3112   8.235   5.149   2.343 -0.2261  0.4042 -0.1941
32767SOL    HW2 3113   8.352   5.245   2.342  0.1964 -0.1106 -1.5018
32768SOL     OW 3114   0.983   3.099  10.654  0.5965 -0.2289 -0.1965
32768SOL    HW1 3115   0.946   3.060  10.733  2.0867 -1.2508  0.0353
32768SOL    HW2 3116   1.029   3.177  10.685 -1.4578  1.1875 -0.5178
32769SOL     OW 3117   5.122   1.040   0.410  0.4138  0.4076  0.2617
32769SOL    HW1 3118   5.124   1.127   0.449  1.5435 -0.0929  1.3899
32769SOL    HW2 3119   5.029   1.021   0.397  0.1666  2.7020 -2.2561
32770SOL     OW 3120   7.171   2.324   4.078 -0.5139  0.1638 -0.2796
32770SOL    HW1 3121   7.159   2.232   4.102 -1.7730  0.1460 -0.9013
32770SOL    HW2 3122   7.215   2.321   3.993  1.6177  0.1943  0.7714
32771SOL     OW 3123   5.702   8.702   1.569 -0.0040  0.0870  0.6294
32771SOL    HW1 3124   5.738   8.640   1.633  1.8840 -1.0881 -1.4318
32771SOL    HW2 3125   5.681   8.649   1.493 -1.5605  1.5482 -0.0221
32772SOL     OW 3126   9.019  11.098   0.237 -0.2444  0.0775 -0.7137
32772SOL    HW1 3127   9.058  11.167   0.182  0.9204 -1.7451 -2.2962
32772SOL    HW2 3128   9.093  11.063   0.287 -0.6969 -0.4728 -0.4291
32773SOL     OW 3129  10.098   5.016   2.085  0.0514  0.5127  0.2286
32773SOL    HW1 3130  10.163   5.036   2.017 -1.1142 -0.6771 -1.2991
32773SOL    HW2 3131  10.114   4.924   2.107 -1.2758  0.1039 -0.4039
32774SOL     OW 3132   6.398  10.988  10.885 -0.4857 -0.0552 -0.0969
32774SOL    HW1 3133   6.441  10.970  10.801  2.1469  0.8339  0.9427
32774SOL    HW2 3134   6.353  10.906  10.906 -1.6017 -0.1604 -2.5143
32775SOL     OW 3135   1.383   9.770  10.836 -0.0416 -0.1761 -0.0823
32775SOL    HW1 3136   1.337   9.718  10.770 -0.3196  0.0847 -0.1004
32775SOL    HW2 3137   1.451   9.712  10.869  2.8939  0.9528 -3.4902
32776SOL     OW 3138   9.668   2.135   9.624 -0.1956  0.2834  0.1055
32776SOL    HW1 3139   9.646   2.102   9.711  2.9094  1.2495  1.4135
32776SOL    HW2 3140   9.666   2.230   9.633 -1.8320  0.4600 -1.5293
32777SOL     OW 3141   6.251  12.340   7.728 -0.1167  0.0099 -0.1702
32777SOL    HW1 3142   6.220  12.286   7.801 -0.0804  0.0038 -0.1593
32777SOL    HW2 3143   6.214  12.298   7.650 -1.2453  0.7784 -0.0620
32778SOL     OW 3144   5.371   5.781   6.222  0.2226 -0.2332 -0.1284
32778SOL    HW1 3145   5.347   5.776   6.314  2.0806  2.9668  0.6835
32778SOL    HW2 3146   5.309   5.843   6.184  0.3626 -0.4168 -0.6654
32779SOL     OW 3147   1.108   3.326   9.138 -0.6108  0.1596  0.4207
32779SOL    HW1 3148   1.182   3.270   9.160 -0.1176 -0.6726 -2.8374
32779SOL    HW2 3149   1.041   3.304   9.203  0.6669 -1.9494  1.1174
32780SOL     OW 3150   0.911   0.213   9.659  0.0275 -0.6532 -0.0051
32780SOL    HW1 3151   0.983   0.237   9.601 -0.5587  1.8044  0.1867
32780SOL    HW2 3152   0.952   0.203   9.745  0.2989 -0.3308 -0.0981
32781SOL     OW 3153   0.204   5.234  10.311  0.4229 -0.2772  0.0047
32781SOL    HW1 3154   0.193   5.321  10.350  1.0980 -0.4773  0.6678
32781SOL    HW2 3155   0.284   5.200  10.351  0.8699 -0.6950 -1.1962
32782SOL     OW 3156  11.014   2.364  10.761 -0.2103 -0.2116 -0.2584
32782SOL    HW1 3157  10.921   2.375  10.743 -0.5989  1.6396  2.3557
32782SOL    HW2 3158  11.049   2.453  10.767  1.1894 -0.8044  1.1763
32783SOL     OW 3159   5.008  11.872   6.687  0.0173  0.2443 -0.1240
32783SOL    HW1 3160   5.077  11.830   6.635  1.0475  2.6474 -0.8241
32783SOL    HW2 3161   4.939  11.893   6.624 -0.8111 -0.9720  0.3477
32784SOL     OW 3162   9.163   4.398  11.983 -0.3566  0.6166 -0.4898
32784SOL    HW1 3163   9.250   4.385  12.021 -0.5057  0.1858 -0.2860
32784SOL    HW2 3164   9.110   4.430  12.056 -0.4874  0.4067 -0.4922
32785SOL     OW 3165   7.899   9.789   6.464 -0.0301 -0.5565  0.0092
32785SOL    HW1 3166   7.898   9.809   6.370  0.1534  1.6872  0.4260
32785SOL    HW2 3167   7.984   9.747   6.478  1.1371  1.5200 -0.4359
32786SOL     OW 3168   3.858   8.805   7.243 -0.0271  0.4610 -0.0131
32786SOL    HW1 3169   3.930   8.750   7.214 -0.7247 -0.1023 -0.6958
32786SOL    HW2 3170   3.901   8.880   7.286  0.9422 -0.0581 -0.0551
32787SOL     OW 3171   7.810   0.411   3.097 -0.4783  0.3244 -0.4664
32787SOL    HW1 3172   7.726   0.376   3.127 -1.3460  1.7769 -1.0944
32787SOL    HW2 3173   7.840   0.465   3.171  0.2388 -0.6849  0.0047
32788SOL     OW 3174   8.892  12.516  11.343 -0.2929 -0.5490 -0.5554
32788SOL    HW1 3175   8.915  12.588  11.285  0.3453 -1.2832 -1.2428
32788SOL    HW2 3176   8.858  12.448  11.285  1.7072 -1.8551 -0.2874
32789SOL     OW 3177   1.269   1.193   3.465 -0.6544 -0.1791 -0.0471
32789SOL    HW1 3178   1.243   1.276   3.425  0.6352 -0.0853 -0.7501
32789SOL    HW2 3179   1.193   1.136   3.455 -1.1420  0.5582 -0.5998
32790SOL     OW 3180   8.059   1.180   0.423  0.1062 -0.1951 -0.2361
32790SOL    HW1 3181   8.073   1.085   0.415  0.2014 -0.2405  0.4180
32790SOL    HW2 3182   8.144   1.218   0.400  0.7002 -0.3742  1.5048
32791SOL     OW 3183   7.530  11.139   1.847 -0.4503 -0.4204 -0.1664
32791SOL    HW1 3184   7.529  11.058   1.797 -3.3496  0.0315 -1.0038
32791SOL    HW2 3185   7.589  11.196   1.798  2.0662 -2.0708  0.7267
32792SOL     OW 3186   9.987   2.467   0.059 -0.4246  0.0870 -0.0081
32792SOL    HW1 3187   9.931   2.398   0.091 -0.5695 -1.2401 -2.8227
32792SOL    HW2 3188   9.927   2.538   0.034 -0.7293 -0.6092 -1.3206
32793SOL     OW 3189   1.391   7.647   1.241 -0.4082  0.0705  0.4106
32793SOL    HW1 3190   1.382   7.552   1.247 -3.4910  0.1726 -0.9203
32793SOL    HW2 3191   1.368   7.679   1.328  1.3323 -0.3557  1.0758
32794SOL     OW 3192   3.107   3.079  10.775  0.3550 -0.3226  0.2130
32794SOL    HW1 3193   3.194   3.042  10.762  0.3161 -0.3748  0.0972
32794SOL    HW2 3194   3.053   3.005  10.804  0.3831 -0.2588  0.4297
32795SOL     OW 3195   2.331  10.943   6.778 -0.1526 -0.2427 -0.7006
32795SOL    HW1 3196   2.419  10.909   6.764  0.9443  2.8217 -2.1268
32795SOL    HW2 3197   2.344  11.034   6.802 -2.9357 -0.1453  0.8719
32796SOL     OW 3198   1.503   6.795  12.296  0.3720 -0.3780  0.5070
32796SOL    HW1 3199   1.538   6.710  12.323 -1.5971 -1.7863 -1.0422
32796SOL    HW2 3200   1.453   6.826  12.372 -1.2625 -2.0373  0.1666
32797SOL     OW 3201   2.494  10.499   7.487  0.2025  0.0897  0.3967
32797SOL    HW1 3202   2.552  10.514   7.412 -0.4706 -0.9837 -0.3784
32797SOL    HW2 3203   2.412  10.542   7.463  0.2320  0.4257  0.8794
32798SOL     OW 3204   8.000  12.524  12.419  0.5255  0.2713  0.3927
32798SOL    HW1 3205   8.056  12.503  12.494 -0.3900 -1.1857  0.7032
32798SOL    HW2 3206   7.996  12.443  12.369 -0.7542  0.5415  0.0268
32799SOL     OW 3207  10.096   5.953   2.161 -0.8258  0.4926  0.3484
32799SOL    HW1 3208  10.023   6.003   2.125  0.7813  1.9189 -1.1336
32799SOL    HW2 3209  10.137   5.911   2.085  0.0865  0.0057  1.0851
32800SOL     OW 3210   0.665   3.133   6.646  0.0271  0.2277  0.2121
32800SOL    HW1 3211   0.577   3.170   6.634 -0.2636 -0.8084 -1.1218
32800SOL    HW2 3212   0.693   3.110   6.557  1.5901  0.3877  0.6445
32801SOL     OW 3213   7.066  10.586   6.254  0.2859 -0.1234  0.1682
32801SOL    HW1 3214   7.044  10.492   6.251  0.6460 -0.1841 -1.1029
32801SOL    HW2 3215   7.089  10.602   6.345 -0.4707 -1.1164  0.5552
32802SOL     OW 3216  11.056   1.529   9.871  0.1650 -0.1930  0.0318
32802SOL    HW1 3217  11.117   1.492   9.935 -0.7506  1.6314  2.0976
32802SOL    HW2 3218  11.083   1.620   9.861 -1.5128  0.3775  0.2236
32803SOL     OW 3219   7.755  12.327   0.527 -0.5244 -0.2396  0.2260
32803SOL    HW1 3220   7.766  12.354   0.619 -0.7507 -1.1753  0.5379
32803SOL    HW2 3221   7.779  12.235   0.527  0.6671  0.0467 -0.9021
32804SOL     OW 3222  11.560   2.241   9.470  0.1699  0.1159  0.1121
32804SOL    HW1 3223  11.485   2.298   9.490 -0.0491 -0.6902  1.8403
32804SOL    HW2 3224  11.538   2.201   9.386 -2.0109 -1.0718  1.1552
32805SOL     OW 3225   6.736   4.051   4.512 -0.1207 -0.1667 -0.1165
32805SOL    HW1 3226   6.750   4.023   4.602 -0.2961 -0.6437 -0.2378
32805SOL    HW2 3227   6.656   4.103   4.514  0.0460  0.0862  0.0555
32806SOL     OW 3228   1.098   4.582   5.487 -0.1469 -0.3277  0.1461
32806SOL    HW1 3229   1.012   4.592   5.446 -0.3171 -1.7874  0.0973
32806SOL    HW2 3230   1.107   4.488   5.502  1.6209 -0.2541 -0.2245
32807SOL     OW 3231   1.292   1.101   2.631  0.0525  0.0625  0.5145
32807SOL    HW1 3232   1.280   1.111   2.726 -0.8219 -0.1433  0.4264
32807SOL    HW2 3233   1.290   1.190   2.597 -0.4767  0.0834  0.5939
32808SOL     OW 3234   8.183   3.028   0.692 -0.1456 -0.4126 -0.5471
32808SOL    HW1 3235   8.251   3.075   0.643  0.0945  0.7151  0.8146
32808SOL    HW2 3236   8.117   3.094   0.712 -0.7607 -1.0953 -0.2716
32809SOL     OW 3237   3.135   3.783   2.146  0.3906 -0.2177 -0.3439
32809SOL    HW1 3238   3.151   3.800   2.053  1.1481  0.3355 -0.1228
32809SOL    HW2 3239   3.172   3.696   2.161  0.5360 -0.1845 -0.5038
32810SOL     OW 3240   6.160  11.347  11.002  0.3137 -0.3292 -0.2009
32810SOL    HW1 3241   6.220  11.313  11.068  1.0785  0.6369 -0.3842
32810SOL    HW2 3242   6.157  11.278  10.935 -1.1488 -1.7149  1.1882
32811SOL     OW 3243   7.663   3.086   5.962  0.4000 -0.2364  0.2097
32811SOL    HW1 3244   7.738   3.138   5.988  0.6189 -0.0775 -0.6991
32811SOL    HW2 3245   7.671   3.079   5.866  0.2291 -1.6814  0.2701
32812SOL     OW 3246  11.537  11.555  11.245 -0.2913 -0.2219 -0.0573
32812SOL    HW1 3247  11.631  11.544  11.259 -0.3024 -0.8895 -0.4376
32812SOL    HW2 3248  11.527  11.554  11.150 -0.7795 -1.1336 -0.0152
32813SOL     OW 3249   0.852   6.824  10.273 -0.9577 -0.1017  0.1303
32813SOL    HW1 3250   0.791   6.847  10.343  1.1034  0.6562  1.7667
32813SOL    HW2 3251   0.814   6.862  10.194 -1.9775  1.4242  1.3171
32814SOL     OW 3252   4.521   9.150   9.331  0.1977  0.0436 -0.0812
32814SOL    HW1 3253   4.447   9.099   9.300 -0.1853  1.5184 -1.7926
32814SOL    HW2 3254   4.572   9.089   9.384 -2.1841 -1.0330  1.1363
32815SOL     OW 3255  12.621   1.857  10.246 -0.6116  0.5315 -0.2538
32815SOL    HW1 3256  12.534   1.852  10.287 -0.3918 -0.8244  0.0807
32815SOL    HW2 3257  12.635   1.951  10.234 -0.9579  0.9809  2.2105
32816SOL     OW 3258  11.424   6.077   7.696  0.4397  0.4434  0.3389
32816SOL    HW1 3259  11.513   6.058   7.665  0.2725  0.0081  0.1101
32816SOL    HW2 3260  11.391   6.144   7.636  0.8307  1.0586  0.8006
32817SOL     OW 3261   1.495   3.810   0.098  0.1485 -0.4316 -0.0954
32817SOL    HW1 3262   1.421   3.759   0.131  1.1991 -0.7854  1.8237
32817SOL    HW2 3263   1.540   3.842   0.176  0.7694  1.6816 -1.2185
32818SOL     OW 3264  11.020   5.142   0.359  0.6592 -0.1928  0.0762
32818SOL    HW1 3265  11.062   5.074   0.412  0.2766 -1.0140 -0.6281
32818SOL    HW2 3266  11.022   5.221   0.413 -1.1078 -1.3398  1.9984
32819SOL     OW 3267   8.346   8.591   8.956 -0.7455  0.3959  0.4648
32819SOL    HW1 3268   8.265   8.630   8.989 -2.0032 -1.0198 -0.7774
32819SOL    HW2 3269   8.320   8.550   8.873  0.8332 -1.5930  0.8782
32820SOL     OW 3270   7.583   8.231   9.971 -0.1847  0.0146 -0.5040
32820SOL    HW1 3271   7.504   8.277   9.999  0.4848  1.0740 -0.3158
32820SOL    HW2 3272   7.591   8.158  10.033 -0.6533  0.2698 -0.1309
32821SOL     OW 3273  10.590   2.948   9.890  0.6382 -0.4101 -0.1177
32821SOL    HW1 3274  10.613   2.946   9.982 -1.8730 -0.0843  0.5898
32821SOL    HW2 3275  10.531   2.874   9.878 -2.4543  1.8986 -0.3575
32822SOL     OW 3276   8.482   3.596  11.410 -0.8284 -0.7572  0.1875
32822SOL    HW1 3277   8.537   3.592  11.332  2.1770 -1.7530  2.1486
32822SOL    HW2 3278   8.453   3.688  11.414  0.2162 -0.3257 -1.2681
32823SOL     OW 3279  10.752   0.631   5.484 -0.5856  0.5910  0.2137
32823SOL    HW1 3280  10.695   0.561   5.454 -1.4180  0.2810  2.3521
32823SOL    HW2 3281  10.839   0.590   5.490 -0.5010  0.5252 -1.1487
32824SOL     OW 3282  12.275   1.459   8.573  0.9702  0.0360 -0.3199
32824SOL    HW1 3283  12.230   1.543   8.581 -1.6548 -1.2829 -0.2192
32824SOL    HW2 3284  12.330   1.454   8.651 -0.3528  0.8251  0.7040
32825SOL     OW 3285   9.934   3.813  11.220 -0.6099  0.2897 -0.1812
32825SOL    HW1 3286   9.843   3.816  11.189 -1.2192 -2.2005  1.1274
32825SOL    HW2 3287   9.978   3.754  11.159 -0.4146 -0.1795  0.4036
32826SOL     OW 3288   4.362   7.863   8.979 -0.2463  0.1351 -0.0894
32826SOL    HW1 3289   4.315   7.781   8.963  0.0690 -0.0178 -0.2370
32826SOL    HW2 3290   4.454   7.842   8.961  0.0126  0.1812  1.1185
32827SOL     OW 3291  10.160   6.560   5.750 -0.1496  0.2763 -0.0497
32827SOL    HW1 3292  10.177   6.507   5.672  0.5697  0.8204 -0.2733
32827SOL    HW2 3293  10.066   6.553   5.763 -0.0687 -1.1025 -0.0411
32828SOL     OW 3294  12.229   6.057  12.499 -0.0182  0.2328  0.5540
32828SOL    HW1 3295  12.231   6.003  12.577 -2.5065  0.7988  1.1022
32828SOL    HW2 3296  12.313   6.042  12.457  0.2214 -2.3794  1.7722
32829SOL     OW 3297  11.540   1.253   8.954  0.3111 -0.2403  0.0716
32829SOL    HW1 3298  11.458   1.295   8.928  0.8516  0.5103 -0.4646
32829SOL    HW2 3299  11.530   1.237   9.048 -0.1103  0.6559  0.1906
32830SOL     OW 3300   6.745   3.690   8.953 -0.7087  0.2086  0.0462
32830SOL    HW1 3301   6.708   3.776   8.972  1.3705  0.7820  1.8051
32830SOL    HW2 3302   6.735   3.641   9.035  1.6183  0.1338  0.3315
32831SOL     OW 3303   7.638   0.910   2.121  0.3874  0.5525  0.3770
32831SOL    HW1 3304   7.660   0.991   2.074 -0.7298 -0.2555 -1.6890
32831SOL    HW2 3305   7.556   0.931   2.166 -0.1594  0.4506 -0.5495
32832SOL     OW 3306   6.629   2.920   1.108  0.3746 -0.0798  0.5301
32832SOL    HW1 3307   6.564   2.954   1.170 -3.0219  0.4932 -2.9849
32832SOL    HW2 3308   6.621   2.825   1.115 -0.1317 -0.0193  0.8272
32833SOL     OW 3309   5.613   8.426  11.674 -0.4712  0.4579 -0.5065
32833SOL    HW1 3310   5.559   8.480  11.616 -0.6919  0.4784 -0.2816
32833SOL    HW2 3311   5.641   8.353  11.619 -2.0233 -0.4036 -0.2046
32834SOL     OW 3312   8.556  12.005   6.792 -0.3913 -0.5841 -0.0841
32834SOL    HW1 3313   8.572  11.917   6.759 -2.6742 -0.3440 -2.0943
32834SOL    HW2 3314   8.569  12.062   6.716 -2.1997  0.4226  0.3010
32835SOL     OW 3315   2.624   2.950   8.783  0.3701  0.0059 -0.5312
32835SOL    HW1 3316   2.594   2.862   8.806 -0.8369  0.4447 -0.3609
32835SOL    HW2 3317   2.714   2.953   8.813 -0.2509 -0.4394  1.4874
32836SOL     OW 3318   2.749   7.052   1.594  0.5641 -0.1884 -0.0296
32836SOL    HW1 3319   2.790   7.088   1.673  1.0297  0.9628 -0.7675
32836SOL    HW2 3320   2.791   7.098   1.522 -1.6854  0.7152 -0.8592
32837SOL     OW 3321  11.581  12.114   5.837  0.1849 -0.3442 -0.1516
32837SOL    HW1 3322  11.507  12.161   5.798 -0.0117  0.8109  1.5325
32837SOL    HW2 3323  11.649  12.116   5.770 -0.9339 -0.5198 -1.3342
32838SOL     OW 3324   7.253  10.417   4.164 -0.0617  0.5345  0.3280
32838SOL    HW1 3325   7.305  10.366   4.226 -2.5456 -1.2586  1.0751
32838SOL    HW2 3326   7.276  10.382   4.078 -0.0348 -0.2197  0.6381
32839SOL     OW 3327   5.623   5.960   4.563  0.4220  0.0745 -0.2762
32839SOL    HW1 3328   5.650   5.925   4.648  0.4567  3.3651  1.1871
32839SOL    HW2 3329   5.531   5.983   4.576  0.6190  1.2402 -0.9100
32840SOL     OW 3330  12.228   5.832   0.882 -0.0303  0.0782 -0.5191
32840SOL    HW1 3331  12.291   5.770   0.919  0.0907  0.3831 -0.2117
32840SOL    HW2 3332  12.259   5.918   0.910  1.0129  0.4908 -2.6695
32841SOL     OW 3333  12.255   1.071   7.927  0.3399  0.2805  0.1003
32841SOL    HW1 3334  12.211   1.118   7.997  1.1583  1.4343 -0.1297
32841SOL    HW2 3335  12.243   1.127   7.850  1.9979  0.5464 -0.0109
32842SOL     OW 3336   3.541   2.696  11.747  0.4577  0.4433  0.2011
32842SOL    HW1 3337   3.583   2.719  11.829  1.0048  1.0920 -0.2522
32842SOL    HW2 3338   3.585   2.616  11.719  3.3253  2.4715 -1.5781
32843SOL     OW 3339   5.757   8.414   5.199 -0.5823  0.2363 -0.4845
32843SOL    HW1 3340   5.811   8.439   5.124  1.5363 -1.3645  0.4077
32843SOL    HW2 3341   5.740   8.321   5.187 -2.5839  0.5524 -0.3516
32844SOL     OW 3342   6.974   0.289   9.229  0.1824  0.2133  0.2706
32844SOL    HW1 3343   7.063   0.293   9.266  0.4767 -0.0410 -0.3962
32844SOL    HW2 3344   6.987   0.303   9.136 -0.3737 -0.8206  0.0283
32845SOL     OW 3345  11.016   4.983   6.983  0.4372 -0.3808  0.2899
32845SOL    HW1 3346  10.940   5.012   7.035  0.3427  0.6740 -0.4051
32845SOL    HW2 3347  11.085   4.968   7.047  0.1095  0.2128  0.7924
32846SOL     OW 3348   7.002   0.913   6.871  0.2851 -0.1274  0.3857
32846SOL    HW1 3349   6.936   0.845   6.856 -0.2444  0.2526  0.9151
32846SOL    HW2 3350   7.048   0.921   6.788  0.0883 -0.8504  0.2005
32847SOL     OW 3351   7.782   5.531   0.489  0.3620  0.6242 -0.0374
32847SOL    HW1 3352   7.782   5.438   0.464  0.4773  0.5120  0.3703
32847SOL    HW2 3353   7.708   5.569   0.441  1.0301  0.5780 -1.1308
32848SOL     OW 3354   2.383  11.078  10.676  0.3490 -0.5055  0.1795
32848SOL    HW1 3355   2.294  11.111  10.684 -0.0216 -0.9339 -1.8289
32848SOL    HW2 3356   2.436  11.157  10.661  0.3520 -0.2495  1.3899
32849SOL     OW 3357   2.327   3.343   5.671 -0.4814 -0.0817  0.1385
32849SOL    HW1 3358   2.335   3.280   5.742 -0.6537 -1.1838 -0.7807
32849SOL    HW2 3359   2.285   3.419   5.711  0.9473 -0.0003  1.5749
32850SOL     OW 3360   7.307   9.938   0.040 -0.6151  0.2467  0.3950
32850SOL    HW1 3361   7.308  10.030   0.065 -1.5444  1.1347 -2.4800
32850SOL    HW2 3362   7.399   9.913   0.037 -0.1610  1.9073 -1.3364
32851SOL     OW 3363  10.447   1.153  10.226  0.0957  0.3427 -0.1068
32851SOL    HW1 3364  10.461   1.078  10.169 -0.1050 -0.8095  1.3036
32851SOL    HW2 3365  10.535   1.177  10.257 -0.0633 -0.9751  1.4545
32852SOL     OW 3366   5.580   8.420  10.101  0.1388  0.4306  0.1458
32852SOL    HW1 3367   5.655   8.380  10.057  1.0312  0.0500  1.8999
32852SOL    HW2 3368   5.541   8.477  10.035  0.7546 -0.8956 -1.4391
32853SOL     OW 3369   8.948   6.072  10.737  0.1516 -0.1668  0.2653
32853SOL    HW1 3370   8.945   6.120  10.820  1.3810 -1.8304  1.3364
32853SOL    HW2 3371   9.008   5.999  10.754 -1.5376 -2.0360 -1.2859
32854SOL     OW 3372   2.603   4.237   8.417  0.2082 -0.4892 -0.4675
32854SOL    HW1 3373   2.693   4.229   8.385  0.1413  0.0711 -0.8123
32854SOL    HW2 3374   2.549   4.229   8.339 -0.1146 -1.9326 -0.1212
32855SOL     OW 3375   1.773   9.901   1.884 -0.4297 -0.0170 -0.1032
32855SOL    HW1 3376   1.700   9.893   1.945 -2.4823 -0.7745 -2.5069
32855SOL    HW2 3377   1.784   9.814   1.847  0.4161  0.5076 -1.1626
32856SOL     OW 3378   5.254  11.592   1.299 -0.2552 -0.3265  0.0050
32856SOL    HW1 3379   5.197  11.560   1.229  1.7566 -1.6181 -1.1558
32856SOL    HW2 3380   5.275  11.682   1.275 -2.5970  0.5980  1.0616
32857SOL     OW 3381   7.976   8.900   1.597 -0.3468  0.2400  0.6502
32857SOL    HW1 3382   7.885   8.896   1.568 -0.3208  0.2638  0.5668
32857SOL    HW2 3383   7.970   8.918   1.691 -0.4110  1.4779  0.4213
32858SOL     OW 3384   2.917   9.992   2.145 -0.4178 -0.1681  0.2316
32858SOL    HW1 3385   2.860   9.921   2.115 -0.4499 -0.8116  1.7223
32858SOL    HW2 3386   2.931   9.973   2.238  0.1297  1.4140  0.4906
32859SOL     OW 3387   8.042   9.666   5.670 -0.5171  0.0508 -0.4133
32859SOL    HW1 3388   7.962   9.632   5.630 -1.0956 -1.4023  1.8010
32859SOL    HW2 3389   8.107   9.598   5.655 -0.5152 -0.1228  0.3565
32860SOL     OW 3390   4.089   8.746  11.499  1.0798 -0.8989  0.5964
32860SOL    HW1 3391   4.038   8.671  11.531  0.4297 -0.3065  0.9891
32860SOL    HW2 3392   4.031   8.790  11.437  0.7599  0.2522  1.6660
32861SOL     OW 3393   0.862  10.354   0.748 -0.2370 -0.1817  0.4955
32861SOL    HW1 3394   0.882  10.285   0.685 -1.1048  0.7819 -0.8978
32861SOL    HW2 3395   0.936  10.415   0.742 -1.5646  1.3468 -1.7361
32862SOL     OW 3396   1.854  11.288   0.779 -0.9277  0.1992  0.5191
32862SOL    HW1 3397   1.943  11.304   0.749 -1.1335  2.6833  1.0563
32862SOL    HW2 3398   1.814  11.235   0.710  1.4225 -2.5431  1.0963
32863SOL     OW 3399  10.020   1.812  11.931  0.5544  0.3062 -0.0943
32863SOL    HW1 3400  10.044   1.769  11.849  0.8843 -3.1384  1.6433
32863SOL    HW2 3401  10.100   1.857  11.959  0.9116  0.1691 -0.8608
32864SOL     OW 3402   0.191   5.649  12.249 -0.8955 -0.4541  0.0657
32864SOL    HW1 3403   0.237   5.657  12.165 -2.3977  0.2436 -0.7199
32864SOL    HW2 3404   0.172   5.739  12.275 -0.9619 -0.6945  0.8801
32865SOL     OW 3405  10.340   7.974   4.181 -0.4833 -0.0419 -0.0986
32865SOL    HW1 3406  10.319   8.060   4.146 -1.4014 -0.5638 -0.8972
32865SOL    HW2 3407  10.328   7.914   4.107 -0.8526 -0.9784  0.6888
32866SOL     OW 3408   0.094   7.650   3.932  0.4985  0.4687  0.5917
32866SOL    HW1 3409   0.145   7.608   4.002 -0.7624  0.0956  1.3136
32866SOL    HW2 3410   0.018   7.593   3.920  0.1227  1.1348 -0.3039
32867SOL     OW 3411  11.570  10.847   8.427  0.8397 -0.0478  0.1921
32867SOL    HW1 3412  11.639  10.861   8.492  1.7474 -0.1952 -0.7282
32867SOL    HW2 3413  11.591  10.906   8.355 -0.6796  0.7932  0.3923
32868SOL     OW 3414   6.948   6.393   0.013  0.0867 -0.1574 -0.1525
32868SOL    HW1 3415   7.035   6.359  -0.007  0.8633  1.2952  0.5998
32868SOL    HW2 3416   6.900   6.318   0.049  0.7304 -1.1736 -1.3315
32869SOL     OW 3417   5.262   2.513   9.091  0.0918 -0.0539  0.0737
32869SOL    HW1 3418   5.201   2.586   9.081 -1.6085 -1.3859  0.2082
32869SOL    HW2 3419   5.317   2.538   9.165 -0.1653  1.2571 -0.1471
32870SOL     OW 3420   0.536   2.002   9.010  0.1508  0.3235  0.4954
32870SOL    HW1 3421   0.571   1.950   8.938 -2.5445 -1.1751  0.1416
32870SOL    HW2 3422   0.530   2.091   8.974 -1.8048 -0.5168 -1.4728
32871SOL     OW 3423   3.190   7.657  10.754 -0.0474  0.1930  1.1909
32871SOL    HW1 3424   3.136   7.591  10.711  0.3220 -0.8478  2.2710
32871SOL    HW2 3425   3.128   7.720  10.790 -0.4418 -0.0684  0.9752
32872SOL     OW 3426  12.257   9.670   1.087  0.2360 -0.0626  0.0075
32872SOL    HW1 3427  12.178   9.658   1.034  0.5291 -0.0752 -0.4311
32872SOL    HW2 3428  12.322   9.704   1.025  0.9285 -1.1881  0.1070
32873SOL     OW 3429   7.011   2.444   0.832  0.2710  0.3481  0.4119
32873SOL    HW1 3430   6.958   2.367   0.811 -0.1397  0.7052  0.1297
32873SOL    HW2 3431   7.021   2.490   0.748  0.7168  0.4807  0.5323
32874SOL     OW 3432   9.031   0.385   6.086  1.1944 -0.0512 -0.2790
32874SOL    HW1 3433   8.990   0.342   6.011  1.4797  0.7086 -0.8761
32874SOL    HW2 3434   9.110   0.334   6.103  0.3724 -1.1420  0.4803
32875SOL     OW 3435   7.760  11.532   7.576 -0.4447  0.1350  0.3752
32875SOL    HW1 3436   7.747  11.437   7.568  0.3569 -0.1117  1.6726
32875SOL    HW2 3437   7.833  11.541   7.638 -2.0111  1.6296  2.1271
32876SOL     OW 3438   3.920  11.254   4.675  0.1479 -0.2135  0.1428
32876SOL    HW1 3439   4.010  11.279   4.656  0.0867 -0.1531 -0.0786
32876SOL    HW2 3440   3.920  11.158   4.668 -0.4379 -0.0971 -2.8765
32877SOL     OW 3441   5.771  12.161   2.647  0.1819 -0.1231  0.3947
32877SOL    HW1 3442   5.780  12.082   2.595 -0.2347 -0.7880  1.2962
32877SOL    HW2 3443   5.808  12.231   2.593  2.2937 -1.2229  0.3579
32878SOL     OW 3444   5.729  10.544  11.960 -0.2369  0.0925  0.3841
32878SOL    HW1 3445   5.752  10.475  11.898 -1.1652  0.0146  0.1161
32878SOL    HW2 3446   5.651  10.511  12.005 -0.5073  0.8284  0.4720
32879SOL     OW 3447   7.969  11.025   5.957  0.4004  0.4010 -0.0609
32879SOL    HW1 3448   7.979  11.105   5.905  0.9092 -0.1691 -0.8617
32879SOL    HW2 3449   8.041  11.028   6.020  0.7720  0.2952 -0.4753
32880SOL     OW 3450   7.915   3.298   9.521 -0.2538  0.0515  0.3767
32880SOL    HW1 3451   8.000   3.339   9.538  0.9569 -1.9748 -0.5145
32880SOL    HW2 3452   7.863   3.368   9.481  2.1285  0.5015 -2.2612
32881SOL     OW 3453   6.208   9.827   1.004  0.2515 -0.0492 -0.4717
32881SOL    HW1 3454   6.142   9.885   0.968 -0.1643  0.1976  0.6345
32881SOL    HW2 3455   6.162   9.745   1.022 -0.0394  0.4258  1.1863
32882SOL     OW 3456  10.922   7.579  10.958  0.5840  0.1675 -0.4942
32882SOL    HW1 3457  10.871   7.629  10.895  0.6738  0.8245 -0.0461
32882SOL    HW2 3458  10.896   7.488  10.943  0.9651  0.2555 -1.8211
32883SOL     OW 3459   5.058   8.125   5.953 -0.5763 -0.1242 -0.0499
32883SOL    HW1 3460   5.024   8.160   6.035 -0.2590 -0.0972  0.0737
32883SOL    HW2 3461   5.153   8.117   5.968 -0.2502  1.5155 -0.9996
32884SOL     OW 3462   9.660   4.734   4.280 -0.1811 -0.4762  0.2696
32884SOL    HW1 3463   9.637   4.821   4.247 -1.6535 -0.2712  1.7137
32884SOL    HW2 3464   9.602   4.720   4.355  2.0905 -1.4224  1.9951
32885SOL     OW 3465   1.027   5.981   0.225 -0.2224  0.1897 -0.2260
32885SOL    HW1 3466   1.073   5.944   0.300 -0.1603  0.2003 -0.2586
32885SOL    HW2 3467   1.052   5.926   0.151  1.0863  1.2048 -0.5704
32886SOL     OW 3468   4.569   4.621   4.963 -0.1583  0.0063 -0.8645
32886SOL    HW1 3469   4.629   4.674   4.911 -2.1350  2.5131 -0.7590
32886SOL    HW2 3470   4.574   4.534   4.923  1.7720  0.6921 -2.2972
32887SOL     OW 3471   0.999   8.932   3.054 -0.0066 -0.1750  0.6610
32887SOL    HW1 3472   0.974   8.849   3.013 -0.9991  0.5150 -0.1883
32887SOL    HW2 3473   1.065   8.969   2.995 -0.2257  0.0491  0.5528
32888SOL     OW 3474   3.381   4.757   7.058  0.3433 -0.1147  0.1438
32888SOL    HW1 3475   3.371   4.842   7.016  0.7935 -0.4439 -0.6490
32888SOL    HW2 3476   3.295   4.738   7.095  0.3520  0.8666  0.6783
32889SOL     OW 3477  11.134  12.587  10.697 -0.1166 -0.9095  0.2201
32889SOL    HW1 3478  11.159  12.680  10.703  0.3005 -0.9968 -0.0845
32889SOL    HW2 3479  11.046  12.583  10.735 -0.5866 -0.1997 -0.7285
32890SOL     OW 3480   3.610   1.705   4.260  0.0520  0.0737 -0.7807
32890SOL    HW1 3481   3.562   1.780   4.294  0.5924  0.1671 -0.2109
32890SOL    HW2 3482   3.605   1.640   4.329  0.3683 -0.0790 -0.8966
32891SOL     OW 3483   5.172   7.032  12.203  0.8410 -0.2016 -0.6642
32891SOL    HW1 3484   5.194   6.939  12.200  1.1196 -0.2286  1.0959
32891SOL    HW2 3485   5.101   7.042  12.140 -0.6601 -2.0337  0.6325
32892SOL     OW 3486   4.406   8.211   1.196 -0.5744  0.4653  0.1282
32892SOL    HW1 3487   4.424   8.119   1.217 -1.5704  0.1536 -0.3068
32892SOL    HW2 3488   4.392   8.212   1.102  1.8419  1.5100 -0.2983
32893SOL     OW 3489   3.329   0.206  10.293 -0.2393 -0.1857 -0.0526
32893SOL    HW1 3490   3.418   0.226  10.262  0.0742  0.8187  1.3427
32893SOL    HW2 3491   3.279   0.286  10.274 -0.1314  0.3049  1.5595
32894SOL     OW 3492   0.530   0.381   6.824  0.0536  0.5810  0.3946
32894SOL    HW1 3493   0.441   0.410   6.803 -0.4459 -0.4347  1.0232
32894SOL    HW2 3494   0.549   0.420   6.909  1.3172  3.0784 -0.9435
32895SOL     OW 3495   4.548   4.131   2.466  0.6123 -0.1567  0.0607
32895SOL    HW1 3496   4.576   4.157   2.553 -1.3818 -0.0853  0.7364
32895SOL    HW2 3497   4.565   4.037   2.462 -0.1986 -0.3599  0.9375
32896SOL     OW 3498   5.657   5.092  10.895  0.1005 -0.0588  0.5790
32896SOL    HW1 3499   5.706   5.036  10.835 -0.5035  0.0689 -0.0607
32896SOL    HW2 3500   5.571   5.102  10.853 -0.4278 -0.1676  1.5938
32897SOL     OW 3501   3.804   5.907   0.956 -0.8116 -0.3394  0.0499
32897SOL    HW1 3502   3.709   5.903   0.944 -0.6977  0.2267 -1.2064
32897SOL    HW2 3503   3.826   5.999   0.944  0.1884 -0.8216 -2.3745
32898SOL     OW 3504  12.221   2.717   3.799 -0.3131 -0.0960  0.1986
32898SOL    HW1 3505  12.163   2.725   3.724 -0.1993 -0.5397  0.0607
32898SOL    HW2 3506  12.276   2.795   3.795  2.3899 -1.8726 -2.5034
32899SOL     OW 3507   8.097   1.512   4.760 -0.4108 -0.0137 -0.0816
32899SOL    HW1 3508   8.089   1.505   4.855 -3.6263 -0.2637 -0.2677
32899SOL    HW2 3509   8.105   1.422   4.729  1.0859  0.0917 -0.0700
32900SOL     OW 3510   6.512   8.503   8.282  0.4828 -0.1120  0.3614
32900SOL    HW1 3511   6.598   8.487   8.322  0.6146  0.3039  0.2509
32900SOL    HW2 3512   6.528   8.576   8.222  0.2735 -0.6939 -0.4034
32901SOL     OW 3513   9.494   0.891   0.796  0.3247 -0.5184  0.2223
32901SOL    HW1 3514   9.402   0.879   0.823  1.2093 -2.3869  2.8401
32901SOL    HW2 3515   9.526   0.963   0.850  0.6618 -0.5520  0.0699
32902SOL     OW 3516  11.828   5.038   8.223  0.1445  0.6008  0.2747
32902SOL    HW1 3517  11.741   5.046   8.184 -0.3949  0.0758  1.3477
32902SOL    HW2 3518  11.835   4.945   8.248  1.1961  0.5318 -0.2189
32903SOL     OW 3519   3.454   8.858   9.884  0.1192  0.0606 -0.5614
32903SOL    HW1 3520   3.492   8.850   9.971 -0.4419 -1.7593 -0.4422
32903SOL    HW2 3521   3.403   8.939   9.887  2.6820  1.7873 -0.2731
32904SOL     OW 3522   6.243   0.569   1.611  0.0558  0.2378 -0.5230
32904SOL    HW1 3523   6.324   0.563   1.661 -0.9174 -0.0968  1.0870
32904SOL    HW2 3524   6.222   0.662   1.609 -0.1017  0.2200  0.0668
32905SOL     OW 3525   2.128   5.937   5.450  0.0457  0.3116 -0.0605
32905SOL    HW1 3526   2.058   5.878   5.479  0.5291 -0.0904  0.3174
32905SOL    HW2 3527   2.144   5.914   5.359 -0.4119  0.5066 -0.1931
32906SOL     OW 3528   8.700   9.606   3.355  0.4134  0.1198  0.1788
32906SOL    HW1 3529   8.737   9.536   3.410 -0.0937 -0.3578 -0.0747
32906SOL    HW2 3530   8.631   9.644   3.408  0.1181 -0.1482 -0.0057
32907SOL     OW 3531   2.497   2.737   7.429 -0.1107 -0.4104 -0.8698
32907SOL    HW1 3532   2.475   2.830   7.443  0.7348 -0.3104 -0.0696
32907SOL    HW2 3533   2.593   2.734   7.434 -0.1459 -1.3769 -0.4917
32908SOL     OW 3534   5.899   0.394   0.955 -0.2159  0.1831  0.1393
32908SOL    HW1 3535   5.888   0.321   1.016 -1.2346  0.9215  0.8815
32908SOL    HW2 3536   5.840   0.462   0.988  2.5432  2.3537  0.9965
32909SOL     OW 3537   1.722   9.658   1.755 -0.9733  0.5265  0.1937
32909SOL    HW1 3538   1.730   9.573   1.798  0.2642  0.9864  0.9313
32909SOL    HW2 3539   1.635   9.657   1.715 -0.4589 -1.6321 -1.0307
32910SOL     OW 3540   1.798   6.956   9.079 -0.4164 -0.4569  0.6640
32910SOL    HW1 3541   1.886   6.921   9.062 -0.1183  1.4369 -2.5134
32910SOL    HW2 3542   1.746   6.925   9.004 -1.2234  2.1907  0.0432
32911SOL     OW 3543   6.273   7.960   3.644  0.9712  0.4454 -0.3016
32911SOL    HW1 3544   6.229   7.914   3.573  1.8604  0.4621 -0.8769
32911SOL    HW2 3545   6.287   7.893   3.712 -1.4363  0.7987  0.6428
32912SOL     OW 3546  11.858   4.903  12.219 -0.5133 -0.2963 -0.3867
32912SOL    HW1 3547  11.812   4.825  12.250  0.3205 -0.4070  0.5989
32912SOL    HW2 3548  11.870   4.957  12.296  2.3185 -0.9472 -0.2715
32913SOL     OW 3549  10.586  12.180   4.224  0.3762  0.0918 -0.6328
32913SOL    HW1 3550  10.649  12.192   4.295 -1.9888 -0.1491  1.6904
32913SOL    HW2 3551  10.600  12.089   4.195  0.5141 -0.2643  0.4981
32914SOL     OW 3552   7.146   2.707   4.717  0.6632 -0.1451  0.1143
32914SOL    HW1 3553   7.225   2.757   4.699  0.9868  0.4341  2.7491
32914SOL    HW2 3554   7.137   2.710   4.812 -1.4389 -1.8888  0.0423
32915SOL     OW 3555   6.719   0.649   8.936 -0.1006  0.2073  0.3185
32915SOL    HW1 3556   6.712   0.696   8.852  1.5024  0.7509  0.4673
32915SOL    HW2 3557   6.749   0.715   8.998  1.8253 -0.8813  0.6231
32916SOL     OW 3558   1.704  10.777   7.995 -0.0692  0.0849  0.1383
32916SOL    HW1 3559   1.634  10.713   8.008 -0.3150  0.0631 -1.1143
32916SOL    HW2 3560   1.701  10.796   7.901  1.2403  0.5017  0.1636
32917SOL     OW 3561  10.310   2.502   7.968  0.1470 -0.3641  0.4853
32917SOL    HW1 3562  10.273   2.558   7.900 -0.1725 -0.7074  0.3738
32917SOL    HW2 3563  10.234   2.459   8.008  0.3419 -0.2523  0.9827
32918SOL     OW 3564   2.899   8.673   9.670  0.0981  0.2308 -0.2253
32918SOL    HW1 3565   2.964   8.713   9.613 -0.5965  0.3647 -0.9513
32918SOL    HW2 3566   2.934   8.683   9.759  0.6577  1.0592 -0.5315
32919SOL     OW 3567   4.635   5.023   6.167  0.6897 -0.0299 -0.2562
32919SOL    HW1 3568   4.590   4.961   6.224 -2.8921  2.1195 -0.4694
32919SOL    HW2 3569   4.680   4.967   6.103 -0.0635 -2.3925  1.1346
32920SOL     OW 3570   7.577   8.234   8.602  0.1517 -0.7514  0.4349
32920SOL    HW1 3571   7.629   8.314   8.593 -1.5156  0.6893  2.6354
32920SOL    HW2 3572   7.511   8.255   8.668 -1.3485 -3.4677 -0.0430
32921SOL     OW 3573   4.770   1.618   9.501  0.4682 -0.2585  0.5030
32921SOL    HW1 3574   4.694   1.593   9.448 -0.0107  0.3910  0.8627
32921SOL    HW2 3575   4.838   1.639   9.437  0.0765 -0.0355  0.1502
32922SOL     OW 3576   2.087   2.839   0.199  0.2232 -0.3330  0.1941
32922SOL    HW1 3577   2.091   2.743   0.198 -0.5385 -0.3673  0.0890
32922SOL    HW2 3578   2.059   2.863   0.111 -0.7273 -0.0800  0.5526
32923SOL     OW 3579   0.498   7.573  11.706 -0.3706  0.2680 -0.3101
32923SOL    HW1 3580   0.487   7.648  11.764 -0.4443  1.4749 -1.8452
32923SOL    HW2 3581   0.592   7.572  11.686 -0.3186 -0.2457 -0.0722
32924SOL     OW 3582   3.207   4.911   5.853 -0.4984  0.7373  0.0970
32924SOL    HW1 3583   3.195   5.006   5.857 -0.2835  0.7226  2.3741
32924SOL    HW2 3584   3.302   4.898   5.860 -0.6641  0.3499  2.6756
32925SOL     OW 3585   3.605   5.396   1.772  0.3421 -0.1847 -0.0371
32925SOL    HW1 3586   3.653   5.318   1.743  1.1591 -0.1544  1.1581
32925SOL    HW2 3587   3.559   5.367   1.851 -2.3348 -0.4417 -1.5726
32926SOL     OW 3588   9.144   1.223   4.636 -0.3011  0.2418 -0.6771
32926SOL    HW1 3589   9.209   1.202   4.703 -2.4962 -0.0669  1.5123
32926SOL    HW2 3590   9.135   1.319   4.640  0.2967  0.3288 -1.2851
32927SOL     OW 3591   4.010   7.706   6.600  0.3039  0.0631 -0.1649
32927SOL    HW1 3592   3.997   7.622   6.557  0.0221  0.8759 -1.7443
32927SOL    HW2 3593   3.943   7.763   6.563 -1.4787  0.2681  3.0732
32928SOL     OW 3594   1.225   2.172   9.870 -0.1610  0.7399  0.1492
32928SOL    HW1 3595   1.168   2.101   9.841  1.6860 -1.3944  1.4157
32928SOL    HW2 3596   1.262   2.208   9.789  0.1453 -0.8820 -0.4553
32929SOL     OW 3597  11.363   6.557   2.070  0.1459  0.0061  0.0799
32929SOL    HW1 3598  11.308   6.599   2.003  1.6360  1.5061 -0.2535
32929SOL    HW2 3599  11.302   6.537   2.141 -1.3338 -0.9087 -1.3654
32930SOL     OW 3600   6.315   7.591   6.932 -0.5029  0.3856  0.1655
32930SOL    HW1 3601   6.409   7.603   6.941 -0.1199 -1.7316 -0.4207
32930SOL    HW2 3602   6.294   7.522   6.995 -1.5440  0.3489 -0.1970
32931SOL     OW 3603  11.094   6.505  11.981  0.4687  0.1169 -0.3237
32931SOL    HW1 3604  11.062   6.556  12.055  0.9334 -0.3904  0.2413
32931SOL    HW2 3605  11.140   6.568  11.926  0.2935  0.4585 -0.0820
32932SOL     OW 3606  12.156   6.924   7.307 -0.0017 -0.0695  0.1041
32932SOL    HW1 3607  12.112   6.992   7.255  2.4451  1.3498 -0.2871
32932SOL    HW2 3608  12.183   6.858   7.242  0.1672  0.0642  0.0358
32933SOL     OW 3609   0.013   1.939   8.226 -0.7610 -0.2368 -0.6885
32933SOL    HW1 3610  -0.025   1.937   8.314  0.5461  0.6077 -0.0596
32933SOL    HW2 3611   0.093   1.887   8.234  0.1269  1.0358 -0.9657
32934SOL     OW 3612  11.665   9.504   2.045  0.1559 -0.4318 -0.1121
32934SOL    HW1 3613  11.574   9.487   2.023 -0.2117 -0.1335  1.0816
32934SOL    HW2 3614  11.661   9.569   2.116  1.3128  0.0479 -0.4586
32935SOL     OW 3615   5.557  10.798   1.854 -0.1144 -0.1881  0.3730
32935SOL    HW1 3616   5.636  10.763   1.894 -0.5401 -0.8705  0.6497
32935SOL    HW2 3617   5.584  10.879   1.812  0.5936 -0.0998  0.9954
32936SOL     OW 3618   4.847   3.408   5.924  0.4292  0.1241  0.0543
32936SOL    HW1 3619   4.909   3.448   5.863  0.2978  2.2697  1.2277
32936SOL    HW2 3620   4.764   3.452   5.906 -0.3674 -1.4375 -0.2718
32937SOL     OW 3621  12.314   3.577   1.000  0.0914  0.0549  0.4085
32937SOL    HW1 3622  12.388   3.563   1.060 -0.0613  0.7239  0.7603
32937SOL    HW2 3623  12.237   3.565   1.055 -0.0648 -0.3959  0.0942
32938SOL     OW 3624   4.989   2.557   6.743  0.0250  0.3200 -0.2038
32938SOL    HW1 3625   5.031   2.480   6.703  0.2628 -0.7126  1.8649
32938SOL    HW2 3626   5.059   2.599   6.793 -0.6279  0.5165  0.5736
32939SOL     OW 3627   9.938   8.856   0.417  0.0431  0.2262  0.1187
32939SOL    HW1 3628   9.850   8.822   0.431 -0.2590  0.7531 -0.4238
32939SOL    HW2 3629   9.951   8.921   0.486  1.1970 -1.9893  2.0827
32940SOL     OW 3630   9.965  12.118   1.758  0.5447  0.5007 -0.0534
32940SOL    HW1 3631  10.024  12.108   1.833  0.0598  0.2606  0.2955
32940SOL    HW2 3632  10.009  12.071   1.687  0.7294  0.2384  0.2329
32941SOL     OW 3633  11.492   8.023  12.641 -0.8545  0.2017 -0.4069
32941SOL    HW1 3634  11.505   7.997  12.549 -0.5709  1.0496 -0.6132
32941SOL    HW2 3635  11.413   7.976  12.667 -1.1168  0.1915 -1.1820
32942SOL     OW 3636   1.572   4.370  12.009 -0.4478 -0.0750  0.7366
32942SOL    HW1 3637   1.482   4.348  11.984 -0.8619 -0.5082  2.4734
32942SOL    HW2 3638   1.565   4.399  12.100  0.6565  3.5532 -0.1717
32943SOL     OW 3639   6.629   4.037   3.784 -0.6870 -0.5670  0.2815
32943SOL    HW1 3640   6.688   4.110   3.802 -0.1434 -0.8957 -0.1558
32943SOL    HW2 3641   6.631   4.026   3.689 -3.4816  1.1039 -0.0812
32944SOL     OW 3642  11.797  10.879  12.197 -0.2333 -0.3828 -0.0364
32944SOL    HW1 3643  11.780  10.853  12.288 -0.8147  0.1353  0.0064
32944SOL    HW2 3644  11.785  10.798  12.147  2.3470 -1.2441  0.5726
32945SOL     OW 3645  10.773   3.123   9.468 -0.0719 -0.1996 -0.7569
32945SOL    HW1 3646  10.840   3.082   9.413 -1.7770 -2.4768 -1.3168
32945SOL    HW2 3647  10.754   3.207   9.426  1.4092 -0.1487 -1.3716
32946SOL     OW 3648   5.276   6.345  10.049 -0.0602 -0.0825 -0.4800
32946SOL    HW1 3649   5.229   6.394   9.981  1.1783  0.6762 -0.8189
32946SOL    HW2 3650   5.278   6.404  10.124  1.7204  0.5541 -0.9958
32947SOL     OW 3651   5.486   9.329   9.989 -0.4904  0.4151 -0.4131
32947SOL    HW1 3652   5.542   9.377   9.929 -0.5833 -0.2599 -1.0551
32947SOL    HW2 3653   5.527   9.243   9.997 -2.0111 -0.4962 -1.8106
32948SOL     OW 3654   6.201   0.851   8.473  0.0161 -0.0029  0.1142
32948SOL    HW1 3655   6.196   0.926   8.532  2.3408 -0.3061  0.8092
32948SOL    HW2 3656   6.164   0.778   8.524 -0.5455  0.2761  0.1183
32949SOL     OW 3657   3.674   9.465   7.640  0.1595 -0.0522  0.2048
32949SOL    HW1 3658   3.760   9.455   7.681  0.3705  0.8953  0.0160
32949SOL    HW2 3659   3.692   9.513   7.559 -0.1300 -2.5033 -1.4089
32950SOL     OW 3660   9.034   0.536  11.189  0.8149  0.1641 -0.2901
32950SOL    HW1 3661   9.129   0.528  11.191  0.7965  0.1340  0.4211
32950SOL    HW2 3662   9.018   0.630  11.195  0.8039  0.2074 -0.8694
32951SOL     OW 3663   2.454   7.289   2.385  0.3525 -0.3107  0.8105
32951SOL    HW1 3664   2.443   7.281   2.290  2.7646  0.9377  0.3432
32951SOL    HW2 3665   2.369   7.322   2.416 -0.4663 -0.6929 -0.9099
32952SOL     OW 3666   9.307  10.251   4.221 -0.4539 -0.5643  0.2602
32952SOL    HW1 3667   9.301  10.341   4.253  2.0687  0.0114 -0.6366
32952SOL    HW2 3668   9.316  10.198   4.301 -0.1107  0.1987  0.7367
32953SOL     OW 3669   1.837   5.811  12.001 -0.2841  0.6181  0.2943
32953SOL    HW1 3670   1.887   5.892  12.011 -0.4062  0.7150  0.1156
32953SOL    HW2 3671   1.897   5.743  12.031 -0.5547  0.8788  1.5003
32954SOL     OW 3672   5.363  11.534   4.217 -0.1263  0.4514 -1.0281
32954SOL    HW1 3673   5.283  11.556   4.170 -0.5003 -1.5800 -1.4266
32954SOL    HW2 3674   5.335  11.471   4.283  1.4298 -2.1316 -2.6852
32955SOL     OW 3675   6.290   4.040   4.311 -0.4006 -0.3299  0.3533
32955SOL    HW1 3676   6.369   4.043   4.258  0.7882  0.4813  2.0984
32955SOL    HW2 3677   6.276   4.130   4.341 -1.7895 -0.5194  0.3570
32956SOL     OW 3678  12.267   9.033   8.983 -0.2771  0.3319  0.2954
32956SOL    HW1 3679  12.292   9.125   8.980  1.0428 -0.0354 -0.4251
32956SOL    HW2 3680  12.172   9.033   8.966 -0.5253  1.6272  1.5253
32957SOL     OW 3681   8.161   2.804   5.730 -0.1206 -0.5737 -0.1255
32957SOL    HW1 3682   8.120   2.800   5.816  0.7651  0.2224  0.3554
32957SOL    HW2 3683   8.215   2.725   5.725  0.4963 -0.1972  0.4191
32958SOL     OW 3684   6.589  12.129   0.975  0.2680  0.0854 -0.2396
32958SOL    HW1 3685   6.618  12.077   0.900  1.1163  1.4753 -0.9071
32958SOL    HW2 3686   6.519  12.184   0.941  0.5044  0.5618  0.0337
32959SOL     OW 3687   3.691   6.395   0.046  0.3197 -0.5072  0.1073
32959SOL    HW1 3688   3.597   6.398   0.061  0.3408  0.2840  0.1502
32959SOL    HW2 3689   3.708   6.469  -0.013  1.1455  0.4382  1.4662
32960SOL     OW 3690   9.550   4.469   2.422 -0.1498 -0.3360  0.0485
32960SOL    HW1 3691   9.494   4.516   2.359 -1.8301 -0.8795  1.0924
32960SOL    HW2 3692   9.489   4.423   2.479  1.3482 -0.1651  1.8693
32961SOL     OW 3693   1.483  11.521   4.113  0.1734  0.1953  0.0976
32961SOL    HW1 3694   1.460  11.526   4.020  1.7818  0.5206 -0.3037
32961SOL    HW2 3695   1.447  11.601   4.151 -0.3992  0.1131 -0.2473
32962SOL     OW 3696  11.930   3.614   8.463 -0.6480  0.3554  0.2449
32962SOL    HW1 3697  11.894   3.668   8.533 -2.1020 -0.0220 -0.1932
32962SOL    HW2 3698  11.987   3.552   8.509 -0.7889  0.7626  0.9860
32963SOL     OW 3699   6.458   6.616   6.961 -0.2674 -0.5253  0.4250
32963SOL    HW1 3700   6.371   6.577   6.969 -0.2758 -0.6675 -0.2826
32963SOL    HW2 3701   6.518   6.541   6.964 -0.3174 -0.6971 -1.5620
32964SOL     OW 3702   7.533   2.161   0.556 -0.1839 -0.1227 -0.4604
32964SOL    HW1 3703   7.618   2.195   0.529 -1.2416  1.7922 -1.5780
32964SOL    HW2 3704   7.554   2.096   0.624  2.1262  0.6222 -0.3681
32965SOL     OW 3705   8.215  11.077   9.488  0.2111 -0.1722  0.6584
32965SOL    HW1 3706   8.158  11.154   9.499  0.5524  0.4267 -1.3852
32965SOL    HW2 3707   8.273  11.101   9.416  3.2391 -0.6872  2.7453
32966SOL     OW 3708   3.876   0.794   0.007  0.3333 -0.2649 -0.0996
32966SOL    HW1 3709   3.862   0.882  -0.029 -0.3319 -0.3338 -0.0299
32966SOL    HW2 3710   3.792   0.750  -0.006  0.5624 -0.7832  0.1666
32967SOL     OW 3711  12.449   8.139  11.280 -0.1949 -0.4177  0.2376
32967SOL    HW1 3712  12.524   8.193  11.306 -1.0549  1.1093 -0.3179
32967SOL    HW2 3713  12.423   8.173  11.195 -4.0512  2.0265  2.0880
32968SOL     OW 3714   8.479   2.491  10.723 -0.0199 -0.2279 -0.1751
32968SOL    HW1 3715   8.476   2.427  10.794  1.4041  0.9758  1.0247
32968SOL    HW2 3716   8.503   2.439  10.646  0.9943 -1.1851  0.7418
32969SOL     OW 3717   0.342   3.416   8.420 -0.2785 -0.0321  0.1796
32969SOL    HW1 3718   0.272   3.356   8.394 -0.9476  0.8775 -0.1172
32969SOL    HW2 3719   0.306   3.465   8.494  1.7709 -2.9917  3.4797
32970SOL     OW 3720   1.250  11.686   4.281 -0.0357  0.1154  0.4416
32970SOL    HW1 3721   1.166  11.696   4.237  0.6216 -0.2836 -0.9611
32970SOL    HW2 3722   1.295  11.769   4.268  0.2069 -0.0428  0.2573
32971SOL     OW 3723   7.983   2.446   4.011  0.0356 -0.4757 -0.0502
32971SOL    HW1 3724   8.002   2.517   4.073 -1.6567 -1.3709  1.6375
32971SOL    HW2 3725   7.888   2.453   3.996  0.2015 -1.1030 -1.5394
32972SOL     OW 3726   7.438  11.906   0.546  0.0902 -0.2210  0.3072
32972SOL    HW1 3727   7.404  11.981   0.594  1.0714  0.5342 -0.1364
32972SOL    HW2 3728   7.363  11.870   0.500 -0.3687  0.5737  0.4261
32973SOL     OW 3729   7.780   8.207   5.413  0.1141 -0.0392 -0.0864
32973SOL    HW1 3730   7.808   8.129   5.366  1.1652  0.0797  0.3132
32973SOL    HW2 3731   7.862   8.249   5.440 -0.4439  1.0593 -0.0690
32974SOL     OW 3732   7.056   5.173   4.085  0.5554 -0.0254  0.3466
32974SOL    HW1 3733   6.970   5.199   4.053  0.9823  4.1396  1.8743
32974SOL    HW2 3734   7.040   5.141   4.174  0.4772 -0.0620  0.3191
32975SOL     OW 3735   3.453   4.257  11.682 -0.4881 -0.7579  0.2153
32975SOL    HW1 3736   3.487   4.168  11.697 -1.3311 -1.3890 -1.4218
32975SOL    HW2 3737   3.358   4.246  11.680 -0.5490 -0.3741 -2.9581
32976SOL     OW 3738  12.513   9.064   2.567  0.3987  0.6169  0.0836
32976SOL    HW1 3739  12.525   9.007   2.490  0.8924 -1.3450  1.5290
32976SOL    HW2 3740  12.424   9.097   2.558  0.2416 -0.0381 -1.0355
32977SOL     OW 3741   4.968   8.345   9.554 -0.3164  0.1854  0.2482
32977SOL    HW1 3742   4.922   8.294   9.620 -1.5966  0.7689 -0.1576
32977SOL    HW2 3743   5.027   8.282   9.511  0.6514 -0.1619  2.0018
32978SOL     OW 3744  12.409   0.512   9.452  0.1798  0.0097  0.2684
32978SOL    HW1 3745  12.321   0.535   9.422  0.6170  1.2318 -0.1357
32978SOL    HW2 3746  12.435   0.585   9.508  1.0358 -0.2221  0.1854
32979SOL     OW 3747   8.072  12.216   0.464  0.1564  0.1536 -0.3730
32979SOL    HW1 3748   7.991  12.184   0.504  0.7701 -0.2845  0.5693
32979SOL    HW2 3749   8.088  12.158   0.390  0.0666 -0.3114 -0.0317
32980SOL     OW 3750   7.758   1.608  10.668  0.0442 -0.3105 -0.0087
32980SOL    HW1 3751   7.747   1.515  10.651  1.5532 -0.5385  0.1086
32980SOL    HW2 3752   7.679   1.634  10.715 -0.0470 -1.7007  0.6384
32981SOL     OW 3753  11.214   8.092   1.921 -0.0068  0.2203 -0.0306
32981SOL    HW1 3754  11.250   8.144   1.850  2.1837  1.1104  1.6331
32981SOL    HW2 3755  11.129   8.132   1.939 -0.3963  0.2735 -1.7661
32982SOL     OW 3756   2.749   5.286  10.554 -0.4970 -0.6181 -0.3074
32982SOL    HW1 3757   2.654   5.289  10.557 -0.5233 -0.5474 -1.0710
32982SOL    HW2 3758   2.777   5.299  10.645 -1.1093  3.6867 -0.5251
32983SOL     OW 3759  10.599   5.797   0.942  0.3120  0.1279  0.4501
32983SOL    HW1 3760  10.628   5.729   0.881  0.2637  0.1664  0.3844
32983SOL    HW2 3761  10.509   5.774   0.963  0.0240  0.6179 -0.1989
32984SOL     OW 3762   4.130   3.553   3.437 -0.4925 -0.3672  0.1542
32984SOL    HW1 3763   4.116   3.639   3.399 -2.6826 -0.4536  0.6409
32984SOL    HW2 3764   4.222   3.553   3.464 -0.3564  1.6742 -0.1637
32985SOL     OW 3765   3.579   3.613   3.805 -0.5178 -0.1348 -0.0851
32985SOL    HW1 3766   3.600   3.690   3.857 -1.0966  0.8012 -1.1741
32985SOL    HW2 3767   3.490   3.629   3.774  0.5863  0.5936 -3.3441
32986SOL     OW 3768   4.023   2.265   8.993 -0.0157 -0.4659 -0.0099
32986SOL    HW1 3769   4.047   2.230   9.079 -0.9005 -2.4396 -0.5038
32986SOL    HW2 3770   4.107   2.287   8.953  0.7165 -2.8142  0.0697
32987SOL     OW 3771   1.175   3.888   6.271  0.1461  0.0210 -0.5952
32987SOL    HW1 3772   1.230   3.844   6.206  0.6641 -0.7907  0.3666
32987SOL    HW2 3773   1.091   3.843   6.267  0.4397 -0.5804 -0.1372
32988SOL     OW 3774   7.663   8.014   9.285  0.4408  0.5116  0.3033
32988SOL    HW1 3775   7.607   8.079   9.326  0.5616  0.7099  0.1548
32988SOL    HW2 3776   7.615   7.986   9.207  0.0968 -0.0480  0.7057
32989SOL     OW 3777   8.659   6.031   6.270 -1.0515 -0.1187 -0.2810
32989SOL    HW1 3778   8.668   5.938   6.251  0.2977 -0.4478  1.6698
32989SOL    HW2 3779   8.697   6.075   6.194  1.7138 -1.2890  0.3001
32990SOL     OW 3780   7.123  11.616   0.164 -0.3082 -0.3899 -0.0946
32990SOL    HW1 3781   7.206  11.657   0.144 -0.2474 -0.9826 -1.1653
32990SOL    HW2 3782   7.133  11.582   0.253 -0.4313  1.9911  0.9053
32991SOL     OW 3783   6.613   2.326   3.911 -0.0742 -0.5124 -0.3763
32991SOL    HW1 3784   6.697   2.327   3.956  0.8947 -0.7762 -2.1119
32991SOL    HW2 3785   6.632   2.357   3.823 -1.9885  0.4098 -0.5187
32992SOL     OW 3786  10.571   8.882  11.511 -0.1144 -0.2068 -0.2011
32992SOL    HW1 3787  10.616   8.801  11.484  0.0029 -0.0870 -0.3658
32992SOL    HW2 3788  10.583   8.941  11.437 -0.8033 -0.2749 -0.3701
32993SOL     OW 3789  11.858   4.836   5.733  0.1879  0.2587  0.2567
32993SOL    HW1 3790  11.919   4.886   5.678 -0.2089  0.7206  0.2349
32993SOL    HW2 3791  11.885   4.744   5.722 -0.0474  0.3199 -0.9125
32994SOL     OW 3792   7.147   1.690  11.455 -0.0964  0.2281 -0.0131
32994SOL    HW1 3793   7.173   1.738  11.376  2.1450 -0.9796 -0.0817
32994SOL    HW2 3794   7.077   1.631  11.426  0.1043  0.4063 -0.8892
32995SOL     OW 3795   7.343   6.866   5.188  0.5805 -0.4238 -0.0352
32995SOL    HW1 3796   7.341   6.851   5.093  0.3396 -0.9887  0.0553
32995SOL    HW2 3797   7.373   6.782   5.224 -0.0495 -0.4472  0.4405
32996SOL     OW 3798   8.626   7.790   2.053 -0.0599 -0.3882  0.1491
32996SOL    HW1 3799   8.708   7.754   2.020 -0.4071 -1.1232  0.0808
32996SOL    HW2 3800   8.560   7.766   1.988 -0.8629 -2.3950  1.6085
32997SOL     OW 3801   4.996  10.687   8.800 -0.5205 -0.4101  0.0661
32997SOL    HW1 3802   5.045  10.648   8.728 -1.9452 -1.4599 -0.3796
32997SOL    HW2 3803   4.965  10.771   8.766 -2.8123 -1.7174 -1.3243
32998SOL     OW 3804   6.040   1.858   6.888  0.2306 -0.7086 -0.4518
32998SOL    HW1 3805   6.094   1.909   6.828  1.4791 -0.6823  0.6404
32998SOL    HW2 3806   6.050   1.767   6.858  0.7483 -0.6844 -0.3606
32999SOL     OW 3807   9.427  12.519   8.003 -0.3192  0.4062 -0.3525
32999SOL    HW1 3808   9.439  12.501   7.909  0.1362  0.6755 -0.3499
32999SOL    HW2 3809   9.456  12.610   8.014  1.6435 -0.2524  0.3949
33000SOL     OW 3810   7.856   8.773  12.593  0.4305 -0.2685 -0.5306
33000SOL    HW1 3811   7.875   8.866  12.584 -1.8576  0.2481 -0.6535
33000SOL    HW2 3812   7.851   8.758  12.687  0.6223 -0.2195 -0.5139
33001SOL     OW 3813   2.686   3.360   2.910 -0.2028 -0.8178  0.3253
33001SOL    HW1 3814   2.662   3.305   2.984  0.5355 -1.9104 -0.2351
33001SOL    HW2 3815   2.742   3.428   2.948  0.7723 -1.7864  0.6745
33002SOL     OW 3816   3.389   0.991   8.596 -0.3064  0.4639  0.5772
33002SOL    HW1 3817   3.424   0.905   8.617 -0.4837  0.3253  0.3083
33002SOL    HW2 3818   3.450   1.053   8.636 -1.6229  0.2232  3.1648
33003SOL     OW 3819   4.051   1.280   8.468 -0.5936 -0.1501  0.3397
33003SOL    HW1 3820   4.064   1.312   8.379 -2.3897 -0.1542  0.0480
33003SOL    HW2 3821   4.048   1.359   8.522 -1.2979 -0.0378  0.1402
33004SOL     OW 3822  10.887  12.084  11.848 -0.4724  0.0678  0.0870
33004SOL    HW1 3823  10.910  12.154  11.787 -0.3523 -0.7629 -0.8451
33004SOL    HW2 3824  10.795  12.067  11.831 -0.6529  0.3733  0.7150
33005SOL     OW 3825   8.555   2.425   4.104  0.2715 -0.1424 -0.0177
33005SOL    HW1 3826   8.600   2.350   4.066 -1.2700 -0.7297 -0.7726
33005SOL    HW2 3827   8.605   2.501   4.075  1.2944 -0.8123 -0.0495
33006SOL     OW 3828   4.440   6.353  10.142 -0.4882 -0.1255 -0.0808
33006SOL    HW1 3829   4.526   6.378  10.109 -0.5088 -2.2146 -2.0188
33006SOL    HW2 3830   4.379   6.417  10.104 -0.0897 -0.3962 -1.2156
33007SOL     OW 3831   1.746   8.613   8.540  0.4134  0.7306 -0.2021
33007SOL    HW1 3832   1.763   8.637   8.449  0.1249 -1.7825 -0.9975
33007SOL    HW2 3833   1.722   8.521   8.536 -2.2231  1.1753  2.1401
33008SOL     OW 3834   1.508   4.264   5.562  0.4552 -0.1384 -0.3868
33008SOL    HW1 3835   1.595   4.304   5.558  0.1236  0.5071 -1.8118
33008SOL    HW2 3836   1.480   4.258   5.470 -1.2285  0.1948  0.0667
33009SOL     OW 3837  10.431   9.156   1.425 -0.1355  0.4356  0.1348
33009SOL    HW1 3838  10.433   9.106   1.507  0.3233 -2.2999 -1.4290
33009SOL    HW2 3839  10.476   9.237   1.445 -0.6784  0.1767  2.7709
33010SOL     OW 3840   9.649   3.053   2.885  0.1877 -0.0080 -0.3820
33010SOL    HW1 3841   9.574   3.024   2.833 -0.1634 -0.2288  0.2304
33010SOL    HW2 3842   9.611   3.077   2.970  0.8550 -0.5076  0.0731
33011SOL     OW 3843   4.883   0.550  10.756 -0.4877 -0.5651  0.6664
33011SOL    HW1 3844   4.818   0.484  10.733  0.0201 -0.9047  0.1609
33011SOL    HW2 3845   4.858   0.627  10.705  0.5853 -1.2922 -1.0532
33012SOL     OW 3846   0.565   2.723  12.560 -0.0377  0.3333  0.0615
33012SOL    HW1 3847   0.527   2.683  12.482  0.8136 -1.5056  0.5254
33012SOL    HW2 3848   0.491   2.732  12.620 -0.1656 -1.3688  0.2314
33013SOL     OW 3849   8.186  10.055   5.711 -0.1494  0.5745 -0.0037
33013SOL    HW1 3850   8.177  10.121   5.641 -0.3254 -0.1675 -0.6933
33013SOL    HW2 3851   8.176  10.105   5.792 -3.2921  1.0058 -0.5285
33014SOL     OW 3852  10.615   7.845  10.363  0.6511 -0.4232 -0.0323
33014SOL    HW1 3853  10.688   7.853  10.301 -0.8610  0.9176 -1.7183
33014SOL    HW2 3854  10.559   7.777  10.325 -0.4970  0.7019 -0.4071
33015SOL     OW 3855  10.292  10.753   0.078 -0.9236 -0.0517  0.3988
33015SOL    HW1 3856  10.215  10.706   0.110 -0.8049 -0.1393  0.5571
33015SOL    HW2 3857  10.301  10.726  -0.013 -1.2673  0.2017  0.2840
33016SOL     OW 3858   2.578   8.173   5.083 -0.0773 -0.2212  0.0443
33016SOL    HW1 3859   2.627   8.206   5.159 -0.3527 -0.7209  0.4454
33016SOL    HW2 3860   2.646   8.155   5.017  0.1409  0.4387  0.0804
33017SOL     OW 3861   1.770   3.048   2.033  0.0626 -0.4900 -0.2910
33017SOL    HW1 3862   1.762   3.068   2.126 -0.2587  1.7530 -0.7525
33017SOL    HW2 3863   1.681   3.029   2.005 -0.3725  1.9304 -0.7334
33018SOL     OW 3864   9.117   1.326   7.429  0.4096  0.2172 -0.1021
33018SOL    HW1 3865   9.169   1.373   7.364 -1.4470  1.4544 -0.7488
33018SOL    HW2 3866   9.140   1.368   7.512  0.6803  0.5154 -0.3237
33019SOL     OW 3867   1.396  10.540   7.558  0.4395  0.0858  0.6349
33019SOL    HW1 3868   1.304  10.551   7.533  0.0520  0.5637  2.1690
33019SOL    HW2 3869   1.402  10.449   7.586  0.7994 -0.3615 -0.8439
33020SOL     OW 3870  10.995   3.128   5.319 -0.6069  0.1093  0.8651
33020SOL    HW1 3871  11.090   3.118   5.319 -0.6486 -0.4283 -0.2349
33020SOL    HW2 3872  10.979   3.201   5.378  0.5413  0.6104  0.5913
33021SOL     OW 3873   4.814   3.089   1.917  0.1019 -0.6520  0.2597
33021SOL    HW1 3874   4.823   3.047   1.831 -0.4082  0.1782 -0.2162
33021SOL    HW2 3875   4.830   3.019   1.980  0.0281 -1.3787 -0.5142
33022SOL     OW 3876   8.987   7.551   6.666 -0.1644  0.0724 -0.5334
33022SOL    HW1 3877   8.912   7.595   6.705 -0.9086 -0.7271 -1.0140
33022SOL    HW2 3878   9.040   7.622   6.628 -1.3170  0.5714 -1.2665
33023SOL     OW 3879   9.981   5.423  11.955  0.3532  0.0536 -0.6651
33023SOL    HW1 3880   9.904   5.474  11.981 -0.4579  0.6810 -3.8680
33023SOL    HW2 3881  10.053   5.486  11.959  0.0132  0.4826 -1.1502
33024SOL     OW 3882   8.470   9.334  11.796  0.8181  0.3077  0.0382
33024SOL    HW1 3883   8.395   9.335  11.736  1.4604 -0.0033 -0.7869
33024SOL    HW2 3884   8.433   9.307  11.880  0.2572 -1.4375 -0.7259
33025SOL     OW 3885  10.487   4.584   8.819 -0.0656 -0.3814 -0.2903
33025SOL    HW1 3886  10.400   4.569   8.782 -0.1322 -0.1272 -0.2403
33025SOL    HW2 3887  10.473   4.648   8.889  0.2938  0.4069 -0.9159
33026SOL     OW 3888  11.919   5.095   2.041  0.1256 -0.1269 -0.3312
33026SOL    HW1 3889  12.013   5.103   2.028  0.4496 -0.9649  1.2893
33026SOL    HW2 3890  11.910   5.042   2.121 -1.7191 -0.7425 -0.9008
33027SOL     OW 3891   9.142   1.441   9.385  0.3089 -0.1275  0.3593
33027SOL    HW1 3892   9.217   1.383   9.377  0.1017 -0.3290 -0.1241
33027SOL    HW2 3893   9.154   1.484   9.470 -0.8296 -2.6944  1.9141
33028SOL     OW 3894   2.294   2.083   0.167 -0.0282 -0.2171  0.1993
33028SOL    HW1 3895   2.361   2.038   0.220 -0.7966  0.5335  1.8946
33028SOL    HW2 3896   2.234   2.013   0.141  1.4781 -0.9305 -1.5167
33029SOL     OW 3897   1.340   2.426   4.115 -0.0473 -0.3876 -0.4984
33029SOL    HW1 3898   1.248   2.434   4.089 -0.3024  0.8502  0.6555
33029SOL    HW2 3899   1.364   2.337   4.091 -1.4636 -0.6486 -1.0796
33030SOL     OW 3900   0.525   0.524   8.433 -0.7729  0.0264  0.2551
33030SOL    HW1 3901   0.618   0.518   8.454 -0.5204  0.6998 -0.5998
33030SOL    HW2 3902   0.480   0.502   8.515  0.1485  0.6692  0.9514
33031SOL     OW 3903  12.362  12.429   8.031 -0.2354  0.1525  0.1184
33031SOL    HW1 3904  12.374  12.334   8.039 -1.2472 -0.0421 -0.3699
33031SOL    HW2 3905  12.277  12.446   8.072 -1.2528  0.4410 -1.9609
33032SOL     OW 3906   1.630  11.480   6.362 -0.8874 -0.5459 -0.4252
33032SOL    HW1 3907   1.639  11.567   6.324 -0.1859 -1.0726 -1.5214
33032SOL    HW2 3908   1.718  11.442   6.356 -1.4190 -1.7413 -1.0397
33033SOL     OW 3909   3.747   9.660   2.977  0.3295  0.0639  0.2633
33033SOL    HW1 3910   3.688   9.614   2.917 -0.5543  0.2747  0.9565
33033SOL    HW2 3911   3.716   9.751   2.975  0.1004  0.0154  1.2557
33034SOL     OW 3912   1.481  11.420   2.802  0.0039 -0.4094 -0.2180
33034SOL    HW1 3913   1.503  11.452   2.714 -0.6372  0.4538 -0.0736
33034SOL    HW2 3914   1.464  11.499   2.853 -0.2007 -0.9291  0.5318
33035SOL     OW 3915   0.739   2.986   4.870 -0.5542 -0.3453 -0.7319
33035SOL    HW1 3916   0.681   3.041   4.816  1.2605  2.1852 -0.3086
33035SOL    HW2 3917   0.687   2.966   4.948 -1.0944  1.3474 -0.6110
33036SOL     OW 3918  10.354   5.954   4.540 -0.3881 -1.2041  0.7308
33036SOL    HW1 3919  10.418   5.885   4.525  1.0404 -0.0326  1.2024
33036SOL    HW2 3920  10.324   5.940   4.629  0.3858 -0.8567  1.0553
33037SOL     OW 3921   2.805   4.354   8.626  0.4661 -0.0793 -0.0439
33037SOL    HW1 3922   2.860   4.350   8.548  2.1553 -0.3624  1.1318
33037SOL    HW2 3923   2.865   4.349   8.699 -1.1489 -0.6620  1.3105
33038SOL     OW 3924   1.523   6.474  11.233 -0.0185 -0.1042 -0.0258
33038SOL    HW1 3925   1.481   6.486  11.318 -0.8641  0.4648 -0.5131
33038SOL    HW2 3926   1.458   6.427  11.180  0.3484 -0.1047 -0.4846
33039SOL     OW 3927   7.083   2.935  10.740  0.6420 -0.1083 -0.3672
33039SOL    HW1 3928   7.175   2.921  10.765  0.7653  0.2380 -0.6161
33039SOL    HW2 3929   7.033   2.893  10.810  0.9910 -0.7078 -0.4652
33040SOL     OW 3930  11.385   7.608  11.566 -0.0481  0.0843  0.4328
33040SOL    HW1 3931  11.417   7.520  11.551  0.8984  0.5766 -0.6071
33040SOL    HW2 3932  11.463   7.663  11.563 -0.7811  1.1287 -0.4790
33041SOL     OW 3933   7.245  12.558   8.409 -0.5718  0.3040 -0.2446
33041SOL    HW1 3934   7.337  12.540   8.429 -1.1422  0.3076  2.8946
33041SOL    HW2 3935   7.206  12.472   8.393 -0.3619  0.1305  0.1624
33042SOL     OW 3936   2.784  10.972   7.592 -0.7058 -0.3274  0.0500
33042SOL    HW1 3937   2.846  10.902   7.573  0.5499  0.5139  0.9610
33042SOL    HW2 3938   2.762  10.960   7.685 -0.7169  0.3121  0.1308
33043SOL     OW 3939   9.783   6.167   2.564  0.3155 -0.2433 -0.3275
33043SOL    HW1 3940   9.741   6.082   2.571  0.6267 -0.6149 -2.2995
33043SOL    HW2 3941   9.855   6.163   2.627 -0.1836 -1.1079  0.2135
33044SOL     OW 3942   3.749   5.002   7.527 -0.2513 -0.0472 -0.5069
33044SOL    HW1 3943   3.682   5.048   7.477 -1.6019 -0.7968  0.5233
33044SOL    HW2 3944   3.742   5.038   7.615  1.7717  0.9235 -0.6757
33045SOL     OW 3945   7.927   6.599   7.402 -0.2383  0.2180  0.4971
33045SOL    HW1 3946   7.977   6.616   7.481 -1.6504  0.1883  1.4352
33045SOL    HW2 3947   7.869   6.526   7.425  0.5968 -1.0479 -1.1546
33046SOL     OW 3948   7.054   2.836   2.347 -0.4180  0.6790  0.2720
33046SOL    HW1 3949   6.986   2.847   2.413  0.4834  0.9903  1.1867
33046SOL    HW2 3950   7.032   2.753   2.304 -2.1230  1.4428 -0.4136
33047SOL     OW 3951   6.822   0.981   1.009  0.1869 -0.4920 -0.4564
33047SOL    HW1 3952   6.750   0.923   0.985 -0.4895  0.5871 -1.1201
33047SOL    HW2 3953   6.857   1.011   0.925  0.8094 -0.2845 -0.1248
33048SOL     OW 3954   7.696   3.907   6.167 -0.0485  0.5492  0.0108
33048SOL    HW1 3955   7.705   4.001   6.156 -1.0289  0.8078  1.1953
33048SOL    HW2 3956   7.773   3.870   6.123  0.8453  1.9492  0.3398
33049SOL     OW 3957   7.863   1.384   5.066 -0.4792 -0.0472 -0.2523
33049SOL    HW1 3958   7.855   1.297   5.028  1.8585 -0.2877 -0.2974
33049SOL    HW2 3959   7.826   1.375   5.154 -0.8682 -0.8869 -0.4906
33050SOL     OW 3960   2.050   4.275   2.190 -0.2296 -0.1783 -0.4547
33050SOL    HW1 3961   2.086   4.363   2.174  1.4733 -0.6608  0.4609
33050SOL    HW2 3962   1.974   4.270   2.132 -1.5225  2.5701  0.8119
33051SOL     OW 3963   5.360   3.874   5.215  0.1918 -0.2309 -0.4429
33051SOL    HW1 3964   5.317   3.893   5.131  0.6768 -0.9820 -0.8707
33051SOL    HW2 3965   5.359   3.779   5.222  0.0770 -0.1721  0.4581
33052SOL     OW 3966  11.147   3.679  10.939 -0.3388 -0.3740  0.0174
33052SOL    HW1 3967  11.174   3.771  10.938 -0.8255 -0.2140 -1.4013
33052SOL    HW2 3968  11.200   3.639  11.008  2.7711  0.1616 -1.8608
33053SOL     OW 3969  11.112   3.152   1.303 -0.2994 -0.2258  0.0617
33053SOL    HW1 3970  11.160   3.070   1.290 -0.5193 -0.2182 -0.8435
33053SOL    HW2 3971  11.034   3.144   1.247 -0.6338  0.3473  0.4325
33054SOL     OW 3972  10.243   2.583   9.941 -0.3968  0.0551  0.6724
33054SOL    HW1 3973  10.176   2.546   9.884  0.0795  1.0736 -0.5904
33054SOL    HW2 3974  10.210   2.670   9.965 -0.5671 -0.3356  1.9343
33055SOL     OW 3975   9.504   8.785   0.241 -0.7289 -0.0397  0.8907
33055SOL    HW1 3976   9.491   8.876   0.267 -0.3818 -0.1249  1.3722
33055SOL    HW2 3977   9.470   8.780   0.151 -3.1388 -0.0603  1.7374
33056SOL     OW 3978   0.465   9.498  12.437  0.0714  0.3122 -0.1285
33056SOL    HW1 3979   0.550   9.454  12.449  0.0371  0.5187  0.9566
33056SOL    HW2 3980   0.469   9.574  12.495 -0.8298  0.3628 -0.1201
33057SOL     OW 3981   7.407   7.427   9.905  0.4304  0.9700  0.0639
33057SOL    HW1 3982   7.377   7.505   9.952  0.4318  1.0972 -0.1438
33057SOL    HW2 3983   7.476   7.459   9.847 -0.3237  1.0250 -0.8431
33058SOL     OW 3984   3.357   1.786   9.775 -0.0010  0.0042 -0.0806
33058SOL    HW1 3985   3.322   1.772   9.863 -0.0541  1.4643  0.1445
33058SOL    HW2 3986   3.366   1.880   9.767  2.7313 -0.2271 -0.6048
33059SOL     OW 3987   0.844   9.382   7.067 -0.2239 -0.1209  0.3753
33059SOL    HW1 3988   0.814   9.291   7.079  1.0248 -0.6757 -0.4938
33059SOL    HW2 3989   0.890   9.381   6.984 -0.8259  1.5115 -0.0056
33060SOL     OW 3990   9.680   1.414   3.612 -0.0074 -0.2675  0.1478
33060SOL    HW1 3991   9.657   1.413   3.519  0.4152 -0.2450  0.0415
33060SOL    HW2 3992   9.763   1.460   3.616  0.5925 -1.3329  0.3924
33061SOL     OW 3993   2.278   5.171   6.431 -0.6748  0.2296 -0.0805
33061SOL    HW1 3994   2.368   5.185   6.402 -0.4688 -0.8327  0.0039
33061SOL    HW2 3995   2.226   5.172   6.350 -0.0365 -3.2535 -0.6967
33062SOL     OW 3996   8.077   0.614  11.578  0.2677 -0.0229  0.1678
33062SOL    HW1 3997   8.126   0.536  11.602  0.9291  0.5631  0.7856
33062SOL    HW2 3998   8.135   0.687  11.601 -0.3415  0.6523 -0.3707
33063SOL     OW 3999   0.108   7.508   8.637  0.0262 -0.5715 -0.0639
33063SOL    HW1 4000   0.041   7.456   8.681 -0.4378  0.9348  1.0998
33063SOL    HW2 4001   0.058   7.569   8.583  0.4649  0.3054  0.5139
33064SOL     OW 4002   8.044   9.789  10.757  0.5467 -0.0279 -0.4869
33064SOL    HW1 4003   8.112   9.793  10.691  0.6466  1.4735 -0.3430
33064SOL    HW2 4004   7.971   9.840  10.720  0.1179 -0.2540  0.0200
33065SOL     OW 4005   1.379   1.294   8.062 -0.0638  0.0159  0.2158
33065SOL    HW1 4006   1.375   1.335   7.975 -2.0707  0.9320  0.6790
33065SOL    HW2 4007   1.436   1.351   8.113 -1.4035  1.3130  0.3452
33066SOL     OW 4008   3.440   6.462   7.700  0.2897 -0.1006  0.0507
33066SOL    HW1 4009   3.437   6.373   7.735 -0.6425  0.0222  0.3188
33066SOL    HW2 4010   3.529   6.493   7.717  1.2078 -1.6154 -1.6434
33067SOL     OW 4011   2.271   6.091   5.639 -0.4194 -0.3178  0.2323
33067SOL    HW1 4012   2.226   6.036   5.575 -0.7102 -1.4147  1.3412
33067SOL    HW2 4013   2.328   6.147   5.586 -1.9142  0.0292 -1.0982
33068SOL     OW 4014   5.342   0.659   7.481  0.1964  0.3209 -0.8601
33068SOL    HW1 4015   5.362   0.706   7.400 -2.4197  0.0002 -1.7991
33068SOL    HW2 4016   5.370   0.569   7.464 -0.5526  0.2014 -1.5361
33069SOL     OW 4017   5.946   9.057   3.117 -0.5068  0.1853  0.5117
33069SOL    HW1 4018   5.919   9.038   3.207  0.4904  0.2741  0.8509
33069SOL    HW2 4019   5.999   8.981   3.093 -1.1255 -0.0348 -0.1573
33070SOL     OW 4020   5.397   0.567   7.762 -0.2433 -0.3232  0.4364
33070SOL    HW1 4021   5.433   0.551   7.675  0.8409  1.0912  0.5941
33070SOL    HW2 4022   5.309   0.602   7.745 -0.8977 -2.0680  0.0026
33071SOL     OW 4023  11.328  11.009   7.834 -1.0260 -0.0400  0.4341
33071SOL    HW1 4024  11.313  11.099   7.864 -0.3682  0.2049  0.0507
33071SOL    HW2 4025  11.260  10.957   7.877 -1.3999  0.6399  0.6723
33072SOL     OW 4026  11.501  10.746   1.180  0.4190 -0.3896  0.5768
33072SOL    HW1 4027  11.443  10.744   1.104 -0.1413 -2.6995  1.0021
33072SOL    HW2 4028  11.588  10.757   1.143  0.0296 -0.1836 -0.3081
33073SOL     OW 4029   0.448   6.367   3.531 -0.2694 -0.2685  0.4696
33073SOL    HW1 4030   0.453   6.298   3.597  1.1283  1.1401  1.9593
33073SOL    HW2 4031   0.448   6.321   3.447  0.8575 -2.0716  1.3845
33074SOL     OW 4032   8.623  10.156   9.170  0.5487 -0.3676  0.4036
33074SOL    HW1 4033   8.647  10.227   9.230  0.6605 -1.0911  1.2457
33074SOL    HW2 4034   8.706  10.112   9.151  0.4411 -0.4466  0.1200
33075SOL     OW 4035   2.952   8.788  11.894  0.0312 -0.4487 -0.7310
33075SOL    HW1 4036   2.884   8.802  11.960 -0.7219 -1.1630 -1.3301
33075SOL    HW2 4037   3.029   8.832  11.929 -0.3468 -0.8257  0.6294
33076SOL     OW 4038  12.232   4.449  11.053 -0.3263  0.3426  0.0906
33076SOL    HW1 4039  12.147   4.491  11.037 -0.0971  0.9940  0.5536
33076SOL    HW2 4040  12.227   4.419  11.143  0.1311  0.8511  0.2867
33077SOL     OW 4041   3.808  12.463   5.897 -0.4080 -0.2760 -0.0692
33077SOL    HW1 4042   3.744  12.392   5.897  1.1354 -1.7345 -0.4730
33077SOL    HW2 4043   3.850  12.457   5.982  0.9275 -1.0330 -0.7426
33078SOL     OW 4044   5.213   6.151   7.935  0.2597 -0.4514 -0.3021
33078SOL    HW1 4045   5.211   6.205   7.856  1.1190  0.1887  0.0931
33078SOL    HW2 4046   5.307   6.142   7.954  0.0451  0.7003  1.4973
33079SOL     OW 4047   3.709   6.768   0.187  0.1355 -0.2304 -0.6191
33079SOL    HW1 4048   3.648   6.814   0.245 -0.3782 -0.3663 -1.0461
33079SOL    HW2 4049   3.706   6.677   0.217  1.8537  0.1283  0.8368
33080SOL     OW 4050   1.320   4.665   2.425  0.1614 -0.2707  0.4026
33080SOL    HW1 4051   1.351   4.622   2.346 -1.6341  0.5761 -0.8305
33080SOL    HW2 4052   1.393   4.721   2.452  1.1700 -1.3359 -0.0346
33081SOL     OW 4053  12.232  10.390   9.244  0.4429 -0.0460 -0.4811
33081SOL    HW1 4054  12.244  10.367   9.151  1.4833 -0.4256 -0.2643
33081SOL    HW2 4055  12.320  10.405   9.276  0.1662 -0.8510  0.7016
33082SOL     OW 4056   1.397  10.692   9.495 -0.4906  0.0482 -0.3623
33082SOL    HW1 4057   1.394  10.621   9.559  0.0726 -0.7971 -1.2483
33082SOL    HW2 4058   1.402  10.648   9.410  4.8425  0.9733 -0.8540
33083SOL     OW 4059  12.020   9.579  11.702 -0.1220  0.5926  0.1172
33083SOL    HW1 4060  12.113   9.597  11.687 -0.5691  0.8660 -3.0929
33083SOL    HW2 4061  12.019   9.498  11.753  1.9155 -0.3435 -1.1727
33084SOL     OW 4062   9.762   1.084   0.550  0.4275 -0.0258  0.1234
33084SOL    HW1 4063   9.709   1.004   0.537  1.8540 -0.7791 -1.4395
33084SOL    HW2 4064   9.707   1.154   0.514  0.6858 -0.8845 -2.0836
33085SOL     OW 4065   4.583   5.247   9.356  0.0392 -0.3542 -0.0725
33085SOL    HW1 4066   4.633   5.318   9.317 -2.0392  0.3366 -1.6622
33085SOL    HW2 4067   4.498   5.251   9.313 -0.5185 -3.1359  0.5886
33086SOL     OW 4068   5.091   3.284  10.252  0.6578 -0.2076  0.3574
33086SOL    HW1 4069   5.183   3.289  10.227  1.2343  0.2066  2.4062
33086SOL    HW2 4070   5.069   3.192  10.243  1.2071 -0.2880 -0.2831
33087SOL     OW 4071   2.957   1.771   0.298 -0.1149 -0.4883  0.0397
33087SOL    HW1 4072   2.959   1.829   0.221 -0.9680 -1.1453 -0.4945
33087SOL    HW2 4073   2.982   1.828   0.371  1.7873 -0.1045 -0.8490
33088SOL     OW 4074   9.606   8.781  10.955 -0.0425 -0.5381 -0.0055
33088SOL    HW1 4075   9.571   8.865  10.983 -2.1083 -0.4556 -2.4631
33088SOL    HW2 4076   9.680   8.765  11.013  0.0384  2.6602  0.9479
33089SOL     OW 4077   5.598   6.299   9.924 -0.1212  0.2322 -0.1216
33089SOL    HW1 4078   5.646   6.379   9.944  2.5299 -0.9515 -1.1800
33089SOL    HW2 4079   5.517   6.329   9.884 -0.2332  2.3719  1.5388
33090SOL     OW 4080  10.577   5.105   9.166  0.1716  0.3412 -0.0776
33090SOL    HW1 4081  10.496   5.130   9.121  0.7603 -0.4269 -1.6381
33090SOL    HW2 4082  10.548   5.054   9.242 -0.8249  0.0074 -0.6658
33091SOL     OW 4083   2.995   9.065  11.277  0.4247  0.5943  0.6398
33091SOL    HW1 4084   2.982   9.140  11.335 -1.2795  0.4524  0.5066
33091SOL    HW2 4085   2.918   9.065  11.220  1.2704 -0.2158 -0.5577
33092SOL     OW 4086   7.052   2.976  10.459 -0.0009 -0.1322 -0.2558
33092SOL    HW1 4087   7.005   3.059  10.455 -0.1900 -0.2125  0.2274
33092SOL    HW2 4088   7.051   2.952  10.552 -0.3903 -0.9248 -0.4540
33093SOL     OW 4089  10.691  10.141   8.312  0.4904  0.0553 -0.4423
33093SOL    HW1 4090  10.603  10.122   8.282  0.3395 -1.1105  0.6516
33093SOL    HW2 4091  10.748  10.093   8.251  0.2996 -0.2458 -0.3884
33094SOL     OW 4092   5.934   7.161   1.909 -0.2256  0.1993 -0.0246
33094SOL    HW1 4093   5.907   7.092   1.970 -1.2512  0.6234  0.0086
33094SOL    HW2 4094   6.030   7.156   1.909 -0.2003  0.1588  1.5775
33095SOL     OW 4095   7.927   2.472   7.981 -0.1670  0.1260 -0.1919
33095SOL    HW1 4096   7.943   2.493   8.073 -2.0272  0.7341  0.0190
33095SOL    HW2 4097   7.837   2.442   7.977  0.2853 -1.2265 -1.6296
33096SOL     OW 4098  11.061  10.331   2.330 -0.4209  0.5851  0.3206
33096SOL    HW1 4099  11.020  10.333   2.244  0.6813 -2.3986 -0.3923
33096SOL    HW2 4100  11.109  10.248   2.332 -0.4624  0.4879  3.8375
33097SOL     OW 4101   5.514   1.833   4.543  0.2190  0.3713 -0.2216
33097SOL    HW1 4102   5.445   1.899   4.552  0.8894  1.2491 -1.1906
33097SOL    HW2 4103   5.574   1.851   4.615 -0.1268  0.1583  0.1196
33098SOL     OW 4104   3.527   1.993   5.765 -0.1695  0.1272  0.4582
33098SOL    HW1 4105   3.558   1.973   5.677 -0.1833 -0.9097  0.6667
33098SOL    HW2 4106   3.532   1.909   5.811  1.2188  0.9357  1.8756
33099SOL     OW 4107   7.142   5.521   0.806  0.0488 -0.0230 -0.0644
33099SOL    HW1 4108   7.144   5.435   0.850  1.4331 -0.4737 -0.9424
33099SOL    HW2 4109   7.049   5.544   0.804 -0.1170  0.0228  3.0463
33100SOL     OW 4110   3.565   1.373  11.772  0.1781  0.8622 -0.2674
33100SOL    HW1 4111   3.603   1.328  11.848  0.7435  2.7871  0.6667
33100SOL    HW2 4112   3.471   1.356  11.778  0.3884 -0.2875 -0.0436
33101SOL     OW 4113   1.648   9.304   7.196  0.1363  0.5790  0.5446
33101SOL    HW1 4114   1.698   9.238   7.149  1.2338  2.2031 -0.7112
33101SOL    HW2 4115   1.629   9.265   7.281  3.4523 -0.2160  1.0676
33102SOL     OW 4116  11.956   9.627   5.154  0.2447 -0.2669 -0.6228
33102SOL    HW1 4117  11.862   9.610   5.157  0.1649  0.0894  3.0121
33102SOL    HW2 4118  11.988   9.571   5.084 -2.6542 -0.1993 -2.1792
33103SOL     OW 4119   8.952   7.189   7.012  0.0006 -0.0613  0.1135
33103SOL    HW1 4120   8.880   7.173   7.073  0.1701  0.8668  0.5730
33103SOL    HW2 4121   8.912   7.179   6.925 -0.1141 -1.9330  0.3407
33104SOL     OW 4122   0.137  12.327   6.576  0.2644 -0.0802  0.1611
33104SOL    HW1 4123   0.135  12.294   6.666 -0.3423  0.4814  0.3608
33104SOL    HW2 4124   0.168  12.417   6.584  1.2771 -0.3700 -0.3146
33105SOL     OW 4125   3.265   6.947  12.336 -0.2790  0.0042 -0.3045
33105SOL    HW1 4126   3.331   7.007  12.301 -0.4270  1.2721  1.4491
33105SOL    HW2 4127   3.306   6.907  12.413 -1.3051  0.3101  0.4285
33106SOL     OW 4128   2.174   7.039   2.761  0.6450 -0.1949 -0.0252
33106SOL    HW1 4129   2.097   7.042   2.705  0.7328 -2.0029 -0.2940
33106SOL    HW2 4130   2.218   6.957   2.738  1.8593  0.0793  1.1593
33107SOL     OW 4131   1.919  11.985   2.729 -0.5015 -0.6477 -0.1058
33107SOL    HW1 4132   1.846  12.047   2.735 -0.3374 -0.0658 -2.7234
33107SOL    HW2 4133   1.877  11.900   2.718 -0.7518 -0.5677  0.2111
33108SOL     OW 4134   1.190   2.200   7.139  0.5442 -0.5814 -0.2724
33108SOL    HW1 4135   1.158   2.291   7.132  1.2073 -0.4581 -2.0766
33108SOL    HW2 4136   1.110   2.148   7.151  0.0734  0.1376 -0.1943
33109SOL     OW 4137   7.795   5.429   6.292 -0.1604  0.3029  0.3426
33109SOL    HW1 4138   7.866   5.365   6.298 -2.0437 -1.7356  2.3517
33109SOL    HW2 4139   7.795   5.456   6.200  2.3942 -0.4931  0.0150
33110SOL     OW 4140   4.732  11.204   2.576  0.0289  0.2512  0.2517
33110SOL    HW1 4141   4.656  11.247   2.614 -0.3426 -0.9406  0.9425
33110SOL    HW2 4142   4.807  11.239   2.625 -0.3491 -0.4826  1.4137
33111SOL     OW 4143  12.339  10.316   8.109 -0.6027 -0.2126  0.4339
33111SOL    HW1 4144  12.284  10.326   8.031 -0.2761  1.7565  0.3961
33111SOL    HW2 4145  12.279  10.286   8.176 -1.5775  1.0356  0.1639
33112SOL     OW 4146   4.484   9.706   3.452  0.0661  0.0241 -0.2998
33112SOL    HW1 4147   4.404   9.654   3.444  0.2062 -0.2247 -0.1199
33112SOL    HW2 4148   4.539   9.677   3.380  0.5996 -0.9088  0.4489
33113SOL     OW 4149   2.107   4.948   8.296 -0.0828  0.0607  0.0279
33113SOL    HW1 4150   2.180   4.985   8.346  0.4719 -0.8009 -0.1328
33113SOL    HW2 4151   2.124   4.974   8.206 -0.6065  0.8481  0.1444
33114SOL     OW 4152   7.921   1.362   0.881  0.4630 -0.0332 -0.3171
33114SOL    HW1 4153   7.967   1.285   0.914 -1.6272 -1.1564  0.1481
33114SOL    HW2 4154   7.844   1.327   0.836 -0.3500  1.7519 -0.4219
33115SOL     OW 4155  10.764  11.762  10.525 -0.0246  0.1642  0.5230
33115SOL    HW1 4156  10.782  11.675  10.488  2.2129  0.4913  0.7206
33115SOL    HW2 4157  10.726  11.811  10.452 -1.0457 -0.8703  0.3240
33116SOL     OW 4158   9.129   7.839   1.083 -0.2425  0.3026 -0.5555
33116SOL    HW1 4159   9.034   7.845   1.088 -0.2504  0.6075 -0.9729
33116SOL    HW2 4160   9.159   7.930   1.076 -0.0300  0.1589 -1.9388
33117SOL     OW 4161   9.253  10.835  10.473 -0.7566 -0.2387  0.4157
33117SOL    HW1 4162   9.283  10.905  10.415  1.2963  0.4474  2.1698
33117SOL    HW2 4163   9.179  10.873  10.520 -0.1957  0.4673  0.7413
33118SOL     OW 4164  10.283  12.534  10.332 -0.0939  0.1976 -0.5454
33118SOL    HW1 4165  10.230  12.600  10.289 -1.4678  0.2491  1.1324
33118SOL    HW2 4166  10.302  12.570  10.418 -1.6178 -1.8600  0.7606
33119SOL     OW 4167  11.271   4.028   6.630  0.0909  0.2066 -0.4736
33119SOL    HW1 4168  11.324   4.045   6.552  0.7588  1.7710  0.2760
33119SOL    HW2 4169  11.330   4.043   6.703 -1.4609  2.5943  0.4208
33120SOL     OW 4170   0.469  10.854  10.962 -0.2194  0.0407 -0.0111
33120SOL    HW1 4171   0.377  10.875  10.979 -0.2561 -0.3527  0.3004
33120SOL    HW2 4172   0.476  10.854  10.867 -0.6382 -0.3184 -0.0461
33121SOL     OW 4173  10.557   9.891   0.343  0.0474 -0.3508 -0.1466
33121SOL    HW1 4174  10.589   9.817   0.395  0.1720  0.5919  1.1597
33121SOL    HW2 4175  10.564   9.861   0.252  0.2533 -1.8739  0.3445
33122SOL     OW 4176   4.890   7.808   5.026 -0.1492 -0.8204 -0.5844
33122SOL    HW1 4177   4.857   7.732   5.074  1.6574 -1.4381 -0.2595
33122SOL    HW2 4178   4.947   7.771   4.959 -0.6856  0.1734 -1.6111
33123SOL     OW 4179  11.505   9.683   0.394 -0.0850 -0.5901 -0.3146
33123SOL    HW1 4180  11.579   9.638   0.354 -0.9953 -1.2605 -1.3066
33123SOL    HW2 4181  11.529   9.692   0.486  1.6723  0.1652 -0.8009
33124SOL     OW 4182   6.068   2.825  11.515  0.2797 -0.2569  0.2912
33124SOL    HW1 4183   6.079   2.758  11.448 -2.0058  0.6652 -1.1385
33124SOL    HW2 4184   6.106   2.904  11.476  0.5865 -0.1115  0.8689
33125SOL     OW 4185   6.697   0.334   0.391 -0.0041  0.3102 -0.2957
33125SOL    HW1 4186   6.677   0.369   0.304 -2.0530 -0.3187 -0.1347
33125SOL    HW2 4187   6.781   0.374   0.415  0.0001  1.4329 -2.0426
33126SOL     OW 4188   3.546   6.786   4.620 -0.3636 -0.2147 -0.3125
33126SOL    HW1 4189   3.597   6.837   4.682  0.5146 -0.2842 -0.9560
33126SOL    HW2 4190   3.470   6.757   4.670 -0.5438  1.1460  0.2472
33127SOL     OW 4191  12.445  11.102   3.381 -0.3092  0.1568  0.4917
33127SOL    HW1 4192  12.537  11.126   3.390  0.3196 -2.1960  1.1129
33127SOL    HW2 4193  12.408  11.169   3.324  1.4918  1.8153  1.1449
33128SOL     OW 4194   3.624   0.265   9.836 -0.4537 -0.5864  0.0828
33128SOL    HW1 4195   3.558   0.227   9.894 -1.3528  0.4803 -0.2050
33128SOL    HW2 4196   3.576   0.283   9.755  0.6089 -1.3610 -0.7404
33129SOL     OW 4197   0.903   5.503   1.198  0.1246 -0.3851  0.4803
33129SOL    HW1 4198   0.977   5.472   1.145  0.0256 -0.2931  0.2864
33129SOL    HW2 4199   0.858   5.565   1.141 -0.4694 -0.9179  0.3565
33130SOL     OW 4200   5.159   2.202   3.008 -0.1734 -0.4324 -0.5589
33130SOL    HW1 4201   5.227   2.201   2.940  0.4196 -1.4240  0.0235
33130SOL    HW2 4202   5.077   2.212   2.960  0.3645  0.6910 -1.2805
33131SOL     OW 4203   7.083   8.247   3.194  0.6087  0.1362  0.3561
33131SOL    HW1 4204   7.170   8.249   3.232  0.7161 -1.1523  0.2198
33131SOL    HW2 4205   7.081   8.322   3.134  1.2618  0.7605  1.1003
33132SOL     OW 4206   8.133   4.258   2.983 -0.0552  0.2614 -0.1748
33132SOL    HW1 4207   8.203   4.198   2.957  0.4293  1.5277 -2.0308
33132SOL    HW2 4208   8.053   4.216   2.952  0.0439 -0.3773  0.4011
33133SOL     OW 4209   9.761   7.085   5.941  0.2303 -0.3036 -0.1911
33133SOL    HW1 4210   9.722   6.998   5.948 -0.7984 -0.0105 -1.7655
33133SOL    HW2 4211   9.758   7.120   6.030  0.6531 -1.8525  0.4732
33134SOL     OW 4212  10.367   6.469   4.172  0.1305 -0.5247 -0.4314
33134SOL    HW1 4213  10.361   6.476   4.267  0.4469 -0.3235 -0.4264
33134SOL    HW2 4214  10.452   6.429   4.156  0.1447 -0.4123 -0.6396
33135SOL     OW 4215   1.959  11.981   1.591  0.2900  0.5875 -0.1700
33135SOL    HW1 4216   1.866  12.005   1.584  0.7739  4.3180  2.8372
33135SOL    HW2 4217   1.997  12.010   1.507 -1.0256  0.0686 -0.9754
33136SOL     OW 4218  11.153   2.488   4.586  0.4010 -0.6349  0.2432
33136SOL    HW1 4219  11.080   2.429   4.568 -0.6434  0.4242  0.9515
33136SOL    HW2 4220  11.134   2.526   4.671  0.8283  1.0767 -0.3857
33137SOL     OW 4221  10.629   3.123   5.597 -0.7188  0.3576 -0.1905
33137SOL    HW1 4222  10.554   3.075   5.562  0.0299 -0.4404 -0.7389
33137SOL    HW2 4223  10.651   3.076   5.678  0.6038 -0.8778 -1.2050
33138SOL     OW 4224  11.446   4.579   2.280  0.4139 -0.0507  0.4353
33138SOL    HW1 4225  11.404   4.499   2.312  1.1418 -0.5649  0.1316
33138SOL    HW2 4226  11.442   4.571   2.185  2.9670 -1.1246  0.3257
33139SOL     OW 4227   2.400  11.838   8.681  0.2089 -0.5638 -0.2210
33139SOL    HW1 4228   2.395  11.822   8.587 -0.2399  1.1366 -0.5277
33139SOL    HW2 4229   2.401  11.934   8.689  1.1440 -0.6769  1.4626
33140SOL     OW 4230   7.144   9.676   1.104 -0.7462  0.2893  0.1724
33140SOL    HW1 4231   7.171   9.585   1.094  0.0735  0.5470  0.0192
33140SOL    HW2 4232   7.151   9.713   1.016  1.9758  1.3247  0.7370
33141SOL     OW 4233   3.538   5.393   0.036  0.4218 -0.1767 -0.2218
33141SOL    HW1 4234   3.604   5.407  -0.031  0.6056 -0.1504 -0.0354
33141SOL    HW2 4235   3.565   5.312   0.079  0.0462 -0.4502 -0.4856
33142SOL     OW 4236   7.523   8.970   4.313 -0.1951 -0.1261 -0.4924
33142SOL    HW1 4237   7.457   9.039   4.323 -0.1622 -0.0207 -0.9920
33142SOL    HW2 4238   7.508   8.935   4.225  0.5543  0.0356 -0.6887
33143SOL     OW 4239   4.067   7.729  11.743 -0.3369  0.5896 -0.3317
33143SOL    HW1 4240   4.007   7.749  11.815  0.7140  3.0950 -0.0543
33143SOL    HW2 4241   4.012   7.730  11.665 -0.9671  0.9504  0.1033
33144SOL     OW 4242   8.775   1.471  11.958 -0.4935 -0.2709 -0.5843
33144SOL    HW1 4243   8.774   1.566  11.946 -0.9552 -0.0237  1.1895
33144SOL    HW2 4244   8.847   1.441  11.902  0.9617  1.3483  0.3189
33145SOL     OW 4245   5.863   3.155  10.724  0.5450  0.5097  0.0300
33145SOL    HW1 4246   5.780   3.201  10.729  0.6599  0.7419 -0.1693
33145SOL    HW2 4247   5.872   3.110  10.808  0.5346  1.0215  0.3047
33146SOL     OW 4248   0.131   2.147  10.477 -0.2093 -0.3724 -0.2837
33146SOL    HW1 4249   0.106   2.235  10.504  0.0351  0.3509 -2.2196
33146SOL    HW2 4250   0.075   2.089  10.528 -1.1950  0.9550  0.1960
33147SOL     OW 4251  10.333   9.013  10.914 -0.6359  0.0066  0.2934
33147SOL    HW1 4252  10.393   9.012  10.989 -0.4434 -0.5883  0.1445
33147SOL    HW2 4253  10.348   9.097  10.872 -1.4029  0.7385  1.4326
33148SOL     OW 4254   3.188   3.136   6.205 -0.2896 -0.1004 -0.1140
33148SOL    HW1 4255   3.134   3.056   6.206  0.9107 -0.9972  2.6142
33148SOL    HW2 4256   3.145   3.194   6.267  0.0574  0.5100 -0.4437
33149SOL     OW 4257   4.344  12.525   6.283 -0.0895 -0.7821  0.4313
33149SOL    HW1 4258   4.330  12.434   6.306 -2.6657 -0.4073  0.6541
33149SOL    HW2 4259   4.412  12.523   6.216 -0.1029 -2.8476  0.4223
33150SOL     OW 4260   6.788   7.386   6.264 -0.1362  0.3018 -0.0247
33150SOL    HW1 4261   6.741   7.447   6.321 -0.1340  1.6047 -1.3557
33150SOL    HW2 4262   6.786   7.303   6.312 -2.5943  0.6299  0.6032
33151SOL     OW 4263   3.962   9.518  11.555  0.1377  0.3992 -0.2969
33151SOL    HW1 4264   3.908   9.551  11.484 -1.4549 -1.0924  0.1701
33151SOL    HW2 4265   3.917   9.440  11.587  0.1025  1.6082  3.1078
33152SOL     OW 4266  11.599  12.500   9.359 -0.5392 -0.5218 -0.6500
33152SOL    HW1 4267  11.554  12.513   9.275  1.5897 -1.3898 -1.9951
33152SOL    HW2 4268  11.627  12.588   9.385 -3.0919  0.0894  0.3654
33153SOL     OW 4269   5.177   7.966   9.795  0.2083  0.4531 -0.0549
33153SOL    HW1 4270   5.251   7.970   9.734  0.0320  0.0153 -0.2958
33153SOL    HW2 4271   5.123   7.894   9.763 -0.4604  0.9338 -0.0303
33154SOL     OW 4272   8.905   7.724   3.582 -0.1382  0.1676 -0.7113
33154SOL    HW1 4273   8.941   7.733   3.494  1.3111  1.4521 -0.0515
33154SOL    HW2 4274   8.928   7.807   3.625  0.0252 -0.7867  1.1449
33155SOL     OW 4275   0.555  10.392   5.167 -0.5795 -0.5016 -0.5056
33155SOL    HW1 4276   0.615  10.372   5.096 -1.7732 -1.6107 -1.2693
33155SOL    HW2 4277   0.588  10.472   5.206  0.1362  0.1242 -2.2997
33156SOL     OW 4278  11.220   7.520  10.397  0.0099 -0.1544  0.3770
33156SOL    HW1 4279  11.309   7.487  10.382  0.8159  2.5678 -1.6981
33156SOL    HW2 4280  11.213   7.528  10.492  1.2418 -2.2013  0.7056
33157SOL     OW 4281   2.262  10.983   5.646  0.0710 -0.1701  0.2314
33157SOL    HW1 4282   2.315  10.964   5.724  0.6141  1.5162  0.3128
33157SOL    HW2 4283   2.273  11.077   5.631 -1.8294 -0.0225 -0.5755
33158SOL     OW 4284   2.450  11.878   5.633  0.3765  0.1762  0.2720
33158SOL    HW1 4285   2.509  11.943   5.671 -0.4981  0.8602  0.5013
33158SOL    HW2 4286   2.438  11.814   5.702  1.4187 -0.3765 -0.0304
33159SOL     OW 4287   6.640   9.130   2.454 -0.3901 -0.5126 -0.2430
33159SOL    HW1 4288   6.724   9.105   2.416  0.3089  1.2445  0.0201
33159SOL    HW2 4289   6.645   9.101   2.545 -1.3692 -3.1646 -0.9396
33160SOL     OW 4290   2.228   5.866   7.764  0.1046 -0.0042  0.3712
33160SOL    HW1 4291   2.191   5.834   7.846 -0.5396  0.3734  0.2366
33160SOL    HW2 4292   2.219   5.962   7.769  0.4443  0.0497  0.0424
33161SOL     OW 4293   6.619   4.742   5.211 -0.1563 -0.2634  0.3139
33161SOL    HW1 4294   6.649   4.800   5.141 -0.3273 -2.3249 -1.5509
33161SOL    HW2 4295   6.697   4.691   5.234 -0.3116 -0.1641  1.0872
33162SOL     OW 4296   6.520   1.767   5.887  0.2832 -0.0912  0.0987
33162SOL    HW1 4297   6.442   1.712   5.892  1.1015 -1.2341  0.5642
33162SOL    HW2 4298   6.496   1.836   5.824 -0.6152 -1.1877 -0.8091
33163SOL     OW 4299   2.766  12.428   8.379  0.1059  0.8053  0.1626
33163SOL    HW1 4300   2.823  12.404   8.306  0.0011 -3.3097  1.1721
33163SOL    HW2 4301   2.698  12.359   8.380 -2.0467  2.7749  1.9632
33164SOL     OW 4302   0.938   6.621   7.514  0.6006  0.0680  0.2264
33164SOL    HW1 4303   0.941   6.703   7.464  0.1766 -0.7227 -1.1541
33164SOL    HW2 4304   0.928   6.553   7.447  0.9903 -1.1184  1.3444
33165SOL     OW 4305   7.462  10.253  10.129 -0.4916  0.5939 -0.0747
33165SOL    HW1 4306   7.497  10.327  10.179 -1.4798 -0.3463  2.2009
33165SOL    HW2 4307   7.534  10.190  10.126 -0.2906  0.8290 -0.2207
33166SOL     OW 4308   0.561   7.653   9.190  0.5417  0.9334  0.5632
33166SOL    HW1 4309   0.592   7.623   9.276  1.8007 -0.9062 -0.4712
33166SOL    HW2 4310   0.466   7.642   9.194  0.5634  0.9933  1.7488
33167SOL     OW 4311   7.870   9.495  11.060  0.5012 -0.2678 -0.0394
33167SOL    HW1 4312   7.933   9.431  11.028 -0.8204 -1.1047 -1.0377
33167SOL    HW2 4313   7.796   9.488  11.000 -0.5986  0.6085  1.1781
33168SOL     OW 4314   0.689   7.452  11.125 -0.1953 -0.3009 -0.0521
33168SOL    HW1 4315   0.647   7.426  11.207  0.1658  0.2975  0.3293
33168SOL    HW2 4316   0.775   7.412  11.129 -1.2043 -2.8387 -1.5334
33169SOL     OW 4317   2.518  11.462   7.747  0.0734 -0.2246  0.3514
33169SOL    HW1 4318   2.577  11.536   7.757  0.3639 -0.5956  1.5401
33169SOL    HW2 4319   2.556  11.412   7.674  0.6485  0.0809  0.4283
33170SOL     OW 4320   2.201   6.259   9.141  0.0727 -0.0844 -0.0983
33170SOL    HW1 4321   2.179   6.180   9.091 -0.1456  0.2981 -0.6069
33170SOL    HW2 4322   2.282   6.236   9.188 -0.0858 -0.6677 -0.1096
33171SOL     OW 4323   2.570  12.490   9.842  0.1274  0.4682 -0.3867
33171SOL    HW1 4324   2.638  12.453   9.786  0.9178  0.0178  0.8120
33171SOL    HW2 4325   2.543  12.571   9.798 -1.4881 -1.3448 -2.9494
33172SOL     OW 4326  10.783   3.697  11.711 -0.6805  0.4369 -0.0096
33172SOL    HW1 4327  10.794   3.790  11.689  1.2215  0.3158  0.2091
33172SOL    HW2 4328  10.804   3.692  11.804  0.4509 -0.3604 -0.2813
33173SOL     OW 4329   4.104   2.847   5.574 -0.5538 -0.1353 -0.6766
33173SOL    HW1 4330   4.040   2.877   5.510  0.3252 -0.4082 -1.7154
33173SOL    HW2 4331   4.158   2.784   5.527  2.2082  2.0394 -0.7022
33174SOL     OW 4332   0.611   6.130  11.636 -0.4115  0.3739  0.3879
33174SOL    HW1 4333   0.672   6.088  11.575 -0.6041  2.0403 -1.0198
33174SOL    HW2 4334   0.537   6.069  11.642  0.5443 -0.8023  0.6711
33175SOL     OW 4335   1.512   0.350  11.752  0.4817  0.2904 -0.3874
33175SOL    HW1 4336   1.557   0.371  11.670 -0.0684 -2.1202 -1.3985
33175SOL    HW2 4337   1.543   0.263  11.775  1.7386  1.4537  2.8471
33176SOL     OW 4338   9.480  11.874   9.902 -0.1215 -0.5736 -0.3527
33176SOL    HW1 4339   9.385  11.886   9.909 -0.2598 -1.3919 -0.7501
33176SOL    HW2 4340   9.517  11.954   9.940 -0.9812  0.8327 -2.2981
33177SOL     OW 4341  10.522   5.249   0.917 -0.8423  0.1489  0.3022
33177SOL    HW1 4342  10.542   5.158   0.941 -0.7326  0.2660  0.6655
33177SOL    HW2 4343  10.601   5.281   0.874 -1.2867 -0.2769 -0.8744
33178SOL     OW 4344   6.313   6.631   5.628 -0.5352  0.2753 -0.2134
33178SOL    HW1 4345   6.286   6.642   5.719 -0.5746 -0.0009 -0.1917
33178SOL    HW2 4346   6.361   6.711   5.608 -1.0662  0.6159 -0.1452
33179SOL     OW 4347   6.206   6.242   0.218  0.7058 -0.3878  0.2206
33179SOL    HW1 4348   6.163   6.158   0.201  0.4205 -0.1654 -0.1763
33179SOL    HW2 4349   6.192   6.292   0.138  0.7975  0.0725  0.4925
33180SOL     OW 4350   7.173   8.499   2.911 -0.2550  0.6632 -0.2536
33180SOL    HW1 4351   7.122   8.537   2.983  0.1113 -0.5359  0.6814
33180SOL    HW2 4352   7.215   8.574   2.869 -0.0731  1.3669  1.1203
33181SOL     OW 4353   5.365   3.497   6.272  0.2493  0.0581  0.4446
33181SOL    HW1 4354   5.327   3.584   6.263  0.5314  0.2867  1.3269
33181SOL    HW2 4355   5.327   3.462   6.353  2.5330  0.6523  1.8786
33182SOL     OW 4356   8.754   0.204   3.475  0.0330  0.6511 -0.5087
33182SOL    HW1 4357   8.777   0.118   3.509 -0.0368  1.0933  0.7159
33182SOL    HW2 4358   8.679   0.187   3.417 -1.2612  0.0782  1.2198
33183SOL     OW 4359   8.128   4.112  11.210 -0.4154  0.4559 -0.3043
33183SOL    HW1 4360   8.077   4.189  11.236  0.1004  0.8042 -0.2963
33183SOL    HW2 4361   8.218   4.136  11.232 -0.3536 -0.5096  0.5352
33184SOL     OW 4362   5.858   5.471  10.769  1.1022 -0.5143 -0.3713
33184SOL    HW1 4363   5.769   5.464  10.735  1.6117 -2.7657 -1.3982
33184SOL    HW2 4364   5.848   5.516  10.853 -0.6339  1.8337 -1.7119
33185SOL     OW 4365   0.034  11.148   6.643 -0.3715 -0.1143 -0.3955
33185SOL    HW1 4366   0.077  11.160   6.727  1.4655 -0.3431 -1.2542
33185SOL    HW2 4367  -0.048  11.103   6.664 -0.9517  1.6850  1.4430
33186SOL     OW 4368   4.850   4.365   6.790  0.4029 -0.0396 -0.6610
33186SOL    HW1 4369   4.829   4.366   6.883  0.4299  0.6770 -0.6573
33186SOL    HW2 4370   4.907   4.288   6.779  1.0193  0.2995  0.0545
33187SOL     OW 4371   3.266   0.739   3.743 -0.3976  0.1501 -0.5430
33187SOL    HW1 4372   3.250   0.667   3.804 -1.6092  0.9463  0.1305
33187SOL    HW2 4373   3.178   0.764   3.712  0.0902  0.6341 -1.5915
33188SOL     OW 4374   1.186   0.995   2.320 -0.0281  0.1011  0.1530
33188SOL    HW1 4375   1.277   0.964   2.326 -0.0102  0.2615  0.8103
33188SOL    HW2 4376   1.186   1.077   2.370 -0.7307 -0.3405  0.8908
33189SOL     OW 4377   2.714   3.672  11.033 -0.2357 -0.2152 -0.3458
33189SOL    HW1 4378   2.795   3.721  11.051 -0.8629  0.3869  0.9744
33189SOL    HW2 4379   2.701   3.618  11.110 -1.2398 -0.1062 -0.4294
33190SOL     OW 4380  11.352   3.631   0.186  0.0043 -0.2241  0.3309
33190SOL    HW1 4381  11.385   3.543   0.207 -0.0345 -0.5860 -1.0396
33190SOL    HW2 4382  11.261   3.616   0.159  0.4597 -0.0041 -1.4466
33191SOL     OW 4383   5.945  10.065   9.524  0.1034  0.0079 -0.1993
33191SOL    HW1 4384   5.871  10.116   9.559 -0.1941 -0.8092  0.3943
33191SOL    HW2 4385   6.014  10.130   9.510 -0.3828  0.6337  0.2154
33192SOL     OW 4386   2.253   4.689  11.745  0.0495 -0.3221 -0.2275
33192SOL    HW1 4387   2.325   4.716  11.687 -1.3371  1.1756 -1.3344
33192SOL    HW2 4388   2.258   4.749  11.819  0.7276 -1.0902  0.3716
33193SOL     OW 4389   0.394   4.465  12.595  0.2042 -0.1314 -0.1367
33193SOL    HW1 4390   0.457   4.533  12.569  0.5120 -0.3590  0.0105
33193SOL    HW2 4391   0.368   4.424  12.513 -1.1302  1.1408 -0.4086
33194SOL     OW 4392  12.056   9.429   9.414  0.6204  0.4365 -0.6284
33194SOL    HW1 4393  11.992   9.451   9.345  0.1362 -0.6495 -0.5461
33194SOL    HW2 4394  12.038   9.493   9.483 -1.4016 -0.7059  0.0042
33195SOL     OW 4395  12.294   6.297   0.021 -0.1192 -0.0131  0.0238
33195SOL    HW1 4396  12.270   6.315  -0.070  0.8144  1.6799  0.0691
33195SOL    HW2 4397  12.245   6.362   0.072 -0.5858 -0.9052  0.7513
33196SOL     OW 4398   9.451   8.741   5.100 -0.3727  0.1819 -0.5340
33196SOL    HW1 4399   9.528   8.695   5.066 -2.3169 -3.5197 -0.3696
33196SOL    HW2 4400   9.471   8.753   5.193  1.1518  2.0385 -1.0288
33197SOL     OW 4401   1.975   5.764   8.204 -0.0278  0.6409  0.3475
33197SOL    HW1 4402   1.893   5.741   8.247 -0.6509  1.4394 -0.3924
33197SOL    HW2 4403   2.030   5.799   8.275 -0.7364  1.1563  0.6546
33198SOL     OW 4404   4.703  12.132   3.514  0.1060  0.0887 -0.3226
33198SOL    HW1 4405   4.784  12.149   3.465  1.1414  1.1123  1.6639
33198SOL    HW2 4406   4.728  12.064   3.577 -0.1088  1.5304  1.3678
33199SOL     OW 4407  10.729   3.413   1.600  0.7792  0.3591  0.6195
33199SOL    HW1 4408  10.676   3.482   1.560  1.3860  0.2515 -0.4122
33199SOL    HW2 4409  10.819   3.438   1.581  1.1105  0.4657  2.2367
33200SOL     OW 4410   3.463   2.852   4.488 -0.0423 -0.0402  0.3124
33200SOL    HW1 4411   3.480   2.766   4.449 -1.3731 -1.3476  2.4510
33200SOL    HW2 4412   3.376   2.877   4.454  0.3706  0.5328 -0.3587
33201SOL     OW 4413   2.292   7.559   1.697 -0.2653  0.3245  0.1411
33201SOL    HW1 4414   2.296   7.464   1.682  0.6002  0.0061  2.1101
33201SOL    HW2 4415   2.354   7.575   1.769 -1.8794  2.0826  1.2375
33202SOL     OW 4416   8.727   4.706   4.485 -0.8392  0.3413 -0.6555
33202SOL    HW1 4417   8.649   4.657   4.460 -0.9770  0.0605  0.2647
33202SOL    HW2 4418   8.770   4.728   4.403 -1.7952  0.3442 -1.1634
33203SOL     OW 4419   6.427   0.032   0.633 -0.2114  0.5620  0.2186
33203SOL    HW1 4420   6.351  -0.026   0.627 -0.8702  1.3241  0.9285
33203SOL    HW2 4421   6.394   0.117   0.602  0.8319  0.4938 -1.1817
33204SOL     OW 4422   4.840   9.479   3.790 -0.0469 -0.5297 -0.3338
33204SOL    HW1 4423   4.888   9.526   3.722 -0.1245 -1.1830 -0.8497
33204SOL    HW2 4424   4.822   9.545   3.856  1.0155 -0.1259 -0.4163
33205SOL     OW 4425   8.043   5.261   6.243 -0.2128  0.2508  0.0453
33205SOL    HW1 4426   8.009   5.184   6.197  0.1513  0.9714 -1.5109
33205SOL    HW2 4427   8.087   5.311   6.175  0.1719  1.4896  1.1748
33206SOL     OW 4428   8.941   8.520   9.231  0.3364 -0.0455  0.5655
33206SOL    HW1 4429   8.924   8.609   9.262 -0.4930 -0.2951  0.8302
33206SOL    HW2 4430   8.911   8.463   9.302 -1.5964 -0.6310 -0.6387
33207SOL     OW 4431   2.596   6.167  10.793  0.0636  0.1204 -0.1792
33207SOL    HW1 4432   2.501   6.166  10.807  0.0721 -0.5447 -0.1352
33207SOL    HW2 4433   2.613   6.088  10.741  0.6626 -0.0934  0.3307
33208SOL     OW 4434   6.591  12.526   5.150 -0.1970  0.3536 -0.1816
33208SOL    HW1 4435   6.544  12.600   5.110 -0.7480 -0.6427 -1.4532
33208SOL    HW2 4436   6.530  12.493   5.216 -0.5261  0.2015 -0.5560
33209SOL     OW 4437   6.986   5.330   6.979 -0.3330 -0.1757 -0.2214
33209SOL    HW1 4438   6.954   5.358   7.065 -0.5428  4.1386 -1.4729
33209SOL    HW2 4439   6.917   5.273   6.945 -1.2764 -0.1996  1.6037
33210SOL     OW 4440  10.109   0.371   8.955 -0.3739 -0.6216 -0.0648
33210SOL    HW1 4441  10.080   0.282   8.974 -1.4285 -0.2986 -0.0695
33210SOL    HW2 4442  10.038   0.426   8.987  0.2530  0.2159 -0.0932
33211SOL     OW 4443  10.754   0.868   4.622 -0.2382 -0.2620  0.2335
33211SOL    HW1 4444  10.810   0.793   4.602 -0.3902 -0.3181  0.0197
33211SOL    HW2 4445  10.806   0.920   4.684 -0.5681 -1.1043  1.2568
33212SOL     OW 4446   1.354   5.734  12.521 -0.1387 -0.2713  0.5945
33212SOL    HW1 4447   1.335   5.765  12.432  1.2170  1.4142  0.8226
33212SOL    HW2 4448   1.298   5.658  12.533  0.4277 -1.2277 -2.1190
33213SOL     OW 4449   2.222   4.579   8.336  0.0269 -0.4429 -0.7450
33213SOL    HW1 4450   2.130   4.579   8.363 -0.2121  0.9076 -1.4827
33213SOL    HW2 4451   2.270   4.562   8.417 -0.7819  1.0040  0.0857
33214SOL     OW 4452   1.112  10.295   3.214 -0.5524 -0.2083 -0.0368
33214SOL    HW1 4453   1.043  10.359   3.197 -1.2007 -1.0302 -0.6016
33214SOL    HW2 4454   1.077  10.212   3.181  1.3557 -0.3569 -1.9300
33215SOL     OW 4455   2.300   7.813   5.725 -0.2312  0.1280 -0.3498
33215SOL    HW1 4456   2.254   7.896   5.731  0.8670  0.6829  0.9506
33215SOL    HW2 4457   2.382   7.828   5.771  0.6201 -1.2576 -1.3434
33216SOL     OW 4458   3.474   2.279   3.541  0.0740  0.1913 -0.4887
33216SOL    HW1 4459   3.421   2.330   3.480 -0.2236 -1.7656 -1.9945
33216SOL    HW2 4460   3.414   2.212   3.575  0.7912 -0.0898  0.2778
33217SOL     OW 4461   1.297   8.516   8.092 -0.5336 -0.6860  0.1380
33217SOL    HW1 4462   1.346   8.570   8.155  0.6248 -0.6775 -0.7461
33217SOL    HW2 4463   1.334   8.429   8.102  1.0711 -0.3034 -1.8742
33218SOL     OW 4464   6.516  11.715  10.785  0.2315 -0.2569 -0.4528
33218SOL    HW1 4465   6.530  11.713  10.691  1.0921  2.6515 -0.4704
33218SOL    HW2 4466   6.425  11.745  10.795 -0.3942 -2.0672 -0.2924
33219SOL     OW 4467   6.958   4.935   8.670 -0.3755 -0.2747 -0.2811
33219SOL    HW1 4468   7.003   5.019   8.668  0.0204 -0.4288  1.3483
33219SOL    HW2 4469   6.868   4.955   8.641 -0.0765  0.5444 -0.6680
33220SOL     OW 4470   7.253   3.646   2.866  0.4744 -0.8477  0.2481
33220SOL    HW1 4471   7.344   3.639   2.896  0.1565 -2.1444  0.9801
33220SOL    HW2 4472   7.250   3.729   2.818  1.6542  0.0057  1.5650
33221SOL     OW 4473  12.391  11.501   5.825 -0.3521  0.6813 -0.1584
33221SOL    HW1 4474  12.299  11.473   5.827 -0.3100  0.4851  2.0457
33221SOL    HW2 4475  12.440  11.419   5.820 -0.3016  0.7184 -0.2505
33222SOL     OW 4476   6.912   4.958   2.104 -0.1023  0.4354 -0.3257
33222SOL    HW1 4477   6.821   4.986   2.110  0.0942  0.8206  1.5683
33222SOL    HW2 4478   6.915   4.902   2.027 -2.0399  0.0274 -0.1574
33223SOL     OW 4479   8.296   3.870   2.866 -0.4729  0.2077 -0.3839
33223SOL    HW1 4480   8.298   3.785   2.822 -1.7283  0.5036 -1.0366
33223SOL    HW2 4481   8.302   3.848   2.959 -0.6105 -0.5809 -0.5522
33224SOL     OW 4482   0.673   6.291   8.217 -0.8212  0.0983  0.4562
33224SOL    HW1 4483   0.604   6.298   8.151 -3.0482 -0.9606  2.5118
33224SOL    HW2 4484   0.713   6.205   8.202  1.2728  1.3150 -1.7058
33225SOL     OW 4485   6.450  11.947   5.744  0.4609 -0.0260 -0.0955
33225SOL    HW1 4486   6.466  11.973   5.653 -0.9523  2.2472  0.2167
33225SOL    HW2 4487   6.479  12.023   5.795 -0.0985 -0.7004  1.2500
33226SOL     OW 4488   9.323   3.127   0.432 -0.0582  0.4904  0.0174
33226SOL    HW1 4489   9.374   3.174   0.498  0.2093  0.0298  0.1457
33226SOL    HW2 4490   9.348   3.035   0.444 -0.1494  0.3829 -0.6048
33227SOL     OW 4491   7.628   7.217   2.240 -0.4026  0.0701  0.4281
33227SOL    HW1 4492   7.612   7.179   2.327 -2.8144  1.4218  0.6544
33227SOL    HW2 4493   7.601   7.148   2.179 -3.1404  0.6714  0.8288
33228SOL     OW 4494  10.780   7.466   9.388 -0.2576  0.1068 -0.5136
33228SOL    HW1 4495  10.756   7.551   9.426  0.4301  0.1864 -0.2446
33228SOL    HW2 4496  10.866   7.447   9.424 -0.7545 -1.1168  0.1114
33229SOL     OW 4497   0.067   6.480   9.013 -0.0627 -0.2769  0.4275
33229SOL    HW1 4498   0.045   6.504   8.923  0.1534 -1.4441  0.0382
33229SOL    HW2 4499  -0.017   6.464   9.055 -0.2525  1.6694  0.8817
33230SOL     OW 4500   2.054   7.165   9.022  0.1459  0.1019  0.3948
33230SOL    HW1 4501   2.129   7.202   8.976  0.5630  0.0723  1.0320
33230SOL    HW2 4502   2.028   7.089   8.969 -0.5175  1.0898 -0.7446
33231SOL     OW 4503   8.271   2.936   8.603 -0.3192  0.3230  0.6277
33231SOL    HW1 4504   8.344   2.975   8.651  0.6434  0.9545 -1.2267
33231SOL    HW2 4505   8.264   2.847   8.638  0.7701  0.5348  1.4474
33232SOL     OW 4506   1.610   3.713  10.248  0.8068  0.3384  0.3695
33232SOL    HW1 4507   1.602   3.801  10.212  0.9631 -0.5074 -1.9197
33232SOL    HW2 4508   1.520   3.685  10.264  0.3460 -0.6840 -3.2614
33233SOL     OW 4509   1.110   7.479   2.175 -0.0995  0.2154  0.1958
33233SOL    HW1 4510   1.125   7.528   2.256 -0.2503 -0.9880  0.9646
33233SOL    HW2 4511   1.023   7.440   2.185 -0.3590  0.5017 -0.7901
33234SOL     OW 4512   8.798  11.473   2.969  0.2772  0.2870 -0.1796
33234SOL    HW1 4513   8.806  11.415   2.894 -0.8414 -0.4467  0.2431
33234SOL    HW2 4514   8.749  11.549   2.937 -0.7148 -0.2878 -0.0810
33235SOL     OW 4515  12.582   3.704   3.251 -0.2388 -0.3542  0.0566
33235SOL    HW1 4516  12.671   3.684   3.281 -0.6323 -1.3470  0.6153
33235SOL    HW2 4517  12.593   3.727   3.159  0.7063  0.4385  0.3452
33236SOL     OW 4518   2.622  11.101   1.819  0.0187 -0.3852 -0.3377
33236SOL    HW1 4519   2.619  11.016   1.863 -1.0762 -0.4083 -0.4192
33236SOL    HW2 4520   2.530  11.126   1.809  0.2973  2.0617  2.0756
33237SOL     OW 4521   4.464   6.515   6.488  0.4426 -0.0769  0.5692
33237SOL    HW1 4522   4.546   6.520   6.538  0.7437 -0.3708  0.1133
33237SOL    HW2 4523   4.461   6.425   6.455  1.2782  0.6384 -1.6501
33238SOL     OW 4524  10.707   2.138   5.498 -0.6439 -0.7658  0.1355
33238SOL    HW1 4525  10.630   2.166   5.547 -0.3694  0.0797  0.0879
33238SOL    HW2 4526  10.762   2.094   5.564 -0.0550  0.7839  0.7143
33239SOL     OW 4527   5.740   6.849   2.457 -0.0657  0.2339  0.5287
33239SOL    HW1 4528   5.774   6.785   2.394  1.2020  1.4024 -0.0470
33239SOL    HW2 4529   5.787   6.930   2.435 -1.1788  1.2035  1.6146
33240SOL     OW 4530   9.277   8.431   4.107  0.7350 -0.6476 -0.3625
33240SOL    HW1 4531   9.309   8.414   4.196  0.8435  0.8114 -0.0984
33240SOL    HW2 4532   9.187   8.462   4.121  0.8232 -0.2188 -0.7430
33241SOL     OW 4533   8.014   3.954   4.016 -0.2120 -0.5122  0.1416
33241SOL    HW1 4534   7.985   4.036   3.977  2.2747  0.9736  1.1976
33241SOL    HW2 4535   8.105   3.943   3.987 -0.1038 -2.2961  0.9466
33242SOL     OW 4536  12.315  10.029   7.188 -0.3649 -0.6252 -0.1728
33242SOL    HW1 4537  12.249   9.966   7.216 -1.9924  0.2391 -1.8311
33242SOL    HW2 4538  12.268  10.111   7.178  1.0956  0.1802 -0.7922
33243SOL     OW 4539   4.513  10.755   0.653  0.3115 -0.1040 -0.0178
33243SOL    HW1 4540   4.582  10.695   0.624  0.6357  0.4753 -0.4589
33243SOL    HW2 4541   4.432  10.708   0.633  0.5634 -0.4605 -0.2250
33244SOL     OW 4542   1.135   1.645  12.639  0.3030  0.3489 -0.4313
33244SOL    HW1 4543   1.225   1.675  12.630 -0.4411  2.6286 -0.9167
33244SOL    HW2 4544   1.096   1.704  12.703 -0.4580 -1.6522  1.0647
33245SOL     OW 4545   3.164   6.684   7.483 -0.0936 -0.0745 -0.0301
33245SOL    HW1 4546   3.090   6.744   7.494 -0.6943 -0.3302 -2.2626
33245SOL    HW2 4547   3.160   6.626   7.559 -0.9044  1.2374  0.9530
33246SOL     OW 4548   7.181   7.556   3.154  0.0237  0.0646  0.1346
33246SOL    HW1 4549   7.103   7.601   3.189  0.8359  0.9895  0.8263
33246SOL    HW2 4550   7.210   7.612   3.082 -1.0550 -1.3118 -1.4490
33247SOL     OW 4551   6.808   0.300   1.461  0.6367  0.5226  0.3944
33247SOL    HW1 4552   6.798   0.387   1.422  1.3846  0.4693  0.0587
33247SOL    HW2 4553   6.869   0.255   1.402  0.5962 -0.0761  0.8066
33248SOL     OW 4554   4.617   5.561   8.454 -0.2785  0.6279 -0.1022
33248SOL    HW1 4555   4.559   5.550   8.379  0.0456  1.3965 -0.4831
33248SOL    HW2 4556   4.679   5.489   8.448 -0.9791 -0.0112  0.1195
33249SOL     OW 4557  11.569   1.847   5.184 -0.0391 -0.1697 -0.1635
33249SOL    HW1 4558  11.529   1.872   5.100 -1.4448 -0.9754  0.2192
33249SOL    HW2 4559  11.510   1.884   5.250  1.7699  1.6261  0.5624
33250SOL     OW 4560   0.852   2.001   4.727 -0.1189 -0.0740 -0.1954
33250SOL    HW1 4561   0.803   1.920   4.712 -0.7415  0.0395  1.0600
33250SOL    HW2 4562   0.785   2.068   4.735  0.4397  1.0497 -3.4187
33251SOL     OW 4563   5.443   0.886   2.759  0.1770  0.1497  0.3308
33251SOL    HW1 4564   5.365   0.913   2.807  0.0074  1.0498 -0.4063
33251SOL    HW2 4565   5.495   0.967   2.751 -0.5994  0.5039 -2.4507
33252SOL     OW 4566   0.899   8.473  11.968 -0.1278 -0.1560 -0.2614
33252SOL    HW1 4567   0.929   8.563  11.959  2.0888 -0.9319 -1.3361
33252SOL    HW2 4568   0.808   8.481  11.996 -0.1328  2.4048 -0.7522
33253SOL     OW 4569   4.478   9.338   6.524 -0.2722 -0.0499  0.4618
33253SOL    HW1 4570   4.470   9.430   6.498 -1.6642  0.1779  1.5471
33253SOL    HW2 4571   4.522   9.341   6.609 -0.3818 -0.3719  0.5282
33254SOL     OW 4572   2.654   5.680   3.136  0.0985  0.0329 -0.0606
33254SOL    HW1 4573   2.673   5.768   3.167 -0.9162 -0.8336  3.5205
33254SOL    HW2 4574   2.740   5.644   3.113  0.8986  1.0323  1.2145
33255SOL     OW 4575   6.182   7.718  11.255 -0.3617  0.4154  0.0186
33255SOL    HW1 4576   6.163   7.736  11.347 -0.7739  1.9352 -0.3372
33255SOL    HW2 4577   6.277   7.719  11.249 -0.2489 -1.4090  0.7147
33256SOL     OW 4578   3.421   2.228   6.945  0.2273  0.2228  0.1282
33256SOL    HW1 4579   3.413   2.319   6.971  1.1757  0.8046 -1.4313
33256SOL    HW2 4580   3.350   2.215   6.882  0.9641  0.3442 -0.7545
33257SOL     OW 4581   3.361  12.486   8.016 -0.2583 -0.0557 -0.0011
33257SOL    HW1 4582   3.324  12.399   8.032  0.3753 -0.1779  0.7945
33257SOL    HW2 4583   3.335  12.505   7.925 -0.6570 -0.9394 -0.0909
33258SOL     OW 4584   0.294   1.869   8.103 -0.0508  0.1498 -0.1244
33258SOL    HW1 4585   0.349   1.823   8.040  0.7735  0.8552  0.0559
33258SOL    HW2 4586   0.251   1.800   8.153  0.3991 -0.4143 -0.5125
33259SOL     OW 4587   6.934   2.282   3.278 -0.5671 -0.1128 -0.1285
33259SOL    HW1 4588   6.993   2.288   3.202 -1.5950  1.3653 -0.8616
33259SOL    HW2 4589   6.933   2.189   3.300  2.0783 -0.1950 -0.0415
33260SOL     OW 4590   1.850   1.542   0.533  0.0477  0.3698  0.0345
33260SOL    HW1 4591   1.848   1.638   0.525  2.0797  0.6171  1.5711
33260SOL    HW2 4592   1.940   1.523   0.560  0.6015 -2.2759 -3.1289
33261SOL     OW 4593   1.152   1.641   8.480  0.5454  0.1781 -0.2901
33261SOL    HW1 4594   1.155   1.736   8.494  1.3644  0.2685 -1.0379
33261SOL    HW2 4595   1.059   1.620   8.481  0.3599  0.9667  0.0307
33262SOL     OW 4596  10.337   7.141   7.854  0.1343  0.5739 -0.1283
33262SOL    HW1 4597  10.259   7.194   7.836 -0.3584  0.2341  0.9185
33262SOL    HW2 4598  10.353   7.154   7.948 -0.1137 -1.2465  0.2113
33263SOL     OW 4599   6.428   1.830   9.769  0.6160 -0.1136  0.0514
33263SOL    HW1 4600   6.351   1.846   9.714  0.6372 -1.6562 -0.4937
33263SOL    HW2 4601   6.391   1.799   9.852  0.5877 -2.2563 -0.6805
33264SOL     OW 4602   4.153   6.019   0.031  0.2774 -0.0123 -0.3812
33264SOL    HW1 4603   4.091   5.954  -0.001 -0.9929  1.3144 -0.7192
33264SOL    HW2 4604   4.203   6.044  -0.047  0.9659 -0.7654 -0.1939
33265SOL     OW 4605   1.751   5.462  10.378  0.4212 -0.3936 -0.2105
33265SOL    HW1 4606   1.714   5.377  10.401  0.7936 -0.3772  0.4564
33265SOL    HW2 4607   1.751   5.512  10.459  1.3084 -0.1686 -0.3430
33266SOL     OW 4608   8.201  10.738   2.023 -0.3499 -0.1794  0.1463
33266SOL    HW1 4609   8.157  10.688   2.092  0.4043 -0.3815  0.4971
33266SOL    HW2 4610   8.289  10.700   2.018  0.1414  0.8866  0.2053
33267SOL     OW 4611   8.637   0.578   6.950 -0.1729 -0.0098  0.0565
33267SOL    HW1 4612   8.622   0.575   6.856  1.5946 -0.2492 -0.2605
33267SOL    HW2 4613   8.619   0.488   6.979  0.7528 -0.3330 -0.3295
33268SOL     OW 4614  11.110   4.186  11.426 -0.1466 -0.8199 -0.1171
33268SOL    HW1 4615  11.200   4.216  11.412  0.2090 -0.8599  1.8070
33268SOL    HW2 4616  11.109   4.097  11.391  0.0539 -0.2255 -1.7207
33269SOL     OW 4617  12.496   3.861  12.568 -0.0372 -0.3773  0.0416
33269SOL    HW1 4618  12.401   3.876  12.564  0.1341  0.6594 -0.3049
33269SOL    HW2 4619  12.514   3.803  12.494 -0.1144  1.1218 -1.2177
33270SOL     OW 4620   0.450  11.620   7.762  0.4001  0.4985 -0.4006
33270SOL    HW1 4621   0.426  11.675   7.688  0.3509  0.3942 -0.4615
33270SOL    HW2 4622   0.543  11.601   7.749  0.1614 -0.3524 -0.9796
33271SOL     OW 4623   7.977   7.029   8.387 -0.1136 -0.7306 -0.5415
33271SOL    HW1 4624   7.998   6.944   8.349 -1.2190  0.0132 -3.0367
33271SOL    HW2 4625   8.062   7.071   8.401  0.4255 -2.0746  0.4175
33272SOL     OW 4626   4.188   4.556   8.797  0.3818  0.4320  0.1733
33272SOL    HW1 4627   4.129   4.562   8.722 -1.8715 -1.7576  1.6034
33272SOL    HW2 4628   4.270   4.593   8.766 -0.6354  0.2412 -3.1475
33273SOL     OW 4629   9.251   2.607   0.777 -0.1468 -0.5731  0.2282
33273SOL    HW1 4630   9.220   2.606   0.868  0.2164  0.7536  0.3784
33273SOL    HW2 4631   9.219   2.524   0.740 -2.5154 -0.0092  0.8339
33274SOL     OW 4632   7.368   4.420  10.596  0.1389 -0.6073 -0.2724
33274SOL    HW1 4633   7.342   4.392  10.508 -0.6611  0.1678 -0.3056
33274SOL    HW2 4634   7.298   4.387  10.653  0.9974 -1.6775  0.1705
33275SOL     OW 4635   3.830   6.117   9.138  0.1438 -0.0160 -0.6631
33275SOL    HW1 4636   3.860   6.036   9.095 -0.0638 -0.3134 -0.2584
33275SOL    HW2 4637   3.885   6.125   9.215  0.0495  0.1383 -0.6122
33276SOL     OW 4638   3.002   9.502  11.697 -0.0492 -0.2031  0.0665
33276SOL    HW1 4639   3.058   9.426  11.714  0.8591  0.5949  0.7859
33276SOL    HW2 4640   3.025   9.564  11.767 -1.1613  0.5176 -0.1886
33277SOL     OW 4641   4.066   4.206  12.016 -1.0652  0.5910  0.6175
33277SOL    HW1 4642   4.143   4.206  11.958 -2.3725  2.1563 -1.2542
33277SOL    HW2 4643   4.063   4.294  12.052 -2.2247  0.6981  0.2956
33278SOL     OW 4644   1.994   4.341   1.727 -0.4167 -0.5142  0.5547
33278SOL    HW1 4645   2.032   4.265   1.770 -0.2500 -1.1203 -0.6261
33278SOL    HW2 4646   2.068   4.388   1.689 -0.7077 -0.9761 -0.6130
33279SOL     OW 4647   2.838   5.632   9.358 -0.3406 -0.2296  0.0602
33279SOL    HW1 4648   2.756   5.679   9.373 -0.8074 -1.0021  0.0028
33279SOL    HW2 4649   2.816   5.540   9.371  0.5951 -0.4282  0.3631
33280SOL     OW 4650   7.017   2.497   1.649 -0.7503 -0.1869  0.2655
33280SOL    HW1 4651   7.028   2.499   1.554  2.9879  0.1739  0.5696
33280SOL    HW2 4652   7.048   2.583   1.679  2.0312 -1.6450  1.9867
33281SOL     OW 4653  11.943   7.717   7.595  0.1289  0.1120  0.2649
33281SOL    HW1 4654  12.030   7.706   7.555  0.6577  0.9799  1.1371
33281SOL    HW2 4655  11.904   7.790   7.548  0.4261  0.6081  0.7819
33282SOL     OW 4656   6.372  10.681  10.915 -0.0129 -0.4936  0.4298
33282SOL    HW1 4657   6.320  10.605  10.889 -1.0263  0.1167  0.5825
33282SOL    HW2 4658   6.440  10.688  10.848 -0.7016 -0.7631 -0.3137
33283SOL     OW 4659   1.645  12.610   9.163  0.3437 -0.0443  0.5926
33283SOL    HW1 4660   1.590  12.677   9.122 -1.9044 -2.2955 -0.3823
33283SOL    HW2 4661   1.630  12.621   9.257 -1.4225 -0.2198  0.3783
33284SOL     OW 4662   4.551   1.491   1.978 -0.5544 -0.1126  0.0530
33284SOL    HW1 4663   4.602   1.410   1.982  0.7144  0.6641  0.4315
33284SOL    HW2 4664   4.483   1.474   1.913 -0.5570 -1.6062  0.4120
33285SOL     OW 4665  10.392   1.584   1.185 -0.2110  0.4986  0.0842
33285SOL    HW1 4666  10.474   1.549   1.220 -0.6757  0.3158  1.0177
33285SOL    HW2 4667  10.415   1.670   1.151 -0.0477  1.4240  2.3797
33286SOL     OW 4668   3.403   0.504  11.559  0.3685 -0.4859  0.5197
33286SOL    HW1 4669   3.471   0.548  11.608  0.9480 -0.6193 -0.1465
33286SOL    HW2 4670   3.434   0.504  11.468 -1.7906  2.0526 -0.3725
33287SOL     OW 4671   8.995   7.248  10.895 -0.2006  0.3540 -0.2914
33287SOL    HW1 4672   8.987   7.157  10.866  1.7260  0.5986 -1.7715
33287SOL    HW2 4673   9.021   7.296  10.817 -0.3426  2.0568  0.6545
33288SOL     OW 4674   8.077   1.437  10.880  0.2346 -0.0873  0.1757
33288SOL    HW1 4675   8.164   1.410  10.851 -0.0941 -0.4677 -0.4722
33288SOL    HW2 4676   8.017   1.379  10.834 -0.2805 -1.8692  2.8241
33289SOL     OW 4677  10.970   6.775   4.904 -0.4615  0.0368  0.7588
33289SOL    HW1 4678  10.950   6.810   4.991 -2.6116  2.1508 -0.4316
33289SOL    HW2 4679  10.886   6.780   4.858  0.3493 -2.1581 -1.0873
33290SOL     OW 4680   7.229   9.783  11.069 -0.1243  0.3939  0.0233
33290SOL    HW1 4681   7.269   9.842  11.133  0.4780  1.0771 -0.9501
33290SOL    HW2 4682   7.165   9.838  11.024 -1.6866 -0.4922  1.0670
33291SOL     OW 4683  11.847   3.271   9.637  0.8439  0.6317 -0.2076
33291SOL    HW1 4684  11.812   3.344   9.587  1.1491  1.2430  0.4573
33291SOL    HW2 4685  11.852   3.199   9.573 -4.1142 -0.4060  0.1495
33292SOL     OW 4686   2.493   3.381   2.437 -0.0113 -0.1313  0.0985
33292SOL    HW1 4687   2.440   3.311   2.401  0.2555  0.2177 -1.0524
33292SOL    HW2 4688   2.446   3.461   2.413  1.2625  0.2142 -1.4605
33293SOL     OW 4689   4.716   3.312  12.173 -0.0541  0.0686  0.8322
33293SOL    HW1 4690   4.730   3.376  12.242  0.7941 -1.4275  2.1127
33293SOL    HW2 4691   4.695   3.231  12.219 -1.0282 -0.6315 -0.7245
33294SOL     OW 4692  12.098   7.104   3.148 -0.0773 -0.5901 -0.6113
33294SOL    HW1 4693  12.029   7.152   3.104  0.9080 -0.1926 -1.7737
33294SOL    HW2 4694  12.118   7.031   3.089  1.3697  0.0396 -0.9621
33295SOL     OW 4695  11.773  12.246   4.700  0.7484  0.2087 -0.3614
33295SOL    HW1 4696  11.833  12.265   4.628  1.1538 -0.7904 -0.2979
33295SOL    HW2 4697  11.829  12.237   4.777  0.7275 -2.2823 -0.5820
33296SOL     OW 4698   5.437  10.968   2.275 -0.3536 -0.4511  0.6363
33296SOL    HW1 4699   5.407  10.894   2.328  0.4448 -1.4235 -0.2209
33296SOL    HW2 4700   5.407  10.948   2.186 -0.4321  0.4401  0.4531
33297SOL     OW 4701  10.045   9.449   6.711  0.2163  0.5454 -0.7326
33297SOL    HW1 4702  10.029   9.536   6.747  0.1700 -0.0931  0.8862
33297SOL    HW2 4703  10.067   9.464   6.619 -0.2346  2.2146 -0.5931
33298SOL     OW 4704   4.416   5.545   5.703 -0.2141  0.4995  0.3935
33298SOL    HW1 4705   4.502   5.503   5.708 -0.6264 -0.4524 -0.1386
33298SOL    HW2 4706   4.409   5.574   5.612 -0.6116  0.2026  0.3247
33299SOL     OW 4707  10.249   3.356   0.803 -0.0840  0.0909  0.1877
33299SOL    HW1 4708  10.242   3.281   0.745 -1.3361  1.4188 -1.5017
33299SOL    HW2 4709  10.217   3.325   0.888 -2.0759 -0.9034 -0.8576
33300SOL     OW 4710   1.374   0.488   5.183 -0.2608 -0.2507  0.2689
33300SOL    HW1 4711   1.385   0.567   5.130 -0.8729 -1.9926 -2.6817
33300SOL    HW2 4712   1.451   0.486   5.239  0.7299  1.4485 -0.9376
33301SOL     OW 4713  11.314   5.171  12.499 -0.2736 -0.1400 -0.2105
33301SOL    HW1 4714  11.222   5.173  12.476  0.2523  2.1018 -2.6324
33301SOL    HW2 4715  11.339   5.079  12.492 -2.3148 -0.8181  0.7101
33302SOL     OW 4716   7.111   0.268   0.270  0.4955  0.0290  0.4797
33302SOL    HW1 4717   7.071   0.274   0.183 -1.4487 -1.9151  1.1601
33302SOL    HW2 4718   7.173   0.341   0.272 -1.7084  2.1372 -1.3294
33303SOL     OW 4719  11.075   2.138   6.074 -0.0284  0.3165 -0.1829
33303SOL    HW1 4720  10.988   2.141   6.115 -0.8352  0.5093 -1.8259
33303SOL    HW2 4721  11.095   2.230   6.054  1.7611  0.6070  2.4841
33304SOL     OW 4722  12.553   3.640   4.971 -0.5039 -0.2049 -0.3199
33304SOL    HW1 4723  12.516   3.728   4.963 -0.9170 -0.5394 -2.6184
33304SOL    HW2 4724  12.633   3.653   5.023 -0.7396  1.4541 -0.2974
33305SOL     OW 4725   3.385   3.705   8.363  0.0301  0.4359 -0.5011
33305SOL    HW1 4726   3.376   3.629   8.305 -0.2574 -0.5633  0.7878
33305SOL    HW2 4727   3.298   3.718   8.401  0.0812  1.4132 -0.6917
33306SOL     OW 4728  10.198   3.708   8.032 -0.2502  0.0734 -1.1083
33306SOL    HW1 4729  10.218   3.796   8.062 -4.3331  1.4769 -1.8618
33306SOL    HW2 4730  10.181   3.717   7.939 -1.1126 -1.4250 -1.1311
33307SOL     OW 4731  10.656   4.476   9.016  0.0542 -0.9964  0.0326
33307SOL    HW1 4732  10.578   4.513   8.975  0.8209  0.6885  0.0288
33307SOL    HW2 4733  10.637   4.382   9.022 -1.9301 -0.6450 -0.0182
33308SOL     OW 4734   4.755   6.715  11.482 -0.2102  0.1952 -0.3507
33308SOL    HW1 4735   4.726   6.640  11.431 -0.2306 -0.2198  0.2673
33308SOL    HW2 4736   4.817   6.761  11.424 -0.8758  0.2067 -1.0668
33309SOL     OW 4737  12.252   4.378   9.699  0.5907 -0.5645 -0.2342
33309SOL    HW1 4738  12.189   4.404   9.631  0.3811  1.1150  0.5566
33309SOL    HW2 4739  12.199   4.327   9.761  0.6748 -1.6717 -1.0412
33310SOL     OW 4740   9.005   4.172   8.089  0.0718 -0.0465 -0.5782
33310SOL    HW1 4741   9.059   4.233   8.040 -0.8013  0.3395 -1.0708
33310SOL    HW2 4742   9.043   4.173   8.178  1.0589 -0.0340 -0.9847
33311SOL     OW 4743   8.192   8.450   0.512  0.2133 -0.6638 -0.2807
33311SOL    HW1 4744   8.217   8.541   0.498 -2.5042 -0.0009 -1.6756
33311SOL    HW2 4745   8.271   8.399   0.493  1.0411  1.2635 -2.4344
33312SOL     OW 4746  12.199   1.224   4.157 -0.2571  0.3903 -0.5961
33312SOL    HW1 4747  12.198   1.275   4.238 -0.5076  2.2511 -1.7308
33312SOL    HW2 4748  12.107   1.210   4.136 -0.2007 -1.1152  0.0124
33313SOL     OW 4749   1.170   5.865   0.957  0.0218 -0.3210  0.0483
33313SOL    HW1 4750   1.182   5.932   1.024 -0.1429 -0.7063  0.4680
33313SOL    HW2 4751   1.132   5.912   0.883 -1.2302 -0.1655  0.7687
33314SOL     OW 4752   4.755   0.661   8.708  0.0531 -0.2174 -0.4643
33314SOL    HW1 4753   4.784   0.750   8.729 -0.6736  0.0716 -0.6362
33314SOL    HW2 4754   4.751   0.616   8.792 -1.2245  0.4350 -0.1438
33315SOL     OW 4755   8.064  12.189   6.934  0.9113 -0.0955  0.5379
33315SOL    HW1 4756   8.145  12.138   6.936  0.3880 -1.0062 -0.4056
33315SOL    HW2 4757   8.011  12.147   6.866 -0.4367  0.3451  1.2749
33316SOL     OW 4758   6.927  10.617   5.974 -0.5973  0.1957  0.4206
33316SOL    HW1 4759   6.944  10.601   6.067 -1.0695 -1.2130  0.2937
33316SOL    HW2 4760   6.983  10.554   5.928  0.2122  1.3991 -0.3027
33317SOL     OW 4761  10.532   0.302   7.242  0.0736  0.0856  0.0144
33317SOL    HW1 4762  10.620   0.339   7.233 -0.1685  0.5772 -0.3477
33317SOL    HW2 4763  10.548   0.209   7.262  0.6744  0.2493  0.3305
33318SOL     OW 4764   7.021   7.554  11.817 -0.4273  0.0843  0.2498
33318SOL    HW1 4765   6.955   7.505  11.769 -0.3613 -0.4617  0.7129
33318SOL    HW2 4766   6.990   7.553  11.908  0.8356 -1.2453  0.6968
33319SOL     OW 4767   5.485   2.704   6.906  0.5315  0.3581  0.1328
33319SOL    HW1 4768   5.506   2.612   6.919  1.3638  0.7576  1.8938
33319SOL    HW2 4769   5.561   2.740   6.860  0.9230  0.4846  0.8668
33320SOL     OW 4770   2.336   5.579   2.672 -0.3273  0.3523  0.0750
33320SOL    HW1 4771   2.293   5.644   2.729 -3.2088 -1.4904  0.2101
33320SOL    HW2 4772   2.348   5.502   2.728 -1.2993 -0.7835 -1.2041
33321SOL     OW 4773  10.794   5.367  10.734 -0.4309  0.1942 -0.2359
33321SOL    HW1 4774  10.811   5.277  10.706  0.7594  0.4112 -0.2313
33321SOL    HW2 4775  10.861   5.419  10.690 -0.6787  0.9943  0.3167
33322SOL     OW 4776   3.813  12.272   1.930 -0.1097  0.3897 -0.2930
33322SOL    HW1 4777   3.867  12.226   1.865  1.8357  1.9498  0.1065
33322SOL    HW2 4778   3.739  12.307   1.880  1.3509  1.5595 -1.7481
33323SOL     OW 4779   2.573   9.402  11.597  0.7955 -0.2213  0.6394
33323SOL    HW1 4780   2.651   9.383  11.649  1.0247  2.2886  1.3624
33323SOL    HW2 4781   2.518   9.454  11.655 -1.7250 -2.3365  0.3184
33324SOL     OW 4782   1.587   1.856   0.313 -0.0490 -0.1144  0.2322
33324SOL    HW1 4783   1.537   1.931   0.345  1.2200  1.0668 -0.4891
33324SOL    HW2 4784   1.616   1.811   0.393 -1.2247 -0.1537  0.6632
33325SOL     OW 4785   0.788  12.242  11.252  0.1431 -0.3977 -0.0041
33325SOL    HW1 4786   0.697  12.222  11.274 -0.8047  1.6401 -1.7457
33325SOL    HW2 4787   0.797  12.335  11.273  2.0560 -0.7046  0.7316
33326SOL     OW 4788   9.935   6.242   5.834 -0.1344  0.3245  0.2718
33326SOL    HW1 4789   9.961   6.298   5.907 -0.5200 -0.1180  0.7570
33326SOL    HW2 4790   9.956   6.153   5.863  0.4120  0.1989 -0.4608
33327SOL     OW 4791  12.602   7.823   0.036  0.5019 -0.4714  0.3676
33327SOL    HW1 4792  12.659   7.767  -0.017 -0.8857 -0.7328 -0.9329
33327SOL    HW2 4793  12.538   7.857  -0.027 -0.8159 -0.2591  1.7744
33328SOL     OW 4794   0.777  10.339   3.654 -0.1683 -0.1909  0.1259
33328SOL    HW1 4795   0.732  10.281   3.594  2.3598 -1.5287 -0.5969
33328SOL    HW2 4796   0.785  10.422   3.607  1.2328 -1.0408 -1.2149
33329SOL     OW 4797  11.318  11.787   9.671 -0.3495  0.3278  0.3051
33329SOL    HW1 4798  11.263  11.717   9.706  1.5765 -1.6216 -0.3210
33329SOL    HW2 4799  11.261  11.864   9.669 -3.3381 -1.7279 -1.1706
33330SOL     OW 4800   2.047  11.238   2.481  0.0077  0.6946 -0.3469
33330SOL    HW1 4801   2.035  11.227   2.387  0.6717 -2.2814 -0.1570
33330SOL    HW2 4802   1.963  11.215   2.519  0.4366 -0.5986 -0.1223
33331SOL     OW 4803   7.833   6.135  10.674 -0.4316  0.0748  0.0653
33331SOL    HW1 4804   7.867   6.212  10.629  0.5092 -0.5943 -0.4203
33331SOL    HW2 4805   7.741   6.130  10.648 -0.1854  0.3429 -0.8838
33332SOL     OW 4806   4.979   6.131   3.314  0.2295  0.4741 -0.3978
33332SOL    HW1 4807   5.053   6.091   3.268 -0.1862 -0.7260 -0.0761
33332SOL    HW2 4808   4.903   6.082   3.283  0.1279 -1.9399  3.0603
33333SOL     OW 4809   4.245   5.527   2.500  0.1575  0.0379  0.4736
33333SOL    HW1 4810   4.189   5.486   2.434  1.9289 -1.2402 -0.3144
33333SOL    HW2 4811   4.184   5.573   2.558 -1.7156 -1.4716 -0.1915
33334SOL     OW 4812  10.493   2.817   8.467  0.2034  0.4982 -0.5352
33334SOL    HW1 4813  10.418   2.856   8.422  0.4913  0.5128 -1.0094
33334SOL    HW2 4814  10.561   2.885   8.464  0.2064  0.5188 -0.0300
33335SOL     OW 4815   8.388   2.262  11.925 -0.4448 -0.1878  0.1353
33335SOL    HW1 4816   8.375   2.355  11.939  0.2950 -0.1365  0.5288
33335SOL    HW2 4817   8.303   2.222  11.946 -1.3028  0.5402 -1.6904
33336SOL     OW 4818   1.996   5.209   5.003 -0.3932  0.1181  0.2468
33336SOL    HW1 4819   1.959   5.294   5.025 -0.3524 -0.1493  1.4532
33336SOL    HW2 4820   1.931   5.168   4.947 -0.5260  0.8436 -0.1368
33337SOL     OW 4821  11.306   8.798   3.380 -0.7493 -0.2104 -0.0968
33337SOL    HW1 4822  11.379   8.835   3.430 -0.5877 -1.8017  0.9016
33337SOL    HW2 4823  11.241   8.869   3.378  1.1434  1.6243 -1.8846
33338SOL     OW 4824   3.728  10.626   1.358  0.0704  0.6465  0.0221
33338SOL    HW1 4825   3.703  10.544   1.316 -0.4240  0.5979  0.4065
33338SOL    HW2 4826   3.786  10.668   1.295 -0.6524  0.5758 -0.6985
33339SOL     OW 4827  11.254  11.727  10.884  0.6048 -0.4879  0.2915
33339SOL    HW1 4828  11.300  11.797  10.840  0.7625 -0.3512  0.6671
33339SOL    HW2 4829  11.163  11.755  10.887  0.8820  0.3824  1.7109
33340SOL     OW 4830   8.624   6.968  10.442  0.3001  0.2184 -0.5681
33340SOL    HW1 4831   8.688   7.034  10.417 -0.2565  0.5424 -1.1860
33340SOL    HW2 4832   8.542   6.997  10.401 -0.7732  0.9525  1.8973
33341SOL     OW 4833  11.072   1.169   4.679  0.7561 -0.1900 -0.1315
33341SOL    HW1 4834  11.117   1.187   4.761  0.7160 -0.7117  0.0059
33341SOL    HW2 4835  11.103   1.082   4.652  1.1416  0.1837 -0.9220
33342SOL     OW 4836   9.680   0.245   0.957 -0.3741 -0.4672 -0.3124
33342SOL    HW1 4837   9.682   0.275   1.048 -0.0599  1.4060 -0.9020
33342SOL    HW2 4838   9.773   0.239   0.932 -0.4354 -1.7915 -0.2795
33343SOL     OW 4839   6.504  11.671   5.317  0.2166 -0.0237  0.1691
33343SOL    HW1 4840   6.589  11.680   5.360  0.0818 -1.6197  0.8486
33343SOL    HW2 4841   6.440  11.690   5.386 -0.0127  0.9690 -0.2868
33344SOL     OW 4842   5.067   2.713   5.952 -0.0217  0.1730  0.2744
33344SOL    HW1 4843   5.132   2.649   5.924 -0.2806  0.4675 -1.0714
33344SOL    HW2 4844   5.116   2.776   6.005  0.8133  0.3958 -0.7241
33345SOL     OW 4845   7.559   4.856   1.369 -0.0518 -0.2463 -0.3265
33345SOL    HW1 4846   7.508   4.778   1.348 -1.2033  0.6274 -0.9099
33345SOL    HW2 4847   7.567   4.854   1.464  1.4813 -1.9776 -0.4397
33346SOL     OW 4848  11.574   0.399  10.174  0.2540 -0.1720 -0.2482
33346SOL    HW1 4849  11.499   0.342  10.161  0.1539  0.0462 -0.6542
33346SOL    HW2 4850  11.563   0.468  10.108  0.2022  0.4905  0.4427
33347SOL     OW 4851   1.238   1.835   0.610 -0.4174 -0.4036 -0.2671
33347SOL    HW1 4852   1.242   1.867   0.700 -0.0293 -0.8975 -0.1032
33347SOL    HW2 4853   1.273   1.907   0.557 -3.4368  1.1389 -0.3825
33348SOL     OW 4854   8.620   6.809   4.138  0.2611  0.2704  0.6675
33348SOL    HW1 4855   8.579   6.866   4.204 -1.0662 -0.5312  0.5670
33348SOL    HW2 4856   8.622   6.723   4.179  1.8233  0.2628  0.6338
33349SOL     OW 4857  12.337   3.620   3.759  0.5407 -0.0384  0.0809
33349SOL    HW1 4858  12.244   3.611   3.780  0.6870 -2.3994 -0.0786
33349SOL    HW2 4859  12.368   3.531   3.744  2.1084  0.8983 -3.1565
33350SOL     OW 4860   0.645  10.851   8.435  0.4952 -0.7962 -0.2455
33350SOL    HW1 4861   0.682  10.939   8.432 -1.4670  0.0658 -0.3476
33350SOL    HW2 4862   0.677  10.809   8.355  1.0644 -0.0381 -0.4367
33351SOL     OW 4863   6.570   2.137  12.290 -0.4461  0.4303  0.0025
33351SOL    HW1 4864   6.536   2.100  12.372 -1.3202 -0.6249 -0.8036
33351SOL    HW2 4865   6.494   2.137  12.231  0.7101 -1.0786 -1.5636
33352SOL     OW 4866   7.461  12.051   5.844  0.0882 -0.1305  0.9233
33352SOL    HW1 4867   7.530  12.116   5.852 -0.1059 -0.0827  2.4122
33352SOL    HW2 4868   7.430  12.061   5.754 -0.2045  2.1130  1.2090
33353SOL     OW 4869   6.316   4.237   6.698  0.1527  0.9221  0.5172
33353SOL    HW1 4870   6.340   4.192   6.779 -2.2657  0.1083  0.8770
33353SOL    HW2 4871   6.336   4.175   6.628  0.4121  0.8253  0.6795
33354SOL     OW 4872  11.621   5.931   4.952 -0.2259  0.3115  0.2745
33354SOL    HW1 4873  11.639   6.024   4.944 -1.3694  0.5145 -0.2234
33354SOL    HW2 4874  11.649   5.908   5.041  0.2445  1.0782  0.3292
33355SOL     OW 4875   7.166   4.633   1.973  0.1231  0.5057  0.6394
33355SOL    HW1 4876   7.115   4.559   1.941  0.2779 -0.7586  3.0710
33355SOL    HW2 4877   7.107   4.709   1.963 -1.8484 -0.7145  2.2757
33356SOL     OW 4878  12.380   2.856   5.272 -0.0674 -0.0856  0.2047
33356SOL    HW1 4879  12.402   2.884   5.183  1.3044 -0.0989  0.5310
33356SOL    HW2 4880  12.418   2.922   5.328  1.8058 -1.6857  0.9161
33357SOL     OW 4881   6.519   8.782   8.902 -0.3717  0.6763  0.7627
33357SOL    HW1 4882   6.586   8.743   8.845  1.2734 -1.0470  3.6132
33357SOL    HW2 4883   6.557   8.867   8.927 -0.5217  0.8820  0.3093
33358SOL     OW 4884   9.459   6.885   4.000 -0.0813 -0.5669 -0.0009
33358SOL    HW1 4885   9.485   6.893   3.908 -0.3680 -0.3424 -0.0642
33358SOL    HW2 4886   9.391   6.951   4.011  1.4605  0.9297  0.9344
33359SOL     OW 4887   1.199   8.102   5.458 -0.0564 -0.5312  0.0619
33359SOL    HW1 4888   1.206   8.027   5.398 -1.1324 -0.7059  0.1264
33359SOL    HW2 4889   1.113   8.140   5.438 -0.8296 -1.1072  2.0433
33360SOL     OW 4890   4.348   6.952   8.075  0.1986 -0.5098 -0.1138
33360SOL    HW1 4891   4.334   6.902   8.156 -0.1451 -1.8905 -0.9906
33360SOL    HW2 4892   4.289   6.911   8.012  1.2999 -0.2096 -1.3664
33361SOL     OW 4893   2.265  11.151   5.968 -0.2141  0.2159 -0.1023
33361SOL    HW1 4894   2.318  11.071   5.969 -0.3330  0.1167 -0.8568
33361SOL    HW2 4895   2.188  11.127   5.917  0.7194  1.4031 -2.1809
33362SOL     OW 4896   8.639   1.256   0.699  0.0749  0.2735 -0.1596
33362SOL    HW1 4897   8.711   1.285   0.643 -0.0231 -0.4406 -0.6784
33362SOL    HW2 4898   8.629   1.325   0.764 -0.0534  1.2984 -1.2431
33363SOL     OW 4899   5.265   2.735   6.543  0.1850  0.4352  0.0617
33363SOL    HW1 4900   5.218   2.754   6.624  1.9078  0.8565  1.0045
33363SOL    HW2 4901   5.355   2.761   6.560  0.3905  1.6812 -2.3934
33364SOL     OW 4902   5.902   2.317  11.707 -0.2344  0.7384  0.0782
33364SOL    HW1 4903   5.809   2.337  11.722 -0.1106  2.6734 -1.3422
33364SOL    HW2 4904   5.945   2.402  11.710  1.8801 -0.2617  2.6492
33365SOL     OW 4905   6.226   1.312   4.276 -0.1804  0.4355 -0.4028
33365SOL    HW1 4906   6.154   1.368   4.247 -1.1751 -1.2154 -1.2600
33365SOL    HW2 4907   6.271   1.288   4.196 -0.0741 -0.3972 -0.0971
33366SOL     OW 4908  11.704   3.803   3.341  0.6861  0.2038 -0.0121
33366SOL    HW1 4909  11.619   3.833   3.374 -0.2295 -1.2582 -0.9089
33366SOL    HW2 4910  11.749   3.884   3.315 -0.3584  1.0264  0.6238
33367SOL     OW 4911   1.740   9.648   2.547 -0.1461  0.4916 -0.1326
33367SOL    HW1 4912   1.832   9.675   2.548  0.1906 -0.5781 -0.1906
33367SOL    HW2 4913   1.726   9.609   2.633  0.1716 -1.5142 -0.9255
33368SOL     OW 4914   9.667  10.484   0.318  0.0896  0.1596  0.0332
33368SOL    HW1 4915   9.589  10.430   0.308  1.3275 -1.8559  0.6466
33368SOL    HW2 4916   9.714  10.445   0.392  0.8139  2.4332  0.8402
33369SOL     OW 4917   5.780   6.045   3.125 -0.0707  0.1968  0.1984
33369SOL    HW1 4918   5.747   6.098   3.052  0.6855  0.9611  0.3811
33369SOL    HW2 4919   5.826   6.109   3.180  0.2402 -0.5478  0.8060
33370SOL     OW 4920   3.479   9.028   8.647  0.0901 -0.0336  0.5738
33370SOL    HW1 4921   3.480   8.997   8.556 -1.0503  0.0683  0.5051
33370SOL    HW2 4922   3.388   9.056   8.661  0.6744  1.7211  1.1434
33371SOL     OW 4923   9.649   6.691  11.913  0.8842  0.4657 -0.3441
33371SOL    HW1 4924   9.596   6.694  11.993 -2.0926 -1.9955 -1.9721
33371SOL    HW2 4925   9.722   6.633  11.935  0.4328  0.2913  0.7770
33372SOL     OW 4926  11.569  11.000   7.706  0.4730  0.2415  0.0972
33372SOL    HW1 4927  11.487  11.016   7.753  0.2165  1.2751 -0.6773
33372SOL    HW2 4928  11.621  11.078   7.721  0.8525  0.0798 -0.3695
33373SOL     OW 4929  12.302   8.633   9.981 -0.0029  0.1152  0.0165
33373SOL    HW1 4930  12.286   8.703  10.044 -1.4033  0.2425 -0.4577
33373SOL    HW2 4931  12.216   8.609   9.948  0.6401 -0.3062 -1.4629
33374SOL     OW 4932   0.452   7.108   3.673 -0.3264  0.1348 -0.2180
33374SOL    HW1 4933   0.379   7.150   3.718 -0.4302 -1.7942  1.6093
33374SOL    HW2 4934   0.415   7.028   3.636  0.8389 -0.9638  0.8879
33375SOL     OW 4935   5.113   4.844   1.625 -0.0756  0.1287  0.2979
33375SOL    HW1 4936   5.037   4.804   1.667 -0.3351  1.3535  1.0486
33375SOL    HW2 4937   5.175   4.858   1.696  0.3022  0.3684 -0.0730
33376SOL     OW 4938   6.290   6.959   2.815 -0.5566  0.4390 -0.2631
33376SOL    HW1 4939   6.272   6.878   2.768 -1.9429  0.9211 -0.5823
33376SOL    HW2 4940   6.382   6.950   2.843 -0.8776 -1.5365  0.3198
33377SOL     OW 4941  10.851  11.510   5.384 -0.1159 -0.0494  0.3254
33377SOL    HW1 4942  10.793  11.434   5.376  0.2476 -0.2043 -1.3064
33377SOL    HW2 4943  10.939  11.474   5.373  0.0152  0.6520 -1.2830
33378SOL     OW 4944   7.076   2.500   6.521 -0.1874 -0.3780  0.1297
33378SOL    HW1 4945   6.986   2.518   6.546  0.0560 -0.6068  1.2442
33378SOL    HW2 4946   7.070   2.445   6.444 -0.9952 -0.0580 -0.0377
33379SOL     OW 4947   7.419   0.363  12.609 -0.0785  0.0828  0.7145
33379SOL    HW1 4948   7.434   0.281  12.562 -0.8270  0.2894  0.0868
33379SOL    HW2 4949   7.327   0.384  12.592 -0.1664  0.5290  1.7059
33380SOL     OW 4950  10.369   7.298   5.800 -0.2889  0.3401 -0.2218
33380SOL    HW1 4951  10.292   7.242   5.787  0.3729 -0.6667  0.1208
33380SOL    HW2 4952  10.429   7.273   5.730  0.1812  0.3159  0.1829
33381SOL     OW 4953  12.004   2.277  10.445 -0.3761  0.3304 -0.0415
33381SOL    HW1 4954  12.068   2.346  10.463  0.1749 -0.2277  0.1778
33381SOL    HW2 4955  11.922   2.323  10.430 -0.0862  1.0141  0.4454
33382SOL     OW 4956   4.648   6.554   7.410 -0.0666  0.9615  0.2577
33382SOL    HW1 4957   4.645   6.650   7.405 -0.3579  0.9809  0.6888
33382SOL    HW2 4958   4.726   6.530   7.360 -0.7540  1.3279 -1.0129
33383SOL     OW 4959   1.775   2.126   6.921 -0.1039 -0.4835  0.0422
33383SOL    HW1 4960   1.861   2.110   6.960 -0.0003  1.4705  0.7112
33383SOL    HW2 4961   1.768   2.221   6.914 -2.2999 -0.5614  0.2167
33384SOL     OW 4962   9.757   2.261   2.724  0.5157  0.5978 -0.4602
33384SOL    HW1 4963   9.735   2.341   2.771  1.4008 -0.0797  1.2082
33384SOL    HW2 4964   9.683   2.202   2.741  1.3441 -0.0393  1.1173
33385SOL     OW 4965   0.337   6.793   1.695  0.5387 -0.0084 -0.2285
33385SOL    HW1 4966   0.270   6.807   1.628 -0.1019 -1.8997 -0.0472
33385SOL    HW2 4967   0.294   6.813   1.777  0.2207 -1.0034 -0.1318
33386SOL     OW 4968   4.126   7.856   1.691 -0.2557  0.0617  0.0057
33386SOL    HW1 4969   4.069   7.901   1.629  0.2264  0.8427  0.1135
33386SOL    HW2 4970   4.207   7.907   1.690  1.2885 -2.2032 -1.7362
33387SOL     OW 4971   2.960  12.513   2.043  0.3730 -0.4322 -0.4481
33387SOL    HW1 4972   3.054  12.506   2.024  0.4152 -1.1931 -0.0040
33387SOL    HW2 4973   2.957  12.522   2.138  0.0399  0.5798 -0.5507
33388SOL     OW 4974  12.398   5.257   4.548  0.2673  0.0131 -0.1872
33388SOL    HW1 4975  12.468   5.237   4.486  0.4980 -0.7580  0.3084
33388SOL    HW2 4976  12.321   5.274   4.493  0.5964 -0.1302 -0.6949
33389SOL     OW 4977  12.491  11.331   8.302  0.5255  0.5434  0.1331
33389SOL    HW1 4978  12.549  11.297   8.234 -1.2847 -0.1353 -1.1401
33389SOL    HW2 4979  12.503  11.271   8.376  1.8541  0.7708  0.1279
33390SOL     OW 4980   1.327   7.545   6.367  0.1854 -0.9087 -0.0169
33390SOL    HW1 4981   1.327   7.452   6.389 -0.9092 -0.7401  0.8130
33390SOL    HW2 4982   1.239   7.575   6.390  0.2216  0.1414 -1.1338
33391SOL     OW 4983   3.778  11.536   4.939  0.5577 -0.2290 -0.1463
33391SOL    HW1 4984   3.827  11.483   5.002  0.2357  1.1477  1.3185
33391SOL    HW2 4985   3.845  11.577   4.884  0.8925 -0.6052 -0.0213
33392SOL     OW 4986   8.610   0.359   9.200 -0.0682 -0.0192 -0.0342
33392SOL    HW1 4987   8.632   0.305   9.276  0.9450  0.1847 -0.1602
33392SOL    HW2 4988   8.588   0.444   9.236 -0.3336 -0.1350  0.0778
33393SOL     OW 4989   9.677   9.145   5.952  0.7407  0.0433 -0.3494
33393SOL    HW1 4990   9.724   9.215   5.997 -0.8151  0.0276  1.4379
33393SOL    HW2 4991   9.586   9.177   5.947 -0.1216 -1.9991  0.9348
33394SOL     OW 4992  12.430   8.558   5.640  0.7541  0.1714  0.1370
33394SOL    HW1 4993  12.499   8.500   5.607 -0.3863 -0.3835 -1.4452
33394SOL    HW2 4994  12.356   8.499   5.657  0.1826  0.9295  0.3050
33395SOL     OW 4995   7.732   7.729   4.554  0.1073  0.1459 -0.1784
33395SOL    HW1 4996   7.686   7.743   4.637 -2.1074 -0.4500 -1.2300
33395SOL    HW2 4997   7.805   7.672   4.577  2.1984  3.3804  2.0698
33396SOL     OW 4998   6.904   7.592   6.654 -0.2247 -0.0051 -0.1461
33396SOL    HW1 4999   6.932   7.501   6.662  0.3882  0.1785 -0.1460
33396SOL    HW2 5000   6.986   7.642   6.656 -0.6849  0.7529  2.5812
33397SOL     OW 5001   7.662   8.921   5.874 -0.0651  0.3393  0.2922
33397SOL    HW1 5002   7.641   9.012   5.853 -0.5939  0.2561  0.4582
33397SOL    HW2 5003   7.579   8.874   5.867 -0.0750  0.1170  1.5579
33398SOL     OW 5004  12.011   9.997   8.650  0.3686 -0.4408  0.2836
33398SOL    HW1 5005  11.940   9.954   8.602  0.2078 -0.6983  0.7461
33398SOL    HW2 5006  11.978  10.005   8.739  0.4646  0.5065  0.2372
33399SOL     OW 5007   8.083  11.826   9.118 -0.3117  0.4135  0.6792
33399SOL    HW1 5008   8.137  11.849   9.043 -0.6493  0.9031  0.5789
33399SOL    HW2 5009   7.994  11.823   9.082 -0.2408 -1.6215  0.5515
33400SOL     OW 5010   6.134   0.835  11.387  0.5617 -0.4358  0.1690
33400SOL    HW1 5011   6.170   0.821  11.475  2.3470  0.1542 -0.4175
33400SOL    HW2 5012   6.043   0.804  11.393  0.5098 -0.0606  2.3141
33401SOL     OW 5013  10.251  12.579   2.598  0.3171  0.4603 -0.5434
33401SOL    HW1 5014  10.255  12.558   2.692  0.4770  0.5971 -0.5207
33401SOL    HW2 5015  10.241  12.493   2.556 -1.5779  0.5119 -0.2968
33402SOL     OW 5016   4.750  10.189   9.183 -0.0950 -0.0800  0.0028
33402SOL    HW1 5017   4.733  10.214   9.273 -1.8069  0.7372 -0.5240
33402SOL    HW2 5018   4.664  10.177   9.144  0.5817  0.5863 -1.8049
33403SOL     OW 5019   6.127   2.594   2.846  0.0782  0.3934  0.2305
33403SOL    HW1 5020   6.172   2.678   2.845  0.3064  0.2985  1.2525
33403SOL    HW2 5021   6.191   2.533   2.880  0.1535 -0.3600 -1.1947
33404SOL     OW 5022   5.464   0.761   2.296  0.3445 -0.1512 -0.3948
33404SOL    HW1 5023   5.406   0.811   2.238 -0.1636 -2.0425 -1.6171
33404SOL    HW2 5024   5.533   0.729   2.238  1.6446  0.5693  0.7085
33405SOL     OW 5025  10.180   9.377   9.466  0.6273 -0.5857 -0.5015
33405SOL    HW1 5026  10.263   9.408   9.430 -0.2565  1.8060 -0.6315
33405SOL    HW2 5027  10.128   9.456   9.479 -0.7322 -1.7531  1.9365
33406SOL     OW 5028   6.158  11.306  10.637  0.3616  0.2383  0.4918
33406SOL    HW1 5029   6.182  11.240  10.701  1.2578  0.4507  0.3981
33406SOL    HW2 5030   6.166  11.262  10.552 -0.5867  0.0250  0.5101
33407SOL     OW 5031   7.592   2.305   1.547 -0.0082  0.3480 -0.1887
33407SOL    HW1 5032   7.555   2.243   1.609 -0.4126  2.6530  2.0041
33407SOL    HW2 5033   7.521   2.365   1.527  0.8888  1.2421 -0.7939
33408SOL     OW 5034   2.428   1.093   1.630  0.4412  0.0880  0.8226
33408SOL    HW1 5035   2.434   1.156   1.702 -0.0485  1.0705  0.0425
33408SOL    HW2 5036   2.515   1.094   1.590  0.6718 -0.3505  1.3152
33409SOL     OW 5037   6.478   5.171   8.572  0.1732 -0.1554  0.5714
33409SOL    HW1 5038   6.484   5.265   8.590 -0.5688  0.1042 -0.4449
33409SOL    HW2 5039   6.448   5.166   8.482 -0.0466 -1.3803  0.6979
33410SOL     OW 5040   7.463   4.984   0.961 -0.2688 -0.5630 -0.7797
33410SOL    HW1 5041   7.508   5.069   0.955  0.4606 -0.9267 -0.6356
33410SOL    HW2 5042   7.524   4.929   1.009 -1.1387 -0.9152 -0.0470
33411SOL     OW 5043   8.829  12.139   1.206 -0.4359  0.9983 -0.9682
33411SOL    HW1 5044   8.802  12.153   1.297 -0.5150  1.1028 -1.0080
33411SOL    HW2 5045   8.781  12.204   1.156 -0.6205  0.7453 -1.1236
33412SOL     OW 5046  10.362   3.962   4.072 -0.6410  0.2743 -0.0711
33412SOL    HW1 5047  10.455   3.972   4.051 -0.8995 -0.2805 -1.6806
33412SOL    HW2 5048  10.325   3.922   3.993 -2.7539  2.9929 -0.5830
33413SOL     OW 5049  12.506  12.030   4.733 -0.0862 -0.3805 -0.0263
33413SOL    HW1 5050  12.478  11.968   4.801 -1.2054  2.3086  2.1691
33413SOL    HW2 5051  12.462  12.001   4.654 -1.8337 -1.5205  1.2934
33414SOL     OW 5052   9.794   8.692   5.298  0.1394 -0.3497 -0.0266
33414SOL    HW1 5053   9.700   8.702   5.281 -0.2308 -1.5343  1.1400
33414SOL    HW2 5054   9.804   8.711   5.391  0.7654 -1.8329  0.2428
33415SOL     OW 5055  10.173   8.407  11.580  0.3965  0.0277 -0.0148
33415SOL    HW1 5056  10.193   8.317  11.555 -1.4053 -0.5268  0.4162
33415SOL    HW2 5057  10.082   8.405  11.609  0.5196  1.8629  0.6613
33416SOL     OW 5058  10.751   6.541   5.555  0.0858 -0.0996  0.1793
33416SOL    HW1 5059  10.830   6.496   5.524  0.4414 -0.2226  1.2244
33416SOL    HW2 5060  10.761   6.544   5.650 -0.5573  1.0558  0.2235
33417SOL     OW 5061   3.297  11.689   1.684 -0.1551 -0.8647  0.2720
33417SOL    HW1 5062   3.287  11.594   1.697 -0.0911 -1.0213 -0.7572
33417SOL    HW2 5063   3.332  11.697   1.595 -1.2597  0.1952 -0.0789
33418SOL     OW 5064  10.784   0.566   4.510  0.4884 -0.5898  0.2400
33418SOL    HW1 5065  10.752   0.506   4.577  0.7128  0.0136  0.8967
33418SOL    HW2 5066  10.748   0.532   4.428  0.5823 -1.5954  0.6024
33419SOL     OW 5067   8.827   4.506   8.114  0.0423  0.2622 -0.2539
33419SOL    HW1 5068   8.820   4.411   8.110 -0.7022  0.3370 -1.2467
33419SOL    HW2 5069   8.737   4.537   8.103  0.5087  1.0971 -2.2032
33420SOL     OW 5070   2.774   2.055   2.808  0.2665  0.8293 -0.2066
33420SOL    HW1 5071   2.775   2.133   2.863 -0.2719 -0.3006  1.5023
33420SOL    HW2 5072   2.866   2.040   2.786  0.3024  2.3413 -1.2033
33421SOL     OW 5073  11.153   7.463   4.039 -0.4952  0.8804  0.5722
33421SOL    HW1 5074  11.132   7.487   3.949  1.0401  2.3963  0.5708
33421SOL    HW2 5075  11.085   7.505   4.092 -2.6578 -1.6910  0.1164
33422SOL     OW 5076   8.485  12.268   1.899  0.4907 -0.3342 -0.3505
33422SOL    HW1 5077   8.428  12.305   1.966  0.0387 -0.5832 -0.5993
33422SOL    HW2 5078   8.511  12.343   1.846 -0.2283 -0.3305 -0.7055
33423SOL     OW 5079   7.181   5.059   3.364 -0.4864  0.0227 -0.2433
33423SOL    HW1 5080   7.275   5.072   3.351 -0.3846 -0.6549 -0.2128
33423SOL    HW2 5081   7.160   4.982   3.310 -0.9637  0.0017 -0.0297
33424SOL     OW 5082   1.121  11.709  11.140 -0.2015  0.4843  0.1257
33424SOL    HW1 5083   1.076  11.647  11.198 -1.6695  0.3154 -1.1275
33424SOL    HW2 5084   1.086  11.690  11.053  0.3948  2.1122 -0.5115
33425SOL     OW 5085   6.950   5.491   9.200 -0.4899  0.5054 -0.1097
33425SOL    HW1 5086   7.005   5.460   9.271  2.1981  0.0644 -2.1998
33425SOL    HW2 5087   7.012   5.528   9.136 -2.7015  0.6978 -2.2943
33426SOL     OW 5088   3.293   8.046   3.400 -0.4362  0.4252 -0.1320
33426SOL    HW1 5089   3.366   7.986   3.415  0.6052  1.2034 -1.7871
33426SOL    HW2 5090   3.286   8.096   3.481  0.6996  0.1519  0.1470
33427SOL     OW 5091   1.757  10.403   0.319  0.0843 -0.1248  0.1252
33427SOL    HW1 5092   1.816  10.436   0.251  0.3742  0.8767  0.8416
33427SOL    HW2 5093   1.707  10.333   0.276  1.0835 -0.3076 -0.7774
33428SOL     OW 5094   5.138  12.504   7.784 -0.6185 -0.9764  0.2116
33428SOL    HW1 5095   5.181  12.581   7.821 -0.0741 -1.2422  0.1448
33428SOL    HW2 5096   5.051  12.535   7.759 -0.7101 -0.5923  0.9629
33429SOL     OW 5097   4.959   2.426   8.614 -0.4484 -0.0332 -0.4361
33429SOL    HW1 5098   5.014   2.465   8.682 -1.6986  1.7150 -0.3655
33429SOL    HW2 5099   4.925   2.346   8.653  0.3851 -0.0480  0.2812
33430SOL     OW 5100   7.842   9.532  12.354  0.0318  0.3378 -0.2538
33430SOL    HW1 5101   7.865   9.457  12.409  0.3260  1.3725  1.0626
33430SOL    HW2 5102   7.746   9.530  12.350 -0.0580  0.8040  1.1310
33431SOL     OW 5103   4.508   9.291   5.389  0.2555  0.2826  0.0384
33431SOL    HW1 5104   4.437   9.351   5.364  1.3952  1.2306 -1.1380
33431SOL    HW2 5105   4.514   9.230   5.316 -0.6987 -1.1457  1.1004
33432SOL     OW 5106   2.763   5.060   6.065 -0.0516 -0.0597  0.0036
33432SOL    HW1 5107   2.792   5.116   6.137  0.8062 -0.2168 -0.2129
33432SOL    HW2 5108   2.790   4.972   6.091 -0.6429 -0.2626 -0.0483
33433SOL     OW 5109  10.240   9.518   3.780 -0.0383 -0.3712 -0.2415
33433SOL    HW1 5110  10.181   9.507   3.706 -0.0027 -0.0690 -0.3177
33433SOL    HW2 5111  10.229   9.610   3.805 -0.0797 -0.4800  0.1525
33434SOL     OW 5112   1.984   2.967   1.248 -0.1466 -0.0925  0.5537
33434SOL    HW1 5113   1.889   2.976   1.259  0.0813  0.4361  2.3609
33434SOL    HW2 5114   2.013   2.923   1.329  1.3649  1.4039  0.8644
33435SOL     OW 5115   4.353   8.279   6.123 -0.3341  0.3272 -0.0169
33435SOL    HW1 5116   4.259   8.299   6.124 -0.1965  1.0056  0.0928
33435SOL    HW2 5117   4.362   8.200   6.177 -0.9917 -0.4754 -1.0474
33436SOL     OW 5118   9.524   8.574   2.977 -0.1364  0.4012  0.1280
33436SOL    HW1 5119   9.435   8.568   3.013  0.0283  0.2855  0.5251
33436SOL    HW2 5120   9.561   8.487   2.993 -0.5226 -0.1105 -1.5669
33437SOL     OW 5121   6.191  11.889   9.366 -0.3539 -0.9540  0.5629
33437SOL    HW1 5122   6.222  11.857   9.451  1.4822 -0.3021  0.1732
33437SOL    HW2 5123   6.259  11.863   9.304 -1.6085 -1.3183 -0.7254
33438SOL     OW 5124   8.442   8.767  10.084  0.7225 -0.3073  0.3385
33438SOL    HW1 5125   8.375   8.701  10.065  0.8476 -0.3988  0.2219
33438SOL    HW2 5126   8.522   8.717  10.100  1.3526 -0.0887 -1.8962
33439SOL     OW 5127  10.313   3.989   2.001  0.3663  0.1306 -0.0008
33439SOL    HW1 5128  10.353   4.075   2.013 -0.4217  0.3615  1.0952
33439SOL    HW2 5129  10.364   3.931   2.056  0.1551  0.1300  0.1947
33440SOL     OW 5130   5.801   9.825   8.842  0.2941  0.9573  0.4204
33440SOL    HW1 5131   5.758   9.743   8.815  0.0674  1.0998  0.3445
33440SOL    HW2 5132   5.795   9.824   8.938  0.7354  0.6463  0.4480
33441SOL     OW 5133   7.364   2.847   5.099  0.4566 -0.3779 -0.2048
33441SOL    HW1 5134   7.392   2.836   5.008 -0.4655 -0.6739 -0.4629
33441SOL    HW2 5135   7.381   2.939   5.118 -1.8008  0.4104 -1.5797
33442SOL     OW 5136  11.685   5.531   8.768  0.5003  0.7169 -0.1747
33442SOL    HW1 5137  11.672   5.488   8.683 -1.9462 -2.9053  1.7815
33442SOL    HW2 5138  11.778   5.518   8.786  0.0496 -3.9614  0.1111
33443SOL     OW 5139   5.032   0.099  11.385  0.1149 -0.1126 -0.3963
33443SOL    HW1 5140   5.086   0.041  11.439 -0.4447 -0.3221 -0.0636
33443SOL    HW2 5141   5.078   0.183  11.387  0.7341 -0.4378 -0.5800
33444SOL     OW 5142   4.289   6.760   5.932 -0.1267 -0.9064  0.3984
33444SOL    HW1 5143   4.220   6.753   5.866  0.7879 -0.7250 -0.5958
33444SOL    HW2 5144   4.368   6.782   5.883  0.8810 -2.1661  1.3848
33445SOL     OW 5145   9.100   2.717   9.237 -0.4386  0.4918 -0.0972
33445SOL    HW1 5146   9.155   2.783   9.278 -1.8247  1.7025 -0.0943
33445SOL    HW2 5147   9.088   2.650   9.304  2.2469 -0.6126 -0.6039
33446SOL     OW 5148   6.553  10.539  10.113 -0.0195 -0.0951  0.2338
33446SOL    HW1 5149   6.620  10.584  10.062 -0.1819  0.7373  0.7357
33446SOL    HW2 5150   6.514  10.607  10.168 -0.1752 -0.8725  1.1167
33447SOL     OW 5151  12.185   2.892   9.837  0.0429  0.5661 -0.3837
33447SOL    HW1 5152  12.165   2.856   9.923 -2.7047  1.1357 -0.6930
33447SOL    HW2 5153  12.160   2.984   9.843  0.9751  0.9254 -1.4685
33448SOL     OW 5154   5.312   6.817   8.537 -0.6207 -0.3890 -0.2730
33448SOL    HW1 5155   5.219   6.793   8.538 -0.7991  0.2972  0.7481
33448SOL    HW2 5156   5.355   6.741   8.497 -1.6005 -0.7521 -0.6988
33449SOL     OW 5157   6.036  10.657   2.332  0.1510 -1.1936 -0.2039
33449SOL    HW1 5158   6.051  10.647   2.238  0.8198 -2.3344  0.0158
33449SOL    HW2 5159   6.077  10.581   2.372  2.2789  0.6172  1.2694
33450SOL     OW 5160   1.345  10.817   5.654 -0.4095  0.4728 -0.3434
33450SOL    HW1 5161   1.271  10.834   5.596 -1.4776  2.4642  1.4625
33450SOL    HW2 5162   1.387  10.739   5.618 -4.1594 -1.6132 -0.7190
33451SOL     OW 5163   9.051  12.570  10.381  0.2547  0.5786  0.1597
33451SOL    HW1 5164   9.048  12.589  10.474  2.7617  1.8970  0.0504
33451SOL    HW2 5165   8.967  12.602  10.347 -0.6503  0.1703  1.9098
33452SOL     OW 5166   2.244   0.430   7.477 -0.5675  0.1193 -0.2770
33452SOL    HW1 5167   2.179   0.487   7.436  0.0207  0.2223 -1.0911
33452SOL    HW2 5168   2.238   0.451   7.570  0.4939  2.4305 -0.6663
33453SOL     OW 5169   0.326   7.910   9.302  0.3958  0.1526 -0.0277
33453SOL    HW1 5170   0.271   7.950   9.234 -1.6472  0.8022  1.8690
33453SOL    HW2 5171   0.326   7.817   9.281 -1.7499  0.0750  0.0143
33454SOL     OW 5172   4.538   3.451  10.927  0.0405  0.2489 -0.1886
33454SOL    HW1 5173   4.467   3.485  10.981  0.2863  2.4103 -1.1382
33454SOL    HW2 5174   4.494   3.401  10.859 -0.5253  0.8255 -0.2557
33455SOL     OW 5175   1.568  11.414   1.488 -0.2157  0.2195  0.1458
33455SOL    HW1 5176   1.556  11.446   1.399  0.3680  2.6666  0.8778
33455SOL    HW2 5177   1.486  11.433   1.532  0.4126  1.5680  0.7999
33456SOL     OW 5178   3.881   0.779   7.683 -0.9054  0.8591  0.2071
33456SOL    HW1 5179   3.840   0.729   7.753 -1.2089  1.7686  0.7048
33456SOL    HW2 5180   3.854   0.735   7.603  0.6537 -1.0778  0.6813
33457SOL     OW 5181   4.370  11.298  11.732  0.7961 -0.1183 -0.2498
33457SOL    HW1 5182   4.301  11.337  11.786  0.7064  0.0924 -0.5135
33457SOL    HW2 5183   4.415  11.237  11.791  0.3509 -0.2995 -0.0886
33458SOL     OW 5184   4.883   2.200   4.518 -0.0027  0.3935  0.0374
33458SOL    HW1 5185   4.901   2.206   4.612  1.8735  2.6378 -0.3779
33458SOL    HW2 5186   4.965   2.171   4.479 -0.0633  1.6087 -1.0807
33459SOL     OW 5187   5.958   5.607   1.211 -0.3004  0.0287 -0.1253
33459SOL    HW1 5188   5.945   5.660   1.133 -0.0415  1.5610  0.8275
33459SOL    HW2 5189   6.047   5.625   1.239 -0.1491 -1.0476  0.1399
33460SOL     OW 5190  10.927   1.441  10.144 -0.5314 -0.2480  0.1084
33460SOL    HW1 5191  10.864   1.468  10.210 -0.5462  0.3483 -0.1368
33460SOL    HW2 5192  10.903   1.492  10.066 -1.2594 -1.8084 -0.7291
33461SOL     OW 5193  11.075   3.481  12.384  0.1466 -0.5269 -0.0664
33461SOL    HW1 5194  11.153   3.518  12.426  0.0570  1.1846 -1.3111
33461SOL    HW2 5195  11.053   3.405  12.438 -0.2982  1.7866  3.3210
33462SOL     OW 5196   9.384   3.469   0.814  0.2824 -0.0680 -0.0636
33462SOL    HW1 5197   9.334   3.407   0.866  1.7154 -1.0995  0.1504
33462SOL    HW2 5198   9.320   3.510   0.757 -1.0421 -0.1795  1.2938
33463SOL     OW 5199   7.847   2.038   2.265 -0.6805 -1.0413  0.7418
33463SOL    HW1 5200   7.766   1.989   2.251 -1.6862  1.2490 -2.7561
33463SOL    HW2 5201   7.910   1.998   2.205 -0.9901  0.6464 -0.8000
33464SOL     OW 5202   4.835   6.277   2.237 -0.2248  0.2944  0.3527
33464SOL    HW1 5203   4.809   6.293   2.147 -3.1666 -0.8449  0.8851
33464SOL    HW2 5204   4.923   6.238   2.231 -0.6723 -0.5003 -2.0631
33465SOL     OW 5205   0.073   4.452   3.214 -0.1166 -0.4960  0.0339
33465SOL    HW1 5206   0.010   4.389   3.181  0.9907 -0.6960 -1.8251
33465SOL    HW2 5207   0.074   4.437   3.309 -3.9213  0.5571  0.4234
33466SOL     OW 5208   3.739   3.456  11.521  0.3877  0.7399 -0.5329
33466SOL    HW1 5209   3.773   3.482  11.435  1.4549  0.9425 -0.0623
33466SOL    HW2 5210   3.669   3.519  11.539  1.5648  2.0506 -0.3364
33467SOL     OW 5211   9.991   3.509   0.138  0.0655 -0.0521 -0.1110
33467SOL    HW1 5212   9.905   3.469   0.150 -0.3034  0.3798 -1.1655
33467SOL    HW2 5213   9.971   3.602   0.125  0.6777  0.0328 -0.4626
33468SOL     OW 5214   7.158  11.677   1.040 -0.1534 -0.4260 -0.7390
33468SOL    HW1 5215   7.094  11.610   1.015 -0.2142 -0.3999 -0.6534
33468SOL    HW2 5216   7.158  11.676   1.136  0.6936 -1.1162 -0.7284
33469SOL     OW 5217   7.481   8.153   0.363 -0.2901 -0.2857 -0.3862
33469SOL    HW1 5218   7.478   8.174   0.270  1.0514 -0.7617 -0.5589
33469SOL    HW2 5219   7.456   8.235   0.407 -3.9259 -0.8361 -1.1433
33470SOL     OW 5220   1.077   1.895   7.726  0.2120 -0.4656 -0.1214
33470SOL    HW1 5221   1.004   1.914   7.785  0.3661 -2.4830  0.7940
33470SOL    HW2 5222   1.155   1.903   7.781  0.5235 -0.3457 -0.5773
33471SOL     OW 5223   9.815   2.465   4.169 -0.1605  0.3128 -0.6746
33471SOL    HW1 5224   9.878   2.522   4.124  3.0456 -2.3791 -0.0011
33471SOL    HW2 5225   9.817   2.494   4.260  1.1085 -0.4945 -0.4221
33472SOL     OW 5226   1.102  12.540   1.049  0.3071  0.3378  0.3840
33472SOL    HW1 5227   1.178  12.590   1.080  1.9024 -2.0388  0.5773
33472SOL    HW2 5228   1.114  12.453   1.088 -2.1710 -0.3138 -0.1701
33473SOL     OW 5229  11.671   3.892  10.233  0.4915  0.7686 -0.7563
33473SOL    HW1 5230  11.740   3.863  10.173 -0.9657 -2.7444 -0.9873
33473SOL    HW2 5231  11.608   3.937  10.177 -0.2039 -1.3022 -1.7659
33474SOL     OW 5232   3.608   3.372  10.086  0.1924  0.3531 -0.7318
33474SOL    HW1 5233   3.607   3.328  10.001  0.8692  1.3378 -1.2674
33474SOL    HW2 5234   3.643   3.459  10.067  0.7302  0.4505  0.6287
33475SOL     OW 5235  10.174   0.372   8.687 -0.2796 -0.4746 -0.3733
33475SOL    HW1 5236  10.172   0.382   8.782  3.2185 -2.5180  0.1093
33475SOL    HW2 5237  10.151   0.458   8.653 -0.7408  0.5698  2.3539
33476SOL     OW 5238   7.498   1.528   7.288 -0.8729 -0.7162 -0.0425
33476SOL    HW1 5239   7.428   1.541   7.352 -1.3141 -2.0279 -0.2319
33476SOL    HW2 5240   7.455   1.496   7.210 -0.0961 -1.3123 -0.2432
33477SOL     OW 5241   6.165  10.225   9.516  0.1288 -0.5280 -0.1349
33477SOL    HW1 5242   6.156  10.316   9.488  0.0351 -0.0169  1.4182
33477SOL    HW2 5243   6.192  10.177   9.438 -0.2607  0.7548 -1.0815
33478SOL     OW 5244   2.338   5.772  10.936 -0.6518 -0.4136 -0.0510
33478SOL    HW1 5245   2.293   5.831  10.995  0.3189 -1.1333  1.4803
33478SOL    HW2 5246   2.285   5.692  10.936 -1.2381 -0.0382 -1.0476
33479SOL     OW 5247  10.150   4.020  11.825  0.6876 -0.2858 -0.3876
33479SOL    HW1 5248  10.194   4.034  11.908  0.8595  0.9626 -0.6660
33479SOL    HW2 5249  10.218   3.987  11.766  0.2245 -2.7224  0.3437
33480SOL     OW 5250   1.620  12.107   4.064  0.8116 -0.1959 -0.0874
33480SOL    HW1 5251   1.697  12.158   4.091  0.6158  0.9855 -1.6651
33480SOL    HW2 5252   1.546  12.166   4.079  0.1945 -1.2131  1.1079
33481SOL     OW 5253   5.528   1.071  12.466 -0.2375  0.0833  0.0916
33481SOL    HW1 5254   5.497   1.015  12.537 -0.6523 -0.8289 -0.7789
33481SOL    HW2 5255   5.614   1.100  12.494 -0.2965 -0.4603  0.8658
33482SOL     OW 5256   0.859   9.492   2.424 -0.3731  0.2697 -0.1899
33482SOL    HW1 5257   0.804   9.426   2.381 -0.3622  0.4691 -0.5162
33482SOL    HW2 5258   0.942   9.488   2.378 -0.3439  0.4504 -0.1559
33483SOL     OW 5259   2.787  10.042   2.425 -0.2646  0.2733  1.1056
33483SOL    HW1 5260   2.866  10.097   2.422 -0.3292  0.3174 -0.4292
33483SOL    HW2 5261   2.732  10.083   2.491 -0.0930  1.7813  0.3586
33484SOL     OW 5262   6.633   0.149   4.761 -0.1209  0.1288  0.5263
33484SOL    HW1 5263   6.701   0.201   4.717 -0.0276 -1.0936 -0.8706
33484SOL    HW2 5264   6.559   0.209   4.770  0.1383  0.6633 -0.6274
33485SOL     OW 5265   2.336   6.610   4.657  0.2272 -0.5029  0.5187
33485SOL    HW1 5266   2.241   6.595   4.656  0.3904 -1.5490 -0.3041
33485SOL    HW2 5267   2.345   6.703   4.674 -1.0216  0.1479 -1.9637
33486SOL     OW 5268   7.859   7.157   1.324  0.0299  0.2396 -0.0506
33486SOL    HW1 5269   7.841   7.242   1.284  2.4282  0.7341 -0.2232
33486SOL    HW2 5270   7.894   7.177   1.410  1.4102 -0.5045 -0.4077
33487SOL     OW 5271   6.064   5.924   4.771  0.3459  0.4672 -0.0058
33487SOL    HW1 5272   6.151   5.933   4.808  0.2807 -0.9601  0.5226
33487SOL    HW2 5273   6.005   5.950   4.842  0.3125  0.6995 -0.1172
33488SOL     OW 5274   5.482   5.658   3.084 -0.0711  0.0520 -0.1932
33488SOL    HW1 5275   5.389   5.678   3.092 -0.0396 -0.1305  0.6922
33488SOL    HW2 5276   5.524   5.711   3.152  0.3758 -0.4877 -0.0391
33489SOL     OW 5277   3.128   2.247  11.524 -0.5926  0.2218  0.0097
33489SOL    HW1 5278   3.137   2.289  11.439 -1.0458 -1.1138 -0.7356
33489SOL    HW2 5279   3.136   2.153  11.505 -0.2866 -0.0755  1.4995
33490SOL     OW 5280  10.659   7.248   3.242  0.0923 -0.0529 -0.4537
33490SOL    HW1 5281  10.581   7.261   3.295  0.5631 -0.3895  0.3304
33490SOL    HW2 5282  10.626   7.250   3.152 -0.4610  2.4406 -0.2966
33491SOL     OW 5283  11.549  11.529   7.733 -0.4660 -0.8483  0.0112
33491SOL    HW1 5284  11.593  11.602   7.691  1.5129 -2.0713 -0.1750
33491SOL    HW2 5285  11.614  11.458   7.733 -2.6869 -3.0721 -1.0821
33492SOL     OW 5286   8.907   7.405   1.016 -0.2945 -0.0102 -0.7727
33492SOL    HW1 5287   8.865   7.395   1.102  2.2831  0.2914  0.5949
33492SOL    HW2 5288   8.925   7.315   0.988  0.5628 -0.0595 -0.0903
33493SOL     OW 5289   2.246   4.649   7.221  0.3870  0.3839  0.3298
33493SOL    HW1 5290   2.341   4.641   7.214  0.3275  0.2759 -0.4111
33493SOL    HW2 5291   2.212   4.603   7.145 -0.1735  2.8378 -1.0178
33494SOL     OW 5292   0.450   9.489  10.154 -0.2454 -0.2552 -0.1845
33494SOL    HW1 5293   0.460   9.395  10.168 -0.6360 -0.1759  0.6609
33494SOL    HW2 5294   0.512   9.529  10.215  1.0912  0.0274 -1.6306
33495SOL     OW 5295   5.047   0.159   3.489 -0.8938  0.2643  0.0875
33495SOL    HW1 5296   5.102   0.189   3.562 -0.8816  0.5570 -0.0392
33495SOL    HW2 5297   5.039   0.236   3.433 -1.4718  0.2337  0.1291
33496SOL     OW 5298   3.877   8.801   3.348  0.3879  0.1467 -0.4493
33496SOL    HW1 5299   3.847   8.855   3.422 -0.9608 -2.3713  0.9677
33496SOL    HW2 5300   3.973   8.808   3.351  0.3628  0.2550  1.4605
33497SOL     OW 5301   3.093   2.759  10.390 -0.0857 -0.5239 -0.0701
33497SOL    HW1 5302   3.104   2.842  10.342  0.9470 -1.8796 -2.3766
33497SOL    HW2 5303   3.009   2.768  10.435 -1.0667  0.9677 -2.0378
33498SOL     OW 5304  12.640   1.405   8.236 -0.4308  0.0555  0.5237
33498SOL    HW1 5305  12.656   1.351   8.158 -0.4791  0.1586  0.4427
33498SOL    HW2 5306  12.711   1.381   8.296  0.4626  1.0069 -0.1048
33499SOL     OW 5307   0.591   9.338   1.591 -0.2133  0.2894 -0.2927
33499SOL    HW1 5308   0.658   9.391   1.547  1.5525 -1.1758  0.5374
33499SOL    HW2 5309   0.549   9.289   1.520 -0.5190  1.2783 -0.8277
33500SOL     OW 5310   0.523   0.358   9.491 -0.1652 -0.2643  0.1521
33500SOL    HW1 5311   0.522   0.328   9.400  2.3886  1.0994 -0.4168
33500SOL    HW2 5312   0.509   0.453   9.485  1.3546  0.0456  1.0265
33501SOL     OW 5313   6.327   4.311   4.325 -0.5097  0.5174 -0.8054
33501SOL    HW1 5314   6.399   4.284   4.268 -1.0199  0.4762 -1.4364
33501SOL    HW2 5315   6.307   4.400   4.297  0.1933  1.0553  0.2896
33502SOL     OW 5316   4.157   2.297   1.231 -0.1795 -0.3859  0.1802
33502SOL    HW1 5317   4.102   2.258   1.298 -1.1347  0.7560  0.0923
33502SOL    HW2 5318   4.214   2.358   1.280 -1.3711  0.9900 -0.0836
33503SOL     OW 5319   3.916  10.576  12.132 -0.6544 -0.1603 -0.6026
33503SOL    HW1 5320   3.924  10.661  12.175 -1.6544 -0.0629 -0.5875
33503SOL    HW2 5321   3.974  10.518  12.181 -0.6482  0.3033 -0.0635
33504SOL     OW 5322  10.266  11.636   4.103  0.3250 -0.0330 -0.2123
33504SOL    HW1 5323  10.212  11.687   4.043  1.1158  1.1849  0.0681
33504SOL    HW2 5324  10.353  11.638   4.065  0.6384 -0.0585  0.4799
33505SOL     OW 5325   5.507   4.116   2.347  0.2506  0.0239 -0.9381
33505SOL    HW1 5326   5.515   4.060   2.424 -0.5709  0.3061 -0.6334
33505SOL    HW2 5327   5.547   4.066   2.276  1.1603 -0.1750 -0.3027
33506SOL     OW 5328   9.761   2.397   3.674 -0.0453  0.2192  0.5408
33506SOL    HW1 5329   9.755   2.407   3.579 -0.9628 -0.9326  0.4582
33506SOL    HW2 5330   9.742   2.484   3.709 -1.8443  0.2067 -0.2880
33507SOL     OW 5331   2.341  10.297  10.061  0.4662  0.5394 -0.9484
33507SOL    HW1 5332   2.300  10.212  10.075  0.7674  0.3934 -0.9407
33507SOL    HW2 5333   2.434  10.282  10.081  0.1395  1.4717  1.5411
33508SOL     OW 5334   6.963   6.225   5.318  0.6397  0.0510  0.1400
33508SOL    HW1 5335   6.968   6.130   5.324 -1.2900 -0.0283  1.4596
33508SOL    HW2 5336   6.969   6.243   5.224 -1.2936 -1.5934 -0.3698
33509SOL     OW 5337   4.180   3.711   1.386 -0.4346 -0.8896 -0.4304
33509SOL    HW1 5338   4.132   3.665   1.455 -0.2063 -0.0845  0.2777
33509SOL    HW2 5339   4.263   3.665   1.379 -0.8993 -1.6864 -0.9898
33510SOL     OW 5340   8.981   7.394  12.177 -0.0245  0.0774 -0.0641
33510SOL    HW1 5341   8.895   7.354  12.184  0.1357 -0.5425 -1.2554
33510SOL    HW2 5342   9.041   7.332  12.219 -0.0429  0.0747 -0.0424
33511SOL     OW 5343  12.449   4.870   4.485  0.2986  0.0719 -0.1652
33511SOL    HW1 5344  12.524   4.929   4.491 -1.0953  2.1673 -1.6105
33511SOL    HW2 5345  12.467   4.817   4.407  0.6489 -0.0457 -0.0088
33512SOL     OW 5346   0.916   2.362   7.317 -0.1602 -0.1172 -0.0660
33512SOL    HW1 5347   0.893   2.384   7.227 -1.6168 -1.8185 -0.1812
33512SOL    HW2 5348   0.882   2.273   7.329 -0.4140  0.2273  2.2986
33513SOL     OW 5349   2.646   0.818   1.579 -0.6077  0.1970 -0.1495
33513SOL    HW1 5350   2.671   0.776   1.497 -0.3525 -2.1123  1.0262
33513SOL    HW2 5351   2.550   0.807   1.583 -0.3730 -2.2277  1.0400
33514SOL     OW 5352   6.398   5.152   8.313  1.0831 -0.0866 -0.3930
33514SOL    HW1 5353   6.469   5.196   8.266  0.8516  0.9268  0.1817
33514SOL    HW2 5354   6.347   5.109   8.244  0.2406  2.0881 -1.2323
33515SOL     OW 5355  11.039   6.974   0.712 -0.0938 -0.7784  0.1163
33515SOL    HW1 5356  11.024   6.949   0.803 -0.0125 -0.6019  0.1791
33515SOL    HW2 5357  11.000   7.062   0.705  0.8019 -0.3646  0.2512
33516SOL     OW 5358   9.545  11.582  11.450 -0.3288 -1.0784 -0.6983
33516SOL    HW1 5359   9.536  11.606  11.358 -1.0159 -1.0790 -0.6355
33516SOL    HW2 5360   9.474  11.520  11.466 -0.8621 -0.2877  0.0875
33517SOL     OW 5361  10.676   3.274   8.022 -0.3592 -0.3778  0.6810
33517SOL    HW1 5362  10.643   3.363   8.027 -1.1970 -0.6485  0.2029
33517SOL    HW2 5363  10.598   3.219   8.022  0.1640 -1.1997  2.2763
33518SOL     OW 5364  10.501  11.495   8.985  0.2769 -0.3933  0.1153
33518SOL    HW1 5365  10.543  11.571   9.026  1.4694 -0.4458 -0.9450
33518SOL    HW2 5366  10.409  11.519   8.978  0.6514  1.0113 -0.3195
33519SOL     OW 5367   9.246   3.468   0.004  0.4053  0.1801  0.2224
33519SOL    HW1 5368   9.200   3.386  -0.015 -0.0005  0.1627  1.2337
33519SOL    HW2 5369   9.189   3.537  -0.029  1.7586  0.0394 -2.7288
33520SOL     OW 5370   5.187   1.574  11.677 -0.0925 -0.6152  0.0423
33520SOL    HW1 5371   5.274   1.592  11.642 -0.1080  0.4392  0.5063
33520SOL    HW2 5372   5.168   1.484  11.650  0.3066 -0.1927 -1.7674
33521SOL     OW 5373  10.421   7.919   9.693 -0.1916  0.0023 -0.1885
33521SOL    HW1 5374  10.381   7.996   9.734 -0.5634  0.2192 -0.9455
33521SOL    HW2 5375  10.512   7.946   9.678  0.2059 -0.3997  1.2914
33522SOL     OW 5376   7.651   7.918   3.815  0.5557 -0.2210  0.3824
33522SOL    HW1 5377   7.592   7.857   3.859 -1.0435  0.6568 -0.4462
33522SOL    HW2 5378   7.640   8.001   3.862 -1.2873  0.7773 -1.6091
33523SOL     OW 5379   8.010   2.435   4.761 -0.0244  0.3319 -0.1142
33523SOL    HW1 5380   8.077   2.423   4.827  1.2821  0.4343 -1.3802
33523SOL    HW2 5381   8.015   2.357   4.707  1.0702  1.5828 -1.9198
33524SOL     OW 5382  12.161   9.062   1.171 -0.1190  0.1466 -0.1901
33524SOL    HW1 5383  12.206   9.102   1.097  1.1013 -0.8909 -0.0488
33524SOL    HW2 5384  12.189   9.112   1.247  1.2772 -0.7937 -0.0342
33525SOL     OW 5385   5.372   7.433   1.153 -0.2766  0.5436 -0.4571
33525SOL    HW1 5386   5.394   7.492   1.225 -0.3538 -1.2459  1.1150
33525SOL    HW2 5387   5.276   7.430   1.153 -0.4239 -2.9381  2.5985
33526SOL     OW 5388   6.054  12.099  10.554 -0.1081 -0.1732  0.2096
33526SOL    HW1 5389   6.078  12.191  10.539 -1.0820 -0.1745 -1.6125
33526SOL    HW2 5390   6.123  12.049  10.510  0.5069 -0.3595  1.3325
33527SOL     OW 5391  12.480   8.348   2.152  0.2607  0.2708  0.4757
33527SOL    HW1 5392  12.559   8.398   2.170  0.2758 -0.3338  2.4628
33527SOL    HW2 5393  12.447   8.325   2.239 -0.9462 -1.2580 -0.3322
33528SOL     OW 5394   9.853   3.409  12.084 -0.0490 -0.0977 -0.1904
33528SOL    HW1 5395   9.781   3.459  12.122 -0.3364 -0.4104 -0.3201
33528SOL    HW2 5396   9.928   3.429  12.139 -0.3742 -0.2470  0.3093
33529SOL     OW 5397  11.347   6.369   1.480  0.1196  0.5231 -0.0816
33529SOL    HW1 5398  11.383   6.457   1.469 -0.0504  1.0014  2.5504
33529SOL    HW2 5399  11.420   6.318   1.516  0.3209 -0.5493 -1.9306
33530SOL     OW 5400   9.129   7.121   1.186 -0.4718 -0.3107 -0.5590
33530SOL    HW1 5401   9.145   7.107   1.093 -0.6781 -0.8195 -0.5176
33530SOL    HW2 5402   9.196   7.068   1.230 -0.1846  0.1620 -0.4184
33531SOL     OW 5403  11.246   2.845  12.034 -0.0494  0.4029 -0.3269
33531SOL    HW1 5404  11.222   2.756  12.008 -1.7935  0.8320 -0.3277
33531SOL    HW2 5405  11.295   2.834  12.115  1.1936 -0.6395 -1.1809
33532SOL     OW 5406   1.128   0.848   3.159 -0.0643 -0.1662  0.2647
33532SOL    HW1 5407   1.216   0.810   3.163  0.1808  0.3356 -0.1814
33532SOL    HW2 5408   1.070   0.773   3.155  0.5231 -0.6299 -3.1883
33533SOL     OW 5409   5.550   9.014   5.883  0.5520 -0.1070 -0.0017
33533SOL    HW1 5410   5.601   9.095   5.896 -2.8830  2.1112  0.9066
33533SOL    HW2 5411   5.548   9.003   5.788 -0.8512  2.3610 -0.3475
33534SOL     OW 5412   5.182   3.748   2.619  0.0972  0.0344  0.5641
33534SOL    HW1 5413   5.178   3.843   2.609  0.8268  0.1932  1.5983
33534SOL    HW2 5414   5.165   3.714   2.531 -0.2167  1.1118  0.1871
33535SOL     OW 5415   0.310   8.070  10.698 -0.6879  0.2624 -0.1017
33535SOL    HW1 5416   0.291   8.025  10.780 -0.5148  0.9897  0.3528
33535SOL    HW2 5417   0.354   8.005  10.644 -3.0517 -1.0311 -0.6160
33536SOL     OW 5418   0.881   4.622   5.336  0.3080 -0.5739 -0.5702
33536SOL    HW1 5419   0.819   4.635   5.407  0.6279 -0.1603 -0.3618
33536SOL    HW2 5420   0.863   4.693   5.274 -0.2315 -1.1567 -1.1034
33537SOL     OW 5421   9.139   1.729  10.591 -0.1061 -0.0988 -0.7687
33537SOL    HW1 5422   9.218   1.723  10.538  1.4000  0.0797  1.3448
33537SOL    HW2 5423   9.074   1.767  10.532  1.8754  1.4828 -2.0790
33538SOL     OW 5424   6.158   7.132  10.237  0.6255 -1.1746  0.1737
33538SOL    HW1 5425   6.115   7.189  10.173 -0.0206 -0.3159  1.3283
33538SOL    HW2 5426   6.238   7.180  10.260 -0.0539 -0.5507  1.3509
33539SOL     OW 5427   1.175   4.470   4.071  0.0102  0.0068 -0.1660
33539SOL    HW1 5428   1.134   4.392   4.109 -1.0465  0.9181  0.6415
33539SOL    HW2 5429   1.198   4.524   4.147  0.6627  0.5161 -0.7148
33540SOL     OW 5430   9.180   5.674   3.628 -0.0802 -0.4927  0.4111
33540SOL    HW1 5431   9.254   5.651   3.572 -0.0893 -1.1713  0.6648
33540SOL    HW2 5432   9.103   5.660   3.572  0.0146  1.7845 -0.3951
33541SOL     OW 5433   6.709  12.041   3.384  0.1296 -0.1815 -0.5897
33541SOL    HW1 5434   6.740  11.976   3.321  0.4618 -0.6313  0.0217
33541SOL    HW2 5435   6.699  12.121   3.333 -0.8994 -0.8560 -1.4922
33542SOL     OW 5436   0.252   3.313   3.143 -1.2041 -0.2083  0.2999
33542SOL    HW1 5437   0.297   3.233   3.170  1.3707  0.3640 -1.8047
33542SOL    HW2 5438   0.293   3.382   3.194  0.1285  0.2720 -1.3313
33543SOL     OW 5439  12.611   6.535   7.808 -0.1324  0.2850  0.1149
33543SOL    HW1 5440  12.584   6.623   7.837 -2.8490 -1.4333  3.5589
33543SOL    HW2 5441  12.692   6.550   7.760  1.3871  4.3986  3.3097
33544SOL     OW 5442   3.762   7.398   6.051 -0.4497 -0.8429 -0.1910
33544SOL    HW1 5443   3.818   7.475   6.043 -1.2641  0.0062  1.6390
33544SOL    HW2 5444   3.762   7.360   5.963  1.0134  0.4878 -0.8371
33545SOL     OW 5445   7.221   9.995   4.246  0.4104  0.1339 -0.0016
33545SOL    HW1 5446   7.170   9.947   4.311 -1.9688  0.3222 -1.5773
33545SOL    HW2 5447   7.292   9.935   4.222  0.0394 -0.8114  1.1829
33546SOL     OW 5448   8.277   6.330   9.984 -0.3910 -0.3277  0.2602
33546SOL    HW1 5449   8.346   6.279  10.025 -0.8279 -1.2008 -0.0620
33546SOL    HW2 5450   8.320   6.377   9.912  0.1209  0.1963  0.9000
33547SOL     OW 5451   5.352   7.942   0.866  0.0500 -0.3112 -0.3232
33547SOL    HW1 5452   5.263   7.915   0.844 -0.0505  1.0491 -1.8220
33547SOL    HW2 5453   5.407   7.870   0.835 -0.3367  0.1886 -2.3257
33548SOL     OW 5454   1.409   4.960  11.743 -0.3061  0.1188 -0.2138
33548SOL    HW1 5455   1.353   4.937  11.817 -0.0363  1.6227  0.5044
33548SOL    HW2 5456   1.497   4.962  11.780  0.0302 -0.6390 -0.9519
33549SOL     OW 5457   2.230   7.747   2.861  0.6980 -0.7967 -0.5848
33549SOL    HW1 5458   2.294   7.800   2.908 -1.9478  2.4683 -0.2807
33549SOL    HW2 5459   2.229   7.783   2.773 -0.8578 -0.5345 -0.4965
33550SOL     OW 5460  11.340   7.295  10.908 -0.1151  0.4675 -0.1209
33550SOL    HW1 5461  11.333   7.388  10.928  0.1275  0.5877 -0.5664
33550SOL    HW2 5462  11.389   7.293  10.825 -1.9379  0.0417 -1.2274
33551SOL     OW 5463  12.155   5.977   0.309 -0.0783 -0.7415  0.3824
33551SOL    HW1 5464  12.217   5.966   0.236  0.5222 -1.0990  0.9332
33551SOL    HW2 5465  12.153   5.891   0.351  0.3926 -0.2544  1.4189
33552SOL     OW 5466  12.391   9.620  10.368  0.0223 -0.0805  0.7742
33552SOL    HW1 5467  12.300   9.650  10.359 -0.6396 -2.0774  0.0612
33552SOL    HW2 5468  12.391   9.572  10.451  0.8356  1.1482  1.5027
33553SOL     OW 5469   9.042   4.941  12.260  0.1537 -0.5833 -0.3977
33553SOL    HW1 5470   9.125   4.988  12.261  0.1487 -0.5231 -1.3451
33553SOL    HW2 5471   9.030   4.911  12.350  0.2154  1.1085  0.2056
33554SOL     OW 5472   8.292   5.525  12.209  0.0921 -0.0117  0.1723
33554SOL    HW1 5473   8.257   5.503  12.295 -0.0962  0.8225  0.3230
33554SOL    HW2 5474   8.384   5.545  12.225  0.7308 -2.3318 -0.2442
33555SOL     OW 5475   6.438   1.133  12.146 -0.3591  0.4155 -0.3216
33555SOL    HW1 5476   6.501   1.077  12.102 -0.0026 -0.5386  1.3136
33555SOL    HW2 5477   6.491   1.187  12.205 -1.0441 -1.3747  2.1344
33556SOL     OW 5478   3.509   0.260   1.016 -0.4679 -0.1097  0.1713
33556SOL    HW1 5479   3.531   0.279   0.925 -0.8652  2.1836  0.4845
33556SOL    HW2 5480   3.558   0.181   1.037  2.0846  1.0158 -1.1482
33557SOL     OW 5481  10.538   8.252   4.425  0.0156  0.1303  0.0633
33557SOL    HW1 5482  10.611   8.222   4.480 -0.5056 -0.3474  0.5158
33557SOL    HW2 5483  10.575   8.320   4.370  0.7070  0.1858  0.5851
33558SOL     OW 5484   4.257   8.290   2.460  0.3263  0.1774 -0.2742
33558SOL    HW1 5485   4.341   8.257   2.492  1.0025  1.5593 -0.5011
33558SOL    HW2 5486   4.259   8.383   2.482 -1.3977  0.1296  0.1823
33559SOL     OW 5487   2.395   0.881  12.588  0.5227  0.5255  0.0623
33559SOL    HW1 5488   2.371   0.949  12.650 -0.4505 -0.5381  0.9044
33559SOL    HW2 5489   2.472   0.839  12.626  0.8690  0.8715 -0.2464
33560SOL     OW 5490   8.084   0.364   6.092 -0.0935 -0.6801  0.4308
33560SOL    HW1 5491   8.005   0.406   6.126  0.8391  0.6521  1.0276
33560SOL    HW2 5492   8.151   0.431   6.098  0.9077 -1.5256 -0.8577
33561SOL     OW 5493  10.357   4.679   9.502 -0.0764 -0.3860 -0.0212
33561SOL    HW1 5494  10.377   4.624   9.577  0.0940  1.1369  1.0876
33561SOL    HW2 5495  10.359   4.619   9.427  1.1899 -1.6560  0.9851
33562SOL     OW 5496   4.241  11.173  12.436  0.2131  0.0057 -0.0363
33562SOL    HW1 5497   4.268  11.101  12.493 -1.6188 -0.5481  0.1963
33562SOL    HW2 5498   4.148  11.186  12.455  0.4126  2.2951 -0.2506
33563SOL     OW 5499   2.721   3.024   2.187 -0.3634 -0.2696 -0.4074
33563SOL    HW1 5500   2.793   2.965   2.203 -0.1107  0.6208  2.2487
33563SOL    HW2 5501   2.643   2.977   2.217 -0.1804  0.5717  1.5655
33564SOL     OW 5502   0.359   0.983   8.621  0.0621  0.1269  0.3716
33564SOL    HW1 5503   0.375   0.906   8.677  3.9964  0.7362  0.3792
33564SOL    HW2 5504   0.280   1.022   8.657 -0.4754 -2.3554  2.1901
33565SOL     OW 5505   8.939  11.049   1.730  0.4754 -0.4100 -0.3636
33565SOL    HW1 5506   9.011  11.036   1.792  0.6163  1.9620  0.0505
33565SOL    HW2 5507   8.861  11.024   1.779  0.6971  0.3407  0.4003
33566SOL     OW 5508   5.147   2.521   2.868 -0.5821  0.0457 -0.3610
33566SOL    HW1 5509   5.231   2.494   2.829 -0.7158  1.6694 -1.9414
33566SOL    HW2 5510   5.136   2.611   2.839 -2.2034  0.3462  1.0479
33567SOL     OW 5511   8.148   1.511  11.161  0.4570  0.0242 -0.1645
33567SOL    HW1 5512   8.103   1.459  11.227  1.1787 -0.0300  0.2935
33567SOL    HW2 5513   8.115   1.477  11.077 -2.0254  1.4484  0.1159
33568SOL     OW 5514   2.174   2.242   7.586  0.1437  0.4842  0.6333
33568SOL    HW1 5515   2.214   2.191   7.656  0.1146  1.1344  1.1276
33568SOL    HW2 5516   2.195   2.193   7.506  0.3977 -0.1212  1.0635
33569SOL     OW 5517   0.305   8.730   8.458 -0.1803  0.6272  0.4083
33569SOL    HW1 5518   0.333   8.742   8.367  1.9660 -1.7252  0.6678
33569SOL    HW2 5519   0.321   8.815   8.499 -2.5544  2.2118 -1.6183
33570SOL     OW 5520   5.696   3.332   2.305  0.1096 -0.1212  0.1971
33570SOL    HW1 5521   5.627   3.390   2.272  0.3141  0.5714  0.9486
33570SOL    HW2 5522   5.775   3.386   2.306  0.0335  0.0449  2.1720
33571SOL     OW 5523   0.870   5.641   8.263 -0.2931  0.7776 -0.4141
33571SOL    HW1 5524   0.929   5.646   8.189  0.7898  1.5603  0.4722
33571SOL    HW2 5525   0.914   5.689   8.333 -1.3667  0.2406  0.6833
33572SOL     OW 5526   6.710  12.160   1.833  0.4569  0.0682 -0.2341
33572SOL    HW1 5527   6.778  12.227   1.822  1.3201 -1.0047 -1.9411
33572SOL    HW2 5528   6.683  12.139   1.743 -1.2680 -0.4329  0.3602
33573SOL     OW 5529  12.215   7.550   4.984  0.1305 -0.1810  0.5637
33573SOL    HW1 5530  12.142   7.581   5.036 -1.5452 -1.3387 -0.9852
33573SOL    HW2 5531  12.194   7.577   4.894  0.9299 -1.6408 -0.1091
33574SOL     OW 5532  12.336  11.806   0.208  0.5099 -0.2195 -0.0759
33574SOL    HW1 5533  12.364  11.715   0.210  0.2645 -0.3018 -0.4060
33574SOL    HW2 5534  12.252  11.805   0.163  0.4300  0.1513  0.0555
33575SOL     OW 5535   5.120   2.626  10.304 -0.3900  0.1434 -0.0654
33575SOL    HW1 5536   5.128   2.532  10.288  2.6174  0.3669 -0.4582
33575SOL    HW2 5537   5.112   2.665  10.217  1.2338  0.3859 -0.1381
33576SOL     OW 5538   1.352   9.536   7.381 -0.3649  0.2364 -0.4416
33576SOL    HW1 5539   1.292   9.588   7.327 -1.0101  0.1440  0.1696
33576SOL    HW2 5540   1.355   9.583   7.464  0.8788  0.5574 -0.6548
33577SOL     OW 5541   9.786   9.848   5.366  0.0025  0.1395 -0.3596
33577SOL    HW1 5542   9.720   9.832   5.299 -0.6888  0.4061  0.2519
33577SOL    HW2 5543   9.848   9.776   5.356 -0.5064 -0.2513 -0.7733
33578SOL     OW 5544   4.636  11.635  11.329 -0.1438 -0.0414 -0.2167
33578SOL    HW1 5545   4.541  11.642  11.338 -0.1116 -1.5725  2.3803
33578SOL    HW2 5546   4.648  11.577  11.254 -1.3312 -0.7678  0.1232
33579SOL     OW 5547   9.481  12.049  12.089  0.0376  0.1503  0.2874
33579SOL    HW1 5548   9.536  12.012  12.020 -1.6205 -1.0000 -0.4850
33579SOL    HW2 5549   9.521  12.133  12.110  0.6666  0.4780 -2.0046
33580SOL     OW 5550   8.655   0.482   5.013 -0.0772  0.2215 -0.0301
33580SOL    HW1 5551   8.639   0.543   4.942  0.1698 -0.0173 -0.2924
33580SOL    HW2 5552   8.747   0.497   5.037  0.6584 -1.4928 -1.5109
33581SOL     OW 5553   9.180   2.765   8.706 -0.5747  0.1937 -0.1708
33581SOL    HW1 5554   9.255   2.790   8.761  0.9320 -0.4822 -1.8221
33581SOL    HW2 5555   9.186   2.822   8.630 -2.1946  0.6149 -0.0034
33582SOL     OW 5556   8.610   4.191  10.550  0.4406  0.7196 -0.4042
33582SOL    HW1 5557   8.639   4.108  10.511 -0.2964  0.4502 -0.3945
33582SOL    HW2 5558   8.668   4.203  10.625 -0.0429 -0.2799  0.1581
33583SOL     OW 5559   1.509   5.354   1.386  0.0925 -0.5217  0.1633
33583SOL    HW1 5560   1.543   5.284   1.331  2.2509 -0.7079  1.6301
33583SOL    HW2 5561   1.420   5.368   1.354  1.2450 -0.4937 -3.4387
33584SOL     OW 5562   1.567   7.063   4.997  0.1610 -0.0590 -0.5930
33584SOL    HW1 5563   1.546   7.067   4.903  1.2501 -0.9382 -0.9003
33584SOL    HW2 5564   1.640   7.001   5.002  1.5274  1.5539  0.5855
33585SOL     OW 5565   0.690   3.647   7.676  0.4890 -0.3773  0.6063
33585SOL    HW1 5566   0.698   3.729   7.725  1.9928 -1.6129  2.5883
33585SOL    HW2 5567   0.662   3.675   7.588  1.1604  2.2724  1.1235
33586SOL     OW 5568   1.584  12.220  11.658 -0.0015  0.0699  0.0344
33586SOL    HW1 5569   1.670  12.229  11.618  0.6822  0.4069  1.5154
33586SOL    HW2 5570   1.586  12.279  11.733 -1.4017 -0.1829  0.2997
33587SOL     OW 5571   8.958   5.618  11.026  0.0398  0.1762  0.1456
33587SOL    HW1 5572   9.047   5.605  11.060  1.1370  0.6126 -2.3750
33587SOL    HW2 5573   8.939   5.710  11.043  0.0678  0.0975  0.6323
33588SOL     OW 5574   7.960   7.135   7.635  0.0831 -0.1693 -0.2249
33588SOL    HW1 5575   7.922   7.081   7.565  0.1347 -1.1824  0.5029
33588SOL    HW2 5576   8.018   7.075   7.682 -0.4747  0.2995  1.1079
33589SOL     OW 5577   5.391   8.000   8.997  0.5046 -0.0994  0.3435
33589SOL    HW1 5578   5.465   7.953   9.037 -0.0135 -1.7681 -0.5329
33589SOL    HW2 5579   5.324   8.000   9.065  0.5785 -0.5016  0.4232
33590SOL     OW 5580   6.309   3.749  12.333  0.0725  0.5539 -0.0476
33590SOL    HW1 5581   6.349   3.663  12.351  2.1217  1.3984 -0.2700
33590SOL    HW2 5582   6.224   3.745  12.377 -0.4733 -2.0334 -1.1222
33591SOL     OW 5583   0.129   8.906   5.908 -0.3853  0.7714 -0.2668
33591SOL    HW1 5584   0.100   8.817   5.890  0.3013  0.3228  0.7721
33591SOL    HW2 5585   0.178   8.932   5.830  0.9213 -0.4324  0.1010
33592SOL     OW 5586  10.780   8.899   2.842 -0.0460  0.2163  0.2047
33592SOL    HW1 5587  10.858   8.883   2.789  0.0513 -0.3580  0.5178
33592SOL    HW2 5588  10.714   8.841   2.806  0.3294 -1.0015  1.3920
33593SOL     OW 5589   2.707   1.448   6.450  0.2313  0.2663 -0.6524
33593SOL    HW1 5590   2.721   1.528   6.500 -1.0523 -0.4412  0.9448
33593SOL    HW2 5591   2.619   1.458   6.413  0.3366 -0.1199 -1.0114
33594SOL     OW 5592   6.671   1.408   0.642 -0.2387  0.0480  0.2901
33594SOL    HW1 5593   6.645   1.433   0.553  1.3726  0.8459 -0.0005
33594SOL    HW2 5594   6.671   1.313   0.641 -0.2453  0.0486 -0.5814
33595SOL     OW 5595   3.308   6.820   8.139 -0.0401  0.2986 -0.2616
33595SOL    HW1 5596   3.391   6.773   8.146  0.1447  0.4043 -1.5432
33595SOL    HW2 5597   3.262   6.777   8.066 -1.6644 -0.5635  1.1817
33596SOL     OW 5598   1.460   4.885   6.035  0.4734  0.3058 -0.2331
33596SOL    HW1 5599   1.499   4.800   6.010  0.2145 -0.0149  0.4273
33596SOL    HW2 5600   1.502   4.948   5.976  0.1356 -0.3732 -1.2285
33597SOL     OW 5601   9.350   4.376   4.292 -0.1867 -0.4059 -0.3694
33597SOL    HW1 5602   9.429   4.424   4.269  1.3327 -2.2937  0.6010
33597SOL    HW2 5603   9.338   4.392   4.385  0.7410 -2.3070  0.1384
33598SOL     OW 5604   3.246   1.168   6.210  0.0914 -0.1682  0.2345
33598SOL    HW1 5605   3.239   1.098   6.274 -0.1356  0.1056  0.5136
33598SOL    HW2 5606   3.269   1.124   6.128 -1.6735 -0.7747  0.0080
33599SOL     OW 5607  10.428   0.326   1.550  0.0932 -0.0802  0.2135
33599SOL    HW1 5608  10.507   0.299   1.597 -0.1588 -0.1607  0.6083
33599SOL    HW2 5609  10.446   0.414   1.519 -0.6597  1.0558  2.7246
33600SOL     OW 5610   3.583   0.365   2.255 -0.3127  0.3474  0.1060
33600SOL    HW1 5611   3.658   0.327   2.300 -0.4247 -0.4840 -0.3825
33600SOL    HW2 5612   3.507   0.330   2.300 -0.4541 -1.4370 -1.3933
33601SOL     OW 5613   1.035   2.266  12.375  0.3748 -0.4090 -0.6421
33601SOL    HW1 5614   1.002   2.285  12.288  0.9626  2.1196 -0.4014
33601SOL    HW2 5615   0.957   2.263  12.431  0.0335 -1.6098 -1.1621
33602SOL     OW 5616   0.129   9.498   2.748 -0.3574  0.1909 -0.5582
33602SOL    HW1 5617   0.126   9.543   2.663 -1.4409 -1.2869 -1.3558
33602SOL    HW2 5618   0.115   9.405   2.726  1.2295 -0.4928  1.0731
33603SOL     OW 5619   9.734   2.014   3.017  0.0295 -0.4701  0.6444
33603SOL    HW1 5620   9.720   2.105   3.042  0.3525 -0.1705 -0.2177
33603SOL    HW2 5621   9.662   1.994   2.957  0.6065 -0.3909 -0.1039
33604SOL     OW 5622   3.432   2.004   1.299  0.2094 -0.1908  0.6196
33604SOL    HW1 5623   3.338   2.019   1.309  0.2317 -0.1948  0.8414
33604SOL    HW2 5624   3.473   2.067   1.358  0.2914 -1.3646  1.8878
33605SOL     OW 5625   4.102   2.884  12.020 -0.1780  0.1668 -0.3494
33605SOL    HW1 5626   4.050   2.918  12.092  0.9414  1.9755 -0.3274
33605SOL    HW2 5627   4.050   2.902  11.942  0.1722  1.5426 -0.2887
33606SOL     OW 5628   3.793   9.092   7.718  0.6416 -0.0454  0.5268
33606SOL    HW1 5629   3.800   9.146   7.639 -3.3669 -0.2435 -0.1564
33606SOL    HW2 5630   3.777   9.155   7.788  1.1946 -0.0788  0.6931
33607SOL     OW 5631  11.358   9.709  11.702  0.1948  0.2098  0.1747
33607SOL    HW1 5632  11.447   9.697  11.670  0.1562 -0.0690  0.1611
33607SOL    HW2 5633  11.365   9.772  11.773 -0.0473  2.7693 -1.9523
33608SOL     OW 5634   3.460   6.098  11.689  0.1610 -0.0978 -0.2066
33608SOL    HW1 5635   3.498   6.111  11.776  0.3595 -1.0439 -0.1478
33608SOL    HW2 5636   3.505   6.163  11.634 -0.6087  1.1309  0.5531
33609SOL     OW 5637   4.069  10.330   7.557  0.4291 -0.5540 -0.0728
33609SOL    HW1 5638   4.077  10.418   7.518 -1.6162  0.0555  0.7625
33609SOL    HW2 5639   3.996  10.338   7.619  0.1666 -2.8656 -0.0191
33610SOL     OW 5640   1.983  10.114   0.239  0.0494 -0.1095 -0.2673
33610SOL    HW1 5641   1.924  10.092   0.311 -0.7418  1.6968 -0.3002
33610SOL    HW2 5642   1.951  10.061   0.166  0.0255 -0.9774  0.3582
33611SOL     OW 5643  11.112   2.542   0.878  0.2240  0.3071  0.3896
33611SOL    HW1 5644  11.065   2.499   0.949  0.1646  0.2146  0.2944
33611SOL    HW2 5645  11.144   2.624   0.916  3.4741 -1.4233  1.6742
33612SOL     OW 5646   1.246  11.700   1.527 -0.1547  0.7800  0.2580
33612SOL    HW1 5647   1.156  11.686   1.497 -0.8956  0.1209  2.5559
33612SOL    HW2 5648   1.269  11.620   1.573  1.1214  1.4528  0.8555
33613SOL     OW 5649   8.222   2.969  11.150  0.7460 -0.2324 -0.1905
33613SOL    HW1 5650   8.300   3.011  11.112  0.4634  0.0948 -0.4153
33613SOL    HW2 5651   8.231   2.984  11.245 -0.6207  2.6497 -0.3963
33614SOL     OW 5652   2.494   6.473   6.582  0.2983  0.2566 -0.3429
33614SOL    HW1 5653   2.471   6.380   6.582  1.6983 -0.1166 -0.9065
33614SOL    HW2 5654   2.476   6.502   6.493  0.2911  0.4093 -0.2920
33615SOL     OW 5655   2.270   9.705   5.677 -0.3389 -0.5203  0.3650
33615SOL    HW1 5656   2.351   9.755   5.662 -0.9655  0.6411  0.7480
33615SOL    HW2 5657   2.229   9.700   5.591 -0.4723 -0.0046  0.3942
33616SOL     OW 5658   8.737   4.736   9.100 -0.4077  0.5496 -0.0760
33616SOL    HW1 5659   8.714   4.766   9.012 -0.3293 -0.1078 -0.3297
33616SOL    HW2 5660   8.721   4.811   9.156 -0.1260  1.0906 -0.7065
33617SOL     OW 5661   5.364  12.468   8.654  0.1498  0.4588 -0.3330
33617SOL    HW1 5662   5.371  12.416   8.574  1.1818 -0.2288  0.1654
33617SOL    HW2 5663   5.432  12.431   8.711  0.1073  1.5969  0.4776
33618SOL     OW 5664   4.340   4.431   7.282  0.4633 -0.6162  0.2377
33618SOL    HW1 5665   4.407   4.442   7.215  1.2711 -0.7021  1.0175
33618SOL    HW2 5666   4.385   4.389   7.355  0.0119  0.9580  1.4748
33619SOL     OW 5667   3.964   0.129   9.058 -0.1934 -0.0188  0.0142
33619SOL    HW1 5668   3.942   0.184   8.983 -0.5803 -0.6221 -0.3246
33619SOL    HW2 5669   3.899   0.152   9.125  0.3364  0.7330  0.2734
33620SOL     OW 5670   8.318   2.016   0.645 -0.4330 -0.1774 -0.3186
33620SOL    HW1 5671   8.324   2.074   0.721 -0.0016 -0.0471 -0.4529
33620SOL    HW2 5672   8.321   2.074   0.569 -0.2696 -0.3503 -0.4470
33621SOL     OW 5673   3.925  12.072   5.254  0.6016  0.3331  0.0474
33621SOL    HW1 5674   3.999  12.035   5.206 -0.0423 -1.8636  0.6328
33621SOL    HW2 5675   3.965  12.133   5.316  1.7196  0.7142 -1.0102
33622SOL     OW 5676   6.890   3.337   1.030  0.0076 -0.3093  0.2310
33622SOL    HW1 5677   6.822   3.399   1.055  1.2479  1.5585 -0.7681
33622SOL    HW2 5678   6.849   3.251   1.037 -2.1037  0.6838  0.6399
33623SOL     OW 5679   8.461   4.642   5.524  0.7203  0.7731 -0.4392
33623SOL    HW1 5680   8.467   4.725   5.477  2.8410  1.6710  1.2564
33623SOL    HW2 5681   8.513   4.581   5.472  1.0243  1.1040 -0.5264
33624SOL     OW 5682   7.676   3.907   8.753 -0.6218  0.3320 -0.0130
33624SOL    HW1 5683   7.744   3.886   8.818 -0.0123 -2.1610 -1.3334
33624SOL    HW2 5684   7.713   3.979   8.702  0.6969 -0.4045 -0.1461
33625SOL     OW 5685   6.351   5.216   5.072 -0.0731 -0.1929  0.5641
33625SOL    HW1 5686   6.380   5.164   5.147  0.8215 -0.5343  0.0054
33625SOL    HW2 5687   6.303   5.154   5.017 -0.3924 -0.0374  0.6679
33626SOL     OW 5688   7.823   0.756   0.625 -0.1267  0.5328  0.0714
33626SOL    HW1 5689   7.907   0.727   0.660 -0.8366 -0.2703  1.1522
33626SOL    HW2 5690   7.767   0.679   0.629 -0.8835  1.0176 -0.7819
33627SOL     OW 5691   5.718   7.158   5.782 -0.9291 -0.2294  0.0573
33627SOL    HW1 5692   5.783   7.228   5.773 -0.4594 -0.6380  0.1958
33627SOL    HW2 5693   5.645   7.186   5.727  0.0395 -0.5342 -1.4597
33628SOL     OW 5694   7.307   3.563   6.407  0.6745 -0.3340  0.5763
33628SOL    HW1 5695   7.282   3.562   6.315 -0.9117 -0.4026  0.9780
33628SOL    HW2 5696   7.301   3.472   6.434 -0.9096 -0.0725  1.2286
33629SOL     OW 5697   6.069   6.216   1.150  0.5157 -0.2116 -0.1768
33629SOL    HW1 5698   6.064   6.281   1.220 -0.6229 -0.3780 -0.0845
33629SOL    HW2 5699   6.018   6.254   1.079  1.9568  0.1098 -1.0649
33630SOL     OW 5700   9.002   8.440   6.039  0.3419 -0.1052 -0.1176
33630SOL    HW1 5701   9.071   8.500   6.011 -0.0367  0.8228  0.8442
33630SOL    HW2 5702   9.027   8.417   6.129 -0.1779 -0.4031 -0.0499
33631SOL     OW 5703   4.124   9.958   9.663 -0.4122 -0.4984  0.3934
33631SOL    HW1 5704   4.133   9.886   9.726 -1.4415 -1.1679 -0.2117
33631SOL    HW2 5705   4.032   9.956   9.637 -0.6114  1.4171  0.8113
33632SOL     OW 5706   1.095  12.448  12.304 -0.4635 -0.4549 -0.1960
33632SOL    HW1 5707   1.080  12.434  12.210  2.3597  0.0065 -0.7946
33632SOL    HW2 5708   1.073  12.540  12.319  1.6132  0.2342 -1.0577
33633SOL     OW 5709   2.119   4.576   1.259  0.0704 -0.7012 -0.1094
33633SOL    HW1 5710   2.048   4.639   1.269 -2.8290 -3.1322 -3.0222
33633SOL    HW2 5711   2.103   4.511   1.326 -0.1197 -0.9328 -0.3751
33634SOL     OW 5712   7.414  10.256   1.301  0.3875 -0.7289  0.4680
33634SOL    HW1 5713   7.350  10.217   1.240 -0.2757  0.1099  0.6166
33634SOL    HW2 5714   7.410  10.350   1.283  2.4433 -0.7565 -0.3287
33635SOL     OW 5715  11.528   5.764   5.845 -0.8489 -0.2636  0.3257
33635SOL    HW1 5716  11.508   5.857   5.860 -1.2413  0.1131 -2.0627
33635SOL    HW2 5717  11.621   5.756   5.866 -0.4617  1.0302 -0.7700
33636SOL     OW 5718   3.023   3.523  11.239  0.0502  0.6926  0.0732
33636SOL    HW1 5719   3.027   3.569  11.155 -0.9560 -0.8762 -0.8803
33636SOL    HW2 5720   3.061   3.585  11.302  1.9839  1.4251 -1.7146
33637SOL     OW 5721   8.742   0.282   8.120 -0.1431  0.4323 -0.1979
33637SOL    HW1 5722   8.773   0.203   8.164 -2.3658  0.2308  1.1443
33637SOL    HW2 5723   8.648   0.286   8.139 -0.4902  2.3473 -1.8974
33638SOL     OW 5724   3.956   9.132   8.100 -0.1070 -0.5694 -0.5064
33638SOL    HW1 5725   3.969   9.227   8.103 -1.6725 -0.3504  2.0250
33638SOL    HW2 5726   4.034   9.096   8.141 -1.2727 -0.0518  2.3684
33639SOL     OW 5727   4.871   9.540   1.569  0.0973  0.5159 -0.3436
33639SOL    HW1 5728   4.902   9.548   1.659 -0.0561 -0.5590 -0.1916
33639SOL    HW2 5729   4.931   9.595   1.518  1.1799 -0.1616  0.1854
33640SOL     OW 5730  10.365   5.748  10.975  0.2638  0.0487  0.2109
33640SOL    HW1 5731  10.399   5.780  11.058  3.5591 -2.4976  0.0368
33640SOL    HW2 5732  10.410   5.799  10.908 -0.4472  0.3624 -0.0369
33641SOL     OW 5733   5.112   5.133   7.017 -0.6591  0.0084  0.1351
33641SOL    HW1 5734   5.073   5.063   6.965  0.5758 -0.4215 -0.2458
33641SOL    HW2 5735   5.126   5.205   6.955 -0.8780  0.1794  0.2802
33642SOL     OW 5736   1.620  10.352   5.201 -0.3492 -0.1707 -0.3162
33642SOL    HW1 5737   1.567  10.402   5.139  0.2141  1.0869  0.1849
33642SOL    HW2 5738   1.710  10.366   5.172 -0.0540  0.6813  0.9191
33643SOL     OW 5739  11.234   0.538   4.523  0.1703  0.2788  0.4983
33643SOL    HW1 5740  11.157   0.564   4.473 -0.8092 -2.8341  0.1864
33643SOL    HW2 5741  11.200   0.486   4.595  1.9195 -0.2372  0.9952
33644SOL     OW 5742  10.697   1.736   6.304  0.1343  0.3924  0.1792
33644SOL    HW1 5743  10.703   1.706   6.395  0.5605  0.7980  0.2908
33644SOL    HW2 5744  10.612   1.780   6.299 -1.4407 -2.4523 -0.5020
33645SOL     OW 5745   8.428   6.436   9.784  0.1450 -0.0756 -0.5299
33645SOL    HW1 5746   8.522   6.435   9.800  0.3965  3.3917 -0.9836
33645SOL    HW2 5747   8.414   6.512   9.727 -3.1757  1.4475  1.9632
33646SOL     OW 5748   7.921   6.495   8.005  0.1641  0.1071 -0.4429
33646SOL    HW1 5749   7.917   6.530   7.916  1.6603  0.8937 -0.2218
33646SOL    HW2 5750   7.914   6.572   8.061  2.4336  0.0010  0.0611
33647SOL     OW 5751  12.367  10.467   9.504 -0.6004  0.0757 -0.3639
33647SOL    HW1 5752  12.346  10.556   9.533 -0.8390 -0.5811  1.6146
33647SOL    HW2 5753  12.457  10.473   9.472  0.7273  0.4201  3.0138
33648SOL     OW 5754   7.243  11.002   3.494  0.0491  0.1118 -0.0441
33648SOL    HW1 5755   7.200  11.007   3.408  1.4172 -1.3630 -0.8797
33648SOL    HW2 5756   7.194  11.062   3.549 -1.9758 -0.1960 -1.3951
33649SOL     OW 5757  11.626   7.513   3.078 -0.0888  0.0351 -0.1476
33649SOL    HW1 5758  11.620   7.449   3.007  1.2355 -0.7122  0.3732
33649SOL    HW2 5759  11.535   7.531   3.101 -0.5590  0.3507 -2.0435
33650SOL     OW 5760   6.929   6.109  10.744  0.0443 -0.3954  0.3978
33650SOL    HW1 5761   6.863   6.095  10.812 -1.0196  2.2346  0.0376
33650SOL    HW2 5762   7.013   6.097  10.789 -0.6376 -1.4240  1.4600
33651SOL     OW 5763   7.457   2.126  12.190  0.3767  0.5570 -0.0495
33651SOL    HW1 5764   7.525   2.104  12.253 -0.4098  0.6625  0.8724
33651SOL    HW2 5765   7.454   2.221  12.190 -0.4649  0.5504  0.7257
33652SOL     OW 5766   3.369   4.126   3.444 -0.2547  0.3910 -0.1349
33652SOL    HW1 5767   3.327   4.040   3.438 -0.2275  0.3983 -0.4695
33652SOL    HW2 5768   3.310   4.184   3.395  0.4459  0.2812 -1.1537
33653SOL     OW 5769   9.342   0.258   9.981 -1.2818 -0.6385 -0.3461
33653SOL    HW1 5770   9.263   0.313   9.979 -1.7781 -1.3226 -0.0184
33653SOL    HW2 5771   9.409   0.312   9.939 -1.0485  1.3168  2.2275
33654SOL     OW 5772   9.030   3.659   2.334  0.0427 -0.2464 -0.5001
33654SOL    HW1 5773   8.999   3.588   2.278  1.0471 -1.5843  0.5675
33654SOL    HW2 5774   8.950   3.702   2.364 -0.5699 -0.6136 -1.5566
33655SOL     OW 5775   8.686   9.555   0.101 -0.2063 -0.3784  0.0756
33655SOL    HW1 5776   8.597   9.523   0.085 -0.4467  0.0298  0.5737
33655SOL    HW2 5777   8.679   9.606   0.181  0.5161 -0.4787  0.2098
33656SOL     OW 5778   2.291   3.740   3.054  0.2692  0.1847 -0.5512
33656SOL    HW1 5779   2.288   3.830   3.086  0.6915 -0.4622  1.4419
33656SOL    HW2 5780   2.271   3.686   3.131 -0.1178 -1.4254 -1.7246
33657SOL     OW 5781   0.668   3.607  10.590  0.2998  0.4225 -0.5054
33657SOL    HW1 5782   0.719   3.544  10.641  2.3765  0.7354 -2.0780
33657SOL    HW2 5783   0.583   3.612  10.636  0.7577 -2.0223  0.7567
33658SOL     OW 5784   1.246  11.048   1.319 -0.0575  0.4848 -0.5508
33658SOL    HW1 5785   1.178  10.982   1.335  0.9955 -0.9154 -1.6391
33658SOL    HW2 5786   1.248  11.100   1.400 -0.9807 -0.7537  0.3109
33659SOL     OW 5787   9.154   0.931   7.753  0.2665  0.1976 -0.0438
33659SOL    HW1 5788   9.217   0.886   7.809 -1.1093 -0.3125  1.1506
33659SOL    HW2 5789   9.081   0.870   7.745 -0.7008  1.3366 -0.1995
33660SOL     OW 5790  11.285   6.209   2.003  0.3476  0.0301 -0.0170
33660SOL    HW1 5791  11.381   6.199   2.001  0.4383  0.5510  1.0221
33660SOL    HW2 5792  11.252   6.124   1.973  1.1290 -0.4675  0.4850
33661SOL     OW 5793   7.605   0.728   8.206 -0.0857  0.5661  0.1672
33661SOL    HW1 5794   7.626   0.817   8.178  0.9299  0.1468 -0.4761
33661SOL    HW2 5795   7.515   0.714   8.176  0.7624  0.3315 -2.5203
33662SOL     OW 5796   4.844   1.341   1.457 -0.5902  0.2812 -0.3702
33662SOL    HW1 5797   4.893   1.410   1.501  2.2955 -2.2519  0.7687
33662SOL    HW2 5798   4.767   1.327   1.513  0.9645 -0.1938  1.7853
33663SOL     OW 5799   5.959   3.102   1.474 -0.3589  0.1579 -0.1183
33663SOL    HW1 5800   5.887   3.039   1.472  0.3592 -0.6781 -0.3814
33663SOL    HW2 5801   5.971   3.123   1.566 -0.7809  0.1166 -0.0524
33664SOL     OW 5802   9.324   4.713   4.353  0.4421 -0.3511  0.3456
33664SOL    HW1 5803   9.231   4.690   4.348 -0.1004  1.7179 -0.1762
33664SOL    HW2 5804   9.357   4.698   4.265  0.3372 -0.1378  0.2675
33665SOL     OW 5805   5.065   6.576   1.822 -0.6556 -0.0032 -0.7223
33665SOL    HW1 5806   5.035   6.558   1.911  0.0503 -2.0463 -0.8562
33665SOL    HW2 5807   5.126   6.649   1.832 -0.5587 -0.2284  0.4805
33666SOL     OW 5808  12.493   9.532   9.408 -0.1835 -0.0755 -0.1157
33666SOL    HW1 5809  12.547   9.485   9.472  0.0114 -1.0409 -0.9747
33666SOL    HW2 5810  12.487   9.473   9.334 -1.0188  0.7376 -0.7095
33667SOL     OW 5811   1.395   7.961   2.308  0.3412 -0.2697 -0.3417
33667SOL    HW1 5812   1.462   8.028   2.316 -0.3870  0.4120  0.2516
33667SOL    HW2 5813   1.315   8.010   2.287 -0.2825 -0.9042  0.4789
33668SOL     OW 5814   0.517   5.158   1.800 -0.0984  0.5263 -0.2475
33668SOL    HW1 5815   0.600   5.129   1.762  0.2607  1.1315  0.0545
33668SOL    HW2 5816   0.454   5.091   1.774  1.1374 -1.8652  2.3984
33669SOL     OW 5817   1.876   8.317   0.441  0.6224 -0.1957  0.4725
33669SOL    HW1 5818   1.876   8.221   0.447  0.8045 -0.2157  0.1436
33669SOL    HW2 5819   1.883   8.346   0.532  1.3186 -0.4989  0.5283
33670SOL     OW 5820   6.197   4.234  10.063 -0.3842  0.0332 -0.6354
33670SOL    HW1 5821   6.135   4.210   9.994 -1.2387 -2.3570  0.8362
33670SOL    HW2 5822   6.235   4.151  10.091  1.8190  1.2020  0.1044
33671SOL     OW 5823   8.397  10.348   1.379 -0.2067 -0.0316 -0.1525
33671SOL    HW1 5824   8.448  10.354   1.298 -0.1583  0.9912 -0.0529
33671SOL    HW2 5825   8.398  10.436   1.415  0.7980 -0.7055  1.5957
33672SOL     OW 5826   5.772   9.090  10.465  0.4540  0.1400 -0.4014
33672SOL    HW1 5827   5.704   9.049  10.411 -0.3371  1.3818 -0.3807
33672SOL    HW2 5828   5.844   9.106  10.404 -1.2411  3.5910 -1.7963
33673SOL     OW 5829  12.134   3.187   3.209  0.0819  0.0100 -0.4815
33673SOL    HW1 5830  12.155   3.279   3.201 -1.0354  0.1946 -1.5288
33673SOL    HW2 5831  12.166   3.162   3.296  0.0794  1.4653 -0.0490
33674SOL     OW 5832  10.030   1.403   5.347  0.9610  0.3937 -0.2134
33674SOL    HW1 5833   9.991   1.358   5.272 -0.1953 -0.3499  0.7896
33674SOL    HW2 5834   9.955   1.429   5.401  1.5609  3.4503 -0.6490
33675SOL     OW 5835   3.571   8.505   5.026  0.3010 -0.0696 -0.1215
33675SOL    HW1 5836   3.581   8.440   4.957 -0.0182  0.4261 -0.6501
33675SOL    HW2 5837   3.648   8.561   5.018 -1.1230  1.7762 -2.0536
33676SOL     OW 5838   9.421   6.015  11.280 -0.0534 -0.4158 -0.2031
33676SOL    HW1 5839   9.515   5.993  11.279  0.0692  0.0983 -0.2104
33676SOL    HW2 5840   9.413   6.084  11.346 -0.0692  1.0405 -1.6478
33677SOL     OW 5841   1.116   5.850   9.888  0.5377 -0.4815  0.6967
33677SOL    HW1 5842   1.109   5.921   9.952 -1.0298  0.8083 -0.8099
33677SOL    HW2 5843   1.202   5.811   9.906  0.4198  0.1763  3.1653
33678SOL     OW 5844   3.600  10.498   7.701 -0.0868 -0.4724  0.3871
33678SOL    HW1 5845   3.601  10.553   7.780 -0.8142 -0.9727  0.7607
33678SOL    HW2 5846   3.559  10.554   7.634  2.2442  0.6421 -0.1974
33679SOL     OW 5847   5.481   4.011   4.348  0.3811  0.0309 -0.1001
33679SOL    HW1 5848   5.468   4.099   4.314 -1.1741 -0.8217 -1.8985
33679SOL    HW2 5849   5.394   3.981   4.374  0.6982 -1.2910 -0.4478
33680SOL     OW 5850   5.240   2.138   4.445  0.1579 -0.3003  0.2239
33680SOL    HW1 5851   5.305   2.093   4.392  1.5724  0.4179  1.2542
33680SOL    HW2 5852   5.219   2.217   4.395  0.2020 -0.4597 -0.0456
33681SOL     OW 5853   6.598   6.269   5.895  0.1060  0.3213  0.4524
33681SOL    HW1 5854   6.600   6.229   5.982  1.1216  1.3169  0.9250
33681SOL    HW2 5855   6.505   6.285   5.877 -0.2099 -1.0389  0.7934
33682SOL     OW 5856  12.144   6.244   9.088 -0.1316  0.7909 -0.0260
33682SOL    HW1 5857  12.219   6.245   9.030 -0.1588  0.2599 -0.0674
33682SOL    HW2 5858  12.103   6.159   9.074 -1.1273  1.3242 -0.4971
33683SOL     OW 5859   4.502   3.321   4.796 -0.0826  0.4566 -0.1711
33683SOL    HW1 5860   4.476   3.404   4.836 -0.0134  0.6917 -0.6094
33683SOL    HW2 5861   4.485   3.255   4.864 -0.8559  0.7328 -0.0822
33684SOL     OW 5862   6.389   0.971   7.497  0.5226  0.6681 -0.4072
33684SOL    HW1 5863   6.382   1.055   7.451  1.3611  1.8115  1.4282
33684SOL    HW2 5864   6.330   0.913   7.450 -1.3283  2.7272 -0.7862
33685SOL     OW 5865   8.030   1.957   8.966  0.3726  0.0764  0.2104
33685SOL    HW1 5866   8.044   2.048   8.940  0.7338 -0.0429 -0.0121
33685SOL    HW2 5867   8.082   1.946   9.046  0.6650 -0.0514  0.0039
33686SOL     OW 5868   1.081   5.783   8.807  0.0776  0.1373  0.1766
33686SOL    HW1 5869   1.046   5.741   8.886  0.3121  0.4258  0.4335
33686SOL    HW2 5870   1.065   5.876   8.820 -2.0635  0.0180 -1.1847
33687SOL     OW 5871   3.780  12.061   7.529  0.4234 -0.2917  0.1444
33687SOL    HW1 5872   3.870  12.091   7.519  0.8034 -1.1205  0.9043
33687SOL    HW2 5873   3.734  12.135   7.569  0.6211  0.3330 -0.7554
33688SOL     OW 5874   4.130   1.255   0.505 -0.2840  0.4765 -0.3367
33688SOL    HW1 5875   4.075   1.199   0.450  1.2721  0.6566 -2.1818
33688SOL    HW2 5876   4.190   1.298   0.444  1.1789  1.1350  1.4573
33689SOL     OW 5877   6.871   3.226  10.498  0.0685  0.7437  0.0240
33689SOL    HW1 5878   6.840   3.291  10.435 -0.5072  0.2838 -0.1708
33689SOL    HW2 5879   6.937   3.273  10.549 -0.6879  1.6319  0.2222
33690SOL     OW 5880   1.076   5.523   2.261 -0.6143  0.4095  0.3665
33690SOL    HW1 5881   1.133   5.482   2.196 -1.9565 -1.1160  0.0999
33690SOL    HW2 5882   1.115   5.499   2.345  0.9144  2.0789  0.2009
33691SOL     OW 5883   5.278   0.276   4.949  0.2783  0.3369 -0.1531
33691SOL    HW1 5884   5.302   0.239   5.035 -1.6365  0.4500  0.4763
33691SOL    HW2 5885   5.245   0.363   4.969 -1.3075 -0.0815 -0.8404
33692SOL     OW 5886   3.308  11.641   1.344 -0.1254  0.0500 -0.0215
33692SOL    HW1 5887   3.213  11.648   1.356  0.0846  0.4497  1.5718
33692SOL    HW2 5888   3.329  11.551   1.370 -0.1046 -0.1597 -0.7404
33693SOL     OW 5889   6.909   0.125   6.746  0.0295 -0.1148 -0.1051
33693SOL    HW1 5890   6.921   0.038   6.708 -2.0112 -1.6909  2.5798
33693SOL    HW2 5891   6.907   0.110   6.840 -1.9139  2.6185  0.3885
33694SOL     OW 5892   6.279   2.646   1.209 -0.4183 -0.6421  0.1666
33694SOL    HW1 5893   6.261   2.672   1.119  1.8297 -1.3148 -0.5391
33694SOL    HW2 5894   6.197   2.661   1.255 -1.6348 -0.3069 -1.9850
33695SOL     OW 5895   3.935  12.137   8.050  0.1972  0.1318 -0.4301
33695SOL    HW1 5896   3.947  12.064   8.110  1.3358  0.6044 -0.0647
33695SOL    HW2 5897   3.964  12.104   7.965 -2.1819 -0.8043 -0.9583
33696SOL     OW 5898   6.123   4.119   8.674  0.5223 -0.4836 -0.5712
33696SOL    HW1 5899   6.038   4.102   8.713  0.1037 -0.3700 -1.4083
33696SOL    HW2 5900   6.153   4.034   8.642  0.0553 -0.2929 -1.5615
33697SOL     OW 5901   7.442   6.247   3.424  0.1776 -0.9199 -0.2614
33697SOL    HW1 5902   7.409   6.159   3.407 -2.2505  0.0680 -1.1195
33697SOL    HW2 5903   7.394   6.276   3.502  0.1783  0.0204 -0.6015
33698SOL     OW 5904   0.768   9.723   2.143  0.3203 -0.2924 -0.5877
33698SOL    HW1 5905   0.703   9.653   2.142  0.8362 -0.7759 -0.6332
33698SOL    HW2 5906   0.844   9.686   2.099  0.9283 -0.0329  0.2281
33699SOL     OW 5907   7.801  12.145   1.260  0.5724  0.2193 -0.0704
33699SOL    HW1 5908   7.829  12.208   1.193  0.5724 -1.3397 -1.5977
33699SOL    HW2 5909   7.851  12.170   1.338  2.7765  0.3661 -1.4263
33700SOL     OW 5910   8.129   4.798   6.601 -0.6326  0.1657 -0.6034
33700SOL    HW1 5911   8.087   4.717   6.632 -1.1342  0.7178  0.1782
33700SOL    HW2 5912   8.147   4.781   6.508  0.2800 -1.2583 -0.1919
33701SOL     OW 5913   1.291   1.411   6.409 -0.5905  0.0598  0.4462
33701SOL    HW1 5914   1.340   1.487   6.440  0.6699 -1.0719  1.3211
33701SOL    HW2 5915   1.241   1.444   6.334 -0.7321  1.9392  1.3120
33702SOL     OW 5916   5.848   5.150  11.243  0.1617  0.7032  0.2519
33702SOL    HW1 5917   5.776   5.180  11.188  0.7944  0.6202 -0.6548
33702SOL    HW2 5918   5.814   5.153  11.332 -1.2646 -0.2237 -0.2319
33703SOL     OW 5919   6.410   6.769   2.637  0.2939 -0.6148  0.1492
33703SOL    HW1 5920   6.370   6.689   2.671  1.9758 -2.0143 -1.0228
33703SOL    HW2 5921   6.396   6.765   2.542 -0.3203  0.9342  0.1362
33704SOL     OW 5922   0.741   9.857  10.893 -0.3802  0.2897  0.0915
33704SOL    HW1 5923   0.743   9.767  10.927  0.9134  0.2024 -0.1706
33704SOL    HW2 5924   0.807   9.858  10.823 -0.9972  1.2174 -0.4960
33705SOL     OW 5925   0.692  12.394   1.776  0.0587 -0.5054 -0.0960
33705SOL    HW1 5926   0.721  12.440   1.698 -0.1528 -0.6795 -0.2768
33705SOL    HW2 5927   0.632  12.326   1.744 -0.3302 -0.3294  0.2431
33706SOL     OW 5928  10.211   6.940  10.317 -0.3527  0.4067  0.6201
33706SOL    HW1 5929  10.204   6.990  10.236 -0.1899  2.2496  1.6669
33706SOL    HW2 5930  10.298   6.900  10.314 -0.5238  0.0926 -0.2911
33707SOL     OW 5931   4.921   5.389  10.846  0.6228  0.4569 -0.1547
33707SOL    HW1 5932   4.891   5.443  10.919  0.2395  1.9687 -1.4011
33707SOL    HW2 5933   4.964   5.314  10.889 -0.5763  0.7215  1.6147
33708SOL     OW 5934   9.933   2.260   0.735 -0.0116  0.3378  0.0584
33708SOL    HW1 5935  10.013   2.207   0.741  0.7525  0.8129 -3.7730
33708SOL    HW2 5936   9.946   2.328   0.801  1.4002 -1.1693  1.4558
33709SOL     OW 5937   2.796   7.973   0.420 -0.4143 -0.0301 -0.0991
33709SOL    HW1 5938   2.769   8.032   0.350 -0.3851 -0.6222 -0.6276
33709SOL    HW2 5939   2.728   7.906   0.422 -0.1914 -0.2538  0.1419
33710SOL     OW 5940   1.883   9.592   7.637 -0.1854 -0.0439 -0.6842
33710SOL    HW1 5941   1.825   9.615   7.565 -1.3106 -1.0187 -0.1141
33710SOL    HW2 5942   1.832   9.534   7.692  0.3303  1.3531  1.4014
33711SOL     OW 5943   8.792   1.456   5.194  0.2954  0.1800  0.2587
33711SOL    HW1 5944   8.743   1.411   5.124 -0.9800 -0.4928  1.5192
33711SOL    HW2 5945   8.853   1.390   5.226 -0.0572  0.0368  0.6515
33712SOL     OW 5946   1.393   8.817   4.601  0.3975  0.2249  0.0171
33712SOL    HW1 5947   1.407   8.770   4.683 -1.1100 -1.1836 -0.4698
33712SOL    HW2 5948   1.302   8.846   4.605  0.2270 -0.0611 -1.2200
33713SOL     OW 5949  11.433  10.087   5.226 -0.4256  0.0670 -0.3583
33713SOL    HW1 5950  11.464  10.048   5.144 -2.1740  0.0498 -1.0693
33713SOL    HW2 5951  11.470  10.175   5.226 -3.0285  1.3549 -2.9598
33714SOL     OW 5952   2.056  11.769  10.740  0.0016  0.8087 -0.1632
33714SOL    HW1 5953   2.012  11.814  10.668 -0.4522  0.0923 -0.3438
33714SOL    HW2 5954   2.147  11.759  10.710 -0.0917  0.8669 -0.4668
33715SOL     OW 5955   8.362  11.915   8.668 -0.4280 -0.4269 -0.5463
33715SOL    HW1 5956   8.445  11.890   8.707 -0.9743 -0.5775  0.5596
33715SOL    HW2 5957   8.354  11.860   8.591 -0.8110 -2.4857  0.8874
33716SOL     OW 5958   6.586   9.785  10.763 -0.7676 -0.0569 -0.4956
33716SOL    HW1 5959   6.576   9.837  10.843  0.1997 -0.1637 -0.3022
33716SOL    HW2 5960   6.615   9.849  10.697  1.4727 -0.5068 -0.0023
33717SOL     OW 5961   2.127   6.676   3.143  0.0751  0.0685  0.2252
33717SOL    HW1 5962   2.157   6.754   3.097 -0.6973  0.5769  0.5669
33717SOL    HW2 5963   2.063   6.635   3.085 -0.5175  0.4291  0.6172
33718SOL     OW 5964   5.281  10.144  12.164  0.4619 -0.4476 -0.1285
33718SOL    HW1 5965   5.292  10.237  12.186 -1.2264 -0.1025 -0.6567
33718SOL    HW2 5966   5.357  10.102  12.204  0.1346  0.8500  2.0684
33719SOL     OW 5967   3.964  11.950   9.308  0.1157  0.4370  0.8537
33719SOL    HW1 5968   3.943  11.856   9.314 -0.3210  0.5980  1.9710
33719SOL    HW2 5969   3.881  11.994   9.326 -0.2118  1.0666 -1.7876
33720SOL     OW 5970   3.202  11.155   3.997 -0.2324 -0.2224  0.2096
33720SOL    HW1 5971   3.126  11.101   3.973  0.9066 -2.8055  1.9637
33720SOL    HW2 5972   3.207  11.148   4.092  1.9696  0.2401  0.1719
33721SOL     OW 5973   6.083   2.543   0.833  0.7865  0.2676  0.5839
33721SOL    HW1 5974   6.002   2.493   0.831  0.6641  0.4749 -1.3518
33721SOL    HW2 5975   6.150   2.480   0.860  0.3708 -0.5430 -0.2374
33722SOL     OW 5976   7.527  10.937  12.057 -0.2931  0.7879 -0.1255
33722SOL    HW1 5977   7.568  10.988  12.128  1.1944  1.7000 -1.5721
33722SOL    HW2 5978   7.600  10.911  12.001 -1.3896 -0.3022 -1.0930
33723SOL     OW 5979   6.879   2.173   1.099  0.3334  0.2705  0.4102
33723SOL    HW1 5980   6.956   2.160   1.044 -0.5900 -1.1121 -0.6375
33723SOL    HW2 5981   6.903   2.136   1.184  0.8326 -0.1004  0.1093
33724SOL     OW 5982   6.810   9.191   1.224  0.1942 -0.8001  0.5155
33724SOL    HW1 5983   6.722   9.162   1.247  0.2899 -0.4328  1.3704
33724SOL    HW2 5984   6.806   9.287   1.229  0.6913 -0.7879  0.7354
33725SOL     OW 5985   9.225   4.747  10.311  0.0082 -0.1847 -0.0206
33725SOL    HW1 5986   9.251   4.823  10.362  1.2382  0.6646 -1.8400
33725SOL    HW2 5987   9.306   4.697  10.300  0.0304  0.2290 -2.0394
33726SOL     OW 5988   4.923   2.030  10.105  0.3366  0.4537 -0.6635
33726SOL    HW1 5989   4.871   1.976  10.045  1.0227  0.2803 -1.1082
33726SOL    HW2 5990   4.872   2.110  10.115 -0.3487  0.0083 -0.5586
33727SOL     OW 5991   4.906   6.894  11.365  0.0955  0.2914 -0.0017
33727SOL    HW1 5992   4.916   6.961  11.297  0.0246 -0.4063 -0.7155
33727SOL    HW2 5993   4.990   6.894  11.411  0.0471  0.9635  0.0949
33728SOL     OW 5994   0.770  11.451   1.933 -0.0875 -0.0699  0.0792
33728SOL    HW1 5995   0.751  11.358   1.920 -0.7650  0.0117  0.4324
33728SOL    HW2 5996   0.684  11.493   1.938  0.2161  0.6442 -0.5365
33729SOL     OW 5997   0.185   8.603   7.611  0.0996 -0.1669 -0.0907
33729SOL    HW1 5998   0.090   8.602   7.599  0.0342 -1.6315  0.3592
33729SOL    HW2 5999   0.213   8.514   7.592  0.8747 -0.7978  3.2568
33730SOL     OW 6000   0.377   1.752   6.291 -0.6581  0.3466  0.0340
33730SOL    HW1 6001   0.457   1.805   6.286 -0.3811 -0.1235 -0.7363
33730SOL    HW2 6002   0.372   1.723   6.382 -0.0022  0.4606  0.1093
33731SOL     OW 6003   7.666   9.084   2.291 -0.5079  0.3433  0.4498
33731SOL    HW1 6004   7.728   9.157   2.299  0.9843 -0.5838 -1.7999
33731SOL    HW2 6005   7.708   9.012   2.337 -0.0998 -0.1635 -0.6918
33732SOL     OW 6006   4.705   3.059   2.856 -0.1131  0.3112 -0.3133
33732SOL    HW1 6007   4.714   3.152   2.876 -0.8792 -0.0206  1.8630
33732SOL    HW2 6008   4.752   3.014   2.926  0.4880 -0.9579 -1.4868
33733SOL     OW 6009   2.541   9.033   8.974  0.2460 -0.2218 -0.4450
33733SOL    HW1 6010   2.503   9.115   9.008  2.5208  1.1535 -1.0341
33733SOL    HW2 6011   2.508   9.027   8.884  0.0183  0.0118 -0.3800
33734SOL     OW 6012   2.923   6.013   2.942  0.2341 -0.1153  0.3598
33734SOL    HW1 6013   3.012   6.016   2.978  1.3176 -0.3546 -2.1214
33734SOL    HW2 6014   2.928   5.951   2.869 -2.1284 -0.5780  0.4871
33735SOL     OW 6015   6.951   2.121   1.373 -0.1051 -0.0923  0.4011
33735SOL    HW1 6016   6.976   2.159   1.457  3.2748  0.9183 -0.8837
33735SOL    HW2 6017   6.991   2.034   1.372 -0.0586 -0.0730 -0.1631
33736SOL     OW 6018  10.573   5.548   5.067  0.3182  1.0620 -0.0368
33736SOL    HW1 6019  10.492   5.588   5.032 -1.3688 -0.7413  1.5621
33736SOL    HW2 6020  10.630   5.539   4.990 -0.8494  2.7060 -1.1655
33737SOL     OW 6021   0.597   1.374  10.841 -0.2033 -0.2151 -0.0206
33737SOL    HW1 6022   0.503   1.364  10.831 -0.2585  0.2371  0.0161
33737SOL    HW2 6023   0.617   1.328  10.923 -0.5282  0.4297  0.4253
33738SOL     OW 6024   8.559   2.039   4.271 -0.2809  0.2929  0.1697
33738SOL    HW1 6025   8.528   2.035   4.181  0.3275 -0.0880 -0.0278
33738SOL    HW2 6026   8.649   2.006   4.267 -0.0588  0.7937  0.8254
33739SOL     OW 6027  10.665  12.454  12.644  0.0693 -0.2218  0.3467
33739SOL    HW1 6028  10.707  12.380  12.602 -1.2409 -0.7187 -0.1040
33739SOL    HW2 6029  10.703  12.531  12.601 -0.5471 -0.6987 -1.0851
33740SOL     OW 6030  10.743  10.359   3.000  0.4047  0.4610 -0.9023
33740SOL    HW1 6031  10.800  10.436   2.999  0.9723  0.1850  1.9874
33740SOL    HW2 6032  10.804  10.285   3.006 -0.1630  0.1007  1.0889
33741SOL     OW 6033   6.814   2.795   9.330  0.3176  0.1076 -0.2160
33741SOL    HW1 6034   6.785   2.706   9.349  0.2470  0.4553  1.5101
33741SOL    HW2 6035   6.734   2.841   9.304 -0.1636  0.2709  1.4093
33742SOL     OW 6036   0.697   5.932   3.888  0.3842 -0.0641 -0.1279
33742SOL    HW1 6037   0.768   5.877   3.855  0.2938  0.4660 -1.2648
33742SOL    HW2 6038   0.680   5.993   3.817 -1.9378 -0.8398 -0.3122
33743SOL     OW 6039   8.214   7.539   1.716  0.0532 -0.0834 -0.1564
33743SOL    HW1 6040   8.252   7.512   1.799 -1.2055  2.2230  1.2592
33743SOL    HW2 6041   8.125   7.566   1.738  0.0833  1.7602 -2.0206
33744SOL     OW 6042   9.302   4.948   5.149 -0.7660 -0.3232 -0.0125
33744SOL    HW1 6043   9.345   4.889   5.086 -1.2347 -0.4560 -0.2085
33744SOL    HW2 6044   9.369   5.013   5.169 -1.0699  0.6399 -1.8306
33745SOL     OW 6045   1.632   4.671   5.932 -0.1045 -0.1372 -0.1647
33745SOL    HW1 6046   1.685   4.592   5.920  1.2831  0.5153  1.3030
33745SOL    HW2 6047   1.637   4.689   6.026 -2.8266  0.0814  0.0233
33746SOL     OW 6048   3.529   4.675  11.349  0.0104 -0.3879  0.0278
33746SOL    HW1 6049   3.484   4.621  11.415 -0.9254 -0.2822 -0.5041
33746SOL    HW2 6050   3.495   4.643  11.265  0.5880  0.0192 -0.3670
33747SOL     OW 6051   6.852  10.642   0.303 -0.2697  0.4854 -0.4520
33747SOL    HW1 6052   6.848  10.669   0.211  0.9557 -1.0896 -1.0166
33747SOL    HW2 6053   6.929  10.586   0.308 -1.3788 -0.9906  1.1255
33748SOL     OW 6054   1.271  10.841   0.373 -0.2572  0.6853 -0.3302
33748SOL    HW1 6055   1.285  10.921   0.424  0.6030  0.8023 -0.7185
33748SOL    HW2 6056   1.341  10.782   0.402 -0.8347  0.1068 -0.1083
33749SOL     OW 6057   6.915   6.408   0.382  0.0844  0.0807  0.1107
33749SOL    HW1 6058   6.957   6.457   0.311  0.3103  1.7217  1.3181
33749SOL    HW2 6059   6.822   6.433   0.377 -0.3346 -1.4768 -0.8878
33750SOL     OW 6060   1.422  12.084  11.503  0.1667  0.0027 -0.0218
33750SOL    HW1 6061   1.474  12.119  11.575 -0.5150 -0.1125  0.5389
33750SOL    HW2 6062   1.332  12.105  11.526 -0.1832 -1.3000 -0.1246
33751SOL     OW 6063  12.250   9.787   6.960  0.0517 -0.1254 -0.4351
33751SOL    HW1 6064  12.182   9.843   6.998  0.9039  0.9883 -0.4961
33751SOL    HW2 6065  12.328   9.842   6.960  0.6838 -1.0047 -1.4093
33752SOL     OW 6066   0.780  10.937  10.838 -0.1381 -0.1438 -0.0867
33752SOL    HW1 6067   0.858  10.986  10.863 -0.8383  2.0187 -1.8643
33752SOL    HW2 6068   0.711  10.970  10.895 -0.1582 -0.7749  0.2715
33753SOL     OW 6069   5.724   2.974   0.613  0.1407  0.0071  0.2219
33753SOL    HW1 6070   5.767   2.996   0.695  0.6726 -0.2235  0.0064
33753SOL    HW2 6071   5.777   2.904   0.575 -0.2293 -0.0501 -0.2085
33754SOL     OW 6072   5.618   4.054   1.619  0.1990 -0.5728 -0.5642
33754SOL    HW1 6073   5.619   4.139   1.575 -0.0797 -0.7616 -0.9361
33754SOL    HW2 6074   5.595   4.074   1.710 -0.3121 -0.3007 -0.7517
33755SOL     OW 6075   9.022   9.447   2.139 -0.0725 -0.2884  0.0328
33755SOL    HW1 6076   8.987   9.483   2.221  0.8558  1.2907 -0.2185
33755SOL    HW2 6077   9.087   9.383   2.167 -0.5967 -0.6123  0.5219
33756SOL     OW 6078   7.611  11.822   5.920 -0.4591  0.1535 -0.0629
33756SOL    HW1 6079   7.661  11.804   5.840 -0.6215 -0.2731 -0.0709
33756SOL    HW2 6080   7.542  11.882   5.891 -0.4467  0.0931 -0.2215
33757SOL     OW 6081  11.008   9.481   1.354  0.7817 -0.3473 -0.4826
33757SOL    HW1 6082  11.002   9.391   1.386  0.6363 -0.0160  0.4652
33757SOL    HW2 6083  10.939   9.488   1.289  0.5362 -0.8050 -0.2801
33758SOL     OW 6084   6.516   0.132   3.079 -0.3032 -0.1804  0.0518
33758SOL    HW1 6085   6.435   0.176   3.056  0.0515 -0.3735 -1.7150
33758SOL    HW2 6086   6.518   0.054   3.023  0.8542 -0.4364  0.4158
33759SOL     OW 6087  11.569   7.391   5.044  0.2745  0.1847 -0.2509
33759SOL    HW1 6088  11.536   7.403   4.955  0.3627  0.0899 -0.2968
33759SOL    HW2 6089  11.511   7.326   5.083 -0.5367  1.1437  0.1786
33760SOL     OW 6090   2.318   9.822   8.444  0.3963 -0.6038  0.1886
33760SOL    HW1 6091   2.374   9.746   8.426  2.5910  0.0396  3.4084
33760SOL    HW2 6092   2.237   9.784   8.478 -1.2728 -1.5386 -4.1448
33761SOL     OW 6093  11.248   3.925  10.184  0.3512  0.1189 -0.4074
33761SOL    HW1 6094  11.280   3.962  10.102  1.0863 -0.3002 -0.3169
33761SOL    HW2 6095  11.170   3.876  10.159  0.4738  0.1312 -0.8304
33762SOL     OW 6096   5.584  10.939  11.048 -0.4252 -0.3867 -0.2441
33762SOL    HW1 6097   5.563  11.019  11.000  1.5905  0.6814  0.5392
33762SOL    HW2 6098   5.604  10.968  11.137 -1.9356 -2.0680  0.7059
33763SOL     OW 6099   1.652   3.613  11.870  0.1799  0.3999 -0.2635
33763SOL    HW1 6100   1.652   3.703  11.838  0.1076  0.3969 -0.2725
33763SOL    HW2 6101   1.743   3.594  11.890  0.3335  0.1632 -1.1306
33764SOL     OW 6102   6.398  11.476   3.569  0.0617  0.0120 -0.1661
33764SOL    HW1 6103   6.465  11.412   3.545  1.0072  0.9468 -0.0704
33764SOL    HW2 6104   6.315  11.431   3.552  0.7000 -1.2186 -0.1485
33765SOL     OW 6105   9.276  11.731   5.291  0.3606  0.3014  0.0040
33765SOL    HW1 6106   9.293  11.640   5.266 -0.3362 -0.0009  0.6377
33765SOL    HW2 6107   9.328  11.744   5.370 -2.5592 -0.7757  2.2431
33766SOL     OW 6108   5.266   7.866   4.568  0.7804  0.0565 -0.3773
33766SOL    HW1 6109   5.301   7.779   4.549  0.0872  0.1759 -2.4975
33766SOL    HW2 6110   5.341   7.924   4.561  0.6793  0.0202 -2.5563
33767SOL     OW 6111  10.249  12.579  12.595  0.3216  0.0456  0.3283
33767SOL    HW1 6112  10.261  12.528  12.674 -0.7068  0.0418  0.5018
33767SOL    HW2 6113  10.182  12.644  12.618  0.9765  0.9160 -0.1397
33768SOL     OW 6114   5.555   5.631  11.751  0.6001  0.3918  0.0118
33768SOL    HW1 6115   5.624   5.694  11.771 -0.1313  1.4873 -0.7861
33768SOL    HW2 6116   5.502   5.673  11.683  0.9555 -1.6993 -1.7022
33769SOL     OW 6117   9.942   0.214  11.120 -0.3427  0.2748 -0.7448
33769SOL    HW1 6118   9.924   0.190  11.029  0.9570 -0.1345 -0.9190
33769SOL    HW2 6119   9.958   0.308  11.117 -2.9156  0.7837 -0.4782
33770SOL     OW 6120  11.708   8.773  11.797 -0.5604  0.3534 -0.3729
33770SOL    HW1 6121  11.624   8.766  11.751 -1.0738  1.7573  0.3087
33770SOL    HW2 6122  11.761   8.829  11.740 -0.0026 -0.6646 -0.8829
33771SOL     OW 6123   8.391   2.723  10.345 -0.5347 -0.1111 -0.0211
33771SOL    HW1 6124   8.458   2.656  10.330  0.9915  1.5173 -0.8441
33771SOL    HW2 6125   8.334   2.717  10.269 -2.6578 -2.8168  1.5656
33772SOL     OW 6126   1.698   1.857   9.112  0.3087 -0.0030 -0.0030
33772SOL    HW1 6127   1.605   1.841   9.100  0.2583 -1.4336  1.7683
33772SOL    HW2 6128   1.703   1.919   9.186  0.7276 -1.6646  1.4427
33773SOL     OW 6129   8.806   2.783   8.949 -0.1906 -0.3137  0.1044
33773SOL    HW1 6130   8.794   2.779   8.854  0.7217 -1.2340  0.0097
33773SOL    HW2 6131   8.865   2.710   8.969  1.3107  1.1057  1.1093
33774SOL     OW 6132   3.578   2.078   7.664 -0.0340  0.1033  0.1895
33774SOL    HW1 6133   3.538   1.991   7.658 -0.5440  0.2973  0.6673
33774SOL    HW2 6134   3.577   2.098   7.758  2.0060 -0.2651  0.3403
33775SOL     OW 6135   9.782   1.743   2.469  0.2778 -0.1558  0.4048
33775SOL    HW1 6136   9.761   1.825   2.512 -1.1941 -0.7086  0.8199
33775SOL    HW2 6137   9.736   1.748   2.385  0.9809 -0.1642  0.0118
33776SOL     OW 6138   9.253   7.097   8.491 -0.0137 -0.6736 -0.2732
33776SOL    HW1 6139   9.212   7.060   8.412 -1.7054  0.2463  0.1082
33776SOL    HW2 6140   9.180   7.107   8.553  1.3301 -1.6382  1.5338
33777SOL     OW 6141   7.758   1.750   3.625  0.0869  0.3842  0.2534
33777SOL    HW1 6142   7.695   1.707   3.683 -1.2880  1.4011 -0.4139
33777SOL    HW2 6143   7.741   1.711   3.539  1.0060  0.0221  0.2318
33778SOL     OW 6144  11.929   3.083   2.361 -0.1651 -0.2601  0.2384
33778SOL    HW1 6145  11.932   3.173   2.393 -0.1239 -0.6125  1.2992
33778SOL    HW2 6146  12.013   3.046   2.385  0.4273 -0.1708 -1.5714
33779SOL     OW 6147   5.363   2.870   2.783 -0.0061  0.1925 -0.2395
33779SOL    HW1 6148   5.379   2.799   2.845 -0.3300 -0.8872 -1.3492
33779SOL    HW2 6149   5.445   2.879   2.735 -0.1084  0.2812 -0.3988
33780SOL     OW 6150   3.694   4.542   9.463 -0.3350 -0.5138 -0.6338
33780SOL    HW1 6151   3.726   4.491   9.388 -0.1328 -2.5215  0.7195
33780SOL    HW2 6152   3.602   4.561   9.442 -0.1243 -0.5475 -1.6256
33781SOL     OW 6153   2.962   7.052  11.211  0.2570 -0.0082 -0.0660
33781SOL    HW1 6154   2.950   7.147  11.216 -0.2665 -0.1273  2.2818
33781SOL    HW2 6155   2.873   7.016  11.213  0.4698 -0.5691  2.3162
33782SOL     OW 6156   7.370   7.659   1.777  0.4369 -0.2101  0.1370
33782SOL    HW1 6157   7.374   7.564   1.763  0.3414 -0.2197  0.1728
33782SOL    HW2 6158   7.313   7.691   1.707  0.0617 -0.2424  0.4239
33783SOL     OW 6159   5.873   4.823   2.226 -0.1244 -0.0068 -0.7460
33783SOL    HW1 6160   5.816   4.760   2.182 -0.5783  1.2238 -2.0147
33783SOL    HW2 6161   5.883   4.894   2.162  2.2058  0.1823 -0.2449
33784SOL     OW 6162   0.234   0.429  10.831 -0.9938  0.5499 -0.4950
33784SOL    HW1 6163   0.255   0.353  10.776 -1.5980 -0.5739  0.7911
33784SOL    HW2 6164   0.242   0.504  10.771 -1.0120 -0.5640 -1.9584
33785SOL     OW 6165  11.998  10.829  12.482 -0.3975 -0.6024  0.0800
33785SOL    HW1 6166  12.072  10.868  12.435  0.8131 -1.4261  1.2107
33785SOL    HW2 6167  11.938  10.801  12.414  0.4246 -0.0879 -0.8854
33786SOL     OW 6168  10.070  10.628   3.674  0.2034  0.4145  0.6097
33786SOL    HW1 6169   9.999  10.622   3.610 -0.5425 -0.5468  1.4880
33786SOL    HW2 6170  10.107  10.715   3.660 -1.3742  1.0922  0.3429
33787SOL     OW 6171   3.383  10.436   8.679  0.0780  0.3309  0.5258
33787SOL    HW1 6172   3.344  10.460   8.595  2.2728  0.2414 -0.5883
33787SOL    HW2 6173   3.356  10.346   8.693  0.1511  0.1539 -0.4020
33788SOL     OW 6174   0.214   3.157  11.833  0.0719  0.0219 -0.1889
33788SOL    HW1 6175   0.235   3.064  11.829 -0.7854 -0.1490 -0.9047
33788SOL    HW2 6176   0.279   3.199  11.775 -0.4680 -0.3108 -1.0544
33789SOL     OW 6177   4.654  12.453   1.375 -0.3573  0.1980  0.6435
33789SOL    HW1 6178   4.736  12.472   1.329 -0.3791 -1.4321 -0.1621
33789SOL    HW2 6179   4.609  12.537   1.380  0.3883  0.7310 -0.9157
33790SOL     OW 6180  10.605   2.106  10.935  0.0295 -0.0821  0.2811
33790SOL    HW1 6181  10.562   2.088  10.851  0.0534 -0.7841  0.4135
33790SOL    HW2 6182  10.629   2.199  10.930  1.6960 -0.5379 -1.2538
33791SOL     OW 6183   1.465   6.234   5.248  0.0437  0.0103  0.1937
33791SOL    HW1 6184   1.480   6.175   5.322 -2.4652 -0.8094  0.1336
33791SOL    HW2 6185   1.474   6.179   5.170  0.4876  0.3683 -0.0139
33792SOL     OW 6186   9.423   0.133   1.705  0.2373  0.1130  0.6249
33792SOL    HW1 6187   9.338   0.103   1.735 -0.2773  0.2529 -0.6328
33792SOL    HW2 6188   9.428   0.104   1.614  1.4685  0.2408  0.6371
33793SOL     OW 6189  12.356   1.837  11.162  0.3944  0.1951  0.1497
33793SOL    HW1 6190  12.428   1.842  11.099  0.0116 -0.1520 -0.3175
33793SOL    HW2 6191  12.398   1.808  11.243  0.5524 -1.6558 -0.5388
33794SOL     OW 6192   3.016   6.866  11.028 -0.1761  0.0673  0.0728
33794SOL    HW1 6193   2.925   6.857  11.057  0.0686 -1.9364  0.3570
33794SOL    HW2 6194   3.060   6.912  11.100 -1.0575  1.5933 -0.3247
33795SOL     OW 6195   8.522   8.563  12.452 -0.4924 -0.3898 -0.3046
33795SOL    HW1 6196   8.494   8.654  12.449  1.2901  0.1707 -1.2495
33795SOL    HW2 6197   8.447   8.514  12.419 -0.9082  0.8931 -1.3498
33796SOL     OW 6198   7.614   7.242   9.910  0.1389  0.4482  0.5551
33796SOL    HW1 6199   7.547   7.302   9.943  0.6362  1.2102  0.1954
33796SOL    HW2 6200   7.566   7.181   9.855 -0.7435 -0.9126  2.6813
33797SOL     OW 6201   0.524  11.143   2.203  0.0216 -0.4598  0.3980
33797SOL    HW1 6202   0.474  11.170   2.281 -0.0103  0.7805 -0.0357
33797SOL    HW2 6203   0.458  11.129   2.136 -0.2356 -4.0360  1.1795
33798SOL     OW 6204  10.630   1.284   3.970  0.4001 -0.7817  0.4157
33798SOL    HW1 6205  10.615   1.255   3.880 -1.8809 -2.2268  1.1849
33798SOL    HW2 6206  10.560   1.347   3.986  0.8270 -0.4871  1.1742
33799SOL     OW 6207   1.238   8.442   3.252 -0.2291 -0.0476  0.5995
33799SOL    HW1 6208   1.284   8.382   3.193 -2.8530 -0.4192 -1.2476
33799SOL    HW2 6209   1.238   8.526   3.206 -0.8794  0.0672  0.7905
33800SOL     OW 6210   8.054  11.551   8.930 -0.0336 -0.2580  0.1937
33800SOL    HW1 6211   8.070  11.519   8.841  0.3792 -0.7532  0.4435
33800SOL    HW2 6212   8.116  11.622   8.941 -1.3547  1.0723 -0.5764
33801SOL     OW 6213   0.742   2.449   3.902  0.0965 -0.1525 -0.0408
33801SOL    HW1 6214   0.789   2.369   3.876 -0.7160 -0.6703  0.0442
33801SOL    HW2 6215   0.732   2.441   3.996 -0.9068 -0.4731 -0.1611
33802SOL     OW 6216   8.958   1.474   3.972 -0.2655 -0.0981 -0.2747
33802SOL    HW1 6217   8.882   1.427   3.937 -1.1266  0.9319  0.1725
33802SOL    HW2 6218   8.984   1.423   4.049 -0.1995 -0.7197 -0.6971
33803SOL     OW 6219   0.309   8.344   3.885  0.0184 -0.3705  0.3059
33803SOL    HW1 6220   0.331   8.437   3.893  0.0291 -0.1699 -1.6442
33803SOL    HW2 6221   0.213   8.342   3.889 -0.3303  0.3074 -3.6210
33804SOL     OW 6222   8.773   8.972  12.416  0.0262 -0.2278 -0.5431
33804SOL    HW1 6223   8.751   8.977  12.323  0.8995 -0.4726 -0.7665
33804SOL    HW2 6224   8.784   9.063  12.443  1.2383 -0.2023 -1.0481
33805SOL     OW 6225   2.448   9.697   0.883  0.0717  0.2946 -0.0563
33805SOL    HW1 6226   2.516   9.759   0.910  1.8143 -1.1075 -0.9862
33805SOL    HW2 6227   2.432   9.644   0.961 -2.5470  2.7329  1.2283
33806SOL     OW 6228  10.202   0.604   5.444 -0.2606  0.1172 -0.1715
33806SOL    HW1 6229  10.144   0.678   5.428 -0.2112  0.6926  2.0626
33806SOL    HW2 6230  10.228   0.612   5.536  2.7222 -0.5771 -0.8362
33807SOL     OW 6231   2.703   1.497   1.693 -0.2017 -0.3450  0.0467
33807SOL    HW1 6232   2.632   1.455   1.644 -0.7012  0.4686  0.0543
33807SOL    HW2 6233   2.661   1.571   1.738  0.2470 -1.0392  1.6829
33808SOL     OW 6234   6.704   1.360   9.940  0.2926  0.2235  0.8435
33808SOL    HW1 6235   6.733   1.314  10.019  2.3591 -0.6819 -0.3539
33808SOL    HW2 6236   6.609   1.349   9.940  0.5301 -2.7586  1.4732
33809SOL     OW 6237   3.129   0.541   9.051 -0.2025 -0.3608  0.3522
33809SOL    HW1 6238   3.088   0.582   9.127 -0.7981  1.7555 -1.0143
33809SOL    HW2 6239   3.056   0.501   9.003 -0.2213  0.4766 -0.3474
33810SOL     OW 6240  10.325   7.790   1.697  0.3022  0.4665  0.0578
33810SOL    HW1 6241  10.303   7.831   1.614  3.0416  0.8169 -0.6024
33810SOL    HW2 6242  10.332   7.697   1.677 -0.7064  0.3183  0.3298
33811SOL     OW 6243  11.175   1.748  11.606  0.0485 -0.1208  0.6254
33811SOL    HW1 6244  11.182   1.833  11.563 -2.4181  0.5419  1.3999
33811SOL    HW2 6245  11.108   1.701  11.556  0.1499 -0.9433  1.2370
33812SOL     OW 6246  12.152   7.211   8.824  0.3244 -0.4623 -0.3050
33812SOL    HW1 6247  12.225   7.154   8.802  1.3632 -0.0257  1.8060
33812SOL    HW2 6248  12.156   7.282   8.759  1.1370 -0.9857 -0.8325
33813SOL     OW 6249   5.660   4.374   6.184 -0.5310 -0.2089 -0.4985
33813SOL    HW1 6250   5.673   4.392   6.091 -0.7200 -1.4065 -0.7775
33813SOL    HW2 6251   5.745   4.343   6.214 -1.0968 -2.3783 -0.9343
33814SOL     OW 6252   9.172   1.191   5.452 -0.2973  0.6019 -0.0214
33814SOL    HW1 6253   9.241   1.124   5.458 -0.6709  0.2276  0.1570
33814SOL    HW2 6254   9.197   1.258   5.515  0.7563  1.2588 -1.1089
33815SOL     OW 6255   1.072   5.072   0.028  0.4548 -0.0671  0.1774
33815SOL    HW1 6256   1.084   5.105  -0.061 -0.9488  1.7051  0.5951
33815SOL    HW2 6257   1.155   5.090   0.071  0.0177  2.3467  0.1592
33816SOL     OW 6258   8.798  10.199   2.907  0.2025 -0.0427 -0.3338
33816SOL    HW1 6259   8.758  10.206   2.993 -0.0546  0.3477 -0.4813
33816SOL    HW2 6260   8.737  10.146   2.856 -0.1603  0.5993 -0.5748
33817SOL     OW 6261  12.594   5.168   4.372  0.4169 -0.1624  0.4034
33817SOL    HW1 6262  12.599   5.155   4.277  1.0414 -0.1983  0.4345
33817SOL    HW2 6263  12.631   5.088   4.408 -0.7150 -0.5723  0.7062
33818SOL     OW 6264   6.080   3.946   2.227 -0.4897  0.2312 -0.0285
33818SOL    HW1 6265   6.094   3.922   2.136 -0.1505  0.2634  0.0136
33818SOL    HW2 6266   6.017   4.018   2.224  1.2086  1.7752 -0.3963
33819SOL     OW 6267   5.975   7.427   7.696 -0.2264 -0.2775  0.1066
33819SOL    HW1 6268   5.995   7.334   7.705 -0.1968 -0.2379  0.4698
33819SOL    HW2 6269   6.060   7.470   7.686 -0.0766 -0.0790  1.9258
33820SOL     OW 6270   3.001   7.903   7.159  0.2065 -0.4130 -0.6471
33820SOL    HW1 6271   3.019   7.997   7.163 -0.5040 -0.2196 -1.5299
33820SOL    HW2 6272   3.083   7.864   7.130  0.4837 -0.0586 -0.3547
33821SOL     OW 6273  10.896   9.554   7.339 -0.4434 -0.9030  1.0060
33821SOL    HW1 6274  10.845   9.624   7.299 -0.2035 -0.9407  0.6248
33821SOL    HW2 6275  10.918   9.586   7.426 -1.3120 -0.9800  1.2604
33822SOL     OW 6276   3.990   9.547   1.805 -0.3725 -0.0924  0.3223
33822SOL    HW1 6277   3.950   9.532   1.891  1.0295 -0.3190  0.9681
33822SOL    HW2 6278   4.051   9.475   1.794  1.2307  1.2238  0.2267
33823SOL     OW 6279   5.684  12.427   3.976 -0.2557 -0.2199 -0.0202
33823SOL    HW1 6280   5.736  12.472   4.042  2.7543 -0.5040 -1.9847
33823SOL    HW2 6281   5.673  12.491   3.906  1.3002 -1.4434 -1.4673
33824SOL     OW 6282   5.977   3.696   6.731  0.1358 -0.1453  0.4518
33824SOL    HW1 6283   5.902   3.740   6.692 -2.2107 -2.3501  2.1165
33824SOL    HW2 6284   6.022   3.653   6.658 -1.7115 -0.7986 -0.3401
33825SOL     OW 6285   9.931   4.367   2.526  0.0433 -0.5698  0.6060
33825SOL    HW1 6286   9.903   4.309   2.454 -1.5762  0.2231  0.5732
33825SOL    HW2 6287   9.858   4.368   2.587  0.4250  0.6950  1.0783
33826SOL     OW 6288   0.522   8.002   4.144 -0.0867 -0.0523 -0.1271
33826SOL    HW1 6289   0.607   7.961   4.130  0.6998  1.6118 -0.4597
33826SOL    HW2 6290   0.520   8.075   4.082 -0.8624  1.2206  1.3173
33827SOL     OW 6291  10.477   7.761   2.908 -0.4463  0.2004 -0.0968
33827SOL    HW1 6292  10.475   7.692   2.975 -0.6188  0.2140 -0.0856
33827SOL    HW2 6293  10.414   7.826   2.939 -0.5276  0.2063 -0.2715
33828SOL     OW 6294  10.146   5.330  12.581  0.0393  0.0754  0.1439
33828SOL    HW1 6295  10.174   5.273  12.509 -0.4653 -0.4819  0.3844
33828SOL    HW2 6296  10.079   5.280  12.626 -0.6157  0.9841  0.1885
33829SOL     OW 6297   9.455   5.160   3.646 -0.4513 -0.3553 -0.2679
33829SOL    HW1 6298   9.505   5.082   3.670 -0.6135  0.0843  1.6680
33829SOL    HW2 6299   9.485   5.181   3.558  0.5373 -1.8591 -0.3300
33830SOL     OW 6300   3.686  10.640   9.543  0.0516 -0.0343 -0.1399
33830SOL    HW1 6301   3.683  10.696   9.621 -1.6372  0.4466 -0.5125
33830SOL    HW2 6302   3.657  10.696   9.472  1.0599 -0.6246 -1.0506
33831SOL     OW 6303   5.785   7.923   5.620 -0.3804 -0.2238 -0.0809
33831SOL    HW1 6304   5.784   7.978   5.699 -1.6894  0.0889 -0.3000
33831SOL    HW2 6305   5.839   7.848   5.645  0.3153  0.5006  0.6740
33832SOL     OW 6306  11.694   9.271   1.570  0.8868  0.1747 -0.0318
33832SOL    HW1 6307  11.762   9.230   1.623  1.2668  0.3865 -0.3505
33832SOL    HW2 6308  11.705   9.233   1.483  0.8794  0.5340 -0.1911
33833SOL     OW 6309   1.875   6.004   6.883 -0.0484  0.3387 -0.4231
33833SOL    HW1 6310   1.893   5.932   6.943  0.3341  0.6145 -0.2050
33833SOL    HW2 6311   1.797   5.977   6.836 -0.6970  0.3777  0.6026
33834SOL     OW 6312   9.115   7.346   2.934  0.1674 -0.3550 -0.3755
33834SOL    HW1 6313   9.155   7.308   2.856 -0.5209  1.1619 -1.5095
33834SOL    HW2 6314   9.098   7.271   2.991  3.5169 -1.2168 -0.3012
33835SOL     OW 6315  11.445  11.402   3.914 -0.2727  0.0360 -0.1375
33835SOL    HW1 6316  11.493  11.477   3.947  0.8672 -0.4741 -0.5908
33835SOL    HW2 6317  11.493  11.326   3.947 -2.0182 -0.5375  1.2232
33836SOL     OW 6318   2.675  11.820  10.973 -0.5257 -0.4560  0.3517
33836SOL    HW1 6319   2.681  11.767  10.893  2.3756  1.0476 -0.5676
33836SOL    HW2 6320   2.760  11.809  11.015 -0.6091  1.7506  1.2331
33837SOL     OW 6321   1.183   9.096   4.227 -0.2092 -0.0670  0.0623
33837SOL    HW1 6322   1.136   9.076   4.146  0.4932  2.8179 -1.2014
33837SOL    HW2 6323   1.234   9.018   4.245 -1.5846 -1.3805 -1.3786
33838SOL     OW 6324   9.802   7.498   6.152  1.1624 -0.2560 -0.4912
33838SOL    HW1 6325   9.828   7.413   6.188 -0.2742 -0.8064 -0.6943
33838SOL    HW2 6326   9.721   7.520   6.198 -0.3110 -0.6034 -2.7291
33839SOL     OW 6327  10.717  10.204  12.063  0.0406  0.1506 -0.1773
33839SOL    HW1 6328  10.665  10.246  12.132  0.9185 -2.0331  1.9614
33839SOL    HW2 6329  10.667  10.126  12.040 -0.4516  1.0587 -2.4456
33840SOL     OW 6330   2.275   6.575   0.854  0.2623 -0.1946  0.6246
33840SOL    HW1 6331   2.204   6.543   0.908 -0.2754  0.2283  0.1798
33840SOL    HW2 6332   2.239   6.652   0.809  0.8339 -0.2714  0.0095
33841SOL     OW 6333   4.185   6.045   6.373 -0.8828 -0.8363 -0.2773
33841SOL    HW1 6334   4.176   6.049   6.468 -0.0692  0.4782 -0.2327
33841SOL    HW2 6335   4.097   6.024   6.342 -1.3997 -0.2504  0.7269
33842SOL     OW 6336   8.852   1.855   1.018  0.1544 -0.5624 -0.0220
33842SOL    HW1 6337   8.821   1.935   1.060  1.0663  0.7115 -1.6705
33842SOL    HW2 6338   8.892   1.805   1.089 -2.2465 -0.5521  1.4290
33843SOL     OW 6339   6.763   8.206   0.130  0.1617  0.3031  0.0301
33843SOL    HW1 6340   6.767   8.129   0.186  1.0747  0.5753  0.3554
33843SOL    HW2 6341   6.807   8.275   0.180  0.0371  0.8339 -0.5726
33844SOL     OW 6342   0.033   0.809   9.545 -0.0990  0.2242 -0.9271
33844SOL    HW1 6343  -0.055   0.782   9.570 -0.5903 -1.5255 -4.0543
33844SOL    HW2 6344   0.089   0.738   9.574  0.4084  1.4246  1.2344
33845SOL     OW 6345   5.122   8.518   2.435  0.0743  0.9238  0.0483
33845SOL    HW1 6346   5.151   8.517   2.526 -2.8747  1.5365  1.1280
33845SOL    HW2 6347   5.160   8.598   2.399  1.3674  0.6180  0.6858
33846SOL     OW 6348   4.659  11.195  11.184 -0.2023  0.0572  0.8442
33846SOL    HW1 6349   4.607  11.160  11.256 -1.2895 -0.1484 -0.0193
33846SOL    HW2 6350   4.598  11.200  11.110  1.4469 -2.2209 -0.8380
33847SOL     OW 6351   5.328   3.703  10.765  0.2660  0.2690 -0.3722
33847SOL    HW1 6352   5.308   3.640  10.697  1.6506 -1.8081  1.0279
33847SOL    HW2 6353   5.243   3.732  10.798 -0.3963 -0.0091 -1.7878
33848SOL     OW 6354   9.091  12.176   7.917  0.1055 -0.2561 -0.0982
33848SOL    HW1 6355   9.138  12.093   7.928  0.8617  0.0900 -0.6528
33848SOL    HW2 6356   9.010  12.151   7.872  0.4874 -0.6597 -0.5775
33849SOL     OW 6357   0.465   8.715   7.283  0.0282  0.0656  0.4240
33849SOL    HW1 6358   0.530   8.645   7.279 -1.3959 -1.3440  0.8567
33849SOL    HW2 6359   0.430   8.710   7.372 -1.1607  0.3193 -0.0149
33850SOL     OW 6360   9.761  10.200   2.654 -0.9175 -0.3583 -0.0535
33850SOL    HW1 6361   9.681  10.164   2.692  0.1140 -1.1003  1.5113
33850SOL    HW2 6362   9.767  10.288   2.691 -0.0984 -0.9553  1.3263
33851SOL     OW 6363   0.203   8.772   5.665  0.4460  0.2769  0.3084
33851SOL    HW1 6364   0.270   8.706   5.648  0.8020  0.1883  1.8288
33851SOL    HW2 6365   0.121   8.723   5.672  0.6716  0.0064  1.1880
33852SOL     OW 6366   8.178   3.011   9.732  0.5724 -0.0073 -0.2974
33852SOL    HW1 6367   8.208   3.006   9.822  0.8051  0.7771 -0.3218
33852SOL    HW2 6368   8.227   2.943   9.686  2.9040  1.7033 -0.4841
33853SOL     OW 6369   9.790   0.175   6.605  0.3147  0.1112  0.1351
33853SOL    HW1 6370   9.696   0.160   6.596  0.6889 -1.3075 -2.6658
33853SOL    HW2 6371   9.811   0.148   6.694 -1.8666  0.1865  0.7187
33854SOL     OW 6372   9.721   7.412   4.304  0.0096 -0.4910  0.0200
33854SOL    HW1 6373   9.767   7.406   4.220  0.2302  0.2888  0.0742
33854SOL    HW2 6374   9.699   7.322   4.326 -0.4323 -0.6605 -1.0827
33855SOL     OW 6375   1.102  12.405   9.711  0.1919 -0.2404 -0.1878
33855SOL    HW1 6376   1.031  12.448   9.663  0.0168 -1.5135 -1.1236
33855SOL    HW2 6377   1.076  12.412   9.803  0.0408  1.3741 -0.3191
33856SOL     OW 6378   3.692   1.658   2.945  0.1563  0.3482  0.3628
33856SOL    HW1 6379   3.665   1.579   2.992  1.9769 -0.4484  0.1503
33856SOL    HW2 6380   3.616   1.682   2.892 -0.6659 -0.8522  0.9591
33857SOL     OW 6381   9.148   1.102   3.111  0.2846  0.3633  0.0692
33857SOL    HW1 6382   9.213   1.094   3.042  1.2492 -0.3157  1.0178
33857SOL    HW2 6383   9.073   1.050   3.080  0.7122  0.0443 -0.4421
33858SOL     OW 6384   6.062   6.644   6.829  0.3243 -0.1087 -0.0256
33858SOL    HW1 6385   6.004   6.573   6.856 -1.4283  1.6899  1.3478
33858SOL    HW2 6386   6.127   6.650   6.899  0.4739 -0.3539 -0.1434
33859SOL     OW 6387   7.384   3.740   8.137 -0.6700  1.1247 -0.8148
33859SOL    HW1 6388   7.374   3.741   8.042  0.4185  0.5276 -0.9502
33859SOL    HW2 6389   7.472   3.774   8.153  0.1943 -1.1562 -0.2094
33860SOL     OW 6390   2.801   1.588  10.649 -0.4818 -0.3052  0.0137
33860SOL    HW1 6391   2.715   1.551  10.629  0.1621 -0.5014 -2.6572
33860SOL    HW2 6392   2.832   1.625  10.567  0.9683  1.9973  1.4884
33861SOL     OW 6393   9.788  11.380   9.219  0.2252  0.2714 -0.3143
33861SOL    HW1 6394   9.732  11.456   9.205  1.0159  1.2694  1.5013
33861SOL    HW2 6395   9.846  11.378   9.144 -0.1669  1.1291 -0.6509
33862SOL     OW 6396   3.995   7.990   6.073 -0.1415  0.2748  0.6028
33862SOL    HW1 6397   4.075   7.938   6.064  0.3832  1.0128  0.9531
33862SOL    HW2 6398   4.015   8.053   6.142 -1.4006 -0.2344  1.4859
33863SOL     OW 6399  11.381   9.872   1.148 -0.0940 -0.7043 -0.7169
33863SOL    HW1 6400  11.405   9.900   1.236 -0.0812  0.9032 -1.1984
33863SOL    HW2 6401  11.296   9.829   1.159 -0.6568  0.5048 -0.0422
33864SOL     OW 6402   8.390   0.504  10.534 -0.4504  0.5326 -0.1064
33864SOL    HW1 6403   8.359   0.559  10.462 -1.1085  1.5005  0.8742
33864SOL    HW2 6404   8.326   0.433  10.539 -0.8190  0.8597 -0.0390
33865SOL     OW 6405   7.567  11.391   8.232  0.0286 -0.4588 -0.8176
33865SOL    HW1 6406   7.516  11.472   8.225  0.7193  0.0340 -0.3013
33865SOL    HW2 6407   7.524  11.331   8.171 -2.2434 -0.6706  0.8596
33866SOL     OW 6408   8.951   2.124   7.380  0.9165 -0.2166 -0.2317
33866SOL    HW1 6409   8.900   2.203   7.396  0.1258 -1.0010  1.3738
33866SOL    HW2 6410   9.024   2.153   7.325 -0.4196  1.2196 -1.3430
33867SOL     OW 6411  10.537   5.167   1.561  0.2927 -0.3806 -0.0697
33867SOL    HW1 6412  10.546   5.181   1.655  0.8563  0.7105 -0.2623
33867SOL    HW2 6413  10.443   5.173   1.545  0.2843  0.7578  0.2645
33868SOL     OW 6414   5.962   4.233   9.896 -0.1895  0.1179 -0.5678
33868SOL    HW1 6415   6.001   4.199   9.815  0.8051  0.0718 -0.0856
33868SOL    HW2 6416   5.954   4.327   9.881  2.2924  0.5265  0.1362
33869SOL     OW 6417   1.131   2.298  10.629  0.1380 -0.1348  0.4127
33869SOL    HW1 6418   1.222   2.280  10.607  0.2958  1.3795 -0.3203
33869SOL    HW2 6419   1.115   2.247  10.709  0.7205 -2.6965 -0.9924
33870SOL     OW 6420  11.741   7.671   0.477 -0.0610 -0.3261  0.5832
33870SOL    HW1 6421  11.746   7.585   0.517  0.3208 -1.4767 -1.8054
33870SOL    HW2 6422  11.831   7.694   0.456 -0.2630  0.1391  0.1806
33871SOL     OW 6423   7.108   3.370  10.845 -0.4479 -0.1516 -0.2823
33871SOL    HW1 6424   7.172   3.436  10.873 -0.1547  0.3403 -2.0071
33871SOL    HW2 6425   7.122   3.361  10.751 -0.0012 -3.2114 -0.0145
33872SOL     OW 6426   1.487   6.043  10.070  0.0364 -0.0603  0.7178
33872SOL    HW1 6427   1.495   6.056   9.976 -0.6968  0.7897  0.7614
33872SOL    HW2 6428   1.542   6.110  10.109 -0.2292  0.0487  0.9047
33873SOL     OW 6429   0.101   2.907  12.000  0.3704  0.1798  0.4001
33873SOL    HW1 6430   0.187   2.878  12.029  0.0359 -2.1215 -0.6668
33873SOL    HW2 6431   0.057   2.827  11.973 -1.6845  1.4431 -0.2261
33874SOL     OW 6432  12.280   5.806   4.101  0.4332  0.7872  0.5213
33874SOL    HW1 6433  12.240   5.820   4.187 -0.3445  0.1655  0.2694
33874SOL    HW2 6434  12.316   5.891   4.077  1.2033  0.8306  1.7309
33875SOL     OW 6435   0.153   8.169   1.393 -0.3758 -0.1138 -0.2240
33875SOL    HW1 6436   0.104   8.107   1.339 -2.2412  2.2633 -1.4473
33875SOL    HW2 6437   0.090   8.201   1.457  1.1244 -0.9532  1.8000
33876SOL     OW 6438   6.129   8.162   4.835  0.0290  0.3428 -0.7780
33876SOL    HW1 6439   6.044   8.125   4.810 -0.2395  0.6441 -0.3215
33876SOL    HW2 6440   6.144   8.232   4.771 -0.7892  1.3008  0.0460
33877SOL     OW 6441  11.035   1.403   4.567 -0.8165  0.3064 -0.4708
33877SOL    HW1 6442  11.086   1.387   4.487 -2.0084 -1.2449 -0.9795
33877SOL    HW2 6443  11.036   1.318   4.612  1.2447  1.5539  2.0785
33878SOL     OW 6444   4.246   1.136  11.587  0.4453  0.2241  0.3565
33878SOL    HW1 6445   4.173   1.079  11.564  0.9926 -0.6840  0.8312
33878SOL    HW2 6446   4.215   1.225  11.567 -0.4935 -0.2184 -0.1752
33879SOL     OW 6447   1.302   8.103  12.633 -0.0022 -0.2998 -0.3031
33879SOL    HW1 6448   1.287   8.035  12.567  0.8914 -1.3188  0.5138
33879SOL    HW2 6449   1.397   8.106  12.643 -0.0824  0.3967  0.3834
33880SOL     OW 6450   6.613  11.306   3.569 -0.4381  0.2508  0.5792
33880SOL    HW1 6451   6.590  11.257   3.490 -0.4544  2.1590 -0.6433
33880SOL    HW2 6452   6.707  11.291   3.579 -0.1484  1.1043 -0.6369
33881SOL     OW 6453   9.365   9.891   0.263  0.2937  0.0531 -0.4270
33881SOL    HW1 6454   9.441   9.878   0.207  0.0535 -0.3898 -0.6529
33881SOL    HW2 6455   9.398   9.941   0.337  0.5741  0.8290 -1.0590
33882SOL     OW 6456  11.828   3.923   7.999 -0.0510  0.1220 -0.3874
33882SOL    HW1 6457  11.817   3.990   7.931  1.3458 -0.1446 -0.9129
33882SOL    HW2 6458  11.767   3.949   8.069 -1.5183  0.4047 -1.7164
33883SOL     OW 6459   4.033  11.398   4.191 -0.4784 -0.5760 -0.4692
33883SOL    HW1 6460   4.071  11.464   4.134  0.6621 -0.5400  0.3063
33883SOL    HW2 6461   4.098  11.327   4.194 -0.2058 -0.2993  1.2636
33884SOL     OW 6462   8.912   3.450   1.917 -0.6600  0.0361 -0.2373
33884SOL    HW1 6463   8.921   3.545   1.926 -1.8796  0.3880 -2.2039
33884SOL    HW2 6464   8.967   3.427   1.842 -0.3600 -0.8261  0.2332
33885SOL     OW 6465   4.067  10.179   4.658 -0.3678  0.5843 -0.5220
33885SOL    HW1 6466   4.026  10.247   4.604 -0.6769  0.6739 -0.1776
33885SOL    HW2 6467   4.137  10.225   4.705  0.4224  0.3416 -1.4352
33886SOL     OW 6468   1.496  12.069   1.839 -0.0062  0.3013 -0.1671
33886SOL    HW1 6469   1.419  12.035   1.793 -1.8026  1.4498  1.8052
33886SOL    HW2 6470   1.474  12.161   1.857  1.6437  0.5296  0.8306
33887SOL     OW 6471   1.928   4.049   9.015 -0.0289  0.5675 -0.1155
33887SOL    HW1 6472   1.906   4.115   9.081 -0.7248  0.3063 -0.0756
33887SOL    HW2 6473   2.014   4.075   8.983  0.3297  0.6783  0.9133
33888SOL     OW 6474   9.256   1.216   0.897  0.3170  0.0634  0.0819
33888SOL    HW1 6475   9.221   1.235   0.810  1.2255 -0.1980 -0.3580
33888SOL    HW2 6476   9.185   1.172   0.943  0.0705 -0.4571 -0.7831
33889SOL     OW 6477  11.722   1.661  12.634  0.3753  0.7106 -0.5500
33889SOL    HW1 6478  11.696   1.632  12.547  0.5609  0.6849 -0.5948
33889SOL    HW2 6479  11.817   1.651  12.637  0.2053 -0.9563  0.2646
33890SOL     OW 6480  11.351  10.392   4.728  0.2924  0.5088 -0.0223
33890SOL    HW1 6481  11.262  10.391   4.762 -0.2908  1.6987 -1.4208
33890SOL    HW2 6482  11.377  10.299   4.725 -1.1172  0.0965 -0.1412
33891SOL     OW 6483   3.535   2.502   6.769 -0.2130 -0.2546  0.0535
33891SOL    HW1 6484   3.498   2.471   6.852 -3.0101  0.8155 -0.6671
33891SOL    HW2 6485   3.480   2.462   6.701  1.5722 -0.5553 -1.2754
33892SOL     OW 6486   6.155   2.964  12.369  0.2596  0.7073 -0.1642
33892SOL    HW1 6487   6.085   3.028  12.359  0.9517  1.5693  0.3594
33892SOL    HW2 6488   6.129   2.890  12.314 -1.4273  0.6909  0.5882
33893SOL     OW 6489   8.714   1.946   7.182  0.4219 -0.4960  0.4503
33893SOL    HW1 6490   8.627   1.909   7.164 -0.1796  0.4741  1.2238
33893SOL    HW2 6491   8.705   1.986   7.268  0.9780  1.5290 -0.3617
33894SOL     OW 6492  10.687   2.713   7.530 -0.2183  0.1022 -0.0725
33894SOL    HW1 6493  10.650   2.772   7.594  0.1545  1.0834 -0.7369
33894SOL    HW2 6494  10.782   2.718   7.544 -0.1117  0.5747 -0.8895
33895SOL     OW 6495   1.094   8.506   5.260 -0.2007 -0.1040 -0.1438
33895SOL    HW1 6496   1.120   8.530   5.349 -0.5437  3.3253 -0.8567
33895SOL    HW2 6497   1.033   8.574   5.233  1.3754  0.1017 -3.6930
33896SOL     OW 6498  11.777   8.974   1.741  0.8962  0.4488  0.5273
33896SOL    HW1 6499  11.807   8.979   1.832  0.0995  2.6403  0.7311
33896SOL    HW2 6500  11.701   8.916   1.744  1.3915 -0.1993  1.0660
33897SOL     OW 6501   1.747   9.347   3.931 -0.2656  0.0186  0.2972
33897SOL    HW1 6502   1.712   9.312   3.849 -2.7202  4.1243 -0.7148
33897SOL    HW2 6503   1.791   9.428   3.906  1.2142  0.1298  2.8539
33898SOL     OW 6504   7.506   1.921   5.204  0.7435  0.0289  0.4006
33898SOL    HW1 6505   7.520   1.976   5.127  0.4876 -0.1246  0.2443
33898SOL    HW2 6506   7.413   1.898   5.201  1.4171 -2.9815 -1.2524
33899SOL     OW 6507   2.143  12.445   3.842  0.1364  0.2455  0.2182
33899SOL    HW1 6508   2.124  12.539   3.842 -0.4906  0.1228  0.7904
33899SOL    HW2 6509   2.058  12.403   3.827  0.4072 -0.2386 -0.0121
33900SOL     OW 6510   3.394   6.030   9.814 -0.2031  0.0667 -0.1423
33900SOL    HW1 6511   3.302   6.020   9.835 -0.3257 -1.0185 -1.1031
33900SOL    HW2 6512   3.406   6.125   9.803 -0.8133  0.3802  1.5479
33901SOL     OW 6513   5.336   5.201   5.318  0.1615 -0.2051 -0.1006
33901SOL    HW1 6514   5.376   5.232   5.237  1.5928  1.7215  1.2450
33901SOL    HW2 6515   5.357   5.108   5.322  1.1225 -0.0641 -1.3560
33902SOL     OW 6516   5.319   2.662   2.541 -0.7529  0.2292  0.1574
33902SOL    HW1 6517   5.354   2.751   2.542 -0.0692 -0.0285 -0.2382
33902SOL    HW2 6518   5.332   2.632   2.451 -1.7566  0.0250  0.0662
33903SOL     OW 6519   4.322   9.060   7.689 -0.0970  0.0093  0.1860
33903SOL    HW1 6520   4.410   9.057   7.727  0.3069  1.0759 -0.6074
33903SOL    HW2 6521   4.277   8.984   7.726  1.5351 -1.2606 -0.3242
33904SOL     OW 6522  10.388   0.307  12.576 -0.4873 -0.5338 -0.3323
33904SOL    HW1 6523  10.430   0.223  12.556  2.7750  0.5884  1.0906
33904SOL    HW2 6524  10.398   0.358  12.495  1.2385 -0.2214  0.0346
33905SOL     OW 6525  10.764   5.667  11.118 -0.5546  0.4798  0.1192
33905SOL    HW1 6526  10.792   5.576  11.126 -0.2393  0.3891 -1.6088
33905SOL    HW2 6527  10.746   5.679  11.024  0.8646  2.6015  0.0420
33906SOL     OW 6528  10.821   3.379  11.186 -0.0765 -0.3266 -0.0054
33906SOL    HW1 6529  10.828   3.436  11.263  0.9320  1.9936 -1.6919
33906SOL    HW2 6530  10.906   3.386  11.143 -0.8003 -1.0634 -1.6561
33907SOL     OW 6531   9.814   7.927   6.415  0.6796  0.1266  0.2747
33907SOL    HW1 6532   9.768   7.905   6.334  0.5806  2.1118 -0.2506
33907SOL    HW2 6533   9.893   7.872   6.412  0.0539 -0.7780 -0.5016
33908SOL     OW 6534   7.621   1.289   0.507  0.1921  0.4984  0.1262
33908SOL    HW1 6535   7.537   1.331   0.488  0.1288  0.6832  0.8213
33908SOL    HW2 6536   7.613   1.202   0.468 -0.4032  0.4350  0.3919
33909SOL     OW 6537   4.516   9.734  11.150  0.6022  0.5747  0.0677
33909SOL    HW1 6538   4.608   9.706  11.157  0.2028 -1.1177 -0.9046
33909SOL    HW2 6539   4.521   9.827  11.127  2.0585  0.5917  0.3457
33910SOL     OW 6540   6.838   2.777   6.234 -0.1165 -0.0647 -0.0418
33910SOL    HW1 6541   6.774   2.747   6.298  0.5271  0.4977  0.8847
33910SOL    HW2 6542   6.813   2.868   6.216  1.2405  0.6499  1.4378
33911SOL     OW 6543  10.783   9.789  12.109  0.3841  0.1042  0.1014
33911SOL    HW1 6544  10.759   9.865  12.162 -0.6235 -0.2463  0.1715
33911SOL    HW2 6545  10.700   9.757  12.075  0.7974 -0.9686  0.0717
33912SOL     OW 6546   3.264   2.635   2.062 -0.7279  0.5463 -0.2395
33912SOL    HW1 6547   3.267   2.719   2.016 -0.8947 -0.9112 -3.1180
33912SOL    HW2 6548   3.176   2.601   2.043 -0.3479 -0.6603  0.0980
33913SOL     OW 6549   0.373   2.035  10.257  0.3099  0.4693 -0.2389
33913SOL    HW1 6550   0.383   2.125  10.288  0.4254  1.2267 -2.3074
33913SOL    HW2 6551   0.304   2.040  10.191 -0.5898 -1.2242  0.5056
33914SOL     OW 6552   5.239  10.394   2.668  0.1379 -0.1547 -0.3185
33914SOL    HW1 6553   5.260  10.480   2.631  1.2556  0.0633  0.7476
33914SOL    HW2 6554   5.165  10.363   2.615 -0.2084  1.3936 -0.8197
33915SOL     OW 6555   5.778   7.514   5.141 -0.2955 -0.8776 -0.0413
33915SOL    HW1 6556   5.755   7.421   5.138 -0.0368 -0.9652  0.5059
33915SOL    HW2 6557   5.874   7.514   5.143 -0.2405 -0.5433 -1.6167
33916SOL     OW 6558  10.532   3.911   3.609 -0.4977  0.8352  0.2265
33916SOL    HW1 6559  10.589   3.962   3.668 -2.0012 -0.2032  2.7442
33916SOL    HW2 6560  10.460   3.970   3.588 -0.7161  0.7372  0.6842
33917SOL     OW 6561   3.774   8.116   3.185  0.3803 -0.1826  0.2859
33917SOL    HW1 6562   3.756   8.024   3.203 -1.5345  0.2207  0.6362
33917SOL    HW2 6563   3.754   8.127   3.092 -1.7939  0.3535  0.7638
33918SOL     OW 6564   9.524   4.394   0.552  0.1985  0.1726 -0.3270
33918SOL    HW1 6565   9.476   4.311   0.558 -0.2699  0.2211 -2.3916
33918SOL    HW2 6566   9.468   4.457   0.596  0.0997 -0.4250  0.4270
33919SOL     OW 6567   8.822  12.079   3.421 -0.1636 -0.1204  0.3733
33919SOL    HW1 6568   8.752  12.015   3.406  0.8134 -2.6298  4.8112
33919SOL    HW2 6569   8.779  12.154   3.461 -0.8219  0.3863 -1.2266
33920SOL     OW 6570  10.361   1.180   9.009  0.1978 -0.0159 -0.0317
33920SOL    HW1 6571  10.298   1.200   9.078  1.0177  1.9377  0.2020
33920SOL    HW2 6572  10.446   1.181   9.054  0.5606 -0.9432 -0.6635
33921SOL     OW 6573  11.339   2.233   6.928 -0.4853  0.6563 -0.0750
33921SOL    HW1 6574  11.278   2.238   6.853 -1.4541  1.2163  0.7203
33921SOL    HW2 6575  11.336   2.321   6.966  1.3843  0.9010 -0.4251
33922SOL     OW 6576   2.553   4.034   1.177 -0.2170 -0.4828  0.0205
33922SOL    HW1 6577   2.635   3.993   1.205 -0.7913 -1.2478  0.6256
33922SOL    HW2 6578   2.563   4.044   1.082  1.8619  2.4272  0.4473
33923SOL     OW 6579   5.224   6.467   7.382  0.3683  0.0890  0.2023
33923SOL    HW1 6580   5.129   6.481   7.376 -0.3077 -3.4561  0.6385
33923SOL    HW2 6581   5.241   6.456   7.475  0.7581 -1.6744 -0.0566
33924SOL     OW 6582   5.564  11.738  11.757 -0.4563 -0.6771  0.0541
33924SOL    HW1 6583   5.473  11.764  11.766 -1.1149 -3.1380  1.2511
33924SOL    HW2 6584   5.566  11.645  11.781  2.7146 -0.1923  2.4800
33925SOL     OW 6585   0.265   3.209   9.758  0.0627 -0.1175 -0.1596
33925SOL    HW1 6586   0.235   3.277   9.819 -0.2224 -0.0440 -0.3754
33925SOL    HW2 6587   0.342   3.247   9.716 -1.2265  0.9012 -1.7156
33926SOL     OW 6588   6.527   2.478   8.366  0.2941  0.3552  0.3649
33926SOL    HW1 6589   6.501   2.568   8.345 -0.7252  0.0867  0.4339
33926SOL    HW2 6590   6.462   2.449   8.430 -0.2585 -0.9279 -0.7481
33927SOL     OW 6591   9.952  12.006   5.096  0.2331  0.2110  0.3233
33927SOL    HW1 6592   9.955  11.914   5.123 -0.3605  0.2590  0.5739
33927SOL    HW2 6593   9.997  12.053   5.166 -1.3455  0.3396  1.2911
33928SOL     OW 6594   9.668   9.588  11.334 -0.2126  0.0164 -0.3175
33928SOL    HW1 6595   9.731   9.658  11.353  1.0018 -0.6538 -1.7316
33928SOL    HW2 6596   9.600   9.599  11.401  0.2329  2.1747 -0.1512
33929SOL     OW 6597   1.590   7.111   3.859 -0.3214  0.5429  0.1182
33929SOL    HW1 6598   1.628   7.081   3.942  0.0948  0.3709 -0.1349
33929SOL    HW2 6599   1.546   7.033   3.824  1.3230  0.0144 -0.8645
33930SOL     OW 6600   0.076   7.019   0.912  0.0449 -0.2324  0.0872
33930SOL    HW1 6601   0.046   7.093   0.965  0.8441  0.2640 -0.1424
33930SOL    HW2 6602   0.130   6.967   0.972  0.0633 -0.2505  0.0550
33931SOL     OW 6603   8.174   5.713   3.946  0.4717 -0.2228 -0.4355
33931SOL    HW1 6604   8.105   5.647   3.943 -0.1549  0.3411  0.8852
33931SOL    HW2 6605   8.185   5.740   3.855  1.0762 -2.4585 -1.0783
33932SOL     OW 6606   4.384  11.134   0.833 -0.4319  0.8691  0.0172
33932SOL    HW1 6607   4.321  11.170   0.895 -2.9563 -0.7326 -1.4269
33932SOL    HW2 6608   4.391  11.201   0.764 -2.0997  0.2838 -0.7561
33933SOL     OW 6609   7.623   4.751   0.624  0.8876  0.3074 -0.1241
33933SOL    HW1 6610   7.635   4.668   0.671  0.8507  0.0007 -0.6488
33933SOL    HW2 6611   7.530   4.753   0.603  1.0798 -0.0012 -1.0050
33934SOL     OW 6612   3.366   3.467   6.378  0.1158 -0.2166 -0.4180
33934SOL    HW1 6613   3.305   3.527   6.334  1.8222  1.5993 -0.4098
33934SOL    HW2 6614   3.442   3.463   6.321  0.7215 -1.0510  0.4168
33935SOL     OW 6615   5.941   7.318   5.449  0.2497  0.3458 -0.5944
33935SOL    HW1 6616   5.962   7.406   5.416  0.1928  0.4980 -0.2345
33935SOL    HW2 6617   5.846   7.312   5.444  0.2278  0.4312 -0.3126
33936SOL     OW 6618   2.123   7.316   5.001 -0.1766 -0.8419 -0.2650
33936SOL    HW1 6619   2.050   7.362   5.041  0.5242 -0.4876  0.6291
33936SOL    HW2 6620   2.195   7.327   5.063  1.1432  0.3209 -1.9104
33937SOL     OW 6621  11.205   9.670   0.326  0.4497 -0.3784 -0.0567
33937SOL    HW1 6622  11.278   9.699   0.381 -0.7582  1.9931  0.4103
33937SOL    HW2 6623  11.162   9.601   0.377  1.2959 -0.5352  0.4599
33938SOL     OW 6624   5.257   2.624   7.157  0.3003 -0.4434 -0.4866
33938SOL    HW1 6625   5.187   2.664   7.208 -0.3610 -0.3722 -1.4217
33938SOL    HW2 6626   5.246   2.530   7.171  1.2056 -0.3743  0.8699
33939SOL     OW 6627   8.573   2.459   6.342 -0.1624 -0.7083  0.2286
33939SOL    HW1 6628   8.498   2.475   6.284 -1.0402 -2.6587  0.7263
33939SOL    HW2 6629   8.643   2.431   6.282  0.1698  1.0151 -0.2289
33940SOL     OW 6630   1.386   7.330   8.226  0.2354  0.0643 -0.1677
33940SOL    HW1 6631   1.408   7.315   8.134 -0.3329 -0.7000 -0.1830
33940SOL    HW2 6632   1.446   7.275   8.275  1.4717  1.4910  0.0062
33941SOL     OW 6633  10.380   8.088   9.321 -0.3014 -0.8518 -0.5792
33941SOL    HW1 6634  10.469   8.065   9.295 -0.2838  1.6487 -3.3381
33941SOL    HW2 6635  10.325   8.023   9.277  0.0731 -1.9976  0.5859
33942SOL     OW 6636   3.319  12.358   4.567 -0.0769  0.0934 -0.3835
33942SOL    HW1 6637   3.309  12.405   4.649 -0.5781 -0.6221 -0.0272
33942SOL    HW2 6638   3.269  12.409   4.504  0.6140  0.8473 -0.3407
33943SOL     OW 6639   2.220   5.921  12.603  0.6162  0.3590  0.6316
33943SOL    HW1 6640   2.212   5.977  12.525  0.9870  0.3038  0.5514
33943SOL    HW2 6641   2.294   5.959  12.651  0.2339  0.5387  1.0768
33944SOL     OW 6642   5.415   0.413  10.008  0.1363  0.1801 -0.3482
33944SOL    HW1 6643   5.475   0.477  10.047 -0.8302  1.2832 -0.6103
33944SOL    HW2 6644   5.381   0.457   9.930 -2.5411  0.4175  0.8595
33945SOL     OW 6645   2.800   9.294   8.549  0.2501  0.3149  0.6922
33945SOL    HW1 6646   2.746   9.328   8.478  2.1831  1.1495 -0.4399
33945SOL    HW2 6647   2.772   9.203   8.559 -1.1776  0.6439  0.0162
33946SOL     OW 6648   8.730   9.237  12.517  0.3798 -0.2132  0.3633
33946SOL    HW1 6649   8.747   9.331  12.519  2.6103 -0.4482 -2.2209
33946SOL    HW2 6650   8.637   9.231  12.495  0.3255  1.3988 -0.0094
33947SOL     OW 6651   1.833   6.081  12.036 -0.4862 -0.6998 -0.3826
33947SOL    HW1 6652   1.748   6.070  11.995 -1.7552  0.2161  1.8505
33947SOL    HW2 6653   1.816   6.077  12.130  2.0862 -1.4642  0.1346
33948SOL     OW 6654  12.090   3.972   0.647  0.7859 -0.9406  0.0546
33948SOL    HW1 6655  12.182   3.945   0.653  0.7837 -1.0495 -0.3694
33948SOL    HW2 6656  12.088   4.058   0.689  0.5217 -2.1383  2.7300
33949SOL     OW 6657   9.065   7.534   3.854 -0.4808  0.1568 -0.9533
33949SOL    HW1 6658   9.138   7.589   3.824 -0.6094  0.5476 -0.5659
33949SOL    HW2 6659   9.028   7.498   3.773 -0.2975  0.5193 -1.2057
33950SOL     OW 6660   5.081   2.957   1.489 -1.1401  0.8875  0.1707
33950SOL    HW1 6661   5.071   3.003   1.406 -0.7678  2.5415  0.9944
33950SOL    HW2 6662   5.067   2.865   1.468 -1.8974  1.3631 -1.5580
33951SOL     OW 6663   6.402   4.374   2.124  0.3361 -0.9426  0.5293
33951SOL    HW1 6664   6.488   4.338   2.103  0.8140 -0.1491  1.0821
33951SOL    HW2 6665   6.341   4.303   2.105  1.0144 -1.2106 -0.7637
33952SOL     OW 6666   3.091   4.597   0.992  0.3410  0.6570  0.9275
33952SOL    HW1 6667   3.168   4.650   1.014  2.6680 -2.2985  0.3951
33952SOL    HW2 6668   3.104   4.573   0.901 -1.5693  0.5456  0.6554
33953SOL     OW 6669   3.576   7.256   0.022  0.4470 -0.1462 -0.1393
33953SOL    HW1 6670   3.630   7.183   0.051 -0.8153 -0.7913  0.6825
33953SOL    HW2 6671   3.579   7.319   0.094  0.8229  0.2388 -0.4798
33954SOL     OW 6672  11.336   8.923   8.156  0.4705 -0.8839  0.1938
33954SOL    HW1 6673  11.415   8.870   8.170  0.9024 -0.3010  0.0213
33954SOL    HW2 6674  11.369   9.011   8.140 -0.2318 -0.5902  0.3238
33955SOL     OW 6675  10.132   0.622   2.628  0.0714  0.0940  0.0668
33955SOL    HW1 6676  10.204   0.683   2.615 -1.3710  2.2107  1.3917
33955SOL    HW2 6677  10.173   0.536   2.628  2.5021  1.1778  0.1980
33956SOL     OW 6678   1.378   1.124   1.143 -0.6975 -0.4879 -0.1943
33956SOL    HW1 6679   1.358   1.170   1.062 -0.3587 -0.7594 -0.4362
33956SOL    HW2 6680   1.471   1.102   1.135 -0.4276  0.2830  0.6707
33957SOL     OW 6681   4.645   0.325   8.655 -0.5584 -0.4151 -0.2281
33957SOL    HW1 6682   4.652   0.336   8.560 -1.7078 -1.1439 -0.4138
33957SOL    HW2 6683   4.578   0.389   8.681  0.7709  0.8172  0.3337
33958SOL     OW 6684   6.883   1.557  12.619  0.4030  0.2187 -0.5866
33958SOL    HW1 6685   6.843   1.514  12.695  1.3740 -1.0505 -0.7468
33958SOL    HW2 6686   6.872   1.495  12.547 -0.0009  1.1649 -1.3677
33959SOL     OW 6687   0.780   2.002  10.325  0.7088  0.1697  0.2970
33959SOL    HW1 6688   0.869   2.022  10.298  1.7182 -1.8853  1.7591
33959SOL    HW2 6689   0.758   1.922  10.277  1.3874 -1.7942  2.9890
33960SOL     OW 6690   8.861  11.322   1.664 -0.4213  0.1186  0.1237
33960SOL    HW1 6691   8.777  11.326   1.618  0.7940 -0.4782 -2.3215
33960SOL    HW2 6692   8.894  11.234   1.647  0.8335  0.4195  0.8296
33961SOL     OW 6693   2.142   3.243   2.081 -0.1188  0.3338  0.2851
33961SOL    HW1 6694   2.149   3.253   1.986 -0.0133 -0.3149  0.2190
33961SOL    HW2 6695   2.107   3.326   2.111  0.2516  0.7042 -0.2764
33962SOL     OW 6696   9.943   6.194   3.229  0.7395 -0.0849  0.2114
33962SOL    HW1 6697   9.927   6.253   3.303 -0.1937 -0.9684  0.7602
33962SOL    HW2 6698   9.893   6.232   3.157 -0.4819 -0.5570  0.7676
33963SOL     OW 6699   5.634   6.104  11.843  0.7348  0.1946 -0.1644
33963SOL    HW1 6700   5.728   6.099  11.829  1.0923 -1.6546  2.2015
33963SOL    HW2 6701   5.623   6.169  11.912  0.3386  0.0735 -0.1108
33964SOL     OW 6702   8.167   6.788  10.627  0.2719  0.0351  0.2720
33964SOL    HW1 6703   8.177   6.882  10.612  2.6444 -0.1193  0.6221
33964SOL    HW2 6704   8.253   6.751  10.609 -1.2854 -2.5816 -2.9195
33965SOL     OW 6705   5.997   2.394   1.114  0.1536  0.6056 -0.0370
33965SOL    HW1 6706   5.971   2.303   1.126  0.3763  0.3794 -1.1733
33965SOL    HW2 6707   5.931   2.444   1.162 -0.4512 -0.1226 -0.0841
33966SOL     OW 6708   6.932   7.854   8.923  0.2476  0.1154  0.2150
33966SOL    HW1 6709   6.912   7.774   8.972  0.4780  0.2450  0.5308
33966SOL    HW2 6710   6.886   7.844   8.840 -0.1315 -0.1214  0.4505
33967SOL     OW 6711   8.163   1.051  10.790 -0.4505 -0.0258 -0.2416
33967SOL    HW1 6712   8.144   1.126  10.733 -0.2669  1.0453  1.0447
33967SOL    HW2 6713   8.257   1.036  10.780 -0.8270 -1.4816 -2.0885
33968SOL     OW 6714   9.096   9.894   9.163 -0.6203  0.0042 -0.7465
33968SOL    HW1 6715   9.165   9.885   9.097  1.1192  0.5443  0.9183
33968SOL    HW2 6716   9.086   9.805   9.199  0.4591  0.2400  0.1798
33969SOL     OW 6717   9.761  10.208   5.347 -0.3277  0.2308  0.3677
33969SOL    HW1 6718   9.743  10.296   5.381 -1.0275  0.8605 -1.5619
33969SOL    HW2 6719   9.845  10.217   5.302  0.0508 -0.3375  0.9383
33970SOL     OW 6720   3.924  10.876   0.797  0.3493  0.3984  0.4743
33970SOL    HW1 6721   3.929  10.961   0.839  4.0240  0.1399  0.9178
33970SOL    HW2 6722   3.986  10.882   0.724  0.1390 -1.6748  0.0676
33971SOL     OW 6723   0.509   0.673   8.049 -1.0712  0.2203  0.2941
33971SOL    HW1 6724   0.433   0.665   8.107 -1.2472 -0.4016 -0.0153
33971SOL    HW2 6725   0.544   0.760   8.067 -1.3555  0.1843  1.0559
33972SOL     OW 6726   1.499  10.337   1.452  0.1266  0.0529  0.4393
33972SOL    HW1 6727   1.425  10.289   1.489  1.5832 -1.4146  1.5966
33972SOL    HW2 6728   1.573  10.315   1.508  1.8083  0.2330 -1.5628
33973SOL     OW 6729   7.147   3.041  11.390 -0.2694  0.8742  0.2200
33973SOL    HW1 6730   7.177   3.062  11.301  1.8220  1.7523  1.0698
33973SOL    HW2 6731   7.161   3.121  11.440  0.9433 -0.3150  1.8908
33974SOL     OW 6732   7.479   2.990   9.902 -0.3859 -0.1784  0.2557
33974SOL    HW1 6733   7.518   3.044   9.834 -1.4286  1.1037  0.6427
33974SOL    HW2 6734   7.538   2.998   9.977 -0.5371  0.4425  0.3118
33975SOL     OW 6735   1.574  10.547   4.319  0.7386  0.3389 -0.1149
33975SOL    HW1 6736   1.585  10.504   4.404 -1.4493  0.5671  0.3252
33975SOL    HW2 6737   1.549  10.637   4.339 -1.4552 -0.0279 -0.9137
33976SOL     OW 6738  12.438   4.036   5.651 -0.3413  0.3409  0.5435
33976SOL    HW1 6739  12.459   4.079   5.569  2.4400 -1.3202  0.2696
33976SOL    HW2 6740  12.517   4.043   5.704 -1.2492 -0.7163  2.1457
33977SOL     OW 6741  10.702   6.177  12.165 -0.2264 -0.3863 -0.2541
33977SOL    HW1 6742  10.689   6.215  12.252  0.1232  1.1593 -0.8331
33977SOL    HW2 6743  10.797   6.173  12.155 -0.2063 -2.9633  0.3913
33978SOL     OW 6744  12.062   2.224   3.478  0.3075 -0.4269 -0.4943
33978SOL    HW1 6745  12.043   2.149   3.535  0.5759 -0.8680 -0.9808
33978SOL    HW2 6746  11.987   2.230   3.420  1.2179 -1.6477 -1.8576
33979SOL     OW 6747   2.765  12.214   9.927  0.3972 -0.7514  0.4392
33979SOL    HW1 6748   2.856  12.217   9.954 -0.0254  0.8421  1.8782
33979SOL    HW2 6749   2.717  12.192  10.007 -0.4998 -1.4180 -0.2610
33980SOL     OW 6750   7.261   6.852   4.098 -0.3134 -0.0423  0.2513
33980SOL    HW1 6751   7.338   6.797   4.116  1.1997  1.4194 -1.3468
33980SOL    HW2 6752   7.255   6.911   4.173  0.4284  0.1238  0.1887
33981SOL     OW 6753  12.202   4.085  10.514 -0.1350 -0.0863  0.3104
33981SOL    HW1 6754  12.186   4.075  10.421 -0.3814  2.0154  0.0864
33981SOL    HW2 6755  12.118   4.063  10.555 -0.1622 -0.5377  0.0235
33982SOL     OW 6756   2.545  12.455   9.311  0.0456 -0.2762 -0.0743
33982SOL    HW1 6757   2.523  12.385   9.371 -0.2206 -1.2686 -1.2862
33982SOL    HW2 6758   2.490  12.529   9.338 -0.4808 -0.8827  0.5341
33983SOL     OW 6759   9.199   0.525   0.872  0.3359 -0.6485  0.1885
33983SOL    HW1 6760   9.212   0.610   0.831 -1.0713 -0.1351  0.7539
33983SOL    HW2 6761   9.144   0.476   0.810  1.4738 -1.3208 -0.3264
33984SOL     OW 6762   9.996   2.628  11.613 -0.1180  0.2629 -0.0831
33984SOL    HW1 6763  10.080   2.613  11.657 -0.3191 -0.2492  0.1366
33984SOL    HW2 6764   9.987   2.723  11.611 -0.0489  0.2994  0.8744
33985SOL     OW 6765   7.840   7.173   4.000  0.0765  0.0527 -0.3044
33985SOL    HW1 6766   7.747   7.160   4.016 -0.5644  1.8432 -2.2224
33985SOL    HW2 6767   7.861   7.254   4.047  0.7254 -0.3712  0.1692
33986SOL     OW 6768   0.325  11.158   1.066 -1.0030  0.2442  0.2589
33986SOL    HW1 6769   0.288  11.089   1.012 -1.5448  0.0215  0.8947
33986SOL    HW2 6770   0.248  11.206   1.099 -0.6159  2.0675 -1.3385
33987SOL     OW 6771   5.574  11.037   3.452  0.2408  0.3581 -0.3372
33987SOL    HW1 6772   5.571  10.998   3.365  1.1208 -1.0443  0.2219
33987SOL    HW2 6773   5.668  11.049   3.469  0.1997 -1.0402  1.0839
33988SOL     OW 6774   3.541   0.401   4.371 -0.2717 -0.1501 -0.4497
33988SOL    HW1 6775   3.596   0.343   4.320  2.4897  1.8498  0.0252
33988SOL    HW2 6776   3.466   0.347   4.397  0.5525 -2.5159 -2.5965
33989SOL     OW 6777   1.636   1.425   2.013 -0.3981  0.0703 -0.2275
33989SOL    HW1 6778   1.689   1.486   2.064  1.3656  0.2942 -2.2042
33989SOL    HW2 6779   1.695   1.354   1.990 -1.1345 -0.0810 -1.8233
33990SOL     OW 6780   4.252   5.449   3.740  0.4076 -0.9395 -0.1331
33990SOL    HW1 6781   4.343   5.470   3.720  0.4417 -1.3072 -0.3713
33990SOL    HW2 6782   4.248   5.353   3.737  0.1044 -0.9431  0.2716
33991SOL     OW 6783  11.345   3.855   9.302  0.5434 -0.6141  0.3581
33991SOL    HW1 6784  11.414   3.852   9.236  0.3743 -0.5247  0.1725
33991SOL    HW2 6785  11.373   3.922   9.364  0.8875 -0.9704  0.5884
33992SOL     OW 6786  10.107   9.644   2.795 -0.1071  0.2885  0.2699
33992SOL    HW1 6787  10.136   9.724   2.751  0.8273  0.6264  1.4330
33992SOL    HW2 6788  10.018   9.663   2.825 -0.0642  0.7212  0.1274
33993SOL     OW 6789   8.244   8.744   0.506  0.2105  0.6659 -0.6866
33993SOL    HW1 6790   8.330   8.781   0.526  0.3767 -1.1525  2.6135
33993SOL    HW2 6791   8.183   8.795   0.559  0.0178 -1.4055  1.1943
33994SOL     OW 6792   9.269   4.656   9.407  0.1254 -0.2245  0.2574
33994SOL    HW1 6793   9.268   4.565   9.437  1.5203 -0.3486  0.0258
33994SOL    HW2 6794   9.219   4.655   9.326  0.8986 -1.0026 -0.2366
33995SOL     OW 6795   2.382   5.327   2.784  0.0417 -0.1692  0.2306
33995SOL    HW1 6796   2.321   5.300   2.853  2.1091 -1.6899  1.5903
33995SOL    HW2 6797   2.357   5.273   2.709 -1.6069  0.7984  0.0194
33996SOL     OW 6798  12.487  11.649   4.029  0.3740 -0.3790  0.5568
33996SOL    HW1 6799  12.570  11.695   4.046  1.4448 -2.1486  0.3962
33996SOL    HW2 6800  12.427  11.683   4.096  1.2204  0.9216  0.6985
33997SOL     OW 6801  11.322   8.388   0.066  0.2012 -0.4163 -0.6016
33997SOL    HW1 6802  11.255   8.376   0.133  0.1246  0.3745 -0.5329
33997SOL    HW2 6803  11.288   8.341  -0.011 -1.2694  1.4079 -1.1321
33998SOL     OW 6804   3.589   3.703   4.358  0.1025  1.1572 -0.3913
33998SOL    HW1 6805   3.658   3.647   4.322  0.5012  0.5226  1.2282
33998SOL    HW2 6806   3.572   3.768   4.291 -0.7173 -1.1762 -2.6109
33999SOL     OW 6807  12.542   0.629   9.205 -0.2104  0.5993  0.1802
33999SOL    HW1 6808  12.467   0.612   9.262  0.0572  0.3514  0.4592
33999SOL    HW2 6809  12.618   0.600   9.255 -0.0271 -0.3048 -0.5809
34000SOL     OW 6810   6.645  12.061  10.442 -0.7104 -0.3487  0.0188
34000SOL    HW1 6811   6.717  12.089  10.386  0.3202  0.2343  1.5549
34000SOL    HW2 6812   6.583  12.135  10.440 -0.5477 -0.2150 -0.1333
34001SOL     OW 6813   6.287  10.207   8.554  0.2511 -0.6660  0.6937
34001SOL    HW1 6814   6.208  10.243   8.595 -0.9736  0.0151 -2.0386
34001SOL    HW2 6815   6.316  10.276   8.494  0.2342 -2.6257 -1.6885
34002SOL     OW 6816   3.689   5.227   5.409  0.1112  0.2512  0.5918
34002SOL    HW1 6817   3.654   5.314   5.426  0.2868  0.1358  1.6702
34002SOL    HW2 6818   3.721   5.230   5.319  0.6689  1.4857  0.8190
34003SOL     OW 6819   6.615   3.283   2.862  0.2437  0.0995  0.1206
34003SOL    HW1 6820   6.535   3.328   2.834  0.2330  0.2997  0.4580
34003SOL    HW2 6821   6.654   3.343   2.925  0.1095 -0.4720  0.7600
34004SOL     OW 6822   2.499   5.894   6.357 -0.1200  0.5394 -0.1507
34004SOL    HW1 6823   2.492   5.984   6.325 -1.2511 -0.4327 -3.0532
34004SOL    HW2 6824   2.408   5.864   6.366  0.1780 -0.9671 -1.5444
34005SOL     OW 6825   2.773  10.974  11.342  0.2765  0.2060 -0.4222
34005SOL    HW1 6826   2.806  11.005  11.258  0.0317 -0.4488 -0.7651
34005SOL    HW2 6827   2.688  10.936  11.322  0.5849 -0.7132 -0.0241
34006SOL     OW 6828   3.425   2.956   4.134  0.4677 -0.3346 -1.0022
34006SOL    HW1 6829   3.337   2.918   4.130  0.2961 -0.0072 -0.3161
34006SOL    HW2 6830   3.418   3.027   4.197  0.6580  1.1926 -2.6022
34007SOL     OW 6831   5.706   2.878   4.878  0.3103 -0.3546 -0.5228
34007SOL    HW1 6832   5.714   2.973   4.885 -1.7246  0.0445 -2.2019
34007SOL    HW2 6833   5.776   2.843   4.932  1.0657  2.0976  0.2115
34008SOL     OW 6834   4.586  11.770   1.460  1.0476  0.1007  0.0419
34008SOL    HW1 6835   4.526  11.844   1.464  1.0916  0.0946  1.0685
34008SOL    HW2 6836   4.558  11.721   1.383 -0.0843  0.2493  0.3389
34009SOL     OW 6837  11.194  11.728   8.660 -0.4770  0.8515 -0.0788
34009SOL    HW1 6838  11.176  11.637   8.682  0.6531  0.4429 -0.7707
34009SOL    HW2 6839  11.192  11.773   8.744  0.9582 -0.1865  0.5579
34010SOL     OW 6840   5.588   6.487   1.889  0.3527 -0.4065 -0.3290
34010SOL    HW1 6841   5.545   6.432   1.954 -0.5829 -0.1136 -0.6826
34010SOL    HW2 6842   5.554   6.575   1.906 -1.5308 -0.6064 -2.4461
34011SOL     OW 6843   7.257   1.252   0.100  0.2092  0.3903 -0.1790
34011SOL    HW1 6844   7.342   1.280   0.136 -0.6231  0.6377  1.7551
34011SOL    HW2 6845   7.203   1.331   0.103 -0.3682  0.0135 -0.4941
34012SOL     OW 6846   9.266  10.269  10.791 -0.1892 -0.0049 -0.5486
34012SOL    HW1 6847   9.260  10.349  10.843 -1.6096  0.1627 -0.9212
34012SOL    HW2 6848   9.351  10.274  10.748  0.4385  0.4997  0.6983
34013SOL     OW 6849  11.649   1.735   9.085 -0.0366  0.1788  0.4299
34013SOL    HW1 6850  11.644   1.724   9.180  1.8709 -0.1102  0.5478
34013SOL    HW2 6851  11.707   1.664   9.057 -0.0747  0.6451 -0.8650
34014SOL     OW 6852  11.552   1.454   3.184  0.1911 -0.2022  0.0811
34014SOL    HW1 6853  11.509   1.410   3.111  0.5223 -0.2433 -0.0911
34014SOL    HW2 6854  11.602   1.525   3.143  0.8377 -0.5748  0.2034
34015SOL     OW 6855   0.545   2.223   7.890  0.3518  0.2633  0.1031
34015SOL    HW1 6856   0.520   2.315   7.877 -0.9748 -0.1101 -0.1543
34015SOL    HW2 6857   0.579   2.196   7.805 -0.0911  0.2814 -0.0851
34016SOL     OW 6858   0.511   0.845   5.709  0.4758 -0.1694  0.5423
34016SOL    HW1 6859   0.450   0.771   5.708  1.1607 -0.7839  1.7535
34016SOL    HW2 6860   0.571   0.826   5.781  2.0684  0.4606 -0.5529
34017SOL     OW 6861   5.452   4.415   2.608  0.2477  0.7551 -0.0904
34017SOL    HW1 6862   5.429   4.364   2.530 -0.6214  0.9205  0.0450
34017SOL    HW2 6863   5.522   4.473   2.579  0.5093  0.2385 -0.5255
34018SOL     OW 6864   5.329   2.157  11.778 -0.0097 -0.2034 -0.4205
34018SOL    HW1 6865   5.268   2.213  11.730 -2.4662 -1.7525  0.7301
34018SOL    HW2 6866   5.366   2.099  11.711  1.1503  1.4470 -1.3030
34019SOL     OW 6867   5.178   0.977   8.886 -0.3724 -0.4225  0.2719
34019SOL    HW1 6868   5.268   0.944   8.885  0.1665  1.0041 -0.5000
34019SOL    HW2 6869   5.187   1.071   8.901 -1.8353 -0.4951  1.9253
34020SOL     OW 6870   8.786   9.654   2.296  0.2100 -0.0902  0.3493
34020SOL    HW1 6871   8.879   9.640   2.279  0.2728 -2.4315  2.0989
34020SOL    HW2 6872   8.783   9.715   2.369  0.3207  0.7514 -0.3411
34021SOL     OW 6873   0.467  12.124   0.833 -0.6320  0.1087  0.2346
34021SOL    HW1 6874   0.556  12.124   0.796 -0.6140  0.4293  0.2826
34021SOL    HW2 6875   0.446  12.031   0.843  0.0933  0.0311  1.1748
34022SOL     OW 6876   2.777   6.366   6.032 -0.3927  0.3665  0.1858
34022SOL    HW1 6877   2.820   6.349   5.948 -1.7720  1.4870 -0.8042
34022SOL    HW2 6878   2.843   6.413   6.084 -0.0233  1.0207 -0.8489
34023SOL     OW 6879   1.618   3.567  12.543 -0.2219  0.1426  0.0748
34023SOL    HW1 6880   1.530   3.601  12.529 -0.0096  0.5481 -0.3331
34023SOL    HW2 6881   1.631   3.572  12.637  0.1381  2.1014 -0.0313
34024SOL     OW 6882   4.512   2.163  12.347  0.4802  0.3627  0.1839
34024SOL    HW1 6883   4.453   2.102  12.390 -0.1743  0.4909 -0.5190
34024SOL    HW2 6884   4.599   2.136  12.375  0.1538 -0.4740  0.4117
34025SOL     OW 6885   0.108   8.979   7.842 -0.0273 -0.6932 -0.4768
34025SOL    HW1 6886   0.091   9.067   7.875 -2.1938 -0.9539 -0.7244
34025SOL    HW2 6887   0.143   8.992   7.754  0.6081 -0.0819 -0.1369
34026SOL     OW 6888   9.099   6.255  11.800 -0.2623  0.6018 -0.0401
34026SOL    HW1 6889   9.039   6.288  11.734  0.4000  0.9736 -0.4686
34026SOL    HW2 6890   9.062   6.284  11.883  1.2077  4.0823 -0.4453
34027SOL     OW 6891   7.853  12.039   0.605 -0.1772 -0.0342  0.0910
34027SOL    HW1 6892   7.837  11.998   0.690 -2.7646  0.8831  0.1653
34027SOL    HW2 6893   7.783  12.004   0.549 -0.9002  2.2300 -0.5257
34028SOL     OW 6894  11.135  10.032   4.314 -0.6359 -0.0967  0.3140
34028SOL    HW1 6895  11.154   9.995   4.228 -0.0883  0.5865  0.1382
34028SOL    HW2 6896  11.215  10.017   4.365 -0.4847  0.6329  0.3069
34029SOL     OW 6897   6.920  11.511  11.276  0.0469 -0.1093 -0.4871
34029SOL    HW1 6898   6.864  11.569  11.225  0.5342  0.4743 -0.3649
34029SOL    HW2 6899   6.924  11.430  11.225  1.0340  0.6777 -1.6863
34030SOL     OW 6900   8.326  12.133   4.572  0.0348  0.3501 -0.4683
34030SOL    HW1 6901   8.307  12.080   4.494 -0.9831 -0.2666  0.1877
34030SOL    HW2 6902   8.382  12.204   4.539  0.7357 -0.6526 -1.5116
34031SOL     OW 6903   3.750   9.987   4.798  0.2096 -0.2254  0.2016
34031SOL    HW1 6904   3.832   9.947   4.826  0.4252  0.1074  0.0503
34031SOL    HW2 6905   3.776  10.064   4.747 -0.1902 -0.6039 -0.5848
34032SOL     OW 6906  12.227   7.007   8.224  0.3691 -0.3357 -0.0316
34032SOL    HW1 6907  12.277   7.051   8.155  1.1343  2.2278  2.0161
34032SOL    HW2 6908  12.151   7.064   8.238  0.3521 -0.6811  1.3815
34033SOL     OW 6909   3.045  12.409   3.010 -0.5567  0.0444  0.1089
34033SOL    HW1 6910   3.025  12.457   2.930 -1.1649 -1.7075 -0.8371
34033SOL    HW2 6911   2.969  12.423   3.066 -0.2488  1.0500  0.3020
34034SOL     OW 6912   7.953   9.333   2.623 -0.0185  0.2885  0.0116
34034SOL    HW1 6913   7.914   9.389   2.690  1.0472  1.2153 -0.1074
34034SOL    HW2 6914   7.898   9.254   2.622 -1.2123  1.0879  0.5858
34035SOL     OW 6915   6.896   3.589   6.592 -0.6634 -0.5458 -0.5414
34035SOL    HW1 6916   6.920   3.678   6.620  2.1668 -0.9867 -1.2835
34035SOL    HW2 6917   6.887   3.596   6.497  1.5909 -1.3927 -0.8633
34036SOL     OW 6918   4.070   9.631  11.785 -0.3481 -0.4771  0.0926
34036SOL    HW1 6919   4.160   9.658  11.765 -0.1039 -0.6242  0.9671
34036SOL    HW2 6920   4.046   9.572  11.713 -0.5755  1.3161 -1.3802
34037SOL     OW 6921  11.829  11.829   5.417  0.5113  0.0281  0.3301
34037SOL    HW1 6922  11.820  11.905   5.361  0.6004 -0.2677 -0.0877
34037SOL    HW2 6923  11.920  11.832   5.447  0.6271 -0.1349 -0.0051
34038SOL     OW 6924   6.961   7.336   6.672 -0.2831 -0.1053 -0.1466
34038SOL    HW1 6925   6.968   7.268   6.605 -2.6282 -1.0926  0.5174
34038SOL    HW2 6926   7.021   7.308   6.741  1.7358  0.6352 -1.4874
34039SOL     OW 6927  10.507  11.557   1.087  0.0890 -0.4278 -0.0709
34039SOL    HW1 6928  10.599  11.535   1.071  0.0260 -0.2397 -0.7284
34039SOL    HW2 6929  10.458  11.502   1.026 -0.1753  0.1583 -0.3952
34040SOL     OW 6930   1.344   8.222   0.450  0.1139  0.2771 -0.6784
34040SOL    HW1 6931   1.262   8.248   0.407  0.4211 -1.8252 -2.7623
34040SOL    HW2 6932   1.391   8.172   0.383  2.9129  0.9823  0.6159
34041SOL     OW 6933   8.941   8.505   0.480 -0.3906  0.2189  0.3665
34041SOL    HW1 6934   9.024   8.460   0.496 -0.6981 -0.3354  0.4409
34041SOL    HW2 6935   8.948   8.538   0.391  0.0509  0.4842  0.5001
34042SOL     OW 6936   7.388   0.179   1.115  0.1170 -0.5430  0.3953
34042SOL    HW1 6937   7.416   0.219   1.032 -1.0883  0.3141  0.3735
34042SOL    HW2 6938   7.327   0.110   1.089  0.1894 -0.6580  0.5346
34043SOL     OW 6939  11.759   6.128   8.516 -0.2014 -0.3671  0.4770
34043SOL    HW1 6940  11.679   6.176   8.532  0.8766  2.0998 -0.9572
34043SOL    HW2 6941  11.745   6.085   8.431 -0.6319 -1.4224  1.0717
34044SOL     OW 6942   8.832   3.176   3.458  0.6430 -0.7840 -0.1667
34044SOL    HW1 6943   8.840   3.086   3.492  0.3953  0.3032  3.1925
34044SOL    HW2 6944   8.870   3.231   3.527  0.1688  1.7743 -1.8019
34045SOL     OW 6945  10.087   4.236   4.473  0.4786  0.4358  0.2660
34045SOL    HW1 6946  10.099   4.247   4.568  0.0499 -2.5641  0.7475
34045SOL    HW2 6947  10.176   4.235   4.438  0.6905  0.4110  0.7875
34046SOL     OW 6948   9.604   6.539   6.048  0.0307 -0.1923 -0.2773
34046SOL    HW1 6949   9.674   6.595   6.013 -0.1551  0.0470 -0.2668
34046SOL    HW2 6950   9.523   6.579   6.017 -0.3470  1.7703  2.7577
34047SOL     OW 6951   4.825   6.034   5.515 -0.4551 -0.1606 -0.7579
34047SOL    HW1 6952   4.817   6.064   5.606  0.5051  0.4065 -0.8436
34047SOL    HW2 6953   4.833   6.115   5.465  0.5233 -0.5063 -1.1824
34048SOL     OW 6954   7.090   5.717   2.524  0.1147 -0.2963 -0.1063
34048SOL    HW1 6955   7.081   5.810   2.504  0.6794 -0.5085 -1.4748
34048SOL    HW2 6956   7.105   5.713   2.618  1.7064  1.1186 -0.2672
34049SOL     OW 6957  12.229   8.672   6.004 -0.1725  0.8500 -0.3146
34049SOL    HW1 6958  12.163   8.724   6.049 -0.4107  1.7200 -1.6157
34049SOL    HW2 6959  12.192   8.584   6.000 -1.0859  1.2417 -0.6925
34050SOL     OW 6960  11.969   1.258   0.972  0.5979  0.2191 -0.9471
34050SOL    HW1 6961  11.981   1.268   1.066 -0.4623 -1.3185 -0.6154
34050SOL    HW2 6962  12.058   1.259   0.936  0.9835  1.6043 -0.0555
34051SOL     OW 6963  10.717   2.651   5.344  0.6076 -0.3020  0.6587
34051SOL    HW1 6964  10.682   2.564   5.329 -0.9198  0.0664  1.8329
34051SOL    HW2 6965  10.792   2.658   5.285 -0.8310 -1.4250 -1.3881
34052SOL     OW 6966   6.961   4.932   5.114  0.8641  0.5094 -0.0434
34052SOL    HW1 6967   6.912   4.986   5.053  0.5590 -1.8678 -2.0841
34052SOL    HW2 6968   6.901   4.915   5.186 -1.5434 -2.2245 -2.4160
34053SOL     OW 6969   1.638   4.041   7.663 -0.1803  0.0754  1.2096
34053SOL    HW1 6970   1.628   4.117   7.719  1.9292  0.8058  0.6915
34053SOL    HW2 6971   1.711   3.992   7.701 -0.4964 -0.8655  0.6540
34054SOL     OW 6972   4.041   2.605  11.411  0.5474 -0.4248 -0.0070
34054SOL    HW1 6973   3.949   2.579  11.403  0.4226  0.3579 -1.4763
34054SOL    HW2 6974   4.038   2.698  11.432  1.0073 -0.3017 -0.4734
34055SOL     OW 6975   2.821   3.134   0.294 -0.2121 -0.4769 -0.1143
34055SOL    HW1 6976   2.794   3.162   0.207 -0.2319 -2.3533 -0.7416
34055SOL    HW2 6977   2.740   3.109   0.338 -0.2955  1.1604  0.7544
34056SOL     OW 6978   7.646   1.387   6.324  0.3708  0.2323  0.1351
34056SOL    HW1 6979   7.624   1.317   6.264  0.8105 -1.8175  2.2193
34056SOL    HW2 6980   7.561   1.425   6.349 -0.0047 -0.6099  0.1573
34057SOL     OW 6981   7.758   2.503   6.303 -0.2553 -0.0156 -0.1182
34057SOL    HW1 6982   7.774   2.593   6.334 -2.7809 -0.0714  1.6501
34057SOL    HW2 6983   7.710   2.514   6.221  1.2037  0.1813 -0.9811
34058SOL     OW 6984   4.975   1.547   1.031 -0.5757 -0.3766 -0.3888
34058SOL    HW1 6985   5.029   1.531   1.108  0.4087 -0.1832 -1.0316
34058SOL    HW2 6986   4.935   1.462   1.012  0.8498 -0.9533 -0.9163
34059SOL     OW 6987   2.343  10.249  11.964  0.1605 -0.4354  0.1382
34059SOL    HW1 6988   2.362  10.155  11.967 -1.3031 -0.7504  0.0590
34059SOL    HW2 6989   2.324  10.267  11.872  0.6179 -0.0095  0.1202
34060SOL     OW 6990  10.237   0.759   3.836  0.1583 -0.1313 -0.1561
34060SOL    HW1 6991  10.176   0.777   3.766  0.1043  2.9208  0.5342
34060SOL    HW2 6992  10.304   0.827   3.828  0.5700 -0.1623  2.2660
34061SOL     OW 6993  12.186   0.247   7.121  0.5760 -0.1120 -0.0619
34061SOL    HW1 6994  12.160   0.337   7.103 -1.4361 -0.8888 -1.3935
34061SOL    HW2 6995  12.193   0.242   7.216 -0.3473  1.1891  0.0931
34062SOL     OW 6996   4.972   3.716   2.029 -0.1186  0.0447 -0.2655
34062SOL    HW1 6997   4.882   3.689   2.010 -0.2051  1.8019 -2.7765
34062SOL    HW2 6998   4.966   3.810   2.046  0.8350 -0.3797  3.3632
34063SOL     OW 6999   4.495   7.263   3.550  0.3412  0.1413 -0.5167
34063SOL    HW1 7000   4.523   7.351   3.573 -1.3373  0.5653  0.0446
34063SOL    HW2 7001   4.401   7.271   3.533  0.4709 -1.2038 -2.2528
34064SOL     OW 7002  10.968   1.477   5.259  0.4222  0.0056 -0.3441
34064SOL    HW1 7003  10.882   1.440   5.278  1.1215 -0.9632  1.1654
34064SOL    HW2 7004  10.960   1.570   5.280 -0.0290 -0.2447  0.6467
34065SOL     OW 7005   6.728   7.379   5.290 -0.1149  0.1416  0.4957
34065SOL    HW1 7006   6.727   7.367   5.384 -1.0377 -0.9731  0.3573
34065SOL    HW2 7007   6.658   7.323   5.257  1.5739 -1.2104 -1.0322
34066SOL     OW 7008   7.576   0.333   6.237 -0.5749  0.2315 -0.0541
34066SOL    HW1 7009   7.589   0.419   6.196 -0.5343 -0.2756 -1.1507
34066SOL    HW2 7010   7.516   0.288   6.178  2.5985 -2.0446 -1.8813
34067SOL     OW 7011   8.972   1.885   7.130 -0.2979  0.2751  0.7422
34067SOL    HW1 7012   8.880   1.879   7.158  0.2895 -1.4738  2.5364
34067SOL    HW2 7013   9.009   1.953   7.187  0.1284 -0.9885  2.0336
34068SOL     OW 7014   9.801  12.186   4.355  0.0562 -0.7020  0.0661
34068SOL    HW1 7015   9.813  12.254   4.421 -0.5292 -1.4365  0.9642
34068SOL    HW2 7016   9.726  12.215   4.303  1.9343  1.0280 -1.8204
34069SOL     OW 7017  10.507   7.985   6.599 -0.6313  0.1658  0.1967
34069SOL    HW1 7018  10.411   7.986   6.606 -0.6000 -0.0849  0.6914
34069SOL    HW2 7019  10.536   8.053   6.660 -0.4206 -1.0279  1.4792
34070SOL     OW 7020   5.372   0.041   0.133  0.2148  0.4368 -0.2658
34070SOL    HW1 7021   5.466   0.038   0.146  0.3751 -2.1368 -1.3565
34070SOL    HW2 7022   5.360   0.099   0.057  0.9392  0.5237 -0.3175
34071SOL     OW 7023   5.425   0.441   9.202 -0.5796  0.4515 -0.2924
34071SOL    HW1 7024   5.442   0.532   9.228 -0.1380  0.2122  0.2998
34071SOL    HW2 7025   5.417   0.394   9.285 -1.4596  0.0605 -0.5930
34072SOL     OW 7026   0.407   8.094   5.646 -0.0486 -0.0121  0.2423
34072SOL    HW1 7027   0.400   8.015   5.592 -1.3343 -0.1672  0.6080
34072SOL    HW2 7028   0.444   8.063   5.729 -3.0369 -0.8037  1.4103
34073SOL     OW 7029  11.587  11.075  10.023 -0.3632 -0.2064  0.3180
34073SOL    HW1 7030  11.613  11.159  10.059  0.8147 -0.5449  0.2959
34073SOL    HW2 7031  11.564  11.093   9.932  1.1415 -0.1090 -0.0615
34074SOL     OW 7032   8.542  10.210   8.514  0.0665  0.0107 -0.1761
34074SOL    HW1 7033   8.570  10.288   8.562 -0.6149 -0.9070  1.8398
34074SOL    HW2 7034   8.608  10.144   8.535  0.6477  0.0266 -1.8779
34075SOL     OW 7035   8.429   2.014   3.296  0.0562 -0.1379  0.2419
34075SOL    HW1 7036   8.345   1.971   3.312  0.2645 -0.7848 -0.3620
34075SOL    HW2 7037   8.493   1.943   3.299  0.8898  0.6082  2.8465
34076SOL     OW 7038   5.115   7.542   6.517  0.3997 -0.0861 -0.0690
34076SOL    HW1 7039   5.176   7.616   6.512 -0.9506  1.2297  1.5595
34076SOL    HW2 7040   5.135   7.500   6.600 -1.0634  0.5730  0.6615
34077SOL     OW 7041   1.459   3.142   4.413 -0.3618  0.2365 -0.2782
34077SOL    HW1 7042   1.416   3.068   4.372  1.2433 -0.6957 -0.3622
34077SOL    HW2 7043   1.394   3.178   4.472 -1.4991 -0.6236 -0.9651
34078SOL     OW 7044   9.987  11.117   0.136 -0.0897  0.0516 -0.0075
34078SOL    HW1 7045  10.005  11.081   0.049 -0.9194  0.0586 -0.1873
34078SOL    HW2 7046   9.907  11.073   0.165 -0.2668  0.6361  0.4123
34079SOL     OW 7047   6.237  10.222   6.874 -0.3713 -0.1204 -0.0227
34079SOL    HW1 7048   6.150  10.190   6.898 -0.1916 -0.0637  0.7547
34079SOL    HW2 7049   6.289  10.212   6.954  0.5103 -0.7341 -0.6437
34080SOL     OW 7050   4.054   2.801   4.357 -0.3818 -0.4955 -0.2745
34080SOL    HW1 7051   4.120   2.770   4.295 -1.4143 -1.9710 -0.6707
34080SOL    HW2 7052   4.054   2.736   4.427 -1.2290 -0.3663 -0.1430
34081SOL     OW 7053   6.307   2.349   8.948 -0.0172  0.4712  0.6271
34081SOL    HW1 7054   6.330   2.421   8.889  1.2105 -0.0846  0.3952
34081SOL    HW2 7055   6.360   2.276   8.919  1.1078  0.3405  2.7996
34082SOL     OW 7056   1.041   1.569   2.019 -0.0616 -0.6862 -0.1706
34082SOL    HW1 7057   1.086   1.546   1.937  0.8094 -0.4571  0.2295
34082SOL    HW2 7058   0.962   1.515   2.019  0.7072 -1.8508 -0.4187
34083SOL     OW 7059   8.169   0.410  11.758  0.6998  0.0619  0.0417
34083SOL    HW1 7060   8.247   0.452  11.794 -0.5945  2.0466  0.6564
34083SOL    HW2 7061   8.104   0.415  11.828  0.1544 -2.1268 -0.2347
34084SOL     OW 7062   7.070   5.997   4.930 -0.1380  0.7125  1.2461
34084SOL    HW1 7063   6.982   6.023   4.955 -0.4044  0.7935  0.2489
34084SOL    HW2 7064   7.113   5.977   5.013 -1.7281 -1.4257  1.6422
34085SOL     OW 7065   2.741   3.642   0.870  0.1481  0.1019 -0.2578
34085SOL    HW1 7066   2.658   3.603   0.895  0.1257  0.2254 -0.1352
34085SOL    HW2 7067   2.786   3.659   0.953 -1.0325  2.9716 -0.0787
34086SOL     OW 7068   5.109   7.837   0.834  0.5813  0.2089 -0.2305
34086SOL    HW1 7069   5.053   7.773   0.879  1.5699 -1.5280 -1.3606
34086SOL    HW2 7070   5.093   7.821   0.741  1.2168  1.3042 -0.5399
34087SOL     OW 7071   1.778   8.031   0.434  0.1015  0.0521  0.6623
34087SOL    HW1 7072   1.804   7.975   0.360  2.1329  0.5469  0.9522
34087SOL    HW2 7073   1.753   7.970   0.503 -1.3440 -0.4201 -0.2351
34088SOL     OW 7074  11.916   1.602   4.966 -0.0088 -0.4992 -0.1232
34088SOL    HW1 7075  11.934   1.687   4.924 -1.7236 -1.1017 -2.2612
34088SOL    HW2 7076  11.846   1.621   5.029 -0.2104 -0.2752 -0.4107
34089SOL     OW 7077   2.128   1.216   1.927  0.4497 -0.5650 -0.3027
34089SOL    HW1 7078   2.043   1.186   1.959  0.3499  0.1737  0.1641
34089SOL    HW2 7079   2.126   1.198   1.833 -0.5441  0.1415 -0.4392
34090SOL     OW 7080   5.286  10.975   8.949  0.6696  0.4288 -0.4914
34090SOL    HW1 7081   5.286  11.071   8.941  0.0592  0.5380  0.5865
34090SOL    HW2 7082   5.202  10.948   8.912 -0.2607  0.5624  1.3784
34091SOL     OW 7083   7.507   5.787   1.217  0.2310  0.7557 -0.4307
34091SOL    HW1 7084   7.455   5.729   1.162 -0.8135 -0.7881  2.0319
34091SOL    HW2 7085   7.598   5.766   1.195  0.1173  3.4392 -4.7448
34092SOL     OW 7086   3.638   0.676   8.063 -0.1491  0.0295 -0.0010
34092SOL    HW1 7087   3.722   0.632   8.078  0.6324  1.1858 -0.8263
34092SOL    HW2 7088   3.620   0.663   7.970 -0.5409  0.3624  0.0248
34093SOL     OW 7089   3.455   8.055   4.656 -0.2454 -0.0584 -1.1426
34093SOL    HW1 7090   3.524   7.989   4.662  0.5848  0.6822 -2.2628
34093SOL    HW2 7091   3.489   8.120   4.595 -1.0265  1.4428 -0.0323
34094SOL     OW 7092   8.746   5.716   1.969  0.4655  0.2149  0.2371
34094SOL    HW1 7093   8.677   5.664   1.927  0.0024  1.6941 -0.9318
34094SOL    HW2 7094   8.816   5.653   1.986 -0.7910 -1.1517  0.6227
34095SOL     OW 7095   3.576   1.208   4.461  0.2478 -0.2248  0.0487
34095SOL    HW1 7096   3.543   1.140   4.520  2.8571 -2.5585 -0.9565
34095SOL    HW2 7097   3.533   1.190   4.377  0.5563 -0.3293 -0.0882
34096SOL     OW 7098  12.440  11.131  11.062  0.0369  0.3034 -0.7383
34096SOL    HW1 7099  12.418  11.123  10.969  1.1730  2.2095 -1.2432
34096SOL    HW2 7100  12.511  11.195  11.063 -0.0461  0.4094  1.4722
34097SOL     OW 7101   4.503   2.765   0.171  0.1819 -0.3680 -0.0665
34097SOL    HW1 7102   4.570   2.708   0.133  0.4077 -2.5654  3.1918
34097SOL    HW2 7103   4.441   2.705   0.212 -0.0001  1.6564  2.9371
34098SOL     OW 7104   7.238   6.909   0.238  0.3523  0.8628 -0.0577
34098SOL    HW1 7105   7.180   6.944   0.306  2.3541  0.6071  1.8865
34098SOL    HW2 7106   7.224   6.967   0.163 -1.3927  1.6071  0.7665
34099SOL     OW 7107   8.803   5.340   1.861  0.2519 -0.0021  0.1828
34099SOL    HW1 7108   8.849   5.256   1.860  1.9559  0.8859  0.1289
34099SOL    HW2 7109   8.765   5.347   1.773 -0.7971 -1.1538  0.5204
34100SOL     OW 7110   5.050   8.531   9.200  0.4232 -0.2306 -0.0732
34100SOL    HW1 7111   5.143   8.539   9.181  0.8900 -2.7794  0.6529
34100SOL    HW2 7112   5.029   8.440   9.178 -1.6631  0.0136  0.6583
34101SOL     OW 7113  11.332   3.563  11.081 -0.0303 -0.0194  0.1098
34101SOL    HW1 7114  11.395   3.520  11.024  1.1907 -0.2509  1.5556
34101SOL    HW2 7115  11.383   3.589  11.158 -1.7298 -0.4203  1.4506
34102SOL     OW 7116  12.636  10.290   8.166 -0.3111  0.0993 -0.2165
34102SOL    HW1 7117  12.637  10.194   8.163 -0.2021  0.0975 -0.1476
34102SOL    HW2 7118  12.554  10.312   8.209  0.4820 -0.0135  1.4561
34103SOL     OW 7119   5.943  12.030  12.500  0.1696  0.3004 -0.3284
34103SOL    HW1 7120   5.901  11.947  12.522 -1.7159  1.0819 -0.7813
34103SOL    HW2 7121   6.036  12.009  12.494 -0.4313 -2.2134 -2.3779
34104SOL     OW 7122   8.636   2.265   3.281  0.2718  0.0352  0.4066
34104SOL    HW1 7123   8.630   2.357   3.255  2.2222  1.1379  3.3224
34104SOL    HW2 7124   8.715   2.233   3.238  0.1262  0.0145  0.1539
34105SOL     OW 7125   1.624   3.496   0.461 -0.3428  0.0876 -0.0367
34105SOL    HW1 7126   1.718   3.489   0.478 -0.1818  0.3260 -0.7999
34105SOL    HW2 7127   1.587   3.415   0.496  0.1976 -0.1942 -0.1056
34106SOL     OW 7128   0.073   0.894   7.001  0.3516 -0.0364  0.7960
34106SOL    HW1 7129   0.087   0.944   6.921 -0.5215  0.4627  0.9349
34106SOL    HW2 7130  -0.011   0.926   7.034  0.6549 -0.2975  1.8623
34107SOL     OW 7131   0.575   1.698  12.191 -0.3806  0.5911  0.3261
34107SOL    HW1 7132   0.515   1.712  12.117  0.3417 -1.6655 -0.7774
34107SOL    HW2 7133   0.517   1.684  12.266 -1.1655  1.4175 -0.1106
34108SOL     OW 7134   1.013   2.822   0.560  0.4154  0.0043 -0.1495
34108SOL    HW1 7135   1.101   2.822   0.600  0.3054 -1.9077  0.1810
34108SOL    HW2 7136   0.954   2.830   0.635  0.2704 -0.6340 -0.1958
34109SOL     OW 7137   6.216  10.737  11.134  0.1667 -0.2289 -0.1084
34109SOL    HW1 7138   6.293  10.728  11.077  1.2942  1.0831  1.1406
34109SOL    HW2 7139   6.185  10.826  11.118 -0.4777 -0.4036  0.1565
34110SOL     OW 7140   3.737   9.982   2.142  0.7410 -0.1115  0.0428
34110SOL    HW1 7141   3.823   9.990   2.101  0.5471  0.8595 -0.2051
34110SOL    HW2 7142   3.675   9.995   2.070  0.3905 -0.2854  0.3124
34111SOL     OW 7143   5.080   0.897   9.889  0.3875 -0.0027 -0.4114
34111SOL    HW1 7144   5.061   0.922   9.979  2.1984 -0.3620  0.1238
34111SOL    HW2 7145   5.137   0.967   9.856  0.2030 -0.1623 -1.0876
34112SOL     OW 7146   5.827   2.803   3.660 -0.4152  0.3188 -0.1022
34112SOL    HW1 7147   5.804   2.889   3.626 -0.6104 -0.2367 -1.4185
34112SOL    HW2 7148   5.922   2.808   3.674 -0.3442  0.5916 -0.6477
34113SOL     OW 7149   9.004  11.626   7.568  0.0399  0.0942 -0.2802
34113SOL    HW1 7150   9.050  11.710   7.576 -0.6866  0.3673  1.4199
34113SOL    HW2 7151   9.067  11.568   7.526  2.6702 -0.0116  3.3678
34114SOL     OW 7152   0.055   1.191  12.269  0.0698  0.5297 -0.1673
34114SOL    HW1 7153   0.077   1.284  12.275 -0.7267  0.7073  0.2100
34114SOL    HW2 7154   0.006   1.173  12.349  0.8618 -0.4039  0.1197
34115SOL     OW 7155  11.979   9.906  11.652  0.4344 -0.4624  0.0885
34115SOL    HW1 7156  12.060   9.947  11.682 -0.4298 -0.3058  2.4471
34115SOL    HW2 7157  11.993   9.891  11.558  3.7754 -1.8053  0.6359
34116SOL     OW 7158   6.631   4.684   2.890 -0.0056 -0.3696  0.2196
34116SOL    HW1 7159   6.573   4.643   2.826 -0.3942  1.1774 -0.4662
34116SOL    HW2 7160   6.651   4.614   2.952 -2.7624 -0.9381  0.6089
34117SOL     OW 7161   3.464  10.039  10.871  0.0057  0.0861 -0.0077
34117SOL    HW1 7162   3.458  10.110  10.807  1.6948  0.1229 -0.1879
34117SOL    HW2 7163   3.401   9.974  10.841  1.3184 -0.2727 -2.2656
34118SOL     OW 7164   1.748   0.024   0.401 -0.4735 -0.0608 -0.4000
34118SOL    HW1 7165   1.792  -0.045   0.450 -1.1395 -0.6298 -0.5863
34118SOL    HW2 7166   1.810   0.049   0.332 -0.7847 -1.5136 -1.2409
34119SOL     OW 7167  11.120   3.888   2.226  0.0203  0.2104  0.0521
34119SOL    HW1 7168  11.146   3.903   2.135  0.2571  2.7621  0.4641
34119SOL    HW2 7169  11.024   3.893   2.225  0.0116  0.0230 -0.0827
34120SOL     OW 7170   7.355   2.943   2.136  0.1425 -0.0967  0.2206
34120SOL    HW1 7171   7.286   2.880   2.159  0.3044 -0.5071 -0.4161
34120SOL    HW2 7172   7.436   2.892   2.140  0.3639  0.2743  0.5051
34121SOL     OW 7173   7.270   0.265  11.174 -0.6009 -0.0485 -0.3080
34121SOL    HW1 7174   7.323   0.191  11.204 -1.1558 -0.0710  0.6439
34121SOL    HW2 7175   7.179   0.238  11.188 -0.9222 -0.2005 -2.3794
34122SOL     OW 7176   8.419   0.250   4.812  0.7979 -0.3398  0.5318
34122SOL    HW1 7177   8.359   0.176   4.803  0.2515  0.1740 -0.1531
34122SOL    HW2 7178   8.365   0.327   4.793  1.7484  0.1129 -0.4068
34123SOL     OW 7179  10.848  11.543  10.386  0.5043 -0.0360 -0.1748
34123SOL    HW1 7180  10.836  11.454  10.353  2.0674 -0.7775  1.1247
34123SOL    HW2 7181  10.908  11.533  10.460  0.4303  2.0637  0.2176
34124SOL     OW 7182   8.566   0.327  10.621  0.3050 -0.0021 -0.1988
34124SOL    HW1 7183   8.514   0.396  10.579 -0.4932 -1.0583 -1.0020
34124SOL    HW2 7184   8.533   0.323  10.711 -0.0721  0.2572 -0.3239
34125SOL     OW 7185   2.466   4.728   1.328  0.4451 -0.0290  0.0854
34125SOL    HW1 7186   2.437   4.674   1.255 -1.5068  0.6008  0.3224
34125SOL    HW2 7187   2.522   4.794   1.289 -0.7368  0.4308 -0.9075
34126SOL     OW 7188   4.568   3.926   5.826  0.0977  0.8552  0.1359
34126SOL    HW1 7189   4.503   3.876   5.876  0.5545  1.5304  1.4600
34126SOL    HW2 7190   4.602   3.990   5.889  0.0165  2.3894 -1.3205
34127SOL     OW 7191   0.966   2.485   1.731 -0.4526 -0.7807 -0.1761
34127SOL    HW1 7192   0.947   2.395   1.701  1.6051 -1.4649  0.3880
34127SOL    HW2 7193   0.954   2.538   1.652 -1.9043 -1.4913 -0.4795
34128SOL     OW 7194   8.890   8.259   9.374  0.1135  0.1223  0.7578
34128SOL    HW1 7195   8.882   8.172   9.334  0.5851  0.4523 -0.0578
34128SOL    HW2 7196   8.822   8.311   9.331  0.6402  0.4845  0.3537
34129SOL     OW 7197   4.496   6.494   0.388  0.0530 -0.0003  0.4985
34129SOL    HW1 7198   4.441   6.426   0.349  1.6560 -1.4730  0.7124
34129SOL    HW2 7199   4.583   6.477   0.354  0.3842  2.5293 -0.1647
34130SOL     OW 7200   0.628   1.877   6.272  0.1814 -0.5385 -0.0410
34130SOL    HW1 7201   0.648   1.848   6.361  0.0348 -0.0376  0.1581
34130SOL    HW2 7202   0.636   1.973   6.275 -1.7248 -0.3283 -0.0676
34131SOL     OW 7203   6.995   8.784   6.381 -0.3048  0.0641  0.2325
34131SOL    HW1 7204   7.079   8.785   6.428 -0.2480 -1.6811  0.2137
34131SOL    HW2 7205   7.015   8.748   6.295 -1.3074 -2.0888  0.8182
34132SOL     OW 7206   7.792   9.898   2.144 -0.7488 -0.1541 -0.0379
34132SOL    HW1 7207   7.850   9.961   2.101  0.4473  0.0672  1.7587
34132SOL    HW2 7208   7.712   9.947   2.161  0.5104  1.3293  2.2243
34133SOL     OW 7209   1.950   8.713   9.014 -0.2150 -0.1624 -0.0727
34133SOL    HW1 7210   1.875   8.699   9.073  0.9760 -0.4981  1.4483
34133SOL    HW2 7211   1.916   8.696   8.927 -2.2972  1.2545  0.4046
34134SOL     OW 7212   5.604  12.204   6.749 -0.0636 -0.3026 -0.6179
34134SOL    HW1 7213   5.686  12.174   6.711 -0.3114 -1.1563 -0.4869
34134SOL    HW2 7214   5.557  12.124   6.774 -0.2252  0.2068  0.8023
34135SOL     OW 7215   2.888   9.063   3.402 -0.8729  0.1111  0.0560
34135SOL    HW1 7216   2.797   9.095   3.401 -0.5648  1.0193 -0.3890
34135SOL    HW2 7217   2.889   8.994   3.335 -1.0475  0.6744 -0.5415
34136SOL     OW 7218   9.703   6.746   3.972  0.0824  0.0482  0.3588
34136SOL    HW1 7219   9.609   6.755   3.983 -0.0544 -2.1956  1.5040
34136SOL    HW2 7220   9.716   6.656   3.943  1.8921  0.3007  0.2251
34137SOL     OW 7221  11.502  11.587   5.126  0.4382 -0.3217 -0.0960
34137SOL    HW1 7222  11.595  11.568   5.117  0.4767 -1.3031  1.7385
34137SOL    HW2 7223  11.468  11.587   5.037  2.8431  4.0692 -1.2679
34138SOL     OW 7224   0.492  10.950   8.156 -0.2911  0.4506 -0.2007
34138SOL    HW1 7225   0.515  10.860   8.179 -1.9569 -0.0852 -0.5283
34138SOL    HW2 7226   0.543  10.967   8.077 -1.6287 -1.0520 -1.4640
34139SOL     OW 7227   9.531   5.661  11.851  0.3886 -0.1640 -0.0598
34139SOL    HW1 7228   9.472   5.735  11.866  0.5532 -0.4681  2.5409
34139SOL    HW2 7229   9.474   5.584  11.853  0.2839 -0.2092 -2.3031
34140SOL     OW 7230   6.791   3.982   7.591 -0.1600  0.2120 -0.1591
34140SOL    HW1 7231   6.823   3.921   7.525  2.6568  0.7638  0.5825
34140SOL    HW2 7232   6.792   4.067   7.547  0.2137  0.3521  0.1158
34141SOL     OW 7233  11.686   8.624   7.989  0.2346  0.3495 -0.2208
34141SOL    HW1 7234  11.698   8.566   7.914  2.7610  1.2337 -0.5992
34141SOL    HW2 7235  11.712   8.571   8.065 -2.5480 -0.6227  0.1667
34142SOL     OW 7236   0.918   6.766   2.659 -0.5361  0.2233 -0.0332
34142SOL    HW1 7237   0.896   6.674   2.676 -1.9533  0.4448 -0.4725
34142SOL    HW2 7238   0.918   6.807   2.745 -0.1306 -0.1367  0.1425
34143SOL     OW 7239   8.896   5.318  12.243  0.4892 -0.3805 -0.5274
34143SOL    HW1 7240   8.896   5.294  12.335 -0.7397  2.5594  0.3601
34143SOL    HW2 7241   8.965   5.383  12.235 -0.5891  0.7356 -1.2031
34144SOL     OW 7242   5.912   0.359   0.581  0.1788 -0.2434 -0.0509
34144SOL    HW1 7243   5.960   0.279   0.563  1.6034  0.5204  0.2217
34144SOL    HW2 7244   5.971   0.411   0.636 -0.2814  1.4290 -1.0692
34145SOL     OW 7245   5.026   3.443   3.869  0.1815  0.7044  0.2903
34145SOL    HW1 7246   4.972   3.515   3.901 -0.9585 -0.0939  0.2581
34145SOL    HW2 7247   4.982   3.414   3.789 -0.0861 -0.7947  0.9526
34146SOL     OW 7248   1.247   8.400   6.389 -0.0011 -0.1842 -0.9233
34146SOL    HW1 7249   1.238   8.352   6.472  2.2014 -0.2819 -0.6956
34146SOL    HW2 7250   1.158   8.428   6.368 -0.5386  0.4724  1.8428
34147SOL     OW 7251   8.775  11.586   8.567  0.4172 -0.2605  0.1091
34147SOL    HW1 7252   8.795  11.543   8.484 -0.5834 -1.4853  0.4559
34147SOL    HW2 7253   8.792  11.519   8.633 -0.1967  0.2106  0.7658
34148SOL     OW 7254   6.821   9.988   7.443 -0.1863  0.2281  0.0257
34148SOL    HW1 7255   6.915   9.968   7.445 -0.4959 -1.2854  0.7862
34148SOL    HW2 7256   6.791   9.953   7.360 -0.0017  1.1946 -0.4650
34149SOL     OW 7257   3.030   6.088   9.145  0.3944  0.7153 -0.0406
34149SOL    HW1 7258   3.041   6.001   9.185  0.3919 -0.2543 -2.0083
34149SOL    HW2 7259   3.098   6.091   9.077 -0.3167  1.8135 -0.7237
34150SOL     OW 7260  11.629  11.255   7.747 -0.3915 -0.3335  0.5142
34150SOL    HW1 7261  11.724  11.265   7.740 -0.6274  1.4754 -1.0966
34150SOL    HW2 7262  11.609  11.276   7.838  0.8353 -2.0110  1.2195
34151SOL     OW 7263   9.868   4.134   9.807  0.2040 -0.3244  0.2172
34151SOL    HW1 7264   9.952   4.104   9.771 -0.7074 -1.7955 -0.8194
34151SOL    HW2 7265   9.816   4.156   9.730 -0.2361  1.0065  0.8685
34152SOL     OW 7266  12.462   4.303   7.765 -0.2222  0.2100  0.5337
34152SOL    HW1 7267  12.411   4.278   7.688 -1.2603  1.4725  0.7760
34152SOL    HW2 7268  12.421   4.384   7.796  0.6706  0.1581  1.9524
34153SOL     OW 7269   5.559  10.931   4.381  0.0131 -0.2091 -0.1571
34153SOL    HW1 7270   5.512  10.848   4.383 -2.1317  0.9168  3.3349
34153SOL    HW2 7271   5.549  10.961   4.290 -0.4248 -2.9851 -1.1429
34154SOL     OW 7272   3.983   8.877  10.091 -0.2801 -0.1170  0.4450
34154SOL    HW1 7273   3.947   8.807  10.145 -0.9308 -1.1392 -1.2258
34154SOL    HW2 7274   3.963   8.958  10.138 -1.9249 -0.8828  1.1196
34155SOL     OW 7275  10.618   1.578   9.762 -0.3746  0.5358 -0.6524
34155SOL    HW1 7276  10.602   1.514   9.693 -1.3763 -0.4001  0.3820
34155SOL    HW2 7277  10.536   1.625   9.771 -1.5220 -1.6383  2.0716
34156SOL     OW 7278   7.555   3.491   3.275 -0.2860 -0.2573  0.3512
34156SOL    HW1 7279   7.632   3.544   3.294 -1.1062  0.5778  1.5313
34156SOL    HW2 7280   7.586   3.401   3.274  1.4078  0.2007 -2.9778
34157SOL     OW 7281   1.910   2.158   7.424  0.2547 -0.3353  0.1368
34157SOL    HW1 7282   1.840   2.210   7.463  0.4032  1.3588 -1.6875
34157SOL    HW2 7283   1.967   2.137   7.498 -0.5782  0.8947  1.1852
34158SOL     OW 7284   0.449   4.724   9.000 -0.1676 -0.1243 -0.3337
34158SOL    HW1 7285   0.378   4.664   8.978  0.7481 -1.5405  0.4145
34158SOL    HW2 7286   0.486   4.749   8.916 -1.4563  0.5566 -0.7276
34159SOL     OW 7287   2.826   2.733   0.977  0.4140 -0.5574  0.0031
34159SOL    HW1 7288   2.896   2.789   1.010 -0.7603  1.2948 -0.4857
34159SOL    HW2 7289   2.871   2.660   0.934  2.0014  0.1193  0.4583
34160SOL     OW 7290   0.485  11.533   1.702  0.4447  0.0888 -0.1649
34160SOL    HW1 7291   0.452  11.465   1.760 -0.7320  1.5212  0.9354
34160SOL    HW2 7292   0.519  11.485   1.626 -0.7556 -1.7003  0.3470
34161SOL     OW 7293   7.759   2.952   4.958  0.4643 -0.0871 -0.3177
34161SOL    HW1 7294   7.795   2.987   5.040  3.4030 -1.7001 -0.8054
34161SOL    HW2 7295   7.834   2.914   4.913 -1.0187  0.8171 -3.8739
34162SOL     OW 7296   5.637  11.010   9.889  0.6365  0.3730  0.5103
34162SOL    HW1 7297   5.640  11.038   9.981 -0.2737  1.4996  0.2129
34162SOL    HW2 7298   5.714  10.954   9.879  1.6374  1.4930  1.5612
34163SOL     OW 7299   7.049   9.754   1.591 -0.2688  0.3530  0.6089
34163SOL    HW1 7300   6.964   9.765   1.633 -1.6713 -1.2851 -1.5412
34163SOL    HW2 7301   7.031   9.698   1.515  3.2037 -2.6625  1.6953
34164SOL     OW 7302   2.259   3.760   8.721  0.1023  0.4600 -0.0254
34164SOL    HW1 7303   2.221   3.711   8.794 -0.3381  0.8387  0.0062
34164SOL    HW2 7304   2.241   3.852   8.742  1.0508  0.6440 -0.0101
34165SOL     OW 7305   9.890   3.921   2.074  0.0382 -0.1506 -0.1530
34165SOL    HW1 7306   9.982   3.895   2.066  0.3635  0.9482 -0.1898
34165SOL    HW2 7307   9.894   4.010   2.109 -0.9765  0.3151 -1.1814
34166SOL     OW 7308   9.041   1.006   2.741  0.0675 -0.2702  0.5028
34166SOL    HW1 7309   8.970   0.944   2.756 -1.3082  1.6712  2.6842
34166SOL    HW2 7310   9.115   0.952   2.712 -1.8071 -2.5348 -0.3736
34167SOL     OW 7311   3.163   8.390   2.638  0.4040  0.8348 -0.2288
34167SOL    HW1 7312   3.244   8.360   2.599 -0.8443 -1.3316 -1.3164
34167SOL    HW2 7313   3.123   8.311   2.675 -2.0504  1.4398 -1.3492
34168SOL     OW 7314   6.032   5.601  10.126  0.0603 -0.7406  0.1309
34168SOL    HW1 7315   5.959   5.660  10.109 -0.6712 -2.1633 -2.2075
34168SOL    HW2 7316   6.082   5.601  10.044  1.2714 -1.6811  0.8321
34169SOL     OW 7317   6.753  10.940   3.816  0.6036 -0.5185  0.0582
34169SOL    HW1 7318   6.701  10.867   3.851  0.8669 -1.0216 -0.5637
34169SOL    HW2 7319   6.689  10.995   3.771  0.3627 -0.2112  0.7632
34170SOL     OW 7320   5.390   9.358   1.116  0.7029  0.3225  0.0112
34170SOL    HW1 7321   5.331   9.284   1.104 -0.2347  0.7855  1.4384
34170SOL    HW2 7322   5.446   9.357   1.039  0.2712 -1.4572 -0.3239
34171SOL     OW 7323   2.883   6.873   1.910 -0.1117  0.1589  0.4828
34171SOL    HW1 7324   2.815   6.823   1.956 -0.6481 -0.3653 -0.8144
34171SOL    HW2 7325   2.861   6.964   1.927 -1.1744 -0.0044  0.0880
34172SOL     OW 7326   7.839   6.100   7.505  0.0771  0.3951 -0.1941
34172SOL    HW1 7327   7.752   6.100   7.544 -0.9964 -1.4942 -2.3764
34172SOL    HW2 7328   7.899   6.087   7.579 -1.7088 -1.4773  1.0331
34173SOL     OW 7329  11.341   8.903   4.557  0.0985 -0.2132 -0.1856
34173SOL    HW1 7330  11.388   8.983   4.578  1.1386 -0.6699 -0.7254
34173SOL    HW2 7331  11.409   8.839   4.537 -0.7462 -0.8736 -1.0538
34174SOL     OW 7332   1.513   7.913   9.244 -0.3219 -0.1782  0.3748
34174SOL    HW1 7333   1.456   7.885   9.173 -0.7210  1.0166  0.2019
34174SOL    HW2 7334   1.453   7.938   9.314  0.0625 -1.0381  1.0242
34175SOL     OW 7335   0.583   0.410  10.355  0.1618  0.2261  0.1861
34175SOL    HW1 7336   0.678   0.404  10.367 -0.0478 -0.6076  1.8218
34175SOL    HW2 7337   0.563   0.342  10.291  0.5642 -0.4455  0.7465
34176SOL     OW 7338  10.811  12.541   3.780  0.0407  0.7227 -0.2655
34176SOL    HW1 7339  10.812  12.567   3.872 -0.0108  0.8412 -0.2989
34176SOL    HW2 7340  10.800  12.622   3.732  0.2778  0.6840 -0.3860
34177SOL     OW 7341  12.521  11.070   8.493  0.3740  0.2060  0.5332
34177SOL    HW1 7342  12.613  11.093   8.503  0.5887 -0.4683  0.1232
34177SOL    HW2 7343  12.521  10.976   8.476 -0.1096  0.7151 -3.0570
34178SOL     OW 7344  11.095   0.464   6.468 -0.0638 -0.9013 -0.3156
34178SOL    HW1 7345  11.158   0.404   6.507 -1.4660 -0.7266  2.4272
34178SOL    HW2 7346  11.129   0.480   6.379  2.5162 -2.4920  0.2855
34179SOL     OW 7347  10.266   9.085   1.694 -0.3248 -0.0447 -0.1609
34179SOL    HW1 7348  10.250   9.172   1.732  0.1393  0.9190 -2.0594
34179SOL    HW2 7349  10.356   9.065   1.718 -0.1268  0.4250 -0.4999
34180SOL     OW 7350   7.171   1.132  10.398 -0.4312  0.0647 -0.0683
34180SOL    HW1 7351   7.185   1.183  10.318 -1.5411  3.1628  1.5613
34180SOL    HW2 7352   7.082   1.097  10.389  0.4182 -1.9465 -1.2952
34181SOL     OW 7353   8.420  10.898   6.925 -0.4640 -0.2975  0.3246
34181SOL    HW1 7354   8.396  10.881   7.016 -0.3531  1.3332  0.6893
34181SOL    HW2 7355   8.362  10.969   6.898  2.3756  2.3360  0.5664
34182SOL     OW 7356   2.385   1.436   0.943  0.5002 -0.1491 -0.1035
34182SOL    HW1 7357   2.298   1.414   0.974  0.6568 -0.3329  0.2088
34182SOL    HW2 7358   2.406   1.520   0.984  0.6603 -0.3353  0.1972
34183SOL     OW 7359   0.105  10.215  10.143 -0.0823 -0.1436  0.1002
34183SOL    HW1 7360   0.023  10.176  10.114 -0.5658  1.8493 -1.3893
34183SOL    HW2 7361   0.147  10.146  10.194 -2.0667 -1.6595 -0.1894
34184SOL     OW 7362   5.695   0.870   1.218 -0.3264  0.1326  0.6411
34184SOL    HW1 7363   5.743   0.920   1.152 -0.5291  0.6478  0.8781
34184SOL    HW2 7364   5.704   0.779   1.190 -0.2159  0.3238  0.0264
34185SOL     OW 7365  12.284   9.749  11.066  0.5637 -0.0756  0.1142
34185SOL    HW1 7366  12.371   9.713  11.080  1.2334  2.1396  2.4664
34185SOL    HW2 7367  12.293   9.809  10.992  2.1282  2.9203  2.5077
34186SOL     OW 7368   4.176   2.179   4.249  0.2172  0.6893  0.6498
34186SOL    HW1 7369   4.082   2.169   4.260 -0.0266  1.5574 -0.4537
34186SOL    HW2 7370   4.213   2.159   4.335 -0.7489 -1.9681  0.5379
34187SOL     OW 7371   6.477   4.772   8.644 -0.4458 -0.3029 -0.0374
34187SOL    HW1 7372   6.404   4.715   8.619 -1.7643  1.2148  0.1541
34187SOL    HW2 7373   6.509   4.807   8.561 -0.2032 -0.6591 -0.0947
34188SOL     OW 7374   6.876   1.197   8.899 -0.1365 -0.5727 -0.2682
34188SOL    HW1 7375   6.925   1.222   8.977 -1.6562  0.4522  0.4132
34188SOL    HW2 7376   6.787   1.181   8.931 -0.2774 -2.5084 -1.4238
34189SOL     OW 7377   0.743   0.003   7.826 -0.2515  0.5191  0.2216
34189SOL    HW1 7378   0.837   0.020   7.819 -0.0788  0.2772  1.6963
34189SOL    HW2 7379   0.715   0.054   7.901 -1.1216 -0.1349  0.3589
34190SOL     OW 7380   1.674   3.130  10.978 -0.2429  0.0830 -0.2177
34190SOL    HW1 7381   1.619   3.208  10.990 -2.5080 -1.4413 -0.0289
34190SOL    HW2 7382   1.661   3.106  10.886  2.1489  1.0814 -0.8737
34191SOL     OW 7383   6.008   2.073  10.019  0.3994  0.5282  0.3167
34191SOL    HW1 7384   6.091   2.114   9.995  1.3747 -0.6125  1.5654
34191SOL    HW2 7385   6.032   2.009  10.086 -1.1305 -1.6255 -1.0711
34192SOL     OW 7386   7.120  12.398   1.258  0.0563 -0.4018 -0.9612
34192SOL    HW1 7387   7.100  12.391   1.351  0.8313  2.9636 -0.3993
34192SOL    HW2 7388   7.200  12.346   1.247  0.9819  0.5737  0.7058
34193SOL     OW 7389   3.730   5.495   0.531 -0.1287  0.2989  0.9219
34193SOL    HW1 7390   3.683   5.470   0.451  1.4642 -0.1663  0.0793
34193SOL    HW2 7391   3.744   5.589   0.522  2.4727 -0.1454 -0.8013
34194SOL     OW 7392   1.163   5.487   8.005  1.1325  0.6132  0.0993
34194SOL    HW1 7393   1.078   5.453   7.977 -0.1422  3.1073  0.6357
34194SOL    HW2 7394   1.206   5.412   8.046  0.4186 -1.4663 -2.6407
34195SOL     OW 7395   3.669   1.132  12.247 -0.2587 -0.4561  0.1434
34195SOL    HW1 7396   3.725   1.206  12.223  0.4967 -1.1290 -0.2189
34195SOL    HW2 7397   3.596   1.171  12.295 -0.8894  0.7480 -1.6869
34196SOL     OW 7398  11.379   9.509   6.177  0.2480 -0.2773 -0.2192
34196SOL    HW1 7399  11.357   9.602   6.183  1.0619 -0.0776 -0.2630
34196SOL    HW2 7400  11.347   9.482   6.091  0.6547  0.1462 -0.5117
34197SOL     OW 7401   5.530  11.988   5.441  0.0877 -0.0493  0.5600
34197SOL    HW1 7402   5.509  11.896   5.425 -0.4797 -0.7366  4.4027
34197SOL    HW2 7403   5.524  12.029   5.355 -0.9627 -3.3213 -1.0864
34198SOL     OW 7404   7.845  12.187   5.215  0.3632  0.1438  0.0847
34198SOL    HW1 7405   7.935  12.217   5.204  1.9387 -4.1034 -0.8757
34198SOL    HW2 7406   7.821  12.152   5.129 -1.4028 -0.6513  0.8530
34199SOL     OW 7407   2.174   8.423   5.867 -0.0544  0.3779 -0.0501
34199SOL    HW1 7408   2.174   8.516   5.891 -1.0950  0.5432 -0.6270
34199SOL    HW2 7409   2.209   8.421   5.778  0.4024  0.1624  0.1335
34200SOL     OW 7410  10.632   3.248   3.577 -0.0073 -0.4030  0.4091
34200SOL    HW1 7411  10.664   3.159   3.589 -0.1951 -0.6114 -0.5634
34200SOL    HW2 7412  10.592   3.271   3.661  0.1668 -1.1814  0.7111
34201SOL     OW 7413  11.860   4.589   5.556 -0.0832 -0.1621  0.1577
34201SOL    HW1 7414  11.923   4.548   5.615  1.1932  0.3550 -0.7944
34201SOL    HW2 7415  11.776   4.546   5.576 -0.1712  1.2849  3.6653
34202SOL     OW 7416   6.197   8.752   5.653  0.1194  0.2846  0.5153
34202SOL    HW1 7417   6.109   8.738   5.618 -0.5634  1.9710  1.3945
34202SOL    HW2 7418   6.219   8.671   5.699 -1.2721  0.0843  0.8555
34203SOL     OW 7419   8.821   3.923   6.432 -0.1022 -0.5002 -0.6319
34203SOL    HW1 7420   8.910   3.925   6.468 -1.3719 -1.0218  2.9649
34203SOL    HW2 7421   8.812   3.836   6.395  0.2508 -1.2896  1.0280
34204SOL     OW 7422   9.894   2.574   7.222  0.9148  0.0990 -0.1619
34204SOL    HW1 7423   9.972   2.629   7.210  1.3316  0.1353  2.1283
34204SOL    HW2 7424   9.927   2.484   7.214  1.0762  0.1293  0.1265
34205SOL     OW 7425   5.827   4.524   7.206 -0.2381  0.1594  0.5650
34205SOL    HW1 7426   5.802   4.605   7.250 -2.4038  0.2187 -0.6108
34205SOL    HW2 7427   5.842   4.462   7.277  1.0944  1.4466  1.4781
34206SOL     OW 7428   0.974   0.446  12.540 -0.0291 -0.0345  0.5114
34206SOL    HW1 7429   1.042   0.473  12.602  2.4079 -0.5981 -1.7045
34206SOL    HW2 7430   0.996   0.492  12.459 -3.6432  1.4189  0.1784
34207SOL     OW 7431   3.213   5.604   6.969 -0.0901  0.2770 -0.2438
34207SOL    HW1 7432   3.125   5.568   6.980  0.0792  0.0538  0.4389
34207SOL    HW2 7433   3.261   5.574   7.046  0.6767  0.1427 -0.7613
34208SOL     OW 7434   2.340   5.694   4.826 -0.0312  0.7428  0.6779
34208SOL    HW1 7435   2.403   5.651   4.883  0.6493  2.1670  1.0320
34208SOL    HW2 7436   2.266   5.634   4.822  0.8828 -0.4494  1.1456
34209SOL     OW 7437   9.341  12.511   9.009 -0.1495 -0.5092 -0.0321
34209SOL    HW1 7438   9.405  12.493   9.079 -0.4700 -0.6938  0.2160
34209SOL    HW2 7439   9.325  12.425   8.970 -1.8198 -0.8436  1.2697
34210SOL     OW 7440  10.848   4.390   1.723 -0.6754 -0.1020  0.3723
34210SOL    HW1 7441  10.772   4.360   1.674  0.1154 -0.1781 -0.8448
34210SOL    HW2 7442  10.834   4.484   1.734 -2.4248 -0.5330  2.8948
34211SOL     OW 7443   0.958   7.081   3.298 -0.3295 -0.0782 -0.8252
34211SOL    HW1 7444   0.877   7.041   3.267 -0.6300 -2.0250  2.0770
34211SOL    HW2 7445   0.948   7.174   3.277 -2.4482 -0.5473 -2.2142
34212SOL     OW 7446  10.794  11.789   3.916  0.5355 -0.2526  0.4369
34212SOL    HW1 7447  10.820  11.710   3.964  0.4800  0.0359  0.9477
34212SOL    HW2 7448  10.877  11.828   3.888  0.5454 -0.8294 -0.3840
34213SOL     OW 7449  10.658   3.903   2.804  0.5211  0.2651 -0.0669
34213SOL    HW1 7450  10.614   3.985   2.827  0.9094  0.6224 -0.5891
34213SOL    HW2 7451  10.729   3.895   2.868  0.0281 -0.0465  0.4493
34214SOL     OW 7452   8.824   9.900   1.365  0.5752 -0.2226  0.0497
34214SOL    HW1 7453   8.756   9.837   1.342 -2.6352  3.1120 -0.5895
34214SOL    HW2 7454   8.822   9.904   1.461 -3.2584  2.4987  0.1146
34215SOL     OW 7455   5.309   8.056   0.539  0.6169 -0.2657  0.0424
34215SOL    HW1 7456   5.236   8.101   0.496  0.2916 -0.2022  0.6483
34215SOL    HW2 7457   5.278   7.967   0.553  0.7372 -0.2986  0.1063
34216SOL     OW 7458   4.964   6.258  10.968 -0.1932 -0.3079  0.6265
34216SOL    HW1 7459   5.047   6.219  10.994  0.2687  0.8152  0.8917
34216SOL    HW2 7460   4.941   6.316  11.040  0.4082  1.7943 -0.7909
34217SOL     OW 7461   5.875  11.960   9.665  0.3046  0.4878  0.0126
34217SOL    HW1 7462   5.786  11.954   9.700  0.6096  0.0830  0.7511
34217SOL    HW2 7463   5.930  11.969   9.743  0.9474  0.2021 -0.4064
34218SOL     OW 7464   4.777   6.429   9.358 -0.8162  0.0445  0.7064
34218SOL    HW1 7465   4.733   6.491   9.416  0.7475  0.2476  1.7437
34218SOL    HW2 7466   4.786   6.476   9.275 -0.4608  0.8665  1.2023
34219SOL     OW 7467   8.194   7.651   4.160  0.1067 -0.0934  0.1696
34219SOL    HW1 7468   8.224   7.643   4.250 -0.7637  2.0703  0.7198
34219SOL    HW2 7469   8.196   7.562   4.126  1.1354 -0.8636  2.0852
34220SOL     OW 7470   2.487  12.110   0.707  0.3092  0.0959  0.0557
34220SOL    HW1 7471   2.573  12.100   0.666  0.5922 -0.0889  0.6772
34220SOL    HW2 7472   2.458  12.021   0.726  0.1068  0.1713  0.1049
34221SOL     OW 7473   0.545   3.040  11.120 -0.2220  0.4778  0.0777
34221SOL    HW1 7474   0.605   2.975  11.083 -1.0400 -0.6433  0.6515
34221SOL    HW2 7475   0.579   3.124  11.090 -0.8661 -0.3308 -3.3045
34222SOL     OW 7476  10.972   7.590   3.860 -0.4433  0.0413 -0.6671
34222SOL    HW1 7477  10.936   7.532   3.793 -1.3573  0.6902 -0.7615
34222SOL    HW2 7478  11.002   7.667   3.812 -0.1750  0.0833 -0.4333
34223SOL     OW 7479   7.610   5.762   7.408 -0.3336  0.1750 -0.5374
34223SOL    HW1 7480   7.662   5.698   7.456  1.0356  1.9422  0.4586
34223SOL    HW2 7481   7.521   5.751   7.442  0.0730 -0.4794  0.3610
34224SOL     OW 7482  10.452   8.525   0.397 -0.2293  0.3743  0.3156
34224SOL    HW1 7483  10.382   8.557   0.340  0.4714 -0.9207 -1.3884
34224SOL    HW2 7484  10.455   8.430   0.381 -0.7017 -0.2729  3.3756
34225SOL     OW 7485   6.070   5.018  10.935  0.1049  0.1060  1.0291
34225SOL    HW1 7486   6.065   5.113  10.930 -0.0680  0.0145 -0.9803
34225SOL    HW2 7487   5.983   4.987  10.912  0.2821 -0.5606  1.2119
34226SOL     OW 7488   6.319   5.223   6.620  0.3740  0.8999  0.3074
34226SOL    HW1 7489   6.393   5.253   6.567  1.5022  0.1255  1.3956
34226SOL    HW2 7490   6.242   5.240   6.566  1.4967 -0.1712 -1.7249
34227SOL     OW 7491   3.163   5.210   7.771  0.4863 -0.2092 -0.0282
34227SOL    HW1 7492   3.206   5.292   7.797 -0.0387  0.8975 -2.4239
34227SOL    HW2 7493   3.073   5.220   7.804  0.5085  0.0428 -0.0403
34228SOL     OW 7494  12.285   2.366   9.393 -0.1306  0.2314  0.5523
34228SOL    HW1 7495  12.370   2.352   9.436 -0.5122  0.9214  1.5571
34228SOL    HW2 7496  12.257   2.278   9.368  0.5425 -0.0835  0.8641
34229SOL     OW 7497   6.530   4.268   8.931 -0.5536 -0.0294 -0.2731
34229SOL    HW1 7498   6.594   4.211   8.972 -0.7119 -1.0421 -1.3712
34229SOL    HW2 7499   6.545   4.354   8.970  2.8805  0.2855 -1.9006
34230SOL     OW 7500   4.310   3.102  11.980 -0.7891  0.2555  0.2911
34230SOL    HW1 7501   4.300   3.197  11.986  1.6546  0.5504  0.7514
34230SOL    HW2 7502   4.297   3.071  12.070 -0.7696  0.2598  0.2957
34231SOL     OW 7503   4.160  10.389   5.745  0.1545  0.0581 -0.1914
34231SOL    HW1 7504   4.216  10.408   5.669 -0.1797 -1.0386 -0.7340
34231SOL    HW2 7505   4.082  10.443   5.731  1.2304  1.9846  0.8284
34232SOL     OW 7506   4.372   1.734   9.741 -0.8693  0.1927 -0.4211
34232SOL    HW1 7507   4.322   1.807   9.704 -3.3377 -1.0309  0.3093
34232SOL    HW2 7508   4.383   1.673   9.668 -0.3804  0.4727 -0.5878
34233SOL     OW 7509   9.302  10.059   3.272 -0.0223  0.1275  0.6054
34233SOL    HW1 7510   9.322  10.010   3.193 -0.8088 -0.3116  0.6643
34233SOL    HW2 7511   9.385  10.098   3.298  0.4910 -0.6820  0.2221
34234SOL     OW 7512   8.397   7.313   4.195  0.1677  0.3503  0.7851
34234SOL    HW1 7513   8.493   7.307   4.205  0.2668 -0.0876 -0.3290
34234SOL    HW2 7514   8.385   7.355   4.110 -0.6370 -0.9994  0.2221
34235SOL     OW 7515   3.066  11.789   3.421  0.0497 -0.2922  0.0727
34235SOL    HW1 7516   3.152  11.831   3.414 -0.1943  0.1962 -0.1028
34235SOL    HW2 7517   3.022  11.838   3.491 -1.1903  1.4973 -1.8445
34236SOL     OW 7518   7.757   7.261   8.486  0.4901  0.4674  0.1153
34236SOL    HW1 7519   7.781   7.351   8.507  0.1655  0.2631  1.4788
34236SOL    HW2 7520   7.801   7.208   8.553  0.4479 -0.3695 -0.4959
34237SOL     OW 7521   4.239   2.247  11.625 -0.3605 -0.2912 -0.1107
34237SOL    HW1 7522   4.267   2.277  11.711 -2.1869  2.8170 -0.4406
34237SOL    HW2 7523   4.320   2.219  11.582  1.2556  1.9888  1.2171
34238SOL     OW 7524  11.503   0.111   9.787 -0.0219  0.4631  0.0683
34238SOL    HW1 7525  11.459   0.116   9.702  1.6787 -0.4765 -0.9163
34238SOL    HW2 7526  11.579   0.168   9.777  1.6766 -1.6989 -0.0380
34239SOL     OW 7527   4.916   3.957   6.387 -0.1854  0.2985  0.3879
34239SOL    HW1 7528   4.857   3.894   6.427 -0.0230  0.1830  0.4485
34239SOL    HW2 7529   4.867   3.992   6.313  0.6850 -1.9238 -1.3632
34240SOL     OW 7530   6.770   9.596  12.445 -0.3910 -0.0636  0.3261
34240SOL    HW1 7531   6.805   9.510  12.424 -1.5414 -0.1790 -1.2546
34240SOL    HW2 7532   6.823   9.657  12.394  1.2123  0.3528  2.3424
34241SOL     OW 7533   9.571   4.077   4.316 -0.0035  0.3724 -0.1367
34241SOL    HW1 7534   9.630   4.132   4.264  0.2202  0.1337 -0.1418
34241SOL    HW2 7535   9.522   4.138   4.370 -0.4222  0.6421 -0.8134
34242SOL     OW 7536   9.564   2.659   8.376 -0.2403 -0.0340 -0.2522
34242SOL    HW1 7537   9.504   2.630   8.307  1.5607  0.5923 -2.1763
34242SOL    HW2 7538   9.523   2.737   8.413  0.0199  1.2772 -2.5693
34243SOL     OW 7539   6.037   8.522   3.917 -0.8111 -0.3802 -0.3540
34243SOL    HW1 7540   5.985   8.526   3.997 -2.4917 -0.2076 -1.3940
34243SOL    HW2 7541   6.065   8.613   3.903 -0.8137 -0.3455 -0.1358
34244SOL     OW 7542  12.600   9.241   5.962 -0.1765  0.2899 -0.0484
34244SOL    HW1 7543  12.524   9.280   6.005 -1.3102 -1.4727 -0.3324
34244SOL    HW2 7544  12.631   9.175   6.025 -0.4851 -0.7702 -0.9779
34245SOL     OW 7545   0.967   9.878   7.843  0.1597  0.1085 -0.5872
34245SOL    HW1 7546   0.890   9.895   7.898 -0.3952 -0.3239 -1.2061
34245SOL    HW2 7547   0.994   9.964   7.811  1.1965  0.5094  1.2614
34246SOL     OW 7548   9.168  12.054   3.543 -0.2333 -0.6215  0.4306
34246SOL    HW1 7549   9.211  12.132   3.509 -1.1946  0.6661  1.9953
34246SOL    HW2 7550   9.125  12.015   3.467  0.5458  0.1620 -0.4455
34247SOL     OW 7551   5.807   4.974   7.563 -0.0960  0.0813 -0.3072
34247SOL    HW1 7552   5.851   5.004   7.484  0.8174 -4.4828 -1.8645
34247SOL    HW2 7553   5.874   4.974   7.630  0.4081 -0.3106 -0.8007
34248SOL     OW 7554   0.900   1.345   1.978  0.0924  0.2734  1.1132
34248SOL    HW1 7555   0.991   1.320   1.994 -0.1190 -1.9457 -0.7250
34248SOL    HW2 7556   0.853   1.262   1.970 -1.3685  1.2595 -1.7664
34249SOL     OW 7557   3.815   6.262   8.657 -0.2133  0.0680  0.0712
34249SOL    HW1 7558   3.899   6.255   8.611  0.8419  1.8127  1.5648
34249SOL    HW2 7559   3.840   6.282   8.748 -2.2506  2.0117  0.2799
34250SOL     OW 7560   0.300   1.336   1.545  0.1706  0.1688  1.0259
34250SOL    HW1 7561   0.240   1.311   1.475  0.9220 -0.2287  0.5155
34250SOL    HW2 7562   0.273   1.424   1.570 -0.5817  0.0189  0.7627
34251SOL     OW 7563  12.196   2.128   4.572  0.3494 -0.5547 -0.2779
34251SOL    HW1 7564  12.176   2.177   4.652  2.5074  2.2771 -1.2946
34251SOL    HW2 7565  12.267   2.069   4.598  2.3673  1.6827 -0.3714
34252SOL     OW 7566  12.512   9.004   4.880  0.4685  0.4526 -1.0535
34252SOL    HW1 7567  12.478   9.043   4.961 -3.7097 -2.3419 -1.1460
34252SOL    HW2 7568  12.567   8.931   4.909 -1.8208 -1.1714 -0.5387
34253SOL     OW 7569   9.290   4.117   9.421 -0.2779 -0.5521  0.3543
34253SOL    HW1 7570   9.197   4.116   9.397  0.0271  0.2887 -0.9382
34253SOL    HW2 7571   9.330   4.050   9.367 -0.1372 -1.0259  1.0270
34254SOL     OW 7572   9.353   9.432  11.447  0.2366  0.2467 -0.5077
34254SOL    HW1 7573   9.356   9.435  11.352  0.0356  1.1138 -0.4970
34254SOL    HW2 7574   9.395   9.514  11.475 -0.2368  0.2845  0.1293
34255SOL     OW 7575   2.799   4.116  11.951 -0.4738 -0.1197 -0.4197
34255SOL    HW1 7576   2.747   4.145  12.026  0.5510  0.8287 -0.0606
34255SOL    HW2 7577   2.747   4.140  11.875 -0.2601  1.4913 -0.0837
34256SOL     OW 7578  10.992   6.758   4.314  0.2586 -0.0896  0.2666
34256SOL    HW1 7579  10.923   6.692   4.323  1.5953 -1.5470  0.1525
34256SOL    HW2 7580  11.019   6.776   4.404  0.2063 -0.0383  0.2721
34257SOL     OW 7581   4.705  11.449   6.572 -0.1119 -0.3981  0.8227
34257SOL    HW1 7582   4.621  11.470   6.533 -0.3001 -2.3271  0.1205
34257SOL    HW2 7583   4.700  11.485   6.661 -1.8124 -0.7671  0.9011
34258SOL     OW 7584   4.678   7.271   3.194 -0.3129 -0.1107 -0.1605
34258SOL    HW1 7585   4.762   7.241   3.230 -0.2625  0.9713  0.6850
34258SOL    HW2 7586   4.660   7.212   3.121  0.7859 -0.8627  0.1577
34259SOL     OW 7587   0.006   4.475   9.077  0.1916 -0.4184 -0.2136
34259SOL    HW1 7588   0.016   4.548   9.015  2.1321  0.6662  1.2750
34259SOL    HW2 7589   0.013   4.516   9.163 -1.1082 -2.0849  0.7479
34260SOL     OW 7590  10.082   9.946   7.658 -0.5390 -0.0674 -0.0840
34260SOL    HW1 7591  10.073   9.896   7.739 -0.1510  1.7782  1.1513
34260SOL    HW2 7592   9.992   9.957   7.626 -0.7263 -0.5100  0.2769
34261SOL     OW 7593  11.154  12.611  10.407 -0.0999  0.5967  0.1680
34261SOL    HW1 7594  11.077  12.668  10.416 -0.9663 -0.2810 -1.2058
34261SOL    HW2 7595  11.178  12.588  10.496 -0.6458  1.9030  0.6776
34262SOL     OW 7596  10.236   8.004   9.087 -0.3083  0.4109  0.1236
34262SOL    HW1 7597  10.238   7.963   9.000  0.8750  0.5509  0.0792
34262SOL    HW2 7598  10.149   7.982   9.120 -0.5540 -0.1779 -0.8388
34263SOL     OW 7599   7.074   3.317   6.714  0.2047  0.6317 -0.3152
34263SOL    HW1 7600   6.979   3.324   6.711  0.1247 -0.3942 -0.5257
34263SOL    HW2 7601   7.105   3.404   6.691 -0.6782  0.9815 -0.2419
34264SOL     OW 7602   4.618   3.789  11.218 -0.0041 -0.6064 -0.1889
34264SOL    HW1 7603   4.650   3.874  11.250  0.1816  0.2486 -2.4578
34264SOL    HW2 7604   4.684   3.726  11.247 -1.2307 -0.4551  3.4645
34265SOL     OW 7605   6.968   4.410   1.885 -0.5653  0.1709  0.3816
34265SOL    HW1 7606   7.023   4.401   1.806  0.3000 -1.4582  1.1031
34265SOL    HW2 7607   6.915   4.330   1.886  0.3820 -0.4922  2.0996
34266SOL     OW 7608   7.263   7.224   5.715 -0.0954 -0.2244 -0.4275
34266SOL    HW1 7609   7.345   7.181   5.739  1.0763  0.5961 -2.6714
34266SOL    HW2 7610   7.212   7.156   5.672  0.2333 -0.2669 -0.7544
34267SOL     OW 7611  10.500   9.389   7.559 -1.2330  0.6674 -0.0985
34267SOL    HW1 7612  10.541   9.328   7.620 -2.3037  1.1363  1.1632
34267SOL    HW2 7613  10.534   9.475   7.584 -1.0580  0.7799 -0.7113
34268SOL     OW 7614   1.594   1.363   3.378 -0.5488  0.2446  0.4664
34268SOL    HW1 7615   1.521   1.304   3.357  0.7250 -1.1825 -0.1696
34268SOL    HW2 7616   1.562   1.416   3.451 -2.7093  0.6407 -0.6806
34269SOL     OW 7617   7.064   3.953  10.239  0.1549  0.3694  0.0788
34269SOL    HW1 7618   7.031   4.027  10.189  1.7603  1.2597  0.2747
34269SOL    HW2 7619   6.998   3.940  10.308 -2.6820 -1.6026 -2.7586
34270SOL     OW 7620   5.220   0.466   4.131 -0.2710  0.3569  0.4091
34270SOL    HW1 7621   5.178   0.551   4.120 -0.2192  0.1992 -1.2807
34270SOL    HW2 7622   5.148   0.403   4.129 -0.3519  0.3544  2.0706
34271SOL     OW 7623   8.248  11.258   5.260 -0.5383 -0.3384  0.5493
34271SOL    HW1 7624   8.240  11.164   5.244 -0.2647 -0.2280 -0.3120
34271SOL    HW2 7625   8.295  11.292   5.183  0.9360  0.2424  1.6442
34272SOL     OW 7626   5.364   4.435  10.791 -0.2706 -0.4311 -0.0534
34272SOL    HW1 7627   5.408   4.366  10.840  2.5342 -0.2996 -2.1461
34272SOL    HW2 7628   5.322   4.389  10.718 -0.7096 -0.1883  0.0438
34273SOL     OW 7629   4.186  10.576   0.060  0.5745  0.4797  0.4676
34273SOL    HW1 7630   4.165  10.534   0.143  0.9014 -0.7472 -0.0467
34273SOL    HW2 7631   4.266  10.532   0.030 -0.0587  0.2163 -0.9510
34274SOL     OW 7632   7.971   1.859   2.093  0.2810 -0.0728  0.0605
34274SOL    HW1 7633   8.029   1.914   2.039 -0.3897  1.6380  0.9923
34274SOL    HW2 7634   8.004   1.770   2.081  0.0086  0.1645 -3.3322
34275SOL     OW 7635   6.935  11.132   6.118 -0.3039  0.3822 -0.1250
34275SOL    HW1 7636   6.934  11.041   6.147 -1.6515 -0.0982 -1.5561
34275SOL    HW2 7637   7.028  11.155   6.114  0.1900 -1.6159 -1.7142
34276SOL     OW 7638   3.923   4.053   9.570  0.1799  0.1244 -0.4086
34276SOL    HW1 7639   3.910   3.963   9.539  1.3437 -0.1733 -0.1124
34276SOL    HW2 7640   4.003   4.082   9.526  0.6978  0.4367  0.6731
34277SOL     OW 7641   5.171   5.654   2.978  0.4006 -0.2923  1.0235
34277SOL    HW1 7642   5.236   5.619   2.918  1.6764 -0.1844  2.3130
34277SOL    HW2 7643   5.087   5.636   2.935  1.2751  0.4080 -1.1202
34278SOL     OW 7644   9.412   1.351  12.308 -0.3130 -0.5451 -0.0198
34278SOL    HW1 7645   9.317   1.353  12.319 -0.4037 -0.7170 -0.7360
34278SOL    HW2 7646   9.437   1.261  12.327 -0.4431 -0.7876 -0.9463
34279SOL     OW 7647  11.295   3.538   7.777  0.5474  0.1035  0.0972
34279SOL    HW1 7648  11.282   3.632   7.766  0.7484  0.2139  0.7722
34279SOL    HW2 7649  11.389   3.525   7.768  0.7569  0.2264  1.7082
34280SOL     OW 7650   2.551   9.647   9.635 -0.4062 -0.4817  0.0721
34280SOL    HW1 7651   2.483   9.652   9.702  0.2991 -3.9298  1.2254
34280SOL    HW2 7652   2.580   9.556   9.636  1.4158 -0.1110 -3.2252
34281SOL     OW 7653   9.680   9.676   1.266 -0.4659  0.2425 -0.3639
34281SOL    HW1 7654   9.594   9.713   1.248 -0.9215  0.1380  1.3986
34281SOL    HW2 7655   9.728   9.685   1.184 -1.6135  1.7909 -0.9129
34282SOL     OW 7656   8.284   7.002   1.978  0.0792  0.0453 -0.4992
34282SOL    HW1 7657   8.236   7.074   1.936 -0.4106  0.7862  1.2512
34282SOL    HW2 7658   8.349   7.046   2.033 -1.5990 -0.6723  2.2880
34283SOL     OW 7659   5.719   6.295   5.408  0.9458  0.1067  0.0176
34283SOL    HW1 7660   5.756   6.361   5.350  0.4174 -0.6109 -1.1690
34283SOL    HW2 7661   5.795   6.259   5.455  1.7075 -0.7609 -1.7819
34284SOL     OW 7662   4.129  11.810   0.768  0.3371 -0.0741  0.0798
34284SOL    HW1 7663   4.137  11.891   0.718  0.3092 -0.1640 -0.0707
34284SOL    HW2 7664   4.059  11.827   0.831 -0.0377 -0.1661 -0.3094
34285SOL     OW 7665   6.380   1.514  12.052 -0.2120  0.3083  0.1962
34285SOL    HW1 7666   6.331   1.526  11.971  0.0747  2.4805  0.2902
34285SOL    HW2 7667   6.441   1.442  12.033 -0.5450  0.3968 -1.3059
34286SOL     OW 7668   1.744   8.681   5.769 -0.5727 -0.0644 -0.1189
34286SOL    HW1 7669   1.721   8.699   5.861 -2.0606 -0.6936 -0.3466
34286SOL    HW2 7670   1.666   8.706   5.720  0.1113 -0.0136 -1.1953
34287SOL     OW 7671   4.426  10.144   7.723 -0.1667 -0.1640  0.2112
34287SOL    HW1 7672   4.407  10.132   7.630 -0.6223  0.2132  0.2572
34287SOL    HW2 7673   4.521  10.133   7.729 -0.2429 -1.1937 -0.1436
34288SOL     OW 7674   0.248   4.585   9.982 -0.2143 -0.1755 -0.2620
34288SOL    HW1 7675   0.210   4.549   9.902 -1.9991  0.6902  0.1396
34288SOL    HW2 7676   0.206   4.536  10.053 -0.4474  0.6516  0.1939
34289SOL     OW 7677   5.175   9.806   0.380 -0.2366 -0.0880  0.5664
34289SOL    HW1 7678   5.090   9.800   0.337 -0.5807 -0.3930  1.2709
34289SOL    HW2 7679   5.171   9.887   0.430  0.8905  1.3137 -1.4710
34290SOL     OW 7680   3.566   8.540  11.396  0.5199  0.1699  0.1772
34290SOL    HW1 7681   3.629   8.519  11.327  0.7120 -2.5516  1.0560
34290SOL    HW2 7682   3.483   8.504  11.365 -0.1590  1.8304 -0.0224
34291SOL     OW 7683   2.040   8.003   6.285 -0.4019 -0.1220 -0.4525
34291SOL    HW1 7684   2.124   8.044   6.264 -0.6014  0.4173 -0.2190
34291SOL    HW2 7685   2.054   7.962   6.371 -0.5500  0.4885 -0.1307
34292SOL     OW 7686   4.244   6.534  10.071 -0.0053  0.2126 -0.2931
34292SOL    HW1 7687   4.166   6.499  10.028  0.4969 -2.1781  0.5874
34292SOL    HW2 7688   4.268   6.610  10.018 -2.5344  0.6405 -0.9474
34293SOL     OW 7689  12.573  11.940   0.275 -0.0798 -0.2734 -0.2341
34293SOL    HW1 7690  12.488  11.896   0.265 -0.3538  0.4652 -1.3545
34293SOL    HW2 7691  12.572  12.008   0.208  0.9658  0.4463  0.4604
34294SOL     OW 7692   4.054   1.723   7.362  0.0753  0.1799  0.5523
34294SOL    HW1 7693   3.959   1.718   7.349 -0.1546  1.3511  1.5857
34294SOL    HW2 7694   4.064   1.741   7.455  1.3950 -1.5848  0.7806
34295SOL     OW 7695   6.536  12.021   3.620  0.3013 -0.1034  0.6610
34295SOL    HW1 7696   6.536  12.045   3.527 -0.7616  0.3146  0.7604
34295SOL    HW2 7697   6.624  11.988   3.636  1.5159  2.7097  0.2579
34296SOL     OW 7698   3.931   6.276  11.519  0.5110  0.0387 -0.4204
34296SOL    HW1 7699   3.947   6.366  11.549 -0.3901 -0.2024  0.8897
34296SOL    HW2 7700   3.918   6.226  11.600  0.1723 -1.1095 -1.1646
34297SOL     OW 7701   1.197   4.007   2.441 -0.5850  0.0302  0.3583
34297SOL    HW1 7702   1.145   3.927   2.440  1.3266 -1.2917 -0.9995
34297SOL    HW2 7703   1.249   4.001   2.521  0.1809 -0.5557 -0.1676
34298SOL     OW 7704  12.622  10.541  11.885 -0.3572 -0.1848  0.5168
34298SOL    HW1 7705  12.673  10.511  11.810  1.0153 -3.0991  2.4514
34298SOL    HW2 7706  12.548  10.481  11.890 -0.1846 -0.3320  1.7114
34299SOL     OW 7707   2.736   2.445   0.204  0.3231  0.1298  0.6744
34299SOL    HW1 7708   2.669   2.441   0.135  2.4046 -1.3533 -1.3882
34299SOL    HW2 7709   2.718   2.369   0.259 -0.2126  0.2274  0.6375
34300SOL     OW 7710   3.877   3.571   8.186  0.4113 -0.0538  0.2105
34300SOL    HW1 7711   3.825   3.608   8.115  0.6994 -0.3903 -0.1803
34300SOL    HW2 7712   3.813   3.528   8.243  0.2957 -0.7760 -0.4551
34301SOL     OW 7713   3.930   5.859  10.676 -0.2406 -0.4434 -0.1409
34301SOL    HW1 7714   3.896   5.807  10.603 -2.4535  0.5038  0.1340
34301SOL    HW2 7715   3.888   5.945  10.666  1.8600  0.7389  0.4819
34302SOL     OW 7716  11.633   9.262  11.835 -0.5220  0.0277 -0.1004
34302SOL    HW1 7717  11.551   9.217  11.815 -1.6156  1.3351  1.2329
34302SOL    HW2 7718  11.657   9.232  11.923  0.5164 -0.4162 -0.5098
34303SOL     OW 7719   1.175   8.172  11.303 -0.2222  0.6896 -0.0893
34303SOL    HW1 7720   1.134   8.237  11.359 -1.3152  0.2359 -0.3360
34303SOL    HW2 7721   1.102   8.126  11.262  0.5527  0.8844 -1.7469
34304SOL     OW 7722  11.573   6.463   0.564  0.0990  0.6078 -0.4862
34304SOL    HW1 7723  11.598   6.556   0.563 -0.2653  0.7288  0.3931
34304SOL    HW2 7724  11.637   6.420   0.507  0.1699  1.4208 -1.0466
34305SOL     OW 7725   6.123   0.969   5.248  1.0697  0.0131 -0.1343
34305SOL    HW1 7726   6.148   0.916   5.173 -0.1923 -1.2375  0.2918
34305SOL    HW2 7727   6.151   0.919   5.324 -1.7708 -1.0588  0.3438
34306SOL     OW 7728   7.463   0.930   0.743 -0.1149  0.0958  0.4389
34306SOL    HW1 7729   7.514   0.960   0.667 -2.0883  0.2942 -0.8823
34306SOL    HW2 7730   7.474   1.001   0.807  2.4857 -0.5769  0.8745
34307SOL     OW 7731   4.345   6.117   7.895 -0.6248 -0.4162 -0.2467
34307SOL    HW1 7732   4.388   6.111   7.810 -0.6520 -3.6796 -0.1656
34307SOL    HW2 7733   4.361   6.032   7.936 -2.3114  0.3237  2.2013
34308SOL     OW 7734   2.945   4.037  11.073  0.3721 -0.6143 -0.1781
34308SOL    HW1 7735   2.871   4.058  11.131  0.4184  0.4228 -0.4774
34308SOL    HW2 7736   2.984   4.121  11.052  0.7815 -1.0332 -1.1758
34309SOL     OW 7737   0.717   0.487   3.238  0.8615  0.4704 -0.0919
34309SOL    HW1 7738   0.635   0.473   3.190  1.3520 -0.6670 -0.6478
34309SOL    HW2 7739   0.721   0.415   3.300  1.0693  0.9743  0.4900
34310SOL     OW 7740   8.550   8.244   6.930  0.1541  0.5917 -0.3066
34310SOL    HW1 7741   8.599   8.266   6.851 -0.1084  0.8972 -0.3829
34310SOL    HW2 7742   8.469   8.293   6.923 -0.5405 -0.5728 -0.6020
34311SOL     OW 7743   1.689   7.455   5.407 -0.2354 -0.1422 -0.0260
34311SOL    HW1 7744   1.777   7.480   5.378 -0.0638  0.9892  1.3655
34311SOL    HW2 7745   1.639   7.445   5.325  0.7747  0.7621 -0.7875
34312SOL     OW 7746   8.780   1.975   4.144  0.3319 -0.4006 -0.5874
34312SOL    HW1 7747   8.755   1.895   4.097  0.1303  0.1963 -1.5213
34312SOL    HW2 7748   8.866   1.955   4.181  0.8285 -0.6352 -1.8413
34313SOL     OW 7749  10.672  10.202   9.547 -0.5365 -0.5928  0.1197
34313SOL    HW1 7750  10.691  10.118   9.506 -1.7881 -0.5508 -0.5810
34313SOL    HW2 7751  10.728  10.264   9.501 -1.0128 -0.7458 -0.6851
34314SOL     OW 7752   7.961   7.607   2.083  0.0709  0.3145 -0.3605
34314SOL    HW1 7753   7.988   7.686   2.130  4.4607 -0.5146 -1.0632
34314SOL    HW2 7754   7.946   7.543   2.153  0.4690  0.7160  0.1110
34315SOL     OW 7755   4.150   3.267   2.878  0.7910  0.4540 -0.4516
34315SOL    HW1 7756   4.130   3.319   2.956  0.1232  1.4219 -1.2378
34315SOL    HW2 7757   4.245   3.260   2.876  0.7830 -1.2194  1.4654
34316SOL     OW 7758  11.665  12.084   0.145 -0.1748 -0.1787 -0.2101
34316SOL    HW1 7759  11.625  12.008   0.101  0.2274 -0.7503  0.3867
34316SOL    HW2 7760  11.591  12.130   0.184 -0.2998 -1.0504  0.6183
34317SOL     OW 7761  11.400   5.268   0.103  1.0765  0.3052  0.2050
34317SOL    HW1 7762  11.364   5.234   0.020 -1.4860 -1.0707  1.7649
34317SOL    HW2 7763  11.442   5.191   0.143 -0.9922 -0.0644  1.8139
34318SOL     OW 7764   8.612   8.163   9.745 -0.0827  0.2458  0.3870
34318SOL    HW1 7765   8.683   8.133   9.688 -0.3914 -0.1722  0.2141
34318SOL    HW2 7766   8.621   8.258   9.747 -0.3970  0.3123 -0.8009
34319SOL     OW 7767   3.740   3.347   3.826 -0.5530  0.3094  0.0675
34319SOL    HW1 7768   3.664   3.404   3.834 -1.0468 -0.0173 -1.7033
34319SOL    HW2 7769   3.762   3.323   3.916 -1.4343  1.8260  0.7292
34320SOL     OW 7770  10.917   1.419   1.558  0.4721  0.3962 -0.3115
34320SOL    HW1 7771  10.904   1.366   1.638 -0.4735 -0.2822 -0.8953
34320SOL    HW2 7772  10.838   1.472   1.552  1.1786  1.4968 -0.0363
34321SOL     OW 7773  10.388  10.345  11.089 -0.5707  0.7865  0.6412
34321SOL    HW1 7774  10.331  10.302  11.026  0.8975  1.3235 -1.1417
34321SOL    HW2 7775  10.396  10.435  11.058  2.0736  0.4671  0.1395
34322SOL     OW 7776   8.906   3.610   9.163  0.0716 -0.3994 -0.9758
34322SOL    HW1 7777   8.863   3.536   9.120 -1.3653  1.2219 -2.4751
34322SOL    HW2 7778   8.874   3.687   9.117  1.7832  1.1753  0.2981
34323SOL     OW 7779   8.260   1.813   4.308 -0.0720  0.4153  0.1266
34323SOL    HW1 7780   8.309   1.827   4.390 -0.2826 -1.0430  0.5346
34323SOL    HW2 7781   8.312   1.748   4.261 -1.9329 -1.7853  0.9208
34324SOL     OW 7782   1.772   0.518   6.642  0.2565 -0.2341 -0.5493
34324SOL    HW1 7783   1.690   0.565   6.627  1.6650  2.6988  0.1552
34324SOL    HW2 7784   1.796   0.484   6.556 -1.1161 -0.1461 -0.9878
34325SOL     OW 7785   3.799   2.626   2.105  0.2166  0.1030 -0.0387
34325SOL    HW1 7786   3.794   2.644   2.012  0.7407 -1.3408 -0.3790
34325SOL    HW2 7787   3.775   2.534   2.113 -3.9338  1.1402  1.7600
34326SOL     OW 7788   1.760   2.150   8.396 -0.3503  0.5530 -0.4781
34326SOL    HW1 7789   1.764   2.242   8.370 -0.4451  1.0831  1.2403
34326SOL    HW2 7790   1.785   2.150   8.489  0.6280 -1.2937 -0.6934
34327SOL     OW 7791   9.485   4.477   4.830  0.1530  0.1179  0.1483
34327SOL    HW1 7792   9.535   4.530   4.893 -0.9953 -0.8375  1.9525
34327SOL    HW2 7793   9.528   4.492   4.746  2.9405 -0.0067  1.4519
34328SOL     OW 7794   1.042   2.704  10.260 -0.7125  0.4500  0.5830
34328SOL    HW1 7795   1.099   2.640  10.302  0.2185 -0.1828 -1.5198
34328SOL    HW2 7796   1.062   2.787  10.304  0.6268 -0.0684  1.0075
34329SOL     OW 7797   9.457   8.513   8.273 -0.0722  0.2595 -0.0407
34329SOL    HW1 7798   9.529   8.542   8.329 -1.6972  1.6935  1.4166
34329SOL    HW2 7799   9.457   8.576   8.201 -1.8926  2.4823  1.7262
34330SOL     OW 7800   2.271  11.181   6.401 -0.2444 -0.3279 -0.6664
34330SOL    HW1 7801   2.213  11.181   6.324 -0.9624 -2.4772 -0.1885
34330SOL    HW2 7802   2.285  11.089   6.421 -0.4957  0.1452  2.1038
34331SOL     OW 7803   2.128   9.457   9.569 -0.3694  0.1567 -0.0469
34331SOL    HW1 7804   2.173   9.431   9.489 -2.0959  0.7317 -1.2723
34331SOL    HW2 7805   2.123   9.377   9.621 -1.0795 -0.7618 -1.4728
34332SOL     OW 7806   9.765   6.917   2.972 -0.3215 -0.0960 -0.1574
34332SOL    HW1 7807   9.827   6.939   3.041  0.0538  1.4697 -0.9353
34332SOL    HW2 7808   9.788   6.828   2.946  3.4826  1.2253 -2.1965
34333SOL     OW 7809   3.917   3.835   5.015 -0.2086  0.1622  0.3740
34333SOL    HW1 7810   3.880   3.750   5.040 -0.3837  0.5141  1.3566
34333SOL    HW2 7811   3.919   3.885   5.097  1.4709  0.5155  0.1544
34334SOL     OW 7812   5.839   8.269   1.189  0.0719 -0.0148  0.0351
34334SOL    HW1 7813   5.763   8.247   1.242  0.3102 -0.7376  0.0809
34334SOL    HW2 7814   5.891   8.327   1.245 -1.5456  2.4571 -0.8228
34335SOL     OW 7815  10.760  10.341   8.879 -0.2630 -0.2607  0.1665
34335SOL    HW1 7816  10.722  10.299   8.957  1.7675 -1.1863  0.7370
34335SOL    HW2 7817  10.821  10.406   8.915 -0.1350  0.0882 -0.6696
34336SOL     OW 7818  12.084   1.231   8.616 -0.4324  0.0826  0.5234
34336SOL    HW1 7819  12.155   1.257   8.675 -0.3911 -1.2934  1.1025
34336SOL    HW2 7820  12.116   1.255   8.529  0.8408 -0.6689  0.7535
34337SOL     OW 7821   6.573   9.166   7.580  0.6064 -0.5961  0.1669
34337SOL    HW1 7822   6.482   9.189   7.562  0.7467  0.1736  0.4019
34337SOL    HW2 7823   6.572   9.071   7.589 -0.2374 -0.5592  0.5437
34338SOL     OW 7824  10.469  10.294   7.766  0.2017 -0.1145  0.3281
34338SOL    HW1 7825  10.449  10.330   7.852  0.7591 -0.6814  0.7033
34338SOL    HW2 7826  10.386  10.254   7.737 -0.9425  2.8511 -0.8457
34339SOL     OW 7827   5.099   7.158   6.078  0.4448 -0.0308 -0.4175
34339SOL    HW1 7828   5.085   7.232   6.137  1.2456 -1.4813  1.7116
34339SOL    HW2 7829   5.017   7.108   6.082  1.0270 -0.9534  0.7801
34340SOL     OW 7830   7.495  10.129   7.556  0.1799  0.4855 -0.7420
34340SOL    HW1 7831   7.406  10.120   7.521  0.5167  2.6881 -2.3886
34340SOL    HW2 7832   7.482  10.163   7.644 -0.6006 -1.1202 -0.1849
34341SOL     OW 7833   9.128   5.468   7.211  0.0211 -0.2508 -0.1091
34341SOL    HW1 7834   9.169   5.553   7.194  1.1343 -0.9690 -1.2064
34341SOL    HW2 7835   9.194   5.417   7.258 -0.1054 -0.9655 -0.6805
34342SOL     OW 7836   6.239   0.365  10.801  0.3057  0.3594 -0.4434
34342SOL    HW1 7837   6.230   0.451  10.842 -3.2823 -0.0241 -0.0838
34342SOL    HW2 7838   6.217   0.303  10.871 -2.3793 -0.4853 -1.8698
34343SOL     OW 7839   5.501   2.696   3.000  0.1959 -0.5146 -0.2562
34343SOL    HW1 7840   5.574   2.755   2.981  0.9002 -0.3461  2.6262
34343SOL    HW2 7841   5.540   2.624   3.049 -1.0813 -2.1333 -1.5064
34344SOL     OW 7842  11.215  11.748   6.417  0.0381  0.3639  0.3848
34344SOL    HW1 7843  11.144  11.777   6.360  0.6216  2.5002  0.6412
34344SOL    HW2 7844  11.270  11.694   6.361 -0.3809  0.8876 -0.5688
34345SOL     OW 7845   1.133   7.331   2.453  0.5725  0.1975 -0.3879
34345SOL    HW1 7846   1.221   7.356   2.426  0.2393  0.7070 -1.0434
34345SOL    HW2 7847   1.122   7.241   2.423  0.5791  0.4120 -1.0472
34346SOL     OW 7848  10.473  12.228   2.163  0.1674  0.0648  0.3273
34346SOL    HW1 7849  10.478  12.181   2.246 -1.0678  2.7029  1.9880
34346SOL    HW2 7850  10.404  12.183   2.114  0.0610 -0.7641  1.2165
34347SOL     OW 7851  11.244   5.530  12.423 -0.2796 -0.1662  0.3516
34347SOL    HW1 7852  11.265   5.513  12.331  0.4968 -0.8802  0.6446
34347SOL    HW2 7853  11.159   5.488  12.437 -1.2051  1.3502 -0.4389
34348SOL     OW 7854  10.038   9.314   8.601  0.5918 -1.0174  0.1078
34348SOL    HW1 7855   9.995   9.229   8.604 -0.0541 -0.6693  2.2156
34348SOL    HW2 7856  10.105   9.310   8.670 -0.4381  0.6405  1.2787
34349SOL     OW 7857  11.620   8.108   5.858  0.8926  0.0688 -0.1058
34349SOL    HW1 7858  11.657   8.183   5.904  0.9920 -0.7794  1.2277
34349SOL    HW2 7859  11.529   8.135   5.839  1.1339  0.7874 -0.2919
34350SOL     OW 7860   5.354  10.859   2.046 -0.3762  0.3603 -0.2852
34350SOL    HW1 7861   5.433  10.834   1.998 -0.9485 -1.0452 -0.5340
34350SOL    HW2 7862   5.283  10.816   2.000 -0.9152 -1.3543  1.9627
34351SOL     OW 7863   2.510   7.695   9.782 -0.0847  0.0722  0.3385
34351SOL    HW1 7864   2.603   7.679   9.766  0.2675  2.3393 -0.1904
34351SOL    HW2 7865   2.505   7.724   9.873 -0.1831  0.4979  0.2007
34352SOL     OW 7866   8.733   5.402   0.284  0.2333  0.5568 -0.1723
34352SOL    HW1 7867   8.647   5.360   0.283  0.8345 -0.8205 -2.3656
34352SOL    HW2 7868   8.715   5.494   0.265 -0.8481  0.6192  1.0190
34353SOL     OW 7869   2.906   2.643  11.277  0.3364  0.1412 -0.0827
34353SOL    HW1 7870   2.979   2.638  11.215  0.2022  3.1720 -0.6378
34353SOL    HW2 7871   2.834   2.682  11.227 -0.5022  0.5133  1.3600
34354SOL     OW 7872   9.896   9.541   2.089  0.3434 -0.2429  0.1806
34354SOL    HW1 7873   9.872   9.558   1.998 -1.0931 -2.3553  0.1003
34354SOL    HW2 7874   9.813   9.530   2.135  0.9919 -3.1285  0.8989
34355SOL     OW 7875   1.411   5.470  10.880  0.4796 -0.3461  0.0355
34355SOL    HW1 7876   1.397   5.416  10.802  2.8850  1.7907 -2.0472
34355SOL    HW2 7877   1.461   5.413  10.939  0.9425 -1.1799 -1.1112
34356SOL     OW 7878  11.858   8.250   5.303 -0.0643 -0.2649 -0.6820
34356SOL    HW1 7879  11.863   8.343   5.280 -1.2339 -0.4761 -1.9704
34356SOL    HW2 7880  11.784   8.244   5.363 -1.3929 -0.6026 -2.2726
34357SOL     OW 7881  11.584   2.896   4.968 -0.4126  0.0531 -0.5558
34357SOL    HW1 7882  11.518   2.918   4.902  0.0437  0.3492 -0.9216
34357SOL    HW2 7883  11.632   2.822   4.930 -0.6577 -0.2935 -0.2015
34358SOL     OW 7884   9.355   2.188   6.168 -0.1334  0.8742  0.3373
34358SOL    HW1 7885   9.370   2.268   6.118  3.1615  0.2212  0.0139
34358SOL    HW2 7886   9.333   2.122   6.103 -0.6369  1.0266  0.3475
34359SOL     OW 7887   5.812   3.287   8.723  0.5562  0.3938  0.0038
34359SOL    HW1 7888   5.829   3.381   8.729 -0.0123  0.3778  2.6265
34359SOL    HW2 7889   5.717   3.278   8.730  0.6750 -0.4202  0.7570
34360SOL     OW 7890   7.415   2.359  10.999 -0.3005  0.1568 -0.5480
34360SOL    HW1 7891   7.371   2.444  11.008  0.3234  0.6010 -1.4781
34360SOL    HW2 7892   7.490   2.378  10.943  0.4141 -0.8165  0.0542
34361SOL     OW 7893  11.418   9.094   5.393 -0.0636 -0.0628  0.2364
34361SOL    HW1 7894  11.487   9.159   5.381 -0.4891  0.0892 -1.5498
34361SOL    HW2 7895  11.337   9.144   5.383 -0.4671 -0.3233  1.8853
34362SOL     OW 7896   6.739   9.123   1.553 -0.0993  0.4398 -0.6121
34362SOL    HW1 7897   6.708   9.074   1.477 -0.4926 -1.0464  0.4594
34362SOL    HW2 7898   6.834   9.126   1.543 -0.1691  0.4206 -1.2670
34363SOL     OW 7899  11.197   6.164   1.349 -0.3532 -0.2755 -0.0433
34363SOL    HW1 7900  11.188   6.097   1.416  0.5657  1.8093  2.3013
34363SOL    HW2 7901  11.232   6.241   1.395 -0.9413  1.7155 -2.6533
34364SOL     OW 7902  10.243   9.279   7.544 -0.3030  0.6855 -0.3655
34364SOL    HW1 7903  10.218   9.325   7.464  0.2087  0.1015 -0.8721
34364SOL    HW2 7904  10.338   9.289   7.549 -0.2343  0.0282 -0.2650
34365SOL     OW 7905   9.041   0.677   2.438  0.2599 -0.4334 -0.3736
34365SOL    HW1 7906   8.996   0.622   2.502  1.4777 -0.3370  0.5889
34365SOL    HW2 7907   9.123   0.632   2.420 -0.0063 -0.4113 -1.8283
34366SOL     OW 7908  10.460   3.461   2.098  0.1531 -0.2564 -0.3633
34366SOL    HW1 7909  10.501   3.482   2.181 -0.5979  0.5590 -0.1870
34366SOL    HW2 7910  10.396   3.393   2.119 -0.0595 -0.0265 -0.2693
34367SOL     OW 7911   7.865   9.946   8.864 -0.8213  0.5695  0.3707
34367SOL    HW1 7912   7.829   9.866   8.826  0.3677  0.8509 -1.5123
34367SOL    HW2 7913   7.925   9.915   8.932 -0.0176 -0.2089 -0.6521
34368SOL     OW 7914   7.566   7.001   2.403  0.1413 -0.5799  0.4344
34368SOL    HW1 7915   7.624   6.925   2.409  0.0584 -0.6063  0.9513
34368SOL    HW2 7916   7.486   6.967   2.362  0.5206 -0.5228 -0.3671
34369SOL     OW 7917   2.481   0.487   5.030 -0.2779 -0.3822  0.2103
34369SOL    HW1 7918   2.471   0.571   4.986  0.0536  0.0888  1.0018
34369SOL    HW2 7919   2.536   0.435   4.972 -0.9222 -0.2426 -0.5313
34370SOL     OW 7920   9.386   7.693   0.687 -0.0309  0.3947  0.0193
34370SOL    HW1 7921   9.317   7.678   0.622 -0.1318  0.4107  0.1232
34370SOL    HW2 7922   9.343   7.683   0.772  0.1457  0.1776  0.0842
34371SOL     OW 7923   1.815  12.360  12.499  0.1172  0.7430 -0.0698
34371SOL    HW1 7924   1.822  12.351  12.404  0.7073  1.0503 -0.0636
34371SOL    HW2 7925   1.750  12.428  12.512 -2.2446 -1.3409 -0.1725
34372SOL     OW 7926   0.439   3.969  10.832 -0.2614 -0.1234 -0.8008
34372SOL    HW1 7927   0.395   3.884  10.833 -2.4198  0.9158 -1.0769
34372SOL    HW2 7928   0.421   4.004  10.745 -0.6727  1.1945 -0.2143
34373SOL     OW 7929  11.681   6.197   0.839 -0.1206  0.6435  0.3049
34373SOL    HW1 7930  11.647   6.190   0.750  0.5089 -0.4698  0.1309
34373SOL    HW2 7931  11.605   6.223   0.891 -1.2180 -1.3943 -0.1446
34374SOL     OW 7932   4.252   2.447  12.267 -0.7238  0.8706 -0.0209
34374SOL    HW1 7933   4.237   2.482  12.179 -1.2995 -0.6648 -0.5558
34374SOL    HW2 7934   4.195   2.371  12.274 -0.1201  0.5007  1.4131
34375SOL     OW 7935   8.958   1.285   4.189 -0.0252 -0.5684  0.1745
34375SOL    HW1 7936   8.886   1.300   4.250 -1.6177  1.3835 -2.0293
34375SOL    HW2 7937   8.953   1.192   4.168 -1.8928 -0.4798  0.1266
34376SOL     OW 7938  10.369  10.073   1.118  0.6548  0.4930  0.2405
34376SOL    HW1 7939  10.371  10.145   1.055  0.7368 -0.1431 -0.4924
34376SOL    HW2 7940  10.436  10.012   1.088 -0.0609 -0.3465  0.3090
34377SOL     OW 7941  10.570  10.946   3.069  0.0312  0.5561 -0.1558
34377SOL    HW1 7942  10.665  10.939   3.056  0.0029 -2.1054  0.4425
34377SOL    HW2 7943  10.533  10.899   2.994 -0.6702 -0.8102  1.0079
34378SOL     OW 7944  11.734   5.561   5.399  0.2310  0.2043 -0.0574
34378SOL    HW1 7945  11.805   5.503   5.373  0.5518  0.6096 -0.1027
34378SOL    HW2 7946  11.683   5.573   5.319  1.3495  1.6324 -0.6154
34379SOL     OW 7947   7.826  11.356   8.741 -0.0520  0.0195 -0.3704
34379SOL    HW1 7948   7.916  11.388   8.735  0.3509 -1.0194  0.0251
34379SOL    HW2 7949   7.783  11.391   8.663  0.6501  0.6364 -0.4944
34380SOL     OW 7950   7.654   6.992   1.213 -0.2403 -0.8652 -0.5029
34380SOL    HW1 7951   7.710   6.996   1.135  0.1445 -1.3465 -0.2630
34380SOL    HW2 7952   7.691   7.056   1.272 -1.4381  0.5884 -1.2699
34381SOL     OW 7953   7.549   4.174  10.819  0.3779 -0.0229  0.2686
34381SOL    HW1 7954   7.627   4.219  10.786 -1.4289  1.6198 -2.0238
34381SOL    HW2 7955   7.505   4.239  10.873  0.5632 -0.9934  1.6674
34382SOL     OW 7956   6.864  11.165   3.929 -0.3981  0.1568 -0.6787
34382SOL    HW1 7957   6.898  11.124   4.009 -1.5939 -0.2479 -0.3497
34382SOL    HW2 7958   6.837  11.091   3.874  0.5913  0.4303 -1.5539
34383SOL     OW 7959   9.738   5.895   3.982 -0.1746 -0.7458  0.3872
34383SOL    HW1 7960   9.778   5.978   3.954 -1.0876  0.7138  3.0543
34383SOL    HW2 7961   9.686   5.868   3.907  0.2744  1.0196 -0.6317
34384SOL     OW 7962   3.605   0.106   4.920 -0.2571 -0.0460  0.5205
34384SOL    HW1 7963   3.566   0.020   4.941  1.4693 -1.0403 -0.1498
34384SOL    HW2 7964   3.698   0.095   4.938  0.4171  0.8539 -2.0391
34385SOL     OW 7965   8.633   3.769   3.787 -0.1515 -0.1475 -0.3417
34385SOL    HW1 7966   8.719   3.790   3.824 -0.4389 -0.0167  0.2685
34385SOL    HW2 7967   8.648   3.764   3.692  0.3570  0.7651 -0.3277
34386SOL     OW 7968   3.713   5.755   4.183 -0.3935 -0.1386  0.3328
34386SOL    HW1 7969   3.777   5.736   4.115 -1.2066 -0.0613 -0.4739
34386SOL    HW2 7970   3.742   5.704   4.259  1.8006  1.4896  0.6911
34387SOL     OW 7971   0.339   9.959   8.381 -0.0555 -0.1003 -0.0363
34387SOL    HW1 7972   0.373   9.896   8.444 -2.3671 -0.3654  1.0450
34387SOL    HW2 7973   0.410  10.022   8.370  1.5121 -1.6886  0.4948
34388SOL     OW 7974  12.233   6.133   3.106  0.8188 -0.0607 -0.2684
34388SOL    HW1 7975  12.231   6.216   3.154 -1.5572  0.4836 -1.1833
34388SOL    HW2 7976  12.141   6.113   3.088  1.4875 -1.2225 -2.8855
34389SOL     OW 7977   6.516   3.038   4.061  0.2095 -0.2193 -0.0862
34389SOL    HW1 7978   6.522   3.132   4.073 -0.8599  0.0566 -1.4768
34389SOL    HW2 7979   6.605   3.011   4.038  1.0899  0.0176  2.6223
34390SOL     OW 7980  10.376   0.583   2.480 -0.3815 -0.2926 -0.3551
34390SOL    HW1 7981  10.442   0.566   2.546  1.0222  0.5948 -1.4671
34390SOL    HW2 7982  10.387   0.512   2.416 -1.6974 -1.1238  0.3047
34391SOL     OW 7983   2.674   9.463   3.571  0.2945 -0.0638  0.2643
34391SOL    HW1 7984   2.622   9.527   3.523  1.3676  2.4848  2.2710
34391SOL    HW2 7985   2.666   9.490   3.663  1.4294 -2.3970  1.1329
34392SOL     OW 7986  10.809   2.326   9.776  0.7202  0.4748 -0.4757
34392SOL    HW1 7987  10.735   2.348   9.832 -0.6263 -1.3180 -1.4242
34392SOL    HW2 7988  10.824   2.232   9.792  2.8777  0.8058 -0.2391
34393SOL     OW 7989   8.322   2.855   0.457 -0.2488 -0.0551 -0.4257
34393SOL    HW1 7990   8.269   2.892   0.528  0.3387  0.5028 -0.2753
34393SOL    HW2 7991   8.412   2.879   0.479  0.1158 -1.3180 -0.4812
34394SOL     OW 7992   7.978  10.526  11.857 -0.5416  0.2733  0.5609
34394SOL    HW1 7993   7.994  10.483  11.773  1.4545  1.8144  0.0688
34394SOL    HW2 7994   7.925  10.602  11.835  2.2786  2.2748  0.1158
34395SOL     OW 7995  10.981   0.310   7.696  0.4357 -0.3213  0.4514
34395SOL    HW1 7996  10.951   0.253   7.625  2.7774 -1.0295 -0.0573
34395SOL    HW2 7997  10.954   0.265   7.776 -1.6963  0.1811  0.0796
34396SOL     OW 7998   7.138   9.661   4.748 -0.1296  0.5581  0.1352
34396SOL    HW1 7999   7.097   9.656   4.834  0.7406 -1.8310  0.4819
34396SOL    HW2 8000   7.216   9.716   4.762  1.4682 -1.8849  1.6108
34397SOL     OW 8001   1.116   8.975  11.721  0.5203  0.0063  0.0008
34397SOL    HW1 8002   1.041   9.022  11.685  0.1974  0.5474  1.3220
34397SOL    HW2 8003   1.099   8.883  11.701 -0.1395  0.2020 -0.3375
34398SOL     OW 8004   4.050   1.535  10.687  0.4680  0.1325  0.0847
34398SOL    HW1 8005   4.019   1.469  10.626 -1.3983  3.1756 -2.5725
34398SOL    HW2 8006   4.117   1.583  10.638  0.8730  1.0376  1.4519
34399SOL     OW 8007   2.633   1.458  12.445 -0.1828 -0.1867 -0.6700
34399SOL    HW1 8008   2.654   1.551  12.449 -2.5564  0.3852 -0.2410
34399SOL    HW2 8009   2.654   1.432  12.355  1.1294  0.5561 -0.6013
34400SOL     OW 8010   1.400   4.921   8.014  0.0198 -0.0758 -0.8172
34400SOL    HW1 8011   1.441   4.989   7.961  0.2090  0.0416 -0.5231
34400SOL    HW2 8012   1.306   4.932   7.999 -0.1753  2.0413  1.3295
34401SOL     OW 8013   8.524   3.954   0.557 -0.0824 -0.1565 -0.8809
34401SOL    HW1 8014   8.486   3.912   0.634 -2.0301  1.1771 -1.0622
34401SOL    HW2 8015   8.541   4.044   0.584  1.2919 -0.2365 -1.3823
34402SOL     OW 8016  10.663   5.093   0.319  0.1508  0.5928 -0.3485
34402SOL    HW1 8017  10.726   5.164   0.312 -0.5347  1.1251 -1.3090
34402SOL    HW2 8018  10.579   5.136   0.335 -0.0450 -0.0874  0.5399
34403SOL     OW 8019  11.315   1.077   4.001 -0.1765 -0.1677  0.0313
34403SOL    HW1 8020  11.232   1.036   3.976 -0.3849  0.5795 -0.5017
34403SOL    HW2 8021  11.333   1.042   4.088 -0.1815 -1.6642 -0.5352
34404SOL     OW 8022   2.550   3.066   8.525  0.2759 -0.3492  0.4222
34404SOL    HW1 8023   2.638   3.083   8.493  0.5775 -0.6639  1.0719
34404SOL    HW2 8024   2.562   3.005   8.598 -0.5167 -0.7957  0.1928
34405SOL     OW 8025   3.538   9.336   6.991  0.3628  0.1529 -0.0313
34405SOL    HW1 8026   3.486   9.368   6.918 -0.0279 -0.8047 -0.1866
34405SOL    HW2 8027   3.588   9.262   6.954 -0.8365 -1.2056  0.9714
34406SOL     OW 8028   4.022   0.646   2.275  0.2932  0.1388 -0.0871
34406SOL    HW1 8029   3.928   0.662   2.286  0.5041  1.2715  0.1850
34406SOL    HW2 8030   4.052   0.717   2.219  0.9090 -0.5224 -0.6295
34407SOL     OW 8031  10.366  11.003   1.485  0.0696  0.1986  0.6716
34407SOL    HW1 8032  10.338  10.914   1.464 -0.1752  0.3157  0.4881
34407SOL    HW2 8033  10.434  11.023   1.422 -0.6356  0.5346  0.0029
34408SOL     OW 8034  10.375   1.165   3.840 -0.4938 -0.4148  0.2330
34408SOL    HW1 8035  10.386   1.243   3.785 -1.1135 -0.5250 -0.0567
34408SOL    HW2 8036  10.363   1.199   3.928  2.3703 -0.2748  0.6707
34409SOL     OW 8037   4.343   1.705   2.840  0.3213  0.4355  0.1384
34409SOL    HW1 8038   4.377   1.768   2.905  0.4869  0.0669  0.4117
34409SOL    HW2 8039   4.255   1.685   2.871 -0.7438  2.4691 -1.3307
34410SOL     OW 8040   9.902   6.197   5.548 -0.8227  0.0520 -0.2257
34410SOL    HW1 8041   9.924   6.290   5.542  0.1867 -0.0718  0.9982
34410SOL    HW2 8042   9.906   6.177   5.642 -0.7688 -1.2783 -0.4842
34411SOL     OW 8043   4.772   2.118   5.106 -0.0341  0.4559  0.1263
34411SOL    HW1 8044   4.705   2.079   5.162  0.6701  0.3477  0.9001
34411SOL    HW2 8045   4.827   2.169   5.165  1.1931 -0.3055 -0.3172
34412SOL     OW 8046  11.437   7.915   5.490  0.2809  0.2352 -0.4790
34412SOL    HW1 8047  11.423   7.962   5.407 -0.9886 -0.4844 -0.7128
34412SOL    HW2 8048  11.529   7.928   5.510  0.2456  1.7937 -1.1604
34413SOL     OW 8049   2.013   0.841   0.076 -0.2154  0.0067  0.7102
34413SOL    HW1 8050   2.029   0.748   0.095  0.1757 -0.1106 -0.1265
34413SOL    HW2 8051   2.050   0.854  -0.012 -2.0759  0.4414 -0.0638
34414SOL     OW 8052   5.415   2.546   4.002  0.8493  0.4928 -0.0122
34414SOL    HW1 8053   5.438   2.636   4.023  1.4375  0.5112 -0.7080
34414SOL    HW2 8054   5.397   2.506   4.087  1.0482  1.1381  0.3413
34415SOL     OW 8055  12.564   3.701   7.845 -0.6347 -0.3405  0.1283
34415SOL    HW1 8056  12.634   3.758   7.813 -0.0937 -1.7095 -1.2841
34415SOL    HW2 8057  12.490   3.719   7.788 -1.2313  0.5640  1.1472
34416SOL     OW 8058  11.201   6.034   3.265  0.2517 -0.2405 -0.3615
34416SOL    HW1 8059  11.180   5.989   3.347  1.4541 -0.4045 -0.1326
34416SOL    HW2 8060  11.291   6.008   3.245 -0.8051 -2.2330 -3.0749
34417SOL     OW 8061   0.352  10.756   6.018  0.1577 -0.2750 -0.6862
34417SOL    HW1 8062   0.380  10.834   5.970  0.1299 -1.2770 -2.4010
34417SOL    HW2 8063   0.264  10.738   5.986  0.3500 -1.2857 -0.6866
34418SOL     OW 8064   2.000   0.735  11.932 -0.0383  0.7847 -0.7069
34418SOL    HW1 8065   2.080   0.691  11.961 -1.2485 -0.8081  0.3841
34418SOL    HW2 8066   2.019   0.763  11.842  1.9121  0.9416 -0.2753
34419SOL     OW 8067  10.937   9.362   1.037  0.4223 -0.2046 -0.5507
34419SOL    HW1 8068  10.909   9.307   0.963 -0.3516 -0.4173 -0.1067
34419SOL    HW2 8069  10.871   9.346   1.105  0.9323  0.2622  0.0601
34420SOL     OW 8070   8.263  10.452   3.701 -0.6488 -0.1299  0.0210
34420SOL    HW1 8071   8.308  10.469   3.784  0.0986 -1.9655  0.0324
34420SOL    HW2 8072   8.249  10.539   3.663 -1.4739  0.8026  2.2903
34421SOL     OW 8073   6.746   0.588  10.042 -0.5724  0.0428  0.1547
34421SOL    HW1 8074   6.727   0.669  10.089  0.1012 -0.0256  0.5557
34421SOL    HW2 8075   6.827   0.606   9.994 -1.7471  0.4436 -1.8067
34422SOL     OW 8076   5.591   6.294   7.249 -0.8049  0.4723 -0.5174
34422SOL    HW1 8077   5.606   6.342   7.168 -0.0353  0.6454 -0.2775
34422SOL    HW2 8078   5.671   6.243   7.262 -1.2600 -0.2052 -0.3080
34423SOL     OW 8079   2.459   4.579   9.003 -0.6692 -0.3353  0.2166
34423SOL    HW1 8080   2.430   4.526   9.077 -0.6773 -1.6737 -0.7230
34423SOL    HW2 8081   2.482   4.663   9.042 -1.9686 -0.5537  1.5555
34424SOL     OW 8082   0.477   7.924   3.294  0.0485  0.0646  0.1200
34424SOL    HW1 8083   0.457   7.840   3.334  0.9676  1.4543  3.9460
34424SOL    HW2 8084   0.572   7.933   3.301 -0.1962  2.1802  1.7050
34425SOL     OW 8085   2.387   4.821   2.204  0.2017 -0.1664 -0.4226
34425SOL    HW1 8086   2.345   4.745   2.245  0.2999 -0.2945 -0.5565
34425SOL    HW2 8087   2.369   4.810   2.110  1.1505 -0.6113 -0.5653
34426SOL     OW 8088   3.641   6.530   2.557  0.4405 -0.4001  0.0564
34426SOL    HW1 8089   3.629   6.454   2.615  1.6714 -0.5454  0.1467
34426SOL    HW2 8090   3.611   6.500   2.472 -1.6836 -0.0917  0.6510
34427SOL     OW 8091   2.465   8.783   3.970  0.4530  0.0603 -0.2491
34427SOL    HW1 8092   2.500   8.750   3.888 -0.1554 -1.7393  0.1678
34427SOL    HW2 8093   2.373   8.757   3.969  0.1028  1.2099  0.4106
34428SOL     OW 8094   3.586   6.744   1.276 -0.1602 -0.8656  0.0046
34428SOL    HW1 8095   3.625   6.763   1.190  1.6610 -0.0934  0.9676
34428SOL    HW2 8096   3.523   6.814   1.290 -0.9553 -1.3514 -0.9487
34429SOL     OW 8097   0.009   1.539   6.863 -0.4849  0.0102 -0.3636
34429SOL    HW1 8098   0.073   1.607   6.840 -0.1823 -0.1571 -0.0338
34429SOL    HW2 8099   0.047   1.496   6.940 -1.3154  0.3391  0.2476
34430SOL     OW 8100   5.444   5.400  11.853  0.0395 -0.3672 -0.3495
34430SOL    HW1 8101   5.458   5.475  11.796 -0.9522  0.6896  0.7273
34430SOL    HW2 8102   5.464   5.324  11.799 -1.6432  0.5295 -2.3626
34431SOL     OW 8103   0.757   6.424   4.101  0.5767  0.0937  0.2369
34431SOL    HW1 8104   0.844   6.384   4.103 -0.5537 -2.5559  1.6308
34431SOL    HW2 8105   0.703   6.361   4.054 -0.5603  1.8513 -0.8953
34432SOL     OW 8106   3.568   9.181   1.777  0.4908 -0.0519  0.3317
34432SOL    HW1 8107   3.622   9.260   1.772  1.6870 -0.8617 -0.0869
34432SOL    HW2 8108   3.631   9.109   1.772 -0.5855 -1.0339  0.5609
34433SOL     OW 8109  11.993   7.744   0.563  0.5178  0.2189 -0.1746
34433SOL    HW1 8110  12.005   7.838   0.551  3.0436  0.1254  1.0098
34433SOL    HW2 8111  11.994   7.731   0.658  2.7490 -1.1924 -0.3042
34434SOL     OW 8112   7.172  10.227   7.009  0.0057  0.0573 -0.0735
34434SOL    HW1 8113   7.121  10.153   6.974 -0.8390 -0.0681  1.3508
34434SOL    HW2 8114   7.239  10.186   7.064  0.5778  0.2962 -0.5861
34435SOL     OW 8115   6.254  11.987   0.127 -0.2264 -0.7967  0.7464
34435SOL    HW1 8116   6.331  11.974   0.183 -0.0000  0.1619  0.6848
34435SOL    HW2 8117   6.195  12.041   0.180 -1.1819 -2.0910  1.0566
34436SOL     OW 8118   0.185   3.920   2.437  0.5212 -0.7571 -1.0616
34436SOL    HW1 8119   0.116   3.889   2.378  0.6613 -1.0303 -1.0850
34436SOL    HW2 8120   0.177   3.864   2.514 -0.0710  0.0086 -0.5452
34437SOL     OW 8121   0.856   3.699   5.989 -0.0811 -0.4299 -0.5015
34437SOL    HW1 8122   0.856   3.768   5.921 -0.2440  0.0434 -0.0301
34437SOL    HW2 8123   0.806   3.737   6.061 -0.3951 -1.1488 -0.3311
34438SOL     OW 8124   9.718   2.504  12.168 -0.5452  0.3693 -0.3447
34438SOL    HW1 8125   9.802   2.539  12.199 -1.1253  1.5726 -0.0369
34438SOL    HW2 8126   9.740   2.420  12.128  0.6994  0.3166  0.3805
34439SOL     OW 8127  12.220   5.438  11.198 -0.2693 -0.4949  0.3476
34439SOL    HW1 8128  12.268   5.356  11.214  1.4394 -0.4704 -3.6320
34439SOL    HW2 8129  12.266   5.503  11.250  0.1739 -1.5305  1.2980
34440SOL     OW 8130   7.988   4.934  11.031 -0.1140 -0.0020  1.1176
34440SOL    HW1 8131   8.005   4.876  10.957  0.1468  1.1332  0.2686
34440SOL    HW2 8132   7.918   4.890  11.080 -0.5091 -0.6162  0.0424
34441SOL     OW 8133   5.290   8.326  11.614  0.5500 -0.2272 -0.1839
34441SOL    HW1 8134   5.223   8.374  11.565 -0.5429  0.8693  2.2095
34441SOL    HW2 8135   5.348   8.394  11.647  1.2130 -0.9220  0.1037
34442SOL     OW 8136   4.798   0.008   3.206 -0.0103  0.2184  0.0020
34442SOL    HW1 8137   4.724   0.028   3.264 -0.3972 -2.5589  0.6466
34442SOL    HW2 8138   4.867  -0.020   3.266  0.1904 -0.9893 -0.7713
34443SOL     OW 8139   8.892   1.871   7.982 -0.5588  0.5402 -0.2355
34443SOL    HW1 8140   8.888   1.965   7.967  0.4192  0.2734 -2.6294
34443SOL    HW2 8141   8.825   1.834   7.924  1.8621 -0.4344 -2.6698
34444SOL     OW 8142   0.420   1.868   3.616 -0.1587  0.2197  0.3561
34444SOL    HW1 8143   0.471   1.834   3.689 -1.0480  0.7540  1.2401
34444SOL    HW2 8144   0.442   1.962   3.613  2.4024 -0.3133 -2.1580
34445SOL     OW 8145   1.043   7.150   7.715  0.1249  0.6217 -0.4579
34445SOL    HW1 8146   0.947   7.157   7.717 -0.0230 -0.9083 -0.6497
34445SOL    HW2 8147   1.066   7.113   7.800  0.6269  1.6482 -0.1371
34446SOL     OW 8148   4.630   1.850  11.475  0.1242 -0.3240 -0.4088
34446SOL    HW1 8149   4.617   1.762  11.512 -0.5329 -0.7427 -1.5763
34446SOL    HW2 8150   4.721   1.851  11.446 -0.3714 -1.3855 -2.2099
34447SOL     OW 8151   7.527   1.400   0.173  0.3788  0.4868  0.5138
34447SOL    HW1 8152   7.597   1.390   0.109 -0.1213  0.5841 -0.0593
34447SOL    HW2 8153   7.555   1.473   0.228  0.5941  0.7096  0.1128
34448SOL     OW 8154  12.489  11.425   7.634  0.2273 -0.0509 -0.4898
34448SOL    HW1 8155  12.460  11.515   7.620  0.1985 -0.1009 -0.7560
34448SOL    HW2 8156  12.578  11.434   7.668  0.4053  0.0659 -0.9766
34449SOL     OW 8157   9.420   0.761   7.082 -0.3765 -0.6401 -0.3335
34449SOL    HW1 8158   9.330   0.774   7.112 -0.4722 -0.9013 -0.5099
34449SOL    HW2 8159   9.473   0.797   7.153 -0.6409  0.9489 -0.9031
34450SOL     OW 8160   0.519   2.975   0.402  0.0198 -0.3535  0.3267
34450SOL    HW1 8161   0.444   2.921   0.378 -1.0115  1.2733 -0.3158
34450SOL    HW2 8162   0.485   3.032   0.471 -0.4260  2.6165 -2.1127
34451SOL     OW 8163   1.662   1.064   7.330  0.0239  0.1515  0.2977
34451SOL    HW1 8164   1.646   0.983   7.282 -3.0865  0.9115 -0.1375
34451SOL    HW2 8165   1.646   1.042   7.421 -1.5548  0.3869  0.1011
34452SOL     OW 8166   5.352   2.292  11.481 -0.2915 -0.0361  0.0094
34452SOL    HW1 8167   5.430   2.318  11.432 -0.7120 -0.3059 -0.8055
34452SOL    HW2 8168   5.363   2.198  11.496  0.0246  0.1124  0.7940
34453SOL     OW 8169   4.319   1.043  10.709 -0.3716 -0.1789  0.4068
34453SOL    HW1 8170   4.259   0.970  10.724 -2.2147  1.5045  1.9453
34453SOL    HW2 8171   4.273   1.119  10.746  1.7355  1.6429 -0.4905
34454SOL     OW 8172  11.536  12.619  11.430 -0.1629 -0.0872 -0.1461
34454SOL    HW1 8173  11.613  12.598  11.484  0.2635 -1.8070 -1.3311
34454SOL    HW2 8174  11.567  12.607  11.340 -1.7080 -0.3562 -0.6588
34455SOL     OW 8175   4.901  12.398  11.678  0.3881 -0.4475  0.3357
34455SOL    HW1 8176   4.838  12.327  11.672 -2.1432  1.7563 -1.1718
34455SOL    HW2 8177   4.905  12.419  11.771 -3.0258  0.8724  0.2896
34456SOL     OW 8178   2.035  11.982   0.996  1.2033 -0.5338 -0.1223
34456SOL    HW1 8179   2.127  11.957   1.009  0.8041 -1.2916  1.5319
34456SOL    HW2 8180   1.995  11.969   1.082  0.3281  3.3157  0.2512
34457SOL     OW 8181   3.545   1.588   6.829 -0.0994 -0.1765 -0.6051
34457SOL    HW1 8182   3.631   1.589   6.871 -0.5438  1.9066  0.4165
34457SOL    HW2 8183   3.560   1.547   6.744  1.9413  0.2734 -0.5144
34458SOL     OW 8184   5.795   6.904   0.882 -0.1908 -0.2391  0.6678
34458SOL    HW1 8185   5.742   6.967   0.931 -0.4757 -0.3941  0.5608
34458SOL    HW2 8186   5.866   6.956   0.845 -0.0121 -0.1059  1.1863
34459SOL     OW 8187   8.001  10.910   5.592  0.1080 -0.4726 -0.7658
34459SOL    HW1 8188   8.083  10.959   5.589  0.2891 -0.7236 -0.1230
34459SOL    HW2 8189   7.971  10.908   5.501  1.4575 -1.4736 -1.2189
34460SOL     OW 8190   3.179   8.452   3.998 -0.3602  0.2034  0.0111
34460SOL    HW1 8191   3.098   8.402   3.994 -0.2598  0.0713 -0.5726
34460SOL    HW2 8192   3.223   8.421   4.077 -0.7028  0.0075  0.1279
34461SOL     OW 8193   5.500   6.431   7.931 -0.5235  0.1111  0.7867
34461SOL    HW1 8194   5.426   6.425   7.871 -1.4633 -2.2865  2.0036
34461SOL    HW2 8195   5.463   6.468   8.011 -0.1437  0.0035  1.0149
34462SOL     OW 8196   5.608   9.088  10.006  0.2676 -0.4410 -1.0251
34462SOL    HW1 8197   5.692   9.044  10.018 -0.4167 -1.6033 -0.3908
34462SOL    HW2 8198   5.563   9.036   9.939 -0.4458 -0.5555 -0.4551
34463SOL     OW 8199   1.374   0.004  10.896  0.3637  0.0094  0.2941
34463SOL    HW1 8200   1.317   0.075  10.866  1.3672  0.5694 -0.3308
34463SOL    HW2 8201   1.462   0.035  10.878  0.8049 -2.1788 -1.8363
34464SOL     OW 8202   6.146  11.533   6.794 -0.5155 -0.1177 -0.3588
34464SOL    HW1 8203   6.241  11.525   6.791 -0.3324  1.4907  0.2844
34464SOL    HW2 8204   6.126  11.612   6.744 -1.5626 -0.6416 -0.8090
34465SOL     OW 8205   7.054  12.013   5.316 -0.1083 -0.9256  0.3827
34465SOL    HW1 8206   7.148  11.994   5.306  0.0329 -0.1123  0.0209
34465SOL    HW2 8207   7.016  11.992   5.231 -0.2248 -1.0915  0.4760
34466SOL     OW 8208  10.143   2.297   1.574  0.1146 -0.2232  0.1988
34466SOL    HW1 8209  10.211   2.348   1.618  0.0898  0.1236 -0.1614
34466SOL    HW2 8210  10.151   2.209   1.611  1.6324 -0.5225 -0.7970
34467SOL     OW 8211   6.772   7.153   1.490 -0.0535  0.0778 -0.0284
34467SOL    HW1 8212   6.768   7.127   1.398  0.2976  0.3519 -0.1228
34467SOL    HW2 8213   6.746   7.245   1.490  0.0926  0.1199  0.1257
34468SOL     OW 8214   2.637  11.607  10.776 -0.1675 -0.2584  0.3024
34468SOL    HW1 8215   2.670  11.526  10.815 -1.7286 -0.3874  1.4368
34468SOL    HW2 8216   2.702  11.629  10.710 -0.0033 -2.7618 -0.4840
34469SOL     OW 8217   3.673   4.719  12.086  0.2918 -0.1921  0.0257
34469SOL    HW1 8218   3.720   4.802  12.079 -1.5309  0.8605 -0.3713
34469SOL    HW2 8219   3.581   4.743  12.076 -0.2275 -2.3703 -0.9781
34470SOL     OW 8220   8.648  12.172  12.298  0.5601  0.6212 -0.0651
34470SOL    HW1 8221   8.581  12.223  12.253  0.5604  0.9761  0.3289
34470SOL    HW2 8222   8.723  12.175  12.240  0.3987  0.6545 -0.2742
34471SOL     OW 8223   1.588   0.186   8.711 -0.4893 -0.4412  0.3729
34471SOL    HW1 8224   1.528   0.239   8.657  0.8211 -0.2499 -0.9615
34471SOL    HW2 8225   1.540   0.105   8.725 -0.9226 -0.4792 -1.0718
34472SOL     OW 8226   8.086   6.197   0.388  0.1900 -0.5816 -0.4316
34472SOL    HW1 8227   8.069   6.291   0.390  2.3345 -0.1131 -1.3587
34472SOL    HW2 8228   8.024   6.159   0.450 -1.1366  1.3621 -0.5166
34473SOL     OW 8229   5.497   3.140   2.450 -0.4390 -0.4055  0.1824
34473SOL    HW1 8230   5.537   3.191   2.381  0.1734 -1.3836 -0.2082
34473SOL    HW2 8231   5.410   3.119   2.417 -1.9233  2.8385  1.5721
34474SOL     OW 8232  11.626   0.797   2.604  0.2309  0.0404  0.0042
34474SOL    HW1 8233  11.565   0.730   2.633 -0.5434 -0.0458 -1.7137
34474SOL    HW2 8234  11.638   0.780   2.511  2.4752  0.3840  0.1725
34475SOL     OW 8235   6.954   4.801   1.874 -0.6373  0.4900  0.4542
34475SOL    HW1 8236   6.973   4.804   1.780 -2.5617  0.7509  0.0171
34475SOL    HW2 8237   6.863   4.771   1.878 -1.4604  2.9148  2.0775
34476SOL     OW 8238   4.125   2.780   6.022  0.3543 -0.2486  0.3318
34476SOL    HW1 8239   4.082   2.864   6.008 -0.4939 -0.6930  0.2121
34476SOL    HW2 8240   4.083   2.744   6.100  1.7839  0.1094  1.2990
34477SOL     OW 8241   7.333   2.769  11.437  0.3550  0.1241 -0.6344
34477SOL    HW1 8242   7.367   2.839  11.493 -0.2192  0.3329 -0.5439
34477SOL    HW2 8243   7.401   2.702  11.440  1.3418  1.0408 -1.4452
34478SOL     OW 8244  11.108   9.748   6.306  0.1699  0.1422 -0.3458
34478SOL    HW1 8245  11.116   9.799   6.225 -1.2694 -0.8600 -1.1533
34478SOL    HW2 8246  11.070   9.665   6.278  1.8091 -1.1450  1.0447
34479SOL     OW 8247  12.484  11.674   4.456 -0.1660  0.0583  0.2900
34479SOL    HW1 8248  12.486  11.646   4.548 -0.5120 -1.5691 -0.1666
34479SOL    HW2 8249  12.573  11.656   4.424 -0.0427  0.6348  0.2931
34480SOL     OW 8250   8.514   5.917   1.640  0.0171  0.2477  0.3115
34480SOL    HW1 8251   8.493   6.000   1.598 -0.5109  1.2808  2.4964
34480SOL    HW2 8252   8.609   5.919   1.652  0.3873 -0.6898 -1.9888
34481SOL     OW 8253  11.279   7.613   5.759  0.8290  0.0911 -0.2483
34481SOL    HW1 8254  11.332   7.567   5.823 -0.4456  1.0247  1.5474
34481SOL    HW2 8255  11.230   7.544   5.714  0.5313 -0.4777  0.9259
34482SOL     OW 8256   3.934   6.909   1.195  0.1936 -0.1432 -0.5699
34482SOL    HW1 8257   3.954   6.819   1.220 -0.1278  0.0467  0.4171
34482SOL    HW2 8258   3.854   6.903   1.144  0.7113 -0.5145 -1.3516
34483SOL     OW 8259   0.030  10.898   1.356 -1.0260  0.0260  0.9359
34483SOL    HW1 8260   0.034  10.924   1.264 -0.8973 -3.3637 -0.1262
34483SOL    HW2 8261   0.064  10.974   1.403 -1.5995  2.0895 -1.7098
34484SOL     OW 8262  11.384   0.107   2.788  0.3895  0.6549 -0.4203
34484SOL    HW1 8263  11.446   0.178   2.805 -0.9129  1.8619 -0.5528
34484SOL    HW2 8264  11.346   0.086   2.874  1.5936 -0.7184 -0.1821
34485SOL     OW 8265   1.028   1.753   0.433 -0.0902  0.0437  0.0307
34485SOL    HW1 8266   0.956   1.765   0.495  0.5282 -2.2391  1.2842
34485SOL    HW2 8267   1.106   1.780   0.482  0.3973 -1.7203  0.2723
34486SOL     OW 8268   8.248   8.818   9.813 -0.3839  0.1396  0.0847
34486SOL    HW1 8269   8.239   8.820   9.718 -1.8339 -2.6301  0.0629
34486SOL    HW2 8270   8.343   8.817   9.828  0.0097  4.2224 -1.0471
34487SOL     OW 8271   2.818   3.261   6.628  0.3752 -0.2522 -0.0277
34487SOL    HW1 8272   2.754   3.316   6.582  0.7921 -1.3613 -2.0527
34487SOL    HW2 8273   2.766   3.189   6.663  0.1544  0.2539  0.7227
34488SOL     OW 8274   3.276   0.957  11.497 -0.1706  0.2374  0.2737
34488SOL    HW1 8275   3.313   0.960  11.409  1.1045  3.2065  0.7901
34488SOL    HW2 8276   3.337   0.902  11.547 -1.6194 -2.6046 -0.8614
34489SOL     OW 8277   4.965   7.342   7.454 -0.3830 -0.2690 -0.3282
34489SOL    HW1 8278   4.921   7.414   7.408  2.1276 -0.0438 -2.6454
34489SOL    HW2 8279   5.058   7.366   7.453  0.4012 -2.9760 -0.1563
34490SOL     OW 8280   0.633   7.629   6.214 -0.0592 -0.1738 -0.0409
34490SOL    HW1 8281   0.679   7.577   6.148 -1.0132  1.6146 -2.2858
34490SOL    HW2 8282   0.697   7.694   6.243  0.3428 -0.9238  0.7924
34491SOL     OW 8283   9.439  11.867   6.631  0.3017 -0.3029 -0.8065
34491SOL    HW1 8284   9.394  11.946   6.603  0.8676  0.7552  1.1084
34491SOL    HW2 8285   9.457  11.819   6.550 -1.8054  0.5516 -1.8322
34492SOL     OW 8286   1.505   0.184   9.083  0.0932 -0.3336  0.2039
34492SOL    HW1 8287   1.454   0.223   9.153  0.5801  2.7212 -1.0026
34492SOL    HW2 8288   1.457   0.207   9.003  0.8723 -1.5681 -0.6553
34493SOL     OW 8289   5.425   5.453   6.081  0.0616 -0.4323 -0.4728
34493SOL    HW1 8290   5.364   5.449   6.155 -0.7701  0.1089 -1.1079
34493SOL    HW2 8291   5.369   5.446   6.003  0.3433  3.3063 -1.2250
34494SOL     OW 8292  10.998   4.440   3.676  0.1786 -0.0163 -0.2730
34494SOL    HW1 8293  11.080   4.410   3.637  0.7926 -0.0892  1.0110
34494SOL    HW2 8294  11.008   4.534   3.687  0.5925 -0.1853  0.9645
34495SOL     OW 8295   4.530   8.216   2.551  0.2480  0.0381 -0.4019
34495SOL    HW1 8296   4.572   8.286   2.501 -0.4405  0.8446  0.1113
34495SOL    HW2 8297   4.588   8.202   2.626  0.1021  0.4797 -0.2003
34496SOL     OW 8298   2.390   2.825   1.986  0.4833  0.1874  0.3256
34496SOL    HW1 8299   2.350   2.744   1.953  0.3266 -0.1526  1.2922
34496SOL    HW2 8300   2.316   2.878   2.016  0.6372  0.2838  0.5420
34497SOL     OW 8301   7.813  12.310   1.658  0.5646  0.6225  1.2304
34497SOL    HW1 8302   7.852  12.318   1.745  2.6516  0.7041  0.3273
34497SOL    HW2 8303   7.844  12.225   1.626  0.6318  1.0422  0.1745
34498SOL     OW 8304   5.911   7.076   7.048  0.8412  0.3599  0.5318
34498SOL    HW1 8305   5.910   6.994   7.097 -1.2970 -0.0746 -0.1389
34498SOL    HW2 8306   5.836   7.125   7.081  0.3338  0.7749 -1.1247
34499SOL     OW 8307   9.748   0.163  12.635  0.4658 -0.4510 -0.3818
34499SOL    HW1 8308   9.670   0.165  12.691  0.9124 -2.0739  0.3420
34499SOL    HW2 8309   9.718   0.201  12.552 -1.1473 -1.1830 -0.1789
34500SOL     OW 8310  11.432   0.929   3.216 -0.1679 -0.0484 -0.3277
34500SOL    HW1 8311  11.521   0.952   3.240 -0.0060 -0.6208 -0.3517
34500SOL    HW2 8312  11.441   0.881   3.134 -0.5315  0.1924 -0.5124
34501SOL     OW 8313   0.856   4.078  11.619 -0.1114 -0.0784  0.1835
34501SOL    HW1 8314   0.894   4.052  11.535 -1.3046  0.6586 -0.6253
34501SOL    HW2 8315   0.768   4.040  11.618 -0.6110  1.0272  0.5017
34502SOL     OW 8316   4.804   1.167   7.166  0.8711  0.2649 -0.3824
34502SOL    HW1 8317   4.773   1.078   7.181 -0.6135  0.8189 -0.0237
34502SOL    HW2 8318   4.866   1.183   7.237  0.0701 -0.0023  0.3928
34503SOL     OW 8319   8.999  10.633   8.636 -0.4088 -0.1595  0.0490
34503SOL    HW1 8320   9.067  10.688   8.597  1.1162 -0.4954  2.0459
34503SOL    HW2 8321   9.047  10.559   8.673 -2.1708 -1.6710 -0.5633
34504SOL     OW 8322   9.713   5.963  11.853  0.2210 -0.6740  0.1215
34504SOL    HW1 8323   9.715   6.004  11.939  2.4718  0.4969 -0.4193
34504SOL    HW2 8324   9.772   5.888  11.861  0.7999 -0.2934 -0.5093
34505SOL     OW 8325   7.219   7.740   1.582 -0.2273  0.2738  0.4931
34505SOL    HW1 8326   7.132   7.704   1.565 -0.4092  1.0133 -0.2022
34505SOL    HW2 8327   7.211   7.832   1.559  1.1721  0.0328 -1.1412
34506SOL     OW 8328   8.948   3.958   1.593 -0.5266 -0.5447  0.4095
34506SOL    HW1 8329   8.922   3.870   1.566 -1.1310 -0.2092 -0.1192
34506SOL    HW2 8330   9.030   3.945   1.642 -0.3282 -1.3394 -0.1242
34507SOL     OW 8331  12.607   5.554  10.048 -0.7022  0.1821 -0.9018
34507SOL    HW1 8332  12.536   5.510  10.094 -0.8957  0.6484 -0.7480
34507SOL    HW2 8333  12.602   5.645  10.078  0.2169  0.1341 -0.5808
34508SOL     OW 8334   0.493  12.183   1.792 -0.2281 -0.7741  0.1349
34508SOL    HW1 8335   0.397  12.175   1.792 -0.2433 -0.5951 -0.0808
34508SOL    HW2 8336   0.524  12.096   1.816 -0.4444 -0.8447  0.1625
34509SOL     OW 8337   8.549   0.303   9.862  0.3386  0.3015 -0.3653
34509SOL    HW1 8338   8.509   0.224   9.824 -1.1576  0.5446  0.6582
34509SOL    HW2 8339   8.623   0.270   9.912 -0.3788 -0.4841  0.1956
34510SOL     OW 8340  11.751   2.314   3.602 -0.3949  0.2790 -0.0757
34510SOL    HW1 8341  11.823   2.254   3.622 -0.7142  0.1495  0.7250
34510SOL    HW2 8342  11.762   2.335   3.509 -0.8987 -1.8991 -0.7107
34511SOL     OW 8343   2.315   5.383   8.806  0.2858  0.0548 -0.1620
34511SOL    HW1 8344   2.361   5.464   8.786  0.1373  0.4894  1.1734
34511SOL    HW2 8345   2.256   5.370   8.731 -0.7054  1.9384  0.2216
34512SOL     OW 8346   4.167   2.566   7.865  0.5498 -0.6116 -0.1352
34512SOL    HW1 8347   4.248   2.586   7.819  0.7084 -1.7223 -0.3632
34512SOL    HW2 8348   4.185   2.483   7.910 -0.4026 -0.7790 -0.0487
34513SOL     OW 8349   0.958   7.542   9.719  0.2615 -0.0158  0.0579
34513SOL    HW1 8350   0.912   7.625   9.732  0.9798  0.6990 -1.6535
34513SOL    HW2 8351   0.902   7.494   9.658  1.5052  0.6917 -1.7158
34514SOL     OW 8352   8.383  10.877  10.277 -0.6940  0.0786 -0.2451
34514SOL    HW1 8353   8.411  10.920  10.196 -0.7256 -0.2750 -0.4503
34514SOL    HW2 8354   8.366  10.948  10.338  0.3941  0.3209 -0.1950
34515SOL     OW 8355   9.883   4.332  10.826  0.0744 -0.5524 -0.1586
34515SOL    HW1 8356   9.936   4.355  10.750  1.0825 -2.9405 -0.2747
34515SOL    HW2 8357   9.835   4.253  10.799 -2.1013  0.4205  0.6188
34516SOL     OW 8358   8.781   9.124   7.582 -0.2166  0.3710  0.2493
34516SOL    HW1 8359   8.709   9.071   7.549  1.0191 -1.1891 -0.0966
34516SOL    HW2 8360   8.849   9.116   7.515  1.2710 -0.4849  1.7752
34517SOL     OW 8361   6.941  10.367   7.323 -0.4456 -0.0833  0.3355
34517SOL    HW1 8362   7.029  10.397   7.346 -0.4279 -0.5092  0.8416
34517SOL    HW2 8363   6.954  10.312   7.245 -0.2511 -0.2284  0.4703
34518SOL     OW 8364  12.573   4.698   9.728  0.1485 -0.5207  0.4219
34518SOL    HW1 8365  12.580   4.772   9.789 -2.0438 -1.2008  1.6193
34518SOL    HW2 8366  12.641   4.714   9.663 -0.9277  3.1560 -0.0110
34519SOL     OW 8367   0.227   5.430   6.753 -0.0258 -0.5597  0.2485
34519SOL    HW1 8368   0.167   5.501   6.730  0.7890 -0.0780 -0.4778
34519SOL    HW2 8369   0.197   5.356   6.701 -0.3714 -0.5063  0.3690
34520SOL     OW 8370  12.181   1.468   6.703  0.1333  0.1951 -0.2036
34520SOL    HW1 8371  12.186   1.563   6.713  1.4326  0.1139  0.1257
34520SOL    HW2 8372  12.241   1.434   6.769 -1.4849 -0.9423  0.7655
34521SOL     OW 8373   6.518   6.078   0.708  0.0058 -0.0036 -0.5775
34521SOL    HW1 8374   6.577   6.004   0.695  0.4799  0.4066 -0.8030
34521SOL    HW2 8375   6.447   6.063   0.645  0.1777 -0.1908 -0.7281
34522SOL     OW 8376   0.301   6.457   3.281 -0.5937  0.4911  0.4280
34522SOL    HW1 8377   0.295   6.484   3.190  2.0767 -1.1600 -0.3531
34522SOL    HW2 8378   0.244   6.380   3.287 -0.1340  0.1026 -0.0934
34523SOL     OW 8379  11.880  12.535   0.272 -0.0833  0.5506 -0.1933
34523SOL    HW1 8380  11.894  12.478   0.348  1.1636 -0.5683 -1.2001
34523SOL    HW2 8381  11.785  12.538   0.260 -0.1900 -2.4876 -0.8970
34524SOL     OW 8382  11.017   4.130  11.685  0.7995 -0.3799 -0.0025
34524SOL    HW1 8383  11.056   4.129  11.598 -0.1355 -1.4755 -0.4332
34524SOL    HW2 8384  10.951   4.061  11.683 -0.8871  1.1205  0.8235
34525SOL     OW 8385   7.432   4.435   5.855 -0.0462 -0.2442 -0.3460
34525SOL    HW1 8386   7.418   4.490   5.778  0.4183 -0.3593 -0.5175
34525SOL    HW2 8387   7.526   4.437   5.869 -0.2638  0.9714  1.1289
34526SOL     OW 8388   3.278   3.839   9.780 -0.4978  0.2351  0.0923
34526SOL    HW1 8389   3.197   3.808   9.819 -1.3674 -0.5425 -2.1875
34526SOL    HW2 8390   3.250   3.895   9.708  1.0069  0.4763 -0.3383
34527SOL     OW 8391   9.815   6.831   8.414  0.5638 -1.0357  0.3043
34527SOL    HW1 8392   9.757   6.805   8.486 -0.1569 -0.7656 -0.1712
34527SOL    HW2 8393   9.763   6.817   8.335  0.3382  1.2447 -0.0285
34528SOL     OW 8394   4.752   5.672  12.232 -0.2689 -0.0253 -0.1389
34528SOL    HW1 8395   4.833   5.706  12.194  0.6923 -2.6418 -0.6541
34528SOL    HW2 8396   4.766   5.676  12.326 -0.5721  1.7686 -0.1407
34529SOL     OW 8397   7.629   9.209  10.425 -0.3648 -0.0003 -0.1997
34529SOL    HW1 8398   7.550   9.212  10.372 -1.8257 -2.2248  1.5997
34529SOL    HW2 8399   7.612   9.138  10.488  2.3339  0.6508  1.4293
34530SOL     OW 8400   0.273   3.219   1.482 -0.0214  0.0305  0.7824
34530SOL    HW1 8401   0.293   3.274   1.558  0.0871 -1.1503  1.6365
34530SOL    HW2 8402   0.191   3.177   1.504 -1.0559  1.1988 -0.6552
34531SOL     OW 8403  12.310   1.742   9.197  0.3627 -0.2759 -0.3333
34531SOL    HW1 8404  12.237   1.700   9.151 -2.1729  0.2696  2.8528
34531SOL    HW2 8405  12.274   1.767   9.282  3.4213  2.9868  0.2312
34532SOL     OW 8406   7.504   7.172   8.457 -0.3839  0.3771 -0.1158
34532SOL    HW1 8407   7.600   7.172   8.458 -0.3842  0.5562  0.7807
34532SOL    HW2 8408   7.479   7.223   8.534 -1.1985  0.2301 -0.2730
34533SOL     OW 8409   2.350   9.711   3.822 -0.4484 -0.0931 -0.5416
34533SOL    HW1 8410   2.431   9.660   3.827 -0.0275  0.5709 -0.5180
34533SOL    HW2 8411   2.376   9.800   3.845 -1.4563 -0.1476  0.9387
34534SOL     OW 8412   6.805   6.545   6.801 -0.5409  0.2879 -0.1446
34534SOL    HW1 8413   6.893   6.571   6.775 -0.7372  0.5805 -0.5242
34534SOL    HW2 8414   6.753   6.626   6.798 -1.2055 -0.1437 -1.5606
34535SOL     OW 8415   9.323   4.750  10.601 -0.1054  0.5179  0.0594
34535SOL    HW1 8416   9.395   4.722  10.546 -0.3949 -0.7483  0.3101
34535SOL    HW2 8417   9.349   4.725  10.690 -0.2168  1.3753  0.3478
34536SOL     OW 8418   0.899  10.365   5.568  0.4101 -0.8532  0.3505
34536SOL    HW1 8419   0.865  10.308   5.637 -1.1124 -1.9713 -1.2395
34536SOL    HW2 8420   0.927  10.306   5.499  1.9088  0.2398 -0.0288
34537SOL     OW 8421  10.373   9.314   0.009 -0.9584 -0.1651  0.0948
34537SOL    HW1 8422  10.278   9.312   0.016 -1.0230  0.0142 -0.6426
34537SOL    HW2 8423  10.391   9.297  -0.084 -0.3683  2.0975 -0.2791
34538SOL     OW 8424   7.242   5.760   0.422 -0.5891  0.6289  0.4680
34538SOL    HW1 8425   7.201   5.675   0.410  0.0973  0.2348  0.8452
34538SOL    HW2 8426   7.233   5.778   0.516  0.0785  0.5437  0.5524
34539SOL     OW 8427   8.240   1.378  10.539  0.2996 -0.2976  0.3316
34539SOL    HW1 8428   8.293   1.364  10.617 -1.5190 -1.7766  1.3715
34539SOL    HW2 8429   8.175   1.444  10.565  0.6567  0.3878 -0.4554
34540SOL     OW 8430  11.701   8.575  10.603  0.3069  0.4138 -0.2635
34540SOL    HW1 8431  11.735   8.514  10.669 -0.6229 -0.8622 -0.9092
34540SOL    HW2 8432  11.669   8.650  10.654 -1.7186 -1.1505  0.9373
34541SOL     OW 8433   4.989   6.461   6.084  0.1995  0.3690  0.3524
34541SOL    HW1 8434   4.951   6.545   6.109  0.4768  0.1171  1.7437
34541SOL    HW2 8435   4.956   6.400   6.149  2.4190  0.0273  1.2793
34542SOL     OW 8436   1.189  10.872   7.315  0.5245  0.2111 -0.2128
34542SOL    HW1 8437   1.193  10.869   7.411  0.1792  0.6725 -0.1793
34542SOL    HW2 8438   1.180  10.965   7.294  2.5221  0.3082 -0.7830
34543SOL     OW 8439  10.005   8.721   4.615 -0.0401 -0.5135 -0.1834
34543SOL    HW1 8440  10.092   8.699   4.582  0.3395 -1.2687  1.2313
34543SOL    HW2 8441   9.951   8.734   4.537  1.9562  2.7809 -1.2141
34544SOL     OW 8442   3.136   0.239  11.682  0.7185  0.2970 -0.2108
34544SOL    HW1 8443   3.070   0.170  11.677  1.2887 -0.2108 -0.8254
34544SOL    HW2 8444   3.111   0.303  11.616  1.7236 -0.6869 -1.5871
34545SOL     OW 8445  11.700   2.538   2.573 -0.2859 -0.3414  0.1799
34545SOL    HW1 8446  11.639   2.484   2.523 -0.0016  0.2981 -0.8918
34545SOL    HW2 8447  11.769   2.479   2.599  0.0005 -0.5245 -0.9449
34546SOL     OW 8448   1.821   0.919  10.103  0.6774 -0.0328 -0.2913
34546SOL    HW1 8449   1.804   0.864  10.027  1.5396  0.4353 -0.8437
34546SOL    HW2 8450   1.789   1.006  10.078  2.0632  0.4140 -0.6289
34547SOL     OW 8451  11.514   4.123  11.229  0.1326 -0.1027  0.3005
34547SOL    HW1 8452  11.508   4.164  11.315 -0.5665 -0.8700  0.6350
34547SOL    HW2 8453  11.551   4.036  11.247 -0.9231 -0.6359 -0.0360
34548SOL     OW 8454   5.693   6.912   0.083  0.3402  0.0556  0.1020
34548SOL    HW1 8455   5.728   6.897   0.171  0.0211 -1.2703  0.0300
34548SOL    HW2 8456   5.656   6.827   0.057 -1.9850  1.0871 -0.2507
34549SOL     OW 8457   9.491   0.156   6.460  0.3256  0.1437  0.7642
34549SOL    HW1 8458   9.474   0.238   6.506  0.8289  0.3320  0.6238
34549SOL    HW2 8459   9.452   0.167   6.373 -0.4198 -0.1226  1.0568
34550SOL     OW 8460   9.836   4.171  10.417  0.2985  1.1532 -0.4687
34550SOL    HW1 8461   9.771   4.219  10.468  0.3322  0.8514 -0.1348
34550SOL    HW2 8462   9.915   4.175  10.471  0.2269  0.4860 -0.3082
34551SOL     OW 8463   1.232   6.490   7.560 -0.7632  0.2636 -0.0110
34551SOL    HW1 8464   1.196   6.470   7.647 -0.0034  0.6198  0.3865
34551SOL    HW2 8465   1.156   6.518   7.510 -1.2712 -0.2755  0.4334
34552SOL     OW 8466   7.512   6.424   2.595 -0.2094 -0.0895  0.9308
34552SOL    HW1 8467   7.565   6.471   2.530  0.0491 -1.2906  0.2437
34552SOL    HW2 8468   7.528   6.332   2.577 -2.2743 -0.4944  0.9271
34553SOL     OW 8469   1.734   8.549   3.572  0.5411 -0.4304 -0.5587
34553SOL    HW1 8470   1.791   8.513   3.504  2.5950  2.6923 -0.6992
34553SOL    HW2 8471   1.659   8.585   3.524  1.0061 -0.0116 -0.9844
34554SOL     OW 8472   3.681   2.287   1.833  0.2826 -0.2815 -0.3188
34554SOL    HW1 8473   3.591   2.256   1.826  0.5722 -0.7585 -2.7634
34554SOL    HW2 8474   3.676   2.381   1.815  0.4806 -0.7213 -3.0484
34555SOL     OW 8475   4.860   8.167   3.010  0.2071  0.0051 -0.4272
34555SOL    HW1 8476   4.934   8.113   3.037 -0.3784  0.2616  1.9216
34555SOL    HW2 8477   4.783   8.111   3.024 -0.1618  0.0322 -2.0360
34556SOL     OW 8478   3.987   7.000   3.379  0.1492  0.1460  0.0914
34556SOL    HW1 8479   3.984   6.987   3.284  0.3938 -0.8732  0.2078
34556SOL    HW2 8480   3.899   7.029   3.403 -0.3017 -0.8624 -0.2847
34557SOL     OW 8481   6.801   1.463  10.652 -0.1240  0.1894  0.1897
34557SOL    HW1 8482   6.727   1.403  10.636 -1.7431  2.1312  0.0164
34557SOL    HW2 8483   6.793   1.485  10.745  1.4730 -1.0848  0.6716
34558SOL     OW 8484   9.005   7.081   6.547  0.4675 -0.5462 -0.1867
34558SOL    HW1 8485   8.994   7.176   6.542  1.3914 -0.2336  2.3786
34558SOL    HW2 8486   9.098   7.069   6.567  0.3526 -1.9942 -0.4209
34559SOL     OW 8487   4.859   7.383   3.447 -0.8134  0.0341 -0.3951
34559SOL    HW1 8488   4.880   7.397   3.354 -1.1688 -0.7480 -0.6034
34559SOL    HW2 8489   4.812   7.463   3.473  0.0041  0.6180 -0.6526
34560SOL     OW 8490  10.810   4.270   9.359  0.1439 -0.1279  1.3104
34560SOL    HW1 8491  10.714   4.263   9.362  0.1248  0.4233  2.3727
34560SOL    HW2 8492  10.840   4.180   9.366 -0.2900 -0.5351 -1.0102
34561SOL     OW 8493   2.278   6.051   4.135  0.3506 -0.1935  0.8920
34561SOL    HW1 8494   2.221   6.096   4.073  1.9544  0.5659 -0.0989
34561SOL    HW2 8495   2.219   6.013   4.199 -1.3777 -0.9587 -1.0580
34562SOL     OW 8496   5.764   5.384   9.487 -0.5105 -0.4518 -0.0931
34562SOL    HW1 8497   5.714   5.399   9.407  0.7717  1.1361 -0.6738
34562SOL    HW2 8498   5.747   5.462   9.540 -0.7732 -1.1544  0.8796
34563SOL     OW 8499  12.268  11.833   9.607  0.4411  0.2391 -0.1153
34563SOL    HW1 8500  12.305  11.917   9.579  1.1966  0.2003  0.7217
34563SOL    HW2 8501  12.233  11.851   9.695  0.8968 -0.3977  0.2017
34564SOL     OW 8502  11.106  12.000  11.527 -0.2519  0.4205 -0.4502
34564SOL    HW1 8503  11.150  11.999  11.442 -1.6138 -2.1097 -1.2083
34564SOL    HW2 8504  11.148  11.930  11.577  0.1879  1.5498  0.8238
34565SOL     OW 8505   5.613  11.953   2.769  0.1094 -0.5956  0.5855
34565SOL    HW1 8506   5.669  11.995   2.703 -0.0541 -1.4497 -0.1195
34565SOL    HW2 8507   5.526  11.954   2.731 -0.2972  0.3122  1.4850
34566SOL     OW 8508  10.760   5.651   5.548  0.3163  0.0637 -0.1867
34566SOL    HW1 8509  10.677   5.620   5.584  0.9540 -0.6935  0.6500
34566SOL    HW2 8510  10.775   5.595   5.472  1.8372 -2.3291  1.7444
34567SOL     OW 8511   5.749   7.300  10.909  0.1498 -0.0028  0.1328
34567SOL    HW1 8512   5.739   7.212  10.872  0.5382 -0.3661  0.8631
34567SOL    HW2 8513   5.662   7.339  10.903  0.1486 -0.1416 -0.9233
34568SOL     OW 8514  10.767  10.215   3.345 -0.0231  0.7697 -0.1017
34568SOL    HW1 8515  10.805  10.302   3.336  0.8769  0.3671 -0.3827
34568SOL    HW2 8516  10.760  10.201   3.439 -1.0899  1.5175 -0.0550
34569SOL     OW 8517  11.884   1.971   9.265 -0.0763  0.1933 -0.5550
34569SOL    HW1 8518  11.888   1.962   9.170 -1.7331  0.7875 -0.7254
34569SOL    HW2 8519  11.866   2.064   9.279 -0.7818 -0.0520  0.2758
34570SOL     OW 8520   7.743   6.556   1.569 -0.3405  0.3220  0.6541
34570SOL    HW1 8521   7.661   6.507   1.562 -0.6658  0.8751  0.4888
34570SOL    HW2 8522   7.791   6.513   1.640  0.2042 -1.3850 -0.6955
34571SOL     OW 8523  12.047   1.092   5.145  0.4255  0.5289 -0.0922
34571SOL    HW1 8524  12.007   1.015   5.185  1.4677  1.0226  2.0310
34571SOL    HW2 8525  11.982   1.123   5.083 -0.0976 -1.9302 -0.8845
34572SOL     OW 8526   5.590   5.258   5.862  0.2363 -0.0423  0.5901
34572SOL    HW1 8527   5.512   5.264   5.918  0.2036 -0.1953  0.5614
34572SOL    HW2 8528   5.567   5.192   5.797  0.2373  0.2077  0.3350
34573SOL     OW 8529   3.609   2.296   0.004  0.0014 -0.1531  0.0941
34573SOL    HW1 8530   3.672   2.247  -0.049  0.8816  1.0170  0.0095
34573SOL    HW2 8531   3.548   2.333  -0.060  0.9345  1.0775 -0.1172
34574SOL     OW 8532   1.604   1.789   1.475 -0.1658  0.6173 -0.2550
34574SOL    HW1 8533   1.540   1.736   1.523  0.2697  1.2512  1.0786
34574SOL    HW2 8534   1.652   1.726   1.421  0.6794 -0.4557  1.6683
34575SOL     OW 8535   1.827   8.906   9.301  0.3627 -0.0979 -0.1684
34575SOL    HW1 8536   1.825   8.841   9.370  0.6393  1.7848  1.7114
34575SOL    HW2 8537   1.796   8.860   9.223  3.0841 -3.1789  0.3683
34576SOL     OW 8538   2.004   8.831  12.399 -0.1435 -0.2292  0.1711
34576SOL    HW1 8539   2.053   8.904  12.362 -3.0363  2.2909  0.8311
34576SOL    HW2 8540   2.029   8.756  12.347  2.2551  1.4109 -1.2398
34577SOL     OW 8541   1.905   1.321   2.696 -0.0205  0.2416 -0.1106
34577SOL    HW1 8542   1.813   1.298   2.710  0.1003 -1.6452 -1.9479
34577SOL    HW2 8543   1.938   1.253   2.638  2.9529  0.0536  1.5940
34578SOL     OW 8544   9.162   6.815   1.689 -0.4204 -0.2974 -0.2903
34578SOL    HW1 8545   9.195   6.886   1.633 -0.9786  0.6504  0.5558
34578SOL    HW2 8546   9.212   6.738   1.662  0.7771  0.5913 -0.6720
34579SOL     OW 8547   8.796   3.301  11.169 -0.0634 -0.2578  0.3593
34579SOL    HW1 8548   8.886   3.270  11.158 -0.4350 -1.2826  0.0431
34579SOL    HW2 8549   8.746   3.253  11.103 -0.6436  1.2426 -0.3353
34580SOL     OW 8550  11.115  12.480   0.749 -0.0980 -0.2577 -0.6856
34580SOL    HW1 8551  11.071  12.473   0.834 -1.5777  0.6916 -1.3370
34580SOL    HW2 8552  11.050  12.449   0.686  0.2600  0.8781 -1.6458
34581SOL     OW 8553   2.698   2.536   9.522 -0.4721 -0.1237 -0.2899
34581SOL    HW1 8554   2.679   2.617   9.475  1.4710 -0.0001 -0.9520
34581SOL    HW2 8555   2.679   2.556   9.614  0.0782  1.1280 -0.4299
34582SOL     OW 8556   2.923   2.598   6.887  0.5329  0.0756  0.1945
34582SOL    HW1 8557   2.882   2.523   6.845  0.7840  0.4189 -0.7033
34582SOL    HW2 8558   2.929   2.575   6.979 -0.5236 -0.4932  0.1322
34583SOL     OW 8559   8.786   1.284   2.439 -0.7439 -0.2649  0.1209
34583SOL    HW1 8560   8.873   1.324   2.432 -1.0485  0.3123 -0.5970
34583SOL    HW2 8561   8.783   1.248   2.527 -0.8047  2.2178  1.2313
34584SOL     OW 8562   2.293   9.454  10.645 -0.5218  0.0069  0.2022
34584SOL    HW1 8563   2.257   9.484  10.561  0.2612 -0.0656 -0.1596
34584SOL    HW2 8564   2.365   9.514  10.663 -1.0787  0.4304  1.1538
34585SOL     OW 8565   7.115   1.496   0.128  0.3076  0.0093  0.0975
34585SOL    HW1 8566   7.113   1.568   0.191 -0.3378 -0.6394  0.8179
34585SOL    HW2 8567   7.041   1.512   0.070  1.1557  0.8525 -0.8101
34586SOL     OW 8568   1.459  10.731   3.693  0.1393 -0.5356  0.3393
34586SOL    HW1 8569   1.400  10.805   3.684  0.4591 -0.3578 -0.3428
34586SOL    HW2 8570   1.420  10.678   3.763 -0.8759 -0.4666 -0.1505
34587SOL     OW 8571   9.919   9.026   6.155 -0.0235  0.1126 -0.4714
34587SOL    HW1 8572   9.971   9.035   6.075 -1.2788 -1.0221 -1.4624
34587SOL    HW2 8573   9.850   9.091   6.146  0.9619  1.3838  0.6872
34588SOL     OW 8574   7.403   6.310   7.162 -0.1311  0.0886  0.0414
34588SOL    HW1 8575   7.432   6.297   7.253  0.5108 -2.3082 -0.4533
34588SOL    HW2 8576   7.310   6.330   7.170  0.0210  0.4253  1.2456
34589SOL     OW 8577   2.424   5.590   7.272  0.2195 -0.2600 -0.0505
34589SOL    HW1 8578   2.356   5.570   7.336 -0.0085  1.1815  0.1872
34589SOL    HW2 8579   2.500   5.615   7.324  0.1123  0.6726 -0.3293
34590SOL     OW 8580   0.996   5.060   0.805  0.1375  0.4620  0.1680
34590SOL    HW1 8581   1.076   5.078   0.756  2.0368 -1.5529  2.2290
34590SOL    HW2 8582   0.949   4.995   0.752  0.8366  0.2690 -0.2293
34591SOL     OW 8583   1.038  11.979  10.684  0.1816 -0.2490  0.0984
34591SOL    HW1 8584   1.005  11.924  10.755  1.3233 -0.2888  0.6223
34591SOL    HW2 8585   1.131  11.959  10.680  0.7656  2.0354  0.7040
34592SOL     OW 8586   3.502   4.235   6.991  0.5118  0.7164 -0.3432
34592SOL    HW1 8587   3.578   4.260   7.042  0.7015 -0.4124 -0.0345
34592SOL    HW2 8588   3.486   4.309   6.932  0.7326  1.7335  0.8335
34593SOL     OW 8589   2.768  12.069   0.674 -0.6643 -0.0589  0.2870
34593SOL    HW1 8590   2.853  12.065   0.719 -0.2020 -0.2469 -0.5770
34593SOL    HW2 8591   2.750  11.979   0.649 -0.3909  0.1864 -0.8331
34594SOL     OW 8592   6.310  10.906   9.983 -0.3925 -0.1510  0.0490
34594SOL    HW1 8593   6.383  10.856   9.949 -0.0487  1.3631 -1.6004
34594SOL    HW2 8594   6.283  10.962   9.910 -1.2527  1.4674  1.5250
34595SOL     OW 8595   3.108   8.391   1.961 -0.0748 -0.4416 -0.0190
34595SOL    HW1 8596   3.066   8.334   1.897 -0.4296 -0.9935  0.6896
34595SOL    HW2 8597   3.113   8.477   1.918 -1.2368 -0.5514 -0.4007
34596SOL     OW 8598   0.254   9.957  10.225 -0.3337  0.1205 -0.3211
34596SOL    HW1 8599   0.213   9.895  10.285 -1.5958  0.2769 -0.9917
34596SOL    HW2 8600   0.314   9.904  10.172 -1.3552 -0.5257 -0.8457
34597SOL     OW 8601  10.618   2.797   3.025  0.5108 -0.0281 -0.7869
34597SOL    HW1 8602  10.604   2.872   2.967 -0.2612 -0.9476 -1.8171
34597SOL    HW2 8603  10.604   2.721   2.969 -1.0772 -0.9537  0.7889
34598SOL     OW 8604   5.917   2.950   3.334 -0.0664  0.5063 -0.0271
34598SOL    HW1 8605   5.827   2.980   3.321 -0.3010 -0.2980 -0.3209
34598SOL    HW2 8606   5.967   3.030   3.352 -0.7933  0.9848 -0.1085
34599SOL     OW 8607   2.268   2.061   2.929  0.0710 -0.1642  0.1531
34599SOL    HW1 8608   2.268   2.081   2.836 -2.7123 -0.8566 -0.0747
34599SOL    HW2 8609   2.221   2.133   2.970  0.1763 -0.4813  0.8531
34600SOL     OW 8610   7.702   4.449  12.184 -0.3902  0.4777  0.2490
34600SOL    HW1 8611   7.695   4.519  12.120 -0.4021  0.7001  0.4934
34600SOL    HW2 8612   7.734   4.374  12.134  2.0152  1.2943  0.4030
34601SOL     OW 8613   5.334   6.230   7.231 -0.1754  0.1133 -0.4320
34601SOL    HW1 8614   5.418   6.274   7.240 -1.0298  1.7153  0.1436
34601SOL    HW2 8615   5.296   6.232   7.319 -0.5510 -1.1681 -0.5474
34602SOL     OW 8616   4.609  10.436  10.297  0.4437 -0.0682 -0.0446
34602SOL    HW1 8617   4.513  10.436  10.306  0.1037 -1.8269 -2.4892
34602SOL    HW2 8618   4.639  10.503  10.357 -2.2932  0.1659  1.2123
34603SOL     OW 8619   0.371   2.027   7.145  0.0915  0.1594 -0.4070
34603SOL    HW1 8620   0.323   2.107   7.125 -1.0626 -0.2579  0.5995
34603SOL    HW2 8621   0.381   1.983   7.061 -0.6554  0.6075 -0.7335
34604SOL     OW 8622   6.704  11.141   9.766 -0.2085 -0.3745  0.3828
34604SOL    HW1 8623   6.754  11.108   9.692 -0.3319  1.5337 -0.6107
34604SOL    HW2 8624   6.636  11.195   9.727 -1.2475 -0.5712  1.8381
34605SOL     OW 8625   5.321   5.721   5.931  0.0091  0.1217 -0.0461
34605SOL    HW1 8626   5.295   5.655   5.995 -1.6775  1.4105  0.7021
34605SOL    HW2 8627   5.296   5.685   5.847  1.1589 -1.0931  0.0917
34606SOL     OW 8628   4.912  10.205   5.398  0.3865 -0.4594  0.0670
34606SOL    HW1 8629   4.924  10.299   5.414  0.1292 -0.6959  1.8311
34606SOL    HW2 8630   4.832  10.182   5.445  0.5976 -1.6263 -0.1098
34607SOL     OW 8631   9.860   4.097  10.690 -0.1852 -0.0727 -0.0828
34607SOL    HW1 8632   9.841   4.068  10.779 -0.7118  0.0151 -0.1612
34607SOL    HW2 8633   9.904   4.022  10.650 -0.7274 -0.4358 -0.0097
34608SOL     OW 8634   4.052   3.536   7.904  0.2342 -0.1733 -0.6698
34608SOL    HW1 8635   4.068   3.442   7.896  0.4157 -0.0458 -2.0726
34608SOL    HW2 8636   4.006   3.546   7.988  0.9462 -1.4022 -0.1175
34609SOL     OW 8637   5.739  10.877   5.060  0.4199  0.0704  0.3018
34609SOL    HW1 8638   5.729  10.782   5.055  0.8949  0.0493 -0.4893
34609SOL    HW2 8639   5.768  10.893   5.150  1.5276 -0.6605  0.0967
34610SOL     OW 8640   9.942   8.516  10.377  0.4227 -0.0628 -0.2201
34610SOL    HW1 8641  10.034   8.491  10.387  0.6605  1.2952  1.5237
34610SOL    HW2 8642   9.898   8.473  10.451  0.1310  1.2895  0.4177
34611SOL     OW 8643  11.606   6.500   7.943  0.5299  0.7791  0.0816
34611SOL    HW1 8644  11.693   6.480   7.978  0.5106  2.1594  1.0008
34611SOL    HW2 8645  11.558   6.417   7.949  1.3413  0.3463  0.9197
34612SOL     OW 8646   7.034   7.557   1.151  0.1286  0.5418 -0.0939
34612SOL    HW1 8647   7.027   7.622   1.082  1.8230  0.2783 -0.5504
34612SOL    HW2 8648   7.068   7.479   1.107 -0.3562 -0.1587  0.7380
34613SOL     OW 8649   6.030  11.855   8.578 -0.4730  0.4797 -0.2880
34613SOL    HW1 8650   6.054  11.945   8.601  1.8017 -0.6000  2.1610
34613SOL    HW2 8651   6.113  11.807   8.581 -1.4353 -1.5714 -2.5576
34614SOL     OW 8652  12.426   2.929   5.724  0.3410 -0.6380  0.5481
34614SOL    HW1 8653  12.405   2.880   5.645  1.0113  0.3352 -0.2628
34614SOL    HW2 8654  12.521   2.937   5.723  0.2292  1.0952  0.3648
34615SOL     OW 8655   4.501   4.112   5.194  0.5708  0.2104 -0.6756
34615SOL    HW1 8656   4.553   4.164   5.134  1.3315  0.7074  0.3875
34615SOL    HW2 8657   4.439   4.174   5.232 -0.4183 -0.2537 -1.4760
34616SOL     OW 8658   1.386   3.911   9.691 -1.0537  0.1136 -0.1096
34616SOL    HW1 8659   1.393   3.836   9.633 -0.3242  0.1727 -0.0980
34616SOL    HW2 8660   1.469   3.957   9.681 -1.1276  0.4026  0.5985
34617SOL     OW 8661  11.708   8.469   6.654 -0.1871 -0.1576  0.3350
34617SOL    HW1 8662  11.648   8.426   6.714 -0.7137 -1.2106 -0.8977
34617SOL    HW2 8663  11.777   8.504   6.710  0.5286 -2.9970  1.4023
34618SOL     OW 8664   8.163   9.749   7.853 -0.2575 -0.4563  0.5341
34618SOL    HW1 8665   8.162   9.663   7.894 -2.9500 -0.8606 -0.1848
34618SOL    HW2 8666   8.106   9.803   7.908 -1.0035  0.0004 -0.6474
34619SOL     OW 8667   9.478   9.546   8.421 -0.3422  0.1674  0.4014
34619SOL    HW1 8668   9.525   9.619   8.462  0.7607 -1.2700  1.7843
34619SOL    HW2 8669   9.489   9.561   8.327 -0.0499  1.7038  0.6412
34620SOL     OW 8670  10.992   9.978  12.595  0.1763 -0.3131  0.1277
34620SOL    HW1 8671  11.081   9.951  12.574  0.2540  0.8550 -1.1812
34620SOL    HW2 8672  10.937   9.910  12.556  0.4590 -1.6147  1.8450
34621SOL     OW 8673  12.519   7.579   0.844 -0.4005  0.3740  0.2570
34621SOL    HW1 8674  12.456   7.627   0.790 -1.6351 -1.9386 -0.4667
34621SOL    HW2 8675  12.603   7.594   0.800 -0.9418  0.8820 -0.6338
34622SOL     OW 8676   8.439  11.703   3.432 -0.5126  0.0301  0.1768
34622SOL    HW1 8677   8.349  11.733   3.439 -0.8808 -0.4231 -2.0049
34622SOL    HW2 8678   8.491  11.784   3.440 -1.1500  0.4085  0.5857
34623SOL     OW 8679  12.136   4.727   3.009  0.5145  0.0205 -0.2485
34623SOL    HW1 8680  12.076   4.800   2.994 -0.3770 -0.4359  0.9187
34623SOL    HW2 8681  12.087   4.650   2.980  0.7343 -0.2950  0.2108
34624SOL     OW 8682   0.616   2.354  10.910 -0.2648 -0.0200 -0.0787
34624SOL    HW1 8683   0.558   2.300  10.856  0.7788 -2.9115  1.4729
34624SOL    HW2 8684   0.692   2.371  10.854  0.1065 -1.5991 -0.0804
34625SOL     OW 8685  10.912  10.309   6.658 -0.1309  0.3403  1.1532
34625SOL    HW1 8686  10.938  10.237   6.600 -2.0173 -0.4229  1.1735
34625SOL    HW2 8687  10.889  10.380   6.598 -0.4530  0.1337  1.0280
34626SOL     OW 8688  10.096   2.826   5.541  0.4408 -0.5342 -0.1795
34626SOL    HW1 8689  10.188   2.827   5.569  0.0715 -2.6847  1.3718
34626SOL    HW2 8690  10.070   2.734   5.549 -1.3315 -0.3373 -2.4675
34627SOL     OW 8691   5.064   9.861   5.101  0.3576 -0.5674 -0.1033
34627SOL    HW1 8692   5.155   9.840   5.122  0.5578  0.3965  0.0542
34627SOL    HW2 8693   5.061   9.957   5.102 -0.5771 -0.5840 -0.4666
34628SOL     OW 8694  11.402   9.229  11.206 -0.0478  0.4229 -0.0529
34628SOL    HW1 8695  11.420   9.152  11.260  0.4583  0.3972 -0.2482
34628SOL    HW2 8696  11.322   9.208  11.159  1.3174 -0.9798 -1.8779
34629SOL     OW 8697   2.597   2.606   3.270 -0.1578 -0.6001  0.0499
34629SOL    HW1 8698   2.517   2.555   3.276 -0.0311 -0.7221  0.9874
34629SOL    HW2 8699   2.652   2.559   3.207 -0.6421 -0.7620 -0.2519
34630SOL     OW 8700   2.633   1.856  10.423 -0.4723 -0.3505 -0.3791
34630SOL    HW1 8701   2.664   1.915  10.355  1.4655  0.2003  0.9040
34630SOL    HW2 8702   2.711   1.831  10.472 -1.8580  0.1119  2.3097
34631SOL     OW 8703   4.385  10.394   3.767 -0.1783  0.1678  0.1460
34631SOL    HW1 8704   4.471  10.435   3.776 -0.1005  0.0492 -0.0483
34631SOL    HW2 8705   4.400  10.302   3.790 -0.2052  0.0977 -0.1135
34632SOL     OW 8706   2.294   4.884   4.391  0.0422  0.0470  0.2111
34632SOL    HW1 8707   2.369   4.909   4.445 -0.2499 -0.6500  0.9605
34632SOL    HW2 8708   2.265   4.801   4.428 -1.1380  0.3363 -0.0277
34633SOL     OW 8709  12.637   4.046   9.049  0.6494 -0.6675 -0.2784
34633SOL    HW1 8710  12.577   3.994   8.995 -0.0908 -0.9890  0.8248
34633SOL    HW2 8711  12.580   4.107   9.096  1.4122  0.4399 -0.7682
34634SOL     OW 8712  11.829  10.488   9.463  0.2243 -0.0816  0.3415
34634SOL    HW1 8713  11.764  10.559   9.462  2.3513  1.9880 -1.1184
34634SOL    HW2 8714  11.815  10.444   9.546 -4.0624 -0.8155 -0.5283
34635SOL     OW 8715   5.770   5.959  12.188  0.2802 -0.1225  0.4755
34635SOL    HW1 8716   5.712   5.931  12.117 -0.9888  1.9948  0.6108
34635SOL    HW2 8717   5.729   5.923  12.267 -1.3128  1.9148  0.6431
34636SOL     OW 8718  10.197  10.739  11.090 -0.0904 -0.6814  0.4927
34636SOL    HW1 8719  10.290  10.744  11.114 -0.4872  1.8174  1.8166
34636SOL    HW2 8720  10.183  10.814  11.032 -1.8754  0.9188  2.8099
34637SOL     OW 8721   3.563   3.828   5.831 -0.0056 -0.0832 -0.2547
34637SOL    HW1 8722   3.481   3.790   5.862 -0.0595 -1.0179 -1.4780
34637SOL    HW2 8723   3.584   3.895   5.896 -1.2874 -0.4076  0.5347
34638SOL     OW 8724   5.633   2.600  12.084 -0.0784  0.1004 -0.1367
34638SOL    HW1 8725   5.705   2.631  12.030 -0.6845  0.8839 -0.5178
34638SOL    HW2 8726   5.654   2.508  12.102  0.3849 -0.0357 -1.2852
34639SOL     OW 8727   4.140  12.192   4.365 -0.9822  0.0463  0.1149
34639SOL    HW1 8728   4.151  12.233   4.450 -2.2157 -0.0704  0.3472
34639SOL    HW2 8729   4.073  12.124   4.379  0.3547 -1.4571 -0.4521
34640SOL     OW 8730   7.270   7.969   9.370 -0.0136 -0.9708  0.2118
34640SOL    HW1 8731   7.202   7.943   9.308  0.7656  0.4098 -1.2783
34640SOL    HW2 8732   7.229   8.038   9.422  0.0141 -0.6151 -0.2306
34641SOL     OW 8733   4.784   9.936  11.520  0.2292 -0.3645 -1.7059
34641SOL    HW1 8734   4.771   9.942  11.615  2.9413 -0.7596 -1.2372
34641SOL    HW2 8735   4.854   9.999  11.502  1.0988 -1.6867 -3.1162
34642SOL     OW 8736   3.673  10.060   8.710  0.1564 -0.5462  0.2685
34642SOL    HW1 8737   3.667  10.072   8.615 -1.2583 -2.6005  0.0119
34642SOL    HW2 8738   3.713   9.973   8.720 -0.7480 -0.8383  1.5209
34643SOL     OW 8739   3.544  11.088  12.416 -0.3488 -0.8047  0.1340
34643SOL    HW1 8740   3.495  11.110  12.337  2.2624 -0.4730 -1.5178
34643SOL    HW2 8741   3.557  11.172  12.460 -0.4545 -0.7571  0.0754
34644SOL     OW 8742   4.396   5.201   3.426  0.4285  0.2149  0.2023
34644SOL    HW1 8743   4.362   5.152   3.352  0.5421  2.6107 -1.5779
34644SOL    HW2 8744   4.488   5.175   3.432 -0.1213 -1.6522  1.0026
34645SOL     OW 8745   7.211   2.147  10.232 -0.5249 -0.8455  0.9624
34645SOL    HW1 8746   7.221   2.147  10.137 -1.0298  0.4098  0.8870
34645SOL    HW2 8747   7.122   2.117  10.247  0.2532 -3.2659  1.1899
34646SOL     OW 8748   1.181   9.299   1.200 -0.3735  0.4296 -0.6915
34646SOL    HW1 8749   1.102   9.268   1.244 -0.7361  2.7465  0.4540
34646SOL    HW2 8750   1.148   9.365   1.138  0.7475  2.8959  1.2111
34647SOL     OW 8751   5.909  10.863   0.585 -0.7787 -0.2386 -0.0429
34647SOL    HW1 8752   5.882  10.829   0.499 -0.9269 -0.3264  0.0381
34647SOL    HW2 8753   5.947  10.949   0.566  1.8586 -1.4195 -0.5717
34648SOL     OW 8754   9.128  12.204   8.264 -0.1474 -0.0706 -0.6489
34648SOL    HW1 8755   9.081  12.121   8.256 -0.5468  0.0920 -0.0587
34648SOL    HW2 8756   9.190  12.203   8.192 -2.2086  0.4768 -2.5343
34649SOL     OW 8757   5.445   6.251   3.621  0.2022  0.7431 -0.1155
34649SOL    HW1 8758   5.451   6.158   3.599 -0.2875  0.6865 -0.0223
34649SOL    HW2 8759   5.401   6.253   3.706 -0.5742  1.0991 -0.5176
34650SOL     OW 8760   8.928   0.842   8.101  0.2560 -0.2391 -0.5821
34650SOL    HW1 8761   8.900   0.835   8.010 -1.7259  0.6049 -0.0897
34650SOL    HW2 8762   8.973   0.926   8.106  0.4598 -0.3334 -0.7995
34651SOL     OW 8763   1.847   6.364  10.722  0.0544 -0.5256 -0.6002
34651SOL    HW1 8764   1.765   6.394  10.761  0.2495  1.4755 -1.5943
34651SOL    HW2 8765   1.853   6.411  10.639  2.7634  0.3505 -0.0323
34652SOL     OW 8766   2.904   3.165  12.420 -0.2800  0.3744  0.0180
34652SOL    HW1 8767   2.944   3.237  12.469 -0.9143 -0.3201  1.6393
34652SOL    HW2 8768   2.860   3.208  12.346  2.3223  1.2758 -1.1407
34653SOL     OW 8769  11.742   9.716   6.226  0.0303  0.4488 -0.1394
34653SOL    HW1 8770  11.686   9.695   6.151  0.9657 -0.9350 -0.5032
34653SOL    HW2 8771  11.683   9.712   6.301 -0.6825  0.6260 -0.6760
34654SOL     OW 8772   7.782   4.498   0.019 -0.3199 -0.5724  0.3211
34654SOL    HW1 8773   7.703   4.550   0.035  0.6235  1.2806 -0.7740
34654SOL    HW2 8774   7.757   4.439  -0.052 -1.3705 -1.6068  1.4994
34655SOL     OW 8775  11.882   8.961   9.404  0.4475 -0.5160 -0.6603
34655SOL    HW1 8776  11.852   9.007   9.482  1.0983 -2.7388  0.9999
34655SOL    HW2 8777  11.977   8.972   9.404  0.4360 -0.3371 -1.2943
34656SOL     OW 8778  10.437   9.040   9.215 -0.5801  0.3237 -0.3247
34656SOL    HW1 8779  10.529   9.038   9.243 -1.1983  0.7678  1.9399
34656SOL    HW2 8780  10.430   9.119   9.162 -0.1241  1.6981  1.5311
34657SOL     OW 8781   3.808  11.616   4.591 -0.2717 -0.0040 -0.4281
34657SOL    HW1 8782   3.857  11.568   4.524 -0.3851  1.7058 -1.7824
34657SOL    HW2 8783   3.863  11.610   4.669  0.8172 -0.3911 -1.1958
34658SOL     OW 8784   9.320  11.228   1.978  0.0368 -0.3901  0.6648
34658SOL    HW1 8785   9.375  11.267   2.046  0.8909 -1.3032  0.5197
34658SOL    HW2 8786   9.380  11.212   1.905 -0.5820 -0.6918  0.2110
34659SOL     OW 8787  10.242   2.475   5.441  0.3160  0.1418 -0.2774
34659SOL    HW1 8788  10.147   2.477   5.452  0.5381 -0.7602  3.1420
34659SOL    HW2 8789  10.261   2.386   5.411  0.0454  0.7400 -2.3196
34660SOL     OW 8790   1.092   0.728   0.173 -0.6276 -0.2049  0.3938
34660SOL    HW1 8791   1.059   0.638   0.169 -0.2085 -0.3745  0.7761
34660SOL    HW2 8792   1.086   0.759   0.083 -2.2380 -0.0900  0.5109
34661SOL     OW 8793   4.246  12.341  11.514 -0.4849 -0.1485 -0.1396
34661SOL    HW1 8794   4.171  12.318  11.460 -0.4213 -1.0556  0.1411
34661SOL    HW2 8795   4.208  12.372  11.597 -0.5661  0.6206 -0.4538
34662SOL     OW 8796   0.241   7.180   7.536 -0.1837 -0.0848  0.5069
34662SOL    HW1 8797   0.288   7.261   7.554  0.7659 -0.7407  1.0669
34662SOL    HW2 8798   0.249   7.129   7.617  0.2626 -1.2226 -0.2283
34663SOL     OW 8799   1.099   0.590   7.783  0.1027 -0.1385  0.3474
34663SOL    HW1 8800   1.168   0.523   7.778  1.6205  1.4257 -2.8825
34663SOL    HW2 8801   1.136   0.658   7.839  1.5049  0.8573 -1.6557
34664SOL     OW 8802   6.209  11.238  11.750  0.0983 -0.5138  0.2708
34664SOL    HW1 8803   6.246  11.152  11.771  1.5120  0.0046  0.0212
34664SOL    HW2 8804   6.270  11.300  11.790 -2.1311  0.4188  2.5055
34665SOL     OW 8805   3.076   0.241   9.687  0.2650  0.4377 -0.1659
34665SOL    HW1 8806   3.006   0.186   9.653 -0.9485  1.2858  0.8599
34665SOL    HW2 8807   3.039   0.329   9.690  1.2353  0.8516  0.7386
34666SOL     OW 8808  12.030   6.853  12.476 -0.7750 -0.1034 -0.6280
34666SOL    HW1 8809  12.113   6.881  12.436 -0.6108  0.4345  0.0819
34666SOL    HW2 8810  11.996   6.787  12.416 -0.3213  0.3898 -1.4411
34667SOL     OW 8811   0.653   6.215   5.898  0.3123 -0.9381 -0.0025
34667SOL    HW1 8812   0.733   6.267   5.904 -0.8845  1.0453 -0.2086
34667SOL    HW2 8813   0.675   6.132   5.939  1.8351  0.3736  2.0471
34668SOL     OW 8814   9.644   2.785   8.124 -0.0558  0.5558 -0.2812
34668SOL    HW1 8815   9.652   2.739   8.207  0.5132  1.4012  0.1435
34668SOL    HW2 8816   9.642   2.877   8.147  1.2582  0.8603 -1.2704
34669SOL     OW 8817  12.637   7.286   4.368  0.2353  0.1411  0.5185
34669SOL    HW1 8818  12.667   7.236   4.292 -0.0192 -1.1146  1.2233
34669SOL    HW2 8819  12.716   7.296   4.422 -0.0348 -0.8392  1.1037
34670SOL     OW 8820   3.970   8.401  11.459  0.1023  0.3907  0.2077
34670SOL    HW1 8821   3.879   8.374  11.467 -0.1869  1.3482  0.3141
34670SOL    HW2 8822   4.018   8.320  11.441 -0.9609  0.0678 -1.3610
34671SOL     OW 8823   7.012   7.833   4.289  0.7856  0.7810  0.0958
34671SOL    HW1 8824   6.930   7.861   4.247 -0.3047  1.1875  2.3437
34671SOL    HW2 8825   6.985   7.766   4.352  1.7841  2.5555  2.5520
34672SOL     OW 8826   7.192   7.329   5.354 -0.3280 -0.4428  0.3604
34672SOL    HW1 8827   7.203   7.235   5.368 -0.9732 -0.4982  0.5639
34672SOL    HW2 8828   7.128   7.336   5.283  0.9216 -0.1465 -0.7798
34673SOL     OW 8829  10.465   0.188   8.367  0.4053 -0.4900  0.4846
34673SOL    HW1 8830  10.436   0.202   8.457  0.5467  0.6297  0.3666
34673SOL    HW2 8831  10.386   0.160   8.320 -0.0561  0.5618  0.6059
34674SOL     OW 8832   1.613   9.178   6.620 -0.2214 -0.5065  0.0550
34674SOL    HW1 8833   1.648   9.094   6.592  4.2953  1.8771 -2.6663
34674SOL    HW2 8834   1.644   9.188   6.710  1.6695 -0.7208 -0.5266
34675SOL     OW 8835   0.726   9.894   1.742  0.0805 -0.4923 -0.0585
34675SOL    HW1 8836   0.775   9.971   1.713  1.4561 -1.5419 -0.6808
34675SOL    HW2 8837   0.642   9.900   1.696 -0.1916  1.0652  0.5977
34676SOL     OW 8838   7.769   3.577   5.757 -0.5673 -0.2591  0.6141
34676SOL    HW1 8839   7.674   3.587   5.746 -0.6028 -1.6316 -0.5653
34676SOL    HW2 8840   7.779   3.541   5.845 -1.1581 -0.2724  0.6830
34677SOL     OW 8841   8.658  10.333   7.577  0.3747  0.7170 -0.2820
34677SOL    HW1 8842   8.744  10.330   7.619 -0.5086 -2.4350  1.7336
34677SOL    HW2 8843   8.597  10.308   7.647 -1.7799 -0.3375 -2.3783
34678SOL     OW 8844   8.985   2.143  10.347  0.5210  0.5618 -0.7691
34678SOL    HW1 8845   9.013   2.057  10.378  0.3102  0.7727  0.0427
34678SOL    HW2 8846   9.067   2.191  10.332  0.6319  0.4692 -0.4710
34679SOL     OW 8847   4.561   1.195  10.577 -0.0286 -0.2106 -0.2279
34679SOL    HW1 8848   4.636   1.227  10.526  0.3265  0.0938  0.4745
34679SOL    HW2 8849   4.564   1.246  10.658 -0.6213 -0.6500  0.0729
34680SOL     OW 8850  10.489   0.891   8.002 -0.3892 -0.4352 -0.8488
34680SOL    HW1 8851  10.494   0.795   7.997  1.5057 -0.3343 -1.8198
34680SOL    HW2 8852  10.396   0.909   8.014 -0.5963 -2.4663  1.5346
34681SOL     OW 8853   7.551  11.579   4.479  0.1998 -0.5979 -0.2207
34681SOL    HW1 8854   7.531  11.488   4.456 -0.2230 -0.4106 -0.6064
34681SOL    HW2 8855   7.484  11.630   4.434  0.3433 -0.1054  0.1263
34682SOL     OW 8856   0.464  10.748   9.417 -0.4172 -0.6830  0.4294
34682SOL    HW1 8857   0.376  10.734   9.383 -0.9426  1.1362  0.9181
34682SOL    HW2 8858   0.461  10.714   9.507 -0.4255 -1.1859  0.2416
34683SOL     OW 8859   8.570   5.296   1.993  0.3913 -0.0313 -0.4255
34683SOL    HW1 8860   8.601   5.334   2.075 -0.7963  2.0491 -0.8680
34683SOL    HW2 8861   8.643   5.307   1.932  1.3502 -1.7724  0.3727
34684SOL     OW 8862  10.736   5.212   5.655 -0.1118  0.2338  0.0924
34684SOL    HW1 8863  10.651   5.211   5.613 -0.4216 -1.5251  0.6579
34684SOL    HW2 8864  10.799   5.220   5.584 -0.7085  0.1845 -0.4441
34685SOL     OW 8865  11.260   2.637   7.494  0.1472  0.0218 -0.0147
34685SOL    HW1 8866  11.249   2.633   7.589  2.4859 -0.2085  0.3083
34685SOL    HW2 8867  11.320   2.710   7.479 -1.1991  0.8873 -1.4602
34686SOL     OW 8868   6.436   2.613   7.271 -0.0493  0.2421 -0.1712
34686SOL    HW1 8869   6.437   2.709   7.283  1.3264  0.1190  1.0208
34686SOL    HW2 8870   6.515   2.583   7.316 -0.4320 -1.4630 -0.5823
34687SOL     OW 8871   9.940   8.262  10.762  0.0992 -0.2450 -0.2453
34687SOL    HW1 8872   9.980   8.253  10.676 -0.0543  0.2392 -0.3727
34687SOL    HW2 8873   9.939   8.357  10.778 -0.1356 -0.3130  0.1619
34688SOL     OW 8874   6.264   1.619   9.646 -0.5971  0.2004 -0.2985
34688SOL    HW1 8875   6.259   1.644   9.739 -0.2146 -2.6025  0.5659
34688SOL    HW2 8876   6.357   1.600   9.632 -0.7836 -0.1806 -1.0251
34689SOL     OW 8877   2.675   5.960   8.157 -0.1176  0.2400  0.2247
34689SOL    HW1 8878   2.668   5.900   8.230 -0.5003  0.0491  0.0313
34689SOL    HW2 8879   2.756   6.009   8.174 -0.4151  0.4895  0.9866
34690SOL     OW 8880   7.177   5.479  10.785 -0.0227 -0.2103  0.1749
34690SOL    HW1 8881   7.159   5.491  10.879 -0.8998  0.7513 -0.0953
34690SOL    HW2 8882   7.272   5.491  10.777 -0.0525  0.5201  0.8217
34691SOL     OW 8883   0.609   3.667   3.101  0.0449 -0.3823  0.0434
34691SOL    HW1 8884   0.616   3.762   3.112  0.8786 -0.6906  2.7815
34691SOL    HW2 8885   0.662   3.648   3.024 -0.7464  1.4238 -1.0213
34692SOL     OW 8886  12.183   2.685   4.480 -0.7420  0.7615  0.5937
34692SOL    HW1 8887  12.103   2.665   4.528 -0.4760 -1.0629  0.3682
34692SOL    HW2 8888  12.215   2.600   4.450 -0.2108  1.6884 -1.7102
34693SOL     OW 8889   8.831   5.803   1.267  0.5443  0.2074  0.0097
34693SOL    HW1 8890   8.822   5.708   1.278  0.4689  0.1046 -0.8171
34693SOL    HW2 8891   8.842   5.837   1.355 -2.6782 -0.2023  0.6868
34694SOL     OW 8892   0.122   9.546   2.473 -0.6453  0.1697 -0.2622
34694SOL    HW1 8893   0.058   9.601   2.427 -1.0254 -0.1779 -0.1626
34694SOL    HW2 8894   0.084   9.458   2.468 -0.2508 -0.0109 -0.0526
34695SOL     OW 8895   0.268   1.884   1.370 -0.4661 -0.4932 -0.5812
34695SOL    HW1 8896   0.337   1.874   1.305 -0.0714 -0.4232 -0.1823
34695SOL    HW2 8897   0.310   1.860   1.453 -0.4846  0.9325 -0.1163
34696SOL     OW 8898   1.277   5.258  10.135  0.3180 -0.0810 -0.3557
34696SOL    HW1 8899   1.187   5.290  10.137 -0.2723 -1.6137 -0.8937
34696SOL    HW2 8900   1.330   5.336  10.148 -1.0944  0.7744  0.6776
34697SOL     OW 8901   7.315   8.541   6.571 -0.1421 -0.3900 -0.4577
34697SOL    HW1 8902   7.408   8.520   6.580 -0.4782 -2.0777 -0.5336
34697SOL    HW2 8903   7.314   8.622   6.520  1.2848 -0.2949 -0.3957
34698SOL     OW 8904   6.388   8.079  11.132  0.6349 -0.0169 -0.2208
34698SOL    HW1 8905   6.339   8.038  11.060  1.3689 -0.6456 -0.3696
34698SOL    HW2 8906   6.383   8.015  11.203 -0.0635  0.5901  0.2878
34699SOL     OW 8907   0.731   8.618   4.703  0.1122  0.1377  0.0631
34699SOL    HW1 8908   0.688   8.623   4.789  1.3530 -1.6079  0.8631
34699SOL    HW2 8909   0.737   8.524   4.686  1.9284  0.3890 -0.8619
34700SOL     OW 8910   5.326   3.656   4.599  0.6945  0.4352 -0.5250
34700SOL    HW1 8911   5.406   3.692   4.561  0.2095 -0.4377 -2.4910
34700SOL    HW2 8912   5.339   3.561   4.594 -0.9128  0.2423 -1.9984
34701SOL     OW 8913   3.059   9.803   0.546 -0.3008  0.6248 -0.1737
34701SOL    HW1 8914   2.998   9.730   0.532 -1.7336  1.5745  0.7946
34701SOL    HW2 8915   3.074   9.839   0.459 -1.8898  0.9352 -0.3484
34702SOL     OW 8916   9.187   8.749   5.304 -0.2706 -0.1421 -0.0660
34702SOL    HW1 8917   9.173   8.780   5.214  0.0481  1.9174  0.5518
34702SOL    HW2 8918   9.242   8.816   5.344  1.7874 -2.3025  0.9567
34703SOL     OW 8919   3.507   4.289   1.238  0.1799 -0.5221 -0.1434
34703SOL    HW1 8920   3.489   4.306   1.331  0.0952  0.4552 -0.3269
34703SOL    HW2 8921   3.591   4.244   1.237  0.5062  0.0741  0.3678
34704SOL     OW 8922   0.172   7.503   8.331  0.0065 -0.1658 -0.1974
34704SOL    HW1 8923   0.192   7.432   8.270 -0.2508  0.3501 -0.8972
34704SOL    HW2 8924   0.178   7.582   8.278  1.8277  0.5070  0.9018
34705SOL     OW 8925   7.656   2.897   0.241 -0.1523 -0.5618 -0.1381
34705SOL    HW1 8926   7.624   2.818   0.198 -0.6693  0.4715 -1.7577
34705SOL    HW2 8927   7.712   2.865   0.312  0.2875 -2.3814 -1.2258
34706SOL     OW 8928   3.333   5.063  12.549  0.0621  0.1728 -0.1078
34706SOL    HW1 8929   3.414   5.013  12.554 -0.2788 -0.4235 -0.4018
34706SOL    HW2 8930   3.341   5.114  12.468 -0.2306 -0.5643 -0.6098
34707SOL     OW 8931   1.740   8.765   0.693 -0.2623  0.7494 -0.5109
34707SOL    HW1 8932   1.670   8.804   0.640 -1.9117 -2.1356 -0.6856
34707SOL    HW2 8933   1.712   8.777   0.783  0.1799  1.5571 -0.4745
34708SOL     OW 8934   4.028   8.319   3.235 -0.1546  0.1914 -0.6045
34708SOL    HW1 8935   4.068   8.239   3.269  0.4621  1.2797  1.3806
34708SOL    HW2 8936   4.096   8.358   3.181  1.1369  1.3906  1.7387
34709SOL     OW 8937   2.542   2.363   8.842 -0.1487  0.4405  0.2413
34709SOL    HW1 8938   2.530   2.283   8.894 -2.4319 -0.0876 -0.9379
34709SOL    HW2 8939   2.463   2.367   8.787  0.7471  2.5779 -0.9958
34710SOL     OW 8940  11.514   5.029   9.296 -0.1610 -0.8260 -0.3420
34710SOL    HW1 8941  11.499   5.100   9.358  1.3296  1.1895 -2.1049
34710SOL    HW2 8942  11.446   5.039   9.230 -0.5582 -1.7133 -0.0850
34711SOL     OW 8943  11.913   9.385   9.134 -0.2678  0.0620  0.0253
34711SOL    HW1 8944  11.958   9.302   9.150 -0.1298  0.4404  1.8078
34711SOL    HW2 8945  11.850   9.392   9.205 -1.9320  0.4151 -1.4027
34712SOL     OW 8946   5.238   6.323   6.997 -0.0125  0.4568 -0.6015
34712SOL    HW1 8947   5.266   6.415   6.994 -0.6919  0.6843 -0.2366
34712SOL    HW2 8948   5.278   6.289   7.077 -1.2403  0.9535  0.2571
34713SOL     OW 8949   2.268  10.266   6.009 -0.4245 -0.1291 -0.6423
34713SOL    HW1 8950   2.288  10.175   5.990 -2.7954 -1.0381  0.7514
34713SOL    HW2 8951   2.314  10.285   6.091 -0.4737 -0.2937 -0.5764
34714SOL     OW 8952   1.126   3.416   4.890  0.0324 -0.4319 -0.0012
34714SOL    HW1 8953   1.038   3.444   4.911 -0.0690 -0.2408 -0.6478
34714SOL    HW2 8954   1.169   3.405   4.975  0.4810  2.8739  0.3364
34715SOL     OW 8955   1.010   9.109   0.046 -0.4057  0.2743  0.3949
34715SOL    HW1 8956   1.005   9.135  -0.046 -0.5515 -1.6025 -0.1563
34715SOL    HW2 8957   0.936   9.155   0.087  0.6376  2.4725 -0.0227
34716SOL     OW 8958   3.864   5.769   9.826 -0.1591 -0.1230 -0.1579
34716SOL    HW1 8959   3.777   5.808   9.835  0.2130  0.5155  0.8659
34716SOL    HW2 8960   3.861   5.721   9.744 -0.5924  2.2257 -1.6210
34717SOL     OW 8961   1.090   3.233   7.217 -0.1180  0.2178 -0.6889
34717SOL    HW1 8962   1.133   3.313   7.245  0.9423  0.2618 -2.3013
34717SOL    HW2 8963   1.136   3.207   7.137 -3.6602  0.7790 -3.1614
34718SOL     OW 8964   9.497  11.771   1.164 -0.2299 -0.4219 -0.1302
34718SOL    HW1 8965   9.588  11.749   1.182  0.0005  0.8244  0.3331
34718SOL    HW2 8966   9.490  11.864   1.185 -1.3997 -0.2888 -0.9936
34719SOL     OW 8967   0.545   5.107  10.986 -0.0136 -0.2253  0.4355
34719SOL    HW1 8968   0.455   5.090  11.012 -0.2147 -0.6257 -0.4668
34719SOL    HW2 8969   0.581   5.162  11.056 -0.8476 -0.3496  0.9720
34720SOL     OW 8970   5.366   6.811  11.955 -0.7570  0.0194 -0.8491
34720SOL    HW1 8971   5.367   6.860  12.037  0.1748  0.1096 -0.9058
34720SOL    HW2 8972   5.448   6.835  11.912 -0.0327 -1.9298 -0.6541
34721SOL     OW 8973   1.177   3.176   7.905 -0.0542 -0.0324  0.6719
34721SOL    HW1 8974   1.224   3.140   7.980  1.6095  2.8013  1.1597
34721SOL    HW2 8975   1.190   3.112   7.835  2.8219 -0.3882  1.3980
34722SOL     OW 8976  12.035  11.344   2.051  0.6240  0.0954  0.1721
34722SOL    HW1 8977  12.123  11.332   2.086  1.3332  2.3179 -0.6446
34722SOL    HW2 8978  12.008  11.256   2.022  2.5018 -0.6582  0.5800
34723SOL     OW 8979   1.758  12.184   0.358 -0.9990  0.2621  0.3388
34723SOL    HW1 8980   1.793  12.189   0.269 -0.4346 -2.0867  0.3555
34723SOL    HW2 8981   1.676  12.232   0.355 -1.9813 -1.3576 -2.0128
34724SOL     OW 8982  10.474   9.505  10.988 -0.0244  0.3504 -0.1280
34724SOL    HW1 8983  10.482   9.592  10.951  1.4191  0.0631 -0.5622
34724SOL    HW2 8984  10.425   9.455  10.923 -3.9290  1.5978  1.5661
34725SOL     OW 8985   2.934   5.919  11.627 -0.5987  0.0166 -0.4688
34725SOL    HW1 8986   3.022   5.954  11.613 -1.6483  2.5866 -1.1817
34725SOL    HW2 8987   2.941   5.827  11.604  1.8793  0.1658 -0.5580
34726SOL     OW 8988   7.853   6.221   4.998 -1.2812 -0.5658  0.0993
34726SOL    HW1 8989   7.911   6.283   5.042 -0.0834 -1.9251  0.5201
34726SOL    HW2 8990   7.816   6.271   4.925  1.8244 -0.1010 -1.2877
34727SOL     OW 8991   1.443  10.388   1.751  0.0766 -0.4566  0.3193
34727SOL    HW1 8992   1.507  10.452   1.719 -0.3761  0.5061  1.2923
34727SOL    HW2 8993   1.479  10.303   1.724  0.5435  0.1971 -1.2478
34728SOL     OW 8994   3.044   6.759   3.279 -0.1085 -0.4527  0.2060
34728SOL    HW1 8995   3.017   6.801   3.198  0.9260 -3.9321 -2.1363
34728SOL    HW2 8996   3.127   6.801   3.302  0.1609 -0.1664 -1.2078
34729SOL     OW 8997  11.649   0.287   8.882 -0.3540 -0.8539  0.0449
34729SOL    HW1 8998  11.723   0.264   8.826  1.6986  1.4728  1.5893
34729SOL    HW2 8999  11.613   0.366   8.843  0.4455  0.1897  1.3121
34730SOL     OW 9000   0.771   5.066   9.796 -0.2478  0.3559  0.1390
34730SOL    HW1 9001   0.864   5.085   9.782 -0.5922  2.6432  0.7034
34730SOL    HW2 9002   0.741   5.032   9.711  0.9172  0.3290 -0.2771
34731SOL     OW 9003   2.624  11.850  12.213 -0.1329 -0.9006 -0.1928
34731SOL    HW1 9004   2.662  11.893  12.137 -2.6875 -0.1822 -1.1610
34731SOL    HW2 9005   2.635  11.756  12.196  2.2789 -0.7668  0.2306
34732SOL     OW 9006  12.051  11.051   4.596 -0.1570  0.0705 -0.1598
34732SOL    HW1 9007  12.000  11.111   4.541  2.0638  1.0777 -1.2127
34732SOL    HW2 9008  12.042  10.966   4.553 -2.7854 -0.3331  0.9794
34733SOL     OW 9009   7.519   5.605  11.618 -0.3154  0.5316 -0.2136
34733SOL    HW1 9010   7.569   5.525  11.600 -0.6455  0.6376 -1.7518
34733SOL    HW2 9011   7.482   5.591  11.704 -0.4254 -1.0212 -0.4842
34734SOL     OW 9012   1.223   3.774   8.293  0.0341  0.3443  0.1669
34734SOL    HW1 9013   1.166   3.759   8.369  0.0079  1.1656  0.3160
34734SOL    HW2 9014   1.289   3.704   8.300 -0.6366 -0.2975  0.2852
34735SOL     OW 9015   8.637   2.019   0.660 -0.1333 -0.2679 -0.6459
34735SOL    HW1 9016   8.635   2.086   0.729  1.1792 -2.0728  1.2604
34735SOL    HW2 9017   8.545   1.993   0.650 -0.7057  1.9028 -1.6024
34736SOL     OW 9018   0.383   2.627   8.191 -0.1736  0.4008 -0.2768
34736SOL    HW1 9019   0.336   2.680   8.127 -0.2145  0.8339  0.0995
34736SOL    HW2 9020   0.317   2.602   8.255  0.2068  1.6075  0.6369
34737SOL     OW 9021   1.604   0.960   0.887  0.3513  0.1688 -0.6225
34737SOL    HW1 9022   1.585   1.040   0.837 -1.5277 -0.5624 -1.1385
34737SOL    HW2 9023   1.600   0.890   0.822  1.6450 -0.4092 -0.1046
34738SOL     OW 9024   1.966  12.081  10.715  0.5160 -0.0910 -0.2492
34738SOL    HW1 9025   1.946  12.080  10.808  1.3162 -0.9091 -0.0696
34738SOL    HW2 9026   2.056  12.115  10.711  0.4170  0.1240 -0.7441
34739SOL     OW 9027  12.616   6.741   4.529  0.0254  0.4035  0.5975
34739SOL    HW1 9028  12.655   6.710   4.448 -0.1742  1.4075  0.1042
34739SOL    HW2 9029  12.689   6.746   4.591  0.4392  0.9808  0.0705
34740SOL     OW 9030  10.151   8.233   3.767 -0.0270  0.0328 -0.3945
34740SOL    HW1 9031  10.124   8.203   3.680 -0.6671  0.3895 -0.3254
34740SOL    HW2 9032  10.094   8.308   3.786 -1.0948 -1.0899  1.0563
34741SOL     OW 9033   9.112   4.166   3.535 -0.0695  0.0137 -0.0554
34741SOL    HW1 9034   9.084   4.170   3.443  1.7597 -2.5616 -0.8419
34741SOL    HW2 9035   9.161   4.085   3.541 -0.1175  0.1164  3.2594
34742SOL     OW 9036  11.834   7.836   9.084 -0.2045  0.5695 -0.5178
34742SOL    HW1 9037  11.776   7.794   9.021  1.3104  0.3411 -1.8265
34742SOL    HW2 9038  11.818   7.789   9.166 -1.4322  0.1422 -0.9820
34743SOL     OW 9039  11.408   8.700   2.239  0.0871  0.2738 -0.0223
34743SOL    HW1 9040  11.343   8.766   2.213  0.7564  0.4135 -1.4493
34743SOL    HW2 9041  11.481   8.751   2.275 -0.4182  0.1380  1.2387
34744SOL     OW 9042   5.034   6.483  10.798  0.5059 -0.3978 -0.5265
34744SOL    HW1 9043   4.947   6.446  10.815  1.0724 -2.3731 -1.6374
34744SOL    HW2 9044   5.049   6.468  10.705  2.8615 -2.0828  0.0298
34745SOL     OW 9045   0.992   9.166   2.095  0.1896 -0.0854 -0.2270
34745SOL    HW1 9046   0.972   9.243   2.041  0.0205  0.2653  0.3177
34745SOL    HW2 9047   0.961   9.092   2.044 -1.4275  0.3497  0.0566
34746SOL     OW 9048   5.379  11.195   0.059 -0.4499 -0.0902  0.2630
34746SOL    HW1 9049   5.294  11.150   0.061 -0.4223 -0.4320 -2.3851
34746SOL    HW2 9050   5.413  11.177  -0.029  0.0085  4.2851 -0.6835
34747SOL     OW 9051   0.400   1.016   9.792 -0.0305 -0.0662 -0.2335
34747SOL    HW1 9052   0.322   0.988   9.744 -0.7455  1.9831 -0.3371
34747SOL    HW2 9053   0.454   1.060   9.726  0.2201  0.4180  0.2916
34748SOL     OW 9054   9.629   9.231   7.783 -0.2147  0.1094 -0.1760
34748SOL    HW1 9055   9.705   9.240   7.840 -0.0205  0.9071 -0.5442
34748SOL    HW2 9056   9.620   9.137   7.769  0.1949 -0.0426  0.5432
34749SOL     OW 9057   2.282   6.439   8.182  0.4645 -0.2105 -0.4888
34749SOL    HW1 9058   2.265   6.349   8.153 -0.8724  0.6605 -2.6599
34749SOL    HW2 9059   2.225   6.451   8.258 -0.1360 -0.9111 -0.8113
34750SOL     OW 9060  11.619  10.405   8.460  0.1482 -0.3428 -0.1389
34750SOL    HW1 9061  11.692  10.407   8.398 -0.0011  0.8818 -0.2883
34750SOL    HW2 9062  11.561  10.475   8.432  0.4572  0.7924  1.8241
34751SOL     OW 9063   9.972   4.740  11.942  0.3530  0.5989 -0.1020
34751SOL    HW1 9064   9.908   4.790  11.891 -0.8714 -0.0644  0.7096
34751SOL    HW2 9065   9.985   4.793  12.021  0.3928  0.4743 -0.0251
34752SOL     OW 9066   4.313   9.153   0.116 -0.0457 -0.2413 -0.1188
34752SOL    HW1 9067   4.266   9.141   0.199 -1.0690  0.0755 -0.6427
34752SOL    HW2 9068   4.368   9.075   0.109 -0.2756 -0.4825  0.6517
34753SOL     OW 9069   3.114   3.256   8.338 -0.0740  0.0914 -0.5462
34753SOL    HW1 9070   3.143   3.171   8.372  0.1469 -0.2605 -1.5903
34753SOL    HW2 9071   3.098   3.308   8.417  0.4440 -0.6952  0.1039
34754SOL     OW 9072   3.932   9.926  10.237  0.1771  0.1022  0.4474
34754SOL    HW1 9073   3.947   9.936  10.142 -3.0525 -1.0864 -0.3050
34754SOL    HW2 9074   3.870   9.854  10.243 -1.0067  1.2638  3.4056
34755SOL     OW 9075  10.625  12.382  10.950 -0.3945 -0.0721 -0.0435
34755SOL    HW1 9076  10.698  12.367  11.009 -0.4054 -1.5023 -0.3619
34755SOL    HW2 9077  10.665  12.390  10.864 -0.5888 -0.4888 -0.1710
34756SOL     OW 9078   9.828   5.090   1.973  0.6413 -0.6702  0.2338
34756SOL    HW1 9079   9.901   5.042   2.012  0.8048  0.1736  0.9932
34756SOL    HW2 9080   9.796   5.147   2.043 -1.1372 -1.4432  0.1090
34757SOL     OW 9081   5.125   7.094   6.586  0.5899 -0.2614 -0.0379
34757SOL    HW1 9082   5.061   7.026   6.566  0.3741 -0.0192 -0.1715
34757SOL    HW2 9083   5.185   7.052   6.648 -0.1069 -0.2717  0.6531
34758SOL     OW 9084   1.625   3.997  10.922  0.1477 -0.0417  0.7975
34758SOL    HW1 9085   1.532   4.014  10.937 -0.2094 -0.3708 -0.8721
34758SOL    HW2 9086   1.644   3.921  10.975 -0.8644 -0.7239  0.2220
34759SOL     OW 9087  10.738   5.863   0.614 -0.3702  0.0541  0.1318
34759SOL    HW1 9088  10.773   5.939   0.661  0.9816 -0.7712  0.5439
34759SOL    HW2 9089  10.653   5.847   0.654 -0.6415  1.2945  0.0881
34760SOL     OW 9090  11.331   1.297   6.935 -0.2229  0.3268  0.1671
34760SOL    HW1 9091  11.288   1.309   7.020 -3.0112 -0.5295 -0.9852
34760SOL    HW2 9092  11.331   1.384   6.895 -3.5759  0.0289 -0.8486
34761SOL     OW 9093   9.676   1.098   9.244  0.3886  0.1611 -0.2420
34761SOL    HW1 9094   9.660   1.128   9.154  0.0355  1.8163  0.3425
34761SOL    HW2 9095   9.589   1.091   9.282  0.5450 -0.4600  0.0006
34762SOL     OW 9096   1.714   4.400   5.935 -0.2940 -0.3426  0.1506
34762SOL    HW1 9097   1.794   4.383   5.985 -0.7368  1.1502  1.4352
34762SOL    HW2 9098   1.643   4.382   5.997 -0.8615  1.0939 -0.0350
34763SOL     OW 9099  11.862  12.067   7.619 -0.2322  0.3549 -0.8225
34763SOL    HW1 9100  11.888  12.157   7.638 -1.3319  0.9693 -2.1100
34763SOL    HW2 9101  11.826  12.034   7.701  0.3636  0.9966 -0.2877
34764SOL     OW 9102  10.364  10.496   3.859  0.1528 -0.3161 -0.1088
34764SOL    HW1 9103  10.307  10.443   3.803 -0.1435  0.2781 -0.3757
34764SOL    HW2 9104  10.403  10.433   3.920  0.3598 -0.9471 -0.8783
34765SOL     OW 9105   6.643  11.656   4.362  0.9086  0.6869  0.3735
34765SOL    HW1 9106   6.682  11.572   4.383  0.6523  0.4112 -0.2187
34765SOL    HW2 9107   6.675  11.676   4.274 -0.1774  0.5053 -0.0861
34766SOL     OW 9108  10.774   8.347   4.776  0.1744  0.1745 -0.0431
34766SOL    HW1 9109  10.719   8.270   4.767  0.7310 -0.6536  2.7087
34766SOL    HW2 9110  10.822   8.352   4.693 -1.1747 -1.3324 -0.9733
34767SOL     OW 9111   6.484  11.560  10.490 -0.6000  0.2452 -0.5731
34767SOL    HW1 9112   6.465  11.521  10.404  2.8692  1.2935 -1.9986
34767SOL    HW2 9113   6.465  11.653  10.479 -1.1167  0.2361  0.1693
34768SOL     OW 9114   9.568  11.670   9.298  0.1928 -0.0570  1.0904
34768SOL    HW1 9115   9.515  11.598   9.262  0.5528  0.3074 -0.2437
34768SOL    HW2 9116   9.508  11.720   9.352 -0.4445 -0.5057  0.8092
34769SOL     OW 9117   4.252   1.681   6.769  0.5577  0.3347 -0.2518
34769SOL    HW1 9118   4.307   1.736   6.713  1.9137 -0.1863  0.5265
34769SOL    HW2 9119   4.299   1.678   6.853 -1.6037  1.4078  1.0863
34770SOL     OW 9120   7.133   2.588   2.540 -0.7302 -0.1606  0.1944
34770SOL    HW1 9121   7.146   2.498   2.511  0.2753  0.4265 -1.3104
34770SOL    HW2 9122   7.205   2.637   2.499 -0.2100  1.0441  2.3775
34771SOL     OW 9123   3.192   7.353   4.739 -0.1967 -0.2661  0.3690
34771SOL    HW1 9124   3.143   7.379   4.661 -0.3458  0.4284  0.6820
34771SOL    HW2 9125   3.125   7.324   4.801 -0.1681  0.1006  0.5776
34772SOL     OW 9126   8.281   4.896  10.386 -0.2798 -0.0447  0.0698
34772SOL    HW1 9127   8.319   4.824  10.335 -0.7781 -1.2748  1.3759
34772SOL    HW2 9128   8.259   4.962  10.320 -0.1976 -1.2547 -1.2305
34773SOL     OW 9129   9.933   8.468   7.059 -0.2713 -0.1623 -0.0603
34773SOL    HW1 9130   9.960   8.550   7.017 -0.1185 -0.6737 -0.9974
34773SOL    HW2 9131   9.903   8.413   6.986 -1.3205 -0.5804  0.6593
34774SOL     OW 9132   0.330  11.410   9.805  0.0901 -0.2445 -0.1112
34774SOL    HW1 9133   0.270  11.468   9.757  0.8796 -0.1398 -0.9981
34774SOL    HW2 9134   0.272  11.355   9.858 -0.7235  0.7667  0.1026
34775SOL     OW 9135   5.721   2.570   2.442 -0.2696 -0.5555 -0.3957
34775SOL    HW1 9136   5.695   2.661   2.433 -0.4573 -0.6190 -0.5059
34775SOL    HW2 9137   5.811   2.573   2.476 -0.5530 -0.3461  0.3283
34776SOL     OW 9138   4.015  10.109   7.392 -0.1265  0.0709 -0.4515
34776SOL    HW1 9139   3.923  10.136   7.398 -0.1622 -0.3880  1.4976
34776SOL    HW2 9140   4.064  10.179   7.434  0.4685  0.3673 -1.5763
34777SOL     OW 9141   5.294  11.373  11.004 -0.0202  0.5791 -0.4029
34777SOL    HW1 9142   5.228  11.348  10.939 -0.8555  0.6084  0.4065
34777SOL    HW2 9143   5.246  11.375  11.087  0.9879  0.6905  0.1944
34778SOL     OW 9144   2.235   9.345   0.521 -0.3278 -0.1379 -0.2487
34778SOL    HW1 9145   2.234   9.401   0.443 -0.0052  1.0024  0.5388
34778SOL    HW2 9146   2.150   9.302   0.522 -1.6022  2.2351  0.4374
34779SOL     OW 9147   7.125  12.073   8.396 -0.0909  0.6982 -0.4141
34779SOL    HW1 9148   7.151  12.126   8.472  1.2932 -0.4719 -0.0381
34779SOL    HW2 9149   7.182  12.104   8.326 -1.1153  1.5180 -0.9199
34780SOL     OW 9150   5.538   3.497  10.411 -0.2013  0.2666 -0.2758
34780SOL    HW1 9151   5.530   3.579  10.460  2.3531  0.0307  0.6895
34780SOL    HW2 9152   5.549   3.525  10.320  0.5252  1.0346  0.0289
34781SOL     OW 9153   1.376   0.579   8.579 -0.1640  0.0544 -0.2226
34781SOL    HW1 9154   1.375   0.592   8.674 -1.7495 -2.5177  0.2148
34781SOL    HW2 9155   1.319   0.648   8.545  0.9533  1.4253  0.5675
34782SOL     OW 9156  12.056   5.498   4.473 -0.6094 -0.0295 -0.1519
34782SOL    HW1 9157  12.002   5.562   4.520  0.7706  0.8035  0.3426
34782SOL    HW2 9158  12.114   5.461   4.539  2.6095  2.4428 -1.3312
34783SOL     OW 9159   9.864   1.310  12.599  0.1446 -0.8112  0.5146
34783SOL    HW1 9160   9.937   1.338  12.655 -0.7317  0.5091  1.0525
34783SOL    HW2 9161   9.810   1.255  12.656  0.1398 -0.8815  0.4435
34784SOL     OW 9162   5.913   3.417   7.063 -0.3229  0.0243  0.5994
34784SOL    HW1 9163   5.936   3.505   7.032 -0.6386  0.2513  0.9965
34784SOL    HW2 9164   5.871   3.375   6.988 -0.0411  0.1627  0.3647
34785SOL     OW 9165   1.025   6.062   8.711 -0.6246 -0.2541 -0.6289
34785SOL    HW1 9166   1.017   6.024   8.624 -0.2575 -0.4010 -0.6014
34785SOL    HW2 9167   1.119   6.061   8.729 -0.4208  2.0299 -1.2328
34786SOL     OW 9168   2.096   6.017   5.859 -0.2802  0.0347  0.2788
34786SOL    HW1 9169   2.160   6.037   5.791 -1.2474 -0.1609 -0.7242
34786SOL    HW2 9170   2.025   6.080   5.844 -0.8530 -0.5212  0.6150
34787SOL     OW 9171   2.986   2.613  12.140  0.3793  0.3829 -0.1495
34787SOL    HW1 9172   2.893   2.614  12.163  0.9493  2.4843  2.6888
34787SOL    HW2 9173   2.988   2.585  12.049 -3.0325  0.3700 -0.3519
34788SOL     OW 9174  10.500   4.708   3.731  0.3107  0.1953 -0.0147
34788SOL    HW1 9175  10.406   4.691   3.740  0.4738 -0.2900  0.9365
34788SOL    HW2 9176  10.532   4.637   3.675  0.2975 -0.3060  0.6024
34789SOL     OW 9177  11.538   1.053   6.883  0.3205  0.4380  0.1277
34789SOL    HW1 9178  11.620   1.007   6.901 -0.0556  0.8662  3.7593
34789SOL    HW2 9179  11.538   1.127   6.944 -1.5468  2.1375 -1.7513
34790SOL     OW 9180   3.132   8.593   6.479 -0.1230 -0.2245  0.0709
34790SOL    HW1 9181   3.045   8.618   6.450 -0.2689 -0.8333 -0.0326
34790SOL    HW2 9182   3.140   8.500   6.456  0.5067 -0.2078  0.1813
34791SOL     OW 9183   6.665   4.676   6.278 -0.6468  0.3976 -0.2046
34791SOL    HW1 9184   6.624   4.651   6.196 -0.3280  0.4270 -0.3718
34791SOL    HW2 9185   6.702   4.762   6.262  1.1787 -0.4218 -0.6676
34792SOL     OW 9186  11.410   0.850   3.618 -0.4977  0.4818 -0.4582
34792SOL    HW1 9187  11.381   0.893   3.699  0.4802 -0.3899  0.3897
34792SOL    HW2 9188  11.391   0.757   3.633  3.4284 -0.3259  0.5720
34793SOL     OW 9189   9.069  11.189   6.097 -1.1591  0.5656  0.6196
34793SOL    HW1 9190   9.098  11.102   6.125 -0.5617  0.4855 -0.2270
34793SOL    HW2 9191   9.060  11.182   6.002 -1.2376  1.3906  0.5615
34794SOL     OW 9192   7.746   7.248   4.613  0.2626  0.0664 -0.3333
34794SOL    HW1 9193   7.653   7.259   4.595 -0.0717 -0.0668  1.1750
34794SOL    HW2 9194   7.750   7.179   4.680  1.2608  1.5014  1.1682
34795SOL     OW 9195   6.448  11.518   3.948  1.0004  0.4162  0.3176
34795SOL    HW1 9196   6.504  11.466   4.006 -0.8618 -0.3867  1.5040
34795SOL    HW2 9197   6.454  11.474   3.863  2.1868  0.3808  0.4109
34796SOL     OW 9198  11.117   1.348  11.588  0.3745  0.6626  0.5227
34796SOL    HW1 9199  11.095   1.266  11.633  1.6850  0.2765  0.5085
34796SOL    HW2 9200  11.213   1.350  11.588  0.4187  0.8876 -1.8513
34797SOL     OW 9201  11.975  11.711   7.267  0.1246  0.1637  0.4017
34797SOL    HW1 9202  12.009  11.762   7.194  0.2176  1.7186  1.4873
34797SOL    HW2 9203  11.981  11.769   7.342 -1.8098 -0.6819  1.2905
34798SOL     OW 9204  10.474   7.174   1.569  0.0706  0.3837  0.0954
34798SOL    HW1 9205  10.398   7.146   1.517  0.8361 -0.2222 -0.7171
34798SOL    HW2 9206  10.499   7.258   1.531 -0.1165  0.5320  0.2943
34799SOL     OW 9207  11.432   1.035   4.873  0.0728  0.3308 -0.0119
34799SOL    HW1 9208  11.514   0.989   4.892  0.0005 -0.1003 -0.7216
34799SOL    HW2 9209  11.455   1.099   4.805 -0.0787  0.5569  0.1449
34800SOL     OW 9210  12.561   1.125   8.995  0.2663 -0.0088  0.1074
34800SOL    HW1 9211  12.474   1.092   8.974 -0.5249  2.9105 -1.7535
34800SOL    HW2 9212  12.546   1.190   9.064  0.8692  0.9422 -0.6380
34801SOL     OW 9213  10.730   8.038   6.442  0.3913  0.5197  0.1908
34801SOL    HW1 9214  10.655   8.018   6.498  0.7337 -0.7168  0.2260
34801SOL    HW2 9215  10.793   8.081   6.500  0.1820  0.4940  0.4355
34802SOL     OW 9216   0.367   3.939  11.122  0.3262  0.1633 -0.3505
34802SOL    HW1 9217   0.374   3.985  11.039 -0.7565 -1.7102 -1.5454
34802SOL    HW2 9218   0.285   3.972  11.160  1.4661  2.0005  0.6872
34803SOL     OW 9219   9.564  12.020   5.154 -0.1934  0.7853 -0.0665
34803SOL    HW1 9220   9.491  12.009   5.215  1.2399  1.7442  1.9459
34803SOL    HW2 9221   9.641  12.027   5.210  1.2399  1.6132 -2.0221
34804SOL     OW 9222   5.319  12.210   2.247 -0.5605 -0.2036  0.1719
34804SOL    HW1 9223   5.365  12.132   2.216  0.1954  0.2829  0.0396
34804SOL    HW2 9224   5.381  12.252   2.307  0.0698  1.6294 -1.6620
34805SOL     OW 9225  12.030   1.779  11.448  0.3304 -0.4640  0.0583
34805SOL    HW1 9226  11.938   1.752  11.440  0.3011 -0.8532  1.4629
34805SOL    HW2 9227  12.043   1.793  11.541  1.0674  1.9644 -0.3337
34806SOL     OW 9228   5.292   0.529  10.769 -0.0606  0.4342  0.0293
34806SOL    HW1 9229   5.277   0.439  10.797  3.0459  0.3667  1.9356
34806SOL    HW2 9230   5.304   0.523  10.674 -0.1060 -1.1333  0.0970
34807SOL     OW 9231   5.354   7.186   4.243 -0.2984  0.1229  0.0750
34807SOL    HW1 9232   5.382   7.275   4.267 -0.9237  0.4665 -0.4569
34807SOL    HW2 9233   5.285   7.199   4.178 -0.0488 -0.7672 -0.3787
34808SOL     OW 9234   7.545  11.570   3.352 -0.2858  0.1084  0.1476
34808SOL    HW1 9235   7.616  11.507   3.350 -0.2040  0.1692  0.8592
34808SOL    HW2 9236   7.515  11.576   3.261  0.1683 -0.4194 -0.0395
34809SOL     OW 9237   3.921  10.807   6.370 -0.1846 -0.0315 -0.0045
34809SOL    HW1 9238   3.948  10.831   6.458  0.2546  1.3828 -0.5067
34809SOL    HW2 9239   3.827  10.789   6.377 -0.2240  0.4380  0.6646
34810SOL     OW 9240   6.024  10.542   8.581 -0.4883 -0.0070  0.0887
34810SOL    HW1 9241   5.932  10.536   8.554 -1.0489  1.2279  1.6280
34810SOL    HW2 9242   6.042  10.457   8.622 -1.2000  0.0639  0.5575
34811SOL     OW 9243   1.713   4.552  10.689  0.3529  0.4074 -0.0917
34811SOL    HW1 9244   1.703   4.643  10.718 -0.6310  0.7957 -1.5715
34811SOL    HW2 9245   1.655   4.502  10.746 -2.3216  1.2888 -1.8758
34812SOL     OW 9246   4.685   3.711  10.194  0.4712 -0.5207 -0.4501
34812SOL    HW1 9247   4.605   3.696  10.144 -0.0368 -1.0413  0.4902
34812SOL    HW2 9248   4.692   3.635  10.252  1.2211 -0.0921  0.0408
34813SOL     OW 9249   7.020   4.350   0.563 -0.5752 -0.0437 -0.1808
34813SOL    HW1 9250   7.104   4.378   0.527 -0.5660 -0.7401 -0.7361
34813SOL    HW2 9251   6.966   4.333   0.487 -1.2845  0.5647  0.1781
34814SOL     OW 9252   2.588  11.124   2.738  0.1172  0.1075  0.1132
34814SOL    HW1 9253   2.629  11.133   2.652 -0.6302  1.0769 -0.1688
34814SOL    HW2 9254   2.660  11.134   2.800  0.5450  0.1895 -0.3877
34815SOL     OW 9255  10.630   4.803  11.822  0.2638 -0.1524  0.3610
34815SOL    HW1 9256  10.650   4.889  11.785  3.5483 -0.0216  2.0503
34815SOL    HW2 9257  10.544   4.781  11.787 -1.0357  4.0554  0.3112
34816SOL     OW 9258   3.012   5.879  11.957  0.6910 -0.3406  0.4621
34816SOL    HW1 9259   3.081   5.885  11.891 -0.9107 -1.0717 -1.3839
34816SOL    HW2 9260   2.978   5.968  11.964 -1.1808 -0.7416 -2.1315
34817SOL     OW 9261   7.088   9.836   7.559  0.0492 -0.3456  0.0481
34817SOL    HW1 9262   7.079   9.853   7.653  1.5078  1.8939 -0.1438
34817SOL    HW2 9263   7.182   9.833   7.543 -0.1630 -0.3262 -1.3963
34818SOL     OW 9264   7.213   6.860   1.261  0.2807 -0.6236  0.3208
34818SOL    HW1 9265   7.214   6.764   1.258 -0.9956 -0.7152 -3.4004
34818SOL    HW2 9266   7.133   6.881   1.309 -1.4231 -1.6527 -1.8432
34819SOL     OW 9267  11.883  11.633   3.621 -1.0053  0.1003  0.4585
34819SOL    HW1 9268  11.942  11.613   3.693 -2.4135  0.6480  1.8218
34819SOL    HW2 9269  11.928  11.700   3.570 -0.0302 -0.2203  0.8842
34820SOL     OW 9270   1.776   1.776   7.785  0.6503 -0.4025  0.4741
34820SOL    HW1 9271   1.798   1.689   7.820 -0.9721 -0.8150  0.5588
34820SOL    HW2 9272   1.739   1.758   7.698  3.3402  0.5039 -0.9539
34821SOL     OW 9273  10.385  12.514  11.553 -0.5123  0.7863 -0.4930
34821SOL    HW1 9274  10.465  12.493  11.600 -0.3329  1.8956 -0.2641
34821SOL    HW2 9275  10.389  12.462  11.473  0.0968  0.3054 -0.1518
34822SOL     OW 9276  11.572   9.572   1.459 -0.2555  0.0801 -0.3940
34822SOL    HW1 9277  11.599   9.662   1.476 -0.6417 -0.2385  2.3057
34822SOL    HW2 9278  11.611   9.521   1.530 -1.1582 -1.6877 -1.0972
34823SOL     OW 9279  10.258  11.677   1.966 -0.2195  0.3372  0.2525
34823SOL    HW1 9280  10.314  11.740   1.920  1.0436  1.1820  2.7346
34823SOL    HW2 9281  10.170  11.714   1.961  0.0100  0.7641 -0.8196
34824SOL     OW 9282   8.733   1.731   4.407  0.2833  0.2122  0.0799
34824SOL    HW1 9283   8.808   1.684   4.372  0.4060  0.6936 -0.3189
34824SOL    HW2 9284   8.769   1.813   4.440 -0.1802  0.8720 -0.9776
34825SOL     OW 9285   2.504   0.110   7.641  0.5312  0.2639 -0.0509
34825SOL    HW1 9286   2.543   0.143   7.722 -0.5817  1.1352  0.1584
34825SOL    HW2 9287   2.538   0.021   7.632  2.0548  0.7648  0.4269
34826SOL     OW 9288   9.382   9.703   4.614 -0.0192  0.8188  0.3218
34826SOL    HW1 9289   9.371   9.636   4.547 -1.3207  1.8806 -0.5746
34826SOL    HW2 9290   9.459   9.753   4.586 -0.4686  1.1642 -0.3203
34827SOL     OW 9291  12.285   8.956  12.589 -0.2303 -0.2809 -0.0463
34827SOL    HW1 9292  12.213   8.927  12.533  0.7196 -1.0915 -0.8902
34827SOL    HW2 9293  12.285   8.893  12.661  0.9568 -1.6516 -1.1672
34828SOL     OW 9294   7.105   2.318   2.437  0.0558 -0.3276 -0.0842
34828SOL    HW1 9295   7.100   2.315   2.341  1.0470  1.0897 -0.2216
34828SOL    HW2 9296   7.151   2.238   2.462  0.3948 -0.3764 -0.8480
34829SOL     OW 9297   7.511   5.566   8.442 -0.5920  0.1445  0.3914
34829SOL    HW1 9298   7.598   5.535   8.465 -0.5213  0.6454  0.8067
34829SOL    HW2 9299   7.489   5.518   8.362 -0.4654 -0.9499  0.9920
34830SOL     OW 9300   8.840   6.173   9.239 -0.0247  0.0460  0.0452
34830SOL    HW1 9301   8.928   6.182   9.205 -0.5612 -0.2581 -1.5056
34830SOL    HW2 9302   8.813   6.085   9.212 -0.0854 -0.6713  2.2696
34831SOL     OW 9303   9.493   1.030   9.490 -0.4972  0.6493 -0.1632
34831SOL    HW1 9304   9.438   1.064   9.419 -2.0607 -0.4336  0.4904
34831SOL    HW2 9305   9.516   0.941   9.462  0.5646  0.9156 -0.2012
34832SOL     OW 9306   7.925   1.589   3.883 -1.1003  0.2851 -0.0385
34832SOL    HW1 9307   8.014   1.560   3.902 -0.6974  0.6572 -1.2874
34832SOL    HW2 9308   7.892   1.621   3.967 -0.8626 -1.8724  0.9611
34833SOL     OW 9309  11.855   7.715  10.512 -0.1294 -0.0188  0.1183
34833SOL    HW1 9310  11.799   7.766  10.570 -0.1129 -0.4159  0.4844
34833SOL    HW2 9311  11.940   7.713  10.555  0.1426  0.4801 -0.3791
34834SOL     OW 9312   8.752   5.851  10.343  0.0425 -0.0085  0.2208
34834SOL    HW1 9313   8.770   5.794  10.268  0.0369 -0.6401  0.6896
34834SOL    HW2 9314   8.661   5.832  10.365 -0.1164  0.5620  0.0632
34835SOL     OW 9315   5.854  12.289   8.962  0.0174  0.7155 -0.0307
34835SOL    HW1 9316   5.822  12.295   9.052 -0.0981 -0.4343  0.0268
34835SOL    HW2 9317   5.903  12.206   8.960 -0.9347  0.1484 -1.3102
34836SOL     OW 9318  10.639   4.892   2.836 -0.6072 -0.0589  0.3908
34836SOL    HW1 9319  10.616   4.946   2.912  1.1360  1.2243  0.0552
34836SOL    HW2 9320  10.699   4.826   2.872  0.6102  0.8520  0.0673
34837SOL     OW 9321   0.379  10.332   7.908  0.3140 -0.1611 -0.0321
34837SOL    HW1 9322   0.409  10.339   7.998 -2.4850 -1.6068  1.1338
34837SOL    HW2 9323   0.361  10.422   7.881 -1.9629  0.1000  2.0959
34838SOL     OW 9324   0.074   4.725   7.512 -0.3099  0.7557 -0.3448
34838SOL    HW1 9325   0.061   4.655   7.448 -0.6462  0.9865 -0.5265
34838SOL    HW2 9326   0.026   4.695   7.590 -2.0891  1.6452 -1.0402
34839SOL     OW 9327   1.204   9.428   1.779 -0.3406 -0.0536 -0.3907
34839SOL    HW1 9328   1.167   9.341   1.790  0.0259 -0.3350 -1.2843
34839SOL    HW2 9329   1.199   9.445   1.685  1.9662 -0.2128 -0.6141
34840SOL     OW 9330   5.745   1.449  11.324  0.2050 -0.2087  0.2727
34840SOL    HW1 9331   5.728   1.431  11.232  1.2768 -0.5645  0.1364
34840SOL    HW2 9332   5.818   1.511  11.323 -1.2244  1.6001  0.8275
34841SOL     OW 9333   4.962  11.747   1.531 -0.0633  0.3453 -0.1115
34841SOL    HW1 9334   4.990  11.828   1.489 -0.9030  0.0125 -1.3933
34841SOL    HW2 9335   5.042  11.698   1.547  0.5333  1.7499  1.4301
34842SOL     OW 9336   8.682   7.262   4.193 -0.3955  0.7544 -0.5531
34842SOL    HW1 9337   8.646   7.204   4.126  0.1584 -0.9038  0.5360
34842SOL    HW2 9338   8.775   7.269   4.171 -0.3639  0.8266 -0.3979
34843SOL     OW 9339   9.392   6.925   7.001  0.2380 -0.1998  0.2576
34843SOL    HW1 9340   9.296   6.933   7.000  0.3738  2.6032  0.8683
34843SOL    HW2 9341   9.422   7.000   6.951  2.1583 -1.6029 -0.8125
34844SOL     OW 9342   2.775   7.191   3.609  0.3198  0.0631  0.2181
34844SOL    HW1 9343   2.723   7.202   3.688 -0.7755  0.0609 -0.4794
34844SOL    HW2 9344   2.822   7.274   3.599 -1.4620  1.0280 -0.4659
34845SOL     OW 9345   3.688  12.021   5.399 -0.6749 -0.1717  0.0061
34845SOL    HW1 9346   3.768  12.047   5.353 -0.5695  0.0167  0.2955
34845SOL    HW2 9347   3.625  12.090   5.378  0.0011  1.0618  1.8720
34846SOL     OW 9348   9.899   1.997   2.260 -0.5353  0.3850  0.3052
34846SOL    HW1 9349   9.869   2.019   2.348  2.5786  1.8042  1.1738
34846SOL    HW2 9350   9.822   2.007   2.205 -1.8331  2.9735  2.3729
34847SOL     OW 9351   8.591   7.661   0.585 -0.1053  0.1492 -0.3692
34847SOL    HW1 9352   8.651   7.736   0.584  1.3574 -0.9322  0.7697
34847SOL    HW2 9353   8.612   7.613   0.505  2.4951 -1.5751  1.1874
34848SOL     OW 9354  10.605  12.500  10.573  0.3039  0.6314 -0.0320
34848SOL    HW1 9355  10.600  12.429  10.508  0.0888  1.2801 -0.7376
34848SOL    HW2 9356  10.674  12.473  10.633  0.0135 -0.3243 -0.1117
34849SOL     OW 9357   5.191   7.913   7.964  0.3038 -0.4024 -0.2700
34849SOL    HW1 9358   5.283   7.894   7.946  0.5139 -0.5620  0.8887
34849SOL    HW2 9359   5.162   7.841   8.020 -0.1796  0.2991  0.3938
34850SOL     OW 9360   9.181   4.154   1.645 -0.2614 -0.0119 -0.3076
34850SOL    HW1 9361   9.219   4.070   1.673 -0.9198  0.0384  0.8119
34850SOL    HW2 9362   9.147   4.193   1.726 -1.6837  0.4461 -1.0779
34851SOL     OW 9363  11.839   3.707   7.448 -0.4620  0.1536  0.0005
34851SOL    HW1 9364  11.840   3.613   7.428 -0.3056  0.1051  0.2306
34851SOL    HW2 9365  11.754   3.738   7.415 -1.2524 -0.3997  1.4308
34852SOL     OW 9366   4.495   3.045   7.212  0.3504 -0.1069  0.4173
34852SOL    HW1 9367   4.532   3.052   7.300 -0.8119  2.4433  0.8016
34852SOL    HW2 9368   4.570   3.061   7.153  1.1479 -1.9196  0.8875
34853SOL     OW 9369   9.130   1.324  11.171  0.2525 -0.0587  0.3766
34853SOL    HW1 9370   9.048   1.353  11.132  1.0246  1.1379 -0.4222
34853SOL    HW2 9371   9.195   1.331  11.101  1.1351 -0.5623  1.1092
34854SOL     OW 9372   5.916   1.437   8.604  0.0289  0.2290 -0.4334
34854SOL    HW1 9373   5.981   1.507   8.599  0.3724  0.1542  1.8037
34854SOL    HW2 9374   5.884   1.440   8.694  0.2360 -2.6203 -0.1627
34855SOL     OW 9375   3.899  10.803  12.278 -0.1705 -0.3890  0.1129
34855SOL    HW1 9376   3.814  10.791  12.321  0.7828 -1.6634  1.7727
34855SOL    HW2 9377   3.963  10.785  12.347  1.4644  0.5985 -1.0836
34856SOL     OW 9378   4.758   9.623   2.412 -0.1768 -0.0293 -0.3461
34856SOL    HW1 9379   4.770   9.716   2.394  1.1959  0.1653  1.3293
34856SOL    HW2 9380   4.819   9.579   2.352  0.0464  0.2192 -0.3025
34857SOL     OW 9381  11.687   4.290   4.905  0.6630 -0.1226 -0.6653
34857SOL    HW1 9382  11.717   4.215   4.956 -0.2242  0.0003  0.0720
34857SOL    HW2 9383  11.728   4.366   4.946  0.6901 -0.1120 -0.7124
34858SOL     OW 9384   4.034   0.275   4.770 -0.2396  0.1626  0.2245
34858SOL    HW1 9385   4.119   0.261   4.810  0.5165  1.5736 -0.8426
34858SOL    HW2 9386   3.976   0.298   4.843  1.0086  2.2560  0.6072
34859SOL     OW 9387   3.627   0.470   3.221 -0.4302 -0.1960  0.2118
34859SOL    HW1 9388   3.695   0.408   3.248  2.0034  1.1528 -2.3670
34859SOL    HW2 9389   3.666   0.556   3.235 -3.2926  0.8917  2.5755
34860SOL     OW 9390  10.495  11.253   3.088  0.2648 -0.0760 -0.1135
34860SOL    HW1 9391  10.578  11.250   3.041  0.0898 -0.2472 -0.4181
34860SOL    HW2 9392  10.482  11.164   3.120 -0.4583 -0.4056 -1.2414
34861SOL     OW 9393   1.807  12.220  11.490  0.1814  0.2084  0.1756
34861SOL    HW1 9394   1.897  12.219  11.458  0.0246 -0.2918 -0.2795
34861SOL    HW2 9395   1.759  12.273  11.425  0.0479  0.0222  0.1210
34862SOL     OW 9396   6.664   5.709  12.145  0.2523 -0.3116 -0.1762
34862SOL    HW1 9397   6.574   5.696  12.175  0.2066  1.1073  0.3993
34862SOL    HW2 9398   6.717   5.700  12.225  0.1670  3.1512  0.4232
34863SOL     OW 9399   2.219   8.921  12.058 -0.1879 -0.1576  0.1598
34863SOL    HW1 9400   2.138   8.869  12.054  0.0208 -0.4785 -0.0140
34863SOL    HW2 9401   2.200   8.999  12.006  0.6682 -1.7483 -2.7675
34864SOL     OW 9402   7.504   3.398   0.553  0.3444 -0.6897 -0.5963
34864SOL    HW1 9403   7.485   3.491   0.550 -1.1407 -0.8069  1.8348
34864SOL    HW2 9404   7.418   3.356   0.548  0.7799 -1.7860  0.5409
34865SOL     OW 9405  12.095   7.589   2.458  0.1419 -0.2319 -0.2240
34865SOL    HW1 9406  12.116   7.677   2.428  2.0098 -1.1122 -1.7639
34865SOL    HW2 9407  12.091   7.537   2.377 -0.3458 -1.6622  0.6827
34866SOL     OW 9408   6.325  12.470   2.700  0.1793  0.4168  0.4421
34866SOL    HW1 9409   6.372  12.393   2.669  1.5569  1.6889 -0.7911
34866SOL    HW2 9410   6.306  12.451   2.792  1.2532 -1.0300  0.3970
34867SOL     OW 9411   6.849  12.404   3.047 -0.0595  0.5205 -0.1203
34867SOL    HW1 9412   6.886  12.459   3.116 -0.2479  0.6041 -0.0852
34867SOL    HW2 9413   6.851  12.459   2.968 -1.4484  1.0559  0.1892
34868SOL     OW 9414   9.652  10.716   9.775  0.1030 -0.1667 -0.3677
34868SOL    HW1 9415   9.672  10.730   9.867  2.0666 -1.5468 -0.5274
34868SOL    HW2 9416   9.668  10.623   9.760 -0.7510 -0.0967 -1.9837
34869SOL     OW 9417  12.146   8.263   8.559 -0.0703 -0.1804 -0.7764
34869SOL    HW1 9418  12.219   8.245   8.500  0.0130 -0.5706 -0.5539
34869SOL    HW2 9419  12.158   8.202   8.632 -0.0233  0.4795 -0.2200
34870SOL     OW 9420   6.356   2.027   2.898 -0.2568  0.0218  0.4465
34870SOL    HW1 9421   6.384   2.112   2.863  0.9897 -0.2755  0.7067
34870SOL    HW2 9422   6.262   2.039   2.916 -0.4791  0.8177 -1.0742
34871SOL     OW 9423  11.542   6.579   9.360  1.2399 -0.2399  0.4721
34871SOL    HW1 9424  11.455   6.589   9.398  1.5360 -2.1139  1.7728
34871SOL    HW2 9425  11.532   6.513   9.292  1.5711 -0.2419  0.4211
34872SOL     OW 9426   8.263   5.837   5.318 -0.3246 -0.4376 -0.2563
34872SOL    HW1 9427   8.170   5.815   5.325 -0.7061  1.1213 -0.1817
34872SOL    HW2 9428   8.297   5.774   5.254 -1.3433 -1.2499 -0.0236
34873SOL     OW 9429   3.606   0.403   5.049 -0.1654  0.0413 -0.0573
34873SOL    HW1 9430   3.696   0.435   5.047 -0.0547 -0.3057 -0.6766
34873SOL    HW2 9431   3.599   0.345   4.974 -0.3938 -1.3207  0.9701
34874SOL     OW 9432   9.538   2.337   5.711  0.2296  1.0278  0.3744
34874SOL    HW1 9433   9.468   2.397   5.737 -1.2048 -0.0632 -0.7901
34874SOL    HW2 9434   9.571   2.301   5.793  0.2591  2.4365  1.0149
34875SOL     OW 9435  11.510   5.755  10.041 -0.1159 -0.0451  0.2604
34875SOL    HW1 9436  11.521   5.803   9.959  1.0400  0.5449  0.7385
34875SOL    HW2 9437  11.598   5.725  10.064 -0.2771  0.4776  1.6780
34876SOL     OW 9438   1.000  10.984  11.014 -0.2347  0.1983 -0.0579
34876SOL    HW1 9439   0.988  10.899  10.970 -1.0648  0.2970 -0.0416
34876SOL    HW2 9440   1.058  10.965  11.087  0.8297 -0.0585 -0.9372
34877SOL     OW 9441   0.813   2.466   2.353 -0.2571  0.1422  0.4194
34877SOL    HW1 9442   0.785   2.438   2.266  0.0463  0.1140  0.3306
34877SOL    HW2 9443   0.789   2.393   2.411 -0.6978  0.2705  0.4052
34878SOL     OW 9444   8.281  11.549   0.968 -0.0491 -0.0102  0.4265
34878SOL    HW1 9445   8.204  11.601   0.948 -0.9397 -0.6779  1.9356
34878SOL    HW2 9446   8.251  11.458   0.964  0.7453 -0.2971  0.6702
34879SOL     OW 9447   1.232  10.451   2.873 -0.7847  0.7274 -0.1395
34879SOL    HW1 9448   1.296  10.474   2.941 -0.7981  0.4730 -0.0424
34879SOL    HW2 9449   1.155  10.504   2.894 -0.4865  1.2985 -0.4581
34880SOL     OW 9450   3.750   6.648  10.191 -0.6200 -0.1909 -0.0545
34880SOL    HW1 9451   3.801   6.694  10.124  1.4155 -1.2394  0.6786
34880SOL    HW2 9452   3.784   6.682  10.274 -2.0941  0.0505  0.4674
34881SOL     OW 9453   4.646   2.937   5.908 -0.1370 -0.1073  0.1428
34881SOL    HW1 9454   4.612   2.869   5.849  0.2375 -0.1139 -0.0668
34881SOL    HW2 9455   4.569   2.968   5.955 -0.6993  0.8248 -1.2960
34882SOL     OW 9456  12.440   4.481   9.873  0.0405  0.3547 -0.3679
34882SOL    HW1 9457  12.369   4.440   9.824  1.1870  0.3469 -2.0926
34882SOL    HW2 9458  12.474   4.549   9.815  2.3284 -0.5573 -0.2070
34883SOL     OW 9459   8.837  11.410   8.771 -0.0407 -0.0748  0.3695
34883SOL    HW1 9460   8.802  11.339   8.826  0.3603 -0.3119  0.3222
34883SOL    HW2 9461   8.932  11.402   8.779  0.0182  0.0336 -0.1700
34884SOL     OW 9462   7.900   5.829  11.029  0.2783  0.2123 -0.0651
34884SOL    HW1 9463   7.838   5.807  11.098  0.1486  0.4488 -0.1047
34884SOL    HW2 9464   7.856   5.897  10.978  0.1753 -0.3003 -0.6693
34885SOL     OW 9465   8.158   1.600   6.546  0.3750 -0.1143  0.2956
34885SOL    HW1 9466   8.156   1.694   6.529 -1.0814  0.0386  1.1550
34885SOL    HW2 9467   8.208   1.591   6.627 -0.0544 -0.0150  0.5721
34886SOL     OW 9468  12.260  10.214   1.117  0.2729  0.0761  0.3834
34886SOL    HW1 9469  12.343  10.251   1.145  0.2897  1.2365 -1.0545
34886SOL    HW2 9470  12.284  10.134   1.070  0.5928  0.3636  0.0449
34887SOL     OW 9471   5.421   5.283   2.882  0.0321 -0.0111  0.4542
34887SOL    HW1 9472   5.454   5.193   2.885  0.4527  0.1477  0.6373
34887SOL    HW2 9473   5.340   5.281   2.933 -0.8061 -0.6336 -0.8421
34888SOL     OW 9474   5.601   6.990   2.167 -0.5176  0.3489 -0.0373
34888SOL    HW1 9475   5.579   7.070   2.216 -1.0726  0.2411 -0.1056
34888SOL    HW2 9476   5.517   6.947   2.153 -0.2911  0.0714 -0.5565
34889SOL     OW 9477   7.374   8.550   8.097 -0.1905  0.1087 -0.1953
34889SOL    HW1 9478   7.322   8.548   8.178 -1.3582  0.9129 -0.8960
34889SOL    HW2 9479   7.392   8.458   8.078  0.9312 -0.0576  1.4788
34890SOL     OW 9480   2.403   8.391   5.010 -0.0894 -0.2336 -0.5470
34890SOL    HW1 9481   2.318   8.347   5.008  0.9114 -2.3046 -1.1687
34890SOL    HW2 9482   2.464   8.324   5.041  1.2819  1.2997  0.2457
34891SOL     OW 9483   1.257   7.943   2.813 -0.0898  0.6367 -0.1984
34891SOL    HW1 9484   1.245   7.852   2.840  3.5529 -0.4093 -1.4940
34891SOL    HW2 9485   1.301   7.984   2.887 -0.2658  0.9061 -0.2411
34892SOL     OW 9486   3.537   1.186   0.441 -0.2593 -0.1087  0.3042
34892SOL    HW1 9487   3.621   1.213   0.479  0.4272 -1.2400 -0.3665
34892SOL    HW2 9488   3.485   1.160   0.517 -0.4830  1.7745  0.8495
34893SOL     OW 9489   7.996  10.562  10.694 -0.1483 -0.0735 -0.3102
34893SOL    HW1 9490   7.984  10.610  10.612 -0.6147  1.2962  0.5337
34893SOL    HW2 9491   8.005  10.630  10.761  0.3248 -1.1646  0.7741
34894SOL     OW 9492  11.078   8.723  11.037  0.0913  1.2416 -0.0119
34894SOL    HW1 9493  11.012   8.751  10.974  0.2011  0.7489 -0.3493
34894SOL    HW2 9494  11.144   8.792  11.034 -0.0294  1.3511 -0.2412
34895SOL     OW 9495   7.394   1.108   7.900  0.1802  0.0006 -0.4401
34895SOL    HW1 9496   7.390   1.013   7.905  0.4432 -0.0011 -0.2627
34895SOL    HW2 9497   7.315   1.133   7.851 -1.7916 -0.0566  2.4328
34896SOL     OW 9498   5.726   1.192   9.876  0.3358  0.1955 -0.1064
34896SOL    HW1 9499   5.672   1.271   9.879 -0.3294 -0.2668  0.5733
34896SOL    HW2 9500   5.663   1.120   9.880  0.8579 -0.3985 -1.9673
34897SOL     OW 9501  11.596   9.256   8.546  0.1978 -0.1197 -0.3608
34897SOL    HW1 9502  11.525   9.319   8.552 -0.9584 -1.2316 -1.6696
34897SOL    HW2 9503  11.555   9.175   8.516  1.8291 -1.1528  0.0143
34898SOL     OW 9504   2.451   6.838   3.729  0.2747 -0.4501  0.0165
34898SOL    HW1 9505   2.497   6.812   3.649  2.6468 -1.9780  1.7575
34898SOL    HW2 9506   2.496   6.917   3.758 -0.9217  0.4067 -0.3768
34899SOL     OW 9507  12.010   1.290   0.528  0.7287  0.1948 -0.2799
34899SOL    HW1 9508  12.102   1.278   0.554  0.6039 -1.2093 -0.4362
34899SOL    HW2 9509  11.960   1.242   0.594  0.0269  1.6018  0.2647
34900SOL     OW 9510   1.844   3.885  10.102 -0.2927 -0.0449  0.4414
34900SOL    HW1 9511   1.906   3.949  10.139 -0.8890  0.1471  1.1286
34900SOL    HW2 9512   1.900   3.822  10.057  0.2565  1.7801 -1.6441
34901SOL     OW 9513   2.945   6.573   8.154 -0.0739  0.7362 -0.1647
34901SOL    HW1 9514   3.033   6.552   8.185 -0.1290  0.4579 -0.1975
34901SOL    HW2 9515   2.943   6.669   8.153  1.9114  1.0415 -4.6139
34902SOL     OW 9516   6.603   3.426  10.964 -0.1620 -0.0823 -0.6818
34902SOL    HW1 9517   6.534   3.483  10.929  0.0763 -0.3389 -1.5876
34902SOL    HW2 9518   6.684   3.458  10.925  0.2832  0.3518  0.5475
34903SOL     OW 9519   8.014  11.509   2.290 -0.7735 -0.2540 -0.2755
34903SOL    HW1 9520   7.964  11.428   2.281 -0.3817 -0.3300 -2.2503
34903SOL    HW2 9521   7.949  11.575   2.316 -1.2664 -1.0061  0.4300
34904SOL     OW 9522   5.151   2.738   1.855  0.0542 -0.0446 -0.0395
34904SOL    HW1 9523   5.200   2.784   1.786 -0.9722 -0.0170 -0.7840
34904SOL    HW2 9524   5.059   2.755   1.834 -0.3195 -1.3128  0.4623
34905SOL     OW 9525  11.838   3.456   9.181 -0.4952 -0.1445 -0.8386
34905SOL    HW1 9526  11.845   3.549   9.200  0.5694 -0.2244 -0.7600
34905SOL    HW2 9527  11.928   3.423   9.192 -0.9998 -1.3248 -0.0455
34906SOL     OW 9528   9.969   1.199   7.853 -0.3791  0.6712  0.3513
34906SOL    HW1 9529   9.902   1.195   7.920 -1.4702  2.7938 -0.5296
34906SOL    HW2 9530   9.979   1.292   7.834 -0.3722  0.1626 -2.6347
34907SOL     OW 9531   7.070   3.322  12.426  0.2151  0.2658 -0.7219
34907SOL    HW1 9532   6.993   3.353  12.473  0.9062 -0.0588  0.6612
34907SOL    HW2 9533   7.069   3.371  12.343 -1.9031 -0.3148 -1.1015
34908SOL     OW 9534   6.694   7.645  12.231  0.1330  0.3172  0.0387
34908SOL    HW1 9535   6.775   7.594  12.229  0.8024  1.3287  0.5903
34908SOL    HW2 9536   6.643   7.612  12.158  0.5927 -1.0624  0.3178
34909SOL     OW 9537   9.917   5.700   4.083  0.6075 -0.6443  0.5202
34909SOL    HW1 9538   9.964   5.727   4.161  0.0382  1.8244  0.1147
34909SOL    HW2 9539   9.858   5.773   4.065  0.0356 -1.5656 -1.6627
34910SOL     OW 9540   8.168  11.309   4.304 -0.2023  0.0533 -0.0707
34910SOL    HW1 9541   8.199  11.361   4.379 -0.6079 -0.6778  0.6283
34910SOL    HW2 9542   8.163  11.371   4.232 -1.1570  1.1295  0.8589
34911SOL     OW 9543   0.811   5.247   2.050  0.3321 -0.5559  0.1116
34911SOL    HW1 9544   0.735   5.189   2.046  0.5751 -1.0601  1.9286
34911SOL    HW2 9545   0.861   5.216   2.125  1.7751  0.4594 -0.3848
34912SOL     OW 9546  10.561   2.849   6.184  0.7297  0.2183  0.4254
34912SOL    HW1 9547  10.510   2.874   6.107  0.8303  0.2453  0.3684
34912SOL    HW2 9548  10.590   2.931   6.222  0.8534  0.1977  0.3762
34913SOL     OW 9549   8.919   4.119   0.706 -0.0393 -0.6383 -0.1926
34913SOL    HW1 9550   8.861   4.174   0.759  2.8224  0.8996  1.6217
34913SOL    HW2 9551   8.887   4.130   0.616 -2.2806  0.3770  0.6481
34914SOL     OW 9552   9.798   0.349   9.443  0.0884  0.1864  0.1404
34914SOL    HW1 9553   9.714   0.366   9.487 -0.5067 -0.1942 -0.8196
34914SOL    HW2 9554   9.818   0.258   9.464 -0.3441 -0.0860 -0.5971
34915SOL     OW 9555   5.671   2.289   7.619 -0.0556 -0.0975  0.1504
34915SOL    HW1 9556   5.656   2.304   7.526 -0.4867 -0.0769  0.2222
34915SOL    HW2 9557   5.624   2.360   7.663  0.6494  0.2449  0.3638
34916SOL     OW 9558   2.204  12.404   3.564  0.3304  0.1373 -0.4358
34916SOL    HW1 9559   2.144  12.395   3.638 -0.5176  0.7530 -1.0233
34916SOL    HW2 9560   2.195  12.495   3.537  0.2295 -0.2010 -1.6107
34917SOL     OW 9561   7.064   8.800   4.525 -0.1175 -0.1666  0.1711
34917SOL    HW1 9562   7.095   8.716   4.559 -2.0235 -0.4605  1.3708
34917SOL    HW2 9563   7.130   8.863   4.553  0.2675 -0.9717  1.1482
34918SOL     OW 9564   1.591  12.452  11.307  0.0565 -0.2593  0.4603
34918SOL    HW1 9565   1.648  12.489  11.239  1.9169 -1.0611  1.5375
34918SOL    HW2 9566   1.579  12.361  11.281 -1.4783  0.0922 -0.1953
34919SOL     OW 9567   8.466   4.281   0.258  0.0610  0.0943 -0.6468
34919SOL    HW1 9568   8.446   4.222   0.185  0.6326  0.3375 -1.0053
34919SOL    HW2 9569   8.561   4.287   0.259  0.0102  2.9479 -2.2264
34920SOL     OW 9570   8.201   3.403  11.221  0.7692 -0.1324  0.3763
34920SOL    HW1 9571   8.206   3.498  11.211 -1.2441 -0.1021 -1.0278
34920SOL    HW2 9572   8.272   3.369  11.167  0.1141  0.5423 -0.9484
34921SOL     OW 9573  11.368  10.865   9.980  0.4520 -0.2026 -0.2544
34921SOL    HW1 9574  11.423  10.939  10.005 -1.6160  2.0072 -1.7490
34921SOL    HW2 9575  11.285  10.881  10.026  0.2955 -2.2812  0.2960
34922SOL     OW 9576   9.433   9.130   5.180 -0.5654 -0.7603  0.3725
34922SOL    HW1 9577   9.392   9.180   5.109 -2.7057 -1.6127  0.9216
34922SOL    HW2 9578   9.451   9.196   5.248 -1.0889 -0.3660  0.1372
34923SOL     OW 9579   5.594  11.187   8.957 -0.6341  0.1325 -0.3955
34923SOL    HW1 9580   5.627  11.274   8.979 -0.5253  0.5765 -2.1270
34923SOL    HW2 9581   5.673  11.136   8.936 -0.8152  0.4608 -2.0655
34924SOL     OW 9582   1.962  11.513   7.891 -0.3449  0.1495  0.3061
34924SOL    HW1 9583   2.011  11.497   7.971  0.3606 -0.7705 -0.2901
34924SOL    HW2 9584   2.014  11.578   7.844 -0.0652 -0.2917  0.0010
34925SOL     OW 9585   0.801   8.782   8.323  0.3971 -0.4383 -0.1549
34925SOL    HW1 9586   0.792   8.706   8.266 -3.7763 -1.4688  1.4496
34925SOL    HW2 9587   0.736   8.844   8.291  1.3532  1.0291  0.6275
34926SOL     OW 9588  12.476   4.407   4.470 -0.2833 -0.1566 -0.0823
34926SOL    HW1 9589  12.452   4.489   4.513 -0.6605 -0.7624  0.8951
34926SOL    HW2 9590  12.436   4.414   4.383  0.2280  0.9581 -0.2480
34927SOL     OW 9591   5.076   4.246   0.037  0.2374  0.1468  0.1298
34927SOL    HW1 9592   5.145   4.187   0.068 -0.0430  0.1177  0.7186
34927SOL    HW2 9593   5.120   4.306  -0.023  0.4806 -0.7999 -0.6579
34928SOL     OW 9594   2.430   7.048   7.912 -0.3468 -0.1208 -0.5044
34928SOL    HW1 9595   2.423   7.114   7.980 -0.2385  1.2512 -1.7844
34928SOL    HW2 9596   2.522   7.022   7.912 -0.3656 -0.1980 -0.0924
34929SOL     OW 9597  11.814   9.944  12.139 -0.0340 -0.3836 -0.5309
34929SOL    HW1 9598  11.838   9.988  12.057  0.7485 -2.0427 -1.2395
34929SOL    HW2 9599  11.896   9.936  12.187 -0.4983  0.6049  0.4523
34930SOL     OW 9600   4.837   5.102   7.893 -0.2244 -0.5056  0.3101
34930SOL    HW1 9601   4.806   5.012   7.902 -1.6159  0.1190  2.7763
34930SOL    HW2 9602   4.758   5.152   7.871  0.2342  0.3041  0.4772
34931SOL     OW 9603   0.762  10.489   2.715 -0.3141 -0.1280 -0.1557
34931SOL    HW1 9604   0.798  10.495   2.627  2.4371  0.7389  0.9189
34931SOL    HW2 9605   0.747  10.580   2.741  0.7130 -0.2412  0.9154
34932SOL     OW 9606   4.082   1.487  12.460  0.2147  0.0754  0.0845
34932SOL    HW1 9607   4.170   1.522  12.452  0.0010  0.3767 -1.2126
34932SOL    HW2 9608   4.093   1.392  12.454  0.4406  0.1183 -0.2014
34933SOL     OW 9609  10.419   2.501  11.528  0.0525 -0.1057  0.3364
34933SOL    HW1 9610  10.454   2.496  11.617 -1.1693 -0.8288  0.8043
34933SOL    HW2 9611  10.493   2.530  11.474  1.5280 -2.1163  1.1663
34934SOL     OW 9612  11.191   4.599   2.110 -0.2332  0.0646 -0.2408
34934SOL    HW1 9613  11.262   4.628   2.053  1.2185 -3.5210 -0.5151
34934SOL    HW2 9614  11.154   4.523   2.066 -0.8534 -1.2288  2.3235
34935SOL     OW 9615   2.317   9.195   9.478 -0.3343  0.5819 -0.5506
34935SOL    HW1 9616   2.399   9.159   9.446 -0.8039 -2.2408  1.1043
34935SOL    HW2 9617   2.250   9.133   9.447 -1.5197  1.3786  0.3279
34936SOL     OW 9618  10.500  10.700   7.807 -0.1236 -0.5827 -0.0693
34936SOL    HW1 9619  10.485  10.793   7.786  0.2680 -0.6962 -0.8890
34936SOL    HW2 9620  10.412  10.664   7.817 -0.2704 -0.0279  0.6796
34937SOL     OW 9621   1.586  10.000   1.403 -0.5234 -0.1577 -0.5111
34937SOL    HW1 9622   1.568   9.911   1.374 -1.0862 -0.0289 -0.5757
34937SOL    HW2 9623   1.594  10.051   1.322 -1.1765  0.0282 -0.4684
34938SOL     OW 9624   3.084  10.957  11.024 -0.1929  0.0154  0.5341
34938SOL    HW1 9625   3.172  10.979  10.993 -0.3003  1.4488  1.1663
34938SOL    HW2 9626   3.097  10.931  11.116 -0.1857 -1.8734  0.0459
34939SOL     OW 9627   0.357   5.642   4.387  0.0140  0.0567 -0.3411
34939SOL    HW1 9628   0.435   5.678   4.430 -0.5388  0.5030  0.2925
34939SOL    HW2 9629   0.288   5.706   4.404 -0.2255  0.2483 -1.8972
34940SOL     OW 9630   8.335   0.527  10.923 -0.1007 -0.3381  0.3062
34940SOL    HW1 9631   8.379   0.443  10.907 -1.4364 -1.0648  0.3188
34940SOL    HW2 9632   8.268   0.508  10.988  1.0516  1.2501  2.0494
34941SOL     OW 9633   1.233   0.522   3.281  0.1853  0.2562  0.4526
34941SOL    HW1 9634   1.300   0.459   3.254  0.2206  0.6480 -0.4020
34941SOL    HW2 9635   1.258   0.604   3.238 -1.1646  0.2720 -0.3618
34942SOL     OW 9636   5.150   4.862   4.424 -0.5190  0.4451  0.4675
34942SOL    HW1 9637   5.242   4.864   4.399 -0.6693 -0.7113 -0.2225
34942SOL    HW2 9638   5.148   4.813   4.506 -0.8320 -2.4661 -1.1639
34943SOL     OW 9639   1.187   2.486  12.310 -0.0303 -0.0588 -0.1492
34943SOL    HW1 9640   1.158   2.401  12.344  1.5722 -0.7201 -0.3142
34943SOL    HW2 9641   1.131   2.502  12.234 -0.8202 -0.6259  0.2967
34944SOL     OW 9642   1.324   6.157  12.109  0.1329 -0.8452 -0.3342
34944SOL    HW1 9643   1.306   6.251  12.098  0.5051 -0.4440  1.9908
34944SOL    HW2 9644   1.238   6.116  12.100 -0.3594 -0.0531  0.5892
34945SOL     OW 9645  10.919   0.508   1.338  0.4474 -0.4998 -0.0810
34945SOL    HW1 9646  10.932   0.436   1.400 -1.0980 -0.4908  0.2940
34945SOL    HW2 9647  11.006   0.523   1.300  1.1755 -1.3188  1.1890
34946SOL     OW 9648   5.976   6.013   5.951  0.3417  1.0149  0.4383
34946SOL    HW1 9649   5.990   6.091   5.897 -0.8061  0.8207 -0.1814
34946SOL    HW2 9650   5.885   5.988   5.934  0.5945 -0.2873  0.8577
34947SOL     OW 9651   1.072   9.455   9.809  0.2446  0.6355 -0.6497
34947SOL    HW1 9652   1.055   9.364   9.834  2.3953  0.1957 -0.5883
34947SOL    HW2 9653   1.055   9.506   9.888  0.8103  0.0502 -0.1453
34948SOL     OW 9654   4.088  10.466   9.496  0.2979 -0.8164  0.3227
34948SOL    HW1 9655   4.154  10.534   9.482 -2.2365  1.5993 -0.8393
34948SOL    HW2 9656   4.060  10.478   9.587  0.1084 -0.5250  0.2279
34949SOL     OW 9657   2.892   9.473   0.084  0.0288 -0.5916 -0.0276
34949SOL    HW1 9658   2.956   9.490   0.153 -0.4818 -1.7083  0.7679
34949SOL    HW2 9659   2.856   9.387   0.107 -3.2350  0.8526  0.7413
34950SOL     OW 9660   7.540   7.105   3.957  0.2079  0.3739 -0.5344
34950SOL    HW1 9661   7.496   7.142   4.033 -1.4277 -2.2620 -0.0642
34950SOL    HW2 9662   7.563   7.181   3.903 -0.6428  2.1664  1.4897
34951SOL     OW 9663   9.264   3.241   5.471 -0.0014 -0.0018  0.3797
34951SOL    HW1 9664   9.341   3.211   5.423  0.4409  1.2135  0.3218
34951SOL    HW2 9665   9.219   3.299   5.410 -1.5837 -1.5259 -0.0051
34952SOL     OW 9666   4.517   5.812  12.300 -0.1451  0.3431  0.3905
34952SOL    HW1 9667   4.579   5.751  12.259 -0.5066  1.8859 -2.7628
34952SOL    HW2 9668   4.572   5.870  12.352  0.4149 -1.3846  1.8422
34953SOL     OW 9669   3.647  12.607   9.649 -0.2306 -0.7533  0.6574
34953SOL    HW1 9670   3.735  12.643   9.663 -1.0249  0.3286  3.5798
34953SOL    HW2 9671   3.633  12.614   9.554  1.1143  3.3115  0.5581
34954SOL     OW 9672   0.712   7.195  11.892  0.5917  0.1097 -0.2028
34954SOL    HW1 9673   0.750   7.110  11.915  0.1376  0.1997  0.9391
34954SOL    HW2 9674   0.629   7.197  11.939 -1.6431 -0.7094 -3.7018
34955SOL     OW 9675   2.362   8.980   8.783 -0.5231 -0.1404  0.0134
34955SOL    HW1 9676   2.295   8.984   8.715 -0.1057 -0.6959 -0.4440
34955SOL    HW2 9677   2.320   8.937   8.857 -0.1274 -2.3364 -0.9638
34956SOL     OW 9678   9.316   5.337   7.436  0.4061  0.6777  0.0688
34956SOL    HW1 9679   9.297   5.279   7.510  2.2767  2.8708  2.4630
34956SOL    HW2 9680   9.377   5.288   7.382 -1.9437 -1.4627 -0.8413
34957SOL     OW 9681   7.559  11.348   7.090 -0.4313 -0.1276 -0.0582
34957SOL    HW1 9682   7.552  11.443   7.088  0.0025 -0.0388  1.2994
34957SOL    HW2 9683   7.470  11.316   7.081 -0.6542  0.4308  0.1531
34958SOL     OW 9684   2.937   3.718   5.149 -0.2893  0.2473 -0.1833
34958SOL    HW1 9685   2.852   3.737   5.109 -0.7843  0.2991  0.8637
34958SOL    HW2 9686   2.932   3.759   5.235  1.2197  1.2140 -0.5181
34959SOL     OW 9687  11.685  10.463   7.044 -0.2950 -0.3544  0.2508
34959SOL    HW1 9688  11.624  10.441   7.115 -0.7169  0.8211  0.2700
34959SOL    HW2 9689  11.739  10.533   7.080 -0.2767  0.0066 -0.4584
34960SOL     OW 9690   8.304  11.454   3.015  0.1451 -0.0171 -0.2427
34960SOL    HW1 9691   8.334  11.369   2.983  0.6722 -1.0525  2.7341
34960SOL    HW2 9692   8.381  11.493   3.056 -0.9701  0.1696  1.7963
34961SOL     OW 9693  12.135   8.535   3.583  0.0878 -0.2844 -0.5683
34961SOL    HW1 9694  12.213   8.578   3.619 -0.2001 -0.9027  0.8617
34961SOL    HW2 9695  12.119   8.461   3.642  0.1248 -1.9249 -2.5082
34962SOL     OW 9696   6.980   7.297   2.898 -0.2405  0.0856  0.3380
34962SOL    HW1 9697   6.988   7.392   2.896  0.6042  0.0176 -1.6794
34962SOL    HW2 9698   7.070   7.266   2.908 -0.5304 -0.5281  1.2137
34963SOL     OW 9699   3.844   7.112  11.366 -0.5077  0.0042 -0.2544
34963SOL    HW1 9700   3.873   7.025  11.340 -2.0102 -1.1435  1.6414
34963SOL    HW2 9701   3.917   7.170  11.343 -0.4543 -1.2515 -3.9475
34964SOL     OW 9702   7.529  11.853   4.924 -0.7758  0.0390  0.1402
34964SOL    HW1 9703   7.547  11.778   4.867 -0.3991  0.0742  0.2163
34964SOL    HW2 9704   7.492  11.814   5.003 -0.1317 -0.1041  0.3730
34965SOL     OW 9705   9.411   3.756   9.866 -0.4588  0.7482  0.2638
34965SOL    HW1 9706   9.458   3.725   9.789  0.0801 -0.2811  0.9830
34965SOL    HW2 9707   9.467   3.826   9.902  2.2148 -2.3837  2.7932
34966SOL     OW 9708   7.538   8.990  10.590 -0.3878 -0.8268  0.1468
34966SOL    HW1 9709   7.571   8.906  10.559  0.1365 -0.4533 -0.3334
34966SOL    HW2 9710   7.443   8.981  10.589 -0.3634 -1.1080 -0.8049
34967SOL     OW 9711   2.552  11.329   9.187 -0.4308 -0.4235 -0.1245
34967SOL    HW1 9712   2.534  11.422   9.196  0.2205 -0.2412 -0.6582
34967SOL    HW2 9713   2.634  11.315   9.233 -0.1247 -0.5824 -0.7015
34968SOL     OW 9714   2.431  10.381   4.872 -0.1957  0.0825  0.3218
34968SOL    HW1 9715   2.389  10.466   4.858 -1.0760 -0.2009  1.1677
34968SOL    HW2 9716   2.503  10.379   4.808 -1.0841  0.8342 -0.7319
34969SOL     OW 9717  12.031   2.550   9.836  0.0598  0.3700 -0.4144
34969SOL    HW1 9718  12.032   2.514   9.747  2.3579 -2.4993  0.5625
34969SOL    HW2 9719  12.112   2.516   9.876 -0.6360  1.9093  2.6415
34970SOL     OW 9720   7.243   7.585  11.325 -0.2620 -0.0179  0.5119
34970SOL    HW1 9721   7.265   7.492  11.329  1.3492  0.1538 -2.1326
34970SOL    HW2 9722   7.198   7.603  11.408 -0.8447 -3.1737  0.9756
34971SOL     OW 9723   9.974   3.605   4.137 -0.6954  0.2983 -0.3474
34971SOL    HW1 9724   9.885   3.603   4.172 -0.9994 -1.3733 -1.1651
34971SOL    HW2 9725   9.975   3.681   4.079 -1.6377  0.2438 -0.4484
34972SOL     OW 9726   5.692   0.100   8.533 -0.2106  0.0344  0.4552
34972SOL    HW1 9727   5.634   0.153   8.478 -1.0425  0.2223  1.4929
34972SOL    HW2 9728   5.780   0.130   8.511 -0.5849  0.7225 -0.1272
34973SOL     OW 9729   0.465  10.602   1.793 -0.2785 -0.0152  0.3607
34973SOL    HW1 9730   0.433  10.660   1.863 -0.2156 -1.7373  1.8964
34973SOL    HW2 9731   0.560  10.600   1.805 -0.1530  0.5552 -0.5021
34974SOL     OW 9732   0.695   2.794  12.146  0.1598  0.2221  0.4006
34974SOL    HW1 9733   0.648   2.828  12.222 -1.8291 -0.2633 -0.5459
34974SOL    HW2 9734   0.692   2.699  12.157 -0.8518  0.1211 -0.6706
34975SOL     OW 9735   3.527   6.941   0.323 -0.5366 -0.3348  0.6111
34975SOL    HW1 9736   3.454   6.883   0.344 -0.5843 -0.2547  0.6695
34975SOL    HW2 9737   3.565   6.964   0.408  0.2689 -1.2843  0.5221
34976SOL     OW 9738   3.786  12.077   8.992 -0.3780  0.4021 -0.0170
34976SOL    HW1 9739   3.812  12.013   9.059 -0.2930  1.2850  0.8201
34976SOL    HW2 9740   3.712  12.036   8.948  0.8740 -1.1152 -0.8234
34977SOL     OW 9741   8.728  12.226   3.174  0.5278 -0.2805  0.0924
34977SOL    HW1 9742   8.638  12.211   3.142  1.2693 -2.8443 -1.0777
34977SOL    HW2 9743   8.755  12.142   3.210  2.0366  0.8213  1.6964
34978SOL     OW 9744   5.064   1.169   6.211 -0.5282 -0.2496 -0.2601
34978SOL    HW1 9745   5.076   1.079   6.180  0.1580  0.2004 -1.3402
34978SOL    HW2 9746   5.088   1.165   6.304  0.9440 -0.8961 -0.6407
34979SOL     OW 9747   6.869   3.358   3.561  0.0799  0.8352  0.0331
34979SOL    HW1 9748   6.836   3.280   3.606  2.0132  0.8246  1.5626
34979SOL    HW2 9749   6.923   3.324   3.489 -1.2708  0.8341 -1.0167
34980SOL     OW 9750   0.401   2.585   3.453 -0.6397 -0.4698 -0.2093
34980SOL    HW1 9751   0.331   2.545   3.401  0.4727 -2.4706 -0.2754
34980SOL    HW2 9752   0.366   2.590   3.542 -1.0017 -1.1260 -0.3102
34981SOL     OW 9753  10.875  11.981   4.856  0.1953 -0.4948 -0.0903
34981SOL    HW1 9754  10.792  12.016   4.822 -0.3912 -1.3982  0.3572
34981SOL    HW2 9755  10.924  11.956   4.778 -0.4563 -1.0553 -0.3296
34982SOL     OW 9756   4.366   0.897   4.695  0.3859 -0.5663 -0.5720
34982SOL    HW1 9757   4.337   0.984   4.721 -1.1396 -0.4728 -2.4273
34982SOL    HW2 9758   4.306   0.837   4.739 -0.1072 -0.5487 -1.2022
34983SOL     OW 9759   1.387   0.581  11.823  0.2823  0.1580  0.0280
34983SOL    HW1 9760   1.423   0.500  11.788  0.3870  0.2734 -0.1299
34983SOL    HW2 9761   1.455   0.646  11.808  0.7424  0.0088  1.3432
34984SOL     OW 9762   1.224   1.560   9.378  0.2159 -0.0283 -0.8789
34984SOL    HW1 9763   1.239   1.653   9.391  1.2453 -0.2423 -0.4131
34984SOL    HW2 9764   1.227   1.547   9.283 -1.3279  0.6108 -1.0500
34985SOL     OW 9765   2.329   4.280  10.599  0.0403 -0.6104 -0.0943
34985SOL    HW1 9766   2.281   4.289  10.681  0.9886 -0.8980  0.5164
34985SOL    HW2 9767   2.382   4.360  10.594 -1.5566  0.4302 -1.5147
34986SOL     OW 9768   5.341   5.697   6.704 -0.1617  0.3108  0.4475
34986SOL    HW1 9769   5.363   5.746   6.783  2.8289  1.6400 -1.0674
34986SOL    HW2 9770   5.424   5.687   6.658 -1.9262  0.5419 -3.0578
34987SOL     OW 9771   8.356   2.553  11.197 -0.6157 -0.4931 -0.1015
34987SOL    HW1 9772   8.396   2.640  11.199  1.0203 -1.1583 -1.3636
34987SOL    HW2 9773   8.370   2.518  11.285  0.0511 -0.0367 -0.0149
34988SOL     OW 9774   0.835  10.164   1.760  0.2958 -0.0753  0.5461
34988SOL    HW1 9775   0.745  10.196   1.751  1.1426  2.8052  1.1294
34988SOL    HW2 9776   0.834  10.111   1.840 -1.1023 -1.2223 -0.1767
34989SOL     OW 9777   6.419   1.195  10.153  0.0297  0.1579 -0.6119
34989SOL    HW1 9778   6.430   1.158  10.065 -0.5954 -2.4873  0.3409
34989SOL    HW2 9779   6.502   1.239  10.171  0.6126 -0.2849 -2.0611
34990SOL     OW 9780   5.539   4.373   1.140 -0.1341  0.1055  0.5203
34990SOL    HW1 9781   5.619   4.400   1.186 -0.2125 -1.1356  1.4545
34990SOL    HW2 9782   5.565   4.293   1.095  0.1251  1.6354 -2.2444
34991SOL     OW 9783   6.421   3.208   7.800 -0.2440  0.0972 -0.2636
34991SOL    HW1 9784   6.393   3.122   7.768 -2.3503  0.6266 -0.0125
34991SOL    HW2 9785   6.426   3.262   7.722 -0.6046  0.1650 -0.2421
34992SOL     OW 9786  12.190  11.205   2.438 -0.0305  0.1384  0.0318
34992SOL    HW1 9787  12.172  11.182   2.529 -0.5112  2.0115  0.4684
34992SOL    HW2 9788  12.256  11.275   2.444 -2.1943  2.4078 -0.7947
34993SOL     OW 9789   0.342   4.133   8.679  0.6087 -0.3051  0.1524
34993SOL    HW1 9790   0.318   4.092   8.596  0.4189  0.7335 -0.3128
34993SOL    HW2 9791   0.431   4.165   8.666 -0.0551  1.4462 -0.2784
34994SOL     OW 9792   8.485   6.066   2.703 -0.2267  0.4927  0.1978
34994SOL    HW1 9793   8.445   6.151   2.683  0.2892  0.4362 -1.2553
34994SOL    HW2 9794   8.483   6.060   2.798 -1.3062  1.6286  0.2809
34995SOL     OW 9795   9.388   6.876   2.889  0.3622 -0.2685  0.1298
34995SOL    HW1 9796   9.408   6.877   2.982 -1.1549 -1.5287  0.5246
34995SOL    HW2 9797   9.397   6.784   2.863 -1.6547 -0.3931 -0.3301
34996SOL     OW 9798   3.294   1.318   7.501  0.3647 -0.3116  0.1404
34996SOL    HW1 9799   3.270   1.321   7.409 -0.1688  3.1542  0.2807
34996SOL    HW2 9800   3.377   1.364   7.507  0.4954 -0.6665  1.3573
34997SOL     OW 9801  10.027   2.646   1.156 -0.1110  0.0459  0.3131
34997SOL    HW1 9802   9.999   2.645   1.248 -2.3361  0.9261 -0.2872
34997SOL    HW2 9803  10.032   2.739   1.133 -0.5732 -0.1711 -0.7300
34998SOL     OW 9804   2.460   5.245  11.603 -0.0957 -0.4033 -0.2643
34998SOL    HW1 9805   2.429   5.304  11.534 -2.7512 -0.2232  0.9402
34998SOL    HW2 9806   2.477   5.303  11.678  1.7938 -0.7070 -0.4180
34999SOL     OW 9807   3.075   7.098   7.063  0.4564  0.7680 -0.3605
34999SOL    HW1 9808   3.072   7.162   6.992 -1.3406  0.0671 -0.9789
34999SOL    HW2 9809   3.132   7.138   7.129  2.2284  1.4208 -2.1695
35000SOL     OW 9810   9.857  10.611  12.572 -0.0648 -0.2415 -0.5107
35000SOL    HW1 9811   9.787  10.545  12.571  1.3560 -1.8088 -0.5243
35000SOL    HW2 9812   9.936  10.562  12.592  0.9521  1.6045  0.2648
35001SOL     OW 9813   6.426  12.554   7.848 -0.0093 -0.1957  0.2227
35001SOL    HW1 9814   6.413  12.648   7.832 -1.7825 -0.5603 -0.7571
35001SOL    HW2 9815   6.368  12.511   7.785  1.5743 -1.9968 -0.0913
35002SOL     OW 9816   9.534   3.760   0.195 -0.1861  0.1105  0.8422
35002SOL    HW1 9817   9.523   3.704   0.118  0.9751  0.7208  0.2117
35002SOL    HW2 9818   9.591   3.831   0.166  1.3899 -0.3504  2.6064
35003SOL     OW 9819   0.086   2.238   4.990  0.8449  0.0508  0.5379
35003SOL    HW1 9820   0.049   2.283   4.914  1.9012  1.9292  1.0561
35003SOL    HW2 9821   0.013   2.188   5.027  0.0961 -0.1844 -1.1845
35004SOL     OW 9822   4.532   9.703   1.725  0.5507  0.3517 -0.1353
35004SOL    HW1 9823   4.500   9.636   1.786  3.2968  0.6412  1.7744
35004SOL    HW2 9824   4.495   9.785   1.758  1.2099  0.3747  0.5716
35005SOL     OW 9825   6.961  10.871   5.368 -0.1720  0.0256 -0.6768
35005SOL    HW1 9826   6.892  10.896   5.306 -0.3253  2.5706  0.4011
35005SOL    HW2 9827   6.950  10.932   5.442 -0.7113 -3.5091  2.4574
35006SOL     OW 9828   0.709  10.374   8.004 -0.5748  0.3015  0.4850
35006SOL    HW1 9829   0.746  10.461   8.017  0.3239 -0.0153  0.1034
35006SOL    HW2 9830   0.616  10.384   8.026 -0.3822  1.2372  0.9148
35007SOL     OW 9831   7.086   3.361   5.139 -0.2044  0.3630 -0.6702
35007SOL    HW1 9832   7.136   3.442   5.141  0.8268 -0.2514  0.4895
35007SOL    HW2 9833   7.137   3.300   5.193 -1.4368 -0.7644 -0.7087
35008SOL     OW 9834   4.667   1.935   1.544  0.6398  0.0045  0.1496
35008SOL    HW1 9835   4.577   1.904   1.538  0.9814 -0.8058 -1.8399
35008SOL    HW2 9836   4.672   2.005   1.479  1.6200 -0.4780 -0.3173
35009SOL     OW 9837   6.094   1.526   7.105 -0.0755 -0.2938 -0.0926
35009SOL    HW1 9838   6.092   1.512   7.200  2.6272  1.2376  0.3037
35009SOL    HW2 9839   6.013   1.572   7.086 -0.3238  0.0461  1.6246
35010SOL     OW 9840   1.202  12.201   8.298  0.3299 -0.5359 -0.6805
35010SOL    HW1 9841   1.135  12.240   8.242 -1.0392 -1.9360 -0.0821
35010SOL    HW2 9842   1.162  12.197   8.385  1.6550 -0.2947 -0.0300
35011SOL     OW 9843   3.263   1.401   7.220 -0.4424 -0.2705 -0.5518
35011SOL    HW1 9844   3.345   1.447   7.201  0.1401 -0.2995  1.6388
35011SOL    HW2 9845   3.195   1.457   7.181  0.4210  1.3306  0.1411
35012SOL     OW 9846   8.246   8.005   1.657 -0.0171  0.3851  0.0783
35012SOL    HW1 9847   8.159   8.035   1.632  0.3059 -0.3070 -2.1022
35012SOL    HW2 9848   8.305   8.051   1.597  0.7799 -1.7754 -0.9040
35013SOL     OW 9849  11.498   3.281   8.021 -0.1313  0.1703  0.3559
35013SOL    HW1 9850  11.426   3.244   8.073 -1.4298 -0.2188 -1.6118
35013SOL    HW2 9851  11.577   3.260   8.071 -1.2850 -0.3680  2.0404
35014SOL     OW 9852   3.984   6.880   3.084  0.1245 -0.0756  0.5279
35014SOL    HW1 9853   3.889   6.870   3.088  0.1689 -0.2733  1.4348
35014SOL    HW2 9854   4.017   6.791   3.069  0.2369 -0.3733  2.2725
35015SOL     OW 9855   4.936   1.866   1.424 -0.2163 -0.2152  0.5633
35015SOL    HW1 9856   4.987   1.826   1.495  0.1724 -1.3405 -0.3136
35015SOL    HW2 9857   4.849   1.826   1.432  0.0586 -0.9656 -0.0683
35016SOL     OW 9858   3.882  12.308  12.494 -0.4772  0.0477 -0.2989
35016SOL    HW1 9859   3.961  12.254  12.502 -0.4841 -0.3396 -2.2958
35016SOL    HW2 9860   3.840  12.303  12.580  1.8978  0.6691  0.9686
35017SOL     OW 9861  11.466   7.390  10.366  0.2410  0.1426  0.1455
35017SOL    HW1 9862  11.552   7.433  10.368 -0.9390  2.8294 -1.4389
35017SOL    HW2 9863  11.448   7.378  10.273 -0.3197 -2.2110  0.5030
35018SOL     OW 9864   6.033   9.831   9.468  0.0950  0.7389  0.0199
35018SOL    HW1 9865   6.103   9.803   9.526  1.1666  1.2045 -1.0196
35018SOL    HW2 9866   6.011   9.920   9.498 -0.4075  0.4151  0.6485
35019SOL     OW 9867   0.044   8.751   3.733  0.2568  0.1966 -0.5077
35019SOL    HW1 9868  -0.005   8.779   3.656  3.1077  3.2278 -1.4493
35019SOL    HW2 9869   0.064   8.659   3.716 -1.1900  0.1519 -2.2360
35020SOL     OW 9870  10.320  10.591   1.014 -0.5334 -0.7572  0.0571
35020SOL    HW1 9871  10.294  10.508   1.053 -0.8808 -0.1322  1.1877
35020SOL    HW2 9872  10.388  10.567   0.951 -1.3876 -2.0177 -0.4380
35021SOL     OW 9873   6.278   5.712   1.767 -0.2390 -0.3182 -0.0874
35021SOL    HW1 9874   6.206   5.669   1.721  0.5269 -0.3960 -1.2584
35021SOL    HW2 9875   6.333   5.748   1.697 -0.3784  1.8111  0.8338
35022SOL     OW 9876   7.157   3.231   3.101 -0.0468  0.3253  0.3216
35022SOL    HW1 9877   7.148   3.209   3.193 -1.5172  0.5922  0.2582
35022SOL    HW2 9878   7.225   3.171   3.069  0.7776  0.5128  1.6472
35023SOL     OW 9879   2.321   3.279   3.374  0.3358 -0.1981 -0.4156
35023SOL    HW1 9880   2.311   3.331   3.294 -1.9490  0.1329  0.0174
35023SOL    HW2 9881   2.368   3.337   3.434 -0.6695  0.7464 -0.5076
35024SOL     OW 9882   1.582   8.506  12.191 -0.2513  0.4321 -0.1700
35024SOL    HW1 9883   1.657   8.532  12.137  0.7727 -1.0662  0.4440
35024SOL    HW2 9884   1.579   8.571  12.261  0.4378  0.5483 -0.2373
35025SOL     OW 9885   6.620   3.745   0.723 -0.0561 -0.3536  0.1917
35025SOL    HW1 9886   6.534   3.765   0.686 -0.9513  0.2957  2.4395
35025SOL    HW2 9887   6.674   3.821   0.700 -0.2269 -0.5097 -0.7585
35026SOL     OW 9888   8.685   1.858   1.848  0.3493  0.3341 -0.0421
35026SOL    HW1 9889   8.718   1.921   1.784 -0.5602  1.0548  0.1908
35026SOL    HW2 9890   8.747   1.863   1.921  1.3818 -0.4770 -0.8227
35027SOL     OW 9891   5.984  10.722   3.528  0.3942 -0.2763  0.0442
35027SOL    HW1 9892   5.950  10.794   3.580 -1.0631 -0.3276 -0.7716
35027SOL    HW2 9893   5.930  10.721   3.449  1.7439 -0.9538 -0.9322
35028SOL     OW 9894   0.978   2.461   0.707  0.2110  0.0640 -0.7258
35028SOL    HW1 9895   1.053   2.518   0.727  0.8493 -0.0626 -2.5466
35028SOL    HW2 9896   0.902   2.516   0.725  0.7668  0.6456 -0.0737
35029SOL     OW 9897   6.847   7.888  10.421  0.2923  0.4410 -0.4205
35029SOL    HW1 9898   6.939   7.902  10.401  0.0680  1.7205 -0.6122
35029SOL    HW2 9899   6.837   7.793  10.422  1.8891  0.2397  0.9022
35030SOL     OW 9900   2.949   0.872   0.984  0.8733 -0.3684 -0.3181
35030SOL    HW1 9901   2.872   0.876   0.927 -0.5445  3.1948  1.5705
35030SOL    HW2 9902   2.922   0.814   1.055 -0.3765  1.2412  0.5895
35031SOL     OW 9903  11.729   3.720   1.227 -0.3619 -0.1471  0.7311
35031SOL    HW1 9904  11.784   3.734   1.151 -0.2153  0.8239  0.9904
35031SOL    HW2 9905  11.713   3.809   1.261 -0.1653 -0.5733  2.0001
35032SOL     OW 9906   5.221   7.567   0.664 -0.1344  0.0537  0.2367
35032SOL    HW1 9907   5.127   7.556   0.680  0.2687 -0.7013  2.3999
35032SOL    HW2 9908   5.249   7.483   0.629  0.1086 -0.5243  1.7538
35033SOL     OW 9909   1.639   7.164   9.508  0.1468  0.0034 -0.5920
35033SOL    HW1 9910   1.564   7.157   9.567 -0.0302 -0.7739 -0.8978
35033SOL    HW2 9911   1.671   7.253   9.520  0.4188 -0.2876  1.0495
35034SOL     OW 9912   2.429  12.065   2.826 -0.3541 -0.1521 -0.5522
35034SOL    HW1 9913   2.432  12.149   2.872  0.1669  0.0364 -0.9291
35034SOL    HW2 9914   2.340  12.062   2.789 -0.5057  0.0524 -0.2139
35035SOL     OW 9915   4.062   7.425   2.105  1.0357 -0.5984  0.1139
35035SOL    HW1 9916   3.997   7.493   2.124  0.4388 -1.0069 -0.4087
35035SOL    HW2 9917   4.128   7.470   2.052  1.2375 -0.1570  0.7285
35036SOL     OW 9918   6.689   4.027   9.521  0.0847  0.0478 -0.1065
35036SOL    HW1 9919   6.678   4.082   9.598 -0.9105  1.2146 -1.0446
35036SOL    HW2 9920   6.629   4.064   9.456  0.3760 -1.3342 -1.2150
35037SOL     OW 9921  12.074   8.728   1.405  0.0144 -0.8172  0.2556
35037SOL    HW1 9922  12.104   8.722   1.315 -1.8585 -1.8350 -0.3372
35037SOL    HW2 9923  12.155   8.722   1.457  0.9958 -1.7251 -1.2934
35038SOL     OW 9924   8.303   2.827   3.254 -0.3389  0.2775 -0.1073
35038SOL    HW1 9925   8.370   2.843   3.320 -0.5600  0.4336  0.0810
35038SOL    HW2 9926   8.248   2.905   3.257  2.0570  2.3593 -3.4412
35039SOL     OW 9927   2.765   4.675   8.251 -0.8258 -0.0757 -0.0352
35039SOL    HW1 9928   2.716   4.728   8.188  0.0689  0.4746 -0.2932
35039SOL    HW2 9929   2.849   4.658   8.207 -0.3092  0.0590  0.8853
35040SOL     OW 9930   0.560   5.754  11.546 -0.2833  0.2566 -0.2606
35040SOL    HW1 9931   0.487   5.805  11.582 -0.3719  0.0725 -0.1789
35040SOL    HW2 9932   0.575   5.792  11.459  0.4989  1.2738  0.2955
35041SOL     OW 9933   9.614   5.815   5.052  0.5715 -0.5063 -0.3494
35041SOL    HW1 9934   9.693   5.807   5.106  0.4256  0.8123  0.0780
35041SOL    HW2 9935   9.567   5.733   5.068 -0.1387  0.3775  2.6503
35042SOL     OW 9936  10.577   6.217   2.962 -0.5387  0.6596 -0.6539
35042SOL    HW1 9937  10.661   6.261   2.955 -0.1150  0.3282  1.5722
35042SOL    HW2 9938  10.599   6.125   2.978 -1.1450  0.9984  2.8687
35043SOL     OW 9939   6.433  12.310   7.381 -0.0749  0.5569 -0.3396
35043SOL    HW1 9940   6.504  12.255   7.414 -1.9733 -0.4739  2.3287
35043SOL    HW2 9941   6.379  12.250   7.329 -0.6464  0.5889  0.2166
35044SOL     OW 9942   3.854   1.035   8.314 -0.0340 -0.0532 -0.2782
35044SOL    HW1 9943   3.849   1.106   8.378  0.0323  0.4777 -0.8503
35044SOL    HW2 9944   3.938   0.993   8.332 -0.2035 -0.1670  0.2535
35045SOL     OW 9945  11.612   9.808   6.019  0.0887 -0.2987 -0.0250
35045SOL    HW1 9946  11.667   9.882   6.049 -0.1506  0.2555 -0.9174
35045SOL    HW2 9947  11.528   9.848   5.998 -0.0151 -0.8129 -0.6058
35046SOL     OW 9948   2.068   9.053   0.820 -0.0417  0.6375 -0.4026
35046SOL    HW1 9949   2.016   9.083   0.746 -0.8781  0.5198  0.1270
35046SOL    HW2 9950   2.036   9.104   0.894 -1.0025 -1.0104  0.3799
35047SOL     OW 9951   8.915   5.266  11.351  0.1008 -0.3418 -0.5599
35047SOL    HW1 9952   8.936   5.358  11.368  0.4797 -0.1037 -2.1776
35047SOL    HW2 9953   8.840   5.269  11.292 -1.6231 -1.1394  1.4726
35048SOL     OW 9954  12.075   6.945   5.492  0.4846  0.5860 -0.3313
35048SOL    HW1 9955  12.062   7.001   5.416 -0.2445  0.9845  0.0731
35048SOL    HW2 9956  12.144   6.988   5.542  1.3453  0.0418 -1.0106
35049SOL     OW 9957   5.720   1.253   7.161 -0.3914 -0.3863  0.7392
35049SOL    HW1 9958   5.647   1.274   7.103 -1.0298 -1.2690  1.1961
35049SOL    HW2 9959   5.708   1.160   7.181  1.8786 -1.0692 -0.6333
35050SOL     OW 9960  11.533   1.721   4.069 -0.2350  0.1106 -0.2929
35050SOL    HW1 9961  11.454   1.667   4.058 -0.5547  0.5130  0.0064
35050SOL    HW2 9962  11.523   1.759   4.156  0.6557 -0.4319  0.0489
35051SOL     OW 9963   8.124   1.129   7.099  0.0657  0.4225  0.1899
35051SOL    HW1 9964   8.192   1.136   7.166 -0.4538  0.8323  0.6814
35051SOL    HW2 9965   8.171   1.148   7.017  0.4967  0.9531  0.5493
35052SOL     OW 9966   0.088   9.542   6.266 -0.2461  0.5260 -0.2849
35052SOL    HW1 9967   0.029   9.510   6.334 -0.3196 -0.9827 -0.9999
35052SOL    HW2 9968   0.171   9.559   6.311 -0.0388 -1.2611  0.0717
35053SOL     OW 9969   5.410   0.351   7.910 -0.2920  0.0117 -0.0564
35053SOL    HW1 9970   5.410   0.366   8.004 -2.3596  0.3986 -0.0749
35053SOL    HW2 9971   5.390   0.437   7.872 -2.9623 -0.7689 -0.6258
35054SOL     OW 9972   9.062  11.719   7.993  0.0518  0.1677  0.5266
35054SOL    HW1 9973   9.120  11.648   7.963 -2.3841 -1.9348  0.4808
35054SOL    HW2 9974   9.103  11.799   7.960  1.1653 -1.4714 -2.4335
35055SOL     OW 9975  10.250  12.409   3.993  0.3724 -0.0217 -0.3482
35055SOL    HW1 9976  10.273  12.498   3.970  0.6785  0.1994  0.7475
35055SOL    HW2 9977  10.214  12.371   3.913  2.0611  0.4586 -1.3788
35056SOL     OW 9978  12.509  11.441   2.994  0.2962  0.1332  0.1079
35056SOL    HW1 9979  12.532  11.366   2.938  2.4047  0.3746  0.5641
35056SOL    HW2 9980  12.414  11.450   2.984  0.0617 -2.2216 -0.4232
35057SOL     OW 9981   0.269   4.861  10.369 -0.4270  0.1709  0.2652
35057SOL    HW1 9982   0.243   4.782  10.416 -1.2296  0.6457  0.6353
35057SOL    HW2 9983   0.255   4.841  10.277 -1.1091  0.0552  0.3950
35058SOL     OW 9984  12.133  10.227   8.275 -0.7050  0.1157 -0.0222
35058SOL    HW1 9985  12.046  10.197   8.247 -0.1982 -1.7775  0.2593
35058SOL    HW2 9986  12.146  10.185   8.360 -0.1086  1.6015  0.6502
35059SOL     OW 9987   1.877   3.406   4.916  0.7358 -0.3861 -0.2000
35059SOL    HW1 9988   1.941   3.475   4.898 -1.0299  1.0789 -1.2370
35059SOL    HW2 9989   1.930   3.331   4.945  2.8612  0.8463 -0.6645
35060SOL     OW 9990  12.335   6.780   3.352  0.3598 -0.8343 -0.3561
35060SOL    HW1 9991  12.337   6.841   3.279 -2.0377 -0.4642 -0.1860
35060SOL    HW2 9992  12.243   6.753   3.359  0.1918  0.1201  3.2662
35061SOL     OW 9993   1.712   8.984  12.068  0.0302 -0.2950 -0.2841
35061SOL    HW1 9994   1.708   8.930  11.990 -3.3006 -1.0361  0.2350
35061SOL    HW2 9995   1.627   9.028  12.071  0.3257  0.2733  2.5118
35062SOL     OW 9996   6.951   5.100   6.379 -0.8728 -0.4948  0.7264
35062SOL    HW1 9997   6.973   5.015   6.417  0.5539 -0.3178  0.3670
35062SOL    HW2 9998   6.996   5.163   6.435  1.3902 -0.2331 -1.2209
35063SOL     OW 9999   3.150   1.234  11.539  0.0360  0.0139  0.3320
35063SOL    HW110000   3.193   1.148  11.542 -0.1492 -0.0753  0.4793
35063SOL    HW210001   3.213   1.291  11.496  0.3910 -0.0620  0.7540
35064SOL     OW10002   0.938   5.692   7.960 -0.6696  0.4579  0.3369
35064SOL    HW110003   0.952   5.610   7.912  1.5282  0.6915  0.4525
35064SOL    HW210004   1.015   5.745   7.939 -0.3591  1.1637  2.9137
35065SOL     OW10005   0.583   9.667   9.682 -0.2204 -0.0147 -0.2780
35065SOL    HW110006   0.665   9.698   9.643 -0.2041  0.2024 -0.0762
35065SOL    HW210007   0.522   9.739   9.667 -0.8357 -0.8317 -1.8898
35066SOL     OW10008   3.552  11.245  10.935 -0.5520 -0.4898 -0.0212
35066SOL    HW110009   3.618  11.201  10.989  0.6460  0.0557 -0.9884
35066SOL    HW210010   3.568  11.211  10.846 -1.9651 -0.7869 -0.1724
35067SOL     OW10011   5.884   4.278   4.174 -0.1087 -0.2817 -0.5389
35067SOL    HW110012   5.822   4.234   4.117 -0.7617  0.7473 -0.6420
35067SOL    HW210013   5.903   4.214   4.243 -0.6955 -0.8698 -0.9110
35068SOL     OW10014  12.533   9.967  12.127  0.5045  0.1179 -0.4740
35068SOL    HW110015  12.612   9.921  12.153  0.1230 -0.7759 -0.8415
35068SOL    HW210016  12.462   9.922  12.174  0.0675 -0.0514 -1.2635
35069SOL     OW10017   9.565  12.142   9.867 -0.2869 -0.0821 -0.2942
35069SOL    HW110018   9.471  12.154   9.859  0.0578  2.3732 -1.6617
35069SOL    HW210019   9.588  12.190   9.947 -0.0877 -0.1145 -0.3321
35070SOL     OW10020   3.194   3.870   7.138 -0.5250 -0.2072  0.2367
35070SOL    HW110021   3.271   3.852   7.191  0.5133  0.8591 -0.8401
35070SOL    HW210022   3.220   3.942   7.080 -1.9253 -0.6386 -1.0099
35071SOL     OW10023   7.180   7.841   0.773 -0.0460  0.0142  0.9170
35071SOL    HW110024   7.165   7.891   0.693 -0.6439 -2.5784 -0.7115
35071SOL    HW210025   7.273   7.820   0.772 -0.0957 -0.2009  0.7863
35072SOL     OW10026  11.543   6.023   6.346  0.1022  0.3724  0.3853
35072SOL    HW110027  11.627   6.064   6.327 -1.0327  1.7833 -2.0392
35072SOL    HW210028  11.555   5.931   6.320  0.6836  0.7375 -0.7020
35073SOL     OW10029   2.799   2.052   4.518  0.5563 -0.2038 -0.0295
35073SOL    HW110030   2.839   1.993   4.454  0.5991 -1.2028  0.8819
35073SOL    HW210031   2.844   2.032   4.600 -0.3547  0.1390  0.5756
35074SOL     OW10032  10.607  10.144   6.419 -0.1163 -0.7061  0.4960
35074SOL    HW110033  10.576  10.132   6.508 -1.1359 -2.5806 -0.0739
35074SOL    HW210034  10.573  10.069   6.370  2.1257 -0.8467 -1.0344
35075SOL     OW10035   5.912  11.384  11.147  0.0579 -0.9125 -0.0008
35075SOL    HW110036   5.966  11.405  11.223  0.4436  1.1978 -0.8007
35075SOL    HW210037   5.974  11.364  11.077 -0.1662  0.2314 -0.5640
35076SOL     OW10038   9.833   5.646   6.930 -0.7628 -0.6492 -0.4331
35076SOL    HW110039   9.826   5.554   6.906 -1.2189 -0.7591  0.0933
35076SOL    HW210040   9.755   5.687   6.892  0.1200 -0.1972 -1.8408
35077SOL     OW10041   4.004   5.528   4.756  0.3849 -0.0968  0.5955
35077SOL    HW110042   3.968   5.465   4.694  0.1657  2.2026 -1.8195
35077SOL    HW210043   4.093   5.496   4.774 -0.0521 -1.5890  0.2330
35078SOL     OW10044   5.666   7.300   3.114 -0.3285  0.3997 -0.0367
35078SOL    HW110045   5.656   7.393   3.137 -2.6306  0.6485 -1.6490
35078SOL    HW210046   5.639   7.296   3.022 -0.5466 -1.9037  0.0850
35079SOL     OW10047  11.865   0.164   2.661 -0.1641  0.8164 -0.0426
35079SOL    HW110048  11.850   0.073   2.635 -2.8194  1.2396 -0.2161
35079SOL    HW210049  11.959   0.177   2.649  0.2470 -1.8226 -0.2286
35080SOL     OW10050  10.183   2.360   6.516 -0.4836  0.0103 -0.3225
35080SOL    HW110051  10.147   2.290   6.461 -0.2093  0.2228 -0.7868
35080SOL    HW210052  10.224   2.420   6.453 -1.2688  0.9187  0.0032
35081SOL     OW10053   5.507   2.772   4.704  0.0546 -0.2114 -0.1828
35081SOL    HW110054   5.492   2.680   4.722 -0.7493  0.0098  0.3010
35081SOL    HW210055   5.568   2.800   4.772 -0.2876 -0.2058  0.1221
35082SOL     OW10056   8.980   5.998   2.391 -0.5733  0.0400 -0.0874
35082SOL    HW110057   9.029   6.037   2.318  1.8549  0.9555  1.8718
35082SOL    HW210058   8.992   5.904   2.381 -0.8624  0.1105 -1.2173
35083SOL     OW10059  11.323   8.477   5.685  0.0439  0.2537  0.0735
35083SOL    HW110060  11.247   8.470   5.742  1.1603 -2.4981  1.4444
35083SOL    HW210061  11.389   8.522   5.739  0.6297 -1.0333  0.4774
35084SOL     OW10062   0.111   6.417   4.070 -0.3553  0.2689  0.2727
35084SOL    HW110063   0.128   6.333   4.027  0.6069  0.7560 -0.3402
35084SOL    HW210064   0.196   6.460   4.071 -0.6307  0.8253  1.5010
35085SOL     OW10065   0.599   8.494  12.005 -0.4062 -0.2146 -0.1814
35085SOL    HW110066   0.556   8.414  12.034 -2.9574  0.6808 -1.2831
35085SOL    HW210067   0.551   8.564  12.049  2.2290  0.8127  1.3532
35086SOL     OW10068  12.117   6.179   1.804  0.2391  0.4030 -0.0637
35086SOL    HW110069  12.123   6.253   1.744  0.0766  0.4845  0.0201
35086SOL    HW210070  12.207   6.149   1.815  0.8764  2.9237  2.8932
35087SOL     OW10071   1.028   9.525  10.241  0.7200 -0.3472  0.1826
35087SOL    HW110072   1.064   9.579  10.311  1.3819 -1.5970  0.8261
35087SOL    HW210073   1.092   9.455  10.228  0.1021 -0.7295 -0.9494
35088SOL     OW10074   5.717  10.779  11.286  0.2885  0.0300 -0.0783
35088SOL    HW110075   5.724  10.729  11.205 -1.6543 -1.5324  0.6398
35088SOL    HW210076   5.770  10.731  11.349 -1.8095 -1.4573  0.6891
35089SOL     OW10077   1.516   8.268   5.796 -0.2071 -0.1224 -0.2733
35089SOL    HW110078   1.600   8.300   5.763 -0.6751  0.3988 -0.9960
35089SOL    HW210079   1.487   8.205   5.731 -0.3361 -0.3680  0.0192
35090SOL     OW10080   8.312   2.475  12.277  0.2427 -0.3549 -0.0147
35090SOL    HW110081   8.355   2.545  12.327 -0.0921  0.6539 -1.1082
35090SOL    HW210082   8.365   2.397  12.294  0.2905  0.0062  1.6925
35091SOL     OW10083  10.864   5.375   7.009  0.3253  0.0990 -0.3402
35091SOL    HW110084  10.907   5.460   7.011 -0.3714  0.5084 -1.6788
35091SOL    HW210085  10.894   5.335   6.927 -1.5434  0.2509 -1.1361
35092SOL     OW10086   8.973   1.602   4.311  0.4551 -0.0637 -0.0907
35092SOL    HW110087   9.056   1.623   4.355 -0.5160  0.3792  1.6048
35092SOL    HW210088   9.000   1.554   4.233  2.4628  2.2001 -0.9375
35093SOL     OW10089   5.035   9.974   7.607  0.4701 -0.0511 -0.8511
35093SOL    HW110090   4.970   9.936   7.548  0.3954  1.4011 -1.7540
35093SOL    HW210091   5.078  10.042   7.555  2.0753 -0.3398  0.0175
35094SOL     OW10092  12.106   7.670   9.441  0.1809 -0.0758  0.1792
35094SOL    HW110093  12.140   7.754   9.470 -0.5551  0.8835 -1.5941
35094SOL    HW210094  12.143   7.658   9.353 -4.5159  1.5276 -2.3502
35095SOL     OW10095   7.740   6.847   9.522 -0.1977  0.0734 -0.6419
35095SOL    HW110096   7.714   6.816   9.609  1.9274  0.9350  0.3585
35095SOL    HW210097   7.751   6.768   9.470 -0.5212 -0.5128  0.1602
35096SOL     OW10098   9.896   6.266  11.108 -0.1531  0.4346 -0.2893
35096SOL    HW110099   9.953   6.227  11.174  0.1922  2.8581  0.9494
35096SOL    HW210100   9.944   6.255  11.026  0.1545 -1.2038  0.0701
35097SOL     OW10101   1.629   4.675  11.533  0.3542  0.8081 -0.3102
35097SOL    HW110102   1.676   4.647  11.454 -1.8264 -0.6958 -1.1818
35097SOL    HW210103   1.585   4.756  11.508  1.5528  1.6395  0.1736
35098SOL     OW10104   2.421  11.608   9.643 -0.6131 -0.3757  0.6153
35098SOL    HW110105   2.486  11.604   9.714 -1.4646 -1.1036  1.3889
35098SOL    HW210106   2.427  11.522   9.601 -0.6869 -0.2413  0.3285
35099SOL     OW10107   8.173   1.800   3.905  0.0383 -0.0934 -0.1205
35099SOL    HW110108   8.214   1.726   3.861  1.0087  0.3007  0.1039
35099SOL    HW210109   8.191   1.875   3.849  0.7772  0.3082  0.6270
35100SOL     OW10110   3.007   3.148   0.484  0.0077 -0.1613  0.4038
35100SOL    HW110111   3.094   3.125   0.450 -0.2478 -1.8261  0.7579
35100SOL    HW210112   2.949   3.140   0.408 -0.1021 -0.8608  0.5564
35101SOL     OW10113  11.581  12.072   1.814 -0.1309 -0.0055  0.5424
35101SOL    HW110114  11.590  11.980   1.841 -0.6766  0.1276  1.1969
35101SOL    HW210115  11.656  12.087   1.757 -0.4991 -1.1052 -0.2672
35102SOL     OW10116   3.452  12.173   8.406 -0.2800 -0.6042 -0.1138
35102SOL    HW110117   3.392  12.114   8.452 -0.6628 -1.1999 -1.3461
35102SOL    HW210118   3.401  12.253   8.392 -1.9951 -2.1353 -3.8614
35103SOL     OW10119   0.484   6.900   4.391  0.0360  0.8515  0.3663
35103SOL    HW110120   0.477   6.975   4.449 -1.9065  1.0132  0.0097
35103SOL    HW210121   0.526   6.933   4.312 -0.8632  1.5997  0.1896
35104SOL     OW10122   2.113   2.098   4.108  0.2292 -0.4137  0.1199
35104SOL    HW110123   2.084   2.095   4.017 -0.7677  0.4958  0.3843
35104SOL    HW210124   2.164   2.018   4.120  1.5490  0.1102 -1.6069
35105SOL     OW10125  10.038   1.168  12.031 -0.4200  0.2460  0.4386
35105SOL    HW110126  10.117   1.215  12.059  0.0468  0.2036 -0.7448
35105SOL    HW210127  10.057   1.076  12.049  0.4794  0.0510 -1.2819
35106SOL     OW10128   3.372  10.031   6.482  0.8009  0.1674  0.0508
35106SOL    HW110129   3.346  10.120   6.458  2.3346  0.6559  0.1019
35106SOL    HW210130   3.393   9.988   6.399  2.7084  0.7504  0.1863
35107SOL     OW10131   5.503   8.994   5.606  0.2075  0.3660 -0.1691
35107SOL    HW110132   5.593   9.006   5.574  0.7630 -1.4516  0.6039
35107SOL    HW210133   5.461   8.941   5.538  0.7857 -1.7480  1.0434
35108SOL     OW10134   3.745   7.759   8.855 -0.4425 -0.2464  1.0678
35108SOL    HW110135   3.824   7.807   8.878 -1.1000  1.4856 -0.1053
35108SOL    HW210136   3.776   7.679   8.812  0.6627  0.5466  0.3556
35109SOL     OW10137   8.369   6.562   4.415  0.1465 -0.5470 -0.0556
35109SOL    HW110138   8.315   6.496   4.373  0.8431 -0.8567 -0.4841
35109SOL    HW210139   8.452   6.561   4.366  0.9199 -0.7957  1.2054
35110SOL     OW10140   3.824   1.684   5.964  0.0715 -0.2000 -0.3781
35110SOL    HW110141   3.881   1.608   5.976 -0.1291 -0.3454 -0.3559
35110SOL    HW210142   3.815   1.722   6.052  1.7953  1.0207 -0.6623
35111SOL     OW10143  11.430   0.200  12.208  0.6015  0.2920  0.5502
35111SOL    HW110144  11.481   0.190  12.288  2.9766  0.6252 -0.8165
35111SOL    HW210145  11.463   0.132  12.150  0.3002  1.2281 -0.7748
35112SOL     OW10146  11.858   0.867   3.707 -0.4018  0.1710 -0.2555
35112SOL    HW110147  11.841   0.786   3.755  1.0171 -0.3251 -0.5590
35112SOL    HW210148  11.858   0.935   3.775 -1.1478 -0.1304  0.0580
35113SOL     OW10149   3.935   2.850   0.979  0.8325  0.2315  0.9252
35113SOL    HW110150   3.982   2.828   0.898  0.3141 -0.2003  0.7323
35113SOL    HW210151   3.980   2.801   1.047  2.2392  1.7728  1.1783
35114SOL     OW10152   2.654   2.397   2.137 -0.0702  0.0293  0.2620
35114SOL    HW110153   2.627   2.489   2.145  1.1827  0.6961 -2.1422
35114SOL    HW210154   2.600   2.362   2.067  0.8322 -0.4622 -0.2063
35115SOL     OW10155   2.653  10.160  11.990  0.1385  0.3773 -0.5392
35115SOL    HW110156   2.620  10.211  11.916  0.9241  2.3899  0.4097
35115SOL    HW210157   2.747  10.176  11.990  0.3564 -0.8313  0.0035
35116SOL     OW10158   9.389   7.338   8.417  0.6189  0.2709 -0.8716
35116SOL    HW110159   9.471   7.296   8.442  0.3312  1.3594  2.3414
35116SOL    HW210160   9.324   7.268   8.419  0.6804  0.1918  1.4289
35117SOL     OW10161  10.426   0.621   4.391 -0.0120 -0.4703  0.1536
35117SOL    HW110162  10.440   0.548   4.452  0.5103  0.1357  0.7723
35117SOL    HW210163  10.490   0.606   4.321 -1.9426 -2.2819 -1.3486
35118SOL     OW10164   2.085   0.243   8.033 -0.8874 -0.4842 -0.0892
35118SOL    HW110165   2.065   0.173   7.971 -0.9564  0.3933 -1.0911
35118SOL    HW210166   2.171   0.276   8.005 -1.1027  0.1881  0.0034
35119SOL     OW10167   3.646   7.182  11.863 -0.2180  0.4501  0.0380
35119SOL    HW110168   3.574   7.195  11.801  0.8882  0.7413 -1.2333
35119SOL    HW210169   3.681   7.270  11.878 -0.9295  0.4877  1.6971
35120SOL     OW10170   3.179   6.638  10.590  0.3137  0.0568 -0.2572
35120SOL    HW110171   3.094   6.595  10.579 -0.1171  0.7301  0.3352
35120SOL    HW210172   3.170   6.689  10.670  1.0340  0.7329 -0.5936
35121SOL     OW10173  11.224  12.612   2.043  0.3571 -0.3991 -0.5396
35121SOL    HW110174  11.265  12.595   1.958  0.8377 -1.4388 -0.1102
35121SOL    HW210175  11.141  12.654   2.021  1.2540  0.9691 -1.4589
35122SOL     OW10176   2.097   1.733   4.225  0.2794  0.2333  0.0380
35122SOL    HW110177   2.013   1.777   4.210  0.3696  0.0724 -1.0511
35122SOL    HW210178   2.162   1.789   4.183  0.7132  0.3242  0.8239
35123SOL     OW10179   9.190   5.917  10.761 -0.5165  0.4752 -0.3290
35123SOL    HW110180   9.254   5.964  10.813 -2.3569  0.5594  2.0611
35123SOL    HW210181   9.194   5.827  10.793 -0.8593  0.2524 -0.8912
35124SOL     OW10182   4.117   6.099   6.697  0.2207  0.0470  0.2975
35124SOL    HW110183   4.047   6.113   6.761  0.1821  1.1012  0.0403
35124SOL    HW210184   4.168   6.027   6.733 -1.6368 -1.5394 -0.0408
35125SOL     OW10185   7.607   3.903   9.749  0.2256  0.1278  0.5938
35125SOL    HW110186   7.528   3.906   9.695 -0.3025 -2.4935  1.0762
35125SOL    HW210187   7.679   3.902   9.686 -0.1723  1.0832  0.0989
35126SOL     OW10188  10.069   5.119   4.973 -0.5270 -0.1123 -1.0266
35126SOL    HW110189  10.083   5.055   4.903  0.4092 -1.0532 -0.0343
35126SOL    HW210190  10.085   5.070   5.053  2.2572  1.7949 -0.2596
35127SOL     OW10191   7.131   9.721   9.379  0.1738 -0.1582  0.1835
35127SOL    HW110192   7.133   9.789   9.446  1.2715 -0.7352  0.7678
35127SOL    HW210193   7.086   9.648   9.421  0.9130 -0.5395  0.3265
35128SOL     OW10194   8.026   8.815   8.544  0.3977  0.0937  0.5772
35128SOL    HW110195   7.939   8.781   8.523  0.8696 -0.8134  0.0382
35128SOL    HW210196   8.049   8.870   8.469  1.5788 -2.1897 -0.8619
35129SOL     OW10197   5.134   5.749   7.794 -0.1586  0.1856 -0.6977
35129SOL    HW110198   5.110   5.796   7.714 -2.3121 -0.6467 -0.5929
35129SOL    HW210199   5.172   5.667   7.763 -0.0478  0.2912 -0.8504
35130SOL     OW10200   4.204  10.949   9.378 -0.0476  0.3453 -0.1343
35130SOL    HW110201   4.207  10.901   9.295  1.3966  0.7420 -0.3270
35130SOL    HW210202   4.196  11.041   9.352  1.0494  0.5280  0.1358
35131SOL     OW10203   5.462   9.464   9.693  0.5410 -0.1424 -0.2941
35131SOL    HW110204   5.452   9.485   9.600  0.1066 -0.4775 -0.3263
35131SOL    HW210205   5.488   9.372   9.693 -0.5951 -0.4738 -0.0453
35132SOL     OW10206   5.850   4.159  11.305  0.3128 -0.3153 -0.7615
35132SOL    HW110207   5.915   4.136  11.371 -0.0074 -0.5103 -0.5129
35132SOL    HW210208   5.784   4.090  11.311  0.7336 -0.8443 -1.9066
35133SOL     OW10209   1.954   2.982   5.948  0.4157  0.0012  0.1935
35133SOL    HW110210   1.953   3.074   5.921  1.6584 -0.5604 -1.9955
35133SOL    HW210211   1.913   2.935   5.876  0.5565 -1.2624  0.9012
35134SOL     OW10212   6.813   8.956  12.584 -0.1266 -0.0247  0.1429
35134SOL    HW110213   6.750   8.884  12.588 -0.8016  0.3986 -1.6739
35134SOL    HW210214   6.811   8.984  12.492  1.1331  1.4161  0.5148
35135SOL     OW10215   6.198  11.848   5.830 -0.2951 -0.2609 -0.4660
35135SOL    HW110216   6.177  11.882   5.917  0.5067 -0.4752 -0.1773
35135SOL    HW210217   6.278  11.895   5.805 -0.3086 -0.4784 -0.9189
35136SOL     OW10218  10.917   3.784   7.480  0.6766  0.7721 -0.1344
35136SOL    HW110219  10.893   3.747   7.395  1.6132  1.5352 -0.7558
35136SOL    HW210220  11.009   3.761   7.491  0.3067 -0.2046  1.1699
35137SOL     OW10221   7.683   2.339   4.410 -0.2458  0.3803 -0.4821
35137SOL    HW110222   7.634   2.260   4.385  0.0214  0.2653 -0.6397
35137SOL    HW210223   7.772   2.323   4.379  0.5362 -0.4946  2.0366
35138SOL     OW10224  10.447   8.426  12.399 -0.8959  0.2197  0.2441
35138SOL    HW110225  10.386   8.364  12.439 -1.4575  1.5649  1.5729
35138SOL    HW210226  10.508   8.371  12.349 -1.6762 -1.3495  0.9425
35139SOL     OW10227   3.494   2.558   3.700 -0.0052  0.0235  0.2834
35139SOL    HW110228   3.511   2.605   3.618 -0.5553  0.9301  0.6664
35139SOL    HW210229   3.478   2.468   3.674  2.0657 -0.2059 -0.4022
35140SOL     OW10230   0.544   9.342   4.564 -0.0291  0.0051 -0.0893
35140SOL    HW110231   0.452   9.360   4.545 -0.9306 -1.4415  2.4810
35140SOL    HW210232   0.580   9.312   4.480 -1.6921  1.1421 -1.2851
35141SOL     OW10233   4.107   4.417   7.431  0.3945  0.6666  0.3811
35141SOL    HW110234   4.184   4.410   7.374 -0.7260 -0.2753 -1.1270
35141SOL    HW210235   4.090   4.511   7.437  1.8852  0.9163  1.1004
35142SOL     OW10236   5.414   7.259   6.249 -0.0776 -0.0587  0.4880
35142SOL    HW110237   5.432   7.168   6.226 -1.9716 -0.5483  0.7239
35142SOL    HW210238   5.500   7.302   6.251  0.7346 -1.5288 -0.8820
35143SOL     OW10239   6.360   4.162   2.553  0.2067  0.3411 -0.3653
35143SOL    HW110240   6.443   4.140   2.596 -0.9903  1.4307  2.7637
35143SOL    HW210241   6.332   4.244   2.594 -1.2692  1.3352 -3.0965
35144SOL     OW10242   5.925  12.495   0.808  0.2744 -0.0257  0.1298
35144SOL    HW110243   5.889  12.459   0.726 -1.2634 -0.1007  0.8045
35144SOL    HW210244   5.923  12.422   0.869 -1.4110  0.7338  1.0645
35145SOL     OW10245   0.307   2.107   4.201  0.3124  0.0009 -0.4030
35145SOL    HW110246   0.297   2.150   4.286  2.2671 -0.3461  0.0565
35145SOL    HW210247   0.338   2.176   4.142  0.6929 -0.1385 -0.3721
35146SOL     OW10248   8.047   8.321   9.605 -0.3115  0.3786  0.0978
35146SOL    HW110249   8.104   8.249   9.577 -0.4139  0.2409  0.2408
35146SOL    HW210250   7.962   8.300   9.568 -0.8007 -0.5405  1.6639
35147SOL     OW10251   3.718   7.504   8.279  0.3286 -0.5148  0.4215
35147SOL    HW110252   3.768   7.547   8.348  1.1934  0.6865 -0.8967
35147SOL    HW210253   3.765   7.422   8.264  1.4003  0.1848 -0.1679
35148SOL     OW10254   0.759   7.610  10.011  0.7543  0.0403 -0.8843
35148SOL    HW110255   0.686   7.661   9.977 -1.0835  1.2835  4.2008
35148SOL    HW210256   0.734   7.519   9.996 -0.2603  0.4753 -1.9801
35149SOL     OW10257   1.046  10.467  10.579 -0.5301  0.1534 -0.1577
35149SOL    HW110258   0.957  10.459  10.615 -0.5455 -0.4299 -0.3236
35149SOL    HW210259   1.070  10.558  10.596 -1.1424  0.3029 -0.0665
35150SOL     OW10260   3.083   1.471   5.572  0.3412 -0.3677 -0.5483
35150SOL    HW110261   3.171   1.465   5.535  0.2540  1.1757 -1.0761
35150SOL    HW210262   3.095   1.459   5.666  1.1820  0.2992 -0.5636
35151SOL     OW10263   5.132   1.114   7.214 -0.3108 -0.1951  0.3960
35151SOL    HW110264   5.166   1.046   7.272 -1.8925 -0.1386  1.4668
35151SOL    HW210265   5.083   1.172   7.272  1.3176  2.1234 -0.4274
35152SOL     OW10266   9.821   2.489  11.446 -0.2920 -0.2089 -0.8952
35152SOL    HW110267   9.867   2.525  11.522 -1.2235 -1.9366  0.5854
35152SOL    HW210268   9.831   2.555  11.378  3.9850 -0.2978 -0.6109
35153SOL     OW10269   9.463   0.300   1.951 -0.2869 -0.2086 -0.3600
35153SOL    HW110270   9.488   0.215   1.986 -2.3431  0.2590  2.6857
35153SOL    HW210271   9.368   0.292   1.935 -0.2146  1.0457 -1.6388
35154SOL     OW10272  10.655   5.661   9.560  0.8108 -0.4736  0.2586
35154SOL    HW110273  10.589   5.714   9.605  1.1676 -1.1654  1.6451
35154SOL    HW210274  10.603   5.600   9.507  0.3930  0.8551 -0.9349
35155SOL     OW10275   4.924   6.465   7.359 -0.2174  0.2071 -0.4748
35155SOL    HW110276   4.893   6.384   7.398 -0.7325  0.3027 -0.6733
35155SOL    HW210277   4.951   6.519   7.433 -0.9176  0.2770 -0.2597
35156SOL     OW10278   6.979  11.377  10.642  0.5283 -0.3000  0.0489
35156SOL    HW110279   7.043  11.309  10.664 -3.4503 -4.5904 -0.1739
35156SOL    HW210280   6.959  11.419  10.726  1.4145 -1.0024  0.6250
35157SOL     OW10281   8.126   9.746   8.803 -0.1658  0.7317 -0.2777
35157SOL    HW110282   8.126   9.752   8.899  1.1349  2.4434 -0.3526
35157SOL    HW210283   8.155   9.656   8.785 -3.0317 -0.5602  0.8969
35158SOL     OW10284   0.390   7.639  12.495  0.2040  0.1099  0.3733
35158SOL    HW110285   0.392   7.728  12.459 -0.0167  0.0071  0.1023
35158SOL    HW210286   0.364   7.651  12.586  0.7491  0.3712  0.4941
35159SOL     OW10287  10.790   0.706   9.971 -0.0361  0.1505 -0.1443
35159SOL    HW110288  10.881   0.692   9.996  0.1294 -0.8759 -1.2622
35159SOL    HW210289  10.763   0.784  10.021  1.6966  0.9951 -0.4563
35160SOL     OW10290  12.096   3.150   3.897 -0.0649 -0.2962  0.2891
35160SOL    HW110291  12.136   3.157   3.984 -1.2921 -0.1723  0.8664
35160SOL    HW210292  12.007   3.118   3.914  0.0420 -1.3864 -1.0197
35161SOL     OW10293   4.137  12.285  10.327  0.4523  0.6778 -0.2698
35161SOL    HW110294   4.175  12.227  10.261  0.2080 -0.4050  0.4989
35161SOL    HW210295   4.042  12.271  10.320  0.4889 -1.7846  2.2262
35162SOL     OW10296   7.556   0.013  10.066  0.6239 -0.1795  0.0857
35162SOL    HW110297   7.648  -0.009  10.081  0.4400 -0.9800  0.0712
35162SOL    HW210298   7.509  -0.069  10.078 -0.2085  0.4038  1.0343
35163SOL     OW10299  12.370   1.760   4.798 -0.4359  0.5871  0.8073
35163SOL    HW110300  12.361   1.853   4.775 -0.1825  0.1887 -0.9743
35163SOL    HW210301  12.463   1.741   4.785 -0.4629  0.0912  1.2984
35164SOL     OW10302   3.744   6.429  12.180 -0.6157  0.1794 -0.3550
35164SOL    HW110303   3.763   6.341  12.213 -0.2085  0.8701  1.3411
35164SOL    HW210304   3.826   6.456  12.137 -1.1516 -0.7245 -2.0628
35165SOL     OW10305   6.737   5.301   7.361 -0.1147 -0.1332 -0.2778
35165SOL    HW110306   6.678   5.371   7.333  0.7410  0.1125 -1.5055
35165SOL    HW210307   6.822   5.343   7.372  0.2075 -0.8052 -0.1252
35166SOL     OW10308   1.742   0.324   0.050 -0.0650 -0.1621  0.0334
35166SOL    HW110309   1.696   0.273   0.117  0.6533 -0.7781  0.0863
35166SOL    HW210310   1.770   0.403   0.096  1.1800 -0.9701  0.7391
35167SOL     OW10311   5.231   9.455  11.851  0.2100  0.3069  0.1986
35167SOL    HW110312   5.228   9.397  11.775 -3.4640  0.7895 -0.2213
35167SOL    HW210313   5.323   9.456  11.877  0.9880 -2.9197 -1.8512
35168SOL     OW10314   9.042   4.719   1.535 -0.1450 -0.0882 -0.0750
35168SOL    HW110315   9.071   4.663   1.607  0.4163  1.9720  1.3956
35168SOL    HW210316   9.122   4.752   1.495 -0.4568 -1.0075 -1.5284
35169SOL     OW10317  11.370   0.504   4.270  0.2374 -0.0579  0.0551
35169SOL    HW110318  11.412   0.581   4.232 -2.5131  1.2599 -0.6037
35169SOL    HW210319  11.356   0.527   4.362 -0.6623  0.3117 -0.1615
35170SOL     OW10320   9.357   3.090   6.054 -0.3580 -0.0963  0.1884
35170SOL    HW110321   9.391   3.171   6.091 -1.2470 -0.0245  0.8799
35170SOL    HW210322   9.308   3.118   5.977  1.9799 -0.2985 -1.4768
35171SOL     OW10323   9.134   4.904  11.530  0.7215 -0.0193 -0.0529
35171SOL    HW110324   9.212   4.865  11.570  0.4956 -0.5386 -0.1078
35171SOL    HW210325   9.098   4.963  11.597 -1.8977 -3.7272  2.1840
35172SOL     OW10326   6.549   3.278  10.203 -0.1277  0.1679  0.5241
35172SOL    HW110327   6.468   3.249  10.244  0.6855 -3.2784  0.0495
35172SOL    HW210328   6.522   3.324  10.124 -1.6027  0.9137  1.4352
35173SOL     OW10329   2.995  10.898   4.413 -0.0053 -0.3293  0.4255
35173SOL    HW110330   2.928  10.871   4.351  2.0022 -4.2854 -0.3223
35173SOL    HW210331   2.983  10.841   4.489  3.7513 -2.9745 -0.7015
35174SOL     OW10332   4.944  10.465   5.340 -0.3159 -0.6151  0.4963
35174SOL    HW110333   4.904  10.550   5.358 -3.1903 -1.5362 -0.9454
35174SOL    HW210334   5.010  10.483   5.273 -0.9594  0.4542  0.1323
35175SOL     OW10335  12.055   8.935  12.156 -0.0567 -0.4110  0.0778
35175SOL    HW110336  12.051   8.933  12.060  0.6640 -0.3855  0.0414
35175SOL    HW210337  12.039   8.845  12.182 -0.7047 -0.3359 -0.0451
35176SOL     OW10338   6.070  12.284   2.772 -0.1575 -0.3373 -0.4776
35176SOL    HW110339   6.145  12.226   2.760 -0.5570 -0.7956 -0.8389
35176SOL    HW210340   6.001  12.227   2.807 -0.4075  0.0237 -0.3785
35177SOL     OW10341   1.761   8.400   5.735  0.0814  0.6064  0.2663
35177SOL    HW110342   1.779   8.494   5.734  0.4880  0.5448 -1.7495
35177SOL    HW210343   1.821   8.364   5.670 -1.0461 -0.8736  0.0101
35178SOL     OW10344   1.480   7.248  10.802 -0.1138  0.6396  0.6134
35178SOL    HW110345   1.415   7.306  10.763 -1.0144  0.2020  1.4412
35178SOL    HW210346   1.429   7.183  10.850  0.8733 -0.7811 -0.1857
35179SOL     OW10347   1.112   3.691   4.452  0.3387 -0.1932 -0.0052
35179SOL    HW110348   1.157   3.774   4.439  0.5185 -0.1806  0.6916
35179SOL    HW210349   1.126   3.670   4.544 -1.7913  0.2481  0.4715
35180SOL     OW10350  10.930   9.187   7.202 -0.0068  0.4997 -0.4226
35180SOL    HW110351  10.968   9.099   7.199 -1.8281 -0.2964 -1.1081
35180SOL    HW210352  10.915   9.210   7.110 -2.2301  0.2913 -0.1440
35181SOL     OW10353   3.054   2.596   2.686  0.0480 -0.3581  0.5919
35181SOL    HW110354   3.035   2.688   2.706  0.0426 -0.1246 -0.4511
35181SOL    HW210355   2.968   2.553   2.692  0.1628 -0.4528  1.8178
35182SOL     OW10356   0.698  10.749   2.786  0.5746 -0.3318 -0.4511
35182SOL    HW110357   0.634  10.806   2.830  1.4450 -0.4511  1.0504
35182SOL    HW210358   0.779  10.801   2.784  0.4078 -0.0729 -2.5800
35183SOL     OW10359   6.431   7.535   3.006  0.0268  0.3102  0.6611
35183SOL    HW110360   6.483   7.611   3.030  0.9028 -0.6843  2.0127
35183SOL    HW210361   6.455   7.468   3.070 -0.4860 -1.2044 -0.6725
35184SOL     OW10362   3.964   0.773   0.328 -0.1943  0.4670  0.5169
35184SOL    HW110363   4.056   0.800   0.322  0.5770 -1.9404  0.3723
35184SOL    HW210364   3.935   0.766   0.237 -0.5072  1.1384  0.5605
35185SOL     OW10365  11.696   9.476   0.684 -0.1207 -0.0608 -0.4127
35185SOL    HW110366  11.768   9.425   0.721 -0.3669 -0.6789 -0.7465
35185SOL    HW210367  11.647   9.412   0.632  0.1991  0.7592 -1.7704
35186SOL     OW10368   0.680  10.689   4.575 -0.6464  0.2064  0.2874
35186SOL    HW110369   0.644  10.744   4.645 -0.1196  0.2638  0.5114
35186SOL    HW210370   0.624  10.612   4.575  0.6275 -0.8003  2.2244
35187SOL     OW10371   1.513  12.179  11.263 -0.2772  0.3405 -0.0817
35187SOL    HW110372   1.494  12.140  11.349 -1.0830 -1.8637 -1.1791
35187SOL    HW210373   1.427  12.189  11.223  0.1269  1.0063 -0.7975
35188SOL     OW10374   8.495   4.792   2.873 -0.0051 -0.4055  0.6791
35188SOL    HW110375   8.441   4.846   2.931  1.1567 -0.2794  1.6790
35188SOL    HW210376   8.452   4.707   2.873 -1.4181  0.2579 -0.2877
35189SOL     OW10377   0.518   3.464   7.776  0.1637  0.4224  0.2592
35189SOL    HW110378   0.460   3.493   7.706  1.9774 -0.3544 -1.6657
35189SOL    HW210379   0.600   3.511   7.761  1.0476 -0.8216  1.0039
35190SOL     OW10380  11.759  12.603  12.424 -0.0799  0.1709  0.2542
35190SOL    HW110381  11.738  12.563  12.509  1.0195  2.0323  1.4646
35190SOL    HW210382  11.762  12.529  12.363  0.5938 -1.4305  2.1217
35191SOL     OW10383  11.575   7.454   4.253  0.1366  1.0904 -0.4099
35191SOL    HW110384  11.535   7.527   4.206  1.7057  1.8800 -0.6188
35191SOL    HW210385  11.557   7.472   4.345 -1.2126  0.6330 -0.5674
35192SOL     OW10386   9.914   1.455   2.112 -0.1747 -0.2461 -0.7051
35192SOL    HW110387   9.997   1.491   2.081 -0.6639  0.8133 -0.8253
35192SOL    HW210388   9.922   1.456   2.207  0.8011 -2.2429 -0.7149
35193SOL     OW10389   2.998  11.158   3.067  0.4966 -0.1962 -0.1652
35193SOL    HW110390   2.906  11.140   3.048  0.6490 -1.8356  0.4879
35193SOL    HW210391   3.038  11.072   3.075  1.4858  0.4140  2.3750
35194SOL     OW10392  11.601   2.400   3.359  0.5476  0.5819  1.0726
35194SOL    HW110393  11.617   2.346   3.282  0.7247  0.9507  0.8455
35194SOL    HW210394  11.539   2.350   3.412  0.5190  0.2744  0.7472
35195SOL     OW10395   7.817  10.696  12.155  0.6144  0.5424 -0.9155
35195SOL    HW110396   7.834  10.744  12.073  1.5084 -1.0236 -1.6960
35195SOL    HW210397   7.795  10.607  12.127  0.3483  0.1256  0.5307
35196SOL     OW10398   4.861   2.166   9.700 -0.0539 -0.0222  0.0879
35196SOL    HW110399   4.897   2.217   9.628  1.6992 -0.3177  0.7074
35196SOL    HW210400   4.922   2.093   9.710 -1.0600 -0.7763  0.9479
35197SOL     OW10401   8.393   7.798   9.666 -0.3520  0.5246  0.0341
35197SOL    HW110402   8.471   7.816   9.718  0.1900 -1.8186  0.1389
35197SOL    HW210403   8.409   7.842   9.582  1.3950 -0.4468 -0.1702
35198SOL     OW10404   2.954   5.926   4.173 -0.2709 -0.3129  0.2723
35198SOL    HW110405   3.003   5.857   4.217  0.5339  0.2509  0.2870
35198SOL    HW210406   2.869   5.887   4.154  0.6923 -1.8841 -1.1722
35199SOL     OW10407   2.560  11.168   7.916 -0.1941 -0.4722  0.1217
35199SOL    HW110408   2.587  11.160   7.824  1.3136  2.4075  0.2196
35199SOL    HW210409   2.643  11.168   7.965 -0.8034  0.9959  1.1844
35200SOL     OW10410   5.398   3.267  11.062  0.6960 -0.1856  0.3341
35200SOL    HW110411   5.407   3.355  11.027 -0.3888  0.3001  1.1947
35200SOL    HW210412   5.362   3.216  10.990  0.0990  0.3947  0.2075
35201SOL     OW10413   7.080   1.663   6.822 -0.5476  0.3661  0.2630
35201SOL    HW110414   7.073   1.570   6.801  1.5090  0.6796 -2.3661
35201SOL    HW210415   7.024   1.706   6.758  1.5509  1.0816 -1.1937
35202SOL     OW10416   4.388  11.594   1.627  0.7238  0.3234  0.0740
35202SOL    HW110417   4.424  11.512   1.661 -0.3075  0.7222  2.3320
35202SOL    HW210418   4.366  11.575   1.536  2.3540 -1.2659 -0.0382
35203SOL     OW10419   1.218   1.571   2.827  0.0928  0.0186 -0.1696
35203SOL    HW110420   1.204   1.596   2.918  0.9037 -0.2346  0.0390
35203SOL    HW210421   1.153   1.621   2.777  0.1412  0.7345  0.4763
35204SOL     OW10422   3.577  10.352   2.140  0.8748  0.0798  0.6791
35204SOL    HW110423   3.590  10.296   2.216 -0.8235 -1.4297 -0.0434
35204SOL    HW210424   3.482  10.350   2.125  1.1238  0.5973 -1.2545
35205SOL     OW10425  12.320   5.730   7.729  0.3210  0.1150 -0.3052
35205SOL    HW110426  12.366   5.814   7.726  0.9011 -0.1873  0.0480
35205SOL    HW210427  12.337   5.696   7.817 -1.7372  0.6356  0.3558
35206SOL     OW10428  10.751   2.371   2.727  0.4293 -0.4493 -0.1981
35206SOL    HW110429  10.777   2.435   2.793 -0.1750 -0.5386  0.1277
35206SOL    HW210430  10.724   2.424   2.652 -0.5000 -0.2959  0.2293
35207SOL     OW10431   4.576   0.484   5.505 -0.0676 -0.2590  0.4029
35207SOL    HW110432   4.571   0.443   5.591 -0.2006  1.1839  1.1181
35207SOL    HW210433   4.517   0.559   5.511  0.3055  0.1452 -0.7749
35208SOL     OW10434   4.749   6.886   9.183 -0.1032  0.0663  0.3034
35208SOL    HW110435   4.732   6.792   9.192  0.9296 -0.2866 -1.0680
35208SOL    HW210436   4.804   6.908   9.258 -1.7848 -0.0093  1.6084
35209SOL     OW10437  12.475   2.062   0.240  0.1731 -0.5439  0.0060
35209SOL    HW110438  12.398   2.063   0.184 -0.0937  1.0099  0.3518
35209SOL    HW210439  12.502   1.970   0.242 -2.1886 -1.3164  0.5782
35210SOL     OW10440  12.121   8.134  11.268  0.2712 -0.2540 -0.1820
35210SOL    HW110441  12.179   8.152  11.194  0.3565  2.2045  0.4038
35210SOL    HW210442  12.168   8.168  11.344 -1.1855  0.2206  0.5458
35211SOL     OW10443   1.942  10.598   9.641  0.7120 -0.4619 -0.5139
35211SOL    HW110444   1.939  10.517   9.692  1.2373  0.2832  0.7521
35211SOL    HW210445   2.012  10.583   9.577  1.7240 -0.5490  0.5696
35212SOL     OW10446   0.727   3.741   1.942 -0.3134 -0.5937  0.5189
35212SOL    HW110447   0.739   3.685   1.865  2.0925 -1.0296  1.1406
35212SOL    HW210448   0.657   3.801   1.916  0.4962 -0.6119 -2.0819
35213SOL     OW10449   8.236  12.545  10.357  0.1846  0.1299  0.1092
35213SOL    HW110450   8.292  12.582  10.289  0.6363  1.4321  1.1567
35213SOL    HW210451   8.179  12.484  10.310  1.5492 -0.2110 -1.1912
35214SOL     OW10452   4.179   7.461   1.227  0.0074 -0.3877 -0.3587
35214SOL    HW110453   4.085   7.456   1.210  0.0565  0.2365 -0.8462
35214SOL    HW210454   4.192   7.407   1.305 -0.3814 -2.5050 -1.6705
35215SOL     OW10455   3.010   2.936   7.007 -0.2606 -0.1738 -0.0347
35215SOL    HW110456   3.076   2.907   6.944 -0.2916  0.2839 -0.2824
35215SOL    HW210457   3.057   2.998   7.064 -0.4830  0.1828 -0.2364
35216SOL     OW10458   3.720  11.525   0.691  0.0760  0.2270  0.2795
35216SOL    HW110459   3.746  11.598   0.635 -0.3858 -0.6925 -1.2026
35216SOL    HW210460   3.692  11.457   0.629 -0.2573 -0.9100  1.6403
35217SOL     OW10461   6.888   5.708   3.108  0.2711  0.3234 -0.2969
35217SOL    HW110462   6.865   5.738   3.021 -2.6333  1.1363  0.6191
35217SOL    HW210463   6.904   5.788   3.158  0.3744 -0.0467  0.2771
35218SOL     OW10464  10.766   5.771   9.074 -0.1573  0.0878  0.5827
35218SOL    HW110465  10.782   5.822   8.994 -0.2602  0.6197  0.8940
35218SOL    HW210466  10.841   5.712   9.080 -0.3355 -0.2187 -0.1058
35219SOL     OW10467  10.340   0.673   9.876 -0.2755  0.0299 -0.8908
35219SOL    HW110468  10.254   0.673   9.834 -0.5768  1.2338 -0.3240
35219SOL    HW210469  10.383   0.752   9.842 -0.5121  1.0202  0.9457
35220SOL     OW10470   7.056  11.744   2.066  0.5791 -0.2026  0.6849
35220SOL    HW110471   6.967  11.767   2.039  0.2384 -1.0196  1.0781
35220SOL    HW210472   7.110  11.815   2.032  0.0959 -0.8673 -1.6467
35221SOL     OW10473   5.070  12.226  12.518  0.2909  0.5786  0.4657
35221SOL    HW110474   5.082  12.317  12.542 -0.6286  0.6846  0.5661
35221SOL    HW210475   4.994  12.197  12.569 -0.2565  0.1493 -0.5584
35222SOL     OW10476   6.833   3.068   7.230  0.0797 -0.2628 -0.3127
35222SOL    HW110477   6.897   3.132   7.264 -0.3961 -0.3832  0.8612
35222SOL    HW210478   6.750   3.115   7.231 -0.1948 -0.7526  0.1195
35223SOL     OW10479   0.418   9.424   1.129  0.2615  0.0498  0.7424
35223SOL    HW110480   0.388   9.433   1.038 -2.0151 -0.0022  1.4088
35223SOL    HW210481   0.478   9.497   1.142  1.9347 -0.8690 -1.2337
35224SOL     OW10482   8.571   2.463   1.541 -0.1706  0.5788 -0.2813
35224SOL    HW110483   8.570   2.376   1.500  0.1404  0.8517 -0.8815
35224SOL    HW210484   8.498   2.461   1.603  0.2680 -0.3635  0.2369
35225SOL     OW10485   4.799   6.340   4.017  0.1838  0.2167  0.2737
35225SOL    HW110486   4.757   6.341   4.103  0.1644  0.1560  0.2648
35225SOL    HW210487   4.869   6.276   4.026  1.3626  1.5259  0.8132
35226SOL     OW10488   0.200   9.304   8.262 -0.3824  0.3145  0.1299
35226SOL    HW110489   0.125   9.283   8.318 -0.2236 -1.8056 -0.3556
35226SOL    HW210490   0.226   9.219   8.224  1.4223  1.2057 -0.7552
35227SOL     OW10491   4.483  10.988   2.539 -0.8726  0.1980  0.2809
35227SOL    HW110492   4.541  10.930   2.489 -1.3509  0.1602 -0.2369
35227SOL    HW210493   4.536  11.015   2.615  0.5448  1.7489 -1.1770
35228SOL     OW10494   9.285   5.073  12.296 -0.2276  0.4719 -0.4029
35228SOL    HW110495   9.334   5.146  12.257  0.4490  0.9053  1.1706
35228SOL    HW210496   9.345   4.998  12.290  0.7534  1.0098  1.5536
35229SOL     OW10497  11.978   7.816   9.836  0.2638 -0.1776  0.1718
35229SOL    HW110498  11.885   7.802   9.854 -0.2806 -0.6927 -2.6305
35229SOL    HW210499  12.006   7.737   9.790  2.0840  0.0546  0.7781
35230SOL     OW10500   9.083  12.441   5.592 -0.5639 -0.2281  0.1050
35230SOL    HW110501   9.100  12.375   5.525  1.7433 -0.7493  1.1160
35230SOL    HW210502   9.157  12.501   5.586 -0.9045  0.3693  1.4184
35231SOL     OW10503   0.093   5.278   0.974 -0.2260 -0.2547 -0.1550
35231SOL    HW110504   0.020   5.227   1.011  0.9239 -0.2277  2.4216
35231SOL    HW210505   0.167   5.217   0.975  0.3002  0.3670 -0.6096
35232SOL     OW10506   6.498  11.099   4.356  0.6173 -0.0039 -0.2685
35232SOL    HW110507   6.551  11.024   4.328  1.4499 -0.0627  1.3311
35232SOL    HW210508   6.408  11.067   4.353  0.7838 -0.3897 -1.5856
35233SOL     OW10509   5.964  11.815   7.714  0.0014 -0.3990  0.1566
35233SOL    HW110510   5.882  11.773   7.741  0.6858 -1.1416  1.1452
35233SOL    HW210511   5.969  11.895   7.767 -0.6899  0.3097 -0.8226
35234SOL     OW10512   7.616  11.001   2.097  0.3444  0.1123  0.3411
35234SOL    HW110513   7.575  10.915   2.109 -0.5469  0.3288 -0.9712
35234SOL    HW210514   7.602  11.021   2.004  1.3677  1.2623  0.4172
35235SOL     OW10515   3.972   3.354   1.228 -0.2304  0.0640  0.2436
35235SOL    HW110516   3.992   3.330   1.319 -1.2553  0.8268  0.6955
35235SOL    HW210517   3.948   3.272   1.186  0.5445 -0.3454  0.5777
35236SOL     OW10518   7.789   9.579  10.667 -0.0281 -0.2970 -0.0871
35236SOL    HW110519   7.707   9.616  10.699 -0.3280 -0.7560 -0.3064
35236SOL    HW210520   7.814   9.515  10.734  0.6251  0.4836  0.4213
35237SOL     OW10521  10.178   4.592   0.247 -0.0901  0.4829 -0.8738
35237SOL    HW110522  10.109   4.528   0.268 -0.4271  1.1114 -0.0161
35237SOL    HW210523  10.257   4.539   0.236 -0.2853 -0.0570  0.2253
35238SOL     OW10524  10.567  12.301   9.005  0.5981  0.1061 -0.0515
35238SOL    HW110525  10.562  12.233   8.939  1.0888 -0.0336  0.0506
35238SOL    HW210526  10.559  12.383   8.957 -0.1693 -0.0156 -0.1571
35239SOL     OW10527   7.553   7.001  12.275 -0.2103 -0.2927  0.0760
35239SOL    HW110528   7.566   7.056  12.352 -1.8542  0.2117  0.0196
35239SOL    HW210529   7.461   6.975  12.278  0.1755 -1.8924 -0.6665
35240SOL     OW10530   3.627  12.215   4.747  1.0010  0.4028  0.6426
35240SOL    HW110531   3.636  12.235   4.654  2.4536  0.2591  0.7250
35240SOL    HW210532   3.583  12.292   4.784 -1.8414 -0.5664 -0.5175
35241SOL     OW10533   9.315   5.621   2.924 -0.4555  0.3093 -0.1083
35241SOL    HW110534   9.222   5.644   2.929 -0.7044 -0.8700  1.6802
35241SOL    HW210535   9.357   5.680   2.987  0.0341  0.8527 -0.9259
35242SOL     OW10536   3.524   9.685   0.975  0.1086 -0.5373  0.1386
35242SOL    HW110537   3.432   9.692   0.998  0.8843  0.5961  3.4053
35242SOL    HW210538   3.540   9.590   0.970 -0.8301 -0.8213  1.6968
35243SOL     OW10539   8.075   7.601  12.529  0.2732  0.4464  1.1342
35243SOL    HW110540   7.989   7.628  12.495  0.9250  0.7689 -0.3388
35243SOL    HW210541   8.054   7.545  12.604 -1.3574 -1.9403 -0.9221
35244SOL     OW10542   3.030   8.905   5.381  0.7181 -0.4619 -0.2098
35244SOL    HW110543   3.092   8.915   5.453  0.1873 -1.1658  0.3592
35244SOL    HW210544   2.952   8.868   5.421 -0.0595  0.3307 -0.9280
35245SOL     OW10545   4.721   2.079   0.669 -0.0030  0.5266  0.7131
35245SOL    HW110546   4.794   2.055   0.726  0.7988 -0.2073 -0.5856
35245SOL    HW210547   4.658   2.121   0.728  1.6284  1.5643  1.8047
35246SOL     OW10548   2.574   4.521   9.706 -0.5325 -0.2642  0.2931
35246SOL    HW110549   2.517   4.597   9.696  1.4764  0.9961 -4.3661
35246SOL    HW210550   2.661   4.557   9.724 -0.1885 -1.7740  1.9182
35247SOL     OW10551  10.474   3.807  12.561 -0.7706 -0.1877  0.2771
35247SOL    HW110552  10.559   3.840  12.534 -0.5973  1.1464  2.2295
35247SOL    HW210553  10.411   3.857  12.509 -0.4053 -0.7343 -0.7192
35248SOL     OW10554   7.641   8.701  11.172  0.2530  0.3824 -0.0661
35248SOL    HW110555   7.621   8.618  11.215  0.9284  1.1698  1.9062
35248SOL    HW210556   7.734   8.694  11.149  0.9978  1.4350  2.3331
35249SOL     OW10557   0.485   9.294   5.223  0.1525  0.1730 -0.0597
35249SOL    HW110558   0.564   9.241   5.232 -0.9154 -1.3446  0.9754
35249SOL    HW210559   0.513   9.384   5.240  1.3212 -0.5759  2.4355
35250SOL     OW10560   4.065   8.664  10.900 -0.3178  0.0716 -0.4529
35250SOL    HW110561   3.993   8.721  10.927 -0.4468  0.6012 -1.8342
35250SOL    HW210562   4.138   8.724  10.883  0.4142 -0.4457  0.7607
35251SOL     OW10563   3.513   5.222   4.342  0.0535 -0.0669 -0.5209
35251SOL    HW110564   3.547   5.161   4.408 -0.1978  1.6111  1.2383
35251SOL    HW210565   3.590   5.254   4.296  0.1949 -1.6129 -1.4234
35252SOL     OW10566   7.267   8.045  11.863 -0.0244  0.0289 -0.3048
35252SOL    HW110567   7.200   7.978  11.858 -0.0113  0.0605 -1.0534
35252SOL    HW210568   7.337   8.006  11.915 -1.2833  0.5902  1.9064
35253SOL     OW10569  10.888   7.720   4.743 -0.5975  0.1989  0.1628
35253SOL    HW110570  10.948   7.783   4.784  0.6851  0.3437 -1.8190
35253SOL    HW210571  10.931   7.636   4.753 -0.1912  0.2592 -0.9876
35254SOL     OW10572   2.947  11.752   1.978 -0.4529 -0.0845  0.0298
35254SOL    HW110573   3.004  11.803   1.920  1.5304 -1.4892  0.6535
35254SOL    HW210574   2.913  11.682   1.923  0.3890 -0.6570  0.2223
35255SOL     OW10575   9.183   9.221   8.191 -0.1340  0.0986  0.4894
35255SOL    HW110576   9.273   9.251   8.206  1.1089 -2.0330 -1.9184
35255SOL    HW210577   9.160   9.257   8.105 -2.3398  2.0271  1.7825
35256SOL     OW10578   7.851   3.364   6.314  0.1533  0.3579  0.8975
35256SOL    HW110579   7.945   3.377   6.303  0.0604 -0.0186 -0.5799
35256SOL    HW210580   7.843   3.276   6.350  0.3134 -0.7009 -1.4694
35257SOL     OW10581  12.037   8.774   8.261  0.2487  0.1952  0.4982
35257SOL    HW110582  12.077   8.770   8.348  1.4548 -1.3463 -0.0900
35257SOL    HW210583  12.044   8.685   8.227 -2.8254  0.0540 -0.0631
35258SOL     OW10584   2.777   7.764   7.047  0.0747  0.2221 -0.1443
35258SOL    HW110585   2.864   7.802   7.059  0.0576 -0.3531  2.3875
35258SOL    HW210586   2.732   7.823   6.988  1.6087  1.4984 -0.0876
35259SOL     OW10587   5.395   8.549   0.543  0.1385 -0.5987  0.2131
35259SOL    HW110588   5.448   8.499   0.605  0.3437 -3.4992 -2.0673
35259SOL    HW210589   5.452   8.621   0.516  1.5034 -1.5035  0.5565
35260SOL     OW10590  10.782   5.639   5.822  0.0301 -0.1630 -0.2395
35260SOL    HW110591  10.797   5.653   5.729 -1.7511  0.8155 -0.4349
35260SOL    HW210592  10.831   5.559   5.843  0.1946 -0.5881 -2.0734
35261SOL     OW10593   6.485  10.039   5.947  0.1727  0.6267  0.0557
35261SOL    HW110594   6.539  10.086   5.883  1.0425 -0.0487  0.2644
35261SOL    HW210595   6.510   9.947   5.936 -0.8851  0.3043  0.2276
35262SOL     OW10596   0.908   1.882  12.417 -0.4158  0.0735 -0.4667
35262SOL    HW110597   0.970   1.856  12.485 -1.5090 -1.0539  0.1608
35262SOL    HW210598   0.879   1.799  12.378 -2.7265  0.3896  0.4011
35263SOL     OW10599   4.963   9.970   7.883  0.1464 -0.2315 -0.6796
35263SOL    HW110600   4.909  10.048   7.898  0.5076  0.1592 -1.3622
35263SOL    HW210601   4.993   9.979   7.793  0.0802 -1.2409 -0.8114
35264SOL     OW10602   3.464  10.904   3.216  0.3112 -0.5100 -0.0306
35264SOL    HW110603   3.423  10.818   3.215  0.1505 -0.4282 -0.6175
35264SOL    HW210604   3.532  10.898   3.283 -1.2379 -0.3752  1.6356
35265SOL     OW10605  10.893   3.037   1.178 -0.4791  0.1055  0.2717
35265SOL    HW110606  10.898   2.957   1.229  1.1826  1.2943  2.1467
35265SOL    HW210607  10.815   3.082   1.211 -1.2971 -0.6141 -0.6404
35266SOL     OW10608   2.002   1.953   3.197  0.7205  0.2347  0.1009
35266SOL    HW110609   1.926   1.921   3.149 -0.3395  1.5605  0.8207
35266SOL    HW210610   2.072   1.891   3.176 -0.7063 -1.3690 -0.1094
35267SOL     OW10611   6.977   9.564   6.547 -0.3039 -0.3073 -0.4569
35267SOL    HW110612   7.071   9.579   6.536 -0.3822  0.4433 -0.1540
35267SOL    HW210613   6.945   9.643   6.590 -1.3462  0.0883 -1.8861
35268SOL     OW10614   9.681   9.137  10.617  0.2189 -0.9906  0.0441
35268SOL    HW110615   9.756   9.140  10.677 -0.2799 -1.0493  0.6798
35268SOL    HW210616   9.705   9.069  10.553  1.3931  0.0809 -0.7081
35269SOL     OW10617   4.352   8.961   9.514  0.0727  0.0846  0.1347
35269SOL    HW110618   4.407   8.887   9.489  0.5829  0.5090 -0.0125
35269SOL    HW210619   4.317   8.995   9.432  0.8701  0.7951  0.0691
35270SOL     OW10620   6.939   0.116   7.014  0.1103  0.1835  0.2203
35270SOL    HW110621   6.927   0.152   7.103 -0.1370  0.4964  0.0644
35270SOL    HW210622   7.014   0.164   6.979  0.6807 -0.4707  0.5278
35271SOL     OW10623  10.076   0.567   3.929 -0.7214  0.1865  0.5523
35271SOL    HW110624  10.151   0.620   3.903  0.5177 -2.1402 -0.9501
35271SOL    HW210625  10.086   0.556   4.023  0.3550  0.5649  0.4978
35272SOL     OW10626  10.882   4.133   9.953  0.0114 -0.1069 -0.2990
35272SOL    HW110627  10.855   4.102   9.866  0.8305  0.8550 -0.9176
35272SOL    HW210628  10.925   4.058   9.993 -1.0784 -0.8139 -0.3842
35273SOL     OW10629   3.537   0.262   7.389  0.1910  0.4500 -0.3382
35273SOL    HW110630   3.450   0.222   7.383  0.4377 -0.6721  2.1227
35273SOL    HW210631   3.524   0.353   7.363 -1.9154  0.5027  0.7227
35274SOL     OW10632   8.778   2.994   9.434 -0.0065  0.0102 -0.3029
35274SOL    HW110633   8.720   3.047   9.488 -0.0267  0.9886 -1.2525
35274SOL    HW210634   8.726   2.918   9.410  0.2815 -0.9308  1.7482
35275SOL     OW10635   2.683   8.729   8.894  0.5138  0.8298  0.3023
35275SOL    HW110636   2.673   8.791   8.822  0.7665 -0.0965 -0.5511
35275SOL    HW210637   2.697   8.784   8.972 -0.8052  1.8731 -0.1678
35276SOL     OW10638   2.176   3.912  11.012  0.0001  0.1364  0.6267
35276SOL    HW110639   2.219   3.828  10.997 -0.0078  0.3720 -0.9220
35276SOL    HW210640   2.215   3.970  10.946 -1.0820  0.9440  0.6769
35277SOL     OW10641   4.017   8.976   9.270  0.2576 -0.3088  0.0232
35277SOL    HW110642   4.057   8.890   9.273  0.9248  0.0276  1.8300
35277SOL    HW210643   3.989   8.986   9.179 -0.4843 -2.6987 -0.0839
35278SOL     OW10644   1.395   4.686  10.832 -0.1974  0.0171 -0.4673
35278SOL    HW110645   1.369   4.749  10.899 -1.3053 -0.7577 -0.1497
35278SOL    HW210646   1.470   4.728  10.789  0.0061  0.9033  0.6803
35279SOL     OW10647   1.961  10.164   8.842 -0.1500  0.1122  0.3739
35279SOL    HW110648   1.882  10.189   8.890  0.8048 -0.2084  2.1843
35279SOL    HW210649   2.033  10.185   8.901  1.0125 -1.6418 -0.3355
35280SOL     OW10650   0.788   9.805   5.775 -0.0731  0.0092 -0.0266
35280SOL    HW110651   0.837   9.767   5.848  0.8039  0.2748 -0.4528
35280SOL    HW210652   0.803   9.899   5.783 -0.6670  0.1077 -0.0656
35281SOL     OW10653   8.097  12.102   4.205  0.3844 -0.3394 -0.6579
35281SOL    HW110654   8.093  12.008   4.224  2.2368 -1.0405 -3.1213
35281SOL    HW210655   8.013  12.121   4.162  0.7527 -1.4074 -1.9362
35282SOL     OW10656   4.084   6.809   5.737 -0.1241  0.7429 -0.2755
35282SOL    HW110657   4.034   6.849   5.808 -0.8601 -0.8131  0.1294
35282SOL    HW210658   4.023   6.805   5.664  0.0480  0.6757 -0.4141
35283SOL     OW10659   1.804   9.786   1.027 -0.2223 -0.4157 -0.0389
35283SOL    HW110660   1.781   9.745   0.944 -0.8740 -0.4177  0.1433
35283SOL    HW210661   1.835   9.713   1.081 -1.1865 -0.6407  0.2155
35284SOL     OW10662   2.798   1.668  11.243  0.7288 -0.4664  0.1499
35284SOL    HW110663   2.852   1.694  11.318  0.3529  2.9737 -0.5874
35284SOL    HW210664   2.861   1.636  11.178  1.5811  0.7824  0.3360
35285SOL     OW10665   8.871   6.181   9.861 -0.4654  0.2052  0.4637
35285SOL    HW110666   8.861   6.112   9.927 -0.7610 -0.3883 -0.1860
35285SOL    HW210667   8.962   6.175   9.833 -0.7290 -0.5560 -0.2630
35286SOL     OW10668   0.781   7.660  12.621  0.0313  0.1484  0.0124
35286SOL    HW110669   0.702   7.674  12.672  0.8209  0.5614  1.1657
35286SOL    HW210670   0.821   7.746  12.614  1.1397 -0.2810  0.7517
35287SOL     OW10671   4.352   8.072   2.690 -0.1155  0.3570 -0.1118
35287SOL    HW110672   4.395   8.112   2.615 -2.3738 -0.9587 -2.2329
35287SOL    HW210673   4.281   8.132   2.712 -0.3860 -0.0078  0.0186
35288SOL     OW10674  11.232   0.018   6.320  0.3127 -0.3479 -0.3489
35288SOL    HW110675  11.270   0.019   6.232  1.2439 -0.0679  0.0513
35288SOL    HW210676  11.197  -0.071   6.329 -2.0086  0.2957 -1.9016
35289SOL     OW10677   9.758   0.016   5.785 -0.1711  0.3157  0.2110
35289SOL    HW110678   9.710   0.097   5.806 -0.8339 -0.2217  0.8546
35289SOL    HW210679   9.705  -0.025   5.717 -0.0667  0.2251  0.1858
35290SOL     OW10680  10.157  11.600   8.713 -0.7584  0.2364  0.3737
35290SOL    HW110681  10.064  11.606   8.690 -0.4698  0.2429 -0.8662
35290SOL    HW210682  10.200  11.663   8.655  0.1537 -0.5858  0.1315
35291SOL     OW10683   0.026   7.921   4.215  0.0223  0.3146 -0.0824
35291SOL    HW110684  -0.052   7.915   4.160 -0.9835 -0.1397  1.3269
35291SOL    HW210685   0.095   7.878   4.165 -1.3497 -1.9251 -0.1510
35292SOL     OW10686   2.798   0.137   1.228 -0.2597  0.4642  0.2939
35292SOL    HW110687   2.887   0.172   1.222  0.2604 -0.8144  0.2250
35292SOL    HW210688   2.810   0.043   1.241 -1.5988  0.3585  0.9743
35293SOL     OW10689  11.968   4.744   0.597  0.3188 -0.5178 -0.2417
35293SOL    HW110690  12.002   4.670   0.648  0.8994 -0.4711 -0.5444
35293SOL    HW210691  11.986   4.820   0.652 -0.0100 -0.5730 -0.0586
35294SOL     OW10692   2.768   2.102  10.550  0.0800  0.2197  0.1258
35294SOL    HW110693   2.765   2.029  10.612  0.9130  0.8233  0.9135
35294SOL    HW210694   2.770   2.181  10.605 -2.9006  1.0112 -0.6871
35295SOL     OW10695   1.576   0.188   0.229  0.5693  0.2070 -0.1021
35295SOL    HW110696   1.547   0.103   0.196  1.5040  0.3161 -1.2878
35295SOL    HW210697   1.530   0.199   0.312  0.4144 -1.4468  0.0578
35296SOL     OW10698   9.005   5.515   6.358  0.1120 -0.5488  0.6786
35296SOL    HW110699   9.023   5.609   6.359  1.5246 -0.7903  1.8520
35296SOL    HW210700   8.911   5.508   6.375 -0.2258  0.6611 -0.4959
35297SOL     OW10701   0.440  10.248  11.263  0.2325 -0.0247 -0.0527
35297SOL    HW110702   0.466  10.214  11.178 -0.9731 -1.1123 -0.0290
35297SOL    HW210703   0.419  10.170  11.314  0.0279  0.6552  0.9223
35298SOL     OW10704   3.936   6.301  10.500  0.0626 -0.2556  0.2199
35298SOL    HW110705   3.844   6.282  10.518 -0.0321  0.1433  0.1622
35298SOL    HW210706   3.947   6.279  10.408  0.5120 -2.1593  0.6705
35299SOL     OW10707   3.149   1.547   9.441  0.1646  0.2416 -0.1048
35299SOL    HW110708   3.190   1.500   9.514 -1.7357 -0.8016  0.3753
35299SOL    HW210709   3.131   1.634   9.476 -0.1322 -0.0435  0.4701
35300SOL     OW10710   7.199   5.199   0.564 -0.1424 -0.3039 -0.0351
35300SOL    HW110711   7.144   5.253   0.507 -0.3384 -0.6767 -0.2039
35300SOL    HW210712   7.243   5.262   0.621  0.0027  0.0738 -0.5490
35301SOL     OW10713   6.861   9.046  10.494  0.3334  0.5178 -0.5187
35301SOL    HW110714   6.876   9.051  10.589  2.8720  1.6932 -0.9146
35301SOL    HW210715   6.792   9.111  10.478  1.3859  1.8873  0.2913
35302SOL     OW10716  10.615   1.567   4.360 -0.4277  0.3193 -0.0943
35302SOL    HW110717  10.689   1.513   4.332  0.7426  1.9303 -0.2913
35302SOL    HW210718  10.572   1.517   4.429  1.9393  0.0726  1.2950
35303SOL     OW10719   0.289   8.377  10.351  0.1212 -0.5635  0.9108
35303SOL    HW110720   0.297   8.467  10.381  0.2241 -0.3736  0.3241
35303SOL    HW210721   0.379   8.349  10.336  0.0428 -0.4366  0.1556
35304SOL     OW10722   9.575  11.909   2.637 -0.0530 -0.6343 -0.0316
35304SOL    HW110723   9.581  11.858   2.556  0.7222 -0.9601  0.2245
35304SOL    HW210724   9.581  12.000   2.607 -2.1084 -0.6158 -0.5525
35305SOL     OW10725   4.603   8.027   3.963  0.2278  0.0821 -0.5821
35305SOL    HW110726   4.594   7.933   3.981  1.9302 -0.0940 -0.4498
35305SOL    HW210727   4.564   8.070   4.039 -2.1413 -0.4548 -1.4377
35306SOL     OW10728   0.327   4.964   0.710 -0.4932 -0.3529  0.4667
35306SOL    HW110729   0.406   4.964   0.657 -0.3040  0.1423  0.7449
35306SOL    HW210730   0.265   4.911   0.660 -0.2117 -0.1632 -0.0898
35307SOL     OW10731   7.987   4.911  10.201 -0.4020 -0.8524  0.2684
35307SOL    HW110732   8.045   4.867  10.139  0.8040 -0.2511  0.9535
35307SOL    HW210733   7.932   4.840  10.235 -1.9284 -1.0363 -2.3037
35308SOL     OW10734   1.166   0.223   1.034 -0.0998 -0.1009  0.3489
35308SOL    HW110735   1.073   0.228   1.011 -0.3112  3.7868  1.3263
35308SOL    HW210736   1.176   0.283   1.109  3.4069  0.8027 -0.6331
35309SOL     OW10737  12.093   6.086   2.736  0.4646  0.1250  0.1681
35309SOL    HW110738  12.039   6.154   2.776 -0.8405 -0.1162 -1.0863
35309SOL    HW210739  12.038   6.007   2.741  0.1094  0.1394 -2.2538
35310SOL     OW10740   2.004   8.786   1.108  0.3045 -0.4486  0.2644
35310SOL    HW110741   1.969   8.709   1.064 -1.5000  0.5256 -0.0704
35310SOL    HW210742   2.097   8.786   1.084  0.2754 -2.2995 -0.0161
35311SOL     OW10743   0.388   1.384   9.335 -0.0968 -0.6357  0.2423
35311SOL    HW110744   0.379   1.475   9.308  0.2222 -0.1344  1.7175
35311SOL    HW210745   0.482   1.373   9.351 -0.4170 -0.4194  2.5942
35312SOL     OW10746   9.589   8.330   3.048  0.3742 -0.1251 -0.0163
35312SOL    HW110747   9.672   8.288   3.026  0.4529 -0.4325  0.8062
35312SOL    HW210748   9.522   8.275   3.008  0.4868 -0.9771  0.9186
35313SOL     OW10749   0.084  10.373   4.249 -0.4564  0.2484  0.2398
35313SOL    HW110750  -0.008  10.374   4.221 -0.3535 -0.0962 -0.1114
35313SOL    HW210751   0.090  10.296   4.305 -0.4259  0.3800  0.4171
35314SOL     OW10752   1.736   6.834   5.020  0.5076 -0.2346 -0.2936
35314SOL    HW110753   1.712   6.780   5.096 -2.4035  1.5893  0.2590
35314SOL    HW210754   1.831   6.824   5.012  0.5672 -2.5451  1.9558
35315SOL     OW10755   0.816   5.345  11.850 -0.3087  0.0729 -0.1949
35315SOL    HW110756   0.846   5.434  11.872 -1.1914  0.1208  0.8931
35315SOL    HW210757   0.849   5.330  11.761  1.5891  0.7042  0.3619
35316SOL     OW10758   7.175   9.991   2.767  0.3579 -0.5941  0.2671
35316SOL    HW110759   7.266   9.987   2.738  0.1122  0.4775 -0.7488
35316SOL    HW210760   7.179   9.977   2.862  1.7578  0.9767  0.4884
35317SOL     OW10761   4.582   2.735   5.222  0.1674 -0.2272 -0.7533
35317SOL    HW110762   4.644   2.708   5.153  1.5766  1.8239 -0.3958
35317SOL    HW210763   4.602   2.678   5.296  2.1974  0.8493 -0.4104
35318SOL     OW10764   9.848   5.751   0.172  0.2138  0.7594 -0.4475
35318SOL    HW110765   9.940   5.777   0.162  1.1186 -2.0769 -0.4506
35318SOL    HW210766   9.845   5.662   0.137 -2.0042 -0.1790  1.8597
35319SOL     OW10767  10.548   1.243   5.498 -0.0806 -0.1952 -0.3646
35319SOL    HW110768  10.520   1.332   5.481  0.0268  0.0132  0.4922
35319SOL    HW210769  10.471   1.201   5.537  0.4384  0.0894  1.0380
35320SOL     OW10770   7.981   7.115   3.781 -0.0137 -0.4672  0.5645
35320SOL    HW110771   8.039   7.190   3.768  0.3289 -1.0052 -1.3125
35320SOL    HW210772   7.928   7.139   3.857  2.4558  0.1416  2.2096
35321SOL     OW10773   0.898   1.111   2.848 -0.0430 -0.0200 -0.1370
35321SOL    HW110774   0.807   1.108   2.818 -0.9731 -0.8867  2.4532
35321SOL    HW210775   0.950   1.087   2.772 -2.1199 -1.1441 -1.2676
35322SOL     OW10776   9.442   5.677   8.992 -0.5202 -0.3964 -0.3409
35322SOL    HW110777   9.366   5.694   9.048 -1.3173  0.2846 -1.5818
35322SOL    HW210778   9.476   5.763   8.970  1.1565 -0.7005  0.8461
35323SOL     OW10779   9.313   1.430  11.379  0.3594 -0.0025 -0.3653
35323SOL    HW110780   9.375   1.423  11.306  0.5491 -0.5040 -0.1580
35323SOL    HW210781   9.231   1.396  11.344  0.3396  0.1521 -0.4717
35324SOL     OW10782  10.534  11.858  10.694 -0.3238 -0.2107  0.3325
35324SOL    HW110783  10.610  11.831  10.642 -1.0352 -0.8524 -0.4117
35324SOL    HW210784  10.557  11.944  10.728  0.8197 -0.4913  0.2989
35325SOL     OW10785   9.835   5.860   8.724  0.3376 -0.0799 -0.4050
35325SOL    HW110786   9.910   5.920   8.719  0.4750 -0.1479  0.5747
35325SOL    HW210787   9.785   5.877   8.644  1.2590  0.1522 -0.9490
35326SOL     OW10788   6.375   0.076   4.367  0.0917  0.2271  0.4253
35326SOL    HW110789   6.442   0.144   4.375  0.1797  0.0138  1.8796
35326SOL    HW210790   6.310   0.113   4.309  2.0621 -0.0818 -2.1717
35327SOL     OW10791   2.131   4.983   6.600  0.2939 -0.2862 -0.7852
35327SOL    HW110792   2.052   4.979   6.546 -0.3362  2.5394 -0.2300
35327SOL    HW210793   2.190   5.040   6.551  0.8272 -0.0033  0.1663
35328SOL     OW10794  11.040  10.236   0.686  0.1366  0.2198 -0.1507
35328SOL    HW110795  10.953  10.267   0.662  0.4871  0.3804 -1.2638
35328SOL    HW210796  11.063  10.173   0.618  1.6196  1.5195 -0.9361
35329SOL     OW10797   6.192   2.179   3.869 -0.3851  0.2953 -0.2644
35329SOL    HW110798   6.198   2.232   3.948  0.6191  0.3457 -0.3596
35329SOL    HW210799   6.145   2.234   3.807 -0.2502  0.6780 -0.0339
35330SOL     OW10800   7.110   1.569   8.001 -0.1901  0.2733 -0.1583
35330SOL    HW110801   7.164   1.648   7.991  0.6559 -0.1480  0.9111
35330SOL    HW210802   7.118   1.545   8.093 -1.8844 -0.0665 -0.0686
35331SOL     OW10803   5.412   1.484   0.946  0.0400 -0.8822 -0.1866
35331SOL    HW110804   5.401   1.491   1.041  0.1342  0.1325 -0.2354
35331SOL    HW210805   5.407   1.390   0.928 -1.7461 -0.9681  0.5936
35332SOL     OW10806   7.897   4.336   9.127  0.1031 -0.4733 -0.0009
35332SOL    HW110807   7.932   4.361   9.213  0.2032 -2.1555  0.4717
35332SOL    HW210808   7.946   4.390   9.065  2.0204 -1.2014  0.8100
35333SOL     OW10809  11.968   4.765   4.806  0.0687  0.0826  0.0239
35333SOL    HW110810  12.060   4.780   4.827  0.1635  0.5218 -0.6844
35333SOL    HW210811  11.920   4.816   4.872  0.3127 -0.6859  0.8100
35334SOL     OW10812   9.810   6.581   6.573 -0.0712  0.0490  0.3951
35334SOL    HW110813   9.904   6.560   6.565 -0.3201 -0.7196 -0.7098
35334SOL    HW210814   9.796   6.592   6.667  0.6999 -1.9641  0.7959
35335SOL     OW10815   6.198   4.027  10.423  0.4201 -1.4418  0.1979
35335SOL    HW110816   6.167   4.113  10.450 -0.4254 -2.2300  1.8908
35335SOL    HW210817   6.144   4.005  10.347 -0.7908 -1.3018  0.9807
35336SOL     OW10818  11.080   6.695  10.190 -0.2693 -0.5120  0.5414
35336SOL    HW110819  11.018   6.736  10.131  0.9832 -0.0408 -0.4873
35336SOL    HW210820  11.026   6.641  10.248 -1.9827  2.3034  1.7900
35337SOL     OW10821   5.585   6.414   3.133 -0.1619 -0.1687 -0.2630
35337SOL    HW110822   5.545   6.461   3.060  1.2728  0.8887 -0.3924
35337SOL    HW210823   5.544   6.452   3.211  2.0695  2.5249 -0.2607
35338SOL     OW10824  12.433   8.391  12.345 -0.0476 -0.1737 -0.0689
35338SOL    HW110825  12.464   8.342  12.269  0.2409 -0.2496  0.0961
35338SOL    HW210826  12.370   8.334  12.387 -3.0920  1.2474 -2.2859
35339SOL     OW10827   3.293   4.190   2.614  0.2889  0.3679 -0.1383
35339SOL    HW110828   3.273   4.103   2.581 -1.2162  0.8700 -0.6431
35339SOL    HW210829   3.388   4.191   2.623  0.2245 -1.9460  1.6767
35340SOL     OW10830   5.104   0.993  12.349  0.7689 -0.1324  0.1847
35340SOL    HW110831   5.035   0.996  12.283  3.5525  1.2798 -2.9872
35340SOL    HW210832   5.137   0.904  12.346  0.2646 -0.3249  0.3540
35341SOL     OW10833   9.662   3.815   6.173  0.1544 -0.9545 -0.4156
35341SOL    HW110834   9.724   3.744   6.154  0.2215 -1.2862  0.9616
35341SOL    HW210835   9.685   3.884   6.110  2.0770 -0.9951  0.1649
35342SOL     OW10836   5.499   2.169   0.849  0.4476 -0.3876  0.5832
35342SOL    HW110837   5.463   2.234   0.789  0.0869 -1.4629 -0.4247
35342SOL    HW210838   5.434   2.163   0.919  0.5360  0.3987  0.7356
35343SOL     OW10839  11.316   1.287  12.326  0.5091 -0.1889 -0.1608
35343SOL    HW110840  11.367   1.217  12.284 -0.5985 -0.9271 -0.3179
35343SOL    HW210841  11.226   1.253  12.328 -0.6202  2.3043 -2.6546
35344SOL     OW10842  12.461   3.814   2.457  0.2112  0.4148  0.0490
35344SOL    HW110843  12.456   3.786   2.366 -3.0445  1.0560 -0.0772
35344SOL    HW210844  12.494   3.738   2.504  1.9955  0.0880 -1.6190
35345SOL     OW10845  12.062   2.681   6.261  0.4972 -0.0731  0.6453
35345SOL    HW110846  12.139   2.632   6.234 -1.3245 -1.9195 -1.5897
35345SOL    HW210847  12.065   2.679   6.357  1.9087 -2.2805  0.6183
35346SOL     OW10848   3.194   0.523   7.461 -0.2324  0.0039 -0.3461
35346SOL    HW110849   3.151   0.452   7.509 -1.2503  0.8932  0.1121
35346SOL    HW210850   3.166   0.512   7.370 -0.3335 -0.2118 -0.2886
35347SOL     OW10851   2.742   5.950   3.141 -0.3791  0.2603 -0.4789
35347SOL    HW110852   2.665   5.958   3.084 -0.3689 -0.6582 -0.6508
35347SOL    HW210853   2.817   5.965   3.083 -0.3134 -1.8512 -1.0189
35348SOL     OW10854   2.875   3.352   7.047  0.4839 -0.1301  0.4104
35348SOL    HW110855   2.807   3.324   7.108 -0.1988 -0.0610 -0.2912
35348SOL    HW210856   2.848   3.315   6.963  1.7827 -0.8239  0.2784
35349SOL     OW10857   4.137   1.753   1.236  0.3782  0.2644  0.4282
35349SOL    HW110858   4.129   1.673   1.289  2.3448 -0.3636 -0.1625
35349SOL    HW210859   4.136   1.824   1.300 -2.7091 -0.0547  0.8863
35350SOL     OW10860   7.596   5.113   3.619 -0.6365 -0.6484  0.4984
35350SOL    HW110861   7.600   5.112   3.715  0.8235  0.2199  0.4871
35350SOL    HW210862   7.534   5.183   3.599  0.0034  0.0357  0.8324
35351SOL     OW10863   8.089   8.910  11.155  0.4345 -0.0508  0.4287
35351SOL    HW110864   8.058   8.845  11.218 -0.5549 -0.5741 -0.5417
35351SOL    HW210865   8.009   8.954  11.125  1.1158  1.9170  1.3473
35352SOL     OW10866   8.573   0.751  10.030 -0.6133  0.0162  0.1680
35352SOL    HW110867   8.602   0.728   9.942  0.8993 -0.5784  0.7991
35352SOL    HW210868   8.588   0.673  10.082 -0.4529  0.7174  1.1997
35353SOL     OW10869   9.091   5.364   2.374  0.2830 -0.1135 -0.2363
35353SOL    HW110870   9.003   5.339   2.346 -0.2414  1.1987  0.2035
35353SOL    HW210871   9.079   5.402   2.461  1.4331 -0.8679  0.2842
35354SOL     OW10872   3.063   9.566   2.380  0.2907  0.1624  0.6715
35354SOL    HW110873   3.148   9.529   2.403  1.2848  1.7631 -0.2070
35354SOL    HW210874   3.046   9.534   2.292 -0.2854 -0.5846  1.0493
35355SOL     OW10875   1.076   2.804   9.010 -0.3249  0.2678 -0.4678
35355SOL    HW110876   1.092   2.861   8.935  0.9498  0.2632 -0.2322
35355SOL    HW210877   1.157   2.753   9.019 -0.9503 -0.6690  0.1148
35356SOL     OW10878   5.570  11.779   6.303  0.1581  0.4215  0.1796
35356SOL    HW110879   5.595  11.726   6.227 -1.1780  1.6887 -1.2264
35356SOL    HW210880   5.481  11.749   6.325  0.5312  0.0637  1.2813
35357SOL     OW10881   0.259   2.743   1.614  0.2392  0.5417 -0.4076
35357SOL    HW110882   0.210   2.662   1.629  0.6305  0.0464 -1.6882
35357SOL    HW210883   0.286   2.771   1.701  1.3034 -1.4675 -0.0331
35358SOL     OW10884   9.286   0.626   7.787 -0.0165  0.3400  0.6162
35358SOL    HW110885   9.200   0.588   7.804 -0.5075  1.6165  1.1755
35358SOL    HW210886   9.312   0.664   7.871  0.1852  1.6866 -0.0203
35359SOL     OW10887   9.025   4.775   3.461  0.1936  0.0224 -0.1198
35359SOL    HW110888   9.100   4.807   3.410  1.2851  0.0289  1.4151
35359SOL    HW210889   8.948   4.803   3.411  1.0876  3.6800  0.3142
35360SOL     OW10890  12.428   3.498   0.153  0.5184  0.7421  0.2542
35360SOL    HW110891  12.507   3.461   0.113 -0.3708 -0.6064 -0.3039
35360SOL    HW210892  12.457   3.583   0.188  1.6609  1.3789 -2.0429
35361SOL     OW10893   5.784   6.195   3.966 -0.2025  0.2367  0.1316
35361SOL    HW110894   5.733   6.274   3.948  0.3349  0.9500  1.5989
35361SOL    HW210895   5.719   6.127   3.982 -0.6729  0.4547 -0.7736
35362SOL     OW10896   4.893   7.668   7.612 -0.0642  0.3252  0.0986
35362SOL    HW110897   4.822   7.662   7.548 -0.5129  1.8476  0.4065
35362SOL    HW210898   4.892   7.583   7.656 -1.8390  0.3671  0.2234
35363SOL     OW10899   7.482   6.942   1.584 -0.5281  0.2685  0.0311
35363SOL    HW110900   7.495   7.026   1.541  0.7841  1.0890  1.9180
35363SOL    HW210901   7.436   6.963   1.665  0.4710 -0.7100  0.8859
35364SOL     OW10902   3.352   9.012   4.811  0.0735 -0.0534  0.2098
35364SOL    HW110903   3.289   8.971   4.871 -1.8306  1.2578 -0.7951
35364SOL    HW210904   3.320   8.991   4.724  2.2893 -1.1507 -0.4080
35365SOL     OW10905   0.482   3.630   1.134 -0.3659  0.6853  0.1761
35365SOL    HW110906   0.396   3.613   1.095 -0.4783  3.6567 -1.0835
35365SOL    HW210907   0.538   3.653   1.060  0.5705  2.2224  1.3100
35366SOL     OW10908   1.024   8.286   1.688  0.5430  0.2002  0.4353
35366SOL    HW110909   1.015   8.319   1.599  1.9214  0.6178  0.4217
35366SOL    HW210910   1.066   8.357   1.736  2.4926 -1.0418  0.6982
35367SOL     OW10911   6.769  10.159   6.351 -0.2442  0.3710 -0.3698
35367SOL    HW110912   6.695  10.116   6.394 -0.0746  0.7124  0.2760
35367SOL    HW210913   6.835  10.090   6.342 -0.7462 -0.0180 -1.2461
35368SOL     OW10914   2.680   6.268   3.167 -0.0483 -0.3617  0.1742
35368SOL    HW110915   2.673   6.184   3.212 -2.0112 -0.0918  0.4760
35368SOL    HW210916   2.672   6.334   3.237 -3.1022  0.0618 -0.4073
35369SOL     OW10917  12.039   9.950   1.131 -0.5710 -0.6565  0.5675
35369SOL    HW110918  12.031  10.030   1.079  0.2521  0.5651  2.2043
35369SOL    HW210919  12.053   9.881   1.067  1.3996  0.9171 -0.8295
35370SOL     OW10920  11.871  11.627  12.617  0.0143 -0.9972 -0.2619
35370SOL    HW110921  11.884  11.536  12.643 -1.3646 -1.2513 -0.4032
35370SOL    HW210922  11.856  11.623  12.522  1.2465 -0.4768 -0.4917
35371SOL     OW10923  11.429   2.366   5.815  0.1976  0.0151 -0.2307
35371SOL    HW110924  11.412   2.452   5.777  0.5217 -0.4246 -1.4118
35371SOL    HW210925  11.523   2.355   5.808  0.0272 -0.9394 -1.2256
35372SOL     OW10926   7.827   4.377   2.190  0.5885  0.5328 -0.4919
35372SOL    HW110927   7.826   4.399   2.097  1.1043  0.8142 -0.4421
35372SOL    HW210928   7.866   4.455   2.232  0.1010  0.5251 -0.0109
35373SOL     OW10929   5.804   1.827  12.357  0.7946 -0.6891 -0.0911
35373SOL    HW110930   5.783   1.792  12.270  0.2174 -1.0194  0.1744
35373SOL    HW210931   5.869   1.766  12.392 -0.3327 -1.6238  0.4379
35374SOL     OW10932   1.096  12.437   8.692 -0.1082  0.0916  0.2628
35374SOL    HW110933   1.007  12.405   8.689  0.4564 -1.4799 -0.5801
35374SOL    HW210934   1.131  12.403   8.775  0.3986 -1.2930 -0.4923
35375SOL     OW10935   6.529   8.252  11.533  0.1082  0.2954  0.3121
35375SOL    HW110936   6.567   8.316  11.593 -1.3106  2.3297 -0.8388
35375SOL    HW210937   6.589   8.250  11.459 -0.0322  0.5460  0.1935
35376SOL     OW10938   0.996   2.927   7.830 -0.2155 -0.5499 -0.2250
35376SOL    HW110939   1.001   2.928   7.734  0.1665 -0.8548 -0.2117
35376SOL    HW210940   0.949   2.847   7.851 -1.4047  0.1351 -0.1932
35377SOL     OW10941   9.047   5.777   5.663  0.0050 -0.1747  0.3006
35377SOL    HW110942   9.003   5.793   5.580  0.2430 -0.3234  0.1450
35377SOL    HW210943   9.140   5.767   5.640  0.1116  0.0480  0.6139
35378SOL     OW10944   7.420   3.178   5.759  0.0063 -0.2162  0.0343
35378SOL    HW110945   7.483   3.171   5.687  0.1355 -2.1707  0.3051
35378SOL    HW210946   7.380   3.092   5.765 -1.2622  0.4170  1.2007
35379SOL     OW10947   4.652   7.920  10.761 -0.1452 -0.2613  0.3681
35379SOL    HW110948   4.692   7.838  10.732  0.3878  0.9107 -2.6030
35379SOL    HW210949   4.718   7.960  10.818  0.9828 -0.5008 -0.7126
35380SOL     OW10950   3.603  10.668   3.600 -0.0338 -0.2397  0.1157
35380SOL    HW110951   3.567  10.692   3.685 -0.3101 -1.0440  0.2308
35380SOL    HW210952   3.675  10.609   3.620  0.4048  0.1916 -0.1792
35381SOL     OW10953   0.446   7.183   2.826 -0.3688 -0.2204 -0.2002
35381SOL    HW110954   0.390   7.112   2.796 -0.1710 -0.4685  0.0085
35381SOL    HW210955   0.492   7.212   2.747  1.1109 -1.7298  0.0387
35382SOL     OW10956   0.374   4.247   3.968  0.1789 -0.4597  0.2963
35382SOL    HW110957   0.440   4.218   4.031  1.8853  2.4141  0.0004
35382SOL    HW210958   0.295   4.260   4.021  0.5927 -1.3618  1.1705
35383SOL     OW10959  12.184  11.941   9.159  0.1880  0.1430  0.2442
35383SOL    HW110960  12.159  12.021   9.114 -1.6539 -0.7241 -0.3390
35383SOL    HW210961  12.146  11.950   9.247 -1.4203 -0.7263 -0.3185
35384SOL     OW10962  10.946   5.433   3.583  0.2200  0.2119 -0.0236
35384SOL    HW110963  10.975   5.464   3.669 -1.6123 -0.8006  1.0123
35384SOL    HW210964  10.904   5.509   3.544  0.6238  0.5429  0.1722
35385SOL     OW10965  12.258   3.990   7.405 -0.1927 -0.8917  0.1741
35385SOL    HW110966  12.248   3.954   7.493 -0.9286 -0.8096  0.1292
35385SOL    HW210967  12.173   3.977   7.364  0.1664 -0.9867 -0.5528
35386SOL     OW10968   5.225  11.712   0.747 -0.3694 -0.1802  0.2614
35386SOL    HW110969   5.244  11.795   0.703 -1.2595 -0.7098 -1.2169
35386SOL    HW210970   5.193  11.738   0.833  1.0930  0.9166  0.5159
35387SOL     OW10971   2.582   5.739   8.623  0.0658  0.4756  0.6770
35387SOL    HW110972   2.501   5.703   8.661 -0.3866  1.2001  0.4303
35387SOL    HW210973   2.611   5.804   8.687  0.0949  0.6702  0.4673
35388SOL     OW10974   2.274   8.435   4.553 -0.0128  0.6620  0.0281
35388SOL    HW110975   2.267   8.390   4.469 -1.0108 -0.2502  0.5686
35388SOL    HW210976   2.335   8.507   4.537  0.5019 -0.0223 -1.2385
35389SOL     OW10977  10.263   9.861   1.234  0.0805  0.1751  0.0872
35389SOL    HW110978  10.282   9.946   1.196  1.6668  0.5258  1.5322
35389SOL    HW210979  10.299   9.798   1.172  0.1217  0.6107 -0.3286
35390SOL     OW10980  11.843   2.338   4.489  0.5837 -0.6833  0.1504
35390SOL    HW110981  11.849   2.298   4.576 -0.0902  1.5327  1.2860
35390SOL    HW210982  11.761   2.305   4.453  0.4482 -0.9551  0.6954
35391SOL     OW10983   3.039   8.009  10.582  0.1314  0.0587  0.0235
35391SOL    HW110984   3.046   7.922  10.543  0.7235  0.6928 -1.3322
35391SOL    HW210985   2.945   8.020  10.598  0.0668 -0.8741  0.3579
35392SOL     OW10986   2.830   8.285   2.720 -0.2884  0.8022  0.3712
35392SOL    HW110987   2.860   8.334   2.797  0.3968 -0.1859  0.7540
35392SOL    HW210988   2.870   8.329   2.646  0.3905  0.7828  0.7194
35393SOL     OW10989   6.532   3.007   2.080 -0.1948 -0.3934  0.4211
35393SOL    HW110990   6.531   3.100   2.102  0.1955 -0.5611  1.1905
35393SOL    HW210991   6.598   2.999   2.011  1.8420 -0.4764  2.2608
35394SOL     OW10992   1.262   9.597  10.627  0.1889  0.8908 -0.1867
35394SOL    HW110993   1.192   9.533  10.616  1.8230 -1.3647  1.6995
35394SOL    HW210994   1.240   9.666  10.564 -3.5855  0.2573  0.1752
35395SOL     OW10995   7.283   6.001   7.972  0.5350 -1.0933 -0.5427
35395SOL    HW110996   7.358   6.041   8.017  0.0741 -1.4906  0.5987
35395SOL    HW210997   7.308   6.002   7.879  1.0509  0.7295 -0.4314
35396SOL     OW10998   6.821   7.437   8.717 -0.3236  0.2637  0.5840
35396SOL    HW110999   6.888   7.377   8.685 -0.6851  0.1851 -0.0463
35396SOL    HW211000   6.805   7.409   8.807  1.9581  1.5884  1.4921
35397SOL     OW11001   8.159  11.672   3.427 -0.3394  0.2281 -0.4473
35397SOL    HW111002   8.179  11.668   3.521  0.5172  0.1592 -0.6246
35397SOL    HW211003   8.128  11.585   3.406  1.7468 -0.5070 -0.7030
35398SOL     OW11004  10.116   4.690  10.524  0.4956 -0.1177  0.3253
35398SOL    HW111005  10.081   4.776  10.498 -0.9649 -0.7831 -0.0178
35398SOL    HW211006  10.157   4.656  10.445  0.0755 -0.2057  0.1420
35399SOL     OW11007  10.971  11.281   2.014 -0.0614 -0.1963 -0.2188
35399SOL    HW111008  11.021  11.200   2.023  2.3047  1.1776  0.0346
35399SOL    HW211009  10.949  11.286   1.921 -0.7679 -1.4157 -0.1225
35400SOL     OW11010   9.803   6.351  10.773  0.2757  0.0395 -0.0077
35400SOL    HW111011   9.774   6.435  10.737 -0.0611  1.2178  2.6983
35400SOL    HW211012   9.723   6.312  10.808  0.9143  0.4019  2.0243
35401SOL     OW11013   8.731   9.365   6.456 -0.2245 -0.3321 -0.6137
35401SOL    HW111014   8.795   9.436   6.452 -1.6617  0.9216 -2.4345
35401SOL    HW211015   8.732   9.326   6.369 -1.2026 -0.9810 -0.3512
35402SOL     OW11016  12.178   3.162  10.024  0.0244 -0.0578  0.1981
35402SOL    HW111017  12.142   3.241  10.065 -1.9267 -0.2110 -1.0630
35402SOL    HW211018  12.115   3.141   9.955  1.8205 -1.2937 -1.1409
35403SOL     OW11019   3.978   6.018   6.037 -0.5580 -0.5729 -0.2246
35403SOL    HW111020   4.046   6.084   6.048 -1.4278  0.5745 -1.3132
35403SOL    HW211021   4.019   5.936   6.063  1.3959 -0.0025 -1.2818
35404SOL     OW11022   3.518   7.861   2.885  0.2650  0.3451  0.1165
35404SOL    HW111023   3.484   7.925   2.822 -0.3214 -0.5509 -0.4902
35404SOL    HW211024   3.604   7.837   2.850  0.6022  0.9650  0.4823
35405SOL     OW11025   4.321   4.409   0.318  0.4797  0.3109  0.5693
35405SOL    HW111026   4.263   4.453   0.255 -0.0860  0.1573  0.9836
35405SOL    HW211027   4.287   4.320   0.324  2.7553 -0.8342 -1.7308
35406SOL     OW11028  12.448  10.447   9.058  0.1215 -0.3287  0.1154
35406SOL    HW111029  12.486  10.424   9.142  1.5414 -1.1900 -0.7223
35406SOL    HW211030  12.424  10.539   9.067  1.5176 -0.0234  1.0219
35407SOL     OW11031   6.954   7.694   1.542  0.1104  0.1727 -0.4286
35407SOL    HW111032   6.864   7.698   1.575 -0.7736  1.3598 -2.7043
35407SOL    HW211033   6.970   7.601   1.526 -0.9559 -0.0039 -0.5520
35408SOL     OW11034  11.563   4.133   7.463 -0.0609  0.6009 -0.2435
35408SOL    HW111035  11.524   4.050   7.490 -0.3552  0.2114 -1.7542
35408SOL    HW211036  11.488   4.192   7.451  0.1935  1.3483  1.5467
35409SOL     OW11037   1.213   2.558  10.413 -0.3336 -0.7643 -0.0032
35409SOL    HW111038   1.302   2.564  10.449 -0.6228  0.8387  0.5110
35409SOL    HW211039   1.165   2.506  10.478 -0.2641  0.1158  0.7753
35410SOL     OW11040   5.634   6.590   5.797  0.3048  0.8412  0.5158
35410SOL    HW111041   5.600   6.670   5.755  0.1997  1.1430  1.1610
35410SOL    HW211042   5.615   6.602   5.890 -0.3043 -0.2365  0.5479
35411SOL     OW11043   4.106   3.181   1.718  0.0364 -0.6095 -0.4294
35411SOL    HW111044   4.020   3.150   1.746  0.4328 -1.1875  0.1850
35411SOL    HW211045   4.143   3.223   1.796  0.7726 -1.3940 -0.3430
35412SOL     OW11046   3.745  11.467   9.666  0.1746  0.4159  0.3489
35412SOL    HW111047   3.719  11.529   9.735 -0.2282 -0.6536  1.1863
35412SOL    HW211048   3.663  11.447   9.621 -0.2450 -1.6156  1.8730
35413SOL     OW11049   2.753  11.096  11.882 -0.0976 -0.2932  0.5794
35413SOL    HW111050   2.748  11.100  11.787  2.7326  0.1518  0.3595
35413SOL    HW211051   2.777  11.005  11.901  3.2135  0.4395  0.4776
35414SOL     OW11052  10.011   9.888  12.602 -0.2019  0.1178 -0.9961
35414SOL    HW111053   9.922   9.891  12.568 -0.8588  0.7979  0.7082
35414SOL    HW211054  10.061   9.841  12.535 -1.9806 -0.9316 -1.6331
35415SOL     OW11055   4.059   2.666   8.716 -0.1620 -0.0225 -0.1920
35415SOL    HW111056   4.012   2.584   8.730  0.5533 -0.4291 -0.1557
35415SOL    HW211057   4.037   2.691   8.626  0.2576 -0.6708 -0.4785
35416SOL     OW11058   2.301   6.025   8.363  0.2506 -0.3733 -0.4152
35416SOL    HW111059   2.347   6.066   8.436  0.3111 -1.0917 -0.0362
35416SOL    HW211060   2.216   6.000   8.398 -0.7378  1.5576 -1.2979
35417SOL     OW11061   7.124   3.086   1.511  0.3588 -0.3378 -0.2760
35417SOL    HW111062   7.196   3.144   1.487 -1.5312  2.4763  0.4155
35417SOL    HW211063   7.071   3.080   1.432 -0.0322 -0.2020 -0.0259
35418SOL     OW11064   4.856  10.958   1.951 -0.6699 -0.1640  0.2545
35418SOL    HW111065   4.951  10.943   1.947 -0.6072  0.2245  0.2748
35418SOL    HW211066   4.833  10.992   1.865 -0.2227  2.9679  1.2646
35419SOL     OW11067  10.294   8.663  10.606 -0.0421  0.1821  0.0956
35419SOL    HW111068  10.289   8.693  10.696  0.7084 -1.1377  0.6072
35419SOL    HW211069  10.291   8.743  10.553 -2.1932  0.9028  1.1819
35420SOL     OW11070   3.171   4.889   1.927  0.1076  0.2909  0.6579
35420SOL    HW111071   3.240   4.942   1.887  0.5908 -0.8372 -0.0581
35420SOL    HW211072   3.216   4.808   1.953 -0.8089 -0.1872  0.7827
35421SOL     OW11073   5.079  11.597  10.609  0.4827 -0.4500 -0.5726
35421SOL    HW111074   5.087  11.606  10.514 -2.1726  0.5914 -0.7862
35421SOL    HW211075   5.006  11.536  10.621 -0.3522  0.7509  0.7503
35422SOL     OW11076  12.207   4.807   4.906 -0.1036 -0.0555 -0.3409
35422SOL    HW111077  12.210   4.827   4.999 -0.5169 -2.2009  0.1972
35422SOL    HW211078  12.263   4.872   4.865 -0.1094  1.0848  1.3652
35423SOL     OW11079   6.559   5.613  11.630 -0.4556 -0.8293 -0.5940
35423SOL    HW111080   6.607   5.593  11.549  2.0520 -0.0244  0.5907
35423SOL    HW211081   6.534   5.706  11.620  0.3636 -0.5635 -0.2232
35424SOL     OW11082   1.425  11.101   7.557  0.0323  0.3665  0.7826
35424SOL    HW111083   1.331  11.115   7.547 -0.1957 -0.6775  1.2895
35424SOL    HW211084   1.433  11.007   7.574  1.1154  0.5399  1.2995
35425SOL     OW11085   1.205   4.998   2.435  0.2938  0.1021 -0.4357
35425SOL    HW111086   1.220   5.003   2.341  1.4805  0.0315 -0.2614
35425SOL    HW211087   1.263   5.065   2.472 -0.8869  0.8112  0.1808
35426SOL     OW11088  11.672   5.431   2.964  0.0351  0.5429 -0.1286
35426SOL    HW111089  11.751   5.447   2.913  0.5784 -1.7996 -0.1343
35426SOL    HW211090  11.692   5.463   3.052 -0.0751  2.4932 -0.7636
35427SOL     OW11091   8.670   1.857   8.376 -0.3115 -0.1207  0.5744
35427SOL    HW111092   8.616   1.806   8.316  1.8213 -0.0017 -1.5733
35427SOL    HW211093   8.742   1.798   8.399  1.0760  1.1639 -0.2982
35428SOL     OW11094   8.104  10.377   1.964  0.3779 -0.2366 -0.2470
35428SOL    HW111095   8.187  10.403   1.924  1.2543 -1.4908  0.6935
35428SOL    HW211096   8.120  10.379   2.058 -1.9680  3.7198  0.3081
35429SOL     OW11097   4.747   8.172   6.213  0.1960 -0.5914 -0.1483
35429SOL    HW111098   4.697   8.093   6.234  0.2249 -0.5270  0.1819
35429SOL    HW211099   4.680   8.240   6.202  0.2335 -0.3476  0.9944
35430SOL     OW11100   6.640   1.336  11.960 -0.2840 -0.0783  0.2052
35430SOL    HW111101   6.652   1.242  11.945  0.1534 -0.2444  1.4588
35430SOL    HW211102   6.710   1.377  11.909  0.1172 -0.5085  0.3929
35431SOL     OW11103   7.450  10.136   3.331  0.2055  0.2344  0.4149
35431SOL    HW111104   7.444  10.232   3.332 -1.0198  0.1671  0.8958
35431SOL    HW211105   7.486  10.114   3.417  1.4631  0.2989 -0.0732
35432SOL     OW11106   8.490   4.764   5.284  0.0962  0.2175  0.3121
35432SOL    HW111107   8.561   4.730   5.231 -0.6046  0.6879 -0.9854
35432SOL    HW211108   8.412   4.755   5.229 -0.3991  2.2260  0.5834
35433SOL     OW11109   7.284   6.724   1.584  0.3749 -0.1130 -0.4105
35433SOL    HW111110   7.350   6.782   1.546  1.3589 -2.2003 -2.0839
35433SOL    HW211111   7.324   6.691   1.665 -0.3311  1.6752  0.7468
35434SOL     OW11112   8.493   2.740  11.620  0.0885  0.1274 -0.3153
35434SOL    HW111113   8.568   2.772  11.569 -1.6513  2.4696 -1.6127
35434SOL    HW211114   8.438   2.817  11.631 -1.1972 -1.0635  2.3786
35435SOL     OW11115   1.840   3.192  12.587  0.3978  0.1297 -0.5723
35435SOL    HW111116   1.857   3.174  12.494  0.5779 -2.5430 -0.1083
35435SOL    HW211117   1.748   3.172  12.599  1.0508 -2.7747  0.3829
35436SOL     OW11118   4.767   3.760   2.269  0.1296  0.8941 -0.3487
35436SOL    HW111119   4.694   3.788   2.324 -0.5856 -1.7821  0.2353
35436SOL    HW211120   4.726   3.714   2.196  1.1961 -0.8522  0.0951
35437SOL     OW11121  10.929  12.254   6.480 -0.1058  0.7962  0.6301
35437SOL    HW111122  10.860  12.308   6.441 -2.5506 -0.8208  2.4942
35437SOL    HW211123  10.958  12.197   6.408 -1.2263  1.0098 -0.0193
35438SOL     OW11124  10.540   3.213   9.815 -0.3841 -0.3744 -0.3738
35438SOL    HW111125  10.555   3.121   9.836  1.2738 -0.1694 -0.4858
35438SOL    HW211126  10.495   3.212   9.731 -2.6321 -1.1028  0.7622
35439SOL     OW11127   2.662   7.781   2.430 -0.2968 -0.0806  0.1740
35439SOL    HW111128   2.661   7.687   2.450  0.2401  0.2175  1.7133
35439SOL    HW211129   2.724   7.789   2.357 -0.4868 -0.9418 -0.0922
35440SOL     OW11130  11.609   3.784   4.374 -0.3786  0.7146 -0.2658
35440SOL    HW111131  11.578   3.706   4.329 -0.4472  1.3978 -1.4351
35440SOL    HW211132  11.654   3.835   4.306  1.1040  0.9398  0.8283
35441SOL     OW11133   9.087   9.502  11.936  0.3523 -0.5132 -0.7261
35441SOL    HW111134   8.995   9.527  11.925  0.5112  0.4466 -0.0072
35441SOL    HW211135   9.135   9.566  11.884  0.6685 -0.4710 -0.3799
35442SOL     OW11136   2.461  10.606   4.043  0.5773  0.0937  0.0284
35442SOL    HW111137   2.462  10.657   4.124  1.8337 -1.7932  1.2778
35442SOL    HW211138   2.492  10.519   4.069 -0.9992 -1.1896 -2.0978
35443SOL     OW11139   1.209   5.159   1.120 -0.1030  0.1414 -0.0567
35443SOL    HW111140   1.142   5.091   1.114 -0.6965  0.6714  0.4672
35443SOL    HW211141   1.176   5.230   1.065  0.8375 -0.2441 -1.1506
35444SOL     OW11142   0.203   2.896   8.207 -0.5392 -0.0402  0.4041
35444SOL    HW111143   0.252   2.882   8.125 -1.3169 -0.4992  0.0125
35444SOL    HW211144   0.160   2.980   8.194 -0.6437 -0.1019  0.3555
35445SOL     OW11145   1.176   5.174  12.443 -0.4663 -0.3627 -0.1817
35445SOL    HW111146   1.187   5.268  12.457  2.4243 -0.6293  0.0691
35445SOL    HW211147   1.212   5.159  12.356 -1.4703 -1.1789 -0.4720
35446SOL     OW11148   3.004   9.817   5.213  0.6305  0.2263  0.2992
35446SOL    HW111149   2.935   9.841   5.275 -0.3701 -0.5317 -0.4866
35446SOL    HW211150   3.055   9.897   5.201  1.2846  0.2331  2.5948
35447SOL     OW11151   3.426   0.335   2.039  0.3277  0.1849 -0.1282
35447SOL    HW111152   3.493   0.327   1.972 -0.4417  1.3522 -1.0704
35447SOL    HW211153   3.473   0.365   2.117  1.3163 -1.7375  0.0801
35448SOL     OW11154   8.302   7.497   6.577 -1.0275  0.5647 -0.0671
35448SOL    HW111155   8.366   7.444   6.625  0.5725  2.3740 -0.0506
35448SOL    HW211156   8.303   7.461   6.489  0.7446  1.0834 -0.3001
35449SOL     OW11157  10.949   1.624   6.796  0.0351 -0.4437 -0.0537
35449SOL    HW111158  10.917   1.711   6.821 -1.8642 -0.4147 -2.2428
35449SOL    HW211159  11.038   1.638   6.766 -0.5350  0.9596 -1.2124
35450SOL     OW11160   3.736  12.436  10.689 -0.1401 -0.2325 -0.7215
35450SOL    HW111161   3.718  12.530  10.688  1.6870  0.1583 -1.1266
35450SOL    HW211162   3.690  12.403  10.766  2.2070  1.7233  1.7276
35451SOL     OW11163   6.269   9.626   7.865 -0.4980 -0.2391 -0.2672
35451SOL    HW111164   6.359   9.601   7.843  0.1364  1.0133  0.7878
35451SOL    HW211165   6.270   9.638   7.960 -1.8637 -0.4719 -0.2034
35452SOL     OW11166   4.755   4.751   0.416 -0.1113 -0.2827  0.1172
35452SOL    HW111167   4.767   4.795   0.332 -1.6492  2.9201  1.3565
35452SOL    HW211168   4.665   4.717   0.412 -0.0909 -0.3641  0.3463
35453SOL     OW11169   2.229   8.489   9.475 -0.0011 -0.1989  0.0843
35453SOL    HW111170   2.268   8.425   9.536 -0.9310 -2.1725 -1.2735
35453SOL    HW211171   2.304   8.535   9.438  0.6336  0.3564  1.9646
35454SOL     OW11172   7.686   7.370  10.321 -0.3540  0.7959  0.3296
35454SOL    HW111173   7.709   7.359  10.229 -1.0650  1.9160 -0.0080
35454SOL    HW211174   7.676   7.281  10.355  0.1009  0.3734 -0.6217
35455SOL     OW11175   3.389   9.668   0.354 -0.3572 -0.0328  0.2280
35455SOL    HW111176   3.325   9.674   0.284  0.4546 -0.5489 -0.5862
35455SOL    HW211177   3.389   9.754   0.395 -0.7690  0.3017 -0.4666
35456SOL     OW11178  11.710   5.833   5.473  0.2348 -0.6427 -0.6000
35456SOL    HW111179  11.639   5.839   5.537  0.5045  0.8171 -0.4093
35456SOL    HW211180  11.727   5.739   5.465 -0.6910 -0.9251  0.4776
35457SOL     OW11181   9.874   0.667   8.584  0.0077 -0.2198 -0.2459
35457SOL    HW111182   9.840   0.650   8.497  1.2000 -0.4535 -0.6743
35457SOL    HW211183   9.965   0.639   8.581  0.4514  1.0373  0.6681
35458SOL     OW11184  12.393   3.852   6.403  0.3039  0.0895  0.5021
35458SOL    HW111185  12.463   3.789   6.383 -0.6760 -0.9837  0.3123
35458SOL    HW211186  12.329   3.801   6.453 -0.4033  1.0125  0.5591
35459SOL     OW11187   5.414  11.694   3.508  0.0753 -0.2641 -0.1056
35459SOL    HW111188   5.331  11.728   3.477 -0.8549 -1.7486  0.6535
35459SOL    HW211189   5.441  11.756   3.577 -0.8692 -0.2746  0.2884
35460SOL     OW11190   7.053   8.574   9.335 -0.1860 -0.3519 -0.2517
35460SOL    HW111191   6.965   8.537   9.324 -0.7339  0.8317 -0.0024
35460SOL    HW211192   7.092   8.523   9.406 -1.0824 -0.1658  0.3812
35461SOL     OW11193   8.779   4.015   5.727  0.1297 -0.3136  0.5505
35461SOL    HW111194   8.794   3.922   5.710 -0.5530 -0.4299  0.5525
35461SOL    HW211195   8.688   4.020   5.757  0.6430  0.1360  2.1956
35462SOL     OW11196   2.505   5.406   7.912 -0.4515 -0.2187  0.0193
35462SOL    HW111197   2.505   5.495   7.946 -0.4659 -0.3918  0.4747
35462SOL    HW211198   2.517   5.351   7.989  0.0435 -0.5920 -0.3164
35463SOL     OW11199  12.385   0.932   4.018  0.2163  0.1433  0.1855
35463SOL    HW111200  12.390   0.874   3.942  2.9791 -1.1003  1.2045
35463SOL    HW211201  12.347   0.877   4.087 -1.8595  1.1337 -0.0905
35464SOL     OW11202  12.123   9.375   2.715  0.2153 -0.1443 -0.0455
35464SOL    HW111203  12.080   9.293   2.740  1.3311 -1.3169 -1.7525
35464SOL    HW211204  12.206   9.373   2.763 -0.3231  0.6746  0.9517
35465SOL     OW11205   6.617  11.121   1.081 -0.0774  0.2798 -0.0947
35465SOL    HW111206   6.671  11.106   1.004  1.0254 -0.8536  0.8547
35465SOL    HW211207   6.647  11.205   1.116 -0.3152  0.6082 -0.6629
35466SOL     OW11208   8.381   1.860   8.929 -0.4180 -0.1475  0.2144
35466SOL    HW111209   8.392   1.765   8.926  0.2803 -0.0428 -0.9759
35466SOL    HW211210   8.296   1.876   8.888  0.8527 -0.0749 -2.6029
35467SOL     OW11211   4.640   4.319   9.728  0.3189  0.2197  0.2881
35467SOL    HW111212   4.681   4.304   9.643 -0.7697  0.8092 -0.3640
35467SOL    HW211213   4.620   4.231   9.760  1.6484 -0.0582  0.4244
35468SOL     OW11214   1.229   4.215  11.842  0.0577  0.1462 -0.1342
35468SOL    HW111215   1.241   4.121  11.844  2.0537  0.3821  0.6639
35468SOL    HW211216   1.244   4.244  11.932 -0.0549  1.2781 -0.4634
35469SOL     OW11217   1.516   7.240  11.702  0.2711  0.1295  0.9266
35469SOL    HW111218   1.437   7.279  11.665 -0.3302 -1.2669  0.6865
35469SOL    HW211219   1.495   7.147  11.712  2.5642 -0.7201 -1.0803
35470SOL     OW11220   4.098  11.790   0.328  0.0669  0.4521  0.0654
35470SOL    HW111221   4.011  11.758   0.354 -0.1187  1.5363  0.8891
35470SOL    HW211222   4.121  11.738   0.251 -1.6415  0.6362 -0.6179
35471SOL     OW11223   7.580  11.216   5.988  1.0171 -0.5258  0.1046
35471SOL    HW111224   7.573  11.225   5.893  0.9965 -0.2547  0.1308
35471SOL    HW211225   7.666  11.252   6.009  0.3854  0.9026  0.3656
35472SOL     OW11226   5.868   4.437  11.262  0.1331  0.2579  0.0361
35472SOL    HW111227   5.838   4.349  11.284  0.2888 -0.0554 -0.9686
35472SOL    HW211228   5.936   4.456  11.326  1.9121 -1.3808 -1.2411
35473SOL     OW11229   8.516  11.185   8.507  0.0207 -0.5310  0.0671
35473SOL    HW111230   8.436  11.208   8.461 -0.4809  0.1070  1.2276
35473SOL    HW211231   8.491  11.110   8.562  0.2127 -0.3316  0.4298
35474SOL     OW11232   1.686   6.299   1.016 -0.2785  0.2025 -0.3765
35474SOL    HW111233   1.730   6.363   0.960  0.6145 -1.4699 -1.6641
35474SOL    HW211234   1.741   6.293   1.094  0.1546  0.3174 -0.6695
35475SOL     OW11235   2.666   7.476  10.198  0.0105  0.0175  1.0825
35475SOL    HW111236   2.640   7.417  10.128  0.1406  2.4730 -1.1848
35475SOL    HW211237   2.592   7.535  10.209  1.7148  2.7165 -0.5763
35476SOL     OW11238  12.105   4.381   0.131 -0.4757  0.1059 -0.0901
35476SOL    HW111239  12.137   4.293   0.108  0.0376  0.2769 -0.0559
35476SOL    HW211240  12.174   4.440   0.099 -0.0493  0.3944  1.2970
35477SOL     OW11241   8.232   0.240   0.608  0.0122  0.2165  0.2265
35477SOL    HW111242   8.198   0.180   0.542  0.0061 -2.6149  2.5783
35477SOL    HW211243   8.317   0.268   0.575 -0.6863  0.2171 -1.6658
35478SOL     OW11244  10.550  10.521  11.852  0.4593 -0.2998  0.0115
35478SOL    HW111245  10.607  10.509  11.777  1.6825  1.6193  0.5879
35478SOL    HW211246  10.609  10.522  11.927 -0.0513  3.0027  0.5209
35479SOL     OW11247   8.021   9.290   1.639  0.7871 -1.4322 -0.2510
35479SOL    HW111248   7.959   9.321   1.573  2.2949 -1.9629 -2.0218
35479SOL    HW211249   7.969   9.281   1.719 -0.9075  0.1933 -1.0865
35480SOL     OW11250  10.858   7.681   0.353 -0.1601  0.0999 -0.1886
35480SOL    HW111251  10.817   7.638   0.278 -1.3426 -0.1579  0.5840
35480SOL    HW211252  10.919   7.616   0.387 -0.8906 -0.4383  0.1069
35481SOL     OW11253   6.784   1.121   1.774  0.9153 -0.2292 -0.6080
35481SOL    HW111254   6.780   1.050   1.710  1.4478 -1.7151  0.9292
35481SOL    HW211255   6.699   1.165   1.767  1.3021  0.2684 -2.9456
35482SOL     OW11256   9.958   1.086   5.934  0.3523 -0.0095 -0.5294
35482SOL    HW111257   9.982   1.002   5.974  1.1605  0.0400 -0.8961
35482SOL    HW211258   9.863   1.090   5.942  0.4369 -0.2782  0.8445
35483SOL     OW11259   8.766   2.029   0.416  0.3679 -0.2663 -0.2049
35483SOL    HW111260   8.715   1.995   0.490 -0.0986 -0.4986 -0.6293
35483SOL    HW211261   8.785   1.952   0.363  0.7721 -0.1101 -0.2866
35484SOL     OW11262  11.314   6.510   7.514 -0.3305  0.3764  0.0829
35484SOL    HW111263  11.227   6.549   7.511 -0.6119 -0.2867 -2.2485
35484SOL    HW211264  11.373   6.584   7.531 -1.2462  0.9439  0.9403
35485SOL     OW11265   2.838   5.588  11.199  0.0191 -0.2115  0.5046
35485SOL    HW111266   2.768   5.570  11.137  1.2057 -0.5020 -0.7957
35485SOL    HW211267   2.909   5.626  11.146  0.9580 -0.1973  1.7166
35486SOL     OW11268   5.236   4.204   5.563  0.4455  0.2183 -0.0330
35486SOL    HW111269   5.266   4.113   5.564  0.4926  0.2253  0.9243
35486SOL    HW211270   5.314   4.255   5.587  0.6870  0.6229 -1.5578
35487SOL     OW11271   3.581   7.741   6.331 -0.2825  0.4153 -0.3766
35487SOL    HW111272   3.511   7.779   6.386  0.8487  1.0656  0.6559
35487SOL    HW211273   3.592   7.652   6.366 -0.1179  0.5531 -0.0700
35488SOL     OW11274  10.994   8.469  11.769 -0.3085 -0.0889 -0.1355
35488SOL    HW111275  10.967   8.411  11.698 -0.8757 -0.4251  0.3393
35488SOL    HW211276  11.081   8.500  11.744  0.1862 -1.4703 -0.2007
35489SOL     OW11277   9.782   9.042  12.481 -0.3752 -0.1716  0.1410
35489SOL    HW111278   9.805   9.095  12.404  0.1204 -2.0477 -1.0822
35489SOL    HW211279   9.855   8.980  12.489 -0.4699 -0.0751  2.1009
35490SOL     OW11280   5.618   4.135   9.914  0.0658  0.0008  0.0493
35490SOL    HW111281   5.701   4.165   9.951  1.8967 -0.2911 -3.4743
35490SOL    HW211282   5.581   4.212   9.872 -1.4460  0.0768  1.4066
35491SOL     OW11283   1.342  10.577   9.731 -0.6517  0.4579  0.3896
35491SOL    HW111284   1.434  10.592   9.752 -0.2036 -1.0342 -0.3492
35491SOL    HW211285   1.305  10.665   9.722  0.7791  1.0868  0.3355
35492SOL     OW11286  10.823   4.567  11.073  0.1688  0.1005 -0.3157
35492SOL    HW111287  10.766   4.612  11.010  0.8244 -0.8716 -1.6617
35492SOL    HW211288  10.763   4.514  11.125 -0.2666 -0.2184 -1.1150
35493SOL     OW11289   3.644   3.480   5.528  0.2340  0.1444  0.0666
35493SOL    HW111290   3.692   3.429   5.594  0.2547 -2.9038 -2.0599
35493SOL    HW211291   3.552   3.469   5.551  0.3085  0.7642  0.6755
35494SOL     OW11292   2.946   9.038   9.465  0.0586 -0.0230 -0.0220
35494SOL    HW111293   2.919   9.091   9.390  0.6667  0.1471 -0.1285
35494SOL    HW211294   2.893   9.069   9.538 -0.4591 -0.1140 -0.3597
35495SOL     OW11295  10.310   1.420   9.383 -0.3690 -0.4052 -0.6210
35495SOL    HW111296  10.250   1.473   9.330  0.6351  1.1770 -0.2378
35495SOL    HW211297  10.287   1.329   9.361 -3.5507  0.0575  0.2548
35496SOL     OW11298  10.517   8.787   3.582  0.2019 -0.2719 -0.1197
35496SOL    HW111299  10.479   8.862   3.628  2.7250 -0.1017  1.9063
35496SOL    HW211300  10.571   8.826   3.513  0.1467 -0.3062 -0.1822
35497SOL     OW11301   3.082   7.351   1.189 -0.1893 -0.4926 -0.0874
35497SOL    HW111302   3.044   7.351   1.101  0.4822 -0.7981 -0.3818
35497SOL    HW211303   3.176   7.357   1.175 -0.0627 -0.7492  0.6060
35498SOL     OW11304   0.535  10.838   5.566  0.4244  0.2174  0.1574
35498SOL    HW111305   0.504  10.891   5.639  0.5476  0.2928  0.1564
35498SOL    HW211306   0.463  10.778   5.547  0.8419 -0.6223  1.1193
35499SOL     OW11307  12.069   6.720   3.960  0.0227  0.1656  0.2667
35499SOL    HW111308  12.158   6.743   3.932  0.2624 -0.6836  0.2971
35499SOL    HW211309  12.081   6.681   4.046 -0.4212  0.3728  0.4221
35500SOL     OW11310  10.783   1.244   4.959 -0.7069 -0.2108 -0.1890
35500SOL    HW111311  10.710   1.287   5.004 -0.2774  2.0185 -1.4981
35500SOL    HW211312  10.848   1.229   5.028 -1.2217  0.4778  0.4559
35501SOL     OW11313   5.895  11.653   2.357 -0.1564  0.2397  0.3201
35501SOL    HW111314   5.952  11.635   2.282  0.5257 -0.4583  0.9853
35501SOL    HW211315   5.956  11.670   2.429 -0.8051  1.1173  0.6720
35502SOL     OW11316   3.608   5.844   7.572 -0.1498  0.1082  0.2250
35502SOL    HW111317   3.624   5.926   7.526 -0.0398  0.6361  1.1694
35502SOL    HW211318   3.557   5.869   7.649 -0.9102 -0.8367  0.0598
35503SOL     OW11319  10.091   5.416   5.908  0.4509  0.1886 -0.4216
35503SOL    HW111320  10.020   5.397   5.848 -0.5521  0.0848  0.7550
35503SOL    HW211321  10.169   5.380   5.866 -0.5948 -2.0646 -0.5761
35504SOL     OW11322   1.781   8.781  12.216 -0.2686  0.1386 -0.9597
35504SOL    HW111323   1.856   8.817  12.264 -0.0616 -1.0729 -0.3373
35504SOL    HW211324   1.738   8.858  12.178 -0.0025  1.0814  0.5470
35505SOL     OW11325  11.855   7.103   7.896 -0.1809  0.5251 -0.0700
35505SOL    HW111326  11.938   7.056   7.910 -1.0415 -1.4675 -1.2761
35505SOL    HW211327  11.803   7.082   7.973 -0.0953  0.5476 -0.0055
35506SOL     OW11328   0.809   7.717   5.541 -0.3952 -0.7574  0.4190
35506SOL    HW111329   0.875   7.653   5.517 -0.6795 -0.3603 -1.6030
35506SOL    HW211330   0.729   7.686   5.499 -1.1344 -0.3869  1.5063
35507SOL     OW11331   1.681   3.547  10.568 -0.1335  0.1859 -0.2023
35507SOL    HW111332   1.677   3.494  10.648 -1.1254  0.8199  0.1767
35507SOL    HW211333   1.740   3.497  10.510  0.2894 -0.4768  0.7617
35508SOL     OW11334   5.013  11.060  10.028 -0.0477  0.3171  0.4161
35508SOL    HW111335   4.992  11.010  10.107  2.0548  0.1421  0.9050
35508SOL    HW211336   5.071  11.002   9.978 -1.4826  0.3413 -1.3913
35509SOL     OW11337   3.804   2.802   5.001 -0.4911  1.2023 -0.3667
35509SOL    HW111338   3.750   2.810   5.080  0.4199  0.0552  0.4084
35509SOL    HW211339   3.865   2.875   5.006  0.9143  0.0158  1.1320
35510SOL     OW11340   1.678  11.805   4.393  0.2336  0.2595  0.3187
35510SOL    HW111341   1.592  11.816   4.433  0.0646 -0.0916  0.0612
35510SOL    HW211342   1.720  11.890   4.401  0.2897  0.1356  1.4396
35511SOL     OW11343   0.242   4.786   7.243 -0.7626 -0.4891 -0.5279
35511SOL    HW111344   0.235   4.863   7.188 -1.3089  0.1469  0.4018
35511SOL    HW211345   0.211   4.815   7.329  3.6961 -0.3082  1.2531
35512SOL     OW11346  12.084   0.438   4.379  0.0281 -0.3007 -0.3742
35512SOL    HW111347  12.006   0.491   4.389 -1.7567 -2.5468 -1.4202
35512SOL    HW211348  12.114   0.423   4.469 -0.3992  1.0224  0.0111
35513SOL     OW11349   5.862   0.918   9.002 -0.1277 -0.2773 -0.0388
35513SOL    HW111350   5.816   0.834   8.999 -0.8293 -0.0217  2.1886
35513SOL    HW211351   5.797   0.980   9.036  1.4571  0.3457  2.0654
35514SOL     OW11352   7.725   8.283   4.635 -0.0961 -0.2883  0.2082
35514SOL    HW111353   7.645   8.257   4.591 -1.2440  0.1062  1.9466
35514SOL    HW211354   7.755   8.204   4.680  0.2205 -0.3110 -0.0395
35515SOL     OW11355   7.589   6.064  10.559 -0.4910 -0.2729  0.3774
35515SOL    HW111356   7.508   6.019  10.582  0.6050 -1.6280  1.7322
35515SOL    HW211357   7.613   6.027  10.474 -1.7142  0.8174 -0.5020
35516SOL     OW11358   5.283   5.413   7.216 -0.0366 -0.2504 -0.5676
35516SOL    HW111359   5.224   5.487   7.224 -0.7857 -0.7732 -1.1823
35516SOL    HW211360   5.367   5.451   7.189 -0.2136  0.4428 -0.1398
35517SOL     OW11361   4.461   4.833   9.346 -0.0894  0.4504  0.1379
35517SOL    HW111362   4.402   4.762   9.369  1.5034 -1.4727 -1.3390
35517SOL    HW211363   4.443   4.849   9.253  2.5092 -1.1463 -0.7535
35518SOL     OW11364   1.676   3.510   0.172 -0.0331  0.3335  0.2041
35518SOL    HW111365   1.703   3.424   0.204  3.1700  1.3845  0.5990
35518SOL    HW211366   1.678   3.567   0.249 -1.9327  0.8839 -0.0822
35519SOL     OW11367  12.070   0.809   8.555 -0.7927  0.1475  0.1291
35519SOL    HW111368  11.980   0.820   8.588 -1.2041  1.0357 -1.2024
35519SOL    HW211369  12.092   0.894   8.516 -0.6605 -1.0015 -2.5627
35520SOL     OW11370   2.912   8.665  10.583  0.5015  0.4039 -0.1187
35520SOL    HW111371   2.922   8.576  10.549 -0.1884 -0.6220  2.1041
35520SOL    HW211372   2.975   8.670  10.655 -0.3190  1.2435  0.5686
35521SOL     OW11373   6.526   4.212  12.611 -0.0391 -0.1836  0.0261
35521SOL    HW111374   6.502   4.121  12.590 -0.6742  0.1614 -0.7843
35521SOL    HW211375   6.595   4.234  12.549 -0.4896  0.1632 -0.3615
35522SOL     OW11376   0.616   1.653   7.255 -0.3020 -0.2677  0.1494
35522SOL    HW111377   0.520   1.657   7.251 -0.4110 -2.3403 -0.4103
35522SOL    HW211378   0.638   1.696   7.337 -1.5341  2.1198 -0.6893
35523SOL     OW11379   0.631   5.489   1.439 -0.3621 -0.4230  0.3338
35523SOL    HW111380   0.557   5.548   1.422 -0.7324 -1.0452 -0.2934
35523SOL    HW211381   0.664   5.467   1.352 -0.5319 -1.5126  0.5358
35524SOL     OW11382   3.198   9.000   0.944 -0.4179  0.0898 -0.0130
35524SOL    HW111383   3.176   8.972   0.855 -1.2561  0.1352  0.1725
35524SOL    HW211384   3.171   8.927   1.000 -0.1486  0.1770  0.2378
35525SOL     OW11385   3.096   0.736   5.394  0.6280  0.3149  0.0649
35525SOL    HW111386   3.078   0.716   5.302  2.4123 -0.3242 -0.1798
35525SOL    HW211387   3.188   0.760   5.396  1.2824 -2.0278  2.0427
35526SOL     OW11388   7.896  12.076   0.285  0.1511  0.0301 -0.4195
35526SOL    HW111389   7.819  12.046   0.333 -0.5181  0.2580 -1.3446
35526SOL    HW211390   7.959  12.004   0.294 -0.7856 -0.8973 -1.0771
35527SOL     OW11391   7.750   6.329  11.891  0.2888 -0.1931 -0.3007
35527SOL    HW111392   7.807   6.270  11.843  0.4486 -0.2400 -0.0532
35527SOL    HW211393   7.702   6.272  11.952  0.4105 -0.0748 -0.0933
35528SOL     OW11394   1.370   4.653   2.150  0.4910 -0.0501 -0.1872
35528SOL    HW111395   1.285   4.611   2.156  0.3644  0.0012 -1.4317
35528SOL    HW211396   1.433   4.581   2.145  0.5769 -0.0923  1.2142
35529SOL     OW11397   6.920   3.258   2.935  0.1561  0.5243 -0.6807
35529SOL    HW111398   6.989   3.270   3.000  0.2445  0.0716 -0.6869
35529SOL    HW211399   6.946   3.314   2.862  0.2635  0.7250 -0.4910
35530SOL     OW11400   4.765   0.012   2.857  0.0606  0.3785  0.4963
35530SOL    HW111401   4.828   0.071   2.898  0.6432  0.5739 -0.6469
35530SOL    HW211402   4.790  -0.075   2.889  2.7676  0.0631 -2.0624
35531SOL     OW11403  10.505  10.251  10.615 -0.0528  0.0965  0.2225
35531SOL    HW111404  10.541  10.292  10.694 -0.3040  0.5539  0.1016
35531SOL    HW211405  10.515  10.157  10.631  1.3161  0.2029  0.1405
35532SOL     OW11406   8.126   4.670  11.559  0.9041 -0.1209 -0.0104
35532SOL    HW111407   8.071   4.698  11.486 -0.5442 -0.7072  0.8023
35532SOL    HW211408   8.130   4.745  11.617  1.0429 -0.0478 -0.1139
35533SOL     OW11409   3.728  11.768  10.435  0.1632  1.0261  0.6520
35533SOL    HW111410   3.819  11.757  10.461  0.1540  0.1553  0.3457
35533SOL    HW211411   3.692  11.830  10.499  0.6534  0.4231  1.5242
35534SOL     OW11412  10.080   4.219  10.501  0.8436 -0.3740 -0.1617
35534SOL    HW111413  10.064   4.298  10.552 -1.2646 -1.0933  0.3876
35534SOL    HW211414  10.119   4.251  10.420 -1.3016  1.4409 -0.5816
35535SOL     OW11415  10.544  10.824   0.199 -0.0559 -0.4868  0.2310
35535SOL    HW111416  10.577  10.738   0.227  0.2722 -0.9465 -1.4508
35535SOL    HW211417  10.452  10.824   0.223 -0.1234 -1.4336 -0.0017
35536SOL     OW11418   7.793  12.370   8.200 -0.3902 -0.2156  0.1147
35536SOL    HW111419   7.751  12.339   8.281 -2.2030 -1.4824 -1.2384
35536SOL    HW211420   7.746  12.325   8.130  1.4046  0.5345 -1.6548
35537SOL     OW11421   2.926   6.353   2.929  0.6004  0.9654  0.1038
35537SOL    HW111422   2.857   6.416   2.910  0.5064  0.6982 -0.4837
35537SOL    HW211423   2.881   6.282   2.975  0.4821  0.8175 -0.2282
35538SOL     OW11424   7.899   9.807  12.431 -0.5744  0.3080  0.5447
35538SOL    HW111425   7.878   9.717  12.406 -0.2475  0.2472  0.4803
35538SOL    HW211426   7.975   9.798  12.489  1.4841  0.7218 -1.9094
35539SOL     OW11427   8.871   8.233   1.481  0.5954 -0.0150 -0.1024
35539SOL    HW111428   8.886   8.170   1.551  0.1109 -1.6721 -1.4200
35539SOL    HW211429   8.947   8.222   1.423  0.6350  0.8152 -0.2150
35540SOL     OW11430  10.054   0.657   1.764  0.2092 -0.3916  0.3745
35540SOL    HW111431  10.011   0.676   1.681  0.8072  0.7882  0.3122
35540SOL    HW211432   9.997   0.593   1.807  0.2682 -1.5681 -1.2380
35541SOL     OW11433   5.022  10.844   4.582  0.2521  0.3365 -0.1447
35541SOL    HW111434   4.964  10.771   4.602  0.0044 -0.3891 -3.0808
35541SOL    HW211435   4.964  10.920   4.576 -0.0725  0.0409 -0.8354
35542SOL     OW11436  11.656   6.805   6.553 -0.2492  0.2159  0.2746
35542SOL    HW111437  11.697   6.884   6.518  0.6478 -0.3738 -0.0177
35542SOL    HW211438  11.728   6.750   6.582 -0.8451 -0.6422  0.1879
35543SOL     OW11439   3.550   6.793  12.334  0.7117  0.1431 -0.0981
35543SOL    HW111440   3.604   6.780  12.412 -1.0050 -0.5609  1.0315
35543SOL    HW211441   3.525   6.885  12.337 -0.8626 -0.2761  1.2770
35544SOL     OW11442   2.595   6.487  12.304 -0.1644 -0.3766  0.3428
35544SOL    HW111443   2.586   6.404  12.257  1.4323  0.0115 -0.7724
35544SOL    HW211444   2.688   6.509  12.295 -0.8010  2.3012 -0.7976
35545SOL     OW11445   0.744   7.559   8.987 -0.1599  0.1533 -0.2336
35545SOL    HW111446   0.708   7.567   9.075  1.7104  4.0000  0.3656
35545SOL    HW211447   0.693   7.620   8.934  0.7339  0.1908 -1.0815
35546SOL     OW11448   1.958   3.965   0.707 -0.2131  0.1169 -0.3059
35546SOL    HW111449   2.045   3.932   0.687 -0.6255 -1.2295  0.0015
35546SOL    HW211450   1.905   3.886   0.722 -0.7514  0.9018  2.6114
35547SOL     OW11451   9.081   1.567   5.293  0.0642  0.4634 -0.6248
35547SOL    HW111452   9.043   1.484   5.321  1.9851 -1.1613 -2.4742
35547SOL    HW211453   9.056   1.576   5.202  0.7532  1.3863 -0.7433
35548SOL     OW11454   1.620   8.086   3.828  0.3145 -0.3188 -0.0202
35548SOL    HW111455   1.552   8.020   3.838 -1.0250  1.2587  2.5687
35548SOL    HW211456   1.580   8.153   3.773  1.8639 -1.7200 -3.1168
35549SOL     OW11457   1.379   3.512   5.972  0.7282  0.4103  0.0107
35549SOL    HW111458   1.319   3.437   5.970 -0.3423  1.2493 -1.5485
35549SOL    HW211459   1.361   3.554   6.056 -1.0326  0.7142 -0.4641
35550SOL     OW11460   1.331   0.347   1.230 -0.5604  0.0685  0.0817
35550SOL    HW111461   1.415   0.357   1.186 -1.3502  3.5194 -0.8994
35550SOL    HW211462   1.350   0.290   1.305  2.3182 -0.3151 -0.8259
35551SOL     OW11463   8.763   7.809  10.502 -0.4136  0.0901 -1.0697
35551SOL    HW111464   8.746   7.869  10.430 -0.7329 -0.1655 -1.2072
35551SOL    HW211465   8.679   7.799  10.546  0.0776  1.3582  0.2023
35552SOL     OW11466  11.162   4.565   8.834  0.1347  0.1204  0.0862
35552SOL    HW111467  11.184   4.658   8.835  0.7833 -0.0142 -0.8045
35552SOL    HW211468  11.227   4.525   8.892 -1.0119  0.3738  1.6258
35553SOL     OW11469   1.151  11.237   1.521  0.5235  0.6196 -0.4426
35553SOL    HW111470   1.084  11.228   1.590 -1.1292 -2.1406 -2.2394
35553SOL    HW211471   1.105  11.281   1.450  0.2023 -2.0321 -2.0118
35554SOL     OW11472   0.916   2.571   8.172 -0.1068 -0.3927  0.0768
35554SOL    HW111473   1.007   2.569   8.143  0.1313 -2.7272  0.7452
35554SOL    HW211474   0.867   2.602   8.096  1.2307  1.1540 -0.2123
35555SOL     OW11475  11.877   9.239   8.459 -0.0835  0.0716 -0.0012
35555SOL    HW111476  11.923   9.188   8.392  2.9624  1.1923  1.0162
35555SOL    HW211477  11.793   9.262   8.419  1.5806  0.7530 -3.5122
35556SOL     OW11478   8.760   1.078   5.319 -0.2396  0.0557  0.5177
35556SOL    HW111479   8.755   1.096   5.413  0.3132 -0.7615  0.7171
35556SOL    HW211480   8.675   1.040   5.298 -0.9042  1.5541  0.3729
35557SOL     OW11481  10.001   4.124  12.159 -0.2413  0.5944 -0.1342
35557SOL    HW111482  10.048   4.047  12.126 -0.0941  1.5449 -2.3387
35557SOL    HW211483   9.973   4.170  12.080 -0.8018  2.5326  1.1299
35558SOL     OW11484   0.340   2.283   2.533  0.0481  0.3849 -0.6950
35558SOL    HW111485   0.302   2.239   2.610 -0.3876  0.6614 -0.7468
35558SOL    HW211486   0.403   2.345   2.570  0.8165 -0.4235 -0.6313
35559SOL     OW11487   1.722   6.109   1.380 -0.2236 -0.6034  0.2167
35559SOL    HW111488   1.796   6.081   1.434  1.4220  1.4238 -0.8297
35559SOL    HW211489   1.757   6.180   1.326 -3.0075  0.5974 -0.1950
35560SOL     OW11490  10.678   8.971   3.369 -0.0360  0.4845  0.4569
35560SOL    HW111491  10.603   9.030   3.358  0.0660  0.6105  0.4374
35560SOL    HW211492  10.670   8.908   3.298  1.3405  2.0504 -1.1796
35561SOL     OW11493   2.498   7.365   1.649 -0.0352 -0.1217  0.2517
35561SOL    HW111494   2.553   7.426   1.599 -0.9105  0.7570  0.3163
35561SOL    HW211495   2.552   7.339   1.723  0.7771 -0.3389 -0.4062
35562SOL     OW11496  10.666   1.517   5.952 -0.0582 -0.0890 -0.1588
35562SOL    HW111497  10.707   1.504   6.038  1.0578 -0.1561 -0.6824
35562SOL    HW211498  10.663   1.430   5.913 -1.1592 -0.1617  0.0530
35563SOL     OW11499  12.153   9.432   4.989  0.0662 -0.2874 -0.1831
35563SOL    HW111500  12.222   9.418   4.924  0.6005 -2.3600  0.7591
35563SOL    HW211501  12.188   9.395   5.070 -2.1909 -1.5915  0.2904
35564SOL     OW11502   0.115   2.794   2.329 -0.3224  0.5258 -0.1897
35564SOL    HW111503   0.136   2.706   2.359 -2.0812  0.2299  0.2923
35564SOL    HW211504   0.112   2.847   2.409  0.8827  1.0941 -0.4908
35565SOL     OW11505   7.399   8.715   9.169  0.1157  0.1430  0.3034
35565SOL    HW111506   7.384   8.782   9.102 -1.8333 -0.6488 -0.1114
35565SOL    HW211507   7.323   8.722   9.227  1.2178  0.0608  1.8382
35566SOL     OW11508   3.540   9.025   2.385  0.2738 -0.1307 -0.5000
35566SOL    HW111509   3.497   9.039   2.300  0.1130  1.1127 -0.2344
35566SOL    HW211510   3.473   9.045   2.450  0.8459  0.5048 -0.0846
35567SOL     OW11511   4.930  10.482   8.104 -0.5526 -0.9188  0.1155
35567SOL    HW111512   4.941  10.577   8.096 -2.8352 -0.6383 -0.4102
35567SOL    HW211513   5.015  10.446   8.078  0.0658  0.9542 -0.6406
35568SOL     OW11514   0.176   1.511  10.105 -0.0956  0.3476 -0.1929
35568SOL    HW111515   0.178   1.424  10.146 -0.7095  0.4375  0.0273
35568SOL    HW211516   0.207   1.495  10.016  0.2563 -0.0177 -0.0102
35569SOL     OW11517   5.243  12.296  10.395 -0.2913 -0.1408 -0.2173
35569SOL    HW111518   5.290  12.302  10.312 -1.5525 -0.5650 -0.9941
35569SOL    HW211519   5.171  12.359  10.386 -2.3713 -2.4187 -0.8151
35570SOL     OW11520   6.651   2.281   6.860 -0.1561  0.0423 -0.5458
35570SOL    HW111521   6.557   2.300   6.855 -0.8717 -2.8113  0.2519
35570SOL    HW211522   6.657   2.187   6.839  2.1155 -0.5908  2.4039
35571SOL     OW11523  11.988   6.776   7.081  0.0545  0.5396 -0.2620
35571SOL    HW111524  11.927   6.828   7.133 -0.1476 -1.2087  1.3617
35571SOL    HW211525  12.064   6.834   7.070  0.4701  0.7664  2.7718
35572SOL     OW11526   9.418   7.921   1.995  0.0379 -0.0892 -0.0832
35572SOL    HW111527   9.463   7.996   2.035 -1.0136  0.1694  0.6614
35572SOL    HW211528   9.414   7.942   1.902  1.2189  0.0035 -0.1210
35573SOL     OW11529   8.145   0.448   1.732 -0.2924 -0.5347 -0.6752
35573SOL    HW111530   8.098   0.490   1.804 -0.9501 -0.8462 -0.9203
35573SOL    HW211531   8.225   0.414   1.773 -1.1727 -1.7015  0.1709
35574SOL     OW11532   4.826   6.009   6.262 -0.7489 -0.3424 -0.0620
35574SOL    HW111533   4.752   5.964   6.303  0.3563 -2.3211 -0.1128
35574SOL    HW211534   4.897   6.000   6.325 -0.8341  2.7611  0.6207
35575SOL     OW11535   1.449   4.571   7.046 -0.5130 -0.4826 -0.1702
35575SOL    HW111536   1.438   4.653   6.999 -1.7436  0.1474  1.1224
35575SOL    HW211537   1.544   4.558   7.051 -0.3049 -0.9316 -3.2811
35576SOL     OW11538   4.299   8.432  11.658  0.0248  0.3444 -0.6129
35576SOL    HW111539   4.372   8.437  11.720 -0.3910  1.4353 -0.1719
35576SOL    HW211540   4.279   8.339  11.651  0.2271  0.1765  0.7424
35577SOL     OW11541   2.441   1.884   9.127  0.1380 -0.1388 -0.0649
35577SOL    HW111542   2.465   1.974   9.147 -2.4908  0.8984 -1.1456
35577SOL    HW211543   2.398   1.852   9.206  0.6126 -0.3001  0.1349
35578SOL     OW11544   9.802   7.740   9.179  0.5109 -0.2160 -0.2464
35578SOL    HW111545   9.827   7.822   9.138  0.8187 -0.1035  0.1626
35578SOL    HW211546   9.838   7.672   9.122 -1.7841 -0.1348 -1.9124
35579SOL     OW11547  10.849  12.524  11.557  0.1190 -0.0779 -0.1927
35579SOL    HW111548  10.796  12.566  11.625  0.7032  0.1777  0.1114
35579SOL    HW211549  10.816  12.561  11.475 -1.1020 -0.9550 -0.1134
35580SOL     OW11550   0.819   3.443   3.895  0.2720 -0.3310 -0.3876
35580SOL    HW111551   0.786   3.457   3.984 -1.3477 -1.4765 -0.7662
35580SOL    HW211552   0.914   3.432   3.906  0.3562  1.2693  0.9714
35581SOL     OW11553   0.556  11.506   3.100  0.7297  0.1118 -0.3269
35581SOL    HW111554   0.616  11.437   3.073  1.3105  0.6001 -0.2957
35581SOL    HW211555   0.577  11.581   3.044 -0.5998 -0.0385 -1.0840
35582SOL     OW11556   5.877   3.688  12.241 -0.1399  0.2426 -0.2809
35582SOL    HW111557   5.909   3.641  12.164  0.6975 -0.4485  0.4773
35582SOL    HW211558   5.796   3.643  12.265  0.3304 -0.4366  0.0643
35583SOL     OW11559   3.871   0.502   5.911 -0.1185 -0.1418  0.2314
35583SOL    HW111560   3.859   0.589   5.873 -0.9588 -0.2756  0.1765
35583SOL    HW211561   3.786   0.459   5.899  0.5361 -1.2652 -0.4788
35584SOL     OW11562   8.001   4.787   3.510  0.7994 -0.4071  0.0626
35584SOL    HW111563   8.007   4.692   3.506 -1.9963 -0.6189 -1.7224
35584SOL    HW211564   7.948   4.804   3.588 -0.2251 -0.4637 -0.6052
35585SOL     OW11565   7.062   2.034  11.236  0.5407 -0.2556  0.0323
35585SOL    HW111566   7.035   2.108  11.290  0.1167 -0.3788 -0.0053
35585SOL    HW211567   6.980   1.992  11.210  0.7962 -2.1003  1.9458
35586SOL     OW11568   4.589   5.048   4.497 -0.2998 -0.6445  0.3587
35586SOL    HW111569   4.638   5.076   4.574  0.4049  0.7821 -0.5544
35586SOL    HW211570   4.656   5.027   4.432 -0.8605  0.5059 -0.6346
35587SOL     OW11571   5.792  10.615   5.092  0.0892  1.3096 -0.3585
35587SOL    HW111572   5.787  10.649   5.181 -3.4480  0.2378  0.0049
35587SOL    HW211573   5.832  10.529   5.102  1.2725  1.8757 -0.0847
35588SOL     OW11574  11.492   7.495   9.036  0.2803  0.2567 -0.3259
35588SOL    HW111575  11.486   7.408   8.995 -0.2269  1.5037 -3.1664
35588SOL    HW211576  11.583   7.521   9.023  0.2768  0.4035 -0.0534
35589SOL     OW11577   1.009   7.725   9.920 -0.0296  0.5801 -0.8354
35589SOL    HW111578   0.922   7.685   9.926  0.4237 -0.2814  0.5050
35589SOL    HW211579   1.067   7.653   9.896  0.4118  1.0012 -1.0293
35590SOL     OW11580   3.685   2.516   9.193 -0.1695  0.2312  0.2580
35590SOL    HW111581   3.621   2.476   9.134  1.4136 -2.5463  0.2300
35590SOL    HW211582   3.755   2.546   9.136 -0.7103  1.8681  0.4098
35591SOL     OW11583  10.153   0.115   4.383  0.6736  0.5245 -0.0454
35591SOL    HW111584  10.200   0.126   4.466  0.6732 -1.7405  0.3298
35591SOL    HW211585  10.221   0.114   4.316  1.4803 -3.4993  0.5586
35592SOL     OW11586   1.221   7.536   4.274  0.3772  0.0376 -0.3461
35592SOL    HW111587   1.160   7.462   4.278 -0.0040  0.2511 -1.7319
35592SOL    HW211588   1.273   7.519   4.195  1.7968  0.1238  0.5273
35593SOL     OW11589  12.010   4.570   8.109  0.3994  0.0236  0.4100
35593SOL    HW111590  12.040   4.645   8.058  0.4642 -0.8518 -0.8954
35593SOL    HW211591  12.073   4.501   8.089 -0.3950 -0.7583  0.5528
35594SOL     OW11592  12.237   2.529   3.127  0.1264 -0.1377  0.2605
35594SOL    HW111593  12.169   2.585   3.165  0.6838  0.4881  0.3467
35594SOL    HW211594  12.237   2.450   3.181  0.1107  0.2541  0.8342
35595SOL     OW11595   2.100  12.506   4.262 -0.5955  0.5255  0.1628
35595SOL    HW111596   2.112  12.476   4.352  0.4893 -0.4471 -0.2772
35595SOL    HW211597   2.136  12.435   4.208 -3.0443  0.1356 -1.1426
35596SOL     OW11598   8.968  10.284   6.107 -0.1208 -0.2936  0.0297
35596SOL    HW111599   8.890  10.320   6.149  1.0166  0.5398  1.5415
35596SOL    HW211600   8.942  10.266   6.017 -1.5089  1.8020 -0.0439
35597SOL     OW11601  10.491   7.001   2.835  0.2645 -0.3885 -0.5912
35597SOL    HW111602  10.487   6.933   2.769 -0.4674 -0.8654 -0.0664
35597SOL    HW211603  10.426   7.066   2.808 -0.8974 -1.1559  0.2660
35598SOL     OW11604   8.758   9.100   8.523  0.3428  0.4256 -0.2428
35598SOL    HW111605   8.823   9.160   8.487 -0.4427  0.6826 -1.2917
35598SOL    HW211606   8.725   9.145   8.601 -0.5747  1.6491 -1.2648
35599SOL     OW11607   7.681   6.123  12.299  0.1426  0.2691  0.1975
35599SOL    HW111608   7.664   6.210  12.263  0.2047  0.5596  0.8653
35599SOL    HW211609   7.618   6.066  12.255  0.3658  0.5721 -0.5372
35600SOL     OW11610  10.750   2.397  10.550 -0.3178 -0.2905 -0.8647
35600SOL    HW111611  10.819   2.333  10.534  0.4320 -0.4831  2.3106
35600SOL    HW211612  10.672   2.344  10.565 -0.2744 -0.3151 -0.7232
35601SOL     OW11613   3.174   5.329   7.120  0.3450  0.4559 -0.4710
35601SOL    HW111614   3.122   5.384   7.179 -1.3290 -1.0037 -0.5275
35601SOL    HW211615   3.217   5.266   7.179  0.8288  0.6907 -0.5702
35602SOL     OW11616   7.266   8.930   9.020  0.3081  0.5720 -0.2895
35602SOL    HW111617   7.310   8.990   9.080 -1.0884  0.3391  1.0168
35602SOL    HW211618   7.186   8.903   9.066 -0.6167  0.0604 -2.0847
35603SOL     OW11619   5.698   1.228   5.795  0.4253 -0.1458  0.2563
35603SOL    HW111620   5.663   1.265   5.877  2.2065  0.6989  0.6871
35603SOL    HW211621   5.754   1.297   5.760 -0.0964 -0.5990 -1.5746
35604SOL     OW11622   7.445  11.631   1.812 -0.4630  0.0119  0.0716
35604SOL    HW111623   7.437  11.537   1.829 -1.1748  0.3060  1.5640
35604SOL    HW211624   7.368  11.653   1.760 -0.4095 -0.2071 -0.0983
35605SOL     OW11625   7.979   4.750  11.341 -0.0219 -0.1076 -0.7200
35605SOL    HW111626   7.912   4.795  11.392  0.2467 -0.1478 -0.3249
35605SOL    HW211627   7.946   4.751  11.251 -0.4223  0.1115 -0.5725
35606SOL     OW11628   2.713   9.723   9.432 -0.0137  0.5959  0.0994
35606SOL    HW111629   2.660   9.698   9.508  1.8312  0.2191  1.3289
35606SOL    HW211630   2.719   9.643   9.380 -0.7701  0.6835 -0.1302
35607SOL     OW11631   3.648   0.949   1.111 -0.2745  0.3507  0.1778
35607SOL    HW111632   3.663   1.044   1.104  1.6028  0.0697  0.0608
35607SOL    HW211633   3.722   0.909   1.067 -0.8872 -1.2047  0.4985
35608SOL     OW11634   3.020   2.660   8.915  0.6299 -0.3792  0.4345
35608SOL    HW111635   2.970   2.585   8.946  0.4464 -0.8294 -0.8761
35608SOL    HW211636   3.103   2.656   8.963  0.1339 -0.6851  1.2795
35609SOL     OW11637   3.352   5.215   2.339  0.0224  0.5515 -0.0486
35609SOL    HW111638   3.260   5.195   2.355 -0.6530  2.8133 -0.7851
35609SOL    HW211639   3.372   5.171   2.256 -0.8012  1.1579 -0.5836
35610SOL     OW11640   2.927  12.215   6.318  0.2622  0.7731  0.1529
35610SOL    HW111641   2.981  12.170   6.253 -0.6576  0.6770 -0.5624
35610SOL    HW211642   2.838  12.184   6.301 -0.3975  2.7716 -0.3149
35611SOL     OW11643   3.826   8.694  11.736 -0.6570  0.2001  0.3640
35611SOL    HW111644   3.773   8.640  11.795 -0.7853  2.3761  2.4051
35611SOL    HW211645   3.915   8.659  11.745 -1.1586 -1.4345 -0.5985
35612SOL     OW11646   0.161   7.067   0.630 -0.2382  0.5267  0.2780
35612SOL    HW111647   0.171   7.064   0.726  1.4773 -1.9921  0.0964
35612SOL    HW211648   0.086   7.011   0.612 -1.1530  1.7477  0.1557
35613SOL     OW11649   6.383   5.950   2.065  0.0151  0.4351 -0.0256
35613SOL    HW111650   6.336   5.991   1.992 -0.1784 -1.6865 -1.1879
35613SOL    HW211651   6.314   5.909   2.117  0.3498 -0.7145 -0.4432
35614SOL     OW11652  10.703   6.837   9.071 -0.3477 -0.0544  0.4944
35614SOL    HW111653  10.727   6.750   9.105  1.1176  0.0161 -0.2901
35614SOL    HW211654  10.646   6.818   8.996 -0.5399 -0.3245  0.7077
35615SOL     OW11655   8.569   4.908   2.634  0.4243 -0.2058 -0.1537
35615SOL    HW111656   8.539   4.999   2.640 -3.2661 -1.2856  0.5583
35615SOL    HW211657   8.556   4.873   2.722  1.0920 -1.6251 -0.5886
35616SOL     OW11658   2.925   0.782   9.528 -0.1146  0.6077 -0.2230
35616SOL    HW111659   2.965   0.788   9.615 -0.7379 -0.0570  0.1116
35616SOL    HW211660   2.951   0.864   9.485 -1.2289  1.7568  1.1947
35617SOL     OW11661   3.044   4.075   7.653  0.0840  0.2676  0.2851
35617SOL    HW111662   3.095   4.014   7.600  0.3325 -0.8041  1.6964
35617SOL    HW211663   3.090   4.159   7.643 -0.0615  0.1858 -1.4056
35618SOL     OW11664   3.475   6.881   0.649  0.0196  0.1372 -0.2121
35618SOL    HW111665   3.519   6.965   0.638  0.6802  0.3613  3.1409
35618SOL    HW211666   3.382   6.904   0.656  0.1484  0.5367  0.2280
35619SOL     OW11667   7.004   1.115   7.050 -0.4627 -0.0762  0.3817
35619SOL    HW111668   7.003   1.066   6.969  1.8985 -1.1475  0.9014
35619SOL    HW211669   6.923   1.091   7.095 -0.7656 -1.1400 -0.7066
35620SOL     OW11670   3.575   4.401   3.007  0.4623 -0.6240 -0.2053
35620SOL    HW111671   3.665   4.383   3.036  0.6335  0.3010 -0.1177
35620SOL    HW211672   3.586   4.448   2.924  0.0375 -1.0230 -0.4920
35621SOL     OW11673   6.852   1.784   0.433  0.3410 -0.1160 -0.2011
35621SOL    HW111674   6.902   1.742   0.363  1.4300 -0.1057  0.5569
35621SOL    HW211675   6.783   1.721   0.454  1.2318 -1.0070  0.0992
35622SOL     OW11676   9.641   4.822   0.044  0.0633  0.3460 -0.4763
35622SOL    HW111677   9.720   4.774   0.022 -0.0482 -0.5023  0.8378
35622SOL    HW211678   9.665   4.874   0.121 -0.9230 -0.7770  0.6387
35623SOL     OW11679   7.072   8.322   7.850 -0.0488  0.2366  0.3639
35623SOL    HW111680   7.020   8.311   7.770 -1.1725  1.1545  0.9328
35623SOL    HW211681   7.067   8.237   7.894 -2.7848  0.8000  1.3491
35624SOL     OW11682   7.956   9.153   3.168 -0.3072 -0.3729  0.1325
35624SOL    HW111683   8.002   9.230   3.200 -0.5471 -0.1132 -0.1415
35624SOL    HW211684   7.904   9.123   3.242 -1.3102  0.5635 -0.1630
35625SOL     OW11685   7.707   4.405   5.897 -0.0902  0.1640  0.1621
35625SOL    HW111686   7.747   4.352   5.827 -0.0417  2.1389 -1.3934
35625SOL    HW211687   7.756   4.487   5.895 -0.2179  0.3555  2.4591
35626SOL     OW11688   5.225  10.151   2.487  0.0855  1.3560 -0.1174
35626SOL    HW111689   5.199  10.114   2.403  0.7863 -0.7652  0.5527
35626SOL    HW211690   5.299  10.209   2.466  2.5875 -1.7772 -0.6742
35627SOL     OW11691  11.414   9.099   8.915 -0.2161 -0.1012  0.1049
35627SOL    HW111692  11.329   9.098   8.958  0.3237 -0.9686  1.2057
35627SOL    HW211693  11.417   9.184   8.870 -2.0627 -0.4971 -0.8543
35628SOL     OW11694  10.005   5.752   7.620 -0.7300 -0.0375 -0.3275
35628SOL    HW111695  10.075   5.691   7.595 -0.7034  0.4951 -1.6457
35628SOL    HW211696   9.930   5.695   7.637 -0.5449 -0.5002 -0.9836
35629SOL     OW11697   4.481   7.823   7.116 -0.0334 -0.2142  0.1737
35629SOL    HW111698   4.536   7.899   7.099  0.3078 -0.3114  0.7939
35629SOL    HW211699   4.503   7.761   7.048 -2.2427  1.2056 -2.0057
35630SOL     OW11700   5.845   0.011   5.524 -0.7209  0.1447  0.2435
35630SOL    HW111701   5.756   0.041   5.504 -0.7335  1.3621  1.8973
35630SOL    HW211702   5.856   0.032   5.616  0.6467 -1.6780  0.5318
35631SOL     OW11703   9.955   9.386   1.137 -0.2639  0.3085  0.3728
35631SOL    HW111704   9.860   9.379   1.137 -0.2812  0.1874  1.6662
35631SOL    HW211705   9.973   9.465   1.086 -1.3178  2.4408  3.0325
35632SOL     OW11706  10.828   7.225  11.937 -0.4874 -0.6300  0.5328
35632SOL    HW111707  10.760   7.236  12.004 -0.9861  1.1117 -0.1929
35632SOL    HW211708  10.909   7.248  11.981 -0.5261 -1.4232  1.0473
35633SOL     OW11709   3.300   4.318   9.825  0.8511  0.1117  0.6535
35633SOL    HW111710   3.355   4.241   9.810  0.3062 -0.7198  2.5802
35633SOL    HW211711   3.283   4.317   9.919 -4.3688 -1.0802  0.0157
35634SOL     OW11712   2.633   5.920   8.832  0.6698 -0.8104 -0.0258
35634SOL    HW111713   2.604   5.903   8.922  0.4349  1.7952  0.4631
35634SOL    HW211714   2.728   5.929   8.839  0.5575  0.4223  0.2021
35635SOL     OW11715   8.064  12.566   8.073 -0.1558 -0.0908 -0.6222
35635SOL    HW111716   8.143  12.516   8.050 -0.4580 -1.3892  0.9854
35635SOL    HW211717   8.001  12.543   8.005  1.1882  2.0741 -2.7731
35636SOL     OW11718   9.856   4.960   4.790  0.4653 -0.0001  0.1221
35636SOL    HW111719   9.832   5.002   4.708 -0.0615  1.2136  0.8625
35636SOL    HW211720   9.948   4.939   4.780  0.6714  1.0642 -0.4099
35637SOL     OW11721   3.940   5.884   7.934 -0.2510  0.6380 -0.1836
35637SOL    HW111722   4.036   5.879   7.925 -0.2633  0.3392 -0.1595
35637SOL    HW211723   3.907   5.844   7.854 -0.3578  1.9729 -0.8249
35638SOL     OW11724   7.949   6.315   3.115  0.0997  0.3697  0.0272
35638SOL    HW111725   7.855   6.301   3.127  0.2438  0.4762  1.4112
35638SOL    HW211726   7.986   6.227   3.108 -0.0369  0.3184 -0.0683
35639SOL     OW11727   6.349  11.811   8.550  0.5918  0.2467 -0.0817
35639SOL    HW111728   6.398  11.760   8.615  0.7384  0.0500 -0.3472
35639SOL    HW211729   6.387  11.787   8.466 -0.2115 -0.2055 -0.3265
35640SOL     OW11730  11.604   8.304   0.036 -0.5339 -0.4806 -0.2151
35640SOL    HW111731  11.543   8.360   0.082 -1.4567 -0.1558 -1.7598
35640SOL    HW211732  11.557   8.221   0.024  0.7451 -1.6066  1.8798
35641SOL     OW11733   5.716  11.510   8.792 -0.1573  0.7165  0.3731
35641SOL    HW111734   5.768  11.432   8.774  1.3618  1.3407  1.7618
35641SOL    HW211735   5.738  11.572   8.722  1.4586  1.1686  1.2295
35642SOL     OW11736   7.112  12.358   8.288  0.3478  0.2857 -0.4855
35642SOL    HW111737   7.193  12.309   8.269 -0.3921 -1.3674  0.4109
35642SOL    HW211738   7.060  12.348   8.208  0.9272  1.1783 -0.9867
35643SOL     OW11739  11.478   0.505  11.183 -0.1519 -0.6570  0.4163
35643SOL    HW111740  11.492   0.426  11.130  2.9990  0.1560 -0.1955
35643SOL    HW211741  11.481   0.474  11.273  2.6976 -1.1801  0.2397
35644SOL     OW11742   8.076   3.649   0.730  0.5526  0.5721  0.1343
35644SOL    HW111743   7.997   3.595   0.724  0.0801  1.3013 -0.2845
35644SOL    HW211744   8.086   3.668   0.823  2.0036 -2.0911  0.6256
35645SOL     OW11745   2.311   6.125   2.851  0.7968  0.2336  0.0138
35645SOL    HW111746   2.352   6.181   2.785 -0.2484 -0.5724 -1.3571
35645SOL    HW211747   2.315   6.177   2.932  2.7496  0.9463 -0.4904
35646SOL     OW11748   9.628   9.756   5.117 -0.0652  0.0337 -0.6119
35646SOL    HW111749   9.562   9.709   5.168 -0.9568  1.7136 -0.1399
35646SOL    HW211750   9.594   9.755   5.028  0.9223 -1.8992 -1.0222
35647SOL     OW11751   6.680   3.873   5.050 -0.2210 -0.1805  0.0914
35647SOL    HW111752   6.731   3.796   5.029  0.9467  0.3373  0.9301
35647SOL    HW211753   6.697   3.889   5.143 -1.4807  0.3242  0.2534
35648SOL     OW11754  10.464   4.713  10.246 -0.0511 -0.0955 -0.2183
35648SOL    HW111755  10.522   4.638  10.229 -0.8094 -0.3446 -1.8766
35648SOL    HW211756  10.381   4.673  10.273 -0.0950  0.1853  0.0645
35649SOL     OW11757   8.510  12.370   7.000  0.7024 -0.0960  0.0031
35649SOL    HW111758   8.415  12.368   6.991  0.5634 -1.1872  1.3880
35649SOL    HW211759   8.542  12.350   6.912 -0.3257  0.8689 -0.6117
35650SOL     OW11760   6.492   1.751   3.502  0.4264 -0.8346 -0.0134
35650SOL    HW111761   6.559   1.683   3.494 -0.4358 -1.7210  0.1511
35650SOL    HW211762   6.516   1.816   3.436  0.5720 -1.9033 -1.0466
35651SOL     OW11763   3.921   8.952  11.885 -0.2321 -0.0200 -0.5238
35651SOL    HW111764   3.892   8.875  11.837  0.4337  0.0482 -1.0410
35651SOL    HW211765   4.016   8.946  11.886 -0.1971  0.4800 -0.0353
35652SOL     OW11766   2.170  10.825   9.251  0.2968  0.0674  0.0578
35652SOL    HW111767   2.210  10.755   9.304  1.5229 -0.6310 -1.7044
35652SOL    HW211768   2.082  10.834   9.287  1.4490  0.5651  3.0787
35653SOL     OW11769   6.768  11.265   5.958 -0.3374 -0.7956 -0.5579
35653SOL    HW111770   6.827  11.324   5.911  0.0607 -1.6767 -1.2035
35653SOL    HW211771   6.824  11.220   6.020 -0.7692 -0.0156  0.4204
35654SOL     OW11772  10.561   4.346   4.121  0.1014 -0.0485  0.1710
35654SOL    HW111773  10.482   4.341   4.068  2.1684 -0.3147 -3.1632
35654SOL    HW211774  10.579   4.256   4.148 -0.4760 -0.0462  0.5673
35655SOL     OW11775   3.452   8.464   3.248  0.3083  0.6899 -0.5623
35655SOL    HW111776   3.475   8.450   3.340 -0.9275  1.6931 -0.0761
35655SOL    HW211777   3.402   8.386   3.224  2.6130 -0.7110 -1.1381
35656SOL     OW11778   4.113   7.375   3.049 -0.4002 -0.1440  0.2040
35656SOL    HW111779   4.049   7.309   3.021  0.6719 -1.8786  1.6993
35656SOL    HW211780   4.131   7.355   3.140  0.4198  1.8829  0.5464
35657SOL     OW11781   5.563   5.960   2.413  0.4200 -0.2858  0.2109
35657SOL    HW111782   5.544   5.868   2.398  1.0117 -0.4081  0.2030
35657SOL    HW211783   5.659   5.966   2.414  0.4053  0.4888 -0.8364
35658SOL     OW11784   5.003   4.235   1.693  0.0824 -0.2818  0.3787
35658SOL    HW111785   5.024   4.308   1.750  0.9833 -1.3537  1.4541
35658SOL    HW211786   5.016   4.269   1.604 -0.3650  1.1035  0.8338
35659SOL     OW11787  12.423   7.658   3.704  0.6372 -0.2416 -0.0453
35659SOL    HW111788  12.397   7.599   3.634 -2.4830 -0.5916  1.2769
35659SOL    HW211789  12.440   7.601   3.779 -0.1898  0.3502  0.6140
35660SOL     OW11790   6.561   9.648   8.950  0.2858  0.3452 -1.1972
35660SOL    HW111791   6.655   9.661   8.939  0.3510  0.7128 -0.2681
35660SOL    HW211792   6.553   9.590   9.026 -0.2806  2.5056  0.5134
35661SOL     OW11793   1.118  10.740  10.607  0.2966 -0.6238 -0.8198
35661SOL    HW111794   1.210  10.768  10.602  0.5831 -1.6874 -2.2442
35661SOL    HW211795   1.069  10.815  10.573  0.6616 -0.1883 -0.4037
35662SOL     OW11796   2.795   4.489  10.589  0.8060 -0.3322 -0.0207
35662SOL    HW111797   2.741   4.419  10.554 -1.6265  0.8076  1.1735
35662SOL    HW211798   2.809   4.465  10.681 -0.9660  1.1423  0.7047
35663SOL     OW11799  11.532   1.112  12.604  0.3545 -0.1226 -0.3497
35663SOL    HW111800  11.574   1.133  12.687 -0.1121  0.5345 -0.2714
35663SOL    HW211801  11.548   1.190  12.550  0.7396 -0.5850 -0.9087
35664SOL     OW11802   0.931  10.875   2.760  0.0110 -0.2371 -1.0437
35664SOL    HW111803   0.968  10.964   2.760 -3.4718  1.3791 -1.4408
35664SOL    HW211804   0.972  10.833   2.684  4.1225 -0.2846  0.8903
35665SOL     OW11805   9.481  11.384   2.450 -0.0497  0.3534 -0.1088
35665SOL    HW111806   9.433  11.466   2.443 -0.2673  0.3955  1.5278
35665SOL    HW211807   9.573  11.410   2.452 -0.1219  0.5901  0.5283
35666SOL     OW11808   5.058   2.581   3.116 -0.0127  0.4169  0.1347
35666SOL    HW111809   5.120   2.635   3.165 -0.9397  0.9009  0.8210
35666SOL    HW211810   5.107   2.552   3.039  1.7954 -1.1827  1.7955
35667SOL     OW11811   9.602   8.716  12.048  0.2003  0.5837  0.2534
35667SOL    HW111812   9.680   8.664  12.030  0.7882  1.1223  1.0997
35667SOL    HW211813   9.540   8.693  11.979 -0.0678 -2.2054  1.3052
35668SOL     OW11814   0.469  10.776   2.212 -0.0853 -0.4766  0.5071
35668SOL    HW111815   0.413  10.698   2.204 -0.7490  0.1026 -0.6935
35668SOL    HW211816   0.468  10.796   2.306  0.6880 -2.3245  0.9528
35669SOL     OW11817   4.649   2.750   9.604  0.7320 -0.2183  0.1421
35669SOL    HW111818   4.679   2.804   9.678  0.8947 -3.0179  2.2877
35669SOL    HW211819   4.560   2.724   9.629  1.2137 -2.1481 -0.0263
35670SOL     OW11820   2.742   9.540  10.290  0.7130  0.0640 -0.4904
35670SOL    HW111821   2.758   9.448  10.269 -0.3783 -0.6139  1.4477
35670SOL    HW211822   2.701   9.575  10.211 -1.1039 -1.7654 -0.4482
35671SOL     OW11823   7.437  10.161   5.859 -0.4650  0.3401  0.0340
35671SOL    HW111824   7.424  10.066   5.858 -0.0788  0.2774 -1.1252
35671SOL    HW211825   7.528  10.173   5.832 -0.7857  1.0654 -0.7664
35672SOL     OW11826   6.541   8.414   4.742  0.1985  0.2228  0.3422
35672SOL    HW111827   6.599   8.458   4.805 -0.3770  1.3919  0.0998
35672SOL    HW211828   6.584   8.426   4.658  0.7304 -0.9283  0.4289
35673SOL     OW11829   0.692  10.277   9.522 -0.0896  0.4025 -0.1516
35673SOL    HW111830   0.777  10.269   9.480 -0.5466  1.3224 -1.3433
35673SOL    HW211831   0.644  10.340   9.467 -1.5696 -0.1646  0.4194
35674SOL     OW11832   5.460   6.216   7.637 -0.4568 -0.0198 -0.1174
35674SOL    HW111833   5.391   6.270   7.677  0.9471  1.0484  1.0213
35674SOL    HW211834   5.498   6.168   7.711 -0.7483 -1.5262 -0.9159
35675SOL     OW11835  10.913  12.015   9.799 -0.6447 -0.0331  0.0818
35675SOL    HW111836  10.874  12.042   9.882  0.8389 -0.2727  0.8852
35675SOL    HW211837  10.852  12.048   9.732 -3.8989 -2.9806  1.2640
35676SOL     OW11838   0.105   3.967   7.796 -0.1385  0.0563 -0.0801
35676SOL    HW111839   0.175   3.915   7.756  0.3615  1.2389 -0.7847
35676SOL    HW211840   0.150   4.025   7.857 -0.2458  2.0827 -1.8277
35677SOL     OW11841   6.056   2.134   3.170  0.2852 -0.6839  0.4023
35677SOL    HW111842   6.143   2.131   3.211 -0.2718 -0.7362  1.6240
35677SOL    HW211843   6.074   2.138   3.076  1.6438  0.9281  0.6861
35678SOL     OW11844   6.943   3.388  10.022  0.1372  0.5534  0.0746
35678SOL    HW111845   6.881   3.405   9.952  1.2851 -0.3955 -1.2348
35678SOL    HW211846   7.018   3.443  10.002  0.4003  0.4229  0.6744
35679SOL     OW11847   5.809   5.186   8.655  0.1683 -0.6843 -0.3275
35679SOL    HW111848   5.827   5.106   8.705  0.0083 -0.1771  0.5647
35679SOL    HW211849   5.891   5.235   8.657 -0.3076  0.1382  0.9752
35680SOL     OW11850   1.236   4.476   7.256  0.2490 -0.8371 -0.1790
35680SOL    HW111851   1.300   4.513   7.195  0.6922 -1.1425  0.0973
35680SOL    HW211852   1.152   4.486   7.211  0.2974  0.8171  0.0344
35681SOL     OW11853   1.512   8.654   9.814 -0.1114 -0.6590 -0.4728
35681SOL    HW111854   1.494   8.616   9.899 -0.5810 -0.9879 -0.7165
35681SOL    HW211855   1.430   8.696   9.788  0.7195  1.7114  0.3697
35682SOL     OW11856   8.773   1.558   8.706 -0.0391 -0.2795 -0.1991
35682SOL    HW111857   8.754   1.529   8.796  1.3706 -0.8576 -0.0594
35682SOL    HW211858   8.779   1.653   8.713  2.4029 -0.4135  0.8842
35683SOL     OW11859   8.642   0.159   1.191 -0.3799 -0.2600 -0.0332
35683SOL    HW111860   8.715   0.204   1.149  0.1028 -1.2385 -0.2820
35683SOL    HW211861   8.613   0.219   1.259  0.8761  0.0072  0.2942
35684SOL     OW11862   7.256   0.919   5.242  0.7765  0.2425 -0.1403
35684SOL    HW111863   7.240   0.837   5.196 -1.0168  1.6507 -2.2891
35684SOL    HW211864   7.247   0.986   5.174 -1.0867  2.4380  2.0443
35685SOL     OW11865   3.565   7.587   6.656  0.8972  0.6047 -0.1401
35685SOL    HW111866   3.598   7.670   6.689  2.3889 -0.8101  2.2588
35685SOL    HW211867   3.637   7.525   6.671 -0.3065 -1.2131 -1.4120
35686SOL     OW11868   5.213   7.095   7.350  0.3026 -0.6103  0.2934
35686SOL    HW111869   5.159   7.073   7.426 -1.0702  0.7285 -0.2547
35686SOL    HW211870   5.221   7.191   7.354  1.0502 -0.6225 -0.6958
35687SOL     OW11871  11.811   8.295   9.504 -0.0166  0.2413 -0.1210
35687SOL    HW111872  11.868   8.319   9.431 -1.2198  3.5677 -0.1388
35687SOL    HW211873  11.850   8.216   9.540  4.1277  1.8013 -0.6552
35688SOL     OW11874   3.814   3.814   6.676  0.1735 -0.1961  0.0656
35688SOL    HW111875   3.822   3.827   6.771 -0.1917  0.5425  0.0022
35688SOL    HW211876   3.725   3.781   6.664 -0.0238  0.3826 -0.0825
35689SOL     OW11877   3.833   1.300   7.769 -0.4951 -0.4645 -0.4184
35689SOL    HW111878   3.910   1.342   7.806 -0.6889  0.6927 -1.2849
35689SOL    HW211879   3.857   1.208   7.760  0.7176 -0.1467 -0.5199
35690SOL     OW11880   5.752   9.464   3.747  0.6010  0.7332 -0.3425
35690SOL    HW111881   5.704   9.430   3.823 -0.2794  0.6222 -0.9312
35690SOL    HW211882   5.711   9.421   3.672  1.8117  0.4361 -0.8597
35691SOL     OW11883   0.109   6.137   0.752 -0.7339  0.0134  0.2414
35691SOL    HW111884   0.077   6.102   0.835 -0.2901 -0.3620  0.2582
35691SOL    HW211885   0.055   6.215   0.736 -2.3204 -1.1256 -0.2236
35692SOL     OW11886  10.459   2.463   0.639 -0.0329  0.6025  0.6903
35692SOL    HW111887  10.500   2.386   0.600 -0.0742  1.5549 -1.3992
35692SOL    HW211888  10.522   2.494   0.703  0.2666 -0.7852  1.0903
35693SOL     OW11889   9.148   4.683   5.122  0.1427  0.3655  0.1300
35693SOL    HW111890   9.215   4.616   5.139  1.2160  1.5660  0.7797
35693SOL    HW211891   9.194   4.749   5.070 -0.6243  1.0771  0.3536
35694SOL     OW11892   4.977   7.158   7.834 -0.7757 -0.0915 -0.3791
35694SOL    HW111893   4.999   7.199   7.917 -1.2738  0.3432 -0.4516
35694SOL    HW211894   4.901   7.208   7.802  0.4075  0.8565 -1.8807
35695SOL     OW11895   1.399   6.864   5.089 -0.2294 -0.4373 -0.3988
35695SOL    HW111896   1.455   6.941   5.076 -0.3209  0.4521  3.1923
35695SOL    HW211897   1.336   6.868   5.018  0.3838  2.2749 -0.9231
35696SOL     OW11898   7.908   1.156   5.284 -0.3273 -0.1087 -0.8374
35696SOL    HW111899   7.980   1.121   5.231  0.9310  0.4284  0.4693
35696SOL    HW211900   7.873   1.079   5.329  0.8100 -0.0844  0.1217
35697SOL     OW11901   7.800   2.648   1.100  0.3282 -0.1765  0.8740
35697SOL    HW111902   7.756   2.715   1.048  0.7134 -0.5579  0.0439
35697SOL    HW211903   7.733   2.583   1.118  0.4484 -0.5487 -0.0259
35698SOL     OW11904   3.789   2.055   3.990 -0.3202  0.4969 -0.2222
35698SOL    HW111905   3.701   2.091   3.982 -0.5580  0.1103  0.5310
35698SOL    HW211906   3.777   1.961   3.978 -0.1850  0.3122  0.9471
35699SOL     OW11907   0.519   1.604   2.688 -0.0059 -0.0645  0.2749
35699SOL    HW111908   0.543   1.675   2.747  0.4134 -0.8816  1.1239
35699SOL    HW211909   0.436   1.631   2.651  0.2994  1.0115  0.3320
35700SOL     OW11910   0.061  12.019  12.017 -0.2510 -0.6718 -0.3608
35700SOL    HW111911   0.024  12.102  12.046  0.1478 -0.5045 -0.3353
35700SOL    HW211912   0.154  12.037  12.002 -0.2825 -0.9619 -0.9375
35701SOL     OW11913   6.730   9.541   5.933  0.0233  0.0699 -0.0926
35701SOL    HW111914   6.823   9.529   5.953  0.1027  1.5991  0.6444
35701SOL    HW211915   6.687   9.464   5.968  0.8596  0.0223  0.8798
35702SOL     OW11916  11.971   0.157   0.821 -0.2047  0.4905  0.1177
35702SOL    HW111917  11.998   0.118   0.738 -1.3701  0.4118 -0.2485
35702SOL    HW211918  11.982   0.087   0.886  2.6988  1.1577  0.4681
35703SOL     OW11919  12.501   1.030   0.915  0.5428  0.3160 -0.0223
35703SOL    HW111920  12.560   1.083   0.969  1.1211 -0.7680  0.4391
35703SOL    HW211921  12.558   0.966   0.873 -0.0363  0.5366 -1.1973
35704SOL     OW11922   8.028   9.368   3.355  0.2637 -0.5902  0.0230
35704SOL    HW111923   7.983   9.450   3.377  0.4777  0.5317 -3.1599
35704SOL    HW211924   7.979   9.300   3.401 -1.3858  1.0935  0.8940
35705SOL     OW11925  11.337   5.387  10.498  0.0439  0.4075  0.4538
35705SOL    HW111926  11.337   5.446  10.574 -1.4424  2.3976 -0.9614
35705SOL    HW211927  11.256   5.337  10.508 -0.0230  0.4895  0.3220
35706SOL     OW11928   8.886   4.261   2.922  0.4068  0.5664  0.5762
35706SOL    HW111929   8.948   4.324   2.885  0.4531 -0.5747 -1.4161
35706SOL    HW211930   8.837   4.312   2.987  1.2874  2.3234 -0.0630
35707SOL     OW11931  12.258   3.989   7.022  0.0383 -0.0414  0.5107
35707SOL    HW111932  12.335   4.026   6.978 -0.4863 -0.3144 -0.6689
35707SOL    HW211933  12.293   3.917   7.075  0.6809  0.2954  0.5526
35708SOL     OW11934   9.268  12.066   4.735 -0.3590  0.7760  0.6707
35708SOL    HW111935   9.349  12.053   4.687  0.1163  2.7546  0.8146
35708SOL    HW211936   9.280  12.019   4.817 -1.2608 -2.8074 -1.0677
35709SOL     OW11937   9.771   9.214   5.434 -0.2211  0.1406  0.0568
35709SOL    HW111938   9.723   9.161   5.498 -1.6650  0.1667 -0.9707
35709SOL    HW211939   9.763   9.165   5.352  1.6376  0.0859 -0.1467
35710SOL     OW11940   5.974   1.291  11.490 -0.9031 -0.0778  0.0380
35710SOL    HW111941   6.035   1.349  11.446  0.6079 -0.3678  1.6377
35710SOL    HW211942   5.903   1.278  11.427  1.3303 -0.8912 -2.5036
35711SOL     OW11943   6.782  12.209   3.981 -0.1648 -0.2609 -0.3712
35711SOL    HW111944   6.822  12.132   4.022  1.7165  1.1346  0.6025
35711SOL    HW211945   6.850  12.243   3.922 -0.1367  1.7131  0.6871
35712SOL     OW11946   4.102  10.791   8.363  0.3174 -0.6102  0.3522
35712SOL    HW111947   4.158  10.830   8.294  0.3575  0.3732  0.9167
35712SOL    HW211948   4.161  10.733   8.411  0.5190 -0.5970  0.1284
35713SOL     OW11949   0.398   8.898  12.522 -0.1003  0.2570  0.4211
35713SOL    HW111950   0.448   8.979  12.523 -0.5674  0.5599 -0.1675
35713SOL    HW211951   0.331   8.911  12.454  0.1057 -0.7783 -0.0102
35714SOL     OW11952   3.760   7.206   2.821 -0.1241  0.4778  0.8166
35714SOL    HW111953   3.703   7.131   2.840  0.1564 -0.2756 -1.0425
35714SOL    HW211954   3.705   7.267   2.772  0.4398  0.0330 -0.4254
35715SOL     OW11955   8.006  11.029   3.153  0.0188  0.4361 -0.6333
35715SOL    HW111956   8.078  11.066   3.204 -0.7786  2.5079 -0.8949
35715SOL    HW211957   8.028  10.937   3.142  1.3865  0.4720  1.3899
35716SOL     OW11958   5.237   2.799   0.149  0.0356 -0.0168 -0.0986
35716SOL    HW111959   5.194   2.758   0.224  1.4004  0.7800  1.1678
35716SOL    HW211960   5.268   2.725   0.096  0.0116 -0.6053  0.6936
35717SOL     OW11961  11.285   5.692   3.081  0.8155  0.5894  0.1720
35717SOL    HW111962  11.315   5.652   3.000 -2.6628 -0.1304 -0.9037
35717SOL    HW211963  11.249   5.777   3.055 -0.2644  0.3906  0.9637
35718SOL     OW11964   5.152   4.629   4.980 -0.4197  0.2701 -0.1999
35718SOL    HW111965   5.098   4.658   5.054  1.6925  0.0900  1.5272
35718SOL    HW211966   5.129   4.537   4.969 -1.9279  0.7049 -0.8914
35719SOL     OW11967   6.797   7.954   1.432  0.5536  0.4439  0.6366
35719SOL    HW111968   6.813   8.020   1.499  1.3649 -0.4932  1.3976
35719SOL    HW211969   6.857   7.883   1.454  0.1427 -0.2886 -0.5276
35720SOL     OW11970   2.077   0.700   7.010  0.1911  0.0945 -0.4937
35720SOL    HW111971   2.064   0.685   7.103  0.9289  0.5899 -0.3007
35720SOL    HW211972   2.051   0.618   6.968  3.0556 -1.4237  0.4158
35721SOL     OW11973   8.327   2.938   2.537  0.4579  0.1667  0.5563
35721SOL    HW111974   8.400   2.900   2.587  2.3576  1.9904 -0.6558
35721SOL    HW211975   8.260   2.955   2.603  1.1826 -1.3447  1.7725
35722SOL     OW11976   7.614   2.626   5.921 -0.0508 -0.1157  0.0898
35722SOL    HW111977   7.665   2.690   5.972  0.0133 -1.2693  1.5445
35722SOL    HW211978   7.646   2.635   5.832  0.7798  1.0640  0.4821
35723SOL     OW11979   0.152   5.981   7.964 -0.2952 -0.1501 -0.2171
35723SOL    HW111980   0.122   5.929   7.890  1.0032  1.1638 -1.7372
35723SOL    HW211981   0.242   5.951   7.979  0.3120  1.2630 -0.8172
35724SOL     OW11982   2.694   5.515  10.962 -0.1120 -0.9195 -0.7569
35724SOL    HW111983   2.658   5.603  10.955  0.1074 -0.7545  0.0306
35724SOL    HW211984   2.623   5.457  10.933 -1.2238 -0.6392  1.2074
35725SOL     OW11985  10.288  10.829   5.355  0.3071  0.2868  0.2197
35725SOL    HW111986  10.242  10.911   5.337  1.4206  0.4949 -2.0996
35725SOL    HW211987  10.270  10.774   5.279 -1.5374 -2.2428  2.3250
35726SOL     OW11988   2.390   7.996   1.293 -0.2225 -0.2146  0.1312
35726SOL    HW111989   2.434   8.036   1.368  0.7316 -0.1215 -0.4651
35726SOL    HW211990   2.305   7.967   1.327 -1.3169  2.9961  0.4262
35727SOL     OW11991   6.599   2.071   9.737  0.0941  0.1483 -0.5980
35727SOL    HW111992   6.607   2.149   9.791  1.6002 -0.4897  0.1723
35727SOL    HW211993   6.537   2.015   9.784 -0.7093  0.7035 -0.9693
35728SOL     OW11994   5.733  10.803  11.586  0.3367  0.3829 -0.1363
35728SOL    HW111995   5.639  10.820  11.578  0.3530  0.3290 -0.4570
35728SOL    HW211996   5.774  10.888  11.574  0.5252 -0.0571 -3.5971
35729SOL     OW11997   8.488   9.108  11.512  0.2577  0.0010  0.6522
35729SOL    HW111998   8.455   9.024  11.542 -0.2501 -0.2270 -0.4653
35729SOL    HW211999   8.572   9.119  11.557 -0.2066 -0.5510  1.6872
35730SOL     OW12000   3.095   6.966  10.605 -0.5174 -0.6738  0.0986
35730SOL    HW112001   3.111   6.907  10.531 -0.1522 -0.3491 -0.0768
35730SOL    HW212002   3.004   6.993  10.594  0.3172  1.6850 -1.9054
35731SOL     OW12003   3.454   2.303   4.174 -0.2300 -0.2419 -0.2834
35731SOL    HW112004   3.531   2.352   4.202 -0.4916  1.0387 -1.6769
35731SOL    HW212005   3.467   2.215   4.211  1.5916  0.1046  0.0136
35732SOL     OW12006   6.498   9.096   5.024 -0.2930 -0.2517 -0.7061
35732SOL    HW112007   6.463   9.153   4.956 -0.2634  0.8142  0.1369
35732SOL    HW212008   6.589   9.082   4.999  0.5945  2.5658  0.5771
35733SOL     OW12009   7.046   9.496   8.477 -0.4336 -0.0092  0.4954
35733SOL    HW112010   7.076   9.408   8.502 -1.7233 -0.5901  0.0563
35733SOL    HW212011   7.040   9.494   8.382 -1.0888  0.3379  0.5203
35734SOL     OW12012   8.511   4.545   8.862 -0.1783  0.1701 -0.5044
35734SOL    HW112013   8.500   4.604   8.936  0.8364  0.3149 -0.4572
35734SOL    HW212014   8.470   4.590   8.789 -2.1366 -0.4323  0.1483
35735SOL     OW12015   7.445   5.386   0.312  0.0033  0.3582 -0.8269
35735SOL    HW112016   7.385   5.400   0.386 -0.2944  0.0859 -1.0131
35735SOL    HW212017   7.404   5.433   0.239  0.7109  1.3226 -0.6298
35736SOL     OW12018   9.056  12.463   8.271  0.7264 -0.1271  0.2766
35736SOL    HW112019   9.089  12.373   8.268  1.1023  0.0086  0.4236
35736SOL    HW212020   8.966  12.455   8.239  1.2329 -0.3270 -1.1633
35737SOL     OW12021   9.047   8.051   8.664  0.8410  0.1074  0.0351
35737SOL    HW112022   9.114   8.116   8.645  0.6140  0.3110 -0.0824
35737SOL    HW212023   9.095   7.970   8.677  1.1256  0.2970  0.1756
35738SOL     OW12024  11.186  10.009  11.386  0.3805 -0.3370  0.3042
35738SOL    HW112025  11.277  10.040  11.393  0.4125 -0.7879  3.0698
35738SOL    HW212026  11.184   9.930  11.439 -1.7111 -0.1380  0.5831
35739SOL     OW12027   6.183   2.618   5.587 -1.0950  0.1582  0.0793
35739SOL    HW112028   6.207   2.700   5.629  0.4051 -0.9776  1.5815
35739SOL    HW212029   6.120   2.578   5.647 -0.2376 -0.7074  0.4216
35740SOL     OW12030   7.368   2.833  10.822  0.4306  0.2287 -0.3131
35740SOL    HW112031   7.402   2.909  10.869 -1.8873  0.4567  1.1234
35740SOL    HW212032   7.444   2.798  10.775  2.3190  1.4369  1.6643
35741SOL     OW12033   7.090   7.399   1.582 -0.7833 -0.5203  0.2361
35741SOL    HW112034   7.080   7.343   1.505  0.5650  0.5311 -0.7762
35741SOL    HW212035   7.092   7.339   1.656 -0.3813 -1.7287 -0.7184
35742SOL     OW12036  12.458   1.579   4.132 -0.4802  0.1560  0.1999
35742SOL    HW112037  12.434   1.529   4.053 -0.0584  0.9708 -0.4631
35742SOL    HW212038  12.484   1.665   4.099 -1.7718  1.0360  1.3836
35743SOL     OW12039   7.644   8.454  11.333 -0.1473 -0.2618  0.1459
35743SOL    HW112040   7.590   8.400  11.391 -1.8403  2.5970  1.4392
35743SOL    HW212041   7.719   8.480  11.387 -1.2494  1.6326  0.8591
35744SOL     OW12042   8.790  10.319   3.634 -0.6532 -0.0635  0.6074
35744SOL    HW112043   8.705  10.279   3.614 -0.2357 -0.4040 -0.6138
35744SOL    HW212044   8.796  10.394   3.574 -0.2726  0.2116  0.9843
35745SOL     OW12045   5.058   0.140  12.557 -0.4836 -0.4310 -0.6699
35745SOL    HW112046   5.140   0.187  12.576 -1.0558  0.8521 -1.2202
35745SOL    HW212047   5.066   0.114  12.465 -0.3866 -0.9661 -0.5120
35746SOL     OW12048   7.500   4.001  11.071 -0.2306 -0.4620 -0.4174
35746SOL    HW112049   7.513   4.075  11.130  0.6175 -1.1734  0.3244
35746SOL    HW212050   7.437   3.945  11.118  1.2359 -1.5363  0.3332
35747SOL     OW12051   2.934   2.529   0.826 -0.0873  0.4768 -0.0935
35747SOL    HW112052   2.975   2.553   0.743  1.1023  0.9559  0.6187
35747SOL    HW212053   2.844   2.504   0.802  0.9357 -1.9046 -1.8673
35748SOL     OW12054   6.505   8.930   5.615 -0.2696  0.1377  0.3000
35748SOL    HW112055   6.553   8.847   5.619  0.7049  0.5681 -1.3990
35748SOL    HW212056   6.561   8.987   5.563 -2.7023  0.6241 -1.9497
35749SOL     OW12057   6.383   1.286   8.981 -0.1643 -0.4435 -0.1694
35749SOL    HW112058   6.419   1.312   9.066  1.4430  3.2938 -1.7836
35749SOL    HW212059   6.460   1.267   8.927 -1.1110 -1.9695 -1.0715
35750SOL     OW12060  10.949   9.629   0.108  0.0215 -0.1180  0.1329
35750SOL    HW112061  11.035   9.590   0.120 -0.2772 -0.2268  2.4053
35750SOL    HW212062  10.954   9.713   0.154 -0.1814  1.3636 -2.3765
35751SOL     OW12063   5.985   4.114   7.840  0.1293  0.1702 -0.2128
35751SOL    HW112064   5.917   4.074   7.784  2.1276 -1.7860 -1.4092
35751SOL    HW212065   6.029   4.176   7.783 -0.4232  1.2271  0.4828
35752SOL     OW12066  10.849   0.600  12.446  0.2386  0.6044  0.5584
35752SOL    HW112067  10.811   0.687  12.454  1.7661  1.4024 -0.4254
35752SOL    HW212068  10.937   0.615  12.412  1.0391 -1.2421  1.6671
35753SOL     OW12069   5.451  12.538   2.179 -0.0175  0.3098  0.3543
35753SOL    HW112070   5.440  12.567   2.088  0.9700  0.3179  0.2245
35753SOL    HW212071   5.362  12.536   2.214 -0.4292  0.2001 -0.6436
35754SOL     OW12072   0.014   0.450   7.893  0.2195  0.8034 -0.4152
35754SOL    HW112073  -0.043   0.390   7.940 -2.2002  1.2879 -2.5023
35754SOL    HW212074   0.010   0.532   7.943 -1.5248  1.0286 -0.8656
35755SOL     OW12075   1.272   0.014   1.649  0.1616 -0.6223  0.3333
35755SOL    HW112076   1.314  -0.058   1.603  1.4470  0.5957 -0.4551
35755SOL    HW212077   1.301   0.004   1.740  3.0064  0.6867 -0.3280
35756SOL     OW12078   3.759   9.673   1.138 -0.1207  0.0333 -0.0227
35756SOL    HW112079   3.663   9.679   1.140 -0.0975  0.1275  1.6417
35756SOL    HW212080   3.783   9.704   1.051 -1.6477 -0.6907 -0.7444
35757SOL     OW12081   5.446   5.118   0.614  0.1367 -0.3586  0.3976
35757SOL    HW112082   5.525   5.104   0.666 -0.3118  1.1819  1.5599
35757SOL    HW212083   5.434   5.212   0.613 -2.2640 -0.5898  1.1531
35758SOL     OW12084   0.883   9.188  11.012  0.0659  0.0297  0.0316
35758SOL    HW112085   0.854   9.112  10.961  1.2856  0.1676 -0.8982
35758SOL    HW212086   0.945   9.233  10.955  0.5528  0.8543  1.1838
35759SOL     OW12087   2.053   2.487   2.416  0.3055 -0.3779  0.1682
35759SOL    HW112088   2.098   2.488   2.501  1.6808 -1.0151 -0.5210
35759SOL    HW212089   2.004   2.569   2.415  1.5349  0.4197  0.9348
35760SOL     OW12090   8.639  12.479   3.859  0.3325  0.5354 -0.2157
35760SOL    HW112091   8.631  12.415   3.929  0.7822 -0.8624 -1.3861
35760SOL    HW212092   8.551  12.486   3.822  0.1575  1.0587  0.2785
35761SOL     OW12093  10.513   3.933   9.015  0.0703 -0.3179  0.8413
35761SOL    HW112094  10.460   3.949   9.093  0.5522 -0.5285  1.2188
35761SOL    HW212095  10.455   3.885   8.955 -0.0928 -0.7610  1.3455
35762SOL     OW12096   6.289   6.943   3.753 -0.3038  0.0132 -0.2852
35762SOL    HW112097   6.369   6.992   3.775 -1.0964  0.6286  1.3724
35762SOL    HW212098   6.272   6.890   3.831 -0.1954 -1.9813 -1.5486
35763SOL     OW12099   2.521   0.244   8.639  0.1270 -0.5859 -0.0394
35763SOL    HW112100   2.493   0.318   8.585  0.9209 -0.3578 -0.1467
35763SOL    HW212101   2.444   0.224   8.693 -0.2871 -0.0611 -0.4196
35764SOL     OW12102  11.683   3.256   6.543  0.0897  0.6676 -0.1434
35764SOL    HW112103  11.684   3.199   6.620 -0.4795  1.2465  0.3122
35764SOL    HW212104  11.752   3.320   6.560  0.7903  0.0683 -0.6979
35765SOL     OW12105   4.543   6.438   8.443  0.3872 -0.7046 -0.4171
35765SOL    HW112106   4.611   6.447   8.376 -0.3183 -0.3849 -1.1135
35765SOL    HW212107   4.471   6.393   8.398 -0.6056  0.6552 -0.2662
35766SOL     OW12108  10.825   5.018   5.424 -0.1914 -0.4190  0.0133
35766SOL    HW112109  10.779   4.963   5.360 -1.4713  1.4495 -0.7493
35766SOL    HW212110  10.787   5.105   5.413  1.5691  0.5911  1.3674
35767SOL     OW12111   4.634   0.751  11.441 -0.0085  0.1100  0.0721
35767SOL    HW112112   4.626   0.812  11.367 -2.0940 -0.7021 -0.4113
35767SOL    HW212113   4.703   0.691  11.414 -1.0921 -0.4979 -1.4959
35768SOL     OW12114  10.495   4.460   5.558 -0.1039 -0.6041  0.0903
35768SOL    HW112115  10.452   4.536   5.598 -0.5008 -0.3556 -0.7821
35768SOL    HW212116  10.583   4.460   5.594 -0.6612 -0.8109  1.5154
35769SOL     OW12117   4.449   1.978   1.071  0.2150  0.3651 -0.0558
35769SOL    HW112118   4.439   1.885   1.051  1.1249  0.3476 -0.4569
35769SOL    HW212119   4.359   2.012   1.073 -0.0713 -0.2866 -1.0610
35770SOL     OW12120   9.558   6.709   6.949 -0.2423 -0.4575  0.5999
35770SOL    HW112121   9.508   6.654   6.890  0.6934 -0.4188 -0.2629
35770SOL    HW212122   9.500   6.782   6.969  0.0037  0.4480 -1.6956
35771SOL     OW12123  12.438   1.517   9.085 -0.0964  0.0084  0.5073
35771SOL    HW112124  12.418   1.597   9.135  0.1742  0.5115 -0.1722
35771SOL    HW212125  12.524   1.534   9.047 -0.2034 -0.4558  0.0538
35772SOL     OW12126  10.717   9.627   4.993  0.9534  0.1456  0.0073
35772SOL    HW112127  10.687   9.609   5.082  3.5609  1.8918  1.3466
35772SOL    HW212128  10.657   9.694   4.961 -0.8741 -1.4623 -0.2011
35773SOL     OW12129   9.482   0.144  12.136  0.0622  0.1561  0.2008
35773SOL    HW112130   9.576   0.159  12.139 -0.1294  1.4084  0.1647
35773SOL    HW212131   9.445   0.224  12.100 -1.1364  0.2490  1.5356
35774SOL     OW12132  10.029  11.841  12.439 -0.3566 -0.9528  0.3316
35774SOL    HW112133  10.093  11.911  12.423  0.7519 -2.2241 -1.0740
35774SOL    HW212134  10.083  11.765  12.463 -1.2522 -2.2510 -1.5662
35775SOL     OW12135   0.356   1.367   6.278  0.1273  0.0154 -1.1630
35775SOL    HW112136   0.405   1.369   6.196  1.8289 -0.4008 -0.1940
35775SOL    HW212137   0.375   1.281   6.316 -0.9368  0.0518 -0.4912
35776SOL     OW12138   9.054   5.980  11.801 -0.0875 -0.5563  0.0364
35776SOL    HW112139   9.094   6.063  11.775 -1.3729  0.0809  0.0151
35776SOL    HW212140   8.978   6.006  11.854 -0.3248 -1.7235  0.2902
35777SOL     OW12141   7.255   4.343  10.350 -0.2112 -0.2913 -0.2797
35777SOL    HW112142   7.164   4.348  10.377 -0.2484 -0.8220 -0.2903
35777SOL    HW212143   7.258   4.387  10.265 -0.3122  0.3680  0.0584
35778SOL     OW12144  12.427   6.497   2.402  0.0640  0.0171 -0.9981
35778SOL    HW112145  12.477   6.528   2.326 -0.6600  0.4828 -1.3081
35778SOL    HW212146  12.422   6.573   2.460 -1.6696  0.5172 -1.7317
35779SOL     OW12147   4.341   3.326   6.510 -0.2181 -0.1031  0.0188
35779SOL    HW112148   4.392   3.336   6.430  2.6712  0.9131  1.8477
35779SOL    HW212149   4.294   3.409   6.519  0.8175  0.4835  0.2065
35780SOL     OW12150   4.577   2.400   4.309 -0.4645 -0.4627  0.1332
35780SOL    HW112151   4.612   2.467   4.367  0.4190  0.4311 -1.3587
35780SOL    HW212152   4.601   2.317   4.350  1.6872  0.1345  0.2056
35781SOL     OW12153   9.038  11.598   3.655  0.2269 -0.1186 -0.1037
35781SOL    HW112154   9.044  11.608   3.750  0.7251  1.7079 -0.2974
35781SOL    HW212155   9.062  11.506   3.639 -0.5493 -0.6447  1.5704
35782SOL     OW12156   3.627   4.156   8.275 -0.6096 -0.0002 -0.1083
35782SOL    HW112157   3.538   4.150   8.240 -0.2702 -0.1803 -0.9666
35782SOL    HW212158   3.645   4.070   8.313 -0.8654  0.0980  0.2445
35783SOL     OW12159   3.984  11.626  10.890 -0.1622 -0.0464 -0.3412
35783SOL    HW112160   4.042  11.669  10.952 -1.1342  0.9443 -0.0929
35783SOL    HW212161   4.040  11.605  10.815  1.1002 -1.5361  0.9500
35784SOL     OW12162  10.072   1.057   6.710 -0.3011  0.4111  0.1722
35784SOL    HW112163  10.022   0.976   6.703  1.0609 -0.4958  0.5315
35784SOL    HW212164  10.139   1.050   6.641 -1.1677  2.0149 -0.9163
35785SOL     OW12165   6.132   5.384   3.596  0.1458  0.1849  0.2936
35785SOL    HW112166   6.100   5.316   3.656  0.0138  1.0693  1.2492
35785SOL    HW212167   6.060   5.398   3.535  0.3820 -0.9205 -0.2798
35786SOL     OW12168   1.149  10.019  10.417 -0.5541  0.4920 -0.3567
35786SOL    HW112169   1.204  10.064  10.354 -0.5210  0.5240 -0.3038
35786SOL    HW212170   1.194  10.027  10.501 -1.1525  1.4261 -0.1095
35787SOL     OW12171   1.238   8.833   5.250  0.3722  0.0660  0.6094
35787SOL    HW112172   1.155   8.832   5.297 -0.2237  1.4143 -0.3531
35787SOL    HW212173   1.300   8.793   5.311 -0.9434 -0.9126  1.3765
35788SOL     OW12174   2.739   5.600   4.297  0.2372 -0.0236  0.6606
35788SOL    HW112175   2.822   5.572   4.260  0.5820  0.4032  1.0924
35788SOL    HW212176   2.706   5.665   4.235 -0.1296 -0.7133  0.1205
35789SOL     OW12177   1.544   2.879  10.719 -0.2167 -0.1574 -0.2331
35789SOL    HW112178   1.543   2.971  10.695  0.5497  0.0139  0.3502
35789SOL    HW212179   1.630   2.865  10.759 -1.1500 -0.5699  1.7763
35790SOL     OW12180   4.565   8.872   6.889 -0.1095  0.4705 -0.3816
35790SOL    HW112181   4.598   8.792   6.848  1.7930  1.0188 -0.0473
35790SOL    HW212182   4.602   8.870   6.978  2.1313  2.8510 -1.1189
35791SOL     OW12183   6.788  12.505   7.875 -0.0708  0.1504  0.2443
35791SOL    HW112184   6.850  12.446   7.918 -1.5078 -1.2296  0.5673
35791SOL    HW212185   6.744  12.449   7.811 -1.9425  0.6703  1.0114
35792SOL     OW12186   5.577  12.588   9.580 -0.0330 -0.2086 -0.1323
35792SOL    HW112187   5.532  12.612   9.661 -0.7415 -0.8489 -0.3232
35792SOL    HW212188   5.620  12.505   9.601  0.2503 -0.0879 -0.2425
35793SOL     OW12189   0.997   4.214   4.401  0.1244  0.1083 -0.0181
35793SOL    HW112190   1.020   4.245   4.489  1.5091 -0.4077 -0.1806
35793SOL    HW212191   1.075   4.231   4.348 -0.9794  1.1969 -1.3754
35794SOL     OW12192   1.749   0.849   0.564  0.3570  0.6187 -0.0673
35794SOL    HW112193   1.663   0.833   0.526  0.0614  0.2213  0.7282
35794SOL    HW212194   1.769   0.940   0.541 -0.0333  0.5463 -0.7117
35795SOL     OW12195  10.352  12.623   7.169  0.3989 -0.6774 -0.4591
35795SOL    HW112196  10.360  12.662   7.081  1.2782 -0.0719 -0.1302
35795SOL    HW212197  10.259  12.609   7.181  0.2603 -0.6749 -1.4587
35796SOL     OW12198   4.239   1.160   6.655  0.2316  0.2981  0.3449
35796SOL    HW112199   4.285   1.132   6.576 -0.7514 -1.4293  0.3307
35796SOL    HW212200   4.181   1.231   6.625 -0.2457 -0.4466 -0.5362
35797SOL     OW12201  11.517  11.976   1.436  0.0929 -0.2682 -0.7797
35797SOL    HW112202  11.514  12.067   1.466 -2.8713 -1.4612  3.4641
35797SOL    HW212203  11.585  11.936   1.490 -0.8754 -1.2046 -0.2309
35798SOL     OW12204   1.397   6.823   8.499 -0.2115  0.6915  0.3320
35798SOL    HW112205   1.306   6.816   8.469  0.0957  0.9526 -0.6993
35798SOL    HW212206   1.405   6.913   8.532 -0.8098  0.1283  2.1816
35799SOL     OW12207   3.900   7.613   6.006 -0.3579  0.1513  0.0009
35799SOL    HW112208   3.865   7.667   5.935 -2.2484 -1.7447 -0.6088
35799SOL    HW212209   3.993   7.603   5.986 -0.7557  0.0256 -1.9977
35800SOL     OW12210   8.244   7.743  10.525 -0.4158 -0.1720 -0.3406
35800SOL    HW112211   8.204   7.730  10.439  0.4211 -0.7627 -0.6577
35800SOL    HW212212   8.274   7.656  10.551  0.8894  0.2727 -0.2548
35801SOL     OW12213  11.919   2.351   3.039  0.3129  0.0542 -0.0061
35801SOL    HW112214  11.913   2.404   3.118  1.6656 -0.7569  0.6856
35801SOL    HW212215  11.858   2.391   2.977 -0.3383  1.0418  1.2554
35802SOL     OW12216   2.184   5.794   8.036 -0.1030  0.1576 -0.5919
35802SOL    HW112217   2.255   5.823   8.093  0.5045 -1.6367 -0.3614
35802SOL    HW212218   2.104   5.813   8.085 -0.0005  3.7714 -1.5556
35803SOL     OW12219   5.104   8.085   1.162  0.3103 -0.1939 -0.5524
35803SOL    HW112220   5.172   8.054   1.222  0.8107  1.1409 -0.4110
35803SOL    HW212221   5.140   8.164   1.124  0.3492 -1.4230 -3.2666
35804SOL     OW12222   5.160   8.933   9.916 -0.1458  0.2588 -0.3043
35804SOL    HW112223   5.154   9.018   9.872 -0.9653 -0.3489 -1.4019
35804SOL    HW212224   5.211   8.879   9.856 -1.3291 -0.6016 -0.5664
35805SOL     OW12225   5.142   4.776   8.602 -0.3045 -0.4950  0.4471
35805SOL    HW112226   5.120   4.694   8.559 -1.3586 -0.4771  0.9094
35805SOL    HW212227   5.179   4.750   8.686  0.4636 -0.5074  0.1110
35806SOL     OW12228   5.452   3.209   7.018 -0.0425  0.4740  0.4386
35806SOL    HW112229   5.433   3.116   7.004  3.1920 -0.1719 -0.6056
35806SOL    HW212230   5.495   3.212   7.103 -1.5696  1.3531  1.2311
35807SOL     OW12231   8.474   9.204   0.902  0.5158 -0.1034 -0.4354
35807SOL    HW112232   8.432   9.119   0.918  0.2454  0.2082  0.5583
35807SOL    HW212233   8.528   9.219   0.979 -0.9273  1.5015  0.3388
35808SOL     OW12234   7.367   8.720   6.915 -0.8098  0.5362  0.5417
35808SOL    HW112235   7.301   8.724   6.846  1.5445  1.1473 -1.8330
35808SOL    HW212236   7.379   8.811   6.942 -2.2519  0.2313  2.4162
35809SOL     OW12237   6.012  11.226   1.160 -0.0133  0.2238 -0.0227
35809SOL    HW112238   6.012  11.316   1.193 -1.2853  0.1702  0.1621
35809SOL    HW212239   5.995  11.235   1.066  0.5078  0.1968 -0.1261
35810SOL     OW12240   9.781   3.188   7.716  0.3645 -0.0029  0.0018
35810SOL    HW112241   9.779   3.202   7.811  0.8737  1.1802 -0.1496
35810SOL    HW212242   9.803   3.095   7.707 -1.4669 -0.5840  1.0290
35811SOL     OW12243   2.198   0.677   0.504 -0.8357  0.4470  0.3464
35811SOL    HW112244   2.234   0.762   0.479 -0.6963  0.6023  1.0524
35811SOL    HW212245   2.193   0.628   0.422  5.9078 -1.6017  0.5902
35812SOL     OW12246   1.796   9.082   7.096 -0.5682 -0.1646  0.0660
35812SOL    HW112247   1.803   8.990   7.071  0.9448  0.1838 -0.8925
35812SOL    HW212248   1.875   9.100   7.146  0.4279  1.2201 -1.8625
35813SOL     OW12249   9.550   1.711  12.412  0.4833 -0.2633  0.7354
35813SOL    HW112250   9.461   1.748  12.409 -0.7664 -3.1019 -0.8197
35813SOL    HW212251   9.594   1.750  12.336  0.8042  1.5085  1.7662
35814SOL     OW12252   0.429  12.038   5.692  0.9185 -0.4406  0.4743
35814SOL    HW112253   0.359  12.064   5.633 -0.3828 -0.0716  2.0946
35814SOL    HW212254   0.492  12.110   5.687 -0.4983  0.9333  1.5452
35815SOL     OW12255   1.611   9.741  11.894 -0.5126  1.2074 -0.1147
35815SOL    HW112256   1.638   9.832  11.885  1.1927  0.6738 -0.9326
35815SOL    HW212257   1.691   9.691  11.878 -1.4898 -0.4508 -0.0539
35816SOL     OW12258   1.561   9.424   8.578  0.0669  0.2904  0.2290
35816SOL    HW112259   1.580   9.382   8.662  0.0051  0.2031  0.1999
35816SOL    HW212260   1.614   9.375   8.514  0.2505  0.4714  0.2436
35817SOL     OW12261   4.122   0.345  11.413 -0.0211 -0.4921 -0.9934
35817SOL    HW112262   4.031   0.360  11.440  0.1297  1.7726 -1.5389
35817SOL    HW212263   4.146   0.262  11.455 -1.8012 -0.2936  0.5594
35818SOL     OW12264  11.541   1.756   5.598  0.1120  0.0781  0.2945
35818SOL    HW112265  11.583   1.829   5.553  0.7226  0.9155  2.1709
35818SOL    HW212266  11.612   1.694   5.615 -0.3309 -0.8117 -0.9019
35819SOL     OW12267   9.867   7.809  11.709 -0.2631 -0.3258  0.2292
35819SOL    HW112268   9.828   7.883  11.756  1.2687 -0.4850  1.8878
35819SOL    HW212269   9.802   7.785  11.644 -1.4094  1.5726  0.5799
35820SOL     OW12270   8.610   6.666   4.912 -0.2143 -0.1193  0.5646
35820SOL    HW112271   8.517   6.656   4.891 -0.4110 -1.2688  1.8568
35820SOL    HW212272   8.650   6.582   4.888  0.6157  0.5288 -0.4467
35821SOL     OW12273  12.537   2.065   9.500 -0.2199  0.1810  0.2502
35821SOL    HW112274  12.560   2.158   9.492  0.4693 -0.0822 -1.0907
35821SOL    HW212275  12.610   2.019   9.460 -1.1235 -0.8886 -0.2184
35822SOL     OW12276   7.388  11.426   5.884 -0.1858 -0.1598  0.1098
35822SOL    HW112277   7.433  11.495   5.933 -3.1199  2.2167 -0.2334
35822SOL    HW212278   7.453  11.393   5.823  1.4628  2.1814  0.4647
35823SOL     OW12279   5.003  10.098  11.454 -0.1475  0.3499 -0.1864
35823SOL    HW112280   5.034  10.188  11.460 -0.5159  0.3995  1.2875
35823SOL    HW212281   4.958  10.094  11.369  3.0465  0.4917 -2.0262
35824SOL     OW12282   5.021   8.151   0.415 -0.8102  0.6925  0.0394
35824SOL    HW112283   4.956   8.087   0.445 -0.6688  0.0942 -0.8855
35824SOL    HW212284   5.025   8.138   0.320  0.3041  1.0448  0.0245
35825SOL     OW12285   1.002   7.742   5.162  0.0763 -0.5508 -0.0218
35825SOL    HW112286   0.947   7.805   5.208  0.6228 -0.3660  0.3902
35825SOL    HW212287   0.948   7.663   5.157 -0.4881 -0.1555 -0.2526
35826SOL     OW12288  10.230   2.983   8.348  0.0787 -0.4823  0.3208
35826SOL    HW112289  10.282   2.934   8.284 -1.0647 -0.7462 -0.4254
35826SOL    HW212290  10.147   3.001   8.303 -0.4266  0.0606  1.4371
35827SOL     OW12291   4.243   5.978   5.624 -0.0810 -0.1389  0.8243
35827SOL    HW112292   4.166   5.938   5.583 -0.2022  0.1443  0.7703
35827SOL    HW212293   4.206   6.041   5.686  0.1130  0.5855  0.2115
35828SOL     OW12294   0.393  12.310   3.979  0.1381  0.4682  0.4952
35828SOL    HW112295   0.328  12.380   3.985  2.0046  2.3143  0.3401
35828SOL    HW212296   0.426  12.314   3.889  2.4564  1.5653  1.3011
35829SOL     OW12297   3.279   4.755   3.521  0.6943 -0.3263 -0.5030
35829SOL    HW112298   3.312   4.696   3.454  0.4461 -1.3198  0.2309
35829SOL    HW212299   3.352   4.767   3.581  0.2548 -1.2082  0.2279
35830SOL     OW12300   5.756   4.372   0.764  0.4383  0.2903 -0.5705
35830SOL    HW112301   5.754   4.467   0.757 -1.0789  0.3986  0.6937
35830SOL    HW212302   5.691   4.342   0.700  1.6510  0.0071 -1.7153
35831SOL     OW12303   3.897   3.487   0.828 -0.0995  0.0692 -0.6892
35831SOL    HW112304   3.940   3.528   0.753 -1.0823  2.2229 -0.1395
35831SOL    HW212305   3.812   3.457   0.793 -0.4011  0.7354 -0.5389
35832SOL     OW12306  10.519   9.871   3.310 -0.0972  0.1602 -0.3690
35832SOL    HW112307  10.475   9.818   3.243 -0.7011  1.5304 -1.1046
35832SOL    HW212308  10.545   9.809   3.377 -2.7496 -0.7913 -0.1215
35833SOL     OW12309   3.014   3.595   8.738 -0.0284 -0.2542  0.4528
35833SOL    HW112310   2.920   3.603   8.721 -0.2727 -0.6145  1.5490
35833SOL    HW212311   3.045   3.686   8.745 -0.1740 -0.1222 -0.4519
35834SOL     OW12312   9.282   9.806   5.529  0.5318  0.0129  0.1718
35834SOL    HW112313   9.309   9.809   5.621 -1.0297 -0.8235  0.6987
35834SOL    HW212314   9.227   9.883   5.517  0.2985 -0.1642  0.0948
35835SOL     OW12315   0.797   2.648   8.776  0.3084  0.0608 -0.4364
35835SOL    HW112316   0.728   2.633   8.840  0.9040 -0.6336  0.0532
35835SOL    HW212317   0.865   2.585   8.799  1.2700  0.9869 -0.6680
35836SOL     OW12318   5.553   9.482  10.205 -0.3152 -0.3261  0.0104
35836SOL    HW112319   5.482   9.450  10.149  0.2005 -0.5628 -0.5120
35836SOL    HW212320   5.627   9.426  10.184 -0.4546 -1.2603  1.8677
35837SOL     OW12321   9.053  10.846   5.987 -0.1544 -0.2972 -0.0475
35837SOL    HW112322   9.095  10.830   5.902 -0.0238 -0.7133  0.0936
35837SOL    HW212323   8.972  10.891   5.965 -1.0421 -2.0533 -0.5469
35838SOL     OW12324   6.070   5.957   1.792  0.5026 -0.4625  1.1324
35838SOL    HW112325   6.134   5.998   1.734  1.1638 -0.9729  1.4927
35838SOL    HW212326   6.104   5.870   1.809 -1.3237 -1.5433 -0.3336
35839SOL     OW12327   8.082  11.890   2.565  0.1742  0.6219 -0.0883
35839SOL    HW112328   8.043  11.875   2.651 -1.4246 -1.2149 -1.0690
35839SOL    HW212329   8.123  11.807   2.542  3.4802  2.0411  0.2174
35840SOL     OW12330   8.273   8.769  10.498 -0.3541  0.1446 -0.3208
35840SOL    HW112331   8.253   8.862  10.486  0.8492  0.4953  0.1545
35840SOL    HW212332   8.203   8.723  10.453 -0.3224  1.3011 -1.6274
35841SOL     OW12333   5.885  11.221   3.682 -0.0207  0.0702  0.2656
35841SOL    HW112334   5.925  11.307   3.689  0.6694 -0.1673 -0.6384
35841SOL    HW212335   5.842  11.221   3.596  0.2889 -0.6008  0.0998
35842SOL     OW12336  10.003   7.909   0.331  0.3266  0.4327 -0.3302
35842SOL    HW112337   9.963   7.825   0.349  0.1771  0.8116  1.2357
35842SOL    HW212338  10.096   7.895   0.348  0.3014  0.5932 -0.0681
35843SOL     OW12339   2.576   2.823   0.911  0.0336  0.4070  0.6404
35843SOL    HW112340   2.662   2.788   0.934  0.7146  0.5978 -1.4448
35843SOL    HW212341   2.586   2.918   0.922  0.7313  0.6119 -1.3993
35844SOL     OW12342   6.514   8.241  10.232  0.1356 -0.2702 -0.5034
35844SOL    HW112343   6.554   8.181  10.295  2.7254  0.4376 -1.3807
35844SOL    HW212344   6.493   8.319  10.284  0.2596 -0.4930 -0.1112
35845SOL     OW12345   8.904   8.720  11.875 -0.6187  0.0675  0.0320
35845SOL    HW112346   8.919   8.662  11.800 -2.4561 -0.0140 -0.3182
35845SOL    HW212347   8.860   8.797  11.837 -1.1570  0.2321  0.9654
35846SOL     OW12348   2.211   1.440  10.982 -0.0111  0.2129 -0.1057
35846SOL    HW112349   2.132   1.387  10.996 -0.0442  0.5814  1.2659
35846SOL    HW212350   2.193   1.489  10.902 -0.1386 -1.5320 -1.1893
35847SOL     OW12351   8.200  10.838  10.760 -0.0040 -0.4502 -0.1234
35847SOL    HW112352   8.195  10.813  10.853  0.8920  1.2425  0.4209
35847SOL    HW212353   8.262  10.776  10.722 -2.5088 -3.0589 -0.3574
35848SOL     OW12354   0.666   5.814   7.513 -0.4683  0.7270  0.2516
35848SOL    HW112355   0.629   5.831   7.599 -1.1150  0.3673  0.0528
35848SOL    HW212356   0.607   5.857   7.452 -2.3729 -2.3334 -0.2894
35849SOL     OW12357   2.538   6.644  11.219 -0.1936 -0.0593  0.7947
35849SOL    HW112358   2.622   6.662  11.176 -0.0324  1.5467  1.6902
35849SOL    HW212359   2.488   6.725  11.209 -1.0833 -0.5067  1.4966
35850SOL     OW12360   7.175   2.429  12.268 -0.3377  0.1705 -0.1313
35850SOL    HW112361   7.140   2.433  12.357 -2.1469 -1.1310 -0.7366
35850SOL    HW212362   7.257   2.380  12.277  0.3227  1.4037  1.0004
35851SOL     OW12363   9.799  12.228   9.371  0.1220  0.6564  0.1011
35851SOL    HW112364   9.893  12.220   9.388  0.0877 -0.0197  0.0002
35851SOL    HW212365   9.763  12.143   9.396 -0.2606  0.4449 -1.1259
35852SOL     OW12366  11.516   2.745   5.469  0.0158 -0.4139  0.7698
35852SOL    HW112367  11.514   2.724   5.376  1.0231 -0.4402  0.7409
35852SOL    HW212368  11.572   2.823   5.475  1.0629 -1.1978  1.4772
35853SOL     OW12369  12.523   3.168  11.468  0.3399  0.4014 -0.0878
35853SOL    HW112370  12.513   3.236  11.402  0.2160  0.1763 -0.3015
35853SOL    HW212371  12.596   3.114  11.436 -1.1254 -1.0061 -1.1783
35854SOL     OW12372   8.016   2.184   0.461 -0.0272 -0.5719 -0.2497
35854SOL    HW112373   7.984   2.196   0.372 -1.3991  0.5102  0.3543
35854SOL    HW212374   8.099   2.232   0.464 -0.0343 -0.5140 -0.9090
35855SOL     OW12375   4.957   4.024  11.777  0.0960 -0.3601 -0.3851
35855SOL    HW112376   4.978   3.984  11.860  0.5822 -0.5095 -0.5779
35855SOL    HW212377   5.003   3.971  11.712  0.2275  0.1192 -0.6931
35856SOL     OW12378   7.241   1.033   4.736  0.6887  0.0392  0.2942
35856SOL    HW112379   7.197   0.958   4.696  1.3872 -0.4639  0.4496
35856SOL    HW212380   7.299   1.066   4.667  0.7960  0.0888  0.4082
35857SOL     OW12381  12.613   7.327   2.800 -0.1734  0.7175  0.0011
35857SOL    HW112382  12.526   7.349   2.833 -0.3017 -0.5203  0.5323
35857SOL    HW212383  12.597   7.257   2.736  0.4099  0.6101 -0.0311
35858SOL     OW12384  11.348   1.200   9.227 -0.0160 -0.0391  0.2797
35858SOL    HW112385  11.263   1.235   9.200 -0.8532 -0.0493  2.6360
35858SOL    HW212386  11.367   1.245   9.309  2.9020  0.8620 -0.7796
35859SOL     OW12387   5.453   7.992  11.628  0.4317  0.7404  0.3199
35859SOL    HW112388   5.372   8.042  11.618 -0.6947 -0.3678  2.9166
35859SOL    HW212389   5.500   8.035  11.699  0.4133 -0.6251  1.2068
35860SOL     OW12390  11.029   8.996   5.504  0.2581  0.1872 -0.1076
35860SOL    HW112391  10.976   9.073   5.484  1.1011  1.0657  0.9069
35860SOL    HW212392  10.967   8.923   5.505 -0.8555  1.1171  0.5719
35861SOL     OW12393   0.370  12.286   3.460  0.2405  0.2278 -0.1620
35861SOL    HW112394   0.402  12.292   3.550  0.4572 -0.6912 -0.1681
35861SOL    HW212395   0.381  12.194   3.436  2.0681  0.7992 -1.8075
35862SOL     OW12396   3.567   8.036   8.018 -0.3535  0.3168 -0.2834
35862SOL    HW112397   3.484   8.021   8.063  0.6642  0.3139  1.7063
35862SOL    HW212398   3.634   8.003   8.078  1.0660 -0.6441 -2.2609
35863SOL     OW12399   3.588   3.157   4.936  0.2165 -0.2386  0.4118
35863SOL    HW112400   3.524   3.087   4.944 -0.6749  0.3889 -0.8657
35863SOL    HW212401   3.661   3.118   4.888  0.0008 -0.4714  0.2707
35864SOL     OW12402   6.694   8.479   5.707 -0.3609  0.6447  0.8873
35864SOL    HW112403   6.716   8.565   5.673 -0.5961  0.0674 -0.8034
35864SOL    HW212404   6.778   8.441   5.734 -0.2937  1.4896  1.9397
35865SOL     OW12405   4.911   8.398   3.421  0.3918 -0.0655 -0.1878
35865SOL    HW112406   4.952   8.311   3.421 -2.8445 -1.7577 -0.7242
35865SOL    HW212407   4.905   8.422   3.513  1.6251 -0.2300 -0.0495
35866SOL     OW12408   0.281   3.060  11.041  0.0055 -0.6743  0.5379
35866SOL    HW112409   0.363   3.037  11.084  0.4433 -1.8886 -0.8581
35866SOL    HW212410   0.276   3.002  10.965 -1.2011  0.7074 -0.5066
35867SOL     OW12411  11.438   3.327   0.615  0.1978 -0.4810  0.4162
35867SOL    HW112412  11.511   3.266   0.614  0.3608 -0.3210 -1.8590
35867SOL    HW212413  11.363   3.275   0.586 -0.1882 -0.1803  0.8556
35868SOL     OW12414   7.442   3.972  12.391  0.3824  0.0399 -0.1677
35868SOL    HW112415   7.503   3.925  12.334 -1.1230 -0.8186 -1.1119
35868SOL    HW212416   7.453   4.064  12.368  3.6976  0.3875  2.0154
35869SOL     OW12417   8.032   9.964  11.354 -0.1174 -0.2588  0.4114
35869SOL    HW112418   8.038  10.056  11.379  1.1783 -0.1859 -0.1158
35869SOL    HW212419   7.938   9.949  11.339 -0.2289  1.2635 -0.5778
35870SOL     OW12420  10.284   8.138  10.321  0.0371  0.0915 -0.0101
35870SOL    HW112421  10.266   8.231  10.316  0.7216  0.2759  0.6204
35870SOL    HW212422  10.220   8.097  10.264 -0.7737  0.8858  0.3136
35871SOL     OW12423   0.753   4.170   3.757  0.1246 -0.0979  0.5841
35871SOL    HW112424   0.715   4.184   3.844  0.7496 -1.6133  1.1340
35871SOL    HW212425   0.680   4.137   3.705 -0.1821  0.5430  0.5851
35872SOL     OW12426   8.803   5.396   3.119 -0.5003 -0.2422  0.1142
35872SOL    HW112427   8.795   5.480   3.075  0.9499  0.0590  0.3951
35872SOL    HW212428   8.888   5.362   3.092  0.0506 -0.4445  1.9876
35873SOL     OW12429  11.524   1.148   0.272  1.1806 -0.0864  0.3888
35873SOL    HW112430  11.498   1.240   0.263 -2.2533 -0.7983  1.7511
35873SOL    HW212431  11.542   1.137   0.365 -0.3017 -1.1617  0.5874
35874SOL     OW12432   9.137   1.606   0.883  0.5842  0.4920 -0.4136
35874SOL    HW112433   9.208   1.577   0.940  0.5243  0.0258 -0.5644
35874SOL    HW212434   9.176   1.673   0.827  1.0082  0.0011 -0.7281
35875SOL     OW12435   1.242   4.526   9.052 -0.3897 -0.1416 -0.0476
35875SOL    HW112436   1.154   4.495   9.032 -0.3278 -0.8744  0.7716
35875SOL    HW212437   1.231   4.581   9.130 -0.1442 -0.0921 -0.0457
35876SOL     OW12438  11.618   2.802  11.139 -0.0752  0.4263 -0.1375
35876SOL    HW112439  11.563   2.876  11.167 -0.6808 -0.0996  0.0991
35876SOL    HW212440  11.679   2.789  11.211 -0.0559  0.6183 -0.1203
35877SOL     OW12441   9.405   5.961   6.987 -0.0492 -0.4417 -0.6395
35877SOL    HW112442   9.434   5.878   6.950  0.4215 -0.8686  0.6538
35877SOL    HW212443   9.460   5.974   7.064  0.0786  1.2142 -0.9646
35878SOL     OW12444  12.118   7.008   4.570 -0.1230 -0.5487 -0.1401
35878SOL    HW112445  12.092   6.917   4.554 -0.3451 -0.4584 -0.2834
35878SOL    HW212446  12.072   7.032   4.651  0.8861 -0.9594  0.5865
35879SOL     OW12447   0.795   7.346   0.803  0.1051  0.0757  0.0280
35879SOL    HW112448   0.772   7.334   0.895 -1.1415 -0.7806 -0.3691
35879SOL    HW212449   0.767   7.265   0.760 -0.1709  0.8199 -1.2593
35880SOL     OW12450   0.097  12.152  11.716 -0.1109 -0.0755 -0.1572
35880SOL    HW112451   0.102  12.243  11.687  1.9675 -0.1435 -0.1282
35880SOL    HW212452   0.161  12.146  11.786 -2.5943 -0.7707  2.2297
35881SOL     OW12453   6.185   5.631   4.764 -0.3487  0.1437 -0.4545
35881SOL    HW112454   6.093   5.655   4.756 -1.2415 -1.7721  2.3875
35881SOL    HW212455   6.212   5.667   4.848  1.1360 -0.4159 -0.6596
35882SOL     OW12456  10.656   3.144   9.012 -0.4933 -0.2593 -0.0718
35882SOL    HW112457  10.594   3.195   8.959  0.2144  0.0983 -0.5831
35882SOL    HW212458  10.610   3.127   9.094 -1.1669  0.2259 -0.3401
35883SOL     OW12459   2.158  10.560   6.805 -0.0714  0.5693 -0.4995
35883SOL    HW112460   2.104  10.519   6.737 -0.7610  2.0409 -0.8810
35883SOL    HW212461   2.246  10.528   6.788 -0.5054 -0.3294 -1.1082
35884SOL     OW12462  11.944   3.073   8.398  0.4254 -0.2151  0.2276
35884SOL    HW112463  11.918   3.030   8.316 -0.0077 -0.1013  0.3035
35884SOL    HW212464  12.040   3.062   8.401  0.7292  1.4889 -1.2943
35885SOL     OW12465   5.442   0.519   8.779  0.0800  0.4416 -0.3227
35885SOL    HW112466   5.457   0.488   8.690  2.1389  0.1845  0.0560
35885SOL    HW212467   5.438   0.439   8.832 -0.3045  0.6216 -0.0760
35886SOL     OW12468  10.031   0.072   6.831  0.4479  0.1338  0.5425
35886SOL    HW112469   9.970   0.056   6.904  0.3942  1.0677  0.7207
35886SOL    HW212470  10.018  -0.002   6.772  1.2283 -1.1958  1.9673
35887SOL     OW12471   8.330  12.247   6.101 -0.5342 -0.0469 -0.0475
35887SOL    HW112472   8.384  12.229   6.025  0.3235 -0.6568  0.6816
35887SOL    HW212473   8.280  12.166   6.115 -0.5315 -0.0155  0.1544
35888SOL     OW12474   2.918   1.578  12.598 -0.0017 -0.0213 -0.6446
35888SOL    HW112475   2.897   1.646  12.534  0.2793 -0.2707 -1.0065
35888SOL    HW212476   2.854   1.591  12.668 -0.2176  0.3498 -0.9034
35889SOL     OW12477  11.552   7.824   0.315 -0.1001  0.3705 -0.0635
35889SOL    HW112478  11.560   7.917   0.336 -2.2333  0.6655 -0.3653
35889SOL    HW212479  11.606   7.781   0.381 -2.3696  1.6080  2.8402
35890SOL     OW12480   6.533  11.316   2.848  0.1436  1.0079 -0.2065
35890SOL    HW112481   6.608  11.312   2.790 -0.2305  1.0285 -0.6980
35890SOL    HW212482   6.537  11.235   2.899 -0.1496  0.4512 -1.0417
35891SOL     OW12483  10.232   3.479   8.708  0.3431  0.0783  0.2804
35891SOL    HW112484  10.321   3.513   8.696  0.8967 -1.9036 -2.0684
35891SOL    HW212485  10.187   3.501   8.626 -0.8137 -0.3955  0.7681
35892SOL     OW12486  10.226   0.958   0.785 -0.1107  0.1102  0.0169
35892SOL    HW112487  10.307   0.917   0.757  0.8011  1.3334  0.7778
35892SOL    HW212488  10.231   0.962   0.880 -1.2466 -0.1574  0.1102
35893SOL     OW12489   4.858  10.765   6.372  0.5677  0.5848  0.6876
35893SOL    HW112490   4.888  10.754   6.463  1.2083 -0.0819  0.4013
35893SOL    HW212491   4.829  10.678   6.345 -1.5158  1.1418  0.8815
35894SOL     OW12492   2.711  11.661   1.035  0.0926 -0.5120  0.0649
35894SOL    HW112493   2.792  11.616   1.010 -0.4715 -1.6153  0.1673
35894SOL    HW212494   2.682  11.615   1.114 -0.6870 -0.1987 -0.0375
35895SOL     OW12495  11.872   1.560   4.046  0.2403  0.2936  0.2143
35895SOL    HW112496  11.846   1.563   3.953  0.3229  1.2355  0.2213
35895SOL    HW212497  11.934   1.631   4.057  1.3567 -0.7119  0.6769
35896SOL     OW12498   0.281   6.709   3.371 -0.0546 -0.5308 -0.5507
35896SOL    HW112499   0.308   6.623   3.341 -3.6541 -1.7351 -0.8225
35896SOL    HW212500   0.192   6.720   3.337 -0.2192  2.7892  0.5345
35897SOL     OW12501   2.352  11.200   2.088 -0.3786 -0.3092  0.1410
35897SOL    HW112502   2.302  11.120   2.071  0.0056 -0.3248 -1.0267
35897SOL    HW212503   2.423  11.172   2.146  1.1596 -1.3842 -2.1076
35898SOL     OW12504   5.832   8.466   8.693  0.4988  0.8216 -0.0956
35898SOL    HW112505   5.769   8.536   8.709  2.3171  2.4937  0.0420
35898SOL    HW212506   5.892   8.469   8.768 -0.2083 -1.9356  0.7265
35899SOL     OW12507  11.455  11.851   2.359 -0.4252 -0.2316 -0.1646
35899SOL    HW112508  11.362  11.868   2.344 -0.1990  2.6160  1.0381
35899SOL    HW212509  11.501  11.904   2.294  0.4056 -1.7573 -0.8758
35900SOL     OW12510   8.974   7.376   2.314 -0.5119 -0.0945 -0.6640
35900SOL    HW112511   8.882   7.382   2.285 -0.5323 -0.5672 -0.7053
35900SOL    HW212512   9.001   7.287   2.290 -1.0884 -1.2274  2.4019
35901SOL     OW12513   5.589  11.075   4.136  0.8325 -0.0768 -0.1616
35901SOL    HW112514   5.619  11.162   4.108 -0.1779  0.5069  0.4997
35901SOL    HW212515   5.494  11.083   4.141  0.3554 -2.1938 -3.3065
35902SOL     OW12516   1.935   5.770   7.020  0.2534  0.0193 -0.1398
35902SOL    HW112517   1.877   5.725   7.081  1.5913  0.1339  1.2859
35902SOL    HW212518   2.020   5.726   7.032  1.3781  2.2652  0.6175
35903SOL     OW12519   3.091   3.072   4.926  0.0928  0.2344  0.3083
35903SOL    HW112520   3.019   3.136   4.925  0.5561  0.7837 -1.2517
35903SOL    HW212521   3.161   3.114   4.876  0.8050 -1.0621  0.1708
35904SOL     OW12522  10.247   3.145   5.810 -0.3676  0.1424  0.0896
35904SOL    HW112523  10.231   3.205   5.737  1.9853 -0.9422 -1.4230
35904SOL    HW212524  10.295   3.198   5.874 -1.6305  0.8373  0.5178
35905SOL     OW12525   3.361   7.025   4.043 -0.0522  0.3276  0.0796
35905SOL    HW112526   3.365   6.933   4.071  1.0404  0.7970  1.6751
35905SOL    HW212527   3.407   7.026   3.959 -3.1741 -1.1075 -1.8144
35906SOL     OW12528   9.428  11.720   5.896 -0.0868 -0.1290  0.2421
35906SOL    HW112529   9.367  11.741   5.966  0.9583 -2.0199  1.8065
35906SOL    HW212530   9.376  11.669   5.833 -1.0321  1.6008 -0.4577
35907SOL     OW12531   8.945   1.313  10.582 -0.0574 -0.0735  0.3972
35907SOL    HW112532   9.025   1.336  10.630 -0.3471  1.5645  0.1520
35907SOL    HW212533   8.877   1.309  10.650 -0.2135  0.9577  0.3270
35908SOL     OW12534   6.672  12.368  11.430 -0.2052  0.1751 -0.1730
35908SOL    HW112535   6.673  12.457  11.394  2.4690  0.1089 -0.4295
35908SOL    HW212536   6.693  12.312  11.355  0.2491 -0.4631  0.4230
35909SOL     OW12537  11.163   7.050  11.601 -0.2224 -0.2138 -0.0609
35909SOL    HW112538  11.169   6.958  11.627 -0.7952 -0.3311 -0.3169
35909SOL    HW212539  11.182   7.049  11.507 -0.7292 -0.1400 -0.1648
35910SOL     OW12540   2.607   3.860  12.140 -0.5938  0.8214 -0.2168
35910SOL    HW112541   2.578   3.944  12.175  0.3192  1.3962 -0.8008
35910SOL    HW212542   2.598   3.869  12.045 -0.2181  0.3676 -0.2996
35911SOL     OW12543  11.413  12.229   3.546  0.1461 -0.6858 -0.3338
35911SOL    HW112544  11.429  12.148   3.499  1.3000  0.0084 -1.2163
35911SOL    HW212545  11.448  12.213   3.634  2.4014 -0.4895 -1.1237
35912SOL     OW12546   6.966   6.657  10.878 -0.0165 -0.3061 -0.6061
35912SOL    HW112547   6.950   6.741  10.835 -0.3646 -0.1035 -0.0833
35912SOL    HW212548   6.901   6.652  10.948  0.9585 -0.3430  0.3235
35913SOL     OW12549  11.048   6.110   5.485 -0.8008  0.2630 -0.4685
35913SOL    HW112550  10.967   6.060   5.501 -2.1026  2.4839  0.3470
35913SOL    HW212551  11.029   6.198   5.518  2.1126  0.7855  0.0756
35914SOL     OW12552  10.042   3.796   7.124  0.5922  0.8279  0.0812
35914SOL    HW112553  10.089   3.726   7.169  0.0412  0.6570  0.4049
35914SOL    HW212554   9.960   3.805   7.174  1.4912  3.0705  1.2820
35915SOL     OW12555  12.380  10.774   6.514 -0.2511  0.1723 -0.1345
35915SOL    HW112556  12.433  10.702   6.549  1.2272  1.2122 -0.1432
35915SOL    HW212557  12.394  10.769   6.419 -0.6908  0.0772 -0.1980
35916SOL     OW12558   8.941  10.271   8.034  0.5560 -0.2769 -0.3178
35916SOL    HW112559   9.019  10.226   8.069  0.5785  2.5386  3.9821
35916SOL    HW212560   8.966  10.363   8.033 -2.2058  0.5423 -0.3052
35917SOL     OW12561   5.351  11.150   1.133 -0.0800  0.0889 -0.5034
35917SOL    HW112562   5.349  11.058   1.159  0.9774  0.3614  0.5848
35917SOL    HW212563   5.401  11.194   1.201  0.1079  1.3548 -1.4180
35918SOL     OW12564   2.606  12.471  12.442  0.0801  0.4327 -0.1858
35918SOL    HW112565   2.607  12.548  12.385  0.6582  0.8989  0.4378
35918SOL    HW212566   2.604  12.397  12.381  0.1117  0.9259 -0.8026
35919SOL     OW12567   9.957   3.577   2.991 -0.0727  0.8571  0.0198
35919SOL    HW112568   9.965   3.482   2.987  1.2476  0.9936 -1.4951
35919SOL    HW212569   9.952   3.597   3.085  0.1952 -0.6456  0.3748
35920SOL     OW12570   5.259   7.740   0.299 -0.3745 -0.4708 -0.2196
35920SOL    HW112571   5.296   7.802   0.237 -1.6194  1.2596  0.6884
35920SOL    HW212572   5.326   7.672   0.309  0.9133  0.5833 -1.4476
35921SOL     OW12573  11.884  12.072   9.655  0.4355  0.3511  0.1380
35921SOL    HW112574  11.797  12.043   9.683  0.1915 -1.6352 -2.3883
35921SOL    HW212575  11.872  12.163   9.628 -0.4678  0.5889  1.2751
35922SOL     OW12576   6.111   8.877  10.653 -0.4072 -0.3268  0.2484
35922SOL    HW112577   6.021   8.882  10.685 -0.7313 -1.3125 -0.4491
35922SOL    HW212578   6.110   8.803  10.592  1.1109 -1.0514  1.0296
35923SOL     OW12579   1.030  11.023   0.984 -0.1732  0.3057 -0.4175
35923SOL    HW112580   0.938  11.002   1.003 -0.1230 -0.8002 -1.2829
35923SOL    HW212581   1.076  10.940   0.996  0.7143  0.8449 -0.0331
35924SOL     OW12582   0.192   8.979   1.743  0.4363 -0.4903 -0.0480
35924SOL    HW112583   0.210   8.926   1.821 -0.0357 -1.5322 -0.6349
35924SOL    HW212584   0.238   9.062   1.760  1.2408 -1.0942  0.8503
35925SOL     OW12585   0.529   8.744   6.094 -0.2495 -0.2281 -0.1539
35925SOL    HW112586   0.617   8.749   6.056 -0.6992  2.5147 -1.1195
35925SOL    HW212587   0.475   8.705   6.025  0.0180 -1.0461  0.0881
35926SOL     OW12588  12.609  11.152   1.650 -0.0634  0.2350 -0.8709
35926SOL    HW112589  12.557  11.213   1.598 -0.7224 -0.7435 -1.3975
35926SOL    HW212590  12.552  11.076   1.662  0.6540 -0.1877 -0.0411
35927SOL     OW12591   9.497   7.042   0.477 -0.2713  0.2420  0.2713
35927SOL    HW112592   9.555   7.054   0.402 -0.1640 -0.9516  0.1587
35927SOL    HW212593   9.410   7.060   0.443 -0.3644 -1.4780 -0.4563
35928SOL     OW12594   0.233   3.347  10.023  0.1691 -0.4137  0.1667
35928SOL    HW112595   0.203   3.437  10.010 -0.8361 -0.6415  0.7771
35928SOL    HW212596   0.256   3.342  10.115  0.4671 -0.7122  0.0786
35929SOL     OW12597  11.661  10.795  12.431 -0.1687 -0.2135  0.0099
35929SOL    HW112598  11.572  10.772  12.404 -1.0487  2.7525  0.0032
35929SOL    HW212599  11.650  10.864  12.496  2.1247  0.1524  0.1112
35930SOL     OW12600   6.197  10.394   2.422 -0.0398 -0.4766  0.6266
35930SOL    HW112601   6.146  10.389   2.503 -0.5480  1.4330  0.4906
35930SOL    HW212602   6.196  10.306   2.387 -1.0755 -1.0300  1.9503
35931SOL     OW12603  10.575   0.639   6.519  0.2552  0.7692  0.0644
35931SOL    HW112604  10.490   0.606   6.549  0.0485  0.1107 -1.1663
35931SOL    HW212605  10.638   0.604   6.581  0.0324 -1.9292 -1.0883
35932SOL     OW12606   1.310   7.285  12.177 -0.3600  0.1796 -0.4780
35932SOL    HW112607   1.304   7.200  12.219  0.5269  0.4036  0.1367
35932SOL    HW212608   1.360   7.269  12.096  1.6855  0.4212  0.6601
35933SOL     OW12609   9.968   7.214   6.195 -0.2710  0.3306 -0.1784
35933SOL    HW112610   9.877   7.183   6.193 -0.1661 -0.0374  0.3413
35933SOL    HW212611   9.990   7.218   6.288  0.6164 -0.7178 -0.3176
35934SOL     OW12612   9.764  10.274   2.977 -0.4190 -0.1101 -0.0647
35934SOL    HW112613   9.834  10.213   2.955 -0.4352  0.4562 -1.8582
35934SOL    HW212614   9.776  10.347   2.916 -1.8829  0.5258  0.3672
35935SOL     OW12615   1.865  10.168  10.320  1.1580  0.5196  0.0235
35935SOL    HW112616   1.949  10.201  10.350  0.3634  1.5685  1.2479
35935SOL    HW212617   1.845  10.219  10.242  1.8868 -0.1023 -0.5722
35936SOL     OW12618   9.769   7.877   9.504  0.0323  0.5051 -0.1365
35936SOL    HW112619   9.753   7.907   9.593 -2.1325 -0.3528 -0.1513
35936SOL    HW212620   9.797   7.786   9.515 -0.3608  0.3587 -0.3034
35937SOL     OW12621   4.547  11.758   6.764  0.6421 -0.6269  0.0317
35937SOL    HW112622   4.639  11.734   6.774  0.7627  0.0698  0.6987
35937SOL    HW212623   4.500  11.674   6.768  1.3031 -1.0815 -1.3003
35938SOL     OW12624   4.998   0.843   0.056  0.1719 -0.2683  0.1143
35938SOL    HW112625   4.916   0.845   0.008 -1.4671  3.3036  2.6214
35938SOL    HW212626   4.998   0.758   0.101 -0.8752 -1.3164 -1.7504
35939SOL     OW12627   3.089   0.749   8.080 -0.2718 -0.1790 -0.1873
35939SOL    HW112628   3.165   0.803   8.101  1.0532 -2.1334  0.3408
35939SOL    HW212629   3.091   0.740   7.985 -0.0570  0.0901 -0.2087
35940SOL     OW12630   0.537  10.911   4.677  0.1102  0.4112  0.2923
35940SOL    HW112631   0.466  10.947   4.729 -0.5687  0.5708 -0.7273
35940SOL    HW212632   0.576  10.987   4.633  0.2428  0.2012  0.0403
35941SOL     OW12633   3.228   6.275  11.420 -0.0761 -0.1350  0.4190
35941SOL    HW112634   3.143   6.232  11.426  0.0297 -0.3071  0.7385
35941SOL    HW212635   3.219   6.353  11.475 -0.2395  0.2084 -0.0885
35942SOL     OW12636  12.055  10.021   3.639 -0.0500 -0.0330 -0.3131
35942SOL    HW112637  12.034  10.038   3.547 -0.4768  1.0593 -0.0378
35942SOL    HW212638  12.150  10.028   3.644  0.1386 -1.7031 -0.9522
35943SOL     OW12639   7.557   0.760   5.310 -0.2426 -0.3661  0.3977
35943SOL    HW112640   7.620   0.689   5.322  0.5936  0.4651  1.2090
35943SOL    HW212641   7.512   0.740   5.229  2.3778 -0.0427 -1.2409
35944SOL     OW12642   6.667   1.907   6.309 -0.4954  0.0195 -0.2471
35944SOL    HW112643   6.614   1.861   6.244  1.2892  1.2165 -2.6822
35944SOL    HW212644   6.649   1.999   6.294 -1.4925  0.3596  2.3546
35945SOL     OW12645   0.992   0.653   9.537 -0.3159  0.0705 -0.6080
35945SOL    HW112646   1.029   0.710   9.604  0.9069 -0.4112 -0.8480
35945SOL    HW212647   0.961   0.713   9.468 -0.0459  0.4875 -0.3708
35946SOL     OW12648   8.610   2.960   8.332  0.2406 -0.3403 -0.2475
35946SOL    HW112649   8.547   2.972   8.403 -0.3484 -1.6626 -0.5057
35946SOL    HW212650   8.685   2.917   8.374  0.4441  0.0589 -0.1924
35947SOL     OW12651   5.685   9.301   3.256  0.0571 -0.0260  0.4995
35947SOL    HW112652   5.756   9.326   3.196 -0.3696 -0.4852 -0.2169
35947SOL    HW212653   5.648   9.222   3.217 -1.0394  0.3663  0.7047
35948SOL     OW12654  12.194   6.561   1.149 -0.0103  0.7438 -0.7220
35948SOL    HW112655  12.271   6.618   1.142  1.0663 -0.5778 -0.2564
35948SOL    HW212656  12.204   6.498   1.078 -0.8764  0.7844 -0.8873
35949SOL     OW12657   0.206  12.612   3.453 -0.2046 -0.1903  0.0174
35949SOL    HW112658   0.140  12.620   3.522 -2.0135  1.3308 -1.7788
35949SOL    HW212659   0.159  12.577   3.378  1.5265 -1.0004 -0.7393
35950SOL     OW12660   8.460   7.757   6.330  0.1680  0.4250 -0.0284
35950SOL    HW112661   8.455   7.732   6.422  0.7302  0.3131 -0.0278
35950SOL    HW212662   8.550   7.739   6.304  0.4150  1.8052 -0.2068
35951SOL     OW12663   6.651   9.629  12.077  0.7157  0.1764 -0.5324
35951SOL    HW112664   6.668   9.722  12.095 -0.3862  0.2412  0.2578
35951SOL    HW212665   6.713   9.607  12.007  0.3158  1.7908 -1.4707
35952SOL     OW12666   0.743   2.594   0.789 -0.7848 -0.3320  0.9247
35952SOL    HW112667   0.651   2.600   0.763 -1.2002 -0.2000  2.3074
35952SOL    HW212668   0.751   2.657   0.861  0.0230 -1.3657  1.7757
35953SOL     OW12669   6.543   0.219   7.719 -0.3930  0.4525 -0.2247
35953SOL    HW112670   6.626   0.207   7.765 -0.4687 -1.6053 -0.5399
35953SOL    HW212671   6.477   0.205   7.786 -0.5195  1.6884 -0.0650
35954SOL     OW12672   0.012   1.758   5.107 -0.6747 -0.1171 -0.2415
35954SOL    HW112673  -0.045   1.680   5.110  1.2908 -1.5986  1.0119
35954SOL    HW212674   0.077   1.743   5.176 -0.4872  2.9152  0.3885
35955SOL     OW12675   6.158   7.797   1.449 -0.2862 -0.2809  0.2342
35955SOL    HW112676   6.110   7.826   1.371 -0.1223  0.2152  0.3189
35955SOL    HW212677   6.195   7.712   1.424 -0.0766 -0.0364 -0.2900
35956SOL     OW12678   2.077   8.718   8.307  0.2379  0.1501  1.0297
35956SOL    HW112679   1.982   8.707   8.305  0.4577 -1.9315  0.4100
35956SOL    HW212680   2.111   8.632   8.332  2.0120  0.5002 -0.0203
35957SOL     OW12681  10.852   8.861   4.767  0.2560  0.2536 -0.2657
35957SOL    HW112682  10.771   8.815   4.744 -0.3330  1.1227  0.0449
35957SOL    HW212683  10.887   8.891   4.683  1.3660 -1.8714 -0.6405
35958SOL     OW12684   7.067  10.662   7.502 -0.4101  0.1062  0.3232
35958SOL    HW112685   7.112  10.578   7.510 -0.1800  0.3250  1.5469
35958SOL    HW212686   7.123  10.715   7.446  0.1005 -0.1129  0.6298
35959SOL     OW12687   2.905   9.733   3.718 -0.4899  0.2090  0.1740
35959SOL    HW112688   2.877   9.787   3.793 -0.4055  0.4714  0.0191
35959SOL    HW212689   2.959   9.793   3.665 -0.6538  0.0583 -0.1607
35960SOL     OW12690   3.799  11.764   9.118 -0.1549 -0.8272 -0.0273
35960SOL    HW112691   3.706  11.786   9.124 -0.6276 -2.6557 -0.1494
35960SOL    HW212692   3.801  11.679   9.075  1.6108 -0.6716 -0.3328
35961SOL     OW12693  12.139   4.276   9.432 -0.1504 -0.1900  0.1277
35961SOL    HW112694  12.094   4.284   9.348 -0.6458  0.9339  0.4786
35961SOL    HW212695  12.082   4.222   9.486  0.3244 -1.1917 -0.3454
35962SOL     OW12696   5.548  11.678   4.336  0.0158  0.3293 -0.3091
35962SOL    HW112697   5.534  11.665   4.430 -0.1823  0.7467 -0.2785
35962SOL    HW212698   5.485  11.619   4.294  0.8846 -0.7196 -0.1963
35963SOL     OW12699   9.829   4.563   7.821 -0.4763  0.6468  0.1349
35963SOL    HW112700   9.843   4.633   7.885  0.0549 -0.0436  0.7973
35963SOL    HW212701   9.818   4.484   7.874  1.4676 -0.2010 -0.6363
35964SOL     OW12702  10.906   3.797   9.508 -0.3068 -0.1188 -0.3086
35964SOL    HW112703  10.953   3.715   9.494  0.1285  0.2665 -1.1213
35964SOL    HW212704  10.838   3.774   9.572  1.5978 -0.4679  1.7251
35965SOL     OW12705   7.551   6.674   3.117 -0.7843  0.2646 -0.3474
35965SOL    HW112706   7.641   6.699   3.093 -0.3873  0.0240  0.8068
35965SOL    HW212707   7.514   6.752   3.157 -0.5656 -0.0802  0.5468
35966SOL     OW12708   1.678   3.312   3.211  0.4365 -0.1824  0.4817
35966SOL    HW112709   1.641   3.370   3.277  1.6651  1.9508 -0.5850
35966SOL    HW212710   1.710   3.236   3.260 -3.1442 -1.1171  1.6816
35967SOL     OW12711   0.790   1.602  11.073  0.0794 -0.8066  0.1760
35967SOL    HW112712   0.797   1.646  11.158 -0.3931  0.8913 -0.6151
35967SOL    HW212713   0.697   1.605  11.052  0.0224 -2.3013  0.1184
35968SOL     OW12714   6.605  10.913   0.282  0.3640  0.1952 -0.0921
35968SOL    HW112715   6.551  10.989   0.301  0.4443  0.5264 -1.1104
35968SOL    HW212716   6.664  10.905   0.357 -0.1434  0.6858  0.3622
35969SOL     OW12717   3.555   3.139   7.680 -0.2357 -0.4518  0.2163
35969SOL    HW112718   3.623   3.142   7.612 -1.5653  0.4755 -1.1482
35969SOL    HW212719   3.543   3.046   7.698  1.3333 -0.6388  0.4554
35970SOL     OW12720   6.087   4.118   1.008  0.4899 -0.7036  0.0055
35970SOL    HW112721   6.001   4.158   0.991  0.5313 -0.2059  0.9051
35970SOL    HW212722   6.073   4.025   0.993  0.1020 -0.4953 -1.0301
35971SOL     OW12723   1.500   1.962   0.685 -1.0109 -0.2368  0.3005
35971SOL    HW112724   1.543   2.039   0.646  2.4660 -1.6336  1.0408
35971SOL    HW212725   1.418   1.996   0.720 -0.6252  2.6748 -1.3017
35972SOL     OW12726   0.095  11.959   8.272 -0.8840 -0.1253 -0.3980
35972SOL    HW112727   0.143  12.039   8.254  2.4398 -1.9563 -0.5261
35972SOL    HW212728   0.090  11.913   8.188  2.4194 -2.4987  0.5099
35973SOL     OW12729  10.356   5.944   7.480  0.0156  0.8597 -0.6385
35973SOL    HW112730  10.383   6.032   7.508  0.9649  0.3762 -0.0111
35973SOL    HW212731  10.413   5.925   7.405  0.6919  0.2660  0.0225
35974SOL     OW12732   9.114  11.359   6.293 -0.0010  0.4051 -0.2067
35974SOL    HW112733   9.113  11.300   6.217  2.7405 -0.1619  0.0838
35974SOL    HW212734   9.179  11.425   6.271  0.3288  0.6432  1.3699
35975SOL     OW12735   1.841   2.783   5.426  0.1823 -0.3267 -0.5135
35975SOL    HW112736   1.821   2.877   5.423 -0.1788 -0.3598  0.6128
35975SOL    HW212737   1.895   2.768   5.348 -0.8356  0.5524 -1.4234
35976SOL     OW12738   7.754   3.523   8.138 -0.3348  0.2751 -0.0269
35976SOL    HW112739   7.777   3.608   8.177  1.3409  1.0952 -2.5297
35976SOL    HW212740   7.779   3.532   8.046 -2.3013 -2.1665 -0.9110
35977SOL     OW12741   8.049   8.468   6.999  1.0626 -0.1992 -0.0827
35977SOL    HW112742   8.053   8.450   7.093  2.3860 -1.4212 -0.3438
35977SOL    HW212743   7.956   8.465   6.978  0.8459 -1.3517  0.9267
35978SOL     OW12744  10.993   9.102   0.257  0.5824  0.0529 -0.4614
35978SOL    HW112745  10.897   9.101   0.257  0.4807 -2.4115 -2.7113
35978SOL    HW212746  11.017   9.062   0.173  3.5449 -2.2545  1.2920
35979SOL     OW12747  10.692   2.331   4.620  0.1649  0.9168  0.2291
35979SOL    HW112748  10.621   2.391   4.600  0.1395  0.3211 -1.6498
35979SOL    HW212749  10.669   2.250   4.574  1.5742  0.3957  0.3950
35980SOL     OW12750  12.315  12.188  11.990  0.3758  0.2954  0.4895
35980SOL    HW112751  12.380  12.196  11.920  1.4604 -0.0269  1.4204
35980SOL    HW212752  12.258  12.264  11.980  0.1119 -0.0929 -1.1268
35981SOL     OW12753  10.930  12.556   2.252  0.0569 -0.8291  0.4730
35981SOL    HW112754  11.006  12.503   2.274  1.7436  1.3201  0.1647
35981SOL    HW212755  10.907  12.531   2.163  0.8610 -1.0109  0.3099
35982SOL     OW12756   7.313   7.636   0.177 -0.6101  0.2580  0.3189
35982SOL    HW112757   7.367   7.658   0.253  0.7398  3.1084 -1.3158
35982SOL    HW212758   7.280   7.720   0.145 -0.2526 -0.6734 -2.8340
35983SOL     OW12759   7.843  10.119   3.187 -0.0009  0.6151 -0.0642
35983SOL    HW112760   7.911  10.053   3.174  0.3547  0.6815  1.2596
35983SOL    HW212761   7.771  10.091   3.130  1.0832  0.4864 -1.4068
35984SOL     OW12762   4.838   7.905   7.077 -0.3480  0.0462 -0.0342
35984SOL    HW112763   4.795   7.820   7.087  0.5366 -0.2905  1.2226
35984SOL    HW212764   4.929   7.889   7.103 -0.5932  1.7665  2.2851
35985SOL     OW12765   9.959  10.119  10.791 -0.2100  0.2993  0.3448
35985SOL    HW112766  10.004  10.035  10.794  0.0125  0.4458  2.1934
35985SOL    HW212767   9.906  10.121  10.871 -0.7144  1.6400  0.0095
35986SOL     OW12768   4.148   3.512  12.444 -0.0641  0.1396 -0.5874
35986SOL    HW112769   4.150   3.591  12.497 -1.9428  0.4848 -0.9469
35986SOL    HW212770   4.110   3.445  12.501  2.3623 -0.8141  0.0221
35987SOL     OW12771   0.289   7.728   4.560  0.1426 -0.6959  0.1095
35987SOL    HW112772   0.222   7.772   4.508 -0.0522  0.4510  1.2676
35987SOL    HW212773   0.247   7.648   4.591 -0.0052 -0.9829 -0.8095
35988SOL     OW12774  10.278   4.641   6.493  0.7043 -0.0695 -0.0792
35988SOL    HW112775  10.254   4.588   6.417 -1.3550  1.5529 -0.6480
35988SOL    HW212776  10.315   4.578   6.555  0.3968 -1.7923 -1.5657
35989SOL     OW12777   5.151   5.986   0.659  0.7828 -0.1173  0.4832
35989SOL    HW112778   5.111   5.943   0.735  1.8543 -0.8906  0.6251
35989SOL    HW212779   5.233   6.023   0.693 -0.0176  1.9080  0.3263
35990SOL     OW12780   6.670   7.188   4.316  0.1793 -0.0746 -0.1754
35990SOL    HW112781   6.574   7.186   4.319  0.2076 -0.7614  0.4959
35990SOL    HW212782   6.690   7.271   4.273 -0.7243 -0.3323 -1.1606
35991SOL     OW12783   9.341  11.725   3.570 -0.5077  0.2973 -0.2021
35991SOL    HW112784   9.293  11.806   3.554 -0.9716 -0.2928 -2.0001
35991SOL    HW212785   9.274  11.663   3.601 -1.0264 -0.5385 -2.7507
35992SOL     OW12786   1.745   9.613   5.997 -0.0618  0.6891 -0.1510
35992SOL    HW112787   1.815   9.572   5.947  0.3071 -2.4929  2.6760
35992SOL    HW212788   1.704   9.542   6.046 -2.6211  3.0424  1.4639
35993SOL     OW12789   7.745   6.237   6.450 -0.1620 -0.9845  0.3703
35993SOL    HW112790   7.668   6.217   6.503  0.1979 -0.0343  1.2777
35993SOL    HW212791   7.722   6.317   6.402 -0.2927 -1.5497 -0.5372
35994SOL     OW12792   9.078   5.253   4.048 -0.4295  0.1862 -0.5005
35994SOL    HW112793   9.015   5.291   4.109 -1.5326 -0.7492 -1.0121
35994SOL    HW212794   9.119   5.182   4.097  1.7553  2.0281  0.5132
35995SOL     OW12795   4.339   0.405   6.111 -0.2291  0.0485  0.1107
35995SOL    HW112796   4.325   0.363   6.196  0.0665  0.9452  0.6131
35995SOL    HW212797   4.251   0.413   6.074 -0.6152  1.5184  1.2548
35996SOL     OW12798  10.028   5.351   8.483 -0.3097  0.7489 -0.1471
35996SOL    HW112799   9.970   5.425   8.505 -0.5908  0.4054  0.2834
35996SOL    HW212800  10.097   5.356   8.549 -1.6019 -0.7874  1.4184
35997SOL     OW12801   1.690   8.967  10.313 -0.0998 -0.8495  0.0837
35997SOL    HW112802   1.758   8.936  10.373 -0.5112 -0.4493  0.7644
35997SOL    HW212803   1.646   8.887  10.284 -0.3110 -1.0150  0.8226
35998SOL     OW12804   5.904   0.335   5.972 -0.0275  0.3104  0.4547
35998SOL    HW112805   5.970   0.387   5.926 -1.2071  1.5472  0.0852
35998SOL    HW212806   5.836   0.398   5.995 -2.0980 -1.2288 -1.0299
35999SOL     OW12807  12.308   4.383   7.127 -0.4495 -0.7224 -0.6980
35999SOL    HW112808  12.311   4.472   7.161 -0.1395 -1.0999  0.3183
35999SOL    HW212809  12.247   4.387   7.054 -1.4518  0.0600  0.1403
36000SOL     OW12810   3.533   3.872   3.289 -0.3834 -0.1258  0.2383
36000SOL    HW112811   3.582   3.793   3.268 -1.0364 -0.4731 -0.0179
36000SOL    HW212812   3.485   3.850   3.369 -1.4844 -0.4240 -0.4705
36001SOL     OW12813   3.890   0.518   0.400 -0.4016 -0.5849  0.3622
36001SOL    HW112814   3.803   0.517   0.360 -1.5084 -0.6410  2.6030
36001SOL    HW212815   3.923   0.607   0.385 -0.9742 -0.4696 -0.2382
36002SOL     OW12816  12.615   6.171   8.968 -0.0341 -0.1690  0.6448
36002SOL    HW112817  12.675   6.128   9.028 -1.6446 -1.9304  1.0506
36002SOL    HW212818  12.635   6.133   8.882  1.6315  1.6844  0.1043
36003SOL     OW12819  12.500   3.608   2.804  0.1051  0.3460  0.0562
36003SOL    HW112820  12.564   3.592   2.734 -1.3471  2.5455 -1.8924
36003SOL    HW212821  12.416   3.614   2.759 -0.8626  1.9879  1.9478
36004SOL     OW12822  10.105  10.767   8.759 -0.5345 -0.0226  0.0492
36004SOL    HW112823  10.164  10.722   8.820 -0.2679  0.5438  0.2110
36004SOL    HW212824  10.052  10.824   8.815  1.0585  2.0091 -0.4260
36005SOL     OW12825   5.107   6.320   9.204 -0.7947 -0.1934  0.3484
36005SOL    HW112826   5.184   6.267   9.184 -0.0497  0.7834  0.5572
36005SOL    HW212827   5.033   6.267   9.175  0.0421 -0.4431 -1.4162
36006SOL     OW12828   0.514  10.921   1.195  0.0842  0.6231  0.0751
36006SOL    HW112829   0.528  10.828   1.182 -0.8424  0.2331  1.6706
36006SOL    HW212830   0.547  10.962   1.115  1.2666 -0.9888 -0.2919
36007SOL     OW12831  12.093  10.057   7.507  0.0848  0.1003  0.2229
36007SOL    HW112832  12.138  10.105   7.437  1.2167 -3.4376 -1.7303
36007SOL    HW212833  12.005  10.043   7.474  0.1366 -0.2172  0.2178
36008SOL     OW12834   6.586   2.109   7.721 -0.3478 -0.9566  0.2116
36008SOL    HW112835   6.656   2.083   7.661 -0.6348 -0.6187 -0.2774
36008SOL    HW212836   6.534   2.172   7.671  0.0333  0.1753  1.1693
36009SOL     OW12837   1.836   6.402   9.919 -0.0638 -0.0315 -0.1860
36009SOL    HW112838   1.890   6.337   9.872 -1.9687 -1.2501 -0.8051
36009SOL    HW212839   1.807   6.463   9.851  1.4823  1.3878  0.3494
36010SOL     OW12840   3.244   5.157  11.400 -0.2298 -0.1822 -0.1244
36010SOL    HW112841   3.299   5.218  11.448  1.2672 -0.2516 -1.6780
36010SOL    HW212842   3.269   5.070  11.434  0.7665 -0.2261 -0.9433
36011SOL     OW12843   9.264   1.842   5.271 -0.1109 -0.1749 -0.0091
36011SOL    HW112844   9.305   1.763   5.306  0.5314  0.5523  0.9318
36011SOL    HW212845   9.315   1.864   5.194  2.0658  1.3336  1.7503
36012SOL     OW12846   4.024   9.143   1.614 -0.4616  0.8106  0.4528
36012SOL    HW112847   4.031   9.207   1.543  1.4751 -0.2296 -0.3597
36012SOL    HW212848   4.062   9.187   1.690 -0.3807  1.0932  0.2478
36013SOL     OW12849  12.185   4.970  12.638  0.7811  0.1371 -0.0440
36013SOL    HW112850  12.168   5.050  12.690  0.1747 -0.2197  0.3262
36013SOL    HW212851  12.254   4.995  12.577 -0.7700  1.5661 -1.3239
36014SOL     OW12852   6.977  10.310   1.329  0.0548 -0.6580 -0.0093
36014SOL    HW112853   6.945  10.321   1.239 -0.6212 -0.2240  0.2746
36014SOL    HW212854   7.035  10.385   1.343 -0.0702 -0.5629  0.0078
36015SOL     OW12855   5.749  10.924   3.002 -0.5681  0.1080 -0.1849
36015SOL    HW112856   5.712  10.943   2.915  0.8564 -0.9563 -1.0700
36015SOL    HW212857   5.804  10.999   3.021  0.0878 -0.2018 -0.7933
36016SOL     OW12858   5.973   4.843   3.985  0.1188 -0.3744 -0.1453
36016SOL    HW112859   5.910   4.797   4.041  1.4574 -1.5831  0.4151
36016SOL    HW212860   6.039   4.778   3.963  0.7258  0.6283 -1.4595
36017SOL     OW12861   6.864  11.850   7.844  0.2261 -0.6659  0.5560
36017SOL    HW112862   6.938  11.904   7.874 -0.8752  1.3255 -0.1542
36017SOL    HW212863   6.800  11.857   7.915 -0.5274  0.2237 -0.2026
36018SOL     OW12864  12.368   2.585   1.334  0.0936 -0.0687 -0.7457
36018SOL    HW112865  12.305   2.588   1.406  0.0351 -0.5942 -0.7685
36018SOL    HW212866  12.444   2.540   1.370  0.5388  0.7453 -0.6594
36019SOL     OW12867   9.210   7.091   6.258 -0.5375 -0.2115 -0.2045
36019SOL    HW112868   9.120   7.110   6.284  0.1291  0.7869  1.5653
36019SOL    HW212869   9.238   7.170   6.211  0.5791  1.2304  2.6394
36020SOL     OW12870  11.514  11.496  11.864  0.0057 -0.0160 -0.1256
36020SOL    HW112871  11.435  11.547  11.845 -0.5215 -1.2707 -1.5090
36020SOL    HW212872  11.584  11.543  11.819 -0.4093 -0.2817 -1.0852
36021SOL     OW12873   1.298   8.065  11.021 -0.0457  0.1844  0.4460
36021SOL    HW112874   1.250   8.037  11.100  0.2500  0.5501  0.7604
36021SOL    HW212875   1.242   8.037  10.948  0.3619 -1.4851  0.7269
36022SOL     OW12876   6.681   6.073   4.346 -0.1163 -0.0909 -0.1167
36022SOL    HW112877   6.734   6.103   4.272 -0.0112  0.4816  0.1805
36022SOL    HW212878   6.736   6.009   4.391  0.3040  0.4497  0.1500
36023SOL     OW12879   8.467   2.699   9.977  0.0730 -0.0683 -0.4088
36023SOL    HW112880   8.384   2.670  10.014  0.5132 -1.5257 -0.4697
36023SOL    HW212881   8.478   2.645   9.898  0.8682  0.3936 -0.6244
36024SOL     OW12882   0.049  10.736   0.974  0.1417 -0.5365  0.1954
36024SOL    HW112883   0.019  10.825   0.995  0.7948 -0.3642  0.3937
36024SOL    HW212884  -0.013  10.706   0.907 -0.8533 -0.4138  1.0256
36025SOL     OW12885   6.585   8.859  10.412  0.3982 -0.1991  0.3164
36025SOL    HW112886   6.491   8.850  10.395  0.9548 -0.7021 -3.2463
36025SOL    HW212887   6.590   8.898  10.499 -3.1255  0.8699  0.1863
36026SOL     OW12888   8.683  10.602   7.712  0.0942 -0.0558  0.1420
36026SOL    HW112889   8.624  10.666   7.672 -0.9987  0.1037  1.8742
36026SOL    HW212890   8.649  10.517   7.682 -1.9573 -0.0487  2.1065
36027SOL     OW12891   9.064   9.148   0.651 -0.3955 -0.7028 -0.4814
36027SOL    HW112892   9.024   9.094   0.720  1.5438  2.4442  3.4829
36027SOL    HW212893   9.138   9.096   0.620 -0.3837 -1.5883  0.9480
36028SOL     OW12894   8.948   5.863   7.173 -0.1433  0.0777 -0.6131
36028SOL    HW112895   8.882   5.809   7.217 -1.0004  1.0900 -0.6082
36028SOL    HW212896   9.027   5.853   7.226 -0.8877  0.5005  0.6212
36029SOL     OW12897   9.834   2.626  10.484  0.7068 -0.4405  0.7915
36029SOL    HW112898   9.828   2.544  10.533  2.3857 -0.3502  1.1940
36029SOL    HW212899   9.868   2.601  10.398  1.3971 -0.1638  0.9757
36030SOL     OW12900  10.238   4.574  11.016 -0.4418  0.2209 -0.5027
36030SOL    HW112901  10.180   4.499  11.003  0.7787 -0.6615 -1.1048
36030SOL    HW212902  10.311   4.539  11.068  0.4282  0.8392 -1.2721
36031SOL     OW12903   1.003   6.818   1.137  0.3463 -0.0608 -0.2528
36031SOL    HW112904   1.081   6.841   1.187  0.3170 -0.3402 -0.0760
36031SOL    HW212905   0.971   6.901   1.103 -0.7854  0.4400  1.8568
36032SOL     OW12906   1.482   9.551   0.624  0.0885  0.4108  0.0602
36032SOL    HW112907   1.406   9.493   0.627  0.6020 -0.2525  0.8250
36032SOL    HW212908   1.447   9.637   0.604 -1.2116  0.6548  2.9053
36033SOL     OW12909  10.815   0.133   8.468 -0.3067  0.5571  0.4856
36033SOL    HW112910  10.908   0.109   8.469 -0.3027  0.5768  0.5559
36033SOL    HW212911  10.781   0.094   8.387 -0.0598  1.2126  0.0585
36034SOL     OW12912   0.245   3.849  11.831  0.2138  0.1348  0.3775
36034SOL    HW112913   0.160   3.892  11.836 -0.2129 -0.4847 -1.0143
36034SOL    HW212914   0.224   3.757  11.813  1.1621  0.1850 -1.1756
36035SOL     OW12915  11.410   0.977   4.449  0.1917  0.8849 -0.1128
36035SOL    HW112916  11.335   1.014   4.496 -0.1048  1.0761 -0.7201
36035SOL    HW212917  11.424   0.892   4.489  0.9492  1.6805  1.3810
36036SOL     OW12918   9.100   3.999   6.020  0.1881 -0.3553 -0.3516
36036SOL    HW112919   9.015   4.039   6.004  0.5822  0.4732 -0.4105
36036SOL    HW212920   9.162   4.053   5.972  1.1112  0.8427  2.0282
36037SOL     OW12921   9.524  10.725   8.655 -0.3769 -0.5275 -0.0646
36037SOL    HW112922   9.577  10.739   8.576 -0.8822  0.7637 -0.1943
36037SOL    HW212923   9.584  10.680   8.716  0.5564 -0.0078 -0.5735
36038SOL     OW12924   8.669   9.985   5.677  0.1446 -0.1059  0.2764
36038SOL    HW112925   8.699  10.025   5.596  0.9542 -1.6705 -0.2241
36038SOL    HW212926   8.580   9.955   5.658  0.6432 -1.2487 -0.3422
36039SOL     OW12927   3.716   0.533   9.908 -0.0479  0.1790  0.3830
36039SOL    HW112928   3.648   0.471   9.880 -0.4754  0.8146 -0.0102
36039SOL    HW212929   3.676   0.619   9.896  0.1431  0.5148  1.9288
36040SOL     OW12930   9.659   8.851   1.521  0.4418  0.1694  0.4990
36040SOL    HW112931   9.659   8.875   1.613  0.3367 -0.4631  0.6705
36040SOL    HW212932   9.751   8.858   1.495  0.6003 -0.4543  0.8735
36041SOL     OW12933   1.129  10.264   3.978 -0.6272 -0.3117 -0.3136
36041SOL    HW112934   1.104  10.289   3.889 -0.6086  0.4073 -0.1288
36041SOL    HW212935   1.086  10.329   4.034 -0.3112 -0.5119  0.1710
36042SOL     OW12936   1.751   8.066   9.340  0.1153 -0.0604  0.2657
36042SOL    HW112937   1.707   8.139   9.384 -0.6552 -0.3596  0.0109
36042SOL    HW212938   1.684   8.028   9.282  0.3288 -1.3016  0.7869
36043SOL     OW12939  12.601   0.333   9.552 -0.4032  0.2493 -0.1467
36043SOL    HW112940  12.537   0.281   9.600 -0.1581  0.7112  0.7037
36043SOL    HW212941  12.550   0.405   9.515 -0.3414  0.8273  0.8443
36044SOL     OW12942   4.634   1.775   5.605  0.2006  0.0046  0.0962
36044SOL    HW112943   4.549   1.740   5.630  0.6161 -0.8888  0.3248
36044SOL    HW212944   4.650   1.846   5.667 -0.1984 -0.0979  0.3189
36045SOL     OW12945  10.588   9.215   7.106  0.2480  0.5583  0.0319
36045SOL    HW112946  10.663   9.255   7.062  0.0944  0.8197  0.0049
36045SOL    HW212947  10.622   9.189   7.192  0.5300  0.1166 -0.2043
36046SOL     OW12948   3.408   7.872  12.437  0.5278 -0.0843 -0.0918
36046SOL    HW112949   3.477   7.937  12.429 -0.2932  0.9746  1.0040
36046SOL    HW212950   3.326   7.922  12.435 -0.1565 -1.1422  0.0712
36047SOL     OW12951   0.544   2.346   5.505  0.1822 -0.2274  0.2903
36047SOL    HW112952   0.522   2.254   5.515  0.7803 -0.2225  1.9055
36047SOL    HW212953   0.467   2.384   5.462  0.5840 -1.7358 -1.9137
36048SOL     OW12954   9.149   0.115   5.284 -0.3956  0.4279 -0.4343
36048SOL    HW112955   9.194   0.110   5.200 -0.3196  1.5505 -0.4725
36048SOL    HW212956   9.095   0.036   5.287 -0.2644  0.2833 -1.4573
36049SOL     OW12957   4.788  12.220  12.581  0.5109 -0.4366 -0.1058
36049SOL    HW112958   4.767  12.148  12.639  0.2762  0.0006  0.3612
36049SOL    HW212959   4.713  12.278  12.586  0.4790 -0.3939 -0.8596
36050SOL     OW12960   3.107   2.813  12.588 -0.0650  0.0802  0.6362
36050SOL    HW112961   3.109   2.724  12.554  0.8308  1.0115 -2.0481
36050SOL    HW212962   3.041   2.858  12.534  1.2087  1.5901  0.2453
36051SOL     OW12963   0.767  10.352  10.021  0.3175 -0.4141 -0.2136
36051SOL    HW112964   0.768  10.261  10.050 -0.2108  0.0265  1.2780
36051SOL    HW212965   0.697  10.393  10.072  0.3470  0.7594 -1.0739
36052SOL     OW12966  10.669  10.633   1.412  0.3049 -0.3407  0.1715
36052SOL    HW112967  10.756  10.597   1.433 -0.3789 -1.4812  1.1711
36052SOL    HW212968  10.673  10.724   1.442  1.5134 -0.0297 -0.8425
36053SOL     OW12969   9.656   0.880   0.042 -0.1638  0.3065 -0.0058
36053SOL    HW112970   9.682   0.847  -0.044  0.3771  2.3211 -0.6883
36053SOL    HW212971   9.560   0.877   0.041 -0.1673  0.3596 -0.7240
36054SOL     OW12972   9.393   5.302  12.191  0.1533  0.1885  0.0398
36054SOL    HW112973   9.474   5.349  12.170 -0.5291  0.3463 -2.6586
36054SOL    HW212974   9.366   5.263  12.107 -3.1436  1.0760  0.5620
36055SOL     OW12975   9.568   4.941  10.149  0.1392  0.3110  0.7422
36055SOL    HW112976   9.588   4.901  10.234  1.8212  0.4323  0.4526
36055SOL    HW212977   9.609   4.882  10.085 -1.9302 -0.2981 -0.0894
36056SOL     OW12978   9.413  12.459   6.743 -0.0988 -0.0317 -0.2539
36056SOL    HW112979   9.332  12.448   6.792  2.6829  0.0320  4.9942
36056SOL    HW212980   9.446  12.370   6.730  0.3357  0.0572  0.2216
36057SOL     OW12981   5.009   7.776  10.082 -0.0211  0.4376 -0.2848
36057SOL    HW112982   5.016   7.719  10.006 -0.3301 -1.9468  1.3544
36057SOL    HW212983   5.005   7.716  10.157 -1.4744  2.5973  1.5089
36058SOL     OW12984   2.381   6.949   2.304 -0.6456  0.1433  0.7622
36058SOL    HW112985   2.406   6.988   2.387  0.1849 -1.1147  1.1204
36058SOL    HW212986   2.317   7.011   2.267 -0.6415  0.9693  2.0775
36059SOL     OW12987   6.645   9.088   6.108  0.3273 -0.1513  0.2377
36059SOL    HW112988   6.611   8.998   6.107  1.5201 -0.6244  0.3917
36059SOL    HW212989   6.719   9.087   6.048  0.6451  0.6046  0.5975
36060SOL     OW12990   1.402   5.790   7.254 -0.1249  0.0378  0.0799
36060SOL    HW112991   1.464   5.860   7.272  0.0155  0.3276 -1.3868
36060SOL    HW212992   1.451   5.727   7.201 -0.3912 -0.9433  0.9635
36061SOL     OW12993   1.266   1.286   9.481  0.1643 -0.1803 -0.5173
36061SOL    HW112994   1.278   1.371   9.440 -0.1348 -0.3602 -0.9901
36061SOL    HW212995   1.310   1.293   9.566 -1.6336  1.1377  0.3745
36062SOL     OW12996  12.045   8.885   4.851  0.0168 -0.1025  0.1345
36062SOL    HW112997  12.091   8.851   4.928 -0.1979 -1.9935 -0.5207
36062SOL    HW212998  12.052   8.980   4.859  0.2305 -0.2447  2.3493
36063SOL     OW12999   3.996   8.545  10.605 -0.2412  0.5673 -0.3067
36063SOL    HW113000   3.909   8.556  10.643  0.5224  1.9952  1.1496
36063SOL    HW213001   4.038   8.479  10.660 -0.2840  0.1124 -0.8109
36064SOL     OW13002   9.814   7.300   7.742 -0.5837  0.6674  0.2943
36064SOL    HW113003   9.764   7.363   7.794  0.4209  0.7214  1.2185
36064SOL    HW213004   9.753   7.226   7.729 -2.1970  2.2308 -1.8072
36065SOL     OW13005   0.373   6.880  11.766 -0.4918 -0.1022  0.4881
36065SOL    HW113006   0.332   6.836  11.691 -1.5829  1.5407  0.0726
36065SOL    HW213007   0.467   6.868  11.752 -0.6716  0.0493 -1.0896
36066SOL     OW13008   5.706   1.988   0.763 -0.4937  0.4697 -0.7036
36066SOL    HW113009   5.631   2.034   0.801  0.3339  1.6805 -0.4710
36066SOL    HW213010   5.667   1.920   0.708 -1.7275 -0.0616  0.7710
36067SOL     OW13011  10.915   7.518   6.417 -0.2649  0.1996  0.2603
36067SOL    HW113012  11.007   7.503   6.441 -0.4623  0.6052  1.3132
36067SOL    HW213013  10.873   7.433   6.432 -0.1763  0.1679  0.3314
36068SOL     OW13014   1.391   2.365  10.574 -0.2814  0.5619 -0.1364
36068SOL    HW113015   1.449   2.436  10.604 -1.0103  1.1645 -0.1317
36068SOL    HW213016   1.450   2.303  10.532  0.3229  1.3666 -0.5071
36069SOL     OW13017   1.284  11.947   4.157  0.7292  0.4055  0.0915
36069SOL    HW113018   1.324  11.921   4.075  1.4982 -0.1738  0.6347
36069SOL    HW213019   1.223  12.018   4.134  0.1531 -0.4663 -1.1121
36070SOL     OW13020   0.750   6.200  11.026 -0.1297  0.1759  0.1235
36070SOL    HW113021   0.728   6.212  11.118 -0.2630 -1.6893  0.3687
36070SOL    HW213022   0.669   6.220  10.979 -0.6703 -0.8628  0.5804
36071SOL     OW13023   5.761   5.071   6.257 -0.3665  0.0826  0.5335
36071SOL    HW113024   5.756   5.158   6.217 -0.2850 -0.0575  0.2192
36071SOL    HW213025   5.855   5.056   6.269 -0.3012 -0.5191 -0.6391
36072SOL     OW13026   6.076   9.503   3.781  0.1890 -0.0084  0.1575
36072SOL    HW113027   6.115   9.446   3.714  0.6261  0.9509 -0.4313
36072SOL    HW213028   5.988   9.468   3.793  0.5658 -1.0302  0.0807
36073SOL     OW13029  12.035  12.412   4.578 -0.3913  0.1007 -0.1590
36073SOL    HW113030  12.037  12.369   4.663 -0.0804  0.4641  0.0197
36073SOL    HW213031  12.107  12.475   4.581 -1.0008  0.8179 -0.3091
36074SOL     OW13032   5.031   4.379  11.143  0.4334 -0.1933  0.8964
36074SOL    HW113033   4.992   4.457  11.183  0.5729  0.2864  0.1378
36074SOL    HW213034   5.073   4.413  11.064  0.9453 -0.9663  0.8321
36075SOL     OW13035  10.827   3.096   6.803 -0.5181  0.3424  0.2154
36075SOL    HW113036  10.857   3.071   6.891  0.7814  1.1104  0.0130
36075SOL    HW213037  10.890   3.162   6.774 -0.3170 -0.6096 -1.6985
36076SOL     OW13038   4.460   5.601  10.367  0.1485  0.1276 -0.2633
36076SOL    HW113039   4.416   5.599  10.451  0.7672 -1.5586  0.0644
36076SOL    HW213040   4.547   5.636  10.386  0.4468 -0.6809 -0.0984
36077SOL     OW13041   5.223   9.352   8.954 -0.0934 -0.0642 -0.2266
36077SOL    HW113042   5.309   9.335   8.991 -0.1395  1.8347  0.9157
36077SOL    HW213043   5.164   9.291   9.000  0.3076  0.2489  0.7410
36078SOL     OW13044   5.696   6.325   5.852 -0.1402  0.3182  0.2761
36078SOL    HW113045   5.789   6.322   5.828  0.1211  2.2419  0.8187
36078SOL    HW213046   5.677   6.419   5.860 -1.8068 -0.0772  1.4311
36079SOL     OW13047  11.767   9.066   8.702 -0.1966 -0.2775  0.1135
36079SOL    HW113048  11.747   9.143   8.649  3.1609 -1.0526 -2.6217
36079SOL    HW213049  11.762   8.993   8.640  1.4585 -1.5849  1.4337
36080SOL     OW13050   1.895   4.980  10.376  0.3157 -0.2131 -0.2771
36080SOL    HW113051   1.990   4.984  10.366  0.3662 -0.8719 -0.1052
36080SOL    HW213052   1.872   4.890  10.350 -0.5767  0.6784 -2.9831
36081SOL     OW13053   6.943  12.057   0.802  0.0998  0.1159 -0.0500
36081SOL    HW113054   6.970  12.131   0.747 -1.5165 -0.5685 -1.8987
36081SOL    HW213055   7.024  12.012   0.824  0.9279  1.3134 -0.5496
36082SOL     OW13056  11.238  10.946   6.874  0.3502 -0.1486  0.0322
36082SOL    HW113057  11.163  10.894   6.845 -1.0758 -0.1248  3.2758
36082SOL    HW213058  11.246  10.927   6.967  3.3759  1.1609  0.1335
36083SOL     OW13059  10.347   1.513   0.685 -0.2438 -0.3608  0.1048
36083SOL    HW113060  10.276   1.451   0.671 -0.4012 -0.2144  0.2560
36083SOL    HW213061  10.424   1.459   0.702 -0.2784 -0.5235 -0.2424
36084SOL     OW13062   9.049  10.798   1.680 -0.2920  0.0658  0.2451
36084SOL    HW113063   9.035  10.875   1.624  1.8454  0.4749  0.1707
36084SOL    HW213064   9.018  10.824   1.766 -1.4653  0.2582 -0.2145
36085SOL     OW13065   4.216   2.306   7.951 -0.2718 -0.5784  0.1678
36085SOL    HW113066   4.278   2.239   7.922  0.2832 -0.3987  0.8899
36085SOL    HW213067   4.252   2.337   8.034 -0.5130  0.6117 -0.1477
36086SOL     OW13068   2.960   6.038   2.452 -0.4366  0.6025 -0.2208
36086SOL    HW113069   2.918   6.045   2.367 -0.4914 -0.6989 -0.3263
36086SOL    HW213070   3.038   6.094   2.446 -0.2318  0.2209 -1.2587
36087SOL     OW13071  11.178   8.571   8.387  0.1317 -0.1309 -0.3778
36087SOL    HW113072  11.101   8.541   8.339 -1.0860 -1.3503  2.1237
36087SOL    HW213073  11.164   8.665   8.398 -2.4786 -0.6702  2.2156
36088SOL     OW13074  10.270  10.346   9.956  0.9965  0.2306 -0.2201
36088SOL    HW113075  10.196  10.304  10.000  1.2014  0.3608  0.2678
36088SOL    HW213076  10.314  10.394  10.026  0.2139  2.0729 -0.9287
36089SOL     OW13077  12.456   9.215  12.150  0.3815 -0.1171 -0.3929
36089SOL    HW113078  12.546   9.237  12.174  1.1384 -2.1786 -1.1192
36089SOL    HW213079  12.420   9.297  12.116  2.2664  0.5541 -0.9277
36090SOL     OW13080   7.919  11.688   8.650 -0.1343  0.2927  0.2030
36090SOL    HW113081   7.892  11.776   8.623 -0.9808 -0.4822 -1.6693
36090SOL    HW213082   7.924  11.693   8.745 -0.5503  2.2535  0.1700
36091SOL     OW13083   9.234   5.512  11.146  0.1644 -0.0433 -0.5705
36091SOL    HW113084   9.249   5.428  11.191  0.6161 -0.8225 -2.0953
36091SOL    HW213085   9.298   5.572  11.185  1.4309 -1.0440 -1.0192
36092SOL     OW13086  10.382  10.396   6.154  0.7374  0.1104  0.0744
36092SOL    HW113087  10.456  10.437   6.198 -0.4556  0.5488  1.7741
36092SOL    HW213088  10.413  10.379   6.065  3.2432 -0.7199  1.0140
36093SOL     OW13089   7.904  10.091   6.817 -0.4374  0.3259 -0.0725
36093SOL    HW113090   7.848  10.145   6.760  0.1932  0.7492 -0.2996
36093SOL    HW213091   7.846  10.021   6.847 -1.9698  2.2909  1.9865
36094SOL     OW13092   2.351   4.599   1.972  0.6475 -0.0650  0.3106
36094SOL    HW113093   2.311   4.676   1.932 -0.2504  0.0242  1.3240
36094SOL    HW213094   2.328   4.527   1.914  1.7803  0.4597 -0.8231
36095SOL     OW13095   8.369   9.218  12.022  0.4452 -0.4822  0.3273
36095SOL    HW113096   8.337   9.129  12.012  2.0568 -1.1345  0.6218
36095SOL    HW213097   8.301   9.263  12.071 -0.9886 -1.1720 -0.9651
36096SOL     OW13098   1.799   8.664   8.269  0.5736  0.4374 -0.0878
36096SOL    HW113099   1.784   8.725   8.197  2.4200 -0.4992 -1.3311
36096SOL    HW213100   1.779   8.578   8.232  0.9389 -0.0011  0.7068
36097SOL     OW13101  10.377   6.634   9.751 -0.0854  0.3481 -0.0273
36097SOL    HW113102  10.360   6.633   9.845  0.5969 -0.8133  0.1017
36097SOL    HW213103  10.295   6.604   9.712 -0.1510  0.1669  0.2438
36098SOL     OW13104   3.474   1.910   4.958  0.3355 -0.3537 -0.1871
36098SOL    HW113105   3.441   1.847   4.895 -0.2298  1.3631 -1.6775
36098SOL    HW213106   3.564   1.926   4.931  0.0452  0.4998 -0.6670
36099SOL     OW13107   8.938   1.894   8.483 -0.1774 -0.4863 -0.3821
36099SOL    HW113108   9.032   1.876   8.480  0.1174  0.9932 -0.8845
36099SOL    HW213109   8.913   1.877   8.574  0.2109 -2.4252 -0.5799
36100SOL     OW13110  10.915  11.818  11.282 -0.2150  0.1148 -0.2019
36100SOL    HW113111  11.008  11.803  11.266 -0.3363 -0.6830 -0.1960
36100SOL    HW213112  10.877  11.730  11.288 -0.9795  0.4331 -0.2718
36101SOL     OW13113   4.123   8.793   3.876  0.0795 -0.4355 -0.2962
36101SOL    HW113114   4.086   8.733   3.811  1.4374 -1.3834 -0.2319
36101SOL    HW213115   4.070   8.873   3.867  0.4441 -0.3841 -2.8571
36102SOL     OW13116  10.241   8.292   4.446  0.2120  0.0477 -0.3251
36102SOL    HW113117  10.259   8.352   4.518  0.8798 -0.7510  0.2031
36102SOL    HW213118  10.325   8.250   4.429 -0.0883 -0.2343 -1.1405
36103SOL     OW13119   4.261   7.910   4.593  0.0336  0.1830  0.3066
36103SOL    HW113120   4.262   7.818   4.620 -1.3324  0.4789  1.4689
36103SOL    HW213121   4.321   7.953   4.654 -1.9612  0.6075  2.0643
36104SOL     OW13122  12.594   8.506   6.094  0.2028 -0.7462 -0.4458
36104SOL    HW113123  12.523   8.493   6.032  1.6038  2.0347 -2.8964
36104SOL    HW213124  12.670   8.465   6.052  0.6910 -0.9853  0.6450
36105SOL     OW13125   8.217   1.583   3.401  0.0377  0.0200 -0.3130
36105SOL    HW113126   8.213   1.504   3.456 -2.3949 -0.6982 -1.4101
36105SOL    HW213127   8.268   1.557   3.324 -1.3558 -0.7428 -1.0039
36106SOL     OW13128   6.564   8.005   9.884 -0.3090  0.0916  0.0538
36106SOL    HW113129   6.495   8.067   9.861 -1.2235 -0.4330  1.2679
36106SOL    HW213130   6.594   8.033   9.971  0.9650  0.2664 -0.4218
36107SOL     OW13131   3.296   7.029   8.915 -0.0040  0.3654 -1.1899
36107SOL    HW113132   3.385   7.003   8.893  0.7671  1.9518 -0.2052
36107SOL    HW213133   3.267   7.080   8.839  0.0108  0.0461 -1.4127
36108SOL     OW13134  10.193  10.097  12.301 -0.8183 -0.2791 -0.4559
36108SOL    HW113135  10.138  10.165  12.342  1.5620  0.5736  1.5847
36108SOL    HW213136  10.238  10.055  12.375  1.6376 -0.5596 -2.0123
36109SOL     OW13137   3.024   8.048   4.874  0.0378  0.4615  0.7798
36109SOL    HW113138   3.087   8.103   4.827  1.2060  1.1780  3.0495
36109SOL    HW213139   3.070   7.965   4.888 -0.7192 -0.1617 -0.2215
36110SOL     OW13140   3.049   3.332   9.763 -0.0459  0.5975 -0.1133
36110SOL    HW113141   3.066   3.297   9.675 -0.2639 -2.3395  0.8999
36110SOL    HW213142   2.954   3.344   9.765 -0.0715  0.4237 -0.2037
36111SOL     OW13143   7.293   6.195   0.319 -0.4435 -0.4048  0.0808
36111SOL    HW113144   7.375   6.244   0.309 -0.9357  0.3452 -0.4506
36111SOL    HW213145   7.302   6.120   0.260  0.8151 -1.6729  1.8178
36112SOL     OW13146   6.069   0.444   5.783  0.0871 -0.0855  0.0668
36112SOL    HW113147   6.080   0.364   5.732  0.9127  0.3574 -0.4675
36112SOL    HW213148   6.125   0.508   5.740 -0.4999  0.7652  0.5339
36113SOL     OW13149  12.630   3.626   8.872 -0.0455 -0.0729 -0.7542
36113SOL    HW113150  12.574   3.673   8.810 -0.7926  1.8711  1.2712
36113SOL    HW213151  12.719   3.644   8.842 -0.3730  1.3960 -0.9324
36114SOL     OW13152   2.634   5.858   2.630  0.1948 -0.1503  0.3356
36114SOL    HW113153   2.639   5.920   2.703 -0.2167  0.9433 -0.5344
36114SOL    HW213154   2.604   5.776   2.670 -2.2222  1.0082  1.0861
36115SOL     OW13155   3.293   6.211   2.140 -0.6581  0.1803 -0.5936
36115SOL    HW113156   3.362   6.261   2.097 -0.9194  1.3496  0.2981
36115SOL    HW213157   3.320   6.119   2.131  1.9056  0.6522  1.1589
36116SOL     OW13158   5.913  12.382   1.971  0.5848  0.6428  0.1445
36116SOL    HW113159   5.975  12.346   1.907  0.4321  0.1358  0.2797
36116SOL    HW213160   5.934  12.338   2.053 -1.7268 -1.6453 -0.3608
36117SOL     OW13161  12.513   8.557  10.099  0.1557 -0.3035  0.2786
36117SOL    HW113162  12.557   8.495  10.041  2.9551  2.1276 -0.4381
36117SOL    HW213163  12.435   8.584  10.050  0.0815 -1.6034 -0.3555
36118SOL     OW13164   2.220   3.830  11.817 -0.2380  0.2730 -0.1691
36118SOL    HW113165   2.139   3.854  11.771 -0.3887 -0.7081 -0.4232
36118SOL    HW213166   2.285   3.890  11.782 -0.9619  1.4828  0.4696
36119SOL     OW13167   3.197  12.283   2.079  0.3641  0.5818  0.5644
36119SOL    HW113168   3.266  12.336   2.041  0.7562  0.7499  1.4759
36119SOL    HW213169   3.218  12.281   2.173  0.7903 -1.8027  0.4711
36120SOL     OW13170   9.255   7.862   2.688 -0.0242 -0.4913  0.1097
36120SOL    HW113171   9.266   7.905   2.774 -1.7644 -0.4203  0.3298
36120SOL    HW213172   9.217   7.777   2.709 -0.3312 -0.5275 -0.5912
36121SOL     OW13173   6.975   9.425   9.035  0.1146 -0.6200  0.2113
36121SOL    HW113174   6.916   9.401   9.106 -0.2744  1.2922  0.6018
36121SOL    HW213175   7.056   9.451   9.080 -1.0183  3.3727  0.3898
36122SOL     OW13176   3.602  10.378  12.321  0.1611  0.4077 -0.4325
36122SOL    HW113177   3.508  10.385  12.306  0.2242  1.8344 -0.3347
36122SOL    HW213178   3.640  10.364  12.234 -0.1144  0.0607 -0.4986
36123SOL     OW13179  12.364   2.178   2.001  0.3784 -0.2101 -0.0615
36123SOL    HW113180  12.437   2.176   1.939 -0.7658 -1.3714 -1.4237
36123SOL    HW213181  12.292   2.134   1.956 -0.5685 -0.9534  2.0366
36124SOL     OW13182  10.489   5.349   2.689  0.8734 -0.0099  0.1022
36124SOL    HW113183  10.422   5.412   2.663  2.4702  1.7606  0.0589
36124SOL    HW213184  10.567   5.402   2.706  2.5672 -2.0530 -0.7866
36125SOL     OW13185   1.984   8.900   8.650  0.6813  0.6089 -0.3312
36125SOL    HW113186   2.001   8.821   8.700  0.6620  0.2959 -0.8155
36125SOL    HW213187   2.059   8.909   8.591  0.4450  0.6751 -0.6256
36126SOL     OW13188   6.413   9.030   9.243  0.1466  0.5754 -0.4117
36126SOL    HW113189   6.413   8.989   9.330  1.3619  0.6360 -0.3649
36126SOL    HW213190   6.381   8.961   9.184 -2.3492  1.0385  0.2541
36127SOL     OW13191   5.595   1.025   3.005  0.2534 -0.0780 -0.0333
36127SOL    HW113192   5.615   1.031   3.098  0.8666 -0.8302 -0.1041
36127SOL    HW213193   5.506   0.989   3.002 -0.2390  1.0747  0.2606
36128SOL     OW13194  10.483   3.484   3.064 -0.1520 -0.6728  0.0727
36128SOL    HW113195  10.428   3.406   3.057 -2.1866  0.6441  0.2017
36128SOL    HW213196  10.438   3.539   3.129 -0.2316  1.6386 -1.7751
36129SOL     OW13197   3.071   7.461   9.021 -0.0204  0.3797  0.4457
36129SOL    HW113198   3.073   7.486   8.928  0.9572 -0.6139  0.1819
36129SOL    HW213199   2.988   7.496   9.053 -1.0173 -0.4254 -1.1413
36130SOL     OW13200   2.782   1.623   0.670  0.7446 -0.0075  0.1319
36130SOL    HW113201   2.690   1.603   0.656  1.0328 -1.2380 -0.0979
36130SOL    HW213202   2.827   1.591   0.592  1.3885  0.4252  0.3122
36131SOL     OW13203   4.083   3.431   0.087 -0.5245  0.1675 -0.2138
36131SOL    HW113204   4.100   3.337   0.089  1.4851  0.4686 -0.7430
36131SOL    HW213205   4.002   3.441   0.037 -0.4510 -1.2420 -0.6318
36132SOL     OW13206   3.057   5.407  10.725  0.5120 -0.4709  0.0360
36132SOL    HW113207   2.997   5.357  10.780 -0.0927  1.3797  1.1780
36132SOL    HW213208   3.024   5.497  10.729  3.0292  0.5418  0.2868
36133SOL     OW13209   8.420   7.179   7.579  0.8365 -0.6561  0.2885
36133SOL    HW113210   8.358   7.210   7.645  1.6714  0.6923  0.4940
36133SOL    HW213211   8.422   7.084   7.589  0.6503 -0.5099  1.9602
36134SOL     OW13212   5.772   6.753   4.300  0.1393  0.2205 -0.4360
36134SOL    HW113213   5.794   6.667   4.337 -1.1740 -0.8155 -1.9049
36134SOL    HW213214   5.809   6.816   4.361 -0.5729 -1.3794  1.7727
36135SOL     OW13215   0.297   8.049   9.679 -0.0272  0.3156 -0.1572
36135SOL    HW113216   0.257   8.091   9.755  1.3867  2.9349 -0.7429
36135SOL    HW213217   0.273   8.105   9.605  0.8214 -0.6746 -1.2122
36136SOL     OW13218   3.144   5.386   9.442  0.0195  0.3084  0.0006
36136SOL    HW113219   3.071   5.372   9.502  1.3649 -0.1956  1.5873
36136SOL    HW213220   3.190   5.302   9.439  1.5700  1.0970  0.4945
36137SOL     OW13221  11.880   5.443   9.997 -0.1401 -0.0514  0.4181
36137SOL    HW113222  11.958   5.433  10.052 -1.7143 -1.4770  2.5558
36137SOL    HW213223  11.858   5.354   9.971 -2.4844 -0.0428  2.0716
36138SOL     OW13224  11.080   8.459   2.506  0.2963 -0.0202  0.1208
36138SOL    HW113225  11.167   8.463   2.467  0.2798  2.2192  0.1715
36138SOL    HW213226  11.094   8.427   2.595  1.2834  1.4963  0.5510
36139SOL     OW13227   7.902   3.815   7.534  0.2259 -0.7404 -0.1100
36139SOL    HW113228   7.884   3.780   7.446  1.8443  0.8171 -1.1426
36139SOL    HW213229   7.888   3.909   7.525 -0.7245 -0.6713  1.6639
36140SOL     OW13230   8.403  10.253   5.360 -0.0898  0.4890 -0.2064
36140SOL    HW113231   8.312  10.272   5.383 -0.3734 -0.2405 -0.6857
36140SOL    HW213232   8.403  10.159   5.340  0.3640  0.8556 -2.0527
36141SOL     OW13233   2.668   4.296   9.382  0.2263 -0.1357  0.1236
36141SOL    HW113234   2.746   4.280   9.435  1.9242 -0.4668 -2.3323
36141SOL    HW213235   2.675   4.388   9.356  1.5102 -0.8814 -2.5316
36142SOL     OW13236   1.365   6.995   6.656  0.1875 -0.2801 -0.0589
36142SOL    HW113237   1.321   7.041   6.728  0.4983 -0.2926  0.1419
36142SOL    HW213238   1.456   6.988   6.684  0.6884  1.2547 -1.2185
36143SOL     OW13239   5.796   2.319   0.014  0.4716  0.5779 -0.3611
36143SOL    HW113240   5.825   2.233  -0.016  2.3214  0.5601  1.3229
36143SOL    HW213241   5.716   2.336  -0.036  0.0684 -2.0868 -0.7379
36144SOL     OW13242   3.241   5.556   4.327 -0.3884  0.1902  0.0543
36144SOL    HW113243   3.294   5.584   4.253 -0.6222 -1.3153 -0.7184
36144SOL    HW213244   3.304   5.526   4.392 -0.1749  1.6945  0.5609
36145SOL     OW13245   5.921   5.556  12.082 -0.1050 -0.1668  0.5276
36145SOL    HW113246   5.833   5.546  12.118  0.6534 -0.3118  2.4668
36145SOL    HW213247   5.976   5.498  12.135  1.4227  1.1029  0.4113
36146SOL     OW13248   1.454  11.764  11.001 -0.3030 -0.2757 -0.4962
36146SOL    HW113249   1.386  11.774  11.067 -0.1625  0.1222 -0.4067
36146SOL    HW213250   1.446  11.843  10.947 -0.1543 -0.4056 -0.7089
36147SOL     OW13251  10.446   8.667   5.777  0.0742 -0.1364 -0.7401
36147SOL    HW113252  10.501   8.615   5.718 -0.2567  0.4188 -1.5468
36147SOL    HW213253  10.415   8.740   5.724  0.0508  0.5745  0.2229
36148SOL     OW13254   6.733   6.746   9.678  0.2837  0.0344 -0.2560
36148SOL    HW113255   6.752   6.833   9.644  1.8547  0.0425  0.5754
36148SOL    HW213256   6.797   6.732   9.748 -0.2100 -1.6184 -0.0787
36149SOL     OW13257  10.100  11.400   8.102 -0.1031 -0.0331 -0.1514
36149SOL    HW113258  10.060  11.476   8.058  0.1377  0.0106 -0.3004
36149SOL    HW213259  10.110  11.428   8.193  0.2339  0.2167 -0.2635
36150SOL     OW13260   4.905  11.135   3.332  0.5860 -0.1867  0.2384
36150SOL    HW113261   4.986  11.095   3.363  0.7969  1.0465  1.3691
36150SOL    HW213262   4.930  11.224   3.308 -0.4795  0.2944  0.8440
36151SOL     OW13263   8.106  12.341   6.250 -0.2244 -0.3612  0.5107
36151SOL    HW113264   8.127  12.424   6.292 -0.7408 -0.3046  0.6602
36151SOL    HW213265   8.187  12.317   6.204  0.2495 -0.2808  1.2823
36152SOL     OW13266   6.184   4.788   3.508 -0.3878 -0.0152 -0.1324
36152SOL    HW113267   6.099   4.774   3.467 -0.6004 -1.8967  0.8587
36152SOL    HW213268   6.205   4.879   3.489 -2.2917  0.2876 -0.9929
36153SOL     OW13269   0.046   9.966   2.262 -0.4842 -0.0230 -0.9256
36153SOL    HW113270  -0.038  10.005   2.286  1.8242  4.1164  1.4840
36153SOL    HW213271   0.085   9.940   2.345  0.3495 -2.8987 -2.0837
36154SOL     OW13272   3.590   7.313   5.172 -0.6089  0.1486 -0.3520
36154SOL    HW113273   3.650   7.347   5.106 -1.4891  0.4349 -1.0222
36154SOL    HW213274   3.629   7.230   5.199  0.3769  0.5966 -0.3545
36155SOL     OW13275   1.858   5.326   1.420  0.3397  0.0800  0.4298
36155SOL    HW113276   1.862   5.395   1.487 -0.4459 -0.1289  0.6950
36155SOL    HW213277   1.950   5.302   1.406  1.1108  3.7150 -2.3500
36156SOL     OW13278   2.101  11.547  12.007  0.3256  0.3099  0.3930
36156SOL    HW113279   2.140  11.618  12.058 -0.9278  0.1659  1.6101
36156SOL    HW213280   2.018  11.583  11.977  1.2498  0.5862 -2.0814
36157SOL     OW13281   4.868   2.769   6.910  0.5942  0.0297 -0.7605
36157SOL    HW113282   4.873   2.853   6.864 -0.9583  0.2367 -0.5989
36157SOL    HW213283   4.860   2.704   6.840 -1.3857  0.3117 -0.8397
36158SOL     OW13284   5.713  12.222  11.755 -0.3296 -0.2405  0.0972
36158SOL    HW113285   5.704  12.154  11.822 -1.1761  0.9111  1.2130
36158SOL    HW213286   5.658  12.193  11.683 -1.6932 -0.1721  1.0713
36159SOL     OW13287  10.982   0.830   2.557 -0.7564  0.4788 -0.5032
36159SOL    HW113288  10.963   0.811   2.649 -0.6580 -0.8437 -0.7303
36159SOL    HW213289  10.958   0.922   2.546  0.2651  0.9978  1.1073
36160SOL     OW13290  10.395  11.743   7.907  0.1515 -0.3575 -0.1302
36160SOL    HW113291  10.436  11.664   7.872  1.4508 -0.9132  2.4475
36160SOL    HW213292  10.364  11.717   7.994  0.3261  1.8897  0.6511
36161SOL     OW13293  10.915   6.571   4.039  0.0276 -0.2658  0.0608
36161SOL    HW113294  10.874   6.568   4.126  2.1387 -0.9182  1.1055
36161SOL    HW213295  10.871   6.502   3.990  0.1384 -1.2473  1.2805
36162SOL     OW13296   5.139  11.808   8.729  0.4338  0.4180 -0.1135
36162SOL    HW113297   5.119  11.764   8.812 -0.0084 -0.2864 -0.5961
36162SOL    HW213298   5.230  11.838   8.740  0.5275 -0.0578  0.4563
36163SOL     OW13299   8.305   2.851  10.605 -0.4670  0.5888 -0.6224
36163SOL    HW113300   8.348   2.804  10.533 -0.4996  2.5537 -2.0313
36163SOL    HW213301   8.259   2.784  10.654  0.3691 -0.9685 -1.8830
36164SOL     OW13302   3.090   8.725   0.501 -0.2426 -0.3214 -0.7668
36164SOL    HW113303   3.155   8.774   0.451  0.6573 -0.8576 -0.1542
36164SOL    HW213304   3.008   8.738   0.453 -0.1047  2.0009 -0.4602
36165SOL     OW13305   3.839   5.024   2.245 -0.1089 -0.1081  0.1637
36165SOL    HW113306   3.764   5.048   2.299 -0.4421 -0.1401 -0.2841
36165SOL    HW213307   3.816   5.052   2.156  0.3460 -0.2448 -0.0047
36166SOL     OW13308   3.052   9.823   8.156 -0.4132  0.4238  0.0993
36166SOL    HW113309   3.087   9.885   8.092 -0.3366 -0.5335 -0.8089
36166SOL    HW213310   3.074   9.861   8.241  0.1620  1.3356 -0.4437
36167SOL     OW13311  11.418   9.090   0.161  0.1160 -0.0551  0.4583
36167SOL    HW113312  11.378   9.162   0.209  3.3739  1.4027  1.2607
36167SOL    HW213313  11.424   9.019   0.225  1.4140  0.7358  1.2587
36168SOL     OW13314   9.691   2.880   7.810  0.0702 -0.5680 -0.1685
36168SOL    HW113315   9.643   2.831   7.743 -2.4531  2.0555 -0.4807
36168SOL    HW213316   9.636   2.872   7.888 -0.5887  1.8679 -0.3118
36169SOL     OW13317   0.367  11.548   8.449 -0.4668  0.3902 -0.1667
36169SOL    HW113318   0.363  11.489   8.525 -0.3411  1.1859  0.4778
36169SOL    HW213319   0.275  11.571   8.433 -0.3961  1.4177  0.7361
36170SOL     OW13320   6.685   6.875   2.655  0.0968 -0.2242 -0.1491
36170SOL    HW113321   6.606   6.863   2.603 -0.1593  0.6635  0.0212
36170SOL    HW213322   6.653   6.892   2.744  0.2526  3.8368 -0.6872
36171SOL     OW13323   2.869   0.280   8.485  0.0955  0.0447 -0.1751
36171SOL    HW113324   2.891   0.373   8.487  0.1086  0.0268  0.6531
36171SOL    HW213325   2.817   0.265   8.564  1.3515 -0.9492  0.5136
36172SOL     OW13326   9.794   0.143   0.483  0.1205 -0.1750  0.5796
36172SOL    HW113327   9.847   0.216   0.451 -0.8486  0.3213  0.0546
36172SOL    HW213328   9.736   0.122   0.410 -0.9208 -0.1990  1.3821
36173SOL     OW13329  10.968  10.093   4.727  0.5611 -0.3924  0.3123
36173SOL    HW113330  10.897  10.060   4.782  1.6963 -2.2986  0.7421
36173SOL    HW213331  10.926  10.113   4.644 -0.5929 -0.8630  0.7557
36174SOL     OW13332   1.293   1.055   1.871 -0.1760 -0.2305  0.1663
36174SOL    HW113333   1.358   0.996   1.909 -0.5845  0.2333  1.6215
36174SOL    HW213334   1.334   1.085   1.790  1.3988  0.0000  1.0012
36175SOL     OW13335   9.148   2.636   1.008  0.6100 -0.7750 -0.4081
36175SOL    HW113336   9.101   2.579   1.069 -0.6426  3.2432  2.8775
36175SOL    HW213337   9.079   2.689   0.968  1.7663 -0.8553 -2.6206
36176SOL     OW13338   0.278   1.366  10.819  0.5827 -0.4176  0.8673
36176SOL    HW113339   0.243   1.455  10.820 -0.8819 -0.9331 -0.6552
36176SOL    HW213340   0.274   1.339  10.911 -0.4657  0.5368  1.1391
36177SOL     OW13341  12.020   6.863   9.734 -0.2911  0.4346 -0.8402
36177SOL    HW113342  12.052   6.902   9.815 -2.9338 -0.2882  0.6833
36177SOL    HW213343  11.957   6.926   9.699 -0.4201 -0.0056 -1.4293
36178SOL     OW13344   8.358  10.561   6.847  0.3265  0.1986  0.3648
36178SOL    HW113345   8.376  10.476   6.887 -2.1719 -0.4790  0.2093
36178SOL    HW213346   8.304  10.607   6.911  0.8650  1.3019  0.0514
36179SOL     OW13347  11.268   6.019   9.580  0.3978  0.0547 -0.2719
36179SOL    HW113348  11.268   5.925   9.557 -0.3344  0.5364 -2.5513
36179SOL    HW213349  11.178   6.036   9.607  0.1992  0.3473 -1.1006
36180SOL     OW13350  11.676   8.634   6.058 -0.2690 -0.4212  0.7937
36180SOL    HW113351  11.625   8.628   6.139  0.4002  0.7704  1.3196
36180SOL    HW213352  11.688   8.727   6.044  0.9376 -0.6607  0.1544
36181SOL     OW13353  11.116   8.679   3.963 -0.5469  0.3820  0.3087
36181SOL    HW113354  11.163   8.743   3.910 -0.5192  1.2519  1.3320
36181SOL    HW213355  11.033   8.665   3.918  0.1855 -0.2488 -0.8767
36182SOL     OW13356  11.586   5.005   8.969 -0.2168  0.5698  0.0651
36182SOL    HW113357  11.666   5.030   9.016  0.6281 -1.1085 -0.4058
36182SOL    HW213358  11.606   4.920   8.930 -2.0681  0.3432 -0.5092
36183SOL     OW13359   3.285   8.519  10.086 -0.4755  0.2335 -0.0663
36183SOL    HW113360   3.370   8.486  10.115  0.2095  0.1037 -2.1056
36183SOL    HW213361   3.233   8.441  10.067 -0.8408  0.3201  0.5414
36184SOL     OW13362   7.692   6.704   3.555 -0.0046 -0.2593 -0.3429
36184SOL    HW113363   7.719   6.644   3.485 -0.3019  0.5771 -1.1924
36184SOL    HW213364   7.723   6.790   3.526 -0.0391  0.0824  0.6084
36185SOL     OW13365   8.794   3.166   5.883 -0.3085  0.2910 -0.2120
36185SOL    HW113366   8.819   3.091   5.830 -1.6724 -0.3171 -0.0342
36185SOL    HW213367   8.875   3.195   5.924  0.2908 -0.8908 -0.5383
36186SOL     OW13368  10.492   1.242   6.728 -0.1077  0.1623  0.5788
36186SOL    HW113369  10.586   1.238   6.711 -0.4246  1.3222 -1.7986
36186SOL    HW213370  10.485   1.250   6.824  2.2203  0.8146  0.7531
36187SOL     OW13371   2.579   7.164   5.981  0.0757 -0.2928  0.3832
36187SOL    HW113372   2.487   7.193   5.983  0.1794  0.4939 -2.3075
36187SOL    HW213373   2.622   7.221   6.044 -0.5820  2.4977 -1.4655
36188SOL     OW13374   5.439   3.798  12.088 -0.3476 -0.5866 -0.1421
36188SOL    HW113375   5.343   3.805  12.088 -0.2820  1.9125  2.5863
36188SOL    HW213376   5.463   3.791  12.180  2.1436 -1.3655 -0.7734
36189SOL     OW13377   0.261   6.601   1.477 -0.0593  0.7560  0.0945
36189SOL    HW113378   0.296   6.630   1.392 -0.2473  0.6059 -0.0346
36189SOL    HW213379   0.320   6.641   1.541 -0.6881  1.9868 -0.0557
36190SOL     OW13380   3.474   4.943   5.129 -0.3763  0.6217  0.2967
36190SOL    HW113381   3.549   4.970   5.182  0.3222 -1.2157  0.3113
36190SOL    HW213382   3.398   4.979   5.174  0.4194  1.9859  0.6255
36191SOL     OW13383   0.479   6.007  11.082 -0.3660  0.0939 -0.5899
36191SOL    HW113384   0.424   5.994  11.160  0.8499 -1.6139  0.0494
36191SOL    HW213385   0.467   6.099  11.060 -1.1994  0.4944  1.2767
36192SOL     OW13386   0.517   3.594   4.079 -0.0910 -0.0980 -0.1842
36192SOL    HW113387   0.503   3.579   4.172  3.9334 -0.5031  0.5474
36192SOL    HW213388   0.496   3.511   4.037  1.5835 -1.1585  0.9469
36193SOL     OW13389   8.218  11.709   1.610 -0.3868  0.5659 -0.2504
36193SOL    HW113390   8.185  11.779   1.665  0.4405  0.6857  0.0988
36193SOL    HW213391   8.143  11.651   1.598 -1.2156  1.7310 -0.9252
36194SOL     OW13392  10.809  12.436  10.750 -0.0360 -0.0763  0.2431
36194SOL    HW113393  10.845  12.490  10.820  0.2105  1.9701 -1.3742
36194SOL    HW213394  10.885  12.392  10.712  0.6238  2.5829 -1.7829
36195SOL     OW13395   0.124   4.001   2.887 -0.0646 -0.4043  0.6068
36195SOL    HW113396   0.203   3.950   2.872  0.7813  0.5642  1.5904
36195SOL    HW213397   0.152   4.072   2.945 -1.8055 -0.4547  1.5781
36196SOL     OW13398   1.480   3.653   3.239 -0.3303  0.1156 -0.1615
36196SOL    HW113399   1.519   3.651   3.152 -1.3104  2.1053 -0.7280
36196SOL    HW213400   1.549   3.624   3.298 -0.0903 -2.7057 -1.6905
36197SOL     OW13401   3.785   9.481   3.798 -0.3694  0.0179 -0.5413
36197SOL    HW113402   3.780   9.431   3.880 -0.9850  0.4535 -0.3124
36197SOL    HW213403   3.872   9.521   3.800  0.6541 -2.0037 -1.3002
36198SOL     OW13404   5.607   0.093   5.961 -0.4207 -0.2154  0.0677
36198SOL    HW113405   5.596   0.162   6.026  0.8670 -1.1933  1.4054
36198SOL    HW213406   5.581   0.133   5.878  0.5743  1.9625  0.7361
36199SOL     OW13407   8.258   9.153   9.904  0.0224 -0.3914  0.5747
36199SOL    HW113408   8.321   9.124   9.970 -0.9277 -4.4893 -0.0535
36199SOL    HW213409   8.299   9.133   9.820 -0.2918  1.2467 -0.0034
36200SOL     OW13410   4.411   5.327   2.587  0.4448 -0.0595 -0.0122
36200SOL    HW113411   4.369   5.258   2.639  0.7509  0.6912  1.2670
36200SOL    HW213412   4.341   5.391   2.573 -0.1629 -1.1003 -2.1829
36201SOL     OW13413   3.537  10.684   9.281 -0.2182  0.3635  0.3368
36201SOL    HW113414   3.510  10.593   9.265  0.9202 -0.1958  1.4072
36201SOL    HW213415   3.454  10.733   9.286 -0.8071 -0.4108 -1.3037
36202SOL     OW13416  11.720  11.040  11.566 -0.4166  0.4684 -0.0958
36202SOL    HW113417  11.713  11.028  11.471  1.6176  0.5040 -0.2889
36202SOL    HW213418  11.731  11.135  11.576 -0.6309  0.4640  0.1816
36203SOL     OW13419   6.717  11.017   9.246 -0.5811 -0.3610  0.1749
36203SOL    HW113420   6.795  10.975   9.211  0.0892  1.0603 -0.1160
36203SOL    HW213421   6.714  10.991   9.338  0.1611 -0.5397  0.1514
36204SOL     OW13422  12.199   5.394   9.841 -0.0621  0.0476  0.8562
36204SOL    HW113423  12.160   5.322   9.792  1.8488 -1.2820  1.1749
36204SOL    HW213424  12.186   5.369   9.933  0.1872  0.3442  0.9734
36205SOL     OW13425  11.083   4.632   4.390 -0.1528 -0.4230  0.3985
36205SOL    HW113426  11.071   4.726   4.404  0.3055 -0.1370 -1.0365
36205SOL    HW213427  11.177   4.622   4.375 -0.2290 -1.0956  0.3634
36206SOL     OW13428   5.673  10.894   3.789  0.6638  0.0103 -0.3514
36206SOL    HW113429   5.638  10.977   3.819  1.1720  0.6129 -1.3741
36206SOL    HW213430   5.625  10.828   3.839  0.2858  0.9061  0.5042
36207SOL     OW13431   7.154   4.626  10.856 -0.5301  0.3058  0.2837
36207SOL    HW113432   7.242   4.656  10.834 -0.9266  1.0205 -0.3563
36207SOL    HW213433   7.140   4.550  10.799 -0.4835  0.4374  0.0973
36208SOL     OW13434   7.531   8.840   9.918 -0.3420 -0.3193 -0.3456
36208SOL    HW113435   7.553   8.755   9.957  0.3863  0.2320  0.4979
36208SOL    HW213436   7.479   8.884   9.985 -1.2755 -0.3363 -1.0397
36209SOL     OW13437   8.576  10.099   1.761  0.3639  0.0405  0.4849
36209SOL    HW113438   8.572  10.150   1.842 -0.3238 -2.4011  2.0688
36209SOL    HW213439   8.663  10.119   1.725  0.5295  1.4765  1.5919
36210SOL     OW13440  12.510   4.799   4.236 -0.2732  0.0336 -0.4221
36210SOL    HW113441  12.501   4.797   4.140  0.0160  0.1968 -0.4536
36210SOL    HW213442  12.601   4.774   4.252 -0.0514  0.9198 -0.2411
36211SOL     OW13443   4.723   2.159   6.965  0.0292 -0.2284  0.6605
36211SOL    HW113444   4.671   2.108   6.904  0.8770 -0.8313  0.4284
36211SOL    HW213445   4.745   2.098   7.036  1.0327 -0.2064  0.3910
36212SOL     OW13446   4.944   3.442   7.224  0.8147  0.0499 -0.5021
36212SOL    HW113447   4.895   3.524   7.233  2.7308  1.2904 -0.6833
36212SOL    HW213448   4.943   3.404   7.312 -1.1572 -0.4388 -0.6827
36213SOL     OW13449  10.243  11.299   1.061 -0.0818 -0.3318  0.0775
36213SOL    HW113450  10.251  11.377   1.006  1.4626  0.5459  1.4218
36213SOL    HW213451  10.332  11.262   1.061  0.1704  0.1143  2.4672
36214SOL     OW13452   1.411   3.609  12.135 -0.3366 -0.6062 -0.0101
36214SOL    HW113453   1.429   3.627  12.043 -0.5305  1.8147  0.3732
36214SOL    HW213454   1.330   3.558  12.133 -0.3041 -0.6528 -1.1714
36215SOL     OW13455   5.528   9.011   4.612  0.2328 -1.0578  0.3754
36215SOL    HW113456   5.530   9.100   4.576 -3.2304 -1.3410 -0.8972
36215SOL    HW213457   5.601   8.967   4.570  1.5640  0.9436  0.4471
36216SOL     OW13458   0.277   7.321   0.533 -0.7451  0.4515 -0.3539
36216SOL    HW113459   0.232   7.240   0.555 -0.0546 -0.3356 -1.7107
36216SOL    HW213460   0.359   7.318   0.583 -0.7900  0.3834 -0.2858
36217SOL     OW13461   1.474   3.562   8.797  0.3484  0.7987 -0.0551
36217SOL    HW113462   1.464   3.594   8.887 -0.2510  1.1252 -0.2341
36217SOL    HW213463   1.568   3.567   8.780  0.4134  1.1642  0.3977
36218SOL     OW13464   1.114  12.327   0.639 -0.2312 -0.1197 -0.2007
36218SOL    HW113465   1.079  12.347   0.552 -0.5606 -0.1415 -0.0745
36218SOL    HW213466   1.082  12.239   0.658  0.4416 -0.4090 -0.3598
36219SOL     OW13467  11.761   1.427   8.848  0.1323 -0.9127  0.3624
36219SOL    HW113468  11.692   1.361   8.853  1.6336 -2.5808 -0.0196
36219SOL    HW213469  11.719   1.502   8.806 -1.9597 -1.1203  1.9242
36220SOL     OW13470  12.458   7.157   3.895 -0.4078 -0.0483  0.2380
36220SOL    HW113471  12.414   7.084   3.939 -1.0624  1.0396  1.4789
36220SOL    HW213472  12.538   7.118   3.859 -2.4901 -2.1996 -2.5214
36221SOL     OW13473   6.902  10.877   3.136 -0.0115  0.0725 -0.1664
36221SOL    HW113474   6.951  10.811   3.183  1.5813  0.2452 -1.4708
36221SOL    HW213475   6.957  10.956   3.141 -0.9794  0.7663 -0.2039
36222SOL     OW13476   2.920   0.061   4.243 -0.5367  0.7726 -0.2114
36222SOL    HW113477   2.967   0.002   4.184 -0.6749  0.8281 -0.3756
36222SOL    HW213478   2.930   0.020   4.329 -1.2973  0.0845 -0.4311
36223SOL     OW13479  12.643  10.990   6.334 -0.6980  0.6848  0.1186
36223SOL    HW113480  12.730  10.968   6.367 -0.6948 -0.5120 -0.6222
36223SOL    HW213481  12.595  10.907   6.335 -1.2453  0.9562 -1.1935
36224SOL     OW13482   9.438   6.642   7.253  0.0614  0.1944  0.1522
36224SOL    HW113483   9.361   6.596   7.220 -0.2242  0.1127  0.8971
36224SOL    HW213484   9.438   6.726   7.207 -0.0149 -0.1269 -0.4376
36225SOL     OW13485   6.789  11.305   0.538 -0.6462 -0.2403 -0.0985
36225SOL    HW113486   6.794  11.272   0.449 -0.4222  0.1334 -0.2272
36225SOL    HW213487   6.852  11.251   0.587 -1.0959 -0.7393 -0.0707
36226SOL     OW13488  10.697  11.861   5.890 -0.7230 -0.5132  0.3108
36226SOL    HW113489  10.661  11.816   5.814 -0.6182  0.9693 -0.6458
36226SOL    HW213490  10.729  11.944   5.857  0.4752 -0.3451  1.7681
36227SOL     OW13491   4.971  11.497   6.554  0.0657  0.1118  0.4483
36227SOL    HW113492   4.887  11.462   6.582 -0.3930  1.4121  0.7704
36227SOL    HW213493   4.978  11.472   6.461 -1.6641  1.7610 -0.1816
36228SOL     OW13494  11.693   6.073   2.324  0.3723  0.2177 -0.2452
36228SOL    HW113495  11.639   5.999   2.353 -0.7033  0.4204 -1.6180
36228SOL    HW213496  11.736   6.041   2.245  0.2055  0.9295 -0.6305
36229SOL     OW13497   6.634   6.082   3.128  0.4284 -0.0366 -0.1814
36229SOL    HW113498   6.617   5.990   3.112  0.6789 -0.0658 -0.2834
36229SOL    HW213499   6.559   6.112   3.179  0.1642 -0.2078 -0.4679
36230SOL     OW13500   8.715   7.999   5.285 -0.1362  0.1365 -0.2269
36230SOL    HW113501   8.630   7.984   5.244 -1.3470  0.6938  1.8950
36230SOL    HW213502   8.752   7.912   5.296 -0.8054 -0.1847 -0.4545
36231SOL     OW13503   6.807   8.114   9.020  0.5650  0.6134 -0.2350
36231SOL    HW113504   6.829   8.143   9.108 -0.4888  1.2223 -0.1550
36231SOL    HW213505   6.860   8.035   9.006  1.3207  0.9546  0.6368
36232SOL     OW13506   5.920   9.112   7.109  0.1289  0.3700 -0.1032
36232SOL    HW113507   5.972   9.160   7.173  0.3695 -1.4502  1.1563
36232SOL    HW213508   5.829   9.131   7.132  0.2254  0.9075 -0.1678
36233SOL     OW13509   8.615   0.772   9.735 -0.0147  0.3535  0.2826
36233SOL    HW113510   8.630   0.866   9.727  0.4984  0.4688  2.1274
36233SOL    HW213511   8.685   0.731   9.685  1.4329  0.9623  1.7300
36234SOL     OW13512   8.826   6.186   7.004  0.6505 -0.3504  0.0196
36234SOL    HW113513   8.854   6.118   6.943 -1.4672 -0.6700 -0.6659
36234SOL    HW213514   8.817   6.141   7.088 -2.3764 -1.4443 -0.7635
36235SOL     OW13515  10.100  11.120   8.105 -0.1145 -0.2757 -0.4414
36235SOL    HW113516  10.034  11.089   8.167  0.0686 -1.7882 -0.9494
36235SOL    HW213517  10.087  11.215   8.101 -2.4054 -0.5394 -0.6914
36236SOL     OW13518   5.022   2.849   4.058 -0.2470  0.3325  0.4800
36236SOL    HW113519   5.073   2.895   3.991 -2.4589  0.7978 -0.9556
36236SOL    HW213520   4.986   2.918   4.113 -0.7347  0.0990  0.4543
36237SOL     OW13521  10.403  10.656   4.833  0.3378 -0.4606  0.2824
36237SOL    HW113522  10.446  10.630   4.751  0.6493 -0.3470  0.4087
36237SOL    HW213523  10.453  10.612   4.901  1.1674  0.8397  0.5322
36238SOL     OW13524   4.444   4.199   7.008 -0.1429  0.0957  0.1879
36238SOL    HW113525   4.470   4.291   7.017  1.2754 -0.0327 -2.0261
36238SOL    HW213526   4.510   4.151   7.058  0.9953  0.1158 -1.2386
36239SOL     OW13527   5.004   7.083  12.016 -0.6257  0.3854  0.0628
36239SOL    HW113528   5.004   7.178  12.002 -2.2427  0.5250  0.7867
36239SOL    HW213529   4.932   7.050  11.962 -1.2255 -0.1724  1.1504
36240SOL     OW13530   0.369   7.625  11.150  0.0597 -0.1945  0.7355
36240SOL    HW113531   0.360   7.565  11.225 -0.4338 -0.4289  0.4890
36240SOL    HW213532   0.284   7.666  11.142 -0.5096 -1.5892 -0.8906
36241SOL     OW13533   9.809   6.564   8.772  0.3351  0.2288  0.0485
36241SOL    HW113534   9.900   6.534   8.768  0.2720  0.0590 -0.1207
36241SOL    HW213535   9.760   6.496   8.726  0.1588  0.4714 -0.1167
36242SOL     OW13536   7.898  11.769  11.119  0.6467 -0.0580 -0.2288
36242SOL    HW113537   7.902  11.768  11.024 -1.7236 -0.6229 -0.3778
36242SOL    HW213538   7.922  11.680  11.145  4.1728  0.7886 -0.0126
36243SOL     OW13539   1.337   1.347  11.607  0.3403  0.3845  0.2180
36243SOL    HW113540   1.406   1.377  11.666 -0.1894 -1.1916  1.7345
36243SOL    HW213541   1.267   1.317  11.665 -0.2916 -1.0635 -1.2082
36244SOL     OW13542   8.273   7.582  12.343  0.2174 -0.8320  0.1566
36244SOL    HW113543   8.327   7.622  12.411 -0.9526 -1.6614  1.6362
36244SOL    HW213544   8.188   7.569  12.385 -0.7110 -0.8917 -1.6496
36245SOL     OW13545  11.338   4.662   5.587 -0.5769 -0.2004  0.2323
36245SOL    HW113546  11.288   4.596   5.635  0.0698 -0.2500  0.8602
36245SOL    HW213547  11.287   4.742   5.593 -1.7324 -0.7863 -1.1470
36246SOL     OW13548   5.868   6.406   1.364  0.2548  0.0267  0.6572
36246SOL    HW113549   5.929   6.337   1.390 -1.3059 -1.6945 -0.0086
36246SOL    HW213550   5.872   6.471   1.434  2.4282 -0.2784  0.8681
36247SOL     OW13551   3.033   4.502   8.005  0.0319 -1.1261  0.7369
36247SOL    HW113552   3.061   4.573   8.063  0.9477 -0.2564 -0.7352
36247SOL    HW213553   2.955   4.535   7.962  0.4536 -1.0048  0.0550
36248SOL     OW13554   8.945   9.896   7.536 -0.4528  0.2782 -0.0822
36248SOL    HW113555   8.891   9.844   7.477 -0.9398 -0.4348  0.9644
36248SOL    HW213556   9.035   9.875   7.510 -0.6199 -1.5221  0.6503
36249SOL     OW13557  10.944   6.065   5.846  0.8907 -0.6897  1.0903
36249SOL    HW113558  10.870   6.090   5.902  0.1538 -2.6019  1.0474
36249SOL    HW213559  10.904   6.025   5.769  1.9584 -0.6101  0.4715
36250SOL     OW13560   4.339   2.569   6.910 -0.3503 -0.6620 -0.9263
36250SOL    HW113561   4.414   2.515   6.885  0.9291  0.5790  0.0799
36250SOL    HW213562   4.375   2.634   6.970 -2.5436 -1.0161  0.8982
36251SOL     OW13563   6.383  10.489  11.348 -0.0546  0.2138 -0.1647
36251SOL    HW113564   6.327  10.542  11.404 -1.2767 -0.9733 -0.2159
36251SOL    HW213565   6.400  10.544  11.271 -1.9447  0.2688 -0.5831
36252SOL     OW13566  11.540   8.400  10.434  0.6841 -0.4978 -0.4601
36252SOL    HW113567  11.606   8.453  10.478  0.6142 -0.5557 -0.2835
36252SOL    HW213568  11.460   8.453  10.437  0.6051 -0.6265 -0.2525
36253SOL     OW13569   2.791   9.232   0.175  0.7680  0.0799 -0.0963
36253SOL    HW113570   2.723   9.165   0.172  0.7069  0.1568 -0.5053
36253SOL    HW213571   2.872   9.187   0.154  0.8140  0.0284  0.1836
36254SOL     OW13572  10.660  11.191   2.658 -0.0100 -0.0612  0.3463
36254SOL    HW113573  10.727  11.127   2.684 -0.0500 -1.8107 -3.2772
36254SOL    HW213574  10.685  11.217   2.569 -2.9653  0.9073 -0.2979
36255SOL     OW13575  10.519   2.601   9.019 -0.0028 -0.1997  0.4227
36255SOL    HW113576  10.609   2.604   8.987 -0.0731 -0.2649  0.2161
36255SOL    HW213577  10.528   2.589   9.114  0.2691  2.7529  0.8711
36256SOL     OW13578   3.310   1.165   9.732  0.1110 -0.3536  0.0298
36256SOL    HW113579   3.247   1.132   9.795 -0.8398  0.5210 -0.4417
36256SOL    HW213580   3.373   1.093   9.721 -0.1793 -0.8177  1.3249
36257SOL     OW13581   0.614  10.594   3.215  0.3883  0.3481 -0.4187
36257SOL    HW113582   0.539  10.653   3.205 -2.0218 -2.4908 -0.5388
36257SOL    HW213583   0.623  10.553   3.129 -0.5618 -2.1687  0.6097
36258SOL     OW13584   1.929  10.270   4.530 -0.2194  0.5720 -0.6075
36258SOL    HW113585   1.843  10.226   4.535  0.6044 -0.9961  1.4232
36258SOL    HW213586   1.913  10.348   4.477 -2.1715 -1.2835 -3.0065
36259SOL     OW13587  11.925   7.990   6.764  0.1286 -0.5505  0.4913
36259SOL    HW113588  11.851   7.990   6.703  0.0874 -0.2408  0.5364
36259SOL    HW213589  11.914   8.071   6.814  0.0725 -0.8754  1.0167
36260SOL     OW13590   2.087   3.597   0.839  0.2401 -0.2891  0.1168
36260SOL    HW113591   2.054   3.607   0.750  1.6037 -2.1816 -0.6867
36260SOL    HW213592   2.009   3.581   0.892 -0.5408  0.2347 -0.8366
36261SOL     OW13593   5.661   4.172   4.634  0.0712  0.1394  0.1332
36261SOL    HW113594   5.670   4.187   4.540 -0.4200 -0.1225  0.0418
36261SOL    HW213595   5.727   4.229   4.673 -0.2591  0.8599 -0.3308
36262SOL     OW13596   2.057  10.226  10.813 -0.1869  0.1789 -0.0906
36262SOL    HW113597   2.032  10.150  10.760  2.8099 -0.0404 -1.4098
36262SOL    HW213598   2.118  10.190  10.878  1.5375  1.4296 -0.9444
36263SOL     OW13599   7.479   3.051   0.778  0.3976  0.5991  0.6062
36263SOL    HW113600   7.552   3.020   0.725  1.4771 -1.3232  3.0192
36263SOL    HW213601   7.408   2.990   0.758  0.0232  1.3277 -0.3465
36264SOL     OW13602   9.260   1.217  10.158  0.3794 -0.0630  0.3513
36264SOL    HW113603   9.230   1.284  10.096 -1.5354  0.4380  1.7006
36264SOL    HW213604   9.183   1.201  10.213  1.5860 -1.5133  1.6844
36265SOL     OW13605  11.750   0.710   7.712  0.1264 -0.1128  0.0627
36265SOL    HW113606  11.833   0.729   7.669  1.2798 -0.4016  2.0258
36265SOL    HW213607  11.686   0.764   7.666  1.4779  0.4658 -1.2092
36266SOL     OW13608   1.187   5.539   8.436 -0.5117 -0.4923  0.4068
36266SOL    HW113609   1.232   5.590   8.369 -2.5206 -0.4203 -0.9885
36266SOL    HW213610   1.180   5.598   8.510  0.7275 -0.1671  0.2889
36267SOL     OW13611   2.505   9.619   3.425  0.1668 -0.5093 -0.3951
36267SOL    HW113612   2.513   9.595   3.332  1.0157  0.4077 -0.5827
36267SOL    HW213613   2.458   9.702   3.424 -0.5904 -0.9225  0.0702
36268SOL     OW13614   1.232   8.447   1.806 -0.0907  0.0605  0.0945
36268SOL    HW113615   1.295   8.437   1.735  0.9105  1.7491  0.6704
36268SOL    HW213616   1.285   8.439   1.886 -1.1486 -1.5470  0.6854
36269SOL     OW13617   0.999   0.719   4.793 -0.3028  0.4697 -0.0873
36269SOL    HW113618   1.081   0.769   4.799  0.3630 -0.1773 -2.4591
36269SOL    HW213619   1.027   0.628   4.792 -1.2132  0.1723  0.7417
36270SOL     OW13620   0.587   1.915   6.756 -0.3982  0.2375 -0.3657
36270SOL    HW113621   0.633   1.842   6.714  0.3770  0.1898  0.5595
36270SOL    HW213622   0.519   1.873   6.809 -1.7954  0.3179 -1.9853
36271SOL     OW13623  10.408   7.069   0.773  0.3820  0.4756  0.0353
36271SOL    HW113624  10.333   7.122   0.747  0.5733  0.4870 -0.5199
36271SOL    HW213625  10.404   6.993   0.715 -1.4155 -1.5042  2.5501
36272SOL     OW13626   4.845   8.450   5.965  0.7015  0.5058 -0.1986
36272SOL    HW113627   4.759   8.485   5.987  0.1704 -1.8472  1.7786
36272SOL    HW213628   4.834   8.410   5.878  0.3439  1.7694 -0.7638
36273SOL     OW13629   4.435  10.286   3.144  0.4362  0.2432  0.2136
36273SOL    HW113630   4.496  10.263   3.074 -2.2903 -0.6816 -2.1065
36273SOL    HW213631   4.418  10.204   3.190 -0.8937 -0.1148 -0.8343
36274SOL     OW13632   8.013   1.799   0.320  0.2774  0.0552 -0.2008
36274SOL    HW113633   7.922   1.825   0.306  0.3265  0.2833 -0.0892
36274SOL    HW213634   8.026   1.808   0.414  0.3646 -0.1437 -0.1927
36275SOL     OW13635   0.449   0.480   3.010  0.4750  0.1481  0.6207
36275SOL    HW113636   0.368   0.458   2.963  0.4513 -0.4455  0.9273
36275SOL    HW213637   0.440   0.573   3.031  0.3809  0.3690 -0.3365
36276SOL     OW13638  11.383   1.283  11.696  0.2613 -0.4283 -0.4428
36276SOL    HW113639  11.446   1.259  11.629  1.0115  0.7145 -0.1707
36276SOL    HW213640  11.436   1.298  11.775 -0.3959  0.0773 -0.0885
36277SOL     OW13641   9.576   8.191   7.173  0.1773 -0.0326  0.2097
36277SOL    HW113642   9.517   8.181   7.098 -0.4788 -0.0251  0.7157
36277SOL    HW213643   9.518   8.204   7.248  0.8364  0.3062  0.6704
36278SOL     OW13644   9.870   9.608   0.887  0.4182 -0.1201  0.5207
36278SOL    HW113645   9.789   9.557   0.883  2.3400 -3.5550  1.6249
36278SOL    HW213646   9.889   9.629   0.796 -1.5954  0.6711  0.2296
36279SOL     OW13647   1.519  11.551   2.116  0.6666  0.1790  0.5428
36279SOL    HW113648   1.519  11.611   2.041  0.6942 -0.2802  0.1665
36279SOL    HW213649   1.575  11.593   2.181  1.3294  0.1917 -0.0250
36280SOL     OW13650   1.905   7.141   7.697 -0.7551 -0.1482 -0.3922
36280SOL    HW113651   1.846   7.130   7.771 -0.6900  2.0210  0.0300
36280SOL    HW213652   1.968   7.207   7.725  1.0584 -1.3794 -1.3497
36281SOL     OW13653   2.573   8.147  10.702 -0.2322 -0.3474 -0.3192
36281SOL    HW113654   2.497   8.091  10.716  0.2681 -0.5562  1.9688
36281SOL    HW213655   2.648   8.088  10.706  0.2219  0.2803  0.8544
36282SOL     OW13656   6.538  10.663   9.338  0.4468 -0.2538  0.5936
36282SOL    HW113657   6.573  10.734   9.391 -0.0980  0.2905  0.2387
36282SOL    HW213658   6.445  10.684   9.328  0.6164 -0.0916 -0.9404
36283SOL     OW13659   2.150   9.064   0.083 -0.1577  0.4559  0.5441
36283SOL    HW113660   2.209   9.011   0.137 -0.9976 -1.9124 -0.7167
36283SOL    HW213661   2.190   9.064  -0.004 -0.8449  0.8162  0.2175
36284SOL     OW13662   5.992  11.897   4.804 -0.2762 -0.1716  0.5059
36284SOL    HW113663   6.052  11.969   4.824 -0.7176  0.5863 -0.7520
36284SOL    HW213664   5.946  11.881   4.886 -0.3139  1.1464  0.7676
36285SOL     OW13665   3.663  11.591   4.291 -0.0002  0.3678 -0.0998
36285SOL    HW113666   3.682  11.649   4.365  0.5337 -0.2022  0.2231
36285SOL    HW213667   3.577  11.555   4.310 -0.1739  0.7648 -0.1166
36286SOL     OW13668   4.107   4.517  10.446  0.0167 -0.3779 -0.1683
36286SOL    HW113669   4.071   4.564  10.520  0.2764  0.4066 -0.5342
36286SOL    HW213670   4.167   4.578  10.405 -1.4901 -0.0875 -2.1206
36287SOL     OW13671   6.246  11.037   0.945  0.0136  0.8679 -0.1521
36287SOL    HW113672   6.167  11.014   0.895 -0.6353  1.1843  0.7070
36287SOL    HW213673   6.237  10.990   1.027  0.5397  1.2011  0.0988
36288SOL     OW13674   3.458   5.517   4.861 -0.0234  0.2280 -0.1119
36288SOL    HW113675   3.474   5.458   4.935  0.2586  0.4378 -0.0045
36288SOL    HW213676   3.543   5.559   4.845  0.0674 -0.2414 -0.9255
36289SOL     OW13677  10.141   3.903  11.376  0.1252 -0.2101  0.1792
36289SOL    HW113678  10.071   3.878  11.316 -0.6800  0.9177  0.6168
36289SOL    HW213679  10.097   3.951  11.446  1.0142 -1.6590  1.8034
36290SOL     OW13680   3.870   4.435   1.232  0.4840  0.2407  0.0241
36290SOL    HW113681   3.860   4.465   1.323  1.6688  0.6795  0.0168
36290SOL    HW213682   3.963   4.442   1.214  0.0243  2.2164 -1.9343
36291SOL     OW13683   8.244   9.831   1.965  0.0502  0.0857  0.1353
36291SOL    HW113684   8.325   9.836   1.914  0.0350  1.8664  0.2580
36291SOL    HW213685   8.198   9.913   1.947 -2.1159 -1.1928 -0.5334
36292SOL     OW13686   2.992  11.676  10.230  0.2358 -0.1583  0.1326
36292SOL    HW113687   3.029  11.725  10.157 -0.7377 -1.6140 -1.4189
36292SOL    HW213688   3.052  11.691  10.303  1.0828  1.5744 -0.8659
36293SOL     OW13689  11.071   5.593   5.028 -0.4356 -0.2401  0.0586
36293SOL    HW113690  11.079   5.530   5.099  0.7219  1.2422  1.2924
36293SOL    HW213691  11.144   5.572   4.969 -0.2441 -0.2601  0.3020
36294SOL     OW13692   4.300   9.005   4.006  0.7491 -0.1851  0.0322
36294SOL    HW113693   4.365   8.993   4.075  3.1654  0.8811 -1.8942
36294SOL    HW213694   4.272   8.916   3.984  3.9813 -1.1003 -1.1124
36295SOL     OW13695   2.178  11.915   4.720  0.2880  0.1923 -0.4077
36295SOL    HW113696   2.265  11.881   4.699  0.3450  0.6152 -0.8754
36295SOL    HW213697   2.184  12.009   4.706 -0.5916  0.0859 -1.7600
36296SOL     OW13698  10.716   2.720   8.684 -0.0037 -0.0314  0.3343
36296SOL    HW113699  10.702   2.810   8.653  1.6407  0.0904 -0.1760
36296SOL    HW213700  10.631   2.693   8.718 -0.5360  1.7255  0.5292
36297SOL     OW13701  11.130   5.976   8.951  0.1248  0.3126  0.4083
36297SOL    HW113702  11.142   5.889   8.913 -3.7540 -0.2098 -0.0309
36297SOL    HW213703  11.125   5.960   9.046  0.6847  0.2409  0.4244
36298SOL     OW13704   0.853   4.949  10.039  0.2795  0.0450 -0.3840
36298SOL    HW113705   0.891   5.014   9.980  1.2049 -0.2994 -0.1841
36298SOL    HW213706   0.768   4.929  10.001  0.2282  0.9479 -0.7653
36299SOL     OW13707   7.061  11.997   2.401  0.0473 -0.2296 -0.3131
36299SOL    HW113708   7.128  11.929   2.408 -0.5441 -0.6702  1.4775
36299SOL    HW213709   7.109  12.079   2.404  0.4851 -0.4655  3.2375
36300SOL     OW13710   7.492  10.214  10.839  0.5896 -0.1260 -0.0106
36300SOL    HW113711   7.501  10.173  10.925  0.6163 -1.5143 -0.6494
36300SOL    HW213712   7.411  10.266  10.845 -0.1385 -1.2682  0.4588
36301SOL     OW13713   4.417   4.683   9.845 -0.2597 -0.4707 -0.3622
36301SOL    HW113714   4.406   4.595   9.810  0.9523 -0.5394 -0.6123
36301SOL    HW213715   4.470   4.728   9.779  3.4647 -1.0385  1.9573
36302SOL     OW13716  11.350   4.306   2.319  0.4710 -0.0789 -0.1073
36302SOL    HW113717  11.407   4.249   2.268 -0.2458 -0.6171 -0.3370
36302SOL    HW213718  11.262   4.287   2.286  0.0433 -0.1065  1.0052
36303SOL     OW13719   0.616  11.321  10.207  0.4771  0.4529  0.0636
36303SOL    HW113720   0.598  11.278  10.124  1.7779 -0.2015  0.0900
36303SOL    HW213721   0.554  11.283  10.269  2.1468 -2.1424  0.2949
36304SOL     OW13722   0.563   8.776   2.095  0.1951 -0.0132  0.2911
36304SOL    HW113723   0.483   8.750   2.140 -0.3029  1.5873  0.3732
36304SOL    HW213724   0.568   8.717   2.019 -0.4166 -0.9104  0.9318
36305SOL     OW13725   2.754   3.827   3.691  0.0359  0.4545 -0.0331
36305SOL    HW113726   2.822   3.771   3.654 -0.8979  0.0649 -1.2169
36305SOL    HW213727   2.692   3.766   3.732 -0.7532  0.6254 -0.9355
36306SOL     OW13728   9.518   2.660  11.450 -0.2882 -0.4983  0.0306
36306SOL    HW113729   9.585   2.625  11.392 -1.6835 -1.0913 -1.2859
36306SOL    HW213730   9.533   2.755  11.450  2.7475 -0.7891  2.6611
36307SOL     OW13731   1.375   9.010   8.172 -0.2184 -0.3339  0.2992
36307SOL    HW113732   1.455   9.006   8.224  1.5874 -0.0692 -2.2550
36307SOL    HW213733   1.374   8.928   8.124 -0.4690  0.4168 -1.0252
36308SOL     OW13734   1.190   4.787   8.466  0.1708 -0.2422  0.1593
36308SOL    HW113735   1.251   4.760   8.398 -0.2434 -0.1497 -0.2528
36308SOL    HW213736   1.148   4.866   8.431  1.1406  0.7780  1.2091
36309SOL     OW13737   7.345   5.450   9.267 -0.6801  0.1594 -0.2716
36309SOL    HW113738   7.432   5.410   9.268 -0.8979 -0.3793 -1.3508
36309SOL    HW213739   7.341   5.498   9.185 -1.9169 -1.0306 -0.9546
36310SOL     OW13740  12.279   8.965   2.280 -0.3900 -0.2055 -0.2779
36310SOL    HW113741  12.234   8.984   2.198 -0.2393 -1.6414 -0.7077
36310SOL    HW213742  12.357   8.916   2.255 -0.4089 -0.7833  0.7226
36311SOL     OW13743  12.518   2.897   0.307 -0.0615  0.5599 -0.2379
36311SOL    HW113744  12.527   2.830   0.374 -1.5883  0.8235  0.2643
36311SOL    HW213745  12.605   2.937   0.301  0.7571 -1.1433 -0.2357
36312SOL     OW13746  10.061   9.987  10.192  0.0463 -0.1465  0.3632
36312SOL    HW113747  10.048  10.053  10.125 -3.0223 -1.8356 -0.9579
36312SOL    HW213748  10.116   9.920  10.150 -1.0287 -0.7214 -0.1840
36313SOL     OW13749   2.610   6.293   2.917  0.5430 -0.2173  0.5353
36313SOL    HW113750   2.643   6.379   2.891 -1.5999  0.9671  1.4870
36313SOL    HW213751   2.628   6.288   3.011 -0.3569 -0.2556  0.7234
36314SOL     OW13752  10.163  12.316   2.626  0.2791 -0.6846 -0.1780
36314SOL    HW113753  10.074  12.347   2.609  0.6107 -0.4160 -1.5273
36314SOL    HW213754  10.158  12.222   2.611  0.0251 -0.8193  0.6772
36315SOL     OW13755   2.005   9.033   4.235 -0.1497 -0.1845  0.6171
36315SOL    HW113756   1.948   8.997   4.304 -1.1537 -0.9272 -0.5453
36315SOL    HW213757   1.947   9.091   4.185 -0.3078 -1.8960 -1.3365
36316SOL     OW13758   1.951   2.874   9.921 -0.4953 -0.3058 -0.1348
36316SOL    HW113759   1.917   2.957   9.888 -0.0790 -0.6544 -1.5196
36316SOL    HW213760   2.045   2.888   9.928 -0.1979 -1.0831 -1.8679
36317SOL     OW13761   4.554   0.481   2.324 -0.1159 -0.2276  0.3032
36317SOL    HW113762   4.516   0.440   2.246 -0.5321 -0.2519  0.5171
36317SOL    HW213763   4.638   0.436   2.336  0.2526  0.2056 -0.4948
36318SOL     OW13764   6.391   4.962   9.523 -0.6518 -0.2404  0.0727
36318SOL    HW113765   6.358   4.895   9.583 -1.3589  0.0658  0.0251
36318SOL    HW213766   6.486   4.952   9.527 -0.7389 -1.0026  0.3454
36319SOL     OW13767  10.777   1.478  11.902  1.0517 -0.3047 -0.5157
36319SOL    HW113768  10.747   1.549  11.959  1.5525 -0.4344 -0.0754
36319SOL    HW213769  10.852   1.516  11.855 -0.7657  0.6020 -2.9153
36320SOL     OW13770  11.849   0.778   5.845 -0.0320  0.5621  0.0469
36320SOL    HW113771  11.943   0.795   5.852  0.5217 -1.7230 -1.0116
36320SOL    HW213772  11.837   0.741   5.758 -1.8517  0.2627  0.3746
36321SOL     OW13773  11.355   8.501   5.201 -0.1883  0.4371 -0.2508
36321SOL    HW113774  11.330   8.561   5.131 -0.2917  0.3695 -0.2719
36321SOL    HW213775  11.303   8.529   5.276 -0.0609  0.5224 -0.1952
36322SOL     OW13776   5.335   0.854   3.504 -0.5206  0.0410  0.0888
36322SOL    HW113777   5.326   0.775   3.451 -0.3624  0.2102 -0.1894
36322SOL    HW213778   5.429   0.870   3.508 -0.4856 -0.3054  0.9167
36323SOL     OW13779   3.597   5.685   8.726  0.0102  0.0914 -0.1735
36323SOL    HW113780   3.556   5.663   8.642 -1.3399  0.4056  0.3801
36323SOL    HW213781   3.679   5.635   8.726 -0.2195 -0.3300 -1.4425
36324SOL     OW13782   0.060   5.471   5.118 -0.2241 -0.1060  0.6267
36324SOL    HW113783   0.058   5.381   5.085 -0.7964 -0.2018  0.9104
36324SOL    HW213784   0.152   5.489   5.134 -0.1714 -0.9083  1.2862
36325SOL     OW13785   1.429   3.133   3.386 -0.0886 -0.0469  0.1659
36325SOL    HW113786   1.424   3.205   3.448 -2.0047  2.2139 -2.3508
36325SOL    HW213787   1.345   3.087   3.395  0.5488 -1.1477  0.7599
36326SOL     OW13788   4.771   3.025  11.324 -0.0985  0.1885  0.3548
36326SOL    HW113789   4.802   3.034  11.415 -1.3152 -0.2674  0.8315
36326SOL    HW213790   4.795   2.936  11.299  1.6582  0.8143 -0.3561
36327SOL     OW13791   7.497   5.558   3.865  0.1484  0.3719  0.1390
36327SOL    HW113792   7.572   5.603   3.903  0.7315 -0.2568 -0.2430
36327SOL    HW213793   7.501   5.578   3.772 -1.3960  2.0776  0.3873
36328SOL     OW13794  10.273  11.066  10.132 -0.3358 -0.4032 -0.1898
36328SOL    HW113795  10.259  10.973  10.149  0.6666 -0.6321 -0.5514
36328SOL    HW213796  10.331  11.069  10.056  2.1844  0.4160  1.6189
36329SOL     OW13797   9.300   5.316   8.568  0.2124 -0.1999 -0.1907
36329SOL    HW113798   9.331   5.390   8.516  1.0840  0.2395  0.9075
36329SOL    HW213799   9.371   5.252   8.563  0.7444  0.2370  1.1931
36330SOL     OW13800   5.358   8.858   8.048 -0.1150  0.4424 -0.1954
36330SOL    HW113801   5.409   8.804   8.109 -0.7131  1.6534  1.4318
36330SOL    HW213802   5.353   8.805   7.968  0.7484 -1.1739  0.7707
36331SOL     OW13803   0.069  11.801   4.053 -0.4913 -0.0254 -0.5582
36331SOL    HW113804   0.151  11.793   4.003 -0.2807  0.1579 -0.2519
36331SOL    HW213805   0.047  11.894   4.046 -0.2170  0.0948  0.0550
36332SOL     OW13806  11.025   4.686   5.710 -0.1200  0.2221 -0.5858
36332SOL    HW113807  11.040   4.591   5.705 -1.3553  0.0129 -0.7152
36332SOL    HW213808  11.019   4.714   5.618 -0.4258  0.3084 -0.5400
36333SOL     OW13809   1.288   8.348  12.352 -0.0953  0.4651 -0.4776
36333SOL    HW113810   1.306   8.402  12.429 -1.7941  1.0722 -0.4709
36333SOL    HW213811   1.350   8.275  12.359 -0.3849  0.3571  1.6103
36334SOL     OW13812  12.341   8.444   3.076 -0.0165  0.5640 -0.0086
36334SOL    HW113813  12.372   8.354   3.083 -0.1523  0.0289 -4.1279
36334SOL    HW213814  12.420   8.497   3.086  0.9870 -0.3560 -2.3657
36335SOL     OW13815   3.672  10.573   7.100 -0.0839  0.0824 -0.4123
36335SOL    HW113816   3.600  10.634   7.118 -0.9370 -0.8818 -0.4730
36335SOL    HW213817   3.693  10.588   7.008 -0.8608 -0.2712 -0.6638
36336SOL     OW13818   3.561   6.679   0.853 -0.6146  0.0141 -0.5730
36336SOL    HW113819   3.531   6.754   0.800 -1.0234 -1.1607 -2.0688
36336SOL    HW213820   3.633   6.642   0.803  0.5843  0.2582  0.9082
36337SOL     OW13821  12.634  11.641  10.601  0.8011  0.0177  0.2612
36337SOL    HW113822  12.582  11.713  10.637  0.7895  0.9424 -1.4698
36337SOL    HW213823  12.676  11.679  10.524  0.6867 -1.8634 -0.7938
36338SOL     OW13824   8.485   0.838  12.261 -0.2665 -0.1366 -0.5348
36338SOL    HW113825   8.558   0.875  12.311 -1.3779  0.5672  0.6161
36338SOL    HW213826   8.414   0.829  12.324 -1.0424 -1.2866 -1.5150
36339SOL     OW13827  11.388   8.693   0.008 -0.2682 -0.5221  0.2300
36339SOL    HW113828  11.444   8.671  -0.066 -0.3039 -0.1020  0.0706
36339SOL    HW213829  11.369   8.610   0.051  0.4064 -0.6810  0.2320
36340SOL     OW13830   8.578   5.634   8.640 -0.0473  0.4103 -0.5928
36340SOL    HW113831   8.603   5.629   8.548  1.0534  0.1319 -0.2919
36340SOL    HW213832   8.531   5.718   8.647  0.7270  0.9125 -1.2094
36341SOL     OW13833   1.870  10.490  10.800  0.3353 -0.4461 -0.9447
36341SOL    HW113834   1.864  10.540  10.881 -1.0520 -0.8565 -0.7644
36341SOL    HW213835   1.923  10.413  10.822 -1.6895 -1.5966  0.1722
36342SOL     OW13836   3.943   8.922   6.272  0.4485 -0.3934  0.1178
36342SOL    HW113837   4.021   8.956   6.315  1.0635 -1.1686 -0.3596
36342SOL    HW213838   3.931   8.978   6.195  0.3110 -0.0453  0.3891
36343SOL     OW13839  10.012  12.037   3.524 -0.3780  0.0825  0.4930
36343SOL    HW113840   9.927  12.033   3.481  0.9235 -1.7023 -2.1313
36343SOL    HW213841  10.019  11.955   3.572  0.8077 -0.9615 -1.3681
36344SOL     OW13842   6.346   6.413   2.524  0.0579  0.4504  0.4742
36344SOL    HW113843   6.265   6.363   2.540  0.1459 -0.1031 -0.7079
36344SOL    HW213844   6.416   6.349   2.536  0.1617  0.1994 -1.2588
36345SOL     OW13845  12.278   3.293   4.162  0.6768  0.6154 -0.1053
36345SOL    HW113846  12.288   3.213   4.214 -0.4273  1.0147  0.7694
36345SOL    HW213847  12.367   3.316   4.135  1.0798 -0.5350  0.1937
36346SOL     OW13848   5.022   5.691   9.166 -0.0076 -0.1146  0.0718
36346SOL    HW113849   4.934   5.724   9.153 -0.6704 -1.0251  1.9043
36346SOL    HW213850   5.015   5.597   9.150  1.1168  0.0655 -1.7841
36347SOL     OW13851  10.051   1.346   4.543  0.7391 -0.3900 -0.1535
36347SOL    HW113852  10.066   1.322   4.452  1.1720 -1.0239  0.0831
36347SOL    HW213853   9.959   1.373   4.546  0.8000 -0.0802 -0.8323
36348SOL     OW13854   7.757   5.104   6.272  0.6556  0.1564 -0.1053
36348SOL    HW113855   7.761   5.009   6.276  0.5745  0.1871  0.7487
36348SOL    HW213856   7.741   5.123   6.179 -0.0419 -0.6818 -0.1709
36349SOL     OW13857   6.725   8.350   3.978 -0.1060  0.1709 -0.6363
36349SOL    HW113858   6.637   8.371   4.008 -0.0302 -0.8131  0.3283
36349SOL    HW213859   6.721   8.259   3.950  0.2349  0.5820 -2.1315
36350SOL     OW13860  11.254  11.621   5.561 -0.0450  0.2655  0.5294
36350SOL    HW113861  11.323  11.685   5.572  0.6418 -0.5584  1.1768
36350SOL    HW213862  11.195  11.660   5.497 -0.5672  2.2859  2.1256
36351SOL     OW13863   7.350   8.281  11.788 -0.1114 -0.0977 -0.5695
36351SOL    HW113864   7.268   8.329  11.779  0.1994  0.0330 -3.9397
36351SOL    HW213865   7.324   8.194  11.817 -1.3726  0.1069 -1.0314
36352SOL     OW13866   6.357   4.337   9.673  0.5089  1.1763 -0.1642
36352SOL    HW113867   6.358   4.402   9.602  0.2720 -0.0656 -1.3399
36352SOL    HW213868   6.265   4.311   9.680  0.6317  0.8278  0.1704
36353SOL     OW13869   7.056   1.533   7.734  0.0572  0.3084 -0.5291
36353SOL    HW113870   7.148   1.508   7.728 -0.0199  0.0026 -0.4729
36353SOL    HW213871   7.049   1.577   7.819 -0.4357 -2.2857  0.8875
36354SOL     OW13872  10.121   6.204   1.405  0.1743  0.1974  0.0054
36354SOL    HW113873  10.209   6.240   1.416  0.6120 -0.7137 -0.3822
36354SOL    HW213874  10.091   6.186   1.494  0.7973 -0.4251  0.0982
36355SOL     OW13875   0.294   2.548   5.754 -0.3362 -0.5763  0.5031
36355SOL    HW113876   0.333   2.610   5.816 -2.5165  2.2170 -0.7183
36355SOL    HW213877   0.221   2.508   5.801 -0.4168 -0.4022  0.5235
36356SOL     OW13878   0.001   0.681   1.490 -0.3851  0.0102  0.1895
36356SOL    HW113879  -0.031   0.641   1.572 -0.3001  1.4941  0.9762
36356SOL    HW213880   0.088   0.714   1.512 -0.4541  0.6287 -0.4450
36357SOL     OW13881  12.636   6.590  11.300 -0.2680  0.2942 -0.8686
36357SOL    HW113882  12.670   6.627  11.381 -1.8640 -0.5377  0.2198
36357SOL    HW213883  12.541   6.594  11.309 -0.4980 -2.0335 -1.6412
36358SOL     OW13884  11.374   3.773   1.038  0.4282  0.4736 -0.4945
36358SOL    HW113885  11.358   3.852   1.090 -0.2651  0.0489 -0.0421
36358SOL    HW213886  11.342   3.701   1.093  1.0351 -0.1263 -0.9066
36359SOL     OW13887   7.146   6.808   7.408  0.5787 -0.0093 -0.0636
36359SOL    HW113888   7.167   6.731   7.461  1.6222  1.3931  1.6912
36359SOL    HW213889   7.202   6.800   7.330  1.8128 -0.3086  0.8226
36360SOL     OW13890   6.150   8.097  10.648  0.3169 -0.0780  0.1636
36360SOL    HW113891   6.133   8.028  10.583 -0.6045  0.8440 -0.6086
36360SOL    HW213892   6.120   8.177  10.606 -1.1313  0.4453  2.0737
36361SOL     OW13893  12.232   5.738   3.205  0.3061 -0.3466  0.7237
36361SOL    HW113894  12.232   5.654   3.250  2.0097 -1.1953 -0.7337
36361SOL    HW213895  12.159   5.731   3.143 -0.5371 -0.1068  1.6659
36362SOL     OW13896  12.384   5.753   7.288  0.0017 -0.0505  0.2776
36362SOL    HW113897  12.302   5.784   7.250 -0.1948 -0.8330  0.0326
36362SOL    HW213898  12.448   5.819   7.264 -0.3268 -0.0199 -0.5564
36363SOL     OW13899   9.021   1.257   8.830  0.5160 -0.2931  0.3632
36363SOL    HW113900   9.088   1.218   8.885  1.5119 -0.7013 -1.0987
36363SOL    HW213901   9.058   1.258   8.742 -1.5526 -0.9113 -0.5820
36364SOL     OW13902  11.657   0.818   2.054  0.2624 -0.1552  0.1179
36364SOL    HW113903  11.597   0.746   2.034  0.2330  0.5184 -2.5817
36364SOL    HW213904  11.602   0.882   2.100 -0.4357 -0.6515  0.0024
36365SOL     OW13905   0.950   5.026  10.996 -0.4124  0.1250  0.0031
36365SOL    HW113906   0.954   5.019  10.901 -0.2839 -0.4776  0.0520
36365SOL    HW213907   0.883   4.963  11.023 -0.7280  0.5708  0.2853
36366SOL     OW13908   0.437   8.687   4.252  0.2161 -0.7109  0.3237
36366SOL    HW113909   0.466   8.634   4.178  0.8846 -2.0046  1.4730
36366SOL    HW213910   0.505   8.753   4.263 -0.3159  0.0466 -0.7277
36367SOL     OW13911   9.749   0.605   5.033 -0.3823  0.4434  0.0532
36367SOL    HW113912   9.724   0.518   5.002  1.0662  0.6374 -1.8966
36367SOL    HW213913   9.807   0.589   5.107 -0.8390 -0.2076  0.2810
36368SOL     OW13914   7.398   1.811   7.184  0.2584  0.3940  0.3638
36368SOL    HW113915   7.457   1.739   7.208 -2.5714 -1.6346  1.8606
36368SOL    HW213916   7.333   1.813   7.255 -2.9494  0.7161 -2.3319
36369SOL     OW13917   1.335  12.418   7.657 -0.2577 -0.7082  0.4509
36369SOL    HW113918   1.390  12.483   7.614  0.5885 -1.4283  0.4095
36369SOL    HW213919   1.269  12.396   7.592 -0.5860  0.1425  0.4867
36370SOL     OW13920  12.512  10.525  11.079 -0.2919 -0.7766 -0.0010
36370SOL    HW113921  12.435  10.509  11.025 -0.1579 -0.3778 -0.3127
36370SOL    HW213922  12.576  10.460  11.050 -0.3713 -0.8464 -0.0192
36371SOL     OW13923   9.787   6.099   0.205  0.5061  0.2130  0.3757
36371SOL    HW113924   9.826   6.145   0.280 -0.8469  0.6018  0.8718
36371SOL    HW213925   9.744   6.168   0.155  0.1545 -0.2510  0.0327
36372SOL     OW13926  10.968   2.367   4.003 -0.3655 -0.2461 -0.7736
36372SOL    HW113927  11.061   2.348   4.015 -0.2305  0.4141 -0.7504
36372SOL    HW213928  10.930   2.358   4.091  0.4306  3.5634  0.1125
36373SOL     OW13929   2.520  11.911   4.432 -0.2335 -0.0170 -0.5669
36373SOL    HW113930   2.500  12.005   4.435 -0.0855 -0.0074  0.4913
36373SOL    HW213931   2.613  11.906   4.411 -0.4990  0.0374 -1.7879
36374SOL     OW13932   2.709   4.371   3.536 -0.6180 -0.1066  0.6798
36374SOL    HW113933   2.627   4.336   3.572 -1.7079  1.0513 -0.5433
36374SOL    HW213934   2.710   4.462   3.564  0.8773 -0.3914  1.6468
36375SOL     OW13935   3.602   4.355  10.293 -0.2117 -0.6309 -0.0718
36375SOL    HW113936   3.592   4.328  10.385  0.5644 -2.5516 -0.5145
36375SOL    HW213937   3.548   4.294  10.244 -1.1829  0.8164 -0.8878
36376SOL     OW13938   6.112   2.825   7.502 -0.4702 -0.0370 -0.2887
36376SOL    HW113939   6.178   2.885   7.467 -2.2238  0.6870 -2.5991
36376SOL    HW213940   6.085   2.773   7.426 -3.1068  0.2734  0.3652
36377SOL     OW13941  11.812   6.118   9.303 -0.3966  0.1154 -0.0715
36377SOL    HW113942  11.810   6.022   9.307  1.8974  0.0103 -0.3968
36377SOL    HW213943  11.842   6.137   9.214  0.0390  1.1159  0.2773
36378SOL     OW13944   7.846   6.853  11.605 -0.4315  0.2463 -0.0900
36378SOL    HW113945   7.832   6.840  11.511  1.6517  0.7132 -0.5331
36378SOL    HW213946   7.772   6.907  11.633 -0.5500  1.0011 -1.7076
36379SOL     OW13947   3.975   2.481  10.223 -0.1442  0.0662 -0.2842
36379SOL    HW113948   3.969   2.506  10.131 -1.0251 -0.6486 -0.4404
36379SOL    HW213949   3.985   2.385  10.221 -2.8192 -0.3018  0.3845
36380SOL     OW13950   2.436  11.136  11.138 -0.1010 -0.1129 -0.3661
36380SOL    HW113951   2.515  11.191  11.131 -1.4615  1.9930 -0.0506
36380SOL    HW213952   2.387  11.155  11.058  0.0448 -2.0284 -0.9480
36381SOL     OW13953   3.519  11.421   3.529  0.1085  0.0154  0.0611
36381SOL    HW113954   3.495  11.466   3.609  0.6320  1.6394 -0.6450
36381SOL    HW213955   3.459  11.347   3.524 -0.8685  0.6888  1.2318
36382SOL     OW13956   1.986   6.704   8.334  0.0172 -0.0205 -0.2007
36382SOL    HW113957   1.940   6.690   8.417  1.0795  0.3624  0.4842
36382SOL    HW213958   2.079   6.707   8.359  0.2458  2.2385 -1.0923
36383SOL     OW13959   5.835   5.109   8.289  0.0640 -0.3545 -0.6910
36383SOL    HW113960   5.825   5.123   8.383  1.8752 -1.3346 -0.2975
36383SOL    HW213961   5.784   5.179   8.248 -1.7346 -0.6279  0.9831
36384SOL     OW13962  10.084  10.535  10.920 -0.2249 -0.5240 -0.2675
36384SOL    HW113963  10.088  10.543  10.825  0.1087  0.3301 -0.1911
36384SOL    HW213964  10.148  10.598  10.952  0.9775 -2.0577  0.4938
36385SOL     OW13965   7.506   0.130   8.999  0.1505  0.6819  0.1581
36385SOL    HW113966   7.454   0.203   9.032  0.4257  0.9949 -0.0961
36385SOL    HW213967   7.597   0.159   9.007  0.3248 -0.0171  0.9808
36386SOL     OW13968  12.550   0.835   2.107 -0.8260  0.2474  0.0587
36386SOL    HW113969  12.617   0.863   2.045 -1.7750  0.7706 -0.7637
36386SOL    HW213970  12.562   0.740   2.114 -0.2267  0.2907 -0.3418
36387SOL     OW13971  12.101   7.720   7.358 -0.2680 -0.4322  0.2085
36387SOL    HW113972  12.076   7.628   7.345  0.5437 -0.5164 -0.8974
36387SOL    HW213973  12.193   7.715   7.386  0.1192  0.0663 -0.9167
36388SOL     OW13974   6.105  10.498   4.937 -0.9400 -0.1715  0.0256
36388SOL    HW113975   6.053  10.464   5.010  0.8256 -1.5340  0.7251
36388SOL    HW213976   6.105  10.593   4.950  0.0868 -0.4208  2.4034
36389SOL     OW13977   9.656   2.155   2.232 -0.2990  0.2088  0.1383
36389SOL    HW113978   9.700   2.177   2.315  0.0952  0.4733 -0.1380
36389SOL    HW213979   9.576   2.208   2.233  0.6584  1.7358 -0.5333
36390SOL     OW13980   4.028  12.162   5.971 -0.1019  0.0908  0.0853
36390SOL    HW113981   3.988  12.182   6.056 -0.5827  0.2071 -0.1625
36390SOL    HW213982   4.121  12.179   5.983 -0.2353  0.5783  0.4486
36391SOL     OW13983   5.254   0.093   8.610 -0.3177 -0.3410 -0.2675
36391SOL    HW113984   5.321   0.028   8.633  1.7224  1.8622  0.5197
36391SOL    HW213985   5.284   0.129   8.526 -1.5133 -0.5415 -0.7903
36392SOL     OW13986   6.637   9.026   8.865 -0.0585 -0.0292 -0.7261
36392SOL    HW113987   6.658   9.072   8.946 -1.6627  0.3548 -0.4938
36392SOL    HW213988   6.697   9.064   8.800 -0.6590  1.7140 -0.3127
36393SOL     OW13989  12.409   6.143   7.972 -0.3643  0.3839 -0.6786
36393SOL    HW113990  12.493   6.190   7.978  0.2888 -0.7092 -1.0201
36393SOL    HW213991  12.393   6.111   8.061  0.4557 -0.8450 -0.9466
36394SOL     OW13992  10.901   9.119   9.730 -0.0113  0.0607  0.1597
36394SOL    HW113993  10.968   9.050   9.726 -1.0492 -1.0493  1.0220
36394SOL    HW213994  10.823   9.078   9.692 -0.1149  1.4847 -1.2692
36395SOL     OW13995   2.052   8.330   4.109  0.1555 -0.3661 -0.5256
36395SOL    HW113996   1.971   8.293   4.146  0.2175  2.2866  2.8267
36395SOL    HW213997   2.022   8.383   4.035 -1.4107  0.9456  0.9283
36396SOL     OW13998   1.211   7.811   3.657  0.1728 -0.2177 -0.1622
36396SOL    HW113999   1.223   7.717   3.641 -0.6754 -0.1724 -1.1754
36396SOL    HW214000   1.162   7.815   3.739 -0.8877 -0.7329 -0.7403
36397SOL     OW14001   3.419   7.812  11.836  0.1604 -0.0047  0.1279
36397SOL    HW114002   3.337   7.767  11.814  0.2655  0.0036 -0.2944
36397SOL    HW214003   3.466   7.751  11.892  0.3085 -0.4291 -0.4520
36398SOL     OW14004   6.030   8.333   9.669 -0.0702  0.0881  0.3591
36398SOL    HW114005   5.945   8.362   9.636 -0.0246 -1.1786 -0.9998
36398SOL    HW214006   6.094   8.369   9.607  0.5268  1.7943  1.8658
36399SOL     OW14007  10.993  10.813   6.407 -0.3712  0.5131 -0.4585
36399SOL    HW114008  10.995  10.731   6.454 -0.6739  0.2714 -0.8535
36399SOL    HW214009  10.934  10.797   6.333  2.5527 -0.1324 -2.8085
36400SOL     OW14010   3.730   4.711   6.385  0.2679  0.7184 -0.0082
36400SOL    HW114011   3.712   4.762   6.464 -0.2946 -1.2041  1.1926
36400SOL    HW214012   3.643   4.696   6.346 -0.1849 -2.5092  1.8433
36401SOL     OW14013   0.060   7.031   5.405  0.5094  0.1193  0.2591
36401SOL    HW114014   0.091   6.959   5.350 -0.1753  0.8759 -1.1537
36401SOL    HW214015   0.100   7.109   5.368 -0.5726  0.7333  0.3326
36402SOL     OW14016   7.825   0.605   1.549 -0.0351 -0.4935  0.2783
36402SOL    HW114017   7.810   0.633   1.639 -1.2148 -2.5208  0.7627
36402SOL    HW214018   7.919   0.620   1.534  0.0213  0.5523  1.5703
36403SOL     OW14019   0.601  10.598  11.233 -0.2586  0.4231  0.3024
36403SOL    HW114020   0.611  10.614  11.327  0.5721  1.6268  0.0368
36403SOL    HW214021   0.510  10.570  11.224 -0.0465 -0.7987  1.5830
36404SOL     OW14022  11.196   0.472   8.970  0.1321 -0.3628 -0.1809
36404SOL    HW114023  11.112   0.425   8.967  0.8791 -1.8203  0.8082
36404SOL    HW214024  11.256   0.412   9.014  1.0865  1.6149  1.3977
36405SOL     OW14025   1.494   5.264   0.752 -0.4855 -0.3401  0.0419
36405SOL    HW114026   1.496   5.329   0.823  0.9502 -2.0832  1.6918
36405SOL    HW214027   1.443   5.192   0.788  0.2910 -1.2619 -0.6701
36406SOL     OW14028  12.596   7.707  10.281 -0.0193  0.2764  0.5678
36406SOL    HW114029  12.635   7.659  10.208  2.6837  0.7389  1.5984
36406SOL    HW214030  12.575   7.794  10.245 -0.5687 -0.1306 -0.1154
36407SOL     OW14031   4.105  10.582   4.300 -0.5358 -0.0406 -0.2977
36407SOL    HW114032   4.195  10.557   4.281 -0.9823 -1.2215 -1.0539
36407SOL    HW214033   4.062  10.583   4.214 -1.1420  0.9477  0.0003
36408SOL     OW14034   1.638   8.553  11.517 -0.4557 -0.2112 -0.1261
36408SOL    HW114035   1.716   8.509  11.483  0.4534  1.1124  0.1639
36408SOL    HW214036   1.599   8.490  11.577 -0.3328 -1.3787 -1.2309
36409SOL     OW14037  10.181   4.939   5.552 -0.5537 -0.3250 -0.2870
36409SOL    HW114038  10.270   4.970   5.574 -1.0445  0.5728  0.5447
36409SOL    HW214039  10.161   4.875   5.620 -0.9852  0.3599  0.2504
36410SOL     OW14040   0.430   5.053   6.707 -0.1551  0.0778 -0.0115
36410SOL    HW114041   0.458   5.064   6.798 -1.1688  0.3813  0.2726
36410SOL    HW214042   0.403   5.141   6.680  0.7672  0.1306 -0.8374
36411SOL     OW14043  12.458   0.282   8.329  0.1809 -0.4503  0.1107
36411SOL    HW114044  12.532   0.338   8.352  0.7135 -0.7143 -0.8912
36411SOL    HW214045  12.474   0.200   8.377  1.4521 -1.1146 -1.3906
36412SOL     OW14046   8.394  11.918   0.325 -0.1657 -0.4034 -0.6959
36412SOL    HW114047   8.460  11.988   0.324 -0.0162 -0.4412  1.5728
36412SOL    HW214048   8.422  11.858   0.256  1.1060  0.5524 -1.0495
36413SOL     OW14049   2.161  11.940   4.359 -0.1392  0.5813 -0.0876
36413SOL    HW114050   2.212  12.019   4.342  1.2995  0.0516  1.4909
36413SOL    HW214051   2.224  11.869   4.351 -0.5977 -0.1013  1.8751
36414SOL     OW14052   8.165   9.891  10.515 -0.1239  0.1167 -0.0496
36414SOL    HW114053   8.215   9.971  10.529 -1.1737  0.4490  2.4401
36414SOL    HW214054   8.130   9.899  10.426  1.5002  1.3767 -0.6213
36415SOL     OW14055   3.789   2.806   3.368  0.2650  0.5684 -0.0593
36415SOL    HW114056   3.792   2.860   3.447 -0.5921  0.1643  0.2535
36415SOL    HW214057   3.730   2.853   3.309  0.5748  0.6542 -0.3041
36416SOL     OW14058   4.521   9.052   8.837  0.4266 -0.0420 -0.1164
36416SOL    HW114059   4.550   9.143   8.840  0.3085 -0.0132  1.8705
36416SOL    HW214060   4.602   9.001   8.831  0.9093  0.1234  3.0003
36417SOL     OW14061  11.713   6.673   8.426  0.3429  0.0002  0.0872
36417SOL    HW114062  11.735   6.583   8.449  1.2308  0.1714 -0.0649
36417SOL    HW214063  11.723   6.722   8.507  0.7235  0.1167 -0.0306
36418SOL     OW14064   5.755   0.794   6.005 -0.1769 -0.3188 -0.0574
36418SOL    HW114065   5.777   0.831   6.090  0.0202 -1.2083  0.2906
36418SOL    HW214066   5.790   0.856   5.941 -0.6903  0.5641  0.5044
36419SOL     OW14067  10.972   6.924   6.939  0.5242 -0.1132 -0.0595
36419SOL    HW114068  10.914   6.977   6.995 -0.5646  1.2775 -2.3312
36419SOL    HW214069  11.048   6.980   6.924  0.0738  0.2312 -1.2072
36420SOL     OW14070   2.235   7.092   6.542 -0.2802  0.1012 -0.0491
36420SOL    HW114071   2.192   7.070   6.625 -0.3605 -0.6791 -0.2887
36420SOL    HW214072   2.318   7.134   6.568 -0.2697 -0.2072  0.4250
36421SOL     OW14073   7.038  12.247   5.432 -0.3370  0.5741 -0.2733
36421SOL    HW114074   7.094  12.255   5.510  0.0694  0.6515 -0.5694
36421SOL    HW214075   7.055  12.159   5.400 -1.2485  0.1826  0.2808
36422SOL     OW14076   3.065   2.629   9.700  0.0675  0.9383 -0.0468
36422SOL    HW114077   3.136   2.642   9.763 -0.9294  0.5610  1.1966
36422SOL    HW214078   3.093   2.553   9.649  0.7050  0.9940  0.1987
36423SOL     OW14079  11.407   7.009   8.048 -0.0060 -0.0666  0.1859
36423SOL    HW114080  11.442   7.081   7.996 -1.7873  1.0246  0.4229
36423SOL    HW214081  11.316   7.000   8.018  0.0755 -2.0051  0.4061
36424SOL     OW14082   5.815   7.151   9.654  0.1705 -0.0982  0.1459
36424SOL    HW114083   5.885   7.087   9.644  1.4153  1.3136 -0.6253
36424SOL    HW214084   5.819   7.178   9.746 -0.7682 -1.5088  0.6415
36425SOL     OW14085   0.846   1.996   4.396  0.3081  0.4029  0.0078
36425SOL    HW114086   0.751   1.985   4.391  0.2648  0.0687  1.3352
36425SOL    HW214087   0.867   1.982   4.488  1.7464 -0.2979 -0.4047
36426SOL     OW14088   0.847  10.465   7.309  0.3799 -0.0270 -0.7422
36426SOL    HW114089   0.796  10.529   7.258  1.2188 -0.2788 -1.9379
36426SOL    HW214090   0.801  10.459   7.393 -0.4596  1.1702 -1.0884
36427SOL     OW14091   3.456   9.048   0.679 -0.1620  0.0702 -0.1778
36427SOL    HW114092   3.366   9.018   0.665  0.8134 -2.3393 -1.7500
36427SOL    HW214093   3.492   9.057   0.591  1.1506  1.0799  0.4329
36428SOL     OW14094  12.310   7.088   6.660 -0.4527 -0.0040  0.0516
36428SOL    HW114095  12.318   7.183   6.653 -2.5145  0.1926 -0.2105
36428SOL    HW214096  12.339   7.056   6.574  0.3242  0.3553  0.1661
36429SOL     OW14097   6.909   9.599   2.816 -0.0501 -0.0405  0.0528
36429SOL    HW114098   6.964   9.536   2.769 -0.4184 -0.0704 -0.3344
36429SOL    HW214099   6.962   9.623   2.893  0.3998 -0.2605 -0.1835
36430SOL     OW14100   6.875   3.328   4.630 -0.2070  0.8195 -0.2323
36430SOL    HW114101   6.948   3.387   4.615  1.6391 -0.9540  1.2237
36430SOL    HW214102   6.898   3.281   4.711 -3.1227  0.4036  0.4792
36431SOL     OW14103   5.061   3.845  11.090  0.0015 -0.3793 -0.4519
36431SOL    HW114104   5.119   3.919  11.110 -1.2894  0.3845  0.6700
36431SOL    HW214105   5.054   3.845  10.995  0.7950  0.3282 -0.5273
36432SOL     OW14106   6.003   2.286   8.315  0.4786 -0.1550 -0.8356
36432SOL    HW114107   5.946   2.351   8.356  0.3209 -0.9481  0.2488
36432SOL    HW214108   5.944   2.232   8.262  0.1647 -1.0804  0.4195
36433SOL     OW14109   4.753   5.289   8.762  0.3639  0.5501  0.2965
36433SOL    HW114110   4.786   5.379   8.763 -1.4877  1.3724 -2.3668
36433SOL    HW214111   4.787   5.251   8.682 -3.0081  0.7313 -1.4218
36434SOL     OW14112   8.554   8.989   7.496  0.2109 -0.0342  0.2034
36434SOL    HW114113   8.545   8.993   7.591 -0.8840  0.9354  0.0885
36434SOL    HW214114   8.484   8.930   7.468  0.4740 -0.2487  0.0015
36435SOL     OW14115  11.890   9.653   6.893  0.5807  0.1524  0.6995
36435SOL    HW114116  11.955   9.593   6.929 -0.5347 -1.2445  0.4861
36435SOL    HW214117  11.860   9.705   6.967  0.6240 -0.4799  1.1648
36436SOL     OW14118  10.755   5.208   3.497 -0.2996 -0.0093  0.3381
36436SOL    HW114119  10.749   5.303   3.490 -1.2069 -0.0791  0.0644
36436SOL    HW214120  10.665   5.179   3.506 -0.0773 -0.8986 -0.2171
36437SOL     OW14121   0.139   7.834   0.480  0.0141  0.3744 -0.7997
36437SOL    HW114122   0.161   7.912   0.532  0.5061  0.2005 -0.7373
36437SOL    HW214123   0.223   7.791   0.466 -0.1787  0.1613 -1.3299
36438SOL     OW14124   7.992   4.330   6.001  0.1698  0.4970  0.2971
36438SOL    HW114125   7.910   4.323   6.050  1.1892 -3.6228  1.8521
36438SOL    HW214126   7.966   4.328   5.909 -1.5017  0.0557  0.7553
36439SOL     OW14127  12.174  11.851   2.289 -0.0331  0.4794 -0.0651
36439SOL    HW114128  12.102  11.881   2.234  0.1113 -1.2742 -1.2989
36439SOL    HW214129  12.214  11.779   2.239  0.8000 -0.4539  1.8425
36440SOL     OW14130   1.881   4.997   5.941 -0.3453 -0.1325  0.0475
36440SOL    HW114131   1.810   5.060   5.956  1.4306  3.0256 -3.4147
36440SOL    HW214132   1.904   5.008   5.849  3.1589 -2.6570  0.4465
36441SOL     OW14133  12.313   1.057   7.413  0.3627 -0.4850 -0.3631
36441SOL    HW114134  12.307   1.152   7.399 -1.4017 -0.5342 -0.1574
36441SOL    HW214135  12.231   1.022   7.377  0.7027 -1.8544  0.1271
36442SOL     OW14136   4.262   8.424   1.703 -0.5530  0.6106 -0.3276
36442SOL    HW114137   4.183   8.445   1.752 -0.2869  2.2743 -0.5213
36442SOL    HW214138   4.241   8.448   1.613  0.1939  1.2443 -0.3545
36443SOL     OW14139   9.408   2.021   5.589 -1.0208  0.3295 -0.0416
36443SOL    HW114140   9.459   2.033   5.669 -2.0908  0.1069  0.7027
36443SOL    HW214141   9.456   1.955   5.539 -0.6766 -0.0048  0.7143
36444SOL     OW14142   3.255   9.242  10.308 -0.2898 -0.3008 -0.2527
36444SOL    HW114143   3.324   9.305  10.325  0.6873 -1.6691  1.0786
36444SOL    HW214144   3.301   9.162  10.281 -1.4412 -0.7282 -1.0426
36445SOL     OW14145  10.140   8.675   0.510  0.2712  0.4918 -0.0570
36445SOL    HW114146  10.184   8.731   0.574  2.2990 -0.3445 -0.6402
36445SOL    HW214147  10.084   8.734   0.461  0.4671  1.5590  0.9476
36446SOL     OW14148   0.339   1.218   4.707 -0.0193 -0.1320 -0.3734
36446SOL    HW114149   0.323   1.311   4.691  0.4615 -0.1993 -1.3198
36446SOL    HW214150   0.262   1.189   4.754  0.1739  0.9190  0.6417
36447SOL     OW14151   5.212   6.972   3.047  0.4837  0.1715  0.3201
36447SOL    HW114152   5.271   7.046   3.062  0.9331  0.0570 -0.7635
36447SOL    HW214153   5.234   6.942   2.958 -1.6277  0.5130 -0.3726
36448SOL     OW14154   1.435   4.031   0.528  0.4386 -0.1251  0.6610
36448SOL    HW114155   1.477   4.064   0.607  3.5742 -0.3478 -0.7855
36448SOL    HW214156   1.420   3.938   0.545  0.7521 -0.0977  1.0918
36449SOL     OW14157   6.514   4.625   2.339  0.3248  0.2954 -0.0571
36449SOL    HW114158   6.569   4.619   2.261  0.7437  0.5812  0.2165
36449SOL    HW214159   6.468   4.541   2.343  1.8214 -0.5240  0.5292
36450SOL     OW14160   8.851   9.315   0.730 -0.4143 -0.5172  0.1629
36450SOL    HW114161   8.871   9.230   0.771 -0.9460 -0.8405 -0.2367
36450SOL    HW214162   8.918   9.327   0.664  0.0697 -0.2953  0.6880
36451SOL     OW14163   1.214   4.296   6.057  0.4564  0.2459 -0.4733
36451SOL    HW114164   1.177   4.381   6.080 -1.3543 -0.6468  0.0819
36451SOL    HW214165   1.179   4.278   5.969  1.6115  0.4641 -1.0047
36452SOL     OW14166   0.136  11.165   1.357  0.0683 -0.1235  0.1784
36452SOL    HW114167   0.146  11.246   1.407 -2.4023 -0.0762  0.7365
36452SOL    HW214168   0.225  11.131   1.348  0.8632  1.0822  2.5638
36453SOL     OW14169   0.640   8.569   2.735  0.1894 -0.6889  0.6973
36453SOL    HW114170   0.645   8.632   2.664  0.1311 -0.0205  1.2746
36453SOL    HW214171   0.566   8.598   2.788 -0.5991 -1.9420  0.3192
36454SOL     OW14172   8.624   2.983   7.303 -0.0941 -0.2508  0.2832
36454SOL    HW114173   8.558   2.975   7.371  1.0081 -1.1117  1.2898
36454SOL    HW214174   8.663   3.069   7.317 -0.9392  0.2454 -0.2927
36455SOL     OW14175   0.966   1.647   3.410 -0.0843 -0.1950 -0.3942
36455SOL    HW114176   0.999   1.715   3.470 -0.4725  0.4984 -0.9463
36455SOL    HW214177   0.873   1.668   3.400 -0.5255 -1.6293  0.4924
36456SOL     OW14178   6.042   2.782   4.534 -0.4036  0.0388  0.1717
36456SOL    HW114179   5.964   2.743   4.573 -1.1477  1.6024  0.2876
36456SOL    HW214180   6.087   2.823   4.607  0.4123 -0.6240  0.0590
36457SOL     OW14181  12.602   1.831   7.230  0.5868  0.0773  0.2648
36457SOL    HW114182  12.508   1.845   7.245  0.4677  0.0959 -0.4520
36457SOL    HW214183  12.636   1.802   7.315  0.3792  2.3099  1.1736
36458SOL     OW14184  11.864  11.872   4.019  0.0692  0.1063  0.4381
36458SOL    HW114185  11.792  11.901   3.962 -0.0324  0.6018  0.8140
36458SOL    HW214186  11.924  11.827   3.960 -0.7920 -0.7767  0.1964
36459SOL     OW14187   2.727   1.949   8.596 -0.2543  0.2056 -0.2792
36459SOL    HW114188   2.658   1.997   8.551 -0.6928 -1.0693 -1.0161
36459SOL    HW214189   2.712   1.857   8.574 -2.0371 -0.9472  4.4406
36460SOL     OW14190   2.320   5.079   8.396 -0.5633 -0.4624 -0.1674
36460SOL    HW114191   2.321   5.121   8.309 -0.7487 -0.2067 -0.0459
36460SOL    HW214192   2.382   5.006   8.388 -0.0818 -0.0385 -0.3168
36461SOL     OW14193   8.444  12.582   0.507  0.2835 -0.1072  0.2934
36461SOL    HW114194   8.509  12.585   0.436  2.0367 -1.1731  1.7378
36461SOL    HW214195   8.371  12.532   0.471  1.7926 -1.9949 -0.3483
36462SOL     OW14196   5.044   7.437   4.147  0.4066 -0.3897 -0.0257
36462SOL    HW114197   4.986   7.448   4.072 -0.8034 -1.5542  0.6951
36462SOL    HW214198   5.088   7.354   4.132  1.2414  0.0667 -0.1388
36463SOL     OW14199   3.864   0.494  12.294  0.2109  0.2388 -0.3100
36463SOL    HW114200   3.823   0.480  12.209 -0.9851  4.1223 -0.5859
36463SOL    HW214201   3.791   0.493  12.356  0.7158  0.0022  0.2911
36464SOL     OW14202   4.582   0.727   9.629 -0.1518 -0.1831 -0.1413
36464SOL    HW114203   4.646   0.749   9.696  1.0757 -0.7062 -1.1128
36464SOL    HW214204   4.554   0.638   9.650 -0.4059 -0.0350  0.1567
36465SOL     OW14205   8.203   8.341   8.903  0.2978  0.4462 -0.0106
36465SOL    HW114206   8.247   8.356   8.986  0.5976  3.7019 -0.6271
36465SOL    HW214207   8.274   8.338   8.838 -0.0234 -0.6494 -0.3334
36466SOL     OW14208   2.460   1.271  10.139 -0.5004  0.0947 -0.2118
36466SOL    HW114209   2.431   1.245  10.226  0.1044  0.5255  0.1285
36466SOL    HW214210   2.553   1.248  10.137 -1.1129 -2.7688 -1.8486
36467SOL     OW14211   1.428   1.321  11.021 -0.2709  0.9031  0.7151
36467SOL    HW114212   1.395   1.307  10.932  1.5138 -0.7067  0.2509
36467SOL    HW214213   1.405   1.412  11.041 -0.7156  1.2991 -1.3814
36468SOL     OW14214  10.054   5.887   0.478 -0.0437  0.3592  0.2076
36468SOL    HW114215  10.103   5.812   0.444 -0.5656 -0.2907  0.8558
36468SOL    HW214216  10.121   5.947   0.511  0.3267 -0.6897  1.4352
36469SOL     OW14217   5.201   2.082   8.046 -0.0884  0.0644 -0.3079
36469SOL    HW114218   5.284   2.117   8.079 -0.8689  1.9613 -0.2308
36469SOL    HW214219   5.192   1.997   8.090  1.2844  0.2999  0.4968
36470SOL     OW14220   6.183  11.650   0.865  0.7266  0.1095 -0.3507
36470SOL    HW114221   6.254  11.589   0.885  0.0221 -1.5094 -2.3698
36470SOL    HW214222   6.204  11.683   0.777 -1.1830 -0.7680 -1.2015
36471SOL     OW14223   4.452   8.951   0.346 -0.7890  0.5106  0.0214
36471SOL    HW114224   4.381   8.956   0.410  0.4054  3.7011  1.3408
36471SOL    HW214225   4.527   8.988   0.392  1.5321 -1.7748 -1.6538
36472SOL     OW14226   0.746  11.697   2.142  0.0265  0.0327 -0.1893
36472SOL    HW114227   0.720  11.777   2.187  0.9537  0.3619 -0.2027
36472SOL    HW214228   0.766  11.725   2.053  2.6067  0.2671  0.3849
36473SOL     OW14229   8.472  11.969   2.408  0.2986  0.1325  0.2965
36473SOL    HW114230   8.518  11.910   2.468  0.9467  0.2152 -0.1123
36473SOL    HW214231   8.399  11.916   2.374  1.4630 -0.7975 -0.8456
36474SOL     OW14232  11.467   6.573  11.918 -0.3308  0.0984  0.0408
36474SOL    HW114233  11.414   6.632  11.970 -2.2917 -1.2730 -0.3020
36474SOL    HW214234  11.452   6.486  11.956  1.2262 -0.4298 -0.4450
36475SOL     OW14235   6.226   4.510   3.949  0.1959 -0.0784 -0.5566
36475SOL    HW114236   6.186   4.573   3.889 -0.9902  0.5325  0.8190
36475SOL    HW214237   6.169   4.512   4.026  0.0249 -2.9436 -0.5136
36476SOL     OW14238   7.107   6.276  11.467  0.7187  0.6325  0.1973
36476SOL    HW114239   7.086   6.297  11.558 -1.2668  0.0887 -0.0923
36476SOL    HW214240   7.178   6.336  11.445 -0.2991  2.3928  1.4163
36477SOL     OW14241   1.509   2.590   6.826 -0.2777  0.3552 -0.4236
36477SOL    HW114242   1.468   2.672   6.853  0.4285  1.5686 -2.8080
36477SOL    HW214243   1.437   2.538   6.791 -0.8926 -0.5260  1.9046
36478SOL     OW14244   2.470  11.446   0.347  0.2375  0.4929 -0.1048
36478SOL    HW114245   2.409  11.445   0.420 -0.0579 -1.7105 -0.3129
36478SOL    HW214246   2.415  11.458   0.269  0.1379 -0.5863 -0.2166
36479SOL     OW14247  11.683  11.124   1.458 -0.4353  0.0639 -0.1678
36479SOL    HW114248  11.714  11.035   1.439 -1.5235 -0.9148  2.2563
36479SOL    HW214249  11.763  11.174   1.474  0.2833 -0.0507 -2.8027
36480SOL     OW14250   3.202  11.050  10.666 -0.0030 -0.5861  0.6653
36480SOL    HW114251   3.213  10.978  10.603 -2.6231  1.5965 -2.6127
36480SOL    HW214252   3.111  11.044  10.694 -0.2072  1.3009  0.5150
36481SOL     OW14253   3.026  12.527   8.885 -0.4920  0.0316 -0.6140
36481SOL    HW114254   3.050  12.577   8.807  1.0715 -0.8614 -0.7176
36481SOL    HW214255   2.951  12.474   8.857 -0.9743  0.8931 -1.0236
36482SOL     OW14256   9.672   3.126   0.666  0.0079 -0.1298  0.4458
36482SOL    HW114257   9.660   3.052   0.608  1.6266 -0.8034  0.9175
36482SOL    HW214258   9.604   3.189   0.640 -0.5812 -1.2440 -0.7863
36483SOL     OW14259   8.577   0.517   4.358 -0.1166 -0.2814 -0.0564
36483SOL    HW114260   8.618   0.450   4.304  0.9849  0.0720  0.2978
36483SOL    HW214261   8.483   0.504   4.346  0.0908 -0.8445 -1.2535
36484SOL     OW14262   8.259   5.612   0.904  0.4457 -0.1849  0.2569
36484SOL    HW114263   8.193   5.567   0.852  0.3237  1.7061 -1.3299
36484SOL    HW214264   8.342   5.592   0.862  0.6160 -0.4708  0.7133
36485SOL     OW14265   9.505  11.128  10.376 -0.3267 -0.5576 -0.7015
36485SOL    HW114266   9.469  11.207  10.337  0.3296  0.8505  1.3734
36485SOL    HW214267   9.492  11.140  10.470  0.7579 -2.4342 -0.2611
36486SOL     OW14268   4.877   7.515   2.140 -0.4599  0.2256  0.7030
36486SOL    HW114269   4.838   7.481   2.221 -1.7927  2.1789  0.9451
36486SOL    HW214270   4.803   7.522   2.080 -0.0240  1.5314  0.2968
36487SOL     OW14271   3.913   3.840  12.477  0.0197 -0.2554  0.0970
36487SOL    HW114272   3.832   3.798  12.507  0.1816  0.0732  1.0191
36487SOL    HW214273   3.982   3.799  12.530  0.2330  0.8042  0.6617
36488SOL     OW14274   3.951  12.263  11.948 -0.6203 -0.0849 -0.6596
36488SOL    HW114275   3.964  12.354  11.973 -0.3136 -0.7089  1.6079
36488SOL    HW214276   3.871  12.264  11.895  0.1558  1.6609 -1.8915
36489SOL     OW14277  12.077  11.407  10.725  0.5037  0.5835  0.2615
36489SOL    HW114278  12.157  11.451  10.695  1.1432 -0.1052  0.9105
36489SOL    HW214279  12.013  11.477  10.735  1.0230  1.1491 -0.2738
36490SOL     OW14280   5.257   1.098   9.824  0.0725 -0.0176  0.3573
36490SOL    HW114281   5.329   1.078   9.764 -0.5683 -0.4041 -0.2989
36490SOL    HW214282   5.205   1.164   9.779 -1.4971 -1.6916 -0.4220
36491SOL     OW14283   3.652   3.036   5.376  0.0763 -0.4013  0.1882
36491SOL    HW114284   3.722   3.091   5.340  0.7085 -0.4241  1.3484
36491SOL    HW214285   3.696   2.956   5.403 -0.1423  0.0904  2.1336
36492SOL     OW14286   8.226   8.105   3.402 -0.2104  0.1096 -0.3799
36492SOL    HW114287   8.314   8.071   3.386  0.6939  2.0949  0.0767
36492SOL    HW214288   8.181   8.097   3.318  0.1497 -1.5717 -0.4383
36493SOL     OW14289  10.751   7.030   2.034  0.7231  0.3122  0.2512
36493SOL    HW114290  10.682   7.097   2.030 -0.2643 -0.6338  0.6787
36493SOL    HW214291  10.792   7.043   2.120 -0.3463 -0.4175  0.9099
36494SOL     OW14292   0.471  12.396  11.072 -0.3543 -0.2766 -0.1153
36494SOL    HW114293   0.556  12.364  11.042  0.1006  0.3658  0.4444
36494SOL    HW214294   0.459  12.354  11.158  1.5754  3.0255  2.0101
36495SOL     OW14295   0.063  12.363   3.760  0.0205  0.3035 -0.1712
36495SOL    HW114296   0.112  12.301   3.705  1.7074  0.8236  0.6833
36495SOL    HW214297   0.031  12.311   3.833  1.7382  0.4411  0.7337
36496SOL     OW14298   8.182   6.910   5.576 -0.0255 -0.3670 -0.0049
36496SOL    HW114299   8.134   6.958   5.642 -0.7146 -2.1803  0.8952
36496SOL    HW214300   8.268   6.893   5.616  0.4054  0.5240 -0.5253
36497SOL     OW14301   8.749   3.047   0.936  0.1915 -0.3097 -0.1510
36497SOL    HW114302   8.733   3.096   1.017  0.3569  0.0132 -0.3092
36497SOL    HW214303   8.721   2.958   0.956  1.9123 -0.6809  0.8716
36498SOL     OW14304   0.051   9.853   4.614 -0.6122 -0.3481 -0.0307
36498SOL    HW114305  -0.026   9.805   4.584 -1.1687  1.1820 -1.1483
36498SOL    HW214306   0.085   9.800   4.687 -2.0992 -1.5816 -0.1809
36499SOL     OW14307   0.750   2.512   9.705  1.0393 -0.2124 -0.3481
36499SOL    HW114308   0.692   2.521   9.781 -1.1334 -0.8913 -1.8303
36499SOL    HW214309   0.740   2.594   9.657  3.0448  0.5574  0.4407
36500SOL     OW14310  11.849   0.113   3.848  0.1551 -0.2811 -0.2023
36500SOL    HW114311  11.895   0.183   3.895  0.0170  0.1488 -0.7027
36500SOL    HW214312  11.757   0.125   3.873 -0.0186  0.3974 -1.1435
36501SOL     OW14313   9.875  10.992   7.196  0.1103  0.2597 -0.4890
36501SOL    HW114314   9.838  11.038   7.271  0.5770 -0.6183  0.3046
36501SOL    HW214315   9.961  11.032   7.182  1.8522 -2.1716  2.0869
36502SOL     OW14316   6.950   6.328   8.158 -0.7020  0.0523 -0.6209
36502SOL    HW114317   6.886   6.375   8.105 -1.3600 -0.3031 -0.1601
36502SOL    HW214318   6.958   6.242   8.118 -1.9023 -0.5482  0.3633
36503SOL     OW14319   5.058  10.777  10.616 -0.0454  0.2260  0.0335
36503SOL    HW114320   5.057  10.827  10.698 -1.1748  0.2028  0.0562
36503SOL    HW214321   5.096  10.693  10.640 -0.7460  0.0678  0.6517
36504SOL     OW14322  10.658   9.384   8.372  0.0786  0.1869 -0.3252
36504SOL    HW114323  10.608   9.428   8.304  0.7024  0.2314 -0.7599
36504SOL    HW214324  10.641   9.436   8.451 -0.4992  0.2418 -0.4830
36505SOL     OW14325   0.482  11.466   5.379  0.0405 -0.0252 -0.6610
36505SOL    HW114326   0.559  11.416   5.404  0.4661  0.8098 -0.2682
36505SOL    HW214327   0.412  11.430   5.435  0.2154 -0.5457 -0.7715
36506SOL     OW14328   9.736   7.014   9.412 -0.0824 -0.2173 -0.0331
36506SOL    HW114329   9.687   6.932   9.399 -1.0613  0.0366  1.7008
36506SOL    HW214330   9.694   7.076   9.353 -2.2570  0.1086  1.7345
36507SOL     OW14331   8.657   2.221   4.614  0.0164  0.1934 -0.4088
36507SOL    HW114332   8.588   2.286   4.595  0.0275  0.1834 -0.4844
36507SOL    HW214333   8.680   2.237   4.705 -1.2102 -0.8516  0.1183
36508SOL     OW14334   4.907   4.030   2.963  0.3795 -0.4894 -0.3013
36508SOL    HW114335   4.945   3.995   3.043  1.9720  1.9576  0.1419
36508SOL    HW214336   4.982   4.044   2.905 -0.3005  0.9395 -0.8872
36509SOL     OW14337   6.436   9.184  10.687 -0.6345 -0.1892  0.2190
36509SOL    HW114338   6.490   9.108  10.710 -0.9317 -0.2919  0.5871
36509SOL    HW214339   6.470   9.254  10.742 -0.8991 -0.2634  0.4790
36510SOL     OW14340  12.545   7.952  10.583 -0.4340 -0.6445  0.3618
36510SOL    HW114341  12.541   7.992  10.496 -1.7760 -1.6708 -0.0711
36510SOL    HW214342  12.626   7.901  10.581 -0.4213 -0.6102 -0.2540
36511SOL     OW14343  10.993   8.144   7.104  0.2575 -0.1771  0.0760
36511SOL    HW114344  10.932   8.086   7.150  1.7087 -0.6067  1.5668
36511SOL    HW214345  10.938   8.215   7.071 -1.1600 -0.9683  0.6118
36512SOL     OW14346   5.738   4.293   7.892 -0.4167 -0.6563  0.5313
36512SOL    HW114347   5.643   4.305   7.898 -0.3243 -0.2384  1.2804
36512SOL    HW214348   5.750   4.237   7.815 -1.2568 -0.5855  0.3340
36513SOL     OW14349   0.700  12.450   6.725  0.2997  0.2823 -0.1798
36513SOL    HW114350   0.778  12.504   6.741 -0.0888  1.2073 -1.3046
36513SOL    HW214351   0.722  12.365   6.763  1.7688  0.5949 -0.2681
36514SOL     OW14352   9.623  12.193   0.056  0.1378 -0.1187 -0.1582
36514SOL    HW114353   9.684  12.188  -0.018 -2.0038 -0.8630 -1.9791
36514SOL    HW214354   9.585  12.280   0.050 -1.3227 -0.7737 -1.0964
36515SOL     OW14355   9.088   2.192   8.200 -0.1105 -0.3986  0.0546
36515SOL    HW114356   9.083   2.165   8.108 -1.3334  0.0901 -0.0296
36515SOL    HW214357   9.026   2.136   8.246  1.2241 -1.3450  0.7883
36516SOL     OW14358   0.844   1.722  11.316  0.0391  0.3346  0.0301
36516SOL    HW114359   0.895   1.802  11.304  0.0567  0.4626  0.9319
36516SOL    HW214360   0.875   1.686  11.399 -1.7711  0.7450  0.9297
36517SOL     OW14361  11.309   4.046   8.382 -0.3476  0.0453  0.2568
36517SOL    HW114362  11.369   4.037   8.456  0.4544 -1.3764 -0.5333
36517SOL    HW214363  11.232   3.995   8.407 -0.9520  1.2480  0.9477
36518SOL     OW14364  10.393  12.171  12.117 -0.3013  0.3645 -0.0855
36518SOL    HW114365  10.487  12.155  12.121 -0.1524  1.1963  0.0002
36518SOL    HW214366  10.356  12.091  12.080  0.4550  0.0874 -0.2573
36519SOL     OW14367   1.982   2.624   4.938 -0.1827 -0.4811  0.1955
36519SOL    HW114368   1.982   2.561   4.866  1.0150  0.5141 -0.7209
36519SOL    HW214369   2.018   2.704   4.900 -1.2034  0.6241  1.4587
36520SOL     OW14370   8.606   3.095   6.956 -0.3408 -0.6769  0.1638
36520SOL    HW114371   8.649   3.172   6.994 -2.4686  1.1284 -0.8208
36520SOL    HW214372   8.551   3.061   7.027 -1.0894  0.1048 -0.0246
36521SOL     OW14373   4.956   1.888   1.944  0.0703 -0.6252 -0.3712
36521SOL    HW114374   4.992   1.860   1.859  0.9721 -0.6600  0.0032
36521SOL    HW214375   4.897   1.960   1.923  1.7138  0.6471 -0.8855
36522SOL     OW14376   9.141   5.548   2.576  0.1829  0.1870  0.3470
36522SOL    HW114377   9.079   5.581   2.641  1.5541  0.2428  1.6784
36522SOL    HW214378   9.190   5.626   2.548 -0.4698  0.1873 -0.8851
36523SOL     OW14379   6.106   0.219  11.176  0.2580 -0.5209 -0.8358
36523SOL    HW114380   6.103   0.184  11.265 -2.0797 -1.2617 -1.1395
36523SOL    HW214381   6.092   0.313  11.186  2.7887 -0.1119 -0.2990
36524SOL     OW14382  12.499   3.562   9.712  0.4755  0.1986  0.5239
36524SOL    HW114383  12.585   3.522   9.717  0.8863  0.6841 -1.4747
36524SOL    HW214384  12.490   3.587   9.620 -2.3983 -1.1944  0.2875
36525SOL     OW14385   8.984   3.577   5.817  0.2875 -0.4369 -0.2249
36525SOL    HW114386   8.986   3.551   5.725 -0.3378 -0.0815 -0.3410
36525SOL    HW214387   9.073   3.559   5.849  0.9481  0.7805 -1.2808
36526SOL     OW14388   8.668   5.196  12.131  0.3494  0.6613  0.7853
36526SOL    HW114389   8.754   5.238  12.134  0.3548  0.9278 -1.3676
36526SOL    HW214390   8.631   5.212  12.218  1.4505  2.7914  0.9492
36527SOL     OW14391  11.970   0.476   2.209 -0.2079  0.3593 -0.8737
36527SOL    HW114392  11.935   0.564   2.196  0.2692  1.0700  1.9067
36527SOL    HW214393  11.894   0.423   2.234 -0.2241  0.3943 -0.8496
36528SOL     OW14394   4.846   9.096   3.773  0.6374 -0.6896  0.0565
36528SOL    HW114395   4.915   9.162   3.763 -1.6502  1.6573 -1.2889
36528SOL    HW214396   4.832   9.063   3.684 -0.7464 -0.2660  0.1036
36529SOL     OW14397   3.607   9.334   4.381 -0.0504 -0.4215 -0.0111
36529SOL    HW114398   3.570   9.422   4.370  0.9571  0.2702  1.7451
36529SOL    HW214399   3.701   9.348   4.381  0.2385 -1.8913 -2.2967
36530SOL     OW14400   0.168   8.391   8.170  0.9931 -0.2918 -0.7503
36530SOL    HW114401   0.218   8.402   8.089  3.2629 -2.3839  0.2428
36530SOL    HW214402   0.166   8.479   8.209  1.3367  0.4069 -2.2193
36531SOL     OW14403   8.026   2.573   8.522  0.2936 -0.2873  0.3611
36531SOL    HW114404   7.967   2.644   8.497 -1.0858 -1.3721  0.4053
36531SOL    HW214405   8.095   2.616   8.573 -0.5006  1.0088  0.3934
36532SOL     OW14406   0.385   8.144   7.755 -0.5633 -0.1597 -0.1505
36532SOL    HW114407   0.318   8.084   7.724 -1.8600  1.0616  0.2051
36532SOL    HW214408   0.380   8.139   7.850  1.4174 -1.7075 -0.0373
36533SOL     OW14409   9.289   6.257   0.831 -0.0442 -0.3007 -0.1310
36533SOL    HW114410   9.232   6.220   0.763  0.6847 -1.8814  0.0728
36533SOL    HW214411   9.292   6.190   0.899 -0.1338  0.9270  1.1436
36534SOL     OW14412   1.829   7.645   0.026 -0.0848  0.5138 -0.1831
36534SOL    HW114413   1.887   7.570   0.012 -0.6162  0.3289 -1.5420
36534SOL    HW214414   1.801   7.670  -0.062 -0.7120  1.6783  0.3327
36535SOL     OW14415   7.099  11.552   9.207 -0.5624 -0.0177 -0.6797
36535SOL    HW114416   7.149  11.494   9.150 -1.4282 -1.0775 -0.3844
36535SOL    HW214417   7.014  11.509   9.218 -1.0307  1.0219  0.0105
36536SOL     OW14418   9.052  11.680   8.626  0.0428  0.4120  0.0449
36536SOL    HW114419   9.069  11.693   8.532  0.8700 -1.3398 -0.1008
36536SOL    HW214420   8.972  11.626   8.627  0.2993  0.0318  0.3123
36537SOL     OW14421   9.967   6.473   0.065  0.1142 -0.1542 -0.5525
36537SOL    HW114422   9.952   6.414   0.138  1.4281 -0.1764 -0.2861
36537SOL    HW214423   9.882   6.513   0.049  0.2515  1.7547  2.6331
36538SOL     OW14424   4.912   5.566  10.663  0.7431 -0.1462 -0.8683
36538SOL    HW114425   4.918   5.500  10.732 -0.2606 -0.1790 -0.7997
36538SOL    HW214426   4.931   5.518  10.583 -0.3115 -0.6030 -0.8547
36539SOL     OW14427   8.678   6.604   7.003 -0.3620 -0.0038  0.4204
36539SOL    HW114428   8.738   6.665   7.046  1.4296 -1.4617  0.0714
36539SOL    HW214429   8.734   6.538   6.963 -2.0761 -0.1016 -2.0479
36540SOL     OW14430   3.948  10.549   8.204  0.1558 -0.4088  0.0103
36540SOL    HW114431   3.910  10.549   8.116 -0.5329 -1.1913  0.2928
36540SOL    HW214432   4.042  10.546   8.190  0.3238  3.4923 -0.7488
36541SOL     OW14433   9.606   9.816   7.436  0.0113  0.6195  0.2125
36541SOL    HW114434   9.638   9.726   7.426  1.1499  0.5788  3.1439
36541SOL    HW214435   9.512   9.807   7.445  0.1673 -0.3968  1.1117
36542SOL     OW14436   6.830   3.099   9.161  0.5846  0.2902 -0.0899
36542SOL    HW114437   6.897   3.034   9.137  0.9827 -0.6517  3.1035
36542SOL    HW214438   6.847   3.118   9.253 -0.8806  3.4043 -0.3364
36543SOL     OW14439   9.260   0.849   2.608  0.1510  0.0719  0.2437
36543SOL    HW114440   9.314   0.815   2.537  1.3066  0.1341  1.0737
36543SOL    HW214441   9.239   0.772   2.661 -0.3524  0.0918  0.0792
36544SOL     OW14442   6.319   1.613   4.986 -0.2075 -0.1367 -0.2038
36544SOL    HW114443   6.415   1.608   4.991 -0.2491 -0.1014  0.8768
36544SOL    HW214444   6.302   1.664   4.907  0.6317 -1.2197 -1.1011
36545SOL     OW14445   1.681   2.106   0.903 -0.6407 -0.9423 -0.4507
36545SOL    HW114446   1.631   2.185   0.919  0.4476  0.0364 -1.6844
36545SOL    HW214447   1.676   2.092   0.808  1.3448 -0.8124 -0.6257
36546SOL     OW14448   1.818   2.890   0.986  0.0757 -0.2261 -0.2117
36546SOL    HW114449   1.832   2.957   0.919  0.2537  1.7756  1.6723
36546SOL    HW214450   1.872   2.816   0.960  0.7513  0.7972 -1.8298
36547SOL     OW14451  11.572  12.270  10.945 -0.4106 -0.3584 -0.0234
36547SOL    HW114452  11.533  12.346  10.988  2.0551  1.3431 -0.5788
36547SOL    HW214453  11.570  12.293  10.852  0.4232 -0.9149 -0.1860
36548SOL     OW14454   3.094  10.561   5.743  0.1453  0.6218  0.6438
36548SOL    HW114455   3.006  10.565   5.707  0.0771 -2.4544  0.1412
36548SOL    HW214456   3.099  10.635   5.804 -1.8543  2.3560 -1.1406
36549SOL     OW14457   9.027   9.928   7.207 -0.2219 -0.2015  0.0954
36549SOL    HW114458   8.973   9.938   7.128  0.6784 -1.5030 -0.7313
36549SOL    HW214459   9.061  10.015   7.223  0.4675 -0.1034 -1.6461
36550SOL     OW14460   4.181   2.976   6.987  0.1697 -0.4004  0.0539
36550SOL    HW114461   4.236   2.939   7.056  1.0980 -0.3538 -0.6450
36550SOL    HW214462   4.182   3.070   7.003  0.4446 -0.3828 -0.0656
36551SOL     OW14463   1.900   6.996   6.691 -0.1420  0.1447  0.0788
36551SOL    HW114464   1.888   6.925   6.755 -0.1439 -0.7162 -0.8651
36551SOL    HW214465   1.954   7.060   6.737 -0.4941 -0.2653  1.0935
36552SOL     OW14466   7.754  12.034   4.969 -0.2612  0.0184  0.2465
36552SOL    HW114467   7.697  11.957   4.975  1.7803 -1.4832  1.8783
36552SOL    HW214468   7.842  11.998   4.960  0.5973  2.2347 -0.9623
36553SOL     OW14469  12.406   5.243   7.951  0.1882 -0.5041  0.9094
36553SOL    HW114470  12.482   5.299   7.939 -0.4931  0.3218  0.3008
36553SOL    HW214471  12.332   5.297   7.921 -0.4377 -1.9010 -0.1506
36554SOL     OW14472  11.859  10.550   0.447  0.1549  0.2944  0.4026
36554SOL    HW114473  11.802  10.483   0.408 -0.7504  1.0634  0.3612
36554SOL    HW214474  11.947  10.524   0.422 -0.2285 -0.5495 -0.1250
36555SOL     OW14475   7.555  10.829  11.124 -0.4299 -0.0470  0.6065
36555SOL    HW114476   7.600  10.869  11.198  0.0598 -0.3185  0.4639
36555SOL    HW214477   7.562  10.735  11.140  1.0428 -0.1805 -0.5360
36556SOL     OW14478   6.067  12.017   4.081 -0.1084 -1.0266 -0.6460
36556SOL    HW114479   6.037  12.052   4.165 -0.5929 -0.2530 -1.1300
36556SOL    HW214480   6.156  11.986   4.098  0.4824  0.7829 -0.2869
36557SOL     OW14481   3.707   8.541  11.930 -0.2778 -0.0114  0.5540
36557SOL    HW114482   3.795   8.507  11.943 -0.2574 -0.1302  0.1187
36557SOL    HW214483   3.690   8.595  12.007  0.8123  1.3628 -0.1253
36558SOL     OW14484   0.249   8.140   2.219  0.0543 -0.0652 -0.4591
36558SOL    HW114485   0.243   8.235   2.228 -1.6693 -0.1593 -0.4126
36558SOL    HW214486   0.200   8.106   2.294  0.6815 -0.9981 -0.4611
36559SOL     OW14487   7.141   2.682  11.256 -0.9437 -0.4410  0.6357
36559SOL    HW114488   7.091   2.625  11.315  2.8423 -1.9443  2.7462
36559SOL    HW214489   7.218   2.708  11.307  0.8002  1.1398 -2.5079
36560SOL     OW14490  10.632  12.176   7.965  0.4924  0.0010 -0.4220
36560SOL    HW114491  10.669  12.152   7.880 -0.6759  1.0757 -1.2683
36560SOL    HW214492  10.539  12.156   7.957  0.4612 -0.4626  0.8419
36561SOL     OW14493   4.244   4.062   4.916 -0.0303  0.8095 -0.6597
36561SOL    HW114494   4.301   3.995   4.952 -0.7080  0.2981 -0.5231
36561SOL    HW214495   4.278   4.078   4.828  0.8279  1.1216 -0.2805
36562SOL     OW14496   1.663   8.245   6.197 -0.0114 -0.5486  0.6854
36562SOL    HW114497   1.708   8.170   6.236  0.5590 -1.4254 -1.5065
36562SOL    HW214498   1.581   8.208   6.164 -0.4122  0.1342  0.9015
36563SOL     OW14499   6.832   8.610   5.226 -0.4814 -0.5424 -0.3822
36563SOL    HW114500   6.827   8.559   5.145 -1.2252  1.2978 -1.5653
36563SOL    HW214501   6.743   8.645   5.238  0.0016  0.5033  0.3306
36564SOL     OW14502   7.338   0.529   9.187 -0.0398 -0.3672  0.2118
36564SOL    HW114503   7.294   0.564   9.265  1.1386 -0.3055  0.8640
36564SOL    HW214504   7.390   0.602   9.154 -2.6075  0.5466 -2.3286
36565SOL     OW14505  12.561   9.390   6.847  0.2285  0.0059 -0.0416
36565SOL    HW114506  12.605   9.397   6.931 -0.9611 -1.0390  0.6953
36565SOL    HW214507  12.584   9.471   6.801  1.5960  0.1974  0.9267
36566SOL     OW14508   4.247   5.933   3.503  0.3273  0.3165 -0.5420
36566SOL    HW114509   4.269   5.846   3.535  1.2456  0.9675  0.7093
36566SOL    HW214510   4.177   5.963   3.561  0.2350  0.5322 -0.7638
36567SOL     OW14511   2.776   1.595   9.479 -0.1369  0.0957  0.8344
36567SOL    HW114512   2.744   1.665   9.536  2.4007  0.0861  2.4234
36567SOL    HW214513   2.869   1.587   9.501 -0.1225 -3.1559  0.0618
36568SOL     OW14514   6.184   2.380  11.424 -0.2264 -0.1373  0.5689
36568SOL    HW114515   6.121   2.445  11.393 -1.3560 -0.7748  1.4307
36568SOL    HW214516   6.263   2.396  11.372 -1.3265  0.2251 -1.0829
36569SOL     OW14517  11.778  10.736  11.239  0.1353 -1.2781  0.0332
36569SOL    HW114518  11.835  10.719  11.164 -0.0100 -0.8847 -0.1621
36569SOL    HW214519  11.835  10.720  11.315 -0.5251 -4.9365 -0.0230
36570SOL     OW14520   5.930   9.376   2.119  0.1357  0.2468  0.3798
36570SOL    HW114521   5.956   9.454   2.167 -2.5730  0.3628  1.8565
36570SOL    HW214522   5.866   9.407   2.055 -0.1582 -0.6035  0.2438
36571SOL     OW14523  11.150   1.554   4.921 -0.8503  0.2161 -0.0805
36571SOL    HW114524  11.217   1.504   4.874 -0.1508  1.5067 -0.5135
36571SOL    HW214525  11.175   1.547   5.013  0.3547  1.3171 -0.3009
36572SOL     OW14526   6.302   1.793   8.520 -0.0193 -0.5164 -0.1777
36572SOL    HW114527   6.260   1.709   8.503 -0.6955 -0.3238  0.4939
36572SOL    HW214528   6.291   1.807   8.614 -0.3474  0.5523 -0.3638
36573SOL     OW14529   8.869  12.191  12.171 -0.0836  0.6191  0.4929
36573SOL    HW114530   8.893  12.254  12.102 -0.5143  0.0015 -0.2449
36573SOL    HW214531   8.878  12.105  12.128 -2.5918  0.3033  0.4617
36574SOL     OW14532   7.723   0.780   9.896 -0.3320  0.1819 -0.3044
36574SOL    HW114533   7.634   0.756   9.871 -0.0772 -0.7712 -0.3279
36574SOL    HW214534   7.778   0.709   9.863  0.1878 -0.4187  1.6801
36575SOL     OW14535   8.388   6.791   0.370  1.0588 -0.2357  0.2186
36575SOL    HW114536   8.421   6.710   0.411 -0.1854 -0.1796  1.4389
36575SOL    HW214537   8.433   6.796   0.286  1.9919 -1.6141  0.5973
36576SOL     OW14538   4.890   9.123   9.759  0.4752  0.1808 -0.6299
36576SOL    HW114539   4.894   9.049   9.699  2.5076  1.7440 -2.5990
36576SOL    HW214540   4.978   9.129   9.795 -0.6217 -0.5516  2.4785
36577SOL     OW14541   6.285  12.425   2.961 -0.0236  0.0224  0.7779
36577SOL    HW114542   6.213  12.369   2.990 -0.4615  0.5854  0.7694
36577SOL    HW214543   6.364  12.373   2.981 -0.3424  0.0645  2.2528
36578SOL     OW14544  12.051   4.138   7.883  1.1250 -0.6052  0.2881
36578SOL    HW114545  12.054   4.201   7.812 -0.9662 -2.3799 -1.5300
36578SOL    HW214546  11.965   4.149   7.923  1.2051 -1.4678  0.7484
36579SOL     OW14547   6.165   9.140   9.400 -0.4411 -0.0945  0.2449
36579SOL    HW114548   6.249   9.116   9.362  0.1345  3.5339 -1.1767
36579SOL    HW214549   6.185   9.215   9.457 -2.4290 -0.6032  1.7562
36580SOL     OW14550   7.026   3.858   9.872 -0.0068  0.4303  0.1531
36580SOL    HW114551   7.013   3.942   9.828 -0.3304  1.5999  2.3345
36580SOL    HW214552   6.937   3.823   9.882  0.1761 -0.5398 -1.3449
36581SOL     OW14553   2.486   8.155   5.610 -0.1276 -0.4566 -0.0233
36581SOL    HW114554   2.542   8.078   5.617 -0.6811 -0.7623  1.2906
36581SOL    HW214555   2.400   8.126   5.640 -0.8849  0.1465 -1.5098
36582SOL     OW14556   0.553   7.468   4.284 -0.1921  0.2583 -0.3241
36582SOL    HW114557   0.555   7.545   4.341  0.9276  0.7603 -1.0043
36582SOL    HW214558   0.633   7.475   4.232 -1.4143  0.1097 -2.3244
36583SOL     OW14559  10.955   3.824   5.125 -0.1544  0.2285 -0.0993
36583SOL    HW114560  10.940   3.899   5.182 -1.5021  0.0112 -0.1302
36583SOL    HW214561  11.013   3.856   5.057  0.3485  0.8724  0.6121
36584SOL     OW14562   5.073   1.669   4.942 -0.1152  0.3693 -0.4798
36584SOL    HW114563   5.113   1.748   4.978  1.3282 -1.9120  3.5213
36584SOL    HW214564   4.983   1.671   4.974  0.2333 -0.0875  0.5565
36585SOL     OW14565   0.411   8.180   1.051  0.6383 -0.2502 -0.1800
36585SOL    HW114566   0.439   8.272   1.045  0.8965 -0.2135  1.2614
36585SOL    HW214567   0.322   8.185   1.086 -0.1410 -0.4877 -2.0476
36586SOL     OW14568   1.810   2.468   0.568 -0.1841  0.6841  0.3019
36586SOL    HW114569   1.829   2.456   0.475 -1.2632 -1.3386  0.2867
36586SOL    HW214570   1.893   2.446   0.611  0.2854  1.5105 -0.1456
36587SOL     OW14571   7.807   1.718   4.423 -0.3151 -0.4802 -0.1464
36587SOL    HW114572   7.786   1.806   4.452 -0.0660 -0.7543  0.9084
36587SOL    HW214573   7.805   1.665   4.503  0.8538 -1.1711 -0.5500
36588SOL     OW14574   2.903   6.535   7.625 -0.3669 -0.3708 -0.5791
36588SOL    HW114575   2.982   6.481   7.614  0.8498  1.2637 -0.3568
36588SOL    HW214576   2.900   6.553   7.718  0.4115  1.5198 -0.8722
36589SOL     OW14577   4.118   2.329   3.920 -0.2872 -0.2705  0.2527
36589SOL    HW114578   4.089   2.252   3.872  1.0185 -1.1993  0.8605
36589SOL    HW214579   4.155   2.293   4.001  1.3794  0.8739  0.0523
36590SOL     OW14580   3.577   2.195   0.263 -0.2051  0.0269 -0.3567
36590SOL    HW114581   3.607   2.104   0.273 -0.1280  0.0883 -0.0151
36590SOL    HW214582   3.586   2.213   0.169  1.0268  0.1022 -0.2427
36591SOL     OW14583   9.019   9.103   4.906 -0.1977  0.5987 -0.0242
36591SOL    HW114584   8.929   9.075   4.921  0.1225  0.7722  2.6661
36591SOL    HW214585   9.011   9.189   4.865 -1.1978 -0.1598 -1.5183
36592SOL     OW14586   0.874   8.158   4.794 -0.1166  0.2503  0.2212
36592SOL    HW114587   0.898   8.068   4.816 -0.2067  0.6349  2.0608
36592SOL    HW214588   0.790   8.150   4.749 -0.2588 -0.5669  0.6156
36593SOL     OW14589   0.341  12.120   8.981  0.4045  0.3608 -0.3066
36593SOL    HW114590   0.247  12.105   8.971  0.7311 -0.7837 -1.9882
36593SOL    HW214591   0.365  12.175   8.907  1.3633 -0.9261 -0.9919
36594SOL     OW14592   4.861   5.231  12.006 -0.2839  0.7121 -0.0694
36594SOL    HW114593   4.891   5.225  12.097  2.6431  0.6013 -0.9491
36594SOL    HW214594   4.865   5.141  11.974 -0.1652  0.9073 -0.6144
36595SOL     OW14595   2.185  10.787   4.469  0.3873  0.2065  0.1416
36595SOL    HW114596   2.229  10.727   4.410 -1.2496 -1.0560  0.1102
36595SOL    HW214597   2.227  10.871   4.455 -0.2991  0.1183 -3.2868
36596SOL     OW14598  12.314  11.233   9.475  0.6471  0.2958 -0.1512
36596SOL    HW114599  12.406  11.255   9.461 -0.0017  1.4582 -3.4092
36596SOL    HW214600  12.304  11.144   9.441  0.9244 -0.7335  2.2686
36597SOL     OW14601  11.865  12.601   4.212  0.5295  0.1783 -0.2269
36597SOL    HW114602  11.953  12.591   4.249  1.7400 -0.9305 -3.1149
36597SOL    HW214603  11.850  12.696   4.214  1.5679  0.3534  0.7356
36598SOL     OW14604   0.346   5.615   8.836 -0.0193 -0.2673 -0.4519
36598SOL    HW114605   0.429   5.619   8.884  0.4740 -0.4767 -1.2622
36598SOL    HW214606   0.337   5.522   8.813  0.1128 -0.0553 -1.3725
36599SOL     OW14607   8.269   5.152  12.240  0.1600 -0.7907  0.1781
36599SOL    HW114608   8.263   5.057  12.250  0.2111 -0.8954 -0.7113
36599SOL    HW214609   8.360   5.172  12.261 -0.1414 -0.7835  1.5150
36600SOL     OW14610   7.541  11.464   6.106 -0.3072  0.6744  0.0924
36600SOL    HW114611   7.559  11.381   6.061 -1.8795 -0.6037  1.6508
36600SOL    HW214612   7.628  11.497   6.130  0.3752 -1.9618  1.7858
36601SOL     OW14613   8.528  11.965  10.307  0.2108 -0.1175  0.1684
36601SOL    HW114614   8.564  12.052  10.293  0.7968 -0.3201  0.3624
36601SOL    HW214615   8.479  11.945  10.227  1.1537 -0.1265 -0.4135
36602SOL     OW14616   5.753  11.662  10.780 -0.5804 -0.4424 -0.3314
36602SOL    HW114617   5.675  11.714  10.763 -0.9602 -0.0415  2.1728
36602SOL    HW214618   5.826  11.724  10.768 -0.9093  0.1921  0.7768
36603SOL     OW14619   3.320   5.312   0.684  0.1575 -0.3678 -0.4496
36603SOL    HW114620   3.293   5.228   0.720  0.2587 -0.9017 -1.5773
36603SOL    HW214621   3.387   5.290   0.619 -0.1997  0.5286 -1.1425
36604SOL     OW14622  12.174   5.382   8.466 -0.2765  0.4015 -0.6410
36604SOL    HW114623  12.083   5.357   8.453 -0.3723 -0.2955  1.1757
36604SOL    HW214624  12.210   5.315   8.524  1.3251  0.8209 -1.0917
36605SOL     OW14625  11.535   3.046  10.550 -1.2469 -0.2785  0.2504
36605SOL    HW114626  11.467   3.089  10.603 -2.1875 -0.5698 -0.6775
36605SOL    HW214627  11.586   2.996  10.613 -0.0544  2.1880  1.3896
36606SOL     OW14628   9.235   2.768   6.951  0.1285  0.1474 -0.1651
36606SOL    HW114629   9.173   2.839   6.932 -0.5875 -0.6700 -0.9636
36606SOL    HW214630   9.295   2.769   6.876 -1.1231 -1.3911 -1.2457
36607SOL     OW14631   4.964   6.027  11.920  0.0733 -0.1600  0.1375
36607SOL    HW114632   4.868   6.023  11.920 -0.0478  1.2230  1.8635
36607SOL    HW214633   4.985   6.097  11.859 -0.0188 -0.2359  0.0170
36608SOL     OW14634   1.610   2.260  10.133  0.2336  0.1723 -0.4091
36608SOL    HW114635   1.609   2.276  10.038  1.0298 -0.2977 -0.5082
36608SOL    HW214636   1.528   2.298  10.164  0.4374  1.2757 -1.1351
36609SOL     OW14637   1.496   1.286  10.638  0.3856  0.1206  0.1611
36609SOL    HW114638   1.463   1.205  10.599 -2.0096  2.0348 -2.1036
36609SOL    HW214639   1.426   1.315  10.696  1.0831  0.7301  0.7140
36610SOL     OW14640   1.055  12.413  10.369 -0.3685 -0.3948 -0.1684
36610SOL    HW114641   1.020  12.501  10.353 -1.2897 -0.7004  0.1047
36610SOL    HW214642   1.116  12.398  10.297  0.2988  0.7263  0.1403
36611SOL     OW14643  10.728   4.869   1.659 -0.5037 -0.0590  0.2069
36611SOL    HW114644  10.648   4.890   1.706 -0.4385 -1.8068  1.1763
36611SOL    HW214645  10.732   4.934   1.588 -2.2198  0.6900  0.7500
36612SOL     OW14646   1.764   7.362   1.073  0.3157 -0.0853  0.0042
36612SOL    HW114647   1.785   7.305   1.147  1.4228  0.1744 -0.0893
36612SOL    HW214648   1.670   7.352   1.060  0.6069 -2.7165 -0.6620
36613SOL     OW14649   3.851   1.884   4.946  0.3903 -0.5633  0.4281
36613SOL    HW114650   3.942   1.896   4.974  0.5208  1.0081 -0.5651
36613SOL    HW214651   3.806   1.960   4.981 -0.2830 -0.6813 -0.1805
36614SOL     OW14652  12.561  10.979   0.563 -0.2470 -0.0943  0.0249
36614SOL    HW114653  12.520  10.931   0.634 -2.0885 -1.5705 -1.9080
36614SOL    HW214654  12.581  10.912   0.497  2.1528  1.0918 -0.5755
36615SOL     OW14655   2.557   5.196   6.342 -0.1697 -0.0950 -0.2557
36615SOL    HW114656   2.572   5.108   6.375  0.3612  0.0130 -0.1907
36615SOL    HW214657   2.532   5.184   6.250 -2.7305 -0.4623  0.4211
36616SOL     OW14658   4.289   2.075   8.448  0.2812 -0.0322  0.1741
36616SOL    HW114659   4.228   2.099   8.379  1.0419  1.0768 -0.1461
36616SOL    HW214660   4.336   1.998   8.414 -0.0816 -0.1357 -0.0861
36617SOL     OW14661   7.621   9.860  10.317 -0.1391 -0.0264  0.0659
36617SOL    HW114662   7.631   9.900  10.231 -1.4356  1.2252  0.4600
36617SOL    HW214663   7.659   9.924  10.378  0.5195 -0.7794  0.4683
36618SOL     OW14664   9.434   4.324   3.397  0.0375  0.0905  0.0687
36618SOL    HW114665   9.341   4.339   3.414 -0.0678 -2.5591  2.5548
36618SOL    HW214666   9.435   4.251   3.334  0.4263 -0.1429  0.3437
36619SOL     OW14667   4.588   4.260  10.725 -0.0254 -0.0914 -0.3205
36619SOL    HW114668   4.664   4.290  10.777 -0.5309 -1.1016  1.0542
36619SOL    HW214669   4.626   4.203  10.659  0.6248  1.1226 -1.0378
36620SOL     OW14670  10.269   4.090   2.436 -0.1585  0.3146  0.0339
36620SOL    HW114671  10.176   4.069   2.443 -0.2858  1.1005  0.8866
36620SOL    HW214672  10.313   4.006   2.447 -0.7909 -0.5602 -3.0401
36621SOL     OW14673  10.898   3.236   6.304 -0.3758  0.1309  0.0800
36621SOL    HW114674  10.899   3.261   6.212  1.7929  0.8497  0.2424
36621SOL    HW214675  10.972   3.175   6.313 -1.1010 -0.6273  1.1747
36622SOL     OW14676   8.573   9.947   8.181 -0.4062  0.0757 -0.2983
36622SOL    HW114677   8.481   9.972   8.190 -0.3209  0.6177 -0.9362
36622SOL    HW214678   8.621  10.015   8.227 -0.4259 -1.4087  2.0807
36623SOL     OW14679   1.811   3.844   2.858  0.5045 -0.2790 -0.0972
36623SOL    HW114680   1.904   3.823   2.856  0.5893 -0.0467 -3.7006
36623SOL    HW214681   1.807   3.939   2.849 -0.0905 -0.2672  0.1784
36624SOL     OW14682   9.781   0.097   7.321  0.3986  0.1658 -0.0594
36624SOL    HW114683   9.688   0.115   7.328  0.2155 -1.2079  1.6938
36624SOL    HW214684   9.824   0.182   7.337 -0.5121  0.8067 -0.9093
36625SOL     OW14685   2.277   1.887   4.115  0.2270 -0.0168  0.8390
36625SOL    HW114686   2.346   1.923   4.170  0.6099  1.2824 -0.4652
36625SOL    HW214687   2.322   1.849   4.040 -0.3967 -0.2865  0.5901
36626SOL     OW14688   5.537   5.332   6.551  0.1457 -0.0716 -0.2988
36626SOL    HW114689   5.545   5.299   6.461  1.3340  0.2935 -0.3373
36626SOL    HW214690   5.604   5.285   6.600 -0.8861 -0.7085  0.5572
36627SOL     OW14691   1.431  10.183   5.752  0.4018  0.1373  0.5759
36627SOL    HW114692   1.484  10.262   5.748  0.1580  0.3334  1.2221
36627SOL    HW214693   1.341  10.214   5.745  0.3558 -0.2177 -0.8299
36628SOL     OW14694   8.178   0.438   8.509  0.3875  0.3651 -0.1365
36628SOL    HW114695   8.110   0.505   8.519  1.1761  1.0348  0.9904
36628SOL    HW214696   8.165   0.404   8.420 -1.7595  0.0809  0.2250
36629SOL     OW14697   4.045   6.053   2.679 -0.1860  0.0739 -0.1582
36629SOL    HW114698   4.043   6.083   2.770  0.8191 -3.0773  1.0568
36629SOL    HW214699   3.953   6.045   2.654 -0.5283 -0.5855  1.2129
36630SOL     OW14700   8.751   4.302   0.218 -0.2078  0.1743  0.3405
36630SOL    HW114701   8.731   4.396   0.213  2.3423  0.9116  2.1067
36630SOL    HW214702   8.807   4.285   0.142  0.3193  0.3881  0.6755
36631SOL     OW14703   6.550   4.908   2.390 -0.4050  0.1113  0.4866
36631SOL    HW114704   6.549   4.954   2.474 -0.9812 -1.0108  1.1130
36631SOL    HW214705   6.610   4.835   2.403 -0.7104 -0.2322  0.0099
36632SOL     OW14706   6.581   2.177   2.327 -0.6734  0.5140 -0.5819
36632SOL    HW114707   6.485   2.180   2.332 -0.6769 -1.0777  1.4265
36632SOL    HW214708   6.610   2.242   2.391 -0.3965  0.9782 -1.1723
36633SOL     OW14709   9.099   8.183   7.308 -1.1667  0.6208 -0.4805
36633SOL    HW114710   9.014   8.205   7.347  0.1433  1.0230  2.3700
36633SOL    HW214711   9.131   8.265   7.272 -1.1359  0.9192  0.2163
36634SOL     OW14712   9.330   7.284   6.713  0.1814 -0.0653  0.1259
36634SOL    HW114713   9.369   7.359   6.668 -1.8670 -0.1562 -1.9640
36634SOL    HW214714   9.265   7.322   6.772  1.6675 -0.0608  1.8632
36635SOL     OW14715  10.290   9.544   6.541  0.0573  0.8467  0.3520
36635SOL    HW114716  10.351   9.587   6.481 -0.5925  0.6927 -0.4417
36635SOL    HW214717  10.209   9.595   6.531 -0.5284 -0.1513 -0.1097
36636SOL     OW14718   3.361  10.196   5.204  0.6290  0.5089 -0.2049
36636SOL    HW114719   3.266  10.195   5.190  0.7389  0.5723 -1.0236
36636SOL    HW214720   3.371  10.192   5.299 -0.2250  3.0135  0.0689
36637SOL     OW14721   9.690   7.646  11.542 -0.3111  0.1364 -1.0285
36637SOL    HW114722   9.616   7.619  11.488 -0.5916  1.0815 -1.1419
36637SOL    HW214723   9.758   7.669  11.479  0.2983 -1.2686 -0.9157
36638SOL     OW14724   4.330   3.995  11.810  0.1641  0.6001 -0.3985
36638SOL    HW114725   4.335   3.997  11.906 -0.0134  1.0297 -0.3980
36638SOL    HW214726   4.295   3.908  11.790  1.3731  0.0304 -0.1239
36639SOL     OW14727   3.351   7.474  11.100  0.0275 -0.1386 -0.3407
36639SOL    HW114728   3.315   7.561  11.082 -1.8037 -1.3383 -3.2006
36639SOL    HW214729   3.335   7.459  11.193 -2.0108  1.5748 -0.3533
36640SOL     OW14730   6.243   4.323  10.930  0.1222  0.3176 -0.6033
36640SOL    HW114731   6.296   4.372  10.992 -0.3605 -0.0621  0.1336
36640SOL    HW214732   6.160   4.310  10.976  0.0867 -0.7889 -0.9585
36641SOL     OW14733   0.648   1.835   8.819  0.0010 -0.4268 -0.4603
36641SOL    HW114734   0.572   1.780   8.840  0.0494 -0.9826 -1.6724
36641SOL    HW214735   0.636   1.858   8.727 -0.1752  1.8773  0.0716
36642SOL     OW14736   6.332   0.317  10.000 -0.4643  0.1440 -0.0243
36642SOL    HW114737   6.410   0.339   9.949  0.3379  1.3269  1.5963
36642SOL    HW214738   6.260   0.360   9.954  0.3095  1.5961  0.0621
36643SOL     OW14739   3.130  12.404  11.554 -0.6410 -0.1197  0.6634
36643SOL    HW114740   3.142  12.381  11.646  0.2088 -2.1286  0.1216
36643SOL    HW214741   3.219  12.407  11.519 -0.9329  1.0031 -0.0279
36644SOL     OW14742  10.792   7.207   9.407  0.1336 -0.8987 -0.4603
36644SOL    HW114743  10.784   7.152   9.329  3.0732 -1.1393 -0.6964
36644SOL    HW214744  10.752   7.290   9.381 -0.4475 -1.5168 -1.6212
36645SOL     OW14745   3.221   6.365   4.056 -0.4113  0.1979  0.0074
36645SOL    HW114746   3.161   6.375   3.982  0.9324  2.0079 -0.9252
36645SOL    HW214747   3.203   6.278   4.090 -1.8241 -0.2728 -1.7877
36646SOL     OW14748   2.383   1.406   2.475 -0.5923 -0.2803 -0.1872
36646SOL    HW114749   2.382   1.318   2.512 -0.5499 -0.3603 -0.3710
36646SOL    HW214750   2.442   1.456   2.532  1.0716 -0.9072 -1.2667
36647SOL     OW14751   2.169   5.128   8.644  0.0249 -0.2929  0.0311
36647SOL    HW114752   2.225   5.113   8.567 -0.9788  0.9783 -0.9997
36647SOL    HW214753   2.144   5.220   8.637 -0.3570 -0.2393  1.7356
36648SOL     OW14754  11.188   2.308   1.499  0.2305 -0.0099  0.2415
36648SOL    HW114755  11.104   2.273   1.471 -0.4751  2.5806 -1.2968
36648SOL    HW214756  11.166   2.378   1.561  1.1023  1.3046 -0.8552
36649SOL     OW14757   6.445  12.601   4.595 -0.6910 -0.1959 -0.0546
36649SOL    HW114758   6.392  12.645   4.529  1.2011  1.4640 -0.5918
36649SOL    HW214759   6.528  12.650   4.595  0.3159 -1.7678  1.7186
36650SOL     OW14760   3.005   3.556   0.157 -0.1214  0.4851  0.0022
36650SOL    HW114761   2.934   3.495   0.141  0.5276 -0.0787 -0.8173
36650SOL    HW214762   2.979   3.604   0.236 -1.0819 -0.1730  0.0945
36651SOL     OW14763  11.678   2.922  12.508  0.2023  0.1122  0.2149
36651SOL    HW114764  11.760   2.932  12.555 -0.0822 -0.1348  0.7675
36651SOL    HW214765  11.672   2.829  12.488  0.4088  0.2408 -0.4759
36652SOL     OW14766   7.821   6.122   1.591 -0.3396  0.1877  0.2910
36652SOL    HW114767   7.848   6.194   1.649  0.7248 -0.1256  0.2021
36652SOL    HW214768   7.789   6.166   1.512  1.3689  0.5810 -0.2285
36653SOL     OW14769   0.378  11.463  12.431 -0.4079  0.0418 -0.1717
36653SOL    HW114770   0.312  11.395  12.433 -2.0216  1.5542  0.5309
36653SOL    HW214771   0.413  11.467  12.520 -0.4788  0.2765 -0.1531
36654SOL     OW14772   2.883   5.962   3.457 -0.0715  0.6474  0.5692
36654SOL    HW114773   2.957   5.975   3.516  1.4066 -2.4827 -0.3461
36654SOL    HW214774   2.923   5.935   3.374 -2.1943 -0.9353 -0.0400
36655SOL     OW14775   0.119   1.220   7.548  0.1573 -0.0718  0.1997
36655SOL    HW114776   0.163   1.281   7.607 -0.1509  1.9599 -1.5070
36655SOL    HW214777   0.028   1.219   7.578  0.4664 -0.9003  1.1403
36656SOL     OW14778  10.729   3.410   9.799 -0.0291 -0.4021  0.4415
36656SOL    HW114779  10.798   3.355   9.762  0.0563 -0.8631  1.2594
36656SOL    HW214780  10.649   3.361   9.783 -0.2511  0.3321 -0.8945
36657SOL     OW14781   5.555   5.552  10.699  0.4075  0.1518 -0.3311
36657SOL    HW114782   5.469   5.509  10.696  0.6265 -0.2613 -1.2498
36657SOL    HW214783   5.560   5.590  10.786  0.0644 -1.4224  0.4009
36658SOL     OW14784   6.371   8.109   4.920  0.4080 -0.4331  0.0324
36658SOL    HW114785   6.280   8.131   4.900  0.2686 -1.5688 -0.6513
36658SOL    HW214786   6.380   8.130   5.013 -0.5707 -0.3579  0.1236
36659SOL     OW14787  10.664   5.270   1.822  0.3639 -0.2125 -0.2034
36659SOL    HW114788  10.690   5.225   1.903 -0.3509 -1.9478 -0.8808
36659SOL    HW214789  10.747   5.302   1.785  0.6484  1.0989  1.4467
36660SOL     OW14790   1.970   0.325   9.604 -0.2029 -0.4171 -0.4039
36660SOL    HW114791   1.985   0.395   9.540  1.3732  1.1976  1.5591
36660SOL    HW214792   1.957   0.372   9.687 -0.9425 -2.4389  0.6861
36661SOL     OW14793   3.536   7.654   3.068 -0.0918 -0.2292  0.1908
36661SOL    HW114794   3.533   7.719   2.997 -0.9748  0.1324  0.5460
36661SOL    HW214795   3.546   7.706   3.148  0.2605 -0.5986  0.3906
36662SOL     OW14796  10.797   7.412   8.122 -0.2965  0.0531  0.3142
36662SOL    HW114797  10.733   7.479   8.096  0.9209  0.4690 -1.8491
36662SOL    HW214798  10.881   7.456   8.113  0.3986 -0.7865  2.1780
36663SOL     OW14799   2.127  12.639   9.005 -0.0542  0.0491  0.3086
36663SOL    HW114800   2.144  12.576   9.075  1.2159  2.6766  2.5620
36663SOL    HW214801   2.033  12.657   9.011 -0.1681 -0.5851  0.5258
36664SOL     OW14802   3.239   4.179   1.323 -0.1316  0.0528 -0.3496
36664SOL    HW114803   3.207   4.264   1.293 -1.4043 -0.6762 -1.1396
36664SOL    HW214804   3.268   4.135   1.243  1.0046 -0.0792  0.1139
36665SOL     OW14805   5.386   9.677   3.326  0.3627  0.2347 -0.1406
36665SOL    HW114806   5.433   9.747   3.280 -0.6277  0.1458 -1.3288
36665SOL    HW214807   5.327   9.723   3.385  0.5900  0.3726 -0.0155
36666SOL     OW14808   7.159   1.649  10.926  0.1620  0.4099 -0.0852
36666SOL    HW114809   7.175   1.640  10.832 -1.0417  0.0241 -0.2802
36666SOL    HW214810   7.191   1.736  10.948  1.9912 -0.1320 -0.4970
36667SOL     OW14811  10.182   9.032  11.443  0.4361 -0.0979 -0.0049
36667SOL    HW114812  10.217   8.980  11.515  1.3389  1.4277  0.7126
36667SOL    HW214813  10.246   9.022  11.372 -0.2702 -1.3086 -0.4953
36668SOL     OW14814   0.150   3.994   0.615  0.2073 -0.1760 -0.4286
36668SOL    HW114815   0.056   3.985   0.630  0.3190  0.2668  0.7018
36668SOL    HW214816   0.158   4.011   0.522 -0.7934 -0.6629 -0.6264
36669SOL     OW14817   1.034   1.325   6.430  0.4173  0.2603  0.8320
36669SOL    HW114818   0.997   1.288   6.509  0.8932  0.1058  0.9852
36669SOL    HW214819   1.123   1.351   6.454 -0.3082  2.7420  1.1134
36670SOL     OW14820   7.644   2.320   8.436 -0.0664 -0.8907  0.1674
36670SOL    HW114821   7.653   2.399   8.384  0.9279  0.2583  1.9625
36670SOL    HW214822   7.709   2.260   8.400 -0.2155 -0.5651 -0.6572
36671SOL     OW14823   4.127   4.685   4.104  0.3067  0.2117 -0.3250
36671SOL    HW114824   4.182   4.714   4.176  1.6539 -0.0863 -1.2066
36671SOL    HW214825   4.049   4.649   4.147  0.9471  0.3093  0.9673
36672SOL     OW14826   2.838   8.964   1.181 -0.4814 -0.1841  0.6435
36672SOL    HW114827   2.816   9.039   1.127  1.8325  0.4125  0.4432
36672SOL    HW214828   2.794   8.890   1.138 -0.4109  0.5947 -0.8352
36673SOL     OW14829   1.834  10.894   1.661 -0.5109 -0.2899  0.0138
36673SOL    HW114830   1.883  10.931   1.588  1.8667 -1.9422  0.6739
36673SOL    HW214831   1.835  10.800   1.646  0.4952 -0.7275  2.3954
36674SOL     OW14832   0.871  11.150  11.257  0.0045 -0.1952  0.2092
36674SOL    HW114833   0.927  11.188  11.189  0.0199  1.7425  1.2548
36674SOL    HW214834   0.834  11.225  11.303 -2.6697 -1.4230  0.2406
36675SOL     OW14835   3.580   0.772   9.898 -0.2957 -0.4851 -0.2234
36675SOL    HW114836   3.549   0.862   9.901 -1.4732 -0.8875  2.1301
36675SOL    HW214837   3.515   0.726   9.845  0.6508  0.1086 -1.9750
36676SOL     OW14838   8.276   1.155   5.449 -0.3833  0.2195  0.3840
36676SOL    HW114839   8.303   1.210   5.523 -0.2839 -0.9813  1.2595
36676SOL    HW214840   8.194   1.115   5.478  0.2212 -1.1173  0.2883
36677SOL     OW14841   3.270   0.964   0.455 -0.0663  0.1047  0.1187
36677SOL    HW114842   3.237   0.924   0.536 -0.5352  0.5460  0.1555
36677SOL    HW214843   3.308   1.047   0.484  1.6537 -0.6471  0.1619
36678SOL     OW14844  10.284  10.709   5.117 -0.4656 -0.1025  0.3787
36678SOL    HW114845  10.213  10.664   5.072 -0.3446  1.0334 -1.0002
36678SOL    HW214846  10.362  10.658   5.097 -0.2690  0.8586 -1.4844
36679SOL     OW14847  12.170   4.089  10.237 -0.1036 -0.2436 -0.0703
36679SOL    HW114848  12.199   4.162  10.182 -2.7598 -1.0050 -2.7793
36679SOL    HW214849  12.246   4.031  10.240  0.6991  0.6375 -1.5640
36680SOL     OW14850   0.082  10.118   4.965  0.4838  0.2726  0.3444
36680SOL    HW114851  -0.006  10.154   4.955  0.3549 -0.3823 -1.3270
36680SOL    HW214852   0.082  10.077   5.051 -0.6558  0.7935  0.6137
36681SOL     OW14853   7.214   2.452   6.766  0.2085 -0.3384 -0.4249
36681SOL    HW114854   7.179   2.484   6.682  0.6651 -1.2314 -0.9797
36681SOL    HW214855   7.194   2.358   6.765 -0.1356 -0.2840  0.6616
36682SOL     OW14856   4.884   6.963   0.012 -0.3674 -0.0353 -0.8532
36682SOL    HW114857   4.859   7.050   0.043  2.1156  0.3592  0.2472
36682SOL    HW214858   4.847   6.903   0.077 -0.2763  0.3586 -0.4348
36683SOL     OW14859   5.566   5.972   6.279 -0.2825  0.3283  0.2109
36683SOL    HW114860   5.534   5.885   6.258  1.8580 -0.3693 -0.4665
36683SOL    HW214861   5.661   5.962   6.282 -0.0078  2.5544  0.5295
36684SOL     OW14862   1.129   4.598   0.244  0.0148 -0.1883 -0.7457
36684SOL    HW114863   1.058   4.543   0.209 -1.0966  0.0809  0.9251
36684SOL    HW214864   1.150   4.557   0.328 -1.9764  2.6894  1.3627
36685SOL     OW14865   4.848   1.570   8.255  0.8005 -0.1790  0.4317
36685SOL    HW114866   4.911   1.514   8.301  1.4684  1.5059  1.6986
36685SOL    HW214867   4.800   1.615   8.325 -1.1976 -0.7160 -0.5221
36686SOL     OW14868   8.168   9.019   3.635  0.0133 -0.4905 -0.5442
36686SOL    HW114869   8.141   9.108   3.613 -0.8261 -0.7347 -0.5233
36686SOL    HW214870   8.095   8.984   3.685  0.8246 -0.8112  0.4307
36687SOL     OW14871  11.643   7.145  11.676  0.2121 -0.4046  0.1258
36687SOL    HW114872  11.669   7.053  11.668 -0.3747 -0.5376 -0.3069
36687SOL    HW214873  11.721   7.194  11.650  0.1721 -0.7929 -0.7593
36688SOL     OW14874   6.927   9.277   5.499  0.0569  0.5340  0.0204
36688SOL    HW114875   6.963   9.325   5.573  2.4024 -0.7593 -0.1709
36688SOL    HW214876   7.004   9.240   5.455 -1.3050  0.7932 -2.7450
36689SOL     OW14877   6.600   0.488   6.363 -0.1874 -0.2989 -0.0989
36689SOL    HW114878   6.668   0.493   6.296 -0.5537 -1.3948 -0.5728
36689SOL    HW214879   6.524   0.533   6.324 -0.1435 -0.2110 -0.0839
36690SOL     OW14880  12.451   7.144   4.911 -0.0562  0.2922 -0.3096
36690SOL    HW114881  12.475   7.190   4.830 -0.7387  2.3703  0.6133
36690SOL    HW214882  12.378   7.194   4.947 -0.2832 -1.0540  1.2212
36691SOL     OW14883   3.735   0.883   6.132  0.3271 -0.3940 -0.0293
36691SOL    HW114884   3.828   0.881   6.158  0.3513 -0.2280 -0.1056
36691SOL    HW214885   3.722   0.970   6.096  0.4591 -0.8430 -1.2045
36692SOL     OW14886  10.198  10.550  12.082  0.0198 -0.8483  0.3147
36692SOL    HW114887  10.131  10.612  12.112  0.9953  1.2791 -1.5592
36692SOL    HW214888  10.210  10.571  11.990  1.0574 -3.3203 -0.2012
36693SOL     OW14889   9.183  11.382  12.609 -0.0222  0.0944  0.9222
36693SOL    HW114890   9.235  11.439  12.553 -0.2612 -0.3739  0.2096
36693SOL    HW214891   9.224  11.388  12.695  0.4913  0.6391  0.6431
36694SOL     OW14892   1.348   8.306   4.194 -0.4313 -0.1016  0.0355
36694SOL    HW114893   1.301   8.251   4.132  1.0610 -0.8678 -0.4814
36694SOL    HW214894   1.356   8.253   4.273 -2.9885  1.1500  1.2632
36695SOL     OW14895   9.364  10.158  11.416 -0.2482  0.3361  0.4391
36695SOL    HW114896   9.365  10.228  11.482 -0.2887  2.5529 -1.7444
36695SOL    HW214897   9.275  10.124  11.419 -0.2186  0.3042  1.5719
36696SOL     OW14898   0.926   2.407   5.576  0.2834 -0.0805  0.1001
36696SOL    HW114899   0.877   2.392   5.495 -0.6860 -0.5479  0.7557
36696SOL    HW214900   0.883   2.351   5.640  0.1404  1.3416  1.2842
36697SOL     OW14901   7.182   0.483  12.043 -0.4517  0.3421 -0.0290
36697SOL    HW114902   7.264   0.434  12.035 -0.9835 -0.4205 -0.9283
36697SOL    HW214903   7.121   0.421  12.081 -0.9341  0.5251 -0.4941
36698SOL     OW14904   5.767   9.971  10.322  0.0387 -0.1667  0.2604
36698SOL    HW114905   5.767   9.906  10.252 -1.3890 -2.2043  2.0175
36698SOL    HW214906   5.842   9.948  10.377 -2.4258 -2.8571  2.8804
36699SOL     OW14907   2.706   7.831   1.988 -0.0362 -0.2379 -0.0966
36699SOL    HW114908   2.747   7.851   1.904  0.7651 -2.0064 -0.1762
36699SOL    HW214909   2.613   7.850   1.974  0.4535  2.1614 -0.4614
36700SOL     OW14910  10.588   6.587  12.358  0.1736 -0.0440  0.6745
36700SOL    HW114911  10.564   6.495  12.365  0.5060 -0.2376 -0.5107
36700SOL    HW214912  10.569   6.610  12.267 -0.2330  1.1583  1.0464
36701SOL     OW14913   6.902   6.705   3.583 -0.0214  0.0359 -0.7028
36701SOL    HW114914   6.949   6.782   3.550 -2.1242  2.2170  1.0605
36701SOL    HW214915   6.969   6.637   3.588  2.3290  2.1984 -0.8098
36702SOL     OW14916   9.981   3.007  12.239  0.2182  0.9409 -0.3453
36702SOL    HW114917  10.072   2.997  12.268  0.5543  0.3749 -1.5341
36702SOL    HW214918   9.988   3.030  12.146 -0.8635 -0.2404 -0.7479
36703SOL     OW14919   9.061   2.802   5.684  0.0858  0.0218  0.0210
36703SOL    HW114920   9.096   2.744   5.616  0.0350  1.9292 -1.7333
36703SOL    HW214921   9.121   2.877   5.684 -0.4075  0.4523  1.5328
36704SOL     OW14922   4.544   8.884   5.418 -0.1493  0.1932 -0.1370
36704SOL    HW114923   4.485   8.899   5.345 -0.7992 -0.8824  0.1430
36704SOL    HW214924   4.488   8.851   5.489  0.6531 -0.0066  0.4225
36705SOL     OW14925  11.011   3.663   4.861 -0.2769  0.9651 -0.6122
36705SOL    HW114926  10.939   3.670   4.923  0.2700  1.4499 -0.0117
36705SOL    HW214927  11.042   3.753   4.851  0.5201  0.7051 -0.5251
36706SOL     OW14928  11.179   6.835   7.469 -0.3549 -0.4207  0.1645
36706SOL    HW114929  11.243   6.842   7.398  0.5762  1.4752  1.0914
36706SOL    HW214930  11.114   6.773   7.438  1.0931 -1.1799 -1.4953
36707SOL     OW14931   8.877   8.107  11.003 -0.4288  0.0389 -0.3923
36707SOL    HW114932   8.896   8.182  10.948  0.3840  0.2542  0.1592
36707SOL    HW214933   8.783   8.093  10.994 -0.9103  2.1735  0.7828
36708SOL     OW14934   5.771   7.296   0.771  0.5942 -0.1696  0.5534
36708SOL    HW114935   5.696   7.260   0.818  1.7388  0.6717  3.1945
36708SOL    HW214936   5.743   7.383   0.743 -0.2495 -0.8494 -0.8200
36709SOL     OW14937   3.346   2.857   8.180 -0.1175 -0.0559 -0.4552
36709SOL    HW114938   3.275   2.849   8.243 -0.7571  1.9353 -0.8662
36709SOL    HW214939   3.317   2.925   8.119  0.2573 -2.1398 -3.1937
36710SOL     OW14940   3.323  10.910   8.652  0.1203  0.5370 -0.4277
36710SOL    HW114941   3.289  10.829   8.615  1.9965  0.0399 -1.1583
36710SOL    HW214942   3.272  10.924   8.731 -1.9230 -0.0072 -1.5836
36711SOL     OW14943   2.530   1.855   8.877  0.0868 -0.4630  0.1702
36711SOL    HW114944   2.497   1.867   8.967  1.0240  1.5610  0.2956
36711SOL    HW214945   2.530   1.943   8.840  0.6793 -1.1301 -1.4926
36712SOL     OW14946  10.324  12.104   5.998  0.4804 -0.0716 -0.4050
36712SOL    HW114947  10.262  12.131   5.930 -1.4322  0.8516  1.5674
36712SOL    HW214948  10.332  12.009   5.986 -0.6573 -0.0924 -1.2634
36713SOL     OW14949   5.105   5.265  12.582  0.1136  0.3535  0.2738
36713SOL    HW114950   5.125   5.194  12.522 -0.6045  0.2771  0.1164
36713SOL    HW214951   5.129   5.232  12.668 -1.8450 -0.7893  0.4516
36714SOL     OW14952   9.674  11.881   5.434 -0.2583  0.0867 -0.3425
36714SOL    HW114953   9.672  11.943   5.507  0.7637 -0.2312 -0.0295
36714SOL    HW214954   9.601  11.822   5.451 -0.8715  0.8369 -0.3238
36715SOL     OW14955   2.831   9.209   1.056 -0.2807 -0.2667 -0.1883
36715SOL    HW114956   2.839   9.193   0.962  0.6230 -3.7885  0.3646
36715SOL    HW214957   2.921   9.210   1.088 -0.5918  0.7343  0.7081
36716SOL     OW14958   2.282   5.248   5.051 -0.4151 -0.4043 -0.3533
36716SOL    HW114959   2.275   5.241   5.147  0.5686  2.7938  0.0791
36716SOL    HW214960   2.194   5.270   5.022 -0.6354 -0.9901 -0.1453
36717SOL     OW14961  12.272   7.466   3.001  0.0729  0.3608  0.6646
36717SOL    HW114962  12.199   7.436   2.947  0.4467 -1.0411  0.9000
36717SOL    HW214963  12.315   7.533   2.947 -0.9977  0.7508  0.2641
36718SOL     OW14964   4.375   5.728   3.256 -0.7498 -0.5207 -0.4921
36718SOL    HW114965   4.453   5.672   3.263  0.6660  1.5023  0.8974
36718SOL    HW214966   4.407   5.811   3.223 -2.1650  0.6479  0.9208
36719SOL     OW14967   0.676   7.911   9.217 -0.2414  0.0200  0.0416
36719SOL    HW114968   0.642   7.964   9.290  2.7108  0.6552  1.0959
36719SOL    HW214969   0.628   7.828   9.224 -2.1412  1.1119  0.8238
36720SOL     OW14970   3.555   2.106   1.064 -0.3552  0.5062  0.5587
36720SOL    HW114971   3.518   2.080   1.148  0.0163 -1.4975  0.1576
36720SOL    HW214972   3.513   2.048   1.000 -0.0048  1.4199 -0.5400
36721SOL     OW14973  10.047   8.802  12.295 -0.2026  0.4275  0.4947
36721SOL    HW114974  10.091   8.717  12.290 -0.3120  0.3353  1.1127
36721SOL    HW214975  10.046   8.833  12.204 -0.3498 -0.3235  0.2339
36722SOL     OW14976  10.152   4.383   5.742  0.2373 -0.0232  0.1327
36722SOL    HW114977  10.068   4.379   5.698 -1.0029  2.8708  1.9714
36722SOL    HW214978  10.188   4.469   5.718  1.5626 -0.2401  1.2035
36723SOL     OW14979   3.090  11.673  10.619  0.3025 -0.5568  0.1699
36723SOL    HW114980   3.072  11.617  10.694  0.6847  0.5194  1.0965
36723SOL    HW214981   3.128  11.614  10.553 -2.1718 -1.9782 -0.1025
36724SOL     OW14982   2.065   9.928   7.538 -0.1260 -0.1957  0.1555
36724SOL    HW114983   2.114   9.949   7.458 -0.8180  0.0821 -0.1953
36724SOL    HW214984   2.131   9.889   7.596  0.9054  1.6618  0.3104
36725SOL     OW14985   7.748   5.447   8.413  0.4622  0.0136 -0.2508
36725SOL    HW114986   7.778   5.408   8.331 -0.7299  1.2850 -1.3182
36725SOL    HW214987   7.829   5.473   8.458  1.1307 -0.8841 -0.8879
36726SOL     OW14988   2.134  11.688  11.657 -0.2124  0.0996  0.0720
36726SOL    HW114989   2.089  11.723  11.580  0.2885  0.4585 -0.0606
36726SOL    HW214990   2.162  11.765  11.706  1.2984 -0.0776 -0.4562
36727SOL     OW14991   5.849   5.183   5.990  0.1166 -0.2160  0.0251
36727SOL    HW114992   5.768   5.165   5.942 -0.5407  0.0726  0.9910
36727SOL    HW214993   5.917   5.136   5.942 -0.9145 -2.0165  0.2562
36728SOL     OW14994   5.950   7.536  12.448  0.0855  0.5280 -0.4795
36728SOL    HW114995   5.989   7.605  12.501 -1.4253  0.3472  0.9305
36728SOL    HW214996   5.863   7.521  12.486  0.5331 -2.5147 -0.3726
36729SOL     OW14997   2.900   3.647   4.419  0.2273  0.2027 -0.2604
36729SOL    HW114998   2.981   3.670   4.464  0.9742 -0.1501 -1.3623
36729SOL    HW214999   2.920   3.564   4.376 -1.5200 -1.1593  1.4024
36730SOL     OW15000   3.722   3.570   6.493  0.0545 -0.3417 -0.3228
36730SOL    HW115001   3.763   3.581   6.407 -0.7790  0.4159 -0.6377
36730SOL    HW215002   3.659   3.641   6.499  0.1397 -0.3435  0.9539
36731SOL     OW15003  10.894   8.334  12.258  0.7564 -0.1193  0.7682
36731SOL    HW115004  10.965   8.310  12.199  1.7772 -0.6161  2.1254
36731SOL    HW215005  10.939   8.372  12.334 -0.4054 -0.6567  1.7554
36732SOL     OW15006   6.583   1.642   5.253 -0.2935  0.4089  0.3786
36732SOL    HW115007   6.668   1.635   5.209 -1.7140 -2.0345 -2.3574
36732SOL    HW215008   6.600   1.616   5.343  1.9143  0.2589 -0.0283
36733SOL     OW15009   8.326   8.375   7.562 -0.3971  0.4041  0.1612
36733SOL    HW115010   8.347   8.335   7.646 -1.6954  0.5672  0.5838
36733SOL    HW215011   8.356   8.465   7.570  1.9167 -0.2357 -0.5490
36734SOL     OW15012   5.668   2.583   1.374 -0.4013 -0.0384 -0.6437
36734SOL    HW115013   5.630   2.495   1.378  0.5645 -0.4265  1.8844
36734SOL    HW215014   5.663   2.615   1.464 -0.7900  2.5627 -1.5109
36735SOL     OW15015   8.774   4.722  10.636 -0.0150 -0.5674  0.0307
36735SOL    HW115016   8.868   4.734  10.628  0.0810 -0.6327  0.9158
36735SOL    HW215017   8.757   4.730  10.730 -0.8179 -1.0670 -0.0607
36736SOL     OW15018   7.338   8.073   1.068 -0.1129 -0.9873  0.4320
36736SOL    HW115019   7.294   7.995   1.101  1.1981 -1.1451  1.9053
36736SOL    HW215020   7.431   8.057   1.082  0.3577 -0.0510 -1.2638
36737SOL     OW15021   6.744   6.586   1.553 -0.0007 -0.2781  0.0102
36737SOL    HW115022   6.747   6.659   1.490  1.8658  0.3558  0.7548
36737SOL    HW215023   6.789   6.514   1.509 -1.3415 -0.8253 -0.5039
36738SOL     OW15024   3.224   7.494  11.919 -0.5393  0.3924  0.3287
36738SOL    HW115025   3.214   7.590  11.915 -1.1594  0.3171 -2.1854
36738SOL    HW215026   3.142   7.463  11.957 -0.5843  0.8536  0.6145
36739SOL     OW15027   2.166   9.099  10.477 -0.3655 -0.1754 -0.3707
36739SOL    HW115028   2.200   9.184  10.450  1.1006 -0.9641 -1.0905
36739SOL    HW215029   2.079   9.119  10.512 -1.3666  1.2730 -3.2864
36740SOL     OW15030   2.262  11.458   8.595 -0.3845  0.2904  0.7144
36740SOL    HW115031   2.201  11.487   8.663  0.3655  1.1453  1.0418
36740SOL    HW215032   2.332  11.524   8.595  0.0763 -0.1685 -0.2855
36741SOL     OW15033   1.241   4.251   0.226 -0.3069 -0.0164 -0.5354
36741SOL    HW115034   1.266   4.158   0.229 -1.2133 -0.3841 -2.7528
36741SOL    HW215035   1.158   4.254   0.274  0.2912 -0.1004  0.5519
36742SOL     OW15036   4.894  12.463   3.018 -0.1994 -0.2014 -0.3258
36742SOL    HW115037   4.851  12.413   3.088 -0.9441 -0.1344 -0.7284
36742SOL    HW215038   4.928  12.541   3.062 -1.7817  0.4837 -0.2369
36743SOL     OW15039  10.246   8.308  10.947 -0.6111 -0.1247  0.0093
36743SOL    HW115040  10.256   8.215  10.927  1.3925  0.3533 -1.5393
36743SOL    HW215041  10.192   8.342  10.876  0.3770  0.2303 -0.5991
36744SOL     OW15042  11.990   3.784   9.708 -0.4904  0.2379  0.6083
36744SOL    HW115043  11.979   3.851   9.776 -0.8864  1.1520 -0.3205
36744SOL    HW215044  11.990   3.701   9.755 -0.6172  0.8575  1.7315
36745SOL     OW15045   1.636  11.568   7.629 -0.0693 -0.0284  0.2462
36745SOL    HW115046   1.545  11.594   7.622 -0.3157 -0.8780  0.1545
36745SOL    HW215047   1.667  11.564   7.539 -0.6920 -2.2292  0.0667
36746SOL     OW15048   1.363   9.300   1.428 -0.5175 -0.4372 -0.0138
36746SOL    HW115049   1.452   9.293   1.394 -0.8163  1.5541 -1.4479
36746SOL    HW215050   1.307   9.271   1.356 -1.0487 -0.7448  0.5149
36747SOL     OW15051   5.040   3.275   1.037 -0.0520  0.3003  0.4351
36747SOL    HW115052   5.056   3.314   1.123  0.2877 -1.7678  1.3709
36747SOL    HW215053   5.026   3.350   0.979  1.6665  1.8300  1.8821
36748SOL     OW15054   5.144  10.828  11.494  0.4257 -0.9659  0.0551
36748SOL    HW115055   5.141  10.808  11.400 -1.1840  0.0608 -0.1476
36748SOL    HW215056   5.216  10.890  11.503  1.8310 -2.5097 -0.1713
36749SOL     OW15057   3.917   7.230   1.978  0.1396 -0.0776  0.1212
36749SOL    HW115058   3.921   7.160   2.043 -1.5964  1.0392  1.5278
36749SOL    HW215059   3.961   7.304   2.019 -0.1725  0.3683 -0.3270
36750SOL     OW15060   3.668   8.424   5.666  0.7325  0.0919 -0.0021
36750SOL    HW115061   3.633   8.361   5.729  0.2494  0.3392 -0.0245
36750SOL    HW215062   3.754   8.447   5.701  0.0048  1.1222  1.2071
36751SOL     OW15063   3.099  12.156   7.407  0.0990  0.2572  0.4059
36751SOL    HW115064   3.110  12.117   7.494 -2.9078 -0.7890  0.4196
36751SOL    HW215065   3.079  12.082   7.350 -1.6690  1.2909 -0.3868
36752SOL     OW15066   8.822  11.342   4.388 -0.2943 -0.0741  0.1272
36752SOL    HW115067   8.915  11.321   4.373  0.6603  2.7318  1.3958
36752SOL    HW215068   8.794  11.382   4.306 -0.5025 -1.2303 -0.3768
36753SOL     OW15069   2.302   4.789   6.004 -0.7661 -0.5111  0.1890
36753SOL    HW115070   2.373   4.839   5.964 -2.2773  1.4775 -0.1515
36753SOL    HW215071   2.314   4.802   6.098 -0.5037 -0.4691  0.1520
36754SOL     OW15072   9.524   8.739   9.928  0.0798  0.0164  0.1193
36754SOL    HW115073   9.519   8.822   9.879 -2.2416  1.1402  2.0060
36754SOL    HW215074   9.551   8.765  10.016 -1.1012 -1.1471  0.8622
36755SOL     OW15075   4.934   8.809   8.325 -0.8065 -0.0851 -0.4075
36755SOL    HW115076   4.975   8.813   8.238 -0.8512 -3.1694 -0.6690
36755SOL    HW215077   4.902   8.719   8.333  0.3271 -0.3302  3.3234
36756SOL     OW15078   0.613  10.144   3.523  0.1481 -0.1540  0.3659
36756SOL    HW115079   0.573  10.133   3.437  0.7201 -0.2154  0.1023
36756SOL    HW215080   0.546  10.116   3.585 -0.5618  0.6870 -0.0145
36757SOL     OW15081   2.169  12.561  10.072  0.1502  0.2109  0.0303
36757SOL    HW115082   2.257  12.591  10.049  0.2712 -0.0820  0.1108
36757SOL    HW215083   2.174  12.465  10.066 -0.8067  0.2329 -2.3560
36758SOL     OW15084   8.173   8.707  10.819  0.0008 -0.0113  0.2636
36758SOL    HW115085   8.160   8.713  10.725 -2.8736 -0.8087  0.5147
36758SOL    HW215086   8.116   8.636  10.847  0.3370  0.5721  2.6991
36759SOL     OW15087  12.225   8.895  10.566 -0.2124  0.2356 -0.1192
36759SOL    HW115088  12.190   8.958  10.628  0.6119 -0.4624  1.0808
36759SOL    HW215089  12.318   8.916  10.558  0.2660 -1.2995  0.9381
36760SOL     OW15090   5.707  12.482   1.020  0.4999 -0.0904 -0.1708
36760SOL    HW115091   5.668  12.468   0.934 -1.0040  2.6625 -0.0566
36760SOL    HW215092   5.784  12.426   1.021 -1.4649 -3.1310 -1.8209
36761SOL     OW15093   7.073  10.573  12.436  0.2677 -0.4997 -0.0453
36761SOL    HW115094   6.979  10.589  12.426  0.2971 -0.1263  0.2462
36761SOL    HW215095   7.086  10.483  12.405  0.0272 -0.1092 -1.3321
36762SOL     OW15096  11.026   5.679  11.570  0.5921 -0.8741  0.0519
36762SOL    HW115097  11.016   5.617  11.498 -1.3493  0.0203 -0.5126
36762SOL    HW215098  11.066   5.628  11.640  2.8059 -1.7137 -1.6751
36763SOL     OW15099   2.799  12.593   3.970 -0.2716  0.3456  0.2969
36763SOL    HW115100   2.788  12.498   3.962 -0.7906  0.5047 -1.1278
36763SOL    HW215101   2.893  12.607   3.966 -0.1612 -0.1385  1.0035
36764SOL     OW15102   2.984  11.659   0.773  0.2019  0.0423 -0.0391
36764SOL    HW115103   3.048  11.596   0.740  0.1327  0.8138 -1.7112
36764SOL    HW215104   2.900  11.629   0.738 -0.4883 -1.1660  2.4194
36765SOL     OW15105  10.397   2.913   9.042  0.4376 -0.1792 -0.1475
36765SOL    HW115106  10.418   2.951   8.956 -2.0066  0.3500 -0.5971
36765SOL    HW215107  10.415   2.820   9.032  2.1579  0.1591 -0.5285
36766SOL     OW15108  11.702   0.427   8.208 -0.3419 -0.0921 -0.1186
36766SOL    HW115109  11.778   0.452   8.154 -0.7640 -0.1357 -0.7421
36766SOL    HW215110  11.707   0.485   8.284  0.0214  0.2761 -0.4165
36767SOL     OW15111  10.797   0.827   8.800  0.1594  0.3500 -0.0527
36767SOL    HW115112  10.869   0.867   8.849  0.7652  0.6319 -1.1340
36767SOL    HW215113  10.827   0.738   8.781  1.1229  1.0677 -2.1991
36768SOL     OW15114   6.679   4.561   3.315 -0.4181 -0.1798 -0.6109
36768SOL    HW115115   6.742   4.554   3.387 -2.0567  2.2714  1.1957
36768SOL    HW215116   6.604   4.509   3.344 -1.0638  0.7770 -0.5314
36769SOL     OW15117   6.582   4.414  12.209 -0.3448  0.1320  0.5759
36769SOL    HW115118   6.572   4.329  12.165  1.1982 -0.5330  1.4414
36769SOL    HW215119   6.492   4.443  12.224 -0.9307 -0.0473 -2.1199
36770SOL     OW15120   8.429  11.565  12.064 -0.1957 -0.3524  0.2143
36770SOL    HW115121   8.463  11.502  12.000 -0.2575  0.5940 -0.7966
36770SOL    HW215122   8.335  11.548  12.069  0.1540 -2.1101  2.0222
36771SOL     OW15123  12.252  11.897   0.849  0.5367  0.2188  0.4686
36771SOL    HW115124  12.201  11.976   0.867 -1.0012 -0.0362 -2.2137
36771SOL    HW215125  12.299  11.917   0.768 -0.9070 -2.0106 -1.0059
36772SOL     OW15126   2.426   7.916   1.883  0.4104  0.4879  0.1979
36772SOL    HW115127   2.377   7.911   1.801  0.7458 -0.8577  0.0530
36772SOL    HW215128   2.447   8.009   1.893 -0.8870  0.8753 -0.4871
36773SOL     OW15129   2.984   0.337   1.133  0.2832 -0.0453  0.3495
36773SOL    HW115130   2.959   0.370   1.047  0.8695  1.7027  0.8223
36773SOL    HW215131   3.006   0.415   1.184  2.4616 -1.1656  1.2885
36774SOL     OW15132   2.699  12.390   8.983  0.1861 -0.1486  0.1324
36774SOL    HW115133   2.651  12.339   8.918 -1.6789  1.8207 -0.1324
36774SOL    HW215134   2.716  12.328   9.054  0.1927 -1.7429 -1.2024
36775SOL     OW15135   6.847   5.499   3.327  0.0950 -0.4023  0.2538
36775SOL    HW115136   6.936   5.470   3.347  0.9599  1.9924  0.2769
36775SOL    HW215137   6.858   5.558   3.252 -1.9105 -2.2839 -1.6706
36776SOL     OW15138   3.525   1.797  11.363 -0.2036  0.0279 -0.3339
36776SOL    HW115139   3.558   1.774  11.450  0.8075  0.1340 -0.6686
36776SOL    HW215140   3.586   1.864  11.332  0.3996 -1.1224 -1.7520
36777SOL     OW15141  11.413  11.656   3.067 -0.3009  0.2851  0.3653
36777SOL    HW115142  11.494  11.608   3.081 -0.0522  0.4577 -0.4000
36777SOL    HW215143  11.440  11.745   3.048 -0.5795  0.1137 -0.9947
36778SOL     OW15144   4.233   6.839   2.122  0.4078  0.0670  0.1957
36778SOL    HW115145   4.238   6.918   2.068  0.1935  0.4342  0.7049
36778SOL    HW215146   4.140   6.825   2.136  0.4458 -0.2781  0.1094
36779SOL     OW15147   5.781   3.652   5.110  0.6077  0.1079  0.2519
36779SOL    HW115148   5.801   3.734   5.156  0.9344  0.2853 -0.2030
36779SOL    HW215149   5.821   3.662   5.024 -2.0987  0.8204 -1.0180
36780SOL     OW15150   6.811   7.582  10.433  0.1078 -0.6758 -0.3860
36780SOL    HW115151   6.721   7.605  10.408 -0.1414 -0.5474  0.6049
36780SOL    HW215152   6.803   7.540  10.518  1.2797  2.6627  1.5752
36781SOL     OW15153  10.911  11.095   1.470 -0.3888  0.0924 -0.0728
36781SOL    HW115154  10.931  11.022   1.412 -0.6671 -1.0239  1.1786
36781SOL    HW215155  10.974  11.087   1.542 -0.0485  1.4436 -0.1943
36782SOL     OW15156   7.172   8.326   5.538  0.4716 -0.3396  0.1308
36782SOL    HW115157   7.135   8.274   5.609 -0.2289 -3.2726 -2.1889
36782SOL    HW215158   7.099   8.380   5.508  0.8415  1.1298  1.6782
36783SOL     OW15159   4.374   6.655  10.537  0.1212 -0.7734 -0.1370
36783SOL    HW115160   4.394   6.576  10.587 -0.4926 -1.3493 -0.7857
36783SOL    HW215161   4.300   6.630  10.482 -0.5159  0.4518  0.1298
36784SOL     OW15162   9.780   5.646  11.944  0.9986 -0.0777  0.0227
36784SOL    HW115163   9.783   5.703  12.020 -1.1707 -0.9991  0.8741
36784SOL    HW215164   9.694   5.663  11.905  0.7107 -2.0201 -0.2679
36785SOL     OW15165   8.193   1.010   2.092  0.1434 -0.2460 -0.2834
36785SOL    HW115166   8.218   1.055   2.173 -0.4664 -0.1395 -0.1424
36785SOL    HW215167   8.241   0.927   2.095  2.1623  0.8434 -1.1034
36786SOL     OW15168   5.059   7.475  11.388  0.0951  0.3324  0.0019
36786SOL    HW115169   5.007   7.536  11.337 -0.4839  0.4236  0.6941
36786SOL    HW215170   5.010   7.462  11.469 -0.1469 -1.5879 -0.4081
36787SOL     OW15171   2.474   1.707   1.037  0.4836  0.0624  0.4729
36787SOL    HW115172   2.535   1.735   0.969 -1.8508  0.0196 -1.8140
36787SOL    HW215173   2.428   1.787   1.062 -0.8263 -0.3980 -0.3607
36788SOL     OW15174   2.568   9.188   4.478  0.2904 -0.7096 -0.1492
36788SOL    HW115175   2.524   9.257   4.427  1.7765  2.1375  2.1346
36788SOL    HW215176   2.502   9.159   4.541 -0.2201 -1.0972 -0.8527
36789SOL     OW15177   1.341   4.854   5.574 -0.1804 -0.3181 -0.2923
36789SOL    HW115178   1.405   4.817   5.634 -0.1767 -0.3454 -0.3133
36789SOL    HW215179   1.382   4.850   5.488 -0.9787 -2.1962 -0.6362
36790SOL     OW15180   8.212  12.095   1.658  0.2151 -0.1169 -0.2872
36790SOL    HW115181   8.190  12.172   1.711  0.7009 -0.0515 -0.1820
36790SOL    HW215182   8.128  12.066   1.622  0.2331  1.5568 -1.8241
36791SOL     OW15183  10.327  12.015   4.035  0.3966 -0.0874 -0.9023
36791SOL    HW115184  10.310  12.000   4.128  0.5590  3.5185 -0.1228
36791SOL    HW215185  10.378  11.940   4.007  0.4480 -1.2344  1.9619
36792SOL     OW15186  12.554   7.383  12.048 -0.3250  0.0811 -0.2281
36792SOL    HW115187  12.597   7.400  12.132 -1.1260  1.7296 -0.1133
36792SOL    HW215188  12.501   7.304  12.064  2.0854 -1.6386 -0.2111
36793SOL     OW15189   3.402   8.559   2.915  0.0976 -0.1979  0.0739
36793SOL    HW115190   3.451   8.635   2.885 -0.5518  0.0787 -0.3282
36793SOL    HW215191   3.417   8.556   3.010 -0.5339  0.9384  0.2287
36794SOL     OW15192   2.070   3.398  12.195 -0.2106  0.2686 -0.1542
36794SOL    HW115193   2.141   3.422  12.136 -1.3246  0.8210 -1.2962
36794SOL    HW215194   2.109   3.332  12.253  0.5270 -1.4338 -2.4531
36795SOL     OW15195  11.210   1.533   5.178 -0.2186  0.6137  0.1521
36795SOL    HW115196  11.142   1.519   5.243 -1.1134 -1.2099 -1.1064
36795SOL    HW215197  11.285   1.481   5.210 -0.6568 -0.2790 -0.2244
36796SOL     OW15198   5.194   3.738   7.043  0.1762  0.0157  0.7244
36796SOL    HW115199   5.263   3.803   7.046  1.9168 -1.6435 -0.8293
36796SOL    HW215200   5.239   3.656   7.022 -2.2811 -1.1042 -0.5946
36797SOL     OW15201   2.107   3.034  10.255 -0.1343 -0.0981  0.5353
36797SOL    HW115202   2.157   3.113  10.276  1.1404 -0.8740  0.5020
36797SOL    HW215203   2.143   3.003  10.172 -1.4663 -0.0478 -0.0852
36798SOL     OW15204   0.739   8.322   6.139 -0.4865 -0.1719  1.1392
36798SOL    HW115205   0.736   8.336   6.234 -1.4195 -0.0116  1.0981
36798SOL    HW215206   0.647   8.321   6.112 -0.2182  0.4933  0.1380
36799SOL     OW15207  11.753   4.533   5.845 -0.2192 -0.1925  0.8537
36799SOL    HW115208  11.754   4.494   5.933 -1.7643 -0.7523  0.6633
36799SOL    HW215209  11.667   4.510   5.810  0.6322 -0.5846 -1.1097
36800SOL     OW15210   1.701   3.517   6.890 -0.2633 -0.0245  0.1501
36800SOL    HW115211   1.793   3.490   6.883 -0.8107 -1.8309 -0.4419
36800SOL    HW215212   1.656   3.441   6.927 -1.6685  0.5474 -0.3245
36801SOL     OW15213   4.542   3.539   5.098 -0.9834 -0.4240  0.2622
36801SOL    HW115214   4.461   3.573   5.059 -0.8092 -2.1143 -1.7328
36801SOL    HW215215   4.610   3.562   5.035  0.2733  1.4009  2.1381
36802SOL     OW15216   4.540   9.838   3.900 -0.4231 -0.4214 -0.3358
36802SOL    HW115217   4.488   9.772   3.945 -1.2533  0.2180 -0.3428
36802SOL    HW215218   4.631   9.812   3.917 -0.7267 -1.4128 -0.1269
36803SOL     OW15219  10.760   5.012   6.195  0.0602  0.2084  0.0060
36803SOL    HW115220  10.689   4.949   6.186 -1.1210  1.3457  0.8710
36803SOL    HW215221  10.717   5.097   6.187  1.7773  0.9632 -2.4248
36804SOL     OW15222  10.005   8.500   8.142 -0.1003 -0.1562  0.3408
36804SOL    HW115223   9.963   8.463   8.064  0.6724 -0.7107  0.1887
36804SOL    HW215224  10.086   8.451   8.152  0.1881  0.4487  1.0410
36805SOL     OW15225   0.129   8.454  12.169 -0.7833 -0.1462  0.0759
36805SOL    HW115226   0.207   8.502  12.141  0.8698 -1.7081  1.7219
36805SOL    HW215227   0.106   8.400  12.094  1.8026 -2.1084  0.5422
36806SOL     OW15228   9.742  10.464   9.781  0.0408  0.3971 -0.1050
36806SOL    HW115229   9.692  10.427   9.708  1.9532 -0.5668 -1.0017
36806SOL    HW215230   9.762  10.389   9.837 -0.7843  1.0164  1.0726
36807SOL     OW15231   2.778   2.102   6.020 -0.8134 -0.0443  0.2577
36807SOL    HW115232   2.792   2.186   5.976  0.2031 -0.0530  0.5276
36807SOL    HW215233   2.850   2.097   6.083 -1.2690 -0.8078  0.7209
36808SOL     OW15234   8.738   4.080   9.077 -0.4710  0.5539  0.1964
36808SOL    HW115235   8.735   4.079   9.173  2.4667  0.8462  0.3720
36808SOL    HW215236   8.672   4.144   9.052 -0.2067  1.6572  2.1116
36809SOL     OW15237  11.713   5.916   0.897  0.1891 -0.2993  0.2372
36809SOL    HW115238  11.623   5.897   0.925  0.1616 -2.3978 -1.0814
36809SOL    HW215239  11.715   6.012   0.888 -2.4607 -0.2810 -1.3414
36810SOL     OW15240  10.312   4.737   6.113 -0.5009 -0.4374  0.1038
36810SOL    HW115241  10.259   4.795   6.168  0.6868 -0.0860  0.9037
36810SOL    HW215242  10.280   4.649   6.133 -0.7437 -0.2352  0.6277
36811SOL     OW15243  11.570  10.621   3.733 -0.2226  0.5118  0.4384
36811SOL    HW115244  11.489  10.570   3.732 -0.2105  0.3496 -2.4966
36811SOL    HW215245  11.548  10.700   3.683  1.7403 -0.1921 -1.6957
36812SOL     OW15246   0.162  10.978   0.139  0.6730  0.2239 -0.9762
36812SOL    HW115247   0.249  11.014   0.122  0.0445  2.3635 -0.0079
36812SOL    HW215248   0.117  11.047   0.188 -2.0871 -0.1492 -2.7504
36813SOL     OW15249  11.530   5.822   2.004 -0.1075 -0.1400  0.0410
36813SOL    HW115250  11.617   5.858   1.988  0.4356 -1.9536 -1.4054
36813SOL    HW215251  11.472   5.898   1.998  1.2771  0.9933  0.3267
36814SOL     OW15252  10.613   7.104   3.968 -0.1552  0.2286  0.6294
36814SOL    HW115253  10.588   7.196   3.975 -0.3973  0.0422  2.9839
36814SOL    HW215254  10.703   7.101   4.000  0.4600 -0.1644 -1.0095
36815SOL     OW15255  12.115   8.307   9.505  0.2478  0.0697  0.2662
36815SOL    HW115256  12.188   8.315   9.567 -2.2837  0.7280  3.4006
36815SOL    HW215257  12.083   8.396   9.495 -1.1896 -0.4082  0.3928
36816SOL     OW15258   3.844   5.155  11.922 -0.3445  0.0913  0.0287
36816SOL    HW115259   3.859   5.118  11.835 -0.6309  0.3335 -0.1251
36816SOL    HW215260   3.806   5.082  11.972 -0.5758  0.0710 -0.1722
36817SOL     OW15261   8.000   2.849   4.924  0.1610  0.1478  0.5081
36817SOL    HW115262   7.979   2.783   4.990 -1.5937  0.7902  0.6280
36817SOL    HW215263   8.032   2.924   4.974 -0.8438  0.5116  0.6136
36818SOL     OW15264   5.206  10.156  10.172  0.0810 -0.1585  0.2228
36818SOL    HW115265   5.143  10.092  10.207  1.5335 -0.9581  1.4682
36818SOL    HW215266   5.151  10.229  10.143 -1.4674 -1.0400  0.7731
36819SOL     OW15267   0.605  10.256   2.206  0.4433 -0.0005  0.2439
36819SOL    HW115268   0.518  10.287   2.185  0.4194  0.6703  1.3003
36819SOL    HW215269   0.593  10.200   2.283  0.9702  0.2663  0.5242
36820SOL     OW15270  11.859   1.495   0.362  0.3651 -0.2057  0.0048
36820SOL    HW115271  11.811   1.532   0.437  2.9159  0.4603  1.4117
36820SOL    HW215272  11.926   1.440   0.401  0.7496 -1.1753 -1.9012
36821SOL     OW15273   0.419   6.201   9.041 -0.6682  0.1294  0.0503
36821SOL    HW115274   0.380   6.126   8.997 -0.1589  0.1317 -0.4280
36821SOL    HW215275   0.348   6.242   9.090 -1.3222  0.3026 -1.0273
36822SOL     OW15276  12.056   1.371   4.944  0.4495 -0.1227  0.4642
36822SOL    HW115277  12.095   1.367   4.857  0.3073 -0.3532  0.4105
36822SOL    HW215278  12.009   1.454   4.945  3.2615  1.5923  1.5179
36823SOL     OW15279   8.896  11.914   6.691 -0.1929 -0.3909 -0.4505
36823SOL    HW115280   8.858  11.872   6.768  1.7154 -0.9444  0.2308
36823SOL    HW215281   8.894  11.846   6.624 -2.3846  0.2594 -1.1524
36824SOL     OW15282   3.307   0.676   2.988  0.3226 -0.4973 -0.0722
36824SOL    HW115283   3.248   0.729   2.934 -0.9275 -0.6956  1.0592
36824SOL    HW215284   3.384   0.663   2.933 -1.1925 -1.3549 -2.1356
36825SOL     OW15285   2.057   0.126   3.326 -0.1355 -0.5676 -0.1750
36825SOL    HW115286   2.032   0.195   3.264  0.4592  1.2288  1.4639
36825SOL    HW215287   1.976   0.078   3.343 -0.5059 -0.4670 -1.5919
36826SOL     OW15288   8.415   8.503   9.244 -0.1909  0.4163 -0.6083
36826SOL    HW115289   8.412   8.567   9.173 -1.0052  2.1550  0.9051
36826SOL    HW215290   8.335   8.451   9.233 -0.3384  0.7084 -0.9434
36827SOL     OW15291   2.398   9.277   1.575 -0.5766  0.3596  0.3079
36827SOL    HW115292   2.407   9.356   1.628 -1.1793  0.3069  0.5025
36827SOL    HW215293   2.385   9.207   1.639  0.6574 -0.0163  0.1739
36828SOL     OW15294   1.422   7.815  11.088 -0.0497  0.4891  0.0230
36828SOL    HW115295   1.506   7.856  11.104 -0.7152  1.5334  0.9840
36828SOL    HW215296   1.378   7.872  11.025 -0.3652  0.4182  0.1726
36829SOL     OW15297   1.876   6.539  10.506  0.4499  0.5836  0.6308
36829SOL    HW115298   1.842   6.611  10.453  0.8440  0.2405 -0.1056
36829SOL    HW215299   1.969   6.560  10.517  1.2840 -1.2248 -2.0650
36830SOL     OW15300   5.041   7.485   5.053  0.0454 -0.7498  0.5480
36830SOL    HW115301   5.054   7.579   5.040 -1.6467 -0.3872  1.1238
36830SOL    HW215302   5.115   7.457   5.107  0.4599  0.2981  0.5363
36831SOL     OW15303   5.251   9.403   0.809 -0.0289  0.5435 -0.1701
36831SOL    HW115304   5.201   9.458   0.748  2.1045  2.1241 -0.6145
36831SOL    HW215305   5.226   9.433   0.896 -0.1526  1.0331 -0.3754
36832SOL     OW15306   6.471   3.817   5.539  0.0893 -0.6618 -0.0747
36832SOL    HW115307   6.532   3.777   5.477 -0.6068 -0.3864 -0.9541
36832SOL    HW215308   6.486   3.911   5.531 -2.4615 -0.3424 -2.5372
36833SOL     OW15309   6.007   9.862   0.752  0.4566  0.2513 -0.2778
36833SOL    HW115310   6.073   9.907   0.699  1.5264  1.3066  1.8550
36833SOL    HW215311   5.973   9.928   0.811 -0.0751 -1.0643  0.9604
36834SOL     OW15312   1.811   7.260   0.260  0.1149 -0.1419 -0.1171
36834SOL    HW115313   1.827   7.351   0.284  0.9185 -0.7366  1.7835
36834SOL    HW215314   1.762   7.223   0.333 -2.3865 -0.6922 -1.9190
36835SOL     OW15315  11.084  11.047   2.046  0.2474 -0.0355 -0.2229
36835SOL    HW115316  11.177  11.026   2.038  0.0389 -0.3357 -3.8910
36835SOL    HW215317  11.040  10.963   2.032 -0.5421  0.4416 -0.6747
36836SOL     OW15318   1.785   4.518   2.388 -0.3984 -0.1117 -0.7752
36836SOL    HW115319   1.808   4.565   2.468  0.5353 -0.9749 -0.5116
36836SOL    HW215320   1.823   4.571   2.318 -1.5021  0.8211 -0.6990
36837SOL     OW15321   2.532  10.859   8.070 -0.0839  0.0629  0.5761
36837SOL    HW115322   2.464  10.927   8.065  0.0091  0.1262  0.1848
36837SOL    HW215323   2.609  10.905   8.105 -0.4108 -0.1394  1.5979
36838SOL     OW15324   8.607   3.246   9.641 -0.2767  0.1355  0.2973
36838SOL    HW115325   8.524   3.292   9.633  0.5710  1.7649  0.4528
36838SOL    HW215326   8.610   3.219   9.733 -0.6564  0.0290  0.2786
36839SOL     OW15327   9.937   0.355   7.159 -0.7970  0.5435  0.2916
36839SOL    HW115328   9.909   0.432   7.109  0.6407  2.0781  1.6730
36839SOL    HW215329  10.030   0.347   7.140 -1.1472 -1.6768 -0.7677
36840SOL     OW15330   9.183   0.631   6.072  0.0650 -0.0428 -0.2211
36840SOL    HW115331   9.277   0.611   6.073 -0.0774 -0.7366  1.0958
36840SOL    HW215332   9.140   0.546   6.069 -0.5362  0.2437  0.0344
36841SOL     OW15333   0.175  12.533  11.167  0.2626 -0.0571 -0.5249
36841SOL    HW115334   0.170  12.440  11.189  0.6466 -0.1451 -0.7922
36841SOL    HW215335   0.203  12.535  11.076  3.1602  0.3017  0.2514
36842SOL     OW15336   8.397   0.726   3.626  0.3331  0.0615  0.2437
36842SOL    HW115337   8.327   0.780   3.662 -0.4679 -2.3531  2.6328
36842SOL    HW215338   8.472   0.786   3.619 -0.5668  1.5976  2.4966
36843SOL     OW15339   6.682   3.132  10.855 -0.4532  0.1073  0.1017
36843SOL    HW115340   6.662   3.223  10.836  0.0348  0.0743 -0.6209
36843SOL    HW215341   6.771   3.134  10.891  0.0636 -0.1893 -1.0992
36844SOL     OW15342   3.794   2.520   6.675  0.2339  0.5004 -0.2240
36844SOL    HW115343   3.783   2.572   6.596  0.7617  0.2967 -0.4308
36844SOL    HW215344   3.705   2.514   6.712 -0.7967 -2.4519 -2.7391
36845SOL     OW15345   8.342   0.634  10.243  0.8329 -0.0886  0.0975
36845SOL    HW115346   8.402   0.598  10.177  1.2925 -1.2672  1.1144
36845SOL    HW215347   8.259   0.589  10.227  1.2290 -1.1806  0.9489
36846SOL     OW15348   7.550   6.802   0.888  0.3292 -0.1157  0.8858
36846SOL    HW115349   7.563   6.784   0.795  0.3148 -1.2519  1.0862
36846SOL    HW215350   7.622   6.860   0.912  0.9925 -0.7241  0.4160
36847SOL     OW15351   2.966  11.417   3.975 -0.7382 -0.0943 -0.5582
36847SOL    HW115352   3.037  11.457   4.027 -0.2495 -0.1424 -1.1794
36847SOL    HW215353   2.910  11.374   4.040  0.8776 -1.7736 -0.1774
36848SOL     OW15354   1.855   2.408   9.621  0.0317  0.1289 -0.3900
36848SOL    HW115355   1.865   2.501   9.636  1.6065  0.0211 -0.6111
36848SOL    HW215356   1.931   2.368   9.664  0.4260 -0.8585 -1.9258
36849SOL     OW15357   3.307   0.607   2.430 -0.1809  0.8451  0.0912
36849SOL    HW115358   3.329   0.640   2.343 -2.5659 -0.8758 -1.2708
36849SOL    HW215359   3.225   0.652   2.453 -1.5078 -1.2757 -0.2046
36850SOL     OW15360  11.827   2.463   5.269  0.2123 -0.2332  0.0186
36850SOL    HW115361  11.832   2.556   5.291 -1.1144 -0.2744  0.6164
36850SOL    HW215362  11.787   2.461   5.182  1.4997 -0.2169 -0.5936
36851SOL     OW15363   7.155   8.561  12.243  0.6242  0.4252  0.2842
36851SOL    HW115364   7.154   8.657  12.239  0.0051  0.4732  1.3147
36851SOL    HW215365   7.247   8.538  12.228  0.5277  1.0798 -1.5911
36852SOL     OW15366   8.375   4.748   5.018  0.6299  0.8741  0.2930
36852SOL    HW115367   8.304   4.697   4.980  1.8752 -0.2530 -0.6411
36852SOL    HW215368   8.342   4.838   5.022 -0.7513  0.4076 -0.3234
36853SOL     OW15369   7.848   7.909   0.533 -0.4051 -0.3484 -0.2283
36853SOL    HW115370   7.846   7.980   0.597  0.0030 -0.8870  0.3990
36853SOL    HW215371   7.860   7.953   0.449  1.7081  0.2596  0.3221
36854SOL     OW15372   6.746   7.929   8.285  0.0269  0.0855 -0.1572
36854SOL    HW115373   6.792   7.956   8.365  0.3449 -1.0020  0.0478
36854SOL    HW215374   6.810   7.943   8.215 -0.2284  0.9747 -0.2304
36855SOL     OW15375   9.206   0.138   3.597  0.1638 -0.0972 -0.0776
36855SOL    HW115376   9.141   0.160   3.664 -0.3892 -1.1558 -0.2555
36855SOL    HW215377   9.269   0.081   3.642  0.2257 -0.1714 -0.2572
36856SOL     OW15378   6.696  11.944   8.824 -0.5083 -0.4468 -0.3392
36856SOL    HW115379   6.764  11.878   8.836 -2.9569 -2.9128  1.1947
36856SOL    HW215380   6.663  11.928   8.735  0.4809  0.3520 -0.8601
36857SOL     OW15381   6.391   8.777   1.980  0.1715 -0.5219  0.0855
36857SOL    HW115382   6.393   8.689   1.941  0.3273 -0.4281 -0.1175
36857SOL    HW215383   6.318   8.821   1.935 -0.5048 -0.8467  0.8396
36858SOL     OW15384  12.449   0.058   3.487  0.3247  0.4642  0.2611
36858SOL    HW115385  12.491  -0.026   3.468 -0.8545 -0.2706  0.7909
36858SOL    HW215386  12.367   0.034   3.531 -0.8549  1.8182 -1.1142
36859SOL     OW15387   4.326   8.214   0.941 -0.0811  0.6324 -0.1173
36859SOL    HW115388   4.367   8.178   0.863 -0.4574  1.6005 -0.7792
36859SOL    HW215389   4.250   8.262   0.908 -0.7530  0.3177  0.9292
36860SOL     OW15390   2.922   2.752   7.635  0.3599  0.0779 -0.3625
36860SOL    HW115391   2.854   2.684   7.632  0.7693 -0.3575 -0.0058
36860SOL    HW215392   2.935   2.767   7.729  0.7357  0.1836 -0.4328
36861SOL     OW15393   5.817   0.275   4.146 -0.2158  0.0694 -0.1352
36861SOL    HW115394   5.892   0.334   4.151  0.8418 -1.2626  0.2274
36861SOL    HW215395   5.772   0.299   4.065 -0.3257  1.9453  0.4463
36862SOL     OW15396  12.149   4.071   2.936 -0.5903 -0.1047 -0.9112
36862SOL    HW115397  12.123   4.046   3.025 -0.9722 -0.7869 -1.2086
36862SOL    HW215398  12.183   3.990   2.897  2.9303  0.8705 -0.2531
36863SOL     OW15399   6.714   5.218   9.662 -0.0426 -0.4048  0.2817
36863SOL    HW115400   6.734   5.311   9.675  0.3651 -0.5603  0.8197
36863SOL    HW215401   6.673   5.214   9.576  1.4027  0.0660 -0.4683
36864SOL     OW15402  11.303   6.772  10.624  0.3995  0.0395 -0.0608
36864SOL    HW115403  11.268   6.770  10.535  3.2127  0.7614 -1.2867
36864SOL    HW215404  11.356   6.852  10.628  0.7029 -0.1954  2.1252
36865SOL     OW15405   5.296   1.239   2.123 -0.0855  0.0626 -0.0825
36865SOL    HW115406   5.206   1.225   2.093  0.5376 -0.7981 -1.6543
36865SOL    HW215407   5.298   1.331   2.148 -1.1637  0.3519 -0.9470
36866SOL     OW15408   9.394   0.686   0.220 -0.2020  0.0173  0.0195
36866SOL    HW115409   9.453   0.633   0.166 -0.4707 -0.3861  0.1184
36866SOL    HW215410   9.400   0.774   0.183  2.3546  0.5772  1.5101
36867SOL     OW15411   4.940   2.595   4.416  0.2027  0.3391 -0.1873
36867SOL    HW115412   4.933   2.611   4.322 -0.2446  3.4355  0.2762
36867SOL    HW215413   5.012   2.652   4.445  1.4051 -1.7107  1.1775
36868SOL     OW15414   7.498  10.018   3.968 -0.6287 -0.2002  0.1629
36868SOL    HW115415   7.473   9.928   3.949  0.7577 -0.2838 -1.4694
36868SOL    HW215416   7.415  10.064   3.982 -1.3659 -1.6375  0.7346
36869SOL     OW15417  11.595  11.675   2.513 -0.3817 -0.3989 -0.1598
36869SOL    HW115418  11.537  11.724   2.456 -2.5448  0.1398  2.3141
36869SOL    HW215419  11.656  11.741   2.548  0.6678 -0.6541 -1.4483
36870SOL     OW15420   0.976   8.779   6.163  0.1044 -0.0824 -0.0361
36870SOL    HW115421   0.939   8.820   6.241 -1.1850  0.1523 -0.7283
36870SOL    HW215422   1.062   8.819   6.152 -0.0705  0.5288  0.7675
36871SOL     OW15423   7.218   4.035   9.340 -0.2357  0.3287 -0.3399
36871SOL    HW115424   7.269   3.962   9.376 -0.1426  0.5925  0.0712
36871SOL    HW215425   7.226   4.024   9.245  0.8702  0.5450 -0.2953
36872SOL     OW15426  11.992   5.194   4.719 -0.0504 -0.1020 -0.3839
36872SOL    HW115427  11.903   5.218   4.697 -0.0599 -0.9989 -1.4060
36872SOL    HW215428  12.043   5.273   4.703 -0.6211  0.3505 -0.0016
36873SOL     OW15429   7.826   4.481   2.759 -0.4294  0.1647 -0.3917
36873SOL    HW115430   7.819   4.494   2.664  0.4287 -1.6860 -0.7627
36873SOL    HW215431   7.895   4.541   2.786  1.2461 -1.1707 -1.4679
36874SOL     OW15432   7.681  10.864  12.629 -0.9676  0.5215  0.3498
36874SOL    HW115433   7.648  10.799  12.691 -1.3878  0.5024  0.1089
36874SOL    HW215434   7.665  10.826  12.542  2.1613 -0.7446  0.1981
36875SOL     OW15435   5.691   7.005  10.358  0.3010 -0.7267 -0.2388
36875SOL    HW115436   5.596   7.003  10.353  0.2367  1.3117 -0.9770
36875SOL    HW215437   5.710   7.019  10.451 -0.2153  0.3026 -0.2708
36876SOL     OW15438   1.774   1.962   4.638 -0.3405  0.1031 -0.1634
36876SOL    HW115439   1.863   1.944   4.605 -0.6601 -1.4170 -0.2907
36876SOL    HW215440   1.782   1.951   4.733 -0.4556 -0.3812 -0.2064
36877SOL     OW15441  10.884   7.130   3.286 -0.7048 -0.4143 -0.2630
36877SOL    HW115442  10.799   7.173   3.273 -0.0210  0.7556 -1.0652
36877SOL    HW215443  10.942   7.174   3.224  0.5866 -0.9171  0.5586
36878SOL     OW15444   1.558   7.366   3.832  0.2373 -0.1490 -0.3334
36878SOL    HW115445   1.569   7.392   3.924 -1.6983 -0.9717  0.1858
36878SOL    HW215446   1.558   7.270   3.834  0.9945 -0.1789 -1.3154
36879SOL     OW15447   8.296   7.160  11.688  0.3860 -0.0045  0.0266
36879SOL    HW115448   8.301   7.248  11.725  0.1910 -0.2254  0.5899
36879SOL    HW215449   8.381   7.146  11.647 -0.7354  1.8318 -3.3025
36880SOL     OW15450  10.402  12.636   1.595 -0.0817  0.2076 -0.1480
36880SOL    HW115451  10.453  12.697   1.541 -0.8451  0.2615 -0.8230
36880SOL    HW215452  10.385  12.684   1.676 -0.0480  0.6216 -0.3826
36881SOL     OW15453   0.847  11.813  11.700  0.4425 -0.3348  0.1803
36881SOL    HW115454   0.883  11.895  11.665  0.1181  0.5385  1.7813
36881SOL    HW215455   0.753  11.827  11.700  0.4697  0.5896  3.2509
36882SOL     OW15456   6.602   6.045   9.480  0.0668 -0.3320  0.5657
36882SOL    HW115457   6.562   6.130   9.496 -0.0861 -0.3039  0.0651
36882SOL    HW215458   6.531   5.991   9.446  0.1360 -0.6956  0.9894
36883SOL     OW15459   2.972   7.860   9.058  0.6502  0.6844  0.5568
36883SOL    HW115460   2.941   7.947   9.085  0.1857  0.3916  1.0006
36883SOL    HW215461   3.036   7.836   9.126  0.0147  0.2511  1.0144
36884SOL     OW15462   2.047   7.210   0.147 -0.4873  0.1427 -0.1391
36884SOL    HW115463   2.082   7.127   0.179 -0.3385  0.5248  0.6989
36884SOL    HW215464   1.959   7.215   0.182 -0.3577  0.5214  0.1404
36885SOL     OW15465   6.925   6.756   0.358  0.3398 -0.2175 -0.2917
36885SOL    HW115466   6.933   6.700   0.281  0.6063 -2.8121  1.4833
36885SOL    HW215467   6.839   6.735   0.395 -0.2567  1.7928 -0.3967
36886SOL     OW15468   4.062   6.446   8.687 -0.0606 -0.1886 -0.1464
36886SOL    HW115469   4.003   6.510   8.727 -1.8660 -1.2151 -1.0249
36886SOL    HW215470   4.110   6.408   8.760 -0.6298  0.5384  0.6267
36887SOL     OW15471   2.884   4.557   6.999 -0.7122 -0.4641  0.3015
36887SOL    HW115472   2.923   4.597   7.077 -0.4693 -2.3496  1.1987
36887SOL    HW215473   2.798   4.527   7.028 -1.8038  1.2712 -0.9463
36888SOL     OW15474   0.943   5.418   7.850  0.0620  0.3965  0.2717
36888SOL    HW115475   0.850   5.419   7.826  0.0964  0.5206  0.1449
36888SOL    HW215476   0.989   5.416   7.766  0.1722  0.1945  0.3357
36889SOL     OW15477   6.441  11.784   8.302 -0.5143 -0.3893 -0.5142
36889SOL    HW115478   6.411  11.830   8.224 -0.2373  2.6249  1.0325
36889SOL    HW215479   6.524  11.826   8.325 -0.8391 -0.8165  1.6687
36890SOL     OW15480   7.724   6.027   3.438 -0.2666  0.4201  0.0492
36890SOL    HW115481   7.645   6.037   3.385 -1.0536 -0.8064  0.9483
36890SOL    HW215482   7.779   5.968   3.387 -0.2441  0.6744 -0.2262
36891SOL     OW15483  10.836   0.714  11.004  0.3248 -0.2423 -0.8480
36891SOL    HW115484  10.855   0.640  11.062  4.2930  0.4334 -1.0320
36891SOL    HW215485  10.797   0.780  11.062 -0.9546 -1.5315 -0.1732
36892SOL     OW15486   5.932   8.164  12.456 -0.6683 -0.6447 -0.4015
36892SOL    HW115487   5.953   8.173  12.363  0.4235  2.6523  0.0645
36892SOL    HW215488   6.015   8.179  12.501 -1.4657 -0.7212  1.1597
36893SOL     OW15489   1.511   9.960  11.213 -0.3757 -0.1460  0.1880
36893SOL    HW115490   1.456   9.992  11.284  0.2205  1.4881 -0.0459
36893SOL    HW215491   1.600   9.983  11.239 -0.1477  0.4414 -1.0388
36894SOL     OW15492  10.945  11.732   9.822 -0.2220 -0.1963  0.2524
36894SOL    HW115493  10.867  11.691   9.861  0.1930  0.6182  2.0402
36894SOL    HW215494  10.923  11.825   9.819  0.6775  0.0387  0.7960
36895SOL     OW15495   1.794   8.602   4.898 -0.1231  0.8230  0.1039
36895SOL    HW115496   1.704   8.577   4.920  0.2733 -0.5625  0.2329
36895SOL    HW215497   1.845   8.523   4.913  0.8217  1.0151 -1.8085
36896SOL     OW15498   7.703  10.412  12.281  0.1014  0.0927  0.4305
36896SOL    HW115499   7.665  10.434  12.196  0.2324 -0.8596  0.1199
36896SOL    HW215500   7.782  10.363  12.261  0.4965  0.4318  1.1046
36897SOL     OW15501  10.598  11.005   4.675  0.5711  0.5990  0.4705
36897SOL    HW115502  10.678  11.035   4.717  0.7424  1.3705 -0.3731
36897SOL    HW215503  10.584  11.066   4.603  1.1505 -1.5583 -1.6088
36898SOL     OW15504   2.058   8.121  11.447  0.0718 -0.0096  0.3389
36898SOL    HW115505   2.021   8.090  11.530 -0.0869 -0.5181  0.0801
36898SOL    HW215506   2.150   8.134  11.466  0.3533 -1.5831  0.2097
36899SOL     OW15507  10.356   8.963  11.651  0.1474 -0.0124 -0.3546
36899SOL    HW115508  10.437   8.923  11.619  0.6994  0.4832  0.3823
36899SOL    HW215509  10.315   8.896  11.705 -1.1511 -1.1229 -2.5484
36900SOL     OW15510   2.034   6.693   6.605 -0.6331 -0.0501 -0.8957
36900SOL    HW115511   2.018   6.769   6.662 -1.0214 -0.3600 -0.5852
36900SOL    HW215512   2.110   6.719   6.552 -0.8492  0.6126 -0.8991
36901SOL     OW15513   4.418  12.193   9.517  0.0140 -0.9555  0.1815
36901SOL    HW115514   4.456  12.225   9.599 -2.3859 -0.9587  1.3910
36901SOL    HW215515   4.493  12.171   9.463  1.6992  0.1436  1.9374
36902SOL     OW15516  10.407   7.650   8.792 -0.3300 -0.5365  0.0364
36902SOL    HW115517  10.378   7.626   8.880  1.2790  0.5636  0.9223
36902SOL    HW215518  10.492   7.608   8.782  0.1377  0.4662 -0.4153
36903SOL     OW15519   6.198   3.037   1.006  0.5776  0.2318 -0.1061
36903SOL    HW115520   6.280   3.040   0.957  1.2309  1.4730  1.0069
36903SOL    HW215521   6.171   2.945   1.001  0.6220  0.2883 -2.6968
36904SOL     OW15522   7.329   2.310  11.915 -0.1054 -0.1101  0.1626
36904SOL    HW115523   7.284   2.394  11.914  0.6902  0.3307  0.2981
36904SOL    HW215524   7.359   2.300  12.006 -0.1270 -0.5050  0.1286
36905SOL     OW15525   6.118  11.279   8.889 -0.2972  0.0638 -0.3800
36905SOL    HW115526   6.085  11.291   8.979 -0.5668  1.7728 -0.6778
36905SOL    HW215527   6.076  11.198   8.860 -1.7983  0.5144  0.3690
36906SOL     OW15528   7.088   0.576   9.024  0.4903 -0.5355 -0.0743
36906SOL    HW115529   7.115   0.658   8.983  0.3154 -0.5943 -0.3063
36906SOL    HW215530   7.108   0.588   9.117  0.4145 -0.2093 -0.0998
36907SOL     OW15531   4.024   9.720  10.434 -0.4026 -0.0645  0.1361
36907SOL    HW115532   4.073   9.665  10.373 -1.3662 -0.1740 -0.5638
36907SOL    HW215533   3.964   9.770  10.378 -0.5740  0.6006  0.8988
36908SOL     OW15534   8.981   8.342   3.141 -0.8916  0.7736  0.1069
36908SOL    HW115535   8.987   8.425   3.189  1.3656  1.4146 -1.1232
36908SOL    HW215536   9.042   8.284   3.186 -0.7502  0.5194 -0.4075
36909SOL     OW15537   8.602   9.895   3.785  0.3988  0.4525 -0.1612
36909SOL    HW115538   8.634   9.816   3.829  0.4265  0.4458 -0.1931
36909SOL    HW215539   8.588   9.868   3.694  0.8042  0.5905 -0.2655
36910SOL     OW15540   6.607   3.003   8.689  0.3726 -0.5071 -0.1687
36910SOL    HW115541   6.555   3.074   8.651 -1.6835 -1.1574  1.2377
36910SOL    HW215542   6.614   2.938   8.620 -0.5315 -0.3096 -0.4595
36911SOL     OW15543  11.261  10.005   5.628  0.0989  0.3001  0.0794
36911SOL    HW115544  11.310  10.007   5.546  1.3912 -1.8512  0.7136
36911SOL    HW215545  11.284  10.088   5.672  0.2738  0.9559 -1.2107
36912SOL     OW15546   0.063   0.108  10.116 -0.3373 -0.0383  0.5556
36912SOL    HW115547   0.133   0.142  10.172 -0.0047 -1.2659  0.9131
36912SOL    HW215548   0.037   0.183  10.062  0.8219  0.5992  0.8470
36913SOL     OW15549   1.471  11.095   0.303 -0.1093 -0.4914 -0.3130
36913SOL    HW115550   1.453  11.076   0.395  0.6498  0.4399  0.0393
36913SOL    HW215551   1.478  11.191   0.299 -0.5005 -0.4875 -1.4124
36914SOL     OW15552   2.154   6.126  12.088 -0.1221 -0.2593  0.5072
36914SOL    HW115553   2.146   6.124  11.992  0.6292 -1.0291  0.4430
36914SOL    HW215554   2.136   6.036  12.115  2.4578 -0.7871  0.8026
36915SOL     OW15555   8.618   8.639   3.096  0.0748  0.2700  0.6383
36915SOL    HW115556   8.563   8.566   3.124 -0.8054  0.6614 -0.0560
36915SOL    HW215557   8.564   8.689   3.035  1.1205  0.7922  0.1198
36916SOL     OW15558   5.701   3.044   3.666 -0.2331 -0.2401  0.5052
36916SOL    HW115559   5.768   3.061   3.733 -0.7378  1.1956  0.6858
36916SOL    HW215560   5.618   3.062   3.711 -0.6455 -0.3676 -0.1930
36917SOL     OW15561   0.473   5.201   9.783  0.2831  0.8526  0.3438
36917SOL    HW115562   0.475   5.291   9.752  1.2544  0.3486 -1.1887
36917SOL    HW215563   0.553   5.161   9.748  0.0986 -0.4987  1.3424
36918SOL     OW15564   0.104   3.961   5.204 -0.1596  0.1624 -0.0195
36918SOL    HW115565   0.010   3.946   5.194  0.0732 -1.3597 -0.1500
36918SOL    HW215566   0.145   3.885   5.163  1.0750 -0.4789  2.2508
36919SOL     OW15567  12.603   0.430  12.323  0.6349  0.0664  0.0681
36919SOL    HW115568  12.621   0.513  12.369  0.9443 -0.3390  0.6956
36919SOL    HW215569  12.578   0.370  12.393 -0.6536 -0.0852 -0.5067
36920SOL     OW15570   4.491   5.336   3.944  0.0629  0.0296 -0.3177
36920SOL    HW115571   4.571   5.342   3.891 -0.5896 -2.3872 -1.7508
36920SOL    HW215572   4.490   5.246   3.975 -1.8628  0.1400  0.0717
36921SOL     OW15573  10.380   4.456   0.182  0.4304 -0.2422 -0.0036
36921SOL    HW115574  10.460   4.414   0.213  1.4074  1.9282  0.5984
36921SOL    HW215575  10.391   4.464   0.088 -0.1188 -1.9455 -0.2474
36922SOL     OW15576   3.190   4.688  10.114  0.0499  0.0081  0.3478
36922SOL    HW115577   3.278   4.675  10.151  0.5904  0.7091 -0.6234
36922SOL    HW215578   3.132   4.692  10.191  1.0091  0.5685  1.0703
36923SOL     OW15579  10.827   3.430   5.710  0.4547 -0.2140  0.1475
36923SOL    HW115580  10.808   3.404   5.800 -0.3187  2.0080  0.7091
36923SOL    HW215581  10.741   3.451   5.672  0.9269  0.8223 -0.4079
36924SOL     OW15582   8.381   9.757  11.196 -0.0176  0.2390  0.1986
36924SOL    HW115583   8.442   9.691  11.163 -1.3291 -0.6772 -0.4459
36924SOL    HW215584   8.349   9.801  11.117  0.5275  1.4110  0.5912
36925SOL     OW15585  12.244   6.781   2.195 -0.2412 -0.2714  0.3400
36925SOL    HW115586  12.328   6.735   2.199 -1.0566 -1.8039  0.5390
36925SOL    HW215587  12.198   6.754   2.274 -0.3479  1.7753  1.0234
36926SOL     OW15588   5.120   2.958   3.813  0.6619  0.2811  0.0917
36926SOL    HW115589   5.166   2.908   3.745 -0.6130  2.0592 -2.2447
36926SOL    HW215590   5.028   2.952   3.788  0.2899  2.0741  0.8782
36927SOL     OW15591   1.875   5.490   6.641  0.2913 -0.2862 -0.5512
36927SOL    HW115592   1.791   5.484   6.596 -0.8131  0.7454  1.2404
36927SOL    HW215593   1.884   5.406   6.686 -0.3325  0.0022  0.1292
36928SOL     OW15594   6.517  10.346   1.249  0.0133  0.1891  0.8419
36928SOL    HW115595   6.443  10.288   1.230  0.3227  0.3336 -1.0944
36928SOL    HW215596   6.585  10.288   1.281 -0.9033  0.0522  2.6453
36929SOL     OW15597   3.352   9.430  11.253  0.3771 -0.2686 -0.5317
36929SOL    HW115598   3.302   9.508  11.276 -0.3283 -0.3598 -1.6404
36929SOL    HW215599   3.286   9.370  11.216  0.8872 -1.4166  0.3329
36930SOL     OW15600   2.823   1.480   6.994  0.8375  0.1603  0.3291
36930SOL    HW115601   2.838   1.563   6.949  0.6186  0.2867  0.4870
36930SOL    HW215602   2.797   1.505   7.082 -1.8483  0.0088 -0.3458
36931SOL     OW15603  12.468   1.341   1.518 -0.3326  0.4393  0.1714
36931SOL    HW115604  12.523   1.281   1.467 -0.5500  0.0459  0.3953
36931SOL    HW215605  12.501   1.428   1.496 -0.2197  0.2560 -0.3977
36932SOL     OW15606  12.029   2.068   4.096  0.7534 -0.3098 -0.1800
36932SOL    HW115607  11.938   2.038   4.098  0.5132  0.3152  2.0337
36932SOL    HW215608  12.035   2.127   4.171  2.5687  1.0008 -1.2895
36933SOL     OW15609   1.029  10.365   1.279  0.2877 -0.1835 -0.2612
36933SOL    HW115610   1.009  10.332   1.366 -1.3809  1.1876 -0.0802
36933SOL    HW215611   1.123  10.351   1.269  0.1939 -2.0575  0.9976
36934SOL     OW15612   0.223   6.946   2.746  0.2357  0.0601  0.0812
36934SOL    HW115613   0.203   6.945   2.653 -0.3321  0.5805  0.1918
36934SOL    HW215614   0.243   6.855   2.767 -1.7138 -0.4624 -0.1238
36935SOL     OW15615   5.273   7.675   8.129 -0.1138 -0.4866  0.0779
36935SOL    HW115616   5.217   7.690   8.205  1.9301  3.9329  1.0774
36935SOL    HW215617   5.351   7.633   8.165 -0.2923 -0.9884 -0.1217
36936SOL     OW15618  10.112   3.514  10.372 -0.1507  0.1117 -0.3512
36936SOL    HW115619  10.188   3.504  10.316  0.4673 -1.1783  0.6601
36936SOL    HW215620  10.090   3.424  10.399 -0.4611  0.6642  1.3761
36937SOL     OW15621   6.777  10.090   4.547 -0.6239 -0.0117  0.2257
36937SOL    HW115622   6.719  10.157   4.510  0.8913  1.5449  0.5244
36937SOL    HW215623   6.865  10.123   4.531  0.1840  0.1910  4.0118
36938SOL     OW15624   8.433   2.080   2.241  0.3730  0.2202 -0.3529
36938SOL    HW115625   8.434   2.081   2.146  1.8648  0.7280 -0.3577
36938SOL    HW215626   8.508   2.027   2.266  0.7448  1.1149  0.5293
36939SOL     OW15627   4.884   1.691   7.108 -0.4168 -0.2756  0.0397
36939SOL    HW115628   4.856   1.643   7.186  1.0691  1.3106  1.6247
36939SOL    HW215629   4.973   1.662   7.092  0.8466  2.3640  1.5452
36940SOL     OW15630   8.438   6.957   8.076  0.0315  0.2292 -0.1694
36940SOL    HW115631   8.374   6.888   8.055 -0.2922  0.3216  0.4877
36940SOL    HW215632   8.443   6.956   8.171  0.6820  0.5325 -0.1984
36941SOL     OW15633   6.693   5.001   3.281  0.0074 -0.6631 -0.3707
36941SOL    HW115634   6.632   5.075   3.281  0.1789 -0.5123  0.6601
36941SOL    HW215635   6.663   4.945   3.209 -0.6130  0.0117 -0.6413
36942SOL     OW15636  11.217   3.767   6.940  0.3772  0.1068 -0.1904
36942SOL    HW115637  11.309   3.781   6.917  0.8091  0.5459  1.6770
36942SOL    HW215638  11.172   3.846   6.909  0.5307 -0.2581 -1.4189
36943SOL     OW15639   7.248   2.116  10.602 -0.0114 -0.7834  0.0568
36943SOL    HW115640   7.305   2.052  10.558  1.3098  1.1965 -1.2954
36943SOL    HW215641   7.176   2.129  10.541  0.3626 -0.0943 -0.2436
36944SOL     OW15642  11.577   5.674   1.322  0.7226 -0.1428 -0.0493
36944SOL    HW115643  11.601   5.649   1.411  1.0187  2.6881  0.7496
36944SOL    HW215644  11.483   5.694   1.327  1.0390  1.3984 -0.0043
36945SOL     OW15645   6.729  10.143  11.088  0.2070  0.3871 -0.1896
36945SOL    HW115646   6.715  10.218  11.146 -0.9740  0.2678 -0.3069
36945SOL    HW215647   6.812  10.106  11.118 -0.2651  0.4554  1.3006
36946SOL     OW15648   3.072   9.424   8.333  0.8646  0.3022 -0.2863
36946SOL    HW115649   2.989   9.443   8.290  1.3626  0.5208 -1.1806
36946SOL    HW215650   3.055   9.439   8.426 -0.2993 -0.3768 -0.3658
36947SOL     OW15651   4.273   9.531   3.516 -0.2494  0.0810  0.0603
36947SOL    HW115652   4.182   9.499   3.514 -0.7760  1.4596  0.7297
36947SOL    HW215653   4.306   9.504   3.601 -0.0390 -0.3698 -0.1605
36948SOL     OW15654   1.129   6.546   8.970 -0.9167  0.0762  0.6281
36948SOL    HW115655   1.072   6.601   9.024 -2.4724 -0.7678 -0.0865
36948SOL    HW215656   1.092   6.551   8.882  1.6782  1.5731 -0.4931
36949SOL     OW15657  11.103   5.016   4.789  0.1162  0.4034 -0.1378
36949SOL    HW115658  11.168   4.958   4.827 -0.1386  1.0723  1.3623
36949SOL    HW215659  11.153   5.074   4.732  0.7067  0.3178  0.2915
36950SOL     OW15660  10.566   1.762   6.905  0.1400 -0.0416  0.0534
36950SOL    HW115661  10.604   1.821   6.840  0.5699 -0.0131  0.3253
36950SOL    HW215662  10.544   1.683   6.857 -0.4245  0.3292 -0.3136
36951SOL     OW15663  11.099   7.106  10.638 -0.6071 -0.1543  0.3123
36951SOL    HW115664  11.193   7.090  10.625 -0.7480 -0.6143 -0.1177
36951SOL    HW215665  11.085   7.087  10.731 -0.2656 -0.0339  0.3914
36952SOL     OW15666  11.088   7.213   8.999  0.2685  0.1449 -0.2799
36952SOL    HW115667  11.126   7.133   9.037  0.0176  1.2651  2.6042
36952SOL    HW215668  11.003   7.185   8.966  0.3978 -0.8940  0.2029
36953SOL     OW15669   1.262   6.183   4.060 -0.1215 -0.0692  0.0828
36953SOL    HW115670   1.346   6.139   4.067 -0.5986 -0.8952  0.8954
36953SOL    HW215671   1.201   6.126   4.108 -0.9519  0.9763  0.3142
36954SOL     OW15672   0.679  11.068   0.587  0.5441  0.6375  0.0407
36954SOL    HW115673   0.694  10.995   0.527  1.1847  1.7406 -1.1892
36954SOL    HW215674   0.588  11.059   0.613  1.1858 -1.8701  1.6963
36955SOL     OW15675   8.206   0.771   0.089 -0.4810  0.2941 -0.1728
36955SOL    HW115676   8.264   0.707   0.131  0.5991  1.6516  0.4968
36955SOL    HW215677   8.182   0.730   0.006  1.1229 -0.5055 -0.2813
36956SOL     OW15678   2.923   5.236   7.911 -0.1549 -0.0538 -0.5132
36956SOL    HW115679   2.931   5.275   7.998  1.7164  0.8842 -1.0480
36956SOL    HW215680   2.869   5.298   7.862 -0.0229  0.1527 -0.4027
36957SOL     OW15681   8.476  12.144  11.387  0.0741  0.2310 -0.2653
36957SOL    HW115682   8.564  12.122  11.356  0.0229  1.6322 -1.5505
36957SOL    HW215683   8.460  12.232  11.351 -0.9495  0.9792  1.8672
36958SOL     OW15684   7.846  10.194   7.137  0.2075  0.2594 -0.0127
36958SOL    HW115685   7.832  10.265   7.200  0.1643  0.6395 -0.4444
36958SOL    HW215686   7.822  10.232   7.052 -2.5406 -1.0725  0.0631
36959SOL     OW15687   3.008   8.052   0.534 -0.7259 -0.4152 -0.3775
36959SOL    HW115688   2.923   8.014   0.510 -0.6026 -0.0181 -1.4702
36959SOL    HW215689   3.060   8.048   0.454 -0.1227  0.4550 -0.0452
36960SOL     OW15690   0.010  10.798   9.102 -0.0181 -0.2696  0.1899
36960SOL    HW115691   0.031  10.741   9.028 -0.6393  0.2810 -0.4200
36960SOL    HW215692  -0.085  10.795   9.108  0.0818 -1.5885  2.0163
36961SOL     OW15693   4.478   9.531   6.980  0.3396  0.3582  0.0604
36961SOL    HW115694   4.532   9.479   6.921  0.3206  0.4049  0.0025
36961SOL    HW215695   4.389   9.496   6.968  0.6219 -0.9488  1.4707
36962SOL     OW15696   5.060   7.084   7.566  0.3644  0.4569 -0.5680
36962SOL    HW115697   5.005   7.160   7.548 -0.5561  0.6862  2.6813
36962SOL    HW215698   5.065   7.080   7.661  1.3095 -2.9339 -0.6438
36963SOL     OW15699   3.392   9.424   6.784  0.5722 -0.0484 -0.4829
36963SOL    HW115700   3.358   9.474   6.858  0.3095 -0.9020 -0.0186
36963SOL    HW215701   3.449   9.486   6.738 -0.0031  0.7771 -0.1091
36964SOL     OW15702  10.918   6.836   5.202  0.0928  0.1551 -0.4601
36964SOL    HW115703  10.958   6.922   5.193 -1.3543  1.0616  1.1938
36964SOL    HW215704  10.886   6.833   5.292  0.1555 -2.1604 -0.4321
36965SOL     OW15705   4.616   2.167   5.917 -0.0704 -0.3168 -0.3579
36965SOL    HW115706   4.553   2.100   5.946 -0.0093 -0.2756 -0.1244
36965SOL    HW215707   4.562   2.241   5.891 -0.1358 -0.4274 -0.5387
36966SOL     OW15708   3.460   9.453   4.992 -0.1953 -0.1651 -0.0169
36966SOL    HW115709   3.458   9.387   4.923  1.9804  0.1359 -0.4576
36966SOL    HW215710   3.410   9.416   5.064 -1.3144 -1.0975 -1.2388
36967SOL     OW15711   9.093   8.336   6.270  0.2489 -0.3183  0.4184
36967SOL    HW115712   9.002   8.306   6.266 -0.0096  0.2296  1.5232
36967SOL    HW215713   9.123   8.308   6.357  1.3883 -1.1441 -0.2230
36968SOL     OW15714   3.550   6.417  11.919  0.2754 -0.2534  0.2049
36968SOL    HW115715   3.514   6.443  11.834 -1.2287 -1.6736  0.3394
36968SOL    HW215716   3.512   6.479  11.981 -1.8423 -1.5265  0.2995
36969SOL     OW15717   1.999   4.592   7.474 -0.0224  0.2545  0.1614
36969SOL    HW115718   1.965   4.559   7.391 -0.8768  0.7784  0.2893
36969SOL    HW215719   1.931   4.650   7.506  0.6755  0.7300  0.8167
36970SOL     OW15720   5.795   5.878   7.802 -0.6642 -0.0767 -0.1144
36970SOL    HW115721   5.863   5.940   7.830 -0.4375  0.2274 -1.2747
36970SOL    HW215722   5.789   5.815   7.873  1.1667 -0.3755 -0.1670
36971SOL     OW15723   3.742   6.077  10.653  0.8071 -0.2338  0.2477
36971SOL    HW115724   3.733   6.061  10.747 -0.4304 -2.7811 -0.2084
36971SOL    HW215725   3.664   6.128  10.630  0.3384 -0.8891  0.3688
36972SOL     OW15726  10.409   6.864   0.597 -0.2710  0.8359 -0.6576
36972SOL    HW115727  10.328   6.814   0.591  0.0455 -0.1411  1.9124
36972SOL    HW215728  10.479   6.798   0.601  0.4781  1.5946 -0.8292
36973SOL     OW15729   5.952  12.303   9.593  0.1263 -0.0326 -0.3065
36973SOL    HW115730   5.928  12.218   9.556  1.0809 -1.1215  1.4125
36973SOL    HW215731   6.040  12.319   9.560 -0.0192  0.2531 -0.5587
36974SOL     OW15732   0.032   9.887  11.346  0.3913 -0.3419  0.8608
36974SOL    HW115733  -0.032   9.882  11.275  0.0886  1.1524  0.9843
36974SOL    HW215734   0.110   9.845  11.311 -0.3502 -1.3535  0.3665
36975SOL     OW15735  10.882   4.847   4.777 -0.4622  0.8254 -0.2257
36975SOL    HW115736  10.884   4.785   4.850 -2.6570 -0.3634 -1.0580
36975SOL    HW215737  10.940   4.918   4.804  1.0904 -0.9309  1.3778
36976SOL     OW15738   8.716  10.991  10.195 -0.5612  0.1125 -0.1605
36976SOL    HW115739   8.760  10.958  10.117 -0.6864 -2.3412  0.7119
36976SOL    HW215740   8.625  11.006  10.168 -0.4710 -0.1867 -0.6262
36977SOL     OW15741   2.315   4.794   3.542 -0.0132 -0.3344  0.5363
36977SOL    HW115742   2.269   4.759   3.466 -0.8551  1.4273  0.1859
36977SOL    HW215743   2.400   4.822   3.507  1.4648 -3.6302  1.1925
36978SOL     OW15744   2.428   8.652   6.276  0.2386 -0.0724 -0.6079
36978SOL    HW115745   2.411   8.720   6.211  0.1809  0.7489  0.2508
36978SOL    HW215746   2.524   8.646   6.281  0.2614  0.7132  0.0833
36979SOL     OW15747   4.517   1.853   0.769 -0.0108  0.2414  0.3324
36979SOL    HW115748   4.446   1.840   0.831 -0.6301  1.8551  0.0164
36979SOL    HW215749   4.544   1.944   0.783  0.5300  0.3134 -1.0499
36980SOL     OW15750  11.552   6.249   1.597 -0.2224 -0.7582 -0.0104
36980SOL    HW115751  11.596   6.320   1.644 -0.0991 -1.5719  1.1486
36980SOL    HW215752  11.595   6.169   1.628  0.1268 -1.3102 -1.8201
36981SOL     OW15753   9.740   1.483   8.400  0.0683  0.3754  0.0348
36981SOL    HW115754   9.710   1.466   8.489  1.2385 -0.9918  0.2046
36981SOL    HW215755   9.792   1.563   8.407 -1.3719  1.3200  0.2083
36982SOL     OW15756   7.903   9.535   7.315  0.9567  0.4992  0.0706
36982SOL    HW115757   7.829   9.487   7.277  0.4299  1.1937  0.1942
36982SOL    HW215758   7.880   9.545   7.407  1.8773 -0.5191  0.4375
36983SOL     OW15759   2.239   3.052   6.931  0.4382  0.3534  0.1046
36983SOL    HW115760   2.219   2.991   7.002  1.9279 -0.0111  0.2454
36983SOL    HW215761   2.209   3.007   6.851  0.2214  0.0611  0.3480
36984SOL     OW15762  11.616   2.850   9.243 -0.0054  0.1113 -0.4745
36984SOL    HW115763  11.600   2.913   9.314 -0.8129  0.3816 -0.8784
36984SOL    HW215764  11.530   2.809   9.229  0.3058 -0.4156 -0.8434
36985SOL     OW15765  10.450  11.910  10.164  0.5809 -0.1689 -0.3133
36985SOL    HW115766  10.527  11.911  10.109  1.1246  1.2689  0.3974
36985SOL    HW215767  10.465  11.840  10.227 -0.6472 -2.7305 -2.7017
36986SOL     OW15768  11.617   0.177  12.383  0.5457  0.1768 -0.0314
36986SOL    HW115769  11.645   0.086  12.396 -1.7538 -0.4217  1.5645
36986SOL    HW215770  11.590   0.206  12.471  0.7369  2.2268 -0.6107
36987SOL     OW15771  11.014   1.078   8.341  0.3500 -0.3781 -0.0846
36987SOL    HW115772  10.957   1.090   8.417  1.7990  0.2834  0.9388
36987SOL    HW215773  10.959   1.101   8.266 -0.5284  0.9056  0.9156
36988SOL     OW15774   2.213   1.772  10.423  0.1619 -0.4633 -0.6259
36988SOL    HW115775   2.181   1.785  10.334 -0.6460  0.1319 -0.2667
36988SOL    HW215776   2.137   1.793  10.478  0.6859 -0.7124  0.2009
36989SOL     OW15777  12.528   9.814   9.368  0.0842  0.2507  0.4200
36989SOL    HW115778  12.507   9.722   9.357 -2.0055  0.5016  1.6865
36989SOL    HW215779  12.487   9.857   9.293  0.7834  0.1971  0.0013
36990SOL     OW15780   0.901   6.639   8.473 -0.2001 -0.1571 -0.0348
36990SOL    HW115781   0.907   6.585   8.395 -0.3308  0.4994 -0.5090
36990SOL    HW215782   0.810   6.668   8.475 -0.5637 -1.3017  1.1411
36991SOL     OW15783  12.131   2.871   7.928  0.1223 -0.4617  0.0017
36991SOL    HW115784  12.040   2.851   7.909 -0.4239  0.1324  1.7915
36991SOL    HW215785  12.150   2.824   8.009  0.6688  1.1978  0.8935
36992SOL     OW15786   3.575   7.126   7.532  0.2920  0.2414 -0.5906
36992SOL    HW115787   3.504   7.129   7.596  0.6532  0.4014 -0.1905
36992SOL    HW215788   3.648   7.170   7.575  0.1462  1.5477 -1.6274
36993SOL     OW15789   1.901   2.628  10.668  0.4430 -0.5391  0.4987
36993SOL    HW115790   1.972   2.574  10.704  2.1559  0.9615 -0.4515
36993SOL    HW215791   1.910   2.712  10.714 -1.0153 -0.4392  0.6512
36994SOL     OW15792   6.100   4.300   5.975 -0.3248 -0.2578 -0.2743
36994SOL    HW115793   6.093   4.387   6.015 -2.5915  1.0340 -3.0499
36994SOL    HW215794   6.044   4.244   6.030 -0.6215  0.5886  0.3103
36995SOL     OW15795   9.511   6.103   5.473  0.0797 -0.3530 -0.3914
36995SOL    HW115796   9.508   6.176   5.535 -1.3141  0.5808 -1.4733
36995SOL    HW215797   9.421   6.094   5.442  0.8488 -0.0908 -3.0097
36996SOL     OW15798  12.552   8.660   6.303  0.6949  0.4005 -0.6162
36996SOL    HW115799  12.557   8.604   6.226 -0.3583 -0.4754 -0.0779
36996SOL    HW215800  12.481   8.721   6.283 -0.8466 -0.9921  0.3429
36997SOL     OW15801   3.824   7.763   7.902  0.1727 -0.3030 -0.0633
36997SOL    HW115802   3.836   7.854   7.928 -1.0956 -0.0695 -0.2146
36997SOL    HW215803   3.746   7.734   7.950 -0.6455 -0.6687 -1.5226
36998SOL     OW15804   0.890   2.834   1.442  0.1987  0.0379 -0.2772
36998SOL    HW115805   0.847   2.872   1.519  0.7987  0.8246 -0.3211
36998SOL    HW215806   0.879   2.740   1.453  1.0123  0.0925  1.2071
36999SOL     OW15807   0.006   8.761   1.952  0.2291 -0.1494  0.3982
36999SOL    HW115808   0.095   8.748   1.987  0.0753  0.1371  0.9144
36999SOL    HW215809  -0.030   8.672   1.945  0.7818 -0.3155 -0.4359
37000SOL     OW15810   2.545  10.934   4.039 -0.3196  0.2754 -0.4215
37000SOL    HW115811   2.599  10.869   3.994  0.3222 -0.9656  1.9710
37000SOL    HW215812   2.555  11.013   3.987  3.7705  0.0944 -0.2418
37001SOL     OW15813  12.188   3.252   3.500  0.6323 -0.1755  0.1063
37001SOL    HW115814  12.106   3.298   3.485 -0.4662 -2.0629 -0.0085
37001SOL    HW215815  12.233   3.304   3.567  0.5558  2.2832 -1.5953
37002SOL     OW15816   8.744   3.125  10.166  0.0713  0.5135  0.7309
37002SOL    HW115817   8.674   3.122  10.231  0.2330  0.1582  0.8903
37002SOL    HW215818   8.815   3.073  10.204  0.7030  1.4724  0.9074
37003SOL     OW15819   6.866   1.212   4.048  0.0314  0.2667  0.0429
37003SOL    HW115820   6.937   1.163   4.088 -0.3017  0.2390  0.6097
37003SOL    HW215821   6.894   1.304   4.053 -0.4234  0.3507  1.2055
37004SOL     OW15822  11.379   1.472   4.537  0.4096  0.4936  0.0746
37004SOL    HW115823  11.464   1.435   4.514  0.8152  1.2498  0.3639
37004SOL    HW215824  11.341   1.499   4.453  0.6467  0.5876 -0.0009
37005SOL     OW15825   5.635   4.458   9.343  0.5707  0.0803 -0.6315
37005SOL    HW115826   5.558   4.401   9.340  1.2253 -0.8113 -0.9091
37005SOL    HW215827   5.709   4.398   9.343  1.3085  0.9392 -1.9503
37006SOL     OW15828   7.287   0.492   0.248  0.2281 -0.6053  0.0948
37006SOL    HW115829   7.320   0.522   0.333  0.4475  0.1920 -0.2560
37006SOL    HW215830   7.365   0.473   0.197  0.1085 -0.6564 -0.0704
37007SOL     OW15831   5.034   3.148   4.340  0.8446  0.1831 -0.3246
37007SOL    HW115832   5.122   3.134   4.304 -0.0020 -0.0016 -2.4488
37007SOL    HW215833   4.976   3.147   4.263 -1.1191 -0.4920  1.0843
37008SOL     OW15834  10.883   1.178   4.012  0.5522  0.4500  0.4013
37008SOL    HW115835  10.840   1.093   4.013  1.1242  0.1364 -0.3820
37008SOL    HW215836  10.814   1.240   4.034 -0.5412  0.0661 -1.7166
37009SOL     OW15837   3.683   7.344   9.487  0.3142 -0.3038  0.0943
37009SOL    HW115838   3.654   7.397   9.561 -0.7092 -1.9984  0.9555
37009SOL    HW215839   3.636   7.381   9.412 -0.8438 -0.3753  0.7748
37010SOL     OW15840   8.884   5.800   6.921  0.8801 -0.4765 -0.7834
37010SOL    HW115841   8.962   5.823   6.871  0.6807  1.2173 -0.3776
37010SOL    HW215842   8.915   5.791   7.011  0.7908 -0.8646 -0.7914
37011SOL     OW15843   0.942   1.227  12.415 -0.0787  0.5273 -0.2718
37011SOL    HW115844   0.969   1.294  12.478 -0.1424 -1.3700  1.8813
37011SOL    HW215845   0.849   1.245  12.399 -0.4052  0.3126  1.2163
37012SOL     OW15846   8.999  12.548   6.118  0.1870  0.4174  0.4394
37012SOL    HW115847   8.993  12.471   6.174 -0.6798 -0.4605 -0.7863
37012SOL    HW215848   9.078  12.534   6.066 -0.0765  0.2374  0.0784
37013SOL     OW15849  12.350   6.456   8.671 -0.5233  0.1603 -0.4312
37013SOL    HW115850  12.278   6.471   8.611  1.5110  0.3226 -2.9795
37013SOL    HW215851  12.414   6.524   8.649  1.2142 -1.1406  0.4101
37014SOL     OW15852   7.765   5.320   4.688 -0.3801 -0.1853 -0.0090
37014SOL    HW115853   7.793   5.380   4.758  2.2133 -0.0850 -0.9934
37014SOL    HW215854   7.718   5.376   4.626  2.8510  1.2522 -1.4105
37015SOL     OW15855   0.304   9.345   2.304 -0.0812 -0.9520  0.8874
37015SOL    HW115856   0.334   9.428   2.266  1.5946 -1.5874  0.7431
37015SOL    HW215857   0.211   9.358   2.320  0.4195  1.4403  2.1663
37016SOL     OW15858   0.452  12.331   4.296 -0.5120 -0.2661  0.3734
37016SOL    HW115859   0.451  12.237   4.278  0.5150 -0.6296  2.0497
37016SOL    HW215860   0.497  12.369   4.220 -0.0446 -1.2406  0.1456
37017SOL     OW15861   4.016   9.171   8.616  0.0842  0.1062  0.1454
37017SOL    HW115862   4.035   9.103   8.551  1.6229  1.2789 -0.6998
37017SOL    HW215863   4.100   9.214   8.631 -0.1498 -0.2396  3.1351
37018SOL     OW15864   0.195   5.461   7.866  0.0458 -0.5252  0.2302
37018SOL    HW115865   0.200   5.502   7.953 -1.2314 -0.8447  0.4798
37018SOL    HW215866   0.160   5.373   7.883  1.6934 -1.3384 -0.4137
37019SOL     OW15867   6.027   7.019   0.786  0.3242 -0.0472 -0.1648
37019SOL    HW115868   6.011   7.107   0.819  1.0262  0.4998 -1.1991
37019SOL    HW215869   6.116   7.023   0.750  0.1491 -1.0038 -0.7510
37020SOL     OW15870   6.275   3.309   0.296 -0.2866  0.0916 -0.3730
37020SOL    HW115871   6.294   3.293   0.388  2.8264  2.1613 -0.5173
37020SOL    HW215872   6.288   3.224   0.254  1.3200 -0.2264  0.7129
37021SOL     OW15873  10.155   2.949  11.606  0.0687 -0.3301  0.0135
37021SOL    HW115874  10.222   2.979  11.545 -1.0734  2.1407 -0.1613
37021SOL    HW215875  10.200   2.941  11.690  0.7485  0.6548 -0.2417
37022SOL     OW15876  11.665   1.383   7.430  0.0578  1.1321  0.0820
37022SOL    HW115877  11.663   1.381   7.526 -0.5476  0.5624  0.0682
37022SOL    HW215878  11.616   1.462   7.408 -0.0373  1.1209  0.2456
37023SOL     OW15879   3.918   0.908   9.582 -0.0763 -0.3217 -1.0456
37023SOL    HW115880   3.913   0.899   9.487 -0.1748 -2.1860 -0.9123
37023SOL    HW215881   3.834   0.873   9.613  0.8197 -1.8593 -0.2069
37024SOL     OW15882   8.066  11.912   5.038 -0.0433 -0.4341  0.0587
37024SOL    HW115883   8.024  11.831   5.067  1.8179 -1.3909  0.2319
37024SOL    HW215884   8.141  11.883   4.987  0.0119  1.2086 -0.8570
37025SOL     OW15885   4.119   9.314  11.952 -0.0946  0.0929  0.3151
37025SOL    HW115886   4.180   9.337  11.883  1.1378  0.0711  1.3577
37025SOL    HW215887   4.127   9.384  12.017 -0.9974 -0.0364  0.5862
37026SOL     OW15888  12.462   0.907   2.726 -0.2432  0.8080  0.0744
37026SOL    HW115889  12.480   0.848   2.799 -1.3589  0.1555 -0.1538
37026SOL    HW215890  12.540   0.904   2.672 -1.6233 -3.6846 -2.1209
37027SOL     OW15891   1.725   0.035   4.309 -0.2829  0.1864 -0.0163
37027SOL    HW115892   1.634   0.056   4.332 -0.0744  1.1598 -0.0165
37027SOL    HW215893   1.776   0.073   4.381  0.0014 -2.8741  1.5716
37028SOL     OW15894  12.521   8.505   1.924  0.2590 -0.3546  0.4213
37028SOL    HW115895  12.446   8.526   1.868  0.7165 -2.1210 -0.9618
37028SOL    HW215896  12.485   8.445   1.989 -0.3492  1.9674  2.3566
37029SOL     OW15897   1.075   7.813   1.544  0.0820  0.2645  0.2030
37029SOL    HW115898   0.992   7.767   1.557  0.9693 -0.8785  2.2541
37029SOL    HW215899   1.058   7.903   1.571 -0.2016 -0.2586  1.8399
37030SOL     OW15900   4.803   0.568  11.262 -0.0226  0.3360  0.0739
37030SOL    HW115901   4.862   0.493  11.269  0.5355  0.6259 -1.2171
37030SOL    HW215902   4.855   0.636  11.219 -1.4218  0.4086 -1.6235
37031SOL     OW15903   4.342  10.344   8.659  0.7891  0.5847  0.9841
37031SOL    HW115904   4.360  10.393   8.739  1.6073  1.1236  0.4863
37031SOL    HW215905   4.413  10.369   8.599  0.7242 -0.5401  0.4205
37032SOL     OW15906   6.511   7.172   0.877  0.0723 -0.0520 -0.0658
37032SOL    HW115907   6.554   7.243   0.925 -1.7518  0.2979  1.1604
37032SOL    HW215908   6.483   7.212   0.795 -2.3926  1.2106  1.2851
37033SOL     OW15909   6.135   7.377   0.614  0.0202 -0.6389 -0.5786
37033SOL    HW115910   6.204   7.431   0.575 -1.2037  0.4896 -1.2871
37033SOL    HW215911   6.165   7.359   0.703  1.1742 -0.0864 -0.8408
37034SOL     OW15912   3.543   6.433   2.281 -0.0896 -0.1634  0.1454
37034SOL    HW115913   3.460   6.459   2.241  1.3832  0.6510 -2.6870
37034SOL    HW215914   3.607   6.440   2.210  2.2791 -1.6041  1.9678
37035SOL     OW15915   9.590   9.469   3.490  0.0908 -0.2267  0.1545
37035SOL    HW115916   9.544   9.393   3.527 -1.2399  0.4921  0.0321
37035SOL    HW215917   9.682   9.455   3.514 -0.4873 -0.5945  2.3933
37036SOL     OW15918   6.055   2.840   1.822 -0.1737  0.3710  0.0342
37036SOL    HW115919   6.032   2.754   1.786  1.7136  0.7307 -2.2534
37036SOL    HW215920   6.049   2.828   1.917 -2.8887 -1.3882 -0.2377
37037SOL     OW15921   6.254  10.963   8.051  0.3468  0.4213 -0.5292
37037SOL    HW115922   6.197  10.999   8.119 -0.1318  0.5067 -0.9752
37037SOL    HW215923   6.300  11.039   8.016  0.9821  0.3156  0.0471
37038SOL     OW15924   0.850  11.063   5.260  0.1657  0.0280 -0.0976
37038SOL    HW115925   0.803  10.992   5.306  1.1347 -0.9918 -0.6514
37038SOL    HW215926   0.833  11.140   5.314  0.7293 -1.0032  1.6608
37039SOL     OW15927   9.342   1.403   5.981 -0.2309 -0.2399 -0.4923
37039SOL    HW115928   9.247   1.387   5.977 -0.0018 -1.6210 -0.9429
37039SOL    HW215929   9.368   1.364   6.065 -0.3240  1.8283  0.5595
37040SOL     OW15930   0.352   1.188   2.073  0.6858  0.2596  0.3394
37040SOL    HW115931   0.390   1.108   2.038 -1.0451 -0.6478  0.4192
37040SOL    HW215932   0.262   1.164   2.094  0.0084  2.3302  0.0153
37041SOL     OW15933   7.833   4.970   6.994 -0.1477  0.1016  0.8471
37041SOL    HW115934   7.802   5.055   7.025  0.0665  0.4046  0.2692
37041SOL    HW215935   7.928   4.975   7.003 -0.0946  0.1339  0.3140
37042SOL     OW15936   2.993   0.794   3.124 -0.4441 -0.7747 -0.2935
37042SOL    HW115937   2.922   0.751   3.074  0.1468 -1.3353 -0.6654
37042SOL    HW215938   3.068   0.791   3.065  0.7352 -2.8829  1.1920
37043SOL     OW15939   9.909   7.449   2.979  0.2179  0.0451 -0.1836
37043SOL    HW115940   9.851   7.474   2.907 -0.0752 -2.5035 -0.9180
37043SOL    HW215941   9.871   7.369   3.015  0.9009  0.7169  2.2217
37044SOL     OW15942   6.417   7.312   1.231  0.3850  0.1602 -0.0173
37044SOL    HW115943   6.353   7.279   1.167  0.4587  0.1099 -0.0646
37044SOL    HW215944   6.483   7.356   1.178  0.4184  0.1650  0.0283
37045SOL     OW15945   9.174   0.499   5.217  0.5751 -0.3671 -0.8666
37045SOL    HW115946   9.231   0.424   5.237 -0.2370 -0.1084  3.1807
37045SOL    HW215947   9.086   0.463   5.215  0.1848  0.4136  1.0341
37046SOL     OW15948   1.724  12.560   8.498  0.3488 -0.1553 -0.2710
37046SOL    HW115949   1.695  12.470   8.488  0.6268 -0.2875  0.1394
37046SOL    HW215950   1.718  12.578   8.592  0.6134  0.1498 -0.3102
37047SOL     OW15951  10.629   6.819   6.913  0.0774 -0.3066 -0.0131
37047SOL    HW115952  10.611   6.912   6.932 -1.1861 -0.7228  1.0049
37047SOL    HW215953  10.636   6.815   6.818 -1.0276  0.6553 -0.1641
37048SOL     OW15954  10.984   7.599  11.241 -0.5985  0.0381  0.2655
37048SOL    HW115955  10.971   7.625  11.150 -0.1977  0.5317  0.3463
37048SOL    HW215956  11.078   7.581  11.248 -0.2983  1.7139  1.0021
37049SOL     OW15957  12.148  11.436   1.645  0.5848  0.2019  0.1179
37049SOL    HW115958  12.220  11.408   1.701 -0.9587 -0.2327  2.0148
37049SOL    HW215959  12.148  11.531   1.652  0.0773  0.1374  1.3909
37050SOL     OW15960  12.533   2.713   8.700 -0.0708  0.0172  0.1774
37050SOL    HW115961  12.621   2.715   8.736  0.1879  0.4276 -0.4444
37050SOL    HW215962  12.483   2.772   8.756 -0.0607 -0.5449  0.7884
37051SOL     OW15963   6.783   6.660   4.920 -0.0875 -0.6961 -0.0598
37051SOL    HW115964   6.692   6.666   4.892 -0.0053 -0.6139 -0.3160
37051SOL    HW215965   6.805   6.567   4.913 -0.0047 -0.6475 -0.4759
37052SOL     OW15966   5.105   4.049   9.213  0.2162  0.2038  0.1689
37052SOL    HW115967   5.079   4.055   9.305  1.8685  1.6315  0.6078
37052SOL    HW215968   5.146   3.963   9.205 -2.2759 -1.0488  0.0518
37053SOL     OW15969   4.630   3.533   3.998 -0.1470 -0.0311  0.1057
37053SOL    HW115970   4.586   3.557   4.079  2.4984 -1.4411  2.1091
37053SOL    HW215971   4.712   3.582   3.998 -0.0457 -0.1097 -1.6993
37054SOL     OW15972   4.028   4.903  12.128  0.1284  0.1912  0.0885
37054SOL    HW115973   4.106   4.951  12.155  0.3539 -0.2801  0.2916
37054SOL    HW215974   3.980   4.889  12.210  0.5903 -0.8476  0.2039
37055SOL     OW15975  10.974  11.490   7.461 -0.7876 -0.5181 -0.0573
37055SOL    HW115976  10.920  11.503   7.539 -2.0886 -2.8111 -0.4963
37055SOL    HW215977  10.931  11.540   7.393 -0.7536 -0.0794  0.2408
37056SOL     OW15978   3.680   1.829   8.078  0.3193  0.1763 -0.3194
37056SOL    HW115979   3.728   1.765   8.131  0.5302 -0.1569 -0.9154
37056SOL    HW215980   3.588   1.804   8.088  0.4779 -0.9823 -1.5253
37057SOL     OW15981   2.172   3.387   9.121 -0.1183 -0.0798 -0.3455
37057SOL    HW115982   2.232   3.351   9.056 -0.9505 -2.2545 -0.0031
37057SOL    HW215983   2.215   3.371   9.205 -0.5804 -0.4704 -0.1775
37058SOL     OW15984  11.065   0.711   0.725  0.0878 -0.0789 -0.3063
37058SOL    HW115985  11.035   0.799   0.701  0.0698  0.0120  0.0355
37058SOL    HW215986  10.988   0.656   0.718  0.2845 -0.2407 -1.3470
37059SOL     OW15987   9.115   5.476   5.286 -0.2540 -0.3934 -0.4209
37059SOL    HW115988   9.058   5.502   5.213  0.2181  0.4178 -0.5233
37059SOL    HW215989   9.069   5.506   5.364  0.0875  0.4093 -0.5136
37060SOL     OW15990   0.097  11.647   4.697 -0.5632  0.1431 -0.7376
37060SOL    HW115991   0.009  11.628   4.726 -0.6653 -1.9163 -2.2004
37060SOL    HW215992   0.099  11.621   4.605  1.8623 -0.9362 -0.4675
37061SOL     OW15993   5.800   4.147   0.914  0.0952 -0.0522 -0.0138
37061SOL    HW115994   5.818   4.090   0.840 -0.1999  0.5742 -0.5833
37061SOL    HW215995   5.766   4.228   0.875 -2.2470 -0.4995  0.8883
37062SOL     OW15996   9.811  11.626   4.637  0.2871 -0.6374  0.4882
37062SOL    HW115997   9.735  11.596   4.686 -0.6624 -0.9787 -1.1269
37062SOL    HW215998   9.859  11.546   4.615  0.2507 -0.5641  0.1396
37063SOL     OW15999   0.154   8.864   9.198  0.9799  0.1796 -0.1157
37063SOL    HW116000   0.075   8.833   9.242  0.5028  0.3710 -0.8193
37063SOL    HW216001   0.221   8.798   9.219  0.7217  0.1694  0.7237
37064SOL     OW16002   2.961   6.004   6.859 -0.0434 -0.0908  0.5597
37064SOL    HW116003   2.994   6.089   6.828 -0.3810  0.2927  1.2305
37064SOL    HW216004   3.019   5.940   6.819 -0.0650  0.4279 -0.3386
37065SOL     OW16005  12.570  12.237   8.786 -0.2655  0.4096 -0.0901
37065SOL    HW116006  12.522  12.301   8.838 -0.9488  0.9766 -1.3625
37065SOL    HW216007  12.620  12.289   8.723 -1.1409 -0.2620 -1.4112
37066SOL     OW16008   6.023  11.336  11.524  0.1790  0.3328  0.4004
37066SOL    HW116009   5.939  11.333  11.569 -0.1549  0.5609 -0.2033
37066SOL    HW216010   6.088  11.321  11.593 -0.3493  0.2345  0.8781
37067SOL     OW16011   2.337   6.116   3.673  0.4600  0.3456 -0.2077
37067SOL    HW116012   2.286   6.164   3.608  0.5769 -2.5697 -2.7072
37067SOL    HW216013   2.422   6.100   3.631  0.4353 -1.9253  0.4594
37068SOL     OW16014   8.402   4.874  11.901 -0.2917  0.0796 -0.3984
37068SOL    HW116015   8.445   4.956  11.924  0.9817 -0.2952 -1.3159
37068SOL    HW216016   8.443   4.809  11.958 -1.4285  0.0968  0.4588
37069SOL     OW16017   4.792   0.756   9.802  0.3031  0.1653 -0.1014
37069SOL    HW116018   4.848   0.685   9.831  1.5939  1.2506  0.1754
37069SOL    HW216019   4.852   0.820   9.762 -0.9662  0.5271 -1.5089
37070SOL     OW16020   0.263   6.430   9.741  0.0565  0.1150 -0.7195
37070SOL    HW116021   0.341   6.383   9.712  0.1598  0.0290 -0.3083
37070SOL    HW216022   0.285   6.462   9.828 -0.1571  0.5979 -0.8435
37071SOL     OW16023   6.194   2.299   4.098 -0.4160 -0.3550 -0.3945
37071SOL    HW116024   6.266   2.363   4.099 -0.6787 -0.0586 -0.3370
37071SOL    HW216025   6.209   2.246   4.176  1.2036 -1.9466 -1.6873
37072SOL     OW16026   9.095  10.730  10.280 -0.2093 -0.0253 -0.2917
37072SOL    HW116027   9.172  10.719  10.226  1.2839 -0.7451  1.8451
37072SOL    HW216028   9.123  10.788  10.351 -1.3488 -0.9580  0.9951
37073SOL     OW16029  10.220   0.504   7.722  0.3826  0.3569  0.0744
37073SOL    HW116030  10.260   0.505   7.635  1.9937  1.3346  0.7625
37073SOL    HW216031  10.183   0.592   7.733 -1.4986 -0.3413 -0.3028
37074SOL     OW16032  11.757   7.713   4.652 -0.2009  0.3164 -0.1170
37074SOL    HW116033  11.700   7.788   4.667  1.4635  1.6430 -0.0936
37074SOL    HW216034  11.784   7.722   4.561 -0.7177 -0.8070 -0.3927
37075SOL     OW16035   8.821   8.298   7.387 -0.3715 -0.1828  0.6746
37075SOL    HW116036   8.886   8.327   7.452  0.2398 -4.4206  2.2850
37075SOL    HW216037   8.739   8.292   7.436 -0.8674  0.3936 -0.0580
37076SOL     OW16038   3.868   8.001  10.165 -0.3157  0.1839  0.2193
37076SOL    HW116039   3.847   7.987  10.072  0.4920  1.3405 -0.1648
37076SOL    HW216040   3.869   7.913  10.203 -1.7757 -0.2295 -0.6005
37077SOL     OW16041   0.322   4.339   7.020  0.0904 -0.5984 -0.3824
37077SOL    HW116042   0.247   4.324   7.077  0.0378  0.1930 -0.2307
37077SOL    HW216043   0.314   4.273   6.952 -0.7323 -0.5329 -0.3552
37078SOL     OW16044   7.504   8.167   4.509  0.2356  0.2686 -0.3282
37078SOL    HW116045   7.517   8.073   4.523 -0.6089 -0.0018 -1.2454
37078SOL    HW216046   7.422   8.173   4.460 -0.2139  1.5604  0.5435
37079SOL     OW16047  12.300   8.146   3.722 -0.1227  0.3932 -0.2842
37079SOL    HW116048  12.234   8.079   3.702  0.6577 -0.2165 -0.8802
37079SOL    HW216049  12.249   8.226   3.736 -0.9885 -0.0440 -0.8387
37080SOL     OW16050  11.872   2.820   3.410  0.5078 -0.1518 -0.5991
37080SOL    HW116051  11.852   2.886   3.343 -0.2357 -0.1034 -0.3452
37080SOL    HW216052  11.787   2.780   3.430  0.3034  1.2580  1.7827
37081SOL     OW16053   1.250   1.121   6.921  0.0895  0.1188 -0.1649
37081SOL    HW116054   1.296   1.126   6.838  0.1869 -0.9932 -0.1983
37081SOL    HW216055   1.281   1.196   6.971  1.0187  0.0607 -0.6431
37082SOL     OW16056   8.625   9.482   4.900 -0.5447 -0.1367 -0.5224
37082SOL    HW116057   8.666   9.515   4.820  2.1985 -2.1640 -0.1050
37082SOL    HW216058   8.637   9.553   4.964  0.2508  0.2289 -1.0610
37083SOL     OW16059  12.044   9.300   4.631 -0.0182 -0.3331  0.0712
37083SOL    HW116060  11.959   9.288   4.672 -0.4187  0.0240 -0.6340
37083SOL    HW216061  12.027   9.360   4.558  0.7442 -0.6410 -0.3687
37084SOL     OW16062   9.353   2.800   6.002  0.2660 -1.1778  0.3172
37084SOL    HW116063   9.362   2.895   6.005  0.0920 -1.0616 -1.6378
37084SOL    HW216064   9.265   2.785   5.967 -0.3881 -2.1006  2.2285
37085SOL     OW16065   2.366   8.038   4.947 -0.8907  0.1466 -0.2819
37085SOL    HW116066   2.363   7.945   4.926  0.2438  0.2286 -0.8768
37085SOL    HW216067   2.450   8.049   4.993 -0.6301  1.0052 -0.9341
37086SOL     OW16068  10.450  10.885   7.229 -0.1267  0.1082  0.8506
37086SOL    HW116069  10.538  10.893   7.267  0.7183 -0.1434 -0.9538
37086SOL    HW216070  10.452  10.803   7.179 -0.7029  1.0718 -0.8522
37087SOL     OW16071   5.084   8.597   1.666 -0.5256 -0.2673  0.0611
37087SOL    HW116072   5.063   8.689   1.679  0.5312  0.2199 -1.4637
37087SOL    HW216073   5.034   8.571   1.588  1.5993 -0.0692 -1.4374
37088SOL     OW16074   8.833   0.045   4.767 -0.5800 -0.3722 -0.2126
37088SOL    HW116075   8.800  -0.015   4.833  0.4024  0.1030  0.7550
37088SOL    HW216076   8.781   0.125   4.778 -0.2213 -0.1885  0.2188
37089SOL     OW16077   9.600  11.399   1.497 -0.0186  0.0215  0.2023
37089SOL    HW116078   9.623  11.408   1.405 -1.1785 -3.2843 -0.5662
37089SOL    HW216079   9.546  11.476   1.516  0.8987  1.1828 -1.6143
37090SOL     OW16080   0.388   5.886   9.108 -0.4183 -0.2494  0.3002
37090SOL    HW116081   0.433   5.926   9.182  1.0320  0.0755 -0.7133
37090SOL    HW216082   0.436   5.804   9.092 -0.0535  0.1759 -0.9051
37091SOL     OW16083  10.220  12.376   1.203 -0.2258  0.6947 -0.4110
37091SOL    HW116084  10.193  12.343   1.289  1.4515 -1.0938 -0.5027
37091SOL    HW216085  10.139  12.382   1.153 -0.8409 -1.8494  0.1498
37092SOL     OW16086   2.755   3.804   5.668 -0.4177 -0.4303 -0.1881
37092SOL    HW116087   2.751   3.875   5.731  1.8721 -1.7409  1.5829
37092SOL    HW216088   2.691   3.740   5.699 -1.1496  0.0117 -0.7364
37093SOL     OW16089   7.770   6.782   2.313 -0.5018 -0.1197  0.1803
37093SOL    HW116090   7.755   6.790   2.218 -0.1698 -0.4491  0.0978
37093SOL    HW216091   7.853   6.827   2.328 -0.7047  0.1990  0.3673
37094SOL     OW16092   7.069   0.586  12.610  0.3583 -0.2798  0.3797
37094SOL    HW116093   7.064   0.497  12.645 -0.9341 -0.7105 -0.8239
37094SOL    HW216094   7.154   0.590  12.567  0.5115 -0.8590  0.6173
37095SOL     OW16095  10.181   9.231   3.229  0.2831 -0.2252 -0.3416
37095SOL    HW116096  10.092   9.210   3.203  0.7688 -1.5227 -1.0564
37095SOL    HW216097  10.224   9.257   3.147  1.0655 -1.5479 -0.3807
37096SOL     OW16098  11.297  12.047   0.489  0.6184 -0.0504  0.0147
37096SOL    HW116099  11.241  11.971   0.477  1.9823 -1.0516 -0.3091
37096SOL    HW216100  11.341  12.033   0.572  1.3908  0.0304 -0.3678
37097SOL     OW16101   1.293  12.549   2.066 -0.8781 -0.5818  0.2208
37097SOL    HW116102   1.291  12.535   2.161 -0.1338 -2.3859  0.0023
37097SOL    HW216103   1.346  12.628   2.056  1.5787 -1.9699  1.2279
37098SOL     OW16104   2.658   3.285  11.028 -0.1333  0.3884 -0.4729
37098SOL    HW116105   2.586   3.281  10.965  0.3433 -0.7308 -0.9808
37098SOL    HW216106   2.737   3.277  10.974  0.5168  3.1885 -0.1126
37099SOL     OW16107   3.642   9.836   5.775  0.2476  0.4161 -0.6129
37099SOL    HW116108   3.689   9.805   5.853  0.7496 -0.2719 -1.1795
37099SOL    HW216109   3.553   9.803   5.787  0.1769  0.7855 -0.0668
37100SOL     OW16110  10.937   5.994   0.955  0.0118  1.0477  0.0619
37100SOL    HW116111  10.899   6.047   0.885 -1.3721 -0.8442 -0.7264
37100SOL    HW216112  10.998   5.936   0.911 -1.0653 -0.3457  0.3279
37101SOL     OW16113   1.879   1.058  12.117 -0.7065 -0.0605  0.0955
37101SOL    HW116114   1.851   1.037  12.206 -0.9460 -1.2315 -0.2380
37101SOL    HW216115   1.824   1.004  12.061  0.5286 -0.5444 -0.6949
37102SOL     OW16116   2.984   6.790  12.290 -0.3158 -0.1580  0.0761
37102SOL    HW116117   2.972   6.699  12.264  0.0992 -0.2481  0.1881
37102SOL    HW216118   3.044   6.826  12.225  0.1018 -0.1688  0.4470
37103SOL     OW16119  10.824   0.331  10.928  0.5786 -0.3069 -0.5544
37103SOL    HW116120  10.850   0.346  10.837  2.1474 -0.7733 -0.2077
37103SOL    HW216121  10.739   0.375  10.936  1.7302  2.2631 -1.4352
37104SOL     OW16122   9.408   9.410   4.533 -0.0996  0.7168 -0.3019
37104SOL    HW116123   9.378   9.400   4.623  0.8632  0.0584 -0.0300
37104SOL    HW216124   9.478   9.475   4.538  1.5000 -0.9188 -0.1559
37105SOL     OW16125   2.040   0.287   0.268 -0.3263 -0.1084  0.2397
37105SOL    HW116126   1.989   0.223   0.219 -1.2894  0.3971  0.5517
37105SOL    HW216127   2.061   0.243   0.350  0.7247 -0.7209 -0.3442
37106SOL     OW16128   6.327   8.043   5.947 -0.2086 -0.8733 -0.3786
37106SOL    HW116129   6.317   8.113   6.011 -1.0686 -0.5313 -0.8744
37106SOL    HW216130   6.260   8.061   5.881  1.1617 -0.7748 -1.7995
37107SOL     OW16131   0.087  11.432   0.868  0.5644 -0.4358  0.6578
37107SOL    HW116132   0.091  11.391   0.955  0.1517  0.1913  0.9756
37107SOL    HW216133   0.017  11.496   0.874 -0.3840 -1.3053 -0.5522
37108SOL     OW16134   4.633   7.993   8.633 -0.4377  0.7766  0.3317
37108SOL    HW116135   4.649   8.061   8.699  0.3088  1.0810 -0.1546
37108SOL    HW216136   4.714   7.942   8.631  0.8517  2.6705 -2.5542
37109SOL     OW16137   7.776  11.875   7.035 -0.2882 -0.2863 -0.2264
37109SOL    HW116138   7.808  11.964   7.046  0.0430 -0.2995 -1.0162
37109SOL    HW216139   7.681  11.884   7.025 -0.5742 -0.2433  2.0712
37110SOL     OW16140   9.866   2.234  10.284  0.3875  0.5003 -0.0751
37110SOL    HW116141   9.940   2.281  10.324  1.1342 -0.9599  0.3361
37110SOL    HW216142   9.907   2.167  10.229 -0.5783 -1.3391  1.3371
37111SOL     OW16143   7.448   6.439   0.393 -0.2065 -0.2279 -0.7881
37111SOL    HW116144   7.371   6.484   0.360  0.9637  1.9191 -0.7535
37111SOL    HW216145   7.438   6.440   0.488  0.7875  1.9529 -0.6494
37112SOL     OW16146   7.821   0.245   1.599  0.1024 -0.7011 -0.4908
37112SOL    HW116147   7.745   0.257   1.543  0.2318 -0.3931 -0.6051
37112SOL    HW216148   7.789   0.258   1.688  0.2647  0.7415 -0.6120
37113SOL     OW16149   6.968   7.209   9.153  0.0824 -0.4756 -0.5802
37113SOL    HW116150   7.058   7.199   9.120 -0.1642 -1.1075 -1.0734
37113SOL    HW216151   6.918   7.142   9.107 -0.4757 -0.7143  0.3476
37114SOL     OW16152  10.302   7.187   9.709  0.2405 -0.1079  0.1446
37114SOL    HW116153  10.373   7.127   9.733  1.1311  1.3451  1.3002
37114SOL    HW216154  10.275   7.159   9.621 -0.7433 -3.4336  1.3436
37115SOL     OW16155   6.860  11.625   0.353 -0.1646 -0.2694 -0.4641
37115SOL    HW116156   6.890  11.536   0.336  2.3785  0.0962  1.3932
37115SOL    HW216157   6.915  11.680   0.298 -2.8665  0.2033 -2.9086
37116SOL     OW16158  10.593  10.455  12.156 -0.5860  0.3199 -0.2737
37116SOL    HW116159  10.512  10.407  12.142 -1.2637  0.9108  1.4255
37116SOL    HW216160  10.565  10.541  12.188  0.6897  0.9449 -0.7394
37117SOL     OW16161  11.367   3.413   9.677 -0.3005 -0.1366 -0.0990
37117SOL    HW116162  11.350   3.448   9.590  2.2904 -3.1187 -2.0237
37117SOL    HW216163  11.454   3.446   9.699 -0.3035 -0.6326  0.6815
37118SOL     OW16164   8.540   5.327   0.593 -0.3867 -0.4437 -0.0516
37118SOL    HW116165   8.579   5.242   0.613 -1.0965 -0.9225 -0.6932
37118SOL    HW216166   8.538   5.331   0.497  0.9187  0.8882 -0.0611
37119SOL     OW16167   9.396  11.962   1.389 -0.0364 -0.0599  0.1022
37119SOL    HW116168   9.489  11.959   1.414 -0.5038 -1.2461  1.9175
37119SOL    HW216169   9.379  12.055   1.374  1.6682  0.0848 -1.2962
37120SOL     OW16170   5.530   3.594  11.670 -0.0673  0.6841 -0.6060
37120SOL    HW116171   5.616   3.613  11.633  0.7743 -1.8391 -0.1251
37120SOL    HW216172   5.546   3.528  11.737 -2.1088  1.9141  1.2416
37121SOL     OW16173  12.296   3.262  12.015 -0.1351  0.4545 -0.1651
37121SOL    HW116174  12.370   3.301  12.062  1.0677  0.9669 -2.3501
37121SOL    HW216175  12.263   3.333  11.960 -1.2785 -0.2060 -0.3634
37122SOL     OW16176   1.739  10.680   0.422  0.4506 -0.7163  0.1412
37122SOL    HW116177   1.693  10.606   0.461  0.2568 -0.7784 -0.1933
37122SOL    HW216178   1.806  10.640   0.366  2.2095 -0.6329  2.0712
37123SOL     OW16179   9.980   0.764  12.103 -0.2145 -0.0828  0.2264
37123SOL    HW116180   9.898   0.813  12.116  0.3926  1.2858 -0.8420
37123SOL    HW216181  10.002   0.731  12.190 -2.2860 -1.1724  0.4134
37124SOL     OW16182   6.836   3.029  12.501  0.1339  0.0383  0.4829
37124SOL    HW116183   6.880   2.963  12.447  1.6147  0.8190  0.6763
37124SOL    HW216184   6.791   3.086  12.439  1.6605  0.8089  0.0446
37125SOL     OW16185   9.704   1.775   7.750 -0.2661 -0.4769 -0.3390
37125SOL    HW116186   9.742   1.699   7.707 -0.0620  0.4917 -1.9577
37125SOL    HW216187   9.688   1.746   7.840 -0.8111 -2.6301 -1.0565
37126SOL     OW16188  10.843  11.898   6.522  0.2441 -0.8129  0.4407
37126SOL    HW116189  10.872  11.821   6.571  0.9068  0.3178  1.9006
37126SOL    HW216190  10.924  11.940   6.494 -0.1200 -1.5459 -1.8897
37127SOL     OW16191   5.975   3.514   7.804  0.3159 -0.0686 -0.3115
37127SOL    HW116192   5.930   3.457   7.741  1.3946 -2.5344  1.0149
37127SOL    HW216193   5.914   3.522   7.877  0.0801  0.6815 -0.5865
37128SOL     OW16194   7.950   8.669  11.343 -0.1418 -0.0207 -0.2877
37128SOL    HW116195   7.918   8.644  11.256 -2.0359  0.7972  0.1063
37128SOL    HW216196   7.870   8.692  11.392  0.9283  0.1219  1.4753
37129SOL     OW16197   5.618   6.794   8.763  0.3076  0.0626 -0.4493
37129SOL    HW116198   5.614   6.780   8.858  0.9431 -0.8120 -0.5337
37129SOL    HW216199   5.584   6.882   8.750 -0.6557 -0.1404  0.5023
37130SOL     OW16200  11.335   4.163   3.783 -0.1216  0.4092  0.1051
37130SOL    HW116201  11.391   4.107   3.836  0.8026  0.9175 -0.3216
37130SOL    HW216202  11.250   4.161   3.828 -0.0268 -1.0642  0.2812
37131SOL     OW16203  12.551   7.182   6.799  0.3243 -0.0941 -0.0540
37131SOL    HW116204  12.511   7.146   6.721  0.8130 -1.4831  0.2917
37131SOL    HW216205  12.534   7.116   6.867  1.3439  0.2774  0.5880
37132SOL     OW16206   2.690   3.082   3.699  0.1288  0.0227 -0.2040
37132SOL    HW116207   2.676   3.045   3.612 -0.2124 -1.4441  0.4387
37132SOL    HW216208   2.715   3.007   3.753 -0.7420  0.7024  1.2033
37133SOL     OW16209   8.985  10.355   1.161 -0.4998  0.2978  0.5117
37133SOL    HW116210   9.028  10.320   1.239 -0.3642  0.5159  0.5365
37133SOL    HW216211   8.900  10.312   1.160  0.2671 -1.3004 -0.3765
37134SOL     OW16212  10.694   0.503   7.929  0.1931 -0.4258  0.3537
37134SOL    HW116213  10.710   0.471   8.018 -0.1020 -1.0221  0.1987
37134SOL    HW216214  10.641   0.434   7.888  0.1194 -0.0422 -0.2049
37135SOL     OW16215   1.829   5.083   4.313  0.0819  0.6021  0.5828
37135SOL    HW116216   1.815   4.995   4.348  1.3333  0.5801  1.0958
37135SOL    HW216217   1.851   5.135   4.390 -1.8206  1.6705  0.4688
37136SOL     OW16218   9.893   2.957   8.896 -0.2467 -0.3424  0.2190
37136SOL    HW116219   9.884   3.048   8.867 -1.5464  0.0392  1.6911
37136SOL    HW216220   9.982   2.951   8.929  0.6285 -0.2690 -1.9299
37137SOL     OW16221   5.411  10.419   3.793  0.2293  0.5732 -0.2052
37137SOL    HW116222   5.492  10.461   3.765 -0.6063  1.8873 -0.6998
37137SOL    HW216223   5.402  10.444   3.885  1.6555 -1.6733  0.6497
37138SOL     OW16224  10.735   4.373   7.871  0.4564 -0.1914 -0.1242
37138SOL    HW116225  10.645   4.352   7.896  0.1279  0.3603 -0.7991
37138SOL    HW216226  10.783   4.291   7.883 -0.2252 -0.6057 -0.1522
37139SOL     OW16227   0.976   1.722   6.204 -0.1284  0.1374 -0.1075
37139SOL    HW116228   0.944   1.725   6.114  0.9120 -0.1654 -0.5050
37139SOL    HW216229   0.986   1.814   6.229 -0.8065  0.2274 -0.1541
37140SOL     OW16230   4.708   6.207   0.530 -0.1092  0.0694 -0.5012
37140SOL    HW116231   4.750   6.173   0.609  1.5309 -0.2248 -1.4619
37140SOL    HW216232   4.753   6.289   0.512 -0.5971  0.2243 -1.0469
37141SOL     OW16233   2.965   4.548   1.331  0.1131  0.3699  0.0021
37141SOL    HW116234   2.908   4.600   1.275  0.9826  3.4847  1.8052
37141SOL    HW216235   2.907   4.515   1.400 -0.0708  0.8786  0.0965
37142SOL     OW16236   2.582  11.444   4.846 -0.1234  0.1050  0.3375
37142SOL    HW116237   2.590  11.508   4.775  0.3282 -0.1984  0.1161
37142SOL    HW216238   2.502  11.471   4.893  0.2293  1.0220  0.4396
37143SOL     OW16239   6.225   6.471   6.314  0.3606  0.2970  0.8590
37143SOL    HW116240   6.235   6.508   6.402  1.2275  2.2550 -0.0157
37143SOL    HW216241   6.178   6.538   6.265 -0.8212 -1.1115 -0.0114
37144SOL     OW16242   8.965   9.502   6.019 -0.1798 -0.6986 -0.5145
37144SOL    HW116243   9.002   9.415   6.002  0.9796 -0.1932 -0.6849
37144SOL    HW216244   8.874   9.496   5.989 -0.0462 -1.7838 -0.7301
37145SOL     OW16245   8.034  11.231   4.713 -0.0433  0.0317 -0.2747
37145SOL    HW116246   8.005  11.224   4.804  2.8395  2.7671  1.0139
37145SOL    HW216247   7.978  11.298   4.674 -0.7913 -0.6206 -0.3568
37146SOL     OW16248  12.298   1.330   3.183 -0.6668  0.1828  0.4346
37146SOL    HW116249  12.266   1.240   3.189  0.9094 -0.3809  0.8914
37146SOL    HW216250  12.239   1.380   3.240 -0.3287 -0.9479  1.8433
37147SOL     OW16251   9.699  10.365   5.661  0.2573  0.1782  0.0768
37147SOL    HW116252   9.648  10.299   5.615 -0.0000  0.4015  0.0430
37147SOL    HW216253   9.773  10.316   5.698 -0.4725 -0.3101  0.9179
37148SOL     OW16254   4.901   2.549   7.349 -0.0774 -0.0036  0.1003
37148SOL    HW116255   4.918   2.609   7.276  0.1024 -0.6672 -0.4140
37148SOL    HW216256   4.878   2.466   7.307 -1.2932 -0.0384  0.8065
37149SOL     OW16257   5.652   6.333  10.893  0.4732  0.1505 -0.8303
37149SOL    HW116258   5.739   6.304  10.920  0.1628 -1.7455 -1.6532
37149SOL    HW216259   5.651   6.317  10.798 -1.4767 -1.9740 -0.5176
37150SOL     OW16260  12.025   8.687   0.995  0.1876 -0.0192 -0.3984
37150SOL    HW116261  12.102   8.723   1.040  0.8813 -1.0896 -0.7076
37150SOL    HW216262  11.961   8.672   1.064  0.0886  1.2228 -0.1833
37151SOL     OW16263   5.774   8.817  11.371 -0.5720  0.8897 -0.1584
37151SOL    HW116264   5.809   8.874  11.440 -1.1082  0.5911  0.3817
37151SOL    HW216265   5.812   8.850  11.290 -0.3291  1.5780  0.2266
37152SOL     OW16266  10.047   7.455   8.319 -0.0130  0.1641 -0.2687
37152SOL    HW116267  10.068   7.422   8.406 -1.0818  0.0927 -0.0187
37152SOL    HW216268  10.131   7.477   8.280  0.5171 -0.3445  0.5679
37153SOL     OW16269   3.249   8.885  10.433 -0.5849  0.3267 -0.5248
37153SOL    HW116270   3.185   8.876  10.362  0.6744  0.8259 -1.7577
37153SOL    HW216271   3.313   8.948  10.400 -0.6194  1.5316  1.5575
37154SOL     OW16272   5.127   2.310   4.241  0.2894 -0.6105 -0.2507
37154SOL    HW116273   5.050   2.329   4.295  1.2270  1.4419  0.4620
37154SOL    HW216274   5.109   2.354   4.158  1.1544  0.9520  0.3417
37155SOL     OW16275  11.695  10.091   8.567 -0.3819  0.0798  0.6423
37155SOL    HW116276  11.620  10.079   8.509 -1.7154  2.8661  1.6287
37155SOL    HW216277  11.756  10.145   8.517 -0.3181  0.2340  0.8852
37156SOL     OW16278   4.423  12.622   4.046  0.5042  0.4111 -0.4872
37156SOL    HW116279   4.515  12.641   4.067  0.8060 -0.5563 -0.8709
37156SOL    HW216280   4.425  12.535   4.007 -0.6009  0.3291 -0.3923
37157SOL     OW16281   3.913   9.279  11.273 -0.2105  0.0750  0.4496
37157SOL    HW116282   3.865   9.291  11.356  0.4400  3.0220  0.5095
37157SOL    HW216283   3.852   9.308  11.206 -0.4077 -1.4578 -0.0834
37158SOL     OW16284  11.958   8.771   7.003 -0.5742  0.2223  0.4864
37158SOL    HW116285  11.973   8.860   7.033 -3.2047  0.8779  0.1215
37158SOL    HW216286  11.961   8.717   7.082 -0.8113  0.9200  0.9766
37159SOL     OW16287  12.499  10.514  10.019 -0.1787  0.5622  0.5737
37159SOL    HW116288  12.429  10.467  10.063  0.0732 -0.0881  0.2930
37159SOL    HW216289  12.519  10.461   9.941  0.1182  1.1222  0.2611
37160SOL     OW16290   9.489   2.253   8.530  0.5419  0.2397  0.2987
37160SOL    HW116291   9.564   2.293   8.573  0.9473  0.9824 -1.0465
37160SOL    HW216292   9.421   2.320   8.533 -0.0715 -0.4017  1.4447
37161SOL     OW16293  10.774   6.427  11.446  0.1612 -0.2883 -0.0811
37161SOL    HW116294  10.709   6.496  11.455  0.2934 -0.1655 -0.0537
37161SOL    HW216295  10.745   6.358  11.505  0.9413  0.4441  1.2022
37162SOL     OW16296   0.489  12.166   2.096 -0.4590  0.2162  0.2727
37162SOL    HW116297   0.584  12.159   2.080 -0.5853 -1.2778 -0.0060
37162SOL    HW216298   0.462  12.076   2.114 -1.9802  0.4866 -0.5579
37163SOL     OW16299   6.633   4.117  10.716 -0.3875  0.4948  0.1734
37163SOL    HW116300   6.717   4.073  10.712 -0.7926 -0.2361 -2.4342
37163SOL    HW216301   6.570   4.051  10.688 -1.7211  1.2856  1.2089
37164SOL     OW16302   6.782   1.801  12.477 -0.0397 -0.0704  0.5224
37164SOL    HW116303   6.829   1.737  12.529 -1.0184 -0.8897  0.4225
37164SOL    HW216304   6.766   1.874  12.537  1.2111  0.1702  0.5914
37165SOL     OW16305   1.470   8.462   3.445  0.0133  0.5995 -0.1484
37165SOL    HW116306   1.512   8.469   3.360  3.2198  0.4976  1.3014
37165SOL    HW216307   1.423   8.378   3.442  1.2783 -0.0955 -1.3343
37166SOL     OW16308   3.459   2.696   6.577 -0.4791 -0.1127  0.3108
37166SOL    HW116309   3.476   2.775   6.628 -0.4739 -1.1393  1.9616
37166SOL    HW216310   3.475   2.624   6.637  3.0717 -1.6105 -2.0469
37167SOL     OW16311  12.523   7.344   8.476  0.3052 -0.1539 -0.0717
37167SOL    HW116312  12.563   7.426   8.446  0.6157  0.3617  1.6072
37167SOL    HW216313  12.545   7.340   8.570  1.7868 -3.0244 -0.4210
37168SOL     OW16314   5.178   2.963   9.221  0.1949  0.1076 -0.1730
37168SOL    HW116315   5.099   3.016   9.231 -0.9926 -1.0418 -2.4340
37168SOL    HW216316   5.249   3.026   9.212 -0.3656  1.1718  2.1227
37169SOL     OW16317   3.445   3.378   5.712  0.3782 -0.1314 -0.2884
37169SOL    HW116318   3.489   3.294   5.695  2.1904  0.7195 -0.0685
37169SOL    HW216319   3.353   3.362   5.690  1.2905 -1.0923 -4.1228
37170SOL     OW16320   2.941   9.233   3.735  0.3960 -0.2838  0.4527
37170SOL    HW116321   2.952   9.321   3.700 -0.5769  0.5766  2.2213
37170SOL    HW216322   2.899   9.245   3.820 -1.2726 -2.5413  0.0516
37171SOL     OW16323   1.345   6.912  12.504 -0.2236 -0.4570 -0.1413
37171SOL    HW116324   1.407   6.959  12.561 -0.8549  0.5267 -0.2354
37171SOL    HW216325   1.294   6.858  12.564 -1.4400  1.1911  0.3879
37172SOL     OW16326   6.606   3.373  11.225  0.4180 -0.8620 -0.2667
37172SOL    HW116327   6.587   3.279  11.232  1.6015 -1.2815 -1.9505
37172SOL    HW216328   6.595   3.393  11.132 -0.8849  0.9537  0.2299
37173SOL     OW16329  10.289   3.487   5.877 -0.0412 -0.2550  0.2325
37173SOL    HW116330  10.371   3.534   5.889 -0.7168  1.5346 -1.5446
37173SOL    HW216331  10.263   3.460   5.965  2.1202 -0.3425  0.8929
37174SOL     OW16332   9.047   5.845  11.570 -0.0564 -0.3084  0.0533
37174SOL    HW116333   9.040   5.903  11.646 -0.5350  2.8806 -2.2300
37174SOL    HW216334   9.100   5.771  11.601 -1.0484  0.2906  3.7009
37175SOL     OW16335   2.909   2.918   8.862 -0.7448 -0.1516 -0.3716
37175SOL    HW116336   2.914   2.963   8.946  3.2279  0.0100 -0.5066
37175SOL    HW216337   2.948   2.832   8.878  1.3434  0.3481 -2.1659
37176SOL     OW16338  10.530   0.754   4.758 -0.5673  0.1101 -0.2363
37176SOL    HW116339  10.572   0.822   4.706 -0.3282  0.6484  0.6428
37176SOL    HW216340  10.463   0.800   4.808 -2.3837 -0.7630 -1.7598
37177SOL     OW16341   1.077   9.710   8.522  0.1081 -0.1380  0.2461
37177SOL    HW116342   1.038   9.694   8.608  0.3331 -1.6334  0.0806
37177SOL    HW216343   1.161   9.752   8.541  0.6666 -1.4848  0.8194
37178SOL     OW16344   0.775   3.223   5.332 -0.5568  0.3646 -0.3393
37178SOL    HW116345   0.777   3.268   5.417 -1.3478 -0.1736 -0.0158
37178SOL    HW216346   0.688   3.243   5.297 -0.5925 -0.2024 -0.5823
37179SOL     OW16347   0.368   4.784   5.687  0.2630  0.0687 -0.2494
37179SOL    HW116348   0.454   4.743   5.691 -0.1901 -1.0714 -1.3972
37179SOL    HW216349   0.310   4.716   5.654 -1.5376  0.1583  2.4434
37180SOL     OW16350   5.932   9.321   1.119  0.0543 -0.1932 -0.3678
37180SOL    HW116351   5.878   9.308   1.197  1.1640 -1.4512  0.2331
37180SOL    HW216352   5.870   9.321   1.046 -0.8183 -0.9410  0.3533
37181SOL     OW16353   9.267   6.772  10.189 -0.0761 -0.4541  0.0345
37181SOL    HW116354   9.206   6.718  10.139 -1.5137  1.6482 -0.6786
37181SOL    HW216355   9.226   6.780  10.276 -0.2774  0.0605 -0.1014
37182SOL     OW16356   9.365   2.903   1.560 -0.1995 -0.1596 -0.2000
37182SOL    HW116357   9.398   2.888   1.472 -0.2080 -0.7316 -0.1088
37182SOL    HW216358   9.443   2.901   1.616 -0.1489  0.5837 -0.2392
37183SOL     OW16359   0.098   7.988  11.483 -0.5613  0.2089 -0.2425
37183SOL    HW116360   0.178   7.961  11.438 -0.2402 -0.0068  0.4502
37183SOL    HW216361   0.121   8.070  11.526 -0.3302 -0.4862  0.9916
37184SOL     OW16362   5.632   5.189   2.334 -0.1229 -0.2771 -0.2779
37184SOL    HW116363   5.683   5.153   2.262 -0.2404 -0.8514 -0.0768
37184SOL    HW216364   5.696   5.240   2.385  0.7805 -2.6615  1.1518
37185SOL     OW16365   7.759   8.531   1.153 -0.2908 -0.2028  0.0642
37185SOL    HW116366   7.697   8.604   1.146  0.0023  0.3042  2.1147
37185SOL    HW216367   7.745   8.480   1.074 -0.4763  2.0969 -1.4816
37186SOL     OW16368   5.794   2.718  11.586 -0.0021  0.1537  0.1749
37186SOL    HW116369   5.706   2.702  11.552 -0.2965 -1.3465  1.5195
37186SOL    HW216370   5.826   2.793  11.536 -1.4805 -0.1722 -1.3482
37187SOL     OW16371   9.639  10.015   6.205 -0.4751 -0.2248  0.2866
37187SOL    HW116372   9.656  10.080   6.273 -0.6635  0.1439 -0.0121
37187SOL    HW216373   9.597  10.064   6.135 -0.0188 -0.5454 -0.2207
37188SOL     OW16374   7.336   3.994   5.330 -0.9755 -0.4068 -0.2822
37188SOL    HW116375   7.353   4.017   5.422  0.1568  0.2650 -0.6403
37188SOL    HW216376   7.311   3.902   5.333 -3.1415  0.1421  0.9316
37189SOL     OW16377   0.225   9.598   7.184 -0.2192 -0.1044  0.4145
37189SOL    HW116378   0.302   9.640   7.223 -0.8763  0.7626  0.8312
37189SOL    HW216379   0.173   9.672   7.151 -0.7618 -0.6941 -0.0682
37190SOL     OW16380  12.511  12.374   0.951 -0.2422 -0.1472 -0.4899
37190SOL    HW116381  12.578  12.406   1.012  0.9895 -1.9202 -0.8442
37190SOL    HW216382  12.519  12.431   0.875 -0.8135  1.1786  0.4097
37191SOL     OW16383   6.695   0.817   6.652  0.1053 -0.0939 -0.1315
37191SOL    HW116384   6.715   0.814   6.558  1.4569  3.7207 -0.1675
37191SOL    HW216385   6.765   0.766   6.693 -0.6416 -2.0213 -1.1233
37192SOL     OW16386  11.167   3.542  11.560  0.3667  0.3206  0.8701
37192SOL    HW116387  11.131   3.464  11.603 -0.5912  0.3563  0.1724
37192SOL    HW216388  11.257   3.518  11.538 -0.3812 -1.2203 -0.7747
37193SOL     OW16389   4.329   1.777  10.280 -0.0527  0.0326 -0.0965
37193SOL    HW116390   4.385   1.835  10.331  0.1644 -1.1139  1.0329
37193SOL    HW216391   4.240   1.805  10.301  0.0269  1.7333 -1.7456
37194SOL     OW16392   3.553  12.514   7.533 -0.2616 -0.4718 -0.5206
37194SOL    HW116393   3.488  12.458   7.576 -0.3905 -0.5564 -0.8225
37194SOL    HW216394   3.637  12.472   7.553 -0.2071  0.1428  0.6478
37195SOL     OW16395   3.963   5.890  12.522  0.5531  0.0141  0.3996
37195SOL    HW116396   3.996   5.832  12.454 -0.4253 -1.8919  1.4762
37195SOL    HW216397   3.870   5.870  12.527  0.3846  0.9883  1.4870
37196SOL     OW16398  11.979   3.007   6.906 -0.6981 -0.3143  0.2892
37196SOL    HW116399  11.987   3.027   6.812  1.3300 -1.1600  0.2250
37196SOL    HW216400  11.926   2.927   6.909 -1.7074  0.3190 -0.0274
37197SOL     OW16401   8.702   3.543  10.460  0.1642  0.1892 -0.3895
37197SOL    HW116402   8.716   3.582  10.374  1.6062  1.4214  0.3517
37197SOL    HW216403   8.620   3.581  10.490 -0.5490 -0.5510 -1.3685
37198SOL     OW16404   5.735   9.837  10.958  0.2320  0.3926 -0.2767
37198SOL    HW116405   5.736   9.881  11.043 -2.7235  2.4089 -1.1497
37198SOL    HW216406   5.652   9.789  10.957  0.2366  0.3609 -2.0173
37199SOL     OW16407   7.808  10.215   3.459 -0.2537 -0.3918 -0.1369
37199SOL    HW116408   7.826  10.179   3.373 -1.4545 -0.1538 -0.5168
37199SOL    HW216409   7.761  10.297   3.441  0.4770  0.2395  0.7324
37200SOL     OW16410   2.286  10.941   3.143 -0.5411 -0.4883 -0.0271
37200SOL    HW116411   2.342  10.874   3.183 -0.2168  1.0348  2.2804
37200SOL    HW216412   2.348  11.007   3.111 -0.9312 -0.3247 -0.4553
37201SOL     OW16413  10.586   1.549  10.607  0.0809 -0.0906 -0.0649
37201SOL    HW116414  10.596   1.575  10.698 -0.3101  0.8084 -0.2727
37201SOL    HW216415  10.576   1.454  10.610 -0.7739  0.0176  0.8980
37202SOL     OW16416   6.626  12.459  12.612  0.2904 -0.0966  0.2117
37202SOL    HW116417   6.654  12.457  12.704 -0.9633  1.2586  0.6649
37202SOL    HW216418   6.661  12.541  12.578 -1.2996  0.6159  0.2080
37203SOL     OW16419   2.024   8.241  10.173  0.0855 -0.4630  0.2887
37203SOL    HW116420   1.943   8.233  10.223 -0.4949  0.8381 -0.3867
37203SOL    HW216421   2.083   8.177  10.212 -1.2565 -1.4189  0.8136
37204SOL     OW16422  11.064  11.433  10.222 -0.4535  0.0268  0.0994
37204SOL    HW116423  11.158  11.425  10.235 -0.5316 -1.1110  0.0899
37204SOL    HW216424  11.029  11.347  10.248 -1.4601  0.3703 -0.0828
37205SOL     OW16425   9.364  10.344   9.160  0.2565  0.4619 -0.4502
37205SOL    HW116426   9.440  10.334   9.102 -1.1400  0.3125 -2.3659
37205SOL    HW216427   9.324  10.426   9.131 -1.4067 -0.4549 -0.8782
37206SOL     OW16428  10.999   5.223  11.603 -0.2074  0.2135 -0.1017
37206SOL    HW116429  11.089   5.189  11.607  1.0896  2.8318 -3.0514
37206SOL    HW216430  10.945   5.145  11.592  2.1723 -1.3006 -2.5473
37207SOL     OW16431   2.101   6.798   5.299 -0.3269 -0.2986 -0.3026
37207SOL    HW116432   2.143   6.866   5.352 -0.2964  0.1941 -0.9496
37207SOL    HW216433   2.139   6.808   5.212  0.0058 -1.4430 -0.3019
37208SOL     OW16434   3.540   1.460   7.447  0.2387  0.3436 -0.5060
37208SOL    HW116435   3.624   1.419   7.468  0.7495  1.2636 -0.6790
37208SOL    HW216436   3.547   1.548   7.484 -0.8472  0.2788 -0.1035
37209SOL     OW16437   9.344   0.837  11.451  0.0066 -0.1661 -0.2078
37209SOL    HW116438   9.334   0.912  11.509 -0.7867  0.0569 -0.6145
37209SOL    HW216439   9.294   0.767  11.494 -0.4499 -0.0448 -0.5293
37210SOL     OW16440   6.409   0.554  11.045  0.0167 -0.5067  0.2322
37210SOL    HW116441   6.474   0.588  10.983 -0.7530 -0.4439 -0.5583
37210SOL    HW216442   6.391   0.465  11.015 -0.4513 -0.4330  0.2795
37211SOL     OW16443   1.400   7.322   4.906 -0.1210 -0.5638  0.0468
37211SOL    HW116444   1.423   7.381   4.977  1.2354 -0.6208 -0.3228
37211SOL    HW216445   1.371   7.242   4.950  2.2087 -1.1868  0.6167
37212SOL     OW16446   2.591   7.061   9.833 -0.5815  0.0576 -0.6711
37212SOL    HW116447   2.547   6.976   9.823  1.9426 -1.5601  0.8799
37212SOL    HW216448   2.604   7.092   9.744 -2.3437 -0.7231 -1.2442
37213SOL     OW16449  10.417   6.837  12.371 -0.0971 -0.1917 -0.1992
37213SOL    HW116450  10.450   6.759  12.416 -0.6788  0.2510  1.0409
37213SOL    HW216451  10.359   6.879  12.435  1.6598  2.2803 -0.1051
37214SOL     OW16452   9.107   4.757   9.593 -0.1673  0.0181  0.0373
37214SOL    HW116453   9.161   4.731   9.518 -0.4642  1.6918 -0.7968
37214SOL    HW216454   9.027   4.792   9.555 -0.1102  1.3951  1.1099
37215SOL     OW16455   8.315   0.841   8.599 -0.1088 -0.6732 -0.1081
37215SOL    HW116456   8.334   0.908   8.665 -2.7215 -0.4070  0.5075
37215SOL    HW216457   8.322   0.886   8.515  2.0531 -0.7025  0.0175
37216SOL     OW16458   6.230   4.947   9.307  0.0297 -0.6247 -0.4085
37216SOL    HW116459   6.145   4.963   9.348  0.2041  2.4870 -1.0069
37216SOL    HW216460   6.293   4.961   9.378  0.1188 -1.2583 -0.3590
37217SOL     OW16461   6.963   6.679  10.045 -0.6648  0.3284 -0.3385
37217SOL    HW116462   6.947   6.756   9.991  0.2679 -0.0400 -1.1819
37217SOL    HW216463   7.025   6.710  10.112 -1.5631  0.7024  0.3342
37218SOL     OW16464   0.809   5.721   0.777 -0.0809  0.0856 -0.1270
37218SOL    HW116465   0.793   5.672   0.696  0.9241 -0.6306  0.0878
37218SOL    HW216466   0.813   5.812   0.749 -0.2435 -0.1080 -0.8136
37219SOL     OW16467   3.347   7.746  10.525 -0.0675 -0.1368  0.1728
37219SOL    HW116468   3.364   7.665  10.476 -0.0819  0.4764 -0.8839
37219SOL    HW216469   3.277   7.722  10.587  0.5855 -1.1667  0.5366
37220SOL     OW16470   6.978   6.839   2.713 -0.1575  0.3504  0.6432
37220SOL    HW116471   6.885   6.825   2.734 -0.2016  2.4725  2.2823
37220SOL    HW216472   7.023   6.765   2.753 -1.1319 -0.7807 -0.2865
37221SOL     OW16473  12.558  11.755   8.312  0.2054 -0.0984 -0.2028
37221SOL    HW116474  12.613  11.695   8.363  0.8230  0.1897 -0.5214
37221SOL    HW216475  12.608  11.836   8.308  0.9066 -0.5761 -2.5722
37222SOL     OW16476   8.692   9.577   4.658 -0.0572 -0.2378  0.2588
37222SOL    HW116477   8.649   9.560   4.574 -0.6601  2.0505  0.0249
37222SOL    HW216478   8.764   9.636   4.637  0.4473 -0.4843  1.2294
37223SOL     OW16479   6.931   7.576   3.521  0.0498 -0.4007  0.0424
37223SOL    HW116480   6.836   7.573   3.511 -0.0995  1.6608  0.4927
37223SOL    HW216481   6.951   7.507   3.585 -1.3513  0.2102  1.1851
37224SOL     OW16482   2.515   8.029  11.377  0.3467  0.1159 -0.2171
37224SOL    HW116483   2.594   7.983  11.348 -0.0283  1.2203 -3.2773
37224SOL    HW216484   2.489   8.083  11.303 -0.5528  3.5859  2.3364
37225SOL     OW16485   4.800   6.774   4.393 -0.3365  0.3482 -0.4439
37225SOL    HW116486   4.845   6.857   4.408 -1.2046  1.0106 -1.3780
37225SOL    HW216487   4.803   6.762   4.298 -3.5205  1.2819 -0.7826
37226SOL     OW16488  10.807  10.778   0.940  0.1342  0.3094  0.3521
37226SOL    HW116489  10.880  10.748   0.993  0.1934  1.2283  0.8179
37226SOL    HW216490  10.729  10.755   0.990  0.0350 -1.4562 -0.5486
37227SOL     OW16491   4.352   4.344   2.715 -0.3777  0.4080  0.0911
37227SOL    HW116492   4.385   4.421   2.669  0.3425 -0.4403 -0.8716
37227SOL    HW216493   4.407   4.336   2.793 -1.0522  1.3685  0.6900
37228SOL     OW16494   7.433   7.013  10.194  0.2466 -0.0873 -0.1287
37228SOL    HW116495   7.505   7.024  10.255  0.3124 -0.3473 -0.1587
37228SOL    HW216496   7.457   6.937  10.141  0.0410 -0.0598 -0.2656
37229SOL     OW16497  11.158   4.815   6.532 -0.2713 -0.6039  0.4407
37229SOL    HW116498  11.088   4.849   6.476 -0.7265 -0.1535  1.2563
37229SOL    HW216499  11.141   4.720   6.537 -1.3159 -0.3922  1.2668
37230SOL     OW16500   6.370  12.154   1.618  0.0744  0.3059  0.5823
37230SOL    HW116501   6.328  12.087   1.672  0.8230 -0.7248 -0.0640
37230SOL    HW216502   6.412  12.213   1.680 -0.7942  0.3103  1.1733
37231SOL     OW16503   6.319   3.243   8.910 -0.0957  0.5437  0.4535
37231SOL    HW116504   6.266   3.311   8.868  0.9970  1.3319  0.3197
37231SOL    HW216505   6.395   3.289   8.944  1.9566 -0.9219 -1.8220
37232SOL     OW16506   8.908   0.455   8.995  0.0972 -0.0233 -0.6515
37232SOL    HW116507   8.995   0.460   9.035  0.2263  0.3110 -0.9736
37232SOL    HW216508   8.851   0.501   9.057  0.1677 -0.1473 -0.4938
37233SOL     OW16509   9.974   7.224   1.821 -0.0727  0.2696 -0.7586
37233SOL    HW116510  10.011   7.288   1.760  0.7040  0.4076 -0.1592
37233SOL    HW216511   9.909   7.273   1.872 -0.0249  0.3956 -0.8184
37234SOL     OW16512   1.492   0.792   6.374 -0.0168 -0.4901 -0.8333
37234SOL    HW116513   1.482   0.709   6.421  0.1775  0.0227  0.1530
37234SOL    HW216514   1.576   0.826   6.404 -0.4823  0.4632 -0.5581
37235SOL     OW16515   8.645   5.025   8.435 -0.0197 -0.0691  0.2829
37235SOL    HW116516   8.698   5.089   8.387 -0.2865  1.1591  1.5547
37235SOL    HW216517   8.606   5.075   8.507  0.4390 -1.8468  1.8414
37236SOL     OW16518   9.156   8.622   7.697  0.0505 -0.4350  0.1986
37236SOL    HW116519   9.114   8.692   7.648 -1.0111  0.0009  1.6780
37236SOL    HW216520   9.236   8.602   7.647 -0.5973  0.4934 -1.2619
37237SOL     OW16521   7.359  10.717  12.012  0.0629  0.3503 -0.2202
37237SOL    HW116522   7.403  10.663  11.947  0.0921  3.4726 -3.0339
37237SOL    HW216523   7.414  10.794  12.021  0.4140 -0.1623  4.1920
37238SOL     OW16524  12.009   0.202   1.379  0.0406  0.1497  0.6064
37238SOL    HW116525  11.962   0.241   1.451 -1.8383 -0.6537 -0.1277
37238SOL    HW216526  12.056   0.274   1.338 -0.4711  0.9526  1.4141
37239SOL     OW16527   3.563   8.421   9.870  0.0212 -0.3329  0.0396
37239SOL    HW116528   3.505   8.344   9.868  0.0201 -0.3351  0.1777
37239SOL    HW216529   3.645   8.388   9.907 -0.4209  0.0349  1.4105
37240SOL     OW16530   9.334   5.429   9.333 -0.1468 -0.1366 -0.8157
37240SOL    HW116531   9.271   5.412   9.403  0.9313 -1.6581 -0.1658
37240SOL    HW216532   9.301   5.380   9.258  0.7685 -1.7852 -0.1721
37241SOL     OW16533   2.683   3.760   5.082  0.9072 -0.5273 -0.0793
37241SOL    HW116534   2.612   3.792   5.137  0.2875  0.2210 -1.2617
37241SOL    HW216535   2.665   3.666   5.072  1.4670 -0.8363  1.5830
37242SOL     OW16536  11.905   9.598   1.427  0.1090  0.1093  0.8572
37242SOL    HW116537  11.928   9.597   1.520 -1.7471 -0.0240  1.3434
37242SOL    HW216538  11.956   9.526   1.389 -1.1314 -1.6069  2.3161
37243SOL     OW16539   0.927   9.252   3.823  0.0876  0.0919 -0.5093
37243SOL    HW116540   0.850   9.290   3.863 -0.3343 -2.4049  1.2790
37243SOL    HW216541   0.971   9.326   3.781 -2.5840  1.7988 -0.5386
37244SOL     OW16542   8.030  12.148   7.930 -0.5523  0.2508  0.2347
37244SOL    HW116543   8.068  12.123   7.845 -3.0491  0.2380 -0.9837
37244SOL    HW216544   8.048  12.073   7.987  0.6165 -0.0271 -0.4667
37245SOL     OW16545  10.718  10.663   2.326  0.4660  0.0884  0.5296
37245SOL    HW116546  10.681  10.748   2.300 -0.1835 -0.3636 -0.0611
37245SOL    HW216547  10.742  10.622   2.243 -0.6364 -0.9354  0.6881
37246SOL     OW16548   1.776   7.882   7.914  0.0344 -0.2685 -0.8566
37246SOL    HW116549   1.796   7.931   7.834  1.6571  2.8259  1.2398
37246SOL    HW216550   1.860   7.868   7.956 -0.8907 -0.2105  1.1373
37247SOL     OW16551   7.586  10.840   6.504 -0.0006  0.1896 -0.4561
37247SOL    HW116552   7.536  10.832   6.585 -0.0572 -0.6064 -0.5644
37247SOL    HW216553   7.609  10.933   6.499 -1.3307  0.5455 -0.3228
37248SOL     OW16554   0.070  11.184   0.309 -0.0391  0.3950 -0.3552
37248SOL    HW116555   0.032  11.215   0.392  1.1600  0.9396  0.0146
37248SOL    HW216556   0.153  11.230   0.303  1.1534 -1.6655 -0.5237
37249SOL     OW16557   4.880   9.708   2.701  0.0496  0.6257 -0.5159
37249SOL    HW116558   4.964   9.661   2.702  0.0068  0.3927 -2.8784
37249SOL    HW216559   4.904   9.799   2.682 -0.0104  1.3402  2.3779
37250SOL     OW16560   8.301   5.047   1.642  0.0675 -0.2497  0.5666
37250SOL    HW116561   8.217   5.060   1.596 -0.2200 -0.5467  1.0064
37250SOL    HW216562   8.367   5.054   1.573 -0.1420  2.1078  0.5025
37251SOL     OW16563   2.293   7.286   5.800 -0.1511  0.0519  0.3531
37251SOL    HW116564   2.200   7.283   5.823 -0.3450  1.4330 -0.1525
37251SOL    HW216565   2.308   7.376   5.771  1.2061 -0.3174 -0.1813
37252SOL     OW16566   9.142   3.559   5.490 -0.0818  0.3509  0.0498
37252SOL    HW116567   9.047   3.547   5.498 -0.6162  2.8206 -1.4943
37252SOL    HW216568   9.164   3.525   5.403  0.1693  1.0851 -0.1838
37253SOL     OW16569   4.777   0.054   9.753  0.6687  0.1235  0.5001
37253SOL    HW116570   4.861   0.099   9.760  0.9567 -0.3506  0.1462
37253SOL    HW216571   4.712   0.124   9.748  1.0955  0.4955  0.1507
37254SOL     OW16572   2.687   0.959  10.282  0.2823 -0.7993  0.4056
37254SOL    HW116573   2.671   0.900  10.356 -1.9597 -0.3639  0.3276
37254SOL    HW216574   2.606   0.957  10.231  1.2166  0.1140 -1.2058
37255SOL     OW16575   5.292  10.732   0.681 -0.5614 -0.0834  0.2221
37255SOL    HW116576   5.209  10.695   0.651 -2.0100  2.4143  0.7851
37255SOL    HW216577   5.270  10.776   0.764  1.4466  0.2285  0.6541
37256SOL     OW16578  10.385  11.937   8.721 -0.0534  0.0146  0.3516
37256SOL    HW116579  10.360  11.915   8.810 -3.0007 -0.3972 -0.4673
37256SOL    HW216580  10.458  11.878   8.701  0.2443 -0.3218  2.2276
37257SOL     OW16581   0.535  10.528   7.330  0.3830  0.4067  0.0450
37257SOL    HW116582   0.479  10.577   7.391 -2.1976  0.6864 -2.3429
37257SOL    HW216583   0.513  10.564   7.244  0.8653 -2.6539 -1.4766
37258SOL     OW16584   8.535   9.522   2.379 -0.0441 -0.5214 -0.1293
37258SOL    HW116585   8.477   9.549   2.308 -0.1393  0.9958  0.4851
37258SOL    HW216586   8.615   9.573   2.365 -1.0294  2.0013  2.3130
37259SOL     OW16587   1.351   9.479   2.521  0.0974  0.3580  0.0417
37259SOL    HW116588   1.329   9.570   2.500  1.8104  0.6018 -0.9045
37259SOL    HW216589   1.294   9.427   2.464  1.1768  0.9388 -1.6589
37260SOL     OW16590   4.097   8.218  10.993  0.1318 -0.3613  0.4792
37260SOL    HW116591   4.185   8.180  10.995  2.0584  3.5967  1.6636
37260SOL    HW216592   4.077   8.229  10.900  0.6707 -1.6002  0.1912
37261SOL     OW16593   6.464   5.775   1.574  0.5569  0.0268 -0.1219
37261SOL    HW116594   6.556   5.778   1.600  0.6739  0.4493 -0.5521
37261SOL    HW216595   6.456   5.843   1.506  0.2000 -0.8171 -0.9534
37262SOL     OW16596   2.452   7.993  12.004  0.2662  0.2510 -0.1767
37262SOL    HW116597   2.370   7.964  11.964 -1.3547  3.1988  0.6834
37262SOL    HW216598   2.469   7.929  12.073 -0.9904 -0.7372 -0.7419
37263SOL     OW16599   9.110   9.664  10.944  0.5111 -0.3400 -0.1759
37263SOL    HW116600   9.046   9.638  10.878 -1.8157 -0.4003  1.9433
37263SOL    HW216601   9.058   9.682  11.022  3.2125 -2.2604  2.2995
37264SOL     OW16602   9.825   9.438   8.497 -0.4378 -0.5554 -0.1852
37264SOL    HW116603   9.900   9.403   8.545 -0.3429  3.0080  2.6085
37264SOL    HW216604   9.750   9.390   8.533 -0.1094  0.4238  1.9489
37265SOL     OW16605   3.028  10.960   9.969  0.0776  0.0149  0.2959
37265SOL    HW116606   3.020  10.991  10.059 -0.8235  0.7554 -0.0258
37265SOL    HW216607   2.938  10.950   9.938  0.3707 -0.3962 -0.4701
37266SOL     OW16608   2.491   7.702   1.539 -0.2462 -0.3723 -0.3549
37266SOL    HW116609   2.407   7.698   1.585 -0.6629 -1.3534 -1.1600
37266SOL    HW216610   2.499   7.793   1.511 -0.1980  0.1418  1.2230
37267SOL     OW16611  12.311   5.694   1.533  0.1254 -0.6489 -0.5168
37267SOL    HW116612  12.323   5.771   1.477  0.0099 -0.0880  0.2201
37267SOL    HW216613  12.392   5.687   1.583 -0.1738 -0.5323 -0.0093
37268SOL     OW16614   8.563   6.677   1.029  0.2550  0.0761 -0.1556
37268SOL    HW116615   8.532   6.702   0.942 -3.1172 -0.5623  0.7294
37268SOL    HW216616   8.658   6.668   1.019  0.5481  3.8244 -2.7801
37269SOL     OW16617   1.932   6.089   8.093 -0.6548 -0.2610  0.6187
37269SOL    HW116618   1.938   6.158   8.026  2.3308 -0.0369  0.9601
37269SOL    HW216619   1.902   6.012   8.045  0.7537  0.0749 -0.9181
37270SOL     OW16620   5.476   7.192   5.667 -0.0030  0.2379  0.4727
37270SOL    HW116621   5.424   7.191   5.748  1.1906  1.6028  1.2919
37270SOL    HW216622   5.412   7.212   5.598 -0.8517  0.1790  1.2147
37271SOL     OW16623   3.968  11.195  10.419  0.0143 -0.2746 -0.1974
37271SOL    HW116624   4.013  11.258  10.364  0.3918 -1.3023 -1.1008
37271SOL    HW216625   3.888  11.174  10.371 -1.6727  1.7360  1.5026
37272SOL     OW16626   4.041   3.104   0.355 -0.2764 -0.4103 -0.5845
37272SOL    HW116627   4.065   3.117   0.263 -1.3625 -0.4691 -0.8951
37272SOL    HW216628   4.042   3.192   0.392  1.5397 -0.5266 -0.2678
37273SOL     OW16629   7.306  12.237   4.737 -0.0352 -0.1684 -0.3622
37273SOL    HW116630   7.393  12.237   4.698  0.1234  0.5749 -0.0189
37273SOL    HW216631   7.319  12.200   4.825 -0.1056 -0.2432 -0.3822
37274SOL     OW16632   0.178  10.418   2.174  0.4719 -0.6563 -0.2565
37274SOL    HW116633   0.134  10.408   2.258  0.3194  0.1646 -0.2290
37274SOL    HW216634   0.118  10.471   2.121  0.0691 -2.0704 -1.2659
37275SOL     OW16635   1.077  12.233   3.828  0.2605  0.4225  0.2285
37275SOL    HW116636   1.160  12.186   3.830 -0.6479 -1.2568  0.8041
37275SOL    HW216637   1.097  12.316   3.785  1.8450 -0.6632 -1.2367
37276SOL     OW16638   5.824   0.295  11.849  0.0149  0.2144 -0.2645
37276SOL    HW116639   5.791   0.329  11.766  0.6295  1.3007 -0.0965
37276SOL    HW216640   5.920   0.297  11.839  0.0832 -1.5848 -0.2657
37277SOL     OW16641   6.863   0.600   2.452 -0.0283  0.8355 -0.3547
37277SOL    HW116642   6.897   0.684   2.482  0.2064  0.1065  1.5397
37277SOL    HW216643   6.939   0.557   2.412  0.7739  0.1970  1.7047
37278SOL     OW16644   5.847   1.828  11.923 -0.4991 -0.0635 -0.1622
37278SOL    HW116645   5.870   1.907  11.874  1.0830  0.6064  1.5420
37278SOL    HW216646   5.926   1.807  11.973 -1.6483 -1.3795  1.1965
37279SOL     OW16647   4.224   4.546   0.052 -0.2364 -0.3084  0.1122
37279SOL    HW116648   4.138   4.573   0.020 -0.6001 -1.2081  0.3117
37279SOL    HW216649   4.257   4.622   0.100 -0.7722  0.1575 -0.2459
37280SOL     OW16650   2.536  11.769   3.230  0.4580 -0.4614 -0.1589
37280SOL    HW116651   2.471  11.830   3.196  1.0582  0.8452  0.9581
37280SOL    HW216652   2.614  11.783   3.176 -0.0489 -1.8065 -1.2957
37281SOL     OW16653   6.470   0.851   9.936 -0.3656 -0.5873 -0.2281
37281SOL    HW116654   6.412   0.775   9.945 -1.3720  0.2178  0.3414
37281SOL    HW216655   6.533   0.841  10.007 -2.3364  0.6263  1.8526
37282SOL     OW16656  11.626   0.950   3.493 -0.3603 -0.0321 -0.1521
37282SOL    HW116657  11.556   0.886   3.497 -1.2386  0.8562 -0.9549
37282SOL    HW216658  11.628   0.990   3.580  1.4098 -2.3397  0.9829
37283SOL     OW16659   8.702  10.059   6.060  0.1621  0.2389  0.0989
37283SOL    HW116660   8.619  10.069   6.015  0.7211  0.1504 -0.9813
37283SOL    HW216661   8.768  10.061   5.991  0.9163 -2.0668  0.6332
37284SOL     OW16662   6.268   3.814   4.041  0.0100 -0.6435  0.0741
37284SOL    HW116663   6.240   3.905   4.043  1.0889 -0.2927 -0.1630
37284SOL    HW216664   6.361   3.818   4.017  0.7996 -1.6315  2.6201
37285SOL     OW16665  10.275   1.109   8.580  0.1524 -0.2126  0.5106
37285SOL    HW116666  10.200   1.049   8.578 -1.4930  1.7696  0.4369
37285SOL    HW216667  10.347   1.056   8.546 -0.8592 -2.5826  1.7280
37286SOL     OW16668   3.478   3.645   0.662  0.4431 -0.1319 -0.2180
37286SOL    HW116669   3.572   3.661   0.653  0.2741  1.1173 -0.0383
37286SOL    HW216670   3.452   3.699   0.737 -0.7063  0.9237 -1.3249
37287SOL     OW16671   3.821   9.606   7.442  0.0875  1.6613  0.2342
37287SOL    HW116672   3.827   9.669   7.370  1.8662  2.6927  1.2152
37287SOL    HW216673   3.881   9.641   7.509  0.3005 -0.5120  1.2430
37288SOL     OW16674   8.478  12.096  10.638  0.0193  0.2016 -0.2866
37288SOL    HW116675   8.451  12.181  10.604 -2.6544 -0.6415 -0.4715
37288SOL    HW216676   8.508  12.048  10.560  1.5961  0.9362 -0.1714
37289SOL     OW16677   2.563   1.992   0.014 -0.0536  0.3718 -0.2017
37289SOL    HW116678   2.504   2.040   0.072  0.6264 -0.3563  1.1449
37289SOL    HW216679   2.638   2.050   0.003  0.0452  0.3033  0.0895
37290SOL     OW16680  12.076   7.470   8.693 -0.3003 -0.0748 -0.3892
37290SOL    HW116681  12.049   7.447   8.782 -0.1348  0.5101 -0.1867
37290SOL    HW216682  12.053   7.562   8.684  2.0192  0.5823 -0.0563
37291SOL     OW16683   3.760   3.075   3.198  0.5149  0.0094 -0.1206
37291SOL    HW116684   3.691   3.009   3.195 -1.6751  2.1629 -0.0940
37291SOL    HW216685   3.812   3.060   3.119 -0.2223 -1.3901 -0.3668
37292SOL     OW16686   4.822  11.477  12.266 -0.3147  0.0130 -0.0303
37292SOL    HW116687   4.767  11.490  12.343 -0.1150 -2.9154  0.6992
37292SOL    HW216688   4.788  11.398  12.225  1.9026 -0.5811 -0.8411
37293SOL     OW16689   8.153   8.867   9.533 -0.5570 -0.0556  0.0352
37293SOL    HW116690   8.244   8.852   9.507 -0.3469 -1.6674  1.5426
37293SOL    HW216691   8.102   8.807   9.479 -0.6081 -0.0167  0.0397
37294SOL     OW16692  10.624   8.203   7.011  0.3196  0.3390 -0.4710
37294SOL    HW116693  10.566   8.242   7.077  2.2820  2.1813  0.2666
37294SOL    HW216694  10.650   8.119   7.049 -0.1933  0.4582  0.1603
37295SOL     OW16695   8.740   2.375   3.589 -0.5979 -0.1564  0.3336
37295SOL    HW116696   8.800   2.431   3.541  1.4464 -0.6414  2.1288
37295SOL    HW216697   8.653   2.395   3.553  0.4864  1.3645 -1.6343
37296SOL     OW16698   6.135   3.230  12.138 -0.5312  0.2404  0.4042
37296SOL    HW116699   6.065   3.197  12.081 -1.0196  2.8843 -0.6480
37296SOL    HW216700   6.101   3.218  12.226 -0.8144 -1.6266  0.1006
37297SOL     OW16701   1.945   9.085   8.906  0.3935  0.2277  0.6730
37297SOL    HW116702   1.854   9.060   8.894  0.7639 -0.0125 -2.6426
37297SOL    HW216703   1.952   9.110   8.998 -2.8172 -0.3901  1.1842
37298SOL     OW16704   0.904  12.203   3.550 -0.1524 -0.0131 -0.3570
37298SOL    HW116705   0.883  12.238   3.636 -1.0690  0.3945 -0.7314
37298SOL    HW216706   0.892  12.277   3.490  0.5893 -0.2563 -0.8174
37299SOL     OW16707   4.375  10.842   8.133 -0.0420 -0.1793 -0.2074
37299SOL    HW116708   4.432  10.775   8.171 -0.1387 -0.3398 -0.3428
37299SOL    HW216709   4.435  10.905   8.093  0.1230  0.6332  1.2255
37300SOL     OW16710   4.934   3.476   5.186 -0.1560  0.2950 -0.2248
37300SOL    HW116711   4.914   3.567   5.165  0.5093  0.5086  0.0435
37300SOL    HW216712   4.857   3.427   5.155 -0.2158  0.8632 -1.0241
37301SOL     OW16713   1.451   2.118   8.445  0.3625 -0.1372 -0.3600
37301SOL    HW116714   1.546   2.125   8.438  0.6024 -0.6633  1.6556
37301SOL    HW216715   1.427   2.187   8.507 -0.4291 -0.5866 -0.1542
37302SOL     OW16716  12.122   5.357   8.075  0.6707 -0.8582 -0.0303
37302SOL    HW116717  12.052   5.401   8.027 -0.3613 -0.9016  1.3946
37302SOL    HW216718  12.172   5.428   8.115 -0.8333 -0.8961  2.0446
37303SOL     OW16719   7.623   7.101   3.389  0.1216 -0.5838 -0.3302
37303SOL    HW116720   7.606   7.191   3.420 -0.9487 -0.5785 -0.8902
37303SOL    HW216721   7.664   7.113   3.303  1.3311 -0.6310  0.2137
37304SOL     OW16722   0.134  12.020   6.309  0.1064 -0.0350  0.5650
37304SOL    HW116723   0.086  12.020   6.392  0.0644  1.6453  0.5662
37304SOL    HW216724   0.206  12.082   6.322  0.8104 -0.6369 -0.2750
37305SOL     OW16725   5.446   6.249  11.049  0.0882  0.3280  0.1053
37305SOL    HW116726   5.525   6.291  11.014  0.2070 -0.0173 -0.0553
37305SOL    HW216727   5.374   6.300  11.012  0.2386  0.7949  0.4470
37306SOL     OW16728   8.791   0.172   2.175  0.0417  0.2746  0.0618
37306SOL    HW116729   8.749   0.089   2.156 -1.6829  1.3971 -1.2809
37306SOL    HW216730   8.833   0.197   2.093 -0.7286  1.4143 -0.0114
37307SOL     OW16731   5.870  11.782   9.210  0.0939  0.9112  0.4525
37307SOL    HW116732   5.783  11.821   9.205 -1.4293 -1.7220  3.3907
37307SOL    HW216733   5.892  11.784   9.303  1.7035 -1.4240  0.1974
37308SOL     OW16734   9.173   7.087   5.300 -0.3218  0.7464 -0.2335
37308SOL    HW116735   9.212   7.145   5.365 -0.4186 -0.0870  0.5849
37308SOL    HW216736   9.191   6.999   5.332 -1.4179  0.3289 -0.7097
37309SOL     OW16737   9.147   2.440   3.288 -0.5040 -0.5225 -0.5310
37309SOL    HW116738   9.081   2.391   3.239 -0.8319  0.5600 -1.1897
37309SOL    HW216739   9.137   2.409   3.378 -2.2959  0.0252 -0.5117
37310SOL     OW16740   8.978   2.705  11.470 -0.4682 -0.0421  0.4356
37310SOL    HW116741   8.981   2.615  11.439 -1.0342 -0.7992  2.4734
37310SOL    HW216742   9.043   2.710  11.540 -1.1028  0.8675  0.9876
37311SOL     OW16743   4.660   4.169   7.474  0.0558 -0.6564 -0.8725
37311SOL    HW116744   4.678   4.077   7.493  0.0853 -0.3744  0.6454
37311SOL    HW216745   4.566   4.172   7.455 -0.3701 -0.7552  1.0245
37312SOL     OW16746  11.687   1.550   2.357  0.1629 -0.4528 -0.1249
37312SOL    HW116747  11.635   1.612   2.305  0.8051  1.7400  1.7044
37312SOL    HW216748  11.656   1.561   2.447  2.2042 -0.7668  0.6699
37313SOL     OW16749   1.520   3.135   4.103 -0.3887 -0.1281  0.0991
37313SOL    HW116750   1.434   3.175   4.092 -0.1110  1.1582  2.0331
37313SOL    HW216751   1.549   3.116   4.014 -1.3917  2.2133 -0.8268
37314SOL     OW16752   6.580   6.719   6.607 -0.1845  0.1064  0.1614
37314SOL    HW116753   6.626   6.802   6.617  1.7211 -0.8018 -0.7162
37314SOL    HW216754   6.518   6.718   6.680 -0.3210  2.3032  0.1511
37315SOL     OW16755   4.354   3.397  10.200 -0.1915 -0.1459 -0.2669
37315SOL    HW116756   4.441   3.358  10.212 -0.5766 -0.8196  0.4792
37315SOL    HW216757   4.302   3.329  10.158 -0.1191  0.5903 -1.5872
37316SOL     OW16758   6.396   8.511   5.387 -0.1107 -0.2357 -0.0434
37316SOL    HW116759   6.438   8.511   5.474  0.7119 -1.9192 -0.3943
37316SOL    HW216760   6.440   8.440   5.340 -0.3660  0.8040 -1.9425
37317SOL     OW16761  12.373  11.666   1.396  0.0421  0.2981  0.4392
37317SOL    HW116762  12.340  11.739   1.345  1.4255  0.7129  0.1013
37317SOL    HW216763  12.445  11.702   1.448 -0.2184 -0.4943  1.3906
37318SOL     OW16764  10.814   8.475   0.581  0.3423  0.4272  0.0660
37318SOL    HW116765  10.806   8.536   0.654  1.9891  0.3084  0.3862
37318SOL    HW216766  10.907   8.477   0.558 -0.0415  0.0218 -1.6617
37319SOL     OW16767   6.331  11.826   7.524 -0.1533 -0.1675 -0.2474
37319SOL    HW116768   6.237  11.841   7.518 -0.1006  0.1041 -0.3876
37319SOL    HW216769   6.354  11.848   7.614 -0.1604  0.1251 -0.3158
37320SOL     OW16770   8.409  11.465   2.366  0.3927  0.3308 -0.0996
37320SOL    HW116771   8.504  11.476   2.362  0.4208 -0.1129 -0.7341
37320SOL    HW216772   8.386  11.486   2.457  0.7919  2.6509 -0.4936
37321SOL     OW16773   7.725  10.455  12.571 -0.1096  0.4019 -0.2606
37321SOL    HW116774   7.662  10.418  12.633 -0.2667  0.2294 -0.5202
37321SOL    HW216775   7.687  10.437  12.485  0.5746 -0.1993 -0.4445
37322SOL     OW16776   8.493  11.231   9.008  0.6088  0.0773 -0.4606
37322SOL    HW116777   8.516  11.139   9.020 -0.3187  0.0673  1.7014
37322SOL    HW216778   8.563  11.280   9.051 -0.7198  0.1979  1.7252
37323SOL     OW16779   3.474   3.132   5.577  0.0761 -0.0308 -0.5403
37323SOL    HW116780   3.387   3.122   5.536 -0.0776  0.0498 -0.2339
37323SOL    HW216781   3.535   3.131   5.503 -0.0737 -1.3125 -0.6749
37324SOL     OW16782   2.025   7.389  11.818  0.0121 -0.2666  0.4985
37324SOL    HW116783   1.977   7.396  11.735 -0.4491  0.3060  0.7996
37324SOL    HW216784   1.994   7.464  11.869  1.3604  0.2213  0.6503
37325SOL     OW16785   2.270  10.355   9.444 -0.0939 -0.2894  0.0474
37325SOL    HW116786   2.271  10.368   9.349  0.8426  1.9226  0.2889
37325SOL    HW216787   2.250  10.263   9.456 -0.2822 -0.6020 -2.3007
37326SOL     OW16788  10.261   2.049   7.570  0.0121 -0.2671  0.0398
37326SOL    HW116789  10.296   1.969   7.610  2.0054 -0.2070 -1.4234
37326SOL    HW216790  10.275   2.036   7.476 -0.4832  1.4200 -0.2929
37327SOL     OW16791   8.114  11.058   4.496  0.1086  0.2503  0.1211
37327SOL    HW116792   8.086  11.112   4.569  0.3900  0.8310 -0.1952
37327SOL    HW216793   8.117  11.118   4.421  0.1951 -0.2501 -0.2840
37328SOL     OW16794   1.154   8.533  10.853  0.4376  0.1093  0.4785
37328SOL    HW116795   1.130   8.480  10.929  2.3337 -0.0948  0.9992
37328SOL    HW216796   1.179   8.468  10.787  1.1111  0.3056  0.5308
37329SOL     OW16797   5.719   9.489   4.744 -0.0691  0.3259  0.5551
37329SOL    HW116798   5.787   9.444   4.692 -0.5501 -0.3251  0.4827
37329SOL    HW216799   5.688   9.423   4.806 -1.3839  0.2849 -0.1113
37330SOL     OW16800   1.583   4.080   1.679 -0.0058  0.2345 -0.8815
37330SOL    HW116801   1.626   4.060   1.596  3.3807  0.6686  0.6359
37330SOL    HW216802   1.606   4.171   1.697 -1.9860  0.6495 -0.1490
37331SOL     OW16803   4.755   8.945  11.653  0.7226  0.3681 -0.1749
37331SOL    HW116804   4.730   8.900  11.573  0.0062 -0.9696  0.7669
37331SOL    HW216805   4.774   9.035  11.625  1.5836 -0.3289 -2.0013
37332SOL     OW16806  10.303   0.162  10.222  0.4955  0.4419  0.4223
37332SOL    HW116807  10.297   0.220  10.298  0.1579 -0.2910  0.9657
37332SOL    HW216808  10.324   0.220  10.149  1.2402  1.1021  1.1506
37333SOL     OW16809  11.709   3.294   2.945  0.0948  0.1824  0.0099
37333SOL    HW116810  11.649   3.333   3.008 -0.4307 -2.4999  1.3147
37333SOL    HW216811  11.656   3.228   2.900  1.4987 -0.7163 -0.3935
37334SOL     OW16812   6.976   0.342  12.166 -0.3808 -0.0982 -0.0181
37334SOL    HW116813   6.908   0.381  12.111  0.5029 -0.8139 -1.6950
37334SOL    HW216814   6.984   0.402  12.240 -0.3365  1.9844 -1.6005
37335SOL     OW16815   7.131   5.016   5.907 -0.4127  0.0368  0.1403
37335SOL    HW116816   7.088   5.020   5.822  1.4181 -1.0729 -0.8972
37335SOL    HW216817   7.106   4.931   5.943  0.2434 -0.2869 -0.1361
37336SOL     OW16818  11.386   0.557   4.833  0.3936  0.2523  0.3662
37336SOL    HW116819  11.335   0.627   4.874 -1.2513 -1.6162  1.6851
37336SOL    HW216820  11.331   0.525   4.762  1.4248  0.6929 -0.6581
37337SOL     OW16821   4.238  11.930  10.334  0.5184 -0.3665  0.4152
37337SOL    HW116822   4.285  12.003  10.374 -1.2892  2.0813 -1.5621
37337SOL    HW216823   4.270  11.927  10.244 -1.0936 -0.3905 -0.2042
37338SOL     OW16824   8.914   3.894   5.267  0.1388  0.0443 -0.2637
37338SOL    HW116825   8.828   3.925   5.297 -0.3075 -1.8390  0.5928
37338SOL    HW216826   8.965   3.882   5.348  0.2253 -1.4759 -0.5082
37339SOL     OW16827   6.566  12.286  12.115 -0.4690  0.5014 -0.7404
37339SOL    HW116828   6.581  12.223  12.044 -0.6210  1.0645 -1.2842
37339SOL    HW216829   6.472  12.280  12.132 -0.1692 -0.9668  0.7099
37340SOL     OW16830   6.453   7.430   5.951 -0.2748  0.5926  0.1191
37340SOL    HW116831   6.545   7.403   5.951 -0.0952  1.1784 -0.4924
37340SOL    HW216832   6.419   7.397   5.867  0.0055  2.3896 -0.7453
37341SOL     OW16833   3.454   7.376   3.747  0.7202 -0.3624  0.5074
37341SOL    HW116834   3.451   7.285   3.778 -1.6374  0.1152  1.8646
37341SOL    HW216835   3.367   7.411   3.764  1.2351  1.8843 -0.9699
37342SOL     OW16836   0.381   9.837   2.967 -0.3558  0.2084  0.7172
37342SOL    HW116837   0.340   9.922   2.983 -1.5299 -0.0013 -0.9205
37342SOL    HW216838   0.466   9.858   2.929 -0.1781  0.6438  1.3448
37343SOL     OW16839   8.784   1.277   2.967 -0.1297  0.5652 -0.0724
37343SOL    HW116840   8.877   1.290   2.986 -0.0103  0.6952 -0.6983
37343SOL    HW216841   8.739   1.303   3.047  0.3241  1.3170 -0.0481
37344SOL     OW16842  10.504  11.535   1.878 -0.6027  0.2026 -0.0854
37344SOL    HW116843  10.424  11.586   1.888 -1.6690 -1.2574 -0.8870
37344SOL    HW216844  10.490  11.481   1.800  1.4114  0.3456 -0.6152
37345SOL     OW16845  11.500   1.023  11.836 -0.2632 -0.0394  0.2049
37345SOL    HW116846  11.571   0.988  11.783 -0.2275 -1.6122  1.2172
37345SOL    HW216847  11.542   1.086  11.894  0.1390 -0.1857  0.0794
37346SOL     OW16848   7.702   6.946   0.063 -0.3942  0.1558 -0.9347
37346SOL    HW116849   7.760   6.870   0.065 -0.4094  0.1481 -0.7812
37346SOL    HW216850   7.647   6.936   0.141 -0.2373  0.4494 -0.7870
37347SOL     OW16851   0.514  10.916   7.030 -0.3105 -0.0544  0.2851
37347SOL    HW116852   0.484  10.957   6.948  0.6830  0.0132 -0.0516
37347SOL    HW216853   0.472  10.829   7.029 -0.2143 -0.1001 -0.3563
37348SOL     OW16854   4.084   3.750  11.231 -0.1779 -0.9446  0.1236
37348SOL    HW116855   4.115   3.683  11.292  1.2941 -0.8792 -0.4894
37348SOL    HW216856   3.997   3.721  11.206  0.7962 -3.2619 -0.9050
37349SOL     OW16857  10.614   0.420   5.421  0.8061  0.2258 -0.4020
37349SOL    HW116858  10.554   0.417   5.347  0.9679  0.0938 -0.5280
37349SOL    HW216859  10.565   0.376   5.492  0.5811  0.5170 -0.3736
37350SOL     OW16860  12.473   6.359   1.059  0.0771 -0.2553  0.1662
37350SOL    HW116861  12.382   6.358   1.030  0.2754 -1.1495 -0.4684
37350SOL    HW216862  12.470   6.326   1.149 -0.3599  0.9776  0.6243
37351SOL     OW16863   0.325   2.561   4.822 -0.4618  0.1387 -0.1522
37351SOL    HW116864   0.260   2.513   4.771 -1.5321  1.1411  0.2219
37351SOL    HW216865   0.409   2.538   4.782 -0.9751 -1.6999 -0.2222
37352SOL     OW16866   0.373  12.139  10.354 -0.1262 -1.0406 -0.1580
37352SOL    HW116867   0.444  12.134  10.417 -1.4524 -1.8646  1.3557
37352SOL    HW216868   0.302  12.182  10.401 -0.2326  1.1094 -2.0894
37353SOL     OW16869   7.731   9.949  12.244 -0.0830  0.6282 -0.2049
37353SOL    HW116870   7.758   9.927  12.154 -0.6882 -1.9573  0.1616
37353SOL    HW216871   7.787   9.894  12.299  0.3751  2.3018  1.0437
37354SOL     OW16872  12.163   8.107   7.123  0.2410  0.0797  0.0879
37354SOL    HW116873  12.177   8.148   7.208  5.6879  2.2911 -1.4637
37354SOL    HW216874  12.143   8.180   7.064  0.9967 -0.7242 -1.2209
37355SOL     OW16875   5.397   8.619   4.808 -0.1675 -0.2580  0.3728
37355SOL    HW116876   5.450   8.606   4.730 -0.3865 -1.3309  0.3875
37355SOL    HW216877   5.429   8.701   4.846  2.2487 -1.4057  1.0015
37356SOL     OW16878   1.150   8.206  12.030  0.0514  0.0917  0.0845
37356SOL    HW116879   1.152   8.177  12.121 -1.7353 -2.0691 -0.4467
37356SOL    HW216880   1.057   8.210  12.008  0.4203  1.2419 -1.4634
37357SOL     OW16881  11.467   1.676   8.145 -0.3713 -0.3091 -0.6974
37357SOL    HW116882  11.418   1.594   8.136 -0.8083 -0.4050  1.8424
37357SOL    HW216883  11.536   1.656   8.208 -1.1810  1.5214  0.8560
37358SOL     OW16884   4.809   1.897   2.988 -0.3451 -0.1209  0.1158
37358SOL    HW116885   4.880   1.859   3.039 -1.7058 -0.4222  1.8768
37358SOL    HW216886   4.852   1.957   2.927  1.7145 -2.9463 -1.4497
37359SOL     OW16887  10.100   9.843   4.370 -0.1206  0.6130 -0.3427
37359SOL    HW116888  10.174   9.873   4.423 -0.3286  1.5393 -0.5615
37359SOL    HW216889  10.071   9.921   4.322 -1.0750  0.2063 -0.4564
37360SOL     OW16890   7.208   8.026   4.420  0.0228  0.2906  0.0658
37360SOL    HW116891   7.248   7.976   4.491  0.0397  1.3031  0.8059
37360SOL    HW216892   7.151   7.964   4.375  0.4211 -0.5064  0.6362
37361SOL     OW16893  10.228   0.857   0.294 -0.1562  0.0507  0.4101
37361SOL    HW116894  10.152   0.882   0.347 -2.5565 -1.9680 -1.8246
37361SOL    HW216895  10.263   0.940   0.261 -2.6477  0.9699 -0.0898
37362SOL     OW16896   1.328  10.293   0.367  0.4579  0.0206  0.1661
37362SOL    HW116897   1.298  10.279   0.457  1.2284  0.3136  0.4724
37362SOL    HW216898   1.259  10.254   0.313  0.1230 -0.4052  0.8840
37363SOL     OW16899   5.606   9.317   5.660  0.4353  0.9452  0.3325
37363SOL    HW116900   5.670   9.335   5.728 -0.1661  1.2586  0.8309
37363SOL    HW216901   5.553   9.397   5.656  0.9896  1.2697 -1.0981
37364SOL     OW16902  12.525   5.115   1.079 -0.4847  0.4949  0.2167
37364SOL    HW116903  12.545   5.028   1.044 -1.4258  0.5632 -0.5306
37364SOL    HW216904  12.593   5.130   1.145  0.4042 -0.2932 -0.4864
37365SOL     OW16905   8.483  11.717   0.106 -0.0649 -0.2141 -0.0956
37365SOL    HW116906   8.537  11.641   0.130  0.3163 -0.0970 -0.5605
37365SOL    HW216907   8.544  11.775   0.060 -0.3597  0.3626  0.2324
37366SOL     OW16908   3.265   6.371  10.774  0.0361 -0.5208 -0.3164
37366SOL    HW116909   3.225   6.370  10.687  0.5692  0.2201 -0.5793
37366SOL    HW216910   3.213   6.435  10.823 -0.2781 -0.9547 -0.0746
37367SOL     OW16911   6.691   0.386   7.965 -0.0027  0.3333 -0.0681
37367SOL    HW116912   6.632   0.311   7.973 -1.2236  1.2412 -0.2239
37367SOL    HW216913   6.659   0.434   7.888  2.4567 -0.4189 -1.6738
37368SOL     OW16914  11.511   5.040   0.207 -0.7400 -0.6726  0.6094
37368SOL    HW116915  11.491   5.086   0.289 -2.5151 -1.6750  0.7931
37368SOL    HW216916  11.587   4.986   0.227 -0.2230  0.2390  1.1396
37369SOL     OW16917  11.983   5.854   2.198  0.0977 -0.1109  0.4178
37369SOL    HW116918  12.038   5.932   2.202  0.9279 -0.6062 -0.5477
37369SOL    HW216919  12.046   5.781   2.199  0.0020 -0.6974 -4.8884
37370SOL     OW16920   8.876   5.582   5.721  0.1712 -0.2130 -0.2747
37370SOL    HW116921   8.828   5.607   5.800  0.1350 -0.6469 -0.1558
37370SOL    HW216922   8.947   5.645   5.716 -2.2316  2.6178 -2.2774
37371SOL     OW16923   8.898   8.420  11.173 -0.4003 -0.0980 -0.0683
37371SOL    HW116924   8.837   8.483  11.212  0.0397 -1.0097  2.2782
37371SOL    HW216925   8.889   8.433  11.079 -0.9427  2.8536  0.2865
37372SOL     OW16926   3.569   6.131   8.492 -0.2557  0.0960  0.7312
37372SOL    HW116927   3.568   6.184   8.572  1.0882 -1.2657  1.7144
37372SOL    HW216928   3.655   6.088   8.493 -0.5883 -0.6922 -0.9665
37373SOL     OW16929   5.197  11.439   6.698  0.6753  0.0349 -0.2919
37373SOL    HW116930   5.114  11.478   6.672  1.4236  0.8675 -1.5207
37373SOL    HW216931   5.197  11.353   6.656 -0.0919 -0.4814  0.7397
37374SOL     OW16932   0.753   8.408   6.772  0.1339  0.2172 -0.5977
37374SOL    HW116933   0.835   8.442   6.737  0.9020 -0.6203  0.3175
37374SOL    HW216934   0.759   8.314   6.758 -0.2712  0.0575  0.2856
37375SOL     OW16935   1.876   3.535  12.046  0.1810 -0.4638  0.3100
37375SOL    HW116936   1.966   3.521  12.074  1.0350  0.0321 -1.9630
37375SOL    HW216937   1.854   3.622  12.079  1.0696  0.0160 -0.3078
37376SOL     OW16938   1.621   5.107   9.968  0.3223 -0.0279 -0.4319
37376SOL    HW116939   1.643   5.192   9.930 -1.1024  1.3858  1.6598
37376SOL    HW216940   1.673   5.103  10.048 -0.5371 -0.5628  0.1133
37377SOL     OW16941   1.694   6.512   3.661 -0.1404  0.0507 -0.5045
37377SOL    HW116942   1.659   6.570   3.594 -2.4081 -0.1951  0.4019
37377SOL    HW216943   1.640   6.529   3.738  0.0722 -2.2442  0.2098
37378SOL     OW16944   4.322  12.429   1.466 -0.1977  0.4387 -0.2178
37378SOL    HW116945   4.380  12.503   1.445  2.3148 -1.2252  0.3760
37378SOL    HW216946   4.269  12.416   1.388  1.6435  0.8487 -1.6031
37379SOL     OW16947   6.674  11.402   0.929 -0.0168  0.5468 -0.0600
37379SOL    HW116948   6.722  11.465   0.982  0.6783  0.6681 -0.8190
37379SOL    HW216949   6.683  11.434   0.840  0.5065 -0.7212 -0.4811
37380SOL     OW16950   9.567   3.011   0.188 -0.0464  0.0411  0.4376
37380SOL    HW116951   9.591   3.007   0.095  2.8891 -0.4312  1.1373
37380SOL    HW216952   9.559   3.104   0.207 -2.6805  0.1295 -0.6696
37381SOL     OW16953  10.304   7.286   9.950  0.0733  0.1869 -0.4593
37381SOL    HW116954  10.318   7.254   9.861 -0.2085 -0.9432 -0.1177
37381SOL    HW216955  10.210   7.279   9.963  0.1271  0.2393 -0.0346
37382SOL     OW16956   5.991   0.811   1.640 -0.4538  0.4026  0.1442
37382SOL    HW116957   5.917   0.854   1.684 -0.2655  4.7602 -3.1710
37382SOL    HW216958   5.958   0.793   1.551  2.0896  1.6055 -1.1331
37383SOL     OW16959   0.564   9.010   0.278 -0.4415  0.0629  0.2658
37383SOL    HW116960   0.546   9.046   0.191  0.4385 -0.6369 -0.2188
37383SOL    HW216961   0.478   8.986   0.313 -0.8571  0.9318 -0.1468
37384SOL     OW16962  11.751   2.346  10.325 -0.0026  0.1927  0.0535
37384SOL    HW116963  11.658   2.369  10.323  0.2285  1.1683 -0.7266
37384SOL    HW216964  11.767   2.305  10.240  0.4824  0.9209 -0.2144
37385SOL     OW16965   9.265   1.020   8.658  0.0627  0.0978 -0.7053
37385SOL    HW116966   9.201   1.084   8.629  0.6456 -0.3143 -3.0908
37385SOL    HW216967   9.339   1.030   8.598  1.5383 -0.6298  0.8673
37386SOL     OW16968  11.109   4.266   7.199  1.2413 -0.1741 -0.0461
37386SOL    HW116969  11.029   4.227   7.165  0.6668  2.1870 -1.6374
37386SOL    HW216970  11.080   4.336   7.257  1.9866  1.7869 -1.8749
37387SOL     OW16971   4.185   7.125   7.755 -0.8365 -1.1106 -0.2821
37387SOL    HW116972   4.194   7.195   7.690 -3.3225 -1.6670 -1.3477
37387SOL    HW216973   4.246   7.057   7.725  0.5820 -0.0010 -0.0160
37388SOL     OW16974   1.887   7.850   7.151 -0.2673 -0.1654 -0.1991
37388SOL    HW116975   1.894   7.815   7.240 -1.3741 -0.6947 -0.3028
37388SOL    HW216976   1.933   7.786   7.096 -1.1615 -0.8026 -0.2237
37389SOL     OW16977  10.220   6.453   2.295 -0.6421  0.0787  0.3264
37389SOL    HW116978  10.285   6.458   2.225  0.3322  1.3182  1.2679
37389SOL    HW216979  10.195   6.544   2.311  1.3255  0.2128  3.4938
37390SOL     OW16980   8.295   2.262   3.275 -0.4588  0.1057 -0.0554
37390SOL    HW116981   8.258   2.348   3.255  0.1487  0.4278  0.1958
37390SOL    HW216982   8.243   2.201   3.223 -0.6951  0.6562 -0.4680
37391SOL     OW16983  10.116   9.481   7.022  0.0227  0.0663 -0.7073
37391SOL    HW116984  10.201   9.504   6.984  1.2491 -0.5256  1.5084
37391SOL    HW216985  10.093   9.398   6.979  1.7198 -0.9769  0.2596
37392SOL     OW16986   4.706   5.429   0.581 -0.5054  0.1482 -0.0197
37392SOL    HW116987   4.704   5.514   0.626 -0.6005  0.8793 -1.3697
37392SOL    HW216988   4.631   5.382   0.617 -1.0309  1.0077  0.0327
37393SOL     OW16989   9.011  11.885   8.809  0.1297  0.0552 -0.1211
37393SOL    HW116990   9.027  11.814   8.747  1.1905 -0.8663  1.1438
37393SOL    HW216991   9.041  11.850   8.893  1.3326  2.2729  0.4312
37394SOL     OW16992   0.735   1.922   2.441 -0.4481  0.4593 -0.6031
37394SOL    HW116993   0.800   1.856   2.416 -1.7939 -0.6390 -1.3312
37394SOL    HW216994   0.710   1.898   2.530 -2.1822 -1.1190 -1.4588
37395SOL     OW16995   2.437   9.930   3.959  0.5271 -0.3269 -0.1985
37395SOL    HW116996   2.383   9.999   3.921 -0.4013 -1.0224 -0.1657
37395SOL    HW216997   2.527   9.964   3.953 -0.0637  1.9458  2.0506
37396SOL     OW16998   4.008  10.219   5.504 -0.1826  0.3374  0.0675
37396SOL    HW116999   4.023  10.129   5.475  0.4834 -0.4458  2.6117
37396SOL    HW217000   4.095  10.258   5.507 -0.1716  0.2353  1.4222
37397SOL     OW17001   6.671   2.112   5.749 -0.4183  0.2823 -0.1881
37397SOL    HW117002   6.672   2.167   5.670  0.3036  0.2005 -0.2450
37397SOL    HW217003   6.602   2.048   5.732  0.0566 -0.0436 -0.9816
37398SOL     OW17004   1.520   4.927   9.586  0.1087 -0.4326  0.5107
37398SOL    HW117005   1.474   4.959   9.663 -0.7632 -0.6205  0.0852
37398SOL    HW217006   1.471   4.849   9.560 -0.1804  0.1517 -0.7740
37399SOL     OW17007   0.873  11.202   8.663  0.4170 -0.1654 -0.0858
37399SOL    HW117008   0.796  11.190   8.719  2.5372 -1.2117  2.7984
37399SOL    HW217009   0.926  11.268   8.708  1.7617 -0.2797 -1.4187
37400SOL     OW17010   9.470   1.665   4.037  0.6121 -0.0574 -0.0845
37400SOL    HW117011   9.480   1.660   4.132  0.4248 -0.3294 -0.0787
37400SOL    HW217012   9.375   1.671   4.023  0.5717 -1.1023 -0.3032
37401SOL     OW17013   7.343   5.917  10.654  0.2889 -0.1162  0.4278
37401SOL    HW117014   7.399   5.849  10.693  2.1331  1.7350  1.1898
37401SOL    HW217015   7.289   5.948  10.726 -0.0753 -0.3175  0.2402
37402SOL     OW17016   2.532   0.013   2.986  0.1254 -0.1072 -0.1376
37402SOL    HW117017   2.505   0.008   3.077  0.0323 -0.8805 -0.2026
37402SOL    HW217018   2.511   0.103   2.959 -0.6478 -0.1420  0.3453
37403SOL     OW17019  10.370   3.127   2.724  0.0806 -0.1832 -0.1397
37403SOL    HW117020  10.390   3.036   2.746  1.4441  0.4345  1.3843
37403SOL    HW217021  10.390   3.176   2.804 -1.0385  1.4188 -0.7810
37404SOL     OW17022   1.194   7.875   5.292  0.2051 -0.3287  0.3683
37404SOL    HW117023   1.213   7.884   5.199  2.6120 -0.1402  0.8310
37404SOL    HW217024   1.109   7.831   5.295 -0.3089  0.3858 -1.8939
37405SOL     OW17025   3.591   7.039   2.411  0.9424 -0.2053  0.9712
37405SOL    HW117026   3.545   7.103   2.357  0.3114 -1.0319  0.5046
37405SOL    HW217027   3.574   7.067   2.501  1.8867  1.1036  0.7789
37406SOL     OW17028   1.584  11.864   0.074 -0.1028  0.2359 -0.0608
37406SOL    HW117029   1.539  11.935   0.119 -0.1947 -0.2690  0.6659
37406SOL    HW217030   1.540  11.857  -0.011 -0.7110  0.4190  0.2400
37407SOL     OW17031  10.869   8.358   1.705  0.2233  0.2336 -0.2311
37407SOL    HW117032  10.819   8.420   1.652 -2.5592 -1.7683 -0.1701
37407SOL    HW217033  10.897   8.290   1.643  1.1079  0.2746  0.1063
37408SOL     OW17034   5.735  10.641   4.754  0.0423 -0.0999  0.8557
37408SOL    HW117035   5.797  10.574   4.726  0.7498  0.8132  0.2045
37408SOL    HW217036   5.697  10.606   4.835 -1.1117 -2.1970 -0.5226
37409SOL     OW17037   1.553   7.902   0.846 -0.2243 -0.2076 -0.4823
37409SOL    HW117038   1.487   7.934   0.784  1.2342 -0.0912 -2.0331
37409SOL    HW217039   1.511   7.912   0.932 -1.9854  0.4306 -1.3587
37410SOL     OW17040   6.339  11.333   6.554 -0.9000  0.5813 -0.6064
37410SOL    HW117041   6.364  11.422   6.577  1.0900 -0.1789  0.4392
37410SOL    HW217042   6.280  11.306   6.625  0.8436  0.1127  0.7252
37411SOL     OW17043   4.562   9.158   5.166 -0.1060 -0.1748 -0.0994
37411SOL    HW117044   4.591   9.246   5.141 -0.7662  0.1642  0.2884
37411SOL    HW217045   4.602   9.100   5.101 -0.2738  0.4904 -0.8203
37412SOL     OW17046   7.645   2.348  10.821  0.1402 -0.4893 -0.1037
37412SOL    HW117047   7.653   2.274  10.761  0.1100  0.6958 -1.6192
37412SOL    HW217048   7.728   2.348  10.870 -0.2471 -2.0640  0.6147
37413SOL     OW17049   9.152   7.550   8.850 -0.5449 -0.0037  0.1233
37413SOL    HW117050   9.194   7.476   8.807 -0.9890  0.4243 -1.1024
37413SOL    HW217051   9.190   7.552   8.937  0.3789 -0.9227 -0.2372
37414SOL     OW17052  12.560  12.275  12.307  0.3968  0.2040 -0.2844
37414SOL    HW117053  12.519  12.358  12.328 -0.8907 -0.5173  0.1657
37414SOL    HW217054  12.654  12.289  12.324  0.0239  1.1294  1.1971
37415SOL     OW17055   4.287   5.441  11.155 -0.0619  0.8440  0.0877
37415SOL    HW117056   4.314   5.487  11.075 -1.1874  1.0000 -0.2347
37415SOL    HW217057   4.192   5.454  11.158 -0.1975 -0.1966  0.7995
37416SOL     OW17058   4.130  11.437   1.719  0.2651 -0.4410 -0.1695
37416SOL    HW117059   4.158  11.528   1.724  0.1092 -0.3194 -1.1458
37416SOL    HW217060   4.207  11.390   1.686 -0.6564 -0.0582 -3.1515
37417SOL     OW17061   5.644   9.128  12.398 -0.4022 -0.3305 -0.0494
37417SOL    HW117062   5.577   9.166  12.341 -1.5524 -1.7448  0.3017
37417SOL    HW217063   5.701   9.201  12.420 -0.3012  0.4144 -2.4707
37418SOL     OW17064   8.476   6.345   3.423  0.0247 -0.3031 -0.0819
37418SOL    HW117065   8.493   6.294   3.502  0.5456 -0.0563 -0.0275
37418SOL    HW217066   8.550   6.407   3.418  0.2702 -0.6533 -1.0272
37419SOL     OW17067   1.106   3.724   9.082  0.0332  0.7761  0.4343
37419SOL    HW117068   1.082   3.656   9.018  1.3835  0.1931  0.5273
37419SOL    HW217069   1.076   3.689   9.166  0.0175  0.6607  0.3814
37420SOL     OW17070   8.222   0.297   9.656  0.2284 -0.7921  0.7386
37420SOL    HW117071   8.164   0.334   9.722 -0.5925 -1.9778  0.7075
37420SOL    HW217072   8.262   0.221   9.699  1.5747 -0.1655  0.6671
37421SOL     OW17073   0.872   8.739   5.679  0.0671  0.0242 -0.0816
37421SOL    HW117074   0.817   8.774   5.749  1.1877  0.1974  0.7527
37421SOL    HW217075   0.960   8.771   5.700  0.9202 -2.1413 -0.0176
37422SOL     OW17076  10.226   2.440   9.147 -0.1130 -0.2632 -0.1499
37422SOL    HW117077  10.251   2.477   9.232  0.7672 -1.3137  0.0710
37422SOL    HW217078  10.179   2.359   9.169 -0.5727 -0.1384 -0.6548
37423SOL     OW17079   0.348  10.617  12.529 -0.4628  0.6708  0.0908
37423SOL    HW117080   0.402  10.606  12.607 -1.8393 -1.0162  0.8858
37423SOL    HW217081   0.258  10.601  12.560 -1.1429  0.8901 -1.6538
37424SOL     OW17082   0.079   7.483   4.864  0.2158  0.0312 -0.6975
37424SOL    HW117083   0.046   7.565   4.900  3.5337  0.8282  0.9321
37424SOL    HW217084   0.050   7.416   4.926  0.6698  0.5385  0.0834
37425SOL     OW17085   3.554   4.813   4.876  1.1034  0.0122 -0.2656
37425SOL    HW117086   3.647   4.836   4.869  1.4234 -0.4651  1.6856
37425SOL    HW217087   3.526   4.853   4.959 -0.0565 -1.0104 -0.1385
37426SOL     OW17088   4.834   3.656   0.364  0.4112  0.4812 -0.4199
37426SOL    HW117089   4.817   3.592   0.433  0.6543  2.1393  1.2750
37426SOL    HW217090   4.878   3.607   0.295 -0.7665 -1.4649  0.1438
37427SOL     OW17091   1.715  11.861   3.701 -0.1343  0.4231  0.1883
37427SOL    HW117092   1.655  11.812   3.645 -0.7260  0.2958  0.9211
37427SOL    HW217093   1.664  11.936   3.732  0.4209  0.9018 -0.0395
37428SOL     OW17094  11.134   8.842   4.888 -0.3847 -0.5890  0.6328
37428SOL    HW117095  11.080   8.918   4.864 -0.5235 -1.1447 -0.9581
37428SOL    HW217096  11.082   8.766   4.862  0.6234 -1.1695  0.2309
37429SOL     OW17097  12.203   9.110  10.282 -0.2253  0.0943  0.1720
37429SOL    HW117098  12.246   9.060  10.214 -0.5189  2.5739 -2.0136
37429SOL    HW217099  12.111   9.085  10.276  0.0192 -1.0623  0.9895
37430SOL     OW17100   5.426   0.304   8.954  0.0003  0.3510 -0.0706
37430SOL    HW117101   5.455   0.347   9.035  1.6870 -1.9692  0.6504
37430SOL    HW217102   5.342   0.264   8.977 -1.7535  3.2510 -0.8343
37431SOL     OW17103   9.688   7.257   8.430  0.0170  0.0381  0.7379
37431SOL    HW117104   9.784   7.259   8.424  0.0695  0.9130  1.6042
37431SOL    HW217105   9.669   7.292   8.517 -1.0971 -0.1750  0.5911
37432SOL     OW17106   7.945   0.821   6.171  0.3427  0.3337  0.3435
37432SOL    HW117107   7.959   0.892   6.107  2.5453 -0.4649 -0.1621
37432SOL    HW217108   7.856   0.834   6.202 -0.6017  1.1860 -2.3855
37433SOL     OW17109   0.346   4.253   9.589 -0.3023  0.2822 -0.4109
37433SOL    HW117110   0.261   4.214   9.571 -0.2322 -0.1878  0.2381
37433SOL    HW217111   0.406   4.209   9.529 -0.2829 -0.3821  0.0851
37434SOL     OW17112   6.123   9.486  10.653  0.5292  0.3924  0.8923
37434SOL    HW117113   6.133   9.406  10.705  1.2356 -1.0162 -1.2932
37434SOL    HW217114   6.031   9.511  10.666 -0.8995 -3.0354 -1.3352
37435SOL     OW17115   1.809  11.111  12.185  0.2103 -0.6498 -0.3311
37435SOL    HW117116   1.902  11.136  12.186  0.1827 -0.3325 -2.2830
37435SOL    HW217117   1.791  11.083  12.275  1.8020  0.6889  0.4651
37436SOL     OW17118   3.698   4.012   3.627  0.2628 -0.0272 -0.6283
37436SOL    HW117119   3.721   4.088   3.681 -0.2700 -0.9801  1.0253
37436SOL    HW217120   3.646   4.049   3.556 -0.3092  1.1412  0.3432
37437SOL     OW17121   0.582  11.485   6.492 -0.2829  0.1554 -0.0485
37437SOL    HW117122   0.531  11.409   6.520 -0.2202  0.0467 -0.2338
37437SOL    HW217123   0.556  11.555   6.553 -2.0058  0.6131 -1.2478
37438SOL     OW17124   3.261   4.501   7.871  0.3544  0.5490  0.2952
37438SOL    HW117125   3.317   4.443   7.923  0.4449  0.4711  0.1121
37438SOL    HW217126   3.175   4.496   7.914  0.5795  0.9562  0.7917
37439SOL     OW17127  11.028   3.227   4.381 -0.3487  0.1858 -0.4660
37439SOL    HW117128  11.122   3.230   4.397 -0.3361  2.0225 -0.6505
37439SOL    HW217129  10.990   3.205   4.466  0.2284 -0.6585 -0.4101
37440SOL     OW17130  11.705   0.515   8.487 -0.1331  0.2750 -0.5279
37440SOL    HW117131  11.672   0.439   8.534 -0.1617  0.7642  0.2641
37440SOL    HW217132  11.798   0.521   8.511 -0.4783  1.3558  0.6291
37441SOL     OW17133   8.234  12.572  10.656  0.6536 -0.2773  0.2676
37441SOL    HW117134   8.256  12.653  10.701  1.3614 -0.3540  0.0660
37441SOL    HW217135   8.250  12.590  10.564  2.4199 -1.1402  0.3685
37442SOL     OW17136   4.107   3.625   6.861 -0.4765  0.0782 -0.2470
37442SOL    HW117137   4.163   3.556   6.898 -0.5972  0.1834  0.1374
37442SOL    HW217138   4.169   3.684   6.817 -0.4144 -0.4869 -0.9185
37443SOL     OW17139   6.950  11.813   4.277 -0.1667 -0.3098 -0.3669
37443SOL    HW117140   6.982  11.798   4.188 -0.7954  0.5058 -0.7430
37443SOL    HW217141   7.027  11.843   4.325  0.9130 -3.5151  0.1712
37444SOL     OW17142   9.720   4.105   1.094  0.2961 -0.4227  0.1762
37444SOL    HW117143   9.727   4.036   1.160  0.2904 -1.1547 -0.5848
37444SOL    HW217144   9.785   4.170   1.122  1.3398 -1.3990  0.1150
37445SOL     OW17145   4.454   7.585   5.249 -0.3363 -0.1313  0.1539
37445SOL    HW117146   4.503   7.503   5.259 -0.7254 -0.2423  1.1992
37445SOL    HW217147   4.505   7.649   5.300 -1.3215 -0.2731  1.3476
37446SOL     OW17148  10.299   3.860   9.232  0.4161  0.3233  0.3240
37446SOL    HW117149  10.246   3.900   9.301  0.7312  0.6153  0.3993
37446SOL    HW217150  10.235   3.818   9.174  0.1930 -0.5270  1.1678
37447SOL     OW17151  11.034   9.077   8.286  0.2016 -0.5014 -0.2373
37447SOL    HW117152  11.074   9.136   8.222  0.6842 -1.3166 -0.6999
37447SOL    HW217153  10.940   9.088   8.273  0.2946 -0.2708 -0.7319
37448SOL     OW17154   1.355   0.723   3.113 -0.1408  0.2885 -0.2360
37448SOL    HW117155   1.448   0.713   3.135  0.2146 -1.7835 -2.2057
37448SOL    HW217156   1.355   0.771   3.031 -0.8424  0.6392 -0.0368
37449SOL     OW17157   8.635   7.328  10.824 -0.6913  0.0417 -0.2781
37449SOL    HW117158   8.659   7.421  10.828 -2.4670  0.5055  1.3315
37449SOL    HW217159   8.660   7.293  10.909 -0.6167 -0.7964 -0.6376
37450SOL     OW17160   5.723   2.344   8.734 -0.0718 -0.0913 -0.4955
37450SOL    HW117161   5.698   2.421   8.683 -1.6932 -0.3602 -0.1720
37450SOL    HW217162   5.737   2.377   8.823 -1.7943 -0.2758 -0.1177
37451SOL     OW17163  11.686   4.021  10.728  0.0233  0.0407  0.3719
37451SOL    HW117164  11.778   4.015  10.754  0.1568 -0.2579 -0.1542
37451SOL    HW217165  11.688   4.022  10.632 -0.6061 -1.4055  0.3228
37452SOL     OW17166   7.587  10.904  10.309  0.3059  0.5783 -0.0628
37452SOL    HW117167   7.680  10.891  10.290  0.8912  0.6524  2.3982
37452SOL    HW217168   7.550  10.816  10.311  0.6031  0.4566  0.1568
37453SOL     OW17169  11.259   8.980   6.979  0.6550  0.4939 -0.3754
37453SOL    HW117170  11.334   9.013   6.930  1.1013 -1.1662 -0.8504
37453SOL    HW217171  11.228   8.905   6.929 -0.6531  0.4757  0.3969
37454SOL     OW17172   4.300   9.362  10.484  0.0581 -0.3066  0.6678
37454SOL    HW117173   4.359   9.290  10.462 -1.4588 -1.3797 -0.1022
37454SOL    HW217174   4.349   9.415  10.546  1.6659 -1.3642  0.3718
37455SOL     OW17175   0.483  10.401   6.017 -0.1024 -0.3159 -0.5310
37455SOL    HW117176   0.528  10.317   6.008 -0.2499 -0.5001  0.3675
37455SOL    HW217177   0.409  10.383   6.075 -0.2092  0.4109 -0.4268
37456SOL     OW17178   8.788   9.611   9.406 -0.1431 -0.6465 -0.4064
37456SOL    HW117179   8.765   9.572   9.322 -0.3651  0.6159 -0.9616
37456SOL    HW217180   8.707   9.651   9.438  0.6818  2.0555 -1.3965
37457SOL     OW17181   4.929   2.004   8.364  0.1213 -0.2278  0.2642
37457SOL    HW117182   4.974   2.051   8.435 -2.7645  0.0247  2.0754
37457SOL    HW217183   4.842   1.986   8.398 -1.0041 -1.2707 -2.8084
37458SOL     OW17184   2.293   3.140   1.785 -0.3140 -0.5545 -0.0451
37458SOL    HW117185   2.249   3.180   1.710 -0.1641 -1.0169 -0.3849
37458SOL    HW217186   2.269   3.048   1.780 -1.5590 -0.3459  1.3646
37459SOL     OW17187   4.720  12.076   4.194 -0.0950 -0.1840 -0.5912
37459SOL    HW117188   4.680  12.076   4.281  1.4499 -0.9925  0.1589
37459SOL    HW217189   4.665  12.017   4.142  0.6894 -2.1389  0.7182
37460SOL     OW17190   9.469   5.967   7.271  0.1465 -0.3275  0.4346
37460SOL    HW117191   9.438   5.996   7.356  0.5403 -0.2214  0.5458
37460SOL    HW217192   9.550   5.919   7.290  0.1359 -0.4673  0.1384
37461SOL     OW17193  10.669   2.624  10.354  0.5446  0.4055 -0.2258
37461SOL    HW117194  10.744   2.666  10.310  1.6858  0.4242  1.6196
37461SOL    HW217195  10.703   2.540  10.383  0.1491  0.7740  1.3927
37462SOL     OW17196   3.883  11.647   3.464  0.2095 -0.6009 -0.2346
37462SOL    HW117197   3.830  11.571   3.441  1.4994 -1.8188  0.6471
37462SOL    HW217198   3.926  11.672   3.382 -0.4365 -0.6279 -0.5908
37463SOL     OW17199   8.834   6.598   4.231  0.3165 -0.3656 -0.1571
37463SOL    HW117200   8.894   6.536   4.274  1.0381  0.0648 -0.5228
37463SOL    HW217201   8.885   6.678   4.221 -0.6116  0.2951  0.3057
37464SOL     OW17202   8.358   7.240  11.149  0.2362  0.1222  0.5983
37464SOL    HW117203   8.311   7.254  11.232 -0.4688 -0.0113  0.2327
37464SOL    HW217204   8.372   7.328  11.114  1.0003  0.2116  1.1023
37465SOL     OW17205   5.468   1.316   6.498  0.1374 -0.8196  0.0067
37465SOL    HW117206   5.555   1.357   6.500  0.1053 -0.7406 -0.2448
37465SOL    HW217207   5.457   1.280   6.586 -0.8902  1.9482  1.1265
37466SOL     OW17208   0.937  12.076   2.218  0.8766 -0.1315 -0.3795
37466SOL    HW117209   0.990  12.009   2.260 -0.1435 -0.3250  0.6417
37466SOL    HW217210   0.994  12.153   2.215  1.6006 -0.6589 -0.3474
37467SOL     OW17211   5.559   2.980   5.097  0.6716 -0.5922 -0.0263
37467SOL    HW117212   5.598   3.065   5.076  0.9551 -0.9204 -0.8670
37467SOL    HW217213   5.567   2.930   5.016  2.5706 -2.2202  1.0896
37468SOL     OW17214   5.833   8.430   6.366  0.2504 -0.3909 -0.4801
37468SOL    HW117215   5.861   8.471   6.284 -1.2028  1.9954  0.1164
37468SOL    HW217216   5.739   8.445   6.370  0.1822 -1.0337  1.3028
37469SOL     OW17217   1.663   9.217   1.719 -0.0838 -0.2682 -0.7870
37469SOL    HW117218   1.633   9.217   1.810  1.6447  0.0943 -0.1880
37469SOL    HW217219   1.607   9.282   1.676  0.9037  1.6885  0.7059
37470SOL     OW17220  12.301   9.021   0.301 -1.0745  0.0796  0.3647
37470SOL    HW117221  12.266   8.976   0.225 -0.3474 -2.8938  1.6418
37470SOL    HW217222  12.257   8.980   0.376  1.7344 -0.6544  1.7569
37471SOL     OW17223  12.295   6.892   8.484 -0.0491  1.0237  0.3425
37471SOL    HW117224  12.202   6.873   8.498 -0.1713  1.8321  0.6971
37471SOL    HW217225  12.301   6.918   8.392 -0.2441  1.3587  0.4228
37472SOL     OW17226   6.586  10.537   2.183  0.0801  0.7853  0.3157
37472SOL    HW117227   6.673  10.542   2.143  0.5943  0.3553  1.3652
37472SOL    HW217228   6.547  10.459   2.145  0.5689  0.3686  0.6666
37473SOL     OW17229   7.443   8.769  10.893 -0.5702  0.1925  0.1673
37473SOL    HW117230   7.390   8.702  10.849 -2.2129  0.3209  1.8484
37473SOL    HW217231   7.517   8.721  10.929  0.3316 -0.0590 -1.8815
37474SOL     OW17232  10.960   7.234   0.689 -0.0775 -0.3147  0.1394
37474SOL    HW117233  10.946   7.275   0.774  0.4633 -0.9204  0.5280
37474SOL    HW217234  10.968   7.307   0.628  2.7229  0.2868  1.0790
37475SOL     OW17235  10.466  10.850   2.559  0.0162 -0.2254  0.4794
37475SOL    HW117236  10.422  10.780   2.512  0.1778  1.0210 -1.6269
37475SOL    HW217237  10.526  10.889   2.496  0.0133  1.7537  1.5859
37476SOL     OW17238   3.308   1.261   5.758 -0.1520  0.5952  0.0521
37476SOL    HW117239   3.398   1.261   5.726  0.5407 -2.2709  1.6591
37476SOL    HW217240   3.305   1.329   5.825  0.6063  1.1947 -0.5150
37477SOL     OW17241   9.725   9.850   0.455 -0.4097 -0.0745  0.4824
37477SOL    HW117242   9.810   9.853   0.411 -0.8039 -0.7419 -0.3443
37477SOL    HW217243   9.726   9.768   0.504 -0.8758 -0.4609 -0.1494
37478SOL     OW17244   4.464   2.983   2.507  0.4154 -0.5057  0.1054
37478SOL    HW117245   4.408   2.906   2.504 -0.0528 -0.3089  2.2717
37478SOL    HW217246   4.552   2.950   2.490 -0.0783 -1.1058 -1.4319
37479SOL     OW17247   7.496   5.778  10.176 -0.6669  0.1824  0.2757
37479SOL    HW117248   7.557   5.740  10.112  0.4011 -0.3424  1.5328
37479SOL    HW217249   7.460   5.702  10.222  1.0795  0.5626  2.4640
37480SOL     OW17250   2.227   1.758   1.843 -0.7109  0.3524 -0.3639
37480SOL    HW117251   2.296   1.820   1.865 -1.1598  0.0685  2.0521
37480SOL    HW217252   2.223   1.761   1.747  0.5954  2.5848 -0.4281
37481SOL     OW17253   1.266   9.899   1.427 -0.3380  0.1847 -0.0620
37481SOL    HW117254   1.225   9.888   1.342  1.6161  0.9175 -1.1624
37481SOL    HW217255   1.282   9.994   1.434  0.6186 -0.0006  0.5558
37482SOL     OW17256   8.094   1.359   2.636 -0.1847 -0.0941  0.1819
37482SOL    HW117257   8.109   1.341   2.543  0.6251  0.6790  0.1457
37482SOL    HW217258   8.017   1.307   2.659  0.6672 -1.6948 -0.4584
37483SOL     OW17259  11.251   2.077   9.576  0.6519 -0.0196  0.0671
37483SOL    HW117260  11.234   2.004   9.515  0.4679 -0.6051  0.8090
37483SOL    HW217261  11.177   2.075   9.637  2.1814 -1.1813  1.9789
37484SOL     OW17262   1.864  10.115   1.750  0.4543  0.1168 -0.6868
37484SOL    HW117263   1.791  10.132   1.690 -1.3697  3.3536  2.0836
37484SOL    HW217264   1.834  10.044   1.806  0.9282 -0.8650 -1.6369
37485SOL     OW17265   2.659  11.723   4.736  0.3743 -0.4258  0.8224
37485SOL    HW117266   2.740  11.745   4.782  1.1694  1.2563 -1.2177
37485SOL    HW217267   2.687  11.701   4.647 -1.2128 -2.2733  0.7070
37486SOL     OW17268   5.752   1.101  11.141 -0.0840  0.0331  0.2506
37486SOL    HW117269   5.824   1.038  11.149  1.5715  1.9372  1.2521
37486SOL    HW217270   5.727   1.120  11.231 -1.6212 -0.2977 -0.0844
37487SOL     OW17271   2.162   9.020  10.756 -0.6194 -0.1331 -0.1576
37487SOL    HW117272   2.136   8.986  10.670 -0.7167 -0.2095 -0.0996
37487SOL    HW217273   2.226   9.088  10.737  1.7252 -2.1810 -0.1969
37488SOL     OW17274   8.045   2.103   5.242 -0.3304 -0.1880  0.1070
37488SOL    HW117275   8.126   2.152   5.233 -0.5748  0.2102  0.0246
37488SOL    HW217276   7.977   2.164   5.214 -0.8140  0.0061  1.5878
37489SOL     OW17277   6.687   3.617   2.265 -0.2042  0.6147 -0.0377
37489SOL    HW117278   6.719   3.683   2.326 -0.3998  0.3380  0.3708
37489SOL    HW217279   6.688   3.661   2.180  1.5854  0.5014 -0.1033
37490SOL     OW17280   2.232  12.229  10.678  0.3758 -0.0115 -0.5415
37490SOL    HW117281   2.261  12.148  10.636 -0.0581 -0.7047  0.4536
37490SOL    HW217282   2.305  12.253  10.736 -0.3890 -0.9637  0.8753
37491SOL     OW17283   9.221   1.888   9.128  0.2183 -0.0634 -0.0412
37491SOL    HW117284   9.296   1.832   9.151 -1.1357 -3.2767 -2.6043
37491SOL    HW217285   9.239   1.917   9.039 -1.5277 -0.9166 -0.7174
37492SOL     OW17286   8.653   4.541   7.134 -0.1139  0.4609  0.0852
37492SOL    HW117287   8.629   4.507   7.048 -0.0318  0.0496  0.2226
37492SOL    HW217288   8.724   4.484   7.163 -0.8595 -0.0756  0.8885
37493SOL     OW17289   5.047   1.950   9.780 -0.5573 -0.2821 -0.3784
37493SOL    HW117290   5.124   1.895   9.769  0.7118  1.0318  1.3344
37493SOL    HW217291   4.973   1.892   9.761  0.7674 -2.1442 -0.1238
37494SOL     OW17292  11.329   1.081   0.823 -0.3682 -0.0654 -0.0795
37494SOL    HW117293  11.293   1.121   0.744 -0.6306  1.3925  0.7334
37494SOL    HW217294  11.263   1.099   0.891  0.3319 -0.3619  0.6993
37495SOL     OW17295   6.873   6.494   8.359 -0.1746  1.0139 -0.5670
37495SOL    HW117296   6.912   6.497   8.447 -0.4348 -0.6293 -0.3728
37495SOL    HW217297   6.911   6.417   8.318 -2.3034  0.0171 -0.7957
37496SOL     OW17298   8.679   6.842   2.088 -0.2463  0.5908 -0.1145
37496SOL    HW117299   8.769   6.876   2.085  0.0157 -0.0102  0.6994
37496SOL    HW217300   8.646   6.855   1.999  0.7070  0.6584 -0.4729
37497SOL     OW17301   8.702   7.893   7.759 -0.2895 -0.0608 -0.3394
37497SOL    HW117302   8.726   7.842   7.837  0.5821  0.1642 -0.4509
37497SOL    HW217303   8.628   7.846   7.722 -2.0331  0.8952  1.7073
37498SOL     OW17304   9.846  10.911   0.556  0.1769  0.2499 -0.2598
37498SOL    HW117305   9.841  10.937   0.464 -0.7455  0.6697 -0.1001
37498SOL    HW217306   9.940  10.906   0.575  0.3816 -0.4657 -1.3943
37499SOL     OW17307   5.839   7.235   8.663 -0.2091 -0.2050 -0.1084
37499SOL    HW117308   5.873   7.147   8.677 -1.4502 -0.8916 -1.1510
37499SOL    HW217309   5.771   7.245   8.729 -0.8209 -0.4655 -0.6936
37500SOL     OW17310   0.420   8.268  12.072 -0.0183  0.2065 -0.2020
37500SOL    HW117311   0.430   8.174  12.064  2.2690  0.4661 -1.2564
37500SOL    HW217312   0.394   8.282  12.163  0.8852 -1.3794  0.3320
37501SOL     OW17313   8.264   7.576   5.436  0.2154 -0.6380 -0.3180
37501SOL    HW117314   8.231   7.626   5.360  1.1063 -0.7327 -0.7805
37501SOL    HW217315   8.350   7.545   5.408  1.7004  1.4456  1.6139
37502SOL     OW17316   1.006   7.989  11.184 -0.6781 -0.0378  0.5738
37502SOL    HW117317   0.997   7.901  11.148  0.9609 -0.6411  1.4845
37502SOL    HW217318   0.959   7.986  11.267 -1.2879  0.1950  0.2392
37503SOL     OW17319   0.572  11.924   2.964  0.4414 -0.5120 -0.0655
37503SOL    HW117320   0.561  11.944   2.871  0.9122 -0.2907 -0.0756
37503SOL    HW217321   0.551  11.831   2.970  1.1043 -0.7045 -0.5277
37504SOL     OW17322   8.390   0.686   7.685  0.2337 -0.1953  0.2499
37504SOL    HW117323   8.418   0.777   7.689 -0.1389 -0.0893  0.3988
37504SOL    HW217324   8.457   0.643   7.631 -0.3194  0.4315 -0.9522
37505SOL     OW17325   1.978   7.641   9.701 -0.0020  0.1569 -0.0694
37505SOL    HW117326   2.071   7.664   9.714 -0.3964  0.8395  1.9297
37505SOL    HW217327   1.977   7.546   9.702  0.7643  0.1224 -0.9260
37506SOL     OW17328   0.759   2.004   0.618 -0.1988 -0.1418 -0.4919
37506SOL    HW117329   0.742   1.921   0.574 -3.5475 -0.9831  2.0640
37506SOL    HW217330   0.712   2.069   0.566  2.0810  0.2741 -2.2478
37507SOL     OW17331   6.795   3.909   9.241 -0.5127  0.3691  0.0658
37507SOL    HW117332   6.772   3.970   9.311 -0.4071  1.0658 -0.4990
37507SOL    HW217333   6.890   3.900   9.247 -0.6902 -1.3688  1.4566
37508SOL     OW17334  11.256  11.450   7.444 -0.9027  0.3163 -0.5027
37508SOL    HW117335  11.230  11.502   7.368 -1.4753  1.2936  0.3278
37508SOL    HW217336  11.178  11.449   7.500 -1.6065 -3.1068 -1.3121
37509SOL     OW17337   0.659   6.453   7.305  0.4418 -0.2718  0.0732
37509SOL    HW117338   0.690   6.494   7.225  0.1839 -0.0039  0.1068
37509SOL    HW217339   0.638   6.527   7.363 -0.0701 -0.4538  0.1187
37510SOL     OW17340   6.118   8.128   6.893 -0.0218  0.0148 -0.2821
37510SOL    HW117341   6.133   8.145   6.800  2.4451  0.1302  0.0707
37510SOL    HW217342   6.190   8.071   6.919  0.3848  1.3919  1.9245
37511SOL     OW17343   2.454   8.554   2.992  0.3088 -0.1148 -0.4336
37511SOL    HW117344   2.383   8.491   3.006  0.2563 -0.0843 -0.5603
37511SOL    HW217345   2.527   8.501   2.960  0.8606 -0.3925  1.1808
37512SOL     OW17346   3.384   5.906   3.806  0.4183 -0.2161 -0.3956
37512SOL    HW117347   3.461   5.917   3.862  0.7248 -2.8288 -0.1910
37512SOL    HW217348   3.310   5.914   3.866  0.6318 -0.1455 -0.1381
37513SOL     OW17349   1.906   2.638   6.949 -0.1515 -0.1430  0.4911
37513SOL    HW117350   1.878   2.729   6.957 -1.0345 -0.5586  2.6497
37513SOL    HW217351   1.982   2.631   7.007  0.2505 -0.6659 -0.0875
37514SOL     OW17352  10.281   5.394   2.406  0.3494 -0.2124  0.4000
37514SOL    HW117353  10.320   5.319   2.361 -2.1931 -1.6582  0.3971
37514SOL    HW217354  10.273   5.367   2.497 -0.8883 -0.0944  0.3414
37515SOL     OW17355   2.223   6.783   6.091  0.1694  0.7435  0.0743
37515SOL    HW117356   2.228   6.735   6.174 -0.3662  0.0954 -0.2544
37515SOL    HW217357   2.146   6.746   6.047  1.8163 -0.6995 -1.7801
37516SOL     OW17358   7.740   2.732   4.252  0.2261  0.0670  0.6631
37516SOL    HW117359   7.739   2.757   4.344  0.6089  0.1582  0.6437
37516SOL    HW217360   7.821   2.770   4.218  1.2271 -1.8417  0.8122
37517SOL     OW17361   6.084   8.144   7.290  0.1249  0.4290  0.3027
37517SOL    HW117362   6.151   8.077   7.304  0.3971  0.0718 -2.1834
37517SOL    HW217363   6.012   8.098   7.247 -0.3473  1.4085 -0.0051
37518SOL     OW17364   3.749   4.187   1.318  0.4155  0.2710  0.1333
37518SOL    HW117365   3.783   4.171   1.406  1.2344  0.2487 -0.1722
37518SOL    HW217366   3.797   4.264   1.288  0.7812 -0.2261 -0.6051
37519SOL     OW17367   5.173  10.430  11.845 -0.3743 -0.8709 -0.0076
37519SOL    HW117368   5.093  10.406  11.798  0.5592 -0.4029 -1.9307
37519SOL    HW217369   5.143  10.491  11.913 -1.6710 -0.8565 -0.5604
37520SOL     OW17370   4.620   6.256   7.292 -0.2566  0.2116  0.0005
37520SOL    HW117371   4.681   6.279   7.363  0.4222 -0.3850 -0.3754
37520SOL    HW217372   4.572   6.180   7.325  0.4471 -0.4126 -0.3758
37521SOL     OW17373  10.267   4.251   6.605 -0.4994 -0.2511  0.4157
37521SOL    HW117374  10.208   4.227   6.677 -1.2703 -0.9854 -0.4460
37521SOL    HW217375  10.211   4.291   6.540  0.2728  0.8481  0.4052
37522SOL     OW17376   2.207   9.061   1.232  0.1527  0.3914  0.4472
37522SOL    HW117377   2.183   8.991   1.171 -0.8828  2.0142 -1.1034
37522SOL    HW217378   2.283   9.027   1.279 -1.7512 -2.7851  1.5999
37523SOL     OW17379   9.673  11.048   9.519 -0.5010  0.2027 -0.4001
37523SOL    HW117380   9.707  11.095   9.595  0.4347  0.4716 -0.9685
37523SOL    HW217381   9.642  10.965   9.554  2.5810 -0.9452 -0.0789
37524SOL     OW17382  10.205   8.900   2.827 -0.1047 -0.0910 -0.1178
37524SOL    HW117383  10.151   8.978   2.814 -0.0093  0.1007  0.6020
37524SOL    HW217384  10.143   8.833   2.853 -0.1263 -0.1397 -0.2903
37525SOL     OW17385   2.630   2.743   8.973 -0.4158 -0.6722 -0.2593
37525SOL    HW117386   2.539   2.716   8.988 -1.0056  0.7817 -1.0478
37525SOL    HW217387   2.682   2.665   8.995 -1.8453 -1.5419  0.1663
37526SOL     OW17388   0.377   6.485  10.087 -0.2096  0.2967  0.8790
37526SOL    HW117389   0.318   6.560  10.093  0.0959  0.6318 -0.0450
37526SOL    HW217390   0.321   6.408  10.098 -0.6067  0.6466  1.3024
37527SOL     OW17391  11.862   6.630   2.278 -0.1127  0.2469 -0.6356
37527SOL    HW117392  11.938   6.668   2.321 -0.1934  0.2243 -0.4715
37527SOL    HW217393  11.816   6.583   2.348  0.4706 -0.9315 -1.0135
37528SOL     OW17394   3.050   3.641  10.885  0.1844 -0.0053 -0.5661
37528SOL    HW117395   3.023   3.708  10.822  0.2165  1.6972  1.1186
37528SOL    HW217396   2.989   3.569  10.871 -0.1934  0.5669 -2.1054
37529SOL     OW17397   7.297   3.739   5.259  0.4468 -0.4067  0.7662
37529SOL    HW117398   7.202   3.737   5.252  0.4998  0.7266 -0.8220
37529SOL    HW217399   7.320   3.657   5.302 -1.1453 -1.4534 -0.2831
37530SOL     OW17400   9.979   3.105   4.673 -0.4626 -0.1603  0.0437
37530SOL    HW117401   9.886   3.085   4.680 -0.1881 -1.1146  1.2805
37530SOL    HW217402  10.024   3.024   4.698  0.7146  0.1123 -1.0453
37531SOL     OW17403  10.109   7.193  10.581 -0.2401 -0.5161  0.1629
37531SOL    HW117404  10.140   7.179  10.670  0.1038  1.1574  0.3398
37531SOL    HW217405  10.173   7.147  10.526 -0.7868 -2.0699  0.7605
37532SOL     OW17406  10.774   0.904  10.431  0.8341  0.3837 -0.1685
37532SOL    HW117407  10.826   0.826  10.448 -0.4111 -0.2454  0.9806
37532SOL    HW217408  10.774   0.952  10.514  1.2439  1.3986 -0.7428
37533SOL     OW17409  12.362   8.013   1.694  0.0082  0.1643 -0.1033
37533SOL    HW117410  12.306   7.970   1.630 -0.2316  0.8227 -0.3478
37533SOL    HW217411  12.447   8.018   1.652  0.6054 -1.9109  0.7261
37534SOL     OW17412   3.136   4.557   2.704  0.9036  0.0169 -0.1950
37534SOL    HW117413   3.071   4.618   2.669  1.8026  0.8465 -0.4434
37534SOL    HW217414   3.084   4.485   2.740 -0.3644  2.2960  2.9335
37535SOL     OW17415  11.795   7.270   2.770  0.3779  0.0599 -0.3922
37535SOL    HW117416  11.802   7.281   2.675 -1.2756  3.1779 -0.3104
37535SOL    HW217417  11.709   7.307   2.791  2.2777  3.3476  2.6709
37536SOL     OW17418  12.478   0.180   1.850  0.6319 -0.1277 -0.3507
37536SOL    HW117419  12.452   0.265   1.886 -0.7541 -0.0270 -1.4679
37536SOL    HW217420  12.432   0.116   1.904  1.7971 -0.1994  0.5865
37537SOL     OW17421   1.390   6.374   2.293 -0.2727  0.6763 -0.9259
37537SOL    HW117422   1.480   6.350   2.313 -0.4855 -0.1433 -0.9201
37537SOL    HW217423   1.398   6.445   2.228  0.3790 -0.3268 -1.9808
37538SOL     OW17424  12.302   2.764   4.083  0.1439 -0.3391 -0.0418
37538SOL    HW117425  12.209   2.761   4.107 -0.0422 -2.1610 -0.8115
37538SOL    HW217426  12.302   2.806   3.997 -0.1163 -1.2624 -0.5126
37539SOL     OW17427   4.733   1.967   9.198 -0.0024  0.0292 -0.3070
37539SOL    HW117428   4.664   1.907   9.169  0.0571 -0.9886  1.4741
37539SOL    HW217429   4.814   1.925   9.172  0.0030 -0.1141 -0.0680
37540SOL     OW17430   1.531   8.192  10.947 -0.4560  0.3148 -0.4959
37540SOL    HW117431   1.512   8.270  10.896 -0.6024  0.4721 -0.2039
37540SOL    HW217432   1.446   8.151  10.963 -0.2495 -0.8114 -2.0483
37541SOL     OW17433   3.692   8.376  10.531  0.2099 -0.2646  0.1701
37541SOL    HW117434   3.676   8.440  10.462  1.8022  0.3641  0.3499
37541SOL    HW217435   3.681   8.425  10.612 -0.3862 -0.6956  0.3617
37542SOL     OW17436   4.611  11.841  12.396 -0.3570 -0.5843 -0.3829
37542SOL    HW117437   4.539  11.896  12.364 -0.5486 -0.6723 -0.1052
37542SOL    HW217438   4.591  11.827  12.488 -1.1180 -2.3970 -0.7904
37543SOL     OW17439   6.559   1.713   4.726 -1.0676 -0.1254  0.1088
37543SOL    HW117440   6.609   1.676   4.653  0.8282  2.6355 -0.1435
37543SOL    HW217441   6.468   1.691   4.706 -0.3561 -1.8480 -1.5806
37544SOL     OW17442  11.359  11.595   7.908  0.2888  0.0515  0.0975
37544SOL    HW117443  11.280  11.609   7.856  0.2475 -0.9722 -0.1338
37544SOL    HW217444  11.420  11.552   7.848  1.7383  2.4925 -0.2914
37545SOL     OW17445   3.435  11.524   6.563  0.3036 -0.0625  0.9493
37545SOL    HW117446   3.405  11.440   6.598  2.4155 -2.2299 -1.9905
37545SOL    HW217447   3.440  11.581   6.640  0.7072 -3.2068  3.4784
37546SOL     OW17448   3.867   3.833   9.896 -0.4938  0.0966 -0.4218
37546SOL    HW117449   3.850   3.744   9.866 -0.2253  0.2503 -1.0612
37546SOL    HW217450   3.848   3.832   9.990  0.9522 -1.0081 -0.1126
37547SOL     OW17451   7.244   0.651   1.240 -0.1704 -0.4683 -0.4465
37547SOL    HW117452   7.275   0.602   1.317  2.1348  0.1028 -0.9195
37547SOL    HW217453   7.323   0.692   1.205 -1.5744  1.3879 -1.6435
37548SOL     OW17454   0.600   2.604   8.977  0.2131 -0.4506  0.0297
37548SOL    HW117455   0.553   2.679   8.939 -0.3735 -0.3562  0.9202
37548SOL    HW217456   0.635   2.637   9.060  0.4966 -0.9825  0.1248
37549SOL     OW17457   4.811  11.506   5.994  0.5608 -0.1924  0.4018
37549SOL    HW117458   4.889  11.453   5.977  0.0687 -1.1683  1.1169
37549SOL    HW217459   4.747  11.476   5.931  0.9048  0.9869 -0.5479
37550SOL     OW17460   9.500   6.575   2.756  0.0274 -0.2944 -0.2725
37550SOL    HW117461   9.477   6.589   2.664  0.6461 -0.1680 -0.4151
37550SOL    HW217462   9.455   6.493   2.780 -0.1142 -0.3413 -0.6961
37551SOL     OW17463   6.446   3.399   6.026 -0.2549  0.1823 -0.0438
37551SOL    HW117464   6.446   3.305   6.009 -0.2514  0.3468 -1.0142
37551SOL    HW217465   6.357   3.427   6.004 -0.6350  0.2204  1.4263
37552SOL     OW17466   2.941   1.642   6.762  0.1728 -0.3912  0.1643
37552SOL    HW117467   2.967   1.733   6.776  0.7493 -0.7068  1.2591
37552SOL    HW217468   2.854   1.648   6.722  0.5520  0.6398 -0.5548
37553SOL     OW17469   4.971   8.019  12.449 -0.0301 -0.1519 -0.2171
37553SOL    HW117470   5.026   8.014  12.527  2.8260 -2.3857 -2.1391
37553SOL    HW217471   4.922   7.937  12.448 -0.1870 -0.0586 -0.6892
37554SOL     OW17472   9.480   1.358   5.361  0.0747  0.1548  0.1197
37554SOL    HW117473   9.454   1.332   5.449 -2.1732 -1.1783 -0.8576
37554SOL    HW217474   9.519   1.280   5.323 -0.9712  0.0309 -0.7596
37555SOL     OW17475  10.410   8.140   3.743 -0.3589 -0.0275 -0.8180
37555SOL    HW117476  10.325   8.176   3.769  0.2338  0.1768  0.9927
37555SOL    HW217477  10.388   8.068   3.683 -1.8148 -0.0666 -0.2926
37556SOL     OW17478  12.322   6.432   1.969 -0.5368  0.0500  0.3046
37556SOL    HW117479  12.245   6.461   2.018 -0.9317  0.2457 -0.4162
37556SOL    HW217480  12.354   6.511   1.926  2.5067  0.9572  3.7104
37557SOL     OW17481   4.888   9.103  10.498  0.0808 -0.6130  0.2361
37557SOL    HW117482   4.977   9.068  10.508  0.2936 -0.7056 -1.6539
37557SOL    HW217483   4.901   9.197  10.485 -0.3506 -0.0714  2.9576
37558SOL     OW17484   3.868   8.593   3.890  0.0772  0.2852  0.0920
37558SOL    HW117485   3.809   8.567   3.819 -1.1112 -0.1383  1.2092
37558SOL    HW217486   3.956   8.579   3.854 -0.4661 -2.5194 -0.3914
37559SOL     OW17487   0.551   3.309   5.955  0.3493  0.0201 -0.4336
37559SOL    HW117488   0.483   3.243   5.968 -0.5754  1.0191 -0.0664
37559SOL    HW217489   0.542   3.369   6.030  0.7754  0.8917 -1.0576
37560SOL     OW17490   6.427   6.122   2.743 -0.0038 -0.3606  0.1039
37560SOL    HW117491   6.482   6.169   2.680  0.7840  1.0187  1.7406
37560SOL    HW217492   6.448   6.030   2.730  2.0940  0.0735  0.0995
37561SOL     OW17493   0.810   8.863  10.455  0.0725  0.3959  0.2557
37561SOL    HW117494   0.888   8.891  10.502 -0.9109  3.7479  0.1127
37561SOL    HW217495   0.834   8.867  10.362 -0.3001  1.7220  0.1986
37562SOL     OW17496   1.699   4.030   2.152 -0.0637  0.4904  0.3388
37562SOL    HW117497   1.633   3.973   2.114 -0.6788  1.3790  0.0361
37562SOL    HW217498   1.654   4.072   2.226  0.7020 -0.1936  1.2192
37563SOL     OW17499  11.834   5.818   6.409 -0.1407  0.6948  0.0283
37563SOL    HW117500  11.806   5.834   6.319 -0.1789  1.6970  0.2040
37563SOL    HW217501  11.794   5.734   6.433  1.4390 -0.5788 -1.5159
37564SOL     OW17502  11.872   4.880  11.828 -0.0962 -0.0054 -0.2177
37564SOL    HW117503  11.892   4.796  11.786 -0.5373 -0.7379  0.9745
37564SOL    HW217504  11.924   4.944  11.780  1.0750 -1.1094 -0.4892
37565SOL     OW17505  10.524   5.888  11.962  0.1239  0.4172  0.0096
37565SOL    HW117506  10.558   5.894  12.051  0.2235  0.7791 -0.0511
37565SOL    HW217507  10.564   5.809  11.926  1.2891  1.0852 -0.2248
37566SOL     OW17508  12.589  10.380   4.594  0.0647 -0.4790  0.1181
37566SOL    HW117509  12.626  10.294   4.614  0.0573 -0.8931 -1.4924
37566SOL    HW217510  12.617  10.435   4.667  1.5551 -1.4305  0.3166
37567SOL     OW17511   3.348  11.996   9.875  0.3540 -0.0351  0.6448
37567SOL    HW117512   3.361  11.953   9.960  0.6499  1.5293  1.4363
37567SOL    HW217513   3.344  12.089   9.896 -2.5590  0.2733 -0.6854
37568SOL     OW17514   5.470  10.958  12.169 -0.1533 -0.9853  0.2855
37568SOL    HW117515   5.499  11.047  12.147 -1.3973 -0.3250  1.2166
37568SOL    HW217516   5.506  10.904  12.099  2.1407 -0.0421  0.6318
37569SOL     OW17517   0.409   6.249  11.026  0.2326  0.6144  0.0732
37569SOL    HW117518   0.387   6.325  11.081  0.9776  2.1411 -1.6069
37569SOL    HW217519   0.328   6.229  10.979  0.4178  1.4120 -0.6184
37570SOL     OW17520  12.629   4.058   0.985  0.1645 -0.6552 -0.4280
37570SOL    HW117521  12.599   3.975   0.948  0.2987 -1.3719  1.0048
37570SOL    HW217522  12.583   4.065   1.069  0.3540  0.6048 -0.4021
37571SOL     OW17523   4.021  10.521  10.187 -0.0064  0.1522  0.7981
37571SOL    HW117524   4.087  10.453  10.173 -1.3879 -1.2058  0.5748
37571SOL    HW217525   3.940  10.473  10.203 -1.0650  1.7631  0.5358
37572SOL     OW17526   5.019   6.923   1.545  0.3223 -0.1657  0.6814
37572SOL    HW117527   4.941   6.935   1.492  0.2822  0.7691  0.9389
37572SOL    HW217528   4.988   6.880   1.625  0.0417  0.4024  0.8749
37573SOL     OW17529   7.669   4.322  12.472 -0.4061  0.1962  0.4997
37573SOL    HW117530   7.687   4.367  12.390  0.4836 -0.5806  0.2600
37573SOL    HW217531   7.576   4.339  12.489 -0.4042  1.0074 -0.2573
37574SOL     OW17532   7.647   0.874  12.474  0.0531 -0.2396 -0.4251
37574SOL    HW117533   7.591   0.812  12.522 -1.4985  1.8696  0.6931
37574SOL    HW217534   7.736   0.845  12.493 -0.5923 -1.3741  1.1442
37575SOL     OW17535   2.152   7.776  12.324 -0.8846  0.1515  0.3932
37575SOL    HW117536   2.233   7.727  12.311 -0.8680 -0.3513  2.1537
37575SOL    HW217537   2.088   7.732  12.269 -0.1235  0.1875 -0.5569
37576SOL     OW17538  12.375  12.620   7.285 -0.0289 -0.3947  0.2533
37576SOL    HW117539  12.364  12.525   7.283 -0.6091 -0.3322 -1.8331
37576SOL    HW217540  12.398  12.644   7.195  1.3300  1.3257  0.9940
37577SOL     OW17541   4.037  10.317   2.649  0.0008 -0.1769  0.5166
37577SOL    HW117542   3.995  10.231   2.645  0.4632 -0.3774 -1.1876
37577SOL    HW217543   3.967  10.377   2.673 -0.5614 -0.9100  0.7403
37578SOL     OW17544   6.817   8.286   2.278 -0.2659 -0.1948  0.1402
37578SOL    HW117545   6.736   8.335   2.264 -0.8985 -1.0459  0.7936
37578SOL    HW217546   6.861   8.290   2.193 -0.4789  1.1547  0.0592
37579SOL     OW17547   8.387   3.235   4.846  0.1196  0.3040  0.3197
37579SOL    HW117548   8.316   3.192   4.893 -0.6304  0.7742 -0.3602
37579SOL    HW217549   8.374   3.328   4.861  1.6765  0.3489  1.6928
37580SOL     OW17550   6.285   8.723   9.205  0.1016  0.5920  0.2980
37580SOL    HW117551   6.220   8.766   9.149 -0.0207  0.5196  0.3853
37580SOL    HW217552   6.247   8.726   9.293  0.1781  0.4755  0.3357
37581SOL     OW17553   3.651   1.489   7.814  0.1135  0.0184  0.6559
37581SOL    HW117554   3.709   1.564   7.802  0.2432 -0.2786 -0.8636
37581SOL    HW217555   3.709   1.412   7.810 -0.0640 -0.1815  1.8054
37582SOL     OW17556   2.893   2.017   5.302  0.4578  0.3255 -0.2024
37582SOL    HW117557   2.849   2.080   5.359 -0.2838  0.5088 -0.9593
37582SOL    HW217558   2.867   2.043   5.213  2.5186  0.7733 -0.7292
37583SOL     OW17559  11.275   4.001  12.520  0.3417 -0.2904 -0.5648
37583SOL    HW117560  11.290   3.907  12.510 -0.0658 -0.4622  0.3703
37583SOL    HW217561  11.255   4.013  12.613 -3.4726  0.1432 -1.2765
37584SOL     OW17562  11.782   9.654   9.336 -0.1980 -0.0935  0.2829
37584SOL    HW117563  11.710   9.641   9.397  0.3276  0.1129  0.9558
37584SOL    HW217564  11.743   9.701   9.262 -0.9634 -0.8555  0.1884
37585SOL     OW17565   3.573   5.927   0.155  0.0465  0.1357 -0.0685
37585SOL    HW117566   3.506   5.875   0.199 -0.2580  0.7303  0.1887
37585SOL    HW217567   3.642   5.937   0.220  0.5240 -0.7255 -0.4332
37586SOL     OW17568   0.673   7.028   1.499 -0.0459 -0.2477 -0.2258
37586SOL    HW117569   0.597   7.023   1.557  0.6187 -0.9083  0.6211
37586SOL    HW217570   0.716   7.110   1.522 -0.1453 -0.1847 -0.2610
37587SOL     OW17571   9.132   9.791   2.597 -0.1623  0.8411 -0.1688
37587SOL    HW117572   9.103   9.708   2.633  0.6108 -0.2757 -1.9906
37587SOL    HW217573   9.228   9.784   2.595 -0.0144  2.2662  0.7501
37588SOL     OW17574   6.736   7.044  10.998  0.5937  0.2130 -0.1104
37588SOL    HW117575   6.696   7.053  10.911  0.4560 -0.5077 -0.1318
37588SOL    HW217576   6.663   7.050  11.059  0.7512  1.1999 -0.0108
37589SOL     OW17577   3.741   8.737   4.302  0.6148  0.1093  0.1803
37589SOL    HW117578   3.701   8.677   4.240  0.3578 -0.0989  0.5436
37589SOL    HW217579   3.797   8.681   4.356  1.4494  0.4039 -0.3606
37590SOL     OW17580   4.387  11.383   9.459  0.0648 -0.6154 -0.0447
37590SOL    HW117581   4.349  11.470   9.449 -0.9573 -1.2592 -2.7826
37590SOL    HW217582   4.476  11.399   9.492 -0.4067  1.3698  0.3801
37591SOL     OW17583  10.709   9.771   8.147  0.1380 -0.5451 -0.0827
37591SOL    HW117584  10.694   9.716   8.070 -1.1482 -0.2814 -0.0442
37591SOL    HW217585  10.645   9.740   8.212  0.5934 -0.1607  0.5617
37592SOL     OW17586   3.592   4.086   2.627  0.2401  0.2550  0.5651
37592SOL    HW117587   3.663   4.035   2.665  0.7550  0.6669  0.1691
37592SOL    HW217588   3.632   4.133   2.554 -0.3360  0.8500  0.6198
37593SOL     OW17589  10.992   3.004   8.170  0.2344 -0.3330 -0.4228
37593SOL    HW117590  11.069   2.998   8.227  0.2147 -0.7967 -0.4442
37593SOL    HW217591  10.995   2.924   8.117 -1.0414 -1.0668  0.5607
37594SOL     OW17592   5.306   5.635   7.429  0.3348  0.5684 -0.0593
37594SOL    HW117593   5.212   5.616   7.431  0.6813 -1.8159 -2.1136
37594SOL    HW217594   5.347   5.556   7.464  1.6320  1.6925  1.1015
37595SOL     OW17595   7.157   1.892   1.508 -0.1450 -0.7877  0.9855
37595SOL    HW117596   7.201   1.815   1.544  0.0820 -0.0024  2.4685
37595SOL    HW217597   7.065   1.881   1.532 -0.1725 -0.7815  0.8820
37596SOL     OW17598   9.642   3.049  10.055  0.2571 -0.0798  0.4136
37596SOL    HW117599   9.601   3.016  10.135  0.5013 -0.0155  0.5664
37596SOL    HW217600   9.609   2.991   9.986  1.8699 -1.6337  0.8891
37597SOL     OW17601  12.276  11.455   7.939 -0.0167  0.2481  0.1773
37597SOL    HW117602  12.272  11.543   7.903  0.0096  0.4947  0.7738
37597SOL    HW217603  12.346  11.412   7.890  1.2590  1.1451  1.1672
37598SOL     OW17604  10.112   8.211   3.472  0.0276 -0.1340 -0.3911
37598SOL    HW117605  10.121   8.223   3.377  0.1493 -0.4043 -0.4145
37598SOL    HW217606  10.018   8.222   3.488 -0.3930 -2.5217 -0.9050
37599SOL     OW17607   7.364   6.409   0.697  0.7356 -0.3801  0.3818
37599SOL    HW117608   7.388   6.384   0.786  0.7043 -0.1165  0.4651
37599SOL    HW217609   7.317   6.333   0.662  0.9033 -0.5522  0.5267
37600SOL     OW17610  12.061   7.815   2.021  0.1918  1.1507 -0.0298
37600SOL    HW117611  11.984   7.846   2.068  1.5283  2.9625  1.1303
37600SOL    HW217612  12.093   7.892   1.973  0.1862 -0.0655 -2.1371
37601SOL     OW17613  11.534   1.215  10.691  0.4954  0.8382  0.2298
37601SOL    HW117614  11.461   1.259  10.733  0.9444  1.5900  0.2376
37601SOL    HW217615  11.507   1.203  10.600 -0.7770 -1.4309  0.8187
37602SOL     OW17616  10.986   7.242  12.438 -0.0328  0.0609 -0.6912
37602SOL    HW117617  10.961   7.306  12.372  0.2824  1.8870  0.8935
37602SOL    HW217618  11.074   7.268  12.464  0.1674 -1.1274 -0.1156
37603SOL     OW17619   1.481  11.288   5.403  0.5529  0.0860 -0.8069
37603SOL    HW117620   1.424  11.233   5.349 -0.8846  2.0499 -1.4354
37603SOL    HW217621   1.425  11.316   5.476  1.5532 -0.0878  0.0468
37604SOL     OW17622   3.168   9.007  12.204 -0.1847  0.5449  0.8694
37604SOL    HW117623   3.248   9.058  12.219 -0.5226  0.9864  1.2316
37604SOL    HW217624   3.181   8.966  12.119 -0.5362  2.4813 -0.1753
37605SOL     OW17625   1.673   8.128   2.147 -0.6120  0.2420 -0.1621
37605SOL    HW117626   1.694   8.221   2.135  0.2795  0.1123  0.3113
37605SOL    HW217627   1.731   8.099   2.217 -1.1139 -0.6003 -0.0799
37606SOL     OW17628   2.503   9.408   6.935 -0.4247 -0.5682 -0.2149
37606SOL    HW117629   2.488   9.342   7.003  0.0653  0.4982  0.9756
37606SOL    HW217630   2.421   9.412   6.886 -0.8181 -1.3032  0.3600
37607SOL     OW17631   7.915   9.023  11.555 -0.5363  0.4631 -0.1990
37607SOL    HW117632   7.843   9.052  11.498  0.1874 -0.7175 -1.7805
37607SOL    HW217633   7.881   8.945  11.599 -1.1567  1.4727  1.1775
37608SOL     OW17634  11.928  12.061   8.286 -0.4746 -0.2157 -0.1484
37608SOL    HW117635  11.833  12.052   8.290 -0.7038  2.0430  1.3962
37608SOL    HW217636  11.960  12.009   8.359 -0.5206 -0.6628 -0.4382
37609SOL     OW17637   0.365   8.940   0.452  0.2363  0.0718 -0.0567
37609SOL    HW117638   0.365   8.961   0.545  0.2248  0.9050 -0.2379
37609SOL    HW217639   0.301   8.870   0.443 -1.2265  1.3015  0.2888
37610SOL     OW17640   9.124   7.906   7.356  0.0295  0.7617  0.5448
37610SOL    HW117641   9.195   7.888   7.418  1.0335  1.2728 -0.4186
37610SOL    HW217642   9.115   8.001   7.357 -0.3248  0.7302  0.3246
37611SOL     OW17643  11.198   9.950   4.674 -0.4361 -0.2613  0.2106
37611SOL    HW117644  11.121  10.006   4.684  0.0808  0.8940 -1.6614
37611SOL    HW217645  11.165   9.861   4.681 -1.2516  0.1586  3.6677
37612SOL     OW17646   7.837  11.396  12.260 -0.2428  0.3434 -0.1818
37612SOL    HW117647   7.928  11.424  12.249 -0.1224  0.9018  1.8682
37612SOL    HW217648   7.786  11.468  12.224  0.0507 -0.4107 -2.3119
37613SOL     OW17649  12.228  11.627  11.125 -0.3839 -0.1119 -0.3931
37613SOL    HW117650  12.137  11.657  11.123  0.3225  2.3296  0.4207
37613SOL    HW217651  12.243  11.591  11.038 -2.0818 -0.5281 -0.5648
37614SOL     OW17652  11.996   7.247   6.944  0.1844 -0.0395  0.0851
37614SOL    HW117653  11.947   7.282   7.018  0.4226 -0.1744  0.3064
37614SOL    HW217654  11.940   7.178   6.909  0.0961 -0.0121  0.1712
37615SOL     OW17655   9.588   4.619   2.756 -0.6961 -0.1914 -0.3366
37615SOL    HW117656   9.645   4.640   2.830  1.9301  1.2387 -2.5556
37615SOL    HW217657   9.617   4.533   2.727 -0.8296 -0.1971 -0.4522
37616SOL     OW17658   0.206   5.099   3.373  0.6018  0.2269  0.3163
37616SOL    HW117659   0.129   5.110   3.316  0.7868  2.3093  0.3674
37616SOL    HW217660   0.248   5.019   3.342 -1.7449 -1.1722  0.5207
37617SOL     OW17661  12.517   7.405   0.489  0.3387  0.1691 -0.1943
37617SOL    HW117662  12.548   7.496   0.490 -1.1661  0.7319 -0.8625
37617SOL    HW217663  12.443   7.406   0.428  0.6188 -1.6346 -0.6272
37618SOL     OW17664   1.641  11.166   0.611  0.1814  0.0783  0.0583
37618SOL    HW117665   1.663  11.212   0.530 -1.1478 -1.7605 -1.4355
37618SOL    HW217666   1.550  11.139   0.600  0.4427 -1.5816  1.4755
37619SOL     OW17667  11.448   7.307  11.278 -0.1060  0.3048  0.4847
37619SOL    HW117668  11.396   7.387  11.280 -1.3965 -0.4881  0.0470
37619SOL    HW217669  11.394   7.244  11.231  0.0410 -1.3946  2.4397
37620SOL     OW17670   5.815  11.345   5.549  0.0594 -0.0408  0.0592
37620SOL    HW117671   5.764  11.426   5.551 -0.2095 -0.0537 -2.7220
37620SOL    HW217672   5.906  11.373   5.551 -0.0154  0.4431 -1.8893
37621SOL     OW17673   5.548  10.875   0.645  0.0765 -0.7521  0.2103
37621SOL    HW117674   5.477  10.837   0.697 -2.3773  1.0761 -1.5924
37621SOL    HW217675   5.511  10.884   0.557  2.3705  0.7931 -0.6785
37622SOL     OW17676   6.577   7.217   8.552  0.1108  0.2497  0.2841
37622SOL    HW117677   6.544   7.214   8.462 -0.4981 -0.8789  0.5283
37622SOL    HW217678   6.547   7.302   8.585 -1.7862 -0.3252  0.1914
37623SOL     OW17679   9.340  11.077   6.397 -0.6186 -0.8613 -0.0812
37623SOL    HW117680   9.399  11.115   6.462  0.4629 -1.3645 -0.7358
37623SOL    HW217681   9.301  11.152   6.353  0.1191 -0.5045 -0.1500
37624SOL     OW17682   4.919   5.370   5.844 -0.5493 -0.3454 -0.1415
37624SOL    HW117683   4.847   5.430   5.826 -1.1896 -1.4636 -1.4414
37624SOL    HW217684   4.881   5.282   5.833  1.0093 -0.9542 -1.0125
37625SOL     OW17685  11.760   3.474   2.745  0.3446  0.5143  0.0101
37625SOL    HW117686  11.748   3.437   2.833  1.4776 -0.5689 -0.2560
37625SOL    HW217687  11.760   3.397   2.687  1.4995  1.0426 -0.7119
37626SOL     OW17688   3.699  11.842  10.785 -0.1070 -0.4094 -0.1064
37626SOL    HW117689   3.639  11.904  10.743  0.3160 -0.2155 -0.4304
37626SOL    HW217690   3.786  11.868  10.754  0.2066 -0.3233  0.8310
37627SOL     OW17691   5.728   6.728   9.809  0.0399  0.3400 -0.1501
37627SOL    HW117692   5.799   6.696   9.752 -1.1711 -0.3484 -1.3357
37627SOL    HW217693   5.687   6.797   9.759 -1.0143 -0.2359 -0.1045
37628SOL     OW17694   1.345   8.717   5.867  0.4478 -0.7062  0.1938
37628SOL    HW117695   1.406   8.754   5.804 -0.8734  0.0580 -0.6636
37628SOL    HW217696   1.320   8.790   5.923  2.4695 -1.5766  2.4217
37629SOL     OW17697   7.273   4.029   4.271 -0.2586  0.5789  0.0094
37629SOL    HW117698   7.327   4.015   4.349 -0.3132  0.5513  0.0419
37629SOL    HW217699   7.253   4.123   4.273  0.0439  0.6463 -0.1688
37630SOL     OW17700   7.221   3.932  10.537  0.4430  0.3990  0.0814
37630SOL    HW117701   7.269   3.871  10.481 -1.3247 -0.5693 -0.4610
37630SOL    HW217702   7.275   3.940  10.615  0.8270 -1.7484  0.0977
37631SOL     OW17703   0.068   8.684   6.565 -0.0130 -0.0512 -0.2479
37631SOL    HW117704   0.017   8.698   6.645 -1.2817  2.5641 -1.3860
37631SOL    HW217705   0.003   8.662   6.499  0.7178  0.1223 -1.0442
37632SOL     OW17706   5.444  11.753   5.930 -0.7024 -0.1499  0.7113
37632SOL    HW117707   5.441  11.848   5.925  0.6055 -0.1126  0.3898
37632SOL    HW217708   5.493  11.734   6.010  1.2842 -0.4970 -0.5183
37633SOL     OW17709  11.962   2.152   2.407  0.0169  0.7083 -0.6467
37633SOL    HW117710  12.047   2.129   2.444 -0.4183 -0.7976 -0.5447
37633SOL    HW217711  11.982   2.190   2.322  0.8006  0.4892 -0.5622
37634SOL     OW17712   2.411  10.830   0.171  0.0520  0.0771 -0.3789
37634SOL    HW117713   2.398  10.864   0.260 -0.9927  0.1482 -0.5368
37634SOL    HW217714   2.323  10.802   0.144  0.7392 -2.0773 -0.5374
37635SOL     OW17715   0.622  12.285   3.233 -0.4385 -0.2515 -0.2231
37635SOL    HW117716   0.669  12.310   3.313  0.1811 -0.5625 -0.4874
37635SOL    HW217717   0.544  12.341   3.233 -1.8222 -1.9832  1.9391
37636SOL     OW17718   6.779   8.681   8.152 -0.6041  0.2595 -0.3462
37636SOL    HW117719   6.845   8.647   8.091 -0.6311  0.0531 -0.2593
37636SOL    HW217720   6.796   8.636   8.234 -1.6782 -0.7843 -0.6711
37637SOL     OW17721   3.125   3.045   5.342  0.3161  0.0376  0.2928
37637SOL    HW117722   3.078   3.115   5.297 -0.6360 -1.0358 -0.4468
37637SOL    HW217723   3.211   3.044   5.299 -0.8865 -1.5967 -2.3320
37638SOL     OW17724   7.635   5.700   8.862 -0.0186 -0.5015 -0.0172
37638SOL    HW117725   7.659   5.789   8.834 -2.8156  0.9855  1.8679
37638SOL    HW217726   7.578   5.668   8.792  0.2493 -0.4714 -0.2553
37639SOL     OW17727   7.193   5.513   3.191  0.2591  0.1984  0.9644
37639SOL    HW117728   7.231   5.427   3.206  0.6315  0.5608  2.2407
37639SOL    HW217729   7.205   5.559   3.274 -1.5576  0.8665  0.9050
37640SOL     OW17730   3.786  12.075   6.369  0.1368  0.0013 -0.0780
37640SOL    HW117731   3.799  12.081   6.274 -1.2206 -2.8073 -0.5499
37640SOL    HW217732   3.700  12.114   6.383  0.3059  0.3499  0.0090
37641SOL     OW17733   8.157   4.770   1.008  0.1958 -0.3297 -0.0711
37641SOL    HW117734   8.145   4.794   1.100 -1.3365 -1.0474 -0.0642
37641SOL    HW217735   8.252   4.771   0.996  0.4314 -0.2773  1.5334
37642SOL     OW17736   3.679   1.429   9.160 -0.8409 -0.2753 -0.2826
37642SOL    HW117737   3.676   1.477   9.243 -0.7601 -2.9728  1.3870
37642SOL    HW217738   3.671   1.337   9.185  4.0573 -1.6933 -2.7520
37643SOL     OW17739   6.961   7.958  10.004  0.1924 -0.1528 -0.9680
37643SOL    HW117740   7.051   7.928   9.992  0.0320 -0.7460 -0.6780
37643SOL    HW217741   6.915   7.928   9.925  0.0695 -0.5388 -0.7523
37644SOL     OW17742   3.417   3.210   6.449 -0.2863 -0.1869 -0.2794
37644SOL    HW117743   3.511   3.212   6.436  0.0746 -0.7827  1.8713
37644SOL    HW217744   3.385   3.290   6.406  1.1116 -0.1803 -1.3869
37645SOL     OW17745   4.920  10.512   1.074 -0.1128 -0.5422  0.3382
37645SOL    HW117746   4.945  10.453   1.003 -0.1390 -0.4663  0.2648
37645SOL    HW217747   4.835  10.546   1.047  0.3182  0.2407 -0.0729
37646SOL     OW17748  10.770   2.815   6.673  0.0081  0.1865  0.2900
37646SOL    HW117749  10.798   2.901   6.704 -2.3393  0.5437  1.6627
37646SOL    HW217750  10.776   2.821   6.578 -0.9979  2.2355  0.3024
37647SOL     OW17751  11.891   9.435  10.304 -0.2034  0.8627  0.2352
37647SOL    HW117752  11.829   9.471  10.368 -0.0243 -1.4048  1.7885
37647SOL    HW217753  11.854   9.350  10.280  0.9132  0.6920 -0.9745
37648SOL     OW17754   4.097  10.295   1.893 -0.2778  0.9911 -0.3470
37648SOL    HW117755   4.048  10.214   1.904 -1.1469  1.7610  2.0544
37648SOL    HW217756   4.183  10.267   1.864 -0.8794 -0.7054 -0.6126
37649SOL     OW17757   8.772   8.148  12.339  0.0957 -0.2796 -0.4874
37649SOL    HW117758   8.749   8.169  12.249  2.2209  0.2631 -0.9656
37649SOL    HW217759   8.742   8.224  12.390 -1.0810 -0.5754 -0.7099
37650SOL     OW17760   0.164   1.174   8.356  0.0878 -1.1114 -0.2148
37650SOL    HW117761   0.169   1.080   8.372  1.1282 -0.9779  0.3047
37650SOL    HW217762   0.247   1.196   8.314  0.8229 -0.0722  1.6494
37651SOL     OW17763   7.377   6.246   1.775  0.4530 -0.0726 -0.5956
37651SOL    HW117764   7.361   6.160   1.736  1.8318  0.9448 -3.6574
37651SOL    HW217765   7.311   6.303   1.736  0.7427  0.6565 -0.0341
37652SOL     OW17766   0.265   6.739   0.100  0.5338  0.0876  0.1689
37652SOL    HW117767   0.311   6.732   0.016  3.1831 -0.5727  1.5805
37652SOL    HW217768   0.259   6.834   0.116 -0.0313  0.2219 -0.7440
37653SOL     OW17769   5.523   9.623   4.609  0.0638  0.0033  0.5533
37653SOL    HW117770   5.603   9.591   4.650  0.0570  0.2308  0.7452
37653SOL    HW217771   5.456   9.611   4.676  0.0190  0.2107  0.5461
37654SOL     OW17772   3.683   1.752  10.499 -0.2374 -0.1001 -0.6989
37654SOL    HW117773   3.715   1.819  10.439  0.6533 -0.1933 -0.3418
37654SOL    HW217774   3.597   1.784  10.527  0.2132  0.9390 -0.4568
37655SOL     OW17775   2.055  11.742   0.775  0.8287 -0.2435 -0.1040
37655SOL    HW117776   2.099  11.787   0.847  1.8651 -1.8155  0.2897
37655SOL    HW217777   2.106  11.662   0.762 -1.4351 -1.7678 -0.1700
37656SOL     OW17778   3.105   6.622  12.554  0.1824  0.4584  0.1802
37656SOL    HW117779   3.155   6.652  12.478  0.0882 -0.9369 -0.4775
37656SOL    HW217780   3.169   6.619  12.625  0.3858  1.3042  0.0427
37657SOL     OW17781   7.371   6.460   9.593 -0.6434  0.0385 -0.3058
37657SOL    HW117782   7.301   6.424   9.538  0.9540 -0.9074 -1.7928
37657SOL    HW217783   7.414   6.383   9.630  0.1660  0.5844 -0.0959
37658SOL     OW17784  11.543   1.821   8.669 -0.6015  0.2036 -0.3626
37658SOL    HW117785  11.478   1.859   8.609 -1.1791 -1.4761 -0.8588
37658SOL    HW217786  11.502   1.825   8.755 -0.8407  0.2707 -0.4788
37659SOL     OW17787   8.600   2.562   5.681  0.5117 -0.1126 -0.2170
37659SOL    HW117788   8.662   2.559   5.753  1.0650  0.4923 -0.6564
37659SOL    HW217789   8.551   2.479   5.688  0.4570 -0.0015  0.9187
37660SOL     OW17790   0.781   5.148   7.059  0.7415 -0.0780 -0.0435
37660SOL    HW117791   0.752   5.121   7.146 -0.4170 -0.4100 -0.5089
37660SOL    HW217792   0.726   5.224   7.038  2.2922  1.1784  0.2530
37661SOL     OW17793   1.117   5.740   5.306 -0.0646 -0.1614  0.2709
37661SOL    HW117794   1.152   5.812   5.359  1.4832  0.2612 -1.2351
37661SOL    HW217795   1.026   5.765   5.290  0.5301  1.6814 -0.5020
37662SOL     OW17796   5.833   6.130   0.865  0.4175  0.1050  0.6072
37662SOL    HW117797   5.881   6.210   0.886  0.1000  0.9119 -1.5712
37662SOL    HW217798   5.741   6.156   0.867  0.3523  0.1515 -1.2935
37663SOL     OW17799   2.654  10.519   4.444  0.5269  0.6870  0.6070
37663SOL    HW117800   2.647  10.608   4.479 -2.4539  2.0238 -2.7972
37663SOL    HW217801   2.739  10.517   4.402  2.0464  0.6811  3.4430
37664SOL     OW17802   1.261   3.533   7.002 -0.3703  0.5199  0.3677
37664SOL    HW117803   1.224   3.526   7.090  0.5834  1.8824  0.9189
37664SOL    HW217804   1.354   3.554   7.017  0.4330 -1.6916 -0.9552
37665SOL     OW17805   5.789   6.916   1.633 -0.7221 -0.4440 -0.3415
37665SOL    HW117806   5.695   6.933   1.644 -0.7022  0.1228 -1.0334
37665SOL    HW217807   5.831   6.997   1.661 -0.4690 -0.4673 -0.6619
37666SOL     OW17808   3.966  12.175   2.504 -0.5261  0.2399  0.0344
37666SOL    HW117809   3.953  12.128   2.587 -1.3739  1.3475  0.5646
37666SOL    HW217810   3.997  12.262   2.530  2.2052 -0.3291 -0.9770
37667SOL     OW17811   6.983   0.648   3.770 -0.0184 -0.6283 -0.5704
37667SOL    HW117812   6.907   0.589   3.775  0.2285 -0.9777 -0.8676
37667SOL    HW217813   6.952   0.722   3.717  0.0647 -1.1236 -1.3387
37668SOL     OW17814  10.062  12.022   5.367  0.3279 -0.4823  0.2436
37668SOL    HW117815  10.079  11.954   5.432  0.3803  0.3164  1.0799
37668SOL    HW217816  10.149  12.055   5.343  0.3763 -1.4048 -0.9458
37669SOL     OW17817   0.007   2.060   5.344  0.7540 -0.5211  0.3824
37669SOL    HW117818  -0.039   2.035   5.263  1.5490  1.3963 -0.7305
37669SOL    HW217819   0.095   2.023   5.333  0.8757 -0.2222  0.3279
37670SOL     OW17820   8.582  12.288   4.560  0.3016  0.1019 -0.0826
37670SOL    HW117821   8.625  12.263   4.642 -0.4389 -0.7610  0.0526
37670SOL    HW217822   8.608  12.380   4.547 -0.0000  0.4255  1.4097
37671SOL     OW17823  11.540   5.082   8.675  0.1245 -0.5992  0.5884
37671SOL    HW117824  11.592   5.075   8.755 -0.0151  2.8139  1.1240
37671SOL    HW217825  11.602   5.067   8.604  1.5351  1.5789  1.2670
37672SOL     OW17826   0.726   7.609   0.755 -0.3762  0.3052 -0.0416
37672SOL    HW117827   0.666   7.596   0.682 -0.1676 -0.7184 -0.0431
37672SOL    HW217828   0.755   7.521   0.779 -2.2659  0.3295  2.8158
37673SOL     OW17829   2.834   4.671   9.733  0.5446 -0.0433 -0.0591
37673SOL    HW117830   2.857   4.711   9.817  1.6931 -1.2362  0.2244
37673SOL    HW217831   2.905   4.609   9.716 -0.0548 -0.3467 -1.5601
37674SOL     OW17832   6.524  12.042  11.747  0.4318 -0.0593 -0.6530
37674SOL    HW117833   6.500  12.135  11.748 -1.1603 -0.4594 -0.2409
37674SOL    HW217834   6.575  12.030  11.827 -1.1498  0.0262  0.3998
37675SOL     OW17835   5.269   7.521   7.663 -0.3071 -0.0458 -0.4912
37675SOL    HW117836   5.214   7.505   7.740 -0.3696  0.5001 -0.4214
37675SOL    HW217837   5.312   7.604   7.681 -3.6436  2.4432 -2.9107
37676SOL     OW17838   4.512  11.253   1.602  0.0668 -0.1850  0.2758
37676SOL    HW117839   4.470  11.208   1.676 -3.0816  1.7884 -0.1365
37676SOL    HW217840   4.440  11.284   1.548  2.1714  1.6662 -1.7058
37677SOL     OW17841   4.804   3.110   8.767  0.2044  0.2300 -0.1671
37677SOL    HW117842   4.830   3.168   8.696  0.3444  1.9511  1.2348
37677SOL    HW217843   4.861   3.133   8.839  0.0593 -1.4814  0.5304
37678SOL     OW17844   2.329   3.297   8.583 -0.1897 -0.5442 -0.1390
37678SOL    HW117845   2.369   3.243   8.514  1.8215 -2.1330  2.0923
37678SOL    HW217846   2.269   3.237   8.627 -0.0221 -0.1478  0.6362
37679SOL     OW17847   5.764   0.006   4.116 -0.7027 -0.2121 -0.0927
37679SOL    HW117848   5.674   0.010   4.084 -1.3873  0.5101  1.7655
37679SOL    HW217849   5.786   0.097   4.137  0.2608 -0.4584  0.0185
37680SOL     OW17850   8.653  10.979   0.314 -0.6295  0.5239  0.0765
37680SOL    HW117851   8.720  10.923   0.273  2.0388  2.6787  1.1314
37680SOL    HW217852   8.686  11.068   0.301 -2.7454  1.6286  1.7039
37681SOL     OW17853   8.350   2.663   8.084  0.0618  0.3491  0.5686
37681SOL    HW117854   8.441   2.663   8.115  0.3425 -0.2141 -0.2342
37681SOL    HW217855   8.342   2.746   8.037 -0.3298  1.1483  1.9834
37682SOL     OW17856  12.195  10.866  11.569  0.0785 -0.2169 -0.6358
37682SOL    HW117857  12.281  10.891  11.602 -0.1871  2.5770 -1.8177
37682SOL    HW217858  12.134  10.927  11.610 -0.9918 -0.4464 -1.8123
37683SOL     OW17859  11.896   5.233   8.657 -0.1572 -0.3998  0.1599
37683SOL    HW117860  11.863   5.158   8.707  1.8692 -0.5613  1.3231
37683SOL    HW217861  11.953   5.195   8.590  0.4952  0.0648  0.4426
37684SOL     OW17862   3.818   8.840   3.635  0.7770  0.4339  0.4042
37684SOL    HW117863   3.742   8.887   3.669 -0.8553 -0.3457 -1.9805
37684SOL    HW217864   3.848   8.786   3.709 -2.1148 -0.6137  0.9366
37685SOL     OW17865  12.432   6.290   3.883 -0.0221 -0.6525  0.1553
37685SOL    HW117866  12.345   6.329   3.889 -0.3480 -1.4534  0.7980
37685SOL    HW217867  12.482   6.329   3.954 -0.0580 -0.6907  0.2018
37686SOL     OW17868   4.105   4.190   3.111  0.1222 -0.1265  0.3423
37686SOL    HW117869   4.057   4.191   3.194  2.3308 -0.8252  1.7288
37686SOL    HW217870   4.148   4.275   3.107 -0.7229  0.2731 -0.5939
37687SOL     OW17871   7.305   0.245   8.059 -0.1923  0.0380 -0.1544
37687SOL    HW117872   7.310   0.178   8.127 -0.8620  1.2716  1.1608
37687SOL    HW217873   7.274   0.323   8.104  1.2648  1.4635 -1.4939
37688SOL     OW17874   5.778   1.846  10.670  0.3717  0.3851 -0.6006
37688SOL    HW117875   5.708   1.808  10.723  1.7665 -0.3969  0.7535
37688SOL    HW217876   5.732   1.897  10.602 -1.4992 -1.0649 -0.4954
37689SOL     OW17877   4.720  12.000   4.580  0.8600  0.0442 -0.1661
37689SOL    HW117878   4.634  11.996   4.622 -0.8615 -0.3931 -3.3843
37689SOL    HW217879   4.723  12.087   4.539  1.9272  0.0184 -0.1683
37690SOL     OW17880   1.861   2.170   6.399 -0.1086  0.0576 -0.4715
37690SOL    HW117881   1.835   2.262   6.407  1.5689  0.6192 -1.1047
37690SOL    HW217882   1.822   2.128   6.476 -2.0877  0.9828 -0.9135
37691SOL     OW17883   4.817   1.299   8.432 -0.7279 -0.0376 -0.2905
37691SOL    HW117884   4.868   1.330   8.507  0.0467  1.3059 -1.3127
37691SOL    HW217885   4.761   1.231   8.467  1.2311 -1.0468  1.0558
37692SOL     OW17886   7.798   2.676  10.359 -0.5574  0.3141  0.0042
37692SOL    HW117887   7.788   2.771  10.361  1.1808  0.5288  1.6665
37692SOL    HW217888   7.719   2.643  10.402 -0.6766  1.0847  0.4052
37693SOL     OW17889   2.525   6.312   5.722 -0.2984 -1.0110  0.3457
37693SOL    HW117890   2.507   6.273   5.637 -1.6209 -0.7328  0.4618
37693SOL    HW217891   2.616   6.341   5.717 -0.4914 -0.5678 -1.1490
37694SOL     OW17892   4.294   2.880   3.450 -0.3224 -0.3371 -0.7689
37694SOL    HW117893   4.292   2.946   3.519 -0.4834 -0.2270 -0.8778
37694SOL    HW217894   4.246   2.806   3.487 -0.4562 -0.2580 -0.7833
37695SOL     OW17895   8.616   9.328   2.112 -0.1361  0.3894  0.0795
37695SOL    HW117896   8.595   9.419   2.133  1.2527  0.4340  1.5518
37695SOL    HW217897   8.680   9.302   2.179 -0.3530 -1.6188 -0.4084
37696SOL     OW17898   5.834   4.774   8.090 -0.1982 -0.2023 -0.3651
37696SOL    HW117899   5.808   4.736   8.006 -1.4316 -0.2090  0.0003
37696SOL    HW217900   5.778   4.851   8.101 -0.7249 -0.7353  0.8828
37697SOL     OW17901  10.216   0.046  12.301 -0.0522 -0.1369 -0.1419
37697SOL    HW117902  10.178   0.115  12.354  0.3485 -0.3215  0.3930
37697SOL    HW217903  10.216  -0.031  12.358 -0.6803 -0.6394 -0.7952
37698SOL     OW17904   4.340   4.620   3.942 -0.7941  0.1054 -0.1834
37698SOL    HW117905   4.339   4.667   3.859 -0.1879  2.2369  0.9500
37698SOL    HW217906   4.251   4.630   3.976 -1.1334 -1.0378 -0.6752
37699SOL     OW17907   7.829   8.950   9.116  0.6831  1.0581  0.3528
37699SOL    HW117908   7.922   8.972   9.113  0.8874  0.3746  1.1945
37699SOL    HW217909   7.797   8.993   9.195  0.4917  0.5289  0.5662
37700SOL     OW17910   6.473  10.563   1.397 -0.6193  0.0040  0.0719
37700SOL    HW117911   6.493  10.478   1.358 -1.2216  0.3892 -1.1108
37700SOL    HW217912   6.558  10.594   1.428 -0.4561 -1.2038  0.9205
37701SOL     OW17913   0.405   9.053   1.067  0.0119 -0.1758 -0.3265
37701SOL    HW117914   0.311   9.057   1.081  0.2792 -0.3695  1.8779
37701SOL    HW217915   0.419   9.100   0.984 -2.0296 -0.5141 -0.9300
37702SOL     OW17916  11.648   8.987   8.933  0.0938 -0.2003 -0.3430
37702SOL    HW117917  11.696   9.032   8.863 -1.6302  0.5816 -1.0568
37702SOL    HW217918  11.567   9.036   8.944 -0.7120 -1.6482  0.6253
37703SOL     OW17919   3.202   5.092   8.895  0.3891  0.0827 -0.0777
37703SOL    HW117920   3.297   5.081   8.908  0.2834  0.0219  0.6762
37703SOL    HW217921   3.184   5.182   8.923  0.5152  0.7418 -1.9900
37704SOL     OW17922   6.811   2.485   5.865 -0.1103 -1.1117 -0.5562
37704SOL    HW117923   6.780   2.494   5.955  0.7360 -0.9791 -0.2629
37704SOL    HW217924   6.763   2.551   5.816  0.9540  0.3113  0.2210
37705SOL     OW17925   3.779   3.465  12.076  0.2124  0.2739  0.7033
37705SOL    HW117926   3.783   3.438  11.984 -1.4918 -1.6403  1.1179
37705SOL    HW217927   3.871   3.475  12.102  0.7210  0.8267 -1.1761
37706SOL     OW17928   1.387   6.731   5.318  0.7615  0.0045  0.1670
37706SOL    HW117929   1.451   6.786   5.364  0.5464  0.2271  0.2067
37706SOL    HW217930   1.384   6.766   5.229  1.2717 -0.5077 -0.0564
37707SOL     OW17931   1.441   7.480   5.568  0.7319  0.6492  0.3008
37707SOL    HW117932   1.526   7.463   5.527  0.1501  1.5783 -1.3544
37707SOL    HW217933   1.429   7.575   5.559 -0.6028  0.4867  0.3047
37708SOL     OW17934  10.197   0.612   0.383 -0.0203  0.2961  0.0234
37708SOL    HW117935  10.256   0.633   0.456 -1.6987 -2.5759  2.4715
37708SOL    HW217936  10.184   0.695   0.338  3.3856  1.6458  1.1903
37709SOL     OW17937  12.075   3.604  10.558  0.3420 -0.6552 -0.1888
37709SOL    HW117938  12.079   3.562  10.644 -0.7503 -1.2798 -0.4320
37709SOL    HW217939  12.164   3.595  10.523  0.1396 -2.8880 -0.2595
37710SOL     OW17940   6.479   9.973   1.070 -0.5400  0.2650 -0.3633
37710SOL    HW117941   6.445  10.038   1.132 -0.0674 -2.2540  2.8311
37710SOL    HW217942   6.418   9.899   1.078  0.4305 -0.7353 -1.7495
37711SOL     OW17943   9.582   1.067   9.988 -0.1823  0.2742 -0.1326
37711SOL    HW117944   9.519   1.031  10.052  0.8921  0.3603  1.0065
37711SOL    HW217945   9.536   1.062   9.905 -1.8753  0.7333  0.7263
37712SOL     OW17946   9.119   3.746   5.175  0.0520  0.0254 -0.7407
37712SOL    HW117947   9.080   3.664   5.145 -0.9861 -0.4516  1.6182
37712SOL    HW217948   9.045   3.795   5.212  1.2383  0.2098  1.5678
37713SOL     OW17949   5.562   3.008   1.339  0.0978  1.2581 -0.3579
37713SOL    HW117950   5.590   3.071   1.273 -1.5411  1.6797 -0.7028
37713SOL    HW217951   5.495   3.054   1.389 -1.9137 -0.4707 -1.2713
37714SOL     OW17952  10.418   8.789   5.024 -0.0152  0.9157 -0.0424
37714SOL    HW117953  10.350   8.844   5.063 -0.7827  0.2015 -0.3602
37714SOL    HW217954  10.417   8.811   4.931 -1.6447 -0.9548 -0.5299
37715SOL     OW17955   4.457  10.994   0.558  0.2997  0.1011 -0.1040
37715SOL    HW117956   4.464  10.906   0.594 -2.8916  0.1072  0.8378
37715SOL    HW217957   4.442  10.981   0.464  0.1023 -0.3675 -0.0085
37716SOL     OW17958   3.913   6.149  12.524 -0.2269 -0.4491 -0.0866
37716SOL    HW117959   3.931   6.055  12.535  0.9789 -0.2055  0.1365
37716SOL    HW217960   3.906   6.182  12.614  0.8653 -0.0561 -0.1353
37717SOL     OW17961   6.433   1.770   0.539 -0.2679  0.1639 -0.0765
37717SOL    HW117962   6.525   1.763   0.564 -0.8714 -1.2091  1.9919
37717SOL    HW217963   6.408   1.858   0.567 -0.1652 -0.3091  1.5853
37718SOL     OW17964   9.268   1.903  10.257 -0.8911 -0.2749  0.4682
37718SOL    HW117965   9.347   1.942  10.220 -1.4906 -0.1100 -0.6967
37718SOL    HW217966   9.297   1.819  10.292 -0.1005  0.0220  0.5439
37719SOL     OW17967   1.579  10.499  10.764 -0.1438  0.2804  0.3136
37719SOL    HW117968   1.674  10.500  10.767 -0.0977  0.4092 -0.7027
37719SOL    HW217969   1.557  10.414  10.725 -0.3946  0.6641 -0.4073
37720SOL     OW17970   1.059   7.338   0.806 -0.0219  0.8273 -0.1053
37720SOL    HW117971   1.097   7.336   0.718 -0.3098 -3.1245 -0.3144
37720SOL    HW217972   0.965   7.350   0.791 -0.1449 -0.4250 -0.4150
37721SOL     OW17973   6.416   0.392   8.916  0.4404  0.0726 -0.5210
37721SOL    HW117974   6.366   0.316   8.887  0.9785  0.0005 -1.2914
37721SOL    HW217975   6.359   0.467   8.900 -0.0231 -0.1426  0.0760
37722SOL     OW17976   2.090   5.221   2.784 -0.4464  0.6908 -0.5953
37722SOL    HW117977   2.153   5.172   2.837  0.6722  1.3322 -1.2671
37722SOL    HW217978   2.040   5.154   2.737 -0.3242  0.1621  0.0220
37723SOL     OW17979  11.558   0.562   8.821  0.1534  0.0623 -0.2257
37723SOL    HW117980  11.518   0.582   8.736  1.0408 -0.0273 -0.6845
37723SOL    HW217981  11.495   0.594   8.886 -1.1532 -1.0724 -0.8927
37724SOL     OW17982   0.941   3.587   8.270 -0.1848  0.5471 -0.3722
37724SOL    HW117983   0.899   3.620   8.191 -1.8901 -1.0679 -0.1948
37724SOL    HW217984   0.966   3.497   8.249  2.3760  1.1169 -0.1286
37725SOL     OW17985  10.991   6.038   3.935  0.0294 -0.4796 -0.0306
37725SOL    HW117986  10.928   6.076   3.995  0.2613 -0.8464  0.4536
37725SOL    HW217987  11.061   6.005   3.991  1.1066  0.7235 -0.5985
37726SOL     OW17988   8.145  12.548   6.420  0.2148  0.0512  0.1420
37726SOL    HW117989   8.058  12.583   6.437  0.6093  2.3912 -2.0557
37726SOL    HW217990   8.204  12.606   6.468  0.6758 -0.4646  0.2167
37727SOL     OW17991   3.217   2.416  11.291  0.0937 -0.0711 -0.4473
37727SOL    HW117992   3.278   2.472  11.339  0.6409 -1.1596  0.1582
37727SOL    HW217993   3.169   2.476  11.234  0.0241  1.1406  0.8267
37728SOL     OW17994   8.505   7.063   9.058 -0.2212 -0.1013  0.5607
37728SOL    HW117995   8.439   6.999   9.085 -1.6316  0.8490 -0.4863
37728SOL    HW217996   8.485   7.141   9.108 -1.4812  0.9704 -1.4723
37729SOL     OW17997   8.635   4.987  10.955 -0.2640 -0.4947  0.2274
37729SOL    HW117998   8.695   4.912  10.958 -0.2072 -0.4809 -0.3884
37729SOL    HW217999   8.671   5.043  10.885  0.7158  0.9835  1.8261
37730SOL     OW18000   2.442   7.358   3.562 -0.5772  0.1203  0.0089
37730SOL    HW118001   2.363   7.305   3.566  0.5782 -1.6717  0.7000
37730SOL    HW218002   2.487   7.340   3.645  0.5319  1.1100 -0.3466
37731SOL     OW18003   9.485   7.577   3.823 -0.5262  0.5173 -0.3514
37731SOL    HW118004   9.491   7.532   3.907 -1.9376  0.3111 -0.3374
37731SOL    HW218005   9.414   7.640   3.834 -0.8417  0.3822 -1.4345
37732SOL     OW18006   8.823   3.831   0.975  0.2129 -0.3772 -0.2573
37732SOL    HW118007   8.811   3.874   0.890  0.9658  1.3732  0.4796
37732SOL    HW218008   8.899   3.874   1.014  0.0682 -1.3522  1.1980
37733SOL     OW18009   0.039   4.923   1.707 -0.3429  0.1532 -0.1099
37733SOL    HW118010   0.110   4.894   1.765  0.5172 -0.0230 -1.2143
37733SOL    HW218011  -0.022   4.967   1.765  0.5983  0.1833  0.9044
37734SOL     OW18012   9.316  11.887   4.974  0.1504  0.0662 -0.0839
37734SOL    HW118013   9.311  11.857   5.065  2.2116  1.9277  0.7535
37734SOL    HW218014   9.343  11.810   4.925  0.5087 -0.6237  1.1492
37735SOL     OW18015   9.588   9.238   4.333  0.3123  0.3832  0.3465
37735SOL    HW118016   9.536   9.292   4.393 -0.3390  1.8122 -1.4308
37735SOL    HW218017   9.580   9.281   4.248  2.0246 -1.0203 -0.5956
37736SOL     OW18018  10.758   2.673   7.237  0.2727 -0.0242  0.4011
37736SOL    HW118019  10.842   2.715   7.258 -0.1516  1.2014 -0.2544
37736SOL    HW218020  10.776   2.620   7.160  0.0748  1.6211 -0.8171
37737SOL     OW18021  11.610  12.313   2.132 -0.4076 -0.0943  0.4784
37737SOL    HW118022  11.524  12.318   2.173 -0.2447  1.0633  0.7264
37737SOL    HW218023  11.609  12.381   2.065 -0.1713 -1.0274 -0.4861
37738SOL     OW18024   7.386   1.872   6.213  0.1909 -0.0801  0.1768
37738SOL    HW118025   7.451   1.935   6.242 -0.0635 -0.1121  0.8536
37738SOL    HW218026   7.303   1.919   6.219  0.0715 -0.2754  0.0579
37739SOL     OW18027  10.991   9.864   7.177 -0.4475  0.3304  0.3839
37739SOL    HW118028  11.075   9.901   7.150 -0.8797  0.8796 -0.2385
37739SOL    HW218029  10.929   9.893   7.110 -1.4874  1.3858  1.7391
37740SOL     OW18030   6.443   5.503  10.180  0.4438  0.1132 -0.1080
37740SOL    HW118031   6.466   5.524  10.271  1.8601 -0.4445 -0.3180
37740SOL    HW218032   6.526   5.482  10.138 -0.3276 -0.8312 -1.2368
37741SOL     OW18033   6.845   1.075  11.746 -0.3686  0.4586  0.2448
37741SOL    HW118034   6.830   0.981  11.761 -2.3684  0.9482  1.6072
37741SOL    HW218035   6.892   1.104  11.825 -2.1079  1.0753  1.1080
37742SOL     OW18036  12.070   9.440   8.396  0.3669 -0.1313 -0.3447
37742SOL    HW118037  12.028   9.512   8.444 -0.1143  1.3896 -2.8530
37742SOL    HW218038  12.004   9.372   8.390 -0.2187  0.4393 -0.4530
37743SOL     OW18039   9.304   8.424   6.857  0.2301 -0.0494 -0.2958
37743SOL    HW118040   9.389   8.468   6.858  0.1596  0.0818 -0.1533
37743SOL    HW218041   9.256   8.465   6.785  0.3578 -0.2565 -0.5006
37744SOL     OW18042  12.026   1.800  11.718  0.6155  0.2856  0.0014
37744SOL    HW118043  12.088   1.861  11.755  1.7623 -0.8114 -0.0341
37744SOL    HW218044  11.945   1.814  11.767  1.0497  1.3481  0.4293
37745SOL     OW18045   5.554   8.774  10.547  0.4110 -0.1039  0.0637
37745SOL    HW118046   5.526   8.844  10.488 -0.2228  2.0023  2.6902
37745SOL    HW218047   5.474   8.744  10.589  0.9379 -1.0370  0.4253
37746SOL     OW18048   8.185  11.383   8.201  0.0674 -0.2119 -0.2406
37746SOL    HW118049   8.093  11.389   8.228 -0.1479 -0.3911 -0.9252
37746SOL    HW218050   8.216  11.474   8.203 -0.1699 -0.1315 -0.1646
37747SOL     OW18051  12.036   0.883   4.368  0.3713 -0.0293 -0.1214
37747SOL    HW118052  12.087   0.840   4.299 -3.3697 -1.3618 -2.3713
37747SOL    HW218053  12.046   0.977   4.350  0.1705 -0.3291 -2.0093
37748SOL     OW18054   7.956   3.224  11.460  0.5493  0.1187  0.0005
37748SOL    HW118055   7.866   3.193  11.473  0.8445 -0.0203  2.0120
37748SOL    HW218056   7.946   3.303  11.407 -0.4723 -1.5164 -2.4505
37749SOL     OW18057   9.049   5.135   5.628 -0.5744 -0.1977  0.1039
37749SOL    HW118058   9.094   5.051   5.620  1.3524  0.7593  0.1945
37749SOL    HW218059   9.080   5.186   5.553 -2.2778  0.2170 -0.3619
37750SOL     OW18060   1.842   9.259   2.249 -0.0701 -0.6391  0.6331
37750SOL    HW118061   1.757   9.296   2.225 -0.1635 -1.9519 -1.2660
37750SOL    HW218062   1.821   9.185   2.306 -0.2156 -1.0927 -0.0085
37751SOL     OW18063   3.266   8.750  11.347  0.0096 -0.2148  0.1183
37751SOL    HW118064   3.355   8.772  11.320 -0.2655 -0.1992 -0.8141
37751SOL    HW218065   3.276   8.670  11.399  0.5257 -0.4590 -0.3405
37752SOL     OW18066  10.818   8.831   5.511  0.3827 -0.0746  0.0199
37752SOL    HW118067  10.795   8.751   5.464  1.7373  0.4072 -1.5431
37752SOL    HW218068  10.744   8.846   5.570 -0.8837 -1.3088 -1.1832
37753SOL     OW18069  10.110  10.437   2.432 -0.7436 -0.2121  0.1845
37753SOL    HW118070  10.192  10.449   2.480 -1.4521  0.7998  1.2255
37753SOL    HW218071  10.124  10.480   2.348  0.0111 -0.6466  0.0808
37754SOL     OW18072   2.589   1.731   6.195  0.1617  0.3273 -0.2304
37754SOL    HW118073   2.544   1.774   6.122  1.2277  0.5893 -0.7491
37754SOL    HW218074   2.646   1.666   6.154  0.9383  0.6252  0.3421
37755SOL     OW18075  10.826   0.043   3.425 -0.4836 -0.3490  0.4235
37755SOL    HW118076  10.815   0.098   3.347  2.4403 -0.3194 -0.0673
37755SOL    HW218077  10.791   0.096   3.497  1.7740  2.0454 -0.1051
37756SOL     OW18078  12.522   8.093  10.312  0.7045 -0.6524 -0.2364
37756SOL    HW118079  12.528   8.038  10.234  0.5857  0.7794 -1.2963
37756SOL    HW218080  12.605   8.141  10.312  0.5699 -0.4215  0.3566
37757SOL     OW18081   5.179  11.480   3.045 -0.1796 -0.1395 -0.3678
37757SOL    HW118082   5.257  11.438   3.081  0.4908  1.2396 -0.1596
37757SOL    HW218083   5.108  11.453   3.104  0.3489 -0.4583  0.1270
37758SOL     OW18084   8.389   6.102   2.228  0.0576 -0.2670 -0.3058
37758SOL    HW118085   8.336   6.166   2.275  0.5419 -1.8938  2.6835
37758SOL    HW218086   8.457   6.154   2.185 -0.7364  1.3670  0.3311
37759SOL     OW18087   0.093  10.850   9.875  0.1461  0.0906 -0.6261
37759SOL    HW118088   0.011  10.807   9.902  0.0612  0.2049 -0.7019
37759SOL    HW218089   0.161  10.807   9.928 -0.2242  1.5412  1.1219
37760SOL     OW18090   1.338   9.292   7.510  0.0333  0.1945 -0.5799
37760SOL    HW118091   1.373   9.379   7.490  1.9572 -0.5965 -0.9367
37760SOL    HW218092   1.243   9.302   7.506  0.2326  2.0572 -1.5739
37761SOL     OW18093   6.971   1.395   5.309  0.0832 -0.2000  0.4201
37761SOL    HW118094   6.886   1.436   5.292 -0.2327 -1.3394 -0.9313
37761SOL    HW218095   7.035   1.465   5.293 -0.5558  0.5679  1.1108
37762SOL     OW18096   9.811  11.435   4.993 -0.2859  0.2100  0.1688
37762SOL    HW118097   9.754  11.452   4.919 -1.3209  0.9547  1.1108
37762SOL    HW218098   9.791  11.345   5.018 -0.1774  0.0703 -0.2367
37763SOL     OW18099   3.058   4.000   7.911  0.0933 -0.2668 -0.2331
37763SOL    HW118100   3.053   4.065   7.981 -1.4061 -0.5766 -0.0201
37763SOL    HW218101   3.056   4.052   7.830  2.3204  0.1225 -0.0880
37764SOL     OW18102   4.414   7.133   5.180  0.0523 -0.2228  0.0023
37764SOL    HW118103   4.398   7.193   5.107  0.1908  0.0088  0.1597
37764SOL    HW218104   4.374   7.176   5.255 -1.8848 -1.4044 -0.2950
37765SOL     OW18105   8.916   6.303   6.302  0.3304  0.0813  0.2720
37765SOL    HW118106   8.933   6.261   6.218  0.0975  1.4522 -0.4948
37765SOL    HW218107   8.849   6.369   6.282 -0.9838 -0.6947  1.8777
37766SOL     OW18108  12.243   0.456   9.753  0.5206  0.2744  0.4826
37766SOL    HW118109  12.250   0.539   9.800 -0.5940  0.5377  0.2037
37766SOL    HW218110  12.149   0.442   9.741  0.7354 -0.1880 -0.9426
37767SOL     OW18111   2.880  10.544  11.932  0.1141 -0.1303 -0.3263
37767SOL    HW118112   2.948  10.546  11.864  1.5508 -0.2347  1.0321
37767SOL    HW218113   2.892  10.459  11.974  1.4287  1.1336  2.0802
37768SOL     OW18114   2.123  10.343  12.164 -0.5161  0.0985  0.4843
37768SOL    HW118115   2.167  10.296  12.094  0.1621  1.0780  0.2386
37768SOL    HW218116   2.094  10.274  12.224  1.1893 -0.5978  0.5667
37769SOL     OW18117   7.739   7.952   4.740  0.0352  0.0874 -1.1654
37769SOL    HW118118   7.803   7.990   4.680  0.0199  2.8019  0.3628
37769SOL    HW218119   7.792   7.905   4.805  0.2976  0.2732 -1.2450
37770SOL     OW18120   9.976   7.398   4.752  0.2532  0.6800 -0.5393
37770SOL    HW118121  10.048   7.412   4.813  0.3327 -0.4647 -0.3614
37770SOL    HW218122  10.003   7.322   4.700  0.2957  1.7650 -2.1716
37771SOL     OW18123   1.882  10.733   8.412  0.1978  0.8019  0.0233
37771SOL    HW118124   1.898  10.646   8.375 -0.4221  1.4381 -1.8698
37771SOL    HW218125   1.786  10.738   8.418  0.2668  0.2761  2.9826
37772SOL     OW18126   3.156   4.249   6.124  0.4610 -0.2016  0.7471
37772SOL    HW118127   3.119   4.299   6.051  0.1121 -0.8914  0.4446
37772SOL    HW218128   3.241   4.290   6.140  1.3819 -1.2002 -1.2948
37773SOL     OW18129  11.215   4.774   7.463 -0.2559  0.5489  0.5454
37773SOL    HW118130  11.300   4.731   7.450 -0.7665 -0.1225 -0.7201
37773SOL    HW218131  11.167   4.713   7.520  0.1688  1.0489  1.4744
37774SOL     OW18132  10.763  12.540   2.826  0.4149  0.3192  0.0316
37774SOL    HW118133  10.829  12.552   2.894  0.9597 -0.8722 -0.2600
37774SOL    HW218134  10.798  12.585   2.749 -0.4940  2.2235  0.6625
37775SOL     OW18135   3.156   5.160   0.147 -0.0936  0.1682 -0.2946
37775SOL    HW118136   3.225   5.165   0.081 -0.2456 -1.3594 -0.6223
37775SOL    HW218137   3.114   5.075   0.131 -2.1455  1.1024 -0.1824
37776SOL     OW18138  10.480   5.572   0.433 -0.0594  0.4450  0.0004
37776SOL    HW118139  10.537   5.595   0.360 -0.4984  0.8548 -0.2204
37776SOL    HW218140  10.521   5.495   0.473  1.7635  1.9354  1.1085
37777SOL     OW18141  12.421   5.876   8.771  0.4116 -0.0885 -0.1261
37777SOL    HW118142  12.351   5.935   8.797  0.8988  0.0211  1.0005
37777SOL    HW218143  12.492   5.935   8.744 -0.1364 -0.1965 -1.9522
37778SOL     OW18144   3.996  11.200   9.054 -0.5781  0.4286  0.3056
37778SOL    HW118145   3.960  11.183   9.141 -2.1035  1.2321 -0.1294
37778SOL    HW218146   4.050  11.124   9.035 -0.5231  0.0621  1.7860
37779SOL     OW18147   2.647   9.466   9.379 -0.1222  0.4484  0.5261
37779SOL    HW118148   2.675   9.375   9.385  0.0671  0.2996 -1.8795
37779SOL    HW218149   2.553   9.463   9.399  0.3758  0.2108  3.3212
37780SOL     OW18150   8.789   2.128   6.559 -0.0943  0.2707 -0.5013
37780SOL    HW118151   8.806   2.044   6.601  0.6365  0.1219 -1.0709
37780SOL    HW218152   8.846   2.190   6.605  0.4237  0.1786 -1.0012
37781SOL     OW18153   4.080  10.421   6.111 -0.0583 -0.4693 -0.1531
37781SOL    HW118154   4.050  10.511   6.124  0.9923 -0.1947  0.5752
37781SOL    HW218155   4.149  10.410   6.176 -0.1713 -1.8099 -0.2396
37782SOL     OW18156   1.439   5.440   2.593  0.1513  0.1355 -0.1965
37782SOL    HW118157   1.531   5.467   2.585  0.1320  0.2810  0.0597
37782SOL    HW218158   1.411   5.477   2.677 -0.2170  0.3106 -0.3974
37783SOL     OW18159   2.788   5.910   7.875 -0.0423 -0.3796 -0.1180
37783SOL    HW118160   2.756   5.932   7.963 -0.9322  2.1608 -1.0021
37783SOL    HW218161   2.714   5.930   7.817  1.3774  0.4883 -1.6939
37784SOL     OW18162   9.271   6.534   8.996 -0.1256 -0.1057  0.0916
37784SOL    HW118163   9.361   6.514   9.024 -0.9370 -1.6996  1.7953
37784SOL    HW218164   9.232   6.577   9.072 -0.8361  0.5299 -0.6204
37785SOL     OW18165   0.057   4.266   8.898 -0.0425 -0.1421  0.0922
37785SOL    HW118166   0.054   4.179   8.937  4.3974 -1.2609 -1.5052
37785SOL    HW218167   0.082   4.324   8.970  1.9527 -1.1404  0.2715
37786SOL     OW18168   6.069   9.335   3.138  0.0060  0.3571  0.3606
37786SOL    HW118169   5.988   9.381   3.113 -0.0553 -0.4151 -0.9420
37786SOL    HW218170   6.047   9.242   3.131  0.1933  0.0589  2.7488
37787SOL     OW18171  12.397   7.254   3.111 -0.4802 -0.6795  0.2819
37787SOL    HW118172  12.343   7.328   3.085 -0.0449 -0.3123  0.4122
37787SOL    HW218173  12.400   7.198   3.033 -1.5978 -1.0450  0.4861
37788SOL     OW18174  12.596   1.104   7.922  0.0072  0.2892  0.1635
37788SOL    HW118175  12.577   1.061   8.006 -0.2708  0.1050  0.0085
37788SOL    HW218176  12.615   1.032   7.862  1.3521  0.4719  0.3404
37789SOL     OW18177   5.963   6.262   4.967  0.2407 -0.2315 -0.6165
37789SOL    HW118178   6.025   6.242   4.897  0.6642 -1.4876  0.0857
37789SOL    HW218179   5.879   6.274   4.922  0.8799  1.0551 -1.5290
37790SOL     OW18180   3.184   7.800  12.029 -0.0690  0.1946  0.5085
37790SOL    HW118181   3.122   7.813  12.101  0.7578  1.8817  0.9693
37790SOL    HW218182   3.149   7.852  11.957  0.4187  0.5639  0.5320
37791SOL     OW18183   1.488   6.899   9.265  0.2173 -0.3745  0.3070
37791SOL    HW118184   1.463   6.961   9.196  0.2550 -0.1622  0.4847
37791SOL    HW218185   1.580   6.879   9.245  0.7503  0.9768  1.2599
37792SOL     OW18186   5.586   6.332  10.585  0.2505 -0.8599 -0.3788
37792SOL    HW118187   5.637   6.403  10.546 -0.8349  0.4949  0.5650
37792SOL    HW218188   5.496   6.348  10.557  0.1671 -2.6972 -1.2857
37793SOL     OW18189  10.321   2.482   6.289  0.0962 -0.7419  0.2534
37793SOL    HW118190  10.403   2.527   6.310  0.3884 -0.2455 -1.6833
37793SOL    HW218191  10.349   2.396   6.256 -0.0850 -0.3414 -0.9992
37794SOL     OW18192   4.098   4.780  10.144  0.3165 -0.1098  0.0573
37794SOL    HW118193   4.109   4.853  10.084 -1.2311 -0.3514 -0.5814
37794SOL    HW218194   4.111   4.702  10.090 -0.3286 -0.3166  0.1854
37795SOL     OW18195  10.048   4.312  11.845 -0.0244 -0.2643  0.1446
37795SOL    HW118196   9.954   4.295  11.856 -0.2230  1.3008  1.0846
37795SOL    HW218197  10.087   4.224  11.845 -1.5782 -1.0265 -1.5071
37796SOL     OW18198   9.117   8.577  12.553 -0.3031  0.0809  0.3988
37796SOL    HW118199   9.034   8.617  12.580 -1.7658 -2.5091  0.0585
37796SOL    HW218200   9.091   8.496  12.509  2.4650 -1.3203  1.1486
37797SOL     OW18201   8.368   6.861   9.222 -0.3084 -0.0503  0.2667
37797SOL    HW118202   8.372   6.826   9.311 -0.2414 -1.1825 -0.1661
37797SOL    HW218203   8.289   6.824   9.184 -0.7703  1.0616  0.0945
37798SOL     OW18204  12.429   3.734   5.695 -0.2753 -0.2039  0.3183
37798SOL    HW118205  12.428   3.829   5.687 -1.2363 -0.1633  0.7414
37798SOL    HW218206  12.418   3.717   5.789 -2.4879 -0.7224  0.0205
37799SOL     OW18207   1.857   4.491   8.186 -0.4461 -0.2985  0.3548
37799SOL    HW118208   1.892   4.417   8.234 -0.3413 -1.3568 -1.2864
37799SOL    HW218209   1.763   4.475   8.181 -0.2716 -1.0653 -1.1343
37800SOL     OW18210  11.584   2.824   0.184  0.3947  0.3688  0.1305
37800SOL    HW118211  11.501   2.855   0.147  1.2737  0.9364 -1.4636
37800SOL    HW218212  11.610   2.752   0.126  1.0232  0.2028  0.6123
37801SOL     OW18213   4.066  10.849  10.731  0.3988  0.0641  0.6110
37801SOL    HW118214   4.153  10.864  10.767 -0.0594  2.3159  0.9644
37801SOL    HW218215   4.072  10.879  10.641 -0.1241  0.7841  0.8018
37802SOL     OW18216   7.904   0.337  12.440  0.2786  0.6743 -0.4500
37802SOL    HW118217   7.824   0.313  12.393 -0.5896  2.9127 -0.2702
37802SOL    HW218218   7.875   0.353  12.530  1.5651 -1.5921  0.4499
37803SOL     OW18219   6.767   8.098  12.505  0.0836  0.6472 -0.3350
37803SOL    HW118220   6.753   8.116  12.598 -0.5385  1.5034 -0.5846
37803SOL    HW218221   6.756   8.003  12.497 -0.4103  0.6414  0.3622
37804SOL     OW18222   1.148   3.979   3.962 -0.5330  0.2332 -0.0168
37804SOL    HW118223   1.059   3.965   3.994 -0.6504 -0.2532 -0.5505
37804SOL    HW218224   1.153   3.928   3.881  0.4895 -0.4074  0.4354
37805SOL     OW18225   2.561  12.137   3.236  0.7546  0.0711  0.0103
37805SOL    HW118226   2.493  12.078   3.206  0.3843  0.5148 -0.0274
37805SOL    HW218227   2.544  12.219   3.190  3.5044 -0.8053 -2.9195
37806SOL     OW18228   0.399   1.596   0.517  0.3906  0.4944 -0.6234
37806SOL    HW118229   0.304   1.602   0.529  0.2159 -1.9174 -0.1835
37806SOL    HW218230   0.434   1.605   0.606  0.4933  0.4565 -0.6606
37807SOL     OW18231   0.269   6.984   5.935  0.3961 -0.0893 -0.2283
37807SOL    HW118232   0.203   7.041   5.974  0.3672 -0.9922  1.0932
37807SOL    HW218233   0.351   7.030   5.949  0.4117 -0.4841  1.1296
37808SOL     OW18234  10.269  10.135   6.506 -0.4027 -0.2658 -0.3727
37808SOL    HW118235  10.358  10.168   6.494 -0.7985  0.9661 -0.0539
37808SOL    HW218236  10.242  10.107   6.419  0.2444 -0.5045 -0.4997
37809SOL     OW18237   1.147   6.081  11.009 -0.2745 -0.2818  0.3004
37809SOL    HW118238   1.107   6.029  10.940  0.9329 -3.4463  1.7954
37809SOL    HW218239   1.133   6.030  11.089  0.7607  1.8747  1.9590
37810SOL     OW18240   8.185  11.264   1.008  0.0785 -0.1601 -0.0454
37810SOL    HW118241   8.107  11.238   1.055  0.1417  0.3315  0.3423
37810SOL    HW218242   8.246  11.292   1.077  0.4006 -0.0394 -0.3774
37811SOL     OW18243   3.600   5.444  10.233 -0.6145 -0.0970 -0.2749
37811SOL    HW118244   3.599   5.349  10.244 -0.1574 -0.0886 -0.1436
37811SOL    HW218245   3.585   5.458  10.140  0.3894 -0.3359 -0.4837
37812SOL     OW18246   5.495  12.045   1.179  0.0522 -0.6693 -0.5256
37812SOL    HW118247   5.581  12.069   1.213  0.1576 -0.4135 -0.9634
37812SOL    HW218248   5.492  12.083   1.091 -0.2797 -1.1875 -0.7428
37813SOL     OW18249  12.098   4.870   3.484  0.1380  0.2078  0.0814
37813SOL    HW118250  12.093   4.783   3.443 -1.6144  0.3026 -0.0203
37813SOL    HW218251  12.024   4.871   3.544  1.4690  0.8280  1.7733
37814SOL     OW18252   1.822   2.229   4.091  0.3184  0.5931  0.2577
37814SOL    HW118253   1.827   2.323   4.077 -0.2264  0.6075  0.1336
37814SOL    HW218254   1.913   2.199   4.086  0.5802  1.2157  1.0950
37815SOL     OW18255  10.589   1.991   5.094  0.0351  0.2024  0.3048
37815SOL    HW118256  10.672   2.006   5.139  0.4691  0.5299 -0.5777
37815SOL    HW218257  10.523   1.995   5.163  0.4868  2.5116  0.6869
37816SOL     OW18258  12.475   9.704   4.609 -0.2396  0.5344 -0.0422
37816SOL    HW118259  12.411   9.705   4.537 -0.9679  1.3134  0.6043
37816SOL    HW218260  12.423   9.717   4.688  0.7841  1.7833  0.4568
37817SOL     OW18261   5.427   1.484   0.465  0.0803  0.3326  0.2310
37817SOL    HW118262   5.377   1.402   0.463  1.0539 -0.2736 -0.8033
37817SOL    HW218263   5.456   1.496   0.374  1.9814  0.5276  0.8158
37818SOL     OW18264  11.559   3.460   7.813  0.0279 -0.2342  0.1469
37818SOL    HW118265  11.614   3.533   7.842  0.0028 -0.6678  1.3418
37818SOL    HW218266  11.565   3.396   7.884 -2.6917  0.0534  0.7236
37819SOL     OW18267   7.809   9.719   0.380 -0.1462 -0.2994 -0.3583
37819SOL    HW118268   7.874   9.777   0.420 -0.1166 -0.0163 -0.8162
37819SOL    HW218269   7.751   9.695   0.453 -0.2490  0.4199 -0.1961
37820SOL     OW18270   0.838   2.168   9.967  0.1795  0.0555 -0.4481
37820SOL    HW118271   0.748   2.165   9.937  0.7675 -1.1885 -2.2725
37820SOL    HW218272   0.870   2.078   9.957  1.8661  0.6367 -0.6942
37821SOL     OW18273   8.036   5.699  10.845 -0.0695 -0.5666  0.0281
37821SOL    HW118274   7.991   5.741  10.919 -0.0625 -1.6435  0.6765
37821SOL    HW218275   8.062   5.771  10.788 -0.5564  0.2502  0.8099
37822SOL     OW18276   9.827   5.569   6.519  0.2430 -0.4698  0.4459
37822SOL    HW118277   9.805   5.636   6.585  0.9167  0.6964 -0.4716
37822SOL    HW218278   9.921   5.557   6.529  0.9217  1.7563 -2.0356
37823SOL     OW18279  10.868   9.436   7.796 -0.2931 -0.2481  0.0459
37823SOL    HW118280  10.813   9.380   7.850 -0.7665  0.3148  0.1668
37823SOL    HW218281  10.833   9.524   7.811 -1.4627 -0.2326 -2.3953
37824SOL     OW18282   8.507   9.731  10.203 -0.5555 -0.0333  0.5996
37824SOL    HW118283   8.476   9.802  10.147  0.3005 -0.5525 -0.5702
37824SOL    HW218284   8.571   9.772  10.261  0.4006  0.0627 -0.4932
37825SOL     OW18285   4.853  11.522   4.882  0.2496 -0.2521 -0.0580
37825SOL    HW118286   4.769  11.480   4.897  0.9252 -0.7803  2.8064
37825SOL    HW218287   4.915  11.450   4.872  0.7100  0.0900  0.2335
37826SOL     OW18288   1.148   3.511   0.855  0.8814  0.3819 -0.3020
37826SOL    HW118289   1.098   3.471   0.926  0.7237  1.7002  0.3575
37826SOL    HW218290   1.223   3.551   0.899  0.9848  0.8822 -0.9248
37827SOL     OW18291   5.234  12.147   5.171 -0.1315 -0.4692  0.0732
37827SOL    HW118292   5.198  12.207   5.236 -0.9091 -2.1914  1.3140
37827SOL    HW218293   5.171  12.150   5.099 -1.7579 -1.8948  1.3475
37828SOL     OW18294  12.165   7.487   7.774 -0.3416  0.1891  0.1373
37828SOL    HW118295  12.159   7.475   7.869 -1.3525  1.7692  0.2893
37828SOL    HW218296  12.184   7.580   7.762  0.5630 -0.1340 -1.2028
37829SOL     OW18297   0.089  11.625   8.487  0.6209 -0.2025  0.2932
37829SOL    HW118298   0.074  11.538   8.523  1.8342 -0.7402 -0.4367
37829SOL    HW218299   0.083  11.683   8.563 -0.8363 -0.8155  0.6861
37830SOL     OW18300   7.693   5.512  12.273  0.2456  0.0268  0.0609
37830SOL    HW118301   7.786   5.531  12.261  0.4395 -0.4658  0.7243
37830SOL    HW218302   7.666   5.573  12.342 -0.2548  1.0887 -1.0273
37831SOL     OW18303   9.738   4.594   9.421 -0.0844 -0.3841 -0.1655
37831SOL    HW118304   9.832   4.609   9.431  0.1674 -0.1608 -2.5014
37831SOL    HW218305   9.700   4.636   9.498  1.5498  1.5760 -0.3212
37832SOL     OW18306   5.018   1.676  10.817  0.5583  0.0869 -0.0828
37832SOL    HW118307   5.024   1.771  10.825 -1.7786  0.3385 -0.3670
37832SOL    HW218308   4.965   1.649  10.893  0.9311 -0.9472 -0.1684
37833SOL     OW18309  10.892   8.443   5.695 -0.2230 -0.6431  0.1717
37833SOL    HW118310  10.868   8.428   5.603 -2.4448 -0.4078  0.6711
37833SOL    HW218311  10.939   8.526   5.694  0.1801 -0.8584 -0.7881
37834SOL     OW18312  12.116   8.430   6.053 -0.5087  0.7543  0.2339
37834SOL    HW118313  12.068   8.348   6.064  0.2794  0.3657  0.8963
37834SOL    HW218314  12.206   8.409   6.080 -0.2121  1.7418  0.0611
37835SOL     OW18315   4.996   5.665   2.581 -0.1110 -0.5300 -0.1315
37835SOL    HW118316   4.985   5.630   2.669  0.5445 -2.1681 -0.6632
37835SOL    HW218317   5.090   5.668   2.568 -0.0787  2.0403  0.0623
37836SOL     OW18318   3.865  11.194  12.334  0.0703 -0.1746 -0.2743
37836SOL    HW118319   3.777  11.205  12.298 -0.1182  0.9223  0.4678
37836SOL    HW218320   3.916  11.265  12.296  0.4588 -0.3721 -0.1349
37837SOL     OW18321  11.955   8.243   5.730 -0.4766  0.5130  0.2331
37837SOL    HW118322  11.962   8.214   5.821 -0.4095 -0.4469 -0.0684
37837SOL    HW218323  11.871   8.289   5.727 -1.8521 -1.7830  0.2117
37838SOL     OW18324   0.414   2.160  12.380 -0.0522  0.6323 -0.1617
37838SOL    HW118325   0.324   2.128  12.370 -1.3198  3.6232  0.5499
37838SOL    HW218326   0.457   2.136  12.298 -1.5780 -0.5794 -0.6651
37839SOL     OW18327   5.506   8.251   2.400  0.8983  0.2032  0.0621
37839SOL    HW118328   5.464   8.328   2.361  0.3539 -0.6486 -1.0870
37839SOL    HW218329   5.531   8.197   2.325  0.5963 -1.1013  0.8774
37840SOL     OW18330  12.336   4.257   7.547  0.0701 -0.4140 -0.5593
37840SOL    HW118331  12.346   4.303   7.463 -0.7963 -1.5030 -1.2868
37840SOL    HW218332  12.258   4.202   7.535 -2.2253  1.9463  2.1395
37841SOL     OW18333   2.231   6.752  11.891  0.5476  0.2214  0.5473
37841SOL    HW118334   2.141   6.776  11.911  0.5579  0.8813 -0.1898
37841SOL    HW218335   2.285   6.816  11.939  0.6212  0.1290  0.5897
37842SOL     OW18336   8.862   7.153  11.895  0.1548 -0.2199  0.3754
37842SOL    HW118337   8.769   7.149  11.915 -0.6109  0.9777 -2.4610
37842SOL    HW218338   8.881   7.247  11.889  1.3100 -0.4607  0.0376
37843SOL     OW18339   1.838   5.796   9.511  0.0852 -0.4667 -0.0621
37843SOL    HW118340   1.874   5.739   9.579  1.6545  1.3256  0.6829
37843SOL    HW218341   1.758   5.831   9.550  0.5863 -0.0231  0.5804
37844SOL     OW18342   9.377   8.539   1.235  0.1096  0.0237 -0.7801
37844SOL    HW118343   9.311   8.483   1.275  1.5267  0.0041  1.6901
37844SOL    HW218344   9.380   8.617   1.291  1.7041  0.3157 -1.2203
37845SOL     OW18345   1.163  10.542  11.266  0.2803  0.1616  0.1401
37845SOL    HW118346   1.200  10.615  11.316  2.9925 -0.2248 -1.1313
37845SOL    HW218347   1.159  10.470  11.329 -2.4736  1.2851  1.4212
37846SOL     OW18348   3.249   3.282   5.988  0.0749 -0.1590  0.9621
37846SOL    HW118349   3.154   3.267   5.981  0.5509 -4.0895  0.7891
37846SOL    HW218350   3.266   3.279   6.082  0.2758 -2.1043  0.8990
37847SOL     OW18351   1.488   2.880   7.207 -0.0742 -0.1103  0.0314
37847SOL    HW118352   1.505   2.962   7.253  1.0511 -0.8084  0.9033
37847SOL    HW218353   1.575   2.844   7.190 -0.5115 -0.5305 -1.4670
37848SOL     OW18354   0.367  11.674   1.406  0.1267  0.1002  0.1965
37848SOL    HW118355   0.307  11.628   1.348  0.9343 -0.2381 -0.3713
37848SOL    HW218356   0.321  11.756   1.427  0.9490  1.5658 -3.1758
37849SOL     OW18357   3.319   6.704  11.709  0.0844  0.6192  0.3057
37849SOL    HW118358   3.252   6.773  11.707 -0.4673  0.0829 -0.7886
37849SOL    HW218359   3.329   6.683  11.802 -2.1818 -0.1194  0.4539
37850SOL     OW18360   8.545   3.936   2.717  0.1698  0.3738  1.0052
37850SOL    HW118361   8.595   4.012   2.747  0.0457  1.0131 -0.3264
37850SOL    HW218362   8.460   3.945   2.760 -0.4913  2.0298 -0.4791
37851SOL     OW18363   6.945   8.396   5.818 -0.3127 -0.1418  0.1440
37851SOL    HW118364   6.978   8.328   5.877  0.0583 -0.8244 -0.8206
37851SOL    HW218365   7.000   8.389   5.740 -1.9824 -0.5437 -1.0644
37852SOL     OW18366   7.699   6.845   5.303 -0.2147 -0.4068 -0.2157
37852SOL    HW118367   7.664   6.927   5.270  1.5853  1.6272  2.5378
37852SOL    HW218368   7.641   6.820   5.374  0.9142  0.1649  0.9377
37853SOL     OW18369   4.390   0.676  11.761  0.3024 -0.1372 -0.2840
37853SOL    HW118370   4.415   0.625  11.839 -2.0616 -0.4093  0.3590
37853SOL    HW218371   4.361   0.611  11.698 -0.7984  0.2540 -0.2012
37854SOL     OW18372  11.121   8.214   1.258 -0.1845 -0.0781 -0.1097
37854SOL    HW118373  11.070   8.164   1.194 -0.3816  1.7409 -1.4327
37854SOL    HW218374  11.141   8.150   1.327 -0.7588 -1.8606 -1.5175
37855SOL     OW18375   1.958   7.303   9.663 -0.3835 -0.1551  0.0203
37855SOL    HW118376   1.949   7.226   9.608 -0.4591 -1.0724  1.2738
37855SOL    HW218377   1.874   7.349   9.654 -0.3545 -0.2318 -0.6877
37856SOL     OW18378   2.700   8.671   6.197 -0.2307 -0.3123 -1.0024
37856SOL    HW118379   2.738   8.585   6.181 -0.2751 -0.2700 -1.3409
37856SOL    HW218380   2.660   8.695   6.113 -1.4647 -0.5914 -0.5171
37857SOL     OW18381   4.682   4.065   8.902 -0.0034  0.0664 -0.4300
37857SOL    HW118382   4.623   3.990   8.889 -0.8098  0.8805 -1.6090
37857SOL    HW218383   4.747   4.056   8.833  1.5304 -1.0185  1.0687
37858SOL     OW18384   9.360   2.772   4.670 -0.3644  0.1394 -0.5017
37858SOL    HW118385   9.276   2.808   4.641 -0.8413 -1.1833 -0.8474
37858SOL    HW218386   9.374   2.811   4.756 -0.6406  1.4499 -1.0258
37859SOL     OW18387   2.804   2.134  12.125 -0.1596  0.0432 -0.2815
37859SOL    HW118388   2.762   2.202  12.073  0.3789 -0.8228 -1.8974
37859SOL    HW218389   2.888   2.119  12.082 -1.2954 -3.4592 -1.6163
37860SOL     OW18390   3.455   0.228   9.154 -0.8095 -0.5764 -0.0095
37860SOL    HW118391   3.431   0.320   9.144  0.3005 -0.2011  0.5975
37860SOL    HW218392   3.390   0.192   9.215  0.6188  0.6584  2.3892
37861SOL     OW18393   6.258   7.054   6.141  0.0813 -0.2274 -0.2602
37861SOL    HW118394   6.181   7.086   6.187  1.5629 -0.2890  2.4582
37861SOL    HW218395   6.225   7.026   6.056 -3.2076 -1.7667  1.3474
37862SOL     OW18396  11.625   2.084   3.357  0.1809  0.2523  0.0319
37862SOL    HW118397  11.618   1.997   3.396  0.9904  0.0131 -0.3222
37862SOL    HW218398  11.536   2.117   3.354 -0.5396 -1.6197 -2.2240
37863SOL     OW18399   4.679   7.873   2.576 -0.5563  0.0810 -0.0851
37863SOL    HW118400   4.635   7.799   2.536  0.9972 -0.3929 -0.9984
37863SOL    HW218401   4.660   7.865   2.670 -0.9972 -1.0537 -0.2662
37864SOL     OW18402   3.303   6.062   8.466  0.1593 -0.2680 -0.0846
37864SOL    HW118403   3.398   6.071   8.464  0.3855 -2.1833 -2.5086
37864SOL    HW218404   3.272   6.125   8.401 -0.0377 -1.1174 -0.8252
37865SOL     OW18405  11.877   6.787   5.613 -0.3866  0.4922  0.1899
37865SOL    HW118406  11.810   6.854   5.599  0.8380  1.8807  0.7558
37865SOL    HW218407  11.958   6.825   5.579 -0.1303 -1.8327 -2.1062
37866SOL     OW18408   7.409   2.472   9.910  0.5199 -0.3622 -0.0363
37866SOL    HW118409   7.478   2.485   9.845  0.5475 -0.7817 -0.0932
37866SOL    HW218410   7.450   2.419   9.978  0.8550  1.0649  0.9232
37867SOL     OW18411   9.623   0.473  10.988  0.9055 -0.2279  0.0298
37867SOL    HW118412   9.711   0.479  11.024  0.7062  1.5670  0.3098
37867SOL    HW218413   9.570   0.434  11.058  1.4540 -1.3577 -0.1592
37868SOL     OW18414   1.102   8.372   7.155 -0.3143  0.5577 -0.1229
37868SOL    HW118415   1.065   8.316   7.087  2.0224 -0.1379 -0.9235
37868SOL    HW218416   1.197   8.370   7.139  0.1694  1.7144  2.1514
37869SOL     OW18417  10.798   2.214   4.841  0.3419 -0.0170 -0.2317
37869SOL    HW118418  10.758   2.251   4.762  0.1637 -1.8323 -1.0475
37869SOL    HW218419  10.727   2.167   4.885  0.8402 -0.5734  0.0098
37870SOL     OW18420   5.953   3.684   4.885 -0.2748  0.1600  0.0299
37870SOL    HW118421   5.963   3.652   4.796  2.1137 -0.9050  0.6073
37870SOL    HW218422   5.946   3.779   4.876  1.0304  0.1675 -1.2523
37871SOL     OW18423  12.403   3.377   7.400  0.0219 -0.4333  0.5576
37871SOL    HW118424  12.468   3.324   7.352  0.9222 -0.5133  1.8253
37871SOL    HW218425  12.394   3.333   7.484 -3.6680 -1.9658 -0.4261
37872SOL     OW18426  12.587   9.842   3.886 -0.1555 -0.1853 -0.4764
37872SOL    HW118427  12.532   9.784   3.834  1.2740 -1.2883 -0.7996
37872SOL    HW218428  12.595   9.921   3.833 -1.4389  0.0273 -0.3996
37873SOL     OW18429   5.840  11.861   0.101 -0.5426  0.2570 -0.1480
37873SOL    HW118430   5.835  11.954   0.079 -2.9586  0.5817  1.3152
37873SOL    HW218431   5.777  11.851   0.173  0.0845 -2.4109  0.1174
37874SOL     OW18432   7.018   8.275   0.371  0.3137 -0.3340 -0.4076
37874SOL    HW118433   7.108   8.284   0.403  0.4421 -0.5008 -0.7197
37874SOL    HW218434   7.010   8.183   0.346 -0.5062 -0.7719  1.2926
37875SOL     OW18435   4.090   9.328   2.654 -0.0861  0.3399  0.0409
37875SOL    HW118436   4.096   9.238   2.624 -3.5662  0.1486 -0.4299
37875SOL    HW218437   4.029   9.326   2.727  0.4776  2.2091  0.6238
37876SOL     OW18438  10.082   9.819   1.460  0.2892 -0.0604 -0.0970
37876SOL    HW118439  10.120   9.903   1.485 -3.0154  1.4578  0.3192
37876SOL    HW218440  10.128   9.795   1.379  3.0761  0.7836  1.1348
37877SOL     OW18441  11.910  11.712   1.738 -0.0074 -0.0629  0.0066
37877SOL    HW118442  11.903  11.621   1.767 -1.3868 -0.6352 -1.9343
37877SOL    HW218443  11.999  11.718   1.702  0.2120 -0.5246  0.4420
37878SOL     OW18444   0.695   4.115   4.887 -0.4104  0.5227  0.1590
37878SOL    HW118445   0.768   4.053   4.894 -1.1448 -0.6197 -1.4529
37878SOL    HW218446   0.700   4.169   4.966  2.1151  0.4311  0.1308
37879SOL     OW18447  12.206   8.389   3.815 -0.1915  0.1748 -0.8835
37879SOL    HW118448  12.259   8.465   3.839  0.0077 -0.0280 -0.6802
37879SOL    HW218449  12.116   8.417   3.831 -0.0305 -0.2423  0.9722
37880SOL     OW18450   2.918   5.247   4.043  0.6102 -0.4334  0.5270
37880SOL    HW118451   2.878   5.300   3.974  0.1019  1.0029  1.8620
37880SOL    HW218452   2.859   5.257   4.118 -0.0206 -3.6870  0.6104
37881SOL     OW18453   4.851  12.568   5.243  0.1511  0.5558  0.0959
37881SOL    HW118454   4.784  12.512   5.283 -0.5114  0.7792 -0.6797
37881SOL    HW218455   4.910  12.507   5.199  0.9105  0.3022  1.3959
37882SOL     OW18456   3.318   7.502  11.369  0.7877  0.1759  0.0497
37882SOL    HW118457   3.343   7.591  11.392  2.9577 -0.4484  0.3238
37882SOL    HW218458   3.260   7.475  11.440  1.5097  0.7900  0.8948
37883SOL     OW18459   4.341   6.439   5.244  0.6059  0.1948 -0.7164
37883SOL    HW118460   4.307   6.436   5.334  0.0752  1.0021 -0.8764
37883SOL    HW218461   4.296   6.368   5.199  0.6473 -0.0228 -0.4184
37884SOL     OW18462  11.683  11.684  10.510 -0.2642 -0.3018 -0.4810
37884SOL    HW118463  11.691  11.730  10.594 -1.2420  0.8036 -0.9572
37884SOL    HW218464  11.638  11.747  10.453 -0.8240 -1.5274 -1.4367
37885SOL     OW18465  11.573   1.557   8.659  0.3503  0.1406  0.4242
37885SOL    HW118466  11.501   1.528   8.604  0.3642 -0.8848  0.9201
37885SOL    HW218467  11.580   1.651   8.643  1.6320 -0.3623 -2.8628
37886SOL     OW18468   1.527   1.072   8.771  0.3342  0.0988 -0.5993
37886SOL    HW118469   1.590   1.144   8.764  0.8759 -0.4034 -0.9320
37886SOL    HW218470   1.575   1.001   8.814 -0.4396  0.1987  0.4847
37887SOL     OW18471   6.431   8.050  11.837 -0.2427  0.4940  0.0061
37887SOL    HW118472   6.520   8.070  11.806  0.0513  0.3876  0.7616
37887SOL    HW218473   6.389   8.008  11.762 -0.6606  3.2364 -1.4330
37888SOL     OW18474   6.781   7.355  10.181  0.2541 -0.3267 -0.2306
37888SOL    HW118475   6.826   7.320  10.105 -0.2721 -0.7270 -0.3634
37888SOL    HW218476   6.758   7.445  10.157  0.7301 -0.2153 -0.2671
37889SOL     OW18477   4.072   5.472   4.275  0.5082 -0.1086  0.4818
37889SOL    HW118478   4.094   5.398   4.218  3.2619 -2.7426  4.4811
37889SOL    HW218479   4.143   5.535   4.260 -0.7086  0.9313 -1.3798
37890SOL     OW18480   9.218   6.078   7.146  0.6192  0.6337 -0.1240
37890SOL    HW118481   9.313   6.087   7.134  0.8747 -1.5892 -0.1508
37890SOL    HW218482   9.209   6.029   7.228 -0.4395 -0.5073 -0.8869
37891SOL     OW18483   6.180   1.385   0.551 -0.2891 -0.1388  0.2307
37891SOL    HW118484   6.206   1.440   0.625 -1.5937  0.9242 -0.0414
37891SOL    HW218485   6.091   1.357   0.573 -0.6880  0.1714 -0.8890
37892SOL     OW18486   9.096  12.578  11.698 -0.2941 -0.2234 -0.0848
37892SOL    HW118487   9.010  12.611  11.725  0.3794  0.4927  1.2782
37892SOL    HW218488   9.129  12.531  11.775  1.1990  0.8730 -0.0252
37893SOL     OW18489   1.600   9.457   2.388  0.4314  1.0986 -0.2638
37893SOL    HW118490   1.530   9.435   2.450  1.7098 -0.1021  0.8328
37893SOL    HW218491   1.666   9.501   2.442  0.6296  2.0403 -1.2407
37894SOL     OW18492  12.644   5.912   4.901 -0.6723  0.0259  0.6821
37894SOL    HW118493  12.588   5.840   4.871 -1.7111  0.8513  0.5441
37894SOL    HW218494  12.731   5.874   4.907 -0.8584 -0.8013 -1.0711
37895SOL     OW18495   0.678  12.359  10.276  0.2669  0.1994 -0.2975
37895SOL    HW118496   0.618  12.356  10.351  0.0736  0.3961 -0.4418
37895SOL    HW218497   0.666  12.275  10.232 -0.5505  0.5779 -0.8232
37896SOL     OW18498   1.668   7.429   1.556  0.1627  0.3647 -0.0706
37896SOL    HW118499   1.610   7.377   1.500 -0.6580  1.2488 -0.0591
37896SOL    HW218500   1.683   7.510   1.507 -0.4267  1.0791  0.8888
37897SOL     OW18501   7.446   1.905   2.006 -0.0269 -0.0534 -0.0409
37897SOL    HW118502   7.482   1.912   2.094 -1.3384  0.5487  0.4757
37897SOL    HW218503   7.368   1.960   2.007 -1.7401 -2.3021 -0.6949
37898SOL     OW18504   6.754   8.205   7.817 -0.1788  1.1617  0.0582
37898SOL    HW118505   6.744   8.283   7.872 -0.1219  1.9426 -1.0209
37898SOL    HW218506   6.762   8.239   7.728 -2.6398 -0.1529 -0.7686
37899SOL     OW18507   5.162   0.364   5.976  0.1003 -0.5902  0.3607
37899SOL    HW118508   5.154   0.398   6.066  1.2345  2.6052 -0.6090
37899SOL    HW218509   5.215   0.285   5.985  0.0991 -0.4037  2.5260
37900SOL     OW18510  10.589   0.067   7.986 -0.4982 -0.4648  0.0946
37900SOL    HW118511  10.511   0.037   7.940 -2.0278 -0.5929  2.5981
37900SOL    HW218512  10.584   0.162   7.983  0.1928 -0.4476 -1.1781
37901SOL     OW18513   5.892   5.559  11.576 -0.3530  0.2207 -0.6306
37901SOL    HW118514   5.871   5.530  11.665 -0.8405  0.2326 -0.7388
37901SOL    HW218515   5.880   5.654  11.579  1.3409  0.4473 -0.2487
37902SOL     OW18516   6.010   6.336   1.742  0.2072  0.0885 -0.4540
37902SOL    HW118517   5.930   6.298   1.779 -0.7511  1.5147 -0.9885
37902SOL    HW218518   6.025   6.286   1.662 -0.1986 -0.1183 -0.4069
37903SOL     OW18519   3.278   9.457   1.526  0.1272  0.6662 -0.1825
37903SOL    HW118520   3.344   9.388   1.536  3.0804  3.4591  1.7118
37903SOL    HW218521   3.257   9.457   1.433  0.6330 -2.1600 -0.3871
37904SOL     OW18522   7.053   9.426   7.493  0.1735 -0.0474  0.1423
37904SOL    HW118523   7.038   9.391   7.581  0.1479 -0.2636  0.0522
37904SOL    HW218524   7.142   9.461   7.495  0.0786  0.1797  0.3321
37905SOL     OW18525   9.208   6.666   4.730 -0.0799 -0.2115  0.3204
37905SOL    HW118526   9.268   6.723   4.683 -1.7495  1.7589  0.4712
37905SOL    HW218527   9.250   6.650   4.814  0.1395  1.3623  0.5297
37906SOL     OW18528   4.411  10.356   8.935 -0.4834 -0.0290 -0.1690
37906SOL    HW118529   4.334  10.398   8.974 -0.7856  0.6279 -1.4289
37906SOL    HW218530   4.457  10.426   8.891  0.7892 -0.4472  0.4459
37907SOL     OW18531   1.625   9.160   3.241 -0.1339  0.0082  0.1087
37907SOL    HW118532   1.633   9.250   3.209 -0.8692  0.2241  0.4964
37907SOL    HW218533   1.531   9.146   3.248 -0.2310 -1.9956 -3.2391
37908SOL     OW18534  12.074  10.294   7.950  0.4505 -0.0046 -0.1843
37908SOL    HW118535  12.066  10.225   7.883  1.4989 -1.0382  0.7148
37908SOL    HW218536  12.055  10.249   8.033  0.5698  0.9297  0.3625
37909SOL     OW18537   7.360   3.412   1.801  0.6875  0.1833 -0.5365
37909SOL    HW118538   7.402   3.376   1.879 -3.7006  0.5662  2.3087
37909SOL    HW218539   7.403   3.497   1.788 -0.3218  1.4886  3.4293
37910SOL     OW18540   0.820   3.317   8.124 -0.0673  0.4698  0.4563
37910SOL    HW118541   0.787   3.263   8.052 -1.4638 -0.0921  1.4850
37910SOL    HW218542   0.747   3.373   8.148  1.3457  2.9392 -0.5914
37911SOL     OW18543  11.781   7.568   2.470  0.2535 -0.2579  0.1875
37911SOL    HW118544  11.779   7.663   2.481  1.1940 -0.2788  0.6582
37911SOL    HW218545  11.781   7.534   2.560  0.6053 -0.6839  0.0279
37912SOL     OW18546   8.382   5.174   4.760  0.2390 -0.4770  0.2258
37912SOL    HW118547   8.349   5.257   4.727 -2.1664 -1.5448 -0.2881
37912SOL    HW218548   8.466   5.196   4.801  0.6994  1.8162 -1.7173
37913SOL     OW18549   7.702   0.076   6.740  0.3259  0.0699 -0.2616
37913SOL    HW118550   7.715   0.158   6.787 -1.4060  0.5063 -0.4860
37913SOL    HW218551   7.621   0.088   6.691  0.2816 -1.6040 -0.6802
37914SOL     OW18552   2.176  12.211   3.058  0.0272 -0.1216  0.0359
37914SOL    HW118553   2.126  12.145   3.010  0.4773 -1.9688  1.9250
37914SOL    HW218554   2.160  12.191   3.150  2.0683  0.9251  0.6877
37915SOL     OW18555   2.852   3.513  11.700 -0.0533  0.1920  0.2688
37915SOL    HW118556   2.858   3.593  11.753 -1.5978  0.3707  0.2120
37915SOL    HW218557   2.762   3.512  11.667  0.0546 -1.3653 -0.0685
37916SOL     OW18558   9.601   9.035   7.458  0.0419  0.0036  0.2789
37916SOL    HW118559   9.603   8.949   7.500  1.8880 -0.2413 -0.2221
37916SOL    HW218560   9.603   9.016   7.364  0.0031  0.5870  0.1575
37917SOL     OW18561   2.767   0.092   7.046 -0.1079  0.1797 -0.4743
37917SOL    HW118562   2.681   0.050   7.040  0.1776 -0.3205 -1.0876
37917SOL    HW218563   2.773   0.145   6.967  1.7349 -2.8070 -2.5309
37918SOL     OW18564   6.353  11.309   5.417 -0.3651 -0.4889 -0.1153
37918SOL    HW118565   6.378  11.358   5.496  0.7883 -0.8783 -0.2170
37918SOL    HW218566   6.380  11.219   5.435 -1.5871 -0.9078 -0.3206
37919SOL     OW18567  10.707  11.585   1.595  0.2874 -0.4565 -0.2016
37919SOL    HW118568  10.737  11.657   1.651  2.1339 -0.9033 -0.5696
37919SOL    HW218569  10.728  11.506   1.645  0.7631 -0.8183 -0.9650
37920SOL     OW18570   1.714   7.056   4.091 -0.5122  0.4335 -0.3798
37920SOL    HW118571   1.659   7.058   4.169 -2.8530  0.1504 -1.9094
37920SOL    HW218572   1.754   6.969   4.093 -2.5661 -0.5838 -0.7271
37921SOL     OW18573  10.386   8.956  12.362 -0.0026 -0.2889  0.1538
37921SOL    HW118574  10.387   8.911  12.277  0.9238 -0.8016  0.4244
37921SOL    HW218575  10.301   8.999  12.365  0.3223  0.5695 -1.4795
37922SOL     OW18576   6.080   1.649   2.109  0.3912  0.0967  0.2628
37922SOL    HW118577   6.154   1.621   2.054  0.7625  0.3440  0.6297
37922SOL    HW218578   6.003   1.626   2.058  0.7271  0.0991 -0.2585
37923SOL     OW18579  11.967   2.238   5.301 -0.2159 -0.0243 -0.0293
37923SOL    HW118580  11.916   2.319   5.297  1.0955  0.8232 -0.0115
37923SOL    HW218581  11.935   2.193   5.379  0.0408  1.1703  0.7826
37924SOL     OW18582   7.519  11.017  10.736  0.5352  0.5390  0.1365
37924SOL    HW118583   7.454  10.950  10.713  0.7051  0.1972  0.6544
37924SOL    HW218584   7.567  11.032  10.655  1.9942 -1.5929  0.5430
37925SOL     OW18585   4.880   1.441   4.136  0.1488  0.0438 -0.5087
37925SOL    HW118586   4.807   1.431   4.074  1.4334 -2.6343 -1.7561
37925SOL    HW218587   4.854   1.387   4.212 -0.2848  1.2380  0.2167
37926SOL     OW18588  10.546   5.524  10.347 -0.1176  0.2087 -0.3949
37926SOL    HW118589  10.563   5.442  10.392 -1.2560 -1.3211 -2.5410
37926SOL    HW218590  10.511   5.582  10.414  3.2320 -0.0509  1.7718
37927SOL     OW18591   0.537   3.508   9.980 -0.4629  0.3059  0.8062
37927SOL    HW118592   0.614   3.461  10.011  0.6335 -0.3966 -2.5402
37927SOL    HW218593   0.463   3.454  10.008  0.3097  0.1801  2.7531
37928SOL     OW18594   2.449  11.920   0.429  0.2095  0.0311 -0.1759
37928SOL    HW118595   2.504  11.843   0.411  1.2587  0.4542  1.0529
37928SOL    HW218596   2.416  11.905   0.518 -0.2071  0.6528 -0.2217
37929SOL     OW18597  12.604   2.393   0.786 -0.1313  0.6684 -0.2685
37929SOL    HW118598  12.635   2.339   0.859 -0.9126 -0.7710 -0.9635
37929SOL    HW218599  12.685   2.422   0.743  0.3097  0.3054  0.2875
37930SOL     OW18600   9.479   3.925   8.664 -0.0606  0.9211 -0.1125
37930SOL    HW118601   9.392   3.961   8.649 -0.9762 -0.4294  1.5912
37930SOL    HW218602   9.535   4.002   8.676 -0.5501  1.8662 -3.0998
37931SOL     OW18603   6.399   9.528   1.950 -0.6687  0.0873 -0.2342
37931SOL    HW118604   6.401   9.565   2.039  0.4984  0.2274 -0.2989
37931SOL    HW218605   6.356   9.444   1.960 -0.2904 -0.0276  0.5287
37932SOL     OW18606  11.720   5.389   9.282 -0.4486 -0.2179  0.3659
37932SOL    HW118607  11.756   5.435   9.206 -1.5800  2.3675  1.2752
37932SOL    HW218608  11.727   5.452   9.354  1.6439 -2.9389  2.7935
37933SOL     OW18609   0.120   7.752   7.591 -0.2039 -0.2940  0.7002
37933SOL    HW118610   0.202   7.715   7.558 -0.3131  2.2573 -3.1119
37933SOL    HW218611   0.066   7.675   7.611  1.2858 -2.2067 -1.9125
37934SOL     OW18612   9.434   1.842   5.088  0.3689 -0.8797  0.1821
37934SOL    HW118613   9.503   1.776   5.097  1.3388 -0.0341 -0.8667
37934SOL    HW218614   9.430   1.860   4.994  1.6843  2.1105  0.5795
37935SOL     OW18615   7.105   1.462   6.568 -0.2042 -0.0418  0.1699
37935SOL    HW118616   7.042   1.404   6.612 -1.0613  2.5804  2.7026
37935SOL    HW218617   7.051   1.518   6.512  0.4974 -0.7864 -1.3381
37936SOL     OW18618   0.093   3.461  11.582  0.1886  0.5482 -0.1964
37936SOL    HW118619   0.012   3.499  11.550 -0.4471  0.9128  1.7058
37936SOL    HW218620   0.146   3.445  11.504 -1.2996  1.2543 -1.3754
37937SOL     OW18621   1.788  12.514   9.433 -0.4341  0.4056 -0.2257
37937SOL    HW118622   1.693  12.520   9.440 -0.5386 -0.2318 -0.9607
37937SOL    HW218623   1.821  12.582   9.492 -1.3277  0.1384  0.6129
37938SOL     OW18624   3.618   9.811   1.561 -0.2590  0.4591 -0.0140
37938SOL    HW118625   3.684   9.746   1.588  0.4804  1.7356  1.4159
37938SOL    HW218626   3.669   9.882   1.523 -0.9363  0.8295 -0.2324
37939SOL     OW18627   8.030   3.076   4.561 -0.2925  0.3916  0.0379
37939SOL    HW118628   7.940   3.091   4.588 -0.6032 -0.9513 -0.1879
37939SOL    HW218629   8.072   3.161   4.569 -0.9431  0.5526  2.5066
37940SOL     OW18630   2.051   5.852   8.997 -0.2939 -0.3196 -0.4982
37940SOL    HW118631   2.008   5.930   8.962  1.2663  0.5532 -0.5461
37940SOL    HW218632   2.060   5.794   8.921  0.6960  0.4662 -0.9957
37941SOL     OW18633   4.793   3.852   2.667  0.4479  0.7266 -0.8245
37941SOL    HW118634   4.745   3.859   2.749 -0.8320  0.6987 -1.5414
37941SOL    HW218635   4.829   3.763   2.667 -0.6555  0.2702 -0.8685
37942SOL     OW18636   4.726   7.651   7.398 -0.0541 -0.4438 -0.2852
37942SOL    HW118637   4.648   7.605   7.368 -0.1766 -0.4234 -0.0051
37942SOL    HW218638   4.795   7.625   7.337 -0.2251 -0.6505 -0.3905
37943SOL     OW18639  11.481   5.612   0.622 -0.7180 -0.6325  0.9288
37943SOL    HW118640  11.473   5.518   0.604  0.4542 -0.3778 -1.2469
37943SOL    HW218641  11.561   5.620   0.673  0.0070 -0.7192 -0.1546
37944SOL     OW18642   7.077   8.503  12.534 -0.1526  0.3320  0.4386
37944SOL    HW118643   7.074   8.407  12.543  1.2283  0.3613  1.7985
37944SOL    HW218644   7.120   8.518  12.450 -2.6949 -0.1582 -1.0598
37945SOL     OW18645   4.066   7.575  10.788 -0.0927 -0.4065 -0.0047
37945SOL    HW118646   4.044   7.603  10.877 -0.8092 -1.6717  0.2416
37945SOL    HW218647   4.162   7.571  10.787  0.1380  2.6581 -0.2892
37946SOL     OW18648   0.980  12.374   0.397 -0.0656 -0.0878  0.3959
37946SOL    HW118649   1.033  12.424   0.336  1.4095 -0.2744  1.4627
37946SOL    HW218650   0.931  12.312   0.342  0.5432  0.3425 -0.6499
37947SOL     OW18651   5.040   3.852   1.101  0.0478 -0.1230 -0.0597
37947SOL    HW118652   4.953   3.870   1.138 -1.2428  0.8566 -3.2725
37947SOL    HW218653   5.023   3.810   1.017  2.8044 -2.2185  0.2843
37948SOL     OW18654   9.382  12.352  11.777  0.0501  0.0305 -0.0185
37948SOL    HW118655   9.433  12.430  11.757  0.9213 -0.7120 -0.7830
37948SOL    HW218656   9.331  12.376  11.854 -0.0066  1.4817 -0.4686
37949SOL     OW18657   0.944   4.947   1.341  0.0119  0.1853 -0.4948
37949SOL    HW118658   1.032   4.975   1.364  0.4495  0.2140 -2.0361
37949SOL    HW218659   0.952   4.915   1.251 -1.0415 -2.1705  0.1514
37950SOL     OW18660   3.730   8.135   2.235  0.0209  0.3877  0.3345
37950SOL    HW118661   3.698   8.127   2.325  0.8844  1.0129  0.7169
37950SOL    HW218662   3.823   8.158   2.245  0.3264 -0.3121 -0.7223
37951SOL     OW18663   7.585   8.954   2.014 -0.0191 -0.3364 -0.1919
37951SOL    HW118664   7.617   8.865   2.025  2.4563  0.4567 -0.4197
37951SOL    HW218665   7.606   8.998   2.097  0.2065  0.4398 -0.6503
37952SOL     OW18666   4.249   8.589   4.864 -0.0229  0.8865 -0.8032
37952SOL    HW118667   4.311   8.652   4.828  1.4093  1.6769  2.5854
37952SOL    HW218668   4.294   8.505   4.859  0.2233  1.0120 -0.7057
37953SOL     OW18669   5.665  11.909   4.588 -0.3242 -0.0652 -0.8152
37953SOL    HW118670   5.589  11.860   4.558 -1.6063  0.1241  1.8921
37953SOL    HW218671   5.677  11.882   4.679  1.4819  1.6080 -0.4951
37954SOL     OW18672   6.891   9.637   7.445  0.3468  0.8404 -0.0392
37954SOL    HW118673   6.935   9.555   7.425 -1.7146 -0.9653  2.2716
37954SOL    HW218674   6.957   9.691   7.487  1.8492  0.6174 -1.9855
37955SOL     OW18675   9.871  11.795   5.252 -0.0485 -0.1022 -0.1641
37955SOL    HW118676   9.954  11.791   5.301  0.6944 -0.4529 -1.4095
37955SOL    HW218677   9.809  11.832   5.314  1.1020  0.4096  0.7243
37956SOL     OW18678   5.547  11.413   6.422  0.5117 -0.3895  0.2494
37956SOL    HW118679   5.543  11.397   6.516 -0.1850 -0.5794  0.1935
37956SOL    HW218680   5.482  11.481   6.406  0.9662 -0.0074 -0.0316
37957SOL     OW18681   3.212   4.084   9.310  0.5591  0.1127  0.0727
37957SOL    HW118682   3.143   4.020   9.294  1.0237 -0.5702  0.7502
37957SOL    HW218683   3.185   4.161   9.259  0.1049 -0.6880 -0.9483
37958SOL     OW18684   9.069   7.963   7.878  0.0945 -0.0358  0.0444
37958SOL    HW118685   9.061   8.022   7.953  0.1800  0.6275 -0.4521
37958SOL    HW218686   9.059   7.875   7.915 -0.6763  0.3152  0.7138
37959SOL     OW18687   7.847   0.010   8.189  0.2751 -0.1459  0.7128
37959SOL    HW118688   7.821  -0.082   8.194 -1.0070  0.2316  1.4598
37959SOL    HW218689   7.942   0.008   8.179  0.3699 -1.5398  1.6451
37960SOL     OW18690   2.891   7.179   2.282 -0.1564 -0.3428  0.7070
37960SOL    HW118691   2.807   7.186   2.325  0.0160 -0.8683  1.1449
37960SOL    HW218692   2.871   7.139   2.197 -0.2983 -0.8956  0.9949
37961SOL     OW18693  10.745   1.874  11.776  0.1104  0.1344  0.4682
37961SOL    HW118694  10.778   1.963  11.763 -1.8434  0.9284  0.6625
37961SOL    HW218695  10.806   1.834  11.838  1.8547  0.8119 -0.7439
37962SOL     OW18696   1.387   0.054   1.083  0.5446  0.2258  0.5831
37962SOL    HW118697   1.455   0.086   1.024  0.1852  1.0181  0.5752
37962SOL    HW218698   1.311   0.108   1.063 -0.3457 -1.1845  0.0310
37963SOL     OW18699  11.921   7.890   3.772  0.3211  0.2587  0.4767
37963SOL    HW118700  11.833   7.893   3.811 -0.4582 -1.3698 -1.0042
37963SOL    HW218701  11.936   7.797   3.755  1.3583  0.7317 -1.4424
37964SOL     OW18702   8.355   1.554   0.395 -0.2270  0.1443  0.1321
37964SOL    HW118703   8.406   1.614   0.449 -1.0421 -0.0200  1.1164
37964SOL    HW218704   8.287   1.609   0.357  0.8343  0.4343 -1.4613
37965SOL     OW18705  10.714   2.645   6.109  0.0873 -0.3942 -0.1083
37965SOL    HW118706  10.650   2.709   6.138  0.3553 -0.7936  1.4741
37965SOL    HW218707  10.739   2.673   6.021 -3.4116 -1.1021 -1.5061
37966SOL     OW18708   8.630   9.837   9.209 -0.1505 -0.2148  0.2810
37966SOL    HW118709   8.705   9.890   9.235 -1.5107  1.8821  0.1054
37966SOL    HW218710   8.622   9.851   9.114 -0.8051 -0.3648  0.3100
37967SOL     OW18711   9.468  12.229   7.090  0.2643  0.1448 -0.1249
37967SOL    HW118712   9.445  12.141   7.060 -0.4914  0.2793  0.0386
37967SOL    HW218713   9.429  12.287   7.026  0.6338  0.3673 -0.1497
37968SOL     OW18714   5.135  11.769   4.884 -0.2721  0.2803 -0.2631
37968SOL    HW118715   5.049  11.809   4.888 -0.1437  0.8268 -2.0399
37968SOL    HW218716   5.194  11.841   4.861  0.7536 -0.0048  1.3016
37969SOL     OW18717  11.598   1.044   0.905  0.2045 -0.2104  0.9098
37969SOL    HW118718  11.507   1.063   0.884  0.7589  1.5707 -0.0948
37969SOL    HW218719  11.629   0.990   0.833  0.3593  0.5319  0.4080
37970SOL     OW18720  12.246   9.705   1.602 -0.0163  0.2960 -0.1851
37970SOL    HW118721  12.242   9.687   1.509  2.2252 -1.2988 -0.0537
37970SOL    HW218722  12.275   9.623   1.642  1.8480  1.6710  1.5582
37971SOL     OW18723  10.891   7.893  10.199  0.0818  0.0073 -0.2344
37971SOL    HW118724  10.979   7.862  10.178 -0.4113 -1.3819 -0.3597
37971SOL    HW218725  10.853   7.916  10.115  0.5493  1.3064 -0.1150
37972SOL     OW18726   7.023   3.678   4.492 -0.0511 -0.1602 -0.3654
37972SOL    HW118727   7.095   3.623   4.461 -0.5629 -1.2729  0.3669
37972SOL    HW218728   6.985   3.715   4.413  1.5778  0.7957 -0.7428
37973SOL     OW18729   8.198   9.709   9.458  0.7135 -0.5297 -0.0312
37973SOL    HW118730   8.118   9.730   9.506 -0.1671 -0.8438 -1.3043
37973SOL    HW218731   8.195   9.764   9.380  0.6604 -2.0195 -1.1342
37974SOL     OW18732   7.607   1.366   2.205  0.3463  0.2703  0.1986
37974SOL    HW118733   7.601   1.418   2.125 -0.3876  0.4783  0.3822
37974SOL    HW218734   7.700   1.347   2.214  0.3287 -0.7309 -1.3185
37975SOL     OW18735   0.978   0.669   1.714 -0.0554  0.0034 -0.3511
37975SOL    HW118736   0.945   0.738   1.771  1.6877 -0.9060  1.8993
37975SOL    HW218737   1.070   0.689   1.703  0.3550 -1.6189 -0.1349
37976SOL     OW18738   8.962   5.561   0.907  0.2866 -0.4935 -0.1653
37976SOL    HW118739   8.868   5.549   0.926 -0.0572 -0.2830 -1.5993
37976SOL    HW218740   8.987   5.481   0.860  0.3941  0.1362 -1.2291
37977SOL     OW18741   0.106   6.107  12.573 -0.0393  0.5810 -0.5962
37977SOL    HW118742   0.136   6.040  12.634  0.8451  2.0456  0.6327
37977SOL    HW218743   0.158   6.091  12.494 -0.2820 -0.5436 -0.5474
37978SOL     OW18744   9.149   7.549   6.323  0.2800  0.2886  0.4000
37978SOL    HW118745   9.162   7.638   6.356 -0.4295  0.1929  0.9487
37978SOL    HW218746   9.142   7.494   6.402 -1.5757  0.0755  0.1372
37979SOL     OW18747   1.403   0.270   6.598 -0.1436 -0.4741 -0.5494
37979SOL    HW118748   1.310   0.269   6.578 -0.3861  1.1934  0.3261
37979SOL    HW218749   1.444   0.223   6.525 -1.4107  1.1289 -2.4057
37980SOL     OW18750   3.360   8.451   8.225  0.2256  0.0255  0.7067
37980SOL    HW118751   3.421   8.396   8.274  2.2508  2.1129  0.7225
37980SOL    HW218752   3.355   8.409   8.139  1.0390 -0.6405  0.9653
37981SOL     OW18753   0.768   7.838   1.542 -0.4844  0.1844 -0.5881
37981SOL    HW118754   0.683   7.815   1.580 -1.5447  1.7926 -1.8089
37981SOL    HW218755   0.817   7.875   1.615 -1.4445  0.6757 -0.1634
37982SOL     OW18756   3.495   1.263   1.975 -0.4055 -0.0297 -0.0689
37982SOL    HW118757   3.419   1.208   1.996  1.3739 -1.8674  2.0410
37982SOL    HW218758   3.489   1.335   2.037  0.4507 -1.1202  1.3425
37983SOL     OW18759   7.743   2.251   4.899  0.3085  0.5040  0.3399
37983SOL    HW118760   7.683   2.189   4.941  0.2752  1.2682  1.4886
37983SOL    HW218761   7.826   2.205   4.895  0.2525  0.3245  1.0578
37984SOL     OW18762   5.085   0.536   4.941 -0.5285  0.1753 -0.1908
37984SOL    HW118763   5.091   0.548   5.036 -2.5770  0.2564 -0.0368
37984SOL    HW218764   5.125   0.615   4.904 -3.1051  1.9924  0.6809
37985SOL     OW18765   6.402   3.701   2.028 -0.1230 -0.0833 -0.0593
37985SOL    HW118766   6.363   3.745   2.104 -0.5405 -0.6146  0.0389
37985SOL    HW218767   6.489   3.740   2.020 -0.8847  1.5970 -0.6799
37986SOL     OW18768   0.781   8.458   9.397  0.3135 -0.0875  0.3295
37986SOL    HW118769   0.814   8.508   9.471  1.3744 -0.0569 -0.1488
37986SOL    HW218770   0.786   8.367   9.425 -0.3924 -0.0137  0.7176
37987SOL     OW18771  11.079   1.618  10.889  0.5183  0.2872 -0.9609
37987SOL    HW118772  11.148   1.589  10.829  0.3183  1.3893 -1.7403
37987SOL    HW218773  11.020   1.543  10.894  1.6932 -0.6258 -0.3837
37988SOL     OW18774  10.985   0.621   0.342 -0.0017  0.5075 -0.1580
37988SOL    HW118775  10.948   0.611   0.254  0.4960 -0.7105 -0.2505
37988SOL    HW218776  10.960   0.540   0.387 -0.9004  1.4402  1.0740
37989SOL     OW18777   5.129   8.853   2.638  0.6590  0.0370 -0.0331
37989SOL    HW118778   5.197   8.818   2.696 -0.0371 -0.5128  0.4675
37989SOL    HW218779   5.103   8.935   2.680 -0.8111 -1.0221  1.2232
37990SOL     OW18780   1.687   6.497   2.698  0.3990  0.3851 -0.3551
37990SOL    HW118781   1.723   6.504   2.609  0.9910  2.4820  0.0155
37990SOL    HW218782   1.614   6.558   2.698 -0.1840 -0.2931  0.3615
37991SOL     OW18783  12.016   8.360   8.026 -0.1169  0.1049 -0.9173
37991SOL    HW118784  11.924   8.334   8.025 -0.2269  0.3320  0.6658
37991SOL    HW218785  12.064   8.277   8.019 -0.4054  0.0291 -2.3944
37992SOL     OW18786   5.436   0.439   3.495 -0.5482  0.6681 -0.6653
37992SOL    HW118787   5.394   0.496   3.558  1.5116  2.0258 -0.4281
37992SOL    HW218788   5.398   0.464   3.410 -2.6507 -0.5386 -0.1591
37993SOL     OW18789  12.620   1.423  11.150  0.1440  0.7119  0.2431
37993SOL    HW118790  12.631   1.348  11.091 -0.1802  1.0611 -0.2769
37993SOL    HW218791  12.537   1.463  11.122 -0.5259  0.3157  1.5911
37994SOL     OW18792   8.524   9.865   4.796 -0.2570  0.0559 -0.0109
37994SOL    HW118793   8.553   9.954   4.775 -0.9371 -0.0811 -1.7516
37994SOL    HW218794   8.600   9.823   4.835  1.2123  0.4100 -2.2906
37995SOL     OW18795  12.072   3.169   1.219  0.1473 -0.1063  0.6047
37995SOL    HW118796  12.029   3.168   1.304 -0.3005 -0.2206  0.3793
37995SOL    HW218797  12.162   3.195   1.238 -0.2564  1.0994  0.9772
37996SOL     OW18798   1.373  11.798   1.328 -0.4311  0.6009  0.3478
37996SOL    HW118799   1.327  11.757   1.401 -1.4301  0.5852 -0.2695
37996SOL    HW218800   1.418  11.726   1.284 -2.0365  0.1409 -0.6270
37997SOL     OW18801   8.021   3.650   8.016  0.2627  0.1051  0.1502
37997SOL    HW118802   7.971   3.666   8.096 -0.4876 -0.4982 -0.1814
37997SOL    HW218803   7.975   3.700   7.948  0.0550 -0.5054 -0.1697
37998SOL     OW18804  10.076   2.213   7.376 -0.2880  0.2538 -0.4880
37998SOL    HW118805  10.117   2.155   7.440  1.3336 -0.5135 -2.1270
37998SOL    HW218806  10.140   2.284   7.365 -0.5603  0.3879 -1.2297
37999SOL     OW18807   0.276   6.948  11.229  0.1311  1.0783 -0.0676
37999SOL    HW118808   0.250   7.005  11.302  1.8069 -0.0379  1.4686
37999SOL    HW218809   0.350   6.994  11.188  1.3092  0.1925  1.0058
38000SOL     OW18810  12.061   6.537   1.542  0.0196 -0.6770 -0.2536
38000SOL    HW118811  12.021   6.621   1.521  1.4275 -0.2175 -1.2667
38000SOL    HW218812  12.040   6.523   1.634  0.0220  0.9362  0.0246
38001SOL     OW18813   9.566   0.769   9.443 -0.2536 -0.3905 -0.3934
38001SOL    HW118814   9.524   0.733   9.365  0.0015  2.1697 -1.8093
38001SOL    HW218815   9.660   0.765   9.425 -0.1773 -0.0495 -0.0956
38002SOL     OW18816   8.172   5.900   6.874  0.3156  0.4725 -0.7842
38002SOL    HW118817   8.088   5.917   6.833  1.2463  2.6951 -1.9611
38002SOL    HW218818   8.163   5.937   6.963 -0.0530  0.4146 -0.7959
38003SOL     OW18819   8.295   6.735  12.637  0.0335 -0.1615  0.4398
38003SOL    HW118820   8.295   6.748  12.542  1.6354  0.0524  0.4446
38003SOL    HW218821   8.324   6.819  12.673  0.0361 -0.4365  1.0935
38004SOL     OW18822   8.726   2.745  10.041  0.4188  0.3635 -0.3851
38004SOL    HW118823   8.703   2.806  10.112  0.9069  0.9881 -0.7551
38004SOL    HW218824   8.642   2.709  10.013  0.2200  0.0809  0.5349
38005SOL     OW18825  11.684   0.075   9.990  0.9515 -0.8328 -0.2137
38005SOL    HW118826  11.597   0.091   9.953  0.5919 -1.9741  0.0772
38005SOL    HW218827  11.666   0.044  10.079  1.7597  1.0479  0.6645
38006SOL     OW18828   0.270   7.577   0.447 -0.1085 -0.2635 -0.1769
38006SOL    HW118829   0.263   7.489   0.484 -1.0963 -0.6722 -1.2648
38006SOL    HW218830   0.219   7.573   0.366  1.0593  0.8904 -1.0234
38007SOL     OW18831  12.393   8.446  11.644 -0.1284  0.7699  0.0322
38007SOL    HW118832  12.469   8.396  11.615 -1.2998 -1.1116  0.0804
38007SOL    HW218833  12.358   8.484  11.564  0.5564  1.2506 -0.0521
38008SOL     OW18834  10.642  10.121   5.651  0.3698 -0.1749  0.7226
38008SOL    HW118835  10.591  10.142   5.729 -1.7750  0.3313 -0.7388
38008SOL    HW218836  10.607  10.178   5.583  2.9284  0.1851 -0.4085
38009SOL     OW18837   5.871  11.508   0.454 -0.0275  0.5145  0.5759
38009SOL    HW118838   5.805  11.485   0.388  0.0966  0.9913  0.2771
38009SOL    HW218839   5.900  11.596   0.428 -0.1371  0.7965  1.4013
38010SOL     OW18840   9.129   1.447   7.689  0.5428  0.0132 -0.0043
38010SOL    HW118841   9.223   1.463   7.696  0.2201  1.2266  2.7283
38010SOL    HW218842   9.091   1.534   7.677 -0.2734 -0.4381 -0.8137
38011SOL     OW18843  12.499   4.715   3.428  0.1275  0.3484  0.5247
38011SOL    HW118844  12.588   4.707   3.393  0.6267  1.0933  1.5657
38011SOL    HW218845  12.443   4.709   3.351  1.1752  1.6124 -0.3995
38012SOL     OW18846   5.860   4.254   3.096  0.4495 -0.3231  0.3055
38012SOL    HW118847   5.949   4.284   3.080 -0.5297  2.2899 -0.8607
38012SOL    HW218848   5.829   4.226   3.010 -0.2642  0.1102  0.4129
38013SOL     OW18849   3.014   7.890  12.511  0.7445 -0.3903  0.2932
38013SOL    HW118850   3.043   7.831  12.580  1.0193 -0.3962  0.1746
38013SOL    HW218851   2.935   7.931  12.546  0.8263 -0.4673  0.5700
38014SOL     OW18852  12.248   2.053   1.522  0.4647 -0.4419  0.1655
38014SOL    HW118853  12.205   2.025   1.602  1.1103 -0.3452  0.5512
38014SOL    HW218854  12.288   2.137   1.544  0.0148 -0.0488 -0.4764
38015SOL     OW18855   7.629   9.184   1.104  0.3047 -0.1314 -0.0771
38015SOL    HW118856   7.698   9.250   1.107  1.0331 -0.8243 -0.9066
38015SOL    HW218857   7.616   9.159   1.195 -1.1583  2.2890  0.4853
38016SOL     OW18858   0.238   1.249  11.594  0.7683 -0.1740  0.1959
38016SOL    HW118859   0.296   1.320  11.621  0.5007 -0.7432  2.5088
38016SOL    HW218860   0.296   1.174  11.581  1.0254  0.3545 -2.0364
38017SOL     OW18861   1.890   6.224   0.629 -0.8238 -0.3464  0.1206
38017SOL    HW118862   1.937   6.202   0.709 -0.5683  1.5136  0.5261
38017SOL    HW218863   1.956   6.220   0.560  0.4552  3.6395  0.8826
38018SOL     OW18864   1.754   8.243  10.258 -0.3645 -0.1672 -0.3471
38018SOL    HW118865   1.711   8.159  10.241  0.1545 -0.6313  0.5531
38018SOL    HW218866   1.708   8.278  10.335 -0.0662  0.0109 -0.2496
38019SOL     OW18867   4.553   1.006   7.857 -0.1746  0.2590  0.1221
38019SOL    HW118868   4.475   0.952   7.866 -1.1443  1.5987  0.0663
38019SOL    HW218869   4.609   0.959   7.796 -2.1571  0.5672 -2.0555
38020SOL     OW18870  10.636   6.566   9.081  0.0090 -0.1017  0.3884
38020SOL    HW118871  10.707   6.546   9.020  0.4993 -0.5492  1.0879
38020SOL    HW218872  10.657   6.515   9.159 -1.9597 -1.5999  0.0207
38021SOL     OW18873   9.255   0.016   8.789 -0.1652  0.7111  0.1960
38021SOL    HW118874   9.288  -0.034   8.864  1.5879  2.7658  0.8806
38021SOL    HW218875   9.325   0.011   8.724 -1.0864  0.1306 -0.7958
38022SOL     OW18876   9.109  10.407  11.343  0.2887 -0.3976 -0.1091
38022SOL    HW118877   9.035  10.368  11.296 -1.3377  2.6374 -0.3693
38022SOL    HW218878   9.123  10.350  11.418 -1.8157 -1.5456 -0.5105
38023SOL     OW18879   2.815   7.566   9.979 -0.6907 -0.7322 -0.7664
38023SOL    HW118880   2.750   7.535  10.042  0.3360 -0.4666  0.4728
38023SOL    HW218881   2.820   7.660   9.993 -0.3838 -0.6785 -1.1924
38024SOL     OW18882  11.200  11.454   4.079 -0.0382  0.1136 -0.3260
38024SOL    HW118883  11.275  11.481   4.026  1.4446 -1.7155  0.7410
38024SOL    HW218884  11.210  11.501   4.161 -1.0720  1.1808 -0.7702
38025SOL     OW18885  10.587   4.354   3.824  0.2037 -0.1294  0.2628
38025SOL    HW118886  10.492   4.356   3.816 -0.0162 -3.9797  0.2913
38025SOL    HW218887  10.603   4.344   3.918  0.7245  0.9250  0.3097
38026SOL     OW18888   8.160   9.326  12.172  0.2303 -0.2889  0.3508
38026SOL    HW118889   8.071   9.301  12.149 -0.6714  2.2800  0.7363
38026SOL    HW218890   8.163   9.421  12.159  2.8678 -0.2663  0.5305
38027SOL     OW18891   9.145   4.166   3.012 -0.1178 -0.1225  0.1946
38027SOL    HW118892   9.231   4.144   2.975 -0.3482  0.0875 -0.4894
38027SOL    HW218893   9.083   4.142   2.943 -0.5135  0.8487  0.1965
38028SOL     OW18894   3.622   9.372   2.026  0.3023  0.0446  0.2062
38028SOL    HW118895   3.699   9.428   2.014  0.8877 -0.9233 -0.7097
38028SOL    HW218896   3.657   9.283   2.022 -0.5847 -0.4033  1.8778
38029SOL     OW18897   7.245   4.568   1.215  0.9058 -0.1630 -0.1877
38029SOL    HW118898   7.300   4.589   1.139  3.4994 -2.4620  0.8753
38029SOL    HW218899   7.192   4.494   1.186 -0.5277  1.0096 -0.6888
38030SOL     OW18900   0.088   5.823  11.957 -0.0042 -0.6860  0.1137
38030SOL    HW118901   0.079   5.814  12.052 -1.1754 -0.7364  0.0052
38030SOL    HW218902   0.021   5.887  11.932  2.1730  1.6389 -0.3215
38031SOL     OW18903   9.643   6.531  10.603  0.1969  0.5918 -0.2127
38031SOL    HW118904   9.591   6.555  10.679  0.8948  2.3436 -0.2457
38031SOL    HW218905   9.579   6.504  10.537 -0.4338 -0.6436  0.8557
38032SOL     OW18906   8.239   2.720   7.765  0.2558 -0.2058 -0.1979
38032SOL    HW118907   8.330   2.709   7.737 -0.0427  1.2127 -1.8816
38032SOL    HW218908   8.244   2.782   7.838  0.7000 -0.7500  0.2374
38033SOL     OW18909   0.232   4.609   2.180 -0.5736  0.3852  0.4724
38033SOL    HW118910   0.293   4.676   2.212 -0.9919  1.6430 -1.2135
38033SOL    HW218911   0.247   4.534   2.238  2.4589  0.6739  0.2263
38034SOL     OW18912  10.763   8.972   4.357 -0.1002  0.8247 -0.7264
38034SOL    HW118913  10.729   9.007   4.440 -0.6356 -1.5134  0.1335
38034SOL    HW218914  10.831   8.910   4.384 -0.3252 -0.0125 -2.0116
38035SOL     OW18915   8.653   4.167  11.022 -0.2398 -0.3245 -0.4154
38035SOL    HW118916   8.676   4.235  11.086  1.3066 -0.9804 -0.2272
38035SOL    HW218917   8.596   4.107  11.070  1.8098 -1.4272  0.7688
38036SOL     OW18918   8.724   9.842   4.177  0.2812  0.0509 -0.1688
38036SOL    HW118919   8.662   9.915   4.174 -0.4047 -0.5417 -1.0583
38036SOL    HW218920   8.798   9.875   4.228 -0.3467  1.1017  0.0938
38037SOL     OW18921   2.985   4.217   4.131  0.5439 -0.4171  0.1461
38037SOL    HW118922   3.035   4.259   4.061 -0.4247 -0.0809 -0.3723
38037SOL    HW218923   3.036   4.139   4.153  0.3968 -1.0863 -1.6553
38038SOL     OW18924   5.178   2.347   5.601 -0.0368  0.0695  0.0575
38038SOL    HW118925   5.238   2.329   5.529 -0.2386 -1.3104  0.2205
38038SOL    HW218926   5.099   2.382   5.558  0.6482  1.3783 -0.1946
38039SOL     OW18927  10.078   6.733   9.894 -0.3435  0.1081  0.5060
38039SOL    HW118928  10.062   6.662   9.955 -0.7508 -0.2059  0.0385
38039SOL    HW218929  10.144   6.788   9.937 -0.6812 -0.0645  1.2516
38040SOL     OW18930   4.273  10.478   3.541 -0.3882 -0.0458 -0.0358
38040SOL    HW118931   4.298  10.462   3.631  1.5048  1.3727 -0.2561
38040SOL    HW218932   4.289  10.396   3.495  0.3939 -0.2317  0.5691
38041SOL     OW18933   2.175  12.373  10.437 -0.3417  0.4615  0.2100
38041SOL    HW118934   2.172  12.333  10.524 -0.4353  1.3558  0.6229
38041SOL    HW218935   2.187  12.299  10.378  2.2513  0.0260  1.1598
38042SOL     OW18936   2.792   2.388   9.330  0.2813  0.3497  0.7727
38042SOL    HW118937   2.755   2.432   9.406 -1.2497  2.3858 -1.0185
38042SOL    HW218938   2.772   2.446   9.257  0.3730 -2.1981 -1.4221
38043SOL     OW18939  10.425   6.070  12.182  0.1685  0.3293 -0.2177
38043SOL    HW118940  10.421   6.061  12.277 -1.8464  0.5198 -0.2381
38043SOL    HW218941  10.518   6.072  12.162  0.6459  0.9631  1.8169
38044SOL     OW18942   5.290   6.141   1.343  0.1405  0.6153  0.1072
38044SOL    HW118943   5.253   6.194   1.272 -0.7443  0.5205  0.4885
38044SOL    HW218944   5.318   6.060   1.300  1.3366  1.2951 -0.4462
38045SOL     OW18945   1.751   4.961   1.514  0.7027  0.5893 -0.3657
38045SOL    HW118946   1.677   4.902   1.522 -1.0009  2.5786 -0.5497
38045SOL    HW218947   1.805   4.942   1.591 -1.6134  1.1665  1.5069
38046SOL     OW18948   1.471   7.654   2.036  0.1062  0.4621 -0.3176
38046SOL    HW118949   1.506   7.602   1.964  1.7585  0.6240  0.3155
38046SOL    HW218950   1.491   7.745   2.013 -0.2853  0.5957 -0.1410
38047SOL     OW18951   9.158   6.401   2.679 -0.8900 -0.2783 -0.0319
38047SOL    HW118952   9.248   6.369   2.672 -1.1594 -1.1844  0.4342
38047SOL    HW218953   9.110   6.350   2.614 -1.0933  0.0866 -0.1658
38048SOL     OW18954  11.168  12.230   9.126 -0.5275  0.1634  0.3553
38048SOL    HW118955  11.156  12.135   9.122 -1.5759  0.3267 -2.2257
38048SOL    HW218956  11.096  12.261   9.181 -1.7113 -0.3544 -0.8612
38049SOL     OW18957   7.015   9.191   1.002 -0.0110 -0.3685  0.7327
38049SOL    HW118958   6.925   9.177   1.030  1.0853 -2.7555  3.5459
38049SOL    HW218959   7.060   9.225   1.079  2.1097 -2.2455  0.4474
38050SOL     OW18960   3.084  10.942   0.229 -0.0382 -0.0094  0.1905
38050SOL    HW118961   3.133  11.018   0.198  0.7829 -0.2027  0.9743
38050SOL    HW218962   3.048  10.971   0.314  0.3196 -0.5128  0.5134
38051SOL     OW18963   1.717   1.397   7.720  0.5847 -0.5267 -0.3217
38051SOL    HW118964   1.711   1.308   7.755  0.9018  0.1026  1.3997
38051SOL    HW218965   1.633   1.437   7.741  0.1425 -0.6109 -1.7761
38052SOL     OW18966   8.647   8.588  11.689  0.5859 -0.2926  0.1142
38052SOL    HW118967   8.735   8.550  11.694  0.5764 -0.1544  2.0743
38052SOL    HW218968   8.589   8.519  11.719  0.0747 -0.1886 -0.6143
38053SOL     OW18969   2.765  10.991   6.752  0.3587 -0.1065  0.7973
38053SOL    HW118970   2.815  11.043   6.690  0.7800  0.7124  1.7833
38053SOL    HW218971   2.694  10.953   6.701  0.9266  0.2076 -0.2500
38054SOL     OW18972   6.221   2.621   8.387 -0.0199 -0.8690  0.1549
38054SOL    HW118973   6.310   2.657   8.396 -0.2914 -0.0691 -0.2417
38054SOL    HW218974   6.232   2.527   8.397  0.9353 -0.8160 -0.2731
38055SOL     OW18975  12.488   9.657   3.732  0.0641 -0.2579 -0.5954
38055SOL    HW118976  12.392   9.656   3.730  0.0543  0.8706 -1.6879
38055SOL    HW218977  12.514   9.601   3.659  0.2926 -1.6947  0.5204
38056SOL     OW18978   0.093   0.387   3.778  0.3955  0.1551  0.0365
38056SOL    HW118979   0.008   0.419   3.805  0.4590  0.6856 -0.3680
38056SOL    HW218980   0.152   0.461   3.790  0.8089 -0.2102  0.3306
38057SOL     OW18981  10.679   8.641   6.305 -0.5085  0.3991  0.1579
38057SOL    HW118982  10.774   8.638   6.288 -0.5944 -0.4185 -0.2834
38057SOL    HW218983  10.670   8.687   6.388  0.4233 -1.1236  1.1511
38058SOL     OW18984   6.089  12.078   5.737  0.0519 -0.6126  0.5664
38058SOL    HW118985   6.101  11.983   5.730 -0.4899 -0.7293  1.1046
38058SOL    HW218986   6.119  12.100   5.825  2.6365  0.1379 -0.4151
38059SOL     OW18987   0.461  12.417   2.014  0.5063  0.2663 -0.6982
38059SOL    HW118988   0.502  12.446   1.933  1.8725 -0.1080 -0.1724
38059SOL    HW218989   0.471  12.321   2.013  1.2077  0.3182  0.2431
38060SOL     OW18990   8.662   5.772   3.829 -0.0586 -0.6012 -0.7236
38060SOL    HW118991   8.724   5.837   3.796 -0.1625 -0.9979 -1.7298
38060SOL    HW218992   8.577   5.816   3.826  0.0189 -0.4185 -0.3496
38061SOL     OW18993   9.953   0.492  10.162 -0.0548  0.5296 -0.7559
38061SOL    HW118994   9.949   0.474  10.068  1.3843  1.6269 -1.0727
38061SOL    HW218995  10.044   0.516  10.177 -0.4960  1.3808  0.7300
38062SOL     OW18996   2.209  11.349   9.022  0.4666 -0.2067  0.1028
38062SOL    HW118997   2.246  11.285   9.083  1.7285  0.9925  0.6390
38062SOL    HW218998   2.273  11.355   8.952  0.2199  0.2663 -0.0805
38063SOL     OW18999   6.540   9.061   3.400  0.0238 -0.8408  0.1778
38063SOL    HW119000   6.633   9.081   3.384 -0.2202 -0.3584 -0.7095
38063SOL    HW219001   6.496   9.088   3.319 -0.9306 -0.8283  0.6951
38064SOL     OW19002   6.506   7.531  10.705 -0.3842 -0.3459 -0.4421
38064SOL    HW119003   6.496   7.529  10.800  0.2080 -2.6486 -0.3766
38064SOL    HW219004   6.499   7.624  10.683 -0.1458  0.3019  1.8808
38065SOL     OW19005   5.920   3.196   3.095 -0.5381 -0.1447  0.0815
38065SOL    HW119006   5.843   3.141   3.105  0.4536 -1.4620  0.8488
38065SOL    HW219007   5.970   3.181   3.175  0.7754  0.2424 -0.6389
38066SOL     OW19008   8.308   3.826   1.690 -0.8132  0.3376  0.1655
38066SOL    HW119009   8.311   3.749   1.634 -0.2164  0.4053  0.0994
38066SOL    HW219010   8.312   3.900   1.630 -1.7438  0.4303  0.2063
38067SOL     OW19011   0.466   8.668   2.913 -0.1220 -0.4453 -0.7084
38067SOL    HW119012   0.409   8.595   2.889 -0.9889  0.7099 -2.3692
38067SOL    HW219013   0.409   8.727   2.963 -0.2993  0.4683 -1.9293
38068SOL     OW19014   2.592   2.423   5.876  0.0783  0.1977  0.3888
38068SOL    HW119015   2.525   2.487   5.902 -1.1024 -0.7389 -0.2108
38068SOL    HW219016   2.541   2.348   5.845  1.4337 -0.7931  0.5145
38069SOL     OW19017  10.357   2.836   7.029 -0.5026 -0.1754  0.2444
38069SOL    HW119018  10.433   2.884   6.996 -1.5208  1.6336  0.4311
38069SOL    HW219019  10.388   2.796   7.110  0.2535  0.5777  0.3477
38070SOL     OW19020   0.439   0.565   5.711 -0.3369  0.3030  0.1664
38070SOL    HW119021   0.375   0.539   5.644  1.8688 -1.1317 -1.5164
38070SOL    HW219022   0.524   0.558   5.667  1.0191  2.1375  2.3100
38071SOL     OW19023   4.558   8.417   6.013 -0.0997  0.4711 -0.4151
38071SOL    HW119024   4.503   8.350   6.054  0.2984 -0.6993 -1.7283
38071SOL    HW219025   4.503   8.452   5.942  0.3666  0.2154 -0.9071
38072SOL     OW19026   1.652   2.234   8.924  0.2961 -0.0282  0.1132
38072SOL    HW119027   1.730   2.232   8.980  1.6240  4.8433 -1.0803
38072SOL    HW219028   1.579   2.230   8.986  1.6084  0.2505  1.7805
38073SOL     OW19029   3.376   9.256   5.631  0.1249  0.4210  0.3823
38073SOL    HW119030   3.341   9.344   5.613  1.0722  0.9866  1.2505
38073SOL    HW219031   3.378   9.250   5.726 -2.7690 -1.7169  0.4616
38074SOL     OW19032   2.345   6.029   1.184 -0.2518 -0.0566 -0.3424
38074SOL    HW119033   2.276   6.062   1.127 -2.8944 -2.3547  1.2671
38074SOL    HW219034   2.391   5.964   1.131  0.3295  1.0555 -1.2342
38075SOL     OW19035   6.171   5.441   2.911 -0.4175 -0.1073 -0.1602
38075SOL    HW119036   6.171   5.367   2.851 -1.8605  0.4911 -0.9564
38075SOL    HW219037   6.242   5.498   2.881 -0.8482 -0.0239 -1.0419
38076SOL     OW19038   2.195   0.248   0.872  0.2611  0.1771 -0.2246
38076SOL    HW119039   2.266   0.188   0.852 -0.7291 -1.8851  1.9362
38076SOL    HW219040   2.236   0.318   0.924  1.0049  0.0732 -0.6595
38077SOL     OW19041   9.291  12.247   3.391  0.1560  0.3676 -0.3321
38077SOL    HW119042   9.350  12.268   3.319  1.4311  0.1968  0.6150
38077SOL    HW219043   9.338  12.277   3.469 -0.3501 -1.1042  0.5796
38078SOL     OW19044   6.877   5.404   6.329  0.2775  0.0143 -0.0284
38078SOL    HW119045   6.958   5.393   6.280 -0.7414 -0.3464 -1.7354
38078SOL    HW219046   6.839   5.316   6.332  1.6751 -0.6815  4.1271
38079SOL     OW19047  11.432   7.441   2.034 -0.0732  0.7418 -0.5984
38079SOL    HW119048  11.347   7.482   2.021 -0.3839  0.7178  1.1340
38079SOL    HW219049  11.496   7.510   2.014 -0.5104  1.0314 -1.0072
38080SOL     OW19050   2.898   1.092   0.351  0.1545 -0.2601 -0.6129
38080SOL    HW119051   2.946   1.009   0.345  2.0840  0.7960 -0.3049
38080SOL    HW219052   2.867   1.095   0.442  2.0187  0.3501  0.0358
38081SOL     OW19053  10.533  12.387   3.378 -0.0745 -0.0523  0.1408
38081SOL    HW119054  10.501  12.301   3.405 -1.6316  0.1464 -0.9182
38081SOL    HW219055  10.572  12.373   3.292  1.5772 -0.0418  0.8551
38082SOL     OW19056   6.497   6.543  10.620  0.0082 -0.1355  0.0150
38082SOL    HW119057   6.559   6.554  10.548  0.6452 -2.1919  0.1798
38082SOL    HW219058   6.426   6.490  10.583 -1.0604  1.1247  0.1793
38083SOL     OW19059   9.079   4.188   8.333  0.3192 -0.2049  0.2594
38083SOL    HW119060   9.073   4.283   8.345 -1.7454 -0.1013 -1.1795
38083SOL    HW219061   9.147   4.161   8.395  1.9433  2.3662 -0.2345
38084SOL     OW19062   7.887   0.477   4.403  0.6085 -0.0463 -0.0385
38084SOL    HW119063   7.873   0.383   4.395  0.5716  0.0785 -1.6673
38084SOL    HW219064   7.981   0.486   4.421  0.7413 -0.3640 -0.5664
38085SOL     OW19065   0.643   6.548   0.704 -0.3201 -0.1302  0.1583
38085SOL    HW119066   0.620   6.465   0.662 -1.2180  0.7199 -1.0874
38085SOL    HW219067   0.578   6.558   0.774 -0.0794 -0.5699  0.4471
38086SOL     OW19068   9.625   3.381   4.487 -0.0061 -0.5501 -1.1874
38086SOL    HW119069   9.642   3.306   4.429 -0.8369 -1.0993 -0.7364
38086SOL    HW219070   9.591   3.449   4.429 -0.0225 -0.8040 -1.4760
38087SOL     OW19071   1.171   9.957   7.493 -0.5032  0.6577 -0.8004
38087SOL    HW119072   1.221   9.889   7.537  1.0325  1.1171 -1.7305
38087SOL    HW219073   1.140  10.014   7.564  1.1256  0.8706 -0.2024
38088SOL     OW19074   8.218   6.263  10.602 -0.4096 -0.1685  0.3870
38088SOL    HW119075   8.295   6.320  10.603 -0.8688  0.4988 -0.8185
38088SOL    HW219076   8.233   6.201  10.674  0.6176  0.7792  1.0148
38089SOL     OW19077   6.403   7.673   1.604 -0.1377  0.0199  0.0850
38089SOL    HW119078   6.347   7.615   1.656 -0.1651  0.1611  0.2140
38089SOL    HW219079   6.397   7.638   1.515  1.7100 -1.6315  0.5257
38090SOL     OW19080   6.769   1.778   3.913 -0.3248  0.5982  0.1659
38090SOL    HW119081   6.797   1.749   3.826  0.9751 -0.4655  0.9149
38090SOL    HW219082   6.796   1.870   3.918 -1.9702  1.2173 -1.1670
38091SOL     OW19083   0.403  11.244   7.393 -0.4210 -0.8850 -0.3400
38091SOL    HW119084   0.404  11.338   7.379 -0.0307 -0.7230  0.6710
38091SOL    HW219085   0.358  11.233   7.477  1.2202 -1.4521  0.5012
38092SOL     OW19086   1.397   0.673   7.751  0.1872 -0.5621  0.2854
38092SOL    HW119087   1.321   0.705   7.701  0.2263  0.9016  1.1163
38092SOL    HW219088   1.455   0.749   7.758  1.6745 -1.6100 -0.1776
38093SOL     OW19089   7.469   6.659   6.564 -0.2246 -0.2235  0.1965
38093SOL    HW119090   7.476   6.711   6.644  0.1805  0.1731 -0.0969
38093SOL    HW219091   7.423   6.579   6.592  0.5648 -0.4202  0.9781
38094SOL     OW19092   8.664   3.948   7.940  0.3327  0.3269  0.6609
38094SOL    HW119093   8.746   3.903   7.961  0.6392  0.5126 -0.1168
38094SOL    HW219094   8.596   3.891   7.977  0.7169 -0.7145 -0.1677
38095SOL     OW19095   5.432   6.544   2.945  0.8106 -0.0123 -0.4594
38095SOL    HW119096   5.382   6.517   2.868  0.0381  0.6464 -0.1922
38095SOL    HW219097   5.482   6.620   2.915  0.4973  0.2541 -0.3100
38096SOL     OW19098   9.928   5.358   1.548  0.2911 -0.2483  0.0592
38096SOL    HW119099   9.834   5.377   1.547  0.2619 -0.2707 -1.9440
38096SOL    HW219100   9.960   5.397   1.629 -1.4354 -0.2160  0.7622
38097SOL     OW19101   6.968  12.255   3.808 -0.0979 -0.0153 -0.1338
38097SOL    HW119102   7.050  12.293   3.777 -0.3631  0.5165 -0.1871
38097SOL    HW219103   6.973  12.163   3.781  0.2259  0.1488 -0.6517
38098SOL     OW19104   9.375   5.437   3.219 -0.3597  0.7568  0.0317
38098SOL    HW119105   9.453   5.462   3.169  0.5383  1.6579  1.8001
38098SOL    HW219106   9.303   5.452   3.158  0.8106 -0.0279 -1.6346
38099SOL     OW19107   1.785   2.438   6.407 -0.0614  0.2565 -0.9141
38099SOL    HW119108   1.713   2.445   6.469  0.0944 -0.4513 -0.6438
38099SOL    HW219109   1.780   2.519   6.355 -1.3879 -0.0242 -1.2641
38100SOL     OW19110   1.376   0.045   9.943  0.3661  0.6103 -0.1450
38100SOL    HW119111   1.364  -0.020   9.874  0.7552 -0.0622  0.4123
38100SOL    HW219112   1.464   0.080   9.928  0.6547  0.0937  0.3098
38101SOL     OW19113   8.663   6.059   0.111 -0.0654 -0.3239  0.2198
38101SOL    HW119114   8.597   6.120   0.145 -1.1074  0.3038 -2.6305
38101SOL    HW219115   8.693   6.100   0.030  0.3907 -2.8465 -0.9831
38102SOL     OW19116   8.337  10.529   7.750 -0.1964  0.1723 -0.5690
38102SOL    HW119117   8.342  10.613   7.795  0.1373  0.4593 -1.1363
38102SOL    HW219118   8.263  10.484   7.791 -0.9598  1.1177 -0.8868
38103SOL     OW19119   0.953   9.701   0.737  0.1288 -0.2278 -0.4020
38103SOL    HW119120   0.887   9.639   0.707 -0.9192  0.0509  1.2135
38103SOL    HW219121   0.905   9.783   0.752  0.8744  0.0727  0.4948
38104SOL     OW19122   1.056  12.141   7.285 -0.4305 -0.5965  0.3339
38104SOL    HW119123   1.145  12.115   7.259 -0.6789 -0.1123 -1.0749
38104SOL    HW219124   1.014  12.168   7.204 -1.2497  1.0224  1.2531
38105SOL     OW19125   5.245   4.363   2.946  0.1887  0.4957 -0.1828
38105SOL    HW119126   5.222   4.348   2.854  0.2845 -0.3492 -0.0824
38105SOL    HW219127   5.315   4.300   2.963  1.1039  1.5583  0.1067
38106SOL     OW19128   9.835   6.343   3.003 -0.1339  0.7549 -0.5670
38106SOL    HW119129   9.788   6.414   3.046  0.2030  1.0244 -0.6377
38106SOL    HW219130   9.816   6.355   2.910  0.3158  1.0423 -0.6221
38107SOL     OW19131   2.388   6.500   2.091 -0.0913 -0.0589 -0.0103
38107SOL    HW119132   2.328   6.479   2.019  0.6063 -0.0848 -0.6025
38107SOL    HW219133   2.370   6.592   2.110  0.9847  0.5068 -1.5012
38108SOL     OW19134  11.983   7.629  12.447  0.0395 -0.1275  0.4023
38108SOL    HW119135  11.920   7.688  12.488 -0.6016 -0.2340 -0.3928
38108SOL    HW219136  12.065   7.646  12.493 -0.3211  0.7874  0.7412
38109SOL     OW19137   3.060   3.380   1.668 -0.0876 -0.3488  0.3540
38109SOL    HW119138   3.108   3.428   1.599 -0.6966  1.9806  1.4451
38109SOL    HW219139   3.123   3.318   1.703  0.8719 -0.1258 -0.9169
38110SOL     OW19140   4.802   0.544   9.218  0.5267 -0.0781  0.1049
38110SOL    HW119141   4.730   0.495   9.177  0.0110 -0.9873  2.0033
38110SOL    HW219142   4.880   0.513   9.172 -0.0537 -0.8863 -0.3623
38111SOL     OW19143   7.234   3.130   8.313  0.0599 -0.0553 -0.2082
38111SOL    HW119144   7.215   3.213   8.269  0.1070 -0.6894 -1.4841
38111SOL    HW219145   7.151   3.105   8.353 -0.0266  0.4722 -0.0541
38112SOL     OW19146  11.970   0.145   4.631  0.2232 -0.0009  0.5877
38112SOL    HW119147  11.990   0.111   4.544 -1.1555  2.3806 -0.7946
38112SOL    HW219148  12.035   0.214   4.645  0.4902 -0.4259  1.5113
38113SOL     OW19149   7.246  10.990   1.671 -0.1581  0.3113 -0.2140
38113SOL    HW119150   7.289  10.940   1.602 -0.0903 -0.8246  0.6251
38113SOL    HW219151   7.282  10.954   1.752  0.8844  2.5916  0.4388
38114SOL     OW19152   0.640   2.870   6.987  0.2426  0.2439 -0.0490
38114SOL    HW119153   0.556   2.894   7.025 -0.3913 -1.7803 -0.0302
38114SOL    HW219154   0.685   2.823   7.058  1.0854  0.6652 -0.2919
38115SOL     OW19155   0.984   9.665   1.003 -0.8138 -0.8730 -0.2482
38115SOL    HW119156   1.043   9.589   1.006  0.8524  0.3962  1.1740
38115SOL    HW219157   0.979   9.688   0.910  2.5678  0.0970 -0.3187
38116SOL     OW19158  10.404   6.867   5.100 -0.5074  0.5035 -0.5385
38116SOL    HW119159  10.449   6.938   5.147  0.4907 -0.0412 -0.6379
38116SOL    HW219160  10.340   6.834   5.162 -1.1443  1.6428 -0.5738
38117SOL     OW19161   9.448  10.281   8.250 -0.2211  0.0606 -0.2271
38117SOL    HW119162   9.471  10.373   8.233  1.3197 -0.1155  0.6870
38117SOL    HW219163   9.429  10.279   8.344  1.3590 -0.8497  0.0959
38118SOL     OW19164  12.395   5.920   0.657  0.2791  0.2867  0.0284
38118SOL    HW119165  12.378   5.853   0.723 -0.5115 -0.4595 -0.8983
38118SOL    HW219166  12.489   5.937   0.664  0.6372 -1.4289 -0.1670
38119SOL     OW19167   1.347   2.761   0.373 -0.4343  0.3397  0.4181
38119SOL    HW119168   1.357   2.801   0.286 -1.4998 -1.2104 -0.4693
38119SOL    HW219169   1.425   2.707   0.383 -1.1437 -0.8948 -0.4126
38120SOL     OW19170   6.967   1.622   0.679  0.6136  0.0398 -0.0047
38120SOL    HW119171   6.986   1.543   0.628  0.2104  0.2975 -0.5657
38120SOL    HW219172   6.958   1.691   0.613  0.1829  0.4016  0.4287
38121SOL     OW19173   2.097   5.396   0.473  0.3737  0.1979  0.0020
38121SOL    HW119174   2.184   5.360   0.490 -0.2468 -1.1443  0.5119
38121SOL    HW219175   2.052   5.327   0.424 -0.4503  0.8190 -0.1328
38122SOL     OW19176   8.583   8.249   4.997  0.1961 -0.1911  0.0881
38122SOL    HW119177   8.546   8.248   5.086 -2.4410 -3.6587 -0.8119
38122SOL    HW219178   8.651   8.182   4.999 -0.8674 -1.3278 -0.8021
38123SOL     OW19179   5.626  11.136  10.155  0.0675 -0.2257 -0.0949
38123SOL    HW119180   5.704  11.165  10.108  1.2962 -1.1477  1.2827
38123SOL    HW219181   5.646  11.149  10.247 -1.0542 -1.3210  0.3420
38124SOL     OW19182   5.845   0.720   0.800  0.5358 -0.2378  0.0803
38124SOL    HW119183   5.827   0.707   0.893 -0.2439 -1.2685 -0.1946
38124SOL    HW219184   5.925   0.670   0.783  1.0801  0.5355  0.3378
38125SOL     OW19185   2.136  11.811  12.089 -0.5036  0.2714 -0.1115
38125SOL    HW119186   2.105  11.901  12.081  1.0167  0.7822 -0.6135
38125SOL    HW219187   2.187  11.810  12.169  0.8215  0.2999 -0.9236
38126SOL     OW19188  11.934   4.582  10.732 -1.0308 -0.6535  0.6454
38126SOL    HW119189  11.904   4.501  10.690  0.3249 -0.4363 -0.8334
38126SOL    HW219190  12.028   4.584  10.714 -1.0077  1.1276  0.8682
38127SOL     OW19191   5.593   7.298   2.838 -0.5077  0.0639 -0.1378
38127SOL    HW119192   5.573   7.216   2.792 -1.3126  0.0423  0.2328
38127SOL    HW219193   5.514   7.351   2.826  0.0866  0.8736 -0.5537
38128SOL     OW19194   4.177   6.089   7.105  0.2776  0.0209 -0.6280
38128SOL    HW119195   4.220   6.173   7.090  0.9791 -0.0756  0.7091
38128SOL    HW219196   4.249   6.027   7.115 -0.2329 -0.6735 -1.1516
38129SOL     OW19197   8.335  10.298   9.584  0.0031 -0.0705 -0.2098
38129SOL    HW119198   8.383  10.360   9.529 -0.3022  0.6588  0.3191
38129SOL    HW219199   8.354  10.326   9.674  0.2487 -1.0485  0.0623
38130SOL     OW19200  10.387   6.717  10.014 -0.1671 -0.6505 -0.3092
38130SOL    HW119201  10.325   6.697  10.084 -0.5211 -0.2594 -0.5077
38130SOL    HW219202  10.472   6.695  10.050 -0.4286 -1.2763 -0.0648
38131SOL     OW19203   2.642   8.749  10.621 -0.4815  0.0120 -0.1877
38131SOL    HW119204   2.720   8.723  10.571 -1.8508 -1.9476 -1.4464
38131SOL    HW219205   2.642   8.689  10.696  1.1332  2.4294  1.9326
38132SOL     OW19206  12.586  11.572   0.028 -0.0540 -0.8027 -0.4494
38132SOL    HW119207  12.497  11.552   0.001 -0.1024 -0.8907 -0.2259
38132SOL    HW219208  12.626  11.487   0.043  0.1338 -0.7733 -0.7554
38133SOL     OW19209   2.043   2.114   3.856  0.0930 -0.1300  0.4503
38133SOL    HW119210   2.054   2.027   3.819 -0.8654 -0.9860  2.0647
38133SOL    HW219211   1.950   2.135   3.842  0.0334  0.1033  1.1575
38134SOL     OW19212   6.601   2.191  11.925  0.6202  0.3304  0.0124
38134SOL    HW119213   6.565   2.126  11.985 -0.6898  0.7463 -0.2688
38134SOL    HW219214   6.598   2.149  11.839  0.8042  0.3701 -0.0137
38135SOL     OW19215   1.296   6.142   9.855  0.0390 -0.4498  0.0344
38135SOL    HW119216   1.289   6.074   9.921 -1.9951  0.1987  0.5326
38135SOL    HW219217   1.214   6.139   9.807  0.1024  1.3053 -0.2694
38136SOL     OW19218   2.980   6.985   5.231 -0.0821  0.0067  0.0313
38136SOL    HW119219   2.927   6.923   5.180  0.1757  0.5355 -0.9191
38136SOL    HW219220   3.010   6.934   5.306 -3.1552  0.0998  1.4527
38137SOL     OW19221   7.699   0.097   7.613 -0.3981  0.2089  0.4761
38137SOL    HW119222   7.787   0.068   7.590 -0.6683 -0.6238  0.4487
38137SOL    HW219223   7.697   0.097   7.708 -0.6905 -0.8567  0.4897
38138SOL     OW19224   9.311   4.647   2.403  0.6306 -0.0279 -0.2060
38138SOL    HW119225   9.234   4.611   2.360  1.9096 -2.5347 -0.5576
38138SOL    HW219226   9.279   4.676   2.489 -0.5769 -1.9658  0.0686
38139SOL     OW19227  12.602  11.564  10.906 -0.1820 -0.5488  0.1863
38139SOL    HW119228  12.587  11.649  10.947  0.1857 -0.3304 -0.1297
38139SOL    HW219229  12.612  11.503  10.980 -1.0603 -0.4339  0.4075
38140SOL     OW19230   6.299   9.881   6.234  0.2473  0.1886  0.2288
38140SOL    HW119231   6.379   9.926   6.262 -0.1726  0.3940  1.1349
38140SOL    HW219232   6.258   9.852   6.316  1.1004 -2.9581 -0.3116
38141SOL     OW19233   5.451   9.191   1.690  0.2953 -0.7293 -0.2651
38141SOL    HW119234   5.425   9.117   1.635 -3.0894 -0.0373  0.1503
38141SOL    HW219235   5.508   9.152   1.756  0.1488 -2.5863 -1.1490
38142SOL     OW19236   7.105   5.207  12.376 -0.0529  0.5316  0.0496
38142SOL    HW119237   7.141   5.211  12.287  0.3377  0.4430  0.2029
38142SOL    HW219238   7.037   5.140  12.372  0.3211  0.1542 -0.0566
38143SOL     OW19239   3.797   6.100   0.554 -0.1982 -0.0883  0.3761
38143SOL    HW119240   3.871   6.044   0.576 -0.4202 -1.0820 -1.1963
38143SOL    HW219241   3.724   6.065   0.605 -0.0960 -0.5834  0.1883
38144SOL     OW19242   8.243   4.218   0.619  0.4855 -0.4219  0.2460
38144SOL    HW119243   8.283   4.296   0.581  0.4063 -0.1832  0.6478
38144SOL    HW219244   8.291   4.145   0.581  0.8654 -0.1619  0.2249
38145SOL     OW19245  11.535   7.650   5.189  0.4646 -0.2839 -0.5232
38145SOL    HW119246  11.559   7.563   5.155 -2.7768 -1.2538 -0.6610
38145SOL    HW219247  11.537   7.639   5.284  0.6167 -0.3257 -0.5303
38146SOL     OW19248  12.163   5.529   1.384  0.3518  0.4981 -0.5426
38146SOL    HW119249  12.234   5.592   1.399  0.1788  0.3709  0.9486
38146SOL    HW219250  12.169   5.468   1.458 -0.7193 -0.0752 -0.9049
38147SOL     OW19251   4.298   2.962   0.772  0.1658  0.1383 -0.2826
38147SOL    HW119252   4.264   3.014   0.845  1.3482 -0.6448  0.8844
38147SOL    HW219253   4.332   3.027   0.711 -2.5280  0.8883 -1.0787
38148SOL     OW19254   6.337   6.123  11.676  0.3021  0.0711 -0.1286
38148SOL    HW119255   6.293   6.085  11.752 -0.2268 -3.1142 -1.8392
38148SOL    HW219256   6.265   6.143  11.615  0.7907  1.5843 -0.2404
38149SOL     OW19257   0.203   5.214  10.031 -0.4887 -0.2129 -0.7028
38149SOL    HW119258   0.127   5.245   9.983 -1.0931  0.7936  0.8206
38149SOL    HW219259   0.174   5.208  10.122  1.2746  0.3647 -0.0414
38150SOL     OW19260   6.423   7.841   3.106  0.5674 -0.0381 -0.0472
38150SOL    HW119261   6.340   7.887   3.116  1.4762  1.4338  1.0755
38150SOL    HW219262   6.462   7.843   3.193  1.5787 -1.1601 -0.4384
38151SOL     OW19263   7.144  12.150   5.967  0.2017  0.2243 -0.0601
38151SOL    HW119264   7.228  12.147   6.013  0.6009  0.7674 -0.7436
38151SOL    HW219265   7.124  12.243   5.957  0.3682  0.1363 -1.4091
38152SOL     OW19266  12.079   9.926   1.645  0.1392 -0.0546 -0.2812
38152SOL    HW119267  12.149   9.869   1.614  0.6934 -0.0978  0.9767
38152SOL    HW219268  12.008   9.913   1.582  1.7650  1.1533 -2.4969
38153SOL     OW19269   4.011   9.970   0.898 -0.0510 -0.4617 -0.5006
38153SOL    HW119270   3.953  10.046   0.889 -0.1146 -0.6300 -1.7718
38153SOL    HW219271   4.089  10.005   0.941  0.0923  0.4453 -1.4346
38154SOL     OW19272   3.934   6.132   6.488 -0.0935 -0.0176  0.0639
38154SOL    HW119273   3.976   6.132   6.575 -0.6513  0.9626  0.3479
38154SOL    HW219274   3.974   6.206   6.443  0.5349 -0.8076 -0.7025
38155SOL     OW19275   0.953   7.817   3.523 -0.4330 -0.6912 -0.2867
38155SOL    HW119276   1.041   7.855   3.517 -1.2569  1.1967 -1.2312
38155SOL    HW219277   0.963   7.729   3.487  0.5338  0.5279 -3.3123
38156SOL     OW19278  10.820   0.876   4.269  0.2072 -0.3618 -0.0990
38156SOL    HW119279  10.750   0.915   4.216  0.6949  0.0456 -0.4575
38156SOL    HW219280  10.893   0.867   4.208  0.5588 -0.5327  0.3416
38157SOL     OW19281   7.545   4.233   0.306  0.0991 -0.0835 -0.8094
38157SOL    HW119282   7.599   4.312   0.311 -0.2771  0.1546 -0.3466
38157SOL    HW219283   7.606   4.164   0.282  0.9414 -0.1243  1.2254
38158SOL     OW19284  12.088   5.063  11.233 -0.5225  0.0334 -0.6719
38158SOL    HW119285  12.022   5.104  11.176 -1.0974  1.0021  0.6377
38158SOL    HW219286  12.050   4.978  11.256 -2.5232  1.4840  1.9468
38159SOL     OW19287   9.137  11.545   4.286 -0.1819  0.2049  0.0985
38159SOL    HW119288   9.160  11.522   4.196 -0.4204  1.4947 -0.3101
38159SOL    HW219289   9.049  11.581   4.280  0.6319  2.4313  0.4556
38160SOL     OW19290   7.537   3.544   6.935 -0.5001  0.1586 -0.5720
38160SOL    HW119291   7.444   3.555   6.915 -0.7886  0.5374  0.9174
38160SOL    HW219292   7.552   3.449   6.930 -0.7965  0.1435 -1.4342
38161SOL     OW19293   3.178   9.392   3.916 -0.8758  0.4803  0.0388
38161SOL    HW119294   3.091   9.400   3.955 -0.6710 -1.3536  0.9798
38161SOL    HW219295   3.162   9.362   3.827 -1.2278  0.6302  0.0523
38162SOL     OW19296   8.502   5.038  10.100  0.0364  0.1961  0.5081
38162SOL    HW119297   8.567   5.103  10.073 -0.6495  0.6447 -0.1269
38162SOL    HW219298   8.469   5.071  10.183 -1.0999  1.3012 -0.3322
38163SOL     OW19299   8.509   5.898   0.597  0.4083  0.0625  0.5349
38163SOL    HW119300   8.453   5.975   0.593 -0.8599 -0.8801 -0.6796
38163SOL    HW219301   8.559   5.900   0.516 -0.4246 -0.9380 -0.0291
38164SOL     OW19302   9.135   7.758   6.517  1.0281  0.7663  0.1376
38164SOL    HW119303   9.135   7.783   6.609 -0.8118  0.4993  0.2581
38164SOL    HW219304   9.078   7.823   6.475 -0.3247 -0.6309 -0.3054
38165SOL     OW19305   7.938   4.096   7.196  0.2136 -0.1394  0.1167
38165SOL    HW119306   7.916   4.145   7.117 -1.1170  0.1708  0.6617
38165SOL    HW219307   7.914   4.006   7.176 -0.2746 -0.0343  0.2090
38166SOL     OW19308   4.035   5.152   0.708  0.6859 -0.1850 -0.5964
38166SOL    HW119309   3.979   5.186   0.638  1.7212  0.1429 -1.2976
38166SOL    HW219310   4.040   5.058   0.690  0.3294 -0.2212 -0.5080
38167SOL     OW19311   5.006   8.289   8.086  0.2367  0.5117 -0.0643
38167SOL    HW119312   5.007   8.385   8.079  0.0701  0.4094 -2.7230
38167SOL    HW219313   5.098   8.263   8.077  0.2224  0.4126  0.0848
38168SOL     OW19314   2.830   9.623   8.997 -0.3637 -0.2723  0.4921
38168SOL    HW119315   2.782   9.668   8.928  1.4637  0.0246 -0.6600
38168SOL    HW219316   2.762   9.584   9.052 -1.9107  0.9803 -0.4508
38169SOL     OW19317   7.060  10.517   4.502 -0.2095  0.7424 -0.2197
38169SOL    HW119318   7.092  10.438   4.546  2.6467  1.9280  0.0042
38169SOL    HW219319   7.013  10.484   4.426  0.0165 -1.1947  0.4151
38170SOL     OW19320   1.137   4.734   6.861 -0.1540  0.0330  0.9608
38170SOL    HW119321   1.060   4.740   6.804  0.0768 -2.5056  0.2840
38170SOL    HW219322   1.111   4.674   6.930  0.5551  0.8189  1.9454
38171SOL     OW19323  12.114  11.588   8.151 -0.2559  0.4749 -0.1216
38171SOL    HW119324  12.183  11.599   8.087  1.5411 -1.6783  1.3174
38171SOL    HW219325  12.159  11.574   8.234 -2.4730  2.3696  1.5657
38172SOL     OW19326   9.434   0.309   8.358  0.5173  0.1366 -0.3565
38172SOL    HW119327   9.502   0.314   8.426 -0.6242  1.6477  0.7506
38172SOL    HW219328   9.431   0.397   8.320 -2.7422  1.1019  1.6859
38173SOL     OW19329   7.227   5.479   1.673 -0.5398 -0.3010  0.6391
38173SOL    HW119330   7.239   5.398   1.722 -0.0336 -0.0470  0.9449
38173SOL    HW219331   7.168   5.531   1.727  1.5355  0.7860  2.0120
38174SOL     OW19332   4.004   7.567   7.958 -0.1302 -0.3487  0.0956
38174SOL    HW119333   4.090   7.591   7.922  0.1956  0.6776  1.4554
38174SOL    HW219334   3.944   7.632   7.923  0.1856  0.6462  1.3442
38175SOL     OW19335   8.711   3.857   9.691  0.2398  0.2811  0.1398
38175SOL    HW119336   8.689   3.908   9.768 -1.0867 -1.3679  0.9116
38175SOL    HW219337   8.752   3.777   9.725 -0.2616 -0.4263 -0.8603
38176SOL     OW19338   7.547   6.295   3.811 -0.5943  0.3683 -0.1534
38176SOL    HW119339   7.593   6.221   3.772  1.4365  0.7891  1.2716
38176SOL    HW219340   7.606   6.369   3.800 -2.2058  1.6211 -0.7644
38177SOL     OW19341  11.137   5.719   3.525  0.5497  0.5226 -0.2179
38177SOL    HW119342  11.150   5.812   3.543 -0.8043  0.5424  0.8012
38177SOL    HW219343  11.048   5.701   3.556  0.8732 -1.1575 -0.2005
38178SOL     OW19344   7.332   0.325   9.003 -0.3049 -0.6942  0.0279
38178SOL    HW119345   7.339   0.380   9.082  1.4146 -0.4511 -0.2637
38178SOL    HW219346   7.238   0.324   8.983 -0.4293  2.0474  0.1264
38179SOL     OW19347   4.511   9.555   8.607 -0.0700  0.6394  0.6935
38179SOL    HW119348   4.443   9.522   8.667  0.1595  0.5709  0.9168
38179SOL    HW219349   4.554   9.625   8.656  0.0669  0.6371  0.5760
38180SOL     OW19350   5.410   5.121   1.891  0.0992  0.6601  0.1234
38180SOL    HW119351   5.401   5.210   1.924  1.6146  0.7962  0.2541
38180SOL    HW219352   5.403   5.129   1.796 -2.6068  0.4895  0.2214
38181SOL     OW19353   8.242  11.364  11.813  0.1034  0.4285 -0.4800
38181SOL    HW119354   8.218  11.290  11.869  1.4232 -0.0687 -0.5403
38181SOL    HW219355   8.335  11.378  11.831 -0.0308  1.8100 -0.7818
38182SOL     OW19356   8.742   1.490   4.812  0.4019  0.5045  0.2666
38182SOL    HW119357   8.795   1.411   4.806 -0.9654 -0.3648 -1.8905
38182SOL    HW219358   8.685   1.476   4.888  0.1469 -0.6368 -0.1138
38183SOL     OW19359  11.333  10.447   2.348 -0.5603 -0.4078  0.1119
38183SOL    HW119360  11.331  10.355   2.376  0.5709 -0.8791 -1.2403
38183SOL    HW219361  11.247  10.462   2.309 -0.0507 -1.5663 -1.5626
38184SOL     OW19362  11.974   3.150   4.655  0.3261 -0.0299  0.5527
38184SOL    HW119363  11.941   3.083   4.715 -0.7891  0.1925  0.2221
38184SOL    HW219364  11.919   3.141   4.577  1.3472  0.0887 -0.2053
38185SOL     OW19365   4.091   9.106   0.880  0.6335 -0.0188  0.6069
38185SOL    HW119366   4.140   9.136   0.804  0.4474 -0.9940  0.0857
38185SOL    HW219367   4.159   9.071   0.939  0.5358 -2.2470 -0.5222
38186SOL     OW19368   0.293  12.456   4.472 -0.5276 -0.2288  0.2893
38186SOL    HW119369   0.350  12.394   4.427  1.1843  0.1107  1.8970
38186SOL    HW219370   0.218  12.404   4.499 -0.8709 -0.7654 -1.5174
38187SOL     OW19371   4.454   4.952   9.620  0.2237 -0.2145  0.3814
38187SOL    HW119372   4.540   4.911   9.622 -0.4278 -1.6436  0.0502
38187SOL    HW219373   4.420   4.934   9.533 -0.8885 -0.6914  0.8945
38188SOL     OW19374   4.275   9.067   8.973 -0.4389 -0.2641  0.7498
38188SOL    HW119375   4.228   9.008   8.914  2.2080 -0.3484 -1.4929
38188SOL    HW219376   4.365   9.068   8.939  0.8442  1.0674  3.8166
38189SOL     OW19377   0.406   9.753  10.093 -0.0172  0.6742  0.2484
38189SOL    HW119378   0.440   9.778  10.179  1.4642  2.3645 -0.7662
38189SOL    HW219379   0.400   9.658  10.096 -0.2314  0.7125  2.2856
38190SOL     OW19380   5.016   3.218  10.862  0.4523  0.3289 -0.1414
38190SOL    HW119381   4.948   3.280  10.890 -1.1973 -1.2308 -0.5454
38190SOL    HW219382   4.983   3.132  10.888  2.4425 -0.4734 -0.0741
38191SOL     OW19383   4.400  11.490  10.041 -0.3348  0.8916 -0.1943
38191SOL    HW119384   4.310  11.521  10.035 -0.3295  0.9800  0.2029
38191SOL    HW219385   4.429  11.514  10.128 -0.4393 -0.4994  0.2585
38192SOL     OW19386  11.648   5.453  11.155 -0.1582 -0.0350 -0.0865
38192SOL    HW119387  11.707   5.456  11.080 -0.3460  0.7414 -0.2075
38192SOL    HW219388  11.627   5.360  11.165  1.5357 -0.4080  0.3354
38193SOL     OW19389  10.545   6.675   3.148  0.1548  0.2466  0.0883
38193SOL    HW119390  10.475   6.644   3.090  0.8277 -1.9045  0.3443
38193SOL    HW219391  10.546   6.770   3.135 -1.9480  0.1955 -0.8652
38194SOL     OW19392   3.603  11.880   4.086  0.4444 -0.0960 -0.0609
38194SOL    HW119393   3.542  11.821   4.129 -1.1214  0.5875 -1.2722
38194SOL    HW219394   3.617  11.951   4.148 -0.5742  0.1087 -0.0645
38195SOL     OW19395  10.415  10.268  11.773 -0.0136 -0.5569 -0.5168
38195SOL    HW119396  10.451  10.347  11.814  0.4796 -0.8363 -0.4003
38195SOL    HW219397  10.348  10.300  11.713 -1.9105 -0.2040  1.6379
38196SOL     OW19398   6.650  10.638  12.170 -0.1423 -0.0263  0.3063
38196SOL    HW119399   6.556  10.646  12.188 -0.5268 -3.0095  0.1517
38196SOL    HW219400   6.654  10.626  12.075  0.6752  2.3297 -0.0202
38197SOL     OW19401   4.757   8.638   7.884 -0.0778 -0.0198 -0.4642
38197SOL    HW119402   4.731   8.563   7.938 -0.9234  0.8786  0.4144
38197SOL    HW219403   4.676   8.665   7.841  0.1886  0.4819 -0.6496
38198SOL     OW19404  12.103   4.291   5.309  0.7628 -0.4057  0.7138
38198SOL    HW119405  12.156   4.219   5.274  0.4491  0.6413 -2.2448
38198SOL    HW219406  12.014   4.272   5.280  0.2601  0.0356  1.8978
38199SOL     OW19407   3.025  12.164   8.485 -0.2256  0.3632  0.0962
38199SOL    HW119408   3.010  12.084   8.436  1.4760  0.6604 -0.9860
38199SOL    HW219409   2.995  12.144   8.574  2.5829 -2.4197  0.5644
38200SOL     OW19410  10.561  12.099   5.453 -0.1048  0.0504 -0.3893
38200SOL    HW119411  10.652  12.126   5.450 -0.1604  0.1763 -1.1352
38200SOL    HW219412  10.557  12.037   5.526  0.5153  0.2535 -0.1772
38201SOL     OW19413  10.080   1.777   3.795 -0.4232 -0.3808 -0.0244
38201SOL    HW119414  10.113   1.760   3.706  2.0324 -0.6306  0.8632
38201SOL    HW219415   9.986   1.757   3.790 -0.4772  0.1911 -2.6863
38202SOL     OW19416   3.744  11.811   0.083 -0.1867  0.0994  0.2543
38202SOL    HW119417   3.813  11.824   0.018 -1.1310  1.9950 -0.4363
38202SOL    HW219418   3.666  11.849   0.043 -0.7396  1.5849  2.5856
38203SOL     OW19419  11.584   6.059   5.657 -0.4499  0.4614 -0.3028
38203SOL    HW119420  11.659   6.075   5.599 -0.3868  1.4203  0.0300
38203SOL    HW219421  11.508   6.088   5.607 -0.4418  0.8689 -0.0788
38204SOL     OW19422   3.578   5.342   8.186 -0.0605  0.4011 -0.0564
38204SOL    HW119423   3.576   5.274   8.253 -0.6586  1.2126  0.7722
38204SOL    HW219424   3.622   5.416   8.228 -2.3863  1.7205  0.2913
38205SOL     OW19425  10.772   4.123   4.015 -0.3922 -0.0314  0.3386
38205SOL    HW119426  10.710   4.082   4.075  1.3306 -1.8374  1.0009
38205SOL    HW219427  10.858   4.104   4.053  0.6757  0.4213 -1.7131
38206SOL     OW19428   0.160   7.020   0.332 -0.0510 -0.3247 -0.0080
38206SOL    HW119429   0.077   7.069   0.327  0.9372  1.4120 -0.4306
38206SOL    HW219430   0.158   6.979   0.419 -1.0633  0.2582  0.2676
38207SOL     OW19431   2.513   0.966   2.668 -0.3996  0.4965  0.1098
38207SOL    HW119432   2.604   0.977   2.695  0.1366 -1.1473 -0.9424
38207SOL    HW219433   2.483   0.889   2.714 -0.7904  0.1597 -0.6872
38208SOL     OW19434   6.848   5.728  12.391 -0.1240  0.3434 -0.2634
38208SOL    HW119435   6.890   5.814  12.395 -0.8199  0.7284 -0.8960
38208SOL    HW219436   6.916   5.666  12.418  0.2812  1.1234  0.5481
38209SOL     OW19437   4.375   4.779   8.725  0.2195  0.3108 -0.6140
38209SOL    HW119438   4.341   4.802   8.639  0.9282 -0.4228 -1.1126
38209SOL    HW219439   4.448   4.839   8.740  0.7228 -0.1968 -0.9752
38210SOL     OW19440   3.615   3.637   0.331  0.3468  0.0333  0.3006
38210SOL    HW119441   3.626   3.677   0.417 -0.7930  1.1852 -0.0473
38210SOL    HW219442   3.520   3.637   0.317  0.5823  1.9131 -1.8497
38211SOL     OW19443   5.092   3.561   7.715 -0.2548  0.6583  0.1101
38211SOL    HW119444   5.050   3.623   7.656 -0.6236 -0.5861 -0.9808
38211SOL    HW219445   5.022   3.531   7.772 -0.7169 -0.7301 -1.1164
38212SOL     OW19446   7.192   9.127   8.123 -0.4718 -0.0708 -0.0838
38212SOL    HW119447   7.121   9.101   8.181 -0.0795  1.6460  1.2644
38212SOL    HW219448   7.227   9.207   8.163  3.3398 -1.7063  0.3637
38213SOL     OW19449  11.070   8.039   4.186  0.0189  0.2076 -0.4109
38213SOL    HW119450  10.987   8.050   4.232  0.0519  0.0818 -0.3205
38213SOL    HW219451  11.048   7.988   4.108 -0.2012  1.2321 -1.0353
38214SOL     OW19452   4.016   8.821   0.970  0.1355 -0.0294  0.2276
38214SOL    HW119453   4.068   8.886   1.018 -0.8283  0.7417  0.2783
38214SOL    HW219454   3.931   8.864   0.959 -0.7720 -1.5971  0.9121
38215SOL     OW19455   3.204  11.320   7.529 -0.2813  0.7289 -0.1697
38215SOL    HW119456   3.149  11.357   7.460 -1.3357 -0.6998 -0.1400
38215SOL    HW219457   3.234  11.236   7.494 -0.0319  0.4308  0.7242
38216SOL     OW19458  10.997   5.359   0.178 -0.3457  0.1922 -0.3509
38216SOL    HW119459  10.902   5.372   0.175 -0.3905 -0.0103  0.0907
38216SOL    HW219460  11.009   5.282   0.234 -0.0680 -1.3713 -2.4358
38217SOL     OW19461   6.445   7.834   2.843  0.2758 -0.1399 -0.1783
38217SOL    HW119462   6.415   7.828   2.933  0.1086  0.8943 -0.1580
38217SOL    HW219463   6.534   7.868   2.849 -0.1642  1.0958 -0.4524
38218SOL     OW19464   9.206   1.022   8.942  0.9786  0.1446 -0.0959
38218SOL    HW119465   9.172   0.950   8.889 -1.5225  3.2918 -3.2668
38218SOL    HW219466   9.297   1.030   8.915  0.8966 -0.9489 -0.7562
38219SOL     OW19467  10.861  10.816  11.356 -0.4986 -0.4684 -0.0954
38219SOL    HW119468  10.862  10.891  11.416  2.0069 -0.0802 -0.4969
38219SOL    HW219469  10.916  10.843  11.283  0.4378 -2.6398 -0.2852
38220SOL     OW19470  11.211   4.996   5.140  0.1798 -0.2084 -0.1190
38220SOL    HW119471  11.218   4.903   5.123  1.0297  0.0743 -1.4674
38220SOL    HW219472  11.119   5.017   5.121  0.1493 -0.6463 -0.4555
38221SOL     OW19473  12.002   2.646   6.564  0.0769 -0.1073  0.3315
38221SOL    HW119474  12.093   2.667   6.585  0.2805  0.2017 -0.7875
38221SOL    HW219475  11.974   2.586   6.633  1.0779 -0.0695  0.7779
38222SOL     OW19476  12.348   3.687   2.187 -0.6596  0.1593  0.1245
38222SOL    HW119477  12.379   3.633   2.115 -0.0302  1.5454 -0.6797
38222SOL    HW219478  12.287   3.748   2.146  1.0391  2.1343  0.3781
38223SOL     OW19479   4.536   4.400   3.307 -0.1690 -0.1284  1.0217
38223SOL    HW119480   4.460   4.386   3.364  0.1796  1.1598  1.8388
38223SOL    HW219481   4.538   4.323   3.250 -1.0158 -1.0592  2.2052
38224SOL     OW19482   9.745   7.953   6.909  0.1187 -0.2460 -0.3989
38224SOL    HW119483   9.757   7.937   7.002  0.8592 -1.6377 -0.7066
38224SOL    HW219484   9.834   7.953   6.872 -0.1744  0.0776 -1.1439
38225SOL     OW19485  10.354   5.592   9.614 -0.0650  0.2140 -0.0024
38225SOL    HW119486  10.308   5.587   9.530 -2.0614 -0.6386  1.0560
38225SOL    HW219487  10.331   5.678   9.649  2.2562  1.3550 -1.0440
38226SOL     OW19488   2.047   5.458   6.991 -0.7861  0.3310 -0.3089
38226SOL    HW119489   2.096   5.519   7.046 -0.4601  0.3108 -0.5744
38226SOL    HW219490   2.065   5.486   6.901 -0.0449 -0.5983 -0.4595
38227SOL     OW19491   7.315  10.782   8.936  0.3007  0.3288  0.3102
38227SOL    HW119492   7.225  10.770   8.965  0.7048 -1.5101  0.9747
38227SOL    HW219493   7.325  10.877   8.925 -2.1659  0.4650 -1.4304
38228SOL     OW19494   3.104   5.896  12.576  0.1844  0.0223 -0.3462
38228SOL    HW119495   3.115   5.831  12.506  1.2674  0.2662 -0.4143
38228SOL    HW219496   3.113   5.845  12.657  1.8235  0.1691 -0.3932
38229SOL     OW19497   8.404   5.011  10.583  0.1446  0.5720 -0.0957
38229SOL    HW119498   8.345   4.982  10.514 -0.5601 -0.4140  0.8846
38229SOL    HW219499   8.407   4.938  10.645  0.7901  1.3985  0.8921
38230SOL     OW19500  10.783   5.089   8.106 -0.3513  0.0621  0.3878
38230SOL    HW119501  10.770   5.017   8.045 -2.6054 -1.1324  2.1623
38230SOL    HW219502  10.861   5.064   8.156  2.3735  1.6977 -2.6905
38231SOL     OW19503   6.853   6.476   4.495  0.1758  0.1478  0.3031
38231SOL    HW119504   6.923   6.528   4.454  1.6287 -1.1480  1.0467
38231SOL    HW219505   6.898   6.422   4.559 -1.6813  0.0153  1.5664
38232SOL     OW19506   9.196   0.716  10.397  0.4292 -0.5329  0.4387
38232SOL    HW119507   9.132   0.724  10.327  1.0273  0.1892 -0.0323
38232SOL    HW219508   9.150   0.744  10.476  0.1337 -0.1384  0.1221
38233SOL     OW19509  12.127   9.126   2.085  0.2043 -0.5432 -0.1844
38233SOL    HW119510  12.033   9.133   2.103 -0.1361 -1.2912 -1.5065
38233SOL    HW219511  12.136   9.044   2.035  1.9738 -2.0813  2.4117
38234SOL     OW19512   1.100   7.122   5.043  0.1264  0.1512 -0.4875
38234SOL    HW119513   1.075   7.033   5.069 -1.1295  0.8005  0.6988
38234SOL    HW219514   1.176   7.141   5.098  2.4609 -1.2629 -2.9901
38235SOL     OW19515   6.192   5.830   6.029  0.0607 -0.0587  0.3264
38235SOL    HW119516   6.162   5.757   6.083 -2.3867  0.0699 -0.7525
38235SOL    HW219517   6.113   5.880   6.009  1.3425  1.5993 -0.8810
38236SOL     OW19518   3.942  11.102   0.955  0.0145  0.0409 -0.2889
38236SOL    HW119519   3.879  11.102   1.028 -0.5229 -1.8909 -0.7078
38236SOL    HW219520   3.909  11.169   0.895 -0.2615  0.7424  0.6105
38237SOL     OW19521   2.562   7.196   9.556 -0.2313 -0.5503 -0.1557
38237SOL    HW119522   2.503   7.191   9.480  1.9884  0.4034 -2.0697
38237SOL    HW219523   2.647   7.168   9.522  1.5307  2.7080  1.1673
38238SOL     OW19524   4.895   4.363   2.831  0.0541  0.4377 -0.7365
38238SOL    HW119525   4.943   4.323   2.904  0.2847  0.0082 -1.1207
38238SOL    HW219526   4.853   4.289   2.787  0.8331  0.5662 -1.7105
38239SOL     OW19527  11.605  10.528   2.009 -0.1052  0.3391 -0.1715
38239SOL    HW119528  11.546  10.534   1.934 -0.5165 -3.0016 -0.2428
38239SOL    HW219529  11.681  10.581   1.984 -0.3050 -0.5206 -2.8738
38240SOL     OW19530   9.273   0.052   3.042  0.1891 -0.0616 -0.0454
38240SOL    HW119531   9.310   0.078   2.958  1.3724  0.6822  0.6789
38240SOL    HW219532   9.181   0.079   3.037  0.7166  1.8794 -0.3604
38241SOL     OW19533   8.964   0.263  11.647  0.1948  0.9728  0.0949
38241SOL    HW119534   9.038   0.307  11.689  2.2320 -0.7118 -1.5349
38241SOL    HW219535   8.964   0.297  11.558  1.4453 -1.6694 -1.0355
38242SOL     OW19536  12.191   1.850   1.744  0.2352  0.0944  0.2917
38242SOL    HW119537  12.147   1.860   1.659  0.8304 -0.3551 -0.0746
38242SOL    HW219538  12.226   1.761   1.743 -0.7635 -0.3442  1.5045
38243SOL     OW19539   4.597   2.866   7.519  0.8431  0.0961  0.1216
38243SOL    HW119540   4.627   2.782   7.553 -0.2519 -0.2806  0.1800
38243SOL    HW219541   4.641   2.875   7.434  1.2226 -0.3684  0.2682
38244SOL     OW19542   1.424   9.639   9.388  0.4433  0.0396  0.2115
38244SOL    HW119543   1.333   9.670   9.382 -0.5630 -2.4612  1.1920
38244SOL    HW219544   1.448   9.652   9.479  0.2922 -1.2099  0.4470
38245SOL     OW19545   8.889   3.614  12.383 -0.3492  0.4781  0.2001
38245SOL    HW119546   8.953   3.633  12.453 -0.3270  1.0457  0.0287
38245SOL    HW219547   8.933   3.642  12.303 -1.2997  2.1099  0.2014
38246SOL     OW19548   7.151   5.188   2.715 -0.1525 -0.6276 -0.2764
38246SOL    HW119549   7.087   5.257   2.700  0.5635 -0.1602 -1.3570
38246SOL    HW219550   7.130   5.120   2.651  1.8025  0.5566 -2.3018
38247SOL     OW19551   0.545   6.924   8.243 -0.1122  0.2675 -0.3592
38247SOL    HW119552   0.549   6.863   8.317  0.6686  1.8805  1.0050
38247SOL    HW219553   0.474   6.984   8.266  0.6478  1.2522 -0.5028
38248SOL     OW19554  12.624   2.703   7.044 -0.2137  0.0158 -0.0666
38248SOL    HW119555  12.533   2.685   7.068 -0.5097  0.5398 -0.7583
38248SOL    HW219556  12.618   2.754   6.963  0.6613  1.3866  0.6965
38249SOL     OW19557   3.151   7.241   3.576  0.0080  0.1772  0.6269
38249SOL    HW119558   3.141   7.291   3.495 -2.5617  1.0594  1.3745
38249SOL    HW219559   3.119   7.154   3.555  2.8979 -0.7917 -0.2204
38250SOL     OW19560   3.970   4.211   6.319  0.8131 -0.0856  0.6168
38250SOL    HW119561   3.955   4.256   6.235  1.5326  0.0458  0.5524
38250SOL    HW219562   3.963   4.281   6.385 -2.9452 -0.6703  1.0366
38251SOL     OW19563   3.754   3.033  12.012  1.2214 -0.0754 -0.1878
38251SOL    HW119564   3.841   3.074  12.012  1.3862 -0.4032  0.9066
38251SOL    HW219565   3.728   3.031  12.104  1.2577 -2.5405 -0.1726
38252SOL     OW19566  12.421  11.452   3.432  0.1021  0.0100 -0.0287
38252SOL    HW119567  12.372  11.402   3.367  0.8101  0.3145 -0.8206
38252SOL    HW219568  12.370  11.532   3.445 -0.8680 -0.7521  1.0075
38253SOL     OW19569  11.609   9.137   3.207  0.2890 -0.0671  0.5063
38253SOL    HW119570  11.520   9.164   3.186  0.5105  1.1110  1.0160
38253SOL    HW219571  11.645   9.210   3.258  1.6524 -0.3526  0.0063
38254SOL     OW19572   2.292  12.611   1.264 -0.0660 -0.1769  0.5934
38254SOL    HW119573   2.384  12.600   1.240  0.6051  0.8743  2.4950
38254SOL    HW219574   2.251  12.528   1.240  1.3290 -0.5965 -0.4614
38255SOL     OW19575   4.109   0.882   3.958  0.4033  0.2474  0.0130
38255SOL    HW119576   4.167   0.955   3.981  1.4817  0.2696 -2.4596
38255SOL    HW219577   4.140   0.809   4.012  1.7102  0.6942 -0.0879
38256SOL     OW19578   8.403   5.848   2.096 -0.7482  0.4572  0.1458
38256SOL    HW119579   8.312   5.822   2.083 -1.0064  1.7812 -0.9119
38256SOL    HW219580   8.397   5.924   2.153 -0.2602  0.2871  0.4258
38257SOL     OW19581   1.008  12.306   4.815 -0.2144  0.5672 -0.1213
38257SOL    HW119582   1.026  12.282   4.724 -0.1707 -1.3471  0.3480
38257SOL    HW219583   1.093  12.337   4.848  0.5877 -1.6953  0.1000
38258SOL     OW19584  10.211   3.741   0.096  0.3813 -0.2128 -0.1511
38258SOL    HW119585  10.286   3.794   0.121  0.6764  0.4313 -2.1763
38258SOL    HW219586  10.168   3.792   0.028 -1.7912 -0.6781  0.7936
38259SOL     OW19587   4.407  12.550  11.468 -0.3670  0.4131  0.2999
38259SOL    HW119588   4.338  12.483  11.471 -0.9673  1.0059 -0.0130
38259SOL    HW219589   4.436  12.550  11.376  0.9846 -0.7496  0.6937
38260SOL     OW19590  11.099   1.962  10.585 -0.1598  0.2486  0.0560
38260SOL    HW119591  11.101   1.866  10.582  0.2886  0.2512  0.1614
38260SOL    HW219592  11.171   1.989  10.528 -0.0939  0.5184  0.2666
38261SOL     OW19593   3.408   9.789   1.764  0.1140 -0.2468  0.1693
38261SOL    HW119594   3.440   9.867   1.811  1.1018 -0.0497 -0.7889
38261SOL    HW219595   3.465   9.782   1.688 -1.0908 -0.9025 -0.7049
38262SOL     OW19596   8.748  12.511   9.734 -0.5938 -0.1783 -0.1905
38262SOL    HW119597   8.778  12.492   9.824 -0.7525  0.2086 -0.0555
38262SOL    HW219598   8.816  12.473   9.678 -0.7755 -0.9201  0.0812
38263SOL     OW19599  11.539   4.640   9.626 -0.1493  0.0601  0.7917
38263SOL    HW119600  11.587   4.571   9.671  0.2276  0.9422  1.8009
38263SOL    HW219601  11.607   4.703   9.601 -0.5428  0.3167  0.3612
38264SOL     OW19602  12.020   1.520  11.055 -0.1608 -0.5740  0.5383
38264SOL    HW119603  12.053   1.433  11.032  0.9465 -0.4030  1.4043
38264SOL    HW219604  12.062   1.541  11.138 -0.9462  0.5098  0.6873
38265SOL     OW19605   8.530  11.567   1.813  0.8355 -0.2394  0.1328
38265SOL    HW119606   8.596  11.618   1.860  0.4136 -0.1482  0.6459
38265SOL    HW219607   8.480  11.632   1.764  0.2472 -0.1267  0.8489
38266SOL     OW19608  11.956   3.289  11.873  0.2684 -0.2760  0.1323
38266SOL    HW119609  11.990   3.271  11.961 -0.8654 -0.5884  0.5253
38266SOL    HW219610  12.030   3.326  11.825  1.5246 -2.0579  0.5873
38267SOL     OW19611  11.087   2.850  10.550 -0.0317 -0.6451  0.1355
38267SOL    HW119612  11.045   2.764  10.547  0.7572 -1.0580  0.5879
38267SOL    HW219613  11.051   2.897  10.474 -1.1408 -1.0489  0.3954
38268SOL     OW19614   2.749   2.354  10.978  0.1662  0.5165 -0.2395
38268SOL    HW119615   2.673   2.399  10.940  0.3506 -0.1338 -1.4441
38268SOL    HW219616   2.722   2.332  11.067 -1.2625 -0.1194 -0.7924
38269SOL     OW19617   2.503  10.578   0.089  0.4971  0.0546  0.2190
38269SOL    HW119618   2.577  10.551   0.143  0.0583 -0.2849  0.6691
38269SOL    HW219619   2.488  10.670   0.113 -0.3848 -0.3995  1.5170
38270SOL     OW19620   5.270   1.184   7.548 -0.4442 -0.5418  0.5098
38270SOL    HW119621   5.240   1.103   7.507 -2.8762 -0.5567  2.0627
38270SOL    HW219622   5.256   1.169   7.642  1.1589  0.8901  1.0138
38271SOL     OW19623   9.330   0.499  10.778  0.3268 -0.3869 -0.6256
38271SOL    HW119624   9.308   0.469  10.690 -1.0834 -0.1551 -0.3699
38271SOL    HW219625   9.369   0.585  10.766 -1.9824  0.6757 -0.8955
38272SOL     OW19626   8.292  12.484   4.514  0.2976 -0.4107  0.5537
38272SOL    HW119627   8.217  12.494   4.456 -0.0978 -2.1163  0.7395
38272SOL    HW219628   8.254  12.466   4.600  0.8570  2.4336  1.5187
38273SOL     OW19629   7.989   9.489   6.408  0.2406 -0.2553 -0.7707
38273SOL    HW119630   8.029   9.403   6.424  0.0454  0.0589  1.7166
38273SOL    HW219631   8.056   9.552   6.433 -0.5193  0.2904 -0.0445
38274SOL     OW19632  11.279  10.925   5.601 -0.1034  0.5463  0.9421
38274SOL    HW119633  11.259  10.850   5.657 -1.7500 -0.3425 -0.7331
38274SOL    HW219634  11.323  10.888   5.525 -0.6848  1.2834  0.2264
38275SOL     OW19635   8.579  12.350   0.827 -0.0093 -0.0224  0.0777
38275SOL    HW119636   8.584  12.361   0.732  0.4896 -1.8369 -0.1554
38275SOL    HW219637   8.618  12.430   0.862 -1.4792  1.3111 -1.1878
38276SOL     OW19638   4.632   7.721   4.312  0.4908 -0.1530 -0.2127
38276SOL    HW119639   4.690   7.645   4.316  1.8206  0.8176 -0.5458
38276SOL    HW219640   4.682   7.788   4.266 -0.7785  0.8360 -0.2273
38277SOL     OW19641   9.752   0.596  12.292 -0.5331  0.3324  0.1825
38277SOL    HW119642   9.672   0.553  12.323  0.6654 -1.1124  1.4928
38277SOL    HW219643   9.811   0.594  12.367  0.5712  1.8500 -0.5806
38278SOL     OW19644   3.878   3.939   8.854 -0.2496 -0.3569  0.4328
38278SOL    HW119645   3.965   3.979   8.854 -0.7261  0.6987 -0.0461
38278SOL    HW219646   3.861   3.921   8.947 -0.2527  1.0506  0.7154
38279SOL     OW19647   2.985   1.474   0.376 -0.4390 -0.0466 -0.3299
38279SOL    HW119648   2.961   1.524   0.298  0.1649 -1.4714 -1.4705
38279SOL    HW219649   2.930   1.396   0.373 -0.1914 -0.2678  0.5067
38280SOL     OW19650   0.685   9.842  11.241 -0.3103 -0.2466 -0.7173
38280SOL    HW119651   0.673   9.930  11.204 -0.4296 -0.2928 -0.7870
38280SOL    HW219652   0.612   9.791  11.207 -0.5013 -0.2528 -0.3010
38281SOL     OW19653  10.478  11.320   7.067 -0.2708  0.0847 -0.2608
38281SOL    HW119654  10.569  11.337   7.044 -0.3665  2.0249  0.6089
38281SOL    HW219655  10.429  11.388   7.021 -1.4711 -1.5985 -1.6440
38282SOL     OW19656   6.036   9.606  12.346 -0.0183 -0.2798 -0.4089
38282SOL    HW119657   6.094   9.578  12.275 -0.6925  1.6885 -1.8358
38282SOL    HW219658   5.959   9.549  12.338 -0.1822  0.0595 -1.4365
38283SOL     OW19659  12.004   3.739   1.097 -0.0536 -0.0628  0.2420
38283SOL    HW119660  12.004   3.646   1.118  0.2075 -0.1579 -0.1739
38283SOL    HW219661  12.011   3.783   1.182  1.2846 -0.4360  0.3447
38284SOL     OW19662  10.570   1.031   4.477 -0.3987 -0.6305  0.4470
38284SOL    HW119663  10.627   0.965   4.516  0.7871  0.4952  0.7105
38284SOL    HW219664  10.608   1.047   4.390 -1.7957 -1.6209 -0.3921
38285SOL     OW19665   5.016   5.089   5.388 -0.3417  0.2120 -0.0185
38285SOL    HW119666   5.017   5.176   5.427 -0.3530  0.4764 -0.6006
38285SOL    HW219667   5.024   5.104   5.294  1.6052 -0.4897 -0.0068
38286SOL     OW19668  10.337   9.145   2.672  0.3934 -0.3957 -0.6696
38286SOL    HW119669  10.431   9.130   2.664  0.2257 -2.3710  0.3821
38286SOL    HW219670  10.299   9.091   2.602  0.0216  0.1290 -0.8767
38287SOL     OW19671  10.146   4.704   9.735  0.4834 -0.2341 -0.1124
38287SOL    HW119672  10.206   4.672   9.803 -0.0665 -1.8614 -0.3477
38287SOL    HW219673  10.194   4.776   9.693  1.1494  0.2788  1.4618
38288SOL     OW19674   0.237   2.553  10.260 -0.8318 -0.1996 -0.3500
38288SOL    HW119675   0.152   2.599  10.255 -0.2487  0.8433 -1.0992
38288SOL    HW219676   0.301   2.624  10.268  0.2789 -0.7143 -3.4486
38289SOL     OW19677   8.606   6.388  11.640 -0.0711 -0.4686 -0.1420
38289SOL    HW119678   8.629   6.384  11.732  0.4179  0.5209 -0.2071
38289SOL    HW219679   8.516   6.356  11.637  0.2503 -1.4709  0.5274
38290SOL     OW19680   5.095  10.140   5.208 -0.0566  0.1119 -0.0824
38290SOL    HW119681   5.139  10.224   5.201 -0.6048  0.3622 -0.6278
38290SOL    HW219682   5.033  10.151   5.280 -1.0273  0.6042 -0.9674
38291SOL     OW19683   0.228   1.150  11.859  0.0315 -0.3695  0.4406
38291SOL    HW119684   0.233   1.210  11.785  1.0278  0.4957  1.1723
38291SOL    HW219685   0.179   1.199  11.926  2.2299  0.3248  1.6233
38292SOL     OW19686   3.455  11.271   4.292 -0.4255 -0.0006  0.0351
38292SOL    HW119687   3.537  11.268   4.243 -0.0812 -1.6788  0.6505
38292SOL    HW219688   3.455  11.191   4.344 -2.0971  0.3538  0.6471
38293SOL     OW19689   5.110   8.610   6.321  0.7024  0.6346  0.0905
38293SOL    HW119690   5.144   8.626   6.233  2.0885 -0.1910  0.4357
38293SOL    HW219691   5.131   8.689   6.370  1.7134  0.3402  0.1603
38294SOL     OW19692   4.805   1.954   7.480  0.1508  0.2954  0.2176
38294SOL    HW119693   4.895   1.930   7.501 -0.3990 -1.4987  0.7639
38294SOL    HW219694   4.803   2.049   7.482  2.1163  0.3753 -0.2165
38295SOL     OW19695  11.528   2.258   3.082 -0.1419 -0.0095 -0.9100
38295SOL    HW119696  11.482   2.223   3.006 -0.0915  1.9171 -1.8788
38295SOL    HW219697  11.614   2.282   3.048 -0.2060  1.1019 -0.3117
38296SOL     OW19698   8.454   5.810  10.719  0.8086  0.4426  0.1174
38296SOL    HW119699   8.481   5.819  10.811  1.3250  4.1095 -0.2314
38296SOL    HW219700   8.524   5.853  10.670 -0.9599  1.4395 -1.6829
38297SOL     OW19701   2.758   4.077   0.832 -0.7298  0.2530 -0.8359
38297SOL    HW119702   2.670   4.099   0.862  0.3029  0.4422  2.5504
38297SOL    HW219703   2.747   3.994   0.785 -2.7529  0.4100 -0.7373
38298SOL     OW19704   6.126   6.922   7.849  0.0498 -0.6107  0.3350
38298SOL    HW119705   6.061   6.852   7.842 -0.5228 -0.2819  1.9654
38298SOL    HW219706   6.082   6.999   7.811  1.7541 -1.6304 -4.4263
38299SOL     OW19707   7.014   2.023   0.475 -0.1751  0.3954  0.7324
38299SOL    HW119708   6.976   1.943   0.439  1.4981 -0.0998 -0.0245
38299SOL    HW219709   7.054   2.066   0.400 -0.5042  1.6499  1.2478
38300SOL     OW19710  10.710   7.852   3.106  0.2421 -0.2792 -0.1442
38300SOL    HW119711  10.670   7.938   3.122 -1.4606 -0.6266 -2.0384
38300SOL    HW219712  10.719   7.848   3.010 -0.0448 -2.3472 -0.1165
38301SOL     OW19713  12.557   2.034   4.178  0.8225 -0.0466  0.1399
38301SOL    HW119714  12.578   1.955   4.129  0.4876  1.5150 -2.7822
38301SOL    HW219715  12.462   2.043   4.170  0.8163  0.4618  0.7061
38302SOL     OW19716   2.310   6.465   5.046 -0.1031 -0.1606 -0.0915
38302SOL    HW119717   2.262   6.426   4.972 -0.8426 -2.3831  1.4604
38302SOL    HW219718   2.375   6.399   5.070  0.3705  0.6802  1.0153
38303SOL     OW19719   3.021   3.370   4.665 -0.0308 -0.0929 -0.6688
38303SOL    HW119720   2.977   3.455   4.669  2.1122  1.1241 -1.6116
38303SOL    HW219721   3.081   3.378   4.592 -1.4540 -3.3063 -2.3615
38304SOL     OW19722  10.960   5.632   7.009  0.4453  0.8495  0.1523
38304SOL    HW119723  11.034   5.663   6.957  0.7928 -0.0287  0.1035
38304SOL    HW219724  10.949   5.698   7.078  1.1648  1.0728  0.0608
38305SOL     OW19725   0.772   4.630   8.729  0.2082  0.4699  0.1304
38305SOL    HW119726   0.712   4.558   8.745  0.1782  0.8880  2.2959
38305SOL    HW219727   0.740   4.672   8.650 -0.5634 -1.0689 -0.4028
38306SOL     OW19728   6.961   3.529  12.202  0.0431 -0.1918  0.5929
38306SOL    HW119729   6.934   3.618  12.225 -1.8486 -0.5042 -0.1803
38306SOL    HW219730   7.000   3.537  12.115  2.2093  0.2071  1.5531
38307SOL     OW19731   5.603   5.555  12.117 -0.2668 -0.4146  0.1036
38307SOL    HW119732   5.607   5.651  12.109  0.2775 -0.5578 -1.7943
38307SOL    HW219733   5.532   5.529  12.057  0.4594 -1.2778 -0.4087
38308SOL     OW19734  11.150   5.220   1.095 -0.3879 -0.2975 -0.7166
38308SOL    HW119735  11.191   5.299   1.130 -2.9548  0.4829  0.7433
38308SOL    HW219736  11.127   5.169   1.173 -0.5308 -1.5744 -1.5737
38309SOL     OW19737  11.456   5.144   1.676  0.0898 -0.4153 -0.3745
38309SOL    HW119738  11.523   5.207   1.704 -0.6797  0.2626 -0.0050
38309SOL    HW219739  11.488   5.059   1.706  0.6560 -0.0629  0.0322
38310SOL     OW19740   2.839   1.124   3.382  0.0679 -0.2262  0.4231
38310SOL    HW119741   2.794   1.075   3.313 -2.2643  0.1953  1.5468
38310SOL    HW219742   2.851   1.212   3.345  0.8493 -0.5774 -0.2060
38311SOL     OW19743   8.459  10.865   4.728  0.1978  0.4328  0.3405
38311SOL    HW119744   8.486  10.947   4.685 -0.5754 -0.0309 -1.1065
38311SOL    HW219745   8.368  10.854   4.703  0.6681 -1.5837 -0.7028
38312SOL     OW19746   2.886   4.248   9.571 -0.7946 -0.1925 -0.8114
38312SOL    HW119747   2.924   4.266   9.657  1.3792  0.0351 -1.7640
38312SOL    HW219748   2.891   4.153   9.562 -0.1554 -0.1385 -1.0542
38313SOL     OW19749   7.560  11.179   2.665 -0.0636 -0.0356 -0.6329
38313SOL    HW119750   7.615  11.200   2.589  0.7664 -1.7537 -0.5665
38313SOL    HW219751   7.595  11.234   2.735  0.1885  0.4263 -1.1077
38314SOL     OW19752  11.896  10.233  12.179 -0.1470 -0.0734  0.0683
38314SOL    HW119753  11.867  10.284  12.103  0.6676 -0.9816 -0.8806
38314SOL    HW219754  11.856  10.147  12.166 -0.2200 -0.1639  0.8306
38315SOL     OW19755   6.816   9.911   1.170  0.1794  0.0513  0.7591
38315SOL    HW119756   6.785   9.996   1.202 -0.4915 -0.7482  2.3477
38315SOL    HW219757   6.774   9.847   1.228 -0.2475 -1.4487 -1.1040
38316SOL     OW19758   6.138   0.713   3.286  0.4241 -0.1557 -0.0875
38316SOL    HW119759   6.219   0.710   3.236  2.2119 -0.6315  2.6157
38316SOL    HW219760   6.115   0.806   3.290  1.7331  0.1649  0.3850
38317SOL     OW19761   0.162   0.672   4.608 -0.7532 -0.5214  0.4089
38317SOL    HW119762   0.142   0.591   4.562 -0.9800 -0.3808  0.2584
38317SOL    HW219763   0.098   0.735   4.576 -0.1743 -0.1064  0.0393
38318SOL     OW19764   9.362   5.329   2.528 -0.0706 -0.0686 -0.1323
38318SOL    HW119765   9.284   5.328   2.474 -1.9588  1.6192  2.3473
38318SOL    HW219766   9.360   5.414   2.572  0.9926 -1.4707  2.9440
38319SOL     OW19767   9.205   7.094   2.826 -0.2813 -0.4092 -0.1557
38319SOL    HW119768   9.144   7.032   2.865 -0.4385 -2.2137 -3.0011
38319SOL    HW219769   9.291   7.054   2.837 -0.0397  0.2360  0.3961
38320SOL     OW19770   9.313  10.072   7.752  0.0535  0.3169 -0.3108
38320SOL    HW119771   9.289  10.073   7.660 -1.5883  2.8430  0.0577
38320SOL    HW219772   9.257  10.005   7.791  0.9315 -0.9419 -1.1145
38321SOL     OW19773   0.386   0.602   1.332 -0.0582 -0.3271 -0.3546
38321SOL    HW119774   0.430   0.564   1.257 -0.9648 -0.8823 -0.6197
38321SOL    HW219775   0.399   0.539   1.403 -0.1422 -0.3398 -0.3494
38322SOL     OW19776   7.672   9.919   6.884  0.5778  0.2088  0.4819
38322SOL    HW119777   7.706   9.918   6.974 -0.9584 -0.8519  1.0986
38322SOL    HW219778   7.682   9.829   6.854  1.0275  0.5467 -0.4092
38323SOL     OW19779   3.888  11.430   1.531 -0.2198 -1.1104  0.1232
38323SOL    HW119780   3.858  11.511   1.572  0.1858 -0.9340  0.0683
38323SOL    HW219781   3.969  11.408   1.578  0.8186 -0.3575 -1.2555
38324SOL     OW19782  10.870   6.715   5.749  0.2129 -0.4611  0.1910
38324SOL    HW119783  10.947   6.660   5.764  0.6113  0.0854  0.1981
38324SOL    HW219784  10.893   6.799   5.788 -1.0090 -0.7506  1.6030
38325SOL     OW19785   9.840   3.667   0.720  0.4400  0.7297 -0.5267
38325SOL    HW119786   9.766   3.656   0.780  2.5744  0.8651  2.3578
38325SOL    HW219787   9.864   3.578   0.696  1.9534  0.2922  2.1598
38326SOL     OW19788   0.252   4.985   5.418 -0.9063 -0.0100 -0.4285
38326SOL    HW119789   0.303   4.926   5.363  0.9211  1.7951 -0.7946
38326SOL    HW219790   0.316   5.020   5.481 -1.1594  3.6684 -1.9943
38327SOL     OW19791   4.619   1.258   7.758  0.2844  0.0397  0.0761
38327SOL    HW119792   4.674   1.310   7.816 -1.8090  0.4978  1.7151
38327SOL    HW219793   4.605   1.176   7.805 -1.7228  0.5462  0.4067
38328SOL     OW19794  10.526   1.256   1.684 -0.1800  0.0391  0.4546
38328SOL    HW119795  10.475   1.332   1.712 -0.2427  0.3226 -0.4094
38328SOL    HW219796  10.613   1.271   1.722  0.1344  1.1171 -0.6198
38329SOL     OW19797   7.182   0.521   2.768 -0.1419  0.0464 -0.3616
38329SOL    HW119798   7.204   0.428   2.770 -2.3735 -0.5084  0.5671
38329SOL    HW219799   7.200   0.547   2.678  0.6605 -1.2417 -0.6037
38330SOL     OW19800   9.149  12.044   6.738  0.2086 -0.1869 -0.3651
38330SOL    HW119801   9.185  12.057   6.650 -1.3179 -1.0911 -1.1614
38330SOL    HW219802   9.059  12.014   6.723 -1.0048  2.1896  1.5540
38331SOL     OW19803   5.717   4.122   7.680 -0.6479  0.8887  0.4099
38331SOL    HW119804   5.689   4.160   7.597 -0.5457 -1.2952 -0.7084
38331SOL    HW219805   5.785   4.059   7.655  0.1317  0.9381  2.2786
38332SOL     OW19806   4.668   0.864   3.148  0.6406  0.2632  0.5137
38332SOL    HW119807   4.628   0.945   3.116 -0.5505 -0.1071  1.0096
38332SOL    HW219808   4.611   0.835   3.219  1.3426 -0.7310  0.6976
38333SOL     OW19809  12.238  11.271   5.249 -0.2298  0.1921 -0.1919
38333SOL    HW119810  12.166  11.326   5.218  0.0838  0.2583 -0.8187
38333SOL    HW219811  12.267  11.312   5.331 -0.8001  0.2529 -0.0167
38334SOL     OW19812   9.856  11.457   6.366  0.2559  0.1694 -0.3934
38334SOL    HW119813   9.860  11.452   6.270 -0.7803 -1.1248 -0.4032
38334SOL    HW219814   9.911  11.384   6.396 -1.1419 -0.7938 -0.0775
38335SOL     OW19815  10.259   0.123   4.645 -0.0720 -0.0309 -0.0678
38335SOL    HW119816  10.192   0.074   4.693 -1.0933  0.5304 -0.8951
38335SOL    HW219817  10.224   0.211   4.637  1.4213  0.6762  0.7334
38336SOL     OW19818   6.296   4.927   4.426 -0.2294 -0.2814 -0.0870
38336SOL    HW119819   6.291   4.847   4.479  0.8459 -0.3639 -0.0731
38336SOL    HW219820   6.208   4.938   4.391 -1.2147  0.2206  2.3398
38337SOL     OW19821   7.037   2.399   3.535 -0.2259 -0.4131  0.1701
38337SOL    HW119822   7.028   2.312   3.574 -0.7085 -1.1216 -1.4480
38337SOL    HW219823   7.006   2.389   3.445  1.3430  1.0149 -0.5898
38338SOL     OW19824   6.139   2.625   6.045 -0.3459  0.1693  0.1843
38338SOL    HW119825   6.228   2.611   6.076  0.0920  0.0211 -1.0658
38338SOL    HW219826   6.149   2.648   5.952 -1.6124 -0.0184 -0.0236
38339SOL     OW19827  11.717   4.269  10.018 -0.6404 -0.0311  0.5412
38339SOL    HW119828  11.713   4.239   9.927 -0.7139 -3.1372  1.4599
38339SOL    HW219829  11.809   4.264  10.041 -0.3545  2.4487  0.2163
38340SOL     OW19830   2.033   1.804   2.062 -0.0436 -0.0218  0.2954
38340SOL    HW119831   2.109   1.785   2.006 -0.3718 -0.1282 -0.1161
38340SOL    HW219832   2.036   1.736   2.130  0.8688  0.6395  0.9441
38341SOL     OW19833   3.310  10.195   5.519  0.1177  0.5029 -0.7293
38341SOL    HW119834   3.381  10.204   5.582  1.3951  1.0530 -2.1862
38341SOL    HW219835   3.236  10.241   5.560  0.1564 -1.1454  1.3675
38342SOL     OW19836   7.151   2.055   0.212  0.1201  0.7861 -0.1300
38342SOL    HW119837   7.180   1.968   0.241 -0.3492  0.6920  0.0653
38342SOL    HW219838   7.140   2.046   0.117 -0.2772  0.5260 -0.0638
38343SOL     OW19839   1.712   3.849  11.458  0.7585  0.9248 -0.3011
38343SOL    HW119840   1.775   3.796  11.408  1.4082  1.9158 -0.5454
38343SOL    HW219841   1.627   3.813  11.432  1.2046 -0.9211  0.5855
38344SOL     OW19842  11.392   9.270  10.414  0.5889 -0.6738 -0.2701
38344SOL    HW119843  11.306   9.229  10.426 -0.0822  0.7527  0.0006
38344SOL    HW219844  11.377   9.337  10.346  0.8990  1.1618  1.3876
38345SOL     OW19845   1.762   4.492   1.243  0.3763  0.1114 -0.1318
38345SOL    HW119846   1.836   4.473   1.300 -0.5633  0.2473  1.1980
38345SOL    HW219847   1.741   4.584   1.259  2.3035  1.2958 -3.4341
38346SOL     OW19848   9.670   8.503   7.165  0.5931  0.7956 -0.1518
38346SOL    HW119849   9.620   8.445   7.109  0.8751  1.5905 -1.2579
38346SOL    HW219850   9.748   8.525   7.114  0.5791  2.0041  0.3005
38347SOL     OW19851   4.444   8.408   4.742 -0.5197  0.4943 -0.2935
38347SOL    HW119852   4.515   8.344   4.738 -1.3267 -0.3769 -1.3921
38347SOL    HW219853   4.470   8.476   4.680  0.2865  1.2244  0.7952
38348SOL     OW19854   5.846  11.875   6.173  0.0508 -0.6597 -0.2947
38348SOL    HW119855   5.751  11.867   6.183 -0.1316  1.1858 -0.2014
38348SOL    HW219856   5.861  11.879   6.079 -0.0475 -0.2510 -0.2956
38349SOL     OW19857   2.381   6.054  10.370  0.5224  0.1100 -0.4206
38349SOL    HW119858   2.450   5.992  10.393 -0.1182  0.3783  2.5270
38349SOL    HW219859   2.306   6.027  10.422 -0.1073  2.6914  0.1107
38350SOL     OW19860   9.988   9.646   5.588  0.3078  0.2662  0.1074
38350SOL    HW119861   9.944   9.589   5.526 -0.4994  0.0897  0.8201
38350SOL    HW219862  10.033   9.711   5.533  0.1484 -0.2671 -0.6669
38351SOL     OW19863  10.207   9.334   1.541 -0.3484 -0.3490  0.4597
38351SOL    HW119864  10.232   9.426   1.549  0.5453 -0.7288  3.2646
38351SOL    HW219865  10.286   9.291   1.508 -0.5838 -0.2123 -0.3003
38352SOL     OW19866   4.336   3.891   4.315 -0.0422 -0.1799  0.4079
38352SOL    HW119867   4.367   3.981   4.303 -1.0340  0.0554 -0.5690
38352SOL    HW219868   4.268   3.880   4.249 -1.3315 -1.0064  1.8025
38353SOL     OW19869  12.387   1.870   8.169  0.0072 -0.4815  0.3285
38353SOL    HW119870  12.398   1.963   8.190 -2.0898  0.0817 -0.8225
38353SOL    HW219871  12.477   1.838   8.156  0.8188  1.1592  1.5310
38354SOL     OW19872   6.485   2.773   0.229 -0.2556  0.6292  0.0217
38354SOL    HW119873   6.483   2.834   0.156  0.6867  1.0655  0.3393
38354SOL    HW219874   6.454   2.823   0.304  0.1101  0.5987  0.1972
38355SOL     OW19875   2.771   9.787   1.099  0.1927  0.2205  0.5465
38355SOL    HW119876   2.766   9.693   1.119 -1.5356  0.2015  0.1489
38355SOL    HW219877   2.860   9.799   1.065 -0.4807 -1.9396 -2.4032
38356SOL     OW19878   5.879   3.680   8.153 -0.1822  0.0586  0.9303
38356SOL    HW119879   5.813   3.704   8.217 -0.2646  0.9303  0.5408
38356SOL    HW219880   5.950   3.641   8.204 -0.4812  0.2378  1.4866
38357SOL     OW19881   6.219   0.397   0.340  0.2953  0.3576 -0.0681
38357SOL    HW119882   6.303   0.374   0.380  0.4549 -0.4816 -0.8543
38357SOL    HW219883   6.241   0.461   0.273  0.3523 -0.0710 -0.4638
38358SOL     OW19884   5.026  12.210  12.238  0.3795  0.0047 -0.5794
38358SOL    HW119885   4.930  12.204  12.234  0.3377  0.9031 -1.9678
38358SOL    HW219886   5.047  12.195  12.330 -1.0992 -0.1856 -0.2341
38359SOL     OW19887   2.670   8.055  11.861  0.5314  0.2595 -0.3047
38359SOL    HW119888   2.748   8.021  11.905  0.1233 -2.2503 -1.3714
38359SOL    HW219889   2.600   8.044  11.926  0.6672  0.4629 -0.1210
38360SOL     OW19890  10.395  12.455   2.947 -0.4837  0.1553  0.9240
38360SOL    HW119891  10.345  12.387   2.903 -0.3531  0.3989  0.3824
38360SOL    HW219892  10.340  12.483   3.019 -1.2243  0.5574  0.2244
38361SOL     OW19893   3.686  10.574  11.975  0.6952 -0.1587 -0.4800
38361SOL    HW119894   3.659  10.487  12.005  1.0318 -0.1878 -0.2542
38361SOL    HW219895   3.743  10.607  12.045  1.0217  0.0099 -0.8201
38362SOL     OW19896   5.197  12.215   0.442  0.1168 -0.0246  0.4458
38362SOL    HW119897   5.254  12.283   0.407  1.5310 -1.3148  0.1504
38362SOL    HW219898   5.180  12.157   0.368 -2.3255  0.7508  0.3004
38363SOL     OW19899   7.310   4.666   3.996  0.6276 -0.4928 -0.5531
38363SOL    HW119900   7.382   4.679   4.058 -0.1782  0.3787  0.2389
38363SOL    HW219901   7.232   4.654   4.051  0.0659 -0.8122 -1.3941
38364SOL     OW19902   9.688   6.803   8.788  0.3855  0.0051  0.1170
38364SOL    HW119903   9.733   6.729   8.830 -0.4747 -1.1505 -0.9228
38364SOL    HW219904   9.638   6.763   8.717 -2.2206  1.2423  1.1359
38365SOL     OW19905   0.695   5.922   8.669  0.2578 -0.2050 -0.0843
38365SOL    HW119906   0.745   5.964   8.599 -0.2524  1.2182  0.3684
38365SOL    HW219907   0.662   5.841   8.630  1.1749 -0.1471 -1.0220
38366SOL     OW19908   1.047   7.500  10.418  0.9343 -0.0680 -0.1215
38366SOL    HW119909   1.019   7.571  10.475  1.1472  0.0073 -0.1103
38366SOL    HW219910   0.989   7.427  10.440  0.9351 -0.0005  0.1000
38367SOL     OW19911   6.424   8.372   8.868 -0.1033 -0.0094 -0.1104
38367SOL    HW119912   6.437   8.419   8.950  1.1289 -0.5394  0.0106
38367SOL    HW219913   6.454   8.433   8.800 -0.6302  0.2283 -0.1349
38368SOL     OW19914   2.167   3.221   8.335  0.1902 -0.5353  0.4236
38368SOL    HW119915   2.107   3.296   8.334  0.9161  0.0939 -1.9643
38368SOL    HW219916   2.125   3.157   8.393 -2.1531  0.3815 -0.1760
38369SOL     OW19917   1.545   4.832   0.077 -0.1601  0.1353 -0.7280
38369SOL    HW119918   1.449   4.830   0.078 -0.3839 -0.3944  5.0331
38369SOL    HW219919   1.571   4.744   0.103  1.9834  0.2892 -2.1278
38370SOL     OW19920   8.684   4.886  10.378  0.4642 -0.2035 -0.4587
38370SOL    HW119921   8.724   4.821  10.436  0.4705 -0.9246 -1.2532
38370SOL    HW219922   8.753   4.951  10.365  0.7334 -0.4530 -0.3053
38371SOL     OW19923  10.875   8.848   9.044  0.0741  0.2809  0.4109
38371SOL    HW119924  10.908   8.878   8.959  0.3675 -0.1463  0.3716
38371SOL    HW219925  10.864   8.753   9.033 -2.2186  0.5238  0.0512
38372SOL     OW19926   9.764   8.999   0.133  0.5980 -0.7096 -0.4256
38372SOL    HW119927   9.808   8.914   0.134  1.2989 -0.3634 -0.6421
38372SOL    HW219928   9.729   9.008   0.045 -2.1581 -2.0698  0.4175
38373SOL     OW19929   8.875   1.432   8.115  0.2168 -0.1233 -0.2107
38373SOL    HW119930   8.835   1.348   8.135  0.7930 -1.0910 -2.7329
38373SOL    HW219931   8.832   1.461   8.034  0.1951  1.9200  0.4647
38374SOL     OW19932   0.434   6.902   5.066  0.4525  0.3947  0.4716
38374SOL    HW119933   0.447   6.810   5.086  0.6594  0.2358 -0.3680
38374SOL    HW219934   0.398   6.903   4.977  0.1092  1.1033  0.6063
38375SOL     OW19935   9.885   9.957   2.340 -0.0733  0.4802  0.5375
38375SOL    HW119936   9.951   9.997   2.396 -1.4919  1.7203  1.4157
38375SOL    HW219937   9.844  10.031   2.295  0.6589 -0.4400 -1.7785
38376SOL     OW19938   0.172   9.057  10.415 -0.6255 -0.1936 -0.3186
38376SOL    HW119939   0.197   9.063  10.507 -1.5661 -2.0244  0.1105
38376SOL    HW219940   0.094   9.112  10.408  0.4356  1.3614 -0.4728
38377SOL     OW19941   2.810   8.008   0.068 -0.0647 -0.3484 -0.2666
38377SOL    HW119942   2.859   8.050   0.139  0.7961 -1.3956 -0.2167
38377SOL    HW219943   2.763   8.080   0.025 -0.4092  0.3468  1.1990
38378SOL     OW19944   9.942   1.760   1.097  0.3623  1.0497  0.1646
38378SOL    HW119945  10.001   1.713   1.156  1.3797  0.4620 -1.2830
38378SOL    HW219946   9.995   1.781   1.021 -0.9734  1.6289 -0.6431
38379SOL     OW19947   8.123   6.371   6.739 -0.1128 -0.5601 -0.1094
38379SOL    HW119948   8.043   6.382   6.688 -0.5274 -2.2433  0.0965
38379SOL    HW219949   8.093   6.346   6.827  0.6153  1.1589  0.6763
38380SOL     OW19950   0.466   2.808   5.265 -0.7798  0.0107 -0.4268
38380SOL    HW119951   0.408   2.776   5.195  1.4174 -1.4766 -1.6663
38380SOL    HW219952   0.414   2.876   5.310 -3.1396 -0.6610 -1.9698
38381SOL     OW19953  10.601   4.936  10.326  0.0281 -0.1599 -0.4483
38381SOL    HW119954  10.535   4.866  10.328 -2.4929  2.0566  0.3896
38381SOL    HW219955  10.653   4.921  10.405 -2.7458  0.7675  1.7405
38382SOL     OW19956  10.810   5.093  12.180  0.0830  0.1353  0.2360
38382SOL    HW119957  10.872   5.047  12.124  0.0798 -0.8656  1.0101
38382SOL    HW219958  10.805   5.181  12.144  0.2862 -0.4034 -1.1458
38383SOL     OW19959   7.559  11.297   7.590 -0.4780 -0.3907  0.0850
38383SOL    HW119960   7.538  11.236   7.519  0.6699  0.2135 -0.8158
38383SOL    HW219961   7.516  11.379   7.564  0.4952  0.0216 -0.2845
38384SOL     OW19962   0.415   3.775   7.108 -0.3815  0.3669 -0.2873
38384SOL    HW119963   0.338   3.809   7.154 -0.8435 -0.5256 -0.3850
38384SOL    HW219964   0.461   3.853   7.077 -2.6448  0.9489 -2.5503
38385SOL     OW19965  11.293   0.656   5.387 -0.3418 -0.1525  0.1427
38385SOL    HW119966  11.266   0.739   5.427 -0.8378 -0.4741  0.4986
38385SOL    HW219967  11.256   0.659   5.299  0.2473  0.3059 -0.0977
38386SOL     OW19968   4.142   9.323   6.401 -0.0802 -0.9967 -0.4638
38386SOL    HW119969   4.097   9.297   6.481 -0.2393  2.5799  0.8032
38386SOL    HW219970   4.234   9.303   6.418 -0.3718 -2.2994 -0.3341
38387SOL     OW19971   8.368   3.601   3.518 -0.0506  0.0801  0.3508
38387SOL    HW119972   8.323   3.558   3.446 -1.1052  1.2935  0.2677
38387SOL    HW219973   8.448   3.549   3.530 -1.6394 -2.4412  0.8366
38388SOL     OW19974   9.420   7.384   8.779 -0.1860  0.3723  0.8126
38388SOL    HW119975   9.513   7.380   8.761 -0.3626  2.1612 -0.7304
38388SOL    HW219976   9.393   7.292   8.788  1.1047 -0.3794 -2.1186
38389SOL     OW19977   2.577   8.530   4.329  0.0527  0.2606  0.0489
38389SOL    HW119978   2.599   8.517   4.421  0.1333  0.2350  0.0266
38389SOL    HW219979   2.495   8.579   4.330 -1.0059 -1.4189  0.1551
38390SOL     OW19980  10.126   4.728   7.005  0.2394  0.6690  0.1314
38390SOL    HW119981  10.035   4.712   6.980 -0.1728  0.5307  1.6109
38390SOL    HW219982  10.168   4.643   6.997  0.8753  1.1384 -2.7680
38391SOL     OW19983   8.730  11.890   4.250  0.4147 -0.0546  0.1757
38391SOL    HW119984   8.820  11.859   4.255  0.9784  1.4675  0.0164
38391SOL    HW219985   8.734  11.980   4.284 -0.6327  0.7942 -1.7765
38392SOL     OW19986   0.777   4.830   2.713 -0.3438 -0.4744  0.2331
38392SOL    HW119987   0.763   4.924   2.727 -0.5659 -0.2253 -1.5068
38392SOL    HW219988   0.870   4.817   2.731 -0.1671  0.2090 -0.1381
38393SOL     OW19989  10.264   6.187   8.247  0.1804  0.4320 -0.3713
38393SOL    HW119990  10.283   6.194   8.341 -0.1651  3.8704 -0.4345
38393SOL    HW219991  10.292   6.098   8.223  0.2410 -0.5755  2.9501
38394SOL     OW19992   5.977   9.989   7.546 -0.1785  0.2870  0.0319
38394SOL    HW119993   5.963   9.916   7.606 -0.3858 -0.4734 -0.9095
38394SOL    HW219994   6.071   9.986   7.527  0.1435  1.3507  1.3144
38395SOL     OW19995   3.908   5.866  11.407  0.0260 -0.6898  0.6164
38395SOL    HW119996   3.941   5.784  11.370  0.9241  0.4462 -1.2777
38395SOL    HW219997   3.984   5.908  11.445 -0.4938 -0.8539  1.8705
38396SOL     OW19998   9.611  11.478   1.194 -0.5721  0.0867 -0.0333
38396SOL    HW119999   9.650  11.398   1.157  0.3024  0.8360 -0.7649
38396SOL    HW220000   9.682  11.541   1.196 -1.3966  1.0362 -0.0041
38397SOL     OW20001   3.523   0.517   7.310  0.0307 -0.7625 -0.8898
38397SOL    HW120002   3.449   0.567   7.343 -0.1102 -0.9973 -0.8438
38397SOL    HW220003   3.518   0.527   7.215  1.4914  1.4150 -0.8097
38398SOL     OW20004  10.061   9.647   3.253  0.4751 -0.3121 -0.3496
38398SOL    HW120005  10.061   9.563   3.208  0.9621 -1.3287  1.4117
38398SOL    HW220006  10.136   9.694   3.217  1.3145 -1.4008 -0.0780
38399SOL     OW20007   1.083   5.031   9.802  0.5031  0.7688  0.3063
38399SOL    HW120008   1.152   4.965   9.806  0.3692  0.6614  0.9841
38399SOL    HW220009   1.126   5.113   9.824  0.7602  0.9977 -0.9626
38400SOL     OW20010   0.184   6.133   3.046 -0.2630  0.1150 -0.4145
38400SOL    HW120011   0.199   6.226   3.029 -2.1488  0.2785 -1.5137
38400SOL    HW220012   0.135   6.103   2.970 -0.7894 -1.4911  0.5125
38401SOL     OW20013   9.452   5.880   2.020  0.4847  0.3280 -0.3605
38401SOL    HW120014   9.503   5.935   2.080  0.1648 -0.7164  0.9041
38401SOL    HW220015   9.433   5.801   2.069  0.9786 -0.9818 -2.1704
38402SOL     OW20016   8.219  10.885  11.366 -0.2698  0.3654  0.0150
38402SOL    HW120017   8.294  10.885  11.425 -1.4798 -0.6831  1.6308
38402SOL    HW220018   8.236  10.814  11.305  1.0772  1.5715 -1.0907
38403SOL     OW20019   4.250  11.987   0.189  0.0638  0.3660  0.1115
38403SOL    HW120020   4.179  11.932   0.223 -1.2142  1.7365 -0.2385
38403SOL    HW220021   4.330  11.944   0.220 -0.9621  0.0755  2.5632
38404SOL     OW20022   8.400   5.406   8.641  0.2866  0.1682  0.2667
38404SOL    HW120023   8.441   5.492   8.641 -0.2198  0.4098  0.5752
38404SOL    HW220024   8.337   5.408   8.569  1.8613 -0.7240 -1.2180
38405SOL     OW20025   1.847  10.088  11.953 -0.2525 -0.0572 -0.2494
38405SOL    HW120026   1.864  10.180  11.933  0.1671 -0.0632  0.0768
38405SOL    HW220027   1.751  10.081  11.951 -0.3186  0.5378  0.3572
38406SOL     OW20028   5.541   2.938  11.959 -0.3481 -0.3798  0.0461
38406SOL    HW120029   5.514   2.949  12.050 -1.7386 -0.3722 -0.3538
38406SOL    HW220030   5.616   2.878  11.963 -1.3637 -1.6427  1.0740
38407SOL     OW20031   3.236   2.519   5.596 -0.1442 -0.1543  0.5058
38407SOL    HW120032   3.259   2.481   5.512  0.2730  0.9847  0.0864
38407SOL    HW220033   3.313   2.569   5.622 -1.2477  1.7742  0.2275
38408SOL     OW20034   7.978   3.800   0.491 -0.9813  0.0047  0.1914
38408SOL    HW120035   7.915   3.867   0.516 -1.3194 -0.7100  1.3154
38408SOL    HW220036   7.999   3.755   0.573  0.1282 -0.5051 -0.3515
38409SOL     OW20037   4.395  12.189   6.588 -0.1085  0.3108 -1.0309
38409SOL    HW120038   4.309  12.146   6.580  0.3787 -1.2574  1.2919
38409SOL    HW220039   4.379  12.263   6.648 -0.1112  0.9768 -1.8306
38410SOL     OW20040  11.195  10.238   1.280  0.1419 -0.2406  0.0111
38410SOL    HW120041  11.236  10.301   1.221 -0.7943  0.4359  0.0534
38410SOL    HW220042  11.124  10.199   1.228 -0.0745 -0.3416  0.3741
38411SOL     OW20043   7.042   6.581   7.027 -0.9035 -0.0679 -0.0490
38411SOL    HW120044   7.133   6.583   7.057 -0.9730 -1.8708  0.3832
38411SOL    HW220045   7.040   6.643   6.954  1.2185 -1.5157 -1.4693
38412SOL     OW20046  10.837  10.350   2.522 -0.3461 -0.0256  0.0941
38412SOL    HW120047  10.832  10.322   2.431  0.5577 -2.2905  0.6753
38412SOL    HW220048  10.930  10.347   2.544 -0.5533  0.4441  1.1287
38413SOL     OW20049  10.865   1.954   4.177  0.0081 -0.2382  0.6852
38413SOL    HW120050  10.894   1.877   4.127 -0.7447 -0.3968  0.4869
38413SOL    HW220051  10.943   2.010   4.180  0.2627 -0.5263 -0.0945
38414SOL     OW20052   1.675   2.589  11.861 -0.5937 -0.2288  0.0846
38414SOL    HW120053   1.756   2.544  11.887 -0.3154  0.6747  0.8277
38414SOL    HW220054   1.611   2.518  11.852 -0.2024 -0.7738  1.3624
38415SOL     OW20055   7.437   3.804   8.705  0.2603 -0.3243  0.5659
38415SOL    HW120056   7.530   3.828   8.705  0.8415 -2.1875 -1.8280
38415SOL    HW220057   7.428   3.746   8.781  1.6361 -1.9395 -0.4461
38416SOL     OW20058   8.770   3.517  12.097 -0.1926 -0.1268  0.1625
38416SOL    HW120059   8.688   3.565  12.094 -0.9133 -1.2582  1.1239
38416SOL    HW220060   8.777   3.475  12.011 -0.0527  0.8452 -0.3152
38417SOL     OW20061   9.582  10.122   0.117  0.2801  0.8554  0.7280
38417SOL    HW120062   9.675  10.144   0.109 -0.1650  2.4323 -0.5985
38417SOL    HW220063   9.579  10.027   0.110  1.7816  0.7931  0.6055
38418SOL     OW20064   0.245  11.734  10.767  0.0204 -0.6144  0.2827
38418SOL    HW120065   0.164  11.782  10.751 -0.3335 -1.2034  0.2500
38418SOL    HW220066   0.261  11.686  10.685 -0.3318 -1.5374  0.7342
38419SOL     OW20067  12.568   9.211   0.698  0.9708 -0.5080  0.0339
38419SOL    HW120068  12.555   9.133   0.752  0.4710  0.7190  1.7918
38419SOL    HW220069  12.509   9.199   0.623 -1.1232 -0.6588  1.6088
38420SOL     OW20070   3.954   5.299   7.339 -0.5255  0.2356  0.2337
38420SOL    HW120071   4.000   5.368   7.292 -0.7592  0.3733  0.2028
38420SOL    HW220072   3.862   5.327   7.338 -0.7451 -0.4613 -0.4680
38421SOL     OW20073   5.110   7.056  10.972  0.1004  0.0130 -0.0121
38421SOL    HW120074   5.111   7.123  10.905 -0.8601  0.8392  0.7572
38421SOL    HW220075   5.051   6.989  10.938 -0.2949  0.3753 -0.0532
38422SOL     OW20076   8.309   4.086  10.036 -0.1646  0.0121 -0.4337
38422SOL    HW120077   8.355   4.147   9.979  0.5410 -1.2046 -1.1965
38422SOL    HW220078   8.271   4.021   9.977 -2.1284  0.4587  0.2483
38423SOL     OW20079  11.976   3.574  12.281  0.1959  0.5832  0.0440
38423SOL    HW120080  11.948   3.659  12.249  0.6692  0.2856 -1.2328
38423SOL    HW220081  11.906   3.514  12.255 -0.1601  0.5790  0.9836
38424SOL     OW20082  11.596   2.887   9.750  0.1989  0.5739  0.1052
38424SOL    HW120083  11.505   2.861   9.761  0.4778 -0.1742  0.7256
38424SOL    HW220084  11.594   2.983   9.749 -0.5595  0.5656  0.3910
38425SOL     OW20085  10.621   5.908   4.001  0.3210  0.3302  0.0695
38425SOL    HW120086  10.595   5.869   3.918 -0.3439 -0.0058  0.4245
38425SOL    HW220087  10.578   5.854   4.067 -2.7320  3.0709  0.5664
38426SOL     OW20088  10.283   0.371   5.947 -0.2040 -0.4071  0.4011
38426SOL    HW120089  10.294   0.361   5.852  2.4688  1.2669  0.4089
38426SOL    HW220090  10.204   0.424   5.956 -1.1169 -1.4870 -0.7878
38427SOL     OW20091   2.954   2.654   0.593 -0.4791  0.0289 -0.3358
38427SOL    HW120092   2.991   2.640   0.505 -0.3482  0.6347 -0.3823
38427SOL    HW220093   2.937   2.748   0.597  0.7758  0.2354  0.7776
38428SOL     OW20094   9.061   5.743   8.958 -0.2328  0.5896  0.3515
38428SOL    HW120095   8.978   5.746   9.006 -0.6402 -2.5462  0.0239
38428SOL    HW220096   9.036   5.724   8.868  0.8172 -0.4500  0.2584
38429SOL     OW20097   5.117   7.544   8.791  0.5198  0.9886 -0.4666
38429SOL    HW120098   5.114   7.634   8.823 -0.3162  0.6991  0.3027
38429SOL    HW220099   5.108   7.490   8.869 -2.3064  0.2578 -1.2062
38430SOL     OW20100  11.882   7.200   0.198  0.2471 -0.3579 -0.4414
38430SOL    HW120101  11.952   7.208   0.263 -0.5084 -2.4289  0.7424
38430SOL    HW220102  11.921   7.150   0.127  0.3432 -0.3258 -0.4119
38431SOL     OW20103   9.368  11.352   5.790  0.2674 -0.1700 -0.1270
38431SOL    HW120104   9.439  11.356   5.853 -0.1847  0.4506  0.3596
38431SOL    HW220105   9.374  11.264   5.752  0.2852 -0.7121  1.0804
38432SOL     OW20106   9.874   3.121   3.188  0.1403  0.2662  0.1149
38432SOL    HW120107   9.917   3.038   3.165  0.6022  0.4348  0.3722
38432SOL    HW220108   9.884   3.128   3.283 -0.7474  0.1444  0.2289
38433SOL     OW20109   4.204   7.705   6.791  0.0907  0.5853  0.0497
38433SOL    HW120110   4.150   7.734   6.718  0.6754  2.3003  0.2513
38433SOL    HW220111   4.178   7.761   6.864  1.3575  0.6934  0.4387
38434SOL     OW20112   4.686   4.347   8.963 -0.4108 -0.2664 -0.0215
38434SOL    HW120113   4.675   4.252   8.969 -0.1555 -0.2768  0.3345
38434SOL    HW220114   4.662   4.380   9.049  1.5686 -0.2324  0.5736
38435SOL     OW20115   2.570   4.761   0.566 -0.1382 -0.1041 -0.0957
38435SOL    HW120116   2.540   4.670   0.568 -0.4562 -0.1564 -2.9434
38435SOL    HW220117   2.664   4.755   0.546  0.0304  0.1803  0.6131
38436SOL     OW20118  10.019   7.094   6.440  0.4580  0.2604 -0.1456
38436SOL    HW120119   9.945   7.080   6.498 -0.0775 -0.5915 -0.9973
38436SOL    HW220120  10.077   7.020   6.456  0.9033  0.6703  0.1709
38437SOL     OW20121   0.330   9.967  10.606 -0.4378 -0.8284 -0.1413
38437SOL    HW120122   0.415   9.924  10.612 -0.6981 -1.2096  0.9352
38437SOL    HW220123   0.285   9.944  10.687 -0.1105  2.5141  1.1443
38438SOL     OW20124   5.085   5.281   2.517 -0.4551 -0.0286 -0.2603
38438SOL    HW120125   5.026   5.236   2.577 -0.6963 -0.7788 -1.0440
38438SOL    HW220126   5.168   5.288   2.565 -1.2494  1.3753  1.0000
38439SOL     OW20127   0.128   6.863   1.537  0.0254 -0.8444  0.4334
38439SOL    HW120128   0.078   6.837   1.460 -0.4138 -0.6571  0.6560
38439SOL    HW220129   0.063   6.895   1.599  0.4495 -0.3102  0.6072
38440SOL     OW20130   8.728   4.611   2.739 -0.8695 -0.1743 -0.0125
38440SOL    HW120131   8.769   4.696   2.756 -3.4125  1.5186 -1.6220
38440SOL    HW220132   8.744   4.560   2.818  1.2942  1.5204  0.7513
38441SOL     OW20133  11.842   3.089   1.342  0.1006  1.2091 -0.0223
38441SOL    HW120134  11.770   3.109   1.402 -0.4136 -2.1270  0.6928
38441SOL    HW220135  11.803   3.029   1.278  2.1077 -0.3621  0.1552
38442SOL     OW20136   8.208   8.958  11.983  0.4897 -0.0592  0.6866
38442SOL    HW120137   8.123   8.948  12.026  0.6916  0.1287  1.1307
38442SOL    HW220138   8.188   9.009  11.904 -0.1927 -2.0714 -0.4953
38443SOL     OW20139   6.077   0.856   2.571 -0.2094  0.1697 -0.0189
38443SOL    HW120140   6.103   0.797   2.500  1.5672  1.6013 -0.6240
38443SOL    HW220141   6.006   0.908   2.534 -2.7583 -2.3307  0.9495
38444SOL     OW20142   7.496   2.925   6.642 -0.2914  0.1847 -0.2866
38444SOL    HW120143   7.580   2.948   6.683 -0.8474  1.3598  0.2545
38444SOL    HW220144   7.437   2.911   6.716 -0.0406 -3.1057 -0.5625
38445SOL     OW20145   0.884  10.740   3.114  0.8328 -0.5803  0.9292
38445SOL    HW120146   0.915  10.829   3.098 -0.7023 -0.4497 -2.3188
38445SOL    HW220147   0.799  10.752   3.157  1.8927 -0.6793  3.1911
38446SOL     OW20148   4.100   3.735   7.176  0.3202 -0.0934 -0.3335
38446SOL    HW120149   4.116   3.744   7.082  0.8931  0.3441 -0.1996
38446SOL    HW220150   4.147   3.655   7.201 -0.1486 -0.4241 -0.4811
38447SOL     OW20151   2.386  11.531   3.363  0.4383 -0.0641 -0.2510
38447SOL    HW120152   2.474  11.546   3.328  0.4198 -0.1822 -0.3521
38447SOL    HW220153   2.327  11.574   3.301  0.5126  1.6340  0.7914
38448SOL     OW20154   2.131   6.620   5.508  0.8746  0.3935 -0.0235
38448SOL    HW120155   2.129   6.555   5.438 -0.3898  1.8305 -1.4049
38448SOL    HW220156   2.088   6.697   5.470  0.0012  1.1844  2.3892
38449SOL     OW20157  10.114   4.136   3.050 -0.6804  0.2645  0.5605
38449SOL    HW120158  10.172   4.182   3.111 -0.1560 -0.9677  1.0231
38449SOL    HW220159  10.168   4.117   2.974 -0.5489 -0.5831  0.8492
38450SOL     OW20160   0.487   5.347   7.164  0.5636 -0.0383 -0.9693
38450SOL    HW120161   0.569   5.330   7.210  0.1402  0.6919  0.1074
38450SOL    HW220162   0.486   5.442   7.151  0.1474 -0.1045 -1.4778
38451SOL     OW20163   8.978   9.088   5.215 -0.2400 -0.8675 -0.3819
38451SOL    HW120164   8.887   9.104   5.240  0.5816  0.2844  2.2278
38451SOL    HW220165   8.993   9.147   5.141 -1.1052  0.3461  0.3764
38452SOL     OW20166  10.963  11.016  12.303 -0.5611 -0.3306  0.3232
38452SOL    HW120167  11.025  11.083  12.332 -0.9890 -0.1207  0.7862
38452SOL    HW220168  10.966  10.949  12.372 -3.3516  1.2932  2.2253
38453SOL     OW20169   6.376   5.141   2.242 -0.7371 -0.2569  0.4954
38453SOL    HW120170   6.462   5.180   2.258 -0.9252  0.4239 -0.0922
38453SOL    HW220171   6.395   5.050   2.217 -0.1548 -0.0086  0.0061
38454SOL     OW20172   7.987   3.769   6.844 -0.3842 -0.3403  0.4468
38454SOL    HW120173   7.953   3.758   6.755 -0.7127 -0.8685  0.6395
38454SOL    HW220174   7.953   3.694   6.893  0.8225 -0.7349  0.7093
38455SOL     OW20175   3.349   1.289  12.642 -0.3218 -1.1237  0.2677
38455SOL    HW120176   3.431   1.276  12.689 -0.0484 -0.4111 -0.0158
38455SOL    HW220177   3.284   1.304  12.711  0.0279 -0.3574  0.4376
38456SOL     OW20178  10.531  10.229  11.486 -0.1366  0.7724 -0.0390
38456SOL    HW120179  10.625  10.222  11.470 -0.2857 -0.5876 -0.5013
38456SOL    HW220180  10.499  10.139  11.477 -1.2533  0.9577  1.5808
38457SOL     OW20181  10.578   6.847   4.896 -0.3555  0.6608  0.3325
38457SOL    HW120182  10.616   6.760   4.900 -0.9371  0.3290 -0.8253
38457SOL    HW220183  10.510   6.848   4.963 -0.8227 -0.0242 -0.1193
38458SOL     OW20184   7.459   1.948   8.607  0.1672 -0.1851  0.3017
38458SOL    HW120185   7.444   1.867   8.560 -1.4788 -0.5400  1.3772
38458SOL    HW220186   7.514   1.923   8.681  0.1974 -0.1940  0.2763
38459SOL     OW20187   1.686   9.418   7.759  0.5805  0.0056  0.1089
38459SOL    HW120188   1.626   9.343   7.757  0.9645 -0.3289  0.9058
38459SOL    HW220189   1.635   9.488   7.798  0.8525 -0.4277  1.2845
38460SOL     OW20190   8.647   3.167   1.249 -0.5253 -0.2918  0.6324
38460SOL    HW120191   8.709   3.159   1.322 -0.9343  0.3359  1.0577
38460SOL    HW220192   8.590   3.091   1.258  0.0976 -0.8058  0.3144
38461SOL     OW20193  10.092   8.199   6.297  0.3202 -0.1083 -0.0891
38461SOL    HW120194  10.155   8.146   6.347 -1.1947 -0.0754  1.9891
38461SOL    HW220195  10.146   8.257   6.245  2.0229 -0.9461  0.6413
38462SOL     OW20196   4.721   6.244   1.745 -0.3827  0.1096 -0.2910
38462SOL    HW120197   4.670   6.185   1.689 -1.4889  0.9535 -0.2146
38462SOL    HW220198   4.727   6.325   1.695  1.9091 -0.2947 -0.7838
38463SOL     OW20199  12.126   9.191  11.919  0.3674 -0.6847  0.1826
38463SOL    HW120200  12.038   9.226  11.911  0.9821  0.4939 -2.4956
38463SOL    HW220201  12.118   9.098  11.895 -0.0800 -0.4863 -0.4507
38464SOL     OW20202  10.590  11.286   9.144  0.0344  0.3256  0.0007
38464SOL    HW120203  10.635  11.316   9.223 -0.8189  0.6451  0.3735
38464SOL    HW220204  10.547  11.364   9.109  2.0187  0.6598 -1.9342
38465SOL     OW20205   2.712   2.596   9.780 -0.2354  0.1436 -0.0931
38465SOL    HW120206   2.788   2.557   9.822 -0.1228 -0.3273 -0.7152
38465SOL    HW220207   2.648   2.606   9.851  0.4938  0.7883  0.4783
38466SOL     OW20208   3.090   3.626  10.340  0.2824 -0.1463  0.0952
38466SOL    HW120209   3.053   3.563  10.279  1.0386 -1.1911  0.6840
38466SOL    HW220210   3.152   3.575  10.392 -1.4369  0.3599  2.7872
38467SOL     OW20211   7.170   9.227   4.410  0.3412 -0.0791  0.4055
38467SOL    HW120212   7.226   9.177   4.351  0.5729  0.5800  0.0598
38467SOL    HW220213   7.216   9.226   4.494  0.1106 -0.8457  0.5287
38468SOL     OW20214   8.313   9.484   6.208 -0.1344 -0.0172  0.5240
38468SOL    HW120215   8.274   9.555   6.157 -0.2571  0.7360  1.6294
38468SOL    HW220216   8.332   9.416   6.144 -0.6859  0.7240 -0.4534
38469SOL     OW20217   3.407   7.296   8.402  0.0334 -0.0854 -0.1142
38469SOL    HW120218   3.330   7.275   8.349  0.6918 -0.3662 -0.9980
38469SOL    HW220219   3.479   7.249   8.359  0.2863 -1.9605  2.1883
38470SOL     OW20220   8.483   4.771  12.389  0.6144  0.5226  0.5827
38470SOL    HW120221   8.415   4.703  12.393  1.4462 -0.4348 -0.6994
38470SOL    HW220222   8.488   4.804  12.478 -0.7295 -0.1813  0.9603
38471SOL     OW20223   5.449   9.438   1.923 -0.5191  0.2422  0.4508
38471SOL    HW120224   5.435   9.366   1.862 -1.4005  1.6219 -1.0547
38471SOL    HW220225   5.361   9.466   1.948 -0.2186  1.5302  0.1018
38472SOL     OW20226   6.546  12.215   5.741 -0.2450 -0.2360 -0.2975
38472SOL    HW120227   6.640  12.199   5.747 -0.2355  0.0368  0.4113
38472SOL    HW220228   6.523  12.195   5.651  0.8707  1.6955 -1.0662
38473SOL     OW20229   9.459  10.353   0.133 -0.2746  0.3545  0.8453
38473SOL    HW120230   9.532  10.294   0.150 -0.4314  0.0850  0.5935
38473SOL    HW220231   9.383  10.296   0.128 -0.2178  0.3886 -0.9036
38474SOL     OW20232  10.080   2.950   8.051 -0.0439 -0.6519  0.4717
38474SOL    HW120233  10.036   2.867   8.071  2.3746 -1.9585  0.7447
38474SOL    HW220234  10.038   3.014   8.108 -0.1335 -2.2573  2.2926
38475SOL     OW20235   8.778  11.612   3.198  0.2164 -0.3332 -0.5949
38475SOL    HW120236   8.797  11.543   3.134 -1.8394 -3.1448  1.5997
38475SOL    HW220237   8.825  11.585   3.277 -0.5473  0.8550  0.3024
38476SOL     OW20238   9.158   4.808   4.111 -0.1937  0.1160 -0.2043
38476SOL    HW120239   9.234   4.754   4.089  0.9052  2.1096 -1.6654
38476SOL    HW220240   9.194   4.881   4.161 -1.2274  0.7791 -0.3884
38477SOL     OW20241   2.733   7.792   9.485  0.1977 -0.4606 -0.0673
38477SOL    HW120242   2.728   7.747   9.569  1.4691 -2.0573 -0.7919
38477SOL    HW220243   2.650   7.839   9.478 -1.2718 -2.7777  0.7091
38478SOL     OW20244   6.630   8.962   8.534 -0.3904 -0.6575 -0.0378
38478SOL    HW120245   6.677   8.981   8.452 -1.7204 -0.5058 -0.7888
38478SOL    HW220246   6.666   9.024   8.597 -1.5007  1.3824 -1.3077
38479SOL     OW20247   0.242  10.431  10.470 -0.0365 -0.3374  0.0380
38479SOL    HW120248   0.161  10.463  10.429  0.4436 -1.1092 -1.6110
38479SOL    HW220249   0.232  10.336  10.472  0.8613 -0.4458 -0.2686
38480SOL     OW20250   4.388   9.794  10.736  0.6868 -0.2401  0.0393
38480SOL    HW120251   4.315   9.736  10.713  0.3229  0.9644 -2.0286
38480SOL    HW220252   4.357   9.842  10.813 -1.7446  1.9006 -2.1046
38481SOL     OW20253   9.469   2.315   4.419 -0.0656  0.2687  0.1573
38481SOL    HW120254   9.457   2.379   4.489  0.9753  1.8885 -1.0898
38481SOL    HW220255   9.406   2.341   4.352 -1.2517 -1.4413  0.5409
38482SOL     OW20256   6.301   5.623   3.630 -0.0904  0.0482 -0.4925
38482SOL    HW120257   6.246   5.546   3.617  1.1465 -0.5258 -2.8572
38482SOL    HW220258   6.375   5.609   3.572  1.9284  1.4162  1.5940
38483SOL     OW20259   6.844   8.210   6.086  0.6610 -0.2370 -0.3776
38483SOL    HW120260   6.923   8.236   6.040  0.9626 -2.4757 -1.2478
38483SOL    HW220261   6.790   8.167   6.019 -0.6539 -0.0231  0.5077
38484SOL     OW20262   7.557   2.663   4.515 -0.8424  0.3097 -0.3063
38484SOL    HW120263   7.577   2.753   4.489 -0.2408  0.8932  1.9110
38484SOL    HW220264   7.484   2.672   4.576 -1.7831 -0.8966 -1.2144
38485SOL     OW20265   8.285   8.980   0.913 -0.2429 -0.1685  0.2242
38485SOL    HW120266   8.315   8.928   0.988  1.0548 -0.3315 -0.3894
38485SOL    HW220267   8.276   8.916   0.842 -2.2245 -0.1548  0.3979
38486SOL     OW20268   6.204   1.890   2.030 -0.2337 -0.4497 -0.8810
38486SOL    HW120269   6.147   1.824   2.069 -1.0356 -0.3894 -1.8971
38486SOL    HW220270   6.145   1.945   1.978  0.6155  0.2176 -1.1674
38487SOL     OW20271   8.847   4.242   6.954 -0.4050 -0.2368 -0.0363
38487SOL    HW120272   8.807   4.160   6.925  1.6264 -2.0253  1.8594
38487SOL    HW220273   8.925   4.251   6.898  0.5862 -0.8486  1.1945
38488SOL     OW20274   9.525   1.162   3.666  0.3019  0.0175 -0.1654
38488SOL    HW120275   9.581   1.105   3.613  0.6316  0.0733  0.1156
38488SOL    HW220276   9.585   1.229   3.699 -0.0661  0.4723 -0.4199
38489SOL     OW20277   2.646   7.068   3.380 -0.0237 -0.7263  0.5160
38489SOL    HW120278   2.721   7.091   3.326 -1.6149  2.2429 -0.6669
38489SOL    HW220279   2.656   7.121   3.460 -0.5008 -0.8007  0.6305
38490SOL     OW20280   3.774   4.352   7.440 -0.1492 -0.3101  0.2185
38490SOL    HW120281   3.732   4.427   7.397 -0.5991 -1.2678 -1.0731
38490SOL    HW220282   3.860   4.385   7.468  0.0840  0.4057 -1.2580
38491SOL     OW20283   2.672   9.154  12.554  0.1470 -0.2172 -0.4790
38491SOL    HW120284   2.655   9.232  12.607 -0.7484 -0.9870  0.3970
38491SOL    HW220285   2.685   9.084  12.619  0.7804 -0.8351 -1.2550
38492SOL     OW20286   4.459   1.266   1.799  0.3282 -0.3566  0.2619
38492SOL    HW120287   4.543   1.295   1.763 -0.9002  2.0850 -0.9503
38492SOL    HW220288   4.397   1.280   1.727 -0.9672 -3.3144  0.6698
38493SOL     OW20289   9.848   8.100  11.114 -0.6150  0.0090 -0.1281
38493SOL    HW120290   9.783   8.091  11.045 -1.7002  0.6991  0.7782
38493SOL    HW220291   9.929   8.120  11.068 -1.7434  2.7358 -1.1212
38494SOL     OW20292  11.799   9.275   2.189  0.0076  0.1359  0.3365
38494SOL    HW120293  11.764   9.336   2.124  0.6423 -0.7934 -0.9049
38494SOL    HW220294  11.815   9.194   2.141 -3.0158 -1.8798  2.3744
38495SOL     OW20295   1.913   2.002   1.565 -0.4420  0.3826 -0.0570
38495SOL    HW120296   1.913   2.057   1.487 -0.2342  0.1725 -0.2031
38495SOL    HW220297   1.822   1.973   1.573 -0.6342  1.0253  0.2189
38496SOL     OW20298   7.116   6.574   5.598 -0.4596 -1.0283 -0.3177
38496SOL    HW120299   7.030   6.615   5.604 -0.7405 -1.6958  0.3927
38496SOL    HW220300   7.178   6.646   5.612 -0.8353 -0.2807 -2.2117
38497SOL     OW20301   4.993   5.985  10.018  0.2203  0.9529 -0.3256
38497SOL    HW120302   4.922   5.924  10.037  0.2262  1.0487  0.0271
38497SOL    HW220303   4.950   6.060   9.976  0.1565  0.8753 -0.3979
38498SOL     OW20304   9.206  11.030   5.043 -0.2770  0.7952  0.1680
38498SOL    HW120305   9.208  10.934   5.044 -0.6842  0.7770 -0.3779
38498SOL    HW220306   9.169  11.054   5.128  0.2638  0.4846  0.4968
38499SOL     OW20307  12.458   0.338   2.478  0.2500 -0.0375 -0.1788
38499SOL    HW120308  12.486   0.430   2.482 -0.3382  0.1497 -0.2093
38499SOL    HW220309  12.487   0.300   2.561  1.2997 -0.0647 -0.5463
38500SOL     OW20310   8.002   9.674  10.167 -0.7482  0.1863 -0.3007
38500SOL    HW120311   7.983   9.761  10.203 -2.1005 -0.5668  0.9495
38500SOL    HW220312   8.047   9.629  10.237  0.6319  0.0886 -1.2185
38501SOL     OW20313   2.641   2.070   4.015  0.2755  1.0784  0.1232
38501SOL    HW120314   2.594   2.058   4.097 -0.1327 -1.2554 -0.3870
38501SOL    HW220315   2.578   2.111   3.956  0.6210  2.9196  0.9634
38502SOL     OW20316  10.259   7.687  11.184 -0.1395  0.4720 -0.2735
38502SOL    HW120317  10.257   7.712  11.277  0.2022 -0.6899  0.0682
38502SOL    HW220318  10.352   7.674  11.166 -0.1888  0.8941 -0.8449
38503SOL     OW20319  10.932   1.611  11.498 -0.1606 -0.6080 -0.3785
38503SOL    HW120320  10.966   1.641  11.414  1.5870 -2.0746 -0.2449
38503SOL    HW220321  10.856   1.667  11.514  0.1514  0.4765 -2.3619
38504SOL     OW20322   7.021   6.300  11.727  0.0501 -0.0330  0.6769
38504SOL    HW120323   7.037   6.395  11.726 -2.3001  0.4405 -1.2844
38504SOL    HW220324   7.026   6.276  11.819  2.2821  1.6402  1.0949
38505SOL     OW20325   0.709  10.434   3.892 -0.5486 -0.1120 -0.0546
38505SOL    HW120326   0.748  10.519   3.872 -1.4681  0.2046 -0.5734
38505SOL    HW220327   0.732  10.378   3.818  0.2000 -0.3788  0.3664
38506SOL     OW20328  12.348  12.572  10.200  0.2763 -0.1073  0.0641
38506SOL    HW120329  12.386  12.531  10.278  1.1737  2.8904  1.3423
38506SOL    HW220330  12.262  12.603  10.229  0.3561  0.4966 -0.3379
38507SOL     OW20331   4.203   0.417   7.219 -0.7144 -0.8291 -0.0805
38507SOL    HW120332   4.278   0.454   7.265  0.1849 -0.0631 -2.0501
38507SOL    HW220333   4.214   0.322   7.227  0.9526 -0.7553 -0.9950
38508SOL     OW20334  11.743   9.490   2.402 -0.5498 -0.4911 -0.3691
38508SOL    HW120335  11.769   9.420   2.342 -0.1432 -0.5579 -0.1160
38508SOL    HW220336  11.733   9.567   2.346 -0.7095 -0.6810 -0.6039
38509SOL     OW20337   3.588  10.532  11.445 -0.0705  0.2205 -0.2034
38509SOL    HW120338   3.564  10.625  11.445  0.9515  0.6687 -4.2674
38509SOL    HW220339   3.664  10.528  11.504 -0.5829  1.7618  0.6387
38510SOL     OW20340  11.355  11.309   8.689  0.0210 -0.7076 -0.1708
38510SOL    HW120341  11.394  11.395   8.673 -0.1109 -0.8166 -1.1104
38510SOL    HW220342  11.382  11.287   8.778  0.2560  0.1995 -0.0062
38511SOL     OW20343  10.007   8.134   9.915 -0.1126  0.3338 -0.0587
38511SOL    HW120344  10.004   8.159   9.822 -1.3222 -0.0110 -0.1287
38511SOL    HW220345   9.915   8.123   9.939  0.1861  0.6350  1.2476
38512SOL     OW20346   9.588  11.108   2.928 -0.6391 -0.1741 -0.5350
38512SOL    HW120347   9.637  11.048   2.983 -0.1282  0.2444 -0.5279
38512SOL    HW220348   9.546  11.168   2.989  0.5540  0.7695 -0.6202
38513SOL     OW20349   8.117   3.523   1.300  0.1600 -0.3395  0.0847
38513SOL    HW120350   8.203   3.541   1.264 -0.4071  0.1557 -1.0524
38513SOL    HW220351   8.065   3.492   1.226 -0.3022 -1.8750  0.9903
38514SOL     OW20352   0.723   7.291  10.679  0.1963  0.1516  0.3087
38514SOL    HW120353   0.643   7.246  10.651  0.8567 -0.0369 -1.3707
38514SOL    HW220354   0.692   7.378  10.706 -0.9265 -0.8483  2.4853
38515SOL     OW20355   9.976   2.319   6.892  0.1513 -0.4922  0.4416
38515SOL    HW120356   9.977   2.321   6.987 -1.5161  0.3322  0.4890
38515SOL    HW220357  10.031   2.245   6.868 -0.9724 -1.9613  2.1171
38516SOL     OW20358   3.258   9.326   6.022 -0.8571 -0.2628 -0.3244
38516SOL    HW120359   3.217   9.260   6.078 -1.4559  0.0182 -0.4252
38516SOL    HW220360   3.349   9.328   6.051 -1.4801  1.0858  1.8611
38517SOL     OW20361  10.632   8.212   6.731 -0.3776 -0.1634  0.2875
38517SOL    HW120362  10.621   8.303   6.704 -2.0679 -0.6725 -0.9555
38517SOL    HW220363  10.603   8.210   6.822 -0.5991  0.4960  0.2354
38518SOL     OW20364   1.086   4.167   1.440  0.2053 -0.1448 -0.0277
38518SOL    HW120365   1.042   4.083   1.448 -0.9987  0.5209  0.6346
38518SOL    HW220366   1.077   4.191   1.348  1.8811 -1.4141 -0.5585
38519SOL     OW20367  11.811   2.222   0.794  0.6389  0.0323 -0.2563
38519SOL    HW120368  11.816   2.232   0.889 -0.7729 -0.2578 -0.1305
38519SOL    HW220369  11.834   2.131   0.777  1.3873  0.2172 -0.2428
38520SOL     OW20370   0.878   7.923   5.343  0.3536 -0.3421  0.0417
38520SOL    HW120371   0.846   7.875   5.419  3.8115 -0.0638  1.8704
38520SOL    HW220372   0.829   8.005   5.344  1.4788  0.4363  3.1822
38521SOL     OW20373   0.016   3.083   6.256 -0.2893 -0.5596 -0.0125
38521SOL    HW120374   0.035   3.169   6.217  2.3380 -1.0600 -0.0165
38521SOL    HW220375  -0.035   3.038   6.189 -0.5781  0.5233 -0.5588
38522SOL     OW20376   9.338   7.416   4.572 -0.1704  0.6749 -0.0289
38522SOL    HW120377   9.317   7.491   4.628  2.1578  0.9931  0.5385
38522SOL    HW220378   9.326   7.340   4.628  0.1091  0.8385  0.2578
38523SOL     OW20379   6.427   2.189   1.439  0.2990  0.5515 -0.0491
38523SOL    HW120380   6.357   2.241   1.401 -1.5031 -1.2593  0.6021
38523SOL    HW220381   6.399   2.173   1.529  0.6015 -1.7386 -0.3073
38524SOL     OW20382   9.514  10.268  11.894 -0.0176  0.2692 -0.4733
38524SOL    HW120383   9.595  10.306  11.860  1.8103 -2.3234  0.6404
38524SOL    HW220384   9.517  10.176  11.865 -1.2402 -0.5514  1.7622
38525SOL     OW20385   2.891  10.561   8.269  0.0692  0.2462 -0.5830
38525SOL    HW120386   2.913  10.653   8.283 -1.3469  0.6565 -0.8252
38525SOL    HW220387   2.957  10.529   8.208  0.7818  1.0081 -0.2275
38526SOL     OW20388   5.348   9.997   4.513 -0.1126 -0.1801  0.6522
38526SOL    HW120389   5.335  10.092   4.506  1.1771  0.0132  0.5233
38526SOL    HW220390   5.264   9.963   4.542 -1.1231  0.7906 -0.9972
38527SOL     OW20391   3.651   4.887  11.500  0.4395  0.5232  0.3697
38527SOL    HW120392   3.614   4.967  11.462 -1.4554  0.4014  1.7712
38527SOL    HW220393   3.625   4.818  11.440 -0.8073  0.5794  0.8039
38528SOL     OW20394   1.771  12.126   1.003 -0.4313 -0.1864  0.4241
38528SOL    HW120395   1.717  12.130   0.924 -0.8586 -0.6715  0.6851
38528SOL    HW220396   1.836  12.058   0.986 -1.9545 -1.9768  1.3364
38529SOL     OW20397  10.000   0.332  12.283  0.7064 -0.0737 -0.3091
38529SOL    HW120398  10.040   0.337  12.370  0.2505  1.6238 -0.1502
38529SOL    HW220399  10.070   0.301  12.226  1.2615 -0.3779  0.5121
38530SOL     OW20400  11.820   7.865   2.147  0.1292  0.1931 -0.0886
38530SOL    HW120401  11.798   7.773   2.161 -0.3900  0.4757  1.0737
38530SOL    HW220402  11.747   7.914   2.185 -0.0421  1.0980 -1.4810
38531SOL     OW20403   5.306   8.732  10.711 -0.3052 -0.4945 -0.3921
38531SOL    HW120404   5.220   8.698  10.734 -0.4429  0.0408 -0.0968
38531SOL    HW220405   5.359   8.715  10.789 -0.8139  1.4758  0.4280
38532SOL     OW20406  12.399   0.229   1.340 -0.6491  0.1763 -0.2562
38532SOL    HW120407  12.363   0.290   1.275 -1.8267 -0.2394 -0.0176
38532SOL    HW220408  12.362   0.144   1.317  0.2768 -0.2888 -0.0532
38533SOL     OW20409   1.086   0.898  11.783  0.4933  0.4786 -0.1739
38533SOL    HW120410   1.072   0.967  11.718 -3.3625 -0.1368 -0.2574
38533SOL    HW220411   1.024   0.918  11.853  2.1246 -0.7528  1.7427
38534SOL     OW20412   5.396   9.700   7.919  0.1921  0.2863  0.0890
38534SOL    HW120413   5.404   9.650   7.999  1.0750  0.9696  0.4429
38534SOL    HW220414   5.306   9.735   7.921 -0.3446 -1.0346 -0.0488
38535SOL     OW20415   2.149  10.793  10.589 -0.0969  0.6545 -0.4691
38535SOL    HW120416   2.137  10.784  10.684 -0.3980  2.0576 -0.3449
38535SOL    HW220417   2.197  10.714  10.563 -2.8207 -1.4102  0.2869
38536SOL     OW20418   7.168   5.010   2.967  0.2404 -0.2055  0.0586
38536SOL    HW120419   7.148   5.078   2.903  2.3009  1.0009  0.6089
38536SOL    HW220420   7.248   4.968   2.935  0.5801 -0.4428  1.1537
38537SOL     OW20421  11.299   5.589   3.932  0.0076  0.3196  0.5437
38537SOL    HW120422  11.380   5.538   3.940  0.8223  0.9865 -2.1238
38537SOL    HW220423  11.239   5.531   3.884 -1.2230 -0.2306  2.6444
38538SOL     OW20424   3.075   9.401   3.006 -0.0513 -0.5505  0.4027
38538SOL    HW120425   2.995   9.354   2.983 -0.8808  1.1816 -0.4425
38538SOL    HW220426   3.051   9.453   3.083  0.4624 -0.5147  0.5457
38539SOL     OW20427   0.846   0.721   0.539  0.3584 -0.4804  0.3637
38539SOL    HW120428   0.869   0.803   0.495  0.6507 -0.4553  0.5572
38539SOL    HW220429   0.824   0.661   0.468 -0.4689 -0.0550  0.2484
38540SOL     OW20430   5.462   4.383   9.881 -0.1764 -0.1440  0.2228
38540SOL    HW120431   5.375   4.377   9.921 -1.1415 -1.5669 -1.9120
38540SOL    HW220432   5.455   4.456   9.819 -0.0392 -0.6268 -0.3678
38541SOL     OW20433   9.270   5.292   1.291 -0.5041  0.3250 -0.3697
38541SOL    HW120434   9.366   5.289   1.292 -0.5247 -1.4011 -0.6450
38541SOL    HW220435   9.249   5.383   1.308  1.1902  0.7043 -0.1231
38542SOL     OW20436   0.876   0.974  11.951  0.1829 -0.7142 -0.3365
38542SOL    HW120437   0.888   0.978  12.046  1.7222 -0.6482 -0.5202
38542SOL    HW220438   0.905   1.060  11.919 -0.2570 -0.7624 -0.8922
38543SOL     OW20439  10.581  10.377   3.732  0.4117  0.2654  0.1870
38543SOL    HW120440  10.528  10.360   3.810 -0.0191  0.5596 -0.0423
38543SOL    HW220441  10.555  10.465   3.704 -0.1662 -0.2252 -0.8688
38544SOL     OW20442   5.799   2.176   2.372 -0.1200 -0.3958 -0.0449
38544SOL    HW120443   5.753   2.229   2.306  2.8858  0.1848 -1.8365
38544SOL    HW220444   5.784   2.085   2.344 -1.9729 -0.3835  0.7435
38545SOL     OW20445   7.819   0.627   0.940  0.1655 -0.6653  0.7251
38545SOL    HW120446   7.788   0.708   0.981 -0.2712 -0.3717 -0.1514
38545SOL    HW220447   7.899   0.652   0.895 -0.2966 -0.5717 -0.0557
38546SOL     OW20448  11.325   3.446   6.002  0.6408 -0.2240  0.2127
38546SOL    HW120449  11.413   3.479   6.021  2.6923 -4.9136  0.2799
38546SOL    HW220450  11.286   3.430   6.088 -1.0434  3.0454  0.2225
38547SOL     OW20451  10.605   5.898   0.357  0.0810 -0.5317 -0.2894
38547SOL    HW120452  10.617   5.992   0.340 -0.9765 -0.5167 -1.0707
38547SOL    HW220453  10.646   5.884   0.442  0.5588  0.5660 -0.3125
38548SOL     OW20454   6.863   1.294   8.656 -0.4161  0.0143 -0.5432
38548SOL    HW120455   6.879   1.259   8.744  1.1355  2.0084  0.0622
38548SOL    HW220456   6.787   1.351   8.666 -1.3424 -1.1211 -0.9364
38549SOL     OW20457  10.583   8.653   8.527 -0.2333  0.1911  0.1840
38549SOL    HW120458  10.568   8.655   8.622 -0.9046 -0.0635  0.0886
38549SOL    HW220459  10.499   8.679   8.489 -0.7652 -2.1815 -0.4052
38550SOL     OW20460  11.240   3.034   2.082  0.0014 -0.6482 -0.4419
38550SOL    HW120461  11.191   2.985   2.148  1.0573 -0.9359  0.1576
38550SOL    HW220462  11.276   3.109   2.130 -0.5521  0.0306 -1.0639
38551SOL     OW20463   9.255  11.152  10.733  0.2931 -0.4744  0.2208
38551SOL    HW120464   9.224  11.242  10.746  0.3985 -0.6104  1.5470
38551SOL    HW220465   9.346  11.162  10.706  0.3626 -0.1748  0.5509
38552SOL     OW20466   7.432  10.329   9.284 -0.0776  0.1903  0.1463
38552SOL    HW120467   7.412  10.369   9.199  1.3217  0.4673 -0.0635
38552SOL    HW220468   7.471  10.399   9.336  0.1604 -0.2856  0.6198
38553SOL     OW20469   3.748  11.193   6.624 -0.4615  0.9114  0.1517
38553SOL    HW120470   3.698  11.221   6.701 -0.5648 -0.9571  0.8028
38553SOL    HW220471   3.682  11.170   6.559 -0.4516 -0.3761  0.5784
38554SOL     OW20472  11.687   7.886  10.941 -0.2581 -0.6214 -0.1805
38554SOL    HW120473  11.619   7.915  11.001  0.4154 -0.4184  0.4949
38554SOL    HW220474  11.749   7.959  10.938 -0.4851 -0.4515 -1.4578
38555SOL     OW20475   4.332   1.500   9.907  0.1400 -0.4921  0.2619
38555SOL    HW120476   4.300   1.566   9.846 -2.0109 -1.2279  0.5279
38555SOL    HW220477   4.379   1.550   9.974 -0.0114  0.5839 -0.4054
38556SOL     OW20478   2.580   6.625  10.327 -0.6448  0.5716 -0.5371
38556SOL    HW120479   2.659   6.655  10.371 -0.0953  0.8810 -1.6815
38556SOL    HW220480   2.546   6.556  10.383 -0.1523  1.1595  0.5086
38557SOL     OW20481   2.259   0.485   2.222 -0.6076 -0.1707 -0.1987
38557SOL    HW120482   2.243   0.572   2.260 -1.8492 -0.5253  0.1355
38557SOL    HW220483   2.225   0.491   2.133  1.1988  0.2897 -0.8979
38558SOL     OW20484   5.446   6.924  11.517  0.2751  0.2895  0.4932
38558SOL    HW120485   5.505   6.993  11.547  0.6006  0.3356 -0.2189
38558SOL    HW220486   5.466   6.849  11.573 -0.2673  0.8444  1.4455
38559SOL     OW20487  10.033   9.873  10.675 -0.4476  0.2856 -0.0441
38559SOL    HW120488  10.128   9.858  10.681 -0.4115  0.9947  2.2392
38559SOL    HW220489  10.020   9.909  10.587  1.1482 -1.3197 -1.0129
38560SOL     OW20490   5.666   8.368   7.253  0.2483 -0.2276 -0.1427
38560SOL    HW120491   5.686   8.275   7.257 -0.6346 -0.4018  0.6929
38560SOL    HW220492   5.655   8.386   7.160 -0.1452 -1.1034 -0.2807
38561SOL     OW20493   4.300   9.520   8.358  0.4031 -0.0527  0.3997
38561SOL    HW120494   4.238   9.589   8.381  0.0025 -0.1306 -0.4487
38561SOL    HW220495   4.351   9.507   8.439  1.4683  2.2383  0.1875
38562SOL     OW20496   7.465  12.222   3.522  0.4229  0.3341 -0.0201
38562SOL    HW120497   7.498  12.223   3.612  0.5558 -2.8360  0.0602
38562SOL    HW220498   7.390  12.163   3.525  1.2759 -0.9689 -2.2308
38563SOL     OW20499  10.174   6.899   2.097 -0.3633 -0.7608 -0.1418
38563SOL    HW120500  10.177   6.919   2.191  4.2432  0.8029 -0.3435
38563SOL    HW220501  10.155   6.984   2.056  1.3790 -0.5415 -0.5929
38564SOL     OW20502   4.207  11.351  11.524  0.5480  0.1493  0.2580
38564SOL    HW120503   4.206  11.446  11.534  3.0253  0.3870 -1.0221
38564SOL    HW220504   4.268  11.320  11.591  0.3304 -0.4646  0.1816
38565SOL     OW20505   5.491  11.896   1.449 -0.5824  0.4378 -0.3175
38565SOL    HW120506   5.490  11.802   1.461  0.6276  0.6057  1.5927
38565SOL    HW220507   5.453  11.910   1.362 -0.8548 -1.7743 -0.6087
38566SOL     OW20508  12.571   9.878   3.568  0.5620  0.1500  0.4216
38566SOL    HW120509  12.524   9.804   3.606  0.5129  0.2394  0.5341
38566SOL    HW220510  12.609   9.843   3.487  0.2263  0.1026  0.2828
38567SOL     OW20511   3.384   3.666   9.053  0.8765 -0.1876 -0.1625
38567SOL    HW120512   3.332   3.639   9.129  0.6133  0.5126 -0.0826
38567SOL    HW220513   3.385   3.762   9.058 -0.4388 -0.0336 -1.8963
38568SOL     OW20514   6.983   9.407   3.450  0.5259 -0.6744 -0.6446
38568SOL    HW120515   7.003   9.394   3.357  0.7046 -1.2720 -0.5288
38568SOL    HW220516   7.053   9.464   3.482 -0.9903  1.8174 -1.4623
38569SOL     OW20517   1.638   5.474   1.613 -0.0598 -0.2898 -0.3806
38569SOL    HW120518   1.609   5.565   1.608  0.9771  0.1283  0.6063
38569SOL    HW220519   1.586   5.428   1.548 -0.3796  1.0722 -1.1192
38570SOL     OW20520   0.956  10.534   1.055 -0.4542  0.4840 -0.3722
38570SOL    HW120521   0.980  10.486   1.135 -0.6663  0.8517 -0.0832
38570SOL    HW220522   0.864  10.515   1.042 -0.8711  1.7927  0.4524
38571SOL     OW20523   5.687   5.228   8.078 -0.0762  0.3304  0.5151
38571SOL    HW120524   5.641   5.170   8.016 -0.4782  1.3032 -0.1343
38571SOL    HW220525   5.772   5.242   8.038 -0.2775  0.8310  0.2511
38572SOL     OW20526   7.677   0.143   0.673  0.1120 -0.1924 -0.3196
38572SOL    HW120527   7.627   0.106   0.600  0.8681 -3.4672  0.6766
38572SOL    HW220528   7.767   0.115   0.658  0.2174 -1.3994  2.0345
38573SOL     OW20529   4.337   1.508   8.436 -0.7429 -0.0651 -0.3957
38573SOL    HW120530   4.309   1.418   8.454  2.5283 -1.0599  0.4361
38573SOL    HW220531   4.349   1.548   8.522  1.6067 -0.2231 -0.5843
38574SOL     OW20532   2.070   9.609   9.914 -0.1080 -0.7800  0.1618
38574SOL    HW120533   2.011   9.537   9.890  0.9520 -0.5706 -3.6201
38574SOL    HW220534   2.029   9.687   9.876  0.9802 -0.0952  0.3595
38575SOL     OW20535   0.458   2.879   9.109 -0.3329 -0.1226  0.4557
38575SOL    HW120536   0.469   2.937   9.184 -1.1137 -0.3717  0.7769
38575SOL    HW220537   0.401   2.809   9.141  0.0789 -0.7226 -0.1101
38576SOL     OW20538   6.272   0.425  11.545 -0.3818  0.1102  0.1594
38576SOL    HW120539   6.276   0.466  11.458  0.4197  0.4730  0.3515
38576SOL    HW220540   6.316   0.488  11.603 -0.6581 -0.2552  0.7801
38577SOL     OW20541   0.415   6.868   6.182  0.2901  0.2428 -0.2198
38577SOL    HW120542   0.375   6.894   6.265 -1.5841 -1.2147 -0.5894
38577SOL    HW220543   0.342   6.864   6.120  1.3214 -0.6052 -1.4326
38578SOL     OW20544   0.845   5.563   5.598 -0.1283  0.1230 -0.1155
38578SOL    HW120545   0.894   5.481   5.591 -0.3821 -0.1505  1.0333
38578SOL    HW220546   0.753   5.537   5.593 -0.2263  0.2571  0.7701
38579SOL     OW20547   6.313   2.146   3.623  0.3326  0.4357  0.1926
38579SOL    HW120548   6.275   2.154   3.711 -4.0954 -0.4905 -1.3545
38579SOL    HW220549   6.308   2.052   3.603  2.3928  0.4528 -0.7134
38580SOL     OW20550   6.760  12.359   9.544  0.0935  0.6135 -0.7902
38580SOL    HW120551   6.746  12.355   9.638  0.5572 -1.5481 -0.7600
38580SOL    HW220552   6.852  12.386   9.534  0.8892 -1.7861 -0.4957
38581SOL     OW20553   8.861   6.968   0.156 -0.6046  0.1086 -0.4220
38581SOL    HW120554   8.934   6.936   0.209 -0.6934  0.8741  0.1811
38581SOL    HW220555   8.785   6.917   0.186 -0.6270  0.4382  0.0950
38582SOL     OW20556   5.070   8.009   3.098  0.0284 -0.0809 -0.4386
38582SOL    HW120557   5.098   8.032   3.186 -0.7989 -0.2294 -0.1213
38582SOL    HW220558   5.139   8.042   3.041  0.3343  0.4540  0.2256
38583SOL     OW20559   8.074  10.803   4.947  0.3759 -0.1000  0.0922
38583SOL    HW120560   8.160  10.787   4.986  0.2970  1.7471  1.1407
38583SOL    HW220561   8.084  10.778   4.855  0.7644 -3.9501  1.0001
38584SOL     OW20562   1.583   3.298   1.797  0.4284  0.2317  0.1241
38584SOL    HW120563   1.655   3.298   1.861  1.4542 -0.9703 -0.9720
38584SOL    HW220564   1.558   3.206   1.789 -1.2705  0.6230  0.4686
38585SOL     OW20565   9.544  12.072   7.737 -0.5065 -0.2065 -0.0962
38585SOL    HW120566   9.596  12.138   7.692  0.6301 -1.2489 -0.3761
38585SOL    HW220567   9.454  12.088   7.708 -0.0357  0.2474 -1.3825
38586SOL     OW20568   3.164  10.485  10.299  0.5776 -0.2282  0.1755
38586SOL    HW120569   3.121  10.440  10.372 -0.2535 -0.6395 -0.5576
38586SOL    HW220570   3.100  10.548  10.268  0.8778 -0.1393 -0.2851
38587SOL     OW20571   0.301   2.571   6.517 -0.1733  0.1795  0.3189
38587SOL    HW120572   0.369   2.576   6.584  1.4558 -0.0761 -1.2083
38587SOL    HW220573   0.220   2.591   6.562  1.0629  1.6833  2.0030
38588SOL     OW20574  10.373   9.222   6.914  0.0641 -0.3453  0.0798
38588SOL    HW120575  10.444   9.226   6.978 -0.6230 -0.4541  0.8617
38588SOL    HW220576  10.403   9.276   6.841  0.5870  0.3199  0.7723
38589SOL     OW20577   5.968  11.379   6.973 -0.1998 -0.2280 -0.0338
38589SOL    HW120578   6.023  11.432   7.030 -2.7641  1.6702  0.8499
38589SOL    HW220579   5.993  11.406   6.884  0.2075  0.6768  0.3467
38590SOL     OW20580   1.353   2.396  11.467 -0.8491 -0.3016 -0.3850
38590SOL    HW120581   1.317   2.308  11.457 -0.7538 -0.3076 -0.6931
38590SOL    HW220582   1.277   2.454  11.462 -0.8785 -0.3487 -0.4818
38591SOL     OW20583   9.242   9.458   4.323  0.6967  0.5513 -0.0803
38591SOL    HW120584   9.161   9.475   4.371  1.0394 -1.3108  1.2734
38591SOL    HW220585   9.302   9.425   4.389  1.7697 -0.4165 -1.4748
38592SOL     OW20586  10.130   7.193   5.770  0.3112  0.0797  0.2001
38592SOL    HW120587  10.052   7.247   5.761  1.0025  0.8177 -1.8461
38592SOL    HW220588  10.162   7.212   5.858 -0.8478  1.0812  0.4347
38593SOL     OW20589   4.872  10.384   5.735 -0.3416 -0.1001  0.1081
38593SOL    HW120590   4.867  10.476   5.711  2.1181 -0.1550 -0.8908
38593SOL    HW220591   4.835  10.381   5.823  0.7283  2.1162  0.7289
38594SOL     OW20592   5.770   4.929   4.314 -0.7661  0.2534  0.3545
38594SOL    HW120593   5.678   4.934   4.339 -0.9755 -0.1106 -0.3390
38594SOL    HW220594   5.789   5.013   4.273 -1.0258 -0.0002 -0.2915
38595SOL     OW20595   8.885   5.100   6.244  0.6473 -0.0213 -0.3098
38595SOL    HW120596   8.854   5.157   6.173  0.1300 -0.7741 -0.7026
38595SOL    HW220597   8.956   5.150   6.286  0.4683  0.7395 -0.8910
38596SOL     OW20598   5.908  12.491  10.098 -0.9771  0.0213  0.1662
38596SOL    HW120599   5.915  12.440  10.018  0.1855 -1.3826  1.1168
38596SOL    HW220600   5.953  12.573  10.079  0.1053 -0.6693 -0.3516
38597SOL     OW20601   2.380   8.254   3.336 -0.6062  0.4171 -0.2664
38597SOL    HW120602   2.329   8.226   3.259 -0.0466  1.4880 -1.0517
38597SOL    HW220603   2.364   8.348   3.342 -1.3015  0.2235  1.4579
38598SOL     OW20604  12.406  10.574  11.609 -0.4481  0.0699  0.0041
38598SOL    HW120605  12.358  10.612  11.682  0.1250 -0.5538  0.7325
38598SOL    HW220606  12.495  10.609  11.618  0.0831 -1.3553  0.6787
38599SOL     OW20607   2.974  11.695   8.192 -0.3548  0.5272  0.0198
38599SOL    HW120608   3.042  11.635   8.222 -1.0854  0.4969  1.7089
38599SOL    HW220609   2.917  11.707   8.268 -2.1431  0.6831 -1.2784
38600SOL     OW20610   9.243   8.948   0.545 -0.4467  0.3135  0.6626
38600SOL    HW120611   9.200   8.917   0.625  0.1861 -0.3310  0.7681
38600SOL    HW220612   9.237   8.875   0.484 -0.6689  0.6982  0.2121
38601SOL     OW20613   0.660   0.769   6.377 -0.2452  0.1745  0.0887
38601SOL    HW120614   0.690   0.743   6.464 -1.6363  0.2928  0.6218
38601SOL    HW220615   0.715   0.844   6.354 -1.1943  1.4362  1.7422
38602SOL     OW20616  11.972   1.625   7.932  0.2659  0.2088  0.4367
38602SOL    HW120617  11.911   1.635   8.006 -1.9067  4.0530 -1.5336
38602SOL    HW220618  12.041   1.690   7.950  0.7954 -0.2265 -0.0075
38603SOL     OW20619  12.087  12.440   9.331 -0.0006  0.3125 -0.5711
38603SOL    HW120620  12.129  12.520   9.364 -2.1658  1.5616 -0.6646
38603SOL    HW220621  12.065  12.460   9.240 -0.1982 -0.5547 -0.7214
38604SOL     OW20622   9.055   1.187   2.469  0.1759 -0.6340 -0.1484
38604SOL    HW120623   9.018   1.108   2.509  0.5627  0.2836  2.1729
38604SOL    HW220624   9.132   1.156   2.421  0.5298 -1.6455  1.0133
38605SOL     OW20625   5.551   6.649   5.440  0.5586 -0.2003 -0.6045
38605SOL    HW120626   5.571   6.721   5.499  1.8397 -0.2326 -0.9797
38605SOL    HW220627   5.539   6.573   5.497  1.8010 -0.2339 -0.3689
38606SOL     OW20628   9.574  10.958   8.329  0.0018  0.3207  0.4360
38606SOL    HW120629   9.583  10.863   8.339 -2.0540  0.1064  0.8748
38606SOL    HW220630   9.636  10.981   8.260  0.6440 -1.3217  0.4183
38607SOL     OW20631   4.529  11.128   7.294 -0.0042  0.1793 -0.3728
38607SOL    HW120632   4.530  11.219   7.322  0.8461  0.3963 -1.0431
38607SOL    HW220633   4.569  11.130   7.207 -0.7455 -0.7236 -0.7463
38608SOL     OW20634  11.618   9.936   4.789 -0.8930  0.0913  0.6093
38608SOL    HW120635  11.711   9.950   4.811 -0.6334  1.2586 -1.0432
38608SOL    HW220636  11.620   9.877   4.714 -1.4636  0.2938  0.4280
38609SOL     OW20637  10.917   7.445   9.155  0.2354  0.4285 -0.8702
38609SOL    HW120638  11.005   7.408   9.159 -1.0847 -3.2735 -1.7256
38609SOL    HW220639  10.882   7.433   9.243 -0.5468 -1.5017 -1.4045
38610SOL     OW20640   6.745  11.628  10.539  0.0780  0.1459 -0.1922
38610SOL    HW120641   6.657  11.600  10.514 -0.2555 -0.2218  1.2683
38610SOL    HW220642   6.788  11.549  10.569  0.2908  0.6065  0.7661
38611SOL     OW20643   6.961   6.566   4.108 -0.1014 -0.2285 -0.0803
38611SOL    HW120644   6.983   6.560   4.015  1.5532  1.1405  0.1753
38611SOL    HW220645   7.026   6.510   4.151 -1.0774 -1.1384  0.2518
38612SOL     OW20646   6.402   2.963   4.590 -0.5859 -0.3094  0.5547
38612SOL    HW120647   6.381   3.045   4.546  0.5462  0.5985  1.6555
38612SOL    HW220648   6.425   2.903   4.518 -0.8821  0.4764 -0.2152
38613SOL     OW20649   0.132   1.062   9.643  0.7905 -0.2405 -0.2729
38613SOL    HW120650   0.040   1.088   9.647  0.4458 -1.5091  0.5450
38613SOL    HW220651   0.130   0.967   9.631  1.9621 -0.5461  1.5247
38614SOL     OW20652   7.194   2.069   2.529  0.3122  0.1885  0.5972
38614SOL    HW120653   7.153   2.066   2.615 -0.1612  0.7665  0.3896
38614SOL    HW220654   7.213   1.977   2.509 -1.1941 -0.1316  0.5384
38615SOL     OW20655  10.164  10.139   5.871  0.2587 -0.2234  0.2880
38615SOL    HW120656  10.247  10.157   5.916  0.6781  0.5926 -0.7808
38615SOL    HW220657  10.180  10.058   5.824  0.2607 -0.3619  0.5240
38616SOL     OW20658   0.866   1.037   0.660 -0.1968 -0.1659 -0.0663
38616SOL    HW120659   0.847   1.067   0.571 -0.9232 -0.0585  0.1181
38616SOL    HW220660   0.956   1.004   0.655  0.5307  1.7635 -0.3488
38617SOL     OW20661   9.928   2.865  10.103 -0.4025 -0.3334  0.1623
38617SOL    HW120662   9.833   2.857  10.092 -0.2286 -1.0336 -1.0875
38617SOL    HW220663   9.952   2.943  10.052 -0.3894  0.2711  1.0806
38618SOL     OW20664   4.769   1.102   7.529  0.0732 -0.4089 -0.8902
38618SOL    HW120665   4.810   1.155   7.598 -2.0710  2.1971 -1.4112
38618SOL    HW220666   4.774   1.012   7.561  0.9144  0.4640  1.7098
38619SOL     OW20667   5.957   4.612   3.000 -0.3546 -0.3352 -0.4898
38619SOL    HW120668   5.973   4.548   2.930  0.2241 -0.7564  0.0186
38619SOL    HW220669   6.009   4.581   3.074 -1.8043 -0.5167  0.5073
38620SOL     OW20670   2.295  10.843   2.814 -0.5422 -0.1202 -0.3533
38620SOL    HW120671   2.320  10.858   2.905 -2.2983  0.8395  0.0215
38620SOL    HW220672   2.236  10.768   2.817 -0.8590  0.1074 -0.6336
38621SOL     OW20673   8.912   5.519   2.034  0.4934 -0.1273  0.7518
38621SOL    HW120674   8.991   5.485   2.076 -0.2322 -0.4010  1.9614
38621SOL    HW220675   8.869   5.442   1.998  0.8762  0.0487 -0.0995
38622SOL     OW20676   8.051   7.255  11.303 -0.2420  0.0350 -0.0310
38622SOL    HW120677   8.137   7.239  11.340 -0.1479  0.0600 -0.2395
38622SOL    HW220678   8.017   7.330  11.352 -1.0449 -1.3079  1.5609
38623SOL     OW20679   1.589   9.742   1.317 -0.1652 -0.2400  0.3425
38623SOL    HW120680   1.631   9.657   1.322 -2.1809 -1.2497  2.0792
38623SOL    HW220681   1.560   9.750   1.226  0.7677 -1.0147 -0.0352
38624SOL     OW20682   7.295  12.603  11.226 -0.8539 -0.1282  0.4180
38624SOL    HW120683   7.297  12.611  11.131  1.9032  0.7382  0.4468
38624SOL    HW220684   7.209  12.565  11.245 -1.6565  0.0404 -2.3528
38625SOL     OW20685   4.881   5.936  10.936  0.0241  0.8627  1.3277
38625SOL    HW120686   4.942   5.895  10.874  0.2483  0.7331  1.6309
38625SOL    HW220687   4.881   6.029  10.912  0.1990  0.8329  1.2074
38626SOL     OW20688   2.285   0.237   5.767 -0.4269  0.0725  0.4086
38626SOL    HW120689   2.268   0.149   5.799 -0.0872  0.2303  1.0409
38626SOL    HW220690   2.257   0.294   5.839  0.5026  0.4270  0.4994
38627SOL     OW20691   3.857  11.479   5.991 -0.2546 -0.0569 -0.1639
38627SOL    HW120692   3.830  11.524   6.072  0.1277 -0.4193  0.1692
38627SOL    HW220693   3.942  11.519   5.970  0.4356 -1.1008  0.5308
38628SOL     OW20694   1.759   5.074   3.903  0.4589 -0.4632  0.0953
38628SOL    HW120695   1.700   5.044   3.972  0.6138 -1.5250 -0.2173
38628SOL    HW220696   1.757   5.170   3.910 -2.1031 -0.3774 -0.5511
38629SOL     OW20697   4.450   0.983   5.229  0.0704  0.6570  0.1248
38629SOL    HW120698   4.466   0.889   5.222  0.0914  0.7972 -2.4100
38629SOL    HW220699   4.533   1.024   5.201  0.1864  1.4677  1.5424
38630SOL     OW20700   4.650   8.937   9.462 -0.1239  0.2814  0.1287
38630SOL    HW120701   4.646   8.841   9.458  1.0952  0.2372 -0.5045
38630SOL    HW220702   4.712   8.955   9.533 -0.3625  0.6047  0.2564
38631SOL     OW20703   8.679  11.110   2.178 -0.3772  0.1283 -0.2062
38631SOL    HW120704   8.603  11.091   2.232  0.0784  0.5374  0.5907
38631SOL    HW220705   8.660  11.194   2.137 -0.5244  0.0397 -0.3182
38632SOL     OW20706  11.772   2.534   7.977  0.0313  0.1390  0.5777
38632SOL    HW120707  11.823   2.525   8.057  1.5543  0.6728 -0.2923
38632SOL    HW220708  11.737   2.623   7.980 -0.0250  0.1129  0.7069
38633SOL     OW20709  10.822   5.638   8.069 -0.2057 -0.5986  0.0797
38633SOL    HW120710  10.874   5.704   8.115 -1.7194 -0.3324  1.4887
38633SOL    HW220711  10.798   5.681   7.986  0.7421 -0.2777 -0.0481
38634SOL     OW20712   6.585   8.701   5.234  0.4656  0.3346 -0.9236
38634SOL    HW120713   6.560   8.794   5.228 -0.6494  0.1020 -0.0716
38634SOL    HW220714   6.504   8.653   5.217  0.3449 -0.4447  1.4748
38635SOL     OW20715   0.695   7.553   3.719  0.5359 -0.1946  0.2501
38635SOL    HW120716   0.652   7.485   3.668 -1.8661  0.7236  0.8843
38635SOL    HW220717   0.789   7.535   3.711  0.0918 -1.9150 -1.8154
38636SOL     OW20718   4.168   9.379   6.966  0.0157 -0.3362  0.3152
38636SOL    HW120719   4.173   9.404   7.058  0.8974 -0.2633  0.2638
38636SOL    HW220720   4.094   9.428   6.931  1.0906  1.4992  0.4527
38637SOL     OW20721   1.083  10.448  10.314  0.1726 -0.5003  0.1796
38637SOL    HW120722   0.994  10.481  10.328 -0.3654 -1.3964 -1.0221
38637SOL    HW220723   1.114  10.427  10.401 -0.4442  0.6733  0.7174
38638SOL     OW20724   0.841   2.312  11.886  0.3257 -0.1764  0.2721
38638SOL    HW120725   0.773   2.376  11.866  1.1291  0.4950 -0.4238
38638SOL    HW220726   0.812   2.232  11.842  0.4380  0.3715 -0.8483
38639SOL     OW20727   3.301   6.218   1.288 -0.8093 -0.7156 -0.1796
38639SOL    HW120728   3.311   6.185   1.199 -1.6289 -3.8658  0.7825
38639SOL    HW220729   3.370   6.174   1.338 -1.7133 -0.6849  1.1283
38640SOL     OW20730   5.541  12.542  11.983 -0.1041  0.3460 -0.1330
38640SOL    HW120731   5.507  12.563  11.897 -1.6232 -1.0926  0.0712
38640SOL    HW220732   5.624  12.499  11.966 -0.5704 -0.2703 -0.9047
38641SOL     OW20733   7.725   8.177   2.451 -0.4327 -0.2303 -0.0566
38641SOL    HW120734   7.733   8.130   2.368 -0.2549 -1.2214  0.4993
38641SOL    HW220735   7.764   8.118   2.516 -1.2568  0.1819  0.8490
38642SOL     OW20736   8.253   3.936   3.890  0.4221  0.4089  0.1756
38642SOL    HW120737   8.342   3.933   3.924  0.2424  2.7244  1.0136
38642SOL    HW220738   8.257   3.885   3.808  2.6427  0.9513 -0.1245
38643SOL     OW20739   3.716   3.129   0.424 -0.2682  0.0165 -0.7076
38643SOL    HW120740   3.802   3.166   0.404  0.0331 -0.2225  0.1216
38643SOL    HW220741   3.656   3.179   0.369  0.4614 -0.2118 -1.7427
38644SOL     OW20742  10.996   6.530   7.530 -0.0308  0.6409  0.1162
38644SOL    HW120743  10.954   6.444   7.532  0.7859  0.0996 -2.1991
38644SOL    HW220744  10.959   6.573   7.453  1.4895  1.2718 -0.3051
38645SOL     OW20745   0.250   8.675   7.870 -0.1966  0.2417 -0.0432
38645SOL    HW120746   0.162   8.686   7.906  0.0940 -0.2434  0.8423
38645SOL    HW220747   0.235   8.645   7.780 -0.9876 -3.0100  1.0451
38646SOL     OW20748   9.528   1.002   8.102 -0.2523  0.2197  0.1864
38646SOL    HW120749   9.529   1.093   8.132 -2.8645 -0.0651  1.4160
38646SOL    HW220750   9.601   0.997   8.040  0.8009  2.7795  1.0591
38647SOL     OW20751   8.443   1.489   7.181 -0.0210 -0.0307 -0.1719
38647SOL    HW120752   8.414   1.470   7.092 -3.0223  0.1271  0.6637
38647SOL    HW220753   8.364   1.520   7.226  1.7030  1.2691  2.1818
38648SOL     OW20754   6.227  12.506   5.830 -0.5756  0.2909  0.4378
38648SOL    HW120755   6.283  12.447   5.881 -2.5645 -0.0128  2.4942
38648SOL    HW220756   6.229  12.471   5.741 -0.7375 -2.2283  1.3383
38649SOL     OW20757   0.648   1.563   5.891 -0.1498  0.3532  0.2621
38649SOL    HW120758   0.694   1.523   5.965  0.7254 -1.1705 -1.0494
38649SOL    HW220759   0.558   1.575   5.923  0.3986  0.5610  1.8399
38650SOL     OW20760  10.820  10.429   9.435  0.7419 -0.0124 -0.0835
38650SOL    HW120761  10.883  10.426   9.363 -0.1932  0.3803 -0.9385
38650SOL    HW220762  10.837  10.513   9.478  1.4604 -0.3536  0.3159
38651SOL     OW20763   3.756   7.109   5.261 -0.0291 -0.0281  0.2471
38651SOL    HW120764   3.837   7.130   5.214  0.0909  0.0694  0.4975
38651SOL    HW220765   3.784   7.095   5.351 -0.1441 -1.0606  0.1275
38652SOL     OW20766   4.531  11.611   3.399  0.2600 -0.0416  0.2570
38652SOL    HW120767   4.453  11.660   3.375 -1.2202 -2.0226  0.6914
38652SOL    HW220768   4.560  11.651   3.481  0.2666  1.2924 -0.3735
38653SOL     OW20769   1.467   0.739   5.316  0.0114  0.4645 -0.7777
38653SOL    HW120770   1.534   0.671   5.322  1.3817  1.8363 -0.0313
38653SOL    HW220771   1.465   0.762   5.223  0.5186  0.3739 -0.8111
38654SOL     OW20772   1.185  11.254   7.538 -0.4860  0.8702  0.2232
38654SOL    HW120773   1.112  11.284   7.592 -0.8077  0.5401 -0.0262
38654SOL    HW220774   1.221  11.335   7.501  0.5890  1.2414  1.9620
38655SOL     OW20775   4.006   6.206   2.198  0.2272 -0.4421 -0.0874
38655SOL    HW120776   4.086   6.200   2.250  1.5385  1.4995 -1.7305
38655SOL    HW220777   4.026   6.161   2.116 -0.8936 -1.1829  0.0169
38656SOL     OW20778   6.622   4.159  11.868 -0.2807  0.1142  0.6824
38656SOL    HW120779   6.569   4.083  11.842  1.4782 -1.1204  0.5728
38656SOL    HW220780   6.642   4.203  11.785  0.5656 -0.5993  0.4903
38657SOL     OW20781   6.277   1.357   8.536 -0.0952  0.1798 -0.5968
38657SOL    HW120782   6.191   1.387   8.565 -0.1732  1.3903 -1.9641
38657SOL    HW220783   6.272   1.359   8.440  0.3216 -3.1161 -0.8105
38658SOL     OW20784   5.357   0.070  12.148  0.6813  0.4640 -0.5035
38658SOL    HW120785   5.294   0.099  12.081  1.3474  0.3758 -1.1868
38658SOL    HW220786   5.412   0.006  12.103 -0.3171 -1.3828  0.7921
38659SOL     OW20787   3.607   3.117   1.169  0.0257  0.3379 -0.1821
38659SOL    HW120788   3.537   3.180   1.190 -0.4131  0.5169 -2.0037
38659SOL    HW220789   3.562   3.033   1.163  0.0369  0.3773 -0.8908
38660SOL     OW20790   5.056  11.523   1.120  0.1006  0.2966 -0.1602
38660SOL    HW120791   4.961  11.518   1.106  0.1354  0.2197 -0.3780
38660SOL    HW220792   5.091  11.453   1.065  0.2017 -0.3469  0.6988
38661SOL     OW20793  11.181   9.019  12.358 -0.3816  0.3597 -0.0961
38661SOL    HW120794  11.248   8.983  12.417 -1.2507 -1.8108 -0.3177
38661SOL    HW220795  11.231   9.059  12.287  0.6868  0.0418  0.4481
38662SOL     OW20796   9.379  10.000   1.712 -0.5207  0.2699  0.2903
38662SOL    HW120797   9.317   9.967   1.647 -1.1382  1.4115  0.2771
38662SOL    HW220798   9.448   9.933   1.716  0.0243  0.5770 -2.2159
38663SOL     OW20799  10.705   6.246   7.095  0.2307 -0.1218 -0.5086
38663SOL    HW120800  10.755   6.281   7.169 -1.1840 -0.6866  0.7693
38663SOL    HW220801  10.747   6.284   7.018 -0.3474  3.3059  0.6844
38664SOL     OW20802   7.628   7.281   5.926  0.3476 -0.0905 -0.4118
38664SOL    HW120803   7.683   7.352   5.893  0.9936 -1.1413 -1.7093
38664SOL    HW220804   7.538   7.314   5.917  0.6751  0.9100 -0.1147
38665SOL     OW20805   3.134   7.251   8.314  0.1724  0.2904 -0.1524
38665SOL    HW120806   3.149   7.258   8.220 -0.1202 -1.0553 -0.3203
38665SOL    HW220807   3.117   7.158   8.329  1.4874  0.2578  1.4221
38666SOL     OW20808   4.460   6.052   5.874  0.5349  0.1247  0.8375
38666SOL    HW120809   4.383   5.999   5.853  0.9539 -0.2168  0.1530
38666SOL    HW220810   4.505   6.004   5.942  1.4685 -0.9460 -0.4960
38667SOL     OW20811   2.932   8.484  10.048 -0.3914 -0.7762 -0.2188
38667SOL    HW120812   2.957   8.414  10.108  0.7752  1.1448  1.6456
38667SOL    HW220813   3.001   8.484   9.982 -0.1463 -1.0683  0.0331
38668SOL     OW20814   8.535   2.615  12.415  0.0281 -0.0753 -0.1122
38668SOL    HW120815   8.547   2.704  12.381 -0.8392  0.0120 -0.2024
38668SOL    HW220816   8.587   2.560  12.356  2.5693  0.6026  1.3649
38669SOL     OW20817  11.293  12.376   6.842 -0.2771  0.0786  0.3985
38669SOL    HW120818  11.245  12.320   6.781 -0.5373 -0.1481  0.8041
38669SOL    HW220819  11.360  12.418   6.789  2.1350 -3.1025  0.6516
38670SOL     OW20820   0.189   2.132   6.331 -0.5314 -0.1947 -0.5449
38670SOL    HW120821   0.204   2.227   6.331  0.0254 -0.2856 -0.3513
38670SOL    HW220822   0.174   2.111   6.238 -0.4685  0.0480 -0.6111
38671SOL     OW20823   1.384   2.836   6.939 -0.2211 -0.1071 -0.3646
38671SOL    HW120824   1.309   2.851   6.883  0.5274  1.3571 -1.0354
38671SOL    HW220825   1.352   2.855   7.027 -0.9280 -0.6763 -0.4849
38672SOL     OW20826   0.083   9.268  12.262 -0.5046  0.3027  0.7334
38672SOL    HW120827   0.110   9.239  12.349 -2.2646 -2.5505  0.4578
38672SOL    HW220828   0.126   9.207  12.202 -2.1780 -0.0887 -0.1130
38673SOL     OW20829  12.272   3.570   9.935  0.2343 -1.0092  0.8849
38673SOL    HW120830  12.338   3.615   9.883  0.7660  0.6737  2.8785
38673SOL    HW220831  12.322   3.506   9.987 -0.0102 -1.2552  0.8206
38674SOL     OW20832   6.647   4.732   9.452  0.7710 -0.1184  0.6781
38674SOL    HW120833   6.577   4.700   9.508  0.8917 -0.2393  0.7601
38674SOL    HW220834   6.727   4.703   9.495  0.8681 -2.8501 -1.0435
38675SOL     OW20835  11.839   5.421   2.227  0.0018 -0.3139 -0.5760
38675SOL    HW120836  11.841   5.514   2.205 -1.6425 -0.1285 -0.1065
38675SOL    HW220837  11.807   5.418   2.317  1.5619 -1.2883 -0.0146
38676SOL     OW20838   5.499  10.976   9.108 -0.1927 -0.1383  0.8263
38676SOL    HW120839   5.537  11.062   9.089  0.3137 -0.8357 -1.7616
38676SOL    HW220840   5.430  10.966   9.042  0.2384 -1.9913  0.6102
38677SOL     OW20841   9.559   7.711  11.798 -0.8523  0.2452 -0.2621
38677SOL    HW120842   9.601   7.719  11.713  0.1419 -0.7300  0.1109
38677SOL    HW220843   9.618   7.656  11.849 -1.5410  0.6175  0.9891
38678SOL     OW20844   0.199   7.252   5.666 -0.1984  0.3117  0.4960
38678SOL    HW120845   0.220   7.249   5.573 -1.6150  1.3857  0.0945
38678SOL    HW220846   0.273   7.297   5.706  0.1967  0.2933 -0.2013
38679SOL     OW20847   2.883   5.357   8.792 -0.4175  0.0570  0.0298
38679SOL    HW120848   2.906   5.343   8.700 -0.2440  0.4787  0.0077
38679SOL    HW220849   2.795   5.320   8.801  0.2232 -1.5260  0.0948
38680SOL     OW20850   8.674   0.967   2.070 -0.7361 -0.1514  0.1818
38680SOL    HW120851   8.696   1.054   2.036 -0.4929 -0.7202 -1.1567
38680SOL    HW220852   8.692   0.973   2.163  0.4776  0.8578 -0.0940
38681SOL     OW20853  10.447   9.291   3.989  0.3596 -0.3003 -0.5030
38681SOL    HW120854  10.455   9.340   3.907 -1.3546 -0.9503 -1.1241
38681SOL    HW220855  10.436   9.357   4.057  1.4621  0.2385 -0.8378
38682SOL     OW20856  10.157   6.507   7.660 -0.8550 -0.1107  0.0352
38682SOL    HW120857  10.166   6.564   7.584  1.5384  0.3549  0.5909
38682SOL    HW220858  10.105   6.433   7.628 -1.3000  0.8423 -1.5742
38683SOL     OW20859   9.580   9.183   2.081  0.1821  0.3989 -0.0549
38683SOL    HW120860   9.516   9.197   2.011  0.2714 -1.0402 -0.4443
38683SOL    HW220861   9.568   9.092   2.107  0.8572  0.6227  1.1168
38684SOL     OW20862   4.863   3.121   9.801  0.1777 -0.2817 -0.3634
38684SOL    HW120863   4.846   3.202   9.848  0.0872 -1.5565  1.9675
38684SOL    HW220864   4.779   3.099   9.760  0.8741  2.1127 -3.4095
38685SOL     OW20865   8.476   5.681   2.887 -0.2935  0.2393 -0.6885
38685SOL    HW120866   8.414   5.744   2.923  0.4575 -0.7488  2.7146
38685SOL    HW220867   8.422   5.612   2.850 -1.2690  0.0612  0.9716
38686SOL     OW20868   9.761   9.625   3.160  0.3356  0.6209  0.2838
38686SOL    HW120869   9.672   9.647   3.187  0.1341  0.8232 -0.5240
38686SOL    HW220870   9.769   9.531   3.178 -0.2520  0.4735 -0.1975
38687SOL     OW20871   3.379   0.366   2.593 -0.4163  0.5324  0.2231
38687SOL    HW120872   3.293   0.336   2.625 -0.8259 -0.6861 -1.8252
38687SOL    HW220873   3.359   0.446   2.543 -0.1922  0.8609  0.6568
38688SOL     OW20874   3.134   2.742   1.098 -0.2030  0.0631 -0.3639
38688SOL    HW120875   3.060   2.747   1.159  1.8954  0.5736  2.3804
38688SOL    HW220876   3.098   2.771   1.014 -2.8220  1.4208  1.0752
38689SOL     OW20877   6.066  10.388   3.671  0.0569  0.3310  0.3384
38689SOL    HW120878   6.101  10.336   3.599 -0.5722  1.1709 -0.6015
38689SOL    HW220879   5.976  10.357   3.682  0.3584 -0.2817  1.2634
38690SOL     OW20880   8.901   2.002   8.228  0.2503  0.3825 -0.0508
38690SOL    HW120881   8.886   1.936   8.161  2.0252  0.0172 -0.1321
38690SOL    HW220882   8.880   1.958   8.310  1.9988 -0.5589 -0.0458
38691SOL     OW20883  11.222  10.072   1.033  0.1891  0.5526  0.0251
38691SOL    HW120884  11.140  10.042   0.994 -0.2572 -1.1829  2.1147
38691SOL    HW220885  11.261   9.992   1.070  1.5109  1.7684  1.3794
38692SOL     OW20886  10.903   2.938   6.070  0.5002  0.6449  0.1077
38692SOL    HW120887  10.926   2.881   6.143  0.2161 -0.5370 -0.6933
38692SOL    HW220888  10.907   3.026   6.106 -1.8765  0.0225  2.1619
38693SOL     OW20889   6.370   3.070  11.759  0.1184 -0.3240  0.4790
38693SOL    HW120890   6.432   3.008  11.797  0.8790  0.4815  0.6076
38693SOL    HW220891   6.388   3.067  11.665  0.9444  0.5000  0.5942
38694SOL     OW20892   1.513   5.778   0.414  0.0236 -1.1310  0.0962
38694SOL    HW120893   1.560   5.701   0.446 -1.4224 -1.8061  0.6647
38694SOL    HW220894   1.579   5.848   0.415  1.8491 -2.6795 -2.0253
38695SOL     OW20895  11.504   0.801   7.103 -0.2192  0.4357 -0.4983
38695SOL    HW120896  11.419   0.837   7.078 -0.2481 -0.5165 -1.9049
38695SOL    HW220897  11.541   0.767   7.021  1.1925  0.1590  0.2119
38696SOL     OW20898   8.941  10.350   9.881 -0.0630 -0.0912  0.0608
38696SOL    HW120899   8.857  10.305   9.878 -0.4093  0.6020 -0.9423
38696SOL    HW220900   8.985  10.314   9.958 -0.2597 -2.2714 -0.7679
38697SOL     OW20901  11.763   6.165   9.868  0.1390 -0.0463  0.4604
38697SOL    HW120902  11.841   6.217   9.886  0.1787 -0.0585  0.3222
38697SOL    HW220903  11.759   6.160   9.773 -0.1921  0.2049  0.4583
38698SOL     OW20904   5.250  10.718   7.914 -0.1602  0.0201 -0.1241
38698SOL    HW120905   5.272  10.706   7.822  2.3309 -1.3994  0.5584
38698SOL    HW220906   5.271  10.635   7.955  2.0780  1.5934  2.2598
38699SOL     OW20907   5.477  11.568   9.965  0.5695 -0.3018  0.4312
38699SOL    HW120908   5.441  11.530  10.045 -0.6235  1.7926  0.9734
38699SOL    HW220909   5.481  11.495   9.903  0.2300 -1.6806  1.9860
38700SOL     OW20910   7.749   3.848   5.737  0.0751  0.4346 -0.4006
38700SOL    HW120911   7.825   3.901   5.759 -0.2070  1.4473 -1.7439
38700SOL    HW220912   7.782   3.758   5.734  0.7598  0.6129  0.9910
38701SOL     OW20913   7.386   3.487   2.537  0.2020  0.0077  0.5251
38701SOL    HW120914   7.362   3.468   2.447 -1.8761 -0.3302  1.1038
38701SOL    HW220915   7.419   3.404   2.571  1.0518  0.1527  0.0736
38702SOL     OW20916  10.774   9.623   0.996 -0.1372  0.3455  0.2499
38702SOL    HW120917  10.757   9.539   1.038 -1.9475 -0.0103 -1.0627
38702SOL    HW220918  10.865   9.618   0.968 -0.3436 -1.4156 -0.2406
38703SOL     OW20919  12.415   2.642   2.954  0.2369  0.0707  0.2126
38703SOL    HW120920  12.337   2.627   3.006  0.3003  0.7054  0.4950
38703SOL    HW220921  12.397   2.597   2.871  0.2855 -1.2571  0.8850
38704SOL     OW20922   4.753   2.899   7.289 -0.2803  0.4257  0.1351
38704SOL    HW120923   4.753   2.828   7.225 -2.2376  1.0733 -0.6370
38704SOL    HW220924   4.758   2.979   7.236 -1.0279  0.9454  0.8410
38705SOL     OW20925  11.879   5.766   8.096 -1.1019  0.5169 -0.1180
38705SOL    HW120926  11.806   5.785   8.155 -1.0063  0.9627 -0.1441
38705SOL    HW220927  11.944   5.722   8.151 -0.9235  1.1258  0.1598
38706SOL     OW20928   9.989   6.243   4.084 -0.2674 -0.0376  0.1345
38706SOL    HW120929   9.935   6.219   4.159  0.3655 -2.7192 -0.1950
38706SOL    HW220930   9.936   6.220   4.007  0.6192 -1.0248 -0.2007
38707SOL     OW20931   2.317   1.268   7.140 -0.1363  0.0322  0.1026
38707SOL    HW120932   2.297   1.360   7.122 -2.2524 -0.5449 -0.8519
38707SOL    HW220933   2.280   1.221   7.066  2.2021 -1.5375 -0.1820
38708SOL     OW20934   4.263   3.200   7.168 -0.1487 -0.0095 -0.2981
38708SOL    HW120935   4.345   3.150   7.178  0.1163  0.8732  2.6298
38708SOL    HW220936   4.205   3.165   7.235 -0.7929  1.9971  0.2444
38709SOL     OW20937   9.655   7.749   0.946 -0.4055 -0.2000 -0.8989
38709SOL    HW120938   9.588   7.763   1.013  0.1438  1.1620 -0.6088
38709SOL    HW220939   9.733   7.723   0.996  0.1667  1.3760 -0.9264
38710SOL     OW20940   4.895   7.512   3.940 -0.4594 -0.3436  0.3222
38710SOL    HW120941   4.916   7.462   3.860 -0.9832  0.9742 -0.6794
38710SOL    HW220942   4.802   7.496   3.955 -0.5444  0.0212  0.2063
38711SOL     OW20943   1.307   0.242   8.868 -0.1437 -0.0572  0.5446
38711SOL    HW120944   1.276   0.161   8.827  4.1599 -0.8970 -1.5870
38711SOL    HW220945   1.249   0.310   8.831 -2.0939 -1.7829  0.2196
38712SOL     OW20946   9.046  10.128   2.870  0.4382 -0.5060 -0.3562
38712SOL    HW120947   8.956  10.161   2.861  0.2204 -1.2115 -0.7858
38712SOL    HW220948   9.058  10.122   2.965 -0.5926 -2.0518 -0.2896
38713SOL     OW20949   2.409   8.670   4.580 -0.8867  0.0812  0.4321
38713SOL    HW120950   2.338   8.661   4.644 -1.7159  2.0665 -0.1465
38713SOL    HW220951   2.479   8.713   4.630 -0.9655  0.2375  0.4096
38714SOL     OW20952  10.654   1.022   0.994 -0.1101 -0.1155 -0.1241
38714SOL    HW120953  10.708   1.085   1.040  0.0911 -0.0084 -0.5036
38714SOL    HW220954  10.609   0.974   1.063 -0.8158  0.9206  0.1594
38715SOL     OW20955  11.299   3.115   7.475  0.4901  0.1261  0.0022
38715SOL    HW120956  11.250   3.171   7.535  1.4907  0.6160  0.3709
38715SOL    HW220957  11.377   3.165   7.453  0.2889 -0.1651 -1.4882
38716SOL     OW20958  11.035   5.784   1.243  0.0599  0.3731 -0.3602
38716SOL    HW120959  11.042   5.689   1.231  0.5246  0.5001 -1.1582
38716SOL    HW220960  10.946   5.805   1.214 -0.5217  0.0131  1.0838
38717SOL     OW20961   5.295   7.702   5.517 -0.6568 -0.4340  0.0058
38717SOL    HW120962   5.310   7.735   5.606 -2.0186  0.3986 -0.0565
38717SOL    HW220963   5.285   7.781   5.464  0.8700 -0.9059 -1.0509
38718SOL     OW20964   2.159   6.470   1.231 -0.2083 -0.1275  0.7903
38718SOL    HW120965   2.099   6.450   1.159  0.7691  0.6361 -0.2791
38718SOL    HW220966   2.145   6.563   1.248  0.5728  0.0304  0.6107
38719SOL     OW20967   6.448   0.304   5.689 -0.1110 -0.7788  0.3819
38719SOL    HW120968   6.458   0.322   5.782 -0.4265 -1.4804  0.5584
38719SOL    HW220969   6.361   0.338   5.667 -0.1090 -0.7716  0.3840
38720SOL     OW20970   3.309   2.781   7.299 -0.5245 -0.7138  0.3457
38720SOL    HW120971   3.336   2.773   7.208 -1.2911  0.5288 -0.0079
38720SOL    HW220972   3.391   2.784   7.349 -0.0973 -3.3611 -0.0743
38721SOL     OW20973  10.110   2.606   2.750  0.0878  0.2687 -0.2764
38721SOL    HW120974  10.178   2.624   2.685 -0.8620  3.5484 -0.5419
38721SOL    HW220975  10.115   2.511   2.764  2.4168 -0.1101 -2.7581
38722SOL     OW20976   1.833   5.693   6.363  0.1479  0.0665  0.4497
38722SOL    HW120977   1.803   5.605   6.343  2.0020 -0.2495 -1.1700
38722SOL    HW220978   1.898   5.681   6.432  0.3070  0.1791  0.3199
38723SOL     OW20979   5.181   5.488   0.633  0.1232 -0.4210 -0.3558
38723SOL    HW120980   5.164   5.395   0.621 -1.3303 -0.1404 -0.6655
38723SOL    HW220981   5.151   5.529   0.551 -0.3337  0.4303  0.2189
38724SOL     OW20982   2.908   2.994   9.857  0.5156 -0.0625 -0.0129
38724SOL    HW120983   2.819   3.018   9.883 -1.0788 -3.2933 -1.9163
38724SOL    HW220984   2.897   2.918   9.800  4.5382 -0.5592 -0.4111
38725SOL     OW20985   1.612   0.346  10.045 -0.8639  0.1180  0.1341
38725SOL    HW120986   1.601   0.353   9.950  1.4229  3.2306 -0.0588
38725SOL    HW220987   1.697   0.386  10.063 -0.8774 -0.9953  3.4772
38726SOL     OW20988   7.070   2.348   9.116 -0.1839 -0.3766  0.0803
38726SOL    HW120989   7.063   2.307   9.029  0.4267 -0.9532  0.2917
38726SOL    HW220990   6.981   2.374   9.137 -0.3092 -0.0592 -0.8051
38727SOL     OW20991   8.971   2.183   8.515 -0.2756  0.8638 -0.7141
38727SOL    HW120992   8.927   2.199   8.599  1.6392 -0.0477  0.5239
38727SOL    HW220993   8.948   2.093   8.493  2.8030 -0.5690  1.2519
38728SOL     OW20994   2.698   3.092  10.734 -0.5689 -0.1254 -0.1048
38728SOL    HW120995   2.768   3.132  10.682 -0.3722 -1.3404 -0.8053
38728SOL    HW220996   2.695   3.001  10.705 -0.8803 -0.6947  1.5858
38729SOL     OW20997   4.958   4.883   5.144  0.1267 -0.9392 -0.3922
38729SOL    HW120998   4.878   4.847   5.182  0.0421  1.8954  2.5895
38729SOL    HW220999   5.028   4.851   5.201  0.2261  1.7689  1.2159
38730SOL     OW21000   9.369   4.729   4.640 -0.4175 -0.5703  0.6177
38730SOL    HW121001   9.460   4.761   4.639 -0.8778  0.8197  1.1542
38730SOL    HW221002   9.353   4.702   4.549 -0.0570  0.9432  0.0709
38731SOL     OW21003  10.382  12.348   7.756 -0.6219 -0.5367  0.0697
38731SOL    HW121004  10.366  12.270   7.703 -0.3648 -2.2455  2.3642
38731SOL    HW221005  10.306  12.353   7.814 -0.0399  0.1869  0.7867
38732SOL     OW21006   8.191  12.291   5.835 -0.2320 -0.2543 -0.1012
38732SOL    HW121007   8.179  12.377   5.877 -1.0202 -0.8684  0.9748
38732SOL    HW221008   8.117  12.239   5.865  1.4544 -2.0713  1.2470
38733SOL     OW21009   2.145   6.578  10.511  0.2292  0.7403 -0.1209
38733SOL    HW121010   2.209   6.632  10.464  1.4318 -0.8746 -0.4070
38733SOL    HW221011   2.196   6.531  10.577 -0.3604 -1.5684 -1.2008
38734SOL     OW21012   4.681  10.665   8.790  0.6841 -0.2258  0.2268
38734SOL    HW121013   4.758  10.610   8.776  1.8535  1.7905 -1.8676
38734SOL    HW221014   4.695  10.740   8.733 -0.8864  2.1980  2.8113
38735SOL     OW21015  10.136  12.605   6.016  0.5887  0.0509 -0.0780
38735SOL    HW121016  10.212  12.594   5.959  1.7828  2.2765  0.9498
38735SOL    HW221017  10.168  12.660   6.088 -1.6685 -0.0659  1.0943
38736SOL     OW21018   9.643  10.649  10.323 -0.2780  0.4521  0.0552
38736SOL    HW121019   9.570  10.608  10.370  0.2290  1.0281  1.4063
38736SOL    HW221020   9.720  10.627  10.375  0.0866  2.5051  0.4561
38737SOL     OW21021   7.353   2.407   6.022 -0.1063 -0.1045  0.2039
38737SOL    HW121022   7.261   2.425   6.006  0.3892  1.8145 -0.9256
38737SOL    HW221023   7.380   2.352   5.948  0.2809  1.8698 -1.2173
38738SOL     OW21024   3.945   3.710  11.971 -0.5173 -0.2299 -0.5386
38738SOL    HW121025   3.968   3.801  11.991  0.1940 -0.4154 -0.4935
38738SOL    HW221026   3.954   3.664  12.055  1.4147 -0.7973 -1.0067
38739SOL     OW21027   5.330   1.003   1.546  0.0854 -0.0693  0.3304
38739SOL    HW121028   5.358   0.954   1.468 -0.0413  2.4935 -1.4722
38739SOL    HW221029   5.305   0.936   1.609  2.0122 -2.3118 -1.1228
38740SOL     OW21030   4.137   7.309   0.764 -0.4864  0.2405  0.2186
38740SOL    HW121031   4.063   7.346   0.813 -1.8201 -1.6346 -0.2564
38740SOL    HW221032   4.098   7.274   0.684  1.4076  1.7554 -1.4578
38741SOL     OW21033   7.078  12.277  10.262 -0.2001 -0.0241  0.0964
38741SOL    HW121034   7.116  12.222  10.331  1.1948  0.2674 -0.3975
38741SOL    HW221035   7.153  12.300  10.206 -1.2890 -0.2858 -1.5436
38742SOL     OW21036   2.159   3.946   2.235 -0.1515 -0.1924  0.1974
38742SOL    HW121037   2.182   3.922   2.325 -0.5468 -1.9640 -0.1427
38742SOL    HW221038   2.081   3.895   2.215  0.0122  0.0618 -1.2154
38743SOL     OW21039  10.868   5.019   3.333 -0.9099  0.8274 -0.1782
38743SOL    HW121040  10.852   4.941   3.386 -0.0541  1.8138  1.6122
38743SOL    HW221041  10.822   5.089   3.379 -0.1445  1.7226 -0.7362
38744SOL     OW21042   1.309   0.067  10.204 -0.8328 -0.5035 -0.2364
38744SOL    HW121043   1.339   0.025  10.123 -3.1577  0.4301 -1.7139
38744SOL    HW221044   1.215   0.082  10.189 -1.0116  1.1337  2.0164
38745SOL     OW21045  11.501   8.348   4.995  0.3024  0.4886  0.2803
38745SOL    HW121046  11.564   8.402   4.947 -0.5474  0.1507 -1.2613
38745SOL    HW221047  11.475   8.402   5.070  1.8448  0.9212  0.5425
38746SOL     OW21048  11.822   4.921   1.375  0.2677  0.3194 -0.2200
38746SOL    HW121049  11.868   5.002   1.398 -0.3368  0.5087  0.3619
38746SOL    HW221050  11.839   4.862   1.449  0.7289 -0.1048 -0.6544
38747SOL     OW21051  12.120  10.322  11.796  0.0325 -0.0661  0.5242
38747SOL    HW121052  12.026  10.331  11.810 -0.1201  0.5254 -0.7510
38747SOL    HW221053  12.145  10.401  11.748  0.6256 -1.4711 -1.6633
38748SOL     OW21054   9.805  12.476   9.473 -0.7129  0.5483 -0.0223
38748SOL    HW121055   9.833  12.408   9.412 -0.8263  1.3495 -1.0039
38748SOL    HW221056   9.870  12.545   9.464 -2.3342  1.9914 -1.5743
38749SOL     OW21057   9.108   0.445  12.407  0.1371  0.3413 -0.2254
38749SOL    HW121058   9.094   0.350  12.408  0.8200  0.2179  1.5059
38749SOL    HW221059   9.033   0.480  12.456 -0.3540  0.7568 -1.2459
38750SOL     OW21060   9.854   9.773  12.373 -0.7314  0.6452  0.6900
38750SOL    HW121061   9.791   9.845  12.379 -0.5565  0.7628  1.1013
38750SOL    HW221062   9.800   9.694  12.372 -0.9331  0.7811  0.0877
38751SOL     OW21063   3.628  10.873   3.419 -0.3796 -0.0625  0.3197
38751SOL    HW121064   3.592  10.799   3.469 -1.8783  1.6606  1.9482
38751SOL    HW221065   3.685  10.918   3.480  0.6478  0.0639 -0.7111
38752SOL     OW21066  11.437  12.547  10.327  0.6865 -0.1630 -0.0042
38752SOL    HW121067  11.441  12.642  10.342  0.9175 -0.0133 -0.9205
38752SOL    HW221068  11.428  12.539  10.232  1.7270 -1.0809 -0.0383
38753SOL     OW21069  10.450   0.174   6.447  0.3070  0.2703  0.8283
38753SOL    HW121070  10.368   0.176   6.498  0.5096  1.1051  1.1376
38753SOL    HW221071  10.462   0.264   6.418  1.6391  0.3616  1.6205
38754SOL     OW21072  11.358   1.381   9.793  0.3873  0.0445  0.3865
38754SOL    HW121073  11.297   1.330   9.739  1.2703 -0.5903 -0.0311
38754SOL    HW221074  11.423   1.414   9.732  0.1666  1.2069  0.7470
38755SOL     OW21075   7.579   2.089   6.334  0.1209 -0.3145 -0.1302
38755SOL    HW121076   7.601   2.173   6.374 -0.8198 -0.1406  0.0311
38755SOL    HW221077   7.643   2.028   6.371  0.2490  0.1551  0.4383
38756SOL     OW21078   3.357   4.970   0.976 -0.1309  0.1865 -0.4241
38756SOL    HW121079   3.436   4.969   1.029  0.0865 -0.0280 -0.7490
38756SOL    HW221080   3.355   4.884   0.934  1.0948  1.2034 -2.7974
38757SOL     OW21081  12.318  11.792   0.513 -0.1425 -0.7120 -0.0099
38757SOL    HW121082  12.283  11.803   0.425 -0.5733  0.2583  0.2693
38757SOL    HW221083  12.409  11.822   0.506 -0.0502 -1.0361 -0.2146
38758SOL     OW21084   9.847   8.033   4.047 -0.0028  0.4723  0.1469
38758SOL    HW121085   9.838   7.995   3.960 -1.5944  1.1800 -0.0294
38758SOL    HW221086   9.757   8.043   4.078  0.5394  0.0489  1.9668
38759SOL     OW21087   4.831  10.721   5.718 -0.1451  0.2385 -0.4875
38759SOL    HW121088   4.820  10.783   5.646 -0.5739 -0.5291 -1.0927
38759SOL    HW221089   4.745  10.716   5.759  0.1242  0.7610  0.1666
38760SOL     OW21090   2.212   8.805   2.540  0.2226 -0.2273 -0.2244
38760SOL    HW121091   2.177   8.784   2.627 -0.5100 -0.0492 -0.4773
38760SOL    HW221092   2.178   8.892   2.520  0.3294 -0.2973 -0.7243
38761SOL     OW21093   1.972   5.643   0.841  0.1226 -0.5543 -0.2524
38761SOL    HW121094   1.928   5.572   0.795 -0.1318 -2.3532  2.5359
38761SOL    HW221095   2.043   5.601   0.888 -0.5948  0.7972  2.2400
38762SOL     OW21096   6.765   7.578   1.225  0.3204  0.1059 -0.0477
38762SOL    HW121097   6.749   7.610   1.137  1.8794  0.4809 -0.2353
38762SOL    HW221098   6.857   7.600   1.242  0.5149 -1.3677  1.0552
38763SOL     OW21099   6.641   8.394   3.640 -0.4669  0.1278  0.5688
38763SOL    HW121100   6.703   8.422   3.708 -0.0706  0.5786  0.0259
38763SOL    HW221101   6.555   8.410   3.678 -0.2458  0.9387  0.7379
38764SOL     OW21102   2.108   1.878   3.713 -0.1500  0.0535 -0.2550
38764SOL    HW121103   2.128   1.830   3.633  3.4931  0.8463 -0.0081
38764SOL    HW221104   2.125   1.816   3.784 -0.7144  0.1443 -0.0336
38765SOL     OW21105   6.617   8.658   3.002 -0.2015  0.4779  0.4073
38765SOL    HW121106   6.687   8.697   3.055  0.6044 -0.6281  0.1925
38765SOL    HW221107   6.542   8.654   3.061  0.2148  0.7320  0.9654
38766SOL     OW21108   3.334   7.087  10.810  0.2844  0.9030  0.1104
38766SOL    HW121109   3.293   7.122  10.889 -0.6762 -0.7004  0.3620
38766SOL    HW221110   3.420   7.058  10.839 -0.3804 -0.4732  0.8154
38767SOL     OW21111   1.509   3.373  10.980 -0.4671  0.3144 -0.3672
38767SOL    HW121112   1.493   3.404  10.891 -0.6226  1.1191 -0.0647
38767SOL    HW221113   1.463   3.435  11.036  0.5511  0.4692  0.3279
38768SOL     OW21114  12.231   3.057   2.583  0.0704  0.1135 -0.0463
38768SOL    HW121115  12.272   3.033   2.666  0.3009  0.7685  0.0356
38768SOL    HW221116  12.154   3.000   2.577  1.1130 -1.3373 -0.3330
38769SOL     OW21117   8.087   4.836   3.239  0.2698 -0.3372  0.0108
38769SOL    HW121118   8.055   4.755   3.279  0.5674 -0.4845 -0.0502
38769SOL    HW221119   8.155   4.867   3.300 -0.0671  0.0386  0.2029
38770SOL     OW21120   0.218   9.760   9.154 -0.2483  0.2737 -0.1647
38770SOL    HW121121   0.313   9.764   9.154 -0.2567  0.7683  0.4017
38770SOL    HW221122   0.197   9.672   9.185  0.0164  0.0250 -0.6756
38771SOL     OW21123   8.904   7.613  10.639  0.2122 -0.1308 -0.4175
38771SOL    HW121124   8.864   7.672  10.575  0.7411  1.4520  0.6801
38771SOL    HW221125   8.993   7.646  10.651  0.2162 -0.5745  0.9303
38772SOL     OW21126   5.778   3.917   7.278  0.0804  0.2616 -0.2417
38772SOL    HW121127   5.868   3.890   7.260 -0.5071 -0.2731 -2.7139
38772SOL    HW221128   5.751   3.863   7.352  0.9723 -1.4446 -1.1090
38773SOL     OW21129   9.720  11.159   2.002 -0.0655 -0.1310  0.6868
38773SOL    HW121130   9.685  11.091   2.060  0.0103 -1.4854 -0.7735
38773SOL    HW221131   9.810  11.172   2.031 -0.3393 -0.0469  1.5140
38774SOL     OW21132   7.242   4.017   3.361  0.0799 -0.0360 -0.1200
38774SOL    HW121133   7.237   4.001   3.455 -0.3520  0.7707  0.0012
38774SOL    HW221134   7.306   4.088   3.352 -1.4356  1.3574 -0.2392
38775SOL     OW21135   7.727   3.338   4.522  0.2033 -0.5312 -0.0459
38775SOL    HW121136   7.778   3.413   4.493 -0.0674 -0.3986 -0.1875
38775SOL    HW221137   7.678   3.310   4.444  0.0844 -0.6727  0.0768
38776SOL     OW21138   1.596   5.014  10.564 -0.2063  0.1363  0.2456
38776SOL    HW121139   1.602   4.973  10.478 -0.7446 -2.6070  1.3904
38776SOL    HW221140   1.662   5.083  10.564  0.8498 -0.8117 -1.8335
38777SOL     OW21141   4.236   1.390   3.498  0.6262 -0.2461  0.4644
38777SOL    HW121142   4.165   1.339   3.458 -0.2481 -0.0191  1.6723
38777SOL    HW221143   4.206   1.481   3.494  1.4620  0.0185 -0.2096
38778SOL     OW21144   8.214  10.754   1.695  0.1544  0.3092  0.2176
38778SOL    HW121145   8.158  10.752   1.773 -1.0813  2.3810 -0.5394
38778SOL    HW221146   8.155  10.776   1.623  1.2284 -1.7222 -1.4075
38779SOL     OW21147   3.184  12.468   4.817  0.3190 -0.2896  0.4277
38779SOL    HW121148   3.126  12.542   4.834  0.2186  0.3015 -2.1126
38779SOL    HW221149   3.200  12.430   4.903  0.4379  2.7257  1.8616
38780SOL     OW21150   1.592  10.786   8.452  0.6465 -0.0121  0.1710
38780SOL    HW121151   1.532  10.712   8.461  0.0623  0.5536  1.0192
38780SOL    HW221152   1.545  10.849   8.398  0.8600  0.0579  0.0622
38781SOL     OW21153  10.827   2.399   8.255 -1.0872 -0.2290 -0.0407
38781SOL    HW121154  10.877   2.476   8.280  0.2335 -0.8237 -0.7702
38781SOL    HW221155  10.829   2.343   8.333  4.0809 -2.6368 -1.4452
38782SOL     OW21156  10.183   5.743   9.206  0.2973 -0.3678 -0.0962
38782SOL    HW121157  10.147   5.827   9.233  1.9691  0.0490  0.9339
38782SOL    HW221158  10.155   5.733   9.115  0.6035  1.5941 -0.4340
38783SOL     OW21159   2.902   9.634  11.433 -0.5775 -0.1996  0.0955
38783SOL    HW121160   2.881   9.725  11.454 -0.8156 -0.1457 -0.3520
38783SOL    HW221161   2.917   9.593  11.518 -0.2235  0.3118  0.2904
38784SOL     OW21162   5.638   2.060  11.053  0.0279 -0.0990  0.5295
38784SOL    HW121163   5.568   1.996  11.065 -0.2051 -0.6317 -2.8444
38784SOL    HW221164   5.611   2.113  10.978  1.3765  2.4184  1.6909
38785SOL     OW21165   4.343   3.472  11.387  0.0118 -0.4293 -0.3874
38785SOL    HW121166   4.294   3.431  11.458  0.2089  0.3225  0.1901
38785SOL    HW221167   4.381   3.399  11.339 -1.5676 -1.0355 -0.7870
38786SOL     OW21168   9.536   7.499   9.887  0.4263  0.5601 -0.4301
38786SOL    HW121169   9.606   7.527   9.829  1.4832  3.0766  1.8680
38786SOL    HW221170   9.580   7.448   9.955 -0.7862 -2.3403 -1.6521
38787SOL     OW21171   3.685  10.791   5.481 -0.2403 -0.7225  0.0754
38787SOL    HW121172   3.709  10.863   5.423  3.0735 -2.4863 -1.0334
38787SOL    HW221173   3.647  10.834   5.558  0.5061  2.1021 -1.0003
38788SOL     OW21174   2.451   6.525  10.960 -0.0165 -0.1834 -0.0623
38788SOL    HW121175   2.382   6.567  11.013  0.5121 -1.0460  1.3541
38788SOL    HW221176   2.503   6.476  11.023  0.2857 -1.7557 -1.4763
38789SOL     OW21177  11.055  10.188  11.582 -0.4680 -0.0870 -0.3052
38789SOL    HW121178  11.128  10.193  11.644 -0.6920  0.2302 -0.0652
38789SOL    HW221179  11.090  10.138  11.509 -0.0687 -0.1069 -0.1051
38790SOL     OW21180  11.185   7.348   5.873  0.3559  0.2548 -0.3161
38790SOL    HW121181  11.275   7.345   5.906  0.2490  1.8646  0.2224
38790SOL    HW221182  11.131   7.331   5.950  0.1652  1.0420 -0.2732
38791SOL     OW21183   6.310  11.674   6.090  0.1578  0.8021  0.6824
38791SOL    HW121184   6.260  11.751   6.117 -0.3745  0.5916  0.3087
38791SOL    HW221185   6.364  11.704   6.017  1.0938  1.2008  1.5117
38792SOL     OW21186   0.384  12.156   3.006 -0.1621 -0.1736 -0.1537
38792SOL    HW121187   0.452  12.127   2.946 -1.2887 -2.3997 -0.4673
38792SOL    HW221188   0.379  12.088   3.073 -0.6624  1.0066  1.0828
38793SOL     OW21189   6.499  12.593   3.515  0.4417  0.0094 -0.2367
38793SOL    HW121190   6.549  12.655   3.461  1.2616  0.0270  0.5205
38793SOL    HW221191   6.523  12.615   3.605 -0.5577 -0.3165  0.1284
38794SOL     OW21192   0.940   8.554   6.969 -1.0059 -0.1701  0.0689
38794SOL    HW121193   0.846   8.572   6.972 -0.6511  1.7877  1.2243
38794SOL    HW221194   0.954   8.485   7.033 -1.6427 -0.3765 -0.0153
38795SOL     OW21195  11.301   7.147  10.386  0.0340 -0.2639  0.8365
38795SOL    HW121196  11.217   7.174  10.348 -0.7477  0.3641  2.8984
38795SOL    HW221197  11.349   7.228  10.399  0.9321 -0.6096 -0.1702
38796SOL     OW21198   9.123   9.790  11.506 -0.1147  0.0677  0.6630
38796SOL    HW121199   9.122   9.696  11.519 -1.2264 -0.0793 -0.3079
38796SOL    HW221200   9.184   9.803  11.433  0.8076  0.2071  1.4490
38797SOL     OW21201   0.411   3.543   3.235  0.0143 -0.4109  0.1354
38797SOL    HW121202   0.479   3.531   3.301  0.9076  1.5261 -0.3635
38797SOL    HW221203   0.454   3.590   3.164 -1.5437 -0.2291 -0.7430
38798SOL     OW21204   7.339  10.605   4.557 -0.4052 -0.5245  0.0025
38798SOL    HW121205   7.243  10.597   4.557 -0.7292  2.3976 -0.3302
38798SOL    HW221206   7.361  10.616   4.464 -0.2645  2.7498  0.3264
38799SOL     OW21207   0.352   6.103   5.278  0.5591  0.1424 -0.0209
38799SOL    HW121208   0.274   6.156   5.292 -0.5069 -1.6623  1.3936
38799SOL    HW221209   0.416   6.136   5.342 -0.8362 -1.5307  2.4007
38800SOL     OW21210  11.885   1.326   3.388  0.1624 -0.6397 -0.5078
38800SOL    HW121211  11.852   1.315   3.299 -0.6646 -1.1869 -0.1446
38800SOL    HW221212  11.908   1.238   3.416  1.4185 -0.3495 -0.5299
38801SOL     OW21213   8.402   2.499  11.477 -0.1237 -0.4624  0.4180
38801SOL    HW121214   8.357   2.449  11.544 -0.7797  1.3398  1.4023
38801SOL    HW221215   8.444   2.571  11.524  1.3854 -0.4617 -0.8377
38802SOL     OW21216   2.078   4.926   3.348 -0.6605  0.4375  0.1680
38802SOL    HW121217   2.078   4.926   3.444 -0.4689 -1.1823  0.2094
38802SOL    HW221218   2.087   4.833   3.325  1.9815  0.9931 -1.4138
38803SOL     OW21219  12.253   1.155   7.670  0.1570 -0.3831  0.0924
38803SOL    HW121220  12.173   1.198   7.638 -0.0342  0.0878  1.1646
38803SOL    HW221221  12.284   1.104   7.595 -1.2814 -0.7777 -0.2735
38804SOL     OW21222   0.835   6.437  12.436  0.0825 -0.4105 -0.2216
38804SOL    HW121223   0.890   6.514  12.447  1.9158 -1.7250  0.1761
38804SOL    HW221224   0.851   6.384  12.514 -0.6529 -1.4894 -0.7710
38805SOL     OW21225   1.452  10.041   3.477 -0.0265 -0.4243 -0.3541
38805SOL    HW121226   1.481  10.086   3.397  1.0458 -1.9467 -0.8939
38805SOL    HW221227   1.364  10.073   3.493  0.8082  2.1141 -0.4592
38806SOL     OW21228   7.367   4.357   1.555 -0.0178  0.1249  0.6067
38806SOL    HW121229   7.363   4.284   1.493  1.9055  0.4567  0.0393
38806SOL    HW221230   7.276   4.376   1.576 -0.5945 -1.8648  0.0875
38807SOL     OW21231   7.939   3.788   6.133 -0.4416  0.6028  0.4460
38807SOL    HW121232   7.965   3.696   6.129 -3.3136 -0.2606 -0.5888
38807SOL    HW221233   7.961   3.815   6.221  1.7636 -0.6256  0.3434
38808SOL     OW21234   8.342  11.243   2.836 -0.3624 -0.1674  0.4409
38808SOL    HW121235   8.432  11.271   2.821 -0.7995  0.1071 -2.3334
38808SOL    HW221236   8.342  11.150   2.813 -0.7486 -0.1903  0.5289
38809SOL     OW21237   3.220   8.322   6.443 -0.0723 -0.2548  0.6385
38809SOL    HW121238   3.302   8.272   6.440  0.2690  0.3184 -0.4163
38809SOL    HW221239   3.153   8.261   6.413  0.2316 -0.2880  0.0072
38810SOL     OW21240  10.715  11.156   7.491  0.3588  0.1719 -0.1156
38810SOL    HW121241  10.646  11.159   7.424 -1.2592 -1.8527  1.3417
38810SOL    HW221242  10.742  11.064   7.493  0.0940  0.0789  2.2067
38811SOL     OW21243   3.844   5.548   1.913 -0.0105  0.7537  0.6056
38811SOL    HW121244   3.803   5.485   1.854  2.3479  0.4867 -0.8811
38811SOL    HW221245   3.773   5.607   1.938 -1.9820 -1.5263  0.8198
38812SOL     OW21246   3.429  10.972   6.947  0.8760 -0.3246  0.6542
38812SOL    HW121247   3.420  10.918   6.869 -1.3598 -0.5668  0.9897
38812SOL    HW221248   3.397  11.058   6.920  2.2458  0.2137  0.7231
38813SOL     OW21249   6.681   0.339   7.446  0.1059 -0.4279 -0.0403
38813SOL    HW121250   6.759   0.354   7.498 -0.5554  1.3907  0.5075
38813SOL    HW221251   6.635   0.268   7.490  0.2448  0.1550  1.0688
38814SOL     OW21252  10.825   5.068   8.708  0.0981 -0.1233 -0.2627
38814SOL    HW121253  10.753   5.059   8.771  1.4346  1.3106  1.5645
38814SOL    HW221254  10.887   4.999   8.732 -0.3057 -0.9282 -1.4128
38815SOL     OW21255   1.190   3.225   4.414 -0.5267 -0.1664  0.5347
38815SOL    HW121256   1.226   3.310   4.390 -0.4887  0.3032  2.1123
38815SOL    HW221257   1.143   3.241   4.496 -0.2979 -1.7002  1.0034
38816SOL     OW21258   9.932   8.568   3.652 -0.2654 -0.5315 -0.1935
38816SOL    HW121259   9.843   8.539   3.668 -0.6273 -0.0798 -1.3243
38816SOL    HW221260   9.965   8.507   3.585 -0.3581  0.3974 -1.1121
38817SOL     OW21261   0.897  10.084  12.227 -0.4091  0.2177 -0.1652
38817SOL    HW121262   0.856  10.160  12.185 -0.2671  1.4462  1.8107
38817SOL    HW221263   0.825  10.021  12.237 -1.0744  1.0165  0.2296
38818SOL     OW21264   6.000  10.545   7.786 -0.2008 -0.1319  0.2083
38818SOL    HW121265   6.064  10.481   7.815 -0.8050 -0.2006  1.4799
38818SOL    HW221266   6.045  10.629   7.792 -0.6049 -0.0285  2.4172
38819SOL     OW21267  12.436   6.970   5.467 -0.4459 -0.1075  0.7338
38819SOL    HW121268  12.384   7.042   5.432 -0.4242 -0.4239  0.0407
38819SOL    HW221269  12.521   6.977   5.424 -1.7177 -3.0736 -2.8400
38820SOL     OW21270  12.471   7.861   7.352  0.7907  0.2617 -0.0062
38820SOL    HW121271  12.430   7.859   7.439 -0.3228 -0.3808 -0.5149
38820SOL    HW221272  12.497   7.770   7.336  0.4855  0.2676 -0.5594
38821SOL     OW21273   3.853   5.470   2.193  0.0331  0.2990 -0.0720
38821SOL    HW121274   3.849   5.540   2.127 -0.7621  0.9958  0.6919
38821SOL    HW221275   3.813   5.395   2.150  0.2542  0.5040 -0.6596
38822SOL     OW21276   7.634  11.214  12.101  0.5094 -0.2853  0.0296
38822SOL    HW121277   7.577  11.260  12.162  1.3953 -1.6240  1.9488
38822SOL    HW221278   7.642  11.273  12.026 -1.5686  0.8856  0.6705
38823SOL     OW21279  10.101   1.951   8.084  0.3985  0.4849 -0.2742
38823SOL    HW121280  10.072   1.944   7.993  0.3707 -0.3424 -0.2040
38823SOL    HW221281  10.020   1.956   8.135  0.3996  0.1064 -0.2319
38824SOL     OW21282  10.066   2.299  10.046  0.4558 -0.2500 -0.2138
38824SOL    HW121283  10.135   2.270   9.986  1.1822 -0.4758  0.7165
38824SOL    HW221284  10.101   2.379  10.086  0.7373 -1.0380  1.1872
38825SOL     OW21285  10.647   3.944   6.769  0.3511  0.0605  0.8793
38825SOL    HW121286  10.735   3.926   6.803  1.2977  2.9054  0.2131
38825SOL    HW221287  10.601   3.986   6.841 -0.6328 -1.7177  1.3323
38826SOL     OW21288  12.045   4.988   2.498 -0.2719 -0.2664  0.4617
38826SOL    HW121289  11.969   5.037   2.466  0.6623  0.9698  0.0667
38826SOL    HW221290  12.108   4.991   2.427  1.0645  0.7877  1.6278
38827SOL     OW21291   9.543   5.402   6.645 -0.2368 -0.1519 -0.0741
38827SOL    HW121292   9.456   5.440   6.639 -0.5165 -0.9076 -0.9320
38827SOL    HW221293   9.549   5.369   6.735 -1.1368 -0.8032 -0.2461
38828SOL     OW21294   8.643   2.380   6.859  0.3162  0.2070  0.0168
38828SOL    HW121295   8.600   2.307   6.904 -1.5535 -0.5937 -2.8443
38828SOL    HW221296   8.709   2.339   6.804  2.1590  1.1225  1.4401
38829SOL     OW21297  11.823  11.503   0.815  0.6365  0.0145  0.4557
38829SOL    HW121298  11.727  11.502   0.808  0.3804  3.3861  1.4080
38829SOL    HW221299  11.844  11.432   0.875 -1.4688  0.2101  1.5277
38830SOL     OW21300   0.882   1.161   4.986 -0.1409 -0.0452 -0.7259
38830SOL    HW121301   0.845   1.102   5.051 -2.6589  2.8253  0.7169
38830SOL    HW221302   0.805   1.200   4.943  1.1243  3.7997  0.0807
38831SOL     OW21303   9.332   2.949   2.107  0.0586 -0.3375  0.4982
38831SOL    HW121304   9.284   2.899   2.173  0.6728 -1.6583 -0.0244
38831SOL    HW221305   9.423   2.945   2.135  0.2703 -0.5592 -0.1951
38832SOL     OW21306   8.999   7.997   6.422 -0.0061 -0.4200  0.0910
38832SOL    HW121307   9.060   8.069   6.437 -0.4672 -0.2118  1.0502
38832SOL    HW221308   9.024   7.961   6.337  3.1923 -2.0374  1.5596
38833SOL     OW21309  10.270   1.835  10.743 -0.3729  0.1734  0.2430
38833SOL    HW121310  10.215   1.892  10.796  1.6470  2.2214  0.3325
38833SOL    HW221311  10.220   1.820  10.663 -1.9774  0.0158  1.2422
38834SOL     OW21312   5.202   9.314   2.854  0.1947  0.1501 -0.2074
38834SOL    HW121313   5.276   9.312   2.793 -1.1265  1.9008 -1.9877
38834SOL    HW221314   5.236   9.362   2.930  0.4560  2.7684 -1.8230
38835SOL     OW21315   4.997   8.828   5.961 -0.2723 -0.5391 -0.5562
38835SOL    HW121316   4.926   8.885   5.990  0.1893 -1.1177  1.9704
38835SOL    HW221317   5.070   8.887   5.944 -0.7164 -0.1321 -1.0835
38836SOL     OW21318   4.258   6.722   4.640  0.6558 -0.2787  0.7721
38836SOL    HW121319   4.266   6.807   4.683  1.5984  0.2794 -0.4561
38836SOL    HW221320   4.348   6.690   4.632  0.3218 -1.3479  1.1201
38837SOL     OW21321  10.152   6.276  11.520 -0.0359  0.2930  0.3203
38837SOL    HW121322  10.217   6.305  11.585 -0.3169  0.3774  0.5661
38837SOL    HW221323  10.089   6.226  11.571  0.5862 -0.9974 -0.1397
38838SOL     OW21324  10.929   0.147  10.452  0.3715  0.2895 -0.5788
38838SOL    HW121325  10.915   0.206  10.378 -1.1067 -1.0528 -1.4111
38838SOL    HW221326  10.843   0.136  10.492  1.0653  0.6349  1.0979
38839SOL     OW21327   8.118   2.518   7.232  0.0146  0.4289 -0.2348
38839SOL    HW121328   8.207   2.504   7.199  0.7595  2.8978  0.4721
38839SOL    HW221329   8.121   2.485   7.322  0.7710  2.0013  0.3539
38840SOL     OW21330   5.127  10.016  11.046 -0.2931  0.0267 -0.0330
38840SOL    HW121331   5.188   9.954  11.006  0.5786  0.8588 -0.0310
38840SOL    HW221332   5.061  10.032  10.978  0.4212  0.3929 -0.6478
38841SOL     OW21333   7.156   6.826  12.123  0.0249 -0.7236  0.3443
38841SOL    HW121334   7.171   6.843  12.030 -0.6246 -3.2447 -0.3029
38841SOL    HW221335   7.091   6.891  12.149 -0.0594 -0.2045 -1.0801
38842SOL     OW21336   7.596  11.658   6.985 -0.1114  0.5931 -0.2307
38842SOL    HW121337   7.682  11.680   6.947  0.3622  0.1408  0.5533
38842SOL    HW221338   7.539  11.729   6.956  0.9011  1.7544  0.5121
38843SOL     OW21339   0.065   2.121   9.765 -0.2926  0.3732  0.3800
38843SOL    HW121340   0.036   2.148   9.678 -2.4638  2.3123  1.5429
38843SOL    HW221341   0.064   2.026   9.763 -0.1527  0.3767 -1.7425
38844SOL     OW21342   2.855   7.871  10.094 -0.3356 -0.3084  0.2824
38844SOL    HW121343   2.827   7.962  10.103 -1.5958 -0.6058 -0.4105
38844SOL    HW221344   2.807   7.823  10.161 -0.5408 -0.6249 -0.0812
38845SOL     OW21345  11.588   3.888   7.763  0.6380 -0.6365  0.2693
38845SOL    HW121346  11.512   3.901   7.706  0.7509  1.3558  0.4959
38845SOL    HW221347  11.647   3.960   7.741  2.1564 -1.7138  0.6317
38846SOL     OW21348   8.088   8.958   0.666 -0.5233  0.1933  0.2165
38846SOL    HW121349   8.065   8.912   0.747  1.8130  0.2782  1.0137
38846SOL    HW221350   8.004   8.986   0.630 -2.1470 -4.2352 -0.1334
38847SOL     OW21351   4.665   7.916  11.416 -0.0662 -0.0455 -0.1126
38847SOL    HW121352   4.738   7.923  11.354  0.4798 -2.9400  0.0489
38847SOL    HW221353   4.627   8.004  11.419  1.6285  0.8594 -2.3912
38848SOL     OW21354  11.338  10.985  12.266  0.1343  0.5586 -0.1439
38848SOL    HW121355  11.425  10.997  12.228  0.2919 -0.2324 -0.0524
38848SOL    HW221356  11.354  10.950  12.353 -0.2815 -0.6589 -0.5292
38849SOL     OW21357   2.046   5.348  12.379 -0.5059  0.5465  0.2687
38849SOL    HW121358   2.088   5.301  12.307  2.4365  1.3343  1.3298
38849SOL    HW221359   2.035   5.282  12.447 -0.1121  0.5252  0.3140
38850SOL     OW21360   2.906   1.422   5.226  0.3636  0.1924 -0.5438
38850SOL    HW121361   2.828   1.446   5.276  1.4731 -0.3002  1.5231
38850SOL    HW221362   2.915   1.328   5.239  0.0504 -0.1899 -2.6918
38851SOL     OW21363   1.983   1.453   7.406 -0.1336 -0.5214  0.1359
38851SOL    HW121364   1.911   1.402   7.368 -0.7122 -0.2440  0.8307
38851SOL    HW221365   2.061   1.400   7.390 -0.2703 -0.2350 -1.7986
38852SOL     OW21366  10.407   8.167   2.156 -0.0748  0.1270 -0.5256
38852SOL    HW121367  10.340   8.227   2.125 -0.5935 -0.9908 -1.6590
38852SOL    HW221368  10.451   8.136   2.077  1.3814  0.3775  0.1624
38853SOL     OW21369   8.164   3.286   6.090  0.2306  0.1616 -0.1333
38853SOL    HW121370   8.129   3.199   6.112 -1.1832  0.3910 -1.3337
38853SOL    HW221371   8.258   3.277   6.104  0.1544 -1.6370 -0.4182
38854SOL     OW21372   8.134   6.397   7.471  0.8177  0.2846  0.7453
38854SOL    HW121373   8.142   6.426   7.380 -0.4895  0.6231  0.7161
38854SOL    HW221374   8.082   6.317   7.465  0.5549  0.4191  1.1984
38855SOL     OW21375   7.238   1.142   9.627  0.5850  0.0722 -0.2081
38855SOL    HW121376   7.260   1.169   9.538 -0.6562  4.0403  0.4776
38855SOL    HW221377   7.321   1.112   9.664  1.9996  1.9947 -1.6036
38856SOL     OW21378   9.308   5.981   3.350 -0.0245  0.4367  0.5944
38856SOL    HW121379   9.346   5.957   3.434  0.7483  1.7949  0.6601
38856SOL    HW221380   9.242   6.047   3.372  0.8804  1.5433  0.0742
38857SOL     OW21381   9.425  10.263   5.852 -0.3981 -0.0727 -0.5696
38857SOL    HW121382   9.356  10.260   5.918  0.7558 -2.3018  0.6279
38857SOL    HW221383   9.425  10.354   5.822 -2.0149  0.6297  1.3520
38858SOL     OW21384   9.590  11.430  10.761 -0.1100 -0.1525  0.3378
38858SOL    HW121385   9.556  11.346  10.730 -0.1878  0.5367 -1.5436
38858SOL    HW221386   9.593  11.485  10.683  0.2160  1.5149  1.4802
38859SOL     OW21387   2.637   3.113  12.383 -0.3353  0.4908  0.6450
38859SOL    HW121388   2.732   3.114  12.394 -0.5118  1.4289  2.5880
38859SOL    HW221389   2.624   3.113  12.288  1.6074  1.2794  0.3209
38860SOL     OW21390   9.667  12.132   8.017  0.4795  0.4889 -0.7067
38860SOL    HW121391   9.763  12.130   8.012  0.5930  1.1481  0.7590
38860SOL    HW221392   9.639  12.091   7.935  2.0110 -0.3423 -0.8679
38861SOL     OW21393  10.590   1.399   5.090  0.5325  0.5280  0.0078
38861SOL    HW121394  10.609   1.481   5.044 -0.1707  1.2639  0.9660
38861SOL    HW221395  10.497   1.383   5.071  1.2340 -1.4407 -2.2307
38862SOL     OW21396   6.877   5.766   5.137  0.3478 -0.2501 -0.0638
38862SOL    HW121397   6.920   5.685   5.109  0.0229  0.0425 -1.4363
38862SOL    HW221398   6.868   5.818   5.058 -1.2168  0.3214  0.4576
38863SOL     OW21399   7.109   3.254   6.999  0.0190 -0.0578  0.3016
38863SOL    HW121400   7.138   3.316   7.065 -2.0978  0.5675  0.7032
38863SOL    HW221401   7.103   3.306   6.919 -0.2647 -0.1274  0.2797
38864SOL     OW21402   9.951   1.944   6.982  0.0082  0.7091 -0.7937
38864SOL    HW121403   9.911   1.865   7.017 -0.3617  0.8194 -0.9611
38864SOL    HW221404  10.045   1.928   6.989 -0.0207  1.0958  1.0971
38865SOL     OW21405   6.546   1.422   1.562 -0.2775  0.5444  0.4500
38865SOL    HW121406   6.605   1.370   1.508  0.9995  1.9304  0.4555
38865SOL    HW221407   6.536   1.505   1.514  2.4535  2.6169  3.1208
38866SOL     OW21408   1.103  12.583   9.061 -0.0291 -1.0049 -0.1407
38866SOL    HW121409   1.069  12.599   9.149  2.7665 -0.1184  0.8654
38866SOL    HW221410   1.073  12.658   9.010  1.0546  0.2054  0.9395
38867SOL     OW21411   3.196   5.591   1.906  0.2583  0.3289  0.2937
38867SOL    HW121412   3.168   5.681   1.889  1.5501  0.7583  0.3270
38867SOL    HW221413   3.168   5.542   1.829 -3.0739  0.0969  1.5110
38868SOL     OW21414  10.452   5.850   9.098 -0.7504  0.6504  0.3553
38868SOL    HW121415  10.360   5.826   9.087 -0.9099  1.6687 -0.7280
38868SOL    HW221416  10.497   5.766   9.107 -1.4140 -0.0722 -2.1788
38869SOL     OW21417   0.886   8.582   7.661 -0.1504  0.5652  0.0152
38869SOL    HW121418   0.968   8.609   7.703  0.1552  0.6260 -0.6087
38869SOL    HW221419   0.910   8.504   7.611 -0.3319  0.9382 -0.6591
38870SOL     OW21420   1.332   4.526   7.520  0.4764  0.7066  0.6666
38870SOL    HW121421   1.296   4.498   7.437 -1.3003 -0.4766  1.7707
38870SOL    HW221422   1.426   4.507   7.514 -0.0609 -2.0391 -0.0422
38871SOL     OW21423  11.773   9.277  10.036 -0.4261  0.4302 -0.3553
38871SOL    HW121424  11.729   9.196  10.012  0.0957 -0.7046  2.2157
38871SOL    HW221425  11.724   9.310  10.111 -0.6248  2.5420 -1.3493
38872SOL     OW21426   2.925   6.309   8.109 -0.0199 -0.0148 -0.0880
38872SOL    HW121427   2.964   6.396   8.114  1.0022 -0.4504 -0.1813
38872SOL    HW221428   2.950   6.276   8.023  2.0427 -1.4693  0.9714
38873SOL     OW21429   0.123   4.726   4.292 -0.2829  0.1435  0.4127
38873SOL    HW121430   0.102   4.645   4.339  0.6606  0.7322  1.9208
38873SOL    HW221431   0.204   4.707   4.245 -0.3054  0.0661  0.4055
38874SOL     OW21432   9.502   5.259  11.023  0.2246 -0.0129 -0.4670
38874SOL    HW121433   9.578   5.279  11.078  0.2746 -0.0527 -0.5210
38874SOL    HW221434   9.429   5.300  11.068  0.3553  0.4574 -0.6771
38875SOL     OW21435   4.720   5.208   4.070  0.2261 -0.2149  0.0745
38875SOL    HW121436   4.720   5.286   4.015  0.2109 -0.6514 -0.5499
38875SOL    HW221437   4.682   5.140   4.015  3.3872 -1.5445 -0.6945
38876SOL     OW21438   1.984   3.913   5.900  0.5654 -0.5571 -0.4837
38876SOL    HW121439   2.028   3.836   5.936 -1.6069 -2.1439 -0.9991
38876SOL    HW221440   1.929   3.944   5.973  0.4038 -0.3474 -0.6942
38877SOL     OW21441   5.037  11.623   7.312  0.4364 -0.2019 -0.0710
38877SOL    HW121442   5.100  11.662   7.252 -1.4855  0.8629 -1.5409
38877SOL    HW221443   5.056  11.663   7.397  1.5300  0.3095 -0.5362
38878SOL     OW21444   7.416   1.153   6.251  0.1099  0.0200  0.0423
38878SOL    HW121445   7.483   1.093   6.282  0.3009 -0.0278 -0.4472
38878SOL    HW221446   7.343   1.142   6.312  0.1354 -0.7158 -0.0491
38879SOL     OW21447  10.930   4.566   6.770 -0.2486 -0.5133  0.0162
38879SOL    HW121448  10.945   4.632   6.838  0.1436  0.6950 -1.1944
38879SOL    HW221449  10.992   4.496   6.790  1.2434  0.6987 -0.1654
38880SOL     OW21450   0.745  11.721   5.245  0.2078 -0.7097  0.4678
38880SOL    HW121451   0.756  11.734   5.339 -0.1854 -0.6485  0.5075
38880SOL    HW221452   0.797  11.643   5.225  0.1853 -0.7976  0.7559
38881SOL     OW21453   8.652   3.183  12.465 -0.1655  0.5726  0.6741
38881SOL    HW121454   8.705   3.252  12.425 -0.4018  0.2256 -0.2544
38881SOL    HW221455   8.565   3.223  12.476  0.1545  0.9951  1.7858
38882SOL     OW21456   1.404   1.079   6.139 -0.0241  0.0349 -0.4474
38882SOL    HW121457   1.456   1.087   6.218 -0.3707 -0.7901 -0.1246
38882SOL    HW221458   1.314   1.094   6.167 -0.1752 -0.4891 -0.6295
38883SOL     OW21459   3.584   9.120   5.537 -0.1066  0.3916 -0.1603
38883SOL    HW121460   3.630   9.187   5.485 -0.2503  0.8732  0.3264
38883SOL    HW221461   3.502   9.162   5.563  1.0222  1.1104  2.5883
38884SOL     OW21462   8.889   0.273   1.463  0.0254 -0.0413 -0.1979
38884SOL    HW121463   8.893   0.341   1.395 -0.6899  1.7838  1.5002
38884SOL    HW221464   8.972   0.282   1.509 -0.5850  0.5694  0.8144
38885SOL     OW21465   0.527   2.737  11.741 -0.3468 -0.0717 -0.5192
38885SOL    HW121466   0.477   2.808  11.700  0.0213 -1.0174 -2.7349
38885SOL    HW221467   0.468   2.662  11.739 -0.2213 -0.2127  0.5094
38886SOL     OW21468  10.737  11.215   2.955  0.2742  0.0842 -0.0804
38886SOL    HW121469  10.729  11.142   2.893  2.2434  0.4566 -0.8390
38886SOL    HW221470  10.812  11.265   2.924  0.9720  0.6359  2.2845
38887SOL     OW21471   9.941   8.752   7.009 -0.4383 -0.5938 -0.0124
38887SOL    HW121472   9.868   8.813   7.000 -0.7666 -0.9093  0.4567
38887SOL    HW221473  10.007   8.784   6.947 -0.2803  0.7087  0.7919
38888SOL     OW21474   2.805   2.054   5.044 -0.3436 -0.1662  0.7877
38888SOL    HW121475   2.797   2.017   4.956 -0.1054 -0.8063  1.0223
38888SOL    HW221476   2.873   2.121   5.036  0.2655 -0.7810  0.6435
38889SOL     OW21477  12.464   2.643   0.744  0.0779 -0.4796 -0.3539
38889SOL    HW121478  12.393   2.600   0.696  0.7282  0.8943 -2.6629
38889SOL    HW221479  12.489   2.579   0.811 -2.6293 -1.4070 -0.1136
38890SOL     OW21480   1.969   6.747   3.456  0.6246  0.0402 -0.4172
38890SOL    HW121481   1.890   6.777   3.502  0.7136  0.5319 -0.5781
38890SOL    HW221482   1.938   6.727   3.368  0.3410 -1.4456 -0.0080
38891SOL     OW21483   5.567   0.772   9.723  0.0425 -0.4663 -0.1922
38891SOL    HW121484   5.486   0.738   9.685  0.2197 -0.2431 -0.7901
38891SOL    HW221485   5.636   0.720   9.684  0.1675 -0.9574  0.6614
38892SOL     OW21486   6.453   6.779  12.471 -0.0871 -0.3980  0.4454
38892SOL    HW121487   6.412   6.832  12.540 -2.1361  0.3940 -1.2592
38892SOL    HW221488   6.437   6.688  12.499 -2.5396 -0.1107  0.2121
38893SOL     OW21489  10.588   6.610  11.548 -0.2950 -0.1756 -0.0873
38893SOL    HW121490  10.636   6.692  11.560  1.2245 -1.1993  1.2286
38893SOL    HW221491  10.509   6.635  11.500 -0.0060  2.0873  0.5118
38894SOL     OW21492   6.070   8.109   6.067 -0.2429 -0.6186 -0.0127
38894SOL    HW121493   6.143   8.171   6.068 -1.1991  0.5327  0.8152
38894SOL    HW221494   6.111   8.023   6.077  0.9100  0.1200  2.1088
38895SOL     OW21495   9.600   0.896   4.150  0.4238  0.0190  0.1154
38895SOL    HW121496   9.659   0.840   4.201 -1.4594 -1.4133  0.8288
38895SOL    HW221497   9.609   0.865   4.060  0.2713 -0.6552  0.3276
38896SOL     OW21498   6.742   2.301   8.446  0.3680  0.2687  0.6856
38896SOL    HW121499   6.675   2.360   8.411  1.4479  0.9947 -0.1898
38896SOL    HW221500   6.738   2.225   8.388  1.4814  1.0560 -0.4618
38897SOL     OW21501   6.057   2.872   3.769  0.0546  0.5162  0.7047
38897SOL    HW121502   6.139   2.900   3.727 -0.7925  0.3145 -1.1993
38897SOL    HW221503   6.032   2.946   3.824  0.4694  1.4404 -0.3052
38898SOL     OW21504   0.786  10.208   6.271  0.4754  0.3724 -0.0337
38898SOL    HW121505   0.702  10.251   6.286  2.0350  2.7862  2.7577
38898SOL    HW221506   0.795  10.146   6.343  1.4904  0.8517  0.2724
38899SOL     OW21507   2.867  11.458  10.802  0.1092 -0.1613 -0.7881
38899SOL    HW121508   2.918  11.418  10.873 -0.0239  1.1899  0.1179
38899SOL    HW221509   2.914  11.434  10.722  0.3597 -1.5830 -0.2341
38900SOL     OW21510   4.814   5.120   6.833  0.0805 -0.2331 -1.2250
38900SOL    HW121511   4.866   5.191   6.795 -1.3382  0.6257 -1.6609
38900SOL    HW221512   4.742   5.107   6.772 -2.1458  1.0227  0.9376
38901SOL     OW21513   0.394   5.037   7.462 -0.6650  0.2702  0.0502
38901SOL    HW121514   0.326   5.003   7.520 -1.3806 -0.6184 -1.2426
38901SOL    HW221515   0.354   5.115   7.422 -0.0752  1.0362  0.9194
38902SOL     OW21516   5.150   4.999  10.324  0.2085  0.0235 -0.0906
38902SOL    HW121517   5.094   5.022  10.399  0.1933  0.3812 -0.2083
38902SOL    HW221518   5.238   4.994  10.362  0.4046  1.5386 -0.2822
38903SOL     OW21519  10.860  10.774   6.173 -0.4728  0.3513 -0.1561
38903SOL    HW121520  10.909  10.733   6.102 -1.9043  1.3949 -1.8251
38903SOL    HW221521  10.855  10.866   6.149  0.9183  1.2154  2.4789
38904SOL     OW21522   6.875   8.209   9.642 -0.1483 -0.5114 -0.1019
38904SOL    HW121523   6.820   8.135   9.616 -0.5290 -0.2115 -0.1592
38904SOL    HW221524   6.885   8.200   9.737 -3.3279  1.4219  0.5397
38905SOL     OW21525   3.118   6.513   8.365  0.2874 -0.2119 -0.3534
38905SOL    HW121526   3.152   6.578   8.426 -0.7924  0.0679 -0.0448
38905SOL    HW221527   3.046   6.470   8.411 -1.4345  0.9256 -1.8758
38906SOL     OW21528  10.817   5.529   6.205  0.1753 -0.4060 -0.0936
38906SOL    HW121529  10.723   5.519   6.219  0.2610 -0.3719  0.5447
38906SOL    HW221530  10.849   5.440   6.191  0.5615 -0.9185  3.1500
38907SOL     OW21531  11.153   9.042   3.053 -0.0068 -0.1160 -0.3875
38907SOL    HW121532  11.111   9.065   2.970  0.2335 -0.1441 -0.5154
38907SOL    HW221533  11.080   9.035   3.115 -0.1552  0.2567 -0.5135
38908SOL     OW21534  11.014   4.837  10.888 -0.3219  0.3201  0.1256
38908SOL    HW121535  10.972   4.830  10.974  2.3509  1.5857  1.6452
38908SOL    HW221536  11.089   4.778  10.892 -0.6852 -0.3439 -1.7582
38909SOL     OW21537   2.328   9.441   9.330  0.0770  0.1755  0.7184
38909SOL    HW121538   2.332   9.366   9.388 -3.0323  0.7475  1.8457
38909SOL    HW221539   2.338   9.404   9.242 -0.7660 -1.4622  1.2818
38910SOL     OW21540   3.925  11.709   5.417 -0.0561  0.1303 -0.3674
38910SOL    HW121541   3.932  11.729   5.511 -2.2010  1.1531 -0.3654
38910SOL    HW221542   3.840  11.666   5.409  0.6722 -1.1523 -1.7070
38911SOL     OW21543   6.511   4.062   9.311 -0.1486  0.5166 -0.3071
38911SOL    HW121544   6.447   4.132   9.305  1.0756  1.6301 -0.7477
38911SOL    HW221545   6.497   4.010   9.231 -0.8415  0.4345 -0.1400
38912SOL     OW21546   8.961   4.833   6.360 -0.0097  0.1351  0.0379
38912SOL    HW121547   8.934   4.783   6.283  0.4147 -0.7942  0.4713
38912SOL    HW221548   8.957   4.924   6.333  2.1321 -0.2295 -1.7696
38913SOL     OW21549   0.235   0.528   0.634  0.0095 -0.3202  0.6714
38913SOL    HW121550   0.248   0.507   0.726  0.0484  0.1524  0.7752
38913SOL    HW221551   0.140   0.535   0.624 -0.0406 -1.0886  0.5094
38914SOL     OW21552   7.570   0.056  11.786  0.1777 -0.3042 -0.0837
38914SOL    HW121553   7.577   0.138  11.834 -0.1397 -0.6255  0.5355
38914SOL    HW221554   7.625   0.068  11.709  2.7532 -0.6357  1.5863
38915SOL     OW21555  11.444   4.081   2.201  0.0397  0.2607 -0.5029
38915SOL    HW121556  11.477   4.036   2.123  1.7025  0.3192  0.1179
38915SOL    HW221557  11.403   4.013   2.253  3.9126 -1.0369  1.1781
38916SOL     OW21558   1.153  10.434   6.844  0.3568 -0.3560  0.2159
38916SOL    HW121559   1.236  10.390   6.859  0.5841 -0.3769 -0.9984
38916SOL    HW221560   1.100  10.370   6.797 -0.5068 -0.4829  1.3127
38917SOL     OW21561   8.585   9.066   6.942 -0.3748 -0.0539 -0.0437
38917SOL    HW121562   8.590   9.121   7.020 -0.0647 -2.8928  2.0643
38917SOL    HW221563   8.660   9.093   6.889  0.5688  0.6163  1.5636
38918SOL     OW21564   2.848   6.372   1.403 -0.0191 -0.1961  0.7142
38918SOL    HW121565   2.801   6.454   1.418 -0.4630 -0.1766 -0.6374
38918SOL    HW221566   2.782   6.314   1.364  0.8713 -0.4225 -0.4871
38919SOL     OW21567   7.279   6.779   5.853 -0.7947 -0.0964  0.3865
38919SOL    HW121568   7.268   6.711   5.920  0.1479 -1.5237 -0.8555
38919SOL    HW221569   7.271   6.734   5.770  1.5334  0.9436 -0.5137
38920SOL     OW21570   6.124   6.451   7.663 -0.5077  0.3237 -0.3738
38920SOL    HW121571   6.044   6.448   7.611 -0.6615 -1.5243 -0.1010
38920SOL    HW221572   6.116   6.532   7.715 -1.6686  0.7216 -1.1354
38921SOL     OW21573   7.797   3.701   3.060  0.4934 -0.0881 -0.4407
38921SOL    HW121574   7.749   3.619   3.051 -0.4209  0.3434  0.3693
38921SOL    HW221575   7.816   3.728   2.970 -0.3913 -0.5065 -0.7637
38922SOL     OW21576   3.771   4.806   5.414  0.2086  0.2203 -0.1189
38922SOL    HW121577   3.750   4.713   5.402 -0.3229  0.3545 -0.2382
38922SOL    HW221578   3.765   4.843   5.326 -0.8331  0.6234  0.1131
38923SOL     OW21579   8.500  11.531   9.169  0.0043 -0.0037  0.2353
38923SOL    HW121580   8.535  11.516   9.081  0.0664 -1.5300  0.4822
38923SOL    HW221581   8.405  11.536   9.157 -0.1260 -1.7613  0.2178
38924SOL     OW21582   2.180   9.325  11.122  0.1194  0.7205  0.2512
38924SOL    HW121583   2.244   9.258  11.099 -1.1414 -0.0261 -1.1926
38924SOL    HW221584   2.200   9.399  11.064  0.4794  1.0060  0.7229
38925SOL     OW21585   4.657  12.286   6.520 -0.0765  0.8281  0.2812
38925SOL    HW121586   4.569  12.256   6.542  0.2130  0.0800  0.4318
38925SOL    HW221587   4.681  12.344   6.593 -0.1510  0.4428  0.6108
38926SOL     OW21588   1.144   9.427   0.945  0.3306  0.5031  0.5936
38926SOL    HW121589   1.094   9.351   0.912  2.2449 -2.1642  3.2872
38926SOL    HW221590   1.197   9.454   0.870  0.2508 -1.4420 -0.2412
38927SOL     OW21591  12.530   9.097   3.374  0.0897 -0.5354 -0.5323
38927SOL    HW121592  12.503   9.035   3.306  0.4650 -0.2380 -0.9567
38927SOL    HW221593  12.619   9.071   3.395 -0.4590 -1.4518  0.7987
38928SOL     OW21594   4.542   5.286  10.456 -0.0502 -0.4532 -0.9989
38928SOL    HW121595   4.558   5.199  10.491  1.0281 -0.4629 -1.4500
38928SOL    HW221596   4.559   5.345  10.529 -1.4019 -0.6381 -0.5176
38929SOL     OW21597   5.598   6.457   5.004 -0.0172  0.0546 -0.4493
38929SOL    HW121598   5.603   6.519   5.077 -0.8170 -2.1816  1.6303
38929SOL    HW221599   5.505   6.454   4.982  0.0425 -0.2575 -0.6625
38930SOL     OW21600   3.888   7.942   0.030  0.0670  0.0219  0.0232
38930SOL    HW121601   3.968   7.941  -0.022  0.4634 -0.2036  0.6296
38930SOL    HW221602   3.870   7.849   0.048 -1.7676 -0.1549 -2.2666
38931SOL     OW21603  10.193  10.824   1.099 -0.3661 -0.1586  0.7265
38931SOL    HW121604  10.229  10.746   1.058 -0.8567  0.4484 -0.9432
38931SOL    HW221605  10.099  10.821   1.078 -0.5427  0.4475  1.3731
38932SOL     OW21606   8.777   1.249   8.323 -0.2104 -0.6221 -0.3406
38932SOL    HW121607   8.700   1.198   8.299 -0.4739 -0.6684  0.5592
38932SOL    HW221608   8.743   1.320   8.376  0.0366  1.1039 -2.3644
38933SOL     OW21609  12.115  10.141   4.097  0.0532  0.1796  0.0693
38933SOL    HW121610  12.054  10.092   4.042 -0.2117  0.5700  0.0142
38933SOL    HW221611  12.200  10.132   4.052  0.8819 -3.4199  1.9902
38934SOL     OW21612   0.269   5.849   7.022  0.0975  0.1496  0.8143
38934SOL    HW121613   0.294   5.764   7.057  1.1469 -1.1503 -2.7575
38934SOL    HW221614   0.178   5.839   6.996  0.5311 -0.3103 -0.6140
38935SOL     OW21615   0.294  10.490  10.131 -0.0278  0.3288 -0.1739
38935SOL    HW121616   0.241  10.447  10.198 -0.4070  1.3405  0.2006
38935SOL    HW221617   0.355  10.422  10.101  0.6021  0.0240  1.6508
38936SOL     OW21618   0.588   2.293  12.015 -0.5076  0.1363  0.4837
38936SOL    HW121619   0.524   2.309  11.946 -0.6019  0.3634  0.6219
38936SOL    HW221620   0.563   2.209  12.052  0.7548 -1.0083 -1.0996
38937SOL     OW21621   8.608   0.603   1.068  0.2609 -0.1044  0.2474
38937SOL    HW121622   8.648   0.524   1.032 -1.0362 -0.4949 -0.4084
38937SOL    HW221623   8.664   0.626   1.142  0.9985 -1.3017  0.0999
38938SOL     OW21624   3.283  11.531   8.722  0.1851 -0.6147 -0.1535
38938SOL    HW121625   3.271  11.491   8.808 -1.1430  0.2360  0.0806
38938SOL    HW221626   3.238  11.471   8.661 -0.5376 -0.2492  0.0087
38939SOL     OW21627   7.787   7.199   5.245 -0.0460 -0.0184  0.1800
38939SOL    HW121628   7.833   7.200   5.160 -0.3343 -0.9180  0.0072
38939SOL    HW221629   7.707   7.149   5.229  0.2323 -0.8127  1.1545
38940SOL     OW21630  10.920   7.817   0.109  0.2601  0.2460  0.6296
38940SOL    HW121631  10.985   7.811   0.179  0.2090  1.8819  0.8698
38940SOL    HW221632  10.852   7.755   0.135  0.7628  0.0104  1.4495
38941SOL     OW21633  12.361   7.609   2.584  0.2753  0.2379 -0.0734
38941SOL    HW121634  12.274   7.602   2.544 -0.5029  0.9386  1.3968
38941SOL    HW221635  12.415   7.651   2.518 -0.9443  1.2993 -0.4319
38942SOL     OW21636   1.074   3.952   9.752  0.3322  0.1412 -0.2061
38942SOL    HW121637   1.088   3.974   9.844 -1.1253 -1.7759  0.5341
38942SOL    HW221638   1.161   3.936   9.717  0.8302 -0.1662  1.1297
38943SOL     OW21639   0.160   2.676  11.638  0.2031  0.3067 -0.3855
38943SOL    HW121640   0.162   2.736  11.564  1.8193 -1.1239 -1.5998
38943SOL    HW221641   0.230   2.613  11.620 -3.0360 -3.6581 -0.6654
38944SOL     OW21642   6.808   4.566   5.184 -0.5983  0.5252 -0.3059
38944SOL    HW121643   6.733   4.511   5.162 -2.1610  1.7770  1.5376
38944SOL    HW221644   6.834   4.536   5.271 -1.8138  2.8884  0.9798
38945SOL     OW21645   7.697  10.484   4.484 -0.1613  0.4457 -0.1944
38945SOL    HW121646   7.780  10.441   4.506  0.2421  1.5619  0.5376
38945SOL    HW221647   7.640  10.466   4.559 -0.1007  0.8932 -0.0389
38946SOL     OW21648   2.397   6.700   5.779 -0.0333  0.2303 -0.3176
38946SOL    HW121649   2.330   6.631   5.777  0.1183  0.0365  0.8907
38946SOL    HW221650   2.474   6.659   5.740 -0.4999  0.3600 -1.4393
38947SOL     OW21651   7.162   7.545   9.753  0.0615 -0.3453  0.1305
38947SOL    HW121652   7.217   7.474   9.717 -0.9923 -0.8098 -0.6179
38947SOL    HW221653   7.186   7.549   9.846  1.9147  0.0001 -0.3236
38948SOL     OW21654  11.612  10.185   7.346 -0.3372 -0.9888  0.4368
38948SOL    HW121655  11.686  10.124   7.349  0.9875  0.3506 -1.9638
38948SOL    HW221656  11.538  10.132   7.318  0.5639 -1.7315 -0.6369
38949SOL     OW21657   0.388  12.513   0.078 -0.3770 -0.9295 -0.3103
38949SOL    HW121658   0.419  12.595   0.116  2.7943 -0.7831 -2.8400
38949SOL    HW221659   0.369  12.458   0.154  2.5325  0.3692  1.5308
38950SOL     OW21660   3.301   1.831   2.008 -0.4021  0.4153 -0.3451
38950SOL    HW121661   3.372   1.829   2.071 -1.9266  2.5040  1.6150
38950SOL    HW221662   3.322   1.761   1.946  1.6704 -1.1606  1.9277
38951SOL     OW21663   1.496   3.410  11.787 -0.2639 -0.3142 -0.2403
38951SOL    HW121664   1.557   3.336  11.789 -0.1540 -0.2426 -0.8687
38951SOL    HW221665   1.546   3.482  11.826  0.1782 -0.1684 -1.0620
38952SOL     OW21666   8.785   5.859   8.823 -0.3459 -0.1494 -0.5145
38952SOL    HW121667   8.803   5.873   8.730  0.3207  1.4717 -0.1705
38952SOL    HW221668   8.734   5.936   8.850  1.6561  0.7222  1.0143
38953SOL     OW21669   2.239   2.754   6.723  0.0033 -0.2123 -0.2211
38953SOL    HW121670   2.160   2.804   6.740 -0.0166 -0.1506 -0.4846
38953SOL    HW221671   2.259   2.710   6.806 -0.6052 -0.6465 -0.2972
38954SOL     OW21672  12.164  11.301   1.204 -0.3256  0.2138  0.5979
38954SOL    HW121673  12.127  11.230   1.256 -0.2122  0.8256  1.5225
38954SOL    HW221674  12.156  11.379   1.259 -0.6859  0.9771 -0.5104
38955SOL     OW21675   6.958   4.297   0.856 -0.2499 -0.0701  0.6577
38955SOL    HW121676   6.938   4.389   0.876  1.9791  0.5286  0.3312
38955SOL    HW221677   6.973   4.296   0.761 -0.2421 -0.7808  0.6640
38956SOL     OW21678   6.697   3.547   2.701 -0.0673 -0.5019  0.4740
38956SOL    HW121679   6.680   3.470   2.647  0.6236 -0.2168 -0.1759
38956SOL    HW221680   6.624   3.550   2.763 -2.1127  0.3915 -1.8083
38957SOL     OW21681   4.172   0.675   7.039 -0.8743 -0.5885  0.1244
38957SOL    HW121682   4.099   0.625   7.075  0.1330 -1.5730  0.8314
38957SOL    HW221683   4.200   0.732   7.110 -0.7449 -0.4458 -0.0398
38958SOL     OW21684   4.364  11.601  12.358  0.5101 -0.1903 -0.3221
38958SOL    HW121685   4.288  11.599  12.300  0.6033 -0.2292 -0.4434
38958SOL    HW221686   4.336  11.656  12.432  0.5564  0.2653 -0.6401
38959SOL     OW21687   6.262   9.882   0.630 -0.0858  0.1234 -0.0423
38959SOL    HW121688   6.311   9.812   0.587 -0.4056 -0.5371  0.6414
38959SOL    HW221689   6.291   9.879   0.721 -0.4840  0.5393  0.1045
38960SOL     OW21690   8.808   1.605   6.220  0.2028  0.2655  0.0531
38960SOL    HW121691   8.798   1.549   6.143 -0.2572  1.3849 -0.7219
38960SOL    HW221692   8.903   1.614   6.231  0.2739 -0.2653 -0.1049
38961SOL     OW21693  12.293   0.708   4.469 -0.2737  0.1937 -0.2352
38961SOL    HW121694  12.375   0.671   4.437 -1.9805 -2.0032 -2.3001
38961SOL    HW221695  12.281   0.788   4.417  1.2265  1.4047  1.1597
38962SOL     OW21696   8.400   2.902   7.944  0.2217 -0.0720 -0.0931
38962SOL    HW121697   8.371   2.981   7.899  0.8338  1.3510  1.8560
38962SOL    HW221698   8.494   2.895   7.923  0.7180  1.0856  1.5080
38963SOL     OW21699   6.992   8.796   4.098 -0.2132  0.1060 -0.1969
38963SOL    HW121700   7.015   8.707   4.124  0.0275  0.5809  1.3260
38963SOL    HW221701   7.043   8.811   4.018 -0.1369 -1.0602 -0.3870
38964SOL     OW21702  10.681   0.970   3.674  0.7080 -0.2397 -0.8301
38964SOL    HW121703  10.603   0.915   3.685 -0.3081  0.8935 -2.0263
38964SOL    HW221704  10.716   0.945   3.588  1.1217 -0.0976 -0.7049
38965SOL     OW21705   4.453   3.651  10.385 -0.1454 -0.2653 -0.2352
38965SOL    HW121706   4.377   3.597  10.402  0.6873 -2.7745 -3.4427
38965SOL    HW221707   4.445   3.675  10.293  2.0550  0.8868 -0.1964
38966SOL     OW21708   6.489   7.064   6.866  0.1732  0.2205 -0.1581
38966SOL    HW121709   6.532   7.140   6.828  1.1543 -0.8144 -1.2093
38966SOL    HW221710   6.409   7.053   6.814 -0.0598  0.6328  0.1115
38967SOL     OW21711   1.133   4.771   0.695 -0.0597  1.1220 -0.2372
38967SOL    HW121712   1.207   4.744   0.642  1.1310  2.2558  0.7885
38967SOL    HW221713   1.157   4.747   0.785 -1.1409  1.0883  0.0640
38968SOL     OW21714   7.618   8.983  10.912 -0.3746 -0.0509  0.0768
38968SOL    HW121715   7.556   8.961  10.981  0.8872  1.3336  1.7358
38968SOL    HW221716   7.565   9.027  10.845 -1.3955 -0.1092  0.8303
38969SOL     OW21717  11.712   6.848   2.419 -0.1172 -0.5288  0.0938
38969SOL    HW121718  11.688   6.757   2.437  0.6007 -0.2350  3.2558
38969SOL    HW221719  11.769   6.872   2.492 -0.3981  2.5181 -0.5501
38970SOL     OW21720   3.433   5.033  11.238  0.3432  0.2111  0.1152
38970SOL    HW121721   3.344   5.052  11.207 -0.3715  1.3135  2.5653
38970SOL    HW221722   3.420   4.978  11.316  1.9806 -1.8225 -0.9565
38971SOL     OW21723   9.362   6.395   7.996 -0.1117 -0.0180  0.3778
38971SOL    HW121724   9.323   6.462   7.939 -0.0316  0.3986  0.8003
38971SOL    HW221725   9.451   6.428   8.013 -0.5363  0.4829  1.7255
38972SOL     OW21726   5.672   1.052   2.701  0.0329 -0.8726 -0.1220
38972SOL    HW121727   5.645   1.077   2.613  2.4637 -1.7605 -1.2062
38972SOL    HW221728   5.677   1.135   2.749  1.1742 -0.0397 -1.6020
38973SOL     OW21729   2.885   5.027   2.592 -0.8278 -0.1333 -0.1066
38973SOL    HW121730   2.947   4.963   2.557 -0.1254  0.2572  0.3896
38973SOL    HW221731   2.801   5.004   2.553 -0.3168 -0.5126 -1.0038
38974SOL     OW21732   1.830   6.997   4.461 -0.0347  0.4885  0.0030
38974SOL    HW121733   1.830   7.064   4.530 -0.9674  0.2679  0.2251
38974SOL    HW221734   1.841   6.915   4.509 -1.1754  0.2888 -0.0462
38975SOL     OW21735   8.333   1.647   5.211  0.9818 -0.2400  0.5159
38975SOL    HW121736   8.419   1.679   5.186  0.7465  0.1685  0.2213
38975SOL    HW221737   8.274   1.719   5.192  0.5410 -0.5990  0.5016
38976SOL     OW21738  10.228  11.748  10.766  0.2178  0.5717 -0.4248
38976SOL    HW121739  10.237  11.843  10.765 -2.5835  0.9350 -0.5705
38976SOL    HW221740  10.246  11.721  10.676  2.2010  0.7812 -0.1141
38977SOL     OW21741   5.801   9.631   1.413  0.1327 -0.2084  0.1320
38977SOL    HW121742   5.715   9.672   1.419 -0.1498 -0.7769  0.0808
38977SOL    HW221743   5.836   9.660   1.328 -0.5107 -0.9050 -0.3906
38978SOL     OW21744  11.190   5.235   4.978 -0.1678 -0.0179 -0.2099
38978SOL    HW121745  11.153   5.290   5.047  0.0335  0.5169 -0.5204
38978SOL    HW221746  11.239   5.167   5.024  0.3700  0.6212  0.1711
38979SOL     OW21747   9.168  11.934   2.154  0.2026 -0.5121 -0.0551
38979SOL    HW121748   9.260  11.919   2.175  0.6036  0.3797 -1.0789
38979SOL    HW221749   9.130  11.967   2.236  0.1859 -3.0852  1.0754
38980SOL     OW21750   6.296   3.785  11.359  0.1035 -0.6063  0.2181
38980SOL    HW121751   6.302   3.848  11.288 -0.4006 -0.6567  0.1270
38980SOL    HW221752   6.375   3.800  11.411 -0.0650  0.1709  0.2592
38981SOL     OW21753  10.551   6.919   8.611 -0.0477 -0.4705 -0.4479
38981SOL    HW121754  10.461   6.889   8.598 -0.4534  0.7561 -0.6156
38981SOL    HW221755  10.542   7.000   8.661  1.0401 -0.9016  0.4818
38982SOL     OW21756   4.322   3.590   5.848  0.0629  0.2145 -0.0599
38982SOL    HW121757   4.244   3.573   5.901  0.5253  0.1213  0.6119
38982SOL    HW221758   4.296   3.661   5.789 -1.5892 -2.0334 -2.2045
38983SOL     OW21759   7.429   4.499  12.423  0.5529  0.2389  0.7286
38983SOL    HW121760   7.429   4.559  12.348  0.5854 -0.3217  0.2726
38983SOL    HW221761   7.341   4.464  12.425  1.5539 -2.8756 -1.6301
38984SOL     OW21762   8.387   1.742   6.240 -0.2080  0.4271 -0.1097
38984SOL    HW121763   8.376   1.724   6.146 -0.8062  0.5874 -0.0728
38984SOL    HW221764   8.445   1.819   6.242  2.5290 -1.4918 -0.2594
38985SOL     OW21765   1.953  11.702   1.602  0.0997 -0.2864 -0.0829
38985SOL    HW121766   1.952  11.797   1.613  0.3086 -0.3809  0.7650
38985SOL    HW221767   1.872  11.672   1.642  0.8727 -0.6310  1.2786
38986SOL     OW21768   6.351   3.208   3.000 -0.1933 -0.0845 -0.0571
38986SOL    HW121769   6.419   3.141   3.006  1.7028  1.7949  0.6488
38986SOL    HW221770   6.396   3.285   2.963 -2.0944  1.0378 -0.1864
38987SOL     OW21771   8.011  11.050  11.396 -0.4850  0.2757 -0.0834
38987SOL    HW121772   8.071  10.976  11.383 -0.5157  0.3909 -0.9224
38987SOL    HW221773   7.924  11.012  11.389 -0.5020  0.3609 -0.3281
38988SOL     OW21774  10.556   4.064   1.575 -0.5335 -0.1289  0.2567
38988SOL    HW121775  10.644   4.059   1.539 -0.0439  0.3614  1.3689
38988SOL    HW221776  10.540   3.979   1.615 -1.0837 -0.6802 -1.0709
38989SOL     OW21777   1.990   7.811   3.126 -0.1249  0.5751  0.5037
38989SOL    HW121778   2.071   7.777   3.087 -0.2067  1.1844 -0.2217
38989SOL    HW221779   1.986   7.902   3.096 -1.5149  0.3103 -0.1742
38990SOL     OW21780   2.635  11.798   3.498 -0.4307  0.4299  0.2726
38990SOL    HW121781   2.580  11.862   3.544 -1.9168 -0.6797  0.0918
38990SOL    HW221782   2.593  11.787   3.413  0.8274  0.5069 -0.3878
38991SOL     OW21783  11.497   4.478   9.261  0.5300 -0.3499 -0.3681
38991SOL    HW121784  11.500   4.456   9.354  1.1599  0.3212 -0.2247
38991SOL    HW221785  11.410   4.518   9.249  1.2830  1.6463  0.4264
38992SOL     OW21786   5.364   2.430   4.255 -0.3066  0.3482 -0.0855
38992SOL    HW121787   5.274   2.395   4.256  0.3722 -1.6176 -1.4986
38992SOL    HW221788   5.398   2.410   4.343 -1.2557  1.2447  0.5128
38993SOL     OW21789   9.818  10.062   4.822  0.1941 -0.1924  0.1018
38993SOL    HW121790   9.735  10.088   4.781  0.9933  1.1650 -0.7308
38993SOL    HW221791   9.867  10.020   4.751  0.5143 -0.3142  0.3948
38994SOL     OW21792  12.035  11.496   9.603  0.6786 -0.3902 -0.1342
38994SOL    HW121793  11.997  11.523   9.687  2.3365  0.5825  0.3551
38994SOL    HW221794  12.019  11.570   9.544  3.4441  0.9703  0.6432
38995SOL     OW21795   0.559   7.767   0.104 -0.5276  0.0377  0.1798
38995SOL    HW121796   0.465   7.760   0.093 -0.3593  0.0907 -1.5328
38995SOL    HW221797   0.574   7.859   0.126 -0.7754  0.4151 -1.1149
38996SOL     OW21798   5.720   1.776   1.570  0.0978  0.2520 -0.1395
38996SOL    HW121799   5.802   1.755   1.613  0.0011 -0.2054 -0.1813
38996SOL    HW221800   5.664   1.700   1.585 -0.5123  0.7880  0.3733
38997SOL     OW21801   9.542  12.485   2.121  0.1810 -0.0113  0.2677
38997SOL    HW121802   9.458  12.487   2.077  0.7218  2.5145 -0.8054
38997SOL    HW221803   9.565  12.577   2.135  1.5956 -0.6383  2.8724
38998SOL     OW21804  11.439   7.340   2.321 -0.0496 -0.1627 -0.0133
38998SOL    HW121805  11.455   7.387   2.240  0.0955  1.1832  0.7597
38998SOL    HW221806  11.501   7.268   2.320  0.6641  0.4420 -0.6291
38999SOL     OW21807   0.798   3.846   7.262 -0.1196  0.2743  0.4548
38999SOL    HW121808   0.888   3.871   7.241 -0.3153  1.3945  0.8813
38999SOL    HW221809   0.745   3.897   7.201 -0.5043  0.3348  0.8371
39000SOL     OW21810   2.692   3.301   3.360 -0.0819 -0.2588 -0.6390
39000SOL    HW121811   2.748   3.240   3.407  1.6882 -0.2732 -2.6408
39000SOL    HW221812   2.707   3.385   3.402  0.3671 -0.5191 -0.2713
39001SOL     OW21813  12.557  12.539  12.410  0.2191 -0.3472  0.6709
39001SOL    HW121814  12.626  12.531  12.475 -0.6746 -0.7984  1.5994
39001SOL    HW221815  12.476  12.543  12.461 -0.4267  0.6219 -0.3610
39002SOL     OW21816   3.857   8.064   5.826 -0.3374  0.2028 -0.0031
39002SOL    HW121817   3.766   8.033   5.830 -0.5813  1.0566  2.5765
39002SOL    HW221818   3.888   8.061   5.916  1.9731  0.6861 -0.7107
39003SOL     OW21819   5.108   5.417   4.208  0.3616  0.4174 -0.3499
39003SOL    HW121820   5.116   5.511   4.225  2.0265 -0.2326  3.2905
39003SOL    HW221821   5.032   5.390   4.259  0.1079 -0.3196 -1.0872
39004SOL     OW21822  10.483   5.459   4.494  0.1711 -0.1171  0.3405
39004SOL    HW121823  10.568   5.433   4.529 -0.0217 -1.3776 -0.0529
39004SOL    HW221824  10.450   5.380   4.451 -0.4547  0.8100 -0.9743
39005SOL     OW21825   4.065   1.141   7.330  0.2690 -0.1764  0.0088
39005SOL    HW121826   4.066   1.236   7.324  1.8491 -0.2295 -1.4372
39005SOL    HW221827   4.127   1.120   7.399  0.5041 -0.1719 -0.2001
39006SOL     OW21828   7.002  12.308  11.827 -0.1381  0.2791 -0.1905
39006SOL    HW121829   7.033  12.223  11.796  0.5094  0.6494 -0.5742
39006SOL    HW221830   7.014  12.367  11.753 -0.8662  0.6419 -0.0284
39007SOL     OW21831   5.147   6.497   1.576  0.4454  0.1155 -0.0034
39007SOL    HW121832   5.104   6.553   1.641  2.6392  1.3392  0.4924
39007SOL    HW221833   5.133   6.408   1.609  0.4264  0.6390  1.5073
39008SOL     OW21834  10.204   0.010  11.405  0.1354 -0.4262  0.7458
39008SOL    HW121835  10.149   0.047  11.475  1.2605 -1.3404  2.1849
39008SOL    HW221836  10.269  -0.043  11.452  0.0140 -2.3185 -1.1003
39009SOL     OW21837   8.522   8.047   7.476  0.8568  0.2466 -0.0041
39009SOL    HW121838   8.545   8.025   7.386 -1.7389  0.6356 -0.8668
39009SOL    HW221839   8.544   8.140   7.485 -1.7073  1.0990 -1.3979
39010SOL     OW21840  12.382  12.602  10.885 -0.2019  0.1091 -0.5571
39010SOL    HW121841  12.374  12.641  10.798  1.5498  1.4727 -0.1599
39010SOL    HW221842  12.417  12.672  10.940 -0.9630 -0.8140  1.2028
39011SOL     OW21843   9.662   3.681  11.223 -0.5377  0.2762  0.2722
39011SOL    HW121844   9.632   3.741  11.292  0.1447  0.1543  0.6888
39011SOL    HW221845   9.652   3.730  11.142 -1.0840  0.5300  0.4917
39012SOL     OW21846   9.278   2.939  11.062 -0.5258  0.7946  0.0920
39012SOL    HW121847   9.228   2.997  11.005  1.0943  1.4333 -0.7652
39012SOL    HW221848   9.220   2.866  11.080 -2.0015  1.8467 -0.2368
39013SOL     OW21849   0.913  11.425   7.957  0.2979  0.0507  0.1726
39013SOL    HW121850   0.842  11.366   7.982 -0.2616  0.7165  0.1947
39013SOL    HW221851   0.914  11.492   8.026  0.9546  0.0349  0.1779
39014SOL     OW21852  11.330   7.445   0.660 -0.3600  0.3261  0.6737
39014SOL    HW121853  11.384   7.464   0.582  0.8094 -0.8454  1.1681
39014SOL    HW221854  11.240   7.454   0.629  0.0868  1.1599 -0.4837
39015SOL     OW21855  11.844   1.323   0.019  0.2253  0.0311  0.2204
39015SOL    HW121856  11.776   1.338  -0.047  0.7508  1.7152  0.0022
39015SOL    HW221857  11.923   1.363  -0.019 -0.1284  4.0675  3.0738
39016SOL     OW21858   4.588  10.142   4.552  0.2102  0.3984  0.2461
39016SOL    HW121859   4.551  10.208   4.610 -0.2678  0.9955 -0.7081
39016SOL    HW221860   4.530  10.141   4.475  1.6813  0.7658 -0.9198
39017SOL     OW21861   3.119   5.634   0.426 -0.1282 -0.6993 -1.1682
39017SOL    HW121862   3.202   5.625   0.378  0.8245 -0.1578  0.3130
39017SOL    HW221863   3.115   5.558   0.483 -0.3895 -0.4627 -0.8648
39018SOL     OW21864   6.441   4.682   7.250 -0.1411 -0.3619  1.2773
39018SOL    HW121865   6.403   4.689   7.163  2.6104 -0.4496 -0.0325
39018SOL    HW221866   6.445   4.588   7.268  0.1143 -0.3809  1.1154
39019SOL     OW21867   4.638   4.412   1.146 -0.2158  0.1648 -0.0309
39019SOL    HW121868   4.698   4.348   1.108 -0.3698  0.4616 -0.7922
39019SOL    HW221869   4.576   4.432   1.075 -2.3152 -1.4460  1.2142
39020SOL     OW21870   8.947   7.579   8.269  0.2290  0.3804 -0.4889
39020SOL    HW121871   8.936   7.669   8.301 -1.2736  1.0673 -2.6854
39020SOL    HW221872   9.015   7.585   8.203  0.9878 -0.3769  0.1985
39021SOL     OW21873  10.553   3.182  11.673 -0.3652  0.5968  0.1917
39021SOL    HW121874  10.574   3.275  11.659 -0.8809  0.8214  0.8380
39021SOL    HW221875  10.463   3.173  11.642 -0.5106  0.4484  0.6425
39022SOL     OW21876   8.004   3.233   5.358 -0.0280  0.4325 -0.7354
39022SOL    HW121877   7.956   3.181   5.423 -0.0881  1.6720  0.2556
39022SOL    HW221878   7.952   3.313   5.349  1.9198  1.9210  0.5408
39023SOL     OW21879  10.850  11.041   6.073  0.3154 -0.4967  0.3872
39023SOL    HW121880  10.801  11.022   5.993 -0.6528 -0.2641  0.9144
39023SOL    HW221881  10.933  11.079   6.042 -0.8716  1.5299 -0.4869
39024SOL     OW21882   3.784   3.435   8.909 -0.1557  0.1809 -0.1943
39024SOL    HW121883   3.732   3.397   8.838  0.0457 -0.1963 -0.1437
39024SOL    HW221884   3.720   3.472   8.969 -0.3770 -0.3656 -0.0836
39025SOL     OW21885  11.392   7.715   1.075  0.1135  0.1569 -0.4909
39025SOL    HW121886  11.389   7.797   1.124 -1.5251 -0.4642  0.5520
39025SOL    HW221887  11.327   7.725   1.006 -1.9752 -1.1009  1.1743
39026SOL     OW21888   5.995  11.452   8.359 -0.2383  0.6980 -0.5222
39026SOL    HW121889   5.942  11.476   8.282  0.8124  2.9130 -0.6483
39026SOL    HW221890   5.955  11.502   8.431 -1.2987 -1.4597  0.4730
39027SOL     OW21891   8.537   6.905   2.539 -0.1677  0.3085  0.4384
39027SOL    HW121892   8.535   6.865   2.452  1.2469 -0.1889  0.6070
39027SOL    HW221893   8.560   6.833   2.598 -0.6436  0.7392  1.1694
39028SOL     OW21894   4.978   1.130  10.405 -0.5797 -0.7257  0.1354
39028SOL    HW121895   4.914   1.201  10.405 -0.0711 -0.2261 -1.2850
39028SOL    HW221896   4.929   1.052  10.431 -1.5403 -0.1848 -0.0326
39029SOL     OW21897  11.279  11.145   1.670 -0.3887 -0.2405  0.2063
39029SOL    HW121898  11.337  11.074   1.643 -0.3818 -0.1417 -0.0382
39029SOL    HW221899  11.191  11.114   1.648 -0.4187 -0.3376  0.4620
39030SOL     OW21900   0.229   0.341   5.694 -0.0906  0.3683  0.4495
39030SOL    HW121901   0.223   0.401   5.620 -0.2658  0.7502  0.7687
39030SOL    HW221902   0.215   0.396   5.771 -0.9429 -0.1941  0.7143
39031SOL     OW21903   7.887   3.769  11.033 -0.6809  0.2217  0.5184
39031SOL    HW121904   7.976   3.803  11.036 -0.3445 -0.5411 -0.2903
39031SOL    HW221905   7.833   3.845  11.009 -0.0280  0.3439 -0.6360
39032SOL     OW21906   1.417  12.475   4.458  0.0314 -0.3252  0.0819
39032SOL    HW121907   1.489  12.430   4.414 -1.4166 -0.4938 -2.3004
39032SOL    HW221908   1.436  12.568   4.447 -0.1923 -0.3688 -0.7402
39033SOL     OW21909  11.318   5.917   7.072 -0.6041  0.2416  0.3802
39033SOL    HW121910  11.234   5.890   7.033  0.3387 -0.3092 -1.4005
39033SOL    HW221911  11.384   5.888   7.009  0.9687  0.3786  1.8896
39034SOL     OW21912   6.197   0.561   0.102 -0.0851  0.1584  0.3815
39034SOL    HW121913   6.170   0.544   0.012 -0.2169  0.3224  0.3889
39034SOL    HW221914   6.139   0.631   0.132 -1.5116 -1.3672  1.3168
39035SOL     OW21915  10.049   8.518   5.249  0.1449 -0.1396  0.6584
39035SOL    HW121916   9.968   8.570   5.254 -1.6134 -2.7193  0.7450
39035SOL    HW221917  10.063   8.505   5.156  0.3216  0.0554  0.6556
39036SOL     OW21918   2.852   9.265   5.063  0.4282 -0.6819  0.5375
39036SOL    HW121919   2.785   9.232   5.122  2.1734 -1.1692  2.3530
39036SOL    HW221920   2.824   9.354   5.041 -1.0977 -1.0919  0.7440
39037SOL     OW21921   0.042   1.839   4.846  0.3386  0.3187 -0.4613
39037SOL    HW121922   0.123   1.889   4.855  0.8443 -0.4471 -0.7253
39037SOL    HW221923   0.025   1.806   4.934  2.7022 -3.1581 -1.1400
39038SOL     OW21924   5.330   7.497   6.083  0.0038  0.2425  0.2738
39038SOL    HW121925   5.373   7.414   6.061 -0.7461 -0.0886  0.0120
39038SOL    HW221926   5.380   7.563   6.036  1.3307  0.0863  1.4192
39039SOL     OW21927   8.109   0.350   0.214 -0.3750  0.3250 -0.3459
39039SOL    HW121928   8.179   0.415   0.221 -0.9531  0.9388 -0.1860
39039SOL    HW221929   8.153   0.271   0.181  1.0642 -0.4228  2.9627
39040SOL     OW21930   6.216   6.153   8.660 -0.4028 -0.1159  0.0647
39040SOL    HW121931   6.277   6.080   8.647  1.6570  1.3682  0.8133
39040SOL    HW221932   6.202   6.188   8.572 -0.3191 -0.5947 -0.1404
39041SOL     OW21933   0.110   8.065   3.241  0.1790 -0.3971 -0.4797
39041SOL    HW121934   0.060   8.004   3.296 -0.0245  0.3598  0.1870
39041SOL    HW221935   0.150   8.009   3.175 -2.9655 -0.8609 -2.1650
39042SOL     OW21936   8.125   9.533   7.991  0.8542  0.0930  0.4954
39042SOL    HW121937   8.062   9.562   8.057 -3.7455 -0.6156 -3.1043
39042SOL    HW221938   8.125   9.438   7.999  1.7575  0.0957  0.6301
39043SOL     OW21939   1.873   5.188   7.746 -0.5117 -0.3350 -0.5587
39043SOL    HW121940   1.855   5.249   7.675 -0.2578  0.6102  0.1618
39043SOL    HW221941   1.964   5.206   7.770 -0.6734 -0.4503  0.1647
39044SOL     OW21942   7.880   8.064   3.156 -0.2021  0.3817 -0.6569
39044SOL    HW121943   7.789   8.048   3.181 -0.3046  1.3723 -0.3721
39044SOL    HW221944   7.900   7.994   3.094 -0.7069 -0.6961  0.3480
39045SOL     OW21945   4.386   4.878   5.959  0.0720 -0.0203  0.6165
39045SOL    HW121946   4.374   4.785   5.977 -1.0578 -0.4228 -1.8171
39045SOL    HW221947   4.454   4.880   5.891  0.0404  0.9126  0.6055
39046SOL     OW21948   4.008   5.337   1.833 -0.4863 -0.0423  0.1193
39046SOL    HW121949   3.982   5.403   1.897 -1.3586  0.9364 -1.1953
39046SOL    HW221950   3.932   5.328   1.775 -0.5887 -2.5974  0.5521
39047SOL     OW21951   0.934   1.447  11.963  0.1427  0.0179  0.1180
39047SOL    HW121952   0.965   1.438  12.053  2.1058  0.7503 -0.4321
39047SOL    HW221953   1.013   1.462  11.912 -1.0616  1.0962 -1.5383
39048SOL     OW21954   9.911  12.538   3.561  0.4918 -0.0469  0.4921
39048SOL    HW121955   9.926  12.627   3.595  0.7353  0.4126 -0.7525
39048SOL    HW221956   9.998  12.507   3.538  0.4769 -0.8649  1.4646
39049SOL     OW21957  11.455  10.709  10.640  1.0607  0.5026  0.0669
39049SOL    HW121958  11.487  10.745  10.722  0.1822  2.9273 -0.5728
39049SOL    HW221959  11.519  10.735  10.575  1.2309 -0.5344 -0.2015
39050SOL     OW21960   8.051   6.041   9.747  0.1499  0.0428  0.0505
39050SOL    HW121961   8.106   6.119   9.739  0.9671 -0.7178 -2.7837
39050SOL    HW221962   7.962   6.073   9.732  0.0136  0.8962  2.2957
39051SOL     OW21963   4.601   6.578  10.416 -0.0244 -0.6193 -0.4808
39051SOL    HW121964   4.526   6.578  10.475  0.4360 -0.8520  0.1157
39051SOL    HW221965   4.589   6.655  10.361 -0.5068 -0.4490 -0.1383
39052SOL     OW21966   1.936   0.675   2.252  0.6618 -0.3926  0.0223
39052SOL    HW121967   1.938   0.647   2.160  1.2857 -0.1265 -0.0543
39052SOL    HW221968   2.028   0.678   2.278  0.5678  0.6958  0.2938
39053SOL     OW21969   5.587   7.244   8.810 -0.4419  0.0510 -0.2329
39053SOL    HW121970   5.550   7.331   8.794 -3.1317 -1.2506 -1.9022
39053SOL    HW221971   5.527   7.203   8.872 -0.2981 -1.2006 -0.8734
39054SOL     OW21972  11.915   2.531   0.208 -0.2001  0.2211  0.5875
39054SOL    HW121973  11.855   2.519   0.135 -0.8467  2.0172  0.7817
39054SOL    HW221974  11.859   2.549   0.283  0.4368 -1.8118  1.6368
39055SOL     OW21975   8.489  10.622   6.600 -0.0655 -0.1817  0.0333
39055SOL    HW121976   8.406  10.661   6.573  1.0934  2.5795  0.0271
39055SOL    HW221977   8.479  10.610   6.695 -0.1649  1.1496  0.2227
39056SOL     OW21978   9.028   4.794   0.423  0.6922 -0.3798 -0.2104
39056SOL    HW121979   9.114   4.788   0.380  1.0472 -1.9438  0.6593
39056SOL    HW221980   9.041   4.753   0.508  0.0322  2.7390  1.5405
39057SOL     OW21981   4.055  12.093   1.218 -0.1787 -0.0416 -0.7547
39057SOL    HW121982   3.960  12.092   1.221 -0.2453  2.2668  1.6077
39057SOL    HW221983   4.083  12.029   1.283 -0.1880  0.6340 -0.0716
39058SOL     OW21984   3.903   5.526  10.037  0.4803 -0.1022  0.4697
39058SOL    HW121985   3.962   5.518  10.112  2.3692 -2.9791 -1.1658
39058SOL    HW221986   3.955   5.567   9.968  0.0068 -0.9466 -0.4183
39059SOL     OW21987   3.466  11.600  12.443 -0.2593 -0.4756  0.6518
39059SOL    HW121988   3.380  11.640  12.449 -0.1463 -0.1823  0.3855
39059SOL    HW221989   3.503  11.608  12.531 -0.1739  0.1578  0.5617
39060SOL     OW21990   6.430  11.190   7.951 -0.9893  0.5515 -0.6629
39060SOL    HW121991   6.454  11.194   8.043 -1.6087  0.0123 -0.4751
39060SOL    HW221992   6.500  11.138   7.910 -1.7842 -0.9587 -0.1299
39061SOL     OW21993   4.533   9.942   9.277  1.1850 -0.0458  0.1117
39061SOL    HW121994   4.582   9.861   9.264 -0.1856 -0.8360 -0.3860
39061SOL    HW221995   4.545   9.991   9.196 -1.6854 -1.8613 -1.5967
39062SOL     OW21996   7.993   1.751   3.203  0.1153  0.1911 -0.2662
39062SOL    HW121997   8.066   1.692   3.183 -0.2722 -0.0145 -1.1037
39062SOL    HW221998   7.936   1.747   3.126  0.0408  1.6058 -0.3191
39063SOL     OW21999   7.699   9.509   1.922  0.6423  0.6354 -0.3679
39063SOL    HW122000   7.752   9.544   1.994  0.9471 -0.3876 -0.0713
39063SOL    HW222001   7.620   9.563   1.922  0.6095  0.6271  0.7812
39064SOL     OW22002   4.623   5.236   8.386 -0.1522  0.1745  0.0293
39064SOL    HW122003   4.619   5.213   8.293 -0.2233 -2.7897  0.6622
39064SOL    HW222004   4.711   5.211   8.413 -0.4632  0.0414  0.9557
39065SOL     OW22005  11.311   6.056  11.444  0.2414 -0.0277  0.0591
39065SOL    HW122006  11.402   6.031  11.433 -0.0928 -1.0586 -0.4950
39065SOL    HW222007  11.274   6.056  11.356  0.0579  1.8607  0.1055
39066SOL     OW22008   7.545   9.945   3.610 -0.6465 -0.2206 -0.9820
39066SOL    HW122009   7.580  10.020   3.658 -0.9369 -1.4436  1.2713
39066SOL    HW222010   7.454   9.940   3.636 -0.5280 -1.5950 -0.7741
39067SOL     OW22011   9.651   0.008   8.866  0.1764  0.6102  0.5487
39067SOL    HW122012   9.616  -0.041   8.791  1.2956 -1.6802  1.4345
39067SOL    HW222013   9.713   0.070   8.827 -1.2350  1.3673 -0.6071
39068SOL     OW22014   0.994   2.972  11.803 -0.5828 -0.6599 -0.4232
39068SOL    HW122015   1.018   2.921  11.881 -0.6407 -1.2053 -0.7576
39068SOL    HW222016   0.957   3.053  11.838  1.1525 -0.0592  0.1012
39069SOL     OW22017  11.067   3.832   4.468 -0.2072 -0.3928  0.7461
39069SOL    HW122018  11.129   3.759   4.472  0.7435  0.4499  2.6122
39069SOL    HW222019  11.031   3.827   4.379  1.6374 -1.6466 -0.0163
39070SOL     OW22020   8.634  12.619   0.951 -0.3906  0.4737 -0.1608
39070SOL    HW122021   8.538  12.613   0.948 -0.3266 -0.8284  0.0830
39070SOL    HW222022   8.654  12.618   1.045  0.0408 -3.2768 -0.1538
39071SOL     OW22023   3.231  10.099   7.709  0.3584 -0.6777 -0.6386
39071SOL    HW122024   3.301  10.146   7.754 -1.1928 -1.1360  2.4572
39071SOL    HW222025   3.270  10.014   7.686  0.8829 -0.8931  0.9662
39072SOL     OW22026   4.552  10.335   5.148 -0.6948  0.0970 -0.4217
39072SOL    HW122027   4.630  10.320   5.094 -0.1038 -1.1554  0.7366
39072SOL    HW222028   4.526  10.425   5.127  0.2603  0.0825 -1.8256
39073SOL     OW22029  11.608   3.052   7.710 -0.4769 -0.3788 -0.1609
39073SOL    HW122030  11.524   3.083   7.744  0.0234 -0.3807  1.1625
39073SOL    HW222031  11.647   3.129   7.669 -0.5087  0.0082  0.5147
39074SOL     OW22032   1.294   3.606  12.488 -0.1647  0.5678 -0.0604
39074SOL    HW122033   1.243   3.617  12.568 -1.0322 -2.9514  0.0514
39074SOL    HW222034   1.229   3.580  12.422  0.8839  0.8827 -1.2484
39075SOL     OW22035   4.597   5.935   6.077  0.1809  0.2060  0.0650
39075SOL    HW122036   4.590   5.932   6.172  0.3788  0.8758  0.1079
39075SOL    HW222037   4.691   5.926   6.060  0.5726  3.1469  0.1162
39076SOL     OW22038   3.295   4.614   2.499  0.0804 -0.8975 -0.6523
39076SOL    HW122039   3.274   4.601   2.591 -1.7347  0.1098 -0.8830
39076SOL    HW222040   3.383   4.652   2.500 -0.2621 -0.0784  0.7320
39077SOL     OW22041  11.486   8.656   6.660 -0.0190 -0.2451 -0.1780
39077SOL    HW122042  11.431   8.599   6.607  0.2380 -0.8664  0.2068
39077SOL    HW222043  11.563   8.604   6.679 -0.2689 -0.1828  1.1137
39078SOL     OW22044   2.864   9.197   0.775  0.2221  0.0247 -0.0427
39078SOL    HW122045   2.797   9.225   0.713 -0.7292 -2.4965 -0.2475
39078SOL    HW222046   2.945   9.195   0.725  0.1353  1.3137 -0.2666
39079SOL     OW22047   4.375   4.582   2.886 -0.0210  0.5025 -0.1142
39079SOL    HW122048   4.398   4.492   2.907 -2.3335 -0.0333  0.3987
39079SOL    HW222049   4.401   4.632   2.964  1.4870  0.3481 -0.5000
39080SOL     OW22050   5.406   7.736  12.101 -0.2975 -0.4420 -0.2538
39080SOL    HW122051   5.424   7.823  12.066  1.2728 -1.0667 -1.0833
39080SOL    HW222052   5.446   7.676  12.038 -1.9167 -1.8079 -0.0564
39081SOL     OW22053   9.460   0.615   0.952 -1.0374 -0.2013 -0.1359
39081SOL    HW122054   9.372   0.594   0.920 -0.8490 -0.6055 -0.3948
39081SOL    HW222055   9.519   0.560   0.900 -0.4060  1.8148 -1.6558
39082SOL     OW22056   2.546   7.317  10.022 -0.0364  0.2245  0.2395
39082SOL    HW122057   2.534   7.346   9.932  1.2670 -2.1305 -0.7836
39082SOL    HW222058   2.458   7.298  10.053 -0.4766  0.7893 -0.6333
39083SOL     OW22059   9.498   9.122   1.491  0.0548 -0.4339 -0.1051
39083SOL    HW122060   9.404   9.103   1.496  0.1665 -0.7283  2.1245
39083SOL    HW222061   9.540   9.042   1.521  0.8948  0.3444  0.8929
39084SOL     OW22062   5.567   0.405   0.629 -0.7528  0.0180 -0.0259
39084SOL    HW122063   5.565   0.500   0.643  1.0432 -0.0895  1.4605
39084SOL    HW222064   5.659   0.382   0.640 -1.0484 -1.8212 -1.0788
39085SOL     OW22065   6.208   7.339  10.697  0.0749 -0.2900 -0.0673
39085SOL    HW122066   6.115   7.321  10.711 -0.3473 -0.1794 -2.3150
39085SOL    HW222067   6.225   7.311  10.607  2.1958 -0.1664  0.2284
39086SOL     OW22068   9.382  12.578   0.617 -0.0969 -0.0876 -0.0259
39086SOL    HW122069   9.359  12.662   0.657  0.8418  0.6880 -1.0823
39086SOL    HW222070   9.477  12.580   0.607  0.0907 -1.7741  0.9958
39087SOL     OW22071  11.105   3.729   8.213  0.0913 -0.0892 -0.8868
39087SOL    HW122072  11.175   3.670   8.187 -0.7360 -1.3464 -0.3208
39087SOL    HW222073  11.113   3.735   8.309 -0.8143 -0.5762 -0.7719
39088SOL     OW22074   7.739   2.227   8.897 -0.2828  0.6014 -0.1599
39088SOL    HW122075   7.781   2.308   8.869 -0.8728  1.0829  0.3391
39088SOL    HW222076   7.754   2.223   8.991 -0.8864  0.5116 -0.0628
39089SOL     OW22077   5.785   9.286   9.053  0.0665 -0.1827 -0.7029
39089SOL    HW122078   5.794   9.191   9.046 -1.1380 -0.7705  3.2450
39089SOL    HW222079   5.854   9.313   9.113 -0.2270  1.2990 -0.9849
39090SOL     OW22080   0.684  10.175   5.440  0.0629 -0.4461 -0.1677
39090SOL    HW122081   0.745  10.158   5.368 -0.0023 -0.4179 -0.2295
39090SOL    HW222082   0.719  10.123   5.513 -0.5822 -1.5102 -0.5857
39091SOL     OW22083  12.096   6.240  12.336 -0.3298  0.3331  0.0973
39091SOL    HW122084  12.122   6.155  12.372 -0.3500  0.3041  0.0422
39091SOL    HW222085  12.177   6.292  12.336  0.2467 -0.4631 -2.1341
39092SOL     OW22086   0.630   1.560   2.435 -0.2159  0.1853 -1.0535
39092SOL    HW122087   0.579   1.613   2.497  0.0470  1.0670 -1.5759
39092SOL    HW222088   0.664   1.488   2.488  0.5305  1.2662 -0.0057
39093SOL     OW22089   8.196   1.697   7.547 -0.4947  0.0417  0.5595
39093SOL    HW122090   8.214   1.634   7.617  1.8761 -1.7209 -1.4729
39093SOL    HW222091   8.219   1.782   7.585  1.1650 -0.9028  1.7829
39094SOL     OW22092   0.763  10.050  10.637  0.4630 -0.0104  0.5495
39094SOL    HW122093   0.763  10.125  10.577  1.4550  0.0517  0.6253
39094SOL    HW222094   0.799  10.084  10.719 -0.0424 -0.3244  0.9131
39095SOL     OW22095   1.375   0.491  10.562 -0.0457 -0.7496  0.1800
39095SOL    HW122096   1.400   0.537  10.641  0.7173 -0.2111 -0.3620
39095SOL    HW222097   1.431   0.527  10.494 -0.6757 -1.2140 -0.6079
39096SOL     OW22098  11.730  10.352   3.727 -0.5310 -0.0176 -0.2698
39096SOL    HW122099  11.807  10.303   3.699 -0.8547 -1.3162  0.9645
39096SOL    HW222100  11.763  10.414   3.792 -0.2320  0.9106 -1.2840
39097SOL     OW22101   4.950  12.061  10.530  0.1190  0.3112 -0.1028
39097SOL    HW122102   4.922  12.022  10.447 -0.7340 -2.7036  1.4696
39097SOL    HW222103   5.044  12.043  10.535  0.0286 -0.1802 -0.1008
39098SOL     OW22104   6.781   5.795   5.938  0.1773  0.0802  0.4380
39098SOL    HW122105   6.746   5.876   5.975 -0.8300 -0.0134 -0.2693
39098SOL    HW222106   6.764   5.728   6.005  0.7692  0.3937  0.9091
39099SOL     OW22107  10.312   9.405   2.631 -0.6848  0.3328  0.3567
39099SOL    HW122108  10.245   9.431   2.567 -2.6455  1.8880  2.8147
39099SOL    HW222109  10.318   9.310   2.623 -0.8061  0.4855 -2.1110
39100SOL     OW22110   9.392  11.043   8.982 -0.2948  0.1980 -0.3064
39100SOL    HW122111   9.445  11.012   8.908 -1.8381 -0.4370 -1.1934
39100SOL    HW222112   9.445  11.022   9.059  1.9113  1.9938 -1.2258
39101SOL     OW22113  11.893   6.304   4.511  0.5000 -0.0217  0.7084
39101SOL    HW122114  11.934   6.378   4.466 -1.1286 -0.3091 -1.4488
39101SOL    HW222115  11.825   6.343   4.565 -0.0170  0.1068 -0.0264
39102SOL     OW22116   6.777   0.608   8.402  0.1830  0.2816  0.2835
39102SOL    HW122117   6.822   0.555   8.337  1.1063 -0.0126  1.1482
39102SOL    HW222118   6.828   0.689   8.408 -1.4779  1.5516 -1.3831
39103SOL     OW22119  12.466   5.299   1.926 -0.0048  0.1783 -0.4215
39103SOL    HW122120  12.454   5.289   2.020  2.2913 -0.4790 -0.1392
39103SOL    HW222121  12.447   5.212   1.890  1.0558 -0.1010 -0.3163
39104SOL     OW22122   4.111  11.203   6.461 -0.0946  0.3070  0.3251
39104SOL    HW122123   4.102  11.299   6.460  2.6029  0.6588  0.7264
39104SOL    HW222124   4.159  11.184   6.541  0.4250 -1.2591 -0.3176
39105SOL     OW22125   3.314   4.912   9.136 -0.2897  0.1437  0.1306
39105SOL    HW122126   3.243   4.959   9.180  0.8628  0.9627  1.1823
39105SOL    HW222127   3.283   4.901   9.046 -1.4939  1.0257  0.4051
39106SOL     OW22128   3.293  11.194   6.867  0.3387 -0.4648  0.1564
39106SOL    HW122129   3.205  11.181   6.903  1.9505 -2.1667  4.0901
39106SOL    HW222130   3.279  11.208   6.774 -3.9925 -2.0330  0.3468
39107SOL     OW22131   7.259   0.227   9.282  0.2763 -0.5336  0.5032
39107SOL    HW122132   7.297   0.313   9.299  2.0733 -1.2189  0.1886
39107SOL    HW222133   7.320   0.166   9.323 -0.6646 -1.6955  0.2220
39108SOL     OW22134   5.053   6.056   0.347  0.5584  0.2607  0.1257
39108SOL    HW122135   5.004   5.976   0.327  0.7497  0.6385 -1.9770
39108SOL    HW222136   5.070   6.050   0.442 -0.9854 -1.2893  0.3457
39109SOL     OW22137   8.711   4.449   3.005  0.1018 -0.3429 -0.2408
39109SOL    HW122138   8.627   4.486   2.979  0.9602  0.4692 -1.9938
39109SOL    HW222139   8.744   4.509   3.072  0.6461  1.1015 -1.7467
39110SOL     OW22140   7.338  11.353   0.104  0.0288  0.5115 -0.1125
39110SOL    HW122141   7.373  11.268   0.077  1.8440  1.1555  0.1028
39110SOL    HW222142   7.246  11.351   0.076 -0.0370 -1.6001  0.0893
39111SOL     OW22143   1.388   3.435   4.786 -0.3389  0.4153  0.3175
39111SOL    HW122144   1.293   3.451   4.781 -0.2246  0.6851 -1.4427
39111SOL    HW222145   1.417   3.488   4.861 -1.6854 -0.3518  1.4504
39112SOL     OW22146   0.224  11.594   7.346  0.1435  0.1105 -0.0527
39112SOL    HW122147   0.263  11.550   7.421  0.1250  0.2836  0.0587
39112SOL    HW222148   0.145  11.543   7.326 -0.5188  0.7705  0.8046
39113SOL     OW22149   1.354   5.166   1.535 -1.0112  0.3351 -0.0794
39113SOL    HW122150   1.321   5.252   1.510 -0.7740  0.5777  0.4325
39113SOL    HW222151   1.449   5.175   1.535 -1.0079  0.4863  1.3543
39114SOL     OW22152   5.346  11.135   8.603  0.2172  0.2392  0.0740
39114SOL    HW122153   5.357  11.106   8.513 -0.3456 -0.0500  0.0936
39114SOL    HW222154   5.345  11.054   8.654 -0.2538  0.3556  0.2535
39115SOL     OW22155  10.384   5.273   8.749  0.5250  0.4268 -0.1374
39115SOL    HW122156  10.302   5.227   8.766  1.0915 -0.2166  0.9532
39115SOL    HW222157  10.412   5.242   8.663 -0.2054  0.4164 -0.3786
39116SOL     OW22158   1.798   6.659   3.249 -0.1663 -0.0978 -0.1937
39116SOL    HW122159   1.781   6.566   3.240  0.6252 -0.3185  0.4739
39116SOL    HW222160   1.720   6.702   3.213 -0.9374 -1.0159  0.3603
39117SOL     OW22161   9.699   4.113   7.729 -0.1780 -0.5466 -0.0822
39117SOL    HW122162   9.619   4.086   7.775 -0.5590  0.8398  0.1142
39117SOL    HW222163   9.770   4.078   7.783 -0.6281  0.6686  1.3597
39118SOL     OW22164   9.941   9.428   3.020  0.5391  0.0938  0.0293
39118SOL    HW122165   9.944   9.402   2.928  1.2669 -0.4295  0.1920
39118SOL    HW222166   9.917   9.521   3.017  2.0425  0.4992 -0.7794
39119SOL     OW22167  12.285  11.920   5.822 -0.1412 -0.4422  0.1049
39119SOL    HW122168  12.241  11.936   5.906 -0.4079  0.7406 -0.2280
39119SOL    HW222169  12.247  11.839   5.790 -2.2780  0.6153 -0.2409
39120SOL     OW22170   9.846   2.013   4.931 -0.3578 -1.2408 -0.1207
39120SOL    HW122171   9.887   1.935   4.969 -0.5186 -1.5253 -0.5296
39120SOL    HW222172   9.918   2.076   4.923 -0.4432 -0.9439  1.2541
39121SOL     OW22173   0.477   5.174   9.382  0.3378  0.0501 -0.1713
39121SOL    HW122174   0.404   5.218   9.426  2.4733  1.3549  2.3188
39121SOL    HW222175   0.435   5.126   9.311 -2.7126  2.2810 -0.1130
39122SOL     OW22176   6.894  11.807   1.347 -0.1097  0.1636  0.1064
39122SOL    HW122177   6.829  11.847   1.289 -0.0064  1.3027  0.7312
39122SOL    HW222178   6.850  11.731   1.384 -0.1452 -0.6286 -1.5066
39123SOL     OW22179  11.447   9.338   8.824 -0.2377  0.5468  0.4172
39123SOL    HW122180  11.533   9.330   8.865  1.0074 -0.5468 -2.1585
39123SOL    HW222181  11.439   9.432   8.806  0.6097  0.6151  0.3265
39124SOL     OW22182  11.459   1.181  11.163  0.2461 -0.5012 -0.1589
39124SOL    HW122183  11.475   1.268  11.126 -0.0066 -1.1515 -1.9213
39124SOL    HW222184  11.364   1.175  11.169  0.2699 -0.5879  0.1380
39125SOL     OW22185   9.960   4.986   3.866 -0.2063 -0.5058  0.2527
39125SOL    HW122186   9.948   4.908   3.920  0.2146 -0.6662  0.1237
39125SOL    HW222187   9.904   5.052   3.906  0.5852 -0.4209  1.2946
39126SOL     OW22188   1.070   5.836   0.011  0.1784 -0.0798  0.6239
39126SOL    HW122189   1.068   5.743   0.034  2.5670 -0.7056 -1.2192
39126SOL    HW222190   1.035   5.839  -0.078  3.1142  0.1564 -0.6566
39127SOL     OW22191   7.642   6.868   5.775 -0.3163  0.5606  0.6388
39127SOL    HW122192   7.731   6.889   5.748 -0.1555  1.6374  1.9151
39127SOL    HW222193   7.652   6.806   5.847 -0.5000  1.8110  1.7877
39128SOL     OW22194  12.442   7.989  11.548  0.1612 -0.4694 -0.0202
39128SOL    HW122195  12.532   7.960  11.561  0.3952 -0.1403 -0.8269
39128SOL    HW222196  12.451   8.077  11.510 -0.4996 -0.4242 -0.0813
39129SOL     OW22197  11.920   8.520   2.160 -0.3804 -0.3831  0.1790
39129SOL    HW122198  11.911   8.615   2.167  1.9813  0.0023 -1.1163
39129SOL    HW222199  11.893   8.499   2.071  2.1498 -0.3903 -0.6770
39130SOL     OW22200   4.936   5.639   0.226 -0.6748  0.3079  0.2868
39130SOL    HW122201   4.932   5.558   0.277  1.2072 -0.6055 -0.8863
39130SOL    HW222202   5.030   5.653   0.211 -0.9795  2.5265  0.1379
39131SOL     OW22203   0.108   3.276   5.949 -0.5202 -0.2969  0.4415
39131SOL    HW122204   0.196   3.239   5.943 -0.8347 -1.2229  1.2976
39131SOL    HW222205   0.091   3.310   5.861  0.2179 -1.2140 -0.0751
39132SOL     OW22206   7.858   0.555   2.866  0.5394 -0.7185  0.2683
39132SOL    HW122207   7.828   0.498   2.936 -0.5248  1.2307  1.5012
39132SOL    HW222208   7.942   0.590   2.896 -1.0078  1.9888  1.8520
39133SOL     OW22209  11.298  10.669   8.811  0.3223  0.2434 -0.2233
39133SOL    HW122210  11.393  10.665   8.817  0.3175  0.1290 -0.2181
39133SOL    HW222211  11.269  10.696   8.899  0.2957 -0.6757  0.0596
39134SOL     OW22212  11.549   6.914   0.873  0.3912 -0.7366 -0.1157
39134SOL    HW122213  11.544   6.961   0.956 -1.2062 -2.5195  0.8663
39134SOL    HW222214  11.586   6.829   0.895 -0.8043 -1.5354 -1.0659
39135SOL     OW22215   2.059   5.925   6.112  0.1002 -0.2195  0.4093
39135SOL    HW122216   2.069   5.956   6.023  1.0392  2.3775  1.3347
39135SOL    HW222217   2.053   6.004   6.165 -0.7503 -1.6701  2.6411
39136SOL     OW22218   1.165   2.911  11.358  0.8863 -0.0703  0.3981
39136SOL    HW122219   1.122   2.938  11.439  0.9364  1.9548 -0.1893
39136SOL    HW222220   1.142   2.979  11.295  5.2991  1.5327  0.1669
39137SOL     OW22221   2.184   1.097  10.609 -0.5921  0.1282  0.0053
39137SOL    HW122222   2.261   1.151  10.626  0.5001 -1.2991 -0.1815
39137SOL    HW222223   2.218   1.020  10.563 -1.8121 -1.4900  1.6352
39138SOL     OW22224  11.006   4.011   0.480  0.3525 -0.1436  0.4900
39138SOL    HW122225  10.941   3.953   0.440  0.1583 -0.0263  0.6357
39138SOL    HW222226  11.008   4.088   0.424  3.1481 -1.6670 -1.8079
39139SOL     OW22227   4.519   1.831   2.362  0.9393  0.8025 -0.5484
39139SOL    HW122228   4.502   1.811   2.270 -1.0310  1.1532 -0.2912
39139SOL    HW222229   4.615   1.828   2.369  1.0811 -0.6813 -2.2618
39140SOL     OW22230   5.088   5.998   9.768 -0.0072 -0.3092  0.3831
39140SOL    HW122231   5.064   5.981   9.859  0.2665 -0.3395  0.4522
39140SOL    HW222232   5.095   6.093   9.762 -1.7361 -0.1792 -0.0534
39141SOL     OW22233  12.118   3.418   9.285  0.0192  0.2291 -0.4528
39141SOL    HW122234  12.063   3.478   9.335  0.6806  1.7525 -1.4873
39141SOL    HW222235  12.198   3.468   9.266  0.1705 -0.6071 -2.2333
39142SOL     OW22236   2.667   0.936   3.608  0.2660 -0.3173 -0.1482
39142SOL    HW122237   2.598   0.981   3.561  0.2169 -2.7210 -2.6388
39142SOL    HW222238   2.748   0.970   3.571  0.3406  0.3716  0.6390
39143SOL     OW22239   4.952   1.295   9.451  0.0367 -0.4454  0.2609
39143SOL    HW122240   4.882   1.235   9.427  0.6235 -0.7833 -0.6477
39143SOL    HW222241   4.997   1.313   9.369  1.7334 -1.1545  0.9907
39144SOL     OW22242   7.717   2.546   4.065  0.2192  0.5685  0.0886
39144SOL    HW122243   7.717   2.628   4.115 -0.3763  1.3150 -1.0722
39144SOL    HW222244   7.640   2.499   4.097  0.6662  0.3743  0.8890
39145SOL     OW22245   5.832   2.566   0.063  0.5801  0.1316 -0.5546
39145SOL    HW122246   5.818   2.471   0.065 -0.8745  0.3215  1.3196
39145SOL    HW222247   5.756   2.600   0.016  0.7421  0.4069 -0.6180
39146SOL     OW22248   0.156   5.663   1.187  0.0839 -0.5387 -0.3133
39146SOL    HW122249   0.070   5.625   1.168  0.9434 -2.2386 -1.0141
39146SOL    HW222250   0.160   5.666   1.283 -0.5857 -0.8821 -0.2665
39147SOL     OW22251   5.997   3.825   2.570  0.0750 -0.1898 -0.5187
39147SOL    HW122252   6.032   3.914   2.570 -1.5403  0.4731 -0.7731
39147SOL    HW222253   5.907   3.834   2.539 -0.7164 -1.6713  1.1316
39148SOL     OW22254   2.806   1.318   5.938 -0.4790 -0.3091  0.6018
39148SOL    HW122255   2.856   1.266   5.874  0.3662  1.1462  0.0206
39148SOL    HW222256   2.846   1.297   6.022  0.3928 -0.0232  0.2735
39149SOL     OW22257   5.934   0.665  10.093 -0.1292 -0.5341  0.0854
39149SOL    HW122258   5.885   0.628  10.020  1.1745 -0.6385 -0.7722
39149SOL    HW222259   5.997   0.597  10.117  1.0254  0.3711 -0.2693
39150SOL     OW22260   2.590   9.241   6.409  0.6185 -0.0833 -0.1647
39150SOL    HW122261   2.646   9.203   6.342 -0.6802 -2.6151  0.0725
39150SOL    HW222262   2.561   9.324   6.372  0.0182 -1.3541 -2.7231
39151SOL     OW22263   4.386   7.224   6.975 -0.0325 -0.2764 -0.1764
39151SOL    HW122264   4.439   7.148   6.952  1.0940  0.1813  0.8249
39151SOL    HW222265   4.435   7.299   6.944 -0.6516  0.1025 -0.2601
39152SOL     OW22266   6.725   0.528   4.443  0.0383  0.0040  0.1397
39152SOL    HW122267   6.761   0.547   4.357  0.9222  0.0822  0.5240
39152SOL    HW222268   6.753   0.600   4.499 -0.6892  0.0576  0.4616
39153SOL     OW22269   1.074   4.010   1.985  0.1708  0.3973  0.2772
39153SOL    HW122270   1.156   4.059   1.978 -0.3714  1.2928 -0.0477
39153SOL    HW222271   1.019   4.045   1.915 -0.6356  0.1147  0.7465
39154SOL     OW22272   8.216   1.565  11.762  0.4227 -0.2730  0.7471
39154SOL    HW122273   8.123   1.589  11.756  1.1317  2.2915 -3.1698
39154SOL    HW222274   8.260   1.645  11.791  1.7450  0.0440 -1.8205
39155SOL     OW22275   7.038   5.904   9.118  0.2910  0.1038 -0.3162
39155SOL    HW122276   6.963   5.956   9.090  0.7666  1.2938  0.5452
39155SOL    HW222277   7.004   5.849   9.189  0.1134  0.2434 -0.2931
39156SOL     OW22278   8.479  10.585  10.954 -0.6721 -0.0998  0.1932
39156SOL    HW122279   8.561  10.627  10.980 -1.0760 -0.0739  1.5610
39156SOL    HW222280   8.494  10.553  10.865  0.5202  0.6543  0.1077
39157SOL     OW22281   9.811   1.108   7.461  0.0283  0.5032 -0.2549
39157SOL    HW122282   9.898   1.126   7.426 -0.5974  0.8708 -1.7245
39157SOL    HW222283   9.753   1.165   7.410 -0.8934  1.6160  1.9164
39158SOL     OW22284  11.704   0.631  10.314 -0.5514 -0.0296  0.5938
39158SOL    HW122285  11.678   0.659  10.402  1.3343  1.9462  0.6217
39158SOL    HW222286  11.784   0.581  10.328  1.0127  2.1243 -0.0282
39159SOL     OW22287   7.010   9.440   2.599 -0.1966 -0.0505 -0.4477
39159SOL    HW122288   6.996   9.450   2.505  0.8956 -0.5711 -0.6879
39159SOL    HW222289   7.089   9.492   2.617  0.1079 -0.6464  0.0006
39160SOL     OW22290   7.280   8.886   0.164 -0.0763 -0.3186 -0.3235
39160SOL    HW122291   7.268   8.828   0.239  0.0220  0.2515  0.1386
39160SOL    HW222292   7.360   8.935   0.185 -0.9983  1.0861  0.0213
39161SOL     OW22293  11.318  10.382   6.625  0.1332  0.4722  0.1400
39161SOL    HW122294  11.281  10.467   6.600  0.6009  0.7035  0.2039
39161SOL    HW222295  11.400  10.377   6.575 -0.5936 -0.6070 -1.0217
39162SOL     OW22296   0.020   4.990   5.307 -0.0714  0.5722  0.3294
39162SOL    HW122297   0.096   4.992   5.366 -1.6031  0.8056  2.4036
39162SOL    HW222298  -0.020   4.905   5.322 -1.0125  1.0086  0.3192
39163SOL     OW22299   9.411   1.813   0.139 -0.4822 -0.0180 -0.3176
39163SOL    HW122300   9.320   1.792   0.160 -0.7508  2.1641  1.1507
39163SOL    HW222301   9.407   1.901   0.101  1.0683  0.6715  0.9669
39164SOL     OW22302  11.471   1.168   7.319  0.4353 -0.6878  0.1854
39164SOL    HW122303  11.482   1.240   7.380 -2.1100  2.0711 -2.3048
39164SOL    HW222304  11.386   1.130   7.342 -0.9628  0.9307 -1.9726
39165SOL     OW22305  11.976   4.032   5.460  0.3142  0.6226  0.7464
39165SOL    HW122306  11.972   4.060   5.369  1.7944  1.2161  0.8234
39165SOL    HW222307  11.920   4.094   5.507  1.7438  2.1344  0.5865
39166SOL     OW22308   4.709  11.227  12.172  0.5488 -0.0515 -1.1744
39166SOL    HW122309   4.730  11.160  12.108  0.6104 -1.4288  0.2405
39166SOL    HW222310   4.616  11.216  12.191  0.7786 -0.4135 -0.1990
39167SOL     OW22311   2.730   7.507   3.668  0.0065  0.1402  0.0998
39167SOL    HW122312   2.676   7.433   3.697  0.6566 -0.0748  0.8047
39167SOL    HW222313   2.720   7.572   3.737  1.9549 -0.5670  1.1378
39168SOL     OW22314   6.074   3.670  11.466 -0.1922  0.3685 -0.0661
39168SOL    HW122315   6.147   3.634  11.516 -0.2300 -1.6052 -1.3512
39168SOL    HW222316   6.116   3.715  11.392 -0.2363 -0.6194 -0.7104
39169SOL     OW22317   6.093   7.412   4.856  0.1682 -0.0143 -0.0151
39169SOL    HW122318   6.067   7.336   4.805  1.7790 -1.2056  0.8408
39169SOL    HW222319   6.187   7.418   4.844  0.0838  1.8046  0.0301
39170SOL     OW22320   9.263   3.289   9.101  0.0794 -0.3432 -0.9950
39170SOL    HW122321   9.289   3.217   9.044  0.0262 -1.2899  0.1448
39170SOL    HW222322   9.286   3.260   9.189  1.0920  1.4889 -0.5844
39171SOL     OW22323  10.389   5.265   2.967 -0.7737  0.3402 -0.1614
39171SOL    HW122324  10.458   5.212   2.927  1.1739  1.3022  1.7146
39171SOL    HW222325  10.402   5.353   2.931 -1.6510  0.3632 -0.4675
39172SOL     OW22326   6.650   5.781   6.442 -0.4994  0.2978  0.4946
39172SOL    HW122327   6.619   5.850   6.500  1.1202  0.2362  1.4834
39172SOL    HW222328   6.703   5.724   6.498  0.9978  0.1543 -0.9933
39173SOL     OW22329   2.230   9.888   9.791  0.4047 -0.0260  0.1527
39173SOL    HW122330   2.136   9.873   9.791  0.5769 -1.4192  1.7374
39173SOL    HW222331   2.269   9.802   9.773  1.3947  0.6194 -0.9709
39174SOL     OW22332   3.003  11.981   6.493  0.2155  0.3669  0.5260
39174SOL    HW122333   3.091  12.019   6.494 -0.3277  1.8172 -1.4286
39174SOL    HW222334   2.944  12.057   6.495 -1.0127 -0.5706  1.5536
39175SOL     OW22335   9.750   3.652   2.835  0.1425 -0.3456  0.2744
39175SOL    HW122336   9.789   3.633   2.750 -0.4218  0.3614 -0.1552
39175SOL    HW222337   9.820   3.635   2.898  0.6751 -0.5330 -0.3586
39176SOL     OW22338   1.015  10.704  10.942 -0.8692 -0.2650  0.4061
39176SOL    HW122339   1.099  10.697  10.896 -0.5798 -1.0992  1.0379
39176SOL    HW222340   1.019  10.637  11.009 -1.5255  0.5459  1.2816
39177SOL     OW22341   2.892  12.326  12.458  0.4363  0.3744 -0.2451
39177SOL    HW122342   2.917  12.348  12.368  0.8145 -2.5222 -0.9582
39177SOL    HW222343   2.822  12.261  12.448 -0.1814  0.7096  1.5826
39178SOL     OW22344   8.815   7.582   1.882 -0.7057  0.1878  0.5768
39178SOL    HW122345   8.876   7.646   1.918 -0.4329  0.4899 -0.3788
39178SOL    HW222346   8.869   7.525   1.827 -1.2988  0.6688 -0.5573
39179SOL     OW22347   2.750   8.468   8.830 -0.3753  0.6969  0.3192
39179SOL    HW122348   2.843   8.480   8.847 -0.3640 -0.8794  1.6398
39179SOL    HW222349   2.713   8.556   8.839  0.8727  1.2253  0.5443
39180SOL     OW22350   6.247   1.136   1.786  0.0400  0.0229 -0.0885
39180SOL    HW122351   6.320   1.192   1.811  1.1052 -2.3070  2.5572
39180SOL    HW222352   6.176   1.159   1.846 -0.6175  0.5888 -1.0409
39181SOL     OW22353   2.576   7.835   7.756  0.2978 -0.2001 -0.0813
39181SOL    HW122354   2.598   7.824   7.848 -1.6695 -1.9655  0.2633
39181SOL    HW222355   2.579   7.746   7.720 -2.0753 -0.0271 -0.8774
39182SOL     OW22356   9.311  11.497   7.637  0.2502 -0.7685 -0.0851
39182SOL    HW122357   9.335  11.578   7.591  1.0553 -0.5213  0.7403
39182SOL    HW222358   9.266  11.445   7.571  1.7644 -0.6110 -1.3151
39183SOL     OW22359   1.983   5.723   6.632 -0.0901 -0.3354  0.3859
39183SOL    HW122360   1.930   5.646   6.654 -1.6647 -0.0923 -2.1536
39183SOL    HW222361   1.931   5.797   6.662  0.9425 -0.1615  1.8736
39184SOL     OW22362   1.131   4.787  11.152  0.5607  0.2509  0.0024
39184SOL    HW122363   1.064   4.843  11.113 -0.2184 -0.4083  0.3845
39184SOL    HW222364   1.111   4.699  11.120  0.9839 -0.0180  0.4622
39185SOL     OW22365   7.550  12.522   2.836  0.3174 -0.0951 -0.1249
39185SOL    HW122366   7.584  12.447   2.788  1.1989  0.8990 -1.0892
39185SOL    HW222367   7.499  12.572   2.772 -0.8080 -0.1880  0.6641
39186SOL     OW22368   4.021   3.203  12.313 -0.0752 -0.2266 -0.4147
39186SOL    HW122369   3.940   3.214  12.362 -0.9410 -2.0291 -1.3348
39186SOL    HW222370   4.080   3.156  12.372  0.7292  1.9330  0.6124
39187SOL     OW22371  10.041  12.084   3.032  0.3353 -0.0958 -0.2664
39187SOL    HW122372  10.006  11.998   3.010  0.7238 -0.6478  1.1665
39187SOL    HW222373  10.087  12.071   3.115  0.8484  1.3835 -0.2881
39188SOL     OW22374   5.069  12.582   8.758  0.0083 -0.1502  0.2274
39188SOL    HW122375   5.105  12.648   8.699  0.5258 -0.5260  0.1176
39188SOL    HW222376   5.132  12.510   8.755 -0.2013 -0.3673  0.8784
39189SOL     OW22377   4.166  12.499   2.377  0.2004 -0.5617 -0.9836
39189SOL    HW122378   4.112  12.467   2.305 -0.2888 -0.3287 -0.7279
39189SOL    HW222379   4.146  12.438   2.449  0.5081 -0.6533 -0.9748
39190SOL     OW22380   3.058  11.748   8.751  0.5913 -0.5646  0.1583
39190SOL    HW122381   3.127  11.682   8.749  0.2234 -0.9334 -0.6961
39190SOL    HW222382   2.981  11.702   8.785 -0.0426 -0.9631 -1.7358
39191SOL     OW22383   5.264   9.682  12.608  0.1871 -0.4966 -0.2276
39191SOL    HW122384   5.236   9.599  12.644  1.8862 -0.3611  1.5550
39191SOL    HW222385   5.321   9.659  12.535  2.5398 -1.0691  1.6663
39192SOL     OW22386  12.494  10.895  11.604  0.3744  0.1268 -0.1930
39192SOL    HW122387  12.504  10.880  11.698  0.4091  0.0564 -0.2081
39192SOL    HW222388  12.549  10.829  11.562 -0.1762 -0.2922 -0.2756
39193SOL     OW22389   0.116   5.930   8.922  0.4423  0.3263  0.2074
39193SOL    HW122390   0.176   5.999   8.894  0.9910  0.3550  1.4164
39193SOL    HW222391   0.164   5.881   8.987 -0.1961 -0.7916 -0.1392
39194SOL     OW22392  11.216  10.812   1.857 -0.3552  0.4338 -0.2245
39194SOL    HW122393  11.254  10.848   1.937  0.3938  2.2077 -1.3175
39194SOL    HW222394  11.180  10.727   1.884  1.1844  0.2910  1.6600
39195SOL     OW22395   2.790   7.504   0.550  0.0236 -0.0075 -1.2170
39195SOL    HW122396   2.753   7.513   0.638  0.7144 -0.3669 -0.8856
39195SOL    HW222397   2.746   7.427   0.514  0.4095 -0.4034 -0.8432
39196SOL     OW22398   8.248   1.809   2.862 -0.0451  0.0407 -0.1311
39196SOL    HW122399   8.165   1.761   2.871  0.3748 -1.3695 -2.6765
39196SOL    HW222400   8.314   1.740   2.854  1.1099  1.1206 -0.1588
39197SOL     OW22401  10.593   4.406   7.600  0.3992  0.3261  0.0329
39197SOL    HW122402  10.520   4.468   7.601 -2.0703 -2.3703  0.1674
39197SOL    HW222403  10.578   4.350   7.676  2.3465 -0.6489 -0.2381
39198SOL     OW22404  12.325  10.479   4.576 -0.2604  0.1089 -0.3501
39198SOL    HW122405  12.401  10.422   4.567 -0.8150 -0.6921 -0.0579
39198SOL    HW222406  12.344  10.552   4.517  0.2357 -0.6280 -1.1481
39199SOL     OW22407   0.006  11.148   7.625 -0.6526  0.0886 -0.4305
39199SOL    HW122408   0.013  11.114   7.714 -0.9671 -1.6505 -1.0393
39199SOL    HW222409  -0.038  11.079   7.576 -3.9618  2.4344 -1.1385
39200SOL     OW22410   7.911  12.490   4.137  0.5285 -0.2534 -0.4485
39200SOL    HW122411   7.989  12.539   4.109  0.1371  1.2215  0.9063
39200SOL    HW222412   7.937  12.447   4.218  0.1915 -0.4643 -0.4510
39201SOL     OW22413   7.439   9.461  10.836  0.3637  0.2847 -0.1129
39201SOL    HW122414   7.451   9.531  10.900  0.7993  0.3173 -0.2297
39201SOL    HW222415   7.473   9.497  10.754  0.8883 -0.1721 -0.1041
39202SOL     OW22416   1.456   9.532   7.874 -0.0964 -0.2147  0.7586
39202SOL    HW122417   1.372   9.508   7.911  0.3367 -1.0322  1.2450
39202SOL    HW222418   1.484   9.610   7.923  0.7182 -1.5787  2.5942
39203SOL     OW22419  11.883   9.888  10.567 -0.0864 -0.2876  0.0228
39203SOL    HW122420  11.940   9.852  10.635  0.1874 -0.9244 -0.5221
39203SOL    HW222421  11.795   9.883  10.603 -0.0585 -1.5793 -0.0528
39204SOL     OW22422   7.873  10.139   0.757  0.1726 -0.0927  0.0424
39204SOL    HW122423   7.796  10.146   0.813  0.5914  0.7065  0.5485
39204SOL    HW222424   7.889  10.228   0.727  0.7379 -0.2924 -0.2729
39205SOL     OW22425   3.601   7.426   2.721  0.3791 -0.3984  0.1140
39205SOL    HW122426   3.585   7.498   2.660 -0.6309 -1.4077 -0.8671
39205SOL    HW222427   3.696   7.417   2.723  0.4419 -0.5559 -1.6156
39206SOL     OW22428   7.366   3.751   2.577 -0.3989  0.2753 -0.0817
39206SOL    HW122429   7.375   3.656   2.581 -3.7389 -0.1116  1.1595
39206SOL    HW222430   7.433   3.784   2.637  1.7450 -1.1337 -1.5819
39207SOL     OW22431   6.573   3.909  12.554 -0.5911 -0.2091  0.3303
39207SOL    HW122432   6.489   3.925  12.510  0.9500  2.7810 -1.9170
39207SOL    HW222433   6.604   3.827  12.517 -1.2266  0.1775 -1.1388
39208SOL     OW22434  11.882   4.473   0.707  0.4604 -0.1875  0.5728
39208SOL    HW122435  11.883   4.519   0.791  0.0830 -0.9032  0.9773
39208SOL    HW222436  11.935   4.396   0.721  0.8911 -0.0107 -0.0333
39209SOL     OW22437   7.238   4.822   0.049  0.1385  0.0938 -0.3913
39209SOL    HW122438   7.317   4.794   0.095  0.7486 -0.8171 -1.9137
39209SOL    HW222439   7.270   4.853  -0.036 -1.1866 -1.0018 -1.3349
39210SOL     OW22440   1.939   9.292   1.901 -0.5649 -0.6228 -0.0560
39210SOL    HW122441   2.033   9.274   1.913  0.6035  3.8856 -0.4363
39210SOL    HW222442   1.929   9.302   1.807 -1.0938  0.1304  0.0709
39211SOL     OW22443   3.633   9.000   4.269  0.1657 -0.1581 -0.3720
39211SOL    HW122444   3.654   8.907   4.277  1.3576 -0.0346 -1.7055
39211SOL    HW222445   3.586   9.021   4.350  2.8207 -1.1610  1.5788
39212SOL     OW22446   3.158   5.701  12.395 -0.2315 -0.1190  1.1023
39212SOL    HW122447   3.218   5.648  12.447  1.7712  0.3689 -0.5756
39212SOL    HW222448   3.156   5.659  12.309  0.3627  1.6867  0.1338
39213SOL     OW22449  11.969   8.682   0.117  0.8660  0.1209  0.2511
39213SOL    HW122450  11.997   8.591   0.108 -1.4190 -0.8908  2.1939
39213SOL    HW222451  11.953   8.692   0.211 -4.3864  0.6787 -0.4407
39214SOL     OW22452   7.998   6.447   5.572  0.1644  0.2608  0.4327
39214SOL    HW122453   8.091   6.452   5.593 -0.5429  1.1833  4.1159
39214SOL    HW222454   7.972   6.538   5.555 -0.2228  0.1335  0.3265
39215SOL     OW22455   4.310   6.218  11.734  0.3117  0.2955 -0.3092
39215SOL    HW122456   4.386   6.220  11.792  0.6092  0.5702 -0.7020
39215SOL    HW222457   4.235   6.232  11.792  0.6269  0.9000 -0.0334
39216SOL     OW22458   9.204   1.279   6.978 -0.3201  0.6941  0.0419
39216SOL    HW122459   9.236   1.214   6.916 -1.9455 -0.4823  0.3552
39216SOL    HW222460   9.278   1.295   7.037  0.7758  0.7512 -1.3091
39217SOL     OW22461   1.138  10.403   3.716 -0.2182  0.2312  0.2781
39217SOL    HW122462   1.047  10.430   3.728  0.0624  1.2971  0.1137
39217SOL    HW222463   1.137  10.350   3.636 -0.7792 -0.2785  0.6070
39218SOL     OW22464  11.052   8.561  10.679 -0.1026 -0.0668 -0.2459
39218SOL    HW122465  11.074   8.468  10.674  0.9389  0.2248 -1.9842
39218SOL    HW222466  10.957   8.564  10.663  0.0402 -0.7725 -1.3343
39219SOL     OW22467   5.677  12.610  11.572 -0.0822 -0.0178 -0.2251
39219SOL    HW122468   5.690  12.528  11.525  1.6422 -0.9656  1.7624
39219SOL    HW222469   5.764  12.649  11.578 -0.6575  1.2860  0.0536
39220SOL     OW22470  10.787  11.743   1.822 -0.1352  0.5791  0.2989
39220SOL    HW122471  10.869  11.702   1.849 -0.3643 -0.6093 -0.7129
39220SOL    HW222472  10.725  11.722   1.891 -0.0275 -0.0203  0.2123
39221SOL     OW22473  11.368   5.507   8.377  0.0024 -0.1302 -0.1902
39221SOL    HW122474  11.315   5.543   8.448 -1.2719 -0.1968 -1.0765
39221SOL    HW222475  11.306   5.459   8.322  1.3180 -2.0288 -0.1322
39222SOL     OW22476   0.146   6.350   6.545  0.4706  0.6496  0.1675
39222SOL    HW122477   0.097   6.370   6.624  1.6199  2.9274  0.3895
39222SOL    HW222478   0.232   6.321   6.577  0.6653  0.7886 -0.2163
39223SOL     OW22479   2.311   2.236   5.356 -0.5160  0.1342  0.3289
39223SOL    HW122480   2.368   2.262   5.427  0.7364 -2.5739  0.4256
39223SOL    HW222481   2.237   2.192   5.399 -0.4286 -0.3223  0.0166
39224SOL     OW22482   3.991   8.782   7.631 -0.0535  0.0914  0.2333
39224SOL    HW122483   4.006   8.688   7.641 -0.3731  0.0221  0.0971
39224SOL    HW222484   3.976   8.814   7.720 -1.5492 -0.2836  0.1509
39225SOL     OW22485   1.389  10.970   5.000  0.1820  0.0137 -0.3527
39225SOL    HW122486   1.431  10.976   5.086  1.0199 -0.3216 -0.7324
39225SOL    HW222487   1.440  11.028   4.944  0.7722 -1.1455 -1.0582
39226SOL     OW22488   0.727   4.421  11.266 -0.1985  0.2268  0.3862
39226SOL    HW122489   0.642   4.457  11.292  0.7128  1.2758  2.1003
39226SOL    HW222490   0.783   4.434  11.343  1.9515  1.0901 -1.2235
39227SOL     OW22491   3.711  11.640   5.788 -0.0954 -0.3678 -1.0715
39227SOL    HW122492   3.792  11.685   5.764  0.0607 -1.3507 -2.4904
39227SOL    HW222493   3.738  11.579   5.857 -0.0345  0.6516 -0.1591
39228SOL     OW22494   2.786  10.529  11.577  0.4560 -0.4632  0.0768
39228SOL    HW122495   2.880  10.535  11.591  0.3740 -0.3292  0.5910
39228SOL    HW222496   2.758  10.457  11.634  0.2934 -0.7125 -0.3130
39229SOL     OW22497   3.082   4.683   5.819  0.1765  0.2393  0.1036
39229SOL    HW122498   2.990   4.709   5.814  0.2124  0.1184 -2.2374
39229SOL    HW222499   3.129   4.765   5.834 -0.3127  0.2253  1.9190
39230SOL     OW22500   8.453   9.105   0.287 -0.1212  0.3431 -0.5779
39230SOL    HW122501   8.385   9.119   0.222  1.9387 -0.3095 -3.0497
39230SOL    HW222502   8.475   9.192   0.320 -2.8257  0.4742  1.1577
39231SOL     OW22503   4.423   0.200   7.073  0.2773  0.0012  0.6405
39231SOL    HW122504   4.344   0.157   7.104  0.3681 -0.1273  0.6953
39231SOL    HW222505   4.450   0.148   6.997 -0.3641  0.7546 -0.1236
39232SOL     OW22506   1.292  10.478   6.268 -0.1742 -0.5288 -0.4196
39232SOL    HW122507   1.279  10.572   6.258  0.3161 -0.6698 -3.5648
39232SOL    HW222508   1.360  10.469   6.335 -0.2162  1.3419 -0.0895
39233SOL     OW22509  10.661   8.909   9.638  0.1328 -0.0228 -0.5452
39233SOL    HW122510  10.711   8.829   9.655  1.6555  0.7391 -1.2796
39233SOL    HW222511  10.617   8.892   9.555  0.5407 -0.0598 -0.7560
39234SOL     OW22512   5.575   1.058   5.647 -0.1272 -0.8555 -0.4765
39234SOL    HW122513   5.526   1.016   5.717  0.5327 -1.2031 -0.2179
39234SOL    HW222514   5.624   1.128   5.690  2.1540 -2.5571 -0.1227
39235SOL     OW22515  11.451  11.148   8.181  0.8332 -0.2849  0.1142
39235SOL    HW122516  11.368  11.100   8.174  0.4338  0.4624 -0.3725
39235SOL    HW222517  11.518  11.080   8.181  0.3666 -0.8045 -1.9361
39236SOL     OW22518   3.217  12.518   0.073  0.3079  0.9077  0.0093
39236SOL    HW122519   3.133  12.528   0.117  0.3343  1.0542  0.0281
39236SOL    HW222520   3.206  12.563  -0.011 -0.5105 -1.3561 -1.1785
39237SOL     OW22521  11.063   1.762   4.714  0.0037  0.1336  0.2128
39237SOL    HW122522  11.101   1.694   4.769 -2.9219 -0.9723  1.0697
39237SOL    HW222523  10.994   1.717   4.665 -0.7277  2.1070 -0.6764
39238SOL     OW22524   1.751  10.127   0.032 -0.0563 -0.2749 -0.3828
39238SOL    HW122525   1.700  10.142   0.111 -3.2174  0.7533 -2.4059
39238SOL    HW222526   1.775  10.035   0.035 -0.3535 -0.3217  1.6100
39239SOL     OW22527   4.924   8.848   9.537  0.0082  0.1022 -0.3174
39239SOL    HW122528   4.934   8.763   9.495  2.1529 -0.2891  0.8146
39239SOL    HW222529   4.914   8.828   9.630  1.3686  1.0490  0.0722
39240SOL     OW22530   7.241   5.200   9.318  0.0579 -0.0589  0.0637
39240SOL    HW122531   7.248   5.168   9.228 -0.3977 -0.7229  0.2592
39240SOL    HW222532   7.279   5.288   9.315  0.3632 -0.2095 -0.7015
39241SOL     OW22533   4.950  12.281   9.947 -0.0104  0.2433  0.3099
39241SOL    HW122534   4.990  12.200   9.977 -0.2890  0.3702  1.0613
39241SOL    HW222535   4.986  12.295   9.860 -2.3198 -2.3209 -1.1927
39242SOL     OW22536   2.889   2.328   3.525 -0.1305 -0.0657  0.3180
39242SOL    HW122537   2.813   2.344   3.581 -1.5918 -0.6979 -1.3702
39242SOL    HW222538   2.895   2.405   3.469 -0.0267 -0.3639 -0.0903
39243SOL     OW22539   4.637   7.279   4.993  0.6956  0.0894 -0.6374
39243SOL    HW122540   4.710   7.218   5.000  1.1012  0.6842  0.7493
39243SOL    HW222541   4.677   7.360   4.961  1.0225  0.9107  1.6086
39244SOL     OW22542   9.920  12.571   2.219  0.0719 -0.3198  0.0515
39244SOL    HW122543   9.921  12.603   2.129  1.3202  0.0637  0.1886
39244SOL    HW222544  10.010  12.583   2.250 -0.0011 -1.7051  0.9040
39245SOL     OW22545   6.516   0.512   8.180  0.0278  0.5595  0.2869
39245SOL    HW122546   6.547   0.443   8.121  0.4482 -0.0497  1.1905
39245SOL    HW222547   6.548   0.485   8.266  1.9977  2.9160  0.4014
39246SOL     OW22548  10.646   6.421   1.973 -0.1111  0.2183  0.1813
39246SOL    HW122549  10.566   6.452   1.930  0.2980  1.1886  0.0850
39246SOL    HW222550  10.676   6.348   1.918  0.1117  1.0887 -0.9094
39247SOL     OW22551   8.912   5.511   6.933  0.3441 -0.0862 -0.5181
39247SOL    HW122552   8.831   5.526   6.982  1.0100  0.0615  0.5729
39247SOL    HW222553   8.957   5.595   6.935  1.0386 -0.4597 -0.1371
39248SOL     OW22554   7.216   0.203   6.904 -0.1257 -0.5360 -0.3289
39248SOL    HW122555   7.257   0.160   6.978 -1.3120 -0.1818  0.5635
39248SOL    HW222556   7.230   0.143   6.830  0.4042 -1.2445  0.3324
39249SOL     OW22557   2.411   5.854   6.676  0.0933  0.2449  0.1325
39249SOL    HW122558   2.362   5.772   6.682 -2.1507  1.4279 -0.7734
39249SOL    HW222559   2.452   5.852   6.590  1.5825 -0.6551  0.8118
39250SOL     OW22560   2.987   6.157  11.980 -0.9067  0.6156 -0.0849
39250SOL    HW122561   2.996   6.177  11.886 -0.0987  1.3398  0.1267
39250SOL    HW222562   3.074   6.175  12.016 -1.2456  0.4600  0.8263
39251SOL     OW22563  11.510  11.939  10.817 -0.3644 -0.6218  0.0563
39251SOL    HW122564  11.525  12.019  10.767  0.4702 -1.1136 -0.5116
39251SOL    HW222565  11.442  11.962  10.880  2.2993  1.6566  2.4029
39252SOL     OW22566   6.098  10.826   1.035  0.0914 -0.0104 -0.0629
39252SOL    HW122567   6.047  10.836   0.954 -0.4044 -2.2493 -0.1083
39252SOL    HW222568   6.065  10.745   1.074 -0.2230  1.3542  2.8211
39253SOL     OW22569  12.393   2.363  11.127  0.1312 -0.0119 -0.5196
39253SOL    HW122570  12.466   2.302  11.131 -0.5757 -0.9140 -1.0226
39253SOL    HW222571  12.428   2.445  11.162  0.9044 -0.8710  0.7676
39254SOL     OW22572   8.011  11.781   6.871  0.6098  0.1037 -0.2605
39254SOL    HW122573   7.936  11.818   6.918  0.8312 -0.2566  0.3899
39254SOL    HW222574   8.036  11.849   6.809  0.0586  0.4320 -0.1322
39255SOL     OW22575   1.036  10.921   9.930  0.0877  0.3928 -0.3479
39255SOL    HW122576   0.971  10.988   9.907 -0.3041  1.0404  2.3328
39255SOL    HW222577   0.993  10.838   9.911 -0.6592  0.8452 -0.6784
39256SOL     OW22578  10.479   5.570   2.994  0.0621  0.1144  0.2481
39256SOL    HW122579  10.406   5.627   2.969 -0.8851 -1.0631  0.2436
39256SOL    HW222580  10.549   5.593   2.934 -0.0792  1.7064  0.6573
39257SOL     OW22581   6.739  10.521  11.071 -0.3388  0.1363 -0.1912
39257SOL    HW122582   6.753  10.605  11.115 -0.4076  0.3725 -0.6196
39257SOL    HW222583   6.706  10.463  11.140  3.3494 -0.6795  1.1305
39258SOL     OW22584   3.825   0.198   2.803 -0.3228  0.3225  0.2794
39258SOL    HW122585   3.864   0.263   2.862  0.4027  1.1716 -1.0868
39258SOL    HW222586   3.735   0.227   2.792 -0.0736  0.9698 -0.1156
39259SOL     OW22587   7.428   3.213   8.022  0.9474 -0.2229  0.1322
39259SOL    HW122588   7.517   3.183   8.005  1.5525 -0.1884  2.7386
39259SOL    HW222589   7.438   3.275   8.094 -1.1084  0.4612 -0.1153
39260SOL     OW22590   8.668  11.346  10.846  0.1681 -0.3127 -0.0517
39260SOL    HW122591   8.588  11.307  10.879 -0.2895  0.6122 -0.0238
39260SOL    HW222592   8.639  11.416  10.788  0.8949  1.4237  1.5634
39261SOL     OW22593   4.718   9.395  10.552  0.3405 -0.1862  0.0528
39261SOL    HW122594   4.717   9.423  10.460  1.5291 -0.4928 -0.0681
39261SOL    HW222595   4.626   9.386  10.575 -0.0058  0.9656 -0.7815
39262SOL     OW22596   9.622  12.580   4.950  0.3620  0.2405 -0.0760
39262SOL    HW122597   9.582  12.659   4.913 -0.8691  0.0632  0.8260
39262SOL    HW222598   9.674  12.612   5.024 -1.2225  0.1136  1.1440
39263SOL     OW22599   6.322   6.536   1.061 -0.4606 -0.6627  0.2771
39263SOL    HW122600   6.396   6.498   1.014 -0.9632 -1.4646  0.1192
39263SOL    HW222601   6.357   6.618   1.097  0.5402 -1.0996  0.3393
39264SOL     OW22602   4.308   0.726   0.178  0.0072  0.1501  0.3124
39264SOL    HW122603   4.356   0.644   0.162  0.9581  0.7649 -0.0603
39264SOL    HW222604   4.317   0.775   0.097 -0.7310  0.5430  0.4661
39265SOL     OW22605   9.588  11.372  12.145 -0.0987 -0.2576 -0.0954
39265SOL    HW122606   9.554  11.325  12.221 -0.7733  1.4326  0.6933
39265SOL    HW222607   9.513  11.378  12.086 -0.3100  0.6521  0.2443
39266SOL     OW22608   2.445   0.144   4.541 -0.5100  0.8996  0.3522
39266SOL    HW122609   2.387   0.083   4.588 -0.0254  0.6544  0.6403
39266SOL    HW222610   2.419   0.136   4.450 -0.5848  0.3951  0.4122
39267SOL     OW22611   7.527   9.744   2.220 -0.1641 -0.2210 -0.2803
39267SOL    HW122612   7.491   9.718   2.136  0.5030  1.5688 -1.1589
39267SOL    HW222613   7.612   9.699   2.225  0.0480  0.1212 -0.8162
39268SOL     OW22614   9.846   0.655   5.545  0.3299  0.3925  0.3475
39268SOL    HW122615   9.883   0.710   5.476  3.4072 -0.7393  0.9585
39268SOL    HW222616   9.793   0.715   5.597  1.5291  2.2435 -0.4593
39269SOL     OW22617   4.597   8.211   5.566  0.1845 -0.1233 -0.1092
39269SOL    HW122618   4.592   8.252   5.480 -0.7025 -0.8048 -0.3898
39269SOL    HW222619   4.544   8.132   5.559 -0.6124  0.2398  1.3062
39270SOL     OW22620  10.218   4.973   1.816  0.5834 -0.0046 -0.2862
39270SOL    HW122621  10.135   5.020   1.823  0.0700 -1.1356  2.3676
39270SOL    HW222622  10.197   4.895   1.765 -0.1240 -0.4980  0.7265
39271SOL     OW22623   2.784   4.982   8.449 -0.1050 -0.2265 -0.1516
39271SOL    HW122624   2.693   4.953   8.447 -0.4314  0.3618  2.3970
39271SOL    HW222625   2.835   4.903   8.467 -0.1241 -0.5036 -1.2725
39272SOL     OW22626   8.499   9.948  12.191  0.2010 -0.1996 -0.0887
39272SOL    HW122627   8.587   9.919  12.216  0.6454  1.0552 -0.1384
39272SOL    HW222628   8.513  10.031  12.146 -1.0516  0.2657  0.3503
39273SOL     OW22629  10.351   5.795   4.236 -0.4850  0.4343  0.2986
39273SOL    HW122630  10.260   5.788   4.264 -0.9704  1.8946 -0.7613
39273SOL    HW222631  10.375   5.886   4.256  0.5614  0.2316  0.0348
39274SOL     OW22632   9.151   3.221   9.835 -0.2534  0.0530 -0.0740
39274SOL    HW122633   9.133   3.141   9.883  1.4568  1.5783  3.4548
39274SOL    HW222634   9.064   3.253   9.809 -1.1030 -1.8613  0.2231
39275SOL     OW22635   9.363  11.922  12.304 -0.0733  0.4525  0.1140
39275SOL    HW122636   9.413  11.841  12.294  1.7319  1.4345  0.7690
39275SOL    HW222637   9.370  11.964  12.218  1.6494  1.3256  0.6399
39276SOL     OW22638  10.425   0.055   2.377 -0.6515 -0.5871 -0.0925
39276SOL    HW122639  10.511   0.021   2.353 -0.0965  0.4244  0.3863
39276SOL    HW222640  10.397   0.001   2.451  0.5306  0.3821  1.1126
39277SOL     OW22641   4.769  11.727   2.137 -0.7197 -0.2895  0.4303
39277SOL    HW122642   4.837  11.675   2.179 -0.2747 -0.1631 -0.1201
39277SOL    HW222643   4.762  11.691   2.048 -0.5199  0.4645  0.0928
39278SOL     OW22644   4.575   9.118  10.650  0.1746 -0.3214  0.1284
39278SOL    HW122645   4.598   9.127  10.558 -1.3592 -1.7039 -0.4316
39278SOL    HW222646   4.649   9.157  10.697  0.9225  0.5258 -1.6708
39279SOL     OW22647  11.852   1.813   6.402  0.6953  0.1344  0.1283
39279SOL    HW122648  11.931   1.860   6.428 -0.0354  1.1575  0.5690
39279SOL    HW222649  11.781   1.856   6.450 -0.2843 -0.0066 -1.1213
39280SOL     OW22650  10.861   7.699  12.058  0.1997 -0.0746  0.1572
39280SOL    HW122651  10.819   7.664  12.136 -0.1168  0.4916  0.2436
39280SOL    HW222652  10.788   7.724  12.001  0.4159 -1.5122 -0.7907
39281SOL     OW22653   9.159   8.088   1.010  0.0197  0.5529  0.2770
39281SOL    HW122654   9.121   8.166   0.969  0.8009  0.3375 -0.8986
39281SOL    HW222655   9.252   8.106   1.015 -0.0628  0.6124  2.1175
39282SOL     OW22656   6.948   3.655   9.152 -0.3019 -0.0633  0.3306
39282SOL    HW122657   6.993   3.584   9.106 -0.7465  0.5872 -1.1644
39282SOL    HW222658   6.944   3.726   9.089  0.0585  1.2926  1.7750
39283SOL     OW22659  11.696   9.396  11.600  0.4241  0.1087 -0.0258
39283SOL    HW122660  11.781   9.358  11.575  0.2501 -0.7758  0.6426
39283SOL    HW222661  11.671   9.346  11.678 -1.0018 -0.0466 -0.5650
39284SOL     OW22662  12.326   2.052   4.800 -0.4557 -0.3891 -0.1535
39284SOL    HW122663  12.316   2.111   4.875  1.3322 -0.0818 -0.1205
39284SOL    HW222664  12.412   2.073   4.764 -1.0979 -0.7996 -2.0773
39285SOL     OW22665   8.787   6.264   4.503  0.0634 -0.5171  0.5831
39285SOL    HW122666   8.697   6.242   4.477 -0.4514  1.4797  0.5498
39285SOL    HW222667   8.805   6.206   4.577 -1.6434 -0.2283  1.2579
39286SOL     OW22668   6.096  10.605   2.623 -0.2849 -0.2227  0.0606
39286SOL    HW122669   6.168  10.557   2.665  0.9794  0.2655 -1.4424
39286SOL    HW222670   6.111  10.696   2.648 -0.3875 -0.1227 -0.2421
39287SOL     OW22671   9.934   5.403   9.781  0.2927 -0.4387 -0.3957
39287SOL    HW122672  10.017   5.399   9.732 -0.9423 -0.1358 -2.6403
39287SOL    HW222673   9.912   5.496   9.782  0.9532 -0.2463  2.0492
39288SOL     OW22674   1.783   4.159   3.617  0.3873  0.4285  0.0426
39288SOL    HW122675   1.746   4.149   3.529  0.4387  0.9569 -0.0431
39288SOL    HW222676   1.810   4.251   3.621  0.6955  0.3193  0.4907
39289SOL     OW22677   1.116   7.882  10.507 -0.0748  0.5231  0.8569
39289SOL    HW122678   1.144   7.917  10.592 -2.7867 -0.5801  2.3360
39289SOL    HW222679   1.094   7.790  10.525 -1.5392  0.4932 -0.8321
39290SOL     OW22680   8.688   1.016   2.376  0.1377 -0.1751  0.2170
39290SOL    HW122681   8.696   1.107   2.406 -0.4172  0.6742 -1.9916
39290SOL    HW222682   8.770   0.974   2.403  1.6294  1.7415 -1.0534
39291SOL     OW22683  11.676   6.308   8.731  0.4224  0.5888 -0.2399
39291SOL    HW122684  11.725   6.271   8.804  0.6765 -1.1816 -1.2354
39291SOL    HW222685  11.586   6.277   8.744  0.5249  0.0285 -0.7951
39292SOL     OW22686   8.189   3.977  10.424  0.3240  0.7202 -0.3869
39292SOL    HW122687   8.201   3.970  10.518 -1.8044  0.2932 -0.1076
39292SOL    HW222688   8.175   4.071  10.409  2.0622  0.9961 -0.5126
39293SOL     OW22689   7.462  12.040   2.279  0.2655  0.4113  0.4433
39293SOL    HW122690   7.415  11.959   2.299 -1.2483  1.2767  0.4821
39293SOL    HW222691   7.541  12.010   2.232 -0.2492 -1.0778  0.4627
39294SOL     OW22692   2.061   6.594   4.317  0.2973  0.1326  0.3294
39294SOL    HW122693   2.083   6.509   4.279 -1.6575  0.2427 -1.1933
39294SOL    HW222694   2.057   6.654   4.243  1.5247  1.5803  1.3643
39295SOL     OW22695  11.088   8.293   5.847 -0.2236 -0.3530  0.0280
39295SOL    HW122696  11.027   8.236   5.895  1.3576 -0.9603  1.3916
39295SOL    HW222697  11.036   8.325   5.774 -2.5128 -0.0333  1.6621
39296SOL     OW22698  11.450   4.131   2.532  0.0715  0.2442 -0.0655
39296SOL    HW122699  11.369   4.159   2.574  0.3671  0.6923  0.2195
39296SOL    HW222700  11.457   4.186   2.454  0.2624  0.4291  0.0810
39297SOL     OW22701   1.323   5.766   8.682 -0.2384 -0.0937 -0.2710
39297SOL    HW122702   1.234   5.766   8.716 -0.3875  1.0868 -0.6345
39297SOL    HW222703   1.371   5.706   8.740 -0.7147  1.1126  1.4413
39298SOL     OW22704   4.856   7.861   3.662 -0.7843  0.4562 -0.3136
39298SOL    HW122705   4.927   7.803   3.690 -0.6710  0.5646 -0.3715
39298SOL    HW222706   4.846   7.923   3.735 -0.5772  0.6586 -0.4535
39299SOL     OW22707  11.323   5.902   6.060  0.2171  0.1062  0.1816
39299SOL    HW122708  11.276   5.818   6.061  0.2208  0.1031 -0.0517
39299SOL    HW222709  11.292   5.947   6.139 -0.9493  0.5366 -0.4961
39300SOL     OW22710   3.720   4.355  11.148 -0.0295 -0.6228 -0.0761
39300SOL    HW122711   3.670   4.282  11.186 -1.5419  0.5994  0.3908
39300SOL    HW222712   3.734   4.415  11.222 -2.4448  1.4946 -1.1901
39301SOL     OW22713   8.095   8.693   9.027 -0.1109  0.8699  0.6266
39301SOL    HW122714   8.031   8.671   9.095 -0.2572 -0.1480  0.1623
39301SOL    HW222715   8.053   8.764   8.977 -1.7853 -1.0968 -0.9120
39302SOL     OW22716   7.423   8.601   2.453  0.3945  0.0850  0.6464
39302SOL    HW122717   7.470   8.518   2.447  1.3784  0.5973  0.8428
39302SOL    HW222718   7.450   8.650   2.376 -0.2370  0.1968  0.4920
39303SOL     OW22719   5.951   5.604   0.826 -0.0257  0.0931 -0.7046
39303SOL    HW122720   5.930   5.679   0.881  1.3417  1.1531 -1.5719
39303SOL    HW222721   6.021   5.558   0.873 -0.3210 -0.2122 -0.5556
39304SOL     OW22722   7.522  10.584   0.437  0.2210  0.3427 -0.0308
39304SOL    HW122723   7.612  10.610   0.453  0.7783 -1.3268 -0.3153
39304SOL    HW222724   7.507  10.601   0.344  0.0877  1.0164  0.1074
39305SOL     OW22725   0.050   4.376   3.796 -0.2641  0.0339  0.5939
39305SOL    HW122726  -0.030   4.405   3.840  0.3057  1.2382  0.8798
39305SOL    HW222727   0.111   4.449   3.807  0.4713 -0.3553 -0.6774
39306SOL     OW22728   8.694   2.172   7.866 -0.2086  0.0527  0.7470
39306SOL    HW122729   8.624   2.124   7.822  1.6419 -1.1247 -1.1074
39306SOL    HW222730   8.767   2.170   7.804  1.2985  1.7427  2.3393
39307SOL     OW22731   2.248   8.867   3.616  0.6362 -0.2966  0.3137
39307SOL    HW122732   2.320   8.900   3.563 -1.9522  0.2771 -3.2454
39307SOL    HW222733   2.174   8.924   3.594 -1.8362 -3.0457  0.7851
39308SOL     OW22734   9.369   1.013  11.751 -0.3180  0.0769  1.2635
39308SOL    HW122735   9.281   0.977  11.755 -0.6213  0.4607 -0.7327
39308SOL    HW222736   9.427   0.938  11.766 -0.9754 -0.4289  1.3184
39309SOL     OW22737   5.899   1.660   5.724 -0.7025  0.7730 -0.0035
39309SOL    HW122738   5.966   1.608   5.768  0.9955  1.9824 -1.0328
39309SOL    HW222739   5.874   1.726   5.789 -2.0016 -0.5664  0.8911
39310SOL     OW22740   0.686  10.185   7.568  1.0319  0.2133  0.0620
39310SOL    HW122741   0.743  10.152   7.498 -1.5369 -2.4055 -0.9867
39310SOL    HW222742   0.703  10.128   7.642  0.3398 -0.0954 -0.0115
39311SOL     OW22743  10.665   3.637   1.230 -0.4353 -0.3459  0.2911
39311SOL    HW122744  10.714   3.558   1.207  0.1829  0.1592 -0.1555
39311SOL    HW222745  10.578   3.623   1.192 -0.6418 -1.2154  1.0255
39312SOL     OW22746   6.917   2.820   3.549 -0.2934 -0.0887 -0.4095
39312SOL    HW122747   6.926   2.795   3.641  0.2988  0.7449 -0.2305
39312SOL    HW222748   7.005   2.812   3.513 -0.7125 -1.4525 -1.1936
39313SOL     OW22749   6.425   8.350   0.131  0.5267 -0.1555  0.0257
39313SOL    HW122750   6.352   8.297   0.162  1.1791 -0.0383  1.8490
39313SOL    HW222751   6.457   8.395   0.209  0.4493  2.4235 -1.3125
39314SOL     OW22752   3.336   4.153   8.998 -0.4254 -0.0880  0.0472
39314SOL    HW122753   3.250   4.191   9.013 -1.0250 -1.0455 -0.8423
39314SOL    HW222754   3.356   4.173   8.907  0.4781  0.4645  0.3581
39315SOL     OW22755   4.843  10.152   8.888  0.2465 -0.0705  0.1160
39315SOL    HW122756   4.868  10.224   8.830  0.7044 -0.0972  0.2722
39315SOL    HW222757   4.765  10.184   8.934  0.5108  0.3724  0.2621
39316SOL     OW22758   0.072   5.418   6.364  0.6836  0.0797 -0.1704
39316SOL    HW122759   0.020   5.493   6.392 -0.2110 -1.4157  2.5688
39316SOL    HW222760   0.007   5.350   6.345  1.5328 -0.6833 -0.3961
39317SOL     OW22761  12.516   5.252   6.379  0.3125 -0.4056  0.1664
39317SOL    HW122762  12.491   5.167   6.341 -3.4927  1.6783 -2.7015
39317SOL    HW222763  12.469   5.255   6.462 -0.0658 -0.8798 -0.0234
39318SOL     OW22764   1.835   1.755  12.163 -0.6005 -0.1098  0.3908
39318SOL    HW122765   1.764   1.785  12.108 -1.1069 -0.6579  0.7327
39318SOL    HW222766   1.886   1.834  12.183 -0.2182  0.0443 -1.1017
39319SOL     OW22767  11.108   4.140   0.148  0.1362 -0.2338  0.4096
39319SOL    HW122768  11.088   4.186   0.230 -0.3914  0.3211 -0.0227
39319SOL    HW222769  11.129   4.051   0.175 -0.8166 -0.2663  1.0836
39320SOL     OW22770   2.885   6.967   0.859 -0.1768 -0.3488 -0.1488
39320SOL    HW122771   2.873   7.050   0.906  0.5909 -0.3530  0.0797
39320SOL    HW222772   2.975   6.972   0.825 -1.2288  0.4306 -3.1649
39321SOL     OW22773   6.399   2.540   1.706  0.0236  0.0045 -0.0693
39321SOL    HW122774   6.388   2.629   1.672  0.5007  0.0978  0.0164
39321SOL    HW222775   6.494   2.526   1.707  0.0573  0.1037  1.4363
39322SOL     OW22776   3.388   8.942  11.577  0.3793 -0.2471 -0.0377
39322SOL    HW122777   3.465   8.885  11.566  2.2625  2.0155  0.6661
39322SOL    HW222778   3.388   8.997  11.499 -1.0924 -0.7673 -0.4405
39323SOL     OW22779  11.007   6.649   1.022  0.0545 -1.0115  0.3874
39323SOL    HW122780  11.082   6.602   0.986 -0.4658 -0.5358 -1.3908
39323SOL    HW222781  10.947   6.658   0.949  0.3316  2.9225  0.4479
39324SOL     OW22782   1.034   6.066   8.395 -0.5759  0.3817 -0.3636
39324SOL    HW122783   1.053   6.116   8.316 -0.2987  1.6335  0.4723
39324SOL    HW222784   1.092   5.989   8.389 -0.8157  0.2777 -1.5318
39325SOL     OW22785  10.888   1.683   1.356  0.1472  0.7643 -0.0695
39325SOL    HW122786  10.973   1.711   1.389  0.4579  0.8996 -0.9638
39325SOL    HW222787  10.885   1.715   1.265 -0.0980 -0.7937 -0.6359
39326SOL     OW22788   5.487   7.891   1.104  0.0105 -0.0765 -0.5187
39326SOL    HW122789   5.557   7.830   1.080  0.0768  0.4522 -1.7090
39326SOL    HW222790   5.440   7.908   1.022 -1.1010  0.1132  0.1288
39327SOL     OW22791   1.548   8.563   9.158 -0.1843 -0.2359  0.1022
39327SOL    HW122792   1.604   8.485   9.158  0.4843  0.1711  2.2375
39327SOL    HW222793   1.524   8.576   9.249 -1.2148  1.4292 -0.3452
39328SOL     OW22794   1.025   7.102   4.018  0.2878 -0.4615  0.3298
39328SOL    HW122795   0.950   7.066   4.066  1.4282 -1.9467  1.0901
39328SOL    HW222796   1.026   7.054   3.935  0.8168 -1.0098  0.6407
39329SOL     OW22797  11.573   7.964   1.738  0.4648 -0.3681 -0.0885
39329SOL    HW122798  11.528   7.900   1.792  2.1747 -2.2500 -0.7741
39329SOL    HW222799  11.583   7.922   1.653  1.0469  1.0835 -0.7879
39330SOL     OW22800   1.685   8.820  11.390 -0.6011 -0.3939 -0.2924
39330SOL    HW122801   1.689   8.896  11.449  0.7589  0.4795 -1.4546
39330SOL    HW222802   1.653   8.749  11.446  0.1766  0.5037  1.3810
39331SOL     OW22803  11.043   3.712   9.830  0.8402  0.4309  0.3854
39331SOL    HW122804  11.081   3.641   9.881  1.0563  0.1811 -0.1105
39331SOL    HW222805  11.108   3.729   9.761  0.7386  1.0309  0.4368
39332SOL     OW22806  11.835   4.504   8.553 -0.3763  0.2217  0.4115
39332SOL    HW122807  11.928   4.523   8.542 -0.0814 -0.4547  1.6103
39332SOL    HW222808  11.829   4.460   8.638 -1.6839 -0.4665 -0.0108
39333SOL     OW22809   8.899   3.002   4.375 -0.5371  0.3204  0.2340
39333SOL    HW122810   8.858   3.024   4.459  0.3139  1.4858  0.3694
39333SOL    HW222811   8.826   2.995   4.313 -1.3078 -1.8315  1.2879
39334SOL     OW22812   6.955   5.742   6.813 -0.1144 -0.8839 -0.0105
39334SOL    HW122813   7.007   5.812   6.775  2.2080 -2.0465  0.8534
39334SOL    HW222814   6.938   5.682   6.740  2.7483 -2.1761  0.2523
39335SOL     OW22815   5.238   8.384   6.376 -0.3898  0.0603 -0.4914
39335SOL    HW122816   5.203   8.472   6.388 -0.6171 -0.2159  1.1486
39335SOL    HW222817   5.168   8.335   6.334  0.1210  0.8904 -2.4223
39336SOL     OW22818   2.635   8.518   9.160  0.4804 -0.6257 -0.3296
39336SOL    HW122819   2.694   8.499   9.088  0.5190 -0.9968 -0.2032
39336SOL    HW222820   2.600   8.432   9.186  0.6159 -0.5212  0.2134
39337SOL     OW22821   2.617  11.289   3.151 -0.7982  0.0590  0.5769
39337SOL    HW122822   2.649  11.363   3.203 -0.2171  1.0568 -1.1422
39337SOL    HW222823   2.640  11.212   3.203 -0.3026  1.0125  1.8296
39338SOL     OW22824   0.550   7.826   7.970 -0.0632 -0.1175 -0.2753
39338SOL    HW122825   0.567   7.835   8.063  1.6812  0.5562 -0.6143
39338SOL    HW222826   0.598   7.898   7.929 -2.1021  0.5880 -1.6085
39339SOL     OW22827   9.351   5.840   5.018 -0.2876  0.5168  0.0300
39339SOL    HW122828   9.345   5.785   4.940 -0.7612 -0.2316  0.5766
39339SOL    HW222829   9.443   5.861   5.026  0.1131 -1.1871  0.4529
39340SOL     OW22830  11.851   2.975   8.155 -0.2493  0.7254  0.1462
39340SOL    HW122831  11.772   2.981   8.209 -0.1097  1.7840  0.2461
39340SOL    HW222832  11.884   2.887   8.172  0.2867  1.3171  2.5098
39341SOL     OW22833   7.198   9.758   8.526  0.1886 -0.0451 -0.6490
39341SOL    HW122834   7.147   9.681   8.503 -0.0844 -0.1059  0.1326
39341SOL    HW222835   7.177   9.822   8.459 -1.6409  0.2466  0.1563
39342SOL     OW22836   0.851   2.786   8.346 -0.1860 -0.2938 -0.7239
39342SOL    HW122837   0.761   2.810   8.323 -0.3022  0.6773  0.6172
39342SOL    HW222838   0.871   2.711   8.289 -1.5028  0.0573 -1.7002
39343SOL     OW22839   0.972   5.864   7.662  0.3297  0.2311  0.1889
39343SOL    HW122840   1.029   5.854   7.739 -0.8902 -1.2292  0.9618
39343SOL    HW222841   1.016   5.814   7.593 -0.2389 -1.4210  0.9525
39344SOL     OW22842  11.427   8.877   2.643  0.1008 -0.3654 -0.1237
39344SOL    HW122843  11.405   8.939   2.573 -2.2682  0.3904  1.1701
39344SOL    HW222844  11.453   8.932   2.717  1.5831 -1.1123 -0.0432
39345SOL     OW22845  11.341   1.453   8.159  0.4425 -0.1891  0.0828
39345SOL    HW122846  11.301   1.397   8.226 -0.1577  0.7990  0.5783
39345SOL    HW222847  11.352   1.396   8.083  1.9900 -1.5804  1.2961
39346SOL     OW22848   5.028   3.061   6.530  0.0821 -0.0716  0.0811
39346SOL    HW122849   5.004   2.974   6.496 -0.3034 -0.6660  1.7686
39346SOL    HW222850   5.023   3.118   6.453 -1.8818 -1.1152 -0.6650
39347SOL     OW22851   7.356   4.468   4.955  0.5815  0.1644  0.1925
39347SOL    HW122852   7.310   4.550   4.940 -0.3469 -0.1406  1.2433
39347SOL    HW222853   7.370   4.431   4.868 -0.3671  0.6850 -0.1889
39348SOL     OW22854   5.109  12.326  11.496  0.5585  0.3176 -0.4071
39348SOL    HW122855   5.124  12.235  11.520 -0.5813 -0.0391 -0.9698
39348SOL    HW222856   5.051  12.360  11.565  2.7346  1.2989  1.0387
39349SOL     OW22857   1.230   5.921   6.471  0.4938  0.2464  0.2466
39349SOL    HW122858   1.270   5.843   6.510  0.3248  0.0157 -0.0326
39349SOL    HW222859   1.137   5.897   6.462  0.6156  0.1268 -0.7174
39350SOL     OW22860  11.058   0.203   3.139  0.1093 -0.1197 -0.3027
39350SOL    HW122861  11.062   0.219   3.044  0.2986  0.1256 -0.2564
39350SOL    HW222862  11.107   0.276   3.177 -2.9095  1.8144  0.2070
39351SOL     OW22863   9.916   9.793   1.107  0.0802 -0.7078 -0.0326
39351SOL    HW122864  10.009   9.790   1.131  0.0376 -0.7628  0.1261
39351SOL    HW222865   9.909   9.734   1.032  0.4402  0.3791 -0.9601
39352SOL     OW22866   2.067   5.455   9.227 -0.6481  0.2964  0.3006
39352SOL    HW122867   2.032   5.509   9.156 -1.3156 -0.1895  0.2508
39352SOL    HW222868   2.130   5.397   9.185  1.9298  2.5673  0.6784
39353SOL     OW22869   4.117   3.967   1.384 -0.1461 -0.4314 -0.3876
39353SOL    HW122870   4.169   4.008   1.453 -2.0605 -0.3896  1.1158
39353SOL    HW222871   4.157   3.881   1.372 -0.7220 -1.1054  1.9860
39354SOL     OW22872   3.506   1.038   1.687  0.4277 -1.1885  0.4715
39354SOL    HW122873   3.495   1.025   1.593  0.8832  0.1549  0.2113
39354SOL    HW222874   3.586   1.090   1.695 -0.8580  0.8012  1.4074
39355SOL     OW22875   9.565   9.420   5.141  0.0745 -0.9667  0.1692
39355SOL    HW122876   9.561   9.392   5.232 -0.7105 -1.3304  0.0326
39355SOL    HW222877   9.580   9.339   5.092 -3.9039 -1.5987 -0.3874
39356SOL     OW22878   4.887   1.300   0.882 -0.1661 -0.7509  0.5317
39356SOL    HW122879   4.797   1.270   0.871 -0.4091 -0.0945  0.6211
39356SOL    HW222880   4.916   1.320   0.794 -1.2389  2.0942  0.7052
39357SOL     OW22881  11.906   6.140   1.953  0.0679  0.7454 -0.0617
39357SOL    HW122882  11.888   6.225   1.993  1.7001  0.5274  1.2765
39357SOL    HW222883  11.982   6.155   1.897 -1.1636  0.6647 -1.8152
39358SOL     OW22884   5.670   7.423  12.377 -1.0437 -0.4732  0.0129
39358SOL    HW122885   5.685   7.383  12.291  1.7789  2.6953 -1.2074
39358SOL    HW222886   5.591   7.475  12.365  0.0394  0.9820 -1.1832
39359SOL     OW22887   9.153   6.516  12.548 -0.1901 -0.8223  0.0013
39359SOL    HW122888   9.078   6.549  12.498  0.5457 -0.3882 -0.8278
39359SOL    HW222889   9.185   6.593  12.595 -1.8521 -1.5233  2.4912
39360SOL     OW22890  11.076   1.104  11.302  0.1842  0.4659 -0.2330
39360SOL    HW122891  11.091   1.041  11.373  1.3910  2.0386  0.9605
39360SOL    HW222892  11.075   1.050  11.223  1.4957 -1.0310  0.7040
39361SOL     OW22893   9.256   5.654   0.006 -0.0556  0.0494 -0.4203
39361SOL    HW122894   9.302   5.692  -0.069 -1.3656  0.7973 -0.8861
39361SOL    HW222895   9.191   5.596  -0.032 -1.2572  1.0315  0.0747
39362SOL     OW22896   5.998   3.319   8.125 -0.2448  0.3028 -0.2472
39362SOL    HW122897   5.930   3.357   8.070 -1.3147  0.2937  1.0197
39362SOL    HW222898   6.038   3.393   8.169 -0.4183  0.1921  0.0993
39363SOL     OW22899   2.648  10.977   5.864 -0.1290  0.2200 -0.0880
39363SOL    HW122900   2.740  10.977   5.891 -0.8144  2.9565  2.8284
39363SOL    HW222901   2.626  11.070   5.852 -2.6051 -0.3142 -0.3093
39364SOL     OW22902   8.585  11.542  12.397 -1.3178  0.3517 -0.2829
39364SOL    HW122903   8.571  11.479  12.327  0.4745  2.4456 -2.7050
39364SOL    HW222904   8.660  11.509  12.445 -0.6950  0.3772 -1.2275
39365SOL     OW22905   7.764   8.770   8.470 -0.0954  0.4197 -0.1038
39365SOL    HW122906   7.744   8.724   8.389  1.8361 -0.0542 -0.3669
39365SOL    HW222907   7.732   8.712   8.540  1.7714 -1.1417 -0.4460
39366SOL     OW22908   1.529   1.433   8.250  0.3303 -0.3136  0.3974
39366SOL    HW122909   1.466   1.497   8.282 -0.1855 -0.4611 -0.3062
39366SOL    HW222910   1.586   1.417   8.325 -0.3629 -0.0520  0.9967
39367SOL     OW22911   4.901   2.170   2.212 -0.2878 -0.1971  0.0884
39367SOL    HW122912   4.986   2.210   2.195  0.1698 -0.5994  1.3321
39367SOL    HW222913   4.917   2.076   2.207 -1.1991 -0.3105 -2.0720
39368SOL     OW22914  11.568   0.509   0.422 -0.3969 -0.0312 -0.1541
39368SOL    HW122915  11.599   0.421   0.402  0.2037 -0.4845  2.4416
39368SOL    HW222916  11.473   0.503   0.418 -0.3491 -0.7171 -0.2721
39369SOL     OW22917   8.959   5.849   9.862 -0.2660 -0.3375  0.1265
39369SOL    HW122918   8.894   5.854   9.792 -0.7135  0.6627  0.5971
39369SOL    HW222919   9.041   5.832   9.817 -0.3314  1.5078 -0.7748
39370SOL     OW22920  11.997   1.117  10.648  0.2914  0.1239 -0.0363
39370SOL    HW122921  12.060   1.047  10.665 -0.3213 -0.6196 -0.7233
39370SOL    HW222922  11.985   1.116  10.553 -0.7520  0.2383  0.0779
39371SOL     OW22923   4.589  10.845   5.971  0.1351 -0.3144 -0.2355
39371SOL    HW122924   4.520  10.779   5.975 -0.3106  0.2360  1.9700
39371SOL    HW222925   4.665  10.803   6.011 -0.0395  0.3399  0.8229
39372SOL     OW22926   2.300   8.101   8.244  0.3734  0.1321 -0.5283
39372SOL    HW122927   2.220   8.048   8.249  0.2183  0.4796  1.8401
39372SOL    HW222928   2.283   8.163   8.174 -0.7615 -0.8648 -1.1749
39373SOL     OW22929   2.053   5.737   5.767  0.4082 -0.0570 -0.3310
39373SOL    HW122930   2.062   5.829   5.793  0.4506 -0.3617  0.7895
39373SOL    HW222931   1.999   5.698   5.835 -0.9733 -0.5308 -1.6368
39374SOL     OW22932   8.078   7.323   1.487 -0.3684 -0.1746 -0.1502
39374SOL    HW122933   8.134   7.287   1.418 -0.2714 -1.4915  0.5689
39374SOL    HW222934   8.132   7.390   1.529 -0.0237 -0.1387 -0.6454
39375SOL     OW22935   8.644   7.153   4.467  0.6399  0.2925 -0.5348
39375SOL    HW122936   8.662   7.199   4.386  0.1011  2.0444  0.2979
39375SOL    HW222937   8.713   7.087   4.473  1.2132  0.7292 -1.9583
39376SOL     OW22938   4.444   1.763   7.647  0.8169 -0.1136  0.3568
39376SOL    HW122939   4.509   1.726   7.707  0.2190 -0.8735  0.5584
39376SOL    HW222940   4.389   1.689   7.622  0.4035  0.3968 -0.2964
39377SOL     OW22941   1.995   6.226  11.316 -0.1601 -0.0140 -0.0212
39377SOL    HW122942   1.977   6.134  11.299 -0.1092  0.1703 -1.1383
39377SOL    HW222943   2.038   6.226  11.401  1.8201 -1.2517 -0.9554
39378SOL     OW22944   3.051   3.020   5.915 -0.4019  0.0324  0.4744
39378SOL    HW122945   3.003   3.103   5.917 -1.4943 -0.3978 -2.7021
39378SOL    HW222946   3.069   3.005   5.822  2.8548 -1.6115  1.2306
39379SOL     OW22947   3.166   5.498  12.176  1.1891 -0.1835  0.1114
39379SOL    HW122948   3.176   5.493  12.081  1.3749 -0.6441  0.1495
39379SOL    HW222949   3.215   5.423  12.209  0.7444 -0.2912  0.5422
39380SOL     OW22950   5.103   4.447   8.991 -0.0705 -0.0203  0.4387
39380SOL    HW122951   5.123   4.364   8.947 -1.5777 -0.5599  0.6953
39380SOL    HW222952   5.007   4.449   8.995 -0.0567  1.6743  0.5779
39381SOL     OW22953   8.273   2.645   1.723  0.1459  0.3267  0.0477
39381SOL    HW122954   8.196   2.667   1.775  1.6610  2.9015  1.4565
39381SOL    HW222955   8.267   2.702   1.646 -0.2944 -0.8727 -0.8230
39382SOL     OW22956   3.276   3.538   9.969  0.2105 -0.1305 -0.3517
39382SOL    HW122957   3.368   3.562   9.971  0.4284 -0.9156  1.9992
39382SOL    HW222958   3.230   3.619   9.988  0.6412 -0.3180  1.7355
39383SOL     OW22959  10.981   8.492   6.658 -0.2864 -0.1026 -0.9399
39383SOL    HW122960  11.044   8.502   6.587 -1.4597 -0.7330 -2.1186
39383SOL    HW222961  10.960   8.399   6.658  0.2294 -0.2556  0.7483
39384SOL     OW22962   3.848   5.124   3.270 -0.2894 -0.3083 -0.0645
39384SOL    HW122963   3.814   5.052   3.323 -0.3186 -0.7309 -0.6489
39384SOL    HW222964   3.905   5.173   3.329  0.5354 -1.3920  0.0568
39385SOL     OW22965   5.970   9.867   5.678  0.0850  0.3883  0.2439
39385SOL    HW122966   6.054   9.840   5.642 -0.6051  0.4591 -1.5029
39385SOL    HW222967   5.989   9.948   5.725  1.5380 -1.2160  2.6460
39386SOL     OW22968   7.612   1.494  11.377 -0.1396  0.4185 -0.3290
39386SOL    HW122969   7.616   1.478  11.283  0.1381 -2.4352  0.0758
39386SOL    HW222970   7.518   1.490  11.398 -0.2201  1.2884 -0.5011
39387SOL     OW22971   9.293  11.164   3.844  0.2780  0.4640 -0.1581
39387SOL    HW122972   9.259  11.089   3.796  2.0877 -0.3563 -0.2620
39387SOL    HW222973   9.388  11.160   3.831  0.8175  0.5613  2.9238
39388SOL     OW22974   4.728   9.382   5.159 -0.2354 -0.0901  0.0657
39388SOL    HW122975   4.755   9.352   5.246  0.7838 -0.0626 -0.2259
39388SOL    HW222976   4.809   9.383   5.108 -1.2238 -3.5097 -1.9264
39389SOL     OW22977   7.679   1.971   8.789  0.4600  0.8932  0.4566
39389SOL    HW122978   7.690   2.046   8.848  0.7102  1.0965  0.1575
39389SOL    HW222979   7.768   1.937   8.776  0.5988  1.6284 -0.7912
39390SOL     OW22980  11.972   1.897   3.596 -0.7912 -0.1867  0.2493
39390SOL    HW122981  11.894   1.903   3.541 -1.1829 -2.8948  0.4088
39390SOL    HW222982  12.039   1.860   3.540  0.1188  1.1218  0.4217
39391SOL     OW22983   0.859   9.524   4.165  0.3311 -0.9915  0.2172
39391SOL    HW122984   0.891   9.612   4.186  1.0771 -1.4168  0.9175
39391SOL    HW222985   0.923   9.465   4.206  0.8709 -1.8777 -1.8038
39392SOL     OW22986   8.082   9.639   7.591  0.1573  0.5045  0.8761
39392SOL    HW122987   8.159   9.649   7.534 -1.0741  0.3101 -0.9222
39392SOL    HW222988   8.108   9.679   7.674  1.8630  1.3027  0.0111
39393SOL     OW22989  10.581   9.861   0.068 -0.0992  0.0005 -0.2542
39393SOL    HW122990  10.585   9.811  -0.013 -0.7147  1.1892 -1.0567
39393SOL    HW222991  10.581   9.953   0.040  0.2723  0.4491  1.1226
39394SOL     OW22992  11.275   4.645   7.802  0.3056 -0.1921  0.6481
39394SOL    HW122993  11.202   4.654   7.741 -1.3206  0.5817  2.5514
39394SOL    HW222994  11.317   4.731   7.802  0.7318 -0.3958  0.1439
39395SOL     OW22995   8.077   7.404   4.411  0.0136 -0.7181  0.2697
39395SOL    HW122996   8.039   7.411   4.499 -1.7282 -0.2069 -0.4844
39395SOL    HW222997   8.167   7.436   4.422 -0.3969  0.0636  1.7298
39396SOL     OW22998  11.370   3.670   1.901  1.3490 -0.0349  0.0035
39396SOL    HW122999  11.437   3.707   1.843  1.3251  0.7139  0.4442
39396SOL    HW223000  11.287   3.686   1.855  1.5529 -2.4371 -1.3374
39397SOL     OW23001  11.173   4.699   2.769 -0.2626  0.0399 -0.2405
39397SOL    HW123002  11.123   4.774   2.802 -1.6679 -0.3789 -1.3004
39397SOL    HW223003  11.255   4.737   2.738  0.6227  0.6138  2.4932
39398SOL     OW23004   0.148   5.246  11.857  0.1201  0.4355  0.3974
39398SOL    HW123005   0.154   5.210  11.769  1.9228 -0.1227  0.7163
39398SOL    HW223006   0.169   5.173  11.915 -0.1033  1.0287  1.2534
39399SOL     OW23007   3.581   1.135   6.745 -0.1825  0.1790  0.2029
39399SOL    HW123008   3.567   1.052   6.698  1.3942 -0.3862  0.6569
39399SOL    HW223009   3.493   1.168   6.761 -0.8329 -1.0360 -0.6566
39400SOL     OW23010   2.669  11.204   1.321  0.2364  0.3501 -0.0295
39400SOL    HW123011   2.752  11.160   1.302 -0.6537 -0.3151 -2.7775
39400SOL    HW223012   2.647  11.251   1.241 -2.5381 -0.3513  0.2083
39401SOL     OW23013  11.888   0.699   2.065 -0.1615  0.1567 -0.4684
39401SOL    HW123014  11.953   0.769   2.059 -1.2171  1.1008 -1.2713
39401SOL    HW223015  11.804   0.745   2.073 -0.7616 -1.0293  0.3331
39402SOL     OW23016   8.437   7.715   0.876  0.3003  0.3404 -0.0813
39402SOL    HW123017   8.392   7.743   0.796 -0.0386 -2.5862 -0.9978
39402SOL    HW223018   8.529   7.733   0.859  0.1342  0.6379 -0.6947
39403SOL     OW23019   0.993   3.718  12.079  0.8457  0.0535 -0.1369
39403SOL    HW123020   0.911   3.768  12.075  0.9802  0.4298  1.3958
39403SOL    HW223021   0.966   3.628  12.057  0.2916  0.4315 -1.0885
39404SOL     OW23022   5.080   2.478   9.322  0.1386 -0.3398 -0.2478
39404SOL    HW123023   5.146   2.410   9.310  0.3194 -0.0545 -0.9639
39404SOL    HW223024   5.041   2.488   9.235 -0.5169 -0.1711  0.0623
39405SOL     OW23025   3.149   4.020   4.197 -0.1098  0.8207  0.2641
39405SOL    HW123026   3.177   3.978   4.115  0.5169  0.2120  0.7830
39405SOL    HW223027   3.159   3.952   4.263 -1.4717  1.0232  0.7160
39406SOL     OW23028   2.126  12.009  12.443  0.2111 -0.3429  0.7104
39406SOL    HW123029   2.097  12.096  12.416  0.9893 -0.3006 -0.0487
39406SOL    HW223030   2.090  11.949  12.377  0.3513 -0.4991  0.7742
39407SOL     OW23031  11.678   2.359   1.553 -0.0328  0.2157 -0.1101
39407SOL    HW123032  11.669   2.286   1.492  0.6230 -1.1698  1.3740
39407SOL    HW223033  11.598   2.356   1.606  0.7901 -0.6610  1.1657
39408SOL     OW23034   9.469   9.367   8.997 -0.0481 -0.1633  0.5309
39408SOL    HW123035   9.427   9.432   9.053 -2.0082  0.1468 -1.1730
39408SOL    HW223036   9.562   9.376   9.015 -0.4069  1.9029  1.6073
39409SOL     OW23037   2.806   8.791   5.513 -0.2576  0.3817 -0.3798
39409SOL    HW123038   2.757   8.820   5.590  1.6608 -2.2010  2.0112
39409SOL    HW223039   2.744   8.736   5.465 -0.8916  0.3678  0.4320
39410SOL     OW23040   2.619   9.620   2.305  0.9063  0.8325  0.3002
39410SOL    HW123041   2.532   9.606   2.342  1.0319 -0.4242  0.1874
39410SOL    HW223042   2.670   9.658   2.376 -0.2782  3.7897 -0.2861
39411SOL     OW23043   4.128   7.016   2.648  0.0328 -0.3457 -0.0943
39411SOL    HW123044   4.221   6.993   2.651  1.1307  3.3821 -0.9539
39411SOL    HW223045   4.097   7.006   2.738  0.9837 -2.3095  0.0759
39412SOL     OW23046   0.642   5.480   4.951 -0.2160 -0.3059 -0.1964
39412SOL    HW123047   0.721   5.491   4.899 -0.3642 -0.6353 -0.4948
39412SOL    HW223048   0.666   5.510   5.039  0.1824 -0.2308 -0.3315
39413SOL     OW23049   6.701   2.766   9.021  0.2546 -0.4342 -0.0208
39413SOL    HW123050   6.681   2.673   9.021  0.8689 -0.5838  1.2510
39413SOL    HW223051   6.788   2.773   9.061  0.2483  0.6732 -0.1581
39414SOL     OW23052   0.381   0.298   4.881 -0.4019 -0.0350 -1.2381
39414SOL    HW123053   0.346   0.369   4.935  0.1391 -0.2721 -0.5554
39414SOL    HW223054   0.308   0.271   4.826 -0.7188  0.7923 -1.2275
39415SOL     OW23055   6.064   4.355   0.834 -0.1643 -0.3782 -0.3066
39415SOL    HW123056   6.084   4.410   0.759  1.0289 -1.1254 -0.5600
39415SOL    HW223057   5.980   4.314   0.813 -0.1279 -0.1220 -0.9524
39416SOL     OW23058   1.661   1.911   1.779  0.1160  0.1802 -0.4117
39416SOL    HW123059   1.607   1.834   1.762 -0.9315  1.0525 -1.1854
39416SOL    HW223060   1.634   1.974   1.713  0.5148  1.4354  0.5829
39417SOL     OW23061   5.573  11.126   0.234  0.2625 -0.4228 -0.3507
39417SOL    HW123062   5.583  11.054   0.172 -0.1189 -0.2734 -0.5897
39417SOL    HW223063   5.489  11.167   0.211 -0.7881 -1.4461  1.3716
39418SOL     OW23064   6.864   2.988   7.974  0.0869  0.8318  0.2953
39418SOL    HW123065   6.940   2.930   7.977 -0.4269  0.1731  1.1772
39418SOL    HW223066   6.791   2.931   7.950 -0.3003  1.2583  0.4388
39419SOL     OW23067  11.223   5.179  10.007  0.0922 -0.3774  0.0024
39419SOL    HW123068  11.226   5.273  10.027 -1.3463 -0.6249  1.7473
39419SOL    HW223069  11.167   5.173   9.930 -0.8729  0.1642  0.6240
39420SOL     OW23070   3.037  12.491   4.113 -0.0879  0.6776  0.2145
39420SOL    HW123071   3.074  12.504   4.025 -0.3258 -1.0751 -0.1884
39420SOL    HW223072   3.050  12.398   4.131 -1.1171  0.7584  1.5504
39421SOL     OW23073   8.920   4.206  10.442 -0.3802  0.1196  0.4875
39421SOL    HW123074   8.863   4.253  10.502 -0.2049  0.3306  0.4887
39421SOL    HW223075   8.939   4.124  10.488 -0.6857  0.0450  0.4832
39422SOL     OW23076   1.129   7.072   2.332  0.1254 -0.4106  0.1945
39422SOL    HW123077   1.094   6.990   2.365  0.2593 -1.3184 -1.8014
39422SOL    HW223078   1.220   7.053   2.310  0.1519  0.2426 -0.3167
39423SOL     OW23079   3.411   9.151  12.275  0.1518  0.3238 -0.3764
39423SOL    HW123080   3.431   9.237  12.313  0.2289  0.6447 -1.1297
39423SOL    HW223081   3.401   9.168  12.181 -1.1523 -0.2674 -0.3584
39424SOL     OW23082   7.871   9.282   7.670 -0.1149  0.3915  0.5768
39424SOL    HW123083   7.953   9.269   7.717  0.0731 -0.9211 -0.0879
39424SOL    HW223084   7.836   9.364   7.706  0.9997  0.4657  1.5518
39425SOL     OW23085  12.482  11.151   1.357  0.3458  0.0509  0.2741
39425SOL    HW123086  12.465  11.244   1.373 -0.4319  0.0897 -0.6434
39425SOL    HW223087  12.577  11.142   1.365  0.3100  0.6861  1.5234
39426SOL     OW23088   6.644   3.547   0.288  0.9483  0.6508 -0.0641
39426SOL    HW123089   6.711   3.610   0.263  1.4009 -0.3741 -1.5226
39426SOL    HW223090   6.674   3.464   0.252 -2.1888  0.5328 -2.9470
39427SOL     OW23091  10.951   9.034  12.547  0.0318  0.0514  0.1685
39427SOL    HW123092  10.923   9.126  12.544  0.7429  0.3598  1.7248
39427SOL    HW223093  11.037   9.034  12.504  0.3127  0.2437  0.7208
39428SOL     OW23094   8.261   6.942   8.930 -0.3780  0.4912 -0.4225
39428SOL    HW123095   8.205   7.016   8.909  0.4243  0.6714 -2.1308
39428SOL    HW223096   8.341   6.958   8.880  1.1372  0.1141  1.7016
39429SOL     OW23097   4.286   8.898   2.849 -0.5943 -0.3972  0.1157
39429SOL    HW123098   4.370   8.883   2.892 -0.2029  0.3188 -0.3806
39429SOL    HW223099   4.306   8.956   2.775 -1.8896  1.8770  1.4227
39430SOL     OW23100   3.341  11.725  11.284  0.2965 -0.1107 -0.4490
39430SOL    HW123101   3.339  11.818  11.305 -0.1198  0.0959 -1.3958
39430SOL    HW223102   3.394  11.686  11.355 -0.9967  0.5687  0.9436
39431SOL     OW23103   9.993   7.813   4.176  0.2222 -0.4461  0.1427
39431SOL    HW123104   9.937   7.883   4.143  0.0866 -0.3701  0.5349
39431SOL    HW223105  10.061   7.804   4.110 -1.0580 -1.5507 -1.1066
39432SOL     OW23106   4.834   8.091   3.819 -0.2038 -0.5867 -0.1096
39432SOL    HW123107   4.888   8.119   3.894 -0.5574 -0.1708 -0.0022
39432SOL    HW223108   4.757   8.051   3.859  0.8392 -2.8716 -0.2571
39433SOL     OW23109   0.366   9.756   5.251 -0.8394  0.0131 -0.6611
39433SOL    HW123110   0.330   9.734   5.165 -1.1411 -1.7384 -0.1324
39433SOL    HW223111   0.439   9.696   5.262 -1.0329 -0.0392  0.4428
39434SOL     OW23112  11.842   4.129   6.121 -0.0257 -0.2199  0.6800
39434SOL    HW123113  11.936   4.114   6.105 -0.4457 -1.0935 -1.3945
39434SOL    HW223114  11.825   4.087   6.205  1.1324 -1.5726  0.2859
39435SOL     OW23115   9.442  11.289   3.170 -0.2325  0.1671  0.3565
39435SOL    HW123116   9.524  11.332   3.194 -1.1553  1.4834  1.2565
39435SOL    HW223117   9.396  11.353   3.116 -0.3991 -0.8239 -0.7241
39436SOL     OW23118   1.152   3.246   4.690 -0.0481 -0.2795 -0.0082
39436SOL    HW123119   1.136   3.301   4.766 -0.9539 -0.5934  0.0432
39436SOL    HW223120   1.094   3.171   4.702 -2.7934  1.2124 -2.6027
39437SOL     OW23121  11.019   7.800   3.683 -0.0676  0.8694  0.1654
39437SOL    HW123122  11.106   7.798   3.642 -0.4381  0.4556 -0.6264
39437SOL    HW223123  10.976   7.876   3.644 -0.6160  0.1582 -0.6463
39438SOL     OW23124   8.815   7.681   4.974  0.0717  0.2669  0.8416
39438SOL    HW123125   8.903   7.679   5.012  1.4275  1.0485 -1.9686
39438SOL    HW223126   8.809   7.600   4.923 -0.5121  0.6115  0.3467
39439SOL     OW23127   0.686  10.010   9.143 -0.0284 -0.6116 -0.5062
39439SOL    HW123128   0.646  10.097   9.137 -0.4116 -0.5821  1.7275
39439SOL    HW223129   0.632   9.963   9.206  0.6402 -2.2295 -1.0874
39440SOL     OW23130   7.767   0.201  10.667 -0.6399  0.1239  0.0587
39440SOL    HW123131   7.738   0.281  10.623  1.0696  0.2820 -0.8428
39440SOL    HW223132   7.755   0.220  10.760  1.4975  2.2123 -0.0113
39441SOL     OW23133   5.683   5.301   8.419 -0.1012  0.1108  0.5209
39441SOL    HW123134   5.590   5.322   8.421 -0.5710 -1.7200 -0.1050
39441SOL    HW223135   5.701   5.268   8.507 -0.0048  0.5910  0.6837
39442SOL     OW23136   0.887   0.991  12.271  0.0181  0.0976  0.0049
39442SOL    HW123137   0.909   1.034  12.354 -0.2668 -2.2281  1.3593
39442SOL    HW223138   0.799   0.957  12.284 -0.3587  0.3781 -1.5924
39443SOL     OW23139   2.066   2.860  10.453 -0.3153 -0.0676 -0.4183
39443SOL    HW123140   2.095   2.911  10.529 -1.5135  1.8148 -1.1331
39443SOL    HW223141   2.070   2.922  10.380 -5.2368  0.2681 -0.7308
39444SOL     OW23142   8.080  12.045   1.069 -0.0475 -0.9715 -0.0800
39444SOL    HW123143   8.088  12.140   1.057 -0.7196 -0.8672  0.2297
39444SOL    HW223144   8.108  12.007   0.986 -2.8950 -0.3676 -1.4320
39445SOL     OW23145   9.536   1.787   2.861 -0.3525 -0.2610  0.0520
39445SOL    HW123146   9.477   1.765   2.933 -1.0044 -0.9889 -0.6991
39445SOL    HW223147   9.566   1.703   2.827  1.8844  0.0744  0.9993
39446SOL     OW23148   0.668   9.460   6.469 -0.0411  0.2632 -0.1497
39446SOL    HW123149   0.573   9.450   6.461 -0.0852  1.0533 -0.7225
39446SOL    HW223150   0.689   9.537   6.416  1.1220 -0.8531 -1.4255
39447SOL     OW23151   2.878   0.913   1.687 -0.4414  0.2519  0.2404
39447SOL    HW123152   2.848   0.931   1.777 -0.6362  1.0489  0.0241
39447SOL    HW223153   2.803   0.871   1.645  0.1349 -1.4599  0.8520
39448SOL     OW23154   0.852  11.280   0.569 -0.3764 -0.2281 -0.3316
39448SOL    HW123155   0.924  11.245   0.621  0.3564 -0.5000 -1.4819
39448SOL    HW223156   0.786  11.211   0.569 -0.5145 -0.1000  0.4805
39449SOL     OW23157   9.954   3.239   0.428 -0.3229 -0.1649 -0.3637
39449SOL    HW123158   9.893   3.291   0.376 -0.1793  0.5837  0.2131
39449SOL    HW223159  10.034   3.237   0.377  0.2719  1.7159  0.4042
39450SOL     OW23160  10.025   9.785   0.191 -0.3503 -0.7900 -0.5943
39450SOL    HW123161  10.034   9.825   0.104 -0.9272  2.3906  0.6724
39450SOL    HW223162  10.106   9.735   0.203  1.8439  2.2827 -1.3220
39451SOL     OW23163   1.268  10.015   8.571 -0.1526  0.4821  0.5538
39451SOL    HW123164   1.335   9.962   8.528 -1.0972  0.3418 -0.8147
39451SOL    HW223165   1.286  10.005   8.664  3.1244  2.3213  0.2618
39452SOL     OW23166   9.351   8.867   4.751  0.7720 -0.2506 -0.2509
39452SOL    HW123167   9.303   8.943   4.717  2.0051  0.6244 -0.1135
39452SOL    HW223168   9.414   8.904   4.813  0.3226 -1.5676  1.0532
39453SOL     OW23169   8.320   0.659   7.318 -0.1788  1.0728  0.3200
39453SOL    HW123170   8.378   0.707   7.378 -0.5741  3.2941 -0.9778
39453SOL    HW223171   8.293   0.724   7.253 -3.1340 -0.1858  0.1329
39454SOL     OW23172   7.417  11.876   2.978  0.1301  0.0627 -0.1019
39454SOL    HW123173   7.498  11.911   2.941 -0.6320  0.7754 -1.1423
39454SOL    HW223174   7.362  11.856   2.902 -0.9068  0.1830  0.5914
39455SOL     OW23175  11.531   9.980   7.721 -0.3998  0.2313  0.1083
39455SOL    HW123176  11.528   9.963   7.626  1.5193  0.1116  0.0252
39455SOL    HW223177  11.446   9.951   7.753 -0.8261 -0.3928 -1.4821
39456SOL     OW23178   9.070  11.302   1.285  0.0149 -0.2520 -0.1079
39456SOL    HW123179   9.050  11.216   1.320 -1.8788  0.7957  1.5953
39456SOL    HW223180   9.027  11.303   1.199 -1.2972 -0.5092  0.5163
39457SOL     OW23181   0.296   4.452   7.608  0.0182  0.0228 -0.0973
39457SOL    HW123182   0.338   4.501   7.679  1.0843 -2.6451  1.2723
39457SOL    HW223183   0.366   4.439   7.544  0.8750 -2.5859  1.2017
39458SOL     OW23184   0.373  11.532   4.517 -0.6103 -0.1226 -0.1189
39458SOL    HW123185   0.294  11.491   4.482 -0.1485 -0.3457 -0.9179
39458SOL    HW223186   0.445  11.479   4.483 -0.1629 -0.8012  1.7966
39459SOL     OW23187   3.766   7.945   6.255 -0.0417 -0.0671 -0.1729
39459SOL    HW123188   3.820   7.930   6.178 -0.5924  0.6233 -0.7140
39459SOL    HW223189   3.721   7.862   6.270 -0.0437 -0.1581 -0.6832
39460SOL     OW23190   2.356   0.905   9.477  0.4164 -0.5949 -0.5853
39460SOL    HW123191   2.384   0.919   9.568 -1.2916  1.0854 -0.2590
39460SOL    HW223192   2.355   0.810   9.468  1.2430 -0.7944  0.9419
39461SOL     OW23193   4.017   2.306   6.042  0.2386  0.1588  0.4907
39461SOL    HW123194   4.095   2.286   5.989  0.8146  1.9345  0.5799
39461SOL    HW223195   4.035   2.268   6.128 -0.3592 -2.0660 -0.3171
39462SOL     OW23196   4.831   7.528   1.642 -0.0460  0.2267  0.3834
39462SOL    HW123197   4.806   7.506   1.552  0.0870 -0.3191  0.4769
39462SOL    HW223198   4.840   7.444   1.686  1.8092  0.3847  0.3994
39463SOL     OW23199   0.246   9.139  10.648  0.3348  0.2511  0.3071
39463SOL    HW123200   0.177   9.191  10.688  0.4527  0.6936 -0.0473
39463SOL    HW223201   0.311   9.203  10.620  0.9952 -0.1730  0.8229
39464SOL     OW23202   7.823   3.398   8.644  0.2713 -0.6686  0.1789
39464SOL    HW123203   7.829   3.459   8.719 -0.6159  1.4264 -1.3546
39464SOL    HW223204   7.910   3.359   8.639  0.7818  0.2151  1.4383
39465SOL     OW23205   8.897  11.561   6.964 -0.1867 -0.0422  0.2707
39465SOL    HW123206   8.842  11.514   6.901  0.3434 -1.2512  0.6789
39465SOL    HW223207   8.908  11.500   7.037 -0.2982  1.1036  1.2862
39466SOL     OW23208   1.097   4.770   5.654  0.0753  0.2396  0.3658
39466SOL    HW123209   1.174   4.820   5.627 -0.5345  1.0317  0.0423
39466SOL    HW223210   1.087   4.703   5.587  0.7333 -0.1383  0.6419
39467SOL     OW23211   7.237  12.064   3.509 -0.0522  0.3969 -0.7206
39467SOL    HW123212   7.164  12.066   3.572  1.2116  1.4492  0.7949
39467SOL    HW223213   7.287  11.986   3.532  1.3623  1.6659  0.8220
39468SOL     OW23214   8.221   7.552   9.138  0.1574 -0.1260  0.6826
39468SOL    HW123215   8.177   7.578   9.219  0.9059 -2.5763  1.9660
39468SOL    HW223216   8.295   7.612   9.130 -0.3939  0.6569  1.3415
39469SOL     OW23217   8.104   7.963  11.159 -0.2893  0.0673 -0.0254
39469SOL    HW123218   8.151   7.917  11.089  0.4330  0.3946  0.2382
39469SOL    HW223219   8.067   8.040  11.118 -1.8941 -0.9347 -0.5806
39470SOL     OW23220  11.259   6.342   6.453 -0.7068  0.3204  0.5646
39470SOL    HW123221  11.207   6.329   6.374  0.3676 -2.4613  0.2150
39470SOL    HW223222  11.315   6.417   6.432 -1.3103  0.4141 -0.8408
39471SOL     OW23223   4.255   6.150   5.422 -0.1659 -0.4809 -0.0161
39471SOL    HW123224   4.160   6.154   5.436 -0.3380 -2.3623 -0.3742
39471SOL    HW223225   4.286   6.088   5.488  0.7065 -0.4520 -0.3916
39472SOL     OW23226   6.566   5.075   2.593  0.5230 -0.5763 -0.3066
39472SOL    HW123227   6.588   5.066   2.686 -0.6010 -0.7455 -0.0402
39472SOL    HW223228   6.508   5.151   2.590  0.8343 -0.3595 -0.9328
39473SOL     OW23229   7.829   7.672   7.222  0.3838 -0.5033 -0.1226
39473SOL    HW123230   7.801   7.583   7.242  0.2700 -0.0914  1.7656
39473SOL    HW223231   7.766   7.727   7.268  0.8132  0.5566 -0.7590
39474SOL     OW23232   9.236   7.997   5.726  0.0097 -0.1328  0.4105
39474SOL    HW123233   9.161   8.050   5.698 -0.4752 -0.7317  0.5472
39474SOL    HW223234   9.306   8.061   5.741 -0.3831  0.4091  0.0018
39475SOL     OW23235   2.043   1.956   0.514 -0.2798  0.2554  0.2677
39475SOL    HW123236   1.969   1.928   0.568 -0.8132  2.0110  0.4962
39475SOL    HW223237   2.020   1.926   0.426 -1.4857  1.1468  0.2577
39476SOL     OW23238   9.597   9.528   2.091 -0.7390 -0.1518  0.3361
39476SOL    HW123239   9.633   9.513   2.004 -0.1395 -1.3625  0.7642
39476SOL    HW223240   9.544   9.608   2.082  1.2716  1.1557 -0.5351
39477SOL     OW23241   5.801   9.066   0.502  0.3051  0.0882 -0.0730
39477SOL    HW123242   5.833   9.014   0.576 -0.2109 -1.8579 -1.1189
39477SOL    HW223243   5.828   9.015   0.425 -2.0622  0.2912 -1.1032
39478SOL     OW23244   8.371  12.594   3.725 -0.5968 -0.1833 -0.3900
39478SOL    HW123245   8.325  12.678   3.720  0.8832  0.7984  1.1706
39478SOL    HW223246   8.305  12.532   3.755 -1.0254  1.1408  1.5669
39479SOL     OW23247   1.014   8.294  12.471  0.0549 -0.1848  0.1542
39479SOL    HW123248   1.091   8.274  12.417 -0.0883 -0.7970  0.1656
39479SOL    HW223249   0.983   8.209  12.501 -0.1359  0.1197  0.8411
39480SOL     OW23250   6.953  10.009   5.327 -0.5087 -0.4470 -0.1504
39480SOL    HW123251   6.900  10.021   5.405 -1.6608 -2.1131 -0.6243
39480SOL    HW223252   7.014   9.938   5.350 -1.3511 -1.4688 -0.9635
39481SOL     OW23253   5.150   2.763   7.624  0.7529  0.6692  0.0825
39481SOL    HW123254   5.098   2.754   7.704 -0.1723  0.1899 -0.5663
39481SOL    HW223255   5.113   2.839   7.579  0.5160  0.2418 -0.4538
39482SOL     OW23256   2.104   0.019   9.805  0.3507 -0.1118  0.0069
39482SOL    HW123257   2.136  -0.059   9.851  1.3515  0.4822  0.3535
39482SOL    HW223258   2.075   0.078   9.875  2.1042  0.8933 -0.0593
39483SOL     OW23259  10.400   1.902   1.385 -0.0213  0.2743 -0.4089
39483SOL    HW123260  10.485   1.865   1.408 -0.4092  0.0324  0.6496
39483SOL    HW223261  10.421   1.987   1.346  0.6495  0.7263  0.8986
39484SOL     OW23262   8.621   0.931   5.798 -0.1228 -0.0660  0.8115
39484SOL    HW123263   8.606   1.024   5.812 -0.1808  0.0810 -0.1744
39484SOL    HW223264   8.621   0.893   5.886 -0.7016  0.7690  1.1811
39485SOL     OW23265   1.486   8.342   0.642 -0.8405 -0.1914  0.8601
39485SOL    HW123266   1.507   8.422   0.594 -0.9375 -0.2022  0.8000
39485SOL    HW223267   1.456   8.281   0.575 -0.5206 -0.3649  0.8702
39486SOL     OW23268   1.852  11.470   4.806  0.4480 -0.1497 -0.1717
39486SOL    HW123269   1.817  11.559   4.805  0.1951 -0.2437  0.0705
39486SOL    HW223270   1.790  11.420   4.753  0.5255 -0.2057 -0.2106
39487SOL     OW23271   2.481   6.178   6.637  0.3549  0.7245 -0.4060
39487SOL    HW123272   2.560   6.199   6.688 -1.5041 -0.0126  3.0983
39487SOL    HW223273   2.463   6.086   6.658 -2.4141  1.3832  0.4399
39488SOL     OW23274  11.519   7.644   5.458  0.6774 -0.1890 -0.6620
39488SOL    HW123275  11.517   7.594   5.540  1.1511  1.1432  0.2008
39488SOL    HW223276  11.484   7.730   5.482  0.6693  0.1748 -1.9049
39489SOL     OW23277  10.680   9.177   5.099 -0.5649  0.0875  0.2301
39489SOL    HW123278  10.677   9.264   5.060 -0.1067  0.5383  1.1661
39489SOL    HW223279  10.644   9.189   5.186  0.7797 -0.3629  0.8792
39490SOL     OW23280   2.506   4.074  12.305  0.2520 -0.6487  0.4719
39490SOL    HW123281   2.478   4.005  12.364 -0.2522 -1.0132 -0.1907
39490SOL    HW223282   2.425   4.118  12.278  0.5623  0.2304  0.9065
39491SOL     OW23283  10.222   8.891   7.268  0.8295  0.0695 -0.9539
39491SOL    HW123284  10.159   8.958   7.241  2.4558  1.9219 -0.3748
39491SOL    HW223285  10.168   8.813   7.286 -1.3120  1.6364 -0.1889
39492SOL     OW23286   4.412   3.622  11.126  0.3732 -0.1018 -0.4190
39492SOL    HW123287   4.483   3.682  11.150  0.2664 -0.3452  0.5426
39492SOL    HW223288   4.366   3.605  11.209 -0.4658 -0.3895 -0.9342
39493SOL     OW23289   0.028   6.442   2.615  0.0038 -1.3982 -0.0481
39493SOL    HW123290   0.121   6.417   2.610 -0.0450 -1.3856 -3.3521
39493SOL    HW223291  -0.005   6.430   2.526 -2.2768  1.9976  0.1381
39494SOL     OW23292   2.062   4.233   4.474 -0.0686 -0.1604  0.3043
39494SOL    HW123293   2.119   4.264   4.545  0.8210  0.6236 -0.7284
39494SOL    HW223294   2.120   4.224   4.399 -0.7952 -1.9850 -0.0910
39495SOL     OW23295   2.565   9.251  11.148 -0.2455  0.5499 -0.2768
39495SOL    HW123296   2.527   9.338  11.143 -0.7710  0.2975 -0.7514
39495SOL    HW223297   2.499   9.193  11.109 -0.3538 -0.2121  0.9997
39496SOL     OW23298   3.688   6.689   0.596 -0.2128 -0.2199  0.0157
39496SOL    HW123299   3.620   6.754   0.581 -0.0932 -0.3821 -1.4124
39496SOL    HW223300   3.757   6.713   0.534  3.1400  2.6613  4.2496
39497SOL     OW23301   5.249   4.856   1.870 -0.0778  0.0688  0.0939
39497SOL    HW123302   5.307   4.834   1.943 -0.4001 -2.7170 -0.4006
39497SOL    HW223303   5.222   4.946   1.888  2.2932  0.5485  1.7181
39498SOL     OW23304   9.846   3.382   4.880  0.3142 -0.0050 -0.3713
39498SOL    HW123305   9.879   3.409   4.966  0.5066 -1.3946  0.0107
39498SOL    HW223306   9.761   3.342   4.898  0.4994 -0.5922 -0.7878
39499SOL     OW23307  10.352   3.622   9.808 -0.1262 -0.2286 -0.3611
39499SOL    HW123308  10.359   3.571   9.728  1.2824 -0.0035 -0.4034
39499SOL    HW223309  10.441   3.652   9.826 -0.6692  1.0070  0.4564
39500SOL     OW23310   8.359   2.873   9.443  0.5479 -0.0527  0.1140
39500SOL    HW123311   8.286   2.816   9.465  0.7548  0.0004  0.9736
39500SOL    HW223312   8.423   2.859   9.513  0.9795  0.5700 -0.1424
39501SOL     OW23313   2.849   2.995   8.599  0.1364 -0.2555  0.0415
39501SOL    HW123314   2.896   3.033   8.673 -0.4380 -0.7335  0.6583
39501SOL    HW223315   2.876   3.048   8.524  0.9170  0.0725  0.5460
39502SOL     OW23316   8.030   8.974   2.747  0.0146  0.0197 -0.4998
39502SOL    HW123317   7.963   9.006   2.687 -0.5883  1.5465  0.8933
39502SOL    HW223318   8.094   8.931   2.691 -1.4623 -0.3126 -2.0089
39503SOL     OW23319   6.041   5.070   3.809  0.1113 -0.0976 -0.0303
39503SOL    HW123320   5.959   5.113   3.833  0.1849 -0.0255  0.0956
39503SOL    HW223321   6.051   5.001   3.874 -0.0320 -0.3390 -0.2635
39504SOL     OW23322   7.678   7.785   5.522 -0.5568 -0.1680 -0.7045
39504SOL    HW123323   7.603   7.782   5.462 -2.3710 -1.6141  1.4976
39504SOL    HW223324   7.649   7.737   5.599  2.5588 -0.4862  0.3887
39505SOL     OW23325  10.268   3.325   1.815 -0.0596 -0.0087 -0.1732
39505SOL    HW123326  10.262   3.383   1.739 -0.3024 -0.6649 -0.6613
39505SOL    HW223327  10.362   3.305   1.822  0.0987  0.8264  0.3047
39506SOL     OW23328   9.786   3.257   1.407 -0.5420 -0.3484  0.1763
39506SOL    HW123329   9.837   3.181   1.435  0.1545 -0.0101 -0.1497
39506SOL    HW223330   9.723   3.221   1.345 -0.3112 -0.6865  0.1306
39507SOL     OW23331   7.468   9.928   2.685  0.5407 -0.6219 -0.2894
39507SOL    HW123332   7.489  10.022   2.687  1.2467 -0.7907  0.8346
39507SOL    HW223333   7.522   9.890   2.754 -0.4202 -1.7258 -0.1239
39508SOL     OW23334   5.678   4.086  12.579  0.5238  0.7534 -0.8460
39508SOL    HW123335   5.625   4.075  12.500 -0.3538  0.3869 -0.2248
39508SOL    HW223336   5.732   4.007  12.583  0.2470  0.5623 -0.8472
39509SOL     OW23337  12.107  12.112   2.380  0.2039  0.2462  0.1160
39509SOL    HW123338  12.109  12.017   2.374  1.4615  0.1336  1.8086
39509SOL    HW223339  12.131  12.132   2.470  2.3787  2.2198 -0.7900
39510SOL     OW23340  11.808   8.149   2.057 -0.5722 -0.6770  0.3412
39510SOL    HW123341  11.792   8.183   2.145  4.2114 -0.0698  1.2350
39510SOL    HW223342  11.821   8.055   2.070  0.1407 -0.5861  0.3576
39511SOL     OW23343  10.507   6.920   6.082 -0.1192 -0.6465  0.1514
39511SOL    HW123344  10.572   6.880   6.025 -1.4669 -2.3537 -0.2414
39511SOL    HW223345  10.436   6.857   6.087 -1.4389  0.8300  1.1899
39512SOL     OW23346   6.428   7.827  10.680 -0.1586  0.0127  0.2932
39512SOL    HW123347   6.368   7.891  10.640 -2.2019 -1.1108  1.3704
39512SOL    HW223348   6.383   7.798  10.759  2.0920 -0.5516  1.4502
39513SOL     OW23349   1.190  11.686   5.427 -0.2552  0.1799  0.0402
39513SOL    HW123350   1.211  11.779   5.436 -1.7218  0.5098  0.3085
39513SOL    HW223351   1.162  11.677   5.336  0.4878 -0.1421 -0.1633
39514SOL     OW23352   6.049   8.324   1.629  0.7394 -0.5676  0.2125
39514SOL    HW123353   6.048   8.309   1.723  2.2410 -0.6091  0.2556
39514SOL    HW223354   6.139   8.352   1.610  1.1128 -2.6177 -1.4836
39515SOL     OW23355   1.040   2.653   8.543 -0.2676  0.1098  0.0453
39515SOL    HW123356   1.064   2.562   8.560 -1.1495 -0.2959 -0.7453
39515SOL    HW223357   0.961   2.647   8.488 -0.2875  1.3474 -0.0954
39516SOL     OW23358   2.911   4.207  11.627 -0.0432  0.3980 -0.3321
39516SOL    HW123359   2.943   4.134  11.574 -1.2331 -0.0859 -0.4115
39516SOL    HW223360   2.821   4.221  11.598 -0.2288  1.1071  0.5308
39517SOL     OW23361   2.357  12.467   0.399 -0.2381  0.2972 -0.2615
39517SOL    HW123362   2.402  12.383   0.402  0.3374  0.6077 -0.0138
39517SOL    HW223363   2.426  12.531   0.380 -0.9685  0.4924 -2.6016
39518SOL     OW23364   4.982   2.437   9.031  0.3748  0.2208  0.2303
39518SOL    HW123365   4.907   2.497   9.034  0.3529  0.3308 -1.5990
39518SOL    HW223366   4.944   2.351   9.050  0.0470  0.4750  0.7527
39519SOL     OW23367  11.837   0.582  11.208  0.3753 -0.5470  0.0808
39519SOL    HW123368  11.838   0.587  11.113 -0.4319 -0.5018  0.0651
39519SOL    HW223369  11.922   0.546  11.232  0.8347  0.0570 -0.6172
39520SOL     OW23370   9.671  10.919   6.357  0.2687 -0.0046  0.0032
39520SOL    HW123371   9.583  10.905   6.321  0.5237 -1.2464 -0.1748
39520SOL    HW223372   9.696  11.006   6.325 -1.2283  0.7781  0.7900
39521SOL     OW23373   4.175   2.217  10.570  0.1967  0.2713  0.1141
39521SOL    HW123374   4.127   2.135  10.583 -0.0092 -0.0494 -2.2580
39521SOL    HW223375   4.114   2.285  10.601 -0.3545 -0.3498  0.4350
39522SOL     OW23376   5.525  12.257   4.848 -0.0499 -0.0301  0.0008
39522SOL    HW123377   5.541  12.253   4.754 -0.7799 -1.8601 -0.0843
39522SOL    HW223378   5.609  12.287   4.885  0.7219 -0.7042 -1.1280
39523SOL     OW23379   9.223   5.698   9.177  0.2617  0.1759 -0.4417
39523SOL    HW123380   9.218   5.602   9.170 -1.5797  0.2149 -0.1092
39523SOL    HW223381   9.150   5.730   9.124  2.1156  1.5382 -2.3604
39524SOL     OW23382   3.266   7.476   8.579  0.3329  0.3302 -0.2505
39524SOL    HW123383   3.332   7.537   8.613  0.2715 -0.9620  2.4766
39524SOL    HW223384   3.317   7.403   8.543  0.4131  0.1867  0.1474
39525SOL     OW23385   3.155   4.985  10.737 -0.0369  0.4042  0.6908
39525SOL    HW123386   3.224   5.048  10.757 -0.7495  1.5860 -0.4220
39525SOL    HW223387   3.076   5.023  10.775 -0.6722  0.7550 -0.8928
39526SOL     OW23388  11.526  11.736   2.094 -0.8129  0.2280  0.4438
39526SOL    HW123389  11.462  11.787   2.043 -0.3863  1.1835  0.8371
39526SOL    HW223390  11.516  11.767   2.184 -1.5004 -1.3909  0.9493
39527SOL     OW23391   3.820   1.701   7.558 -0.0240  0.2891 -0.8780
39527SOL    HW123392   3.737   1.731   7.522  0.6545  1.7990 -1.2484
39527SOL    HW223393   3.833   1.753   7.637  0.7461  0.3573 -1.0394
39528SOL     OW23394   3.876  10.231   1.620  0.1541  0.4005  0.2786
39528SOL    HW123395   3.839  10.263   1.538 -2.0002  0.0456  1.0443
39528SOL    HW223396   3.899  10.140   1.603 -4.2915 -1.1012  1.0778
39529SOL     OW23397  11.608   4.299   0.637  0.5599 -0.0329 -0.8979
39529SOL    HW123398  11.621   4.205   0.635 -0.0532 -0.1338 -0.5007
39529SOL    HW223399  11.513   4.310   0.645  0.6727  0.6086 -0.3721
39530SOL     OW23400   8.049  12.203   3.504  0.3254  0.2077  0.5523
39530SOL    HW123401   8.112  12.151   3.554  1.1258  1.7416  1.2249
39530SOL    HW223402   8.096  12.226   3.423 -0.3344 -0.8132 -0.1338
39531SOL     OW23403   8.545   1.904  10.461 -0.0188 -0.7710  0.0846
39531SOL    HW123404   8.465   1.945  10.427  1.5806  1.1033 -1.6401
39531SOL    HW223405   8.593   1.875  10.383  1.7777 -0.2883  0.9584
39532SOL     OW23406   3.893   5.642   8.299 -0.4307  0.2067  0.8895
39532SOL    HW123407   3.872   5.735   8.303  0.4361  0.3922  1.1827
39532SOL    HW223408   3.975   5.633   8.347  0.7435 -0.3395 -1.0868
39533SOL     OW23409   2.854   5.499   8.503 -0.0153  0.6204  0.0678
39533SOL    HW123410   2.866   5.548   8.422  0.6271  1.3634  0.6036
39533SOL    HW223411   2.762   5.515   8.527 -0.0296  0.9094 -0.1765
39534SOL     OW23412   8.706   7.648   4.652  0.0823 -0.0712  0.4851
39534SOL    HW123413   8.756   7.728   4.636 -1.7680  1.1599  0.5788
39534SOL    HW223414   8.766   7.591   4.700  0.5913  2.3134  2.8950
39535SOL     OW23415   1.207   4.683   4.280 -0.3951  0.3015  0.0954
39535SOL    HW123416   1.172   4.739   4.211  1.5175 -0.0067 -1.2246
39535SOL    HW223417   1.270   4.738   4.327  3.3016 -1.0986 -2.6916
39536SOL     OW23418   0.902  10.812   9.567 -0.2649  0.1571 -0.1681
39536SOL    HW123419   0.933  10.899   9.590 -0.0679 -0.3838  1.8848
39536SOL    HW223420   0.954  10.786   9.492  1.7661  0.6680  0.9959
39537SOL     OW23421   5.088   3.672   0.568 -0.8525 -0.0261  0.2707
39537SOL    HW123422   5.073   3.579   0.549  1.8305 -0.2327 -1.3383
39537SOL    HW223423   5.036   3.719   0.503 -1.3293 -0.4088  0.3714
39538SOL     OW23424   0.069   0.361   8.391  0.1557  0.2843 -0.5242
39538SOL    HW123425   0.077   0.428   8.459  2.5386 -0.4197 -0.0156
39538SOL    HW223426   0.123   0.289   8.422 -2.3617 -1.9793 -1.0268
39539SOL     OW23427   4.972   1.386   8.640 -0.4454  0.4462 -0.2888
39539SOL    HW123428   5.008   1.417   8.723 -1.2761 -0.2303  0.3481
39539SOL    HW223429   5.043   1.397   8.577  0.9676 -1.0296  0.9364
39540SOL     OW23430   2.707   5.448   7.162 -0.3217  0.4383 -0.0332
39540SOL    HW123431   2.653   5.371   7.181  1.0953 -0.1148  2.1063
39540SOL    HW223432   2.647   5.522   7.168 -1.4463 -0.3629 -0.8609
39541SOL     OW23433   3.292   7.968   9.886  0.8545  0.3761  0.2349
39541SOL    HW123434   3.215   7.974   9.830  1.0447  1.1002  0.0474
39541SOL    HW223435   3.262   7.918   9.962  0.5241 -0.3752 -0.3710
39542SOL     OW23436  10.955  11.221   4.596 -0.1961  0.2229 -0.0668
39542SOL    HW123437  10.861  11.222   4.615 -0.1032  0.1604  0.4295
39542SOL    HW223438  10.964  11.272   4.516 -0.7669 -0.6675 -0.7068
39543SOL     OW23439  10.150   7.804   7.010  0.0864  0.4866 -0.5857
39543SOL    HW123440  10.201   7.801   6.929 -0.8209 -0.0341 -1.1604
39543SOL    HW223441  10.063   7.773   6.984 -0.0773 -0.1830  0.6925
39544SOL     OW23442   4.042  12.554  11.021 -0.3706 -0.0186 -0.0488
39544SOL    HW123443   3.986  12.598  10.957 -0.2669  0.3955  0.1441
39544SOL    HW223444   4.001  12.571  11.106 -1.8859 -2.5814 -0.1463
39545SOL     OW23445   8.965   2.852   3.131  0.2201 -0.9765  0.3167
39545SOL    HW123446   8.967   2.919   3.062  0.1134 -1.5951 -0.3070
39545SOL    HW223447   8.872   2.839   3.148  0.2324 -1.1406  0.2574
39546SOL     OW23448   2.096  11.360   0.643  0.5971 -0.0097 -0.4753
39546SOL    HW123449   2.117  11.285   0.588 -1.6283 -0.6751 -0.4916
39546SOL    HW223450   2.048  11.420   0.586  3.0246  1.9177 -0.7024
39547SOL     OW23451   1.570  11.076   9.288 -0.0348  0.4952  0.2502
39547SOL    HW123452   1.641  11.140   9.282  0.2540  0.2362  0.7955
39547SOL    HW223453   1.572  11.030   9.204 -0.8518  1.8014 -0.5283
39548SOL     OW23454   2.733  10.132   0.537  0.1374  0.3638  0.9388
39548SOL    HW123455   2.695  10.045   0.546 -1.6502  1.1066  0.8890
39548SOL    HW223456   2.690  10.184   0.605  0.8760  1.3316  0.6949
39549SOL     OW23457   0.015  11.103   9.828  0.0744  0.4920 -0.2154
39549SOL    HW123458   0.038  11.011   9.842  0.1026  0.6443  0.7709
39549SOL    HW223459  -0.069  11.099   9.783 -0.4705 -0.0161  0.8112
39550SOL     OW23460   1.874   1.825  10.923  0.0894 -0.0268 -0.5994
39550SOL    HW123461   1.831   1.848  11.006 -2.2518  0.2513 -1.8155
39550SOL    HW223462   1.877   1.729  10.923  0.5094 -0.0211 -0.0252
39551SOL     OW23463   3.672   7.103   1.423  0.4341 -0.3388 -0.2656
39551SOL    HW123464   3.686   7.013   1.452 -0.6986  0.1784  2.1474
39551SOL    HW223465   3.731   7.114   1.349  0.0626 -3.2778 -1.1039
39552SOL     OW23466   0.713   2.500   5.189 -0.0633  0.4231 -0.3285
39552SOL    HW123467   0.731   2.428   5.250  0.4979  0.6954 -0.1681
39552SOL    HW223468   0.620   2.490   5.167 -0.4582  0.6990  1.0770
39553SOL     OW23469  10.246   2.566   0.110  0.4584 -0.0589 -0.1954
39553SOL    HW123470  10.261   2.567   0.204  1.7646 -1.7386 -0.3407
39553SOL    HW223471  10.152   2.554   0.101  0.4274 -0.8062  0.9247
39554SOL     OW23472   9.535   9.927  10.928 -0.5168  0.2274  0.1612
39554SOL    HW123473   9.563   9.994  10.990 -1.2115  0.7188 -0.0415
39554SOL    HW223474   9.614   9.906  10.878 -0.4296  1.3825 -0.2270
39555SOL     OW23475   2.861  10.630   4.824  0.1413 -0.2495 -0.6184
39555SOL    HW123476   2.870  10.720   4.856  1.9984 -0.2391 -1.0669
39555SOL    HW223477   2.932  10.582   4.867 -2.8928 -2.4710  2.5167
39556SOL     OW23478   5.321   9.029   1.936 -0.1529  0.0187  0.3472
39556SOL    HW123479   5.370   8.995   2.011  1.1656 -0.6560 -0.7733
39556SOL    HW223480   5.361   8.987   1.860 -1.2765  0.8863 -0.7726
39557SOL     OW23481   1.934   4.713  11.102 -0.1738  0.0426  0.5428
39557SOL    HW123482   1.946   4.632  11.051  1.1333  0.6242 -0.1263
39557SOL    HW223483   1.977   4.694  11.185 -1.9607 -0.7650  1.3401
39558SOL     OW23484   9.976   9.438   7.457 -0.2293 -0.1051 -0.0840
39558SOL    HW123485   9.899   9.401   7.413  0.4864 -0.7596 -0.8184
39558SOL    HW223486  10.040   9.451   7.386 -0.1858  1.8684  0.2576
39559SOL     OW23487   9.178   4.945   1.980 -0.2458 -0.4759 -0.5273
39559SOL    HW123488   9.195   4.852   1.989  0.5626 -0.3435 -0.6053
39559SOL    HW223489   9.245   4.976   1.919  0.4608  0.4426  0.6783
39560SOL     OW23490   8.789  12.130   9.562  0.0862 -0.1534  0.5637
39560SOL    HW123491   8.696  12.130   9.585 -0.0182 -1.7219  0.2974
39560SOL    HW223492   8.832  12.164   9.640 -0.6682 -0.1796  1.0084
39561SOL     OW23493   2.773   9.711  10.928 -0.3983  0.3387 -0.0251
39561SOL    HW123494   2.743   9.800  10.948 -0.0299  0.4003  0.2846
39561SOL    HW223495   2.805   9.716  10.838 -0.8831  0.3823 -0.1994
39562SOL     OW23496   4.119   4.413   2.091  0.1447 -0.3834 -0.5357
39562SOL    HW123497   4.158   4.419   2.003 -0.6038 -2.5255 -1.0704
39562SOL    HW223498   4.193   4.393   2.148  0.7016  1.3961 -0.5687
39563SOL     OW23499   1.453   1.412   1.812 -0.0517  0.1177  0.0628
39563SOL    HW123500   1.530   1.406   1.869 -0.2827  0.0531  0.3741
39563SOL    HW223501   1.476   1.360   1.735  0.0762 -0.1999  0.3121
39564SOL     OW23502  12.035  10.859   0.528  0.1389  0.0662 -0.3105
39564SOL    HW123503  11.955  10.846   0.477  0.3593 -0.4377 -0.5378
39564SOL    HW223504  12.070  10.942   0.497 -0.0458  0.0556 -0.5514
39565SOL     OW23505   5.192   4.302  12.132 -0.1307 -0.2742  0.2449
39565SOL    HW123506   5.236   4.384  12.109 -0.1862 -0.2350  0.2785
39565SOL    HW223507   5.099   4.322  12.126 -0.1849  0.1794  1.9767
39566SOL     OW23508   9.152  11.353   0.483  0.5898 -0.0167 -0.6129
39566SOL    HW123509   9.103  11.360   0.401  1.0739  0.0005 -0.9035
39566SOL    HW223510   9.086  11.329   0.548 -0.1078  1.6560 -0.6666
39567SOL     OW23511   8.059   4.628   3.958 -0.7216 -0.6808  0.5087
39567SOL    HW123512   8.113   4.705   3.974  0.0601 -0.8532 -1.1006
39567SOL    HW223513   7.995   4.656   3.893  0.1684 -1.5957 -0.8123
39568SOL     OW23514  12.607   8.002   1.626  0.4730 -1.2162  0.2600
39568SOL    HW123515  12.599   8.097   1.612 -3.6748 -1.2558  0.9696
39568SOL    HW223516  12.662   7.994   1.704  0.6688  0.6103  0.3644
39569SOL     OW23517   0.021   1.510  11.724  0.4847 -0.3065 -0.1964
39569SOL    HW123518  -0.016   1.591  11.760 -1.7996 -1.6883  0.7871
39569SOL    HW223519   0.056   1.536  11.639 -1.9630  1.3761 -0.8033
39570SOL     OW23520   8.962  12.407   1.524 -0.2510 -0.1213 -0.3636
39570SOL    HW123521   8.948  12.376   1.614 -1.2205  2.6111  0.5651
39570SOL    HW223522   8.886  12.375   1.476 -1.1166  0.5460  0.4977
39571SOL     OW23523   4.520  11.115  10.054  0.5747  0.7520  0.0301
39571SOL    HW123524   4.534  11.037  10.108  0.2426  1.0744  0.5973
39571SOL    HW223525   4.601  11.125  10.004  1.5041  1.2721  1.5558
39572SOL     OW23526   3.505   4.825   5.520 -0.3129  0.5004  0.2465
39572SOL    HW123527   3.460   4.770   5.456 -0.1043  2.2090 -1.4579
39572SOL    HW223528   3.594   4.833   5.487 -0.0702  1.0468  0.9913
39573SOL     OW23529   2.637  11.844   8.814 -0.1757 -0.9354 -0.0316
39573SOL    HW123530   2.561  11.852   8.757 -1.9388  0.0279  2.2787
39573SOL    HW223531   2.601  11.820   8.899  2.3351 -2.4808  0.7000
39574SOL     OW23532  10.859   0.279  11.222  0.5273  0.6457 -0.1739
39574SOL    HW123533  10.814   0.284  11.137 -0.9009  4.8340  0.5734
39574SOL    HW223534  10.895   0.367  11.235  2.6272 -0.4843  2.6285
39575SOL     OW23535   0.246  10.118   8.081 -0.3853 -0.4941 -0.2847
39575SOL    HW123536   0.329  10.082   8.111  0.1037  0.3690 -0.5786
39575SOL    HW223537   0.270  10.197   8.031 -1.5212  1.4068  1.9827
39576SOL     OW23538   9.557  11.810   7.605 -0.5254 -0.2145  0.6128
39576SOL    HW123539   9.560  11.902   7.632 -0.1293 -0.3736  1.1316
39576SOL    HW223540   9.625  11.768   7.657  1.8511 -0.1541 -2.2332
39577SOL     OW23541  12.164   7.113   0.156  0.0178  0.2864  0.2129
39577SOL    HW123542  12.157   7.205   0.131 -0.1752  0.3733  0.5722
39577SOL    HW223543  12.219   7.115   0.235  1.7828 -0.1107 -0.9539
39578SOL     OW23544   5.391   3.811   8.644 -0.2155  0.2265 -0.6572
39578SOL    HW123545   5.366   3.773   8.560  1.2988  0.1110 -1.0991
39578SOL    HW223546   5.480   3.843   8.630  0.4603 -0.6799  1.1598
39579SOL     OW23547   3.614  11.823   0.775  0.3466  0.2531 -0.1170
39579SOL    HW123548   3.599  11.879   0.699  0.7617  1.2354  0.5038
39579SOL    HW223549   3.581  11.737   0.748 -1.9421  1.1809 -0.4627
39580SOL     OW23550   7.966   6.624  10.789 -0.5180 -0.5466 -0.1327
39580SOL    HW123551   8.030   6.623  10.860 -0.8707  0.7651  0.2314
39580SOL    HW223552   8.004   6.681  10.723 -0.4417 -1.3237 -0.7812
39581SOL     OW23553   7.197   9.176   2.371 -0.1692 -0.5268 -0.3710
39581SOL    HW123554   7.161   9.132   2.448  0.0131 -1.5087 -0.8359
39581SOL    HW223555   7.196   9.269   2.394  0.0755 -0.8211  0.9054
39582SOL     OW23556   7.047   7.795   4.641  0.1115 -0.8998  0.1351
39582SOL    HW123557   6.992   7.758   4.572  1.7263 -0.4209 -1.4763
39582SOL    HW223558   7.119   7.733   4.650  1.7646  0.7190 -1.1493
39583SOL     OW23559   5.019  12.416   4.272  0.2078 -0.3424  0.8631
39583SOL    HW123560   5.016  12.387   4.181  1.1776  0.3441  0.5911
39583SOL    HW223561   5.033  12.336   4.323 -1.0698 -0.8266  0.4913
39584SOL     OW23562  11.900   2.127   5.028  0.3241 -0.5229  0.4387
39584SOL    HW123563  11.952   2.169   5.098  0.4572  1.8711 -0.9717
39584SOL    HW223564  11.809   2.137   5.056  0.0588  3.9073 -1.2440
39585SOL     OW23565   4.363   7.371   2.950 -0.2801  0.7326 -0.3917
39585SOL    HW123566   4.275   7.374   2.986 -0.0519 -3.2934  0.9637
39585SOL    HW223567   4.352   7.338   2.861 -0.1448 -0.0147 -0.1357
39586SOL     OW23568   1.169   4.805   2.923  0.1339  0.0750 -0.1664
39586SOL    HW123569   1.103   4.746   2.888 -0.6186  1.6446 -1.5020
39586SOL    HW223570   1.213   4.754   2.991 -1.4129 -1.5240 -0.3046
39587SOL     OW23571  11.873   6.193   2.826  0.0637  0.8462 -0.2629
39587SOL    HW123572  11.798   6.249   2.844  0.2645  0.6299  1.3591
39587SOL    HW223573  11.836   6.118   2.780 -0.7139  0.7838  0.4451
39588SOL     OW23574   5.491   1.794   5.733 -0.0378 -0.1851 -0.0447
39588SOL    HW123575   5.432   1.808   5.807  0.8868 -1.4067  0.9773
39588SOL    HW223576   5.576   1.774   5.773  1.1724  1.7254 -1.4643
39589SOL     OW23577   2.967   7.333   6.522 -0.0813  0.0334  0.0637
39589SOL    HW123578   2.880   7.367   6.502 -0.7514 -0.6432  1.6932
39589SOL    HW223579   2.965   7.242   6.491 -1.2755 -1.1631  3.2902
39590SOL     OW23580   0.559  12.076   7.426 -0.0749 -0.4460 -0.1602
39590SOL    HW123581   0.654  12.087   7.420  0.0583 -0.8884  0.9445
39590SOL    HW223582   0.524  12.164   7.413  0.6782  0.3386  2.6533
39591SOL     OW23583   1.064   2.022   6.557  0.3302 -0.2426  0.0207
39591SOL    HW123584   1.138   1.963   6.545  0.4942 -0.6759  2.6380
39591SOL    HW223585   1.068   2.048   6.649 -1.9982  0.7822 -0.0909
39592SOL     OW23586   0.118   8.981   3.474 -0.2883 -0.1227 -0.4219
39592SOL    HW123587   0.166   9.039   3.533 -0.8334  0.5114 -0.5875
39592SOL    HW223588   0.143   8.893   3.501 -0.3531  0.1629  0.5922
39593SOL     OW23589   6.175   7.110   4.053 -0.2856 -0.1602 -0.2508
39593SOL    HW123590   6.171   7.017   4.032  0.3774 -0.6360  1.4898
39593SOL    HW223591   6.146   7.155   3.974  1.4669 -1.7502 -1.8895
39594SOL     OW23592  10.559   0.024   4.085 -0.5189 -0.0401 -0.1210
39594SOL    HW123593  10.613   0.079   4.141 -1.5971 -0.1190  1.0458
39594SOL    HW223594  10.539   0.079   4.009  1.5205 -0.1731 -0.8144
39595SOL     OW23595  10.585   5.660  11.316  0.0492  0.0708  0.1753
39595SOL    HW123596  10.652   5.660  11.247 -0.5177  1.7844 -0.4352
39595SOL    HW223597  10.635   5.661  11.398  0.7280 -1.6038 -0.1750
39596SOL     OW23598  10.915  10.942   2.291 -0.0872 -0.2151  0.1294
39596SOL    HW123599  10.820  10.932   2.294 -0.1067  0.0985  0.5997
39596SOL    HW223600  10.939  10.916   2.202 -0.8924  2.1860 -0.8604
39597SOL     OW23601   1.536   1.155   0.627  0.3658 -0.5289 -0.1918
39597SOL    HW123602   1.613   1.131   0.576  0.5799  1.1556 -0.7132
39597SOL    HW223603   1.538   1.251   0.630 -2.0099 -0.4023 -0.7107
39598SOL     OW23604  10.430   9.583  10.087 -0.2864 -1.0714  0.2044
39598SOL    HW123605  10.441   9.553  10.177 -0.2041  1.8766  1.2881
39598SOL    HW223606  10.479   9.665  10.083 -0.7119 -0.8534 -2.4039
39599SOL     OW23607   2.812   4.621   1.122  0.2946  0.3518  0.3546
39599SOL    HW123608   2.897   4.647   1.086  0.5813  1.0627  1.5006
39599SOL    HW223609   2.786   4.546   1.068  2.6572 -1.2994  1.3118
39600SOL     OW23610   2.853  11.765   8.418  0.0823  0.2208 -0.2998
39600SOL    HW123611   2.819  11.837   8.470  0.8717  0.4644 -0.0940
39600SOL    HW223612   2.900  11.710   8.481 -0.4358 -0.4229 -0.4720
39601SOL     OW23613   3.417   5.990   3.343 -0.4490 -0.2091 -0.4386
39601SOL    HW123614   3.384   5.966   3.430 -2.5765  0.0354 -1.1071
39601SOL    HW223615   3.435   5.906   3.301 -0.9631 -0.3960 -0.2967
39602SOL     OW23616   6.018   3.214   5.769  0.0519 -0.0369 -0.1819
39602SOL    HW123617   5.958   3.288   5.774  0.3620  0.2656 -0.7790
39602SOL    HW223618   6.060   3.211   5.855  0.2002  0.6251 -0.2232
39603SOL     OW23619   6.230  11.035   4.717 -0.1996 -0.0672  0.4425
39603SOL    HW123620   6.244  11.052   4.810  0.5657 -0.2288  0.3626
39603SOL    HW223621   6.234  10.939   4.710 -1.5375 -0.1446  0.4342
39604SOL     OW23622   4.825   2.561  10.435 -0.2431 -0.6017  0.2580
39604SOL    HW123623   4.846   2.507  10.358 -2.6837 -1.7667  0.2816
39604SOL    HW223624   4.806   2.497  10.504  1.6113  0.4238  1.8127
39605SOL     OW23625  10.411   6.118   7.693 -0.4181  0.1704 -0.0728
39605SOL    HW123626  10.393   6.211   7.678  2.2480  0.4850 -2.0882
39605SOL    HW223627  10.417   6.109   7.788  0.8845  2.4431  0.1220
39606SOL     OW23628   0.193   3.589  11.791  0.5378  0.1734  0.6562
39606SOL    HW123629   0.147   3.520  11.839 -1.4713  0.6102 -0.5365
39606SOL    HW223630   0.186   3.564  11.699  1.5571  0.9650  0.3409
39607SOL     OW23631   8.726   2.211   4.035 -0.0702  0.4024  0.0420
39607SOL    HW123632   8.812   2.240   4.002  0.3087 -1.6474 -0.8882
39607SOL    HW223633   8.744   2.130   4.082 -1.1707  1.3191  2.1978
39608SOL     OW23634   1.133   2.606  11.452 -0.0405  0.6824 -0.4281
39608SOL    HW123635   1.084   2.565  11.523  0.5492  1.5117  0.4893
39608SOL    HW223636   1.144   2.697  11.480 -0.1526  1.1314 -1.7834
39609SOL     OW23637   7.542   7.137  12.031 -0.5532  0.0304  0.1059
39609SOL    HW123638   7.562   7.082  12.106 -0.1250  1.5133  1.1232
39609SOL    HW223639   7.579   7.223  12.054 -2.0053  0.9917 -1.0130
39610SOL     OW23640   1.512   2.129  10.499 -0.7250  0.0605 -0.3304
39610SOL    HW123641   1.547   2.062  10.440  0.7674  0.3548  0.1688
39610SOL    HW223642   1.560   2.116  10.581 -1.1700  1.0786  0.1110
39611SOL     OW23643   2.144   7.912   1.411 -0.5154 -0.6412  0.4231
39611SOL    HW123644   2.125   7.820   1.432 -1.8875 -0.4637  0.0891
39611SOL    HW223645   2.057   7.951   1.398  0.1057  0.3359 -0.9687
39612SOL     OW23646   6.234   1.351  11.274  0.2063  0.3448  0.3450
39612SOL    HW123647   6.249   1.400  11.354  0.3728  2.1174 -0.7073
39612SOL    HW223648   6.233   1.260  11.301 -2.2885  0.9736  2.7662
39613SOL     OW23649   8.447   9.594   6.921  0.4259  0.3805 -0.4958
39613SOL    HW123650   8.495   9.515   6.945 -0.2102  0.0452 -0.3053
39613SOL    HW223651   8.386   9.565   6.853 -0.3149  0.5506  0.0899
39614SOL     OW23652  12.080   5.554   3.544 -0.5507  0.0187  0.0626
39614SOL    HW123653  12.153   5.494   3.557 -0.6715 -0.0224  0.5490
39614SOL    HW223654  12.069   5.598   3.628 -0.1157  1.1166 -0.4319
39615SOL     OW23655   7.661   2.886   8.355 -0.6489 -0.2808  0.2103
39615SOL    HW123656   7.579   2.888   8.305 -0.9119 -0.6251  0.6189
39615SOL    HW223657   7.635   2.858   8.443 -0.8579  4.2757  1.8820
39616SOL     OW23658  12.511   8.561   8.372 -0.3645  0.8973  0.2312
39616SOL    HW123659  12.544   8.621   8.439 -0.2434  2.3065 -1.0311
39616SOL    HW223660  12.478   8.618   8.303  1.3649 -0.4769 -1.8392
39617SOL     OW23661   2.299   9.768   0.019  0.0485  0.4503  0.1636
39617SOL    HW123662   2.241   9.830  -0.026 -0.3602 -0.7013 -0.9668
39617SOL    HW223663   2.264   9.682  -0.003  2.1220 -0.2940 -0.4875
39618SOL     OW23664   4.200   2.713   4.148 -0.2501 -0.5590  0.3032
39618SOL    HW123665   4.270   2.763   4.107 -2.1452  1.4445 -0.6957
39618SOL    HW223666   4.142   2.689   4.075 -1.6320 -0.4155  1.3042
39619SOL     OW23667   5.268  10.347  10.836 -0.9240  0.0259 -0.3138
39619SOL    HW123668   5.222  10.271  10.802 -0.7221 -0.3134  0.1638
39619SOL    HW223669   5.347  10.312  10.878 -0.6834  0.5181 -0.3406
39620SOL     OW23670  11.597   8.336   2.844  0.3851  0.2343 -0.3846
39620SOL    HW123671  11.648   8.313   2.766 -0.1647 -0.4112 -0.5656
39620SOL    HW223672  11.506   8.336   2.814  0.2352  0.9508  0.0357
39621SOL     OW23673   8.506   6.771   3.583  0.1496 -0.1306  0.3836
39621SOL    HW123674   8.499   6.815   3.668  2.0543  0.3417  0.3370
39621SOL    HW223675   8.552   6.834   3.527  0.7824 -1.2507 -0.3878
39622SOL     OW23676   0.769   3.565   6.827  0.5024 -0.0495 -0.0162
39622SOL    HW123677   0.752   3.566   6.921  0.4172  3.9046  0.0984
39622SOL    HW223678   0.859   3.597   6.819  0.5782 -0.5259 -1.2783
39623SOL     OW23679   5.673   0.886   4.703 -0.0439  0.3246 -0.9546
39623SOL    HW123680   5.766   0.866   4.707  0.1353  1.3114  0.7605
39623SOL    HW223681   5.669   0.980   4.692 -0.8355  0.3235 -0.7494
39624SOL     OW23682   6.240  11.957  11.377  0.0380 -0.3742 -0.6770
39624SOL    HW123683   6.336  11.958  11.374  0.0807  0.6268  0.3794
39624SOL    HW223684   6.217  12.034  11.429 -1.2848 -1.3617  0.2745
39625SOL     OW23685  10.737   4.333   0.498  0.1373 -0.0650 -0.1557
39625SOL    HW123686  10.733   4.238   0.493  2.0726 -0.3437  1.8065
39625SOL    HW223687  10.736   4.352   0.592  0.5846  1.7841 -0.4752
39626SOL     OW23688   4.679   5.086   9.038  0.8874 -0.0029  0.2164
39626SOL    HW123689   4.644   5.161   8.991  0.1261  0.2540  1.1600
39626SOL    HW223690   4.672   5.110   9.130  1.8526 -0.7074  0.4943
39627SOL     OW23691   5.384  10.732   2.427 -0.0697  0.7631 -0.8632
39627SOL    HW123692   5.356  10.667   2.492  2.1633 -0.6809 -1.2161
39627SOL    HW223693   5.305  10.752   2.377 -1.1218 -0.6355  0.1448
39628SOL     OW23694   6.009   5.563   6.214  0.5873  0.6756  0.0212
39628SOL    HW123695   5.919   5.551   6.184  0.2950  0.3256  1.0233
39628SOL    HW223696   6.052   5.479   6.194  0.6292  0.7462 -0.1977
39629SOL     OW23697  11.761  10.195   7.069  0.1674 -0.2814  0.3268
39629SOL    HW123698  11.739  10.283   7.038 -0.1372 -0.4640  0.0145
39629SOL    HW223699  11.680  10.146   7.060  0.4426 -0.7053  0.0979
39630SOL     OW23700   1.194   3.421   9.772  0.0510  0.4668  0.1116
39630SOL    HW123701   1.189   3.479   9.848 -0.7650 -0.0010  0.4233
39630SOL    HW223702   1.267   3.362   9.792  0.7276  1.2210 -0.0984
39631SOL     OW23703   6.608   8.565   9.482  0.6965 -0.0011 -0.6780
39631SOL    HW123704   6.527   8.576   9.531  1.2253  0.7930  0.0583
39631SOL    HW223705   6.671   8.532   9.547  0.9924 -0.5223 -1.2166
39632SOL     OW23706  12.408  12.258   7.739  0.0335 -0.2616  0.1611
39632SOL    HW123707  12.350  12.332   7.719 -0.8937 -0.6257  1.3473
39632SOL    HW223708  12.492  12.282   7.700 -0.9053  0.2676 -1.6453
39633SOL     OW23709   9.126   9.164   5.478  0.2992 -0.2550 -0.4713
39633SOL    HW123710   9.123   9.257   5.501  3.8074  0.1627 -1.2440
39633SOL    HW223711   9.106   9.161   5.384  0.7727 -0.2071 -0.5743
39634SOL     OW23712   2.218   8.355   2.165  0.0076  0.3875  1.2454
39634SOL    HW123713   2.269   8.275   2.177  1.3994  1.5456  4.0357
39634SOL    HW223714   2.136   8.339   2.210 -1.0816 -0.5206 -0.9406
39635SOL     OW23715   2.228   8.031   9.788 -0.1489 -0.1097 -0.1241
39635SOL    HW123716   2.182   8.068   9.712 -0.8436 -0.8430 -0.0712
39635SOL    HW223717   2.200   7.940   9.791 -1.5672  0.3092  2.0409
39636SOL     OW23718  12.308   3.420  10.269  0.3372 -0.3272 -0.4560
39636SOL    HW123719  12.305   3.473  10.349  0.8942 -1.0047  0.0354
39636SOL    HW223720  12.394   3.438  10.231  0.7322 -1.2234 -0.0239
39637SOL     OW23721   5.846   3.413  11.801 -0.3493  0.4973  0.2224
39637SOL    HW123722   5.758   3.375  11.793 -0.4217  0.5738  0.6369
39637SOL    HW223723   5.900   3.362  11.741 -0.0802 -1.3599  1.9620
39638SOL     OW23724  10.317   5.587  11.514 -0.7012 -0.2649  0.4054
39638SOL    HW123725  10.388   5.567  11.453  1.3408 -0.7018  2.7597
39638SOL    HW223726  10.286   5.501  11.544 -0.8430 -0.0670  0.8406
39639SOL     OW23727  10.548   8.722   6.030 -1.0216  0.2272 -0.5620
39639SOL    HW123728  10.494   8.670   5.970 -3.8306  2.9752 -0.6689
39639SOL    HW223729  10.622   8.752   5.977 -1.6444 -0.1704 -1.6715
39640SOL     OW23730  10.751   4.392   4.757  0.6299  0.1330 -0.5479
39640SOL    HW123731  10.782   4.310   4.796  1.2143  0.4806 -0.2706
39640SOL    HW223732  10.827   4.426   4.710  0.1210  0.0377 -1.4865
39641SOL     OW23733  12.247   6.958   5.065  0.0110  0.5819 -0.3621
39641SOL    HW123734  12.327   6.951   5.014  0.8607  1.5017  0.7792
39641SOL    HW223735  12.183   6.998   5.006  1.2171  2.4285 -0.4956
39642SOL     OW23736  11.752  12.445   8.125  0.5435  0.1537 -0.2190
39642SOL    HW123737  11.682  12.408   8.072  0.0117  1.9577 -0.8499
39642SOL    HW223738  11.817  12.477   8.062 -0.0921  2.3147  0.1587
39643SOL     OW23739   0.939   7.912   4.956 -0.1103  0.3003 -0.1122
39643SOL    HW123740   0.979   7.988   4.997 -0.1087 -0.0469  0.5357
39643SOL    HW223741   0.978   7.837   5.001 -0.3196 -0.0780 -0.5544
39644SOL     OW23742  10.317   9.552   7.979  0.3404 -0.8040  0.8672
39644SOL    HW123743  10.225   9.579   7.978  0.4408 -0.4566  0.2838
39644SOL    HW223744  10.352   9.586   7.897  1.5579  1.0600  2.0713
39645SOL     OW23745  10.457  10.590   5.353  0.7850 -0.6445  0.6994
39645SOL    HW123746  10.451  10.681   5.326  1.6197 -0.6942  0.3054
39645SOL    HW223747  10.551  10.570   5.352  0.5879 -1.6604  0.2117
39646SOL     OW23748   7.546   6.743  11.968  0.5757 -0.1121  0.9386
39646SOL    HW123749   7.615   6.799  11.934 -0.2413 -0.0161 -0.6460
39646SOL    HW223750   7.526   6.683  11.896  0.0534 -1.1315  1.8955
39647SOL     OW23751   9.585  12.357   8.937 -0.1042  0.1743 -0.8520
39647SOL    HW123752   9.623  12.378   9.022 -1.1833  1.1357 -0.5796
39647SOL    HW223753   9.573  12.442   8.895 -1.4171 -0.1432 -1.1447
39648SOL     OW23754   0.427   8.615   5.229 -0.0216 -0.0844 -0.0828
39648SOL    HW123755   0.468   8.557   5.294  0.4315 -0.7042 -0.9073
39648SOL    HW223756   0.477   8.600   5.149  0.6045  2.0053 -0.1477
39649SOL     OW23757   3.438   2.511  10.279 -0.3742 -0.0389 -0.3194
39649SOL    HW123758   3.416   2.601  10.254  0.8431 -0.1607 -1.9876
39649SOL    HW223759   3.361   2.460  10.254 -0.2139  0.2390 -1.4321
39650SOL     OW23760   0.633   6.519   3.121 -0.0763  0.4404 -0.6261
39650SOL    HW123761   0.576   6.567   3.060 -0.0153 -0.2101 -1.2054
39650SOL    HW223762   0.586   6.522   3.204  0.3901  2.3604 -0.3808
39651SOL     OW23763   8.613   1.485  10.752  0.1729 -0.5163  0.7426
39651SOL    HW123764   8.636   1.516  10.840 -1.9885  1.5024  0.6723
39651SOL    HW223765   8.636   1.557  10.694  0.2195 -1.2553 -0.1925
39652SOL     OW23766   8.959   7.406   9.602 -1.0156  0.3218  0.4531
39652SOL    HW123767   8.999   7.320   9.614 -0.6004  0.2654 -1.1050
39652SOL    HW223768   8.916   7.425   9.685  1.1125 -0.2117  1.7415
39653SOL     OW23769   3.345   8.716   1.675  0.4971  0.7990 -0.0243
39653SOL    HW123770   3.361   8.809   1.665  1.3716  0.9039  1.8155
39653SOL    HW223771   3.432   8.677   1.686  0.1636 -0.2793 -0.9424
39654SOL     OW23772   4.717   5.064   1.346  0.3988  0.2680 -0.0060
39654SOL    HW123773   4.808   5.058   1.376  0.3534 -2.9779 -0.1890
39654SOL    HW223774   4.667   5.088   1.424  1.2013  0.1715  0.5456
39655SOL     OW23775  10.744   7.313   6.850 -0.2884 -0.2456  0.5752
39655SOL    HW123776  10.791   7.253   6.792  0.5668 -0.1745  1.1759
39655SOL    HW223777  10.684   7.360   6.792  1.9127  1.2430 -0.6197
39656SOL     OW23778  10.551   1.206   6.270  0.4810 -0.1229  0.1313
39656SOL    HW123779  10.635   1.219   6.313 -0.4147  2.6774  1.2157
39656SOL    HW223780  10.485   1.233   6.334 -1.4443 -3.4480 -0.1874
39657SOL     OW23781   8.646   7.319   2.408  0.4550  0.6370 -0.3466
39657SOL    HW123782   8.551   7.316   2.395  0.5127  2.1276 -1.2667
39657SOL    HW223783   8.682   7.278   2.329  0.5966  0.3022 -0.1118
39658SOL     OW23784   0.024   7.230   8.003  0.2016  0.9858 -0.1173
39658SOL    HW123785   0.083   7.262   7.935 -0.3209 -0.0915 -1.1156
39658SOL    HW223786   0.036   7.135   8.001  0.9499  0.9774  2.0410
39659SOL     OW23787   4.152   3.930   7.749  0.0809 -0.2056  0.1503
39659SOL    HW123788   4.113   4.016   7.731 -0.4422  0.1119  2.5098
39659SOL    HW223789   4.084   3.867   7.723 -0.0787  0.1446 -0.2937
39660SOL     OW23790   7.890   9.854   9.294 -0.0605  0.1846 -0.6657
39660SOL    HW123791   7.927   9.920   9.353  1.3314 -0.5241 -0.7087
39660SOL    HW223792   7.852   9.788   9.351  0.4250 -0.0197 -0.5771
39661SOL     OW23793   1.088   5.563   6.260 -0.3938  0.7047  0.2384
39661SOL    HW123794   1.003   5.562   6.215 -0.2716  0.6308  0.0062
39661SOL    HW223795   1.150   5.586   6.191 -0.1508  0.1812  0.2804
39662SOL     OW23796   0.996  10.965   7.649  0.6189 -0.3702 -0.1387
39662SOL    HW123797   0.914  11.013   7.649  1.4909  1.2958 -2.2218
39662SOL    HW223798   1.058  11.024   7.692  0.7360 -1.7391  1.7130
39663SOL     OW23799   6.394   7.168   4.218 -0.1467  0.3558  0.6287
39663SOL    HW123800   6.350   7.184   4.302 -0.5487  1.0173  0.2932
39663SOL    HW223801   6.326   7.131   4.162 -0.5082  2.1366 -0.1484
39664SOL     OW23802   3.211   9.903   2.596 -0.0236  0.0523  0.4098
39664SOL    HW123803   3.283   9.959   2.566 -0.2897  0.1625 -0.0475
39664SOL    HW223804   3.146   9.909   2.526 -1.2364  1.3465  1.5805
39665SOL     OW23805   6.300   0.087  12.458 -0.0406  0.4232 -0.2727
39665SOL    HW123806   6.223   0.141  12.473 -0.9599 -0.5943 -1.1583
39665SOL    HW223807   6.331   0.113  12.371 -0.6255 -0.5895 -0.8057
39666SOL     OW23808   7.203  12.234   8.606 -0.1410 -0.3512 -0.0737
39666SOL    HW123809   7.133  12.231   8.670  0.1300  2.0112  0.4363
39666SOL    HW223810   7.282  12.250   8.658  0.1013  1.4468 -0.9301
39667SOL     OW23811  10.840   4.623   7.859 -0.5656 -0.1836  0.1332
39667SOL    HW123812  10.805   4.542   7.821  1.4745 -0.7755 -0.5722
39667SOL    HW223813  10.820   4.615   7.953 -0.2430 -1.6154  0.1125
39668SOL     OW23814   1.672   0.669   7.518 -0.4478  0.0114 -0.6173
39668SOL    HW123815   1.726   0.672   7.598 -0.2370 -0.0033 -0.7587
39668SOL    HW223816   1.722   0.719   7.454 -0.5146 -0.1653 -0.8054
39669SOL     OW23817  11.730   2.010   1.173  0.0966  0.7175 -0.2457
39669SOL    HW123818  11.788   1.938   1.197 -1.3653 -0.2692  0.4948
39669SOL    HW223819  11.684   1.978   1.095 -2.6494 -0.4817  1.6916
39670SOL     OW23820   4.173   3.741   8.403  0.4330 -0.6034  0.3412
39670SOL    HW123821   4.129   3.760   8.320  0.0831  1.7692  0.9692
39670SOL    HW223822   4.103   3.711   8.461 -0.2530  1.9155  0.9578
39671SOL     OW23823   8.348  11.461  11.424  0.2297  0.5603  0.4300
39671SOL    HW123824   8.420  11.436  11.482  1.1628 -0.5549 -1.1488
39671SOL    HW223825   8.337  11.387  11.365 -0.0454  2.0140 -1.4459
39672SOL     OW23826   6.809   5.310   5.992 -0.2712 -0.0106  0.6246
39672SOL    HW123827   6.879   5.270   6.043  0.5680  0.4640 -0.1287
39672SOL    HW223828   6.730   5.263   6.019  0.6367 -2.0673 -0.0830
39673SOL     OW23829   6.739  10.835   8.831 -0.7491 -0.0545 -0.1481
39673SOL    HW123830   6.803  10.854   8.762 -0.7604  1.6210  0.2498
39673SOL    HW223831   6.659  10.814   8.785 -0.4505 -0.0971 -0.6549
39674SOL     OW23832   0.532   4.946   6.146  0.6552  0.4669  0.3534
39674SOL    HW123833   0.537   4.881   6.076  2.3180  0.4544  0.4364
39674SOL    HW223834   0.593   4.915   6.213 -2.0503 -0.3828  2.6236
39675SOL     OW23835  11.187   9.595   6.541  0.2476  0.1738 -0.3945
39675SOL    HW123836  11.188   9.663   6.609 -0.2182  1.1035 -1.2900
39675SOL    HW223837  11.179   9.643   6.459  2.2885 -0.8326 -1.2632
39676SOL     OW23838   7.080  10.396   5.876  0.0388  0.1313  0.2754
39676SOL    HW123839   7.031  10.393   5.794 -0.3037  1.0487  0.4329
39676SOL    HW223840   7.129  10.478   5.873 -2.6503  1.9964  2.4407
39677SOL     OW23841  11.988   6.739   0.079  0.2320 -0.3272 -0.0003
39677SOL    HW123842  11.927   6.793   0.131 -0.0275  0.8739 -1.4763
39677SOL    HW223843  12.022   6.799   0.013 -1.2274 -2.2880 -2.7240
39678SOL     OW23844  11.690   0.741   2.329  0.3228  0.4446  0.4887
39678SOL    HW123845  11.763   0.788   2.290 -1.3310  3.1691  0.4369
39678SOL    HW223846  11.612   0.778   2.288 -1.1613 -2.7838  0.0553
39679SOL     OW23847   4.274   5.456  11.433  0.5672 -0.1033  0.3976
39679SOL    HW123848   4.366   5.441  11.457  0.5989 -1.6098 -0.5068
39679SOL    HW223849   4.269   5.431  11.341 -0.5712  0.8440  0.1793
39680SOL     OW23850   4.936  10.683   6.623  0.2921 -0.5812 -0.7572
39680SOL    HW123851   5.011  10.706   6.679  1.3650  1.4564 -2.8848
39680SOL    HW223852   4.957  10.595   6.590  0.3581 -1.1855  0.8036
39681SOL     OW23853   7.476   4.760   8.002  0.3325 -0.3849 -0.2886
39681SOL    HW123854   7.472   4.670   8.034  0.8645 -0.1734  0.4021
39681SOL    HW223855   7.409   4.807   8.052  0.0386 -0.3984 -0.6656
39682SOL     OW23856   3.599   8.910  10.147 -0.4135 -0.4096 -0.4697
39682SOL    HW123857   3.582   8.817  10.161 -0.0837 -0.3313  0.5559
39682SOL    HW223858   3.685   8.925  10.185 -1.5468  0.8190  1.8714
39683SOL     OW23859  11.458   8.995  11.338  0.3937  0.0033  0.2186
39683SOL    HW123860  11.406   8.916  11.326 -1.3542  0.6776  2.4782
39683SOL    HW223861  11.538   8.965  11.383  1.6809 -0.9214 -2.4978
39684SOL     OW23862   1.692   5.808   4.246  0.4722  0.2763 -0.4538
39684SOL    HW123863   1.724   5.881   4.299  0.4481 -0.5614  0.7389
39684SOL    HW223864   1.766   5.785   4.190  1.1380 -0.0006  0.5093
39685SOL     OW23865  10.961   6.720   7.716 -0.4055  0.5463 -0.0286
39685SOL    HW123866  10.943   6.693   7.626  1.3127  0.5615 -0.4027
39685SOL    HW223867  11.035   6.667   7.744 -0.0029  1.5366  0.8782
39686SOL     OW23868   5.734   9.357   8.369 -0.3623  0.2130 -0.1143
39686SOL    HW123869   5.675   9.367   8.443 -2.7923 -0.7407 -1.7730
39686SOL    HW223870   5.678   9.370   8.292  1.7996  0.1339 -1.8077
39687SOL     OW23871   1.730   4.845   4.669 -0.2021  0.0002 -0.0169
39687SOL    HW123872   1.654   4.900   4.685  1.1073  2.0794 -0.6755
39687SOL    HW223873   1.723   4.820   4.577 -0.8970 -1.1571  0.3298
39688SOL     OW23874   0.424   1.539   8.248  0.1698 -0.0463 -0.2148
39688SOL    HW123875   0.411   1.544   8.343  0.1444  0.7991 -0.2577
39688SOL    HW223876   0.474   1.617   8.226  0.7740 -0.5936 -0.8097
39689SOL     OW23877   9.902   9.264  11.059 -0.1738 -0.2949 -0.1081
39689SOL    HW123878   9.948   9.348  11.065 -0.5038 -0.1442  0.3273
39689SOL    HW223879   9.812   9.283  11.083 -0.3014 -0.7378 -0.2124
39690SOL     OW23880   4.514  10.124   9.054 -0.0221 -0.5647 -0.3092
39690SOL    HW123881   4.454  10.060   9.015 -1.1413 -0.2929  0.8968
39690SOL    HW223882   4.469  10.208   9.047  0.5073 -0.2440  0.0021
39691SOL     OW23883  11.518   1.263   6.397  0.1983  0.0208 -0.0474
39691SOL    HW123884  11.471   1.283   6.316 -0.7265  0.2352  0.5272
39691SOL    HW223885  11.598   1.315   6.391 -0.2081  0.6202 -0.4988
39692SOL     OW23886   6.601   8.430  12.555 -0.0106 -0.3415 -0.2676
39692SOL    HW123887   6.663   8.487  12.601 -0.7299  1.5469 -1.5100
39692SOL    HW223888   6.568   8.371  12.622  1.2539  0.2871  0.9519
39693SOL     OW23889   7.588   7.952  11.561 -0.0783 -0.3582  0.0750
39693SOL    HW123890   7.514   7.955  11.500 -0.5246  1.8690  0.6584
39693SOL    HW223891   7.634   8.034  11.548  2.1652 -1.5502 -0.0323
39694SOL     OW23892   2.492   0.722  10.699 -0.2579 -0.6055 -0.4977
39694SOL    HW123893   2.398   0.723  10.680 -0.4854  0.8634  0.5424
39694SOL    HW223894   2.506   0.640  10.746 -1.2941 -0.2108  0.5419
39695SOL     OW23895   9.383   7.871   8.007  0.4232  0.2384  0.0630
39695SOL    HW123896   9.453   7.812   7.979  0.7988  1.1030 -0.8955
39695SOL    HW223897   9.311   7.814   8.033  1.7607 -0.7112  1.8782
39696SOL     OW23898   4.345   2.059   2.421  0.0368  0.2438 -0.3436
39696SOL    HW123899   4.410   1.994   2.398  1.1789  1.7037 -1.4133
39696SOL    HW223900   4.310   2.030   2.505  0.8735 -1.4362 -0.5479
39697SOL     OW23901  11.963   3.831   8.266  0.0781  0.5040  0.1016
39697SOL    HW123902  11.918   3.809   8.184 -1.2728 -0.6345  1.1015
39697SOL    HW223903  11.939   3.761   8.326  0.3008  1.7951  1.7629
39698SOL     OW23904  11.075  10.986   2.514 -0.0300  0.7965 -0.4246
39698SOL    HW123905  11.136  10.913   2.519 -0.0984  0.7996  3.1452
39698SOL    HW223906  11.014  10.962   2.445  0.9185 -1.7405 -0.4782
39699SOL     OW23907   4.156   8.185   0.158 -0.2407  0.2123  0.8259
39699SOL    HW123908   4.136   8.094   0.181  0.1929  0.0641  0.6150
39699SOL    HW223909   4.218   8.213   0.225  0.4114  0.0288  0.3109
39700SOL     OW23910   4.156   0.331   9.435  0.3646 -0.7138  0.8961
39700SOL    HW123911   4.149   0.328   9.531 -0.3048 -0.2884  0.8656
39700SOL    HW223912   4.218   0.401   9.418  1.6899 -1.7976  1.0485
39701SOL     OW23913   7.889   9.718   1.625  0.0750 -0.0778 -0.7715
39701SOL    HW123914   7.959   9.673   1.673 -0.4955  0.1363  0.2869
39701SOL    HW223915   7.876   9.800   1.672 -0.4432  0.1816 -1.3543
39702SOL     OW23916   2.368   0.527   6.430  0.0161  0.1703 -0.5159
39702SOL    HW123917   2.275   0.522   6.453  0.1963  1.5300  0.6141
39702SOL    HW223918   2.411   0.556   6.510  0.9999  2.8426 -1.9121
39703SOL     OW23919   8.258  11.243   8.423 -0.1933  0.6326 -0.3696
39703SOL    HW123920   8.241  11.302   8.350 -0.8583  0.6372 -0.2170
39703SOL    HW223921   8.187  11.179   8.419 -0.3757  0.7797  0.4152
39704SOL     OW23922  12.105   2.302   9.627 -0.0141  0.4732  0.3107
39704SOL    HW123923  12.163   2.297   9.552  1.8312  0.3189  1.6784
39704SOL    HW223924  12.034   2.241   9.608  1.1086 -0.5501 -0.7264
39705SOL     OW23925   1.556   7.253   6.635 -0.2239  0.6854  0.6304
39705SOL    HW123926   1.487   7.275   6.573 -0.5872  0.8486  1.0860
39705SOL    HW223927   1.548   7.158   6.646  0.8583  0.3920 -0.7569
39706SOL     OW23928   1.180  11.811   0.300 -0.1607 -0.3631  0.0772
39706SOL    HW123929   1.265  11.784   0.264 -0.2108 -2.3239  1.3097
39706SOL    HW223930   1.164  11.750   0.372 -3.5314 -1.3228 -1.3144
39707SOL     OW23931   1.895   0.936   0.875  0.2391  0.3062  0.3911
39707SOL    HW123932   1.936   0.915   0.959 -1.7736 -0.3887  1.2737
39707SOL    HW223933   1.847   1.017   0.891 -0.2957  0.0765 -0.0126
39708SOL     OW23934   6.125   8.382   3.184 -0.5879  0.7895  0.4244
39708SOL    HW123935   6.093   8.450   3.244 -0.6379  0.4776  0.7549
39708SOL    HW223936   6.062   8.381   3.112 -1.9296 -0.5054  1.5507
39709SOL     OW23937   2.483   4.791   9.912 -0.4326 -0.1209 -0.1004
39709SOL    HW123938   2.517   4.717   9.962  1.3037  1.6516  1.4762
39709SOL    HW223939   2.400   4.813   9.954 -0.0673 -0.0305  0.5737
39710SOL     OW23940   0.883   7.097   0.113 -1.2825 -0.6370  0.0709
39710SOL    HW123941   0.787   7.095   0.113 -1.3875  0.8694  2.0731
39710SOL    HW223942   0.909   7.025   0.170 -1.2837 -0.3269  0.4669
39711SOL     OW23943   3.334   4.014   4.851 -0.1192 -0.2573 -0.7679
39711SOL    HW123944   3.374   4.099   4.868 -1.5486  0.4298 -0.7003
39711SOL    HW223945   3.403   3.951   4.871  0.4460  0.8100  0.9047
39712SOL     OW23946   7.587   9.681   6.498  0.0648 -0.4188 -0.1857
39712SOL    HW123947   7.521   9.705   6.563  0.5148 -1.5350  0.7091
39712SOL    HW223948   7.664   9.657   6.549  1.1714  0.7752 -1.2078
39713SOL     OW23949  10.260   1.002   1.054 -0.4123 -0.1311 -0.8141
39713SOL    HW123950  10.176   1.012   1.098 -0.5888 -0.2523 -1.1229
39713SOL    HW223951  10.290   1.092   1.039  0.0749 -0.0792  0.3501
39714SOL     OW23952  10.558   0.737   8.391 -0.4192 -0.0121 -0.2542
39714SOL    HW123953  10.480   0.685   8.373 -0.2639 -0.1366 -0.5641
39714SOL    HW223954  10.628   0.693   8.344 -0.4121  0.8506 -1.0739
39715SOL     OW23955   2.115   4.841   1.064  0.1137 -0.1030  0.1687
39715SOL    HW123956   2.062   4.892   1.125  0.9207  1.1131 -0.0996
39715SOL    HW223957   2.111   4.751   1.096  1.5377  0.6689  2.7599
39716SOL     OW23958   5.115   8.883  11.849 -0.2174  0.2049 -0.2258
39716SOL    HW123959   5.038   8.937  11.869 -0.7213 -0.8300  0.7591
39716SOL    HW223960   5.125   8.826  11.925  1.6785  0.4614 -0.2321
39717SOL     OW23961  12.230  12.567   9.522 -0.1439  0.4910 -0.6098
39717SOL    HW123962  12.316  12.583   9.561  1.7705  0.0095 -4.2257
39717SOL    HW223963  12.193  12.496   9.575  0.9318  1.7498  1.9815
39718SOL     OW23964   0.963   6.039   6.945  0.0615  0.0432 -0.2778
39718SOL    HW123965   0.899   6.069   7.010  0.2651 -1.3466  0.6165
39718SOL    HW223966   0.992   5.954   6.978  1.8844  0.3327 -1.0202
39719SOL     OW23967   2.593   4.784   5.008  0.0811  0.5732  0.1164
39719SOL    HW123968   2.508   4.801   5.049  0.7398  0.5018  1.5982
39719SOL    HW223969   2.652   4.768   5.082  1.0687 -0.8603 -0.9300
39720SOL     OW23970   1.802   1.287  11.847  0.0174 -0.3618  0.0104
39720SOL    HW123971   1.847   1.310  11.766 -1.8914  0.4075 -0.8969
39720SOL    HW223972   1.791   1.192  11.842 -0.4748 -0.2692 -0.8813
39721SOL     OW23973   0.120   0.418   7.655 -0.3356 -0.3099  0.3163
39721SOL    HW123974   0.176   0.496   7.646 -1.4384  0.5187  0.3691
39721SOL    HW223975   0.070   0.434   7.736  0.2264 -1.6161  0.9463
39722SOL     OW23976   6.418   4.620   3.131  0.5758  0.1882 -0.0187
39722SOL    HW123977   6.507   4.643   3.157  0.2742  1.8391 -0.3397
39722SOL    HW223978   6.368   4.701   3.142 -0.4423 -0.1438 -1.8007
39723SOL     OW23979   5.642   5.680   6.211 -0.0502  0.3479 -0.2226
39723SOL    HW123980   5.548   5.697   6.203 -0.5230 -1.8961 -0.2812
39723SOL    HW223981   5.665   5.640   6.127  0.6990 -0.0760  0.1789
39724SOL     OW23982   0.101   4.182  10.260  0.0243  0.6003 -0.3050
39724SOL    HW123983   0.118   4.244  10.189 -0.1993 -0.1255 -1.0085
39724SOL    HW223984   0.159   4.108  10.241 -2.3045 -1.0202 -1.5994
39725SOL     OW23985   8.035   7.713   6.470 -0.0272  0.0820  0.2892
39725SOL    HW123986   7.996   7.626   6.480  0.5382 -0.0698  1.2983
39725SOL    HW223987   8.033   7.750   6.558  2.7183 -0.2058  0.5365
39726SOL     OW23988   7.655  11.449   4.160 -0.1702 -0.4002 -0.0811
39726SOL    HW123989   7.660  11.358   4.130 -0.5259 -0.0382 -1.3063
39726SOL    HW223990   7.619  11.443   4.248 -1.1053 -1.4035 -0.5033
39727SOL     OW23991   7.429   2.993  11.229  0.3685 -0.2850  1.0243
39727SOL    HW123992   7.385   2.935  11.290  0.3320  0.7374  1.9996
39727SOL    HW223993   7.517   3.003  11.264  0.5170 -0.1029  0.6120
39728SOL     OW23994  11.761   4.787  10.603 -0.2194  0.6436  0.0092
39728SOL    HW123995  11.689   4.754  10.550 -0.5896 -0.1700  0.9868
39728SOL    HW223996  11.815   4.710  10.621  0.2972  1.0413  0.1998
39729SOL     OW23997  10.307   5.644   4.814 -0.0852  0.3273 -0.6008
39729SOL    HW123998  10.264   5.599   4.887 -0.4503 -0.6024 -1.3486
39729SOL    HW223999  10.356   5.575   4.769  1.1574  1.1282 -0.5181
39730SOL     OW24000   3.257  10.959  11.287 -0.0239  0.0906  0.2220
39730SOL    HW124001   3.244  10.954  11.382  0.1437  0.8713  0.2961
39730SOL    HW224002   3.275  11.052  11.270  0.7246 -0.1704 -0.4806
39731SOL     OW24003  10.037   6.581   4.435 -0.3175 -0.0080  0.5467
39731SOL    HW124004  10.102   6.617   4.496 -0.7252  2.2698 -0.2653
39731SOL    HW224005   9.962   6.640   4.443 -0.5807  0.0596 -1.7579
39732SOL     OW24006  10.919   3.328   9.322 -0.3849 -0.3728 -0.2787
39732SOL    HW124007  10.935   3.259   9.257  0.4323 -0.0495 -0.4480
39732SOL    HW224008  10.900   3.406   9.269  2.4868  0.4452 -0.2795
39733SOL     OW24009   8.898   2.532   0.251  0.5403  0.2254  0.0584
39733SOL    HW124010   8.950   2.575   0.183  0.1826  1.9135  0.7942
39733SOL    HW224011   8.926   2.440   0.249 -0.2733 -0.0571 -3.1208
39734SOL     OW24012   3.251   2.123   0.826 -0.2234  0.2081  0.2054
39734SOL    HW124013   3.343   2.136   0.805  0.1358 -0.4327  1.3202
39734SOL    HW224014   3.251   2.059   0.897 -1.5360  0.0955  0.1286
39735SOL     OW24015   6.103   3.660   2.350  0.4380 -0.0620 -0.3972
39735SOL    HW124016   6.117   3.629   2.439 -0.1914  0.5490 -0.0856
39735SOL    HW224017   6.122   3.754   2.353 -1.3851  0.3381 -0.4765
39736SOL     OW24018   8.197  10.313   4.833 -0.5421 -0.2706 -0.7332
39736SOL    HW124019   8.252  10.359   4.897 -0.0871  0.7252 -1.8084
39736SOL    HW224020   8.163  10.237   4.881 -0.0851  0.3586  0.6340
39737SOL     OW24021   0.850   2.306   5.344  0.0845 -0.3029 -0.4646
39737SOL    HW124022   0.816   2.225   5.383  0.9725 -0.0324  0.9399
39737SOL    HW224023   0.891   2.278   5.262  0.8703 -1.3661  0.2722
39738SOL     OW24024   1.106   8.024   7.758  0.3388  0.1707  0.2548
39738SOL    HW124025   1.191   8.046   7.795  0.1565  0.5666  0.4455
39738SOL    HW224026   1.057   7.984   7.830 -0.5165  2.2211  0.8815
39739SOL     OW24027   4.486   6.229   3.749 -0.3684  0.2045  0.0616
39739SOL    HW124028   4.527   6.147   3.779  0.0840  0.1258 -0.7419
39739SOL    HW224029   4.557   6.294   3.754 -0.7621  0.5879  0.8263
39740SOL     OW24030   4.373   3.995   7.617  0.3607 -0.2654 -0.6363
39740SOL    HW124031   4.298   4.001   7.676  0.9209 -1.1637  0.2006
39740SOL    HW224032   4.448   4.017   7.673  0.5316  3.5568 -2.0925
39741SOL     OW24033   7.168   7.863   1.116  0.4745  0.0701  0.3457
39741SOL    HW124034   7.140   7.838   1.028 -0.3869  0.3812  0.5263
39741SOL    HW224035   7.090   7.855   1.170  1.4373 -2.1454  1.5548
39742SOL     OW24036   2.430  11.982  10.771  0.2190 -0.0328  0.3982
39742SOL    HW124037   2.464  12.070  10.754 -0.5974  0.5583  1.6383
39742SOL    HW224038   2.461  11.962  10.860 -1.0603 -0.2509  0.8127
39743SOL     OW24039   7.253   3.617   6.946 -0.0361 -0.1279 -0.2512
39743SOL    HW124040   7.227   3.629   6.855 -2.8915  1.0173  0.5774
39743SOL    HW224041   7.170   3.603   6.993  1.3241 -0.7724  2.1638
39744SOL     OW24042  12.013   6.107   3.509  0.2079  0.1912 -0.2956
39744SOL    HW124043  11.967   6.188   3.532 -1.1243 -0.4244 -0.7213
39744SOL    HW224044  12.047   6.123   3.421  1.6130  0.9705  0.3581
39745SOL     OW24045   1.434   5.789   1.779  0.4134 -0.5771 -0.5384
39745SOL    HW124046   1.384   5.869   1.794  0.5531 -0.8526  1.7365
39745SOL    HW224047   1.476   5.803   1.695 -1.5624  0.6660 -1.3927
39746SOL     OW24048   6.987   2.422  11.367  0.5065  0.1561  0.4209
39746SOL    HW124049   7.069   2.408  11.320 -0.8375 -0.1058 -1.9853
39746SOL    HW224050   6.969   2.338  11.410 -0.3926 -1.1654 -2.3000
39747SOL     OW24051  11.838   6.610   4.102  0.3633  0.7700  0.0463
39747SOL    HW124052  11.838   6.609   4.007 -0.9623  1.8391 -0.0080
39747SOL    HW224053  11.759   6.660   4.125  1.0995  1.2408  1.6898
39748SOL     OW24054   8.185  11.532   6.151 -0.2456 -0.8984 -0.1895
39748SOL    HW124055   8.199  11.573   6.236 -0.7421 -0.8775 -0.1150
39748SOL    HW224056   8.272  11.502   6.124 -0.1532 -1.3141  0.5331
39749SOL     OW24057   7.645   3.932   6.440  0.1336 -0.3183 -0.4274
39749SOL    HW124058   7.562   3.884   6.452 -1.2660  2.2236  0.8529
39749SOL    HW224059   7.658   3.933   6.345 -3.3159  2.1668 -1.0778
39750SOL     OW24060   2.927  12.361   6.532  0.4621 -0.7485 -0.1513
39750SOL    HW124061   2.932  12.323   6.445  0.3049 -0.6897 -0.1857
39750SOL    HW224062   2.854  12.317   6.575  1.2888 -1.6422  0.3771
39751SOL     OW24063   8.994   7.116   7.714  0.0212  0.1369 -0.1958
39751SOL    HW124064   8.972   7.141   7.804 -0.6126  0.7511 -0.5056
39751SOL    HW224065   9.070   7.170   7.692 -0.5352  0.8585 -0.4108
39752SOL     OW24066   8.494  10.526   6.072  0.1732 -0.3233 -0.2435
39752SOL    HW124067   8.515  10.486   5.988 -0.0010  0.0896 -0.4890
39752SOL    HW224068   8.542  10.609   6.071 -0.6702  0.1837 -0.4000
39753SOL     OW24069   2.230   1.109   1.108  0.1325 -0.3851 -0.2741
39753SOL    HW124070   2.238   1.055   1.030 -0.1574 -0.5418 -0.1965
39753SOL    HW224071   2.137   1.132   1.113  0.4302  1.1165 -0.9609
39754SOL     OW24072   7.905   3.806   4.430  0.2015 -0.5177 -0.2852
39754SOL    HW124073   7.957   3.874   4.474 -1.7818  0.4177  0.7218
39754SOL    HW224074   7.893   3.840   4.341 -0.8321  0.5274  0.2283
39755SOL     OW24075   2.151  10.202   2.615  0.5779  0.5249 -0.0196
39755SOL    HW124076   2.200  10.282   2.630  0.3955  0.5720  0.3357
39755SOL    HW224077   2.064  10.231   2.588  0.9071  0.4415 -1.2391
39756SOL     OW24078   1.302  12.049   3.287  0.1697 -0.2040 -0.1401
39756SOL    HW124079   1.233  11.982   3.283  1.1937 -1.3594  0.9089
39756SOL    HW224080   1.382  12.003   3.263  1.0636  0.3633  1.5855
39757SOL     OW24081   1.795   6.035   8.439 -0.2588 -0.0240  0.1473
39757SOL    HW124082   1.727   6.017   8.374  0.7933 -0.0033 -1.0110
39757SOL    HW224083   1.829   6.121   8.414 -1.0738  0.8495  1.8830
39758SOL     OW24084   2.942   1.556   8.019 -0.7362 -0.0166  0.0761
39758SOL    HW124085   2.926   1.600   8.102  0.0083  0.0426  0.1986
39758SOL    HW224086   2.877   1.592   7.959 -0.6885  0.6093  0.3971
39759SOL     OW24087   5.564   6.100   8.499 -0.3961 -0.5276  0.3683
39759SOL    HW124088   5.490   6.049   8.467  0.2021 -1.7335  0.8333
39759SOL    HW224089   5.611   6.040   8.557 -1.0867  1.3223  3.0719
39760SOL     OW24090   7.361  10.557   9.107 -0.2078  0.0561  0.2442
39760SOL    HW124091   7.383  10.642   9.069 -1.3267  1.2915  2.1781
39760SOL    HW224092   7.286  10.527   9.055 -0.0056  0.3832 -0.2460
39761SOL     OW24093   1.367   7.842   5.733  0.1610 -0.0045  0.3749
39761SOL    HW124094   1.366   7.805   5.645 -0.1671  0.1512  0.3129
39761SOL    HW224095   1.407   7.928   5.723  0.4616 -0.1362  0.4383
39762SOL     OW24096   0.083   6.865   8.001 -0.2302 -0.1094 -0.7003
39762SOL    HW124097   0.166   6.819   7.988  0.3677  0.6380  0.3138
39762SOL    HW224098   0.063   6.853   8.093  0.6159  2.6466 -0.0599
39763SOL     OW24099   7.011   8.787   3.508 -0.0338 -0.6952  0.1090
39763SOL    HW124100   6.954   8.844   3.559 -1.0732 -0.8396 -0.8366
39763SOL    HW224101   7.044   8.842   3.437  1.9499 -0.3104  1.2722
39764SOL     OW24102   4.360   1.477   4.583 -0.0969  0.9960  0.1363
39764SOL    HW124103   4.429   1.463   4.518  0.5096 -3.4905  1.4321
39764SOL    HW224104   4.279   1.463   4.534  0.1776  0.9368 -0.3090
39765SOL     OW24105   6.095   3.861   3.484 -0.0143  0.1757  0.4737
39765SOL    HW124106   6.098   3.917   3.408 -0.6081  0.5830  0.7447
39765SOL    HW224107   6.029   3.795   3.463  2.1390 -1.7679 -0.7284
39766SOL     OW24108   5.642   3.296   4.407 -1.1513  0.3712  0.1930
39766SOL    HW124109   5.719   3.329   4.362  0.0711 -0.3380  1.7048
39766SOL    HW224110   5.570   3.350   4.374 -0.3008  0.0427 -2.3899
39767SOL     OW24111   2.431   1.829  11.337 -0.4036 -1.1870  0.2604
39767SOL    HW124112   2.432   1.747  11.288  0.5031  0.3146 -2.4772
39767SOL    HW224113   2.358   1.878  11.299  1.4136  0.7355 -0.9625
39768SOL     OW24114   5.450   4.478   8.250  0.1320 -0.1930  0.4498
39768SOL    HW124115   5.490   4.395   8.276  0.4447 -0.7545 -1.6110
39768SOL    HW224116   5.380   4.453   8.190  1.7408  1.0660 -2.1116
39769SOL     OW24117   3.768  10.150   2.757  0.3613 -0.7486 -0.0294
39769SOL    HW124118   3.791  10.142   2.664  0.7426  0.9498 -0.1143
39769SOL    HW224119   3.682  10.192   2.757  0.2926 -0.8859  0.3812
39770SOL     OW24120   7.572   6.816   3.951  0.2338  0.1642 -0.4682
39770SOL    HW124121   7.562   6.799   4.045  0.9481 -1.0476 -0.5905
39770SOL    HW224122   7.533   6.902   3.938  0.5988  0.5857  1.0307
39771SOL     OW24123   3.927   1.796   8.961  0.1940  0.0865  0.4510
39771SOL    HW124124   3.959   1.749   9.038 -1.4968 -0.2612  0.9660
39771SOL    HW224125   3.849   1.749   8.933  0.2989  0.7021 -0.9835
39772SOL     OW24126   9.078   0.700  12.290 -0.2448  0.3876  0.5042
39772SOL    HW124127   9.055   0.613  12.325  0.9038  0.7099  2.1830
39772SOL    HW224128   9.046   0.698  12.200 -4.3246 -0.1682  1.7282
39773SOL     OW24129   9.617   3.917   7.995  0.7050 -0.4553 -0.3324
39773SOL    HW124130   9.532   3.945   8.029  0.2265 -0.3633 -1.5559
39773SOL    HW224131   9.598   3.883   7.908  1.7781 -1.4507 -0.2005
39774SOL     OW24132   4.568   5.927   7.606  0.2338  0.9459 -0.3523
39774SOL    HW124133   4.509   5.996   7.636 -0.2402  0.2367  0.4036
39774SOL    HW224134   4.510   5.862   7.566  0.3950 -0.0832  1.0091
39775SOL     OW24135   0.897  11.308   6.226 -0.1138  0.7225  0.0208
39775SOL    HW124136   0.855  11.339   6.306  2.2838  0.4213  1.4929
39775SOL    HW224137   0.969  11.370   6.211 -0.3671  0.6426 -1.8140
39776SOL     OW24138   1.331   2.425   8.930  0.1905  0.3866  0.3930
39776SOL    HW124139   1.353   2.417   8.837 -0.4744  1.3911  0.1376
39776SOL    HW224140   1.358   2.341   8.968  1.6212  0.4404 -0.4531
39777SOL     OW24141  10.162   6.737   1.800  0.0650  0.0225 -0.4121
39777SOL    HW124142  10.162   6.829   1.825 -0.1661 -0.2649  0.6849
39777SOL    HW224143  10.113   6.693   1.869  0.5185 -0.9836 -0.7093
39778SOL     OW24144  12.296   0.898  11.681  0.1838 -0.4164 -0.3864
39778SOL    HW124145  12.305   0.947  11.762  0.9086  0.6351 -1.0670
39778SOL    HW224146  12.386   0.876  11.656  0.1940  1.2527 -2.0379
39779SOL     OW24147   1.605   0.975   1.146 -0.2388 -0.2573  0.0662
39779SOL    HW124148   1.602   0.965   1.051  0.9286 -0.1655  0.0059
39779SOL    HW224149   1.697   0.962   1.169 -0.4981 -0.2467  1.1825
39780SOL     OW24150  10.438   9.760   3.631 -0.4164 -0.5558  0.1197
39780SOL    HW124151  10.343   9.766   3.641 -0.3063  0.0622  0.8810
39780SOL    HW224152  10.451   9.696   3.561 -1.3670 -1.3001  0.6044
39781SOL     OW24153   8.671   4.565   0.104  0.3997 -0.3315  0.5305
39781SOL    HW124154   8.583   4.598   0.124  0.1032 -0.1882 -0.9047
39781SOL    HW224155   8.730   4.635   0.134 -0.0049 -0.1580  0.9413
39782SOL     OW24156   6.752   7.712   5.894 -0.2612  0.9422  0.0640
39782SOL    HW124157   6.726   7.670   5.977 -0.7951 -0.3557 -0.7315
39782SOL    HW224158   6.690   7.678   5.830  2.0964 -0.7176 -1.5216
39783SOL     OW24159   9.866  12.017   4.583 -0.2006  0.5403  0.5182
39783SOL    HW124160   9.893  12.081   4.649 -1.6941  1.4489  0.2933
39783SOL    HW224161   9.859  12.067   4.502 -0.0560 -0.2108  0.0267
39784SOL     OW24162   8.950   0.102   4.256  0.4734 -0.4894 -0.7459
39784SOL    HW124163   9.043   0.086   4.275  0.3119  0.6392  1.2554
39784SOL    HW224164   8.904   0.031   4.299  0.3409 -0.3481 -0.6534
39785SOL     OW24165   3.377   3.127   2.007 -0.4251  0.3959  0.3752
39785SOL    HW124166   3.410   3.039   2.018 -1.9270 -0.2926 -0.3199
39785SOL    HW224167   3.312   3.138   2.076  1.3083  1.8056  1.8747
39786SOL     OW24168  10.469   0.935   3.952 -0.5346  0.2037 -0.3093
39786SOL    HW124169  10.543   0.974   3.998 -0.6223 -1.3227  1.2498
39786SOL    HW224170  10.432   1.007   3.900  1.3752  1.2509 -0.3082
39787SOL     OW24171   0.642   1.319   5.045  0.0197 -1.0322 -0.1407
39787SOL    HW124172   0.632   1.259   5.119 -1.1864 -1.3497 -0.5272
39787SOL    HW224173   0.569   1.298   4.987  0.3121 -0.0523 -0.9024
39788SOL     OW24174   2.942  11.720   3.765 -0.0530  0.2253 -0.1870
39788SOL    HW124175   2.864  11.739   3.816  0.6418  2.2139  0.2595
39788SOL    HW224176   3.004  11.684   3.828  0.7701  2.5856  0.4639
39789SOL     OW24177   5.819   8.731   2.766 -0.2491  0.3086  0.3947
39789SOL    HW124178   5.748   8.687   2.814 -2.2462 -0.1504 -2.6774
39789SOL    HW224179   5.799   8.824   2.773  0.0004  0.3128  1.1515
39790SOL     OW24180   4.411  11.773   0.747  0.1250 -0.5568  0.6264
39790SOL    HW124181   4.396  11.723   0.667 -0.0904  0.9512 -0.3062
39790SOL    HW224182   4.325  11.808   0.770  0.4105  0.0127  0.8373
39791SOL     OW24183  12.032   9.612  11.402 -0.5554  0.3448  0.5087
39791SOL    HW124184  11.992   9.538  11.357  0.4365  1.4236 -2.3694
39791SOL    HW224185  11.996   9.609  11.491 -2.9539 -1.6946 -0.4296
39792SOL     OW24186   5.058   3.460  10.040 -0.1353 -0.2863 -0.4666
39792SOL    HW124187   4.975   3.431  10.001 -0.4449  1.1724 -0.9662
39792SOL    HW224188   5.060   3.418  10.126 -1.0090 -0.9812 -0.7726
39793SOL     OW24189   5.582  10.289   5.584  0.0767 -0.2612 -0.5457
39793SOL    HW124190   5.601  10.354   5.516 -0.5249 -1.3742 -1.8299
39793SOL    HW224191   5.487  10.280   5.582  0.1563 -1.2584 -0.4861
39794SOL     OW24192   2.210   4.456   4.298  0.0591  0.0953  0.0517
39794SOL    HW124193   2.291   4.464   4.348 -0.3733  0.0748  0.7613
39794SOL    HW224194   2.239   4.438   4.208  0.8346  0.0562  0.3045
39795SOL     OW24195   0.578   7.353   5.721  0.0966 -0.0581  0.2572
39795SOL    HW124196   0.647   7.290   5.699  0.1407 -0.9009  2.5716
39795SOL    HW224197   0.623   7.423   5.768 -0.2464  0.7723 -0.6195
39796SOL     OW24198  12.577  10.305  10.788 -0.0426 -0.3190  0.5170
39796SOL    HW124199  12.580  10.258  10.704  0.4593  1.0093 -0.2467
39796SOL    HW224200  12.489  10.288  10.821 -1.3194  1.3275 -1.6734
39797SOL     OW24201   7.542  12.349  10.125 -0.3517 -0.4048 -0.3824
39797SOL    HW124202   7.635  12.369  10.117 -0.1669 -0.9899  0.1538
39797SOL    HW224203   7.540  12.265  10.171 -1.1487 -0.3271 -0.2580
39798SOL     OW24204  11.219  10.299  12.307 -0.4998  0.3220  0.1205
39798SOL    HW124205  11.132  10.289  12.345  0.1259 -0.6599  1.4017
39798SOL    HW224206  11.213  10.259  12.220 -1.1466 -0.4686  0.5130
39799SOL     OW24207   7.336   3.323   7.191 -0.2687 -0.5843  0.0096
39799SOL    HW124208   7.299   3.376   7.262 -0.2644 -2.1820  1.2588
39799SOL    HW224209   7.428   3.350   7.186 -0.6352  0.6081 -0.4248
39800SOL     OW24210   4.981  11.299   2.125 -0.2195 -0.2042  0.5870
39800SOL    HW124211   4.932  11.285   2.206  0.8110 -1.1148  1.0773
39800SOL    HW224212   5.059  11.245   2.135  0.7731  1.0195 -0.2801
39801SOL     OW24213   9.690   4.707   3.967  0.4306 -0.5444  0.1266
39801SOL    HW124214   9.676   4.687   3.874  0.9714  0.5589 -0.2137
39801SOL    HW224215   9.785   4.719   3.975  0.4545 -1.2313  0.9582
39802SOL     OW24216   8.079   3.290   0.804  0.5510 -0.3335 -0.8895
39802SOL    HW124217   7.985   3.276   0.794  0.3798  0.1251 -0.0054
39802SOL    HW224218   8.092   3.383   0.781  0.7357 -0.3035 -0.6631
39803SOL     OW24219   4.812   5.034   4.310 -0.2223  0.4189 -0.3323
39803SOL    HW124220   4.896   5.007   4.273  0.7467  3.2077 -0.3479
39803SOL    HW224221   4.763   5.068   4.236 -1.1371 -0.5479 -0.1980
39804SOL     OW24222   0.968   9.283  10.019 -0.0122 -0.0703 -0.7196
39804SOL    HW124223   0.875   9.304  10.029 -0.1944 -1.3781  0.7731
39804SOL    HW224224   1.004   9.291  10.108  1.5097  1.2164 -1.3981
39805SOL     OW24225   8.844   6.686   5.404 -0.2722  0.3558 -0.7353
39805SOL    HW124226   8.910   6.618   5.397  0.1735  0.7284 -0.2246
39805SOL    HW224227   8.818   6.705   5.314  1.6290  1.4855 -1.0891
39806SOL     OW24228   0.762   1.899   7.386 -0.3063 -0.2255  0.5049
39806SOL    HW124229   0.698   1.869   7.450 -0.3950  0.8358  0.9348
39806SOL    HW224230   0.719   1.973   7.343  1.2817  1.7212  2.0630
39807SOL     OW24231   8.779   2.969   1.819 -0.0581 -0.1090 -0.5917
39807SOL    HW124232   8.724   2.998   1.745  0.1117 -0.1886 -0.7506
39807SOL    HW224233   8.832   3.046   1.841 -1.1685  0.3988  0.4407
39808SOL     OW24234   6.368   8.354   3.384 -0.3691 -0.3759  0.1725
39808SOL    HW124235   6.391   8.322   3.471 -1.5910  0.8839  0.9970
39808SOL    HW224236   6.405   8.442   3.380  0.3067 -0.6967 -0.8782
39809SOL     OW24237   6.755   5.564  10.225  0.5985 -0.0462 -0.1921
39809SOL    HW124238   6.707   5.627  10.170 -2.0089 -0.3297  1.5606
39809SOL    HW224239   6.792   5.616  10.295  0.6812 -0.1330 -0.1715
39810SOL     OW24240   5.293   9.894   5.380  0.0537 -0.2175  0.3635
39810SOL    HW124241   5.236   9.950   5.433  1.0955  1.9030 -0.6605
39810SOL    HW224242   5.255   9.806   5.389 -2.3132  0.8067  1.1256
39811SOL     OW24243   6.592   6.088   5.371 -0.1634  0.2629  0.9616
39811SOL    HW124244   6.510   6.092   5.321  0.3440  0.4237  0.1151
39811SOL    HW224245   6.591   6.003   5.413 -0.2279 -0.2373 -0.0197
39812SOL     OW24246   2.986   8.380   3.073  0.2794  0.3699  0.3770
39812SOL    HW124247   3.061   8.432   3.100 -0.9033  1.0922  2.5650
39812SOL    HW224248   2.941   8.359   3.155 -3.3048  2.1598 -0.9446
39813SOL     OW24249  10.104   5.513   1.732  0.2227 -0.1657 -0.4237
39813SOL    HW124250  10.062   5.513   1.819 -0.0124  0.1542 -0.5347
39813SOL    HW224251  10.176   5.451   1.741 -0.1929 -0.6300 -0.1913
39814SOL     OW24252   4.109   6.884   0.678  0.4139  0.4641 -0.3312
39814SOL    HW124253   4.163   6.962   0.679 -0.9308  1.4361  0.1741
39814SOL    HW224254   4.139   6.832   0.753  0.4565  1.1294  0.1178
39815SOL     OW24255   9.483   3.298   0.603 -0.1160 -0.2841  0.0569
39815SOL    HW124256   9.418   3.327   0.667 -1.5967 -0.4910 -1.2989
39815SOL    HW224257   9.512   3.379   0.560 -0.0152 -0.2638  0.1627
39816SOL     OW24258   9.237   8.766   1.892 -0.3097 -0.2978 -0.4713
39816SOL    HW124259   9.330   8.779   1.905 -0.3967 -2.0637  2.8556
39816SOL    HW224260   9.197   8.851   1.913  0.3515 -0.4709  1.6583
39817SOL     OW24261   4.263   9.986  11.246 -0.2189 -0.1204  0.3041
39817SOL    HW124262   4.269  10.014  11.338 -1.3923 -1.1959  0.7437
39817SOL    HW224263   4.269   9.890  11.251  0.9311 -0.1315 -0.8800
39818SOL     OW24264   0.915   2.948   8.576 -0.7412  0.5771  0.0932
39818SOL    HW124265   0.952   3.020   8.525  0.5819 -0.0743  0.0702
39818SOL    HW224266   0.865   2.897   8.512  2.2111 -1.1453 -1.0924
39819SOL     OW24267   9.287  11.591   0.554 -0.6436  0.0115  0.3245
39819SOL    HW124268   9.264  11.509   0.510 -1.1613  1.6997 -2.8471
39819SOL    HW224269   9.209  11.613   0.606 -1.8301  0.0253 -1.3658
39820SOL     OW24270   8.995   5.929  11.073  0.0112  0.1425 -0.0623
39820SOL    HW124271   9.047   5.929  11.154  0.6033 -0.0918 -0.4327
39820SOL    HW224272   9.055   5.963  11.007 -0.0125 -1.0120 -0.6863
39821SOL     OW24273   3.233   2.320   9.021 -0.3401 -0.7466 -0.3009
39821SOL    HW124274   3.168   2.354   8.959  0.0780  0.3381 -0.1588
39821SOL    HW224275   3.185   2.311   9.103  0.2144  2.4831  0.5002
39822SOL     OW24276   0.875  11.370   7.230  0.3666  0.4258 -0.0313
39822SOL    HW124277   0.956  11.377   7.180  2.2921 -1.0572  2.5831
39822SOL    HW224278   0.865  11.276   7.247 -1.0407  0.7195  0.9906
39823SOL     OW24279   3.706   5.950   3.718  0.0048 -0.2101 -0.2250
39823SOL    HW124280   3.723   5.864   3.757 -1.3284  0.3023  1.6019
39823SOL    HW224281   3.780   6.004   3.745  2.4306 -1.3379 -3.7475
39824SOL     OW24282   9.869   8.849   2.114  0.4882 -0.0818  0.8392
39824SOL    HW124283   9.836   8.930   2.152 -0.3864  0.3189 -0.7291
39824SOL    HW224284   9.814   8.781   2.152  0.8519  0.0966  1.7149
39825SOL     OW24285   4.876   0.093  12.002  0.2147 -0.1969  0.4149
39825SOL    HW124286   4.852   0.118  12.091  1.3001  1.8992  0.1846
39825SOL    HW224287   4.840   0.163  11.946  0.9541 -0.6030 -0.6079
39826SOL     OW24288   9.714   9.746   6.432 -0.3747  0.2589 -0.1814
39826SOL    HW124289   9.771   9.822   6.424  1.6439 -1.2271 -0.6667
39826SOL    HW224290   9.646   9.773   6.494  0.7391  2.1632  0.2771
39827SOL     OW24291   3.774   8.950  12.147 -0.2681 -0.4150 -0.0041
39827SOL    HW124292   3.829   8.881  12.185  0.5543  0.5844  0.6984
39827SOL    HW224293   3.812   8.967  12.061  1.4763  1.2342  1.0173
39828SOL     OW24294   0.903  12.043  11.564 -0.2176  0.0692 -0.2557
39828SOL    HW124295   0.923  12.063  11.473  1.9625 -1.6456 -0.2399
39828SOL    HW224296   0.820  12.088  11.581 -1.3972 -0.6412 -3.4659
39829SOL     OW24297   7.137   7.787   8.472  0.2791  0.4353 -0.1175
39829SOL    HW124298   7.136   7.749   8.384 -1.7926  1.2419 -0.5025
39829SOL    HW224299   7.166   7.715   8.529 -0.7539 -0.8770 -1.1806
39830SOL     OW24300   9.787   6.135   2.304 -0.7819 -0.2202 -0.2661
39830SOL    HW124301   9.799   6.146   2.398 -0.3785 -2.5275  0.0110
39830SOL    HW224302   9.840   6.205   2.265 -0.8800  0.7146  1.1885
39831SOL     OW24303   5.453  10.809  11.355 -0.1795  0.2335 -0.5271
39831SOL    HW124304   5.544  10.793  11.327 -0.1984  2.3231 -2.0246
39831SOL    HW224305   5.461  10.835  11.447  0.9097  1.5870 -0.9746
39832SOL     OW24306   0.825   1.977   2.867 -0.5107  0.3056 -0.2155
39832SOL    HW124307   0.805   2.022   2.949 -2.0192  1.8876 -1.3670
39832SOL    HW224308   0.915   1.947   2.876 -0.4398  1.0038  1.7486
39833SOL     OW24309   9.513   4.213   7.235 -0.0462  0.2292 -0.3261
39833SOL    HW124310   9.517   4.302   7.271 -0.8344  0.2610 -0.3109
39833SOL    HW224311   9.569   4.162   7.293 -0.7999  0.4084  0.5869
39834SOL     OW24312   9.479   7.345   0.154 -0.1696  0.1219  0.2780
39834SOL    HW124313   9.525   7.363   0.073 -0.2489 -0.7257  0.0397
39834SOL    HW224314   9.485   7.427   0.204  2.8344 -0.3462  0.8804
39835SOL     OW24315   9.739  11.708   7.789  0.3114  0.2319 -0.2270
39835SOL    HW124316   9.807  11.775   7.780 -0.3429  1.1787  1.4014
39835SOL    HW224317   9.747  11.677   7.879 -1.0895  0.0191 -0.1488
39836SOL     OW24318   4.587   3.638   6.125  0.1599  0.1702  0.3251
39836SOL    HW124319   4.494   3.613   6.133  0.3724 -1.4856 -1.5744
39836SOL    HW224320   4.635   3.560   6.153  0.9655  0.5151 -0.0711
39837SOL     OW24321   5.836   2.840   6.276  0.6452  0.0283  0.2738
39837SOL    HW124322   5.820   2.778   6.205  3.0750  0.1673 -0.4897
39837SOL    HW224323   5.862   2.921   6.231  0.4985  0.6622  1.3022
39838SOL     OW24324   4.662   2.995   0.020 -0.0538 -0.1337 -0.4080
39838SOL    HW124325   4.748   2.956   0.029 -0.0541 -0.2223 -0.7856
39838SOL    HW224326   4.607   2.949   0.083  0.1783 -0.0658 -0.1578
39839SOL     OW24327   1.377   4.374   0.518  0.0117 -0.2442 -0.2679
39839SOL    HW124328   1.468   4.360   0.492 -0.1396 -2.2703  0.1130
39839SOL    HW224329   1.329   4.302   0.477 -1.3233  0.4244  0.0581
39840SOL     OW24330  11.161   9.187   6.548  0.0599  0.2406 -0.3907
39840SOL    HW124331  11.217   9.222   6.479 -0.8078 -0.8662 -1.7009
39840SOL    HW224332  11.178   9.093   6.548 -0.4560  0.1323  0.4424
39841SOL     OW24333   6.538   6.798   5.545  0.2171  0.2369 -0.1063
39841SOL    HW124334   6.565   6.707   5.533  0.5552  0.4040 -0.6116
39841SOL    HW224335   6.585   6.827   5.623  1.3753  0.4722 -0.8760
39842SOL     OW24336  11.192   3.095  11.838 -0.1152 -0.2951 -0.1225
39842SOL    HW124337  11.196   3.052  11.753 -0.3459  0.5275 -0.5679
39842SOL    HW224338  11.176   3.025  11.901 -0.1623 -0.8823 -0.7830
39843SOL     OW24339   7.618   1.380  11.987  0.1194  0.1812  0.1207
39843SOL    HW124340   7.611   1.448  11.919 -1.1319 -1.1986 -1.2124
39843SOL    HW224341   7.535   1.386  12.035 -0.0497 -0.4663 -0.0814
39844SOL     OW24342   9.127   4.991  10.944  0.4506 -0.6921  0.6060
39844SOL    HW124343   9.202   5.029  10.989 -0.3268  1.6003  0.0787
39844SOL    HW224344   9.116   5.045  10.865 -2.3384 -0.2902  1.1660
39845SOL     OW24345   1.005   3.931  11.008  0.0266 -0.2922  0.3032
39845SOL    HW124346   0.977   4.003  11.064  1.4764  0.9480 -0.4954
39845SOL    HW224347   0.938   3.927  10.940 -1.2082 -1.1575  1.5201
39846SOL     OW24348  10.682   2.461   2.082 -0.2100  0.6295  0.0181
39846SOL    HW124349  10.733   2.519   2.027 -0.7024  1.3038  0.2491
39846SOL    HW224350  10.683   2.503   2.169  1.5283 -1.0023  0.8466
39847SOL     OW24351   2.199   0.026   2.646 -0.0393  0.3880  0.1804
39847SOL    HW124352   2.123  -0.006   2.597  0.5809 -1.2419  0.2248
39847SOL    HW224353   2.195  -0.019   2.730 -0.3443  2.1502  1.1815
39848SOL     OW24354   9.713   3.691   2.000  0.0915  0.0757 -0.1301
39848SOL    HW124355   9.764   3.748   1.941  1.2951 -0.6849  0.1283
39848SOL    HW224356   9.758   3.698   2.084 -1.9307  1.5784  0.9214
39849SOL     OW24357   1.474   4.650   4.564  0.6744 -0.4376  0.0909
39849SOL    HW124358   1.434   4.615   4.644 -0.0621 -0.0457 -0.1043
39849SOL    HW224359   1.454   4.743   4.565 -2.1979 -0.8893 -2.1520
39850SOL     OW24360   7.353   5.804   6.783  0.2140 -0.6977  0.0573
39850SOL    HW124361   7.431   5.860   6.782  0.0232 -0.4333 -0.1454
39850SOL    HW224362   7.385   5.718   6.754  0.8204 -1.1180  1.8609
39851SOL     OW24363   8.454   3.755   4.576  0.2744  0.0111 -0.1204
39851SOL    HW124364   8.537   3.709   4.566  1.1432  1.5800 -0.5240
39851SOL    HW224365   8.414   3.717   4.654  0.8590 -1.4990 -0.5285
39852SOL     OW24366   9.128   8.414  10.653 -0.9225 -0.0533  0.3453
39852SOL    HW124367   9.168   8.392  10.570 -0.9784 -0.0394  0.3147
39852SOL    HW224368   9.099   8.330  10.688 -1.0031 -0.0456  0.2971
39853SOL     OW24369   5.603   1.952  12.007  0.1054 -0.0225 -0.1616
39853SOL    HW124370   5.529   1.905  11.968 -0.0647 -0.7945  1.0334
39853SOL    HW224371   5.680   1.901  11.983  0.3320  0.9632 -1.6890
39854SOL     OW24372   7.122   1.269   8.582  0.4498  0.2146 -0.2568
39854SOL    HW124373   7.034   1.273   8.618  0.8990 -0.2211  0.9371
39854SOL    HW224374   7.113   1.214   8.503 -0.3427  0.1975 -0.1658
39855SOL     OW24375   3.488  11.517  10.919  0.2583  0.5022 -0.3290
39855SOL    HW124376   3.578  11.538  10.892  1.7219 -0.6297  3.1381
39855SOL    HW224377   3.488  11.421  10.927 -0.4719  0.6306  1.8737
39856SOL     OW24378   9.147   5.975   4.749 -0.3748 -0.0529 -0.5684
39856SOL    HW124379   9.219   5.919   4.718  0.9075  0.0102  2.0590
39856SOL    HW224380   9.178   6.064   4.733  0.4482 -0.0106  1.0522
39857SOL     OW24381   7.917   4.253   5.183  0.2248 -0.1888  0.1112
39857SOL    HW124382   7.857   4.299   5.242 -0.3230  1.1003 -1.3668
39857SOL    HW224383   7.930   4.314   5.110  0.6802 -1.8012 -1.2209
39858SOL     OW24384   3.067   0.447   4.320 -0.4564 -0.3646 -0.1409
39858SOL    HW124385   3.095   0.521   4.374 -0.9897 -1.5705  1.8719
39858SOL    HW224386   2.971   0.448   4.326 -0.4643 -1.3035  0.0611
39859SOL     OW24387   3.861   2.390   4.365 -0.4592  0.3708  0.4475
39859SOL    HW124388   3.918   2.327   4.322 -1.7526 -1.0603  0.7193
39859SOL    HW224389   3.899   2.402   4.452  0.4460  0.9035 -0.0033
39860SOL     OW24390   2.582   5.049   8.955  0.2262 -0.0054 -0.2355
39860SOL    HW124391   2.655   5.037   8.894  0.6658 -1.3470  0.5158
39860SOL    HW224392   2.583   4.971   9.009  0.7576  1.7509  2.4655
39861SOL     OW24393   7.881  11.817   7.733 -0.0324 -0.2002  0.6668
39861SOL    HW124394   7.844  11.904   7.720  2.6136  1.2064  1.7218
39861SOL    HW224395   7.926  11.822   7.817  2.9529 -1.5013 -0.6995
39862SOL     OW24396   3.020   5.444   9.210 -0.4743 -0.1901  0.0199
39862SOL    HW124397   3.042   5.535   9.187  0.0753  0.5157  2.9356
39862SOL    HW224398   3.072   5.426   9.288 -2.2079 -2.2825  0.7796
39863SOL     OW24399   9.076   6.150   5.613 -0.5418  0.2883 -0.6700
39863SOL    HW124400   9.008   6.148   5.681  0.2328  0.0206  0.1187
39863SOL    HW224401   9.031   6.180   5.535 -1.3514  1.1749  0.1039
39864SOL     OW24402   9.049  10.082  10.212 -0.0653  0.4266 -0.1313
39864SOL    HW124403   9.089  10.040  10.136 -1.5415  0.1791 -0.7985
39864SOL    HW224404   9.076  10.174  10.207 -1.4634  0.7834 -1.9048
39865SOL     OW24405   7.031   1.499  11.256 -0.0393  0.0236  0.2344
39865SOL    HW124406   7.097   1.499  11.187  1.3426  0.2915  1.5163
39865SOL    HW224407   6.950   1.476  11.211  1.0817 -1.3117 -1.2245
39866SOL     OW24408   6.088   2.944   7.031 -0.1618  0.1299 -0.3101
39866SOL    HW124409   6.003   2.959   6.989  0.4641  1.1708 -1.2572
39866SOL    HW224410   6.092   3.009   7.101 -1.1154 -1.4670  1.3046
39867SOL     OW24411  11.765   7.441   0.040 -0.1244  0.0510  0.1380
39867SOL    HW124412  11.832   7.503   0.071 -0.6304  1.6368 -1.7691
39867SOL    HW224413  11.814   7.380  -0.016 -0.1755  1.0925 -1.0977
39868SOL     OW24414  11.462   8.977  12.007  0.6125 -0.0365 -1.0328
39868SOL    HW124415  11.415   8.999  12.087  0.0819  1.2190 -1.6564
39868SOL    HW224416  11.553   8.967  12.035  0.2612 -0.8488 -0.0902
39869SOL     OW24417   1.048   5.566   6.526 -0.1045  0.0849  0.1607
39869SOL    HW124418   1.045   5.586   6.432 -0.8982 -0.0220  0.1587
39869SOL    HW224419   0.960   5.535   6.547  0.0869  0.0424  0.9310
39870SOL     OW24420   6.398   6.095  12.484  0.0291  0.2697  0.0607
39870SOL    HW124421   6.383   6.188  12.500 -0.5077  0.0116  1.2055
39870SOL    HW224422   6.315   6.053  12.505 -0.5461 -0.2492 -2.9149
39871SOL     OW24423   2.217   4.902   5.522  0.0469  0.5994  0.3325
39871SOL    HW124424   2.288   4.895   5.458 -0.7141 -0.4065 -0.4393
39871SOL    HW224425   2.176   4.987   5.504 -1.0269 -0.2441 -1.4895
39872SOL     OW24426   8.633   0.204  11.349  0.3251  0.0709 -0.2602
39872SOL    HW124427   8.576   0.270  11.389 -0.1120 -0.7887  0.5654
39872SOL    HW224428   8.643   0.137  11.417  1.0902 -0.5218 -0.9452
39873SOL     OW24429  11.320   6.480   9.118  0.3007  0.4177  0.0252
39873SOL    HW124430  11.235   6.460   9.080 -0.7989  0.1032  2.4130
39873SOL    HW224431  11.383   6.463   9.048 -1.5896  0.9333 -1.9023
39874SOL     OW24432   7.110  11.071  10.002  0.2067 -0.8045  0.0803
39874SOL    HW124433   7.062  10.991   9.979  0.3038  0.0817 -3.8846
39874SOL    HW224434   7.193  11.064   9.957 -0.0063  1.7247 -0.8852
39875SOL     OW24435   4.752   7.602  11.616  0.5418  0.9979  0.6846
39875SOL    HW124436   4.796   7.550  11.683  1.3472 -0.1738 -0.6872
39875SOL    HW224437   4.691   7.542  11.574  0.8844  1.3667 -0.3870
39876SOL     OW24438  10.874  11.354   9.093  0.5640  0.3982 -0.1067
39876SOL    HW124439  10.780  11.339   9.094  0.4510  0.8967 -1.3445
39876SOL    HW224440  10.912  11.269   9.068  0.3193  0.6384 -1.3224
39877SOL     OW24441   9.826   6.672   7.454 -0.2159  0.5778  0.0392
39877SOL    HW124442   9.777   6.637   7.528  1.4825  0.8062  1.3168
39877SOL    HW224443   9.826   6.600   7.390 -0.1394 -0.3233  1.0196
39878SOL     OW24444   7.912   3.042   9.617  0.1554 -0.4006 -0.6355
39878SOL    HW124445   7.903   3.127   9.575 -2.7279 -0.6790 -0.7314
39878SOL    HW224446   7.994   3.049   9.666  0.2619  2.2386 -1.0380
39879SOL     OW24447   0.174   7.188   0.070 -0.5382  0.2578  0.1262
39879SOL    HW124448   0.179   7.222   0.160  0.1792  0.1879  0.1198
39879SOL    HW224449   0.080   7.178   0.053 -0.7756  1.9393  0.2442
39880SOL     OW24450  10.256   9.625   0.022  0.0486 -0.5953  0.0224
39880SOL    HW124451  10.199   9.645  -0.052 -1.1381 -0.2519  0.9968
39880SOL    HW224452  10.330   9.578  -0.016 -0.5407 -0.4211 -1.3707
39881SOL     OW24453   3.108   3.247   6.964 -0.8422  0.2114 -0.0067
39881SOL    HW124454   3.026   3.274   7.004 -0.3489  0.0641  1.1379
39881SOL    HW224455   3.164   3.222   7.037  0.2535  0.3657 -0.7631
39882SOL     OW24456   7.392   3.099   3.385 -0.0810  0.2959  0.9957
39882SOL    HW124457   7.422   3.011   3.407  1.6051  0.5289 -0.1521
39882SOL    HW224458   7.364   3.092   3.294  1.2439  1.1679  0.4820
39883SOL     OW24459   2.951   9.786   1.549  0.1066 -0.0528 -0.2368
39883SOL    HW124460   3.028   9.753   1.594  0.3113  1.6316  0.7483
39883SOL    HW224461   2.969   9.773   1.456  0.8859 -1.0908  0.0532
39884SOL     OW24462   8.702   3.209   4.056 -0.6849  0.5153  0.8446
39884SOL    HW124463   8.677   3.300   4.038  0.3584  0.4429 -1.1829
39884SOL    HW224464   8.714   3.170   3.970  0.5265 -1.1008  1.7013
39885SOL     OW24465   8.211  12.281   6.529  0.1989 -0.0430  0.1152
39885SOL    HW124466   8.205  12.354   6.590 -2.6626  0.3380 -0.5053
39885SOL    HW224467   8.158  12.308   6.454  0.6746 -1.9641 -0.9812
39886SOL     OW24468   5.268   0.320   7.434  0.3869  0.6339 -0.0450
39886SOL    HW124469   5.204   0.303   7.365 -0.2286  1.4208  0.3156
39886SOL    HW224470   5.216   0.329   7.514  0.8771  1.7447  0.1780
39887SOL     OW24471  12.085   9.504   0.017 -0.3871  0.0885 -0.6348
39887SOL    HW124472  12.004   9.546   0.047 -0.5608  0.3257 -1.3901
39887SOL    HW224473  12.063   9.411   0.012 -0.4560  0.0888 -0.3518
39888SOL     OW24474   2.694   1.480   5.352  0.3541  0.6660  0.3123
39888SOL    HW124475   2.703   1.572   5.376  0.0945  0.7467  0.1028
39888SOL    HW224476   2.601   1.460   5.367  0.1756  0.7350 -0.6833
39889SOL     OW24477   3.238  12.357   5.063 -0.0367  0.1345 -0.1519
39889SOL    HW124478   3.238  12.269   5.102 -0.4980  0.5081  0.7321
39889SOL    HW224479   3.322  12.394   5.088 -0.3424  0.3827  0.5371
39890SOL     OW24480   7.208   5.786   2.162  0.7795  0.6636 -0.5374
39890SOL    HW124481   7.200   5.814   2.253 -0.0648 -1.3827  0.0823
39890SOL    HW224482   7.278   5.840   2.126  1.5918  1.0717  1.5169
39891SOL     OW24483   9.295   8.856   7.351 -0.1429  0.1784  0.1138
39891SOL    HW124484   9.229   8.845   7.283  1.0769 -1.2344 -0.9136
39891SOL    HW224485   9.376   8.873   7.303  0.4904  0.5907  1.2867
39892SOL     OW24486   9.903   5.016  11.293 -0.4220  0.6853 -0.1442
39892SOL    HW124487   9.908   5.076  11.219 -0.9645  0.9407  0.0188
39892SOL    HW224488   9.988   4.972  11.295 -1.5088 -1.9235 -3.0695
39893SOL     OW24489   6.795   5.178   4.350 -0.2516  0.1638 -0.3172
39893SOL    HW124490   6.844   5.213   4.424 -1.0658 -2.7683  1.7937
39893SOL    HW224491   6.704   5.199   4.370 -0.4880 -0.7477 -0.3874
39894SOL     OW24492  10.021   9.330   2.763  0.1424 -0.5701  0.2510
39894SOL    HW124493  10.086   9.391   2.727  0.0660 -0.4703  0.2834
39894SOL    HW224494   9.969   9.303   2.688 -0.7022  0.4660  0.4452
39895SOL     OW24495  12.167  12.580   9.791 -0.0237 -0.2249 -0.2227
39895SOL    HW124496  12.103  12.650   9.801 -0.4441 -0.7143  0.6051
39895SOL    HW224497  12.248  12.617   9.825  0.1471  0.3795 -1.2323
39896SOL     OW24498  11.795   1.379  11.874 -0.2245 -0.3682  0.1392
39896SOL    HW124499  11.797   1.435  11.796  0.3387 -0.5977 -0.0144
39896SOL    HW224500  11.884   1.346  11.882 -0.4900 -1.0331  0.3835
39897SOL     OW24501  11.402   9.179   8.035  0.2909 -0.0750 -0.1023
39897SOL    HW124502  11.496   9.165   8.045  0.4536  0.6920 -0.5012
39897SOL    HW224503  11.390   9.192   7.941  0.2383  2.8260  0.2209
39898SOL     OW24504  11.118  10.419  11.387  0.2774  0.2084  0.0870
39898SOL    HW124505  11.210  10.407  11.409  0.8015  1.5333 -1.2085
39898SOL    HW224506  11.097  10.346  11.329  1.1045  0.9536 -1.1990
39899SOL     OW24507  12.036   1.895   4.978 -0.3652 -0.5842  0.1201
39899SOL    HW124508  11.959   1.952   4.978 -0.9770 -1.4007 -0.5406
39899SOL    HW224509  12.106   1.951   4.945 -0.6008  0.2431  0.9774
39900SOL     OW24510  11.423  10.247   3.160  0.5630  0.6162  0.3773
39900SOL    HW124511  11.344  10.197   3.139  0.5907  0.4841  0.5829
39900SOL    HW224512  11.480  10.184   3.205  0.7867  0.7115  0.2301
39901SOL     OW24513   0.040   5.704   7.152 -0.0037 -0.1932 -0.4005
39901SOL    HW124514   0.093   5.632   7.117  0.0689 -1.1064  1.4852
39901SOL    HW224515  -0.035   5.709   7.093 -0.0811 -1.9280 -0.4963
39902SOL     OW24516   8.993   3.991   4.893  0.2177 -0.0937 -0.1702
39902SOL    HW124517   8.949   4.074   4.878 -0.6137 -0.4209  0.3488
39902SOL    HW224518   9.025   3.996   4.983 -0.3383 -0.5407  0.0626
39903SOL     OW24519   4.817   0.093   8.465 -0.4023 -0.3648 -0.0782
39903SOL    HW124520   4.862   0.036   8.403 -1.6442 -0.6603 -0.7497
39903SOL    HW224521   4.772   0.034   8.525 -2.0787 -0.1645 -1.0588
39904SOL     OW24522   1.828   3.955   6.144  0.3404  0.5813  0.1855
39904SOL    HW124523   1.906   3.959   6.200 -0.9338  1.6140  1.9979
39904SOL    HW224524   1.765   3.903   6.194 -0.7555  1.3295 -0.3696
39905SOL     OW24525  10.920   2.656   5.141  0.3851 -0.0907 -0.5338
39905SOL    HW124526  10.983   2.687   5.207 -0.1218 -0.3487  0.0859
39905SOL    HW224527  10.974   2.616   5.073  0.9001 -0.2445 -0.0451
39906SOL     OW24528   3.911   3.222   7.054 -0.4429 -0.2936  0.0359
39906SOL    HW124529   3.881   3.311   7.068 -3.2987 -0.9348 -1.3567
39906SOL    HW224530   3.948   3.222   6.965 -0.1429 -0.4348  0.1575
39907SOL     OW24531   8.101   7.953   6.678  0.2589  0.1088  0.1862
39907SOL    HW124532   8.121   8.005   6.601  0.2954 -0.2999 -0.0821
39907SOL    HW224533   8.183   7.909   6.699  0.4534  0.7906  0.9053
39908SOL     OW24534  12.416  10.497   0.992  0.0845 -0.0293  0.0877
39908SOL    HW124535  12.454  10.429   1.048  0.6629 -0.1249 -0.4080
39908SOL    HW224536  12.380  10.561   1.053 -0.2675 -0.6701  0.5636
39909SOL     OW24537   0.894  12.542   9.589  0.1632  0.2064 -0.0549
39909SOL    HW124538   0.869  12.634   9.593  0.3449  0.2617 -0.1711
39909SOL    HW224539   0.813  12.496   9.568  0.4277  0.5399 -2.0096
39910SOL     OW24540   0.592  12.519  10.595 -0.7846  0.0268  0.5141
39910SOL    HW124541   0.512  12.500  10.644  0.2232 -0.9113  1.8640
39910SOL    HW224542   0.662  12.510  10.660  0.4018  1.0986 -0.5749
39911SOL     OW24543   4.019   3.544   8.922  0.2395  0.2253 -0.5026
39911SOL    HW124544   3.931   3.506   8.925  0.9622 -1.4909  0.6604
39911SOL    HW224545   4.066   3.491   8.858  1.4446 -1.4235  1.5980
39912SOL     OW24546   1.910   4.637   2.163  0.3424 -0.0546  0.3425
39912SOL    HW124547   1.935   4.728   2.179 -0.4250  0.4788 -1.2586
39912SOL    HW224548   1.992   4.593   2.141  0.6818  0.2836  0.8873
39913SOL     OW24549   4.816   6.941   6.627 -0.3549 -1.2172 -0.0586
39913SOL    HW124550   4.834   6.989   6.708  1.2560  2.0660 -2.1480
39913SOL    HW224551   4.726   6.910   6.638 -0.1365 -1.1547  3.0198
39914SOL     OW24552   1.859   5.639   7.285  0.3547 -0.8717  0.1619
39914SOL    HW124553   1.846   5.563   7.341  0.7196 -1.3654 -0.3996
39914SOL    HW224554   1.954   5.644   7.274  0.4306  0.3991  1.1664
39915SOL     OW24555  11.716   1.134   2.129 -0.3465 -0.1243 -0.1012
39915SOL    HW124556  11.733   1.072   2.058  0.0862  0.2031 -0.2881
39915SOL    HW224557  11.776   1.206   2.113  0.8486 -0.7091  1.4384
39916SOL     OW24558   0.674  10.422   2.996  0.8137  0.5995  0.0061
39916SOL    HW124559   0.688  10.332   3.023 -0.8643  0.5977  0.9859
39916SOL    HW224560   0.730  10.433   2.919  0.4415 -1.5273 -0.6347
39917SOL     OW24561  10.402   4.226  12.554 -0.1931  0.2703  0.0864
39917SOL    HW124562  10.397   4.316  12.523 -1.3978  0.1906 -0.0102
39917SOL    HW224563  10.346   4.177  12.494 -0.0488 -0.4391  0.5127
39918SOL     OW24564   9.999  11.655   8.029 -0.2735 -0.2492 -0.0236
39918SOL    HW124565  10.024  11.745   8.049 -0.6910 -0.1525  0.0847
39918SOL    HW224566   9.903  11.655   8.039 -0.0840 -1.3175  2.5496
39919SOL     OW24567   0.111   9.255   4.677  0.0745  0.1223 -0.5921
39919SOL    HW124568   0.149   9.204   4.606  0.2666  0.1114 -0.4820
39919SOL    HW224569   0.016   9.243   4.668  0.0264  1.0469 -1.5481
39920SOL     OW24570   1.240   8.970   1.921  0.0475  0.4922  0.0400
39920SOL    HW124571   1.208   8.880   1.935 -0.1923  0.5474 -0.1540
39920SOL    HW224572   1.336   8.961   1.923  0.0295  0.1835 -0.2780
39921SOL     OW24573   8.485  11.790   7.537 -0.5430 -0.3415 -0.3757
39921SOL    HW124574   8.573  11.755   7.520 -0.6820 -0.8295 -0.1080
39921SOL    HW224575   8.499  11.883   7.553  0.0388 -0.5875  0.5789
39922SOL     OW24576   0.784   8.140   2.826 -0.3553  0.7175 -0.3432
39922SOL    HW124577   0.868   8.138   2.871 -1.2802  1.5789  1.5442
39922SOL    HW224578   0.745   8.224   2.852 -2.2210 -0.0996 -0.3484
39923SOL     OW24579   0.631   0.685   3.058 -0.9924  1.1253 -0.4280
39923SOL    HW124580   0.685   0.679   3.137 -0.6527  1.1795 -0.6510
39923SOL    HW224581   0.573   0.760   3.074 -0.9067  1.1517 -0.2397
39924SOL     OW24582   2.817  10.311   2.022 -0.0670  0.0354 -0.3559
39924SOL    HW124583   2.869  10.232   2.007 -1.0943 -0.6578 -0.4105
39924SOL    HW224584   2.830  10.331   2.115  2.3144  1.3958 -0.9084
39925SOL     OW24585   0.145   6.477   4.714  0.0674 -0.5623 -0.2646
39925SOL    HW124586   0.171   6.385   4.706 -0.3200 -0.8597  1.5411
39925SOL    HW224587   0.088   6.479   4.790  2.9066  1.7218  2.0424
39926SOL     OW24588   1.754   2.272   7.632  0.1132  0.0457 -0.6474
39926SOL    HW124589   1.688   2.327   7.590  1.2136  1.6787 -0.3286
39926SOL    HW224590   1.753   2.299   7.724  0.2368 -0.9325 -0.3444
39927SOL     OW24591   3.558  11.307   3.820  0.0127  0.3971 -0.1771
39927SOL    HW124592   3.603  11.352   3.748  1.7600  0.9653  1.2064
39927SOL    HW224593   3.580  11.215   3.808 -0.3610  0.3822 -0.8017
39928SOL     OW24594   5.161  11.606   6.183 -0.2419  0.3087  0.3382
39928SOL    HW124595   5.096  11.542   6.211  1.6575 -1.1675  1.5730
39928SOL    HW224596   5.175  11.587   6.090  0.8132 -1.6160  0.8456
39929SOL     OW24597   9.772   2.681   9.559  0.0584  0.2028 -0.6547
39929SOL    HW124598   9.696   2.734   9.535  0.2363  1.0630  0.6089
39929SOL    HW224599   9.843   2.744   9.568  0.5330 -0.3913 -0.1703
39930SOL     OW24600  11.792   8.573   8.260  0.6852 -0.2711 -0.2380
39930SOL    HW124601  11.799   8.500   8.322 -0.6127 -0.0152  0.2453
39930SOL    HW224602  11.871   8.624   8.274  2.2573 -2.2150 -1.4565
39931SOL     OW24603   6.840   7.752  10.705 -0.1186 -0.0009  0.1286
39931SOL    HW124604   6.908   7.766  10.640 -0.4950  0.3484 -0.2011
39931SOL    HW224605   6.861   7.668  10.745 -1.1112 -1.3645 -1.9970
39932SOL     OW24606  12.579   4.031   7.537 -0.7069 -0.1118  0.1603
39932SOL    HW124607  12.507   4.026   7.599 -1.2811 -0.0988 -0.4994
39932SOL    HW224608  12.633   4.104   7.567 -2.2855  1.4791 -0.7228
39933SOL     OW24609   6.680   2.472   3.684 -0.2583 -0.2982  0.0478
39933SOL    HW124610   6.597   2.491   3.641 -0.2024 -1.2209 -0.4999
39933SOL    HW224611   6.730   2.553   3.677 -0.7417 -0.0418 -0.4778
39934SOL     OW24612   4.623   3.319   2.596 -0.4646 -0.3337 -0.2788
39934SOL    HW124613   4.672   3.239   2.612 -0.2840 -0.4319 -1.2716
39934SOL    HW224614   4.591   3.311   2.506  0.0363  0.9571 -0.5989
39935SOL     OW24615   2.577   8.818   4.752 -0.4367 -0.1739 -0.1358
39935SOL    HW124616   2.636   8.851   4.819 -0.5726 -0.3550  0.0757
39935SOL    HW224617   2.531   8.896   4.720  0.6126  0.1235 -1.0100
39936SOL     OW24618   1.063  12.327   8.090  0.3026  0.3247 -0.0354
39936SOL    HW124619   0.973  12.353   8.070  0.0152 -0.8114 -0.2300
39936SOL    HW224620   1.116  12.400   8.059 -0.5204  0.8668 -0.2027
39937SOL     OW24621   9.372   8.415   9.461  0.6655 -0.2744  0.1511
39937SOL    HW124622   9.457   8.413   9.416  0.5483 -0.0749 -0.0797
39937SOL    HW224623   9.385   8.360   9.538  1.8105  1.8204  1.5533
39938SOL     OW24624   1.574   8.612  11.876 -0.3636  0.5244 -0.4209
39938SOL    HW124625   1.649   8.605  11.934 -0.7424  0.5596  0.0771
39938SOL    HW224626   1.556   8.522  11.849  0.1050  0.5595 -0.8650
39939SOL     OW24627   5.213   7.308   3.355  0.1003 -0.3536  0.0009
39939SOL    HW124628   5.256   7.226   3.378  0.4868 -0.4557 -1.0544
39939SOL    HW224629   5.280   7.375   3.365 -0.0844 -0.2181  0.3884
39940SOL     OW24630   1.583   2.781   8.998 -0.0886 -0.5129 -0.2400
39940SOL    HW124631   1.629   2.833   8.932  0.4819 -1.3446 -0.5018
39940SOL    HW224632   1.652   2.749   9.056 -0.5435 -0.1406  0.5216
39941SOL     OW24633   7.034   2.627   3.951 -0.4624  0.2720  0.1068
39941SOL    HW124634   7.046   2.614   3.857  1.3923 -0.3936  0.4026
39941SOL    HW224635   6.961   2.688   3.957 -0.3051  0.7161 -1.7816
39942SOL     OW24636  11.173  11.190   6.735  0.0486  0.1610  0.0151
39942SOL    HW124637  11.139  11.127   6.672 -1.0132  0.2280  0.5013
39942SOL    HW224638  11.207  11.135   6.806  1.8752  0.0557 -0.8691
39943SOL     OW24639   6.959   1.461   0.448 -0.0794 -0.0502  0.0602
39943SOL    HW124640   6.956   1.464   0.353  2.0565  0.2314 -0.0553
39943SOL    HW224641   6.959   1.368   0.469 -0.5291 -0.1126 -0.2024
39944SOL     OW24642   8.046   4.804   2.106  0.5256 -0.3297 -0.2838
39944SOL    HW124643   8.128   4.832   2.146  0.6300 -1.3037  0.2069
39944SOL    HW224644   8.004   4.885   2.077  0.0369  0.5338  2.5607
39945SOL     OW24645  10.576   7.283  10.862 -0.4388 -0.1582  0.3526
39945SOL    HW124646  10.663   7.307  10.894 -1.5773  0.6998  3.1273
39945SOL    HW224647  10.568   7.190  10.882  0.5823 -0.8183 -1.9733
39946SOL     OW24648   7.019   3.504  11.361  0.0041 -0.2291  0.3132
39946SOL    HW124649   7.063   3.493  11.277  1.3059  2.5171  0.5201
39946SOL    HW224650   6.927   3.518  11.340  0.5998  2.4270 -0.9216
39947SOL     OW24651  10.094   8.593   8.397 -0.0008  0.1734  0.0804
39947SOL    HW124652  10.072   8.561   8.309 -2.3572 -0.2935  0.7599
39947SOL    HW224653  10.085   8.516   8.453  2.6111  0.1899  0.6508
39948SOL     OW24654  11.211   4.455  10.269  0.0440  0.0934 -0.0356
39948SOL    HW124655  11.150   4.394  10.229 -0.4441  0.2960  0.3874
39948SOL    HW224656  11.204   4.437  10.363 -1.7695  2.2758  0.3284
39949SOL     OW24657   1.170   3.306  10.752  0.4605  0.0208 -0.5405
39949SOL    HW124658   1.206   3.222  10.779 -0.6919  0.1060  1.4249
39949SOL    HW224659   1.220   3.371  10.802 -1.8635  0.1659  1.7997
39950SOL     OW24660   4.759   3.335   5.639 -0.7552  0.4823 -0.4850
39950SOL    HW124661   4.732   3.408   5.695 -0.0306  1.2041 -1.0388
39950SOL    HW224662   4.679   3.284   5.625 -1.3698  1.3948 -0.4032
39951SOL     OW24663   4.076   3.203   9.592  0.6920  0.0234  0.2735
39951SOL    HW124664   4.143   3.218   9.658  0.7810  0.4522  0.0898
39951SOL    HW224665   4.010   3.271   9.609  0.3667 -0.3119  0.3722
39952SOL     OW24666   4.185  12.254  12.446  0.0472  0.1722  0.8777
39952SOL    HW124667   4.143  12.307  12.378 -0.4817 -0.9620  0.2818
39952SOL    HW224668   4.278  12.274  12.438 -0.0502  0.3464  0.0618
39953SOL     OW24669   0.838   3.202   4.636 -0.8343 -0.2314  0.0000
39953SOL    HW124670   0.747   3.181   4.653 -0.4938 -0.2566  1.9395
39953SOL    HW224671   0.876   3.220   4.722 -0.1639  4.7174 -1.0480
39954SOL     OW24672   0.165   2.059  10.934 -0.0538  0.1420  0.3679
39954SOL    HW124673   0.126   1.971  10.930  0.8693 -0.2724  0.2385
39954SOL    HW224674   0.203   2.065  11.022 -0.1635  0.4395  0.3980
39955SOL     OW24675   1.331   2.778   4.614  0.1672  0.1654  0.0356
39955SOL    HW124676   1.344   2.871   4.599  0.1562  0.3343  0.9810
39955SOL    HW224677   1.362   2.736   4.534 -1.4265  1.0687 -1.1173
39956SOL     OW24678  11.517   2.802   0.644 -1.0861 -0.0403 -0.3003
39956SOL    HW124679  11.545   2.851   0.721  0.6063 -0.4767 -0.6015
39956SOL    HW224680  11.503   2.713   0.677  0.4223 -0.4186 -0.6073
39957SOL     OW24681   3.308   7.793   7.078  0.1959  0.4863  0.1484
39957SOL    HW124682   3.329   7.741   7.000  2.0870  1.4562 -0.0283
39957SOL    HW224683   3.350   7.877   7.064  0.2581  0.8261  2.0424
39958SOL     OW24684   5.195   5.448   5.933 -0.4011  0.2757 -0.2926
39958SOL    HW124685   5.133   5.518   5.911 -0.3948  1.0461  1.9128
39958SOL    HW224686   5.144   5.368   5.921 -2.3149  0.9189  2.5020
39959SOL     OW24687   8.297   0.791   6.073 -0.0467  0.4768  0.4797
39959SOL    HW124688   8.366   0.852   6.099 -0.2919  1.6629 -1.4738
39959SOL    HW224689   8.342   0.724   6.022 -0.0557  0.0810  0.9846
39960SOL     OW24690   8.307   0.916   1.195  0.5518 -0.7503  0.3061
39960SOL    HW124691   8.326   0.857   1.268 -1.5510 -1.2159  0.5260
39960SOL    HW224692   8.378   0.900   1.132  1.0200 -2.1604  1.1617
39961SOL     OW24693   0.869   3.558   4.719 -0.1347 -0.0210  0.6564
39961SOL    HW124694   0.856   3.506   4.798 -0.5978  0.1705  0.7092
39961SOL    HW224695   0.880   3.648   4.750 -0.4893  0.0811  0.5000
39962SOL     OW24696  10.949   1.701   7.616 -0.2418 -0.1511  0.0173
39962SOL    HW124697  10.961   1.795   7.627 -1.7081  0.0367  0.1031
39962SOL    HW224698  11.038   1.666   7.616  0.3585  1.2938 -0.6579
39963SOL     OW24699   5.681   7.585   0.739 -0.1129  0.0531 -0.1010
39963SOL    HW124700   5.742   7.621   0.803  1.0985 -0.0818 -1.1239
39963SOL    HW224701   5.721   7.606   0.654  1.9692 -5.4044 -0.8909
39964SOL     OW24702   6.956   0.082   1.327 -0.0203  0.2857  0.1082
39964SOL    HW124703   7.002   0.038   1.398  1.4404 -3.9606 -3.0581
39964SOL    HW224704   7.024   0.132   1.282  0.0925 -0.6230 -0.7628
39965SOL     OW24705   4.922   5.456   8.274 -0.2105  0.2457 -0.0103
39965SOL    HW124706   4.966   5.503   8.204 -0.1668  1.8215  1.0178
39965SOL    HW224707   4.842   5.421   8.233  0.9807 -0.9731 -1.3961
39966SOL     OW24708  10.178  11.329   2.508 -0.5806 -0.4615  0.1219
39966SOL    HW124709  10.092  11.366   2.529 -0.3263  0.4819 -0.4074
39966SOL    HW224710  10.169  11.299   2.418 -0.6351 -1.2566  0.3892
39967SOL     OW24711  11.342   3.395   6.910  0.0533  0.6306 -0.3723
39967SOL    HW124712  11.401   3.469   6.927  0.5938  0.1173  0.0299
39967SOL    HW224713  11.339   3.348   6.993 -0.5087  0.3582 -0.5476
39968SOL     OW24714   6.989   2.355   2.852 -0.2015 -0.4851 -0.3073
39968SOL    HW124715   7.076   2.384   2.825 -0.4059 -0.4022 -0.8999
39968SOL    HW224716   6.937   2.361   2.772 -1.5525  2.4514  0.6508
39969SOL     OW24717   6.390   3.669   1.724 -0.5353 -0.3703 -0.5633
39969SOL    HW124718   6.347   3.734   1.669  1.3853  1.8229  0.3714
39969SOL    HW224719   6.386   3.706   1.813 -1.2949 -2.5877  0.4078
39970SOL     OW24720   0.417   2.948   5.764 -0.2454  0.4472  0.1976
39970SOL    HW124721   0.452   2.896   5.693  0.2056  0.0615  0.6942
39970SOL    HW224722   0.380   2.885   5.825  0.7710  0.6468  1.0569
39971SOL     OW24723   4.503   3.754   4.474 -0.1124  0.1883  0.4028
39971SOL    HW124724   4.559   3.822   4.509  1.0272 -1.2457  1.5025
39971SOL    HW224725   4.440   3.800   4.419  2.1018  1.8643 -0.8716
39972SOL     OW24726   8.527   1.759   7.787  0.8231  0.2567 -0.0664
39972SOL    HW124727   8.567   1.823   7.728  1.1502  0.2950  0.1920
39972SOL    HW224728   8.540   1.674   7.744  1.6228  0.2112  0.2361
39973SOL     OW24729   2.232   6.532   8.760 -0.2402 -0.2388  0.2948
39973SOL    HW124730   2.142   6.559   8.777  0.0198  0.4744  0.5894
39973SOL    HW224731   2.244   6.453   8.813 -0.4267  0.1542  0.9309
39974SOL     OW24732   7.709   5.541   7.520 -0.0306 -0.0793  0.0818
39974SOL    HW124733   7.746   5.503   7.599 -0.2014  0.5111  0.4473
39974SOL    HW224734   7.616   5.523   7.526 -0.2451  1.1409  0.6891
39975SOL     OW24735   3.797   8.680   5.035  0.3633  0.0673 -0.4620
39975SOL    HW124736   3.797   8.720   5.122 -2.3414 -1.3777  0.2998
39975SOL    HW224737   3.858   8.733   4.985  2.2850  0.7625  2.3706
39976SOL     OW24738   2.139  10.712   1.551 -0.1184 -0.3381 -0.0693
39976SOL    HW124739   2.208  10.651   1.523 -0.6119 -0.1881 -1.6945
39976SOL    HW224740   2.179  10.798   1.541 -0.3953 -0.2701 -0.6640
39977SOL     OW24741   6.111   9.169   4.075 -0.0434  0.5150  0.0126
39977SOL    HW124742   6.184   9.216   4.036 -0.0761  0.0981 -0.5658
39977SOL    HW224743   6.052   9.238   4.106 -0.0362  0.8613 -0.7169
39978SOL     OW24744   6.336  10.271   8.919  0.4537  0.0076 -0.6276
39978SOL    HW124745   6.385  10.306   8.993 -2.0001 -0.6155  1.4304
39978SOL    HW224746   6.363  10.179   8.913 -0.0557 -0.2103  0.1986
39979SOL     OW24747  10.447  12.294   3.665  0.4991 -0.2333 -0.4406
39979SOL    HW124748  10.420  12.382   3.639  1.0032  0.0767  0.0727
39979SOL    HW224749  10.460  12.247   3.583  3.0400  1.0156 -0.8393
39980SOL     OW24750   2.135   2.925   1.031  0.6947  0.1876 -0.0617
39980SOL    HW124751   2.085   2.966   0.961 -0.2878 -1.2089 -0.2261
39980SOL    HW224752   2.070   2.908   1.100  0.9945 -1.2703 -0.1083
39981SOL     OW24753   1.554   6.866   0.735 -0.5533 -0.1295 -0.3634
39981SOL    HW124754   1.522   6.907   0.654  1.1743 -0.1080 -1.0806
39981SOL    HW224755   1.598   6.786   0.706 -0.5353 -0.4884  0.6288
39982SOL     OW24756   6.913   9.712  12.009  0.0538 -0.3954  0.2692
39982SOL    HW124757   6.952   9.703  12.096  0.3687 -1.4039  0.0332
39982SOL    HW224758   6.970   9.776  11.964 -1.0748  1.4205  1.3231
39983SOL     OW24759  12.605   6.514   2.893  0.1041  0.3090 -0.1610
39983SOL    HW124760  12.562   6.472   2.967 -1.6733  0.6592 -0.9407
39983SOL    HW224761  12.573   6.466   2.816  1.5991  0.2017 -0.7622
39984SOL     OW24762  10.275   6.036   3.098  0.1179 -0.3798 -0.0761
39984SOL    HW124763  10.287   6.131   3.093 -2.0129 -0.1133 -1.4041
39984SOL    HW224764  10.225   6.023   3.179 -2.0561  0.0295 -1.2569
39985SOL     OW24765   4.005   4.898  11.353 -1.1157  0.0413  0.3948
39985SOL    HW124766   3.958   4.908  11.270 -0.0860  1.0497 -0.0856
39985SOL    HW224767   4.025   4.988  11.381  1.4029 -0.3537  0.0561
39986SOL     OW24768   1.612   6.685   7.515  0.1888  0.2206 -0.5382
39986SOL    HW124769   1.611   6.590   7.527  0.7905  0.4171  1.3069
39986SOL    HW224770   1.610   6.697   7.420 -0.1423 -1.6229 -0.7979
39987SOL     OW24771   4.293   6.892   1.644 -0.1873  0.3681  0.6801
39987SOL    HW124772   4.220   6.866   1.700 -1.6540  2.7069 -0.0089
39987SOL    HW224773   4.263   6.875   1.555  0.8647 -0.3796  0.4536
39988SOL     OW24774   4.093  11.158   0.206  0.2104 -0.1684  0.0544
39988SOL    HW124775   4.187  11.172   0.197 -0.2369  2.1751 -2.1895
39988SOL    HW224776   4.054  11.209   0.135 -2.7522 -1.4571  0.5979
39989SOL     OW24777   3.785   4.813   5.726 -0.4079 -0.3027 -0.2264
39989SOL    HW124778   3.766   4.855   5.642 -0.1942  1.1066  0.4096
39989SOL    HW224779   3.877   4.788   5.721 -0.3711 -0.1356 -0.3782
39990SOL     OW24780   6.128   7.254  11.232  0.3694 -0.0782 -0.2196
39990SOL    HW124781   6.190   7.297  11.172  0.8204  0.4495  0.6021
39990SOL    HW224782   6.096   7.179  11.183  1.0792  0.0792 -0.9558
39991SOL     OW24783   9.192   5.542   1.382  0.4333  0.0868 -0.5062
39991SOL    HW124784   9.171   5.627   1.420  1.5918  0.0696  0.2168
39991SOL    HW224785   9.234   5.494   1.454  2.0644 -0.1880 -1.5943
39992SOL     OW24786   3.214   8.927   6.631 -0.1800  0.5123  0.0841
39992SOL    HW124787   3.231   8.838   6.661 -1.8079 -0.0030 -0.3745
39992SOL    HW224788   3.194   8.977   6.711  0.0406  0.2897  0.2771
39993SOL     OW24789   1.805   2.010  12.349  0.0895  0.2331 -0.1885
39993SOL    HW124790   1.813   2.020  12.254  0.0874  2.2104 -0.0282
39993SOL    HW224791   1.725   1.958  12.361  0.1160 -0.0824 -1.2566
39994SOL     OW24792  10.476   7.536   3.288  0.5519  0.3387  0.0301
39994SOL    HW124793  10.483   7.503   3.198  1.2796 -0.6081  0.4135
39994SOL    HW224794  10.489   7.458   3.343 -0.4194  0.8051  0.9606
39995SOL     OW24795   0.831   8.649   1.808  0.1278 -0.3717 -0.4134
39995SOL    HW124796   0.829   8.712   1.736 -1.1121 -0.2326 -0.2798
39995SOL    HW224797   0.783   8.573   1.774  0.3144 -0.6618 -0.0417
39996SOL     OW24798   4.111   5.475  10.220 -0.2349  0.1838  0.6176
39996SOL    HW124799   4.138   5.567  10.227 -0.5167  0.3404 -0.3042
39996SOL    HW224800   4.193   5.426  10.229  0.8963  0.7060 -4.1648
39997SOL     OW24801   9.599   7.326  12.244  0.9455 -0.1637 -0.2561
39997SOL    HW124802   9.554   7.343  12.327 -0.2393  0.0999 -0.9332
39997SOL    HW224803   9.564   7.241  12.216  0.3838  0.3287 -1.0903
39998SOL     OW24804   6.817   8.867   2.598 -0.6985 -0.1803  0.6314
39998SOL    HW124805   6.854   8.800   2.656  0.4270 -1.8027 -1.8176
39998SOL    HW224806   6.844   8.841   2.510 -2.4237  2.1072 -0.6927
39999SOL     OW24807  11.124   9.752   6.783 -0.4746 -0.0432  0.5776
39999SOL    HW124808  11.057   9.820   6.779 -1.5116 -1.0060  1.0781
39999SOL    HW224809  11.142   9.741   6.876 -0.6815 -0.7906  0.5355
40000SOL     OW24810   8.792   2.384   5.854 -0.0226 -0.3077 -0.3147
40000SOL    HW124811   8.814   2.319   5.921 -3.0212 -0.1052  1.0472
40000SOL    HW224812   8.737   2.335   5.792  2.0889 -0.3010 -2.3265
40001SOL     OW24813   3.652   9.976   9.615 -0.4734 -0.5924  0.3095
40001SOL    HW124814   3.596  10.042   9.656 -0.2085 -0.3510  0.2925
40001SOL    HW224815   3.594   9.903   9.597 -1.1181  0.2077 -1.0262
40002SOL     OW24816   9.608   4.542  10.522 -0.0763  0.2211  0.2887
40002SOL    HW124817   9.633   4.451  10.539 -2.7225 -0.7751 -0.7268
40002SOL    HW224818   9.681   4.593  10.557  2.6818 -2.3143 -1.2761
40003SOL     OW24819  11.759   2.313   6.317 -0.4909  0.4333 -0.0421
40003SOL    HW124820  11.672   2.274   6.307 -0.1068 -0.4178 -0.0687
40003SOL    HW224821  11.743   2.392   6.369 -0.9563 -1.0882  2.2717
40004SOL     OW24822   8.387   5.073   6.487 -0.1469 -0.3910  0.2369
40004SOL    HW124823   8.420   4.983   6.492  0.1512 -0.2757  0.3904
40004SOL    HW224824   8.417   5.105   6.402  0.8405 -0.0205  0.7060
40005SOL     OW24825   0.960   4.337   8.022  0.0318 -0.1275 -0.2971
40005SOL    HW124826   0.966   4.329   7.926  0.0468 -0.7802 -0.2455
40005SOL    HW224827   1.034   4.286   8.055 -0.1286 -0.1248  0.0689
40006SOL     OW24828   9.790   8.898   3.041 -0.3504  0.0621 -0.0142
40006SOL    HW124829   9.772   8.823   2.984  0.5398  1.7126 -2.6057
40006SOL    HW224830   9.705   8.917   3.081 -0.8927 -1.4850 -0.3405
40007SOL     OW24831   8.698   9.799   6.134  0.1117 -0.0182  0.1580
40007SOL    HW124832   8.700   9.891   6.107 -0.1363  0.3713  1.4124
40007SOL    HW224833   8.615   9.789   6.179 -0.0506 -0.9773 -0.3300
40008SOL     OW24834   2.124   7.422   2.003  0.2708 -0.3394 -0.0429
40008SOL    HW124835   2.111   7.327   1.996 -0.4269 -0.3764  1.4742
40008SOL    HW224836   2.211   7.431   2.043  0.4329 -0.3315 -0.3953
40009SOL     OW24837   1.207   8.925   6.425 -0.2409 -0.3956 -0.6857
40009SOL    HW124838   1.115   8.936   6.400 -0.6012 -0.0775  0.6782
40009SOL    HW224839   1.215   8.833   6.450 -0.2778 -0.3470 -0.4905
40010SOL     OW24840   2.480   4.777   9.649  0.1710 -1.1022 -0.2278
40010SOL    HW124841   2.393   4.811   9.627 -0.4505 -2.7954 -0.5208
40010SOL    HW224842   2.485   4.783   9.745 -0.0986 -0.6249 -0.2408
40011SOL     OW24843   4.185   0.553   0.447  0.5441 -0.2980  0.0380
40011SOL    HW124844   4.164   0.466   0.482  1.1504 -0.7263 -0.6392
40011SOL    HW224845   4.109   0.576   0.394  1.1909 -1.2913 -1.3785
40012SOL     OW24846   7.318  11.128   5.794  0.5181 -0.1046  0.0129
40012SOL    HW124847   7.264  11.199   5.760  1.3020  2.1011  2.9089
40012SOL    HW224848   7.258  11.054   5.802 -1.1284  1.1422 -0.2994
40013SOL     OW24849   4.638   6.922   8.441  0.2816 -0.0990 -0.2280
40013SOL    HW124850   4.675   6.910   8.529 -1.3038 -0.8148  0.3702
40013SOL    HW224851   4.590   6.841   8.424 -1.5562  1.0459 -0.6921
40014SOL     OW24852   2.065  10.326   5.501 -0.3919 -0.1118 -0.0262
40014SOL    HW124853   2.154  10.351   5.477 -0.5315 -0.2496 -0.7061
40014SOL    HW224854   2.030  10.282   5.423 -1.5921  1.3287 -0.3339
40015SOL     OW24855   2.859  12.232   0.488 -0.3626  0.1104 -0.1337
40015SOL    HW124856   2.831  12.189   0.568  0.7459 -0.4418 -0.0149
40015SOL    HW224857   2.800  12.198   0.420 -0.1700 -0.8028  0.1425
40016SOL     OW24858  11.902   8.554   2.717 -0.2964 -0.0775  0.0254
40016SOL    HW124859  11.853   8.533   2.638  1.0765 -1.2286 -0.5604
40016SOL    HW224860  11.928   8.646   2.705 -1.3831  0.2204 -0.1315
40017SOL     OW24861  11.873   7.739   1.803 -0.3111 -0.8557  0.2976
40017SOL    HW124862  11.913   7.825   1.816 -2.2857  0.1551  0.0612
40017SOL    HW224863  11.944   7.677   1.820  0.5668  0.7146  2.9234
40018SOL     OW24864   7.255  11.260  12.037  0.3784 -0.3610  0.0848
40018SOL    HW124865   7.220  11.191  12.093  0.0979  0.2194  0.6443
40018SOL    HW224866   7.274  11.217  11.954 -0.1382 -1.0290  0.3041
40019SOL     OW24867   0.761  12.614  11.285  0.5630 -0.0555  0.2126
40019SOL    HW124868   0.733  12.553  11.353  0.7500 -0.6685 -0.2540
40019SOL    HW224869   0.680  12.656  11.256  0.4096 -0.2144  0.4066
40020SOL     OW24870   9.014   1.413   9.143 -0.2455 -0.4028  0.1133
40020SOL    HW124871   9.046   1.431   9.232 -0.8205 -0.3275  0.3080
40020SOL    HW224872   9.006   1.500   9.103 -1.8985 -0.2606  0.6638
40021SOL     OW24873   8.484   3.725   1.375 -0.5757  0.6140  0.1898
40021SOL    HW124874   8.542   3.764   1.441 -0.9073  0.6604  0.4571
40021SOL    HW224875   8.464   3.797   1.315 -1.3545  0.9208  0.7991
40022SOL     OW24876   4.258   2.048   6.222 -0.0699 -0.0500 -0.1980
40022SOL    HW124877   4.179   2.092   6.252  0.2191  1.3385 -1.3565
40022SOL    HW224878   4.291   2.002   6.299  0.7982  3.5326  1.7660
40023SOL     OW24879   7.355   6.693   8.366  0.5551 -0.4189 -0.0076
40023SOL    HW124880   7.400   6.742   8.434 -0.5348 -0.8099  1.0270
40023SOL    HW224881   7.302   6.629   8.414 -0.0345 -0.8753 -1.2346
40024SOL     OW24882   9.084   9.553   2.441 -0.1597 -0.2351 -0.4193
40024SOL    HW124883   9.168   9.582   2.406 -0.2178  0.8410  0.2859
40024SOL    HW224884   9.103   9.469   2.483  0.5674  0.0050 -0.2568
40025SOL     OW24885   2.257   8.558   0.201  0.4234  0.0661 -0.4311
40025SOL    HW124886   2.232   8.469   0.226  2.0620 -0.2225  0.2917
40025SOL    HW224887   2.207   8.575   0.120 -2.2927 -0.3086  1.0532
40026SOL     OW24888   0.441   4.942   3.870  0.0923  0.3987  0.1665
40026SOL    HW124889   0.433   5.031   3.904 -1.4981 -0.0754  1.1276
40026SOL    HW224890   0.517   4.906   3.915  1.1786  1.4587 -0.7482
40027SOL     OW24891   7.354  10.264  11.449  0.3422  0.1067 -0.1840
40027SOL    HW124892   7.305  10.223  11.378  3.7673  0.8383 -3.2092
40027SOL    HW224893   7.367  10.354  11.420  0.9193  0.7728  1.9667
40028SOL     OW24894   8.512   3.081   9.348 -0.1097 -0.3004  0.1501
40028SOL    HW124895   8.435   3.025   9.341 -2.0149  2.2696 -1.1918
40028SOL    HW224896   8.503   3.123   9.434  2.0783 -2.8805  1.8031
40029SOL     OW24897   6.599  11.292   8.447  0.0043 -0.2782  0.2050
40029SOL    HW124898   6.674  11.343   8.420  0.0446  0.1624  1.1134
40029SOL    HW224899   6.529  11.356   8.459 -0.4557 -0.6560 -0.4016
40030SOL     OW24900   0.446   4.818   9.493 -0.2456 -0.2755 -0.2121
40030SOL    HW124901   0.500   4.795   9.417  3.1635 -0.5511  2.0692
40030SOL    HW224902   0.396   4.739   9.511 -1.6260  0.0005 -2.4517
40031SOL     OW24903   3.542   8.320   9.587  0.1066 -0.9604  1.0116
40031SOL    HW124904   3.562   8.368   9.668  0.8930  0.6629 -0.0891
40031SOL    HW224905   3.608   8.351   9.525 -2.7283  0.8252 -1.3629
40032SOL     OW24906  10.549  10.274   2.347  0.4624  0.0015 -0.4271
40032SOL    HW124907  10.611  10.202   2.328  0.2259 -0.3582  0.1366
40032SOL    HW224908  10.481  10.264   2.281 -0.1624 -1.0106  0.3392
40033SOL     OW24909  10.940   7.320   1.977 -0.9023  0.4566 -0.0538
40033SOL    HW124910  10.854   7.288   1.950 -1.4248  1.7603  0.0165
40033SOL    HW224911  10.988   7.333   1.896 -0.0291 -2.0984 -0.0580
40034SOL     OW24912   6.148  10.390   3.937  0.0313 -0.0632  0.7659
40034SOL    HW124913   6.143  10.477   3.977 -0.1304 -0.4830  1.6971
40034SOL    HW224914   6.132  10.405   3.844  0.8000  0.9985  0.7842
40035SOL     OW24915   5.410   1.473   7.277  0.1094 -0.4203  0.0824
40035SOL    HW124916   5.317   1.483   7.260 -0.5565 -2.6115  2.0571
40035SOL    HW224917   5.435   1.393   7.230  0.5206 -0.9380  1.1520
40036SOL     OW24918  12.035   9.102   8.259  0.0495 -0.0081 -0.5722
40036SOL    HW124919  12.019   9.096   8.165 -0.3059  0.6150 -0.5574
40036SOL    HW224920  12.130   9.118   8.267 -0.3984  3.8405 -1.0467
40037SOL     OW24921   6.217   5.001   0.086  0.6048 -0.4203  0.2118
40037SOL    HW124922   6.186   4.917   0.053  0.2114  0.2572 -1.2561
40037SOL    HW224923   6.180   5.009   0.174  0.5478 -1.7179  0.3141
40038SOL     OW24924   4.333   3.017   5.687  0.7118 -0.3632  0.0924
40038SOL    HW124925   4.275   2.949   5.652 -0.0623  1.2397 -1.9506
40038SOL    HW224926   4.283   3.098   5.678  2.4328  0.7820  0.3632
40039SOL     OW24927   9.635   3.718   5.005 -0.0313 -1.1066  0.2574
40039SOL    HW124928   9.561   3.773   4.978  1.0974  0.3691  0.0936
40039SOL    HW224929   9.595   3.632   5.021 -2.2139  0.2064  2.5560
40040SOL     OW24930   2.464  10.194   1.790 -0.2726  0.9678  0.1661
40040SOL    HW124931   2.494  10.212   1.879 -0.8464  1.4373  0.2675
40040SOL    HW224932   2.408  10.268   1.768  1.6949  2.0742 -1.4622
40041SOL     OW24933  10.474  11.475   0.679  0.0776  0.1340  0.5536
40041SOL    HW124934  10.440  11.438   0.598  0.5084 -0.4686  0.6381
40041SOL    HW224935  10.509  11.561   0.654  0.1899 -0.0419  0.1080
40042SOL     OW24936  12.183   1.563   1.816  0.3349 -0.1688  1.1011
40042SOL    HW124937  12.223   1.534   1.897  0.8738 -0.2014  0.8241
40042SOL    HW224938  12.197   1.491   1.754 -1.0048 -0.6042  1.2645
40043SOL     OW24939   4.725   7.168   4.051  0.5349 -0.0885  0.2729
40043SOL    HW124940   4.679   7.088   4.027 -1.5616  1.6187 -1.9393
40043SOL    HW224941   4.811   7.160   4.009 -0.7698  0.0429 -2.6569
40044SOL     OW24942   2.454   4.148  11.336  0.2121 -0.0742 -0.7566
40044SOL    HW124943   2.373   4.097  11.331  0.9476 -1.3139 -0.4647
40044SOL    HW224944   2.437   4.215  11.402 -0.8641  0.2321 -1.3313
40045SOL     OW24945   2.173   0.281   1.538  0.3772  0.1553  0.4122
40045SOL    HW124946   2.127   0.199   1.557  3.0205 -0.7954  3.6592
40045SOL    HW224947   2.221   0.263   1.457 -0.4070 -0.8208  0.1357
40046SOL     OW24948   0.091   2.281  10.823  0.1139  0.0989 -0.0596
40046SOL    HW124949   0.008   2.272  10.775 -0.2860 -1.4478  0.8508
40046SOL    HW224950   0.109   2.193  10.857  1.7931  0.5564  0.3329
40047SOL     OW24951   6.474   8.798   1.592  0.4253 -0.1113  0.0504
40047SOL    HW124952   6.393   8.849   1.590  0.5462  0.0677 -0.4209
40047SOL    HW224953   6.478   8.755   1.507  0.4745 -0.6800  0.3348
40048SOL     OW24954   5.777   2.891   1.024 -0.6219  0.5460 -0.4172
40048SOL    HW124955   5.832   2.930   1.092  1.0652 -0.8551 -0.9320
40048SOL    HW224956   5.713   2.838   1.073  2.0782 -2.4496  0.1622
40049SOL     OW24957  10.393   1.962  10.094 -0.3522  0.2703 -0.1735
40049SOL    HW124958  10.414   2.032  10.032 -0.6030  0.4877 -0.0195
40049SOL    HW224959  10.317   1.918  10.055  0.3263 -0.4549 -0.6860
40050SOL     OW24960  11.154   2.012   4.637 -0.0167  0.1815  0.0233
40050SOL    HW124961  11.132   1.920   4.650 -3.4918  0.8663 -0.2091
40050SOL    HW224962  11.157   2.048   4.726  1.1754 -0.0716  0.1039
40051SOL     OW24963   8.270   9.293  11.219  0.2129 -0.7261 -0.3224
40051SOL    HW124964   8.212   9.220  11.242 -2.1390  0.9137 -0.7582
40051SOL    HW224965   8.241   9.321  11.132  0.6980  1.0578  0.0470
40052SOL     OW24966   0.384   6.227  10.552 -0.0429 -0.4895  0.4835
40052SOL    HW124967   0.335   6.145  10.553 -1.2910  0.2242  1.3053
40052SOL    HW224968   0.324   6.290  10.511 -0.0957  0.5368  2.0259
40053SOL     OW24969   1.941   9.444   5.488 -0.8022  0.2205 -0.0728
40053SOL    HW124970   1.846   9.427   5.487 -0.8494  0.3125  1.1011
40053SOL    HW224971   1.978   9.370   5.440 -1.5482  0.8609 -1.6834
40054SOL     OW24972   0.879  11.557  12.595 -0.4045  0.5364 -0.1316
40054SOL    HW124973   0.962  11.582  12.636 -0.2866  0.8941 -0.5907
40054SOL    HW224974   0.825  11.526  12.668  0.5900 -0.9608  0.0173
40055SOL     OW24975   5.518   6.934   9.655 -0.1840 -0.2471  0.1564
40055SOL    HW124976   5.507   6.968   9.744  2.8817 -1.0640  0.9525
40055SOL    HW224977   5.433   6.895   9.634 -0.6329 -1.2532  3.3011
40056SOL     OW24978   7.387   2.343   8.859 -0.5456  0.3056  0.1205
40056SOL    HW124979   7.458   2.338   8.795  0.0997 -1.5934  0.9351
40056SOL    HW224980   7.430   2.337   8.944 -1.6119  0.0518  0.6621
40057SOL     OW24981   8.368  10.155   2.762  0.2552 -0.4634 -0.1208
40057SOL    HW124982   8.415  10.230   2.726 -1.0404 -0.2144 -1.3836
40057SOL    HW224983   8.374  10.087   2.695 -2.4703  0.1229 -1.1043
40058SOL     OW24984   4.504   7.787  12.516 -0.1517  0.1932  0.6019
40058SOL    HW124985   4.540   7.715  12.568  2.1459  0.6572 -0.2195
40058SOL    HW224986   4.446   7.744  12.452  0.0170 -0.7536  1.0620
40059SOL     OW24987  12.071  10.846   8.508  0.1672  0.1431  0.2251
40059SOL    HW124988  12.058  10.938   8.532  0.2592  0.3397 -0.4516
40059SOL    HW224989  12.062  10.845   8.412  2.6976 -0.1002 -0.0915
40060SOL     OW24990   2.852   8.449  12.635  0.2978 -0.3182 -0.6717
40060SOL    HW124991   2.850   8.544  12.648 -0.7108 -0.4628  0.3622
40060SOL    HW224992   2.944   8.430  12.616  0.5190  0.8570 -0.8628
40061SOL     OW24993   9.109  10.432   1.837 -0.1410 -0.3665 -0.2268
40061SOL    HW124994   9.053  10.505   1.810  0.8614  0.8066  0.7665
40061SOL    HW224995   9.132  10.388   1.755  0.1598  1.1243 -0.9842
40062SOL     OW24996   9.489   2.483   0.738  0.1888  0.2495  0.4689
40062SOL    HW124997   9.469   2.422   0.810 -0.3019  1.6205  1.5383
40062SOL    HW224998   9.424   2.553   0.747  0.7062  0.9192 -0.7587
40063SOL     OW24999   8.409  12.338  12.232  0.0652 -0.2857  0.6038
40063SOL    HW125000   8.331  12.298  12.193  0.2305 -0.7789  0.7694
40063SOL    HW225001   8.384  12.430  12.245  0.3088  0.1078 -1.4135
40064SOL     OW25002   3.123   8.126   3.623  0.4832 -0.0890 -0.0783
40064SOL    HW125003   3.076   8.208   3.638  0.3987 -0.4065  1.6879
40064SOL    HW225004   3.180   8.117   3.699  1.1842 -1.2060 -0.7078
40065SOL     OW25005   9.638   8.992   4.274  0.0262 -0.1870 -0.6365
40065SOL    HW125006   9.622   9.086   4.283 -0.8378 -0.5139  2.0076
40065SOL    HW225007   9.728   8.980   4.305 -0.6413 -0.4650  1.3161
40066SOL     OW25008   0.496   1.491   6.520 -0.2688 -0.4108  0.6090
40066SOL    HW125009   0.542   1.419   6.563  1.1725  0.3729  0.4445
40066SOL    HW225010   0.472   1.456   6.434  1.1043 -0.4928  0.2300
40067SOL     OW25011   4.456  10.136  10.759 -0.4532  0.0100 -0.4753
40067SOL    HW125012   4.405  10.184  10.694  0.5669  1.7858 -0.0271
40067SOL    HW225013   4.513  10.202  10.799 -0.4824 -1.1824  1.6823
40068SOL     OW25014   3.557   1.392   6.597 -0.1294  0.1272  0.5210
40068SOL    HW125015   3.567   1.307   6.640 -1.1415 -0.3260 -0.1045
40068SOL    HW225016   3.463   1.407   6.594 -0.1055  0.1562 -1.4787
40069SOL     OW25017   1.232   5.018   0.631 -0.1437 -0.4087 -0.2443
40069SOL    HW125018   1.322   4.995   0.609 -0.6058  0.6489 -3.8451
40069SOL    HW225019   1.195   4.938   0.670  1.7759 -1.4843 -0.5320
40070SOL     OW25020   3.349   7.060   2.011  0.3761 -0.3541  0.3868
40070SOL    HW125021   3.345   7.128   1.944 -2.9107 -1.1269 -0.3668
40070SOL    HW225022   3.443   7.048   2.027  1.3322  0.3839 -3.5424
40071SOL     OW25023   3.858   3.392  10.297  0.2351  0.1416  0.3535
40071SOL    HW125024   3.783   3.368  10.243  0.0047  1.0416  0.2582
40071SOL    HW225025   3.934   3.379  10.240  0.0128  0.8574 -0.1219
40072SOL     OW25026   0.093  12.357   4.633 -0.0597  0.0175  0.1123
40072SOL    HW125027  -0.001  12.354   4.621 -0.2193 -0.9698  1.3496
40072SOL    HW225028   0.106  12.398   4.719  0.5434 -1.1308  0.5938
40073SOL     OW25029   6.842  12.305  10.607  0.5623 -0.0000  0.2653
40073SOL    HW125030   6.839  12.396  10.634  0.2196  0.3122 -0.7774
40073SOL    HW225031   6.761  12.267  10.640  0.8051  0.0216  0.8818
40074SOL     OW25032  10.875   4.273  11.232  0.0664  0.6342  0.4515
40074SOL    HW125033  10.897   4.315  11.315  1.1902 -1.2910  1.2004
40074SOL    HW225034  10.959   4.264  11.186  0.0922 -1.7438  0.8473
40075SOL     OW25035  11.687   6.838   1.193 -0.1808 -0.7791 -0.1054
40075SOL    HW125036  11.617   6.900   1.211  0.5966 -0.2194  1.1440
40075SOL    HW225037  11.708   6.800   1.278  1.4278 -0.4670 -0.3187
40076SOL     OW25038   8.745   3.052  12.054 -0.3572  0.0327 -0.0571
40076SOL    HW125039   8.664   3.077  12.010 -2.3437 -3.2698  1.2956
40076SOL    HW225040   8.794   3.003  11.988 -0.2624  0.6099 -0.4139
40077SOL     OW25041   3.099   3.839  12.499 -0.3045  0.4172 -0.1782
40077SOL    HW125042   3.094   3.848  12.404 -0.5064 -2.2389 -0.5043
40077SOL    HW225043   3.191   3.818  12.517 -0.5806 -0.7818 -0.0357
40078SOL     OW25044   8.135   7.719   8.918 -0.3669  0.4983 -0.3199
40078SOL    HW125045   8.148   7.709   9.013  3.1431  2.3276 -0.4300
40078SOL    HW225046   8.087   7.801   8.909 -0.2146  0.6135 -0.1017
40079SOL     OW25047   6.533  11.814  12.485 -0.1676 -0.2047  0.2776
40079SOL    HW125048   6.484  11.896  12.482  0.5069  0.2286  0.9148
40079SOL    HW225049   6.500  11.769  12.562 -0.0994 -0.2571  0.2764
40080SOL     OW25050   1.243   8.812  12.423  0.0155  0.2308 -0.4980
40080SOL    HW125051   1.237   8.721  12.450 -2.2866  0.8556  1.4294
40080SOL    HW225052   1.308   8.850  12.482  0.3248  0.0677 -0.7248
40081SOL     OW25053   6.153   0.056   7.406 -0.2025 -0.4834  0.4083
40081SOL    HW125054   6.210  -0.000   7.459 -1.2885  0.7830  3.1248
40081SOL    HW225055   6.181   0.145   7.428 -0.9154  0.1112 -0.9887
40082SOL     OW25056   6.035   3.912   8.005  0.2448  0.4798 -0.2213
40082SOL    HW125057   6.017   3.987   7.948  0.7922  0.6332 -0.2052
40082SOL    HW225058   6.000   3.837   7.957 -0.1552  0.7225 -0.3162
40083SOL     OW25059  10.111  10.881  10.863 -0.6704  0.2696  0.7148
40083SOL    HW125060  10.045  10.930  10.912 -1.7153 -0.9614  0.5848
40083SOL    HW225061  10.168  10.948  10.826 -2.7536  1.4947 -0.4776
40084SOL     OW25062   9.086   1.207   8.569  0.1722 -0.2206  0.5419
40084SOL    HW125063   9.036   1.149   8.511  2.4563 -1.4934 -0.2843
40084SOL    HW225064   9.092   1.289   8.520  0.4425 -0.6610 -0.1814
40085SOL     OW25065   9.784  12.221   9.718 -0.0363  0.3263 -0.0482
40085SOL    HW125066   9.846  12.149   9.710 -0.4050 -0.0093  0.0948
40085SOL    HW225067   9.712  12.185   9.770  0.6276  1.3484  1.6522
40086SOL     OW25068  12.438  10.963   8.782  0.0212 -0.4551 -0.0143
40086SOL    HW125069  12.435  11.036   8.721  0.2210 -0.5294 -0.1163
40086SOL    HW225070  12.448  11.003   8.868 -1.5046 -0.3010  0.1104
40087SOL     OW25071   0.385   6.310  12.191  0.3067 -0.2453  0.2071
40087SOL    HW125072   0.335   6.365  12.130 -0.5821 -0.6847  0.5156
40087SOL    HW225073   0.431   6.373  12.247  0.7443  0.1632 -0.5862
40088SOL     OW25074   7.484   8.361  11.552 -0.5173 -0.0132  0.0472
40088SOL    HW125075   7.431   8.316  11.618 -0.2360  1.1330  1.0776
40088SOL    HW225076   7.420   8.406  11.497 -0.6759  0.9148  0.9553
40089SOL     OW25077   4.846  11.943   9.279  0.5354  0.0927  0.3355
40089SOL    HW125078   4.884  11.855   9.289 -0.6933 -0.4384  0.4567
40089SOL    HW225079   4.761  11.937   9.322  0.6239  1.4834  0.7431
40090SOL     OW25080   1.799   0.710   5.909 -0.8458  0.4182  0.1556
40090SOL    HW125081   1.761   0.628   5.939 -1.2527 -1.0134 -3.6557
40090SOL    HW225082   1.725   0.758   5.871 -0.1497  1.2588 -0.1766
40091SOL     OW25083   7.733   9.438   6.552 -0.5083  0.0936 -0.0048
40091SOL    HW125084   7.810   9.467   6.503 -0.2002 -0.6061  0.0464
40091SOL    HW225085   7.770   9.396   6.630 -1.0102  2.0183  1.3202
40092SOL     OW25086   3.407  10.078  11.323  0.0589  0.7180  1.1582
40092SOL    HW125087   3.459  10.130  11.262  0.3016 -0.2819  0.4915
40092SOL    HW225088   3.470  10.042  11.385 -0.1073  1.1737  1.6071
40093SOL     OW25089  11.731   3.652   3.042 -0.3415  0.1696  0.4463
40093SOL    HW125090  11.808   3.674   2.990 -0.1216 -1.8624 -0.1695
40093SOL    HW225091  11.734   3.711   3.117  2.2778 -0.3836  0.8617
40094SOL     OW25092   0.965  12.057   5.509  0.1292  0.0992  0.2140
40094SOL    HW125093   1.054  12.033   5.534  0.6005  1.7663  0.2680
40094SOL    HW225094   0.961  12.037   5.415  0.5004 -0.1452  0.2477
40095SOL     OW25095   0.035  10.330   0.855  0.2493  0.2451 -0.1404
40095SOL    HW125096   0.076  10.300   0.936  0.2934  0.3751 -0.1139
40095SOL    HW225097   0.087  10.405   0.828 -1.2137  1.7575  1.0404
40096SOL     OW25098   2.388   7.325   8.034 -0.1802 -0.2249  0.9723
40096SOL    HW125099   2.320   7.391   8.052  0.6088  0.4626  1.5076
40096SOL    HW225100   2.470   7.369   8.055  0.5568 -0.6080 -0.8983
40097SOL     OW25101   0.038   7.248  10.759  0.2549 -0.5383  1.2293
40097SOL    HW125102   0.124   7.239  10.801  0.0377  2.5936  2.6315
40097SOL    HW225103   0.046   7.324  10.702 -0.7688 -2.0942 -1.1691
40098SOL     OW25104   8.825   6.406  12.198  0.0347 -0.1622 -0.0522
40098SOL    HW125105   8.825   6.313  12.218  1.8274 -0.1004  0.3716
40098SOL    HW225106   8.890   6.416  12.129 -1.0967  0.6163 -1.0496
40099SOL     OW25107   3.143  10.737   7.959 -0.4179  0.0129  0.3690
40099SOL    HW125108   3.226  10.703   7.994 -0.0844 -0.7282 -1.0518
40099SOL    HW225109   3.169  10.789   7.883 -1.3465 -2.7485 -2.0176
40100SOL     OW25110   3.121   5.105  10.385 -0.1212  0.1952  0.4900
40100SOL    HW125111   3.102   5.032  10.443 -0.0093  0.1448  0.4636
40100SOL    HW225112   3.139   5.179  10.443 -0.5715  0.2905  0.5140
40101SOL     OW25113  10.995   6.678   3.703  0.0360  0.3336  0.4203
40101SOL    HW125114  11.043   6.629   3.770  0.0188 -0.5092 -0.1688
40101SOL    HW225115  10.926   6.723   3.752  0.8261  0.7799  1.1404
40102SOL     OW25116   8.478   5.037   8.996  0.2687  0.3345  0.2286
40102SOL    HW125117   8.441   5.007   8.913 -0.2061 -0.4661  0.7100
40102SOL    HW225118   8.567   5.064   8.974  0.0348  0.4767 -0.6023
40103SOL     OW25119   3.074  12.609  10.747  0.4723 -0.2004 -0.1796
40103SOL    HW125120   3.064  12.563  10.830  2.9303 -1.3706 -0.4364
40103SOL    HW225121   3.052  12.543  10.680  1.4058 -0.2131 -0.4907
40104SOL     OW25122   7.342   2.469   4.949  0.1673  0.1325 -0.2017
40104SOL    HW125123   7.353   2.377   4.923  2.6777 -0.5366  2.6892
40104SOL    HW225124   7.429   2.507   4.940 -0.4910  1.8173  0.1603
40105SOL     OW25125  11.118   4.826   5.907 -0.6071  0.2712 -0.3815
40105SOL    HW125126  11.096   4.770   5.832  0.7266  0.4780 -0.9598
40105SOL    HW225127  11.048   4.810   5.970 -0.6633 -1.4740 -0.8418
40106SOL     OW25128   0.913   4.015   2.787  0.1504  0.0959  0.4346
40106SOL    HW125129   0.875   3.952   2.848 -0.9041  0.5989  0.3354
40106SOL    HW225130   0.881   3.988   2.701 -0.4263  0.8238  0.4060
40107SOL     OW25131   8.577  10.218   5.047  0.6002  0.2783 -0.1244
40107SOL    HW125132   8.645  10.282   5.068  0.7012  0.1816 -0.1517
40107SOL    HW225133   8.523  10.214   5.126 -0.1710  1.3430 -0.5870
40108SOL     OW25134   9.641   9.520   8.756  0.2859 -0.2691 -0.0163
40108SOL    HW125135   9.697   9.587   8.718  2.1412 -1.3807  0.6335
40108SOL    HW225136   9.590   9.566   8.822  2.8149  0.2779  1.6970
40109SOL     OW25137   6.354   5.873   0.138 -0.0778  0.1708 -0.4968
40109SOL    HW125138   6.272   5.838   0.172 -1.1307  1.5735 -1.4893
40109SOL    HW225139   6.373   5.820   0.061 -0.5517  0.4180 -0.7877
40110SOL     OW25140  11.846   5.362   5.695 -0.4424  0.5149  0.6401
40110SOL    HW125141  11.926   5.357   5.642 -0.3402 -0.1465  0.8543
40110SOL    HW225142  11.863   5.431   5.759 -0.4362  1.0870  0.0378
40111SOL     OW25143   0.288  10.612  10.693  0.4307  0.4142  0.3550
40111SOL    HW125144   0.283  10.564  10.611  2.1657 -1.3732  1.2326
40111SOL    HW225145   0.199  10.607  10.729 -0.6777  2.1775 -1.8098
40112SOL     OW25146   0.859   7.007  11.586 -0.1834 -0.3679 -0.3260
40112SOL    HW125147   0.923   7.075  11.609 -0.3544 -0.2705 -0.1377
40112SOL    HW225148   0.851   7.013  11.491  0.8912 -1.0971 -0.4796
40113SOL     OW25149   2.729   7.450  11.137  0.4174 -0.0091  0.1173
40113SOL    HW125150   2.661   7.385  11.158 -2.7639  2.6407 -1.0156
40113SOL    HW225151   2.751   7.490  11.221 -1.5063  0.8506  0.2706
40114SOL     OW25152   5.402   5.930   1.135 -0.1624  0.4236  0.2019
40114SOL    HW125153   5.436   5.875   1.065 -0.7873 -0.6716  0.7456
40114SOL    HW225154   5.388   5.871   1.209  0.8800  1.6194  1.4153
40115SOL     OW25155  11.597   5.740   4.764  0.2269 -0.6557  0.9196
40115SOL    HW125156  11.557   5.674   4.820  0.3630 -0.4086  1.3069
40115SOL    HW225157  11.613   5.815   4.821  2.6104 -1.2565  1.1672
40116SOL     OW25158   5.804   6.587   7.327  0.1056 -0.3937 -0.3114
40116SOL    HW125159   5.729   6.646   7.328  0.8618  0.5968  0.4946
40116SOL    HW225160   5.804   6.546   7.413  0.4865 -0.3808 -0.3023
40117SOL     OW25161   2.723   8.876   9.661  0.0357  0.4224  0.1635
40117SOL    HW125162   2.817   8.863   9.678  0.7574 -1.4020 -3.9364
40117SOL    HW225163   2.680   8.805   9.709  0.9428  0.3089  0.8258
40118SOL     OW25164   6.318   4.501  12.206  0.1646  0.0142  0.5621
40118SOL    HW125165   6.307   4.595  12.223  0.4114  0.2261 -0.3926
40118SOL    HW225166   6.265   4.458  12.273  1.3507  0.7837  2.0444
40119SOL     OW25167   1.065   5.657  10.923 -0.0790  0.2578 -0.4934
40119SOL    HW125168   1.108   5.678  10.840  1.5342  0.9676  0.4811
40119SOL    HW225169   1.057   5.562  10.922 -0.1527  0.2640 -1.4928
40120SOL     OW25170  12.418   4.157   5.405  0.1970 -0.3494 -0.6596
40120SOL    HW125171  12.383   4.142   5.318  0.4002  1.6358 -1.1284
40120SOL    HW225172  12.448   4.248   5.404  1.5477 -0.7105  1.0227
40121SOL     OW25173   0.102   4.343  10.501  0.7498  0.3010  0.2975
40121SOL    HW125174   0.139   4.281  10.564  3.2377  1.3185 -0.0384
40121SOL    HW225175   0.091   4.291  10.421 -3.8376 -1.4008  1.7124
40122SOL     OW25176   0.182   3.746   4.551 -0.0447  0.1746 -0.2745
40122SOL    HW125177   0.162   3.708   4.636  0.4361 -1.1020 -0.7125
40122SOL    HW225178   0.191   3.671   4.492 -0.6571  1.0407 -1.5216
40123SOL     OW25179   9.634   7.096   5.416 -0.4430 -0.3395  0.0788
40123SOL    HW125180   9.658   7.115   5.506  1.2264  2.1556 -0.7723
40123SOL    HW225181   9.693   7.026   5.390 -0.7608 -0.8966  0.8425
40124SOL     OW25182   9.338  12.028   1.084 -0.2440  0.2429  0.6582
40124SOL    HW125183   9.244  12.036   1.066 -0.5462 -0.6194  1.7429
40124SOL    HW225184   9.342  11.986   1.170  1.1403  2.3172  1.6794
40125SOL     OW25185   9.707  12.336   6.236  0.1476 -0.7988  0.1148
40125SOL    HW125186   9.782  12.395   6.243 -2.1943  2.4926 -0.4304
40125SOL    HW225187   9.685  12.315   6.327 -0.2209  0.9694  0.4706
40126SOL     OW25188   5.810  11.262  12.325  1.0833  0.2597  0.3059
40126SOL    HW125189   5.853  11.222  12.250  1.8184  0.8765  0.3833
40126SOL    HW225190   5.761  11.336  12.288 -1.1184 -1.2766  0.0167
40127SOL     OW25191  10.452   9.129   3.475 -0.3388 -1.0316  0.0686
40127SOL    HW125192  10.380   9.175   3.432  0.3325 -0.6950 -0.7168
40127SOL    HW225193  10.424   9.121   3.566 -0.4025  1.0522  0.2625
40128SOL     OW25194   7.333   1.527   9.102  0.1368 -0.3852 -0.2480
40128SOL    HW125195   7.405   1.476   9.063  0.6794 -1.2204  1.7111
40128SOL    HW225196   7.375   1.607   9.134  0.1020 -0.5927  0.3405
40129SOL     OW25197   9.291   1.841   6.220  0.1616  0.7274 -0.0574
40129SOL    HW125198   9.316   1.785   6.147  0.5597 -0.4468  0.9450
40129SOL    HW225199   9.373   1.877   6.252  0.0673  0.6592  0.2647
40130SOL     OW25200  10.132   9.444   2.155  0.0217  0.0716  0.8619
40130SOL    HW125201  10.115   9.357   2.118 -0.0942  0.2212  0.5557
40130SOL    HW225202  10.056   9.496   2.129  0.8002  0.6793 -0.3117
40131SOL     OW25203   3.400  12.090   8.108  0.1008 -0.3067 -0.0627
40131SOL    HW125204   3.410  12.005   8.152  0.3470 -1.5812 -2.4069
40131SOL    HW225205   3.490  12.117   8.088 -0.0396 -0.2255 -0.5976
40132SOL     OW25206  11.842  10.737   3.678 -0.1064 -0.8171 -0.4967
40132SOL    HW125207  11.877  10.705   3.762  0.1772  1.7288  0.4616
40132SOL    HW225208  11.750  10.711   3.679 -0.6435  0.8706  1.6194
40133SOL     OW25209   5.752  10.023   1.566  0.3593 -0.0596 -0.2253
40133SOL    HW125210   5.797   9.939   1.570 -0.5827 -0.6530 -1.3587
40133SOL    HW225211   5.795  10.071   1.496  0.6637  0.2761  0.1837
40134SOL     OW25212   8.483   2.499   9.792 -0.2840 -0.5416  0.1256
40134SOL    HW125213   8.554   2.435   9.795  0.0510 -0.3756 -2.3497
40134SOL    HW225214   8.403   2.446   9.794 -0.0245 -0.9858 -0.8640
40135SOL     OW25215   1.060   7.672   6.386 -0.3123 -0.2545  0.4502
40135SOL    HW125216   1.052   7.677   6.291 -2.7253  1.3742  0.6512
40135SOL    HW225217   0.998   7.604   6.412  0.7656 -1.1080  0.8504
40136SOL     OW25218   3.737   1.861   4.529  0.2693  0.1125 -0.3235
40136SOL    HW125219   3.683   1.883   4.605 -1.4137 -1.5343 -0.9612
40136SOL    HW225220   3.688   1.893   4.454  0.7739 -0.3540 -0.8640
40137SOL     OW25221  12.627   6.078   6.879 -0.4173 -0.3903  0.1232
40137SOL    HW125222  12.547   6.110   6.836 -0.4008 -2.4789 -1.6803
40137SOL    HW225223  12.622   6.112   6.968 -2.0399  1.6208 -0.6479
40138SOL     OW25224   4.397   2.812   1.944 -0.3049  0.1478  0.0675
40138SOL    HW125225   4.450   2.850   1.873  0.3615 -3.0062 -1.2757
40138SOL    HW225226   4.458   2.806   2.017  0.5358 -1.1721 -0.7027
40139SOL     OW25227  11.832  10.508  10.870  0.5852  0.0839 -0.7347
40139SOL    HW125228  11.892  10.556  10.813  0.0626  1.1808 -0.3897
40139SOL    HW225229  11.889  10.458  10.928  1.1279 -1.2142 -2.3119
40140SOL     OW25230   5.681   8.405   6.673  0.4865 -0.2548  0.3490
40140SOL    HW125231   5.752   8.360   6.627  1.2224 -1.5354  2.5795
40140SOL    HW225232   5.601   8.374   6.630  0.9313 -4.1210  1.9489
40141SOL     OW25233   4.064  11.102   2.559 -0.2437 -0.5194 -0.2471
40141SOL    HW125234   4.078  11.025   2.503  0.8255 -0.3060 -0.3039
40141SOL    HW225235   4.152  11.137   2.573 -0.2705 -1.3171  2.6456
40142SOL     OW25236  11.022  12.449   6.761  0.3612  0.4714  0.2315
40142SOL    HW125237  10.996  12.519   6.701  1.8892  0.0081 -1.0301
40142SOL    HW225238  10.965  12.376   6.739  1.1408  0.1930 -0.9175
40143SOL     OW25239  10.493   2.190   4.915 -0.2740 -0.6782 -0.0994
40143SOL    HW125240  10.506   2.139   4.994  0.9610 -0.7981 -0.3592
40143SOL    HW225241  10.407   2.231   4.927 -0.8749 -2.0550  0.5178
40144SOL     OW25242   5.751   2.676   1.669  0.0210 -0.0757 -0.1837
40144SOL    HW125243   5.828   2.652   1.720 -0.1949  0.4300  0.3914
40144SOL    HW225244   5.685   2.700   1.734 -0.3009  0.4518 -0.6956
40145SOL     OW25245   5.220   4.157   4.037 -0.0110 -0.4192  0.3685
40145SOL    HW125246   5.207   4.129   4.128 -1.6349  2.4477  1.1448
40145SOL    HW225247   5.278   4.232   4.044  0.9267 -0.9706 -1.1595
40146SOL     OW25248  12.300   5.805   1.820 -0.7777  0.2636  0.2671
40146SOL    HW125249  12.295   5.711   1.838 -0.3772  0.5001  1.7097
40146SOL    HW225250  12.230   5.821   1.757 -1.2274 -0.9010  0.4451
40147SOL     OW25251  10.245   7.511   6.209  0.4167 -0.4846 -0.5875
40147SOL    HW125252  10.265   7.528   6.301  1.7321 -0.3275 -0.8864
40147SOL    HW225253  10.181   7.578   6.185  0.0700 -0.5243  0.2077
40148SOL     OW25254   2.986  10.514   7.654 -0.0346 -0.6659 -0.4822
40148SOL    HW125255   2.992  10.419   7.659  0.0443 -0.6291  0.4842
40148SOL    HW225256   2.968  10.541   7.745  1.9526  0.3742 -0.3545
40149SOL     OW25257   0.896   4.100   9.038  0.4470 -0.8717 -0.0902
40149SOL    HW125258   0.922   4.051   8.960  0.1418 -0.7840 -0.2485
40149SOL    HW225259   0.949   4.063   9.108  1.0952 -0.6121 -0.4265
40150SOL     OW25260   2.862   3.482   7.475 -0.0350  0.3119 -0.7186
40150SOL    HW125261   2.943   3.435   7.453 -0.4221 -1.3118  1.0350
40150SOL    HW225262   2.804   3.465   7.401  0.2566 -1.0321 -0.6682
40151SOL     OW25263  11.307   6.334  11.473 -0.4568  0.1830  0.0109
40151SOL    HW125264  11.290   6.241  11.460  0.0876  0.1199 -0.3194
40151SOL    HW225265  11.403   6.340  11.479 -0.3169  0.9452 -2.0123
40152SOL     OW25266   0.503  11.935   3.954  0.2563 -0.2096  0.0076
40152SOL    HW125267   0.554  11.990   3.895  1.0202 -1.1652 -0.2494
40152SOL    HW225268   0.444  11.995   3.999  0.3371  0.6596 -1.0335
40153SOL     OW25269  12.452  10.117  11.089 -0.1058 -0.1988 -0.2160
40153SOL    HW125270  12.414  10.149  11.006 -1.3316 -2.0097 -0.4028
40153SOL    HW225271  12.380  10.126  11.152  1.1950  2.3675  1.0502
40154SOL     OW25272   6.481   0.786   3.754 -0.0606  0.1444 -0.6148
40154SOL    HW125273   6.491   0.762   3.662 -0.5061 -0.2385 -0.5638
40154SOL    HW225274   6.450   0.877   3.753  2.7822  1.2207 -0.7995
40155SOL     OW25275  11.238  11.590   4.321  0.2674  0.3091  0.5979
40155SOL    HW125276  11.223  11.680   4.349 -2.5302 -0.1508  0.8747
40155SOL    HW225277  11.260  11.543   4.402 -0.6511  0.3337  0.8763
40156SOL     OW25278  11.535   6.393   9.601  0.3832 -0.8650 -0.5827
40156SOL    HW125279  11.601   6.444   9.555  2.1190 -1.9923  0.5356
40156SOL    HW225280  11.465   6.379   9.537 -0.0687  2.5777 -1.0268
40157SOL     OW25281   1.591   7.999   4.853 -0.1803  0.3674 -0.3593
40157SOL    HW125282   1.665   8.053   4.879 -0.6128 -0.0674  1.9265
40157SOL    HW225283   1.581   8.016   4.759  0.5936  3.1432 -0.0366
40158SOL     OW25284  10.331   9.276   1.981 -0.4876  0.1464  0.6592
40158SOL    HW125285  10.367   9.364   1.992  1.1288 -0.5597  1.3929
40158SOL    HW225286  10.401   9.227   1.938 -1.2084 -0.8881  0.6142
40159SOL     OW25287   1.536   3.224   0.517  0.8521 -0.3624 -0.4633
40159SOL    HW125288   1.479   3.236   0.441 -0.5810 -0.1435  0.6070
40159SOL    HW225289   1.585   3.144   0.497  0.7555 -0.1313 -1.7468
40160SOL     OW25290   5.851   3.873   5.686 -0.2020  0.2895  0.1773
40160SOL    HW125291   5.759   3.856   5.707 -0.2761 -0.4315 -0.6960
40160SOL    HW225292   5.856   3.968   5.677 -0.7989  0.3572  0.5026
40161SOL     OW25293   3.457   8.476   1.823  0.0898 -0.5650 -0.5048
40161SOL    HW125294   3.509   8.396   1.827 -1.0970 -1.4397 -1.6096
40161SOL    HW225295   3.379   8.451   1.774 -0.1656  1.3627 -1.1560
40162SOL     OW25296   2.902   4.360   5.696  0.5016 -0.0820  0.2514
40162SOL    HW125297   2.807   4.348   5.691  0.3023  0.2480  2.2466
40162SOL    HW225298   2.933   4.348   5.606 -1.5779  1.2095 -0.7141
40163SOL     OW25299   3.839   8.813   8.701 -0.3968 -0.2931 -0.0557
40163SOL    HW125300   3.926   8.790   8.668 -0.8603 -1.0496 -0.7686
40163SOL    HW225301   3.829   8.906   8.680 -0.2243 -0.4868 -1.0117
40164SOL     OW25302  12.215  11.394   4.403 -0.3676  0.0918  0.0767
40164SOL    HW125303  12.213  11.487   4.424  0.7121  0.1394  0.0225
40164SOL    HW225304  12.123  11.368   4.401 -0.7226  1.3198 -0.6413
40165SOL     OW25305   4.497   9.037   5.868  0.2001  0.0598 -0.4279
40165SOL    HW125306   4.538   9.041   5.781  0.7886 -0.0277 -0.1582
40165SOL    HW225307   4.483   9.128   5.892  2.6496  0.2350  0.5925
40166SOL     OW25308   6.105   5.334   5.023  0.5422 -0.6671 -0.0137
40166SOL    HW125309   6.106   5.351   4.929 -2.1796  2.3981  0.3514
40166SOL    HW225310   6.193   5.301   5.042  1.9811  0.8559 -3.2324
40167SOL     OW25311  12.003  11.251  12.551 -0.2561 -0.0025  0.1658
40167SOL    HW125312  11.923  11.268  12.602 -0.1465 -1.0538  0.7054
40167SOL    HW225313  12.044  11.177  12.595  0.1639 -0.5389 -1.1047
40168SOL     OW25314   4.208   7.497   4.924 -0.2751 -0.2946 -0.5162
40168SOL    HW125315   4.279   7.435   4.938 -1.2761 -1.4759 -0.4916
40168SOL    HW225316   4.128   7.446   4.935 -1.1700  1.2377  0.6240
40169SOL     OW25317   5.814   6.673   1.500  0.2585  0.5032 -0.0904
40169SOL    HW125318   5.745   6.628   1.548 -0.9736  0.5757 -1.6902
40169SOL    HW225319   5.804   6.765   1.525  0.3426  0.3944  0.3444
40170SOL     OW25320  12.317   8.312   5.645  0.4099 -0.1456 -0.3497
40170SOL    HW125321  12.277   8.242   5.697  0.6169 -1.8723 -2.3465
40170SOL    HW225322  12.411   8.292   5.648  0.7713  1.5114  0.9949
40171SOL     OW25323  11.710   7.582   1.944  0.3416 -0.1678 -0.2531
40171SOL    HW125324  11.788   7.616   1.901  0.7473  0.6623  1.0911
40171SOL    HW225325  11.736   7.569   2.035 -0.7868 -0.9056 -0.0155
40172SOL     OW25326   4.684   3.014  10.286 -0.0247  0.1080 -0.0265
40172SOL    HW125327   4.618   3.054  10.343 -0.9972 -1.0998 -0.2498
40172SOL    HW225328   4.638   2.939  10.246  1.6449 -1.0885  0.2139
40173SOL     OW25329  10.932  11.812   8.257  0.1073 -0.0113  0.6080
40173SOL    HW125330  10.885  11.882   8.211 -0.1382 -0.5663  0.0029
40173SOL    HW225331  11.002  11.858   8.303 -1.2005  0.8732  1.8014
40174SOL     OW25332   4.407   4.831   6.378  0.0663  0.1934 -0.4058
40174SOL    HW125333   4.367   4.894   6.317 -0.2323  1.3052  0.8863
40174SOL    HW225334   4.363   4.748   6.359 -2.2711  1.1752  0.3340
40175SOL     OW25335   3.792   3.944   2.753  0.3501  0.1911 -0.1716
40175SOL    HW125336   3.783   3.886   2.677  2.0671  0.1922 -0.4085
40175SOL    HW225337   3.864   4.002   2.730  1.0462  0.0642  1.5424
40176SOL     OW25338   7.465   3.119   5.103 -0.1232  0.1239  0.2400
40176SOL    HW125339   7.441   3.150   5.016  0.8389  1.2163  0.3375
40176SOL    HW225340   7.547   3.163   5.123  0.0710 -0.7018  1.3934
40177SOL     OW25341   6.901   6.743   5.649  0.0641  0.1086  0.0801
40177SOL    HW125342   6.862   6.828   5.671  0.2987  0.1637  0.2951
40177SOL    HW225343   6.838   6.702   5.590  0.7751  1.1847 -1.4941
40178SOL     OW25344   6.746   5.720   1.476 -0.4568  0.2162  0.7289
40178SOL    HW125345   6.748   5.628   1.501 -1.2283 -0.1768 -0.5630
40178SOL    HW225346   6.769   5.720   1.383 -1.7343  1.1892  0.3926
40179SOL     OW25347   6.817  12.225  11.216  0.6580  0.3123  0.0008
40179SOL    HW125348   6.867  12.143  11.216  0.6037  0.2081 -2.2624
40179SOL    HW225349   6.822  12.256  11.125 -0.5929  2.0438  0.4673
40180SOL     OW25350   7.519   7.592   1.058  0.2412  0.0505  0.0972
40180SOL    HW125351   7.489   7.592   0.967 -1.3502 -0.5637  0.5782
40180SOL    HW225352   7.613   7.609   1.053  0.5567 -1.8816 -1.7917
40181SOL     OW25353   3.128   6.234   6.496 -0.0377 -0.3448  0.3172
40181SOL    HW125354   3.096   6.228   6.586  0.0852 -0.0319  0.3847
40181SOL    HW225355   3.070   6.298   6.454 -2.3271 -2.9526 -0.8277
40182SOL     OW25356   1.242   5.180   0.434 -0.2448  0.2246  0.0145
40182SOL    HW125357   1.298   5.249   0.471  0.3244 -0.7245  0.9607
40182SOL    HW225358   1.228   5.119   0.506  0.5606 -1.4723 -1.1990
40183SOL     OW25359   8.644   0.125  12.118  0.2371  0.1207 -0.4813
40183SOL    HW125360   8.701   0.126  12.040  0.5143 -0.8174 -0.3008
40183SOL    HW225361   8.564   0.168  12.089  1.1182  1.7369 -0.6672
40184SOL     OW25362  12.244   6.318  10.549 -0.0476  0.3787 -0.2385
40184SOL    HW125363  12.282   6.283  10.469 -0.0106  0.9958 -0.4960
40184SOL    HW225364  12.214   6.405  10.525  1.1193  1.0876  0.7272
40185SOL     OW25365   4.597   2.912   8.807 -0.5408 -0.0228  0.1065
40185SOL    HW125366   4.667   2.970   8.775  1.6181 -2.7758 -0.5006
40185SOL    HW225367   4.581   2.852   8.734 -1.5598 -1.1760  1.2351
40186SOL     OW25368   2.932   5.392   2.734  0.1296 -0.2068  1.0595
40186SOL    HW125369   2.956   5.355   2.649  0.7777 -0.5847  1.3931
40186SOL    HW225370   2.964   5.482   2.731 -0.8283  0.1185  0.5006
40187SOL     OW25371   3.576   4.744   9.769 -0.2612 -0.4340 -0.0495
40187SOL    HW125372   3.581   4.829   9.724  0.9737 -0.7449 -0.5446
40187SOL    HW225373   3.569   4.767   9.862  1.1634  0.2405 -0.0785
40188SOL     OW25374   7.750  10.953   3.438  0.0181 -0.1342 -0.0181
40188SOL    HW125375   7.787  11.028   3.392  0.2096 -0.3500 -0.2142
40188SOL    HW225376   7.686  10.992   3.498 -0.6039  0.1025 -0.8197
40189SOL     OW25377   2.992   2.156   8.833  0.4047 -0.0257  0.5887
40189SOL    HW125378   2.953   2.141   8.746  0.2107 -1.9063  0.9390
40189SOL    HW225379   3.028   2.071   8.857  0.2013  0.3811  2.4738
40190SOL     OW25380  10.080   8.922   8.882 -0.2198 -0.1444  0.0478
40190SOL    HW125381  10.074   8.911   8.977 -0.0219 -4.3588 -0.2504
40190SOL    HW225382   9.992   8.905   8.850 -0.2979  1.2988 -0.6105
40191SOL     OW25383   7.263   4.635   6.065 -0.1692  0.5785  0.1820
40191SOL    HW125384   7.186   4.588   6.098 -1.2066  1.1653 -1.2520
40191SOL    HW225385   7.313   4.569   6.017 -1.0406  0.6609 -0.8828
40192SOL     OW25386   7.252   0.462   8.643  0.1514 -0.3431 -0.3357
40192SOL    HW125387   7.223   0.419   8.724  0.1138 -0.2835 -0.3171
40192SOL    HW225388   7.338   0.426   8.626  0.1253 -0.4156 -0.3123
40193SOL     OW25389   9.904   2.281   9.832 -0.2817 -0.1813  0.8600
40193SOL    HW125390   9.952   2.291   9.914 -0.3194 -1.2910  1.0305
40193SOL    HW225391   9.813   2.267   9.859 -0.1740 -1.3024  0.6653
40194SOL     OW25392   3.536  11.938   0.495  0.1553 -0.0966  0.2566
40194SOL    HW125393   3.598  11.910   0.428  1.4667  0.3337  1.2490
40194SOL    HW225394   3.481  12.003   0.451  0.3282 -0.5656 -0.6742
40195SOL     OW25395  10.153   5.572   3.071  0.3746  0.4725 -0.1979
40195SOL    HW125396  10.220   5.588   3.137 -0.3452  0.9315  0.4337
40195SOL    HW225397  10.199   5.585   2.988  1.4785 -0.8115  0.1611
40196SOL     OW25398   9.401   3.698  10.302  0.1361  0.4519  0.1567
40196SOL    HW125399   9.445   3.631  10.355  0.0748 -0.1893 -0.5859
40196SOL    HW225400   9.392   3.658  10.216  1.2758  1.8952 -0.6879
40197SOL     OW25401   2.759   4.824   9.457 -0.2482  0.2672 -0.1683
40197SOL    HW125402   2.768   4.800   9.549  1.3151  0.6600 -0.1950
40197SOL    HW225403   2.751   4.740   9.411  1.6078 -0.1080  0.0931
40198SOL     OW25404   3.017   8.242   9.458 -0.0114 -0.2665 -0.3122
40198SOL    HW125405   3.075   8.280   9.524 -0.7384 -0.4336  0.4463
40198SOL    HW225406   3.017   8.304   9.386 -2.4888  2.1669  1.5527
40199SOL     OW25407   7.436   3.205  11.914 -0.2118  0.0710  0.0618
40199SOL    HW125408   7.379   3.262  11.965 -0.9409  1.1228 -1.8196
40199SOL    HW225409   7.514   3.259  11.897 -0.2084 -0.0601 -0.3623
40200SOL     OW25410  11.809   0.561  11.794 -0.2926 -0.3102 -0.0585
40200SOL    HW125411  11.882   0.500  11.782  1.0180  1.5305 -2.2834
40200SOL    HW225412  11.774   0.575  11.706 -0.9880  1.5700  0.4538
40201SOL     OW25413   4.599   5.695   4.229 -0.5183  0.3051  0.4164
40201SOL    HW125414   4.616   5.602   4.248 -1.6104  0.0474  0.1581
40201SOL    HW225415   4.683   5.727   4.195 -0.6550 -1.0852 -1.3888
40202SOL     OW25416   5.193   8.671   6.056  0.1946 -0.0484 -0.0684
40202SOL    HW125417   5.271   8.716   6.022  0.1452 -0.4100 -0.6736
40202SOL    HW225418   5.120   8.709   6.006  0.2822 -1.7101 -1.5322
40203SOL     OW25419   7.956   4.635   2.294  0.1048 -0.3409 -0.1214
40203SOL    HW125420   8.028   4.575   2.313  1.8726  1.6944  0.0907
40203SOL    HW225421   7.994   4.699   2.234 -2.1157 -0.2360 -1.5182
40204SOL     OW25422   4.446   9.476  12.490 -0.2547  0.1389  0.4292
40204SOL    HW125423   4.503   9.550  12.512 -2.5053  1.6179  1.5788
40204SOL    HW225424   4.425   9.435  12.574 -1.5505  0.1546  0.1356
40205SOL     OW25425   1.761   5.586   8.328  0.1327  0.2787  0.0641
40205SOL    HW125426   1.679   5.626   8.300  0.8080  1.2541 -0.6039
40205SOL    HW225427   1.737   5.530   8.402 -1.3473 -0.5463 -0.9720
40206SOL     OW25428   6.280   5.842   5.587 -0.2199  0.0668  0.1751
40206SOL    HW125429   6.365   5.835   5.541 -0.4365  0.4660 -0.3011
40206SOL    HW225430   6.274   5.935   5.610 -0.4564  0.0068  0.3454
40207SOL     OW25431   8.368  12.350   7.712  0.6118  0.5743  0.0780
40207SOL    HW125432   8.350  12.387   7.625 -1.0432 -0.2554  0.0197
40207SOL    HW225433   8.388  12.425   7.767 -0.5058  1.3542 -0.5399
40208SOL     OW25434   5.020   8.090   8.539  0.0846 -0.5230 -0.1536
40208SOL    HW125435   5.102   8.055   8.505 -0.2780 -0.0100 -1.6427
40208SOL    HW225436   4.964   8.101   8.461 -1.3766 -0.8116  0.8111
40209SOL     OW25437   2.779  10.032   1.435  0.2467 -0.5091 -0.0973
40209SOL    HW125438   2.828  10.036   1.353 -0.5883  1.8807 -0.5662
40209SOL    HW225439   2.844  10.052   1.503  0.9717 -2.6500 -0.1010
40210SOL     OW25440   5.608   6.571   1.628  0.5096  0.0330  0.3429
40210SOL    HW125441   5.597   6.483   1.592  0.6099 -0.0620  0.5435
40210SOL    HW225442   5.590   6.562   1.721 -0.2595  0.3806  0.2396
40211SOL     OW25443   0.321   2.135   8.040  0.4572  0.4844  0.5593
40211SOL    HW125444   0.411   2.143   8.007 -0.0106 -3.2560 -2.3555
40211SOL    HW225445   0.321   2.054   8.091 -0.8995  1.5304  2.3270
40212SOL     OW25446   4.452   5.889   5.072  0.5521 -0.2459 -0.0339
40212SOL    HW125447   4.465   5.980   5.044  0.7202 -0.6687 -1.4086
40212SOL    HW225448   4.383   5.856   5.015  0.1583 -0.8530  0.7795
40213SOL     OW25449   2.896  12.524   2.310 -0.5278 -0.2531  0.6075
40213SOL    HW125450   2.804  12.549   2.317 -1.2288 -2.1683 -0.9533
40213SOL    HW225451   2.908  12.457   2.377  0.4649  1.7243  2.5219
40214SOL     OW25452   5.841   8.070   9.844 -0.9508  0.3470 -0.3774
40214SOL    HW125453   5.809   8.043   9.930 -2.1995  2.1063 -0.2378
40214SOL    HW225454   5.936   8.069   9.853 -1.0350 -0.6494  0.6286
40215SOL     OW25455   9.955   5.165   2.635  0.4502 -0.0582  0.4622
40215SOL    HW125456   9.884   5.100   2.643  1.5615 -1.1492  2.1336
40215SOL    HW225457   9.916   5.236   2.584 -1.7511 -0.7534  1.0325
40216SOL     OW25458   6.205  11.132   2.301  0.0098  0.8381 -0.5456
40216SOL    HW125459   6.161  11.213   2.327  3.6399  3.3346 -1.2791
40216SOL    HW225460   6.224  11.144   2.208  1.5970 -0.3235 -0.4201
40217SOL     OW25461  11.838  12.503   6.274 -0.2900  0.2474 -0.5530
40217SOL    HW125462  11.836  12.467   6.362  3.9225  1.8318  0.4516
40217SOL    HW225463  11.751  12.542   6.261 -1.0716 -0.0986  2.8339
40218SOL     OW25464   4.980   7.880   6.539 -0.4644 -0.0717 -0.1997
40218SOL    HW125465   5.032   7.922   6.608 -1.3520  1.6469 -0.5089
40218SOL    HW225466   5.018   7.913   6.458  0.2400 -1.6759 -0.5521
40219SOL     OW25467  12.521   7.902   8.818  0.3905  0.3421  0.6483
40219SOL    HW125468  12.543   7.809   8.811 -0.0959  0.0743  2.1266
40219SOL    HW225469  12.592   7.940   8.869  1.0111  0.9714 -0.6650
40220SOL     OW25470   4.883   3.662   3.940  0.6203 -0.1327 -0.7086
40220SOL    HW125471   4.852   3.746   3.907  2.5922  0.5444 -0.9053
40220SOL    HW225472   4.912   3.680   4.029  0.2463 -0.8181 -0.4332
40221SOL     OW25473   9.916   1.307   3.363  0.1952  0.0107 -0.5277
40221SOL    HW125474   9.922   1.377   3.298 -2.1230 -0.6140 -1.5203
40221SOL    HW225475   9.929   1.226   3.312 -0.7044 -0.4371 -0.0635
40222SOL     OW25476   1.694  12.506   5.884  0.5612 -0.6296 -0.0470
40222SOL    HW125477   1.662  12.468   5.802  1.4651 -1.5898  0.0215
40222SOL    HW225478   1.755  12.440   5.919 -1.4046 -1.2869  2.5070
40223SOL     OW25479  12.403   5.573  11.431 -0.0955  0.5414  0.1681
40223SOL    HW125480  12.336   5.547  11.493 -0.6830 -0.3182 -0.7815
40223SOL    HW225481  12.459   5.495  11.423 -1.2085 -0.1222 -1.8584
40224SOL     OW25482  11.089   6.419   8.945 -0.2041 -0.1567  0.0771
40224SOL    HW125483  11.073   6.357   8.875  0.4038 -0.9754  0.6522
40224SOL    HW225484  11.039   6.385   9.020  0.0720  0.0909  0.3785
40225SOL     OW25485   0.085  12.170  10.390  0.0099  0.6381  0.2402
40225SOL    HW125486   0.017  12.108  10.416  1.8178 -1.2470  0.8075
40225SOL    HW225487   0.074  12.180  10.296 -1.0195  0.3359  0.3187
40226SOL     OW25488   0.381   3.580  10.372  0.2178 -0.5705 -0.1222
40226SOL    HW125489   0.462   3.626  10.398 -0.6244  1.1996 -0.4539
40226SOL    HW225490   0.333   3.645  10.320 -1.7746 -1.3052  0.7087
40227SOL     OW25491   9.588   9.132   1.233  0.3405 -0.4928  0.4174
40227SOL    HW125492   9.576   9.148   1.326 -0.1251  1.2827  0.0927
40227SOL    HW225493   9.635   9.210   1.201  0.0038 -0.8027 -0.9101
40228SOL     OW25494   7.434   6.295   7.443 -0.6283 -0.1674 -0.0964
40228SOL    HW125495   7.367   6.241   7.486 -1.3579 -0.1049 -1.1233
40228SOL    HW225496   7.498   6.231   7.410 -2.0528 -0.5910 -2.2955
40229SOL     OW25497   2.001   1.945   9.130 -0.5315 -0.4644 -0.1611
40229SOL    HW125498   1.924   1.968   9.181  0.0449 -0.1944  0.6038
40229SOL    HW225499   1.989   1.852   9.109 -1.0058 -0.4541  0.0492
40230SOL     OW25500   6.622   0.722   3.995  0.1780  0.0537  0.1290
40230SOL    HW125501   6.582   0.755   3.914 -1.1035  0.0383  0.7442
40230SOL    HW225502   6.690   0.786   4.015 -0.6593  1.0110 -0.0194
40231SOL     OW25503   0.422   6.870   0.747  0.0801 -0.0681  0.0829
40231SOL    HW125504   0.376   6.826   0.675 -0.2299 -0.6898  0.6515
40231SOL    HW225505   0.436   6.802   0.812  1.1992  0.2711  0.2275
40232SOL     OW25506   4.197   4.307   4.371  0.0350 -0.0084 -0.2832
40232SOL    HW125507   4.243   4.299   4.287  0.5045 -2.3210  0.1040
40232SOL    HW225508   4.159   4.220   4.385  0.9775 -0.0744  2.4267
40233SOL     OW25509   4.418   1.975   6.002  0.3678  0.0085 -0.2634
40233SOL    HW125510   4.445   1.884   6.018 -2.1623 -0.8370 -0.2767
40233SOL    HW225511   4.369   1.999   6.081 -1.5754  0.2245 -1.4674
40234SOL     OW25512   4.617   7.439   9.028 -0.0596 -0.2494  0.1651
40234SOL    HW125513   4.617   7.459   9.121 -1.2159  0.2083  0.0869
40234SOL    HW225514   4.651   7.518   8.986 -2.1029  0.6230  0.0401
40235SOL     OW25515  12.292   4.203   0.436  0.0356 -0.3868 -0.5440
40235SOL    HW125516  12.334   4.289   0.433  0.5513 -0.2174  4.4123
40235SOL    HW225517  12.198   4.221   0.437  0.1355  0.0820  0.1496
40236SOL     OW25518   4.341  10.197   6.552  0.1122 -0.0213 -0.4109
40236SOL    HW125519   4.270  10.134   6.566 -0.0335  0.5804  1.9547
40236SOL    HW225520   4.301  10.266   6.500 -0.6245 -0.3956 -0.3604
40237SOL     OW25521  10.951   7.628   0.757 -0.9400 -0.2372  0.0459
40237SOL    HW125522  10.977   7.713   0.720 -2.7756 -0.5822 -2.2383
40237SOL    HW225523  10.968   7.566   0.687 -2.0494 -1.3760  0.7662
40238SOL     OW25524   0.377   5.720   0.195 -0.1769  0.4848  0.9764
40238SOL    HW125525   0.361   5.663   0.270 -1.1929 -1.4192 -0.5746
40238SOL    HW225526   0.401   5.660   0.124 -2.4661  1.8011 -1.0908
40239SOL     OW25527   6.441   5.588   0.554 -0.2089 -0.2728 -0.0459
40239SOL    HW125528   6.436   5.539   0.472  3.8949 -0.0431 -0.6423
40239SOL    HW225529   6.386   5.665   0.540 -0.4043 -0.7464 -2.1841
40240SOL     OW25530  10.317   4.316  10.124  0.3935  1.0209 -0.1558
40240SOL    HW125531  10.404   4.277  10.120 -0.6556 -1.6312  0.6961
40240SOL    HW225532  10.312   4.355  10.211 -0.1082 -1.1828  0.8736
40241SOL     OW25533  11.588   4.175   1.309 -0.2070 -0.0519  0.6545
40241SOL    HW125534  11.619   4.088   1.283 -2.1534 -1.4234  2.5412
40241SOL    HW225535  11.524   4.200   1.243 -0.3308 -0.4964  0.6059
40242SOL     OW25536   8.792   7.762  11.179  0.3225  0.3809 -0.1205
40242SOL    HW125537   8.809   7.776  11.272 -0.0799  0.6376 -0.0836
40242SOL    HW225538   8.846   7.828  11.135  1.3600 -0.4421 -0.1333
40243SOL     OW25539  11.519   5.859   0.344  0.2116 -0.5055  0.3530
40243SOL    HW125540  11.435   5.814   0.330  0.7353 -0.8231 -2.2129
40243SOL    HW225541  11.507   5.945   0.303  1.4781 -0.9832 -1.0997
40244SOL     OW25542   5.031  10.509  12.316 -0.3893  0.1338  0.7598
40244SOL    HW125543   5.025  10.581  12.379 -1.6337  0.4325  0.3341
40244SOL    HW225544   5.026  10.551  12.231  0.8287 -0.3067  0.4590
40245SOL     OW25545   8.144   4.417   9.007  0.3153  0.3635 -0.2643
40245SOL    HW125546   8.156   4.436   8.914  0.9498 -2.5123 -0.8524
40245SOL    HW225547   8.213   4.467   9.050  0.5842  1.0285 -1.4106
40246SOL     OW25548  10.244   1.025  10.421  0.3836 -0.2976 -0.1868
40246SOL    HW125549  10.307   1.059  10.358  0.5118  0.5223  0.3612
40246SOL    HW225550  10.253   1.084  10.497  1.2393 -2.0445  1.1525
40247SOL     OW25551   3.386  10.155   1.718 -0.2997  0.1241 -0.0561
40247SOL    HW125552   3.407  10.119   1.804  0.7144  0.3072 -0.2094
40247SOL    HW225553   3.309  10.106   1.689 -0.7013  0.1238  0.9843
40248SOL     OW25554  10.431   9.073   0.110 -0.4118  0.1011 -0.3883
40248SOL    HW125555  10.507   9.084   0.166 -0.0230 -0.4429 -0.7936
40248SOL    HW225556  10.435   9.146   0.048 -0.3202  0.1711 -0.2986
40249SOL     OW25557  11.060   2.505   9.472  0.2034 -0.0323  0.0045
40249SOL    HW125558  11.018   2.433   9.426  0.2797  0.6225 -1.1166
40249SOL    HW225559  10.996   2.531   9.539 -0.3599 -0.3035 -0.4252
40250SOL     OW25560  11.437   1.319   4.032 -0.5112  0.0835 -0.1525
40250SOL    HW125561  11.391   1.236   4.022 -0.3071 -0.1261  0.6289
40250SOL    HW225562  11.520   1.306   3.986  0.1882 -0.6916  1.2771
40251SOL     OW25563   4.184   6.490   6.837 -0.0666 -0.1392  0.4021
40251SOL    HW125564   4.122   6.539   6.890 -0.1393 -0.1911  0.3659
40251SOL    HW225565   4.259   6.549   6.827  0.7544 -0.8159  2.1244
40252SOL     OW25566   9.129   4.005   7.506  0.5987  0.1027  0.2533
40252SOL    HW125567   9.124   4.059   7.585  2.9443 -0.8709  1.1607
40252SOL    HW225568   9.167   4.064   7.440  1.6730  0.0287  0.7906
40253SOL     OW25569  11.140   3.305   6.739  0.0263  0.2035  0.1385
40253SOL    HW125570  11.202   3.315   6.811 -2.2145  1.0281  2.0963
40253SOL    HW225571  11.129   3.394   6.705 -0.0890  0.0615 -0.1936
40254SOL     OW25572   7.400   2.365  11.363 -0.6582 -0.1670 -0.2083
40254SOL    HW125573   7.458   2.300  11.325 -0.3487  0.3591 -0.6563
40254SOL    HW225574   7.312   2.335  11.342 -0.4947  0.3056 -1.7022
40255SOL     OW25575  12.632   9.376   4.987 -0.5674 -0.2189 -0.0980
40255SOL    HW125576  12.589   9.298   5.023 -0.4122  0.6111  2.0565
40255SOL    HW225577  12.561   9.426   4.945 -0.9155 -0.8469 -0.2706
40256SOL     OW25578  10.476   0.719   1.812 -0.2885 -0.2165 -0.5098
40256SOL    HW125579  10.529   0.792   1.844  0.5753 -0.9241 -0.2861
40256SOL    HW225580  10.386   0.751   1.815 -0.1168  0.1833  1.4694
40257SOL     OW25581   7.410   2.751   3.123  0.2483 -0.3626  0.2169
40257SOL    HW125582   7.441   2.715   3.206 -1.7614  0.4468  1.4053
40257SOL    HW225583   7.405   2.675   3.065 -0.1351 -1.3215  1.4367
40258SOL     OW25584  11.225   6.048  10.279  0.0579 -0.3790  0.0889
40258SOL    HW125585  11.300   6.104  10.297  0.4580  0.3645 -3.2630
40258SOL    HW225586  11.149   6.105  10.288  0.2857  0.1048 -0.8682
40259SOL     OW25587   3.407   5.761   8.889 -0.6139 -0.0607  0.4739
40259SOL    HW125588   3.406   5.672   8.923 -2.2370 -0.3080 -0.1294
40259SOL    HW225589   3.484   5.766   8.834  0.6254 -0.4414  2.1062
40260SOL     OW25590   8.212   0.691   1.018 -0.2295  0.0609  0.1176
40260SOL    HW125591   8.234   0.784   1.023 -1.5977  0.3802  0.7341
40260SOL    HW225592   8.278   0.648   1.071 -0.5705  0.8834  1.2467
40261SOL     OW25593   2.771   7.683   3.859 -0.2527  0.0751  0.0866
40261SOL    HW125594   2.851   7.704   3.908 -0.5814  0.4792  0.4467
40261SOL    HW225595   2.704   7.671   3.926 -0.9204  1.5184 -0.2945
40262SOL     OW25596   4.126   1.770   3.043  0.2327 -0.3535  0.0081
40262SOL    HW125597   4.171   1.853   3.060  1.2788 -1.0790  0.9208
40262SOL    HW225598   4.068   1.757   3.118 -1.7541  0.6845 -1.2686
40263SOL     OW25599   8.237  10.943   2.843  0.2351 -0.1053  0.4448
40263SOL    HW125600   8.180  10.874   2.878  0.7091 -1.1702 -0.7893
40263SOL    HW225601   8.326  10.913   2.862  0.4324  0.5121  0.5113
40264SOL     OW25602  12.078   0.278  10.164 -0.6735  0.1029 -0.1717
40264SOL    HW125603  12.149   0.302  10.105  0.5789  0.8948  1.6037
40264SOL    HW225604  12.080   0.182  10.166  0.8963  0.1210  0.4570
40265SOL     OW25605   1.571  10.944   9.833  0.3675  0.1641  0.6957
40265SOL    HW125606   1.519  10.866   9.813  0.0334  0.9270 -1.8224
40265SOL    HW225607   1.538  11.011   9.772  2.6894  1.3689  0.6524
40266SOL     OW25608   5.787   1.852   9.991 -0.2896  0.6975 -0.1306
40266SOL    HW125609   5.744   1.831   9.908 -0.1426  0.2446 -0.0914
40266SOL    HW225610   5.819   1.941   9.979 -2.8136  1.7921  0.4840
40267SOL     OW25611   3.866   6.743   5.557 -0.6328 -0.5426  0.1302
40267SOL    HW125612   3.858   6.715   5.466  0.6993  0.2119 -0.2440
40267SOL    HW225613   3.895   6.665   5.604 -0.3051 -0.6697 -0.2808
40268SOL     OW25614  10.705   8.637   9.697 -0.1465 -0.2823 -0.0723
40268SOL    HW125615  10.664   8.629   9.784  0.3065  2.0268  0.4164
40268SOL    HW225616  10.702   8.548   9.661 -1.8867 -0.9704  1.5990
40269SOL     OW25617   8.920  11.448  12.216  0.6575  0.0865 -0.5248
40269SOL    HW125618   8.987  11.408  12.160  0.1845 -0.3590 -0.7896
40269SOL    HW225619   8.968  11.490  12.286  1.1841 -0.7895 -0.3513
40270SOL     OW25620   3.378   8.730   8.221  1.3390 -0.0919  0.1482
40270SOL    HW125621   3.379   8.635   8.234  0.5760 -0.0391  0.6673
40270SOL    HW225622   3.329   8.743   8.140  2.1323 -0.1766 -0.3547
40271SOL     OW25623   7.804   2.101   7.451 -0.0635  0.2181  0.2497
40271SOL    HW125624   7.792   2.194   7.470  0.3761  0.2121  0.5768
40271SOL    HW225625   7.897   2.085   7.468  0.0725 -0.0695 -0.7148
40272SOL     OW25626   6.620   9.994  11.892  0.4843  0.0844 -0.6636
40272SOL    HW125627   6.529   9.968  11.881  1.2310 -2.7803 -1.0776
40272SOL    HW225628   6.642   9.966  11.981  0.9172  0.9458 -0.4877
40273SOL     OW25629   2.752   4.203   7.229  0.3930 -0.2410 -0.1364
40273SOL    HW125630   2.821   4.255   7.269  1.2322 -0.8399 -0.7564
40273SOL    HW225631   2.687   4.192   7.298 -0.4700  2.7120 -0.3755
40274SOL     OW25632   3.534  10.882   5.715 -0.4349 -0.6036  0.7580
40274SOL    HW125633   3.538  10.978   5.720  1.2727 -0.5495 -0.5508
40274SOL    HW225634   3.531  10.854   5.807  1.2324  0.6964  1.2808
40275SOL     OW25635   3.640   3.627   7.397  0.7488 -0.3604  0.2368
40275SOL    HW125636   3.662   3.583   7.315 -0.0357 -1.1955  0.4559
40275SOL    HW225637   3.566   3.684   7.374  1.0512  0.0130  0.1907
40276SOL     OW25638  11.387   2.974   4.793 -0.2232 -0.1075  0.0635
40276SOL    HW125639  11.295   2.997   4.809 -0.1133 -0.0546  0.6649
40276SOL    HW225640  11.385   2.917   4.716 -0.4945  1.9725 -1.5640
40277SOL     OW25641   7.825  10.113   6.044  0.1033 -0.0267  0.4258
40277SOL    HW125642   7.844  10.200   6.079 -0.1210  0.9248 -1.6956
40277SOL    HW225643   7.753  10.081   6.099  0.6669  0.7839  1.6937
40278SOL     OW25644  10.686   7.020   6.385 -0.1734 -0.5416 -0.9118
40278SOL    HW125645  10.704   6.945   6.328 -1.3992 -0.5073 -1.3549
40278SOL    HW225646  10.591   7.022   6.393 -0.0490 -0.2598  0.7723
40279SOL     OW25647   9.241   0.344   8.636 -0.5704  0.7935  0.2133
40279SOL    HW125648   9.247   0.324   8.730 -0.4258  0.6067  0.1646
40279SOL    HW225649   9.286   0.429   8.627  0.5437  0.2084  0.1173
40280SOL     OW25650   2.737   8.228   9.368  0.5637  0.1642  0.0644
40280SOL    HW125651   2.688   8.253   9.447  0.5581 -2.0087  0.8008
40280SOL    HW225652   2.828   8.246   9.390  0.5082  0.0930  0.3590
40281SOL     OW25653   4.013  12.639   2.745  0.5584 -0.3173  0.2757
40281SOL    HW125654   4.066  12.622   2.823 -1.0472 -0.8253  1.2968
40281SOL    HW225655   3.960  12.715   2.767 -0.4576 -0.9148 -0.0113
40282SOL     OW25656   1.148   1.990  10.679  0.2519  0.3459 -0.0332
40282SOL    HW125657   1.120   2.064  10.733 -0.0709  0.5566 -0.4786
40282SOL    HW225658   1.070   1.935  10.671 -0.1673  1.0838 -1.5179
40283SOL     OW25659  11.650   9.100   9.871 -0.3901  0.2445 -0.1836
40283SOL    HW125660  11.585   9.170   9.876 -1.6084 -0.9006  1.0093
40283SOL    HW225661  11.609   9.034   9.815  1.0744  0.7676 -1.9630
40284SOL     OW25662   7.019   7.367   5.963  0.0918 -0.1316  0.6683
40284SOL    HW125663   7.079   7.390   6.034  0.2294  1.7251  0.0008
40284SOL    HW225664   7.061   7.401   5.884 -0.1218 -2.0547 -0.3241
40285SOL     OW25665   9.440   2.655  12.396  0.0230 -0.3676 -0.0940
40285SOL    HW125666   9.456   2.598  12.321 -0.9002 -0.6620 -0.0737
40285SOL    HW225667   9.527   2.688  12.419  0.5572 -1.6284 -0.2114
40286SOL     OW25668  11.741   8.935  12.036  0.0342  0.0069  0.5013
40286SOL    HW125669  11.713   8.895  11.954  0.7434  0.4447  0.0355
40286SOL    HW225670  11.804   8.873  12.073 -0.1275 -0.0935  0.6049
40287SOL     OW25671   4.312   2.082   4.557  0.2078  0.8716 -0.4446
40287SOL    HW125672   4.377   2.021   4.522 -1.1144 -0.0473 -1.4455
40287SOL    HW225673   4.283   2.041   4.639  1.9257  2.0482  0.7991
40288SOL     OW25674  10.081   9.778   7.018  0.0601  0.4294  0.4925
40288SOL    HW125675  10.140   9.730   6.960  0.6017  1.2360  0.3710
40288SOL    HW225676  10.127   9.782   7.102 -0.1497  0.4114  0.6096
40289SOL     OW25677  11.962   7.802  11.531  0.3029 -0.2254  0.0861
40289SOL    HW125678  11.945   7.749  11.609  0.0582  0.0968  0.2533
40289SOL    HW225679  12.023   7.870  11.560 -0.9012  0.7678  0.3614
40290SOL     OW25680  10.311   5.094   6.126 -0.6303 -0.7326 -0.6516
40290SOL    HW125681  10.282   5.180   6.154 -2.0293 -0.7308 -1.9077
40290SOL    HW225682  10.304   5.039   6.204 -0.1427  0.1768  0.0486
40291SOL     OW25683   3.321   0.219  12.642  0.0561 -0.0663 -0.1122
40291SOL    HW125684   3.388   0.230  12.710  1.0156  1.4028 -1.2281
40291SOL    HW225685   3.336   0.292  12.582 -2.4208  0.1767 -0.5384
40292SOL     OW25686   8.441   8.615   9.487  0.5291  0.1101  0.8042
40292SOL    HW125687   8.451   8.701   9.446 -0.1851  0.2714  0.9490
40292SOL    HW225688   8.432   8.554   9.414  2.8344 -0.1043  0.6525
40293SOL     OW25689   4.815   2.422   2.208 -1.1073  0.2939  0.6949
40293SOL    HW125690   4.823   2.326   2.213 -0.4399  0.3807  1.3831
40293SOL    HW225691   4.905   2.454   2.209 -1.3189  0.9271  0.1703
40294SOL     OW25692   7.683   3.812   6.983 -0.0111  0.0249  0.2318
40294SOL    HW125693   7.659   3.871   6.912  0.4559 -0.9906 -0.8066
40294SOL    HW225694   7.620   3.739   6.976  0.2845 -0.2741  0.6169
40295SOL     OW25695   4.913  11.391   7.414  0.0959  0.2693 -0.0063
40295SOL    HW125696   4.941  11.480   7.393  1.6486 -0.4680 -1.2474
40295SOL    HW225697   4.920  11.344   7.332 -1.6456 -0.8042  0.4097
40296SOL     OW25698   9.177   4.842   7.806  0.2271 -0.2309  0.3421
40296SOL    HW125699   9.101   4.885   7.766 -0.6005 -2.0323 -0.1629
40296SOL    HW225700   9.139   4.770   7.857  1.5221 -0.2639  1.3080
40297SOL     OW25701   5.723   8.099   7.298 -0.1930  0.5003 -0.5285
40297SOL    HW125702   5.755   8.016   7.264 -0.2233  1.1356 -2.1930
40297SOL    HW225703   5.683   8.077   7.382  0.1042 -1.1005 -0.7823
40298SOL     OW25704   0.371   9.864  11.842 -0.2379  0.4924 -0.4275
40298SOL    HW125705   0.409   9.924  11.778  1.1744  1.7124  1.4357
40298SOL    HW225706   0.276   9.874  11.831 -0.0376  2.6759 -0.5886
40299SOL     OW25707   6.776   9.385   9.586  0.3451 -0.0308 -0.2925
40299SOL    HW125708   6.840   9.456   9.595  0.7152 -0.5555  1.7439
40299SOL    HW225709   6.748   9.366   9.676 -0.3432 -1.9240 -0.8537
40300SOL     OW25710   2.361  11.942   4.002 -0.3234  0.0187  0.5000
40300SOL    HW125711   2.416  11.865   4.012 -0.7957 -0.2792  0.8262
40300SOL    HW225712   2.420  12.016   4.021  1.0464  0.0243 -2.9852
40301SOL     OW25713   6.264   8.914   6.241 -0.0146  0.1277  0.2044
40301SOL    HW125714   6.185   8.910   6.187  0.6644  0.9976 -0.9008
40301SOL    HW225715   6.251   8.992   6.295  0.3596  0.6502 -0.4458
40302SOL     OW25716   2.829   2.604   2.374  0.3243  0.4327  0.1480
40302SOL    HW125717   2.855   2.519   2.409 -3.3412 -1.2955 -0.7653
40302SOL    HW225718   2.773   2.642   2.442  0.2117  1.1062 -0.3099
40303SOL     OW25719   5.992   8.578   5.818 -0.1285  0.1265  0.0107
40303SOL    HW125720   5.955   8.517   5.754 -2.1366  1.0779  0.1626
40303SOL    HW225721   6.086   8.569   5.809 -0.1702  1.5528 -4.4628
40304SOL     OW25722   5.122   9.159  11.997 -0.3733  0.6223  0.1328
40304SOL    HW125723   5.092   9.178  11.908  1.9582 -0.0283 -0.8589
40304SOL    HW225724   5.211   9.193  12.001  0.2213 -0.9404  1.6406
40305SOL     OW25725   9.159   6.841   2.644  0.3353  0.0857 -0.0403
40305SOL    HW125726   9.094   6.849   2.574  1.2326  1.3287 -0.7837
40305SOL    HW225727   9.203   6.926   2.645  1.3293 -0.4169  1.0633
40306SOL     OW25728   4.898   2.087   4.008  0.0516 -0.2226  0.3094
40306SOL    HW125729   4.814   2.057   3.974  0.0106 -0.7913  0.8986
40306SOL    HW225730   4.922   2.161   3.952  0.3544 -1.5719 -1.4519
40307SOL     OW25731   0.214  10.984   7.322 -0.4161  0.1585 -0.3669
40307SOL    HW125732   0.214  10.963   7.415 -0.5906  0.0303 -0.3945
40307SOL    HW225733   0.304  11.010   7.303 -0.2904 -0.1777 -0.2447
40308SOL     OW25734   2.647   5.648   2.811 -0.7211 -0.3788  0.4264
40308SOL    HW125735   2.624   5.572   2.758  3.0456 -1.1562 -0.3748
40308SOL    HW225736   2.718   5.617   2.868  0.7088  2.3772  0.3126
40309SOL     OW25737   3.469   3.531  12.566 -0.6784  0.3741  0.5496
40309SOL    HW125738   3.461   3.490  12.480  1.0185 -0.9070  0.9605
40309SOL    HW225739   3.379   3.541  12.596 -1.2184 -1.4782 -0.3256
40310SOL     OW25740   0.397   5.598   3.285  0.6164 -0.8566 -0.2915
40310SOL    HW125741   0.317   5.559   3.322  0.4672 -1.4604 -1.2306
40310SOL    HW225742   0.365   5.669   3.229  0.6954 -1.4995 -1.1582
40311SOL     OW25743   2.434   5.727   0.054  0.3220  0.0859  0.6248
40311SOL    HW125744   2.386   5.795   0.007  0.4435  0.9764  1.7423
40311SOL    HW225745   2.378   5.706   0.129  0.3787 -0.9229  0.4034
40312SOL     OW25746   8.190   0.033   5.203 -0.4095 -0.5380 -0.1009
40312SOL    HW125747   8.234   0.117   5.196 -0.4605 -0.4225  0.8710
40312SOL    HW225748   8.181   0.017   5.297 -2.4547 -0.5514 -0.2381
40313SOL     OW25749   7.579   9.056  12.582 -0.1148 -0.0595  0.6293
40313SOL    HW125750   7.588   9.107  12.662  1.0242 -0.8200  1.0124
40313SOL    HW225751   7.639   9.097  12.520 -0.1544 -0.1566  0.5266
40314SOL     OW25752   7.454   2.889   9.053 -0.3878  0.5670 -0.0637
40314SOL    HW125753   7.521   2.892   8.984  0.5914  1.7934  0.8927
40314SOL    HW225754   7.376   2.859   9.008 -0.2052  2.8035 -2.1230
40315SOL     OW25755   8.729   1.360  11.317 -0.2082  0.1246 -0.0978
40315SOL    HW125756   8.778   1.284  11.285 -0.5412  0.2491 -0.9124
40315SOL    HW225757   8.796   1.425  11.338 -0.0289  0.4216 -1.5298
40316SOL     OW25758   7.990   5.171   7.498 -0.1143 -0.1990  0.1889
40316SOL    HW125759   7.901   5.170   7.534 -0.6103 -1.2904 -0.9712
40316SOL    HW225760   8.031   5.249   7.536 -1.5337  0.2686  0.8231
40317SOL     OW25761  12.579  12.639   4.230 -0.6357  0.3451  0.1035
40317SOL    HW125762  12.590  12.649   4.324  0.4386  1.5197 -0.1203
40317SOL    HW225763  12.582  12.728   4.196  0.2358 -0.1361 -1.1643
40318SOL     OW25764   7.059   9.059   3.408 -0.2225  0.3663  0.5513
40318SOL    HW125765   7.130   9.071   3.345 -2.7987  0.0094 -2.6707
40318SOL    HW225766   7.054   9.142   3.455  0.7128  1.3222 -0.9677
40319SOL     OW25767  12.242  11.728   8.497 -0.1913 -0.0864 -0.1898
40319SOL    HW125768  12.218  11.680   8.576  2.4794  0.9419  1.3509
40319SOL    HW225769  12.237  11.662   8.427 -4.5168 -0.5862  0.2832
40320SOL     OW25770   6.465  11.834  10.508 -0.0039 -0.6241  0.0845
40320SOL    HW125771   6.375  11.861  10.486 -0.3395 -1.0713  0.8348
40320SOL    HW225772   6.518  11.913  10.494 -1.0294  0.6911  2.7317
40321SOL     OW25773   0.807   0.678   8.063  0.4231 -0.4482 -0.3890
40321SOL    HW125774   0.829   0.615   8.132 -0.2648 -0.0688  0.1945
40321SOL    HW225775   0.839   0.762   8.096 -0.8696 -0.0750 -0.0146
40322SOL     OW25776   3.761   2.537  10.748 -0.2370 -0.5603  0.4147
40322SOL    HW125777   3.669   2.519  10.767  0.1651 -1.7768  1.3161
40322SOL    HW225778   3.807   2.511  10.827  1.0174 -1.2393 -0.5089
40323SOL     OW25779  11.939   9.997   5.597 -0.3234 -0.1970 -0.3934
40323SOL    HW125780  11.871   9.988   5.530 -1.7251  0.8478  0.8219
40323SOL    HW225781  11.904   9.951   5.673  0.5145  0.0056  0.1334
40324SOL     OW25782   0.340   6.532  10.693 -0.6938 -0.6076  0.0107
40324SOL    HW125783   0.421   6.481  10.686 -0.2107  0.0172  0.8261
40324SOL    HW225784   0.323   6.537  10.787 -1.6221 -0.6234 -0.1480
40325SOL     OW25785   2.424   7.371   2.840 -0.2969 -0.0118 -0.2552
40325SOL    HW125786   2.476   7.391   2.918 -0.0177 -0.4393 -0.3265
40325SOL    HW225787   2.341   7.417   2.854  0.1880  0.8781 -0.2562
40326SOL     OW25788   3.535   1.747   0.768  0.7373  0.1097  0.3942
40326SOL    HW125789   3.471   1.788   0.826  0.0451  1.4490 -1.2539
40326SOL    HW225790   3.620   1.772   0.804  0.3229  0.6414  1.0071
40327SOL     OW25791   4.930   2.546  11.200 -0.6319 -0.1291 -0.1845
40327SOL    HW125792   4.958   2.635  11.180 -1.4489  0.2663  0.3819
40327SOL    HW225793   4.863   2.526  11.135 -0.6212 -0.2393 -0.1623
40328SOL     OW25794  10.038  12.518   0.279  0.0127  0.1676  0.1484
40328SOL    HW125795   9.961  12.463   0.291 -1.2415  2.0177  1.1412
40328SOL    HW225796  10.084  12.512   0.363 -0.1146  0.5812  0.2511
40329SOL     OW25797   5.929   7.446   4.022  0.3198  0.0041 -0.0596
40329SOL    HW125798   5.941   7.446   4.117  0.2071 -0.5508 -0.0418
40329SOL    HW225799   6.017   7.438   3.987  0.4487  1.0530 -0.0273
40330SOL     OW25800   7.371   2.110   8.330  0.3299  0.0896 -0.0078
40330SOL    HW125801   7.313   2.063   8.270  0.8263 -0.8318  0.2180
40330SOL    HW225802   7.448   2.054   8.337  0.9195  0.9280  0.3061
40331SOL     OW25803   4.950  11.798   0.737 -0.1106  0.3528 -0.7587
40331SOL    HW125804   4.985  11.821   0.651  0.8237  3.2732  0.2650
40331SOL    HW225805   4.967  11.876   0.791  0.8763 -1.9436  2.5424
40332SOL     OW25806   2.156   5.277  11.472  0.0629  0.3162 -0.1884
40332SOL    HW125807   2.169   5.182  11.482  1.2393  0.4886  0.0541
40332SOL    HW225808   2.194   5.315  11.551 -0.1618  1.0131 -0.4083
40333SOL     OW25809   1.801   9.873   6.038 -0.1150 -0.0228  0.5094
40333SOL    HW125810   1.779   9.785   6.009 -1.3274  0.0440  1.1427
40333SOL    HW225811   1.807   9.866   6.133 -1.5518  0.8179  0.6955
40334SOL     OW25812   0.406  10.745   0.340  0.1121  0.0483  0.1233
40334SOL    HW125813   0.465  10.723   0.268 -0.2586 -2.3704  0.4683
40334SOL    HW225814   0.320  10.713   0.312 -0.6500  1.7049  0.4677
40335SOL     OW25815   8.336   5.677  10.211  0.1402 -0.5152 -0.1933
40335SOL    HW125816   8.246   5.645  10.213 -0.7199  1.7619  0.5713
40335SOL    HW225817   8.347   5.713  10.123 -0.0583  0.1272  0.0410
40336SOL     OW25818  11.653   7.582  11.461  0.3713 -0.2180  0.1895
40336SOL    HW125819  11.701   7.650  11.508  1.5836 -0.9636  0.0605
40336SOL    HW225820  11.631   7.622  11.377  1.5429 -0.1344 -0.0974
40337SOL     OW25821   5.423   5.670   7.086  0.4301 -0.5482  0.6288
40337SOL    HW125822   5.515   5.680   7.109  0.4722 -0.8023  0.5712
40337SOL    HW225823   5.406   5.742   7.025  0.7116 -0.7778  0.2795
40338SOL     OW25824   2.210   4.618   6.946 -0.4175 -0.0524 -0.0324
40338SOL    HW125825   2.284   4.569   6.912  1.2269  0.9932  1.8344
40338SOL    HW225826   2.191   4.683   6.879 -0.0588 -0.7380 -0.8054
40339SOL     OW25827   0.051   1.625   4.685  0.4891  0.4284 -0.3285
40339SOL    HW125828   0.054   1.716   4.715  1.8485 -0.3974  2.3192
40339SOL    HW225829   0.021   1.575   4.762  0.0759 -1.4176 -1.6163
40340SOL     OW25830   8.196   1.868   3.385  0.0777  0.4786  0.3213
40340SOL    HW125831   8.112   1.872   3.338 -0.6260 -1.1520  1.3374
40340SOL    HW225832   8.216   1.775   3.390  2.0116  0.8471  0.0628
40341SOL     OW25833   8.581   6.826   2.973  0.1103 -0.1401 -0.0472
40341SOL    HW125834   8.647   6.895   2.969  1.3035 -1.2026  0.5286
40341SOL    HW225835   8.543   6.835   3.060 -1.7579  1.5252 -0.9516
40342SOL     OW25836  10.321   9.937   0.593  0.7721  0.4191  0.0925
40342SOL    HW125837  10.304  10.020   0.636  2.0909  0.8196 -0.0955
40342SOL    HW225838  10.351   9.961   0.505 -0.5960 -0.3373 -0.6116
40343SOL     OW25839  12.560   2.906   0.793  0.0652 -0.3567  0.3150
40343SOL    HW125840  12.525   2.826   0.754 -1.0060 -0.6584  1.8322
40343SOL    HW225841  12.624   2.937   0.729  0.3855 -2.3200 -0.3836
40344SOL     OW25842   9.270   7.958   1.485  0.3485  0.2498  0.3316
40344SOL    HW125843   9.225   7.882   1.450  1.6416 -0.5444  0.3157
40344SOL    HW225844   9.220   7.982   1.563 -1.6951  1.1325 -1.1556
40345SOL     OW25845   3.818   5.481   5.717 -0.3623  0.3684  0.0438
40345SOL    HW125846   3.874   5.407   5.696  0.6116  1.1747 -0.3120
40345SOL    HW225847   3.872   5.536   5.774 -1.2810  0.5214  0.7892
40346SOL     OW25848  11.304   0.929   1.577 -0.2576 -0.2310  0.1214
40346SOL    HW125849  11.244   0.909   1.649  1.9030 -1.1111  1.8107
40346SOL    HW225850  11.362   0.853   1.573  2.3001  1.5642  0.3359
40347SOL     OW25851   2.058   7.340   7.792  0.2277  0.3682 -0.3372
40347SOL    HW125852   2.153   7.330   7.789  0.1498 -1.1234  1.1039
40347SOL    HW225853   2.042   7.400   7.866  0.0680  1.2774 -1.0910
40348SOL     OW25854   0.360  12.513   2.752 -0.3911 -0.2741 -0.2690
40348SOL    HW125855   0.391  12.603   2.750  3.1496 -1.3582 -1.1172
40348SOL    HW225856   0.353  12.492   2.846  0.7417  0.3180 -0.0350
40349SOL     OW25857   0.231   1.683   3.507  0.5650  0.0359  0.5463
40349SOL    HW125858   0.274   1.769   3.511  0.5761  0.2203 -1.9348
40349SOL    HW225859   0.143   1.698   3.541  0.6942  0.9421  0.4945
40350SOL     OW25860   6.114   5.391   5.616 -0.2832 -0.3216 -0.1514
40350SOL    HW125861   6.122   5.390   5.521 -1.7919 -0.3784 -0.2984
40350SOL    HW225862   6.166   5.467   5.643 -0.5601  0.2220 -1.0963
40351SOL     OW25863  11.574   5.866   2.457  0.1832 -0.3954 -0.2130
40351SOL    HW125864  11.497   5.910   2.492  0.1704 -0.0896 -0.6106
40351SOL    HW225865  11.603   5.808   2.527  0.8784  1.1022  0.8004
40352SOL     OW25866   0.931   9.867   0.404  0.0136 -0.1905 -0.1697
40352SOL    HW125867   0.913   9.773   0.413  0.9926 -0.3581  0.1912
40352SOL    HW225868   0.921   9.884   0.310 -1.5375 -0.3490 -0.0489
40353SOL     OW25869   2.071  12.084   9.268  0.0412  0.2406  0.6688
40353SOL    HW125870   2.027  12.001   9.250  2.9238 -1.4655  0.8489
40353SOL    HW225871   2.015  12.127   9.334 -1.1713 -1.8733  1.1020
40354SOL     OW25872   1.953   4.956   1.238 -0.7225 -0.0845  0.2931
40354SOL    HW125873   1.864   4.922   1.233 -0.1315 -1.6221 -0.6112
40354SOL    HW225874   1.991   4.911   1.314 -0.4801 -0.0623  0.1859
40355SOL     OW25875   2.969   1.223   4.620 -0.2406 -0.0240  0.5326
40355SOL    HW125876   3.046   1.253   4.572  0.1844 -0.6642  0.8104
40355SOL    HW225877   2.898   1.279   4.588  0.2060  0.1300 -0.2079
40356SOL     OW25878  10.133   1.474  10.503  0.0561  0.3193  0.2495
40356SOL    HW125879  10.130   1.568  10.483  1.2318  0.5399  0.9941
40356SOL    HW225880  10.184   1.436  10.432 -0.4987  0.2239 -0.1020
40357SOL     OW25881  10.497   1.732   0.808 -0.4991 -0.0116  0.6229
40357SOL    HW125882  10.498   1.795   0.736  0.8482 -0.1154  0.5248
40357SOL    HW225883  10.450   1.656   0.773  3.2827 -1.6014 -1.5760
40358SOL     OW25884   4.752   7.058  10.175 -0.4790  0.3609  0.0460
40358SOL    HW125885   4.821   7.018  10.123  0.6505  0.8410  1.1265
40358SOL    HW225886   4.751   7.150  10.147  0.9135  0.9043  1.5705
40359SOL     OW25887   1.552   6.187  11.288 -0.0636 -0.6050  0.4343
40359SOL    HW125888   1.497   6.144  11.222 -1.4656  2.6514 -0.7469
40359SOL    HW225889   1.618   6.234  11.237  0.9467 -0.7455  1.5905
40360SOL     OW25890   4.499   5.889   5.609  0.5023 -0.4865  0.6221
40360SOL    HW125891   4.404   5.902   5.612  0.3008 -1.0785 -1.5399
40360SOL    HW225892   4.516   5.863   5.519  3.1335  2.7232  0.0187
40361SOL     OW25893   0.215  10.602   2.464 -0.0225  0.1003 -0.1758
40361SOL    HW125894   0.159  10.632   2.535 -0.0031 -0.4572  0.0779
40361SOL    HW225895   0.257  10.523   2.497  0.5904  0.2706 -0.5196
40362SOL     OW25896   3.181   5.308   8.543  0.1453  0.0015 -0.0836
40362SOL    HW125897   3.259   5.269   8.584 -0.5091 -0.4707  0.7472
40362SOL    HW225898   3.112   5.243   8.558 -0.2091 -0.0043 -1.6172
40363SOL     OW25899   5.286   7.592  11.516  0.6106  0.0179 -0.2243
40363SOL    HW125900   5.267   7.670  11.463  0.3475 -2.0658 -3.5188
40363SOL    HW225901   5.219   7.529  11.490  0.5598 -1.2612  2.6352
40364SOL     OW25902  10.534   2.968  10.397  0.2339  0.1987  0.2886
40364SOL    HW125903  10.575   3.054  10.387  1.6550 -0.4264  0.6150
40364SOL    HW225904  10.538   2.949  10.490 -1.0542  0.2296  0.3696
40365SOL     OW25905  12.117   9.349   6.728 -1.1296 -0.2113 -0.2455
40365SOL    HW125906  12.098   9.441   6.711 -2.0678 -0.6016 -1.4462
40365SOL    HW225907  12.168   9.350   6.809  0.2577  1.4788 -1.0561
40366SOL     OW25908  11.034   3.785   6.353 -0.5409  0.3566  0.2670
40366SOL    HW125909  11.093   3.852   6.319  0.0547  0.1246  0.8362
40366SOL    HW225910  11.091   3.721   6.394 -1.3108  1.7391  3.8052
40367SOL     OW25911   1.609   4.202  10.653  0.2030 -0.0311 -0.0744
40367SOL    HW125912   1.556   4.268  10.697  1.6532 -0.1950  2.0617
40367SOL    HW225913   1.677   4.179  10.716  0.0010 -3.3213 -0.8364
40368SOL     OW25914  10.100   3.639   3.565 -0.0106 -0.2169  0.1761
40368SOL    HW125915  10.115   3.679   3.651  2.1344 -0.4906  0.0019
40368SOL    HW225916  10.147   3.555   3.569 -0.9996 -0.8456 -0.8260
40369SOL     OW25917   8.583   2.304   7.283  0.1100  0.1523 -0.6228
40369SOL    HW125918   8.662   2.262   7.249  1.3691  1.6387  0.3438
40369SOL    HW225919   8.542   2.346   7.207  1.1671  0.7867 -0.8500
40370SOL     OW25920   4.900   6.796   7.298 -0.7172  0.5791 -0.4056
40370SOL    HW125921   4.957   6.811   7.373  0.1897 -1.1412 -0.6877
40370SOL    HW225922   4.812   6.792   7.334 -0.3609  0.4075  0.4717
40371SOL     OW25923   3.256   5.937   7.544 -0.2319 -0.3108  0.3111
40371SOL    HW125924   3.208   5.898   7.472  0.3050  0.1935 -0.3333
40371SOL    HW225925   3.284   5.862   7.597  2.6389 -1.1243 -2.0339
40372SOL     OW25926   3.847   2.236   1.639 -0.0845 -0.7964 -0.6377
40372SOL    HW125927   3.793   2.235   1.718  1.8973 -3.2179  0.8554
40372SOL    HW225928   3.919   2.295   1.661  0.0478 -0.8339 -0.9767
40373SOL     OW25929   4.030   9.617   2.900  0.0980  0.8133  0.0912
40373SOL    HW125930   4.044   9.701   2.856 -0.1268  1.2699  0.8610
40373SOL    HW225931   3.936   9.600   2.890  0.0297  0.9631  0.4603
40374SOL     OW25932   5.651   4.268   8.646 -0.2494 -0.3092 -0.0022
40374SOL    HW125933   5.563   4.239   8.622  0.1200 -0.6239 -1.0404
40374SOL    HW225934   5.638   4.356   8.682 -1.0983 -0.7649  0.8549
40375SOL     OW25935   2.918   2.701   7.170 -0.5906  0.0816 -0.0804
40375SOL    HW125936   2.829   2.735   7.169 -0.3267  0.8045 -0.5238
40375SOL    HW225937   2.967   2.761   7.113  0.1237 -0.4453 -0.0438
40376SOL     OW25938  12.447   8.483  10.377 -0.1652  0.3554  0.7718
40376SOL    HW125939  12.471   8.536  10.301  0.6943 -1.8753 -0.6120
40376SOL    HW225940  12.352   8.474  10.371 -0.0464 -0.2658 -0.3911
40377SOL     OW25941   9.767   7.734   4.012  0.1559 -0.1767 -0.1881
40377SOL    HW125942   9.703   7.692   4.069  0.3858 -0.0121  0.1977
40377SOL    HW225943   9.846   7.680   4.020  0.7412  0.7852  1.0063
40378SOL     OW25944   6.453  12.112   8.884  0.2817 -0.0115  0.1283
40378SOL    HW125945   6.458  12.129   8.978  1.2723 -1.9540  0.4832
40378SOL    HW225946   6.542  12.128   8.852 -0.1315  1.0001 -0.5771
40379SOL     OW25947   8.455   2.260   5.467 -0.2466 -0.2145 -0.4152
40379SOL    HW125948   8.435   2.285   5.557 -0.2437 -1.0246 -0.1778
40379SOL    HW225949   8.433   2.337   5.415 -0.8831  0.0305  0.2013
40380SOL     OW25950   7.830   0.009   2.696 -0.1680  0.2316  0.7436
40380SOL    HW125951   7.874  -0.014   2.614  1.6815  0.4483  1.6247
40380SOL    HW225952   7.838  -0.070   2.749  0.5793  0.7960  1.4868
40381SOL     OW25953   1.193   6.493   4.449 -0.2263 -0.0314  0.2973
40381SOL    HW125954   1.115   6.443   4.474 -0.0823  0.3542  1.6039
40381SOL    HW225955   1.160   6.581   4.433 -0.0830  0.1076  0.7511
40382SOL     OW25956   4.180   5.709  11.744 -0.1062  0.2755 -0.4569
40382SOL    HW125957   4.188   5.719  11.838 -0.8318  1.3502 -0.4914
40382SOL    HW225958   4.176   5.798  11.710  1.2138 -0.0787 -1.6189
40383SOL     OW25959   8.518   3.959   8.539 -0.4075 -0.7058  0.0290
40383SOL    HW125960   8.600   3.949   8.587 -0.3265 -0.9847 -0.1634
40383SOL    HW225961   8.546   3.969   8.447 -0.6063 -1.2500 -0.0932
40384SOL     OW25962   9.444   5.949   5.979  0.3343 -0.0999  0.2513
40384SOL    HW125963   9.386   5.994   5.917 -0.9128 -0.9028  0.7924
40384SOL    HW225964   9.521   5.925   5.927  0.6933  1.9534 -0.2226
40385SOL     OW25965  11.616   4.824  10.291  0.2195 -0.0048 -0.1586
40385SOL    HW125966  11.534   4.823  10.341  0.1349  1.9836 -0.1843
40385SOL    HW225967  11.645   4.733  10.291 -0.9358 -0.4201  1.5826
40386SOL     OW25968   1.001   1.315   8.489  0.2254  0.0906 -0.0574
40386SOL    HW125969   0.951   1.393   8.516  0.9750  0.7391 -0.5085
40386SOL    HW225970   1.060   1.347   8.421  0.9605 -0.7567  0.1675
40387SOL     OW25971  10.044   7.431   8.835  0.2382 -0.1842  0.2905
40387SOL    HW125972   9.992   7.392   8.765  0.4168  0.9777 -0.5141
40387SOL    HW225973  10.000   7.514   8.854  1.6848  0.7685 -0.3251
40388SOL     OW25974   2.517   1.182   4.231  0.3554 -0.2297 -0.2968
40388SOL    HW125975   2.434   1.200   4.187  0.5616 -0.5756 -0.8331
40388SOL    HW225976   2.555   1.268   4.248  0.8393 -0.0996 -1.8772
40389SOL     OW25977   9.791   2.895   6.598  0.2032 -0.0239 -0.1641
40389SOL    HW125978   9.870   2.843   6.582  0.3586 -0.4595  1.7991
40389SOL    HW225979   9.824   2.982   6.618  0.1541 -0.0819  0.1656
40390SOL     OW25980   4.369   4.692   1.424  0.1765 -0.3147 -0.3449
40390SOL    HW125981   4.401   4.639   1.352 -0.5866 -1.0248 -0.1747
40390SOL    HW225982   4.292   4.737   1.389 -0.4745 -1.0211  0.1433
40391SOL     OW25983   9.054   6.407   5.935  0.1567 -0.1216 -0.2563
40391SOL    HW125984   9.012   6.489   5.960  0.7928  0.8371 -2.0799
40391SOL    HW225985   9.013   6.384   5.851 -0.5200 -2.0928  0.5667
40392SOL     OW25986   3.016  11.742   6.357  0.3130  0.5675  0.2245
40392SOL    HW125987   3.016  11.815   6.419  1.5697  0.0830  0.8362
40392SOL    HW225988   3.069  11.674   6.399  0.3374 -0.1692 -0.9323
40393SOL     OW25989   4.458   9.114   6.812  0.1885 -0.3071  0.1706
40393SOL    HW125990   4.531   9.176   6.813  1.1436 -1.3786  0.6608
40393SOL    HW225991   4.499   9.030   6.832 -1.2890 -0.8512  1.0445
40394SOL     OW25992   3.006   3.762   9.714 -0.1368 -0.2468  0.6250
40394SOL    HW125993   2.981   3.851   9.688 -1.9713 -1.1962 -1.1268
40394SOL    HW225994   2.952   3.705   9.659  1.2176 -2.4633  1.4707
40395SOL     OW25995   5.815   2.301   5.394 -0.3889  0.3747  0.5220
40395SOL    HW125996   5.872   2.315   5.319 -1.4948 -1.5932 -0.7697
40395SOL    HW225997   5.790   2.389   5.422  0.5541  1.1757 -1.0063
40396SOL     OW25998   4.896   1.008  12.149 -0.1748  0.3867 -0.5880
40396SOL    HW125999   4.839   0.947  12.102 -1.1728  1.3332 -0.6367
40396SOL    HW226000   4.902   1.085  12.092  1.2832  0.2494 -0.6505
40397SOL     OW26001   8.169  11.687   5.554 -0.3466 -0.1209  0.0108
40397SOL    HW126002   8.102  11.634   5.510 -1.3242  0.7857  0.3626
40397SOL    HW226003   8.216  11.730   5.483 -0.3468 -0.5175 -0.2300
40398SOL     OW26004   2.028  11.727   7.304  0.6955  0.0508 -0.0204
40398SOL    HW126005   2.025  11.759   7.394 -1.6826 -0.2221  0.0740
40398SOL    HW226006   2.015  11.633   7.312 -0.5345  0.1488 -0.6664
40399SOL     OW26007   7.041   4.621   0.150 -0.6806 -0.1786 -0.7260
40399SOL    HW126008   7.088   4.685   0.096 -1.8435  0.8653 -0.5290
40399SOL    HW226009   7.026   4.547   0.090  0.9124 -0.4260 -0.8760
40400SOL     OW26010   8.789   1.133   3.355 -0.8741 -0.1090  0.6165
40400SOL    HW126011   8.825   1.044   3.351 -1.0506 -0.1822  0.6616
40400SOL    HW226012   8.836   1.174   3.427 -0.1936  0.1024  0.0602
40401SOL     OW26013   8.041  11.293   5.823  0.4553  0.1432  0.0904
40401SOL    HW126014   8.109  11.292   5.890  1.5292  0.5245 -0.9607
40401SOL    HW226015   8.088  11.308   5.741 -0.8971  0.4344 -0.6658
40402SOL     OW26016   9.258   2.713   9.871  0.3825  0.7448 -0.5878
40402SOL    HW126017   9.272   2.696   9.778 -1.5774 -0.4609 -0.7003
40402SOL    HW226018   9.264   2.628   9.913  2.4642  1.4077  0.6348
40403SOL     OW26019   5.936   3.892   1.134  0.0602 -0.2693  0.4784
40403SOL    HW126020   5.902   3.838   1.206  3.5597 -1.9843  1.0698
40403SOL    HW226021   6.009   3.941   1.174  0.2470  0.9756 -1.2782
40404SOL     OW26022   1.279   9.953   3.914 -0.1494  0.0441  0.6096
40404SOL    HW126023   1.210   9.983   3.856  0.8278 -0.4203 -0.8425
40404SOL    HW226024   1.342  10.025   3.917 -0.1626  0.0436  1.0669
40405SOL     OW26025   4.421  11.070   4.209  0.1603  0.5732 -0.1627
40405SOL    HW126026   4.475  10.998   4.240 -0.0873  0.6447  0.4420
40405SOL    HW226027   4.331  11.044   4.229 -0.2515 -0.3870 -2.8210
40406SOL     OW26028   2.804   2.174  11.764  0.1887  0.3546 -0.5114
40406SOL    HW126029   2.877   2.125  11.801 -0.6619 -1.5554 -1.2541
40406SOL    HW226030   2.804   2.257  11.812 -0.3481 -1.6016  3.2463
40407SOL     OW26031   2.224   0.224   2.256  0.1763 -0.6760 -0.2214
40407SOL    HW126032   2.229   0.317   2.234 -1.6274  0.0349  1.9833
40407SOL    HW226033   2.280   0.215   2.333  0.5707 -1.5181 -0.5924
40408SOL     OW26034  11.994   9.942  11.368 -0.7276  0.4682 -0.0028
40408SOL    HW126035  12.028  10.031  11.371  1.0665 -0.1763 -0.3128
40408SOL    HW226036  12.069   9.887  11.343 -1.7743 -1.1379  0.1814
40409SOL     OW26037   1.867   9.102   6.328 -0.2036  0.1778  0.5511
40409SOL    HW126038   1.877   9.075   6.237 -1.4308 -1.8966  0.9641
40409SOL    HW226039   1.934   9.053   6.375 -1.6284 -1.2832  1.1452
40410SOL     OW26040   7.185   6.141   8.528  0.0486  0.1001 -0.0774
40410SOL    HW126041   7.210   6.143   8.620  0.2106  1.6905 -0.1362
40410SOL    HW226042   7.092   6.165   8.528  0.3400  1.3033 -0.3917
40411SOL     OW26043   8.188   7.718   8.053  0.0530 -0.0718 -0.0820
40411SOL    HW126044   8.260   7.667   8.092  0.2802  0.1826 -0.1696
40411SOL    HW226045   8.200   7.708   7.959 -0.0779 -0.0985 -0.0958
40412SOL     OW26046   0.774  12.159   2.020 -0.8083 -0.3569 -0.3259
40412SOL    HW126047   0.739  12.083   1.973  0.6251 -0.4517 -1.2872
40412SOL    HW226048   0.826  12.122   2.091  1.0368 -0.3615 -1.6175
40413SOL     OW26049   6.613  11.248  11.040  0.0119  0.3005  0.3130
40413SOL    HW126050   6.597  11.337  11.009 -0.9469 -0.4447 -1.4442
40413SOL    HW226051   6.547  11.194  10.996 -0.3099 -1.1231  2.3584
40414SOL     OW26052   8.488   8.319   7.824  0.1130  0.3346  0.2635
40414SOL    HW126053   8.529   8.374   7.892 -0.4595  0.0324  0.8692
40414SOL    HW226054   8.428   8.262   7.873 -0.2829  0.0859 -0.4993
40415SOL     OW26055   1.857   3.474   4.404  0.3381 -0.4551 -0.0315
40415SOL    HW126056   1.788   3.412   4.383  0.1577  0.1138 -1.1881
40415SOL    HW226057   1.910   3.429   4.470 -2.8910  0.2825  3.4424
40416SOL     OW26058  10.069   8.347  10.048 -0.2286  0.1114 -0.2064
40416SOL    HW126059  10.025   8.419  10.003  0.2318  0.5821  0.0804
40416SOL    HW226060  10.054   8.271   9.992 -0.6398  0.4468 -0.5632
40417SOL     OW26061   0.785  11.570  10.162 -0.2991  0.1974 -0.3004
40417SOL    HW126062   0.845  11.528  10.223  1.4081  1.6778 -0.8826
40417SOL    HW226063   0.708  11.512  10.160 -1.7959  1.4454  5.3986
40418SOL     OW26064   2.111  11.572   8.803 -0.0149 -0.2425 -0.3877
40418SOL    HW126065   2.194  11.613   8.827 -0.7660  0.0145  2.0042
40418SOL    HW226066   2.062  11.640   8.757  0.0287  0.5129  0.6626
40419SOL     OW26067   5.104   7.253   4.783  0.5800  0.1469  0.2101
40419SOL    HW126068   5.152   7.209   4.713  0.4306 -0.7282  0.6395
40419SOL    HW226069   5.020   7.207   4.786  0.6345  0.0883  1.0414
40420SOL     OW26070   8.971  11.279   4.731  0.1415  0.3155 -0.0354
40420SOL    HW126071   9.056  11.282   4.775  0.4326 -0.1614 -0.5536
40420SOL    HW226072   8.992  11.292   4.638 -0.1510 -1.6031 -0.4062
40421SOL     OW26073   0.581   3.932   5.104 -0.3660 -0.1429 -0.0736
40421SOL    HW126074   0.635   3.857   5.078 -0.5451 -0.2507 -0.1329
40421SOL    HW226075   0.526   3.950   5.028  0.2574  0.5784 -0.3732
40422SOL     OW26076   8.525   7.917  11.348 -0.0427 -0.2913  0.2748
40422SOL    HW126077   8.474   7.878  11.277  0.2787  1.2153 -0.8395
40422SOL    HW226078   8.469   7.910  11.425 -0.9141 -0.8591 -0.3939
40423SOL     OW26079   4.795   9.984   4.702 -0.0556 -0.1298 -0.3410
40423SOL    HW126080   4.748   9.987   4.619 -0.3893 -0.3889 -0.1630
40423SOL    HW226081   4.829  10.073   4.714  0.8077 -0.3303 -1.2196
40424SOL     OW26082  12.508   6.195  10.179  0.0801 -0.1468  0.6094
40424SOL    HW126083  12.558   6.195  10.261 -0.4695 -1.5328  0.9706
40424SOL    HW226084  12.574   6.207  10.111  0.4980  1.4867  1.2478
40425SOL     OW26085   7.154   6.737   2.393  0.0629 -0.1490  0.2559
40425SOL    HW126086   7.075   6.684   2.401 -0.1945  0.0228 -0.9243
40425SOL    HW226087   7.223   6.675   2.370 -0.0846 -0.0941 -0.3688
40426SOL     OW26088  10.797   0.006   9.262 -0.2194 -0.4166  0.3493
40426SOL    HW126089  10.798   0.099   9.283 -1.0048  0.0159 -1.3841
40426SOL    HW226090  10.874  -0.008   9.207 -0.8960 -0.4637 -0.6109
40427SOL     OW26091   2.864   7.568   5.088 -0.6139 -0.3298 -0.9561
40427SOL    HW126092   2.790   7.508   5.098  0.2901 -1.2366  0.6880
40427SOL    HW226093   2.930   7.535   5.149  0.0785  2.1106 -0.2988
40428SOL     OW26094   5.515  10.132   0.703  0.0972  0.3709  0.4027
40428SOL    HW126095   5.491  10.119   0.611  0.2352  1.0965  0.2569
40428SOL    HW226096   5.609  10.149   0.702 -0.0162  1.0477  0.6033
40429SOL     OW26097  10.982   8.181  11.884 -0.1971  0.3226 -0.2174
40429SOL    HW126098  11.057   8.137  11.845  0.5527 -0.2477  1.7612
40429SOL    HW226099  11.018   8.229  11.959 -1.8204 -0.2003  0.9656
40430SOL     OW26100   5.903   5.199  11.838 -0.4135 -0.2661 -0.1272
40430SOL    HW126101   5.811   5.204  11.866 -1.2972 -1.4685 -2.5553
40430SOL    HW226102   5.920   5.284  11.798 -0.0847  0.3531  1.2660
40431SOL     OW26103   1.105   2.859   4.139 -0.1206 -0.3233 -0.7395
40431SOL    HW126104   1.027   2.825   4.184 -0.3843 -0.0825 -1.0071
40431SOL    HW226105   1.103   2.817   4.053  0.6917 -1.2205 -0.3392
40432SOL     OW26106   5.342  12.549   2.684 -0.1669  0.0605 -0.4555
40432SOL    HW126107   5.272  12.515   2.741 -0.6721 -0.0948 -1.1494
40432SOL    HW226108   5.404  12.476   2.678  1.0594  0.8520  1.7120
40433SOL     OW26109  10.002   8.118   7.471 -0.2878 -0.0928  0.2568
40433SOL    HW126110   9.924   8.099   7.419 -0.8243  1.8432  0.2603
40433SOL    HW226111   9.985   8.077   7.556 -1.5663  0.7052  0.4238
40434SOL     OW26112   8.616  11.141   3.561 -0.3346 -0.4806 -0.2711
40434SOL    HW126113   8.548  11.147   3.628 -1.1921  0.0596 -1.1552
40434SOL    HW226114   8.568  11.147   3.478  0.9710  3.2586 -0.9771
40435SOL     OW26115  12.142  12.168  11.295  0.0419 -0.1730 -0.0977
40435SOL    HW126116  12.082  12.220  11.242 -0.3257 -0.4803  0.0094
40435SOL    HW226117  12.095  12.085  11.310 -0.1283  0.1461  1.2357
40436SOL     OW26118   1.621   2.154   4.461 -0.4367 -0.0718  0.3724
40436SOL    HW126119   1.679   2.090   4.501 -0.6127 -0.7569 -0.4321
40436SOL    HW226120   1.679   2.219   4.421 -0.1964 -0.9472 -0.7400
40437SOL     OW26121   4.769   0.785  12.047  0.2459  0.0755  0.3055
40437SOL    HW126122   4.733   0.739  12.123  1.2159  0.9608  1.3294
40437SOL    HW226123   4.707   0.766  11.977 -0.3765 -1.2415  1.1522
40438SOL     OW26124  10.418   5.246   0.286  0.4031  0.0258 -0.1589
40438SOL    HW126125  10.387   5.327   0.246 -0.4799  0.5862  1.5766
40438SOL    HW226126  10.345   5.217   0.342  0.8156 -1.8027 -0.4832
40439SOL     OW26127   4.629   0.271   7.235  0.2872 -0.5905 -0.1751
40439SOL    HW126128   4.597   0.330   7.303  0.6849  0.0302 -0.5241
40439SOL    HW226129   4.551   0.246   7.186  0.3682  1.4757 -1.4716
40440SOL     OW26130   9.060  12.624   2.329  0.3527  0.3200 -0.2791
40440SOL    HW126131   8.990  12.570   2.293  0.8199 -0.6607  0.2455
40440SOL    HW226132   9.015  12.697   2.371 -0.2508  0.8509 -1.7813
40441SOL     OW26133   9.505   6.408   0.898  0.7527 -0.1433 -0.1846
40441SOL    HW126134   9.486   6.464   0.974  2.2971  0.4946 -0.2458
40441SOL    HW226135   9.418   6.379   0.869  0.0311  0.7200  0.9728
40442SOL     OW26136  12.609   3.183  10.272  0.1095 -0.4402 -0.3257
40442SOL    HW126137  12.536   3.123  10.261 -1.2695  1.2111 -0.6305
40442SOL    HW226138  12.587   3.258  10.217  0.5896  1.3621  1.7889
40443SOL     OW26139   2.803   9.416   9.915 -0.5575  0.1060 -0.1910
40443SOL    HW126140   2.753   9.396   9.836 -1.8432  0.8095  0.4020
40443SOL    HW226141   2.749   9.480   9.962  1.1401  1.2702  0.2679
40444SOL     OW26142  11.584   8.736   0.941 -0.0297 -0.0814  0.4548
40444SOL    HW126143  11.562   8.799   1.009  0.4128  1.1140 -0.4654
40444SOL    HW226144  11.663   8.772   0.900 -0.3354 -0.7164 -0.7312
40445SOL     OW26145   9.464   3.582  10.064 -0.1456 -0.1687  0.5220
40445SOL    HW126146   9.429   3.644  10.001 -0.3162  0.5003  1.2594
40445SOL    HW226147   9.478   3.502  10.014  0.1049  0.4639 -0.4535
40446SOL     OW26148   6.240   4.247   0.019 -0.1759  0.1387 -1.1154
40446SOL    HW126149   6.278   4.333   0.035 -0.7248  0.2818 -0.5657
40446SOL    HW226150   6.291   4.212  -0.054  0.1604  0.8584 -1.2350
40447SOL     OW26151   5.263   7.177   4.574  0.7795  0.0441 -0.2658
40447SOL    HW126152   5.240   7.259   4.529  3.0609  0.4211 -0.8867
40447SOL    HW226153   5.276   7.114   4.503 -0.0362 -0.6300  0.1623
40448SOL     OW26154   5.137  10.035   0.488  0.4727  0.0453 -0.7810
40448SOL    HW126155   5.129  10.066   0.398 -0.5088  1.8620 -0.1207
40448SOL    HW226156   5.226  10.057   0.514  0.3490  0.7408 -0.9151
40449SOL     OW26157  12.553   1.516  11.401 -0.4016  0.0355 -0.8892
40449SOL    HW126158  12.570   1.493  11.310  2.4273 -0.0016 -0.4409
40449SOL    HW226159  12.588   1.442  11.451  0.4807  1.1982  0.2855
40450SOL     OW26160   3.762   0.185   9.226 -0.0959  0.0768  0.1561
40450SOL    HW126161   3.705   0.249   9.181 -0.1072  0.1469  0.2693
40450SOL    HW226162   3.807   0.237   9.292  1.3719  0.3737 -1.0283
40451SOL     OW26163   0.844  10.011   6.716 -0.3342 -0.3799 -0.2665
40451SOL    HW126164   0.865   9.931   6.668  0.2697 -0.1986 -0.3227
40451SOL    HW226165   0.763  10.043   6.676 -1.3180 -1.6504  0.6271
40452SOL     OW26166   0.582   9.750   6.512  0.1194 -0.5230 -0.1675
40452SOL    HW126167   0.509   9.693   6.487 -0.8466  0.8247 -0.5452
40452SOL    HW226168   0.570   9.829   6.459  0.6807  0.5573  1.2479
40453SOL     OW26169   0.575  11.561  11.184  0.2984  0.2208  0.3166
40453SOL    HW126170   0.522  11.567  11.263  1.0453 -0.1330  0.8615
40453SOL    HW226171   0.513  11.570  11.112 -0.5123 -0.3033  0.9298
40454SOL     OW26172   4.896  11.499   0.260  0.1772  0.4459  0.6069
40454SOL    HW126173   4.851  11.414   0.267  1.8675 -0.4009  1.9401
40454SOL    HW226174   4.855  11.541   0.185 -2.5515 -0.4142  1.4916
40455SOL     OW26175   7.277   9.683  12.012  0.2418  0.5058 -0.4227
40455SOL    HW126176   7.258   9.668  11.920  2.1978  0.4616 -0.8528
40455SOL    HW226177   7.263   9.777  12.024 -2.2045  0.1874 -0.1554
40456SOL     OW26178   3.417   6.658   2.760  0.2364 -0.7229  0.1119
40456SOL    HW126179   3.327   6.664   2.793  0.9962 -0.7218  2.3868
40456SOL    HW226180   3.409   6.607   2.679 -1.7963 -0.7668  0.2758
40457SOL     OW26181  10.075   0.147   2.627  0.1504  0.2857  0.1984
40457SOL    HW126182   9.982   0.127   2.633  0.1402 -0.7068 -2.0332
40457SOL    HW226183  10.109   0.082   2.565  2.2074  1.0351  0.4586
40458SOL     OW26184  10.689   6.853   0.312  0.0013 -0.4340  0.0621
40458SOL    HW126185  10.680   6.780   0.251  0.5337 -1.4894  1.2040
40458SOL    HW226186  10.603   6.896   0.310 -0.3856 -1.2020 -0.4862
40459SOL     OW26187   0.289   6.988   4.561  0.0208  0.7355 -0.1961
40459SOL    HW126188   0.251   6.901   4.558  2.0257 -0.1756 -0.8282
40459SOL    HW226189   0.322   6.997   4.651  1.8095 -0.1088 -0.7311
40460SOL     OW26190   0.527   9.601   4.956  0.3860 -0.4538  0.0465
40460SOL    HW126191   0.478   9.681   4.973  0.6561  0.0498 -1.3956
40460SOL    HW226192   0.468   9.547   4.903  1.0501 -0.2050 -0.9684
40461SOL     OW26193   6.952   5.321   7.562 -0.3039  0.0209  0.1807
40461SOL    HW126194   7.029   5.356   7.606  0.8134 -1.2759 -0.6686
40461SOL    HW226195   6.935   5.237   7.606 -2.5378  1.1637  1.7443
40462SOL     OW26196  10.286   5.940   8.437 -0.2640 -0.6518 -0.0615
40462SOL    HW126197  10.297   5.874   8.505 -0.6654  0.5551  1.2332
40462SOL    HW226198  10.201   5.979   8.454  1.2070  2.3350  1.2376
40463SOL     OW26199   4.658  11.524   9.962  0.4045  0.9653  0.3829
40463SOL    HW126200   4.684  11.512   9.871 -0.3839 -1.9651  0.4455
40463SOL    HW226201   4.563  11.534   9.959  0.2480 -0.1193  0.8801
40464SOL     OW26202   2.605   1.537   3.927  0.2609 -0.1404  0.2755
40464SOL    HW126203   2.675   1.502   3.982  1.6601 -0.0087 -1.3246
40464SOL    HW226204   2.635   1.625   3.904 -1.3459  0.6582  1.0445
40465SOL     OW26205   8.302   3.129   7.789  0.2253 -0.3919 -0.5850
40465SOL    HW126206   8.272   3.196   7.850 -1.9863 -0.6898 -1.2218
40465SOL    HW226207   8.323   3.177   7.709 -0.2018 -0.3339 -0.6639
40466SOL     OW26208  10.530   7.240   0.412  0.1210  0.1497 -0.1089
40466SOL    HW126209  10.583   7.248   0.333  0.2882  0.0771 -0.0035
40466SOL    HW226210  10.581   7.184   0.471 -0.3111 -0.3768 -0.2175
40467SOL     OW26211   0.258   6.184   8.134  0.0204  0.4329 -0.0359
40467SOL    HW126212   0.225   6.114   8.078 -1.3989  0.5104  0.6709
40467SOL    HW226213   0.292   6.249   8.073  0.6655 -0.5141 -0.7247
40468SOL     OW26214  12.010   2.956   6.620 -0.3241 -0.5740  0.0069
40468SOL    HW126215  12.093   2.994   6.648  0.4598 -1.2294 -1.3443
40468SOL    HW226216  12.022   2.937   6.527 -1.7654 -1.2751 -0.0626
40469SOL     OW26217   8.622  10.042  11.712 -0.2865  0.3221  0.2557
40469SOL    HW126218   8.662  10.068  11.629  0.0985 -1.6643 -0.2439
40469SOL    HW226219   8.696  10.022  11.769 -0.5606  0.5468  0.6958
40470SOL     OW26220  12.497   8.702   2.941  0.6217  0.1485 -0.0695
40470SOL    HW126221  12.465   8.651   2.866  0.3832 -0.0146  0.1397
40470SOL    HW226222  12.591   8.685   2.943  0.7092  0.5481 -0.6308
40471SOL     OW26223   3.835   8.414  10.991 -0.1004  0.2035  0.7861
40471SOL    HW126224   3.887   8.434  10.913 -0.7327  1.8663  0.7314
40471SOL    HW226225   3.831   8.319  10.994  0.0798  0.0903 -1.1336
40472SOL     OW26226  11.675   9.090   0.480  0.8326 -0.0774 -0.1442
40472SOL    HW126227  11.654   9.005   0.441 -0.9756 -0.2459  1.0735
40472SOL    HW226228  11.753   9.119   0.432  0.6983 -1.7767 -1.5278
40473SOL     OW26229   2.512   1.671   0.352 -0.2505 -0.1493 -0.0975
40473SOL    HW126230   2.589   1.725   0.367 -0.1810 -0.5628  1.1765
40473SOL    HW226231   2.547   1.588   0.320 -0.3896  0.6880 -2.5771
40474SOL     OW26232   4.961   6.468   8.621  0.0762  0.5958  0.5241
40474SOL    HW126233   4.927   6.401   8.563  0.3954  0.3007  0.6722
40474SOL    HW226234   5.055   6.450   8.625  0.0721  0.6809  1.0408
40475SOL     OW26235   7.077   7.020   0.409  0.1723  0.2254  0.3579
40475SOL    HW126236   7.039   6.932   0.403 -1.8479  1.1207 -0.8169
40475SOL    HW226237   7.044   7.055   0.492 -2.3755  1.2542 -0.9622
40476SOL     OW26238   1.664   6.761   4.223  0.1672  0.6623  0.1004
40476SOL    HW126239   1.743   6.711   4.242  0.1171  0.4787 -0.1646
40476SOL    HW226240   1.594   6.696   4.221 -0.2064  0.9760  1.5646
40477SOL     OW26241   6.663   9.274   2.144  0.2841  0.0762 -0.1036
40477SOL    HW126242   6.653   9.220   2.066 -1.8972  1.2121 -0.6888
40477SOL    HW226243   6.596   9.242   2.204  1.9601 -0.8112  1.3750
40478SOL     OW26244  11.640   6.607   9.062 -0.2268 -0.2420  0.0267
40478SOL    HW126245  11.557   6.606   9.014  0.0969  2.1853 -0.7360
40478SOL    HW226246  11.633   6.682   9.121  1.1455 -0.4249  0.4713
40479SOL     OW26247   6.671   8.722   5.511  0.1239  0.2986  0.3053
40479SOL    HW126248   6.638   8.712   5.422  1.3108  0.5844 -0.1757
40479SOL    HW226249   6.765   8.709   5.504  0.1195 -0.7911  1.6956
40480SOL     OW26250   0.903  10.472   3.164 -0.3270 -0.2335  0.7495
40480SOL    HW126251   0.906  10.567   3.168  1.5949 -0.1688 -0.6983
40480SOL    HW226252   0.824  10.453   3.112 -0.3135  0.6086  0.4088
40481SOL     OW26253   4.763  12.366  11.436 -0.0692  0.0984  0.1541
40481SOL    HW126254   4.843  12.378  11.488 -1.8735  1.4872  2.8572
40481SOL    HW226255   4.778  12.420  11.358  0.5293  2.8698  2.0355
40482SOL     OW26256   1.748  11.176   5.470 -0.3940  0.7174  0.1300
40482SOL    HW126257   1.718  11.086   5.462  0.1463  0.6183 -1.1810
40482SOL    HW226258   1.682  11.227   5.422  0.1741  0.7936 -0.5962
40483SOL     OW26259  10.616   7.575   5.715  0.4127  0.0378 -0.3157
40483SOL    HW126260  10.522   7.580   5.698  0.1783  0.7422  1.0322
40483SOL    HW226261  10.657   7.604   5.633 -0.6053  1.8472 -0.2467
40484SOL     OW26262   0.395  10.375   3.084  0.2285  0.4316  0.0165
40484SOL    HW126263   0.483  10.406   3.063 -0.0116  0.9800 -0.1939
40484SOL    HW226264   0.409  10.294   3.134  0.8806  1.0570  0.8802
40485SOL     OW26265   4.724   8.842   1.754 -0.6876  0.3622 -0.0616
40485SOL    HW126266   4.796   8.813   1.811 -1.4407  2.1765  1.9453
40485SOL    HW226267   4.764   8.908   1.698 -0.5779  0.7270  0.4379
40486SOL     OW26268   5.898   1.523   0.813  0.1247 -0.2120 -0.3062
40486SOL    HW126269   5.914   1.429   0.815 -0.6029 -0.3361  0.5940
40486SOL    HW226270   5.811   1.531   0.775 -0.3575 -0.0006  0.8183
40487SOL     OW26271   6.238   4.461   8.903  0.5646  0.1021  0.0964
40487SOL    HW126272   6.162   4.435   8.851  0.4565  1.1981 -0.3237
40487SOL    HW226273   6.227   4.555   8.916  2.7664  0.6591 -1.4886
40488SOL     OW26274  12.144   0.293  10.818  0.3530  0.2967 -0.1737
40488SOL    HW126275  12.065   0.343  10.841 -0.0616 -0.2341 -0.4167
40488SOL    HW226276  12.171   0.329  10.733 -1.1836 -1.2939 -1.4016
40489SOL     OW26277  10.534   9.449   0.183 -0.3767  0.1748 -0.3148
40489SOL    HW126278  10.469   9.406   0.127 -1.3467  2.2744 -0.8750
40489SOL    HW226279  10.608   9.465   0.125 -0.7780  0.9680 -0.6187
40490SOL     OW26280   2.071   2.386   0.645  0.2232 -0.0704  0.1473
40490SOL    HW126281   2.138   2.439   0.689  0.6368  1.0062 -1.6567
40490SOL    HW226282   2.119   2.336   0.580 -0.6581  0.4505 -0.9359
40491SOL     OW26283   6.580  11.970   4.319 -0.0169 -0.0003  0.2024
40491SOL    HW126284   6.629  11.888   4.325 -1.1486 -0.6547  0.8577
40491SOL    HW226285   6.514  11.953   4.251  0.8892  1.0203 -0.9936
40492SOL     OW26286  10.202   8.370   9.771 -0.0927 -0.6032 -0.0445
40492SOL    HW126287  10.275   8.360   9.832 -0.0925  0.4681  0.1524
40492SOL    HW226288  10.240   8.415   9.695 -0.6999  0.8007  0.4377
40493SOL     OW26289   2.767  10.882   0.413 -0.0479 -0.0614 -0.3205
40493SOL    HW126290   2.804  10.794   0.412  2.4607  0.9330 -0.3448
40493SOL    HW226291   2.841  10.940   0.399 -1.3402  2.1754  1.4261
40494SOL     OW26292   1.492  10.102   4.812  0.1076  0.4363 -0.3301
40494SOL    HW126293   1.534  10.058   4.738  1.8169 -3.1964  2.4925
40494SOL    HW226294   1.559  10.160   4.847  1.6712 -2.3578  1.7475
40495SOL     OW26295   6.502  11.644   1.780  0.3590 -0.7627 -0.1042
40495SOL    HW126296   6.527  11.708   1.846  0.1405  0.4042 -1.1180
40495SOL    HW226297   6.506  11.691   1.697  0.2423 -2.0786 -0.8964
40496SOL     OW26298   9.127   8.647   1.662  0.3858  0.4387  0.2658
40496SOL    HW126299   9.172   8.646   1.747  0.1792  0.1508  0.3711
40496SOL    HW226300   9.069   8.723   1.667  0.3452  0.3996  0.3970
40497SOL     OW26301   8.845  12.334   9.983  0.1711  0.0661 -0.4017
40497SOL    HW126302   8.919  12.309  10.039  0.0632 -1.2878 -0.8240
40497SOL    HW226303   8.768  12.310  10.034 -0.0044  1.6253  0.1038
40498SOL     OW26304   2.197   3.093   8.800  0.0745 -0.2582 -0.1053
40498SOL    HW126305   2.104   3.070   8.793 -0.1420  0.8818 -1.3188
40498SOL    HW226306   2.240   3.041   8.732  0.1487  0.0741 -0.3138
40499SOL     OW26307   4.036  10.731   6.111  0.0522 -0.2358  0.6652
40499SOL    HW126308   4.131  10.742   6.106 -0.0154  0.0413 -0.0725
40499SOL    HW226309   4.015  10.746   6.203  0.4791  1.8246  0.4613
40500SOL     OW26310   2.267   3.997   8.078  0.5728 -0.0936 -0.7827
40500SOL    HW126311   2.275   3.954   7.993 -3.2708 -0.3020 -1.2054
40500SOL    HW226312   2.239   3.927   8.137  3.2371  0.0347  0.7993
40501SOL     OW26313   0.731   8.977   1.316  0.2383 -0.4957  0.1126
40501SOL    HW126314   0.646   8.952   1.352 -0.3761  1.8342  0.4502
40501SOL    HW226315   0.765   8.896   1.277 -3.3730 -0.9997 -2.5658
40502SOL     OW26316   2.144   9.531   8.291  0.0611 -0.5460  0.0935
40502SOL    HW126317   2.128   9.439   8.310 -2.4976 -0.2527 -0.2130
40502SOL    HW226318   2.069   9.557   8.236  1.5602  1.3160 -1.1969
40503SOL     OW26319  10.555   1.410   7.403  0.1669 -0.2489  0.0851
40503SOL    HW126320  10.481   1.432   7.346 -0.2004  0.2514  0.7339
40503SOL    HW226321  10.626   1.388   7.342  0.2002  1.5867 -0.6274
40504SOL     OW26322  12.414   0.829  10.914  0.1933  0.3683  0.4210
40504SOL    HW126323  12.340   0.778  10.947  1.7181 -1.2724  1.4708
40504SOL    HW226324  12.463   0.768  10.859  1.4788  0.9996  0.8206
40505SOL     OW26325   3.961   9.747   3.514  0.7402  0.2270 -0.2246
40505SOL    HW126326   3.891   9.811   3.504 -1.3481 -2.0517 -1.6076
40505SOL    HW226327   3.986   9.726   3.424  1.5656 -0.6587  0.1969
40506SOL     OW26328   4.658   3.950   4.624  0.2852 -0.5859 -0.4852
40506SOL    HW126329   4.709   3.957   4.543 -0.2529  2.4996 -0.6773
40506SOL    HW226330   4.592   4.019   4.616  0.9773  0.6810  3.0786
40507SOL     OW26331  11.278   6.655   0.648 -0.0760  0.2454 -0.4169
40507SOL    HW126332  11.363   6.637   0.686  0.5969  0.9824 -1.5001
40507SOL    HW226333  11.271   6.750   0.649 -1.0377  0.1795 -0.0322
40508SOL     OW26334   2.863  11.105   4.668  0.3541 -0.4291  0.6403
40508SOL    HW126335   2.797  11.037   4.680 -2.0603  1.4747 -0.7210
40508SOL    HW226336   2.861  11.154   4.751 -1.1107  0.4744  0.1181
40509SOL     OW26337   0.368   3.592   5.966  0.2087  0.8336 -0.0629
40509SOL    HW126338   0.371   3.588   5.870 -1.6188 -0.0389 -0.1398
40509SOL    HW226339   0.277   3.616   5.985  0.3309  0.1795  1.4550
40510SOL     OW26340   7.985   9.197  10.120  0.1742  0.6061  0.3332
40510SOL    HW126341   7.978   9.278  10.069 -0.6899 -0.0373 -0.6106
40510SOL    HW226342   8.044   9.142  10.069  2.1495  1.2147  1.8204
40511SOL     OW26343   4.143   2.655   2.691 -0.5284  0.3239 -0.2069
40511SOL    HW126344   4.060   2.704   2.690 -1.0539 -0.4425  1.5784
40511SOL    HW226345   4.192   2.692   2.765 -0.2261 -0.6814  0.1121
40512SOL     OW26346  11.114  10.278  12.002 -0.5782  0.1462  0.2047
40512SOL    HW126347  11.053  10.210  12.029  0.3533 -0.6545  0.3299
40512SOL    HW226348  11.136  10.255  11.912 -0.3816  0.3837  0.1924
40513SOL     OW26349  11.917   3.441  10.990  0.2017 -0.1698 -0.5944
40513SOL    HW126350  11.946   3.351  11.005 -0.7921 -0.2583  1.0422
40513SOL    HW226351  11.848   3.455  11.054 -2.1164  0.6342 -3.0810
40514SOL     OW26352   8.063   6.720   4.584  0.4207  0.3401 -0.7598
40514SOL    HW126353   8.005   6.667   4.529  0.2640  1.1363 -1.3807
40514SOL    HW226354   8.136   6.742   4.527  0.8754  0.1361 -0.2641
40515SOL     OW26355   7.098   1.913   1.850 -0.2164  0.3325 -0.5601
40515SOL    HW126356   7.008   1.937   1.870 -0.5210  0.0837 -1.6064
40515SOL    HW226357   7.145   1.997   1.845 -0.1592  0.4215  0.9423
40516SOL     OW26358   9.517   0.406   1.699 -0.4273  0.2259 -0.0178
40516SOL    HW126359   9.477   0.368   1.621 -0.7183  1.7202 -0.6325
40516SOL    HW226360   9.466   0.370   1.772  1.3528 -3.0873 -0.2419
40517SOL     OW26361   5.570   6.572   6.347  0.2313  0.1354 -0.6984
40517SOL    HW126362   5.525   6.493   6.377 -0.4672  0.4541 -0.8690
40517SOL    HW226363   5.507   6.642   6.362  1.1304  0.7753  0.1383
40518SOL     OW26364  11.422   8.029   8.328  0.2299  0.1597  0.1633
40518SOL    HW126365  11.453   8.071   8.247 -0.6817 -0.2902 -0.4327
40518SOL    HW226366  11.475   7.950   8.335  1.8308  1.2653  1.1937
40519SOL     OW26367   4.051  11.914   8.247  0.4537  0.5832 -0.2467
40519SOL    HW126368   4.126  11.854   8.237  0.0941  0.1473 -0.3734
40519SOL    HW226369   4.077  11.973   8.318  0.9917  0.5493 -0.4111
40520SOL     OW26370   3.555   1.916   8.975  0.0155  0.0436  0.1308
40520SOL    HW126371   3.460   1.906   8.984 -0.0916  0.1385 -0.8715
40520SOL    HW226372   3.591   1.833   9.009 -0.5327 -0.8833 -1.4487
40521SOL     OW26373   9.579   3.755   5.625  0.0988  0.0233 -0.0366
40521SOL    HW126374   9.595   3.690   5.556 -0.2550 -0.4869  0.3556
40521SOL    HW226375   9.642   3.824   5.607 -0.8218  0.4956 -1.6137
40522SOL     OW26376   0.892   0.084   6.733  0.1033 -0.3245  0.1149
40522SOL    HW126377   0.830   0.087   6.660  2.1682  1.0810 -1.6825
40522SOL    HW226378   0.869   0.160   6.787  0.2537  0.2061 -0.5575
40523SOL     OW26379  12.618   6.979   7.103 -0.1113 -0.4638 -0.3547
40523SOL    HW126380  12.666   7.025   7.172  0.2836 -0.3681 -0.6916
40523SOL    HW226381  12.652   6.889   7.106 -0.2222 -0.5042 -0.3061
40524SOL     OW26382   9.014  11.521   9.543 -0.0790 -0.0216  0.5424
40524SOL    HW126383   8.944  11.577   9.579  0.2286  0.3028  0.6480
40524SOL    HW226384   9.081  11.520   9.612  0.2427  0.0898  0.2346
40525SOL     OW26385   2.555  10.037   0.058 -0.4502  0.5305 -0.1322
40525SOL    HW126386   2.478  10.046   0.002  0.6237  1.0393 -1.5855
40525SOL    HW226387   2.605  10.117   0.043  0.2435  0.3247  0.9850
40526SOL     OW26388   7.839  10.821  10.245 -0.0068 -0.4222 -0.0534
40526SOL    HW126389   7.824  10.832  10.151 -0.4722  1.6596  0.1957
40526SOL    HW226390   7.933  10.809  10.254  0.1012 -0.1372 -0.7695
40527SOL     OW26391   8.768   7.448   3.134 -0.1728 -0.9418 -0.2148
40527SOL    HW126392   8.767   7.434   3.040 -1.1604  0.0880 -0.3847
40527SOL    HW226393   8.775   7.543   3.144  1.8109 -1.1365  0.7853
40528SOL     OW26394   4.543   3.183  10.104  0.3610 -0.0097  0.0689
40528SOL    HW126395   4.597   3.113  10.139  0.0367  0.1993  1.0107
40528SOL    HW226396   4.454   3.161  10.132  0.1836  0.4824 -0.0988
40529SOL     OW26397   6.571   2.524   3.015 -0.2867 -0.7637  0.3917
40529SOL    HW126398   6.529   2.602   2.978 -0.0030 -0.9382 -0.3098
40529SOL    HW226399   6.554   2.455   2.950  0.4538 -1.0109  0.4578
40530SOL     OW26400   7.710   8.756  11.456 -0.0657  0.8759 -0.3930
40530SOL    HW126401   7.704   8.847  11.426 -2.4050  0.9650  0.1231
40530SOL    HW226402   7.619   8.728  11.463  0.5020 -0.6372  2.1342
40531SOL     OW26403   6.110   0.651   8.625 -0.2647 -0.2214  0.3010
40531SOL    HW126404   6.122   0.690   8.712 -1.3695 -0.6589  0.6616
40531SOL    HW226405   6.107   0.557   8.640  0.0834 -0.3395 -0.2942
40532SOL     OW26406   9.413   9.298   5.937 -0.6080 -0.4135 -0.3414
40532SOL    HW126407   9.340   9.268   5.884 -0.9371 -1.6989  0.7783
40532SOL    HW226408   9.418   9.392   5.921 -2.2119 -0.3780 -0.7726
40533SOL     OW26409   7.959   5.363   8.224  0.0789 -0.5270  0.4031
40533SOL    HW126410   7.993   5.290   8.171  1.2898 -0.1808  0.6799
40533SOL    HW226411   7.961   5.438   8.165  0.5773 -0.3331  0.6592
40534SOL     OW26412   3.686  10.297  10.660  0.2464 -0.4358  0.5491
40534SOL    HW126413   3.635  10.370  10.696  0.3389 -0.1454  0.0977
40534SOL    HW226414   3.698  10.237  10.734 -2.1013 -1.2746  0.3407
40535SOL     OW26415   0.090   2.938   0.583  0.7059  0.6371  0.0244
40535SOL    HW126416   0.164   2.880   0.563  1.2016  1.2982 -0.1058
40535SOL    HW226417   0.129   3.010   0.633 -0.3435 -0.5600  2.7875
40536SOL     OW26418   1.323   1.984   0.379  0.2433 -0.2004 -0.3504
40536SOL    HW126419   1.288   1.982   0.290 -0.8602 -0.4208  0.0724
40536SOL    HW226420   1.303   2.072   0.411  0.6005 -0.1350 -0.2981
40537SOL     OW26421   1.545   1.893   2.606 -0.1528 -0.0724 -0.2853
40537SOL    HW126422   1.453   1.915   2.624  0.2480 -0.0850  2.0669
40537SOL    HW226423   1.557   1.808   2.648  0.8645 -0.2289 -0.8755
40538SOL     OW26424   6.681  12.459   1.835 -0.3145  0.2848  0.3783
40538SOL    HW126425   6.707  12.543   1.872  1.3618 -0.0962  0.1583
40538SOL    HW226426   6.764  12.411   1.824 -1.2182 -1.3392  0.3758
40539SOL     OW26427   4.055   4.896   3.428 -0.1432 -0.3975  0.6629
40539SOL    HW126428   4.061   4.848   3.510 -1.7293 -1.1232  0.4037
40539SOL    HW226429   3.962   4.893   3.406  0.1689  0.2618 -0.8699
40540SOL     OW26430   4.846  10.422   0.282  0.7471 -0.3960 -0.5495
40540SOL    HW126431   4.801  10.348   0.239 -1.1761  1.2655 -1.5918
40540SOL    HW226432   4.906  10.454   0.215 -0.5895  0.7699 -1.2490
40541SOL     OW26433   2.001   9.932   8.154  0.1478 -0.2910  0.1735
40541SOL    HW126434   2.095   9.921   8.163  0.2622  0.5924  0.1050
40541SOL    HW226435   1.973   9.857   8.100  1.1683  0.6476 -1.7740
40542SOL     OW26436  10.855   2.346   0.134 -0.1095  0.0848  0.0544
40542SOL    HW126437  10.770   2.390   0.127 -0.2753  0.2304  2.1995
40542SOL    HW226438  10.915   2.401   0.084 -1.1977  0.1948 -1.1656
40543SOL     OW26439   5.642   7.574   9.737 -0.0223  0.0656 -0.1687
40543SOL    HW126440   5.556   7.604   9.767  0.9751  1.7222  1.2404
40543SOL    HW226441   5.688   7.654   9.711  0.4541 -0.9876 -2.8011
40544SOL     OW26442   4.484   0.517  10.932  0.0791 -0.0418  0.5975
40544SOL    HW126443   4.534   0.447  10.889  1.1293  0.2625  1.2925
40544SOL    HW226444   4.475   0.487  11.023 -1.3446 -0.2606  0.4118
40545SOL     OW26445   3.609   2.468   0.846  0.0789 -0.6671 -0.1255
40545SOL    HW126446   3.663   2.405   0.894  0.7728 -0.6380 -0.8590
40545SOL    HW226447   3.628   2.552   0.887 -1.3774 -0.9828  1.3296
40546SOL     OW26448  10.782   5.641   0.793  0.2014  0.7872  0.1794
40546SOL    HW126449  10.872   5.627   0.821  0.2242 -0.4312 -0.4368
40546SOL    HW226450  10.786   5.716   0.734  0.9360  0.3015 -0.4031
40547SOL     OW26451   9.648   6.342  11.813 -0.1193 -0.0647  0.4880
40547SOL    HW126452   9.717   6.289  11.772 -0.8147 -0.2927 -0.4159
40547SOL    HW226453   9.675   6.432  11.797  0.4157 -0.1492  0.9054
40548SOL     OW26454   3.111   8.973   6.399 -0.0248 -1.1778 -0.2597
40548SOL    HW126455   3.025   8.988   6.439  0.9537  0.8322  1.2027
40548SOL    HW226456   3.170   8.959   6.473  1.5620  1.1899 -0.9725
40549SOL     OW26457  10.914   5.801   7.209 -0.5651 -0.1480  0.3186
40549SOL    HW126458  10.895   5.803   7.303  0.1828  0.5013  0.4719
40549SOL    HW226459  10.848   5.857   7.169 -0.2809  0.3894  0.5881
40550SOL     OW26460   8.949   7.660   8.589 -0.1896 -0.2556 -0.4083
40550SOL    HW126461   9.024   7.652   8.648  0.1500 -0.7437 -0.8951
40550SOL    HW226462   8.958   7.748   8.551 -1.1101  0.5653  1.1795
40551SOL     OW26463  11.473   8.657   1.492 -0.0632 -0.2024  0.0922
40551SOL    HW126464  11.438   8.725   1.434  2.1811 -1.4585 -3.0085
40551SOL    HW226465  11.413   8.584   1.483 -0.3721  0.0137  0.3544
40552SOL     OW26466  12.059   9.652   5.791 -0.1125  0.0946 -0.0994
40552SOL    HW126467  11.976   9.686   5.756 -1.4352 -0.5359  2.2600
40552SOL    HW226468  12.035   9.575   5.841  2.3957 -2.3635 -2.3105
40553SOL     OW26469   6.737   3.778   7.788 -0.1970 -0.5232 -0.4345
40553SOL    HW126470   6.812   3.726   7.757  1.4558  0.6660  1.3166
40553SOL    HW226471   6.735   3.855   7.731  0.1879 -0.3596 -0.2307
40554SOL     OW26472  11.259  12.309  10.328 -0.1063 -0.0998  0.4485
40554SOL    HW126473  11.299  12.395  10.324 -0.4795  0.0368 -0.6876
40554SOL    HW226474  11.178  12.318  10.278 -0.4735 -0.9416  0.8697
40555SOL     OW26475  11.994   4.063   0.401 -0.4815  0.2137  0.0630
40555SOL    HW126476  12.029   4.153   0.396 -1.7689  0.7005 -0.6693
40555SOL    HW226477  12.030   4.028   0.482  0.2589  1.3043  0.2320
40556SOL     OW26478   9.890   1.149   3.932 -0.2398  0.1599  0.3840
40556SOL    HW126479   9.924   1.087   3.996 -1.3023  0.0478  0.8588
40556SOL    HW226480   9.941   1.131   3.853  1.8247  1.0220  1.4501
40557SOL     OW26481   3.312   4.842  11.439 -0.2047 -0.0903  0.2748
40557SOL    HW126482   3.258   4.784  11.494  0.2261 -1.0281 -0.2728
40557SOL    HW226483   3.365   4.782  11.387 -0.1344  0.8070 -0.6962
40558SOL     OW26484   3.634   6.979  10.050  0.4564 -0.8044 -0.6853
40558SOL    HW126485   3.610   7.059  10.002  0.6863  0.1288  0.7035
40558SOL    HW226486   3.610   6.908   9.990 -1.0386  0.2460 -1.4132
40559SOL     OW26487   5.751   2.708   3.415 -0.9559 -0.4785 -0.1252
40559SOL    HW126488   5.762   2.705   3.510 -0.4916 -1.1008 -0.1895
40559SOL    HW226489   5.831   2.751   3.384 -2.5595  2.8612 -0.0266
40560SOL     OW26490   1.983   0.344  12.018  0.3956 -0.1736  0.3460
40560SOL    HW126491   1.976   0.329  12.112  0.4831 -0.3952  0.3172
40560SOL    HW226492   2.067   0.304  11.994 -0.1826 -1.1965 -0.0361
40561SOL     OW26493  11.719  12.609   7.831 -0.1552  0.0853  0.4823
40561SOL    HW126494  11.750  12.669   7.763 -0.3990 -1.1373 -0.7661
40561SOL    HW226495  11.795  12.553   7.849 -0.1532  0.2766  1.1051
40562SOL     OW26496   3.767   5.919   7.315  0.1107  0.1461  0.1331
40562SOL    HW126497   3.836   5.984   7.327 -1.3417  1.7189  0.2731
40562SOL    HW226498   3.687   5.970   7.301 -0.9137 -1.6063 -0.8524
40563SOL     OW26499   1.939   3.788   5.587 -0.4511  0.6869  0.0947
40563SOL    HW126500   1.937   3.722   5.656 -1.0725  0.6652  0.0645
40563SOL    HW226501   1.998   3.752   5.521  0.6527  0.9931  0.8833
40564SOL     OW26502  12.036   2.724   3.599 -0.6073 -0.1586 -0.1482
40564SOL    HW126503  12.037   2.629   3.607 -0.2253 -0.1036  0.5105
40564SOL    HW226504  11.965   2.742   3.537 -1.3377 -0.8146  0.4859
40565SOL     OW26505   7.557  12.448   1.756  0.5845  0.0408  1.1653
40565SOL    HW126506   7.464  12.432   1.742  0.5878  0.1529  1.0140
40565SOL    HW226507   7.601  12.401   1.685  0.5672  1.1315  0.4077
40566SOL     OW26508   8.641   3.753   3.513 -0.2689 -0.3897  0.0633
40566SOL    HW126509   8.584   3.802   3.453 -0.4406  0.0084  0.5345
40566SOL    HW226510   8.615   3.662   3.502  2.1328 -0.8632 -3.0955
40567SOL     OW26511   8.396   0.915   5.103  0.8420 -0.2153  0.0083
40567SOL    HW126512   8.339   0.968   5.047 -0.1249 -0.8030  0.4221
40567SOL    HW226513   8.463   0.880   5.043  1.4829  1.4058 -0.2880
40568SOL     OW26514   0.218   6.340   0.010  0.7642 -0.0063  0.0291
40568SOL    HW126515   0.312   6.337  -0.009  0.4796 -0.7267 -1.4251
40568SOL    HW226516   0.186   6.254  -0.017 -0.2020 -0.0471  1.2201
40569SOL     OW26517   2.225   7.587   7.013 -0.0940 -0.5555 -0.0178
40569SOL    HW126518   2.202   7.494   7.004 -2.3745 -0.1318  0.9166
40569SOL    HW226519   2.310   7.586   7.057  0.0496 -2.1901 -0.2516
40570SOL     OW26520   4.162  12.555  10.367  0.5175  0.0418  0.4133
40570SOL    HW126521   4.150  12.463  10.345  0.8851 -0.8681  3.5435
40570SOL    HW226522   4.090  12.575  10.428  0.8430  1.6093  0.3341
40571SOL     OW26523   5.383   6.963  12.609  0.4256  0.5834 -1.3753
40571SOL    HW126524   5.318   7.033  12.605 -0.2569  0.0325 -0.2080
40571SOL    HW226525   5.459   7.004  12.651 -0.3599  0.3564  0.3237
40572SOL     OW26526   9.158   0.881   7.159 -0.3271 -0.0523 -0.4885
40572SOL    HW126527   9.126   0.972   7.157  1.6963  0.6940 -2.2894
40572SOL    HW226528   9.084   0.829   7.126 -1.0103  1.1059 -0.8554
40573SOL     OW26529  12.442  10.214   8.609  0.3760 -0.2552  0.5207
40573SOL    HW126530  12.525  10.183   8.647 -0.3529 -1.0467  1.5417
40573SOL    HW226531  12.396  10.253   8.683 -0.6275 -0.8278  0.2138
40574SOL     OW26532  10.423   4.712   9.933  0.3193 -0.6045 -0.4083
40574SOL    HW126533  10.372   4.632   9.949 -2.0661  0.7844 -0.5919
40574SOL    HW226534  10.429   4.754  10.019 -1.8564  0.8536 -0.8818
40575SOL     OW26535   5.026   6.169   8.641  0.1875 -0.5650  0.0352
40575SOL    HW126536   5.079   6.213   8.574  0.6029 -0.3752  0.4842
40575SOL    HW226537   5.005   6.084   8.603  1.5147 -0.9749  0.1919
40576SOL     OW26538  12.398   5.329   0.772  0.0460  0.9519 -0.0813
40576SOL    HW126539  12.491   5.335   0.752  0.1128  0.0147 -0.0895
40576SOL    HW226540  12.363   5.416   0.749  0.8496  1.2087 -0.3801
40577SOL     OW26541   4.901   6.900   9.402  0.3382 -0.7854 -0.1250
40577SOL    HW126542   4.898   6.994   9.418 -0.1940 -0.8546  0.2201
40577SOL    HW226543   4.989   6.873   9.429  0.7765 -0.2596 -0.9877
40578SOL     OW26544   0.497  11.558   1.186 -0.3642  0.4714  0.0197
40578SOL    HW126545   0.463  11.634   1.233 -0.2650 -0.4892  1.7133
40578SOL    HW226546   0.425  11.533   1.128 -0.6880  1.3855  0.0063
40579SOL     OW26547   1.082   8.320   1.411 -0.1848  0.3927 -0.1953
40579SOL    HW126548   1.054   8.334   1.320 -0.7922  0.6169  0.0245
40579SOL    HW226549   1.046   8.235   1.434  1.4984 -0.5228 -0.7444
40580SOL     OW26550   3.358   7.500  10.415 -0.4438 -0.1475  0.0349
40580SOL    HW126551   3.336   7.441  10.487 -0.1721 -1.2733 -0.7707
40580SOL    HW226552   3.426   7.453  10.365 -0.8895  0.4270 -1.1592
40581SOL     OW26553   4.272   5.375   8.363  0.2616 -0.2964 -0.0070
40581SOL    HW126554   4.260   5.282   8.343 -2.4958  0.0272 -0.3136
40581SOL    HW226555   4.341   5.404   8.303 -0.4394 -1.6688 -1.5738
40582SOL     OW26556   6.453  10.128   9.529  0.1823 -0.2169  0.0496
40582SOL    HW126557   6.394  10.193   9.489  0.5483  1.3796  1.9634
40582SOL    HW226558   6.536  10.140   9.484  0.1209  0.3397  0.0761
40583SOL     OW26559   6.180   8.338   7.969  0.5383  0.2706  0.0414
40583SOL    HW126560   6.102   8.300   7.928  0.4888 -0.0906  0.4540
40583SOL    HW226561   6.206   8.273   8.034  0.9322  0.5869  0.2023
40584SOL     OW26562   2.015   9.006   5.273  0.4851  0.1578  0.3554
40584SOL    HW126563   1.926   8.979   5.295  0.4381 -0.6796 -0.7198
40584SOL    HW226564   2.062   9.005   5.356 -0.1401 -0.9253  0.7224
40585SOL     OW26565  10.687  12.353   0.297  0.4881  0.3001  0.4130
40585SOL    HW126566  10.774  12.393   0.302  0.9876 -0.8621  1.3760
40585SOL    HW226567  10.658  12.372   0.208  2.7797 -1.3825 -0.8108
40586SOL     OW26568   1.622  10.166   2.347  0.7928 -0.6555 -0.1598
40586SOL    HW126569   1.613  10.205   2.260 -2.0795 -0.4003  0.1825
40586SOL    HW226570   1.591  10.076   2.336  1.3222 -0.9149  0.4144
40587SOL     OW26571   0.994   0.843   8.950 -0.7979  0.3036 -0.0993
40587SOL    HW126572   0.911   0.885   8.929 -0.8099  0.2138 -0.2345
40587SOL    HW226573   0.985   0.753   8.918 -2.0763 -0.9169  3.2548
40588SOL     OW26574   8.671  10.505   7.969 -0.4463 -0.0080 -0.7896
40588SOL    HW126575   8.685  10.562   7.893 -0.8498 -1.4772 -2.0023
40588SOL    HW226576   8.640  10.423   7.932  0.0803 -1.0191  0.9195
40589SOL     OW26577  11.762  12.602  10.967 -0.2346 -0.3085  0.8505
40589SOL    HW126578  11.828  12.613  10.899 -0.4367 -2.2328  0.3045
40589SOL    HW226579  11.777  12.675  11.027  1.0262  0.4628 -0.3669
40590SOL     OW26580   8.297   9.274   7.818  0.3933 -0.3709 -0.0169
40590SOL    HW126581   8.366   9.311   7.874 -1.0257  2.7305 -0.1210
40590SOL    HW226582   8.235   9.235   7.880  1.4700 -1.9627  0.1434
40591SOL     OW26583  11.539   5.511   0.037  0.2357 -0.1382  0.0333
40591SOL    HW126584  11.625   5.472   0.022 -0.4307 -1.5873 -0.2000
40591SOL    HW226585  11.482   5.436   0.059 -0.9060  0.8158  0.4481
40592SOL     OW26586   3.972   4.846   7.530 -0.1899 -0.1261  0.2994
40592SOL    HW126587   3.992   4.854   7.436  0.8702 -0.4981  0.4705
40592SOL    HW226588   3.922   4.924   7.551 -1.6831 -0.7316 -0.8786
40593SOL     OW26589   9.507   0.123   7.289 -0.4504  0.1262  0.6990
40593SOL    HW126590   9.463   0.207   7.280 -0.1097  0.3765  1.3379
40593SOL    HW226591   9.530   0.098   7.200 -0.6534  0.6544  0.4962
40594SOL     OW26592  11.431   2.021  11.691 -0.0825 -0.7590 -0.8248
40594SOL    HW126593  11.461   1.931  11.675  2.5357  0.0013 -0.6759
40594SOL    HW226594  11.467   2.071  11.618 -0.1825  0.4286 -0.0766
40595SOL     OW26595   6.662   3.470   5.402  0.1194 -0.4725 -0.5039
40595SOL    HW126596   6.681   3.423   5.321  0.0854  2.0980 -2.1276
40595SOL    HW226597   6.622   3.552   5.373 -0.5500  0.2452  2.1778
40596SOL     OW26598  10.671  11.390   4.837 -0.0969  0.6861  0.1725
40596SOL    HW126599  10.707  11.419   4.753 -1.7755  0.8181 -0.5238
40596SOL    HW226600  10.578  11.377   4.821 -0.3300  0.0232  1.8437
40597SOL     OW26601   3.456  12.634   1.744  0.0658 -0.3331 -0.1949
40597SOL    HW126602   3.501  12.677   1.671  1.3139 -0.8653  0.2271
40597SOL    HW226603   3.429  12.706   1.801  0.0256  0.0216 -0.6557
40598SOL     OW26604   7.757  12.313  12.156 -0.0978  0.1418 -0.2133
40598SOL    HW126605   7.667  12.336  12.180 -0.2148 -1.3320  0.9166
40598SOL    HW226606   7.753  12.293  12.062 -0.9115  0.2513 -0.2076
40599SOL     OW26607   3.663   8.034   8.776 -0.1267  0.2679 -0.4766
40599SOL    HW126608   3.706   8.117   8.799 -0.6123  0.3035  0.3164
40599SOL    HW226609   3.679   7.977   8.850 -1.4400  0.2853 -0.1546
40600SOL     OW26610  12.637   6.600   1.012 -0.0768 -0.0711 -0.1012
40600SOL    HW126611  12.716   6.552   1.034 -1.0426 -0.7211  2.2277
40600SOL    HW226612  12.565   6.538   1.025 -1.0262  0.4625 -2.2382
40601SOL     OW26613   8.311   8.515   4.653 -0.4436  0.0645  0.0349
40601SOL    HW126614   8.348   8.482   4.571  1.1959  1.9594 -0.0581
40601SOL    HW226615   8.357   8.465   4.721  1.2725  1.3442 -0.1289
40602SOL     OW26616  12.313   9.998   0.930 -0.2473  0.4700 -0.1249
40602SOL    HW126617  12.245   9.936   0.903 -1.8458  1.3987  1.5226
40602SOL    HW226618  12.327  10.053   0.853 -2.3312  1.0520 -0.1622
40603SOL     OW26619   3.213   8.162   4.733 -0.6479  0.3038 -0.5014
40603SOL    HW126620   3.236   8.251   4.759 -0.4727 -0.6179  2.8730
40603SOL    HW226621   3.297   8.123   4.708 -0.3726  0.4344  0.2020
40604SOL     OW26622   4.356   4.448   8.524 -0.6272 -0.4068  0.2858
40604SOL    HW126623   4.384   4.395   8.450 -0.9552 -2.3975  1.5197
40604SOL    HW226624   4.261   4.446   8.521 -0.6569  0.6043  0.0449
40605SOL     OW26625  11.171  11.274   4.740 -0.8326 -0.1651  0.0638
40605SOL    HW126626  11.095  11.242   4.691 -2.9076  0.6069  2.5334
40605SOL    HW226627  11.239  11.288   4.674 -2.9180 -0.6167 -2.3075
40606SOL     OW26628   4.077   2.209  11.940  0.0071  0.1104  0.2428
40606SOL    HW126629   4.094   2.116  11.929 -0.4900 -0.3015  2.3868
40606SOL    HW226630   4.159   2.252  11.916 -0.1162 -0.7397 -1.8840
40607SOL     OW26631   2.452   3.012   8.982  0.4067 -0.5728 -0.2461
40607SOL    HW126632   2.495   3.097   8.992  0.7553 -0.9001  1.3597
40607SOL    HW226633   2.503   2.967   8.915  0.1546  0.5099 -1.1902
40608SOL     OW26634  11.936   2.219   6.515 -0.4046  0.6610 -0.1940
40608SOL    HW126635  11.878   2.273   6.462 -0.2660  2.1666  1.1110
40608SOL    HW226636  12.021   2.225   6.472 -0.5703  0.8216 -0.5016
40609SOL     OW26637   0.624   0.439   7.068  0.6563 -0.5858  0.2913
40609SOL    HW126638   0.633   0.357   7.117  1.7578 -0.6011  0.0770
40609SOL    HW226639   0.633   0.508   7.133  0.7512 -0.6221  0.3159
40610SOL     OW26640   0.686   1.074   2.612 -0.7405 -0.2374  0.1220
40610SOL    HW126641   0.681   1.151   2.554  0.9751  0.4274  0.8012
40610SOL    HW226642   0.730   1.008   2.560 -2.7024 -1.0140 -0.6576
40611SOL     OW26643   1.649   3.148  10.697 -0.3016  0.0216  0.1149
40611SOL    HW126644   1.639   3.243  10.703 -1.4322 -0.0067 -0.8813
40611SOL    HW226645   1.647   3.129  10.603  2.5287 -0.7678  0.1280
40612SOL     OW26646   2.517   8.959   3.515  0.0410 -0.1103  0.1337
40612SOL    HW126647   2.558   8.962   3.429  1.9182 -1.4206  0.9228
40612SOL    HW226648   2.559   9.031   3.563 -1.1579  0.7592 -0.0523
40613SOL     OW26649   4.617   7.263   6.766  0.1576 -0.1031  0.0306
40613SOL    HW126650   4.588   7.353   6.755  1.3135  0.1825 -0.7687
40613SOL    HW226651   4.626   7.229   6.677  1.2619 -0.4946  0.2745
40614SOL     OW26652   5.113  11.753   5.230  0.6058  0.3375  0.4845
40614SOL    HW126653   5.165  11.746   5.150  0.1001 -0.3770  0.2084
40614SOL    HW226654   5.023  11.738   5.202  0.6123 -1.8149  1.4520
40615SOL     OW26655   1.089   2.459   1.023 -0.0426  0.2858  0.2696
40615SOL    HW126656   1.115   2.513   0.949  2.1339  0.0249  0.7948
40615SOL    HW226657   1.052   2.521   1.086 -1.8626  0.5159 -0.9308
40616SOL     OW26658  10.749   9.085  10.595  0.3390 -0.0594 -0.0795
40616SOL    HW126659  10.685   9.023  10.562  0.2265 -0.0200  0.0661
40616SOL    HW226660  10.713   9.117  10.677 -1.2269  2.6825 -1.6867
40617SOL     OW26661   2.882   9.732   4.125  0.5112  0.4399  0.0030
40617SOL    HW126662   2.883   9.795   4.052  0.9962  0.3772 -0.0513
40617SOL    HW226663   2.792   9.700   4.128  0.8665 -0.8996 -1.7219
40618SOL     OW26664  11.793   5.806   6.144 -0.4119 -0.2420 -0.3284
40618SOL    HW126665  11.870   5.750   6.142 -0.1954  0.0279  0.3648
40618SOL    HW226666  11.802   5.861   6.066 -1.0799 -1.7449 -1.5220
40619SOL     OW26667   5.105   6.194   4.659  0.0051 -0.1834 -0.3904
40619SOL    HW126668   5.097   6.103   4.690  0.9079  0.4155  1.7835
40619SOL    HW226669   5.016   6.220   4.637 -0.1765 -1.8013 -1.7550
40620SOL     OW26670   7.904   2.653   9.138  0.2682 -0.4404  0.4136
40620SOL    HW126671   7.946   2.622   9.218 -1.9076 -0.5008  1.6289
40620SOL    HW226672   7.865   2.737   9.162 -1.2055 -0.8965 -0.2754
40621SOL     OW26673   5.747  11.390   2.890 -0.0491 -0.0114 -0.4735
40621SOL    HW126674   5.784  11.478   2.885 -0.3322  0.0180 -2.9551
40621SOL    HW226675   5.777  11.347   2.811 -1.9931 -1.3232 -0.5533
40622SOL     OW26676   8.204   3.302   1.562  0.1997  0.2290  0.3310
40622SOL    HW126677   8.286   3.284   1.515 -1.2821  1.0442 -2.9049
40622SOL    HW226678   8.178   3.217   1.598  1.1605 -0.6470 -0.9540
40623SOL     OW26679  10.502   7.046   4.467 -0.2006 -0.0069 -0.1947
40623SOL    HW126680  10.543   7.004   4.542 -0.8474 -0.7003 -0.2179
40623SOL    HW226681  10.497   6.978   4.400 -1.1417  0.1320 -0.2806
40624SOL     OW26682   7.218   7.965  11.587 -0.1988 -0.0654  0.4861
40624SOL    HW126683   7.200   7.873  11.607  0.2693 -0.2054  0.2969
40624SOL    HW226684   7.241   8.003  11.671 -0.9243  0.0133  0.6545
40625SOL     OW26685   9.364   2.548   3.935 -0.5446  0.0331 -0.0836
40625SOL    HW126686   9.426   2.560   3.864 -1.0805 -0.5488 -0.6660
40625SOL    HW226687   9.396   2.604   4.005 -0.4948  1.3113 -1.0903
40626SOL     OW26688   1.672  10.366   5.670  0.2053  0.1874 -1.0128
40626SOL    HW126689   1.757  10.328   5.693  0.6460 -0.3340 -3.2885
40626SOL    HW226690   1.639  10.309   5.601 -1.9100  0.5504 -0.3634
40627SOL     OW26691   9.674   8.537   0.150  0.3084 -0.2330 -0.1687
40627SOL    HW126692   9.674   8.630   0.169 -0.7027 -0.6069  1.9231
40627SOL    HW226693   9.583   8.509   0.165  0.5103 -1.5059 -1.1081
40628SOL     OW26694  12.285   7.420   1.676 -0.9134  1.0095  0.2244
40628SOL    HW126695  12.370   7.436   1.717 -0.8105  2.8352 -0.5838
40628SOL    HW226696  12.303   7.358   1.606 -0.3468  0.9712  0.3981
40629SOL     OW26697   0.386   5.619   1.642 -0.1935 -0.0281  0.0415
40629SOL    HW126698   0.447   5.581   1.705  0.2874  0.4932 -0.1028
40629SOL    HW226699   0.405   5.713   1.644 -0.9638  0.1306 -0.0392
40630SOL     OW26700  10.664   9.248   2.297 -0.0136 -0.1387 -0.1995
40630SOL    HW126701  10.730   9.189   2.334  0.8558  0.3817 -0.8957
40630SOL    HW226702  10.636   9.302   2.370  1.7502  0.9358 -0.2714
40631SOL     OW26703   5.626  11.930   9.217  1.1452 -0.2528  0.0409
40631SOL    HW126704   5.588  11.850   9.180  1.6962  0.1511 -1.4449
40631SOL    HW226705   5.567  11.953   9.289  1.0001 -2.0056  0.5292
40632SOL     OW26706   1.257   2.068  10.127  0.0457  0.5953 -0.0143
40632SOL    HW126707   1.279   2.123  10.202  1.4560  0.9588 -0.6596
40632SOL    HW226708   1.289   2.116  10.051 -0.6271 -0.1354 -0.7937
40633SOL     OW26709  10.578   3.294   7.221 -0.0917  0.5364  0.0781
40633SOL    HW126710  10.514   3.306   7.292 -0.6934 -1.1224 -0.1491
40633SOL    HW226711  10.648   3.243   7.261 -1.2322 -1.9295 -0.8962
40634SOL     OW26712  10.266   5.394   4.129 -0.1336 -0.0084 -0.1405
40634SOL    HW126713  10.313   5.347   4.198  0.7188  0.6400 -0.2685
40634SOL    HW226714  10.209   5.328   4.089 -0.4777 -0.4406  1.0339
40635SOL     OW26715   0.304   9.274  11.793  0.1572  0.5642  0.1111
40635SOL    HW126716   0.319   9.194  11.843 -1.0528 -0.8005 -1.6222
40635SOL    HW226717   0.301   9.246  11.702 -2.0460  2.2810 -0.4192
40636SOL     OW26718   0.139   2.050   7.819 -0.3265 -0.3496  0.0330
40636SOL    HW126719   0.196   2.031   7.744 -1.4115 -2.9595 -0.2152
40636SOL    HW226720   0.192   2.106   7.875  1.3428 -0.1695 -1.6162
40637SOL     OW26721   9.850   4.932   6.465 -0.0224  0.0874 -0.0914
40637SOL    HW126722   9.794   4.893   6.531  1.6213  0.0829  1.3784
40637SOL    HW226723   9.880   4.858   6.412 -1.1434  0.0641 -0.7372
40638SOL     OW26724   7.585   3.331   8.235 -0.0549 -0.6147 -0.1522
40638SOL    HW126725   7.637   3.405   8.203  1.0022 -0.3782  1.9491
40638SOL    HW226726   7.646   3.256   8.232 -0.8452 -1.2335 -1.4213
40639SOL     OW26727   5.571   0.800   0.390  0.0019 -0.0744  0.2954
40639SOL    HW126728   5.645   0.739   0.394 -0.1596 -0.3221 -0.4865
40639SOL    HW226729   5.496   0.748   0.421  0.2490  0.3566  1.7063
40640SOL     OW26730   9.426  10.304   6.168 -0.8229 -0.5716 -0.0234
40640SOL    HW126731   9.413  10.272   6.257 -3.2305 -0.7556 -0.3818
40640SOL    HW226732   9.371  10.247   6.113  2.0487 -1.7593 -1.9865
40641SOL     OW26733  11.971   5.192   7.235  1.0988  0.1192  0.4355
40641SOL    HW126734  11.896   5.227   7.188  0.3009 -2.8693 -0.7484
40641SOL    HW226735  12.040   5.187   7.169  1.0455 -0.8920  0.4438
40642SOL     OW26736   5.867  11.742   2.738  0.3977  0.8069  0.0829
40642SOL    HW126737   5.868  11.764   2.831 -1.3251  0.9286  0.1107
40642SOL    HW226738   5.888  11.649   2.735  0.2180  0.7466  0.6198
40643SOL     OW26739   8.559   2.741  12.094 -0.1626  0.0789 -0.6805
40643SOL    HW126740   8.653   2.723  12.098 -0.2285 -0.3365 -0.9758
40643SOL    HW226741   8.524   2.674  12.035 -1.0197 -1.2962  1.2792
40644SOL     OW26742   3.999   8.150   9.216  0.1542 -0.0535  0.3805
40644SOL    HW126743   4.069   8.086   9.202  0.2677 -0.0519  0.9184
40644SOL    HW226744   4.024   8.194   9.297  0.0346  0.6146  0.0615
40645SOL     OW26745  10.944   1.085   5.569 -0.7908 -0.8105  0.1429
40645SOL    HW126746  10.963   1.176   5.593 -0.8258 -1.3497  2.4876
40645SOL    HW226747  10.853   1.071   5.597 -0.7677 -1.5876 -0.1339
40646SOL     OW26748   4.372   8.612   6.175 -0.1544 -0.3234 -0.3252
40646SOL    HW126749   4.377   8.687   6.116 -1.1311 -0.4176 -0.5445
40646SOL    HW226750   4.336   8.542   6.121 -1.7799 -0.2046  0.5598
40647SOL     OW26751  11.926   5.197   0.175  0.3733 -0.2146 -0.1958
40647SOL    HW126752  11.973   5.238   0.248 -1.2666 -1.1267  1.4766
40647SOL    HW226753  11.899   5.112   0.210 -0.8379 -0.5006 -1.7409
40648SOL     OW26754   2.859   2.209   7.660 -0.0365 -0.3416 -0.2740
40648SOL    HW126755   2.871   2.161   7.577 -0.4550 -0.6134 -0.1788
40648SOL    HW226756   2.764   2.219   7.668 -0.1442 -2.0107  1.1169
40649SOL     OW26757  11.618  10.687  10.924 -0.0465 -0.3589 -0.2180
40649SOL    HW126758  11.600  10.754  10.990 -0.4958  0.2736 -0.9628
40649SOL    HW226759  11.704  10.652  10.948 -0.2578 -0.2312  0.7676
40650SOL     OW26760   4.066   5.336   5.468 -0.1772  0.1900  0.6691
40650SOL    HW126761   4.016   5.302   5.542  1.5757 -0.4243  1.6388
40650SOL    HW226762   4.132   5.393   5.508  0.2521  0.5626 -0.5197
40651SOL     OW26763   1.084   5.953   7.432  0.0578  0.3844  0.0776
40651SOL    HW126764   1.004   5.973   7.480 -1.9272 -0.9838 -2.3658
40651SOL    HW226765   1.108   6.036   7.390  1.3488  1.3813  2.5753
40652SOL     OW26766   4.831   9.167   8.859 -0.3174 -0.0190 -0.2936
40652SOL    HW126767   4.749   9.209   8.883 -1.0299 -1.4386 -0.1215
40652SOL    HW226768   4.842   9.186   8.765  0.0234  1.5294  0.0284
40653SOL     OW26769   9.097  11.614   4.940  0.1477 -0.0489  0.3184
40653SOL    HW126770   9.010  11.602   4.978  0.3294  0.3627  0.8744
40653SOL    HW226771   9.091  11.696   4.890  0.4324  0.4217  1.0302
40654SOL     OW26772   8.745   3.446   1.574 -0.2406 -0.0497 -0.0802
40654SOL    HW126773   8.707   3.436   1.487 -0.4527  1.8437 -0.2599
40654SOL    HW226774   8.670   3.468   1.630  0.2354  1.3755  0.0300
40655SOL     OW26775  11.704   3.892  11.540 -0.0375  0.1064  0.5860
40655SOL    HW126776  11.776   3.850  11.588 -0.3407  0.3559  1.2741
40655SOL    HW226777  11.628   3.837  11.558  0.2009 -0.8631 -1.1436
40656SOL     OW26778   8.267   3.874   5.719 -0.1025 -0.1923  0.0587
40656SOL    HW126779   8.229   3.794   5.756 -0.6608 -0.3562 -0.8359
40656SOL    HW226780   8.212   3.894   5.644 -0.0843  1.1506  0.3755
40657SOL     OW26781   0.685   4.775   3.014 -0.1270 -0.2385  0.5057
40657SOL    HW126782   0.766   4.768   2.963  1.4831  0.7381  2.7428
40657SOL    HW226783   0.656   4.866   3.001  0.3140  0.0276  1.2930
40658SOL     OW26784   2.280   2.080   7.379 -0.6422 -0.5743 -0.3951
40658SOL    HW126785   2.370   2.048   7.373 -1.0724 -2.1021  0.7606
40658SOL    HW226786   2.228   2.012   7.335 -1.2424  0.2646 -1.0011
40659SOL     OW26787   1.031  11.708   4.124  0.2558  0.2442 -0.1554
40659SOL    HW126788   0.953  11.760   4.103  1.6064  2.1023 -0.8727
40659SOL    HW226789   1.081  11.707   4.042  2.2613  1.4626  0.9807
40660SOL     OW26790   2.962   8.749   9.956 -0.3753  0.0568  0.2269
40660SOL    HW126791   2.938   8.663   9.990  0.4267 -0.0760  0.4617
40660SOL    HW226792   3.001   8.794  10.031  0.3113  0.1916 -0.2081
40661SOL     OW26793   7.929   8.833   7.128  0.3729  0.5053  0.4549
40661SOL    HW126794   7.990   8.764   7.102  0.2164  1.1942 -1.9069
40661SOL    HW226795   7.985   8.902   7.164  1.0420  1.1107 -1.6518
40662SOL     OW26796  12.261   0.894  10.604  0.2116  0.3147 -0.3968
40662SOL    HW126797  12.204   0.835  10.653 -1.9659  0.2865 -2.7886
40662SOL    HW226798  12.319   0.836  10.555  0.0860  0.2405 -0.4585
40663SOL     OW26799   3.787   9.932   0.523  0.0316  0.1735  0.1774
40663SOL    HW126800   3.753   9.925   0.612  0.1465 -0.6279  0.1596
40663SOL    HW226801   3.832   9.850   0.507  0.4408  0.5095 -0.4486
40664SOL     OW26802   1.184  11.099  12.550 -0.3129 -0.1610 -0.1933
40664SOL    HW126803   1.228  11.176  12.513  0.5378 -0.7698 -0.4639
40664SOL    HW226804   1.091  11.124  12.553 -0.2388  0.3659 -1.5675
40665SOL     OW26805   7.327   3.390   2.833 -0.0052  0.4389 -0.6842
40665SOL    HW126806   7.267   3.318   2.849  1.3700 -0.9299 -1.3654
40665SOL    HW226807   7.272   3.461   2.801 -1.3034 -0.6217 -0.8836
40666SOL     OW26808   4.073   5.071   1.174  0.1149  0.3358  0.5846
40666SOL    HW126809   4.007   5.101   1.236  1.3829  2.2998  1.0594
40666SOL    HW226810   4.030   5.000   1.127 -2.3690  1.5805  0.7938
40667SOL     OW26811  10.584   9.499  11.519 -0.0827  0.0602  0.1542
40667SOL    HW126812  10.661   9.528  11.568  1.3195  0.3364 -2.0686
40667SOL    HW226813  10.520   9.570  11.531  0.0197 -0.0946  1.8946
40668SOL     OW26814  11.865   6.530   6.131  0.3776  0.2643  0.6174
40668SOL    HW126815  11.845   6.545   6.038  2.1751 -1.2523 -0.0807
40668SOL    HW226816  11.787   6.489   6.166  0.0204 -0.0190 -0.4734
40669SOL     OW26817   1.005   8.601  12.214 -0.3492  0.2716  0.4329
40669SOL    HW126818   1.019   8.695  12.222  0.0928  0.5703 -2.7995
40669SOL    HW226819   1.082   8.568  12.168 -1.0825 -1.4708  0.3611
40670SOL     OW26820  10.621   2.344   4.111  0.0607  0.6922 -0.0715
40670SOL    HW126821  10.537   2.323   4.152 -0.5396  0.3115 -1.4317
40670SOL    HW226822  10.652   2.261   4.076  0.4663  1.0338 -0.5380
40671SOL     OW26823  10.239  11.717   5.067 -0.8992  0.1387  0.3402
40671SOL    HW126824  10.319  11.665   5.063 -0.3843  0.9871 -0.7967
40671SOL    HW226825  10.169  11.652   5.077 -0.1290 -0.6454  0.7439
40672SOL     OW26826   8.347   9.943  12.404  0.6663 -0.6302  0.3905
40672SOL    HW126827   8.410   9.924  12.335  0.6432 -0.8110  0.4188
40672SOL    HW226828   8.332   9.859  12.448  0.4065 -0.5917  0.3819
40673SOL     OW26829   8.023   1.568  10.567  0.2333  0.4151 -0.1794
40673SOL    HW126830   7.951   1.610  10.615  0.2647 -0.6312  0.8437
40673SOL    HW226831   7.984   1.488  10.531  0.8220 -0.0926  0.2735
40674SOL     OW26832   7.153   4.045  12.401  0.1368  0.0768  0.4798
40674SOL    HW126833   7.122   3.970  12.351  1.1727 -0.2609  0.3390
40674SOL    HW226834   7.248   4.037  12.403  0.1585  0.1313  2.4172
40675SOL     OW26835   2.315  11.515   5.443 -0.5373  0.4864  0.5808
40675SOL    HW126836   2.393  11.569   5.440 -0.5538  0.4741 -0.2077
40675SOL    HW226837   2.348  11.425   5.436 -0.6367  0.4985 -0.1276
40676SOL     OW26838   6.931   8.291  11.192  0.2718  0.2205 -0.1148
40676SOL    HW126839   6.984   8.364  11.161 -0.3086  0.2167 -1.2021
40676SOL    HW226840   6.918   8.237  11.114 -3.3398  1.4709 -0.5661
40677SOL     OW26841   0.690   8.879   2.953 -0.1009  0.5332 -0.1194
40677SOL    HW126842   0.747   8.803   2.965  0.1572  0.7057 -0.2210
40677SOL    HW226843   0.693   8.896   2.858  0.0966  0.8554 -0.0607
40678SOL     OW26844  10.111   1.725   5.540 -0.0531 -0.5418  0.0169
40678SOL    HW126845  10.170   1.771   5.481 -0.2713  0.8580  0.8368
40678SOL    HW226846  10.164   1.656   5.579  0.3081 -0.9741 -1.1812
40679SOL     OW26847   5.598   1.866   1.016  0.3628  0.2541 -0.3464
40679SOL    HW126848   5.642   1.865   1.101 -1.0526  1.1936  0.4295
40679SOL    HW226849   5.669   1.880   0.953  1.3645  0.1262  0.7225
40680SOL     OW26850   6.283   0.094   8.211  0.2749 -0.9188 -0.0225
40680SOL    HW126851   6.190   0.073   8.206  0.3742 -1.1597 -0.9529
40680SOL    HW226852   6.309   0.064   8.299 -0.3179 -1.7163 -0.1042
40681SOL     OW26853   0.729  12.334   0.692  0.1498  0.2428 -0.0337
40681SOL    HW126854   0.819  12.362   0.675  0.0480  0.4728 -0.2167
40681SOL    HW226855   0.711  12.363   0.782  0.2381  0.2503 -0.0186
40682SOL     OW26856   9.856   8.104   8.319  0.3179 -0.0754 -0.2720
40682SOL    HW126857   9.924   8.156   8.276 -0.3363 -0.2817 -1.5974
40682SOL    HW226858   9.779   8.114   8.263 -0.1784 -1.4310  0.1281
40683SOL     OW26859   6.630   3.300   6.419  0.0170  0.0738 -0.1298
40683SOL    HW126860   6.701   3.256   6.372  1.2167  1.1339  0.6518
40683SOL    HW226861   6.594   3.362   6.356 -1.0361 -1.2743 -0.9136
40684SOL     OW26862   5.147  11.649  11.430  0.5333 -0.7827 -0.6139
40684SOL    HW126863   5.223  11.589  11.429  0.4096 -0.9772 -2.3790
40684SOL    HW226864   5.172  11.719  11.369 -0.1750 -0.1433 -0.1713
40685SOL     OW26865   3.463   2.699   4.747 -0.3034  0.2289  0.0157
40685SOL    HW126866   3.558   2.687   4.750 -0.4037 -0.9122 -0.7183
40685SOL    HW226867   3.443   2.712   4.655 -0.8728  0.3931  0.1548
40686SOL     OW26868  10.848   8.453  11.531 -0.1393 -0.1753 -0.5852
40686SOL    HW126869  10.786   8.380  11.530 -0.3264 -0.0810  1.2254
40686SOL    HW226870  10.919   8.425  11.473 -1.1165 -0.9500 -1.4611
40687SOL     OW26871   7.963   8.500   2.022 -0.7561  0.6277  0.2771
40687SOL    HW126872   7.880   8.547   2.036 -0.4720  0.7874  1.5235
40687SOL    HW226873   8.004   8.498   2.109 -0.5308 -1.5083  0.1717
40688SOL     OW26874   1.963   7.275   8.234 -0.0933 -0.0871  0.1829
40688SOL    HW126875   1.936   7.203   8.177  1.2518 -0.0908 -0.5140
40688SOL    HW226876   1.915   7.261   8.316 -2.7444  0.4009 -1.1870
40689SOL     OW26877   9.033   6.010  12.564 -0.9325 -0.3174 -0.1323
40689SOL    HW126878   8.953   6.063  12.564 -0.8424 -0.1591 -1.4714
40689SOL    HW226879   9.099   6.069  12.600 -0.7847  0.6063 -1.8050
40690SOL     OW26880   1.567   6.680   6.907  0.2030  0.0999  0.0896
40690SOL    HW126881   1.482   6.690   6.949 -0.1948  2.8533 -1.1547
40690SOL    HW226882   1.613   6.762   6.925  1.7315 -0.4474 -1.1006
40691SOL     OW26883   5.104  11.272  10.166 -0.1958 -0.0110  0.1862
40691SOL    HW126884   5.084  11.194  10.113 -0.8652  0.6028 -0.4825
40691SOL    HW226885   5.180  11.246  10.218 -0.3596 -1.0899 -0.0812
40692SOL     OW26886   3.729   2.934   2.024 -0.6528  0.5048 -0.5773
40692SOL    HW126887   3.797   2.900   1.965  0.3511 -0.0742  0.8601
40692SOL    HW226888   3.772   2.938   2.110 -1.2831  3.7102 -0.3119
40693SOL     OW26889  11.393   1.657   9.365 -1.0814  0.0495 -0.0900
40693SOL    HW126890  11.371   1.617   9.450  0.0130 -0.2730  0.0549
40693SOL    HW226891  11.487   1.643   9.356 -1.3619 -0.9289 -1.8987
40694SOL     OW26892   5.365   2.247   9.855 -0.4813 -0.4664 -0.4496
40694SOL    HW126893   5.427   2.269   9.925 -0.1702 -2.4113 -0.0619
40694SOL    HW226894   5.416   2.192   9.795 -1.5310 -1.1688 -0.7137
40695SOL     OW26895  11.442   4.392   5.802  0.6454  0.0946  0.2985
40695SOL    HW126896  11.352   4.401   5.770  0.5801 -1.7939 -0.2037
40695SOL    HW226897  11.436   4.410   5.896  0.0138  1.2950  0.0551
40696SOL     OW26898   0.726   1.246   7.659 -0.2687 -0.1003  1.1422
40696SOL    HW126899   0.734   1.200   7.742 -1.8486  0.0129  1.3754
40696SOL    HW226900   0.635   1.235   7.633  0.0785  0.2580 -0.3554
40697SOL     OW26901   2.989   9.209  10.370 -0.0465 -0.1653  0.4471
40697SOL    HW126902   2.974   9.245  10.282 -0.1950 -0.9123  0.1647
40697SOL    HW226903   3.079   9.235  10.391  0.7363 -1.7346 -0.7805
40698SOL     OW26904  12.383  11.789   8.083 -0.1185  0.2114  0.2739
40698SOL    HW126905  12.422  11.792   8.170  1.1825  0.3169 -0.3003
40698SOL    HW226906  12.443  11.737   8.031 -0.6967  0.4552 -0.6573
40699SOL     OW26907   7.870   6.469   6.568 -0.5725 -0.4267  0.1026
40699SOL    HW126908   7.819   6.425   6.635 -1.2172  0.7107  0.3791
40699SOL    HW226909   7.833   6.557   6.563  1.5067  0.5429  0.4968
40700SOL     OW26910   8.346   8.710   1.044 -0.7837  0.3845 -0.4517
40700SOL    HW126911   8.415   8.644   1.039  0.2822  1.5222 -1.4439
40700SOL    HW226912   8.276   8.667   1.093  0.2650 -1.1171 -0.1790
40701SOL     OW26913   7.257   7.775   2.082 -0.4855  0.2974 -0.4494
40701SOL    HW126914   7.217   7.745   2.164  2.6241 -0.0825  1.0712
40701SOL    HW226915   7.298   7.858   2.104  0.8453 -0.0604 -1.4383
40702SOL     OW26916   2.707   6.724   9.259  0.2708  0.6193  0.9028
40702SOL    HW126917   2.741   6.672   9.332  0.6110 -0.2509  0.1505
40702SOL    HW226918   2.670   6.659   9.199  1.4684  1.1361 -0.4579
40703SOL     OW26919   7.662   1.734  10.012  0.1627  0.6072  0.1398
40703SOL    HW126920   7.604   1.703   9.943 -0.6078  2.6103 -0.1685
40703SOL    HW226921   7.626   1.819  10.038  2.0074  1.1526  1.0940
40704SOL     OW26922  12.276   9.422   5.746  0.1489 -0.8041 -0.1930
40704SOL    HW126923  12.236   9.336   5.734 -1.1056 -0.6616  2.2000
40704SOL    HW226924  12.212   9.483   5.712 -0.3555 -0.7242  0.8398
40705SOL     OW26925   2.822   7.852   0.889 -0.2968  0.1311 -0.1672
40705SOL    HW126926   2.815   7.912   0.963  2.0639  1.6988 -1.1146
40705SOL    HW226927   2.747   7.874   0.833 -1.2118 -0.0105  0.9491
40706SOL     OW26928  12.296   0.198   4.219 -0.2178 -0.4279 -0.1243
40706SOL    HW126929  12.256   0.134   4.161 -1.1779 -0.2509  0.3308
40706SOL    HW226930  12.382   0.216   4.179 -1.5028  0.9678 -2.4776
40707SOL     OW26931  10.745   9.462   2.064 -0.0076 -0.2391  0.4858
40707SOL    HW126932  10.814   9.503   2.115 -0.8581  1.1854  0.5484
40707SOL    HW226933  10.713   9.390   2.119 -0.4248  0.8200  1.6620
40708SOL     OW26934   2.173   1.580   9.248  0.7290 -0.2281 -0.1652
40708SOL    HW126935   2.168   1.627   9.165  1.1192 -1.3879 -0.8797
40708SOL    HW226936   2.113   1.626   9.306 -0.1428  0.1455 -1.3233
40709SOL     OW26937   1.982   6.055   8.804  0.0435  1.0444  0.1978
40709SOL    HW126938   1.901   6.046   8.854 -0.1041  1.2258 -0.0095
40709SOL    HW226939   1.962   6.015   8.719  0.0885  1.3266  0.0553
40710SOL     OW26940   7.484   6.338   8.104  0.5133 -0.6412 -0.3022
40710SOL    HW126941   7.524   6.412   8.148 -1.4589  0.0162  0.5205
40710SOL    HW226942   7.390   6.358   8.105  0.2067 -1.3539 -3.4110
40711SOL     OW26943   8.081  10.695   7.566  0.5930 -0.1753  0.5149
40711SOL    HW126944   8.030  10.677   7.487  0.0588  0.4617  0.7076
40711SOL    HW226945   8.162  10.645   7.554 -0.1241 -1.3060  0.2669
40712SOL     OW26946   2.363   2.553   8.355  0.0432  0.6974 -0.1052
40712SOL    HW126947   2.319   2.494   8.293  0.2660  0.6908 -0.2592
40712SOL    HW226948   2.294   2.611   8.386 -0.3171 -0.0759  0.5559
40713SOL     OW26949   6.243  10.389   8.270  0.5556 -0.6888 -0.3227
40713SOL    HW126950   6.258  10.430   8.185  1.0989 -1.0926 -0.4204
40713SOL    HW226951   6.150  10.367   8.270  0.3566  0.1149 -0.4583
40714SOL     OW26952  12.357   1.688   6.129 -0.1021  0.0101 -0.1447
40714SOL    HW126953  12.357   1.688   6.225  1.7782 -0.0616 -0.0929
40714SOL    HW226954  12.390   1.775   6.105  0.3188 -0.2934 -0.6917
40715SOL     OW26955  11.135   7.771   4.327 -0.2968 -0.3742  0.5240
40715SOL    HW126956  11.111   7.862   4.310 -0.7405 -0.4783  0.5729
40715SOL    HW226957  11.069   7.720   4.280 -1.1997 -0.6695  2.0191
40716SOL     OW26958   1.720   2.408   5.789  0.1446 -0.4353  0.1899
40716SOL    HW126959   1.699   2.467   5.861  1.9546  1.1914 -0.5454
40716SOL    HW226960   1.749   2.327   5.832 -2.0963 -0.7582  1.2093
40717SOL     OW26961   4.745   3.627   9.006  0.3065 -0.4210  0.1982
40717SOL    HW126962   4.748   3.714   8.967  0.0083  1.1471  3.3600
40717SOL    HW226963   4.808   3.575   8.956  0.2857  1.4920 -1.9481
40718SOL     OW26964   9.380  10.117   3.716 -0.8938 -0.1027 -0.0620
40718SOL    HW126965   9.326  10.127   3.795 -2.4740 -0.8165 -0.9964
40718SOL    HW226966   9.358  10.029   3.684  1.4785 -0.7685 -0.0465
40719SOL     OW26967   1.183   6.387  12.091 -0.3119 -0.1096  0.1411
40719SOL    HW126968   1.150   6.425  12.173  0.2401 -0.4785  0.5442
40719SOL    HW226969   1.113   6.403  12.028 -2.5481 -3.1921  1.5625
40720SOL     OW26970   8.422   7.523  10.571 -0.1264  0.3016 -0.4540
40720SOL    HW126971   8.506   7.549  10.608 -0.5070  1.1473 -0.1653
40720SOL    HW226972   8.366   7.507  10.647 -0.3618  0.1891 -0.6495
40721SOL     OW26973  11.983   5.975   7.968  0.3182 -0.1388 -0.3260
40721SOL    HW126974  12.070   5.940   7.984 -0.2003 -1.4418 -0.1627
40721SOL    HW226975  11.924   5.905   7.998 -0.8007  1.1975  0.7050
40722SOL     OW26976   1.631   1.799  11.814  0.1664 -0.2018  0.1878
40722SOL    HW126977   1.662   1.763  11.731  2.0338 -0.1084  0.8115
40722SOL    HW226978   1.658   1.891  11.812 -0.8509  0.1090  0.4019
40723SOL     OW26979  11.027   3.660  10.358  0.0109 -0.1542  0.4394
40723SOL    HW126980  11.054   3.608  10.434  1.8559 -1.2677 -0.8866
40723SOL    HW226981  11.094   3.642  10.292 -0.6205  2.0640 -0.9106
40724SOL     OW26982   4.657   8.624   2.841  0.0241 -0.3203  0.1449
40724SOL    HW126983   4.721   8.585   2.900  0.2289 -1.5204 -0.8362
40724SOL    HW226984   4.675   8.585   2.755 -0.4321  1.1887 -0.6811
40725SOL     OW26985   5.564   7.604  11.924 -0.1078 -0.4287  0.0224
40725SOL    HW126986   5.588   7.515  11.948  0.0193 -0.2898  0.4315
40725SOL    HW226987   5.637   7.657  11.957 -1.5975  0.1925  2.6523
40726SOL     OW26988   1.282   1.448   6.749  0.1268 -0.4620 -0.0799
40726SOL    HW126989   1.343   1.502   6.698 -0.3942  0.9315  0.7171
40726SOL    HW226990   1.235   1.511   6.804 -1.9469 -1.5151 -0.5593
40727SOL     OW26991   1.005   8.860  12.307  0.5962 -0.0521 -0.4944
40727SOL    HW126992   1.088   8.851  12.354  0.1989 -0.5269  0.1243
40727SOL    HW226993   1.006   8.950  12.275  0.7095  0.4182  0.7702
40728SOL     OW26994   8.976   3.666  10.187  0.2078 -0.0800  0.0816
40728SOL    HW126995   9.010   3.608  10.119 -1.4212 -1.2317  0.1714
40728SOL    HW226996   9.036   3.741  10.188  0.5926 -0.2907 -2.2063
40729SOL     OW26997  10.397   3.464   9.183  0.0353  0.3402  0.2725
40729SOL    HW126998  10.409   3.434   9.093 -1.1619  0.7354 -0.0409
40729SOL    HW226999  10.434   3.553   9.183 -2.0315  1.2713 -0.4946
40730SOL     OW27000   7.382   2.635   5.402  0.3061  0.1643  0.2885
40730SOL    HW127001   7.294   2.597   5.393  0.2794  0.4753 -0.8471
40730SOL    HW227002   7.386   2.703   5.335  2.1701 -1.2641 -1.1755
40731SOL     OW27003  10.708   0.870  11.923  0.3173  0.8297 -0.1483
40731SOL    HW127004  10.774   0.937  11.942  1.1709 -0.5753  2.3359
40731SOL    HW227005  10.758   0.791  11.906 -0.7001  0.4957 -1.8121
40732SOL     OW27006   8.515  11.412   9.975 -0.0328  0.0964 -0.8248
40732SOL    HW127007   8.474  11.337   9.930  0.3323 -1.4352  1.2358
40732SOL    HW227008   8.573  11.450   9.909 -0.3754 -1.3218 -2.0175
40733SOL     OW27009   3.479   5.586   8.481 -0.6241 -0.1331 -0.0843
40733SOL    HW127010   3.487   5.676   8.449  2.4454  0.3633  1.6679
40733SOL    HW227011   3.537   5.535   8.424 -1.3566 -0.7846 -0.2667
40734SOL     OW27012   4.263   7.636   2.322  0.3150 -0.4079  0.6807
40734SOL    HW127013   4.320   7.578   2.271  0.2258 -2.8678  3.1415
40734SOL    HW227014   4.253   7.714   2.267  4.2965 -0.7043 -0.7582
40735SOL     OW27015   9.846   3.437   6.922 -0.3569  0.5165  0.4960
40735SOL    HW127016   9.791   3.500   6.969 -0.6746 -0.2665  1.2130
40735SOL    HW227017   9.829   3.455   6.830 -0.6283  1.3114  0.6873
40736SOL     OW27018  11.063   8.049   3.472  0.4478  0.9324 -0.2152
40736SOL    HW127019  11.058   8.089   3.385  1.9106  0.3299 -0.5883
40736SOL    HW227020  11.141   8.087   3.512 -0.4332  1.5176  1.0199
40737SOL     OW27021   0.927   5.826   1.674  0.6015 -0.3318  0.1650
40737SOL    HW127022   1.021   5.843   1.683  0.7233 -0.6025 -0.6045
40737SOL    HW227023   0.921   5.744   1.625  0.0232 -2.5908  3.6188
40738SOL     OW27024  12.608  12.328   4.320 -0.3195  0.3303  0.0364
40738SOL    HW127025  12.591  12.417   4.291 -3.9149 -0.1447  0.3023
40738SOL    HW227026  12.561  12.320   4.403 -0.6640 -1.9848 -0.3056
40739SOL     OW27027   5.969   7.237   6.579 -0.2923 -0.4181 -0.1868
40739SOL    HW127028   5.982   7.186   6.658 -0.5904  0.1895  0.2671
40739SOL    HW227029   6.002   7.182   6.508  1.2400 -0.4428  0.4981
40740SOL     OW27030  12.058   4.139   7.128  0.2367 -0.3645 -0.5119
40740SOL    HW127031  12.004   4.070   7.165  2.0991 -1.6226 -0.0257
40740SOL    HW227032  12.134   4.094   7.092  0.8650  1.3153 -1.3985
40741SOL     OW27033   7.052   5.763   5.893 -0.5230 -0.2706  0.2818
40741SOL    HW127034   6.960   5.761   5.920 -0.5945 -1.1573  0.0165
40741SOL    HW227035   7.052   5.813   5.812 -0.4745  1.3849  1.2555
40742SOL     OW27036   2.522   9.640  10.822 -0.0885 -0.5224  0.2597
40742SOL    HW127037   2.601   9.686  10.851  0.4555 -1.3815  0.1919
40742SOL    HW227038   2.453   9.706  10.825  0.4582  0.0355  1.1538
40743SOL     OW27039  10.440   2.915   8.157 -0.4487  0.3380  0.1066
40743SOL    HW127040  10.436   2.821   8.137 -1.8724  0.7002 -1.5018
40743SOL    HW227041  10.525   2.926   8.200 -0.0378 -1.6132 -0.1081
40744SOL     OW27042  11.235   0.944   3.430  0.2228 -0.7565 -0.5718
40744SOL    HW127043  11.280   0.909   3.353 -0.0640 -3.0484  0.2359
40744SOL    HW227044  11.297   0.930   3.502  1.4821  3.4374 -0.5680
40745SOL     OW27045  10.328   4.330   3.982 -0.4472  0.1185  0.2383
40745SOL    HW127046  10.305   4.418   3.951 -0.6479 -0.1022 -0.2560
40745SOL    HW227047  10.245   4.282   3.982 -0.5273  0.2420  1.5766
40746SOL     OW27048   3.849   3.666   3.060 -0.3775 -0.5160 -0.0837
40746SOL    HW127049   3.913   3.639   2.993  0.6042  1.3974  0.0237
40746SOL    HW227050   3.833   3.758   3.042 -2.3852 -0.6965  0.5398
40747SOL     OW27051   5.140   8.064   0.041  0.3407 -0.2626  0.4950
40747SOL    HW127052   5.111   8.130   0.103 -1.8541 -1.0298  0.3518
40747SOL    HW227053   5.174   8.114  -0.033 -0.8575  0.7026  0.5732
40748SOL     OW27054   0.191   6.912   1.905 -0.4057  0.0710  0.1279
40748SOL    HW127055   0.205   6.968   1.981 -0.7190 -0.1446  0.3499
40748SOL    HW227056   0.121   6.852   1.932  0.6138 -1.1040  0.2666
40749SOL     OW27057   3.228   6.245   1.000  0.0873  0.2517  0.8452
40749SOL    HW127058   3.218   6.180   0.931  1.2615 -0.1124  0.9899
40749SOL    HW227059   3.233   6.329   0.955  0.3350  0.0619  0.5165
40750SOL     OW27060  10.975   5.336   3.132  0.3411 -0.2710 -0.8262
40750SOL    HW127061  11.046   5.383   3.175 -0.6334  2.5685 -2.0686
40750SOL    HW227062  10.914   5.404   3.104 -1.0491 -2.2582 -3.1084
40751SOL     OW27063   9.891   5.079   4.524 -0.3642  1.0539 -0.3643
40751SOL    HW127064   9.957   5.141   4.555  1.1478  0.3376 -1.9487
40751SOL    HW227065   9.928   5.044   4.443 -1.1701 -1.8876  0.4357
40752SOL     OW27066   0.354   5.613   5.725  0.2822 -0.2380 -0.0839
40752SOL    HW127067   0.275   5.659   5.698  0.5560 -0.2488 -0.9407
40752SOL    HW227068   0.323   5.541   5.780 -0.2634  0.0350 -0.0339
40753SOL     OW27069  11.649   6.333   2.888 -0.1061  0.5254  0.1561
40753SOL    HW127070  11.555   6.347   2.889 -0.0706  0.7827  1.0581
40753SOL    HW227071  11.685   6.406   2.838 -0.4814 -0.3682 -1.4899
40754SOL     OW27072   3.631   0.861   8.425 -0.7230  0.2657  0.3565
40754SOL    HW127073   3.626   0.936   8.485  1.5543  0.7250  0.0810
40754SOL    HW227074   3.690   0.891   8.356 -1.3580 -1.1189 -0.8164
40755SOL     OW27075  12.006   4.503   2.939  0.5915  0.1713 -0.3423
40755SOL    HW127076  11.954   4.496   3.020  2.9727  0.4199  1.3178
40755SOL    HW227077  12.062   4.426   2.941  1.5651  0.8442 -1.1072
40756SOL     OW27078   5.536   7.051   6.977  0.7634 -0.4497  0.0254
40756SOL    HW127079   5.524   6.960   6.947  0.1066 -0.9380  1.6762
40756SOL    HW227080   5.592   7.043   7.055  2.1839  0.7549 -0.8212
40757SOL     OW27081   3.909   8.082   1.014 -0.3052  0.1594 -0.2456
40757SOL    HW127082   3.997   8.049   0.998  0.0018  0.6687  0.3732
40757SOL    HW227083   3.876   8.027   1.086 -0.5845 -0.1830 -0.6304
40758SOL     OW27084   1.633   6.433   9.349 -0.1485  0.1678  0.4594
40758SOL    HW127085   1.621   6.521   9.313  0.9673 -0.9335 -2.9916
40758SOL    HW227086   1.544   6.397   9.355 -0.4086  0.5060 -1.0593
40759SOL     OW27087  11.840   7.206   3.039 -0.0367 -0.1565  0.1015
40759SOL    HW127088  11.818   7.233   2.950 -1.5491  1.7369  0.9667
40759SOL    HW227089  11.818   7.113   3.042 -0.3421 -0.1558 -1.3823
40760SOL     OW27090   5.017  10.671   4.267  0.4788 -0.2922 -0.5552
40760SOL    HW127091   5.108  10.694   4.246  0.4771 -1.2148 -1.6441
40760SOL    HW227092   4.980  10.642   4.184 -0.9965  0.5949 -0.2357
40761SOL     OW27093   0.387   5.349   4.364 -0.2437  0.2467  0.3159
40761SOL    HW127094   0.378   5.439   4.397 -1.1136 -0.5148  2.2800
40761SOL    HW227095   0.308   5.335   4.312 -0.0376  0.6542 -0.1152
40762SOL     OW27096  12.263   9.770  11.871 -0.8187 -0.0237 -0.3214
40762SOL    HW127097  12.229   9.850  11.832 -0.9503 -0.6602 -1.5494
40762SOL    HW227098  12.300   9.721  11.798 -2.8479 -2.1759 -0.0121
40763SOL     OW27099   3.921  12.536  11.952  0.1724 -0.6392  0.0461
40763SOL    HW127100   3.862  12.556  11.880  0.0993  0.6207  0.4368
40763SOL    HW227101   3.873  12.562  12.031  0.4136 -1.6120  0.5329
40764SOL     OW27102   9.495   1.838   3.198 -0.4666 -0.4858  0.2554
40764SOL    HW127103   9.566   1.876   3.145 -1.1925 -0.6102 -0.8273
40764SOL    HW227104   9.524   1.749   3.216 -0.2954 -0.5019 -0.0872
40765SOL     OW27105   0.873  10.898   5.733 -0.3811  0.4023  0.5150
40765SOL    HW127106   0.785  10.900   5.771 -0.6779  0.5794 -0.1648
40765SOL    HW227107   0.876  10.816   5.684  0.3459 -0.3058  1.7016
40766SOL     OW27108   9.006   0.928   5.227 -0.3895 -0.0999 -0.5521
40766SOL    HW127109   8.960   0.846   5.210 -0.7310  0.2596 -1.3962
40766SOL    HW227110   8.948   0.977   5.286  1.1956 -1.7201  2.5718
40767SOL     OW27111   9.555  12.091   1.825 -0.2472  0.0922  0.0091
40767SOL    HW127112   9.475  12.121   1.870 -1.1967 -0.8978 -0.9367
40767SOL    HW227113   9.522  12.048   1.746  1.2153 -0.7493 -0.1612
40768SOL     OW27114  11.063  10.435   0.420 -0.0934  0.3275 -0.5767
40768SOL    HW127115  11.143  10.445   0.471 -1.8967 -1.3318  2.9136
40768SOL    HW227116  11.070  10.347   0.382 -0.5595 -0.1584  0.4266
40769SOL     OW27117   7.803   4.863   4.657  0.2879  0.1589 -0.4219
40769SOL    HW127118   7.738   4.831   4.719  0.5607  1.7732  0.7488
40769SOL    HW227119   7.880   4.808   4.672  0.5963  0.9671  1.2266
40770SOL     OW27120   5.461   3.822   9.263  0.3467  0.1430  0.5223
40770SOL    HW127121   5.533   3.760   9.250 -0.0699 -0.7415  2.2354
40770SOL    HW227122   5.483   3.896   9.206  3.2045  0.4072  1.8167
40771SOL     OW27123   0.312   6.262   0.435  0.1381 -0.3605  0.1808
40771SOL    HW127124   0.224   6.301   0.439 -0.3738 -1.5171  0.5758
40771SOL    HW227125   0.298   6.170   0.456  1.1894 -0.9619 -1.5485
40772SOL     OW27126   0.636   7.388  11.419  0.1644 -0.4225  0.4170
40772SOL    HW127127   0.677   7.378  11.505 -0.7676 -1.1744  0.7971
40772SOL    HW227128   0.544   7.405  11.437  0.0812  0.1227 -0.4329
40773SOL     OW27129  10.276   9.351   1.218  0.3156  0.0154 -0.1656
40773SOL    HW127130  10.207   9.409   1.250 -0.6354 -1.1648 -0.0020
40773SOL    HW227131  10.263   9.349   1.123 -1.9560 -2.6160  0.0710
40774SOL     OW27132   7.033   9.096   8.915 -0.1291  0.0234 -0.3125
40774SOL    HW127133   7.026   9.138   9.001  0.1952  2.2447 -1.3188
40774SOL    HW227134   7.057   9.005   8.935  0.7109  0.6750  1.9144
40775SOL     OW27135   2.719   1.217  10.380 -0.2109 -0.2130 -0.2639
40775SOL    HW127136   2.632   1.228  10.419 -0.1136 -0.0615 -0.0910
40775SOL    HW227137   2.716   1.129  10.340 -0.5258 -0.1120 -0.4739
40776SOL     OW27138   8.026   1.012   0.986 -0.3050 -0.2958  0.1789
40776SOL    HW127139   8.090   1.081   1.001  0.8030 -0.9532 -1.1796
40776SOL    HW227140   8.032   0.995   0.892 -0.6726 -2.0950  0.4473
40777SOL     OW27141   1.001   5.622   3.949  0.3275 -0.0913 -0.2598
40777SOL    HW127142   0.971   5.567   4.021  1.5299 -0.9287 -0.3632
40777SOL    HW227143   1.068   5.678   3.987 -0.3208  0.7396 -0.3346
40778SOL     OW27144   9.960   8.143   2.084 -0.2119  0.1503 -0.2681
40778SOL    HW127145  10.047   8.154   2.045  0.6098  0.5537  1.5883
40778SOL    HW227146   9.955   8.210   2.152 -1.1021 -1.2448  1.1296
40779SOL     OW27147   6.549   4.353   0.561 -0.4885  0.3611 -0.3645
40779SOL    HW127148   6.634   4.390   0.582 -1.0975  1.5704  0.0392
40779SOL    HW227149   6.554   4.335   0.467  0.0371  0.8943 -0.4474
40780SOL     OW27150   1.412   9.865   2.704  0.4924  0.1513 -0.2452
40780SOL    HW127151   1.347   9.845   2.636 -0.6749 -1.4023  1.2297
40780SOL    HW227152   1.446   9.779   2.730  2.6709  0.8878 -0.4770
40781SOL     OW27153   7.127   3.533   3.913  0.0365 -0.0940 -0.1814
40781SOL    HW127154   7.178   3.611   3.935 -0.2649  0.7724 -2.3115
40781SOL    HW227155   7.191   3.472   3.875 -0.1848  0.3588 -1.3439
40782SOL     OW27156   6.340   4.969   6.416  0.1167  0.6873 -0.4593
40782SOL    HW127157   6.300   4.883   6.403  0.3799  0.4771  0.0514
40782SOL    HW227158   6.271   5.032   6.395 -0.9244  0.3436  1.5915
40783SOL     OW27159   9.234   2.867   0.555  0.3702 -0.5676  0.0265
40783SOL    HW127160   9.167   2.869   0.486  1.2508  1.5262 -0.8658
40783SOL    HW227161   9.277   2.783   0.545 -0.8463 -1.1377 -0.6586
40784SOL     OW27162  11.816   2.241   9.119 -0.1472  0.8718 -0.9041
40784SOL    HW127163  11.831   2.317   9.175 -0.7589  0.8316 -0.6669
40784SOL    HW227164  11.878   2.250   9.047  1.1376  0.5761  0.1243
40785SOL     OW27165   4.777   0.215  12.215 -0.2834  0.0869 -0.5557
40785SOL    HW127166   4.730   0.270  12.152 -0.3029 -0.2086 -0.8025
40785SOL    HW227167   4.862   0.257  12.225 -0.3695  0.2697 -0.5968
40786SOL     OW27168   6.698   2.379   1.716 -0.3087 -0.0453  0.5485
40786SOL    HW127169   6.736   2.344   1.636  0.8686  0.6429  0.7828
40786SOL    HW227170   6.759   2.447   1.745 -1.0897  0.2414  1.6246
40787SOL     OW27171  11.019   8.682   7.433 -0.2130  0.3335 -0.7469
40787SOL    HW127172  10.937   8.682   7.384  0.3605  1.0424 -1.7359
40787SOL    HW227173  11.081   8.638   7.375  0.3942  0.8604 -0.5069
40788SOL     OW27174  11.387   8.016  11.524  0.7096  0.5479  0.1116
40788SOL    HW127175  11.318   7.970  11.476  0.0182  0.3654  1.2419
40788SOL    HW227176  11.445   8.050  11.456  0.5470 -0.9112 -0.8006
40789SOL     OW27177   0.933   7.266  10.507  0.3620 -1.0236 -0.3791
40789SOL    HW127178   1.009   7.230  10.552  0.6972 -0.1219 -0.2020
40789SOL    HW227179   0.865   7.270  10.573  0.7226 -0.1134 -0.0436
40790SOL     OW27180   3.353   3.395   8.981 -0.2147  0.2369  0.2682
40790SOL    HW127181   3.432   3.341   8.975  0.1693  0.8396 -0.2790
40790SOL    HW227182   3.383   3.483   8.961 -1.0200  0.4833  0.1011
40791SOL     OW27183   7.337   7.462   7.088 -0.4280 -0.0958 -0.0502
40791SOL    HW127184   7.323   7.379   7.134  0.2260  1.0930  2.5207
40791SOL    HW227185   7.249   7.498   7.077 -0.7153 -1.1010 -1.1795
40792SOL     OW27186  12.244  10.257   6.185 -0.3290  0.3509 -0.1503
40792SOL    HW127187  12.250  10.162   6.198 -0.5000  0.2498 -0.7726
40792SOL    HW227188  12.226  10.267   6.091 -1.1157  0.9623  0.0518
40793SOL     OW27189  12.493   4.694   1.591  0.2265  0.3203 -0.2707
40793SOL    HW127190  12.464   4.702   1.501  0.8235  1.2720 -0.3980
40793SOL    HW227191  12.485   4.782   1.627  0.9804  0.1766  0.2887
40794SOL     OW27192  10.816   2.120   2.942  0.4339 -0.0875 -0.6341
40794SOL    HW127193  10.906   2.147   2.959  0.5049 -0.9613  0.5366
40794SOL    HW227194  10.766   2.155   3.017 -0.0794 -0.2021 -0.9149
40795SOL     OW27195  12.600   6.490  11.856  0.5140 -0.3844 -0.2356
40795SOL    HW127196  12.590   6.415  11.915 -0.2303 -1.0162 -1.1286
40795SOL    HW227197  12.575   6.566  11.909  0.0658 -0.9161  0.3231
40796SOL     OW27198   5.202   6.330  12.055  0.0404  0.5200  0.2775
40796SOL    HW127199   5.205   6.340  11.960  1.4647  0.4305  0.2939
40796SOL    HW227200   5.199   6.420  12.088 -0.8913  0.5446  0.1549
40797SOL     OW27201   1.733   4.032   8.805  0.1464  0.3324  0.0413
40797SOL    HW127202   1.662   4.095   8.821 -0.4212  0.3759 -2.2731
40797SOL    HW227203   1.800   4.055   8.869 -1.5168  0.9356  1.6493
40798SOL     OW27204   4.200   9.444   0.582  0.2026 -0.5553 -0.4449
40798SOL    HW127205   4.152   9.462   0.502 -0.6701 -0.8604 -0.0065
40798SOL    HW227206   4.171   9.511   0.644 -1.8956 -2.3769  0.7106
40799SOL     OW27207   9.979   9.011   6.535  0.0642 -0.2488 -0.3333
40799SOL    HW127208   9.972   9.092   6.584 -0.1539  1.1406 -2.5204
40799SOL    HW227209  10.073   8.999   6.521  0.0398  0.4544 -1.2214
40800SOL     OW27210   0.732   7.941   3.349 -0.1408  0.1677  0.0595
40800SOL    HW127211   0.714   7.985   3.432 -2.2199  0.0442 -0.2571
40800SOL    HW227212   0.812   7.891   3.364 -0.5515  0.0311  2.0323
40801SOL     OW27213   1.461  12.358   7.284 -0.3742 -0.4605  0.0028
40801SOL    HW127214   1.521  12.366   7.358  0.0928 -1.0759 -0.3035
40801SOL    HW227215   1.513  12.317   7.215 -0.6154  0.6689 -0.8940
40802SOL     OW27216   6.548   3.812  11.485  0.3130 -0.1310  0.1473
40802SOL    HW127217   6.583   3.882  11.540  0.1955  0.2833 -0.2891
40802SOL    HW227218   6.625   3.767  11.452  0.6051  1.8314 -2.1746
40803SOL     OW27219   1.157   5.436   2.507 -0.2509  0.0500  0.0292
40803SOL    HW127220   1.235   5.491   2.513  0.3549 -0.7591 -0.2940
40803SOL    HW227221   1.189   5.347   2.519 -0.7426 -0.5580 -2.5564
40804SOL     OW27222  10.501   7.390  12.365 -0.3811  0.0253 -0.3067
40804SOL    HW127223  10.485   7.467  12.311 -0.3869 -0.7266 -1.4232
40804SOL    HW227224  10.420   7.339  12.359 -0.2306 -0.2672  0.0802
40805SOL     OW27225   0.642  12.223   6.291  0.1781  0.2131  0.3816
40805SOL    HW127226   0.657  12.181   6.376 -1.7515 -0.1431  0.5921
40805SOL    HW227227   0.689  12.168   6.229  1.5167  0.4110  1.1761
40806SOL     OW27228   4.131   5.141   6.016 -0.1725 -0.1017 -0.1557
40806SOL    HW127229   4.170   5.228   6.032 -0.6976  0.2846 -0.9299
40806SOL    HW227230   4.037   5.157   6.018 -0.2752 -0.4324 -1.4076
40807SOL     OW27231   2.288   9.438   3.473  0.0048 -0.0332 -0.2112
40807SOL    HW127232   2.355   9.505   3.458 -0.3963  0.3592 -0.2518
40807SOL    HW227233   2.212   9.486   3.504  0.0098 -0.5730  0.6552
40808SOL     OW27234   2.671   0.946   6.592  0.0645 -0.3806 -0.2747
40808SOL    HW127235   2.733   0.884   6.631  0.0198 -1.6959 -2.1502
40808SOL    HW227236   2.716   1.030   6.596 -0.5218 -0.0638  3.8157
40809SOL     OW27237   5.569   6.342   1.481  0.8023  0.5720  0.1953
40809SOL    HW127238   5.530   6.263   1.520 -2.6487  1.9111 -0.1224
40809SOL    HW227239   5.634   6.309   1.419 -1.7529 -2.2380 -1.3076
40810SOL     OW27240   3.206   1.830  12.044 -0.0493 -0.5077  0.2968
40810SOL    HW127241   3.170   1.888  12.111  1.9746 -1.2733  2.1283
40810SOL    HW227242   3.300   1.848  12.044 -0.0110  0.0419 -2.9635
40811SOL     OW27243   6.081  10.047   5.461 -0.6008 -0.2405 -0.7015
40811SOL    HW127244   6.139  10.036   5.385  0.5005  1.7331 -0.2097
40811SOL    HW227245   6.106   9.976   5.520  2.0932  1.1217 -0.0692
40812SOL     OW27246  10.252  10.661  11.574  0.4547  0.7628 -0.1134
40812SOL    HW127247  10.317  10.602  11.535  0.8724  1.4449 -0.4647
40812SOL    HW227248  10.252  10.737  11.517 -0.7935  0.7027 -0.2248
40813SOL     OW27249   7.998  11.733  12.582  0.2064  0.1365  1.1725
40813SOL    HW127250   8.073  11.712  12.638 -1.7156  0.4313  4.1040
40813SOL    HW227251   7.942  11.655  12.586 -0.5143  0.6004  0.5676
40814SOL     OW27252   4.761   0.901   7.265 -0.6239  0.0756  0.6043
40814SOL    HW127253   4.682   0.869   7.308 -0.3680 -0.7408  0.4884
40814SOL    HW227254   4.833   0.872   7.322 -0.3048 -0.7450 -0.1913
40815SOL     OW27255   9.309   1.514   1.908 -0.0538  0.0145  0.0937
40815SOL    HW127256   9.387   1.463   1.929  1.3042  1.9435  0.0039
40815SOL    HW227257   9.237   1.466   1.949  1.4387 -0.7796  1.9374
40816SOL     OW27258  12.428   9.517  12.031  0.0330  0.5719  0.2641
40816SOL    HW127259  12.413   9.555  12.117  0.5040  1.5015 -0.0461
40816SOL    HW227260  12.473   9.586  11.982 -0.4706  0.1582 -0.8108
40817SOL     OW27261   4.450   7.468   2.224  0.0938  0.0187 -0.2913
40817SOL    HW127262   4.517   7.519   2.269  0.4907 -0.8231  0.0904
40817SOL    HW227263   4.480   7.377   2.231 -1.5800 -0.4875  0.7607
40818SOL     OW27264   1.043   6.543   5.582 -0.0842  0.1291 -0.0468
40818SOL    HW127265   0.999   6.628   5.576 -0.9532 -0.3364 -0.5892
40818SOL    HW227266   1.093   6.547   5.663 -2.1772  0.2239  1.3271
40819SOL     OW27267   0.408   4.244   8.932 -0.0080  0.1548  0.3137
40819SOL    HW127268   0.360   4.205   8.858  1.4333  0.3730 -0.7747
40819SOL    HW227269   0.442   4.170   8.980  0.9598  0.0021 -0.5643
40820SOL     OW27270  10.484  11.419  10.376 -0.0737  0.0952 -0.0923
40820SOL    HW127271  10.483  11.390  10.285 -0.0919  1.7093 -0.6432
40820SOL    HW227272  10.574  11.405  10.405  0.6621  2.0259 -1.2468
40821SOL     OW27273  12.468   6.615   1.564 -0.0664 -0.2901  0.1539
40821SOL    HW127274  12.452   6.701   1.524  1.9755  0.5374  0.9837
40821SOL    HW227275  12.414   6.555   1.513  0.1375  1.1601 -1.9016
40822SOL     OW27276   1.372   6.620   9.884  0.2309 -0.0050  0.1929
40822SOL    HW127277   1.401   6.542   9.836 -1.1298 -1.2702  1.3446
40822SOL    HW227278   1.409   6.609   9.972  1.3158  1.4577 -0.0492
40823SOL     OW27279   6.132   3.623  10.813 -0.5012 -0.4789  0.3479
40823SOL    HW127280   6.144   3.668  10.730  1.3236 -3.1332 -0.9886
40823SOL    HW227281   6.039   3.634  10.834 -0.4838  2.3791 -0.6666
40824SOL     OW27282   8.996   2.642  11.882 -0.3614 -0.4815 -0.1994
40824SOL    HW127283   9.014   2.589  11.804  0.1093 -2.1273  0.9759
40824SOL    HW227284   9.082   2.672  11.911 -0.5222  0.0031 -0.2065
40825SOL     OW27285  12.053  10.093   7.760 -0.0396  0.3163  1.0627
40825SOL    HW127286  11.960  10.102   7.781 -0.5654 -2.0124  0.0653
40825SOL    HW227287  12.055  10.082   7.665  1.3987  1.4455  0.9218
40826SOL     OW27288   0.519   1.064   9.500  0.9477  0.7677  0.0399
40826SOL    HW127289   0.483   0.999   9.439  0.2117  1.2932 -0.1015
40826SOL    HW227290   0.528   1.143   9.447  0.0601  1.3011  0.6617
40827SOL     OW27291  10.155   7.640   2.624  0.2742 -0.3262  0.5621
40827SOL    HW127292  10.140   7.729   2.592  1.7100 -0.8764 -1.8278
40827SOL    HW227293  10.129   7.583   2.552  0.3919 -1.8277  1.6477
40828SOL     OW27294   8.589  10.136  10.942  0.8489 -0.0510 -0.4161
40828SOL    HW127295   8.535  10.193  10.996  2.1711  0.7908  0.0636
40828SOL    HW227296   8.534  10.115  10.866 -1.1804 -1.5020  1.3304
40829SOL     OW27297   5.882   7.902   7.531  0.3844  0.4568  0.6453
40829SOL    HW127298   5.824   7.896   7.607  1.2571  0.4792  1.3312
40829SOL    HW227299   5.958   7.848   7.554 -0.7175 -2.2354 -1.5505
40830SOL     OW27300   9.661  12.239  11.326 -0.0636  0.7595  0.5227
40830SOL    HW127301   9.698  12.224  11.239  0.6069  1.6797  0.6268
40830SOL    HW227302   9.593  12.305  11.311 -0.7120  0.0951  0.5355
40831SOL     OW27303  10.843   6.072   3.479 -0.1194  0.0548 -0.7397
40831SOL    HW127304  10.760   6.025   3.472  0.6438 -1.3038 -1.2180
40831SOL    HW227305  10.888   6.054   3.396  0.3496  1.3916 -0.8013
40832SOL     OW27306   6.866   4.413   8.314  0.0852  0.1180 -0.6707
40832SOL    HW127307   6.775   4.387   8.298  0.2036  0.5940 -2.2954
40832SOL    HW227308   6.917   4.336   8.290  0.2201  0.5667 -1.8733
40833SOL     OW27309   3.750   1.658   8.303 -0.0851 -0.6962 -0.2322
40833SOL    HW127310   3.746   1.566   8.276  0.8186 -0.4764 -1.1923
40833SOL    HW227311   3.827   1.663   8.360  0.7623 -0.2625 -1.3826
40834SOL     OW27312   1.215   5.443   5.344  0.3867  0.1102 -0.0909
40834SOL    HW127313   1.187   5.534   5.351  0.5276  0.2368 -1.0157
40834SOL    HW227314   1.276   5.432   5.417 -1.4746  0.0175  1.5412
40835SOL     OW27315   6.619   7.413   2.826 -0.3267 -0.2384 -0.1784
40835SOL    HW127316   6.586   7.344   2.767  0.4944 -1.7256  1.0174
40835SOL    HW227317   6.541   7.444   2.873 -0.5251 -1.3729  0.2737
40836SOL     OW27318   6.696   8.057  10.109 -0.3552  0.5079  0.3332
40836SOL    HW127319   6.777   8.034  10.062 -1.0029 -0.0322 -0.5533
40836SOL    HW227320   6.714   8.144  10.146  0.2048  0.9647 -0.9323
40837SOL     OW27321   8.456  11.665   4.994  0.1822 -0.4174 -0.4664
40837SOL    HW127322   8.402  11.609   5.049  3.0696 -1.7598  1.2309
40837SOL    HW227323   8.512  11.712   5.056  1.9941 -0.2426 -2.1610
40838SOL     OW27324   1.681  12.210   5.822  0.1269  0.5562 -0.1883
40838SOL    HW127325   1.664  12.129   5.774  0.8753  0.1854  0.1431
40838SOL    HW227326   1.727  12.266   5.760 -1.8555  1.4207 -0.9685
40839SOL     OW27327  11.919   2.805   1.749  0.5857  0.4072 -0.1892
40839SOL    HW127328  12.014   2.799   1.743  0.6103 -0.3352  0.7614
40839SOL    HW227329  11.894   2.862   1.676  1.9217  2.2221  0.6944
40840SOL     OW27330   3.354   6.699  11.995  0.1779  0.2423  0.2228
40840SOL    HW127331   3.395   6.709  12.081  1.8886 -1.2843 -0.3690
40840SOL    HW227332   3.273   6.749  12.002  0.5590  0.6528  2.5204
40841SOL     OW27333  11.929   5.135   7.790  0.3613 -0.4408 -0.3264
40841SOL    HW127334  11.974   5.115   7.872 -0.7554 -0.8533  0.2086
40841SOL    HW227335  11.941   5.229   7.779 -1.3778  0.0835  1.5459
40842SOL     OW27336  10.133  10.498   6.803  0.8529 -0.2691  0.3039
40842SOL    HW127337  10.118  10.410   6.768 -2.9243  0.2398  0.2750
40842SOL    HW227338  10.133  10.554   6.726 -1.7442  0.2200  0.5859
40843SOL     OW27339  10.100  12.321  10.444  0.2510 -0.5894  0.0602
40843SOL    HW127340  10.091  12.395  10.504 -0.4254 -0.1215 -0.6038
40843SOL    HW227341  10.171  12.345  10.385 -1.0894  0.3279 -1.2492
40844SOL     OW27342   1.065   3.725   2.710  0.3903  0.3516  0.2775
40844SOL    HW127343   1.152   3.760   2.730 -0.2196  2.1745  0.0065
40844SOL    HW227344   1.075   3.630   2.714  2.3986  0.5137  0.1989
40845SOL     OW27345   1.637   1.025   4.664  0.3961 -0.2182 -0.3986
40845SOL    HW127346   1.610   1.012   4.573 -1.0512 -0.2577  0.0101
40845SOL    HW227347   1.709   1.088   4.658  2.8277 -2.8857 -1.8339
40846SOL     OW27348   1.154  12.238   0.097  0.2969  0.0672 -0.3651
40846SOL    HW127349   1.203  12.275   0.171  1.3787 -1.2583 -0.3721
40846SOL    HW227350   1.172  12.297   0.024  0.0835  0.7997  0.1678
40847SOL     OW27351   4.960   5.523   8.558  0.3570  1.0568 -0.3095
40847SOL    HW127352   4.952   5.499   8.466  0.8246  0.3907 -0.1855
40847SOL    HW227353   5.010   5.451   8.597 -1.4181  0.4125  0.8626
40848SOL     OW27354   9.435  12.148   5.464  0.2566 -0.3450  0.0767
40848SOL    HW127355   9.509  12.099   5.499  0.8470  0.4885  0.0214
40848SOL    HW227356   9.467  12.237   5.454 -0.6974 -0.0080 -0.1368
40849SOL     OW27357   6.242   8.600  10.559  0.2730 -0.0248 -0.5798
40849SOL    HW127358   6.299   8.676  10.547  0.0490  0.1026 -0.8422
40849SOL    HW227359   6.162   8.622  10.512 -0.2192  0.0407  0.2655
40850SOL     OW27360  12.441   1.927  11.937 -0.0203 -0.4683  0.1518
40850SOL    HW127361  12.453   2.013  11.895 -3.6424 -0.8757 -2.1096
40850SOL    HW227362  12.427   1.947  12.029  0.6673  1.2215 -0.0720
40851SOL     OW27363   6.216   1.680  11.406  0.7400  0.6207  0.2051
40851SOL    HW127364   6.234   1.773  11.393 -0.5896  0.8631 -0.0251
40851SOL    HW227365   6.296   1.636  11.377  2.0556  1.7490  1.8632
40852SOL     OW27366  11.378   3.843   9.849 -0.5824 -0.3573 -0.2644
40852SOL    HW127367  11.450   3.892   9.887 -0.2861  0.3444 -1.6848
40852SOL    HW227368  11.406   3.751   9.852  0.6723 -0.0299 -1.4166
40853SOL     OW27369   4.347   0.508   9.355 -0.2090 -0.7759  0.1396
40853SOL    HW127370   4.321   0.481   9.267  1.4049 -3.2510  0.2941
40853SOL    HW227371   4.416   0.572   9.341 -0.8224 -0.2090 -0.3534
40854SOL     OW27372   4.880   4.724   0.950 -0.0115 -0.1602 -0.2068
40854SOL    HW127373   4.786   4.706   0.959 -0.4293  1.8561 -0.0418
40854SOL    HW227374   4.909   4.665   0.880 -1.4457 -0.6503 -0.4164
40855SOL     OW27375   2.296  11.551   7.859  0.6808  0.3116  0.1368
40855SOL    HW127376   2.304  11.645   7.874  1.8017  0.0023  1.6882
40855SOL    HW227377   2.382  11.524   7.826  1.0054 -0.4513  1.5257
40856SOL     OW27378   3.092   8.034  11.899 -0.1160 -0.6093 -0.1083
40856SOL    HW127379   3.080   8.028  11.805 -0.5653 -2.7798  0.0368
40856SOL    HW227380   3.165   8.096  11.911  0.1685 -0.5745 -1.8682
40857SOL     OW27381   7.456  10.732   4.760 -0.3072  0.2625 -0.0031
40857SOL    HW127382   7.414  10.679   4.692 -1.0882 -1.2920  1.6010
40857SOL    HW227383   7.510  10.669   4.808 -0.3282  1.1800  1.2520
40858SOL     OW27384  11.640   5.522   1.105  1.2464  0.1622  0.2550
40858SOL    HW127385  11.592   5.553   1.182  1.0382 -0.6050  0.4424
40858SOL    HW227386  11.706   5.462   1.141  2.1162  0.9337 -0.0345
40859SOL     OW27387   8.262   9.671   2.536  0.7428 -0.0025 -0.1775
40859SOL    HW127388   8.277   9.594   2.481  1.1058 -0.6510  0.7974
40859SOL    HW227389   8.233   9.635   2.620  1.8568  0.8671  0.6146
40860SOL     OW27390   5.197  10.749   5.392  0.1454  0.0795 -0.1855
40860SOL    HW127391   5.219  10.684   5.326  2.6069 -0.4115  1.0074
40860SOL    HW227392   5.182  10.698   5.472  2.2134  0.8739  0.7907
40861SOL     OW27393   7.067   8.500  11.082  0.1872 -0.2811  0.5622
40861SOL    HW127394   7.138   8.494  11.147  0.6538 -0.5613  0.0405
40861SOL    HW227395   7.110   8.535  11.003 -0.0166 -1.4700 -0.0964
40862SOL     OW27396  12.447   5.807   3.490 -0.1716  0.8705 -0.1949
40862SOL    HW127397  12.397   5.732   3.459 -0.6992  0.9384  0.4607
40862SOL    HW227398  12.453   5.794   3.585  0.5201  1.1898 -0.1875
40863SOL     OW27399   5.163   3.997   6.628  0.2416  0.6797  0.4554
40863SOL    HW127400   5.244   4.040   6.657  0.3725 -0.7018  2.2710
40863SOL    HW227401   5.178   3.979   6.535  1.5128  1.5140  0.4699
40864SOL     OW27402   9.544   2.010   6.621 -0.1729  0.1033 -0.4536
40864SOL    HW127403   9.525   1.961   6.701 -1.2860  1.7839  0.3775
40864SOL    HW227404   9.511   2.098   6.638  1.9432  1.2637 -1.7609
40865SOL     OW27405   9.772   7.768   2.640 -0.4241  0.8145  0.1324
40865SOL    HW127406   9.866   7.788   2.634 -0.6053  1.2665 -1.8246
40865SOL    HW227407   9.751   7.727   2.556 -2.2161  1.7774  0.0770
40866SOL     OW27408  10.717   3.793  10.029  0.2071 -0.1459  0.0850
40866SOL    HW127409  10.634   3.839  10.025  1.1944  1.6695 -0.7779
40866SOL    HW227410  10.693   3.700  10.036 -1.8526  0.3725  0.4888
40867SOL     OW27411   7.988   0.850  12.194  0.1506  0.5129 -0.1469
40867SOL    HW127412   8.030   0.876  12.276 -0.1435  1.8309 -0.3809
40867SOL    HW227413   7.896   0.875  12.205  0.1602  0.9424 -0.9558
40868SOL     OW27414   0.525   0.385  11.355 -0.2434 -0.3917  0.2708
40868SOL    HW127415   0.445   0.336  11.337  0.3156 -1.4409  0.5685
40868SOL    HW227416   0.592   0.339  11.305  0.4777 -0.5349  1.3452
40869SOL     OW27417  10.779   0.933   1.696 -0.1707  0.0784  0.2018
40869SOL    HW127418  10.730   0.887   1.764 -1.6930  0.5083 -0.5662
40869SOL    HW227419  10.715   0.990   1.654  1.1908  1.3220 -0.2847
40870SOL     OW27420   7.171   1.381  10.992  0.3435 -0.3352  0.0523
40870SOL    HW127421   7.158   1.475  10.985 -0.5671 -0.5377 -1.2832
40870SOL    HW227422   7.127   1.344  10.915 -0.3807 -1.9527  1.1823
40871SOL     OW27423   9.030   8.390  10.005  0.3767  0.3409 -0.1386
40871SOL    HW127424   9.123   8.369  10.005  0.1560 -0.7126  0.7149
40871SOL    HW227425   8.986   8.306  10.017 -0.7048  0.7758 -0.8915
40872SOL     OW27426   6.143   2.951   9.905  0.0638  0.1429 -0.8530
40872SOL    HW127427   6.235   2.962   9.879  1.9161 -1.7676  3.7898
40872SOL    HW227428   6.122   3.032   9.951  0.4380 -0.4743  0.4410
40873SOL     OW27429   5.134   8.105   7.030 -0.0075  0.0451 -0.5610
40873SOL    HW127430   5.228   8.097   7.044 -0.1053  1.3989  1.3159
40873SOL    HW227431   5.095   8.074   7.111 -1.2068 -0.6443 -1.3728
40874SOL     OW27432   6.693  10.857  10.959  0.4017  0.5941 -0.4316
40874SOL    HW127433   6.648  10.780  10.923  0.9782  0.4697 -0.9022
40874SOL    HW227434   6.689  10.922  10.888 -0.5114  1.1830  0.1371
40875SOL     OW27435   1.212   0.085   3.370  0.4267  0.3253  0.6098
40875SOL    HW127436   1.165   0.011   3.332  0.1124  0.1233  1.3850
40875SOL    HW227437   1.300   0.079   3.332  0.6665 -0.9534  1.3031
40876SOL     OW27438   8.258  12.629   1.792  0.5589  0.0483  0.1243
40876SOL    HW127439   8.346  12.623   1.829  0.4064 -0.1083  0.4605
40876SOL    HW227440   8.213  12.693   1.847  1.1511  1.8846 -1.4164
40877SOL     OW27441   0.371  11.763   6.403 -0.4565 -0.0710  0.3857
40877SOL    HW127442   0.330  11.828   6.346 -0.9622 -0.6845  0.0397
40877SOL    HW227443   0.462  11.760   6.374 -0.5384  0.1498  0.1005
40878SOL     OW27444   7.886   1.932   6.267  0.2634  0.2312 -0.5856
40878SOL    HW127445   7.970   1.889   6.283  0.4128  1.2361  1.6371
40878SOL    HW227446   7.831   1.906   6.341 -0.8598  0.8768 -1.1727
40879SOL     OW27447   6.512   2.958   0.046 -0.2298  0.2483  0.3256
40879SOL    HW127448   6.431   2.968  -0.004 -1.8350  0.0563  2.7359
40879SOL    HW227449   6.579   2.999  -0.009 -1.6921 -0.6487 -2.2994
40880SOL     OW27450  11.615  11.616  10.210  0.3900  0.3607 -0.9325
40880SOL    HW127451  11.579  11.609  10.121 -3.0831 -0.5204  0.3873
40880SOL    HW227452  11.632  11.526  10.236 -0.3919  0.4534 -0.0726
40881SOL     OW27453   5.529   9.762   1.407  0.2058  0.2888  0.0758
40881SOL    HW127454   5.505   9.854   1.397  2.8114  1.0770  0.2420
40881SOL    HW227455   5.504   9.741   1.497  0.3905  1.1043  0.3262
40882SOL     OW27456   3.097   6.646   9.868 -0.1575  0.2290 -0.2522
40882SOL    HW127457   3.021   6.704   9.868  1.0183  1.9328  1.7783
40882SOL    HW227458   3.065   6.563   9.904 -1.5299  0.0870 -1.7043
40883SOL     OW27459   2.311   2.391   8.688 -0.4712 -0.4808 -0.5590
40883SOL    HW127460   2.314   2.485   8.671 -0.1881 -0.4432 -0.2999
40883SOL    HW227461   2.282   2.353   8.605  1.2446 -0.3180 -1.2925
40884SOL     OW27462   1.372   2.706   4.347  0.9488 -0.2008  0.1403
40884SOL    HW127463   1.354   2.795   4.316 -0.0335  0.4694  2.3916
40884SOL    HW227464   1.461   2.687   4.317  1.6179  2.0058  0.5572
40885SOL     OW27465   5.109   7.283   0.841 -0.0619  0.5426  0.2093
40885SOL    HW127466   5.053   7.276   0.764  0.3911  1.4898 -0.2204
40885SOL    HW227467   5.088   7.369   0.878 -0.6189 -0.0928  1.4249
40886SOL     OW27468  11.656   0.596   0.762 -0.0958 -0.3600  0.2199
40886SOL    HW127469  11.609   0.674   0.792  0.4158 -0.9505  2.8116
40886SOL    HW227470  11.593   0.524   0.775 -0.0949 -0.5566 -0.8376
40887SOL     OW27471   4.703  10.178   7.207  0.1893 -0.3546 -0.4600
40887SOL    HW127472   4.678  10.157   7.298  0.2163 -3.1019 -1.0034
40887SOL    HW227473   4.621  10.204   7.165 -0.0051 -0.0571  0.0943
40888SOL     OW27474   2.695   0.351   1.339  0.3702  0.0498  0.2679
40888SOL    HW127475   2.641   0.379   1.265  1.1671  0.7454 -0.0641
40888SOL    HW227476   2.729   0.265   1.313 -0.0318 -0.0902  0.1973
40889SOL     OW27477   5.108   5.254   6.764 -0.0982  0.4983 -0.1018
40889SOL    HW127478   5.055   5.333   6.754  0.5674  1.2486  1.8112
40889SOL    HW227479   5.197   5.280   6.740 -0.1961 -0.2039 -1.3024
40890SOL     OW27480   1.666   0.123   2.011  0.1544  0.0004  0.3021
40890SOL    HW127481   1.714   0.042   2.027 -0.5627 -0.4298  0.3226
40890SOL    HW227482   1.677   0.174   2.091 -0.9908 -0.9070  1.0661
40891SOL     OW27483   8.468   6.452   9.140  0.3616 -0.1079 -0.5095
40891SOL    HW127484   8.480   6.508   9.063 -1.3718  1.2323  0.1337
40891SOL    HW227485   8.402   6.388   9.114 -0.2702  0.3836 -0.1347
40892SOL     OW27486   3.222  12.394   3.708 -0.2407 -0.0795  0.6625
40892SOL    HW127487   3.147  12.451   3.696  0.9104  1.1700 -1.1450
40892SOL    HW227488   3.186  12.305   3.702 -1.3964  0.4599 -1.9939
40893SOL     OW27489  11.465   8.259  11.910 -0.2414  0.0008 -0.7502
40893SOL    HW127490  11.433   8.315  11.980 -0.9653 -0.2336 -0.8807
40893SOL    HW227491  11.508   8.318  11.849  1.6783  0.0502  0.5598
40894SOL     OW27492   5.352  11.223   3.968  0.0021  0.0435  0.4900
40894SOL    HW127493   5.289  11.242   3.898  1.0233 -2.5661 -1.3014
40894SOL    HW227494   5.311  11.154   4.019  0.9929 -1.1358 -0.2324
40895SOL     OW27495   3.023   0.470   0.152 -0.4922 -0.4270  0.0122
40895SOL    HW127496   2.946   0.462   0.096 -0.3411  0.6576 -0.3788
40895SOL    HW227497   3.049   0.380   0.171 -0.7413 -0.8174 -1.3965
40896SOL     OW27498   8.960  12.143  11.758 -0.5821  0.2503  0.0796
40896SOL    HW127499   8.895  12.181  11.699 -0.6553  0.0619  0.0371
40896SOL    HW227500   8.973  12.210  11.825  0.6134  1.0906 -0.9451
40897SOL     OW27501   8.440  11.841   9.220  0.9570 -0.2354  0.4149
40897SOL    HW127502   8.428  11.761   9.169 -0.3019 -1.0948  1.9744
40897SOL    HW227503   8.484  11.901   9.160  2.8744 -2.4101 -0.4840
40898SOL     OW27504   3.313  12.636   5.680 -0.2424  0.0769  0.2707
40898SOL    HW127505   3.271  12.557   5.645  1.6155  0.0273 -2.0865
40898SOL    HW227506   3.395  12.604   5.718 -0.0786  0.7284  0.4707
40899SOL     OW27507   6.273   7.981   9.777 -0.2233 -0.5818 -0.4319
40899SOL    HW127508   6.274   7.885   9.771 -1.2715 -0.6503  0.2518
40899SOL    HW227509   6.315   8.010   9.696 -2.6726 -1.6108 -2.2086
40900SOL     OW27510   5.391   2.629   1.951 -0.0059 -0.1152  0.6519
40900SOL    HW127511   5.454   2.685   1.906 -0.0039 -0.2388  0.4988
40900SOL    HW227512   5.309   2.640   1.902 -0.3369  0.7123  1.3663
40901SOL     OW27513   9.912   4.011   0.259 -0.0918  0.0976 -0.5184
40901SOL    HW127514   9.890   3.988   0.349 -1.2328  0.9241 -0.5566
40901SOL    HW227515  10.001   4.045   0.264  1.1451 -2.9127 -0.2607
40902SOL     OW27516  12.126   7.699   6.167 -0.0714 -0.2493  0.4418
40902SOL    HW127517  12.139   7.770   6.229  1.4023 -2.1120  2.4302
40902SOL    HW227518  12.202   7.702   6.110 -0.3361  0.1317  0.1010
40903SOL     OW27519   3.672   8.938   2.618 -0.2934 -0.1975 -0.0731
40903SOL    HW127520   3.647   8.986   2.539 -0.5330  0.4754  0.4004
40903SOL    HW227521   3.765   8.959   2.631 -0.2317 -0.3776 -0.2255
40904SOL     OW27522   1.895   5.433   9.437 -0.1298 -0.1871 -0.2736
40904SOL    HW127523   1.965   5.435   9.372  0.1495 -1.6520 -0.0584
40904SOL    HW227524   1.815   5.452   9.388  0.0871 -1.2197 -1.0519
40905SOL     OW27525  10.147   3.464   9.350  0.1437 -0.0714 -0.1091
40905SOL    HW127526  10.233   3.442   9.315  0.0691  0.4094 -0.6266
40905SOL    HW227527  10.156   3.554   9.380  0.3280 -0.6224  1.5681
40906SOL     OW27528   6.219   4.449   0.442 -0.1421  0.4388  0.2009
40906SOL    HW127529   6.239   4.517   0.378  1.0716  1.2322  1.3894
40906SOL    HW227530   6.126   4.431   0.429 -0.2729  1.6703 -0.7427
40907SOL     OW27531   6.650  10.223   9.896 -0.5946 -0.6095  0.0915
40907SOL    HW127532   6.722  10.203   9.956  0.6776 -2.5430 -1.9524
40907SOL    HW227533   6.692  10.261   9.819 -1.8676 -0.8905 -0.7621
40908SOL     OW27534   6.489   4.947   4.815  0.3944  0.1782 -0.0306
40908SOL    HW127535   6.470   4.854   4.804  0.1204  0.2910 -0.5390
40908SOL    HW227536   6.405   4.990   4.803  0.6014  0.5244 -0.2520
40909SOL     OW27537   2.951   8.195   7.448 -0.0746  0.0328  0.0411
40909SOL    HW127538   2.937   8.199   7.353  0.9661  0.5340 -0.1170
40909SOL    HW227539   2.987   8.108   7.464 -1.2775 -0.4567  0.1439
40910SOL     OW27540   3.496   5.432  11.390  0.2390  0.5355  0.0952
40910SOL    HW127541   3.426   5.458  11.329  1.3761  0.5654 -1.2436
40910SOL    HW227542   3.525   5.515  11.430  1.3675  0.9176 -1.4333
40911SOL     OW27543  12.606   8.099   0.232  0.1730  0.6754  0.0991
40911SOL    HW127544  12.614   8.128   0.141 -1.0772  1.0002  0.0732
40911SOL    HW227545  12.561   8.172   0.276 -0.4257 -0.0326  0.6795
40912SOL     OW27546  10.072   0.943   5.171  0.1414  0.4695 -0.0505
40912SOL    HW127547  10.109   0.987   5.094 -0.2293  1.3076  0.2373
40912SOL    HW227548   9.979   0.935   5.152  0.6605 -3.8889 -1.8767
40913SOL     OW27549   9.433  10.774   3.540 -0.0067 -0.1824 -0.5938
40913SOL    HW127550   9.455  10.732   3.457  0.4898 -0.0634 -0.5243
40913SOL    HW227551   9.422  10.701   3.602 -0.0822 -0.2574 -0.6965
40914SOL     OW27552   4.362  10.099   9.680  0.0650  0.4061  0.4076
40914SOL    HW127553   4.365  10.119   9.773  0.3661 -0.4877  0.5969
40914SOL    HW227554   4.288  10.038   9.671 -0.1285  0.6911  0.0151
40915SOL     OW27555   5.511   6.784   1.480  0.2885  0.0867 -0.2135
40915SOL    HW127556   5.416   6.776   1.469  0.2890 -0.9735  0.5062
40915SOL    HW227557   5.531   6.733   1.558  1.2265  1.7692  0.6889
40916SOL     OW27558   6.485   1.520  10.053  0.0722 -0.0749 -0.0094
40916SOL    HW127559   6.421   1.591  10.050  1.3663  1.1678  0.5621
40916SOL    HW227560   6.543   1.544  10.125  1.0048 -1.3244 -0.3225
40917SOL     OW27561   8.932   1.967   9.346 -0.4684  0.1110  0.3385
40917SOL    HW127562   8.902   1.876   9.343 -3.5275  1.0201 -0.4175
40917SOL    HW227563   8.942   1.992   9.254 -1.7739  1.0998  0.4334
40918SOL     OW27564   4.467  11.919   1.152 -0.0746 -0.6489  0.3700
40918SOL    HW127565   4.437  11.932   1.242 -1.7211 -0.1200 -0.2189
40918SOL    HW227566   4.409  11.851   1.117  0.6616 -0.9718 -0.2417
40919SOL     OW27567  12.276   9.896  10.863  0.3922  0.0934  0.1393
40919SOL    HW127568  12.259   9.990  10.861 -1.3921 -0.1568  1.5012
40919SOL    HW227569  12.192   9.856  10.838  0.5020 -1.1410  1.5907
40920SOL     OW27570  10.510   9.773   5.368  0.6250  0.2268 -0.0913
40920SOL    HW127571  10.565   9.695   5.365 -0.6713 -0.7270 -2.5820
40920SOL    HW227572  10.433   9.749   5.317  0.0578  3.0588 -0.7119
40921SOL     OW27573   7.751   2.935  12.209 -0.5772 -0.7391  0.4730
40921SOL    HW127574   7.799   3.006  12.167  1.3069 -3.0144 -1.5333
40921SOL    HW227575   7.662   2.942  12.174  0.0925 -0.5355 -1.2875
40922SOL     OW27576   8.573   9.265   4.711 -0.5246  0.6734  0.1678
40922SOL    HW127577   8.637   9.203   4.745 -1.0069  0.0704 -0.0101
40922SOL    HW227578   8.586   9.344   4.764 -0.0720  0.3410  0.5601
40923SOL     OW27579   9.644   4.404   9.711 -0.2571 -0.0047 -0.4709
40923SOL    HW127580   9.611   4.379   9.625 -2.0642  0.7296 -0.0297
40923SOL    HW227581   9.634   4.500   9.714 -1.4420 -0.1408  1.0060
40924SOL     OW27582   2.319   7.897   6.087  0.0967 -0.5106 -0.3061
40924SOL    HW127583   2.327   7.946   6.006 -1.1321 -0.1564 -0.2337
40924SOL    HW227584   2.342   7.960   6.155  1.4205 -0.8891 -0.3697
40925SOL     OW27585   5.516  12.635   1.324 -0.0967  0.0546  0.3541
40925SOL    HW127586   5.497  12.689   1.247  1.4696 -0.0862 -0.1544
40925SOL    HW227587   5.524  12.697   1.396  0.9250  0.4350 -0.0793
40926SOL     OW27588   3.277  10.137  10.666  0.2752  0.2963  0.2666
40926SOL    HW127589   3.214  10.205  10.687 -0.7898 -0.6738  0.2923
40926SOL    HW227590   3.224  10.058  10.652  1.5529 -0.8241  1.4083
40927SOL     OW27591  10.419  11.214  12.243 -0.1267 -0.0617 -0.0439
40927SOL    HW127592  10.497  11.179  12.284 -0.4166 -0.3937  0.2292
40927SOL    HW227593  10.443  11.225  12.151  0.3928  0.3028  0.1284
40928SOL     OW27594   4.123   4.740  11.957  0.2478  0.3136  0.6630
40928SOL    HW127595   4.125   4.792  12.038  0.5708  1.3089  0.0330
40928SOL    HW227596   4.042   4.766  11.914 -0.1251 -0.5175  0.8498
40929SOL     OW27597  11.829   5.309   2.734  0.3721  0.4002 -0.0440
40929SOL    HW127598  11.801   5.221   2.756 -2.4241  1.5726  1.5896
40929SOL    HW227599  11.882   5.337   2.809  0.9937  0.2676 -0.4195
40930SOL     OW27600   6.286   5.516   3.233  0.3211 -0.3144 -0.3000
40930SOL    HW127601   6.196   5.489   3.217  0.0512 -0.1832  0.8689
40930SOL    HW227602   6.302   5.586   3.170 -1.0426  0.9706  0.7148
40931SOL     OW27603   4.398   4.584   5.442  0.1544  0.1903  0.1000
40931SOL    HW127604   4.391   4.581   5.537  0.0188 -0.0988  0.0828
40931SOL    HW227605   4.377   4.674   5.419  1.1364  0.5040  0.4142
40932SOL     OW27606   0.094   8.477   1.789  0.4952  0.2387  0.0894
40932SOL    HW127607   0.050   8.524   1.718  1.6178  1.2312  0.0252
40932SOL    HW227608   0.032   8.479   1.861 -1.4948 -2.4415 -1.3585
40933SOL     OW27609   2.206   2.500   2.654 -0.0474  0.0943  0.0962
40933SOL    HW127610   2.285   2.554   2.648  0.0317 -0.1523 -1.6544
40933SOL    HW227611   2.217   2.449   2.735  1.4997  0.1921 -0.0310
40934SOL     OW27612   6.279   2.524   0.621 -0.5972  0.4336 -0.8035
40934SOL    HW127613   6.346   2.587   0.647  0.9999 -0.8381 -1.6833
40934SOL    HW227614   6.217   2.524   0.694  0.7775  1.0554  0.4089
40935SOL     OW27615   7.016   1.002   5.757 -0.0039 -0.1294  0.5135
40935SOL    HW127616   6.983   0.942   5.824  0.0539  0.0121  0.6678
40935SOL    HW227617   7.101   0.966   5.732  0.3730  0.3113  1.1494
40936SOL     OW27618   0.269  10.891   7.626  0.2320  0.4568 -0.9296
40936SOL    HW127619   0.341  10.828   7.627 -0.3522 -0.2308 -1.1129
40936SOL    HW227620   0.209  10.860   7.694  1.1475  2.3005  0.8326
40937SOL     OW27621   1.994  12.334   9.950 -0.1130  0.7221 -0.3044
40937SOL    HW127622   1.947  12.293  10.023  1.5173 -1.0684 -0.1736
40937SOL    HW227623   1.938  12.406   9.922 -1.9198 -0.0547  1.1484
40938SOL     OW27624   7.603   6.234   5.412 -0.9196 -0.4887 -0.5601
40938SOL    HW127625   7.581   6.261   5.323  1.2224  0.2429 -0.9220
40938SOL    HW227626   7.696   6.212   5.408 -0.6182  0.1673  1.6138
40939SOL     OW27627   1.538  10.572  10.139  0.0460 -0.3263 -0.6084
40939SOL    HW127628   1.547  10.516  10.216 -0.7013 -1.2018 -1.1499
40939SOL    HW227629   1.615  10.629  10.143  0.6612 -1.1747  0.1249
40940SOL     OW27630  11.476  10.653  11.492 -0.1572 -0.3647  0.2799
40940SOL    HW127631  11.418  10.599  11.546 -1.0117 -0.1580 -0.4095
40940SOL    HW227632  11.417  10.698  11.431  0.7312 -0.1904 -0.4713
40941SOL     OW27633   4.574   6.568  12.261 -0.2920  0.3351 -0.1062
40941SOL    HW127634   4.506   6.597  12.201 -0.8402  0.1770  0.4242
40941SOL    HW227635   4.627   6.646  12.276 -1.4476  0.9735  0.8947
40942SOL     OW27636  11.665   9.705  12.168  0.6012  0.2025 -0.5265
40942SOL    HW127637  11.714   9.787  12.170  1.7531 -0.4719 -0.1710
40942SOL    HW227638  11.727   9.641  12.132 -0.4640 -0.4015 -1.3408
40943SOL     OW27639   6.135   1.345   9.680  0.0533 -0.1514  0.1098
40943SOL    HW127640   6.193   1.357   9.756 -1.9935  0.5125  1.6636
40943SOL    HW227641   6.131   1.250   9.668  1.9123 -0.2030 -0.4614
40944SOL     OW27642   6.291   1.600   5.260 -0.1532  0.4838 -0.0007
40944SOL    HW127643   6.385   1.611   5.270 -0.3684  3.0614 -0.0798
40944SOL    HW227644   6.279   1.577   5.168  0.5025 -2.6440  0.5997
40945SOL     OW27645   8.212   8.396   1.531 -0.8470  0.0942  0.0760
40945SOL    HW127646   8.220   8.488   1.508 -1.3388  0.2939  0.6804
40945SOL    HW227647   8.228   8.394   1.626 -1.7120 -0.3237  0.2198
40946SOL     OW27648  11.695   2.932   5.861  0.5098  0.3962  0.3838
40946SOL    HW127649  11.613   2.889   5.840  1.2119 -0.7350 -0.0983
40946SOL    HW227650  11.676   2.981   5.941 -0.2428 -1.0130  1.1059
40947SOL     OW27651   6.233   1.343   5.411  0.0032 -0.2050 -0.1229
40947SOL    HW127652   6.259   1.418   5.358 -0.4497  1.5895  2.0539
40947SOL    HW227653   6.137   1.340   5.403 -0.0180 -0.2772  0.1427
40948SOL     OW27654   8.466   0.831   5.551 -0.6451  0.1234 -0.1651
40948SOL    HW127655   8.393   0.776   5.523 -0.2306  0.1119 -1.2619
40948SOL    HW227656   8.476   0.896   5.481  0.4223  0.0953 -0.0609
40949SOL     OW27657  10.079   6.286  10.897  0.4415  0.0395 -0.3312
40949SOL    HW127658  10.152   6.344  10.874 -0.7664  2.6078  1.7194
40949SOL    HW227659  10.021   6.290  10.821 -0.0716  2.4798  0.0860
40950SOL     OW27660   4.808   7.154   6.333  0.0015  0.2239 -0.2655
40950SOL    HW127661   4.721   7.141   6.372  0.5379 -0.7054  0.6968
40950SOL    HW227662   4.852   7.070   6.344  0.9813  0.6376 -0.8629
40951SOL     OW27663   6.635   0.146   6.958 -0.4358 -0.2005  0.7088
40951SOL    HW127664   6.599   0.234   6.954 -2.1780 -0.9126 -0.2058
40951SOL    HW227665   6.687   0.137   6.878  1.3191  0.6055  1.7147
40952SOL     OW27666  11.473   9.517   3.122 -0.2571 -0.9543  0.0411
40952SOL    HW127667  11.439   9.601   3.092 -1.2993 -0.9453  1.1821
40952SOL    HW227668  11.437   9.453   3.061 -0.8169 -0.7439  0.1476
40953SOL     OW27669   0.805   2.258   8.815  0.2349  0.0435  0.6457
40953SOL    HW127670   0.729   2.295   8.862 -0.0091  1.4514 -0.7654
40953SOL    HW227671   0.879   2.309   8.847  0.2057  0.3819  0.1721
40954SOL     OW27672   7.638   8.791  10.191 -0.1265  0.1189  0.3225
40954SOL    HW127673   7.674   8.717  10.142  2.2613  0.9639  0.6479
40954SOL    HW227674   7.700   8.862  10.175 -2.8322  2.4065 -0.7535
40955SOL     OW27675   3.883   8.353   6.796 -0.0447 -0.5491 -0.1212
40955SOL    HW127676   3.977   8.338   6.790 -0.3958 -2.6877 -0.9443
40955SOL    HW227677   3.863   8.338   6.889  0.2822 -1.1466 -0.1395
40956SOL     OW27678   2.666   3.579   1.451 -0.0586  0.2828  0.3326
40956SOL    HW127679   2.611   3.625   1.388  1.0212  0.4629 -0.5033
40956SOL    HW227680   2.736   3.540   1.398 -0.3879 -1.5159  1.1216
40957SOL     OW27681   8.179  10.808   4.626  0.3359 -0.2228 -0.1006
40957SOL    HW127682   8.107  10.750   4.603  1.7643 -0.9504 -3.3465
40957SOL    HW227683   8.160  10.890   4.580  1.1406 -0.1299 -0.2860
40958SOL     OW27684   3.423   6.685   1.622 -0.7195  0.1849 -0.0636
40958SOL    HW127685   3.434   6.737   1.701 -2.5003 -0.5211  0.7149
40958SOL    HW227686   3.345   6.631   1.639 -0.4722 -0.8329 -1.8423
40959SOL     OW27687   6.887   8.340   7.634 -0.2400 -0.2870 -0.6816
40959SOL    HW127688   6.841   8.424   7.624 -2.3678 -1.4396 -1.0195
40959SOL    HW227689   6.962   8.348   7.575  0.2428  1.7731  0.1048
40960SOL     OW27690   8.858   7.832   8.359  0.6494  0.1365 -0.3072
40960SOL    HW127691   8.774   7.862   8.393  0.6371  0.4257 -0.5887
40960SOL    HW227692   8.907   7.912   8.342  1.9525 -0.0196  2.1978
40961SOL     OW27693   6.480   7.401   4.071 -0.0655  0.2171 -0.9300
40961SOL    HW127694   6.436   7.340   4.130 -0.7189  2.0592  0.5704
40961SOL    HW227695   6.565   7.418   4.112  1.3744 -1.8135 -2.8208
40962SOL     OW27696   9.738  10.338   7.403  0.0393 -0.1108  0.6568
40962SOL    HW127697   9.692  10.288   7.471 -1.4023  0.2059 -0.0572
40962SOL    HW227698   9.807  10.278   7.372 -1.3620 -1.5252  0.1356
40963SOL     OW27699   2.991   1.865   7.584  0.6890 -0.0441  0.2122
40963SOL    HW127700   2.937   1.837   7.510  0.3557  0.9309  0.0693
40963SOL    HW227701   2.929   1.880   7.655  1.0414 -1.3330  0.8296
40964SOL     OW27702   4.434  10.081   2.855  0.9358  0.2124 -0.1133
40964SOL    HW127703   4.406  10.024   2.783 -2.4926 -0.3415  1.4361
40964SOL    HW227704   4.525  10.103   2.834  0.4575 -0.6993 -4.0400
40965SOL     OW27705   2.033  10.169   6.229  0.1452  0.8629  0.0814
40965SOL    HW127706   2.092  10.121   6.169 -0.6684  0.2063 -0.2146
40965SOL    HW227707   2.019  10.109   6.302  1.6507  1.9127  1.2944
40966SOL     OW27708   1.866   0.804   4.360  0.2686  0.3040  0.5709
40966SOL    HW127709   1.936   0.803   4.295  0.8132  1.3207  1.1162
40966SOL    HW227710   1.798   0.860   4.322  1.4565  2.6461  1.6907
40967SOL     OW27711   0.990   5.106   3.464  0.0334  0.4711  0.0172
40967SOL    HW127712   0.933   5.050   3.517  2.0485 -1.3482  0.3934
40967SOL    HW227713   0.941   5.119   3.382 -0.8905 -1.0826  0.2892
40968SOL     OW27714  10.182   3.059   3.358  0.3406 -0.3995  0.6939
40968SOL    HW127715  10.120   3.036   3.428  0.2010 -1.8388  0.1366
40968SOL    HW227716  10.268   3.042   3.396  0.3277  0.0021  0.9118
40969SOL     OW27717   5.189   5.170   4.341 -0.4606  0.0458  0.3457
40969SOL    HW127718   5.129   5.191   4.412 -0.1426  2.0801  0.0776
40969SOL    HW227719   5.133   5.132   4.273 -0.6820 -2.4757  1.8286
40970SOL     OW27720   9.478   2.077   1.605  0.2134  0.2736  0.4517
40970SOL    HW127721   9.509   2.051   1.518 -0.8595 -1.7067  0.5978
40970SOL    HW227722   9.383   2.068   1.601  0.0814  0.9439  1.5909
40971SOL     OW27723  12.134   9.829   7.293  0.4397  0.0298  0.1682
40971SOL    HW127724  12.103   9.807   7.380 -1.5281 -0.0091 -0.4882
40971SOL    HW227725  12.194   9.758   7.270  1.8588  0.6030  1.8662
40972SOL     OW27726   6.146  11.269   8.179 -0.4814  0.1845 -0.1237
40972SOL    HW127727   6.111  11.358   8.189  1.1568  0.7131  1.7623
40972SOL    HW227728   6.090  11.215   8.236  0.3522  0.6219  1.1602
40973SOL     OW27729   7.289   8.684   2.745 -0.0238 -0.2811  0.3154
40973SOL    HW127730   7.384   8.667   2.748  0.5035  1.4583 -2.4100
40973SOL    HW227731   7.283   8.777   2.722 -2.3756 -0.6208 -0.6691
40974SOL     OW27732  11.787  10.479   8.240  0.2734 -0.4660  0.3680
40974SOL    HW127733  11.777  10.569   8.270  0.7084 -0.3192  0.0926
40974SOL    HW227734  11.845  10.486   8.164 -0.1231 -0.9187  0.0139
40975SOL     OW27735  11.831   5.405   7.681  0.3724  0.1890  0.0016
40975SOL    HW127736  11.775   5.476   7.711  2.0786  1.5382  0.1429
40975SOL    HW227737  11.782   5.365   7.609 -0.8281  1.1883  0.2290
40976SOL     OW27738   8.007   6.741   6.785 -0.5695  0.2491 -0.1704
40976SOL    HW127739   8.046   6.778   6.864 -0.7438  2.2015 -0.9238
40976SOL    HW227740   7.960   6.663   6.814  1.9070 -0.8552  1.1226
40977SOL     OW27741   3.531   8.165   5.944  0.5088  0.1995  0.7790
40977SOL    HW127742   3.612   8.215   5.955  0.7339  0.1016 -0.3555
40977SOL    HW227743   3.558   8.086   5.898 -0.3898  0.6436 -0.5429
40978SOL     OW27744   3.803  11.471   9.053  0.7435  0.0291  0.1373
40978SOL    HW127745   3.887  11.464   9.099  0.6529  1.0819  0.5054
40978SOL    HW227746   3.743  11.416   9.103  1.0111 -0.0282  0.3949
40979SOL     OW27747   3.477   5.229  10.516 -0.3580  0.2054 -0.0162
40979SOL    HW127748   3.385   5.257  10.524 -0.3175  0.2847  0.1759
40979SOL    HW227749   3.517   5.255  10.599 -0.3142 -0.4075  0.1549
40980SOL     OW27750   8.227   2.194   7.788 -0.1772  0.0906  0.9382
40980SOL    HW127751   8.301   2.177   7.729  1.1706  1.2622  2.2013
40980SOL    HW227752   8.238   2.286   7.814 -1.8487  0.1546  1.4946
40981SOL     OW27753  11.606  11.100   4.594 -0.4242  0.4382  0.2606
40981SOL    HW127754  11.571  11.122   4.680 -2.2916  1.1495 -0.6294
40981SOL    HW227755  11.589  11.177   4.540 -0.9508 -0.6399 -1.2049
40982SOL     OW27756   5.006   9.576   8.072 -0.0161 -0.1530 -0.2748
40982SOL    HW127757   5.030   9.633   7.998 -3.1052 -0.8194 -1.9478
40982SOL    HW227758   4.913   9.594   8.087 -0.4712 -2.9416  0.7916
40983SOL     OW27759   9.427   8.736  11.265  0.3241 -0.0755  0.3851
40983SOL    HW127760   9.334   8.716  11.278  0.4438  0.5473  2.4384
40983SOL    HW227761   9.470   8.650  11.267 -0.3567 -0.6142 -2.8070
40984SOL     OW27762   4.214   4.574   6.294 -0.3460 -0.0385 -0.0233
40984SOL    HW127763   4.126   4.613   6.297 -0.0737  0.6454 -0.6497
40984SOL    HW227764   4.239   4.579   6.201  0.8526  0.9165  0.3318
40985SOL     OW27765   6.917   0.712   5.345  0.3219  0.0570  0.1004
40985SOL    HW127766   6.969   0.789   5.324 -1.2467  1.4975  1.2510
40985SOL    HW227767   6.924   0.704   5.440  0.6460 -1.4040 -0.0136
40986SOL     OW27768  12.394   8.965  11.715 -0.2511  0.3198 -0.6670
40986SOL    HW127769  12.350   8.886  11.746 -0.5340 -0.3006 -2.5137
40986SOL    HW227770  12.381   9.029  11.785  0.3159 -1.3517  1.0573
40987SOL     OW27771   3.496   9.367  10.418 -0.7134 -0.4961  0.1803
40987SOL    HW127772   3.527   9.452  10.390 -0.1904 -0.9959 -0.7773
40987SOL    HW227773   3.494   9.373  10.514 -1.7754  0.9586  0.1058
40988SOL     OW27774   9.897   9.073   1.655  0.4363 -0.7032  0.3782
40988SOL    HW127775   9.942   9.148   1.616 -1.3385  0.2711  0.0885
40988SOL    HW227776   9.882   9.013   1.582  0.0211 -0.3799  0.1943
40989SOL     OW27777   7.219   9.917   1.735 -0.2086  0.4140  0.3316
40989SOL    HW127778   7.152   9.880   1.677  1.1834  0.6664 -1.5481
40989SOL    HW227779   7.207   9.871   1.818 -1.3985 -1.0003 -0.5678
40990SOL     OW27780   6.213   6.411   6.032  0.2041 -0.2013  0.3391
40990SOL    HW127781   6.281   6.348   6.011 -0.6082 -1.1603  0.4894
40990SOL    HW227782   6.223   6.427   6.126 -0.3205 -1.0227  0.5425
40991SOL     OW27783  10.574   8.364  11.624 -0.0548 -0.5825 -0.5065
40991SOL    HW127784  10.550   8.356  11.531 -0.0806 -0.9232 -0.4752
40991SOL    HW227785  10.570   8.457  11.643  3.0742 -0.0696 -1.6991
40992SOL     OW27786   2.665   4.244  10.553 -0.3206  0.2771 -0.1771
40992SOL    HW127787   2.713   4.162  10.544  1.2752  1.1917 -0.3843
40992SOL    HW227788   2.605   4.244  10.478 -0.6044 -0.8554  0.0312
40993SOL     OW27789   9.430   3.258   1.790 -0.4917 -0.1607  0.4590
40993SOL    HW127790   9.444   3.316   1.715 -1.3354 -0.2226  0.2432
40993SOL    HW227791   9.491   3.290   1.857 -0.1668  0.2786 -0.0370
40994SOL     OW27792   1.723   9.392   3.606 -0.0920  0.0883  0.0736
40994SOL    HW127793   1.726   9.454   3.533  0.5395  0.4920  0.4347
40994SOL    HW227794   1.809   9.349   3.604 -0.6597 -1.0734 -0.4151
40995SOL     OW27795   1.991   2.171   4.502 -0.4310  0.3510 -0.3996
40995SOL    HW127796   1.979   2.077   4.512  0.2179 -0.0300 -2.6045
40995SOL    HW227797   2.000   2.204   4.591 -0.8127 -1.6355  0.4282
40996SOL     OW27798   9.660   9.087  11.673 -0.2047 -0.9621  0.2125
40996SOL    HW127799   9.643   9.057  11.763 -0.3396  1.9653  1.2766
40996SOL    HW227800   9.749   9.120  11.676  0.0509 -1.5044 -0.9742
40997SOL     OW27801   0.502   9.095   8.592  0.4720 -0.0597  0.3941
40997SOL    HW127802   0.555   9.174   8.584  0.3335  0.0557  0.6391
40997SOL    HW227803   0.487   9.068   8.501 -3.4486  2.7946 -0.0679
40998SOL     OW27804   1.127   6.427   8.207  0.3827  0.1817 -0.1873
40998SOL    HW127805   1.162   6.513   8.185  1.5585 -0.4164 -0.7281
40998SOL    HW227806   1.038   6.444   8.235  1.4408  1.9670  2.5287
40999SOL     OW27807   5.115   8.182   9.295  0.0746  0.4616 -0.9178
40999SOL    HW127808   5.185   8.192   9.359  0.0995  0.5638 -0.9613
40999SOL    HW227809   5.055   8.119   9.334 -1.2007  2.3622  0.3102
41000SOL     OW27810   2.637  12.408   3.644 -0.0347  0.4594  0.3636
41000SOL    HW127811   2.633  12.333   3.585  3.4552  0.4466 -0.0512
41000SOL    HW227812   2.584  12.382   3.720 -1.0225 -1.3054 -0.8683
41001SOL     OW27813   8.909  11.262   9.390 -0.1774 -0.4283  0.0911
41001SOL    HW127814   8.911  11.329   9.459 -2.1302 -0.9900  0.7779
41001SOL    HW227815   8.930  11.181   9.435 -0.3738 -0.6401 -0.1985
41002SOL     OW27816   0.664   7.647   4.668 -0.3228  0.6652  0.0012
41002SOL    HW127817   0.659   7.614   4.578 -0.3496 -0.6747  0.4708
41002SOL    HW227818   0.671   7.568   4.722  0.4002  1.4709  1.1320
41003SOL     OW27819   8.455   0.316  12.035 -0.0318 -0.1306  0.4452
41003SOL    HW127820   8.508   0.366  12.098  0.3487  0.7425 -0.5392
41003SOL    HW227821   8.427   0.380  11.970 -1.3875 -0.8028  0.3388
41004SOL     OW27822   3.531   5.873   0.912  0.5617  0.2538 -0.4453
41004SOL    HW127823   3.519   5.842   1.001  2.2480  0.0030 -0.2646
41004SOL    HW227824   3.455   5.840   0.864 -0.3140  0.3178  0.8677
41005SOL     OW27825   6.983   7.871   7.629 -0.4031  0.7778  0.6088
41005SOL    HW127826   7.001   7.789   7.675  0.7090  2.0166  2.5257
41005SOL    HW227827   6.888   7.884   7.640 -0.8832 -0.9344 -1.0150
41006SOL     OW27828   6.167   6.985   9.328  0.2225  0.3302 -0.3148
41006SOL    HW127829   6.159   6.947   9.415  0.6689 -1.5021 -1.0187
41006SOL    HW227830   6.228   7.058   9.339  2.1890 -1.3190  0.5451
41007SOL     OW27831  12.403   7.008  11.285  0.3996  0.0669 -0.2487
41007SOL    HW127832  12.332   6.954  11.249  1.4423  1.2846 -4.7756
41007SOL    HW227833  12.367   7.096  11.288  0.4800  0.0617  1.5410
41008SOL     OW27834   8.869   9.227   8.942 -0.0011 -0.5042  0.0212
41008SOL    HW127835   8.902   9.315   8.923  1.1104 -0.8670  0.1802
41008SOL    HW227836   8.854   9.227   9.036 -1.8558  0.0938 -0.2243
41009SOL     OW27837   2.562   9.391   2.113  0.0496 -0.0593  0.7089
41009SOL    HW127838   2.566   9.469   2.169  0.2759 -0.0756  0.7132
41009SOL    HW227839   2.642   9.343   2.132 -0.0977 -0.3061  0.7209
41010SOL     OW27840   5.111   3.258   1.749  0.0738  0.7871 -0.3190
41010SOL    HW127841   5.080   3.335   1.797  0.1199  0.0129  1.0021
41010SOL    HW227842   5.037   3.197   1.752  0.5338  0.2312 -0.1044
41011SOL     OW27843   0.414  12.189   8.507 -0.0633 -0.0266 -0.1521
41011SOL    HW127844   0.390  12.260   8.447  1.2058  1.2790  0.8167
41011SOL    HW227845   0.406  12.227   8.594  2.0914 -0.5865  0.3374
41012SOL     OW27846   5.668   0.298   3.927  0.5514  0.6752  0.2235
41012SOL    HW127847   5.603   0.364   3.904  1.1781  1.5117  0.8167
41012SOL    HW227848   5.715   0.280   3.846  1.4623  2.1829  0.3814
41013SOL     OW27849  10.866   1.730  11.023 -0.0911 -0.0426  0.1342
41013SOL    HW127850  10.886   1.752  11.114 -1.1009  0.7521  0.1810
41013SOL    HW227851  10.949   1.696  10.988  0.6522  0.8124  0.9987
41014SOL     OW27852  10.517   7.088   5.263 -0.4786 -0.4917 -0.4966
41014SOL    HW127853  10.596   7.079   5.316  0.3771  3.1310 -0.8490
41014SOL    HW227854  10.451   7.035   5.308  0.9960 -0.0538  2.4491
41015SOL     OW27855   1.586  12.318   8.437  0.2264  0.7113 -0.3036
41015SOL    HW127856   1.553  12.316   8.347 -0.6654 -0.4909  0.0369
41015SOL    HW227857   1.508  12.315   8.492  0.6407  3.3254  0.5704
41016SOL     OW27858   2.304   6.799   2.677  0.1896  0.1755  0.8118
41016SOL    HW127859   2.393   6.830   2.695  0.0295  1.5509 -0.5942
41016SOL    HW227860   2.304   6.778   2.584 -1.0094  0.3458  0.7634
41017SOL     OW27861   9.743   1.127   2.650  0.1994  0.2046  0.3190
41017SOL    HW127862   9.733   1.222   2.643 -0.2925  0.1386  0.0937
41017SOL    HW227863   9.660   1.092   2.619 -0.1869 -0.2675  1.8038
41018SOL     OW27864   7.616  10.586  10.141 -0.4735 -0.2319 -0.1121
41018SOL    HW127865   7.539  10.545  10.181 -2.3355  2.2184 -0.9369
41018SOL    HW227866   7.594  10.590  10.047  0.9499 -0.0363 -0.4537
41019SOL     OW27867   4.156   8.105   3.333 -0.0625 -0.0081  0.7566
41019SOL    HW127868   4.179   8.041   3.401 -0.0137 -0.5309  0.2491
41019SOL    HW227869   4.194   8.070   3.253 -0.2962  0.5058  0.4200
41020SOL     OW27870  10.338  12.035   6.994 -0.8628  0.0519 -0.0193
41020SOL    HW127871  10.307  12.016   6.906 -1.5287  0.9268  0.0102
41020SOL    HW227872  10.258  12.059   7.042 -0.2694  1.4165  0.3215
41021SOL     OW27873   9.518   0.863   7.304 -0.7214  0.0198  0.6234
41021SOL    HW127874   9.527   0.785   7.359 -1.1581  0.0531  0.7465
41021SOL    HW227875   9.531   0.937   7.365 -1.8926  0.0754  0.8425
41022SOL     OW27876  12.196   3.677   8.930 -0.2096  0.5926 -0.5478
41022SOL    HW127877  12.230   3.673   8.841  0.4069  0.7384 -0.3241
41022SOL    HW227878  12.112   3.632   8.926 -0.0326  0.3105 -1.1318
41023SOL     OW27879   9.193   8.772   4.006 -0.5036  0.1508 -0.4725
41023SOL    HW127880   9.137   8.710   4.052  0.1064 -0.9626 -1.1870
41023SOL    HW227881   9.259   8.797   4.070 -1.4839  1.0706  0.2117
41024SOL     OW27882  10.743  12.346   4.834 -0.2350 -0.3200 -0.2125
41024SOL    HW127883  10.764  12.437   4.815  2.7367 -0.8405  0.0461
41024SOL    HW227884  10.796  12.295   4.772 -0.8104 -1.8724  0.5014
41025SOL     OW27885   7.495   3.065  10.364 -1.0381 -0.1854 -0.2177
41025SOL    HW127886   7.413   3.040  10.322 -1.6139  0.8488  0.2305
41025SOL    HW227887   7.468   3.098  10.451 -0.5084  2.6528 -1.0144
41026SOL     OW27888   9.852   1.690   0.201  0.5362  0.0313  0.5070
41026SOL    HW127889   9.804   1.766   0.234  0.0384 -0.6705  1.4593
41026SOL    HW227890   9.787   1.619   0.200  1.0462 -0.4428 -0.1597
41027SOL     OW27891   3.534   2.719   9.624  0.1529  0.0141  0.0527
41027SOL    HW127892   3.470   2.652   9.648 -0.3252  0.7159  0.7848
41027SOL    HW227893   3.568   2.691   9.539  1.2795 -2.0864  1.1424
41028SOL     OW27894   8.543   1.104   8.281 -0.3420 -0.2113  0.3678
41028SOL    HW127895   8.475   1.079   8.343  0.1524 -0.8147  0.6739
41028SOL    HW227896   8.571   1.021   8.241 -1.5778  0.2617 -1.6578
41029SOL     OW27897   3.900   2.528   5.920  0.4228  1.0580 -0.5859
41029SOL    HW127898   3.948   2.453   5.955  1.4572  1.6143 -0.7938
41029SOL    HW227899   3.838   2.489   5.857 -1.4011  0.0460  1.6662
41030SOL     OW27900   0.085   4.303   4.779  0.7618  0.0168  0.1343
41030SOL    HW127901   0.009   4.250   4.802  0.8140 -0.1666 -0.1101
41030SOL    HW227902   0.111   4.344   4.862  0.9022 -0.5740  0.3914
41031SOL     OW27903   1.595   2.155   6.010  0.9636  0.1945 -0.0430
41031SOL    HW127904   1.685   2.144   6.042  1.0986 -0.5134 -0.6108
41031SOL    HW227905   1.548   2.079   6.045  0.5285  0.6801  0.4329
41032SOL     OW27906   2.598  10.445   8.771 -0.5507  0.1451 -0.6364
41032SOL    HW127907   2.614  10.427   8.678  2.4646  2.7816 -0.7876
41032SOL    HW227908   2.605  10.540   8.778 -3.0296  0.2779  2.0021
41033SOL     OW27909   1.271   4.216   6.305 -0.1153  0.6248  0.3473
41033SOL    HW127910   1.237   4.127   6.289 -0.9659  0.8039  1.0897
41033SOL    HW227911   1.283   4.252   6.217 -0.6309  0.0918  0.0420
41034SOL     OW27912   5.830   6.573   5.405  0.8116  0.7771 -0.5221
41034SOL    HW127913   5.742   6.610   5.407  0.2960 -0.4577  0.1467
41034SOL    HW227914   5.845   6.552   5.313  1.4013  3.2121 -1.0659
41035SOL     OW27915  10.777   6.173   9.764 -0.1053  0.1464  0.1193
41035SOL    HW127916  10.854   6.128   9.729  0.4934  0.9984  0.3064
41035SOL    HW227917  10.745   6.227   9.692 -1.5282 -1.3961 -0.4877
41036SOL     OW27918  11.183  11.000  11.497  0.3187 -0.2667 -0.3525
41036SOL    HW127919  11.234  11.078  11.519 -0.5931  0.0599  0.6767
41036SOL    HW227920  11.099  11.012  11.540  0.0939 -1.7545 -0.2999
41037SOL     OW27921   2.352   8.313   9.629 -0.6157 -0.3483 -0.1790
41037SOL    HW127922   2.364   8.218   9.624 -2.0590 -0.7050  1.7799
41037SOL    HW227923   2.439   8.346   9.653 -0.6443 -1.5357  1.8930
41038SOL     OW27924   8.646   6.056   4.197 -0.7597  0.0055  0.5450
41038SOL    HW127925   8.646   5.969   4.238  1.9005  0.7682  2.4815
41038SOL    HW227926   8.705   6.046   4.122 -0.8228  0.0345  0.4920
41039SOL     OW27927   5.037   7.585   2.695  0.0654 -0.3647  0.3933
41039SOL    HW127928   5.063   7.662   2.746 -0.3151 -0.2163  0.3694
41039SOL    HW227929   5.054   7.511   2.753 -0.4389 -0.1908  0.7728
41040SOL     OW27930   7.633   5.219   2.739  0.0965  0.1315  0.1949
41040SOL    HW127931   7.692   5.290   2.716 -1.0145  0.3777 -2.1693
41040SOL    HW227932   7.550   5.262   2.761 -0.1123 -0.3496  0.3686
41041SOL     OW27933   9.142   9.045   4.033  0.0391  0.1382 -0.4900
41041SOL    HW127934   9.206   9.093   3.982 -0.4523 -0.3131 -1.5790
41041SOL    HW227935   9.160   8.953   4.014 -1.1176  0.0094 -1.0980
41042SOL     OW27936  11.191   0.175   9.888  0.3528  0.3888 -0.6994
41042SOL    HW127937  11.190   0.123   9.808 -0.0382 -0.7978  0.0509
41042SOL    HW227938  11.246   0.125   9.949 -2.1527 -0.5688  0.9187
41043SOL     OW27939  11.011  10.940   0.575 -0.1371  0.1142  1.3126
41043SOL    HW127940  10.957  10.996   0.520  2.2246  0.7497 -0.4958
41043SOL    HW227941  10.963  10.857   0.579 -0.7057  0.2476 -1.2337
41044SOL     OW27942   5.990   4.781   9.682  0.3568  0.0304 -0.6431
41044SOL    HW127943   5.903   4.788   9.722  0.2551  0.0837 -0.8726
41044SOL    HW227944   6.035   4.714   9.733 -0.6142 -1.7272 -1.9682
41045SOL     OW27945   4.528   0.727   5.871  1.0996  0.1095 -0.4904
41045SOL    HW127946   4.468   0.790   5.911  0.6403 -0.5860 -0.0573
41045SOL    HW227947   4.545   0.663   5.940 -0.8836 -1.9483 -1.7556
41046SOL     OW27948   5.089   5.797   3.174 -0.0746  0.4096  0.0956
41046SOL    HW127949   5.169   5.815   3.223  0.0972 -0.0978  0.0101
41046SOL    HW227950   5.116   5.735   3.106 -0.6335 -0.1543  0.3740
41047SOL     OW27951   7.231   7.199  10.750 -0.0182  0.1839 -0.1235
41047SOL    HW127952   7.138   7.216  10.733  0.1924  0.1925 -1.3324
41047SOL    HW227953   7.276   7.232  10.672  1.1220  1.2862  0.9580
41048SOL     OW27954   6.721   8.808   1.322  0.0465 -0.1785  0.5448
41048SOL    HW127955   6.678   8.892   1.339  2.4509  1.0474  0.9898
41048SOL    HW227956   6.771   8.823   1.242 -1.5866 -2.1100 -0.9435
41049SOL     OW27957   2.826   3.212   8.796  0.5299  0.7990 -0.2326
41049SOL    HW127958   2.821   3.147   8.866 -0.3744 -0.4685 -1.4080
41049SOL    HW227959   2.919   3.222   8.778  0.6550 -0.8267 -0.5859
41050SOL     OW27960  11.594   9.094   7.154 -0.9841  0.2242  0.8793
41050SOL    HW127961  11.629   9.032   7.219 -1.1639  0.1731  0.9262
41050SOL    HW227962  11.524   9.140   7.200 -0.4552  0.8956  1.0473
41051SOL     OW27963   8.814   1.817   6.408  0.0165  0.2205  0.0286
41051SOL    HW127964   8.904   1.849   6.408  0.1165 -0.0624 -0.2122
41051SOL    HW227965   8.808   1.760   6.332 -0.3438  0.1710  0.0904
41052SOL     OW27966   8.646   7.241   5.218  0.4942  0.3203  0.3670
41052SOL    HW127967   8.721   7.197   5.177  0.4375  0.4676  0.1000
41052SOL    HW227968   8.677   7.269   5.303  0.0000 -1.8956  1.3607
41053SOL     OW27969   5.362   8.887   0.605  0.4806  0.3865  0.3457
41053SOL    HW127970   5.431   8.891   0.539  1.7573  0.2397  1.6203
41053SOL    HW227971   5.363   8.974   0.646  0.6198  0.0564  1.0580
41054SOL     OW27972   3.949   4.190   3.893 -0.2488  0.7890 -0.5641
41054SOL    HW127973   3.880   4.250   3.867 -0.7163  0.0021 -1.1771
41054SOL    HW227974   3.903   4.115   3.932  0.3086  0.6803 -0.0884
41055SOL     OW27975   2.647  12.149  10.194  0.0489  0.4331  0.7105
41055SOL    HW127976   2.600  12.066  10.184 -0.5605  0.8864 -0.2840
41055SOL    HW227977   2.581  12.210  10.225  0.2148  0.8434  0.2590
41056SOL     OW27978   0.400   4.086   2.260  0.2342 -0.1264 -0.2973
41056SOL    HW127979   0.481   4.035   2.269  0.6897  0.7294  0.7468
41056SOL    HW227980   0.345   4.054   2.332  0.7401  1.1933  0.7155
41057SOL     OW27981   7.814   8.139   0.687 -0.1452 -0.4759 -0.2493
41057SOL    HW127982   7.719   8.142   0.679 -0.2384 -0.8395  0.6441
41057SOL    HW227983   7.844   8.220   0.644 -1.0254  0.8797  1.5569
41058SOL     OW27984   9.283   2.913  11.572 -0.1352 -0.2973 -0.3957
41058SOL    HW127985   9.240   2.963  11.641  1.0599  3.5529 -2.1753
41058SOL    HW227986   9.222   2.914  11.499 -0.0418 -1.4247 -0.5068
41059SOL     OW27987   5.430   5.242   4.465  0.0988  0.3435 -0.3712
41059SOL    HW127988   5.336   5.253   4.449  0.0221  0.1682 -0.0384
41059SOL    HW227989   5.471   5.307   4.408 -0.1598 -0.3531 -1.3888
41060SOL     OW27990   1.479   6.100   4.576  0.2652  0.5265 -0.0078
41060SOL    HW127991   1.384   6.088   4.582  0.4091 -0.9344 -0.1424
41060SOL    HW227992   1.499   6.173   4.634 -0.8837  0.5149  0.4188
41061SOL     OW27993   7.592   9.744  11.980  0.3559  0.2055 -0.3220
41061SOL    HW127994   7.531   9.739  12.053 -2.0327 -0.8991 -2.2743
41061SOL    HW227995   7.619   9.653  11.964 -0.2127  0.2484 -1.6315
41062SOL     OW27996   8.856   5.332   4.561  0.1873 -0.4588 -0.2284
41062SOL    HW127997   8.876   5.410   4.510 -0.4412 -0.0025  0.2067
41062SOL    HW227998   8.770   5.304   4.530 -0.6466  0.3926  1.2336
41063SOL     OW27999   1.807   1.297   7.278 -0.1094  0.3155  0.0717
41063SOL    HW128000   1.753   1.320   7.202 -0.1215  0.1066  0.0174
41063SOL    HW228001   1.770   1.216   7.311  0.8070 -0.3963 -0.5965
41064SOL     OW28002  11.365   9.602   7.323 -0.0727 -0.1330  0.0779
41064SOL    HW128003  11.292   9.610   7.262 -0.2885  2.1443  0.5484
41064SOL    HW228004  11.324   9.593   7.409  0.1981 -0.1160  0.2100
41065SOL     OW28005   6.006   4.270  11.066 -0.2931 -0.0647  0.2039
41065SOL    HW128006   5.975   4.334  11.131 -0.0685  0.7655 -0.4782
41065SOL    HW228007   5.926   4.240  11.023 -0.3622  0.1019  0.2145
41066SOL     OW28008   8.139   4.158   4.978 -0.6587  0.0152 -0.4566
41066SOL    HW128009   8.092   4.099   5.037  0.8013 -0.2476  0.5311
41066SOL    HW228010   8.160   4.234   5.033 -1.4784  0.9225 -1.3793
41067SOL     OW28011   6.670   6.529   9.515 -0.0123  0.2741 -0.3183
41067SOL    HW128012   6.671   6.617   9.552  1.4380  1.1866 -2.3120
41067SOL    HW228013   6.751   6.488   9.546  0.6966  0.6814 -1.5265
41068SOL     OW28014   7.398   6.746   7.207 -0.6843  0.5298  0.1539
41068SOL    HW128015   7.323   6.772   7.153 -0.8261  0.0700  0.1263
41068SOL    HW228016   7.449   6.688   7.151 -0.2787  0.8774  0.1589
41069SOL     OW28017  12.175   7.623  11.263 -1.0016  0.0409 -0.2140
41069SOL    HW128018  12.194   7.696  11.204  2.1810  0.9779  1.7666
41069SOL    HW228019  12.220   7.548  11.225 -0.1348  0.3164  0.2389
41070SOL     OW28020  11.283   3.995   0.543 -0.2493  0.0902  0.7196
41070SOL    HW128021  11.188   4.010   0.541 -0.0565  1.5295 -2.2587
41070SOL    HW228022  11.294   3.903   0.518 -0.8217  0.2970 -0.3170
41071SOL     OW28023   4.352  11.241   7.917  0.1164  0.0163  0.4145
41071SOL    HW128024   4.273  11.206   7.876 -0.7602  1.3297  0.9072
41071SOL    HW228025   4.320  11.306   7.979  1.4184 -1.3351  2.6661
41072SOL     OW28026  11.515  11.103   4.926  0.0304 -0.1954  0.1023
41072SOL    HW128027  11.594  11.053   4.905 -0.5580 -1.2239  0.2623
41072SOL    HW228028  11.451  11.037   4.951 -0.9947  0.6030 -0.3520
41073SOL     OW28029   2.304   0.086  12.562  0.1927  0.3280  0.1642
41073SOL    HW128030   2.249   0.015  12.595 -0.3047  0.8580  0.5009
41073SOL    HW228031   2.340   0.127  12.641  0.9097  0.1195 -0.0462
41074SOL     OW28032   6.804   6.440  10.232  0.0369  0.3788  0.0932
41074SOL    HW128033   6.811   6.485  10.316  0.0819  0.8797 -0.1768
41074SOL    HW228034   6.875   6.477  10.179 -1.9408  2.5030 -1.2936
41075SOL     OW28035   4.025   6.238   9.788  0.0504 -0.1663  0.0438
41075SOL    HW128036   4.028   6.172   9.858  1.1979 -0.3969 -0.2015
41075SOL    HW228037   4.009   6.187   9.709  0.1202 -0.0591 -0.0385
41076SOL     OW28038   9.324   5.380   5.690 -0.1714 -0.4222 -0.1718
41076SOL    HW128039   9.277   5.357   5.770 -1.2496 -1.5897 -1.0974
41076SOL    HW228040   9.270   5.445   5.647  0.9993  1.1188  0.5774
41077SOL     OW28041   0.857   3.908   5.842  0.1402  0.1713 -0.5650
41077SOL    HW128042   0.894   3.964   5.909  0.8303  0.3315 -1.0649
41077SOL    HW228043   0.831   3.968   5.772 -1.6213  0.1269  0.0004
41078SOL     OW28044   7.101   4.321   8.046  0.4340 -0.1327 -0.0695
41078SOL    HW128045   7.023   4.372   8.024  0.5553 -0.0337 -0.2789
41078SOL    HW228046   7.149   4.315   7.963  0.7703  0.0162  0.1138
41079SOL     OW28047  12.506   4.468  10.584 -0.4051  0.1730  0.0560
41079SOL    HW128048  12.592   4.478  10.544 -1.3098 -0.0903 -2.0725
41079SOL    HW228049  12.471   4.557  10.588 -0.2804  0.2108  0.4123
41080SOL     OW28050   1.656   2.629   6.608  0.4391  0.2995  0.6667
41080SOL    HW128051   1.615   2.623   6.695 -0.3919 -0.4709  0.2455
41080SOL    HW228052   1.749   2.642   6.626  0.2072  0.6439  1.6704
41081SOL     OW28053   7.728   1.336   9.263 -0.3462 -0.5246 -0.3742
41081SOL    HW128054   7.770   1.398   9.203 -0.6280  0.9810  0.9032
41081SOL    HW228055   7.661   1.293   9.211 -0.7368  0.9134 -1.1098
41082SOL     OW28056  10.711   6.663   2.349 -0.1250 -0.6246  0.6434
41082SOL    HW128057  10.717   6.647   2.255  1.8299 -2.3275  0.9982
41082SOL    HW228058  10.619   6.684   2.364 -0.2844  0.7915 -1.7689
41083SOL     OW28059   3.138   3.626   2.828 -0.0388 -0.4085  0.1951
41083SOL    HW128060   3.133   3.620   2.923  1.7718  0.7739  0.4194
41083SOL    HW228061   3.178   3.544   2.800  0.0473 -0.4781  0.5179
41084SOL     OW28062   0.869   4.723   9.290  0.3964  0.0629 -0.3371
41084SOL    HW128063   0.837   4.746   9.203 -0.7025  0.1271  0.0739
41084SOL    HW228064   0.865   4.628   9.293 -0.5719  0.1128  0.0157
41085SOL     OW28065   7.078  11.930  12.066 -0.1049  0.0499 -0.1175
41085SOL    HW128066   7.038  11.872  12.001  0.8619 -2.0550  1.0425
41085SOL    HW228067   7.016  11.931  12.139 -0.1395  0.5528 -0.1486
41086SOL     OW28068   5.600  11.436  11.691 -0.4719  0.1336  0.0586
41086SOL    HW128069   5.526  11.422  11.750 -1.2364 -1.0229 -1.1064
41086SOL    HW228070   5.600  11.359  11.635 -0.4101  1.6234 -2.1059
41087SOL     OW28071   9.831   1.121   6.236  0.1035 -0.4268 -0.0118
41087SOL    HW128072   9.797   1.060   6.302 -0.7938  0.5644  0.4575
41087SOL    HW228073   9.790   1.093   6.154 -0.2893 -0.4656  0.1972
41088SOL     OW28074   6.022  10.575  10.534  0.0035  0.1635  0.6481
41088SOL    HW128075   5.932  10.586  10.565 -0.0599 -1.4597  1.0863
41088SOL    HW228076   6.023  10.490  10.491  1.5889 -0.3238  1.5915
41089SOL     OW28077  10.466   2.783   7.732  0.3146  0.3275 -0.1697
41089SOL    HW128078  10.439   2.704   7.780 -0.4821  0.0964 -0.9765
41089SOL    HW228079  10.440   2.855   7.789  1.0618  0.0255  0.5837
41090SOL     OW28080   3.648   7.080   4.962 -0.6752  0.0073  0.0821
41090SOL    HW128081   3.556   7.064   4.946 -0.7930 -2.8236  2.6780
41090SOL    HW228082   3.691   6.996   4.946  1.6501  1.4266 -1.7820
41091SOL     OW28083  12.593   1.563   8.446 -0.0058 -0.2665  0.1381
41091SOL    HW128084  12.609   1.519   8.362 -1.4417 -0.4611 -0.0543
41091SOL    HW228085  12.601   1.656   8.426  0.6268 -0.3467  0.0056
41092SOL     OW28086   0.595   4.283   8.547 -0.6155 -0.1514 -0.3688
41092SOL    HW128087   0.550   4.366   8.564 -2.0573 -1.1256  0.8872
41092SOL    HW228088   0.654   4.272   8.622 -1.0028 -0.6065 -0.1211
41093SOL     OW28089   2.847   2.252  11.435 -0.3497  0.1492 -0.0644
41093SOL    HW128090   2.846   2.182  11.502  0.2632  1.1191  0.9923
41093SOL    HW228091   2.772   2.307  11.459 -0.3747  0.2748 -0.4391
41094SOL     OW28092   4.397   8.942   6.537  0.2641 -0.4722  0.0180
41094SOL    HW128093   4.376   8.976   6.624  0.0754 -1.0105  0.1864
41094SOL    HW228094   4.314   8.941   6.490  0.5483  0.8677 -0.5504
41095SOL     OW28095   1.548   3.066   8.680 -0.3938  0.2137  0.0511
41095SOL    HW128096   1.527   3.159   8.673  0.6305  0.4718  0.3214
41095SOL    HW228097   1.471   3.027   8.722 -0.4294  1.1046  0.8419
41096SOL     OW28098   6.151   6.962   5.916  0.3172 -0.2024 -0.0507
41096SOL    HW128099   6.110   6.996   5.837 -0.7762  1.0714  1.0241
41096SOL    HW228100   6.162   6.868   5.899 -3.1972 -0.6904 -0.3659
41097SOL     OW28101   9.439   1.879   6.852 -0.4059  0.1127  0.1151
41097SOL    HW128102   9.434   1.786   6.828 -0.9909  0.0805  0.3211
41097SOL    HW228103   9.347   1.903   6.867 -0.3014  0.8532 -0.4212
41098SOL     OW28104   6.922  10.522   8.272 -0.8855  0.1840  0.2729
41098SOL    HW128105   6.935  10.610   8.236 -0.8205  0.1278  0.1561
41098SOL    HW228106   6.884  10.536   8.358 -1.9313  0.3013 -0.1936
41099SOL     OW28107  10.466   3.892   8.587 -0.5581  0.1414 -0.1125
41099SOL    HW128108  10.470   3.970   8.643 -2.5861 -0.1138  0.4611
41099SOL    HW228109  10.528   3.910   8.517 -1.1597  2.4215 -0.1464
41100SOL     OW28110   4.553   8.253   5.181  0.0689 -1.1890 -0.4729
41100SOL    HW128111   4.548   8.341   5.219 -1.1805 -1.7514  0.7605
41100SOL    HW228112   4.640   8.249   5.142  0.1346  0.6127 -0.6313
41101SOL     OW28113   3.096   5.796   1.014  0.0905  0.1507 -0.6673
41101SOL    HW128114   3.033   5.733   1.048  1.6701 -0.8243  0.6052
41101SOL    HW228115   3.092   5.869   1.076  0.9993 -0.4108  0.0666
41102SOL     OW28116   2.454  11.642   6.374  0.0673 -0.3960  0.1900
41102SOL    HW128117   2.529  11.591   6.402 -0.7820 -0.9824  1.4669
41102SOL    HW228118   2.383  11.617   6.434 -1.8739 -1.7100 -2.4466
41103SOL     OW28119   8.031   8.123   3.624  0.1765  0.1935  0.4034
41103SOL    HW128120   8.089   8.116   3.548 -0.0880 -0.1773  0.2328
41103SOL    HW228121   8.061   8.054   3.683 -0.2480 -0.1664  0.2041
41104SOL     OW28122   5.443   5.973  10.868  0.1117  0.2307  0.2924
41104SOL    HW128123   5.387   6.007  10.798 -1.6905 -1.5808  0.7288
41104SOL    HW228124   5.441   6.041  10.935  1.2274  1.6497 -1.0596
41105SOL     OW28125   6.401   7.822   8.484  0.0500  0.0749  0.2377
41105SOL    HW128126   6.332   7.775   8.530 -0.8391  0.0638 -1.0343
41105SOL    HW228127   6.450   7.754   8.437  0.8916  0.0905  1.0661
41106SOL     OW28128   8.896   0.490  12.182 -0.0742  0.4856 -0.3494
41106SOL    HW128129   8.919   0.397  12.172 -3.2258 -0.3540 -0.9760
41106SOL    HW228130   8.865   0.516  12.096 -3.2491  0.7858  0.7465
41107SOL     OW28131  10.598   4.570   8.588  0.5432  0.6988 -0.0597
41107SOL    HW128132  10.570   4.585   8.678 -1.0132 -1.8506 -0.0172
41107SOL    HW228133  10.649   4.489   8.592  2.2385  1.6442 -1.2257
41108SOL     OW28134   9.968   1.672  11.363 -0.0797  0.7174  0.4808
41108SOL    HW128135   9.953   1.632  11.278  1.2140 -1.2820  1.1187
41108SOL    HW228136   9.890   1.650  11.414 -0.3913  1.0300  0.1492
41109SOL     OW28137   8.719   3.284  10.831 -0.1971  0.3016  0.2012
41109SOL    HW128138   8.730   3.266  10.738 -0.3295 -0.6882  0.3688
41109SOL    HW228139   8.740   3.201  10.875 -2.1465  0.1406  0.9284
41110SOL     OW28140   2.136   9.516   6.074  0.7292 -0.9312 -0.8206
41110SOL    HW128141   2.174   9.435   6.108 -0.3584 -1.5617 -1.0568
41110SOL    HW228142   2.161   9.582   6.138  0.7425 -1.6496 -0.0576
41111SOL     OW28143  10.041   4.829   5.886 -1.0912 -0.1486  0.5194
41111SOL    HW128144   9.984   4.833   5.809  1.1084 -0.0217 -1.2074
41111SOL    HW228145  10.078   4.917   5.894  1.1496 -0.9470 -0.3154
41112SOL     OW28146   3.046  10.905   9.585 -0.0785 -0.2170 -0.1516
41112SOL    HW128147   3.096  10.936   9.510 -0.1105 -1.3110 -0.6562
41112SOL    HW228148   3.008  10.984   9.624  1.6399  0.5931 -0.0189
41113SOL     OW28149  10.520   1.739  11.073 -0.0303 -0.3709 -0.5855
41113SOL    HW128150  10.557   1.810  11.127 -0.8494 -1.4079  1.4699
41113SOL    HW228151  10.432   1.769  11.051  0.2152 -0.0559 -1.1757
41114SOL     OW28152   7.708   1.000   2.548  0.3459 -0.0675 -0.2304
41114SOL    HW128153   7.669   1.077   2.589 -2.3043 -1.5539  0.2849
41114SOL    HW228154   7.772   0.968   2.612 -0.4133  0.2652  0.7103
41115SOL     OW28155   6.613   0.446   2.722 -0.5622  0.1362  0.2445
41115SOL    HW128156   6.651   0.449   2.634 -1.1684  0.4674 -0.0114
41115SOL    HW228157   6.531   0.399   2.712 -0.4699 -0.1350  0.7052
41116SOL     OW28158   3.348   0.422   8.588  0.2146 -0.1064  0.0025
41116SOL    HW128159   3.267   0.423   8.638  0.1881  1.3319 -0.0172
41116SOL    HW228160   3.376   0.331   8.588 -2.4483 -1.0286 -1.7041
41117SOL     OW28161   3.238   3.362   2.722 -0.0850  0.3511  0.4531
41117SOL    HW128162   3.163   3.339   2.668 -1.4401  0.9560  1.9681
41117SOL    HW228163   3.292   3.417   2.666 -1.9745  1.8591 -0.0283
41118SOL     OW28164   7.257   6.656   6.395 -0.0072 -0.5124  0.5859
41118SOL    HW128165   7.339   6.679   6.439 -0.3305  1.0538  0.4008
41118SOL    HW228166   7.268   6.563   6.372  1.4337 -0.5089  1.1625
41119SOL     OW28167   2.387   2.284   2.245  0.5130  0.7561 -0.3913
41119SOL    HW128168   2.311   2.315   2.294  2.1719 -0.6996  3.5019
41119SOL    HW228169   2.350   2.241   2.168 -2.7783 -0.7931  1.8170
41120SOL     OW28170   2.652   9.187   9.372 -0.3683  0.1344  0.1322
41120SOL    HW128171   2.610   9.106   9.398 -2.7356 -0.0646 -3.6754
41120SOL    HW228172   2.713   9.162   9.302  0.0081  1.4637 -0.0573
41121SOL     OW28173   4.757  12.544   3.707  0.1219  0.0922 -0.2067
41121SOL    HW128174   4.852  12.557   3.709  0.1410 -0.1140  0.9946
41121SOL    HW228175   4.732  12.534   3.799 -0.9029 -1.0212 -0.5790
41122SOL     OW28176  10.276   3.483  10.062  0.3704 -0.7670 -0.2148
41122SOL    HW128177  10.309   3.525   9.982 -1.2823 -0.2616 -0.6763
41122SOL    HW228178  10.183   3.467  10.044 -0.2275  0.0041  1.8388
41123SOL     OW28179  11.575   9.465   9.174  0.0907  0.1182  0.0786
41123SOL    HW128180  11.604   9.412   9.100 -0.0858 -0.9073  0.7300
41123SOL    HW228181  11.607   9.553   9.154 -0.8492  0.0903 -1.7161
41124SOL     OW28182  11.844   9.771   4.411  0.5086  0.2597  0.4438
41124SOL    HW128183  11.844   9.711   4.486  0.2504 -0.0559  0.1969
41124SOL    HW228184  11.855   9.857   4.450 -3.0628  0.5169  1.2257
41125SOL     OW28185   0.423   9.856   4.975  0.1876  0.4853  0.6265
41125SOL    HW128186   0.463   9.876   4.891  1.1331 -1.0952  0.6590
41125SOL    HW228187   0.473   9.907   5.039 -1.1332  2.4363  0.2030
41126SOL     OW28188   4.012   4.900   0.626 -0.0215 -0.1050 -0.2815
41126SOL    HW128189   3.955   4.919   0.551 -2.3981 -1.6186  1.0321
41126SOL    HW228190   4.015   4.805   0.630  1.7635 -0.0434  0.3600
41127SOL     OW28191  11.515   6.050  10.006  0.7721 -0.0328  0.2237
41127SOL    HW128192  11.594   6.100   9.986 -0.7622  2.1053 -0.8850
41127SOL    HW228193  11.444   6.114  10.000 -1.1243 -1.9939  0.5881
41128SOL     OW28194   6.664   8.693   2.030  0.2280 -0.1370 -0.1859
41128SOL    HW128195   6.706   8.751   1.966 -0.8725  0.1445 -0.6797
41128SOL    HW228196   6.574   8.724   2.035 -0.5577 -2.1281 -0.8650
41129SOL     OW28197   0.339   8.168   2.537 -0.3721 -0.0515 -0.2107
41129SOL    HW128198   0.379   8.081   2.545  0.5387 -0.3505 -4.9566
41129SOL    HW228199   0.412   8.229   2.552 -0.3569 -0.2077  0.3654
41130SOL     OW28200   1.607   6.358  10.840 -0.3341  0.3532 -0.3051
41130SOL    HW128201   1.560   6.276  10.853  2.0540 -0.9127  0.9384
41130SOL    HW228202   1.617   6.394  10.928  0.7760  0.7425 -0.5819
41131SOL     OW28203  11.152   3.038   6.656  0.0565 -0.1810 -0.1687
41131SOL    HW128204  11.169   3.131   6.646 -0.7851  0.2111  1.6576
41131SOL    HW228205  11.074   3.021   6.604  0.5924 -0.0402 -1.0472
41132SOL     OW28206   6.209   9.106   7.011  0.0400 -0.0833 -0.3756
41132SOL    HW128207   6.303   9.100   6.995  0.1504  0.7593 -0.1174
41132SOL    HW228208   6.168   9.068   6.933  0.5901  0.6059 -1.0108
41133SOL     OW28209   9.867   8.117   4.792 -0.2995 -0.1476 -0.3328
41133SOL    HW128210   9.851   8.024   4.805 -0.5814  0.1591  1.8493
41133SOL    HW228211   9.962   8.124   4.783 -0.3560 -0.7331 -1.6355
41134SOL     OW28212   5.224   5.946   8.188  0.1524 -0.3988  0.6753
41134SOL    HW128213   5.133   5.917   8.192  0.1490 -0.3473  1.0389
41134SOL    HW228214   5.221   6.025   8.133 -0.3256  0.6865  2.1857
41135SOL     OW28215   6.382  10.913   1.936  0.1960  0.3701 -0.3829
41135SOL    HW128216   6.294  10.881   1.954  0.8979 -1.3697  0.1447
41135SOL    HW228217   6.386  10.998   1.981 -0.7480 -0.1734  0.7880
41136SOL     OW28218   8.790   7.338   2.867 -0.9052 -0.0043 -0.3828
41136SOL    HW128219   8.732   7.378   2.802 -0.3319  1.0083 -0.2980
41136SOL    HW228220   8.878   7.370   2.844 -0.3745 -1.4502 -0.4696
41137SOL     OW28221   7.172   2.810   3.437 -0.1438 -0.1921 -0.4590
41137SOL    HW128222   7.256   2.764   3.436  0.2469  0.4078 -3.3116
41137SOL    HW228223   7.140   2.805   3.347 -2.5710  0.7089  0.2624
41138SOL     OW28224   9.153   5.912  11.303  0.1280 -0.3994  0.4794
41138SOL    HW128225   9.230   5.965  11.325  0.9345 -2.1529  2.1736
41138SOL    HW228226   9.111   5.895  11.387 -0.6003 -1.6865 -0.1186
41139SOL     OW28227  10.450  12.601  11.017  0.2658 -0.0028 -0.0018
41139SOL    HW128228  10.451  12.626  10.925  0.8389  0.4836  0.1304
41139SOL    HW228229  10.502  12.520  11.020 -0.8653 -0.7604 -0.2977
41140SOL     OW28230  11.722   9.971   1.075 -0.2514 -0.4747 -0.0155
41140SOL    HW128231  11.730  10.027   0.998  0.4100 -1.5460 -0.7560
41140SOL    HW228232  11.669   9.898   1.046  0.7252 -1.3262  0.2702
41141SOL     OW28233   2.494   9.721   0.230 -0.1854 -0.3100 -0.4206
41141SOL    HW128234   2.584   9.703   0.201  0.1073  0.6806 -0.1555
41141SOL    HW228235   2.443   9.721   0.149 -0.0451 -1.3742 -0.5262
41142SOL     OW28236   7.177  11.517  11.710  0.2772  0.0865  0.3098
41142SOL    HW128237   7.113  11.538  11.641  0.4524 -0.5793 -0.0699
41142SOL    HW228238   7.225  11.442  11.675  0.0141 -0.5986  1.3824
41143SOL     OW28239   9.262   5.439   1.968  0.8200  0.8774 -0.2043
41143SOL    HW128240   9.335   5.406   2.021  0.0484 -0.3074  0.1476
41143SOL    HW228241   9.215   5.361   1.939  1.0405  1.5002 -2.4424
41144SOL     OW28242   2.104   2.345   9.715  0.0176  0.0927  0.1174
41144SOL    HW128243   2.195   2.320   9.726  0.1941  0.3774 -0.6197
41144SOL    HW228244   2.103   2.440   9.731 -0.5836 -0.2543  2.5449
41145SOL     OW28245   8.286  10.983   1.936 -0.0331 -0.2611 -0.2039
41145SOL    HW128246   8.247  10.917   1.992 -1.4563  0.2311 -0.5609
41145SOL    HW228247   8.313  10.936   1.858 -3.0959 -0.2072 -1.4632
41146SOL     OW28248  10.084   9.387   1.851  0.2984 -0.3406  0.1027
41146SOL    HW128249  10.178   9.393   1.868  0.2173 -1.6108  1.2030
41146SOL    HW228250  10.066   9.456   1.787  2.0771 -0.4698 -0.5902
41147SOL     OW28251   5.475   8.408   1.590  0.8524 -0.0022  0.1201
41147SOL    HW128252   5.447   8.346   1.658  2.0869  0.9701  1.5817
41147SOL    HW228253   5.513   8.352   1.522 -0.2188 -0.9869  0.2933
41148SOL     OW28254   9.979   2.085   8.807  0.0291 -0.4348 -0.1552
41148SOL    HW128255  10.053   2.024   8.804  0.2819 -0.1874  0.8118
41148SOL    HW228256  10.016   2.166   8.841 -0.0528  0.6795 -2.4669
41149SOL     OW28257   7.037   7.919   7.011 -0.0418 -0.1545  0.1925
41149SOL    HW128258   6.981   7.898   6.936 -0.6338  0.1022  0.5510
41149SOL    HW228259   7.095   7.987   6.979  0.1321 -0.4924 -0.2162
41150SOL     OW28260   0.527   6.373   7.639  0.8117  0.6282 -0.3957
41150SOL    HW128261   0.480   6.354   7.721  0.1030  1.0921 -0.6902
41150SOL    HW228262   0.605   6.317   7.643  0.6920  0.5134  0.5129
41151SOL     OW28263  10.603   1.378   0.695  0.0191 -0.4753  0.0386
41151SOL    HW128264  10.695   1.352   0.686 -0.1359 -0.4755 -1.9025
41151SOL    HW228265  10.571   1.385   0.605 -1.0693  2.3954  0.5247
41152SOL     OW28266  11.054   8.728   1.537  0.1622 -0.5412 -0.0342
41152SOL    HW128267  11.076   8.766   1.452 -0.9087 -1.2009 -0.6248
41152SOL    HW228268  10.980   8.670   1.519 -0.1289 -0.6335  1.3656
41153SOL     OW28269   0.472   6.231   4.181  0.5864 -0.4754  0.2020
41153SOL    HW128270   0.536   6.160   4.169  1.8160  0.2701  1.8630
41153SOL    HW228271   0.507   6.282   4.255 -0.8974  1.1530 -0.1566
41154SOL     OW28272   4.598   7.787   5.886  0.1701  0.4275 -0.3659
41154SOL    HW128273   4.648   7.857   5.929  3.2336 -2.3135  0.9287
41154SOL    HW228274   4.570   7.730   5.958 -2.2560  0.2028 -1.3925
41155SOL     OW28275   6.020   4.807   1.182 -0.1587 -0.7617 -0.2517
41155SOL    HW128276   6.032   4.712   1.186  1.3333 -0.5551  0.9671
41155SOL    HW228277   6.006   4.825   1.089  1.2107 -1.9874 -0.7351
41156SOL     OW28278   6.172  12.109  11.127 -0.1080 -0.3872 -0.3792
41156SOL    HW128279   6.181  12.055  11.206 -1.4543  1.2175  0.9328
41156SOL    HW228280   6.110  12.060  11.072 -2.0616  0.1759  1.2019
41157SOL     OW28281   2.934   3.817   9.009 -0.2669  0.1212  0.1544
41157SOL    HW128282   2.860   3.843   9.064 -0.3968 -1.3593  0.7297
41157SOL    HW228283   2.935   3.721   9.014  0.0260 -0.0309 -2.0398
41158SOL     OW28284   7.572   2.247  11.766  0.1898  1.0016 -0.7002
41158SOL    HW128285   7.590   2.254  11.672  0.1251  0.6980 -0.7363
41158SOL    HW228286   7.489   2.292  11.779 -0.7067 -0.4835 -1.0859
41159SOL     OW28287   7.242   2.837   0.314 -0.3090 -0.1516  0.2199
41159SOL    HW128288   7.312   2.772   0.308 -0.9461 -0.8602  0.2931
41159SOL    HW228289   7.271   2.897   0.383  1.6795  1.4158 -1.8568
41160SOL     OW28290   2.403   4.581   3.723 -0.1244 -0.2481  0.1479
41160SOL    HW128291   2.348   4.516   3.679  0.2615 -0.5344  0.0708
41160SOL    HW228292   2.476   4.594   3.663 -0.1389  0.1668  0.2224
41161SOL     OW28293   3.937   0.193   0.229 -0.5127  0.2036 -0.6289
41161SOL    HW128294   4.001   0.130   0.263  0.8217  1.7526 -0.1248
41161SOL    HW228295   3.880   0.211   0.303  0.4772  1.2098 -0.0669
41162SOL     OW28296   9.960   1.421   9.784 -0.1486  0.3697  0.1631
41162SOL    HW128297   9.928   1.344   9.831 -0.8186  0.8191  0.4767
41162SOL    HW228298  10.049   1.433   9.815  0.2903 -0.8086 -0.5813
41163SOL     OW28299   8.305   0.207   7.530  0.4443 -0.1374  0.7392
41163SOL    HW128300   8.348   0.257   7.461  1.5484 -1.8499  0.1281
41163SOL    HW228301   8.330   0.251   7.611  0.4207  0.9682  0.1649
41164SOL     OW28302  11.780   1.543   2.855  0.1952  0.1670 -0.2863
41164SOL    HW128303  11.836   1.568   2.929  0.3670  0.8674 -0.6528
41164SOL    HW228304  11.691   1.558   2.887  0.3034  1.4539 -0.5740
41165SOL     OW28305   2.311   8.720   9.774 -0.1403  0.5208  0.0542
41165SOL    HW128306   2.233   8.685   9.731 -0.3622 -1.8396  2.1446
41165SOL    HW228307   2.359   8.765   9.704 -1.8572 -0.6310 -1.9764
41166SOL     OW28308  11.757   9.605   8.285  0.0552  0.0783  0.2029
41166SOL    HW128309  11.753   9.648   8.199  0.2293 -0.6622 -0.1874
41166SOL    HW228310  11.683   9.546   8.286  0.2791 -0.2029  0.4063
41167SOL     OW28311   9.141   1.336  12.350 -0.4519  0.1371 -0.7254
41167SOL    HW128312   9.124   1.330  12.256 -2.6649  0.5814 -0.3953
41167SOL    HW228313   9.096   1.415  12.378 -0.4113 -0.3583  0.8311
41168SOL     OW28314   7.790   5.051  10.528 -0.2356 -0.6923  0.2180
41168SOL    HW128315   7.730   4.982  10.499 -1.8543  0.9377 -0.5378
41168SOL    HW228316   7.854   5.058  10.456  1.7975 -3.3029  1.5816
41169SOL     OW28317  11.030   9.530  11.585 -0.0721  0.6155  0.5053
41169SOL    HW128318  10.958   9.529  11.522  0.3218 -0.1882  0.0570
41169SOL    HW228319  11.058   9.439  11.591  1.6494  1.0729 -0.1779
41170SOL     OW28320  10.637  12.100   4.924  0.4578 -1.0419 -0.1586
41170SOL    HW128321  10.556  12.110   4.874 -1.0006 -1.1840  2.0385
41170SOL    HW228322  10.679  12.186   4.920  0.1030 -0.9022 -1.1169
41171SOL     OW28323   2.858   9.951   7.623  0.5251  0.3414  0.4608
41171SOL    HW128324   2.819   9.867   7.599  0.2974  0.7357 -0.5663
41171SOL    HW228325   2.852   9.953   7.719 -0.5250 -0.3005  0.4252
41172SOL     OW28326   5.024   6.454   6.546 -0.6453 -0.1178 -0.3949
41172SOL    HW128327   5.033   6.451   6.451  0.2279 -0.6265 -0.3061
41172SOL    HW228328   4.952   6.395   6.566  0.5125 -1.6736 -0.6042
41173SOL     OW28329   9.060   9.768   8.595 -0.1632 -0.2362  0.0383
41173SOL    HW128330   9.141   9.724   8.619  0.6913 -0.2274 -2.5808
41173SOL    HW228331   9.088   9.848   8.551 -1.6407  0.6392  0.6160
41174SOL     OW28332  10.739  11.531   2.472 -0.7417  0.2172 -0.0037
41174SOL    HW128333  10.764  11.462   2.410 -0.9427 -1.0554  1.2824
41174SOL    HW228334  10.657  11.565   2.437 -1.0878 -0.7968 -0.2088
41175SOL     OW28335   0.516   6.685   1.284 -0.0142  0.2010  0.2051
41175SOL    HW128336   0.547   6.764   1.240  0.8935 -0.3653 -0.1967
41175SOL    HW228337   0.485   6.629   1.212  2.8331 -1.3472  0.0322
41176SOL     OW28338  11.565   9.836   5.622  0.1280 -0.1606 -0.0095
41176SOL    HW128339  11.545   9.923   5.586 -2.7750  0.1003  1.8794
41176SOL    HW228340  11.568   9.778   5.546  1.1642  1.4110 -1.2229
41177SOL     OW28341   4.655   0.371   0.536 -0.1511  0.0795  0.3481
41177SOL    HW128342   4.648   0.456   0.493 -1.4940  1.3158  2.7399
41177SOL    HW228343   4.569   0.330   0.522 -0.4771  0.3450  1.4403
41178SOL     OW28344   4.711   9.185   2.202 -0.1101 -0.1000  0.2877
41178SOL    HW128345   4.764   9.242   2.258  1.5488 -0.2263 -1.0694
41178SOL    HW228346   4.711   9.229   2.117  1.4326 -2.1563 -0.8837
41179SOL     OW28347   0.139   4.536   1.903 -0.0778  0.2122 -0.0092
41179SOL    HW128348   0.171   4.549   1.992  0.9340 -0.5498 -0.2360
41179SOL    HW228349   0.048   4.509   1.913 -0.1593  0.7589  0.7591
41180SOL     OW28350   7.087   9.027   7.104  0.1956  0.6351 -0.0152
41180SOL    HW128351   7.084   9.096   7.036  1.6836  1.3096  0.5537
41180SOL    HW228352   7.086   9.076   7.186 -1.9738 -0.1966  0.5082
41181SOL     OW28353   2.390   7.361   0.223  0.4180 -0.2544 -0.6639
41181SOL    HW128354   2.384   7.436   0.164 -1.8097 -0.0609 -0.2708
41181SOL    HW228355   2.442   7.393   0.297  1.7425  0.0387 -1.6802
41182SOL     OW28356   5.898   2.227   4.021  0.5122  0.6734 -0.2939
41182SOL    HW128357   5.974   2.270   4.059 -0.2128  0.9454  0.8977
41182SOL    HW228358   5.900   2.253   3.928  1.3120  1.4792 -0.0670
41183SOL     OW28359   9.978   7.526   5.904  0.5137 -0.0264  0.4570
41183SOL    HW128360   9.928   7.509   5.985  1.6353 -0.3733  1.0925
41183SOL    HW228361   9.950   7.614   5.878 -0.2901 -0.1346  0.8992
41184SOL     OW28362   1.695   2.375   3.184  0.2512  0.0723 -0.6769
41184SOL    HW128363   1.607   2.408   3.164  0.4981 -0.0537 -2.1072
41184SOL    HW228364   1.698   2.289   3.142  0.8080 -0.2449  0.0018
41185SOL     OW28365   4.980  10.996   2.223 -0.1404  0.0968 -0.3646
41185SOL    HW128366   4.935  10.955   2.297 -0.0882 -0.7304 -0.7783
41185SOL    HW228367   4.910  11.013   2.159  0.0128 -0.4210 -0.6696
41186SOL     OW28368   9.141   0.111   6.539 -0.0181 -0.2250 -0.3416
41186SOL    HW128369   9.053   0.107   6.503 -0.8080 -1.7594  1.5862
41186SOL    HW228370   9.197   0.077   6.470 -1.2884 -1.7225 -0.6828
41187SOL     OW28371   8.508   4.557   2.602 -0.1350  0.2598  0.5067
41187SOL    HW128372   8.452   4.622   2.643 -2.4504 -2.5216  2.0734
41187SOL    HW228373   8.591   4.563   2.650 -0.1210  2.2566  0.3117
41188SOL     OW28374   1.924   2.795   5.164  0.5767  0.8397 -0.2610
41188SOL    HW128375   1.886   2.864   5.110 -3.9331 -1.1147 -0.0289
41188SOL    HW228376   1.952   2.729   5.101 -1.0913  0.2334 -0.4266
41189SOL     OW28377   6.264   7.742   8.208  0.3281  0.7880 -0.3136
41189SOL    HW128378   6.323   7.670   8.188  0.8962  1.0420  0.3613
41189SOL    HW228379   6.224   7.718   8.292 -0.5599  0.6046 -0.7841
41190SOL     OW28380  12.008   7.240   6.278  0.0636 -0.0402  0.2997
41190SOL    HW128381  11.944   7.275   6.340 -0.9426 -1.0794 -0.1316
41190SOL    HW228382  12.045   7.163   6.322  0.6853  0.2791  0.3494
41191SOL     OW28383   9.672   5.084   7.592  0.4802  0.2194  0.1313
41191SOL    HW128384   9.675   4.997   7.552  1.7883  0.5694 -0.5943
41191SOL    HW228385   9.652   5.067   7.684  1.6957 -0.9500  0.2115
41192SOL     OW28386   6.210   1.907   3.596  0.3251  0.2396  0.1359
41192SOL    HW128387   6.241   1.850   3.667  1.2789 -0.5957 -0.9347
41192SOL    HW228388   6.206   1.850   3.519 -0.4558  1.1991 -0.5628
41193SOL     OW28389  11.608   4.080   7.116 -0.2712 -0.3342  0.5873
41193SOL    HW128390  11.613   4.105   7.208  0.4433 -2.1285  1.0844
41193SOL    HW228391  11.529   4.123   7.083 -0.6411  0.1709  2.0844
41194SOL     OW28392  11.237   5.018   3.100 -0.0510 -0.5547  0.3876
41194SOL    HW128393  11.254   5.108   3.125 -0.0007 -0.6439  0.6720
41194SOL    HW228394  11.142   5.013   3.088  0.1823  0.3621 -2.7835
41195SOL     OW28395  12.552  11.949   0.553  0.0020  0.2712 -0.0703
41195SOL    HW128396  12.592  11.967   0.468  1.8528  0.9571  0.8921
41195SOL    HW228397  12.498  12.026   0.571  0.7939  0.8222  0.0124
41196SOL     OW28398   4.728   4.476   7.334  0.0107  0.5122 -0.0885
41196SOL    HW128399   4.683   4.442   7.411 -0.5485 -0.9989 -1.0284
41196SOL    HW228400   4.731   4.571   7.347 -2.1323  0.5212  0.7092
41197SOL     OW28401   3.607   5.666  11.481  0.5071  0.1037  0.0448
41197SOL    HW128402   3.540   5.733  11.472 -1.8052 -1.7297  2.3236
41197SOL    HW228403   3.654   5.689  11.561  1.6816  0.5465 -0.7407
41198SOL     OW28404  12.324  11.350  11.441 -0.2357 -0.3780  0.0927
41198SOL    HW128405  12.390  11.284  11.464 -0.4517 -1.7878 -2.8897
41198SOL    HW228406  12.242  11.314  11.475 -0.0557 -0.6173  0.2803
41199SOL     OW28407   6.700  11.615   9.806 -0.4029 -0.2338  0.2497
41199SOL    HW128408   6.635  11.548   9.822 -1.7489  1.0591  0.4234
41199SOL    HW228409   6.663  11.695   9.843  2.0738  0.2355  2.0210
41200SOL     OW28410   3.856   9.346   6.183 -0.1946  0.2072  0.5656
41200SOL    HW128411   3.830   9.366   6.272 -1.2748 -1.6393  0.7109
41200SOL    HW228412   3.777   9.362   6.131  0.7268  2.3689 -0.3015
41201SOL     OW28413   4.263   3.746  11.961 -0.2242 -0.2016  0.0515
41201SOL    HW128414   4.170   3.741  11.940  0.1069 -0.0420 -1.6047
41201SOL    HW228415   4.266   3.787  12.048 -1.6469  0.9762 -0.4191
41202SOL     OW28416  12.443   2.579  11.425 -0.0891  0.1286  0.2706
41202SOL    HW128417  12.518   2.638  11.428  0.8082 -1.0246  1.7321
41202SOL    HW228418  12.454   2.522  11.501 -1.2112 -1.5841 -0.7804
41203SOL     OW28419   7.970   7.988  11.509 -0.1300  0.0320 -0.6949
41203SOL    HW128420   7.962   7.930  11.434  1.4835  0.7697 -1.4895
41203SOL    HW228421   7.982   7.929  11.584  1.7180 -0.7204 -1.5209
41204SOL     OW28422   9.822   4.272  11.642  0.0293 -0.2178 -0.2139
41204SOL    HW128423   9.732   4.274  11.607 -0.1168 -0.4294  0.1482
41204SOL    HW228424   9.849   4.364  11.640  0.2710 -0.2903 -1.4988
41205SOL     OW28425   0.459   8.488   8.699  0.1083  0.7868  0.2219
41205SOL    HW128426   0.471   8.443   8.616  1.6255  1.6303 -0.0428
41205SOL    HW228427   0.547   8.515   8.725 -0.3724  0.8223  1.9495
41206SOL     OW28428  12.481   6.527   3.685 -0.3207  0.6505  0.6634
41206SOL    HW128429  12.504   6.536   3.778  2.8366 -0.9211  0.1753
41206SOL    HW228430  12.565   6.525   3.640 -1.7387  0.5190 -2.1972
41207SOL     OW28431   1.175   8.538   4.499 -0.0212 -0.4582 -0.2608
41207SOL    HW128432   1.175   8.606   4.566  1.0707 -0.9043  0.2105
41207SOL    HW228433   1.172   8.456   4.548  2.7623 -0.8600 -0.6175
41208SOL     OW28434   4.395  12.364   3.818 -0.2989  0.0328  0.1452
41208SOL    HW128435   4.434  12.293   3.869  0.6646 -0.0069 -0.6188
41208SOL    HW228436   4.450  12.370   3.740 -1.4199  0.4526 -0.6318
41209SOL     OW28437  11.701   2.531   2.949  0.1527 -0.2298 -0.3671
41209SOL    HW128438  11.722   2.589   3.022 -0.3025 -0.1121 -0.3273
41209SOL    HW228439  11.746   2.569   2.873  3.8017 -2.3153  0.4645
41210SOL     OW28440   0.991   6.357   0.942 -0.0153 -0.1433 -0.0862
41210SOL    HW128441   1.017   6.446   0.965  0.7532 -0.2153 -0.6510
41210SOL    HW228442   1.039   6.337   0.863 -1.0035 -0.6825 -0.5767
41211SOL     OW28443   9.730   9.189   2.705 -0.3905  0.2716 -0.8134
41211SOL    HW128444   9.749   9.258   2.642  1.0359 -0.7628 -1.5698
41211SOL    HW228445   9.771   9.111   2.668  0.4804 -0.3779  1.3547
41212SOL     OW28446   3.516   8.173   0.749 -0.9070 -0.5747  0.2239
41212SOL    HW128447   3.433   8.160   0.704  0.2390  1.0159 -2.6243
41212SOL    HW228448   3.522   8.268   0.762  0.2523 -0.7073  0.8115
41213SOL     OW28449   5.997   6.689   4.652  0.1583  0.1698  0.3543
41213SOL    HW128450   6.087   6.708   4.625  0.1130  0.6493  0.5324
41213SOL    HW228451   5.968   6.619   4.592  0.7103 -0.1222  0.4249
41214SOL     OW28452   7.349   8.702   3.695 -0.3440 -0.6716 -0.5127
41214SOL    HW128453   7.378   8.783   3.654 -0.6205 -0.2210  0.1604
41214SOL    HW228454   7.429   8.651   3.707  0.1314  0.3301  0.8304
41215SOL     OW28455   6.826  10.239   4.069 -0.1664 -0.7681  0.8293
41215SOL    HW128456   6.917  10.215   4.088 -0.0873  0.4663  2.1852
41215SOL    HW228457   6.825  10.256   3.974  1.0198 -0.7429  0.8082
41216SOL     OW28458   9.104  11.149   5.833 -0.0924 -0.3052 -0.0251
41216SOL    HW128459   9.195  11.157   5.804  0.3447 -1.6284  0.8954
41216SOL    HW228460   9.078  11.061   5.807 -1.1771  0.1012 -0.3825
41217SOL     OW28461   3.862   0.223   9.692 -0.1650  0.1961  0.5564
41217SOL    HW128462   3.780   0.237   9.740 -1.0105 -0.0274 -0.7691
41217SOL    HW228463   3.896   0.140   9.726  0.2622  0.9570  2.0989
41218SOL     OW28464   8.677   3.086   9.136  0.3495  0.0735  0.0961
41218SOL    HW128465   8.730   3.008   9.151  0.5513 -0.2646 -2.0723
41218SOL    HW228466   8.638   3.105   9.221  3.2008 -0.1751  1.5925
41219SOL     OW28467   9.359   9.643   7.748 -0.1812  0.2779  0.3034
41219SOL    HW128468   9.275   9.631   7.792 -0.8791  2.1525 -0.4362
41219SOL    HW228469   9.336   9.678   7.662  1.1830 -2.5702 -1.3849
41220SOL     OW28470   0.023  11.691   2.814 -0.3062  0.0005 -0.2520
41220SOL    HW128471   0.038  11.659   2.903 -0.5496  0.0861 -0.1813
41220SOL    HW228472  -0.072  11.685   2.802 -0.0962 -2.0801 -1.2685
41221SOL     OW28473  12.163   8.495   0.243  0.5720 -0.4604  0.4315
41221SOL    HW128474  12.223   8.524   0.313  1.2551  1.0591 -0.7363
41221SOL    HW228475  12.137   8.407   0.270  0.3361  0.2866  2.9101
41222SOL     OW28476   2.519  10.638   4.951  0.2763  0.0378  0.7390
41222SOL    HW128477   2.452  10.644   4.883 -0.5590 -1.5175  1.3657
41222SOL    HW228478   2.533  10.544   4.963  2.7340  0.3081  0.5238
41223SOL     OW28479   4.548   5.060   3.842 -0.0862 -0.0297  0.2984
41223SOL    HW128480   4.486   5.067   3.770  0.1329 -1.7831 -0.1163
41223SOL    HW228481   4.622   5.012   3.805  1.9745  2.7069  0.5399
41224SOL     OW28482  11.984   9.081   3.175 -0.1898  0.4152 -0.4408
41224SOL    HW128483  12.061   9.101   3.122 -0.7340  0.8014 -1.0966
41224SOL    HW228484  11.963   8.990   3.154  1.8420 -0.7448  1.9871
41225SOL     OW28485   5.009   5.804   9.551  0.1599  0.5043  0.2858
41225SOL    HW128486   5.036   5.855   9.474  0.5918  2.1347  1.4575
41225SOL    HW228487   5.014   5.866   9.623 -1.4327 -0.6572  1.4558
41226SOL     OW28488  11.251   1.433   0.678  0.3427  0.0897 -0.0832
41226SOL    HW128489  11.282   1.394   0.597  0.5907  0.2447 -0.0639
41226SOL    HW228490  11.293   1.381   0.747 -1.4186 -1.3288 -0.0169
41227SOL     OW28491  10.760   0.488   7.653  0.6570 -0.1994 -0.0178
41227SOL    HW128492  10.749   0.526   7.740  1.7624  3.6359 -1.3377
41227SOL    HW228493  10.838   0.434   7.659  0.8337  0.1792  1.3199
41228SOL     OW28494   0.290   6.396   8.817  0.1997 -0.2638  0.1004
41228SOL    HW128495   0.207   6.439   8.796 -0.0516 -1.3248 -1.1919
41228SOL    HW228496   0.349   6.467   8.841 -1.5809  0.3963  3.0381
41229SOL     OW28497   8.458   5.660   5.754  0.0687 -0.1511  0.5393
41229SOL    HW128498   8.363   5.669   5.747  0.0980  0.7972  1.1809
41229SOL    HW228499   8.486   5.640   5.665 -0.7621 -0.8445  0.4164
41230SOL     OW28500   1.874   2.939   7.268  0.4723 -0.0500  0.1019
41230SOL    HW128501   1.854   3.031   7.248 -0.9777  0.1879  2.2958
41230SOL    HW228502   1.887   2.937   7.363 -0.9897 -2.3074  0.3386
41231SOL     OW28503  12.560   5.961   9.678 -0.2019 -0.3512  1.1505
41231SOL    HW128504  12.628   5.894   9.674  0.2964  0.1644 -2.0016
41231SOL    HW228505  12.478   5.913   9.672  0.1761 -0.8367 -2.9511
41232SOL     OW28506   7.118   8.562   4.653 -0.4549  0.1617  0.2039
41232SOL    HW128507   7.130   8.543   4.746  0.8886 -2.1638 -0.3635
41232SOL    HW228508   7.207   8.565   4.617 -0.9556  0.7840 -1.0576
41233SOL     OW28509   7.378   1.401   0.436 -0.4987  0.0998  0.3244
41233SOL    HW128510   7.395   1.495   0.426  1.0814 -0.2017 -0.2011
41233SOL    HW228511   7.381   1.367   0.346  0.8445 -0.7079  0.6413
41234SOL     OW28512   3.116   0.797   2.525 -0.1323  0.1359 -0.1218
41234SOL    HW128513   3.041   0.829   2.575 -1.2475 -1.6256 -0.5551
41234SOL    HW228514   3.104   0.832   2.437  0.6761  1.4938  0.2832
41235SOL     OW28515   1.199  11.163  10.605  0.7102 -0.2637  0.1559
41235SOL    HW128516   1.263  11.092  10.601  0.5097 -0.4574  0.3426
41235SOL    HW228517   1.158  11.153  10.691 -0.2450 -0.7317 -0.3320
41236SOL     OW28518   7.269  12.407  10.114  0.4052 -0.2872 -0.2684
41236SOL    HW128519   7.365  12.409  10.109  0.4081  0.0015 -0.1408
41236SOL    HW228520   7.246  12.494  10.146  0.1599 -0.6529  0.5822
41237SOL     OW28521  10.137  10.044   0.279 -0.6064 -0.1679  0.1134
41237SOL    HW128522  10.096  10.064   0.363  0.5062  2.8226  0.0671
41237SOL    HW228523  10.107   9.955   0.258 -2.2133 -0.3843  2.8496
41238SOL     OW28524   8.326  10.965   6.378  0.4230 -0.2287  0.3700
41238SOL    HW128525   8.347  11.030   6.311 -0.4367  1.0577  1.2958
41238SOL    HW228526   8.350  11.007   6.461  0.3672 -1.3216  0.9645
41239SOL     OW28527   6.889   8.045   4.680 -0.7125 -0.2036  0.2782
41239SOL    HW128528   6.882   7.991   4.758  1.2800 -0.0683  0.6169
41239SOL    HW228529   6.957   8.002   4.627 -0.3948  0.9490 -0.2881
41240SOL     OW28530   7.872   6.503   8.711  0.0728  0.1160  0.1594
41240SOL    HW128531   7.826   6.563   8.652 -1.7688 -1.3882 -0.0207
41240SOL    HW228532   7.861   6.416   8.671  2.6267 -0.4169  0.4256
41241SOL     OW28533   2.882  10.563  11.168 -0.1526 -0.4062  0.3041
41241SOL    HW128534   2.933  10.618  11.108  0.0598  0.2695  1.0837
41241SOL    HW228535   2.925  10.574  11.253 -1.5008  0.0510  0.9513
41242SOL     OW28536  10.336   2.142   0.120 -0.3781 -0.4741 -0.6160
41242SOL    HW128537  10.415   2.133   0.067  0.1852  0.0590  0.1107
41242SOL    HW228538  10.316   2.053   0.150  0.1338 -0.5678 -0.5460
41243SOL     OW28539   0.899   3.958   4.070  0.1684 -0.3718 -0.5175
41243SOL    HW128540   0.855   3.878   4.099 -0.6724 -0.8654 -2.8692
41243SOL    HW228541   0.828   4.014   4.039  0.9683 -0.3129 -2.4011
41244SOL     OW28542   7.454  11.314   4.343  0.0261  0.0925 -0.3525
41244SOL    HW128543   7.396  11.271   4.405  1.4270 -2.3410 -0.5992
41244SOL    HW228544   7.417  11.294   4.257 -0.0497  0.5595 -0.4311
41245SOL     OW28545   9.812   2.699   6.150 -0.4413  0.5019 -0.4716
41245SOL    HW128546   9.827   2.689   6.056 -1.4012  0.7485 -0.6627
41245SOL    HW228547   9.866   2.631   6.191  0.5725  0.8857 -1.1451
41246SOL     OW28548   7.628   3.115   0.018  0.5895  0.4461  0.0878
41246SOL    HW128549   7.654   3.201  -0.014 -0.5448  0.9480  0.4718
41246SOL    HW228550   7.610   3.065  -0.062  0.2224  0.9002 -0.1212
41247SOL     OW28551   9.295  10.466  10.953 -0.2169 -0.2880 -0.2020
41247SOL    HW128552   9.250  10.549  10.964  2.4939  1.3649 -0.6378
41247SOL    HW228553   9.319  10.440  11.042 -2.6055 -1.6474  0.1347
41248SOL     OW28554  11.962  11.500   6.378 -0.3083 -0.2937  0.3151
41248SOL    HW128555  12.053  11.507   6.350 -0.3098 -0.4673  0.2688
41248SOL    HW228556  11.952  11.569   6.444 -0.0844 -0.4215  0.4815
41249SOL     OW28557   3.695   1.419  11.070 -0.0891  0.1060 -0.1286
41249SOL    HW128558   3.608   1.384  11.089 -0.2471  0.7004  0.2677
41249SOL    HW228559   3.686   1.514  11.079  0.5687  0.1836 -0.2022
41250SOL     OW28560  10.963   9.583  12.254  0.0900  0.0418 -0.1326
41250SOL    HW128561  11.057   9.577  12.237  0.7860  1.1016  2.8214
41250SOL    HW228562  10.932   9.651  12.194  1.7152  1.3913  0.4844
41251SOL     OW28563   8.959   6.334   1.948  0.3890 -0.4074  0.2016
41251SOL    HW128564   8.929   6.421   1.976  1.7861 -0.6375  2.6778
41251SOL    HW228565   8.987   6.347   1.857 -0.4307  1.4678  0.1652
41252SOL     OW28566   6.023   0.726   0.230 -0.2198  0.1321  0.0818
41252SOL    HW128567   6.090   0.769   0.283  0.8960 -0.3509 -0.9118
41252SOL    HW228568   5.942   0.738   0.281  0.6892  0.2224  1.5800
41253SOL     OW28569   1.390   5.405   6.658 -0.3286 -0.0468  0.3086
41253SOL    HW128570   1.335   5.379   6.584 -0.6948 -0.6175  0.7683
41253SOL    HW228571   1.432   5.324   6.686  1.7827  0.5902 -0.8439
41254SOL     OW28572   6.253  11.394   2.914  0.5719  0.2579 -0.4087
41254SOL    HW128573   6.348  11.385   2.908  0.8249  1.3571  1.1845
41254SOL    HW228574   6.219  11.305   2.912  1.8312 -0.3007  1.3916
41255SOL     OW28575  11.830   0.611   9.388 -0.3231  0.0954 -0.0600
41255SOL    HW128576  11.921   0.641   9.393 -0.8246  1.8670 -0.5996
41255SOL    HW228577  11.818   0.558   9.466  1.4255 -0.9790 -0.4598
41256SOL     OW28578   8.828   8.637   2.281 -0.0354 -0.1573 -0.0541
41256SOL    HW128579   8.914   8.644   2.321 -0.2061 -0.6087  0.3971
41256SOL    HW228580   8.812   8.543   2.275 -0.2224 -0.0874 -0.7296
41257SOL     OW28581  11.754   5.116   3.141  0.4480 -0.8977 -0.5603
41257SOL    HW128582  11.796   5.099   3.057  3.2355  1.4198  0.2027
41257SOL    HW228583  11.714   5.203   3.131  0.6787 -0.6583  0.4494
41258SOL     OW28584   0.553   9.927   6.298 -0.7999  0.0097 -0.3684
41258SOL    HW128585   0.477   9.973   6.335  0.2293  0.6200  1.1010
41258SOL    HW228586   0.535   9.923   6.204 -1.1565  3.1212 -0.5466
41259SOL     OW28587   9.008   6.754   9.833 -0.5490 -0.1127 -0.2604
41259SOL    HW128588   9.041   6.843   9.842  0.6831 -0.6132  0.3515
41259SOL    HW228589   9.030   6.729   9.743  0.9658 -0.5121  0.2008
41260SOL     OW28590   5.471  12.017  10.081  0.4901  0.4606 -0.0441
41260SOL    HW128591   5.555  12.007  10.034  0.2195  3.3084 -1.3160
41260SOL    HW228592   5.420  11.941  10.054  1.7745 -0.0163 -1.2681
41261SOL     OW28593   0.992  12.095  12.585 -0.1557  0.0885  0.2354
41261SOL    HW128594   1.077  12.105  12.627  0.8748 -1.8461 -1.2356
41261SOL    HW228595   0.978  12.177  12.538  0.6488  0.6267  0.9192
41262SOL     OW28596   7.604   3.193   1.308 -0.2876 -0.4126  0.5503
41262SOL    HW128597   7.564   3.226   1.389 -0.1331  0.0683  0.4291
41262SOL    HW228598   7.683   3.148   1.337  0.4812  0.9040  0.5576
41263SOL     OW28599   6.984   0.555   1.477 -0.1021 -0.1345 -0.5817
41263SOL    HW128600   6.996   0.528   1.568  1.6312  1.2789 -0.3288
41263SOL    HW228601   7.031   0.489   1.426  0.6068  0.1290 -0.2841
41264SOL     OW28602   6.117   9.154   5.112 -0.1411 -0.1751  0.2344
41264SOL    HW128603   6.086   9.090   5.177  0.6077 -2.2526 -1.3221
41264SOL    HW228604   6.211   9.160   5.129  0.1186 -0.9864 -0.7998
41265SOL     OW28605   4.488  10.685   0.187  0.1644 -0.0378 -0.3795
41265SOL    HW128606   4.487  10.623   0.114 -0.4291  0.1568 -0.5403
41265SOL    HW228607   4.544  10.642   0.253  0.3960 -0.3853 -0.7898
41266SOL     OW28608   0.742  10.904  10.406 -0.0946 -0.2882 -0.5966
41266SOL    HW128609   0.829  10.941  10.421 -0.7511  0.8727  0.4707
41266SOL    HW228610   0.734  10.835  10.472 -0.2540  0.0659 -0.2472
41267SOL     OW28611  10.803  10.293  11.805  0.0313  0.4909 -0.1333
41267SOL    HW128612  10.751  10.283  11.885  0.1214 -0.6376 -0.2020
41267SOL    HW228613  10.872  10.354  11.829  1.0861 -1.1347  1.2143
41268SOL     OW28614  10.032  10.585   1.854  0.0251  0.2533 -0.1197
41268SOL    HW128615  10.002  10.503   1.815  3.1572 -0.9612 -0.2634
41268SOL    HW228616  10.050  10.563   1.946 -1.5091  1.5225  0.5508
41269SOL     OW28617   7.026   8.268   1.695 -0.0263  0.1012 -0.1029
41269SOL    HW128618   7.092   8.270   1.764 -0.8208 -0.3721  0.6851
41269SOL    HW228619   6.982   8.353   1.701 -1.8685 -0.9013  1.7728
41270SOL     OW28620   6.010  11.358   9.132  0.3363 -0.1877 -0.0660
41270SOL    HW128621   6.058  11.308   9.197  1.4300 -0.8556 -1.3328
41270SOL    HW228622   6.040  11.448   9.143  0.3905 -0.2670  0.4479
41271SOL     OW28623   6.244   2.866   2.823  0.1966  0.2249  0.0418
41271SOL    HW128624   6.223   2.879   2.730 -1.7687  0.4774  0.4641
41271SOL    HW228625   6.226   2.952   2.863 -0.0342 -0.1736  0.8050
41272SOL     OW28626  11.964   3.188   8.777  0.0898  0.3599  0.4565
41272SOL    HW128627  11.969   3.179   8.682 -0.2740  0.8250  0.3930
41272SOL    HW228628  11.871   3.179   8.798  0.1873  0.0858  0.7897
41273SOL     OW28629   3.879   9.622   4.332 -0.7610  0.5170  0.1730
41273SOL    HW128630   3.915   9.534   4.346 -1.0688  0.5230  1.0887
41273SOL    HW228631   3.879   9.633   4.237  2.1909  0.7611  0.1160
41274SOL     OW28632   2.158   3.105   2.949 -0.2224 -0.2371 -0.7356
41274SOL    HW128633   2.216   3.091   2.875 -0.1805 -2.4305 -0.3575
41274SOL    HW228634   2.131   3.197   2.942  1.1754  0.0885 -2.4175
41275SOL     OW28635   8.469   2.580   6.577  0.5510  0.3102  0.0455
41275SOL    HW128636   8.387   2.594   6.529  1.0091 -1.7429 -1.5131
41275SOL    HW228637   8.524   2.530   6.516  1.6278 -1.4634  2.3086
41276SOL     OW28638   0.920   1.112   0.403 -0.2059  0.0578 -0.0633
41276SOL    HW128639   0.883   1.043   0.348  0.0540 -0.7018  0.7021
41276SOL    HW228640   0.942   1.182   0.341 -1.2766 -0.1815 -0.7444
41277SOL     OW28641   6.482   0.706   9.116  0.2442 -0.1345  0.2898
41277SOL    HW128642   6.537   0.631   9.138 -1.3167 -0.9343  1.5927
41277SOL    HW228643   6.402   0.668   9.080  0.3713  1.0152 -1.3534
41278SOL     OW28644  12.065   4.537   8.913  0.5375 -0.4494  0.0449
41278SOL    HW128645  12.047   4.576   8.998 -1.0971  0.1043 -0.5182
41278SOL    HW228646  12.089   4.611   8.857 -1.3969 -0.3431 -0.7194
41279SOL     OW28647  11.694   6.061   7.650 -0.1402 -0.1117  0.0911
41279SOL    HW128648  11.747   6.106   7.715  0.0237 -0.0611 -0.0739
41279SOL    HW228649  11.728   5.971   7.650 -0.6609 -0.3157  0.6242
41280SOL     OW28650   0.792   8.161   2.421  0.3144  0.1001  0.3612
41280SOL    HW128651   0.873   8.208   2.442  1.4777 -1.2994 -0.8102
41280SOL    HW228652   0.793   8.085   2.479  0.1150 -0.2016 -0.0276
41281SOL     OW28653   1.844   0.950   2.865 -0.4417  0.3613  0.4073
41281SOL    HW128654   1.927   0.991   2.843 -0.5353  0.7587  0.7705
41281SOL    HW228655   1.778   1.018   2.849 -0.8757 -0.4242 -1.3526
41282SOL     OW28656   1.955  11.932   1.263 -0.1720  0.1869  0.0013
41282SOL    HW128657   1.905  11.850   1.260  0.5941 -0.2525 -1.3244
41282SOL    HW228658   2.043  11.906   1.291 -0.4201  0.8417  1.4795
41283SOL     OW28659   0.036   3.543   0.991  0.1879  0.0619 -0.2893
41283SOL    HW128660   0.060   3.552   0.899  1.7522  0.6003  0.1410
41283SOL    HW228661   0.118   3.518   1.035 -0.6273 -0.6440  0.8974
41284SOL     OW28662  10.245   4.612   4.666 -0.1418 -0.8571  0.2258
41284SOL    HW128663  10.325   4.560   4.671 -0.3653 -1.1751  0.5604
41284SOL    HW228664  10.220   4.609   4.573  0.1075 -0.9481  0.1613
41285SOL     OW28665   5.811   3.078  10.434 -0.2637  0.5266  0.2189
41285SOL    HW128666   5.839   3.086  10.525  0.9007 -0.4507 -0.0151
41285SOL    HW228667   5.795   3.168  10.405  0.4135  0.9372  1.0754
41286SOL     OW28668   1.903   9.440   6.915 -0.4225  0.0022 -0.4276
41286SOL    HW128669   1.837   9.509   6.917 -0.7581 -0.2388  2.8648
41286SOL    HW228670   1.854   9.361   6.890 -1.2173  0.0361  0.9065
41287SOL     OW28671   4.749  10.918   7.775 -0.0304 -0.0660  0.8522
41287SOL    HW128672   4.658  10.917   7.802  0.2150 -1.0332  1.7000
41287SOL    HW228673   4.770  11.011   7.763 -1.1893  0.1499  0.3615
41288SOL     OW28674   4.810   2.291   5.718 -0.4293  0.1680  0.1714
41288SOL    HW128675   4.800   2.379   5.753 -1.7278  0.0884  0.0330
41288SOL    HW228676   4.728   2.247   5.739  0.0102 -0.8687 -0.1874
41289SOL     OW28677   6.032   2.428   4.446  0.1254  0.0028 -0.4571
41289SOL    HW128678   6.073   2.488   4.384  0.5915 -0.2487 -0.4035
41289SOL    HW228679   6.079   2.443   4.529 -1.5408  1.4770  0.2933
41290SOL     OW28680   9.246   9.442   0.953  0.4111 -0.0455  0.0792
41290SOL    HW128681   9.190   9.474   0.882  0.8482 -2.0724 -1.2521
41290SOL    HW228682   9.188   9.438   1.029 -0.4189  0.8529 -0.4815
41291SOL     OW28683   4.430   5.941   1.985 -0.1730 -0.1645  0.2293
41291SOL    HW128684   4.411   5.895   1.903  0.2998 -0.1149  0.0890
41291SOL    HW228685   4.355   6.000   1.997 -0.1634 -0.0521 -0.2539
41292SOL     OW28686  10.949   7.172   9.780  0.2070  1.0272  0.6511
41292SOL    HW128687  11.007   7.247   9.769  1.1254  0.1521 -0.8884
41292SOL    HW228688  11.008   7.096   9.779 -0.8921  0.1417 -0.3924
41293SOL     OW28689   9.122   9.992  12.351  1.0692 -0.4637 -0.2903
41293SOL    HW128690   9.140  10.046  12.274  0.3179 -0.7727 -0.6932
41293SOL    HW228691   9.159  10.041  12.424 -1.5162  1.7707 -0.3116
41294SOL     OW28692  12.249   1.307   1.674  0.4055 -0.2420 -0.5388
41294SOL    HW128693  12.236   1.218   1.706 -1.3128 -0.4177 -1.5938
41294SOL    HW228694  12.332   1.302   1.625  1.0289 -0.8981  0.5361
41295SOL     OW28695   6.543   5.117   6.310  0.0040 -0.5086  0.3026
41295SOL    HW128696   6.489   5.054   6.357  1.0442 -1.0972  0.7266
41295SOL    HW228697   6.528   5.200   6.356 -0.5096 -0.6700  0.4305
41296SOL     OW28698   2.074   8.787   1.903 -0.1553  0.2629  0.4486
41296SOL    HW128699   2.111   8.700   1.915 -2.1657 -0.5820  0.8556
41296SOL    HW228700   2.128   8.844   1.958  1.4860 -0.6017 -0.1899
41297SOL     OW28701  11.148   8.873   1.327  0.5430 -0.1118  0.3181
41297SOL    HW128702  11.240   8.889   1.308  0.2940  0.5628 -0.4015
41297SOL    HW228703  11.103   8.952   1.297 -0.3887 -0.8871 -0.4096
41298SOL     OW28704  12.144   0.244   2.602  0.2068  0.9860 -0.8261
41298SOL    HW128705  12.116   0.309   2.666 -0.8065  0.8303 -1.0927
41298SOL    HW228706  12.233   0.271   2.578  1.0425  0.4590  1.3905
41299SOL     OW28707   2.193  10.533   6.164  0.7613 -0.2389 -0.1563
41299SOL    HW128708   2.270  10.478   6.160  1.8676  1.2105  0.4298
41299SOL    HW228709   2.219  10.608   6.218 -1.3027 -0.1019  0.7458
41300SOL     OW28710   0.546   4.768   9.246 -0.0152  0.5580 -0.0617
41300SOL    HW128711   0.613   4.833   9.226 -1.4736  2.3425  0.6461
41300SOL    HW228712   0.508   4.746   9.160  1.5704 -0.6586 -0.4981
41301SOL     OW28713   2.046   5.983   1.874  0.0426  0.4825  0.5274
41301SOL    HW128714   2.083   5.955   1.958 -0.7661  0.3703  0.8559
41301SOL    HW228715   2.042   5.903   1.822 -0.5266  0.3215  0.8035
41302SOL     OW28716  11.750   8.550   3.980  0.4148 -0.4514  0.6190
41302SOL    HW128717  11.691   8.480   3.952  0.9736 -0.3945 -0.7642
41302SOL    HW228718  11.711   8.629   3.944 -0.2133 -0.0218  2.1788
41303SOL     OW28719   0.735   7.989  11.393  0.3448  0.1155 -0.4322
41303SOL    HW128720   0.785   8.071  11.400  0.6815 -0.2069  1.3306
41303SOL    HW228721   0.798   7.921  11.414 -0.7921 -0.2934  1.9788
41304SOL     OW28722   1.769   9.213  12.203  1.3750 -0.3594 -0.1891
41304SOL    HW128723   1.750   9.126  12.169  1.5359 -1.0288  1.3469
41304SOL    HW228724   1.688   9.262  12.191  1.2628 -0.7350 -1.0054
41305SOL     OW28725   9.901   5.313  11.386 -0.1672 -0.4379 -0.2176
41305SOL    HW128726   9.840   5.387  11.379  0.5825  0.1096 -1.1613
41305SOL    HW228727   9.871   5.251  11.320 -1.3612 -1.4311  1.2004
41306SOL     OW28728   6.398   1.002   8.862  0.0889  0.0558  0.1263
41306SOL    HW128729   6.350   1.032   8.785  1.3289  0.9117 -0.3501
41306SOL    HW228730   6.451   0.928   8.830 -0.2533 -0.3370  0.4480
41307SOL     OW28731   7.918   5.232   5.163  0.4895  0.3711  0.0780
41307SOL    HW128732   8.002   5.219   5.208  0.8878 -1.0184 -0.9868
41307SOL    HW228733   7.911   5.327   5.153  0.5648  0.7092  2.6528
41308SOL     OW28734   9.516   8.346   5.354  0.0489 -0.2544 -0.3351
41308SOL    HW128735   9.427   8.310   5.349 -0.5051  1.2158 -2.5778
41308SOL    HW228736   9.517   8.396   5.435 -1.5146  0.4797 -0.7382
41309SOL     OW28737  11.605  12.624  11.807 -0.4719  0.3653  0.2919
41309SOL    HW128738  11.604  12.683  11.883 -2.0115  0.0637  0.5516
41309SOL    HW228739  11.630  12.539  11.843  0.1909  0.5237  0.2057
41310SOL     OW28740   2.741   2.632   1.353 -0.6078 -0.1466  0.0291
41310SOL    HW128741   2.749   2.568   1.424 -0.3481  0.3721  0.4779
41310SOL    HW228742   2.678   2.593   1.292 -0.1925 -0.9759  0.1241
41311SOL     OW28743   6.941   4.176   9.291 -0.1897  0.2419  0.5222
41311SOL    HW128744   7.011   4.167   9.356 -1.0492 -1.6632  1.2474
41311SOL    HW228745   6.899   4.259   9.312  0.8141  0.6160  1.1226
41312SOL     OW28746   5.426   0.678  11.811  0.0861 -0.0174 -0.0021
41312SOL    HW128747   5.480   0.604  11.840 -0.3857 -0.0830  0.7157
41312SOL    HW228748   5.336   0.652  11.833 -0.1382  0.5373 -0.2495
41313SOL     OW28749  10.214   6.563   1.580  0.1260 -1.6194 -1.0170
41313SOL    HW128750  10.189   6.610   1.659  0.5128 -0.3764 -1.6034
41313SOL    HW228751  10.131   6.543   1.537 -0.0124  0.4612 -1.8187
41314SOL     OW28752   6.020   1.407   2.790 -0.9727 -0.8425 -0.3733
41314SOL    HW128753   5.991   1.343   2.725  2.1580 -2.4854 -0.3475
41314SOL    HW228754   6.096   1.449   2.751 -0.9391  0.4813  0.9885
41315SOL     OW28755   9.392   3.278  11.688  0.0102  0.4342 -0.5996
41315SOL    HW128756   9.483   3.257  11.709 -0.4725 -2.6198 -1.0645
41315SOL    HW228757   9.391   3.286  11.593  0.3845  4.3702 -0.4283
41316SOL     OW28758   0.208   6.293  11.837 -0.4195  0.4783 -0.9205
41316SOL    HW128759   0.293   6.303  11.793  0.5569 -0.5484  0.6413
41316SOL    HW228760   0.160   6.232  11.781  0.7869 -0.7780 -0.6616
41317SOL     OW28761   6.879   6.409   9.613 -0.2757  0.0385 -0.1272
41317SOL    HW128762   6.866   6.314   9.610 -3.4847  0.3987 -0.4891
41317SOL    HW228763   6.885   6.429   9.706  0.4619 -0.4931 -0.0497
41318SOL     OW28764  11.456   8.803   9.049 -0.2320  0.2959 -0.3954
41318SOL    HW128765  11.524   8.868   9.037  0.3896 -0.2417  0.1584
41318SOL    HW228766  11.402   8.810   8.970 -0.7974  2.1719  0.1162
41319SOL     OW28767  11.661   5.443  11.666  0.3514  0.6618 -0.2852
41319SOL    HW128768  11.681   5.476  11.578  1.7693  0.3881 -0.0829
41319SOL    HW228769  11.721   5.370  11.679  0.6458  1.1315  1.1831
41320SOL     OW28770   1.080  11.547   5.924 -0.5681  0.7520  0.1068
41320SOL    HW128771   1.036  11.507   5.849 -2.0170 -1.6813  2.0727
41320SOL    HW228772   1.155  11.594   5.886  0.6717 -2.9536 -2.6620
41321SOL     OW28773  10.325   4.441  11.621  0.2392  0.3742 -0.1481
41321SOL    HW128774  10.366   4.369  11.574  0.4622  0.3541  0.0762
41321SOL    HW228775  10.249   4.402  11.665  0.4492  0.2460  0.0980
41322SOL     OW28776  11.367   6.189   2.474  0.0589  0.0782  0.6719
41322SOL    HW128777  11.439   6.243   2.443 -1.1247  1.4223  0.1447
41322SOL    HW228778  11.292   6.216   2.421 -1.3190  0.2490  2.6057
41323SOL     OW28779   5.347  11.588   9.543  0.1895 -1.1026  0.4823
41323SOL    HW128780   5.287  11.661   9.524  1.0339 -0.9221 -1.9628
41323SOL    HW228781   5.409  11.624   9.606  0.7626  0.4876 -0.8914
41324SOL     OW28782   0.080  11.842   8.036 -0.5476 -0.5473 -0.2432
41324SOL    HW128783   0.122  11.891   7.965 -1.3947  0.1087 -0.3031
41324SOL    HW228784   0.017  11.785   7.992 -2.2236  1.0071  0.0541
41325SOL     OW28785   2.120   0.545   0.224  0.4998  0.0821  0.4225
41325SOL    HW128786   2.118   0.450   0.213 -1.0714  0.1500 -0.1267
41325SOL    HW228787   2.144   0.578   0.138 -0.0765  0.2080  0.3054
41326SOL     OW28788   7.160   8.583   8.823 -0.4097 -0.0190 -0.3800
41326SOL    HW128789   7.230   8.648   8.825 -0.5637  0.1782 -1.0562
41326SOL    HW228790   7.146   8.559   8.915 -0.3147  0.8636 -0.1242
41327SOL     OW28791   7.417   8.942  10.172 -0.3915 -0.0740  0.3761
41327SOL    HW128792   7.402   9.021  10.225  1.5517 -0.0219  0.9348
41327SOL    HW228793   7.507   8.917  10.192 -0.1190 -0.9776 -1.7368
41328SOL     OW28794  10.361   4.993   5.275  0.3761 -0.1398 -0.0166
41328SOL    HW128795  10.277   4.961   5.241  0.8629  1.7349 -3.5591
41328SOL    HW228796  10.424   4.973   5.205  2.5260  0.1731  1.7287
41329SOL     OW28797   3.660   8.467   6.386  0.0456  0.3759  0.1360
41329SOL    HW128798   3.573   8.496   6.358  0.3075  0.7856 -0.2553
41329SOL    HW228799   3.666   8.377   6.354 -0.1955  0.3807  0.0746
41330SOL     OW28800   5.212   3.157   3.967 -0.1697 -0.2460  0.0017
41330SOL    HW128801   5.164   3.101   3.906 -1.1296 -0.3904  0.8515
41330SOL    HW228802   5.163   3.239   3.968 -1.2023 -0.8176  1.8240
41331SOL     OW28803   8.191   5.278  11.063  0.8510 -0.2786 -0.1478
41331SOL    HW128804   8.252   5.302  10.993  0.2419  1.3959 -0.1487
41331SOL    HW228805   8.104   5.290  11.024  0.5071  0.3175  0.7562
41332SOL     OW28806  12.470   5.864  11.800 -0.0066 -0.1051 -0.3268
41332SOL    HW128807  12.436   5.920  11.870 -1.7539  0.1131 -1.3132
41332SOL    HW228808  12.456   5.775  11.832  0.5288 -0.0077  0.2005
41333SOL     OW28809   8.994  10.047   9.552 -0.0968 -0.2041 -0.0045
41333SOL    HW128810   8.911  10.093   9.537 -0.0232  0.1468  0.6050
41333SOL    HW228811   9.039  10.101   9.617  0.5419 -0.4796 -0.2159
41334SOL     OW28812   4.293   7.046   5.935 -1.1472 -0.2254 -0.2141
41334SOL    HW128813   4.284   6.954   5.959 -2.8244 -0.1988 -0.5978
41334SOL    HW228814   4.315   7.091   6.017 -0.3769 -0.9359 -0.0167
41335SOL     OW28815   8.663   2.636   6.801  0.0825  0.3453 -0.2119
41335SOL    HW128816   8.617   2.609   6.721  0.4043 -0.3967 -0.1638
41335SOL    HW228817   8.679   2.553   6.847  0.1763  0.7416  0.4669
41336SOL     OW28818   9.581  10.629   0.822 -0.5468  0.0972  0.6001
41336SOL    HW128819   9.623  10.658   0.903 -0.1689  0.5105  0.2624
41336SOL    HW228820   9.600  10.535   0.817  0.0317  0.2101  0.6406
41337SOL     OW28821   8.988   2.020   9.089 -0.5946  0.2438 -0.2454
41337SOL    HW128822   9.068   1.969   9.085 -0.4703  0.4306 -0.1782
41337SOL    HW228823   9.003   2.094   9.029 -0.0727  1.1657  0.9777
41338SOL     OW28824   3.573   7.199   4.125 -0.0611 -0.4018  0.6542
41338SOL    HW128825   3.483   7.188   4.095  0.4026  0.2872 -1.1501
41338SOL    HW228826   3.607   7.110   4.133 -0.0829 -0.6382 -1.4444
41339SOL     OW28827  12.577   1.070  10.671 -0.2444 -0.6449 -0.0841
41339SOL    HW128828  12.485   1.087  10.688 -0.2890  1.1147 -1.6663
41339SOL    HW228829  12.587   0.976  10.681 -1.7161 -0.6287  2.1669
41340SOL     OW28830  12.041  12.425   5.589 -0.1669 -0.4576 -0.0555
41340SOL    HW128831  12.047  12.353   5.652 -0.7826  0.6729  1.3310
41340SOL    HW228832  11.947  12.446   5.585  0.0608  0.6494  0.0256
41341SOL     OW28833  10.118   5.163   2.871 -0.3817 -0.8431 -0.1202
41341SOL    HW128834  10.061   5.165   2.794  1.1012  1.0763 -1.2712
41341SOL    HW228835  10.198   5.121   2.840 -0.2526 -1.2857  0.7792
41342SOL     OW28836   7.124   1.733   9.699 -0.0461  0.3190 -0.1397
41342SOL    HW128837   7.108   1.752   9.792 -0.1770  0.4704 -0.1937
41342SOL    HW228838   7.083   1.647   9.685  0.8849 -0.1894  0.2003
41343SOL     OW28839   8.934   4.399   9.856 -0.0859  0.2661 -0.0843
41343SOL    HW128840   8.859   4.366   9.808 -0.3773  0.0902  0.4806
41343SOL    HW228841   8.923   4.494   9.857 -0.1611  0.2590 -0.2191
41344SOL     OW28842   0.226   3.509   5.475 -0.0457 -0.2617  0.3225
41344SOL    HW128843   0.130   3.514   5.474 -0.2291 -2.6021  0.8178
41344SOL    HW228844   0.246   3.429   5.427  1.6759  0.0169  0.5170
41345SOL     OW28845  12.176   1.942   8.899 -0.2125  0.3379  0.3303
41345SOL    HW128846  12.112   1.979   8.839  0.3719 -0.1217 -0.6003
41345SOL    HW228847  12.150   1.850   8.908  0.0464  0.2614  0.3066
41346SOL     OW28848   3.534   8.770   4.848  0.4317  0.3952  0.0377
41346SOL    HW128849   3.515   8.852   4.803 -3.4551  0.1773  0.9355
41346SOL    HW228850   3.593   8.723   4.789  0.5511  2.6927 -1.7799
41347SOL     OW28851  11.023   8.232   8.664 -0.5424  0.0816 -0.3079
41347SOL    HW128852  10.946   8.185   8.695  0.6258 -1.2958  0.6638
41347SOL    HW228853  11.002   8.257   8.575 -1.7322 -1.1509 -0.4008
41348SOL     OW28854   9.205   4.412   7.337  0.4537 -0.0941  0.8302
41348SOL    HW128855   9.155   4.494   7.331 -0.7868 -0.8289  0.7802
41348SOL    HW228856   9.189   4.381   7.426  2.7025  0.7806  1.5997
41349SOL     OW28857   5.121  11.327  12.540  0.0043  0.1841  0.1564
41349SOL    HW128858   5.028  11.348  12.548  0.0470 -0.2817  3.4770
41349SOL    HW228859   5.127  11.235  12.565  1.4776  0.6697  1.8283
41350SOL     OW28860  11.969   8.644   7.760  0.3251  0.6832  0.3472
41350SOL    HW128861  11.921   8.562   7.765 -0.5624  1.2292  1.0673
41350SOL    HW228862  12.060   8.619   7.776  0.1060 -0.1860  0.2999
41351SOL     OW28863   0.586   7.492  10.836 -0.7048 -0.1463  0.4552
41351SOL    HW128864   0.608   7.455  10.921 -0.4464  0.5520  0.6991
41351SOL    HW228865   0.555   7.581  10.856 -1.7752 -0.3848 -0.0671
41352SOL     OW28866   3.006  11.138   7.226  0.1885  0.0008 -0.6415
41352SOL    HW128867   2.996  11.043   7.228 -1.5126  0.1668  0.6053
41352SOL    HW228868   3.078  11.156   7.286 -1.0421 -0.3866  1.0331
41353SOL     OW28869   1.221   7.241   1.027 -0.3078 -0.1459  0.1195
41353SOL    HW128870   1.176   7.296   0.963 -0.2471  0.1227  0.3059
41353SOL    HW228871   1.177   7.156   1.021 -2.0749  0.5805  1.5483
41354SOL     OW28872   3.209   1.399  12.290  0.5553 -0.6263 -0.3826
41354SOL    HW128873   3.237   1.437  12.206 -1.7019 -0.2514 -1.0171
41354SOL    HW228874   3.268   1.324  12.303 -0.3699 -2.0252 -3.3895
41355SOL     OW28875   0.578   8.997  10.517  0.1007  0.3217  0.0136
41355SOL    HW128876   0.569   8.976  10.610  2.8375 -1.5821 -0.0161
41355SOL    HW228877   0.670   8.978  10.497 -0.2637  1.1822 -2.9782
41356SOL     OW28878   6.065  10.463   6.570 -0.3161 -0.1034 -0.2558
41356SOL    HW128879   6.035  10.479   6.659  0.7700  3.4989 -0.3395
41356SOL    HW228880   5.987  10.478   6.515 -0.8411 -1.7324  0.0019
41357SOL     OW28881   2.129   3.651   9.743 -0.2036 -0.0311  0.7872
41357SOL    HW128882   2.224   3.652   9.755 -0.3226  0.2146  1.7564
41357SOL    HW228883   2.116   3.691   9.657  0.4475  2.1804  1.6535
41358SOL     OW28884  11.315  10.121   0.048 -0.1968 -0.2338 -0.4464
41358SOL    HW128885  11.385  10.185   0.029 -0.6170 -0.4745 -3.1662
41358SOL    HW228886  11.346  10.040   0.009 -1.0020 -0.9373  0.3542
41359SOL     OW28887   2.070   6.068   7.358  0.3438  0.3037  0.0061
41359SOL    HW128888   2.099   5.979   7.379 -1.1173 -0.7577 -2.0870
41359SOL    HW228889   2.115   6.123   7.422  0.8089 -1.9725  1.7992
41360SOL     OW28890   9.879  11.547  12.416  0.1634  0.5905 -0.2820
41360SOL    HW128891   9.885  11.536  12.322 -2.8691 -1.2721 -0.3941
41360SOL    HW228892   9.841  11.634  12.427 -0.2462  0.4829 -0.8194
41361SOL     OW28893   6.658   7.763  11.489  0.4258  0.0995  0.1671
41361SOL    HW128894   6.601   7.839  11.480  0.0593 -0.2622 -0.6083
41361SOL    HW228895   6.703   7.777  11.573 -0.1131  0.8428  0.3423
41362SOL     OW28896   1.798   3.325   1.608  0.7600 -0.1756  0.0502
41362SOL    HW128897   1.746   3.318   1.688  0.6355 -2.1302 -0.1389
41362SOL    HW228898   1.784   3.241   1.563  2.9457 -0.1918 -0.7055
41363SOL     OW28899   2.107   4.293  10.420  0.0103  0.4845  0.6272
41363SOL    HW128900   2.049   4.291  10.497  0.6053  2.2539  1.1637
41363SOL    HW228901   2.194   4.277  10.456  0.2373  0.8594  0.2461
41364SOL     OW28902   0.978   1.077   6.909 -0.6949  0.3559 -0.4239
41364SOL    HW128903   0.969   1.151   6.969  0.2680 -2.0147  2.9043
41364SOL    HW228904   1.072   1.059   6.907 -0.9518 -1.0793 -0.7276
41365SOL     OW28905  10.277   1.302  12.617  0.8011  0.2920  0.2240
41365SOL    HW128906  10.292   1.255  12.535 -1.0382  0.5984 -0.3484
41365SOL    HW228907  10.234   1.384  12.590  0.4857  0.5599  1.4617
41366SOL     OW28908   1.436   7.155   5.444  0.0179 -0.2740 -0.4301
41366SOL    HW128909   1.493   7.078   5.439 -0.5111 -0.7206  0.2287
41366SOL    HW228910   1.491   7.224   5.481 -0.3900 -1.2657  2.2172
41367SOL     OW28911   0.373   8.726   3.520 -0.5534  0.4131 -0.4477
41367SOL    HW128912   0.462   8.763   3.518 -0.6871  0.7066 -0.9919
41367SOL    HW228913   0.380   8.646   3.468 -0.1859 -0.5443  0.9876
41368SOL     OW28914   6.028   9.233   8.659  0.2481  0.2729  0.3535
41368SOL    HW128915   6.025   9.318   8.616  0.2564  0.8774  1.4887
41368SOL    HW228916   5.938   9.219   8.689 -0.0742 -0.7927 -1.0493
41369SOL     OW28917   4.403   7.366   0.026 -0.0869 -0.4653  0.5460
41369SOL    HW128918   4.316   7.396   0.001 -0.1936 -1.6994 -0.7174
41369SOL    HW228919   4.388   7.306   0.099 -0.2279 -0.2265  0.7151
41370SOL     OW28920   1.429   7.417   9.262 -0.1886 -0.4009 -0.2303
41370SOL    HW128921   1.454   7.399   9.353 -1.5229 -1.3701 -0.0221
41370SOL    HW228922   1.370   7.492   9.268 -0.8850 -0.9407 -0.1907
41371SOL     OW28923  11.422   7.599  10.128 -0.0502 -0.3578  0.0009
41371SOL    HW128924  11.368   7.521  10.117  1.4240 -1.3513 -0.5368
41371SOL    HW228925  11.473   7.604  10.047  1.4156 -0.0892  0.8941
41372SOL     OW28926   0.099   7.725   8.916 -0.1022 -0.1436 -0.5863
41372SOL    HW128927   0.039   7.652   8.935  0.0052 -0.6812 -2.2047
41372SOL    HW228928   0.152   7.695   8.843  2.6629  0.0533  1.1876
41373SOL     OW28929  11.589   5.358   6.852 -0.2059 -0.2318  0.4367
41373SOL    HW128930  11.520   5.311   6.806 -1.9710  1.9659  0.6615
41373SOL    HW228931  11.567   5.349   6.944  1.2202 -1.4836  0.7080
41374SOL     OW28932   5.075   8.294   0.645  0.2122 -0.0715 -0.7138
41374SOL    HW128933   5.127   8.227   0.690  2.5781  0.3228 -2.6319
41374SOL    HW228934   5.066   8.261   0.556 -0.6741  1.0633 -1.0665
41375SOL     OW28935   9.324   1.837   1.244 -0.3189  0.2698 -0.4019
41375SOL    HW128936   9.326   1.881   1.329 -1.5973 -0.7159  0.1791
41375SOL    HW228937   9.386   1.764   1.253 -0.6507  0.0073 -0.2089
41376SOL     OW28938  10.755   6.467   6.535  0.4491 -0.5069 -0.3654
41376SOL    HW128939  10.695   6.393   6.545  3.0830 -2.6305  1.0272
41376SOL    HW228940  10.820   6.436   6.471  3.2255 -0.6998  2.3443
41377SOL     OW28941   6.823   9.027   7.914 -0.4494 -0.2036  0.4554
41377SOL    HW128942   6.731   9.012   7.934 -0.2158  0.1037  1.8406
41377SOL    HW228943   6.846   9.105   7.964  0.7792 -0.7586  0.7828
41378SOL     OW28944   5.783  12.200   5.582 -0.3094  0.1536 -0.2449
41378SOL    HW128945   5.879  12.202   5.582 -0.3094  0.6617  0.3495
41378SOL    HW228946   5.759  12.187   5.491  0.3313 -0.3218 -0.3509
41379SOL     OW28947   2.761   6.084   1.569  0.5736  0.5670  0.1729
41379SOL    HW128948   2.684   6.141   1.563  1.2657  1.6221  0.9632
41379SOL    HW228949   2.792   6.077   1.479 -0.4417  0.1266 -0.1543
41380SOL     OW28950  10.390   7.123   3.636 -0.0923  0.1065  0.4842
41380SOL    HW128951  10.428   7.074   3.708  0.0305  0.3593  0.5910
41380SOL    HW228952  10.320   7.175   3.676 -1.2246 -1.0987  0.1371
41381SOL     OW28953   8.670  10.736   6.137 -0.0331  0.0971 -0.0252
41381SOL    HW128954   8.691  10.735   6.230 -1.4922  0.0818  0.3321
41381SOL    HW228955   8.641  10.826   6.120 -0.0605  0.0220 -0.3809
41382SOL     OW28956   6.757   4.262  12.442  0.0113  0.1725  0.0333
41382SOL    HW128957   6.777   4.340  12.390 -0.9121  1.5001  1.5804
41382SOL    HW228958   6.747   4.192  12.378  0.4948  1.3912 -1.4300
41383SOL     OW28959   1.294   3.663   2.377 -0.0530 -0.1690  0.6016
41383SOL    HW128960   1.311   3.706   2.293  0.2723 -0.3944  0.5511
41383SOL    HW228961   1.203   3.683   2.396 -0.7364 -1.8365 -0.7871
41384SOL     OW28962   9.383  11.357  11.969  0.6120 -0.1062  0.8962
41384SOL    HW128963   9.420  11.277  11.933  1.1532  0.5342 -0.0247
41384SOL    HW228964   9.346  11.403  11.893  0.8232  0.7756  1.3099
41385SOL     OW28965   4.103   4.438   2.473  0.2586  0.1952 -0.2447
41385SOL    HW128966   4.180   4.481   2.509  2.3811 -1.9390 -1.8694
41385SOL    HW228967   4.087   4.364   2.532  0.2368 -0.0859 -0.6018
41386SOL     OW28968   8.198   0.523   3.181 -0.2564  0.1546 -0.0429
41386SOL    HW128969   8.192   0.428   3.185  1.0937  0.0318 -0.4517
41386SOL    HW228970   8.199   0.551   3.272  0.6672 -0.3385  0.1106
41387SOL     OW28971   0.847  12.295   8.961  0.0275  0.3309 -0.2979
41387SOL    HW128972   0.827  12.337   8.877 -2.1879  0.9176  0.4555
41387SOL    HW228973   0.792  12.217   8.962  0.1509  0.2462  0.5445
41388SOL     OW28974  10.260   6.732   6.104  0.5850 -0.0538 -0.0189
41388SOL    HW128975  10.331   6.674   6.073  0.9645  0.0039  0.7161
41388SOL    HW228976  10.224   6.686   6.180  0.2259  0.2021 -0.0365
41389SOL     OW28977   1.304   6.132   6.318 -0.0949 -0.1977 -0.0434
41389SOL    HW128978   1.298   6.068   6.389 -1.4585  0.5826  0.6058
41389SOL    HW228979   1.238   6.198   6.340  0.8229  1.1069 -1.0119
41390SOL     OW28980   1.729   5.541   8.658 -0.0187 -0.1977 -0.3007
41390SOL    HW128981   1.778   5.460   8.653 -0.2023 -0.3120 -0.2609
41390SOL    HW228982   1.795   5.608   8.677 -0.1633 -0.7046  2.4686
41391SOL     OW28983   3.281   8.551   9.539 -0.7687  0.3292 -0.0040
41391SOL    HW128984   3.346   8.593   9.594 -0.6569  1.1278 -0.7292
41391SOL    HW228985   3.220   8.621   9.515 -0.9015 -0.0352 -0.7676
41392SOL     OW28986   2.731   0.495  12.300  0.5272 -0.4621  0.4585
41392SOL    HW128987   2.745   0.478  12.207 -1.1904 -1.9277  0.4214
41392SOL    HW228988   2.815   0.531  12.330  0.7620  1.1162 -1.8592
41393SOL     OW28989  11.715  11.144   5.636  0.6596  0.7491  0.0678
41393SOL    HW128990  11.771  11.088   5.690 -0.8786  0.2037  1.1754
41393SOL    HW228991  11.701  11.094   5.556  0.2544  0.0451  0.5646
41394SOL     OW28992   3.115   7.768   1.728 -0.3468  0.5547  0.1980
41394SOL    HW128993   3.191   7.718   1.699 -0.5784 -0.0245  0.5785
41394SOL    HW228994   3.102   7.834   1.659 -1.9156 -1.8133 -1.9638
41395SOL     OW28995  10.742   6.476   1.522 -0.2109  0.6701  0.2748
41395SOL    HW128996  10.650   6.502   1.527 -0.2122  0.8516 -0.6036
41395SOL    HW228997  10.747   6.398   1.578 -0.7492  1.0517  0.8665
41396SOL     OW28998  12.647   1.828   0.737  0.8920  0.2152  0.1306
41396SOL    HW128999  12.665   1.918   0.708  0.9030 -0.3616 -1.8000
41396SOL    HW229000  12.555   1.829   0.763  1.1822  1.0235  1.1859
41397SOL     OW29001   5.215   4.106   6.152 -0.6374  0.8596  0.3772
41397SOL    HW129002   5.265   4.056   6.086 -1.6956 -0.8451  0.8151
41397SOL    HW229003   5.258   4.192   6.153 -0.0837  0.7047 -1.9648
41398SOL     OW29004   6.350  10.674  12.154 -0.6451  0.4563  0.4292
41398SOL    HW129005   6.337  10.713  12.240 -1.2630 -0.1316  0.6131
41398SOL    HW229006   6.265  10.679  12.112 -0.8663 -1.0769  0.6310
41399SOL     OW29007  10.066   5.754   1.198 -0.3688  0.2111  0.2577
41399SOL    HW129008  10.078   5.848   1.183 -1.1625  0.3197  0.2348
41399SOL    HW229009  10.071   5.744   1.293  0.4191  0.1635  0.2182
41400SOL     OW29010   6.716  11.596   4.963 -0.0904 -0.2356  0.4747
41400SOL    HW129011   6.747  11.666   5.020 -0.8410  0.7007 -0.2433
41400SOL    HW229012   6.695  11.524   5.023 -0.3661  0.5461  1.3373
41401SOL     OW29013   1.303  10.029   2.898  0.5823  0.2480  0.0820
41401SOL    HW129014   1.210  10.006   2.905  1.1497 -1.9490  1.9566
41401SOL    HW229015   1.334   9.982   2.820  0.5501 -0.9939  0.7801
41402SOL     OW29016   9.500   5.109   2.655 -0.0527  0.3903  0.2622
41402SOL    HW129017   9.451   5.183   2.621 -0.2827  0.3873  0.5815
41402SOL    HW229018   9.537   5.140   2.738  0.0167  0.2105  0.2993
41403SOL     OW29019   2.996   4.492   9.999 -0.1712  0.2418  0.0325
41403SOL    HW129020   3.085   4.478  10.029  0.2700  1.7092 -0.5176
41403SOL    HW229021   2.963   4.564  10.052 -0.4831  0.7474 -0.8332
41404SOL     OW29022   2.335  11.781  10.629 -0.4470  0.7964 -0.1238
41404SOL    HW129023   2.372  11.774  10.541 -1.9481  2.1226 -0.9114
41404SOL    HW229024   2.385  11.852  10.669  1.7879 -1.2548  0.9988
41405SOL     OW29025  10.667  10.794   6.882 -0.1187 -0.4393 -0.0007
41405SOL    HW129026  10.742  10.757   6.837  0.4312  0.2342  0.3414
41405SOL    HW229027  10.668  10.752   6.969 -1.1656 -1.7228 -0.5794
41406SOL     OW29028   5.940   0.854   4.657  0.1345  0.3882 -0.0992
41406SOL    HW129029   5.973   0.930   4.705 -1.0165  2.2466 -2.0435
41406SOL    HW229030   5.952   0.877   4.564 -1.7656 -1.0754 -0.7810
41407SOL     OW29031  10.640   1.825   7.498 -0.2756  0.2530 -0.1932
41407SOL    HW129032  10.646   1.920   7.500  0.8006  0.2171 -0.8505
41407SOL    HW229033  10.726   1.795   7.527 -0.7584 -0.5358  0.4938
41408SOL     OW29034  11.709   2.303  11.155  0.2484  0.3891  0.5335
41408SOL    HW129035  11.722   2.217  11.195 -1.3283 -0.1112  0.0719
41408SOL    HW229036  11.623   2.331  11.187  0.5376  1.5966  0.3088
41409SOL     OW29037   2.042  10.624  11.897 -0.3765 -0.2567 -0.1530
41409SOL    HW129038   2.124  10.606  11.944 -0.8212 -2.8833 -0.2140
41409SOL    HW229039   1.983  10.658  11.964  0.4282  0.6151  0.1271
41410SOL     OW29040   0.108   7.566   0.161  0.4060 -0.5745 -0.3611
41410SOL    HW129041   0.116   7.571   0.066  1.0552 -0.9716 -0.3348
41410SOL    HW229042   0.100   7.472   0.179  0.9127 -0.5479  0.0145
41411SOL     OW29043   4.582   6.714   3.164 -0.3885 -0.3042 -0.2035
41411SOL    HW129044   4.672   6.745   3.159 -0.8773  1.2100 -0.0160
41411SOL    HW229045   4.589   6.619   3.154  1.0704 -0.0723 -1.9104
41412SOL     OW29046  11.318   4.292   4.102 -0.0236 -0.1918 -0.2388
41412SOL    HW129047  11.367   4.317   4.024  0.9499  0.1042  0.4483
41412SOL    HW229048  11.226   4.298   4.076  0.2645  0.8695 -1.0585
41413SOL     OW29049   9.658   9.573   4.459  0.5313  0.0703  0.1354
41413SOL    HW129050   9.666   9.650   4.515 -0.6162 -0.4533  1.0632
41413SOL    HW229051   9.676   9.605   4.371  1.9777  0.9993  0.7301
41414SOL     OW29052  10.661   4.670   9.388  0.0106  0.3472  0.2139
41414SOL    HW129053  10.746   4.647   9.349  0.4501  1.0915  0.6984
41414SOL    HW229054  10.597   4.623   9.335  0.5343  1.7415 -1.7564
41415SOL     OW29055   7.157   9.608   2.972  0.2782 -0.4315 -0.2449
41415SOL    HW129056   7.237   9.557   2.984 -0.1541 -0.6646  2.2166
41415SOL    HW229057   7.183   9.699   2.987 -0.0719 -0.6240  1.8364
41416SOL     OW29058   6.713   8.171  10.441  0.5984 -0.5053 -0.1571
41416SOL    HW129059   6.734   8.084  10.475  2.2914  1.1460  3.6837
41416SOL    HW229060   6.740   8.231  10.511 -1.4798  3.0853 -2.1259
41417SOL     OW29061   2.471   6.730   5.485  0.4021  0.1396  0.4551
41417SOL    HW129062   2.462   6.654   5.542  3.3544  0.3013  1.3390
41417SOL    HW229063   2.482   6.694   5.397  0.9858 -0.4433  0.7607
41418SOL     OW29064   7.241  10.611   5.908  0.5908  0.0812 -0.2639
41418SOL    HW129065   7.293  10.578   5.981 -0.1458 -0.2689  0.1208
41418SOL    HW229066   7.301  10.667   5.859  1.0544  0.4704  0.7105
41419SOL     OW29067   5.878  11.860   5.889  0.1574  0.2480 -0.6287
41419SOL    HW129068   5.835  11.935   5.847  0.5183 -0.3402 -2.1454
41419SOL    HW229069   5.941  11.830   5.823 -1.8323 -3.0714 -1.1917
41420SOL     OW29070   7.960   2.737  10.048 -0.3957  0.1651  0.7032
41420SOL    HW129071   7.965   2.811  10.108  0.1890  0.3088  0.4817
41420SOL    HW229072   7.927   2.775   9.966 -0.7304  0.0591  0.7890
41421SOL     OW29073   1.823   0.115  11.792 -0.1400  0.3689 -0.9034
41421SOL    HW129074   1.815   0.191  11.851 -4.8768  0.8186 -1.7293
41421SOL    HW229075   1.777   0.045  11.838 -0.4120 -0.4178 -2.3362
41422SOL     OW29076   8.080   5.770   2.935 -0.1299 -0.1491 -0.3003
41422SOL    HW129077   8.110   5.777   2.844  0.8535 -2.1638 -0.1963
41422SOL    HW229078   8.094   5.678   2.958 -4.0012 -0.6708  0.6684
41423SOL     OW29079  12.398   8.424   0.885 -0.5370  0.0900  0.1019
41423SOL    HW129080  12.308   8.411   0.916 -0.0233  0.1821  1.7605
41423SOL    HW229081  12.400   8.381   0.800 -1.9768 -0.5146  0.3301
41424SOL     OW29082   6.308  11.178   1.981  0.5573  0.2935 -0.5589
41424SOL    HW129083   6.349  11.228   2.051  0.6550  0.8412 -1.0009
41424SOL    HW229084   6.357  11.202   1.902 -2.0332  2.8714 -1.5834
41425SOL     OW29085  11.518   3.553   4.853 -0.3066 -0.2659  0.3689
41425SOL    HW129086  11.441   3.498   4.835 -0.1552 -0.7230  1.0658
41425SOL    HW229087  11.539   3.593   4.769  0.0978 -1.9571 -0.3880
41426SOL     OW29088   5.688   0.259   0.172 -0.0915  0.4030  0.2643
41426SOL    HW129089   5.649   0.335   0.217  0.1926  0.9520 -0.4056
41426SOL    HW229090   5.779   0.285   0.156 -0.1678  0.1891 -0.5584
41427SOL     OW29091   2.410   5.139  10.815 -0.0246 -0.0794  0.3660
41427SOL    HW129092   2.436   5.080  10.744 -0.5411  0.1903 -0.0564
41427SOL    HW229093   2.433   5.092  10.895 -2.4209 -1.8692  0.1184
41428SOL     OW29094   7.439   2.994   6.914 -0.9833  0.4767 -0.7166
41428SOL    HW129095   7.424   3.072   6.860  0.2829  1.1214 -0.1791
41428SOL    HW229096   7.422   3.023   7.004  0.7838  0.5436 -0.3620
41429SOL     OW29097   0.019   3.216   2.539  0.5809 -0.1249  0.4863
41429SOL    HW129098  -0.046   3.246   2.476  1.7444 -2.0268 -1.7751
41429SOL    HW229099   0.021   3.121   2.529  4.7835 -0.1176 -0.8306
41430SOL     OW29100  11.363   6.148   5.282 -0.0103  0.0785  0.0948
41430SOL    HW129101  11.448   6.106   5.292  0.2395  0.7311  0.7545
41430SOL    HW229102  11.322   6.141   5.368 -0.3466  0.3725 -0.0366
41431SOL     OW29103  11.156  12.205   6.632  0.0500 -0.0778 -0.0207
41431SOL    HW129104  11.077  12.243   6.593  0.1020 -0.1220 -0.1665
41431SOL    HW229105  11.194  12.151   6.564  0.4841  0.3443 -0.1239
41432SOL     OW29106  10.866   2.268   0.521 -0.4558 -0.0243  0.3643
41432SOL    HW129107  10.770   2.268   0.518 -0.5519  0.1452  2.4083
41432SOL    HW229108  10.889   2.359   0.537  0.0794 -0.0350 -0.3007
41433SOL     OW29109  11.759   9.656   8.845 -0.0355  0.1498  0.1943
41433SOL    HW129110  11.718   9.717   8.783 -0.0784 -0.3255 -0.2447
41433SOL    HW229111  11.852   9.657   8.821 -0.0415  0.0160  0.1690
41434SOL     OW29112  11.141   5.542  11.763 -0.0388  0.5151 -0.1042
41434SOL    HW129113  11.231   5.509  11.759  0.1384  1.0841 -1.3922
41434SOL    HW229114  11.134   5.584  11.849  0.2092 -1.4572  0.9319
41435SOL     OW29115  12.001  10.715   9.441 -0.5401 -0.5446  0.6301
41435SOL    HW129116  11.947  10.645   9.405 -0.6589 -0.7470  1.1922
41435SOL    HW229117  12.020  10.687   9.530 -0.5220  0.1028  0.8360
41436SOL     OW29118   0.904  12.156  10.326 -0.0177  0.2237 -0.5789
41436SOL    HW129119   0.931  12.233  10.376 -0.0687 -0.5914  0.7371
41436SOL    HW229120   0.977  12.139  10.266  0.7919  0.2040  0.3984
41437SOL     OW29121   9.476   6.839   2.321 -0.2971  0.5363 -0.2001
41437SOL    HW129122   9.454   6.776   2.389  2.2927 -2.2085 -1.6252
41437SOL    HW229123   9.474   6.924   2.364 -1.4037 -0.7858  2.5520
41438SOL     OW29124   0.842   5.435   4.777  0.2282  0.2002  0.4392
41438SOL    HW129125   0.900   5.500   4.739  1.5213 -0.4782  1.1937
41438SOL    HW229126   0.789   5.404   4.703  0.5034  1.1443 -0.1693
41439SOL     OW29127   1.601   5.703   0.801 -0.3670  0.3022 -0.4892
41439SOL    HW129128   1.673   5.765   0.813 -0.7256  0.8642 -1.2409
41439SOL    HW229129   1.627   5.650   0.725 -0.7050  0.4434 -0.7029
41440SOL     OW29130   9.773   5.221   3.716 -0.1436  0.0866  0.0429
41440SOL    HW129131   9.730   5.151   3.667  0.9897 -0.0028 -0.8612
41440SOL    HW229132   9.703   5.284   3.734 -0.8947 -0.6250 -0.3293
41441SOL     OW29133   5.775   0.643   9.164  0.1212  0.6488 -0.1565
41441SOL    HW129134   5.859   0.640   9.119  0.0239  1.3348 -0.3929
41441SOL    HW229135   5.711   0.628   9.094  0.0995 -1.5169  0.2687
41442SOL     OW29136   5.111   7.483  10.116 -0.1989  0.2818 -0.1370
41442SOL    HW129137   5.193   7.440  10.094 -0.4349  0.7913 -2.1776
41442SOL    HW229138   5.049   7.454  10.049 -2.0865 -1.0633  2.0394
41443SOL     OW29139   9.666   1.286   1.146  0.1569 -0.0947  0.3516
41443SOL    HW129140   9.708   1.266   1.062 -1.3348  1.1849 -0.7627
41443SOL    HW229141   9.666   1.381   1.151 -1.2427 -0.0984  1.0180
41444SOL     OW29142   9.459   1.675   8.486 -0.5156 -0.1359 -0.1442
41444SOL    HW129143   9.368   1.695   8.461 -0.6518 -0.4157  0.1278
41444SOL    HW229144   9.462   1.580   8.493 -0.5430 -0.0671  1.1058
41445SOL     OW29145   4.645   7.924   5.210 -0.4151 -0.3122 -0.2890
41445SOL    HW129146   4.629   7.879   5.293  0.7044 -0.8231 -0.3441
41445SOL    HW229147   4.557   7.949   5.180 -0.8100  0.1467  1.1855
41446SOL     OW29148  10.324   1.396   3.199  0.1312 -0.4070  0.0999
41446SOL    HW129149  10.268   1.351   3.136  2.0338 -0.5916 -1.5702
41446SOL    HW229150  10.371   1.326   3.244  1.2729 -0.2127 -0.7435
41447SOL     OW29151   3.349   6.947   3.508 -0.1470  1.0149 -0.4271
41447SOL    HW129152   3.352   6.898   3.426  1.6918 -0.8469  0.6539
41447SOL    HW229153   3.426   7.004   3.505  2.2961 -1.8278  1.4434
41448SOL     OW29154   7.011   0.464   6.673  0.0070  0.1190 -1.1997
41448SOL    HW129155   6.947   0.420   6.617 -0.6755  0.5759 -0.8030
41448SOL    HW229156   7.078   0.495   6.612 -0.1619 -0.3444 -1.6303
41449SOL     OW29157   9.115   7.745   5.443 -0.6555  0.3326 -0.4441
41449SOL    HW129158   9.036   7.736   5.497 -2.1926 -0.6953 -2.7355
41449SOL    HW229159   9.143   7.655   5.427  0.4483  0.6684 -0.4297
41450SOL     OW29160   9.913  11.026   4.204  0.0711 -0.2678  0.6645
41450SOL    HW129161   9.946  11.035   4.115 -0.2528 -1.7466  0.3754
41450SOL    HW229162   9.931  10.936   4.228 -0.8025 -0.1903  1.7066
41451SOL     OW29163   8.931   5.291   2.605 -0.3733 -0.1956  0.1662
41451SOL    HW129164   8.903   5.309   2.515 -0.4541 -0.2090  0.1892
41451SOL    HW229165   8.852   5.304   2.658 -0.5059 -0.8939  0.1486
41452SOL     OW29166   2.113   2.640   1.148 -0.0545  0.3104 -0.4711
41452SOL    HW129167   2.199   2.681   1.142 -0.5194  1.5065  0.5270
41452SOL    HW229168   2.131   2.546   1.148  1.0401  0.4475 -2.8910
41453SOL     OW29169   1.912  12.486   2.800  0.4034 -0.4398  0.0231
41453SOL    HW129170   1.890  12.499   2.707 -0.6656 -0.9848  0.1892
41453SOL    HW229171   2.007  12.470   2.799  0.8108  1.6618 -0.7401
41454SOL     OW29172  12.250   4.908   4.272 -0.1293  0.2153 -0.6325
41454SOL    HW129173  12.250   4.896   4.366 -0.3299  0.7966 -0.5539
41454SOL    HW229174  12.341   4.893   4.246 -0.4305 -1.9526 -0.6343
41455SOL     OW29175   4.463   7.420   4.213  0.1553 -0.0927  0.2585
41455SOL    HW129176   4.498   7.434   4.125  0.6895  2.4885  0.7771
41455SOL    HW229177   4.378   7.379   4.199  0.3417  0.0211 -1.4412
41456SOL     OW29178   5.008   7.661   1.828 -0.7579  0.4142 -0.2916
41456SOL    HW129179   5.070   7.597   1.863 -1.3976  0.2850  0.6433
41456SOL    HW229180   4.945   7.609   1.779 -0.2231  0.5297 -1.1107
41457SOL     OW29181   2.366   7.994   5.228  0.4881  0.0436  0.8153
41457SOL    HW129182   2.462   7.995   5.235  0.5072  2.5594  0.9528
41457SOL    HW229183   2.350   7.991   5.134  0.6686 -1.1529  0.8096
41458SOL     OW29184   1.506  12.425   9.045 -0.7075  0.2783  0.0239
41458SOL    HW129185   1.547  12.500   9.087  1.6838 -1.5228  1.1484
41458SOL    HW229186   1.500  12.358   9.114 -0.3646 -1.4178 -1.5049
41459SOL     OW29187   0.204   0.873  11.879  0.4112  0.0891  0.0084
41459SOL    HW129188   0.154   0.884  11.960 -0.0629  0.2241 -0.3033
41459SOL    HW229189   0.220   0.962  11.848  0.0258  0.0170 -0.3955
41460SOL     OW29190   8.830  10.024  10.361  0.0869  0.5227 -0.1931
41460SOL    HW129191   8.827  10.093  10.428  0.8550  1.0201 -0.6592
41460SOL    HW229192   8.901  10.050  10.302 -0.3122 -0.1208 -0.9811
41461SOL     OW29193  10.025   6.962   5.708  0.0509  0.0320  0.4266
41461SOL    HW129194  10.033   6.922   5.795 -2.4953  0.0270  0.7505
41461SOL    HW229195  10.032   7.056   5.725 -0.0070  0.0076  0.5938
41462SOL     OW29196   1.549  11.398   4.792 -0.1049  0.0292  0.2937
41462SOL    HW129197   1.538  11.353   4.709  0.0550 -1.4651  1.0486
41462SOL    HW229198   1.517  11.487   4.776 -0.6152 -0.3938 -1.1864
41463SOL     OW29199  11.463   9.981   9.353  0.0785 -0.1161  0.8696
41463SOL    HW129200  11.512   9.949   9.429  0.2692 -0.7677  0.4778
41463SOL    HW229201  11.529   9.998   9.286  0.1251  2.2257  1.4100
41464SOL     OW29202  11.171   9.148  10.316 -0.1114 -0.1324  0.1176
41464SOL    HW129203  11.137   9.061  10.295 -3.7153  1.4631 -1.5001
41464SOL    HW229204  11.095   9.196  10.347  1.4085  2.8923 -0.5166
41465SOL     OW29205   2.186   8.941   0.569  0.3791 -0.2602 -0.1510
41465SOL    HW129206   2.117   8.882   0.597 -1.5904  0.6942 -2.5952
41465SOL    HW229207   2.219   8.980   0.650 -2.0175 -0.6906  1.1119
41466SOL     OW29208  12.064  11.104   6.653  0.0338 -0.1192  0.0181
41466SOL    HW129209  12.120  11.068   6.584 -0.8812  0.0546 -0.8351
41466SOL    HW229210  12.008  11.167   6.609  0.5470  1.2439  1.2205
41467SOL     OW29211  12.648   4.968  11.681 -0.0808 -0.3781 -0.1171
41467SOL    HW129212  12.644   4.955  11.586 -0.0142 -0.1137 -0.1585
41467SOL    HW229213  12.564   5.009  11.702  0.3089  0.4957 -0.2178
41468SOL     OW29214   2.174   5.585  11.044  0.5121 -0.1847 -0.7210
41468SOL    HW129215   2.149   5.493  11.032  2.0708 -0.4715 -2.2301
41468SOL    HW229216   2.204   5.591  11.135 -0.9079 -0.8190 -0.1954
41469SOL     OW29217  11.894   8.619   5.698  0.5801 -0.4426  0.1600
41469SOL    HW129218  11.989   8.624   5.687  0.4511 -2.3760 -2.7142
41469SOL    HW229219  11.879   8.535   5.742  0.1640  0.0605  1.0209
41470SOL     OW29220   4.746   3.451  12.448 -0.0115 -0.0109 -0.0988
41470SOL    HW129221   4.753   3.495  12.532 -1.6246 -0.6474  0.3962
41470SOL    HW229222   4.702   3.368  12.467 -0.4019 -0.1686 -1.5680
41471SOL     OW29223   4.434   0.899   7.598 -0.1430  0.3211  0.1284
41471SOL    HW129224   4.466   0.819   7.639  1.3623  1.0008  0.3194
41471SOL    HW229225   4.339   0.898   7.614  0.1148 -0.5032  1.7256
41472SOL     OW29226   0.887   7.251  11.136  0.0762 -0.3935  0.5126
41472SOL    HW129227   0.899   7.273  11.228 -0.5410 -1.9297  0.9825
41472SOL    HW229228   0.891   7.156  11.133 -3.3359 -0.6583 -0.4856
41473SOL     OW29229   3.383   7.687   9.995 -0.2239  0.1699 -0.3793
41473SOL    HW129230   3.399   7.607   9.944 -1.7757 -0.1302 -0.4678
41473SOL    HW229231   3.289   7.683  10.016  0.1530  0.8286  1.5958
41474SOL     OW29232   2.880  10.089   7.304 -0.2750  0.4172  0.0226
41474SOL    HW129233   2.813  10.028   7.336  0.8726  0.1613  2.1726
41474SOL    HW229234   2.856  10.107   7.213 -2.7610 -0.3047  0.4733
41475SOL     OW29235  12.245   7.262   7.963  0.3085  0.5607  0.2553
41475SOL    HW129236  12.207   7.337   8.009 -0.3199  1.2989 -1.3911
41475SOL    HW229237  12.169   7.211   7.935  0.6139  0.7597 -0.9728
41476SOL     OW29238   5.029   7.166   2.464  0.1885  0.4666  0.6556
41476SOL    HW129239   5.049   7.181   2.556 -1.2940 -0.1938  1.1161
41476SOL    HW229240   4.971   7.090   2.463  0.7010  0.0525 -0.8887
41477SOL     OW29241  10.481   6.563   1.537  0.1067  0.2161 -0.1480
41477SOL    HW129242  10.505   6.536   1.626 -1.5993  0.1597  0.3334
41477SOL    HW229243  10.387   6.580   1.542 -0.0245  0.1943 -1.9614
41478SOL     OW29244   2.897   5.041   7.692  0.2970 -0.0495 -0.1463
41478SOL    HW129245   2.822   5.049   7.751  0.1358 -1.5110 -0.1149
41478SOL    HW229246   2.962   4.994   7.743  0.3410 -0.8835 -0.9539
41479SOL     OW29247  12.059   8.877  12.449 -0.7723 -0.1546 -0.1551
41479SOL    HW129248  12.071   8.942  12.379  0.9619 -0.0876  0.1612
41479SOL    HW229249  12.015   8.804  12.407  1.3169 -0.6252 -1.6834
41480SOL     OW29250   2.905   5.527  12.322 -0.0567  0.3350 -0.0807
41480SOL    HW129251   2.934   5.456  12.379 -1.5785  0.8319  1.4031
41480SOL    HW229252   2.975   5.537  12.258  0.7515 -1.6608  0.4133
41481SOL     OW29253   2.390   0.020   9.423  0.0804 -0.4616 -0.3116
41481SOL    HW129254   2.317  -0.040   9.431  0.1841 -0.6752 -0.9232
41481SOL    HW229255   2.351   0.104   9.398  0.0423 -0.5824 -0.6637
41482SOL     OW29256  11.881   8.988  11.674  0.3041 -0.1053  0.0273
41482SOL    HW129257  11.884   9.076  11.637 -1.5027  0.7831  1.8095
41482SOL    HW229258  11.896   8.930  11.599  1.0090  1.6876 -1.2787
41483SOL     OW29259   9.864   4.633   2.950 -0.0430 -0.3670 -0.6482
41483SOL    HW129260   9.899   4.635   3.039 -0.9328  1.1051 -0.2846
41483SOL    HW229261   9.893   4.716   2.911  0.7695 -1.2174 -1.9293
41484SOL     OW29262   3.951   1.457  10.004 -0.0496 -0.9798 -0.1406
41484SOL    HW129263   3.992   1.518   9.944  0.6192 -0.9083  0.3736
41484SOL    HW229264   3.871   1.501  10.033  1.1729  0.3619  1.3970
41485SOL     OW29265   9.985   2.227   4.355  0.2757 -0.3943 -0.5440
41485SOL    HW129266  10.032   2.267   4.282  0.9292  0.1551  0.1579
41485SOL    HW229267   9.922   2.168   4.314  1.8529 -1.4779 -1.5357
41486SOL     OW29268   2.482   8.024   7.140 -0.0477 -0.2796 -0.0491
41486SOL    HW129269   2.412   7.979   7.093  0.1518 -0.4795 -0.1593
41486SOL    HW229270   2.549   8.041   7.074 -0.0331 -0.0042  0.0355
41487SOL     OW29271   3.548  12.581   7.245 -0.4685  0.7908 -0.0296
41487SOL    HW129272   3.524  12.574   7.338  0.9233  1.9258  0.4607
41487SOL    HW229273   3.631  12.533   7.239  0.2010  1.9483 -0.3403
41488SOL     OW29274  12.132   7.483   3.887  0.3360 -0.4568 -0.1353
41488SOL    HW129275  12.082   7.546   3.834  0.9352  0.1361 -0.0211
41488SOL    HW229276  12.106   7.502   3.977 -0.2953 -1.1143 -0.1760
41489SOL     OW29277  11.792   9.433  12.591 -0.0956 -0.0726  0.3531
41489SOL    HW129278  11.723   9.433  12.524 -1.2894 -1.5470  1.5047
41489SOL    HW229279  11.860   9.491  12.556 -1.2219  0.1783 -1.5439
41490SOL     OW29280  11.961   0.067   0.565  0.1004 -0.7494  0.3808
41490SOL    HW129281  11.919  -0.014   0.595 -0.4548 -0.9230 -0.7759
41490SOL    HW229282  11.911   0.092   0.487  2.1201 -0.9274 -1.0455
41491SOL     OW29283   1.720   4.537   9.747  0.4873 -0.3613  0.3603
41491SOL    HW129284   1.714   4.606   9.813  0.5916 -1.2126  1.2723
41491SOL    HW229285   1.629   4.508   9.735  0.4495 -0.1147  0.0062
41492SOL     OW29286   6.439   1.555   7.323 -0.3864  0.0513 -0.2138
41492SOL    HW129287   6.488   1.534   7.402  2.0409  1.4341 -1.2468
41492SOL    HW229288   6.430   1.650   7.324 -0.6737  0.0518 -1.3954
41493SOL     OW29289   7.346   8.718   1.727  0.4091  0.3029 -0.3763
41493SOL    HW129290   7.437   8.689   1.736 -0.1843 -1.9710 -1.1809
41493SOL    HW229291   7.345   8.764   1.642  0.4283 -1.4557 -1.3769
41494SOL     OW29292   9.493   4.748   6.213 -0.1539 -0.0736 -0.5225
41494SOL    HW129293   9.497   4.658   6.245  0.2778 -0.5554 -1.8658
41494SOL    HW229294   9.454   4.798   6.286 -1.8403 -1.5951 -0.3118
41495SOL     OW29295   5.059   2.873   5.352  0.4706  0.4006  0.0266
41495SOL    HW129296   5.050   2.844   5.442  0.6750  0.4981  0.0804
41495SOL    HW229297   5.139   2.830   5.321  0.5483  0.5778 -0.0220
41496SOL     OW29298   0.767   8.840   8.620  0.1970 -0.4637  0.1691
41496SOL    HW129299   0.849   8.888   8.621 -0.7784  1.3209 -0.1134
41496SOL    HW229300   0.745   8.831   8.527 -1.3090  1.7185  0.2272
41497SOL     OW29301  12.296   3.619   7.331 -0.0781 -0.5304  0.0764
41497SOL    HW129302  12.326   3.531   7.354 -1.5363 -1.2616 -0.6275
41497SOL    HW229303  12.222   3.635   7.390 -0.6672 -0.3624 -0.6859
41498SOL     OW29304   6.709   4.328   1.861 -0.2387  0.0002 -0.0933
41498SOL    HW129305   6.639   4.391   1.877 -0.2555  0.0380 -0.3153
41498SOL    HW229306   6.731   4.339   1.769 -1.4847 -1.6071 -0.6135
41499SOL     OW29307   1.944   0.401   8.507 -0.1119  0.6117  0.3547
41499SOL    HW129308   1.863   0.452   8.512 -0.8728 -0.4623 -0.5714
41499SOL    HW229309   1.934   0.347   8.429  0.1916 -1.6991  1.8123
41500SOL     OW29310   0.970   1.995   6.299  0.6498  0.2037 -0.1294
41500SOL    HW129311   0.927   2.080   6.288 -0.5077 -0.1198  1.5916
41500SOL    HW229312   1.006   1.997   6.388  0.3519 -1.2022  0.0442
41501SOL     OW29313  12.189   9.104   1.644  0.6617  0.1564  0.4764
41501SOL    HW129314  12.234   9.169   1.698 -0.1891  1.3462 -0.1915
41501SOL    HW229315  12.106   9.089   1.689  0.0769  0.9295 -0.3096
41502SOL     OW29316   7.429   6.696  11.489  0.0989  0.2044  0.7569
41502SOL    HW129317   7.440   6.764  11.422  0.7823  0.4611  1.1159
41502SOL    HW229318   7.334   6.686  11.498 -0.0204 -0.7260 -1.1281
41503SOL     OW29319   3.134  12.215   9.127 -0.2822 -0.0004 -1.0130
41503SOL    HW129320   3.189  12.218   9.205 -1.0278  0.0004 -0.4648
41503SOL    HW229321   3.125  12.122   9.107 -0.8550 -0.0572 -0.5238
41504SOL     OW29322   5.606   8.429  10.740 -0.1144  0.3470 -0.0855
41504SOL    HW129323   5.544   8.363  10.772 -0.7848  0.9597 -0.0941
41504SOL    HW229324   5.691   8.386  10.745 -0.7267 -1.2736 -2.0839
41505SOL     OW29325   1.211   4.286   9.570 -0.3418 -0.3152 -0.2228
41505SOL    HW129326   1.236   4.372   9.605  0.7408 -0.5956 -0.2801
41505SOL    HW229327   1.167   4.243   9.643  1.0004 -0.5074  0.5209
41506SOL     OW29328   4.198  11.429  11.940 -0.0830  0.1925 -0.1301
41506SOL    HW129329   4.199  11.481  12.020  0.9569  0.2194 -0.1509
41506SOL    HW229330   4.130  11.470  11.886  1.0087  1.8347 -0.3259
41507SOL     OW29331   0.087   0.742   5.130  0.4192 -0.3336 -0.4790
41507SOL    HW129332   0.169   0.692   5.130  0.2534 -0.6754  1.0121
41507SOL    HW229333   0.109   0.824   5.174  0.3449  0.3229 -1.6230
41508SOL     OW29334   5.607   2.065   7.848 -0.1115 -0.5136  0.3750
41508SOL    HW129335   5.565   2.150   7.833 -0.0593 -0.1525  2.1269
41508SOL    HW229336   5.673   2.082   7.915  1.6777 -1.4310 -1.0591
41509SOL     OW29337   6.205   8.530   6.106  0.2344  0.5126  0.0622
41509SOL    HW129338   6.178   8.601   6.048  0.3117  0.5486  0.0711
41509SOL    HW229339   6.257   8.573   6.174 -0.2371  0.5412  0.4149
41510SOL     OW29340   3.737   0.552   0.088 -0.0894  0.8758  0.3503
41510SOL    HW129341   3.675   0.574   0.158  0.8483  2.4487  0.7341
41510SOL    HW229342   3.823   0.562   0.129  0.4663 -1.0286 -0.2387
41511SOL     OW29343   8.208  11.717   0.089  0.1233  0.5065  0.4877
41511SOL    HW129344   8.302  11.728   0.104  1.0310 -3.0748 -1.3844
41511SOL    HW229345   8.174  11.687   0.174  0.7735  1.2830  1.0366
41512SOL     OW29346  10.138   0.286   7.418  0.0651  0.3110 -0.0679
41512SOL    HW129347  10.207   0.352   7.428 -1.0182  1.6311 -0.9799
41512SOL    HW229348  10.057   0.337   7.417 -0.6364 -0.4899 -4.9540
41513SOL     OW29349   0.683   4.798   8.197  0.3292 -0.2518  0.1021
41513SOL    HW129350   0.647   4.714   8.167  0.9233 -0.5021  0.0804
41513SOL    HW229351   0.736   4.776   8.274 -0.4944  0.2742  0.8330
41514SOL     OW29352   6.942   4.198   0.337 -0.0509 -0.4507  0.4488
41514SOL    HW129353   6.895   4.119   0.310 -0.2354 -0.4350  0.7193
41514SOL    HW229354   7.012   4.207   0.272  1.9436 -2.6077  2.1308
41515SOL     OW29355   0.752   0.496  10.671 -0.5332  0.2569  0.2018
41515SOL    HW129356   0.666   0.537  10.664 -0.7905 -0.5956 -2.6253
41515SOL    HW229357   0.734   0.409  10.708 -0.6263  0.6994  1.2411
41516SOL     OW29358   6.678   1.402   3.523 -0.3852  0.0876  0.4964
41516SOL    HW129359   6.699   1.354   3.604 -1.4640 -0.8193  0.2680
41516SOL    HW229360   6.605   1.353   3.485 -1.6487  2.0071  0.3204
41517SOL     OW29361   9.621  10.487   2.233  0.3821 -0.1649 -0.0467
41517SOL    HW129362   9.691  10.458   2.174  0.1207  1.5914 -1.3236
41517SOL    HW229363   9.598  10.409   2.283  2.2911 -1.1303 -0.5675
41518SOL     OW29364   9.426  11.567   6.979  0.8576 -0.3129 -0.8856
41518SOL    HW129365   9.389  11.654   6.962  2.2857  0.2277 -1.3642
41518SOL    HW229366   9.517  11.574   6.950  0.5520 -2.4913 -2.5807
41519SOL     OW29367   6.027   4.649   7.017  0.3882  0.5688  0.1158
41519SOL    HW129368   5.989   4.626   6.932  1.6627  0.3423 -0.4253
41519SOL    HW229369   6.023   4.568   7.068 -0.2304  0.6612  0.2200
41520SOL     OW29370   4.751  11.831   7.974  0.1435 -0.6115  0.4103
41520SOL    HW129371   4.696  11.909   7.966  0.2860 -0.2083  2.7731
41520SOL    HW229372   4.757  11.815   8.068  2.1107 -2.0760  0.0942
41521SOL     OW29373   5.449   9.887   6.673  0.0877  0.1127 -0.5422
41521SOL    HW129374   5.422   9.856   6.587  0.8469 -0.4981 -0.5719
41521SOL    HW229375   5.505   9.963   6.655  0.2791 -0.0398 -0.5918
41522SOL     OW29376  11.521   1.253   4.693 -0.0696 -0.4456  0.4320
41522SOL    HW129377  11.548   1.276   4.604 -2.4706 -0.9988 -0.5027
41522SOL    HW229378  11.558   1.322   4.747  0.2484  0.7102 -1.1751
41523SOL     OW29379   3.223   9.249   8.640  0.4720 -0.1337  0.8526
41523SOL    HW129380   3.162   9.183   8.674 -1.9244  0.1762 -2.4015
41523SOL    HW229381   3.170   9.328   8.629  1.6733  0.4760 -1.1086
41524SOL     OW29382  10.662  12.432   7.765  0.0248 -0.4696  0.1701
41524SOL    HW129383  10.576  12.395   7.781 -0.0918 -0.2735  0.0001
41524SOL    HW229384  10.692  12.389   7.685 -0.0173 -0.3540  0.0934
41525SOL     OW29385   4.457   9.060   2.270  0.1545 -0.4872  0.0945
41525SOL    HW129386   4.444   9.129   2.334 -0.2650 -0.6703  0.2114
41525SOL    HW229387   4.549   9.068   2.244 -0.5583  2.0277 -2.1214
41526SOL     OW29388   5.637   3.644   7.909  0.0995  0.0407 -0.3513
41526SOL    HW129389   5.685   3.565   7.932 -2.2024 -1.0567  1.0326
41526SOL    HW229390   5.586   3.620   7.831 -1.2844 -0.2045  0.5822
41527SOL     OW29391   2.614   5.927  10.363 -0.5647  0.0456 -0.6853
41527SOL    HW129392   2.598   5.900  10.272  0.5324  2.2904 -1.6231
41527SOL    HW229393   2.695   5.979  10.359  1.8952 -3.0570  2.2641
41528SOL     OW29394   8.388   8.665   0.168  0.1938 -0.4981 -0.3269
41528SOL    HW129395   8.447   8.714   0.112  0.6260 -0.1253  0.4397
41528SOL    HW229396   8.369   8.585   0.119 -0.3976  0.3433 -1.5266
41529SOL     OW29397  11.543   6.751   0.477 -0.2281  0.1853  0.4059
41529SOL    HW129398  11.619   6.807   0.495 -1.0545  1.6301 -0.4477
41529SOL    HW229399  11.469   6.796   0.518 -0.8326 -0.5545  0.1504
41530SOL     OW29400  10.271   0.580   2.139 -0.4013 -0.8690 -0.2834
41530SOL    HW129401  10.250   0.645   2.071 -0.5162  1.1260  1.5285
41530SOL    HW229402  10.366   0.587   2.149 -0.5137 -0.3304  0.4964
41531SOL     OW29403  11.628   8.055   9.404  0.6474  0.3876 -0.1114
41531SOL    HW129404  11.720   8.079   9.388  0.5390  0.3817 -0.7554
41531SOL    HW229405  11.578   8.130   9.372  0.4022  0.1525 -0.2843
41532SOL     OW29406   8.911   1.032   0.523 -0.4108  0.2091 -0.0981
41532SOL    HW129407   8.896   1.125   0.541 -1.4454  0.2535 -1.0831
41532SOL    HW229408   8.831   1.003   0.481 -0.0046 -1.0897 -0.0070
41533SOL     OW29409   2.980   6.217  11.674 -0.1619 -0.7242 -0.3958
41533SOL    HW129410   2.930   6.202  11.593  1.0649 -1.6380 -1.0159
41533SOL    HW229411   3.007   6.309  11.668 -1.4470 -0.3156 -0.2123
41534SOL     OW29412  11.860   3.427   9.938 -0.2024  0.0756  0.2341
41534SOL    HW129413  11.783   3.407   9.885  0.5840  0.9368 -1.2813
41534SOL    HW229414  11.925   3.459   9.876  0.2445  2.6759  1.8647
41535SOL     OW29415   8.691   5.065  10.702  0.6266  0.3850 -0.7923
41535SOL    HW129416   8.656   5.154  10.703 -1.6491 -0.4305  1.3711
41535SOL    HW229417   8.629   5.016  10.647 -0.4703 -0.6019  1.2098
41536SOL     OW29418   4.939   6.885   1.967 -0.3235  0.3557 -0.0322
41536SOL    HW129419   4.883   6.809   1.955 -0.3150  0.3056  0.2277
41536SOL    HW229420   4.888   6.958   1.934 -0.7117  0.3706  0.5853
41537SOL     OW29421   6.567   4.611   7.584  0.8442 -0.4273  0.0838
41537SOL    HW129422   6.548   4.588   7.493 -1.4245  1.8634 -0.1355
41537SOL    HW229423   6.657   4.642   7.583  1.0145 -0.8998 -1.2701
41538SOL     OW29424   3.368   3.891  11.163  0.6790 -0.2559  0.2533
41538SOL    HW129425   3.350   3.801  11.189  1.0634 -1.0993 -2.1358
41538SOL    HW229426   3.462   3.902  11.178  0.3480  0.3514  2.1007
41539SOL     OW29427   2.974   0.490   9.682  0.3638  0.2226  0.3225
41539SOL    HW129428   3.014   0.561   9.733 -1.1660  0.4046  1.3198
41539SOL    HW229429   2.903   0.533   9.633  1.3221 -0.0887 -1.4436
41540SOL     OW29430  11.832   8.767   9.779  0.3011  0.3566 -0.2810
41540SOL    HW129431  11.822   8.672   9.781  0.2926  0.3300 -1.0590
41540SOL    HW229432  11.745   8.799   9.755 -0.0153  0.6466  1.1498
41541SOL     OW29433   7.649   5.242   0.992 -0.1218  0.3204 -0.2212
41541SOL    HW129434   7.703   5.191   1.052 -0.4941 -0.7488 -0.7608
41541SOL    HW229435   7.653   5.331   1.026  1.6507  0.2056 -0.0306
41542SOL     OW29436   7.382   7.692   9.448 -0.1421 -0.2733 -0.2002
41542SOL    HW129437   7.328   7.761   9.408 -0.6866 -1.5492 -1.8056
41542SOL    HW229438   7.471   7.713   9.421 -0.2394  0.1038 -0.2306
41543SOL     OW29439   8.033   8.308   7.232  0.1587  0.2091  0.2415
41543SOL    HW129440   7.999   8.360   7.305 -0.1382 -0.1692  0.3743
41543SOL    HW229441   8.123   8.288   7.257  0.9480  2.2606 -0.6601
41544SOL     OW29442  11.119   8.656   7.702  0.0020  0.3179 -0.5604
41544SOL    HW129443  11.111   8.660   7.607  0.1314 -0.9146 -0.6341
41544SOL    HW229444  11.137   8.746   7.728  0.6746  0.5515 -1.7694
41545SOL     OW29445   0.261   5.766  11.764  0.1735  0.6253 -0.2980
41545SOL    HW129446   0.282   5.676  11.788 -0.9120 -0.3837 -2.8749
41545SOL    HW229447   0.207   5.797  11.837  1.8300 -0.1969  1.3870
41546SOL     OW29448   7.133   1.526  12.394  0.1482 -0.0405  0.1576
41546SOL    HW129449   7.152   1.610  12.437 -0.7432  1.2650 -1.8388
41546SOL    HW229450   7.218   1.494  12.366  0.4167  0.6482  0.1662
41547SOL     OW29451  10.087   6.594  12.023 -0.1218  0.8828  0.1286
41547SOL    HW129452  10.142   6.648  12.080  2.9829 -1.8087 -0.0690
41547SOL    HW229453  10.138   6.582  11.944  0.3426 -3.7580  0.8739
41548SOL     OW29454   1.887   0.437   2.028  0.0005  0.0124 -0.5961
41548SOL    HW129455   1.949   0.510   2.020 -0.0290  0.1696  0.4345
41548SOL    HW229456   1.941   0.358   2.019  0.7427  0.0953  2.2392
41549SOL     OW29457   4.164   9.331  11.228 -0.3535 -0.2917 -1.0735
41549SOL    HW129458   4.191   9.239  11.225 -1.4004 -0.5940 -1.7503
41549SOL    HW229459   4.069   9.328  11.225 -0.4964  0.7620  0.8747
41550SOL     OW29460   8.620   2.549   3.232 -0.8702  0.1929 -0.2427
41550SOL    HW129461   8.658   2.590   3.309 -1.7583  0.2672  0.1752
41550SOL    HW229462   8.541   2.600   3.214 -0.1489  0.7998 -1.8276
41551SOL     OW29463   2.364   1.826   6.667 -0.0873  0.2986  0.1329
41551SOL    HW129464   2.455   1.809   6.644 -0.0596  0.7817 -0.1191
41551SOL    HW229465   2.363   1.916   6.698 -0.2173 -0.1854  1.5938
41552SOL     OW29466   3.104   6.679   4.727 -0.1383 -0.6956  0.1625
41552SOL    HW129467   3.098   6.592   4.766 -2.2501 -0.7317 -0.1041
41552SOL    HW229468   3.091   6.739   4.800  1.3751 -0.5660  0.3552
41553SOL     OW29469   9.841   6.237   7.594  0.1128 -0.5656 -0.1343
41553SOL    HW129470   9.934   6.250   7.574  0.0199 -2.0612 -1.7122
41553SOL    HW229471   9.819   6.152   7.557 -1.7883 -0.4819  0.6595
41554SOL     OW29472  11.578  12.407   5.068  0.3717 -0.4377 -0.1765
41554SOL    HW129473  11.665  12.368   5.061 -0.5295 -2.9154  0.9476
41554SOL    HW229474  11.537  12.392   4.983  1.4855  2.1582 -1.2622
41555SOL     OW29475   3.646   3.937  11.233  0.4641 -0.5914  0.0124
41555SOL    HW129476   3.701   3.921  11.310  0.9077  0.9292  0.0377
41555SOL    HW229477   3.705   3.929  11.159  0.7311  0.9208  0.0323
41556SOL     OW29478   8.397   0.549   9.564 -0.0760 -0.5008  0.6790
41556SOL    HW129479   8.332   0.541   9.634 -0.6691  0.4341  0.2469
41556SOL    HW229480   8.449   0.469   9.571  0.2627 -0.1485  2.5699
41557SOL     OW29481   6.730   1.461  11.669 -0.7565 -0.1718 -0.5682
41557SOL    HW129482   6.763   1.401  11.603 -0.8268 -0.4110 -0.3869
41557SOL    HW229483   6.801   1.466  11.734 -0.3503  0.6896 -1.0572
41558SOL     OW29484   2.323   7.012   5.697 -0.5480  0.1321 -0.1498
41558SOL    HW129485   2.279   7.050   5.773  3.0739  1.1708  1.6626
41558SOL    HW229486   2.334   6.920   5.720 -0.5648  0.1692  0.0096
41559SOL     OW29487  12.249   1.869   6.976 -0.3202 -0.3442 -0.3153
41559SOL    HW129488  12.330   1.819   6.964 -0.1218 -0.4095  1.1373
41559SOL    HW229489  12.253   1.937   6.910  0.5231 -0.8537 -0.8088
41560SOL     OW29490   5.731   8.997   2.923  0.1341 -0.6427 -0.0994
41560SOL    HW129491   5.726   9.071   2.861 -1.9971  1.1883  2.0830
41560SOL    HW229492   5.815   9.010   2.968  0.2573 -0.1832 -0.4486
41561SOL     OW29493   1.475   6.837   3.858  0.6446 -0.6301  0.7830
41561SOL    HW129494   1.450   6.745   3.851  0.6899 -0.6648  1.0472
41561SOL    HW229495   1.412   6.874   3.920 -0.3018 -0.1360 -0.4429
41562SOL     OW29496  12.121   8.093   9.341  0.2904 -1.0340 -0.5618
41562SOL    HW129497  12.034   8.093   9.301  0.9460 -0.5128 -2.0110
41562SOL    HW229498  12.122   8.172   9.395 -0.1035 -1.0131 -0.5790
41563SOL     OW29499   8.964   9.896   0.719 -0.1470 -0.0292 -0.1606
41563SOL    HW129500   8.964   9.857   0.806  0.3847 -0.1467 -0.2098
41563SOL    HW229501   8.914   9.835   0.664 -0.9159  0.2945  0.1656
41564SOL     OW29502   3.073   4.616  10.641  0.3755  0.0798 -0.0204
41564SOL    HW129503   3.032   4.584  10.721 -0.6847 -0.3393 -0.7118
41564SOL    HW229504   3.098   4.537  10.594 -0.2189  0.2978 -0.7111
41565SOL     OW29505   7.472   4.477  11.010  0.1387 -0.1530 -0.1872
41565SOL    HW129506   7.466   4.571  10.993  1.5910  0.1783  0.9835
41565SOL    HW229507   7.393   4.456  11.059  0.5467  0.7877  0.9002
41566SOL     OW29508   7.087   2.253   3.070 -0.5588 -0.8047  0.1358
41566SOL    HW129509   7.173   2.221   3.046 -0.1356  0.9802 -0.9574
41566SOL    HW229510   7.055   2.298   2.992 -2.7447 -1.8715  0.3243
41567SOL     OW29511   0.052  11.702   6.847 -0.2477  0.5953 -0.0803
41567SOL    HW129512  -0.041  11.716   6.859 -0.5779 -0.4811 -1.1762
41567SOL    HW229513   0.073  11.631   6.909 -0.3207  0.3400 -0.3442
41568SOL     OW29514   4.370   2.079   0.275  0.0883 -0.1208 -0.4369
41568SOL    HW129515   4.409   2.051   0.358 -0.0096  0.3433 -0.2282
41568SOL    HW229516   4.427   2.043   0.208  1.1449  0.9309 -0.1367
41569SOL     OW29517   7.888   6.228   1.089 -0.1593  0.1756  0.3105
41569SOL    HW129518   7.983   6.215   1.085 -0.2802 -0.4129 -1.2333
41569SOL    HW229519   7.851   6.148   1.051 -1.1842  1.4097 -1.4152
41570SOL     OW29520   3.845   3.717  11.733 -0.2035  0.8758 -0.6186
41570SOL    HW129521   3.866   3.709  11.826 -0.7570  1.5165 -0.4301
41570SOL    HW229522   3.871   3.806  11.710 -0.7658  0.9750 -0.8867
41571SOL     OW29523   6.978   9.160   3.788  0.2998  0.4343  0.4564
41571SOL    HW129524   7.034   9.196   3.720  0.2105  0.3198  0.3203
41571SOL    HW229525   7.032   9.157   3.867  0.9969 -1.1578 -0.0341
41572SOL     OW29526   8.624   7.012   7.879 -0.1793  0.6191 -0.4143
41572SOL    HW129527   8.704   7.041   7.924 -0.7083 -0.4805  1.3402
41572SOL    HW229528   8.553   7.042   7.935 -0.8287 -1.7210  0.1200
41573SOL     OW29529  10.640   9.651   7.853  0.2908  0.4660  0.5922
41573SOL    HW129530  10.589   9.732   7.856  1.8904  1.5119  1.3248
41573SOL    HW229531  10.628   9.619   7.763 -0.1967  1.6436  0.2118
41574SOL     OW29532   7.452   3.621   3.784 -0.2001  0.4398  0.5477
41574SOL    HW129533   7.480   3.627   3.692 -0.5295 -0.4111  0.3735
41574SOL    HW229534   7.405   3.703   3.800  0.1115  0.7245  0.0447
41575SOL     OW29535   8.842  12.489   5.639 -0.1380 -0.1801  0.0768
41575SOL    HW129536   8.936  12.488   5.654  0.3163  0.4474 -2.3761
41575SOL    HW229537   8.825  12.411   5.586 -1.3436 -1.2827  1.9608
41576SOL     OW29538   8.149   5.505   9.427 -0.2888  0.1836 -0.0882
41576SOL    HW129539   8.220   5.567   9.443  0.1095  0.3862 -2.2490
41576SOL    HW229540   8.115   5.531   9.341 -2.3193 -0.5520  0.4480
41577SOL     OW29541   4.784   5.765  10.062  0.8022  0.1346  1.2954
41577SOL    HW129542   4.800   5.755   9.968  2.4130 -0.6116  1.6139
41577SOL    HW229543   4.697   5.728  10.076  1.6116 -2.2726  0.4767
41578SOL     OW29544   4.279  12.574   9.885  0.5895  0.3260 -0.7955
41578SOL    HW129545   4.238  12.618   9.960  0.8044  0.6044 -0.8419
41578SOL    HW229546   4.286  12.642   9.818  0.7920  0.1838 -0.9179
41579SOL     OW29547   9.148   5.275   4.632  0.5809 -0.1245 -0.0261
41579SOL    HW129548   9.145   5.366   4.601  2.2267  0.0282  0.1359
41579SOL    HW229549   9.103   5.277   4.717  1.4900  0.7856  0.4628
41580SOL     OW29550   4.839  12.454   7.051 -0.7311 -0.3479 -0.1174
41580SOL    HW129551   4.921  12.485   7.013 -0.4511 -0.3920  0.4560
41580SOL    HW229552   4.778  12.452   6.976  0.4429 -2.8048 -1.1007
41581SOL     OW29553   3.506   6.077   4.511 -0.2206  0.1298  0.4165
41581SOL    HW129554   3.447   6.034   4.574  0.1805 -1.5644 -0.3195
41581SOL    HW229555   3.457   6.154   4.482 -1.5123 -0.4970  0.8489
41582SOL     OW29556  10.768   4.023   2.348 -0.3679  0.0914  0.2378
41582SOL    HW129557  10.845   4.061   2.389 -1.1514  2.2800 -0.1591
41582SOL    HW229558  10.729   3.968   2.416  0.8163  0.0363  0.8856
41583SOL     OW29559  11.239   4.375   9.828  0.4287  0.4378 -0.1743
41583SOL    HW129560  11.330   4.372   9.800  0.4590 -0.8408 -0.0335
41583SOL    HW229561  11.195   4.309   9.774 -0.0762 -0.0723  0.8202
41584SOL     OW29562   5.609   8.780   3.004 -0.1614 -0.6793 -0.2294
41584SOL    HW129563   5.662   8.850   2.966  0.8970  0.6286  3.2226
41584SOL    HW229564   5.525   8.787   2.960  0.5997  1.3677 -1.5185
41585SOL     OW29565   5.526   7.843   3.477 -0.3836 -0.4698  0.4577
41585SOL    HW129566   5.435   7.823   3.456 -0.1524  0.2306 -1.3552
41585SOL    HW229567   5.541   7.931   3.444  1.2250 -0.9526 -0.2375
41586SOL     OW29568   0.955   5.899  12.396  0.2082  0.3922 -0.1465
41586SOL    HW129569   0.908   5.982  12.384 -0.0348  0.5128  1.4055
41586SOL    HW229570   0.903   5.835  12.347 -0.8360  0.7831  0.4021
41587SOL     OW29571  10.726   1.210   1.208 -0.0655 -0.2832 -0.4079
41587SOL    HW129572  10.708   1.157   1.286 -1.0278 -0.2780 -0.6081
41587SOL    HW229573  10.651   1.269   1.202  1.2210  1.4876  0.1051
41588SOL     OW29574   0.663  11.445   5.750  0.0376 -0.3282  0.0526
41588SOL    HW129575   0.667  11.519   5.811 -0.6200  1.5005 -1.9854
41588SOL    HW229576   0.571  11.440   5.725 -0.0639 -2.3344  0.6446
41589SOL     OW29577   2.857   4.227   6.507 -0.6469  0.7252 -0.2211
41589SOL    HW129578   2.945   4.221   6.469 -0.9019 -0.0869 -0.7075
41589SOL    HW229579   2.801   4.181   6.445 -1.1278 -0.3696  0.9744
41590SOL     OW29580   9.943   7.531   4.053  0.7460 -0.5884  0.4274
41590SOL    HW129581   9.998   7.476   3.998  1.3425 -0.1809  0.6104
41590SOL    HW229582   9.995   7.546   4.132  0.0965 -0.7588  0.8982
41591SOL     OW29583   3.805   6.340  11.848 -0.2435 -0.1889 -1.3534
41591SOL    HW129584   3.854   6.423  11.846  0.8178 -0.7699 -0.6304
41591SOL    HW229585   3.716   6.365  11.872  0.2475  0.6753 -0.3378
41592SOL     OW29586   7.416  10.336   4.400 -0.1651  0.0545 -0.3448
41592SOL    HW129587   7.470  10.383   4.463  0.8245 -0.1482 -1.0214
41592SOL    HW229588   7.447  10.245   4.404 -1.0162 -0.2364 -0.1525
41593SOL     OW29589   8.505  11.411   4.132  0.6056  0.2221 -0.9817
41593SOL    HW129590   8.447  11.369   4.069 -3.3076 -1.1127  2.9403
41593SOL    HW229591   8.456  11.489   4.160  1.8459  0.4246  0.7868
41594SOL     OW29592   6.275   3.230   8.176  0.4543 -0.0076  0.0662
41594SOL    HW129593   6.188   3.269   8.174  0.7317  0.6678  0.7517
41594SOL    HW229594   6.329   3.288   8.123  0.1598 -1.3413 -1.8257
41595SOL     OW29595   1.566   1.799   2.332  0.1955  0.0261 -0.8368
41595SOL    HW129596   1.566   1.857   2.408  1.6101  0.3410 -1.0354
41595SOL    HW229597   1.655   1.762   2.330  0.0065 -0.4292 -1.9856
41596SOL     OW29598   0.002  11.237   0.593  0.4641  0.4605 -0.6699
41596SOL    HW129599   0.095  11.217   0.584  0.3458 -0.2837 -0.2731
41596SOL    HW229600  -0.040  11.152   0.606 -0.3985  0.6813 -1.8477
41597SOL     OW29601  10.591   5.076   6.531  0.1133  0.1907  0.1754
41597SOL    HW129602  10.541   5.049   6.609 -0.5421  2.3495  0.5807
41597SOL    HW229603  10.527   5.073   6.460  0.4208 -0.7080 -0.0682
41598SOL     OW29604   0.754   8.530  10.141  0.0778 -0.0919  0.3522
41598SOL    HW129605   0.778   8.468  10.210 -1.4211 -0.9166  0.1720
41598SOL    HW229606   0.813   8.510  10.069  1.0208  0.1388  1.0379
41599SOL     OW29607   1.066   5.430   5.072  0.0205 -0.0097  0.1499
41599SOL    HW129608   1.090   5.482   5.148 -1.5772  0.9201  0.0581
41599SOL    HW229609   1.149   5.394   5.040  0.6912 -0.7756  2.5484
41600SOL     OW29610   4.377   8.273   9.161 -0.1077  0.2154  0.0765
41600SOL    HW129611   4.451   8.228   9.123 -0.5097 -2.6249  2.3251
41600SOL    HW229612   4.415   8.327   9.231  0.1477  1.7112 -1.1770
41601SOL     OW29613   1.943   0.927   7.400 -0.6749 -0.3217 -0.2614
41601SOL    HW129614   2.001   0.965   7.334 -0.1294  0.7364  0.8096
41601SOL    HW229615   1.959   0.832   7.394  0.3140 -0.1318 -0.7672
41602SOL     OW29616  10.321   1.588   9.902 -0.2915 -0.1992 -0.6243
41602SOL    HW129617  10.292   1.556   9.817  1.9548 -2.6134 -0.6196
41602SOL    HW229618  10.252   1.561   9.963 -0.3395 -1.4673 -1.2235
41603SOL     OW29619   5.326   9.334   0.390  0.5365 -0.1286  0.3825
41603SOL    HW129620   5.313   9.421   0.428 -0.7985 -0.4761  0.7879
41603SOL    HW229621   5.414   9.308   0.418  1.3263  1.4499 -0.5169
41604SOL     OW29622   7.789   9.455   6.856  0.4004 -0.0196 -0.2868
41604SOL    HW129623   7.800   9.375   6.804 -0.2794 -0.7866  0.7207
41604SOL    HW229624   7.879   9.482   6.877  0.7305  0.6387 -2.2931
41605SOL     OW29625   7.045   8.220  10.484 -0.1735 -0.2279  0.0892
41605SOL    HW129626   7.069   8.299  10.533 -0.6326  0.9603 -1.5024
41605SOL    HW229627   7.033   8.153  10.551  0.0597  1.0981  1.5186
41606SOL     OW29628   9.357   2.470   6.483 -0.1221  0.2538 -0.4331
41606SOL    HW129629   9.336   2.380   6.460 -0.2349  0.3959 -0.9088
41606SOL    HW229630   9.416   2.464   6.558  0.3643 -0.2285 -0.8533
41607SOL     OW29631  11.056   4.092   3.846 -0.0277 -0.3028 -1.3697
41607SOL    HW129632  11.056   4.032   3.920 -0.2658 -1.3334 -2.1833
41607SOL    HW229633  11.058   4.179   3.886  0.2367 -0.8385 -0.1671
41608SOL     OW29634   9.012   4.178  10.968  0.4258  0.2303  0.3211
41608SOL    HW129635   8.955   4.183  10.892  0.0915  1.7761  0.6371
41608SOL    HW229636   9.069   4.103  10.950  0.7380  0.8983 -1.7087
41609SOL     OW29637   0.720   0.435  11.563  0.1744  0.0665 -0.7400
41609SOL    HW129638   0.716   0.528  11.588  0.3310 -0.0329 -0.3298
41609SOL    HW229639   0.635   0.417  11.524 -1.1400 -0.4097  2.0563
41610SOL     OW29640   6.803   5.874   0.924 -0.5873  0.3492  0.0560
41610SOL    HW129641   6.710   5.872   0.950 -1.1964  0.2737 -1.9644
41610SOL    HW229642   6.830   5.782   0.925 -0.3137  0.4266  1.2940
41611SOL     OW29643   4.933  10.396   7.191 -0.2735  0.4168 -0.5030
41611SOL    HW129644   4.925  10.388   7.286 -2.7628 -0.3886 -0.7019
41611SOL    HW229645   4.861  10.343   7.156 -0.0210  1.4562 -2.8248
41612SOL     OW29646   5.365  12.609  10.556  0.2190  0.2543 -0.4158
41612SOL    HW129647   5.418  12.688  10.547  2.1213 -0.7547  1.0960
41612SOL    HW229648   5.356  12.577  10.466  1.4503  0.9442 -0.8174
41613SOL     OW29649   8.664   0.608   7.797  0.0455 -0.0124  0.1924
41613SOL    HW129650   8.670   0.674   7.866  1.4284  0.2051 -0.0938
41613SOL    HW229651   8.695   0.527   7.839  0.2547 -0.0249  0.0190
41614SOL     OW29652   4.115   7.341   5.834  0.2920 -0.3464 -0.1911
41614SOL    HW129653   4.125   7.423   5.882 -0.5978  0.0904 -0.7180
41614SOL    HW229654   4.199   7.297   5.843  0.3767  0.0569  1.1392
41615SOL     OW29655  12.431   7.789  11.008 -0.1562  0.3322  0.3442
41615SOL    HW129656  12.413   7.849  11.080 -1.9181  1.5176 -1.0003
41615SOL    HW229657  12.405   7.837  10.929  0.4185 -1.4158 -0.9782
41616SOL     OW29658   4.025   3.948  12.057  0.3716  0.3287  0.9686
41616SOL    HW129659   4.031   3.953  12.152 -0.8912 -0.1740  1.0858
41616SOL    HW229660   4.033   4.039  12.027 -0.1589  0.5919  1.6130
41617SOL     OW29661   0.472  10.208  12.229 -0.1508  0.6418  0.0486
41617SOL    HW129662   0.378  10.191  12.242 -0.1529 -0.9800 -1.6540
41617SOL    HW229663   0.475  10.265  12.152  0.2703 -2.0473 -2.1030
41618SOL     OW29664  11.777  11.224  11.872 -0.3806 -0.1717 -0.5580
41618SOL    HW129665  11.846  11.165  11.903 -1.4095  0.1865  2.7769
41618SOL    HW229666  11.700  11.199  11.923 -1.4975  2.4536 -0.8270
41619SOL     OW29667   3.577   9.177   6.366  0.1645 -0.4500  0.1955
41619SOL    HW129668   3.625   9.250   6.404 -0.6825  0.2358 -0.0283
41619SOL    HW229669   3.503   9.164   6.425 -0.3500 -0.3425 -0.4224
41620SOL     OW29670   3.632  10.526   1.730  0.2303 -0.3880  0.3257
41620SOL    HW129671   3.707  10.499   1.783  0.8534 -1.8763 -1.2185
41620SOL    HW229672   3.652  10.617   1.706  0.7161 -0.2277  1.2741
41621SOL     OW29673  12.412   6.894   3.592 -0.4253 -0.2424 -0.1923
41621SOL    HW129674  12.386   6.868   3.503 -0.5712 -0.6265 -0.0401
41621SOL    HW229675  12.405   6.990   3.592  3.4109  0.1925 -1.7972
41622SOL     OW29676   8.005   0.241  11.597 -0.6292  0.0876 -0.2744
41622SOL    HW129677   8.054   0.291  11.663 -0.8295 -0.7392  0.5135
41622SOL    HW229678   8.043   0.269  11.513 -0.0230  0.7757  0.2173
41623SOL     OW29679   3.834   1.240   6.763  0.2521 -0.1389  0.1481
41623SOL    HW129680   3.869   1.309   6.706  0.0099  0.3024  0.5272
41623SOL    HW229681   3.739   1.246   6.751 -0.1114  2.2250  3.0868
41624SOL     OW29682   3.663   6.612   7.788  0.1018 -0.2054  0.2704
41624SOL    HW129683   3.754   6.583   7.779  0.0435 -0.3217  0.0482
41624SOL    HW229684   3.654   6.683   7.725 -0.3308 -1.0764 -0.6779
41625SOL     OW29685   8.814   7.289   0.682 -0.0098 -0.4339 -0.7224
41625SOL    HW129686   8.745   7.240   0.638 -0.1300 -1.4780  0.5616
41625SOL    HW229687   8.854   7.225   0.742  0.3900  0.8185  0.3848
41626SOL     OW29688   3.864   0.049   5.004 -0.0191  0.4157  0.0611
41626SOL    HW129689   3.925  -0.017   4.972 -1.7938 -1.7551  0.8497
41626SOL    HW229690   3.869   0.043   5.099 -0.1467  1.5283  0.1562
41627SOL     OW29691   6.526   2.595   3.965  0.3147  0.2436  0.4746
41627SOL    HW129692   6.551   2.639   3.884 -0.2011 -0.9271 -0.3559
41627SOL    HW229693   6.569   2.510   3.960  0.3406  0.1935  1.4729
41628SOL     OW29694   5.753  12.454  10.959 -0.1544 -0.0372  0.1112
41628SOL    HW129695   5.683  12.516  10.937 -0.4022 -0.3607 -0.0295
41628SOL    HW229696   5.791  12.488  11.039  1.2022  1.5433 -1.1354
41629SOL     OW29697   5.018   7.704   1.509  0.7647  0.2820  0.0777
41629SOL    HW129698   4.964   7.780   1.529  0.6104  0.4779 -1.0130
41629SOL    HW229699   4.973   7.631   1.552 -0.6156  0.3756 -1.1287
41630SOL     OW29700   5.865   9.999   7.288  0.5205  0.2012  0.0335
41630SOL    HW129701   5.892  10.032   7.374  2.2130 -1.1638  0.0805
41630SOL    HW229702   5.840   9.908   7.305 -1.2459  0.5291 -0.5844
41631SOL     OW29703  10.105   6.138   8.508  0.1022 -0.0915 -0.2170
41631SOL    HW129704  10.162   6.209   8.537 -0.9432  0.0641  1.5937
41631SOL    HW229705  10.080   6.093   8.589  1.2123 -2.9497 -1.3307
41632SOL     OW29706   1.040  11.368   3.667 -0.5338 -0.3921 -0.1799
41632SOL    HW129707   1.041  11.437   3.601 -2.4152 -0.0364  0.1062
41632SOL    HW229708   0.952  11.372   3.705  0.6989  0.0287  2.9964
41633SOL     OW29709   2.709   4.579   6.511 -0.1660 -0.4418  0.3983
41633SOL    HW129710   2.758   4.661   6.506  0.3118 -0.7890 -1.8057
41633SOL    HW229711   2.757   4.519   6.454 -0.7373 -2.1500  1.6459
41634SOL     OW29712   4.409   4.422   6.445 -0.2063 -0.0207 -0.3308
41634SOL    HW129713   4.370   4.390   6.526 -1.4620  3.5181  0.6556
41634SOL    HW229714   4.343   4.482   6.410  2.2830  2.3167 -1.3166
41635SOL     OW29715   7.643   3.052   9.492  0.4047 -0.6971  0.2335
41635SOL    HW129716   7.723   3.029   9.539 -0.0713 -0.9098  0.9576
41635SOL    HW229717   7.584   2.979   9.508 -0.2843 -0.0849  0.5439
41636SOL     OW29718   2.503   2.652   2.151 -0.0832  0.7518  0.4461
41636SOL    HW129719   2.473   2.727   2.100  1.5280  1.5069  0.5399
41636SOL    HW229720   2.555   2.691   2.222  0.8781 -0.4448  0.4268
41637SOL     OW29721   3.983   5.921   1.893 -0.3053 -0.2462  0.0454
41637SOL    HW129722   4.045   5.983   1.932  0.5490 -0.5357 -0.8151
41637SOL    HW229723   4.026   5.836   1.900 -0.8534 -0.5361 -0.0639
41638SOL     OW29724   1.911   3.761   5.236  0.5348 -0.0957 -0.4080
41638SOL    HW129725   1.887   3.853   5.246  1.8905  0.6735 -3.2626
41638SOL    HW229726   2.002   3.757   5.268  0.1266 -0.7197  0.7208
41639SOL     OW29727   9.417   8.135  12.050  0.7282 -0.0965  0.3058
41639SOL    HW129728   9.484   8.114  12.115  1.8016  0.5308 -0.5740
41639SOL    HW229729   9.412   8.230  12.049  1.4798 -0.0429 -1.2490
41640SOL     OW29730   9.819   0.902   9.155  0.6854 -0.2133  0.0115
41640SOL    HW129731   9.832   0.927   9.064  0.8779 -1.1452 -0.2349
41640SOL    HW229732   9.788   0.981   9.198 -0.1659  0.0387 -1.0200
41641SOL     OW29733  10.439   6.875   9.629  0.1438 -0.1250 -0.4618
41641SOL    HW129734  10.488   6.917   9.700  1.2215  0.2357 -1.3968
41641SOL    HW229735  10.403   6.796   9.669  0.0672  0.4694  0.6937
41642SOL     OW29736   7.624   5.613   7.814 -0.3579 -0.7968 -0.0582
41642SOL    HW129737   7.565   5.620   7.739  0.3447 -1.8458 -0.7501
41642SOL    HW229738   7.588   5.542   7.867 -0.2251 -0.8234 -0.0016
41643SOL     OW29739  10.292   2.387  12.202 -0.0837 -0.2653 -0.1426
41643SOL    HW129740  10.312   2.321  12.268 -1.2514  1.5198  2.1469
41643SOL    HW229741  10.329   2.352  12.121  0.8316 -2.8849  1.2845
41644SOL     OW29742   1.882  12.312   6.282 -0.0961 -0.3199  0.0478
41644SOL    HW129743   1.906  12.222   6.260 -2.1208 -0.7294 -0.7190
41644SOL    HW229744   1.789  12.308   6.303 -0.2527  1.6091 -0.0617
41645SOL     OW29745   5.862   0.867  10.604  0.4510  0.5731  0.2716
41645SOL    HW129746   5.769   0.843  10.607  0.5177  0.1386 -0.9181
41645SOL    HW229747   5.866   0.937  10.539  1.0384  0.2694 -0.0143
41646SOL     OW29748   3.414   8.204   9.912 -0.5042  0.2656  0.0300
41646SOL    HW129749   3.493   8.177   9.959  0.6242  0.9190 -1.4104
41646SOL    HW229750   3.367   8.122   9.897  0.2587 -0.2333  0.2795
41647SOL     OW29751  11.088   6.408  11.289 -0.2139  0.4762 -0.3567
41647SOL    HW129752  11.145   6.399  11.365 -0.3172  1.8517 -0.0911
41647SOL    HW229753  11.034   6.329  11.290 -0.0397  0.3568  0.8650
41648SOL     OW29754   5.800  11.537   5.137 -0.2826 -0.1178  0.2519
41648SOL    HW129755   5.712  11.503   5.153  0.1186 -1.4396 -0.1680
41648SOL    HW229756   5.787  11.614   5.082 -1.1159 -1.4982 -1.6094
41649SOL     OW29757  11.586   8.462   0.906  0.0853 -0.2625 -0.1891
41649SOL    HW129758  11.518   8.467   0.838  1.4248  0.8112 -1.4941
41649SOL    HW229759  11.589   8.549   0.944 -1.0870 -1.0005  1.7851
41650SOL     OW29760  12.115  12.043   9.808 -0.0540  0.1613 -0.3788
41650SOL    HW129761  12.043  12.048   9.745 -0.3559  0.2909 -0.0273
41650SOL    HW229762  12.103  12.120   9.864 -1.1324 -1.1255  1.2485
41651SOL     OW29763  12.508   2.070   2.735 -0.1741 -0.3494  0.2362
41651SOL    HW129764  12.459   1.999   2.777 -1.4475  0.1389 -0.3419
41651SOL    HW229765  12.544   2.121   2.807  0.1940 -1.2023  0.6651
41652SOL     OW29766   0.212  10.949   8.172 -0.2932 -0.0275  0.6787
41652SOL    HW129767   0.308  10.943   8.171 -0.1162  1.1400 -2.3825
41652SOL    HW229768   0.183  10.882   8.110 -1.1279  1.7377 -0.9556
41653SOL     OW29769   2.595   2.373  11.583  0.2291  0.1870  0.1660
41653SOL    HW129770   2.602   2.466  11.602 -4.5008  0.5009  1.6781
41653SOL    HW229771   2.593   2.330  11.669  0.6516 -1.1309 -0.4470
41654SOL     OW29772   3.665   9.456   8.318  0.5582  0.1646 -0.0375
41654SOL    HW129773   3.736   9.455   8.381 -0.1726 -1.0673  0.8176
41654SOL    HW229774   3.591   9.415   8.364  0.1892 -1.4050 -1.8630
41655SOL     OW29775  11.321   6.775   1.712  0.1921 -0.3228  0.0845
41655SOL    HW129776  11.290   6.763   1.802 -0.6795  1.3964  0.0460
41655SOL    HW229777  11.408   6.814   1.722  1.0486 -2.1329  0.1562
41656SOL     OW29778   2.951   6.216   7.836 -0.1710 -0.3487  0.2762
41656SOL    HW129779   2.891   6.181   7.770  0.9645 -0.1333 -0.9210
41656SOL    HW229780   3.037   6.183   7.811  0.2710 -0.4524  1.8107
41657SOL     OW29781   9.895   2.627   5.895  0.8097  0.1970  0.6121
41657SOL    HW129782   9.917   2.535   5.885  0.5478  0.1966 -0.0476
41657SOL    HW229783   9.962   2.673   5.845  0.5673  0.3210  0.3975
41658SOL     OW29784  10.953   5.434   7.441  0.2109  0.4379 -0.2214
41658SOL    HW129785  10.888   5.436   7.372  0.4678 -1.4697 -0.5813
41658SOL    HW229786  10.940   5.349   7.484  1.7033  0.4900  0.4158
41659SOL     OW29787   9.465   7.642  10.977  0.2433 -0.2348  0.4612
41659SOL    HW129788   9.383   7.665  11.021 -0.0153  1.3244 -0.7371
41659SOL    HW229789   9.471   7.704  10.904  2.8737  0.2190  0.9606
41660SOL     OW29790   3.882  10.597   7.946 -0.0924  0.4519 -0.2565
41660SOL    HW129791   3.959  10.626   7.897  0.5684  0.9857  1.0741
41660SOL    HW229792   3.813  10.658   7.920 -0.1937 -0.2200 -1.6970
41661SOL     OW29793   2.510  11.741   0.864 -0.8874 -0.1959  0.0237
41661SOL    HW129794   2.463  11.658   0.854 -0.4362 -0.3242 -1.1606
41661SOL    HW229795   2.594  11.716   0.904 -0.9026 -0.2518  0.0207
41662SOL     OW29796   5.493  10.680   2.902  0.3347 -0.0820  0.1200
41662SOL    HW129797   5.404  10.716   2.899 -0.3672 -1.6335  0.8231
41662SOL    HW229798   5.535  10.712   2.822 -0.9794  0.3890 -0.4162
41663SOL     OW29799  12.112  12.001   1.517 -0.7678  0.4192 -0.2412
41663SOL    HW129800  12.162  12.063   1.464  0.2801 -0.2254 -0.0237
41663SOL    HW229801  12.094  12.047   1.599  0.3572  0.2951  0.0795
41664SOL     OW29802   7.423   3.170   8.512  0.6419  0.1848 -0.3409
41664SOL    HW129803   7.403   3.222   8.434 -0.4651 -0.6267 -0.6296
41664SOL    HW229804   7.357   3.100   8.511  0.9207 -0.1231  1.0592
41665SOL     OW29805   2.833   3.604   0.416  0.1456 -0.2177  0.6031
41665SOL    HW129806   2.862   3.532   0.472 -0.7307 -0.3017  0.9684
41665SOL    HW229807   2.883   3.680   0.445  1.1691 -0.6923  0.1312
41666SOL     OW29808   4.732   4.230   1.699  0.0527 -0.1436 -0.5994
41666SOL    HW129809   4.712   4.303   1.758 -1.3139 -1.8015  1.1125
41666SOL    HW229810   4.828   4.226   1.697  0.1364  0.2759  1.1445
41667SOL     OW29811   4.238   0.862   2.863 -0.2580  0.5063  0.9631
41667SOL    HW129812   4.145   0.844   2.874 -0.1148  0.1481  1.6621
41667SOL    HW229813   4.247   0.893   2.773 -0.9895  0.1583  0.7706
41668SOL     OW29814   5.436  10.919  10.536  0.5810  0.4843  0.2652
41668SOL    HW129815   5.440  10.854  10.606 -3.6172 -1.3023 -0.8295
41668SOL    HW229816   5.395  10.996  10.576 -1.2759 -0.3288  0.0517
41669SOL     OW29817   4.796   8.534   3.220  0.2350 -0.5701 -0.2319
41669SOL    HW129818   4.846   8.482   3.284 -2.1943 -0.1944  2.1343
41669SOL    HW229819   4.826   8.624   3.233  3.0219 -0.9358 -2.9689
41670SOL     OW29820   4.033   0.691   5.560 -0.8078 -0.2946 -0.0872
41670SOL    HW129821   4.060   0.634   5.632  2.2320  0.2222 -0.6750
41670SOL    HW229822   4.006   0.631   5.490  2.6363 -1.2437 -0.8066
41671SOL     OW29823   6.423   8.137   1.491 -0.0745  0.0017  0.0135
41671SOL    HW129824   6.452   8.074   1.425 -1.7781 -0.1313 -0.6424
41671SOL    HW229825   6.411   8.085   1.570  0.1327 -0.1930 -0.0808
41672SOL     OW29826   0.026   9.161   9.135  0.0135 -0.5391 -0.3728
41672SOL    HW129827  -0.037   9.232   9.149  0.0779 -0.3829 -0.8632
41672SOL    HW229828  -0.001   9.093   9.197 -0.6243 -0.4603 -0.5521
41673SOL     OW29829   1.833   4.079   6.943  0.0270  0.1877 -0.2443
41673SOL    HW129830   1.755   4.058   6.891 -1.5308  1.1633  1.5783
41673SOL    HW229831   1.881   4.142   6.890 -1.4524  1.0674 -0.5933
41674SOL     OW29832  10.184   6.786  11.034  0.2516  0.3201  0.1038
41674SOL    HW129833  10.267   6.798  10.987  0.0977  0.0456 -0.2392
41674SOL    HW229834  10.203   6.814  11.123  0.9819 -0.6142  0.2646
41675SOL     OW29835   5.140  11.368   1.493 -0.3836 -0.7811  0.3280
41675SOL    HW129836   5.057  11.322   1.482  0.1650 -1.3724 -1.7310
41675SOL    HW229837   5.143  11.429   1.419  0.8387 -0.4657  0.6254
41676SOL     OW29838  11.886   8.642   0.754 -0.0977  0.2353  0.7564
41676SOL    HW129839  11.946   8.649   0.828  0.0762 -0.0380  0.6397
41676SOL    HW229840  11.940   8.609   0.682 -0.8453 -2.1312  1.2191
41677SOL     OW29841  11.141   8.422   7.880  0.4466 -0.1366 -0.3905
41677SOL    HW129842  11.148   8.508   7.839 -1.4359  0.0388 -0.4305
41677SOL    HW229843  11.178   8.433   7.967  0.3297  0.6895 -0.4417
41678SOL     OW29844   2.422   1.695   7.258  0.3430 -0.8042  0.8817
41678SOL    HW129845   2.381   1.670   7.340 -0.0825  0.2365  0.9991
41678SOL    HW229846   2.472   1.774   7.279  1.1860 -1.1999  0.4009
41679SOL     OW29847  12.422  10.352   6.378  0.6549 -0.5632  0.0334
41679SOL    HW129848  12.347  10.398   6.417  1.0779 -0.4582  0.7402
41679SOL    HW229849  12.402  10.349   6.285  1.4403  2.7400 -0.3814
41680SOL     OW29850   0.319   6.242   0.891 -0.1298  0.1072  0.7443
41680SOL    HW129851   0.389   6.182   0.863  1.2590  2.1989 -0.5494
41680SOL    HW229852   0.258   6.242   0.817  0.7564  1.5093 -0.0357
41681SOL     OW29853   9.808   7.489  12.197 -0.1468  0.7609 -0.1942
41681SOL    HW129854   9.812   7.574  12.240 -0.4614 -0.1257  1.7060
41681SOL    HW229855   9.733   7.445  12.237  1.2449 -1.1901  0.4520
41682SOL     OW29856   2.621   8.197   6.199  0.5338  0.0401  0.1062
41682SOL    HW129857   2.688   8.138   6.236  2.9635  1.4440 -1.7079
41682SOL    HW229858   2.610   8.266   6.264  1.1731  0.0017  0.2613
41683SOL     OW29859   5.874   0.472   3.530  0.2309  0.6627  0.1521
41683SOL    HW129860   5.905   0.501   3.445 -0.7601 -1.7948 -1.1637
41683SOL    HW229861   5.894   0.378   3.532 -0.0151  0.5972  2.5227
41684SOL     OW29862   5.918   1.726   9.015 -0.4642 -0.0977 -0.3947
41684SOL    HW129863   5.901   1.818   8.998  0.1808  0.0706 -0.1392
41684SOL    HW229864   5.992   1.704   8.958  0.1261 -0.1611  0.3910
41685SOL     OW29865   2.126   5.944  11.672  0.4634  0.3737 -0.0619
41685SOL    HW129866   2.104   6.036  11.656 -0.4854  0.0381 -0.7924
41685SOL    HW229867   2.104   5.899  11.591 -1.8609 -0.9572  1.1845
41686SOL     OW29868  11.478   6.081   0.193  1.0066  0.3363  0.5231
41686SOL    HW129869  11.558   6.133   0.195  1.9287 -0.9613 -0.7750
41686SOL    HW229870  11.431   6.110   0.115  1.6362 -0.8962 -0.3351
41687SOL     OW29871  12.031   5.091   8.033 -0.1889 -0.0045  0.5147
41687SOL    HW129872  11.974   5.070   8.107 -2.6496  2.5433 -0.4756
41687SOL    HW229873  12.052   5.183   8.045 -1.2061  0.6584 -2.2523
41688SOL     OW29874  10.632  11.061  10.127  0.0850 -0.2441 -0.2730
41688SOL    HW129875  10.616  10.973  10.093  2.2458 -0.3868 -1.0706
41688SOL    HW229876  10.681  11.047  10.208 -0.5558  0.2085  0.1978
41689SOL     OW29877   0.732   5.546   9.187  0.7908  0.3453  0.2176
41689SOL    HW129878   0.706   5.467   9.140 -3.0699  1.8054 -0.5160
41689SOL    HW229879   0.750   5.516   9.277 -1.6643 -1.3134  0.2583
41690SOL     OW29880   3.659   7.153   1.693 -0.8172  0.1292 -0.9511
41690SOL    HW129881   3.664   7.164   1.598  0.1548 -0.2430 -0.9572
41690SOL    HW229882   3.735   7.099   1.715  0.3407  2.1434  0.3014
41691SOL     OW29883   7.500   1.653   4.433 -0.0540  0.1026  0.5092
41691SOL    HW129884   7.435   1.711   4.393 -0.4866 -0.5348  0.2740
41691SOL    HW229885   7.584   1.697   4.417 -0.2438  0.0117 -0.8696
41692SOL     OW29886   8.164   3.384   9.288  0.3018  1.0768 -0.0100
41692SOL    HW129887   8.120   3.434   9.357  5.6938  1.7123  3.5506
41692SOL    HW229888   8.146   3.292   9.309  1.1525  1.2968  1.8909
41693SOL     OW29889   5.235   6.497   5.563 -0.0342 -0.2506  0.4672
41693SOL    HW129890   5.251   6.547   5.483  0.1057  0.5883  1.0073
41693SOL    HW229891   5.306   6.433   5.567  0.4575  0.2873  0.3743
41694SOL     OW29892   3.039   7.505   5.750 -0.0357  0.0435  0.1768
41694SOL    HW129893   3.128   7.521   5.781 -0.0036  1.1045 -0.4277
41694SOL    HW229894   3.048   7.483   5.658 -0.2635 -1.6672  0.5237
41695SOL     OW29895  10.470   1.081   2.474  0.1532 -0.0633 -0.1295
41695SOL    HW129896  10.484   0.986   2.482 -1.7646 -0.4822 -1.0297
41695SOL    HW229897  10.476   1.097   2.380 -0.4865  0.5260 -0.0750
41696SOL     OW29898   6.559   5.510   7.037 -0.0654  0.2436 -0.0719
41696SOL    HW129899   6.620   5.537   7.105 -1.9751 -0.7159  2.1641
41696SOL    HW229900   6.496   5.583   7.031 -0.8161 -0.3472  0.4005
41697SOL     OW29901   0.732   1.386  11.215  0.0270  0.4825  0.2041
41697SOL    HW129902   0.778   1.444  11.154  1.1106 -0.2040  0.3321
41697SOL    HW229903   0.699   1.315  11.160  0.7948 -0.0121  0.3728
41698SOL     OW29904   7.234   2.014   2.202 -0.2220  0.1378  0.3507
41698SOL    HW129905   7.257   2.031   2.293 -1.3551  1.2605  0.4468
41698SOL    HW229906   7.143   1.987   2.204 -0.3778  0.5580 -0.4822
41699SOL     OW29907   6.657   3.496   0.554 -0.1143 -0.1568  0.4379
41699SOL    HW129908   6.643   3.499   0.460 -0.0567  0.2376  0.4421
41699SOL    HW229909   6.613   3.574   0.588 -0.6376 -0.6009  0.8042
41700SOL     OW29910  12.528   5.073   3.544 -0.4041  0.2125  0.4243
41700SOL    HW129911  12.598   5.034   3.596 -2.1448 -2.4900  0.9344
41700SOL    HW229912  12.450   5.023   3.568 -1.8011  0.5684 -2.8774
41701SOL     OW29913   9.640  11.586   6.052  0.5033 -0.2897 -0.0933
41701SOL    HW129914   9.631  11.620   6.141  2.8288 -0.4715  0.2768
41701SOL    HW229915   9.603  11.655   5.996 -0.1858  0.2129  0.9479
41702SOL     OW29916   5.471   0.709   9.252 -0.1226  0.3586 -0.1499
41702SOL    HW129917   5.546   0.715   9.312  0.8511 -2.0788 -0.9940
41702SOL    HW229918   5.489   0.775   9.185  0.5336  0.7773  0.4187
41703SOL     OW29919  11.829   2.478   7.176 -0.0621  0.2925  0.2647
41703SOL    HW129920  11.795   2.529   7.102 -0.0866  0.0219  0.0883
41703SOL    HW229921  11.914   2.445   7.146 -1.6828 -3.0479 -1.1614
41704SOL     OW29922   3.426  11.758   8.781  0.4849  0.2365  0.3693
41704SOL    HW129923   3.483  11.708   8.839 -1.1985  0.3129  2.1988
41704SOL    HW229924   3.383  11.692   8.728  0.9251  0.0379  0.2524
41705SOL     OW29925   2.489   4.125   0.913 -0.2898  0.0235  0.3527
41705SOL    HW129926   2.397   4.098   0.921 -0.2782 -0.1471 -0.0642
41705SOL    HW229927   2.485   4.206   0.863 -0.1677 -0.3533 -0.2847
41706SOL     OW29928   5.856   8.261  10.781  0.0669 -0.1619  0.2194
41706SOL    HW129929   5.894   8.204  10.714 -1.8265  0.3176 -1.3500
41706SOL    HW229930   5.888   8.349  10.758 -2.0454  0.2933 -1.2980
41707SOL     OW29931  10.613  11.394   6.035 -0.1597  0.1658 -0.0294
41707SOL    HW129932  10.634  11.422   5.946  0.6141  0.8334  0.3466
41707SOL    HW229933  10.696  11.400   6.082 -0.6896  0.4545  0.8996
41708SOL     OW29934   9.648  11.598   5.245 -0.1240 -0.8868 -0.5464
41708SOL    HW129935   9.729  11.649   5.237 -0.4401 -0.2174  0.3566
41708SOL    HW229936   9.677  11.510   5.270  0.3632 -0.8583 -0.9974
41709SOL     OW29937  11.797  10.878   1.366 -0.0685  0.0831 -0.0905
41709SOL    HW129938  11.841  10.798   1.393  0.9930  0.7140  0.1067
41709SOL    HW229939  11.806  10.879   1.270  1.3059  0.7333  0.0291
41710SOL     OW29940  11.571   7.703   3.937  0.1291 -0.0578 -0.7953
41710SOL    HW129941  11.568   7.626   3.880 -1.9773 -0.7071  0.1125
41710SOL    HW229942  11.506   7.686   4.004 -0.6608  2.7012 -0.7480
41711SOL     OW29943  10.093   6.271   6.824  0.4154  0.2663  0.0046
41711SOL    HW129944  10.148   6.198   6.796 -1.2907 -1.0719  0.0158
41711SOL    HW229945  10.020   6.230   6.870 -0.7647  1.9668 -0.2750
41712SOL     OW29946   3.201   4.673   1.663 -0.5830 -0.1284  0.1674
41712SOL    HW129947   3.231   4.703   1.749 -2.5389  0.0455  0.8438
41712SOL    HW229948   3.120   4.721   1.648 -0.4410 -0.4018 -1.6585
41713SOL     OW29949   8.721   3.032   4.585  0.3728  0.0880  0.2338
41713SOL    HW129950   8.699   3.107   4.641  0.8603  1.4148 -1.2892
41713SOL    HW229951   8.638   2.985   4.574 -0.3268  1.3599 -0.1408
41714SOL     OW29952   7.232  12.432   2.824  0.1466  0.5659 -0.0438
41714SOL    HW129953   7.265  12.398   2.907  1.7534  0.2911 -0.7666
41714SOL    HW229954   7.232  12.527   2.836  3.2555  0.7538 -0.6611
41715SOL     OW29955   9.211   7.823   0.291 -0.0626  0.1982 -0.1344
41715SOL    HW129956   9.302   7.851   0.303 -0.1546  0.5413 -0.2245
41715SOL    HW229957   9.170   7.842   0.375 -0.2379  0.7732 -0.3492
41716SOL     OW29958  11.820  11.687   4.821 -0.6643 -0.5551  1.1535
41716SOL    HW129959  11.802  11.593   4.819  1.2100 -0.9505  1.3468
41716SOL    HW229960  11.908  11.695   4.857  0.4915  1.0552 -1.6306
41717SOL     OW29961   6.327   9.824   6.756  0.0091  0.2943  0.0175
41717SOL    HW129962   6.409   9.868   6.780  0.9503 -1.1135 -0.4718
41717SOL    HW229963   6.307   9.769   6.831 -0.6783  0.8636  0.2610
41718SOL     OW29964   4.505   3.624  11.919  0.4451 -0.4496 -0.3499
41718SOL    HW129965   4.411   3.636  11.930  0.3826  0.1512 -1.4364
41718SOL    HW229966   4.542   3.649  12.003 -0.2339  0.9315 -0.4350
41719SOL     OW29967   3.335   7.373   6.056 -0.3626 -0.1997 -0.2069
41719SOL    HW129968   3.412   7.325   6.086  0.8255 -0.1239 -2.8714
41719SOL    HW229969   3.297   7.317   5.988  0.3807  2.0296 -2.5818
41720SOL     OW29970   2.874   6.078   4.588  0.1353 -0.1248 -0.2839
41720SOL    HW129971   2.965   6.053   4.575  0.1515 -0.1544 -0.1213
41720SOL    HW229972   2.845   6.024   4.662  0.4598  1.0501  0.7386
41721SOL     OW29973   1.721   4.724  11.933  0.3296  0.5862 -0.3461
41721SOL    HW129974   1.746   4.699  12.022 -0.0007 -1.7015 -0.8129
41721SOL    HW229975   1.728   4.819  11.932  3.7066  0.5247  1.1194
41722SOL     OW29976   1.430   8.115   8.923 -0.4039 -0.1258 -0.4183
41722SOL    HW129977   1.447   8.209   8.931  0.4871 -0.1900 -1.2456
41722SOL    HW229978   1.339   8.104   8.949  0.6347  0.3032  4.2480
41723SOL     OW29979   8.973   9.696  11.176 -0.3622 -0.4850  0.2518
41723SOL    HW129980   8.928   9.779  11.160  0.2399 -0.1646  0.1926
41723SOL    HW229981   9.044   9.718  11.236  0.1347 -0.8585 -0.1918
41724SOL     OW29982  11.852   9.488   2.658 -0.0514  0.3146 -0.4630
41724SOL    HW129983  11.804   9.500   2.576  0.0392 -1.7898 -0.8853
41724SOL    HW229984  11.918   9.422   2.637 -0.6571 -1.0147  1.5207
41725SOL     OW29985  10.386   5.960   9.373  0.0934 -0.5645 -0.4083
41725SOL    HW129986  10.293   5.965   9.351  0.1469 -0.8718 -0.7075
41725SOL    HW229987  10.431   5.971   9.290  0.4008  1.9500  0.0096
41726SOL     OW29988   0.857   3.468   4.971  0.4161  0.3265 -0.3154
41726SOL    HW129989   0.866   3.501   5.060 -2.0032 -0.9033  0.4849
41726SOL    HW229990   0.780   3.410   4.974  0.4722 -0.0672 -3.1114
41727SOL     OW29991   1.832   0.492  10.058 -0.2275 -0.3673 -0.5847
41727SOL    HW129992   1.867   0.524  10.141 -0.8788 -0.8036 -0.1262
41727SOL    HW229993   1.817   0.571  10.006  0.9342 -0.1428 -0.6021
41728SOL     OW29994  10.214  11.490  10.447  0.1336 -0.0567  0.1800
41728SOL    HW129995  10.281  11.444  10.397  0.7694 -0.5479  1.4513
41728SOL    HW229996  10.261  11.554  10.499 -0.5420  0.5934  0.0186
41729SOL     OW29997   0.877   2.974  12.193  0.1542 -0.1867  0.3957
41729SOL    HW129998   0.839   3.062  12.195 -0.6203 -0.4873 -0.1641
41729SOL    HW229999   0.804   2.918  12.164  0.8379 -0.8992  0.0284
41730SOL     OW30000   0.321   2.361   6.853  0.0659  0.2978 -0.5889
41730SOL    HW130001   0.379   2.285   6.862 -1.6195 -0.7611  4.0690
41730SOL    HW230002   0.289   2.356   6.762  2.3650 -2.7037 -1.4009
41731SOL     OW30003   6.972   7.677   6.222  0.4137 -0.0325 -0.2627
41731SOL    HW130004   6.996   7.600   6.170 -0.6793  1.1656 -2.7078
41731SOL    HW230005   6.884   7.700   6.190  0.5262  1.9587  0.7317
41732SOL     OW30006   8.612   5.795   5.927  0.0584  0.4349 -0.0036
41732SOL    HW130007   8.571   5.747   5.855  0.6290  1.2725 -0.9059
41732SOL    HW230008   8.553   5.868   5.944 -0.4104 -0.1189  0.8436
41733SOL     OW30009   0.974   9.222   3.038 -0.5125  0.1934 -0.0601
41733SOL    HW130010   0.963   9.139   3.084  0.3823  0.7078  1.1521
41733SOL    HW230011   1.065   9.221   3.007 -0.3162  0.9351  0.4561
41734SOL     OW30012   3.436   1.866   6.854  0.1048 -0.0368  0.3343
41734SOL    HW130013   3.435   1.884   6.760 -1.1927  1.0088  0.5317
41734SOL    HW230014   3.508   1.804   6.865  0.3885 -0.0468 -1.3205
41735SOL     OW30015   6.615  11.616   7.108 -0.3611 -0.7095  0.6777
41735SOL    HW130016   6.653  11.544   7.158  1.8242  1.3274  2.1707
41735SOL    HW230017   6.591  11.681   7.174 -0.6617  0.6694 -0.7185
41736SOL     OW30018   8.275  10.466   9.115  0.4875 -0.0891  0.5852
41736SOL    HW130019   8.204  10.438   9.058  1.6190 -1.6064 -0.1640
41736SOL    HW230020   8.352  10.419   9.082  1.7771  1.2525  1.5543
41737SOL     OW30021   4.336   5.274   6.893  0.5626  0.1450 -0.3175
41737SOL    HW130022   4.270   5.329   6.850 -0.4974  0.5175  1.6606
41737SOL    HW230023   4.418   5.322   6.882  0.2391  0.4550 -1.4732
41738SOL     OW30024   5.446  10.630  12.227  0.3734  0.1908  0.1859
41738SOL    HW130025   5.477  10.710  12.268  0.8450  0.0761  0.0612
41738SOL    HW230026   5.421  10.656  12.139 -1.6044  0.6446  0.8269
41739SOL     OW30027   2.455   2.405  11.338  0.3888  0.5802  0.0321
41739SOL    HW130028   2.470   2.389  11.431 -1.5637  2.1344  0.6809
41739SOL    HW230029   2.407   2.328  11.308 -1.5872  1.3194  1.0868
41740SOL     OW30030  12.101   1.011   4.733 -0.3676  0.3515  0.1833
41740SOL    HW130031  12.180   0.958   4.737 -1.8968 -2.0529  0.3428
41740SOL    HW230032  12.090   1.032   4.641  0.3263  0.5326  0.1398
41741SOL     OW30033  12.533   5.019  10.674 -0.0131  0.3215 -0.0309
41741SOL    HW130034  12.617   5.045  10.636  0.0479  0.3525  0.1252
41741SOL    HW230035  12.472   5.085  10.641 -0.2507 -0.4887 -1.2764
41742SOL     OW30036   7.624  10.470   9.516  0.0123  0.2093  0.1683
41742SOL    HW130037   7.638  10.528   9.591 -1.2626  1.4693 -0.5357
41742SOL    HW230038   7.712  10.447   9.487  0.5589  2.0942  0.2375
41743SOL     OW30039   5.895   2.047   6.637 -0.1123 -0.2939  0.1207
41743SOL    HW130040   5.923   2.138   6.632  0.5877 -0.5262 -0.3449
41743SOL    HW230041   5.844   2.041   6.718 -0.0802  0.4851  0.1997
41744SOL     OW30042   3.908   4.444   6.457  0.2848  0.1100  0.0313
41744SOL    HW130043   3.898   4.522   6.402  1.3892 -0.0687 -0.4442
41744SOL    HW230044   3.938   4.478   6.541 -0.5265  0.3027  0.2542
41745SOL     OW30045   1.635   1.165   2.401  0.2932  0.2435 -0.2444
41745SOL    HW130046   1.576   1.109   2.351 -0.2401  0.3292  0.2872
41745SOL    HW230047   1.703   1.105   2.434  0.2030  0.0552 -0.4037
41746SOL     OW30048   7.298   9.439   4.679  0.1377 -0.3048  0.3186
41746SOL    HW130049   7.218   9.491   4.695  0.1179  0.3022 -1.4658
41746SOL    HW230050   7.339   9.431   4.765 -1.6594 -0.3274  1.2269
41747SOL     OW30051   9.756  11.830  12.454  0.4013  0.1780 -0.1911
41747SOL    HW130052   9.724  11.885  12.384 -0.1291 -0.4260 -0.4360
41747SOL    HW230053   9.852  11.832  12.445  0.3465  0.2810 -0.7956
41748SOL     OW30054   6.976  11.374   8.801 -0.4530 -0.0436  0.2463
41748SOL    HW130055   6.998  11.296   8.852  1.7872 -0.9675 -1.9093
41748SOL    HW230056   7.051  11.432   8.813  0.0582 -0.2230 -1.7538
41749SOL     OW30057  10.546   9.442   9.863  0.5908  0.4663 -0.0189
41749SOL    HW130058  10.515   9.451   9.953  0.5203 -0.6678  0.0955
41749SOL    HW230059  10.480   9.486   9.810  1.2426  2.1945  0.5519
41750SOL     OW30060   7.871   7.224  10.012 -0.3743 -0.3838  0.0793
41750SOL    HW130061   7.925   7.181   9.946 -0.3334 -1.8716  1.0316
41750SOL    HW230062   7.782   7.222   9.975 -0.4607 -1.7828  0.3157
41751SOL     OW30063   0.754   6.110   9.104  0.2114 -0.2387  0.3729
41751SOL    HW130064   0.698   6.043   9.065  1.8637 -1.1606 -0.5317
41751SOL    HW230065   0.842   6.087   9.075  0.9667  1.6708  1.0107
41752SOL     OW30066   2.828   2.606   3.896  0.1041  0.3725 -0.1526
41752SOL    HW130067   2.878   2.531   3.927  1.6052  0.4174 -2.2542
41752SOL    HW230068   2.739   2.589   3.926  1.2942  0.4690  4.0279
41753SOL     OW30069   4.817   1.864   7.773  0.3161 -0.4024 -0.0653
41753SOL    HW130070   4.883   1.814   7.821  0.2259 -2.0266 -1.5395
41753SOL    HW230071   4.851   1.871   7.684 -1.5891 -1.6137 -0.9714
41754SOL     OW30072   5.621  10.501  11.133 -0.5688  0.1192  0.0987
41754SOL    HW130073   5.714  10.484  11.117 -0.3884  0.4747  0.7163
41754SOL    HW230074   5.584  10.415  11.150 -0.0920  0.0986  1.0955
41755SOL     OW30075  11.839   1.872   7.267  0.2983 -0.3494 -0.2298
41755SOL    HW130076  11.806   1.894   7.355  3.4293 -0.3863  1.0944
41755SOL    HW230077  11.774   1.811   7.232 -1.0761 -0.3372  2.0560
41756SOL     OW30078   2.083   6.259   4.548  0.5581 -0.0058 -0.6916
41756SOL    HW130079   2.137   6.325   4.592  0.8619  0.8705 -2.3106
41756SOL    HW230080   1.998   6.265   4.591  0.5662  1.4755 -0.8183
41757SOL     OW30081   3.194   3.756   7.858  0.7101 -0.3415 -0.1907
41757SOL    HW130082   3.158   3.845   7.865  1.8248  0.0335  1.2146
41757SOL    HW230083   3.196   3.739   7.764  0.1370  0.9794 -0.4684
41758SOL     OW30084  12.398   3.781   7.128 -0.0556  0.0760 -0.1876
41758SOL    HW130085  12.459   3.831   7.182  1.5902 -1.5791 -0.4273
41758SOL    HW230086  12.356   3.720   7.188  0.3092 -0.4172 -0.4273
41759SOL     OW30087   3.830  10.344  11.671  0.6838 -0.2998 -0.1213
41759SOL    HW130088   3.840  10.292  11.751  0.2688 -0.7735 -0.3752
41759SOL    HW230089   3.753  10.308  11.628 -0.5518  1.5200  0.4542
41760SOL     OW30090   9.091   5.680  10.381 -0.6848 -0.3567 -0.0417
41760SOL    HW130091   9.142   5.739  10.437 -0.5653 -1.5784  1.1817
41760SOL    HW230092   9.112   5.708  10.292  0.9876  0.1107  0.4608
41761SOL     OW30093   2.025  10.185   0.837  0.7867 -0.7601  0.4233
41761SOL    HW130094   2.015  10.269   0.881  2.3625  0.8172 -1.9870
41761SOL    HW230095   2.118  10.165   0.844  0.9901 -0.7317 -1.5708
41762SOL     OW30096   0.137   2.373   9.895  0.3333 -0.5664 -0.3077
41762SOL    HW130097   0.201   2.413   9.836  0.0797 -0.1650 -0.3130
41762SOL    HW230098   0.111   2.292   9.851  0.5922 -0.5678 -0.4595
41763SOL     OW30099  11.093  10.724  12.193  0.3830 -0.0750  0.8139
41763SOL    HW130100  11.134  10.810  12.181 -1.4878  0.5691 -1.8313
41763SOL    HW230101  11.035  10.736  12.269 -1.5056  1.8039 -0.7742
41764SOL     OW30102   8.422   6.209   8.885  0.6081 -0.2776  0.5708
41764SOL    HW130103   8.362   6.268   8.839  1.0572 -0.6524 -0.5279
41764SOL    HW230104   8.371   6.174   8.957 -0.3773 -0.3062 -0.1250
41765SOL     OW30105  10.413   1.555   2.676 -0.1612 -0.2350  0.1941
41765SOL    HW130106  10.505   1.543   2.701  0.1895  0.2464 -0.8323
41765SOL    HW230107  10.384   1.631   2.727 -0.5865 -1.5430  2.0082
41766SOL     OW30108   9.650   6.159   8.655 -0.1011  0.3835 -0.0233
41766SOL    HW130109   9.564   6.119   8.665 -0.5330  1.4129  0.5330
41766SOL    HW230110   9.649   6.233   8.716  0.9721  0.7418 -0.4198
41767SOL     OW30111  11.971   9.444   4.029 -0.3213  0.4022 -0.2535
41767SOL    HW130112  11.881   9.442   4.063 -0.0444  0.4858  0.5052
41767SOL    HW230113  11.966   9.500   3.952 -0.6471  1.6548  0.6387
41768SOL     OW30114   2.879   6.708  10.149 -0.1559 -0.2561  0.5484
41768SOL    HW130115   2.829   6.686  10.070 -0.3971  1.9761  0.0144
41768SOL    HW230116   2.970   6.697  10.123 -0.2340  0.4929 -0.0687
41769SOL     OW30117   4.587   3.973  10.051  0.1247  0.1536 -0.1248
41769SOL    HW130118   4.617   4.014  10.132  1.0981 -1.8069  0.5683
41769SOL    HW230119   4.656   3.911  10.028 -0.6562 -0.1403 -1.8542
41770SOL     OW30120   2.983   1.125   4.118 -0.4576  0.1050  0.5826
41770SOL    HW130121   3.061   1.154   4.071  0.2890  0.2774  1.8909
41770SOL    HW230122   2.912   1.137   4.055  0.5256  0.1445 -0.5669
41771SOL     OW30123   2.028   6.518  11.311  0.1357  0.1297 -0.0182
41771SOL    HW130124   2.038   6.607  11.343  2.2079  0.1121 -0.4839
41771SOL    HW230125   2.115   6.479  11.320 -0.5598 -1.6366 -0.4535
41772SOL     OW30126   3.804   3.035   8.983 -0.1756 -0.8197 -0.0424
41772SOL    HW130127   3.840   3.074   9.062 -0.3932 -0.2571 -0.2135
41772SOL    HW230128   3.880   3.011   8.930  0.0679  2.5376 -1.4822
41773SOL     OW30129   1.811   6.498   4.282  0.3639  0.7243  0.4174
41773SOL    HW130130   1.775   6.429   4.337 -0.6566  0.7288 -0.2160
41773SOL    HW230131   1.894   6.521   4.323  0.1703 -0.0776  1.2839
41774SOL     OW30132   8.974   0.961   4.542 -0.3625  0.1342  0.3975
41774SOL    HW130133   9.053   1.004   4.507 -1.0374  1.0320 -0.0449
41774SOL    HW230134   9.002   0.871   4.558 -0.3317 -0.8286 -3.8391
41775SOL     OW30135  10.829   3.854   5.774  0.1403 -0.3096 -0.5111
41775SOL    HW130136  10.790   3.824   5.692 -0.2832 -1.0614 -0.0476
41775SOL    HW230137  10.836   3.775   5.827  0.4443  0.1649  0.1678
41776SOL     OW30138   0.284   0.778   4.082 -0.6812 -0.2259 -0.1106
41776SOL    HW130139   0.229   0.707   4.050 -0.4809 -0.6408  0.4244
41776SOL    HW230140   0.330   0.739   4.157  1.4878 -0.3976 -1.4314
41777SOL     OW30141   0.535   3.012   3.772 -0.2261  0.2967 -0.5428
41777SOL    HW130142   0.450   3.035   3.734 -1.1061 -0.0532  1.0945
41777SOL    HW230143   0.515   2.942   3.834  1.4305 -0.4647 -0.8110
41778SOL     OW30144  10.673   3.613   0.238 -0.3403 -0.5664 -0.5290
41778SOL    HW130145  10.616   3.680   0.275  0.1032 -0.0374 -0.8042
41778SOL    HW230146  10.761   3.635   0.269 -0.4181 -2.1367  1.0172
41779SOL     OW30147   3.765   2.380   2.163 -0.0058 -0.1048 -0.2749
41779SOL    HW130148   3.804   2.380   2.251 -0.3055 -1.0416 -0.1298
41779SOL    HW230149   3.731   2.291   2.152  0.9701 -0.3299 -1.7569
41780SOL     OW30150   8.620   9.451  10.249  0.1535  0.3427  0.5064
41780SOL    HW130151   8.619   9.476  10.156  0.7583  0.6648  0.5823
41780SOL    HW230152   8.646   9.531  10.295  2.8143 -0.5341  0.6936
41781SOL     OW30153   9.193   3.979  10.863  0.7271  0.8226  0.1082
41781SOL    HW130154   9.194   3.896  10.814 -1.2582  1.0402 -0.4169
41781SOL    HW230155   9.228   3.957  10.949  1.7469 -0.1911 -0.5410
41782SOL     OW30156  12.525   1.764   5.793 -0.5926 -0.4144  0.0555
41782SOL    HW130157  12.505   1.805   5.877  4.2690  0.8182  0.9258
41782SOL    HW230158  12.529   1.837   5.732  1.6103 -0.4022  0.1487
41783SOL     OW30159   8.765   9.632   0.990  0.2447 -0.0979  0.3243
41783SOL    HW130160   8.822   9.708   0.978  0.1263  0.0414  0.6238
41783SOL    HW230161   8.706   9.658   1.061  0.9534 -0.9041  1.2300
41784SOL     OW30162   2.834   9.585  12.281  0.4494 -0.6761 -0.0344
41784SOL    HW130163   2.756   9.616  12.328  1.6681  2.2938  0.2398
41784SOL    HW230164   2.818   9.610  12.190  0.7859 -0.7015 -0.0995
41785SOL     OW30165   1.010   9.586  12.405 -0.0951 -0.2508 -0.5082
41785SOL    HW130166   1.061   9.542  12.338 -0.5522 -1.8756  0.1635
41785SOL    HW230167   0.991   9.518  12.470 -2.4694  0.4369 -0.3579
41786SOL     OW30168   6.057   9.037   0.199 -0.1138  0.1433 -0.6925
41786SOL    HW130169   6.002   8.985   0.258 -1.5252  0.6639 -1.5079
41786SOL    HW230170   6.047   8.995   0.114 -1.6340  1.9279 -1.4687
41787SOL     OW30171   8.796  11.258  10.283 -0.2729 -0.2679 -0.3008
41787SOL    HW130172   8.803  11.165  10.262  0.0578 -0.0272 -1.3146
41787SOL    HW230173   8.733  11.261  10.355 -1.6209 -1.1440 -1.3888
41788SOL     OW30174   9.735   6.649   1.802 -0.5069  0.5359 -0.6355
41788SOL    HW130175   9.780   6.714   1.857  1.5962 -0.5012 -1.0057
41788SOL    HW230176   9.646   6.646   1.836  0.1176  1.5671  1.2415
41789SOL     OW30177   6.339   1.050  12.594 -0.2899  0.1903 -0.1676
41789SOL    HW130178   6.287   1.130  12.599  1.7235  1.4729  1.6370
41789SOL    HW230179   6.366   1.033  12.684  1.1837 -1.2604 -0.8331
41790SOL     OW30180  10.839   2.315   7.641 -0.1453  0.0228 -0.1188
41790SOL    HW130181  10.777   2.376   7.680  2.1488  3.7805 -1.7509
41790SOL    HW230182  10.907   2.304   7.708  0.2658  0.7001 -0.4096
41791SOL     OW30183   8.187  12.371   9.351 -0.1702 -0.1181  0.2541
41791SOL    HW130184   8.124  12.387   9.421  0.1952  0.5299  0.4374
41791SOL    HW230185   8.136  12.325   9.284 -1.5207  2.5019 -0.6487
41792SOL     OW30186   1.393   9.708  11.192  0.4264 -0.3027  0.2565
41792SOL    HW130187   1.419   9.656  11.269 -0.0152  0.2934  0.8192
41792SOL    HW230188   1.453   9.782  11.191 -1.4491  1.3815  1.8845
41793SOL     OW30189   4.734   6.250   7.838  0.0028 -0.2596 -0.1498
41793SOL    HW130190   4.822   6.231   7.806 -0.0778 -0.6134 -0.1627
41793SOL    HW230191   4.698   6.312   7.775  0.1128 -0.3855 -0.3353
41794SOL     OW30192   0.772   1.395   3.646  0.2521  0.0178  0.3360
41794SOL    HW130193   0.825   1.429   3.717 -0.3290  1.2642  0.2127
41794SOL    HW230194   0.718   1.469   3.619 -0.7491 -0.8988 -0.2757
41795SOL     OW30195   8.233   6.414  12.103  0.4390  0.1526 -0.2471
41795SOL    HW130196   8.140   6.427  12.083  0.0966 -1.1860  0.3176
41795SOL    HW230197   8.279   6.445  12.026 -0.4999  0.6309 -0.6257
41796SOL     OW30198  12.522  11.943   9.067 -0.0239  0.4801  0.2549
41796SOL    HW130199  12.484  11.955   8.980  0.0598 -1.0350 -0.0049
41796SOL    HW230200  12.451  11.966   9.127 -0.9390 -0.9935 -0.2230
41797SOL     OW30201   2.974   8.016   3.442  0.1762  0.3388 -0.9178
41797SOL    HW130202   3.040   8.043   3.506  0.7813 -1.4168 -0.7538
41797SOL    HW230203   2.981   8.081   3.372 -0.5824  2.3794  0.7850
41798SOL     OW30204   0.614   2.110   7.260 -0.2842 -0.0891 -0.3358
41798SOL    HW130205   0.558   2.071   7.193 -1.2895  0.7317  0.0075
41798SOL    HW230206   0.572   2.193   7.282  0.6334  0.1771  0.5173
41799SOL     OW30207   4.586   4.008   9.515  0.2466 -0.0486 -0.3605
41799SOL    HW130208   4.505   3.959   9.524  0.0250  0.3272 -0.2937
41799SOL    HW230209   4.560   4.092   9.477  0.4478  0.5247  0.7341
41800SOL     OW30210  11.264   2.043   0.980 -0.4490  0.0889 -0.4602
41800SOL    HW130211  11.279   2.032   1.074  2.2084  1.7811 -0.5865
41800SOL    HW230212  11.170   2.034   0.970 -0.5446 -3.6274  1.8099
41801SOL     OW30213   8.896   0.086   6.814 -0.1706 -0.1778 -0.0897
41801SOL    HW130214   8.864   0.113   6.728  2.3044  1.2400 -0.6753
41801SOL    HW230215   8.896   0.166   6.867 -0.3799 -0.7453  0.8023
41802SOL     OW30216  11.376   1.394   6.185 -0.0268 -0.2398 -0.4928
41802SOL    HW130217  11.360   1.451   6.260 -0.4850 -0.8505 -0.1175
41802SOL    HW230218  11.343   1.443   6.110  0.9068  0.5992 -0.3843
41803SOL     OW30219  11.806  11.710   4.270 -0.1108  0.3711  0.0729
41803SOL    HW130220  11.802  11.748   4.358  1.4697  0.5821  0.0865
41803SOL    HW230221  11.799  11.785   4.211  0.3897  0.4100  0.0571
41804SOL     OW30222  10.200   1.396  11.100  0.5929 -0.1288  0.1415
41804SOL    HW130223  10.289   1.408  11.069  0.8412  1.2019  1.2769
41804SOL    HW230224  10.209   1.382  11.195 -0.4965  2.3063  0.6839
41805SOL     OW30225   7.360   0.571  11.018  0.0120 -0.0342  1.0367
41805SOL    HW130226   7.330   0.652  11.059  1.6227 -0.0477  2.3687
41805SOL    HW230227   7.442   0.550  11.064  0.7127 -1.3084 -0.6699
41806SOL     OW30228   8.002   6.747   9.174  0.4219  0.3846 -0.4213
41806SOL    HW130229   8.026   6.728   9.083 -0.0457  0.2818 -0.5252
41806SOL    HW230230   7.980   6.840   9.174 -1.7044 -0.0583 -0.9051
41807SOL     OW30231  11.344   1.185   8.708 -0.0823  0.7965 -0.9507
41807SOL    HW130232  11.321   1.147   8.623 -0.0306 -1.0474 -0.1944
41807SOL    HW230233  11.348   1.110   8.767 -1.5046  2.1684  1.0150
41808SOL     OW30234  12.243   6.773   7.853  0.1032 -0.9407 -0.1776
41808SOL    HW130235  12.186   6.753   7.778 -1.3831 -1.9489  1.1479
41808SOL    HW230236  12.322   6.809   7.814 -0.9570 -0.6318 -2.1835
41809SOL     OW30237   4.080  11.769  10.492  0.1724  0.1008  0.1360
41809SOL    HW130238   4.044  11.837  10.550 -1.4010  0.3849 -1.1039
41809SOL    HW230239   4.138  11.817  10.433  1.0252 -0.0467  0.8287
41810SOL     OW30240  11.650  12.113   9.188  0.3118  0.3794 -0.1326
41810SOL    HW130241  11.569  12.159   9.163 -0.3828 -1.6009 -1.8037
41810SOL    HW230242  11.716  12.182   9.193 -1.4033  2.0477  1.1844
41811SOL     OW30243   5.541   3.899   7.115  0.0082 -0.5390  0.3975
41811SOL    HW130244   5.628   3.921   7.149 -0.3442  1.2977  0.2228
41811SOL    HW230245   5.558   3.850   7.035  0.9850  1.5413 -0.7722
41812SOL     OW30246  10.727   2.416   6.580 -0.7811 -0.7751 -0.3314
41812SOL    HW130247  10.733   2.491   6.521 -1.3792 -1.9771 -1.9597
41812SOL    HW230248  10.634   2.397   6.586 -0.6687 -1.1608  0.4054
41813SOL     OW30249   7.037   9.436   5.720  0.3745  0.5004 -0.0970
41813SOL    HW130250   7.121   9.391   5.714  0.7579  0.9419  1.4685
41813SOL    HW230251   7.010   9.423   5.811 -0.3403  1.9484 -0.0758
41814SOL     OW30252  11.107   0.514   6.183  0.3108 -0.1498 -0.2518
41814SOL    HW130253  11.150   0.596   6.157  0.2227 -0.4743 -1.5238
41814SOL    HW230254  11.018   0.522   6.146 -0.4257  0.0965  1.4868
41815SOL     OW30255   3.702   1.816  10.829  0.1482 -0.5709  0.1413
41815SOL    HW130256   3.705   1.749  10.761 -0.8748 -0.9719  0.4729
41815SOL    HW230257   3.736   1.895  10.787 -1.9367 -0.3750 -1.3441
41816SOL     OW30258   3.762   0.797   2.558 -0.1431 -0.6350 -0.0817
41816SOL    HW130259   3.768   0.892   2.551  0.2418 -0.4711  1.8600
41816SOL    HW230260   3.841   0.772   2.605  1.0899 -2.2623 -2.7545
41817SOL     OW30261   3.738   5.132   2.045  0.3241 -0.4462 -0.0983
41817SOL    HW130262   3.684   5.209   2.064  0.7598 -0.4178  1.0497
41817SOL    HW230263   3.688   5.085   1.978  0.8419  1.6892 -2.1312
41818SOL     OW30264   1.952   8.419  10.484  0.4309  0.2678 -0.4831
41818SOL    HW130265   1.896   8.369  10.424 -0.2550 -1.8026  1.7342
41818SOL    HW230266   1.891   8.473  10.534  1.1105  3.0688 -2.4116
41819SOL     OW30267  10.590   6.776   8.846  0.3486 -0.2761  0.4423
41819SOL    HW130268  10.657   6.710   8.825 -0.5353 -1.3444  0.8517
41819SOL    HW230269  10.590   6.835   8.772  0.5345 -1.2765 -0.3803
41820SOL     OW30270   2.803   0.693   2.461 -0.1997 -0.5940  0.1505
41820SOL    HW130271   2.749   0.773   2.459 -0.9583 -1.1144 -0.5281
41820SOL    HW230272   2.874   0.715   2.522  0.3669  1.0808 -1.0331
41821SOL     OW30273   1.085   4.194   7.116  0.0972  0.1394 -0.2801
41821SOL    HW130274   1.175   4.204   7.147  0.1865 -0.7289 -0.2504
41821SOL    HW230275   1.058   4.283   7.094  0.7390  0.4935  0.3224
41822SOL     OW30276  11.895  10.514   5.827 -0.6377 -0.2424  0.6777
41822SOL    HW130277  11.976  10.533   5.780 -0.7013 -0.2727  0.5576
41822SOL    HW230278  11.830  10.497   5.759 -1.3057  1.9114  0.6762
41823SOL     OW30279   6.855   6.398  11.459  0.2565  0.7706 -0.9042
41823SOL    HW130280   6.876   6.473  11.514 -2.4111  0.3321  0.9297
41823SOL    HW230281   6.932   6.341  11.464  0.3170  0.9724  2.0840
41824SOL     OW30282   0.850   4.428   9.318 -0.0528  0.3091 -0.2705
41824SOL    HW130283   0.921   4.364   9.320 -0.2795 -0.0084 -1.4355
41824SOL    HW230284   0.797   4.408   9.395  0.7562  0.1293  0.2432
41825SOL     OW30285   4.460   5.578  12.120 -0.1533 -0.5328 -0.3652
41825SOL    HW130286   4.503   5.514  12.064 -0.4122 -0.1429 -1.0199
41825SOL    HW230287   4.401   5.626  12.061  1.0116  1.2061 -0.1888
41826SOL     OW30288   8.628   5.361  11.767 -0.2990 -0.2430 -0.2686
41826SOL    HW130289   8.652   5.449  11.796 -0.3476 -0.3410  0.0771
41826SOL    HW230290   8.542   5.371  11.727 -0.5488 -0.2186  0.2574
41827SOL     OW30291   8.242  10.150   6.157  0.2193 -0.7053  0.1612
41827SOL    HW130292   8.332  10.178   6.140  0.2957 -0.3241  1.1360
41827SOL    HW230293   8.246  10.104   6.241 -0.4764 -0.7619  0.1700
41828SOL     OW30294   8.603   3.893   1.558  0.8280 -0.9189 -0.2078
41828SOL    HW130295   8.597   3.889   1.653 -2.2605  1.1508 -0.1489
41828SOL    HW230296   8.601   3.986   1.538  0.2130 -1.3290 -2.3168
41829SOL     OW30297   2.853   5.480   2.100  0.5904 -0.7838  0.4211
41829SOL    HW130298   2.823   5.556   2.150  0.9707 -0.0466 -0.4340
41829SOL    HW230299   2.929   5.513   2.052 -0.7520 -0.9573 -1.9667
41830SOL     OW30300  10.417   1.309   6.012  0.8861 -0.5967 -0.6646
41830SOL    HW130301  10.481   1.316   5.941  0.9895 -1.5862 -0.6762
41830SOL    HW230302  10.457   1.248   6.074 -0.0545 -1.2152 -0.6634
41831SOL     OW30303   1.098   0.901   3.620  0.0583  0.2716 -0.0053
41831SOL    HW130304   1.105   0.817   3.576  2.4315  0.6650 -0.5159
41831SOL    HW230305   1.097   0.966   3.549  0.4057  0.7474  0.4131
41832SOL     OW30306   0.788   6.602   6.130  0.2814 -0.2136  0.1353
41832SOL    HW130307   0.711   6.560   6.168  0.5472 -0.6251  0.2249
41832SOL    HW230308   0.856   6.534   6.130  0.9080  0.3868  0.8621
41833SOL     OW30309   2.212   0.943  11.404  0.4897 -0.3322  0.3762
41833SOL    HW130310   2.179   0.996  11.332  1.8966 -0.1835 -0.1997
41833SOL    HW230311   2.250   1.006  11.465 -0.3973 -0.4826  1.0953
41834SOL     OW30312   6.879   5.911   8.433  0.2466  0.4827  0.0982
41834SOL    HW130313   6.887   5.905   8.338 -0.6958 -1.7531  0.0913
41834SOL    HW230314   6.925   5.834   8.466 -2.6735 -0.9483  1.1608
41835SOL     OW30315  10.647   8.868  10.845  0.3699 -0.0958  1.1495
41835SOL    HW130316  10.641   8.772  10.841  1.1271 -0.1163  0.1980
41835SOL    HW230317  10.587   8.898  10.777  0.0682  0.1152  1.5059
41836SOL     OW30318   1.274  11.477   7.440 -0.2479 -0.4401 -0.5817
41836SOL    HW130319   1.243  11.543   7.378  2.4256  1.9919  0.4836
41836SOL    HW230320   1.361  11.453   7.409  0.7377  0.0956  1.5975
41837SOL     OW30321  11.375   3.136   7.811  0.0225  0.0359  0.4623
41837SOL    HW130322  11.417   3.206   7.860  0.4801  1.3011 -1.6499
41837SOL    HW230323  11.309   3.180   7.757 -1.5755 -1.4994  1.0642
41838SOL     OW30324   0.157  10.841  12.051  0.1699 -0.0417 -0.5566
41838SOL    HW130325   0.249  10.830  12.025  0.1533 -0.9063 -0.2790
41838SOL    HW230326   0.143  10.773  12.116 -0.1862  1.1579  0.6860
41839SOL     OW30327   7.701  10.940   1.649 -0.4576 -0.0596  0.2419
41839SOL    HW130328   7.701  10.955   1.555 -0.7331  0.0000  0.2503
41839SOL    HW230329   7.644  10.864   1.662  0.2011 -0.5474  0.2867
41840SOL     OW30330   4.479   4.479   0.708  0.1861 -0.8411 -0.4381
41840SOL    HW130331   4.413   4.524   0.655  2.8689  3.0966 -0.8598
41840SOL    HW230332   4.455   4.501   0.798  1.3021  1.4998 -0.6271
41841SOL     OW30333   5.152   9.119   3.114  0.3940 -0.2775  0.1937
41841SOL    HW130334   5.222   9.077   3.064  1.6330  0.5261  1.2154
41841SOL    HW230335   5.167   9.212   3.104 -1.3847 -0.0372 -0.7090
41842SOL     OW30336   6.640  12.615  12.242 -0.3999  0.2253  0.5755
41842SOL    HW130337   6.650  12.603  12.148 -0.1812 -1.1341  0.7461
41842SOL    HW230338   6.556  12.573  12.262  0.5614 -1.4993  1.2718
41843SOL     OW30339   5.491   8.197   5.232  0.6605 -0.6489  0.3671
41843SOL    HW130340   5.399   8.214   5.212  0.6482 -1.9132 -0.8315
41843SOL    HW230341   5.492   8.175   5.325  0.0850  1.3749  0.9099
41844SOL     OW30342   4.794   8.893   0.246 -0.2942  0.1692  0.3233
41844SOL    HW130343   4.736   8.910   0.321  0.2619  1.0033  0.5716
41844SOL    HW230344   4.856   8.827   0.278 -0.3157  0.2167  0.4635
41845SOL     OW30345  12.053   0.244   3.995 -0.5021 -0.2070 -0.1186
41845SOL    HW130346  12.124   0.283   3.944  0.2849  0.2890  1.3191
41845SOL    HW230347  12.088   0.160   4.025 -0.7227 -0.2066  0.1415
41846SOL     OW30348   9.181   4.471   3.006 -0.0577  0.3259 -0.0350
41846SOL    HW130349   9.276   4.476   3.007  0.1267 -1.8471  1.5297
41846SOL    HW230350   9.162   4.377   3.004 -2.1973  0.7039 -1.0782
41847SOL     OW30351   6.728  10.770   8.073  0.2360 -0.5932 -0.1533
41847SOL    HW130352   6.648  10.760   8.124  0.1886 -1.3866 -0.3661
41847SOL    HW230353   6.728  10.862   8.046 -0.6150 -0.5904 -0.1731
41848SOL     OW30354   9.938   4.384   5.161  0.2643 -0.3944 -0.5192
41848SOL    HW130355  10.009   4.327   5.191  1.7269  0.7463 -1.7267
41848SOL    HW230356   9.918   4.353   5.072 -1.2432 -1.1154  0.0234
41849SOL     OW30357   2.605   0.432   3.392  0.2907 -0.7015  0.2519
41849SOL    HW130358   2.557   0.487   3.455 -1.1334  0.1554 -1.5057
41849SOL    HW230359   2.693   0.468   3.393 -0.2183  0.6167  0.3018
41850SOL     OW30360   3.447   8.834  11.972 -0.0805 -0.0333 -0.6266
41850SOL    HW130361   3.490   8.806  12.052 -0.7666 -0.6201 -0.4402
41850SOL    HW230362   3.487   8.917  11.949 -0.4800  0.5819  0.8119
41851SOL     OW30363   0.770  10.820  11.304 -0.0472 -0.1059 -0.4680
41851SOL    HW130364   0.826  10.743  11.309 -0.1162 -0.2795 -2.0791
41851SOL    HW230365   0.809  10.881  11.367  0.2010 -1.3024  0.5797
41852SOL     OW30366  11.373   0.278   3.583  0.1897 -0.3208 -0.4208
41852SOL    HW130367  11.313   0.211   3.615 -3.2220  2.4199 -0.4655
41852SOL    HW230368  11.396   0.249   3.495 -1.3166 -1.3835 -0.5034
41853SOL     OW30369   7.862  10.300   8.616 -0.2335 -0.0397 -0.1491
41853SOL    HW130370   7.827  10.331   8.700  0.7014 -1.3584  0.7550
41853SOL    HW230371   7.791  10.317   8.553 -1.5396 -0.3932  1.1727
41854SOL     OW30372   1.261  10.315  10.876 -0.1267 -0.5008 -0.0398
41854SOL    HW130373   1.317  10.254  10.924 -0.1608 -2.2679 -2.0565
41854SOL    HW230374   1.265  10.284  10.785 -1.6203  1.4411 -0.8409
41855SOL     OW30375  11.595   5.398   5.597 -0.0148  0.8215  0.3851
41855SOL    HW130376  11.612   5.473   5.540  0.7708  1.4863  1.4569
41855SOL    HW230377  11.682   5.367   5.622 -0.3002  1.5333  2.4512
41856SOL     OW30378  11.698   1.051   0.523  0.6493 -0.9582  0.2686
41856SOL    HW130379  11.682   1.142   0.545 -0.7928 -1.4391  1.3356
41856SOL    HW230380  11.791   1.048   0.499  0.8908  0.6391  0.9044
41857SOL     OW30381  12.578   7.009   7.607  0.1079 -0.5808 -0.3259
41857SOL    HW130382  12.636   6.951   7.557  1.3116  1.6044 -1.6073
41857SOL    HW230383  12.509   7.033   7.545  1.0950  1.3998 -0.7402
41858SOL     OW30384   6.972   6.787   5.919 -0.0746 -0.1542 -0.5335
41858SOL    HW130385   6.984   6.788   5.824  1.0485 -1.0113 -0.4248
41858SOL    HW230386   7.058   6.812   5.954  0.0652 -1.6188  0.2621
41859SOL     OW30387   7.532   4.411   7.380 -0.1163  0.2745 -0.4608
41859SOL    HW130388   7.580   4.484   7.419 -0.4314 -0.2478  0.9503
41859SOL    HW230389   7.459   4.451   7.334 -0.1437  0.8720  0.0918
41860SOL     OW30390   6.749   5.976   9.737  0.0864 -0.3363  0.0064
41860SOL    HW130391   6.670   5.950   9.784  0.1381 -2.9679 -1.1988
41860SOL    HW230392   6.717   6.015   9.656  0.0368 -0.2495  0.0670
41861SOL     OW30393   3.392   7.269   6.662  0.6342  0.3676  0.2994
41861SOL    HW130394   3.320   7.327   6.636  0.1680 -0.2422  0.2258
41861SOL    HW230395   3.468   7.327   6.667  0.0736  1.0896  0.7081
41862SOL     OW30396   1.633   0.378  12.312  0.1416  0.4039 -0.3841
41862SOL    HW130397   1.649   0.467  12.342 -0.3986 -0.2584  2.1179
41862SOL    HW230398   1.596   0.388  12.224  1.3956  2.5334 -0.7416
41863SOL     OW30399   7.536  11.138   5.459 -0.3936 -0.0797 -0.2833
41863SOL    HW130400   7.528  11.064   5.519 -0.4227  0.9160  0.9817
41863SOL    HW230401   7.550  11.098   5.374  1.0554 -1.5432  0.5752
41864SOL     OW30402  12.552   5.517   2.416 -0.0195  0.7424  0.0862
41864SOL    HW130403  12.627   5.468   2.384 -0.1334  0.0903  0.7758
41864SOL    HW230404  12.523   5.468   2.494 -2.1188  0.0730 -1.0305
41865SOL     OW30405  11.036   0.380   0.019  0.5992 -0.4137  0.4315
41865SOL    HW130406  11.036   0.284   0.021 -2.1835 -0.5549 -1.3173
41865SOL    HW230407  11.111   0.402  -0.036 -0.5370 -1.8196 -1.8361
41866SOL     OW30408   4.850   8.146  10.318  0.3019  0.1340 -0.2191
41866SOL    HW130409   4.788   8.142  10.246  0.4223  0.5820 -0.3484
41866SOL    HW230410   4.835   8.231  10.359  1.3158  0.5542 -0.6923
41867SOL     OW30411   0.652   4.166   0.258  0.1207 -0.0759  0.5270
41867SOL    HW130412   0.669   4.149   0.165 -0.2723 -0.3302  0.4984
41867SOL    HW230413   0.719   4.114   0.304  0.3773  0.1287  0.3856
41868SOL     OW30414   8.843  12.079   6.065 -0.0518  0.3375  0.5182
41868SOL    HW130415   8.775  12.017   6.091  0.7583  0.3327  2.8516
41868SOL    HW230416   8.797  12.163   6.057 -0.3218  0.4125  2.4772
41869SOL     OW30417   3.292   2.613   9.896  0.0427 -0.2637  0.0635
41869SOL    HW130418   3.217   2.629   9.953  1.1464  0.8038  1.3042
41869SOL    HW230419   3.306   2.519   9.900 -0.1184 -0.2511  1.2965
41870SOL     OW30420  10.123   4.750   1.677 -0.0884 -0.6948 -0.1226
41870SOL    HW130421  10.046   4.798   1.648  0.1546  0.3171  0.8082
41870SOL    HW230422  10.089   4.677   1.729 -0.4361  0.0409  0.7164
41871SOL     OW30423   0.511   9.224   0.453 -0.1038 -0.1891 -0.5287
41871SOL    HW130424   0.439   9.200   0.394 -0.6191 -1.4933  0.5663
41871SOL    HW230425   0.585   9.172   0.423  0.1527  0.5062 -1.1230
41872SOL     OW30426  10.877  10.479   1.252  0.2518  0.0860 -0.5073
41872SOL    HW130427  10.934  10.403   1.246  2.6449  1.8544 -2.5547
41872SOL    HW230428  10.907  10.537   1.182 -1.1319  3.0899  1.1725
41873SOL     OW30429  11.884   4.449   6.726 -0.4126 -0.3129 -0.2634
41873SOL    HW130430  11.931   4.370   6.752 -0.3573 -0.7727 -1.6742
41873SOL    HW230431  11.799   4.417   6.695 -0.2960  0.1291 -1.0864
41874SOL     OW30432  12.565   4.911   7.160  0.1862 -0.3165  0.1331
41874SOL    HW130433  12.517   4.994   7.170 -0.8623 -0.7098 -1.3271
41874SOL    HW230434  12.657   4.935   7.174 -0.3506  0.4861  2.9155
41875SOL     OW30435   5.357   4.245  11.877 -1.1032  0.0871 -0.0848
41875SOL    HW130436   5.267   4.242  11.909 -0.2002 -1.5204  2.6044
41875SOL    HW230437   5.397   4.318  11.924 -0.9110  0.6860 -1.1387
41876SOL     OW30438   8.999   7.298   0.177  0.1510  0.3922  0.3180
41876SOL    HW130439   9.047   7.354   0.116  0.7104 -0.1488  0.2517
41876SOL    HW230440   8.968   7.224   0.124  2.6890 -1.3371  1.0740
41877SOL     OW30441   6.030   5.376   1.074  0.2021 -0.0450  0.0321
41877SOL    HW130442   6.013   5.435   1.148  0.5114  0.2921 -0.1635
41877SOL    HW230443   5.943   5.350   1.044  0.0721 -0.2508  0.5642
41878SOL     OW30444   2.052  11.754   8.413 -0.0259 -0.2413  0.0915
41878SOL    HW130445   2.113  11.810   8.365 -0.0880 -0.0393  0.2492
41878SOL    HW230446   2.034  11.681   8.352  0.8180 -0.6084  0.2632
41879SOL     OW30447  12.161   2.311  11.856  0.3649  0.6885 -0.1394
41879SOL    HW130448  12.244   2.353  11.835 -0.0060  0.2344 -3.0492
41879SOL    HW230449  12.103   2.335  11.783 -1.8627  0.4081  1.4223
41880SOL     OW30450  10.292  11.142   0.607  0.2759  0.0324 -0.3311
41880SOL    HW130451  10.302  11.189   0.689  1.2184 -0.5158 -0.1269
41880SOL    HW230452  10.288  11.211   0.540 -2.4488  0.6174  0.2860
41881SOL     OW30453   2.186   5.606   2.431  0.1580 -0.2892 -0.2640
41881SOL    HW130454   2.236   5.602   2.512  0.4446  0.5209 -0.3973
41881SOL    HW230455   2.129   5.683   2.441  1.5469  0.9793 -1.5866
41882SOL     OW30456   1.610   9.874   2.423  0.4173 -0.2761 -0.1763
41882SOL    HW130457   1.635   9.781   2.428  0.7378 -0.2056 -0.4312
41882SOL    HW230458   1.660   9.916   2.493 -0.3700 -0.4271  0.4995
41883SOL     OW30459   4.565   9.553   0.778  0.1966  0.1770  0.4998
41883SOL    HW130460   4.654   9.576   0.803 -0.6143  1.1178  2.8620
41883SOL    HW230461   4.514   9.566   0.858 -2.1528  0.1456 -0.9070
41884SOL     OW30462  12.166   1.447   0.094 -0.2807 -0.1343  0.5468
41884SOL    HW130463  12.225   1.513   0.059  2.2242 -1.7773  1.3553
41884SOL    HW230464  12.124   1.408   0.017 -1.8363  2.3148  0.0702
41885SOL     OW30465   3.666   2.788   4.146  0.0002  0.3500  0.5530
41885SOL    HW130466   3.597   2.851   4.121 -0.8733  0.2725  2.5353
41885SOL    HW230467   3.736   2.843   4.181 -0.3464  0.3000  1.3522
41886SOL     OW30468   1.600   6.676   2.252  0.5247 -0.3303 -0.1560
41886SOL    HW130469   1.582   6.583   2.268 -0.8674  0.0910  1.0639
41886SOL    HW230470   1.532   6.703   2.190 -1.5899  0.6552  2.3678
41887SOL     OW30471   4.906   7.254   1.092 -0.2905  0.4559 -0.2035
41887SOL    HW130472   4.851   7.268   1.016  0.2229  0.7315 -0.5282
41887SOL    HW230473   4.936   7.163   1.084  1.0330  0.9392 -1.1941
41888SOL     OW30474   4.383   1.416  12.560  0.2058 -0.0199 -0.2809
41888SOL    HW130475   4.452   1.427  12.494 -1.0985 -2.0449 -2.1252
41888SOL    HW230476   4.408   1.338  12.609  0.3076  0.5026  0.5149
41889SOL     OW30477   6.954   2.184   9.600 -0.1538  0.3597  0.0127
41889SOL    HW130478   6.877   2.234   9.628 -0.1758  0.1110  0.4162
41889SOL    HW230479   7.028   2.227   9.644 -0.3225 -0.7644  1.4739
41890SOL     OW30480   1.484   4.356   6.075  0.2073  0.0410 -0.5985
41890SOL    HW130481   1.392   4.333   6.063  0.3310 -1.0462  0.3761
41890SOL    HW230482   1.482   4.427   6.139 -0.0024  0.7836 -1.4077
41891SOL     OW30483   1.423   2.204   6.371  0.4810  0.1578 -0.2652
41891SOL    HW130484   1.460   2.285   6.335  0.2924  0.8828  1.1100
41891SOL    HW230485   1.500   2.149   6.389  0.6309  0.1510 -0.8984
41892SOL     OW30486   1.016   5.070   2.813  0.1416 -0.7157  0.5717
41892SOL    HW130487   1.057   4.987   2.789 -0.9102 -0.9827 -0.3927
41892SOL    HW230488   1.000   5.114   2.729 -1.0576 -0.4033  0.9405
41893SOL     OW30489   3.134   0.472  11.550  0.3769 -0.2276  0.2131
41893SOL    HW130490   3.104   0.557  11.582  0.1173 -0.4662  0.6078
41893SOL    HW230491   3.229   0.473  11.563  0.0903 -1.0727  2.8272
41894SOL     OW30492   7.694   9.195   9.173 -0.4758 -0.9065  0.3032
41894SOL    HW130493   7.756   9.152   9.232  1.3447  1.7459  0.5069
41894SOL    HW230494   7.644   9.254   9.229  0.4255  0.7342 -0.5281
41895SOL     OW30495  10.657  10.370   9.764  0.9221  0.5900 -0.0908
41895SOL    HW130496  10.669  10.332   9.851  2.1020  1.1726  0.0326
41895SOL    HW230497  10.664  10.296   9.703 -0.3857  0.1082  0.3141
41896SOL     OW30498   0.960  10.659   7.817  0.3087  0.1948 -0.0301
41896SOL    HW130499   0.972  10.752   7.799 -0.7883  0.2979 -0.2658
41896SOL    HW230500   0.895  10.630   7.753 -0.0224 -0.5316  0.6184
41897SOL     OW30501   0.841   1.532   7.054  0.0246 -0.2107  0.5712
41897SOL    HW130502   0.792   1.533   6.972  1.2007  0.0559 -0.1497
41897SOL    HW230503   0.793   1.592   7.111 -0.0091  0.7213 -0.4038
41898SOL     OW30504   6.818  10.124   8.447  0.1791  0.4104  1.1543
41898SOL    HW130505   6.870  10.057   8.491  1.5403  0.9156  0.3544
41898SOL    HW230506   6.840  10.205   8.491  0.8008  0.7696  0.2109
41899SOL     OW30507  12.128   2.577   9.438 -0.5633 -0.8434  0.2245
41899SOL    HW130508  12.187   2.503   9.424 -0.3590 -0.8589  1.1189
41899SOL    HW230509  12.048   2.537   9.472  0.3784 -0.5057  3.1155
41900SOL     OW30510   1.517   6.111   6.089  0.0427  0.0287  0.2959
41900SOL    HW130511   1.525   6.184   6.150 -3.3323  0.7132  0.1255
41900SOL    HW230512   1.525   6.032   6.143  3.5747  0.4126  0.5057
41901SOL     OW30513   9.542  10.065  11.725  0.3528 -0.2178  0.0310
41901SOL    HW130514   9.630  10.033  11.747  0.2717 -0.1349  0.4909
41901SOL    HW230515   9.549  10.095  11.635  0.3299 -1.8901 -0.5642
41902SOL     OW30516   7.955   8.215   4.973  0.6561  0.1841 -0.0095
41902SOL    HW130517   7.904   8.269   4.914 -0.4193 -0.3556  0.3980
41902SOL    HW230518   7.956   8.128   4.932 -0.9444 -0.4536  1.1864
41903SOL     OW30519   6.880   5.701   1.221 -0.3840 -0.7648  0.0547
41903SOL    HW130520   6.973   5.692   1.200 -0.4327  0.5576 -0.8129
41903SOL    HW230521   6.835   5.662   1.147 -0.5212  1.1519 -0.9276
41904SOL     OW30522   9.995   9.211   3.773  0.5539  0.1721  0.4264
41904SOL    HW130523  10.029   9.283   3.826  0.8563 -0.1135  0.6198
41904SOL    HW230524  10.049   9.212   3.694  0.6383  0.0829  0.4823
41905SOL     OW30525  11.595   4.018   0.632 -0.1870 -0.2401 -0.2728
41905SOL    HW130526  11.593   3.939   0.578  0.5328 -1.7101  1.7435
41905SOL    HW230527  11.518   4.012   0.687  0.6426 -0.3285  0.9213
41906SOL     OW30528   2.488  11.180  11.867 -0.3516  0.3684 -0.0839
41906SOL    HW130529   2.492  11.192  11.772 -0.1789 -1.6043 -0.3573
41906SOL    HW230530   2.563  11.126  11.888 -0.3664  0.8137  1.2105
41907SOL     OW30531   0.979   8.156   6.990  0.4614 -0.4817 -0.6988
41907SOL    HW130532   0.892   8.157   6.951 -0.3928  0.5966  1.0867
41907SOL    HW230533   0.965   8.125   7.080  1.9777 -0.6191 -0.4701
41908SOL     OW30534   8.638  12.204  10.243  0.1959  0.5302  0.0296
41908SOL    HW130535   8.625  12.278  10.302  1.0639 -0.2887  1.3095
41908SOL    HW230536   8.596  12.230  10.161 -0.0230  2.1829  0.6361
41909SOL     OW30537   7.740  12.623   2.061 -0.0285  0.4005 -0.2510
41909SOL    HW130538   7.717  12.635   1.969  0.8658  0.8762 -0.4240
41909SOL    HW230539   7.657  12.626   2.107 -0.6769 -1.3948 -1.1942
41910SOL     OW30540   6.274  11.915   8.792  0.1912  0.4533  0.7250
41910SOL    HW130541   6.340  11.975   8.827 -0.0189  1.2602 -0.2130
41910SOL    HW230542   6.305  11.896   8.703 -0.6330  0.5406  0.4125
41911SOL     OW30543  12.237  10.535   4.842  0.0427  0.2090 -0.8231
41911SOL    HW130544  12.187  10.614   4.826 -0.0785  0.1664 -0.6561
41911SOL    HW230545  12.268  10.508   4.755 -0.2319  0.2292 -0.9296
41912SOL     OW30546  11.436   9.117   1.573 -0.3447  0.0316 -0.0471
41912SOL    HW130547  11.475   9.081   1.493 -0.0626  0.4393 -0.0955
41912SOL    HW230548  11.355   9.068   1.584 -0.1713 -0.3271 -0.3457
41913SOL     OW30549   6.838   1.744   3.649  0.1758  0.2454  0.4906
41913SOL    HW130550   6.878   1.829   3.630 -0.6567  0.8356  1.2730
41913SOL    HW230551   6.913   1.685   3.660  0.8555  1.2570  1.6174
41914SOL     OW30552   3.477  11.173   0.810  0.1213  0.0569 -0.7086
41914SOL    HW130553   3.522  11.217   0.882  1.7667 -1.5262 -0.7189
41914SOL    HW230554   3.490  11.231   0.735  1.4065  0.0478 -0.5085
41915SOL     OW30555   0.960   9.567   8.127 -0.0889 -0.1324 -0.2533
41915SOL    HW130556   0.896   9.618   8.177 -0.8754  0.2105 -1.5523
41915SOL    HW230557   0.992   9.501   8.188 -0.9369  0.3343  0.7177
41916SOL     OW30558   3.933   1.508  11.422  0.5217 -0.4322 -0.1592
41916SOL    HW130559   4.012   1.536  11.467 -0.1541 -0.1343  0.8679
41916SOL    HW230560   3.861   1.532  11.481 -0.2791 -1.5219 -0.6495
41917SOL     OW30561   3.924   5.541   2.939  0.7452  0.0328 -0.1264
41917SOL    HW130562   3.849   5.600   2.947 -0.5227 -1.6354  1.1635
41917SOL    HW230563   3.992   5.579   2.994  0.0907  0.4933  0.3691
41918SOL     OW30564   0.523   6.852   9.313  0.6663 -0.1143 -0.2806
41918SOL    HW130565   0.564   6.917   9.256  0.4187  0.8596  0.6146
41918SOL    HW230566   0.433   6.844   9.281  1.2091 -1.4558 -1.5759
41919SOL     OW30567  11.134   0.491  12.182  0.0779 -0.6684  0.1950
41919SOL    HW130568  11.076   0.492  12.106  0.4136 -1.3063 -0.0821
41919SOL    HW230569  11.158   0.398  12.192  0.4067 -0.5242  0.7942
41920SOL     OW30570   0.949   0.602   3.158  0.2665 -0.1680  0.0884
41920SOL    HW130571   0.876   0.541   3.167  0.3646 -0.7821 -2.3774
41920SOL    HW230572   1.026   0.545   3.145  0.7012  0.4645 -0.1834
41921SOL     OW30573   1.457   4.927  12.447  0.1268  0.5829  0.6431
41921SOL    HW130574   1.543   4.961  12.424 -0.4478  0.8133 -1.3407
41921SOL    HW230575   1.473   4.871  12.523  1.5497  2.8879  2.1378
41922SOL     OW30576   8.033   6.912   2.374 -0.2674  0.2569 -0.8345
41922SOL    HW130577   8.051   6.841   2.312  0.6639 -1.1957  0.9904
41922SOL    HW230578   8.111   6.916   2.429 -1.9878 -0.3159  1.8730
41923SOL     OW30579   2.827   0.861   7.409 -0.4503  0.0705 -0.4580
41923SOL    HW130580   2.787   0.783   7.447  0.9553 -0.4363  0.0261
41923SOL    HW230581   2.753   0.921   7.393 -1.7329 -1.8109 -2.0181
41924SOL     OW30582   2.147   2.733   7.379  0.2200  0.1366  0.1719
41924SOL    HW130583   2.135   2.814   7.427 -0.6705  0.0672  0.0837
41924SOL    HW230584   2.178   2.670   7.444 -0.6931  0.1206  0.6095
41925SOL     OW30585   3.188  10.334  10.052 -0.2004  0.6901  0.4753
41925SOL    HW130586   3.197  10.413   9.998  0.2521  1.2515  1.3378
41925SOL    HW230587   3.186  10.367  10.142  0.9917 -0.3478  0.9185
41926SOL     OW30588  12.623   7.783  11.344 -0.1027  0.0879 -0.3491
41926SOL    HW130589  12.531   7.806  11.325  0.2193  0.7513 -1.1920
41926SOL    HW230590  12.650   7.849  11.408 -0.5467 -0.8264  0.8133
41927SOL     OW30591   5.932   4.161   3.584  0.2329  0.1297 -0.2814
41927SOL    HW130592   5.932   4.194   3.494  0.3391  1.5221  0.2095
41927SOL    HW230593   5.948   4.067   3.575  1.9771  0.5047 -1.6262
41928SOL     OW30594  11.387   4.894  12.171 -0.2106 -0.0659  0.2799
41928SOL    HW130595  11.428   4.972  12.134 -1.1305 -1.2195 -3.6036
41928SOL    HW230596  11.461   4.837  12.194  0.4359  0.6237 -0.0338
41929SOL     OW30597   8.424   5.688  12.470 -0.2074  0.1068 -0.7325
41929SOL    HW130598   8.400   5.751  12.403 -1.1708  1.6906  1.0004
41929SOL    HW230599   8.506   5.649  12.439  0.0047  1.6494 -2.2238
41930SOL     OW30600   7.629   8.544   6.125 -0.0170 -0.5207  0.0618
41930SOL    HW130601   7.636   8.495   6.043  2.3592 -1.4919  0.7421
41930SOL    HW230602   7.630   8.477   6.193  0.0645  0.3482  0.9394
41931SOL     OW30603   0.505   3.899   4.121  0.5151  0.0867 -0.1700
41931SOL    HW130604   0.525   3.813   4.157 -0.7592  0.4436  1.4725
41931SOL    HW230605   0.464   3.947   4.192  3.0721  2.8435 -0.3374
41932SOL     OW30606   2.928   4.306   3.330  0.3918  0.3044  0.5243
41932SOL    HW130607   3.007   4.281   3.378 -0.5162 -1.6308  1.1323
41932SOL    HW230608   2.865   4.331   3.398 -0.3344 -0.7523  0.2873
41933SOL     OW30609  12.472   4.331   1.198  0.8563  0.2580 -0.1278
41933SOL    HW130610  12.524   4.385   1.258  3.3640 -0.6083 -1.3555
41933SOL    HW230611  12.512   4.346   1.112 -1.7249  0.3896 -1.4127
41934SOL     OW30612   0.124   2.458   5.991 -0.2782 -0.3370  0.3951
41934SOL    HW130613   0.049   2.399   6.003  0.3036 -1.3896 -0.9981
41934SOL    HW230614   0.148   2.483   6.081 -1.2173 -1.3387  0.9550
41935SOL     OW30615   5.398   4.222   7.450 -0.2000  0.8171  0.2550
41935SOL    HW130616   5.494   4.219   7.450 -0.2108 -1.7831  0.8108
41935SOL    HW230617   5.373   4.171   7.373 -1.1281  1.1226  0.3514
41936SOL     OW30618   5.834   4.489   7.617  0.3595  0.4362 -0.1918
41936SOL    HW130619   5.789   4.503   7.700  0.4654  1.8339 -0.3372
41936SOL    HW230620   5.922   4.459   7.641  0.6938  1.6960  0.2676
41937SOL     OW30621   1.589   8.975   1.645 -0.4137 -0.1153 -0.4256
41937SOL    HW130622   1.619   9.059   1.678 -0.4055 -0.5696  0.7623
41937SOL    HW230623   1.528   8.997   1.574  0.5959  0.8546 -1.0184
41938SOL     OW30624   7.512   1.688  10.839 -0.5120  0.4567  0.0014
41938SOL    HW130625   7.507   1.599  10.874 -0.4724  0.2376 -0.5333
41938SOL    HW230626   7.489   1.744  10.913 -1.7651 -0.0574  0.0334
41939SOL     OW30627   1.049   9.592   7.446 -0.5186  0.1539  0.0618
41939SOL    HW130628   1.085   9.614   7.360  1.3480 -0.0179  0.7579
41939SOL    HW230629   1.023   9.677   7.483  1.2005  0.5835  0.3818
41940SOL     OW30630   8.073   6.390   3.938  0.8682 -0.0316 -0.4637
41940SOL    HW130631   8.008   6.367   3.871  0.6915  1.4979 -0.8712
41940SOL    HW230632   8.138   6.320   3.933  1.2850  0.4279 -2.8501
41941SOL     OW30633  11.864   0.003   9.830  0.7845 -0.3811 -0.3210
41941SOL    HW130634  11.818   0.032   9.908  1.6070 -1.2636  0.5118
41941SOL    HW230635  11.840  -0.089   9.821 -0.9942  0.1961 -2.3498
41942SOL     OW30636   4.546  11.938   4.003  0.1761 -0.1737 -0.1890
41942SOL    HW130637   4.480  11.872   3.983  0.9469 -1.2024  0.5927
41942SOL    HW230638   4.625  11.908   3.960  0.4940  0.3462  0.0192
41943SOL     OW30639  11.420   2.617   1.946 -0.1166 -0.2005  0.0221
41943SOL    HW130640  11.325   2.614   1.941 -0.1334 -0.4297  0.4907
41943SOL    HW230641  11.440   2.613   2.039  0.3565 -0.2375 -0.0774
41944SOL     OW30642   3.730   0.727   3.301  0.1353  0.3450  0.0752
41944SOL    HW130643   3.729   0.809   3.351  0.6342 -0.0074  0.6766
41944SOL    HW230644   3.713   0.754   3.211  1.5158  1.2645  0.0541
41945SOL     OW30645   1.014   8.817   8.981  0.3972  0.1863 -0.5372
41945SOL    HW130646   1.095   8.851   9.021  0.8202 -1.5257  0.1220
41945SOL    HW230647   0.960   8.791   9.055  0.2433 -0.9139 -1.0180
41946SOL     OW30648   8.923   7.956   3.743  0.2892  0.2496 -0.0741
41946SOL    HW130649   8.917   7.908   3.825  1.8362 -0.8526 -0.5599
41946SOL    HW230650   8.976   8.033   3.764 -0.2080  0.5284  0.1792
41947SOL     OW30651   1.250   4.064   5.501 -0.1497 -0.2154  0.3233
41947SOL    HW130652   1.240   4.157   5.479 -2.0189 -0.6834 -1.0726
41947SOL    HW230653   1.301   4.028   5.429 -1.5353 -0.6923 -0.4679
41948SOL     OW30654   1.925   8.771   7.699 -0.0673  0.3392 -0.4531
41948SOL    HW130655   1.856   8.838   7.694 -0.8642 -0.3001  1.1305
41948SOL    HW230656   1.991   8.810   7.756 -0.0400  0.1968 -0.3880
41949SOL     OW30657   2.748   8.246   1.315  0.3120 -0.6077  0.3013
41949SOL    HW130658   2.735   8.163   1.362  0.5046 -0.5110  0.5296
41949SOL    HW230659   2.728   8.313   1.380  0.7572 -0.4692  0.2962
41950SOL     OW30660  12.213   2.920   1.402  0.0378 -0.2306  0.1059
41950SOL    HW130661  12.297   2.895   1.441  0.5135  0.5061 -0.4278
41950SOL    HW230662  12.233   2.939   1.311 -1.0448 -1.7841 -0.4966
41951SOL     OW30663   0.310   0.739   2.970 -0.4087 -0.1097  0.3538
41951SOL    HW130664   0.238   0.793   2.938  0.3551  0.6240 -0.1662
41951SOL    HW230665   0.326   0.770   3.059 -0.0763  0.4332  0.1121
41952SOL     OW30666   9.762   4.410   4.162 -0.3381 -0.2914  0.0439
41952SOL    HW130667   9.749   4.487   4.217  1.1767  0.1365 -0.1687
41952SOL    HW230668   9.855   4.390   4.170 -0.2895 -0.8251 -1.5815
41953SOL     OW30669  11.389   2.953   9.467  0.0854 -0.4418  0.1212
41953SOL    HW130670  11.360   3.014   9.400 -0.3144  0.2978  0.9488
41953SOL    HW230671  11.422   3.008   9.537  2.0056 -1.2395 -0.1106
41954SOL     OW30672   5.414  11.824   8.452  0.0625 -0.1990 -0.0433
41954SOL    HW130673   5.361  11.785   8.522 -0.0353 -3.0256 -1.5355
41954SOL    HW230674   5.363  11.809   8.372  1.1118  1.0867 -0.9992
41955SOL     OW30675   3.841   9.404   4.548 -0.0613 -0.2259  0.1711
41955SOL    HW130676   3.908   9.366   4.490  0.3718 -0.5149  0.8428
41955SOL    HW230677   3.889   9.428   4.628 -0.3321  1.7062 -0.1974
41956SOL     OW30678   2.751   5.782   6.032  0.3644  0.2476  0.1719
41956SOL    HW130679   2.714   5.748   6.114 -1.1939  0.3214 -0.4635
41956SOL    HW230680   2.810   5.852   6.060  0.4669 -0.2491  1.2702
41957SOL     OW30681   8.042   6.155   8.346 -0.2080 -0.5699  0.4014
41957SOL    HW130682   8.091   6.121   8.271 -1.1824 -2.7322  0.6405
41957SOL    HW230683   7.952   6.161   8.314  0.0277  3.3015 -0.0331
41958SOL     OW30684  10.400   3.848   5.200  0.6372  0.0804 -0.4531
41958SOL    HW130685  10.492   3.855   5.226  0.6019  1.8577 -0.6786
41958SOL    HW230686  10.398   3.776   5.138  1.5985 -0.9673  0.6754
41959SOL     OW30687   8.790  11.866   9.437 -0.0354 -0.1664 -0.3634
41959SOL    HW130688   8.808  11.959   9.451 -1.4609  0.2938 -1.2981
41959SOL    HW230689   8.825  11.849   9.349  2.0376 -1.0684  0.5799
41960SOL     OW30690   8.280   6.428  10.260  0.4632  0.4678 -0.5501
41960SOL    HW130691   8.187   6.435  10.285  0.9154  1.1847  1.0557
41960SOL    HW230692   8.278   6.394  10.171 -1.3053 -1.7306  0.2192
41961SOL     OW30693  11.889   1.049  12.622 -0.0236  0.1216  0.1209
41961SOL    HW130694  11.873   1.144  12.623  2.5232  0.6527 -1.0306
41961SOL    HW230695  11.817   1.012  12.674 -0.6888  2.7371  1.2356
41962SOL     OW30696   1.268   2.017   6.248 -0.4929  0.0439 -0.5810
41962SOL    HW130697   1.177   2.020   6.277 -0.1266 -0.6358  0.7161
41962SOL    HW230698   1.309   2.094   6.288 -0.1576 -0.4806  0.0969
41963SOL     OW30699   1.113  10.609   5.031  0.2152  0.0669 -0.6104
41963SOL    HW130700   1.148  10.671   5.096  0.7435  0.0431 -0.8647
41963SOL    HW230701   1.180  10.542   5.025 -0.5119 -0.7249 -0.0816
41964SOL     OW30702  11.284   7.406   8.293 -0.4162 -0.9728 -0.2427
41964SOL    HW130703  11.277   7.398   8.198  2.3661 -0.0928 -0.6129
41964SOL    HW230704  11.278   7.501   8.309 -0.1259 -1.0562  0.3818
41965SOL     OW30705   9.870   5.564   2.287  0.3070  0.4322  0.0294
41965SOL    HW130706   9.821   5.644   2.305  1.7936  1.4373 -0.1453
41965SOL    HW230707   9.961   5.594   2.279  0.8550 -1.2424 -0.3352
41966SOL     OW30708   4.422   8.255   7.683 -0.3952 -0.0556  0.0449
41966SOL    HW130709   4.490   8.255   7.750 -0.8708 -0.1839  0.5401
41966SOL    HW230710   4.343   8.225   7.730 -0.7367 -0.1183 -0.5656
41967SOL     OW30711   0.957   0.707   0.813 -0.0691 -0.2864 -0.3946
41967SOL    HW130712   0.934   0.623   0.774 -1.2138  0.1026 -0.6036
41967SOL    HW230713   0.929   0.772   0.749  0.1526  0.2752  0.0678
41968SOL     OW30714   1.960  10.620   3.275  0.1745 -0.0321 -0.0818
41968SOL    HW130715   1.999  10.542   3.315  0.5930  0.8815  1.3422
41968SOL    HW230716   1.870  10.620   3.308  0.1814  0.0980 -0.0639
41969SOL     OW30717  11.048   8.751  12.013 -0.3034 -0.1213 -0.6835
41969SOL    HW130718  10.972   8.695  12.006 -0.8061  0.3635  0.5771
41969SOL    HW230719  11.120   8.699  11.977 -0.8936 -1.2793 -0.2374
41970SOL     OW30720  10.709   6.846   8.389  0.3528  0.3607 -0.7514
41970SOL    HW130721  10.721   6.770   8.446 -0.7074 -0.5756 -1.7441
41970SOL    HW230722  10.659   6.908   8.442 -0.6147 -0.4954 -0.6313
41971SOL     OW30723  12.215   5.107   3.038 -0.5955 -0.2555 -0.4240
41971SOL    HW130724  12.210   5.134   3.130 -0.7673  0.3822 -0.6172
41971SOL    HW230725  12.124   5.094   3.012 -0.5144 -1.1258 -0.3119
41972SOL     OW30726   5.947   4.960   7.819 -0.0314 -0.0561 -0.4044
41972SOL    HW130727   5.974   4.870   7.800  1.0901  0.4230 -1.2052
41972SOL    HW230728   5.963   4.971   7.912 -1.4645 -1.0822  0.0075
41973SOL     OW30729   0.819   3.217   1.025  0.0394 -0.1521 -0.0166
41973SOL    HW130730   0.834   3.202   1.119 -0.2639 -0.1535  0.0328
41973SOL    HW230731   0.777   3.302   1.021 -1.3748 -0.8205 -0.0194
41974SOL     OW30732   2.411   1.024   6.658 -0.3599  0.0757 -0.5796
41974SOL    HW130733   2.506   1.009   6.653 -0.7201 -2.5244 -1.0291
41974SOL    HW230734   2.385   1.043   6.568 -0.2571  0.8893 -0.4394
41975SOL     OW30735   7.866   1.178   8.971 -0.1014 -0.4567  0.2076
41975SOL    HW130736   7.929   1.145   8.907 -1.2485 -1.7945 -0.2876
41975SOL    HW230737   7.853   1.105   9.031 -1.2397 -0.2500  0.2390
41976SOL     OW30738   4.410   5.570   4.031 -0.5543  0.5322  0.3454
41976SOL    HW130739   4.454   5.633   3.973  1.5554  0.3295  1.6123
41976SOL    HW230740   4.428   5.485   3.990 -1.7808  0.5900 -0.3519
41977SOL     OW30741   0.543  11.135   0.265 -0.7278  0.4652 -0.2578
41977SOL    HW130742   0.536  11.142   0.170 -1.5443  0.1414 -0.2377
41977SOL    HW230743   0.555  11.041   0.281  1.5757  0.7304 -0.1280
41978SOL     OW30744  11.427   3.905   0.204 -0.0641 -0.7202  0.0874
41978SOL    HW130745  11.400   3.816   0.180 -0.5168 -0.7945  0.8141
41978SOL    HW230746  11.458   3.896   0.294  1.1583 -0.3765 -0.2801
41979SOL     OW30747  10.841   4.740   2.935  0.1087 -0.2206 -0.5945
41979SOL    HW130748  10.897   4.664   2.920  1.1857  0.0949  1.4391
41979SOL    HW230749  10.850   4.758   3.029  0.3943  2.7842 -1.0936
41980SOL     OW30750   0.637   5.086   2.751  0.1104  0.3755 -0.2565
41980SOL    HW130751   0.637   5.172   2.710 -0.6417 -0.1184 -1.3500
41980SOL    HW230752   0.603   5.102   2.839  0.4281  1.2604 -0.2839
41981SOL     OW30753  12.599   4.261   8.645 -0.1354 -0.2499 -0.0148
41981SOL    HW130754  12.646   4.265   8.728  0.5209 -2.3594 -0.2355
41981SOL    HW230755  12.651   4.315   8.586  0.7141 -0.6597  0.3435
41982SOL     OW30756   8.857   1.488  10.285 -0.0194  0.4315  0.1117
41982SOL    HW130757   8.772   1.514  10.251 -0.3758  0.2447  0.8402
41982SOL    HW230758   8.851   1.393  10.297  0.7918  0.1888 -1.1922
41983SOL     OW30759   7.164  10.800   4.017  0.1458 -0.6625  0.0814
41983SOL    HW130760   7.141  10.828   3.928 -0.5627  0.8060  0.7057
41983SOL    HW230761   7.088  10.752   4.047 -1.2157  1.9748  1.1861
41984SOL     OW30762   9.309  10.651   5.358 -0.2009  1.0006 -0.0661
41984SOL    HW130763   9.241  10.674   5.295 -0.8582  1.6164  0.8425
41984SOL    HW230764   9.328  10.733   5.403 -1.4745  0.1352  2.1851
41985SOL     OW30765   8.379   1.586   5.479  0.3418 -0.3186 -0.0256
41985SOL    HW130766   8.353   1.605   5.388 -0.1010 -0.7157  0.0145
41985SOL    HW230767   8.475   1.587   5.476  0.3661  1.5939 -0.0848
41986SOL     OW30768  10.712   7.322   5.668  0.2168 -0.1423  0.4656
41986SOL    HW130769  10.667   7.392   5.714  0.7149  0.4923  0.0137
41986SOL    HW230770  10.686   7.333   5.576  1.5848  0.5070  0.1232
41987SOL     OW30771  11.413   0.020   0.095  0.3712  0.4953  0.0836
41987SOL    HW130772  11.369   0.072   0.028  2.6002  2.3824 -0.0514
41987SOL    HW230773  11.343  -0.004   0.156 -1.6517 -0.8801 -2.5405
41988SOL     OW30774   6.730   9.548   0.870  0.0395 -0.3125  0.0823
41988SOL    HW130775   6.713   9.642   0.870 -1.7617 -0.6064 -0.3229
41988SOL    HW230776   6.694   9.516   0.953  1.6815 -0.5095  0.7605
41989SOL     OW30777   5.566   9.663   3.073  0.6118  0.6040  0.5941
41989SOL    HW130778   5.600   9.623   3.153  1.7633  1.7893  0.7218
41989SOL    HW230779   5.480   9.695   3.097 -0.0871 -1.1862  0.6638
41990SOL     OW30780  10.542   6.296  12.403  0.4238 -0.0890 -0.0193
41990SOL    HW130781  10.574   6.298  12.493 -0.4063 -2.4243  0.3859
41990SOL    HW230782  10.453   6.262  12.409 -1.1863  3.4037 -1.4078
41991SOL     OW30783   8.426   1.964   9.996  0.4155 -0.1091  0.2443
41991SOL    HW130784   8.383   1.929   9.918 -0.3257  0.6661  0.2838
41991SOL    HW230785   8.379   1.924  10.069 -0.5561  1.0367  0.2914
41992SOL     OW30786   3.990   2.603  11.922 -0.2866 -0.0694 -0.3252
41992SOL    HW130787   4.030   2.595  11.836 -0.4937  0.5166 -0.4802
41992SOL    HW230788   4.064   2.601  11.983  0.2283  3.0043 -0.7101
41993SOL     OW30789   3.496   6.388   6.340  0.3769 -0.9210  0.2836
41993SOL    HW130790   3.424   6.369   6.281  0.7643 -0.2827 -0.4048
41993SOL    HW230791   3.468   6.352   6.424 -0.4046 -1.3639 -0.1588
41994SOL     OW30792   8.011   4.054  10.777  0.3822  0.6020 -0.0556
41994SOL    HW130793   7.986   4.084  10.690  0.4388  0.0775 -0.2598
41994SOL    HW230794   7.957   4.105  10.837  0.1918  0.8163 -0.4077
41995SOL     OW30795   6.008  11.298   6.614 -0.1385 -0.5136  0.9395
41995SOL    HW130796   5.998  11.393   6.626  0.8761 -0.3073  0.3020
41995SOL    HW230797   5.933  11.273   6.560  1.3656  0.5609 -1.8054
41996SOL     OW30798  10.863   7.570   9.791  0.4228 -0.0256  0.0005
41996SOL    HW130799  10.926   7.505   9.760  0.3058 -0.3352  0.4090
41996SOL    HW230800  10.891   7.590   9.880 -0.3735 -0.5610  0.3778
41997SOL     OW30801   6.785   5.867   1.841 -0.0183 -0.3208 -0.2922
41997SOL    HW130802   6.857   5.819   1.882 -0.5923 -0.9128  0.0401
41997SOL    HW230803   6.706   5.820   1.868 -0.4291 -0.6330 -1.9498
41998SOL     OW30804   0.466   0.131   6.653 -0.4075 -0.0990  0.4387
41998SOL    HW130805   0.435   0.197   6.591  1.6451 -0.4444 -1.0469
41998SOL    HW230806   0.522   0.179   6.714 -0.4377 -0.1576  0.5122
41999SOL     OW30807   8.463   4.251  11.891  0.0294 -0.1951  0.4612
41999SOL    HW130808   8.390   4.207  11.848 -0.4071 -1.3103  2.2584
41999SOL    HW230809   8.438   4.343  11.892 -0.1346 -0.1827 -1.2055
42000SOL     OW30810  11.616   1.453   4.861 -0.1088  0.4835 -0.1712
42000SOL    HW130811  11.626   1.509   4.938  0.7801 -2.7460  2.3012
42000SOL    HW230812  11.703   1.451   4.821 -0.0947  0.7205 -0.1519
42001SOL     OW30813  12.450   1.102   0.662  0.7438 -0.9480  0.2456
42001SOL    HW130814  12.466   1.075   0.752  2.3518  1.1416  0.6820
42001SOL    HW230815  12.357   1.124   0.659  1.0345  0.7566  1.9705
42002SOL     OW30816   2.570   2.149  10.977  0.0121  0.0995 -0.4827
42002SOL    HW130817   2.652   2.111  10.945  0.3361  0.7140 -0.3962
42002SOL    HW230818   2.595   2.192  11.059 -0.7597 -1.2794  0.5325
42003SOL     OW30819   1.926   3.983  11.323  0.2692  0.2369  0.1004
42003SOL    HW130820   1.903   3.998  11.232  1.3028  0.6870 -0.0971
42003SOL    HW230821   1.846   4.002  11.371 -0.2474  0.1218 -0.7000
42004SOL     OW30822   0.040   4.418   8.450 -0.3721 -0.1774  0.0219
42004SOL    HW130823   0.122   4.385   8.414  1.1649 -0.2661  3.2895
42004SOL    HW230824   0.030   4.505   8.412  1.2998 -0.1368 -0.3741
42005SOL     OW30825   7.818   0.205   4.312  0.3718  0.1099  0.1577
42005SOL    HW130826   7.895   0.150   4.326  0.0832  0.1086  2.0831
42005SOL    HW230827   7.814   0.218   4.218  1.8703 -1.1143 -0.1123
42006SOL     OW30828   6.834  10.337  10.588 -0.3349 -0.4683 -0.4765
42006SOL    HW130829   6.850  10.429  10.609  1.9742 -0.8481 -0.3225
42006SOL    HW230830   6.794  10.301  10.667  0.0443  0.1075 -0.0140
42007SOL     OW30831   3.022   6.222   3.257 -0.6676  0.1001 -0.3098
42007SOL    HW130832   3.039   6.313   3.234  0.8040  0.3374  1.4519
42007SOL    HW230833   2.932   6.206   3.229 -0.6912  1.8453 -1.3537
42008SOL     OW30834   3.971   5.709   0.904  0.5169 -0.6132  0.0761
42008SOL    HW130835   3.975   5.691   0.998 -0.8825 -0.4381  0.1949
42008SOL    HW230836   3.899   5.771   0.894  1.6923  0.6558 -0.9497
42009SOL     OW30837   3.625   5.705   5.282 -0.7833  0.0909  0.2266
42009SOL    HW130838   3.686   5.673   5.215 -0.0257 -0.6935  1.2554
42009SOL    HW230839   3.539   5.698   5.242 -0.2474  0.9253 -1.1529
42010SOL     OW30840  10.892   5.644  12.401  0.7559  0.3292 -0.7119
42010SOL    HW130841  10.958   5.578  12.425  0.3870  0.2461  0.1085
42010SOL    HW230842  10.884   5.636  12.306  1.4578 -0.1104 -0.7413
42011SOL     OW30843   4.496   2.191   5.253  0.2727  0.0124 -0.5960
42011SOL    HW130844   4.432   2.241   5.304  1.1934  1.0705 -0.4301
42011SOL    HW230845   4.465   2.199   5.162 -0.7445 -0.9256 -0.3498
42012SOL     OW30846  10.253   9.265  10.408 -0.0660  0.2173 -0.3518
42012SOL    HW130847  10.192   9.202  10.446 -1.2086  0.1518 -2.2146
42012SOL    HW230848  10.231   9.348  10.450 -2.2963  0.4393 -1.8294
42013SOL     OW30849   9.363   0.193  10.813  0.8285 -0.2124 -0.0869
42013SOL    HW130850   9.455   0.168  10.809  1.0248  0.5983 -1.2228
42013SOL    HW230851   9.364   0.288  10.814 -0.0147 -0.0703 -3.1291
42014SOL     OW30852  11.912   7.713   1.515 -0.5362 -0.0317 -0.2690
42014SOL    HW130853  11.966   7.638   1.489 -2.4117 -1.9319  0.9846
42014SOL    HW230854  11.878   7.690   1.601 -2.1762  1.7191 -0.3778
42015SOL     OW30855   8.475  10.935   5.339 -0.5400 -0.0339  0.5216
42015SOL    HW130856   8.410  10.931   5.409 -0.8197 -0.8654  0.2355
42015SOL    HW230857   8.509  10.846   5.333 -0.3798  0.0687 -0.2591
42016SOL     OW30858   7.261   2.164  10.901 -0.3539 -0.4787 -0.4120
42016SOL    HW130859   7.267   2.153  10.806 -0.9494 -2.5981 -0.2672
42016SOL    HW230860   7.295   2.252  10.918  1.9928 -0.9345 -2.3341
42017SOL     OW30861  11.315   6.921   0.677 -0.9925  0.4392  0.5005
42017SOL    HW130862  11.231   6.921   0.723 -0.0318  1.6280  2.4235
42017SOL    HW230863  11.376   6.958   0.741  1.1281 -0.9825 -0.6011
42018SOL     OW30864   8.485   3.613  11.697  0.2537 -0.4782 -0.3103
42018SOL    HW130865   8.493   3.704  11.727 -0.2290 -0.6293  0.2905
42018SOL    HW230866   8.459   3.621  11.605  1.1407 -0.0107 -0.5304
42019SOL     OW30867  12.414   9.465   1.655  0.1205 -0.0669  0.2669
42019SOL    HW130868  12.425   9.385   1.707  1.2907 -0.9362 -1.2489
42019SOL    HW230869  12.496   9.475   1.608 -0.3121  1.5948 -0.2015
42020SOL     OW30870   9.468   7.034   2.500  0.0442 -0.0065  0.4399
42020SOL    HW130871   9.389   7.089   2.501  0.3737  0.5622 -1.2554
42020SOL    HW230872   9.514   7.058   2.580 -0.0591  1.8944 -0.0175
42021SOL     OW30873   7.481   1.996   7.875 -0.7908 -0.0714  0.4474
42021SOL    HW130874   7.556   2.048   7.844 -0.2490  0.2948  2.2570
42021SOL    HW230875   7.434   2.055   7.934 -1.4797 -0.8994  0.7402
42022SOL     OW30876  11.485  10.777   1.792 -0.3222 -0.0965 -0.9932
42022SOL    HW130877  11.549  10.832   1.836 -1.3793  1.6321 -1.5181
42022SOL    HW230878  11.401  10.801   1.831 -0.9477 -0.5502 -2.0084
42023SOL     OW30879   2.094   9.790   1.089 -0.4731  0.2439  0.2331
42023SOL    HW130880   2.163   9.789   1.022 -1.2906 -1.0781 -0.6399
42023SOL    HW230881   2.089   9.882   1.117  1.2811  0.4586 -0.0264
42024SOL     OW30882   8.801   6.170   6.051  0.3776  0.1895 -0.2449
42024SOL    HW130883   8.774   6.129   5.968  1.1330 -1.8659  0.4556
42024SOL    HW230884   8.895   6.151   6.058  0.8506  2.3598  0.0192
42025SOL     OW30885   9.386   2.291   5.182  0.2286 -0.3537 -0.1135
42025SOL    HW130886   9.340   2.238   5.117  2.1945 -0.4159 -1.5381
42025SOL    HW230887   9.468   2.245   5.197  1.1425  1.2643  0.0848
42026SOL     OW30888   6.915   7.402   4.983 -0.0549 -0.3686 -0.2943
42026SOL    HW130889   6.995   7.407   5.035 -0.3839 -1.2125  0.3203
42026SOL    HW230890   6.925   7.470   4.916  0.4208  0.6633  0.8026
42027SOL     OW30891  10.438   1.798  12.352  0.1769  0.0589 -0.0893
42027SOL    HW130892  10.354   1.813  12.395  0.2828 -1.8276  0.9060
42027SOL    HW230893  10.422   1.728  12.290  1.3323 -1.6432  1.4196
42028SOL     OW30894   4.759   1.042   2.562 -0.1982 -0.5136  0.3712
42028SOL    HW130895   4.777   1.102   2.635 -0.7988 -0.0053  0.1175
42028SOL    HW230896   4.665   1.025   2.569 -0.0890 -1.1720  0.2427
42029SOL     OW30897   9.269  11.906   3.842  0.5539  0.1060 -0.5091
42029SOL    HW130898   9.285  11.985   3.893 -0.0781  0.9019 -1.4936
42029SOL    HW230899   9.207  11.934   3.775  1.2703 -0.9328 -1.6388
42030SOL     OW30900   2.076  10.837   6.854  0.2578  0.6522 -0.0220
42030SOL    HW130901   2.081  10.743   6.835 -0.1103  0.5327  0.4306
42030SOL    HW230902   2.147  10.876   6.804  1.2034 -0.0293  0.7529
42031SOL     OW30903  11.853   3.231   4.341  0.2231  0.4063 -0.0489
42031SOL    HW130904  11.774   3.210   4.390  1.3799 -2.2625  0.9354
42031SOL    HW230905  11.860   3.326   4.344 -1.2075  0.5236  2.6964
42032SOL     OW30906   0.028   9.899  10.019  0.7580 -0.2570  0.2425
42032SOL    HW130907   0.073   9.920  10.101  0.4039 -1.7847  0.8559
42032SOL    HW230908  -0.032   9.972  10.005 -1.1091 -1.1782  2.7648
42033SOL     OW30909  10.824   8.787   5.908  0.0315 -0.6453 -0.4516
42033SOL    HW130910  10.851   8.847   5.977 -0.4234 -0.7705 -0.1595
42033SOL    HW230911  10.829   8.701   5.948 -1.8403 -0.5936 -0.0213
42034SOL     OW30912  11.587   9.724   4.200 -0.3239  0.7954 -0.2939
42034SOL    HW130913  11.567   9.703   4.291  0.1981 -1.2370 -0.6062
42034SOL    HW230914  11.517   9.683   4.149  0.2694  0.5032 -0.8929
42035SOL     OW30915   9.361   6.671   2.529  0.4304  0.7681  0.0642
42035SOL    HW130916   9.300   6.724   2.581  1.2439  0.7454  1.0784
42035SOL    HW230917   9.306   6.629   2.463 -0.3583  2.1968 -0.2208
42036SOL     OW30918   3.995  10.280   2.364 -0.2209 -0.2095 -0.1151
42036SOL    HW130919   4.044  10.287   2.445 -0.0910 -0.9367 -0.1234
42036SOL    HW230920   4.062  10.269   2.296 -0.3765 -3.1547  0.0779
42037SOL     OW30921   8.333   8.749  11.828  0.6694 -0.0391  0.9992
42037SOL    HW130922   8.248   8.712  11.804 -0.3153  2.7818 -0.3477
42037SOL    HW230923   8.313   8.808  11.901  1.3276  1.1541  0.2386
42038SOL     OW30924   7.705   6.390   6.787  0.1087 -0.6028  0.5938
42038SOL    HW130925   7.751   6.427   6.862  0.9685  0.8730 -0.6058
42038SOL    HW230926   7.616   6.426   6.793  0.6750  0.9930 -0.0395
42039SOL     OW30927   9.293   5.375   3.676 -0.4086  0.6061  0.2199
42039SOL    HW130928   9.364   5.310   3.668  0.3580  1.2753  1.2498
42039SOL    HW230929   9.314   5.441   3.611 -1.3784 -0.3100 -1.0684
42040SOL     OW30930  11.818   4.494   5.074  0.5704  0.4397 -0.0097
42040SOL    HW130931  11.912   4.511   5.083  0.4736  0.4161  1.2670
42040SOL    HW230932  11.776   4.574   5.106  0.1378  1.1602 -2.2523
42041SOL     OW30933  10.334   6.900  11.764  0.0749 -0.3197 -0.4572
42041SOL    HW130934  10.404   6.921  11.826  0.0348 -2.1719  0.2732
42041SOL    HW230935  10.361   6.943  11.682  1.3479  0.1588  0.1842
42042SOL     OW30936   1.954   8.155   9.182  0.0503  0.3683 -0.6239
42042SOL    HW130937   2.002   8.232   9.213  1.9471 -1.1592  0.4938
42042SOL    HW230938   1.915   8.118   9.261  1.1496 -1.0895 -0.7280
42043SOL     OW30939   9.300  10.498   2.243 -0.3634 -0.2021 -0.3963
42043SOL    HW130940   9.265  10.412   2.266 -1.4063  0.5924  1.1648
42043SOL    HW230941   9.371  10.513   2.305  0.1330 -0.1416 -0.9779
42044SOL     OW30942   2.042   6.220  12.614 -0.3766  0.4847  0.7959
42044SOL    HW130943   1.959   6.177  12.595 -0.4400  1.2058 -0.6753
42044SOL    HW230944   2.052   6.212  12.709 -3.4620  2.7715  1.4378
42045SOL     OW30945   2.898  10.430   9.867  0.7904  0.4746  0.0863
42045SOL    HW130946   2.817  10.449   9.821  0.8673  1.1235  0.1993
42045SOL    HW230947   2.942  10.515   9.875  0.5533  0.4830  1.7756
42046SOL     OW30948   4.616   8.001   7.489 -0.1423 -0.7782  0.3521
42046SOL    HW130949   4.700   7.974   7.450 -0.7982 -0.9921 -0.9746
42046SOL    HW230950   4.640   8.039   7.573  1.6982  2.1407 -1.2941
42047SOL     OW30951  10.132   5.575  10.891 -0.3160  0.2572  0.0724
42047SOL    HW130952  10.098   5.661  10.863  0.1769  0.1060 -1.0398
42047SOL    HW230953  10.211   5.596  10.941 -0.5239  0.4772  0.3136
42048SOL     OW30954   6.328   7.909   6.553 -0.8186  0.0743 -0.8128
42048SOL    HW130955   6.305   7.935   6.464 -3.6201 -0.1456 -0.2421
42048SOL    HW230956   6.298   7.818   6.560  0.3052 -0.2550  0.0569
42049SOL     OW30957   1.606  12.492   3.240 -0.1482 -0.5514 -1.3049
42049SOL    HW130958   1.580  12.400   3.243  1.0227 -0.9951 -3.0858
42049SOL    HW230959   1.615  12.510   3.146 -1.3024  1.6722 -1.0441
42050SOL     OW30960   8.900   6.838   1.792 -0.2718  0.1611 -0.3766
42050SOL    HW130961   8.991   6.819   1.771 -0.4442 -1.2038 -0.0095
42050SOL    HW230962   8.904   6.898   1.866  0.3637 -1.1115  0.6591
42051SOL     OW30963   0.430  10.630   7.987 -0.1312 -0.1635  0.3881
42051SOL    HW130964   0.436  10.562   8.054 -0.3302  1.3692  2.0660
42051SOL    HW230965   0.511  10.681   7.997  0.1466 -0.2932 -1.0113
42052SOL     OW30966   0.499   8.396   8.453 -0.3751 -0.1046  0.5035
42052SOL    HW130967   0.502   8.433   8.365  0.1482  0.9917  0.9630
42052SOL    HW230968   0.591   8.386   8.477 -0.5184 -0.3293  0.9602
42053SOL     OW30969   6.507   6.724   9.802 -0.0318  0.2742  0.3551
42053SOL    HW130970   6.483   6.632   9.793  0.6144  0.1750 -0.4934
42053SOL    HW230971   6.602   6.725   9.786  0.0824  1.0021  1.0230
42054SOL     OW30972   9.687   7.293   0.412 -0.6366 -0.0024  0.4767
42054SOL    HW130973   9.646   7.266   0.494  0.7603 -0.5065  1.0472
42054SOL    HW230974   9.619   7.340   0.365 -2.1661 -1.6795  0.9136
42055SOL     OW30975   5.397   0.953   6.108  0.0245 -0.6905  0.0693
42055SOL    HW130976   5.439   0.958   6.022 -0.1883 -0.9041 -0.0464
42055SOL    HW230977   5.306   0.929   6.089 -1.2691  3.4086 -0.0279
42056SOL     OW30978   4.204   2.498   1.052  0.7233 -0.4598  0.2959
42056SOL    HW130979   4.163   2.421   1.093 -1.6215 -0.2808 -1.5056
42056SOL    HW230980   4.132   2.543   1.008  2.5391  1.1566 -1.2213
42057SOL     OW30981  12.580   9.532   3.193  0.0758  0.0354 -0.1089
42057SOL    HW130982  12.513   9.489   3.246  0.0449  0.4306  0.1833
42057SOL    HW230983  12.653   9.471   3.192 -0.0978 -0.1753  0.0059
42058SOL     OW30984   7.923   9.251  12.094  0.2963 -0.0596 -0.5796
42058SOL    HW130985   7.840   9.273  12.135  0.9583 -0.0680  0.8373
42058SOL    HW230986   7.909   9.266  12.000 -1.1386  0.3913 -0.3135
42059SOL     OW30987   4.725   8.453   2.584  0.1914 -0.0320 -0.2886
42059SOL    HW130988   4.788   8.382   2.597 -0.4772 -0.6315 -0.2411
42059SOL    HW230989   4.773   8.519   2.533  0.5327 -0.9482 -1.1912
42060SOL     OW30990   3.280   5.789   0.818 -0.1896  0.3611 -0.3785
42060SOL    HW130991   3.304   5.697   0.809 -0.1908  0.3538 -0.3089
42060SOL    HW230992   3.227   5.792   0.898 -0.7595  0.3071 -0.7443
42061SOL     OW30993   5.706   1.782   6.377 -0.7068  0.1138 -0.6799
42061SOL    HW130994   5.707   1.699   6.328  1.4476 -0.1508 -0.3141
42061SOL    HW230995   5.794   1.818   6.362 -0.8111  1.1660  1.0844
42062SOL     OW30996   6.104  11.562  11.867  0.4376  0.1038 -0.2613
42062SOL    HW130997   6.023  11.597  11.830 -0.7361 -1.2320  0.9147
42062SOL    HW230998   6.087  11.468  11.875  2.8935 -0.5864 -1.9150
42063SOL     OW30999   5.077   6.600   9.529 -0.2063  0.0930  0.0101
42063SOL    HW131000   5.076   6.600   9.625 -0.7507  1.8352  0.0561
42063SOL    HW231001   5.043   6.515   9.504  0.8058 -0.7457  1.3475
42064SOL     OW31002  12.635   2.411   5.450  1.0981 -0.1859  0.4695
42064SOL    HW131003  12.663   2.390   5.539 -0.7036  0.1867  1.1620
42064SOL    HW231004  12.583   2.491   5.459  0.5303 -0.3749 -0.8495
42065SOL     OW31005   8.956  12.094   3.028 -0.0029 -0.2959 -0.7198
42065SOL    HW131006   8.959  12.140   3.112 -0.1273  0.6274 -1.2022
42065SOL    HW231007   8.866  12.105   2.998  0.3507  0.4459 -1.5414
42066SOL     OW31008   1.564   2.199   4.069  0.5072 -0.3608 -0.0908
42066SOL    HW131009   1.536   2.256   3.997 -1.5456 -0.5585  0.5004
42066SOL    HW231010   1.656   2.221   4.081  0.5555  0.6560 -1.8609
42067SOL     OW31011   2.766   4.351   1.046  0.0353 -0.2222  0.1692
42067SOL    HW131012   2.847   4.317   1.010  1.3221  1.6627  1.0949
42067SOL    HW231013   2.706   4.353   0.971  1.7521  1.0210 -1.2720
42068SOL     OW31014  12.012  10.538   2.828  0.5741  0.1738 -0.5802
42068SOL    HW131015  12.030  10.494   2.745 -0.1912 -0.3340 -0.4849
42068SOL    HW231016  12.069  10.495   2.892 -0.6244 -1.1609 -0.3582
42069SOL     OW31017  11.032   1.430   6.214  0.8771  0.5488  0.2129
42069SOL    HW131018  10.938   1.419   6.206  1.1326 -2.8254  0.1220
42069SOL    HW231019  11.046   1.456   6.305 -0.1251 -0.2008  0.6002
42070SOL     OW31020  12.473   7.803   1.346  0.0661  0.1364  0.2110
42070SOL    HW131021  12.462   7.719   1.301 -1.9111  0.8403 -0.7247
42070SOL    HW231022  12.439   7.787   1.435 -2.0930  0.3520 -0.5041
42071SOL     OW31023  11.609   5.009   3.682  0.3556  0.2634  0.7354
42071SOL    HW131024  11.555   4.948   3.731 -1.0466  1.2065  0.4154
42071SOL    HW231025  11.629   5.079   3.745 -0.9866  1.1972  0.1860
42072SOL     OW31026  10.883   2.603   2.826  0.0902 -0.2341  0.0367
42072SOL    HW131027  10.971   2.568   2.814  0.3653  0.6140 -0.5130
42072SOL    HW231028  10.881   2.634   2.916  1.8337  3.6094 -1.0389
42073SOL     OW31029   1.005   7.796   2.699  0.4565 -0.7479 -0.1798
42073SOL    HW131030   1.074   7.747   2.743  0.1394 -0.6470  0.4303
42073SOL    HW231031   1.050   7.873   2.662  0.2597  0.7403  2.4750
42074SOL     OW31032  10.841   1.692   8.772  0.3769  0.3260  0.5710
42074SOL    HW131033  10.836   1.781   8.809  0.8754  1.4544 -1.8967
42074SOL    HW231034  10.755   1.654   8.790  0.2613  1.1684  1.9707
42075SOL     OW31035  11.889   7.570   2.985  0.1957  0.1280 -0.1819
42075SOL    HW131036  11.797   7.545   2.981  0.2166 -0.0611  0.4136
42075SOL    HW231037  11.915   7.582   2.894 -0.9547  2.1415 -0.3031
42076SOL     OW31038   9.771  10.126   1.739 -0.3222 -0.1091  0.3825
42076SOL    HW131039   9.705  10.173   1.790  0.9444  3.0712 -0.6612
42076SOL    HW231040   9.730  10.110   1.655 -0.4676 -0.0534  0.4415
42077SOL     OW31041  10.110   1.695   3.276  1.0559  0.1489  0.5670
42077SOL    HW131042  10.168   1.662   3.344  0.5843 -0.1142  0.8416
42077SOL    HW231043  10.085   1.783   3.305  1.8751  0.5444  0.1024
42078SOL     OW31044   5.169   4.112   9.470 -0.0242  0.2889 -0.2935
42078SOL    HW131045   5.073   4.111   9.472 -0.0316 -0.6929  1.8547
42078SOL    HW231046   5.193   4.163   9.547  1.1942  0.3873 -0.7240
42079SOL     OW31047   1.977   3.440   6.122  0.0280 -0.2962  0.3021
42079SOL    HW131048   1.926   3.511   6.085  1.1614 -1.0247 -3.0426
42079SOL    HW231049   1.922   3.403   6.191 -1.8584  1.8644  0.0480
42080SOL     OW31050   7.673   5.963   6.309 -0.0296  0.3141  0.5954
42080SOL    HW131051   7.665   6.057   6.291 -0.2157  0.1873 -0.0181
42080SOL    HW231052   7.585   5.928   6.296  0.3882 -0.2360 -1.0164
42081SOL     OW31053  11.847   0.876   3.067 -0.6520 -0.3264 -0.0866
42081SOL    HW131054  11.940   0.877   3.090 -0.5360  2.1737 -0.3891
42081SOL    HW231055  11.801   0.860   3.149 -0.0016  0.5722  0.4626
42082SOL     OW31056   3.403  10.033  11.853  0.3603 -0.5446  0.0001
42082SOL    HW131057   3.474  10.002  11.909  1.4328  0.6110 -0.6718
42082SOL    HW231058   3.360  10.103  11.903  1.4752  0.6593 -0.6725
42083SOL     OW31059  11.037   8.901  10.161 -0.9979 -0.0127  0.0777
42083SOL    HW131060  11.063   8.965  10.095  2.0388  0.9401  1.9756
42083SOL    HW231061  10.973   8.947  10.215  0.4468  1.1729  0.8579
42084SOL     OW31062   1.773   7.227   1.288 -0.0073  0.5911 -0.1580
42084SOL    HW131063   1.812   7.167   1.352 -0.0705  0.2668 -0.4222
42084SOL    HW231064   1.696   7.263   1.333  0.6541  1.3335  0.4173
42085SOL     OW31065   1.019  12.181   5.849 -0.6152  0.1078 -0.2576
42085SOL    HW131066   0.995  12.094   5.819 -1.6156  0.1560  0.3455
42085SOL    HW231067   0.935  12.224   5.867 -0.1199  1.0159 -0.0633
42086SOL     OW31068   4.473   2.619  10.370  0.2511  0.1202 -0.2004
42086SOL    HW131069   4.502   2.580  10.288 -2.0780  1.1712 -1.6322
42086SOL    HW231070   4.390   2.576  10.389  1.4859 -1.2845  2.5828
42087SOL     OW31071   8.150   6.083  11.114 -0.0863  0.2067 -0.2420
42087SOL    HW131072   8.102   6.083  11.031 -0.9163 -0.4713  0.2163
42087SOL    HW231073   8.083   6.065  11.180  0.5780  0.6573  0.5731
42088SOL     OW31074   2.521   9.896   7.527 -0.2163 -0.4730 -0.1640
42088SOL    HW131075   2.523   9.966   7.592  1.2705 -1.0963  0.5272
42088SOL    HW231076   2.564   9.934   7.450  2.2564 -1.0793  0.8014
42089SOL     OW31077   4.028   5.189   3.492 -0.2615  0.4320 -0.0733
42089SOL    HW131078   3.985   5.224   3.570 -0.8274  0.0666 -0.2177
42089SOL    HW231079   4.066   5.106   3.520  0.0579  0.5835 -0.0406
42090SOL     OW31080   8.419   7.088   6.413 -0.0081 -0.2561  0.3137
42090SOL    HW131081   8.363   7.011   6.399  1.3803 -1.3505  0.6097
42090SOL    HW231082   8.449   7.112   6.325  0.8502 -1.0748  0.3680
42091SOL     OW31083  11.086   4.364  10.513 -0.4479  0.0063 -0.5680
42091SOL    HW131084  11.115   4.337  10.599  1.1629  0.6805 -0.8695
42091SOL    HW231085  11.055   4.283  10.471  0.7036 -0.6942 -0.1026
42092SOL     OW31086   0.759   3.395   4.157 -0.4620  0.2614  0.2438
42092SOL    HW131087   0.851   3.370   4.171 -0.6773 -0.8935 -0.3288
42092SOL    HW231088   0.710   3.338   4.216 -0.9552 -0.6726 -1.0194
42093SOL     OW31089  10.105   8.774   9.845 -0.0321 -0.5643  0.1233
42093SOL    HW131090  10.187   8.823   9.843 -0.2243 -0.1664 -2.8954
42093SOL    HW231091  10.046   8.828   9.898  0.9419  0.4609  0.1958
42094SOL     OW31092  11.615  12.323   9.693  0.0370 -0.5624 -0.1732
42094SOL    HW131093  11.593  12.242   9.648  1.6641 -0.1871 -1.7502
42094SOL    HW231094  11.538  12.379   9.682 -0.5230 -1.3428 -0.3296
42095SOL     OW31095   4.104   8.148  10.218 -0.1209 -0.2811  0.3713
42095SOL    HW131096   4.027   8.098  10.191  0.1837 -0.3365 -0.4313
42095SOL    HW231097   4.095   8.232  10.174  0.5397 -0.4840 -0.1690
42096SOL     OW31098   0.632  11.357   2.729 -0.3437 -0.2159 -0.4993
42096SOL    HW131099   0.585  11.437   2.704  0.8848  1.0433  0.9453
42096SOL    HW231100   0.698  11.347   2.661 -0.0786  0.4118 -0.3470
42097SOL     OW31101  11.338  12.438   4.133  0.0330 -0.2762  0.5769
42097SOL    HW131102  11.327  12.525   4.094  0.1220 -0.0263  1.0931
42097SOL    HW231103  11.265  12.387   4.099  2.5513 -1.5488 -3.7871
42098SOL     OW31104  11.466   4.986  10.509  0.0891  0.1447 -0.4652
42098SOL    HW131105  11.401   4.937  10.460  1.8097 -1.0568 -1.6488
42098SOL    HW231106  11.459   5.075  10.475  0.4292 -0.4108 -2.0503
42099SOL     OW31107   6.273   4.779  12.187 -0.4138 -0.1909  0.1209
42099SOL    HW131108   6.207   4.845  12.167 -0.9300  0.4678  3.5099
42099SOL    HW231109   6.338   4.825  12.240  1.3144 -1.5304 -0.7244
42100SOL     OW31110   2.354   5.523  10.651  0.1650 -0.0230  0.6685
42100SOL    HW131111   2.379   5.593  10.590 -1.8315  0.7703  0.6909
42100SOL    HW231112   2.267   5.496  10.622 -0.3612 -0.4014  2.5220
42101SOL     OW31113   4.935  10.784   3.127  0.3086 -0.3463 -0.1774
42101SOL    HW131114   4.977  10.826   3.202 -1.2428 -1.1512  1.2095
42101SOL    HW231115   4.868  10.847   3.100  0.4880 -0.3047 -0.5264
42102SOL     OW31116  10.020  12.596   7.595  0.0607 -0.3625 -0.7663
42102SOL    HW131117   9.983  12.537   7.529 -0.7139 -1.2063  0.3835
42102SOL    HW231118  10.103  12.626   7.557  0.1044 -1.6044 -1.6993
42103SOL     OW31119   0.927  12.077   2.676 -0.3853  0.2647  1.0505
42103SOL    HW131120   0.914  12.005   2.738 -1.0321  1.0490  1.8319
42103SOL    HW231121   0.878  12.150   2.712 -0.7480  0.7553 -0.3672
42104SOL     OW31122  11.474   5.325   2.525 -0.3102  0.5110  0.7775
42104SOL    HW131123  11.445   5.256   2.586 -1.2370  0.2248  0.0441
42104SOL    HW231124  11.417   5.399   2.545 -1.0169  0.2274 -0.1003
42105SOL     OW31125   6.495   2.744   2.829  0.4607  0.3638 -0.0650
42105SOL    HW131126   6.407   2.757   2.864  0.8056 -0.6660  1.2804
42105SOL    HW231127   6.483   2.685   2.755  0.0276  0.1552  0.1676
42106SOL     OW31128   2.358   0.928   1.349 -0.6100  0.4347  0.3200
42106SOL    HW131129   2.419   0.905   1.278  0.5132  0.8562  1.1190
42106SOL    HW231130   2.355   1.024   1.348  0.7597  0.5529  1.8757
42107SOL     OW31131  11.472   4.487  10.292 -0.7839 -0.3151 -0.0775
42107SOL    HW131132  11.499   4.520  10.207 -1.7906 -1.7823 -1.0279
42107SOL    HW231133  11.376   4.492  10.290 -0.8107  1.5981  1.8412
42108SOL     OW31134   0.958  11.302  12.472  0.1811 -0.5002  0.5974
42108SOL    HW131135   1.051  11.321  12.462 -0.2906  1.5128 -0.5098
42108SOL    HW231136   0.921  11.383  12.509 -0.9326 -1.7625  2.4245
42109SOL     OW31137   8.811   0.050  10.994  0.7921 -0.6806  0.0935
42109SOL    HW131138   8.842   0.070  11.082  0.2915 -0.2655  0.1814
42109SOL    HW231139   8.843   0.123  10.940  1.6746 -1.2793 -0.2018
42110SOL     OW31140   2.908  11.433   6.107  0.2937 -0.8183 -0.4082
42110SOL    HW131141   2.825  11.456   6.066  0.1994  0.4781  0.4525
42110SOL    HW231142   2.921  11.340   6.086 -0.7768 -0.7320 -1.5406
42111SOL     OW31143   4.425  10.028   4.104 -0.2607 -0.0130 -0.1756
42111SOL    HW131144   4.414   9.980   4.186  0.3776 -1.1973 -0.7701
42111SOL    HW231145   4.456   9.963   4.042 -0.7775  0.8639 -1.3810
42112SOL     OW31146   9.353   0.917   0.081 -0.0080 -0.1177 -0.3776
42112SOL    HW131147   9.340   1.004   0.118 -0.9415  0.1066 -1.1719
42112SOL    HW231148   9.279   0.905   0.020 -0.4906 -1.8742  0.4709
42113SOL     OW31149  11.246   7.554   5.185  0.7390 -0.3986 -0.4170
42113SOL    HW131150  11.161   7.561   5.227 -0.4238 -0.7171 -2.5395
42113SOL    HW231151  11.309   7.551   5.257 -1.1402 -1.6768  1.2835
42114SOL     OW31152   2.672   8.334   7.367 -0.3207  0.0170 -0.2756
42114SOL    HW131153   2.615   8.406   7.341  0.2271  0.5571  0.0006
42114SOL    HW231154   2.697   8.292   7.284  0.7756  1.2355 -0.5873
42115SOL     OW31155   1.489   4.752   8.388  0.2854  0.6592  0.0133
42115SOL    HW131156   1.529   4.759   8.302  0.5440  0.7255  0.1385
42115SOL    HW231157   1.510   4.663   8.417 -0.6297  0.2951 -0.4001
42116SOL     OW31158   8.662   5.788   4.236  0.1039  0.0712 -0.1425
42116SOL    HW131159   8.640   5.771   4.327 -1.0596  0.4657 -0.3330
42116SOL    HW231160   8.624   5.714   4.188 -1.3878  1.0574 -0.5399
42117SOL     OW31161  10.420  12.252   4.508  0.3129 -0.0841  0.1908
42117SOL    HW131162  10.339  12.222   4.548  0.7214  1.0923  2.0155
42117SOL    HW231163  10.392  12.303   4.432 -0.5471 -1.1064 -0.2065
42118SOL     OW31164   1.884   4.719   6.529 -0.4509 -0.2738  0.4081
42118SOL    HW131165   1.961   4.705   6.583  0.4496 -0.5854 -0.9061
42118SOL    HW231166   1.824   4.648   6.552  0.4636 -1.1707  0.0654
42119SOL     OW31167   4.587  11.365   7.886  0.5878  0.0566 -0.0320
42119SOL    HW131168   4.542  11.441   7.847 -0.7931 -1.2012 -1.0200
42119SOL    HW231169   4.518  11.299   7.895  1.7402 -1.0702  0.8630
42120SOL     OW31170  11.206   3.223   0.503  0.3115  0.0770 -0.2050
42120SOL    HW131171  11.256   3.222   0.422  1.9509 -0.6859  0.7748
42120SOL    HW231172  11.171   3.134   0.511 -0.2797  0.2941 -0.3212
42121SOL     OW31173   2.993   6.496   6.152 -0.2581 -0.4302 -0.1341
42121SOL    HW131174   2.969   6.466   6.240  1.1136  0.1626  0.4730
42121SOL    HW231175   2.976   6.590   6.154  0.6391 -0.2591 -0.1856
42122SOL     OW31176   4.699   1.208   3.922  0.1312 -0.0658 -0.0974
42122SOL    HW131177   4.610   1.240   3.904  0.4913  0.7243 -0.5186
42122SOL    HW231178   4.703   1.201   4.018  0.1152  1.4137  0.0352
42123SOL     OW31179  11.033   5.244   1.374 -0.7334  0.5669 -0.3717
42123SOL    HW131180  10.976   5.313   1.409  0.2531  1.4526 -0.4347
42123SOL    HW231181  10.987   5.163   1.394 -2.1068  1.2471 -0.6087
42124SOL     OW31182   8.546   2.602   8.718 -0.2954  0.2211 -0.2916
42124SOL    HW131183   8.476   2.555   8.672 -0.0850  0.1084 -0.5043
42124SOL    HW231184   8.521   2.600   8.810 -1.1740  1.2131 -0.4869
42125SOL     OW31185   0.094  12.358   5.071  0.6876  0.5865  0.4255
42125SOL    HW131186   0.030  12.429   5.069 -0.8453 -0.7480 -0.3621
42125SOL    HW231187   0.044  12.280   5.047  2.0627 -0.9862  2.3580
42126SOL     OW31188   3.778   9.647  11.885  0.3078 -0.0507  0.0014
42126SOL    HW131189   3.843   9.623  11.819 -0.1117 -0.4448 -0.2791
42126SOL    HW231190   3.696   9.651  11.837  0.0178 -0.2078  0.4736
42127SOL     OW31191   1.958   7.647   7.336  0.1060 -0.2811 -0.0002
42127SOL    HW131192   1.915   7.570   7.373  0.7823 -0.3749  0.6219
42127SOL    HW231193   2.037   7.658   7.389  1.5028 -0.8210 -1.8659
42128SOL     OW31194   7.610   5.365  11.303 -0.9358  0.0046  0.4580
42128SOL    HW131195   7.565   5.446  11.281 -1.1270  0.2511  1.6955
42128SOL    HW231196   7.656   5.384  11.385  1.9230 -0.0486 -1.0023
42129SOL     OW31197   9.054   4.437   6.326  0.4127  0.3731 -0.5283
42129SOL    HW131198   9.004   4.403   6.400  0.3654  0.3987 -0.5483
42129SOL    HW231199   9.136   4.468   6.365 -0.1507  1.6203 -0.2825
42130SOL     OW31200  10.674   9.614   7.591  0.3278  0.0812  0.7216
42130SOL    HW131201  10.769   9.623   7.591  0.2953  1.1110 -1.3633
42130SOL    HW231202  10.642   9.700   7.562 -1.1299 -0.7324 -0.2263
42131SOL     OW31203   3.393  10.174   0.353 -0.1923 -0.2133 -0.1564
42131SOL    HW131204   3.397  10.221   0.270 -2.0682  1.3121  0.5301
42131SOL    HW231205   3.471  10.202   0.400  0.1839 -0.0348 -0.8709
42132SOL     OW31206   8.835   0.976  12.058  0.0974 -0.9520 -0.1845
42132SOL    HW131207   8.836   1.002  12.150  0.7385 -0.2213 -0.3837
42132SOL    HW231208   8.753   1.012  12.024 -0.7762 -2.3353  0.3896
42133SOL     OW31209   2.027   6.899  12.123 -0.3997 -0.4899 -0.6061
42133SOL    HW131210   2.073   6.936  12.198 -1.9141 -0.9814  0.5953
42133SOL    HW231211   1.973   6.829  12.159 -1.0939 -0.8010 -2.1649
42134SOL     OW31212   5.132   1.875   2.459 -0.1755  0.6102  0.1474
42134SOL    HW131213   5.044   1.901   2.431 -0.3862 -0.3130 -0.0939
42134SOL    HW231214   5.156   1.939   2.526 -0.9473  0.9947  0.0672
42135SOL     OW31215   7.949  12.327   1.129  0.9006 -0.3174  0.5458
42135SOL    HW131216   7.943  12.415   1.167  0.0404  0.1116 -0.5196
42135SOL    HW231217   7.955  12.343   1.035  0.4461 -1.4086  0.3184
42136SOL     OW31218   6.526   2.153   8.907 -0.4349  0.5418  0.4384
42136SOL    HW131219   6.529   2.058   8.919  0.4033  0.3942 -0.6992
42136SOL    HW231220   6.618   2.180   8.912 -0.4654  1.0172 -1.0827
42137SOL     OW31221   5.148   1.475  12.505 -0.4779 -0.2000 -0.3572
42137SOL    HW131222   5.151   1.443  12.595 -1.3322  0.7090  0.0137
42137SOL    HW231223   5.231   1.521  12.492 -1.0940  1.2528  0.6003
42138SOL     OW31224   1.882   5.640   3.547  0.1319  0.4444  0.0114
42138SOL    HW131225   1.789   5.648   3.570  0.1633  0.8224  0.0171
42138SOL    HW231226   1.881   5.606   3.457 -0.0232  0.8789 -0.1556
42139SOL     OW31227   5.896   0.066  11.688  0.2489  0.4357  0.0024
42139SOL    HW131228   5.963   0.031  11.747 -0.7498 -0.2953  0.7399
42139SOL    HW231229   5.844   0.125  11.742 -0.4731  0.0185 -0.2288
42140SOL     OW31230   0.988   4.588   1.576 -0.2215  0.5090 -0.0968
42140SOL    HW131231   0.922   4.628   1.520 -0.4175 -1.0247 -1.0287
42140SOL    HW231232   1.053   4.553   1.515  0.6748  0.6668  0.7365
42141SOL     OW31233  11.713   2.362   8.496  0.0121  0.2697 -0.2862
42141SOL    HW131234  11.774   2.413   8.550  0.2990  0.2266 -0.5623
42141SOL    HW231235  11.635   2.416   8.490 -0.1238  0.1544  0.3975
42142SOL     OW31236   1.811   4.174  10.852  0.4941 -0.8023  0.3275
42142SOL    HW131237   1.754   4.109  10.892  1.2235 -0.4592  2.0338
42142SOL    HW231238   1.887   4.179  10.911  1.7569 -0.4230 -1.2593
42143SOL     OW31239   2.138  11.644   3.903 -0.0011  0.2724 -0.3908
42143SOL    HW131240   2.045  11.642   3.880 -0.2230 -0.9210  0.5150
42143SOL    HW231241   2.139  11.659   3.998  0.6305 -1.7147 -0.0451
42144SOL     OW31242   4.284   5.594  10.581  0.4079 -0.2218 -0.0704
42144SOL    HW131243   4.333   5.665  10.622  0.1897  0.1407 -0.4341
42144SOL    HW231244   4.197   5.630  10.565 -0.0190 -0.9048  0.6787
42145SOL     OW31245   8.911   4.899   5.770  0.2872 -0.1240 -0.0503
42145SOL    HW131246   8.970   4.941   5.833  1.9599 -1.5588 -0.5772
42145SOL    HW231247   8.931   4.806   5.778 -0.7683 -0.4927 -1.4340
42146SOL     OW31248   3.121   6.530  11.154  0.1330  0.4255  0.2316
42146SOL    HW131249   3.215   6.536  11.170  0.1517 -1.1159  0.8576
42146SOL    HW231250   3.082   6.591  11.217  0.6789  0.4779  0.5226
42147SOL     OW31251   5.621   5.843   3.227  0.5755 -0.3816 -0.6626
42147SOL    HW131252   5.658   5.794   3.301  0.0270 -0.3406 -0.3553
42147SOL    HW231253   5.690   5.903   3.200  0.4250  0.3447  0.4981
42148SOL     OW31254   4.836  10.995   4.148  0.4127  0.2600  0.5381
42148SOL    HW131255   4.865  10.930   4.213 -1.9980 -0.7337  0.7495
42148SOL    HW231256   4.870  11.078   4.181  4.6554 -0.9095 -0.3937
42149SOL     OW31257  12.019  11.198   5.574  0.3667  0.0831  0.2155
42149SOL    HW131258  12.000  11.156   5.658  2.2502  0.4025  0.8553
42149SOL    HW231259  11.962  11.274   5.572 -0.6633 -0.6540  0.5826
42150SOL     OW31260   5.822   7.816   2.538  0.2537  0.1191  0.1114
42150SOL    HW131261   5.882   7.840   2.609  0.6628  0.0126 -0.1906
42150SOL    HW231262   5.762   7.891   2.530  0.5416  0.3634  0.2143
42151SOL     OW31263   9.722   5.935   9.232  0.5090 -0.2649 -0.5663
42151SOL    HW131264   9.759   5.984   9.158  1.0566 -2.2446 -1.6670
42151SOL    HW231265   9.776   5.856   9.239 -0.1514 -0.6186  1.3361
42152SOL     OW31266  10.400  12.142   0.759  0.3316 -0.5218 -0.1116
42152SOL    HW131267  10.381  12.129   0.851 -0.7815 -0.2509 -0.2932
42152SOL    HW231268  10.354  12.071   0.714  0.4104 -0.3338 -0.4979
42153SOL     OW31269  12.277  11.879   1.279 -0.4747  0.1696  0.0313
42153SOL    HW131270  12.190  11.874   1.241 -1.2635  2.5888  1.2755
42153SOL    HW231271  12.336  11.885   1.203 -1.5392  0.0597 -0.8283
42154SOL     OW31272   5.389  11.982   3.939 -0.6341  0.7101 -0.2630
42154SOL    HW131273   5.361  11.969   4.029 -0.3856  1.6294 -0.0336
42154SOL    HW231274   5.449  12.057   3.943  1.0167 -0.5127 -0.8871
42155SOL     OW31275   9.198   0.035   8.171 -0.0163 -0.0409  0.1688
42155SOL    HW131276   9.159  -0.049   8.195 -0.1080  0.3957  1.6584
42155SOL    HW231277   9.216   0.078   8.255 -2.2533  2.4781 -0.5021
42156SOL     OW31278   5.847   2.234   6.287  0.1940 -0.3349 -0.2062
42156SOL    HW131279   5.802   2.187   6.217 -2.2892  1.1429  0.2908
42156SOL    HW231280   5.885   2.311   6.244 -0.7203  0.1955 -0.0971
42157SOL     OW31281   4.732   3.549   2.724 -0.8786  0.1798  0.2266
42157SOL    HW131282   4.814   3.500   2.728 -1.6527 -1.1632  0.3752
42157SOL    HW231283   4.671   3.488   2.681 -2.0793  0.7248  1.1125
42158SOL     OW31284   9.084  12.244   4.419  0.3746  0.2611  0.0312
42158SOL    HW131285   9.141  12.265   4.345  0.0238  0.5747 -0.1574
42158SOL    HW231286   9.110  12.157   4.446  1.6121  0.7751  0.5663
42159SOL     OW31287   5.515   8.646  12.589  0.4499  0.3435 -0.5453
42159SOL    HW131288   5.530   8.646  12.495 -1.5691 -0.6998 -0.9269
42159SOL    HW231289   5.432   8.693  12.600  0.1402 -0.4298  0.6009
42160SOL     OW31290   4.556  11.124   6.699  0.0237  0.1173  0.0327
42160SOL    HW131291   4.533  11.080   6.617 -0.3298  1.1144 -0.4190
42160SOL    HW231292   4.645  11.157   6.684  0.6365 -1.1610  0.6903
42161SOL     OW31293   5.830   8.897  10.667  0.1219 -0.3446  0.6123
42161SOL    HW131294   5.825   8.940  10.581 -0.3966 -1.4107  0.0905
42161SOL    HW231295   5.776   8.819  10.658 -0.7625  0.0355  2.2372
42162SOL     OW31296   8.454   1.362   4.554  0.0276 -0.2652  0.5153
42162SOL    HW131297   8.531   1.417   4.563 -0.5002  0.7821 -1.0639
42162SOL    HW231298   8.383   1.422   4.530 -0.4226 -1.6291 -1.9791
42163SOL     OW31299   7.765  11.707   9.977 -0.3416  0.2876  0.2359
42163SOL    HW131300   7.793  11.624  10.014  0.9077  0.8152  0.5623
42163SOL    HW231301   7.686  11.687   9.927 -1.0021 -0.7778  1.6561
42164SOL     OW31302   2.979   4.838   9.130 -0.1960 -0.4403  0.4279
42164SOL    HW131303   2.998   4.793   9.212  0.3380  0.1092  0.6133
42164SOL    HW231304   3.063   4.838   9.082 -0.3692 -0.2873  0.1189
42165SOL     OW31305   0.065   3.191   4.823 -0.4817 -0.1192  0.3413
42165SOL    HW131306   0.052   3.119   4.761  0.9014 -0.3225  0.2532
42165SOL    HW231307  -0.024   3.215   4.851 -1.0355 -1.0492 -0.5392
42166SOL     OW31308  12.366  11.522   3.838  0.2229  0.7908  0.1438
42166SOL    HW131309  12.272  11.539   3.847 -0.7069 -3.4026  0.4096
42166SOL    HW231310  12.404  11.557   3.919 -1.3559  1.0702  0.8133
42167SOL     OW31311  10.097   4.426   9.571 -0.0919 -0.3631 -0.0201
42167SOL    HW131312  10.130   4.502   9.620 -1.2209  0.0676  0.0967
42167SOL    HW231313  10.007   4.416   9.600 -1.1613  0.5286 -2.6785
42168SOL     OW31314  12.344  12.129   1.800  0.5530  0.2831 -0.0559
42168SOL    HW131315  12.338  12.109   1.893 -1.5517  3.0819  0.5602
42168SOL    HW231316  12.255  12.119   1.767  0.9649  0.7765 -1.3996
42169SOL     OW31317   9.208   7.947   5.134 -0.0104  0.4321 -0.1374
42169SOL    HW131318   9.182   7.965   5.044  0.3593 -0.7287 -0.5042
42169SOL    HW231319   9.148   7.998   5.188 -0.6740  0.6171 -1.0276
42170SOL     OW31320  12.030  10.796  10.254 -0.1184 -0.2658  0.0073
42170SOL    HW131321  11.964  10.855  10.218 -0.7158 -0.2457  1.1074
42170SOL    HW231322  11.990  10.760  10.333 -0.2144 -2.9862 -1.1566
42171SOL     OW31323   0.244   7.812   8.303  0.0181  0.2895 -1.0533
42171SOL    HW131324   0.176   7.875   8.328 -1.5129 -2.0783  1.3208
42171SOL    HW231325   0.212   7.774   8.221 -0.1275  1.0849 -1.3748
42172SOL     OW31326   3.233   8.376   4.496 -0.1137  0.1102 -0.4756
42172SOL    HW131327   3.273   8.453   4.536  0.4745 -0.0367 -0.7661
42172SOL    HW231328   3.139   8.391   4.504 -0.0093  0.3699  0.3958
42173SOL     OW31329   0.389   6.068  11.967 -0.0950 -0.4898 -0.0803
42173SOL    HW131330   0.321   6.092  12.030 -1.4564 -2.3673 -0.7211
42173SOL    HW231331   0.346   6.006  11.908  1.4121  0.4092 -2.2512
42174SOL     OW31332   2.310  11.382  10.369  0.7594  0.1178  0.1468
42174SOL    HW131333   2.263  11.372  10.452 -1.6802 -1.2780 -1.3080
42174SOL    HW231334   2.286  11.469  10.338 -2.9385 -1.3407 -1.6361
42175SOL     OW31335  10.767   9.595   3.580 -0.0785  0.0912  0.0168
42175SOL    HW131336  10.706   9.525   3.557  2.7647 -2.7567  0.4719
42175SOL    HW231337  10.737   9.626   3.666 -0.5296 -1.6832  0.5272
42176SOL     OW31338   3.983   7.850   8.977  0.0139  0.2261  0.4112
42176SOL    HW131339   4.048   7.781   8.990  0.1523  0.6294  2.2484
42176SOL    HW231340   3.924   7.841   9.052 -1.1265  0.8688 -0.3790
42177SOL     OW31341   8.021   8.082   8.394 -0.0155 -0.0217  0.7784
42177SOL    HW131342   8.015   8.027   8.316 -0.8068 -0.5149  1.1720
42177SOL    HW231343   8.110   8.069   8.426  0.3400  0.2421 -0.0767
42178SOL     OW31344   4.160   1.919  11.327 -0.4137  0.0706  0.0295
42178SOL    HW131345   4.205   1.869  11.394 -1.0571 -0.5017  0.0434
42178SOL    HW231346   4.223   1.986  11.301  0.2543 -0.4002  0.4017
42179SOL     OW31347  12.487  10.564   3.296  0.0142  0.6526  0.2015
42179SOL    HW131348  12.394  10.545   3.288  0.2945 -0.6913 -0.2325
42179SOL    HW231349  12.498  10.650   3.255 -0.7223 -0.0911 -1.6914
42180SOL     OW31350   9.409   8.717   8.059 -0.5935 -0.1662  0.2492
42180SOL    HW131351   9.356   8.751   8.132 -0.3559 -1.7050  1.1745
42180SOL    HW231352   9.428   8.794   8.006 -1.7552  0.8110  1.1843
42181SOL     OW31353   4.677   6.453   3.129 -0.3163 -0.0662 -0.5561
42181SOL    HW131354   4.772   6.451   3.139 -0.3650  1.0052  0.4048
42181SOL    HW231355   4.644   6.478   3.216 -1.5025 -0.7827 -0.7699
42182SOL     OW31356   7.404   3.017   3.111  0.2248  0.5560 -0.2094
42182SOL    HW131357   7.475   3.035   3.048 -0.2049 -1.5200 -1.3788
42182SOL    HW231358   7.408   2.922   3.125 -0.3718  0.8336  2.1437
42183SOL     OW31359   8.226   3.948  12.361  0.5792 -0.1370  0.4883
42183SOL    HW131360   8.133   3.924  12.361  0.5016  0.1493  0.8421
42183SOL    HW231361   8.234   4.013  12.431  0.9034  0.4045 -0.0516
42184SOL     OW31362  10.577   4.868   8.710  0.3111  0.6499 -0.0863
42184SOL    HW131363  10.563   4.897   8.800 -1.4675  1.0030 -0.4382
42184SOL    HW231364  10.583   4.773   8.716  4.2186  0.7978  0.8349
42185SOL     OW31365   9.045   0.841   1.070 -0.4511 -0.5453 -0.6905
42185SOL    HW131366   9.008   0.858   0.983 -1.3990 -0.4620 -0.2813
42185SOL    HW231367   9.105   0.914   1.085 -1.1927  0.0907 -0.7763
42186SOL     OW31368  11.077   7.993  11.605  0.3848  1.3376 -0.0359
42186SOL    HW131369  10.994   8.036  11.627 -0.3755 -0.2846  0.4603
42186SOL    HW231370  11.093   8.017  11.514 -0.6245  1.7106 -0.1355
42187SOL     OW31371   2.112   5.486   3.664  0.0753  0.2009 -0.4049
42187SOL    HW131372   2.052   5.553   3.631 -0.5041 -0.8279 -1.5362
42187SOL    HW231373   2.193   5.500   3.616 -0.2288 -0.2431 -1.0652
42188SOL     OW31374   3.022   9.432   8.606  0.8348 -0.2187  0.4311
42188SOL    HW131375   2.931   9.401   8.607  1.2651 -1.5145  0.4784
42188SOL    HW231376   3.020   9.509   8.663 -0.3738  0.2077 -0.1383
42189SOL     OW31377   3.844  12.608   8.655 -0.0711  0.3219 -0.6214
42189SOL    HW131378   3.795  12.623   8.736  0.3596  1.2396 -0.5208
42189SOL    HW231379   3.934  12.595   8.683  0.0161  0.2531 -0.9287
42190SOL     OW31380   8.465   4.994   5.461  0.0128 -0.5863 -0.3835
42190SOL    HW131381   8.438   4.931   5.395  2.6185 -1.8160 -0.3955
42190SOL    HW231382   8.552   4.966   5.487  0.8507  2.3916  0.4250
42191SOL     OW31383   1.676  10.320   7.787 -0.1514 -0.1676 -0.2567
42191SOL    HW131384   1.714  10.309   7.875  0.3162 -1.6712 -0.6068
42191SOL    HW231385   1.741  10.280   7.729 -0.2634  1.1695 -1.3521
42192SOL     OW31386   2.431  10.492   0.855  0.1567 -0.3500 -0.5044
42192SOL    HW131387   2.336  10.490   0.848  0.1940 -0.9161 -0.9194
42192SOL    HW231388   2.458  10.401   0.842  0.5990 -0.6355  1.9634
42193SOL     OW31389   1.306   6.045   8.701 -0.3305  0.2363 -1.1905
42193SOL    HW131390   1.338   6.068   8.614 -0.8904 -1.5868 -1.9260
42193SOL    HW231391   1.306   5.949   8.703 -1.0896  0.2181  0.5284
42194SOL     OW31392   8.149   4.236   1.636 -0.1502 -0.1706 -0.0269
42194SOL    HW131393   8.181   4.154   1.598  0.3810 -0.2211  0.5007
42194SOL    HW231394   8.125   4.212   1.726 -0.0384  0.2375  0.1134
42195SOL     OW31395   7.012  10.873   0.148 -0.2505 -0.1589 -0.2854
42195SOL    HW131396   7.098  10.832   0.137  0.2405  1.0368 -1.1044
42195SOL    HW231397   7.020  10.958   0.105 -2.2503 -0.5521 -1.5808
42196SOL     OW31398   6.339   7.681   9.309  0.4037 -0.5063 -0.0068
42196SOL    HW131399   6.302   7.685   9.398  1.1054  1.6493  0.2419
42196SOL    HW231400   6.293   7.749   9.261  1.4674 -0.2629 -0.7129
42197SOL     OW31401   3.519   3.149   9.314 -0.2002 -0.2035 -0.1950
42197SOL    HW131402   3.526   3.199   9.232  0.2087 -1.0080 -0.6650
42197SOL    HW231403   3.600   3.097   9.317 -0.4018 -0.4851  0.5203
42198SOL     OW31404   8.873   4.178   7.613 -0.4033 -0.7307  0.0138
42198SOL    HW131405   8.948   4.151   7.665 -1.8175 -1.4379  1.7968
42198SOL    HW231406   8.894   4.268   7.587  0.0959 -0.0554  2.4472
42199SOL     OW31407   1.824   1.583   0.135  0.1501 -0.5853 -0.1621
42199SOL    HW131408   1.842   1.495   0.104  1.8078 -0.5172  0.4985
42199SOL    HW231409   1.822   1.637   0.056 -0.1316 -1.0957 -0.5084
42200SOL     OW31410  12.095  10.771   2.583  0.0319 -0.2569 -0.1230
42200SOL    HW131411  12.097  10.803   2.673  0.4712 -0.4293 -0.0705
42200SOL    HW231412  12.005  10.740   2.571  0.7553 -3.3101  1.3509
42201SOL     OW31413   0.330  12.347   1.556 -0.0305 -0.1553 -0.2546
42201SOL    HW131414   0.419  12.313   1.549  0.0733  0.2543 -0.9978
42201SOL    HW231415   0.277  12.270   1.579  0.7322 -0.0859  1.9841
42202SOL     OW31416   5.042   3.306   5.580  0.2480  0.2979 -0.3605
42202SOL    HW131417   5.021   3.258   5.500 -0.3162 -0.9252  0.4968
42202SOL    HW231418   4.959   3.341   5.611  0.2780 -0.1400  0.2461
42203SOL     OW31419   5.032  12.245   0.176  0.4661 -0.6052  0.4080
42203SOL    HW131420   4.945  12.247   0.217  0.1267  1.2406 -0.3034
42203SOL    HW231421   5.065  12.334   0.186  0.5683 -0.1754 -2.8995
42204SOL     OW31422   2.687   7.395   0.099  0.0403  0.3765  0.7292
42204SOL    HW131423   2.601   7.434   0.083 -0.1038  0.6548  2.0559
42204SOL    HW231424   2.748   7.468   0.093  0.5702 -0.1722 -2.6104
42205SOL     OW31425   0.350   0.552  10.356  0.0833  0.1294 -0.7902
42205SOL    HW131426   0.424   0.496  10.379  0.4191  0.2237 -1.5807
42205SOL    HW231427   0.390   0.637  10.336 -0.5456  1.0782  1.6941
42206SOL     OW31428   3.443   0.188  11.683  0.1321 -0.1787 -0.2675
42206SOL    HW131429   3.517   0.231  11.640 -2.0279  0.9683 -3.0767
42206SOL    HW231430   3.366   0.235  11.652 -2.0428 -3.1952  0.1406
42207SOL     OW31431   1.471   6.289  12.642 -0.4375 -0.1882 -0.6653
42207SOL    HW131432   1.546   6.346  12.625 -0.4531 -0.3701 -1.3698
42207SOL    HW231433   1.453   6.247  12.558 -0.7914 -0.7950 -0.2949
42208SOL     OW31434   5.432   9.796   6.440 -0.0950 -0.5284  0.2954
42208SOL    HW131435   5.369   9.778   6.371  0.9767  0.0485 -0.8693
42208SOL    HW231436   5.508   9.833   6.395  0.4851  0.2407  1.8209
42209SOL     OW31437   1.043   4.553   4.524 -0.7620  0.1363  0.4607
42209SOL    HW131438   1.111   4.580   4.462 -1.0655  0.9677  0.4703
42209SOL    HW231439   1.045   4.620   4.593 -0.8864 -0.4034  0.9996
42210SOL     OW31440  11.342   4.396   7.681 -0.3236 -0.4093 -0.3508
42210SOL    HW131441  11.335   4.480   7.727 -0.8154  0.2840 -1.6299
42210SOL    HW231442  11.432   4.395   7.648  1.2966 -2.5323  3.4969
42211SOL     OW31443   4.309   1.935   9.561 -0.1600 -0.3668  0.3102
42211SOL    HW131444   4.215   1.942   9.543 -0.7187  0.3321  3.0375
42211SOL    HW231445   4.341   2.025   9.552 -0.1125 -0.3046  1.1024
42212SOL     OW31446   0.892   8.175  12.069  0.3566  0.1469 -0.2940
42212SOL    HW131447   0.877   8.269  12.061  1.7030  0.4815  0.7350
42212SOL    HW231448   0.805   8.136  12.063 -0.6687  1.7300  2.3876
42213SOL     OW31449   7.283   0.761  11.390  0.3439  0.6803  0.6381
42213SOL    HW131450   7.370   0.748  11.430  0.7766 -0.4968 -0.6051
42213SOL    HW231451   7.244   0.673  11.389  0.0129  0.8232 -0.7322
42214SOL     OW31452   0.599   9.450   0.109  0.4051  0.5391  0.4350
42214SOL    HW131453   0.619   9.536   0.073 -0.0384  0.9682  1.1832
42214SOL    HW231454   0.515   9.462   0.155  1.6443  0.4090  2.8711
42215SOL     OW31455   2.707   0.132   5.933 -1.0137 -0.4131 -0.5371
42215SOL    HW131456   2.688   0.140   5.839 -1.8035 -1.4338 -0.4817
42215SOL    HW231457   2.746   0.216   5.957  0.4363 -0.6119 -2.0598
42216SOL     OW31458   3.539   5.573   2.015  0.2828  0.7838 -0.1950
42216SOL    HW131459   3.526   5.645   2.077  1.7004 -0.0096  1.0909
42216SOL    HW231460   3.515   5.610   1.930  0.1879  2.5217  0.5511
42217SOL     OW31461   1.932   4.236   9.204  0.6570  0.1690 -1.1072
42217SOL    HW131462   1.989   4.244   9.281  0.3915 -1.3912 -0.7149
42217SOL    HW231463   1.854   4.286   9.227  0.2417 -0.9309 -0.0055
42218SOL     OW31464   5.837   1.205   9.594  0.2004  0.2962 -0.1167
42218SOL    HW131465   5.914   1.158   9.627  1.1935  2.0198  0.1387
42218SOL    HW231466   5.782   1.218   9.670  0.2575  0.1689 -0.0530
42219SOL     OW31467   6.596   4.262   0.960 -0.0754 -0.6264  0.0391
42219SOL    HW131468   6.553   4.196   1.014  0.6876 -1.0893  0.1041
42219SOL    HW231469   6.538   4.273   0.884 -0.9135 -0.3149  0.7200
42220SOL     OW31470   7.450   5.048   6.174  0.1895 -0.2589  0.2977
42220SOL    HW131471   7.544   5.064   6.183  0.5424 -1.8201 -0.4065
42220SOL    HW231472   7.413   5.134   6.151  1.5123  0.2554  0.0271
42221SOL     OW31473   5.289   4.898   4.977 -0.2260 -0.4577 -0.1084
42221SOL    HW131474   5.231   4.827   5.003 -0.4065 -0.0870  0.5283
42221SOL    HW231475   5.377   4.869   5.002 -0.5181  0.3814  2.0570
42222SOL     OW31476  12.065  10.123  12.555 -0.1323  0.5808 -0.2951
42222SOL    HW131477  12.145  10.153  12.596  0.7721 -1.8322 -0.1166
42222SOL    HW231478  12.094  10.071  12.480 -1.6000  0.9543 -1.1741
42223SOL     OW31479   8.422   6.553   1.285 -0.1176  0.2519 -0.0141
42223SOL    HW131480   8.457   6.588   1.367 -0.8100 -1.3586  1.0154
42223SOL    HW231481   8.418   6.459   1.299  0.2408 -0.1279 -2.1190
42224SOL     OW31482   0.495   1.997   1.000 -0.3334  0.0606 -0.4169
42224SOL    HW131483   0.471   2.066   0.938 -0.4836  1.5305  1.1933
42224SOL    HW231484   0.590   1.995   0.998 -0.3192  0.4657 -0.3305
42225SOL     OW31485  11.974   4.660   6.915 -0.0374 -0.2465 -0.5587
42225SOL    HW131486  11.999   4.626   7.001 -0.3878 -0.7066 -0.6327
42225SOL    HW231487  11.917   4.592   6.878 -0.9344  0.5224 -0.6213
42226SOL     OW31488   3.396  11.408  10.392 -0.0780 -0.3516 -0.3962
42226SOL    HW131489   3.474  11.437  10.438 -0.4667  1.0019 -0.5515
42226SOL    HW231490   3.416  11.423  10.299 -0.5357  0.0509 -0.4327
42227SOL     OW31491   4.059   5.416   1.386 -0.4161  0.0252 -0.4178
42227SOL    HW131492   4.144   5.382   1.358 -0.7079 -1.7216  0.6265
42227SOL    HW231493   4.079   5.491   1.441  0.3486  0.6833 -1.5606
42228SOL     OW31494  12.409   2.392   7.271 -0.0341  0.0351 -0.0258
42228SOL    HW131495  12.339   2.327   7.274 -1.2527  1.3347  2.1035
42228SOL    HW231496  12.467   2.368   7.343  0.6315  0.1592 -0.5059
42229SOL     OW31497  12.301   8.893   4.732  0.2538 -0.3608 -0.0038
42229SOL    HW131498  12.366   8.941   4.784 -0.7775  1.3990 -0.2805
42229SOL    HW231499  12.227   8.883   4.791  0.7414 -2.4221  0.3298
42230SOL     OW31500   2.918   1.543   6.295  0.5589 -0.4804 -0.1478
42230SOL    HW131501   2.951   1.599   6.365 -0.6988  1.3537 -0.9280
42230SOL    HW231502   2.839   1.502   6.331 -0.0834  0.4572 -0.4348
42231SOL     OW31503   5.251  11.020   7.910  0.3511  0.5976  0.2730
42231SOL    HW131504   5.324  10.985   7.859 -0.5902  0.4972 -1.0379
42231SOL    HW231505   5.192  10.946   7.923 -0.6240  1.1857 -0.6841
42232SOL     OW31506   8.920   1.911   6.768 -0.3044 -0.1400 -0.1860
42232SOL    HW131507   8.888   1.847   6.832  2.5839 -1.9596 -0.3964
42232SOL    HW231508   8.989   1.958   6.814  1.5098 -1.1717 -1.7297
42233SOL     OW31509   9.527   5.278   3.394  1.0524 -0.2613 -0.4563
42233SOL    HW131510   9.480   5.325   3.325 -0.5651 -0.1081  0.6789
42233SOL    HW231511   9.568   5.204   3.349 -0.7940 -0.7462 -1.4497
42234SOL     OW31512   8.087   4.900   7.511 -0.0902  0.7048  0.1697
42234SOL    HW131513   8.043   4.984   7.515 -1.3558  0.1006 -0.4527
42234SOL    HW231514   8.036   4.843   7.568  1.0843  0.4735  1.0433
42235SOL     OW31515   6.907   5.935   6.232 -0.0119  0.0203 -0.3944
42235SOL    HW131516   6.954   5.884   6.298  0.4931  0.5493 -0.3410
42235SOL    HW231517   6.828   5.883   6.213 -0.0533 -0.2388  0.4572
42236SOL     OW31518   8.067   1.403   2.289  0.2794  0.3446 -0.3925
42236SOL    HW131519   8.145   1.357   2.319  0.0974 -0.0685 -0.5478
42236SOL    HW231520   8.059   1.380   2.196  0.4352  1.0429 -0.5866
42237SOL     OW31521  10.843   2.610   3.536 -0.3604 -0.4691 -0.5487
42237SOL    HW131522  10.809   2.606   3.447 -0.3008 -1.4909 -0.5297
42237SOL    HW231523  10.766   2.627   3.590 -0.6945 -1.6686 -0.6212
42238SOL     OW31524   5.952   9.532   0.042 -0.0492 -0.4832  0.1617
42238SOL    HW131525   5.918   9.616   0.075  0.9227 -0.2883  0.7034
42238SOL    HW231526   5.923   9.468   0.108 -1.3928 -0.7067 -0.6094
42239SOL     OW31527   5.097  10.621   5.637 -0.1604 -0.4008 -0.1295
42239SOL    HW131528   5.112  10.539   5.683  0.1471 -0.2894 -0.0310
42239SOL    HW231529   5.014  10.653   5.672  0.0480 -0.3387  0.3087
42240SOL     OW31530   0.607   0.213   9.971 -0.2737 -0.3342 -0.3010
42240SOL    HW131531   0.568   0.158   9.904 -1.4437 -0.2768  0.3185
42240SOL    HW231532   0.533   0.256  10.014  0.5341  0.6372  0.1590
42241SOL     OW31533   9.886  11.135   4.519  0.4312  0.3935 -0.0645
42241SOL    HW131534   9.962  11.081   4.543 -0.6439 -1.6344 -0.8983
42241SOL    HW231535   9.881  11.127   4.423 -0.8755  0.4082 -0.0161
42242SOL     OW31536   8.904   8.895   3.205 -0.2449  0.1047 -0.4128
42242SOL    HW131537   8.869   8.949   3.135  1.3403  1.4695 -0.2139
42242SOL    HW231538   8.847   8.912   3.280 -0.8940 -0.0076 -0.8721
42243SOL     OW31539  10.705   6.763   4.035  0.3426 -0.9325 -0.6715
42243SOL    HW131540  10.794   6.729   4.048  1.2497  0.8190 -1.9540
42243SOL    HW231541  10.662   6.697   3.981  1.3088 -1.1606 -1.1916
42244SOL     OW31542   0.313  12.332   0.791  0.3830 -0.0232 -0.2180
42244SOL    HW131543   0.364  12.380   0.727 -0.7143  0.1518 -0.9741
42244SOL    HW231544   0.371  12.260   0.818  2.4259  2.1452  1.6370
42245SOL     OW31545   4.617   4.562   3.976  0.1872 -0.1567 -0.9745
42245SOL    HW131546   4.523   4.579   3.979  0.4324  1.2074 -0.4521
42245SOL    HW231547   4.641   4.578   3.885  0.1748  1.1547 -0.7729
42246SOL     OW31548  10.281   8.620   5.991 -0.0242 -0.3082  0.4429
42246SOL    HW131549  10.324   8.608   5.906 -1.6370  0.0733 -0.4593
42246SOL    HW231550  10.215   8.687   5.976 -1.6125 -1.5332  1.5173
42247SOL     OW31551  11.343  10.551  12.150 -0.2624 -0.7435  0.0421
42247SOL    HW131552  11.305  10.488  12.211 -1.2006  0.1678  0.4325
42247SOL    HW231553  11.273  10.567  12.086 -0.1835  0.1768  0.1665
42248SOL     OW31554   7.226   8.933   9.975  0.1411 -0.0740  0.2043
42248SOL    HW131555   7.273   8.926  10.058  1.8616  1.5067 -0.5610
42248SOL    HW231556   7.133   8.935  10.000  0.5979  0.1019  2.0490
42249SOL     OW31557   1.144   3.836   1.594 -0.3870 -0.0439  0.0320
42249SOL    HW131558   1.166   3.779   1.521  0.1118 -1.1669  1.0161
42249SOL    HW231559   1.228   3.861   1.631 -0.6380 -1.0144  1.3340
42250SOL     OW31560   9.725   8.075  10.402  0.2039 -0.0872 -0.1838
42250SOL    HW131561   9.809   8.112  10.376 -0.3210  1.9371  0.7696
42250SOL    HW231562   9.682   8.052  10.319  1.2074 -0.0220 -0.7367
42251SOL     OW31563   0.457   4.551   1.832  0.0945  0.0535  0.5941
42251SOL    HW131564   0.434   4.460   1.852  1.4093  0.1532  3.0055
42251SOL    HW231565   0.551   4.547   1.813 -0.0388  0.8002 -0.2629
42252SOL     OW31566   2.548   6.166   7.687  0.2444  0.2143 -0.7378
42252SOL    HW131567   2.527   6.176   7.780 -0.2581 -0.9166 -0.7137
42252SOL    HW231568   2.593   6.247   7.663 -0.5430  0.9550  0.2400
42253SOL     OW31569  11.733   3.925   8.596 -0.0155  0.2736  0.2096
42253SOL    HW131570  11.673   3.891   8.530  0.6429  0.5845 -0.5740
42253SOL    HW231571  11.783   3.848   8.624  0.3616  0.3044 -0.3670
42254SOL     OW31572   4.153  10.051   5.921  0.3417  0.0828  0.3532
42254SOL    HW131573   4.224   9.992   5.895 -0.9623 -0.5851 -1.9796
42254SOL    HW231574   4.073  10.003   5.900 -0.8259  1.0851  2.2919
42255SOL     OW31575   6.832   3.473  10.844  0.0343 -0.2109  0.2643
42255SOL    HW131576   6.924   3.452  10.862 -0.0890  0.0103  1.1994
42255SOL    HW231577   6.833   3.506  10.755  0.8839 -0.1104  0.2962
42256SOL     OW31578  11.856   6.878   2.637 -0.1038 -0.2535 -0.0401
42256SOL    HW131579  11.846   6.959   2.687  1.0467  0.2812 -0.6385
42256SOL    HW231580  11.875   6.812   2.702  2.2006  0.5848  0.2224
42257SOL     OW31581   2.785   4.096   3.654  0.0291  0.0570  0.1488
42257SOL    HW131582   2.759   4.005   3.640 -1.0007  0.0204  2.0471
42257SOL    HW231583   2.743   4.144   3.582 -0.2767 -0.8059 -0.2622
42258SOL     OW31584   7.585   4.823  10.445 -0.1911 -0.2371  0.7368
42258SOL    HW131585   7.608   4.753  10.505  0.0707  0.5031  1.5239
42258SOL    HW231586   7.493   4.808  10.425  0.6332 -2.7862 -1.8355
42259SOL     OW31587  11.724   3.088   7.255  0.0499  0.3840  0.5299
42259SOL    HW131588  11.673   3.153   7.304  1.6414  1.2019  1.1746
42259SOL    HW231589  11.754   3.026   7.322  0.2437  0.1403  0.2201
42260SOL     OW31590  10.027   7.309   9.935 -0.5389  0.2089 -0.1171
42260SOL    HW131591   9.965   7.301  10.007  1.0941 -2.0802  1.1802
42260SOL    HW231592  10.071   7.392   9.950 -0.3013 -0.1748  1.5378
42261SOL     OW31593   3.101   2.469   6.659 -0.2730  0.0522  0.3084
42261SOL    HW131594   3.097   2.562   6.638 -1.2805  0.1262  0.7783
42261SOL    HW231595   3.180   2.437   6.614  0.1414  1.1469  0.2422
42262SOL     OW31596   2.030   8.790  11.627 -0.0486  0.1883  0.2832
42262SOL    HW131597   2.046   8.766  11.718 -2.9076  0.1427  0.8538
42262SOL    HW231598   2.030   8.706  11.580  2.3449  0.2836  0.0043
42263SOL     OW31599   4.355   1.378   0.241 -0.6734  0.3354  0.1795
42263SOL    HW131600   4.407   1.454   0.215  1.0330 -1.1126 -0.8781
42263SOL    HW231601   4.267   1.398   0.209 -0.2605  1.8066 -0.1481
42264SOL     OW31602   2.345  12.346   9.142  0.1484 -0.4478 -0.0602
42264SOL    HW131603   2.278  12.363   9.209  0.0887  0.0837 -0.2503
42264SOL    HW231604   2.424  12.387   9.177 -0.6603  3.0369 -1.8461
42265SOL     OW31605   2.952  11.746   4.745 -0.3375  0.2123  0.8130
42265SOL    HW131606   3.040  11.726   4.712 -0.7400 -0.8337  0.3081
42265SOL    HW231607   2.929  11.829   4.704  0.5208  0.6426  1.1773
42266SOL     OW31608   5.494  10.194  10.917  0.2106 -0.1270 -0.5074
42266SOL    HW131609   5.467  10.119  10.864  1.0067  0.5601 -1.9422
42266SOL    HW231610   5.565  10.160  10.972  0.9718 -0.3180 -1.5670
42267SOL     OW31611   2.225   9.239   2.335  0.9190  0.0945 -0.0779
42267SOL    HW131612   2.309   9.273   2.366  0.1409  1.1234  0.9895
42267SOL    HW231613   2.207   9.163   2.392  1.7840 -1.0361 -1.2590
42268SOL     OW31614  11.195   8.453  10.208  0.1332  0.8629 -0.6238
42268SOL    HW131615  11.123   8.458  10.145 -0.6169 -2.2525 -0.1506
42268SOL    HW231616  11.226   8.363  10.203  1.2444  0.9733  2.2028
42269SOL     OW31617   3.691   6.900  12.572 -0.4868 -0.1777 -0.2448
42269SOL    HW131618   3.603   6.932  12.593 -0.3038 -0.5844  1.2805
42269SOL    HW231619   3.710   6.837  12.641  1.0077 -0.1061 -0.5683
42270SOL     OW31620   6.586   9.366   7.319 -0.0320  0.6661 -0.3442
42270SOL    HW131621   6.668   9.317   7.324 -0.1432  0.5791  3.0412
42270SOL    HW231622   6.558   9.375   7.410 -1.6910  4.2614 -1.0292
42271SOL     OW31623  10.348   6.261   0.051  0.0526 -0.2698  0.3454
42271SOL    HW131624  10.304   6.229   0.130  1.4357  1.1230  1.7451
42271SOL    HW231625  10.442   6.252   0.070  0.4767 -1.7700 -1.9650
42272SOL     OW31626   5.845   6.276   9.775 -0.4525 -0.0020  0.0071
42272SOL    HW131627   5.885   6.209   9.720  1.9438  0.2095  1.3401
42272SOL    HW231628   5.755   6.246   9.789  0.3038 -2.5083 -0.1143
42273SOL     OW31629   7.337   1.228   7.575 -0.0020  0.1053 -0.2650
42273SOL    HW131630   7.425   1.193   7.584 -0.3054 -0.4591  0.6953
42273SOL    HW231631   7.339   1.312   7.622 -0.2733 -0.4817  0.8404
42274SOL     OW31632   3.023   4.989   7.206  0.1171 -0.0555 -0.4924
42274SOL    HW131633   3.044   4.896   7.211  0.1750  0.0160  1.0227
42274SOL    HW231634   2.990   5.011   7.293  0.5096  1.4401 -0.6887
42275SOL     OW31635   3.993   7.982   3.007  0.1933  0.0455 -0.1654
42275SOL    HW131636   3.962   8.030   3.084 -0.6775 -0.2548 -0.3257
42275SOL    HW231637   4.021   7.897   3.042  1.5771  0.5759  0.0922
42276SOL     OW31638   9.954   6.822   0.148 -0.1274  0.2747  0.3322
42276SOL    HW131639   9.937   6.828   0.242 -0.6834  1.6766  0.1653
42276SOL    HW231640  10.026   6.883   0.133 -0.3361  0.3937 -0.2068
42277SOL     OW31641   4.736  10.623   5.002  0.5186  0.0645  0.6206
42277SOL    HW131642   4.753  10.636   4.909 -0.9617  1.9965  0.5649
42277SOL    HW231643   4.802  10.560   5.030 -0.4756 -2.4091 -2.2121
42278SOL     OW31644  10.958   0.441  11.987 -0.2530 -0.3938  0.0236
42278SOL    HW131645  10.881   0.497  12.001 -0.9318 -0.9855 -1.1407
42278SOL    HW231646  10.928   0.354  12.012 -0.9352 -1.1550 -3.0838
42279SOL     OW31647   1.961  10.242   9.247 -0.3468 -0.1979 -0.5557
42279SOL    HW131648   1.893  10.200   9.299  0.3795 -1.3771 -0.5126
42279SOL    HW231649   1.965  10.331   9.280 -0.3606 -0.7354  0.9656
42280SOL     OW31650   5.216  10.710   1.371 -0.3230  0.1585 -0.2886
42280SOL    HW131651   5.273  10.715   1.448  1.5610  0.5055 -1.6434
42280SOL    HW231652   5.151  10.778   1.384  0.1857  0.4463  0.8287
42281SOL     OW31653   5.576   2.752   9.164  0.2482  0.2137  0.1303
42281SOL    HW131654   5.668   2.768   9.184  0.3867 -1.2701  0.8159
42281SOL    HW231655   5.546   2.695   9.235 -0.8091 -0.5054 -0.8590
42282SOL     OW31656  11.034   2.193   8.669 -0.0119  0.0267 -0.3598
42282SOL    HW131657  11.039   2.234   8.582  2.2889  0.1714 -0.2156
42282SOL    HW231658  11.062   2.103   8.654  0.9752  0.2104  0.2958
42283SOL     OW31659   0.887   6.956   8.156 -0.4838 -0.0848  0.5244
42283SOL    HW131660   0.793   6.944   8.161 -0.2543 -1.9262  1.4685
42283SOL    HW231661   0.917   6.954   8.247  0.7011 -2.3163  0.1649
42284SOL     OW31662   3.102   1.827   9.519  0.2037 -0.0534 -0.0158
42284SOL    HW131663   3.046   1.847   9.444  1.5054  0.0110 -1.0006
42284SOL    HW231664   3.157   1.905   9.530  0.5997 -0.3929  0.4820
42285SOL     OW31665   5.154   9.300   8.088  0.1721 -0.2950  0.2717
42285SOL    HW131666   5.102   9.380   8.096  0.3078 -0.0754 -0.8709
42285SOL    HW231667   5.163   9.269   8.178 -0.9665  0.2741  0.6084
42286SOL     OW31668   3.050   9.197   2.786  0.3443 -0.7773 -1.3045
42286SOL    HW131669   2.962   9.181   2.820  0.4499  0.4519 -0.3888
42286SOL    HW231670   3.056   9.292   2.780  2.4078 -0.6843  0.8950
42287SOL     OW31671   9.878   6.887  10.770 -0.3418 -0.3566  0.4355
42287SOL    HW131672   9.869   6.818  10.836 -2.1246  0.2220  0.8698
42287SOL    HW231673   9.886   6.968  10.821 -0.3215 -0.0469 -0.0567
42288SOL     OW31674   1.187   2.310   9.410  0.1207 -0.4604 -0.3921
42288SOL    HW131675   1.191   2.386   9.468 -0.0386  0.2948 -1.3419
42288SOL    HW231676   1.109   2.326   9.356 -0.9912 -2.2004  0.5956
42289SOL     OW31677   5.210   4.282   3.258  0.3669  0.0278  0.2952
42289SOL    HW131678   5.296   4.298   3.220 -0.3223  0.6010 -1.1157
42289SOL    HW231679   5.185   4.196   3.225 -0.1144  0.3997 -0.3212
42290SOL     OW31680   5.288   8.706  11.038 -0.2861  0.2126  0.3742
42290SOL    HW131681   5.261   8.729  11.127  0.0514  0.6558  0.3677
42290SOL    HW231682   5.347   8.777  11.013  2.4192 -1.6545  1.1002
42291SOL     OW31683   7.286   4.750   2.673  0.2289 -0.5332  0.0691
42291SOL    HW131684   7.323   4.812   2.736 -0.6643  0.0553  0.0400
42291SOL    HW231685   7.316   4.781   2.588  2.3695 -1.9729  0.2222
42292SOL     OW31686  12.461  12.439   8.907  0.0313 -1.0088  0.1374
42292SOL    HW131687  12.490  12.525   8.878 -1.2881 -0.3688  0.6198
42292SOL    HW231688  12.474  12.440   9.002 -0.1268 -1.2796  0.1630
42293SOL     OW31689   8.949   7.587   0.839 -0.1491 -0.5873 -0.1878
42293SOL    HW131690   9.006   7.534   0.785 -0.5384 -0.1710 -1.0199
42293SOL    HW231691   8.927   7.531   0.913 -0.7098 -1.6506 -1.1416
42294SOL     OW31692   4.289   8.435  11.031  0.1436  0.3644  0.6612
42294SOL    HW131693   4.271   8.521  10.995 -0.5029 -0.7343 -1.8664
42294SOL    HW231694   4.205   8.389  11.029  0.9359 -1.1488 -0.5803
42295SOL     OW31695   7.722   7.683   8.524 -0.2585  0.0405  0.5184
42295SOL    HW131696   7.652   7.709   8.464 -0.5691 -0.1784  0.7812
42295SOL    HW231697   7.778   7.760   8.530 -0.7156  0.3701  0.6454
42296SOL     OW31698  11.002   3.146   2.499  0.0721  0.0532  0.0302
42296SOL    HW131699  10.990   3.163   2.406  1.2237  1.3654  0.0919
42296SOL    HW231700  10.918   3.110   2.529 -1.2755  2.2746 -0.9144
42297SOL     OW31701   5.418   7.017  10.320 -0.4183 -0.1487  0.0299
42297SOL    HW131702   5.403   7.036  10.228  0.3463  0.1834 -0.0347
42297SOL    HW231703   5.346   6.960  10.345 -0.1290 -0.9899 -1.0106
42298SOL     OW31704  10.751   1.469   6.210  0.1540 -0.1501  0.1715
42298SOL    HW131705  10.761   1.545   6.269  0.2041 -0.1980  0.2250
42298SOL    HW231706  10.702   1.406   6.262 -0.0619 -0.0770  0.0568
42299SOL     OW31707  11.946   0.889  12.203  0.5606  0.7217 -0.4410
42299SOL    HW131708  11.892   0.934  12.268  1.2072  0.3833  0.3525
42299SOL    HW231709  11.911   0.800  12.200  1.4910  0.2803  0.6292
42300SOL     OW31710   3.000   4.678   3.482 -0.4554  0.1116  0.2410
42300SOL    HW131711   3.045   4.761   3.465  0.5078 -0.5252 -0.4010
42300SOL    HW231712   2.908   4.696   3.460 -0.6341  1.5356  1.9132
42301SOL     OW31713  11.698  10.148   0.753 -0.5362  0.4273 -0.5950
42301SOL    HW131714  11.708  10.158   0.659 -1.5381  1.2263 -0.6323
42301SOL    HW231715  11.606  10.123   0.765 -0.8516  1.9280  0.2664
42302SOL     OW31716   3.133  12.314   7.779  0.1076 -0.1571 -0.7203
42302SOL    HW131717   3.041  12.316   7.753 -0.2449  0.1382  0.4827
42302SOL    HW231718   3.138  12.242   7.841 -0.2847  2.2740  2.4433
42303SOL     OW31719   0.102   5.084   1.225 -0.1643  0.4951 -0.0833
42303SOL    HW131720   0.195   5.106   1.223  0.1244 -0.1754  2.2356
42303SOL    HW231721   0.098   5.005   1.279 -1.9972 -0.0868 -1.0010
42304SOL     OW31722  11.364  10.386   0.284  0.2836  0.6160  0.7186
42304SOL    HW131723  11.405  10.314   0.334 -2.1069 -0.9944  0.5201
42304SOL    HW231724  11.290  10.345   0.240  1.1580  2.3915 -2.7318
42305SOL     OW31725   1.657   5.140   5.135 -0.0345 -0.1667  0.7043
42305SOL    HW131726   1.647   5.233   5.154  0.0525 -0.3922  1.9908
42305SOL    HW231727   1.614   5.127   5.051 -2.6526  0.5261  1.8313
42306SOL     OW31728  12.602   5.359   9.475 -0.0483 -0.1164 -0.2482
42306SOL    HW131729  12.634   5.341   9.563  2.0652 -0.3467 -1.0008
42306SOL    HW231730  12.522   5.307   9.467  0.1231 -0.6628  1.2582
42307SOL     OW31731   6.724   1.277   2.376 -0.1519 -0.4968  0.3865
42307SOL    HW131732   6.754   1.257   2.287  0.3115 -0.6365  0.5742
42307SOL    HW231733   6.646   1.331   2.363 -0.5997 -1.2484 -0.1097
42308SOL     OW31734   1.974   8.610   2.230  0.5260 -0.0892  0.2888
42308SOL    HW131735   2.069   8.618   2.219  0.5004  0.2912  0.3357
42308SOL    HW231736   1.960   8.517   2.247  0.7477 -0.3907 -1.1088
42309SOL     OW31737   6.270   5.962   2.446  0.5955 -0.5500 -0.5700
42309SOL    HW131738   6.224   5.953   2.362 -2.2194  3.9212  0.1353
42309SOL    HW231739   6.218   5.910   2.507  0.4347 -0.8653 -0.9706
42310SOL     OW31740  11.316   9.448   5.919 -0.2846  0.0579 -0.2880
42310SOL    HW131741  11.224   9.420   5.919 -0.4009  0.2835  1.5940
42310SOL    HW231742  11.356   9.397   5.849 -1.4344 -1.5688  0.1697
42311SOL     OW31743  12.552   0.486   8.627 -0.3283 -0.5843  0.6165
42311SOL    HW131744  12.469   0.532   8.644 -1.7590 -0.9071 -4.0222
42311SOL    HW231745  12.615   0.556   8.613 -1.5142  0.0594 -2.2586
42312SOL     OW31746  11.813   0.094   1.807 -0.1511 -0.3704  0.3385
42312SOL    HW131747  11.874   0.037   1.759  0.1479  3.0652 -4.0195
42312SOL    HW231748  11.858   0.113   1.889  1.2909 -3.4744  0.4128
42313SOL     OW31749   1.678   7.033   0.931 -0.2835  0.1978  0.4220
42313SOL    HW131750   1.610   7.056   0.994  0.2384 -0.0925  1.1055
42313SOL    HW231751   1.638   6.967   0.875 -1.8246  2.6730 -1.6012
42314SOL     OW31752   7.973   1.239   3.724  0.1786 -0.0014 -0.1503
42314SOL    HW131753   7.909   1.193   3.670  0.6059  0.7407 -1.3441
42314SOL    HW231754   7.938   1.328   3.732  0.2454 -0.0331  0.6153
42315SOL     OW31755  12.543   1.185   3.415 -0.0858  0.0182  0.4313
42315SOL    HW131756  12.554   1.277   3.393 -0.3198  0.3785  1.7777
42315SOL    HW231757  12.621   1.162   3.466 -0.1755 -0.4495  0.3694
42316SOL     OW31758   9.049  10.654   0.331 -0.1543 -0.4550 -0.1447
42316SOL    HW131759   9.120  10.589   0.330  0.3847  0.1259 -0.0983
42316SOL    HW231760   9.064  10.705   0.411 -1.6253 -1.4045  0.7790
42317SOL     OW31761   6.249   4.636   8.553 -0.1847 -0.1336 -0.2455
42317SOL    HW131762   6.267   4.548   8.519 -0.3833  0.2069 -1.2466
42317SOL    HW231763   6.175   4.624   8.613 -0.7918 -0.5108 -1.0586
42318SOL     OW31764  10.453   2.541   8.512 -0.0038 -0.3262 -0.3654
42318SOL    HW131765  10.374   2.564   8.560 -0.1256  0.4973 -0.9349
42318SOL    HW231766  10.481   2.623   8.471  1.1687 -0.6005 -0.1387
42319SOL     OW31767   5.531   0.796   6.274 -0.6910 -0.9226  0.0829
42319SOL    HW131768   5.486   0.861   6.221 -1.3489 -0.4407  1.1864
42319SOL    HW231769   5.621   0.829   6.282 -1.4815  0.9992  2.2857
42320SOL     OW31770   8.559   6.214   9.492  0.0255 -0.7837  0.5154
42320SOL    HW131771   8.583   6.296   9.448  1.5754 -1.2267  0.4881
42320SOL    HW231772   8.641   6.181   9.528 -0.6559 -2.1078  0.9163
42321SOL     OW31773   0.935   4.192   3.283  0.0932  0.4394  0.0644
42321SOL    HW131774   0.935   4.284   3.258 -1.2512  0.5291  0.2894
42321SOL    HW231775   0.955   4.193   3.377  0.4785  0.4725 -0.0186
42322SOL     OW31776  12.114   2.629   7.720 -0.0423 -0.0264 -0.4268
42322SOL    HW131777  12.196   2.663   7.755 -0.5219 -1.3839  2.2251
42322SOL    HW231778  12.117   2.651   7.627  2.5987  1.3222 -0.1081
42323SOL     OW31779   9.197   9.842   6.707  0.5567 -0.0652 -0.6928
42323SOL    HW131780   9.113   9.865   6.667  0.3119  0.5423  0.1222
42323SOL    HW231781   9.189   9.875   6.797  2.0056  0.8270 -0.8688
42324SOL     OW31782   1.110  10.744   9.398  0.1839  0.2931 -0.2514
42324SOL    HW131783   1.152  10.672   9.445  0.5675  0.3608 -0.4849
42324SOL    HW231784   1.171  10.817   9.406  1.3045 -0.2903 -2.6633
42325SOL     OW31785   6.462   6.777   3.363 -0.6917  0.0685 -0.3797
42325SOL    HW131786   6.491   6.813   3.279 -2.1156 -0.2656 -1.0441
42325SOL    HW231787   6.408   6.845   3.402 -0.4681  0.0184  0.0256
42326SOL     OW31788   5.827   8.644  11.041 -0.0331  0.6403 -0.2525
42326SOL    HW131789   5.900   8.591  11.008 -0.2995 -0.3407  0.6813
42326SOL    HW231790   5.865   8.731  11.053  1.8609 -0.4569  2.9525
42327SOL     OW31791   3.583   6.820   7.609  0.2776  0.0880 -0.1628
42327SOL    HW131792   3.635   6.895   7.579  0.1907  0.2452  0.0796
42327SOL    HW231793   3.511   6.815   7.546 -0.2543  0.8061  0.3768
42328SOL     OW31794   7.682   0.851  10.796 -0.3226 -0.0540  0.7276
42328SOL    HW131795   7.751   0.882  10.854  0.2967 -1.0350  0.5297
42328SOL    HW231796   7.615   0.920  10.799  0.5246  0.7618  1.1504
42329SOL     OW31797   0.993   1.255  10.743 -0.0759 -0.3358 -0.0346
42329SOL    HW131798   1.060   1.296  10.688 -0.3088 -1.4499 -1.1864
42329SOL    HW231799   0.911   1.274  10.698 -0.4689  0.2298  0.8810
42330SOL     OW31800   7.931   1.298   7.828 -0.4193 -0.3094 -0.1843
42330SOL    HW131801   7.942   1.267   7.738  4.0229  1.5209 -0.5528
42330SOL    HW231802   7.898   1.387   7.819 -2.0030 -0.8062  0.2381
42331SOL     OW31803   9.371   2.495   7.011 -0.3081  0.3465 -0.5349
42331SOL    HW131804   9.335   2.583   7.029  1.5941  0.7977  1.5262
42331SOL    HW231805   9.460   2.511   6.980 -0.2893 -0.8404 -1.1412
42332SOL     OW31806   2.637   6.090   6.048  0.2535  0.2212 -0.3353
42332SOL    HW131807   2.691   6.027   6.096  1.1504  0.2725 -1.2528
42332SOL    HW231808   2.695   6.165   6.034 -0.5721  0.9563  0.0855
42333SOL     OW31809   7.098  12.387   2.335  0.0126  0.6383 -0.4213
42333SOL    HW131810   7.070  12.436   2.413 -1.2203 -0.7587  0.0614
42333SOL    HW231811   7.162  12.324   2.368 -2.1657 -1.5082 -0.0339
42334SOL     OW31812  10.096   4.340   8.041  0.5346 -0.1525  0.1658
42334SOL    HW131813  10.151   4.332   7.963 -1.3175  0.6807 -1.2977
42334SOL    HW231814  10.012   4.301   8.017 -0.4619  1.1343  1.3192
42335SOL     OW31815   6.906  12.231   9.800 -0.0485  0.3282  0.2362
42335SOL    HW131816   6.902  12.326   9.798  0.6897  0.3717 -1.6502
42335SOL    HW231817   6.978  12.211   9.860  0.7429  1.0303 -0.4515
42336SOL     OW31818   9.344   6.045   3.685 -0.2074 -0.3874 -0.2141
42336SOL    HW131819   9.324   6.137   3.700  1.5280 -0.1296  0.7616
42336SOL    HW231820   9.300   5.999   3.756  0.3534 -0.1163  0.3182
42337SOL     OW31821   6.484  10.210   7.477  0.2237  0.3531 -0.1394
42337SOL    HW131822   6.535  10.216   7.557  1.0336  0.7859 -0.6725
42337SOL    HW231823   6.544  10.239   7.408  0.0773 -1.5139 -1.1218
42338SOL     OW31824   8.608   9.510  11.962 -0.3438  0.0099 -0.2249
42338SOL    HW131825   8.568   9.492  11.878  0.0175  0.6812 -0.5524
42338SOL    HW231826   8.537   9.543  12.017 -0.5449 -0.2680 -0.3211
42339SOL     OW31827   3.261   9.556   2.902 -1.0246 -0.6429 -0.3243
42339SOL    HW131828   3.227   9.646   2.902 -1.4657 -0.7468  2.3284
42339SOL    HW231829   3.189   9.503   2.935 -1.0437 -2.1831 -2.5884
42340SOL     OW31830   4.956   3.146   9.319 -0.6229 -0.0697  0.0130
42340SOL    HW131831   5.013   3.195   9.379  0.4515  0.4126 -1.3336
42340SOL    HW231832   4.901   3.093   9.376 -2.1104  2.9356  1.6025
42341SOL     OW31833  10.016   4.840   2.841  0.2248  0.2723 -0.4887
42341SOL    HW131834  10.050   4.768   2.788 -1.1456 -0.0515 -0.9668
42341SOL    HW231835   9.965   4.893   2.781 -1.0834  0.0806  0.3974
42342SOL     OW31836   5.549   6.750   6.893 -0.0302  0.0004  0.7671
42342SOL    HW131837   5.571   6.765   6.801 -0.1517  0.3539  0.7961
42342SOL    HW231838   5.634   6.734   6.935 -0.0636 -1.1508  0.4161
42343SOL     OW31839   6.330   3.675   6.420 -0.3592 -0.5017 -0.5105
42343SOL    HW131840   6.344   3.595   6.369 -0.3561 -0.0959 -1.1569
42343SOL    HW231841   6.414   3.721   6.416 -0.0710 -0.8867  0.6356
42344SOL     OW31842   7.813  10.823   9.942 -0.0519  0.5701  0.1603
42344SOL    HW131843   7.900  10.862   9.938 -0.2854  1.0307 -2.2519
42344SOL    HW231844   7.755  10.891   9.908 -0.8391 -0.8998 -1.6122
42345SOL     OW31845   7.815  12.250  10.322  0.7524 -0.0856 -0.2247
42345SOL    HW131846   7.816  12.306  10.244  0.1744  0.6014  0.2486
42345SOL    HW231847   7.796  12.310  10.394 -2.3124 -1.1965  0.0266
42346SOL     OW31848   9.488   7.129   6.863 -0.0661 -0.2432 -0.1003
42346SOL    HW131849   9.408   7.152   6.816 -1.3831 -1.2534  1.5625
42346SOL    HW231850   9.559   7.160   6.805 -1.6017  0.0410 -1.9399
42347SOL     OW31851   6.016   5.337   1.862 -0.0879  0.2018 -0.1073
42347SOL    HW131852   6.061   5.334   1.946 -0.3078 -0.3440 -0.0093
42347SOL    HW231853   6.073   5.391   1.807  0.7989 -0.6601 -0.0534
42348SOL     OW31854   6.650   8.597  10.250  0.4014 -0.7189 -0.4538
42348SOL    HW131855   6.606   8.516  10.278  0.3958 -0.6081 -0.1283
42348SOL    HW231856   6.681   8.579  10.161 -1.4086 -0.3576 -1.1892
42349SOL     OW31857   2.757   5.737   1.693  0.2061 -0.1373  0.2450
42349SOL    HW131858   2.797   5.777   1.771  0.6269 -0.6305  0.2790
42349SOL    HW231859   2.829   5.699   1.645 -0.1919 -0.8470  0.1978
42350SOL     OW31860   8.818   5.099   3.792 -0.0142 -0.1185 -0.1481
42350SOL    HW131861   8.901   5.098   3.839  0.3409 -1.0202 -0.7810
42350SOL    HW231862   8.794   5.007   3.783 -1.0109  0.1241 -0.1028
42351SOL     OW31863   6.866   0.442   8.175  0.1673  0.6178 -0.1611
42351SOL    HW131864   6.909   0.357   8.182  0.7518  0.8682 -0.7034
42351SOL    HW231865   6.811   0.435   8.097 -1.1816  0.1330  0.7894
42352SOL     OW31866  11.150   3.203  10.481  0.3923 -0.5591  0.0701
42352SOL    HW131867  11.062   3.194  10.446 -0.2382 -0.0403  1.4647
42352SOL    HW231868  11.207   3.168  10.412 -0.8112 -0.0019 -1.2534
42353SOL     OW31869   1.959   9.245   3.687  0.3605  0.2593 -0.3383
42353SOL    HW131870   1.956   9.151   3.706 -0.2997  0.0655 -1.2993
42353SOL    HW231871   2.052   9.266   3.684  0.5657  0.3638  3.1212
42354SOL     OW31872   7.898  12.125   9.984 -0.2540 -0.1670  0.5989
42354SOL    HW131873   7.804  12.104   9.989 -0.4943  1.0371  1.7327
42354SOL    HW231874   7.901  12.216   9.955  0.5748 -0.2026  0.5583
42355SOL     OW31875  11.652   4.531   2.628  0.0364 -0.1722 -0.5822
42355SOL    HW131876  11.723   4.584   2.663  0.0693 -0.8918  0.4910
42355SOL    HW231877  11.695   4.452   2.595 -0.2013 -0.3745 -0.4152
42356SOL     OW31878   3.029   4.841   7.872  0.8784  0.0947 -0.5789
42356SOL    HW131879   3.117   4.813   7.844  0.1524 -0.3523 -2.5788
42356SOL    HW231880   3.022   4.811   7.962  1.7811 -2.3479 -1.2469
42357SOL     OW31881   9.849  11.537  12.161  0.3161  0.0065 -0.1328
42357SOL    HW131882   9.852  11.442  12.151 -0.1193  0.0112 -0.2830
42357SOL    HW231883   9.908  11.570  12.093  0.0827 -0.1319 -0.4034
42358SOL     OW31884   5.488   5.078   5.692  0.0174  0.3256  0.4448
42358SOL    HW131885   5.417   5.014   5.686 -0.5086  0.8819  0.7014
42358SOL    HW231886   5.503   5.106   5.602  0.1716 -0.0676  0.3449
42359SOL     OW31887   8.960   2.239   6.079  0.5633 -0.2537  0.0995
42359SOL    HW131888   9.006   2.163   6.113  0.4095 -0.9308 -1.1414
42359SOL    HW231889   9.024   2.286   6.026  0.2558 -0.3654 -0.3842
42360SOL     OW31890   7.107   0.777   0.861  0.3064  0.2867  0.4372
42360SOL    HW131891   7.049   0.724   0.916 -0.3432  1.5228  0.9845
42360SOL    HW231892   7.193   0.737   0.871  0.1159  0.2322  2.0228
42361SOL     OW31893   8.784   5.767  10.068 -0.5035  0.2683 -0.5669
42361SOL    HW131894   8.853   5.761  10.002 -0.2199  0.8026 -0.3259
42361SOL    HW231895   8.778   5.860  10.089 -1.0156  0.1800 -0.2832
42362SOL     OW31896   1.119  11.822   6.526  0.0342 -0.3747 -0.1238
42362SOL    HW131897   1.126  11.888   6.595  0.4044 -0.5258 -0.0181
42362SOL    HW231898   1.198  11.834   6.473 -1.3196  1.3571 -1.9673
42363SOL     OW31899   5.962   1.315   9.166 -0.3264  0.2126 -0.4900
42363SOL    HW131900   5.935   1.332   9.076 -0.6586 -0.1969 -0.4716
42363SOL    HW231901   6.034   1.252   9.157 -0.0848  0.4852 -0.4871
42364SOL     OW31902  12.038   3.145   9.790  0.0708  0.2256 -0.0285
42364SOL    HW131903  12.099   3.212   9.761  1.0754 -1.8652 -3.2785
42364SOL    HW231904  11.954   3.172   9.753  0.2284  0.2794 -0.3506
42365SOL     OW31905   8.485   8.202   1.100 -0.7256  0.5153  0.3103
42365SOL    HW131906   8.460   8.205   1.007 -0.1987  0.0102  0.1442
42365SOL    HW231907   8.435   8.129   1.136  0.9532 -0.9826 -0.1914
42366SOL     OW31908   9.178   3.608   8.498 -0.3750 -0.4113 -0.5917
42366SOL    HW131909   9.105   3.580   8.553 -1.4641  1.1843 -1.1397
42366SOL    HW231910   9.139   3.670   8.436  1.3056 -0.1426 -1.4506
42367SOL     OW31911   7.650  12.085   3.341 -0.0370  0.3463  0.2480
42367SOL    HW131912   7.640  11.990   3.342 -0.4720  0.3830 -0.4393
42367SOL    HW231913   7.574  12.118   3.388 -1.7216  0.4841 -2.3825
42368SOL     OW31914   7.884   1.823   9.141 -0.2065  0.7062 -0.1552
42368SOL    HW131915   7.958   1.835   9.200 -0.3010  1.5306 -0.1961
42368SOL    HW231916   7.914   1.859   9.058 -0.1481 -0.2587 -0.5665
42369SOL     OW31917   0.164   5.542   1.912 -0.5540  0.0238  0.1889
42369SOL    HW131918   0.089   5.551   1.971 -1.4397  0.9283 -1.0182
42369SOL    HW231919   0.231   5.599   1.951 -0.3271 -1.0632  1.4707
42370SOL     OW31920  10.175   5.961   5.081 -0.5134 -0.3223 -0.1873
42370SOL    HW131921  10.173   6.029   5.013  0.0407 -0.0887  0.0273
42370SOL    HW231922  10.124   5.998   5.153 -1.4245 -0.7232 -0.6028
42371SOL     OW31923   2.315   1.666   0.675  0.4099 -0.0478 -0.0225
42371SOL    HW131924   2.322   1.748   0.627 -2.7352  0.4196  0.1197
42371SOL    HW231925   2.320   1.691   0.767  1.2560 -0.2760  0.0001
42372SOL     OW31926   8.518   6.084   2.994  0.2615 -0.5871  0.2132
42372SOL    HW131927   8.467   6.008   3.022 -1.7041  0.4048 -0.4587
42372SOL    HW231928   8.468   6.160   3.024  1.1671  0.4574 -0.7972
42373SOL     OW31929   3.902  10.706   2.529 -0.5164 -0.0247  0.1847
42373SOL    HW131930   3.987  10.750   2.531 -0.7854  0.5032  0.3496
42373SOL    HW231931   3.906  10.649   2.453  0.1422 -0.3213  0.4339
42374SOL     OW31932   2.898   2.400   8.889 -0.5085  0.3276 -0.1304
42374SOL    HW131933   2.885   2.450   8.808 -0.5943 -1.1281 -1.0481
42374SOL    HW231934   2.929   2.315   8.860 -0.4738 -0.2110  1.3936
42375SOL     OW31935   7.307  10.030   7.128  0.1353  0.0019 -0.2656
42375SOL    HW131936   7.225   9.985   7.108 -0.1573  0.3461  0.1493
42375SOL    HW231937   7.302  10.050   7.222 -0.2001  1.7978 -0.6236
42376SOL     OW31938   3.486   3.769   2.981 -0.4955  0.4873  0.0455
42376SOL    HW131939   3.528   3.723   3.054 -0.6906 -0.4689 -0.4211
42376SOL    HW231940   3.414   3.817   3.021  0.3817  1.2819  0.7024
42377SOL     OW31941   6.198  12.461   9.978 -0.0562 -0.4937 -0.3163
42377SOL    HW131942   6.225  12.417  10.058 -2.3463  2.0663  2.0776
42377SOL    HW231943   6.239  12.548   9.984 -1.9908  0.4957 -0.7593
42378SOL     OW31944   6.453   1.119   9.914  0.0954 -0.0333 -0.0079
42378SOL    HW131945   6.440   1.026   9.929  2.0643 -0.4538 -0.5856
42378SOL    HW231946   6.535   1.124   9.865  1.7630  2.1309  2.6503
42379SOL     OW31947   2.171   0.530   8.189 -0.4228  0.1299  0.0944
42379SOL    HW131948   2.146   0.574   8.270  2.1838 -0.1902  1.1458
42379SOL    HW231949   2.188   0.439   8.215 -1.7930 -0.5962 -1.3003
42380SOL     OW31950   3.635   6.676   3.980 -0.6813  0.2780  0.3492
42380SOL    HW131951   3.634   6.710   3.890 -0.3794  1.0496  0.6292
42380SOL    HW231952   3.592   6.591   3.974 -1.4440  0.6989 -0.3795
42381SOL     OW31953   7.388   3.858   6.021 -0.0228 -0.0460  0.3046
42381SOL    HW131954   7.430   3.772   6.023  0.0298 -0.0235  0.2212
42381SOL    HW231955   7.442   3.913   6.077  1.0286  0.4043 -1.0772
42382SOL     OW31956   1.723   5.498   0.640  0.2536 -0.0997  0.0980
42382SOL    HW131957   1.746   5.429   0.703 -0.6578 -0.3183  0.2197
42382SOL    HW231958   1.729   5.455   0.555 -3.5161 -1.4331  0.3017
42383SOL     OW31959   3.717   8.313   6.026 -0.1918  0.0173 -0.2696
42383SOL    HW131960   3.752   8.398   6.000  0.4315 -0.1921 -0.1297
42383SOL    HW231961   3.779   8.280   6.091  0.1863 -1.0375 -1.1318
42384SOL     OW31962   2.218   6.928  10.620  0.2191 -0.1586 -0.1609
42384SOL    HW131963   2.168   6.989  10.567 -0.7404 -0.5020  0.3226
42384SOL    HW231964   2.163   6.850  10.625  0.3460 -0.1892  1.1881
42385SOL     OW31965   0.905   7.370   0.152  0.5783 -0.1115  0.2993
42385SOL    HW131966   0.908   7.278   0.126  2.0462 -0.2533  0.8902
42385SOL    HW231967   0.812   7.391   0.154  0.2802 -0.8205 -2.4230
42386SOL     OW31968   5.242   2.628   8.581 -0.9433  0.4681  0.3201
42386SOL    HW131969   5.251   2.657   8.672  0.1176 -1.9621  1.0924
42386SOL    HW231970   5.276   2.538   8.582 -0.1736  0.6431 -2.6559
42387SOL     OW31971   5.049  10.005   9.051 -0.0111 -0.0380 -0.1647
42387SOL    HW131972   5.123  10.060   9.023 -0.0976  0.1601 -0.0116
42387SOL    HW231973   4.973  10.046   9.010 -0.0722 -0.0593 -0.0737
42388SOL     OW31974   3.025   4.052   2.340  0.3802  0.3107 -0.4142
42388SOL    HW131975   2.964   4.066   2.413  0.8987 -0.0562  0.0952
42388SOL    HW231976   3.050   3.960   2.347 -0.0531  0.0995 -1.4415
42389SOL     OW31977  12.394   5.784   6.425 -0.1991  0.3808 -0.3143
42389SOL    HW131978  12.303   5.757   6.409 -0.0732  0.9423 -2.0632
42389SOL    HW231979  12.391   5.879   6.426  0.4551  0.4124 -0.9038
42390SOL     OW31980   8.472   9.749   3.055 -0.0198  0.1467  0.1125
42390SOL    HW131981   8.441   9.775   2.968 -1.6128 -0.2177  0.5245
42390SOL    HW231982   8.532   9.677   3.040 -1.2416 -0.7520 -0.6471
42391SOL     OW31983  11.132  11.477   8.679  0.1602  0.0050 -0.2218
42391SOL    HW131984  11.192  11.404   8.695  1.4614  0.9162 -0.7070
42391SOL    HW231985  11.078  11.481   8.758  1.9700  0.2683  1.0795
42392SOL     OW31986   9.531   5.020  11.557 -0.0462  0.8655  0.2169
42392SOL    HW131987   9.500   4.956  11.493  0.0888  0.6213  0.3950
42392SOL    HW231988   9.625   5.004  11.563 -0.1355  0.5521  0.8503
42393SOL     OW31989   0.339   8.625  12.072  0.2445 -0.8330 -0.0802
42393SOL    HW131990   0.392   8.625  12.152 -0.3345 -0.9977  0.3145
42393SOL    HW231991   0.328   8.718  12.051 -1.4504 -0.6448  1.3186
42394SOL     OW31992   0.179   9.643   1.347 -0.2991  0.6373 -0.1629
42394SOL    HW131993   0.206   9.709   1.283  0.5402  0.9793  0.5227
42394SOL    HW231994   0.204   9.680   1.431  0.2414 -0.5835  0.2344
42395SOL     OW31995   4.578   8.490   8.045  0.1828 -0.4744 -0.4065
42395SOL    HW131996   4.563   8.410   7.994 -1.6581 -0.7738  0.5228
42395SOL    HW231997   4.492   8.512   8.081  0.4451  2.3924 -1.2790
42396SOL     OW31998   1.401   5.046   0.928 -0.4656  0.4646 -0.0043
42396SOL    HW131999   1.367   4.956   0.937 -2.8351  1.2961  0.0957
42396SOL    HW232000   1.359   5.094   1.000  0.1365  1.8169 -0.5361
42397SOL     OW32001   1.112   2.240   0.815 -0.3293 -0.0579 -0.5988
42397SOL    HW132002   1.065   2.314   0.777 -0.0827  0.4590  0.0714
42397SOL    HW232003   1.103   2.252   0.910  0.2064 -0.5588 -0.4763
42398SOL     OW32004   7.587   2.285   3.062 -0.0236 -0.0183 -0.6895
42398SOL    HW132005   7.592   2.217   2.995  0.5415  0.1731 -0.8519
42398SOL    HW232006   7.670   2.333   3.053  0.0557  0.0107  0.1409
42399SOL     OW32007   0.379   8.305  12.351 -0.0570  0.1485  0.8963
42399SOL    HW132008   0.421   8.382  12.390  0.4673  0.6284 -0.5508
42399SOL    HW232009   0.440   8.233  12.367  0.0670  0.2980  1.1003
42400SOL     OW32010  10.966  12.154   1.009 -1.0071  0.2904  0.2317
42400SOL    HW132011  11.037  12.091   1.026 -0.2236  0.9872 -0.3847
42400SOL    HW232012  10.890  12.099   0.993 -0.1030 -0.5727 -1.4005
42401SOL     OW32013   4.651   8.198   2.798 -0.5416 -0.4544  0.0391
42401SOL    HW132014   4.625   8.107   2.813  0.1957 -0.7597 -0.4730
42401SOL    HW232015   4.742   8.202   2.829  0.0178 -0.3528 -1.5059
42402SOL     OW32016   5.094  10.472   4.783  0.0370  0.7929 -0.0614
42402SOL    HW132017   5.008  10.505   4.758  0.0011  1.4349  0.8468
42402SOL    HW232018   5.142  10.550   4.812  1.2420  0.5890 -1.4007
42403SOL     OW32019   7.024   6.814  10.505  0.8309  0.2087 -0.0750
42403SOL    HW132020   6.959   6.799  10.573  0.1878  0.6135 -0.5905
42403SOL    HW232021   7.058   6.727  10.485  0.5034  0.0032  0.2493
42404SOL     OW32022   8.497  11.200   7.411 -0.5017 -0.2663  0.0590
42404SOL    HW132023   8.529  11.267   7.472  0.9478 -0.1561 -0.7880
42404SOL    HW232024   8.402  11.200   7.423 -0.9199  3.7910 -1.6999
42405SOL     OW32025   1.164  10.642   6.485  0.4271 -0.2191  0.4996
42405SOL    HW132026   1.097  10.576   6.468  0.7340 -0.0271 -1.6223
42405SOL    HW232027   1.153  10.706   6.416  2.5639  0.0112  0.3089
42406SOL     OW32028   0.672   8.506   0.675  0.2718 -0.5710 -0.5315
42406SOL    HW132029   0.588   8.462   0.660  1.3163 -3.0405  0.3076
42406SOL    HW232030   0.712   8.457   0.747  1.0038  2.6608  1.4510
42407SOL     OW32031   7.550   4.627   8.744 -0.1185 -0.0295  0.0517
42407SOL    HW132032   7.607   4.705   8.741 -0.1809  0.0182  0.1037
42407SOL    HW232033   7.557   4.596   8.834 -0.5490  0.2571  0.1850
42408SOL     OW32034   0.225  10.275   8.631 -0.2562 -0.3782  0.0228
42408SOL    HW132035   0.159  10.304   8.568  0.0056  0.1916  0.0086
42408SOL    HW232036   0.184  10.201   8.676 -1.4811  0.8603  1.0172
42409SOL     OW32037   7.132   2.374   5.093  0.0377 -0.0415 -0.0121
42409SOL    HW132038   7.205   2.404   5.039 -0.2326 -0.6522 -0.7316
42409SOL    HW232039   7.054   2.402   5.045 -0.2121  0.5232  0.7006
42410SOL     OW32040   3.672   0.155  10.534  0.5155 -0.1146  0.4277
42410SOL    HW132041   3.610   0.228  10.530  1.2234  0.4856 -0.1340
42410SOL    HW232042   3.683   0.138  10.627  0.4945  0.6495  0.5816
42411SOL     OW32043   8.411   1.587   8.852 -0.4311  0.6754 -0.0559
42411SOL    HW132044   8.419   1.639   8.771 -0.0979 -1.0921 -1.2011
42411SOL    HW232045   8.404   1.497   8.822 -1.8785  0.0853  1.8517
42412SOL     OW32046   0.750   5.469   2.185  0.1368  0.2083 -0.3074
42412SOL    HW132047   0.782   5.546   2.139  0.5476 -0.1220 -0.5867
42412SOL    HW232048   0.776   5.395   2.130  0.2735 -0.1658  0.2466
42413SOL     OW32049   5.500   8.529   7.917 -0.4082 -0.6546 -0.5353
42413SOL    HW132050   5.463   8.601   7.866 -2.2514 -0.5330  0.8625
42413SOL    HW232051   5.493   8.559   8.008  0.5290 -1.8392 -0.0532
42414SOL     OW32052  10.761   0.922   3.992  0.4607 -0.1042  0.1828
42414SOL    HW132053  10.842   0.872   3.993 -0.2199 -1.2446  0.2543
42414SOL    HW232054  10.693   0.858   3.971 -0.4381  0.8078  0.1920
42415SOL     OW32055   5.299   0.484   9.719  0.1134  0.8348  0.2506
42415SOL    HW132056   5.324   0.407   9.668 -0.1386  0.9952 -0.1175
42415SOL    HW232057   5.308   0.557   9.658 -1.5332  0.8705  0.0094
42416SOL     OW32058   1.420  11.645   7.982  0.2214  0.1729 -0.2027
42416SOL    HW132059   1.353  11.580   7.966 -0.2495  0.9150 -1.3449
42416SOL    HW232060   1.388  11.724   7.938  0.9823  1.0506  0.7682
42417SOL     OW32061   6.859   8.485   4.961  0.2128 -0.0444  0.2908
42417SOL    HW132062   6.819   8.558   4.913 -2.7019 -1.3114  0.6044
42417SOL    HW232063   6.896   8.430   4.892  0.4227  0.5883 -0.1164
42418SOL     OW32064   9.895   3.176   0.812  0.0308  0.1085  0.1256
42418SOL    HW132065   9.820   3.141   0.764 -0.1352  0.3259  0.2233
42418SOL    HW232066   9.953   3.101   0.825  0.5286  0.2381 -1.2473
42419SOL     OW32067   4.790   4.039   9.803 -0.4184 -0.0135 -0.2048
42419SOL    HW132068   4.761   4.124   9.834  1.8077  1.2564 -1.3716
42419SOL    HW232069   4.881   4.052   9.776  0.3667 -3.0115  0.5350
42420SOL     OW32070   2.603  10.963  10.139  0.3884  0.5092  0.0677
42420SOL    HW132071   2.554  10.881  10.131  2.5073 -0.8195 -0.1517
42420SOL    HW232072   2.543  11.022  10.185 -1.9928 -0.4289 -1.6320
42421SOL     OW32073   6.384  11.431   9.764  0.1593  0.0544 -0.6810
42421SOL    HW132074   6.457  11.398   9.711  0.8620  2.2486 -1.1942
42421SOL    HW232075   6.348  11.503   9.712 -0.4826  0.9018  0.8797
42422SOL     OW32076   6.160  12.100   4.882  0.0971 -0.9511 -0.0644
42422SOL    HW132077   6.194  12.173   4.935 -1.1474 -0.2791 -0.1626
42422SOL    HW232078   6.109  12.048   4.943 -1.5491 -0.0401 -0.6070
42423SOL     OW32079  10.898   7.329  11.263 -0.0550  0.6027 -0.1612
42423SOL    HW132080  10.886   7.310  11.356  0.2831 -1.3214 -0.4644
42423SOL    HW232081  10.883   7.423  11.255  0.1661  0.8453  1.8757
42424SOL     OW32082   1.506   9.105   8.450  0.2192  0.2290 -0.2713
42424SOL    HW132083   1.591   9.147   8.464 -0.2379  1.2230 -0.4285
42424SOL    HW232084   1.528   9.013   8.434  1.3102  0.5601 -0.8311
42425SOL     OW32085   0.803   4.224   6.623 -0.2449 -0.2023  0.1137
42425SOL    HW132086   0.715   4.255   6.601 -0.1544  0.2543  0.3821
42425SOL    HW232087   0.854   4.304   6.637  0.3305 -0.4529 -0.4855
42426SOL     OW32088   1.763   1.563   1.683 -0.0467  0.1701 -0.0154
42426SOL    HW132089   1.705   1.527   1.616  0.0181 -1.1885  0.6188
42426SOL    HW232090   1.718   1.642   1.714  0.4785  1.5105 -2.4249
42427SOL     OW32091  12.613   5.353  12.024 -0.6874  0.0536 -0.0092
42427SOL    HW132092  12.530   5.353  11.978 -0.5696 -1.5097 -0.2619
42427SOL    HW232093  12.674   5.311  11.964  0.0366  0.1827  0.6199
42428SOL     OW32094   5.374   5.102   0.949 -0.1361 -0.2883 -0.3543
42428SOL    HW132095   5.407   5.132   0.865  1.1866  0.8017  0.4955
42428SOL    HW232096   5.281   5.086   0.935  0.1507 -0.5772 -2.1218
42429SOL     OW32097   9.825   8.307   0.818  0.2478 -0.6524 -0.3624
42429SOL    HW132098   9.776   8.384   0.787 -0.5677 -0.9309  0.2065
42429SOL    HW232099   9.875   8.278   0.742 -0.6257 -0.4732 -1.0084
42430SOL     OW32100   3.693   1.614   8.927 -0.4932 -0.3768  0.3747
42430SOL    HW132101   3.693   1.538   8.985 -1.9974 -0.5281  0.2239
42430SOL    HW232102   3.663   1.579   8.843 -1.0773  0.3608  0.2683
42431SOL     OW32103   5.624   2.704  12.371  0.0222  0.5564 -0.1248
42431SOL    HW132104   5.701   2.728  12.423 -0.4353  0.6298  0.5207
42431SOL    HW232105   5.654   2.631  12.317  0.4000  0.2254  0.5174
42432SOL     OW32106   1.080   3.947   0.986  0.2874 -0.6496 -0.7909
42432SOL    HW132107   1.037   4.022   0.946  0.8645  0.7051  0.9660
42432SOL    HW232108   1.018   3.916   1.052  0.8715 -0.3860 -0.1025
42433SOL     OW32109   6.855   9.050   9.926  0.6549 -0.6204 -0.2442
42433SOL    HW132110   6.873   8.968   9.880  0.3099 -0.0711 -1.4143
42433SOL    HW232111   6.759   9.052   9.936  0.5458  0.1372 -1.2456
42434SOL     OW32112   4.274  11.764   8.215  0.4665  0.8049  0.1619
42434SOL    HW132113   4.333  11.703   8.260  0.2685  0.7660  0.3682
42434SOL    HW232114   4.293  11.750   8.122  0.9270  0.9345  0.2292
42435SOL     OW32115   6.473   6.048   5.074  0.2158  0.5315 -0.1190
42435SOL    HW132116   6.540   6.095   5.023  1.9253 -1.3493  0.2544
42435SOL    HW232117   6.449   6.109   5.144  0.6929  1.6881 -0.9313
42436SOL     OW32118   9.186   8.194   6.497  0.1375  0.2200  0.0097
42436SOL    HW132119   9.280   8.177   6.494  0.2491  0.8701 -0.1958
42436SOL    HW232120   9.164   8.187   6.590 -0.1218 -2.5599 -0.1569
42437SOL     OW32121   2.503   5.298   2.319 -0.4586  0.0096 -0.3512
42437SOL    HW132122   2.545   5.270   2.237 -0.9890  0.5001 -0.7993
42437SOL    HW232123   2.499   5.218   2.372  0.5371 -0.1658 -0.5081
42438SOL     OW32124   1.281   5.356  10.622 -0.0329  0.0921  0.1937
42438SOL    HW132125   1.194   5.344  10.586 -0.8146 -0.1644  2.0520
42438SOL    HW232126   1.310   5.268  10.647  1.4146 -0.0463 -1.7089
42439SOL     OW32127   5.230   6.383   4.797 -0.2454 -0.0207 -0.3252
42439SOL    HW132128   5.167   6.345   4.735 -0.9789  0.6093  0.0287
42439SOL    HW232129   5.272   6.307   4.838 -0.5540 -0.4429 -0.7798
42440SOL     OW32130   5.184  12.093   9.556  0.2267 -0.3357  0.3713
42440SOL    HW132131   5.232  12.020   9.594  3.2346 -0.2276 -2.6894
42440SOL    HW232132   5.251  12.159   9.539 -1.1826  0.4685 -2.7986
42441SOL     OW32133  10.702   0.527  10.523 -0.1614 -0.5592 -0.0949
42441SOL    HW132134  10.789   0.487  10.531  0.1471  0.1365  0.1804
42441SOL    HW232135  10.704   0.600  10.584 -1.8662 -2.0757  1.9316
42442SOL     OW32136   3.274   5.506   3.066  0.2470 -0.4793 -0.2622
42442SOL    HW132137   3.357   5.520   3.020  0.2488  1.6118  0.2522
42442SOL    HW232138   3.300   5.464   3.148  0.4670 -2.3004 -1.2272
42443SOL     OW32139   3.638   2.902   8.445 -0.0168 -0.1084  0.4590
42443SOL    HW132140   3.676   2.990   8.452  1.3795 -0.6211 -0.3091
42443SOL    HW232141   3.676   2.854   8.519 -0.8777 -0.0512  0.9521
42444SOL     OW32142   1.704   4.653  11.267  0.3392  0.2077 -0.2184
42444SOL    HW132143   1.754   4.693  11.195 -3.7257  2.9785 -1.9150
42444SOL    HW232144   1.654   4.582  11.226  0.9805 -0.9072  0.8620
42445SOL     OW32145   7.535   9.829  12.565  0.0971 -0.1811 -0.2335
42445SOL    HW132146   7.622   9.799  12.539  1.1045  1.6515  0.8058
42445SOL    HW232147   7.504   9.879  12.489  1.4316  1.9705  0.5429
42446SOL     OW32148   0.565   3.641   9.732 -0.2945  0.0660  0.3662
42446SOL    HW132149   0.539   3.580   9.801  1.5672 -1.0244  0.1816
42446SOL    HW232150   0.542   3.597   9.650  1.0339 -0.4514  0.2331
42447SOL     OW32151   2.752   7.686   4.179 -0.0457  0.4488  0.1675
42447SOL    HW132152   2.673   7.653   4.135  0.7465  0.9243 -1.7237
42447SOL    HW232153   2.739   7.780   4.185  0.6554  0.6294 -0.8339
42448SOL     OW32154   0.427   7.512   8.410 -0.5267  0.1516 -0.2118
42448SOL    HW132155   0.338   7.520   8.375 -0.9695 -0.5256  0.7180
42448SOL    HW232156   0.451   7.602   8.434  0.6035  1.0512 -3.9950
42449SOL     OW32157   4.393  11.955   4.936  0.0600  0.0192  0.2512
42449SOL    HW132158   4.477  11.916   4.961 -1.2810 -2.3239  1.4638
42449SOL    HW232159   4.342  11.955   5.017 -1.2344  1.0790 -0.5297
42450SOL     OW32160   9.520   8.469  12.515  0.4171  0.4339  0.6174
42450SOL    HW132161   9.491   8.556  12.486  1.2485  0.2016 -1.0850
42450SOL    HW232162   9.501   8.412  12.441  0.4934 -0.7128  1.4639
42451SOL     OW32163  10.154   6.112  10.038  0.2236  0.2025 -0.3788
42451SOL    HW132164  10.195   6.049   9.979  1.2122  0.6615 -0.2140
42451SOL    HW232165  10.157   6.195   9.991 -1.7376  0.0231 -0.8980
42452SOL     OW32166   1.900   0.743   9.255  0.0521 -0.5423 -0.5664
42452SOL    HW132167   1.865   0.776   9.338  0.7873  1.4157 -0.9843
42452SOL    HW232168   1.849   0.664   9.238 -0.3774 -0.7787  1.5491
42453SOL     OW32169   9.527   5.941   8.470 -0.3859  0.2905 -0.2689
42453SOL    HW132170   9.521   5.882   8.545  0.7686  2.2178  1.4683
42453SOL    HW232171   9.460   6.007   8.487 -1.4761 -0.2986 -2.0336
42454SOL     OW32172   7.250  11.634  10.434 -0.2948 -1.0490  0.0643
42454SOL    HW132173   7.273  11.652  10.343 -0.0406  0.8897  0.4549
42454SOL    HW232174   7.155  11.644  10.437 -0.4613 -2.4386 -0.2346
42455SOL     OW32175   7.237   8.373   8.688  0.3876 -0.0960 -0.2668
42455SOL    HW132176   7.265   8.314   8.758 -1.1299 -0.2388  0.2592
42455SOL    HW232177   7.199   8.448   8.734 -1.2048 -0.4716 -0.9009
42456SOL     OW32178   5.586   3.823   1.185 -0.2575 -0.3755  0.5364
42456SOL    HW132179   5.647   3.822   1.258  0.4753  2.4426  0.0621
42456SOL    HW232180   5.505   3.786   1.220  0.4155 -0.1439  2.4140
42457SOL     OW32181   3.896   2.757   5.762 -0.0781 -0.1113  0.4169
42457SOL    HW132182   3.918   2.690   5.827 -0.9032 -0.0764  0.7518
42457SOL    HW232183   3.975   2.768   5.711  1.1432  0.9598  2.3905
42458SOL     OW32184   9.685   4.468   5.207 -0.0119 -0.1300 -0.1729
42458SOL    HW132185   9.770   4.427   5.191 -0.5845 -1.7785  0.7543
42458SOL    HW232186   9.622   4.398   5.193 -1.3970  1.4100 -2.2903
42459SOL     OW32187   6.191   3.625   7.720  0.7637  0.3689  0.6568
42459SOL    HW132188   6.165   3.717   7.710  1.1845  0.3415 -1.0034
42459SOL    HW232189   6.114   3.581   7.755  0.6712  1.3964  1.8205
42460SOL     OW32190   0.653   8.189   1.677  0.1295  0.0035 -0.0442
42460SOL    HW132191   0.685   8.177   1.588 -0.3011 -0.0401 -0.1934
42460SOL    HW232192   0.560   8.166   1.673 -0.6480  2.8189 -0.2229
42461SOL     OW32193   8.827   6.548   0.664 -0.0797 -0.2635 -0.3028
42461SOL    HW132194   8.758   6.604   0.699 -2.1025 -2.3882 -0.6435
42461SOL    HW232195   8.847   6.488   0.735 -1.5154 -2.1866 -1.4221
42462SOL     OW32196   9.387   1.139   3.287 -0.0448 -0.1869 -0.5673
42462SOL    HW132197   9.469   1.172   3.253 -0.4270  0.7012 -0.6495
42462SOL    HW232198   9.321   1.168   3.223 -0.5177 -0.1971 -0.0911
42463SOL     OW32199  12.102   1.811   3.824 -0.6835 -0.6820  0.3450
42463SOL    HW132200  12.090   1.722   3.792  0.2773 -0.9937  0.8002
42463SOL    HW232201  12.051   1.866   3.765  0.4973 -1.2971 -1.3105
42464SOL     OW32202   5.056   1.904  12.049 -0.4745 -0.3429 -0.2361
42464SOL    HW132203   5.149   1.924  12.060 -0.0099 -2.4573  0.0423
42464SOL    HW232204   5.050   1.864  11.962 -1.5441  1.7790 -1.2243
42465SOL     OW32205   1.578   6.984   4.352  0.0789 -0.0626 -0.0151
42465SOL    HW132206   1.648   6.987   4.417  0.8793  1.8531 -0.8914
42465SOL    HW232207   1.598   6.907   4.299  1.3719  0.2804 -0.0552
42466SOL     OW32208   5.816   8.997  12.216 -0.0218 -0.1385  0.1204
42466SOL    HW132209   5.749   8.997  12.284  0.1331 -2.6517  0.3569
42466SOL    HW232210   5.891   9.040  12.256 -1.4139  2.8111 -0.1778
42467SOL     OW32211  11.661   9.290   5.492  0.1955  0.6709  0.3621
42467SOL    HW132212  11.737   9.231   5.485  0.1096  0.5275  0.6260
42467SOL    HW232213  11.687   9.355   5.557  0.2459  0.8567  0.1560
42468SOL     OW32214  11.308   4.446   5.250 -0.1038  0.0311  0.3862
42468SOL    HW132215  11.402   4.435   5.261 -0.1743 -0.7969  0.2126
42468SOL    HW232216  11.295   4.460   5.156 -0.3454 -2.1391  0.0545
42469SOL     OW32217   9.451   9.865   9.281  0.0205  0.0022  0.9156
42469SOL    HW132218   9.408   9.869   9.367 -1.5542 -0.9225  0.2135
42469SOL    HW232219   9.405   9.795   9.235  0.7561  0.5682 -0.7362
42470SOL     OW32220   3.380   0.618   5.729 -0.2703  0.2431 -0.3426
42470SOL    HW132221   3.350   0.532   5.699  0.2558 -0.4433  1.0028
42470SOL    HW232222   3.445   0.644   5.663 -1.4348  0.2769 -1.5257
42471SOL     OW32223   7.636   4.582   6.576  0.2423  0.0699 -0.4658
42471SOL    HW132224   7.698   4.645   6.612 -1.3537  2.3339 -1.4227
42471SOL    HW232225   7.597   4.540   6.653  0.9581  0.6432  0.2307
42472SOL     OW32226   0.123  12.054   1.317 -0.5219 -0.2374 -0.6402
42472SOL    HW132227   0.132  12.016   1.404 -1.7758 -1.1275 -0.8718
42472SOL    HW232228   0.109  11.979   1.259  1.3832  0.2358 -1.8133
42473SOL     OW32229   6.546  10.987   2.334 -0.4882  0.3898  0.2461
42473SOL    HW132230   6.564  10.966   2.242  1.8087 -1.8827  1.1035
42473SOL    HW232231   6.454  10.964   2.346 -0.1197 -1.9151 -0.8707
42474SOL     OW32232   7.393   7.066   8.190 -0.0159 -1.0880 -0.2229
42474SOL    HW132233   7.447   7.105   8.121  1.2203 -1.0726  0.7093
42474SOL    HW232234   7.444   7.079   8.270 -3.1745  2.7391  1.5276
42475SOL     OW32235   4.947  10.285   0.906  0.2457 -0.2420 -0.3174
42475SOL    HW132236   4.901  10.242   0.979 -0.1343  0.6761 -0.0102
42475SOL    HW232237   5.031  10.239   0.901 -0.0647 -0.8839  0.1428
42476SOL     OW32238   2.361   2.064   7.898  0.0264 -0.8566  0.1405
42476SOL    HW132239   2.373   1.996   7.831 -0.1689 -0.9310  0.1810
42476SOL    HW232240   2.269   2.057   7.923 -0.2149 -0.0150 -0.4611
42477SOL     OW32241   3.177   3.725  11.458 -0.4635  0.4923 -0.2361
42477SOL    HW132242   3.084   3.746  11.456 -0.8830 -1.2248 -2.3111
42477SOL    HW232243   3.192   3.695  11.548 -2.1258  0.0178 -0.0768
42478SOL     OW32244   9.554   9.819   2.839 -0.8339  0.0737  0.3615
42478SOL    HW132245   9.552   9.724   2.848  0.2572  0.1401  1.6013
42478SOL    HW232246   9.642   9.844   2.868 -0.2081  1.2609 -2.3101
42479SOL     OW32247   6.131  12.624   5.070 -0.0378  0.2352  0.0628
42479SOL    HW132248   6.206  12.675   5.099 -0.3523  0.7122  0.0566
42479SOL    HW232249   6.158  12.585   4.987  0.4066 -0.0831  0.3552
42480SOL     OW32250   5.462  12.563  11.713 -0.5445 -0.4224  0.2225
42480SOL    HW132251   5.439  12.471  11.703  0.7564 -0.5257 -2.9872
42480SOL    HW232252   5.542  12.574  11.662 -0.7675  2.5333  0.3099
42481SOL     OW32253  12.131   2.393   2.330 -0.1813  0.3877 -0.3469
42481SOL    HW132254  12.222   2.365   2.342 -1.0038 -2.8960 -0.6276
42481SOL    HW232255  12.118   2.395   2.235 -0.3339  1.0908 -0.3133
42482SOL     OW32256   4.171   2.589   3.248  0.0785  0.3415 -0.0811
42482SOL    HW132257   4.078   2.597   3.269 -1.1629  1.2606 -4.7932
42482SOL    HW232258   4.211   2.669   3.284 -0.3037 -1.0953  3.9485
42483SOL     OW32259   7.025  12.533   5.438 -0.2757  0.1295  0.1108
42483SOL    HW132260   7.026  12.439   5.458  1.4431  0.1926  0.4629
42483SOL    HW232261   7.085  12.543   5.364 -0.3365  0.9641  0.1627
42484SOL     OW32262   0.090   1.597   2.928 -0.4421 -0.0329 -0.3174
42484SOL    HW132263   0.151   1.639   2.987 -0.0576  1.5585 -1.7741
42484SOL    HW232264   0.009   1.588   2.979 -0.0845  1.1430  0.4823
42485SOL     OW32265   2.259   0.007   3.434  0.5506  0.3572  0.6129
42485SOL    HW132266   2.183   0.060   3.407  1.1851  1.0452  0.1225
42485SOL    HW232267   2.282   0.041   3.521  2.3440  2.5432 -0.6046
42486SOL     OW32268  12.383   6.203   6.821  0.3641  0.9530 -0.1532
42486SOL    HW132269  12.308   6.172   6.770 -0.1198  2.5604 -0.4954
42486SOL    HW232270  12.343   6.244   6.899  1.0077  0.0783  0.6590
42487SOL     OW32271   9.422   0.811  10.301  0.6458 -0.3823 -0.0142
42487SOL    HW132272   9.337   0.771  10.320  0.9773 -2.1877 -1.9657
42487SOL    HW232273   9.405   0.905  10.303 -1.4865 -0.7037 -0.6828
42488SOL     OW32274  11.003   0.122   0.024 -0.3821  0.6508 -0.6398
42488SOL    HW132275  10.953   0.128   0.106  1.0964 -0.0477  0.3676
42488SOL    HW232276  10.953   0.060  -0.029  0.3726 -1.6563  1.1581
42489SOL     OW32277   0.989  12.602   8.323 -0.0439 -0.3599 -0.8223
42489SOL    HW132278   1.076  12.575   8.349 -0.1798 -0.3629 -0.3629
42489SOL    HW232279   1.001  12.688   8.282  0.1712 -0.3605 -0.7588
42490SOL     OW32280   1.148   9.262   8.038 -0.1341 -0.4472  0.5196
42490SOL    HW132281   1.211   9.239   7.970 -1.4461 -0.2915 -0.7963
42490SOL    HW232282   1.176   9.348   8.069  0.6689 -0.6689  0.4515
42491SOL     OW32283  10.942   9.000   8.811 -0.5985 -0.2574 -0.1802
42491SOL    HW132284  10.889   9.080   8.806 -1.2730 -0.6795  0.0147
42491SOL    HW232285  10.912   8.947   8.737 -1.1225 -0.8877  0.4637
42492SOL     OW32286   9.399   5.564   3.498 -0.2653 -0.1029  0.1918
42492SOL    HW132287   9.393   5.551   3.404  1.1271  0.0248  0.0665
42492SOL    HW232288   9.492   5.566   3.516 -0.5074 -0.9886  1.7122
42493SOL     OW32289   4.890   6.496   5.800 -0.1296 -0.1553  0.3603
42493SOL    HW132290   4.945   6.486   5.877  0.7733 -0.0538 -0.2555
42493SOL    HW232291   4.932   6.442   5.733  0.0635  1.0777 -0.5491
42494SOL     OW32292   8.659   1.211   1.777  0.3723 -0.0071  0.2297
42494SOL    HW132293   8.672   1.183   1.686  0.5727  1.3276 -0.1827
42494SOL    HW232294   8.639   1.305   1.770 -0.4556 -0.0650  1.5101
42495SOL     OW32295   7.759   6.674   8.485  0.7301  0.4438 -0.6256
42495SOL    HW132296   7.685   6.735   8.493 -0.7235 -0.8084 -3.0679
42495SOL    HW232297   7.802   6.701   8.403  0.4903 -1.3188 -1.3623
42496SOL     OW32298  10.426   7.504   3.655  0.3214  0.8515 -0.0073
42496SOL    HW132299  10.377   7.549   3.586  1.2338  1.6632 -0.1569
42496SOL    HW232300  10.518   7.511   3.627  0.6930  1.0540  1.2095
42497SOL     OW32301   6.565  10.874   1.220  0.0169  0.1977 -0.1904
42497SOL    HW132302   6.520  10.807   1.168 -1.2632  1.2125 -0.4452
42497SOL    HW232303   6.544  10.956   1.175 -2.3137  1.3160  2.5998
42498SOL     OW32304   3.497   5.798   2.539 -0.2969  0.4085  0.0831
42498SOL    HW132305   3.585   5.823   2.566  0.0279 -0.4620 -0.1362
42498SOL    HW232306   3.461   5.878   2.500 -0.1307  1.1704  1.4278
42499SOL     OW32307   1.793   0.069   4.569  0.1580 -0.6710 -0.6654
42499SOL    HW132308   1.744   0.140   4.611  1.5423 -0.0509 -0.0339
42499SOL    HW232309   1.763  -0.010   4.614 -1.5172 -0.5466 -1.4856
42500SOL     OW32310  11.140   4.174   1.442  0.3803 -0.3903 -0.8041
42500SOL    HW132311  11.076   4.111   1.410 -0.2550  0.5036 -1.3209
42500SOL    HW232312  11.109   4.197   1.529  2.0590 -2.7512  0.5522
42501SOL     OW32313   6.569   6.411   0.070 -0.3674  0.1342  0.5672
42501SOL    HW132314   6.496   6.420   0.009 -0.3397  0.4233  0.5771
42501SOL    HW232315   6.591   6.318   0.067 -1.9693 -0.3583  1.9675
42502SOL     OW32316   3.290   8.191   0.151  0.0182 -0.5356 -0.5498
42502SOL    HW132317   3.314   8.186   0.243  0.9270  0.6630 -0.7026
42502SOL    HW232318   3.361   8.147   0.105  0.4305  0.3734 -0.7942
42503SOL     OW32319   0.853   7.659   7.923  0.1616  0.4016 -0.3537
42503SOL    HW132320   0.826   7.567   7.914 -0.6051  0.4155  1.4108
42503SOL    HW232321   0.894   7.663   8.010 -0.5160  1.8790 -0.0840
42504SOL     OW32322  10.498   9.201   5.626 -0.4311  0.0032 -0.3891
42504SOL    HW132323  10.473   9.288   5.658 -2.3834 -0.4299 -0.5917
42504SOL    HW232324  10.590   9.191   5.650 -0.4100  1.7777  0.3846
42505SOL     OW32325   8.380   1.854   4.558  0.4539  0.8408  0.4021
42505SOL    HW132326   8.418   1.941   4.548 -0.5290  1.5342  2.2833
42505SOL    HW232327   8.430   1.814   4.629 -0.2850  0.5869  0.7903
42506SOL     OW32328   7.753   1.533  11.626 -0.2591 -0.6555  0.2749
42506SOL    HW132329   7.682   1.535  11.691 -1.1726  2.4604 -0.6073
42506SOL    HW232330   7.711   1.500  11.546 -0.5036  0.2695  0.0074
42507SOL     OW32331   4.280   2.400  10.368 -0.1832  0.2455  0.2979
42507SOL    HW132332   4.235   2.484  10.360  0.7803  0.8086  0.6446
42507SOL    HW232333   4.219   2.345  10.417 -0.4043  1.0669  0.9768
42508SOL     OW32334  10.730  10.696   3.905 -0.5312  0.3965  0.2388
42508SOL    HW132335  10.789  10.772   3.905  1.3208 -0.9607  0.7003
42508SOL    HW232336  10.699  10.690   3.815 -2.1364  2.6872  0.5531
42509SOL     OW32337  11.251   7.001   9.955 -0.4295  0.5237  0.2039
42509SOL    HW132338  11.308   6.927   9.976  0.5358  0.3816 -2.4613
42509SOL    HW232339  11.186   7.002  10.025  0.4076 -1.9055  1.1393
42510SOL     OW32340  10.339  10.904   4.730  0.0287 -0.6487 -0.4031
42510SOL    HW132341  10.421  10.949   4.711  0.0799 -0.8701 -0.7159
42510SOL    HW232342  10.365  10.825   4.777 -0.0220 -0.6192 -0.3245
42511SOL     OW32343   1.495   2.084   2.015 -0.2334 -0.8824  0.5906
42511SOL    HW132344   1.562   2.124   2.071 -0.6619  2.1419 -0.8686
42511SOL    HW232345   1.544   2.021   1.961  1.7967  1.9469 -1.1467
42512SOL     OW32346   5.036   4.947   5.645 -0.2595  0.4030  0.1749
42512SOL    HW132347   5.050   4.999   5.566  0.7412  0.0485  0.0960
42512SOL    HW232348   4.995   4.866   5.615  1.3867 -0.3370 -0.2144
42513SOL     OW32349   8.562   9.107   2.600  0.0255  0.1872 -0.3238
42513SOL    HW132350   8.531   9.119   2.510 -1.1879 -0.6850 -0.0516
42513SOL    HW232351   8.529   9.183   2.647 -1.3571 -0.4744 -0.1514
42514SOL     OW32352  12.291   2.682  11.715 -0.5957 -0.2587 -0.0583
42514SOL    HW132353  12.279   2.757  11.657  1.3896  0.7596  0.7411
42514SOL    HW232354  12.254   2.608  11.667 -1.1950  0.9594 -1.5482
42515SOL     OW32355   4.746   0.290  10.296 -0.1069  0.1977 -0.1056
42515SOL    HW132356   4.659   0.255  10.279  0.1250 -0.5670  0.2212
42515SOL    HW232357   4.803   0.213  10.299  1.0549  0.8296 -2.9127
42516SOL     OW32358  11.121   6.296   8.212  0.7287 -0.1862  0.2179
42516SOL    HW132359  11.168   6.378   8.203  0.7179 -0.3390 -1.5013
42516SOL    HW232360  11.170   6.234   8.159 -0.9985 -0.5143 -1.0812
42517SOL     OW32361   7.185   6.432   5.375 -0.1110  0.4901 -0.3888
42517SOL    HW132362   7.158   6.485   5.450 -1.8992  0.0989 -0.6935
42517SOL    HW232363   7.146   6.346   5.392  1.2433 -0.2210 -0.7648
42518SOL     OW32364   2.998  10.819   2.836  0.0417 -0.0818 -0.6091
42518SOL    HW132365   3.003  10.728   2.865 -0.9127  0.2792  0.7934
42518SOL    HW232366   3.056  10.823   2.760  0.5460 -1.7178 -0.3567
42519SOL     OW32367   4.717   9.285   7.893  0.6350 -0.5475  0.5445
42519SOL    HW132368   4.757   9.346   7.830  0.2054 -0.8586 -0.0462
42519SOL    HW232369   4.680   9.341   7.961 -0.2239 -0.1101 -0.2629
42520SOL     OW32370   9.600   0.812   3.909 -0.4283  0.3721  0.6100
42520SOL    HW132371   9.571   0.726   3.877 -0.5542  0.7210 -0.2519
42520SOL    HW232372   9.540   0.874   3.867 -0.4876  0.8735  1.4103
42521SOL     OW32373   8.975  11.220  11.162 -0.3712  0.0392  0.6068
42521SOL    HW132374   9.061  11.238  11.126 -1.3114  0.2078 -1.7141
42521SOL    HW232375   8.987  11.228  11.257  2.6013 -2.0479  0.5431
42522SOL     OW32376  10.685   2.946   8.278  0.0884 -0.0392  0.3184
42522SOL    HW132377  10.714   3.034   8.254  1.1213 -0.6359 -0.7401
42522SOL    HW232378  10.766   2.896   8.288 -0.5033 -1.4467 -1.4446
42523SOL     OW32379   8.118   4.829   6.261  0.2351 -0.3935 -0.0809
42523SOL    HW132380   8.191   4.791   6.212  0.0907  1.0672 -1.5276
42523SOL    HW232381   8.048   4.765   6.252  0.7055 -0.8762 -0.4446
42524SOL     OW32382  10.536   4.558  11.379 -0.1186  0.0324 -0.2665
42524SOL    HW132383  10.579   4.510  11.451  1.2695  0.9613 -0.4485
42524SOL    HW232384  10.570   4.647  11.387 -1.7338  0.7036 -0.6841
42525SOL     OW32385   8.474  11.724   0.926  0.0440 -0.1212 -0.3046
42525SOL    HW132386   8.471  11.759   1.015  0.5829 -0.2128 -0.2470
42525SOL    HW232387   8.412  11.651   0.927  0.1416 -0.2013  0.0313
42526SOL     OW32388   7.902   0.988  11.886 -0.0355 -0.6969 -0.2430
42526SOL    HW132389   7.925   1.025  11.801 -2.3511  0.5894 -0.3778
42526SOL    HW232390   7.910   1.061  11.947 -3.1210 -0.2516 -0.2430
42527SOL     OW32391   1.329   7.898  12.439  0.0560  0.0233 -0.2618
42527SOL    HW132392   1.281   7.853  12.509  0.6229  1.4964  1.1470
42527SOL    HW232393   1.332   7.835  12.367 -1.3867 -1.2012  0.6857
42528SOL     OW32394  12.110   9.830   5.046  0.1858  0.2340  0.0017
42528SOL    HW132395  12.105   9.873   5.131 -0.2871 -0.2748  0.2422
42528SOL    HW232396  12.060   9.749   5.058  1.1045 -0.4051 -0.4271
42529SOL     OW32397   2.243   3.536  12.467 -0.4762  0.1890 -0.2278
42529SOL    HW132398   2.335   3.560  12.470 -0.5236  0.4098  3.4202
42529SOL    HW232399   2.242   3.441  12.479 -0.7277  0.1365 -0.6306
42530SOL     OW32400   9.933   8.584   1.187  0.1619  0.4414 -0.7596
42530SOL    HW132401   9.963   8.498   1.217  0.0321  0.6433 -0.0248
42530SOL    HW232402   9.842   8.589   1.215 -0.1915  0.3483 -1.8541
42531SOL     OW32403  11.987  11.749   2.664  0.3326 -0.7893 -0.1324
42531SOL    HW132404  12.006  11.812   2.734 -3.1182  0.6790 -0.3362
42531SOL    HW232405  12.067  11.749   2.611  0.5277  3.6890 -0.2449
42532SOL     OW32406   3.955   4.536   3.299  0.3600  0.0500 -0.1022
42532SOL    HW132407   3.898   4.576   3.233 -0.6230 -0.2677  0.5344
42532SOL    HW232408   3.898   4.521   3.374  1.5080  0.6240  0.9282
42533SOL     OW32409   9.881  11.572   8.606 -0.0967 -0.2747 -0.3658
42533SOL    HW132410   9.845  11.615   8.684  2.2332  0.0070  0.6094
42533SOL    HW232411   9.873  11.637   8.537 -1.1053 -0.1031 -0.1056
42534SOL     OW32412   7.753   3.555   1.588  0.0453  0.5161  0.7563
42534SOL    HW132413   7.730   3.570   1.497 -1.3588 -0.7229  0.8665
42534SOL    HW232414   7.803   3.473   1.587  1.0739  1.1247  0.9824
42535SOL     OW32415   3.342   3.032  10.337  0.4114 -0.1603  0.4868
42535SOL    HW132416   3.340   3.027  10.242 -0.8285 -1.1859  0.5259
42535SOL    HW232417   3.416   3.089  10.357  0.6537  0.1274 -1.0814
42536SOL     OW32418   1.989   3.689   7.257 -0.2191 -0.3374  0.3591
42536SOL    HW132419   1.911   3.697   7.202  1.2003  0.5604 -1.6528
42536SOL    HW232420   2.049   3.754   7.222  1.5015 -1.1023  1.7591
42537SOL     OW32421   3.059   1.477  10.774  0.5120 -0.1053 -0.5226
42537SOL    HW132422   2.971   1.511  10.757  0.7230  1.2359  0.8269
42537SOL    HW232423   3.117   1.536  10.727  0.7899  0.4742  0.5037
42538SOL     OW32424   6.768  10.042   3.050 -0.3681  0.6352  0.2431
42538SOL    HW132425   6.717  10.061   2.971  0.9831  1.0211 -0.5681
42538SOL    HW232426   6.784  10.128   3.090 -1.5340  0.3903  1.2651
42539SOL     OW32427   1.707  11.091   1.463  0.0710 -0.0623 -0.2578
42539SOL    HW132428   1.633  11.057   1.413 -0.2480 -0.2018  0.3018
42539SOL    HW232429   1.697  11.054   1.550  1.7412 -1.4519 -0.5972
42540SOL     OW32430   5.102   0.890  11.852 -0.7731 -0.3279  0.2602
42540SOL    HW132431   5.185   0.892  11.804 -1.1078  1.3314 -0.2762
42540SOL    HW232432   5.046   0.831  11.802  0.0410 -1.4164  0.5951
42541SOL     OW32433   0.349   4.967   1.984  0.0140  0.5335  0.1261
42541SOL    HW132434   0.329   4.896   1.923  0.6090  0.6243 -0.1818
42541SOL    HW232435   0.279   5.031   1.970  0.0057  0.4394 -0.2834
42542SOL     OW32436   1.200  12.337   1.761  0.5733  0.1741 -0.0079
42542SOL    HW132437   1.121  12.388   1.780  0.0517 -0.3287 -0.7738
42542SOL    HW232438   1.168  12.250   1.738  1.2419  0.3178 -1.6589
42543SOL     OW32439   3.988   6.989   6.841  0.1007  0.1997 -0.0591
42543SOL    HW132440   4.031   7.074   6.836 -0.0547  0.1888 -2.4208
42543SOL    HW232441   4.019   6.941   6.765  0.9656 -2.3025  1.7299
42544SOL     OW32442   7.598  11.822  11.449  0.0466 -0.2979  0.2733
42544SOL    HW132443   7.583  11.829  11.543 -0.5855  3.0659  0.0729
42544SOL    HW232444   7.538  11.754  11.420 -3.0831  1.5979  1.7813
42545SOL     OW32445   5.531   7.493   6.671 -0.2229  0.3706 -0.3338
42545SOL    HW132446   5.464   7.436   6.634 -0.7451  0.5607  0.2970
42545SOL    HW232447   5.572   7.441   6.740  0.7356  0.0232 -1.1326
42546SOL     OW32448   1.767   7.369   3.096  0.3872  0.0088  0.3172
42546SOL    HW132449   1.717   7.356   3.015  0.3086  0.1683  0.3385
42546SOL    HW232450   1.741   7.297   3.153 -0.5765  0.6301  0.6989
42547SOL     OW32451   0.786   7.543   5.754  0.0165 -0.0321  0.2900
42547SOL    HW132452   0.764   7.618   5.699  0.8704  1.0052  1.3096
42547SOL    HW232453   0.865   7.506   5.713 -0.6398 -0.6441 -0.4476
42548SOL     OW32454   0.475   0.326   2.132  0.2798  0.1701  0.1524
42548SOL    HW132455   0.484   0.346   2.225  1.5642  0.6648 -0.0530
42548SOL    HW232456   0.474   0.230   2.128  0.3995  0.1440  0.6704
42549SOL     OW32457   4.732   9.129   9.981  0.4475  0.5474  0.0571
42549SOL    HW132458   4.783   9.099   9.906 -0.1481 -0.5893  0.0740
42549SOL    HW232459   4.793   9.180  10.033  1.7289 -1.1906  0.3381
42550SOL     OW32460   7.539   4.511   2.011 -0.1770 -0.0673 -0.2869
42550SOL    HW132461   7.457   4.538   2.052 -0.1535 -2.1509  1.2946
42550SOL    HW232462   7.516   4.433   1.961  0.8301 -0.7670  0.2954
42551SOL     OW32463   9.091   0.783  10.652 -0.6030  0.4661 -0.1576
42551SOL    HW132464   9.173   0.801  10.698 -0.8178 -0.5011  0.6484
42551SOL    HW232465   9.035   0.859  10.671 -0.0684  0.8988 -0.3003
42552SOL     OW32466   4.953   7.788   0.251  0.7596  0.1250 -0.0597
42552SOL    HW132467   4.972   7.770   0.343  0.5308 -1.1052 -0.2431
42552SOL    HW232468   4.883   7.853   0.253  0.7372  0.0838  0.6276
42553SOL     OW32469   4.814   1.352   4.377 -0.4383 -0.3176 -0.0303
42553SOL    HW132470   4.889   1.382   4.429  0.9652 -1.0958 -1.5034
42553SOL    HW232471   4.763   1.298   4.438 -0.9778  1.8698  1.5792
42554SOL     OW32472   5.860   5.156   2.152  0.2548  0.5283  0.0923
42554SOL    HW132473   5.851   5.145   2.058  2.0164  1.8219 -0.2848
42554SOL    HW232474   5.949   5.125   2.171 -0.0145  0.4416  1.2956
42555SOL     OW32475   1.626   6.765   6.414 -0.5059 -0.2557 -0.1092
42555SOL    HW132476   1.581   6.722   6.487  1.1062  0.0255  1.1102
42555SOL    HW232477   1.568   6.836   6.389 -0.6217  0.3207  1.6618
42556SOL     OW32478  10.677   5.280   7.930  0.7001 -0.2849 -0.1610
42556SOL    HW132479  10.707   5.201   7.973  0.4408  0.1735  0.8891
42556SOL    HW232480  10.658   5.341   8.001 -2.6579 -0.5046 -0.7101
42557SOL     OW32481   0.254   3.597   1.454 -0.4479  0.0318  0.9832
42557SOL    HW132482   0.219   3.669   1.402 -0.3895 -0.8227 -0.2801
42557SOL    HW232483   0.190   3.527   1.444  0.2152 -0.5835  0.9816
42558SOL     OW32484   5.835  12.608  12.589  0.2607 -0.2445  0.1557
42558SOL    HW132485   5.827  12.668  12.516 -2.0473  0.4361  0.8653
42558SOL    HW232486   5.857  12.524  12.549 -0.6625  0.1719 -1.2931
42559SOL     OW32487   2.333   9.284   3.851 -0.4197  0.4780  0.2774
42559SOL    HW132488   2.317   9.208   3.906  1.3445  0.1569  0.3985
42559SOL    HW232489   2.335   9.249   3.762 -1.7338  0.7583  0.1070
42560SOL     OW32490   1.969   8.329   8.782  0.0964  0.1783  0.2730
42560SOL    HW132491   2.028   8.272   8.830 -0.1690  1.2324  1.9763
42560SOL    HW232492   1.881   8.299   8.807 -0.0431  0.8437  0.6379
42561SOL     OW32493   6.874   9.924   3.674 -0.2221  0.2213 -0.3210
42561SOL    HW132494   6.887   9.988   3.745 -2.5112 -0.3774  0.7171
42561SOL    HW232495   6.919   9.845   3.705 -0.9368  0.0622  0.3289
42562SOL     OW32496   4.152  11.087  12.139  1.0584  0.5759  0.0249
42562SOL    HW132497   4.162  11.136  12.220  0.7878 -1.6731  1.4899
42562SOL    HW232498   4.194  11.003  12.156 -2.0824 -1.3409 -0.8449
42563SOL     OW32499  12.429   6.579   4.667  0.1432 -0.2860  0.1308
42563SOL    HW132500  12.406   6.511   4.604  1.1055 -0.8962  0.4135
42563SOL    HW232501  12.471   6.648   4.616 -0.9320  0.1722 -0.1728
42564SOL     OW32502   8.631   6.392   5.707  0.3362 -0.5272 -0.0671
42564SOL    HW132503   8.581   6.438   5.639  0.6762 -1.0272 -0.6732
42564SOL    HW232504   8.621   6.300   5.685 -0.7936 -0.7904  1.4517
42565SOL     OW32505   6.843  10.786   1.675  0.7144 -0.0717  0.3279
42565SOL    HW132506   6.766  10.828   1.713  0.2053 -0.3804 -0.3451
42565SOL    HW232507   6.876  10.730   1.745 -0.5377 -1.0565  0.1619
42566SOL     OW32508   1.200   1.087   8.171  0.5560  0.3842  0.3230
42566SOL    HW132509   1.119   1.125   8.139  1.2209  1.5062 -0.1106
42566SOL    HW232510   1.268   1.124   8.114  1.4014 -0.3357  0.8255
42567SOL     OW32511  11.525  12.001   7.954  0.0275  0.5337  0.4197
42567SOL    HW132512  11.535  11.908   7.938 -0.6416  0.3647  0.9253
42567SOL    HW232513  11.522  12.041   7.867 -0.8629 -0.0535  0.1630
42568SOL     OW32514   8.910  10.981   4.199  0.1161  0.1955 -0.1042
42568SOL    HW132515   8.879  10.957   4.112 -0.0067 -1.6972  0.4106
42568SOL    HW232516   8.902  10.900   4.250 -3.2254  2.0481  2.6775
42569SOL     OW32517   0.468   1.676   9.387 -0.4800  0.4900  0.0007
42569SOL    HW132518   0.544   1.618   9.385 -0.2961  0.7027  0.5376
42569SOL    HW232519   0.473   1.719   9.472  0.0490  2.1704 -0.8316
42570SOL     OW32520   3.103   4.266   2.803 -0.0951 -0.3419 -0.4762
42570SOL    HW132521   3.153   4.228   2.731  1.7457  0.0720  0.5477
42570SOL    HW232522   3.063   4.190   2.846  0.7524 -0.8186 -0.4992
42571SOL     OW32523   5.523   8.149  10.522 -0.7399 -0.4177 -0.0002
42571SOL    HW132524   5.559   8.233  10.551 -1.0147 -0.2582 -0.1054
42571SOL    HW232525   5.471   8.171  10.444 -2.0377 -0.4366  0.8203
42572SOL     OW32526   9.431   2.490   4.616 -0.1959 -0.1482  0.6895
42572SOL    HW132527   9.447   2.474   4.709 -0.5078  0.0449  0.7752
42572SOL    HW232528   9.351   2.541   4.613 -0.0459  0.0735  0.3279
42573SOL     OW32529   3.671   4.774   4.109 -0.2162  0.0173 -0.0654
42573SOL    HW132530   3.697   4.865   4.117  0.0400 -0.0626  0.0328
42573SOL    HW232531   3.586   4.769   4.152  0.4597 -0.0944  1.3296
42574SOL     OW32532   1.257   6.490   2.062  0.1317 -0.2706 -0.5671
42574SOL    HW132533   1.268   6.456   1.973  0.2525  0.6997 -0.9279
42574SOL    HW232534   1.163   6.484   2.078  0.3320 -2.5385  0.1042
42575SOL     OW32535   7.150   8.878   3.031 -0.5259 -1.0529  0.3065
42575SOL    HW132536   7.145   8.949   3.095  1.0805  0.9050 -1.5701
42575SOL    HW232537   7.222   8.823   3.062  0.6359  0.2103 -0.0440
42576SOL     OW32538  11.278   6.093  11.867  0.3384  0.0837 -0.0588
42576SOL    HW132539  11.267   6.061  11.956 -1.8312  0.6410 -0.0760
42576SOL    HW232540  11.241   6.025  11.811  0.0299  0.5141 -0.3934
42577SOL     OW32541   2.984   7.831   8.398  0.3751 -0.2992  0.1530
42577SOL    HW132542   3.067   7.783   8.395  1.0013  0.7716 -1.4626
42577SOL    HW232543   2.975   7.857   8.490 -0.0088 -3.3928  1.0927
42578SOL     OW32544  10.434   7.278   6.316 -0.0298 -0.0293 -0.0893
42578SOL    HW132545  10.421   7.249   6.226 -0.4936  1.4528 -0.5282
42578SOL    HW232546  10.407   7.204   6.370 -0.7072 -0.5699 -1.1567
42579SOL     OW32547   3.996   5.965   9.706 -0.5402  0.6940  1.0140
42579SOL    HW132548   3.941   5.894   9.740  0.0204 -0.1038  0.3099
42579SOL    HW232549   4.029   5.931   9.623 -1.2151  2.2449  0.0642
42580SOL     OW32550   4.678   2.635   4.938 -0.1124  0.4048 -0.2385
42580SOL    HW132551   4.758   2.671   4.899  0.8214 -2.0985 -0.8059
42580SOL    HW232552   4.619   2.620   4.864 -0.2649  0.2289 -0.0836
42581SOL     OW32553   1.825   8.137   1.146 -0.0203  0.0752 -0.3740
42581SOL    HW132554   1.788   8.106   1.064  0.5239 -1.0124 -0.2296
42581SOL    HW232555   1.863   8.222   1.125 -0.4245  0.0835 -1.0934
42582SOL     OW32556   5.949  11.260   1.541 -0.2683  0.5928 -0.0752
42582SOL    HW132557   5.915  11.198   1.605 -0.2980  0.7591  0.0722
42582SOL    HW232558   5.896  11.339   1.554 -0.8001  0.3734 -0.8283
42583SOL     OW32559   7.737   1.333   4.454  0.2517 -0.3056  0.3193
42583SOL    HW132560   7.812   1.391   4.445 -1.3726  1.5228 -2.8092
42583SOL    HW232561   7.695   1.360   4.536  0.3308  2.0290 -0.3586
42584SOL     OW32562   5.315   9.912   0.145  0.0713  0.0143 -0.2816
42584SOL    HW132563   5.314   9.830   0.096  0.8297 -0.2449  0.1114
42584SOL    HW232564   5.292   9.886   0.234 -1.7631  0.5469 -0.5575
42585SOL     OW32565  11.617  10.500  11.333  0.1111  0.1344  0.1217
42585SOL    HW132566  11.680  10.554  11.284 -1.7450  0.6774 -1.7851
42585SOL    HW232567  11.578  10.561  11.396  1.5103 -0.2326  1.3958
42586SOL     OW32568  12.129   1.739   8.493  0.8848  0.3247  0.3818
42586SOL    HW132569  12.182   1.691   8.430  1.7851  0.4684  1.0170
42586SOL    HW232570  12.187   1.753   8.567 -0.7814 -1.7462  2.2071
42587SOL     OW32571   6.596   2.483   9.079 -0.0051 -0.0325  0.2871
42587SOL    HW132572   6.512   2.450   9.048  0.1545 -1.1045  0.9473
42587SOL    HW232573   6.573   2.548   9.146 -0.3152 -0.4250  0.5676
42588SOL     OW32574   9.318   9.295   0.575  0.7047  0.5873  0.7552
42588SOL    HW132575   9.264   9.307   0.654 -1.2595  1.0687 -0.5939
42588SOL    HW232576   9.265   9.240   0.518  2.5938 -0.7255  0.1740
42589SOL     OW32577   7.288   1.574   5.492 -0.4010  0.4638 -0.0964
42589SOL    HW132578   7.218   1.564   5.556 -2.1320  0.8988 -1.8283
42589SOL    HW232579   7.362   1.606   5.543 -1.6974  0.7719  1.6896
42590SOL     OW32580   7.774   1.941   8.513  0.4286 -0.1578  0.3742
42590SOL    HW132581   7.719   1.981   8.580  0.8159  0.0199  0.5901
42590SOL    HW232582   7.772   1.847   8.534  2.1316  0.0803  1.8622
42591SOL     OW32583   3.401  11.812   4.891 -0.1475 -0.0090 -0.2920
42591SOL    HW132584   3.445  11.828   4.974 -0.6200  0.5843 -0.1491
42591SOL    HW232585   3.308  11.829   4.909 -0.9983 -4.1657  0.2639
42592SOL     OW32586   2.447   5.433   1.859  0.4206  0.2936  1.0152
42592SOL    HW132587   2.363   5.479   1.849  0.7217  0.8972  1.1800
42592SOL    HW232588   2.512   5.503   1.857  0.8101  0.0061  2.5904
42593SOL     OW32589   5.212   3.280   9.886  0.0544  0.4503 -0.3124
42593SOL    HW132590   5.154   3.353   9.909  0.2001  1.3187 -2.4695
42593SOL    HW232591   5.287   3.321   9.843  0.7356 -0.9006 -0.4776
42594SOL     OW32592   8.791   8.349   0.674  0.1647 -0.1188 -0.5292
42594SOL    HW132593   8.770   8.388   0.758  2.3264 -1.1632  0.5739
42594SOL    HW232594   8.820   8.422   0.619  1.0380  0.2947  0.4500
42595SOL     OW32595  11.251   3.046   6.929  0.1356  0.3626  0.2975
42595SOL    HW132596  11.231   3.036   6.836 -1.6449  0.8519  0.6032
42595SOL    HW232597  11.345   3.029   6.935 -0.1012 -1.9207 -1.2668
42596SOL     OW32598  11.096   8.265   3.936  0.4137  0.4832 -0.4526
42596SOL    HW132599  11.021   8.256   3.877  0.4995 -0.4605 -0.4221
42596SOL    HW232600  11.104   8.180   3.979  0.1814  1.2269  1.1400
42597SOL     OW32601   6.920   3.435   9.546 -0.4300  0.3890 -0.4322
42597SOL    HW132602   6.834   3.476   9.537 -1.2155 -1.4925 -2.1150
42597SOL    HW232603   6.978   3.506   9.574 -2.5468  1.6503  1.0348
42598SOL     OW32604   6.289   6.303  10.482 -0.4484  0.3937  0.1632
42598SOL    HW132605   6.338   6.316  10.401  1.0558 -1.7034  0.6516
42598SOL    HW232606   6.237   6.224  10.466 -1.1204  0.6849  0.8224
42599SOL     OW32607   3.639   3.147   7.180  0.2418 -0.7218 -0.5943
42599SOL    HW132608   3.649   3.195   7.098  1.1706  0.6705  0.2757
42599SOL    HW232609   3.677   3.205   7.246 -0.3475 -1.8593  0.8052
42600SOL     OW32610   0.818   7.518   1.526  0.0541 -0.1549 -0.5062
42600SOL    HW132611   0.860   7.585   1.579  0.3032  0.4055 -1.3914
42600SOL    HW232612   0.727   7.545   1.520 -0.6623 -1.7130  1.9603
42601SOL     OW32613   2.899   6.483  12.285 -0.3977  0.7196 -0.0440
42601SOL    HW132614   2.967   6.476  12.352 -0.0689  2.1281 -0.2064
42601SOL    HW232615   2.933   6.431  12.212 -1.4064 -2.0595  1.3107
42602SOL     OW32616   4.937   7.244  12.497 -0.0735  0.2150  0.0294
42602SOL    HW132617   4.948   7.276  12.586  0.3324 -0.1720  0.1258
42602SOL    HW232618   4.858   7.287  12.464 -0.2481  0.3210  0.5896
42603SOL     OW32619   0.318   5.165   0.369  0.2513 -0.1082  0.3369
42603SOL    HW132620   0.292   5.169   0.277 -0.9118  1.9511  0.6837
42603SOL    HW232621   0.300   5.075   0.396  1.3649 -0.9759 -1.6118
42604SOL     OW32622   3.690   2.798  10.204  0.7020 -0.5997 -0.4785
42604SOL    HW132623   3.727   2.718  10.167  1.3517 -0.2833 -0.5284
42604SOL    HW232624   3.596   2.791  10.188  0.8144 -1.1194 -0.9334
42605SOL     OW32625   5.908   2.046  12.577  0.0801  0.2743 -0.3079
42605SOL    HW132626   5.934   2.063  12.487  2.3985  1.0433  0.4524
42605SOL    HW232627   5.907   1.950  12.584  1.1345  0.2135 -0.8240
42606SOL     OW32628   7.261   3.567   4.368  0.3147  0.2473  0.0568
42606SOL    HW132629   7.302   3.519   4.296  1.0334  0.5512  0.2572
42606SOL    HW232630   7.332   3.618   4.407 -0.4993  1.7309 -0.3348
42607SOL     OW32631   0.779  11.362  11.393 -0.1358 -0.0589  0.5821
42607SOL    HW132632   0.688  11.351  11.365 -0.2782  0.6974  0.7286
42607SOL    HW232633   0.776  11.358  11.488  0.1016 -0.8352  0.5623
42608SOL     OW32634   3.116   3.749   8.458  0.3201  0.0550 -0.0706
42608SOL    HW132635   3.098   3.657   8.436  0.1669 -0.4081  1.8569
42608SOL    HW232636   3.031   3.792   8.455  0.6426  0.7597 -3.2957
42609SOL     OW32637   0.098  11.203  11.993  0.1768 -0.0425 -0.1396
42609SOL    HW132638   0.179  11.253  11.986 -0.9087  1.8107 -0.2467
42609SOL    HW232639   0.108  11.153  12.074  1.5417 -0.0736 -0.3100
42610SOL     OW32640   1.036   2.456   3.191 -0.4613  0.5716  0.0861
42610SOL    HW132641   0.986   2.512   3.131 -2.1700 -1.2573 -0.2871
42610SOL    HW232642   1.009   2.485   3.278 -2.5352 -0.5742 -0.1014
42611SOL     OW32643   9.405   5.072   6.728 -0.3667 -0.6818 -0.1622
42611SOL    HW132644   9.437   4.983   6.748 -1.1087 -1.6654 -2.8760
42611SOL    HW232645   9.315   5.072   6.759 -0.4265 -0.9450 -0.3288
42612SOL     OW32646   7.969   7.662   1.367 -0.6457 -0.2809  0.0359
42612SOL    HW132647   8.044   7.669   1.428 -0.4050 -0.8586 -0.1858
42612SOL    HW232648   7.899   7.710   1.411  0.7148  3.1174 -1.1778
42613SOL     OW32649   7.063   5.732   1.476 -0.6333  0.7909  0.6868
42613SOL    HW132650   6.990   5.775   1.433 -0.6612  1.5649  1.4751
42613SOL    HW232651   7.067   5.645   1.436 -0.9659  1.3075 -0.4926
42614SOL     OW32652  11.492   4.857   7.164 -0.3065 -0.7446  0.5333
42614SOL    HW132653  11.552   4.930   7.178  0.4747 -1.4324  0.8097
42614SOL    HW232654  11.486   4.814   7.249 -0.5568 -1.1625  0.3076
42615SOL     OW32655  10.449   5.968  11.131 -0.3447 -0.0411  0.4516
42615SOL    HW132656  10.414   6.009  11.052  0.2172 -0.1224  0.1598
42615SOL    HW232657  10.502   6.035  11.173  2.1021 -0.9563 -0.9840
42616SOL     OW32658   6.346   9.459   0.859  0.0037  0.2972 -0.1477
42616SOL    HW132659   6.380   9.405   0.931 -1.6764  1.3477  1.5135
42616SOL    HW232660   6.252   9.441   0.858 -0.0810  0.6407 -1.8499
42617SOL     OW32661   1.888  11.965   2.219 -1.1713  0.1086 -0.2174
42617SOL    HW132662   1.804  11.974   2.265 -1.0906 -0.3234  0.0196
42617SOL    HW232663   1.868  11.915   2.141 -1.0875 -0.2343 -0.0215
42618SOL     OW32664   6.855   6.013  11.300  0.8156  0.0521  0.1151
42618SOL    HW132665   6.842   6.073  11.374 -1.2377 -1.8376  1.4244
42618SOL    HW232666   6.869   5.927  11.341 -1.0983 -1.1913 -1.6245
42619SOL     OW32667   0.028   4.915   9.859  0.0368 -0.0216  0.0006
42619SOL    HW132668   0.119   4.908   9.831 -0.4929 -0.0262 -1.8046
42619SOL    HW232669  -0.010   4.980   9.800 -0.8032  1.0372  1.6351
42620SOL     OW32670  11.235   5.827   7.508  0.0154  0.3991 -0.7269
42620SOL    HW132671  11.327   5.809   7.487 -0.3291  1.7423 -4.1462
42620SOL    HW232672  11.199   5.742   7.533  1.7418 -0.5730 -1.3303
42621SOL     OW32673   0.986  10.295   2.831 -0.3457 -0.0413  0.5663
42621SOL    HW132674   1.063  10.321   2.880  0.3748  0.6930 -0.8726
42621SOL    HW232675   0.940  10.377   2.814  0.3076 -0.0150 -1.3594
42622SOL     OW32676   9.009   5.958  10.345 -0.5976 -0.0287  0.2834
42622SOL    HW132677   9.084   5.905  10.319 -1.0781 -0.2098 -0.7890
42622SOL    HW232678   8.940   5.895  10.362 -1.6927  0.2052 -2.6431
42623SOL     OW32679   2.019   5.491   1.885 -0.6491 -0.0404  0.0216
42623SOL    HW132680   2.023   5.405   1.926 -1.3871 -0.3173 -0.4822
42623SOL    HW232681   1.951   5.538   1.934  0.2225  0.5104  0.7466
42624SOL     OW32682   3.909   6.457   3.879  0.0678  0.2423  0.1510
42624SOL    HW132683   3.922   6.472   3.972  2.2506 -0.6377  0.0498
42624SOL    HW232684   3.969   6.385   3.857 -1.4008 -0.5362 -1.6619
42625SOL     OW32685   6.104   4.188   9.626 -0.2680 -0.0961  0.1344
42625SOL    HW132686   6.027   4.165   9.574  0.3162 -2.0636  0.0574
42625SOL    HW232687   6.167   4.120   9.607  2.1285  2.2560 -0.9808
42626SOL     OW32688   1.935   8.638   8.733 -0.0461 -0.4011  0.0345
42626SOL    HW132689   1.970   8.550   8.724  1.6174  0.4409 -4.3685
42626SOL    HW232690   1.865   8.644   8.669  0.0724  1.5306  0.0077
42627SOL     OW32691   5.979   9.941  10.512 -0.0026 -0.0403  0.1982
42627SOL    HW132692   5.938  10.024  10.538  0.4317  1.2129 -2.7786
42627SOL    HW232693   6.073   9.957  10.522  0.0427 -0.5302  0.5622
42628SOL     OW32694  12.386   3.003  10.213 -0.2497  0.2471 -0.0759
42628SOL    HW132695  12.310   2.956  10.248 -0.9534  1.1167 -0.3820
42628SOL    HW232696  12.364   3.018  10.121 -0.1092  1.2755  0.0479
42629SOL     OW32697  10.789   6.629   2.059 -0.5538 -0.2712  0.0965
42629SOL    HW132698  10.736   6.704   2.032 -0.8098 -0.6321 -0.4235
42629SOL    HW232699  10.732   6.553   2.045 -1.0372 -0.4347  2.4710
42630SOL     OW32700   3.781   8.142  12.318  0.6083  0.1814 -0.2525
42630SOL    HW132701   3.701   8.114  12.272  0.6006  1.7664 -1.3161
42630SOL    HW232702   3.847   8.079  12.291  0.7181  1.3141 -2.9631
42631SOL     OW32703   0.909   6.887   7.048  0.7360 -0.0652 -0.6745
42631SOL    HW132704   0.904   6.864   6.955 -1.8541 -0.2037 -0.5855
42631SOL    HW232705   0.831   6.941   7.063  1.2390  0.1709  1.3601
42632SOL     OW32706   3.767   8.903  10.487  0.3510 -0.1795 -0.3487
42632SOL    HW132707   3.717   8.956  10.549  1.0844 -1.5554  1.5209
42632SOL    HW232708   3.711   8.827  10.469  0.4845 -0.1863 -0.7521
42633SOL     OW32709  12.591  10.746   0.418  0.2501 -0.4952  0.1608
42633SOL    HW132710  12.503  10.715   0.393 -0.1206  1.5964 -1.3241
42633SOL    HW232711  12.644  10.735   0.339  0.7447  0.3032  0.3723
42634SOL     OW32712   7.462   6.179   6.308 -0.2095 -0.2539  0.3985
42634SOL    HW132713   7.453   6.190   6.402 -3.2372  2.2768 -0.0302
42634SOL    HW232714   7.436   6.088   6.292 -1.0768 -0.2974  1.8771
42635SOL     OW32715   7.387   0.768   2.472  0.5547 -0.1951  0.1101
42635SOL    HW132716   7.354   0.777   2.562  0.3864 -0.1039  0.0385
42635SOL    HW232717   7.481   0.755   2.483  0.5429 -0.1264  0.2985
42636SOL     OW32718   2.783   4.263   1.344  0.0814 -0.4196 -0.5749
42636SOL    HW132719   2.812   4.338   1.396 -1.1865 -0.7137  0.6305
42636SOL    HW232720   2.783   4.295   1.254  1.8886  0.2508 -0.3743
42637SOL     OW32721  11.216  12.477   4.513 -0.3531 -0.1820 -0.3135
42637SOL    HW132722  11.303  12.489   4.475  0.0298 -2.9712 -0.4975
42637SOL    HW232723  11.227  12.498   4.605  0.5708 -0.6219 -0.3064
42638SOL     OW32724   0.478   8.659  11.153 -0.0652 -0.6141  0.0541
42638SOL    HW132725   0.559   8.616  11.182  1.5556  2.5789  0.6841
42638SOL    HW232726   0.441   8.695  11.234 -1.2813 -0.6632 -0.4668
42639SOL     OW32727  10.572   3.938   8.255  0.0224 -0.2130  0.8035
42639SOL    HW132728  10.611   4.024   8.241 -0.5249 -0.2108 -0.9940
42639SOL    HW232729  10.478   3.952   8.247 -0.2048 -0.6976  2.3042
42640SOL     OW32730   9.439   7.769   1.744 -0.1149  0.4808 -0.0961
42640SOL    HW132731   9.515   7.753   1.801 -0.6658 -0.9824  0.2715
42640SOL    HW232732   9.440   7.864   1.730  1.6249  0.5344  0.1051
42641SOL     OW32733   5.471   0.870   5.491  0.3034 -0.2014  0.4352
42641SOL    HW132734   5.531   0.937   5.525  0.8434 -0.3385 -0.2012
42641SOL    HW232735   5.466   0.804   5.560  1.2332 -0.3905  0.3428
42642SOL     OW32736   6.164   6.065   8.265 -0.0343  0.4655  0.1900
42642SOL    HW132737   6.084   6.071   8.318 -0.1609  1.1737 -0.0658
42642SOL    HW232738   6.196   6.155   8.260  0.9976  0.1331  0.6063
42643SOL     OW32739   9.058   3.102   6.571  0.0880 -0.2228  0.0445
42643SOL    HW132740   9.098   3.017   6.593 -0.1913  0.3123  3.1061
42643SOL    HW232741   9.105   3.131   6.493  2.5500 -1.6714  0.8626
42644SOL     OW32742   3.764   9.339  11.055 -0.5463 -0.2412  0.2111
42644SOL    HW132743   3.779   9.431  11.077  1.9499 -0.1629 -1.3762
42644SOL    HW232744   3.752   9.340  10.960  0.8129 -1.6284 -0.0165
42645SOL     OW32745  10.944  10.486  12.072  0.1445  0.1538 -0.1317
42645SOL    HW132746  11.000  10.411  12.051  0.6278  0.2561  0.7526
42645SOL    HW232747  10.996  10.538  12.133 -1.0510  0.0785  0.9769
42646SOL     OW32748   6.974  10.447   4.277 -0.3008 -0.0211 -0.1955
42646SOL    HW132749   6.917  10.405   4.213 -0.4998 -1.6850  1.0020
42646SOL    HW232750   7.063  10.427   4.246 -0.3860 -1.8245  0.5995
42647SOL     OW32751   4.831   7.215   7.178  0.5852 -0.4965 -0.7348
42647SOL    HW132752   4.840   7.122   7.159 -0.0938 -0.7000 -0.0795
42647SOL    HW232753   4.814   7.219   7.272 -1.2056  0.1668 -1.0555
42648SOL     OW32754   0.553   5.510   6.013  0.7001 -0.2842 -0.4496
42648SOL    HW132755   0.596   5.487   6.095  2.2038  0.0297 -1.1257
42648SOL    HW232756   0.511   5.429   5.984 -0.3704 -0.2515  0.9062
42649SOL     OW32757  12.123  12.085   7.833  0.7477 -0.2351 -0.2798
42649SOL    HW132758  12.051  12.147   7.849 -1.1355 -1.5820 -2.8492
42649SOL    HW232759  12.188  12.136   7.785  0.6329  0.5096  0.3285
42650SOL     OW32760   9.245   2.380   0.586 -0.0495  0.5498  0.0601
42650SOL    HW132761   9.298   2.301   0.579  0.8183  1.0689  0.6121
42650SOL    HW232762   9.307   2.449   0.612 -1.0223  1.1284  0.9219
42651SOL     OW32763   6.505   3.328   7.052  0.2622 -0.1157  0.1572
42651SOL    HW132764   6.506   3.327   6.956  1.0139 -0.5663  0.1694
42651SOL    HW232765   6.413   3.345   7.074  0.1208  0.2046 -0.6392
42652SOL     OW32766   9.727   1.110   3.405 -0.4407  0.2055  0.4015
42652SOL    HW132767   9.755   1.202   3.412  0.4313 -0.0868  0.9542
42652SOL    HW232768   9.793   1.069   3.349 -1.1201  0.0233 -0.2769
42653SOL     OW32769   6.369   1.380   6.558  0.2673  0.2772  0.1587
42653SOL    HW132770   6.343   1.469   6.534 -1.4644 -0.8790 -2.8961
42653SOL    HW232771   6.442   1.360   6.500 -0.0419 -0.6043  0.0622
42654SOL     OW32772   6.276  11.845   9.641 -0.2498 -0.5541  0.2662
42654SOL    HW132773   6.258  11.752   9.626  0.5505 -0.4673 -1.4612
42654SOL    HW232774   6.368  11.856   9.617 -0.6171  0.8895 -0.5816
42655SOL     OW32775  11.676   1.438   4.195  0.3674  0.0725  0.1267
42655SOL    HW132776  11.727   1.484   4.128 -0.7139 -0.3212 -1.0034
42655SOL    HW232777  11.611   1.501   4.224 -0.0446 -0.1994 -0.2004
42656SOL     OW32778  11.979   0.393   5.425 -0.4040  0.3302 -0.1325
42656SOL    HW132779  11.976   0.345   5.507  0.2162  0.5610  0.0335
42656SOL    HW232780  12.057   0.359   5.380 -1.2286 -0.4460 -1.0397
42657SOL     OW32781   3.263  12.235   2.360 -0.4883  0.0539 -0.3419
42657SOL    HW132782   3.282  12.328   2.374 -0.9657  1.1269 -5.2587
42657SOL    HW232783   3.348  12.192   2.370  0.1347  1.2952 -0.0418
42658SOL     OW32784   8.111   0.955  10.236  0.0896  0.0582 -0.1951
42658SOL    HW132785   8.111   1.011  10.158  0.3753 -0.9582 -0.9365
42658SOL    HW232786   8.121   0.866  10.202 -2.9062 -0.7560  0.7383
42659SOL     OW32787   3.039   3.872   9.367 -0.2313 -0.2822 -0.3776
42659SOL    HW132788   3.014   3.841   9.280  3.2025  2.0117 -2.4849
42659SOL    HW232789   3.089   3.800   9.405  0.5950 -0.4012 -1.6083
42660SOL     OW32790  11.264   0.406   3.209  0.1322  0.2571  0.1667
42660SOL    HW132791  11.332   0.412   3.142  0.5888  0.3647  0.6345
42660SOL    HW232792  11.307   0.432   3.290 -0.1417 -0.8131  0.6860
42661SOL     OW32793  11.395   2.637   5.713 -0.2868  0.2530  0.2956
42661SOL    HW132794  11.345   2.701   5.764  2.0033  1.4340  1.2291
42661SOL    HW232795  11.456   2.690   5.662  0.8966 -1.1328  0.2082
42662SOL     OW32796   6.540   4.269  11.287  0.3098 -0.1336  0.1586
42662SOL    HW132797   6.564   4.353  11.326  0.7537  0.6720 -1.7722
42662SOL    HW232798   6.496   4.222  11.358  1.7584  0.9454  1.8480
42663SOL     OW32799   1.951   0.734  11.635 -0.1729  0.4534  0.4486
42663SOL    HW132800   1.993   0.714  11.551  0.2361  0.9905  0.5223
42663SOL    HW232801   1.876   0.674  11.639 -1.4375  1.8263 -1.2510
42664SOL     OW32802   1.275   6.980   8.212 -0.5995  0.8872 -0.1970
42664SOL    HW132803   1.202   6.918   8.220 -1.0524  1.3892 -0.4238
42664SOL    HW232804   1.235   7.066   8.220 -0.0420  1.1738 -0.4122
42665SOL     OW32805   0.663   1.863   2.688 -1.1286 -0.4610  0.5565
42665SOL    HW132806   0.721   1.881   2.762 -2.5065  1.9519  1.1593
42665SOL    HW232807   0.614   1.944   2.676 -3.2777 -1.8766 -0.9166
42666SOL     OW32808   7.876   7.639  12.251  0.2730 -0.3409  0.1829
42666SOL    HW132809   7.910   7.549  12.255  1.8665 -0.0324 -3.0038
42666SOL    HW232810   7.803   7.634  12.190 -0.3183  0.3800  0.8172
42667SOL     OW32811   8.129   5.896   5.965 -0.1026  0.1196 -0.5026
42667SOL    HW132812   8.055   5.904   6.026  1.4091  0.5727  1.3812
42667SOL    HW232813   8.167   5.984   5.963  1.8878 -0.6522  0.6456
42668SOL     OW32814  11.188   9.859  11.063 -0.0701 -0.7689 -0.0004
42668SOL    HW132815  11.233   9.787  11.019  1.8200  0.6038 -0.4452
42668SOL    HW232816  11.258   9.911  11.102 -1.2734  1.3098 -0.4698
42669SOL     OW32817   4.195   4.781   4.927 -0.1225 -0.0343  0.4680
42669SOL    HW132818   4.103   4.756   4.931 -0.1086 -0.0985  0.3713
42669SOL    HW232819   4.226   4.746   4.844  0.2911 -1.0325  1.0265
42670SOL     OW32820   1.532  10.250  10.682 -0.4903  0.6332  0.0871
42670SOL    HW132821   1.558  10.237  10.773  1.9249  1.7601 -0.3767
42670SOL    HW232822   1.558  10.170  10.637  0.5478  1.0317 -0.0364
42671SOL     OW32823   0.361   9.677   2.422 -0.3088  0.0727  0.3160
42671SOL    HW132824   0.292   9.619   2.453 -0.2633 -0.3187 -0.2875
42671SOL    HW232825   0.440   9.622   2.422 -0.2201  0.1971 -0.0362
42672SOL     OW32826  10.765  10.706   3.195  0.1699  0.3905 -0.3829
42672SOL    HW132827  10.813  10.770   3.247  0.4708  0.9444 -1.3155
42672SOL    HW232828  10.829  10.671   3.134  0.2327 -1.4879  0.6826
42673SOL     OW32829   9.611   4.255   9.123  0.0563 -0.2548 -0.0456
42673SOL    HW132830   9.629   4.165   9.098  0.4842 -0.3785  0.6767
42673SOL    HW232831   9.680   4.306   9.080  0.3491 -0.3807  0.2681
42674SOL     OW32832  11.861   5.069   6.743  0.1619 -0.0983 -0.2370
42674SOL    HW132833  11.770   5.057   6.716 -0.6634  2.1822  1.3297
42674SOL    HW232834  11.887   5.153   6.704  0.6536  0.6482  1.6154
42675SOL     OW32835  10.557  11.858  12.433 -0.4125  0.0291  0.1380
42675SOL    HW132836  10.621  11.829  12.498 -0.2376  0.2045  0.0467
42675SOL    HW232837  10.610  11.889  12.359 -0.6019  0.2096  0.0754
42676SOL     OW32838  10.797  11.567   4.576  0.0574 -0.3310 -0.4076
42676SOL    HW132839  10.752  11.637   4.624  1.0700  0.0504  0.0044
42676SOL    HW232840  10.862  11.613   4.523  0.0162 -0.8844 -0.9455
42677SOL     OW32841   1.328  11.460  10.168 -0.4125  0.3624 -0.2908
42677SOL    HW132842   1.311  11.394  10.235  1.5436 -0.5691 -0.6443
42677SOL    HW232843   1.258  11.447  10.103 -0.9411 -0.3238  0.4024
42678SOL     OW32844  12.481   7.802   9.244 -0.1693 -0.2598  0.3549
42678SOL    HW132845  12.426   7.741   9.195 -0.1832 -0.5485  0.7311
42678SOL    HW232846  12.474   7.884   9.195 -0.3341 -0.4948 -0.0224
42679SOL     OW32847   4.598   5.758  11.430  0.2879 -0.5068  0.2854
42679SOL    HW132848   4.605   5.663  11.433 -2.2623 -0.7901 -0.6807
42679SOL    HW232849   4.574   5.779  11.340 -2.1002  0.7385  1.1085
42680SOL     OW32850   3.813   2.829   9.678  0.4274 -0.7501 -0.5369
42680SOL    HW132851   3.845   2.754   9.628  1.7288 -0.8046  0.3125
42680SOL    HW232852   3.718   2.818   9.681  0.5486 -2.0686 -0.8939
42681SOL     OW32853   9.010  12.170   4.042 -0.1899  0.3265  0.1812
42681SOL    HW132854   8.993  12.168   3.948  0.6620  0.7183  0.0052
42681SOL    HW232855   9.104  12.154   4.049 -0.5885 -2.0649  1.1058
42682SOL     OW32856   6.604  11.764  11.496 -0.2538 -0.1691  0.4039
42682SOL    HW132857   6.694  11.783  11.525  0.6015 -1.9109 -0.8888
42682SOL    HW232858   6.567  11.850  11.476  1.8178  0.4994 -0.8930
42683SOL     OW32859   5.693   6.165   8.125  0.4239 -0.0358  0.0465
42683SOL    HW132860   5.698   6.091   8.186 -1.6670 -0.2358  0.0373
42683SOL    HW232861   5.684   6.242   8.180  1.5160  0.1263  0.0257
42684SOL     OW32862  12.402   7.183   5.243  0.2967 -0.3401 -0.2742
42684SOL    HW132863  12.459   7.116   5.208  0.5031  0.1332 -0.8588
42684SOL    HW232864  12.351   7.213   5.168  0.4903  0.4296 -0.1071
42685SOL     OW32865   7.523  11.110   7.405 -0.5456  0.1364  0.4780
42685SOL    HW132866   7.485  11.022   7.394 -0.1725 -0.0574  0.7379
42685SOL    HW232867   7.604  11.107   7.355 -0.1326  0.0782  1.1458
42686SOL     OW32868   4.512   7.979   9.600 -0.2849  0.6620 -0.3030
42686SOL    HW132869   4.430   8.029   9.596  0.4642  2.0309  0.8727
42686SOL    HW232870   4.519   7.953   9.692  0.4765  0.3271 -0.4535
42687SOL     OW32871   8.452   5.966   6.896  0.1961 -0.0313 -0.2330
42687SOL    HW132872   8.437   6.052   6.935  0.2589 -0.2031  0.1741
42687SOL    HW232873   8.365   5.937   6.869  0.1678  0.1373 -0.3283
42688SOL     OW32874   9.613   0.447   4.583  0.2627  0.6155  0.0772
42688SOL    HW132875   9.688   0.483   4.536  0.3365  0.8047  0.3408
42688SOL    HW232876   9.544   0.513   4.573  0.2426  0.6039  0.1387
42689SOL     OW32877   8.919   4.622   5.963  0.1451  0.2866 -0.3949
42689SOL    HW132878   8.893   4.568   6.038  0.2689  0.7769  0.0049
42689SOL    HW232879   9.013   4.611   5.956  0.1556  0.3655 -0.3769
42690SOL     OW32880   6.102   0.992   3.247  0.7607 -0.2855  0.0608
42690SOL    HW132881   6.194   0.988   3.221  0.6912 -0.3965 -0.1673
42690SOL    HW232882   6.061   1.052   3.185  0.3192 -1.5697 -0.9318
42691SOL     OW32883   7.249   8.118   5.374  0.1947  0.7258 -0.2230
42691SOL    HW132884   7.190   8.189   5.401 -1.5446 -0.3721 -0.9477
42691SOL    HW232885   7.337   8.153   5.388 -0.6147  2.3960  1.0137
42692SOL     OW32886   6.335  12.392  10.729 -0.1922  0.3728  0.1627
42692SOL    HW132887   6.324  12.307  10.771  0.2491 -0.0982 -0.6458
42692SOL    HW232888   6.246  12.418  10.704 -0.3446  0.2208  0.5393
42693SOL     OW32889   4.611   4.864   6.799 -0.0612 -0.1638  0.0622
42693SOL    HW132890   4.602   4.916   6.719 -1.7167 -0.9001 -0.2538
42693SOL    HW232891   4.606   4.773   6.770  0.2326 -0.4642  0.9087
42694SOL     OW32892   2.368   6.757   9.592  0.1079  0.1368  0.3304
42694SOL    HW132893   2.434   6.775   9.659 -0.2629  2.5185  0.1260
42694SOL    HW232894   2.288   6.741   9.642  0.2921 -0.2569  0.5052
42695SOL     OW32895   2.074   1.210   3.018  0.0764 -0.0716 -0.2313
42695SOL    HW132896   2.091   1.135   2.960 -1.4012  0.2039 -1.0629
42695SOL    HW232897   1.979   1.215   3.022  0.1669  1.3460  0.3836
42696SOL     OW32898   6.924   0.681   3.233 -0.4249 -0.0598  0.3327
42696SOL    HW132899   6.930   0.628   3.313  1.6249 -0.4125  0.0177
42696SOL    HW232900   6.854   0.641   3.182  0.3380 -1.8160  0.5992
42697SOL     OW32901   5.917   7.232  10.606  0.4881 -0.0741  0.1193
42697SOL    HW132902   5.844   7.192  10.653 -0.5098 -0.8993 -1.9901
42697SOL    HW232903   5.974   7.158  10.584  0.7793  0.2523 -0.2215
42698SOL     OW32904   1.145  11.138   3.738  1.0819 -0.8943  0.1684
42698SOL    HW132905   1.126  11.217   3.687 -2.2715 -0.7980  1.3074
42698SOL    HW232906   1.119  11.066   3.682  0.4256 -0.9621  0.5555
42699SOL     OW32907   0.259   1.679   5.250 -0.2922  0.4463  0.5846
42699SOL    HW132908   0.226   1.660   5.338 -0.6136 -0.1378  0.3432
42699SOL    HW232909   0.354   1.687   5.261 -0.3267  0.3136  0.9747
42700SOL     OW32910   9.659   1.007   2.346 -0.1607  0.6095 -0.4068
42700SOL    HW132911   9.743   1.040   2.378  0.1358  0.8531 -1.3825
42700SOL    HW232912   9.676   0.916   2.322 -0.4649  0.3299  0.4269
42701SOL     OW32913   3.072   2.309   1.816  0.2715  0.3922  0.2667
42701SOL    HW132914   3.164   2.311   1.788 -0.0866 -0.1731 -1.0492
42701SOL    HW232915   3.023   2.290   1.736 -1.0729  1.5031  0.7879
42702SOL     OW32916   3.264  10.399   3.137  0.2884  0.1012  0.6991
42702SOL    HW132917   3.332  10.346   3.179 -0.0562  0.4210  1.6798
42702SOL    HW232918   3.242  10.349   3.058  0.1880 -1.0831  1.4418
42703SOL     OW32919   7.237   7.857   7.345 -0.5334  0.2065 -0.2135
42703SOL    HW132920   7.306   7.910   7.306 -0.7324  0.5440 -0.1140
42703SOL    HW232921   7.281   7.806   7.412 -0.2173 -0.2596 -0.7673
42704SOL     OW32922   0.792   1.553   4.982  0.1549  0.1718  0.8394
42704SOL    HW132923   0.744   1.472   4.999 -0.3918  0.1748 -0.5645
42704SOL    HW232924   0.745   1.594   4.909  2.0824  0.3483 -0.3585
42705SOL     OW32925   0.308   6.793   7.458 -0.6937 -0.2685 -0.4744
42705SOL    HW132926   0.308   6.819   7.550 -0.7290  0.1550 -0.5899
42705SOL    HW232927   0.216   6.787   7.434 -0.7186  1.6729 -1.0320
42706SOL     OW32928   2.293   8.521   1.234 -0.4786 -0.3729  0.1933
42706SOL    HW132929   2.373   8.546   1.281 -0.5546  0.6874 -0.2088
42706SOL    HW232930   2.316   8.439   1.190  0.5732  0.1782 -0.3323
42707SOL     OW32931   4.433   2.646   1.131  0.4008 -0.3172 -0.5624
42707SOL    HW132932   4.401   2.725   1.174  0.7492 -0.0845 -0.7321
42707SOL    HW232933   4.353   2.605   1.095  0.2211 -0.0430 -0.4792
42708SOL     OW32934   7.471  10.765   7.094 -0.1734 -0.2524  0.8945
42708SOL    HW132935   7.377  10.776   7.084 -0.1066  1.8179  2.0016
42708SOL    HW232936   7.485  10.767   7.189  1.1053  0.8782  0.7109
42709SOL     OW32937   2.616   3.615   6.670  0.4703  0.3456 -0.1972
42709SOL    HW132938   2.546   3.566   6.714  0.3161  1.6314  1.0731
42709SOL    HW232939   2.583   3.704   6.664  0.9167  0.4282 -2.0999
42710SOL     OW32940   2.679   7.334   6.159 -0.0847 -0.1994  0.4938
42710SOL    HW132941   2.597   7.379   6.137  0.3013  0.1492 -0.2883
42710SOL    HW232942   2.739   7.405   6.181  0.8517 -0.1871 -1.8138
42711SOL     OW32943   7.661   0.265   8.376  0.9206  0.1821 -0.4299
42711SOL    HW132944   7.613   0.182   8.373 -3.0171  2.1768  0.4698
42711SOL    HW232945   7.658   0.298   8.286  0.8336  0.1945 -0.4220
42712SOL     OW32946   7.983  11.654   4.291  0.8055  0.2257  0.5484
42712SOL    HW132947   7.916  11.661   4.360 -0.3716 -0.2917 -0.5089
42712SOL    HW232948   8.047  11.721   4.313 -0.1516  0.8624  1.4945
42713SOL     OW32949   2.786   4.604   7.935 -0.0832 -0.0809  0.0391
42713SOL    HW132950   2.725   4.678   7.931 -0.6315 -0.5692 -0.7929
42713SOL    HW232951   2.739   4.531   7.895  0.2774 -1.0187  1.2408
42714SOL     OW32952   2.744   4.350   4.682  0.7004 -0.2555  0.5381
42714SOL    HW132953   2.818   4.368   4.739  0.1959  2.5648  0.4315
42714SOL    HW232954   2.737   4.427   4.626 -0.5519 -1.7126 -1.4542
42715SOL     OW32955   4.976  11.848  11.532 -0.0243  0.1632  0.6545
42715SOL    HW132956   5.013  11.911  11.593 -0.2647  0.0417  0.9279
42715SOL    HW232957   5.051  11.808  11.489  0.1241  1.2088 -0.1134
42716SOL     OW32958  11.488   7.562   9.861 -0.1642  0.1690  0.0726
42716SOL    HW132959  11.537   7.506   9.801  0.4427  0.4203  0.3216
42716SOL    HW232960  11.396   7.544   9.842  0.0029  0.8610 -1.4994
42717SOL     OW32961   1.408   6.432   9.059 -0.3332  0.0062  0.0122
42717SOL    HW132962   1.408   6.378   9.138 -0.3375 -1.8205 -1.1786
42717SOL    HW232963   1.328   6.408   9.013  0.1964  0.2523 -1.0691
42718SOL     OW32964   7.883  11.541   9.143 -0.1493  0.1476 -0.0771
42718SOL    HW132965   7.800  11.535   9.096 -0.5220  2.3875  0.1860
42718SOL    HW232966   7.948  11.562   9.076 -0.0405 -0.1981 -0.0823
42719SOL     OW32967   8.258   8.753   5.774  0.4875  0.7164 -0.1533
42719SOL    HW132968   8.201   8.826   5.798  0.5831  0.9488 -0.6257
42719SOL    HW232969   8.330   8.757   5.837  0.8155  1.4101 -0.5631
42720SOL     OW32970   2.617   6.202   3.664  0.5989  0.0208 -0.4949
42720SOL    HW132971   2.662   6.282   3.692 -0.8348  1.2211 -1.4634
42720SOL    HW232972   2.574   6.170   3.742  0.8022  0.4677 -0.1921
42721SOL     OW32973   1.191   9.806   9.413 -0.5067  0.4436  0.3451
42721SOL    HW132974   1.172   9.739   9.347  1.4881  0.0330  0.1471
42721SOL    HW232975   1.165   9.888   9.371  1.7811  0.3266 -1.4928
42722SOL     OW32976   4.470   8.663   5.093  0.2389 -0.0209  0.2309
42722SOL    HW132977   4.443   8.749   5.126 -0.1646  0.2779 -0.8270
42722SOL    HW232978   4.507   8.619   5.169  0.9575  1.2901  0.6701
42723SOL     OW32979  10.630  11.107   7.920 -0.5749  0.1239  0.1327
42723SOL    HW132980  10.689  11.129   7.848  1.3692  0.0397  1.6131
42723SOL    HW232981  10.688  11.078   7.990 -2.2924  1.1716  2.1050
42724SOL     OW32982   8.134   9.722   0.193 -0.5124  0.0634 -0.0396
42724SOL    HW132983   8.068   9.742   0.259 -1.6054  0.6903 -1.2920
42724SOL    HW232984   8.199   9.792   0.203  0.3999 -0.9474  1.6722
42725SOL     OW32985   1.647   5.312  10.727 -0.0436  0.1636  0.1773
42725SOL    HW132986   1.615   5.282  10.812 -0.4060 -2.7985 -0.9123
42725SOL    HW232987   1.716   5.251  10.704 -0.5220  0.3832 -2.0313
42726SOL     OW32988  11.734  10.151   9.600  0.3300  0.4011 -0.6635
42726SOL    HW132989  11.808  10.146   9.539  0.6737  0.8409 -0.2910
42726SOL    HW232990  11.684  10.071   9.583  0.5974  0.3575 -1.2929
42727SOL     OW32991  12.031   9.656   8.797 -0.1352  0.3142  0.5263
42727SOL    HW132992  12.071   9.600   8.864 -2.0329  0.3029  1.7093
42727SOL    HW232993  12.082   9.637   8.717  2.9479  1.1689  2.1142
42728SOL     OW32994   9.594   3.492   5.768  0.0371 -0.0405 -0.0682
42728SOL    HW132995   9.515   3.451   5.733 -0.3372  0.6171 -0.0070
42728SOL    HW232996   9.572   3.585   5.774  1.2249  0.3629 -1.2566
42729SOL     OW32997   2.515   2.685  11.648 -0.4647 -0.6909  0.2086
42729SOL    HW132998   2.569   2.674  11.570  0.3895  1.0514  0.4879
42729SOL    HW232999   2.447   2.746  11.621 -0.0191  0.1207  0.8490
42730SOL     OW33000  11.783   4.259  11.871 -0.5172  0.2495  0.4953
42730SOL    HW133001  11.793   4.214  11.954 -1.4307 -2.4129 -0.7446
42730SOL    HW233002  11.757   4.191  11.809 -3.2863  2.6949 -1.2695
42731SOL     OW33003   6.031   5.164   3.298 -0.3393 -0.7633 -0.3433
42731SOL    HW133004   6.026   5.192   3.207  0.3815 -1.1048 -0.4958
42731SOL    HW233005   5.974   5.225   3.345 -0.2319 -0.1963 -0.9301
42732SOL     OW33006   2.559   5.203  10.092 -0.3751 -0.1038  0.0427
42732SOL    HW133007   2.530   5.232  10.005  0.0088  0.5760  0.1274
42732SOL    HW233008   2.592   5.283  10.133 -1.4062 -0.2355  1.1656
42733SOL     OW33009   4.087   2.273   4.540 -0.4841 -0.2237 -0.4052
42733SOL    HW133010   4.173   2.233   4.528  0.5149  0.0502  4.1881
42733SOL    HW233011   4.045   2.220   4.608 -3.0745  0.9828 -0.9466
42734SOL     OW33012   8.728   1.097   6.143 -0.2272  0.1703  0.1514
42734SOL    HW133013   8.688   1.145   6.216  0.3073  1.9966 -0.6884
42734SOL    HW233014   8.761   1.166   6.085  1.1371 -1.2548 -0.8317
42735SOL     OW33015   5.564   4.345   7.179  0.0222  0.3584 -0.0218
42735SOL    HW133016   5.473   4.332   7.151  0.2005  0.8347 -0.8529
42735SOL    HW233017   5.606   4.390   7.106  0.2522  2.5958  1.3775
42736SOL     OW33018  10.141   9.985   3.226 -0.2250  0.3628 -0.7674
42736SOL    HW133019  10.236   9.996   3.225 -0.2932  1.0040 -0.5470
42736SOL    HW233020  10.114  10.020   3.311 -0.4564 -1.6326  0.0205
42737SOL     OW33021   7.911   8.841   0.914  0.5093  0.7173 -0.5486
42737SOL    HW133022   7.838   8.784   0.889  1.6304 -1.5013  0.9380
42737SOL    HW233023   7.988   8.800   0.875  1.4898  0.5806  1.4158
42738SOL     OW33024  10.530   9.485   3.009 -0.2721 -0.2762 -0.4728
42738SOL    HW133025  10.521   9.549   3.080 -0.4712 -0.4893 -0.3067
42738SOL    HW233026  10.497   9.532   2.932 -0.0127 -0.0297 -0.4376
42739SOL     OW33027   3.404   4.215   8.717  0.3255  0.5293  0.2430
42739SOL    HW133028   3.338   4.268   8.670  0.7296  2.0313  1.2763
42739SOL    HW233029   3.484   4.267   8.711  1.0085 -0.4963  0.4029
42740SOL     OW33030   5.499  11.605   3.067 -0.1303 -0.2357  0.0531
42740SOL    HW133031   5.538  11.581   3.152 -1.8759  0.8169  1.2177
42740SOL    HW233032   5.563  11.664   3.028  0.5936 -0.5433  0.7308
42741SOL     OW33033   5.175   5.460   9.783  0.0688 -0.1459  0.1579
42741SOL    HW133034   5.169   5.487   9.692 -1.8845  1.3530  0.6449
42741SOL    HW233035   5.110   5.389   9.791 -1.3374  1.1392  0.7612
42742SOL     OW33036   0.558   0.082   7.374 -0.0398  0.5775 -0.0273
42742SOL    HW133037   0.469   0.065   7.345  0.2279  0.6735 -0.9180
42742SOL    HW233038   0.578   0.009   7.433 -0.7993  0.7108  0.4018
42743SOL     OW33039  11.097  10.633   8.365 -0.0939 -0.1600 -0.3382
42743SOL    HW133040  11.127  10.658   8.452 -0.0998  0.8215 -0.6032
42743SOL    HW233041  11.152  10.558   8.341  1.3900  0.8797 -0.3483
42744SOL     OW33042   3.972   9.079   9.010  0.0454  0.4727 -0.7558
42744SOL    HW133043   3.938   9.152   8.958 -1.1056 -0.5569 -1.4851
42744SOL    HW233044   4.065   9.100   9.023 -0.0821  1.6631 -1.6257
42745SOL     OW33045   3.393   1.122   0.211  0.0302  0.0830  0.4126
42745SOL    HW133046   3.450   1.133   0.287  0.6533 -1.0278  0.1229
42745SOL    HW233047   3.357   1.210   0.195  1.7845  0.8613  0.5045
42746SOL     OW33048   5.604   2.622  11.429  0.7813 -0.1672 -0.1623
42746SOL    HW133049   5.598   2.527  11.423 -2.7518 -0.1103  0.4025
42746SOL    HW233050   5.610   2.651  11.338  2.4075 -0.8699 -0.3194
42747SOL     OW33051   3.731   6.793  12.097 -0.3606 -0.2543 -0.0163
42747SOL    HW133052   3.745   6.834  12.182 -0.8285 -2.6900  1.3506
42747SOL    HW233053   3.636   6.783  12.090 -0.3755  0.5122 -1.1538
42748SOL     OW33054   9.396   9.030   0.327 -0.0714  0.4148  0.2890
42748SOL    HW133055   9.314   9.048   0.375 -0.2484 -1.5247  0.8188
42748SOL    HW233056   9.465   9.066   0.383 -0.1937 -2.6505  2.6414
42749SOL     OW33057   8.291   9.175   8.118 -0.1257 -0.2974  0.2567
42749SOL    HW133058   8.365   9.230   8.092  0.3937 -0.7282  0.7905
42749SOL    HW233059   8.237   9.232   8.173  0.0755 -0.1291  0.2813
42750SOL     OW33060   8.114  10.840   8.463  0.0448  0.5831 -0.4262
42750SOL    HW133061   8.119  10.899   8.387  0.9643 -0.0782 -0.8882
42750SOL    HW233062   8.136  10.896   8.537  1.7561  0.6686 -0.9533
42751SOL     OW33063   9.547  11.805   2.389 -0.3483 -0.0504  0.7964
42751SOL    HW133064   9.551  11.846   2.303  0.1750 -3.0061 -0.7073
42751SOL    HW233065   9.477  11.741   2.382 -0.4534 -0.1994  2.6717
42752SOL     OW33066   8.790   2.730   5.068 -0.1569 -0.3062 -0.5359
42752SOL    HW133067   8.753   2.815   5.043  0.5723  0.2401  0.1414
42752SOL    HW233068   8.881   2.734   5.037  0.4513 -0.0419  1.1577
42753SOL     OW33069  10.351   2.990  10.091  0.0467 -0.0791  0.3776
42753SOL    HW133070  10.382   3.078  10.114  2.6926 -1.0138  0.8216
42753SOL    HW233071  10.413   2.931  10.135 -0.4896 -2.1321 -1.4600
42754SOL     OW33072   4.359   4.734   1.981 -0.4942  0.0245 -0.0384
42754SOL    HW133073   4.432   4.681   2.013  0.3601  1.5698  0.7071
42754SOL    HW233074   4.320   4.770   2.060 -0.2910  1.4487 -0.5657
42755SOL     OW33075  11.622  11.472   3.610 -0.3296  0.9383  0.5656
42755SOL    HW133076  11.660  11.441   3.691 -1.4556 -1.7331  0.1674
42755SOL    HW233077  11.528  11.467   3.624 -0.5422  0.9911 -0.7141
42756SOL     OW33078  12.604   9.368   9.627 -0.0607 -0.0273 -0.2833
42756SOL    HW133079  12.673   9.434   9.622  1.1172 -1.1392  0.5335
42756SOL    HW233080  12.649   9.285   9.612 -0.9493 -0.9077  1.5291
42757SOL     OW33081   4.371   5.117   5.513 -0.2383 -0.9863 -0.1169
42757SOL    HW133082   4.387   5.182   5.582  0.0422 -0.7108 -0.4355
42757SOL    HW233083   4.278   5.094   5.523 -0.4392 -0.2542 -0.2305
42758SOL     OW33084   5.555   2.416   7.361  0.0405 -0.7660 -0.0665
42758SOL    HW133085   5.543   2.499   7.314 -1.3527 -0.0588  1.4409
42758SOL    HW233086   5.466   2.381   7.369  0.4734 -1.7692  0.4513
42759SOL     OW33087   2.550   5.283   3.241  0.1317  0.1466  0.2928
42759SOL    HW133088   2.616   5.310   3.304 -0.6842 -0.7423  1.5693
42759SOL    HW233089   2.598   5.235   3.174  0.8982  0.3303  0.7022
42760SOL     OW33090   6.002   1.897   9.749  0.2848  0.5664  0.3941
42760SOL    HW133091   6.093   1.899   9.720 -0.0820 -1.0577 -1.0045
42760SOL    HW233092   5.961   1.969   9.702  0.4462  0.0871 -0.5105
42761SOL     OW33093   5.037  11.634  11.120  0.4536 -0.7852  0.0817
42761SOL    HW133094   5.002  11.687  11.191  2.8656 -0.8158  1.3976
42761SOL    HW233095   4.966  11.574  11.097 -1.9304  2.0226 -0.5769
42762SOL     OW33096   9.974  11.591   2.880 -0.0352  0.0504  0.2314
42762SOL    HW133097   9.936  11.568   2.795  0.1300 -0.8597  0.3921
42762SOL    HW233098   9.928  11.671   2.906 -1.4012 -0.6611  0.1283
42763SOL     OW33099   4.970   6.926   6.397  0.5683  0.5014  0.2728
42763SOL    HW133100   4.925   6.850   6.359 -0.1582  2.0097 -2.1105
42763SOL    HW233101   4.932   6.935   6.484 -0.1203 -1.1924  0.1892
42764SOL     OW33102   8.268   5.619   2.529  0.2383  0.2600 -0.1157
42764SOL    HW133103   8.294   5.697   2.578  1.5488  0.1804 -0.6365
42764SOL    HW233104   8.173   5.623   2.528  0.1975  0.7954  1.5526
42765SOL     OW33105   2.624   0.163   3.591  0.6419  0.0820  0.2254
42765SOL    HW133106   2.593   0.138   3.504  1.4272  0.7151 -0.2436
42765SOL    HW233107   2.710   0.123   3.599  0.4580 -0.2002  0.8229
42766SOL     OW33108  12.131   8.141  12.302 -0.3325 -0.0238  0.6876
42766SOL    HW133109  12.183   8.063  12.280 -0.0626  0.0405  1.0906
42766SOL    HW233110  12.122   8.137  12.397 -1.1270 -0.0709  0.6172
42767SOL     OW33111   5.717   3.815   6.350  0.3887 -0.4713  0.0090
42767SOL    HW133112   5.742   3.744   6.291 -0.2747  0.9767 -2.1122
42767SOL    HW233113   5.628   3.792   6.378  0.4356 -0.7951 -0.0966
42768SOL     OW33114   9.427   0.141   2.798  0.0295  0.8765  0.1063
42768SOL    HW133115   9.420   0.169   2.707 -0.0154 -1.2821 -0.5922
42768SOL    HW233116   9.491   0.071   2.798  0.2496  1.0222  1.8067
42769SOL     OW33117   7.565   1.587   6.539 -0.1914  0.0652  0.0364
42769SOL    HW133118   7.628   1.527   6.579 -0.0891  0.6276  0.7405
42769SOL    HW233119   7.506   1.610   6.610 -0.6522  0.2506 -0.4023
42770SOL     OW33120  10.979   1.917   6.927 -0.0289  0.2930  0.2291
42770SOL    HW133121  11.063   1.911   6.974 -0.5835  0.5284  1.2742
42770SOL    HW233122  10.948   2.006   6.945 -0.0732  0.5213 -0.9231
42771SOL     OW33123   1.621   1.249  11.180 -0.0356  0.2583 -0.0210
42771SOL    HW133124   1.625   1.154  11.167  0.1999  0.3254 -0.4703
42771SOL    HW233125   1.547   1.277  11.127 -1.1912  0.1215  1.4512
42772SOL     OW33126   8.999   7.887   2.571 -0.2441  0.3781 -0.2565
42772SOL    HW133127   8.962   7.964   2.614  1.5677  0.6930  0.8257
42772SOL    HW233128   9.093   7.890   2.591 -0.2842 -2.8691  1.0467
42773SOL     OW33129   7.167   5.128  10.472  0.0129  0.0808  0.5585
42773SOL    HW133130   7.192   5.146  10.381 -0.5218 -1.1898  0.1409
42773SOL    HW233131   7.247   5.142  10.522  0.5644 -0.1492 -0.2397
42774SOL     OW33132   8.127   9.607   1.270 -0.3812 -0.3021  0.1333
42774SOL    HW133133   8.042   9.650   1.281 -0.5920 -0.4388 -0.8754
42774SOL    HW233134   8.108   9.513   1.280 -0.4714 -0.3814 -0.7081
42775SOL     OW33135   4.354   0.669  11.315  0.0477  0.1555  0.1583
42775SOL    HW133136   4.335   0.738  11.251 -0.3089 -0.7659 -0.7623
42775SOL    HW233137   4.414   0.710  11.377 -1.9993  2.0228  1.0414
42776SOL     OW33138  11.618   6.175   5.361 -0.0956  0.8175 -0.5575
42776SOL    HW133139  11.682   6.111   5.329  1.8215  1.5890  1.4862
42776SOL    HW233140  11.627   6.250   5.302  0.7691  0.8416 -0.4098
42777SOL     OW33141  12.562  10.521   3.548 -0.2713 -0.7524  0.1308
42777SOL    HW133142  12.556  10.549   3.457  0.1016  1.4083  0.7100
42777SOL    HW233143  12.474  10.491   3.570 -0.4248 -1.0545 -0.8526
42778SOL     OW33144   9.423   3.154  12.027 -0.4699 -0.5332  0.2556
42778SOL    HW133145   9.435   3.242  11.991 -1.2081 -0.4467  0.2160
42778SOL    HW233146   9.509   3.130  12.061 -0.2887  0.2400  0.3476
42779SOL     OW33147  11.405   1.756  10.404 -0.1186 -0.2903 -0.2886
42779SOL    HW133148  11.497   1.768  10.383 -0.4062  1.6266 -0.5670
42779SOL    HW233149  11.404   1.730  10.496  0.6918 -0.3847 -0.3038
42780SOL     OW33150   7.546   8.206   0.745 -0.7267 -0.4059  0.2841
42780SOL    HW133151   7.493   8.237   0.819  3.0824  1.3848  2.5649
42780SOL    HW233152   7.555   8.282   0.688 -0.0695 -0.4609  0.3067
42781SOL     OW33153  11.764   3.497   9.504 -0.2530  0.6187  0.5009
42781SOL    HW133154  11.828   3.567   9.490 -0.1673  0.4264 -0.0914
42781SOL    HW233155  11.725   3.517   9.589 -0.3844  1.5166  0.2394
42782SOL     OW33156   8.657   7.237  11.083  0.4399  0.3823 -0.3830
42782SOL    HW133157   8.579   7.244  11.139  0.8423 -0.5167  0.3196
42782SOL    HW233158   8.700   7.157  11.112  0.8605  0.0830 -1.7551
42783SOL     OW33159   9.015  10.302   5.048  0.9581  0.2154 -0.0224
42783SOL    HW133160   8.950  10.358   5.004  1.5976  0.1926 -1.0324
42783SOL    HW233161   8.983  10.295   5.138 -1.1946 -0.9525 -0.8104
42784SOL     OW33162  10.650   6.728   1.100  0.1192  0.2229  0.0253
42784SOL    HW133163  10.557   6.745   1.088 -0.0061 -0.9205 -0.8313
42784SOL    HW233164  10.694   6.792   1.044 -0.0844  1.5624  1.3600
42785SOL     OW33165   7.768   4.161   4.473  0.3175 -0.2376  0.0749
42785SOL    HW133166   7.790   4.175   4.565 -0.8642  1.1095  0.1854
42785SOL    HW233167   7.727   4.074   4.471  3.1922 -1.7012  0.2503
42786SOL     OW33168  12.011   0.855   1.124 -0.7796 -0.3532  0.3714
42786SOL    HW133169  12.036   0.763   1.125 -0.8171 -0.4904 -2.6646
42786SOL    HW233170  11.925   0.857   1.083 -2.6347  0.8189  3.8718
42787SOL     OW33171   3.020   7.529   7.749  0.2826  0.1838  0.2641
42787SOL    HW133172   2.989   7.464   7.685  0.9476  1.6162 -1.6217
42787SOL    HW233173   2.944   7.545   7.805  0.3951 -2.8950  1.4535
42788SOL     OW33174  11.608   2.950   8.334 -0.8393 -0.0027 -0.6922
42788SOL    HW133175  11.644   2.896   8.404  0.5186  0.5615 -0.9047
42788SOL    HW233176  11.518   2.968   8.360 -0.5197 -0.2488  0.6280
42789SOL     OW33177   2.420   3.656   9.459  0.0557 -0.2173 -0.8110
42789SOL    HW133178   2.446   3.572   9.422 -1.4661 -0.8499 -0.5357
42789SOL    HW233179   2.425   3.644   9.553  1.5492  0.6008 -0.7582
42790SOL     OW33180  10.751  11.827  12.621  0.2013  0.1179 -0.2870
42790SOL    HW133181  10.759  11.849  12.714 -2.7312  0.6851 -0.0757
42790SOL    HW233182  10.783  11.737  12.615  0.1015 -0.0579  1.3642
42791SOL     OW33183   8.222   7.060  10.624 -0.1237  0.1513  0.0778
42791SOL    HW133184   8.211   7.102  10.539  0.3075 -0.8467 -0.4907
42791SOL    HW233185   8.312   7.081  10.650  0.6917 -1.7432 -0.9999
42792SOL     OW33186   1.237   7.784   1.827 -0.2448 -0.3896 -0.1005
42792SOL    HW133187   1.211   7.757   1.915  0.5847  0.5954  0.4637
42792SOL    HW233188   1.163   7.758   1.771  0.8557 -4.8223  0.1426
42793SOL     OW33189   2.323  11.772   2.612  0.0194 -0.9863 -0.9816
42793SOL    HW133190   2.277  11.854   2.594 -1.7057 -2.1517 -2.1492
42793SOL    HW233191   2.269  11.727   2.677  0.7144 -1.3748 -0.6655
42794SOL     OW33192   1.283   1.176  11.842 -0.0435  0.5806  0.3540
42794SOL    HW133193   1.363   1.146  11.801 -0.7793  1.1785 -1.6237
42794SOL    HW233194   1.312   1.226  11.919  1.2997 -1.8360  1.5134
42795SOL     OW33195   2.561  10.682   9.213  0.1927 -0.0309 -0.3750
42795SOL    HW133196   2.600  10.671   9.300  0.1534  0.8768 -0.2348
42795SOL    HW233197   2.568  10.595   9.173  0.7685 -0.3097  0.2991
42796SOL     OW33198  11.933   3.869   3.638  0.2631 -0.1806  0.1912
42796SOL    HW133199  12.003   3.915   3.685 -1.2841  0.9526  1.4946
42796SOL    HW233200  11.978   3.796   3.595  2.4086  1.0704  0.1254
42797SOL     OW33201  10.796  11.284   1.028  0.1041  0.9191  0.0509
42797SOL    HW133202  10.879  11.251   1.064  0.1190  0.6915 -0.1812
42797SOL    HW233203  10.782  11.230   0.949 -1.3857 -0.6021  1.2749
42798SOL     OW33204   5.449  12.087   0.168  0.3496  0.1732  0.1383
42798SOL    HW133205   5.392  12.019   0.204  1.6761 -0.6144  0.8499
42798SOL    HW233206   5.389  12.153   0.132 -1.0383  0.1665  2.2700
42799SOL     OW33207   0.810   4.961   0.133 -0.1415  0.4954 -0.4882
42799SOL    HW133208   0.862   4.916   0.067 -1.8203 -0.9118 -0.9245
42799SOL    HW233209   0.870   4.972   0.207  1.1304  0.1008 -1.4278
42800SOL     OW33210   1.611   8.475   3.181  0.4467  0.1676 -0.3295
42800SOL    HW133211   1.665   8.552   3.198  1.8330 -0.8231 -0.0438
42800SOL    HW233212   1.584   8.485   3.090  2.3644 -0.0008 -0.9746
42801SOL     OW33213   8.607  10.086   2.393  0.3270  0.8969 -0.5026
42801SOL    HW133214   8.534  10.089   2.331  0.7246 -1.3135 -1.1574
42801SOL    HW233215   8.682  10.061   2.340  0.6293 -1.3276  0.8726
42802SOL     OW33216   7.997   3.600  12.078  0.2991  0.1557 -0.2391
42802SOL    HW133217   7.996   3.669  12.144  0.7045 -0.8462  0.8573
42802SOL    HW233218   7.926   3.541  12.104 -0.0666  0.1656 -1.1790
42803SOL     OW33219   7.178   8.573   7.590  0.1078  0.3071  0.2757
42803SOL    HW133220   7.228   8.546   7.667 -1.0252 -0.1768  0.8780
42803SOL    HW233221   7.148   8.491   7.551 -0.7759  0.5903  0.3321
42804SOL     OW33222   2.164  11.651   5.675  0.4299  0.0941  0.3767
42804SOL    HW133223   2.222  11.575   5.664 -0.8858 -0.7951 -0.7285
42804SOL    HW233224   2.176  11.702   5.595  1.0868  0.9438  0.9870
42805SOL     OW33225   1.178   1.978  12.294  0.2115  0.4352 -0.5077
42805SOL    HW133226   1.085   1.959  12.291  0.4056 -0.6842 -0.0677
42805SOL    HW233227   1.194   2.007  12.384  0.2628  0.8363 -0.6415
42806SOL     OW33228   3.659   4.286   6.394  0.2112 -0.4627 -0.1410
42806SOL    HW133229   3.734   4.339   6.423  1.6691 -1.7272 -1.3995
42806SOL    HW233230   3.675   4.199   6.432 -1.3336 -0.4439  0.6281
42807SOL     OW33231   7.241   3.155   7.595 -0.4751  0.0076 -0.4620
42807SOL    HW133232   7.183   3.166   7.520 -1.3032  0.1328  0.1823
42807SOL    HW233233   7.234   3.062   7.618 -2.4088  0.4756  1.1483
42808SOL     OW33234   9.542   9.587   8.157 -0.1354  0.0248  0.4021
42808SOL    HW133235   9.483   9.655   8.124  0.4476  1.3031  1.8718
42808SOL    HW233236   9.598   9.566   8.083 -0.8569  0.5479 -0.3115
42809SOL     OW33237  10.306   9.788   7.600 -0.3577 -0.7415  0.4551
42809SOL    HW133238  10.275   9.699   7.614 -2.0102 -0.5390 -1.4863
42809SOL    HW233239  10.230   9.844   7.617 -0.0916  0.0734 -0.8435
42810SOL     OW33240   6.688   6.723   2.385 -0.1338 -0.5047  0.6703
42810SOL    HW133241   6.730   6.806   2.407  0.0633 -0.3058 -0.4077
42810SOL    HW233242   6.594   6.745   2.382 -0.1023 -0.3714  0.6200
42811SOL     OW33243   2.276   8.086   2.221  0.4631 -0.3874 -0.3245
42811SOL    HW133244   2.279   8.022   2.150  3.1831 -2.3267  1.3023
42811SOL    HW233245   2.226   8.042   2.290  1.8625 -0.6204  0.5937
42812SOL     OW33246   1.767   5.363   1.125  0.2729 -0.2607 -0.1179
42812SOL    HW133247   1.784   5.450   1.162  0.7195 -0.7308  0.8151
42812SOL    HW233248   1.715   5.319   1.192 -1.3060 -0.1960 -1.2545
42813SOL     OW33249   8.562   3.022   2.911  0.2362 -0.4792  0.1688
42813SOL    HW133250   8.613   2.969   2.972  0.8744 -2.0015 -1.5821
42813SOL    HW233251   8.487   3.052   2.962  1.1269 -1.0392  1.8838
42814SOL     OW33252   4.692   3.299   1.329 -0.0870  0.1051  0.7567
42814SOL    HW133253   4.769   3.348   1.358 -0.8642  1.7576  0.2021
42814SOL    HW233254   4.660   3.349   1.254 -0.4553 -1.7831 -0.3846
42815SOL     OW33255  10.249   1.879   5.371 -0.3624 -0.5003 -0.6724
42815SOL    HW133256  10.260   1.798   5.321 -1.5702 -1.3930  0.4451
42815SOL    HW233257  10.328   1.886   5.424 -0.7722 -1.5827  0.0902
42816SOL     OW33258   9.788  12.473   6.455  0.2324  0.2867  0.6780
42816SOL    HW133259   9.827  12.547   6.407 -0.9080  0.4698 -0.0227
42816SOL    HW233260   9.764  12.510   6.540  1.8556  0.0814  1.2386
42817SOL     OW33261   5.189   2.291   2.403 -0.0518 -0.0240 -0.0411
42817SOL    HW133262   5.274   2.306   2.361 -1.1034 -0.0095 -2.3563
42817SOL    HW233263   5.135   2.365   2.376 -1.2996 -0.9240 -0.1170
42818SOL     OW33264   8.273   8.329  10.086  0.5452 -0.4030 -0.4608
42818SOL    HW133265   8.213   8.351  10.014  1.3103  0.6760 -0.8026
42818SOL    HW233266   8.270   8.234  10.091 -1.5110 -0.3714 -0.1852
42819SOL     OW33267  12.627   3.456   2.060 -0.3691 -0.4129 -0.4343
42819SOL    HW133268  12.585   3.491   1.982  0.8934  1.0536 -0.5058
42819SOL    HW233269  12.683   3.385   2.027  0.5595  0.5408 -0.9683
42820SOL     OW33270   1.380  10.934   7.986 -0.4396 -0.3998 -0.3037
42820SOL    HW133271   1.377  10.942   8.081  3.0524 -0.3818 -0.0726
42820SOL    HW233272   1.353  10.844   7.968 -0.7034 -0.5324  0.7447
42821SOL     OW33273   9.396   9.757   3.667 -0.4435  0.4688  0.2954
42821SOL    HW133274   9.391   9.811   3.588  1.2278  0.1576 -0.0544
42821SOL    HW233275   9.307   9.724   3.679 -1.0719  1.7697 -0.5602
42822SOL     OW33276  11.600  11.691   6.155  0.4157  0.2770 -0.1275
42822SOL    HW133277  11.561  11.682   6.068  0.1865 -1.3961  0.1262
42822SOL    HW233278  11.683  11.644   6.150  0.1451 -0.3073  0.7162
42823SOL     OW33279   0.698   8.520   7.325  0.4031 -0.4883  0.8774
42823SOL    HW133280   0.691   8.439   7.274  1.9036 -0.8095  1.1507
42823SOL    HW233281   0.704   8.491   7.416 -1.3074  0.0508  1.2099
42824SOL     OW33282   8.203   0.993   4.166 -0.1002  0.3589  0.5022
42824SOL    HW133283   8.236   1.079   4.141  0.4938 -0.5121 -2.0372
42824SOL    HW233284   8.115   0.990   4.128  0.3873 -0.5887 -0.6187
42825SOL     OW33285  10.032   4.929  12.126 -0.3406 -0.0649 -0.1939
42825SOL    HW133286  10.101   4.995  12.134 -0.2705 -0.2033  0.3339
42825SOL    HW233287   9.951   4.976  12.143 -0.1375 -0.5360  2.4582
42826SOL     OW33288   8.556   6.236   7.577  0.0812 -0.4361 -0.2105
42826SOL    HW133289   8.585   6.265   7.491  0.1823  0.1289  0.0103
42826SOL    HW233290   8.596   6.298   7.639 -1.7448  0.5171  0.0888
42827SOL     OW33291   9.687   0.917   6.340 -0.4565  0.4906  0.2088
42827SOL    HW133292   9.620   0.903   6.273 -0.5310 -2.0375  0.7105
42827SOL    HW233293   9.747   0.844   6.330  1.9494  2.3385  0.1943
42828SOL     OW33294   2.905   6.505   8.563 -0.6398 -0.1015  0.1598
42828SOL    HW133295   2.902   6.453   8.644  1.7934 -0.1941  0.2493
42828SOL    HW233296   2.916   6.595   8.593 -1.6323  0.1040 -0.0624
42829SOL     OW33297   6.018  11.725  10.026 -0.6564 -0.2979  0.7899
42829SOL    HW133298   6.078  11.681   9.965  1.0185  0.7966  1.5682
42829SOL    HW233299   6.064  11.724  10.110 -1.0699  1.8296  1.1001
42830SOL     OW33300  12.424  10.591  11.325  0.1881  0.4144 -0.3786
42830SOL    HW133301  12.486  10.550  11.264  1.6327  3.1536 -0.8993
42830SOL    HW233302  12.457  10.566  11.412  1.3502  0.8469 -0.6707
42831SOL     OW33303   5.656   5.255   7.243 -0.3793  0.0241 -0.2998
42831SOL    HW133304   5.698   5.179   7.282 -2.0228 -0.2785  0.9953
42831SOL    HW233305   5.685   5.329   7.298  0.7115  0.2821 -1.1755
42832SOL     OW33306   4.136   2.960  10.534 -0.8325 -0.2492 -0.0158
42832SOL    HW133307   4.164   2.869  10.549  0.7825 -0.0948 -1.7323
42832SOL    HW233308   4.098   2.987  10.617  3.4349 -0.7986  2.4494
42833SOL     OW33309   9.330   1.141   9.189  0.1201  0.4945 -0.0208
42833SOL    HW133310   9.238   1.113   9.186  0.5148 -1.2065  1.6966
42833SOL    HW233311   9.373   1.088   9.122  0.5257 -1.9441  1.9972
42834SOL     OW33312   5.786   2.267   9.488 -0.1643  0.4051 -0.1814
42834SOL    HW133313   5.803   2.328   9.417  1.4578  0.0716 -0.1287
42834SOL    HW233314   5.739   2.318   9.553  0.0860  1.2680 -0.6567
42835SOL     OW33315   7.315   2.462   0.227 -0.4806  0.0412  0.2101
42835SOL    HW133316   7.320   2.386   0.285 -0.1349  0.1122  0.2744
42835SOL    HW233317   7.231   2.502   0.248 -0.0929  0.4136  1.1114
42836SOL     OW33318   9.804  11.107   1.716  0.0624 -0.3877  0.0846
42836SOL    HW133319   9.738  11.075   1.777  0.2136  0.2958  0.6212
42836SOL    HW233320   9.859  11.031   1.697 -1.6748 -1.3362 -1.4523
42837SOL     OW33321  11.753  11.387   7.177  0.1249 -0.2106 -0.1589
42837SOL    HW133322  11.659  11.401   7.176  0.3569  1.6963 -1.8738
42837SOL    HW233323  11.773  11.364   7.268 -1.5988  2.3828  0.9788
42838SOL     OW33324   8.711   3.320   8.695  0.8209 -0.3399  0.0058
42838SOL    HW133325   8.744   3.270   8.620 -0.7407  0.0653 -1.0050
42838SOL    HW233326   8.679   3.254   8.756  2.9944 -0.7256  0.8327
42839SOL     OW33327   2.943   9.539   0.529  0.2573  0.1211 -0.1573
42839SOL    HW133328   2.886   9.502   0.461 -0.3169  1.0385 -0.1923
42839SOL    HW233329   3.031   9.507   0.507 -0.3751 -2.2197  0.5343
42840SOL     OW33330  11.102   2.555   7.273  0.4969 -0.1126  0.0252
42840SOL    HW133331  11.156   2.579   7.348 -1.3255 -0.8893  1.6704
42840SOL    HW233332  11.013   2.571   7.301 -0.2619 -0.5327 -1.9658
42841SOL     OW33333  11.640   8.938   7.363  0.3029  0.4528 -0.0098
42841SOL    HW133334  11.658   8.920   7.456  1.3814  1.5510  0.0197
42841SOL    HW233335  11.565   8.882   7.342  1.5865 -1.6985  0.8300
42842SOL     OW33336   5.388  11.307   1.562 -0.0882  0.3328 -0.0586
42842SOL    HW133337   5.294  11.323   1.560 -0.7841 -2.6719  1.5562
42842SOL    HW233338   5.413  11.300   1.470 -1.4442  1.0651 -0.5129
42843SOL     OW33339   0.415   6.017   3.118 -0.2480 -0.1670  0.8002
42843SOL    HW133340   0.348   6.063   3.066  0.9418  1.1961  0.4132
42843SOL    HW233341   0.478   6.085   3.141  1.4622 -1.5596  0.4112
42844SOL     OW33342   7.131   0.592   7.945  0.0467  0.6564 -0.7101
42844SOL    HW133343   7.036   0.590   7.945  0.0343 -0.1476  0.7667
42844SOL    HW233344   7.157   0.536   8.018  1.6956 -0.8132 -2.3136
42845SOL     OW33345  11.618  12.516   5.345 -0.4180  0.1947  0.4290
42845SOL    HW133346  11.549  12.576   5.317 -0.9517 -1.5405 -2.3727
42845SOL    HW233347  11.584  12.477   5.426 -1.4294  1.3772  0.6080
42846SOL     OW33348   0.721   4.213  11.094  0.6354  0.2544 -0.0948
42846SOL    HW133349   0.710   4.287  11.153 -0.8809  0.4146 -0.5328
42846SOL    HW233350   0.812   4.186  11.105  0.5131  0.5426  2.0013
42847SOL     OW33351   4.782   0.628   2.696  0.3319  0.2511  0.7236
42847SOL    HW133352   4.826   0.677   2.626 -0.1280 -1.8944 -1.1826
42847SOL    HW233353   4.729   0.694   2.742 -0.5668  1.5116 -1.9271
42848SOL     OW33354  12.135   9.045   2.758 -0.0620 -0.4108  0.1430
42848SOL    HW133355  12.205   9.000   2.804 -0.4093 -2.3970 -1.1585
42848SOL    HW233356  12.171   9.065   2.671 -0.6767 -0.3026 -0.0994
42849SOL     OW33357   1.477  10.734   6.229  0.4970 -0.5010 -0.5031
42849SOL    HW133358   1.460  10.807   6.290  0.9195 -0.1673 -0.7804
42849SOL    HW233359   1.569  10.713   6.242  0.9167  0.3842 -1.8890
42850SOL     OW33360   4.369  11.293   9.850 -0.7386  0.0792  0.3962
42850SOL    HW133361   4.345  11.356   9.918  0.1103 -0.6367  1.3852
42850SOL    HW233362   4.338  11.209   9.882 -0.7724 -0.2020 -0.3496
42851SOL     OW33363  12.032   8.683   1.883  0.0504 -0.2420  0.2537
42851SOL    HW133364  11.958   8.688   1.943 -0.1535  2.8916 -0.1086
42851SOL    HW233365  11.995   8.649   1.801 -0.8092  0.4423  0.3538
42852SOL     OW33366  12.346  12.088   9.585 -0.0422 -0.1313 -0.1319
42852SOL    HW133367  12.270  12.118   9.534  1.7271  1.1775 -2.1965
42852SOL    HW233368  12.345  12.142   9.664 -2.5870 -1.8636  1.1319
42853SOL     OW33369   4.475   6.124   9.843 -0.0990  0.6435  0.9326
42853SOL    HW133370   4.533   6.149   9.772  0.9238  0.8128  1.7969
42853SOL    HW233371   4.450   6.034   9.823 -0.7955  1.0753 -0.2442
42854SOL     OW33372   3.198   8.168   9.204  0.3817  0.2632  0.3552
42854SOL    HW133373   3.254   8.170   9.127 -0.3614  0.3422 -0.1948
42854SOL    HW233374   3.232   8.238   9.261 -0.5492  1.8655 -0.9759
42855SOL     OW33375   3.602   4.904   1.057 -0.1975  0.4010 -0.2677
42855SOL    HW133376   3.662   4.837   1.090 -0.9867 -1.4183 -2.2741
42855SOL    HW233377   3.659   4.972   1.021  0.6341  1.3466  2.5652
42856SOL     OW33378   6.753   8.779   0.659 -0.4017 -0.2042  0.5247
42856SOL    HW133379   6.781   8.841   0.592 -1.4370  0.3062  0.5469
42856SOL    HW233380   6.769   8.825   0.742  0.6605 -0.7452  0.6443
42857SOL     OW33381  11.261   0.696   6.757  0.4752  0.3793  0.6049
42857SOL    HW133382  11.234   0.631   6.822  0.5029 -2.3698 -1.8832
42857SOL    HW233383  11.181   0.718   6.710  0.8774  0.0795 -0.2472
42858SOL     OW33384   0.948   6.743  11.502 -0.0135  0.8747 -0.2225
42858SOL    HW133385   0.916   6.825  11.539  0.5806  1.3819 -0.7983
42858SOL    HW233386   1.010   6.770  11.434 -0.4860 -0.0313 -1.0449
42859SOL     OW33387   4.200  11.207   1.020  0.3194  0.4233  0.2447
42859SOL    HW133388   4.168  11.291   1.053  2.0072 -0.1194  3.6315
42859SOL    HW233389   4.124  11.169   0.975 -1.4137  2.4110  1.3064
42860SOL     OW33390   6.533   0.780   8.351  0.7122 -0.0433  0.4833
42860SOL    HW133391   6.595   0.707   8.344 -1.2144 -1.6223 -1.2863
42860SOL    HW233392   6.462   0.747   8.406  0.4303  0.9836  0.7568
42861SOL     OW33393  11.373  11.071   6.275  0.2617 -0.0156  0.3191
42861SOL    HW133394  11.292  11.121   6.270 -0.4017 -0.7189  2.7459
42861SOL    HW233395  11.424  11.114   6.343  1.4145 -0.2927 -0.3444
42862SOL     OW33396   7.118   4.218   5.020 -0.5406 -0.2067  0.4915
42862SOL    HW133397   7.175   4.289   5.049  0.3440 -0.3853 -0.7165
42862SOL    HW233398   7.070   4.254   4.946 -0.5788 -0.6455  0.2965
42863SOL     OW33399   6.780   2.505   8.171 -0.1265  0.3588  0.3674
42863SOL    HW133400   6.698   2.493   8.218 -1.4007  1.5021 -1.4764
42863SOL    HW233401   6.784   2.432   8.109  0.8165 -0.2845  1.1295
42864SOL     OW33402   3.359   2.705   7.868  0.2563 -0.1162  0.3423
42864SOL    HW133403   3.288   2.697   7.932 -1.4314  4.5319 -0.4889
42864SOL    HW233404   3.433   2.737   7.918  0.6797 -1.5384  0.6681
42865SOL     OW33405  11.299   3.354   4.716  0.1838 -0.4027 -0.0563
42865SOL    HW133406  11.218   3.379   4.761 -0.0295 -0.5792 -0.3416
42865SOL    HW233407  11.271   3.294   4.647  0.5778 -0.5984 -0.0520
42866SOL     OW33408   1.120  11.833   0.743  0.3403 -0.0147 -0.2786
42866SOL    HW133409   1.103  11.887   0.665 -2.2976 -0.8935 -0.4119
42866SOL    HW233410   1.111  11.743   0.712  0.1302 -0.3984  0.8549
42867SOL     OW33411  10.230   9.807   7.259 -0.1852  0.0268 -0.1614
42867SOL    HW133412  10.220   9.848   7.345 -0.4961 -0.9844  0.2897
42867SOL    HW233413  10.302   9.745   7.271 -0.0887  0.0311 -0.6988
42868SOL     OW33414   4.862  11.319   1.353  0.0332  0.4982  0.3276
42868SOL    HW133415   4.838  11.340   1.444  1.4916  0.8231  0.6677
42868SOL    HW233416   4.819  11.387   1.301 -1.2542  0.0010  0.7158
42869SOL     OW33417   6.253   7.646   4.978  0.0041 -0.7828  0.1492
42869SOL    HW133418   6.185   7.709   4.954  1.4683  0.4638 -0.9068
42869SOL    HW233419   6.335   7.696   4.976  1.0321 -2.3419  0.9036
42870SOL     OW33420  12.550  12.568   5.844  0.0813 -0.4268 -0.0877
42870SOL    HW133421  12.598  12.621   5.780 -1.4189  0.5888 -0.4230
42870SOL    HW233422  12.527  12.629   5.913 -1.6679 -0.6142 -0.4696
42871SOL     OW33423  11.380   2.478  12.642  0.6349  0.7613 -0.0400
42871SOL    HW133424  11.286   2.466  12.658  0.7221  1.3166  0.9663
42871SOL    HW233425  11.422   2.433  12.715  1.2528 -1.6764 -1.8108
42872SOL     OW33426   2.381  11.061   7.093  0.9207  0.4007  0.3032
42872SOL    HW133427   2.354  11.153   7.098 -0.3102  0.2396 -2.0066
42872SOL    HW233428   2.476  11.065   7.083  0.8900  1.4261  0.3390
42873SOL     OW33429   8.713   3.152   5.325 -0.4120  0.0140  0.2268
42873SOL    HW133430   8.781   3.156   5.257 -0.4730 -0.6149  0.1273
42873SOL    HW233431   8.750   3.097   5.393 -0.7951 -0.2693  0.2043
42874SOL     OW33432   1.093  11.461  10.886  0.0742  0.0533  0.1931
42874SOL    HW133433   1.165  11.425  10.835 -2.1156 -1.4176 -2.1016
42874SOL    HW233434   1.042  11.512  10.823 -1.0556  0.8322  1.6775
42875SOL     OW33435   5.333   5.181   0.354  0.3514 -0.0920  0.3342
42875SOL    HW133436   5.411   5.164   0.301  0.5105  0.7360  0.2992
42875SOL    HW233437   5.345   5.126   0.432  0.0626 -1.4089 -0.5179
42876SOL     OW33438  11.711   1.828   3.446 -0.2826 -0.1600  0.3707
42876SOL    HW133439  11.730   1.737   3.471  0.2731 -0.3675 -0.7446
42876SOL    HW233440  11.623   1.824   3.408 -0.1412 -0.2966  0.0502
42877SOL     OW33441   2.022   7.319   5.846  0.3142 -0.5982 -0.7259
42877SOL    HW133442   2.005   7.358   5.761  1.9074 -0.3126 -0.9472
42877SOL    HW233443   1.946   7.343   5.899  0.6367  1.8173 -1.2114
42878SOL     OW33444   8.431   8.245   5.210  0.0190 -0.4713  0.1651
42878SOL    HW133445   8.425   8.269   5.303 -0.5084  0.7640 -0.1689
42878SOL    HW233446   8.346   8.270   5.174 -0.4776 -2.6685 -0.2836
42879SOL     OW33447   2.887   3.600   4.741  0.0639 -0.0951 -0.2911
42879SOL    HW133448   2.842   3.684   4.751 -0.5010 -0.4148 -0.0790
42879SOL    HW233449   2.963   3.607   4.799  1.7081  1.3687 -2.4629
42880SOL     OW33450   0.812  12.518  10.743  0.5062  0.4413 -0.0962
42880SOL    HW133451   0.763  12.469  10.809  0.3804 -0.1063 -0.5847
42880SOL    HW233452   0.880  12.564  10.792 -1.2924  2.3114  0.7722
42881SOL     OW33453   2.313   7.536   2.209  0.2806  0.2737 -0.0567
42881SOL    HW133454   2.346   7.605   2.152 -2.2162  0.6185 -1.2654
42881SOL    HW233455   2.345   7.455   2.169 -0.5633  0.5675 -1.3936
42882SOL     OW33456  11.680   7.856   9.818 -0.1921  0.1467  0.0917
42882SOL    HW133457  11.669   7.802   9.739 -0.4354 -1.1441  0.9742
42882SOL    HW233458  11.623   7.815   9.883  2.1579 -0.6273  1.8197
42883SOL     OW33459   4.911   4.013  12.049  0.4157 -0.0498  0.1038
42883SOL    HW133460   4.935   4.098  12.086  0.3284 -0.2500  0.6275
42883SOL    HW233461   4.820   4.025  12.020  0.0331 -0.2811  1.1731
42884SOL     OW33462   6.017   4.437   9.417  0.5344  0.2660 -0.5833
42884SOL    HW133463   6.097   4.389   9.438  0.0237 -0.6811 -0.7767
42884SOL    HW233464   6.037   4.480   9.333  0.9916  0.4007 -0.4099
42885SOL     OW33465   6.584   4.201   5.173 -0.5649 -0.3571 -0.1080
42885SOL    HW133466   6.591   4.210   5.268  1.0120 -2.2202  0.0232
42885SOL    HW233467   6.598   4.289   5.139 -0.0391  0.1516  1.3429
42886SOL     OW33468   5.623   4.731  10.786 -0.9516 -0.1026  0.7254
42886SOL    HW133469   5.537   4.733  10.829 -0.6750 -0.3864  1.3070
42886SOL    HW233470   5.616   4.659  10.724 -1.2330  0.0661  0.5570
42887SOL     OW33471   9.253  10.853   7.872 -0.1036  0.2916  0.4165
42887SOL    HW133472   9.220  10.936   7.908 -0.0958  0.5722 -0.2119
42887SOL    HW233473   9.348  10.865   7.868 -0.2590  1.4239 -2.4109
42888SOL     OW33474  10.201   0.938   8.117  0.0306  0.4587  0.7131
42888SOL    HW133475  10.176   0.944   8.025  0.8214  0.9522  0.5257
42888SOL    HW233476  10.236   1.024   8.138  0.3376  0.1860  1.3361
42889SOL     OW33477   6.714   4.082   1.416  0.1052 -0.2802 -0.0790
42889SOL    HW133478   6.732   4.163   1.464  1.2765 -0.1029 -0.8028
42889SOL    HW233479   6.639   4.044   1.462  0.2180  0.6684  0.9303
42890SOL     OW33480  10.000   1.246  10.555 -0.9025 -0.1396 -0.5902
42890SOL    HW133481  10.053   1.325  10.544  0.0567 -0.6672  0.0073
42890SOL    HW233482   9.967   1.226  10.468 -1.2409  0.9763 -0.7272
42891SOL     OW33483   5.916  10.539   3.267 -0.8776  0.4834 -0.3538
42891SOL    HW133484   5.995  10.487   3.252 -1.2996 -0.5020  0.7218
42891SOL    HW233485   5.903  10.586   3.184  0.4353  0.1454 -0.7855
42892SOL     OW33486  11.210  10.836   6.123 -0.0146  0.1502  0.1805
42892SOL    HW133487  11.166  10.918   6.101  2.5199  1.3688 -0.6839
42892SOL    HW233488  11.248  10.850   6.209  0.6633 -0.0032 -0.0875
42893SOL     OW33489  11.532   7.911   1.297  0.1878 -0.6910  0.4317
42893SOL    HW133490  11.617   7.904   1.340 -0.6200 -1.1238  2.0106
42893SOL    HW233491  11.494   7.992   1.330 -0.9248 -1.6110  1.4645
42894SOL     OW33492   7.423   9.481   7.822  0.2303 -0.0615 -0.4736
42894SOL    HW133493   7.449   9.417   7.889 -0.8368 -0.4127 -0.3653
42894SOL    HW233494   7.408   9.429   7.743 -3.1024 -0.4438  0.2301
42895SOL     OW33495   3.733   0.079   6.916 -0.0612 -0.1337  0.4831
42895SOL    HW133496   3.654   0.124   6.946  0.5614  1.4736 -0.1472
42895SOL    HW233497   3.716  -0.014   6.933 -1.9556  0.1919  0.6068
42896SOL     OW33498   7.645   6.137   0.794 -0.5311  0.4010 -0.3526
42896SOL    HW133499   7.638   6.224   0.756 -0.0507  0.6225  0.0676
42896SOL    HW233500   7.591   6.082   0.736 -1.1707  1.0439 -0.3861
42897SOL     OW33501   8.630   9.182   9.919 -0.1337 -0.1860 -0.4848
42897SOL    HW133502   8.575   9.128   9.975  0.2932 -1.6797 -1.4460
42897SOL    HW233503   8.585   9.183   9.834  0.9383 -0.8354 -1.0809
42898SOL     OW33504   4.430   6.900   2.615  0.2847 -0.2101 -0.1133
42898SOL    HW133505   4.439   6.874   2.523  0.8955 -0.7834  0.1019
42898SOL    HW233506   4.476   6.832   2.664  0.1569  0.2115  0.6063
42899SOL     OW33507  10.639  10.238   9.118 -0.1295  0.1047 -0.7526
42899SOL    HW133508  10.612  10.183   9.192  3.3422 -0.1689  0.4934
42899SOL    HW233509  10.586  10.317   9.126 -2.6861 -1.5456 -0.4396
42900SOL     OW33510   6.952   7.402   2.615 -0.1899 -0.4101 -0.6693
42900SOL    HW133511   6.958   7.360   2.701  0.1032  0.6662 -0.1407
42900SOL    HW233512   6.917   7.489   2.633 -0.8282 -0.4235 -1.7369
42901SOL     OW33513  12.232   3.072   6.719 -0.3968 -0.0901 -0.2158
42901SOL    HW133514  12.264   3.135   6.655 -1.6931  0.0796 -0.7142
42901SOL    HW233515  12.274   3.098   6.801  0.3089  0.4432 -0.7315
42902SOL     OW33516   8.921  11.982   1.730  0.2835 -0.3011  0.6743
42902SOL    HW133517   8.950  11.894   1.753 -0.9721 -1.0124 -0.2823
42902SOL    HW233518   8.925  11.983   1.634  0.7788  0.8735  0.6954
42903SOL     OW33519   8.985  11.044   9.512 -0.3235 -0.5207 -0.1742
42903SOL    HW133520   8.985  11.068   9.605  0.7718  5.2508 -1.2632
42903SOL    HW233521   9.077  11.024   9.493 -0.0403  0.9672 -0.4536
42904SOL     OW33522   9.925   0.589   7.924  0.1188  0.1714  0.1254
42904SOL    HW133523   9.943   0.647   7.850 -3.1117  1.1112 -0.0623
42904SOL    HW233524   9.953   0.638   8.001 -0.8128  1.2019 -0.1745
42905SOL     OW33525   4.876   2.622   0.938  0.6005  0.0682  0.0461
42905SOL    HW133526   4.790   2.648   0.906 -0.2387 -1.9750  0.4846
42905SOL    HW233527   4.900   2.690   1.001 -0.5248  0.8447 -0.3258
42906SOL     OW33528   7.492   4.756  10.969 -0.6891 -0.1144 -0.0002
42906SOL    HW133529   7.444   4.833  10.999  1.2564  0.5731  1.6085
42906SOL    HW233530   7.541   4.787  10.892 -0.3753  0.1163  0.2847
42907SOL     OW33531   6.636   0.246  11.934  0.4636 -0.6318  0.2012
42907SOL    HW133532   6.719   0.245  11.887  0.0090  0.2176 -0.6408
42907SOL    HW233533   6.615   0.153  11.947 -0.2900 -0.9903 -2.9270
42908SOL     OW33534   2.934   5.004   9.520 -0.5387 -0.1679 -0.5373
42908SOL    HW133535   3.002   4.940   9.540  0.1414  0.0814 -1.9179
42908SOL    HW233536   2.882   4.963   9.451 -0.4169  0.5347 -1.0629
42909SOL     OW33537   1.437   1.010   3.596 -0.5085 -0.1521  0.6766
42909SOL    HW133538   1.501   1.075   3.627 -1.0839 -0.3820  2.4866
42909SOL    HW233539   1.371   1.062   3.550  0.9978  0.0686 -1.3605
42910SOL     OW33540   6.906   4.727   7.449  0.2540 -0.1049 -0.0444
42910SOL    HW133541   6.876   4.808   7.406 -1.6947  0.3228  1.9200
42910SOL    HW233542   6.916   4.751   7.541  1.0057 -1.7910  0.3477
42911SOL     OW33543   1.966   0.458   5.113  0.4121  0.5175 -0.1090
42911SOL    HW133544   1.912   0.395   5.162  0.9355  1.0833  1.2447
42911SOL    HW233545   1.907   0.531   5.095 -0.2970 -0.4449 -1.9896
42912SOL     OW33546  10.135   3.597   2.471  0.0248 -0.3120 -0.1952
42912SOL    HW133547  10.082   3.555   2.539 -0.4543  1.4574  0.5920
42912SOL    HW233548  10.197   3.530   2.443 -1.4070 -1.8553  0.2026
42913SOL     OW33549   9.907   6.819  12.413  0.1686 -0.3956 -0.5224
42913SOL    HW133550   9.816   6.789  12.414 -0.6330  1.8405 -0.0054
42913SOL    HW233551   9.958   6.739  12.398 -1.7825 -1.9179  0.3914
42914SOL     OW33552   5.335  10.089   8.256  0.0370  0.4449  0.0339
42914SOL    HW133553   5.400  10.104   8.187 -0.3689 -2.7333 -1.1948
42914SOL    HW233554   5.329   9.994   8.264 -2.3384  0.6522  2.1905
42915SOL     OW33555  11.380   1.190   2.711 -0.1514 -0.1612 -0.7686
42915SOL    HW133556  11.399   1.236   2.629 -0.4908  0.6848 -0.3842
42915SOL    HW233557  11.461   1.141   2.730  0.9267  1.7113 -0.2569
42916SOL     OW33558   7.451   6.047   7.112  0.5417 -0.0634  0.1000
42916SOL    HW133559   7.526   6.072   7.166  1.1790 -1.7302  0.0671
42916SOL    HW233560   7.384   6.112   7.132  1.7309  1.0086  0.7226
42917SOL     OW33561   9.714   5.700   4.347 -0.0226  0.2294 -0.3709
42917SOL    HW133562   9.667   5.617   4.347 -1.1870  0.8607  0.1079
42917SOL    HW233563   9.794   5.683   4.396 -0.3970 -0.5299 -0.0119
42918SOL     OW33564   5.545   0.189   6.433 -0.1127 -0.4805 -0.4120
42918SOL    HW133565   5.622   0.247   6.437 -0.2596 -0.2166 -1.1866
42918SOL    HW233566   5.470   0.248   6.440 -0.3170 -0.3046 -3.0956
42919SOL     OW33567   9.034  12.255  10.838 -0.0648 -0.1801  0.2550
42919SOL    HW133568   8.946  12.291  10.839  0.3265  0.9366 -1.5090
42919SOL    HW233569   9.091  12.330  10.854  0.6795 -0.2496 -1.7542
42920SOL     OW33570   2.202   5.743   0.213  0.1685  1.0478  0.4095
42920SOL    HW133571   2.129   5.737   0.274 -1.0142  0.9634 -0.9642
42920SOL    HW233572   2.172   5.802   0.144  0.8463 -0.0688 -0.8909
42921SOL     OW33573   4.787  10.036   6.962  0.5780  0.3418  0.7656
42921SOL    HW133574   4.754  10.072   7.045  0.2097 -0.2775  0.8969
42921SOL    HW233575   4.796  10.111   6.905 -0.7242  0.5794  0.8498
42922SOL     OW33576   7.457  11.936   1.890 -0.3878  0.1888  0.1395
42922SOL    HW133577   7.545  11.899   1.884  0.0570  0.5968  2.8780
42922SOL    HW233578   7.400  11.861   1.906 -0.3351  0.0692 -0.2363
42923SOL     OW33579   4.609   2.344   1.156  0.0866  0.4056  0.2907
42923SOL    HW133580   4.689   2.293   1.143  0.2935  1.0121 -0.9712
42923SOL    HW233581   4.590   2.381   1.069 -1.4745  0.3946  0.6092
42924SOL     OW33582   9.554   2.449   8.796 -0.0586  0.3303  0.4312
42924SOL    HW133583   9.543   2.524   8.854  0.8632  0.5696  0.3130
42924SOL    HW233584   9.613   2.480   8.727  0.1249 -0.4200  0.2376
42925SOL     OW33585   7.404   4.880  12.428  0.6064 -0.3937 -0.3733
42925SOL    HW133586   7.449   4.827  12.362 -1.2790 -0.9900 -1.2606
42925SOL    HW233587   7.420   4.971  12.400 -0.0808 -0.6330 -1.6342
42926SOL     OW33588  10.401   6.344   7.331  0.2716 -0.5783  0.7424
42926SOL    HW133589  10.378   6.413   7.269 -1.7732 -1.2569  0.6861
42926SOL    HW233590  10.414   6.267   7.276 -0.7003 -0.9819  1.0607
42927SOL     OW33591  10.017  10.033   2.940 -0.1084  0.9011 -0.2598
42927SOL    HW133592  10.064  10.027   3.023  0.6849  0.2298 -0.7434
42927SOL    HW233593  10.041  10.119   2.905  0.4213  0.7438 -0.2952
42928SOL     OW33594   6.213  11.212   0.700 -0.4796  0.2211  0.3617
42928SOL    HW133595   6.302  11.234   0.729 -0.7571  1.6203  0.2155
42928SOL    HW233596   6.166  11.194   0.782 -0.3125  0.4716  0.5167
42929SOL     OW33597  11.779   9.765   3.407 -0.2498 -0.5304 -0.2395
42929SOL    HW133598  11.708   9.760   3.342  0.4669  1.1897 -1.2167
42929SOL    HW233599  11.741   9.814   3.480  0.0959  1.0556 -1.0744
42930SOL     OW33600   2.755   2.337   2.419 -0.3610  0.3812  0.5037
42930SOL    HW133601   2.680   2.289   2.453 -0.6485 -0.0931 -0.7591
42930SOL    HW233602   2.734   2.354   2.327  1.4523 -0.5949 -0.1515
42931SOL     OW33603  11.718  12.045  11.384 -0.2430  0.1613 -0.1036
42931SOL    HW133604  11.674  12.030  11.301 -0.7164  1.4776 -0.1230
42931SOL    HW233605  11.651  12.029  11.450 -0.1133 -0.0323 -0.0190
42932SOL     OW33606   8.862   9.309   4.123  0.6448 -0.4466 -0.4753
42932SOL    HW133607   8.800   9.270   4.185  0.9883  0.4143  0.4460
42932SOL    HW233608   8.872   9.399   4.154 -1.1407  0.8608 -3.2636
42933SOL     OW33609   8.870   8.569   9.847  0.5591  0.5642  0.3075
42933SOL    HW133610   8.946   8.520   9.877  1.0345  1.1403  0.0613
42933SOL    HW233611   8.799   8.504   9.844  0.5683  0.3991  2.2926
42934SOL     OW33612  12.467   0.927   1.736  0.8994  0.1626  0.3083
42934SOL    HW133613  12.484   0.833   1.726 -0.7725 -0.1405  0.1238
42934SOL    HW233614  12.554   0.966   1.741  1.6506 -1.5508  1.9379
42935SOL     OW33615   2.810   4.707   4.843  0.2881 -0.2141  0.1174
42935SOL    HW133616   2.730   4.661   4.868  0.6922 -0.1066  1.7079
42935SOL    HW233617   2.875   4.679   4.907  1.4154  0.0697 -0.8646
42936SOL     OW33618  10.658   9.658   1.851  0.3112 -0.5540  0.2256
42936SOL    HW133619  10.690   9.611   1.928  0.8394  0.0313  0.3714
42936SOL    HW233620  10.725   9.724   1.834 -0.7133  0.5580  0.3924
42937SOL     OW33621  11.743   8.728   8.919  0.1735 -0.4332  0.0469
42937SOL    HW133622  11.825   8.758   8.880  0.5845  1.9802  2.4650
42937SOL    HW233623  11.694   8.808   8.939 -2.0185 -1.7313  0.2882
42938SOL     OW33624   9.068   3.307   2.883 -0.6058  0.2406  0.0145
42938SOL    HW133625   9.069   3.295   2.978 -2.4520  0.5374  0.0983
42938SOL    HW233626   9.041   3.222   2.849  0.8784 -0.1190 -0.3243
42939SOL     OW33627   0.734   3.144   0.361  0.6991 -0.4072  0.2613
42939SOL    HW133628   0.819   3.102   0.347  1.0126 -0.2820  1.6550
42939SOL    HW233629   0.671   3.072   0.358  1.0067 -0.6907  0.5253
42940SOL     OW33630   3.470  12.545   9.878  0.0478  0.0493  0.0869
42940SOL    HW133631   3.487  12.619   9.936 -1.1262  0.0161  0.4858
42940SOL    HW233632   3.508  12.572   9.794  2.3469 -0.1697  0.9858
42941SOL     OW33633   1.992   3.554   5.779  0.0933  0.1050 -0.0971
42941SOL    HW133634   1.966   3.583   5.866 -1.4513  1.5003 -0.9573
42941SOL    HW233635   2.084   3.582   5.771  0.0487  0.5531  0.8455
42942SOL     OW33636  12.083   4.079   8.272  0.0190 -0.2872  0.1091
42942SOL    HW133637  12.050   3.990   8.278  0.0776 -0.4508 -1.5282
42942SOL    HW233638  12.006   4.134   8.283 -0.3432 -0.6007 -0.7612
42943SOL     OW33639  12.508  10.100   2.498  0.2338 -0.2124  0.3304
42943SOL    HW133640  12.601  10.119   2.510  0.5599 -1.0111 -0.7218
42943SOL    HW233641  12.498  10.009   2.526 -0.3875  0.0851  1.1165
42944SOL     OW33642   3.888   7.724  11.533  0.2581 -0.0565 -0.3373
42944SOL    HW133643   3.794   7.715  11.544  0.0372  1.7262 -0.6117
42944SOL    HW233644   3.908   7.670  11.456 -0.4211 -0.9358  0.0887
42945SOL     OW33645   7.718   4.500   3.545  0.5375  0.3875 -0.1505
42945SOL    HW133646   7.701   4.588   3.579  0.7372 -0.2121  1.6194
42945SOL    HW233647   7.632   4.459   3.539  0.4011  0.7886 -1.3519
42946SOL     OW33648   7.829   2.729   1.378  0.6104  0.4709 -0.0154
42946SOL    HW133649   7.871   2.647   1.406 -2.2202 -1.4508 -0.9029
42946SOL    HW233650   7.827   2.723   1.282 -1.9089  0.2294 -0.0187
42947SOL     OW33651  10.517   4.481   4.958  0.0535 -0.0060 -0.1701
42947SOL    HW133652  10.588   4.469   5.021  0.6061  1.0260 -0.5698
42947SOL    HW233653  10.517   4.400   4.907  1.0226  0.0123 -0.2254
42948SOL     OW33654   4.141   0.807   0.600  0.4546 -0.0565  0.1782
42948SOL    HW133655   4.160   0.717   0.624 -0.6742 -0.4564 -0.3893
42948SOL    HW233656   4.173   0.815   0.510  0.2336  0.0095  0.1060
42949SOL     OW33657  12.360   4.660   9.296  0.0287 -0.1843  0.0648
42949SOL    HW133658  12.306   4.595   9.342  0.9844 -0.5049  0.7747
42949SOL    HW233659  12.450   4.637   9.320  0.4585  0.5873 -0.7646
42950SOL     OW33660   2.705   7.090   4.201 -0.0346 -0.3401  0.2156
42950SOL    HW133661   2.704   7.010   4.253  1.6995 -1.5603 -1.4960
42950SOL    HW233662   2.798   7.110   4.189 -0.3443  0.0333 -2.1078
42951SOL     OW33663   0.478   2.036   3.050  0.3422  0.0597  0.4945
42951SOL    HW133664   0.438   2.121   3.028  2.3114  0.7853 -0.6015
42951SOL    HW233665   0.464   1.982   2.972 -1.4796 -0.9254  1.4310
42952SOL     OW33666   1.051   8.337  11.002  0.4755 -0.7221 -0.2891
42952SOL    HW133667   0.975   8.382  10.967 -0.0675 -0.6051  0.9838
42952SOL    HW233668   1.033   8.244  10.987  0.0201 -0.7020  0.1060
42953SOL     OW33669   7.252   1.257   6.069  0.9931  0.6046  0.5340
42953SOL    HW133670   7.166   1.266   6.110  0.9534  1.4392  0.3009
42953SOL    HW233671   7.305   1.212   6.134  0.6151  0.8822  1.0423
42954SOL     OW33672  12.260  10.922   3.136  0.3009  0.4562 -0.3187
42954SOL    HW133673  12.256  10.826   3.135 -0.8153  0.4270 -2.9907
42954SOL    HW233674  12.169  10.949   3.149  0.5104  1.1484 -0.2792
42955SOL     OW33675   3.306   6.341   5.180 -0.0385  0.0741 -0.1980
42955SOL    HW133676   3.389   6.384   5.199  0.5634  0.1021 -2.5461
42955SOL    HW233677   3.241   6.411   5.181  0.2938  0.3825 -0.1958
42956SOL     OW33678   2.118  10.418   1.622  0.0178 -0.8480 -0.4643
42956SOL    HW133679   2.103  10.489   1.559 -0.0621  2.8075  3.2623
42956SOL    HW233680   2.204  10.383   1.598  0.3573  0.9243 -2.1299
42957SOL     OW33681   5.579   3.326   9.341 -0.4339 -0.0034  0.3141
42957SOL    HW133682   5.531   3.408   9.347  0.6739  0.7891 -0.9591
42957SOL    HW233683   5.542   3.271   9.410 -1.8531  1.2139  0.5775
42958SOL     OW33684   3.293   1.493   1.503  0.0638  0.6915  0.4807
42958SOL    HW133685   3.385   1.506   1.526 -0.3267  1.9749  1.4349
42958SOL    HW233686   3.255   1.453   1.582  0.1093 -1.4030 -0.4920
42959SOL     OW33687   4.049   6.249   8.221  0.3705  0.3134  0.1789
42959SOL    HW133688   3.958   6.278   8.222  0.5421  0.9191  2.0396
42959SOL    HW233689   4.059   6.197   8.301  1.5194 -0.1966 -0.2718
42960SOL     OW33690   1.470  12.275   5.611  0.1550 -0.3252  0.0020
42960SOL    HW133691   1.416  12.201   5.584  1.1753 -1.1350  0.1179
42960SOL    HW233692   1.520  12.242   5.686 -2.1120  1.6323  2.5759
42961SOL     OW33693   7.129  11.404   5.974 -0.1294  0.5464 -0.2558
42961SOL    HW133694   7.137  11.337   6.042 -1.0350  0.9981  0.3089
42961SOL    HW233695   7.217  11.412   5.937  0.0300 -0.7961 -0.1862
42962SOL     OW33696   7.031   9.765   4.106 -0.7315  0.4976  0.2778
42962SOL    HW133697   7.064   9.801   4.188  0.8419 -1.0952  0.3955
42962SOL    HW233698   7.010   9.674   4.126  0.5805 -0.2030 -1.2635
42963SOL     OW33699   2.761   5.046   5.333  1.4101 -0.0274  0.8035
42963SOL    HW133700   2.731   5.032   5.423 -0.7951  0.2552  0.1717
42963SOL    HW233701   2.682   5.037   5.279  2.4399  1.0199 -0.9972
42964SOL     OW33702   3.875   1.166  10.031 -1.1181 -0.1864 -0.2540
42964SOL    HW133703   3.912   1.251  10.053  0.1180 -0.9248  0.6218
42964SOL    HW233704   3.925   1.137   9.954 -0.3142 -0.8690  0.5011
42965SOL     OW33705   2.635   6.784  11.929 -0.2770 -0.5856 -0.1694
42965SOL    HW133706   2.690   6.707  11.925 -1.1736 -1.2506 -0.0781
42965SOL    HW233707   2.578   6.769  12.005  0.9095  1.1223  1.1413
42966SOL     OW33708  10.147   0.056   8.290  0.0323  0.1995 -1.2824
42966SOL    HW133709  10.057   0.030   8.275  0.0286  0.4981 -1.7959
42966SOL    HW233710  10.151   0.147   8.262  0.5582  0.1078 -1.5287
42967SOL     OW33711   5.001  11.488   7.970  0.1560  0.3469  1.2851
42967SOL    HW133712   4.936  11.557   7.983  0.2473  0.3501  1.7564
42967SOL    HW233713   4.972  11.442   7.891 -0.6943  0.0410  1.7613
42968SOL     OW33714  10.685   3.643   4.057 -0.3998 -0.4450  0.0583
42968SOL    HW133715  10.641   3.564   4.089 -0.3813 -0.2673  0.5246
42968SOL    HW233716  10.643   3.661   3.973  0.3215 -1.5503 -0.5645
42969SOL     OW33717   0.627   1.354   9.040  0.0704 -0.3205 -0.7443
42969SOL    HW133718   0.671   1.304   8.971  1.1842 -1.0088  0.4330
42969SOL    HW233719   0.676   1.436   9.046 -0.5757  0.1225 -1.3585
42970SOL     OW33720  11.612   6.759   9.569  0.8311  0.1430 -0.5808
42970SOL    HW133721  11.623   6.676   9.615  1.3940  0.3917 -0.2577
42970SOL    HW233722  11.591   6.734   9.479 -0.4709 -0.3471 -0.1655
42971SOL     OW33723   3.441   9.281  11.746  0.5501  0.0974  0.1768
42971SOL    HW133724   3.468   9.332  11.670 -0.4613 -1.0049 -0.9706
42971SOL    HW233725   3.345   9.274  11.738  0.3373  0.5173  1.9163
42972SOL     OW33726   7.849  11.582  10.658 -0.2652 -0.5508  0.1215
42972SOL    HW133727   7.864  11.614  10.569  1.9040 -2.7863 -0.4287
42972SOL    HW233728   7.769  11.529  10.651 -0.6667  0.0829 -0.2309
42973SOL     OW33729   3.664  11.619   9.908 -0.4789  0.6728 -0.2595
42973SOL    HW133730   3.667  11.656   9.996  0.9596  0.3967 -0.1759
42973SOL    HW233731   3.627  11.689   9.854 -1.1477  0.9255  0.5108
42974SOL     OW33732  11.731   4.301   2.852 -0.5170 -0.0832  0.1486
42974SOL    HW133733  11.697   4.214   2.829  1.5561 -1.0747  0.5794
42974SOL    HW233734  11.812   4.309   2.802 -0.8721  1.8163 -0.1978
42975SOL     OW33735   3.398   0.248   4.821 -0.2025 -0.0882  0.2216
42975SOL    HW133736   3.447   0.187   4.875 -0.9611 -0.5808  0.3668
42975SOL    HW233737   3.465   0.302   4.779  0.4117  0.2271  1.5478
42976SOL     OW33738   4.805   5.826   5.349 -0.1695 -0.2494  0.6334
42976SOL    HW133739   4.814   5.886   5.423 -0.7788 -0.0614  0.5629
42976SOL    HW233740   4.805   5.739   5.390  0.9797 -0.2231  0.7086
42977SOL     OW33741   6.732   5.095   7.170  0.2357 -0.1487 -0.1084
42977SOL    HW133742   6.739   5.154   7.246  1.6024  0.5817 -0.7607
42977SOL    HW233743   6.663   5.133   7.117  1.6098  1.3744 -0.8955
42978SOL     OW33744   9.351   3.129  12.421 -0.1308 -0.5651 -0.0895
42978SOL    HW133745   9.391   3.090  12.344 -0.1618  0.5639 -0.7009
42978SOL    HW233746   9.322   3.216  12.392  2.2557  1.0091  1.8217
42979SOL     OW33747   9.969   9.941   3.558 -0.3282 -0.4697  0.8680
42979SOL    HW133748   9.995  10.025   3.522 -0.8398  0.3684  2.3582
42979SOL    HW233749   9.878   9.930   3.532 -0.5662 -0.0731  1.5170
42980SOL     OW33750   9.857   0.020   6.037  0.1315 -0.3122  0.4303
42980SOL    HW133751   9.820   0.017   5.949  0.5714  2.3346  0.0773
42980SOL    HW233752   9.940  -0.028   6.030  1.1023  1.4664 -1.1595
42981SOL     OW33753   7.172   0.527   9.440 -0.1883 -0.1167  0.4315
42981SOL    HW133754   7.141   0.595   9.381  0.6990  0.0543  0.1448
42981SOL    HW233755   7.093   0.480   9.468 -0.7016  0.4069 -0.1373
42982SOL     OW33756   8.592   7.490   0.356 -0.5785 -0.0283 -0.4161
42982SOL    HW133757   8.639   7.408   0.344  0.9253  1.1505 -3.2892
42982SOL    HW233758   8.499   7.464   0.357 -0.1220 -1.7913 -0.7315
42983SOL     OW33759   9.229   3.983  12.073  0.2459 -0.1438  0.4873
42983SOL    HW133760   9.313   4.009  12.035  1.4760 -1.5117  2.1272
42983SOL    HW233761   9.163   4.024  12.016  1.9980  0.8273 -0.9407
42984SOL     OW33762  12.031   4.246   8.945 -0.2348 -0.1314 -0.2605
42984SOL    HW133763  11.970   4.266   8.874 -1.6041 -2.7634  0.0195
42984SOL    HW233764  12.117   4.246   8.904 -0.8292 -0.0148 -1.5613
42985SOL     OW33765   8.486   0.615  11.606  0.6167 -0.0957  0.1728
42985SOL    HW133766   8.554   0.681  11.595  0.4222  0.0919  0.0845
42985SOL    HW233767   8.408   0.664  11.632  0.6076 -0.3487  0.6229
42986SOL     OW33768  10.438   9.761   9.021 -0.2114 -0.1168  0.3447
42986SOL    HW133769  10.463   9.842   8.976 -0.0672  0.4154  1.3454
42986SOL    HW233770  10.347   9.747   8.996  0.3617 -0.8206 -1.5136
42987SOL     OW33771   0.319   9.136   5.536 -0.3159 -0.0296  0.3214
42987SOL    HW133772   0.315   9.164   5.444  1.7616 -0.2920  0.0980
42987SOL    HW233773   0.311   9.041   5.532 -0.2520 -0.0384  0.4096
42988SOL     OW33774   6.101   3.097   9.065  0.5910  0.1140  0.3289
42988SOL    HW133775   6.159   3.139   9.002  0.8351 -0.9727 -0.2016
42988SOL    HW233776   6.014   3.099   9.023  0.5591  0.2890  0.4031
42989SOL     OW33777   6.741   8.121   0.718  0.5533 -0.2975  0.6203
42989SOL    HW133778   6.819   8.088   0.673 -0.5995 -1.7265 -0.4316
42989SOL    HW233779   6.760   8.214   0.733  1.7962 -0.2253 -1.0884
42990SOL     OW33780   1.304   1.337   0.863  0.2485 -0.1203 -0.2034
42990SOL    HW133781   1.315   1.335   0.768  0.1396  2.7488 -0.3849
42990SOL    HW233782   1.211   1.320   0.878 -0.0101  0.7419 -0.7535
42991SOL     OW33783   9.465   0.678  10.569  0.4397 -0.7282  0.4399
42991SOL    HW133784   9.546   0.664  10.617  0.7485  2.8395  1.2643
42991SOL    HW233785   9.494   0.699  10.480  0.5355  1.0251  0.8505
42992SOL     OW33786   4.768  12.090   9.061  0.9606  0.3599 -0.1597
42992SOL    HW133787   4.802  12.061   9.145  0.8036 -0.2882 -0.3202
42992SOL    HW233788   4.816  12.171   9.042  1.6885 -0.0111  0.0899
42993SOL     OW33789   1.019  10.142   8.503  0.0911  0.0812  0.3460
42993SOL    HW133790   1.106  10.103   8.514  0.9773  1.7383 -0.4033
42993SOL    HW233791   0.959  10.079   8.544  1.3044 -2.5217 -1.5649
42994SOL     OW33792   0.066   6.120   6.347  0.6632  0.0500 -0.7261
42994SOL    HW133793   0.132   6.155   6.288  1.5755  1.9511  1.2630
42994SOL    HW233794   0.068   6.179   6.422 -0.3520 -2.2865  1.2714
42995SOL     OW33795   1.570   1.672   9.464 -0.4259 -0.3106 -0.4824
42995SOL    HW133796   1.605   1.688   9.552  1.1321 -2.4169 -0.6497
42995SOL    HW233797   1.527   1.587   9.470  3.0074 -2.4220 -2.4975
42996SOL     OW33798   9.064   0.451   0.614 -0.2413 -0.0509  0.2009
42996SOL    HW133799   9.073   0.507   0.536 -0.0962 -0.7018 -0.2620
42996SOL    HW233800   8.995   0.389   0.591 -1.2387  0.6709  1.1679
42997SOL     OW33801  12.248   9.733  11.336 -0.0945 -0.7464 -0.5893
42997SOL    HW133802  12.171   9.681  11.356 -0.8839  0.5566 -0.1022
42997SOL    HW233803  12.254   9.733  11.240  0.0499 -1.9005 -0.5829
42998SOL     OW33804   9.705   7.950   9.766  0.1218  0.1356  0.2146
42998SOL    HW133805   9.617   7.916   9.748 -0.0442  1.1698 -1.0493
42998SOL    HW233806   9.690   8.028   9.819  0.1162  1.4088 -1.5873
42999SOL     OW33807   5.738   2.364  12.185 -0.3235  0.2717 -0.1632
42999SOL    HW133808   5.754   2.294  12.121 -1.5318 -0.3663  0.2015
42999SOL    HW233809   5.661   2.334  12.234 -0.6089  1.6713  0.2742
43000SOL     OW33810   9.732   8.161   6.558 -0.8083  0.2607 -0.8280
43000SOL    HW133811   9.752   8.240   6.509  0.3246  0.4689 -0.0790
43000SOL    HW233812   9.751   8.089   6.497 -1.3362  0.5500 -1.3362
43001SOL     OW33813   4.217   8.131   0.425  0.2131  0.1741 -0.3763
43001SOL    HW133814   4.162   8.067   0.469 -1.7244  0.5569 -2.0907
43001SOL    HW233815   4.174   8.215   0.440  0.6230  0.5647 -1.2927
43002SOL     OW33816   5.585   0.824   6.529  0.1980  0.2445 -0.4739
43002SOL    HW133817   5.678   0.827   6.508  0.0049  1.3980 -1.2525
43002SOL    HW233818   5.541   0.816   6.445 -0.3763 -1.8109 -0.0218
43003SOL     OW33819   9.982   1.442  10.956 -0.3538 -0.5936 -0.4033
43003SOL    HW133820  10.062   1.435  11.009  0.3677 -0.9989 -1.5241
43003SOL    HW233821   9.930   1.510  11.001  0.3667 -0.7026  0.6404
43004SOL     OW33822  11.568   4.244  12.555 -0.2227  0.2382 -0.2985
43004SOL    HW133823  11.657   4.276  12.543  0.2657 -1.0731 -0.3181
43004SOL    HW233824  11.539   4.222  12.466 -0.5049  0.4946 -0.2718
43005SOL     OW33825   1.830  11.649   9.116  0.1198 -0.0012 -0.1535
43005SOL    HW133826   1.904  11.593   9.093  0.1962 -0.4526  1.1157
43005SOL    HW233827   1.772  11.592   9.167 -1.1337  0.3280 -1.1580
43006SOL     OW33828  10.968   5.136   9.107  0.1671 -0.2637 -0.8575
43006SOL    HW133829  10.933   5.225   9.101 -0.5616 -0.5132 -0.4982
43006SOL    HW233830  11.056   5.148   9.143 -0.4757  0.2305  0.6587
43007SOL     OW33831   9.827   4.516   3.266 -0.5550 -0.2241  0.9530
43007SOL    HW133832   9.787   4.589   3.313 -0.7744 -0.2586  0.8182
43007SOL    HW233833   9.757   4.480   3.212 -0.5266 -0.7316  1.2509
43008SOL     OW33834   8.290   7.825  12.174  0.0491 -0.0561 -0.1211
43008SOL    HW133835   8.303   7.755  12.238 -1.0087  1.5359  1.9517
43008SOL    HW233836   8.328   7.903  12.216  0.6217  0.7820 -2.0729
43009SOL     OW33837  10.191   0.870   9.024 -0.1504  0.1879 -0.4261
43009SOL    HW133838  10.248   0.935   8.981  0.8348 -1.0341 -1.0374
43009SOL    HW233839  10.251   0.804   9.057 -1.0736  0.0215  0.9845
43010SOL     OW33840   7.486   6.624  11.730 -0.1155  0.2460  0.0942
43010SOL    HW133841   7.473   6.662  11.643 -0.3271  0.4526  0.2142
43010SOL    HW233842   7.571   6.580  11.725  0.8200  1.9376  0.3766
43011SOL     OW33843   7.774   3.575   4.310  0.5368 -0.7335 -0.2385
43011SOL    HW133844   7.753   3.570   4.217  1.2507 -1.6190 -0.3676
43011SOL    HW233845   7.791   3.668   4.326  0.4470 -0.5780 -1.0011
43012SOL     OW33846   7.993   4.239   3.395  0.1462 -0.8729  0.0933
43012SOL    HW133847   7.976   4.165   3.453 -0.0047 -2.6176 -2.0433
43012SOL    HW233848   8.046   4.203   3.325  0.8297  1.2851 -0.5936
43013SOL     OW33849  12.074   6.139   9.994  0.5196  0.5378 -0.2819
43013SOL    HW133850  12.075   6.231  10.022  0.4809  0.5851 -0.4335
43013SOL    HW233851  12.124   6.139   9.912 -0.6768  0.6630 -1.0343
43014SOL     OW33852   1.245   7.084   0.330  0.1720  0.2437 -0.0808
43014SOL    HW133853   1.153   7.100   0.353 -0.0413 -0.0640 -0.6799
43014SOL    HW233854   1.265   7.150   0.264 -0.1073 -0.6331 -1.0934
43015SOL     OW33855   7.848   8.042   2.656 -0.2682 -0.3179 -0.0478
43015SOL    HW133856   7.935   8.062   2.690 -0.1943  0.3237 -0.6027
43015SOL    HW233857   7.810   7.981   2.720 -0.1392  0.8575  1.1793
43016SOL     OW33858  10.291   5.682   3.788 -0.3439  0.1360  0.0914
43016SOL    HW133859  10.269   5.594   3.757 -0.0893 -0.1983  0.8240
43016SOL    HW233860  10.207   5.721   3.812 -0.5293  0.3479 -0.8453
43017SOL     OW33861  10.200  10.063   1.565 -0.1687  0.5202 -0.3496
43017SOL    HW133862  10.254  10.100   1.495 -0.1819  0.3062 -0.4731
43017SOL    HW233863  10.262  10.031   1.630 -0.0147 -2.0729 -1.6427
43018SOL     OW33864   1.567   3.158   2.830 -0.2206 -0.4389  0.1802
43018SOL    HW133865   1.613   3.230   2.874  2.6495  0.6054 -3.9211
43018SOL    HW233866   1.636   3.094   2.812 -1.6107 -1.6332 -1.1100
43019SOL     OW33867   5.229   6.471   3.109 -1.3391  0.8188 -0.5882
43019SOL    HW133868   5.324   6.471   3.094 -0.9013 -0.5046  1.7661
43019SOL    HW233869   5.211   6.554   3.154 -0.6383 -0.3849  2.1018
43020SOL     OW33870   6.948   2.866   9.864 -0.5731  0.0311 -0.6542
43020SOL    HW133871   6.911   2.845   9.778 -1.8891  1.1305 -0.3880
43020SOL    HW233872   7.042   2.869   9.849 -0.6898 -1.0429 -1.7745
43021SOL     OW33873   0.935  10.300   9.794  0.1801 -0.4648  0.1553
43021SOL    HW133874   0.866  10.280   9.730 -0.2183  2.2426 -0.4004
43021SOL    HW233875   0.889  10.306   9.877  0.3044 -1.6947  0.3288
43022SOL     OW33876  12.316  11.422   0.009  0.0573 -0.1057  0.7087
43022SOL    HW133877  12.376  11.349   0.025 -0.9006 -0.9072  0.7088
43022SOL    HW233878  12.322  11.476   0.088  1.9126  0.6609  0.0888
43023SOL     OW33879  12.622  11.101  12.564  0.4065 -0.2656 -0.1993
43023SOL    HW133880  12.673  11.030  12.525 -3.1355 -2.8438 -0.5908
43023SOL    HW233881  12.561  11.128  12.496 -2.1620 -0.9547  1.6737
43024SOL     OW33882   8.472   7.880  10.601 -0.2880 -0.6071  0.0436
43024SOL    HW133883   8.452   7.861  10.693  0.0853 -1.1666  0.0171
43024SOL    HW233884   8.390   7.863  10.555 -0.0432 -1.9805  0.0583
43025SOL     OW33885   1.491   7.470   4.331  0.0507 -0.2828  0.2688
43025SOL    HW133886   1.406   7.453   4.373 -1.2850  1.4469 -1.5513
43025SOL    HW233887   1.497   7.404   4.262 -0.1492  0.0110 -0.0330
43026SOL     OW33888   4.175  11.359   7.537 -0.5173  0.0603  0.1690
43026SOL    HW133889   4.144  11.272   7.512  2.4705 -1.0852  0.0732
43026SOL    HW233890   4.261  11.344   7.575 -0.1846  2.9397  0.7688
43027SOL     OW33891   5.415   5.184   5.029 -0.3835 -0.2519  0.1718
43027SOL    HW133892   5.416   5.158   4.937 -0.9085  2.4640 -0.7063
43027SOL    HW233893   5.502   5.161   5.061 -0.4352 -1.9041 -0.7728
43028SOL     OW33894  12.611   2.077   7.390 -0.2951  0.2262 -0.3286
43028SOL    HW133895  12.595   1.990   7.427  0.0456 -0.8363 -2.4974
43028SOL    HW233896  12.664   2.061   7.312  0.2274  2.4562 -0.5193
43029SOL     OW33897   6.065  10.396   0.975 -0.4319  0.0534  0.1561
43029SOL    HW133898   6.033  10.421   0.889 -0.6669 -0.4277  0.0962
43029SOL    HW233899   6.033  10.306   0.987 -0.5331  0.1686  0.8073
43030SOL     OW33900   3.963   3.920   2.321 -0.3843 -0.4376 -0.2680
43030SOL    HW133901   3.993   4.010   2.332 -2.1165  0.5956 -3.0975
43030SOL    HW233902   4.018   3.885   2.250 -0.4872 -1.2621  0.0420
43031SOL     OW33903   1.128  10.042  11.185  0.1235 -0.0472 -0.0547
43031SOL    HW133904   1.172  10.047  11.269  0.7221  0.1418 -0.3727
43031SOL    HW233905   1.089  10.129  11.173 -1.0027 -0.4395  0.5678
43032SOL     OW33906   3.027   4.756   8.163  0.1259 -0.1541  0.1527
43032SOL    HW133907   3.117   4.750   8.193  1.1739  2.1350 -2.0872
43032SOL    HW233908   2.995   4.840   8.198 -0.3128  0.1355 -0.8929
43033SOL     OW33909   9.133   4.322   5.058 -0.1416  0.5446  0.0342
43033SOL    HW133910   9.127   4.233   5.090  0.3764  0.6163  0.3453
43033SOL    HW233911   9.070   4.372   5.110 -1.4492  0.1069 -1.0872
43034SOL     OW33912  12.574   8.285   3.751 -0.2308  0.0687 -0.0118
43034SOL    HW133913  12.494   8.235   3.732  0.1543 -1.4465  1.9842
43034SOL    HW233914  12.645   8.231   3.716  0.1646 -0.6599  1.8228
43035SOL     OW33915   0.646   5.886  11.286  0.2596  0.4185  0.0263
43035SOL    HW133916   0.663   5.806  11.236  2.0580 -0.8823  2.5120
43035SOL    HW233917   0.608   5.946  11.222  1.4379 -1.4574 -2.6249
43036SOL     OW33918   7.589   4.602  10.605 -0.8017 -0.3835  0.7951
43036SOL    HW133919   7.521   4.534  10.598 -0.1739 -1.0681  1.1390
43036SOL    HW233920   7.664   4.556  10.643  0.0428  0.2185 -0.1018
43037SOL     OW33921   5.911   1.917   7.543 -0.5503  0.2764 -0.1221
43037SOL    HW133922   5.872   1.829   7.536 -0.3185  0.0791  0.8641
43037SOL    HW233923   5.879   1.950   7.627 -0.7492  1.2047 -0.5516
43038SOL     OW33924   1.810   6.494  11.554 -0.8040  0.0578 -0.0596
43038SOL    HW133925   1.862   6.506  11.475 -0.7952  0.3432 -0.0142
43038SOL    HW233926   1.865   6.530  11.624 -1.4996  1.3929 -0.1584
43039SOL     OW33927   1.069   9.207  10.796  0.1043  0.1791  0.1049
43039SOL    HW133928   1.013   9.167  10.729 -0.3067 -0.1621  0.6479
43039SOL    HW233929   1.143   9.242  10.747 -0.7366  0.9409 -0.6845
43040SOL     OW33930  11.562  10.280   2.460  0.4361  0.3904 -0.2324
43040SOL    HW133931  11.632  10.233   2.505  1.1951 -0.4318 -2.1503
43040SOL    HW233932  11.585  10.372   2.469  1.3292  0.1664 -0.1223
43041SOL     OW33933   4.991   2.175   0.605 -0.3444 -0.9635 -0.3717
43041SOL    HW133934   5.040   2.126   0.540 -3.2805 -0.2419 -3.4088
43041SOL    HW233935   4.957   2.108   0.665 -0.4940 -2.1304 -1.7126
43042SOL     OW33936   3.687   3.246   6.499 -0.5474  0.1594  0.1548
43042SOL    HW133937   3.683   3.342   6.500 -4.9404  0.1958  1.1569
43042SOL    HW233938   3.686   3.221   6.591 -0.0437 -0.8644 -0.1048
43043SOL     OW33939   6.106   5.760   0.248 -0.0796  0.3489 -0.2090
43043SOL    HW133940   6.025   5.783   0.294  0.6938  1.1295  0.7939
43043SOL    HW233941   6.103   5.664   0.240 -1.5272  0.4266 -1.0278
43044SOL     OW33942  10.464   4.932   3.463  0.5064  0.1209  0.2770
43044SOL    HW133943  10.456   4.935   3.367  2.0866 -2.1212  0.0096
43044SOL    HW233944  10.398   4.869   3.490 -0.0109  0.8337  0.7207
43045SOL     OW33945   0.934   7.296   3.721  0.4168 -0.4508  0.6591
43045SOL    HW133946   0.961   7.229   3.659  0.8684  0.0915  0.2536
43045SOL    HW233947   0.844   7.273   3.745  0.8177 -1.6109  1.1066
43046SOL     OW33948   6.190   5.724   1.268 -0.3267  0.4023 -0.1995
43046SOL    HW133949   6.209   5.811   1.233 -2.5840  0.6851 -0.8746
43046SOL    HW233950   6.259   5.669   1.232  0.8031  1.7942 -0.2609
43047SOL     OW33951  12.089   4.443   4.344 -0.7131  0.6337  0.0858
43047SOL    HW133952  12.067   4.490   4.424  1.2860 -0.3060  1.2410
43047SOL    HW233953  12.020   4.376   4.336 -2.5525  2.4907 -0.6174
43048SOL     OW33954   1.139  11.964   1.343  0.6283  0.7120 -0.2194
43048SOL    HW133955   1.219  11.912   1.357  3.1242  4.4505  1.1890
43048SOL    HW233956   1.155  12.010   1.260 -1.2026 -0.1913 -1.1157
43049SOL     OW33957   9.955   6.424   1.743  0.3211 -0.1163  0.6215
43049SOL    HW133958   9.883   6.478   1.776  0.7405  0.1639  1.0912
43049SOL    HW233959   9.974   6.458   1.656  0.3943  0.3121  0.8021
43050SOL     OW33960   4.891   7.603   0.645 -0.5307 -0.1906  0.1546
43050SOL    HW133961   4.845   7.538   0.592  1.9635 -1.0344 -1.1496
43050SOL    HW233962   4.871   7.687   0.602 -1.5943 -0.3925  0.2172
43051SOL     OW33963   2.538   2.156   1.448  0.5799 -0.2370  0.0896
43051SOL    HW133964   2.474   2.196   1.390 -0.4075 -0.5990  0.9007
43051SOL    HW233965   2.599   2.227   1.470 -0.2839  0.4449  0.3251
43052SOL     OW33966   7.811  11.970  10.675 -0.6961 -0.2034 -0.4214
43052SOL    HW133967   7.795  12.040  10.739  0.6147  0.1325 -0.4368
43052SOL    HW233968   7.762  11.996  10.598  0.9954  1.5539 -0.9891
43053SOL     OW33969   3.342   2.876   9.821 -0.3236 -0.4123 -0.6447
43053SOL    HW133970   3.315   2.790   9.853  1.5910 -1.6114 -2.0231
43053SOL    HW233971   3.436   2.878   9.836 -0.2628  1.2356 -1.1369
43054SOL     OW33972   2.290   2.979   5.085  0.0616  0.5126 -0.3203
43054SOL    HW133973   2.265   2.950   4.997  1.9238 -1.6203 -0.2575
43054SOL    HW233974   2.349   3.053   5.070  1.6692 -0.8466 -1.0390
43055SOL     OW33975   7.775  12.553   3.718 -0.2944  0.2152  0.5197
43055SOL    HW133976   7.721  12.631   3.731 -1.1628 -0.3836  0.5621
43055SOL    HW233977   7.783  12.514   3.805 -0.3620 -0.0740  0.3954
43056SOL     OW33978   3.538   8.831   6.626 -0.3951 -0.4520  0.0342
43056SOL    HW133979   3.477   8.782   6.570 -0.7997 -0.0871  0.1475
43056SOL    HW233980   3.583   8.891   6.566  0.0263 -0.8861 -0.0881
43057SOL     OW33981   6.765   7.183   2.229 -0.2770  0.3407 -0.3763
43057SOL    HW133982   6.808   7.181   2.314  0.4821 -0.6354 -0.7590
43057SOL    HW233983   6.729   7.271   2.222  0.2323  0.6461  0.6652
43058SOL     OW33984   4.650   3.172  12.419  0.3138 -0.3023  0.5701
43058SOL    HW133985   4.618   3.172  12.509  0.2395 -1.5166  0.5655
43058SOL    HW233986   4.638   3.081  12.390 -0.7759  0.3086 -1.0636
43059SOL     OW33987   1.214   7.546   8.198 -0.9187 -0.3233 -0.5178
43059SOL    HW133988   1.279   7.482   8.228 -0.0353  0.5882 -0.4264
43059SOL    HW233989   1.261   7.629   8.198 -2.2304  0.4576  0.0399
43060SOL     OW33990   0.591   1.916  10.035  0.6067 -0.1730  0.0628
43060SOL    HW133991   0.535   1.841  10.013  0.3364 -0.7703  2.4849
43060SOL    HW233992   0.679   1.890  10.007  0.4784 -1.3274  0.6682
43061SOL     OW33993   6.251  11.197   6.338  0.0968 -0.8729  0.3149
43061SOL    HW133994   6.265  11.236   6.424 -0.4479 -1.8264  0.8564
43061SOL    HW233995   6.333  11.211   6.291 -0.5554  2.2715 -0.0987
43062SOL     OW33996   5.644   4.292   4.388 -0.0854 -0.2146 -0.4152
43062SOL    HW133997   5.705   4.246   4.330  0.4545 -2.2856  1.6397
43062SOL    HW233998   5.698   4.359   4.431  0.4857 -1.1934  0.4443
43063SOL     OW33999   6.602   0.482   9.126  0.1939 -0.0779 -0.2928
43063SOL    HW134000   6.675   0.521   9.078 -1.0674  1.1579 -1.3229
43063SOL    HW234001   6.547   0.443   9.058 -1.7812  1.9338  0.0208
43064SOL     OW34002   5.131   0.646   7.177  0.2914 -0.4334 -0.0430
43064SOL    HW134003   5.212   0.645   7.228 -0.4329 -1.0322  1.1417
43064SOL    HW234004   5.073   0.705   7.225  0.1853  0.4394 -1.1859
43065SOL     OW34005   7.224   8.065  11.182  0.0618 -0.3657 -0.0160
43065SOL    HW134006   7.230   7.995  11.117  0.0060  0.6392 -1.1600
43065SOL    HW234007   7.131   8.068  11.205 -0.4054  0.8553 -1.8005
43066SOL     OW34008   4.905   2.360   5.454  0.5433 -0.1096 -0.2209
43066SOL    HW134009   4.829   2.414   5.431 -0.3011 -1.4080 -0.6077
43066SOL    HW234010   4.883   2.325   5.540  0.3120 -1.1424 -0.6859
43067SOL     OW34011   4.708   4.339   3.561 -0.1720 -0.0451 -0.3128
43067SOL    HW134012   4.716   4.296   3.476  1.4640 -0.3224 -0.0490
43067SOL    HW234013   4.787   4.393   3.568  0.7983 -1.6015  1.8802
43068SOL     OW34014  10.871   6.272  10.053 -0.2258 -0.7794 -0.1268
43068SOL    HW134015  10.919   6.313   9.981  0.3336 -1.6148 -0.2533
43068SOL    HW234016  10.901   6.181  10.052 -1.8298 -1.3331 -0.2026
43069SOL     OW34017   0.696   0.921   0.852 -0.0329  0.3867 -0.0270
43069SOL    HW134018   0.622   0.870   0.820 -0.8008  0.7620  1.1051
43069SOL    HW234019   0.737   0.956   0.773 -0.2046 -0.9638 -0.7532
43070SOL     OW34020  10.097   0.604   0.880 -0.7356 -0.0550  0.6453
43070SOL    HW134021  10.098   0.605   0.976 -1.1807 -1.5137  0.6908
43070SOL    HW234022  10.112   0.512   0.857 -1.3387  0.1505 -0.6755
43071SOL     OW34023   9.017   2.854   9.519  0.1031  0.1396 -0.2606
43071SOL    HW134024   8.927   2.885   9.513  0.8320  2.3775 -0.6383
43071SOL    HW234025   9.067   2.912   9.461  1.7628 -1.2512 -0.3436
43072SOL     OW34026   9.573   6.317   8.296 -0.4773 -0.1872 -0.1439
43072SOL    HW134027   9.603   6.339   8.207 -1.5320 -1.4272 -0.8363
43072SOL    HW234028   9.548   6.401   8.333  0.1616  0.3826 -0.9381
43073SOL     OW34029   2.712   2.512  12.204  0.2276  0.1900  0.3600
43073SOL    HW134030   2.668   2.597  12.203 -0.2345 -0.0114  1.9374
43073SOL    HW234031   2.646   2.451  12.235  0.3544 -0.8931 -1.3745
43074SOL     OW34032   9.715   1.843   0.417  0.1838  0.1899  0.0809
43074SOL    HW134033   9.755   1.908   0.475  0.4455  0.4044 -0.3376
43074SOL    HW234034   9.660   1.790   0.475  0.0515  0.7149  0.4421
43075SOL     OW34035   6.037   0.340   2.373  0.0946 -0.0308 -0.1978
43075SOL    HW134036   6.098   0.293   2.430  0.7088  0.0875 -0.7400
43075SOL    HW234037   6.044   0.296   2.288 -1.4710 -0.7565  0.0347
43076SOL     OW34038   4.325   4.624  10.714  0.0422 -0.0569 -0.1636
43076SOL    HW134039   4.371   4.567  10.652  0.9864  2.5259 -2.0121
43076SOL    HW234040   4.358   4.598  10.800  1.1992 -1.5693 -1.0085
43077SOL     OW34041   2.628  10.872   4.772  0.4333  0.3798 -0.0210
43077SOL    HW134042   2.669  10.823   4.843  0.6546  1.6906  0.7838
43077SOL    HW234043   2.552  10.914   4.813 -1.3917 -1.4522 -1.3217
43078SOL     OW34044  11.811   1.717   6.149  0.1593  0.9439  0.0972
43078SOL    HW134045  11.718   1.708   6.171  0.2559 -0.7062 -0.0152
43078SOL    HW234046  11.853   1.739   6.233  0.0721 -1.8214  0.9688
43079SOL     OW34047   6.184   7.175   1.065 -0.1513  0.3457 -0.0927
43079SOL    HW134048   6.094   7.167   1.032 -0.2303  1.4310 -0.1698
43079SOL    HW234049   6.198   7.094   1.114 -1.7537  0.8388  1.2876
43080SOL     OW34050   2.009   3.284  10.866  0.4149 -0.2022 -0.4218
43080SOL    HW134051   1.922   3.303  10.829  0.5915  0.8466 -0.3389
43080SOL    HW234052   2.039   3.207  10.818 -0.0491  0.1495 -1.3161
43081SOL     OW34053   5.758  11.059   6.861  0.4705  0.2355 -0.4303
43081SOL    HW134054   5.849  11.087   6.850  1.5984 -3.4020 -2.0290
43081SOL    HW234055   5.740  11.074   6.954  2.0711  2.5607 -0.3945
43082SOL     OW34056   3.636   0.284   1.778 -0.0067 -0.4084  0.0917
43082SOL    HW134057   3.586   0.361   1.751  1.8995  1.3428  1.2057
43082SOL    HW234058   3.652   0.236   1.697 -0.3499  0.9491 -0.8104
43083SOL     OW34059   4.309   2.051   3.792  0.1946 -0.9999 -0.1950
43083SOL    HW134060   4.295   2.066   3.886  2.2302 -2.2063  0.3804
43083SOL    HW234061   4.330   2.137   3.756 -0.3531 -0.5663  0.5014
43084SOL     OW34062   6.371   2.825   1.952  0.6277  0.0136  0.3235
43084SOL    HW134063   6.375   2.770   2.030  0.4624  0.5917  0.7501
43084SOL    HW234064   6.443   2.887   1.962  0.6515  0.0444 -0.0172
43085SOL     OW34065   7.830   1.572   4.652 -0.1200  0.1791 -0.0635
43085SOL    HW134066   7.924   1.567   4.672 -0.3114  0.2046  0.8970
43085SOL    HW234067   7.787   1.554   4.736 -0.9818 -0.2844 -0.5864
43086SOL     OW34068  11.232  11.915   0.730 -0.2673 -0.4316  0.4128
43086SOL    HW134069  11.219  11.921   0.825 -1.7928  1.3120  0.1534
43086SOL    HW234070  11.148  11.881   0.698 -0.3360  0.4907 -0.4218
43087SOL     OW34071   0.292   5.377  11.433  0.0087  0.0216  0.4922
43087SOL    HW134072   0.222   5.325  11.472  0.1762 -0.8465 -0.3307
43087SOL    HW234073   0.343   5.408  11.508  1.6123 -3.4121  0.9903
43088SOL     OW34074   2.555   8.501   8.035  0.6653 -0.0028 -0.1451
43088SOL    HW134075   2.552   8.405   8.032  1.0806 -0.0028 -0.9823
43088SOL    HW234076   2.497   8.529   7.965  2.6210  0.2879 -1.7575
43089SOL     OW34077   7.729   9.479   0.255  0.1628 -0.9776 -0.8470
43089SOL    HW134078   7.787   9.404   0.266 -0.3585 -1.2744  0.0553
43089SOL    HW234079   7.770   9.549   0.306 -0.7560 -1.4904  0.6824
43090SOL     OW34080   1.697   8.444   1.279  0.6759 -0.2387 -0.1849
43090SOL    HW134081   1.787   8.471   1.260  0.2863  1.2995  0.0290
43090SOL    HW234082   1.706   8.358   1.321  2.1887  0.6770  1.4912
43091SOL     OW34083   3.094  11.591   4.240 -0.7372  0.5263  0.4087
43091SOL    HW134084   3.080  11.667   4.295 -0.3604  1.2572 -0.4808
43091SOL    HW234085   3.177  11.554   4.270  0.3404  1.9113 -0.7503
43092SOL     OW34086  10.978   2.253   6.523 -0.0178  1.0084 -0.1423
43092SOL    HW134087  10.910   2.292   6.577  0.6185  0.7656  0.8487
43092SOL    HW234088  10.947   2.266   6.433 -1.8206  0.1001  0.2895
43093SOL     OW34089  10.974   6.578   5.173 -0.2111 -0.1090  0.1271
43093SOL    HW134090  11.039   6.647   5.158 -0.5598  0.0437 -0.7607
43093SOL    HW234091  10.945   6.591   5.264 -0.5955  1.2105 -0.1628
43094SOL     OW34092  11.811   3.772  10.032  0.1149  0.4958 -0.0769
43094SOL    HW134093  11.733   3.719  10.048 -0.0373  0.9416  0.6956
43094SOL    HW234094  11.883   3.718  10.063 -0.0320  0.6952  0.6247
43095SOL     OW34095   0.684   1.364   8.286 -0.5520  0.4005  0.0154
43095SOL    HW134096   0.685   1.450   8.328  0.5748  0.3539  0.1102
43095SOL    HW234097   0.722   1.380   8.199  0.4106 -0.1226  0.3223
43096SOL     OW34098   9.728   1.984  11.873  0.3741  0.2305  0.1177
43096SOL    HW134099   9.778   1.930  11.934  0.3089  1.1001  0.9795
43096SOL    HW234100   9.709   1.927  11.799  1.4082 -0.5357  0.4210
43097SOL     OW34101   6.842   4.632   1.252  0.4875 -0.2881  0.5119
43097SOL    HW134102   6.828   4.726   1.244  1.1300 -0.1978  0.4586
43097SOL    HW234103   6.763   4.593   1.214  0.9833  0.1998 -1.0616
43098SOL     OW34104   5.329   4.831   0.601  0.8946 -0.1850  0.2703
43098SOL    HW134105   5.385   4.909   0.599  0.1313  0.3669  0.2090
43098SOL    HW234106   5.362   4.777   0.529  1.5513 -0.0124  0.4329
43099SOL     OW34107   4.203   2.185   5.368 -0.8951  0.8102  0.2897
43099SOL    HW134108   4.171   2.164   5.456 -2.0543 -0.3179 -0.3598
43099SOL    HW234109   4.128   2.225   5.324 -1.0681 -0.6580 -0.8466
43100SOL     OW34110  12.414   5.661   3.761 -0.3639  0.4983 -0.0744
43100SOL    HW134111  12.413   5.618   3.847 -0.5124 -0.5261 -0.5698
43100SOL    HW234112  12.408   5.589   3.699  0.7757  1.1660 -0.9777
43101SOL     OW34113   9.367   1.508   7.927 -0.3747 -0.6770 -0.1333
43101SOL    HW134114   9.454   1.506   7.966 -0.5045 -1.1764  0.1488
43101SOL    HW234115   9.352   1.417   7.899  0.4439 -0.0286 -3.0030
43102SOL     OW34116  10.871   5.412  11.083 -0.0211 -0.0032 -0.0124
43102SOL    HW134117  10.830   5.341  11.033 -0.7753 -0.4431  1.2145
43102SOL    HW234118  10.925   5.368  11.148 -1.4781  0.5104  1.5908
43103SOL     OW34119  11.439   2.524   4.776  0.1033  0.4386  0.1523
43103SOL    HW134120  11.373   2.586   4.744 -0.2971 -0.1997 -0.2716
43103SOL    HW234121  11.521   2.572   4.772  0.3510 -0.0033 -3.2032
43104SOL     OW34122   6.317   0.347   1.263 -0.4194 -0.7326 -0.2313
43104SOL    HW134123   6.327   0.315   1.353  0.2077 -0.3166 -0.1436
43104SOL    HW234124   6.265   0.280   1.219 -1.1929 -0.6890  0.5765
43105SOL     OW34125  10.787  10.466   7.159  0.1550 -0.3787 -0.1258
43105SOL    HW134126  10.837  10.399   7.206  0.4697 -1.5578 -2.0538
43105SOL    HW234127  10.797  10.444   7.067 -2.9510  0.0242 -0.6713
43106SOL     OW34128   8.983  12.622  12.321  0.4393  0.0443  0.4407
43106SOL    HW134129   8.899  12.576  12.321 -0.6284  1.8717  1.6889
43106SOL    HW234130   9.044  12.560  12.281 -1.3754 -1.5399 -0.0311
43107SOL     OW34131  12.492   4.595  11.561  0.2175 -0.3022  0.1023
43107SOL    HW134132  12.482   4.501  11.576  0.8633 -0.4254 -0.1837
43107SOL    HW234133  12.536   4.627  11.640  0.5021 -0.3412 -0.0392
43108SOL     OW34134   6.271   6.321   0.731  0.0179 -0.2213  1.0636
43108SOL    HW134135   6.215   6.382   0.780 -0.1298 -0.6412  1.4250
43108SOL    HW234136   6.357   6.364   0.728 -0.3972  0.5872  0.2028
43109SOL     OW34137   1.331  10.018  11.410  0.4231  0.5654  0.1888
43109SOL    HW134138   1.257  10.001  11.469  0.9172 -2.2635  0.1176
43109SOL    HW234139   1.390  10.074  11.461 -0.6892  0.9739  1.0872
43110SOL     OW34140  10.158   1.542  12.538  0.0402  0.2867  0.2917
43110SOL    HW134141  10.114   1.610  12.488  0.8850 -0.0222 -0.9073
43110SOL    HW234142  10.121   1.549  12.626 -1.4719  0.8457 -0.3566
43111SOL     OW34143   4.292  11.702   1.103  0.5893  0.0155 -0.0683
43111SOL    HW134144   4.261  11.773   1.048 -0.1134 -0.8418 -0.8085
43111SOL    HW234145   4.242  11.626   1.074  1.4013 -0.8036  0.6337
43112SOL     OW34146  10.020   0.282   8.102 -0.6458 -0.4318  0.3938
43112SOL    HW134147  10.077   0.305   8.028  2.5037 -1.1371  2.4076
43112SOL    HW234148  10.002   0.188   8.089 -0.9720 -0.3194  0.0073
43113SOL     OW34149   7.853  12.398   7.884 -0.0373 -0.3748  0.1397
43113SOL    HW134150   7.910  12.339   7.935  0.7403  1.4380  1.5059
43113SOL    HW234151   7.779  12.344   7.859  0.0994 -1.6888  2.2815
43114SOL     OW34152   0.478   1.261   7.571  1.2343 -0.0632  0.0554
43114SOL    HW134153   0.492   1.300   7.484  0.3579 -3.5901 -1.8341
43114SOL    HW234154   0.400   1.305   7.604  0.2136 -0.2314 -1.9925
43115SOL     OW34155   2.760   4.262   3.891 -0.2740  0.0301  0.8454
43115SOL    HW134156   2.819   4.337   3.901 -0.2227  0.0542  0.3890
43115SOL    HW234157   2.792   4.217   3.813  0.9455 -1.6269  2.2316
43116SOL     OW34158  12.062   0.938   6.642 -0.2623 -0.0495 -0.0421
43116SOL    HW134159  12.122   0.865   6.659  0.1071  0.0453 -0.8737
43116SOL    HW234160  11.980   0.896   6.617 -0.8073 -0.1913  1.8420
43117SOL     OW34161   8.927   1.195   0.892  0.1606  0.0866  0.4492
43117SOL    HW134162   8.871   1.213   0.967  0.1080 -0.2002  0.4805
43117SOL    HW234163   8.928   1.276   0.842 -2.6052 -0.7095 -1.0885
43118SOL     OW34164   0.701  10.349  11.215  0.0869 -0.3497 -0.2562
43118SOL    HW134165   0.699  10.445  11.216 -0.6052 -0.2399 -3.0702
43118SOL    HW234166   0.627  10.323  11.269  0.3158  0.6765  0.5848
43119SOL     OW34167   8.817  10.801   2.508 -0.5299 -0.3742 -0.3796
43119SOL    HW134168   8.794  10.777   2.419 -1.5524 -1.7261  0.2216
43119SOL    HW234169   8.872  10.879   2.498 -2.3102  0.7441 -2.0589
43120SOL     OW34170   5.474   2.330  10.595  0.3128 -0.3761 -0.1090
43120SOL    HW134171   5.485   2.322  10.500  1.0595 -0.2772 -0.0370
43120SOL    HW234172   5.521   2.410  10.618  0.9000 -0.8774  0.4649
43121SOL     OW34173   8.591   6.359   4.758  0.4725  0.6823 -0.3129
43121SOL    HW134174   8.523   6.416   4.722 -1.2081 -1.0966 -0.1127
43121SOL    HW234175   8.557   6.271   4.747  1.8759 -0.1688  1.6061
43122SOL     OW34176  12.338   3.231   1.303 -0.0057  0.0026 -0.1921
43122SOL    HW134177  12.326   3.311   1.354 -2.3857  0.9098 -1.9935
43122SOL    HW234178  12.422   3.196   1.332  0.1809  2.0919  2.0567
43123SOL     OW34179   1.345   2.341  10.211  0.0138 -0.3822  0.2146
43123SOL    HW134180   1.264   2.357  10.163 -0.1309 -0.9320  0.2672
43123SOL    HW234181   1.342   2.402  10.284 -0.1051 -0.0364 -0.0790
43124SOL     OW34182   4.730   5.469   7.818  0.6235  0.3283 -0.3292
43124SOL    HW134183   4.770   5.504   7.738  0.5804 -0.5181 -0.7332
43124SOL    HW234184   4.677   5.396   7.788 -1.4728  1.5598  0.1551
43125SOL     OW34185  10.814   6.133   7.500  0.1428 -0.1712  0.0266
43125SOL    HW134186  10.761   6.066   7.544 -2.3131  1.4752 -0.1961
43125SOL    HW234187  10.799   6.212   7.552 -0.0921  1.0483 -1.8144
43126SOL     OW34188  11.717   4.456   4.245 -0.2301 -0.1374  0.0523
43126SOL    HW134189  11.749   4.498   4.325 -2.0697  0.0746  0.7402
43126SOL    HW234190  11.622   4.455   4.256 -0.4959 -0.5106 -1.9539
43127SOL     OW34191   0.575   1.707   1.918 -0.9487  0.1405  0.2376
43127SOL    HW134192   0.577   1.760   1.997  0.5277  0.3995  0.0617
43127SOL    HW234193   0.654   1.733   1.870  0.9244 -3.4564  1.0107
43128SOL     OW34194   7.590   9.071   8.026  0.3795  0.5758  0.2417
43128SOL    HW134195   7.635   9.023   8.096 -0.6410 -0.7680  0.0149
43128SOL    HW234196   7.660   9.118   7.981  1.6885 -1.7953 -0.3809
43129SOL     OW34197   1.491   8.597   9.443  0.2039  0.6226  0.1813
43129SOL    HW134198   1.456   8.686   9.439 -0.7946  0.2158 -1.0407
43129SOL    HW234199   1.424   8.547   9.490  0.4124  0.3683  0.2094
43130SOL     OW34200   3.712   8.740  12.547  0.1490 -0.1373 -0.4900
43130SOL    HW134201   3.793   8.725  12.498  1.8325  1.9511  1.4601
43130SOL    HW234202   3.714   8.674  12.617  0.5627  0.3796 -0.0084
43131SOL     OW34203   8.699  10.012  11.347 -0.1136  0.7741  0.0589
43131SOL    HW134204   8.742   9.992  11.264 -2.4423 -2.8790 -0.5020
43131SOL    HW234205   8.760   9.978  11.414 -0.1282 -0.2758 -0.4455
43132SOL     OW34206   0.242   1.523   9.077 -0.1109  0.5371 -0.5457
43132SOL    HW134207   0.176   1.459   9.051  0.0493  0.2868 -0.3286
43132SOL    HW234208   0.320   1.472   9.096  0.1877  0.8461 -0.9316
43133SOL     OW34209   3.858   0.953  11.411  0.2311 -0.1312  0.6370
43133SOL    HW134210   3.939   0.938  11.362 -0.0373  0.4597  0.0110
43133SOL    HW234211   3.840   1.046  11.400 -0.1406 -0.1094  1.3908
43134SOL     OW34212   1.306   9.670   0.328  0.2793  0.2656  0.2205
43134SOL    HW134213   1.320   9.764   0.317  0.5886  0.1298 -0.5662
43134SOL    HW234214   1.252   9.664   0.407  0.0713  1.1127  0.1577
43135SOL     OW34215   3.125  11.195  10.143  0.0824  0.2682 -0.0668
43135SOL    HW134216   3.175  11.206  10.225  0.2182 -0.8210  0.0074
43135SOL    HW234217   3.193  11.183  10.076 -0.0359 -1.9863  0.1445
43136SOL     OW34218   5.439   0.263  10.251 -0.0968  0.0516 -0.6177
43136SOL    HW134219   5.519   0.312  10.270 -0.3258  0.1422  0.1216
43136SOL    HW234220   5.437   0.256  10.155 -0.4082  2.0788 -0.7957
43137SOL     OW34221   7.243   7.992   7.720 -0.3616  0.1209  0.4442
43137SOL    HW134222   7.187   7.978   7.643  0.7016 -0.8099 -0.1944
43137SOL    HW234223   7.210   7.930   7.785  0.4963 -1.1371 -0.2711
43138SOL     OW34224   0.073   1.462   6.326  0.0652  0.3980 -0.5530
43138SOL    HW134225   0.156   1.456   6.375 -0.2941  0.0676  0.0327
43138SOL    HW234226   0.080   1.543   6.277 -0.1966  1.5529  1.2388
43139SOL     OW34227   4.522   5.829  11.151 -0.0295 -0.4632  0.1822
43139SOL    HW134228   4.525   5.899  11.086  1.2738 -0.0863  0.6047
43139SOL    HW234229   4.481   5.755  11.106  1.0322 -0.2885 -1.1421
43140SOL     OW34230  12.098  12.390   1.200 -0.1349  0.5668  0.0027
43140SOL    HW134231  12.068  12.419   1.286 -1.9094  1.0988 -0.7527
43140SOL    HW234232  12.183  12.433   1.189 -0.8692  2.2822  0.6000
43141SOL     OW34233   9.007   4.483  10.901  0.3924  0.0302 -0.4232
43141SOL    HW134234   9.069   4.556  10.900 -0.7215  0.9929 -0.6202
43141SOL    HW234235   8.924   4.521  10.875 -0.4649 -1.1012  0.5353
43142SOL     OW34236  11.239   7.715  12.543  0.0250  0.0876  0.4772
43142SOL    HW134237  11.285   7.720  12.627 -0.1012 -0.2777  0.5707
43142SOL    HW234238  11.305   7.737  12.478 -0.3004  2.2256  0.7882
43143SOL     OW34239  10.130   5.081   5.902  0.4627 -0.4181 -0.2800
43143SOL    HW134240  10.054   5.097   5.846 -0.4199  1.3556  1.3207
43143SOL    HW234241  10.134   5.157   5.960  2.4649 -1.2739  0.8003
43144SOL     OW34242   5.547   9.203   0.558  0.2224 -0.3632  0.4369
43144SOL    HW134243   5.623   9.151   0.531 -0.6991 -0.8549 -1.4149
43144SOL    HW234244   5.557   9.214   0.652  3.1327  0.5201  0.1046
43145SOL     OW34245   9.190   2.908  10.372 -0.2047  0.2095 -0.0968
43145SOL    HW134246   9.242   2.844  10.323 -1.3110 -0.3057 -0.6304
43145SOL    HW234247   9.207   2.887  10.464  0.4033 -0.0575 -0.2665
43146SOL     OW34248  10.955  10.018   2.415  0.1639 -0.1458 -0.1842
43146SOL    HW134249  11.004  10.053   2.490  0.2778  1.3024 -0.9127
43146SOL    HW234250  11.006   9.942   2.387  1.0320  0.2965  0.1603
43147SOL     OW34251  10.596  11.738   8.832  0.1785 -0.5547  0.0651
43147SOL    HW134252  10.634  11.713   8.915 -0.2602 -1.5140 -0.0103
43147SOL    HW234253  10.667  11.727   8.768  0.2692 -0.6545  0.1838
43148SOL     OW34254  10.692  11.404   5.736 -0.0190 -0.6479  1.0684
43148SOL    HW134255  10.780  11.443   5.733  0.5278 -1.6427  2.6244
43148SOL    HW234256  10.700  11.321   5.690 -0.4078 -0.2938  0.3546
43149SOL     OW34257   4.621   5.234   1.135  0.4460  0.4839 -0.0246
43149SOL    HW134258   4.677   5.172   1.181 -0.6280  0.7867  1.7729
43149SOL    HW234259   4.656   5.320   1.159 -0.0188  0.6416  0.0993
43150SOL     OW34260  12.327   5.016   4.725 -0.1432  0.5817 -0.0885
43150SOL    HW134261  12.288   5.090   4.678 -0.5262 -0.2303 -1.1041
43150SOL    HW234262  12.358   4.958   4.655  0.4140 -0.0730  0.6926
43151SOL     OW34263   3.598  11.130   7.707 -0.6100 -0.4937 -0.2267
43151SOL    HW134264   3.641  11.203   7.663 -0.3001 -0.6771 -0.2309
43151SOL    HW234265   3.656  11.108   7.780 -0.1145 -1.4677 -0.8840
43152SOL     OW34266   3.540   6.207   7.816 -0.0162 -0.0498 -0.2565
43152SOL    HW134267   3.608   6.152   7.856 -0.7276  0.1841  1.3404
43152SOL    HW234268   3.532   6.282   7.875 -0.2011  0.9984 -1.5529
43153SOL     OW34269   5.450   6.782   5.019 -0.1925 -0.2248  0.0520
43153SOL    HW134270   5.417   6.860   4.973  1.2952 -0.6235 -1.8215
43153SOL    HW234271   5.403   6.709   4.979  0.3560 -0.4944 -0.1130
43154SOL     OW34272  11.569   4.480   8.132 -0.1517  0.1506  0.0289
43154SOL    HW134273  11.652   4.460   8.175 -2.6352 -2.1399  4.4227
43154SOL    HW234274  11.542   4.563   8.169 -0.8005 -0.1935  0.3376
43155SOL     OW34275   1.798   5.384   2.686  0.1002 -0.3875  0.0803
43155SOL    HW134276   1.774   5.420   2.601 -0.0187 -1.9441 -0.5828
43155SOL    HW234277   1.868   5.441   2.718  0.2064  0.1695 -1.1051
43156SOL     OW34278   8.270   7.537   2.824 -0.0271  0.2434 -0.2377
43156SOL    HW134279   8.359   7.519   2.794 -0.1362  1.2673 -1.2304
43156SOL    HW234280   8.281   7.581   2.908  0.4455  1.1231 -0.7491
43157SOL     OW34281   9.747   9.211   9.194  0.0127 -0.4408  0.5928
43157SOL    HW134282   9.735   9.300   9.162  0.1618 -0.7211 -0.2594
43157SOL    HW234283   9.821   9.217   9.256  0.8209 -0.1781 -0.3730
43158SOL     OW34284   4.974   8.107  11.909  0.4539  0.4286  0.6149
43158SOL    HW134285   5.060   8.136  11.939  0.9569 -0.0625 -0.2716
43158SOL    HW234286   4.978   8.011  11.914  0.6655  0.2951 -1.1461
43159SOL     OW34287  11.458   0.070   8.832  0.3446  0.0435 -0.4091
43159SOL    HW134288  11.435   0.023   8.912 -0.6223 -0.8029 -1.1628
43159SOL    HW234289  11.534   0.122   8.856  0.1165 -0.2578  1.0381
43160SOL     OW34290   4.488  12.441   7.066 -0.3357 -0.0118 -0.2247
43160SOL    HW134291   4.531  12.444   6.980  2.6899 -0.2482  1.1280
43160SOL    HW234292   4.541  12.379   7.116 -2.2996 -0.2305  1.7096
43161SOL     OW34293   0.468   0.318   9.224 -0.3011  0.2933  0.1782
43161SOL    HW134294   0.501   0.394   9.175  0.9942 -0.5599 -0.3129
43161SOL    HW234295   0.443   0.256   9.156 -2.9887  0.8751  0.5236
43162SOL     OW34296   7.683  10.418   1.287 -0.7379 -0.0836 -0.0754
43162SOL    HW134297   7.740  10.372   1.225 -0.2497 -1.6223  1.4432
43162SOL    HW234298   7.743  10.455   1.351 -1.1283  2.6661 -1.1588
43163SOL     OW34299   9.165   2.939   7.936 -0.0890 -0.3844  0.0433
43163SOL    HW134300   9.107   2.863   7.935 -0.1130 -0.5508  2.9830
43163SOL    HW234301   9.125   3.001   7.875 -0.8891 -2.1365 -1.2839
43164SOL     OW34302   9.264   5.990   3.949 -0.3152 -0.0622 -0.3465
43164SOL    HW134303   9.306   5.906   3.971  1.4409  0.8544 -0.0132
43164SOL    HW234304   9.190   5.996   4.010  0.9237 -0.3257  1.2631
43165SOL     OW34305   4.974   5.862   1.185 -0.2044  0.8116  0.1653
43165SOL    HW134306   5.042   5.913   1.141 -1.1988  0.7277 -1.5741
43165SOL    HW234307   4.945   5.799   1.119 -0.6379 -0.4398  1.5055
43166SOL     OW34308   7.870   2.206   3.604  0.8616  0.7499  0.2455
43166SOL    HW134309   7.808   2.145   3.565  1.1587  0.6336 -0.0463
43166SOL    HW234310   7.954   2.161   3.602  0.8955  0.7638  0.9745
43167SOL     OW34311   7.913   1.608   2.745  0.6152 -0.3768  0.3435
43167SOL    HW134312   7.889   1.671   2.677 -0.6744 -1.8965 -0.6883
43167SOL    HW234313   7.976   1.550   2.702  1.1955 -0.2599  1.0315
43168SOL     OW34314   5.228   3.570  10.489 -0.2028  0.0691 -0.0042
43168SOL    HW134315   5.253   3.545  10.400 -2.2339 -3.6226  0.2703
43168SOL    HW234316   5.208   3.487  10.532 -0.2647  1.8081  3.6322
43169SOL     OW34317   8.450   0.049   4.551  0.7379  0.0599 -0.4386
43169SOL    HW134318   8.403  -0.033   4.533 -2.1266  1.7035 -0.9723
43169SOL    HW234319   8.441   0.061   4.646 -1.9329  1.4072 -0.7893
43170SOL     OW34320  10.749  11.310   7.697 -0.3845  0.0543  0.4132
43170SOL    HW134321  10.733  11.250   7.624 -1.1922 -0.4764  1.0136
43170SOL    HW234322  10.815  11.267   7.750 -0.0811  0.2630  0.2087
43171SOL     OW34323  11.448   7.913  12.389 -0.2796  0.4587  0.3369
43171SOL    HW134324  11.392   7.941  12.317 -2.0536  0.0429  1.4983
43171SOL    HW234325  11.471   7.823  12.368  0.9276  0.9646 -0.6829
43172SOL     OW34326   2.859   4.069   0.212 -0.7579  0.1518  0.0918
43172SOL    HW134327   2.806   4.073   0.132 -0.5920  0.5657  0.0002
43172SOL    HW234328   2.918   3.995   0.198 -1.6519 -0.6327  0.4094
43173SOL     OW34329   4.858  11.775   4.460 -0.8072 -0.1891 -0.0089
43173SOL    HW134330   4.895  11.759   4.547 -1.4397 -1.6826  0.0257
43173SOL    HW234331   4.790  11.840   4.473 -0.7183 -0.2138  0.5756
43174SOL     OW34332   0.908  10.045  10.327 -0.3593  0.0670 -0.0375
43174SOL    HW134333   0.996  10.048  10.363  0.1266  0.3243 -1.1892
43174SOL    HW234334   0.863  10.119  10.368 -0.6261 -1.1016  1.9167
43175SOL     OW34335   6.296   6.262   3.581 -0.1574  0.2063 -0.9245
43175SOL    HW134336   6.346   6.258   3.663 -2.5809  0.1944  0.6369
43175SOL    HW234337   6.334   6.336   3.534  1.5781 -0.0603 -0.0406
43176SOL     OW34338   1.690   8.407   2.063  0.5383 -0.2700  0.3781
43176SOL    HW134339   1.628   8.457   2.010  1.1127 -0.5053 -0.5399
43176SOL    HW234340   1.680   8.442   2.152 -0.3374  0.2312  0.0871
43177SOL     OW34341   4.737   7.428   8.330 -0.1095 -0.3606  0.2850
43177SOL    HW134342   4.687   7.404   8.253  1.2924 -0.2673 -0.6874
43177SOL    HW234343   4.747   7.346   8.379  0.9958 -0.9307 -0.8433
43178SOL     OW34344   7.135   1.973   7.396 -1.0028  0.1759  0.1214
43178SOL    HW134345   7.201   1.951   7.462  0.1755  1.5309 -0.5587
43178SOL    HW234346   7.083   1.893   7.386  0.2129 -0.7610  1.0451
43179SOL     OW34347   3.154  12.436   5.607  0.0524  0.3973 -0.1460
43179SOL    HW134348   3.100  12.376   5.557 -1.6510  0.7347  1.1625
43179SOL    HW234349   3.193  12.382   5.676 -0.9860  0.6267  0.6560
43180SOL     OW34350   1.586   8.846   8.355 -0.3060  0.0357 -0.1614
43180SOL    HW134351   1.520   8.777   8.364 -1.2774  0.7450 -1.3853
43180SOL    HW234352   1.642   8.817   8.283 -0.7439  0.5181 -0.7100
43181SOL     OW34353  10.771   9.079   8.246  0.1849 -0.0892 -0.0688
43181SOL    HW134354  10.758   9.171   8.225  0.9552  0.0744  0.1369
43181SOL    HW234355  10.701   9.058   8.308  0.3463  0.5069  0.3177
43182SOL     OW34356   5.197  12.548  10.826  0.3537  0.2288 -0.4218
43182SOL    HW134357   5.136  12.511  10.762 -0.2344  0.1416  0.1718
43182SOL    HW234358   5.251  12.609  10.776 -0.8949  1.0757 -0.7818
43183SOL     OW34359   3.188   6.053  11.638  0.2570 -0.9408 -0.1866
43183SOL    HW134360   3.127   6.128  11.640  1.2821 -0.0226 -1.5038
43183SOL    HW234361   3.274   6.092  11.654  0.6109 -2.1279  0.9205
43184SOL     OW34362   9.757   1.899  11.077  0.1964 -0.3197  0.4710
43184SOL    HW134363   9.794   1.974  11.124  0.4318 -1.0323  1.4498
43184SOL    HW234364   9.665   1.922  11.064  0.8183  1.2793 -1.5942
43185SOL     OW34365  12.213   8.598  12.408 -0.2716 -0.1163 -0.3479
43185SOL    HW134366  12.154   8.523  12.405 -0.9617  0.4492 -2.0447
43185SOL    HW234367  12.196   8.639  12.493  0.7096 -2.2930  0.9817
43186SOL     OW34368  11.477   0.077   4.395 -0.2517 -0.0378  0.1425
43186SOL    HW134369  11.449  -0.014   4.406 -1.2121  0.3281  0.8130
43186SOL    HW234370  11.510   0.102   4.482  0.8341 -0.0100 -0.2661
43187SOL     OW34371   2.269   8.012   3.149  0.2202  0.5359  0.3988
43187SOL    HW134372   2.311   7.930   3.120 -0.3138  0.3277  0.1953
43187SOL    HW234373   2.296   8.076   3.084  2.7719  1.1834  1.9259
43188SOL     OW34374   7.082   2.477   5.653 -0.0021 -0.3508  0.0948
43188SOL    HW134375   7.041   2.414   5.594  2.4289 -1.2732 -0.7341
43188SOL    HW234376   7.070   2.439   5.740 -0.3095 -0.9384 -0.1951
43189SOL     OW34377  11.852   3.028   7.892 -0.1121  0.6392 -0.0488
43189SOL    HW134378  11.769   3.057   7.854  0.2055  1.2772 -0.2727
43189SOL    HW234379  11.847   3.057   7.983 -0.9573 -1.0662  0.4796
43190SOL     OW34380  12.415   9.793   8.041 -0.1472  0.2088  1.0048
43190SOL    HW134381  12.435   9.800   7.948  0.0654 -0.3515  1.0066
43190SOL    HW234382  12.433   9.881   8.076 -2.2407  1.0516  0.1538
43191SOL     OW34383   9.663   4.498  11.397  0.0779  0.2088 -0.0226
43191SOL    HW134384   9.668   4.525  11.306 -0.7560 -1.5309 -0.6366
43191SOL    HW234385   9.740   4.537  11.438 -0.1533  1.9760 -1.1736
43192SOL     OW34386   5.051   9.087   2.782  0.1797  0.0791  0.1705
43192SOL    HW134387   5.116   9.113   2.847  0.9678  0.3160 -0.6797
43192SOL    HW234388   5.027   9.168   2.737 -0.7494 -0.0015  0.5074
43193SOL     OW34389   7.442   1.671   0.389  0.8196 -0.3934 -0.0330
43193SOL    HW134390   7.516   1.731   0.402  0.5497 -0.2193  0.7860
43193SOL    HW234391   7.371   1.726   0.358  0.6164 -0.3086  0.5719
43194SOL     OW34392   5.230  10.490   8.100  0.2949 -0.0464  0.3533
43194SOL    HW134393   5.204  10.417   8.042 -1.3427 -0.1042  1.0841
43194SOL    HW234394   5.269  10.447   8.176  1.9566  0.0043 -0.4401
43195SOL     OW34395   0.568   7.416   3.508  0.7078  0.9480 -0.3181
43195SOL    HW134396   0.591   7.350   3.443  0.0252  0.8514 -0.4649
43195SOL    HW234397   0.473   7.427   3.500  0.2846 -0.4582  1.9526
43196SOL     OW34398   7.854   2.767   9.552  0.3342 -0.1114 -0.0073
43196SOL    HW134399   7.875   2.860   9.558 -0.3649  0.0657 -0.2010
43196SOL    HW234400   7.781   2.763   9.491  0.0574 -0.7412  0.3513
43197SOL     OW34401   3.570   6.893   2.758 -0.5536  0.3618  0.0710
43197SOL    HW134402   3.526   6.978   2.751 -0.8627  0.3491  1.4668
43197SOL    HW234403   3.499   6.831   2.772 -0.2015  0.1819  1.1734
43198SOL     OW34404   6.970   6.624  12.297 -0.2817 -0.0495 -0.0285
43198SOL    HW134405   6.971   6.701  12.241  0.8470  0.0867  0.1496
43198SOL    HW234406   6.880   6.618  12.330 -1.1918 -0.5884 -2.4558
43199SOL     OW34407  11.125   3.655   1.773  0.4346  0.1357 -0.2390
43199SOL    HW134408  11.148   3.582   1.715 -1.9873 -1.5433  0.7393
43199SOL    HW234409  11.038   3.682   1.744  0.7638  1.8031  0.2415
43200SOL     OW34410   7.259   5.255   7.013  0.0736  0.2737  0.1374
43200SOL    HW134411   7.327   5.303   7.059 -0.8163  0.5948  1.1629
43200SOL    HW234412   7.179   5.305   7.030 -0.3879  0.0567 -1.2516
43201SOL     OW34413   7.065   8.340   0.846  0.2294  0.0352 -0.1960
43201SOL    HW134414   7.129   8.359   0.915  0.5652 -0.0908 -0.4663
43201SOL    HW234415   7.090   8.253   0.814  0.1799  0.1653 -0.5898
43202SOL     OW34416   2.760   9.264   6.155  0.4565  0.1103  0.3155
43202SOL    HW134417   2.800   9.297   6.236 -0.2454 -0.3946  0.8792
43202SOL    HW234418   2.777   9.333   6.090  1.3104  0.3802  0.8017
43203SOL     OW34419   3.293  12.257   0.995  0.2883 -0.1912 -0.0189
43203SOL    HW134420   3.272  12.191   1.060  0.5470 -0.7108 -0.4582
43203SOL    HW234421   3.261  12.221   0.912 -1.1174  0.9864 -0.0207
43204SOL     OW34422  11.826   2.451   2.296  0.3200 -0.5516  0.2819
43204SOL    HW134423  11.910   2.412   2.271  1.0060  0.5923  0.7260
43204SOL    HW234424  11.844   2.545   2.301 -1.3143 -0.1391 -0.8913
43205SOL     OW34425   5.175   2.104   2.118  0.0025 -0.4677  0.5031
43205SOL    HW134426   5.187   2.009   2.117  1.7911 -0.2714  0.9500
43205SOL    HW234427   5.200   2.131   2.206  0.0220  0.4916  0.2186
43206SOL     OW34428   7.579   7.669  10.847 -0.4093 -0.5897  0.5917
43206SOL    HW134429   7.620   7.592  10.808  3.3289  1.2962  0.3266
43206SOL    HW234430   7.486   7.648  10.848 -0.0134 -3.6104 -2.7803
43207SOL     OW34431  10.820   6.987   0.037  0.9561 -0.4794  0.6215
43207SOL    HW134432  10.818   7.075  -0.001 -0.2809 -0.9470 -0.4746
43207SOL    HW234433  10.764   6.993   0.114  2.1101  0.0471  1.4512
43208SOL     OW34434   4.098   4.927   0.019 -0.0507 -0.2527  0.5611
43208SOL    HW134435   4.016   4.912   0.067 -0.5838 -4.1582 -1.1924
43208SOL    HW234436   4.136   4.839   0.008  2.6454  1.0314 -1.6493
43209SOL     OW34437   3.844   7.628   8.470 -0.9276 -0.0143  0.1125
43209SOL    HW134438   3.859   7.577   8.550  0.2184  0.6420  0.3398
43209SOL    HW234439   3.774   7.689   8.493  0.4375  1.2288  1.1561
43210SOL     OW34440   0.217   8.908   9.996  0.6341  0.2522  0.8258
43210SOL    HW134441   0.283   8.963  10.038  0.2450  1.2542  0.1570
43210SOL    HW234442   0.199   8.951   9.913  0.0961 -0.7323  0.4128
43211SOL     OW34443  12.610   8.401   7.579  0.3068  0.3203 -0.5531
43211SOL    HW134444  12.677   8.381   7.513 -0.9154 -0.1309 -1.6970
43211SOL    HW234445  12.529   8.407   7.529 -0.3637  1.9687  0.6453
43212SOL     OW34446   8.584   1.313   1.265  0.8491  0.7883 -0.3318
43212SOL    HW134447   8.611   1.403   1.278 -1.2862  1.4140  0.1774
43212SOL    HW234448   8.495   1.308   1.301 -0.2621 -0.7379 -2.8981
43213SOL     OW34449   0.166  10.711   0.231  0.1766 -0.1206 -0.1108
43213SOL    HW134450   0.121  10.661   0.163 -2.9660 -0.6506  2.0863
43213SOL    HW234451   0.155  10.802   0.205 -3.4312 -0.1385  0.8042
43214SOL     OW34452   6.858   1.527   1.538 -0.0204 -0.5479  0.1044
43214SOL    HW134453   6.826   1.526   1.448 -1.9842  0.5727  0.7366
43214SOL    HW234454   6.893   1.439   1.552  0.5975 -0.6569 -1.8136
43215SOL     OW34455   3.296   9.850   3.500 -0.2020 -0.0475  0.6062
43215SOL    HW134456   3.324   9.925   3.448  0.4836 -0.3295  0.5605
43215SOL    HW234457   3.211   9.876   3.535 -0.1767  0.5733  0.2313
43216SOL     OW34458   4.962   5.282   7.182  0.0719 -0.0928 -0.2871
43216SOL    HW134459   4.933   5.336   7.108 -1.2263 -1.4219 -0.8006
43216SOL    HW234460   5.035   5.231   7.147 -2.5964 -3.2002 -1.8598
43217SOL     OW34461   9.634   8.714   5.626  0.2255  0.5781 -0.4933
43217SOL    HW134462   9.605   8.732   5.716 -0.7813 -0.8330 -0.4899
43217SOL    HW234463   9.716   8.665   5.637 -0.1232  0.0234 -0.3144
43218SOL     OW34464   9.748   7.302   2.420  0.3143 -0.4187 -0.0091
43218SOL    HW134465   9.746   7.219   2.372  0.2384 -0.4604  0.0644
43218SOL    HW234466   9.798   7.361   2.365  0.5696 -0.5813  0.0440
43219SOL     OW34467   4.196  12.134  11.796  0.3200  0.4550 -0.4555
43219SOL    HW134468   4.105  12.154  11.774  0.9112  0.9223 -2.7467
43219SOL    HW234469   4.227  12.212  11.843 -0.3628  0.4532 -0.0058
43220SOL     OW34470   9.421  12.102  11.012 -0.3038  0.1984  0.6938
43220SOL    HW134471   9.402  12.192  11.038  1.2082  0.2953  1.5942
43220SOL    HW234472   9.463  12.109  10.926 -1.6652  0.2079  0.0193
43221SOL     OW34473   6.847  10.132   7.128 -0.5051  0.0187 -0.3458
43221SOL    HW134474   6.771  10.105   7.180  0.5328  0.3248  1.4056
43221SOL    HW234475   6.917  10.072   7.155  0.5126  1.2742 -0.0776
43222SOL     OW34476  11.192   5.382   9.560  0.1498 -0.7713  0.1747
43222SOL    HW134477  11.128   5.394   9.630 -2.2127  2.1524 -2.2442
43222SOL    HW234478  11.252   5.456   9.569  0.1558 -0.6838 -0.5469
43223SOL     OW34479   9.267   6.699   5.010 -0.3733 -0.3078 -0.4999
43223SOL    HW134480   9.332   6.770   5.011 -0.5044 -0.0980 -2.6241
43223SOL    HW234481   9.183   6.743   5.022 -0.2312 -0.5126  1.5963
43224SOL     OW34482   4.606   4.934   6.513 -0.2135  0.0114 -0.6110
43224SOL    HW134483   4.523   4.906   6.475  0.4454 -2.3214 -0.4861
43224SOL    HW234484   4.670   4.873   6.477  1.7837  2.7477 -1.9943
43225SOL     OW34485   4.181   0.235   1.754 -0.3747  0.3603  0.5234
43225SOL    HW134486   4.211   0.326   1.757  0.3645  0.2469 -1.4609
43225SOL    HW234487   4.199   0.200   1.841  0.4263  1.7926  0.9623
43226SOL     OW34488   1.805  12.197   8.191 -0.6877 -0.2993  0.1009
43226SOL    HW134489   1.892  12.164   8.168  0.4764  2.3023  0.3763
43226SOL    HW234490   1.752  12.118   8.202  1.7304 -2.0217  0.3567
43227SOL     OW34491   5.645   0.339   7.783 -0.0465  0.1337 -0.0746
43227SOL    HW134492   5.556   0.323   7.813  0.1367 -0.1083  0.3411
43227SOL    HW234493   5.678   0.408   7.840  0.5510 -0.8309  0.7749
43228SOL     OW34494   1.841  11.083   2.172  0.4422 -0.0641 -0.2038
43228SOL    HW134495   1.854  11.069   2.079  1.1868  0.7376 -0.2349
43228SOL    HW234496   1.747  11.099   2.181  0.4548  0.4482 -0.9037
43229SOL     OW34497   4.314   7.223  10.001 -0.0622 -0.3516  0.3860
43229SOL    HW134498   4.353   7.226  10.088 -0.0253 -0.6583  0.3788
43229SOL    HW234499   4.309   7.130   9.979  0.0259 -0.2721  0.0170
43230SOL     OW34500   1.889   2.562   5.634  0.0858  0.2562  0.5033
43230SOL    HW134501   1.840   2.589   5.557 -0.0787 -1.0524  0.1253
43230SOL    HW234502   1.821   2.540   5.699  0.1086 -2.1448 -0.2255
43231SOL     OW34503   9.692  11.990  12.265  0.2661 -0.1894  0.1540
43231SOL    HW134504   9.601  11.990  12.234  0.1603  0.8376  0.4521
43231SOL    HW234505   9.743  12.017  12.188  0.3341 -0.7696 -0.0135
43232SOL     OW34506   1.528  12.204   6.053 -0.4331 -0.0703  0.3103
43232SOL    HW134507   1.583  12.206   5.974 -0.6236 -1.9011  0.0815
43232SOL    HW234508   1.458  12.267   6.035  0.9364  1.4468  0.1253
43233SOL     OW34509   5.929  11.957   7.484  0.4839  0.4746  0.4318
43233SOL    HW134510   5.960  12.047   7.498  0.4965  0.4823  0.3565
43233SOL    HW234511   5.950  11.912   7.565  1.6634  0.2090  0.0029
43234SOL     OW34512   6.402   8.011   9.537 -0.6077 -0.3539  0.7363
43234SOL    HW134513   6.463   7.937   9.530 -0.6408 -0.4119  1.0705
43234SOL    HW234514   6.387   8.038   9.446 -0.0340 -0.2977  0.6563
43235SOL     OW34515   1.287   1.820   9.967 -0.2875  0.0654  0.0441
43235SOL    HW134516   1.263   1.906  10.004  0.1152 -0.6086  2.0110
43235SOL    HW234517   1.370   1.836   9.922 -0.6955  0.9002 -0.4387
43236SOL     OW34518   3.868   8.193   6.554 -0.4556  0.0758 -0.8772
43236SOL    HW134519   3.817   8.236   6.622 -1.0786  0.7833 -1.7666
43236SOL    HW234520   3.956   8.231   6.561 -0.1284 -0.8368  0.3800
43237SOL     OW34521   0.713   3.525   8.694  0.8652  0.5540  0.0270
43237SOL    HW134522   0.747   3.542   8.606 -0.4540  1.5166 -0.3331
43237SOL    HW234523   0.647   3.456   8.681  1.2053  0.1533  0.3922
43238SOL     OW34524   8.340  10.072   8.418  0.0934 -0.5299 -0.0791
43238SOL    HW134525   8.412  10.135   8.424 -1.4123  1.1506  2.3537
43238SOL    HW234526   8.291  10.100   8.340  1.2497 -0.8166 -0.9366
43239SOL     OW34527   7.426   8.725   2.193  0.1522 -0.3790 -0.1069
43239SOL    HW134528   7.513   8.701   2.162  1.4352 -0.8597  3.3342
43239SOL    HW234529   7.422   8.820   2.183  2.2702  0.0501  1.9981
43240SOL     OW34530   3.746   3.184   6.762  0.2621 -0.2219 -0.0458
43240SOL    HW134531   3.692   3.233   6.823 -1.0399 -0.1520 -1.2046
43240SOL    HW234532   3.835   3.212   6.780 -0.2770  1.1255  0.6134
43241SOL     OW34533  10.963   7.781   4.081  0.5238 -0.1400 -0.4466
43241SOL    HW134534  10.877   7.782   4.123  1.2837  0.2917  1.1826
43241SOL    HW234535  10.964   7.700   4.030 -0.8898 -0.0850 -0.6037
43242SOL     OW34536   4.347   1.102   0.231  0.1872 -0.2073  0.3815
43242SOL    HW134537   4.356   1.192   0.262 -2.0860  0.4979 -0.7954
43242SOL    HW234538   4.366   1.107   0.137 -1.8325 -0.5135 -0.0944
43243SOL     OW34539  10.702  12.102   0.871 -0.3737  0.5313 -0.0419
43243SOL    HW134540  10.611  12.117   0.895 -0.5408  0.9625 -0.8943
43243SOL    HW234541  10.719  12.012   0.897 -0.8249  0.6668  0.7618
43244SOL     OW34542   1.549   4.982   1.167  0.0776  0.0843  0.5638
43244SOL    HW134543   1.534   4.986   1.072 -0.5215 -0.6860  0.6237
43244SOL    HW234544   1.575   5.071   1.190 -2.3118  0.9780  0.0974
43245SOL     OW34545   4.682  10.810   6.763 -0.0843 -0.7242  0.6154
43245SOL    HW134546   4.745  10.755   6.716  0.8389  0.5544  0.3142
43245SOL    HW234547   4.609  10.821   6.702  0.2930 -0.5740  0.1905
43246SOL     OW34548   4.113   1.017   3.143 -0.2925 -0.6001 -0.4538
43246SOL    HW134549   4.100   0.926   3.117 -1.9596 -0.2712 -0.8634
43246SOL    HW234550   4.106   1.067   3.062 -0.3534 -0.0294 -0.1044
43247SOL     OW34551   8.572   9.521   4.380  0.3013  0.0662 -0.1275
43247SOL    HW134552   8.590   9.428   4.362 -0.7568 -0.1599 -0.0568
43247SOL    HW234553   8.558   9.560   4.294  0.5694  0.1211 -0.1459
43248SOL     OW34554   3.710  10.007   4.345  0.0430  0.1948  0.1620
43248SOL    HW134555   3.622  10.037   4.368 -0.0216  0.8940 -0.9432
43248SOL    HW234556   3.699   9.962   4.261  0.5830 -0.5964  0.5021
43249SOL     OW34557   9.730   8.018  12.154 -0.4963  0.0076 -0.4097
43249SOL    HW134558   9.662   7.951  12.144 -1.3317  0.3911  1.9988
43249SOL    HW234559   9.775   7.994  12.235  0.9289  0.9157 -0.8982
43250SOL     OW34560   7.353  11.771   9.690  0.1881 -0.1373 -0.0586
43250SOL    HW134561   7.278  11.714   9.707 -0.8486  0.6670 -1.6932
43250SOL    HW234562   7.314  11.855   9.664  1.6094  0.0182 -1.9034
43251SOL     OW34563  11.775   9.598   1.792  0.1146 -0.5095 -0.5499
43251SOL    HW134564  11.770   9.563   1.881 -0.1636  0.5160 -0.1423
43251SOL    HW234565  11.859   9.567   1.758  2.0420  2.0786  1.4177
43252SOL     OW34566   4.064   6.210   0.987  0.5305 -0.2447  0.3034
43252SOL    HW134567   4.073   6.131   0.933  1.1554 -1.4639  2.0931
43252SOL    HW234568   3.976   6.241   0.969  0.7365 -0.5446 -1.4502
43253SOL     OW34569   1.987   5.820   9.779  0.0636 -0.7291  0.7323
43253SOL    HW134570   2.054   5.863   9.832  1.8171  1.7948 -3.0708
43253SOL    HW234571   2.027   5.738   9.750  0.4565 -0.5053  0.6383
43254SOL     OW34572   3.432   3.307   0.443  0.0670  0.1517 -0.2758
43254SOL    HW134573   3.443   3.377   0.378 -1.5015 -0.2658 -1.0441
43254SOL    HW234574   3.369   3.247   0.403  0.3881 -1.0378  0.9206
43255SOL     OW34575   2.643  12.584  10.585 -0.1168 -0.5739  0.6880
43255SOL    HW134576   2.657  12.579  10.680 -0.6227  1.9062  0.9537
43255SOL    HW234577   2.713  12.642  10.554 -1.0094  0.0656 -0.1692
43256SOL     OW34578   0.869  12.618  10.468 -0.4342  0.2966 -0.8860
43256SOL    HW134579   0.865  12.680  10.541 -0.3137  0.3389 -0.9161
43256SOL    HW234580   0.798  12.556  10.485  1.9778 -2.1117  1.4357
43257SOL     OW34581   4.885   2.417   0.661 -0.0507 -0.0171 -0.2061
43257SOL    HW134582   4.918   2.327   0.657 -0.1283 -0.0032 -1.4992
43257SOL    HW234583   4.918   2.451   0.744  2.6873 -0.1997 -1.1269
43258SOL     OW34584   0.417  12.643   9.873  0.1958 -0.3516 -0.3252
43258SOL    HW134585   0.362  12.572   9.905  1.7656 -0.8327  1.4520
43258SOL    HW234586   0.500  12.601   9.850  0.3742  0.5852 -1.5094
43259SOL     OW34587   7.598   8.410   6.576 -0.0676 -0.0379  0.3471
43259SOL    HW134588   7.689   8.390   6.557  0.1648  1.2322 -0.0100
43259SOL    HW234589   7.601   8.452   6.662 -0.4102 -0.6105  0.6448
43260SOL     OW34590   0.389  10.222   6.593 -0.2515 -0.1344 -0.0413
43260SOL    HW134591   0.348  10.139   6.569  0.6054 -0.8396  0.7986
43260SOL    HW234592   0.323  10.289   6.575 -0.0135 -0.6286 -3.4209
43261SOL     OW34593  11.235   6.303   9.457 -0.1844 -0.6676 -0.3561
43261SOL    HW134594  11.307   6.253   9.494 -1.7407 -1.8352  1.2666
43261SOL    HW234595  11.215   6.260   9.374 -1.7039 -3.0781  1.1550
43262SOL     OW34596  11.809   3.432  10.740  0.4510  0.3653  0.1434
43262SOL    HW134597  11.832   3.341  10.718  1.1641  0.4670  0.4500
43262SOL    HW234598  11.854   3.449  10.822  1.2320  1.3586 -0.4662
43263SOL     OW34599   1.075   0.736   7.188  0.0184  0.2391  0.1797
43263SOL    HW134600   1.161   0.764   7.156 -0.6788  0.5547 -1.5553
43263SOL    HW234601   1.067   0.778   7.273  1.1970  0.9871 -0.0437
43264SOL     OW34602  10.581  10.064   7.648 -0.4132 -0.2173  0.2759
43264SOL    HW134603  10.621  10.123   7.711 -1.3144 -2.3983  3.1193
43264SOL    HW234604  10.486  10.073   7.662 -0.6727 -0.5246 -1.0611
43265SOL     OW34605   8.287   3.973   6.239  0.1318  0.4631  0.5628
43265SOL    HW134606   8.342   3.901   6.270  1.3032  1.1351  0.1081
43265SOL    HW234607   8.207   3.965   6.290  0.6723 -0.4953  1.3060
43266SOL     OW34608   4.013  12.292   3.611  0.4319 -0.1053 -0.0077
43266SOL    HW134609   4.075  12.220   3.603  1.2257  0.0685  3.2949
43266SOL    HW234610   3.972  12.279   3.696 -1.8716  1.5266 -0.7713
43267SOL     OW34611   7.925   5.251   3.964 -0.1929 -0.0128  0.1414
43267SOL    HW134612   7.962   5.206   3.888 -0.3328 -2.4372  1.4058
43267SOL    HW234613   7.836   5.216   3.972  0.0147 -0.2706  1.7203
43268SOL     OW34614  12.517   4.985   6.275 -0.2478 -0.3159 -0.0967
43268SOL    HW134615  12.488   4.894   6.281 -0.8810 -0.0271  1.9708
43268SOL    HW234616  12.509   5.006   6.182 -1.7360 -1.8502 -0.3806
43269SOL     OW34617   7.151   9.437  11.394  0.4944 -0.2754 -0.1856
43269SOL    HW134618   7.116   9.372  11.454 -0.3036 -0.1111 -0.4626
43269SOL    HW234619   7.076   9.464  11.341  0.9547  0.3852 -0.5167
43270SOL     OW34620   9.635   6.742   9.462  0.6687 -0.9272 -0.4046
43270SOL    HW134621   9.643   6.660   9.511 -0.3882  0.2225  1.7978
43270SOL    HW234622   9.565   6.790   9.505  2.3296  1.8575 -0.5538
43271SOL     OW34623  11.443   9.297  11.502  0.2532 -0.4181  0.2674
43271SOL    HW134624  11.528   9.331  11.530  0.7583 -1.1696 -0.2961
43271SOL    HW234625  11.445   9.305  11.406 -0.1886 -0.7250  0.2304
43272SOL     OW34626   8.067   9.172   2.382 -0.3003 -0.0316  0.0660
43272SOL    HW134627   8.055   9.190   2.475 -2.8411  0.3095 -0.2581
43272SOL    HW234628   8.027   9.086   2.369 -0.8698  0.3479 -0.8466
43273SOL     OW34629  11.274   9.489   9.237 -0.0853  0.3938  0.2740
43273SOL    HW134630  11.310   9.571   9.271 -1.0560  1.2031 -0.6276
43273SOL    HW234631  11.352   9.436   9.219  0.6423  1.7217 -0.6738
43274SOL     OW34632   7.124   9.391   0.144 -0.7090  0.0702 -0.4164
43274SOL    HW134633   7.183   9.390   0.069  0.4586 -0.4767  0.4771
43274SOL    HW234634   7.045   9.436   0.112  0.0471  0.5095 -1.7353
43275SOL     OW34635   4.687   9.217   1.397 -0.2748  0.1869  0.0987
43275SOL    HW134636   4.693   9.148   1.331 -2.5048 -0.3217  0.3475
43275SOL    HW234637   4.694   9.299   1.348 -0.3541 -0.1982 -0.5620
43276SOL     OW34638   2.909  12.450   3.672  0.5233  0.2355  0.1352
43276SOL    HW134639   2.924  12.375   3.731 -2.9923 -0.8678 -0.1305
43276SOL    HW234640   2.814  12.460   3.671  0.6775  2.4630 -2.6801
43277SOL     OW34641   2.316  10.584   3.782 -0.4028 -0.0935  0.1433
43277SOL    HW134642   2.387  10.599   3.844 -1.1937  0.2320  0.9872
43277SOL    HW234643   2.315  10.489   3.769  0.4364 -0.0664 -0.1956
43278SOL     OW34644   2.039   6.877   8.951  0.5969 -0.2470  0.0511
43278SOL    HW134645   2.124   6.862   8.992 -0.0265 -1.0970  1.0526
43278SOL    HW234646   2.020   6.796   8.903  2.1362  1.2978 -3.5956
43279SOL     OW34647   4.367  11.146   8.482 -0.0371 -0.4241  0.2551
43279SOL    HW134648   4.370  11.199   8.403 -1.0873  0.1340  0.5640
43279SOL    HW234649   4.442  11.176   8.534 -1.3163  1.7413  0.9992
43280SOL     OW34650   8.648   4.192   2.738 -0.0252  0.3441  0.1694
43280SOL    HW134651   8.686   4.250   2.671 -0.5210  0.3302 -0.1320
43280SOL    HW234652   8.700   4.209   2.816 -0.1558  1.2083  0.0869
43281SOL     OW34653  10.530   3.247   0.270 -1.1280 -0.1059 -0.4661
43281SOL    HW134654  10.523   3.168   0.324  3.0341 -1.6063 -1.7456
43281SOL    HW234655  10.547   3.318   0.332 -0.4549 -1.0779  0.4900
43282SOL     OW34656   2.771   7.669   1.710  0.2459 -0.3809  0.2902
43282SOL    HW134657   2.800   7.586   1.749 -1.5082 -0.0209  2.5710
43282SOL    HW234658   2.700   7.645   1.651  1.1278 -0.6825 -0.6599
43283SOL     OW34659   6.056  11.208   7.892 -0.0619 -0.0008 -0.1295
43283SOL    HW134660   6.071  11.219   7.985 -0.4456 -0.0693 -0.0568
43283SOL    HW234661   5.961  11.203   7.883 -0.0919  0.9883 -0.6252
43284SOL     OW34662   7.801   5.763   4.180  0.3004 -0.3809  0.2821
43284SOL    HW134663   7.846   5.695   4.231  1.4455  2.2027  3.0087
43284SOL    HW234664   7.720   5.780   4.227  0.7277  1.1105  0.5464
43285SOL     OW34665   1.333   3.640   6.200  0.1987 -0.8150  0.1986
43285SOL    HW134666   1.292   3.570   6.251 -0.5170 -1.1464 -0.8105
43285SOL    HW234667   1.403   3.673   6.256  0.4058 -2.1995  0.7758
43286SOL     OW34668   7.844   7.601   2.421 -0.5850  0.0528  0.4080
43286SOL    HW134669   7.843   7.571   2.512  1.9985 -1.3094  0.0931
43286SOL    HW234670   7.822   7.523   2.370  0.5327  0.1189 -0.2064
43287SOL     OW34671  11.024   1.134  11.732 -0.3643 -0.4878  0.0136
43287SOL    HW134672  11.022   1.206  11.796  2.2466  0.0714 -0.3913
43287SOL    HW234673  11.002   1.057  11.783 -1.1109  0.3131  0.9473
43288SOL     OW34674   8.999  12.142   3.769 -0.3813 -0.4458  0.1192
43288SOL    HW134675   9.023  12.112   3.681  0.8298 -1.0359  0.6165
43288SOL    HW234676   8.956  12.226   3.755 -0.3691 -0.6156 -1.0498
43289SOL     OW34677  10.491   6.861   2.378 -0.0529 -0.5838  0.3120
43289SOL    HW134678  10.519   6.952   2.383 -2.1732  0.1094  0.6069
43289SOL    HW234679  10.471   6.837   2.468  0.1309 -1.2270  0.1876
43290SOL     OW34680  11.298   5.233   1.410  0.3134 -0.2786  0.0797
43290SOL    HW134681  11.205   5.246   1.390  0.0231 -3.2029 -0.8896
43290SOL    HW234682  11.298   5.172   1.484  1.4997  0.0419  0.3694
43291SOL     OW34683  10.970   0.856   3.321  0.6602  0.2770  0.0290
43291SOL    HW134684  10.985   0.763   3.340 -0.1575  0.0030 -0.5881
43291SOL    HW234685  11.049   0.900   3.351  0.2708 -0.3683  2.1596
43292SOL     OW34686  11.276   4.002   2.963 -0.3383 -0.0922 -0.0827
43292SOL    HW134687  11.262   4.086   2.919  0.6761 -0.5755 -1.3651
43292SOL    HW234688  11.368   3.981   2.947 -0.0609 -0.5463  1.8552
43293SOL     OW34689   1.123   4.858   7.532 -0.0876  0.4997  0.0373
43293SOL    HW134690   1.146   4.786   7.590  1.7002  0.6291 -0.4520
43293SOL    HW234691   1.084   4.815   7.456  2.0976 -0.1531 -0.8131
43294SOL     OW34692  11.944  10.313   1.276  0.2316 -0.7275  0.2488
43294SOL    HW134693  11.944  10.301   1.181  0.6826  0.7312  0.0324
43294SOL    HW234694  11.891  10.241   1.310 -0.8083 -0.6806 -1.1969
43295SOL     OW34695   6.715  11.085  12.110 -0.0774  0.3078  0.4813
43295SOL    HW134696   6.637  11.036  12.086 -0.4614  1.4553 -0.7146
43295SOL    HW234697   6.687  11.177  12.108  1.8922  0.9652 -2.5460
43296SOL     OW34698   3.972   3.061   2.998  0.5013 -0.0890 -0.0532
43296SOL    HW134699   4.020   3.125   2.945 -0.4459  1.1526  0.5389
43296SOL    HW234700   4.041   3.006   3.035  1.4209  1.0014 -0.0561
43297SOL     OW34701   6.305   5.040   5.616 -0.0173 -0.0264  0.1010
43297SOL    HW134702   6.259   5.069   5.537  0.7484 -0.3192 -0.4626
43297SOL    HW234703   6.242   5.055   5.687 -0.8688 -0.1480 -0.6086
43298SOL     OW34704   4.529   1.484   0.477 -0.3895  0.1500  0.1779
43298SOL    HW134705   4.579   1.566   0.474  0.5753 -0.4350 -0.3714
43298SOL    HW234706   4.538   1.447   0.389  1.3274 -1.7500  1.0483
43299SOL     OW34707   6.427   3.475   4.003 -0.1842  0.4550  0.0020
43299SOL    HW134708   6.516   3.472   4.038 -1.0070  0.9495  2.2997
43299SOL    HW234709   6.420   3.395   3.951  1.3623  0.0394  0.3558
43300SOL     OW34710   8.725   0.715   0.430 -0.9463  0.5663  0.5797
43300SOL    HW134711   8.796   0.707   0.494 -1.5301 -0.0549  1.1671
43300SOL    HW234712   8.656   0.659   0.464 -1.1420 -0.0722 -0.7840
43301SOL     OW34713   7.884   3.172   4.240  0.4789 -1.0383  0.6516
43301SOL    HW134714   7.883   3.235   4.313 -1.2225  0.5948 -0.7005
43301SOL    HW234715   7.793   3.167   4.211  1.1739 -1.3201 -1.6339
43302SOL     OW34716  10.821   9.619   8.949 -0.4032  0.2469  0.7694
43302SOL    HW134717  10.915   9.621   8.968  0.1345  0.6645 -1.6417
43302SOL    HW234718  10.815   9.636   8.855 -2.7701 -1.7828  0.4463
43303SOL     OW34719  11.718   3.908   4.160  0.2653  0.2459 -0.2946
43303SOL    HW134720  11.732   3.907   4.065  1.0731 -0.3905 -0.1797
43303SOL    HW234721  11.696   3.999   4.181  3.5671  1.2375 -0.6139
43304SOL     OW34722   5.576   9.626  10.690  0.0927  0.3010  0.4311
43304SOL    HW134723   5.505   9.572  10.725 -0.5043  0.9870  0.2825
43304SOL    HW234724   5.554   9.637  10.598  0.8681 -0.2234  0.1691
43305SOL     OW34725   4.085   8.877   1.562  0.5513 -0.0128  0.7498
43305SOL    HW134726   4.114   8.878   1.471  1.6335  1.2751  1.0649
43305SOL    HW234727   4.043   8.962   1.575  0.0859 -0.3266  1.3643
43306SOL     OW34728   9.158   5.944   8.811 -0.4487 -0.2544  0.1195
43306SOL    HW134729   9.147   5.871   8.872 -1.6886 -1.3602 -1.3324
43306SOL    HW234730   9.098   6.011   8.842  0.1943 -0.1050  1.0755
43307SOL     OW34731  10.015   3.783   5.577 -0.3254  0.1558 -0.1692
43307SOL    HW134732  10.086   3.793   5.640  0.0326  0.1059 -0.5610
43307SOL    HW234733  10.059   3.773   5.493 -0.7953  0.0384 -0.4040
43308SOL     OW34734  11.791   9.960  10.855  0.0755  0.0526  0.0181
43308SOL    HW134735  11.839  10.035  10.890 -0.4085 -0.6501  2.3332
43308SOL    HW234736  11.699   9.983  10.865 -0.0806 -0.8151  0.7248
43309SOL     OW34737  10.788   8.271   3.611  0.7704  0.0241  0.0270
43309SOL    HW134738  10.718   8.286   3.674  0.6377 -0.6167  0.0377
43309SOL    HW234739  10.849   8.344   3.625  0.2634  0.4149  0.2283
43310SOL     OW34740   7.931   5.312   9.043 -0.5351  0.2282 -0.5904
43310SOL    HW134741   7.856   5.260   9.015  0.1818 -1.2075  0.0772
43310SOL    HW234742   8.007   5.257   9.024  0.3128  1.3570 -0.5729
43311SOL     OW34743   9.441   9.946  11.946 -0.5621 -0.7671 -0.2666
43311SOL    HW134744   9.361   9.958  11.996 -0.5458  0.2532 -0.4474
43311SOL    HW234745   9.430  10.003  11.870  1.5036  1.7922  1.1666
43312SOL     OW34746   1.126   9.591   0.505  1.0561  0.2775 -0.0956
43312SOL    HW134747   1.103   9.505   0.541  1.3961 -0.1513 -0.8578
43312SOL    HW234748   1.078   9.654   0.558 -0.6130 -0.4906 -0.6380
43313SOL     OW34749   0.685   9.329  12.447  0.0443  0.3939 -0.3827
43313SOL    HW134750   0.746   9.368  12.509 -0.0082  0.9245 -0.6570
43313SOL    HW234751   0.719   9.354  12.361 -0.9647  1.3415 -0.5299
43314SOL     OW34752   4.108   6.886  10.356 -0.1428  0.4437 -0.3110
43314SOL    HW134753   4.198   6.915  10.373  0.3032 -0.3413 -1.2281
43314SOL    HW234754   4.105   6.873  10.261 -0.8951 -0.5856 -0.1583
43315SOL     OW34755   2.663   6.892   0.129 -0.6356 -0.3276 -0.1105
43315SOL    HW134756   2.738   6.874   0.185 -1.0285  0.3621  0.6553
43315SOL    HW234757   2.680   6.979   0.093 -1.9248  0.6869  1.5641
43316SOL     OW34758   5.571   4.652  12.191  0.1691 -0.4221 -0.2653
43316SOL    HW134759   5.485   4.688  12.169  0.7689  1.3381  0.1182
43316SOL    HW234760   5.565   4.628  12.284 -0.0462 -0.7433 -0.3621
43317SOL     OW34761   2.394   5.639   5.168 -0.3279  0.3119  0.7647
43317SOL    HW134762   2.398   5.732   5.143  0.6592  0.4704  1.4341
43317SOL    HW234763   2.413   5.639   5.262  0.3363 -0.6197  0.6411
43318SOL     OW34764   6.163   5.101   6.005 -0.5389 -0.0932  0.1671
43318SOL    HW134765   6.130   5.020   6.044  0.7790 -1.1676 -0.8399
43318SOL    HW234766   6.119   5.107   5.921 -1.2907  0.7258  0.6072
43319SOL     OW34767   2.560   3.688   8.945 -0.2368  0.0558  0.5624
43319SOL    HW134768   2.532   3.776   8.970 -0.5788  0.4537 -1.0754
43319SOL    HW234769   2.480   3.636   8.943 -0.1640 -0.0604  0.6547
43320SOL     OW34770   0.535   0.833   7.009 -0.1648 -0.1997  0.4078
43320SOL    HW134771   0.512   0.792   6.926  0.8238 -0.3502  0.1941
43320SOL    HW234772   0.452   0.861   7.047 -0.5733  0.7087 -1.0743
43321SOL     OW34773  12.437   4.466   3.963  0.2812 -0.2525  0.0715
43321SOL    HW134774  12.389   4.415   3.899  0.7193 -1.8713  0.9755
43321SOL    HW234775  12.404   4.436   4.048 -1.1872  2.7090  0.6738
43322SOL     OW34776   9.092   4.432   3.871  0.2794  0.1112  0.0109
43322SOL    HW134777   9.056   4.462   3.954  0.5154 -0.1680  0.2153
43322SOL    HW234778   9.187   4.427   3.887  0.3093 -0.0849 -0.2307
43323SOL     OW34779   2.332   8.164  11.500  0.2749 -0.1463  0.0114
43323SOL    HW134780   2.395   8.097  11.470 -0.2642 -1.5317  1.7975
43323SOL    HW234781   2.364   8.188  11.587 -1.1526 -0.2019  0.5630
43324SOL     OW34782   6.264   7.228   1.649  1.0471 -0.4242 -0.1263
43324SOL    HW134783   6.293   7.311   1.685  1.2208 -0.9101  0.8938
43324SOL    HW234784   6.335   7.199   1.593  1.7675 -0.7283  0.9175
43325SOL     OW34785   4.973   0.412  12.252  0.0431 -0.5963 -0.2035
43325SOL    HW134786   4.936   0.500  12.246 -2.2698 -1.3365  1.6234
43325SOL    HW234787   5.054   0.416  12.202  0.1510  2.6395  0.0553
43326SOL     OW34788  11.470   7.152   5.160  0.0040  0.4437 -0.0242
43326SOL    HW134789  11.420   7.141   5.241 -0.8032 -0.1608 -0.5923
43326SOL    HW234790  11.507   7.065   5.143  2.7251  1.2440  1.2990
43327SOL     OW34791  11.831   8.014   6.171  0.4169 -0.4701 -0.2049
43327SOL    HW134792  11.863   7.977   6.089  2.8035 -0.8314  0.7954
43327SOL    HW234793  11.845   8.109   6.162 -2.0802 -0.1471 -1.2836
43328SOL     OW34794   3.300   2.995  10.056  0.2592 -0.2940 -0.1327
43328SOL    HW134795   3.312   2.991   9.961  1.9076 -1.0072  0.0752
43328SOL    HW234796   3.214   3.035  10.068 -0.8551 -1.9990 -1.9588
43329SOL     OW34797   3.214  11.680   9.596  0.6129 -0.0360 -0.0567
43329SOL    HW134798   3.133  11.652   9.639  0.1778  0.1699 -0.7293
43329SOL    HW234799   3.233  11.765   9.634  0.4465 -0.0285  0.0111
43330SOL     OW34800   7.285   3.553   1.303  0.5229 -0.3619 -0.1122
43330SOL    HW134801   7.268   3.606   1.381  3.0282 -1.5856  1.4065
43330SOL    HW234802   7.204   3.502   1.290 -0.1454  0.2728  1.3455
43331SOL     OW34803   0.984   2.018  11.962  0.2244  0.0850 -0.5702
43331SOL    HW134804   0.915   1.956  11.936 -0.2520  0.9254 -1.3997
43331SOL    HW234805   1.050   1.965  12.006 -1.4097 -0.6106  1.1668
43332SOL     OW34806   6.004   6.514  11.765 -0.1713 -0.7295  0.3368
43332SOL    HW134807   6.032   6.579  11.830  0.7200 -0.4188 -0.3421
43332SOL    HW234808   5.909   6.517  11.768 -0.2580  2.6991 -1.6831
43333SOL     OW34809   9.904  10.059   8.959  0.1460 -0.4606  0.3212
43333SOL    HW134810   9.888  10.108   8.879  0.2275  0.3012  0.7652
43333SOL    HW234811   9.879   9.969   8.937 -0.2368 -0.1792 -0.4257
43334SOL     OW34812   8.341  10.582  10.173  0.2049 -0.0972  0.0225
43334SOL    HW134813   8.432  10.607  10.158  1.2122 -3.0376  0.7061
43334SOL    HW234814   8.314  10.636  10.248  1.0225  1.4644 -0.7492
43335SOL     OW34815   9.217   0.247   0.915  0.6190 -0.0484  0.1911
43335SOL    HW134816   9.253   0.211   0.996 -1.4479 -1.2805  0.6388
43335SOL    HW234817   9.232   0.342   0.922  1.9384 -0.3082  1.2299
43336SOL     OW34818   0.246   6.684   2.585  0.0262 -0.4712 -0.3523
43336SOL    HW134819   0.278   6.745   2.518 -0.2240  0.2791  0.2002
43336SOL    HW234820   0.321   6.627   2.603  0.1052 -0.6576 -1.2448
43337SOL     OW34821   0.453   8.338   0.235 -0.0215 -0.6432 -0.0015
43337SOL    HW134822   0.523   8.400   0.259 -1.6326  0.1938  3.0415
43337SOL    HW234823   0.448   8.279   0.309 -1.9403 -1.2499 -0.5710
43338SOL     OW34824   1.830  12.323   0.709 -0.1927  0.0595 -0.0083
43338SOL    HW134825   1.904  12.265   0.724 -0.5106  0.3163  3.3596
43338SOL    HW234826   1.756  12.264   0.694  0.3251 -0.2322 -1.5677
43339SOL     OW34827   5.997   9.548   8.774 -0.3153 -0.8298 -0.0943
43339SOL    HW134828   5.914   9.500   8.782  0.7081 -2.6962  0.0509
43339SOL    HW234829   6.048   9.519   8.850  0.5611  0.0869 -0.3222
43340SOL     OW34830   8.642   5.676   7.755 -0.0833 -0.2856 -0.0225
43340SOL    HW134831   8.675   5.701   7.841  1.5318 -0.8715 -0.4375
43340SOL    HW234832   8.656   5.581   7.751  0.1951 -0.2113 -1.0628
43341SOL     OW34833   0.956   7.047   5.727  0.2922 -0.0035  0.1538
43341SOL    HW134834   1.046   7.014   5.723  1.1201  2.1536 -0.0589
43341SOL    HW234835   0.948   7.088   5.813 -1.0080 -1.4149  0.7674
43342SOL     OW34836   6.073  12.450   3.859  0.4203 -0.3083 -0.0093
43342SOL    HW134837   6.049  12.474   3.770  0.9175  0.4256  0.0383
43342SOL    HW234838   6.083  12.355   3.857 -2.3897 -0.6833 -0.0285
43343SOL     OW34839   0.262   6.695   9.628  0.3107 -0.2928  0.7885
43343SOL    HW134840   0.256   6.622   9.690  0.0946 -2.1185 -1.2613
43343SOL    HW234841   0.172   6.719   9.610  0.3603 -0.1154  0.7743
43344SOL     OW34842   0.034   7.009   3.825  0.7745  0.1604  0.2159
43344SOL    HW134843   0.015   6.923   3.788 -0.7507  0.1731  0.8923
43344SOL    HW234844   0.117   7.034   3.785 -0.6027  0.0754 -3.0601
43345SOL     OW34845   1.803   4.667   2.612 -0.2803  0.3063 -0.0986
43345SOL    HW134846   1.816   4.677   2.706 -0.5651 -0.3295  0.0179
43345SOL    HW234847   1.878   4.711   2.572 -0.7107  1.5059  0.3891
43346SOL     OW34848   3.474   0.855   2.271  0.2183 -0.1186  0.6121
43346SOL    HW134849   3.393   0.813   2.242 -0.2574  0.1840  1.4597
43346SOL    HW234850   3.446   0.915   2.341  1.1945 -0.1568  1.0525
43347SOL     OW34851   7.706   7.013   8.312  0.1177 -0.5156  0.8779
43347SOL    HW134852   7.787   7.049   8.350  0.0009  1.1145 -0.3246
43347SOL    HW234853   7.733   6.929   8.274  1.5176  0.4396 -0.3694
43348SOL     OW34854   6.096   0.397   4.181 -0.1195 -0.3616  0.8837
43348SOL    HW134855   6.187   0.426   4.170 -0.2733  0.1060  0.8238
43348SOL    HW234856   6.074   0.420   4.271  0.0765 -1.2046  1.1517
43349SOL     OW34857  11.956   3.734   7.806  0.6381  0.3219 -0.1110
43349SOL    HW134858  11.952   3.794   7.880 -1.8636  0.8351 -0.5894
43349SOL    HW234859  11.867   3.702   7.795  1.3067 -1.1583 -1.7702
43350SOL     OW34860   5.480   8.298   4.113 -0.4436  0.0229 -0.4686
43350SOL    HW134861   5.491   8.372   4.054 -0.9647  0.3314 -0.1831
43350SOL    HW234862   5.476   8.337   4.200  0.8060 -0.4638 -0.1676
43351SOL     OW34863   1.287   5.557   3.652 -0.1600 -0.4399  0.5315
43351SOL    HW134864   1.199   5.548   3.689 -0.1562  0.0128  0.6582
43351SOL    HW234865   1.277   5.619   3.580  0.2132  0.3508  1.1390
43352SOL     OW34866   6.941   5.930  11.981  0.2365  0.2783 -0.0395
43352SOL    HW134867   6.912   5.979  11.904  3.3325  1.3311 -0.6599
43352SOL    HW234868   6.929   5.990  12.054  1.5478  1.0587 -0.4258
43353SOL     OW34869   5.535   3.045   4.374 -0.4122 -0.1008  0.3045
43353SOL    HW134870   5.461   3.054   4.434 -2.0974  1.4039 -1.8256
43353SOL    HW234871   5.586   3.125   4.385  1.1927 -1.2923  2.0236
43354SOL     OW34872   0.740   0.069   3.201  0.0796 -0.6964  0.1692
43354SOL    HW134873   0.780   0.098   3.284  0.4512  1.4116 -0.6774
43354SOL    HW234874   0.659   0.119   3.196  0.4674 -0.1610 -1.1187
43355SOL     OW34875  10.365   6.022   9.879 -0.1013 -0.5081  0.5781
43355SOL    HW134876  10.399   6.004   9.792 -1.2951  0.0425 -0.0294
43355SOL    HW234877  10.409   6.102   9.907 -0.4942 -0.0939  0.0236
43356SOL     OW34878   9.671   3.792   3.865 -0.2706  0.1137  0.3268
43356SOL    HW134879   9.587   3.748   3.859 -1.0449  1.2513  1.9822
43356SOL    HW234880   9.674   3.850   3.789 -0.7868 -0.2702  0.0124
43357SOL     OW34881   4.667  10.771   1.137  0.2457 -0.4789 -0.2627
43357SOL    HW134882   4.680  10.802   1.048 -2.8510  0.5501 -0.4922
43357SOL    HW234883   4.693  10.844   1.193 -0.9783  0.1916 -0.5284
43358SOL     OW34884   3.469   7.893   7.622  0.3130 -0.1609  0.2437
43358SOL    HW134885   3.470   7.823   7.688 -1.5430  1.2009  1.8461
43358SOL    HW234886   3.421   7.856   7.548 -1.4250 -0.3819  1.4165
43359SOL     OW34887   2.488   2.379   9.472 -0.1275 -0.4945  0.0460
43359SOL    HW134888   2.444   2.453   9.515 -0.4503 -0.4078 -0.4252
43359SOL    HW234889   2.580   2.389   9.495  0.1705  1.1918 -1.5831
43360SOL     OW34890   3.643   6.876   5.706  0.1728 -0.1315 -0.0041
43360SOL    HW134891   3.706   6.820   5.660  0.6610  1.6917 -1.6965
43360SOL    HW234892   3.574   6.890   5.642 -0.3095  0.5816  0.6661
43361SOL     OW34893   3.270   3.065   9.091 -0.1947 -0.5483 -0.4101
43361SOL    HW134894   3.327   3.137   9.065 -2.1243  0.4646 -2.1032
43361SOL    HW234895   3.289   2.996   9.027 -0.0339 -0.6526 -0.2499
43362SOL     OW34896  11.089  11.816   3.960  0.1322 -0.3427  0.1479
43362SOL    HW134897  11.097  11.887   4.024  2.2916 -0.7296  0.3984
43362SOL    HW234898  11.127  11.853   3.880  1.7264 -1.3131  0.4116
43363SOL     OW34899   5.390   9.599  12.355 -0.6284  0.9517 -0.3217
43363SOL    HW134900   5.344   9.599  12.271 -1.2599  1.6504  0.0050
43363SOL    HW234901   5.464   9.659  12.342  1.8153 -2.1114 -1.6460
43364SOL     OW34902   3.168   7.971   5.742 -0.0446  0.1582 -0.3089
43364SOL    HW134903   3.237   7.905   5.739  0.1778  0.3649  0.2719
43364SOL    HW234904   3.195   8.031   5.811 -1.9304 -1.0145  1.5782
43365SOL     OW34905   0.806   0.864  12.625  0.2219  0.2962  0.2661
43365SOL    HW134906   0.892   0.847  12.588  0.3450 -1.3293  1.1899
43365SOL    HW234907   0.805   0.959  12.643  0.5512  0.9475 -2.7203
43366SOL     OW34908   4.526   0.558   2.591 -0.4719  0.1852  0.7491
43366SOL    HW134909   4.518   0.554   2.496 -1.6118 -0.1905  0.8448
43366SOL    HW234910   4.619   0.543   2.608 -0.4315 -0.8454 -0.2530
43367SOL     OW34911   7.036   4.418   1.150  0.0113  0.9413  0.2078
43367SOL    HW134912   6.983   4.483   1.197 -0.5791  0.8717 -0.3384
43367SOL    HW234913   7.016   4.434   1.058  1.3308  1.2239 -0.0359
43368SOL     OW34914   2.736   5.001  10.584  0.2131 -0.6528 -0.1775
43368SOL    HW134915   2.741   5.083  10.535  0.6256  0.1774  1.2270
43368SOL    HW234916   2.782   4.938  10.529 -1.3904 -0.3520 -1.9885
43369SOL     OW34917  11.245   6.162   0.670 -0.2637  0.5202  0.3381
43369SOL    HW134918  11.243   6.245   0.622 -0.1871 -0.5297 -1.6000
43369SOL    HW234919  11.337   6.149   0.691  0.0418 -0.0023 -1.1683
43370SOL     OW34920   2.799   9.485   7.915 -0.0298 -0.7981 -0.1856
43370SOL    HW134921   2.881   9.487   7.965  0.3253 -1.7814 -0.7049
43370SOL    HW234922   2.740   9.541   7.965  1.4169  1.2904 -0.6510
43371SOL     OW34923  10.462  10.762   6.019  0.1179 -0.0057  0.3979
43371SOL    HW134924  10.390  10.794   5.964 -0.0548 -0.4195  0.3771
43371SOL    HW234925  10.479  10.833   6.080  0.9743  0.8707 -0.7985
43372SOL     OW34926   9.887   8.374   0.334  0.1149 -0.0845  0.1726
43372SOL    HW134927   9.898   8.468   0.321  1.0478 -0.1803  0.1868
43372SOL    HW234928   9.847   8.343   0.253  2.8590 -0.1733 -1.2440
43373SOL     OW34929   8.056   2.350   1.898  0.5473 -0.5788 -0.9148
43373SOL    HW134930   8.039   2.440   1.871 -2.2856 -0.7046  0.1020
43373SOL    HW234931   8.104   2.359   1.980  0.3669  0.0263 -0.8713
43374SOL     OW34932   4.772   7.870   1.520  0.0515  0.1917  0.0780
43374SOL    HW134933   4.786   7.965   1.518 -1.7017  0.5501  2.1046
43374SOL    HW234934   4.767   7.845   1.428  2.3659  1.7201 -0.5644
43375SOL     OW34935   5.025   8.128   4.022  0.0475 -0.2336 -0.1069
43375SOL    HW134936   5.021   8.131   4.117 -1.6937 -0.9897 -0.1286
43375SOL    HW234937   5.093   8.063   4.002  0.1004 -0.3991  0.6066
43376SOL     OW34938   8.404   9.102   5.280  0.6823 -0.2862 -0.1495
43376SOL    HW134939   8.360   9.184   5.303 -1.5418 -1.9296  1.9430
43376SOL    HW234940   8.384   9.090   5.187 -0.0886  0.8672 -0.1543
43377SOL     OW34941  11.595   8.107   6.902 -0.8537  0.5833  0.5742
43377SOL    HW134942  11.558   8.112   6.815  0.3927 -0.9868 -0.1056
43377SOL    HW234943  11.552   8.177   6.951 -1.9821  1.1384 -1.1278
43378SOL     OW34944   7.047   5.919   3.834 -0.3534 -0.4991 -0.2523
43378SOL    HW134945   6.979   5.860   3.864 -0.6404 -0.6127 -1.1292
43378SOL    HW234946   7.030   6.001   3.881  0.6064 -1.3377  1.7007
43379SOL     OW34947   0.186   8.697  10.505  0.8248 -0.5977  0.6794
43379SOL    HW134948   0.099   8.671  10.537  0.5562  0.7994  1.1658
43379SOL    HW234949   0.182   8.793  10.500  1.8296 -0.6054 -0.8145
43380SOL     OW34950   2.546   2.090   8.132 -0.7999 -0.0899  0.8027
43380SOL    HW134951   2.482   2.074   8.201 -0.0537 -1.0623  1.3059
43380SOL    HW234952   2.496   2.080   8.051 -1.3747 -0.4577  1.1878
43381SOL     OW34953   0.087   1.017   1.676  0.7600 -0.6081  0.4726
43381SOL    HW134954   0.182   1.030   1.684  0.6518  1.5822 -0.8545
43381SOL    HW234955   0.073   1.004   1.583 -0.2462 -1.1267  0.6853
43382SOL     OW34956  11.677   6.806  10.476  0.2386  0.0111 -0.3422
43382SOL    HW134957  11.716   6.741  10.535 -0.2859 -0.8319 -0.9110
43382SOL    HW234958  11.694   6.890  10.519 -1.4609 -0.6519  1.8049
43383SOL     OW34959  11.057  11.652  12.408  0.1812  0.0837 -0.5963
43383SOL    HW134960  11.007  11.674  12.329  0.9103  1.6434 -0.6529
43383SOL    HW234961  11.144  11.629  12.376  0.1877 -0.2906 -0.3139
43384SOL     OW34962  10.402  11.172   2.744 -0.4631  0.2873 -0.3369
43384SOL    HW134963  10.379  11.257   2.706  1.0264  0.5646 -0.6485
43384SOL    HW234964  10.492  11.156   2.716 -0.2241 -0.7317  0.9180
43385SOL     OW34965   4.137   5.591   2.046 -0.1659 -0.0909  0.2653
43385SOL    HW134966   4.212   5.610   1.990 -0.6505 -0.0302 -0.3734
43385SOL    HW234967   4.149   5.500   2.072  1.4107  0.5970  2.1823
43386SOL     OW34968   5.578   0.099   1.923 -0.4652 -0.8098  0.2520
43386SOL    HW134969   5.617   0.166   1.979 -1.4561 -0.5942  0.7033
43386SOL    HW234970   5.597   0.129   1.834 -0.8014  0.0277  0.4505
43387SOL     OW34971   0.269   2.288   7.128  0.1658  0.0601  0.2564
43387SOL    HW134972   0.194   2.334   7.166 -0.7222 -0.9567 -0.2176
43387SOL    HW234973   0.278   2.325   7.040  0.1527  0.1047  0.2735
43388SOL     OW34974   3.628   1.343  10.249  0.2164 -0.5112 -0.5086
43388SOL    HW134975   3.655   1.407  10.183 -2.0189  1.0825 -0.0065
43388SOL    HW234976   3.654   1.381  10.333 -1.2666 -0.1238 -0.1949
43389SOL     OW34977   3.109   3.065   5.623 -0.3257 -0.4153  1.1441
43389SOL    HW134978   3.100   3.024   5.537 -0.6003  1.0205  0.4486
43389SOL    HW234979   3.186   3.023   5.661  0.8298  0.0783 -0.5250
43390SOL     OW34980   7.116   1.164   7.282  0.6611  0.0267 -0.2422
43390SOL    HW134981   7.102   1.128   7.194  0.4372 -0.7544  0.1149
43390SOL    HW234982   7.087   1.255   7.275  0.1755 -0.1693 -0.8485
43391SOL     OW34983   4.163   8.148   5.249 -0.5825  0.4731  0.1839
43391SOL    HW134984   4.193   8.145   5.340 -1.0663 -0.5328  0.3182
43391SOL    HW234985   4.174   8.239   5.224  0.1914  0.6343  1.0383
43392SOL     OW34986   7.631   0.587   4.431  0.6157  0.1862  0.6704
43392SOL    HW134987   7.640   0.633   4.514  0.4578 -0.8448  1.2886
43392SOL    HW234988   7.714   0.540   4.420  1.0778  1.2132 -0.3386
43393SOL     OW34989   8.611   3.484   3.949 -0.0880  0.2515  0.1937
43393SOL    HW134990   8.569   3.554   3.999  0.4169 -0.0951  1.1371
43393SOL    HW234991   8.639   3.526   3.868 -2.5091  0.4082 -0.6118
43394SOL     OW34992   9.259   4.032   4.700  0.2744  0.3569  0.2310
43394SOL    HW134993   9.225   3.982   4.775 -0.3199 -0.9532 -0.8586
43394SOL    HW234994   9.347   4.057   4.726  0.4612 -0.9602  0.9787
43395SOL     OW34995   8.915   0.547  12.551  0.3501  0.2742  0.2845
43395SOL    HW134996   8.988   0.576  12.606 -0.0426 -0.2968  1.1426
43395SOL    HW234997   8.849   0.616  12.561 -0.1969 -0.4002  1.5287
43396SOL     OW34998   1.693   8.224   1.426  0.1955  0.0607 -0.1310
43396SOL    HW134999   1.662   8.247   1.513 -1.2989  1.1584 -0.9202
43396SOL    HW235000   1.705   8.129   1.429  1.8314  0.2711  1.7461
43397SOL     OW35001   0.941   7.298  11.402  0.6578 -0.3816 -0.0068
43397SOL    HW135002   1.022   7.259  11.434  0.6855  0.2298  0.6986
43397SOL    HW235003   0.883   7.299  11.479  0.8154  1.3814  0.1388
43398SOL     OW35004   3.692   6.377   7.096 -0.2184  0.0954 -0.7123
43398SOL    HW135005   3.654   6.373   7.184  0.2331 -0.7040 -0.5403
43398SOL    HW235006   3.787   6.384   7.111 -0.1620  0.3033 -1.1374
43399SOL     OW35007   2.080   4.526   9.100  0.3597 -0.9090 -0.4577
43399SOL    HW135008   2.045   4.536   9.012 -0.3864 -0.1595 -0.0908
43399SOL    HW235009   2.003   4.522   9.157  0.8311  1.2129  0.4162
43400SOL     OW35010  10.911   4.073   7.710 -0.6581 -0.0208  0.7167
43400SOL    HW135011  10.998   4.100   7.741 -0.2190  0.4839 -0.8419
43400SOL    HW235012  10.863   4.050   7.789  1.1233 -0.9760  1.5728
43401SOL     OW35013   5.704   9.037   2.368 -0.2195  0.8540 -0.0273
43401SOL    HW135014   5.753   9.074   2.294  0.5947 -0.1256  0.0017
43401SOL    HW235015   5.678   8.950   2.338 -0.8329  0.8686  0.4458
43402SOL     OW35016   5.249   2.411   7.960 -0.8243  0.0957  0.2190
43402SOL    HW135017   5.307   2.475   7.918 -0.5777 -1.4693 -1.9879
43402SOL    HW235018   5.309   2.354   8.008 -0.6805 -0.5322 -0.6916
43403SOL     OW35019  12.323   1.750   8.682  0.1107 -0.6229 -0.0910
43403SOL    HW135020  12.346   1.679   8.742  1.9255  0.1092  0.1370
43403SOL    HW235021  12.347   1.830   8.729 -1.4057  0.1331 -0.5496
43404SOL     OW35022   9.529   6.232   0.358 -0.1508  0.3638 -0.2296
43404SOL    HW135023   9.479   6.160   0.319 -2.9331  0.8236  2.1525
43404SOL    HW235024   9.554   6.199   0.444 -0.8398  1.9405  0.6084
43405SOL     OW35025   1.031   6.432   1.577 -0.2229 -0.3484  0.4742
43405SOL    HW135026   1.076   6.479   1.507  1.0316  0.5055  1.7846
43405SOL    HW235027   0.942   6.420   1.545 -0.4166  2.3538 -0.2224
43406SOL     OW35028   8.091   3.750  11.685  0.2381  0.0353 -0.2691
43406SOL    HW135029   8.146   3.707  11.750 -0.4054 -0.3045  0.0621
43406SOL    HW235030   8.099   3.844  11.704  0.9052  0.0146 -0.4009
43407SOL     OW35031   5.049   2.869   5.627  0.0670 -0.7935 -0.1778
43407SOL    HW135032   5.112   2.839   5.693 -0.9091  0.2607  1.3064
43407SOL    HW235033   4.969   2.820   5.647 -0.1257 -0.7710 -0.8722
43408SOL     OW35034   2.822   9.211   2.907 -0.4160  0.2506  0.2363
43408SOL    HW135035   2.746   9.268   2.897  0.0093  0.8392  0.3431
43408SOL    HW235036   2.793   9.143   2.968 -0.6981  0.7538  0.6669
43409SOL     OW35037   8.982   0.192   5.895  0.3697  0.1635 -1.0481
43409SOL    HW135038   8.932   0.218   5.818 -3.3197  0.9625  1.3315
43409SOL    HW235039   8.947   0.106   5.919  1.6736 -0.2209 -0.4477
43410SOL     OW35040  10.566  10.887   5.197 -0.6813  0.7442 -0.1238
43410SOL    HW135041  10.644  10.854   5.154  1.7690  4.1205  1.2672
43410SOL    HW235042  10.529  10.949   5.134 -1.3545  0.3217 -0.1543
43411SOL     OW35043   9.654   3.639   9.074 -0.2598 -0.4894  0.4840
43411SOL    HW135044   9.646   3.643   9.169 -0.2195  2.4946  0.4575
43411SOL    HW235045   9.587   3.699   9.041  1.2019  0.3161 -1.2147
43412SOL     OW35046   4.203  11.822   7.686 -0.4050 -0.7100  0.0435
43412SOL    HW135047   4.143  11.801   7.614  0.2026 -1.1254 -0.3495
43412SOL    HW235048   4.205  11.743   7.739  2.4416 -2.0825 -1.8275
43413SOL     OW35049  12.635  12.279   8.348 -0.5892 -0.0555 -0.5135
43413SOL    HW135050  12.656  12.199   8.396 -2.6036 -1.3963 -1.7260
43413SOL    HW235051  12.698  12.344   8.381 -0.9637 -1.2035  2.9260
43414SOL     OW35052  10.479   0.752  12.023 -0.1526  0.2519  0.4011
43414SOL    HW135053  10.566   0.778  11.995  0.3780 -1.7478  0.0254
43414SOL    HW235054  10.441   0.831  12.062  2.0399  1.0020  1.1432
43415SOL     OW35055   6.032   7.901   8.174  1.1520  0.3734  0.0784
43415SOL    HW135056   6.033   7.929   8.265  0.8694 -0.5719  0.3764
43415SOL    HW235057   6.115   7.854   8.162  0.6020 -0.6429  0.2150
43416SOL     OW35058  10.932   7.223   4.965  0.1622 -0.2046 -0.2053
43416SOL    HW135059  10.862   7.161   4.945 -0.0178  0.2538 -1.0111
43416SOL    HW235060  11.013   7.176   4.942 -0.0496  0.5034 -2.6813
43417SOL     OW35061   7.270   3.119   8.787  0.2417 -0.0119 -0.1397
43417SOL    HW135062   7.189   3.170   8.783 -0.0789 -0.4952 -0.0390
43417SOL    HW235063   7.265   3.061   8.711  1.6658  1.6151 -1.5464
43418SOL     OW35064   9.466   7.019   8.668  0.0642  0.0396 -0.0361
43418SOL    HW135065   9.416   7.043   8.590  1.6600  1.8997 -0.5746
43418SOL    HW235066   9.399   6.999   8.734 -1.4176  2.0567 -0.8094
43419SOL     OW35067   0.986  11.076   2.428  0.0724  0.1223 -0.0670
43419SOL    HW135068   1.040  10.998   2.425  1.2616  0.6727  3.1974
43419SOL    HW235069   0.899  11.046   2.401  1.4612 -1.1789 -3.5825
43420SOL     OW35070   7.429   8.763  11.409 -0.4002  0.4101  0.0290
43420SOL    HW135071   7.415   8.707  11.333 -0.5595  0.1391  0.2551
43420SOL    HW235072   7.356   8.825  11.407 -0.7182  0.0536  0.2665
43421SOL     OW35073   9.690   6.486   9.571 -0.2673  0.0064  0.3256
43421SOL    HW135074   9.780   6.483   9.604 -0.3468 -2.5535  0.5584
43421SOL    HW235075   9.691   6.426   9.496 -1.8377 -0.2319  0.4686
43422SOL     OW35076  10.409  11.020   9.373  0.4227  0.0623  0.8236
43422SOL    HW135077  10.446  11.090   9.427 -2.7352  0.7642  2.2930
43422SOL    HW235078  10.316  11.040   9.368 -0.0621 -2.2775 -1.5179
43423SOL     OW35079   0.617   2.757   3.141 -0.0512 -0.2597 -0.3109
43423SOL    HW135080   0.664   2.814   3.201  0.2147 -0.1977 -0.5764
43423SOL    HW235081   0.534   2.801   3.126 -0.5956 -0.8118  0.8841
43424SOL     OW35082   5.347   6.440   6.443 -0.0782 -0.6920 -0.5506
43424SOL    HW135083   5.300   6.505   6.391 -0.8446 -1.2346 -0.5538
43424SOL    HW235084   5.344   6.360   6.389  1.3036 -0.6109 -0.7866
43425SOL     OW35085   8.336   0.507   9.925 -0.9836 -0.1200  0.5542
43425SOL    HW135086   8.421   0.465   9.912 -0.3193  0.5846  2.3154
43425SOL    HW235087   8.341   0.588   9.875 -0.1953  0.4094  1.4492
43426SOL     OW35088   5.637  12.585   0.136  0.2499  0.7096  0.2141
43426SOL    HW135089   5.695  12.609   0.064 -1.3962  2.1009 -0.7449
43426SOL    HW235090   5.681  12.617   0.214  2.1586 -0.9869 -0.1021
43427SOL     OW35091   4.557   4.604   0.043  0.5998  0.7157  0.6993
43427SOL    HW135092   4.634   4.609  -0.014  0.0263 -0.8014 -0.2739
43427SOL    HW235093   4.547   4.510   0.061 -2.5997  0.5069 -1.4425
43428SOL     OW35094   4.316   1.546   9.035 -0.0768 -0.0359 -0.2991
43428SOL    HW135095   4.268   1.464   9.025  0.4968 -0.3505 -0.5218
43428SOL    HW235096   4.403   1.519   9.063  0.2747  0.4561 -0.8841
43429SOL     OW35097   2.325  11.977   3.206 -0.5023  0.5696  0.1022
43429SOL    HW135098   2.293  11.958   3.294  0.1630 -0.9594  0.0329
43429SOL    HW235099   2.249  11.963   3.150 -0.0991 -1.9210  0.0689
43430SOL     OW35100   8.186   2.629  10.703 -0.0457 -0.2284 -0.2827
43430SOL    HW135101   8.099   2.603  10.674  0.0220  1.9050 -2.8728
43430SOL    HW235102   8.235   2.547  10.709 -2.0181 -1.4083  0.5825
43431SOL     OW35103   8.313  11.190   2.144  0.3079  0.1048 -0.1157
43431SOL    HW135104   8.324  11.147   2.059  2.3130  1.2206 -0.4847
43431SOL    HW235105   8.311  11.284   2.123 -2.0126  0.3261  0.8454
43432SOL     OW35106   7.825  10.946   3.869  0.0829  0.6342 -0.0287
43432SOL    HW135107   7.812  10.886   3.796 -1.0462  2.4442 -1.3859
43432SOL    HW235108   7.892  11.007   3.839  2.0320 -0.4900  1.7543
43433SOL     OW35109   8.218   6.447   4.225  0.2184  0.1264  0.3796
43433SOL    HW135110   8.125   6.429   4.208  0.5380 -0.5695 -0.6985
43433SOL    HW235111   8.246   6.499   4.150  0.7513  0.1809  0.6169
43434SOL     OW35112  11.809   2.657   6.138  0.1799 -0.0477  0.0776
43434SOL    HW135113  11.903   2.671   6.153  0.0287  0.7973  0.3038
43434SOL    HW235114  11.802   2.564   6.118  0.9523 -0.3287  0.9815
43435SOL     OW35115   0.620   5.506   3.469 -0.1772 -0.3835  0.4591
43435SOL    HW135116   0.654   5.532   3.384 -1.8470  1.0537  0.1735
43435SOL    HW235117   0.697   5.499   3.525  0.7608  0.6129 -0.6711
43436SOL     OW35118   9.683   4.616   8.128  0.4639  0.3787  0.2381
43436SOL    HW135119   9.611   4.649   8.182 -0.2770 -0.2313 -0.3678
43436SOL    HW235120   9.689   4.678   8.055  1.4251  1.1675  0.9475
43437SOL     OW35121   9.592   0.856   3.449  0.5215  0.4123  0.0620
43437SOL    HW135122   9.628   0.941   3.424  1.1108 -0.4151 -2.1724
43437SOL    HW235123   9.644   0.792   3.399 -0.0570 -1.2536  1.4840
43438SOL     OW35124   6.828  11.176   6.681 -0.1968 -0.3395 -0.2505
43438SOL    HW135125   6.752  11.121   6.664  0.5505 -1.8014  0.9856
43438SOL    HW235126   6.899  11.135   6.632  0.4321 -0.6717  0.9098
43439SOL     OW35127  12.415   6.579   0.815 -0.1353  0.0861 -0.2218
43439SOL    HW135128  12.501   6.581   0.773 -0.7191  0.1613 -1.4451
43439SOL    HW235129  12.353   6.568   0.743 -1.1274 -0.4659  0.6837
43440SOL     OW35130  12.565   1.354   2.305  0.1466 -0.2943  0.4316
43440SOL    HW135131  12.538   1.264   2.286 -1.7723  0.4474 -0.7462
43440SOL    HW235132  12.497   1.387   2.364 -0.0127  0.7990 -0.3243
43441SOL     OW35133   4.300   9.920   1.284  0.3571 -0.4410 -0.1683
43441SOL    HW135134   4.370   9.858   1.266  0.0343 -1.1632  0.9557
43441SOL    HW235135   4.220   9.867   1.288 -0.3724  0.4413 -1.9478
43442SOL     OW35136  11.206   9.114   0.730 -0.4272  0.1015 -0.3430
43442SOL    HW135137  11.282   9.170   0.746  0.3425 -0.2374 -2.4808
43442SOL    HW235138  11.182   9.080   0.817  3.2941 -1.6107  0.1783
43443SOL     OW35139   2.703   8.523   1.404  0.5725 -0.5766  0.2362
43443SOL    HW135140   2.760   8.594   1.431  0.9434 -0.4799 -0.7544
43443SOL    HW235141   2.700   8.530   1.308 -0.8174 -0.7937  0.2449
43444SOL     OW35142   5.777   0.695   8.649  0.0881 -0.1099  0.4263
43444SOL    HW135143   5.723   0.670   8.575 -1.0051  0.8013  0.8921
43444SOL    HW235144   5.837   0.762   8.614  1.0514 -1.2230 -0.1225
43445SOL     OW35145   4.498   9.966  12.369 -0.2609 -0.4911 -0.1082
43445SOL    HW135146   4.571   9.946  12.427 -0.1368 -0.6426 -0.3159
43445SOL    HW235147   4.422   9.973  12.427  0.1115  0.8315  0.2661
43446SOL     OW35148   5.038   6.147  11.203 -0.5290 -0.7086 -0.5985
43446SOL    HW135149   4.946   6.146  11.227 -0.7270  0.6029 -1.2128
43446SOL    HW235150   5.061   6.055  11.189 -1.6863 -1.0578 -0.2689
43447SOL     OW35151   2.766   9.042  12.165 -0.1586 -0.3846 -0.2232
43447SOL    HW135152   2.747   8.949  12.159 -1.7718 -0.2163  1.5359
43447SOL    HW235153   2.826   9.050  12.239 -0.8906  0.0601  0.3352
43448SOL     OW35154   2.492   2.534   7.800  0.1692  0.3479 -0.2225
43448SOL    HW135155   2.479   2.498   7.713  1.4259  0.4030 -0.4385
43448SOL    HW235156   2.485   2.459   7.859 -1.9453  0.4832 -0.2090
43449SOL     OW35157   4.612   2.964   9.244  0.3532 -0.1016  0.9787
43449SOL    HW135158   4.540   3.020   9.274 -2.0107 -1.8921 -0.8903
43449SOL    HW235159   4.679   2.974   9.311 -1.7300  1.4994  3.0170
43450SOL     OW35160   4.661   7.417   7.105  0.1136  0.3441  0.4061
43450SOL    HW135161   4.720   7.351   7.141 -0.0721  0.1303  0.3162
43450SOL    HW235162   4.695   7.434   7.017 -0.9260 -0.9903 -0.2824
43451SOL     OW35163   7.316   9.167  10.281 -0.2051  0.1870 -0.4827
43451SOL    HW135164   7.276   9.182  10.367 -1.4004 -0.1786 -0.9626
43451SOL    HW235165   7.274   9.230  10.224 -2.4669 -2.2385 -1.6837
43452SOL     OW35166   5.255   4.274   9.650  0.3566  0.1615  0.4690
43452SOL    HW135167   5.328   4.300   9.594 -0.3955  2.1772  0.3064
43452SOL    HW235168   5.296   4.239   9.729  1.4354 -1.7609 -0.8813
43453SOL     OW35169   9.561   4.310   2.124  0.2839 -0.4541  0.7883
43453SOL    HW135170   9.520   4.226   2.102  0.8697  0.0265 -2.7236
43453SOL    HW235171   9.488   4.373   2.124  0.4103  0.0496 -3.4834
43454SOL     OW35172   4.241   7.601  11.452  0.2907 -0.1722 -0.1776
43454SOL    HW135173   4.252   7.515  11.493  0.1512 -1.4719 -2.6619
43454SOL    HW235174   4.326   7.644  11.462  1.0696 -1.5086 -0.7608
43455SOL     OW35175   8.634  11.994   4.520 -0.2402  0.3828  0.3782
43455SOL    HW135176   8.725  11.966   4.516 -0.0494  0.9233  0.8883
43455SOL    HW235177   8.636  12.088   4.505 -0.7003  0.4257  0.5482
43456SOL     OW35178   2.388   7.659  10.466  0.1646  0.2164  0.0944
43456SOL    HW135179   2.434   7.725  10.413  1.9805 -1.9312 -1.1823
43456SOL    HW235180   2.456   7.622  10.522 -0.4523 -1.5215 -0.2418
43457SOL     OW35181   1.236   2.524   8.301  0.0378 -0.3072 -0.3380
43457SOL    HW135182   1.285   2.501   8.380 -1.2371 -0.0486  0.5574
43457SOL    HW235183   1.300   2.570   8.246  1.4358 -2.0439 -0.2768
43458SOL     OW35184   1.249   7.370   3.248  0.2930 -0.5097  0.2338
43458SOL    HW135185   1.170   7.363   3.194  1.0316  0.1031 -0.9609
43458SOL    HW235186   1.306   7.430   3.200  0.4026  1.2497  2.4192
43459SOL     OW35187  10.329   5.893   3.471  0.0608 -0.0918  0.7327
43459SOL    HW135188  10.291   5.806   3.464 -0.9830  0.2038  2.1532
43459SOL    HW235189  10.279   5.946   3.409  0.7824 -0.5156 -0.2245
43460SOL     OW35190   5.656   7.771   4.679 -0.1851 -0.0027 -0.1465
43460SOL    HW135191   5.697   7.695   4.719  1.0864  0.0663 -1.2527
43460SOL    HW235192   5.583   7.736   4.628  0.6867 -0.5564 -1.0373
43461SOL     OW35193   0.699  11.376  11.668  0.1797 -0.6141 -0.0756
43461SOL    HW135194   0.757  11.377  11.744 -0.9125  2.0250  0.8530
43461SOL    HW235195   0.621  11.328  11.698  0.2942 -0.7526  0.0041
43462SOL     OW35196   1.137  11.926   6.781  0.6431 -0.9952  0.6580
43462SOL    HW135197   1.091  11.959   6.858  0.9032 -2.5663  1.5166
43462SOL    HW235198   1.212  11.879   6.816  0.8271 -1.6557 -0.5587
43463SOL     OW35199   7.252   1.499   4.458 -0.5130  0.5077  0.3885
43463SOL    HW135200   7.333   1.549   4.452  0.5102 -1.0016  0.8948
43463SOL    HW235201   7.254   1.461   4.546 -0.6106 -1.3933 -0.3855
43464SOL     OW35202   1.857  10.551  11.081 -0.1697  0.3273  0.2970
43464SOL    HW135203   1.762  10.557  11.081 -0.1981 -0.0787 -0.0855
43464SOL    HW235204   1.882  10.572  11.171 -0.5956  0.7588  0.3165
43465SOL     OW35205   0.469   5.893   1.656  0.3512 -0.0945 -0.0184
43465SOL    HW135206   0.428   5.952   1.592  0.8255  0.3273  0.0606
43465SOL    HW235207   0.503   5.952   1.724 -0.3944 -0.5486  0.7752
43466SOL     OW35208   8.210  10.035   3.839  0.1679  0.0651 -0.1347
43466SOL    HW135209   8.174  10.123   3.841 -0.8557 -0.2257 -2.7210
43466SOL    HW235210   8.301  10.045   3.868  0.4398  2.1896 -1.5626
43467SOL     OW35211   0.534   7.558   1.572 -0.0007  0.2820  0.0188
43467SOL    HW135212   0.527   7.463   1.559 -2.7861  0.6722 -2.3982
43467SOL    HW235213   0.483   7.575   1.652 -0.8717 -0.1321 -0.4323
43468SOL     OW35214   1.120   4.370   8.733  0.4791  0.4690  0.1622
43468SOL    HW135215   1.083   4.424   8.663 -0.6444 -0.7703 -0.2489
43468SOL    HW235216   1.059   4.381   8.806  0.0918 -0.3909 -0.0082
43469SOL     OW35217  10.587   3.068   0.074  0.4136 -0.1854  0.4486
43469SOL    HW135218  10.598   3.132   0.144 -0.9180 -1.9623  2.3921
43469SOL    HW235219  10.504   3.092   0.033 -0.3694 -0.9241  1.5413
43470SOL     OW35220   0.242   6.584   7.235 -0.0133  0.6417 -0.2275
43470SOL    HW135221   0.288   6.647   7.179  0.4613  0.3585 -0.1567
43470SOL    HW235222   0.275   6.602   7.323 -0.2184  0.5982 -0.1406
43471SOL     OW35223   7.899  10.445   4.972 -0.0672  0.4174  0.6259
43471SOL    HW135224   7.909  10.479   5.061  0.4157  1.8448  0.0445
43471SOL    HW235225   7.969  10.380   4.962 -0.6741 -0.4115  1.5663
43472SOL     OW35226   4.246   8.864   7.858 -0.1983  0.3723  0.2721
43472SOL    HW135227   4.281   8.855   7.946  0.3424  1.8861  0.2386
43472SOL    HW235228   4.154   8.888   7.871  0.1658  1.7088  0.4556
43473SOL     OW35229   4.343   3.458   7.300  0.2173 -0.0557 -0.2274
43473SOL    HW135230   4.437   3.448   7.289  0.0772 -0.6192 -1.0649
43473SOL    HW235231   4.305   3.383   7.253 -0.6782  0.8190 -0.9549
43474SOL     OW35232   3.633   1.523   6.379  0.5261  0.6683  0.5404
43474SOL    HW135233   3.728   1.512   6.381  0.3706 -1.2221 -0.3850
43474SOL    HW235234   3.601   1.469   6.451 -0.0242 -1.8962 -1.4979
43475SOL     OW35235   5.477   0.025   8.228  0.1501  0.3762 -0.2128
43475SOL    HW135236   5.486  -0.037   8.157  1.3283  1.0619 -0.7052
43475SOL    HW235237   5.390   0.009   8.265 -0.2202 -0.4079 -1.3947
43476SOL     OW35238  11.382   6.353   3.334 -0.1727 -0.0499 -0.4948
43476SOL    HW135239  11.388   6.315   3.422  0.2461  0.9627 -0.0637
43476SOL    HW235240  11.471   6.380   3.313 -0.3398  0.0713 -1.0671
43477SOL     OW35241   2.001   0.909   0.373  0.1839 -0.4327 -0.5367
43477SOL    HW135242   2.070   0.951   0.424 -0.4608  1.2603 -0.9829
43477SOL    HW235243   2.016   0.939   0.284 -0.3344 -1.1431 -0.8690
43478SOL     OW35244   7.883   7.518   9.016  0.1731 -0.0189  0.2806
43478SOL    HW135245   7.816   7.563   9.068 -0.5694 -2.4696  1.6220
43478SOL    HW235246   7.953   7.500   9.079  0.5441 -0.5495 -0.2786
43479SOL     OW35247  11.430   0.304   9.059 -0.3897  0.0483  0.0415
43479SOL    HW135248  11.444   0.226   9.112 -1.6405 -0.7544 -0.7396
43479SOL    HW235249  11.495   0.298   8.989  0.9596  0.8743  1.1868
43480SOL     OW35250  11.507   9.912   7.456 -0.4095  0.0837  0.4630
43480SOL    HW135251  11.599   9.920   7.428 -0.7133  0.8817 -0.3818
43480SOL    HW235252  11.488   9.819   7.448  0.4696 -0.1715  1.1451
43481SOL     OW35253   3.065   2.705   5.173 -0.4508  0.4066 -0.1845
43481SOL    HW135254   3.132   2.748   5.227 -0.1925 -0.4181  0.1855
43481SOL    HW235255   2.986   2.709   5.226 -0.2091 -0.3581  0.2520
43482SOL     OW35256  10.283   7.782   3.164  0.6639 -0.9591 -0.0631
43482SOL    HW135257  10.342   7.845   3.205  0.6495 -1.0764  0.1398
43482SOL    HW235258  10.196   7.809   3.193  0.6865 -1.2984  0.3374
43483SOL     OW35259   6.501  12.093   5.510  0.0925  0.5609  0.2543
43483SOL    HW135260   6.573  12.152   5.485 -0.9693  0.9338 -2.1998
43483SOL    HW235261   6.481  12.045   5.430 -1.5070 -0.5139  1.2607
43484SOL     OW35262   7.566   9.301   4.139 -0.1627 -0.3708 -0.0142
43484SOL    HW135263   7.621   9.322   4.064 -1.7314  0.0799 -1.0808
43484SOL    HW235264   7.476   9.315   4.108 -0.8682 -0.5465  1.8248
43485SOL     OW35265   3.756   7.144   6.416  0.5111 -0.1647  0.1736
43485SOL    HW135266   3.777   7.183   6.501  1.4146 -0.1330 -0.0471
43485SOL    HW235267   3.668   7.108   6.427  1.1671 -1.4555  1.5943
43486SOL     OW35268   8.716   3.647   5.177  0.3001 -0.6800  0.1629
43486SOL    HW135269   8.730   3.709   5.106  0.3744 -0.6709  0.1853
43486SOL    HW235270   8.699   3.701   5.253  0.6541 -0.6787  0.2438
43487SOL     OW35271  12.212   1.122   3.864 -0.3041  0.4733 -0.3455
43487SOL    HW135272  12.248   1.105   3.952 -2.2923  0.0743  0.4331
43487SOL    HW235273  12.272   1.076   3.805 -0.7894 -2.2007  1.0796
43488SOL     OW35274   0.478   2.908   2.486 -0.2466 -0.3025  0.1276
43488SOL    HW135275   0.476   2.967   2.561 -1.0174 -1.7782  1.3287
43488SOL    HW235276   0.416   2.839   2.509 -0.5692 -0.7513 -1.9314
43489SOL     OW35277   4.104   3.472   8.341  0.1465  0.2728  0.3514
43489SOL    HW135278   4.042   3.478   8.268 -0.0431 -1.4299  0.3335
43489SOL    HW235279   4.179   3.424   8.305  0.3694  0.0724  1.0653
43490SOL     OW35280   0.933   5.571  12.518  0.2844 -0.3723 -0.1656
43490SOL    HW135281   1.006   5.527  12.474  0.2321 -0.5034 -0.1226
43490SOL    HW235282   0.871   5.591  12.447  1.2595  1.5761 -0.5243
43491SOL     OW35283   5.157   8.795   6.498 -0.1622  0.7788 -0.4635
43491SOL    HW135284   5.174   8.876   6.451 -1.2225  0.6082 -1.1824
43491SOL    HW235285   5.115   8.823   6.579  3.1548  1.2006  1.3038
43492SOL     OW35286   7.068   3.405   8.104  0.4574 -0.0343  0.2993
43492SOL    HW135287   7.102   3.462   8.035 -0.0474  1.5381  1.2749
43492SOL    HW235288   7.007   3.347   8.059 -0.6097  1.6082 -0.4874
43493SOL     OW35289   7.366   4.244   9.483  0.2782 -0.2148 -0.2118
43493SOL    HW135290   7.310   4.176   9.445 -0.3114 -1.3598  2.4408
43493SOL    HW235291   7.455   4.215   9.464  0.0141 -0.5470 -0.9850
43494SOL     OW35292   7.521  10.513  10.521  0.7192  0.4981  0.1126
43494SOL    HW135293   7.466  10.574  10.570  0.1037 -0.0650  0.1386
43494SOL    HW235294   7.483  10.514  10.433  0.7999  0.2575  0.0771
43495SOL     OW35295   7.155   1.624   5.237  0.4543  0.3043 -0.2370
43495SOL    HW135296   7.158   1.718   5.222  0.0549  0.2713 -0.5794
43495SOL    HW235297   7.210   1.609   5.313  1.1432  0.7193 -0.6412
43496SOL     OW35298   5.985   7.567  10.070  0.0125 -0.2032  0.2849
43496SOL    HW135299   5.949   7.655  10.063  1.3361  0.3886  0.6403
43496SOL    HW235300   5.909   7.509  10.059 -1.3013  0.9978  2.2620
43497SOL     OW35301  11.316   9.433  11.724  0.0077  0.5923  0.6291
43497SOL    HW135302  11.361   9.384  11.656 -1.6480 -0.1122 -0.0082
43497SOL    HW235303  11.321   9.524  11.696  0.4861  0.4544  0.2577
43498SOL     OW35304  10.999  12.567   2.998  0.7820  0.3982  0.1691
43498SOL    HW135305  11.013  12.658   3.023  1.8362  0.5517 -0.8438
43498SOL    HW235306  11.036  12.516   3.070 -3.1067  0.6058  2.5993
43499SOL     OW35307  11.372  12.449   1.404  0.3567 -0.0804 -0.5699
43499SOL    HW135308  11.389  12.542   1.393  1.9968 -0.2049  0.5281
43499SOL    HW235309  11.293  12.444   1.457  1.2197  0.7523  0.8623
43500SOL     OW35310   9.298   6.555   8.557  0.5186 -0.2244 -0.2456
43500SOL    HW135311   9.297   6.462   8.578 -0.6339 -0.0138  0.7936
43500SOL    HW235312   9.246   6.596   8.628  2.6896  1.4507  0.4926
43501SOL     OW35313   9.204  10.203   6.011 -0.1885 -1.0773 -0.5268
43501SOL    HW135314   9.169  10.114   6.019  0.2659 -1.1026  2.1389
43501SOL    HW235315   9.138  10.258   6.054  0.5144 -0.4099 -0.2878
43502SOL     OW35316   3.158   4.416   1.205  0.6224  0.0732 -0.6151
43502SOL    HW135317   3.099   4.469   1.258  2.4906  0.6008  1.0796
43502SOL    HW235318   3.149   4.451   1.117 -3.6959 -1.8088 -1.1481
43503SOL     OW35319   1.690   7.247   5.163 -0.2765 -0.0692  0.1216
43503SOL    HW135320   1.648   7.197   5.094 -0.8668 -0.2693  0.6185
43503SOL    HW235321   1.637   7.326   5.173  0.5333  0.5734 -0.5179
43504SOL     OW35322  12.548   4.226   0.043 -0.0281  0.9128  0.1105
43504SOL    HW135323  12.522   4.157   0.105  1.9666  0.9521  1.0862
43504SOL    HW235324  12.466   4.261   0.010 -1.1185 -1.6158 -0.0744
43505SOL     OW35325   0.920   0.909   8.141  0.0581  0.1749 -0.7862
43505SOL    HW135326   0.952   0.954   8.219 -1.9428  0.6713 -0.1946
43505SOL    HW235327   0.905   0.978   8.077  1.1490 -0.1680 -1.4264
43506SOL     OW35328   1.258   0.594   5.963  0.5090  0.1055  0.0615
43506SOL    HW135329   1.306   0.659   6.015  1.4012 -1.2788  1.0419
43506SOL    HW235330   1.234   0.526   6.025  0.3564 -0.9288 -1.0835
43507SOL     OW35331  11.936   7.855   3.274 -0.1015 -0.5318 -0.3494
43507SOL    HW135332  11.841   7.850   3.266 -0.1037 -0.9656 -0.0808
43507SOL    HW235333  11.964   7.764   3.279  0.2552 -0.3838  0.4310
43508SOL     OW35334   1.735   7.415   2.506  0.2329  0.3396 -0.0936
43508SOL    HW135335   1.698   7.371   2.430 -0.4205  1.0055 -0.1686
43508SOL    HW235336   1.825   7.382   2.511 -0.1825 -0.8666 -0.2420
43509SOL     OW35337   1.414   4.858   4.308 -0.0877 -0.4787  0.0922
43509SOL    HW135338   1.463   4.813   4.239  1.8642  0.3603  0.8429
43509SOL    HW235339   1.361   4.923   4.261 -1.1207 -1.9038 -0.8024
43510SOL     OW35340  10.494   6.473   0.385  0.2319  0.4868 -0.0276
43510SOL    HW135341  10.433   6.415   0.431  1.0980  1.2322  2.1983
43510SOL    HW235342  10.441   6.550   0.363  0.1436  0.7582  1.0903
43511SOL     OW35343   8.313   5.386   3.267  0.3013  0.6727 -0.2340
43511SOL    HW135344   8.362   5.361   3.345  0.1821  0.6976 -0.1517
43511SOL    HW235345   8.370   5.450   3.223  1.1276 -0.5467 -1.0325
43512SOL     OW35346   0.146   5.480  10.490  0.4690  0.1088  0.1618
43512SOL    HW135347   0.115   5.525  10.568  0.4449  0.9512 -0.3232
43512SOL    HW235348   0.226   5.527  10.465  0.0429  0.3723 -0.7725
43513SOL     OW35349   8.301   0.224  12.538 -0.3839 -0.0769  0.3846
43513SOL    HW135350   8.374   0.214  12.476  0.7424 -0.1735  1.6830
43513SOL    HW235351   8.223   0.218  12.483  0.5709 -0.0098 -1.0510
43514SOL     OW35352   5.513   8.358   5.682  0.2414  0.0914 -0.0273
43514SOL    HW135353   5.468   8.419   5.741  0.5817  0.4487 -0.1265
43514SOL    HW235354   5.548   8.414   5.613  1.3822 -0.0889  0.3880
43515SOL     OW35355   5.563  12.478   9.907  0.0906 -0.1243 -0.3338
43515SOL    HW135356   5.534  12.563   9.940 -1.3364 -0.7962  0.2647
43515SOL    HW235357   5.651  12.466   9.945  0.3059  1.0651 -0.4271
43516SOL     OW35358   3.173   1.519   1.270  0.3683 -0.1655 -0.4470
43516SOL    HW135359   3.234   1.504   1.342 -1.1978  0.9934  1.1903
43516SOL    HW235360   3.096   1.558   1.311 -0.8887 -0.1671 -2.6577
43517SOL     OW35361   7.421   1.499  12.567  0.1114 -0.4656 -0.3174
43517SOL    HW135362   7.378   1.580  12.539  3.9476  1.0595 -2.4484
43517SOL    HW235363   7.431   1.509  12.661  0.0900  1.3491 -0.4687
43518SOL     OW35364   2.484   8.689   6.710  0.3060 -0.0469  0.2304
43518SOL    HW135365   2.435   8.642   6.642  0.3341 -1.9340  1.4469
43518SOL    HW235366   2.421   8.701   6.781  0.6385  0.7358  0.4051
43519SOL     OW35367   0.587   2.488   3.171 -0.0768  0.2012  0.1273
43519SOL    HW135368   0.591   2.457   3.261 -2.3156  0.0930  0.2307
43519SOL    HW235369   0.607   2.582   3.178  2.0561 -0.2254  0.3929
43520SOL     OW35370   5.241  10.571  10.651  0.4480  0.4538  0.3856
43520SOL    HW135371   5.253  10.510  10.723 -0.8773  0.8060  0.9394
43520SOL    HW235372   5.304  10.641  10.667  1.1810 -0.1927  0.3741
43521SOL     OW35373   7.627   2.910   4.455 -0.0436  0.7984 -0.1538
43521SOL    HW135374   7.551   2.940   4.504 -0.3851 -0.2511 -0.0260
43521SOL    HW235375   7.699   2.963   4.489 -0.3272  0.3091  1.2876
43522SOL     OW35376   3.608  10.747   8.491  0.3013 -0.4563 -0.0324
43522SOL    HW135377   3.536  10.804   8.463 -0.0975 -1.2302 -0.6565
43522SOL    HW235378   3.683  10.775   8.438  0.3576  0.1003  0.3400
43523SOL     OW35379  10.174   1.993   8.484 -0.0009  0.9516  0.2543
43523SOL    HW135380  10.081   2.013   8.473 -0.3179 -0.5957 -0.0725
43523SOL    HW235381  10.214   2.024   8.402 -0.2670  1.3370  0.2639
43524SOL     OW35382   0.515   5.800   1.130  1.1119 -0.5219  0.3726
43524SOL    HW135383   0.608   5.782   1.146  1.8774  2.8478  0.3359
43524SOL    HW235384   0.508   5.805   1.034  0.6915 -1.4169  0.3392
43525SOL     OW35385   0.925   8.596   9.579  0.4796 -0.1342  0.2742
43525SOL    HW135386   0.996   8.542   9.613 -0.2795 -0.9051  0.6688
43525SOL    HW235387   0.890   8.641   9.657 -0.2173 -0.6739  0.2925
43526SOL     OW35388   4.382   1.569   9.516 -0.3641 -0.0138  0.2604
43526SOL    HW135389   4.464   1.525   9.536 -0.9252 -0.4958  1.5919
43526SOL    HW235390   4.314   1.507   9.541 -1.1576  0.8882  0.4309
43527SOL     OW35391   0.849   8.013   0.303 -0.3086 -0.4160  0.1519
43527SOL    HW135392   0.812   8.094   0.269  1.2672  0.1857 -0.2085
43527SOL    HW235393   0.938   8.011   0.269 -0.5134 -2.6567 -0.4277
43528SOL     OW35394   4.385   6.685   8.540 -0.7360 -0.3797  0.1689
43528SOL    HW135395   4.426   6.615   8.490 -0.0770  1.4179 -1.9569
43528SOL    HW235396   4.406   6.666   8.631  0.8711 -2.0023 -0.5035
43529SOL     OW35397   4.838   4.014   2.357  0.3416 -0.1687  0.0889
43529SOL    HW135398   4.774   3.943   2.345 -0.3037 -0.1640  2.8779
43529SOL    HW235399   4.808   4.083   2.298  0.3467 -1.7514 -1.8698
43530SOL     OW35400  11.789   6.388   8.127  0.0073  0.0850  0.2656
43530SOL    HW135401  11.750   6.393   8.214  1.4483  0.0825  0.9373
43530SOL    HW235402  11.866   6.331   8.138  1.5385  1.9040 -0.4631
43531SOL     OW35403  11.290   1.544   4.065 -0.5703 -0.0052 -0.0787
43531SOL    HW135404  11.339   1.462   4.058 -1.0811 -0.3221 -0.0005
43531SOL    HW235405  11.266   1.567   3.975  0.3883  0.5694 -0.2008
43532SOL     OW35406   7.169   8.017   1.524 -0.3882 -0.3873  0.5941
43532SOL    HW135407   7.143   8.070   1.599 -1.6996 -0.0015 -0.1053
43532SOL    HW235408   7.200   8.081   1.460  1.6452 -0.7775  1.1150
43533SOL     OW35409   8.448  10.828   4.062 -0.2750  0.2369 -0.1073
43533SOL    HW135410   8.366  10.877   4.064 -0.6136 -0.2865 -0.8376
43533SOL    HW235411   8.464  10.812   3.969  0.9275  0.7731 -0.0115
43534SOL     OW35412  11.592   2.678   3.448 -0.0006  0.2368  0.0317
43534SOL    HW135413  11.570   2.585   3.441 -0.6346  0.4423 -0.9931
43534SOL    HW235414  11.514   2.723   3.416  0.4953  1.1023  0.0221
43535SOL     OW35415   3.066  10.668   9.470 -0.2168  0.2958 -0.0344
43535SOL    HW135416   3.092  10.747   9.519 -0.8332 -0.0037  0.8091
43535SOL    HW235417   3.111  10.596   9.515 -0.2497  0.0816 -0.3413
43536SOL     OW35418   7.882   3.371   0.461 -0.4690  0.2854  0.4672
43536SOL    HW135419   7.970   3.343   0.438 -1.1670 -0.7663 -1.1458
43536SOL    HW235420   7.876   3.358   0.555  0.1573 -2.6222  0.2033
43537SOL     OW35421   4.808   4.540   9.584 -0.6419 -0.2730 -0.1477
43537SOL    HW135422   4.827   4.450   9.610 -2.2539 -0.3570  0.9327
43537SOL    HW235423   4.893   4.583   9.581  0.0042 -1.4187  0.9308
43538SOL     OW35424   5.625   6.919   8.221  0.0391 -0.7477  0.4398
43538SOL    HW135425   5.575   7.000   8.217  0.3051 -0.4417  2.3554
43538SOL    HW235426   5.651   6.911   8.313  0.4514 -2.7392  0.2087
43539SOL     OW35427  10.369   4.165   3.163  0.3091  0.1630  0.0462
43539SOL    HW135428  10.432   4.211   3.218 -1.0502 -0.4761  2.2396
43539SOL    HW235429  10.415   4.084   3.138  1.6519  1.3324 -1.4724
43540SOL     OW35430   6.374   3.644  10.353 -0.7067  0.3609 -0.4719
43540SOL    HW135431   6.353   3.571  10.411 -0.4163 -0.0794 -0.9155
43540SOL    HW235432   6.410   3.711  10.411  1.6489 -0.8761 -0.3590
43541SOL     OW35433  11.969   5.569   8.266 -0.0822 -0.0804 -0.0817
43541SOL    HW135434  11.949   5.475   8.262  0.9940 -0.3100 -0.5953
43541SOL    HW235435  12.035   5.576   8.335  0.3651  0.1774 -0.5255
43542SOL     OW35436   6.069   9.119   6.193 -0.2474 -0.0063 -0.4932
43542SOL    HW135437   5.996   9.100   6.135 -0.8983  1.5721 -0.2377
43542SOL    HW235438   6.146   9.123   6.136 -0.6557  0.1651 -1.0291
43543SOL     OW35439   7.731   9.561   0.832  0.0778  0.2165  0.2126
43543SOL    HW135440   7.735   9.465   0.827  0.5104  0.2142  0.5008
43543SOL    HW235441   7.685   9.578   0.914  0.9804  0.2488  0.7277
43544SOL     OW35442   4.033   3.460   0.369 -0.2901  0.3732 -0.5040
43544SOL    HW135443   3.942   3.433   0.367  0.2327 -1.5326 -1.2479
43544SOL    HW235444   4.065   3.445   0.280  0.7984  0.8348 -0.2139
43545SOL     OW35445   2.307   4.412  11.788  0.0747 -0.5921  0.0304
43545SOL    HW135446   2.345   4.495  11.816 -0.1081 -0.5805  0.2410
43545SOL    HW235447   2.221   4.435  11.751 -0.3797 -0.7888  0.9362
43546SOL     OW35448   3.215   0.851   0.703  0.1133  0.3835  0.1520
43546SOL    HW135449   3.181   0.762   0.715 -0.4347  0.6636  0.7012
43546SOL    HW235450   3.305   0.847   0.735  0.4750 -0.2458 -0.8742
43547SOL     OW35451   0.773   5.860   1.888  0.1355  0.2531  0.7062
43547SOL    HW135452   0.810   5.803   1.956  0.0240  1.2888  1.6631
43547SOL    HW235453   0.830   5.849   1.813  0.9291 -0.0653  1.3433
43548SOL     OW35454   6.298   3.736   7.034  0.1249  0.5106  0.2128
43548SOL    HW135455   6.313   3.675   7.106  0.6131  2.1684  1.5794
43548SOL    HW235456   6.385   3.766   7.010  0.1379 -1.1919 -2.2339
43549SOL     OW35457  11.321  12.507  11.869  0.2924 -0.3798 -0.2496
43549SOL    HW135458  11.326  12.443  11.798  1.6500  0.8016 -1.2767
43549SOL    HW235459  11.384  12.575  11.845 -0.5227  0.9608  1.1994
43550SOL     OW35460   8.822   7.641   0.280  0.8768 -0.0027  0.2364
43550SOL    HW135461   8.740   7.615   0.321  0.6841  0.6527  0.2746
43550SOL    HW235462   8.850   7.563   0.231  0.4347 -0.3527  0.5343
43551SOL     OW35463   9.477  10.020   6.924 -0.5086  0.6675  0.5951
43551SOL    HW135464   9.544   9.969   6.969 -0.5749 -1.1632 -1.2572
43551SOL    HW235465   9.506  10.111   6.932  0.8968  0.1455  1.8817
43552SOL     OW35466   5.890   4.407   5.247  0.1871 -0.1464  0.1997
43552SOL    HW135467   5.837   4.486   5.239 -1.0403 -0.7020  2.1667
43552SOL    HW235468   5.883   4.363   5.162  0.2736  1.4496 -0.6654
43553SOL     OW35469   0.440   8.682  10.204  0.1214  0.1270 -0.8758
43553SOL    HW135470   0.358   8.654  10.163  0.1172  0.7548 -1.3065
43553SOL    HW235471   0.417   8.760  10.253  0.6052  0.7352 -1.6019
43554SOL     OW35472   1.469   5.575   8.248 -0.0893  0.0716 -0.4026
43554SOL    HW135473   1.403   5.641   8.226 -0.2454  0.6316  1.5063
43554SOL    HW235474   1.428   5.491   8.225 -1.0022  0.4857 -0.3289
43555SOL     OW35475   3.640   2.490   4.222  0.0013  0.1277 -0.1775
43555SOL    HW135476   3.650   2.585   4.211 -2.1224  0.5000  0.5720
43555SOL    HW235477   3.719   2.464   4.270  1.1354  1.3112 -1.3182
43556SOL     OW35478   0.609  11.781   8.049  0.3207 -0.3278  0.6028
43556SOL    HW135479   0.523  11.772   8.090  0.6699 -0.9263  1.2213
43556SOL    HW235480   0.655  11.700   8.070  0.3899 -0.8557 -1.3209
43557SOL     OW35481   2.012   0.695   1.578 -0.3542 -0.3024  0.1005
43557SOL    HW135482   1.996   0.601   1.584 -0.9963 -0.1358  1.3332
43557SOL    HW235483   1.925   0.734   1.569 -0.1473  0.2102  0.2552
43558SOL     OW35484   4.192   3.952  11.436 -0.1957 -0.2316 -0.2300
43558SOL    HW135485   4.259   3.894  11.473 -1.9471 -2.1649  0.0927
43558SOL    HW235486   4.185   3.926  11.345 -0.2461  0.2249 -0.3579
43559SOL     OW35487   4.697   5.940   1.886 -0.4369  0.0103 -0.2344
43559SOL    HW135488   4.615   5.962   1.929 -0.7702 -1.5718  0.0187
43559SOL    HW235489   4.686   5.848   1.860  1.5024 -0.4614  0.4477
43560SOL     OW35490   7.661   9.697   0.614 -0.5302 -0.1950  0.1997
43560SOL    HW135491   7.684   9.636   0.684  0.0046  0.9870  1.0698
43560SOL    HW235492   7.630   9.775   0.659  0.1815  0.7309 -0.8719
43561SOL     OW35493  12.624   6.571   8.374 -0.4361 -0.0711  0.5559
43561SOL    HW135494  12.667   6.486   8.386  0.0877  0.3637  1.9869
43561SOL    HW235495  12.607   6.576   8.280  0.8799 -1.1130  0.2278
43562SOL     OW35496   9.019   8.489   8.346  0.0424  0.5530 -0.2927
43562SOL    HW135497   9.078   8.429   8.301 -0.1668 -0.5179  0.7849
43562SOL    HW235498   8.931   8.454   8.329 -0.0863  0.5719  0.3063
43563SOL     OW35499   9.805  12.018   6.865  0.4871 -0.3545  0.3353
43563SOL    HW135500   9.829  12.086   6.803  0.4675 -1.0541 -0.4610
43563SOL    HW235501   9.718  11.988   6.836  0.7137 -1.0590  0.3641
43564SOL     OW35502   2.889   8.113   5.363 -0.0084  0.1580 -0.7583
43564SOL    HW135503   2.877   8.201   5.328  1.0403  0.9165  0.7104
43564SOL    HW235504   2.801   8.086   5.390 -0.4795  0.3904 -1.9747
43565SOL     OW35505   9.819   4.947   2.691 -0.5848  0.0790 -0.2966
43565SOL    HW135506   9.755   4.901   2.637 -1.0556 -0.5123  0.7153
43565SOL    HW235507   9.770   4.971   2.770  0.1964  0.4863  0.0772
43566SOL     OW35508   2.752   7.544   1.308  0.2465 -0.3686 -0.5314
43566SOL    HW135509   2.804   7.621   1.327 -0.5446  0.0654 -0.0444
43566SOL    HW235510   2.663   7.578   1.293 -0.3278 -1.2394  0.6510
43567SOL     OW35511   4.280  10.388   7.723 -0.1955  0.3216  0.3161
43567SOL    HW135512   4.209  10.362   7.665 -0.1951  0.4831  0.2436
43567SOL    HW235513   4.358  10.347   7.685 -0.1713  0.5492  0.1188
43568SOL     OW35514   5.855   3.183   9.714 -0.3814  0.4803  0.2684
43568SOL    HW135515   5.889   3.134   9.639 -0.2183 -0.2595  0.8107
43568SOL    HW235516   5.800   3.120   9.762  0.8917  0.3873  1.7038
43569SOL     OW35517  10.672   0.888   5.544 -0.0108 -0.2462 -0.2478
43569SOL    HW135518  10.579   0.881   5.520  0.3259  0.2473 -1.8162
43569SOL    HW235519  10.703   0.797   5.544 -0.2617 -0.3373 -0.7394
43570SOL     OW35520   6.378   6.539   8.607  0.9623  0.0409 -0.1749
43570SOL    HW135521   6.395   6.466   8.667  0.7667  0.3087  0.2059
43570SOL    HW235522   6.357   6.497   8.523  0.5554 -0.3431  0.1188
43571SOL     OW35523  10.144   0.974   3.387 -0.1813  0.1197 -0.3833
43571SOL    HW135524  10.216   1.037   3.388  1.2864 -1.4912 -0.0081
43571SOL    HW235525  10.121   0.962   3.479 -1.6065  1.2831 -0.5382
43572SOL     OW35526   9.352   9.639   1.827  0.1038  0.6165 -0.1807
43572SOL    HW135527   9.427   9.694   1.806  0.6603 -0.4734 -1.1790
43572SOL    HW235528   9.356   9.627   1.922  1.9344 -0.3998 -0.3331
43573SOL     OW35529   6.617   4.118   6.803 -0.4426  0.0715 -0.3689
43573SOL    HW135530   6.621   4.209   6.774 -2.1516 -0.0144 -1.0210
43573SOL    HW235531   6.705   4.083   6.787 -0.1832  1.1995 -1.5680
43574SOL     OW35532  11.255   8.528  11.126  0.4122 -0.3614 -0.6765
43574SOL    HW135533  11.233   8.448  11.077  1.6385  0.6054 -2.9842
43574SOL    HW235534  11.191   8.593  11.095 -0.1062 -0.2260  0.6263
43575SOL     OW35535   6.804   3.023   0.148  0.4589  0.6700 -0.3619
43575SOL    HW135536   6.784   2.993   0.059 -2.4494 -1.2820  0.7964
43575SOL    HW235537   6.862   2.955   0.183 -2.0852 -1.1950  0.5942
43576SOL     OW35538  10.570   5.201   1.268 -0.4613  0.4589 -0.1371
43576SOL    HW135539  10.629   5.201   1.344  0.0765  0.1160 -0.5416
43576SOL    HW235540  10.516   5.279   1.280 -0.3625  0.4328  0.5786
43577SOL     OW35541  12.372   1.796   0.781  0.1937 -0.0002  0.9872
43577SOL    HW135542  12.316   1.805   0.704 -0.1319 -1.8095  0.9654
43577SOL    HW235543  12.315   1.755   0.847  0.5082  1.3724  2.1605
43578SOL     OW35544   7.853   9.301   2.274 -0.2080 -0.0667 -0.0716
43578SOL    HW135545   7.849   9.372   2.338  1.0084  0.0127 -0.0493
43578SOL    HW235546   7.936   9.257   2.294 -1.0266 -1.6008  0.0235
43579SOL     OW35547   9.107   5.479   3.087  0.8507  0.0618 -0.1532
43579SOL    HW135548   9.098   5.573   3.072 -1.6005 -0.0192  0.2998
43579SOL    HW235549   9.129   5.443   3.001 -1.0627  0.7835 -0.9999
43580SOL     OW35550   5.579   1.788   0.630 -0.4148  0.2239  0.2922
43580SOL    HW135551   5.597   1.703   0.670  0.0471 -0.3059 -1.0183
43580SOL    HW235552   5.638   1.794   0.556  0.8157  2.4572  1.3364
43581SOL     OW35553   3.585   0.161   6.349 -0.0032  0.3034 -0.0131
43581SOL    HW135554   3.610   0.180   6.259  1.2942 -0.7774  0.0886
43581SOL    HW235555   3.553   0.070   6.347 -1.6368  0.8344  0.3265
43582SOL     OW35556   6.134   5.727   9.281 -0.4520  0.1813  0.1980
43582SOL    HW135557   6.156   5.649   9.231 -1.0372  0.1799 -0.0552
43582SOL    HW235558   6.126   5.696   9.371  3.8849  0.6872  1.0054
43583SOL     OW35559   7.104  11.116   8.268  0.3194 -0.1038  0.3222
43583SOL    HW135560   7.087  11.184   8.203  0.4323 -0.6113 -0.2421
43583SOL    HW235561   7.019  11.099   8.308 -0.1829 -1.2454 -1.1322
43584SOL     OW35562   8.922  10.807  11.677 -0.3471  0.5764  0.8861
43584SOL    HW135563   8.969  10.730  11.645 -2.7915 -1.1751  1.2336
43584SOL    HW235564   8.991  10.870  11.697  1.7435 -1.3202  0.1075
43585SOL     OW35565   4.860   1.151   2.348 -0.3357 -0.3931 -0.0058
43585SOL    HW135566   4.823   1.107   2.425 -1.0133 -0.2994 -0.2695
43585SOL    HW235567   4.919   1.086   2.310  0.1093 -0.3908  0.6694
43586SOL     OW35568   9.695  11.079   7.008 -0.2067  0.1255 -0.1557
43586SOL    HW135569   9.665  11.021   6.938  1.9168 -0.3917 -0.7273
43586SOL    HW235570   9.759  11.027   7.056 -0.4019  1.0447  1.1508
43587SOL     OW35571   2.932   6.212   5.801 -0.3196 -0.0146  0.0650
43587SOL    HW135572   2.846   6.171   5.793 -1.4351  2.2510 -0.5520
43587SOL    HW235573   2.994   6.140   5.798 -2.0304 -1.5142 -2.7954
43588SOL     OW35574   8.901   4.849  11.049  0.5188  0.2806  0.4990
43588SOL    HW135575   8.970   4.829  11.113  1.8712  2.5818 -0.1196
43588SOL    HW235576   8.943   4.909  10.988 -1.9085  1.3195 -0.2365
43589SOL     OW35577  12.196   9.770   4.492 -0.0323  0.2461 -0.1472
43589SOL    HW135578  12.140   9.784   4.569 -0.7307 -1.4604 -0.2983
43589SOL    HW235579  12.144   9.800   4.418  0.0743  0.5691 -0.0913
43590SOL     OW35580   7.860   3.488   2.636  0.5587 -0.2099 -0.5753
43590SOL    HW135581   7.863   3.405   2.683 -0.0544  0.6366  1.0332
43590SOL    HW235582   7.783   3.533   2.670  2.0109  1.9034  0.1443
43591SOL     OW35583   7.378  12.589   4.736  0.3344  0.2954  0.3157
43591SOL    HW135584   7.397  12.578   4.643  1.4460 -1.6859  0.7293
43591SOL    HW235585   7.449  12.645   4.768 -1.1040  2.6384 -0.3207
43592SOL     OW35586   1.274  12.192  10.709  0.4084 -1.0918  1.0238
43592SOL    HW135587   1.196  12.246  10.696  0.4322 -1.1688  0.5352
43592SOL    HW235588   1.268  12.125  10.642  2.3325  0.5514 -0.9715
43593SOL     OW35589   3.178   0.745   5.835 -0.3356 -0.0192 -0.0131
43593SOL    HW135590   3.252   0.700   5.794  0.5237  1.5836 -0.3105
43593SOL    HW235591   3.199   0.747   5.928  0.0030  0.4282 -0.0964
43594SOL     OW35592   0.334  11.146  11.268  0.2942  0.2542  0.0374
43594SOL    HW135593   0.327  11.054  11.242  1.4805  0.6861 -2.0753
43594SOL    HW235594   0.425  11.156  11.296  0.6491  1.0877 -1.2988
43595SOL     OW35595   7.540   2.801   3.782  0.0853  0.0712 -0.2597
43595SOL    HW135596   7.510   2.798   3.873 -1.0900  0.5887 -0.6185
43595SOL    HW235597   7.621   2.749   3.782 -0.6378 -1.1040  0.7984
43596SOL     OW35598   4.711   6.129  11.897 -0.4638 -0.0110 -0.8142
43596SOL    HW135599   4.669   6.044  11.882  1.5530 -1.3961  0.7386
43596SOL    HW235600   4.673   6.159  11.980 -0.4624  0.1398 -0.8681
43597SOL     OW35601  12.108   4.521   8.545  0.4910  0.5682 -0.7515
43597SOL    HW135602  12.173   4.450   8.549 -0.1238 -0.0090 -0.7684
43597SOL    HW235603  12.156   4.599   8.571  0.9643 -0.0199  0.2144
43598SOL     OW35604   5.622  11.196   3.155  0.0317  0.2731 -0.2622
43598SOL    HW135605   5.626  11.281   3.110  0.3926 -0.4180 -1.5904
43598SOL    HW235606   5.652  11.215   3.244 -1.5478  1.8541 -0.0019
43599SOL     OW35607   6.578  11.538   0.334  0.2961  0.7259 -0.0064
43599SOL    HW135608   6.599  11.580   0.250  1.6958 -1.2341 -0.7040
43599SOL    HW235609   6.658  11.547   0.386 -0.7123  2.3537  1.3807
43600SOL     OW35610   2.647   8.964   1.650 -0.1906  0.1830 -0.0534
43600SOL    HW135611   2.665   8.879   1.691  0.4387 -0.3892 -1.4564
43600SOL    HW235612   2.708   8.968   1.576 -1.3165  1.1517 -0.9579
43601SOL     OW35613   5.713   6.733   3.336  0.1283 -0.0069  0.2832
43601SOL    HW135614   5.714   6.699   3.426  2.4219  1.3548  0.8401
43601SOL    HW235615   5.690   6.825   3.345  2.9849  0.8421 -0.1503
43602SOL     OW35616   1.105   3.278   8.666  0.1554  0.6957 -0.2458
43602SOL    HW135617   1.011   3.296   8.662  0.2657  1.2983 -0.1994
43602SOL    HW235618   1.123   3.225   8.588  0.0530  1.8868 -1.0966
43603SOL     OW35619   9.716   9.404  12.091  0.0166  0.0248  0.0297
43603SOL    HW135620   9.655   9.331  12.077  1.7169 -1.3346 -0.7530
43603SOL    HW235621   9.740   9.397  12.183  2.4609 -2.4501 -0.6389
43604SOL     OW35622   5.401   7.160  11.776 -0.0586  0.2099  0.2823
43604SOL    HW135623   5.376   7.214  11.701  1.1862  1.4104  0.6702
43604SOL    HW235624   5.330   7.173  11.839 -1.0314 -0.6805 -0.6040
43605SOL     OW35625   8.425   1.265   2.116  0.3884  0.0167  0.5406
43605SOL    HW135626   8.516   1.292   2.132  0.6544 -0.4506 -0.1380
43605SOL    HW235627   8.403   1.210   2.192  0.8329 -0.2472  0.4850
43606SOL     OW35628   2.993   5.527   2.408  0.0485 -0.0472 -0.3957
43606SOL    HW135629   2.910   5.572   2.423  1.2375  1.3176  2.9333
43606SOL    HW235630   2.977   5.438   2.439 -0.9879 -0.7816 -2.7790
43607SOL     OW35631   7.973   1.686  11.862 -0.0175 -0.2728 -0.1381
43607SOL    HW135632   7.928   1.604  11.881  0.7463 -0.6738  0.0184
43607SOL    HW235633   7.911   1.737  11.810  0.1961 -1.7963 -2.0136
43608SOL     OW35634  11.628   5.377   0.322  0.0721  0.1109 -0.4364
43608SOL    HW135635  11.537   5.387   0.348 -0.1578 -0.7725 -0.8476
43608SOL    HW235636  11.636   5.431   0.244  0.0766  0.7047 -0.0284
43609SOL     OW35637   3.616   6.072   1.996 -0.2262 -0.2317  0.2850
43609SOL    HW135638   3.672   6.107   2.065  1.6682  0.1225 -1.3696
43609SOL    HW235639   3.572   6.149   1.959 -0.2808 -0.2766  0.2555
43610SOL     OW35640   7.270   5.029   7.378 -0.4910 -0.3451  0.1968
43610SOL    HW135641   7.226   5.093   7.322  0.6957  0.2704 -0.0716
43610SOL    HW235642   7.362   5.036   7.354 -0.0857 -0.7870  1.5241
43611SOL     OW35643   1.849   8.652  10.139  0.4014 -0.1538 -0.5830
43611SOL    HW135644   1.764   8.641  10.182  0.6869 -2.1970 -0.4523
43611SOL    HW235645   1.914   8.630  10.206  1.0778  1.3218 -0.7009
43612SOL     OW35646  11.697   1.119   1.541 -0.6019 -0.4179  0.0050
43612SOL    HW135647  11.745   1.068   1.476  0.0785 -0.4114  0.4918
43612SOL    HW235648  11.604   1.101   1.522 -0.3845 -2.3033  0.5387
43613SOL     OW35649   8.581   5.089   1.768  0.3212 -0.0481 -0.5039
43613SOL    HW135650   8.590   5.139   1.849  2.1519  0.5768 -1.0584
43613SOL    HW235651   8.651   5.024   1.772 -0.3501 -0.8254 -1.0366
43614SOL     OW35652   5.481   6.035   1.547  0.1843  0.4401  0.0399
43614SOL    HW135653   5.407   6.004   1.601  0.5026 -0.7967 -0.2130
43614SOL    HW235654   5.440   6.070   1.468 -0.1184 -0.6954 -0.3162
43615SOL     OW35655  11.824   9.218   7.091  0.3437 -0.2765 -0.7320
43615SOL    HW135656  11.893   9.153   7.077  0.2200 -0.3005 -1.2539
43615SOL    HW235657  11.746   9.166   7.109  0.6959 -0.2358  1.0623
43616SOL     OW35658   1.106   7.707   4.721 -0.0682 -0.2924  0.1804
43616SOL    HW135659   1.032   7.766   4.733  0.9302  0.8818  0.6977
43616SOL    HW235660   1.139   7.692   4.810  0.5161 -0.5397 -0.0756
43617SOL     OW35661   1.255   3.271   1.407 -0.1812 -0.4204 -0.2226
43617SOL    HW135662   1.178   3.327   1.405 -0.3750 -0.6949 -0.6309
43617SOL    HW235663   1.269   3.252   1.500 -0.2887  0.0547 -0.1044
43618SOL     OW35664   0.347   8.510   2.159 -0.2458  0.1937 -0.0848
43618SOL    HW135665   0.361   8.508   2.064  0.0627  0.1838 -0.0401
43618SOL    HW235666   0.435   8.516   2.196 -0.3814  0.4759  0.1943
43619SOL     OW35667   7.960   6.991   6.639  0.2209  0.3991  0.1809
43619SOL    HW135668   7.895   6.978   6.570  0.0175 -1.3088  0.6587
43619SOL    HW235669   7.979   6.903   6.672  0.9635  1.0883  1.7112
43620SOL     OW35670   1.976   8.075  11.707  0.0121 -0.1477 -0.2379
43620SOL    HW135671   2.002   7.993  11.748  0.1008 -0.5741 -1.1189
43620SOL    HW235672   1.918   8.117  11.771  0.7345 -0.4324  0.6249
43621SOL     OW35673   7.432   3.756   3.073 -0.1490 -0.3146  0.2280
43621SOL    HW135674   7.504   3.807   3.109  0.0179  0.4850 -1.1768
43621SOL    HW235675   7.359   3.817   3.067 -0.4215 -0.6581 -0.0089
43622SOL     OW35676  11.934  11.401   6.949 -0.1565 -0.2626 -0.5373
43622SOL    HW135677  11.900  11.314   6.929  0.4858 -0.8239  0.7203
43622SOL    HW235678  11.894  11.424   7.033 -1.0758  1.0872 -1.3151
43623SOL     OW35679   4.088   0.140   0.888 -0.4382  0.0349  0.5055
43623SOL    HW135680   4.138   0.210   0.930  0.1324 -0.4562  0.6612
43623SOL    HW235681   4.118   0.141   0.797 -0.4394  0.0014  0.5047
43624SOL     OW35682   9.088  11.042   5.280  0.4607  0.0657 -0.8422
43624SOL    HW135683   9.039  11.124   5.286  1.1547  0.3965  0.8438
43624SOL    HW235684   9.021  10.973   5.286  0.0207  0.5064 -0.6796
43625SOL     OW35685  11.338   3.288   3.709 -0.6422  0.6518 -0.1208
43625SOL    HW135686  11.386   3.361   3.670  0.9186 -0.2543  0.0201
43625SOL    HW235687  11.306   3.238   3.633  0.9830 -0.2042 -0.2924
43626SOL     OW35688   9.614   3.081   7.261 -0.1161 -0.4816 -0.0711
43626SOL    HW135689   9.582   3.156   7.309  1.8948 -0.2880  1.0738
43626SOL    HW235690   9.535   3.037   7.229 -1.3473  2.1127 -0.8745
43627SOL     OW35691   9.517  11.170  10.654  0.4393 -1.4271  0.7754
43627SOL    HW135692   9.552  11.111  10.721  2.3622 -0.2746  0.8874
43627SOL    HW235693   9.595  11.209  10.614 -0.7186  0.9180  0.6213
43628SOL     OW35694   0.864   4.629   6.801  0.7247  0.2108  0.4730
43628SOL    HW135695   0.770   4.616   6.796  0.7650 -0.0993  0.4460
43628SOL    HW235696   0.888   4.599   6.889  0.6881  1.0542  0.7728
43629SOL     OW35697   5.450   5.597   9.498 -0.2951 -0.0085 -0.1088
43629SOL    HW135698   5.359   5.620   9.514 -0.1682  0.4511 -0.0414
43629SOL    HW235699   5.485   5.576   9.585  0.5698  3.1208  0.4095
43630SOL     OW35700   2.130   1.427   1.053  0.3204 -0.3101 -0.0204
43630SOL    HW135701   2.119   1.513   1.093 -3.0583  0.9429 -3.1246
43630SOL    HW235702   2.073   1.369   1.104  0.9089 -0.2531  0.7220
43631SOL     OW35703   1.180  10.650   7.161  0.1555  0.3716 -0.0432
43631SOL    HW135704   1.166  10.678   7.071  1.6891  0.7249 -0.2008
43631SOL    HW235705   1.174  10.730   7.212  0.7873  0.4219 -0.0335
43632SOL     OW35706  10.834   5.827   6.055  0.6297  0.1181  0.1877
43632SOL    HW135707  10.843   5.795   5.965  1.7224 -0.6754  0.5578
43632SOL    HW235708  10.876   5.760   6.108  2.4041  1.8494  1.0653
43633SOL     OW35709   3.134   5.192   9.700  0.3059  0.5892 -0.0308
43633SOL    HW135710   3.198   5.155   9.639 -0.4762 -1.5058  0.3225
43633SOL    HW235711   3.050   5.180   9.655 -0.2537 -0.7319  1.3045
43634SOL     OW35712   4.320  12.235   6.209 -0.1472 -0.2989  0.2381
43634SOL    HW135713   4.336  12.249   6.115 -0.4483  2.0750  0.4922
43634SOL    HW235714   4.377  12.161   6.231  2.9658  1.4881 -1.0366
43635SOL     OW35715   9.471   1.809   8.729 -0.1372 -0.4339 -0.0987
43635SOL    HW135716   9.517   1.864   8.665  1.5788 -1.2336  0.3944
43635SOL    HW235717   9.434   1.738   8.677  0.4723 -0.5854 -0.3384
43636SOL     OW35718  11.218   5.362   2.943 -0.4107  0.3559  0.0583
43636SOL    HW135719  11.172   5.309   3.009 -0.3205 -0.0894 -0.2287
43636SOL    HW235720  11.310   5.343   2.958 -0.0558  3.3192  2.4180
43637SOL     OW35721  12.165   3.352   0.710 -0.4835  0.2925 -0.1829
43637SOL    HW135722  12.122   3.435   0.734 -1.4481 -0.1418 -0.3354
43637SOL    HW235723  12.112   3.285   0.754 -0.0447 -0.2743 -0.5118
43638SOL     OW35724   1.565  11.634   8.511 -0.0430  0.0762 -0.0871
43638SOL    HW135725   1.595  11.616   8.600 -0.3369 -1.2231 -0.2334
43638SOL    HW235726   1.606  11.566   8.458 -0.6242  0.2703 -0.8008
43639SOL     OW35727  10.493   5.993   6.475 -0.0551 -0.1578  0.3069
43639SOL    HW135728  10.417   5.998   6.417 -0.4900 -1.2294  0.7519
43639SOL    HW235729  10.461   5.944   6.551  0.9061 -0.0378  0.7946
43640SOL     OW35730   3.339   4.127   7.375  0.0876  0.3262 -0.1595
43640SOL    HW135731   3.419   4.143   7.424  0.0837 -0.2986  0.0538
43640SOL    HW235732   3.306   4.214   7.353  0.5131  0.5898  0.2537
43641SOL     OW35733   4.411   1.398   0.722  0.4170 -0.1836 -0.2548
43641SOL    HW135734   4.461   1.400   0.804 -1.1635  0.4544  0.7386
43641SOL    HW235735   4.466   1.444   0.659  1.4601 -0.2748  0.5661
43642SOL     OW35736   6.728   5.077   5.779  0.1326 -0.3783  0.2152
43642SOL    HW135737   6.718   5.015   5.852  0.5971  0.1748  0.7556
43642SOL    HW235738   6.797   5.137   5.807 -0.7384  0.7757 -0.0422
43643SOL     OW35739   1.465   5.722   6.837 -0.5107 -0.9574 -0.2224
43643SOL    HW135740   1.457   5.659   6.908 -1.0802 -0.3806  0.2346
43643SOL    HW235741   1.423   5.679   6.762 -0.3973 -1.3408 -0.0705
43644SOL     OW35742   6.365   0.889   3.199  0.2561  0.0379 -0.1004
43644SOL    HW135743   6.412   0.809   3.178  0.2970  0.1322 -0.3870
43644SOL    HW235744   6.429   0.944   3.243  0.4558  0.2128 -0.5968
43645SOL     OW35745   9.154  12.211   5.458 -0.2052  0.0184 -0.3165
43645SOL    HW135746   9.128  12.119   5.462  0.7154 -0.3325 -1.7111
43645SOL    HW235747   9.250  12.209   5.464 -0.2555  1.0342  1.4305
43646SOL     OW35748   8.813   9.301   2.341 -0.2153 -0.7996 -0.0969
43646SOL    HW135749   8.767   9.364   2.398  2.0122  1.6033 -0.7350
43646SOL    HW235750   8.893   9.280   2.390  1.3672  0.7115 -1.8451
43647SOL     OW35751   3.691   7.043   4.567  0.7438  0.1035 -0.0632
43647SOL    HW135752   3.652   7.080   4.646  0.7896  1.1478 -0.5149
43647SOL    HW235753   3.620   6.998   4.523  1.0516 -1.9492  1.3709
43648SOL     OW35754  10.709   1.060   8.046  0.1186 -0.7033 -0.4953
43648SOL    HW135755  10.629   1.018   8.015  0.6256 -2.5318  0.5360
43648SOL    HW235756  10.731   1.013   8.126  1.3218  0.8826  0.1560
43649SOL     OW35757   3.009   8.715  10.267  0.1558 -0.2723 -0.0746
43649SOL    HW135758   2.915   8.731  10.262  0.2524  1.7312  2.2070
43649SOL    HW235759   3.017   8.620  10.278 -1.2094 -1.1265 -4.4167
43650SOL     OW35760  10.869   0.649   2.148 -0.0776 -0.2063 -0.4987
43650SOL    HW135761  10.896   0.728   2.101  2.5022 -0.3269  0.5761
43650SOL    HW235762  10.921   0.579   2.109 -1.2650 -1.1376 -0.4744
43651SOL     OW35763   7.204   2.881   4.353  0.0282 -0.1585 -0.5168
43651SOL    HW135764   7.275   2.937   4.322 -0.2877  0.3448 -0.3516
43651SOL    HW235765   7.205   2.806   4.294  1.1789 -0.5294 -0.0626
43652SOL     OW35766  11.683   4.445   7.885  0.3952  0.1394 -0.2002
43652SOL    HW135767  11.764   4.494   7.873  0.4097 -0.1372 -1.3375
43652SOL    HW235768  11.646   4.480   7.966  1.0930  1.0531 -0.2544
43653SOL     OW35769   4.120   3.763   5.666 -0.3301  0.1086  0.0581
43653SOL    HW135770   4.032   3.736   5.641 -0.2814 -1.6221  1.5692
43653SOL    HW235771   4.163   3.783   5.584 -1.4741 -1.1206 -0.8823
43654SOL     OW35772  11.339   4.800  10.342  0.6130 -0.8637 -0.4754
43654SOL    HW135773  11.316   4.748  10.265  4.6592  0.9211 -3.2338
43654SOL    HW235774  11.305   4.887  10.323 -0.0826 -0.8497  0.7737
43655SOL     OW35775  10.643   1.108  11.691 -0.0799 -0.0874  0.0807
43655SOL    HW135776  10.624   1.119  11.598  0.0852 -0.4658  0.0026
43655SOL    HW235777  10.657   1.014  11.703 -0.1614 -0.0508  0.5005
43656SOL     OW35778  10.842   4.727   0.475 -0.2597  0.1652 -0.0880
43656SOL    HW135779  10.920   4.782   0.463 -0.2230  0.5518  1.7282
43656SOL    HW235780  10.862   4.646   0.428  0.9000  0.5726 -0.3236
43657SOL     OW35781   9.796   9.873   7.677  0.1592  0.1230 -0.2007
43657SOL    HW135782   9.722   9.841   7.626  0.2451 -0.1918 -0.1311
43657SOL    HW235783   9.757   9.904   7.759  0.1302 -0.2721 -0.0624
43658SOL     OW35784  10.238   8.062  10.814  0.1299 -0.4567  0.3844
43658SOL    HW135785  10.169   8.058  10.748 -0.9057 -0.5722  1.4261
43658SOL    HW235786  10.300   7.994  10.788  0.2805  0.1911 -1.0227
43659SOL     OW35787   9.558   6.448   1.986  0.4836  0.0410 -0.4593
43659SOL    HW135788   9.542   6.542   1.988 -0.3750 -0.1067 -0.0113
43659SOL    HW235789   9.521   6.415   2.068  1.0154 -0.6534 -0.4845
43660SOL     OW35790   2.634   9.216   5.239 -0.0883  0.0361 -0.3498
43660SOL    HW135791   2.587   9.190   5.319 -1.1428 -0.0807 -0.9880
43660SOL    HW235792   2.566   9.256   5.184  0.1826 -1.6268 -1.9814
43661SOL     OW35793   3.528  11.827   4.419  0.2033 -0.3845 -0.2227
43661SOL    HW135794   3.436  11.824   4.393  0.0776  0.4575  0.0921
43661SOL    HW235795   3.534  11.900   4.481  1.5396  1.2331 -2.1055
43662SOL     OW35796  11.808   8.362   8.452  0.2208  0.2067 -0.1899
43662SOL    HW135797  11.827   8.313   8.531  0.7480 -0.3201 -0.6390
43662SOL    HW235798  11.805   8.297   8.382  0.8071  0.7860 -0.7732
43663SOL     OW35799   8.723  12.243   1.461 -0.2388  0.2940 -0.2924
43663SOL    HW135800   8.676  12.183   1.519 -0.0093  0.5259  0.1377
43663SOL    HW235801   8.656  12.305   1.432 -0.2469  0.5042  0.1619
43664SOL     OW35802   9.591  10.753   3.802  0.8080  0.4006  0.0598
43664SOL    HW135803   9.556  10.828   3.852  1.0250  1.5589 -1.4648
43664SOL    HW235804   9.518  10.691   3.797 -0.1308  1.5231 -0.6021
43665SOL     OW35805   8.603   9.442   7.613 -0.7337 -0.7053  0.0970
43665SOL    HW135806   8.511   9.469   7.613 -0.4723  0.2383 -0.4982
43665SOL    HW235807   8.607   9.368   7.673 -1.9731 -1.0533 -0.2311
43666SOL     OW35808  11.617  10.282   4.812 -0.6801  0.3950  0.9114
43666SOL    HW135809  11.589  10.313   4.898 -2.2733  0.2204  0.4844
43666SOL    HW235810  11.542  10.235   4.777 -0.2756  0.9292 -0.8119
43667SOL     OW35811  10.187   1.838   2.877  0.1862  0.2879  0.6426
43667SOL    HW135812  10.128   1.906   2.907 -0.2038 -0.3691  1.3843
43667SOL    HW235813  10.210   1.788   2.956  0.1574 -0.6752  0.0644
43668SOL     OW35814   9.390   1.289   6.242 -0.1047  0.1977  0.2237
43668SOL    HW135815   9.463   1.313   6.299 -0.2694  1.4422 -0.0523
43668SOL    HW235816   9.312   1.325   6.286 -0.1491  1.8755 -1.1258
43669SOL     OW35817   6.785   2.047   7.531 -0.2314 -0.1193  0.2456
43669SOL    HW135818   6.814   1.964   7.493 -0.7966 -0.3135  0.2251
43669SOL    HW235819   6.773   2.105   7.456 -0.2291 -0.1448  0.2255
43670SOL     OW35820   4.903   6.482  11.180 -0.2869  0.1442  0.2374
43670SOL    HW135821   4.824   6.511  11.135  1.1155  0.5332 -2.1183
43670SOL    HW235822   4.878   6.479  11.273 -2.5817  1.7530 -0.2506
43671SOL     OW35823   4.826  10.339  12.303 -0.3512 -0.1605 -0.0185
43671SOL    HW135824   4.904  10.394  12.302 -0.0618 -0.5029 -2.4397
43671SOL    HW235825   4.854  10.258  12.347  0.4667 -0.0080 -0.2503
43672SOL     OW35826   3.024   7.416   4.539 -0.5957 -0.0526 -0.4947
43672SOL    HW135827   2.960   7.424   4.609  0.1310  1.5847  0.0326
43672SOL    HW235828   2.995   7.478   4.472 -0.2062 -0.1475 -0.7560
43673SOL     OW35829   0.883   0.196   1.022  0.0289  0.2218  0.1052
43673SOL    HW135830   0.817   0.162   1.081 -0.5879  1.6178  0.2543
43673SOL    HW235831   0.869   0.149   0.940  0.9166 -1.7635  1.0088
43674SOL     OW35832   3.740   6.832   4.939 -0.9759  0.1840 -0.2700
43674SOL    HW135833   3.710   6.761   4.883 -0.3883 -0.6976  0.5024
43674SOL    HW235834   3.836   6.827   4.936 -0.9165 -0.4164  1.4249
43675SOL     OW35835   5.783   2.131   9.884  0.6767  0.0419  0.3781
43675SOL    HW135836   5.733   2.186   9.943  1.1340 -1.4148  2.2560
43675SOL    HW235837   5.869   2.123   9.926  1.3271 -0.3550 -0.9516
43676SOL     OW35838   4.341   9.191   6.279 -0.3048  0.1291 -0.0174
43676SOL    HW135839   4.406   9.172   6.211  0.8920 -1.0050  1.3680
43676SOL    HW235840   4.390   9.185   6.361 -1.6219  1.8352  0.9605
43677SOL     OW35841   5.339   0.865   3.063  0.1406 -0.7418 -0.1103
43677SOL    HW135842   5.342   0.784   3.114  1.5800 -0.4587  0.3179
43677SOL    HW235843   5.312   0.932   3.126  2.6256 -0.2614  0.5589
43678SOL     OW35844   2.832  12.109   7.036 -0.4366  0.0744  0.4030
43678SOL    HW135845   2.736  12.112   7.027 -0.6653  1.0993  2.5648
43678SOL    HW235846   2.847  12.038   7.098  0.2051  0.0242  0.1926
43679SOL     OW35847   8.288   5.492   2.830  0.7442 -0.3156  1.0501
43679SOL    HW135848   8.259   5.429   2.897  2.4277 -1.2048  0.9831
43679SOL    HW235849   8.260   5.453   2.747  0.9054 -0.4886  1.0758
43680SOL     OW35850   4.904   9.897   8.754 -0.2508  0.4901 -0.0097
43680SOL    HW135851   4.929   9.986   8.778  0.7154  0.0870  0.5385
43680SOL    HW235852   4.987   9.853   8.734 -0.6227 -0.5462  0.6659
43681SOL     OW35853  11.366   8.618   2.884 -0.2042 -0.3678 -0.3714
43681SOL    HW135854  11.320   8.542   2.920  0.7178 -1.0436 -0.5731
43681SOL    HW235855  11.408   8.658   2.959 -1.8571  0.8155 -0.0293
43682SOL     OW35856   7.997   1.519  11.504 -0.0485 -0.7265  0.0432
43682SOL    HW135857   7.969   1.456  11.438 -0.8684 -1.2564  0.8861
43682SOL    HW235858   7.929   1.517  11.571  0.2955  0.4994  0.4584
43683SOL     OW35859   9.338   2.261  10.898 -0.4524  0.4085 -0.2117
43683SOL    HW135860   9.302   2.177  10.870 -0.8516  0.2404  0.7569
43683SOL    HW235861   9.423   2.240  10.937  0.0353  0.6213 -1.1494
43684SOL     OW35862   9.321   9.251  11.685 -0.2404 -0.1202  0.3038
43684SOL    HW135863   9.246   9.220  11.735  1.0416 -1.1492  1.6643
43684SOL    HW235864   9.359   9.321  11.739  0.9428 -0.9862  0.6210
43685SOL     OW35865   3.003   0.772  10.332 -0.2510 -0.4625 -0.6503
43685SOL    HW135866   2.957   0.854  10.313 -1.4394 -0.9364  0.0791
43685SOL    HW235867   2.934   0.711  10.357  0.8424 -0.8875  1.6090
43686SOL     OW35868   6.418   0.284   0.478  0.6143 -0.0255 -0.2891
43686SOL    HW135869   6.502   0.310   0.440  1.3087 -0.8638  0.5990
43686SOL    HW235870   6.424   0.312   0.570  0.4004 -1.0921  0.0708
43687SOL     OW35871   7.277   3.179   1.002  0.2962 -0.5428 -0.0204
43687SOL    HW135872   7.269   3.100   0.947  1.1010 -1.3148  0.9419
43687SOL    HW235873   7.367   3.177   1.034 -0.3585 -0.5593  1.9554
43688SOL     OW35874   8.085   4.414   9.354 -0.4522  0.0910 -0.3504
43688SOL    HW135875   8.095   4.508   9.339 -2.1147  0.0592 -2.0488
43688SOL    HW235876   8.174   4.382   9.369  0.0631  2.0491  1.2134
43689SOL     OW35877   6.666   6.428   7.761  0.0804  0.1791 -0.3177
43689SOL    HW135878   6.666   6.498   7.696  0.9955  0.0231 -0.5016
43689SOL    HW235879   6.750   6.383   7.748  0.3452  0.2390  1.0749
43690SOL     OW35880   7.490  10.573   7.422  0.0719  0.2714 -0.2006
43690SOL    HW135881   7.460  10.664   7.421 -0.8617 -0.0241 -0.5095
43690SOL    HW235882   7.471  10.542   7.510 -1.5002 -0.1988 -0.6646
43691SOL     OW35883  11.763   9.128   3.634 -0.1283 -0.1244  0.1744
43691SOL    HW135884  11.681   9.115   3.682 -0.0049 -1.8236  0.0078
43691SOL    HW235885  11.755   9.214   3.595 -1.9492 -0.3466 -0.0305
43692SOL     OW35886   5.352   0.669   0.928  0.6489  0.1509  0.1036
43692SOL    HW135887   5.395   0.588   0.901 -0.2763  0.2761 -1.9571
43692SOL    HW235888   5.380   0.734   0.864 -1.9247  0.3883 -0.9422
43693SOL     OW35889   8.658   0.603   0.170  0.3630 -0.4574  0.3707
43693SOL    HW135890   8.660   0.640   0.258  1.5887  1.9698 -0.5979
43693SOL    HW235891   8.591   0.653   0.124  0.8733 -0.5791 -0.5257
43694SOL     OW35892   7.242   3.376  12.037  0.4665 -0.1641  0.0341
43694SOL    HW135893   7.161   3.425  12.023  0.6004  0.5494  1.5407
43694SOL    HW235894   7.292   3.430  12.098  0.5647 -2.2313  1.8837
43695SOL     OW35895   4.357   2.983   0.289  0.0173 -0.0252  0.8310
43695SOL    HW135896   4.398   2.922   0.227 -1.2394 -0.0096 -0.0478
43695SOL    HW235897   4.293   3.031   0.237 -0.9534  0.1157  2.1109
43696SOL     OW35898   8.958   0.783   6.097  0.6244 -0.3852 -0.5765
43696SOL    HW135899   8.932   0.798   6.188  1.9539 -0.6824 -0.1279
43696SOL    HW235900   9.025   0.714   6.102  1.1097 -0.0238 -1.7304
43697SOL     OW35901   7.053   0.678   4.227 -0.1167  0.5755 -0.0888
43697SOL    HW135902   7.082   0.737   4.296  2.5298  0.0295 -0.6308
43697SOL    HW235903   7.041   0.734   4.150 -0.0420  0.7359  0.0165
43698SOL     OW35904   1.651  11.033   8.763  0.3504 -0.4038 -0.1232
43698SOL    HW135905   1.717  11.101   8.752  0.9739 -0.9743  0.0192
43698SOL    HW235906   1.700  10.951   8.757  0.0205 -0.8277  2.0418
43699SOL     OW35907   0.058   1.766   1.226  0.3989 -0.6065 -0.0773
43699SOL    HW135908   0.118   1.698   1.196  1.3557  0.5094 -0.7848
43699SOL    HW235909   0.110   1.820   1.286 -0.3622 -0.5302  0.5283
43700SOL     OW35910  12.070  11.211   8.771 -0.2840 -0.7311  0.1310
43700SOL    HW135911  12.001  11.263   8.730  0.1300  0.0425  0.4042
43700SOL    HW235912  12.024  11.155   8.834 -0.6394 -0.0278  0.5027
43701SOL     OW35913   5.271  10.833   0.959 -0.8671  0.6035 -0.6953
43701SOL    HW135914   5.201  10.892   0.987  0.0413  1.2410  0.3013
43701SOL    HW235915   5.257  10.753   1.009  0.1724  1.3882  0.8978
43702SOL     OW35916   2.140   3.267   0.597  0.9282 -0.0468  0.3019
43702SOL    HW135917   2.231   3.252   0.573  0.7641  0.7345 -0.8652
43702SOL    HW235918   2.091   3.257   0.516  0.3375  2.5183  0.2690
43703SOL     OW35919   1.640  10.272   2.103 -0.0081  0.1229  0.0216
43703SOL    HW135920   1.717  10.296   2.053  0.0777  1.5689  0.7847
43703SOL    HW235921   1.580  10.346   2.093 -1.6270 -1.2446 -1.1204
43704SOL     OW35922   1.389   2.758   3.028  0.2925 -0.3665  0.0964
43704SOL    HW135923   1.342   2.773   3.110 -2.2332 -2.6557 -0.8204
43704SOL    HW235924   1.348   2.817   2.965  0.0252 -0.9335 -0.2606
43705SOL     OW35925   9.753  12.041   4.919  0.2725  0.0689 -0.5745
43705SOL    HW135926   9.699  12.068   4.994  1.0790  1.7062 -0.5502
43705SOL    HW235927   9.840  12.025   4.957  0.7599  1.1913 -1.1747
43706SOL     OW35928   1.674   9.362   6.090  0.0255  0.3928 -0.4504
43706SOL    HW135929   1.599   9.307   6.112  0.7462 -0.4062  0.0634
43706SOL    HW235930   1.746   9.301   6.078  0.8008  1.2116 -0.0654
43707SOL     OW35931   9.501   7.245  11.166 -0.8457  0.2902  0.2844
43707SOL    HW135932   9.528   7.254  11.257 -0.5384 -1.9163  0.4631
43707SOL    HW235933   9.409   7.220  11.171 -1.1581  1.3389 -0.0730
43708SOL     OW35934   8.451   0.222  11.150  0.2755 -0.0373 -0.5009
43708SOL    HW135935   8.524   0.226  11.212  0.6347 -2.2329 -0.7218
43708SOL    HW235936   8.373   0.215  11.205  0.6825 -3.4566 -0.1518
43709SOL     OW35937   0.148   2.985  10.366 -0.0396  0.6145  0.0581
43709SOL    HW135938   0.109   3.072  10.355 -2.0454  0.0095  1.7409
43709SOL    HW235939   0.144   2.968  10.460  0.5865 -1.1889 -0.2009
43710SOL     OW35940   2.305  10.778   5.470 -0.2365  0.1416  0.1626
43710SOL    HW135941   2.277  10.851   5.525 -0.9116  1.5280 -1.9059
43710SOL    HW235942   2.258  10.790   5.388  0.0868 -2.3189 -0.4740
43711SOL     OW35943   2.647   3.955   8.750  0.0057 -0.2255 -0.8789
43711SOL    HW135944   2.597   3.930   8.828  2.2289 -0.7807  0.4416
43711SOL    HW235945   2.613   3.898   8.681 -0.1653 -1.6779  0.3444
43712SOL     OW35946   2.818   3.702   3.204  0.3239 -0.6564  0.3008
43712SOL    HW135947   2.749   3.637   3.214 -0.2983  0.2566  2.8328
43712SOL    HW235948   2.875   3.688   3.280  0.3175  1.5019  0.7842
43713SOL     OW35949   4.130   6.342   7.716  0.0230  0.2489  0.8464
43713SOL    HW135950   4.129   6.256   7.758 -1.0075 -0.0679  0.2066
43713SOL    HW235951   4.218   6.348   7.678  0.0028 -0.6505  0.6267
43714SOL     OW35952   3.256   2.822   7.652  0.0971 -0.2348  0.3686
43714SOL    HW135953   3.290   2.792   7.736  0.7833  2.4585  1.1492
43714SOL    HW235954   3.333   2.824   7.595  0.5826  2.0456  0.9939
43715SOL     OW35955   1.579   5.850   4.628  0.8877  0.0212  0.7419
43715SOL    HW135956   1.571   5.945   4.615  0.7164 -0.1161 -0.2265
43715SOL    HW235957   1.493   5.815   4.607  1.2358 -0.4509  0.0346
43716SOL     OW35958   2.468   1.016  11.718 -0.7427  0.0948 -0.2086
43716SOL    HW135959   2.441   1.084  11.657 -2.6859 -0.2172  0.2385
43716SOL    HW235960   2.424   0.937  11.687  0.1641 -0.6087  0.2308
43717SOL     OW35961   6.318  12.543   2.135 -0.3116 -0.5372 -0.7544
43717SOL    HW135962   6.338  12.600   2.210  1.4312 -1.5680 -0.3639
43717SOL    HW235963   6.324  12.601   2.059 -1.8260  0.4657 -0.1548
43718SOL     OW35964   3.149  10.132   3.630  0.5631 -0.4061 -0.0975
43718SOL    HW135965   3.112  10.213   3.593 -1.2745 -0.4835  1.4281
43718SOL    HW235966   3.231  10.160   3.671  0.4066  0.5188 -0.3823
43719SOL     OW35967   2.837   3.870   1.414  0.0536 -0.1766 -0.5231
43719SOL    HW135968   2.918   3.918   1.401  0.3479 -1.0156 -1.9354
43719SOL    HW235969   2.847   3.830   1.501  0.6992  0.5544 -0.2494
43720SOL     OW35970  11.589   7.848   5.966  0.0007  0.0903  0.3089
43720SOL    HW135971  11.580   7.935   5.927 -0.9017  0.6843  1.7460
43720SOL    HW235972  11.679   7.822   5.948 -0.5585 -0.0844 -2.8718
43721SOL     OW35973   7.810   8.399   0.263 -0.0678 -0.5589 -0.4890
43721SOL    HW135974   7.893   8.429   0.227 -0.6178 -0.6393 -1.8892
43721SOL    HW235975   7.760   8.368   0.187 -1.6582  0.1516  0.2143
43722SOL     OW35976   5.133  10.301   3.855  0.0527  0.2194  0.3370
43722SOL    HW135977   5.222  10.288   3.824 -0.3684  1.5610 -1.6107
43722SOL    HW235978   5.104  10.214   3.883  1.7302 -0.3474  0.3869
43723SOL     OW35979   2.989   2.081  10.947  0.3706 -0.4196  0.0609
43723SOL    HW135980   3.005   2.129  11.028  2.4526 -0.1045 -0.4708
43723SOL    HW235981   3.016   2.141  10.877 -0.4723 -1.0328 -0.8220
43724SOL     OW35982   4.627   0.089   3.391 -0.4037  0.1490  0.1234
43724SOL    HW135983   4.686   0.116   3.461 -1.3671  1.7781  0.3720
43724SOL    HW235984   4.541   0.118   3.420 -1.0896 -0.7271 -0.9574
43725SOL     OW35985   8.332   5.325   5.680 -0.3711 -0.0135 -0.2685
43725SOL    HW135986   8.419   5.328   5.722  0.8327  0.3049 -2.6123
43725SOL    HW235987   8.289   5.250   5.720  2.0220 -1.8228 -0.8576
43726SOL     OW35988  10.271   7.869   0.413 -0.3636 -0.0513 -0.3961
43726SOL    HW135989  10.286   7.777   0.390 -2.9214 -0.8418  0.6588
43726SOL    HW235990  10.309   7.879   0.500 -2.3170 -0.9545  0.6402
43727SOL     OW35991  10.651   5.265   9.952 -0.3785  0.1082  0.0740
43727SOL    HW135992  10.722   5.296   9.895 -0.9441 -0.2174 -0.8325
43727SOL    HW235993  10.640   5.173   9.928 -0.2938 -0.1729  1.0759
43728SOL     OW35994   1.511   0.068   3.353  0.3294  0.5857  0.3394
43728SOL    HW135995   1.586   0.123   3.329  0.1781  0.8909  0.5681
43728SOL    HW235996   1.538  -0.021   3.329  0.5366  0.7716 -0.1260
43729SOL     OW35997   8.428  12.107   3.244 -0.2660  0.0810  0.3469
43729SOL    HW135998   8.338  12.075   3.236 -0.8651  1.3608  1.5464
43729SOL    HW235999   8.420  12.188   3.293  1.6265 -0.0870  1.0037
43730SOL     OW36000  10.494   5.876  10.087  0.6834 -0.2872 -0.5583
43730SOL    HW136001  10.443   5.804  10.124  0.3182  1.2614  2.2217
43730SOL    HW236002  10.442   5.906  10.013 -1.6941  0.1316  1.1485
43731SOL     OW36003   4.205  12.172   2.368 -0.0987  0.0884 -0.7700
43731SOL    HW136004   4.271  12.173   2.437  1.3974 -2.7941 -1.9739
43731SOL    HW236005   4.121  12.171   2.414  0.7282  1.4734  0.8604
43732SOL     OW36006   4.905   2.898   7.544  0.5232 -0.0125 -0.1444
43732SOL    HW136007   4.839   2.877   7.610 -1.2981 -0.2160 -1.9463
43732SOL    HW236008   4.862   2.880   7.461  1.7052  2.9729 -1.5299
43733SOL     OW36009   7.931   3.965   2.488 -0.3603 -0.2558  0.4605
43733SOL    HW136010   7.940   4.007   2.403  0.7694 -0.3882  0.4919
43733SOL    HW236011   7.849   3.917   2.483 -0.8028  0.5472 -0.1912
43734SOL     OW36012   8.380   9.354   4.028 -0.0298 -0.2853  0.6857
43734SOL    HW136013   8.465   9.322   3.997 -0.2183  0.4477 -0.6450
43734SOL    HW236014   8.387   9.449   4.019 -1.0419 -0.2301  0.4866
43735SOL     OW36015   2.409  10.505   1.832  0.4338  0.2044  0.3542
43735SOL    HW136016   2.503  10.493   1.842  0.8227  1.4429 -1.2804
43735SOL    HW236017   2.396  10.516   1.738 -1.5297 -1.2396  0.3933
43736SOL     OW36018   7.658   0.983   7.350  0.3815 -0.1468  0.0195
43736SOL    HW136019   7.680   1.058   7.404 -0.7493 -0.4154  0.8870
43736SOL    HW236020   7.662   0.908   7.410  0.6099 -0.6587 -0.6217
43737SOL     OW36021   7.076   5.360  12.616 -0.1057 -0.2139 -0.2309
43737SOL    HW136022   7.096   5.323  12.530 -0.2264  0.1568 -0.4241
43737SOL    HW236023   7.002   5.308  12.648  0.0623 -0.4757 -0.2693
43738SOL     OW36024   5.127   5.145   0.159 -0.4978  0.0015 -0.2450
43738SOL    HW136025   5.078   5.073   0.197 -0.7615  0.7447  0.8879
43738SOL    HW236026   5.198   5.161   0.220  1.6596 -1.4958 -2.1880
43739SOL     OW36027   9.603   4.270  10.570 -0.0110 -0.3821  0.1975
43739SOL    HW136028   9.547   4.322  10.628 -0.6645 -0.4588 -0.3455
43739SOL    HW236029   9.614   4.187  10.616 -0.8581 -0.5915  0.0537
43740SOL     OW36030   6.831   3.102   4.487  0.1430 -0.7444  0.0205
43740SOL    HW136031   6.913   3.055   4.503 -0.3034 -0.8555  2.2917
43740SOL    HW236032   6.842   3.185   4.534 -1.5686 -1.3500  1.5414
43741SOL     OW36033   0.493   3.281   9.629 -0.3657  0.0229 -0.0432
43741SOL    HW136034   0.580   3.317   9.613 -0.8277  0.3771 -1.9612
43741SOL    HW236035   0.436   3.357   9.635 -0.7545 -0.2472 -0.2295
43742SOL     OW36036   9.861   3.642   3.263 -0.0994  0.2693 -0.2073
43742SOL    HW136037   9.814   3.710   3.310  0.0917  1.1374 -1.2230
43742SOL    HW236038   9.954   3.656   3.284 -0.2310 -1.4257  1.7763
43743SOL     OW36039   2.506   6.657   4.044 -0.4149  0.3893 -0.4542
43743SOL    HW136040   2.583   6.680   3.992  0.7693  0.8409  1.3968
43743SOL    HW236041   2.540   6.597   4.111 -2.0239 -0.7320 -0.5940
43744SOL     OW36042   5.416   7.333   7.997 -0.2844  0.1124 -0.1416
43744SOL    HW136043   5.452   7.407   8.046  0.4228  0.5247 -1.2396
43744SOL    HW236044   5.332   7.366   7.963 -0.3079  0.1674 -0.0305
43745SOL     OW36045   1.531   2.021  11.021  0.3478  0.0477  0.1468
43745SOL    HW136046   1.550   2.075  10.945 -0.6972  0.2416  0.0073
43745SOL    HW236047   1.448   2.055  11.055 -0.1004 -1.1680  0.3269
43746SOL     OW36048  11.359   6.687  10.873  0.0956 -0.4890 -0.4111
43746SOL    HW136049  11.330   6.707  10.784  0.4189  0.5339 -0.2970
43746SOL    HW236050  11.280   6.656  10.918 -0.0906 -0.8960 -1.0130
43747SOL     OW36051   0.938  10.761   7.466 -0.2880 -0.2955 -0.1789
43747SOL    HW136052   0.919  10.793   7.378  1.0721  1.1554  0.0214
43747SOL    HW236053   0.968  10.838   7.515  2.0946 -1.6277  0.6384
43748SOL     OW36054   1.840   2.703   2.799 -0.0005  0.2230  0.3326
43748SOL    HW136055   1.776   2.643   2.762 -0.5742  0.4996  0.8554
43748SOL    HW236056   1.843   2.681   2.892  1.5752 -0.6004  0.1256
43749SOL     OW36057  11.305   5.611   6.714 -0.7014  0.4858 -0.2344
43749SOL    HW136058  11.375   5.580   6.657  0.4362 -0.5651  1.6490
43749SOL    HW236059  11.288   5.539   6.774 -1.4274  1.7398  1.1451
43750SOL     OW36060   8.585   7.810   1.613  0.1965  0.1301  0.5802
43750SOL    HW136061   8.555   7.751   1.682 -0.8788  1.4765  1.3149
43750SOL    HW236062   8.557   7.768   1.532  1.7869 -1.6535  0.8914
43751SOL     OW36063   1.476   8.773   0.582  0.0752  0.7116 -0.8234
43751SOL    HW136064   1.412   8.840   0.559  1.9955  3.0382  0.1448
43751SOL    HW236065   1.431   8.717   0.646 -1.1557  1.9327 -0.5871
43752SOL     OW36066   7.122  12.351  10.962  0.4387  0.0509 -0.2025
43752SOL    HW136067   7.185  12.422  10.975 -0.8714  1.3458 -0.6513
43752SOL    HW236068   7.055  12.389  10.906 -1.1946 -1.0066  0.9590
43753SOL     OW36069   5.692   6.932   5.400  0.2777  0.1774 -0.1917
43753SOL    HW136070   5.746   6.983   5.340 -0.3407 -2.1083 -2.8728
43753SOL    HW236071   5.755   6.893   5.461  1.2185  0.5526 -0.9067
43754SOL     OW36072   7.086   0.314   0.683 -0.1933 -0.4226 -0.0436
43754SOL    HW136073   7.077   0.269   0.767 -0.1992 -1.7010 -0.7063
43754SOL    HW236074   7.170   0.284   0.649 -0.5754 -0.5811 -0.8734
43755SOL     OW36075   6.528   3.138   7.287 -0.3588 -1.1429 -0.0595
43755SOL    HW136076   6.517   3.193   7.210  0.3915 -0.8702  0.0125
43755SOL    HW236077   6.508   3.049   7.257 -0.5398 -0.9745 -0.4425
43756SOL     OW36078   6.659   2.024   6.758  0.1097 -0.0197  0.1888
43756SOL    HW136079   6.707   2.009   6.677  0.6792 -1.0342  0.6856
43756SOL    HW236080   6.612   1.942   6.774 -0.1435  0.2314  0.7735
43757SOL     OW36081   2.423   4.770   7.483  0.1397  0.1016  0.0662
43757SOL    HW136082   2.397   4.821   7.407  0.6454  1.0875  0.5411
43757SOL    HW236083   2.517   4.755   7.471 -0.1053 -1.2411 -0.3597
43758SOL     OW36084  10.059   2.771  11.147  0.0162 -0.3403 -0.2200
43758SOL    HW136085  10.125   2.735  11.206  0.3623  0.8486  0.1512
43758SOL    HW236086  10.097   2.760  11.059  0.8167  0.4998  0.0028
43759SOL     OW36087   2.086   4.296  11.375  0.2578 -0.8613  0.2817
43759SOL    HW136088   1.991   4.290  11.386 -0.0722  0.3892 -1.4472
43759SOL    HW236089   2.120   4.301  11.465 -1.5564  1.5190  0.9472
43760SOL     OW36090   9.271   7.565   4.815 -0.2759  0.2812 -0.1146
43760SOL    HW136091   9.353   7.577   4.864  0.0102  0.5804 -0.6586
43760SOL    HW236092   9.245   7.654   4.791  0.9852  0.0375 -2.7626
43761SOL     OW36093   5.852   1.042   0.339 -0.0671 -0.6663  0.5099
43761SOL    HW136094   5.928   0.994   0.372  1.1925  0.3894 -0.7610
43761SOL    HW236095   5.821   1.092   0.415  1.2907 -0.1326  0.7461
43762SOL     OW36096   2.748  11.340   3.406  0.1957  0.2776 -0.1208
43762SOL    HW136097   2.773  11.417   3.458  0.7814 -0.0453  0.0896
43762SOL    HW236098   2.820  11.278   3.419  0.3077  0.1486 -1.2439
43763SOL     OW36099  11.573  11.534   8.984 -0.1801 -0.0743 -0.2611
43763SOL    HW136100  11.660  11.570   8.997  0.2103 -0.8076 -0.7506
43763SOL    HW236101  11.524  11.603   8.940  0.8445 -0.4445 -2.1064
43764SOL     OW36102   0.552  11.360   1.461  0.3795  0.7511  0.2150
43764SOL    HW136103   0.523  11.350   1.370  0.9891  3.9051 -0.4450
43764SOL    HW236104   0.549  11.272   1.497 -1.6220 -0.3405 -2.3281
43765SOL     OW36105   3.492   1.322   1.107  0.2316 -0.0605 -0.5528
43765SOL    HW136106   3.535   1.353   1.027 -1.0084 -0.7916 -1.5494
43765SOL    HW236107   3.485   1.400   1.162  1.0682  0.4677 -1.1638
43766SOL     OW36108   0.652   2.292   1.171  0.3999 -0.6966  0.2916
43766SOL    HW136109   0.655   2.293   1.075  0.3785 -1.8140  0.2642
43766SOL    HW236110   0.602   2.370   1.195 -0.9968 -1.2555 -0.6717
43767SOL     OW36111   0.644   8.010   7.758  0.0646  0.5905 -0.4851
43767SOL    HW136112   0.573   8.075   7.759  0.8382  1.4583  1.2421
43767SOL    HW236113   0.724   8.061   7.753  0.6553 -0.2843 -0.2124
43768SOL     OW36114   8.075   9.494   6.891  0.0584  0.0608  0.0569
43768SOL    HW136115   8.141   9.472   6.826  0.6859  0.9467  0.3801
43768SOL    HW236116   8.085   9.427   6.959 -0.3724 -0.6643 -0.5661
43769SOL     OW36117   9.422   9.845   5.946 -0.0716  0.4082  0.0932
43769SOL    HW136118   9.348   9.904   5.963 -0.7275  0.5290 -2.5745
43769SOL    HW236119   9.499   9.897   5.967 -0.7125  0.8998  1.2950
43770SOL     OW36120  10.533   4.985   2.328 -0.0392 -0.1498  0.0625
43770SOL    HW136121  10.530   5.028   2.413  1.4611  2.0733 -0.9191
43770SOL    HW236122  10.616   4.937   2.328  1.0522  1.6146 -0.8445
43771SOL     OW36123  12.531  10.359   9.296 -0.1066 -0.0535  0.6311
43771SOL    HW136124  12.609  10.403   9.332  1.0086 -0.1772 -1.4968
43771SOL    HW236125  12.519  10.283   9.353  0.1929  0.9590  2.1098
43772SOL     OW36126   3.033   9.271   0.403  0.2779  0.4506  1.0052
43772SOL    HW136127   3.122   9.245   0.428  0.7028 -1.5014 -2.0264
43772SOL    HW236128   2.980   9.194   0.425 -0.1713  0.5833  0.3750
43773SOL     OW36129   9.393   5.652   2.188  0.1092  0.1781 -0.5939
43773SOL    HW136130   9.463   5.589   2.171  0.0716 -0.6138  1.7928
43773SOL    HW236131   9.369   5.636   2.280 -2.3844  1.2391 -1.0005
43774SOL     OW36132   7.095   5.166   8.697 -0.1039 -0.1447 -0.3918
43774SOL    HW136133   7.069   5.233   8.761  1.0166 -1.5568  1.6615
43774SOL    HW236134   7.183   5.191   8.670  0.3139 -0.7092  0.3735
43775SOL     OW36135   3.949   1.004   4.607 -0.3556  0.0666  0.3977
43775SOL    HW136136   3.960   0.954   4.688 -0.5704  1.4253  1.2969
43775SOL    HW236137   3.924   1.092   4.636  2.1891  1.3661 -1.0006
43776SOL     OW36138  12.241  12.413   0.503 -0.3463  0.1895  0.1494
43776SOL    HW136139  12.159  12.439   0.460  0.2450  1.3927 -0.2975
43776SOL    HW236140  12.246  12.470   0.579  0.6910  1.0384 -0.5270
43777SOL     OW36141   5.548   5.098   9.345 -1.0840 -0.0917  0.1215
43777SOL    HW136142   5.462   5.125   9.312 -0.8558 -1.2069 -1.4814
43777SOL    HW236143   5.611   5.139   9.286 -0.6045 -1.1727 -0.1335
43778SOL     OW36144   8.822   0.763   6.652 -0.0181 -0.2772  0.3633
43778SOL    HW136145   8.780   0.707   6.586 -0.3989 -0.3334  0.6539
43778SOL    HW236146   8.891   0.708   6.688 -1.4104 -1.1745  1.8046
43779SOL     OW36147   8.752   0.724   1.540 -0.0926  0.3200 -0.2565
43779SOL    HW136148   8.844   0.752   1.537  0.5366 -1.6759 -0.7577
43779SOL    HW236149   8.748   0.662   1.612 -0.8426 -0.3186 -0.8354
43780SOL     OW36150   6.148   7.817   7.012 -0.0241  0.1535  0.0386
43780SOL    HW136151   6.186   7.817   7.100  3.3272  2.7261 -1.1886
43780SOL    HW236152   6.200   7.754   6.963 -2.4903 -1.9957 -0.0410
43781SOL     OW36153   7.469   9.084   0.331  0.4377  0.3421 -0.2318
43781SOL    HW136154   7.514   9.133   0.262  0.3961 -0.1100 -0.5782
43781SOL    HW236155   7.396   9.141   0.356 -0.3772 -0.0908 -1.5355
43782SOL     OW36156   9.776  12.555   1.332  0.4718  0.0513  0.1419
43782SOL    HW136157   9.765  12.649   1.325  0.4608  0.0953  0.7166
43782SOL    HW236158   9.845  12.534   1.269 -2.2772 -0.1448 -3.0578
43783SOL     OW36159   2.690  11.564  12.018 -0.1679 -0.1010  0.5224
43783SOL    HW136160   2.716  11.478  12.050  0.6947 -0.0553 -0.0255
43783SOL    HW236161   2.773  11.610  12.004 -0.6246  1.1132  1.5993
43784SOL     OW36162  12.200   0.130  12.282  0.1749 -0.4504  0.5876
43784SOL    HW136163  12.242   0.128  12.368 -0.0679  0.9183  0.7565
43784SOL    HW236164  12.218   0.218  12.248  1.8880 -1.5330 -1.6017
43785SOL     OW36165   7.511  10.590   2.559 -0.3774  0.0246 -0.0510
43785SOL    HW136166   7.526  10.542   2.478 -1.3827  1.1909 -0.9625
43785SOL    HW236167   7.571  10.664   2.555 -0.1432 -0.1283  0.4781
43786SOL     OW36168   3.127   4.595  11.237 -0.2626  0.1420 -0.1166
43786SOL    HW136169   3.101   4.511  11.276 -1.0923  0.8196  0.8572
43786SOL    HW236170   3.124   4.656  11.310  0.3375  1.0231 -0.8175
43787SOL     OW36171  10.713   8.214   0.516 -0.2434  0.2890 -0.2273
43787SOL    HW136172  10.779   8.159   0.474  0.0708  0.5058 -0.0206
43787SOL    HW236173  10.751   8.302   0.516 -0.2154  0.2819  0.5648
43788SOL     OW36174  11.156   8.317  10.974  0.4925  0.3059  0.4814
43788SOL    HW136175  11.203   8.236  10.997  0.6387 -0.1434 -1.2669
43788SOL    HW236176  11.131   8.305  10.883 -0.3090  1.8681  0.4663
43789SOL     OW36177   2.561   7.025   1.984  0.2751 -0.1242 -0.3810
43789SOL    HW136178   2.546   7.016   1.890  2.0400 -0.6742 -0.6326
43789SOL    HW236179   2.504   7.098   2.010 -0.4637 -0.1613 -1.8001
43790SOL     OW36180   5.247   7.543   2.474 -0.0423 -0.0498 -0.8372
43790SOL    HW136181   5.310   7.602   2.515  0.8140 -1.3635 -0.1706
43790SOL    HW236182   5.169   7.550   2.528  0.4115 -0.2840 -0.1273
43791SOL     OW36183   7.885   4.233   5.758  0.2243  0.1314  0.3234
43791SOL    HW136184   7.922   4.216   5.671 -0.6226  0.9403 -0.2180
43791SOL    HW236185   7.825   4.160   5.773  0.8123 -0.3255  0.4992
43792SOL     OW36186  10.045  10.225  10.054 -0.1989  0.2680 -0.2155
43792SOL    HW136187   9.984  10.214   9.981 -0.0337  1.6891 -0.5783
43792SOL    HW236188  10.007  10.296  10.106  1.1634  1.2148 -0.4809
43793SOL     OW36189   7.189   3.535   9.654  0.1611 -0.5861  0.0482
43793SOL    HW136190   7.208   3.459   9.598  2.4447  0.6298 -0.9866
43793SOL    HW236191   7.270   3.549   9.703 -0.3351  0.9468  0.4812
43794SOL     OW36192   7.344   7.283  10.521  0.0377  0.1101 -0.4926
43794SOL    HW136193   7.397   7.256  10.447 -1.0383 -0.5728 -1.0457
43794SOL    HW236194   7.275   7.337  10.483 -0.4156 -0.0871  0.0263
43795SOL     OW36195   4.628   9.659   6.693 -0.3770 -0.1229  0.0553
43795SOL    HW136196   4.538   9.642   6.665 -0.2869  0.0681 -0.3473
43795SOL    HW236197   4.653   9.579   6.740 -0.4831 -0.4998 -0.5189
43796SOL     OW36198   0.991   7.529   5.517 -0.2896 -0.1955  0.4396
43796SOL    HW136199   1.021   7.449   5.560  0.1246 -0.0631  0.3980
43796SOL    HW236200   0.979   7.503   5.425  2.5576  0.4495 -0.2011
43797SOL     OW36201   6.528  11.195   0.824 -0.2611 -0.2479 -0.1397
43797SOL    HW136202   6.462  11.164   0.885  1.2506 -0.7351  1.3119
43797SOL    HW236203   6.580  11.257   0.875  0.8573 -0.4336 -1.0249
43798SOL     OW36204  12.606   1.941   1.040  0.0370 -0.2605  0.3086
43798SOL    HW136205  12.586   1.896   1.123 -1.9469  2.1991  1.2985
43798SOL    HW236206  12.701   1.938   1.034  0.1202 -2.2605  1.6313
43799SOL     OW36207   9.675   5.965  11.323  0.1773 -0.1926 -0.8385
43799SOL    HW136208   9.745   5.911  11.286  1.9456  0.2626  1.5881
43799SOL    HW236209   9.690   5.961  11.418 -2.7744  0.4245 -0.2686
43800SOL     OW36210   8.750   7.888  12.433  0.0723 -0.3661 -0.8117
43800SOL    HW136211   8.766   7.972  12.390  0.0905 -0.8574 -1.8057
43800SOL    HW236212   8.688   7.908  12.503  2.4953  1.0248  1.1036
43801SOL     OW36213  10.670  11.451   7.333 -0.5113  1.0707  0.5721
43801SOL    HW136214  10.575  11.435   7.333 -0.1351 -1.9692 -1.1955
43801SOL    HW236215  10.704  11.391   7.400  0.3758 -0.3358 -1.0592
43802SOL     OW36216   8.543  11.418   6.201 -0.0674  0.2661 -0.0717
43802SOL    HW136217   8.536  11.364   6.123  1.6104 -2.1948  1.3522
43802SOL    HW236218   8.636  11.437   6.210 -0.2019  0.3803  1.3872
43803SOL     OW36219   8.207  12.449   0.367 -0.0624  0.4819  0.4482
43803SOL    HW136220   8.247  12.423   0.284 -0.6970  1.7895 -0.2821
43803SOL    HW236221   8.164  12.369   0.399  0.6986 -0.1873 -0.1675
43804SOL     OW36222  12.324   6.966   0.339 -0.1067  0.0606  0.2490
43804SOL    HW136223  12.265   6.910   0.389  0.4333 -1.3143 -0.6160
43804SOL    HW236224  12.321   6.931   0.250  3.8064 -1.6754  0.6171
43805SOL     OW36225  10.229   9.214   2.904  0.3780  0.0618 -0.0232
43805SOL    HW136226  10.276   9.182   2.828  0.3039  1.3193 -0.6320
43805SOL    HW236227  10.142   9.236   2.872 -0.0816 -0.6007  0.7163
43806SOL     OW36228   0.013   2.074   4.422 -0.0437  0.0450  0.0616
43806SOL    HW136229  -0.076   2.082   4.454  0.4019  1.6087  0.9921
43806SOL    HW236230   0.004   2.035   4.335 -1.6719  0.6549 -0.0705
43807SOL     OW36231   0.123   7.399   3.571 -0.1573  0.8809 -1.0209
43807SOL    HW136232   0.150   7.310   3.546 -0.5390  0.2044  0.8262
43807SOL    HW236233   0.032   7.405   3.543 -0.8078 -0.1324  0.7411
43808SOL     OW36234   7.079   9.966   6.909  0.1705  0.1154 -0.5556
43808SOL    HW136235   7.048  10.034   6.849  0.7240  0.4885 -0.4314
43808SOL    HW236236   7.002   9.913   6.928 -0.2212  0.5813 -0.8251
43809SOL     OW36237  12.619  11.485  11.718  0.4891  0.1396  0.3007
43809SOL    HW136238  12.653  11.500  11.807 -1.1030  1.3262  0.7636
43809SOL    HW236239  12.543  11.429  11.731 -0.0571  0.7413 -0.2476
43810SOL     OW36240   4.247   1.631   7.235 -0.6123  0.7203  0.2658
43810SOL    HW136241   4.170   1.665   7.281 -0.1283 -0.0180  1.6761
43810SOL    HW236242   4.315   1.698   7.248 -0.6898  0.8586 -0.0303
43811SOL     OW36243   4.716  11.550   8.338  0.6771 -0.1870  0.0672
43811SOL    HW136244   4.621  11.551   8.345  0.6647 -0.6282 -0.0132
43811SOL    HW236245   4.747  11.537   8.428  0.7793  3.4684  0.7281
43812SOL     OW36246   7.671   9.867  11.661 -0.2386 -0.2944  0.7885
43812SOL    HW136247   7.652   9.954  11.697 -2.6293 -0.5059  0.1591
43812SOL    HW236248   7.596   9.813  11.686 -0.2298 -1.3964 -1.3314
43813SOL     OW36249   5.530   9.363   8.083  0.2283 -0.0609  0.0853
43813SOL    HW136250   5.475   9.430   8.125 -0.0017  3.4266 -4.8598
43813SOL    HW236251   5.477   9.284   8.086 -2.8554  1.8199  0.1536
43814SOL     OW36252  10.798  12.200   6.764  0.4984 -0.3700  0.5162
43814SOL    HW136253  10.705  12.194   6.741  0.7423 -1.5843 -0.2515
43814SOL    HW236254  10.844  12.180   6.682  1.4624  1.1850  0.6322
43815SOL     OW36255  11.899   5.869   7.537  0.2804 -0.5059  0.3506
43815SOL    HW136256  11.985   5.909   7.552  1.2288 -2.3830  0.2567
43815SOL    HW236257  11.887   5.871   7.442  1.4973 -2.5568  0.0761
43816SOL     OW36258  10.407   5.344  11.619 -0.4211 -0.0347 -0.3209
43816SOL    HW136259  10.336   5.284  11.643 -1.5130  1.7754  1.2100
43816SOL    HW236260  10.482   5.286  11.603 -1.2621 -1.7967  1.6578
43817SOL     OW36261  11.448   1.108   1.428  0.1434 -0.1463 -0.5146
43817SOL    HW136262  11.408   1.191   1.453  0.6037 -0.4520  1.3993
43817SOL    HW236263  11.392   1.042   1.468  1.0416 -0.6679 -0.0926
43818SOL     OW36264  11.340   5.866   0.609 -0.7058 -0.2095 -0.2163
43818SOL    HW136265  11.389   5.791   0.575  1.7517  0.4046  1.6856
43818SOL    HW236266  11.364   5.939   0.551  0.9956  0.1552  0.8792
43819SOL     OW36267  11.110  12.358   9.428  0.0745  0.5497 -0.4006
43819SOL    HW136268  11.050  12.420   9.469  0.4609  0.4271  0.3638
43819SOL    HW236269  11.065  12.273   9.435  0.4703  0.4056  0.4627
43820SOL     OW36270   0.445   6.341  11.684  0.1408  0.1716 -0.0844
43820SOL    HW136271   0.413   6.379  11.603  0.6842  0.7842 -0.0181
43820SOL    HW236272   0.500   6.268  11.657 -0.8124 -0.5288 -0.2147
43821SOL     OW36273   5.094  12.604   7.504  0.4284 -0.1261 -0.3120
43821SOL    HW136274   5.053  12.571   7.424 -1.1076  5.3573 -2.2680
43821SOL    HW236275   5.028  12.593   7.572  0.2263 -1.4074 -0.6965
43822SOL     OW36276   6.692   5.346   0.307 -0.1930  0.6284 -0.2479
43822SOL    HW136277   6.599   5.328   0.325 -0.2934  0.7505 -0.6382
43822SOL    HW236278   6.714   5.287   0.234  0.9360 -1.8370  1.9271
43823SOL     OW36279   6.653  12.332   1.170  0.5999 -0.5039  0.1632
43823SOL    HW136280   6.629  12.272   1.099 -3.5320  0.0806  0.7836
43823SOL    HW236281   6.706  12.279   1.229 -1.6328 -3.2371 -0.0395
43824SOL     OW36282   8.289  10.187   7.359  0.1549 -0.7544 -0.0602
43824SOL    HW136283   8.322  10.114   7.412 -1.6059 -1.5355  0.0471
43824SOL    HW236284   8.220  10.148   7.305  0.0747  0.5805 -0.9726
43825SOL     OW36285   7.689   9.382  10.870  0.5208 -0.4856  0.2562
43825SOL    HW136286   7.594   9.376  10.868  0.3101  1.4917  1.4170
43825SOL    HW236287   7.719   9.321  10.802 -1.5413 -1.3323  0.0476
43826SOL     OW36288   1.873   1.585  10.592  0.1116 -0.0799  0.1573
43826SOL    HW136289   1.899   1.676  10.609  0.7667 -0.1476 -0.4298
43826SOL    HW236290   1.956   1.539  10.577 -0.2066 -0.8081  0.5748
43827SOL     OW36291   4.749   2.252   7.698  0.1249  0.0530  0.1181
43827SOL    HW136292   4.785   2.335   7.729 -1.2927  0.4457  0.7495
43827SOL    HW236293   4.735   2.201   7.777  0.7632 -0.7165 -0.2517
43828SOL     OW36294   0.613   3.690   0.893  0.9391 -0.1457 -0.2423
43828SOL    HW136295   0.684   3.628   0.912  0.7521  0.3053  2.4335
43828SOL    HW236296   0.655   3.776   0.890  0.4901  0.2971  2.7165
43829SOL     OW36297   0.173   7.946   9.089 -0.3743  0.0256 -0.0886
43829SOL    HW136298   0.137   8.020   9.040  2.2671  0.4375 -1.5802
43829SOL    HW236299   0.177   7.875   9.024 -0.6297 -0.7120  0.6836
43830SOL     OW36300   6.494  12.281   3.035 -0.2150  0.4183  0.5393
43830SOL    HW136301   6.449  12.212   3.084 -1.2315  0.7694  0.1054
43830SOL    HW236302   6.527  12.237   2.957  0.8163  0.0098  1.1803
43831SOL     OW36303   2.736   9.685   4.495 -0.0259 -0.1872  0.3792
43831SOL    HW136304   2.679   9.663   4.569  0.4950 -0.9133  0.5817
43831SOL    HW236305   2.823   9.697   4.535 -0.2376  2.1513  0.2573
43832SOL     OW36306  12.520   8.607   2.683  0.4374  0.2189  0.1605
43832SOL    HW136307  12.441   8.624   2.632 -0.3985  0.5885  1.5098
43832SOL    HW236308  12.581   8.675   2.656 -0.5176  1.3316  0.6879
43833SOL     OW36309   2.220   8.144   6.990  0.5264  0.1274 -0.7256
43833SOL    HW136310   2.231   8.050   6.999  0.6648 -0.1316 -2.9925
43833SOL    HW236311   2.156   8.168   7.056  0.5048 -1.5472 -0.1141
43834SOL     OW36312   0.967   2.023   5.665 -0.1058  0.3742  0.3019
43834SOL    HW136313   1.000   2.031   5.755 -0.5826 -0.0844  0.5203
43834SOL    HW236314   1.036   1.975   5.619  0.1036  0.5398  0.4398
43835SOL     OW36315   4.447  11.570   9.137  0.0090  0.4924 -0.2249
43835SOL    HW136316   4.485  11.643   9.089 -0.0353  0.4411 -0.3393
43835SOL    HW236317   4.404  11.517   9.070  1.2129 -0.3847 -0.3585
43836SOL     OW36318  10.633   7.679   4.224 -0.3988  0.2773  0.6707
43836SOL    HW136319  10.609   7.766   4.193 -0.8395  0.8816  2.5638
43836SOL    HW236320  10.604   7.677   4.316 -1.3472 -2.2306  0.4045
43837SOL     OW36321   3.561   3.665  10.069  0.1254 -0.2008 -0.0336
43837SOL    HW136322   3.491   3.700  10.123  1.2362 -0.7704  1.8778
43837SOL    HW236323   3.637   3.718  10.091  0.4850 -0.0545 -1.5304
43838SOL     OW36324   7.759   8.115   8.766 -0.2040  0.4128 -0.0071
43838SOL    HW136325   7.675   8.118   8.720 -0.6463  1.2877  0.8186
43838SOL    HW236326   7.748   8.175   8.840  0.9872  0.1651  0.3942
43839SOL     OW36327   2.888   8.022   4.036  0.7123 -0.3420 -0.1769
43839SOL    HW136328   2.920   7.932   4.047  0.3788 -0.7465 -2.1305
43839SOL    HW236329   2.864   8.027   3.943 -1.5960  1.0152  0.4372
43840SOL     OW36330   3.550   6.431   0.549  0.2712 -0.1034 -0.1405
43840SOL    HW136331   3.597   6.360   0.506  1.0673  0.4552 -0.2196
43840SOL    HW236332   3.599   6.510   0.525  0.4804  0.2755  1.4362
43841SOL     OW36333  11.172   2.516   8.004 -0.1765 -0.0012  0.1783
43841SOL    HW136334  11.263   2.487   8.009 -0.5620 -1.6018 -1.2436
43841SOL    HW236335  11.134   2.494   8.089  1.3603  3.1844  1.8747
43842SOL     OW36336  12.025   8.854  10.057  0.2758  0.0349  0.1029
43842SOL    HW136337  12.050   8.943  10.030 -0.6703  0.2289 -0.1966
43842SOL    HW236338  11.992   8.814   9.976 -0.0222 -0.3216  0.4000
43843SOL     OW36339   2.947   5.967   8.458 -0.2643  0.0478 -0.4610
43843SOL    HW136340   3.003   6.031   8.504  0.2903  0.2484 -1.3761
43843SOL    HW236341   2.971   5.883   8.496  0.0579  0.2307 -0.2474
43844SOL     OW36342   0.079  10.499  11.354  1.1454  0.0506  0.5982
43844SOL    HW136343   0.043  10.420  11.314  0.7103 -0.6053  2.1948
43844SOL    HW236344   0.173  10.482  11.360  0.7774 -1.6044  3.3882
43845SOL     OW36345   7.909   1.228   2.762 -0.2977  0.4426  0.2630
43845SOL    HW136346   7.821   1.246   2.797  0.9700  2.2205  2.8239
43845SOL    HW236347   7.947   1.166   2.825 -0.0067 -1.1693 -1.4118
43846SOL     OW36348   3.245   9.103   6.935  0.5704  0.2827 -0.5485
43846SOL    HW136349   3.276   9.193   6.946 -0.7635  0.9231 -1.7152
43846SOL    HW236350   3.154   9.105   6.965 -0.1963 -0.0923 -2.6602
43847SOL     OW36351   1.397   6.588   3.181  0.0168  0.0866 -0.6259
43847SOL    HW136352   1.323   6.631   3.139 -0.8405  0.2820  1.0173
43847SOL    HW236353   1.422   6.518   3.121 -1.4018  0.1094 -1.2625
43848SOL     OW36354   3.057   7.823   8.802  0.2864 -0.1466 -0.4726
43848SOL    HW136355   3.016   7.894   8.752 -1.1929 -0.4922  0.1806
43848SOL    HW236356   3.018   7.831   8.889  1.9941 -0.2284  0.3432
43849SOL     OW36357   6.786   6.184   4.077 -0.4957  0.5897 -0.3778
43849SOL    HW136358   6.881   6.190   4.069 -0.2278 -1.4164  0.7149
43849SOL    HW236359   6.761   6.113   4.017 -1.1752  0.4635  0.0409
43850SOL     OW36360   8.453   8.179   1.906 -0.9563  0.2058  0.1746
43850SOL    HW136361   8.470   8.135   1.989 -1.1985 -1.7584 -0.7697
43850SOL    HW236362   8.487   8.120   1.839 -0.9975  1.6166 -1.1640
43851SOL     OW36363   7.249   9.677   6.260  0.0255 -0.0719  0.0797
43851SOL    HW136364   7.261   9.663   6.354  1.7484  1.4395  0.1411
43851SOL    HW236365   7.314   9.619   6.219  0.1185  0.1793 -0.1269
43852SOL     OW36366   8.817   4.436   6.702 -0.6432 -0.4658 -0.9772
43852SOL    HW136367   8.856   4.523   6.693 -3.7544  1.4225  1.5798
43852SOL    HW236368   8.750   4.433   6.634 -1.8768  0.0675  0.1637
43853SOL     OW36369   2.829   6.112  12.419 -0.2186  0.7368 -0.3071
43853SOL    HW136370   2.800   6.197  12.450 -1.6267  0.0810  0.2362
43853SOL    HW236371   2.816   6.053  12.493 -0.6130 -0.2328 -1.1223
43854SOL     OW36372   2.673   3.800   9.382 -0.1251  0.3074 -0.5627
43854SOL    HW136373   2.603   3.771   9.441  1.2541  0.7311  1.3886
43854SOL    HW236374   2.702   3.720   9.339 -0.7683 -0.1172 -0.2276
43855SOL     OW36375  12.565   9.271   5.675  0.2581 -0.1037  0.2316
43855SOL    HW136376  12.481   9.313   5.659 -0.0234 -1.2273 -1.4682
43855SOL    HW236377  12.573   9.269   5.771 -1.4215  0.4118  0.4176
43856SOL     OW36378   3.951  11.167   1.821 -0.5988  0.3796 -0.2983
43856SOL    HW136379   4.014  11.123   1.764  0.3093  2.4505 -1.0018
43856SOL    HW236380   3.990  11.253   1.838 -2.5811  1.2071  0.3923
43857SOL     OW36381   9.480   6.318   3.240 -0.4530  0.0815  0.1467
43857SOL    HW136382   9.548   6.385   3.236  1.4430 -1.5621  2.5139
43857SOL    HW236383   9.416   6.353   3.303 -1.8339  1.5204 -1.9098
43858SOL     OW36384   8.262   5.058   7.797 -0.3352 -0.7479 -0.2085
43858SOL    HW136385   8.305   5.021   7.874 -2.7500 -0.9507  1.1568
43858SOL    HW236386   8.228   4.982   7.750  0.0528 -0.5547 -0.8135
43859SOL     OW36387   5.113  11.998   5.663  0.3234 -0.5700  0.0690
43859SOL    HW136388   5.023  11.976   5.642  0.2496 -0.6244  0.4380
43859SOL    HW236389   5.153  12.019   5.579 -0.0397 -0.5178 -0.0913
43860SOL     OW36390   5.504   4.325   5.599 -0.1868 -0.5453  0.0634
43860SOL    HW136391   5.520   4.380   5.675  0.8071 -0.4659 -0.1792
43860SOL    HW236392   5.591   4.290   5.577 -0.8727 -2.8167  0.6762
43861SOL     OW36393   4.761   7.544   7.926  0.4732  0.0002 -0.6336
43861SOL    HW136394   4.796   7.480   7.864 -0.7685 -0.4262 -0.9168
43861SOL    HW236395   4.715   7.492   7.992  1.1536  0.4937  0.2682
43862SOL     OW36396   1.123   9.777  11.118  0.5493 -0.3404  0.6307
43862SOL    HW136397   1.107   9.871  11.112  1.9399 -0.1238 -0.3159
43862SOL    HW236398   1.212   9.770  11.151  0.8135 -1.2909 -0.2314
43863SOL     OW36399   4.806   5.129   2.155  0.4165 -0.3973  0.0099
43863SOL    HW136400   4.898   5.112   2.176  0.5957  1.0716  0.5673
43863SOL    HW236401   4.758   5.102   2.233  0.3041 -1.6392 -0.4736
43864SOL     OW36402   4.219   6.750   0.888  0.3394  0.2757  0.9409
43864SOL    HW136403   4.209   6.817   0.955  0.7411  1.7739 -0.4321
43864SOL    HW236404   4.183   6.671   0.927  0.7906  1.0280  2.9937
43865SOL     OW36405   2.768  11.783   3.952  0.1035  0.2423  0.1408
43865SOL    HW136406   2.676  11.762   3.967 -0.2023 -1.0001 -2.8559
43865SOL    HW236407   2.782  11.865   3.999 -2.5931  0.5714  0.4855
43866SOL     OW36408   9.927   2.487   0.946 -0.1675 -0.4999  0.6822
43866SOL    HW136409   9.923   2.401   0.988  0.1913 -0.3140  1.0999
43866SOL    HW236410   9.937   2.549   1.018 -0.4219 -0.1048  0.3823
43867SOL     OW36411   8.111  10.329   9.381 -0.0441  0.1431  0.0107
43867SOL    HW136412   8.136  10.271   9.309  0.3948  1.8493 -1.2828
43867SOL    HW236413   8.194  10.353   9.422 -0.0594  1.0187 -0.4344
43868SOL     OW36414   3.229   7.183   5.867 -0.1200  0.6847  0.1099
43868SOL    HW136415   3.314   7.138   5.871 -0.9672 -0.8814  1.7643
43868SOL    HW236416   3.172   7.122   5.821 -0.1937  2.1238 -1.8309
43869SOL     OW36417   7.213   9.585   2.685 -0.1086 -0.1163  0.1210
43869SOL    HW136418   7.237   9.653   2.622 -0.6407 -0.7555 -0.7803
43869SOL    HW236419   7.218   9.629   2.770  0.2657  0.8494 -0.3852
43870SOL     OW36420   6.999   2.569   1.092 -0.2079 -0.2791  0.7014
43870SOL    HW136421   7.073   2.629   1.085 -0.6352  0.2907  1.0436
43870SOL    HW236422   7.007   2.513   1.015 -0.2240  0.6916 -0.0265
43871SOL     OW36423  10.036   8.730   2.970 -0.0712  0.0353  0.0567
43871SOL    HW136424   9.949   8.711   2.934  0.2991  0.8550 -1.3290
43871SOL    HW236425  10.017   8.779   3.051 -0.9022 -1.5362  0.8654
43872SOL     OW36426  11.422   4.410   3.891 -0.0573 -0.1799  0.3092
43872SOL    HW136427  11.400   4.504   3.885 -1.4173 -0.5718 -2.4465
43872SOL    HW236428  11.501   4.400   3.838  0.1126 -0.6017  0.6389
43873SOL     OW36429   3.022   1.807   8.632 -0.1538 -0.0985 -0.0365
43873SOL    HW136430   2.957   1.877   8.622 -0.5295 -0.3123  0.7592
43873SOL    HW236431   3.063   1.825   8.717  0.0525 -0.5881 -0.0297
43874SOL     OW36432   5.533   8.439   0.815 -0.1207 -0.2400 -0.1223
43874SOL    HW136433   5.491   8.353   0.814  0.8327 -0.7410  0.4753
43874SOL    HW236434   5.462   8.501   0.828 -0.7398 -1.0151  0.2831
43875SOL     OW36435   1.122   5.534   3.084  0.2428 -0.1339  0.1592
43875SOL    HW136436   1.054   5.512   3.147 -3.8150  1.2545 -3.2785
43875SOL    HW236437   1.157   5.450   3.056 -0.8660 -0.9853  1.2454
43876SOL     OW36438  12.213   7.858   1.497  0.3284 -0.2195 -0.1186
43876SOL    HW136439  12.118   7.869   1.502  0.5068  1.5016 -0.1155
43876SOL    HW236440  12.237   7.888   1.409  0.8864 -0.5085 -0.0706
43877SOL     OW36441   9.138  11.746   5.768 -0.1942  0.3941  0.5166
43877SOL    HW136442   9.078  11.792   5.710 -1.5160 -1.7178  0.0950
43877SOL    HW236443   9.124  11.786   5.854 -0.0970  1.8112 -0.0882
43878SOL     OW36444   5.917   6.409   6.945 -0.1117  0.0631 -1.0189
43878SOL    HW136445   5.881   6.361   6.870 -1.4940  0.3947 -0.5992
43878SOL    HW236446   5.992   6.357   6.973 -1.1388 -1.4822 -1.0204
43879SOL     OW36447   9.017   9.565   4.450  0.1792  0.2983 -0.0275
43879SOL    HW136448   8.991   9.481   4.488  0.6612 -0.3103 -1.0175
43879SOL    HW236449   9.005   9.628   4.521 -0.6180 -0.5308  0.5912
43880SOL     OW36450   4.645   0.504   6.344 -0.5063  0.1318 -0.9327
43880SOL    HW136451   4.722   0.531   6.394 -0.4296 -0.2544 -0.8414
43880SOL    HW236452   4.656   0.410   6.332 -0.8784  0.1054 -1.0715
43881SOL     OW36453   7.083   5.992   1.721 -0.2471 -0.0033  0.3836
43881SOL    HW136454   7.061   5.903   1.748 -1.9915 -0.1589 -1.3446
43881SOL    HW236455   7.006   6.044   1.746  0.3999  0.8671  0.6149
43882SOL     OW36456   3.337   8.482  12.332  0.3270  1.1342  0.1711
43882SOL    HW136457   3.381   8.561  12.365  1.3114  1.0388 -0.8299
43882SOL    HW236458   3.394   8.410  12.361  1.5057  1.0783 -2.0440
43883SOL     OW36459  11.992   5.782   4.811  0.3148  0.0402 -0.2282
43883SOL    HW136460  12.038   5.842   4.870 -0.5514 -0.6802  1.2445
43883SOL    HW236461  11.965   5.710   4.867 -1.8866  0.0351 -1.1998
43884SOL     OW36462  10.983   3.173   2.230  0.2174 -0.0551  0.7274
43884SOL    HW136463  11.061   3.201   2.183  0.3344  1.0047  1.5133
43884SOL    HW236464  10.929   3.130   2.163  0.2038  1.7366 -0.4940
43885SOL     OW36465   5.173   3.046   8.405 -0.0632 -0.2101 -0.3516
43885SOL    HW136466   5.159   3.118   8.466 -1.4667  0.0126 -0.8861
43885SOL    HW236467   5.232   2.986   8.450 -2.3242 -0.9021  1.9684
43886SOL     OW36468  10.512   4.894   7.103  0.2851 -0.1558 -0.5156
43886SOL    HW136469  10.490   4.804   7.081  1.3044 -0.4274 -0.4625
43886SOL    HW236470  10.427   4.939   7.109 -0.1745 -0.7898 -1.8895
43887SOL     OW36471   5.180   1.844   2.859  0.4352  0.3240 -0.0175
43887SOL    HW136472   5.272   1.866   2.850  0.7578 -1.2432 -0.9403
43887SOL    HW236473   5.162   1.787   2.784 -0.8399 -0.8135  1.1188
43888SOL     OW36474   0.415   2.443  12.459  0.3840 -0.7678 -0.3550
43888SOL    HW136475   0.323   2.449  12.484  0.7564  0.3732  0.8382
43888SOL    HW236476   0.428   2.351  12.437 -0.6651 -1.2802  1.0224
43889SOL     OW36477   0.458  11.104   8.578 -0.1030  0.2085 -0.4343
43889SOL    HW136478   0.470  11.119   8.484 -2.3195 -0.9840 -0.9592
43889SOL    HW236479   0.478  11.011   8.590  0.4071  0.4089  0.3343
43890SOL     OW36480   2.113   6.810   6.852  0.2112  0.0407 -0.1396
43890SOL    HW136481   2.161   6.732   6.825 -0.1151 -0.1763 -0.0917
43890SOL    HW236482   2.172   6.882   6.831  0.0870 -0.1434 -1.1470
43891SOL     OW36483   5.260   1.394   1.184 -0.1023 -0.0945 -0.1412
43891SOL    HW136484   5.197   1.435   1.242 -1.8123 -1.0841 -1.2106
43891SOL    HW236485   5.289   1.315   1.230 -0.9860 -0.5516 -0.3530
43892SOL     OW36486   8.317  10.814   5.095  0.3626 -0.0403  0.1898
43892SOL    HW136487   8.367  10.748   5.143 -0.0314 -0.0093  0.6510
43892SOL    HW236488   8.378  10.886   5.082  1.1333 -0.9069 -1.2616
43893SOL     OW36489   2.487   0.038   2.147  0.0822  0.1086 -0.2858
43893SOL    HW136490   2.397   0.010   2.162 -0.3442  0.7454 -1.4962
43893SOL    HW236491   2.528   0.037   2.234 -1.8515  2.4304  0.7562
43894SOL     OW36492  11.121   3.861   8.468  0.0234  0.0206  0.8609
43894SOL    HW136493  11.043   3.862   8.524  0.9927  1.0892  2.2720
43894SOL    HW236494  11.175   3.791   8.505  1.6108  2.0918  2.7368
43895SOL     OW36495   8.996   9.282   4.490  0.6157 -0.5461 -0.5433
43895SOL    HW136496   8.921   9.222   4.486  0.7098 -0.9171  1.8120
43895SOL    HW236497   9.053   9.254   4.418 -0.1240 -2.1758 -0.5466
43896SOL     OW36498  10.759   3.546   2.562 -0.4636  0.4920  0.0721
43896SOL    HW136499  10.854   3.542   2.558 -0.5091  0.3710 -1.8078
43896SOL    HW236500  10.738   3.539   2.655  1.3700  1.0205  0.5572
43897SOL     OW36501   1.477   2.281   1.302  0.0933  0.7589  0.2514
43897SOL    HW136502   1.422   2.284   1.224  1.3434  2.0266 -0.6395
43897SOL    HW236503   1.418   2.303   1.374 -0.9094  0.4071 -0.4377
43898SOL     OW36504   1.981   0.291   7.163 -0.4490  0.1413  0.9631
43898SOL    HW136505   1.964   0.364   7.223 -2.6781  1.6383 -1.2872
43898SOL    HW236506   1.974   0.329   7.076  1.5916 -2.1692 -0.3389
43899SOL     OW36507   4.065   0.688   2.535 -0.4957 -0.1908 -0.1444
43899SOL    HW136508   4.067   0.630   2.459 -0.2280 -1.0106  0.4684
43899SOL    HW236509   4.072   0.629   2.610 -2.0176  0.4917  0.5771
43900SOL     OW36510   7.631   7.219   8.028  0.7656 -0.0062  0.0384
43900SOL    HW136511   7.721   7.211   7.995  0.4416  1.0601 -1.1707
43900SOL    HW236512   7.641   7.258   8.115  1.4629  0.1266 -0.0955
43901SOL     OW36513   7.801  11.673   2.338 -0.8963  0.1997 -0.1948
43901SOL    HW136514   7.741  11.674   2.412  0.4153 -0.2569  0.9113
43901SOL    HW236515   7.744  11.660   2.262 -2.1133 -1.1320  0.8871
43902SOL     OW36516   3.982  11.887   8.759  0.1286  0.2366  0.3838
43902SOL    HW136517   3.896  11.847   8.771 -0.9477  2.4949  0.8650
43902SOL    HW236518   4.000  11.879   8.666  0.2472 -1.8081  0.5482
43903SOL     OW36519   0.887   3.073   7.288 -0.3258  0.7909  0.5402
43903SOL    HW136520   0.971   3.119   7.284 -0.0807  0.3561  0.7215
43903SOL    HW236521   0.822   3.144   7.289  0.0610  1.1447  1.1089
43904SOL     OW36522   2.020   4.116  10.210  0.1757 -0.0573 -0.1702
43904SOL    HW136523   2.060   4.191  10.253 -1.9365  1.5971 -0.9085
43904SOL    HW236524   1.931   4.112  10.246 -0.1504 -1.4565 -1.0358
43905SOL     OW36525   0.313  11.959  11.142 -0.2331  0.5033  0.2965
43905SOL    HW136526   0.404  11.932  11.136 -0.0200  1.3409 -0.3207
43905SOL    HW236527   0.264  11.877  11.134  0.4570 -0.0450  1.3515
43906SOL     OW36528  12.389   2.518   6.793 -0.1441  0.5854  0.1556
43906SOL    HW136529  12.482   2.511   6.771  0.0300  0.5582  0.8659
43906SOL    HW236530  12.387   2.522   6.889 -0.7805  2.0717  0.1152
43907SOL     OW36531  11.274   5.149   3.792 -0.2415 -0.1637 -0.3857
43907SOL    HW136532  11.261   5.239   3.820  1.5075  0.0882 -0.2596
43907SOL    HW236533  11.279   5.154   3.696 -0.1832 -0.1456 -0.3811
43908SOL     OW36534   2.273   0.926  11.945 -0.1790  0.2562  0.3312
43908SOL    HW136535   2.210   0.990  11.913 -1.2563 -0.7624  0.3215
43908SOL    HW236536   2.305   0.881  11.867  1.5285  1.5650  0.2095
43909SOL     OW36537  11.033   7.192   7.122 -0.2766  0.3440  0.2948
43909SOL    HW136538  10.949   7.145   7.125 -0.8225  1.3135  0.5177
43909SOL    HW236539  11.063   7.182   7.032  0.4321 -1.8087  0.7196
43910SOL     OW36540   3.503   4.844   5.810 -0.0167 -0.7172  0.3844
43910SOL    HW136541   3.448   4.852   5.733 -0.5700 -0.7470  0.7694
43910SOL    HW236542   3.585   4.806   5.778  0.7618  1.6180 -0.6546
43911SOL     OW36543   2.219   7.699   7.428  0.2632 -0.1741  0.3877
43911SOL    HW136544   2.263   7.765   7.374  1.6728  0.2937  2.0407
43911SOL    HW236545   2.255   7.616   7.399 -2.2294 -0.4576 -2.3946
43912SOL     OW36546   2.592  10.173   6.370 -0.2704  0.4656 -0.1035
43912SOL    HW136547   2.556  10.129   6.446  0.7625  0.1087  0.1937
43912SOL    HW236548   2.686  10.180   6.388 -0.2141  1.6236 -0.7216
43913SOL     OW36549   0.876   0.177   0.362  0.2576  0.1313 -0.1269
43913SOL    HW136550   0.960   0.199   0.403 -0.0441 -0.0466  0.6097
43913SOL    HW236551   0.810   0.203   0.427 -0.2248 -0.4802 -0.3588
43914SOL     OW36552   4.573   3.756   1.296  0.2637 -0.3233  0.2822
43914SOL    HW136553   4.505   3.722   1.354  1.1503 -0.9723  0.9699
43914SOL    HW236554   4.548   3.724   1.209 -0.2932 -0.5956  0.5378
43915SOL     OW36555  10.454   9.240  11.114  0.6977  0.4979  0.5563
43915SOL    HW136556  10.484   9.301  11.046 -0.8646 -0.6790 -1.2983
43915SOL    HW236557  10.425   9.297  11.185  1.7566  1.8181 -0.0134
43916SOL     OW36558   2.545  11.703  12.645  0.1664  0.0135 -0.1507
43916SOL    HW136559   2.573  11.787  12.609  0.2283 -0.2594 -0.7408
43916SOL    HW236560   2.451  11.701  12.630  0.2702 -0.3251 -0.7639
43917SOL     OW36561   8.629   8.141  12.097  0.2312  0.0577  0.6560
43917SOL    HW136562   8.593   8.055  12.074  1.0722 -1.1563  3.4506
43917SOL    HW236563   8.643   8.184  12.013 -1.0032 -2.1935 -0.8136
43918SOL     OW36564   3.428   5.015  10.348  0.4490  0.0201  0.3998
43918SOL    HW136565   3.402   4.947  10.410  0.5136  0.3015  0.7382
43918SOL    HW236566   3.406   5.097  10.392  0.4534  0.2207  0.0301
43919SOL     OW36567   8.375   2.557  11.978  0.1545  0.0615  0.4396
43919SOL    HW136568   8.316   2.613  11.928  0.0126 -0.8799 -0.4811
43919SOL    HW236569   8.334   2.549  12.064  1.1314  2.8970  1.2706
43920SOL     OW36570   0.431   1.416   7.987  0.1801 -0.2873  0.1341
43920SOL    HW136571   0.433   1.446   8.078 -0.2525 -0.6140  0.2526
43920SOL    HW236572   0.369   1.344   7.987 -2.9549  2.1631 -1.1721
43921SOL     OW36573  10.384   0.971  12.593 -0.1390 -0.3736 -0.3602
43921SOL    HW136574  10.346   0.969  12.505 -1.5559  3.2577 -0.0230
43921SOL    HW236575  10.309   0.982  12.651  0.9466 -0.3529  1.0810
43922SOL     OW36576  11.844   1.195   5.679 -0.1528  0.0018  0.0308
43922SOL    HW136577  11.767   1.248   5.700  0.1948 -0.0871  1.6197
43922SOL    HW236578  11.813   1.134   5.611 -0.4945  2.3446 -2.0779
43923SOL     OW36579   4.741   4.074  10.952 -0.1023 -0.3869  0.1612
43923SOL    HW136580   4.761   4.109  11.039  0.4751 -1.7163  0.5823
43923SOL    HW236581   4.690   3.995  10.969  0.8818 -1.2290 -0.6499
43924SOL     OW36582   3.725  10.106  10.859 -0.0764 -0.5888 -0.0778
43924SOL    HW136583   3.646  10.063  10.892 -0.5831  1.1283  1.0623
43924SOL    HW236584   3.768  10.140  10.937 -0.0790  1.5744 -0.9500
43925SOL     OW36585   9.147   1.720   7.637  0.8448  0.0716 -0.1469
43925SOL    HW136586   9.175   1.734   7.727 -0.1678  1.0385  0.0425
43925SOL    HW236587   9.160   1.805   7.594  0.7350 -0.2055 -0.7419
43926SOL     OW36588  12.641   9.195   7.989  0.3787  0.2050 -0.4203
43926SOL    HW136589  12.569   9.137   8.015 -0.1175  0.3117 -1.5116
43926SOL    HW236590  12.624   9.276   8.036  0.9295 -0.4083  0.9088
43927SOL     OW36591   3.362   4.391   6.155 -0.2516 -0.0434 -0.1818
43927SOL    HW136592   3.446   4.353   6.128  0.6800  0.7460  1.4461
43927SOL    HW236593   3.345   4.459   6.090 -0.6888 -1.5427 -1.6894
43928SOL     OW36594   4.525   2.875  10.082  0.1243 -0.6036 -0.0668
43928SOL    HW136595   4.431   2.878  10.063  0.2232 -1.4916 -0.7375
43928SOL    HW236596   4.542   2.785  10.109  1.2193 -1.1723 -2.4142
43929SOL     OW36597   2.565   1.249   3.904  0.1331 -0.1620  0.5191
43929SOL    HW136598   2.642   1.254   3.961  0.5002  0.5781 -0.0263
43929SOL    HW236599   2.572   1.326   3.848 -0.1073 -0.9914 -0.6830
43930SOL     OW36600   2.532   3.493   7.148 -0.4976 -0.0979 -0.3957
43930SOL    HW136601   2.572   3.563   7.097 -0.7218  0.4969  0.2233
43930SOL    HW236602   2.500   3.537   7.228 -1.0627 -0.8163 -0.2160
43931SOL     OW36603   0.225   7.806   5.896 -0.0660  0.1695 -0.3769
43931SOL    HW136604   0.179   7.724   5.915  1.0485 -0.4227 -0.2085
43931SOL    HW236605   0.177   7.872   5.947 -0.0583 -0.6193  0.6969
43932SOL     OW36606   4.200   2.273   9.752 -0.6779 -0.3050 -0.8710
43932SOL    HW136607   4.245   2.243   9.673 -1.0987 -1.4736 -0.6962
43932SOL    HW236608   4.122   2.217   9.757 -0.0002 -1.1351  1.0659
43933SOL     OW36609   4.747  11.306   4.671 -0.8440 -0.2541 -0.2368
43933SOL    HW136610   4.717  11.359   4.596  0.7222 -0.8894 -1.3613
43933SOL    HW236611   4.785  11.228   4.632  0.0449 -0.5977  1.2241
43934SOL     OW36612   4.376  12.418  12.219 -0.3377 -0.1840  0.0936
43934SOL    HW136613   4.451  12.477  12.220  0.2836 -0.8744 -1.7461
43934SOL    HW236614   4.302  12.472  12.192 -0.0626  0.0404 -0.2037
43935SOL     OW36615   3.357   3.450   0.961 -0.3332 -0.1937  0.1044
43935SOL    HW136616   3.267   3.474   0.984 -0.0929  1.4196 -0.5596
43935SOL    HW236617   3.411   3.497   1.024  0.1207  0.5077 -0.7956
43936SOL     OW36618   0.431   0.183   0.102  0.1900  0.1790  0.4169
43936SOL    HW136619   0.444   0.262   0.154 -0.8448  0.4669  0.2530
43936SOL    HW236620   0.506   0.127   0.124  0.7852  1.0867  0.7377
43937SOL     OW36621   1.450   4.767   9.955 -0.5677  0.1193  0.5438
43937SOL    HW136622   1.456   4.848   9.904 -0.0913 -0.1423  0.1759
43937SOL    HW236623   1.528   4.717   9.930 -0.1595  0.1184  1.7662
43938SOL     OW36624   4.009  11.103   2.105 -0.6298 -0.8653  0.1834
43938SOL    HW136625   4.001  11.182   2.052  0.2832 -1.9628 -1.7171
43938SOL    HW236626   4.102  11.083   2.104 -0.9045 -2.2851  0.0627
43939SOL     OW36627   6.757   4.763   4.517 -0.0049 -0.0835 -0.0729
43939SOL    HW136628   6.692   4.815   4.468  0.6180  1.1889  0.3907
43939SOL    HW236629   6.736   4.672   4.496  0.6074  0.3813 -3.2021
43940SOL     OW36630  11.478   2.089   7.404  0.3013 -0.0098 -0.0899
43940SOL    HW136631  11.386   2.092   7.380  0.1303 -1.0984  0.3493
43940SOL    HW236632  11.490   2.160   7.467 -0.5069 -0.5778  0.7187
43941SOL     OW36633   5.006   2.467   8.108 -0.4246 -1.0722 -0.6605
43941SOL    HW136634   5.085   2.436   8.064  0.2765  0.5138 -0.5681
43941SOL    HW236635   5.037   2.503   8.191 -1.3063 -0.8603 -0.4125
43942SOL     OW36636  10.638   0.364   0.010  0.1297 -0.5116  0.3368
43942SOL    HW136637  10.653   0.411  -0.072  1.3178  0.0106  0.8201
43942SOL    HW236638  10.543   0.354   0.016  0.0513 -2.1239 -1.9609
43943SOL     OW36639   9.831   7.220   3.074  0.4433 -0.4026  0.1528
43943SOL    HW136640   9.832   7.133   3.114  0.5575 -0.2635  0.4602
43943SOL    HW236641   9.751   7.223   3.023 -0.1255 -0.2911  1.0311
43944SOL     OW36642   0.143   1.251   0.787 -0.4378  0.2878 -0.1218
43944SOL    HW136643   0.098   1.168   0.801 -0.0060  0.5176  3.5824
43944SOL    HW236644   0.074   1.312   0.762 -0.9943 -0.8346 -1.3932
43945SOL     OW36645   0.729   5.446   9.697  0.4758  0.0619  0.2599
43945SOL    HW136646   0.709   5.446   9.790 -1.1436  1.6374 -0.0332
43945SOL    HW236647   0.691   5.528   9.664  1.6574 -0.0971 -1.6509
43946SOL     OW36648   1.128  10.228   0.027  0.1791  0.4539  0.2109
43946SOL    HW136649   1.149  10.135   0.018  2.1218  0.8798 -0.1909
43946SOL    HW236650   1.046  10.239  -0.020 -1.3110 -1.4356  2.1848
43947SOL     OW36651  10.125  10.168  12.610 -0.4398 -0.0097 -0.3979
43947SOL    HW136652  10.041  10.129  12.633 -0.5691  0.6922  0.3608
43947SOL    HW236653  10.190  10.105  12.639 -0.6954 -0.7126 -1.2878
43948SOL     OW36654   7.548   3.276   2.638  0.2182 -0.4430 -0.1627
43948SOL    HW136655   7.613   3.321   2.692  2.1125 -1.5891 -1.3675
43948SOL    HW236656   7.592   3.261   2.554 -2.1817  0.1532 -1.6245
43949SOL     OW36657   0.211   4.074   9.223  0.0930  0.3223  0.6152
43949SOL    HW136658   0.141   4.086   9.159  1.1411  3.8723 -0.0549
43949SOL    HW236659   0.170   4.092   9.307  0.0912  2.1743  0.2465
43950SOL     OW36660  10.613   7.730   4.892  0.5209  0.3222 -0.4808
43950SOL    HW136661  10.686   7.700   4.837 -1.0663 -2.9052 -1.1136
43950SOL    HW236662  10.555   7.776   4.831 -1.1272 -3.0595 -1.7308
43951SOL     OW36663   5.106   0.800  10.268  0.8430 -0.3438  0.1912
43951SOL    HW136664   5.062   0.750  10.199 -0.2675 -0.3704  0.8919
43951SOL    HW236665   5.104   0.743  10.344  0.5601  0.3252  0.6964
43952SOL     OW36666   3.140   4.720   9.839  0.4207 -0.2201  0.3027
43952SOL    HW136667   3.217   4.674   9.805  1.2570  2.1601 -1.2959
43952SOL    HW236668   3.134   4.692   9.930  1.3696 -2.7396 -0.3193
43953SOL     OW36669   1.349   3.592   5.514 -0.2867 -0.2436  0.7227
43953SOL    HW136670   1.268   3.641   5.497  0.5244  1.0536  0.4241
43953SOL    HW236671   1.377   3.562   5.428 -1.5913 -2.7002  1.0459
43954SOL     OW36672   3.225  11.412   4.854 -0.3753  0.1756 -0.4327
43954SOL    HW136673   3.193  11.499   4.879  2.7522  1.0697  0.9839
43954SOL    HW236674   3.216  11.409   4.759 -0.5499  2.0584 -0.5097
43955SOL     OW36675   0.787   9.351   1.145 -0.1252  0.0932  0.1966
43955SOL    HW136676   0.724   9.386   1.207 -0.2182 -1.5673  1.1126
43955SOL    HW236677   0.784   9.411   1.071 -0.3517  1.8795  1.5861
43956SOL     OW36678   5.378   5.292   9.015 -0.0572  0.3829 -0.7351
43956SOL    HW136679   5.406   5.383   9.012  0.1536  0.3149 -0.8732
43956SOL    HW236680   5.440   5.245   8.959  0.1242  0.0803 -0.2890
43957SOL     OW36681  12.553   1.866   8.478  0.1744  0.4254 -0.2235
43957SOL    HW136682  12.593   1.916   8.549  0.4333  1.0108 -0.7695
43957SOL    HW236683  12.462   1.856   8.505  0.6914 -1.0833  1.1233
43958SOL     OW36684  11.414  10.978  10.857  0.1206  0.5255 -0.6809
43958SOL    HW136685  11.509  10.985  10.870  0.4042 -0.9053 -1.7876
43958SOL    HW236686  11.377  11.043  10.917  1.6804 -0.5552  1.5956
43959SOL     OW36687   6.326   4.610   6.654  0.0912  0.1337  0.2127
43959SOL    HW136688   6.354   4.643   6.739  1.2633 -1.4231  0.4868
43959SOL    HW236689   6.253   4.551   6.674 -0.2783  0.5195  0.0188
43960SOL     OW36690   2.477   9.415   7.604 -0.2737 -0.1972  0.4626
43960SOL    HW136691   2.436   9.431   7.689  1.4551  2.4657  0.9188
43960SOL    HW236692   2.568   9.393   7.625 -0.3031 -1.5622 -0.6730
43961SOL     OW36693  12.494   9.050   9.370  0.1687 -0.2181 -0.2384
43961SOL    HW136694  12.506   8.962   9.403 -1.4646 -0.7571 -0.9278
43961SOL    HW236695  12.451   9.098   9.441  0.7203 -0.0905  0.0068
43962SOL     OW36696   9.579   0.047  10.087  0.2435 -0.4123 -0.2280
43962SOL    HW136697   9.660   0.097  10.081 -0.7028  1.2137 -0.2822
43962SOL    HW236698   9.524   0.082  10.017 -1.8456  1.2275  2.0240
43963SOL     OW36699   8.484   5.424   9.907  0.7294  0.1857  0.3797
43963SOL    HW136700   8.453   5.486   9.841 -0.7314  0.1209  0.9673
43963SOL    HW236701   8.527   5.355   9.856 -0.4196  0.1009 -0.5141
43964SOL     OW36702   6.680   4.847   0.412 -0.1480 -0.1010  0.5176
43964SOL    HW136703   6.676   4.926   0.357  0.7605 -0.4696 -0.1090
43964SOL    HW236704   6.593   4.809   0.405 -0.7495  1.0949  1.2160
43965SOL     OW36705   8.101   2.048   7.487  0.6105 -0.6704 -0.0775
43965SOL    HW136706   8.184   2.089   7.462 -0.4452  1.9219  0.3479
43965SOL    HW236707   8.124   1.993   7.562  2.1663 -1.1405 -0.8495
43966SOL     OW36708   2.758   0.915  11.218  0.0455 -0.1186 -0.1040
43966SOL    HW136709   2.663   0.922  11.229  0.1496 -1.5343  2.4614
43966SOL    HW236710   2.787   1.006  11.206 -1.5878  0.3388 -0.9504
43967SOL     OW36711   7.438   9.439   0.811  0.0069  0.7489  0.1328
43967SOL    HW136712   7.451   9.378   0.738 -0.5320  1.4768 -0.5749
43967SOL    HW236713   7.378   9.394   0.869 -0.3135  0.5601 -0.3405
43968SOL     OW36714   1.350  11.352   0.472 -0.0838 -0.1297  0.1317
43968SOL    HW136715   1.365  11.387   0.384 -0.7995  1.0772  0.4676
43968SOL    HW236716   1.268  11.303   0.464 -0.4861  0.5130  0.2606
43969SOL     OW36717   4.672   9.742   9.084 -0.5252  0.6749  0.2892
43969SOL    HW136718   4.707   9.658   9.114 -0.9409 -0.2103 -1.5606
43969SOL    HW236719   4.735   9.807   9.116  0.7874 -0.5215  0.2261
43970SOL     OW36720   8.236   7.010  11.901 -0.4196  0.0914 -0.6508
43970SOL    HW136721   8.272   7.098  11.893  0.5423 -0.3129 -0.9431
43970SOL    HW236722   8.203   6.990  11.814 -1.1638  0.3669 -0.4436
43971SOL     OW36723   7.149   5.071   3.673  0.1921 -0.2840 -0.0290
43971SOL    HW136724   7.187   5.020   3.602  0.6914  0.6770 -0.4757
43971SOL    HW236725   7.190   5.038   3.753  2.6889  1.2999 -0.5585
43972SOL     OW36726   0.414   6.767   4.821 -0.1274 -0.1328 -0.7099
43972SOL    HW136727   0.509   6.776   4.824  0.0136 -1.6551  1.5995
43972SOL    HW236728   0.394   6.698   4.884 -2.9438  1.6243  0.5155
43973SOL     OW36729   2.119   6.572   4.034  0.4536  0.4278  0.0441
43973SOL    HW136730   2.039   6.521   4.047 -0.5949  1.8675 -0.5086
43973SOL    HW236731   2.173   6.518   3.977 -0.7087  0.0153 -0.6997
43974SOL     OW36732   9.014   2.444  12.426  0.4701  0.0331 -0.0158
43974SOL    HW136733   9.081   2.384  12.393 -0.9342 -0.1492 -2.8784
43974SOL    HW236734   9.039   2.530  12.391  0.5029  0.4216  0.9426
43975SOL     OW36735   9.252   8.844   3.352  0.6151  0.0688 -0.3411
43975SOL    HW136736   9.226   8.886   3.270 -0.7911  1.5344  0.8137
43975SOL    HW236737   9.223   8.904   3.421 -0.9864 -2.5112  1.3885
43976SOL     OW36738   4.125   7.525  12.041  0.7838 -0.0196 -0.9623
43976SOL    HW136739   4.070   7.486  11.973 -0.7288  0.9398 -0.3310
43976SOL    HW236740   4.126   7.618  12.020  0.1506  0.3152  0.3965
43977SOL     OW36741   4.496   2.375   0.518  0.2021 -0.3372  0.2582
43977SOL    HW136742   4.516   2.392   0.610  1.3735 -2.2525  0.4072
43977SOL    HW236743   4.532   2.288   0.501 -0.7424 -0.3853 -1.7962
43978SOL     OW36744   6.548   0.851  11.477  0.0095  0.0177 -0.5197
43978SOL    HW136745   6.592   0.873  11.395  0.0550 -0.7437 -0.7074
43978SOL    HW236746   6.588   0.769  11.505 -0.8798 -0.3820 -0.3859
43979SOL     OW36747  11.789  10.457   4.516 -0.0373  0.3062  0.1383
43979SOL    HW136748  11.834  10.403   4.450 -0.9457  0.0290 -0.2671
43979SOL    HW236749  11.705  10.479   4.476 -1.6562 -1.8525  2.0610
43980SOL     OW36750   1.857   7.594  11.627 -0.4897 -0.0205  0.2327
43980SOL    HW136751   1.888   7.628  11.543  0.1258 -0.4102  0.2919
43980SOL    HW236752   1.867   7.499  11.619  1.1148  0.0200  1.3190
43981SOL     OW36753  12.143  10.604  10.100  0.2674 -0.5107 -0.4571
43981SOL    HW136754  12.113  10.679  10.152  0.7192 -1.3373  1.0718
43981SOL    HW236755  12.137  10.634  10.009 -1.2554  0.7373  0.0096
43982SOL     OW36756   6.372   9.126  10.107 -0.5753 -0.3258  0.4127
43982SOL    HW136757   6.447   9.108  10.163 -1.1572 -2.6532  0.5135
43982SOL    HW236758   6.337   9.209  10.140  2.5132  1.4592 -0.3239
43983SOL     OW36759  11.512   3.720   5.119 -0.1582 -0.1400 -0.8887
43983SOL    HW136760  11.515   3.658   5.191  0.2047 -1.6354 -2.1520
43983SOL    HW236761  11.479   3.670   5.045 -0.8561  1.4487 -1.7098
43984SOL     OW36762   2.975  12.431   9.129 -0.5838  1.3196  0.0388
43984SOL    HW136763   3.009  12.342   9.120 -0.7430  1.1846  0.7362
43984SOL    HW236764   3.016  12.479   9.057 -0.0287  0.8264  0.0154
43985SOL     OW36765   8.158   8.635   1.891  0.6655 -0.2371 -0.1387
43985SOL    HW136766   8.185   8.580   1.817 -0.4343 -0.0215 -0.7369
43985SOL    HW236767   8.080   8.592   1.925  0.1016  0.6490 -0.2772
43986SOL     OW36768   3.804   0.013   5.272  0.2462  0.2106 -0.3926
43986SOL    HW136769   3.875   0.034   5.333  1.4797  0.6195 -1.8932
43986SOL    HW236770   3.747   0.089   5.274  0.0420  0.0355  0.5651
43987SOL     OW36771   3.574   6.775   2.363  0.1997  0.1473 -0.1340
43987SOL    HW136772   3.627   6.725   2.425 -0.2540  1.7307  1.6148
43987SOL    HW236773   3.587   6.866   2.389 -0.4323  0.8303 -2.0677
43988SOL     OW36774   6.753  11.147  12.372  0.3885 -0.3451  0.0077
43988SOL    HW136775   6.751  11.111  12.283 -2.8639  0.9060 -0.5684
43988SOL    HW236776   6.685  11.098  12.419 -0.4944  1.4332  0.6845
43989SOL     OW36777  11.967   8.036  12.090 -0.0783 -0.4112  0.3603
43989SOL    HW136778  12.025   8.067  12.160 -0.5620 -1.4280  1.2400
43989SOL    HW236779  12.025   7.988  12.031  0.3314  0.4440  0.0383
43990SOL     OW36780  12.238   5.721   8.446  0.2415  0.4099 -0.4128
43990SOL    HW136781  12.219   5.666   8.522 -0.3850 -1.5483 -1.8821
43990SOL    HW236782  12.330   5.703   8.426  0.5061  1.1920  0.0592
43991SOL     OW36783   7.027   4.852   1.609  0.3729 -0.3469 -0.1987
43991SOL    HW136784   7.105   4.797   1.623 -0.0443 -1.0116 -0.4224
43991SOL    HW236785   7.060   4.928   1.562  1.0272 -0.2262  0.4399
43992SOL     OW36786   6.504   8.165   9.015  0.0450 -0.2405 -0.2537
43992SOL    HW136787   6.599   8.155   9.005  0.3899  1.7416  0.6516
43992SOL    HW236788   6.483   8.244   8.966 -1.2114 -0.7908 -0.6487
43993SOL     OW36789  12.444   7.862   0.269  0.2805  0.2941 -0.0029
43993SOL    HW136790  12.505   7.935   0.282  0.2111  0.3807 -0.1530
43993SOL    HW236791  12.461   7.833   0.179 -0.2432  0.6395 -0.2163
43994SOL     OW36792   0.574   8.973  10.109  0.0973  0.2583 -0.5935
43994SOL    HW136793   0.573   9.055  10.159  1.6189  0.1657 -0.3528
43994SOL    HW236794   0.510   8.918  10.153  0.6466  0.5536  0.6329
43995SOL     OW36795   4.186   7.636   8.937  0.0645  0.5970 -0.1151
43995SOL    HW136796   4.170   7.594   9.022 -0.1922  0.2556 -0.3279
43995SOL    HW236797   4.167   7.567   8.873 -1.6442  1.4186 -0.5280
43996SOL     OW36798  11.779   7.237   0.700 -0.3373  0.5894 -0.1360
43996SOL    HW136799  11.685   7.223   0.713  0.4033 -3.3271  2.7291
43996SOL    HW236800  11.809   7.273   0.784  1.0515 -0.8245  0.0127
43997SOL     OW36801   2.994   5.696   8.647  0.4343 -0.5482 -0.3169
43997SOL    HW136802   2.941   5.629   8.604  0.2980  0.9949 -2.8256
43997SOL    HW236803   3.083   5.664   8.641  0.1335 -1.7206  1.0480
43998SOL     OW36804  11.470   0.320   4.987 -0.2864  0.0447  0.8867
43998SOL    HW136805  11.399   0.262   5.015 -1.6779  0.4881 -1.4676
43998SOL    HW236806  11.544   0.261   4.972 -1.1354 -0.8933  0.2742
43999SOL     OW36807   5.754  10.679   7.199 -0.1621  0.2629  0.2471
43999SOL    HW136808   5.699  10.603   7.181  0.1134 -0.1087  0.9283
43999SOL    HW236809   5.717  10.716   7.279 -0.1701  0.7299  0.0280
44000SOL     OW36810  11.549  10.175   4.405  0.1650 -0.0291 -0.3767
44000SOL    HW136811  11.583  10.184   4.316  1.9934  0.4890  0.3196
44000SOL    HW236812  11.499  10.094   4.404  1.1387 -0.6406 -1.5954
44001SOL     OW36813   8.846   0.322   6.276 -0.2947  0.6239  0.1547
44001SOL    HW136814   8.899   0.243   6.289 -1.2102 -0.1959 -0.8301
44001SOL    HW236815   8.890   0.368   6.204  0.1735  0.9551  0.6501
44002SOL     OW36816  10.827   6.015  10.443  0.1503 -0.2595 -0.1184
44002SOL    HW136817  10.864   5.930  10.468 -0.1122  0.5392  3.4114
44002SOL    HW236818  10.903   6.072  10.433  0.1951  0.0686  1.7766
44003SOL     OW36819   2.683   1.749   4.983  0.4577 -0.0250  0.9870
44003SOL    HW136820   2.666   1.744   5.077  1.5426  0.5819  1.2313
44003SOL    HW236821   2.778   1.744   4.976  0.3487 -0.9461 -0.1494
44004SOL     OW36822   5.561   3.887   3.490  0.1390 -0.4044 -0.0940
44004SOL    HW136823   5.497   3.820   3.464  1.2316 -1.6536  0.3285
44004SOL    HW236824   5.552   3.892   3.585  0.8406 -0.7813 -0.0031
44005SOL     OW36825   3.810   7.770  10.906 -0.3494  0.3996  0.0168
44005SOL    HW136826   3.778   7.718  10.980 -0.9114 -1.3007 -1.3376
44005SOL    HW236827   3.740   7.834  10.891 -0.3857  0.5388  0.7395
44006SOL     OW36828   5.820   5.162   9.637  0.2864  0.2635 -0.8632
44006SOL    HW136829   5.819   5.238   9.578  0.3288 -0.0935 -1.3244
44006SOL    HW236830   5.901   5.115   9.614  0.3267  0.1470 -0.4893
44007SOL     OW36831   3.111   7.304   9.452 -0.3892 -0.2256  0.1453
44007SOL    HW136832   3.121   7.386   9.403  0.0263 -0.1701  0.3188
44007SOL    HW236833   3.142   7.325   9.540 -0.4629 -0.5176  0.2404
44008SOL     OW36834  10.666   5.203   7.326  0.1466 -0.1641  0.1458
44008SOL    HW136835  10.677   5.156   7.244 -0.0879  0.3200 -0.1674
44008SOL    HW236836  10.682   5.295   7.304 -4.9817  0.8436 -0.5720
44009SOL     OW36837   5.008   8.525  12.383 -0.1092  0.2758 -0.5015
44009SOL    HW136838   4.999   8.544  12.289  0.1760  0.4156 -0.5025
44009SOL    HW236839   4.920   8.503  12.411 -0.0475 -0.6028 -0.9791
44010SOL     OW36840   1.113   4.519   8.486 -0.9643  0.1630  0.3180
44010SOL    HW136841   1.122   4.614   8.486 -2.4334  0.3741  2.5792
44010SOL    HW236842   1.049   4.501   8.417  1.0511  0.4932 -1.7827
44011SOL     OW36843   2.100   0.447  10.485 -0.3827 -0.3107 -0.0631
44011SOL    HW136844   2.059   0.370  10.525  1.7192 -0.3959  2.1347
44011SOL    HW236845   2.034   0.516  10.491 -1.7407 -1.5111 -0.6781
44012SOL     OW36846   7.757  10.748   9.470 -0.3706 -0.3777 -0.2078
44012SOL    HW136847   7.739  10.746   9.564  2.1613  0.2251  0.3754
44012SOL    HW236848   7.798  10.663   9.453  0.9624  0.2667 -0.3146
44013SOL     OW36849   0.400   0.855  12.109 -0.2999 -0.1834  0.3050
44013SOL    HW136850   0.411   0.769  12.149 -0.1589 -0.0849  0.4758
44013SOL    HW236851   0.362   0.836  12.023  0.7975 -0.5011 -0.1245
44014SOL     OW36852   6.394   1.429   8.054  0.5635  0.2711  0.2342
44014SOL    HW136853   6.379   1.478   7.973 -0.3718  0.1904  0.3476
44014SOL    HW236854   6.433   1.492   8.114  0.8603  0.4452 -0.1441
44015SOL     OW36855   1.025   4.723   7.320  0.2170 -0.4663 -0.3663
44015SOL    HW136856   0.967   4.671   7.264 -0.4801  1.7065 -1.7575
44015SOL    HW236857   1.097   4.748   7.263 -1.6346  3.7613 -1.2060
44016SOL     OW36858   2.858   7.961   6.335  0.2482  0.1196  0.0455
44016SOL    HW136859   2.791   7.936   6.397  0.3735 -1.8379 -0.5408
44016SOL    HW236860   2.907   8.030   6.379 -1.5429  0.9321  0.8514
44017SOL     OW36861   8.155   1.922   9.205  0.0576 -0.0533  0.7198
44017SOL    HW136862   8.236   1.874   9.221  0.3870  0.7033  1.3674
44017SOL    HW236863   8.170   2.009   9.243 -0.0993  0.9596 -1.3934
44018SOL     OW36864   4.131   5.604   8.407  0.1320  0.1639 -0.2279
44018SOL    HW136865   4.162   5.523   8.367 -0.6177  0.5903 -1.7277
44018SOL    HW236866   4.174   5.606   8.493  1.4608 -0.9891 -0.8313
44019SOL     OW36867   1.827   5.463  12.264  0.2206  0.2913 -0.3448
44019SOL    HW136868   1.902   5.419  12.305  0.7062 -1.0771 -2.5469
44019SOL    HW236869   1.863   5.545  12.229  0.4431  0.1275 -0.4970
44020SOL     OW36870   0.900   1.582   6.431 -0.0667  0.2561  0.1804
44020SOL    HW136871   0.911   1.609   6.340 -1.4502 -0.4411 -0.2216
44020SOL    HW236872   0.945   1.498   6.438  0.9140  0.7892  0.4221
44021SOL     OW36873   9.453   2.454   3.363 -0.6258  0.2093  0.4878
44021SOL    HW136874   9.427   2.385   3.424  0.8357 -0.3120  0.5477
44021SOL    HW236875   9.431   2.420   3.276 -0.1669 -0.2123  0.5376
44022SOL     OW36876   6.753  10.021   1.565  0.6712 -0.4414  0.4612
44022SOL    HW136877   6.845  10.044   1.581  0.4564  1.0436 -0.2420
44022SOL    HW236878   6.748   9.928   1.585  1.5745  0.0842  3.6602
44023SOL     OW36879   7.217   9.834   5.733  0.3648 -0.0521 -0.4416
44023SOL    HW136880   7.284   9.810   5.670 -1.3741 -3.0867 -1.3245
44023SOL    HW236881   7.247   9.796   5.816 -1.3068 -3.8651 -1.3777
44024SOL     OW36882   8.562   2.090   6.905 -0.6977  0.0629  0.2213
44024SOL    HW136883   8.608   2.006   6.918  0.4570  0.7928  1.0804
44024SOL    HW236884   8.545   2.094   6.811  0.3557 -0.5735 -0.0111
44025SOL     OW36885   7.630  10.004   6.209 -0.0613 -0.0483 -0.2243
44025SOL    HW136886   7.651  10.032   6.298 -0.2462  3.1439 -1.0683
44025SOL    HW236887   7.539   9.975   6.214  0.9577 -3.5299  1.2502
44026SOL     OW36888   8.597   0.947   6.566  0.3392  0.1134 -0.2307
44026SOL    HW136889   8.679   0.987   6.539  0.6921 -0.1902  0.3715
44026SOL    HW236890   8.615   0.909   6.652 -0.4901  0.2312  0.0120
44027SOL     OW36891   1.799   2.108  11.860 -0.3043 -0.1782  0.4951
44027SOL    HW136892   1.749   2.163  11.922 -0.1761 -1.6493  1.9778
44027SOL    HW236893   1.821   2.167  11.788 -0.9223  1.4822  1.6016
44028SOL     OW36894   0.400   0.686   0.943 -0.2729  0.8578  0.0443
44028SOL    HW136895   0.469   0.720   1.001  0.1837  1.2165 -0.6979
44028SOL    HW236896   0.412   0.734   0.861 -0.4485 -0.1601 -0.5909
44029SOL     OW36897  11.525   7.446   3.849 -0.0674 -0.4060  0.3903
44029SOL    HW136898  11.450   7.464   3.793  0.2879  0.1806  0.0816
44029SOL    HW236899  11.494   7.380   3.911 -0.3836 -1.3146 -0.6867
44030SOL     OW36900   4.252   6.586   2.294 -0.5039  0.2489 -0.1233
44030SOL    HW136901   4.242   6.682   2.297  0.3478  0.4088 -1.5308
44030SOL    HW236902   4.216   6.561   2.209 -0.3488 -0.6348  0.0629
44031SOL     OW36903   5.138   2.927   2.587  0.4188 -0.4165 -0.1801
44031SOL    HW136904   5.170   2.943   2.498  0.4587 -2.0960 -0.4870
44031SOL    HW236905   5.214   2.895   2.635  1.4718  3.9819  1.6096
44032SOL     OW36906   8.713  11.452   6.810 -1.1246  0.1747 -0.1414
44032SOL    HW136907   8.750  11.364   6.812 -1.2015  0.1392  1.9281
44032SOL    HW236908   8.663  11.459   6.892  0.1093  2.6021  0.4974
44033SOL     OW36909   3.399  12.210   0.686 -0.2972  0.0660 -0.1264
44033SOL    HW136910   3.306  12.221   0.668 -0.5664 -2.0937 -0.3490
44033SOL    HW236911   3.440  12.212   0.600 -0.5456 -1.9022 -0.3347
44034SOL     OW36912   6.283  10.718   0.316 -0.7554 -0.2475  0.0367
44034SOL    HW136913   6.249  10.804   0.293  0.7277  0.3372 -0.1177
44034SOL    HW236914   6.267  10.710   0.410 -0.3531  0.4749  0.1745
44035SOL     OW36915  10.778   3.510   6.942  0.3037 -0.0984 -0.1052
44035SOL    HW136916  10.762   3.550   6.857  0.5642 -0.0409 -0.1272
44035SOL    HW236917  10.870   3.528   6.960 -0.5112  3.0759  1.7899
44036SOL     OW36918   8.287   0.729   5.296 -0.4742 -0.4041  0.8600
44036SOL    HW136919   8.194   0.721   5.274 -0.1950  0.2404 -0.7407
44036SOL    HW236920   8.324   0.778   5.222  0.7530  1.1837  2.4393
44037SOL     OW36921   0.253   3.632   4.858 -0.5739 -0.7761  0.5283
44037SOL    HW136922   0.346   3.643   4.841 -0.8924  0.7478 -0.4157
44037SOL    HW236923   0.223   3.569   4.792 -0.6948  0.7504 -0.9208
44038SOL     OW36924   6.916   3.570   1.601 -0.1902 -0.3471 -0.2707
44038SOL    HW136925   6.898   3.660   1.573 -0.4222 -0.5276 -0.7190
44038SOL    HW236926   6.996   3.546   1.554  0.6739  0.1044  0.9353
44039SOL     OW36927  11.477   7.374   8.514 -0.5167 -0.1180 -0.5217
44039SOL    HW136928  11.439   7.424   8.442 -0.4476  2.2556  0.9661
44039SOL    HW236929  11.462   7.428   8.592  0.8731 -1.7686  0.9987
44040SOL     OW36930   7.550  11.432   9.659 -0.7773 -0.0331  0.2951
44040SOL    HW136931   7.592  11.398   9.580  1.5338  0.5034  1.2072
44040SOL    HW236932   7.468  11.383   9.666 -0.2359 -1.2824 -1.5083
44041SOL     OW36933   9.228   5.443  10.422 -0.0441 -0.2381 -0.2876
44041SOL    HW136934   9.182   5.526  10.412  0.6731  0.5282  2.0285
44041SOL    HW236935   9.178   5.381  10.369 -1.3774  1.3754 -1.0126
44042SOL     OW36936   7.709   3.565   3.756 -0.4425 -0.4814  0.3316
44042SOL    HW136937   7.616   3.568   3.779 -1.2789 -2.7457 -2.1890
44042SOL    HW236938   7.718   3.484   3.706  2.3036  1.1010 -1.9960
44043SOL     OW36939   6.102   1.877   3.989  0.0349 -0.6718 -0.0795
44043SOL    HW136940   6.054   1.819   3.930 -0.1666  0.2482 -0.8444
44043SOL    HW236941   6.151   1.935   3.931  0.4409 -0.2482  0.6714
44044SOL     OW36942   6.218   8.572   1.328 -0.0094 -0.1453 -0.7283
44044SOL    HW136943   6.281   8.643   1.324 -1.9975  1.8076  0.3917
44044SOL    HW236944   6.249   8.516   1.400  0.6524  0.5300 -0.4841
44045SOL     OW36945  12.204   9.093  10.783  0.3220  0.0690  0.9367
44045SOL    HW136946  12.287   9.109  10.828  0.6595 -0.5236  0.5423
44045SOL    HW236947  12.168   9.180  10.767  0.2008  0.2926  2.3278
44046SOL     OW36948   6.818   3.415  11.864  0.2484  0.6044 -0.0449
44046SOL    HW136949   6.840   3.332  11.820  1.0872  1.3471 -1.0839
44046SOL    HW236950   6.728   3.403  11.894 -0.0700 -0.2639 -1.2527
44047SOL     OW36951  10.732   2.691   7.932  0.5293  0.1652  0.1470
44047SOL    HW136952  10.663   2.685   7.999  0.6827 -0.6684  0.2362
44047SOL    HW236953  10.722   2.612   7.880  2.1266 -0.5375  0.8453
44048SOL     OW36954   5.468   7.847   6.772 -0.4015 -0.0532 -0.7118
44048SOL    HW136955   5.537   7.786   6.746  0.4846  0.8390 -0.5336
44048SOL    HW236956   5.508   7.900   6.841 -0.3128  2.2883 -2.4361
44049SOL     OW36957  11.834   6.240   5.610  0.6660  0.5667 -0.3189
44049SOL    HW136958  11.875   6.162   5.572 -2.9936 -2.2133  0.8919
44049SOL    HW236959  11.802   6.289   5.534 -0.3134 -1.1671 -1.0754
44050SOL     OW36960   7.738   6.838   1.536 -0.0292 -0.1378  0.3290
44050SOL    HW136961   7.652   6.862   1.570 -0.3617 -1.7637  0.7241
44050SOL    HW236962   7.743   6.743   1.549  1.3135 -0.2565 -0.8625
44051SOL     OW36963   8.670   3.800  11.093 -0.2864  0.0097  0.1305
44051SOL    HW136964   8.655   3.717  11.137  0.6205  0.7590  1.9187
44051SOL    HW236965   8.599   3.857  11.125  1.0597  0.9097  1.6309
44052SOL     OW36966   4.803   1.869   3.850 -0.1258  0.0839  0.9260
44052SOL    HW136967   4.760   1.936   3.797  0.4075 -0.6064 -0.4506
44052SOL    HW236968   4.816   1.796   3.789 -1.0827 -1.4573  2.4596
44053SOL     OW36969   0.162  11.076  10.846  0.1232  0.1442 -0.4487
44053SOL    HW136970   0.163  11.054  10.753  1.9407 -0.4110 -0.3413
44053SOL    HW236971   0.106  11.153  10.852 -0.9904 -0.5261 -1.8098
44054SOL     OW36972   9.661   7.476  11.076 -0.4001 -0.0864 -0.6426
44054SOL    HW136973   9.606   7.546  11.043 -2.0974 -0.8577  0.4319
44054SOL    HW236974   9.600   7.414  11.116  1.3153 -0.3844  1.7187
44055SOL     OW36975   4.713   1.684   6.192 -0.3222  0.2287  0.5716
44055SOL    HW136976   4.657   1.730   6.130 -0.8570  1.0124  1.6031
44055SOL    HW236977   4.704   1.733   6.274 -1.0799 -1.8030  1.7945
44056SOL     OW36978   6.760   5.779  10.428  0.2633  0.2825  0.7685
44056SOL    HW136979   6.821   5.740  10.491  1.4896  1.3127  0.2679
44056SOL    HW236980   6.674   5.751  10.458  1.0283 -3.6808 -0.1347
44057SOL     OW36981  11.596   9.109   4.272 -0.4913 -0.3777  0.5511
44057SOL    HW136982  11.583   9.098   4.367 -0.9251 -1.0069  0.4337
44057SOL    HW236983  11.561   9.196   4.253 -1.9015 -0.8601  0.7398
44058SOL     OW36984   2.011  12.175   1.379 -0.3484  0.0303 -0.1404
44058SOL    HW136985   1.953  12.249   1.363 -0.6482 -0.2973 -0.5782
44058SOL    HW236986   1.982  12.107   1.318 -1.6879 -1.3678  1.9094
44059SOL     OW36987   6.456   1.823   2.581  0.1715  0.3722  0.7452
44059SOL    HW136988   6.545   1.821   2.545  0.2948 -2.0211  1.0002
44059SOL    HW236989   6.465   1.788   2.669 -1.0478 -0.1717  0.6735
44060SOL     OW36990   3.709   5.707   3.181 -0.0539 -0.0636 -0.0217
44060SOL    HW136991   3.740   5.753   3.259 -1.2120 -0.9515  1.0025
44060SOL    HW236992   3.739   5.617   3.193  0.7024  0.0230 -1.1566
44061SOL     OW36993   0.781   8.682   5.983  0.3188  0.1578 -0.6691
44061SOL    HW136994   0.842   8.734   6.036 -0.8018 -0.0925  0.9335
44061SOL    HW236995   0.838   8.623   5.933  1.3868 -0.4214  1.1408
44062SOL     OW36996   9.868   3.115  10.610  0.0225  0.0517 -0.0895
44062SOL    HW136997   9.901   3.035  10.570 -1.4994 -0.9110  0.5140
44062SOL    HW236998   9.779   3.095  10.636 -0.2848  1.8405  0.4135
44063SOL     OW36999   1.173   4.502  11.395  0.2787 -0.2930  0.1420
44063SOL    HW137000   1.186   4.500  11.489  0.4162  0.1013  0.1335
44063SOL    HW237001   1.229   4.432  11.361 -1.0303 -1.5502  0.4864
44064SOL     OW37002   6.056   8.912   7.260  0.0179 -0.7106  0.0709
44064SOL    HW137003   6.013   8.965   7.193  0.3997 -1.6610 -0.9551
44064SOL    HW237004   6.143   8.894   7.225  0.5025 -0.5818  1.1776
44065SOL     OW37005   0.242   9.458   5.299 -0.1583  0.0129 -0.7954
44065SOL    HW137006   0.248   9.535   5.242  1.8529  1.6812  1.4776
44065SOL    HW237007   0.308   9.397   5.263 -0.0168  0.3805 -1.1663
44066SOL     OW37008   9.329   5.331   0.936  0.3915 -0.1297 -0.2137
44066SOL    HW137009   9.340   5.396   1.006 -0.5495  0.3366 -0.4843
44066SOL    HW237010   9.377   5.368   0.862 -0.8312  0.6896 -0.6264
44067SOL     OW37011   5.179  12.492  12.521  0.0592 -0.3245 -0.0451
44067SOL    HW137012   5.263  12.453  12.546 -0.0355 -0.8990 -0.5992
44067SOL    HW237013   5.191  12.522  12.431 -0.2363 -0.1323 -0.0255
44068SOL     OW37014  11.629   0.151   4.632  0.4132  0.5902 -0.2563
44068SOL    HW137015  11.718   0.149   4.597  0.8363 -1.6773  0.7406
44068SOL    HW237016  11.631   0.089   4.705 -2.9496 -2.9276 -2.7415
44069SOL     OW37017   6.924  11.935   6.905  0.1760  0.2190  0.0232
44069SOL    HW137018   7.007  11.977   6.881  0.4991 -0.3192  0.1964
44069SOL    HW237019   6.945  11.885   6.984 -0.4903  0.6756  0.4933
44070SOL     OW37020  10.489  10.147   9.318  0.4342  0.2036  0.3190
44070SOL    HW137021  10.469  10.201   9.395 -2.6154 -0.5222  0.1449
44070SOL    HW237022  10.499  10.058   9.353  0.7561  0.1407  0.0719
44071SOL     OW37023  12.630   5.064   2.794 -0.8401 -0.1825  0.4286
44071SOL    HW137024  12.613   4.994   2.856 -1.2674  0.0127  0.5379
44071SOL    HW237025  12.725   5.072   2.792 -0.7771 -1.0075  0.1341
44072SOL     OW37026   4.470   5.965   6.625 -0.3094  0.2363 -0.1280
44072SOL    HW137027   4.546   5.953   6.683  0.0064 -1.2457 -0.8279
44072SOL    HW237028   4.399   5.988   6.685  0.2565 -0.2153  0.7498
44073SOL     OW37029   0.559   7.817  11.203  0.3582 -0.5927 -0.6975
44073SOL    HW137030   0.522   7.744  11.153 -0.4334 -0.1405 -0.7959
44073SOL    HW237031   0.620   7.776  11.264  1.0282 -1.2039 -1.7389
44074SOL     OW37032   7.119  10.526   0.883  0.1061  0.3003 -0.2876
44074SOL    HW137033   7.171  10.605   0.866 -0.2865  1.0304  1.6109
44074SOL    HW237034   7.043  10.557   0.933 -0.1266 -1.2476  0.3995
44075SOL     OW37035  12.580   3.232   7.230  0.0256  0.0623  0.3731
44075SOL    HW137036  12.668   3.238   7.266  0.2173  0.9206 -0.2104
44075SOL    HW237037  12.591   3.244   7.136 -0.9403  2.8507  0.5247
44076SOL     OW37038   4.111  11.541   5.929  0.0695  0.0613  0.3863
44076SOL    HW137039   4.129  11.447   5.938  0.8031 -0.1080 -2.1201
44076SOL    HW237040   4.194  11.579   5.900 -0.3505  1.4254  0.8856
44077SOL     OW37041  12.065  12.313   4.314 -0.4738  0.6537 -0.2188
44077SOL    HW137042  12.063  12.351   4.402  0.9533  1.5639 -0.5422
44077SOL    HW237043  12.146  12.261   4.312  1.2191  3.1176 -1.9008
44078SOL     OW37044   6.507   1.825   8.320  0.4501 -0.3640 -0.1381
44078SOL    HW137045   6.431   1.836   8.376 -0.4427 -0.0259 -1.3782
44078SOL    HW237046   6.582   1.824   8.381 -0.4522  0.2343  1.0165
44079SOL     OW37047   9.542   4.956   4.086 -0.0489  0.2353 -0.3804
44079SOL    HW137048   9.482   4.897   4.040  0.0799 -0.8802  0.8253
44079SOL    HW237049   9.624   4.950   4.036  0.7613 -2.5964  1.0390
44080SOL     OW37050   9.256   4.128   5.834 -0.6571 -0.0228  0.0220
44080SOL    HW137051   9.306   4.207   5.853  0.7663 -0.9026  0.1394
44080SOL    HW237052   9.311   4.079   5.772 -1.0212 -1.3692  0.7172
44081SOL     OW37053   6.314   3.387   1.287  0.1065  0.1163 -0.1776
44081SOL    HW137054   6.256   3.443   1.339 -0.9663  1.2251 -2.4304
44081SOL    HW237055   6.260   3.358   1.213  1.3643 -1.9606 -0.3619
44082SOL     OW37056   0.494   4.964  12.301  0.0910 -0.4814  0.1131
44082SOL    HW137057   0.571   5.016  12.326 -0.3937  0.5012 -0.3731
44082SOL    HW237058   0.492   4.970  12.205  0.3827 -1.9476 -0.0165
44083SOL     OW37059   7.065   7.877  10.917  0.2232 -0.0173 -0.0162
44083SOL    HW137060   7.156   7.867  10.891  0.0746  0.1666 -0.6299
44083SOL    HW237061   7.054   7.818  10.992  1.5529  1.9215  1.8196
44084SOL     OW37062   9.991   6.997   9.949  0.4253 -0.0759  0.1185
44084SOL    HW137063  10.087   6.990   9.945  0.3260 -1.3912 -0.7975
44084SOL    HW237064   9.975   7.075  10.002  2.0369  2.1072 -2.3197
44085SOL     OW37065   7.173   4.773   9.571  0.4876 -0.1930  0.4760
44085SOL    HW137066   7.153   4.740   9.483  0.5603 -2.1446  1.1391
44085SOL    HW237067   7.185   4.867   9.559  1.4988 -0.5408 -1.7933
44086SOL     OW37068  10.984   4.723  12.310  0.0110  0.4249  0.0614
44086SOL    HW137069  11.006   4.641  12.354  0.4330  1.8649  2.6812
44086SOL    HW237070  11.051   4.731  12.241  0.9665 -0.6332  0.8201
44087SOL     OW37071   3.573   5.107   7.328  0.4921  1.0239 -0.7434
44087SOL    HW137072   3.615   5.041   7.273 -0.6825 -1.1459  0.8100
44087SOL    HW237073   3.490   5.126   7.284 -0.4173 -0.6595  0.1291
44088SOL     OW37074   6.680   1.181   1.112 -0.4287 -0.2389  0.3629
44088SOL    HW137075   6.736   1.111   1.076 -1.0367 -1.5550  1.8781
44088SOL    HW237076   6.721   1.262   1.080 -0.5448 -1.2489 -2.6969
44089SOL     OW37077  11.907  11.243   2.677  0.4683  0.1189  0.0502
44089SOL    HW137078  11.835  11.193   2.715  0.6590 -0.8521 -0.8193
44089SOL    HW237079  11.869  11.329   2.658  0.0226  0.1849  1.1918
44090SOL     OW37080   3.884   1.946   1.871  0.0712 -0.3439 -0.0185
44090SOL    HW137081   3.867   1.852   1.859 -0.8778  0.0321 -1.9930
44090SOL    HW237082   3.803   1.980   1.908  0.2848 -0.2370  0.3534
44091SOL     OW37083   0.879  10.907   3.742  0.3589 -0.0945  0.2115
44091SOL    HW137084   0.867  10.974   3.674  3.9944  2.4042  1.6643
44091SOL    HW237085   0.966  10.870   3.724  0.6537 -0.6346  2.4148
44092SOL     OW37086   7.122   2.780   3.181 -0.0249  0.1302 -0.0525
44092SOL    HW137087   7.048   2.785   3.120 -0.5570 -0.6661  0.4993
44092SOL    HW237088   7.200   2.784   3.126 -0.4970  0.0084 -0.7334
44093SOL     OW37089   7.748   1.740  10.393  0.0293  0.6394 -0.0278
44093SOL    HW137090   7.738   1.727  10.488 -0.5015  0.8068 -0.0569
44093SOL    HW237091   7.833   1.783  10.384  0.5254 -0.2627  0.2890
44094SOL     OW37092  11.686   5.987  10.243  0.0318  0.2324 -0.3805
44094SOL    HW137093  11.745   6.033  10.184 -0.0967  0.3301 -0.4329
44094SOL    HW237094  11.604   5.979  10.194 -0.0007  0.1035 -0.3061
44095SOL     OW37095   7.263   3.068   6.329 -0.5922 -0.3301  0.0516
44095SOL    HW137096   7.347   3.029   6.355 -0.3587  0.4063  0.4365
44095SOL    HW237097   7.258   3.052   6.235  0.4850  0.5267 -0.1752
44096SOL     OW37098  10.173   2.068  11.080  0.2995 -0.8140  0.0330
44096SOL    HW137099  10.107   2.087  11.146 -1.2116  0.0983 -1.6732
44096SOL    HW237100  10.238   2.138  11.091 -0.1392 -0.4386  0.2899
44097SOL     OW37101   8.053   5.734   7.184  0.2321 -0.0544 -0.1841
44097SOL    HW137102   7.973   5.783   7.205  0.2908 -0.7008  1.8317
44097SOL    HW237103   8.122   5.800   7.182  0.0116  0.2121  0.5596
44098SOL     OW37104   3.186   0.243   8.245 -0.6963  0.0040 -0.1707
44098SOL    HW137105   3.185   0.325   8.295 -0.2389 -0.3832  0.4866
44098SOL    HW237106   3.117   0.190   8.286  0.2028 -0.6148  0.5819
44099SOL     OW37107   4.658   9.597   0.166  0.0491  0.1285 -0.3146
44099SOL    HW137108   4.644   9.628   0.256  0.6961 -0.5347  0.0298
44099SOL    HW237109   4.598   9.523   0.156  2.3004 -2.0366  0.8026
44100SOL     OW37110   7.437   3.797   0.831 -0.4872  0.1947 -0.4037
44100SOL    HW137111   7.366   3.817   0.771 -1.1998 -0.5445  0.1663
44100SOL    HW237112   7.405   3.826   0.917  0.3004  0.7489 -0.2797
44101SOL     OW37113   0.728   1.618   3.981 -0.1852 -0.0754  0.0718
44101SOL    HW137114   0.802   1.642   3.925  0.4341  0.2099  0.9759
44101SOL    HW237115   0.686   1.701   4.003  0.4411 -0.0237  1.1645
44102SOL     OW37116   5.209   8.753   7.529 -0.2815 -0.5521  0.6220
44102SOL    HW137117   5.205   8.677   7.471  1.0975 -0.7800  0.7815
44102SOL    HW237118   5.124   8.795   7.519 -0.2575 -0.8369 -1.2354
44103SOL     OW37119   9.857   8.748   8.810 -0.1837  0.1698  0.7383
44103SOL    HW137120   9.823   8.709   8.729 -0.7571  3.5414 -0.8063
44103SOL    HW237121   9.780   8.753   8.868 -0.3373 -0.0378  0.5551
44104SOL     OW37122   8.599   1.794   1.178 -0.3128  0.3525 -0.1261
44104SOL    HW137123   8.612   1.889   1.180  1.1284  0.1709  0.2770
44104SOL    HW237124   8.620   1.769   1.088 -0.9025  0.4355 -0.2896
44105SOL     OW37125   7.195   1.595   8.646  0.2185 -0.0402  0.1345
44105SOL    HW137126   7.149   1.581   8.729  0.3808  2.3314  0.6972
44105SOL    HW237127   7.185   1.512   8.599 -1.8134 -0.6988  1.5720
44106SOL     OW37128   3.135   2.048   9.920 -0.1377 -0.0075  0.2075
44106SOL    HW137129   3.205   2.093   9.967 -1.6690  2.0031  0.7068
44106SOL    HW237130   3.135   2.087   9.832 -0.7447  0.1622  0.2743
44107SOL     OW37131   3.572   7.540   9.667 -0.0603 -0.3344  0.1349
44107SOL    HW137132   3.577   7.618   9.611  4.3115  1.2679  2.3226
44107SOL    HW237133   3.542   7.573   9.752 -0.9751 -1.6571  0.3599
44108SOL     OW37134   2.333   9.592   2.889  0.1818 -0.5402  0.8270
44108SOL    HW137135   2.408   9.600   2.948  1.3473 -1.4627 -0.4651
44108SOL    HW237136   2.368   9.616   2.803 -0.8763 -1.4771  0.1164
44109SOL     OW37137  11.825   2.084  11.849 -0.2623  0.6461  0.2684
44109SOL    HW137138  11.856   2.173  11.831 -0.2703  0.7796  0.8876
44109SOL    HW237139  11.750   2.097  11.908 -0.9730  0.2877 -0.5289
44110SOL     OW37140   9.360   9.512   2.311  0.2465 -0.1525 -0.1232
44110SOL    HW137141   9.395   9.575   2.248 -0.1056  1.1085  0.8824
44110SOL    HW237142   9.428   9.446   2.321  0.2839 -0.4074 -1.8351
44111SOL     OW37143   7.842   5.764   7.723 -0.4141  0.1756 -0.1396
44111SOL    HW137144   7.842   5.858   7.703 -0.2132  1.2976  4.1306
44111SOL    HW237145   7.757   5.749   7.764  0.8090 -0.6303  2.2709
44112SOL     OW37146  11.325  10.149   2.170 -0.2630  0.4591 -0.3584
44112SOL    HW137147  11.388  10.109   2.110 -0.4685  0.5746 -0.6540
44112SOL    HW237148  11.315  10.238   2.138 -0.7192  0.3832 -0.4340
44113SOL     OW37149  12.164  11.688   5.945  0.4242 -0.0462  0.2381
44113SOL    HW137150  12.074  11.701   5.915 -0.0676 -0.7117  1.3512
44113SOL    HW237151  12.171  11.593   5.957  0.1425  0.2276  3.3903
44114SOL     OW37152  10.301  10.453  12.460 -0.5382  0.2492 -0.4324
44114SOL    HW137153  10.285  10.519  12.394 -2.4294 -1.0392 -1.3471
44114SOL    HW237154  10.216  10.439  12.502  0.3780  0.2523  1.5504
44115SOL     OW37155   9.019   7.117   2.454 -0.9407 -0.1592 -0.0316
44115SOL    HW137156   8.991   7.025   2.459 -0.2763 -0.4259 -0.9079
44115SOL    HW237157   8.939   7.166   2.435 -1.0473 -0.7578 -1.2153
44116SOL     OW37158   5.757   8.722   0.624  0.2784  0.3778  0.7069
44116SOL    HW137159   5.738   8.781   0.698 -0.9807 -1.2159  1.7454
44116SOL    HW237160   5.675   8.720   0.574  0.1051 -0.8829  1.0079
44117SOL     OW37161   3.762  10.397   9.758  0.1513  0.0975 -0.6725
44117SOL    HW137162   3.783  10.337   9.687  1.6543 -0.9268  0.5869
44117SOL    HW237163   3.734  10.341   9.830 -0.3442  1.0514 -0.0949
44118SOL     OW37164   4.784  10.162   1.723 -0.2206 -0.1059 -0.1819
44118SOL    HW137165   4.870  10.197   1.700 -0.0332  0.1169  0.7977
44118SOL    HW237166   4.800  10.070   1.744  0.0353  0.2393  1.2648
44119SOL     OW37167  12.551   7.115   0.410  0.0161 -0.2734  0.3276
44119SOL    HW137168  12.525   7.197   0.452  0.1285  1.6754 -3.0183
44119SOL    HW237169  12.471   7.084   0.367 -0.0584 -2.0897  1.6565
44120SOL     OW37170   0.084   0.266   1.827  0.3541  0.2649 -0.2482
44120SOL    HW137171   0.141   0.207   1.777  0.4477  0.3538 -0.2466
44120SOL    HW237172  -0.004   0.247   1.794  0.3596 -0.0227 -0.1024
44121SOL     OW37173   2.001   6.512   9.607 -0.4086  0.2835  0.0545
44121SOL    HW137174   1.911   6.543   9.608 -0.5338  0.0136 -0.8805
44121SOL    HW237175   2.001   6.441   9.542 -0.3442 -2.3226  2.6921
44122SOL     OW37176   9.990   2.472   6.656 -0.1341 -0.9140 -0.4691
44122SOL    HW137177  10.052   2.435   6.593 -0.5911 -3.5315  0.4972
44122SOL    HW237178  10.021   2.440   6.741  1.5141  3.8986  1.1006
44123SOL     OW37179   2.039   7.967   0.811 -0.2220  0.3591 -0.1319
44123SOL    HW137180   2.044   7.935   0.901 -0.5352  0.0098 -0.2314
44123SOL    HW237181   2.079   8.053   0.813 -1.4045  0.9132  0.6082
44124SOL     OW37182   2.428   6.830   1.129  0.2138  0.2346  0.0124
44124SOL    HW137183   2.502   6.830   1.190  0.3949 -1.5795 -0.1553
44124SOL    HW237184   2.353   6.803   1.183  0.2903 -0.9411 -0.4293
44125SOL     OW37185   0.107   8.311   2.654 -0.1218  0.0841  0.6977
44125SOL    HW137186   0.178   8.247   2.657 -0.0410  0.1833  0.8995
44125SOL    HW237187   0.141   8.384   2.602 -0.2525 -0.0803  0.3740
44126SOL     OW37188  12.031   3.438  11.508 -0.0504  0.1834  0.4307
44126SOL    HW137189  11.963   3.384  11.547  0.6509 -0.7877  0.3403
44126SOL    HW237190  12.112   3.391  11.526  0.6757  1.6170  1.0551
44127SOL     OW37191   0.671   5.950   0.442 -0.0029  0.0720  0.8494
44127SOL    HW137192   0.751   5.903   0.462  0.3332  0.3081  0.0634
44127SOL    HW237193   0.604   5.907   0.495 -0.1015 -2.5478 -1.2244
44128SOL     OW37194   3.072   5.093   2.283  0.0005  0.1225 -0.5458
44128SOL    HW137195   3.118   5.009   2.275 -0.4818 -0.2454  0.4523
44128SOL    HW237196   2.980   5.069   2.290 -0.3240  0.8302 -1.9364
44129SOL     OW37197   6.351   5.587   8.362 -0.6842  0.3895 -0.4438
44129SOL    HW137198   6.296   5.665   8.360 -1.0383  0.1284 -2.3398
44129SOL    HW237199   6.308   5.525   8.304  0.7329 -0.4184 -0.6849
44130SOL     OW37200  11.409   4.636   0.924 -0.0502 -0.3610 -0.4475
44130SOL    HW137201  11.364   4.619   1.007 -2.4930  2.3458 -1.0654
44130SOL    HW237202  11.477   4.699   0.947  0.4952 -1.0097 -0.2450
44131SOL     OW37203   2.706   0.453  10.064 -0.0596 -0.3035  0.4984
44131SOL    HW137204   2.727   0.546  10.072  0.3159 -0.2838 -0.5511
44131SOL    HW237205   2.612   0.451  10.047  0.2594  0.0308 -1.5071
44132SOL     OW37206   4.047   8.537  11.763  0.1311  0.4832  0.2583
44132SOL    HW137207   4.071   8.503  11.677  0.3845 -0.5335  0.7146
44132SOL    HW237208   4.131   8.562  11.803  0.1924 -0.6625  0.8652
44133SOL     OW37209  10.170   4.565   4.386 -0.1142  0.4257  0.5537
44133SOL    HW137210  10.090   4.614   4.367  0.4961  0.7893 -1.3091
44133SOL    HW237211  10.241   4.626   4.364  0.6912  0.1686  2.3188
44134SOL     OW37212  12.488   1.705   3.317 -0.6777 -0.1009 -0.2634
44134SOL    HW137213  12.449   1.665   3.395 -0.1114 -0.1083  0.0212
44134SOL    HW237214  12.466   1.797   3.323 -0.0009  0.0360  0.3106
44135SOL     OW37215   2.942   2.772  11.577 -0.2269 -0.5660  0.5895
44135SOL    HW137216   2.956   2.678  11.564 -1.9543 -0.8930  0.7797
44135SOL    HW237217   2.861   2.776  11.628  0.2040  1.0169  1.1733
44136SOL     OW37218  10.631   8.077   0.038 -0.2694 -0.3492 -0.2722
44136SOL    HW137219  10.645   8.055   0.130 -0.3291  0.5552 -0.0393
44136SOL    HW237220  10.709   8.125   0.012 -1.5226  2.0825  0.1926
44137SOL     OW37221   2.570   7.828  10.013  0.8685 -0.1606 -0.0278
44137SOL    HW137222   2.524   7.911  10.027 -0.8369 -1.3487  1.9584
44137SOL    HW237223   2.597   7.799  10.100 -2.9464 -3.9596  0.2560
44138SOL     OW37224   7.663   3.317  11.123 -0.1909 -0.5494  0.0889
44138SOL    HW137225   7.593   3.379  11.145 -0.4298 -0.5606 -0.5845
44138SOL    HW237226   7.708   3.359  11.049 -0.2114 -1.0745 -0.2220
44139SOL     OW37227   2.183   6.549   3.373  0.2028  0.0385  0.0435
44139SOL    HW137228   2.166   6.580   3.284 -0.9836 -0.1193  0.1876
44139SOL    HW237229   2.114   6.483   3.388  0.4549 -0.0135  1.0339
44140SOL     OW37230   3.989   4.762  10.533  0.9552  0.0761  0.6306
44140SOL    HW137231   4.083   4.778  10.540  0.7528  2.6406 -1.3613
44140SOL    HW237232   3.966   4.788  10.444 -1.8999  1.0524  1.5427
44141SOL     OW37233   8.785   2.526  10.728 -0.0404  0.2675  0.1695
44141SOL    HW137234   8.779   2.573  10.645 -1.3451 -0.1275  0.0190
44141SOL    HW237235   8.780   2.434  10.703 -1.8541  0.1718  0.7561
44142SOL     OW37236   3.228   0.748   7.054 -0.5133 -0.5278  0.0503
44142SOL    HW137237   3.192   0.835   7.039  0.0057 -0.4736 -0.9182
44142SOL    HW237238   3.297   0.738   6.989  0.6199 -0.9886  1.2594
44143SOL     OW37239   4.276  10.984  12.611  0.0320  0.2398  0.5726
44143SOL    HW137240   4.237  10.916  12.666  0.9810 -0.1315  0.8249
44143SOL    HW237241   4.359  11.004  12.655  0.6039  0.2564 -0.4954
44144SOL     OW37242   2.664  10.430   6.818 -0.2756  0.6840  0.9916
44144SOL    HW137243   2.680  10.473   6.734 -1.3997  0.9420  0.8930
44144SOL    HW237244   2.720  10.476   6.880  0.6019  0.4641  0.3940
44145SOL     OW37245   4.422   6.405  10.605  0.5855  0.4886 -0.4919
44145SOL    HW137246   4.471   6.366  10.677 -0.1303  1.2267  0.4058
44145SOL    HW237247   4.416   6.334  10.540 -0.3851 -0.8405  0.9542
44146SOL     OW37248   4.156  11.647  11.586 -0.3337  0.6647  0.0269
44146SOL    HW137249   4.115  11.702  11.519 -2.4198 -0.7055  0.0851
44146SOL    HW237250   4.099  11.655  11.662 -1.4624 -2.3909 -0.3353
44147SOL     OW37251  10.894   8.348   8.450  0.6197  0.4316 -0.0975
44147SOL    HW137252  10.907   8.418   8.387 -0.7395  0.5767 -0.2311
44147SOL    HW237253  10.841   8.388   8.520  0.3571 -0.2927  0.1244
44148SOL     OW37254   6.300   1.130   5.608 -0.1351  0.1042 -0.0862
44148SOL    HW137255   6.300   1.196   5.538  0.1455  0.1625 -0.0338
44148SOL    HW237256   6.392   1.123   5.634 -0.0675 -0.7646 -0.5197
44149SOL     OW37257   8.310   2.895   2.853 -0.1968  0.0740  0.5256
44149SOL    HW137258   8.222   2.894   2.818  0.1710 -1.5763 -0.4536
44149SOL    HW237259   8.305   2.953   2.930 -1.7091  1.3177 -0.4584
44150SOL     OW37260  11.240  10.645   4.683 -0.4098 -0.0462 -0.1244
44150SOL    HW137261  11.251  10.550   4.678  0.7734  0.0704 -0.0664
44150SOL    HW237262  11.290  10.678   4.608 -0.4643  0.5504  0.0977
44151SOL     OW37263  11.441   0.163  10.404  0.1922  0.0192  0.5680
44151SOL    HW137264  11.504   0.226  10.439 -0.5648  1.9398 -1.2853
44151SOL    HW237265  11.367   0.217  10.375 -0.9071 -1.8328 -0.2201
44152SOL     OW37266   4.624   5.380   4.591 -0.4768 -0.0387  0.3309
44152SOL    HW137267   4.704   5.429   4.614  0.5298 -0.5918 -1.7831
44152SOL    HW237268   4.633   5.297   4.638  0.3597 -0.2210 -0.1348
44153SOL     OW37269   2.260   8.073  12.302 -0.2838 -0.1038  0.1080
44153SOL    HW137270   2.282   7.982  12.323 -2.0484 -0.6456 -0.2488
44153SOL    HW237271   2.185   8.066  12.244  0.6913  1.5456 -1.4453
44154SOL     OW37272   9.713   1.346   7.201 -0.3490  0.6068 -0.0844
44154SOL    HW137273   9.783   1.315   7.143 -0.7514 -1.7763  0.6048
44154SOL    HW237274   9.688   1.431   7.165 -0.9730 -0.9745 -3.7860
44155SOL     OW37275   8.943   9.902   5.407 -0.3321  0.4281  0.6045
44155SOL    HW137276   8.852   9.931   5.411 -0.4761  0.1031 -0.1079
44155SOL    HW237277   8.994   9.982   5.422 -0.7287  0.8972 -0.4649
44156SOL     OW37278   3.572   0.328  10.197  0.3332  0.2184  0.0606
44156SOL    HW137279   3.668   0.327  10.199  0.5932  2.8048 -3.0796
44156SOL    HW237280   3.549   0.417  10.222 -1.1319  0.1428 -0.9424
44157SOL     OW37281   2.065   8.981   8.213 -0.3430  0.0229 -0.2519
44157SOL    HW137282   2.158   8.999   8.198 -0.3838 -0.8593 -1.8384
44157SOL    HW237283   2.064   8.900   8.264 -0.2219  0.0100 -0.2689
44158SOL     OW37284   7.141   8.469   4.903  0.3965 -0.0739 -0.5430
44158SOL    HW137285   7.182   8.382   4.905  0.3775 -0.0746  1.5868
44158SOL    HW237286   7.052   8.454   4.934  0.1280  0.5922 -0.9792
44159SOL     OW37287   8.602   3.876   9.266  0.6032 -0.2065 -0.2621
44159SOL    HW137288   8.595   3.791   9.310 -1.0312 -0.0775 -0.2187
44159SOL    HW237289   8.618   3.855   9.174  2.7168 -0.4969  0.1314
44160SOL     OW37290   2.337   6.224   8.844  0.1068  0.1672  0.3674
44160SOL    HW137291   2.385   6.169   8.906  0.3757  1.3678  1.2773
44160SOL    HW237292   2.245   6.202   8.860  0.2169 -0.1006  0.6500
44161SOL     OW37293   5.707   8.435   7.763 -0.8085  0.0040  0.3568
44161SOL    HW137294   5.631   8.461   7.815 -1.4658  1.9214 -1.4246
44161SOL    HW237295   5.671   8.415   7.677  0.3869 -1.9347  0.2420
44162SOL     OW37296   8.418   7.742   6.014  0.2346  0.6566  0.5443
44162SOL    HW137297   8.440   7.755   6.106  0.5624  0.1433  0.5416
44162SOL    HW237298   8.325   7.719   6.014  0.6389 -1.0650  0.9081
44163SOL     OW37299   5.314   3.949   5.499  0.1591  0.1692 -0.1146
44163SOL    HW137300   5.382   3.892   5.535  0.1864  0.9680  1.1563
44163SOL    HW237301   5.346   3.972   5.411  1.5179  0.4842  0.4336
44164SOL     OW37302  11.444   4.791   6.641  0.2836  0.3143  0.3321
44164SOL    HW137303  11.358   4.788   6.600 -0.2983  0.7632  1.4884
44164SOL    HW237304  11.429   4.769   6.733  1.5844 -0.8586  0.3033
44165SOL     OW37305   3.902   2.122   8.519 -0.1061 -0.1562 -0.3678
44165SOL    HW137306   3.966   2.159   8.580 -0.6535  0.7402 -0.3171
44165SOL    HW237307   3.879   2.195   8.462 -0.0901 -0.8154 -1.2468
44166SOL     OW37308  10.152   1.424   2.234 -0.7601  0.2010  0.3097
44166SOL    HW137309  10.090   1.415   2.306  0.3362 -1.3226  1.1233
44166SOL    HW237310  10.213   1.491   2.263  0.6264 -1.5184  1.5935
44167SOL     OW37311  11.666   0.983   8.378 -0.0223 -0.2349  0.1973
44167SOL    HW137312  11.727   1.011   8.309 -0.0423 -0.2638  0.1688
44167SOL    HW237313  11.703   1.020   8.458  0.1792 -0.4779  0.2191
44168SOL     OW37314   2.429   1.950   0.850  0.2434  0.5920 -0.1941
44168SOL    HW137315   2.520   1.974   0.837 -0.3903  4.2539  0.8431
44168SOL    HW237316   2.403   1.998   0.929 -2.9031  0.7909 -1.2162
44169SOL     OW37317   9.276   0.013   5.577 -0.0181 -0.0120 -0.2860
44169SOL    HW137318   9.297   0.049   5.491  0.2813  1.0123  0.2042
44169SOL    HW237319   9.248   0.088   5.629 -0.3762 -0.6459  0.4635
44170SOL     OW37320  11.302   0.221   4.729 -0.1285 -0.5404  0.4559
44170SOL    HW137321  11.216   0.262   4.740 -0.7008 -1.9249  1.3537
44170SOL    HW237322  11.363   0.279   4.775 -0.3252  1.1758 -1.3258
44171SOL     OW37323   4.597   5.426   7.128 -0.1779 -0.3664  0.3885
44171SOL    HW137324   4.616   5.426   7.034 -1.1457  0.5056  0.1660
44171SOL    HW237325   4.566   5.338   7.147  0.6840 -0.7508  0.0390
44172SOL     OW37326  11.881   6.197  11.888 -0.6263  0.1900 -0.2420
44172SOL    HW137327  11.915   6.283  11.912  0.2810 -0.4814  1.0088
44172SOL    HW237328  11.952   6.158  11.836 -0.1590 -0.5552  0.9153
44173SOL     OW37329   1.177   5.515   7.124 -0.3636  0.5212  0.6311
44173SOL    HW137330   1.159   5.607   7.143  0.1843  0.3170  2.2514
44173SOL    HW237331   1.203   5.477   7.208 -1.3030 -1.3020  0.1546
44174SOL     OW37332   8.451   1.084   9.436 -0.0825 -0.6813  0.4546
44174SOL    HW137333   8.456   0.989   9.446  0.1521 -0.7594 -0.3539
44174SOL    HW237334   8.476   1.101   9.345 -0.0714  0.1609  0.5990
44175SOL     OW37335   1.302   0.070   0.521 -0.2741  0.2344 -0.0196
44175SOL    HW137336   1.278   0.107   0.606 -1.6550 -0.7259  0.0558
44175SOL    HW237337   1.349  -0.010   0.542 -0.2373  0.2187 -0.1594
44176SOL     OW37338  12.071   6.845   9.002  0.3849 -0.5060  0.4896
44176SOL    HW137339  12.076   6.762   8.954  0.0487 -0.5454  0.5270
44176SOL    HW237340  12.027   6.905   8.942  0.0128 -0.5400  0.7265
44177SOL     OW37341   7.817   5.892   6.512 -0.6857  0.0787 -0.5583
44177SOL    HW137342   7.761   5.933   6.446 -1.1681  0.4200  0.0487
44177SOL    HW237343   7.782   5.803   6.522 -0.3277 -0.1231 -1.0852
44178SOL     OW37344   1.128  11.076   5.955 -0.6724  0.2360 -1.0617
44178SOL    HW137345   1.169  10.992   5.979 -0.4152  0.5935 -0.1953
44178SOL    HW237346   1.034  11.061   5.970 -0.5138  0.4605  0.2655
44179SOL     OW37347   0.142   2.102   5.777  0.1904 -0.3530 -0.4524
44179SOL    HW137348   0.172   2.141   5.694  0.0775 -0.6501 -0.6353
44179SOL    HW237349   0.062   2.055   5.753 -0.6603  0.7645  0.1065
44180SOL     OW37350   2.358  12.618  10.479  0.7030  0.5266  0.2115
44180SOL    HW137351   2.326  12.536  10.443 -0.5397 -0.4166  3.1299
44180SOL    HW237352   2.446  12.598  10.512 -0.1766 -0.1884  2.3084
44181SOL     OW37353   9.520   8.311   4.443  0.4626  0.3774 -0.1907
44181SOL    HW137354   9.456   8.353   4.501  0.1006  0.4290 -0.6287
44181SOL    HW237355   9.526   8.222   4.476  1.3222  0.7829  0.8176
44182SOL     OW37356   9.979   6.682   3.887 -0.7799  0.0151 -0.7656
44182SOL    HW137357  10.020   6.606   3.928 -0.3495 -0.6661 -2.3527
44182SOL    HW237358   9.910   6.708   3.947  0.7298 -0.0013  1.0722
44183SOL     OW37359   1.050   5.582   0.601 -0.4036  0.0836  0.6050
44183SOL    HW137360   1.129   5.618   0.562 -0.7952  0.3768  0.0730
44183SOL    HW237361   1.078   5.553   0.688  0.8506 -2.0437 -0.4281
44184SOL     OW37362   3.872  10.695   1.588 -0.0824 -0.4168 -0.2728
44184SOL    HW137363   3.817  10.646   1.526 -1.3898  0.3643  0.2401
44184SOL    HW237364   3.899  10.773   1.539 -0.1066 -0.3971 -0.2540
44185SOL     OW37365   0.186   0.965   6.524  0.4218 -0.4144  0.4219
44185SOL    HW137366   0.232   0.882   6.515 -0.6807 -0.8431 -1.9379
44185SOL    HW237367   0.094   0.944   6.510  0.1829  1.2601 -0.9225
44186SOL     OW37368   4.036   3.141   7.291  0.4362 -0.4885 -0.2584
44186SOL    HW137369   3.977   3.198   7.340  1.0911 -0.0568  0.0466
44186SOL    HW237370   4.001   3.142   7.202  0.1592  0.0050 -0.1529
44187SOL     OW37371   6.855   0.294   6.533 -0.2479  0.3166  0.4306
44187SOL    HW137372   6.777   0.263   6.487 -0.9442  1.1479  1.0215
44187SOL    HW237373   6.859   0.241   6.613  1.4474 -1.7360 -0.8969
44188SOL     OW37374   1.890  12.630   3.771 -0.5471  1.0615 -0.5116
44188SOL    HW137375   1.886  12.603   3.680 -0.5255 -0.3350 -0.1276
44188SOL    HW237376   1.933  12.715   3.769  0.4967  0.5490 -1.7294
44189SOL     OW37377   3.425   2.833   2.323  0.7575  0.1028 -0.7429
44189SOL    HW137378   3.461   2.832   2.412  0.5806  0.0543 -0.6698
44189SOL    HW237379   3.331   2.849   2.336  1.3373  5.6365 -1.1101
44190SOL     OW37380   2.645   4.222   6.292 -0.4805 -0.1113 -0.2863
44190SOL    HW137381   2.631   4.173   6.211  1.4945 -1.0970 -0.0955
44190SOL    HW237382   2.647   4.314   6.264 -0.4664 -0.3958 -1.2502
44191SOL     OW37383  10.809   5.838   7.439  0.4097 -0.5061 -0.0523
44191SOL    HW137384  10.838   5.761   7.489 -0.1950  0.0723  1.2433
44191SOL    HW237385  10.837   5.913   7.491  1.9287  0.2321 -1.8301
44192SOL     OW37386   0.749   1.624   0.585 -0.4519  0.1885 -0.1008
44192SOL    HW137387   0.805   1.560   0.629 -0.9726 -2.1888 -2.6648
44192SOL    HW237388   0.662   1.608   0.621 -0.3186  0.6514  0.4542
44193SOL     OW37389   4.911   8.126   1.393 -0.1661  0.1611  0.1704
44193SOL    HW137390   4.975   8.096   1.457 -0.5242 -2.1231 -0.4426
44193SOL    HW237391   4.952   8.108   1.308 -1.6655 -1.6948 -0.2426
44194SOL     OW37392   8.058   5.478   0.770  0.4237  0.4553  0.2919
44194SOL    HW137393   7.967   5.500   0.749  0.3616  0.6587  0.7580
44194SOL    HW237394   8.077   5.402   0.714  0.7109  1.7654 -1.4543
44195SOL     OW37395   6.923   1.216   9.523  0.5428 -0.1358  0.1173
44195SOL    HW137396   6.972   1.289   9.486  1.0265 -0.4623  0.0969
44195SOL    HW237397   6.946   1.216   9.616 -0.3666  0.4466  0.3545
44196SOL     OW37398   3.706   8.390  12.189 -0.0827  0.2173  0.4978
44196SOL    HW137399   3.762   8.392  12.111  1.7803  1.2869  1.7871
44196SOL    HW237400   3.749   8.327  12.247  0.9707  2.4240  2.2638
44197SOL     OW37401   5.994  10.308  10.421  1.0180  0.7000 -0.0302
44197SOL    HW137402   6.065  10.256  10.384  0.2131  0.0597 -0.7116
44197SOL    HW237403   5.919  10.291  10.364 -0.2324 -0.1988  1.7919
44198SOL     OW37404   3.176   1.954   8.382 -0.2308 -0.5403  0.2099
44198SOL    HW137405   3.148   1.863   8.393  1.1712 -1.0034  0.1189
44198SOL    HW237406   3.176   1.991   8.470  1.3127 -1.2948  0.5554
44199SOL     OW37407   6.064   3.918   9.021 -0.1390 -0.2941 -0.2724
44199SOL    HW137408   6.127   3.868   8.970  1.6774  0.4754  1.0990
44199SOL    HW237409   6.084   4.010   9.001 -0.8119 -0.0280  0.2129
44200SOL     OW37410   3.056   1.150   1.351 -0.0734 -0.3763 -0.3612
44200SOL    HW137411   2.987   1.207   1.317 -0.7301 -1.4759 -0.9204
44200SOL    HW237412   3.132   1.169   1.296  0.1915  1.0431  0.4342
44201SOL     OW37413   1.219   9.009   3.964 -0.3293  0.2184  0.3511
44201SOL    HW137414   1.291   9.053   3.920  0.6287 -0.9219  0.7375
44201SOL    HW237415   1.145   9.018   3.904  0.7986 -0.8222 -1.2616
44202SOL     OW37416  12.244   4.357   2.948  0.1618 -0.4460 -0.5828
44202SOL    HW137417  12.240   4.366   3.044 -1.1540  2.9988 -0.8321
44202SOL    HW237418  12.287   4.437   2.918 -0.5030 -0.9042 -2.9631
44203SOL     OW37419   2.659   0.404   4.843  0.2781 -0.3470 -0.1057
44203SOL    HW137420   2.729   0.433   4.903  0.0154  0.8380 -0.3496
44203SOL    HW237421   2.698   0.332   4.795  1.0023 -0.3503  0.4604
44204SOL     OW37422   8.583   5.352   8.064  0.3852  0.1362  0.4114
44204SOL    HW137423   8.643   5.285   8.096 -1.2511 -1.6243 -0.0138
44204SOL    HW237424   8.601   5.358   7.970  0.7527  0.5605  0.5032
44205SOL     OW37425   0.960  10.750   8.318  0.5487 -0.1113  0.0487
44205SOL    HW137426   0.976  10.756   8.223 -3.3622 -2.3264 -1.0199
44205SOL    HW237427   0.992  10.663   8.342  0.1469 -0.1713  0.3821
44206SOL     OW37428   4.390   5.020   4.056  0.1087 -0.1961 -0.6925
44206SOL    HW137429   4.462   5.005   3.995  0.8627  2.1122 -0.4717
44206SOL    HW237430   4.431   5.061   4.132 -1.2793  0.0294 -0.0352
44207SOL     OW37431   9.397   9.548   9.483  0.4227  0.1232 -0.2760
44207SOL    HW137432   9.379   9.565   9.391  0.3322 -0.4948 -0.3810
44207SOL    HW237433   9.443   9.464   9.483  1.3001  0.5920  0.1689
44208SOL     OW37434   2.440   5.673   8.019  0.3418 -0.3748  0.5353
44208SOL    HW137435   2.455   5.741   8.085  0.3372 -0.2312  0.3897
44208SOL    HW237436   2.349   5.648   8.031  0.6022 -1.0288  1.2196
44209SOL     OW37437   0.736   7.208   4.993 -0.0516  0.6700  0.1256
44209SOL    HW137438   0.716   7.134   5.050  0.5153  0.5848  0.2265
44209SOL    HW237439   0.830   7.200   4.976 -0.0075  1.3085  0.0530
44210SOL     OW37440  10.942   5.274   6.116  0.5501  0.4168  0.0466
44210SOL    HW137441  10.926   5.284   6.022  1.5150  1.5657 -0.0102
44210SOL    HW237442  10.959   5.180   6.127 -1.7549 -0.1522 -0.5328
44211SOL     OW37443   4.249  11.061   7.304  0.0661 -0.0132 -0.0252
44211SOL    HW137444   4.336  11.101   7.309 -0.2572  0.9039 -1.2378
44211SOL    HW237445   4.261  10.974   7.343  2.0266 -0.7278 -1.9803
44212SOL     OW37446   4.739  11.572  10.258  0.4779 -0.3048  0.5564
44212SOL    HW137447   4.822  11.531  10.282  1.8929  1.4729 -1.0233
44212SOL    HW237448   4.747  11.591  10.165 -2.1526 -0.9651  0.0965
44213SOL     OW37449   5.513   4.710   5.422 -0.1160 -0.2446 -0.8087
44213SOL    HW137450   5.474   4.651   5.486  3.2069 -1.7548  0.0611
44213SOL    HW237451   5.493   4.670   5.337 -2.5862  0.5309 -0.6793
44214SOL     OW37452  10.801   5.583   8.520  0.1859  0.1030 -0.3240
44214SOL    HW137453  10.766   5.513   8.466 -0.2681  0.6098 -0.6943
44214SOL    HW237454  10.882   5.547   8.557 -1.4101 -1.5911  1.6955
44215SOL     OW37455   0.926   5.960  11.696  0.0671  0.1450  0.3635
44215SOL    HW137456   1.011   5.940  11.659  0.1833  0.4834  0.4431
44215SOL    HW237457   0.919   6.055  11.691 -0.6133  0.0713 -0.3194
44216SOL     OW37458   7.012   5.529   5.090  1.0285 -0.0484  0.8758
44216SOL    HW137459   7.064   5.497   5.016 -0.2852 -0.0689 -0.0739
44216SOL    HW237460   6.926   5.491   5.077  0.4345  0.9437  1.7554
44217SOL     OW37461   7.348   3.880  11.558 -0.1335 -0.4219 -0.6181
44217SOL    HW137462   7.254   3.899  11.548 -0.2773 -0.1358  0.9263
44217SOL    HW237463   7.376   3.937  11.630  1.8720  1.4357 -2.7155
44218SOL     OW37464  12.622   4.622   9.310 -0.4773 -0.9539 -0.3849
44218SOL    HW137465  12.706   4.650   9.273  0.0863  0.5129  1.7852
44218SOL    HW237466  12.645   4.551   9.370 -1.0422 -1.6713 -1.0006
44219SOL     OW37467  11.414  11.152   9.806 -0.0444  0.0521 -0.2406
44219SOL    HW137468  11.341  11.214   9.810 -1.0150 -1.0979  1.0455
44219SOL    HW237469  11.410  11.115   9.718 -0.7804  0.2790 -0.3072
44220SOL     OW37470   9.856   7.624   8.436  0.6279  0.2280  0.0816
44220SOL    HW137471   9.916   7.575   8.380 -1.2078  0.3345 -2.1246
44220SOL    HW237472   9.893   7.712   8.439  3.1865 -0.7726  2.9239
44221SOL     OW37473   0.947   2.115   1.083  0.3549  0.0516 -0.1525
44221SOL    HW137474   0.931   2.021   1.087  3.5552 -0.5776  0.8575
44221SOL    HW237475   0.892   2.146   1.011  1.9457 -3.2643 -3.1019
44222SOL     OW37476   0.771  10.075   2.020 -0.3860 -0.0399  0.2420
44222SOL    HW137477   0.682  10.092   2.053 -0.5793  1.9754 -1.1357
44222SOL    HW237478   0.817  10.037   2.095 -2.3972 -1.1913  0.9754
44223SOL     OW37479   2.632   6.554   1.462 -0.2466  0.6119  0.1650
44223SOL    HW137480   2.579   6.548   1.383 -0.1307  2.4736 -0.0963
44223SOL    HW237481   2.630   6.647   1.485  0.9559  0.3396  1.4984
44224SOL     OW37482   9.673   2.137   3.417  0.1327  0.0441  0.1473
44224SOL    HW137483   9.640   2.139   3.327  2.8100  2.4663 -0.9276
44224SOL    HW237484   9.609   2.188   3.467  0.6773  2.2619 -1.2875
44225SOL     OW37485  10.017   3.761  12.443 -0.4228  0.1941  0.8184
44225SOL    HW137486  10.072   3.835  12.420 -1.3791  0.3840 -1.0446
44225SOL    HW237487  10.056   3.686  12.399  0.0247 -0.2635  1.9545
44226SOL     OW37488   0.897   5.376   2.706  1.0435  0.4145  0.9431
44226SOL    HW137489   0.903   5.463   2.669 -0.6896 -0.2951 -1.2177
44226SOL    HW237490   0.962   5.325   2.659  0.4801  0.0383  0.5631
44227SOL     OW37491   0.615   8.748   0.854  0.4024  0.4300 -0.1975
44227SOL    HW137492   0.609   8.841   0.833  3.4775  0.5413 -0.9631
44227SOL    HW237493   0.587   8.704   0.774  1.8095  0.7489 -0.8790
44228SOL     OW37494   7.397   1.402   3.820 -0.0649 -0.2633  0.0167
44228SOL    HW137495   7.398   1.395   3.915 -1.1080  0.5163  0.0984
44228SOL    HW237496   7.304   1.405   3.797  0.0728 -2.8094 -1.2284
44229SOL     OW37497   5.633   2.677  10.385  0.1213 -0.1353 -0.4656
44229SOL    HW137498   5.561   2.640  10.334  0.7283 -2.5121  0.2485
44229SOL    HW237499   5.591   2.714  10.463 -0.4427 -0.3665 -0.6534
44230SOL     OW37500  10.573   7.493  10.339 -0.6985  0.0395 -0.6038
44230SOL    HW137501  10.653   7.492  10.392 -0.6236 -0.2361 -0.7254
44230SOL    HW237502  10.545   7.585  10.341 -0.0029  0.2672 -1.1348
44231SOL     OW37503   4.832   1.601   1.582 -0.3942 -0.5411  0.1734
44231SOL    HW137504   4.778   1.632   1.654  0.2304  0.1055  0.3727
44231SOL    HW237505   4.771   1.589   1.509 -1.0069 -1.0755  0.7636
44232SOL     OW37506   4.240   9.920   0.169  0.1106  0.2670 -0.4494
44232SOL    HW137507   4.179   9.911   0.242  2.9774 -0.1679  2.1107
44232SOL    HW237508   4.251  10.015   0.158  0.5529  0.3515  0.5725
44233SOL     OW37509   8.577   3.684   2.618  0.6840  0.6180  0.2306
44233SOL    HW137510   8.524   3.622   2.667  1.3200  0.3923  0.6505
44233SOL    HW237511   8.556   3.769   2.656 -0.1029  0.6565 -0.2685
44234SOL     OW37512   6.288   3.208   8.512 -0.1610 -0.2548  0.4140
44234SOL    HW137513   6.256   3.246   8.430  0.8484 -0.0720  0.0967
44234SOL    HW237514   6.351   3.272   8.545 -1.5014  0.3098  2.0292
44235SOL     OW37515  10.502   4.726   0.811  0.0162  0.3250  0.4347
44235SOL    HW137516  10.413   4.761   0.813 -0.9546 -1.8810 -0.3696
44235SOL    HW237517  10.537   4.755   0.727 -0.5332 -0.0584  0.0655
44236SOL     OW37518   6.987  12.391   1.009 -0.4682  0.1462  0.3645
44236SOL    HW137519   6.992  12.474   0.962 -0.3435 -0.3466 -0.5135
44236SOL    HW237520   7.005  12.414   1.101 -1.0460  1.1697  0.2368
44237SOL     OW37521   1.142   7.062   8.990 -0.1533 -0.2833  0.6957
44237SOL    HW137522   1.178   6.974   8.978 -0.2035 -0.3997  1.3296
44237SOL    HW237523   1.202   7.105   9.051  1.1423  0.9245 -1.3362
44238SOL     OW37524   3.767   1.352   7.505 -0.0996 -0.3382 -0.2433
44238SOL    HW137525   3.755   1.313   7.591  0.8249  0.9603  0.5187
44238SOL    HW237526   3.855   1.391   7.509 -0.1482 -0.0291 -1.6824
44239SOL     OW37527   7.917   1.080   2.391  0.4583  0.1854  0.2751
44239SOL    HW137528   7.987   1.047   2.449  0.3384  0.2629  0.4644
44239SOL    HW237529   7.836   1.048   2.431  0.4205 -0.4530 -0.3016
44240SOL     OW37530   4.134   7.520   4.434  0.0206  0.7588 -0.4717
44240SOL    HW137531   4.208   7.471   4.400 -0.4014  0.6998 -1.3357
44240SOL    HW237532   4.170   7.572   4.506  0.6317 -0.2186 -0.0508
44241SOL     OW37533   9.545   3.775  12.178 -0.1218  0.0887  0.2661
44241SOL    HW137534   9.587   3.848  12.132 -4.7789  0.9846 -3.2395
44241SOL    HW237535   9.517   3.813  12.261  1.6864  0.7790  0.6114
44242SOL     OW37536   2.305   4.886   2.739 -0.4702 -0.2221 -0.0476
44242SOL    HW137537   2.356   4.813   2.774 -0.9471 -0.1360  0.8786
44242SOL    HW237538   2.237   4.845   2.686  2.0194 -0.2759 -3.5447
44243SOL     OW37539   3.965   9.862  11.229 -0.1197  0.3454  0.0618
44243SOL    HW137540   3.932   9.857  11.140  0.4719 -1.8484 -0.1042
44243SOL    HW237541   4.060   9.866  11.219 -0.1170  2.1656  0.5909
44244SOL     OW37542   5.888  10.842   9.696  0.3612  0.3393 -0.1443
44244SOL    HW137543   5.795  10.851   9.673  0.3117  1.4815  0.4010
44244SOL    HW237544   5.889  10.847   9.792  1.0620  1.2763 -0.1885
44245SOL     OW37545   8.231   4.496   8.762 -0.7212  0.1692  0.1431
44245SOL    HW137546   8.314   4.483   8.716 -1.7999 -0.0186 -1.8681
44245SOL    HW237547   8.167   4.506   8.692 -2.7965 -2.0999  1.5684
44246SOL     OW37548  11.258   1.964  10.091  0.1093  0.0409 -0.3285
44246SOL    HW137549  11.235   1.901  10.022  0.7468  0.2280 -0.7129
44246SOL    HW237550  11.263   1.911  10.171  1.3555 -0.5285 -0.7734
44247SOL     OW37551   2.565   2.673   8.661  0.0725 -0.0001 -0.8171
44247SOL    HW137552   2.570   2.655   8.755  1.3794  2.0189 -0.4500
44247SOL    HW237553   2.471   2.681   8.643 -0.1321  1.9305  0.8261
44248SOL     OW37554   5.169   9.652   0.723  0.2000 -0.6428  0.6987
44248SOL    HW137555   5.175   9.638   0.817  0.3358 -3.2025  0.3933
44248SOL    HW237556   5.075   9.652   0.704  0.1894 -1.1716  0.7318
44249SOL     OW37557   7.756   5.848   8.287 -0.3834  0.2073  0.0360
44249SOL    HW137558   7.676   5.806   8.256 -0.6730  0.2615  0.6935
44249SOL    HW237559   7.827   5.796   8.250 -0.7134  0.3105 -0.7650
44250SOL     OW37560   1.873  12.281   3.447  0.6559  0.4415  0.0601
44250SOL    HW137561   1.795  12.229   3.427  0.9851  0.4192 -1.2659
44250SOL    HW237562   1.866  12.300   3.541 -1.0683  0.6361 -0.0687
44251SOL     OW37563   4.453   2.176   9.063 -0.1263 -0.2647  0.6431
44251SOL    HW137564   4.403   2.109   9.108  1.5721 -1.8482  0.2555
44251SOL    HW237565   4.493   2.228   9.133 -1.3505  0.3297  0.9382
44252SOL     OW37566  12.594   0.524   3.118  0.4447  0.7152  0.5292
44252SOL    HW137567  12.500   0.541   3.113  0.0437 -0.8601  1.8434
44252SOL    HW237568  12.624   0.580   3.191  0.2329  0.1175  1.0798
44253SOL     OW37569   6.157   4.101   5.119  0.1186  0.1440  0.0119
44253SOL    HW137570   6.103   4.155   5.061 -0.2905 -0.2213  0.0459
44253SOL    HW237571   6.176   4.022   5.068  2.2152  1.0459 -0.7186
44254SOL     OW37572   1.191   4.206   2.245  0.4115 -0.1609 -0.0754
44254SOL    HW137573   1.175   4.132   2.304  0.7822  2.0539  3.0326
44254SOL    HW237574   1.284   4.201   2.225  0.5518 -0.2215  0.5777
44255SOL     OW37575   9.625   5.943   4.222  0.3481 -0.1190  0.0042
44255SOL    HW137576   9.630   5.853   4.257 -0.3057 -0.2240 -0.1737
44255SOL    HW237577   9.647   5.934   4.130  0.3427 -0.0831 -0.0004
44256SOL     OW37578   5.270   5.641   8.729 -0.6045  0.6617 -0.4508
44256SOL    HW137579   5.239   5.552   8.713  0.3867 -0.0333  1.1774
44256SOL    HW237580   5.221   5.669   8.806 -1.1400  1.6620 -1.1423
44257SOL     OW37581   2.228   8.473  11.184  0.6666  0.4680  0.2841
44257SOL    HW137582   2.297   8.413  11.211 -0.5071 -2.1647 -2.0250
44257SOL    HW237583   2.243   8.486  11.090 -1.4681  0.4335 -0.1221
44258SOL     OW37584  11.803   4.344   1.314  0.0424 -0.3485  0.1505
44258SOL    HW137585  11.714   4.318   1.336 -0.2349 -0.1021 -0.6135
44258SOL    HW237586  11.799   4.362   1.220  0.5311  1.1197  0.3841
44259SOL     OW37587   3.171   2.411  12.531 -0.2615  0.4122 -0.0325
44259SOL    HW137588   3.186   2.321  12.500  2.2591 -0.0971  2.2583
44259SOL    HW237589   3.080   2.411  12.559 -0.1617 -1.6671  0.4980
44260SOL     OW37590   1.647   9.688   7.475  0.6918 -0.4608  0.4900
44260SOL    HW137591   1.617   9.662   7.388 -0.4063  1.4115  0.2471
44260SOL    HW237592   1.566   9.697   7.526  0.9930  1.9901  0.6263
44261SOL     OW37593   2.755   8.587  10.875  0.0751  0.1068  0.4352
44261SOL    HW137594   2.821   8.656  10.877  0.0657  0.1121  0.8148
44261SOL    HW237595   2.806   8.506  10.868  0.3104 -0.0756  3.0991
44262SOL     OW37596   6.080   2.866  12.635 -0.1913  0.1232 -0.0417
44262SOL    HW137597   6.094   2.779  12.672 -0.5394 -0.0971 -0.4129
44262SOL    HW237598   6.140   2.869  12.560  0.0949  0.3464  0.1975
44263SOL     OW37599   5.836   6.145   1.876  0.1505  0.0127 -0.0940
44263SOL    HW137600   5.754   6.106   1.847  0.0420 -0.7036  1.1172
44263SOL    HW237601   5.902   6.078   1.859  0.2533  0.0127  0.3041
44264SOL     OW37602   2.127   6.228   0.802 -0.5584  0.0845  0.0983
44264SOL    HW137603   2.132   6.298   0.737 -0.7647 -1.2096 -1.3402
44264SOL    HW237604   2.219   6.204   0.818 -0.5117  0.3558  0.2557
44265SOL     OW37605   2.439   1.164   4.488  0.2035 -0.5480  0.2247
44265SOL    HW137606   2.437   1.148   4.394  1.7121 -0.7529  0.2153
44265SOL    HW237607   2.531   1.161   4.512  0.0225  1.3562  1.4007
44266SOL     OW37608   0.702   9.471   2.766  0.5927  0.1888  0.4317
44266SOL    HW137609   0.668   9.504   2.683  1.3600  0.1179  0.0845
44266SOL    HW237610   0.756   9.541   2.801 -0.6845  0.6939  1.4815
44267SOL     OW37611   4.562   5.269  10.855 -0.4715  0.4284 -0.1651
44267SOL    HW137612   4.618   5.239  10.927 -0.0962 -1.7567 -1.2617
44267SOL    HW237613   4.563   5.196  10.793 -1.1378  2.0466 -2.1908
44268SOL     OW37614  12.379  10.782  12.273  0.1262  0.0471  0.0947
44268SOL    HW137615  12.344  10.847  12.211  0.2731 -1.3127 -1.4834
44268SOL    HW237616  12.358  10.698  12.233  0.9726 -0.8713  1.5192
44269SOL     OW37617   8.729   0.141   6.548 -0.0600 -0.0098 -0.0761
44269SOL    HW137618   8.690   0.074   6.493 -1.1987  1.7036 -1.4656
44269SOL    HW237619   8.716   0.223   6.499  1.3427  1.2210  1.4933
44270SOL     OW37620   1.587   2.799   0.896  0.3420  0.3836 -0.1784
44270SOL    HW137621   1.606   2.708   0.917 -0.4140  0.3814  0.5879
44270SOL    HW237622   1.670   2.845   0.908  0.8678 -0.2854 -1.1413
44271SOL     OW37623   0.288   8.019   6.517 -0.2790  0.1919  0.8290
44271SOL    HW137624   0.231   8.091   6.489 -2.1508 -1.6001 -0.3039
44271SOL    HW237625   0.229   7.944   6.524  1.5201 -1.1637  2.3455
44272SOL     OW37626   1.239   6.542   0.200  0.0478  0.0751  0.2212
44272SOL    HW137627   1.308   6.512   0.260  0.2471  0.8494  0.3870
44272SOL    HW237628   1.183   6.465   0.187 -0.1122 -0.0523  1.5569
44273SOL     OW37629   2.840   7.504   6.864 -0.2812  0.0347 -0.1912
44273SOL    HW137630   2.763   7.454   6.838  0.0715 -1.7687  1.9111
44273SOL    HW237631   2.806   7.572   6.922 -0.2819 -1.4560  1.6569
44274SOL     OW37632   9.403   9.513  11.161  0.2328 -0.0535  0.3234
44274SOL    HW137633   9.464   9.587  11.167 -0.7933  0.8019  0.6774
44274SOL    HW237634   9.347   9.535  11.085  0.5346 -0.9623 -0.1714
44275SOL     OW37635   9.344   9.696  10.807 -0.2052  0.6192  0.0901
44275SOL    HW137636   9.276   9.685  10.874  0.3596 -0.5136  0.4993
44275SOL    HW237637   9.320   9.777  10.762 -1.6956  0.3745  0.3831
44276SOL     OW37638   0.452   1.449   8.787  0.2822  0.2414 -0.5293
44276SOL    HW137639   0.423   1.390   8.718 -0.1409 -0.7976  0.4924
44276SOL    HW237640   0.443   1.398   8.868 -0.6575  1.8795  0.4736
44277SOL     OW37641   8.502   5.543   4.717 -0.4490  0.2025  0.3687
44277SOL    HW137642   8.529   5.483   4.787 -0.3593 -0.3603 -0.1420
44277SOL    HW237643   8.507   5.629   4.757  0.1337 -0.0664  0.8986
44278SOL     OW37644   5.250   6.535   0.898 -0.0801 -0.1140  0.0837
44278SOL    HW137645   5.192   6.572   0.964  0.2108  1.8039 -0.6967
44278SOL    HW237646   5.332   6.584   0.907  1.0973 -2.0283  0.4308
44279SOL     OW37647  11.515   2.158   5.543  0.2301 -0.6454 -0.5982
44279SOL    HW137648  11.506   2.250   5.517 -1.6217 -0.2771  1.0622
44279SOL    HW237649  11.603   2.151   5.579 -0.7255  1.4964  2.5796
44280SOL     OW37650   1.402   8.541  12.516 -0.0436 -1.0137  0.1351
44280SOL    HW137651   1.446   8.556  12.600 -0.6672  0.3234  0.2571
44280SOL    HW237652   1.451   8.595  12.454  0.8039 -2.4883 -0.5103
44281SOL     OW37653   8.363   3.796   5.120  0.8138  0.4621  0.4964
44281SOL    HW137654   8.326   3.873   5.164  1.1578  1.4753 -0.9333
44281SOL    HW237655   8.344   3.723   5.180 -1.5223  1.2782  0.8321
44282SOL     OW37656   0.458   0.780  10.809  0.5030  0.5362 -0.1506
44282SOL    HW137657   0.368   0.810  10.823  0.9158  1.9576 -0.4581
44282SOL    HW237658   0.464   0.699  10.861 -0.5389  1.1522  0.9799
44283SOL     OW37659  12.420   7.468   9.935  0.2039  0.4465 -0.3353
44283SOL    HW137660  12.512   7.445   9.922  0.7308  2.1961  0.0121
44283SOL    HW237661  12.399   7.526   9.862 -1.0549 -0.9868 -1.1659
44284SOL     OW37662  10.578   2.619   2.801 -0.2143 -0.5336 -0.1183
44284SOL    HW137663  10.551   2.537   2.842 -0.6563 -1.2426 -1.7565
44284SOL    HW237664  10.570   2.603   2.707  0.2295  1.2090 -0.4911
44285SOL     OW37665   2.371   1.430   6.659 -0.1638 -0.2427 -0.0660
44285SOL    HW137666   2.426   1.473   6.724 -0.3342 -1.2586  0.7793
44285SOL    HW237667   2.405   1.459   6.574  0.9363  0.0258  0.4633
44286SOL     OW37668   2.013  12.152   1.796 -0.0508  0.5661  0.7333
44286SOL    HW137669   1.983  12.105   1.718 -0.8447 -1.6984  2.3177
44286SOL    HW237670   2.038  12.238   1.763  0.9396 -0.7257 -2.2413
44287SOL     OW37671   2.086  12.098   9.887 -0.1959 -0.0199 -0.7639
44287SOL    HW137672   2.139  12.104   9.808 -0.2684  1.7149 -0.7169
44287SOL    HW237673   2.060  12.188   9.905 -0.3540 -0.4069  1.1182
44288SOL     OW37674   5.297   3.744   6.694 -0.1606  0.1359  0.4165
44288SOL    HW137675   5.232   3.813   6.682  0.1539  0.1741 -1.4413
44288SOL    HW237676   5.379   3.791   6.710 -0.1947  0.1486  0.5546
44289SOL     OW37677   7.475   7.075   0.556  1.0832  0.2788  0.3205
44289SOL    HW137678   7.518   7.101   0.475  0.3546 -0.5794 -0.3652
44289SOL    HW237679   7.422   6.999   0.531 -0.1891  0.8134  1.3149
44290SOL     OW37680   0.210   9.545   8.752  0.0183  0.5092 -0.3604
44290SOL    HW137681   0.257   9.466   8.726 -2.4290 -0.3965 -2.5073
44290SOL    HW237682   0.209   9.543   8.847  0.5493 -1.7555 -0.3466
44291SOL     OW37683   8.591  10.973   8.968  0.1287 -0.9053  0.0639
44291SOL    HW137684   8.516  10.914   8.961 -0.3381 -0.4540  1.0649
44291SOL    HW237685   8.655  10.925   9.021 -0.6275 -0.1922  1.6980
44292SOL     OW37686   1.387   2.262   2.726  0.0235  0.1918  0.2455
44292SOL    HW137687   1.418   2.257   2.635 -1.8891  0.1763 -0.4497
44292SOL    HW237688   1.462   2.295   2.775  1.1453  0.0769 -1.3215
44293SOL     OW37689   2.778   4.649  11.239 -0.2681 -0.2100  0.1759
44293SOL    HW137690   2.770   4.568  11.189 -0.6222 -0.8705  1.2794
44293SOL    HW237691   2.839   4.703  11.187 -2.2987  0.0534 -2.1147
44294SOL     OW37692   3.167   0.450   2.083 -0.3484  0.6869  0.8364
44294SOL    HW137693   3.252   0.412   2.059 -0.3004  0.9884  0.5177
44294SOL    HW237694   3.106   0.377   2.073 -0.1015  0.4154  1.2547
44295SOL     OW37695   7.678   5.957   8.796  0.7700  0.0550  0.1562
44295SOL    HW137696   7.732   5.938   8.719  1.0385 -0.9592  0.5856
44295SOL    HW237697   7.713   6.040   8.830  1.2639  0.0208 -0.2589
44296SOL     OW37698   4.461   1.991   3.312 -0.3299 -0.4015  0.0780
44296SOL    HW137699   4.539   1.950   3.350  1.0003  3.1588  1.6414
44296SOL    HW237700   4.419   1.920   3.263  3.4637 -2.7421 -0.2831
44297SOL     OW37701   5.765   3.734   0.486 -0.1056 -0.2472  0.0304
44297SOL    HW137702   5.823   3.726   0.562  1.5645 -0.6195 -1.2093
44297SOL    HW237703   5.711   3.811   0.505 -0.1462 -0.6689  1.8222
44298SOL     OW37704  12.167  10.191  10.285  0.1141 -0.3542  0.0671
44298SOL    HW137705  12.124  10.159  10.363  0.8765 -0.3309  0.5034
44298SOL    HW237706  12.109  10.166  10.213 -0.1978 -1.0720  0.5637
44299SOL     OW37707   4.678   8.626   1.549 -0.2473  0.2073  0.6698
44299SOL    HW137708   4.766   8.627   1.512  0.8870  0.1860  3.1644
44299SOL    HW237709   4.683   8.683   1.625 -2.4099  0.1754  0.9078
44300SOL     OW37710   4.507  11.013   7.943  0.0521  0.4004 -0.1817
44300SOL    HW137711   4.570  11.012   8.015 -0.7536 -1.9595  0.5926
44300SOL    HW237712   4.461  11.097   7.952  0.0729  0.2367  1.9934
44301SOL     OW37713   0.529  12.047   9.811  0.0672 -0.7754  0.0770
44301SOL    HW137714   0.472  12.079   9.881  0.1608  1.6396 -0.8584
44301SOL    HW237715   0.616  12.047   9.850 -0.0743 -0.9303  0.4010
44302SOL     OW37716   4.642   1.546   3.190  0.9283  0.1677 -0.0045
44302SOL    HW137717   4.693   1.590   3.258 -0.7534  1.0449  0.7515
44302SOL    HW237718   4.598   1.618   3.144  1.2034 -0.4899 -1.3455
44303SOL     OW37719   4.088   6.321   3.323  0.6675  0.1906  0.2913
44303SOL    HW137720   4.058   6.378   3.394  0.1869  0.7048 -0.3137
44303SOL    HW237721   4.170   6.361   3.295  1.3059 -0.5064  1.1186
44304SOL     OW37722   0.644   2.698   2.208 -0.1152  0.5118  0.2323
44304SOL    HW137723   0.715   2.659   2.157  0.9670 -0.4822  2.3821
44304SOL    HW237724   0.564   2.677   2.159  0.8993 -0.0315 -1.2378
44305SOL     OW37725  10.162   4.580   4.065  0.0175 -0.0280  0.9462
44305SOL    HW137726  10.145   4.520   4.138  2.3680 -0.2546  1.3891
44305SOL    HW237727  10.245   4.622   4.088  1.2093 -0.6162 -1.9050
44306SOL     OW37728   4.493   3.910   4.001 -0.0011  0.0966  0.2956
44306SOL    HW137729   4.487   3.890   3.908  0.3429 -2.0958  0.6773
44306SOL    HW237730   4.403   3.901   4.033  0.3923 -3.3750  0.8320
44307SOL     OW37731   7.366  11.926   8.488  0.7370  0.6248  0.2555
44307SOL    HW137732   7.275  11.940   8.463  1.3441  0.1314 -2.5171
44307SOL    HW237733   7.365  11.928   8.584 -1.8825  2.3144  0.2874
44308SOL     OW37734  11.978   6.546   1.804  0.2544 -0.2471  1.1156
44308SOL    HW137735  12.052   6.525   1.861  0.6795  1.6496  1.3353
44308SOL    HW237736  11.939   6.624   1.843 -0.3921  0.1911 -0.3313
44309SOL     OW37737   0.152   3.173   8.659 -0.0402  0.4664  0.2682
44309SOL    HW137738   0.090   3.234   8.618 -1.6360 -0.8586  0.5688
44309SOL    HW237739   0.195   3.129   8.586 -0.5307  0.3924  0.0162
44310SOL     OW37740   1.028  11.361   1.312  0.0690 -0.4916  0.3524
44310SOL    HW137741   0.968  11.355   1.237  1.8637  0.2272 -1.2212
44310SOL    HW237742   0.994  11.434   1.364 -0.6454 -0.3510 -0.2864
44311SOL     OW37743  12.001  10.973   7.789 -0.5360  0.3684  0.2474
44311SOL    HW137744  11.958  10.924   7.719  1.1450  0.2750 -0.7683
44311SOL    HW237745  12.093  10.947   7.785  0.2057  2.6701  0.4572
44312SOL     OW37746   0.894   0.571   2.470 -0.3458 -0.1137  0.5100
44312SOL    HW137747   0.902   0.493   2.416 -0.1496  1.1886 -1.4308
44312SOL    HW237748   0.983   0.590   2.499 -0.3683 -0.5142  0.8373
44313SOL     OW37749   6.233   3.058   0.166 -0.7644 -0.3442  0.1206
44313SOL    HW137750   6.191   3.012   0.239 -0.5535  0.5888  0.8543
44313SOL    HW237751   6.177   3.041   0.091 -1.2897 -0.8617  0.6187
44314SOL     OW37752  12.279   0.881   0.468 -0.8766 -1.1198 -0.0566
44314SOL    HW137753  12.242   0.817   0.530 -1.0223  0.1614  1.2282
44314SOL    HW237754  12.310   0.952   0.523  1.7771 -1.2553 -1.2484
44315SOL     OW37755   5.251   4.537   4.138 -0.3263 -0.3366  0.3260
44315SOL    HW137756   5.193   4.524   4.213  0.7860  0.2702  1.3407
44315SOL    HW237757   5.198   4.513   4.062 -1.9540  0.3604  1.1796
44316SOL     OW37758   5.046   3.703  10.789  0.2433  0.5617 -0.3035
44316SOL    HW137759   4.987   3.655  10.731 -0.1915 -0.2806  0.7999
44316SOL    HW237760   5.017   3.794  10.781  0.7906  0.6305 -2.0700
44317SOL     OW37761   5.782  10.070   0.031  0.5082 -0.7534  0.2018
44317SOL    HW137762   5.687  10.072   0.043  0.2075  0.3523 -1.8387
44317SOL    HW237763   5.818  10.091   0.117 -1.1476  0.0634  0.7366
44318SOL     OW37764   2.489   6.794   6.030  0.5344  0.2834  0.5015
44318SOL    HW137765   2.484   6.740   5.952 -0.0636  1.0467 -0.0026
44318SOL    HW237766   2.398   6.809   6.056  0.7353 -0.9095  2.0334
44319SOL     OW37767   1.380   3.952   7.015 -0.3335  0.2140 -0.0920
44319SOL    HW137768   1.440   4.026   7.025 -1.3951  1.2038 -0.8564
44319SOL    HW237769   1.314   3.983   6.953 -0.1977 -1.7465 -1.2857
44320SOL     OW37770   7.699   4.044  10.259 -0.0020 -0.5258  0.0158
44320SOL    HW137771   7.654   3.985  10.198 -1.2224 -0.0763  0.4499
44320SOL    HW237772   7.652   4.127  10.252 -0.1263 -0.4388  1.4841
44321SOL     OW37773  10.586   6.167   8.470 -0.0881  0.2066  0.3162
44321SOL    HW137774  10.645   6.156   8.544  0.9680  0.5552 -0.4563
44321SOL    HW237775  10.561   6.078   8.446  1.3936 -0.0579 -0.3368
44322SOL     OW37776   9.009   6.676  10.722  1.1798  0.0503 -0.4253
44322SOL    HW137777   8.977   6.678  10.632  0.2319  0.4699 -0.0900
44322SOL    HW237778   9.043   6.588  10.734 -0.5607 -0.6739 -0.5646
44323SOL     OW37779   2.425   6.445  10.056  0.2102  0.0095 -0.1709
44323SOL    HW137780   2.330   6.436  10.047  0.2923  0.4205 -1.7628
44323SOL    HW237781   2.446   6.397  10.136 -1.0835 -1.8804 -0.8799
44324SOL     OW37782   0.340   1.478   4.285 -0.5696 -0.0833  0.5089
44324SOL    HW137783   0.249   1.449   4.278 -0.4789 -0.3410  0.4010
44324SOL    HW237784   0.374   1.473   4.196 -0.0488 -1.2884  0.7667
44325SOL     OW37785   1.928   1.565   3.308 -0.3548  0.0641 -0.6549
44325SOL    HW137786   1.949   1.635   3.370 -0.5609 -0.6252  0.2128
44325SOL    HW237787   1.848   1.596   3.265 -0.4436  0.3675 -0.2840
44326SOL     OW37788   6.005   0.478  11.162  0.2747 -0.1794 -0.7053
44326SOL    HW137789   5.919   0.494  11.124  0.3244  1.7592 -0.1257
44326SOL    HW237790   6.059   0.551  11.130  1.4417 -0.8290 -0.2924
44327SOL     OW37791  11.857  11.498   0.319 -0.6140 -0.4327  0.3162
44327SOL    HW137792  11.849  11.423   0.379 -0.0192  0.8262  2.0336
44327SOL    HW237793  11.947  11.527   0.329 -0.6449  0.1080 -0.8615
44328SOL     OW37794   9.321   7.579   4.311  0.0840 -0.2764  0.0525
44328SOL    HW137795   9.270   7.502   4.334  0.0863 -0.5026 -0.6736
44328SOL    HW237796   9.259   7.636   4.265  0.1642  0.0073  0.2968
44329SOL     OW37797   5.638   8.925   2.010 -0.4577  0.0589  0.4262
44329SOL    HW137798   5.632   9.019   1.995  0.8406 -0.0479 -1.0786
44329SOL    HW237799   5.730   8.904   1.992 -0.4691 -1.3305  1.8313
44330SOL     OW37800   3.748   0.958   0.788  0.0235 -0.3244 -0.4535
44330SOL    HW137801   3.801   0.890   0.748 -1.8522 -1.6489 -0.8478
44330SOL    HW237802   3.808   1.006   0.845  2.2087  0.0251 -2.8751
44331SOL     OW37803   2.486   3.595   7.974 -0.2521 -0.8389  0.3104
44331SOL    HW137804   2.565   3.598   8.028 -1.0641  2.2116  1.5512
44331SOL    HW237805   2.476   3.685   7.943 -2.8912 -1.2851 -0.3132
44332SOL     OW37806   5.503   5.434   0.940  0.3440  0.1886  0.4556
44332SOL    HW137807   5.558   5.471   0.872  0.1827 -2.0069 -0.9911
44332SOL    HW237808   5.440   5.379   0.893 -0.2312 -0.8603  2.3242
44333SOL     OW37809   4.568   4.522   0.376 -0.1904 -1.0191  0.1445
44333SOL    HW137810   4.620   4.472   0.313 -1.1124  0.2824 -1.7633
44333SOL    HW237811   4.481   4.484   0.372 -0.2455 -0.9675  0.7074
44334SOL     OW37812   8.845  11.544   0.629  0.3513 -0.1929 -0.4485
44334SOL    HW137813   8.884  11.570   0.545 -2.1479  0.9311 -1.3642
44334SOL    HW237814   8.788  11.617   0.652 -0.3673 -1.2781  1.3586
44335SOL     OW37815  10.237   7.022   2.354 -0.6302  0.2866  0.2422
44335SOL    HW137816  10.333   7.029   2.355 -0.5479 -0.6061 -0.4270
44335SOL    HW237817  10.208   7.092   2.413  0.4176  0.7720  0.2152
44336SOL     OW37818   4.384   3.221   1.507 -0.7869 -0.0622 -0.3359
44336SOL    HW137819   4.461   3.273   1.528  1.2592 -2.4528 -1.4544
44336SOL    HW237820   4.333   3.220   1.588  1.5989 -0.4404  1.2514
44337SOL     OW37821   3.439   5.699   1.155 -0.5210  0.5187 -0.5654
44337SOL    HW137822   3.389   5.741   1.225 -2.7613 -1.1486 -1.0602
44337SOL    HW237823   3.382   5.629   1.123  2.2931 -1.8395 -0.9113
44338SOL     OW37824  10.905   7.387   0.974  0.2090  0.1972  0.5003
44338SOL    HW137825  10.907   7.470   0.927  0.3549 -0.5872 -0.9423
44338SOL    HW237826  10.829   7.341   0.938  0.2272 -0.3661  1.1582
44339SOL     OW37827   7.486   3.291   2.041 -0.5189 -0.1872 -0.7060
44339SOL    HW137828   7.487   3.366   2.100  0.5578 -0.8293  0.1265
44339SOL    HW237829   7.565   3.242   2.062 -0.4817 -0.8365 -2.1910
44340SOL     OW37830  10.881  12.564   0.460  0.7846 -0.0712  0.0714
44340SOL    HW137831  10.871  12.652   0.496  0.8594  0.3745 -0.9757
44340SOL    HW237832  10.850  12.506   0.530  1.4008  0.7372  1.0436
44341SOL     OW37833   2.470   9.376   0.129 -0.6287 -0.4250  0.1368
44341SOL    HW137834   2.390   9.410   0.169 -0.8353 -1.2825  0.4646
44341SOL    HW237835   2.460   9.396   0.036 -1.8661 -1.7215 -0.0442
44342SOL     OW37836   9.800   5.404   9.478  0.3961  0.5544  0.4154
44342SOL    HW137837   9.856   5.482   9.483  2.1899 -0.6723  0.5522
44342SOL    HW237838   9.850   5.342   9.424 -0.4923 -0.8776  1.1712
44343SOL     OW37839  10.665   2.470   7.784 -0.2305 -0.0926 -0.5795
44343SOL    HW137840  10.673   2.402   7.850  0.5596  1.5554  1.1229
44343SOL    HW237841  10.573   2.496   7.788 -0.3365 -0.4691 -0.6021
44344SOL     OW37842   5.109   4.774   3.367 -0.1107  0.0806 -0.1003
44344SOL    HW137843   5.015   4.788   3.355  0.0224  0.2766 -0.9274
44344SOL    HW237844   5.119   4.760   3.461 -0.6524  2.4394  0.3663
44345SOL     OW37845   9.344   5.776   5.296  0.8592  0.3552  0.2829
44345SOL    HW137846   9.354   5.822   5.212  1.6594  0.6058  0.5025
44345SOL    HW237847   9.396   5.696   5.285  2.7627  1.3912  1.2529
44346SOL     OW37848   0.820   3.543   1.232 -0.5360 -0.2321 -0.0009
44346SOL    HW137849   0.844   3.635   1.241  0.9167 -0.4889 -0.9169
44346SOL    HW237850   0.741   3.543   1.178 -0.9150  0.4852  0.5365
44347SOL     OW37851   2.469  11.246   6.824  0.1575  0.5516  0.1711
44347SOL    HW137852   2.471  11.241   6.729 -0.2046 -0.1492  0.1956
44347SOL    HW237853   2.399  11.309   6.843  0.6908  1.2120 -0.0344
44348SOL     OW37854   4.357   0.890   9.810  0.5529 -0.2514  0.0003
44348SOL    HW137855   4.304   0.856   9.882 -0.4977  0.9579 -0.1688
44348SOL    HW237856   4.322   0.847   9.732  0.0998  0.1961 -0.0529
44349SOL     OW37857   9.098   4.667   3.708  0.2681 -0.2129  0.0321
44349SOL    HW137858   9.089   4.574   3.726  0.3873 -0.0971  0.6949
44349SOL    HW237859   9.079   4.675   3.614  1.7721 -1.1201 -0.3853
44350SOL     OW37860   9.254   0.058   6.272 -0.1814  0.0216 -0.0275
44350SOL    HW137861   9.243   0.125   6.205  1.5395  1.2310  0.8234
44350SOL    HW237862   9.317  -0.004   6.234  0.6766  0.6253  0.3781
44351SOL     OW37863   0.668   4.788   5.752  0.0848  0.7713  0.2890
44351SOL    HW137864   0.734   4.719   5.761 -0.4601 -0.0799 -1.5927
44351SOL    HW237865   0.697   4.839   5.676 -0.2836  1.7519  0.7800
44352SOL     OW37866   6.281   8.395   1.524  0.3785 -0.1386  0.3578
44352SOL    HW137867   6.329   8.413   1.605  0.6792  0.2038  0.1039
44352SOL    HW237868   6.307   8.306   1.501 -0.4235 -0.5889  1.1336
44353SOL     OW37869  10.661   5.903   9.825 -0.6412 -0.6413 -0.0962
44353SOL    HW137870  10.661   5.970   9.757 -0.0652 -0.5203  0.0186
44353SOL    HW237871  10.573   5.907   9.863 -0.8096 -0.3869 -0.5164
44354SOL     OW37872   6.774   6.666   0.878 -0.3476 -0.1610  0.2898
44354SOL    HW137873   6.838   6.643   0.945 -1.5255  1.7736  2.1879
44354SOL    HW237874   6.820   6.649   0.795  1.8754 -0.7505  1.5471
44355SOL     OW37875   3.716   3.548   9.772 -0.3846  0.1403 -0.0810
44355SOL    HW137876   3.670   3.464   9.777 -0.9206  0.4335 -0.0289
44355SOL    HW237877   3.651   3.610   9.738  0.5796  0.1370 -2.0488
44356SOL     OW37878   4.992   6.396   4.997  0.0289  0.5116 -0.3499
44356SOL    HW137879   5.043   6.442   4.930 -0.1620  1.5467  0.2040
44356SOL    HW237880   5.001   6.450   5.075 -0.6651 -0.1053  0.1640
44357SOL     OW37881   8.917   6.384   5.709  0.3923 -0.1063  0.3140
44357SOL    HW137882   8.821   6.392   5.709  0.2935 -1.0188 -0.6124
44357SOL    HW237883   8.944   6.421   5.625  0.9010  0.5124  0.7456
44358SOL     OW37884  11.693   3.716   3.637  0.0783 -0.2152 -0.4476
44358SOL    HW137885  11.756   3.673   3.695 -0.0314 -0.6377 -0.6388
44358SOL    HW237886  11.734   3.799   3.615  0.5210 -0.4398 -0.4775
44359SOL     OW37887  12.506   9.594   5.751  0.1206 -0.2935 -0.5879
44359SOL    HW137888  12.411   9.586   5.759  0.1149  0.0819 -0.1768
44359SOL    HW237889  12.526   9.680   5.790  0.6767 -0.5815 -0.2114
44360SOL     OW37890   4.566   0.712   8.035  0.1549  0.0492 -0.0701
44360SOL    HW137891   4.540   0.620   8.034 -0.4911  0.2211  0.3099
44360SOL    HW237892   4.487   0.759   8.008  0.6209  0.4627 -0.7375
44361SOL     OW37893  12.130  11.529   5.631  0.2711 -0.5105 -0.3002
44361SOL    HW137894  12.121  11.576   5.713  1.0446  3.4209 -2.2493
44361SOL    HW237895  12.042  11.496   5.612 -0.1834 -0.3701  1.4289
44362SOL     OW37896   6.053   0.928   5.692  0.8638  0.4392 -0.1234
44362SOL    HW137897   6.025   0.840   5.719  0.4646  0.6022  0.0083
44362SOL    HW237898   6.120   0.953   5.756 -0.0102  0.7882  0.6960
44363SOL     OW37899   0.902   1.925   6.852  0.1587 -0.5849  0.5537
44363SOL    HW137900   0.890   1.948   6.760 -0.2153 -2.0568  0.2154
44363SOL    HW237901   0.814   1.905   6.884  0.2678  0.0039  1.2771
44364SOL     OW37902   8.539   9.494  10.635  0.0203 -0.0018  0.4393
44364SOL    HW137903   8.501   9.407  10.644 -1.9520  0.5953 -1.2453
44364SOL    HW237904   8.464   9.553  10.630  1.2147  1.5341 -0.6478
44365SOL     OW37905   4.736  10.357  11.546 -0.2947  0.5106  0.1606
44365SOL    HW137906   4.669  10.312  11.597 -0.6259 -0.5218 -1.1535
44365SOL    HW237907   4.756  10.298  11.474  3.8821 -0.4686  1.8079
44366SOL     OW37908  12.316   9.736   4.834 -0.1256  0.4336  0.0704
44366SOL    HW137909  12.386   9.711   4.895 -1.1557  0.5978  1.3718
44366SOL    HW237910  12.271   9.808   4.879 -2.7961 -1.4243  0.5499
44367SOL     OW37911   1.706   8.893   8.642  0.4569  0.4526  0.1375
44367SOL    HW137912   1.801   8.887   8.640  0.3615 -2.8776 -0.3697
44367SOL    HW237913   1.676   8.827   8.580 -2.2207  1.5877  0.0581
44368SOL     OW37914   8.433  11.974  12.068 -0.3701  0.2859 -0.0088
44368SOL    HW137915   8.362  12.032  12.095 -0.6913 -0.7204  1.4472
44368SOL    HW237916   8.490  12.028  12.013 -0.2906  2.1723  1.8279
44369SOL     OW37917  11.352   2.779   9.189  0.8038  0.2450 -0.0766
44369SOL    HW137918  11.285   2.832   9.233 -0.1077 -1.2145  0.3620
44369SOL    HW237919  11.302   2.713   9.141  1.9157 -0.4331 -0.3305
44370SOL     OW37920   6.806   1.389   7.880  0.1574  0.1618 -0.4382
44370SOL    HW137921   6.847   1.473   7.859 -1.8147  0.7032 -2.5124
44370SOL    HW237922   6.726   1.412   7.927  0.3410 -0.6847  0.3322
44371SOL     OW37923   8.189   9.365   8.289  0.0804  0.0980 -0.2402
44371SOL    HW137924   8.252   9.352   8.361  0.9852  0.6484 -0.9135
44371SOL    HW237925   8.106   9.381   8.333  0.2581 -1.2953  0.6720
44372SOL     OW37926   7.767   2.115  12.605 -0.0560 -0.1111  0.1923
44372SOL    HW137927   7.786   2.141  12.695  0.1392 -0.1464  0.1616
44372SOL    HW237928   7.789   2.021  12.602 -1.3854 -0.4588  0.4877
44373SOL     OW37929  12.277   7.317   4.179  0.2122 -0.2528  0.1798
44373SOL    HW137930  12.253   7.227   4.201 -0.4386 -0.7884 -2.3438
44373SOL    HW237931  12.194   7.363   4.173  0.3714 -0.0495 -0.6249
44374SOL     OW37932   7.028  10.104   1.514 -0.0283 -0.0086  0.3774
44374SOL    HW137933   7.074  10.021   1.507 -0.6247 -0.3280  0.2289
44374SOL    HW237934   7.044  10.148   1.430  1.4722  0.6593  0.9735
44375SOL     OW37935   5.530   7.999   5.842 -0.1878 -0.0435  0.2817
44375SOL    HW137936   5.450   7.950   5.826  0.3899 -0.9014 -0.1129
44375SOL    HW237937   5.599   7.932   5.842  0.6313  0.7721 -0.3206
44376SOL     OW37938   1.927   6.273   6.840  0.1099 -0.3959 -0.2184
44376SOL    HW137939   1.860   6.227   6.891 -1.0518  1.1327 -0.2559
44376SOL    HW237940   1.910   6.366   6.858  2.6569  0.0453  0.2754
44377SOL     OW37941   0.391   0.504   1.573  0.4376  0.3424  0.5266
44377SOL    HW137942   0.340   0.583   1.590 -0.0315  0.3206 -0.6728
44377SOL    HW237943   0.326   0.436   1.560  0.7143  0.3982 -1.4251
44378SOL     OW37944   4.632  11.364   5.829  0.5050  0.1942  0.6573
44378SOL    HW137945   4.681  11.283   5.821  1.0208  0.6040 -0.4000
44378SOL    HW237946   4.553  11.350   5.778  0.3042  0.1480  0.9744
44379SOL     OW37947   8.604   0.944  11.311 -0.0618 -0.3591  0.7820
44379SOL    HW137948   8.551   0.871  11.278 -1.2074  0.9823 -0.5027
44379SOL    HW237949   8.559   0.972  11.391 -0.5921 -0.0464  0.3862
44380SOL     OW37950  11.103   3.793   9.149 -0.2930 -0.5535 -0.5635
44380SOL    HW137951  11.153   3.824   9.224 -1.2300 -0.0100 -0.1433
44380SOL    HW237952  11.163   3.734   9.102  1.4402  1.5706 -1.1891
44381SOL     OW37953   8.948   3.642  10.528 -0.0716 -0.7321  0.1504
44381SOL    HW137954   8.857   3.617  10.513  0.1433 -1.9127  0.7067
44381SOL    HW237955   8.999   3.567  10.498  0.6492 -0.6495  1.1203
44382SOL     OW37956   6.869  10.221  10.088  0.1474 -0.4972 -0.3985
44382SOL    HW137957   6.904  10.202  10.175  0.8625 -0.3153 -0.6340
44382SOL    HW237958   6.914  10.302  10.062 -1.2058  0.3157 -0.3045
44383SOL     OW37959   5.008   3.551   0.189 -0.2541  0.0544 -0.0709
44383SOL    HW137960   5.070   3.614   0.225  0.4805  0.1752 -1.4831
44383SOL    HW237961   5.061   3.474   0.168 -0.5574  0.1481 -1.2669
44384SOL     OW37962  11.020   4.825   2.110  0.2991  0.8185 -0.3475
44384SOL    HW137963  11.073   4.746   2.123 -2.7633 -0.9194  4.3925
44384SOL    HW237964  10.984   4.815   2.022  0.3425 -3.0275 -0.1307
44385SOL     OW37965   3.867  10.560   7.309 -0.2573  0.0401  0.5021
44385SOL    HW137966   3.809  10.579   7.236  1.2222  1.3537 -0.4108
44385SOL    HW237967   3.856  10.466   7.325 -1.5020 -0.0325 -0.6029
44386SOL     OW37968   2.249   6.522   9.074  0.4715 -0.0130  0.0065
44386SOL    HW137969   2.237   6.430   9.052 -1.2854  0.1127  0.2951
44386SOL    HW237970   2.187   6.539   9.144 -1.0368  1.9446 -1.6605
44387SOL     OW37971   9.732   1.597   0.673  0.0913  0.2685  0.1422
44387SOL    HW137972   9.687   1.587   0.589  1.3399  1.1022 -0.6623
44387SOL    HW237973   9.818   1.633   0.650  1.1860 -1.2759  1.6188
44388SOL     OW37974  11.406  11.275   2.809 -0.0893 -0.7321 -0.2921
44388SOL    HW137975  11.461  11.197   2.815  0.5351 -0.2302  0.5041
44388SOL    HW237976  11.324  11.249   2.852  0.0171 -1.0223 -0.2587
44389SOL     OW37977   9.392   5.765   0.629 -0.2530 -0.5472  0.1206
44389SOL    HW137978   9.484   5.749   0.608 -0.0944 -2.5554  2.0307
44389SOL    HW237979   9.352   5.679   0.629 -2.6237  0.4231 -2.3841
44390SOL     OW37980   0.486   3.466   2.042  0.1591  0.6017 -0.0490
44390SOL    HW137981   0.509   3.480   1.950  3.0279 -0.5639  0.3841
44390SOL    HW237982   0.477   3.371   2.050 -1.6524  0.7949  0.5914
44391SOL     OW37983   6.212  12.034   3.692  0.2799  0.3252  0.3993
44391SOL    HW137984   6.172  12.013   3.608 -0.0590  0.8581  0.4234
44391SOL    HW237985   6.306  12.036   3.675  0.1489  1.8678 -0.3119
44392SOL     OW37986   7.958   5.393  10.316  0.3161 -0.9177  0.1152
44392SOL    HW137987   7.934   5.303  10.292 -1.8563 -0.7798  1.5264
44392SOL    HW237988   7.944   5.397  10.411  1.9211  0.4877  0.3405
44393SOL     OW37989  12.222   0.223   1.039  0.2163  0.4248 -0.1974
44393SOL    HW137990  12.242   0.289   1.105  0.7216 -2.0039  2.2932
44393SOL    HW237991  12.235   0.140   1.084 -1.1835 -1.4154 -2.8959
44394SOL     OW37992   5.767  12.446  11.376  0.7502 -0.0763  0.0526
44394SOL    HW137993   5.725  12.394  11.307  2.3530 -1.2802 -0.0647
44394SOL    HW237994   5.783  12.531  11.336  0.2674 -0.2624 -0.5453
44395SOL     OW37995   1.197   0.238   0.272  1.0847 -0.4838 -0.3676
44395SOL    HW137996   1.237   0.198   0.195  2.2032 -1.0203  0.4755
44395SOL    HW237997   1.180   0.165   0.332 -2.6652 -0.5567 -1.2568
44396SOL     OW37998   9.514  10.853   2.864 -0.0451 -0.2770 -0.3832
44396SOL    HW137999   9.419  10.862   2.857  0.0685  0.4201 -1.1393
44396SOL    HW238000   9.545  10.941   2.884  0.6391  0.0744 -2.6596
44397SOL     OW38001  10.958  12.466  11.864 -0.3720  0.3087 -0.1657
44397SOL    HW138002  10.929  12.547  11.821 -0.3972  0.3638 -0.0446
44397SOL    HW238003  11.003  12.417  11.795 -0.8849  0.1517 -0.4022
44398SOL     OW38004  11.249   5.777   9.430  0.2773 -0.2209  0.2774
44398SOL    HW138005  11.318   5.810   9.373 -1.8780  0.9364 -1.8719
44398SOL    HW238006  11.294   5.719   9.491  3.1130  0.4952 -0.9541
44399SOL     OW38007  10.125   9.468   2.450 -0.2455 -0.3893  0.1287
44399SOL    HW138008  10.040   9.432   2.475 -0.6501  0.4230 -0.0260
44399SOL    HW238009  10.138   9.441   2.359  1.0802 -3.0829  1.0170
44400SOL     OW38010   4.014  11.078   3.945  0.4912  0.3589 -0.2729
44400SOL    HW138011   4.000  11.068   4.039  2.7017  1.8555  0.2850
44400SOL    HW238012   4.102  11.044   3.930  0.0435 -0.1886 -1.8998
44401SOL     OW38013   1.789   1.343   9.069 -0.3194 -0.1689  0.0379
44401SOL    HW138014   1.763   1.431   9.093 -0.2059 -0.1202 -0.0181
44401SOL    HW238015   1.855   1.355   9.001  0.2869 -0.2804  0.5929
44402SOL     OW38016   6.568   0.873   7.898  0.5868 -0.3042 -0.3076
44402SOL    HW138017   6.576   0.940   7.830  2.5164 -0.7610 -0.5834
44402SOL    HW238018   6.534   0.920   7.974 -0.0023  0.5537 -1.0840
44403SOL     OW38019   6.889   3.590   6.298  0.5378  0.1353  0.7480
44403SOL    HW138020   6.933   3.654   6.242  0.0378  1.0405  1.3619
44403SOL    HW238021   6.954   3.520   6.309  1.5574  1.0965  1.0306
44404SOL     OW38022  11.233   6.454   1.181 -0.3203  0.6682 -0.1919
44404SOL    HW138023  11.179   6.457   1.260 -0.4855  1.0407 -0.3180
44404SOL    HW238024  11.207   6.374   1.136 -0.7847  0.8592 -0.2635
44405SOL     OW38025   3.039   1.420   9.236  0.6369  0.2621  0.3368
44405SOL    HW138026   3.073   1.487   9.295  1.2531 -0.3291  0.6670
44405SOL    HW238027   3.036   1.463   9.150  0.6778  0.8215  0.6130
44406SOL     OW38028  12.284  11.068   6.205 -0.5939 -0.2066  0.0336
44406SOL    HW138029  12.325  11.006   6.145 -0.4332 -0.2019  0.1376
44406SOL    HW238030  12.309  11.154   6.171 -0.1559 -0.2091  0.3478
44407SOL     OW38031   3.008   6.154  12.632 -0.2367  0.7308 -0.4764
44407SOL    HW138032   2.974   6.171  12.544  0.9159  2.3133 -0.6533
44407SOL    HW238033   3.056   6.071  12.622 -1.4062  0.0849 -0.9418
44408SOL     OW38034   3.500   2.115  10.682  0.0905  0.1108  0.2426
44408SOL    HW138035   3.576   2.118  10.741  0.6725 -2.2305 -0.3014
44408SOL    HW238036   3.533   2.147  10.598  0.6429 -1.3218 -0.1120
44409SOL     OW38037   9.669   1.026  11.536  0.0766  0.1384 -0.5122
44409SOL    HW138038   9.604   1.086  11.573  1.1806  0.0868  1.7033
44409SOL    HW238039   9.687   1.061  11.449 -1.0245  1.6505 -0.1819
44410SOL     OW38040  11.111   0.102   2.655  0.8762  0.2002 -0.3839
44410SOL    HW138041  11.194   0.129   2.695 -0.0745  0.6889  1.3531
44410SOL    HW238042  11.126   0.110   2.560  1.7766  3.6177 -0.0825
44411SOL     OW38043   1.732   7.561   2.111 -0.0704  0.3314  0.7155
44411SOL    HW138044   1.787   7.634   2.137 -2.8070  2.4430  1.0944
44411SOL    HW238045   1.643   7.595   2.115 -1.3475 -2.1271 -2.1146
44412SOL     OW38046   4.196   3.046   6.225 -0.3016 -0.2005 -0.5250
44412SOL    HW138047   4.117   3.016   6.179 -1.2051  0.5982  0.4354
44412SOL    HW238048   4.253   2.969   6.226 -1.9705 -1.5221  0.6363
44413SOL     OW38049   1.864   8.917   9.998  0.3744 -0.1557  0.7698
44413SOL    HW138050   1.819   8.848  10.046 -1.5793  0.1235 -0.5193
44413SOL    HW238051   1.947   8.928  10.043 -0.3013 -1.6290  2.4901
44414SOL     OW38052   3.191   6.372   7.917 -0.2229 -0.6938  0.1396
44414SOL    HW138053   3.176   6.280   7.894  1.3626 -0.8212 -0.5742
44414SOL    HW238054   3.275   6.372   7.963 -0.2893  0.3820  0.2968
44415SOL     OW38055   6.226  12.374  11.975  0.2298 -0.7237 -0.1694
44415SOL    HW138056   6.176  12.296  11.951 -2.6336  0.7704  0.4249
44415SOL    HW238057   6.217  12.380  12.071  0.1758  0.4231 -0.2266
44416SOL     OW38058   0.607   2.059   8.184 -0.5887  0.6131 -0.0348
44416SOL    HW138059   0.669   2.128   8.206  1.2985 -1.0345  0.0323
44416SOL    HW238060   0.601   2.061   8.088 -1.9470  1.9841  0.0362
44417SOL     OW38061   2.124   2.990  12.474  0.0448 -0.2171 -0.0393
44417SOL    HW138062   2.215   2.974  12.499  0.1474  0.3291 -0.0515
44417SOL    HW238063   2.122   2.977  12.379 -0.0138 -0.7626  0.0289
44418SOL     OW38064   9.589   1.032   4.748 -0.0461  0.3577  0.3411
44418SOL    HW138065   9.620   0.967   4.812  1.7481 -0.1057 -0.9221
44418SOL    HW238066   9.595   0.988   4.664  1.7968  2.2855 -0.6389
44419SOL     OW38067   8.126  12.114  12.314  0.1884  0.3299  0.2967
44419SOL    HW138068   8.139  12.065  12.395 -1.6996 -2.1484 -0.7705
44419SOL    HW238069   8.039  12.153  12.324  0.4777  1.0831 -0.0482
44420SOL     OW38070   6.955   3.972   3.005 -0.4740  0.0999  0.3672
44420SOL    HW138071   6.904   3.941   3.080 -0.2793 -1.8163 -0.2292
44420SOL    HW238072   6.914   4.056   2.981  0.1724  1.3335  3.2340
44421SOL     OW38073  10.349  11.679   8.168 -0.7967 -0.3880  0.0322
44421SOL    HW138074  10.434  11.637   8.172 -0.5140  0.0088 -1.2805
44421SOL    HW238075  10.302  11.647   8.245 -0.2483 -2.3114 -0.3942
44422SOL     OW38076   2.961   9.582   5.055 -0.9436  0.4222 -0.3445
44422SOL    HW138077   2.938   9.664   5.097 -0.2735 -0.6445  2.3097
44422SOL    HW238078   2.876   9.539   5.039 -1.2257 -0.1491  2.2313
44423SOL     OW38079   4.015   1.300  11.241  0.2207  0.5930  0.0873
44423SOL    HW138080   4.109   1.287  11.245  0.3495  1.3842 -0.2017
44423SOL    HW238081   3.997   1.366  11.308 -0.4310 -1.0678  1.6250
44424SOL     OW38082  11.700   6.271   6.940  0.1295 -0.5078  0.4365
44424SOL    HW138083  11.782   6.320   6.943  0.4570 -0.9298 -0.9835
44424SOL    HW238084  11.647   6.315   6.874  0.3851 -1.9349 -0.7852
44425SOL     OW38085   9.439  10.896   6.224  0.6509  0.2240 -0.4772
44425SOL    HW138086   9.414  10.965   6.285  1.3443 -1.5585  1.9755
44425SOL    HW238087   9.370  10.830   6.233  1.5937 -0.7737 -0.4014
44426SOL     OW38088   0.791   9.811  10.296  0.4619  0.6994  0.1083
44426SOL    HW138089   0.831   9.892  10.325 -2.1295  1.8038  0.9084
44426SOL    HW238090   0.773   9.825  10.203  3.3691 -0.5174 -0.7486
44427SOL     OW38091   7.702   9.034   8.533  0.1615  0.0462  0.3332
44427SOL    HW138092   7.693   8.939   8.530 -0.5530  0.1186  0.0580
44427SOL    HW238093   7.741   9.052   8.619  0.4133 -0.4992  0.3355
44428SOL     OW38094   9.795  10.522  10.534  0.0760 -0.3536  0.0945
44428SOL    HW138095   9.791  10.584  10.607  0.8376 -1.6297  1.2744
44428SOL    HW238096   9.792  10.436  10.576 -0.2615 -1.1229 -1.4495
44429SOL     OW38097   4.310   6.106   3.292  0.0920  0.0881  0.2443
44429SOL    HW138098   4.245   6.074   3.354 -0.0377  1.4406  0.8467
44429SOL    HW238099   4.355   6.177   3.339  0.0954  1.0434 -1.1455
44430SOL     OW38100   2.664   1.157   1.480  0.3275  0.0964  0.0537
44430SOL    HW138101   2.701   1.237   1.444  2.0463  1.2963  3.8993
44430SOL    HW238102   2.711   1.086   1.436  1.4663  1.3359 -0.8082
44431SOL     OW38103   5.056  12.441   0.784  0.3950  0.0174 -0.8958
44431SOL    HW138104   4.977  12.462   0.734 -2.1076  0.3281  2.7151
44431SOL    HW238105   5.072  12.348   0.767 -1.0776 -0.1725 -1.3669
44432SOL     OW38106  10.274   4.043  10.602 -0.1350  0.1431  0.6768
44432SOL    HW138107  10.198   4.099  10.586  1.8572  2.2577 -2.2813
44432SOL    HW238108  10.261   3.968  10.544  0.1758  0.6401 -0.0343
44433SOL     OW38109   1.487   9.898   8.437 -0.0944 -0.0147 -0.0418
44433SOL    HW138110   1.537   9.972   8.403  1.8397 -0.5629  1.3540
44433SOL    HW238111   1.554   9.830   8.453 -1.5022 -1.3081  0.6202
44434SOL     OW38112   1.874   1.331   0.335 -0.0195  0.0358  0.4250
44434SOL    HW138113   1.834   1.360   0.253 -1.8457 -0.8542  0.9458
44434SOL    HW238114   1.865   1.406   0.394 -0.8580 -0.1261  0.5096
44435SOL     OW38115  11.832  12.144  11.986 -0.0595  0.2112 -0.0462
44435SOL    HW138116  11.864  12.166  12.074 -4.1764  1.1871  1.4478
44435SOL    HW238117  11.737  12.135  11.997 -0.5328 -1.7339 -4.0603
44436SOL     OW38118   1.135   6.475   9.802  0.5827  0.1545  0.2008
44436SOL    HW138119   1.078   6.408   9.838 -0.2648 -0.2376 -1.7686
44436SOL    HW238120   1.211   6.476   9.861 -0.9299 -0.0461  2.2683
44437SOL     OW38121  10.445   9.628   1.137 -0.0347  0.4624 -0.7474
44437SOL    HW138122  10.430   9.676   1.055  0.1506 -0.3069 -1.2477
44437SOL    HW238123  10.504   9.557   1.112  0.3626  0.4644  0.1493
44438SOL     OW38124   0.666   3.291   3.661 -0.2814 -0.2346 -0.4164
44438SOL    HW138125   0.712   3.213   3.630 -0.6144 -0.4738 -0.3131
44438SOL    HW238126   0.716   3.319   3.738 -0.0917 -0.2790 -0.5243
44439SOL     OW38127  10.183  10.816   1.441 -0.4876  0.5816 -0.1111
44439SOL    HW138128  10.200  10.730   1.403 -0.5653  0.0489  1.0265
44439SOL    HW238129  10.132  10.862   1.374 -2.0433 -0.9076 -0.0297
44440SOL     OW38130   0.684   9.782   2.892 -0.8321  0.3565 -0.2791
44440SOL    HW138131   0.774   9.791   2.925 -1.2512  1.4175  0.6362
44440SOL    HW238132   0.666   9.865   2.849 -1.9540  0.8463  1.0615
44441SOL     OW38133   0.627   6.112   4.598 -0.0008  0.3540 -0.2266
44441SOL    HW138134   0.711   6.067   4.587  0.6042  1.4446 -0.1489
44441SOL    HW238135   0.628   6.144   4.689  0.0468  1.4675 -0.6132
44442SOL     OW38136   0.844   2.164   2.686  0.3588  0.0998  0.1970
44442SOL    HW138137   0.838   2.253   2.719  1.1734  0.7504 -1.3023
44442SOL    HW238138   0.832   2.108   2.763 -0.2003  1.4932  1.1426
44443SOL     OW38139   2.883   2.681   8.265 -0.3641  0.8775 -0.2743
44443SOL    HW138140   2.800   2.693   8.311  0.0736  1.1284  0.4677
44443SOL    HW238141   2.862   2.697   8.173 -1.6036 -1.2037 -0.4085
44444SOL     OW38142   5.229  11.377   0.973 -0.1537  0.0621  0.4418
44444SOL    HW138143   5.233  11.307   1.038  0.3452 -0.4637 -0.1386
44444SOL    HW238144   5.316  11.378   0.933 -0.5211  0.2151 -0.3729
44445SOL     OW38145   6.777   6.637   1.842 -0.2164 -0.2911  0.0698
44445SOL    HW138146   6.781   6.611   1.750  0.1278  0.4883 -0.1426
44445SOL    HW238147   6.685   6.661   1.857 -0.4900 -1.3743  0.2099
44446SOL     OW38148   1.010   5.452   9.737  0.7880 -0.4981  0.5935
44446SOL    HW138149   0.963   5.535   9.748 -1.2627 -1.7982  2.5109
44446SOL    HW238150   0.949   5.395   9.691  0.7319 -1.9480  2.3232
44447SOL     OW38151   4.865  11.128  11.572  0.3197  0.3699  0.0601
44447SOL    HW138152   4.785  11.167  11.536 -0.0676  0.3287  0.8557
44447SOL    HW238153   4.899  11.074  11.501 -0.5958  0.0422 -0.1519
44448SOL     OW38154   2.171  10.125   9.064  0.0503  0.1235 -0.1593
44448SOL    HW138155   2.246  10.184   9.070  0.7208 -0.6514 -0.7231
44448SOL    HW238156   2.108  10.160   9.127  0.3185  1.5882 -0.6628
44449SOL     OW38157  11.959   5.858   6.921 -0.8571 -0.2416  0.2315
44449SOL    HW138158  11.976   5.777   6.872 -1.4772 -0.6368  0.6476
44449SOL    HW238159  11.880   5.894   6.881 -1.3610 -0.5599  0.9231
44450SOL     OW38160   7.132   0.114  10.575 -0.1804  0.6359  0.0359
44450SOL    HW138161   7.119   0.029  10.532 -0.9431  0.6704  0.1828
44450SOL    HW238162   7.076   0.174  10.526  2.1274  1.5971 -1.6016
44451SOL     OW38163  10.638  11.531  11.981 -0.2492 -0.1250  0.4233
44451SOL    HW138164  10.693  11.543  12.059 -0.3961 -2.2358  0.9401
44451SOL    HW238165  10.550  11.555  12.010  0.0853  1.6511  0.0845
44452SOL     OW38166   9.828   9.924   8.434  0.1621 -0.2145  0.4052
44452SOL    HW138167   9.788  10.011   8.433 -0.8872 -0.6524 -0.9789
44452SOL    HW238168   9.836   9.901   8.341 -0.8536 -2.1225  0.7365
44453SOL     OW38169   2.143   8.473   8.323 -0.1784 -0.0443 -0.3369
44453SOL    HW138170   2.102   8.444   8.241 -0.2218  0.4438 -0.4912
44453SOL    HW238171   2.133   8.399   8.383  0.9751 -0.9177 -1.1625
44454SOL     OW38172   9.106  11.402   3.346 -0.5563 -0.5081 -0.3099
44454SOL    HW138173   9.193  11.379   3.381  0.6521  2.3076 -1.1437
44454SOL    HW238174   9.110  11.378   3.254 -1.1103 -1.4322 -0.0993
44455SOL     OW38175   1.119  12.427  10.638  0.0961  0.4138 -0.4503
44455SOL    HW138176   1.079  12.403  10.555 -0.8106  1.7129 -0.4269
44455SOL    HW238177   1.047  12.427  10.701  0.8667 -1.0869  0.4786
44456SOL     OW38178   5.058   4.793  12.119  0.2101 -0.0820 -0.3130
44456SOL    HW138179   4.973   4.753  12.135  0.4244 -0.0607  1.0538
44456SOL    HW238180   5.046   4.886  12.140  0.3311  0.1061 -1.0621
44457SOL     OW38181   2.856   7.800   4.910  0.6530 -0.2249 -0.6423
44457SOL    HW138182   2.851   7.711   4.945 -0.9225  0.4768  1.0739
44457SOL    HW238183   2.948   7.811   4.885  1.0315 -2.0736 -0.2061
44458SOL     OW38184   5.285   9.989   4.853 -0.0071 -0.0185 -0.3408
44458SOL    HW138185   5.265  10.082   4.869  4.9660  1.2752 -0.0652
44458SOL    HW238186   5.286   9.950   4.941 -2.4366 -0.5619 -0.4805
44459SOL     OW38187  11.850   1.259   5.037 -0.3988  0.2998 -0.0362
44459SOL    HW138188  11.926   1.298   4.994  0.3277 -0.8660  0.1468
44459SOL    HW238189  11.792   1.234   4.966 -0.7915  1.5020 -0.1646
44460SOL     OW38190   5.657   1.850   0.016  0.2312 -0.1883 -0.0145
44460SOL    HW138191   5.679   1.940  -0.011 -0.2608 -0.0008  0.1900
44460SOL    HW238192   5.741   1.806   0.021  0.5551  0.4825  0.6462
44461SOL     OW38193   3.980   6.088   7.279 -0.5869  0.6237  0.5292
44461SOL    HW138194   3.941   6.171   7.253 -1.1748  0.3076  0.3713
44461SOL    HW238195   4.051   6.074   7.217 -1.1873  0.4787 -0.1412
44462SOL     OW38196   6.666   6.375   7.310  0.1398 -0.3584 -0.3026
44462SOL    HW138197   6.688   6.467   7.327  2.4649 -0.8558 -0.3230
44462SOL    HW238198   6.638   6.341   7.395 -0.4452  0.2711 -0.2324
44463SOL     OW38199   4.687   1.729   1.787  0.5168 -0.2638 -0.2511
44463SOL    HW138200   4.669   1.809   1.737  1.6773  0.7391  0.8617
44463SOL    HW238201   4.602   1.704   1.823  0.1945  0.6850 -0.3163
44464SOL     OW38202   1.125   7.889   5.833  0.1744  0.1112  0.0438
44464SOL    HW138203   1.117   7.798   5.803  0.6266  0.0090  0.2147
44464SOL    HW238204   1.210   7.918   5.799 -0.1995  0.6465 -0.4529
44465SOL     OW38205   1.414   1.834   3.398  0.3435 -0.0053 -0.1590
44465SOL    HW138206   1.459   1.788   3.327  2.8115  1.1217  0.5524
44465SOL    HW238207   1.376   1.911   3.357 -1.1006 -1.0164 -0.7915
44466SOL     OW38208   8.989  11.756   2.863 -0.0783 -0.1833  0.1808
44466SOL    HW138209   8.897  11.739   2.884 -0.0018 -0.2933  0.4329
44466SOL    HW238210   9.016  11.821   2.928 -0.4653  1.1671 -0.9733
44467SOL     OW38211   3.626   9.103   4.773  0.0691 -0.0623 -0.1626
44467SOL    HW138212   3.632   9.192   4.738  2.2878 -0.6533 -1.5047
44467SOL    HW238213   3.532   9.090   4.789 -0.2349  2.7968  0.9985
44468SOL     OW38214   0.359   8.437  12.625 -0.6651 -0.3323 -0.5397
44468SOL    HW138215   0.432   8.498  12.632 -0.1979 -0.8844 -0.4969
44468SOL    HW238216   0.364   8.384  12.704 -0.9902 -0.5093 -0.6350
44469SOL     OW38217   6.943   6.509   2.426 -0.1423  0.0289  0.2377
44469SOL    HW138218   6.892   6.531   2.504 -0.9992 -1.8927  0.2911
44469SOL    HW238219   7.010   6.449   2.458  0.0447 -0.0818 -0.3592
44470SOL     OW38220   0.553   9.631   1.794  0.5147  0.0449 -0.8207
44470SOL    HW138221   0.506   9.652   1.713 -1.2619 -2.2223 -0.4814
44470SOL    HW238222   0.536   9.706   1.851 -2.0190 -0.2578 -1.0614
44471SOL     OW38223   2.959   6.785   2.514  0.1497  0.8444  0.1887
44471SOL    HW138224   2.937   6.706   2.564  0.8482  0.6955  0.2782
44471SOL    HW238225   2.900   6.783   2.439 -0.2014  0.5187  0.4659
44472SOL     OW38226  11.966   3.315   0.473 -0.3738  0.3314 -0.1787
44472SOL    HW138227  12.029   3.288   0.540 -1.5962 -0.6605  0.6268
44472SOL    HW238228  12.019   3.337   0.397  0.9477 -0.2845  0.5352
44473SOL     OW38229   9.548   0.400   2.765  0.1818 -0.4619 -0.2235
44473SOL    HW138230   9.533   0.437   2.678 -0.7010  0.5621  0.3381
44473SOL    HW238231   9.460   0.381   2.799  0.5009 -0.6808  0.5161
44474SOL     OW38232   5.775   2.805   6.845  0.0128  0.0183 -0.1978
44474SOL    HW138233   5.826   2.885   6.858  0.6054 -0.4870  0.7527
44474SOL    HW238234   5.766   2.797   6.750  0.5876  0.8159 -0.3298
44475SOL     OW38235   4.800   3.507   1.458  0.1841  0.0049 -0.1079
44475SOL    HW138236   4.810   3.457   1.539 -3.7240 -0.3871  0.3342
44475SOL    HW238237   4.794   3.598   1.486  0.2235  0.0125 -0.1239
44476SOL     OW38238   3.459  10.887   7.730 -0.3269 -0.8288 -0.5663
44476SOL    HW138239   3.365  10.897   7.745 -0.0694 -0.8158  1.1787
44476SOL    HW238240   3.493  10.977   7.726 -0.3131 -0.8396 -0.7025
44477SOL     OW38241   0.545  11.507   2.114  0.5869 -0.1379 -0.0804
44477SOL    HW138242   0.501  11.482   2.196  2.1898 -0.9284  0.5882
44477SOL    HW238243   0.599  11.583   2.137 -1.1760  1.5213 -1.1545
44478SOL     OW38244   5.659   3.358   0.269  0.0590  0.8021 -0.2926
44478SOL    HW138245   5.653   3.290   0.202 -0.0214  3.1995 -2.8465
44478SOL    HW238246   5.588   3.337   0.330 -0.0381 -1.2947 -1.0412
44479SOL     OW38247   3.245   7.319   9.982  0.3763 -0.2296 -0.6051
44479SOL    HW138248   3.264   7.401   9.936 -0.0711  0.6828  0.7724
44479SOL    HW238249   3.329   7.293  10.020  0.6007 -0.6310 -1.3529
44480SOL     OW38250   6.485   9.055   3.861 -0.1157  0.1289 -0.2399
44480SOL    HW138251   6.406   9.092   3.900 -0.4051 -0.3776 -0.3441
44480SOL    HW238252   6.552   9.064   3.929 -0.1779  0.8622 -0.2717
44481SOL     OW38253   6.255   5.525  11.794  0.3422 -0.5444 -0.6386
44481SOL    HW138254   6.350   5.531  11.803  0.2616 -0.4238  0.1644
44481SOL    HW238255   6.235   5.580  11.718  0.9340 -0.7517 -0.9507
44482SOL     OW38256  11.666   0.306   6.259  0.4459 -0.2413  0.3290
44482SOL    HW138257  11.745   0.350   6.290 -0.8796  2.5094  0.0710
44482SOL    HW238258  11.594   0.364   6.286 -1.4208 -2.1048 -0.3752
44483SOL     OW38259   3.232   7.527  12.338 -0.0283 -0.4087 -0.1483
44483SOL    HW138260   3.162   7.586  12.310  1.2311  1.1540 -0.1629
44483SOL    HW238261   3.192   7.472  12.405 -0.9063  1.4744  0.9659
44484SOL     OW38262  12.388  10.224   5.593  0.3665 -0.0454  0.1020
44484SOL    HW138263  12.395  10.286   5.521  1.9453  0.7119  0.8825
44484SOL    HW238264  12.456  10.159   5.576  1.9475  1.0798  1.7508
44485SOL     OW38265  11.108   4.395   3.142  0.2843 -0.4737 -0.1179
44485SOL    HW138266  11.095   4.422   3.051  2.3644 -0.2802 -0.3964
44485SOL    HW238267  11.047   4.322   3.154  0.7764 -1.2614 -2.0438
44486SOL     OW38268  10.975  10.876   7.817  0.3848  0.5265 -0.4039
44486SOL    HW138269  10.907  10.822   7.857  1.3094  0.2440  0.8675
44486SOL    HW238270  11.056  10.827   7.832  0.8868  0.8598 -1.8766
44487SOL     OW38271  11.569   5.136   9.867 -0.0189  0.1827  0.2316
44487SOL    HW138272  11.547   5.229   9.859  0.0573  0.1823  0.0110
44487SOL    HW238273  11.532   5.110   9.951  0.7565  0.6366  0.7156
44488SOL     OW38274  11.558   8.085   9.661  0.2053  0.2490 -0.7545
44488SOL    HW138275  11.587   8.051   9.577  0.0557 -1.4818 -0.1550
44488SOL    HW238276  11.606   8.033   9.726  0.3932  1.6029  0.2422
44489SOL     OW38277  11.596   8.571   7.134  0.3002  0.1379  0.5748
44489SOL    HW138278  11.503   8.595   7.137 -0.0607 -1.1986  0.8737
44489SOL    HW238279  11.626   8.604   7.049 -1.2413 -1.9914 -0.8957
44490SOL     OW38280  12.547   5.796   4.409  0.6321  0.3862 -0.1170
44490SOL    HW138281  12.529   5.840   4.326 -0.5102  1.1583  0.5131
44490SOL    HW238282  12.462   5.792   4.452  1.2770  0.2902  1.1712
44491SOL     OW38283   4.146   4.815   8.963 -0.8486 -0.4133  0.0657
44491SOL    HW138284   4.202   4.815   8.886  1.1731 -0.9360  1.4740
44491SOL    HW238285   4.085   4.742   8.947  0.0051 -0.9867 -0.7061
44492SOL     OW38286   2.201   6.731   0.061 -0.3496 -0.4908  0.0246
44492SOL    HW138287   2.295   6.744   0.051 -0.3480  1.7793  2.1330
44492SOL    HW238288   2.191   6.637   0.076  1.6147 -0.7068  0.1988
44493SOL     OW38289  12.579   1.435  10.836 -0.2100 -0.2102  0.2442
44493SOL    HW138290  12.626   1.419  10.754 -1.3098 -0.0097 -0.4449
44493SOL    HW238291  12.488   1.414  10.816 -0.6744  0.8807  1.1073
44494SOL     OW38292   1.198   6.867   1.624  0.6712 -0.4473  0.5035
44494SOL    HW138293   1.198   6.925   1.700 -0.9757  0.5852 -0.2345
44494SOL    HW238294   1.110   6.873   1.588  1.8000  0.4033 -2.4642
44495SOL     OW38295   0.160  11.063   0.873  0.4874  0.5720  0.6050
44495SOL    HW138296   0.068  11.058   0.849  0.7099  1.4036 -0.5427
44495SOL    HW238297   0.198  10.980   0.843  0.4013  0.8650 -0.3411
44496SOL     OW38298   2.617   0.193  11.941  0.1358 -0.5758 -0.0648
44496SOL    HW138299   2.560   0.135  11.992  0.4680 -1.1280 -0.3051
44496SOL    HW238300   2.593   0.281  11.969  1.4235 -0.8799  2.2951
44497SOL     OW38301  10.804   4.864   5.905  0.0566 -0.1696  0.3685
44497SOL    HW138302  10.856   4.821   5.972 -0.1949  1.0830  1.4087
44497SOL    HW238303  10.717   4.875   5.944 -0.5068 -0.6964 -0.7001
44498SOL     OW38304   0.081   8.311   8.659  0.0967  0.0822 -0.5875
44498SOL    HW138305   0.010   8.334   8.719 -0.1798 -1.3818 -0.2995
44498SOL    HW238306   0.117   8.395   8.629  0.9318  0.8926  2.3929
44499SOL     OW38307   2.251   1.774   8.779  0.0028  0.0650 -0.3846
44499SOL    HW138308   2.179   1.836   8.767  0.8360  1.0092 -0.6144
44499SOL    HW238309   2.328   1.829   8.797  0.4940 -0.9473  0.8150
44500SOL     OW38310   4.525   5.952   8.677  0.0348 -0.8768 -0.1644
44500SOL    HW138311   4.549   5.860   8.662  0.0401 -1.1238  1.2714
44500SOL    HW238312   4.510   5.987   8.589 -1.0221 -2.5371 -0.6916
44501SOL     OW38313   9.442   9.306   8.197  0.3265 -0.0620  0.6472
44501SOL    HW138314   9.506   9.240   8.170 -2.1233 -2.1635 -0.5014
44501SOL    HW238315   9.492   9.387   8.203  2.9307 -1.4182 -0.8658
44502SOL     OW38316   1.315   3.830   9.948 -0.7206 -0.9163  0.0485
44502SOL    HW138317   1.389   3.837  10.010 -0.5945  0.9685 -0.2455
44502SOL    HW238318   1.352   3.858   9.864 -1.4968 -1.0553 -0.3437
44503SOL     OW38319   0.097   9.538   7.455 -0.1079  0.4179  0.6789
44503SOL    HW138320   0.092   9.605   7.387  0.3898  0.7249  0.9316
44503SOL    HW238321   0.091   9.588   7.537 -0.7474  0.0516  0.8667
44504SOL     OW38322   6.139   2.622   9.329  0.4721  0.0793  0.1314
44504SOL    HW138323   6.124   2.558   9.399 -0.4958 -0.8787 -0.9107
44504SOL    HW238324   6.073   2.690   9.345  0.8500  0.3257  0.6661
44505SOL     OW38325   6.667  11.371   3.172 -0.5758 -0.0299 -0.4801
44505SOL    HW138326   6.620  11.316   3.235  0.2148  1.1697  1.1994
44505SOL    HW238327   6.708  11.309   3.112 -0.5729 -1.2425  0.7397
44506SOL     OW38328  10.287   7.782   7.411 -0.1151  0.1254  0.4024
44506SOL    HW138329  10.267   7.829   7.492  2.0746  0.8391  0.5948
44506SOL    HW238330  10.336   7.845   7.358 -0.2921 -0.7885 -0.8994
44507SOL     OW38331   3.731   7.023   9.329  0.2724 -0.0098  0.2465
44507SOL    HW138332   3.806   7.064   9.371 -1.2344  0.6539  2.4829
44507SOL    HW238333   3.745   6.929   9.340  0.6941  0.1159  0.7874
44508SOL     OW38334   0.400   8.375   5.656 -0.2911  0.2108  0.2600
44508SOL    HW138335   0.414   8.284   5.630 -0.6026  0.8166 -2.3013
44508SOL    HW238336   0.315   8.376   5.699  1.4524 -1.3190  4.1902
44509SOL     OW38337   3.752  10.244   6.937  0.5370  0.0698 -0.4378
44509SOL    HW138338   3.662  10.254   6.968  1.1350  1.0212  1.0691
44509SOL    HW238339   3.774  10.153   6.958 -0.2966 -0.3932 -1.4913
44510SOL     OW38340   0.544   2.582   0.186 -0.3250 -0.2106 -0.1709
44510SOL    HW138341   0.574   2.593   0.096 -1.4405  1.3143 -0.4017
44510SOL    HW238342   0.499   2.498   0.186  0.0873 -0.4430 -0.9047
44511SOL     OW38343   8.363  10.046   3.162  0.6486 -0.5976  0.0906
44511SOL    HW138344   8.452  10.014   3.179  1.3915  1.5565  0.6302
44511SOL    HW238345   8.315  10.024   3.242  0.9754 -0.8924  0.2099
44512SOL     OW38346   7.027   0.584  11.581  0.3644  0.1003  0.1881
44512SOL    HW138347   7.070   0.577  11.496 -0.0220 -1.2568  0.0804
44512SOL    HW238348   7.090   0.546  11.643  0.0848 -0.1766  0.3037
44513SOL     OW38349   1.919   0.292   3.816 -0.4167  0.6224  0.3936
44513SOL    HW138350   1.907   0.234   3.891  0.6581 -0.1865 -0.0276
44513SOL    HW238351   1.959   0.371   3.852  0.8503 -0.0842  0.5883
44514SOL     OW38352   2.271   5.308   1.129 -0.1397 -0.0067 -0.1205
44514SOL    HW138353   2.350   5.353   1.098 -0.5748  0.3581 -0.7384
44514SOL    HW238354   2.294   5.216   1.128 -0.0510  0.0026 -1.3613
44515SOL     OW38355   9.632   7.097   8.226 -0.5063 -0.1531  0.5928
44515SOL    HW138356   9.648   7.154   8.301 -0.3362  0.2642  0.2461
44515SOL    HW238357   9.719   7.078   8.191 -0.6733  1.2015 -0.6289
44516SOL     OW38358   6.486   4.816   5.589 -0.7859  0.5275  0.3696
44516SOL    HW138359   6.438   4.897   5.607  1.6175  1.8011  1.4763
44516SOL    HW238360   6.481   4.767   5.671 -0.0037  0.7764  0.5667
44517SOL     OW38361   8.840   4.875   0.960  0.2235  0.0646 -0.2649
44517SOL    HW138362   8.750   4.884   0.992  0.1918 -1.0487  0.0265
44517SOL    HW238363   8.839   4.913   0.873 -0.8064 -0.8930 -0.6949
44518SOL     OW38364   2.835   7.517   5.930 -0.3328  0.1040 -0.4365
44518SOL    HW138365   2.871   7.519   6.019 -2.2657 -0.8139  0.4330
44518SOL    HW238366   2.912   7.512   5.873  1.0033  1.7857  1.1065
44519SOL     OW38367   6.742   8.321   0.892  0.2448  0.2408 -0.3472
44519SOL    HW138368   6.757   8.269   0.971 -1.5256  0.4406  0.1518
44519SOL    HW238369   6.820   8.376   0.885  0.7263 -0.2477  0.8851
44520SOL     OW38370  12.639   7.980   1.213 -0.1324  0.1017  0.3109
44520SOL    HW138371  12.576   7.936   1.270  0.6726 -0.8880  0.4843
44520SOL    HW238372  12.659   7.916   1.145  0.0575  0.7107 -0.2219
44521SOL     OW38373   4.896   0.769   3.712 -0.2171 -0.5565  0.2367
44521SOL    HW138374   4.849   0.790   3.792 -0.9922 -0.8606 -0.1317
44521SOL    HW238375   4.873   0.840   3.651 -1.8530 -1.7363 -0.6040
44522SOL     OW38376   3.165  12.504   6.010 -0.2095  0.0154 -0.2399
44522SOL    HW138377   3.188  12.573   6.072 -0.0632  0.3824 -0.7002
44522SOL    HW238378   3.108  12.546   5.946 -1.2928 -0.6292  0.2680
44523SOL     OW38379   3.511   4.798   8.729 -0.3360 -0.4762 -0.3907
44523SOL    HW138380   3.544   4.888   8.734  0.9902 -0.8414 -1.6661
44523SOL    HW238381   3.520   4.765   8.818 -0.5606  0.5524  0.0341
44524SOL     OW38382  12.412   5.814  11.282  0.2979  0.1878  0.1836
44524SOL    HW138383  12.337   5.867  11.310  0.3509  0.2226  0.2607
44524SOL    HW238384  12.397   5.728  11.321  0.6236  0.3747  0.7384
44525SOL     OW38385   9.986   0.001   0.027  0.3580 -0.3050 -1.2747
44525SOL    HW138386   9.899   0.038   0.043 -0.4871 -1.6818 -2.4494
44525SOL    HW238387  10.014  -0.031   0.113 -0.0529  0.6221 -0.7791
44526SOL     OW38388   5.329   7.686   3.015  0.2705  0.5926  1.2844
44526SOL    HW138389   5.381   7.760   3.049 -0.2630  0.5168  2.3049
44526SOL    HW238390   5.260   7.673   3.080 -0.9448  0.5721  0.0403
44527SOL     OW38391   5.001  12.368   5.055  0.1476  0.1648 -0.3294
44527SOL    HW138392   5.042  12.311   4.990  1.2482 -0.3943  0.8075
44527SOL    HW238393   4.909  12.343   5.055  0.4638 -1.0501 -0.4196
44528SOL     OW38394   5.179   8.586  11.485 -0.3621 -0.3694 -0.6109
44528SOL    HW138395   5.097   8.604  11.533  0.2889  0.2094  0.3220
44528SOL    HW238396   5.193   8.665  11.433 -0.5757 -0.6115 -1.0361
44529SOL     OW38397   4.594   2.919   7.947 -0.6564 -0.0321 -0.0708
44529SOL    HW138398   4.574   2.865   7.870  2.4595  0.0884 -1.0975
44529SOL    HW238399   4.598   3.008   7.914 -2.3607  0.4623  0.9340
44530SOL     OW38400   9.591   1.613   0.215 -0.2688 -0.3549  0.1382
44530SOL    HW138401   9.532   1.687   0.198 -1.1574 -1.0170  0.2838
44530SOL    HW238402   9.558   1.574   0.295  1.0711 -0.0698  0.8584
44531SOL     OW38403   0.201   2.181  10.095  0.5523 -0.5208 -0.3817
44531SOL    HW138404   0.157   2.237  10.031 -0.5104  0.8988  1.4842
44531SOL    HW238405   0.132   2.155  10.155  2.0340  1.0286  2.1451
44532SOL     OW38406   1.264   0.203   3.919 -0.0694 -0.1436 -0.5164
44532SOL    HW138407   1.253   0.202   3.824 -1.2942 -1.2735 -0.3953
44532SOL    HW238408   1.305   0.119   3.939  0.4698  0.2187 -0.0679
44533SOL     OW38409   4.176  11.013   5.173 -0.3836 -0.7259 -0.2739
44533SOL    HW138410   4.264  10.984   5.197 -0.7375 -0.5375  1.4275
44533SOL    HW238411   4.118  10.968   5.234 -1.3024  0.4764 -0.1995
44534SOL     OW38412  10.041   0.772   1.377 -0.1565 -0.3843 -0.2834
44534SOL    HW138413   9.991   0.790   1.457  0.3463  0.2311 -0.0878
44534SOL    HW238414   9.988   0.710   1.328 -1.5657  0.9397 -0.5236
44535SOL     OW38415   5.633   8.622  11.236  0.5179  0.3440  0.2334
44535SOL    HW138416   5.640   8.704  11.284 -2.1408  2.4357 -2.5601
44535SOL    HW238417   5.683   8.635  11.156 -1.1761 -0.0947 -0.9592
44536SOL     OW38418  12.057  11.106   1.348 -0.5008  0.3917  0.1349
44536SOL    HW138419  12.134  11.053   1.365 -1.1860 -0.5266  0.4706
44536SOL    HW238420  12.025  11.132   1.435 -1.8085 -1.0906  0.1417
44537SOL     OW38421  10.799   1.150   7.793  0.2491  0.0050  0.1750
44537SOL    HW138422  10.816   1.244   7.785 -0.0948  0.0699  0.2134
44537SOL    HW238423  10.760   1.140   7.880 -0.2839 -0.0912 -0.0721
44538SOL     OW38424   9.596   5.527   6.400 -0.2352  0.2519 -0.1771
44538SOL    HW138425   9.681   5.549   6.436 -0.6982  0.1979  0.9826
44538SOL    HW238426   9.554   5.473   6.467 -1.7279  1.4523 -0.0800
44539SOL     OW38427   3.906   0.276   8.098 -0.1251  0.0786 -0.4209
44539SOL    HW138428   3.970   0.244   8.034  0.0736  1.6083 -1.0256
44539SOL    HW238429   3.863   0.350   8.054  1.7596  2.8839  2.0260
44540SOL     OW38430  10.822  11.054  10.339 -0.4226  0.5782 -0.0892
44540SOL    HW138431  10.888  10.985  10.335 -0.3511  0.6429 -0.0490
44540SOL    HW238432  10.783  11.045  10.426 -0.4812  0.5265 -0.1212
44541SOL     OW38433   4.282   7.590   5.611 -0.1063 -0.0155 -0.1414
44541SOL    HW138434   4.226   7.645   5.666 -0.3495 -0.6324  0.2369
44541SOL    HW238435   4.231   7.577   5.531  0.5252  1.4372 -0.8191
44542SOL     OW38436  10.011  10.848  10.357  0.5979 -0.0175 -0.5830
44542SOL    HW138437   9.949  10.831  10.286 -0.5011 -1.4459  0.6430
44542SOL    HW238438   9.956  10.863  10.434  1.7702 -0.0612  0.2941
44543SOL     OW38439  11.087   4.008   6.850 -0.0034 -0.2324 -0.2352
44543SOL    HW138440  11.110   3.984   6.761  1.2806  0.4437 -0.1042
44543SOL    HW238441  11.043   4.093   6.841 -1.7295 -1.0886 -0.3897
44544SOL     OW38442   5.298   6.332   1.919 -0.4769  0.5864 -0.1948
44544SOL    HW138443   5.298   6.400   1.852 -0.9547  0.7468 -0.0327
44544SOL    HW238444   5.224   6.276   1.897 -1.2403  1.1988  0.7571
44545SOL     OW38445   0.305   8.044   5.145  0.0948  0.3922  0.7105
44545SOL    HW138446   0.212   8.024   5.129  0.2359  0.9141 -0.9479
44545SOL    HW238447   0.322   8.009   5.233 -2.2049  2.2044  1.9803
44546SOL     OW38448   3.900   6.246   0.161  0.2770  0.0306  0.0315
44546SOL    HW138449   3.837   6.317   0.148 -0.2129  0.0270  1.9952
44546SOL    HW238450   3.967   6.284   0.218  1.3646 -0.3731 -0.9360
44547SOL     OW38451   7.007  12.618   6.462 -0.1653 -0.0459 -0.1780
44547SOL    HW138452   7.018  12.676   6.387 -1.7846  0.1819 -0.2624
44547SOL    HW238453   7.054  12.538   6.438 -0.9389 -0.1020 -1.5616
44548SOL     OW38454   5.265   5.261   8.413 -0.9833 -0.7340 -0.7268
44548SOL    HW138455   5.345   5.221   8.380  0.2278  2.3882 -1.9903
44548SOL    HW238456   5.194   5.211   8.373  0.3723 -2.0660 -1.5510
44549SOL     OW38457   2.074   1.771   3.422  0.1088  0.1788 -0.6583
44549SOL    HW138458   2.054   1.833   3.352  0.7242  1.1635  0.0063
44549SOL    HW238459   2.169   1.762   3.419  0.2349  0.8571  0.5334
44550SOL     OW38460   1.050   3.046   6.634 -0.1157  0.1178 -0.1615
44550SOL    HW138461   1.009   2.976   6.584  0.3207  0.8541 -1.6047
44550SOL    HW238462   0.984   3.071   6.698 -0.7035 -0.8473 -0.3675
44551SOL     OW38463   1.851   9.410   8.983 -0.3172  0.3509 -0.1904
44551SOL    HW138464   1.820   9.494   9.017 -1.4935 -0.3052  0.4518
44551SOL    HW238465   1.945   9.409   9.004 -0.3019  1.4513 -0.1252
44552SOL     OW38466  11.660  12.398  11.934 -0.0428 -0.2931  0.4784
44552SOL    HW138467  11.748  12.412  11.969  0.4541 -1.3217 -0.3046
44552SOL    HW238468  11.631  12.315  11.972  0.3695 -1.2521 -1.2014
44553SOL     OW38469   9.692  10.853   0.918 -0.4070 -0.4413 -0.2662
44553SOL    HW138470   9.639  10.894   0.986  0.2598 -0.3732  0.2288
44553SOL    HW238471   9.692  10.916   0.846  0.1345  0.1921  0.2682
44554SOL     OW38472  10.475  12.585   2.096 -0.2944 -0.4770 -0.4226
44554SOL    HW138473  10.404  12.531   2.061 -0.9017  0.1262 -0.1372
44554SOL    HW238474  10.480  12.561   2.189 -0.3547 -0.2729 -0.3663
44555SOL     OW38475   7.086   6.353   8.806 -0.0956  0.3288 -0.1233
44555SOL    HW138476   7.058   6.326   8.893 -0.3760 -3.2411 -1.1778
44555SOL    HW238477   7.154   6.290   8.781  0.3612  1.5608 -2.2888
44556SOL     OW38478   1.345   0.421   2.627  0.0526 -0.2456 -0.1484
44556SOL    HW138479   1.370   0.359   2.695  0.8539  1.0213  0.7607
44556SOL    HW238480   1.426   0.440   2.580 -0.3368 -0.4681 -0.9330
44557SOL     OW38481   6.568   7.359   0.364  0.2338  0.4121 -1.1996
44557SOL    HW138482   6.495   7.347   0.303 -0.5258  1.5904 -0.5494
44557SOL    HW238483   6.628   7.417   0.318 -0.7950  2.1013 -0.5082
44558SOL     OW38484   4.502  10.933   8.404 -0.1461 -0.5144  0.5557
44558SOL    HW138485   4.431  10.870   8.417 -0.3530 -0.4404 -0.1517
44558SOL    HW238486   4.478  11.007   8.460 -0.9491 -0.2433 -0.1321
44559SOL     OW38487   2.853   1.002   8.650 -0.3547 -0.1085  0.3621
44559SOL    HW138488   2.863   1.080   8.596 -0.3478 -0.8305 -0.7194
44559SOL    HW238489   2.930   1.002   8.707 -1.0061  1.3411  1.2750
44560SOL     OW38490   9.280  11.432   6.538 -0.2220 -0.1235  0.9965
44560SOL    HW138491   9.237  11.407   6.457 -2.3238 -1.6556  2.4783
44560SOL    HW238492   9.358  11.481   6.510 -1.6417  0.7036 -1.8591
44561SOL     OW38493   3.010   9.571   9.689  0.4358 -0.5382  0.3876
44561SOL    HW138494   3.089   9.523   9.713  0.4191 -0.7074  0.1164
44561SOL    HW238495   2.945   9.502   9.673  0.5463 -0.4464 -0.4789
44562SOL     OW38496   6.757   6.585  12.632  0.6474  0.1060  0.1629
44562SOL    HW138497   6.824   6.519  12.613  0.0588 -0.6997  0.8621
44562SOL    HW238498   6.683   6.536  12.666 -0.4246  0.9533 -0.8545
44563SOL     OW38499   9.371  12.331   3.655 -0.0211  0.0730 -0.2758
44563SOL    HW138500   9.452  12.330   3.706 -1.7137 -0.0795  2.6214
44563SOL    HW238501   9.338  12.420   3.664 -2.6100 -1.0005  3.0247
44564SOL     OW38502  11.347   9.869   1.901  0.5394 -0.6378  0.1838
44564SOL    HW138503  11.418   9.933   1.898  0.6347 -0.7791 -0.7205
44564SOL    HW238504  11.278   9.907   1.847  0.1126 -0.7333  0.6515
44565SOL     OW38505  12.087   7.375  10.981 -0.3528  0.2183 -0.0601
44565SOL    HW138506  12.050   7.452  10.938 -0.6238  0.4407  0.5656
44565SOL    HW238507  12.133   7.328  10.911 -2.6236 -0.6038 -1.0803
44566SOL     OW38508   7.466   0.924   3.001 -0.6907 -0.4467 -0.1561
44566SOL    HW138509   7.461   0.972   2.918 -0.3090 -0.0891  0.0219
44566SOL    HW238510   7.479   0.833   2.976  2.7172  0.0041 -0.5328
44567SOL     OW38511   5.793   7.144   0.547  0.0492  0.0328  0.3750
44567SOL    HW138512   5.782   7.201   0.623 -1.4213  0.5299 -0.1790
44567SOL    HW238513   5.888   7.138   0.535  0.2646  2.7792  0.1540
44568SOL     OW38514   7.301   0.867   6.142  0.0419  0.5643 -0.3804
44568SOL    HW138515   7.205   0.874   6.138  0.1332  2.3610 -0.3590
44568SOL    HW238516   7.320   0.849   6.234 -0.2526  1.0095 -0.2283
44569SOL     OW38517   0.362   0.699   5.216  0.2802  0.2822  0.3769
44569SOL    HW138518   0.320   0.682   5.300 -0.5911  3.5036  0.7209
44569SOL    HW238519   0.444   0.742   5.237  0.0612  1.1179 -0.3641
44570SOL     OW38520   9.219   0.205  12.008  0.7180 -0.5668  0.4709
44570SOL    HW138521   9.308   0.178  12.033  1.2575 -0.7004 -1.4172
44570SOL    HW238522   9.232   0.262  11.932 -0.6820  1.5548  1.7153
44571SOL     OW38523   4.911   0.915   5.201  0.2122  0.9047  0.1083
44571SOL    HW138524   4.989   0.887   5.249 -0.6681  0.0795  1.0734
44571SOL    HW238525   4.906   0.855   5.126 -0.1504  0.2069  0.6881
44572SOL     OW38526   9.386   7.804   4.517  0.6237  0.4353 -0.1036
44572SOL    HW138527   9.465   7.844   4.480  2.4873 -2.1454  0.7341
44572SOL    HW238528   9.385   7.716   4.479 -1.1967  0.0124  0.8358
44573SOL     OW38529   2.552   2.500  10.889 -0.0239  0.0618  0.6377
44573SOL    HW138530   2.547   2.573  10.828 -2.5026  1.1569  1.9978
44573SOL    HW238531   2.469   2.454  10.878  0.0394 -0.4922  2.2287
44574SOL     OW38532   2.284   9.771  10.762 -0.0003  0.0760 -0.1433
44574SOL    HW138533   2.317   9.856  10.792 -0.1300 -0.1493  0.6520
44574SOL    HW238534   2.192   9.771  10.788 -0.2148  0.0141 -0.8668
44575SOL     OW38535   7.913   9.432  11.615  0.0392  0.1537  0.0992
44575SOL    HW138536   7.919   9.507  11.674  1.8286 -0.0147  0.1811
44575SOL    HW238537   7.895   9.358  11.673  1.0272  0.1106  0.3752
44576SOL     OW38538   2.028   4.620  11.367 -0.0340  0.1707 -0.6111
44576SOL    HW138539   1.999   4.639  11.456  0.5051  1.7581 -0.7515
44576SOL    HW238540   2.109   4.570  11.378 -1.5892 -2.4744 -0.2372
44577SOL     OW38541   8.265   4.161   2.558  0.5271  0.6401 -0.2593
44577SOL    HW138542   8.318   4.144   2.635  0.1368 -1.6199 -0.4380
44577SOL    HW238543   8.292   4.249   2.529  1.7704  0.8874  1.5214
44578SOL     OW38544   8.921  10.199  11.633 -0.2581  0.1062  0.0755
44578SOL    HW138545   8.975  10.273  11.662 -1.3056  0.7503  0.4656
44578SOL    HW238546   8.877  10.169  11.712 -4.4147  2.9178 -0.8393
44579SOL     OW38547   4.095  11.050   1.623 -0.4782  0.2677 -0.3451
44579SOL    HW138548   4.100  11.099   1.541 -1.6354 -1.7966 -1.7216
44579SOL    HW238549   4.166  10.986   1.617 -0.9338 -0.2757  0.0146
44580SOL     OW38550   1.811   4.899   3.703  0.3505  0.2270  0.1845
44580SOL    HW138551   1.799   4.960   3.775 -0.6099  1.9246 -1.3253
44580SOL    HW238552   1.728   4.852   3.696  0.8246 -0.7552  0.8514
44581SOL     OW38553   1.145   3.111   6.944 -0.3420  0.5703 -0.4466
44581SOL    HW138554   1.084   3.071   6.881  1.5248 -0.9948 -1.3575
44581SOL    HW238555   1.176   3.190   6.899  3.0679 -1.9111 -2.9332
44582SOL     OW38556   3.250   0.586   0.131 -0.4893  0.7535  1.1503
44582SOL    HW138557   3.233   0.681   0.129 -3.2242  0.3771 -1.5567
44582SOL    HW238558   3.163   0.547   0.134  0.5223 -1.6786  0.7982
44583SOL     OW38559  10.256   9.694   4.060 -0.0026  0.3478  0.0504
44583SOL    HW138560  10.266   9.783   4.096  1.7421  0.2522 -0.1364
44583SOL    HW238561  10.344   9.657   4.062 -0.5733 -1.1119 -0.6168
44584SOL     OW38562  12.078   7.334   2.850  0.5030 -0.1064 -0.5859
44584SOL    HW138563  11.984   7.329   2.867  0.6086  1.4231  0.6972
44584SOL    HW238564  12.085   7.387   2.771  0.3063  1.6418  0.5111
44585SOL     OW38565   3.653   8.983   1.480  0.0406  0.0587  0.0184
44585SOL    HW138566   3.672   9.059   1.427  1.2330  0.6854  1.2849
44585SOL    HW238567   3.644   8.911   1.418  0.4687  0.9331 -1.0752
44586SOL     OW38568   4.450   5.863   7.913  0.5541  0.4640  0.3994
44586SOL    HW138569   4.469   5.861   8.007 -1.5259 -2.3302  0.8602
44586SOL    HW238570   4.528   5.825   7.872  1.2599  1.2313  0.9775
44587SOL     OW38571   3.805   4.950   3.711 -0.2441 -0.0882  0.3380
44587SOL    HW138572   3.901   4.954   3.708 -0.1899 -1.1867 -0.0002
44587SOL    HW238573   3.778   5.037   3.737  0.8612  0.1911  0.5978
44588SOL     OW38574   4.644  12.447   8.940 -0.5075 -0.8330 -0.1832
44588SOL    HW138575   4.621  12.495   9.019  0.0991 -0.0960 -0.4474
44588SOL    HW238576   4.732  12.414   8.957 -1.0757 -2.2783  0.1796
44589SOL     OW38577   9.185   2.984   9.301  0.3021  0.1471  0.0727
44589SOL    HW138578   9.150   3.011   9.216 -1.2766 -0.8391  0.3811
44589SOL    HW238579   9.280   2.984   9.288  0.2617  2.5630 -0.8911
44590SOL     OW38580   4.108   2.202   8.689  0.6476 -0.2244 -0.1104
44590SOL    HW138581   4.123   2.115   8.725 -1.8359 -0.2019  1.1999
44590SOL    HW238582   4.149   2.261   8.752 -0.9285 -0.3426  1.1015
44591SOL     OW38583   2.377   9.022   3.056  0.1467 -0.4410  0.4348
44591SOL    HW138584   2.294   9.034   3.103 -0.0726  0.3423 -0.1184
44591SOL    HW238585   2.400   9.110   3.026  0.0044 -0.9613 -1.3375
44592SOL     OW38586  12.484   9.877  12.456  0.1541  0.0638 -0.2415
44592SOL    HW138587  12.530   9.842  12.532  2.3161 -2.8023 -2.6193
44592SOL    HW238588  12.519   9.966  12.445  0.5310  0.1601  1.4614
44593SOL     OW38589   5.786   4.901   0.385 -0.5173 -0.4183  0.1521
44593SOL    HW138590   5.772   4.814   0.422  0.8380 -0.2843  1.0278
44593SOL    HW238591   5.831   4.884   0.302 -0.7996 -0.5647  0.0243
44594SOL     OW38592   9.671   2.650   3.704  0.1570  0.1348 -0.5240
44594SOL    HW138593   9.756   2.669   3.664  1.2963 -0.6165  1.3957
44594SOL    HW238594   9.681   2.677   3.795 -1.7915  0.3323 -0.3356
44595SOL     OW38595   3.219  12.139  12.290 -0.6387  0.0418 -0.1498
44595SOL    HW138596   3.154  12.175  12.230 -0.0028  1.1563 -0.1924
44595SOL    HW238597   3.266  12.073  12.239  0.1025  1.1959 -0.9874
44596SOL     OW38598   3.158  11.544   8.989  0.3767  0.8413 -0.1833
44596SOL    HW138599   3.124  11.510   9.072 -0.7267  0.4888 -0.7592
44596SOL    HW238600   3.199  11.627   9.012  0.3081  0.6234  0.7556
44597SOL     OW38601  12.041   8.220   8.816 -0.1573 -0.0425  0.2245
44597SOL    HW138602  11.977   8.217   8.745 -0.3117 -2.3044  0.3937
44597SOL    HW238603  12.048   8.130   8.846  1.3222  0.5518  1.8395
44598SOL     OW38604   0.849   9.792   9.240 -0.3425  0.2602 -0.0515
44598SOL    HW138605   0.794   9.861   9.203 -1.0501 -0.0136  0.4692
44598SOL    HW238606   0.927   9.791   9.185 -1.5374 -0.4196 -1.8256
44599SOL     OW38607   7.359   6.794   0.507 -0.6182  0.3109 -0.7149
44599SOL    HW138608   7.308   6.763   0.582  0.2854  1.7076  0.5396
44599SOL    HW238609   7.324   6.746   0.433 -2.1601 -0.4777  0.4619
44600SOL     OW38610   6.939   4.127   9.777 -0.2715 -0.3485 -0.3890
44600SOL    HW138611   6.942   4.109   9.683  0.6268  3.7440 -1.3645
44600SOL    HW238612   7.031   4.135   9.803 -0.5055 -1.5062  0.8904
44601SOL     OW38613   3.778   6.562  12.479  0.0505 -0.4416 -0.4776
44601SOL    HW138614   3.762   6.512  12.399 -0.9757 -0.6086 -0.1910
44601SOL    HW238615   3.871   6.551  12.497  0.6072  0.6844 -2.3575
44602SOL     OW38616   9.016  10.793  11.177 -0.0507 -0.4111 -0.0836
44602SOL    HW138617   8.971  10.808  11.094 -1.7565 -1.2524  0.6422
44602SOL    HW238618   8.956  10.739  11.227  1.7014 -1.3958  1.0522
44603SOL     OW38619   1.901   3.200   2.525  0.5095  0.1857 -0.2843
44603SOL    HW138620   1.869   3.227   2.612  0.7421  1.8614 -0.6727
44603SOL    HW238621   1.989   3.236   2.521  0.6592 -0.2640 -1.0580
44604SOL     OW38622   4.211   7.297   9.645  0.0556  0.0161 -0.0584
44604SOL    HW138623   4.175   7.210   9.666 -0.0438  0.4755  1.7666
44604SOL    HW238624   4.136   7.346   9.611 -0.8201  0.5466  2.4725
44605SOL     OW38625   2.702   8.224  12.617 -0.0108  0.0328 -0.2496
44605SOL    HW138626   2.631   8.255  12.561  0.3535  0.0536 -0.7047
44605SOL    HW238627   2.763   8.298  12.623 -0.2589  0.1868  0.5423
44606SOL     OW38628  10.481   0.601  10.116  0.1587  0.5935 -0.3065
44606SOL    HW138629  10.430   0.651  10.051 -0.3665  0.8957  0.3223
44606SOL    HW238630  10.493   0.663  10.188  3.5536  1.4038 -1.3900
44607SOL     OW38631   6.596  10.642   0.411  0.2160  0.0498  0.7954
44607SOL    HW138632   6.570  10.724   0.369  0.1371 -0.4568 -0.1778
44607SOL    HW238633   6.679  10.619   0.370 -1.3175 -2.0435 -1.4353
44608SOL     OW38634   2.085   5.924   4.264 -0.8567  0.6850 -0.8270
44608SOL    HW138635   2.097   5.838   4.224  0.9608 -0.2199  1.4470
44608SOL    HW238636   2.080   5.907   4.358  0.4273  3.0957 -0.2291
44609SOL     OW38637   0.722   4.808  11.473  0.5546 -0.6331  0.1129
44609SOL    HW138638   0.699   4.890  11.429 -1.1049 -2.0190 -1.8041
44609SOL    HW238639   0.660   4.801  11.545  1.0129 -0.0031  0.5774
44610SOL     OW38640   7.070   0.432   6.329 -0.1187 -0.1528 -0.0467
44610SOL    HW138641   7.007   0.446   6.259 -0.4318 -1.2333 -0.0051
44610SOL    HW238642   7.021   0.386   6.397 -0.0984  1.7917  1.3622
44611SOL     OW38643   6.048   3.681   2.064  0.5105  0.8302 -0.3061
44611SOL    HW138644   6.072   3.651   2.152 -0.9505 -2.6969 -0.9323
44611SOL    HW238645   6.044   3.601   2.012 -0.9449  2.5280 -3.0518
44612SOL     OW38646   4.965   4.151   9.002 -0.0780 -0.2010 -0.3055
44612SOL    HW138647   5.023   4.110   9.065  0.1313  0.0520 -0.3299
44612SOL    HW238648   4.881   4.158   9.047  0.4641  1.4077  0.5335
44613SOL     OW38649   6.237   4.992   7.902 -0.0292 -0.5773  0.0195
44613SOL    HW138650   6.162   5.015   7.957  0.6116 -0.7784  1.0019
44613SOL    HW238651   6.263   4.905   7.932  1.1804 -0.1293  0.3575
44614SOL     OW38652  10.138   1.650   8.920  0.1944 -0.2684  0.0606
44614SOL    HW138653  10.154   1.713   8.849  1.0292 -0.0182  0.4563
44614SOL    HW238654  10.194   1.575   8.899  1.0879  0.1471  0.8684
44615SOL     OW38655   8.072   9.509  10.772 -0.0998 -0.4747 -0.1227
44615SOL    HW138656   8.066   9.461  10.690 -2.8419  1.3939 -1.1896
44615SOL    HW238657   8.040   9.597  10.750 -1.7830 -0.1328  3.0954
44616SOL     OW38658   1.174  12.357   7.449 -0.4039  0.0163 -0.6765
44616SOL    HW138659   1.104  12.295   7.431  0.9088 -1.6795 -0.2185
44616SOL    HW238660   1.214  12.374   7.363  0.7368 -1.7067 -0.5301
44617SOL     OW38661   2.928   9.476   4.038 -0.5844 -0.1024 -0.0299
44617SOL    HW138662   2.834   9.458   4.036 -0.8883  1.3181  0.3092
44617SOL    HW238663   2.934   9.570   4.055  0.8939 -0.0285 -0.8277
44618SOL     OW38664   3.891  10.781   0.505  0.0421 -0.2920 -0.0590
44618SOL    HW138665   3.961  10.738   0.554 -0.2752 -0.6932  0.0498
44618SOL    HW238666   3.889  10.735   0.421 -0.8686 -1.0897  0.3722
44619SOL     OW38667   5.965   6.023  10.994 -0.4554  0.2008 -0.1561
44619SOL    HW138668   6.019   5.950  10.962 -0.0297 -0.5381  2.0804
44619SOL    HW238669   5.875   5.995  10.979 -0.2804 -0.4309 -0.0344
44620SOL     OW38670   5.220   4.265   1.107  0.0793  0.1091 -0.9356
44620SOL    HW138671   5.230   4.360   1.106  0.9436  0.0445 -0.1088
44620SOL    HW238672   5.295   4.233   1.158  0.2125 -1.0682 -1.8141
44621SOL     OW38673  12.076   0.669   3.845 -0.1810 -1.0669 -0.0515
44621SOL    HW138674  12.096   0.662   3.751  1.1236 -0.4344  0.1544
44621SOL    HW238675  11.985   0.641   3.852  0.4372 -3.6350 -1.1475
44622SOL     OW38676   1.795   3.104   4.588  0.6132  0.2954 -0.4576
44622SOL    HW138677   1.720   3.140   4.635  0.1186 -0.4941 -0.6222
44622SOL    HW238678   1.792   3.010   4.607  2.0141  0.3509  0.1714
44623SOL     OW38679   8.477   1.348   5.093  0.2461  0.0282  0.3553
44623SOL    HW138680   8.412   1.352   5.023  0.3662 -0.6231  0.1983
44623SOL    HW238681   8.428   1.371   5.172 -0.2234 -0.6213  0.2626
44624SOL     OW38682   8.240   2.362   0.694  0.4984  0.2718  0.1704
44624SOL    HW138683   8.306   2.430   0.689  0.4681  0.2312 -0.9513
44624SOL    HW238684   8.264   2.311   0.772  0.5873  1.4726  0.9474
44625SOL     OW38685   2.007   8.096   8.237 -0.0672 -0.1680 -0.0705
44625SOL    HW138686   1.912   8.099   8.244 -0.0481 -0.1573  0.2126
44625SOL    HW238687   2.038   8.156   8.305  0.1419 -0.1160 -0.2087
44626SOL     OW38688   8.794  11.182   0.534 -0.1093  0.1589 -0.5186
44626SOL    HW138689   8.867  11.172   0.595 -1.2672 -0.4590  0.8150
44626SOL    HW238690   8.819  11.129   0.458  0.5724 -0.5326  0.1729
44627SOL     OW38691   6.997   5.170   8.003 -0.1426  0.0336 -0.1926
44627SOL    HW138692   7.082   5.125   8.004 -0.1026  0.1156  0.0761
44627SOL    HW238693   6.937   5.108   8.045  0.1092  0.6158  1.0747
44628SOL     OW38694   0.914   4.656  10.636 -0.1544  0.4042  0.3199
44628SOL    HW138695   0.997   4.640  10.680  0.1030  1.1781  0.1370
44628SOL    HW238696   0.937   4.668  10.544 -0.6177 -0.5877  0.0597
44629SOL     OW38697   3.546  10.713   0.266 -0.4582  0.7134 -0.2814
44629SOL    HW138698   3.570  10.652   0.337 -3.2466  0.2976  0.4105
44629SOL    HW238699   3.491  10.779   0.309  0.9933  2.7531 -1.3837
44630SOL     OW38700   4.052  12.446   3.156  0.3633  0.1956  0.3129
44630SOL    HW138701   4.020  12.495   3.232  2.4121 -0.2401  1.5416
44630SOL    HW238702   3.998  12.367   3.154  0.1495  0.3108  1.2055
44631SOL     OW38703   0.413   9.036  11.878  0.2156  0.4964  0.1000
44631SOL    HW138704   0.380   8.948  11.859 -0.9310  0.5038  1.8156
44631SOL    HW238705   0.488   9.021  11.935  0.0926  0.6347  0.2961
44632SOL     OW38706  10.492   4.746   9.031  0.5160  0.3550 -0.0830
44632SOL    HW138707  10.437   4.754   9.109 -0.1572  0.4540 -0.5487
44632SOL    HW238708  10.581   4.760   9.062  0.3676 -0.6251  0.8318
44633SOL     OW38709   9.404   2.225   6.678  0.0674 -0.1363  0.1607
44633SOL    HW138710   9.345   2.248   6.605 -0.5078  0.0860  0.6826
44633SOL    HW238711   9.444   2.308   6.703 -1.5177  0.2626  1.6198
44634SOL     OW38712   2.754   4.230   3.152 -0.1498 -0.3051 -0.5532
44634SOL    HW138713   2.726   4.146   3.189 -3.4421  1.2584  0.9343
44634SOL    HW238714   2.831   4.254   3.204 -1.4254 -0.7285  1.6615
44635SOL     OW38715   7.731   7.632   8.215  0.1053  0.1326  0.2137
44635SOL    HW138716   7.679   7.685   8.274 -0.3197  0.5773 -0.5375
44635SOL    HW238717   7.684   7.548   8.211  0.6242 -0.2179  1.1805
44636SOL     OW38718   7.362  11.034   8.973  0.7480 -0.2665 -0.6449
44636SOL    HW138719   7.426  11.091   8.930  0.0775  0.5974 -0.5189
44636SOL    HW238720   7.371  11.055   9.066  1.1805 -1.0824 -0.4963
44637SOL     OW38721   7.407   4.762   3.735 -0.1956  0.0784 -0.3918
44637SOL    HW138722   7.359   4.730   3.811  1.7746 -0.0191  0.8631
44637SOL    HW238723   7.338   4.784   3.671 -1.8568 -0.5799  1.0921
44638SOL     OW38724   4.019   7.598   7.254  0.3136 -0.2117  0.2100
44638SOL    HW138725   4.103   7.612   7.211  0.5751 -0.3256  0.6766
44638SOL    HW238726   3.954   7.636   7.194  0.6018 -0.9906 -0.6181
44639SOL     OW38727   8.020   2.097   9.556  0.5140  0.6940  0.2098
44639SOL    HW138728   7.965   2.148   9.616 -1.3821 -0.3241 -0.5670
44639SOL    HW238729   8.021   2.009   9.594  0.2308  0.3130 -0.6539
44640SOL     OW38730   1.565  11.204   7.945  0.0591 -0.0112 -0.4030
44640SOL    HW138731   1.501  11.247   8.002 -0.2099  0.4234 -1.0162
44640SOL    HW238732   1.601  11.275   7.892  1.1825 -0.2243  0.0419
44641SOL     OW38733   8.901   2.365   4.643  0.9187 -0.5891 -0.3563
44641SOL    HW138734   8.935   2.275   4.641  1.3147 -0.5867  2.7107
44641SOL    HW238735   8.813   2.356   4.678  1.2123  0.2579  0.6252
44642SOL     OW38736   5.146   0.400   8.296 -0.2064 -0.0736  0.1516
44642SOL    HW138737   5.103   0.485   8.302 -1.0073 -0.5460  1.7458
44642SOL    HW238738   5.074   0.337   8.301  0.3557 -0.8674 -1.2442
44643SOL     OW38739  11.637   0.430   9.854  0.5147  0.0434  0.4295
44643SOL    HW138740  11.714   0.397   9.900  1.2181  1.8054  0.5890
44643SOL    HW238741  11.630   0.522   9.880  0.5411  0.9450 -2.3816
44644SOL     OW38742   9.549  10.627   2.708  0.4605  0.6327  0.4329
44644SOL    HW138743   9.519  10.703   2.757 -1.3789  0.9063 -0.9687
44644SOL    HW238744   9.497  10.554   2.742  0.7055  0.4168  0.3505
44645SOL     OW38745   5.097   0.473   5.250 -0.3389 -0.3632  0.5117
44645SOL    HW138746   5.091   0.378   5.238  0.3571 -0.1787 -1.7304
44645SOL    HW238747   5.006   0.503   5.257 -0.6295 -1.0266 -0.3571
44646SOL     OW38748   0.093   7.345   6.857  0.0913 -0.5353 -0.1513
44646SOL    HW138749   0.019   7.285   6.845 -0.5299  0.2125 -0.1214
44646SOL    HW238750   0.089   7.368   6.950  0.2676 -0.3786 -0.1830
44647SOL     OW38751   8.215   5.775   1.669  0.0474  0.1125  0.0109
44647SOL    HW138752   8.309   5.788   1.658 -0.0914  2.2244  0.9308
44647SOL    HW238753   8.209   5.697   1.725  1.1923 -0.5052 -0.6712
44648SOL     OW38754   6.097   6.332   8.474 -0.3656  0.2680  0.3279
44648SOL    HW138755   6.012   6.314   8.433  0.1892 -0.6923 -0.4499
44648SOL    HW238756   6.142   6.389   8.413 -0.0650 -0.0457  0.2526
44649SOL     OW38757  10.289   9.959  12.646 -0.0275 -0.5026 -0.0361
44649SOL    HW138758  10.370   9.997  12.611  0.3868  0.9007  2.1986
44649SOL    HW238759  10.318   9.878  12.689  0.5367  0.6960  1.9879
44650SOL     OW38760  10.779  11.988   8.149  0.3725 -0.3239 -0.5637
44650SOL    HW138761  10.730  11.922   8.100 -0.3927 -0.2256  0.0476
44650SOL    HW238762  10.776  12.067   8.094 -1.2084  0.0361 -0.0064
44651SOL     OW38763   2.330   5.331  12.490  0.1215 -0.3399  0.4775
44651SOL    HW138764   2.278   5.371  12.560  1.7963  1.3795  0.8062
44651SOL    HW238765   2.382   5.403  12.454  2.0299 -1.8931 -0.0595
44652SOL     OW38766   1.305   6.106   2.359  0.4248  0.3676  0.1495
44652SOL    HW138767   1.351   6.189   2.371 -1.0802  0.9362  2.9870
44652SOL    HW238768   1.367   6.039   2.389  0.9184  0.6433 -0.2364
44653SOL     OW38769   1.108  11.318   6.530 -0.2913  0.1501 -0.0035
44653SOL    HW138770   1.014  11.334   6.523 -0.3059 -0.4963 -2.3434
44653SOL    HW238771   1.116  11.223   6.535  0.2256  0.1851 -0.0708
44654SOL     OW38772   0.385   2.672   6.975  0.1543  0.2433 -0.3700
44654SOL    HW138773   0.354   2.582   6.985 -1.5191  0.7019 -1.0654
44654SOL    HW238774   0.464   2.676   7.028  1.2639 -2.1007 -1.6471
44655SOL     OW38775   1.658  12.530   0.736  0.3955 -0.1242  0.0251
44655SOL    HW138776   1.732  12.471   0.726  0.4946  0.0537 -0.3096
44655SOL    HW238777   1.603  12.489   0.803  0.8528 -0.1969  0.3602
44656SOL     OW38778   1.483   7.889   7.546  0.1188 -0.5664 -0.0055
44656SOL    HW138779   1.554   7.945   7.579  0.0691 -1.0478  0.9489
44656SOL    HW238780   1.488   7.898   7.451  2.6894 -2.0313 -0.1070
44657SOL     OW38781   2.944   4.633  10.283  0.0901 -0.5975 -0.0866
44657SOL    HW138782   2.978   4.558  10.331 -0.7926 -0.0189  1.5318
44657SOL    HW238783   2.868   4.661  10.334 -1.4198 -0.4362 -2.2880
44658SOL     OW38784  11.445   3.699   6.591  0.2954 -0.1025  0.0667
44658SOL    HW138785  11.437   3.604   6.590 -0.3480 -0.0632  0.7009
44658SOL    HW238786  11.454   3.722   6.684 -1.4259  0.5907  0.0904
44659SOL     OW38787  11.592   8.457   9.750  0.0656  0.2708 -0.0393
44659SOL    HW138788  11.509   8.410   9.759  1.0549 -2.2260 -2.4288
44659SOL    HW238789  11.570   8.535   9.700 -0.9439 -0.0660 -0.1449
44660SOL     OW38790  10.238   2.009   1.023 -0.4353  0.0229 -0.7287
44660SOL    HW138791  10.330   2.035   1.027 -0.0082 -1.3825 -0.9485
44660SOL    HW238792  10.208   2.014   1.114 -0.9293  3.0394 -0.9717
44661SOL     OW38793  10.165   1.950   6.261 -0.2552  0.3415 -0.1458
44661SOL    HW138794  10.134   1.879   6.205  0.7417  1.0737 -1.6977
44661SOL    HW238795  10.192   2.019   6.199  0.8123  1.2127  1.2486
44662SOL     OW38796   2.040   5.701  12.605 -0.2163  0.5214 -0.5945
44662SOL    HW138797   1.956   5.738  12.631 -0.2496 -0.0347  0.1348
44662SOL    HW238798   2.103   5.772  12.615 -0.2127  0.2962  1.1672
44663SOL     OW38799  11.605   1.410  10.346 -0.1398 -0.1660 -0.1841
44663SOL    HW138800  11.674   1.464  10.386  0.4700 -0.9692 -0.1016
44663SOL    HW238801  11.524   1.455  10.366  0.3646  0.8058 -0.2739
44664SOL     OW38802   5.138   1.987  12.389 -0.3615 -0.8519 -0.4729
44664SOL    HW138803   5.217   1.937  12.371  0.4764  0.1629  0.2522
44664SOL    HW238804   5.165   2.052  12.455 -1.9843 -1.0011  0.3949
44665SOL     OW38805   7.765   6.875   3.339  0.1624  0.4418 -0.2325
44665SOL    HW138806   7.698   6.931   3.379  0.5311 -0.2154  1.3762
44665SOL    HW238807   7.848   6.912   3.369  0.4222 -0.7285  0.5569
44666SOL     OW38808   0.199   8.947   6.343  0.1413  0.1475 -0.1565
44666SOL    HW138809   0.224   8.863   6.383  0.2003 -0.3821 -1.2533
44666SOL    HW238810   0.118   8.971   6.387  1.7285  1.1570  2.4445
44667SOL     OW38811   3.572   0.397   4.666  0.0537  0.2393 -0.0906
44667SOL    HW138812   3.665   0.386   4.647  0.7882  2.6568  1.6533
44667SOL    HW238813   3.535   0.432   4.585  0.3389 -1.9654 -1.2249
44668SOL     OW38814   9.340   5.784   8.301 -0.4444  0.1988  0.5132
44668SOL    HW138815   9.404   5.851   8.323 -0.9967  0.5094  1.1997
44668SOL    HW238816   9.263   5.806   8.353 -0.8809 -0.5553  0.2044
44669SOL     OW38817  11.842   8.076   9.230 -0.7004 -0.1845 -0.2372
44669SOL    HW138818  11.802   8.146   9.178  1.5825  1.7804  0.4215
44669SOL    HW238819  11.830   7.997   9.178 -2.8293  0.7969 -1.3319
44670SOL     OW38820   0.229   6.804   8.527 -0.4162  0.6763  0.0336
44670SOL    HW138821   0.309   6.775   8.570 -0.0456 -2.8425 -2.5494
44670SOL    HW238822   0.159   6.759   8.573 -0.3903  0.0277 -0.5351
44671SOL     OW38823   9.942   3.332  12.488  0.6151 -0.1082 -0.3287
44671SOL    HW138824   9.990   3.351  12.407 -0.1009 -0.0849 -0.7620
44671SOL    HW238825   9.987   3.383  12.555  1.8383 -0.9022 -0.5069
44672SOL     OW38826  10.602   5.945   1.914 -0.3488  0.4377 -0.2729
44672SOL    HW138827  10.615   5.896   1.995  0.6590  2.1736  0.6921
44672SOL    HW238828  10.526   5.904   1.872  0.5348 -1.9949  0.3444
44673SOL     OW38829   3.750   6.534   8.686  0.2115  0.3935  0.1739
44673SOL    HW138830   3.773   6.568   8.772  1.5086 -1.0628  0.4476
44673SOL    HW238831   3.786   6.445   8.685 -1.4340 -0.3207 -1.1684
44674SOL     OW38832   7.707  11.126   0.004 -0.4242  0.0922  0.1317
44674SOL    HW138833   7.727  11.151  -0.086  0.7396  1.3697  0.7152
44674SOL    HW238834   7.710  11.031   0.004  0.0258  0.0944 -1.0767
44675SOL     OW38835   7.665   3.569   4.025 -0.1502  0.0262 -0.1359
44675SOL    HW138836   7.610   3.647   4.019 -0.6310 -0.3727 -1.4528
44675SOL    HW238837   7.704   3.562   3.938  0.1576 -0.9995  0.0779
44676SOL     OW38838   0.274   6.658   9.132 -0.2079  0.4218  0.3424
44676SOL    HW138839   0.187   6.627   9.106 -0.1156 -2.8023  3.2152
44676SOL    HW238840   0.258   6.746   9.166 -1.9952  0.6171 -0.8646
44677SOL     OW38841   0.296   7.582   3.697 -0.1512  0.3414 -0.1355
44677SOL    HW138842   0.242   7.533   3.636 -1.5917  1.7624 -0.0546
44677SOL    HW238843   0.281   7.674   3.675 -0.2563  0.8726  1.9371
44678SOL     OW38844   0.900  10.664  10.240  0.3620  0.1461  0.2448
44678SOL    HW138845   0.840  10.612  10.292 -0.0626 -0.1080 -0.4792
44678SOL    HW238846   0.867  10.754  10.248 -0.5930 -0.0843 -0.7437
44679SOL     OW38847   2.231   5.579   3.895 -0.8593 -0.0025  0.0704
44679SOL    HW138848   2.179   5.533   3.829  2.2833 -2.8093 -0.7091
44679SOL    HW238849   2.295   5.629   3.845 -0.2081  0.0994  0.9835
44680SOL     OW38850   0.867  11.141   3.548 -0.3186 -0.4584  0.2877
44680SOL    HW138851   0.852  11.213   3.609 -0.1375  0.5122 -0.7650
44680SOL    HW238852   0.856  11.181   3.461 -0.0654 -1.6700 -0.3249
44681SOL     OW38853  11.402   2.851   7.472 -0.3196 -0.2594  0.0260
44681SOL    HW138854  11.378   2.933   7.516 -0.7919 -0.1858 -0.3583
44681SOL    HW238855  11.408   2.875   7.379  2.0777 -0.0709  0.1515
44682SOL     OW38856   0.035  10.285   6.268  0.0088  0.1629  0.0066
44682SOL    HW138857   0.039  10.191   6.251 -0.8417  0.3764 -1.5206
44682SOL    HW238858  -0.054  10.299   6.302  0.6288  0.2198  1.6836
44683SOL     OW38859   5.932  12.285   7.831 -0.1091 -0.2771 -0.1152
44683SOL    HW138860   5.854  12.340   7.827 -0.6666 -1.0973 -0.8824
44683SOL    HW238861   5.991  12.331   7.892 -1.1022  0.4411  0.3257
44684SOL     OW38862  10.258  12.599   9.186  0.1442 -0.1112 -0.1583
44684SOL    HW138863  10.353  12.599   9.178  0.2470  1.2842  0.7241
44684SOL    HW238864  10.227  12.563   9.103  1.4236 -0.0044 -0.7008
44685SOL     OW38865   5.558  10.782   2.665  0.1671 -0.3401 -0.2470
44685SOL    HW138866   5.556  10.871   2.699 -0.5522 -0.2992 -0.3898
44685SOL    HW238867   5.470  10.768   2.629 -0.5543 -1.9756  1.9850
44686SOL     OW38868  12.232   4.560   6.806  0.0344 -0.0886  0.2205
44686SOL    HW138869  12.275   4.641   6.831 -0.1540 -0.4513  1.8130
44686SOL    HW238870  12.139   4.584   6.796  0.1440  0.1022 -0.4280
44687SOL     OW38871  11.294  10.040   9.610  0.1777 -0.0979  0.1630
44687SOL    HW138872  11.214   9.988   9.604  0.9127 -1.1566 -0.9843
44687SOL    HW238873  11.344  10.016   9.532  1.5677  0.6252  0.7930
44688SOL     OW38874   4.143   8.334  10.686  1.0240  0.4227  0.8717
44688SOL    HW138875   4.133   8.268  10.618 -0.0187  1.8817 -0.4625
44688SOL    HW238876   4.237   8.354  10.687  1.0699  0.2605 -0.0199
44689SOL     OW38877   6.643   3.483   4.630 -0.4959 -0.2277  0.5185
44689SOL    HW138878   6.688   3.406   4.664  0.0271 -0.5922 -0.9222
44689SOL    HW238879   6.710   3.551   4.628 -0.5920 -0.1336  0.5109
44690SOL     OW38880  12.477   9.393   4.184 -0.3340  0.7235 -0.3469
44690SOL    HW138881  12.436   9.329   4.242  0.4427 -1.0553 -1.6648
44690SOL    HW238882  12.414   9.403   4.112  0.3591 -0.0464 -1.0866
44691SOL     OW38883   7.392   5.704   0.983  0.2134  0.3684  0.3535
44691SOL    HW138884   7.454   5.777   0.977  0.8404 -0.2710 -2.1131
44691SOL    HW238885   7.306   5.745   0.978  0.4747  1.0926  1.4827
44692SOL     OW38886  10.717   5.819   6.708  0.1605  0.0163 -0.5257
44692SOL    HW138887  10.679   5.905   6.726 -1.0516 -0.4756 -0.5921
44692SOL    HW238888  10.685   5.764   6.780  0.8410 -0.4035 -0.5369
44693SOL     OW38889  12.613   0.496   0.613 -0.4323 -0.0942  0.5761
44693SOL    HW138890  12.560   0.575   0.622  0.4199  0.8329 -1.7868
44693SOL    HW238891  12.551   0.428   0.586 -0.7531  0.4449 -0.0556
44694SOL     OW38892   3.459   7.399  12.091 -0.0332  0.4550  0.0368
44694SOL    HW138893   3.380   7.435  12.052  0.2284 -0.1652 -1.1292
44694SOL    HW238894   3.440   7.307  12.105 -0.0406  0.6192  1.2116
44695SOL     OW38895  11.177   4.714  11.688 -0.3354  0.5833 -0.1093
44695SOL    HW138896  11.248   4.744  11.744  0.4843 -1.4040 -0.0067
44695SOL    HW238897  11.191   4.760  11.605  0.3116  1.1520  0.3013
44696SOL     OW38898  12.433   9.152   6.358  0.6556  0.0865 -0.1352
44696SOL    HW138899  12.416   9.139   6.264 -0.7850  1.0013 -0.0457
44696SOL    HW238900  12.391   9.236   6.378  0.3873 -0.3907  1.4540
44697SOL     OW38901  12.489   6.807   6.878  0.0323  0.5454 -0.4315
44697SOL    HW138902  12.405   6.793   6.834 -0.3594 -0.0612  0.4640
44697SOL    HW238903  12.466   6.856   6.957  0.5176  0.4067 -0.2000
44698SOL     OW38904   7.912   5.327   2.567 -0.7556  0.2483 -0.3497
44698SOL    HW138905   7.896   5.245   2.521 -1.2562 -0.1566  0.5309
44698SOL    HW238906   7.923   5.392   2.497 -0.3485 -0.5607 -1.0487
44699SOL     OW38907   2.171   8.985   5.499 -0.0886 -0.0197 -0.2484
44699SOL    HW138908   2.168   8.890   5.500  3.3169 -0.2577  0.4120
44699SOL    HW238909   2.159   9.011   5.590 -1.2817  0.2577 -0.4629
44700SOL     OW38910   6.864   0.847  11.989  0.2093 -0.2597 -0.1375
44700SOL    HW138911   6.807   0.770  11.992  0.4636 -0.4229  0.9739
44700SOL    HW238912   6.944   0.819  12.033  1.3382 -0.1627 -2.0592
44701SOL     OW38913   2.558  12.199   6.562  0.2661  0.0785  0.2313
44701SOL    HW138914   2.496  12.256   6.608 -0.1471  1.3280 -1.7502
44701SOL    HW238915   2.507  12.121   6.540  0.1835 -0.0850  0.9981
44702SOL     OW38916  10.339  12.479   5.855  0.0659 -0.3392 -0.4394
44702SOL    HW138917  10.420  12.513   5.893  0.8810 -1.9029 -0.7268
44702SOL    HW238918  10.323  12.536   5.779 -0.1626  1.1514  0.6675
44703SOL     OW38919  11.277   3.016   8.934 -0.5794 -0.6578  0.3212
44703SOL    HW138920  11.290   2.953   8.864 -0.4189 -1.4867  1.0754
44703SOL    HW238921  11.365   3.045   8.957 -0.3436 -2.4795  2.0175
44704SOL     OW38922   9.652   9.032   9.402  0.1435 -0.6329 -0.5398
44704SOL    HW138923   9.694   9.100   9.349 -0.5397  0.5404  0.3565
44704SOL    HW238924   9.686   9.046   9.491 -0.8542 -0.7284 -0.1260
44705SOL     OW38925   3.976   0.572   3.305  0.6298  0.3202  0.7728
44705SOL    HW138926   3.947   0.483   3.327  2.1315 -0.0208  1.5130
44705SOL    HW238927   3.895   0.622   3.294 -0.3109 -1.5544 -1.6583
44706SOL     OW38928   9.588   0.699   0.620 -0.1163 -0.3572 -0.1914
44706SOL    HW138929   9.559   0.766   0.681 -0.5258  0.4552 -1.2394
44706SOL    HW238930   9.601   0.621   0.674 -0.0713  0.4332  0.9784
44707SOL     OW38931   1.661  11.052   3.016  0.8789  0.3833  0.2424
44707SOL    HW138932   1.660  11.139   3.056 -0.6856  0.5393 -0.0903
44707SOL    HW238933   1.598  11.002   3.068 -2.2912  0.9639 -2.7443
44708SOL     OW38934  10.776   8.928   5.060  0.3824  0.3780 -0.0587
44708SOL    HW138935  10.735   9.014   5.064 -1.1510 -0.2947 -0.7488
44708SOL    HW238936  10.815   8.924   4.972 -2.2674 -0.7650 -1.2836
44709SOL     OW38937   7.093   2.230   8.188  0.2190 -0.1808 -0.3196
44709SOL    HW138938   7.149   2.223   8.265  0.0150 -1.9897 -0.2939
44709SOL    HW238939   7.097   2.143   8.147 -1.5013  0.0351 -1.0545
44710SOL     OW38940   8.370   7.498   3.288 -0.0911 -0.8241  0.2588
44710SOL    HW138941   8.377   7.471   3.196  0.9550 -0.4234  0.1996
44710SOL    HW238942   8.374   7.594   3.285 -2.0267 -0.6915  0.5936
44711SOL     OW38943   8.693   8.910  10.376 -0.7851 -0.0290 -0.1031
44711SOL    HW138944   8.762   8.910  10.309 -0.7801 -0.9088 -0.1076
44711SOL    HW238945   8.637   8.836  10.353 -1.4559  0.3804  0.1887
44712SOL     OW38946   7.460   8.476   9.537 -0.6725  0.1781 -0.2470
44712SOL    HW138947   7.454   8.565   9.570  0.8693 -0.0185  0.6704
44712SOL    HW238948   7.506   8.428   9.607 -1.7235 -1.4071 -0.5762
44713SOL     OW38949   9.680   8.396  11.556 -0.3621 -0.1333  0.1996
44713SOL    HW138950   9.621   8.363  11.489  0.7231  1.2794 -1.5511
44713SOL    HW238951   9.627   8.400  11.636 -2.0567 -0.6877 -0.8476
44714SOL     OW38952   0.985  10.523   4.087  0.2607 -0.3257 -0.6387
44714SOL    HW138953   0.915  10.583   4.113 -0.0761 -0.7548 -0.5551
44714SOL    HW238954   1.039  10.575   4.028 -1.9883 -0.9220 -3.4817
44715SOL     OW38955   8.556   4.590  10.005 -0.5681 -0.2950 -0.3019
44715SOL    HW138956   8.649   4.572  10.023 -1.0289 -0.7043  1.9059
44715SOL    HW238957   8.544   4.562   9.914  0.9845 -2.2581  0.0218
44716SOL     OW38958   6.820   4.970   1.234  0.4090  0.2373 -0.3150
44716SOL    HW138959   6.830   4.982   1.140  0.5160 -1.4152 -0.5493
44716SOL    HW238960   6.905   4.936   1.263 -0.1159 -0.7635  0.0943
44717SOL     OW38961   4.217   3.495   0.931 -0.3837 -0.1278  0.0900
44717SOL    HW138962   4.220   3.400   0.944 -1.6308 -0.3619 -1.0624
44717SOL    HW238963   4.179   3.530   1.011 -1.5565 -0.7952 -0.1561
44718SOL     OW38964   9.905   9.163   3.104  0.5848  0.2290 -0.0121
44718SOL    HW138965   9.903   9.254   3.074 -1.6538 -0.5332 -2.5268
44718SOL    HW238966   9.833   9.157   3.166  0.9642  0.2162  0.4373
44719SOL     OW38967  11.632   6.807  12.284 -0.2669 -0.5983 -0.2932
44719SOL    HW138968  11.631   6.712  12.284  0.2933 -0.6249  0.8535
44719SOL    HW238969  11.616   6.832  12.193 -2.6311 -1.7362 -0.2346
44720SOL     OW38970   2.330   3.299   8.937 -0.1834 -0.1591  0.8524
44720SOL    HW138971   2.270   3.233   8.903 -0.5808  0.4059  0.4350
44720SOL    HW238972   2.404   3.298   8.876 -0.3994  0.0963  0.5836
44721SOL     OW38973  12.128   6.916   2.941  0.3327 -0.0943  0.2588
44721SOL    HW138974  12.179   6.946   2.866 -0.3988  3.9324  1.1596
44721SOL    HW238975  12.052   6.873   2.902  0.3972  1.1350 -1.3261
44722SOL     OW38976   6.647   8.961   1.763 -0.2076  0.0845  0.0478
44722SOL    HW138977   6.588   8.902   1.716 -0.8345  0.8081 -0.0813
44722SOL    HW238978   6.688   9.013   1.694  0.0426  0.0842  0.1946
44723SOL     OW38979   9.503   2.855   5.114  0.2674  0.1008  0.2189
44723SOL    HW138980   9.571   2.867   5.180  1.9176 -0.2769 -1.3193
44723SOL    HW238981   9.420   2.867   5.161  1.3597 -0.3578  2.3574
44724SOL     OW38982   5.212   6.344   0.127 -0.0128 -0.2980 -0.3692
44724SOL    HW138983   5.274   6.402   0.172 -0.5429  2.5975 -3.0463
44724SOL    HW238984   5.142   6.329   0.191  1.2182  0.1336  1.1398
44725SOL     OW38985   8.866   6.946   3.232 -0.0282  0.1214 -0.0678
44725SOL    HW138986   8.847   6.947   3.138 -0.7081  0.6135  0.0610
44725SOL    HW238987   8.959   6.925   3.239  0.2494  1.0600 -0.8887
44726SOL     OW38988   8.924   2.909  10.248  0.1421 -0.1358  0.1354
44726SOL    HW138989   8.996   2.917  10.311 -0.4701  1.3120  0.7014
44726SOL    HW238990   8.895   2.818  10.255  0.1083 -0.0155  1.9263
44727SOL     OW38991   6.796   3.123   1.314  0.3076 -0.2167 -0.6035
44727SOL    HW138992   6.798   3.028   1.331 -2.9920 -0.0370  1.6925
44727SOL    HW238993   6.705   3.141   1.290  1.1585  2.2646 -2.3877
44728SOL     OW38994   7.785   8.025  10.602  0.5051 -0.3278  0.1972
44728SOL    HW138995   7.700   8.040  10.642 -0.0782 -0.0840 -1.0731
44728SOL    HW238996   7.797   7.930  10.604  0.2406 -0.3554  0.4591
44729SOL     OW38997  12.579   4.979   2.363  0.3152  0.0850  0.2360
44729SOL    HW138998  12.636   4.952   2.291  0.3919  0.3469  0.1951
44729SOL    HW238999  12.628   5.050   2.406  0.8933 -0.9802  1.3835
44730SOL     OW39000  10.381   0.460   1.858 -0.4079 -0.1800  0.2975
44730SOL    HW139001  10.415   0.549   1.849 -0.1628 -0.3664 -0.7802
44730SOL    HW239002  10.450   0.405   1.823 -0.9262 -0.7300  0.1285
44731SOL     OW39003   9.867   3.881   2.629  0.0936 -0.0930 -0.2604
44731SOL    HW139004   9.941   3.854   2.683  0.1207 -1.1798 -0.8117
44731SOL    HW239005   9.797   3.899   2.692  0.3458 -0.6337  0.1901
44732SOL     OW39006   1.238  12.261  11.216  0.1679  0.3411 -0.2518
44732SOL    HW139007   1.199  12.266  11.303 -1.4740 -1.1278 -0.8227
44732SOL    HW239008   1.236  12.351  11.183  1.9621  1.1347  1.6414
44733SOL     OW39009   9.260   2.226  12.597  0.4854 -0.5784  0.5372
44733SOL    HW139010   9.349   2.196  12.618  1.1703  0.2334 -1.0226
44733SOL    HW239011   9.242   2.294  12.662  0.0559 -2.2708  2.2856
44734SOL     OW39012   3.081  12.642  11.387  0.4256  0.0417 -0.1201
44734SOL    HW139013   3.129  12.572  11.431  0.5434 -0.2219 -0.6618
44734SOL    HW239014   3.029  12.683  11.457  1.8469  0.6896  0.5930
44735SOL     OW39015   4.665   9.666   5.618 -0.6566 -0.5572 -0.6969
44735SOL    HW139016   4.711   9.585   5.638 -0.9931 -0.8207 -0.9867
44735SOL    HW239017   4.656   9.666   5.522  0.8312  0.6282 -0.8872
44736SOL     OW39018   7.980   5.173   4.823  0.3507 -0.0422  0.3601
44736SOL    HW139019   7.905   5.218   4.785 -1.4526 -1.7513  1.6412
44736SOL    HW239020   8.007   5.110   4.756  0.9601  0.8765 -0.2771
44737SOL     OW39021   2.126   4.864   5.172 -0.5018 -0.2783 -0.1341
44737SOL    HW139022   2.171   4.903   5.098  0.1125  0.6484  0.7027
44737SOL    HW239023   2.041   4.907   5.174 -0.8504 -0.9006 -0.7689
44738SOL     OW39024   8.128   3.537   2.779 -0.0389  0.1262  0.2319
44738SOL    HW139025   8.176   3.485   2.842  1.0580 -1.0512 -1.4833
44738SOL    HW239026   8.054   3.482   2.754 -1.7143  1.4464  1.9758
44739SOL     OW39027   3.371   5.929   4.309 -0.0854 -1.2506 -0.6577
44739SOL    HW139028   3.410   5.982   4.378 -1.3802  0.2131 -0.9852
44739SOL    HW239029   3.376   5.839   4.342  1.4106 -0.8565  0.2855
44740SOL     OW39030  10.065   4.266   3.915  0.7141 -0.6870 -0.0720
44740SOL    HW139031  10.027   4.332   3.973 -1.1917 -0.7655 -1.1609
44740SOL    HW239032  10.048   4.183   3.959 -0.8124 -0.7535 -0.7140
44741SOL     OW39033   5.907   2.818  10.014  0.1993  0.6227 -0.0807
44741SOL    HW139034   6.002   2.812  10.005  0.1969  1.6829 -1.0260
44741SOL    HW239035   5.894   2.838  10.107  0.8230 -0.6121  0.2931
44742SOL     OW39036  11.425  10.301  10.437 -0.3154  0.3461 -0.0177
44742SOL    HW139037  11.486  10.345  10.377  0.3713 -1.5083 -0.7578
44742SOL    HW239038  11.478  10.280  10.514 -0.8107  1.3686  0.6189
44743SOL     OW39039   9.228   3.462   5.861  0.3141 -0.2164 -0.0777
44743SOL    HW139040   9.269   3.426   5.940 -1.3155 -0.5533  0.6439
44743SOL    HW239041   9.257   3.404   5.791 -0.4850 -1.6525  0.7283
44744SOL     OW39042  10.487   9.630   2.775  0.4525  0.0989 -0.1083
44744SOL    HW139043  10.471   9.718   2.741  0.5638 -0.9757 -3.1820
44744SOL    HW239044  10.427   9.574   2.726  1.7844 -1.8053  0.3225
44745SOL     OW39045  11.300   1.282  11.347  0.4811  0.0096 -0.7063
44745SOL    HW139046  11.272   1.372  11.328 -1.8163 -0.2130  1.2119
44745SOL    HW239047  11.219   1.231  11.346  1.6389 -1.9252 -0.9091
44746SOL     OW39048   6.003   4.883  10.553 -0.0295 -0.3355  0.1075
44746SOL    HW139049   6.019   4.935  10.474 -2.8558  1.1644  0.3930
44746SOL    HW239050   6.089   4.875  10.594  0.7982  2.8880 -0.7332
44747SOL     OW39051  10.254  10.944  11.491  0.5308  0.1153 -0.2156
44747SOL    HW139052  10.320  10.989  11.440  1.6905 -1.8800 -0.5940
44747SOL    HW239053  10.195  10.906  11.426  1.5799 -1.7858 -0.1557
44748SOL     OW39054   3.964   3.142   8.195 -0.0454 -0.5175 -0.4882
44748SOL    HW139055   3.880   3.112   8.162 -0.0946  0.3619 -1.1932
44748SOL    HW239056   3.996   3.070   8.250 -1.7891 -0.4013  0.7648
44749SOL     OW39057   7.037  10.865   3.799  0.2808  0.3160  0.2991
44749SOL    HW139058   7.033  10.804   3.726 -0.1323 -0.5350  1.0216
44749SOL    HW239059   6.948  10.871   3.832  0.2897  1.4111  0.1694
44750SOL     OW39060   8.198   2.724  10.974 -0.6043  0.2846 -0.3155
44750SOL    HW139061   8.194   2.804  11.027  2.2007 -0.6579  1.5386
44750SOL    HW239062   8.255   2.747  10.901  1.0986 -0.2007  0.7891
44751SOL     OW39063   5.820   1.024   1.039  0.2349 -0.0239  0.7398
44751SOL    HW139064   5.898   0.976   1.012 -1.0476 -0.6397 -2.1837
44751SOL    HW239065   5.852   1.113   1.057  1.3674  0.3740 -2.6643
44752SOL     OW39066  11.777  11.703   2.902 -0.1838  0.2383  0.0120
44752SOL    HW139067  11.774  11.769   2.834 -1.6012  0.9508  0.7378
44752SOL    HW239068  11.725  11.630   2.868 -0.9088  0.6023  0.3335
44753SOL     OW39069   3.356  10.440   0.453 -0.2101 -0.2519 -0.2593
44753SOL    HW139070   3.358  10.359   0.401 -4.3626 -1.3552  0.9809
44753SOL    HW239071   3.340  10.411   0.542 -0.7049  1.9355  0.4158
44754SOL     OW39072   8.466   2.762   5.545  0.3974  0.0275  0.2632
44754SOL    HW139073   8.455   2.724   5.458 -1.4210  1.3683 -0.1551
44754SOL    HW239074   8.489   2.687   5.600  1.8333 -0.8141 -1.3725
44755SOL     OW39075   7.914   9.070   9.683 -0.1364 -0.6264 -0.2831
44755SOL    HW139076   7.974   9.049   9.755  0.1439 -1.9067 -0.8551
44755SOL    HW239077   7.842   9.008   9.693  0.2468 -1.2972 -1.4922
44756SOL     OW39078   4.306  11.111   2.393 -0.2107  0.2105 -0.3863
44756SOL    HW139079   4.373  11.066   2.444  0.6708  0.6155 -1.1514
44756SOL    HW239080   4.334  11.100   2.302 -1.6597 -0.3600 -0.7991
44757SOL     OW39081   8.242   1.213   5.968 -0.0237  0.2655  0.1880
44757SOL    HW139082   8.264   1.160   5.891  0.4935  1.9154 -0.8532
44757SOL    HW239083   8.208   1.295   5.931  3.0567  2.3406  1.5869
44758SOL     OW39084   6.128   0.337   8.541 -0.6091  0.0568 -0.1413
44758SOL    HW139085   6.220   0.349   8.567 -1.6036  2.0982  2.9830
44758SOL    HW239086   6.114   0.242   8.543  0.7414 -0.1784  2.3395
44759SOL     OW39087   0.511   6.084  12.317  0.7115 -0.2164 -0.0921
44759SOL    HW139088   0.478   6.158  12.267 -3.9533 -1.2202  1.0361
44759SOL    HW239089   0.521   6.013  12.252  0.9645  0.1984 -0.5118
44760SOL     OW39090   2.668   6.719   8.557 -0.1479  0.3767 -0.2246
44760SOL    HW139091   2.750   6.708   8.605  0.3998 -0.5260 -1.3187
44760SOL    HW239092   2.600   6.688   8.617  0.3067  1.0681  0.6602
44761SOL     OW39093   9.449   1.974   7.580  0.1396  0.2582 -0.1777
44761SOL    HW139094   9.512   1.942   7.516 -1.3504 -0.7498 -1.1962
44761SOL    HW239095   9.493   1.962   7.665  0.8948 -1.4486 -0.7751
44762SOL     OW39096   0.986   0.845   1.932  0.4351 -0.0564 -0.4276
44762SOL    HW139097   0.901   0.880   1.958 -0.0831 -2.1357  0.8950
44762SOL    HW239098   1.025   0.914   1.878 -1.5559  1.4426 -0.0531
44763SOL     OW39099   4.817  10.881   3.390  0.2876  0.3247  0.7755
44763SOL    HW139100   4.870  10.830   3.452  0.5476  1.9348  1.9555
44763SOL    HW239101   4.861  10.966   3.386 -0.8756  0.9118 -0.0665
44764SOL     OW39102   6.093   5.467   3.942  0.5268  0.0249  0.4353
44764SOL    HW139103   6.101   5.527   3.868 -0.5044  1.8008  1.6999
44764SOL    HW239104   6.174   5.479   3.991  0.7842 -0.4336  0.1321
44765SOL     OW39105  11.563  10.856   3.524 -0.4446 -0.2908 -0.1942
44765SOL    HW139106  11.565  10.903   3.607  0.6642 -0.3457 -0.1742
44765SOL    HW239107  11.491  10.895   3.475 -0.1048  0.8141  0.1716
44766SOL     OW39108   1.930   2.013  12.090 -0.4255  0.0031  0.1612
44766SOL    HW139109   2.024   2.032  12.094 -0.1816 -1.0147 -0.5469
44766SOL    HW239110   1.904   2.040  12.002 -0.8301  0.4055  0.4016
44767SOL     OW39111   3.254   7.477   2.523  0.2594  0.3658 -0.3075
44767SOL    HW139112   3.183   7.415   2.541  2.6369 -2.5607 -0.2085
44767SOL    HW239113   3.246   7.544   2.591 -1.9011 -0.2693  0.1405
44768SOL     OW39114   1.626   0.370   0.801 -0.0610  0.5728 -0.8655
44768SOL    HW139115   1.650   0.284   0.766 -0.1496  0.6664 -1.1567
44768SOL    HW239116   1.696   0.428   0.773 -0.5792  0.8312 -1.6562
44769SOL     OW39117  11.802  10.836   0.385  0.5740  0.1914  0.5947
44769SOL    HW139118  11.720  10.852   0.338  0.9365  0.3686 -0.0022
44769SOL    HW239119  11.797  10.745   0.413  1.0602 -0.4537 -1.2818
44770SOL     OW39120  10.108   3.551   8.488 -0.6409 -0.1982  0.4265
44770SOL    HW139121  10.145   3.635   8.463 -0.7162 -0.6385 -1.2480
44770SOL    HW239122  10.066   3.518   8.409  0.5049 -2.4162  0.6784
44771SOL     OW39123  11.779   2.779  11.798  0.0094  0.2161 -0.1834
44771SOL    HW139124  11.684   2.775  11.801  0.0677 -0.6306  0.6854
44771SOL    HW239125  11.801   2.864  11.836 -0.3136 -0.6483  2.0783
44772SOL     OW39126   5.273   4.345   0.447 -0.8468  0.1465  0.3550
44772SOL    HW139127   5.212   4.347   0.521 -3.0004 -1.1954 -1.2658
44772SOL    HW239128   5.243   4.416   0.390 -2.0528 -1.5447 -1.2273
44773SOL     OW39129   9.838   6.018   1.091 -0.0298  0.5230  0.2267
44773SOL    HW139130   9.816   6.103   1.053  0.2181  1.2221  1.6153
44773SOL    HW239131   9.754   5.979   1.114 -0.2281 -0.1721 -1.5220
44774SOL     OW39132  10.093  10.328   4.718  0.0350  0.3876  0.5271
44774SOL    HW139133  10.075  10.421   4.727 -2.2032 -0.0181  0.8978
44774SOL    HW239134  10.057  10.304   4.633  0.6241 -0.1412  0.4174
44775SOL     OW39135  11.857   6.904   7.306  0.1640  0.4725  0.3750
44775SOL    HW139136  11.924   6.841   7.331  0.2633  0.8623  1.1163
44775SOL    HW239137  11.905   6.984   7.285 -0.1045  1.2347  2.3653
44776SOL     OW39138   6.973   4.080   8.469 -0.0481 -0.0539  0.1278
44776SOL    HW139139   6.896   4.134   8.451  0.4383  0.8469  0.6792
44776SOL    HW239140   6.999   4.047   8.383 -1.8739 -1.5807  0.0840
44777SOL     OW39141  12.140   4.156   3.592 -0.1652  0.2611 -0.0840
44777SOL    HW139142  12.134   4.182   3.684 -0.4334 -0.4246  0.0953
44777SOL    HW239143  12.122   4.237   3.544 -1.2654  0.3610  0.4617
44778SOL     OW39144  11.857  11.709   6.539 -0.8327 -0.2236 -0.3013
44778SOL    HW139145  11.947  11.741   6.532 -0.9616  0.2401  0.0989
44778SOL    HW239146  11.847  11.686   6.631 -0.7229 -1.5159 -0.5909
44779SOL     OW39147   2.111   1.846   0.122 -0.5260 -0.4629 -0.3049
44779SOL    HW139148   2.174   1.813   0.185 -1.6345 -1.1056  0.5063
44779SOL    HW239149   2.031   1.859   0.173 -1.3860 -0.7870 -1.5253
44780SOL     OW39150   3.623   7.400   8.607  0.4677  0.3063 -0.1958
44780SOL    HW139151   3.562   7.365   8.672  0.7118  1.3550  0.6256
44780SOL    HW239152   3.576   7.394   8.524  0.4583 -1.8430 -0.1012
44781SOL     OW39153   9.735   8.619   9.488  0.5561 -0.0014 -0.1411
44781SOL    HW139154   9.805   8.637   9.550  0.2251  0.2597  0.1588
44781SOL    HW239155   9.666   8.680   9.511  0.8712  0.9218 -1.5256
44782SOL     OW39156  11.892  10.289   5.532 -0.4745 -0.1904 -0.0194
44782SOL    HW139157  11.923  10.206   5.496 -1.0874 -0.1784 -0.5866
44782SOL    HW239158  11.964  10.350   5.515  0.2353 -0.7168  0.9327
44783SOL     OW39159   8.143   4.570  11.187 -0.6902 -0.1013 -0.1956
44783SOL    HW139160   8.198   4.529  11.254  0.4140  1.4128 -0.0988
44783SOL    HW239161   8.072   4.612  11.237 -0.5247  0.0371 -0.0729
44784SOL     OW39162  12.509  11.619   0.795 -0.3402 -0.3977 -0.1286
44784SOL    HW139163  12.574  11.650   0.732 -1.7989  0.9154 -1.0483
44784SOL    HW239164  12.436  11.589   0.741 -0.9870 -0.7343  0.9082
44785SOL     OW39165   8.974   0.515  10.530  0.5451  0.5152 -0.6285
44785SOL    HW139166   8.904   0.538  10.469  0.5934  1.7035 -0.2610
44785SOL    HW239167   8.997   0.598  10.573  1.2981 -0.0867  0.1760
44786SOL     OW39168   1.133   7.153  11.592  0.0162  0.3979 -0.0019
44786SOL    HW139169   1.199   7.219  11.572  0.7063 -0.8181 -2.0759
44786SOL    HW239170   1.150   7.082  11.529 -1.7540 -1.0067  1.0058
44787SOL     OW39171   8.031   1.646   0.891 -0.1513  0.5805  0.5019
44787SOL    HW139172   7.995   1.574   0.841 -0.7096  1.7626 -0.8485
44787SOL    HW239173   8.102   1.606   0.943 -1.0819 -1.0901  0.5479
44788SOL     OW39174   8.011   0.352   7.432  0.3374 -0.5867  0.3374
44788SOL    HW139175   8.047   0.413   7.497  0.1330 -0.8068  0.6642
44788SOL    HW239176   8.036   0.389   7.348  0.1472 -0.0052  0.5265
44789SOL     OW39177   2.947   9.697   5.781  0.3091  0.0451  0.0505
44789SOL    HW139178   2.905   9.639   5.845  1.3485 -0.8198 -0.0381
44789SOL    HW239179   2.877   9.758   5.756 -0.6969 -0.9112  0.4311
44790SOL     OW39180  11.742   0.866  11.776 -0.4920  0.1893 -0.2130
44790SOL    HW139181  11.735   0.798  11.842 -0.5465  1.0404  0.6899
44790SOL    HW239182  11.733   0.820  11.693 -0.9843 -0.8371  0.3824
44791SOL     OW39183  11.462   6.182   3.867 -0.0138 -0.0607 -0.0653
44791SOL    HW139184  11.477   6.133   3.947 -1.9766  0.9731  1.0011
44791SOL    HW239185  11.454   6.273   3.895 -0.0523  0.4171 -1.5196
44792SOL     OW39186   7.606  11.549  11.150  0.7203 -0.1140 -0.1789
44792SOL    HW139187   7.633  11.604  11.223  1.6363 -1.3736  0.4687
44792SOL    HW239188   7.536  11.494  11.186  0.1509  0.2603 -0.6849
44793SOL     OW39189   5.017   1.291   9.892 -0.5662 -0.2445 -0.5141
44793SOL    HW139190   5.097   1.273   9.943 -1.2449 -1.6218  0.1301
44793SOL    HW239191   5.040   1.366   9.838  1.2457 -0.7154 -0.4924
44794SOL     OW39192   7.965   6.344  10.541 -0.1012 -0.1024  0.1936
44794SOL    HW139193   7.970   6.382  10.453  0.6684  1.3665  0.8410
44794SOL    HW239194   8.056   6.327  10.565 -0.1353  1.2868  1.4267
44795SOL     OW39195   4.486   6.875   1.923 -0.1321  0.3460  0.4466
44795SOL    HW139196   4.459   6.918   2.005  2.2690  1.7830  0.5753
44795SOL    HW239197   4.568   6.918   1.900  0.9602 -2.3356 -0.9667
44796SOL     OW39198   4.566  12.492   6.108  0.3073  0.1398 -0.6062
44796SOL    HW139199   4.559  12.455   6.020 -2.1085  1.5058 -1.0614
44796SOL    HW239200   4.583  12.416   6.164 -1.0373 -1.1902 -1.8994
44797SOL     OW39201   6.999   4.362  10.398 -0.3555 -0.0586  0.4669
44797SOL    HW139202   6.963   4.368  10.487 -0.1856 -0.5686  0.5719
44797SOL    HW239203   6.922   4.358  10.342 -0.4753  1.0871  0.5213
44798SOL     OW39204   2.089   2.571   5.393 -0.0599  0.1166 -0.3402
44798SOL    HW139205   2.045   2.523   5.322 -0.5040  0.6920 -0.4621
44798SOL    HW239206   2.019   2.593   5.454 -0.5868  3.5970 -1.9354
44799SOL     OW39207  12.624   1.495   9.467 -0.2491  0.4908 -0.2048
44799SOL    HW139208  12.530   1.508   9.457 -0.2167  0.2995 -0.7626
44799SOL    HW239209  12.663   1.575   9.432 -0.2150  0.7626  0.4349
44800SOL     OW39210   3.074   4.428   5.895  0.5306  0.4926  0.0545
44800SOL    HW139211   3.025   4.402   5.817  0.1621 -1.6565  0.9508
44800SOL    HW239212   3.084   4.523   5.886 -0.5773  0.4728 -1.9727
44801SOL     OW39213   4.708   6.000   1.251 -0.1392 -0.1155  0.3786
44801SOL    HW139214   4.790   5.954   1.272 -0.3689 -0.5248  0.3930
44801SOL    HW239215   4.641   5.932   1.256 -0.2829 -0.1375 -1.1689
44802SOL     OW39216   0.193   3.850   1.337  0.1358 -0.7510  0.2976
44802SOL    HW139217   0.168   3.933   1.378  1.3683  1.7546 -3.5091
44802SOL    HW239218   0.288   3.845   1.350  0.1621 -1.2236 -0.0728
44803SOL     OW39219   7.598   6.488   7.651  0.2269  0.0973  0.3296
44803SOL    HW139220   7.571   6.425   7.719 -0.2812  0.7845  0.7855
44803SOL    HW239221   7.515   6.521   7.617  0.4244 -1.2718 -1.6582
44804SOL     OW39222   6.284   5.110   3.708 -0.0590  0.3861  0.1072
44804SOL    HW139223   6.296   5.082   3.617 -0.2409  1.2782 -0.2037
44804SOL    HW239224   6.200   5.072   3.734 -0.0532  0.2091 -0.1244
44805SOL     OW39225   7.003  11.533   2.267 -0.3593 -0.1795  0.6116
44805SOL    HW139226   7.029  11.595   2.199  1.5921  0.7328  2.0640
44805SOL    HW239227   6.908  11.540   2.271 -0.2813  2.2065  0.1817
44806SOL     OW39228   6.164   4.458   7.146  0.0903 -0.2367 -0.3855
44806SOL    HW139229   6.248   4.416   7.130  0.5930 -0.0516  1.4828
44806SOL    HW239230   6.179   4.511   7.224 -2.0201 -1.0344  0.6363
44807SOL     OW39231   9.040  12.529   2.609  0.1732  0.0910  0.6292
44807SOL    HW139232   9.018  12.619   2.587  1.0585  0.6363  1.8476
44807SOL    HW239233   9.135  12.529   2.620  0.4513 -1.4604 -1.2899
44808SOL     OW39234  11.610   3.725  10.513  0.3643 -0.1188  0.2971
44808SOL    HW139235  11.578   3.635  10.511 -1.6045  0.5457 -0.1588
44808SOL    HW239236  11.662   3.730  10.593  0.4187 -1.6161  0.3856
44809SOL     OW39237   8.547   7.592   4.167 -0.6030 -0.0291 -0.0909
44809SOL    HW139238   8.475   7.576   4.228 -0.6228 -3.2058 -0.7848
44809SOL    HW239239   8.626   7.588   4.221 -0.7315 -0.7313  0.0502
44810SOL     OW39240   7.761   2.078   6.807 -0.0479 -0.1934  0.1543
44810SOL    HW139241   7.820   2.153   6.807  0.4062 -0.5411  1.1800
44810SOL    HW239242   7.676   2.115   6.784  0.5331  0.3226 -1.2356
44811SOL     OW39243   2.077   4.711   7.801  0.1400 -0.2936  0.0349
44811SOL    HW139244   2.002   4.652   7.789 -0.7695  0.4896  1.5454
44811SOL    HW239245   2.122   4.676   7.878  0.6840 -0.1188 -0.2036
44812SOL     OW39246   4.848  10.833   7.281 -0.2911  0.0157  0.0035
44812SOL    HW139247   4.773  10.795   7.327  0.4625 -0.7679  0.6210
44812SOL    HW239248   4.824  10.829   7.189 -2.4168  2.8520  0.3115
44813SOL     OW39249   4.988   5.257  11.182  0.9067  0.0554 -0.2844
44813SOL    HW139250   4.984   5.267  11.277  2.5856  1.1430 -0.2872
44813SOL    HW239251   4.912   5.305  11.150  0.7517  0.3344  0.4723
44814SOL     OW39252  12.475   0.035   0.925  0.0184  0.5299 -0.3116
44814SOL    HW139253  12.569   0.024   0.937 -0.1732 -1.4571 -0.2179
44814SOL    HW239254  12.436   0.008   1.008 -0.7528 -2.1359 -1.4218
44815SOL     OW39255  12.039  10.538   9.128 -0.0772  0.8531  0.1244
44815SOL    HW139256  12.079  10.470   9.182 -0.6818  0.6653  0.3464
44815SOL    HW239257  12.106  10.559   9.062 -0.5747 -1.3571 -1.1960
44816SOL     OW39258  10.257   7.987   3.535  0.0488 -0.6795 -0.0674
44816SOL    HW139259  10.191   7.926   3.566 -0.9183  1.2631  1.9762
44816SOL    HW239260  10.208   8.065   3.509  1.3746 -0.0295 -0.7513
44817SOL     OW39261   1.177   3.026   7.536  1.5856  0.1482  0.1779
44817SOL    HW139262   1.155   3.119   7.543  2.0492  0.2181  0.8338
44817SOL    HW239263   1.157   3.003   7.446  1.9436  1.0104 -0.1310
44818SOL     OW39264  10.736   4.390   6.138  0.1287  0.2867 -0.2685
44818SOL    HW139265  10.673   4.443   6.090 -1.4152  0.7100  2.0807
44818SOL    HW239266  10.772   4.449   6.204 -2.4777 -1.6254  3.1894
44819SOL     OW39267   1.070  11.301  12.161 -0.3316 -0.2864  0.4963
44819SOL    HW139268   1.057  11.371  12.097  0.4203 -0.5861 -0.0006
44819SOL    HW239269   1.062  11.344  12.246  0.5449  0.5045  0.1989
44820SOL     OW39270   5.125  11.082   5.644 -0.1489  0.2034  0.1757
44820SOL    HW139271   5.165  11.009   5.692  0.5396  0.2316 -0.3470
44820SOL    HW239272   5.051  11.043   5.598  0.0036 -0.0971  0.1814
44821SOL     OW39273   9.457   5.609   0.205  0.5309  0.7401  0.1620
44821SOL    HW139274   9.367   5.612   0.171  0.3605  0.3254  0.5705
44821SOL    HW239275   9.468   5.692   0.251 -0.3091  0.0236  1.7490
44822SOL     OW39276   0.065   3.623  10.425  0.2667  0.0139  0.3283
44822SOL    HW139277   0.102   3.535  10.425  1.0161  0.3218  0.3681
44822SOL    HW239278   0.078   3.655  10.336  0.2078  0.1767  0.3773
44823SOL     OW39279   6.310   2.484   7.468  0.6267  0.2602  0.3704
44823SOL    HW139280   6.394   2.452   7.499  0.6542 -0.0409 -0.0065
44823SOL    HW239281   6.333   2.549   7.401  0.5697 -1.2665 -1.1933
44824SOL     OW39282  10.087  10.542   2.961  0.0398 -0.5055 -0.5063
44824SOL    HW139283  10.064  10.543   2.868  2.1939 -0.6300 -1.1094
44824SOL    HW239284  10.179  10.514   2.962 -0.5635 -2.7506  1.8332
44825SOL     OW39285  10.495   9.612   3.415  0.4820  0.2948 -0.2337
44825SOL    HW139286  10.564   9.590   3.351 -0.5751 -1.5349 -0.8494
44825SOL    HW239287  10.423   9.553   3.392 -0.7269  1.0999  1.3404
44826SOL     OW39288   3.195   0.146   1.034 -0.4646 -0.2532  0.1781
44826SOL    HW139289   3.155   0.229   1.062 -0.7549 -0.0956 -0.6482
44826SOL    HW239290   3.185   0.088   1.109 -0.5572  0.3626  0.6539
44827SOL     OW39291   2.347   5.905   7.058  0.9346 -0.1748 -0.0706
44827SOL    HW139292   2.386   5.850   6.990 -1.2423 -1.1208 -0.6476
44827SOL    HW239293   2.418   5.923   7.119  2.0478 -2.5603 -0.5694
44828SOL     OW39294   4.355  11.329   5.721  0.0131  0.1914 -0.0193
44828SOL    HW139295   4.303  11.405   5.694 -0.3860  0.0756  0.4140
44828SOL    HW239296   4.314  11.255   5.678  1.4553  0.3962 -1.8855
44829SOL     OW39297   1.082   6.589   7.897 -0.0922 -0.2473  0.1156
44829SOL    HW139298   1.064   6.673   7.856  0.0347 -0.2900 -0.0311
44829SOL    HW239299   1.177   6.588   7.910 -0.1429 -0.1839  0.5232
44830SOL     OW39300   1.252   0.162   5.212  0.6737  0.7537 -0.4384
44830SOL    HW139301   1.309   0.085   5.215  0.4828  0.5259 -2.0679
44830SOL    HW239302   1.310   0.234   5.185  0.1949  0.4771 -2.3273
44831SOL     OW39303  10.783   9.496   5.816  0.2695 -0.0651 -0.2634
44831SOL    HW139304  10.697   9.485   5.777 -0.2093 -0.3938  0.8406
44831SOL    HW239305  10.770   9.479   5.909  1.4655  0.1945 -0.0236
44832SOL     OW39306   2.237   7.366  11.273  0.9122  0.1528 -0.5306
44832SOL    HW139307   2.331   7.373  11.257  0.9063  1.3079 -0.1850
44832SOL    HW239308   2.229   7.312  11.351  1.1794 -1.4240 -1.5460
44833SOL     OW39309   3.488   2.659   6.298 -0.1253 -0.4306 -0.8483
44833SOL    HW139310   3.530   2.639   6.382  0.0557 -1.2403 -1.1209
44833SOL    HW239311   3.476   2.754   6.299  2.6578 -0.0059 -1.1868
44834SOL     OW39312   8.136   2.218   6.564 -0.1667 -0.0451  0.5484
44834SOL    HW139313   8.179   2.205   6.479  0.2439  1.2960  0.5164
44834SOL    HW239314   8.059   2.271   6.544  0.8892  1.8251  1.1833
44835SOL     OW39315   4.148   3.222   5.587 -0.3640 -0.1986 -0.5128
44835SOL    HW139316   4.093   3.185   5.518 -0.7386 -0.7067  0.0457
44835SOL    HW239317   4.094   3.218   5.666  0.6297 -1.1435  0.1539
44836SOL     OW39318   6.657   2.122   1.732  0.3088 -0.0921 -0.2090
44836SOL    HW139319   6.675   2.213   1.756 -0.0030  0.3043 -1.4306
44836SOL    HW239320   6.563   2.120   1.713  0.7700 -0.0425 -2.7319
44837SOL     OW39321   5.901  12.201   5.249 -0.0402 -0.8649 -0.1037
44837SOL    HW139322   5.955  12.160   5.316 -0.3669 -0.5684  0.3423
44837SOL    HW239323   5.883  12.289   5.282  0.3479 -0.4811 -0.8881
44838SOL     OW39324   0.006   5.098   3.160  0.2846  0.3890  0.1295
44838SOL    HW139325   0.039   5.183   3.130  0.4985  1.3079  2.6982
44838SOL    HW239326  -0.086   5.114   3.180 -0.4600 -0.7973 -2.0146
44839SOL     OW39327   3.753   0.254   1.525 -0.0895  0.3350  0.0184
44839SOL    HW139328   3.736   0.220   1.438  1.3250 -0.5025  0.0342
44839SOL    HW239329   3.834   0.211   1.553  0.2257  1.5866  1.1998
44840SOL     OW39330   0.551   2.336   8.985 -0.2921 -0.3529  0.0435
44840SOL    HW139331   0.489   2.312   8.916  0.8761 -1.6209 -0.6188
44840SOL    HW239332   0.560   2.431   8.977  0.8820 -0.5883 -2.5556
44841SOL     OW39333   0.786   6.001   4.856  0.1605 -0.4511 -0.1828
44841SOL    HW139334   0.870   6.008   4.902 -0.1903 -0.9954  0.5377
44841SOL    HW239335   0.810   5.975   4.767  1.0377  2.8242 -1.0584
44842SOL     OW39336   1.764   1.262   1.788 -0.3557 -0.0992  0.9205
44842SOL    HW139337   1.802   1.350   1.777  1.8852 -1.1231 -0.1241
44842SOL    HW239338   1.762   1.226   1.699  0.5937 -1.8040  1.5521
44843SOL     OW39339   0.730   0.061   1.858 -0.1935 -0.3019  0.2571
44843SOL    HW139340   0.768   0.112   1.787 -0.8800  0.2954  0.3137
44843SOL    HW239341   0.636   0.059   1.839 -0.1507 -1.8567  0.0514
44844SOL     OW39342   4.218   5.071   9.058  0.2071  0.4111 -0.2657
44844SOL    HW139343   4.183   4.987   9.029  1.8666 -0.6454  0.6020
44844SOL    HW239344   4.225   5.123   8.978  0.5127 -0.8076 -1.0663
44845SOL     OW39345   8.660  12.493   5.277  0.0121 -0.2004 -0.1890
44845SOL    HW139346   8.606  12.545   5.336 -0.7902 -0.0267 -1.0513
44845SOL    HW239347   8.706  12.432   5.334  0.7702  1.2640  0.8151
44846SOL     OW39348   1.914   8.907   2.131  0.1092 -0.0298  0.3429
44846SOL    HW139349   1.994   8.956   2.110  0.7836 -0.0066  2.6985
44846SOL    HW239350   1.926   8.822   2.089 -0.0581  0.9748 -1.8862
44847SOL     OW39351   1.300   9.380   0.240  0.0163  0.0358 -0.9975
44847SOL    HW139352   1.308   9.312   0.174 -2.4406  0.7504 -2.1639
44847SOL    HW239353   1.243   9.446   0.200  0.5360  1.7322  0.8971
44848SOL     OW39354   7.095   7.482   7.831 -0.0115 -0.0844  0.3148
44848SOL    HW139355   7.091   7.448   7.920  0.3510  1.4291  0.9428
44848SOL    HW239356   7.005   7.509   7.811 -0.2010 -0.9199  0.0017
44849SOL     OW39357   5.803   3.464   4.273  0.0088  0.0067  0.0961
44849SOL    HW139358   5.826   3.528   4.341 -0.0743 -0.0859  0.2115
44849SOL    HW239359   5.826   3.507   4.191  0.0441  0.1471  0.1796
44850SOL     OW39360   6.450   6.182   3.821  0.2763 -0.4399  0.3574
44850SOL    HW139361   6.370   6.134   3.842 -2.0505  3.5281  1.7604
44850SOL    HW239362   6.465   6.237   3.898  2.0096  1.8453 -1.4741
44851SOL     OW39363   7.384   8.303   0.949 -0.4965  0.1701  0.6524
44851SOL    HW139364   7.361   8.360   1.023 -1.0626  0.1761  0.4803
44851SOL    HW239365   7.353   8.216   0.975 -0.9776  0.2318  0.2954
44852SOL     OW39366   9.012   8.337   3.936 -0.0410  0.3697  0.3560
44852SOL    HW139367   8.919   8.324   3.914  0.2603  0.2626 -0.9596
44852SOL    HW239368   9.014   8.340   4.031 -1.4120  0.4456  0.4061
44853SOL     OW39369  10.318  10.925   8.106 -0.0282 -0.3575 -0.7200
44853SOL    HW139370  10.269  11.003   8.082 -0.0793 -0.2651 -0.3242
44853SOL    HW239371  10.383  10.956   8.170 -1.8972 -1.0968  1.6627
44854SOL     OW39372  12.553   0.759   0.633  0.1323  0.1844  0.1999
44854SOL    HW139373  12.566   0.739   0.540 -0.6068  0.7689 -0.0368
44854SOL    HW239374  12.638   0.794   0.662  0.5366 -0.5165 -0.1041
44855SOL     OW39375  11.982   9.565   0.981  0.3934 -0.7014 -0.4368
44855SOL    HW139376  11.902   9.606   1.012  1.6897 -0.0024  2.3097
44855SOL    HW239377  11.976   9.475   1.013  0.1912 -0.9857 -1.2650
44856SOL     OW39378   9.914   7.460  11.739 -0.2457 -0.1453 -0.2376
44856SOL    HW139379   9.864   7.541  11.747 -1.3001 -0.5670 -1.9633
44856SOL    HW239380   9.882   7.420  11.658  0.5494 -2.0784  0.3373
44857SOL     OW39381   9.771   0.466   2.922 -0.1591  0.0449  0.5147
44857SOL    HW139382   9.833   0.527   2.882  0.7355 -0.4409  1.1056
44857SOL    HW239383   9.735   0.416   2.849  2.4976 -1.8176  0.2856
44858SOL     OW39384   9.990   3.121  11.481  0.3813  0.2310  0.1916
44858SOL    HW139385  10.046   3.057  11.523 -0.4890  0.4222  1.7249
44858SOL    HW239386   9.994   3.198  11.538  1.2066  1.4672 -1.4773
44859SOL     OW39387  10.976   2.440  10.292  0.4915  0.5042  0.2764
44859SOL    HW139388  10.947   2.365  10.241 -0.8701  0.8395  0.5126
44859SOL    HW239389  10.954   2.516  10.238 -0.2668  0.8237  1.0039
44860SOL     OW39390   6.240   1.745   0.816  0.0358  0.1543 -0.3130
44860SOL    HW139391   6.268   1.785   0.733  0.8707 -0.7520 -0.4878
44860SOL    HW239392   6.318   1.745   0.871 -0.2829 -0.0569  0.1462
44861SOL     OW39393   5.026   0.266   7.322 -0.2235  0.2118 -0.1325
44861SOL    HW139394   5.019   0.172   7.309 -0.0227 -0.0765  1.5360
44861SOL    HW239395   5.005   0.304   7.237  0.2261 -1.3454 -0.9837
44862SOL     OW39396   5.595   8.852   1.208  0.4138 -0.2588 -0.2451
44862SOL    HW139397   5.656   8.780   1.197  2.5747  1.6783 -2.1160
44862SOL    HW239398   5.619   8.892   1.292  0.6847 -0.4182 -0.2489
44863SOL     OW39399  12.287   6.378   9.749  0.1596  0.1116  0.1456
44863SOL    HW139400  12.262   6.288   9.728 -0.2940  0.1867  0.3548
44863SOL    HW239401  12.383   6.378   9.747  0.3678 -1.2372  3.6568
44864SOL     OW39402   9.665   7.662  12.405 -0.4478 -0.2365  0.2060
44864SOL    HW139403   9.622   7.731  12.455  2.1703  0.9116  1.0862
44864SOL    HW239404   9.719   7.617  12.470  1.2331 -0.2520 -1.1390
44865SOL     OW39405   4.822  10.329   5.102  0.1466 -0.6586  0.0437
44865SOL    HW139406   4.868  10.245   5.104  0.1337 -0.7286 -1.2391
44865SOL    HW239407   4.830  10.363   5.190  3.3990 -0.2789 -0.2664
44866SOL     OW39408   2.509   0.475   3.142 -0.4240 -0.0639 -0.3409
44866SOL    HW139409   2.505   0.570   3.148  1.2469  0.0375 -0.3824
44866SOL    HW239410   2.553   0.447   3.222 -0.1943 -0.7298 -0.6869
44867SOL     OW39411   2.338   0.899   4.776 -0.2160 -0.3339 -0.4976
44867SOL    HW139412   2.364   0.866   4.690  2.3583 -1.9242  0.7651
44867SOL    HW239413   2.387   0.980   4.786 -0.2931 -0.2982 -0.4083
44868SOL     OW39414   2.772   5.557   3.618  0.2341 -0.2106  0.0684
44868SOL    HW139415   2.742   5.478   3.572 -0.7180 -0.5725  1.2558
44868SOL    HW239416   2.828   5.601   3.555  1.2920 -2.1373 -0.4252
44869SOL     OW39417   2.792   8.247   0.275  0.2843 -0.1193 -0.4521
44869SOL    HW139418   2.765   8.274   0.363  1.9543 -2.1695  0.7632
44869SOL    HW239419   2.783   8.327   0.223 -0.0802  1.3566  1.7145
44870SOL     OW39420   2.880   4.287   6.767 -0.5806  0.1887 -0.4536
44870SOL    HW139421   2.884   4.248   6.679 -1.2586 -2.0267  0.4270
44870SOL    HW239422   2.950   4.244   6.815 -1.1356  0.3054  0.4727
44871SOL     OW39423   4.244   0.089   5.817 -0.0775 -0.1338  0.3557
44871SOL    HW139424   4.261  -0.005   5.815 -1.2461 -0.3655  0.2235
44871SOL    HW239425   4.173   0.099   5.881  0.0712  0.6629  0.4104
44872SOL     OW39426   7.164   4.350   2.189 -0.1466  0.4590  0.1338
44872SOL    HW139427   7.100   4.353   2.260 -0.7556  1.7250 -0.4389
44872SOL    HW239428   7.233   4.411   2.216  0.6002 -0.5154  0.5116
44873SOL     OW39429   4.876   8.763   3.450  0.4232 -0.1980  0.0821
44873SOL    HW139430   4.865   8.856   3.428  2.0271 -0.2965 -1.3998
44873SOL    HW239431   4.881   8.761   3.545  0.1197  1.1990  0.1509
44874SOL     OW39432   2.586   2.727   4.483  0.4729  0.2806  0.0290
44874SOL    HW139433   2.579   2.820   4.506  0.6901  0.2168  0.3634
44874SOL    HW239434   2.560   2.723   4.391 -1.8516  0.3376  0.6232
44875SOL     OW39435   2.263   7.378   2.556  0.0187  0.3006  0.5288
44875SOL    HW139436   2.210   7.455   2.577 -2.2429 -1.3117  1.2423
44875SOL    HW239437   2.350   7.399   2.588 -0.2346  2.9661 -0.3279
44876SOL     OW39438   2.996  10.194   6.403  0.2976  0.0249 -0.3682
44876SOL    HW139439   2.929  10.259   6.422  0.1623 -0.4996  1.0837
44876SOL    HW239440   3.027  10.215   6.315  0.3011  2.0761  0.0888
44877SOL     OW39441  12.200   4.721  10.758 -0.4256  0.0112 -0.3120
44877SOL    HW139442  12.130   4.766  10.711 -1.0767 -0.5954  0.0493
44877SOL    HW239443  12.280   4.766  10.732 -0.6000 -1.0151 -2.8872
44878SOL     OW39444   0.558   4.499   3.993  0.1589  0.0703 -0.7124
44878SOL    HW139445   0.465   4.481   4.011  0.3532 -0.0375  0.2420
44878SOL    HW239446   0.605   4.447   4.058  0.9463 -0.7945 -1.9273
44879SOL     OW39447   3.792   2.361   4.716  0.2294  0.1522  0.6029
44879SOL    HW139448   3.870   2.313   4.746  0.7303  0.5020 -0.1052
44879SOL    HW239449   3.755   2.304   4.648 -0.5451 -0.3453  1.4241
44880SOL     OW39450   7.976   6.929   6.090 -0.1557  0.0663 -0.0142
44880SOL    HW139451   7.934   6.861   6.142 -1.4676  2.1436  1.8048
44880SOL    HW239452   7.916   7.004   6.094  1.7345  1.7370 -0.9150
44881SOL     OW39453   0.029   0.861   3.123 -0.4174  0.7943 -0.5136
44881SOL    HW139454   0.078   0.860   3.205 -1.2689  3.3589  0.1223
44881SOL    HW239455   0.038   0.950   3.090 -3.3862  0.9788 -1.1231
44882SOL     OW39456   5.345   2.435  11.975 -0.1700  0.3213  0.1771
44882SOL    HW139457   5.291   2.401  11.904  1.1445 -0.7664 -0.3547
44882SOL    HW239458   5.336   2.530  11.968  0.6958  0.3148 -2.1369
44883SOL     OW39459  11.442   6.659   1.096  0.2497  0.2316 -0.1505
44883SOL    HW139460  11.526   6.674   1.139 -0.0316  1.7585 -0.1028
44883SOL    HW239461  11.403   6.587   1.146  2.6842 -2.5668 -1.9061
44884SOL     OW39462   8.114  11.558   0.600  0.8108 -0.0539  0.5350
44884SOL    HW139463   8.088  11.612   0.675  2.4623  1.0616  0.3592
44884SOL    HW239464   8.174  11.494   0.637 -0.3342 -1.1598  0.5567
44885SOL     OW39465   3.816  12.137   5.773  0.3169  0.6335 -0.0727
44885SOL    HW139466   3.897  12.135   5.825  0.1545 -1.4212  0.2175
44885SOL    HW239467   3.749  12.170   5.833  1.1199  3.7372 -0.7288
44886SOL     OW39468   9.976   4.913   7.621 -0.5321 -0.1112 -0.3195
44886SOL    HW139469   9.907   4.851   7.597 -1.2108  0.2251  0.6813
44886SOL    HW239470   9.960   4.931   7.714  0.6318  0.3289 -0.1900
44887SOL     OW39471   9.602   1.575   8.880  0.3319 -0.2863  0.0877
44887SOL    HW139472   9.547   1.645   8.914 -2.5734 -2.0201 -0.6557
44887SOL    HW239473   9.660   1.552   8.952 -1.8599 -0.1909  1.9929
44888SOL     OW39474   4.695  11.623   5.597  0.4518  0.0331 -0.3881
44888SOL    HW139475   4.750  11.574   5.658  0.8223 -1.5032 -1.9110
44888SOL    HW239476   4.635  11.673   5.654  0.7743 -1.3478  1.2302
44889SOL     OW39477   4.332  11.772   3.338  0.2617  0.6853  0.0642
44889SOL    HW139478   4.338  11.839   3.271  0.6931 -0.4921 -1.1132
44889SOL    HW239479   4.248  11.730   3.323  0.0480  0.8645  0.7199
44890SOL     OW39480  10.644   4.710   4.412 -0.0655 -0.0549  0.0866
44890SOL    HW139481  10.664   4.701   4.505  0.0942 -0.3777  0.0208
44890SOL    HW239482  10.695   4.786   4.384 -0.2629  0.1594  0.3028
44891SOL     OW39483   8.750   2.550  12.016 -0.1098  0.3314  0.1483
44891SOL    HW139484   8.724   2.516  11.931  0.0496  0.4195  0.0634
44891SOL    HW239485   8.846   2.541  12.018 -0.2636 -1.4986  1.1077
44892SOL     OW39486   3.409   3.872  10.760  0.2398 -0.1668 -0.0338
44892SOL    HW139487   3.369   3.805  10.705 -1.2375 -1.1362  2.0822
44892SOL    HW239488   3.335   3.915  10.803  1.0299  3.5737 -1.9761
44893SOL     OW39489   4.237   0.118  11.791 -0.2448  0.0574 -0.3180
44893SOL    HW139490   4.321   0.152  11.758 -1.4095  1.2225 -2.2932
44893SOL    HW239491   4.254   0.026  11.809  1.6748  0.4535  0.1808
44894SOL     OW39492   8.688   9.511   5.941 -0.3997 -0.0379  0.5303
44894SOL    HW139493   8.648   9.595   5.966 -1.4015 -0.3041 -0.1307
44894SOL    HW239494   8.614   9.455   5.920  0.2157 -1.3772  1.7899
44895SOL     OW39495   3.700   4.325   3.773  0.4523 -0.1302 -0.8300
44895SOL    HW139496   3.644   4.374   3.833  0.2737  0.0089 -1.1120
44895SOL    HW239497   3.657   4.331   3.688  0.8294 -0.1292 -1.0251
44896SOL     OW39498   8.598   8.585   1.271 -0.4089 -0.1734  0.1642
44896SOL    HW139499   8.592   8.513   1.334 -2.0306  0.3142  0.6020
44896SOL    HW239500   8.555   8.659   1.314 -0.7571  0.4249 -1.1626
44897SOL     OW39501  10.973   9.085   1.312 -0.0360 -0.5679  0.1954
44897SOL    HW139502  11.034   9.149   1.348 -0.1695 -0.1323 -0.3253
44897SOL    HW239503  10.891   9.101   1.358 -0.8512  1.5028 -1.7672
44898SOL     OW39504   5.946   0.224   1.585 -0.7230 -1.2128 -0.3589
44898SOL    HW139505   6.038   0.206   1.564 -0.0363 -0.6796  1.8732
44898SOL    HW239506   5.939   0.319   1.583 -0.9101 -1.2002  0.6410
44899SOL     OW39507  12.291   2.436   4.477  0.0771  0.1636  0.2155
44899SOL    HW139508  12.357   2.449   4.409 -1.3379 -0.9494 -1.4365
44899SOL    HW239509  12.338   2.393   4.548  1.6649  1.6621  0.1443
44900SOL     OW39510   7.070  11.958   9.726 -0.1065 -0.0903  0.2197
44900SOL    HW139511   7.023  11.945   9.809 -0.5164 -1.0860 -0.1515
44900SOL    HW239512   7.026  11.900   9.664  1.1757 -0.5347 -0.3176
44901SOL     OW39513   8.592   0.598   5.705  0.5704  0.8643  0.1109
44901SOL    HW139514   8.616   0.511   5.672  0.9667  0.2770  1.8552
44901SOL    HW239515   8.531   0.580   5.777  0.2436  2.0593  0.1505
44902SOL     OW39516   6.074  11.611  10.390  0.2939 -0.1698 -0.0754
44902SOL    HW139517   6.035  11.525  10.374 -0.2984  0.1283 -0.2754
44902SOL    HW239518   6.101  11.608  10.481 -2.0244  0.2974  0.6926
44903SOL     OW39519   3.456  11.645   8.421 -0.3909 -0.4984  0.1913
44903SOL    HW139520   3.395  11.640   8.347  1.1833 -1.9074 -1.0996
44903SOL    HW239521   3.421  11.583   8.485 -0.6661 -0.8157 -0.2557
44904SOL     OW39522   8.617   0.850   8.639  0.0248 -0.0178 -0.2013
44904SOL    HW139523   8.701   0.889   8.616 -0.7761  1.2777 -1.0588
44904SOL    HW239524   8.554   0.923   8.633 -1.1186 -0.8880  0.6797
44905SOL     OW39525  10.605   7.285   7.796  0.3802  0.0437  0.1087
44905SOL    HW139526  10.646   7.243   7.871  1.9810  0.0002 -0.7320
44905SOL    HW239527  10.513   7.260   7.801  1.0095 -2.5107  0.3811
44906SOL     OW39528  10.083   1.588   4.691  0.6307  0.2949 -0.2859
44906SOL    HW139529  10.175   1.615   4.684  0.3419  1.1996 -0.6521
44906SOL    HW239530  10.085   1.494   4.668  1.4051  0.4024 -0.7218
44907SOL     OW39531   9.686   1.384  12.348  0.6710 -0.0672 -0.4779
44907SOL    HW139532   9.724   1.369  12.435 -0.2633 -1.9132 -0.3332
44907SOL    HW239533   9.603   1.428  12.366  0.8951  0.3793 -0.5179
44908SOL     OW39534   5.689   4.461  10.016  0.2540  0.2998 -0.4180
44908SOL    HW139535   5.608   4.434   9.974 -0.1027 -0.0693  0.4895
44908SOL    HW239536   5.677   4.554  10.035  0.2092  0.3419 -0.6554
44909SOL     OW39537   3.921   7.934   6.875  0.7422  0.0944  0.2000
44909SOL    HW139538   4.001   7.941   6.927 -0.0123  2.4007  1.2000
44909SOL    HW239539   3.950   7.938   6.784  1.8462 -0.3334  0.5287
44910SOL     OW39540   3.197  10.207   4.232 -0.5533 -0.0438  0.3980
44910SOL    HW139541   3.177  10.153   4.309 -3.0017  0.8622  0.4903
44910SOL    HW239542   3.292  10.217   4.234 -0.5295  0.2251  3.5292
44911SOL     OW39543  10.360  11.071   9.867  0.0793  0.4428  0.5521
44911SOL    HW139544  10.335  11.145   9.811 -0.3214 -0.0485  0.0724
44911SOL    HW239545  10.302  11.000   9.840  2.1102 -0.8080 -0.7514
44912SOL     OW39546   1.126  11.985  11.241 -0.3490  0.8366 -1.0585
44912SOL    HW139547   1.093  11.916  11.184  1.5730 -0.7049 -0.4183
44912SOL    HW239548   1.155  12.054  11.182 -0.9163  0.4440 -1.7979
44913SOL     OW39549   6.009   9.250   2.361  0.1643  0.3773 -0.3360
44913SOL    HW139550   5.940   9.199   2.318  0.1777  1.7295 -2.0800
44913SOL    HW239551   6.067   9.276   2.289  0.5581  2.1811  0.5882
44914SOL     OW39552   4.658   4.706  10.265 -0.3250 -0.8018  0.1159
44914SOL    HW139553   4.601   4.632  10.287 -0.3863 -0.4301  1.3315
44914SOL    HW239554   4.637   4.727  10.175  0.7703 -3.2134 -0.7885
44915SOL     OW39555   9.724   4.149   6.368  0.1381 -0.3892  0.5930
44915SOL    HW139556   9.696   4.140   6.277 -0.9298  0.7988  0.7812
44915SOL    HW239557   9.820   4.154   6.364  0.0671  0.2343 -0.5223
44916SOL     OW39558  12.459  12.186   5.266 -0.2962  0.5156  0.2272
44916SOL    HW139559  12.502  12.147   5.190  0.2834  0.4501  0.5823
44916SOL    HW239560  12.386  12.236   5.229 -0.0464  0.4555 -0.3659
44917SOL     OW39561   1.037   1.193  11.913  0.2089 -0.2914  0.1818
44917SOL    HW139562   1.009   1.262  11.853 -0.5280  1.2187  2.1604
44917SOL    HW239563   1.121   1.163  11.879  1.3362  2.6994  0.0817
44918SOL     OW39564   6.501   5.180  11.770 -0.4387 -0.4114 -0.5133
44918SOL    HW139565   6.414   5.189  11.732 -1.0917  0.5051  1.1387
44918SOL    HW239566   6.486   5.153  11.860  0.9413  0.5947  0.0591
44919SOL     OW39567   9.395   8.239   7.388 -0.1157 -0.3491  0.4461
44919SOL    HW139568   9.324   8.184   7.422  0.3210 -0.4625  1.1893
44919SOL    HW239569   9.361   8.328   7.395 -0.6117 -0.4778 -0.2411
44920SOL     OW39570   9.018   4.622   7.322  0.3371 -0.1129 -0.6119
44920SOL    HW139571   8.962   4.551   7.352 -0.8301  0.4655 -1.3158
44920SOL    HW239572   9.002   4.693   7.385  1.7567 -0.5602  0.2873
44921SOL     OW39573  11.876  10.641   6.355  0.6558 -0.2361  0.4988
44921SOL    HW139574  11.842  10.706   6.293  0.4031 -0.2547  0.6196
44921SOL    HW239575  11.888  10.562   6.302  2.2055  0.2596  0.0413
44922SOL     OW39576   6.517   9.283   7.849  0.1360  0.0493 -0.2571
44922SOL    HW139577   6.559   9.238   7.775 -0.0936  1.1638 -1.0748
44922SOL    HW239578   6.427   9.252   7.848 -0.0910  0.7214 -0.9839
44923SOL     OW39579   6.523   5.254   7.059 -0.2334 -0.1719 -0.1423
44923SOL    HW139580   6.548   5.344   7.039  0.4272 -0.6438 -1.5002
44923SOL    HW239581   6.474   5.225   6.983 -2.5908 -0.2081  1.2861
44924SOL     OW39582  11.312   5.403   5.647 -0.0256  0.2198 -0.3700
44924SOL    HW139583  11.403   5.415   5.621 -0.3221  1.2953 -0.9958
44924SOL    HW239584  11.303   5.452   5.729 -0.1182  0.4197 -0.4973
44925SOL     OW39585   6.154   1.265  10.485  0.1780 -0.4275 -0.0120
44925SOL    HW139586   6.202   1.284  10.404  3.8882 -0.9589  1.8782
44925SOL    HW239587   6.145   1.349  10.528  2.8940 -0.7060  1.2960
44926SOL     OW39588   5.915   3.617   4.637  0.3401 -0.7446  0.4539
44926SOL    HW139589   5.880   3.679   4.572  0.6196 -0.5898  0.4492
44926SOL    HW239590   5.858   3.540   4.629  0.3568 -0.7188  0.0383
44927SOL     OW39591   4.271  10.791   6.248 -0.0251  0.1017 -0.1264
44927SOL    HW139592   4.365  10.806   6.247  0.2584 -1.3754 -2.4334
44927SOL    HW239593   4.233  10.879   6.251  1.4036  0.7472  0.0340
44928SOL     OW39594   8.136  10.768  11.983  0.2755 -0.1362 -0.3264
44928SOL    HW139595   8.112  10.809  11.900  1.8327 -0.6205 -1.0516
44928SOL    HW239596   8.167  10.840  12.037 -0.9852  0.2209 -0.0403
44929SOL     OW39597   3.481   6.265  12.224  0.2830 -0.8855  0.4761
44929SOL    HW139598   3.543   6.248  12.295 -0.4110 -1.0641  1.0594
44929SOL    HW239599   3.479   6.361  12.215  0.5530 -0.8757  0.5335
44930SOL     OW39600   3.189   2.627   9.360  0.3722 -0.0427 -0.7159
44930SOL    HW139601   3.150   2.547   9.393  1.9951  0.0111  1.6054
44930SOL    HW239602   3.283   2.611   9.362  0.7602  1.9421  0.0336
44931SOL     OW39603   0.868   4.128   6.035  0.2665  0.2057 -0.1926
44931SOL    HW139604   0.823   4.080   6.105 -0.0893 -2.1384 -1.9365
44931SOL    HW239605   0.844   4.220   6.051 -2.6463 -0.6002  0.7397
44932SOL     OW39606   8.967   2.082   4.682  0.4819  0.1645 -0.1812
44932SOL    HW139607   9.046   2.128   4.652  1.5369 -2.3513 -1.6309
44932SOL    HW239608   8.987   2.054   4.771  1.5556 -0.9930 -0.7532
44933SOL     OW39609   1.613   2.710  11.398  0.1015  0.0286 -0.5604
44933SOL    HW139610   1.671   2.678  11.329 -0.3149 -0.4110 -0.7069
44933SOL    HW239611   1.666   2.709  11.477  0.0975 -1.0151 -0.5619
44934SOL     OW39612   2.406   4.880   6.242 -0.0709 -0.5067  0.6741
44934SOL    HW139613   2.487   4.877   6.293 -0.3267 -1.7100  1.0497
44934SOL    HW239614   2.408   4.965   6.198  1.4212 -0.5358  0.6325
44935SOL     OW39615  10.326  12.047  11.703  0.1467  0.0520  0.0543
44935SOL    HW139616  10.302  12.054  11.610  0.9022 -2.0549 -0.3453
44935SOL    HW239617  10.270  11.977  11.736 -0.2193  0.8851  1.2637
44936SOL     OW39618   4.084   8.595   3.699 -0.0235  0.1945 -0.4126
44936SOL    HW139619   4.092   8.544   3.618  1.2965 -1.7643  0.8507
44936SOL    HW239620   4.152   8.560   3.756 -0.3167  2.1451  1.2460
44937SOL     OW39621   2.145  10.648   3.074  0.0621 -0.3138  0.7508
44937SOL    HW139622   2.224  10.663   3.127 -0.7285  1.5954  1.4627
44937SOL    HW239623   2.073  10.656   3.135 -0.8138  0.6807 -0.3685
44938SOL     OW39624   1.763   2.047   2.743  0.1303 -0.1368 -0.1904
44938SOL    HW139625   1.820   1.970   2.749  1.3261  0.6873 -0.5469
44938SOL    HW239626   1.705   2.029   2.670 -1.9264 -2.1420  1.7596
44939SOL     OW39627   3.683   7.950   0.482 -0.3895  0.0283 -0.1103
44939SOL    HW139628   3.729   7.882   0.530  2.5081  0.8321 -1.4688
44939SOL    HW239629   3.662   8.016   0.548 -1.0321 -1.0799  0.8154
44940SOL     OW39630   6.594   4.936   1.749 -0.1957  0.5064 -0.0155
44940SOL    HW139631   6.638   4.976   1.674  1.2171  1.5220  1.3094
44940SOL    HW239632   6.501   4.948   1.731  0.0740  0.0906 -1.9237
44941SOL     OW39633   1.507   2.848  12.089 -0.6919  0.0745  0.0468
44941SOL    HW139634   1.598   2.820  12.096 -1.0424 -1.8679 -1.9145
44941SOL    HW239635   1.465   2.812  12.167 -0.0147 -0.0845  0.3479
44942SOL     OW39636  11.246   5.961   3.557  0.2391 -0.3644  0.4740
44942SOL    HW139637  11.315   5.915   3.606 -0.6741 -0.1715  1.9861
44942SOL    HW239638  11.224   6.036   3.612 -0.8131 -0.1344 -0.2424
44943SOL     OW39639   2.949   7.490  12.374 -0.0975 -0.5975 -0.1148
44943SOL    HW139640   2.926   7.437  12.450 -0.4855 -0.6640 -0.2809
44943SOL    HW239641   2.942   7.431  12.300  0.2936 -0.5354 -0.2041
44944SOL     OW39642  11.739   4.603   4.824 -0.6870 -0.2976  0.1735
44944SOL    HW139643  11.745   4.558   4.909  1.6239 -1.8167 -0.6965
44944SOL    HW239644  11.823   4.649   4.816 -1.3003  0.6772 -0.8527
44945SOL     OW39645   8.287   6.444   4.665  0.5986  0.0708 -0.2682
44945SOL    HW139646   8.297   6.486   4.580  0.2776  1.8355  0.5026
44945SOL    HW239647   8.201   6.473   4.696  0.8422 -0.2574  0.7839
44946SOL     OW39648   6.409   9.248   4.303 -0.1689 -0.4972  0.2019
44946SOL    HW139649   6.439   9.172   4.254 -2.0348 -0.6341 -0.8444
44946SOL    HW239650   6.474   9.316   4.285 -0.2062 -0.8813 -1.5779
44947SOL     OW39651   3.820   5.647   5.100  0.0778 -0.0007 -0.3004
44947SOL    HW139652   3.846   5.691   5.019 -0.5918  0.4242 -0.2889
44947SOL    HW239653   3.900   5.605   5.131  1.0265  2.0795  0.2485
44948SOL     OW39654   3.828   4.671   2.938  0.7649  0.3162  0.0164
44948SOL    HW139655   3.792   4.621   2.865 -0.3487  1.5133 -0.2811
44948SOL    HW239656   3.916   4.635   2.951 -0.5116 -2.8183  0.8489
44949SOL     OW39657   0.262   0.742   1.605 -0.6284 -0.5549  0.3370
44949SOL    HW139658   0.295   0.766   1.692 -1.4871  0.0851  0.5008
44949SOL    HW239659   0.334   0.762   1.546 -0.5214  0.3115  0.7447
44950SOL     OW39660  11.291  10.266   0.573 -0.1661  0.9708 -0.1625
44950SOL    HW139661  11.212  10.264   0.628  0.2811  0.0906  0.4816
44950SOL    HW239662  11.298  10.178   0.537  1.7213  0.3159  1.5909
44951SOL     OW39663   1.799   8.942   6.669 -0.0224  0.5003 -0.1658
44951SOL    HW139664   1.862   9.012   6.653 -0.9278  1.1587 -1.0211
44951SOL    HW239665   1.824   8.872   6.610 -0.1833  0.8281 -0.6269
44952SOL     OW39666   3.153   8.921   4.619 -0.1159 -0.0676 -0.3743
44952SOL    HW139667   3.147   8.842   4.672 -0.8529  0.5175  0.4493
44952SOL    HW239668   3.162   8.889   4.529  4.7175 -1.1337  0.2570
44953SOL     OW39669   1.674   2.899  11.130 -0.5652 -0.7003 -0.1598
44953SOL    HW139670   1.679   2.986  11.090 -0.5731 -0.9021 -0.6132
44953SOL    HW239671   1.687   2.914  11.223 -1.5240 -0.1025 -0.1099
44954SOL     OW39672   9.951   7.482   5.172  0.3441 -0.7544 -0.3771
44954SOL    HW139673   9.883   7.548   5.157  0.5186 -0.7807 -1.3507
44954SOL    HW239674   9.903   7.407   5.208  0.2104  0.0257  1.1436
44955SOL     OW39675   8.278   4.688   3.624  0.8641 -0.0650 -0.8318
44955SOL    HW139676   8.337   4.726   3.558 -0.1216  0.6669 -1.3092
44955SOL    HW239677   8.190   4.707   3.591  0.3133 -2.1190 -0.7232
44956SOL     OW39678   1.235   3.507   0.468 -0.1311 -0.1964  0.5447
44956SOL    HW139679   1.198   3.432   0.514 -0.7440  0.0530  0.4657
44956SOL    HW239680   1.313   3.473   0.425 -0.4327 -0.7990  0.4708
44957SOL     OW39681   1.408   4.354   3.154  0.1668  0.1859  0.6128
44957SOL    HW139682   1.439   4.290   3.090  3.9719  2.6203 -0.3548
44957SOL    HW239683   1.371   4.425   3.102  0.0266  0.6628  1.3434
44958SOL     OW39684   6.419   4.494   9.169 -0.4977 -0.2320  0.5165
44958SOL    HW139685   6.396   4.541   9.089 -0.2537  0.4397  0.8386
44958SOL    HW239686   6.515   4.490   9.168 -0.5231 -1.1616  0.2461
44959SOL     OW39687  10.888   6.119   6.479  0.3924  0.2042  0.1594
44959SOL    HW139688  10.847   6.035   6.457  0.1832  0.0871  0.9670
44959SOL    HW239689  10.814   6.180   6.488  0.3208 -0.1250  2.1365
44960SOL     OW39690   0.795   0.236   1.676 -0.0868  0.2294  0.4584
44960SOL    HW139691   0.889   0.255   1.674  0.0336  0.2808  3.0174
44960SOL    HW239692   0.757   0.310   1.725 -1.3318 -0.2036  0.1765
44961SOL     OW39693   5.588   3.676   2.008 -0.8044  0.5870  0.4487
44961SOL    HW139694   5.668   3.722   2.031  1.2605 -1.7767 -1.4499
44961SOL    HW239695   5.545   3.657   2.092  0.6217  1.8509  1.5077
44962SOL     OW39696  12.063   4.540   7.152 -0.4808 -0.4937  0.3454
44962SOL    HW139697  12.094   4.628   7.171 -2.4436  0.3395  0.0085
44962SOL    HW239698  12.128   4.482   7.191 -0.1219  1.1124  2.3022
44963SOL     OW39699   7.277   8.980  11.378 -0.4521 -0.4052  0.0480
44963SOL    HW139700   7.304   8.998  11.288 -0.0214 -0.3845  0.1791
44963SOL    HW239701   7.190   8.942  11.370 -0.0601 -1.2242 -0.4332
44964SOL     OW39702   3.403  10.875   8.319 -0.4192  0.6012 -0.6298
44964SOL    HW139703   3.393  10.970   8.310 -0.4287  0.8395  1.4735
44964SOL    HW239704   3.346  10.851   8.392  1.7522 -0.5671  0.7979
44965SOL     OW39705  12.563   0.675   1.752  0.5432 -0.2670 -0.1196
44965SOL    HW139706  12.500   0.605   1.735  0.7520 -0.1365 -1.5308
44965SOL    HW239707  12.623   0.638   1.817 -0.5553 -0.6365  0.7236
44966SOL     OW39708   6.304   1.632   6.482 -0.1938  0.1524 -0.3291
44966SOL    HW139709   6.255   1.688   6.422  0.0644 -1.7762 -2.5001
44966SOL    HW239710   6.395   1.660   6.473 -0.0750 -0.4983 -1.3562
44967SOL     OW39711   9.306  11.280   9.541 -0.5988 -0.8252 -0.4764
44967SOL    HW139712   9.380  11.230   9.576  1.0163  0.3599 -2.0105
44967SOL    HW239713   9.325  11.289   9.448 -1.5777  1.3217 -0.5266
44968SOL     OW39714  10.301   8.158   1.394 -0.2949 -0.5350 -0.1862
44968SOL    HW139715  10.308   8.186   1.303  0.9665 -1.6650 -0.4840
44968SOL    HW239716  10.212   8.124   1.403 -1.2465  1.7830 -0.2916
44969SOL     OW39717   7.865   7.978   7.952  0.3449 -0.4564  0.7980
44969SOL    HW139718   7.854   8.055   8.008  1.8531 -0.4191  1.0963
44969SOL    HW239719   7.781   7.932   7.957 -0.9967  1.6950 -0.2396
44970SOL     OW39720   6.068   6.001   3.302 -0.0865  0.2800  0.3981
44970SOL    HW139721   6.025   5.917   3.317  0.4575 -0.2833 -1.0892
44970SOL    HW239722   6.002   6.066   3.328 -1.0690 -0.5818  0.1317
44971SOL     OW39723   1.720   2.804  12.233  0.2856  0.2290 -0.3317
44971SOL    HW139724   1.780   2.746  12.281  0.5451 -0.1417 -1.0989
44971SOL    HW239725   1.690   2.866  12.300  0.4057 -0.4614  0.3884
44972SOL     OW39726   4.177   7.497  12.602  0.1493  0.0031 -0.2391
44972SOL    HW139727   4.170   7.551  12.680  0.4780  1.0392 -0.9043
44972SOL    HW239728   4.119   7.539  12.538  0.9224 -0.0348 -0.9827
44973SOL     OW39729   3.120   1.026   9.228  0.4029  0.1560 -0.2654
44973SOL    HW139730   3.172   1.017   9.308 -0.8994 -0.3109  0.5619
44973SOL    HW239731   3.077   0.941   9.218  0.0719  0.4137 -1.1198
44974SOL     OW39732   0.513  10.255   7.344 -0.5709 -0.7956  0.3593
44974SOL    HW139733   0.572  10.243   7.418  0.5175  1.2119 -0.0963
44974SOL    HW239734   0.503  10.350   7.337 -3.0415 -1.0457 -0.2519
44975SOL     OW39735   8.195   0.444   8.138 -0.9044 -0.3462 -0.7838
44975SOL    HW139736   8.256   0.472   8.070 -0.0192 -0.6944 -0.1377
44975SOL    HW239737   8.152   0.525   8.166  1.1956  0.3446  0.6381
44976SOL     OW39738   1.287   9.327   9.413  0.1532  0.5521  0.2940
44976SOL    HW139739   1.292   9.378   9.494  2.2929 -0.1708  0.6930
44976SOL    HW239740   1.223   9.258   9.432 -1.1987  1.8159  0.4672
44977SOL     OW39741   0.992   6.980  11.013 -0.1223  0.1123  0.4931
44977SOL    HW139742   1.041   6.900  10.992  0.6408  0.1188  2.0623
44977SOL    HW239743   0.943   7.000  10.934  1.8318 -0.3278 -0.8992
44978SOL     OW39744   9.852  10.282   1.023 -0.1344  0.4494  0.6197
44978SOL    HW139745   9.928  10.287   0.965 -1.0124 -0.3516 -0.6542
44978SOL    HW239746   9.866  10.351   1.088  1.5191  0.5087  0.2390
44979SOL     OW39747   3.394   6.364   0.102 -0.0341 -0.1954  0.0537
44979SOL    HW139748   3.348   6.316   0.171  0.5525  0.0530  0.6350
44979SOL    HW239749   3.406   6.300   0.032 -2.7780  0.1804 -0.8682
44980SOL     OW39750   4.907   0.311   9.491 -0.2086 -0.2063 -0.0602
44980SOL    HW139751   4.978   0.338   9.433 -0.1769  0.9403  0.4753
44980SOL    HW239752   4.935   0.227   9.527  0.4507 -0.2039 -0.5576
44981SOL     OW39753  12.091   4.682   9.831 -0.0515 -0.5646 -0.3908
44981SOL    HW139754  12.133   4.631   9.899  0.6798  1.3599  0.6842
44981SOL    HW239755  12.096   4.627   9.753  0.0124 -2.3998  0.8492
44982SOL     OW39756   9.996   0.256   6.455  0.2718  0.5642  0.0533
44982SOL    HW139757   9.952   0.283   6.374 -0.0191  0.6959  0.2553
44982SOL    HW239758   9.927   0.220   6.510  0.9044 -2.3494 -0.9055
44983SOL     OW39759   3.590  10.873  10.942 -0.3523  0.1147  0.0733
44983SOL    HW139760   3.678  10.849  10.911 -0.1651  0.0173  0.6789
44983SOL    HW239761   3.604  10.904  11.031 -0.9848 -0.2539  0.3037
44984SOL     OW39762   9.775   3.901   4.540  0.0152  0.7484 -0.1936
44984SOL    HW139763   9.757   3.988   4.578  0.5104  0.2589  1.2423
44984SOL    HW239764   9.796   3.846   4.616 -0.0891 -0.5876 -1.0994
44985SOL     OW39765   9.730   4.939   5.112 -0.2568 -1.1859  0.3890
44985SOL    HW139766   9.798   4.888   5.069 -1.7096 -1.6142 -1.5765
44985SOL    HW239767   9.705   5.005   5.047 -0.7354 -0.1186  1.6082
44986SOL     OW39768   6.579   2.173   3.415 -0.1661 -0.0499 -0.4279
44986SOL    HW139769   6.595   2.188   3.322 -0.0391 -1.0417 -0.5845
44986SOL    HW239770   6.504   2.113   3.417 -0.9600  0.9326  0.1552
44987SOL     OW39771   7.135   8.706   9.853 -0.2040  0.2102  0.4993
44987SOL    HW139772   7.059   8.742   9.808 -0.1732 -0.2616  0.0689
44987SOL    HW239773   7.185   8.783   9.882  0.9904  0.5834 -2.2817
44988SOL     OW39774   1.738   6.437   7.888 -0.2633 -0.1287 -0.0584
44988SOL    HW139775   1.819   6.405   7.926 -0.7894 -1.4566  0.0096
44988SOL    HW239776   1.753   6.436   7.793 -0.3028 -0.6907 -0.0624
44989SOL     OW39777   6.438   6.191   4.340 -0.4708 -0.1662  0.4018
44989SOL    HW139778   6.362   6.138   4.361  0.1993 -1.0450  0.6889
44989SOL    HW239779   6.507   6.158   4.399  0.1851  0.4576  0.0026
44990SOL     OW39780  10.612   1.920   8.612 -0.4359  0.4568 -0.4077
44990SOL    HW139781  10.673   1.898   8.541  1.5437  2.1345  0.6420
44990SOL    HW239782  10.556   1.844   8.620  0.8967 -0.7990 -2.1136
44991SOL     OW39783   0.904   6.166  12.596 -0.1453  0.1325 -0.1910
44991SOL    HW139784   0.821   6.162  12.643 -0.3312 -1.0490 -0.5856
44991SOL    HW239785   0.883   6.140  12.507  0.9687 -2.3977  0.1966
44992SOL     OW39786   6.424   5.246  10.416  0.2929 -0.3619 -0.4848
44992SOL    HW139787   6.439   5.155  10.392  1.0482 -0.7015  1.1324
44992SOL    HW239788   6.511   5.285  10.420  0.2989 -0.4491  1.9059
44993SOL     OW39789   7.436  10.640  12.269 -0.0391  0.2944  0.0142
44993SOL    HW139790   7.427  10.670  12.179 -1.2673  1.4600  0.4913
44993SOL    HW239791   7.385  10.559  12.274  0.4224 -0.0260 -0.4447
44994SOL     OW39792   7.742   7.557   5.838  0.0023 -0.4493 -0.1898
44994SOL    HW139793   7.673   7.612   5.800 -0.2813 -0.7072 -0.0452
44994SOL    HW239794   7.816   7.567   5.778 -0.0251  0.1372 -0.1385
44995SOL     OW39795   3.854  12.076   0.671 -0.5974 -0.6463 -0.4196
44995SOL    HW139796   3.876  12.027   0.750 -1.9775  0.9219  1.0039
44995SOL    HW239797   3.856  12.168   0.698 -2.8004 -0.1379 -1.7201
44996SOL     OW39798  11.682  10.480   8.727  0.1197 -0.2063  0.3545
44996SOL    HW139799  11.776  10.469   8.738  0.1411  0.5382  1.0674
44996SOL    HW239800  11.663  10.448   8.639  0.9293 -0.9850  0.4621
44997SOL     OW39801   7.457   1.422  10.880  0.5870 -0.0564 -0.0854
44997SOL    HW139802   7.498   1.385  10.801 -0.4836  0.0492 -0.7048
44997SOL    HW239803   7.400   1.351  10.912  0.5658  0.1139  0.2527
44998SOL     OW39804  11.288  10.036  10.739 -0.3951  0.1882  0.3950
44998SOL    HW139805  11.316  10.039  10.830 -1.7693 -1.7607  0.9692
44998SOL    HW239806  11.317   9.950  10.708 -0.8609  0.3980 -0.6734
44999SOL     OW39807  10.325  10.617   7.314 -0.4945 -0.2953 -0.1088
44999SOL    HW139808  10.410  10.617   7.269 -0.5383  1.2408 -0.2442
44999SOL    HW239809  10.270  10.558   7.262  0.7909 -2.2779  0.6523
45000SOL     OW39810   8.586   6.942   4.764  0.1263  0.0225 -0.2979
45000SOL    HW139811   8.615   6.870   4.709 -1.3616 -1.5011  0.8022
45000SOL    HW239812   8.576   6.903   4.851 -0.2923  1.6684  0.4307
45001SOL     OW39813   6.838   7.111   3.808  0.0303 -0.4305 -0.0319
45001SOL    HW139814   6.920   7.144   3.845 -0.3330  0.6340 -0.1546
45001SOL    HW239815   6.862   7.082   3.720  0.4193 -0.8260  0.1982
45002SOL     OW39816  10.218  11.549   8.980  0.2544 -0.1701  0.0213
45002SOL    HW139817  10.136  11.502   8.991  0.4635 -0.4617  0.3710
45002SOL    HW239818  10.219  11.575   8.888 -0.1965 -0.2183  0.0009
45003SOL     OW39819   2.267   4.853   4.109 -0.1612 -0.0972  0.0141
45003SOL    HW139820   2.293   4.869   4.200  0.8153 -0.2395 -0.2341
45003SOL    HW239821   2.183   4.808   4.116 -0.2610  0.1987  0.8382
45004SOL     OW39822   4.932   4.036   5.283 -0.3039 -0.0783 -0.1619
45004SOL    HW139823   4.986   3.958   5.293  0.2614  0.0689 -1.7474
45004SOL    HW239824   4.994   4.109   5.283 -0.8580  0.4350  1.6687
45005SOL     OW39825  10.146   0.200   9.448 -0.1388  0.1608 -0.4815
45005SOL    HW139826  10.198   0.204   9.368  0.5046  0.0831 -0.0726
45005SOL    HW239827  10.112   0.289   9.459 -0.6740  0.0410 -1.1282
45006SOL     OW39828   5.050   4.198   0.881  0.0368  0.1373 -0.2498
45006SOL    HW139829   5.086   4.180   0.968 -2.1106 -1.8607  0.3471
45006SOL    HW239830   4.957   4.210   0.896 -0.1029  1.7342 -2.0838
45007SOL     OW39831   2.569  11.059   0.490  0.4458 -0.2201  0.2503
45007SOL    HW139832   2.623  10.991   0.450 -0.3181  0.6529 -2.4607
45007SOL    HW239833   2.483  11.019   0.500 -0.1461  0.3780 -1.8275
45008SOL     OW39834   5.113   4.163   8.762  0.0242  0.2252  0.2308
45008SOL    HW139835   5.198   4.142   8.801 -0.2004 -1.1696  0.0184
45008SOL    HW239836   5.051   4.155   8.835  0.2047  2.7341  0.7553
45009SOL     OW39837   5.141   2.078   0.882 -0.2913 -0.3015 -0.1638
45009SOL    HW139838   5.214   2.020   0.904  1.4878  1.9139  0.2338
45009SOL    HW239839   5.160   2.159   0.930 -3.1168  0.3385  0.0405
45010SOL     OW39840   9.824  12.110   7.606  0.5204 -0.6585 -0.3876
45010SOL    HW139841   9.892  12.159   7.560 -0.9905  1.3472 -0.6310
45010SOL    HW239842   9.744  12.129   7.558 -0.7422 -0.3350  1.7256
45011SOL     OW39843   0.434   6.186   3.747 -0.1911 -0.7622  0.5563
45011SOL    HW139844   0.355   6.135   3.734 -1.1560  0.6741  0.5424
45011SOL    HW239845   0.504   6.133   3.708 -1.7464 -0.2491 -3.3501
45012SOL     OW39846   3.606   3.286   9.812  0.0136  0.0881 -0.2426
45012SOL    HW139847   3.538   3.253   9.754 -0.7040  0.2972  0.4703
45012SOL    HW239848   3.681   3.229   9.795 -1.1825 -1.9579  0.9539
45013SOL     OW39849   8.278   1.235   9.553 -0.1337 -0.4088  0.0531
45013SOL    HW139850   8.346   1.186   9.507  0.2743 -0.4637  0.7133
45013SOL    HW239851   8.215   1.258   9.484  0.4630 -0.4963 -0.5309
45014SOL     OW39852  12.338   8.808   6.260  0.6241  0.0214 -0.5912
45014SOL    HW139853  12.273   8.827   6.328  1.5066  0.9897  0.0068
45014SOL    HW239854  12.295   8.743   6.204 -0.6227  0.1793  0.1340
45015SOL     OW39855  11.308   2.856   0.900  0.3291 -0.2548 -0.1369
45015SOL    HW139856  11.293   2.823   0.811 -1.7867  1.7044 -0.5937
45015SOL    HW239857  11.230   2.829   0.949  0.4597  0.5425  0.5334
45016SOL     OW39858   9.923  12.516  11.463 -0.0770 -0.2295 -0.0750
45016SOL    HW139859   9.929  12.527  11.368 -0.1167 -2.2536 -0.3740
45016SOL    HW239860   9.992  12.453  11.483  2.0531  2.4873  1.7600
45017SOL     OW39861   4.693   8.896   2.263  0.1137 -0.3909 -0.0530
45017SOL    HW139862   4.746   8.817   2.264  1.1719  0.2999 -0.4232
45017SOL    HW239863   4.748   8.962   2.223 -1.3612  0.1325 -1.3303
45018SOL     OW39864   4.616   5.892   6.372  0.6376 -0.4420 -0.2319
45018SOL    HW139865   4.598   5.960   6.436 -0.3788  1.0322 -1.9650
45018SOL    HW239866   4.533   5.844   6.365  0.6575 -0.4235 -0.6148
45019SOL     OW39867  10.832  10.182   1.468  0.0020 -0.2747  0.3298
45019SOL    HW139868  10.764  10.176   1.402  1.0432  1.0297 -0.9338
45019SOL    HW239869  10.803  10.253   1.526 -0.1291 -0.2981  0.2923
45020SOL     OW39870   7.211   1.406   9.716  0.9139  0.2679 -0.1784
45020SOL    HW139871   7.179   1.325   9.676  0.8645  0.5899 -0.7946
45020SOL    HW239872   7.136   1.439   9.766  1.0527 -0.2638  0.4012
45021SOL     OW39873   1.944  12.059  10.438  0.3868 -0.2731  0.3997
45021SOL    HW139874   1.887  11.987  10.410  0.2481  0.3440 -0.9960
45021SOL    HW239875   1.928  12.068  10.532  0.5882 -2.2132  0.6648
45022SOL     OW39876   6.930   9.281  10.073  0.0606 -0.0605  0.0249
45022SOL    HW139877   6.835   9.287  10.086 -0.3151  0.4881 -2.4515
45022SOL    HW239878   6.944   9.190  10.045 -0.2525  0.5671 -2.4728
45023SOL     OW39879  12.064   3.565   3.734  0.3220  0.6365 -0.1201
45023SOL    HW139880  12.057   3.470   3.728  0.1823  0.7062 -1.0941
45023SOL    HW239881  12.062   3.596   3.644 -0.5340  1.6320  0.2228
45024SOL     OW39882   7.255   1.181   1.995 -0.0091  0.0831 -0.0491
45024SOL    HW139883   7.224   1.261   2.037  0.8240  0.3706  0.0359
45024SOL    HW239884   7.311   1.211   1.923  0.8038 -0.4001  0.3545
45025SOL     OW39885   6.479   6.674   1.833  0.2495  0.2514 -0.0722
45025SOL    HW139886   6.403   6.695   1.779  0.0297  0.6411  0.3790
45025SOL    HW239887   6.470   6.581   1.852 -0.5384  0.4498  0.6043
45026SOL     OW39888   3.335  11.411   7.160  0.0119 -0.0906 -0.1494
45026SOL    HW139889   3.422  11.442   7.185  0.3905  0.4912 -2.0974
45026SOL    HW239890   3.345  11.378   7.071 -2.3292  2.6077 -1.5563
45027SOL     OW39891   3.037  11.705   0.076  0.3725 -0.4559 -0.3292
45027SOL    HW139892   2.990  11.789   0.077  1.3222  0.0927  1.1910
45027SOL    HW239893   2.974  11.642   0.111  0.1666 -0.0876 -0.0342
45028SOL     OW39894   0.013  11.432   7.223  0.5010  0.0359  0.0231
45028SOL    HW139895   0.023  11.391   7.137 -0.0364  0.3254 -0.1783
45028SOL    HW239896  -0.000  11.359   7.283 -1.7847 -0.0513 -0.5182
45029SOL     OW39897   6.996  10.000   6.385 -0.1662 -0.3142  0.3211
45029SOL    HW139898   7.073  10.054   6.403 -0.7911  0.1175  1.8917
45029SOL    HW239899   7.028   9.910   6.392  0.3353 -0.1408  0.3041
45030SOL     OW39900  12.214   4.448   3.465  0.3894 -0.3842 -0.4002
45030SOL    HW139901  12.158   4.525   3.451  2.9108  1.1846 -2.9942
45030SOL    HW239902  12.267   4.472   3.540  0.0293 -0.3341 -0.1564
45031SOL     OW39903   4.628  10.514   2.234 -0.5456 -0.0582 -0.1223
45031SOL    HW139904   4.634  10.429   2.191  0.2799 -0.4373  0.7215
45031SOL    HW239905   4.702  10.564   2.198 -1.7948  0.7987 -1.6260
45032SOL     OW39906   7.605   8.215  11.964 -0.5476  0.4991  0.0830
45032SOL    HW139907   7.644   8.128  11.950 -1.7179  0.0000 -0.2247
45032SOL    HW239908   7.528   8.216  11.907  1.3148  3.0894 -2.6984
45033SOL     OW39909   9.696   4.162   3.527 -0.0612 -0.4046 -0.0245
45033SOL    HW139910   9.768   4.100   3.539 -0.8574 -1.5222 -0.8140
45033SOL    HW239911   9.676   4.157   3.433 -2.3240 -1.4471  0.4598
45034SOL     OW39912   8.306   9.169   4.378 -0.4384 -0.2814 -0.0991
45034SOL    HW139913   8.252   9.242   4.347 -0.7995 -0.1651  0.7817
45034SOL    HW239914   8.340   9.199   4.462  0.0854 -0.8123 -0.1135
45035SOL     OW39915   3.173   7.823   3.758 -0.3401 -0.1295  0.0548
45035SOL    HW139916   3.170   7.798   3.666 -1.9489  0.1378  0.0111
45035SOL    HW239917   3.231   7.900   3.760  1.6661 -1.5505 -0.3376
45036SOL     OW39918  10.080   9.412   5.003  0.2386 -0.5830  0.0155
45036SOL    HW139919  10.162   9.412   5.052 -0.6577 -1.5947  1.6200
45036SOL    HW239920  10.025   9.478   5.047  0.2574  0.2860 -1.2126
45037SOL     OW39921   4.838   1.487  12.076 -0.0050 -0.1546 -0.0885
45037SOL    HW139922   4.793   1.438  12.145 -1.8134 -0.8856 -1.6970
45037SOL    HW239923   4.931   1.479  12.098 -0.3550 -2.5869  0.8504
45038SOL     OW39924  11.690   0.989   4.903  0.0924  0.0780 -0.1311
45038SOL    HW139925  11.735   0.905   4.911  0.5271  0.3736  0.6730
45038SOL    HW239926  11.713   1.021   4.816 -1.2999 -1.3246 -1.0545
45039SOL     OW39927   0.500   7.144  10.587  0.0037  0.1418  0.3624
45039SOL    HW139928   0.415   7.173  10.554  0.4975  2.5366  0.9866
45039SOL    HW239929   0.523   7.069  10.533 -0.7865  1.7625 -2.4386
45040SOL     OW39930   9.334   4.549   8.168 -0.4509  0.6343  0.7408
45040SOL    HW139931   9.375   4.549   8.254  1.0965 -0.3591  0.0465
45040SOL    HW239932   9.346   4.637   8.134 -0.7394  0.9217  1.3732
45041SOL     OW39933   0.145   9.567   0.813 -0.5486 -0.0161 -0.7081
45041SOL    HW139934   0.158   9.642   0.871  0.4095 -0.8635  0.2224
45041SOL    HW239935   0.147   9.604   0.725 -0.5793  1.1126 -0.2505
45042SOL     OW39936   5.419   6.187   6.247  0.4229 -0.3883  0.0958
45042SOL    HW139937   5.451   6.097   6.255 -1.1585 -1.0398 -0.3652
45042SOL    HW239938   5.405   6.199   6.153  2.2156  0.9687 -0.0416
45043SOL     OW39939   9.649   4.946   3.677  0.1239  0.0876  0.6822
45043SOL    HW139940   9.742   4.929   3.664 -0.4362 -1.3381 -2.3197
45043SOL    HW239941   9.612   4.860   3.701 -0.8694 -0.2358 -1.7521
45044SOL     OW39942   7.841   9.086   4.685 -0.6135 -0.0195 -0.2105
45044SOL    HW139943   7.825   9.157   4.623  0.2499 -0.2567 -0.7215
45044SOL    HW239944   7.935   9.089   4.701 -0.9572  0.7670  1.9866
45045SOL     OW39945   3.980   8.849   4.200 -0.2121 -0.5318 -0.4100
45045SOL    HW139946   3.981   8.903   4.122  0.8121 -0.3808 -0.3159
45045SOL    HW239947   3.889   8.821   4.210 -0.2816 -0.9310 -1.9128
45046SOL     OW39948   1.678   0.466   0.375  0.5556 -0.0345 -0.3792
45046SOL    HW139949   1.613   0.512   0.322  0.2377 -0.5827 -0.4727
45046SOL    HW239950   1.646   0.375   0.378  0.2707  0.0869  1.1861
45047SOL     OW39951  11.451  11.552   8.660 -0.7480 -0.4445 -0.4408
45047SOL    HW139952  11.394  11.628   8.652  0.8599  0.8645  0.0790
45047SOL    HW239953  11.525  11.570   8.603  0.1065 -1.1909  0.3880
45048SOL     OW39954  10.967   5.884   8.638 -0.2798 -0.0596 -0.2279
45048SOL    HW139955  11.013   5.832   8.705 -1.3480  0.9754  1.3725
45048SOL    HW239956  11.032   5.896   8.569  0.9182 -1.0470  0.6723
45049SOL     OW39957  10.782  12.140   3.980 -0.2161 -0.1588 -0.5009
45049SOL    HW139958  10.707  12.127   3.922 -0.1055 -0.0275 -0.6761
45049SOL    HW239959  10.760  12.219   4.030 -0.6359 -0.6855  0.1603
45050SOL     OW39960   2.384  10.827  11.926 -0.3882  0.1994  0.4159
45050SOL    HW139961   2.397  10.774  12.005 -2.2197 -0.2001  0.4879
45050SOL    HW239962   2.330  10.901  11.955 -2.2877 -0.6826 -0.6829
45051SOL     OW39963   9.626   5.308   5.122  0.6971 -0.0285  0.6419
45051SOL    HW139964   9.644   5.254   5.045 -0.5031  2.1798 -1.3345
45051SOL    HW239965   9.709   5.312   5.168  1.4729 -1.4241 -0.5515
45052SOL     OW39966  10.052   4.586   9.350 -0.7951  0.0489 -0.6836
45052SOL    HW139967  10.041   4.674   9.385 -3.0495 -0.1302 -0.8066
45052SOL    HW239968  10.081   4.534   9.425 -3.4323  0.1319  0.5223
45053SOL     OW39969   0.930   3.035   4.417  0.5057 -0.0408  0.3585
45053SOL    HW139970   0.985   2.968   4.458  2.0860  0.0802 -1.4274
45053SOL    HW239971   0.897   3.087   4.490  0.4963 -1.8020  1.6764
45054SOL     OW39972   5.420   9.429  11.435 -0.9158  0.0287  0.2275
45054SOL    HW139973   5.397   9.465  11.349  3.1232  2.8890  0.0900
45054SOL    HW239974   5.411   9.504  11.495 -0.4857 -1.0537  1.6865
45055SOL     OW39975   1.824   6.508   0.953  0.5024 -0.3480  0.5102
45055SOL    HW139976   1.840   6.569   0.881 -4.1488  0.5938 -0.0137
45055SOL    HW239977   1.840   6.560   1.032  5.0577 -1.2214  0.4040
45056SOL     OW39978   5.427  11.254   4.945 -0.2379  0.2932  0.4372
45056SOL    HW139979   5.334  11.274   4.957 -0.6397 -0.8587 -0.4896
45056SOL    HW239980   5.466  11.266   5.031 -1.1867  1.1131  0.7626
45057SOL     OW39981   3.437   4.920   1.724 -0.6409  0.3445 -0.0086
45057SOL    HW139982   3.416   4.941   1.633 -2.4279 -0.6728  0.1158
45057SOL    HW239983   3.502   4.850   1.718 -0.5012  0.5146 -0.5010
45058SOL     OW39984   9.098   3.614   0.371 -0.1268  0.3841 -1.2807
45058SOL    HW139985   9.044   3.689   0.348 -1.3191  0.6333  1.8686
45058SOL    HW239986   9.036   3.545   0.392  0.3797  1.0301  3.6019
45059SOL     OW39987  12.372   3.805  11.063 -0.2383  0.3424  0.1363
45059SOL    HW139988  12.367   3.868  10.990  1.2037 -1.0632 -1.2758
45059SOL    HW239989  12.312   3.840  11.129 -2.5270  1.0878 -2.1681
45060SOL     OW39990   9.190   2.182   1.835 -0.1034 -0.3136 -0.2396
45060SOL    HW139991   9.109   2.227   1.858 -0.9491 -0.7430 -2.1642
45060SOL    HW239992   9.236   2.244   1.777  0.5954 -0.3844  0.2243
45061SOL     OW39993   2.281   2.483   2.962  0.6197 -0.1903  0.7956
45061SOL    HW139994   2.358   2.437   2.929 -0.3198 -0.8970 -0.5278
45061SOL    HW239995   2.210   2.419   2.955 -0.3141  0.8058  0.8485
45062SOL     OW39996   4.141   4.409   9.053 -0.7055  0.4620 -0.1702
45062SOL    HW139997   4.130   4.476   8.985 -1.0544 -1.3063 -1.9461
45062SOL    HW239998   4.212   4.353   9.020 -0.8635 -0.4245  0.9374
45063SOL     OW39999   8.180   4.489   2.221  0.5250 -0.3520 -0.5024
45063SOL    HW140000   8.176   4.433   2.143  1.7550  0.5152 -1.2283
45063SOL    HW240001   8.267   4.529   2.217  0.0732  0.8062  0.5553
45064SOL     OW40002   5.311   6.577   2.308 -0.1178 -0.3936  0.4327
45064SOL    HW140003   5.364   6.517   2.254  1.1271  0.1873  0.9642
45064SOL    HW240004   5.376   6.629   2.355 -1.1787 -0.1871  1.7116
45065SOL     OW40005   2.152  12.515   8.689  0.0949 -0.1533 -0.0012
45065SOL    HW140006   2.123  12.555   8.771  1.2638 -0.3882  0.5464
45065SOL    HW240007   2.161  12.422   8.710  0.2937 -0.2295 -0.4280
45066SOL     OW40008  10.923   3.529   4.208  0.8925 -0.3212  0.0437
45066SOL    HW140009  10.962   3.469   4.143  0.8126  0.8782 -1.1471
45066SOL    HW240010  10.834   3.544   4.176  0.1059 -1.3863  1.6234
45067SOL     OW40011   3.069   3.390   7.313  0.1766  0.1850 -0.8958
45067SOL    HW140012   3.041   3.459   7.252 -3.5769 -0.3307 -0.0429
45067SOL    HW240013   3.019   3.313   7.285  0.8463 -0.9460  0.8712
45068SOL     OW40014   6.695   2.109   9.304  0.1037  0.4007 -0.0792
45068SOL    HW140015   6.770   2.157   9.337  0.0400  0.3655  0.1168
45068SOL    HW240016   6.630   2.114   9.374  0.0254  0.1956 -0.1359
45069SOL     OW40017   9.583   7.445   7.068 -0.1590  0.1625  0.3426
45069SOL    HW140018   9.496   7.405   7.075 -0.2076  0.0709 -0.5774
45069SOL    HW240019   9.587   7.475   6.977  0.8981 -0.1040  0.2947
45070SOL     OW40020   8.901   4.338   3.396 -0.8892  0.0425  0.0254
45070SOL    HW140021   8.901   4.318   3.489 -0.4294 -1.3029 -0.2392
45070SOL    HW240022   8.808   4.332   3.370 -0.8102 -1.6848  0.0102
45071SOL     OW40023   4.778   3.485   6.274 -0.0449  0.1036  0.1002
45071SOL    HW140024   4.849   3.516   6.218  0.0233 -1.8018 -0.9505
45071SOL    HW240025   4.821   3.459   6.355  0.1553  0.8082  0.2316
45072SOL     OW40026  10.220   8.941   5.113  0.0091 -0.6525  0.2052
45072SOL    HW140027  10.138   8.930   5.064  0.0815  1.1957 -0.4007
45072SOL    HW240028  10.194   8.934   5.205 -0.7925 -0.2990  0.0145
45073SOL     OW40029   0.351   7.445  12.280 -0.3764 -0.1972  0.0158
45073SOL    HW140030   0.255   7.436  12.274 -0.3547  0.2323 -3.4722
45073SOL    HW240031   0.365   7.502  12.355 -2.8183 -0.7680  1.0081
45074SOL     OW40032   6.382   7.978   4.468 -0.1566  0.3748 -0.2254
45074SOL    HW140033   6.424   8.046   4.521 -1.6773  2.2749 -1.3092
45074SOL    HW240034   6.389   7.899   4.521  1.5684  1.3679  1.1647
45075SOL     OW40035   4.273   7.698   5.090  0.0739 -0.5173 -0.2903
45075SOL    HW140036   4.345   7.664   5.143 -0.0403 -0.9902 -0.4300
45075SOL    HW240037   4.243   7.622   5.039 -0.2503 -0.2267 -0.5378
45076SOL     OW40038   1.572   4.674   3.546 -0.2534 -0.0136 -0.2862
45076SOL    HW140039   1.539   4.747   3.600  0.9832  0.2495  0.1500
45076SOL    HW240040   1.586   4.603   3.608 -0.6005 -0.3402 -0.5744
45077SOL     OW40041  10.988   2.392   4.887 -0.2831 -0.4313 -0.0160
45077SOL    HW140042  11.063   2.333   4.875 -0.0091 -0.1009  0.0430
45077SOL    HW240043  10.911   2.336   4.876 -0.0293 -0.8769  0.4165
45078SOL     OW40044   3.657   6.115   6.357  0.3304  0.6355  0.2854
45078SOL    HW140045   3.725   6.150   6.414  0.1592  0.4934  0.5785
45078SOL    HW240046   3.576   6.130   6.405 -0.0811  2.6590 -0.9162
45079SOL     OW40047   9.997   2.612   5.381  0.0933 -0.1434  0.2392
45079SOL    HW140048   9.936   2.599   5.453 -1.1168  2.4674 -0.1902
45079SOL    HW240049   9.942   2.608   5.303  0.9908 -0.5488 -0.3912
45080SOL     OW40050   4.008   2.212  10.178  0.3701  0.3874  0.4093
45080SOL    HW140051   3.944   2.145  10.153 -0.5634  0.9053  1.3281
45080SOL    HW240052   4.064   2.169  10.243  0.3443  0.2192  0.3198
45081SOL     OW40053   3.622   5.385   0.782  0.2967 -0.2426 -0.4503
45081SOL    HW140054   3.637   5.421   0.694  0.8684 -0.6243 -0.5134
45081SOL    HW240055   3.556   5.442   0.820  2.4605  2.0750  0.1472
45082SOL     OW40056   4.053   1.948  12.249  0.0564 -0.1574 -0.0241
45082SOL    HW140057   4.010   2.032  12.266  2.0566  1.0947 -0.8175
45082SOL    HW240058   4.090   1.922  12.333 -0.3237 -0.1029  0.1609
45083SOL     OW40059   5.351   9.532   7.624  0.1779  0.1903 -0.0435
45083SOL    HW140060   5.257   9.540   7.644  0.2318 -0.7819  0.6437
45083SOL    HW240061   5.394   9.576   7.697  0.2627  0.9614 -0.5444
45084SOL     OW40062   1.415   5.165  11.350 -0.2110 -0.0475  0.2898
45084SOL    HW140063   1.355   5.130  11.415 -1.0157  0.0655 -0.3783
45084SOL    HW240064   1.421   5.096  11.284 -0.6454  0.4700 -0.2989
45085SOL     OW40065   0.189  12.449   2.450 -0.1803  0.8998  0.3303
45085SOL    HW140066   0.283  12.452   2.435 -0.4577 -1.6146 -2.9426
45085SOL    HW240067   0.150  12.474   2.366 -2.4649  1.3843  1.4430
45086SOL     OW40068   8.700   3.917  11.950  0.0792  0.0496  0.5307
45086SOL    HW140069   8.702   3.963  12.034  0.4763 -0.9905  1.1112
45086SOL    HW240070   8.788   3.878  11.942 -0.1571 -0.3723 -0.0695
45087SOL     OW40071   3.457   4.904   3.944  0.0236  0.1477  0.5227
45087SOL    HW140072   3.390   4.890   4.011 -1.4908  1.7593 -0.5530
45087SOL    HW240073   3.494   4.990   3.964  0.6740 -0.0590  0.2198
45088SOL     OW40074   3.936   6.473   4.999  0.3448  0.0528 -0.0176
45088SOL    HW140075   3.941   6.417   4.921  1.0275  1.8474 -1.3583
45088SOL    HW240076   3.862   6.439   5.049 -0.6802 -0.6460 -1.9077
45089SOL     OW40077   7.654  11.178   0.956 -0.3521 -0.1729 -0.5179
45089SOL    HW140078   7.672  11.233   1.032  2.2398 -1.7206  0.0956
45089SOL    HW240079   7.579  11.124   0.982 -0.5185  0.4349  0.2805
45090SOL     OW40080   9.034   4.473  10.347 -0.2319 -0.4693 -0.2665
45090SOL    HW140081   8.944   4.498  10.370  0.1866  0.4457  0.4693
45090SOL    HW240082   9.082   4.555  10.347  1.3633 -1.2290  2.9359
45091SOL     OW40083  10.416   7.220   7.089 -0.1107 -0.0862  1.3313
45091SOL    HW140084  10.467   7.185   7.162 -1.6256 -0.7230  2.1313
45091SOL    HW240085  10.331   7.241   7.127 -1.7055 -2.4042 -0.5999
45092SOL     OW40086   7.399   9.991   9.982  0.3135  0.3890 -0.1693
45092SOL    HW140087   7.379  10.013   9.891  0.2087  1.8554  0.1710
45092SOL    HW240088   7.372  10.069  10.032  1.1018 -0.0632  1.0210
45093SOL     OW40089   3.508   2.765   1.511  0.2212 -0.1910  0.2650
45093SOL    HW140090   3.519   2.723   1.425 -1.7726  1.4559 -0.8984
45093SOL    HW240091   3.572   2.835   1.511  0.3476 -0.3062  0.1883
45094SOL     OW40092   2.733   4.034   6.843  0.4089  0.8932 -0.0530
45094SOL    HW140093   2.770   4.117   6.813  3.1411 -0.4880 -0.8619
45094SOL    HW240094   2.754   4.031   6.936 -0.0474  1.2520  0.0666
45095SOL     OW40095   7.171   4.346   2.896  0.5613 -0.1174  0.1408
45095SOL    HW140096   7.148   4.405   2.968 -0.1937 -1.5993  1.1639
45095SOL    HW240097   7.115   4.374   2.823  0.0324  0.2434  0.6815
45096SOL     OW40098   3.865   0.059  10.353 -0.0301 -0.0740  0.3165
45096SOL    HW140099   3.906   0.142  10.332  0.0411 -0.4984 -1.3363
45096SOL    HW240100   3.795   0.081  10.414  0.1094  1.1642  0.0415
45097SOL     OW40101   1.295   7.874  11.737 -0.1797 -0.3904 -0.4496
45097SOL    HW140102   1.382   7.864  11.696 -0.3328  1.4691 -1.2894
45097SOL    HW240103   1.264   7.960  11.709 -1.9416 -0.6449  0.5587
45098SOL     OW40104   6.702   4.153   8.440  0.1685  0.0654  0.1258
45098SOL    HW140105   6.723   4.083   8.379  0.7196  0.2789  0.0655
45098SOL    HW240106   6.628   4.198   8.399  1.5062  1.1839 -1.2102
45099SOL     OW40107   0.322   4.534   6.825 -0.0554  0.7119 -0.7246
45099SOL    HW140108   0.244   4.575   6.787 -0.0212  1.2009 -0.2899
45099SOL    HW240109   0.290   4.455   6.868  0.0821 -0.4977 -2.7662
45100SOL     OW40110   8.746   9.621   5.690  0.4384  0.1233 -0.1036
45100SOL    HW140111   8.674   9.606   5.751 -0.0734 -0.1355 -0.7481
45100SOL    HW240112   8.818   9.651   5.744  0.4238 -1.3654  0.7949
45101SOL     OW40113  11.873   5.574   1.512  0.3674  0.1300 -0.1115
45101SOL    HW140114  11.942   5.562   1.578  0.1210  1.2019  0.3656
45101SOL    HW240115  11.908   5.532   1.433  0.9504 -0.5928  0.5088
45102SOL     OW40116   4.940   9.879   3.680 -0.9419  0.0905  0.1140
45102SOL    HW140117   4.856   9.870   3.634 -0.0639 -0.7647 -1.3971
45102SOL    HW240118   4.986   9.797   3.662 -0.0789  0.2006  1.6030
45103SOL     OW40119   2.550   9.560   5.751 -0.2716 -0.4075  0.2575
45103SOL    HW140120   2.607   9.575   5.827 -0.6902 -0.2130  0.5343
45103SOL    HW240121   2.610   9.530   5.682  0.0214 -1.2922  0.8692
45104SOL     OW40122   0.556   0.011   8.860  0.0321  0.3336  0.5949
45104SOL    HW140123   0.578  -0.071   8.904  0.5940  0.1976  0.0884
45104SOL    HW240124   0.512  -0.016   8.779  0.3266  0.5176  0.3667
45105SOL     OW40125   0.841   7.757   9.440  0.0080 -0.4353 -0.5293
45105SOL    HW140126   0.918   7.701   9.444 -0.5017 -1.1628 -0.6887
45105SOL    HW240127   0.866   7.829   9.382  0.9092 -0.0951  0.2379
45106SOL     OW40128  10.645  12.536   9.447  0.2485 -0.1594 -0.2681
45106SOL    HW140129  10.712  12.575   9.391 -0.0507 -1.7203 -1.7943
45106SOL    HW240130  10.596  12.611   9.480  0.8465  0.8602 -1.5769
45107SOL     OW40131   4.481   8.515   1.843 -0.1821 -0.4215  0.2957
45107SOL    HW140132   4.474   8.599   1.798  3.3701 -0.7655 -1.1993
45107SOL    HW240133   4.400   8.469   1.820 -0.1409  0.8082 -2.7986
45108SOL     OW40134   7.412   2.008   9.246 -0.2079 -0.2084  0.8597
45108SOL    HW140135   7.377   2.056   9.321 -2.8150 -1.4943  0.5539
45108SOL    HW240136   7.340   2.004   9.183  1.4727 -0.3581 -1.1793
45109SOL     OW40137   2.000   8.945   3.510 -0.1177 -0.3437  0.0789
45109SOL    HW140138   2.055   9.001   3.455  0.1309  1.4175  1.9956
45109SOL    HW240139   1.911   8.957   3.477 -0.1590  1.7390  0.8409
45110SOL     OW40140   4.061   9.831   0.372  0.2006  0.0739  0.1317
45110SOL    HW140141   4.078   9.798   0.460 -0.9968 -1.9497 -0.3347
45110SOL    HW240142   3.986   9.780   0.341  0.7974  0.4919 -2.1894
45111SOL     OW40143  11.717   0.084   8.115 -0.1380 -0.0001 -0.5637
45111SOL    HW140144  11.741  -0.008   8.104  0.2841  0.0023  0.2119
45111SOL    HW240145  11.785   0.132   8.067  1.5339  0.0034  1.6282
45112SOL     OW40146   0.407  11.647  12.186  0.2642 -0.0971  0.2439
45112SOL    HW140147   0.401  11.590  12.263  0.3954 -0.0320  0.3024
45112SOL    HW240148   0.362  11.598  12.117  0.2730 -0.2208  0.3242
45113SOL     OW40149   9.564  10.342  10.754  0.0042 -0.0259  0.2359
45113SOL    HW140150   9.643  10.313  10.708  0.0515  0.3177  0.0989
45113SOL    HW240151   9.580  10.319  10.846  0.6684  0.8811  0.3588
45114SOL     OW40152   2.209  11.605   1.632  0.1115  0.4236 -0.1498
45114SOL    HW140153   2.131  11.661   1.627  1.1949  1.9363 -0.8138
45114SOL    HW240154   2.282  11.665   1.619  1.4740 -0.7935  1.5980
45115SOL     OW40155   9.855   1.677   3.673 -0.0698  0.4882  0.2649
45115SOL    HW140156   9.824   1.759   3.635 -2.3018 -0.5194 -0.2744
45115SOL    HW240157   9.796   1.661   3.747  1.3466  0.1415  1.3624
45116SOL     OW40158  11.168  11.836   2.411  0.0526 -0.1577 -0.1990
45116SOL    HW140159  11.142  11.805   2.324  1.7493 -0.7089 -0.5422
45116SOL    HW240160  11.114  11.786   2.472 -0.6658 -0.2634 -0.9028
45117SOL     OW40161   8.679   0.765  10.391 -0.1861  0.4389  0.2799
45117SOL    HW140162   8.756   0.818  10.371 -0.9664  1.4042 -0.2809
45117SOL    HW240163   8.606   0.826  10.385 -1.1331 -0.7117 -0.5080
45118SOL     OW40164   4.355  12.566  12.527 -0.0572 -0.0520 -0.2046
45118SOL    HW140165   4.264  12.568  12.497  0.0838  1.7023 -0.6232
45118SOL    HW240166   4.369  12.652  12.565  1.5159 -0.2039 -0.3900
45119SOL     OW40167   3.486   0.827   0.234 -0.3079 -0.4925 -0.4416
45119SOL    HW140168   3.524   0.910   0.204  0.4641  0.0974  1.9657
45119SOL    HW240169   3.412   0.853   0.289  0.5467 -1.2952  1.1688
45120SOL     OW40170  12.625   7.521  10.870  0.0419 -0.0329 -0.3230
45120SOL    HW140171  12.566   7.597  10.870  2.5740  2.1112 -0.2404
45120SOL    HW240172  12.660   7.517  10.781  1.9922  0.7338  0.3446
45121SOL     OW40173   9.972   6.143   2.726  0.5072 -0.7119 -0.0962
45121SOL    HW140174  10.041   6.096   2.774  1.2810  1.0789  0.6227
45121SOL    HW240175  10.018   6.186   2.654 -0.1390 -0.7538 -0.5425
45122SOL     OW40176   9.267   6.638   7.907  0.1077  0.3181  0.4268
45122SOL    HW140177   9.225   6.687   7.837 -2.0858 -1.1638  0.5900
45122SOL    HW240178   9.227   6.672   7.987 -0.2271 -0.5821  0.6544
45123SOL     OW40179  11.207  10.802   7.958 -0.7630 -0.0509 -0.3265
45123SOL    HW140180  11.176  10.818   8.047 -1.2513  1.8008 -0.7812
45123SOL    HW240181  11.282  10.743   7.969  0.8406  2.1554  1.5674
45124SOL     OW40182   1.526   4.953   0.686 -0.4300  0.0900 -0.2488
45124SOL    HW140183   1.553   4.867   0.718 -0.3488  0.4983  0.8278
45124SOL    HW240184   1.477   4.991   0.759 -1.3125  0.5699 -1.0741
45125SOL     OW40185   8.081   3.972   4.556 -0.9002 -0.2254  0.6186
45125SOL    HW140186   8.083   4.067   4.548  1.3643 -0.1744  0.9509
45125SOL    HW240187   8.119   3.954   4.642 -3.8504 -1.4074  1.8064
45126SOL     OW40188   2.332   6.735  10.388 -0.2315  0.1281  0.1062
45126SOL    HW140189   2.409   6.721  10.334  0.5260  3.5260  0.0938
45126SOL    HW240190   2.349   6.817  10.434 -3.6274  0.7600  0.4999
45127SOL     OW40191   8.042   7.514  11.446 -0.4985 -0.0492 -0.1035
45127SOL    HW140192   8.044   7.558  11.531 -1.4296  1.7366 -0.9626
45127SOL    HW240193   8.111   7.557  11.395 -1.9163  0.9868 -1.1998
45128SOL     OW40194  11.103  11.904   2.941  0.1616 -0.1646  0.5245
45128SOL    HW140195  11.129  11.817   2.910  2.8444  0.9157 -0.5295
45128SOL    HW240196  11.185  11.949   2.960 -1.1407  2.1420  1.1669
45129SOL     OW40197   5.234   4.688   8.869 -0.3503  0.1934 -0.0623
45129SOL    HW140198   5.329   4.678   8.879  0.2107  2.2814 -2.1465
45129SOL    HW240199   5.196   4.641   8.943  2.3738  0.8539  1.8923
45130SOL     OW40200  10.699   6.239  11.611  0.3107 -0.1560  0.1043
45130SOL    HW140201  10.720   6.175  11.543 -1.2869 -0.6015 -0.0156
45130SOL    HW240202  10.689   6.186  11.691  0.3973  0.1272  0.3010
45131SOL     OW40203   6.754   3.092   4.233  0.5060  0.2389 -0.2540
45131SOL    HW140204   6.683   3.154   4.214 -1.4139 -2.0790 -1.2482
45131SOL    HW240205   6.773   3.106   4.326 -2.1977  0.1587  0.4192
45132SOL     OW40206   7.226   8.537   8.366  0.0287 -0.5275  0.1447
45132SOL    HW140207   7.175   8.541   8.447  0.1410 -0.8838  0.2351
45132SOL    HW240208   7.210   8.450   8.331 -2.3391  0.5588 -1.7615
45133SOL     OW40209   0.984   8.622   8.469 -0.8795  0.0928 -0.0892
45133SOL    HW140210   0.935   8.696   8.432  0.3370  0.1243 -1.7883
45133SOL    HW240211   1.011   8.652   8.555  0.6997  2.2205 -1.2231
45134SOL     OW40212   3.463   1.416   0.744  0.2412  0.1507 -0.1481
45134SOL    HW140213   3.526   1.344   0.740  0.2331  0.1186  0.2499
45134SOL    HW240214   3.516   1.494   0.729  0.2424  0.0621 -0.6318
45135SOL     OW40215   3.328   2.756   8.769 -0.7337 -0.1140  0.2048
45135SOL    HW140216   3.298   2.724   8.684  1.7617 -0.8970 -0.4780
45135SOL    HW240217   3.317   2.681   8.828  0.7057 -0.7508 -0.2855
45136SOL     OW40218   5.271  10.537   9.153  0.2601  0.0600 -0.1631
45136SOL    HW140219   5.235  10.481   9.222 -1.0040  0.6464 -0.3250
45136SOL    HW240220   5.255  10.626   9.183  0.9154  0.3319 -0.5974
45137SOL     OW40221   6.192  11.139  10.836 -0.1731 -0.2183 -0.2634
45137SOL    HW140222   6.272  11.099  10.870 -0.3034 -0.4146 -0.1851
45137SOL    HW240223   6.139  11.065  10.807  1.0061  0.0223 -3.3914
45138SOL     OW40224   1.364  11.368   4.521  0.2032 -0.2266  0.4315
45138SOL    HW140225   1.295  11.390   4.458  0.1037 -1.7159 -0.0261
45138SOL    HW240226   1.320  11.369   4.606  0.2248  1.3151  0.4601
45139SOL     OW40227   1.750   7.082   3.241  0.4947  0.8108 -0.4658
45139SOL    HW140228   1.699   7.004   3.264 -0.7711  2.0383  1.0053
45139SOL    HW240229   1.811   7.050   3.173  1.6164 -2.0190  1.6525
45140SOL     OW40230   2.396   3.098  12.520 -0.0970 -0.3756  0.4136
45140SOL    HW140231   2.386   3.173  12.578  1.1563 -0.2249  0.4745
45140SOL    HW240232   2.478   3.114  12.474 -0.5508 -0.9922 -0.6614
45141SOL     OW40233  11.680   4.324   9.039 -0.3066 -0.4704 -0.0866
45141SOL    HW140234  11.671   4.375   9.120 -1.0254 -1.0953  0.2492
45141SOL    HW240235  11.598   4.276   9.033 -0.7807  0.4960 -1.8677
45142SOL     OW40236   7.549   6.147   6.617 -0.6342  0.4932 -0.1782
45142SOL    HW140237   7.464   6.151   6.662 -0.5854 -0.7670  0.0407
45142SOL    HW240238   7.575   6.055   6.622  1.4648  1.0870  1.0615
45143SOL     OW40239   8.107   5.501   5.620 -0.3032  0.3393 -0.1809
45143SOL    HW140240   8.132   5.590   5.647 -0.3738  0.1292  0.5863
45143SOL    HW240241   8.189   5.453   5.617 -0.4758 -0.0861  1.3546
45144SOL     OW40242   6.218  12.137  12.550 -0.1332 -0.1511 -0.1301
45144SOL    HW140243   6.225  12.084  12.629 -2.1982  0.0229  0.2298
45144SOL    HW240244   6.202  12.226  12.581  1.9483  0.4864 -0.7496
45145SOL     OW40245   7.040   5.286   6.614  0.5506  0.1139  0.3051
45145SOL    HW140246   7.028   5.378   6.591 -1.5502 -0.0083  0.6881
45145SOL    HW240247   7.002   5.278   6.701 -1.8258 -1.6058 -0.7993
45146SOL     OW40248   0.319  10.656   4.846 -0.0809  0.0019  0.0832
45146SOL    HW140249   0.289  10.735   4.891  0.8268  0.2623  0.2533
45146SOL    HW240250   0.299  10.584   4.907  0.3393  0.2556  0.5266
45147SOL     OW40251   0.411   7.314  10.046  0.5326  0.2126  0.3764
45147SOL    HW140252   0.477   7.321   9.976 -0.3961  1.7476 -0.3995
45147SOL    HW240253   0.328   7.303   9.999  0.1117 -0.7475  1.3163
45148SOL     OW40254  12.137   4.079   9.819 -0.4172 -0.9445 -0.6103
45148SOL    HW140255  12.160   4.016   9.751 -2.0772 -1.5257 -0.6993
45148SOL    HW240256  12.044   4.062   9.835  0.1325 -1.5620  2.5532
45149SOL     OW40257  10.923   3.237   6.039  0.0973 -0.4200 -0.1412
45149SOL    HW140258  10.984   3.223   5.967 -0.7726  0.2770 -1.0442
45149SOL    HW240259  10.912   3.332   6.044 -0.0145 -0.4679  0.7833
45150SOL     OW40260   3.211   5.992   2.646 -0.4383 -0.5724 -0.3225
45150SOL    HW140261   3.136   5.966   2.699 -1.5333  0.6978 -1.2138
45150SOL    HW240262   3.228   6.083   2.670 -2.7098  1.0446 -3.9295
45151SOL     OW40263   9.486  10.833   4.413 -0.1183  0.1989 -0.3468
45151SOL    HW140264   9.437  10.757   4.445 -0.2875  0.3436 -0.2593
45151SOL    HW240265   9.535  10.800   4.338 -1.1464  0.2814 -1.0823
45152SOL     OW40266   3.663   8.413   0.842 -0.4406  0.2206  0.1508
45152SOL    HW140267   3.606   8.490   0.840 -1.2983 -0.4194 -0.5014
45152SOL    HW240268   3.694   8.409   0.932 -1.1381  0.7872  0.4295
45153SOL     OW40269   5.859   2.518  11.299 -0.6382 -0.2218 -0.5991
45153SOL    HW140270   5.789   2.578  11.326 -0.6561 -0.6921  0.4496
45153SOL    HW240271   5.835   2.491  11.210 -1.1066  0.6054 -0.7375
45154SOL     OW40272   6.925   9.293   9.304 -0.5884 -0.0340 -0.6367
45154SOL    HW140273   6.907   9.384   9.327  0.9192 -0.1545  1.2926
45154SOL    HW240274   6.861   9.243   9.356  0.2992 -0.1430  0.3955
45155SOL     OW40275   0.377  10.953   9.721  0.0601 -0.2281 -0.1595
45155SOL    HW140276   0.387  10.867   9.761 -2.0401 -0.9376 -1.0277
45155SOL    HW240277   0.284  10.960   9.702  0.0138  2.5684  0.5805
45156SOL     OW40278   1.742   0.222   4.987  0.0243 -0.2595 -0.2480
45156SOL    HW140279   1.827   0.180   4.979  1.2687  2.3311 -2.0802
45156SOL    HW240280   1.690   0.187   4.915  0.4153  0.0039 -0.6584
45157SOL     OW40281   4.800   0.415   1.985 -0.0133  0.2641 -0.0481
45157SOL    HW140282   4.863   0.441   1.917  1.2023 -0.1285  0.8982
45157SOL    HW240283   4.846   0.349   2.036 -1.4345 -0.4752  0.3144
45158SOL     OW40284   0.015   0.758  11.207 -0.2769  0.4021  0.1518
45158SOL    HW140285   0.055   0.732  11.124  0.2018 -1.3421  0.8913
45158SOL    HW240286  -0.040   0.833  11.184  1.0265  0.9329 -1.4455
45159SOL     OW40287   9.338  12.526   5.941 -0.0655  0.5315  0.3768
45159SOL    HW140288   9.416  12.477   5.967 -0.9806 -0.8945  0.5790
45159SOL    HW240289   9.363  12.618   5.949  1.4302  0.1039  0.9109
45160SOL     OW40290  10.637   5.867   5.039 -0.2717 -0.1608 -0.2099
45160SOL    HW140291  10.573   5.802   5.067  0.7449 -1.2574 -0.3252
45160SOL    HW240292  10.721   5.820   5.041  0.7517  1.6192  1.3420
45161SOL     OW40293   1.786  11.242   9.320 -0.3780 -0.0244  0.5662
45161SOL    HW140294   1.772  11.263   9.413 -1.1329 -1.7181  0.8785
45161SOL    HW240295   1.881  11.230   9.312  0.3934  4.6922  0.0059
45162SOL     OW40296   5.419   8.420   0.077 -0.1847 -0.1996  0.0023
45162SOL    HW140297   5.345   8.400   0.019 -0.1236  0.0669 -0.1691
45162SOL    HW240298   5.464   8.492   0.034 -0.0511 -0.1006  0.3084
45163SOL     OW40299   1.817  11.111   2.779  0.0032 -0.3718 -0.2165
45163SOL    HW140300   1.761  11.084   2.852  0.7759 -1.4460  0.0029
45163SOL    HW240301   1.801  11.205   2.771  0.6901  0.0142  2.0416
45164SOL     OW40302   5.619   6.968  11.897 -0.2690  0.0543 -0.5300
45164SOL    HW140303   5.543   7.025  11.913  0.2760  0.5450  0.4251
45164SOL    HW240304   5.685   7.025  11.858 -0.1378 -0.2082 -0.6963
45165SOL     OW40305  11.367   9.027  10.126 -0.3365 -0.2573 -0.5231
45165SOL    HW140306  11.389   9.043  10.034 -1.6114 -0.2482 -0.8437
45165SOL    HW240307  11.318   9.104  10.153  0.3960 -0.0657  0.3155
45166SOL     OW40308  10.612   7.238   2.979  0.1251  0.1139  0.1581
45166SOL    HW140309  10.551   7.165   2.984 -0.2309  0.3930 -0.0557
45166SOL    HW240310  10.682   7.207   2.921  0.0060 -0.0760  0.1150
45167SOL     OW40311   0.349   3.383   4.056 -0.4905 -0.0115  0.3770
45167SOL    HW140312   0.315   3.362   4.143 -1.1470 -0.4321  0.0258
45167SOL    HW240313   0.421   3.321   4.044 -0.6987 -0.2693  0.4352
45168SOL     OW40314   9.388   0.970  11.168  0.3918 -0.1290 -0.3142
45168SOL    HW140315   9.310   1.020  11.192 -0.2513 -0.3072 -1.8920
45168SOL    HW240316   9.399   0.906  11.239 -0.1697  0.6930  0.5302
45169SOL     OW40317   9.454   7.982   9.461  0.7553 -0.1949 -0.5987
45169SOL    HW140318   9.520   7.913   9.468  0.5999 -0.3943 -1.0244
45169SOL    HW240319   9.451   8.002   9.367  1.5876  1.1750 -0.3642
45170SOL     OW40320  11.410   3.410  11.584 -0.2992  0.3813 -0.2922
45170SOL    HW140321  11.398   3.423  11.678  2.0210  0.8185 -0.0082
45170SOL    HW240322  11.365   3.327  11.565 -0.7239  0.2451  1.2091
45171SOL     OW40323   8.831   2.921   5.775 -0.6359 -0.4461 -0.2611
45171SOL    HW140324   8.906   2.880   5.734  1.6720  1.1981  1.9871
45171SOL    HW240325   8.801   2.858   5.840 -0.9479 -0.9242 -0.8586
45172SOL     OW40326   9.391   2.665   0.041 -0.5038  0.1749  0.2003
45172SOL    HW140327   9.383   2.759   0.056  1.5929  0.4635 -0.1579
45172SOL    HW240328   9.396   2.657  -0.054  0.3183 -0.1677  0.2606
45173SOL     OW40329   1.083   1.982   9.749  0.2435  0.5975 -0.4536
45173SOL    HW140330   1.075   2.017   9.660  0.1268 -0.9662 -1.0892
45173SOL    HW240331   1.026   1.905   9.750  0.4392  0.4484  0.9034
45174SOL     OW40332   2.087   0.596   8.637  0.2433  0.5486  0.3790
45174SOL    HW140333   2.039   0.530   8.587 -2.1417  2.1595  0.3886
45174SOL    HW240334   2.056   0.585   8.727  0.0692  1.4408  0.4380
45175SOL     OW40335   0.528  10.831   3.566 -0.0555  0.1907 -0.1026
45175SOL    HW140336   0.502  10.767   3.632 -0.8829 -0.3985 -0.9604
45175SOL    HW240337   0.567  10.903   3.615 -2.2281  0.5608  1.1991
45176SOL     OW40338   6.102   2.341   2.708 -0.4207 -0.6310 -0.2927
45176SOL    HW140339   6.017   2.324   2.667 -0.8579 -1.3183  0.8533
45176SOL    HW240340   6.100   2.435   2.729 -1.1443 -0.7550  0.2315
45177SOL     OW40341   5.711  10.364  10.772 -0.1265  0.1280  0.0535
45177SOL    HW140342   5.735  10.436  10.830  2.2430 -0.2690 -0.3568
45177SOL    HW240343   5.624  10.337  10.802  1.0745 -0.2217  3.5639
45178SOL     OW40344  11.581   7.406   2.834  0.4030  0.6518 -0.4043
45178SOL    HW140345  11.506   7.384   2.779  0.3447  0.9020 -0.4251
45178SOL    HW240346  11.601   7.497   2.812  0.5215  0.6814 -0.1774
45179SOL     OW40347   0.086   1.650  10.355  0.1892 -0.1400 -0.2218
45179SOL    HW140348   0.062   1.734  10.317 -1.5768 -0.5952 -0.2059
45179SOL    HW240349   0.133   1.604  10.286  0.7085  0.6533 -0.3981
45180SOL     OW40350   1.814   8.447   6.042  0.2887  0.0236  0.3533
45180SOL    HW140351   1.808   8.420   5.950 -0.5682  1.9635 -0.2103
45180SOL    HW240352   1.775   8.375   6.091 -1.9361  0.1887 -1.0497
45181SOL     OW40353   9.841   3.843   9.256 -0.5021  0.1026 -0.3363
45181SOL    HW140354   9.887   3.884   9.329  0.3136 -0.5565 -0.4645
45181SOL    HW240355   9.762   3.806   9.296  0.0305 -0.4236  0.2650
45182SOL     OW40356  11.017   1.375   7.517  0.2423  0.1610 -0.4273
45182SOL    HW140357  10.998   1.395   7.426 -2.5914 -1.4499 -0.2972
45182SOL    HW240358  10.942   1.409   7.566  0.9963 -0.3077  1.1437
45183SOL     OW40359   6.484   0.115   1.864  0.0102  0.2421 -0.3884
45183SOL    HW140360   6.505   0.063   1.786 -0.8958 -1.4548  0.4370
45183SOL    HW240361   6.390   0.101   1.877  0.1703  0.3686  1.0849
45184SOL     OW40362   7.492   3.366   8.673 -0.7711 -0.3435  0.1526
45184SOL    HW140363   7.495   3.339   8.765 -0.0542  0.4234  0.3690
45184SOL    HW240364   7.450   3.293   8.628  0.2533 -1.4154  0.8594
45185SOL     OW40365  12.271   5.022   2.327  0.0341 -0.2202 -0.0096
45185SOL    HW140366  12.357   5.065   2.318 -0.2857 -0.0571 -3.8596
45185SOL    HW240367  12.292   4.929   2.335  0.5579 -0.0816  0.3480
45186SOL     OW40368   2.258   8.404   2.497  0.1130  0.8285  0.1714
45186SOL    HW140369   2.186   8.347   2.522  1.4567 -1.1632 -0.2155
45186SOL    HW240370   2.224   8.493   2.507 -2.1220 -0.0284  0.6794
45187SOL     OW40371  11.722  12.239   9.980 -0.2634  0.2518 -0.1316
45187SOL    HW140372  11.705  12.273   9.892  0.0955 -1.8328 -1.0698
45187SOL    HW240373  11.635  12.229  10.019 -0.3959  1.8054  0.0371
45188SOL     OW40374   7.361   4.486   7.885  0.2908  0.3241  0.2805
45188SOL    HW140375   7.398   4.491   7.973  0.1582 -2.5885  0.6027
45188SOL    HW240376   7.436   4.469   7.828  0.1887  0.7068  0.0262
45189SOL     OW40377  10.308   6.268   9.086 -0.0728 -0.3883  0.3736
45189SOL    HW140378  10.338   6.352   9.053  0.9795 -1.9604 -3.1934
45189SOL    HW240379  10.217   6.283   9.113  0.2214  1.9144  0.2433
45190SOL     OW40380   7.358   2.956  11.851 -0.4318  0.2273 -0.2203
45190SOL    HW140381   7.372   3.047  11.876  0.3300 -0.6775  3.1307
45190SOL    HW240382   7.414   2.943  11.774  0.0899  2.3302 -0.2524
45191SOL     OW40383  10.488   5.079   5.886  0.4699  0.3997  0.6721
45191SOL    HW140384  10.525   5.163   5.860 -0.6139  0.6119 -0.2885
45191SOL    HW240385  10.444   5.096   5.969 -0.0364  0.8717  0.3117
45192SOL     OW40386   6.133   4.712   7.292 -0.8334 -0.0302 -0.2346
45192SOL    HW140387   6.049   4.728   7.250  0.3523  2.2030 -1.9412
45192SOL    HW240388   6.167   4.799   7.314  0.9045 -0.8752  0.7117
45193SOL     OW40389  12.603   5.605   2.082  0.1814 -0.0692 -0.8441
45193SOL    HW140390  12.537   5.638   2.142 -0.1684 -1.6409 -0.3270
45193SOL    HW240391  12.583   5.647   1.998 -1.6427 -0.6843 -0.7613
45194SOL     OW40392   7.348   5.394   1.116 -0.3389 -0.1488  0.0395
45194SOL    HW140393   7.268   5.372   1.068  0.4000 -0.9195 -0.8825
45194SOL    HW240394   7.377   5.476   1.076 -0.3101 -0.2216 -0.0916
45195SOL     OW40395   5.363   3.020   5.892 -0.4259 -0.6446  0.2061
45195SOL    HW140396   5.273   3.051   5.883 -0.5768 -1.0636  0.2570
45195SOL    HW240397   5.417   3.091   5.857 -0.7917 -0.5099 -0.0873
45196SOL     OW40398   7.958   9.243   5.727 -0.2254  0.2429  0.2825
45196SOL    HW140399   7.912   9.217   5.807 -2.9328 -0.3256 -1.3183
45196SOL    HW240400   7.896   9.224   5.657  1.8881  1.0665 -1.9553
45197SOL     OW40401   9.750   0.134  11.942 -0.1359 -0.4326 -0.1563
45197SOL    HW140402   9.835   0.178  11.936  0.2152 -0.7182  1.9842
45197SOL    HW240403   9.770   0.042  11.927 -0.0414 -0.5108  0.4310
45198SOL     OW40404   5.485   5.694   4.744 -0.2403 -0.5808 -0.0149
45198SOL    HW140405   5.565   5.747   4.749  0.1030 -1.1697  1.1195
45198SOL    HW240406   5.508   5.612   4.788 -1.6003 -0.5874  0.7443
45199SOL     OW40407   6.940   5.306   0.465 -0.0117  0.2031  0.3808
45199SOL    HW140408   6.855   5.332   0.430  0.4151  2.5066  0.8971
45199SOL    HW240409   6.920   5.256   0.544 -0.8934  0.8454  0.5730
45200SOL     OW40410   3.521  11.601   7.019 -0.0843  0.7154 -0.3291
45200SOL    HW140411   3.611  11.627   6.997  0.3575 -0.5870 -0.1414
45200SOL    HW240412   3.525  11.579   7.112 -0.0289 -1.5126 -0.8071
45201SOL     OW40413   3.686   1.742   6.199 -0.3038 -0.5067  0.2197
45201SOL    HW140414   3.597   1.776   6.197 -0.8959 -2.0117 -1.4570
45201SOL    HW240415   3.696   1.706   6.287  0.0030  2.8600  1.7122
45202SOL     OW40416  11.080   0.180   8.147 -1.4437 -0.6250  0.6019
45202SOL    HW140417  11.155   0.230   8.177 -2.3564  1.0196  0.2637
45202SOL    HW240418  11.055   0.126   8.222 -0.1600 -0.9567  0.8191
45203SOL     OW40419   5.221   4.481   9.932  0.4275  0.3387  0.5475
45203SOL    HW140420   5.127   4.476   9.919  0.1474  1.7215  1.7487
45203SOL    HW240421   5.253   4.534   9.860  0.3343 -0.2883  0.0333
45204SOL     OW40422   0.779   6.262  12.097  0.7103 -0.5744  0.1053
45204SOL    HW140423   0.734   6.345  12.110  1.8959 -0.1996  2.3810
45204SOL    HW240424   0.730   6.218  12.028 -0.8344  1.3759 -0.1148
45205SOL     OW40425  12.035   0.350   0.114  0.0488  0.0538  0.1221
45205SOL    HW140426  12.027   0.323   0.023  1.5730  1.2480 -0.4133
45205SOL    HW240427  12.106   0.298   0.149 -0.5389 -0.4071  0.6449
45206SOL     OW40428   6.966   6.479   7.901 -0.2145 -0.4441 -0.0107
45206SOL    HW140429   7.060   6.464   7.915 -0.1609 -0.2977 -0.2194
45206SOL    HW240430   6.938   6.404   7.849 -0.3464 -0.8169  0.5866
45207SOL     OW40431   6.740   4.404  11.136  0.6395  0.5735 -0.7471
45207SOL    HW140432   6.714   4.475  11.195  1.0881  0.8870 -0.9203
45207SOL    HW240433   6.687   4.329  11.163  0.2498  0.9430 -0.4819
45208SOL     OW40434   8.518   9.710   8.683 -0.2659  0.1592  0.1715
45208SOL    HW140435   8.474   9.725   8.599  2.3627  0.8914 -1.1864
45208SOL    HW240436   8.552   9.621   8.675  1.1397  0.7058 -0.1439
45209SOL     OW40437   8.642  10.475  12.203  0.1406  0.0442 -0.4087
45209SOL    HW140438   8.661  10.557  12.248  0.9594  0.4529 -1.4495
45209SOL    HW240439   8.651  10.496  12.110 -1.1543 -0.8555 -0.7716
45210SOL     OW40440   4.911   4.196   7.146  0.1489  0.2350 -0.0843
45210SOL    HW140441   4.903   4.128   7.078 -1.5423 -0.1132  0.4117
45210SOL    HW240442   4.886   4.277   7.101 -0.1819  0.1364 -0.0790
45211SOL     OW40443   6.022  12.004   8.120  0.0930  0.1686  0.2716
45211SOL    HW140444   5.986  11.954   8.193 -2.5503  0.5213 -0.6857
45211SOL    HW240445   5.955  12.000   8.052  2.1411  0.4494 -1.9159
45212SOL     OW40446   8.209   9.417  10.965 -0.0840 -0.5447 -0.0947
45212SOL    HW140447   8.136   9.463  10.923  0.0602 -0.7234 -0.5532
45212SOL    HW240448   8.235   9.351  10.900  3.2357  2.1768 -1.8154
45213SOL     OW40449   6.681   1.902   5.147  0.1252  0.3900 -0.4995
45213SOL    HW140450   6.628   1.825   5.166  1.4864 -0.3251  0.6275
45213SOL    HW240451   6.769   1.867   5.133  0.3736  1.5529 -2.0672
45214SOL     OW40452   5.906   7.900  12.631 -0.1836  0.2729 -0.5517
45214SOL    HW140453   5.889   7.980  12.581  1.3320  0.9682 -0.0275
45214SOL    HW240454   5.980   7.859  12.586 -1.0271 -0.9282 -0.8908
45215SOL     OW40455   9.274  10.735   8.538  0.1802 -0.4969  0.3846
45215SOL    HW140456   9.279  10.801   8.469 -0.9694 -2.9426 -2.2469
45215SOL    HW240457   9.347  10.756   8.596  0.5409  2.3567 -0.9044
45216SOL     OW40458   3.930   4.423  10.260 -0.1454 -0.1543 -0.0056
45216SOL    HW140459   3.968   4.449  10.344 -0.8327 -1.1786  0.6326
45216SOL    HW240460   4.005   4.397  10.207  0.2125 -0.3634  0.5960
45217SOL     OW40461   1.309   9.264  12.303 -0.3810  0.2852 -0.4417
45217SOL    HW140462   1.366   9.214  12.245 -1.2531  0.2657 -1.3110
45217SOL    HW240463   1.366   9.332  12.340  0.5874 -0.7454  0.0224
45218SOL     OW40464   6.612   4.622  10.829  0.2553 -0.5402  0.0769
45218SOL    HW140465   6.557   4.676  10.773 -1.0933 -1.1358  0.7801
45218SOL    HW240466   6.615   4.537  10.786  3.6354  0.3545 -1.8527
45219SOL     OW40467   2.383   6.678   1.720  0.3181 -0.2984  0.4103
45219SOL    HW140468   2.348   6.761   1.686 -0.9901 -1.8280 -2.2637
45219SOL    HW240469   2.465   6.703   1.762  1.4239  2.0675 -2.7577
45220SOL     OW40470   8.268  11.079   0.193  0.5027 -0.1273  0.5162
45220SOL    HW140471   8.277  11.167   0.157 -2.4251  0.1893  0.3171
45220SOL    HW240472   8.254  11.023   0.116 -1.0960 -0.1563  0.7758
45221SOL     OW40473  11.713   9.259   0.977 -0.3358 -0.1976  0.2648
45221SOL    HW140474  11.701   9.223   0.890  1.5471  1.2470 -0.6695
45221SOL    HW240475  11.640   9.321   0.988 -0.0482  0.3314 -0.7102
45222SOL     OW40476   2.151   2.377   1.988  0.2497 -0.1296 -0.1981
45222SOL    HW140477   2.153   2.283   2.006  1.5663 -0.0639  0.1075
45222SOL    HW240478   2.061   2.395   1.964 -0.3255 -1.2448  1.0151
45223SOL     OW40479   0.222   9.886  10.866  0.5949  0.2731 -0.3980
45223SOL    HW140480   0.166   9.958  10.897 -0.5098 -0.1440 -1.3464
45223SOL    HW240481   0.310   9.911  10.894  0.2464  2.0066 -0.6850
45224SOL     OW40482   0.777   8.949  12.633 -0.8119 -0.0269  0.3791
45224SOL    HW140483   0.868   8.978  12.634  0.1761 -2.3752 -3.3226
45224SOL    HW240484   0.772   8.881  12.700  0.1358  0.0712  0.5570
45225SOL     OW40485   8.052   9.576  12.151  0.6601 -0.3165 -0.2412
45225SOL    HW140486   8.086   9.663  12.169 -1.1829  0.2652  0.6610
45225SOL    HW240487   7.992   9.558  12.224 -1.6315 -0.8825 -2.1308
45226SOL     OW40488   7.945  12.607   7.717 -0.2223  0.0997 -0.3131
45226SOL    HW140489   8.008  12.604   7.644 -0.9333 -0.1319 -0.9303
45226SOL    HW240490   7.931  12.516   7.741 -0.5558  0.1322 -0.3820
45227SOL     OW40491   4.915   9.532   3.399 -0.4145 -0.2193  0.6416
45227SOL    HW140492   4.982   9.463   3.401 -1.0564 -0.8487  0.6724
45227SOL    HW240493   4.833   9.485   3.387 -0.8082  0.5829  0.0892
45228SOL     OW40494  10.969  11.641  11.870  0.4019  0.5409  0.3355
45228SOL    HW140495  10.932  11.562  11.831  2.2892  0.4179 -1.3543
45228SOL    HW240496  10.930  11.713  11.820 -0.0877  0.6129  0.8082
45229SOL     OW40497   4.358   5.833   6.371  0.5332  0.2885 -0.8358
45229SOL    HW140498   4.287   5.894   6.351  0.2689  0.1652 -0.3022
45229SOL    HW240499   4.364   5.835   6.467  0.3805 -0.6719 -0.7978
45230SOL     OW40500   7.909   6.167   5.680 -0.1680  0.8220 -0.1790
45230SOL    HW140501   7.993   6.161   5.726 -0.1557 -1.2172 -0.3619
45230SOL    HW240502   7.921   6.237   5.616  0.5150  2.3111  1.4958
45231SOL     OW40503   7.789   1.066   4.390 -0.0315  0.1035  0.1350
45231SOL    HW140504   7.881   1.092   4.397 -0.3669  1.2151  0.5052
45231SOL    HW240505   7.739   1.145   4.410 -1.0791 -0.4364 -0.2496
45232SOL     OW40506   8.819   8.063   5.579 -0.3795 -0.2013  0.0762
45232SOL    HW140507   8.803   8.054   5.485  0.1596  1.9618 -0.2735
45232SOL    HW240508   8.773   7.989   5.618 -1.6660 -0.4576 -1.7889
45233SOL     OW40509   4.691   4.184  10.488  0.5530  0.1034  0.0122
45233SOL    HW140510   4.694   4.111  10.426  2.2957 -1.3220  1.6464
45233SOL    HW240511   4.670   4.261  10.434  0.1628 -1.3489 -2.0042
45234SOL     OW40512   6.903   5.163   0.041 -0.1231  0.1056 -0.1695
45234SOL    HW140513   6.952   5.114   0.107  0.9536  0.4239 -0.7101
45234SOL    HW240514   6.824   5.192   0.086  0.3566 -0.1158  0.8294
45235SOL     OW40515   8.386   4.207   3.365  0.1727  0.3850  0.3858
45235SOL    HW140516   8.381   4.143   3.293  0.0313  0.7884  0.0291
45235SOL    HW240517   8.355   4.160   3.442 -1.6746  0.5305 -0.2213
45236SOL     OW40518   0.860   5.500   6.137 -0.4215 -0.2020 -0.7369
45236SOL    HW140519   0.873   5.495   6.042  0.8118  0.8722 -0.6408
45236SOL    HW240520   0.803   5.425   6.157 -0.2872 -0.7379 -2.2405
45237SOL     OW40521   5.071   6.866   8.825  0.7052  0.5991  0.1145
45237SOL    HW140522   5.042   6.844   8.736  0.2652  1.0630  0.1401
45237SOL    HW240523   5.011   6.935   8.853 -1.5106 -1.9160  2.0900
45238SOL     OW40524  11.918   3.380   4.064  0.9971 -0.5590  0.0973
45238SOL    HW140525  12.008   3.366   4.096  0.7734 -2.8936 -0.1168
45238SOL    HW240526  11.891   3.295   4.030 -1.4569 -0.0075  0.4729
45239SOL     OW40527   2.024   9.969   6.408  0.3944 -0.6263 -0.8168
45239SOL    HW140528   2.080   9.903   6.369  0.1216 -1.9845  0.9478
45239SOL    HW240529   2.046   9.968   6.501 -1.3508  0.0129 -0.3373
45240SOL     OW40530   2.135   1.054   8.742 -0.1107 -0.2206  0.1578
45240SOL    HW140531   2.052   1.006   8.744 -0.0664 -0.5478 -2.2177
45240SOL    HW240532   2.113   1.137   8.701  0.7398 -0.3825 -0.6602
45241SOL     OW40533   0.847  10.319  11.666 -0.4206 -0.3088 -0.0166
45241SOL    HW140534   0.756  10.312  11.693 -0.4452 -0.6199 -0.1774
45241SOL    HW240535   0.864  10.239  11.616  0.0410 -0.4231  0.3137
45242SOL     OW40536  11.984   0.829   5.016  0.4677 -0.5588  0.2987
45242SOL    HW140537  11.999   0.742   4.978 -1.3347 -0.9682  0.4207
45242SOL    HW240538  11.988   0.889   4.942  0.2871 -0.9397 -0.0247
45243SOL     OW40539  10.384   6.108   4.123  0.7890  0.0723  0.3715
45243SOL    HW140540  10.334   6.065   4.054  1.9277 -0.3125 -0.2461
45243SOL    HW240541  10.330   6.098   4.202 -0.9104  1.2223 -0.5827
45244SOL     OW40542   9.627   5.467   7.979 -0.0485  0.0423 -0.3484
45244SOL    HW140543   9.607   5.433   8.066  1.3042  1.1774  0.4654
45244SOL    HW240544   9.703   5.417   7.950 -1.2227 -1.1714 -1.4457
45245SOL     OW40545   5.600   3.144   3.405 -0.0051  0.7827 -0.3431
45245SOL    HW140546   5.512   3.163   3.437 -1.3101 -3.4162 -0.7657
45245SOL    HW240547   5.652   3.129   3.483 -0.2128  1.2565 -0.1116
45246SOL     OW40548   7.276   6.137   5.443 -0.0652 -0.5716 -0.4394
45246SOL    HW140549   7.346   6.200   5.427 -1.2103  1.2338  1.3157
45246SOL    HW240550   7.272   6.128   5.538 -3.0444  0.4515 -0.3641
45247SOL     OW40551   2.099   0.981   5.764  0.2018  0.3012 -0.5269
45247SOL    HW140552   2.018   0.987   5.714 -1.0770 -0.7063  1.3184
45247SOL    HW240553   2.143   0.903   5.729 -0.8386 -0.5848  0.0780
45248SOL     OW40554   0.378   4.734   1.232  0.4829 -0.5259  0.6553
45248SOL    HW140555   0.366   4.741   1.327  0.8250  0.2626  0.6497
45248SOL    HW240556   0.470   4.714   1.220  0.6126  0.1625  0.4671
45249SOL     OW40557   0.799   1.839   9.497 -0.0091 -0.0048 -0.2539
45249SOL    HW140558   0.781   1.927   9.464 -0.6791 -0.4270 -1.0548
45249SOL    HW240559   0.714   1.806   9.526 -0.0344 -0.8815 -1.2384
45250SOL     OW40560   1.857   4.032   4.745 -0.3913 -0.1208  0.2715
45250SOL    HW140561   1.862   4.113   4.795 -0.2500 -1.8204  3.3130
45250SOL    HW240562   1.771   3.996   4.768  0.6874 -2.1537  1.4373
45251SOL     OW40563   0.970   0.024  10.244  0.0153 -0.1398 -0.1734
45251SOL    HW140564   0.924   0.018  10.328 -0.3253  2.2531 -0.1168
45251SOL    HW240565   0.910  -0.018  10.181 -0.9180  0.3562  0.3680
45252SOL     OW40566   4.562   1.431   6.080  0.2376 -0.0014  0.2670
45252SOL    HW140567   4.595   1.500   6.138  0.7890 -0.3072  0.3265
45252SOL    HW240568   4.598   1.452   5.994 -0.5763  0.4488  0.0274
45253SOL     OW40569   2.222  12.239   6.942  0.4749  0.1711 -0.8739
45253SOL    HW140570   2.219  12.334   6.933 -1.0884  0.1804 -0.4448
45253SOL    HW240571   2.164  12.207   6.873  1.3580 -0.5045 -1.3162
45254SOL     OW40572  10.976  10.143   9.619  0.1986 -0.2668 -0.1218
45254SOL    HW140573  10.987  10.153   9.714 -1.3439  0.9318 -0.0284
45254SOL    HW240574  10.928  10.061   9.610 -1.1779  0.4532  0.3015
45255SOL     OW40575   3.184   0.234   5.071  0.2540  0.4980 -0.0567
45255SOL    HW140576   3.260   0.265   5.023  1.0430  1.8190  1.9094
45255SOL    HW240577   3.151   0.160   5.020  1.3102  1.4790 -2.2976
45256SOL     OW40578   5.361  10.496   2.132  0.5494  0.3711  0.2655
45256SOL    HW140579   5.289  10.539   2.085  0.4823  1.3221  1.2173
45256SOL    HW240580   5.393  10.430   2.070 -1.4913 -0.4546  0.0111
45257SOL     OW40581   7.491   2.927  11.586  0.5371 -0.4773 -0.0272
45257SOL    HW140582   7.539   3.009  11.595  0.8051 -0.7494  1.2484
45257SOL    HW240583   7.555   2.865  11.553  0.0752  0.0369 -2.0339
45258SOL     OW40584   2.924   5.967   6.531 -0.2162  0.5017  0.0957
45258SOL    HW140585   2.996   5.927   6.580 -1.1344  0.3726  1.3693
45258SOL    HW240586   2.951   6.058   6.519  0.2508  0.4019  0.3702
45259SOL     OW40587   0.840   9.575   6.165  0.1156 -0.4362 -0.4903
45259SOL    HW140588   0.926   9.534   6.157  0.7832  1.1147 -1.6317
45259SOL    HW240589   0.855   9.653   6.219 -0.8184 -0.7774  0.2945
45260SOL     OW40590   4.468   3.686   1.067 -0.3986  0.2748 -0.1410
45260SOL    HW140591   4.485   3.722   0.980 -1.1694 -0.6978 -0.7246
45260SOL    HW240592   4.372   3.691   1.076 -0.1742  3.3736  2.0353
45261SOL     OW40593   9.117   1.200  11.546 -0.1152  0.2277  0.7761
45261SOL    HW140594   9.119   1.156  11.631  1.0083  0.7983  1.0672
45261SOL    HW240595   9.033   1.246  11.545 -0.6971 -0.7843  1.0395
45262SOL     OW40596  10.831   2.130   0.282  0.4438 -0.6090 -0.3677
45262SOL    HW140597  10.871   2.164   0.361 -0.0462  0.9905 -0.7651
45262SOL    HW240598  10.821   2.206   0.225  2.4199 -1.9590 -2.7248
45263SOL     OW40599   5.337  10.714   4.740  0.4912 -0.0999  0.7690
45263SOL    HW140600   5.270  10.695   4.806  0.4901  0.5513  0.9663
45263SOL    HW240601   5.417  10.728   4.790  1.2562 -2.6906  0.4371
45264SOL     OW40602   0.717   9.736  10.020 -0.0918 -0.4437  0.4259
45264SOL    HW140603   0.801   9.696  10.040  0.1648  0.0011  0.2251
45264SOL    HW240604   0.653   9.668  10.043  0.2612 -0.4192  1.5340
45265SOL     OW40605   0.988  10.645   3.440 -0.4401 -0.0695  0.2553
45265SOL    HW140606   1.018  10.707   3.506  1.5636 -0.0091 -0.6289
45265SOL    HW240607   0.893  10.645   3.448 -0.5008  2.7746  0.6068
45266SOL     OW40608   8.108   1.905  10.602 -0.1532 -0.3749  0.2129
45266SOL    HW140609   8.166   1.834  10.631  1.2081  1.4041  2.1922
45266SOL    HW240610   8.076   1.944  10.684  0.0024  1.9420 -0.7530
45267SOL     OW40611   9.754   3.967   3.139  0.4591  0.5135  0.5948
45267SOL    HW140612   9.827   3.996   3.194  0.0870 -0.6783  1.7526
45267SOL    HW240613   9.699   3.914   3.197 -0.9394  0.7560 -0.4462
45268SOL     OW40614   3.760   3.792   1.205  0.2861 -0.0028 -0.2137
45268SOL    HW140615   3.804   3.877   1.216  0.1780  0.1158 -0.6880
45268SOL    HW240616   3.827   3.735   1.167 -0.1088  0.3178 -1.4140
45269SOL     OW40617   8.693  11.369   0.779 -0.5121 -0.1422 -0.0722
45269SOL    HW140618   8.752  11.430   0.734 -1.2112  0.8473  0.3445
45269SOL    HW240619   8.621  11.356   0.718 -0.8843  0.2859  0.2710
45270SOL     OW40620   5.629   0.314   2.071  0.8520 -0.0872 -0.9988
45270SOL    HW140621   5.693   0.284   2.136 -2.2219 -2.0928  1.4434
45270SOL    HW240622   5.636   0.409   2.071  2.0308 -0.1220  1.1836
45271SOL     OW40623   3.691   3.696  12.564  0.5081 -0.2909  0.7045
45271SOL    HW140624   3.615   3.637  12.562  0.0298  0.2836  1.6597
45271SOL    HW240625   3.693   3.731  12.653 -0.0122  2.1556 -0.1719
45272SOL     OW40626  10.234   0.362   2.664 -0.5838  0.4655 -0.4272
45272SOL    HW140627  10.185   0.285   2.634  1.2616  0.6573 -4.6900
45272SOL    HW240628  10.246   0.348   2.757 -1.7748 -3.5572 -0.6821
45273SOL     OW40629   3.236   5.510   2.166 -0.2298 -0.0684 -0.3804
45273SOL    HW140630   3.259   5.420   2.143  1.3663  0.0733  0.5021
45273SOL    HW240631   3.232   5.556   2.083  0.6545 -0.5863 -0.7193
45274SOL     OW40632  12.000   4.967  10.894  0.4230  0.2050  0.1137
45274SOL    HW140633  12.018   4.940  10.804 -2.9599 -0.1189 -0.5814
45274SOL    HW240634  12.033   5.057  10.900  0.3521  0.3665 -1.5923
45275SOL     OW40635   4.786  11.494   1.147  0.0202  0.3410 -0.1483
45275SOL    HW140636   4.783  11.589   1.161  0.8434  0.3427  0.0311
45275SOL    HW240637   4.715  11.478   1.084  2.4583  1.6692 -3.5295
45276SOL     OW40638   4.201   5.045   6.998 -0.2810 -0.4350 -0.1453
45276SOL    HW140639   4.237   5.120   6.951  1.7407  0.1409  2.0913
45276SOL    HW240640   4.269   4.978   6.991  0.0324 -0.3743  1.7024
45277SOL     OW40641   0.341   7.218  11.488 -0.1215  0.1699  0.5695
45277SOL    HW140642   0.294   7.299  11.511  0.7552  0.8161  0.1433
45277SOL    HW240643   0.401   7.204  11.562 -0.3267 -0.1418  0.6792
45278SOL     OW40644   1.411  11.078  11.872  0.4176  0.4731 -0.3171
45278SOL    HW140645   1.482  11.080  11.936  0.5369 -0.1156 -0.4218
45278SOL    HW240646   1.331  11.081  11.924  0.5139  0.1230 -0.1444
45279SOL     OW40647  10.909  10.607   2.985 -0.0027  0.0183  0.4635
45279SOL    HW140648  10.978  10.560   3.033  1.0461  0.7652 -0.2570
45279SOL    HW240649  10.949  10.626   2.900 -0.4787  1.9480  0.6284
45280SOL     OW40650   1.618   3.844   0.341  0.7748 -0.4547 -0.5040
45280SOL    HW140651   1.697   3.791   0.330 -0.3745 -2.3150 -0.1585
45280SOL    HW240652   1.575   3.808   0.418 -0.3795  0.5773 -0.6328
45281SOL     OW40653   0.007   2.676   7.451 -0.3002 -0.0421  0.5662
45281SOL    HW140654  -0.073   2.711   7.412 -0.0462 -0.6009 -0.4920
45281SOL    HW240655  -0.014   2.584   7.469  0.1412 -0.2288  0.1495
45282SOL     OW40656   6.920  11.070   7.196 -0.4142 -0.0642 -0.7406
45282SOL    HW140657   6.928  11.165   7.189 -1.7352  0.2107  0.6704
45282SOL    HW240658   6.957  11.049   7.282  0.0706 -0.8582 -1.1354
45283SOL     OW40659   9.971   0.142   1.715  0.1050 -0.6229  0.1906
45283SOL    HW140660   9.882   0.171   1.695 -0.3263 -0.7504  1.7973
45283SOL    HW240661  10.022   0.223   1.720  0.2694 -0.5917 -1.4516
45284SOL     OW40662   7.175   9.568   3.541  0.1644 -0.2480 -0.1861
45284SOL    HW140663   7.220   9.593   3.460  2.1347 -2.2531  0.1942
45284SOL    HW240664   7.189   9.641   3.601  0.1251  0.5315 -1.1012
45285SOL     OW40665   5.044   7.732   6.894 -0.2473  0.0692 -0.4128
45285SOL    HW140666   5.123   7.678   6.888 -0.0499  0.4165 -1.0499
45285SOL    HW240667   4.972   7.670   6.882 -0.0565 -0.1808 -0.2893
45286SOL     OW40668   1.441   9.106   0.888 -0.1666 -0.0985 -0.0211
45286SOL    HW140669   1.355   9.077   0.918 -0.3710  1.6420  1.2440
45286SOL    HW240670   1.475   9.158   0.960  1.2372  0.6267 -1.1599
45287SOL     OW40671   7.144   6.151   2.099  0.0559 -0.0701 -0.4192
45287SOL    HW140672   7.108   6.192   2.021  1.3533  1.9832 -0.0387
45287SOL    HW240673   7.202   6.082   2.067 -1.7707 -1.3649 -1.1050
45288SOL     OW40674  11.348  12.304  11.123  0.1287  0.0545  0.6170
45288SOL    HW140675  11.380  12.305  11.214 -0.8879 -1.1588  1.0142
45288SOL    HW240676  11.269  12.358  11.125  2.5022  4.0253 -0.6000
45289SOL     OW40677   9.577   1.874   3.889  0.1460 -0.5334 -0.1604
45289SOL    HW140678   9.666   1.891   3.921  0.0609 -0.3305 -0.0293
45289SOL    HW240679   9.535   1.825   3.959  0.4105 -1.3416 -0.5630
45290SOL     OW40680  12.424   2.394   7.868  0.1898 -0.3056  0.2762
45290SOL    HW140681  12.418   2.434   7.781  2.8198 -0.4442 -0.0323
45290SOL    HW240682  12.336   2.360   7.884 -0.8311  1.2366 -1.5590
45291SOL     OW40683   8.217   3.599   4.133  0.1845 -0.1838 -0.2075
45291SOL    HW140684   8.153   3.636   4.072  0.2305  2.8721  1.4193
45291SOL    HW240685   8.301   3.637   4.108  0.3072  0.6218  1.2782
45292SOL     OW40686   7.427   3.135  10.656  0.1776 -0.3202  0.2722
45292SOL    HW140687   7.512   3.171  10.630 -0.3777  1.8143  1.2080
45292SOL    HW240688   7.433   3.124  10.751 -0.3363 -0.8733  0.2448
45293SOL     OW40689   0.057  10.531  10.827  0.2392  0.3990 -0.0217
45293SOL    HW140690  -0.001  10.606  10.812 -1.5209 -0.8613  0.1272
45293SOL    HW240691   0.007  10.456  10.795  1.0940 -0.9747  1.7038
45294SOL     OW40692  11.001   7.221   6.047  0.0199  0.1574  0.1716
45294SOL    HW140693  10.909   7.221   6.023 -0.5025  0.4701  2.0641
45294SOL    HW240694  11.007   7.164   6.123  1.0087  1.6810  1.3065
45295SOL     OW40695   3.546   8.809   8.816  0.0545  0.3001 -0.5281
45295SOL    HW140696   3.613   8.823   8.882  0.9742 -1.6560 -0.9530
45295SOL    HW240697   3.546   8.890   8.764  1.4085  0.7148  0.0686
45296SOL     OW40698   6.001   3.975   9.432  0.2556 -0.0162  0.2865
45296SOL    HW140699   6.095   3.970   9.445  0.1413  0.2026  1.2900
45296SOL    HW240700   5.967   3.892   9.465  0.0922 -0.0755 -0.0244
45297SOL     OW40701   7.443   0.968  12.015 -0.5403  0.1068  0.0531
45297SOL    HW140702   7.435   1.053  11.971 -2.1890 -0.2240 -0.3535
45297SOL    HW240703   7.423   0.904  11.947 -1.4199 -0.4906  0.8528
45298SOL     OW40704   6.362   0.678  12.168 -0.2646  0.3999  0.2229
45298SOL    HW140705   6.409   0.676  12.085 -1.0760  1.1430 -0.2815
45298SOL    HW240706   6.373   0.767  12.200 -0.3638  0.2566  0.6643
45299SOL     OW40707   1.365   2.927   5.590 -0.1661  0.2098  0.1841
45299SOL    HW140708   1.315   2.987   5.645 -1.5818 -0.9277  0.2113
45299SOL    HW240709   1.299   2.872   5.547  0.8770  0.8553 -2.4742
45300SOL     OW40710   9.895   3.987  11.870  0.0437 -0.1358 -0.2672
45300SOL    HW140711   9.983   4.004  11.836 -0.1492  0.8798 -0.3072
45300SOL    HW240712   9.860   3.919  11.813  1.4901 -1.9791  0.9542
45301SOL     OW40713   9.227  10.864   2.375  0.5401  0.3247 -0.3128
45301SOL    HW140714   9.265  10.787   2.416  0.0916  0.1440 -0.2314
45301SOL    HW240715   9.275  10.938   2.413  0.2982  0.1445  0.3424
45302SOL     OW40716  11.006   6.144  10.686 -0.2237  0.1949  0.1738
45302SOL    HW140717  11.077   6.091  10.650 -0.0890 -0.2859  1.1057
45302SOL    HW240718  10.952   6.082  10.735 -0.3225  0.8382  0.8987
45303SOL     OW40719   0.683   8.633  10.546  0.1514 -0.0002 -0.1055
45303SOL    HW140720   0.675   8.664  10.636 -1.5160 -0.1528 -0.1717
45303SOL    HW240721   0.703   8.712  10.495  0.7195  0.1472  0.3372
45304SOL     OW40722   3.402   1.095   7.949 -0.5619  0.4398 -0.0214
45304SOL    HW140723   3.490   1.063   7.930 -0.0449  0.5178  1.9806
45304SOL    HW240724   3.402   1.186   7.920  0.3797  0.7474  0.8830
45305SOL     OW40725   2.840  12.246   7.710 -0.5744  0.2353 -0.3815
45305SOL    HW140726   2.840  12.152   7.729 -2.7074  0.3472  0.4076
45305SOL    HW240727   2.753  12.276   7.736 -0.6094  2.0878 -2.3442
45306SOL     OW40728   1.646  10.538   6.431  0.1097 -0.0423 -0.0449
45306SOL    HW140729   1.694  10.456   6.426  0.3759  0.1412 -0.5943
45306SOL    HW240730   1.570  10.519   6.485 -0.5839 -1.0249 -1.3228
45307SOL     OW40731  10.516   6.882   4.200 -0.2887  0.1549  0.3021
45307SOL    HW140732  10.485   6.794   4.220 -0.9711 -0.3803 -2.6128
45307SOL    HW240733  10.592   6.868   4.143  0.0611  1.4787  0.3993
45308SOL     OW40734   8.320   3.608   0.579  0.0871 -0.4358 -0.6175
45308SOL    HW140735   8.231   3.583   0.601  0.0239  0.9425  0.8850
45308SOL    HW240736   8.368   3.606   0.662  1.6677 -1.8174 -1.4893
45309SOL     OW40737   7.148  11.506   4.149 -0.3989 -0.0080 -0.4308
45309SOL    HW140738   7.194  11.432   4.109 -0.9494 -1.2341  1.0937
45309SOL    HW240739   7.063  11.470   4.174 -0.7044  1.1747  0.3065
45310SOL     OW40740  10.243   3.528  11.664  0.0772 -0.5774  0.3583
45310SOL    HW140741  10.307   3.461  11.641  1.6147  0.6220  0.9095
45310SOL    HW240742  10.263   3.600  11.603 -1.2230 -0.4325  0.0858
45311SOL     OW40743   1.947   4.839   6.140  0.1267 -0.2457  0.2171
45311SOL    HW140744   2.036   4.841   6.105  0.4073  2.0495  0.9214
45311SOL    HW240745   1.896   4.896   6.082 -0.4444 -0.0292  0.9074
45312SOL     OW40746  12.628   4.377  11.715 -0.2418  0.0569 -0.1342
45312SOL    HW140747  12.692   4.444  11.692 -0.6802  0.1877 -1.0214
45312SOL    HW240748  12.678   4.312  11.764  0.3784  0.5907 -0.0428
45313SOL     OW40749   0.137  12.405  10.911  0.1025  0.0933  0.1694
45313SOL    HW140750   0.169  12.320  10.941 -0.5112  0.6511  2.5538
45313SOL    HW240751   0.044  12.405  10.934 -0.2337  0.9042 -1.0695
45314SOL     OW40752   0.713   9.303   2.260 -0.1716 -0.2218  0.3537
45314SOL    HW140753   0.658   9.259   2.325  0.4621 -3.4126 -1.0818
45314SOL    HW240754   0.778   9.238   2.235  0.4348  1.3037 -2.5141
45315SOL     OW40755   6.718   9.315   5.008  0.0667  0.4130 -0.0509
45315SOL    HW140756   6.704   9.407   5.032 -0.8168 -0.3244  2.6365
45315SOL    HW240757   6.703   9.267   5.089  0.8488 -2.1068 -1.3020
45316SOL     OW40758   2.242  12.624  12.278 -0.3047 -0.2821 -0.1618
45316SOL    HW140759   2.251  12.531  12.302  1.5399 -0.0866  0.1068
45316SOL    HW240760   2.257  12.671  12.360  2.1622  0.2919 -0.8462
45317SOL     OW40761   9.185   5.630   1.120  0.1806 -0.1760 -0.2193
45317SOL    HW140762   9.172   5.615   1.213 -3.2494  0.1380 -0.5345
45317SOL    HW240763   9.110   5.590   1.077 -0.5587  3.1275 -2.4674
45318SOL     OW40764   9.064   7.882  11.095  0.4421 -0.1581  0.1754
45318SOL    HW140765   9.100   7.913  11.178 -0.8821  0.1187  0.6702
45318SOL    HW240766   8.987   7.937  11.080  0.4397 -0.4586 -1.0515
45319SOL     OW40767   6.727  12.548   1.411  0.4396  0.1827 -0.0984
45319SOL    HW140768   6.804  12.598   1.385 -0.6842  1.4610 -1.1036
45319SOL    HW240769   6.705  12.497   1.333 -0.5147  0.8741 -0.3003
45320SOL     OW40770  12.055   5.207   7.498 -0.7744 -0.0015  0.3439
45320SOL    HW140771  12.029   5.188   7.408  0.5969  0.6377 -0.2289
45320SOL    HW240772  12.005   5.146   7.552 -0.5285 -1.4189 -0.9723
45321SOL     OW40773   3.367   2.090   9.120  0.3095  0.0145 -0.0648
45321SOL    HW140774   3.456   2.118   9.143  0.8558  0.6835 -2.6763
45321SOL    HW240775   3.326   2.168   9.083 -0.8366 -0.7119 -0.3665
45322SOL     OW40776   3.507   5.843   3.577 -0.1134 -0.4292  0.0545
45322SOL    HW140777   3.460   5.888   3.647  0.2129 -0.5749  0.3682
45322SOL    HW240778   3.594   5.884   3.576  0.4191 -1.4829  0.7856
45323SOL     OW40779   1.087  10.191  11.846 -0.4982 -0.1665 -0.4249
45323SOL    HW140780   1.125  10.131  11.911 -0.9029 -0.3023 -0.3035
45323SOL    HW240781   0.999  10.155  11.831 -0.4438 -0.0722 -0.9696
45324SOL     OW40782  11.356  12.396   0.720  0.2017  0.0758 -0.3341
45324SOL    HW140783  11.339  12.315   0.767  1.6891  0.5092  1.0522
45324SOL    HW240784  11.272  12.443   0.722  0.0290 -0.2332  1.3403
45325SOL     OW40785  11.473   0.133   7.754  0.0048 -0.2874 -0.5799
45325SOL    HW140786  11.416   0.129   7.677 -1.8592  0.8326  0.6665
45325SOL    HW240787  11.496   0.226   7.761  0.4432 -0.4387  0.0245
45326SOL     OW40788  10.148   6.461   4.001 -0.2268  0.2057 -0.6864
45326SOL    HW140789  10.098   6.389   4.039 -3.1680  2.9162  1.1973
45326SOL    HW240790  10.223   6.472   4.060 -2.5807  1.7914  2.3517
45327SOL     OW40791  11.963   9.792   2.164  0.1626  0.1438  0.5653
45327SOL    HW140792  11.975   9.856   2.094 -2.6912  0.5673  0.3533
45327SOL    HW240793  12.005   9.712   2.130  1.1361  1.0646 -0.4601
45328SOL     OW40794   5.750   7.547   4.437  0.1997 -0.0624 -0.4624
45328SOL    HW140795   5.708   7.593   4.365  1.3849 -1.3730 -2.0653
45328SOL    HW240796   5.689   7.556   4.510 -2.8040 -1.6758 -2.5772
45329SOL     OW40797   7.890  10.232   1.780  0.6306  0.0900 -0.3587
45329SOL    HW140798   7.955  10.257   1.846  0.1707  0.4821 -0.0450
45329SOL    HW240799   7.864  10.315   1.740  1.0358 -0.1583 -1.1700
45330SOL     OW40800   8.506   1.323   2.581  0.4957  0.0743 -0.4094
45330SOL    HW140801   8.556   1.361   2.653 -0.4698  0.7076 -0.0606
45330SOL    HW240802   8.537   1.371   2.503  0.4992  0.3900 -0.2147
45331SOL     OW40803   7.544   3.514   5.455  0.0959  0.4423 -0.7146
45331SOL    HW140804   7.595   3.588   5.488  0.2203  0.4071 -0.8281
45331SOL    HW240805   7.573   3.503   5.364  0.4897 -0.1006 -0.5300
45332SOL     OW40806  12.452   3.761   4.307 -0.1540  0.3150  0.1058
45332SOL    HW140807  12.533   3.811   4.316 -0.8232  1.5014 -0.2933
45332SOL    HW240808  12.404   3.804   4.237  0.6525 -2.8498 -2.6844
45333SOL     OW40809   9.639   2.784   5.772  0.1213 -0.0987  0.1743
45333SOL    HW140810   9.709   2.723   5.794 -1.5605 -1.3999  2.3743
45333SOL    HW240811   9.659   2.863   5.823 -2.6564 -2.3781  5.6893
45334SOL     OW40812  12.540   2.034   5.108 -0.1521 -0.1968 -0.3247
45334SOL    HW140813  12.537   1.938   5.101 -0.5813 -0.0785 -2.3424
45334SOL    HW240814  12.465   2.064   5.056  0.3676  1.2600 -0.2702
45335SOL     OW40815  11.595   3.962   8.959  0.2230  0.1009 -0.0562
45335SOL    HW140816  11.541   4.040   8.969 -0.2721 -0.0593 -1.4085
45335SOL    HW240817  11.679   3.995   8.927  0.1658  0.1283 -0.1792
45336SOL     OW40818  12.019   5.349   5.924 -0.0730 -0.6917 -0.3512
45336SOL    HW140819  12.051   5.431   5.961  0.1699 -1.1041  0.3975
45336SOL    HW240820  12.089   5.321   5.865  0.8393 -1.3995  0.9947
45337SOL     OW40821   1.749   5.597   0.296 -0.0472 -0.3109  0.6690
45337SOL    HW140822   1.698   5.517   0.284  0.9918 -0.8343 -0.4110
45337SOL    HW240823   1.725   5.653   0.222 -1.3577  0.7465  1.8272
45338SOL     OW40824   7.801  11.181   2.528 -0.1309 -0.3776  0.2291
45338SOL    HW140825   7.772  11.106   2.477  0.2199  0.4415 -1.2404
45338SOL    HW240826   7.884  11.153   2.567 -0.7791 -1.2726  0.9801
45339SOL     OW40827   5.122   2.292   9.702  0.0329  0.1301 -0.1317
45339SOL    HW140828   5.141   2.367   9.646 -1.6844 -0.5065 -1.6730
45339SOL    HW240829   5.199   2.284   9.758  0.2597  3.0441  0.1409
45340SOL     OW40830   6.777   7.928   2.391  0.0162  0.1363 -0.1782
45340SOL    HW140831   6.826   7.854   2.355  0.5195 -0.0691  0.8968
45340SOL    HW240832   6.815   8.005   2.348  2.1413  0.1013  1.4299
45341SOL     OW40833   1.087  11.838   2.349  0.0435 -0.3191 -0.0147
45341SOL    HW140834   1.009  11.785   2.368  0.3143 -0.3934  0.9908
45341SOL    HW240835   1.145  11.822   2.424  0.0991  1.4778  0.3570
45342SOL     OW40836   7.423   9.665   8.161  0.3135  0.4958  0.4723
45342SOL    HW140837   7.334   9.695   8.140  0.2995 -0.4537 -0.9858
45342SOL    HW240838   7.409   9.587   8.216  0.1044 -1.2765 -1.9516
45343SOL     OW40839   5.263   5.729   8.991  0.5474  0.0037 -0.1136
45343SOL    HW140840   5.207   5.710   9.066 -1.1372 -0.2592 -1.4027
45343SOL    HW240841   5.263   5.825   8.985  1.3963  0.0781  0.6959
45344SOL     OW40842  12.559   9.653   4.956 -0.1966 -0.2306  0.9057
45344SOL    HW140843  12.545   9.703   5.037  0.4913  0.4372  0.6186
45344SOL    HW240844  12.628   9.700   4.910  1.8739 -2.4645  1.4918
45345SOL     OW40845  10.409   7.269  11.160  0.2109  0.1569  0.0658
45345SOL    HW140846  10.421   7.249  11.067 -0.5888  0.9634 -0.2298
45345SOL    HW240847  10.320   7.238  11.179 -0.0888  1.0728  0.2336
45346SOL     OW40848   3.508   4.343   5.096  0.3069  0.2822  0.3191
45346SOL    HW140849   3.584   4.372   5.146 -0.2782  1.0502  0.7861
45346SOL    HW240850   3.545   4.292   5.023  1.1853 -0.4977  1.2837
45347SOL     OW40851  11.620  10.994   9.247  0.1488  0.2800 -0.2523
45347SOL    HW140852  11.526  11.012   9.248 -0.1010 -0.9722  0.6562
45347SOL    HW240853  11.656  11.063   9.191 -1.4963 -0.2093 -2.0304
45348SOL     OW40854   9.107   0.623   0.403  0.3067 -0.1290  0.5056
45348SOL    HW140855   9.198   0.652   0.415 -0.0480  0.3752  2.1975
45348SOL    HW240856   9.066   0.694   0.353 -0.0031  1.4013  2.7810
45349SOL     OW40857   1.273  12.007   1.699  0.1261 -0.5849  0.4652
45349SOL    HW140858   1.247  12.023   1.608 -3.0271 -0.6335  1.2421
45349SOL    HW240859   1.229  11.925   1.722  1.1008 -0.7235  1.9940
45350SOL     OW40860   9.435   2.911   7.925 -0.3594 -0.0906 -0.3153
45350SOL    HW140861   9.350   2.945   7.952 -0.1818 -0.6014  0.9718
45350SOL    HW240862   9.443   2.936   7.833 -2.1364 -0.4995 -0.6266
45351SOL     OW40863   7.353   2.826   2.561  0.3432  0.0585 -0.2702
45351SOL    HW140864   7.376   2.864   2.646  0.5518  0.8815 -0.6772
45351SOL    HW240865   7.279   2.878   2.531 -0.5818 -1.0880 -0.0083
45352SOL     OW40866   8.162   1.869   6.326  0.2452 -0.0583  0.0827
45352SOL    HW140867   8.252   1.903   6.327  0.4126 -0.4950  0.5579
45352SOL    HW240868   8.167   1.792   6.269  0.3652 -0.5659  0.7616
45353SOL     OW40869  12.171   8.920   8.036  0.0004  0.0827 -0.3481
45353SOL    HW140870  12.134   8.889   8.118 -0.2322  0.6606 -0.2394
45353SOL    HW240871  12.102   8.905   7.971  0.2360 -0.5072 -0.4736
45354SOL     OW40872   1.909   8.939   0.143  0.7414 -0.4042  0.2868
45354SOL    HW140873   1.965   8.877   0.191 -0.2266 -0.6971  1.0692
45354SOL    HW240874   1.970   9.006   0.112  1.5522 -0.7638  1.0315
45355SOL     OW40875   6.126   6.957  11.453 -0.4838  0.5745 -0.1748
45355SOL    HW140876   6.080   6.963  11.369  1.5871 -0.8192 -1.4647
45355SOL    HW240877   6.076   6.892  11.503 -0.1676 -0.6690 -1.4193
45356SOL     OW40878   5.052   9.705  11.195 -0.0145 -0.2777 -0.1252
45356SOL    HW140879   5.066   9.718  11.102  0.4894  0.2637  0.0209
45356SOL    HW240880   5.069   9.612  11.210  3.5139  0.2542  0.0243
45357SOL     OW40881   4.947   4.964  12.618 -0.0171 -0.1477 -0.0352
45357SOL    HW140882   4.896   5.005  12.549 -0.3651 -0.1091  0.2407
45357SOL    HW240883   5.035   5.002  12.609 -0.4021  0.8796  0.3863
45358SOL     OW40884   9.096   0.967  11.746 -0.3268 -0.4746  0.0228
45358SOL    HW140885   9.048   0.967  11.663 -1.4413  1.8235  0.5805
45358SOL    HW240886   9.042   0.915  11.805 -0.1351 -1.1269 -0.3704
45359SOL     OW40887   1.853   0.404   7.662 -0.3571 -0.0781 -0.1899
45359SOL    HW140888   1.948   0.395   7.661 -0.4304 -1.0565 -0.9133
45359SOL    HW240889   1.836   0.488   7.704  0.9187  1.1185 -1.9240
45360SOL     OW40890   4.726   8.950   4.530  0.4938  0.5263  0.6889
45360SOL    HW140891   4.767   8.868   4.558 -0.1386  0.1270  0.4719
45360SOL    HW240892   4.717   8.941   4.435  0.8939  1.0733  0.5912
45361SOL     OW40893   9.757   1.877   5.918 -0.1096 -0.1320 -0.1188
45361SOL    HW140894   9.717   1.804   5.872  1.3849 -0.8195 -0.3850
45361SOL    HW240895   9.772   1.844   6.007  1.8824 -0.7306 -0.6107
45362SOL     OW40896  10.249  11.400   2.073 -1.2571  0.2035 -0.8077
45362SOL    HW140897  10.175  11.414   2.131 -0.9880 -0.4889 -0.2758
45362SOL    HW240898  10.254  11.479   2.020 -2.1331  0.4190 -0.5865
45363SOL     OW40899   9.827   0.474   2.203  0.1059 -0.6988 -0.6155
45363SOL    HW140900   9.915   0.451   2.233  0.1289  1.0925  0.9438
45363SOL    HW240901   9.769   0.431   2.266  0.0719  1.1516  0.7273
45364SOL     OW40902   3.101  11.633   4.964  0.2918  0.1951 -0.4730
45364SOL    HW140903   3.033  11.649   4.899  1.6923  1.4043 -1.7217
45364SOL    HW240904   3.055  11.636   5.048 -1.6167 -1.6755 -1.3484
45365SOL     OW40905  10.216   9.125   4.048  0.2651  0.6670 -0.0631
45365SOL    HW140906  10.163   9.204   4.040  0.7723  1.0060 -0.1103
45365SOL    HW240907  10.307   9.155   4.041  0.4964  0.1690  0.5880
45366SOL     OW40908   0.394   1.460  12.349  0.8539 -0.1374 -0.0411
45366SOL    HW140909   0.402   1.527  12.416  0.7543 -1.4785  1.3680
45366SOL    HW240910   0.350   1.387  12.393 -1.9637 -0.0121 -2.3441
45367SOL     OW40911  10.803  11.020   4.883  0.2982 -0.1134 -0.2137
45367SOL    HW140912  10.822  10.934   4.921  1.0491  0.4674  0.7954
45367SOL    HW240913  10.728  11.053   4.933  0.6065  0.2036  0.0461
45368SOL     OW40914   6.744   1.066   0.041 -0.2928 -0.2246  0.2374
45368SOL    HW140915   6.819   1.018   0.004  0.2909  1.1727 -0.4878
45368SOL    HW240916   6.671   1.044  -0.017  0.0532  0.0301 -0.3051
45369SOL     OW40917  11.522  12.502   5.673 -0.0613 -0.5809  0.0064
45369SOL    HW140918  11.486  12.421   5.707 -0.2984 -1.1153 -1.4315
45369SOL    HW240919  11.445  12.557   5.654  0.0046 -0.6911 -0.6006
45370SOL     OW40920   8.426   4.509  11.800  0.2416 -0.0546  0.3108
45370SOL    HW140921   8.461   4.485  11.714 -0.9455  0.9250 -0.4770
45370SOL    HW240922   8.460   4.597  11.816 -0.1874  0.0799  0.4886
45371SOL     OW40923   7.034   2.977   6.409 -0.7039  1.2606  0.1995
45371SOL    HW140924   6.998   2.933   6.332  0.0234 -0.4582  0.7931
45371SOL    HW240925   7.125   2.996   6.386 -0.2924  0.1403  0.8564
45372SOL     OW40926   5.581   5.849  12.022  0.0298 -0.1502 -0.2371
45372SOL    HW140927   5.500   5.863  11.972 -0.1451 -0.5392 -0.0693
45372SOL    HW240928   5.642   5.812  11.958 -0.4649 -1.4734  0.0093
45373SOL     OW40929  10.171   3.369  10.842 -0.7260  0.7862  0.0913
45373SOL    HW140930  10.085   3.331  10.822 -0.8260 -0.0499  1.8937
45373SOL    HW240931  10.170   3.382  10.937  1.3614  0.1330  0.2695
45374SOL     OW40932   8.465   4.751  10.221 -0.0153  0.8065  0.7464
45374SOL    HW140933   8.494   4.683  10.159 -0.8727  0.0354  1.1659
45374SOL    HW240934   8.547   4.790  10.252  0.7073 -1.6835  2.3231
45375SOL     OW40935   2.529   0.834   7.076  0.5474  0.6823 -0.2646
45375SOL    HW140936   2.461   0.798   7.132  1.8397 -0.4214  0.6455
45375SOL    HW240937   2.481   0.882   7.008 -1.2611 -2.2746 -1.2545
45376SOL     OW40938   6.677  12.130  12.294 -0.5428  0.2166  0.4632
45376SOL    HW140939   6.653  12.198  12.231 -0.3703 -0.0215  0.1400
45376SOL    HW240940   6.596  12.112  12.342 -0.7811  0.0840  0.0135
45377SOL     OW40941  11.600   1.280   8.614 -0.3100  0.3576 -0.1379
45377SOL    HW140942  11.591   1.374   8.602 -0.3508  0.2010 -1.5769
45377SOL    HW240943  11.513   1.250   8.639 -0.2205  0.7331  0.6476
45378SOL     OW40944   3.876   4.403   0.222 -0.1076 -0.6566 -0.4803
45378SOL    HW140945   3.885   4.309   0.206  1.4360 -0.5308 -0.4429
45378SOL    HW240946   3.909   4.416   0.311 -1.4349 -0.2271 -0.0198
45379SOL     OW40947   6.184   1.195   0.904 -0.5586 -0.3234  0.1147
45379SOL    HW140948   6.167   1.203   0.998  0.2795  1.2220  0.1621
45379SOL    HW240949   6.272   1.159   0.898 -0.4996 -0.1522 -0.0734
45380SOL     OW40950   7.912   7.521   0.104 -0.1025  0.1919  0.2730
45380SOL    HW140951   7.848   7.561   0.045  0.4523 -0.2928 -0.6761
45380SOL    HW240952   7.863   7.452   0.149 -0.3691  0.1353 -0.0966
45381SOL     OW40953   9.330  11.937   1.709 -0.0538  0.1331 -0.3419
45381SOL    HW140954   9.288  12.023   1.698  1.0356  0.5428 -1.4576
45381SOL    HW240955   9.282  11.879   1.649 -0.7117 -0.0242  0.3238
45382SOL     OW40956   5.795  10.245   3.058  0.1857 -0.0413 -0.1553
45382SOL    HW140957   5.720  10.302   3.039 -0.2250 -0.4461  0.2122
45382SOL    HW240958   5.871  10.303   3.057 -0.4527  0.9673  2.3442
45383SOL     OW40959   8.943   4.766   5.340 -0.0463 -0.0365  0.2389
45383SOL    HW140960   8.987   4.734   5.261  0.2512  0.2090  0.3037
45383SOL    HW240961   9.009   4.817   5.386 -0.8965  1.8582 -0.5479
45384SOL     OW40962   3.523   4.578   0.399 -0.2535  0.1481  0.7110
45384SOL    HW140963   3.579   4.569   0.322 -3.7350  0.0960 -2.0729
45384SOL    HW240964   3.558   4.516   0.462  1.6554 -1.2668 -1.5867
45385SOL     OW40965   4.743   8.147  12.358  0.1235  0.1411 -0.1404
45385SOL    HW140966   4.834   8.136  12.386  0.4597  1.7312 -0.5268
45385SOL    HW240967   4.692   8.124  12.436  0.8730  0.0280  0.3341
45386SOL     OW40968   1.383   3.028   8.046 -0.3537  0.2561  0.6620
45386SOL    HW140969   1.403   3.022   8.139  0.7455 -0.0776  0.4156
45386SOL    HW240970   1.324   2.955   8.029 -0.6961  0.4194  1.1291
45387SOL     OW40971   7.803   3.553   1.931 -0.6128  0.5154  0.0751
45387SOL    HW140972   7.712   3.572   1.908 -0.7049 -0.6898 -0.6409
45387SOL    HW240973   7.855   3.611   1.875 -0.9285  1.0287  0.3081
45388SOL     OW40974   1.534   4.468   8.424  0.3216 -0.2870  0.6555
45388SOL    HW140975   1.516   4.488   8.515  0.5105  0.7157  0.4788
45388SOL    HW240976   1.578   4.383   8.426  1.2954  0.2334  1.5776
45389SOL     OW40977   2.954   8.223   6.327 -0.1457  0.2202  0.3423
45389SOL    HW140978   2.975   8.178   6.245 -1.5296 -0.2877  0.2436
45389SOL    HW240979   2.972   8.316   6.309  0.6446 -0.0201 -0.1547
45390SOL     OW40980   5.447   3.790   6.391 -0.2579 -0.1495  0.2710
45390SOL    HW140981   5.411   3.743   6.316 -1.0300 -2.0227  1.7356
45390SOL    HW240982   5.376   3.847   6.421 -0.4729 -0.5270  0.4807
45391SOL     OW40983   5.387   3.531  10.989 -0.6664 -0.3566 -0.1462
45391SOL    HW140984   5.321   3.572  11.045  0.0400  0.6694 -0.0354
45391SOL    HW240985   5.375   3.572  10.903 -1.9920 -2.1930 -0.8946
45392SOL     OW40986   0.826  12.031   2.939 -0.1178 -0.7059 -0.6052
45392SOL    HW140987   0.872  11.948   2.925 -1.5336 -1.6906  0.3255
45392SOL    HW240988   0.736  12.014   2.911 -0.7272  0.1355  0.7491
45393SOL     OW40989  11.674   1.226   3.831 -0.0102  0.7867 -0.1299
45393SOL    HW140990  11.750   1.223   3.888  2.1264  1.7276 -2.7556
45393SOL    HW240991  11.643   1.135   3.827  1.4928  0.2369  0.3324
45394SOL     OW40992   6.958   3.371   4.070  0.3679 -0.3531 -0.1723
45394SOL    HW140993   7.026   3.428   4.035  1.3116 -0.3297  1.6049
45394SOL    HW240994   7.001   3.322   4.140 -1.9759  1.7606  3.0767
45395SOL     OW40995  10.119   7.786  12.244  0.0833 -0.0140  0.0568
45395SOL    HW140996  10.192   7.847  12.246 -0.0002  0.0950 -0.1784
45395SOL    HW240997  10.075   7.803  12.160  1.6147 -2.1960 -1.2973
45396SOL     OW40998   4.092   9.942   8.996 -0.1288 -0.0225  0.7085
45396SOL    HW140999   4.100   9.982   8.910  1.6988 -2.4638 -0.3893
45396SOL    HW241000   4.120  10.010   9.058 -1.2265  1.6886 -0.5892
45397SOL     OW41001   1.884   2.156   0.649 -0.2131  0.0587  0.2167
45397SOL    HW141002   1.910   2.123   0.563  0.8229 -1.4956  1.0798
45397SOL    HW241003   1.950   2.122   0.709  0.5903  3.2331  1.3342
45398SOL     OW41004   8.864   0.547   3.931  0.3696 -0.2008 -0.6074
45398SOL    HW141005   8.943   0.515   3.888 -0.5239 -0.9741 -1.7313
45398SOL    HW241006   8.870   0.512   4.020  0.5078 -1.6671 -1.1590
45399SOL     OW41007  12.064  10.997   4.872  0.5449 -0.3638 -0.1652
45399SOL    HW141008  12.139  11.033   4.920 -0.6273  1.8163  0.1861
45399SOL    HW241009  12.053  11.057   4.797 -2.2206  0.8590  1.0745
45400SOL     OW41010  12.306   5.417   2.586 -0.0167  0.9381 -0.5212
45400SOL    HW141011  12.251   5.407   2.664 -1.7547  1.6876 -1.6061
45400SOL    HW241012  12.376   5.354   2.599 -0.6724  0.5134  1.3001
45401SOL     OW41013   8.517   4.167   4.980  0.0215 -0.3762  0.6181
45401SOL    HW141014   8.430   4.137   4.954 -0.5414 -0.2561  2.2433
45401SOL    HW241015   8.577   4.107   4.937 -0.9184 -1.1404  0.3363
45402SOL     OW41016   4.751   8.162   9.786 -0.1951 -0.1433 -0.6616
45402SOL    HW141017   4.663   8.133   9.811  0.4524 -1.9527 -0.3847
45402SOL    HW241018   4.808   8.128   9.855  0.7327  1.1651 -0.7457
45403SOL     OW41019   7.716  10.733   3.737 -0.6042 -1.1234 -0.0334
45403SOL    HW141020   7.637  10.704   3.692 -1.7409 -1.5715  2.0812
45403SOL    HW241021   7.702  10.707   3.828  0.3725  1.9857  1.1419
45404SOL     OW41022  10.243   3.776   8.381  0.2227  0.2464 -0.2539
45404SOL    HW141023  10.289   3.761   8.298 -0.2189  1.8715 -0.8258
45404SOL    HW241024  10.310   3.812   8.439  0.2104  0.4509 -0.3646
45405SOL     OW41025  10.928  10.355  10.119  0.0199 -0.1303  0.4072
45405SOL    HW141026  10.912  10.449  10.107  0.2318 -0.2270 -0.7263
45405SOL    HW241027  10.953  10.346  10.211 -0.5485  0.8457  0.6687
45406SOL     OW41028   7.925   3.172   5.995  0.0798 -0.4428  0.3309
45406SOL    HW141029   7.954   3.117   6.068  0.9392 -0.5610 -0.0851
45406SOL    HW241030   7.969   3.135   5.918 -0.0104  0.3044 -0.0884
45407SOL     OW41031   7.913   2.774   7.932  0.2745  0.4189 -0.0302
45407SOL    HW141032   7.996   2.804   7.968 -0.7229  1.2834  1.7141
45407SOL    HW241033   7.850   2.790   8.002 -1.3961 -0.0505 -1.3599
45408SOL     OW41034   4.580   0.473   5.146 -0.2101 -0.3003  0.0577
45408SOL    HW141035   4.633   0.486   5.068 -2.1683  1.0982 -1.1479
45408SOL    HW241036   4.541   0.559   5.163  0.8747 -0.2799  3.2103
45409SOL     OW41037   6.772  10.812   6.090 -0.7646  0.4483 -0.5467
45409SOL    HW141038   6.724  10.875   6.035  1.9554  1.3175 -2.1424
45409SOL    HW241039   6.822  10.759   6.027 -0.1944 -0.8878  0.9689
45410SOL     OW41040   3.372   0.385   1.230  0.1288 -0.7380 -0.7191
45410SOL    HW141041   3.294   0.430   1.198 -0.8620 -2.4720 -0.8754
45410SOL    HW241042   3.400   0.329   1.157  0.5611 -1.3251 -0.1210
45411SOL     OW41043   0.569   4.481   9.730 -0.6452 -0.1495  0.4431
45411SOL    HW141044   0.640   4.533   9.768 -1.3568 -0.2403  1.9808
45411SOL    HW241045   0.541   4.424   9.802 -2.3023 -0.0702 -0.0992
45412SOL     OW41046   3.293   2.692  10.753 -0.2743  0.4514 -0.0439
45412SOL    HW141047   3.265   2.780  10.732  0.9355  0.6729 -0.8764
45412SOL    HW241048   3.341   2.701  10.835 -3.1181 -0.0544  1.8151
45413SOL     OW41049   0.810   0.533   1.847  0.6636  0.4907 -0.1732
45413SOL    HW141050   0.854   0.534   1.932 -0.0630  0.4409  0.2196
45413SOL    HW241051   0.866   0.584   1.790  0.7384  1.2552  0.5621
45414SOL     OW41052  10.386   2.730   7.463  0.1786  0.4712  0.2005
45414SOL    HW141053  10.293   2.748   7.445 -0.5814 -2.4373  0.6029
45414SOL    HW241054  10.398   2.757   7.554 -0.6956 -0.3487  0.5848
45415SOL     OW41055   1.160   3.217   0.598  0.4075 -0.0613  0.0566
45415SOL    HW141056   1.083   3.218   0.654  0.3936 -0.6108  0.0583
45415SOL    HW241057   1.225   3.168   0.649  0.9944  1.0004  0.3555
45416SOL     OW41058   6.109   0.007   6.015 -0.1010 -0.5542  0.3690
45416SOL    HW141059   6.154  -0.049   5.951 -0.2348 -0.2708  0.0260
45416SOL    HW241060   6.172   0.077   6.033 -0.2836 -0.3264  0.1217
45417SOL     OW41061   6.982  11.455   4.852 -0.2283 -0.3922  0.1968
45417SOL    HW141062   6.911  11.485   4.793 -2.3803  0.9452  3.2055
45417SOL    HW241063   6.989  11.362   4.834 -1.5853 -0.2616 -1.3746
45418SOL     OW41064   2.806   6.984   7.021 -0.4148 -0.1891 -0.2168
45418SOL    HW141065   2.883   7.033   7.052 -1.3556  0.9252  0.4409
45418SOL    HW241066   2.803   6.906   7.078 -1.5942  1.3818  2.0350
45419SOL     OW41067   7.436   9.282   3.599  0.5859 -0.3058  0.5630
45419SOL    HW141068   7.437   9.347   3.528  0.6537 -0.2197  0.6419
45419SOL    HW241069   7.522   9.239   3.594  0.0807 -1.2494 -0.2692
45420SOL     OW41070   4.639   7.769   4.586  0.1127  0.2179 -0.0551
45420SOL    HW141071   4.629   7.775   4.491  0.2928  1.6590  0.0016
45420SOL    HW241072   4.733   7.770   4.602  0.1845 -2.1428  0.0588
45421SOL     OW41073   6.637   4.970   3.542  0.1707  0.8597 -0.2467
45421SOL    HW141074   6.631   4.978   3.447  1.4877  0.6258 -0.3646
45421SOL    HW241075   6.731   4.972   3.561 -0.0162 -0.2271  0.9481
45422SOL     OW41076   8.625   1.537   5.413 -0.3382  0.2660 -0.1702
45422SOL    HW141077   8.687   1.489   5.467  1.2064  3.0408  0.7676
45422SOL    HW241078   8.652   1.519   5.323  3.7056  3.2671  0.1721
45423SOL     OW41079  12.596   1.505   7.579 -0.3930 -0.0528 -0.4160
45423SOL    HW141080  12.588   1.446   7.654  1.6376  0.3558  0.2026
45423SOL    HW241081  12.635   1.584   7.616  1.2047 -0.0536 -1.9508
45424SOL     OW41082   4.766   6.367   2.690 -0.5131  0.2475  0.4013
45424SOL    HW141083   4.706   6.335   2.757  0.1710  0.0135  0.9268
45424SOL    HW241084   4.730   6.336   2.607 -1.2532  0.3432  0.6805
45425SOL     OW41085   6.672   6.701   0.468  0.0271 -0.2046  0.3969
45425SOL    HW141086   6.610   6.631   0.489 -2.1405  1.1684 -0.9721
45425SOL    HW241087   6.619   6.781   0.474  1.2905  0.9199 -2.2323
45426SOL     OW41088   0.838   2.130  10.679  0.6450  0.5027 -0.4512
45426SOL    HW141089   0.793   2.054  10.715  3.2626 -0.6660  0.6403
45426SOL    HW241090   0.892   2.162  10.752 -0.0431  3.1868 -1.0130
45427SOL     OW41091   3.369   4.377   9.336  0.0817 -0.4775 -0.0367
45427SOL    HW141092   3.419   4.372   9.417  0.3879 -0.3191 -0.2144
45427SOL    HW241093   3.277   4.376   9.364  0.1627  1.5280  0.4611
45428SOL     OW41094   8.111  11.348   6.731 -0.1491 -0.1424 -0.3819
45428SOL    HW141095   8.144  11.417   6.789  0.1416  0.1825 -0.9295
45428SOL    HW241096   8.058  11.394   6.666  0.7079 -0.3313 -1.2336
45429SOL     OW41097  10.450   8.135   9.957  0.1176  0.0974  0.6073
45429SOL    HW141098  10.486   8.223   9.943 -0.0274  0.3392  1.6834
45429SOL    HW241099  10.521   8.076   9.930 -0.9624  0.3808 -3.6541
45430SOL     OW41100   0.396   4.161   9.846  0.0282  0.5035  0.1908
45430SOL    HW141101   0.426   4.123   9.764 -0.2581 -2.1165  1.1820
45430SOL    HW241102   0.456   4.125   9.912 -1.3946  0.2922  1.4291
45431SOL     OW41103  12.499   7.449   0.163  0.8971 -0.1869  0.2929
45431SOL    HW141104  12.569   7.514   0.166  0.3138  0.4753 -0.1549
45431SOL    HW241105  12.483   7.436   0.070 -0.5118  0.7027  0.3915
45432SOL     OW41106   1.697   3.079   3.382 -0.2263 -0.0288 -0.3753
45432SOL    HW141107   1.609   3.116   3.379 -0.4142 -0.2614  1.3272
45432SOL    HW241108   1.687   2.990   3.348 -0.4658  0.2414 -1.0238
45433SOL     OW41109   4.940  12.089   7.029  0.3813  0.5293  0.2049
45433SOL    HW141110   4.881  12.088   7.105  1.0038 -1.3555  0.7182
45433SOL    HW241111   4.883  12.112   6.956 -0.4838  1.1839  1.0484
45434SOL     OW41112   8.632   4.033   7.699  0.0365 -0.0242  0.2793
45434SOL    HW141113   8.642   4.030   7.794  3.0136 -0.5944  0.0598
45434SOL    HW241114   8.716   4.068   7.668 -1.1412  0.8980 -2.1232
45435SOL     OW41115   7.993   0.247   7.790  0.0810  0.1068 -0.0848
45435SOL    HW141116   7.943   0.300   7.851  0.4106 -0.5163  0.7438
45435SOL    HW241117   7.954   0.160   7.796 -0.6958  0.3131 -1.6996
45436SOL     OW41118  12.579   6.618   6.692 -0.6776  0.4528  0.0146
45436SOL    HW141119  12.554   6.669   6.769  1.4803 -0.2950  1.3380
45436SOL    HW241120  12.577   6.527   6.722 -2.4347 -0.1139 -1.6718
45437SOL     OW41121   3.869   1.322   4.245  0.4227 -0.4263  0.2293
45437SOL    HW141122   3.896   1.240   4.287  0.5049 -0.0831  0.8702
45437SOL    HW241123   3.898   1.390   4.306  0.9742  0.1223 -0.6136
45438SOL     OW41124   1.400   3.647   1.064 -0.7282  0.5479  0.0181
45438SOL    HW141125   1.461   3.618   1.131 -0.0646  1.3532 -0.2216
45438SOL    HW241126   1.326   3.682   1.114  0.9343  3.7407  0.4856
45439SOL     OW41127  10.100   6.315   4.445 -0.1393  0.0116  0.0457
45439SOL    HW141128  10.030   6.379   4.434 -0.5595 -0.2432  1.0971
45439SOL    HW241129  10.180   6.367   4.453 -0.3434  0.3558 -0.1551
45440SOL     OW41130   0.815   3.740  12.564 -0.9010 -1.1599  0.4075
45440SOL    HW141131   0.845   3.676  12.629  2.6087  0.2047  0.3324
45440SOL    HW241132   0.833   3.698  12.479  2.6658  0.1903  0.3255
45441SOL     OW41133   5.045   1.290   5.466 -0.3756  0.6598  0.3671
45441SOL    HW141134   5.091   1.272   5.385  0.4624  1.5832  0.6232
45441SOL    HW241135   5.106   1.264   5.535 -0.1804  1.9317  0.7069
45442SOL     OW41136   5.579   2.433   6.883 -0.0511  0.1101 -0.6055
45442SOL    HW141137   5.639   2.384   6.828 -0.2706 -0.8283 -0.0214
45442SOL    HW241138   5.601   2.408   6.972 -2.3355 -1.5389 -0.4063
45443SOL     OW41139   0.797   7.210   2.755  0.2890  0.1259  0.0892
45443SOL    HW141140   0.731   7.159   2.708 -0.6727 -1.2383  2.7192
45443SOL    HW241141   0.874   7.153   2.757  1.1713  1.1537 -1.7637
45444SOL     OW41142  12.608   9.351   2.433  0.0328  0.1835 -0.1398
45444SOL    HW141143  12.534   9.411   2.420  0.9480  1.1734 -1.0778
45444SOL    HW241144  12.605   9.329   2.526 -0.2161  1.8817  0.2912
45445SOL     OW41145   7.903   4.543   7.361 -0.3586 -0.0798 -0.0824
45445SOL    HW141146   7.851   4.536   7.441  0.6698  0.1563  0.6292
45445SOL    HW241147   7.968   4.473   7.368  1.0280  1.2099  0.2888
45446SOL     OW41148   0.671   2.081  11.076  0.6503  0.0186 -0.3109
45446SOL    HW141149   0.612   2.039  11.139 -0.2470  2.0944  0.2951
45446SOL    HW241150   0.625   2.160  11.049  3.4239  2.1344  0.7122
45447SOL     OW41151   4.873   3.955  12.601 -0.0824 -0.0733  0.3661
45447SOL    HW141152   4.961   3.927  12.626  0.7593  0.0542 -2.2205
45447SOL    HW241153   4.887   4.021  12.534 -2.0292 -3.0352 -3.3448
45448SOL     OW41154   7.961   5.586  11.804 -0.2845 -0.1729 -0.0834
45448SOL    HW141155   7.936   5.516  11.744 -0.9485  0.4729 -0.5778
45448SOL    HW241156   8.048   5.561  11.834  0.7109  0.1783 -2.4284
45449SOL     OW41157   8.080  10.062   5.978 -0.4991  0.0786  0.1799
45449SOL    HW141158   8.129  10.099   6.051 -0.0583 -0.3684  0.1155
45449SOL    HW241159   7.988  10.069   6.005 -0.3184 -0.5836  1.0212
45450SOL     OW41160   4.653   9.537   2.719 -0.1754 -0.4106 -0.0972
45450SOL    HW141161   4.611   9.522   2.635 -0.2140 -0.1672 -0.1227
45450SOL    HW241162   4.726   9.595   2.699 -1.2063  1.0968  0.2718
45451SOL     OW41163   8.654   9.317  11.019  0.5716 -0.3015  0.0833
45451SOL    HW141164   8.736   9.366  11.024  0.6949 -0.5007  0.0249
45451SOL    HW241165   8.653   9.264  11.098  1.2051 -1.3975 -0.6233
45452SOL     OW41166  11.683   6.346   4.148 -0.3196 -0.6751 -0.1434
45452SOL    HW141167  11.641   6.416   4.099 -2.2523 -2.5936 -1.4440
45452SOL    HW241168  11.627   6.331   4.224  0.4793 -0.3590  0.5258
45453SOL     OW41169   1.055   8.565   6.715  0.6761  0.0506 -0.5806
45453SOL    HW141170   1.041   8.479   6.754  4.3654 -0.9618 -1.0475
45453SOL    HW241171   1.065   8.624   6.790  1.0739 -0.5404 -0.1608
45454SOL     OW41172   1.133   3.117   8.443  0.4084 -0.7966  0.7265
45454SOL    HW141173   1.150   3.023   8.433 -1.0562 -0.9909 -0.3860
45454SOL    HW241174   1.101   3.144   8.357  0.4009  0.6359  1.1634
45455SOL     OW41175   2.178   6.914   3.019 -0.3106 -0.1658  0.0939
45455SOL    HW141176   2.148   6.976   3.086  2.6473  0.0071  1.4210
45455SOL    HW241177   2.181   6.965   2.938 -0.8244  0.5335  0.5015
45456SOL     OW41178   6.441   5.077   6.059  0.5662  0.5173  0.2675
45456SOL    HW141179   6.367   5.132   6.034  0.0141 -0.1736  0.3525
45456SOL    HW241180   6.479   5.122   6.134 -0.6973  0.1172  1.1909
45457SOL     OW41181   9.461   6.408   1.684 -0.2530  0.0509  0.0231
45457SOL    HW141182   9.521   6.418   1.759  0.3530 -2.0531 -0.1279
45457SOL    HW241183   9.394   6.347   1.714 -1.5801  1.2825 -0.2973
45458SOL     OW41184   5.554   2.555   0.034  0.4061 -0.0203  0.9747
45458SOL    HW141185   5.458   2.555   0.024  0.2356  3.6745  1.2160
45458SOL    HW241186   5.568   2.572   0.127  1.2976  0.4799  0.7509
45459SOL     OW41187   2.754   9.857  11.864  0.2653 -0.6802 -0.3614
45459SOL    HW141188   2.743   9.837  11.772 -0.3467  1.5325 -0.8240
45459SOL    HW241189   2.676   9.908  11.888  1.3625  0.5516  0.8043
45460SOL     OW41190   9.429   4.426   0.896 -0.2496 -0.3741 -0.3600
45460SOL    HW141191   9.377   4.404   0.974  0.6647 -0.9080  0.1146
45460SOL    HW241192   9.499   4.361   0.895  2.0804  1.9634  0.5924
45461SOL     OW41193   7.855   9.689   2.485 -0.4476  0.2646 -0.3593
45461SOL    HW141194   7.771   9.732   2.472 -1.0558 -0.9451 -0.5471
45461SOL    HW241195   7.853   9.658   2.575  0.3012  1.2648  0.0196
45462SOL     OW41196   9.701   8.323   4.004  0.1976  0.2583  0.0308
45462SOL    HW141197   9.611   8.350   3.985  0.4177  2.7703  2.0134
45462SOL    HW241198   9.693   8.263   4.078  0.1542  0.7012  0.3881
45463SOL     OW41199   4.466  12.171  12.233 -0.7469  0.8685  0.4162
45463SOL    HW141200   4.473  12.133  12.146  0.7215  0.7678  0.5381
45463SOL    HW241201   4.435  12.260  12.219 -0.5587  0.8391 -0.2122
45464SOL     OW41202   2.687   8.068   6.953 -0.1984  0.5839  0.3525
45464SOL    HW141203   2.678   8.075   6.858  0.6319 -0.1460  0.1973
45464SOL    HW241204   2.782   8.074   6.968 -0.3355  0.8270  1.1452
45465SOL     OW41205  12.157   4.532   1.788  0.0566 -0.0540  0.2377
45465SOL    HW141206  12.072   4.538   1.745  0.1293 -0.3586  0.0453
45465SOL    HW241207  12.137   4.508   1.878 -0.0826  0.2586  0.2875
45466SOL     OW41208   7.088   6.867  10.211  0.3359 -0.5344 -0.3429
45466SOL    HW141209   7.105   6.961  10.218 -1.2552 -0.0270 -2.3257
45466SOL    HW241210   7.061   6.841  10.300  0.7696  0.8749  0.2294
45467SOL     OW41211   4.228   9.724  11.185 -0.1192 -0.1093  0.0348
45467SOL    HW141212   4.205   9.660  11.253  0.8112 -2.9988 -2.1674
45467SOL    HW241213   4.321   9.711  11.170 -0.1372  1.0254 -1.2553
45468SOL     OW41214  10.790   8.321   7.406  0.2732  0.9452  0.1583
45468SOL    HW141215  10.769   8.408   7.373 -0.3203  1.4867  1.8652
45468SOL    HW241216  10.725   8.304   7.474  1.4920 -0.0543  1.1277
45469SOL     OW41217  12.384   4.862  11.185  0.1409  0.4013  0.3256
45469SOL    HW141218  12.446   4.879  11.113 -0.8915  0.9910 -0.4574
45469SOL    HW241219  12.311   4.818  11.142 -0.9529  1.6876  0.8072
45470SOL     OW41220  10.478   0.206   8.642 -0.1104 -0.0983 -0.7546
45470SOL    HW141221  10.564   0.180   8.675  0.3881 -1.0550 -2.6686
45470SOL    HW241222  10.416   0.175   8.708  1.0171  1.2595  1.0166
45471SOL     OW41223   5.620  10.356   8.418  0.4381 -0.1868  0.0574
45471SOL    HW141224   5.663  10.281   8.459  1.2398  0.3197  0.1649
45471SOL    HW241225   5.634  10.343   8.324  1.3939  0.2994  0.1219
45472SOL     OW41226   8.514   5.414   5.199  0.0179 -0.5543  0.3431
45472SOL    HW141227   8.443   5.472   5.170  0.7345 -0.1453 -0.6722
45472SOL    HW241228   8.488   5.386   5.287  0.5847  2.8915  1.7476
45473SOL     OW41229   7.637  10.162   0.903  0.3506  0.4908 -0.3259
45473SOL    HW141230   7.587  10.243   0.903  1.2237  1.0925  1.7547
45473SOL    HW241231   7.632  10.131   0.993  0.8612 -1.2677 -0.8612
45474SOL     OW41232   6.729   2.832   5.116  0.5858 -0.0763 -0.0466
45474SOL    HW141233   6.824   2.825   5.126  0.4075  0.4595  2.8861
45474SOL    HW241234   6.700   2.881   5.194 -2.0007  0.6645 -1.3606
45475SOL     OW41235   9.824   1.755   9.374  0.6681  0.0087  0.5610
45475SOL    HW141236   9.748   1.696   9.378  0.2124  0.6240  1.7666
45475SOL    HW241237   9.821   1.793   9.287 -0.8042  0.4916  0.7954
45476SOL     OW41238   7.544   6.421   8.998  0.0383  0.5714 -0.7519
45476SOL    HW141239   7.632   6.453   9.017  0.6208 -1.2235 -0.2351
45476SOL    HW241240   7.488   6.463   9.064  0.4289  1.9549 -1.2767
45477SOL     OW41241  11.523   7.309  10.667 -0.3260  0.3853  0.0172
45477SOL    HW141242  11.492   7.378  10.609  0.7848  0.8372 -0.0535
45477SOL    HW241243  11.596   7.348  10.715 -2.2557  0.6346  3.0317
45478SOL     OW41244  11.391   3.897   3.372  0.3471  0.0285 -0.2251
45478SOL    HW141245  11.325   3.911   3.440  0.7032 -0.8358  0.3130
45478SOL    HW241246  11.444   3.977   3.373  0.7911 -0.2569  1.0300
45479SOL     OW41247  11.778   7.961   1.109 -0.4486  0.2217 -0.4124
45479SOL    HW141248  11.724   7.930   1.181 -0.0191  0.9779  0.2563
45479SOL    HW241249  11.867   7.934   1.132 -0.3938 -0.1116 -0.9920
45480SOL     OW41250   7.406   5.275  11.781  0.1392  0.0159 -0.1203
45480SOL    HW141251   7.491   5.255  11.821  1.3787  0.1956 -2.5161
45480SOL    HW241252   7.347   5.208  11.816  1.4938 -0.7416  0.8247
45481SOL     OW41253   6.677   6.651   6.204 -0.5752  0.4190  0.2571
45481SOL    HW141254   6.724   6.706   6.267  3.2831 -2.4013  0.2112
45481SOL    HW241255   6.659   6.708   6.130 -0.4960  2.5182  1.7729
45482SOL     OW41256   7.525   7.905  11.971  0.0109 -0.5192  0.4436
45482SOL    HW141257   7.606   7.855  11.962  1.1039  0.9489  1.5409
45482SOL    HW241258   7.511   7.910  12.065 -0.5505  0.4474  0.3212
45483SOL     OW41259  11.070  11.250   2.631  0.6478 -0.8215 -0.7439
45483SOL    HW141260  11.154  11.244   2.586  0.7764 -3.9552 -0.2663
45483SOL    HW241261  11.018  11.179   2.594 -2.1875  1.4769 -1.5989
45484SOL     OW41262  10.754  12.158   2.342 -0.2349  0.2444 -0.5657
45484SOL    HW141263  10.753  12.214   2.265 -1.5839 -1.7828 -2.1303
45484SOL    HW241264  10.667  12.169   2.381 -1.5391 -2.5089 -2.3728
45485SOL     OW41265   5.126   4.393   6.272 -0.0693  0.5834 -0.1926
45485SOL    HW141266   5.032   4.378   6.264  0.2540 -1.3007 -0.9721
45485SOL    HW241267   5.155   4.334   6.341  0.6034  0.8304 -0.2515
45486SOL     OW41268   6.521   5.296   4.102 -0.2337  0.4474  0.4318
45486SOL    HW141269   6.495   5.282   4.011 -0.7951  0.7847  0.5361
45486SOL    HW241270   6.523   5.209   4.141 -1.2215  0.4089  0.4192
45487SOL     OW41271   7.228   7.770   2.689 -0.6196 -0.5472 -0.9829
45487SOL    HW141272   7.243   7.816   2.607 -3.4997  0.3288 -1.1215
45487SOL    HW241273   7.150   7.812   2.726  0.6863 -0.7420  2.3417
45488SOL     OW41274  10.970   9.756   2.038  0.2840 -0.0086 -0.0412
45488SOL    HW141275  11.047   9.805   2.067  1.0242 -0.7857 -0.6434
45488SOL    HW241276  11.003   9.670   2.014 -0.7924 -0.3918 -0.2250
45489SOL     OW41277   0.623   7.485   8.183  0.2071 -0.0627  0.1665
45489SOL    HW141278   0.554   7.477   8.249 -0.4756 -0.5998 -0.5930
45489SOL    HW241279   0.669   7.566   8.206 -3.3240  2.8084 -1.6486
45490SOL     OW41280   6.688   9.691   0.521 -0.2476 -0.3066  0.5916
45490SOL    HW141281   6.624   9.685   0.592 -1.0106  0.2150 -0.0379
45490SOL    HW241282   6.764   9.735   0.561 -0.6053 -0.1563  1.1188
45491SOL     OW41283  12.043   7.896   4.666  0.6541  0.3582 -0.1157
45491SOL    HW141284  12.010   7.899   4.577  1.7868 -1.5728 -0.6518
45491SOL    HW241285  12.138   7.883   4.656  0.8627  0.5530  1.3677
45492SOL     OW41286   5.576   7.032   6.551  0.0312 -0.0458  0.7290
45492SOL    HW141287   5.585   7.011   6.458 -0.9134 -0.2084  0.6686
45492SOL    HW241288   5.653   7.085   6.571  0.7384 -0.8076  0.0891
45493SOL     OW41289   0.860   6.835   9.402  0.5887  0.5091  0.5293
45493SOL    HW141290   0.863   6.747   9.363 -0.4324 -0.3633  2.2679
45493SOL    HW241291   0.952   6.857   9.417  0.9092  0.1783 -0.7923
45494SOL     OW41292   2.233   8.323   0.364  0.0708 -0.0429  0.5982
45494SOL    HW141293   2.189   8.264   0.303  0.4681 -1.7218  1.8439
45494SOL    HW241294   2.320   8.285   0.374  0.6601  1.2948  0.7724
45495SOL     OW41295   7.154   1.520   5.728  0.0259  0.3416  0.4376
45495SOL    HW141296   7.236   1.550   5.769  0.9115 -0.5591 -0.6070
45495SOL    HW241297   7.140   1.433   5.764  0.1650  0.0246 -0.2706
45496SOL     OW41298   0.532   4.618   2.092  0.0371 -0.2961  0.3451
45496SOL    HW141299   0.470   4.684   2.122 -0.1741 -0.1736 -0.3498
45496SOL    HW241300   0.491   4.579   2.015  1.9482  1.6139 -1.7775
45497SOL     OW41301   9.248  11.437   3.034  0.0486 -0.6501 -0.2138
45497SOL    HW141302   9.282  11.441   2.945  0.8288 -1.8589  0.0111
45497SOL    HW241303   9.171  11.381   3.027  0.3519 -1.0880 -0.0595
45498SOL     OW41304   5.640   7.978   3.997 -0.1268  0.5555  0.2250
45498SOL    HW141305   5.675   8.059   3.958 -0.4673  0.2909 -0.6705
45498SOL    HW241306   5.597   7.934   3.923  1.8253 -1.4446  0.2076
45499SOL     OW41307   4.264   4.012   2.630  0.1071 -0.3584 -0.3985
45499SOL    HW141308   4.307   4.098   2.634  1.4086 -0.9494 -1.2326
45499SOL    HW241309   4.171   4.033   2.621  0.3593  0.9604 -0.2431
45500SOL     OW41310   2.058   2.129   7.964 -0.2144 -0.6499  0.5545
45500SOL    HW141311   2.013   2.063   8.016 -1.4198 -0.6189 -0.4065
45500SOL    HW241312   2.048   2.100   7.874  1.3955 -0.4347  0.2753
45501SOL     OW41313   4.467   7.498  11.697  0.1418 -0.3881 -0.1047
45501SOL    HW141314   4.459   7.458  11.783  0.0972  0.2845  0.2116
45501SOL    HW241315   4.506   7.430  11.642  2.5284 -0.0465  1.0365
45502SOL     OW41316   3.533  11.210   5.664  0.3391 -0.6968 -0.0174
45502SOL    HW141317   3.576  11.222   5.749 -0.0978 -2.6336  0.5294
45502SOL    HW241318   3.492  11.294   5.646  1.8441  0.2753  0.8716
45503SOL     OW41319   9.976   8.737  11.920  0.1754  0.2619  0.7016
45503SOL    HW141320  10.025   8.656  11.934  0.2297  0.4190  1.4834
45503SOL    HW241321  10.031   8.805  11.958  0.5117  0.7954 -0.6871
45504SOL     OW41322   6.797   5.915   2.466 -0.0546 -0.2793 -0.2659
45504SOL    HW141323   6.708   5.896   2.434 -0.2569  0.1944  0.0199
45504SOL    HW241324   6.839   5.960   2.392  0.6413 -2.3351 -1.2059
45505SOL     OW41325   4.912   1.543   7.345  0.3639 -0.4928  0.3725
45505SOL    HW141326   4.885   1.478   7.281  1.0334 -0.4782  0.0760
45505SOL    HW241327   5.006   1.532   7.353  0.8897  1.9246 -1.3558
45506SOL     OW41328   8.436  11.409   5.117 -0.0732 -0.1664 -0.1056
45506SOL    HW141329   8.432  11.376   5.027  1.4438  0.3620 -0.3851
45506SOL    HW241330   8.509  11.361   5.156 -0.1841  0.2330  0.5954
45507SOL     OW41331   2.053   6.156   9.878  0.4590  0.1398  0.1542
45507SOL    HW141332   2.004   6.106   9.943  0.6659 -0.1825  0.0663
45507SOL    HW241333   1.997   6.156   9.801  1.2537 -1.5718 -0.4619
45508SOL     OW41334   5.434   5.569   1.336 -0.0966 -0.4450 -0.0258
45508SOL    HW141335   5.503   5.621   1.377 -0.0349 -0.6836  0.1718
45508SOL    HW241336   5.405   5.623   1.262 -1.8346  1.0811  1.6705
45509SOL     OW41337  10.175   6.772   0.498  0.2743 -0.1961  0.2115
45509SOL    HW141338  10.117   6.794   0.426 -0.0541 -1.5001  0.0527
45509SOL    HW241339  10.118   6.730   0.563  0.7306  0.0956  0.8075
45510SOL     OW41340   2.055   2.373   9.360 -0.8962  0.0817 -0.1657
45510SOL    HW141341   2.121   2.310   9.388 -0.4120 -0.5400 -2.5265
45510SOL    HW241342   1.982   2.359   9.421 -0.7138 -2.6085 -0.4603
45511SOL     OW41343   1.175  10.789   0.681  0.0979  0.1440  0.2102
45511SOL    HW141344   1.242  10.760   0.620  0.2274 -0.0540  0.4463
45511SOL    HW241345   1.217  10.784   0.767  1.3493  4.2950  0.0650
45512SOL     OW41346   1.742   3.591   7.863 -0.1372  0.2143  0.1368
45512SOL    HW141347   1.706   3.583   7.951 -0.6227  0.6041 -0.0178
45512SOL    HW241348   1.812   3.526   7.859 -0.3455 -0.0499  0.6907
45513SOL     OW41349   3.995  12.484   5.697  0.2687  0.4525  0.1187
45513SOL    HW141350   3.921  12.502   5.756 -1.6144  0.6594 -2.1669
45513SOL    HW241351   3.981  12.395   5.667  2.6483 -0.6006  1.8090
45514SOL     OW41352  12.602   4.401   5.265  0.2957  0.1684 -0.1976
45514SOL    HW141353  12.684   4.367   5.229 -0.0318  0.6761 -1.5142
45514SOL    HW241354  12.624   4.432   5.352  1.2912 -0.5391 -0.1881
45515SOL     OW41355   4.626   2.644   3.413  0.1310 -0.1312  0.2123
45515SOL    HW141356   4.635   2.658   3.507 -0.6265  2.3426 -0.0072
45515SOL    HW241357   4.535   2.617   3.401 -0.2610  1.1879  0.0766
45516SOL     OW41358   1.273  10.301   1.223  0.1438  0.3195  0.5311
45516SOL    HW141359   1.308  10.251   1.150  0.2192 -0.0099  0.7920
45516SOL    HW241360   1.344  10.302   1.288  0.4796  1.5164  0.1736
45517SOL     OW41361  12.327   4.253   1.698 -0.1523  0.2643 -0.1149
45517SOL    HW141362  12.335   4.346   1.719  2.2766 -0.0640  0.7249
45517SOL    HW241363  12.299   4.251   1.606  0.6412  1.8382 -0.4192
45518SOL     OW41364   2.064   4.680  10.150 -0.2772  0.6916  0.2132
45518SOL    HW141365   2.103   4.615  10.210 -2.9283 -0.7624  0.5115
45518SOL    HW241366   2.138   4.734  10.122  1.8230 -1.5054  1.1512
45519SOL     OW41367   1.377   6.634   7.103 -0.4665  0.0222 -0.0035
45519SOL    HW141368   1.309   6.648   7.168  1.4661  1.7619  1.8286
45519SOL    HW241369   1.421   6.553   7.130 -0.2584  0.2395  0.3171
45520SOL     OW41370   5.068  10.568   3.822 -0.1173 -0.5425  0.1886
45520SOL    HW141371   5.135  10.619   3.868 -1.3081  0.0751  1.3001
45520SOL    HW241372   5.081  10.478   3.853  1.0510 -0.7009 -0.6652
45521SOL     OW41373   3.190   3.927   7.504  0.7498 -0.2241  0.3529
45521SOL    HW141374   3.235   3.845   7.525  2.1440  0.9110  2.0557
45521SOL    HW241375   3.249   3.972   7.444 -0.8345 -1.1549 -2.0726
45522SOL     OW41376   6.187   0.384   7.982 -0.8456  0.1267  0.4132
45522SOL    HW141377   6.189   0.421   8.070 -3.3201  1.1769  0.1014
45522SOL    HW241378   6.244   0.441   7.930  1.1116 -0.8542  1.3924
45523SOL     OW41379  11.962   5.842   4.044 -0.5755  0.3190  0.3752
45523SOL    HW141380  12.049   5.823   4.080 -0.1440  1.4725 -0.0238
45523SOL    HW241381  11.908   5.858   4.122  0.3610  2.8221  0.6058
45524SOL     OW41382  10.795   9.152   1.526  0.6613  0.1275 -0.4774
45524SOL    HW141383  10.789   9.079   1.588 -0.3196 -0.7718 -1.5944
45524SOL    HW241384  10.731   9.216   1.558  0.2457 -0.2797 -0.4916
45525SOL     OW41385   4.814   0.303   5.490 -0.5225  0.2872 -0.5331
45525SOL    HW141386   4.806   0.391   5.456  0.8975 -0.5706 -3.3769
45525SOL    HW241387   4.744   0.254   5.448 -0.7265 -0.1637  0.2998
45526SOL     OW41388   1.291   5.667   6.605 -0.2249  0.4808 -0.1157
45526SOL    HW141389   1.328   5.581   6.625  1.5223  1.4450  1.1323
45526SOL    HW241390   1.205   5.648   6.568  0.7864 -1.8564 -1.5458
45527SOL     OW41391   9.679   5.963   6.774 -0.3822  0.7424  0.8700
45527SOL    HW141392   9.602   5.927   6.730 -1.4595  2.9249  0.8495
45527SOL    HW241393   9.753   5.911   6.741 -1.3300  1.2205 -2.2755
45528SOL     OW41394  10.576   6.922   5.633  0.3235  0.4125  0.0909
45528SOL    HW141395  10.491   6.966   5.636 -0.5981 -1.2374 -0.3793
45528SOL    HW241396  10.596   6.900   5.724 -0.1876  0.0289  0.1112
45529SOL     OW41397   9.248   0.600  11.968 -0.5148 -0.0946 -0.0718
45529SOL    HW141398   9.162   0.641  11.967 -1.4817 -1.6645  3.5076
45529SOL    HW241399   9.307   0.671  11.994 -1.3369  0.2316  0.9966
45530SOL     OW41400  10.408   8.867   8.976 -0.0408 -0.5010  0.4036
45530SOL    HW141401  10.315   8.857   8.997  0.3834 -2.7613  1.5561
45530SOL    HW241402  10.449   8.889   9.060  0.3662  1.8173 -0.3358
45531SOL     OW41403   2.655   3.826   7.887 -0.2777  0.8156  0.3790
45531SOL    HW141404   2.674   3.881   7.963  0.5574 -0.6002  1.2585
45531SOL    HW241405   2.738   3.782   7.868 -0.3396  1.5230 -1.7145
45532SOL     OW41406   7.253   5.751   0.712 -0.0433 -0.1906 -0.1273
45532SOL    HW141407   7.227   5.797   0.792  1.6435 -0.5493  0.6597
45532SOL    HW241408   7.243   5.658   0.734 -0.9017 -0.2775 -0.8266
45533SOL     OW41409   3.088  10.219   9.593  0.2502  0.0687 -0.4993
45533SOL    HW141410   3.034  10.190   9.519 -0.1533  0.7414 -0.4750
45533SOL    HW241411   3.039  10.190   9.670 -0.3982  1.2056 -0.4652
45534SOL     OW41412   0.260   7.256   4.503 -0.0474  0.2979  0.1538
45534SOL    HW141413   0.257   7.171   4.547 -1.5283  0.5369  0.5773
45534SOL    HW241414   0.318   7.243   4.428  0.8874 -0.6807  1.0214
45535SOL     OW41415   1.116   8.337  11.527 -0.2166 -0.4732 -0.2207
45535SOL    HW141416   1.176   8.410  11.538  0.0427 -0.6243 -0.6120
45535SOL    HW241417   1.051   8.349  11.596  0.7947 -0.8500  0.8246
45536SOL     OW41418   0.892   7.166   7.307 -0.3398  0.3376  0.3257
45536SOL    HW141419   0.902   7.260   7.290  1.6609  0.3763  1.4094
45536SOL    HW241420   0.835   7.161   7.384  0.4913  0.7379  0.9804
45537SOL     OW41421   2.712   8.940   4.405 -0.3753 -0.2932  0.0070
45537SOL    HW141422   2.637   8.995   4.427 -0.7353 -0.8820  0.2889
45537SOL    HW241423   2.756   8.986   4.333 -1.0992 -0.0186 -0.2684
45538SOL     OW41424   3.722   0.717   2.280 -0.2579 -0.2414  0.4836
45538SOL    HW141425   3.634   0.749   2.261 -0.5092 -1.0899  0.1434
45538SOL    HW241426   3.743   0.751   2.367 -0.8735  0.0716  0.5086
45539SOL     OW41427   1.091   1.447   5.775 -0.5239  0.3570 -0.1746
45539SOL    HW141428   1.079   1.535   5.812 -1.7667 -0.0534  0.4475
45539SOL    HW241429   1.035   1.446   5.697 -1.7679 -0.3885  0.7070
45540SOL     OW41430   5.244   2.036   6.945 -0.4437  0.3396  0.5200
45540SOL    HW141431   5.316   2.026   7.008 -1.1143 -1.2558  1.0940
45540SOL    HW241432   5.167   2.008   6.994 -1.0292 -0.6695 -0.9123
45541SOL     OW41433   5.771   9.688   7.140  0.4064  0.4573  0.0062
45541SOL    HW141434   5.862   9.670   7.164 -0.3540 -1.9756  1.4827
45541SOL    HW241435   5.728   9.706   7.223 -0.8894 -0.6970 -0.3851
45542SOL     OW41436   7.713   5.525   3.053 -0.0701  0.5098 -0.3719
45542SOL    HW141437   7.764   5.481   2.985  0.5753  1.2614 -0.3995
45542SOL    HW241438   7.633   5.554   3.008  0.8262  1.9607 -1.1284
45543SOL     OW41439   4.521   4.839  11.288 -0.3222  0.5936 -0.6058
45543SOL    HW141440   4.491   4.762  11.241 -2.3172  0.9737 -0.0254
45543SOL    HW241441   4.578   4.884  11.226  0.6250 -1.1430 -1.0645
45544SOL     OW41442   3.799   2.260   0.955 -0.0203  0.0154  0.0296
45544SOL    HW141443   3.820   2.298   1.040 -0.7110 -0.0815  0.2551
45544SOL    HW241444   3.736   2.190   0.976  0.3889 -0.5135 -0.4848
45545SOL     OW41445   4.779   1.177   0.121 -0.1346 -0.2846 -0.1546
45545SOL    HW141446   4.846   1.155   0.056  0.0777 -1.4480  0.4353
45545SOL    HW241447   4.828   1.218   0.192 -0.3287  0.7254 -0.5963
45546SOL     OW41448   5.272   0.294  12.558  0.1796  0.4765  0.2761
45546SOL    HW141449   5.266   0.366  12.496 -0.7860  0.9629  0.9132
45546SOL    HW241450   5.366   0.273  12.561  0.5990  2.2187  0.6686
45547SOL     OW41451   6.522  12.015  11.424 -0.1073  0.2245  0.1986
45547SOL    HW141452   6.607  12.047  11.454 -0.9948  2.6954  0.3317
45547SOL    HW241453   6.511  12.055  11.337 -1.0251 -0.2589  0.0817
45548SOL     OW41454  12.376   6.160   4.342  0.4872 -0.0913 -0.1841
45548SOL    HW141455  12.422   6.078   4.358 -0.1371 -0.6406 -1.1404
45548SOL    HW241456  12.415   6.195   4.262 -0.3007 -0.2242 -0.6274
45549SOL     OW41457  10.132  11.904   3.881  0.3622  0.2703 -0.0984
45549SOL    HW141458  10.091  11.847   3.945  0.0972  0.6459  0.0739
45549SOL    HW241459  10.176  11.971   3.933  0.4673  0.3589 -0.3002
45550SOL     OW41460   1.804   2.373   1.126 -0.3506 -0.2096 -0.1635
45550SOL    HW141461   1.872   2.358   1.060 -0.4670 -0.4998 -0.2216
45550SOL    HW241462   1.722   2.368   1.076 -0.3806  1.3491 -0.3207
45551SOL     OW41463  11.156   1.743   3.623 -0.0763 -0.1651 -0.5353
45551SOL    HW141464  11.142   1.667   3.567 -0.2226  0.1475 -0.9259
45551SOL    HW241465  11.204   1.709   3.698 -0.8262 -0.7976 -0.3273
45552SOL     OW41466   3.961   5.901   0.639  0.2576  0.3062  0.1153
45552SOL    HW141467   4.053   5.912   0.664 -0.0847  0.7441  1.2286
45552SOL    HW241468   3.941   5.810   0.662  0.8256 -0.2706 -1.5629
45553SOL     OW41469  11.208   6.146   9.250 -0.1696 -0.5458 -0.3068
45553SOL    HW141470  11.134   6.180   9.200 -1.3395  0.9538  2.2320
45553SOL    HW241471  11.200   6.051   9.243 -1.3527 -0.3892 -1.4191
45554SOL     OW41472   2.406  12.131   9.926  0.7120  0.1743 -0.2489
45554SOL    HW141473   2.395  12.157  10.017 -0.5884 -1.5507  0.1358
45554SOL    HW241474   2.386  12.037   9.925 -1.6574  0.5681 -2.6511
45555SOL     OW41475   4.794   3.082   2.569 -0.1311 -0.1728  0.3069
45555SOL    HW141476   4.757   3.055   2.653 -1.3637  0.5319  0.0084
45555SOL    HW241477   4.791   3.004   2.515  0.4334 -0.5645  0.8320
45556SOL     OW41478   3.459   8.590  11.825  0.1727  0.7693  0.2683
45556SOL    HW141479   3.548   8.563  11.848 -0.2027 -1.8114 -0.9457
45556SOL    HW241480   3.450   8.677  11.863  2.3636  0.1180  2.5722
45557SOL     OW41481   6.291   8.522   7.789 -0.1685  0.6640  0.8263
45557SOL    HW141482   6.380   8.488   7.800 -0.7986 -1.0787  0.7999
45557SOL    HW241483   6.237   8.469   7.847 -1.4781  0.4049 -0.5575
45558SOL     OW41484   9.098  11.325   8.765 -0.5596 -0.6870  0.0839
45558SOL    HW141485   9.097  11.241   8.719  2.2838  0.0318 -1.5068
45558SOL    HW241486   9.128  11.303   8.853  1.8524 -1.2164 -0.8117
45559SOL     OW41487  12.312  11.701   4.220 -0.4458  0.5298 -0.1691
45559SOL    HW141488  12.289  11.794   4.223  0.8405  0.8702 -0.5047
45559SOL    HW241489  12.361  11.686   4.301 -2.0424 -0.2733  0.7080
45560SOL     OW41490   2.927   2.310   0.435 -0.2136  0.4843  0.5928
45560SOL    HW141491   2.990   2.289   0.504 -0.8272  1.4113  1.4722
45560SOL    HW241492   2.856   2.356   0.481 -2.2571 -1.7815 -0.0925
45561SOL     OW41493   9.875   2.277   5.622  0.1082 -0.0176 -0.2480
45561SOL    HW141494   9.792   2.241   5.590  0.1998 -0.4588  0.0158
45561SOL    HW241495   9.921   2.203   5.660  0.0298  0.4966  0.8658
45562SOL     OW41496  10.626   9.801  10.067 -0.3602 -0.2073 -0.3236
45562SOL    HW141497  10.639   9.868   9.999  0.2381 -1.2957 -1.3272
45562SOL    HW241498  10.715   9.774  10.090 -0.5931 -2.1300 -1.4752
45563SOL     OW41499   8.689  12.020   3.768 -0.3736 -0.3682  0.7599
45563SOL    HW141500   8.783  12.026   3.750 -0.7634  0.7884 -1.2479
45563SOL    HW241501   8.677  12.068   3.850  0.9129 -1.5706  1.6896
45564SOL     OW41502   5.140  11.865   6.102  0.0460 -0.1874 -0.2433
45564SOL    HW141503   5.121  11.845   6.010 -0.9086  0.2499 -0.1555
45564SOL    HW241504   5.142  11.780   6.145 -1.2475 -0.3022 -0.3652
45565SOL     OW41505   2.304   7.168   0.987 -0.1617 -0.3550  1.3224
45565SOL    HW141506   2.219   7.190   1.027  1.0287 -0.4067  4.0714
45565SOL    HW241507   2.288   7.087   0.939 -1.5107 -0.7961  2.4508
45566SOL     OW41508   1.748   3.696   3.636  0.1186  0.1184 -0.1970
45566SOL    HW141509   1.823   3.754   3.643 -0.5749  1.2650 -1.7867
45566SOL    HW241510   1.677   3.743   3.680  0.1460 -0.6559  0.7008
45567SOL     OW41511   6.322   7.491   2.215  0.1521  0.5134 -0.5948
45567SOL    HW141512   6.271   7.451   2.285 -2.0146  2.9490 -0.6487
45567SOL    HW241513   6.320   7.427   2.144  0.0768 -0.8438  0.5844
45568SOL     OW41514   9.525   9.956   8.573 -0.2894 -0.8135  0.2698
45568SOL    HW141515   9.608   9.912   8.593 -1.0768 -1.7934  1.4986
45568SOL    HW241516   9.500   9.922   8.487  0.1614 -1.1680  0.2760
45569SOL     OW41517   1.149   9.541  10.904 -0.7893  0.6065  0.6795
45569SOL    HW141518   1.217   9.592  10.948  1.4509 -1.5794 -0.0764
45569SOL    HW241519   1.174   9.543  10.811  0.3225 -2.9907  0.7592
45570SOL     OW41520   8.949   7.831   9.070  0.3107 -0.1148  0.4402
45570SOL    HW141521   8.884   7.818   9.001  0.1815 -0.1486  0.5669
45570SOL    HW241522   8.941   7.754   9.126 -0.7682  0.6946  1.4467
45571SOL     OW41523  10.007   7.458   1.691 -0.3362 -0.5762  0.0316
45571SOL    HW141524   9.919   7.430   1.666 -0.5977 -0.1238  0.4399
45571SOL    HW241525   9.993   7.531   1.750  0.3437  0.7110 -1.3298
45572SOL     OW41526   2.656   0.452   7.948 -0.0456 -0.2384  0.2559
45572SOL    HW141527   2.620   0.369   7.916 -0.1754  0.2097 -0.8239
45572SOL    HW241528   2.625   0.460   8.038 -1.4497 -0.5462 -0.1896
45573SOL     OW41529  11.111   4.178   2.234  0.3925  0.1578  0.0468
45573SOL    HW141530  11.042   4.167   2.169 -0.4386  0.6229  0.8161
45573SOL    HW241531  11.138   4.089   2.257 -0.6339 -0.0735  0.4233
45574SOL     OW41532   5.810   2.229   0.691  0.6625  0.1904  0.6803
45574SOL    HW141533   5.775   2.148   0.730  1.2854 -0.0502  0.7482
45574SOL    HW241534   5.787   2.298   0.753  3.7303 -0.4939  2.7721
45575SOL     OW41535   3.481  12.472   0.903  0.0935  0.2202  0.0144
45575SOL    HW141536   3.399  12.444   0.943 -0.2116 -0.1581 -0.8627
45575SOL    HW241537   3.465  12.562   0.875  0.5709  0.7724  1.4409
45576SOL     OW41538  11.105   6.671  11.244 -0.1095  0.4395  0.2267
45576SOL    HW141539  11.198   6.686  11.258 -0.2988 -0.0347  2.2135
45576SOL    HW241540  11.096   6.577  11.234 -0.3453  0.5188 -0.3941
45577SOL     OW41541   1.868   3.163  11.177 -0.0563  0.0862  0.3880
45577SOL    HW141542   1.810   3.191  11.107 -0.2682 -0.5351  0.3085
45577SOL    HW241543   1.811   3.154  11.253  0.0089 -0.1124  0.4148
45578SOL     OW41544   0.758   6.538   3.805 -0.4930  0.5539 -0.2910
45578SOL    HW141545   0.701   6.476   3.851  0.2816  0.8518  1.1570
45578SOL    HW241546   0.821   6.483   3.758 -0.5613  0.2339 -0.0107
45579SOL     OW41547   0.730   4.095   6.952  0.3605 -0.9662 -0.2406
45579SOL    HW141548   0.822   4.101   6.929  0.5886  0.9573  0.9755
45579SOL    HW241549   0.686   4.073   6.869  1.8512 -1.7869 -0.8563
45580SOL     OW41550   2.995   9.237  11.477 -0.0746  0.3202  0.3784
45580SOL    HW141551   3.008   9.331  11.466  1.6801  0.0001 -0.5647
45580SOL    HW241552   3.058   9.211  11.544  0.5745 -0.4096 -0.4794
45581SOL     OW41553   8.157   5.366   4.910 -0.0878 -0.5184  0.4061
45581SOL    HW141554   8.090   5.298   4.905 -0.2792 -0.2710 -2.1998
45581SOL    HW241555   8.187   5.375   4.819  3.7590 -0.8758  1.4801
45582SOL     OW41556   4.654  10.684  11.129 -0.0541  0.5223 -0.2305
45582SOL    HW141557   4.722  10.654  11.190  0.8174 -0.8470 -1.7689
45582SOL    HW241558   4.572  10.661  11.172  0.4791  0.8047  0.9962
45583SOL     OW41559   4.999   1.637   8.817  0.0374 -0.1174  0.3037
45583SOL    HW141560   4.999   1.586   8.898 -0.9073 -0.2310  0.2328
45583SOL    HW241561   4.909   1.668   8.807 -0.6136 -2.3949 -2.1569
45584SOL     OW41562   6.750   7.297   0.112 -0.7074  0.1798  0.2488
45584SOL    HW141563   6.756   7.314   0.018 -0.6476 -0.5660  0.1094
45584SOL    HW241564   6.765   7.382   0.153  0.7177  0.2484 -0.3739
45585SOL     OW41565   9.015   2.113   0.465  0.0510  0.1203  0.3360
45585SOL    HW141566   9.004   2.208   0.473  1.3385  0.3327 -0.0903
45585SOL    HW241567   8.929   2.080   0.440  0.0563  1.4414 -1.6461
45586SOL     OW41568   4.832   8.431   5.662  0.4487 -0.6177 -0.6339
45586SOL    HW141569   4.915   8.387   5.679  1.0721  1.4509  2.6375
45586SOL    HW241570   4.766   8.363   5.675  1.5237 -1.6224 -0.2911
45587SOL     OW41571   0.400   3.747   6.273  0.8842  0.1451  0.1783
45587SOL    HW141572   0.408   3.687   6.199  0.9280 -1.8872  1.7313
45587SOL    HW241573   0.490   3.760   6.303  0.7200 -0.6326  1.0418
45588SOL     OW41574   8.931   4.540  11.830  0.0770  0.3015 -0.2251
45588SOL    HW141575   8.917   4.600  11.757 -2.6226  0.6080  0.4595
45588SOL    HW241576   8.907   4.589  11.908 -2.2538 -1.5828  0.3630
45589SOL     OW41577   5.887   4.562   1.082  0.3188 -0.1800 -0.4187
45589SOL    HW141578   5.931   4.532   1.003 -0.9200  0.9280 -1.5933
45589SOL    HW241579   5.917   4.503   1.151  2.5959 -0.2679 -1.3891
45590SOL     OW41580   1.505   7.560  11.151 -0.0424  0.2450 -0.1092
45590SOL    HW141581   1.461   7.622  11.093 -0.6871 -1.4536 -1.5176
45590SOL    HW241582   1.598   7.571  11.132 -0.2471 -0.3813 -1.6243
45591SOL     OW41583   3.874   9.222  11.833 -0.5852 -0.0219  0.2063
45591SOL    HW141584   3.954   9.270  11.854 -0.2495 -1.8371  3.7499
45591SOL    HW241585   3.902   9.131  11.825 -2.3269 -0.7965  2.2230
45592SOL     OW41586   4.989   0.261   2.109 -0.4394 -0.4810  0.6705
45592SOL    HW141587   4.949   0.175   2.120 -1.8704  0.1757  0.9010
45592SOL    HW241588   5.062   0.262   2.171  0.8884 -2.2368 -0.7719
45593SOL     OW41589   6.488   4.584   2.669  0.0466 -0.0172 -0.1750
45593SOL    HW141590   6.430   4.513   2.698  1.0781 -0.8284 -0.0581
45593SOL    HW241591   6.430   4.644   2.622 -0.9657 -0.5975  0.2907
45594SOL     OW41592   7.376   8.279  10.760  0.1236 -0.3667 -0.1933
45594SOL    HW141593   7.381   8.252  10.852  1.8049  0.5092  0.0118
45594SOL    HW241594   7.285   8.263  10.735 -0.0543 -1.8627  1.2278
45595SOL     OW41595   5.552   5.170   4.075 -0.0429 -0.3681  0.1386
45595SOL    HW141596   5.511   5.256   4.090  0.2453 -0.1360 -0.3922
45595SOL    HW241597   5.478   5.111   4.062 -0.2441 -0.2001  0.4785
45596SOL     OW41598  12.425   5.525   7.148  0.6779 -0.1449  0.3708
45596SOL    HW141599  12.399   5.606   7.191 -4.5200 -0.5359 -1.2430
45596SOL    HW241600  12.409   5.457   7.213  1.4081 -0.1574  0.5445
45597SOL     OW41601  11.640   1.328   0.560 -0.6984 -0.5030 -0.0041
45597SOL    HW141602  11.630   1.414   0.519  0.4136 -0.8308 -1.0004
45597SOL    HW241603  11.697   1.344   0.636 -0.8374 -0.2950  0.0575
45598SOL     OW41604  10.353   5.996   1.164  0.6876 -0.1156  0.1495
45598SOL    HW141605  10.403   6.012   1.244  0.1005 -1.3659  0.8027
45598SOL    HW241606  10.265   6.028   1.185  0.2757 -1.3538  0.3925
45599SOL     OW41607   9.230   4.749   6.507 -0.1743 -0.3543  0.2281
45599SOL    HW141608   9.228   4.654   6.520  0.5709 -0.4060  0.0291
45599SOL    HW241609   9.147   4.769   6.465 -1.6551 -0.5188  2.8392
45600SOL     OW41610   0.248   6.622   5.374 -0.4684  0.1007 -0.2622
45600SOL    HW141611   0.322   6.680   5.385  0.0507 -0.2618 -1.6065
45600SOL    HW241612   0.285   6.534   5.378 -1.0699 -0.1345  0.5808
45601SOL     OW41613  10.147   3.887  10.153 -0.0761  0.1397  0.3392
45601SOL    HW141614  10.071   3.839  10.186 -0.9252 -0.5324 -2.3568
45601SOL    HW241615  10.109   3.964  10.110  0.6920 -0.3716 -1.3226
45602SOL     OW41616   6.493   9.055  11.963 -0.0795  0.2245  0.2945
45602SOL    HW141617   6.516   9.124  11.901  1.8796 -0.8778 -0.2858
45602SOL    HW241618   6.401   9.035  11.944  0.1611  0.6764 -1.5304
45603SOL     OW41619   6.812   5.169   6.794 -0.3451  0.2324  0.6920
45603SOL    HW141620   6.763   5.102   6.745  0.3055  0.3996 -0.2074
45603SOL    HW241621   6.757   5.247   6.789 -0.9415 -0.1268  1.4439
45604SOL     OW41622   4.468   8.011   6.132 -0.7091  0.2772  0.1558
45604SOL    HW141623   4.523   7.981   6.204  1.2324 -1.0747 -1.7294
45604SOL    HW241624   4.389   7.957   6.138 -0.0396 -0.6896  0.5795
45605SOL     OW41625   4.133   5.728   7.612  0.8575 -0.0864 -0.4359
45605SOL    HW141626   4.105   5.807   7.566 -0.2556  0.1562  0.6128
45605SOL    HW241627   4.139   5.754   7.704  1.2567 -1.0169 -0.1830
45606SOL     OW41628  12.492   8.960  12.060 -0.8304  0.0992 -0.1779
45606SOL    HW141629  12.465   9.049  12.082  0.0801  0.6205 -1.0937
45606SOL    HW241630  12.452   8.905  12.128 -1.6263  1.1662  0.2400
45607SOL     OW41631   8.726   9.650  11.608 -0.4272  0.2219  0.1007
45607SOL    HW141632   8.640   9.691  11.612 -1.3568 -1.6797  0.7780
45607SOL    HW241633   8.721   9.592  11.531  0.3557  0.3226 -0.0335
45608SOL     OW41634   1.443   6.451   0.390  0.2415  0.3059 -0.0780
45608SOL    HW141635   1.507   6.396   0.437  0.4491  0.1530 -0.5347
45608SOL    HW241636   1.372   6.463   0.453  1.7233  2.4033  1.3088
45609SOL     OW41637  10.945   1.586   0.725 -0.3959  0.7948  0.2949
45609SOL    HW141638  10.893   1.662   0.700  0.2829  1.3171  0.4488
45609SOL    HW241639  11.022   1.623   0.768  0.8512  0.0984 -1.2716
45610SOL     OW41640   2.748   5.485   0.521 -0.8884 -0.0413 -0.2452
45610SOL    HW141641   2.748   5.392   0.500  1.8320 -0.3931  0.9076
45610SOL    HW241642   2.780   5.528   0.442 -0.1563 -0.3298 -0.1156
45611SOL     OW41643  12.393   4.686   0.454 -0.0522  0.0485 -0.3965
45611SOL    HW141644  12.385   4.740   0.376  1.6673 -0.5721 -1.0418
45611SOL    HW241645  12.462   4.727   0.506 -0.9665  0.2778  0.6846
45612SOL     OW41646   7.881  11.440   3.966 -0.1496 -0.3194  0.8493
45612SOL    HW141647   7.813  11.447   4.033  0.0323 -0.6774  1.0702
45612SOL    HW241648   7.963  11.440   4.015  0.0044 -0.0209  0.5903
45613SOL     OW41649   9.697   1.131   0.134  0.9794  0.3436  0.1873
45613SOL    HW141650   9.670   1.043   0.107 -0.5345  1.2650 -1.6428
45613SOL    HW241651   9.787   1.121   0.164  1.4095 -1.5729 -1.5064
45614SOL     OW41652   4.758  12.402   8.312  0.5454  0.5974 -0.1324
45614SOL    HW141653   4.757  12.340   8.385 -1.1823  0.1647 -0.4667
45614SOL    HW241654   4.710  12.357   8.242  2.1843  0.9925 -1.5645
45615SOL     OW41655   5.669   6.556  10.001  0.6349 -0.2656 -0.1368
45615SOL    HW141656   5.675   6.626   9.936  1.4018  0.6917  0.9224
45615SOL    HW241657   5.750   6.563  10.051 -1.6319  1.9323  3.7351
45616SOL     OW41658   0.542   3.932   1.593 -0.3919 -0.3325 -0.0527
45616SOL    HW141659   0.521   3.881   1.514  0.6002  1.4505 -1.5503
45616SOL    HW241660   0.606   3.996   1.563  1.9475 -1.1503  2.7903
45617SOL     OW41661   3.266   7.450   9.224  0.0043  0.6362 -0.3009
45617SOL    HW141662   3.213   7.460   9.145  1.0251  0.3072 -1.0543
45617SOL    HW241663   3.283   7.356   9.229  2.9485  0.9601 -1.7871
45618SOL     OW41664   8.630   5.337   9.553 -0.2542  0.2200  0.6385
45618SOL    HW141665   8.626   5.327   9.648 -0.5707  0.5816  0.6664
45618SOL    HW241666   8.560   5.280   9.520  1.1982 -1.5750  0.4776
45619SOL     OW41667   2.084   3.639   0.561  0.0244  0.1300 -0.2874
45619SOL    HW141668   2.105   3.595   0.479  1.5499 -1.0345  0.6802
45619SOL    HW241669   2.141   3.715   0.563 -0.5343  0.5689 -0.6155
45620SOL     OW41670   6.136   0.943   7.783 -0.3769 -0.2762  0.2008
45620SOL    HW141671   6.056   0.994   7.791 -0.2839  0.1659 -1.3919
45620SOL    HW241672   6.206   1.005   7.805 -0.4539 -0.9190  2.5999
45621SOL     OW41673  10.477   7.189   6.057  0.0639 -0.4139 -0.2455
45621SOL    HW141674  10.480   7.098   6.085  1.1260 -0.9466 -1.9198
45621SOL    HW241675  10.404   7.193   5.996  1.8020 -0.9615 -2.5238
45622SOL     OW41676   6.003   8.914   5.233 -0.4061 -0.1948 -0.2531
45622SOL    HW141677   5.910   8.927   5.213 -0.0963  1.2121 -0.9153
45622SOL    HW241678   6.029   8.838   5.181 -0.7399  0.5978 -1.6290
45623SOL     OW41679   0.952   8.017   1.704 -0.4900 -0.8220 -0.3801
45623SOL    HW141680   0.928   8.009   1.796  1.0748 -1.7887 -0.0221
45623SOL    HW241681   0.993   8.104   1.698  0.2961 -1.1519  0.0684
45624SOL     OW41682   6.400  10.204   9.964  0.1108 -0.5077 -0.6153
45624SOL    HW141683   6.331  10.225   9.901 -0.4517 -1.0220 -0.1830
45624SOL    HW241684   6.481  10.226   9.919 -0.3834  2.4938 -0.2552
45625SOL     OW41685  11.313   7.533  11.858 -0.1839 -0.2200  0.6007
45625SOL    HW141686  11.396   7.487  11.855 -0.2489 -0.2976 -0.0918
45625SOL    HW241687  11.294   7.543  11.951 -0.3322 -1.8705  0.7675
45626SOL     OW41688   0.493   7.115   7.270 -0.5016 -0.6605 -0.6944
45626SOL    HW141689   0.405   7.078   7.268 -0.9475  0.3573 -0.4614
45626SOL    HW241690   0.529   7.095   7.184 -0.9720 -1.0572 -0.8020
45627SOL     OW41691  10.534   1.833   4.455 -0.3713 -0.3314 -0.3584
45627SOL    HW141692  10.530   1.757   4.396 -1.0919  0.8170 -1.8606
45627SOL    HW241693  10.626   1.840   4.479 -0.1652 -1.1797 -0.8459
45628SOL     OW41694   5.144  11.413  11.704  0.2156  0.4724 -0.0248
45628SOL    HW141695   5.188  11.332  11.676  1.1972  0.3336  1.7870
45628SOL    HW241696   5.163  11.419  11.797 -3.2515  0.7045  0.7762
45629SOL     OW41697   9.123   2.562   5.236 -0.8775 -0.0881  0.1731
45629SOL    HW141698   9.134   2.647   5.279 -0.0001 -0.7081  1.2290
45629SOL    HW241699   9.132   2.581   5.142 -1.6446  1.1152  0.3162
45630SOL     OW41700  10.171   3.096   3.685 -0.2611 -0.3425  0.1515
45630SOL    HW141701  10.212   3.011   3.701 -0.4966 -0.2453  1.3664
45630SOL    HW241702  10.079   3.083   3.708 -0.0453  0.5736  1.6655
45631SOL     OW41703  10.196   5.351  10.678  0.1122 -0.6271 -0.0003
45631SOL    HW141704  10.277   5.301  10.667  1.1084  1.2022 -1.4592
45631SOL    HW241705  10.212   5.408  10.752 -0.4027 -1.2312  0.5966
45632SOL     OW41706   3.795   1.652  11.961 -0.1164 -0.4541  0.4478
45632SOL    HW141707   3.710   1.610  11.974 -1.5596  2.3345  0.9785
45632SOL    HW241708   3.806   1.706  12.040  0.5641  1.6905 -1.0353
45633SOL     OW41709   0.642   3.915   8.387  0.0629 -0.1749 -0.2336
45633SOL    HW141710   0.687   3.939   8.468 -2.1995  0.4231  0.9368
45633SOL    HW241711   0.590   3.838   8.411  2.0565 -2.2627 -2.1482
45634SOL     OW41712   5.197  12.087  11.116  0.0260 -0.4947  0.3715
45634SOL    HW141713   5.197  12.183  11.114  0.2767 -0.4844  0.8131
45634SOL    HW241714   5.107  12.063  11.092  0.9478 -0.2866 -4.1772
45635SOL     OW41715  12.456  12.639   3.934  0.1233  0.8648  0.8741
45635SOL    HW141716  12.543  12.670   3.961  1.6729 -2.0980 -0.3360
45635SOL    HW241717  12.461  12.632   3.839 -1.2329  0.0104  0.8390
45636SOL     OW41718   5.077   9.906   1.051 -0.9173 -0.1071  0.5255
45636SOL    HW141719   5.132   9.878   1.124  0.0282 -0.0517 -0.1408
45636SOL    HW241720   4.999   9.851   1.057 -1.4355  0.7679  2.3123
45637SOL     OW41721  12.397   2.901   4.997 -0.0097  0.2188  0.0119
45637SOL    HW141722  12.339   2.827   4.979  0.7100 -0.5935  0.9692
45637SOL    HW241723  12.374   2.965   4.930 -0.0819 -1.1713 -1.3417
45638SOL     OW41724   4.586  12.627   4.457 -0.0941 -0.6575  0.1127
45638SOL    HW141725   4.533  12.608   4.534 -2.2504  0.4134 -1.0012
45638SOL    HW241726   4.566  12.719   4.437 -0.0028 -1.0492 -1.9840
45639SOL     OW41727   0.531   7.647   0.526  0.4119  0.1614  0.1092
45639SOL    HW141728   0.441   7.614   0.520  0.7539 -1.2874  2.0504
45639SOL    HW241729   0.573   7.619   0.445 -0.7272  0.4030 -0.5847
45640SOL     OW41730  10.243   0.890   4.175 -0.3126  0.4549 -0.4267
45640SOL    HW141731  10.320   0.844   4.209  0.0909  2.8265  2.2170
45640SOL    HW241732  10.279   0.966   4.129 -1.0396  0.3423 -1.2016
45641SOL     OW41733   9.806   2.095   6.562  0.4558  0.2877 -0.0598
45641SOL    HW141734   9.714   2.074   6.581  0.4475  1.5548  1.4153
45641SOL    HW241735   9.810   2.096   6.466 -0.8385 -0.7039 -0.1628
45642SOL     OW41736  10.878   2.714   5.614  0.1665  0.4334 -0.0887
45642SOL    HW141737  10.855   2.712   5.521 -0.4833 -0.9106  0.0799
45642SOL    HW241738  10.973   2.710   5.616  0.1431 -1.9619 -0.6927
45643SOL     OW41739   8.729   2.478   0.879  0.4275  0.6843  1.1213
45643SOL    HW141740   8.805   2.528   0.849  2.2582 -2.1091  0.6927
45643SOL    HW241741   8.672   2.473   0.802  0.7361  1.1828  0.8541
45644SOL     OW41742  10.994   8.751   6.838  0.5225 -0.4799 -0.1591
45644SOL    HW141743  10.998   8.683   6.771  0.8265 -1.0673  0.4459
45644SOL    HW241744  10.949   8.710   6.911  0.9942 -0.1306  0.3348
45645SOL     OW41745   7.416   9.211   4.537 -0.4078  1.0142  0.0557
45645SOL    HW141746   7.506   9.219   4.505  1.4091 -1.3193  3.8395
45645SOL    HW241747   7.405   9.284   4.598 -0.1488 -0.0030  1.3568
45646SOL     OW41748   5.834  12.258   0.190  0.0196 -0.6081  0.1110
45646SOL    HW141749   5.874  12.338   0.225 -0.4872 -0.3681  0.1490
45646SOL    HW241750   5.755  12.246   0.242 -0.4234 -0.5880 -0.5435
45647SOL     OW41751   0.240   9.428   6.772  0.0655  0.0726  0.9183
45647SOL    HW141752   0.199   9.482   6.705  0.1073 -2.8708 -1.6734
45647SOL    HW241753   0.175   9.361   6.793  0.5343  0.1945  2.9432
45648SOL     OW41754   1.361  10.675   7.928  0.3320  0.1104 -0.2566
45648SOL    HW141755   1.319  10.604   7.978 -1.3885 -0.0448 -1.8065
45648SOL    HW241756   1.409  10.630   7.858 -1.0500  0.4054 -1.4578
45649SOL     OW41757   9.261   6.520   9.405  0.1651  0.0753  0.5654
45649SOL    HW141758   9.181   6.505   9.355  0.5215 -1.2926  0.3510
45649SOL    HW241759   9.315   6.575   9.348  0.5222 -1.3782 -0.5696
45650SOL     OW41760   0.829  10.522   4.934 -0.1889  0.2872 -0.8378
45650SOL    HW141761   0.803  10.612   4.953 -0.4682  0.0045  0.1830
45650SOL    HW241762   0.919  10.516   4.965  0.0295  0.3668 -1.4373
45651SOL     OW41763  12.562   5.958   7.224  0.1866  0.1468  0.3940
45651SOL    HW141764  12.606   5.874   7.212 -1.1188 -0.5794  0.4212
45651SOL    HW241765  12.622   6.023   7.187  1.0072 -0.8473 -0.0620
45652SOL     OW41766   1.175   0.313   1.906 -0.2873  0.1139 -0.2360
45652SOL    HW141767   1.112   0.384   1.920 -0.6795 -0.3100  0.2041
45652SOL    HW241768   1.206   0.326   1.817 -0.8444  0.4584 -0.3874
45653SOL     OW41769   7.514   7.896   4.504 -0.0666  0.2315 -0.2727
45653SOL    HW141770   7.597   7.851   4.524  0.2291  1.4165  1.3490
45653SOL    HW241771   7.449   7.851   4.557  0.3352  1.9932  1.8421
45654SOL     OW41772   3.206   2.064   0.153 -0.1677 -0.4608  0.5722
45654SOL    HW141773   3.252   2.049   0.236  1.6946 -1.7009 -0.6261
45654SOL    HW241774   3.183   1.977   0.121  0.9402 -0.1657 -1.1631
45655SOL     OW41775   0.179   8.567   2.485 -0.2152  0.3562  0.1058
45655SOL    HW141776   0.153   8.644   2.537 -0.8553 -1.2987  2.3753
45655SOL    HW241777   0.266   8.545   2.517  0.0354  0.2220 -0.6649
45656SOL     OW41778   1.256   1.855   5.873  0.0737  0.1920  0.6528
45656SOL    HW141779   1.292   1.855   5.785  0.7063  0.2698  0.9082
45656SOL    HW241780   1.322   1.900   5.926 -0.8151  1.1884  0.9587
45657SOL     OW41781   0.111   5.250   4.944 -0.3160 -0.8616  0.1480
45657SOL    HW141782   0.107   5.276   4.852 -0.9125 -0.6740  0.2220
45657SOL    HW241783   0.198   5.211   4.954 -0.5997 -1.7727 -0.7408
45658SOL     OW41784   3.012   4.845  11.461 -0.4390 -0.0758 -0.2599
45658SOL    HW141785   3.013   4.939  11.448  0.9672 -0.0425 -0.1053
45658SOL    HW241786   2.921   4.824  11.483 -0.2865  1.6782  2.5970
45659SOL     OW41787   5.672  12.348   9.610  0.3051  0.0403 -0.4419
45659SOL    HW141788   5.768  12.349   9.605  0.4734 -1.1897  1.5108
45659SOL    HW241789   5.650  12.255   9.623 -1.2457  0.1618 -1.9288
45660SOL     OW41790  11.333   0.455   9.932  0.2862 -0.0782 -0.3549
45660SOL    HW141791  11.427   0.441   9.916  0.2375  1.2270 -2.0638
45660SOL    HW241792  11.290   0.408   9.861 -0.2534  0.9301 -0.7084
45661SOL     OW41793   9.628   1.599   7.095 -0.0476  0.0556 -0.0814
45661SOL    HW141794   9.582   1.563   7.019  0.0784  0.4536 -0.3502
45661SOL    HW241795   9.576   1.676   7.120 -0.1609 -0.1471  0.3143
45662SOL     OW41796   5.778   5.575   4.876  0.4137 -0.2775 -0.0792
45662SOL    HW141797   5.849   5.605   4.933  0.7844 -1.7769  0.2753
45662SOL    HW241798   5.820   5.555   4.793  0.5152 -1.6293  0.2783
45663SOL     OW41799   5.915   8.585   0.052 -0.8136  0.1441 -0.3940
45663SOL    HW141800   6.009   8.602   0.055 -1.1415  2.0515  0.1637
45663SOL    HW241801   5.897   8.567  -0.040 -0.0380  0.5866 -0.6390
45664SOL     OW41802   4.129  11.176   1.385 -0.1671 -0.7339  0.3679
45664SOL    HW141803   4.180  11.114   1.332  0.5264 -0.2691  0.4827
45664SOL    HW241804   4.047  11.188   1.336 -0.1603 -1.4697  0.1721
45665SOL     OW41805   5.804   3.751   3.537  0.1555  0.0712  0.5507
45665SOL    HW141806   5.768   3.670   3.573 -0.3369  0.1313  0.2017
45665SOL    HW241807   5.732   3.789   3.486  0.2027  1.0059  1.1536
45666SOL     OW41808   7.588   5.680  12.488 -0.3496  0.1037  0.3282
45666SOL    HW141809   7.537   5.750  12.527 -0.7595  0.4455 -0.7936
45666SOL    HW241810   7.645   5.650  12.559 -2.4517 -0.6728  1.8061
45667SOL     OW41811   2.355   7.101   5.237  0.0618 -0.2064 -0.2139
45667SOL    HW141812   2.305   7.053   5.303 -0.7462  1.3236  0.3340
45667SOL    HW241813   2.390   7.033   5.179  0.6547 -1.5969  1.6568
45668SOL     OW41814  11.504   7.321  11.865 -0.2908 -0.2218 -0.8709
45668SOL    HW141815  11.582   7.281  11.826 -0.2705 -0.5733 -0.4771
45668SOL    HW241816  11.437   7.253  11.860 -0.3514 -0.1917 -0.5082
45669SOL     OW41817   5.972   1.081   4.820 -0.2380  0.0652  0.5518
45669SOL    HW141818   6.001   1.136   4.893  2.2384  0.7343 -0.8263
45669SOL    HW241819   5.893   1.124   4.787 -0.0219  1.1156  1.3497
45670SOL     OW41820   7.154   2.006   6.236 -0.2053  0.0328  0.3269
45670SOL    HW141821   7.212   2.064   6.286 -0.8138  1.1545 -0.2238
45670SOL    HW241822   7.087   2.064   6.200 -0.2165 -0.8434 -1.1588
45671SOL     OW41823   2.500  10.120   8.159  0.3304  0.1950  0.2565
45671SOL    HW141824   2.534  10.169   8.084 -0.0525 -0.1892 -0.1734
45671SOL    HW241825   2.579  10.089   8.204  0.5965  1.6839  0.8753
45672SOL     OW41826   2.426   7.559   1.939 -0.4934 -0.2796 -0.0637
45672SOL    HW141827   2.421   7.476   1.988 -1.2607  1.2643  2.6870
45672SOL    HW241828   2.494   7.609   1.984 -0.6068  0.9001 -1.1749
45673SOL     OW41829   7.000   0.845   3.492  0.1779  0.1106 -0.5983
45673SOL    HW141830   7.001   0.794   3.411 -0.1548 -0.7747 -0.0585
45673SOL    HW241831   6.914   0.827   3.530  0.9204 -0.7797  0.7417
45674SOL     OW41832   2.056   7.797   6.534 -0.0613  0.0470  0.1117
45674SOL    HW141833   2.028   7.714   6.572 -1.1303  0.1468 -0.4246
45674SOL    HW241834   2.083   7.775   6.445  0.7432  0.0992  0.3341
45675SOL     OW41835   4.629   0.738   4.014 -0.1112 -0.0782  0.3215
45675SOL    HW141836   4.608   0.685   4.091  1.5306 -2.0226 -0.4949
45675SOL    HW241837   4.592   0.689   3.940  2.5610 -0.8584 -0.5861
45676SOL     OW41838   5.914   8.919   5.845  0.4050 -0.4931 -0.6155
45676SOL    HW141839   5.850   8.854   5.816 -1.7121  0.6526  1.1856
45676SOL    HW241840   5.922   8.979   5.771 -2.5649  0.6956 -0.1184
45677SOL     OW41841   2.419   6.009   5.300  0.4181 -0.3683  0.0842
45677SOL    HW141842   2.411   5.978   5.210  0.5822 -1.4128  0.4127
45677SOL    HW241843   2.457   5.935   5.347 -0.8619 -0.3004  1.2710
45678SOL     OW41844   7.620   7.652  12.116 -0.4851 -0.8237 -0.6025
45678SOL    HW141845   7.669   7.656  12.033  0.0942  0.7768 -0.2105
45678SOL    HW241846   7.528   7.649  12.089 -0.4804  2.4992 -1.3646
45679SOL     OW41847   0.371  10.884  12.434 -0.0131  0.2893  0.4834
45679SOL    HW141848   0.466  10.877  12.447  0.1797  2.3015  0.5187
45679SOL    HW241849   0.333  10.816  12.489  1.4651 -1.6929 -0.8266
45680SOL     OW41850  10.176   8.953   0.486  0.2568 -0.0701 -0.0220
45680SOL    HW141851  10.110   8.917   0.427  0.6531 -1.5876  0.4092
45680SOL    HW241852  10.181   9.046   0.463 -2.0587  0.1269 -0.0434
45681SOL     OW41853   3.321  10.744   2.876  0.0552  0.6331 -0.1524
45681SOL    HW141854   3.283  10.765   2.791  0.2247  0.2401 -0.3283
45681SOL    HW241855   3.374  10.666   2.860 -1.1408 -0.3716  0.6315
45682SOL     OW41856   3.144   8.340   5.106  0.2401  0.0362  0.7125
45682SOL    HW141857   3.222   8.371   5.152  0.9072  0.5185 -0.7017
45682SOL    HW241858   3.168   8.253   5.075  0.7834  0.7555 -0.9822
45683SOL     OW41859  12.223   8.718   0.728 -0.4325 -0.0961 -0.1252
45683SOL    HW141860  12.280   8.655   0.685  1.4197  1.2309  0.2468
45683SOL    HW241861  12.215   8.686   0.818  1.0072  0.4426  0.2345
45684SOL     OW41862   0.180   6.957  10.612 -0.0618  0.0095  0.0779
45684SOL    HW141863   0.165   7.047  10.583  0.3920  0.1230  0.1776
45684SOL    HW241864   0.169   6.904  10.533 -1.5228  0.0088  0.2548
45685SOL     OW41865   2.031   8.075   1.970 -0.2727  0.1941  0.2879
45685SOL    HW141866   2.021   8.092   2.063 -2.2958 -1.6117  0.4770
45685SOL    HW241867   2.093   8.001   1.966 -0.4413  0.0555  0.2253
45686SOL     OW41868  12.421  12.110  11.526  0.5231  0.0027  0.1353
45686SOL    HW141869  12.479  12.078  11.457 -1.1177 -1.9932 -0.3930
45686SOL    HW241870  12.334  12.109  11.487 -0.0175  2.5807  1.0336
45687SOL     OW41871   8.186  11.238  10.832  0.2124  0.4848  0.2665
45687SOL    HW141872   8.115  11.257  10.893 -0.4740 -1.0855 -0.0006
45687SOL    HW241873   8.149  11.175  10.770  1.7412 -0.1508 -0.0551
45688SOL     OW41874   0.692   8.550  11.715  0.8722  0.1750 -0.0866
45688SOL    HW141875   0.762   8.547  11.780  0.8441 -2.6854 -0.0447
45688SOL    HW241876   0.630   8.482  11.743 -0.9094  1.2294 -1.2324
45689SOL     OW41877   8.067   9.795   2.194  0.5175  0.2787  0.1784
45689SOL    HW141878   7.981   9.829   2.168  0.1021 -1.0191 -0.2268
45689SOL    HW241879   8.129   9.844   2.141  0.0979  1.6681  0.9150
45690SOL     OW41880   0.764  10.848   5.393 -0.6528  0.3408  0.4644
45690SOL    HW141881   0.687  10.851   5.450 -0.7335 -0.6458  0.4270
45690SOL    HW241882   0.810  10.769   5.420 -1.4455 -0.9517 -1.7834
45691SOL     OW41883  10.507   6.607  12.092  0.6345  0.5542  0.5000
45691SOL    HW141884  10.482   6.518  12.066  0.2587  0.8153 -0.0518
45691SOL    HW241885  10.569   6.635  12.024 -0.3121  1.2203 -0.1026
45692SOL     OW41886   9.706   4.024  11.457  0.7701 -0.8563 -0.3958
45692SOL    HW141887   9.630   3.973  11.485  0.0475  0.0039 -0.7668
45692SOL    HW241888   9.673   4.113  11.445  2.2836  0.0648  1.5717
45693SOL     OW41889   7.242  10.846   6.655  0.1138 -0.0838 -0.2381
45693SOL    HW141890   7.213  10.916   6.596  0.7513  0.5422  0.1760
45693SOL    HW241891   7.297  10.890   6.719  1.5582 -1.1539 -0.6911
45694SOL     OW41892   2.886   0.838   9.201  0.2448  0.7852  0.2253
45694SOL    HW141893   2.818   0.891   9.245  1.5431  2.1098  0.7137
45694SOL    HW241894   2.875   0.858   9.108  0.2401  1.3331  0.3403
45695SOL     OW41895  10.018   6.853   1.072 -0.3812 -0.2715 -0.4575
45695SOL    HW141896  10.039   6.814   0.987  2.0603 -1.2581  0.5231
45695SOL    HW241897   9.935   6.813   1.097 -0.4218 -1.0389 -1.7551
45696SOL     OW41898   0.246  11.820   5.698 -0.1579 -0.1380 -0.2837
45696SOL    HW141899   0.254  11.790   5.607 -0.8845  1.3835 -0.8968
45696SOL    HW241900   0.317  11.884   5.707  0.3745 -0.8341  0.4631
45697SOL     OW41901   6.123   6.578   3.559 -0.1072 -0.5631 -0.2780
45697SOL    HW141902   6.186   6.637   3.518 -0.3499 -0.5814 -0.6849
45697SOL    HW241903   6.127   6.499   3.506  0.4222 -1.0216  0.4347
45698SOL     OW41904   6.107   0.518   6.102 -0.1507  0.1013  0.5357
45698SOL    HW141905   6.173   0.468   6.054 -1.2998 -1.1124  0.1532
45698SOL    HW241906   6.030   0.460   6.103 -1.6225  1.9579 -0.1268
45699SOL     OW41907   6.995   7.634   0.399  0.5341  0.5608 -0.8846
45699SOL    HW141908   6.952   7.712   0.435 -1.1778 -1.4194  1.7517
45699SOL    HW241909   6.931   7.598   0.337  0.1887 -0.0519 -0.1968
45700SOL     OW41910   5.330   0.600   6.047 -0.2902  0.4775  0.4154
45700SOL    HW141911   5.257   0.586   6.108 -0.9319  1.0305 -0.2114
45700SOL    HW241912   5.408   0.586   6.100 -0.8277 -1.7802  0.7299
45701SOL     OW41913   0.298  10.715   3.458 -0.0028 -0.1627 -0.7014
45701SOL    HW141914   0.293  10.625   3.493  0.6771 -0.4897 -1.4284
45701SOL    HW241915   0.383  10.747   3.488 -1.1982  1.1405  1.6072
45702SOL     OW41916  11.057   6.530   8.598  0.0871 -0.2659  0.3968
45702SOL    HW141917  11.066   6.623   8.577 -0.1905 -0.5866 -1.2214
45702SOL    HW241918  10.987   6.527   8.663  0.1497  0.6458  0.5258
45703SOL     OW41919  10.913   7.240   7.773 -0.1303 -0.1328 -0.2661
45703SOL    HW141920  10.872   7.153   7.770 -0.0169 -0.1687 -1.4866
45703SOL    HW241921  10.985   7.234   7.711 -0.6468  1.0893 -1.0203
45704SOL     OW41922   4.376   2.158   0.753  0.0773  0.0014 -0.1529
45704SOL    HW141923   4.303   2.170   0.815 -0.4643  0.7182 -0.8943
45704SOL    HW241924   4.423   2.242   0.756  0.8283 -0.4203  0.2406
45705SOL     OW41925   9.063   1.509   8.676 -0.4613  0.3576 -0.6915
45705SOL    HW141926   8.990   1.461   8.714 -1.0511  1.1845 -0.7407
45705SOL    HW241927   9.024   1.561   8.606 -0.4053  2.9402  1.0482
45706SOL     OW41928   4.513  12.284   1.206 -0.0737 -0.1018 -0.0479
45706SOL    HW141929   4.561  12.313   1.128  0.7894 -2.0529 -0.2992
45706SOL    HW241930   4.559  12.327   1.278 -0.9795  1.8574 -0.5478
45707SOL     OW41931   1.082   8.164  10.058 -0.1632  0.0630  0.2501
45707SOL    HW141932   1.102   8.121  10.141  1.4033  0.2860  0.0307
45707SOL    HW241933   1.046   8.094  10.003  2.6172 -1.1595 -0.1961
45708SOL     OW41934   6.445   4.835   2.113 -0.1178 -0.2297  0.3685
45708SOL    HW141935   6.407   4.747   2.109 -0.0366 -0.2358 -0.5300
45708SOL    HW241936   6.475   4.845   2.203 -0.2730 -1.0615  0.5154
45709SOL     OW41937  10.672  11.989  10.404  0.0441 -0.2534 -0.0299
45709SOL    HW141938  10.687  12.003  10.310  0.1780 -1.8385 -0.2703
45709SOL    HW241939  10.584  12.022  10.419  0.5539  1.3626 -0.3832
45710SOL     OW41940  12.022   7.460   4.197  0.0968  0.3700  0.1361
45710SOL    HW141941  11.941   7.507   4.178  0.4074 -0.1599 -3.0674
45710SOL    HW241942  12.087   7.528   4.215 -0.7564  0.8413  1.5448
45711SOL     OW41943   9.350   6.045   9.712  0.1089  0.4359  0.1500
45711SOL    HW141944   9.355   6.099   9.791 -1.3900  3.1778 -1.5152
45711SOL    HW241945   9.440   6.040   9.681  0.6878 -0.4841  1.8336
45712SOL     OW41946  12.131  10.551   1.916 -0.3920  0.2546 -0.4119
45712SOL    HW141947  12.060  10.511   1.865  0.8881 -0.2247 -1.8831
45712SOL    HW241948  12.172  10.478   1.962 -1.4538  0.6659  1.2791
45713SOL     OW41949   5.142   9.174   2.216 -0.2460 -0.2286 -0.5578
45713SOL    HW141950   5.197   9.100   2.242 -0.7176 -0.5657 -0.4950
45713SOL    HW241951   5.192   9.252   2.240 -0.0852 -0.5331  0.1079
45714SOL     OW41952  11.622   4.141   6.641 -0.0716  0.0582 -0.1219
45714SOL    HW141953  11.591   4.145   6.732  0.9862 -0.1844  0.2627
45714SOL    HW241954  11.613   4.049   6.617  0.8559 -0.1161  0.1799
45715SOL     OW41955   8.985  11.423   0.294  0.5237  0.1312  0.4152
45715SOL    HW141956   8.994  11.508   0.250  1.8471  0.6241  1.5491
45715SOL    HW241957   8.935  11.370   0.233 -2.6858  2.4686  0.7247
45716SOL     OW41958   1.183   1.234   3.894  0.0819 -0.1906 -0.2509
45716SOL    HW141959   1.116   1.220   3.827 -2.5805  1.8806  1.7568
45716SOL    HW241960   1.235   1.307   3.860  0.6173 -1.0177 -1.2803
45717SOL     OW41961   4.206   8.593   2.592 -0.1384 -0.7091 -0.4067
45717SOL    HW141962   4.168   8.648   2.523  0.2631 -0.6277 -0.5676
45717SOL    HW241963   4.300   8.595   2.575 -0.0185 -0.5925  0.2109
45718SOL     OW41964   4.675   9.911   4.444  0.3108  0.2101 -0.1539
45718SOL    HW141965   4.617   9.884   4.372  0.1068  0.2291  0.0003
45718SOL    HW241966   4.638   9.994   4.474 -0.7402 -0.7077  1.2092
45719SOL     OW41967   3.150   7.083  11.972 -0.3532 -0.1861  0.4908
45719SOL    HW141968   3.092   7.156  11.953 -0.1667 -0.2706 -0.4080
45719SOL    HW241969   3.152   7.079  12.068 -4.1204 -1.9976  0.6548
45720SOL     OW41970   6.818  11.498   3.738 -0.1279 -0.3307  0.2575
45720SOL    HW141971   6.907  11.498   3.701  0.2629 -0.0867  1.1690
45720SOL    HW241972   6.767  11.552   3.677  0.8020  1.1650  0.7462
45721SOL     OW41973   4.030   3.401  10.065 -0.5185  0.3971  0.0269
45721SOL    HW141974   3.990   3.325  10.023 -0.6840 -0.6739  2.0205
45721SOL    HW241975   4.075   3.447   9.993  2.4744 -3.3566 -0.8515
45722SOL     OW41976   7.452   1.673   2.252 -0.1649  0.3628  0.1155
45722SOL    HW141977   7.368   1.713   2.228 -0.9064 -0.6868  0.8680
45722SOL    HW241978   7.450   1.587   2.210  1.2628  0.9199 -1.1984
45723SOL     OW41979   4.758   6.415  11.412  0.7994 -0.5628 -0.5236
45723SOL    HW141980   4.731   6.360  11.486  0.9862 -1.6576 -1.2483
45723SOL    HW241981   4.699   6.391  11.341  1.2743 -0.2514 -1.0314
45724SOL     OW41982   4.007   1.878  11.568 -0.1626 -0.0780 -0.3822
45724SOL    HW141983   4.054   1.902  11.648 -0.1557 -0.2590 -0.3303
45724SOL    HW241984   3.966   1.794  11.589 -1.6018  0.7019  0.0281
45725SOL     OW41985   8.839   4.200   4.268 -0.3388  0.2248  0.0200
45725SOL    HW141986   8.858   4.129   4.330  1.6517  0.7116  0.0367
45725SOL    HW241987   8.860   4.280   4.316  0.4936  0.6480 -1.0070
45726SOL     OW41988   7.553   9.497  12.341  0.2149 -0.1666  0.1240
45726SOL    HW141989   7.535   9.511  12.434 -1.9136 -1.7864  0.0405
45726SOL    HW241990   7.468   9.504  12.298  0.9941 -0.4301 -1.5710
45727SOL     OW41991   1.549   5.957  12.549  0.8550  0.1723 -0.3644
45727SOL    HW141992   1.546   5.905  12.469  0.4853 -0.5514  0.1117
45727SOL    HW241993   1.488   5.913  12.608 -0.2726  1.7328 -0.3017
45728SOL     OW41994   2.286  10.349  12.438  0.2804  0.3020 -0.2630
45728SOL    HW141995   2.288  10.342  12.343 -0.4275  2.8411 -0.5484
45728SOL    HW241996   2.239  10.431  12.455 -0.4385 -0.5316  2.3116
45729SOL     OW41997   8.533   0.046   5.727 -0.3050  0.0060 -1.0476
45729SOL    HW141998   8.613   0.031   5.777  0.9148  2.0672 -2.2291
45729SOL    HW241999   8.468   0.070   5.793  1.3694  3.1022 -0.3099
45730SOL     OW42000   5.184  10.861   5.781 -0.2858  0.2935 -0.7213
45730SOL    HW142001   5.152  10.865   5.871 -2.2969 -0.4913 -1.3621
45730SOL    HW242002   5.143  10.783   5.744  1.2975  0.0364 -2.0535
45731SOL     OW42003   1.818   0.135   6.795 -0.3156  0.0308  0.1218
45731SOL    HW142004   1.857   0.153   6.709  0.9971  1.5382  1.0000
45731SOL    HW242005   1.737   0.186   6.795 -0.5385 -0.3076 -0.3619
45732SOL     OW42006  11.294   0.295   6.149  0.1722 -0.2872 -0.0880
45732SOL    HW142007  11.217   0.327   6.101  0.1060  1.1051  0.8731
45732SOL    HW242008  11.260   0.225   6.204 -0.3845  0.1627  0.1562
45733SOL     OW42009   7.350   9.353   2.562  0.0548  0.0562 -0.1562
45733SOL    HW142010   7.321   9.419   2.625  1.2776 -1.4137  2.0938
45733SOL    HW242011   7.369   9.403   2.482  1.6164  2.5654  1.6294
45734SOL     OW42012   0.715   7.689  12.195  0.3100 -0.0832 -0.0233
45734SOL    HW142013   0.740   7.641  12.116  2.5280 -0.0082  0.5694
45734SOL    HW242014   0.698   7.621  12.260  2.5284 -0.1973  0.5431
45735SOL     OW42015   3.634   7.144  11.193 -0.3009  0.3650 -0.5940
45735SOL    HW142016   3.707   7.125  11.252  0.5574  0.6895 -1.5171
45735SOL    HW242017   3.631   7.240  11.189  0.0085  0.3521 -1.4739
45736SOL     OW42018   3.214   7.427   6.477  0.9316 -1.0730 -0.6752
45736SOL    HW142019   3.175   7.419   6.390 -0.5540  0.8221 -0.2487
45736SOL    HW242020   3.143   7.403   6.537  0.8820  0.8414  0.0791
45737SOL     OW42021   0.286   0.564   2.079 -0.9036  0.2605  0.6166
45737SOL    HW142022   0.227   0.584   2.152 -1.5685  0.6854 -0.0234
45737SOL    HW242023   0.303   0.471   2.087 -2.8387 -0.2034 -0.0014
45738SOL     OW42024   0.538   3.533   1.388  0.4201 -0.3216 -0.0224
45738SOL    HW142025   0.534   3.533   1.292 -0.2539 -1.1566 -0.0091
45738SOL    HW242026   0.448   3.548   1.415  0.6967  0.4349  0.4873
45739SOL     OW42027   4.025   2.818   0.098  0.0744 -0.0033  0.4245
45739SOL    HW142028   4.067   2.900   0.073  1.2710 -0.2227  1.6023
45739SOL    HW242029   3.933   2.830   0.077 -0.3386  2.7469  3.1435
45740SOL     OW42030   1.733   5.959   3.085 -0.6681  0.1236  0.0974
45740SOL    HW142031   1.712   5.867   3.101  0.2473  0.2546  2.4920
45740SOL    HW242032   1.729   6.000   3.171 -0.6568  2.2630 -0.8579
45741SOL     OW42033  10.784   4.440  10.444 -0.3186  0.3332 -0.0517
45741SOL    HW142034  10.766   4.373  10.510  1.3150  0.4986  0.6064
45741SOL    HW242035  10.876   4.463  10.458  0.0604  0.4164 -2.3683
45742SOL     OW42036   3.685   1.545   4.018  0.2789 -0.1942 -0.4371
45742SOL    HW142037   3.625   1.485   3.973  1.3275 -1.9431  0.3872
45742SOL    HW242038   3.649   1.553   4.106  1.4446 -1.6534  0.2197
45743SOL     OW42039  11.542   6.892   3.722  0.0084  0.0769 -0.7483
45743SOL    HW142040  11.626   6.907   3.765 -0.2619 -1.2777  0.3196
45743SOL    HW242041  11.559   6.909   3.629  1.7522 -1.1488 -0.7047
45744SOL     OW42042   0.919   2.557   3.436  0.1816 -0.3689  0.4544
45744SOL    HW142043   0.930   2.650   3.418  0.6613  0.0012  2.3898
45744SOL    HW242044   0.824   2.545   3.445  0.1527  0.0359  0.6871
45745SOL     OW42045   2.899  11.031   9.167  0.0052 -0.4276  0.2812
45745SOL    HW142046   2.977  11.014   9.220  0.9486  0.4147 -0.7587
45745SOL    HW242047   2.884  11.125   9.177 -0.3186 -0.4180 -0.2545
45746SOL     OW42048   4.274   3.209   0.963 -0.0029 -0.3797 -0.5457
45746SOL    HW142049   4.324   3.233   0.885  1.3676 -1.9318 -0.1959
45746SOL    HW242050   4.337   3.213   1.034 -1.1003  0.4429  0.4154
45747SOL     OW42051  12.479  11.059   7.131 -0.5417  0.0279  0.3686
45747SOL    HW142052  12.425  11.092   7.203 -0.0243  1.5487  0.0958
45747SOL    HW242053  12.491  11.134   7.074 -1.2311 -1.2293 -1.5214
45748SOL     OW42054  10.709   1.541  10.284 -0.4196 -0.6326  0.1321
45748SOL    HW142055  10.673   1.622  10.247  0.3166 -0.5468 -0.4338
45748SOL    HW242056  10.724   1.562  10.376  0.7102  0.2310 -0.2241
45749SOL     OW42057   4.972   1.249   7.362  0.4146 -0.1939 -0.2819
45749SOL    HW142058   5.035   1.301   7.411 -0.0113 -0.2538  0.3464
45749SOL    HW242059   4.901   1.232   7.424  0.7133 -1.8410 -0.3360
45750SOL     OW42060   9.913   6.143   0.460 -0.2287  0.1842  0.4304
45750SOL    HW142061   9.844   6.132   0.526  0.2557 -2.2606  0.6227
45750SOL    HW242062   9.952   6.056   0.451  0.4888  0.6830 -2.2662
45751SOL     OW42063  10.477   4.951   9.369 -0.1038 -0.3595  0.2655
45751SOL    HW142064  10.415   4.891   9.327  1.4056 -0.5560 -1.8565
45751SOL    HW242065  10.537   4.894   9.416  0.4101 -0.4311 -0.4593
45752SOL     OW42066  10.155  12.643   2.931 -0.2723 -0.4428 -0.0437
45752SOL    HW142067  10.091  12.659   2.999 -0.1744 -2.1258  0.5026
45752SOL    HW242068  10.106  12.653   2.849 -1.2171 -1.5032  0.3597
45753SOL     OW42069   1.832   6.444   0.103 -0.1446  0.5319 -0.4162
45753SOL    HW142070   1.920   6.463   0.135 -0.8624  2.8983  0.3202
45753SOL    HW242071   1.792   6.390   0.172  0.3878  0.2555 -0.3191
45754SOL     OW42072   8.278   7.580   1.159  0.4707 -0.1854 -0.6590
45754SOL    HW142073   8.297   7.570   1.252 -0.0543 -0.0806 -0.5400
45754SOL    HW242074   8.361   7.561   1.116  1.0211  0.8838 -0.1195
45755SOL     OW42075   6.613  10.890   2.093 -0.4608  0.0733 -0.3914
45755SOL    HW142076   6.694  10.857   2.053 -0.4151  0.3183 -0.4990
45755SOL    HW242077   6.547  10.881   2.024 -0.7998 -1.2368  0.0623
45756SOL     OW42078   3.687  10.363  10.208 -0.4036  0.4125 -0.2663
45756SOL    HW142079   3.749  10.329  10.272  0.1328  1.8939  0.0516
45756SOL    HW242080   3.625  10.416  10.259  1.3185  3.4720 -1.0662
45757SOL     OW42081   7.356   3.234   5.315 -0.8805 -0.0631 -0.6501
45757SOL    HW142082   7.407   3.195   5.386 -0.0169  0.7571 -0.8139
45757SOL    HW242083   7.387   3.190   5.236  0.4241  1.2357 -0.8932
45758SOL     OW42084   3.315   2.658   0.464  0.4215 -0.8562 -0.0897
45758SOL    HW142085   3.402   2.645   0.427  0.7398  1.6270 -0.3646
45758SOL    HW242086   3.317   2.610   0.547  1.8025 -1.3688 -0.3892
45759SOL     OW42087   5.652   1.694  10.941 -0.5608  0.1981 -0.1423
45759SOL    HW142088   5.621   1.643  11.015  1.1903 -0.5953  0.0846
45759SOL    HW242089   5.593   1.770  10.938 -0.0033  0.8850  2.8105
45760SOL     OW42090   8.294   6.464   5.928 -0.5969  0.3447  0.2533
45760SOL    HW142091   8.238   6.466   6.005 -0.1635  0.3196  0.5769
45760SOL    HW242092   8.382   6.482   5.963 -0.0840 -1.5900  0.0510
45761SOL     OW42093   1.431  12.273   1.376  0.0155 -0.0927 -0.6100
45761SOL    HW142094   1.413  12.330   1.302  0.7391 -0.8589 -1.3891
45761SOL    HW242095   1.487  12.204   1.341 -0.0701 -0.7678  0.5246
45762SOL     OW42096   3.777   8.229   6.280  0.2900 -0.8301 -0.3574
45762SOL    HW142097   3.836   8.228   6.356 -1.9035 -0.5518  1.4693
45762SOL    HW242098   3.767   8.136   6.256 -1.8672 -1.3814  2.1940
45763SOL     OW42099   7.666   8.682   0.852  0.5859 -0.3604  0.0871
45763SOL    HW142100   7.679   8.595   0.889  0.9231 -0.5732 -0.5140
45763SOL    HW242101   7.708   8.678   0.766  0.4256  0.3332 -0.0309
45764SOL     OW42102   6.928   7.763  11.592  0.5637 -0.0832  0.1735
45764SOL    HW142103   6.981   7.769  11.671  2.4246 -2.3081 -0.7898
45764SOL    HW242104   6.902   7.671  11.588  0.8856 -0.1329 -2.0143
45765SOL     OW42105   0.731   2.439   4.170  0.3987  0.2157  0.2337
45765SOL    HW142106   0.703   2.507   4.231  0.8998 -0.0094  0.7224
45765SOL    HW242107   0.815   2.409   4.205 -0.7402 -2.0887  1.2369
45766SOL     OW42108   5.036   7.392  12.262  0.2061 -0.5237 -0.0030
45766SOL    HW142109   5.128   7.421  12.261 -0.3669  1.4290  0.1675
45766SOL    HW242110   5.032   7.328  12.332  1.8266 -2.1020 -1.2587
45767SOL     OW42111   2.044   1.624  11.901 -0.2041  0.2403  0.1296
45767SOL    HW142112   2.115   1.665  11.951  0.2670 -1.2385  0.7487
45767SOL    HW242113   1.989   1.697  11.873  1.5512  1.4383 -0.3756
45768SOL     OW42114   8.483   0.280   0.475 -0.1058 -0.2204  0.0077
45768SOL    HW142115   8.574   0.256   0.493  0.1891 -0.6625 -1.8681
45768SOL    HW242116   8.464   0.239   0.391 -2.3863 -0.9855  0.8427
45769SOL     OW42117   5.321   8.935   3.985  0.3917  0.7759  0.5821
45769SOL    HW142118   5.320   8.937   3.889 -2.0108 -1.4196  0.4473
45769SOL    HW242119   5.399   8.884   4.007 -0.1542 -0.5306 -0.3648
45770SOL     OW42120  12.407  10.533   5.057  0.5655  0.4246  0.1557
45770SOL    HW142121  12.359  10.531   5.140  0.8640 -1.3496  0.3300
45770SOL    HW242122  12.339  10.543   4.990  0.0775 -0.5487  0.4843
45771SOL     OW42123   6.593   2.921   9.262  0.0098  0.6365  0.0028
45771SOL    HW142124   6.612   2.948   9.172 -1.5042 -0.9863 -0.8740
45771SOL    HW242125   6.559   2.999   9.305  1.2731  1.5722 -0.6578
45772SOL     OW42126   5.263   4.883   9.101 -0.2696 -0.0669  0.0170
45772SOL    HW142127   5.303   4.896   9.014 -1.1205  0.6654 -0.2883
45772SOL    HW242128   5.303   4.951   9.155  1.2068 -1.3246  0.5596
45773SOL     OW42129   5.970  11.792  10.631  0.0370  0.4835 -0.6693
45773SOL    HW142130   6.020  11.711  10.644 -1.1634 -0.4310 -1.5455
45773SOL    HW242131   5.986  11.816  10.539  1.4351  2.0072 -0.0759
45774SOL     OW42132  10.860   7.968   1.760  0.2266 -0.4157  0.2544
45774SOL    HW142133  10.777   7.920   1.756  0.5450 -1.0590  1.0234
45774SOL    HW242134  10.863   8.003   1.849  1.7423 -2.2286  0.9793
45775SOL     OW42135   5.946   9.351   9.263  0.1944 -0.2167 -0.0455
45775SOL    HW142136   5.887   9.302   9.320  0.4600 -0.4368  0.0448
45775SOL    HW242137   5.939   9.442   9.294  0.4265 -0.3525  0.4196
45776SOL     OW42138  12.131  12.552   1.953  0.1421  0.0043 -1.0650
45776SOL    HW142139  12.054  12.575   2.004  0.0037 -0.5837 -0.9981
45776SOL    HW242140  12.204  12.598   1.995  0.1520 -1.0612  0.1229
45777SOL     OW42141   7.112  12.037   1.222 -0.3954 -0.0246 -0.4004
45777SOL    HW142142   7.048  12.086   1.171 -1.8286 -2.1618 -0.7922
45777SOL    HW242143   7.107  11.948   1.188  1.1993 -0.7416  1.0857
45778SOL     OW42144   0.180  11.925   2.731  0.3284  0.6745  0.2018
45778SOL    HW142145   0.148  11.837   2.752  2.4335  0.2127  1.8491
45778SOL    HW242146   0.101  11.978   2.723 -0.9726 -1.2545 -0.3661
45779SOL     OW42147   8.962   7.982   7.632 -0.7243  0.2034 -0.0489
45779SOL    HW142148   9.022   7.985   7.706  0.2413  0.6189 -0.8249
45779SOL    HW242149   8.882   7.944   7.667 -0.0980 -0.1090  1.0741
45780SOL     OW42150   1.589  10.142   8.739 -0.3091 -0.3935 -0.1792
45780SOL    HW142151   1.608  10.233   8.762  0.6425 -0.8778  1.0251
45780SOL    HW242152   1.530  10.112   8.808 -2.0483 -0.2299 -1.4928
45781SOL     OW42153  12.174  10.582  11.756  0.3118 -0.1550  0.2557
45781SOL    HW142154  12.111  10.580  11.828  0.6089 -0.4459  0.5097
45781SOL    HW242155  12.148  10.657  11.703 -1.9566 -1.8369 -1.1839
45782SOL     OW42156   0.624   4.709   7.113  0.0045 -0.5120  0.0038
45782SOL    HW142157   0.551   4.654   7.144  0.5341 -1.1853  0.0831
45782SOL    HW242158   0.701   4.674   7.157  0.7395 -1.3130 -1.7964
45783SOL     OW42159   6.294   3.163  10.306 -0.4785  0.3507  0.3422
45783SOL    HW142160   6.296   3.121  10.392 -0.9719 -0.0895  0.1371
45783SOL    HW242161   6.328   3.097  10.246 -1.2814  0.2260  0.0161
45784SOL     OW42162  10.422  12.168   1.384 -0.6978  0.1283 -0.4076
45784SOL    HW142163  10.425  12.137   1.475  1.6542  1.4665  0.0477
45784SOL    HW242164  10.398  12.260   1.391  0.4640  0.4972 -1.0202
45785SOL     OW42165   0.527   1.625  11.010 -0.1904  0.5882 -1.2689
45785SOL    HW142166   0.433   1.624  11.028 -0.1700 -1.4132 -1.1226
45785SOL    HW242167   0.536   1.588  10.922  0.5219 -0.1195 -0.9097
45786SOL     OW42168   6.960   3.159   8.490  0.1887  0.2613 -0.0540
45786SOL    HW142169   6.982   3.237   8.439 -1.8278 -0.5760 -2.4073
45786SOL    HW242170   6.882   3.123   8.448  1.4624 -3.5150  0.3757
45787SOL     OW42171   5.316   7.678   1.681  0.2097  0.3340 -0.0997
45787SOL    HW142172   5.391   7.628   1.649  0.7074  0.3345  1.0124
45787SOL    HW242173   5.252   7.613   1.709  0.3998  0.3192  0.3074
45788SOL     OW42174  11.854   8.961   6.736  0.0610 -0.2476  0.1644
45788SOL    HW142175  11.828   9.051   6.758  0.1227 -0.3553  0.6861
45788SOL    HW242176  11.919   8.938   6.802 -0.4867 -0.9353  0.4906
45789SOL     OW42177   1.597   9.752   5.708  0.0088  0.4370  0.0134
45789SOL    HW142178   1.557   9.802   5.637  1.2467  0.2096 -0.8856
45789SOL    HW242179   1.689   9.741   5.681  0.5842  0.5598  1.7702
45790SOL     OW42180   3.611   3.750   8.513  0.0901  0.2868  0.2261
45790SOL    HW142181   3.601   3.729   8.606  0.6714 -0.2551  0.1740
45790SOL    HW242182   3.539   3.704   8.470  0.1887  0.0263  0.3396
45791SOL     OW42183   8.881  10.826   0.628 -0.0610 -0.1168  0.2276
45791SOL    HW142184   8.943  10.874   0.683  1.4763 -2.9427  1.1848
45791SOL    HW242185   8.920  10.739   0.619 -2.3531 -1.0481 -1.8959
45792SOL     OW42186   5.981   0.660   7.963 -0.3133 -0.3805 -0.3171
45792SOL    HW142187   6.000   0.703   8.046  0.1238 -1.3675  0.1070
45792SOL    HW242188   6.064   0.660   7.916  0.2574 -2.6105  0.5711
45793SOL     OW42189   3.517  10.085  10.498  0.0255  0.0663 -1.1510
45793SOL    HW142190   3.449  10.098  10.564  1.1949 -0.7995  0.2694
45793SOL    HW242191   3.551  10.172  10.481 -1.1020  0.4524 -1.5354
45794SOL     OW42192   2.073   2.359  12.388 -0.7178 -0.0497 -0.1081
45794SOL    HW142193   2.112   2.315  12.312  0.4979 -0.1067  0.5270
45794SOL    HW242194   2.028   2.290  12.435  0.5583 -0.5033  0.4882
45795SOL     OW42195   4.981  10.127   1.947  0.3342 -0.3137 -0.1294
45795SOL    HW142196   5.009  10.116   1.856  0.1722 -1.5520 -0.0500
45795SOL    HW242197   4.959  10.038   1.976 -3.5718  0.4984 -0.1348
45796SOL     OW42198   3.160   8.612   1.489  0.0928 -0.3445  0.1810
45796SOL    HW142199   3.162   8.527   1.533  0.5338 -0.1750  0.4902
45796SOL    HW242200   3.238   8.658   1.520  1.4104 -0.8762 -2.0936
45797SOL     OW42201   3.219  10.898  12.425 -0.4715  0.0435  0.2098
45797SOL    HW142202   3.259  10.914  12.510  0.0298  0.9123 -0.1847
45797SOL    HW242203   3.204  10.803  12.424  0.0664 -0.0639  1.0192
45798SOL     OW42204   9.720   2.601   8.572 -0.0299  0.6334  0.4275
45798SOL    HW142205   9.739   2.689   8.604 -0.1523  1.2474 -1.0940
45798SOL    HW242206   9.653   2.614   8.505 -0.2767 -0.6573  0.3989
45799SOL     OW42207   3.454   6.359   5.964  0.1161 -0.7507  0.6233
45799SOL    HW142208   3.522   6.402   5.912 -0.6763 -0.9751 -0.6234
45799SOL    HW242209   3.455   6.268   5.935  1.0966 -1.3933  2.5353
45800SOL     OW42210  11.624   6.964   1.576  0.1281  0.0047 -0.1021
45800SOL    HW142211  11.616   6.906   1.652 -0.5103  0.8426  0.4915
45800SOL    HW242212  11.702   7.017   1.594  0.2415 -0.1086 -0.2545
45801SOL     OW42213   0.118   3.921   9.764  0.2135  0.0417  0.4487
45801SOL    HW142214   0.086   3.971   9.839  0.8131 -0.6926  1.2143
45801SOL    HW242215   0.207   3.953   9.750  0.9788 -1.4349  1.5811
45802SOL     OW42216   7.454   0.914   4.874 -0.6942 -0.6295  0.1462
45802SOL    HW142217   7.515   0.986   4.890 -0.6340 -0.9895  1.6605
45802SOL    HW242218   7.370   0.956   4.855  0.0593 -0.1142 -2.4198
45803SOL     OW42219   7.596  11.029   5.221 -0.5388  0.2440 -0.1473
45803SOL    HW142220   7.606  11.074   5.137  0.5135  0.4802  0.0872
45803SOL    HW242221   7.587  10.937   5.198 -0.4667  0.3300 -0.5263
45804SOL     OW42222  10.434   2.368   2.425 -0.0046 -0.7673 -0.1247
45804SOL    HW142223  10.353   2.408   2.393 -0.4627 -0.7386  1.0196
45804SOL    HW242224  10.444   2.288   2.373 -0.4513 -0.4752 -0.6720
45805SOL     OW42225   9.572   8.896  10.484  0.4533 -0.0531  0.1834
45805SOL    HW142226   9.601   8.839  10.554 -2.1410 -1.6500  0.0821
45805SOL    HW242227   9.486   8.926  10.511 -0.1047  0.2519 -1.7683
45806SOL     OW42228   6.948  11.465   3.259 -0.1382 -0.4361 -0.0534
45806SOL    HW142229   7.004  11.476   3.181 -0.4347 -5.2478 -1.2355
45806SOL    HW242230   6.861  11.493   3.230  0.1978 -0.0243 -0.6975
45807SOL     OW42231   3.405   2.073   8.264 -0.2112  0.2755  0.1735
45807SOL    HW142232   3.326   2.039   8.306 -0.1655  2.5655  2.3275
45807SOL    HW242233   3.472   2.071   8.332  1.0633  0.3051 -1.0184
45808SOL     OW42234   7.713   4.328  10.465 -0.3065  0.3590 -0.1906
45808SOL    HW142235   7.632   4.327  10.414  0.3726  0.3980 -1.3048
45808SOL    HW242236   7.761   4.405  10.434  0.0567  0.4836  0.6317
45809SOL     OW42237   2.495   6.341   0.642 -0.3828  0.9062 -0.2550
45809SOL    HW142238   2.523   6.355   0.552 -0.0081  2.2397  0.0449
45809SOL    HW242239   2.403   6.367   0.643 -0.4891  0.5424 -0.3224
45810SOL     OW42240  12.192   2.582   8.476  0.1088 -0.6667 -0.0140
45810SOL    HW142241  12.253   2.646   8.440 -0.5365  1.1075  1.8585
45810SOL    HW242242  12.245   2.503   8.488  1.2884 -0.0759 -1.0711
45811SOL     OW42243  11.235  11.513   7.148 -0.6144 -0.3140 -0.1483
45811SOL    HW142244  11.208  11.422   7.132 -0.5491 -0.0548 -1.9657
45811SOL    HW242245  11.324  11.505   7.183 -1.1052 -0.9745  1.0252
45812SOL     OW42246   4.844   0.614   8.248  0.1878 -0.1357  0.0341
45812SOL    HW142247   4.899   0.596   8.324 -0.2838  0.2755  0.4868
45812SOL    HW242248   4.814   0.528   8.219 -0.5617 -0.2340  1.0348
45813SOL     OW42249   4.232   6.372   2.536 -0.1488  0.0200 -0.1022
45813SOL    HW142250   4.200   6.451   2.580 -1.3132 -0.5992  0.1867
45813SOL    HW242251   4.311   6.401   2.490 -0.1237  1.1744  0.6246
45814SOL     OW42252   7.412   6.548   5.728  0.6039  0.6752 -0.0303
45814SOL    HW142253   7.482   6.519   5.669  2.1162  0.7914  1.6472
45814SOL    HW242254   7.413   6.484   5.799 -1.1997  0.5312 -0.0860
45815SOL     OW42255   4.316  12.622   1.973  0.1492 -0.0807 -0.1560
45815SOL    HW142256   4.278  12.659   2.053  0.0440  0.2034 -0.3351
45815SOL    HW242257   4.406  12.601   1.997  0.2615  0.4379 -0.0904
45816SOL     OW42258  11.642  12.063   3.012  0.4976  0.0966  0.4823
45816SOL    HW142259  11.655  12.008   3.089  0.7303  0.9663  1.0795
45816SOL    HW242260  11.635  12.152   3.047  1.7136  0.6439 -0.5917
45817SOL     OW42261   8.514   8.769   4.288  0.1763  0.2488  0.5119
45817SOL    HW142262   8.505   8.834   4.219 -0.1804 -1.5398 -1.2446
45817SOL    HW242263   8.433   8.776   4.339 -0.6138  0.1009 -0.6768
45818SOL     OW42264  12.454   1.354   6.809  0.2620  0.3957  0.4758
45818SOL    HW142265  12.485   1.321   6.724  1.4530 -2.4710  1.9059
45818SOL    HW242266  12.530   1.401   6.845  0.9684 -1.3316  1.3452
45819SOL     OW42267   8.119  12.339   0.881 -0.2331  0.0310 -0.6981
45819SOL    HW142268   8.170  12.405   0.928 -0.9641 -0.1612  0.4213
45819SOL    HW242269   8.184  12.273   0.855  0.4101  0.8889 -1.2989
45820SOL     OW42270   9.466  11.932   2.876  0.4460  0.3718  0.0235
45820SOL    HW142271   9.512  11.893   2.801  1.5633  1.5129  0.0805
45820SOL    HW242272   9.507  11.892   2.953  0.4377  0.4228  0.0548
45821SOL     OW42273   5.150   5.034   6.565  0.4322  0.1628 -0.6527
45821SOL    HW142274   5.246   5.033   6.565  0.4498 -0.3745 -2.1207
45821SOL    HW242275   5.127   5.074   6.649  1.9081 -1.2377  0.4976
45822SOL     OW42276   3.941   6.215  12.252 -0.2907 -0.5720 -0.0378
45822SOL    HW142277   4.009   6.160  12.215 -0.4900 -1.0336  0.2766
45822SOL    HW242278   3.940   6.193  12.345  2.2302  2.6427  0.9297
45823SOL     OW42279   6.387   7.234  10.322  0.0553  0.2133  0.1247
45823SOL    HW142280   6.479   7.218  10.340 -0.1209  0.0080  0.8632
45823SOL    HW242281   6.364   7.309  10.375  0.2479  1.4483 -1.4603
45824SOL     OW42282   6.177   0.238   4.886 -0.4818 -0.3630  0.3203
45824SOL    HW142283   6.237   0.188   4.941 -0.1769  1.6244  1.8793
45824SOL    HW242284   6.144   0.307   4.942  0.1215  2.0199 -2.0451
45825SOL     OW42285  10.123   5.193   4.030 -0.0870  0.3851  0.0060
45825SOL    HW142286  10.086   5.120   4.081  0.1598 -0.1196 -0.5206
45825SOL    HW242287  10.165   5.150   3.955  1.8976  0.9009  0.7530
45826SOL     OW42288   9.753   1.033   2.934  0.0934 -0.2616 -0.4334
45826SOL    HW142289   9.735   0.946   2.900 -1.0144  0.7637 -2.6505
45826SOL    HW242290   9.778   1.085   2.858 -1.1078  1.8291  0.5015
45827SOL     OW42291   0.840   9.892   4.840 -0.5589  0.0998  0.2871
45827SOL    HW142292   0.836   9.796   4.836 -3.8264  0.0579  1.6725
45827SOL    HW242293   0.844   9.913   4.933 -1.1567  1.3055  0.0644
45828SOL     OW42294   1.147  12.140   7.907 -0.4407 -0.4255  0.4918
45828SOL    HW142295   1.136  12.196   7.984  1.1413 -0.8201  1.0489
45828SOL    HW242296   1.171  12.055   7.942  2.5738 -0.0769 -0.3945
45829SOL     OW42297  12.442   5.140   7.161 -0.5995 -0.0287  0.3283
45829SOL    HW142298  12.436   5.193   7.240 -1.7240  1.1895 -0.5244
45829SOL    HW242299  12.507   5.185   7.107  0.1822 -0.8698  0.5420
45830SOL     OW42300   6.515   6.889   1.004  0.2338  0.2323 -0.2006
45830SOL    HW142301   6.486   6.959   0.946  1.1008  0.5759 -0.2339
45830SOL    HW242302   6.507   6.809   0.952  1.2710  0.5665 -0.9119
45831SOL     OW42303   6.914   1.050  10.383  0.0856 -0.4317  0.2501
45831SOL    HW142304   6.923   1.131  10.433  0.9542  0.7735 -1.7482
45831SOL    HW242305   6.888   0.985  10.448 -0.4737  1.3903  1.9506
45832SOL     OW42306   2.730  12.547  10.187 -0.0402  0.0601 -0.1298
45832SOL    HW142307   2.706  12.639  10.194  2.5299  0.8525 -0.6561
45832SOL    HW242308   2.710  12.524  10.096 -0.4790  0.1363 -0.0566
45833SOL     OW42309  10.916   4.548   4.560  0.8787 -0.2095 -0.0381
45833SOL    HW142310  10.840   4.605   4.570 -0.2303 -1.6831  0.3539
45833SOL    HW242311  10.957   4.577   4.479 -1.3945 -0.7458 -1.4813
45834SOL     OW42312   0.782   0.426   9.899  0.1321  0.3908  0.2945
45834SOL    HW142313   0.738   0.499   9.943  0.7477  0.5996  0.5822
45834SOL    HW242314   0.725   0.351   9.913 -0.7028  0.8894 -0.3304
45835SOL     OW42315   1.292  10.871   9.010  0.2705  0.4610 -0.6924
45835SOL    HW142316   1.376  10.906   9.038 -0.6483  2.6944 -0.4923
45835SOL    HW242317   1.297  10.869   8.914  1.3331 -1.6172 -0.6262
45836SOL     OW42318   7.723  11.938   4.562  0.1010  0.3196 -0.5897
45836SOL    HW142319   7.653  11.994   4.529 -1.0760 -0.7251  0.0542
45836SOL    HW242320   7.781  11.997   4.610 -0.1215  1.2564 -1.4457
45837SOL     OW42321  10.619  11.708  11.490 -0.3620  0.0994  0.3305
45837SOL    HW142322  10.573  11.626  11.513 -1.4980  0.6923  0.2665
45837SOL    HW242323  10.614  11.712  11.395  1.0080 -0.4806  0.2200
45838SOL     OW42324   9.086  11.966   4.512 -0.4170 -0.3272 -0.1525
45838SOL    HW142325   9.134  11.984   4.593 -0.1373  0.4361 -0.4832
45838SOL    HW242326   9.026  11.895   4.535  0.2118 -0.6586  0.5135
45839SOL     OW42327   8.088   0.011   2.933 -0.0851  0.3477  0.1247
45839SOL    HW142328   8.121  -0.078   2.938  1.8001  1.0589  1.1490
45839SOL    HW242329   8.009   0.004   2.879  0.3606 -1.8182 -0.3327
45840SOL     OW42330   4.444  10.851   2.040  0.2023  0.6740  0.0132
45840SOL    HW142331   4.451  10.889   1.953  0.1490 -2.3955 -1.4702
45840SOL    HW242332   4.535  10.829   2.064  0.0072 -0.8076 -0.4779
45841SOL     OW42333   5.224   6.422  10.968 -0.1628  0.7022  0.0135
45841SOL    HW142334   5.196   6.437  11.059 -0.4546 -0.4309  0.1279
45841SOL    HW242335   5.145   6.438  10.916 -0.3606  0.0348  0.0966
45842SOL     OW42336   8.225   9.038   1.847  0.0000  0.5805  0.5407
45842SOL    HW142337   8.132   9.039   1.867  0.0566 -0.3537  0.8835
45842SOL    HW242338   8.257   9.123   1.878 -0.8922  1.3047 -0.4256
45843SOL     OW42339   3.816   2.175  12.468  0.4125 -0.4391 -0.2577
45843SOL    HW142340   3.874   2.248  12.491 -0.8910  0.9912 -1.3302
45843SOL    HW242341   3.868   2.122  12.407  1.1396 -0.0527  0.0057
45844SOL     OW42342  10.827   8.841   1.298  0.7993  0.7102  0.5660
45844SOL    HW142343  10.897   8.905   1.283  0.4484  0.8091 -0.7834
45844SOL    HW242344  10.746   8.892   1.289  0.5292  0.2137  0.1370
45845SOL     OW42345   9.928   5.821   2.889 -0.5100 -0.2751  0.0925
45845SOL    HW142346  10.009   5.870   2.872 -0.1447  0.4508  3.3372
45845SOL    HW242347   9.862   5.889   2.905 -1.0336 -0.8530  0.4385
45846SOL     OW42348  10.014   6.697   0.845 -0.2362 -0.1414  0.6935
45846SOL    HW142349   9.963   6.750   0.785  0.6264  0.0042  0.0700
45846SOL    HW242350  10.080   6.654   0.790  0.8278  0.3004  1.5758
45847SOL     OW42351   4.183   8.120   4.007  0.0792 -0.2976 -0.0372
45847SOL    HW142352   4.098   8.083   4.032  0.0613 -1.6480 -1.9254
45847SOL    HW242353   4.167   8.164   3.924  1.3551 -1.1737 -0.7780
45848SOL     OW42354  12.543   7.998   6.202  0.1524  0.2787 -0.1177
45848SOL    HW142355  12.516   7.946   6.278  1.0511 -1.7800 -1.1289
45848SOL    HW242356  12.474   8.063   6.192 -1.5152 -1.2894  0.6906
45849SOL     OW42357   1.925   4.591   4.494 -0.2126 -0.1950  0.2713
45849SOL    HW142358   1.889   4.543   4.569 -0.1662 -0.9832 -0.1937
45849SOL    HW242359   1.923   4.527   4.422  0.1167  0.4217 -0.2964
45850SOL     OW42360   7.422   3.066   4.529  0.2766 -0.5052  0.3683
45850SOL    HW142361   7.401   3.083   4.437 -1.1430 -2.2227  0.3214
45850SOL    HW242362   7.419   3.152   4.570 -0.5228  0.1272 -0.9270
45851SOL     OW42363   1.798   3.151   3.859  0.1465  0.1862 -0.3410
45851SOL    HW142364   1.822   3.152   3.766  1.1733  1.6398 -0.1017
45851SOL    HW242365   1.797   3.243   3.884 -3.6355  0.1483  0.2634
45852SOL     OW42366   7.672   8.602   3.470 -0.3940 -0.1817  0.2441
45852SOL    HW142367   7.663   8.657   3.548  2.3252  0.0290  0.4947
45852SOL    HW242368   7.751   8.634   3.427 -1.1011 -1.1626 -1.9247
45853SOL     OW42369   6.098   7.751   5.612 -0.1294  0.2956  0.2714
45853SOL    HW142370   6.145   7.743   5.695 -0.1911 -2.7371  0.1398
45853SOL    HW242371   6.011   7.716   5.630 -0.0490 -0.7019 -1.0987
45854SOL     OW42372   5.743   9.574  11.973 -1.1696  0.2724 -0.0090
45854SOL    HW142373   5.783   9.491  11.945 -0.4068  0.1984  1.2327
45854SOL    HW242374   5.758   9.633  11.899  1.5135  0.3078  0.4656
45855SOL     OW42375  10.950  10.882   9.273 -0.3943  0.6514  0.3718
45855SOL    HW142376  10.965  10.826   9.349  0.4474 -0.5662 -0.6488
45855SOL    HW242377  10.867  10.851   9.237  0.0738  0.0309 -0.1958
45856SOL     OW42378   6.698   4.960   9.773 -0.0418 -0.0019  0.0065
45856SOL    HW142379   6.786   4.951   9.809  0.8802 -3.9167 -2.6344
45856SOL    HW242380   6.701   5.041   9.721  1.9570  0.0118  0.0628
45857SOL     OW42381   6.619   6.414   9.844  0.0301 -0.1534 -0.0459
45857SOL    HW142382   6.610   6.370   9.759 -0.9717 -0.2198  0.0745
45857SOL    HW242383   6.708   6.447   9.846 -0.4491  1.3407 -1.8415
45858SOL     OW42384   2.052  12.286   0.275 -0.0639  0.2551 -0.3065
45858SOL    HW142385   1.988  12.355   0.294 -2.5066 -0.8518 -3.5783
45858SOL    HW242386   2.048  12.227   0.351 -1.1632  1.4312  0.5860
45859SOL     OW42387  11.510   3.095   9.134  0.0219 -0.1772 -0.9912
45859SOL    HW142388  11.422   3.119   9.163  0.0869 -2.9643  2.0434
45859SOL    HW242389  11.568   3.150   9.187  0.1910  1.0050 -2.3406
45860SOL     OW42390   7.683   2.516   9.440 -0.5870 -0.1203  0.2128
45860SOL    HW142391   7.645   2.430   9.459  0.3600  0.0005  3.3186
45860SOL    HW242392   7.631   2.551   9.368  0.2226 -4.0378 -2.5886
45861SOL     OW42393   6.207  12.190   7.269  0.5496 -0.1066 -0.1806
45861SOL    HW142394   6.121  12.203   7.229 -0.0765 -2.4133  0.2595
45861SOL    HW242395   6.191  12.197   7.364  0.8156 -0.5907 -0.0937
45862SOL     OW42396   7.499   5.749   8.215 -0.7932 -0.3389 -0.1454
45862SOL    HW142397   7.481   5.713   8.302  0.7491 -0.1765  0.2718
45862SOL    HW242398   7.450   5.693   8.155 -0.5084 -1.5441  0.7046
45863SOL     OW42399   9.272   2.379   5.396  0.2703  0.0617  0.4520
45863SOL    HW142400   9.289   2.306   5.336  1.5747  1.2544 -0.6912
45863SOL    HW242401   9.205   2.432   5.351  2.1928  1.6691 -0.6790
45864SOL     OW42402   8.054   7.708   8.606  0.1621  0.3197 -0.0184
45864SOL    HW142403   7.998   7.785   8.608  0.7712  0.8354 -1.5956
45864SOL    HW242404   8.141   7.739   8.630  0.2414 -0.0398  0.1747
45865SOL     OW42405   0.802   8.815  11.399 -0.2410 -0.2767 -0.0966
45865SOL    HW142406   0.808   8.902  11.360  0.9948 -1.3759 -2.5502
45865SOL    HW242407   0.838   8.826  11.487  1.5729  1.3929 -0.9600
45866SOL     OW42408   8.352   8.899   3.202 -0.6971 -0.0795 -0.0639
45866SOL    HW142409   8.424   8.873   3.145 -0.1176  2.6550 -0.7520
45866SOL    HW242410   8.278   8.914   3.144 -0.9762 -0.1516  0.2673
45867SOL     OW42411   8.807   0.759   5.194 -0.5316  0.1020  0.1930
45867SOL    HW142412   8.852   0.702   5.131  0.9816  2.5689 -1.1359
45867SOL    HW242413   8.738   0.802   5.142 -0.8209  0.4255  0.8312
45868SOL     OW42414   3.044   6.884   7.784  0.4516 -0.4268 -0.4403
45868SOL    HW142415   2.954   6.869   7.755  0.4245 -0.9932 -0.0648
45868SOL    HW242416   3.051   6.838   7.867  0.6445  0.8439  0.2772
45869SOL     OW42417   1.784  10.179  12.407 -0.3431 -1.0309 -0.2012
45869SOL    HW142418   1.754  10.198  12.496 -0.5255  2.0455 -0.8329
45869SOL    HW242419   1.704  10.172  12.355 -0.1933 -0.9501 -0.4453
45870SOL     OW42420   2.579  11.155   7.640 -0.2660  0.1659  0.7839
45870SOL    HW142421   2.620  11.084   7.591  0.7646  1.1491  0.1755
45870SOL    HW242422   2.627  11.233   7.613 -0.9678  1.0086  1.9077
45871SOL     OW42423   6.596  11.229   8.715  0.4220 -0.2428 -0.0581
45871SOL    HW142424   6.564  11.234   8.625  1.5562 -0.6237 -0.5014
45871SOL    HW242425   6.571  11.142   8.745  0.1104 -0.1431 -0.0196
45872SOL     OW42426   4.725   5.796   5.740 -0.1040 -0.7013 -0.3952
45872SOL    HW142427   4.730   5.846   5.822 -1.8003 -3.4911  1.5779
45872SOL    HW242428   4.658   5.841   5.689  0.7644  0.9111 -0.1830
45873SOL     OW42429   3.090   4.896   8.716 -0.3228 -0.4474 -0.4160
45873SOL    HW142430   3.114   4.947   8.793 -0.9846  0.8589 -1.0324
45873SOL    HW242431   3.172   4.883   8.669  0.1225 -1.4544  0.6090
45874SOL     OW42432   2.164   5.348   6.688 -0.1561 -0.2170 -0.1166
45874SOL    HW142433   2.212   5.281   6.638  0.6857  0.2557  0.0381
45874SOL    HW242434   2.072   5.328   6.672  0.0890 -0.4974 -1.3047
45875SOL     OW42435   2.443   2.006   0.391 -0.0285  0.2525 -0.3642
45875SOL    HW142436   2.518   1.951   0.414 -1.1986 -0.9642  0.7139
45875SOL    HW242437   2.378   1.987   0.459 -1.2814  1.3462 -1.2144
45876SOL     OW42438   2.096  11.025   0.027  0.0159  0.6457 -0.3329
45876SOL    HW142439   2.146  11.082   0.084  0.9879 -1.1396  0.6737
45876SOL    HW242440   2.023  11.079  -0.004  1.3660  2.6523 -0.1338
45877SOL     OW42441   9.234  12.242   6.937 -0.2446  0.6527 -0.0547
45877SOL    HW142442   9.223  12.189   6.859 -0.7156  2.2105 -1.0825
45877SOL    HW242443   9.206  12.330   6.912  0.8092  1.4957  1.4864
45878SOL     OW42444   1.264   1.189   1.373  0.1983 -0.2368 -0.3467
45878SOL    HW142445   1.315   1.167   1.294 -1.7429  1.1403 -2.0965
45878SOL    HW242446   1.185   1.135   1.366 -0.4728  0.6599  0.0600
45879SOL     OW42447   8.726  12.302   7.165 -0.1145 -0.1677  0.0504
45879SOL    HW142448   8.797  12.361   7.189  2.8092 -2.6910 -1.6492
45879SOL    HW242449   8.687  12.342   7.087 -0.4469  1.1226  0.8524
45880SOL     OW42450   6.891   8.288  10.768  0.1301 -0.2059 -0.3911
45880SOL    HW142451   6.840   8.271  10.847  2.1975  2.1086  1.6396
45880SOL    HW242452   6.906   8.382  10.768  2.2731 -0.4368 -2.2013
45881SOL     OW42453  11.348   8.000   5.228  0.4976 -0.2501 -0.1740
45881SOL    HW142454  11.256   8.019   5.244  0.4062 -0.9681  0.2126
45881SOL    HW242455  11.366   8.038   5.142  0.0521  0.5816  0.0883
45882SOL     OW42456   8.014  11.290  11.036 -0.1532 -0.4333  0.2059
45882SOL    HW142457   7.947  11.355  11.015  0.1190  0.1814  1.1794
45882SOL    HW242458   8.028  11.299  11.130  1.8994  0.0583 -0.0891
45883SOL     OW42459   8.632  10.279   0.198 -0.1829  0.3503 -0.5169
45883SOL    HW142460   8.565  10.257   0.263 -0.1486 -1.7705 -1.1461
45883SOL    HW242461   8.587  10.270   0.114  0.4571  0.5370 -0.8852
45884SOL     OW42462   6.426   2.449   5.609 -0.1147 -0.2230  0.1161
45884SOL    HW142463   6.472   2.505   5.672  0.9362  0.0728 -0.8796
45884SOL    HW242464   6.354   2.504   5.578  1.9043  1.3639 -2.1524
45885SOL     OW42465   4.099  11.068   9.682 -0.2981 -0.0160 -0.6325
45885SOL    HW142466   4.136  10.993   9.729 -0.1975 -0.1774 -0.9651
45885SOL    HW242467   4.006  11.047   9.674 -0.2738 -0.0968 -0.7074
45886SOL     OW42468   0.690  12.172   6.807 -0.5038 -0.0260  0.1524
45886SOL    HW142469   0.683  12.156   6.901  0.1562 -0.1354  0.1926
45886SOL    HW242470   0.604  12.150   6.772 -1.1854  1.2810  0.9022
45887SOL     OW42471   8.186   2.147   5.995  0.4127  0.3458 -0.3171
45887SOL    HW142472   8.110   2.096   6.023  3.2233 -2.8471  2.4090
45887SOL    HW242473   8.209   2.111   5.909  0.5155 -0.7731  0.1658
45888SOL     OW42474   5.132   1.875   8.217 -0.0176 -0.2659 -0.2084
45888SOL    HW142475   5.138   1.794   8.267  1.1935 -0.9536 -1.3893
45888SOL    HW242476   5.060   1.923   8.257 -1.1150 -2.1440  0.2107
45889SOL     OW42477   4.423  12.067  11.649  0.2558  0.0252 -0.1847
45889SOL    HW142478   4.343  12.071  11.702  1.0579 -0.3244  1.0924
45889SOL    HW242479   4.487  12.118  11.698  0.2033  2.3941 -2.4029
45890SOL     OW42480  12.024   8.011   1.788 -0.6921 -0.0288  0.5216
45890SOL    HW142481  11.946   8.056   1.820 -1.8083 -0.3920 -1.4850
45890SOL    HW242482  12.061   8.071   1.723 -0.4207 -0.6792  0.0647
45891SOL     OW42483   2.638  11.764   9.947  0.3310 -0.2171  0.8280
45891SOL    HW142484   2.683  11.806  10.021  1.1073  0.8533 -0.2240
45891SOL    HW242485   2.683  11.797   9.870 -1.9586  0.5210 -0.2659
45892SOL     OW42486   1.337   3.281   2.989 -0.7414 -0.1463 -0.3558
45892SOL    HW142487   1.413   3.237   2.951  0.2709  1.5858 -0.4426
45892SOL    HW242488   1.343   3.371   2.957 -1.4745  0.6337  1.5786
45893SOL     OW42489  11.861   5.161   1.671 -0.0060 -1.0367 -0.2046
45893SOL    HW142490  11.904   5.154   1.586  1.6365 -0.6063  0.5704
45893SOL    HW242491  11.827   5.072   1.687 -0.0736 -1.1963 -1.1543
45894SOL     OW42492   9.394   4.109   2.901  0.2932 -0.1302 -0.0934
45894SOL    HW142493   9.438   4.110   2.816 -1.5497 -2.0312 -1.1878
45894SOL    HW242494   9.412   4.022   2.936 -0.7685 -0.1534  0.4265
45895SOL     OW42495   7.931  12.423   2.890 -0.2454 -0.0118 -0.5978
45895SOL    HW142496   7.879  12.362   2.838 -0.7139  0.6790 -0.9639
45895SOL    HW242497   7.884  12.427   2.974 -1.0810  0.9653 -1.0869
45896SOL     OW42498   9.419  10.733  11.405 -0.2561  0.2017 -0.6243
45896SOL    HW142499   9.495  10.689  11.443  0.0086  0.0787 -1.2994
45896SOL    HW242500   9.385  10.787  11.477  0.0325 -0.2999 -0.1029
45897SOL     OW42501   4.167   2.938  10.816  0.4379  0.5069  0.1416
45897SOL    HW142502   4.182   3.018  10.867  0.3253 -0.8014  2.3796
45897SOL    HW242503   4.231   2.876  10.850 -0.1527 -0.6710 -0.8195
45898SOL     OW42504   1.785   3.572   2.043 -0.7295 -0.2202  0.0289
45898SOL    HW142505   1.872   3.591   2.009 -0.5731 -1.2488 -0.1758
45898SOL    HW242506   1.771   3.479   2.023 -1.4718 -0.3155  0.9223
45899SOL     OW42507  10.336   7.088  12.543  0.1134 -0.0208 -0.1777
45899SOL    HW142508  10.327   7.166  12.488 -0.7185 -0.4847 -0.7122
45899SOL    HW242509  10.379   7.121  12.623  0.6852  0.7895 -0.7939
45900SOL     OW42510  10.869   1.040   4.801 -0.0277  0.1778  0.5661
45900SOL    HW142511  10.923   1.107   4.758 -0.3148  0.7377  1.0591
45900SOL    HW242512  10.803   1.090   4.849 -0.7205 -0.4853  0.3283
45901SOL     OW42513  12.171   9.547   9.015  0.2597 -0.2498 -0.1691
45901SOL    HW142514  12.209   9.608   9.079 -0.8023  0.4841 -0.2148
45901SOL    HW242515  12.078   9.543   9.038 -0.0698 -0.2704 -1.4435
45902SOL     OW42516   1.924   8.537   3.874 -0.0197  0.4615 -0.4151
45902SOL    HW142517   1.846   8.592   3.882  1.3195  2.7833 -2.0134
45902SOL    HW242518   1.898   8.467   3.814 -1.5057 -0.2209  0.9600
45903SOL     OW42519   1.084   9.709   1.715  0.3488 -0.7641  0.6876
45903SOL    HW142520   1.125   9.627   1.743  2.6111 -0.2384 -0.8015
45903SOL    HW242521   1.067   9.698   1.622  0.2314  0.2876  0.5698
45904SOL     OW42522   8.533   8.740   1.478 -0.1446 -0.1245 -0.0870
45904SOL    HW142523   8.531   8.834   1.457  2.9142  0.2810  0.9979
45904SOL    HW242524   8.480   8.733   1.558 -1.1779  0.4769 -0.6937
45905SOL     OW42525  10.293   2.030   2.390  0.3161 -0.1496  0.2209
45905SOL    HW142526  10.326   2.031   2.480  0.3930  0.5192  0.1861
45905SOL    HW242527  10.231   2.102   2.386  0.8872  0.3196 -0.4806
45906SOL     OW42528   3.910   1.201   5.158 -1.0918  0.0564 -0.0353
45906SOL    HW142529   3.968   1.217   5.232 -2.1175 -1.6787  1.2102
45906SOL    HW242530   3.931   1.112   5.130 -1.4368  0.3142 -1.1812
45907SOL     OW42531  11.847   6.178  10.912  0.2670 -0.0301 -0.1177
45907SOL    HW142532  11.829   6.157  10.821 -0.4033 -0.7172  0.1627
45907SOL    HW242533  11.918   6.243  10.908  1.3374 -1.2174 -1.0627
45908SOL     OW42534   3.501   1.755   8.406  0.2191 -0.0216 -0.6783
45908SOL    HW142535   3.588   1.733   8.372 -0.6593 -2.3743 -1.6264
45908SOL    HW242536   3.508   1.847   8.431  3.3616 -0.4664  0.5753
45909SOL     OW42537   4.519   4.851   0.650 -0.7127 -0.1126  0.2591
45909SOL    HW142538   4.522   4.914   0.578 -1.9278 -2.0643 -1.6214
45909SOL    HW242539   4.585   4.786   0.628 -2.7105 -2.0132 -0.4415
45910SOL     OW42540   5.538   7.964  12.013  0.5055 -0.7209  0.1407
45910SOL    HW142541   5.612   7.935  11.961 -1.0533 -2.1097 -1.4577
45910SOL    HW242542   5.570   8.039  12.062  3.1833 -1.8041  0.1964
45911SOL     OW42543  10.396   9.891   4.430 -0.5812 -0.4089 -0.2180
45911SOL    HW142544  10.460   9.962   4.429 -0.5905 -0.3943  0.1884
45911SOL    HW242545  10.408   9.849   4.515 -0.4376 -1.0229 -0.5344
45912SOL     OW42546   1.436   6.693  10.909  0.0009 -0.7679  0.2670
45912SOL    HW142547   1.362   6.641  10.941 -1.6379  1.1367 -0.2192
45912SOL    HW242548   1.433   6.685  10.814  0.0450 -0.2425  0.2138
45913SOL     OW42549   3.181   3.870   5.448 -0.6617 -0.2429 -0.1374
45913SOL    HW142550   3.195   3.788   5.400 -1.7136 -0.4288 -0.1443
45913SOL    HW242551   3.263   3.883   5.497  0.3093 -0.2095 -1.7068
45914SOL     OW42552  11.221  11.295  10.531  0.0004  0.5437 -0.1683
45914SOL    HW142553  11.269  11.271  10.610 -0.6318 -1.2646 -0.2951
45914SOL    HW242554  11.284  11.281  10.460 -0.2842 -0.5459 -0.2177
45915SOL     OW42555   0.177   6.314   9.473  0.3028  0.2852  0.0167
45915SOL    HW142556   0.191   6.351   9.560  0.8623 -0.2666  0.1754
45915SOL    HW242557   0.105   6.252   9.484  0.6730 -0.1202  0.1969
45916SOL     OW42558   6.436   6.103   5.622 -0.6358  0.1431 -0.2122
45916SOL    HW142559   6.458   6.181   5.571  1.4443 -0.0593  0.3049
45916SOL    HW242560   6.520   6.060   5.638 -1.7517 -2.5250 -0.9294
45917SOL     OW42561   8.711   0.683   3.423  0.1481  0.5305  0.0745
45917SOL    HW142562   8.703   0.753   3.359  1.9243  0.1843 -0.5923
45917SOL    HW242563   8.782   0.711   3.481  0.1059 -0.1923  0.4955
45918SOL     OW42564   5.777   6.594   2.056 -1.0172 -0.3477  0.2372
45918SOL    HW142565   5.730   6.518   2.023  0.7439 -0.9480 -1.0063
45918SOL    HW242566   5.795   6.648   1.979 -1.0040  0.6368  0.9022
45919SOL     OW42567   5.423   4.369   1.851 -0.2324  0.1641  0.3884
45919SOL    HW142568   5.389   4.396   1.766 -0.2752 -2.8345 -0.6630
45919SOL    HW242569   5.347   4.372   1.910 -0.3826  1.4795  0.1504
45920SOL     OW42570  11.243   1.946   0.703  0.1450  0.3675  0.1682
45920SOL    HW142571  11.249   1.973   0.795  2.1366  0.0548  0.1729
45920SOL    HW242572  11.173   2.001   0.667 -1.3453 -0.1709  2.0565
45921SOL     OW42573   7.033   3.359   1.797 -0.1969  0.7776  0.2711
45921SOL    HW142574   7.027   3.305   1.876  0.8113 -1.3561 -1.0291
45921SOL    HW242575   7.125   3.385   1.793 -0.7818  3.3514  1.2588
45922SOL     OW42576   3.323  11.926   8.570 -0.1736 -0.2333 -0.0876
45922SOL    HW142577   3.400  11.894   8.618  0.5769 -0.1654 -1.1947
45922SOL    HW242578   3.255  11.935   8.636  0.3483 -1.6708  0.6957
45923SOL     OW42579   2.969   4.365  12.627  0.2796 -0.1554  0.3374
45923SOL    HW142580   2.990   4.407  12.543  0.4942 -1.4894 -0.3159
45923SOL    HW242581   2.986   4.272  12.611  1.6532 -0.2799  2.2964
45924SOL     OW42582  10.025   6.177   1.660 -0.5704  0.1588  0.8221
45924SOL    HW142583   9.970   6.244   1.700  0.1593  1.2480  0.0686
45924SOL    HW242584  10.094   6.161   1.725  0.4923  1.7698  0.1586
45925SOL     OW42585   5.955  10.560  12.499  0.0433 -0.1882 -0.0699
45925SOL    HW142586   6.024  10.570  12.564  0.7896 -2.3904 -0.4416
45925SOL    HW242587   5.895  10.496  12.538 -0.6998  0.1786 -0.6016
45926SOL     OW42588   7.920  11.258   5.569 -0.8173  0.1087 -0.0662
45926SOL    HW142589   7.890  11.301   5.649 -1.4278 -0.3982 -0.0113
45926SOL    HW242590   7.847  11.268   5.507 -0.0913  1.0679 -0.7860
45927SOL     OW42591   6.845   7.655   7.760  0.0805  0.1419 -0.0912
45927SOL    HW142592   6.833   7.699   7.844 -2.6653 -0.8901  0.1481
45927SOL    HW242593   6.783   7.697   7.701  1.9902  0.8840 -1.6970
45928SOL     OW42594   6.571   7.794   8.952 -0.2110  0.1127 -0.2340
45928SOL    HW142595   6.571   7.765   9.043 -0.3384  1.0579  0.0792
45928SOL    HW242596   6.627   7.871   8.951  0.6437 -0.4986 -1.1737
45929SOL     OW42597   2.656   9.802   5.139  0.4970 -0.3154 -0.2156
45929SOL    HW142598   2.705   9.815   5.220  1.6747  1.7804 -1.1770
45929SOL    HW242599   2.566   9.826   5.161  0.2773 -2.1214  1.0316
45930SOL     OW42600  11.841  11.025   6.251 -0.1641 -0.2011  0.2518
45930SOL    HW142601  11.919  11.080   6.244 -1.1338  1.2309  0.1320
45930SOL    HW242602  11.834  10.982   6.166 -0.4660  1.0774 -0.4087
45931SOL     OW42603  12.167   9.830  10.482 -0.2455 -0.1501  0.8192
45931SOL    HW142604  12.120   9.798  10.405 -0.0591 -0.9301  1.0242
45931SOL    HW242605  12.151   9.925  10.482  0.9751  0.0941 -1.0101
45932SOL     OW42606   1.480   2.991   2.401 -0.3373  0.4025  0.2705
45932SOL    HW142607   1.393   2.960   2.374 -0.3941  0.9242 -0.1424
45932SOL    HW242608   1.524   2.912   2.433 -0.7353  0.0193 -0.1170
45933SOL     OW42609   1.374   2.928   8.837 -0.0083  0.0724 -0.1491
45933SOL    HW142610   1.404   2.846   8.877 -1.5226  0.3064  1.6222
45933SOL    HW242611   1.295   2.903   8.788 -0.6684  0.4886  0.6745
45934SOL     OW42612   7.772   5.327   7.784  0.3673 -0.2271  0.2313
45934SOL    HW142613   7.741   5.288   7.703 -0.3682 -0.6018  0.6797
45934SOL    HW242614   7.732   5.274   7.853  2.2261 -0.9205  0.8503
45935SOL     OW42615   6.143   4.053   1.345 -0.2371 -0.1263 -0.5267
45935SOL    HW142616   6.216   4.030   1.288  2.1030  2.9131  0.9519
45935SOL    HW242617   6.161   4.007   1.427 -0.3089  0.1487 -0.3551
45936SOL     OW42618  10.998   6.375   5.579 -0.0700 -0.1245  0.1911
45936SOL    HW142619  11.034   6.414   5.658 -0.8357 -0.4645  0.7169
45936SOL    HW242620  11.051   6.411   5.508  1.6413 -0.9791  0.9657
45937SOL     OW42621   7.225  10.279   9.827  0.7711  0.6604 -0.2420
45937SOL    HW142622   7.320  10.286   9.824  1.0431 -1.1686  1.6459
45937SOL    HW242623   7.195  10.314   9.743  3.0377  1.9712 -0.5686
45938SOL     OW42624   0.695   8.185   5.448  0.0332 -0.0099 -0.4457
45938SOL    HW142625   0.652   8.119   5.394  0.1307 -0.0051 -0.5286
45938SOL    HW242626   0.686   8.153   5.538 -0.2852  0.0709 -0.4488
45939SOL     OW42627   3.739   4.957   8.956  0.2613 -0.2920  0.3675
45939SOL    HW142628   3.754   4.942   8.863  1.1469 -1.6121  0.6967
45939SOL    HW242629   3.784   5.039   8.975 -2.4304  1.6329 -0.9436
45940SOL     OW42630   8.935   9.456   9.592  0.2871  0.3900 -0.0787
45940SOL    HW142631   8.882   9.501   9.658 -0.8243 -0.3744 -0.4257
45940SOL    HW242632   8.909   9.496   9.509 -2.2075 -2.1143 -0.6537
45941SOL     OW42633   4.676   5.742  10.424  0.4874 -0.2168  0.1119
45941SOL    HW142634   4.681   5.761  10.518  0.2486  1.0916 -0.1250
45941SOL    HW242635   4.662   5.827  10.383 -0.4409 -0.8909 -1.0339
45942SOL     OW42636   3.194   0.479   1.002 -0.0388 -0.7514  0.5931
45942SOL    HW142637   3.201   0.572   1.024  2.6771 -0.1805 -2.0633
45942SOL    HW242638   3.188   0.477   0.907  0.5112 -3.2945  0.5392
45943SOL     OW42639   4.503   1.021   2.585 -0.4758 -0.5433 -0.2802
45943SOL    HW142640   4.431   0.958   2.587 -2.1910  1.3026 -0.6191
45943SOL    HW242641   4.465   1.101   2.548  0.7069  1.7659  2.9390
45944SOL     OW42642   4.106   0.380   8.761  0.0088  0.5139  0.1396
45944SOL    HW142643   4.031   0.362   8.818  0.3365  1.3180  0.8488
45944SOL    HW242644   4.159   0.301   8.767  0.0072  0.5595  0.9128
45945SOL     OW42645   9.176   2.512   4.511 -0.2185 -0.6369 -0.6593
45945SOL    HW142646   9.117   2.522   4.586  1.2077  0.1073  0.4214
45945SOL    HW242647   9.120   2.525   4.435 -1.3379  0.7947  0.3317
45946SOL     OW42648   3.137  11.566   6.515 -0.3611 -1.0460 -0.0668
45946SOL    HW142649   3.213  11.586   6.569 -0.6561 -1.3975  0.4809
45946SOL    HW242650   3.158  11.480   6.476  0.1294 -0.5164 -1.0300
45947SOL     OW42651   3.424  10.612  11.842  0.1364 -0.0201  0.1092
45947SOL    HW142652   3.485  10.599  11.914 -0.9068 -0.2188  0.9969
45947SOL    HW242653   3.452  10.694  11.800  0.8460  0.0173  0.6485
45948SOL     OW42654   1.216   7.336   2.786  0.0577 -0.1277 -0.1472
45948SOL    HW142655   1.263   7.341   2.703  1.1277 -0.2128  0.4358
45948SOL    HW242656   1.202   7.427   2.812  3.3502  0.0429  1.5318
45949SOL     OW42657   0.217   6.188   1.818  0.0980 -0.1762 -0.2768
45949SOL    HW142658   0.277   6.255   1.851  0.5522  0.6938 -2.7090
45949SOL    HW242659   0.262   6.105   1.835  0.9354  0.3242  0.0010
45950SOL     OW42660   6.030   7.309   1.506 -0.2606 -0.0784 -0.6823
45950SOL    HW142661   6.054   7.316   1.414  0.2265  0.0673 -0.5453
45950SOL    HW242662   6.113   7.291   1.551  0.0564  2.8977  0.1058
45951SOL     OW42663   8.520   5.522   1.170 -0.1120 -0.1940  0.0552
45951SOL    HW142664   8.583   5.519   1.242 -0.1569  0.3792  0.1246
45951SOL    HW242665   8.455   5.587   1.197  0.9408  1.5707 -1.3370
45952SOL     OW42666   9.980  11.925   6.438 -0.0802 -0.0938 -0.8795
45952SOL    HW142667   9.968  12.020   6.436 -0.1420 -0.1039 -1.0083
45952SOL    HW242668   9.891  11.889   6.440 -0.0496 -0.1243  0.9262
45953SOL     OW42669   2.560   7.540   7.713 -0.0256 -0.5783  0.0226
45953SOL    HW142670   2.595   7.520   7.626  0.7988  0.0849  0.1954
45953SOL    HW242671   2.475   7.496   7.715  0.0092 -0.7220 -1.0683
45954SOL     OW42672  12.159   6.777   5.286 -0.7836 -0.5003 -0.0301
45954SOL    HW142673  12.210   6.823   5.219  2.8895 -2.4018  1.2332
45954SOL    HW242674  12.141   6.844   5.352 -0.0528  0.2643 -0.5866
45955SOL     OW42675  11.412   7.300   6.041  0.8103  0.1640 -0.2481
45955SOL    HW142676  11.342   7.310   6.106  0.4451 -0.2952 -0.5610
45955SOL    HW242677  11.486   7.346   6.079  0.0015  1.6687 -0.4141
45956SOL     OW42678   8.433  10.985   0.750 -0.6156  0.5951 -0.8002
45956SOL    HW142679   8.380  10.918   0.707 -1.4066 -0.4529  1.6287
45956SOL    HW242680   8.460  11.043   0.679 -1.2450 -1.3736 -2.7780
45957SOL     OW42681   5.596   5.705   0.481 -0.3375 -1.0606  0.4180
45957SOL    HW142682   5.646   5.720   0.401  0.6553 -0.4957  1.1264
45957SOL    HW242683   5.636   5.627   0.519  1.2970  0.4329  1.9276
45958SOL     OW42684   6.911  10.968   5.774 -0.2033  0.1787 -0.2644
45958SOL    HW142685   6.986  10.954   5.831 -0.9691 -0.6629  0.5518
45958SOL    HW242686   6.949  11.007   5.694  0.9252  1.0044  0.6341
45959SOL     OW42687  12.624   9.788  11.591  0.2557 -0.2008  0.0382
45959SOL    HW142688  12.668   9.807  11.508 -0.4429  1.5307  0.0324
45959SOL    HW242689  12.629   9.692  11.598  1.3633 -0.3012 -1.4056
45960SOL     OW42690   9.769   0.205   7.703 -0.2586 -0.7755  0.7691
45960SOL    HW142691   9.828   0.165   7.638  0.5749 -0.2238  1.1675
45960SOL    HW242692   9.735   0.131   7.753 -2.2287 -1.4000 -1.3183
45961SOL     OW42693   1.125   6.901   6.317 -0.0787 -0.0484 -0.1366
45961SOL    HW142694   1.194   6.964   6.297  0.8247 -1.0178 -0.1327
45961SOL    HW242695   1.081   6.938   6.394  0.0922  0.8357 -0.4510
45962SOL     OW42696   0.262  12.154   5.504 -0.3883 -0.1757 -0.3426
45962SOL    HW142697   0.213  12.236   5.506 -0.6856 -0.3518 -0.3723
45962SOL    HW242698   0.197  12.088   5.480 -0.1505 -0.4198 -0.3137
45963SOL     OW42699   9.198   3.144   4.003  0.1269  0.3685 -0.2404
45963SOL    HW142700   9.136   3.203   3.959  0.4837  1.6607  0.8847
45963SOL    HW242701   9.168   3.056   3.981 -2.1927  0.9356  0.3165
45964SOL     OW42702   1.073   1.673  11.007  0.3656 -0.1313 -0.3765
45964SOL    HW142703   1.098   1.641  11.094 -0.5550  1.3307  0.4546
45964SOL    HW242704   0.982   1.644  10.997 -0.3578  1.8125  0.2318
45965SOL     OW42705   4.052  10.234   9.777  0.2447  0.2335  0.1059
45965SOL    HW142706   3.969  10.221   9.730  0.4205  0.6462 -0.3269
45965SOL    HW242707   4.118  10.199   9.717  0.4224  0.2947  0.2663
45966SOL     OW42708   8.862   5.444   0.581  0.1844 -0.1976  0.0680
45966SOL    HW142709   8.841   5.537   0.574  0.4686  0.1352  2.5497
45966SOL    HW242710   8.838   5.407   0.496  0.1475  2.1346 -1.0142
45967SOL     OW42711   8.805   3.412   8.371  0.0068 -0.0778 -0.1283
45967SOL    HW142712   8.850   3.333   8.403 -0.7567 -0.0930  0.9700
45967SOL    HW242713   8.729   3.379   8.324  1.6976 -0.1002 -3.0661
45968SOL     OW42714   9.260   3.184  10.411 -0.1328 -0.5141 -0.0085
45968SOL    HW142715   9.293   3.218  10.327 -0.4762 -1.9049 -0.7347
45968SOL    HW242716   9.243   3.091  10.394 -1.0346 -0.6237  1.3581
45969SOL     OW42717   2.478   9.078   1.351  0.0731  0.2535  0.1458
45969SOL    HW142718   2.474   9.127   1.433 -1.2308 -0.0761  0.3096
45969SOL    HW242719   2.495   8.987   1.378  2.2813  0.5278 -0.1443
45970SOL     OW42720   1.733   5.477   8.045 -0.2555 -0.5487 -0.6099
45970SOL    HW142721   1.744   5.493   8.139 -1.3216 -0.6644 -0.4555
45970SOL    HW242722   1.705   5.386   8.040 -0.1796 -0.5488 -1.0491
45971SOL     OW42723   2.669  10.777   8.487 -0.0330 -0.2252 -0.0514
45971SOL    HW142724   2.760  10.757   8.465  0.0712 -0.0616  0.2312
45971SOL    HW242725   2.659  10.871   8.469 -0.4118 -0.4365 -0.9934
45972SOL     OW42726   7.361   3.692   7.205 -0.0254 -0.4099  0.0704
45972SOL    HW142727   7.382   3.785   7.200 -1.7836  0.1259  1.4219
45972SOL    HW242728   7.318   3.673   7.121  1.5721 -0.3898 -0.7849
45973SOL     OW42729   8.720   7.330   1.208  0.4484 -1.0972  0.0512
45973SOL    HW142730   8.661   7.326   1.283  2.0360  0.4495  1.4993
45973SOL    HW242731   8.662   7.338   1.133 -1.2021 -1.9537  1.1552
45974SOL     OW42732  10.095   8.922   1.200 -0.1897  0.1701  0.1850
45974SOL    HW142733  10.154   8.994   1.179  0.3938 -0.2700  0.2641
45974SOL    HW242734  10.138   8.844   1.164 -1.0317 -0.0840 -0.3062
45975SOL     OW42735   3.503   3.212   3.699 -0.5326  0.3925  0.1453
45975SOL    HW142736   3.567   3.278   3.729 -0.8122  0.2861  0.9851
45975SOL    HW242737   3.492   3.154   3.773  0.2889 -1.0844 -0.8390
45976SOL     OW42738   8.550   7.579   1.728 -0.5520  0.5316  0.0280
45976SOL    HW142739   8.609   7.549   1.797 -1.0413  0.9696  0.6425
45976SOL    HW242740   8.489   7.507   1.714  0.5855 -0.2527 -1.1730
45977SOL     OW42741   2.086   3.441   7.991 -0.6886  0.1395  0.2258
45977SOL    HW142742   2.092   3.346   7.992 -3.0869 -0.1696  3.6915
45977SOL    HW242743   2.031   3.461   7.916 -0.6970 -1.2656 -0.1691
45978SOL     OW42744  11.093   7.541   4.851  0.2091  0.7548  0.0522
45978SOL    HW142745  11.128   7.454   4.829 -0.0970  0.2903  1.3187
45978SOL    HW242746  11.171   7.595   4.866  0.4169  0.2956  0.7078
45979SOL     OW42747  10.295   7.253   0.175  1.0236 -1.2054  0.1322
45979SOL    HW142748  10.321   7.242   0.266  1.9402  1.2673  0.2354
45979SOL    HW242749  10.345   7.329   0.145 -0.6897 -0.7943 -1.8608
45980SOL     OW42750   8.822   6.772   7.143 -0.2732 -0.7755  0.6081
45980SOL    HW142751   8.788   6.862   7.147 -0.8611 -1.0387  1.8323
45980SOL    HW242752   8.890   6.770   7.210 -0.9560 -1.5278  1.2885
45981SOL     OW42753   5.886   3.865   0.223  0.5916 -0.3568 -0.1269
45981SOL    HW142754   5.820   3.855   0.292  1.1282 -1.4529  0.2609
45981SOL    HW242755   5.925   3.778   0.215  0.5817 -0.2398 -1.7966
45982SOL     OW42756   5.885  12.314   3.398 -0.1736 -0.4900 -0.0739
45982SOL    HW142757   5.900  12.225   3.430 -1.2368 -1.2628 -1.5950
45982SOL    HW242758   5.801  12.309   3.353  0.6693  0.8031 -1.8888
45983SOL     OW42759   7.980   6.753  12.031 -0.0114 -0.2865 -0.4956
45983SOL    HW142760   8.075   6.739  12.040 -0.4352 -3.8286 -0.3987
45983SOL    HW242761   7.963   6.740  11.938 -0.2318  2.3039 -0.8852
45984SOL     OW42762  11.373   4.459   1.427  0.0722 -0.8441  0.0008
45984SOL    HW142763  11.398   4.368   1.444  1.1726 -0.5344  0.1369
45984SOL    HW242764  11.304   4.477   1.491  1.7636 -0.7697  1.9057
45985SOL     OW42765   0.962   2.631   6.910 -0.3489  0.1198  0.1443
45985SOL    HW142766   0.978   2.724   6.929 -2.7520  0.8248 -0.9217
45985SOL    HW242767   1.005   2.616   6.826  0.5072  0.0839  0.5727
45986SOL     OW42768   8.823   5.757   7.953 -0.2816 -0.6559 -0.3478
45986SOL    HW142769   8.901   5.796   7.915 -0.6284  1.0012  0.5586
45986SOL    HW242770   8.852   5.672   7.987  1.5397  0.6112  1.4343
45987SOL     OW42771   8.758  12.502  12.185 -0.0862  0.0739 -0.1097
45987SOL    HW142772   8.722  12.442  12.120 -1.5321  0.4404  0.3216
45987SOL    HW242773   8.734  12.589  12.154  1.2942  0.4090 -0.3039
45988SOL     OW42774   6.012   8.109   3.743 -0.6201  0.2783  0.6983
45988SOL    HW142775   6.103   8.132   3.729 -0.8605  0.1739 -1.2297
45988SOL    HW242776   6.015   8.043   3.813  0.8922 -0.6543 -0.1975
45989SOL     OW42777   6.767   6.245   5.520  0.2310 -0.0663 -0.4691
45989SOL    HW142778   6.853   6.226   5.483  0.0674  0.1355 -0.9613
45989SOL    HW242779   6.705   6.200   5.463  0.0380 -0.6956  0.2212
45990SOL     OW42780   2.599   4.114   7.426 -0.1818  0.0330 -0.1385
45990SOL    HW142781   2.656   4.069   7.488  0.7691  0.2856 -0.7956
45990SOL    HW242782   2.537   4.048   7.397  1.5942 -1.0921 -1.5808
45991SOL     OW42783   0.080   5.588  10.731 -0.2103 -1.0266 -0.5058
45991SOL    HW142784   0.058   5.677  10.757 -1.1965 -1.8185  1.5581
45991SOL    HW242785   0.175   5.582  10.742 -0.0161 -0.0472 -1.4195
45992SOL     OW42786   3.179   0.330  12.195 -0.0528 -0.2282  0.3796
45992SOL    HW142787   3.197   0.359  12.106  2.4702 -2.4413  0.0489
45992SOL    HW242788   3.142   0.407  12.238 -1.7090  0.7984 -2.6200
45993SOL     OW42789   0.050   6.204   9.976  0.1193  0.0265 -0.2941
45993SOL    HW142790   0.139   6.212  10.011  0.1569 -0.2663 -0.3199
45993SOL    HW242791   0.042   6.111   9.952 -0.1874  0.0557 -0.3065
45994SOL     OW42792  11.670  10.838   0.792 -0.3353  0.0939 -0.6945
45994SOL    HW142793  11.734  10.793   0.736  0.4156  1.4454 -0.9500
45994SOL    HW242794  11.604  10.771   0.811  1.9967 -1.9405  1.0116
45995SOL     OW42795   9.059   5.029   2.510 -0.9157 -0.2393  0.5007
45995SOL    HW142796   8.979   4.984   2.538 -1.9635  1.0293 -0.2641
45995SOL    HW242797   9.044   5.120   2.536  0.4026 -0.0239  0.5502
45996SOL     OW42798   6.431   3.855   5.840 -0.1300 -0.2490  0.0997
45996SOL    HW142799   6.337   3.871   5.841 -0.0787  0.5090 -2.0080
45996SOL    HW242800   6.452   3.837   5.749  1.6005 -1.6311  0.7022
45997SOL     OW42801   1.675   6.563  12.292  0.2901 -0.2759  0.6681
45997SOL    HW142802   1.697   6.588  12.202  0.7865  0.6321  1.0348
45997SOL    HW242803   1.590   6.519  12.284 -1.2436  2.5289  0.1005
45998SOL     OW42804   2.129  10.007   1.953 -0.6026  0.1111 -0.4803
45998SOL    HW142805   2.093   9.920   1.973  1.5677 -0.5365  0.9958
45998SOL    HW242806   2.134  10.009   1.857 -1.0978 -1.2097 -0.5556
45999SOL     OW42807   6.492   0.475  11.976 -0.2789  0.2267 -0.2341
45999SOL    HW142808   6.421   0.449  12.035 -1.5378 -1.2653 -2.2537
45999SOL    HW242809   6.544   0.395  11.965  1.5631  1.2054  0.9315
46000SOL     OW42810   4.833   7.171   9.359 -0.1557  0.1807  0.4557
46000SOL    HW142811   4.858   7.230   9.430 -1.4064  0.5881  0.5797
46000SOL    HW242812   4.737   7.175   9.357 -0.1364  0.7785 -1.7574
46001SOL     OW42813   0.426  12.516  10.825  0.5205  0.1903 -0.2240
46001SOL    HW142814   0.378  12.598  10.832 -1.8165 -1.1941  1.7769
46001SOL    HW242815   0.456  12.497  10.914  1.5181 -0.8594 -0.7452
46002SOL     OW42816   5.265   6.829   9.173  0.3855 -0.0924 -0.1822
46002SOL    HW142817   5.183   6.780   9.184  1.1851 -1.4786 -0.2053
46002SOL    HW242818   5.237   6.915   9.143 -0.9938 -1.0799 -1.9439
46003SOL     OW42819   2.428   5.892   5.043  0.3999 -0.9463  1.0553
46003SOL    HW142820   2.489   5.964   5.025 -2.2939  1.8511  2.1553
46003SOL    HW242821   2.374   5.887   4.964 -0.3366 -0.7424  1.5358
46004SOL     OW42822   8.057   2.731   5.236 -0.3514  0.3099 -0.5418
46004SOL    HW142823   8.040   2.659   5.175  1.7357 -1.2255  0.5647
46004SOL    HW242824   7.980   2.734   5.292 -1.4815  0.5265 -2.0365
46005SOL     OW42825   1.400  11.740  10.226  0.3623 -0.3313  0.1059
46005SOL    HW142826   1.342  11.668  10.250 -0.0862  0.3603  1.1444
46005SOL    HW242827   1.415  11.788  10.307  0.4597  0.8873 -0.5964
46006SOL     OW42828   6.372   9.556   2.250  0.3211 -0.6592  0.1572
46006SOL    HW142829   6.332   9.561   2.337  0.7263 -1.5488  0.3976
46006SOL    HW242830   6.409   9.468   2.245  0.8181 -0.4106 -0.6922
46007SOL     OW42831   9.359   1.835   9.959  0.1450 -0.2332 -0.0195
46007SOL    HW142832   9.349   1.891   9.882 -0.7068 -0.9257 -0.4233
46007SOL    HW242833   9.409   1.889  10.021  0.3481  0.5382 -0.8350
46008SOL     OW42834   7.034   0.763   6.137  0.3110 -0.0241 -0.6675
46008SOL    HW142835   6.942   0.787   6.132  0.3966  0.1512 -1.3819
46008SOL    HW242836   7.051   0.714   6.057  1.1543  1.0208 -1.1395
46009SOL     OW42837   6.218   5.724   8.757 -0.3920 -0.0465  0.1639
46009SOL    HW142838   6.161   5.787   8.802 -0.8722  1.0034 -1.8058
46009SOL    HW242839   6.159   5.679   8.696  0.3106 -1.1801  0.3011
46010SOL     OW42840  11.507   7.514   0.098 -0.1635  0.0921 -0.0200
46010SOL    HW142841  11.526   7.534   0.190  0.1947 -0.4623  0.0324
46010SOL    HW242842  11.592   7.489   0.062 -0.4205 -0.3304 -0.3361
46011SOL     OW42843   6.527   6.215  10.811  0.0595 -0.3960 -0.2725
46011SOL    HW142844   6.607   6.261  10.785  0.3649 -0.2937  0.8000
46011SOL    HW242845   6.535   6.205  10.906 -1.7336  0.6257  0.0305
46012SOL     OW42846   9.922   5.933   8.101 -0.2533  0.1202  0.0179
46012SOL    HW142847   9.960   5.904   8.018 -2.4279  0.5540 -1.2089
46012SOL    HW242848   9.864   5.861   8.128  0.7723 -0.2186  1.4463
46013SOL     OW42849   1.762   6.640   9.204  0.0178 -0.0299  1.0101
46013SOL    HW142850   1.767   6.605   9.293 -0.3689  0.6829  1.3209
46013SOL    HW242851   1.736   6.732   9.216 -0.0721  0.0610  0.1616
46014SOL     OW42852   4.450  10.357   9.582 -0.0731  0.2778 -0.1883
46014SOL    HW142853   4.378  10.303   9.615  0.3803 -1.0323 -1.2436
46014SOL    HW242854   4.511  10.362   9.655  0.1393 -1.1464 -0.2353
46015SOL     OW42855  10.550  10.599   0.382  0.3926 -0.0954  0.2430
46015SOL    HW142856  10.535  10.528   0.319 -0.4139 -0.3136  0.6658
46015SOL    HW242857  10.639  10.586   0.413  0.8064  0.0334 -0.8726
46016SOL     OW42858   4.492   2.752   8.613  0.3317 -0.3713 -0.1000
46016SOL    HW142859   4.572   2.720   8.573  0.9344 -0.2348  0.9528
46016SOL    HW242860   4.422   2.721   8.556  1.0375 -1.6698 -0.2969
46017SOL     OW42861   1.269   6.009   1.820 -0.1026  0.6611 -0.8626
46017SOL    HW142862   1.198   5.977   1.875 -0.2873 -0.0206 -1.4884
46017SOL    HW242863   1.240   6.097   1.793  0.3110  1.3074  0.6724
46018SOL     OW42864  11.845  10.954   0.017  0.1742  0.0367 -0.0831
46018SOL    HW142865  11.796  11.022  -0.028  1.1958  0.8564 -0.0031
46018SOL    HW242866  11.895  10.911  -0.053 -0.4407 -0.6215 -0.1287
46019SOL     OW42867  10.494   2.704   9.794  0.0549  0.1678 -0.6299
46019SOL    HW142868  10.407   2.679   9.825 -0.1803  1.4960 -0.1212
46019SOL    HW242869  10.554   2.652   9.847 -0.3962 -2.2362 -2.3174
46020SOL     OW42870   6.233   5.764   3.997  0.2038 -0.0843  0.1799
46020SOL    HW142871   6.281   5.682   4.000  1.1738  0.4642  2.7629
46020SOL    HW242872   6.155   5.748   4.051 -0.1852  0.3568 -0.2426
46021SOL     OW42873   6.207   4.038   6.136  0.3530 -0.3130  0.2066
46021SOL    HW142874   6.211   4.009   6.045 -0.9911 -0.0826  0.0607
46021SOL    HW242875   6.114   4.037   6.158  0.6115  0.1670  1.4061
46022SOL     OW42876  11.393   3.922  11.629  0.0419 -0.1591 -0.0116
46022SOL    HW142877  11.336   3.990  11.667  1.2801  1.7797 -1.4015
46022SOL    HW242878  11.335   3.869  11.576 -1.1808 -1.0385  2.0826
46023SOL     OW42879   1.723   6.392   4.042  0.1550  0.6460  0.1209
46023SOL    HW142880   1.776   6.411   4.119 -0.0703  1.1608  0.1533
46023SOL    HW242881   1.635   6.423   4.065  0.3929  2.2213 -0.8822
46024SOL     OW42882   0.265   4.505  11.693 -0.4858  0.5743  0.1431
46024SOL    HW142883   0.351   4.467  11.709 -1.1289 -1.0426 -0.0259
46024SOL    HW242884   0.234   4.532  11.779  0.6786  2.3556  0.0489
46025SOL     OW42885   6.754  12.384   7.603 -0.2362 -0.2955  0.2537
46025SOL    HW142886   6.732  12.299   7.642  1.2990 -1.0027 -0.3443
46025SOL    HW242887   6.839  12.371   7.563  0.5708  1.8487  1.0967
46026SOL     OW42888  11.703   0.164   2.156 -0.5047  0.6532  0.7805
46026SOL    HW142889  11.693   0.086   2.212  1.4311 -0.3404 -0.1700
46026SOL    HW242890  11.717   0.236   2.218  1.3108 -0.3806  1.6326
46027SOL     OW42891   3.561   3.413   0.779 -0.6569 -0.0884  0.4364
46027SOL    HW142892   3.531   3.478   0.716 -1.3350 -1.4140 -0.6849
46027SOL    HW242893   3.494   3.411   0.847 -0.8537  0.0862  0.2457
46028SOL     OW42894  11.427  10.071   0.806  0.5466  0.6361 -0.1307
46028SOL    HW142895  11.373  10.056   0.883 -0.3361  2.1214 -0.4284
46028SOL    HW242896  11.395  10.007   0.741  1.3384 -0.6591  0.7023
46029SOL     OW42897  10.900   5.859   1.894  0.7172  0.3611 -0.0067
46029SOL    HW142898  10.912   5.880   1.801  0.9736 -2.0690 -0.5875
46029SOL    HW242899  10.814   5.895   1.915 -0.2361 -0.7220 -1.7784
46030SOL     OW42900   2.129   0.797   9.961 -0.1821 -0.2944 -0.1788
46030SOL    HW142901   2.091   0.884   9.951  1.3009  0.7365  2.3402
46030SOL    HW242902   2.199   0.794   9.896  0.9732  1.1743  0.9510
46031SOL     OW42903   7.311  11.291   5.435 -0.4277  0.2849 -0.1216
46031SOL    HW142904   7.375  11.220   5.444 -2.7327 -1.6562  2.8576
46031SOL    HW242905   7.227  11.246   5.422 -1.3993  2.7247 -3.8334
46032SOL     OW42906   5.111  10.752  10.338 -0.0949 -0.1976  0.1312
46032SOL    HW142907   5.143  10.839  10.317  0.7539 -0.3958  0.5288
46032SOL    HW242908   5.097  10.754  10.433  1.6345 -0.9823  0.4573
46033SOL     OW42909   9.373   7.942   5.390 -0.3292  0.0423  0.2406
46033SOL    HW142910   9.331   7.878   5.448 -2.2525  0.1561 -0.9417
46033SOL    HW242911   9.323   7.937   5.308  0.9309  1.4364 -0.6734
46034SOL     OW42912   2.575   3.013   0.351  0.5700  0.1823 -0.7257
46034SOL    HW142913   2.556   2.919   0.351  1.6456 -0.0484 -1.2856
46034SOL    HW242914   2.493   3.053   0.322  0.0727 -0.5723 -0.4038
46035SOL     OW42915  10.408   9.692   0.881  0.4320 -0.6739  0.2262
46035SOL    HW142916  10.316   9.692   0.854  0.0089 -2.1735  1.5143
46035SOL    HW242917  10.452   9.637   0.816  0.8225  1.4696 -1.4343
46036SOL     OW42918   9.686   9.378   0.766  0.0287 -0.0481 -0.6745
46036SOL    HW142919   9.659   9.430   0.691 -2.1679 -1.3406 -0.8443
46036SOL    HW242920   9.605   9.351   0.808  1.1378 -1.4926  0.6845
46037SOL     OW42921   2.698  10.717   8.751 -0.5259 -0.1307 -0.2211
46037SOL    HW142922   2.632  10.778   8.785 -1.1267 -1.8099  1.8359
46037SOL    HW242923   2.694  10.729   8.656 -1.4614  2.1336  0.0301
46038SOL     OW42924   4.364   8.020   6.483 -0.0597 -0.1534  0.1588
46038SOL    HW142925   4.298   8.009   6.415  1.2180  1.2523 -1.4261
46038SOL    HW242926   4.371   7.934   6.524 -0.7947 -1.1101 -1.5990
46039SOL     OW42927  11.910  12.263   4.074 -0.1838 -0.0676  0.0072
46039SOL    HW142928  11.933  12.311   4.154 -2.3507  1.4812 -0.2199
46039SOL    HW242929  11.926  12.325   4.003  0.6463 -1.0478 -0.6869
46040SOL     OW42930   8.569   0.430   8.922 -0.6775 -0.0155  0.0891
46040SOL    HW142931   8.616   0.372   8.982 -0.7957 -0.6440 -0.4092
46040SOL    HW242932   8.553   0.376   8.845  0.4700  1.1087 -0.9739
46041SOL     OW42933  10.274   8.162   7.599 -0.1676 -0.2602  0.1217
46041SOL    HW142934  10.261   8.138   7.691 -1.1064 -0.3327 -0.0194
46041SOL    HW242935  10.190   8.145   7.558 -0.5039  2.0411 -0.2743
46042SOL     OW42936   7.594   0.541   9.612  0.3257  0.3012  0.3124
46042SOL    HW142937   7.633   0.454   9.600  0.3734  0.2177  1.0720
46042SOL    HW242938   7.645   0.597   9.553 -0.5401 -0.4035 -1.1814
46043SOL     OW42939   4.813   3.230   9.105  0.4361  0.0456 -0.6194
46043SOL    HW142940   4.861   3.194   9.179 -0.2072  1.3083  0.4506
46043SOL    HW242941   4.725   3.246   9.138 -0.0582 -0.0096 -1.8625
46044SOL     OW42942   7.781   7.742  10.635 -0.0245 -0.0089  0.3140
46044SOL    HW142943   7.698   7.727  10.680  0.0797 -0.6447  0.2899
46044SOL    HW242944   7.777   7.686  10.558 -0.7259  1.9429 -1.1620
46045SOL     OW42945   2.667   5.499   1.521  0.2759 -0.1351  0.3819
46045SOL    HW142946   2.603   5.434   1.491  0.8875 -1.4760  1.8799
46045SOL    HW242947   2.651   5.508   1.615  2.1262 -0.3198  0.7507
46046SOL     OW42948   3.785   9.489   2.543  0.3941  0.2505  0.0028
46046SOL    HW142949   3.740   9.429   2.483  1.1259  0.7061 -1.0289
46046SOL    HW242950   3.877   9.484   2.517  0.8273  0.0147  1.4870
46047SOL     OW42951  12.098  11.496  10.110 -0.0434  0.1836  0.7072
46047SOL    HW142952  12.175  11.552  10.119 -0.0885  0.3922 -0.1273
46047SOL    HW242953  12.034  11.532  10.172 -0.2116  1.3125 -0.0921
46048SOL     OW42954   5.577   8.911   5.266  0.2164  0.4230  0.1497
46048SOL    HW142955   5.640   8.940   5.333 -1.1133  0.1781  1.5687
46048SOL    HW242956   5.535   8.834   5.305 -2.1149  1.5361  0.0010
46049SOL     OW42957   0.794  12.515   1.555 -0.0246  0.4945  0.4195
46049SOL    HW142958   0.863  12.540   1.617  0.9270 -0.4415 -0.2225
46049SOL    HW242959   0.841  12.500   1.473 -1.0876  0.4495 -0.1873
46050SOL     OW42960   6.336   3.581   7.253  0.3374  0.1684  0.1441
46050SOL    HW142961   6.296   3.552   7.334 -0.0424  0.8454  0.2101
46050SOL    HW242962   6.428   3.597   7.275  0.4002 -0.3378  0.2597
46051SOL     OW42963  12.624   1.307  11.897 -0.6283 -0.3159 -0.1014
46051SOL    HW142964  12.551   1.264  11.853  1.7021 -1.6304 -3.1288
46051SOL    HW242965  12.661   1.366  11.830  3.0116 -2.2626 -0.0940
46052SOL     OW42966  10.598   0.944   3.196  0.5009 -0.5547  0.5837
46052SOL    HW142967  10.656   1.006   3.150 -1.2308 -0.4960 -1.7165
46052SOL    HW242968  10.547   0.999   3.255  0.7997 -0.1955  0.5143
46053SOL     OW42969   3.223   2.351   1.454  0.4686 -0.2795 -0.0802
46053SOL    HW142970   3.312   2.318   1.450  0.3201 -0.9362  1.3874
46053SOL    HW242971   3.226   2.421   1.520  0.2082  0.8032 -1.1768
46054SOL     OW42972   6.715  11.672   7.573 -0.2424  0.1246  0.2781
46054SOL    HW142973   6.811  11.669   7.580 -0.2038 -1.1926 -0.5902
46054SOL    HW242974   6.684  11.653   7.662  0.3010 -1.8346  0.0849
46055SOL     OW42975  10.552   2.435   9.456  0.0925  0.0544  0.3261
46055SOL    HW142976  10.631   2.477   9.423  0.6060 -0.0550  1.3885
46055SOL    HW242977  10.481   2.495   9.432  0.5606  0.4473 -0.0979
46056SOL     OW42978   9.055   0.415   7.191 -0.1721 -0.1661  0.4500
46056SOL    HW142979   9.031   0.366   7.270 -0.2261 -1.7309 -0.5074
46056SOL    HW242980   9.123   0.476   7.221 -2.2307  1.3932  2.3026
46057SOL     OW42981   8.929   8.261   4.202 -0.4266 -0.0097  0.6211
46057SOL    HW142982   8.934   8.335   4.263  0.1181 -0.3603  1.0021
46057SOL    HW242983   8.835   8.246   4.192 -0.5280 -0.1641  1.6492
46058SOL     OW42984   7.784  12.174   3.591 -0.3045 -0.2598 -0.0505
46058SOL    HW142985   7.862  12.228   3.576 -0.6788  0.2600 -0.1450
46058SOL    HW242986   7.724  12.199   3.521 -0.8876 -0.0324  0.5229
46059SOL     OW42987   2.257  11.187  12.341 -0.6868 -0.1829  0.3764
46059SOL    HW142988   2.263  11.214  12.432 -0.2909  0.3693  0.1922
46059SOL    HW242989   2.335  11.133  12.326 -0.1282  0.7071  0.0454
46060SOL     OW42990   7.622  10.777   3.260  0.2865 -0.3578  0.0294
46060SOL    HW142991   7.559  10.740   3.322  0.9208 -0.1429  0.8109
46060SOL    HW242992   7.678  10.833   3.313  2.3677 -2.0102 -0.3016
46061SOL     OW42993   5.784  11.194   7.907 -0.0882 -0.2104 -0.3256
46061SOL    HW142994   5.759  11.200   7.999 -1.1743 -0.5512 -0.5793
46061SOL    HW242995   5.772  11.283   7.873 -1.2135 -0.4054 -0.4866
46062SOL     OW42996   4.805   5.723   2.240 -0.6781 -0.2543 -0.3660
46062SOL    HW142997   4.789   5.648   2.297  1.9072 -0.2345  0.5203
46062SOL    HW242998   4.811   5.798   2.300 -1.7047  0.4397 -1.0901
46063SOL     OW42999   3.958  11.859  12.581 -0.4347 -0.0910 -0.1821
46063SOL    HW143000   4.006  11.941  12.594 -0.3542 -0.2294  0.4288
46063SOL    HW243001   3.994  11.823  12.500  0.8646 -0.4347  0.5199
46064SOL     OW43002   7.199   3.235  10.273 -0.4715 -0.1100  0.0260
46064SOL    HW143003   7.103   3.240  10.274 -0.4179  2.9299 -0.2438
46064SOL    HW243004   7.218   3.146  10.246 -3.2694 -0.0408 -2.7672
46065SOL     OW43005   1.172  10.971   6.902  0.0594  0.1400 -0.1533
46065SOL    HW143006   1.248  10.971   6.959  0.4775  0.5533 -0.7026
46065SOL    HW243007   1.135  10.883   6.911  0.0997  0.2120  0.7713
46066SOL     OW43008  10.472   7.869  10.944 -0.5989 -0.0852 -0.6514
46066SOL    HW143009  10.400   7.828  10.896 -3.1050  1.4249  1.5116
46066SOL    HW243010  10.496   7.805  11.010 -0.4078 -0.3402 -0.9655
46067SOL     OW43011   7.118   9.231   6.069 -0.6522 -0.3120 -0.2990
46067SOL    HW143012   7.168   9.181   6.133 -1.9716 -0.7597  0.4310
46067SOL    HW243013   7.177   9.243   5.995  0.3251 -1.2846  0.3055
46068SOL     OW43014   7.755   3.024   3.727  0.0849 -0.2511  0.3748
46068SOL    HW143015   7.691   2.953   3.741 -0.2285 -0.3142 -1.1903
46068SOL    HW243016   7.776   3.019   3.633 -0.3398  2.0541  0.1006
46069SOL     OW43017   9.132   1.768   1.783 -0.0376  0.5522  0.4829
46069SOL    HW143018   9.173   1.704   1.841  0.5812  0.1827 -0.3492
46069SOL    HW243019   9.058   1.722   1.745  0.9670 -0.0140 -0.8526
46070SOL     OW43020   8.833   6.537   9.078  0.2242 -0.0602 -0.6465
46070SOL    HW143021   8.896   6.609   9.071 -0.1536  0.1784 -1.7028
46070SOL    HW243022   8.748   6.580   9.072 -0.0184 -0.5259 -0.5713
46071SOL     OW43023   9.882   2.555   3.211 -0.4108 -0.2997  0.0343
46071SOL    HW143024   9.890   2.646   3.181  0.2811  0.2181  1.6443
46071SOL    HW243025   9.973   2.526   3.223 -0.6387 -0.8714  0.4360
46072SOL     OW43026   4.036   8.705   4.694 -0.4548  0.4547  0.7271
46072SOL    HW143027   4.002   8.641   4.631 -1.6829  0.6798  1.1200
46072SOL    HW243028   4.086   8.653   4.757  2.0468  0.3841 -1.1742
46073SOL     OW43029   9.169   4.170  12.270  0.5122 -0.7157  0.2624
46073SOL    HW143030   9.202   4.117  12.198  1.4162  0.2270 -0.0565
46073SOL    HW243031   9.074   4.166  12.263  0.5332  0.9374 -2.2234
46074SOL     OW43032   8.700   7.773   0.860  0.3313 -0.0637 -0.2628
46074SOL    HW143033   8.782   7.724   0.866  0.2005 -0.5900 -2.1490
46074SOL    HW243034   8.700   7.808   0.770  0.2275  3.0608  0.8212
46075SOL     OW43035   2.653   3.638   4.064  0.6449  0.0342  0.1549
46075SOL    HW143036   2.681   3.711   4.118  0.9193 -0.7036  1.0362
46075SOL    HW243037   2.564   3.661   4.036  0.6036  0.5452  0.6973
46076SOL     OW43038   5.962  12.591   7.934  0.3321 -0.0029  0.2830
46076SOL    HW143039   6.055  12.571   7.946  0.4417 -0.2218 -0.8555
46076SOL    HW243040   5.961  12.661   7.869 -0.3872 -2.0039 -1.9813
46077SOL     OW43041   9.205   3.298  11.326  0.0198 -0.1597 -0.5687
46077SOL    HW143042   9.161   3.273  11.406  1.2723  1.6607  0.7843
46077SOL    HW243043   9.298   3.298  11.348  0.2978  2.1735 -1.3913
46078SOL     OW43044  10.267   6.932   3.290 -0.0970 -0.2166 -0.2409
46078SOL    HW143045  10.228   6.845   3.296 -2.1491  0.5080 -1.7906
46078SOL    HW243046  10.357   6.921   3.321 -0.6110 -2.6414  0.5823
46079SOL     OW43047   1.773   9.216   6.852 -0.4953 -0.3015 -0.4446
46079SOL    HW143048   1.854   9.187   6.810  0.0780 -0.2538  0.5812
46079SOL    HW243049   1.766   9.162   6.931  0.4876  2.0859  1.4198
46080SOL     OW43050   3.378   8.318  10.569  0.2231  0.2353  0.0602
46080SOL    HW143051   3.445   8.271  10.520  0.4064 -0.0676  0.5853
46080SOL    HW243052   3.425   8.354  10.645  0.1075  1.3595 -0.3892
46081SOL     OW43053   8.544   8.801   3.487 -0.3397  0.3012 -0.0901
46081SOL    HW143054   8.488   8.733   3.524 -0.8988  1.3117  1.0103
46081SOL    HW243055   8.496   8.883   3.504  0.3532  0.9759 -1.2821
46082SOL     OW43056   5.795   3.440   0.690 -0.0411  0.3407  0.4238
46082SOL    HW143057   5.830   3.518   0.732  0.0028  0.2686  0.5201
46082SOL    HW243058   5.700   3.448   0.701  0.0170 -0.2442  1.5492
46083SOL     OW43059   9.350   3.462   2.884  0.5417  0.5403  0.0851
46083SOL    HW143060   9.282   3.529   2.895 -0.4209 -0.5257  0.8788
46083SOL    HW243061   9.411   3.478   2.956  0.0037  0.2212  0.6216
46084SOL     OW43062   7.737   5.093  12.210  0.2886 -0.4360 -0.3536
46084SOL    HW143063   7.794   5.164  12.180  1.7110 -0.5059  1.9129
46084SOL    HW243064   7.730   5.034  12.135  3.0247 -0.2846 -0.8241
46085SOL     OW43065   1.845  11.273   6.538  0.2317 -0.1590 -0.6348
46085SOL    HW143066   1.753  11.286   6.513  0.7146  1.5547 -1.7537
46085SOL    HW243067   1.894  11.326   6.475  1.9043  0.0426  0.7660
46086SOL     OW43068   4.740  11.630   0.497 -0.0114  0.2921 -0.5520
46086SOL    HW143069   4.748  11.611   0.590  0.9223 -0.7124 -0.8080
46086SOL    HW243070   4.828  11.658   0.470 -0.1150 -0.0020 -1.2317
46087SOL     OW43071  12.569   5.297   0.193  0.1659  0.7861  0.3777
46087SOL    HW143072  12.605   5.361   0.132 -0.3215  0.5144 -0.2079
46087SOL    HW243073  12.507   5.246   0.140  1.8987 -1.4148  0.3280
46088SOL     OW43074   2.701  11.703   7.504  0.4422  0.6139  0.1853
46088SOL    HW143075   2.640  11.718   7.576  0.1800  1.6281 -0.2302
46088SOL    HW243076   2.648  11.659   7.437  0.5530  0.1531  0.3934
46089SOL     OW43077   1.214   8.531   9.815 -0.1291  0.0637  0.0147
46089SOL    HW143078   1.215   8.507   9.907 -3.2807  0.1900  0.2018
46089SOL    HW243079   1.209   8.627   9.815 -1.1695  0.0264 -0.1937
46090SOL     OW43080   2.493   0.436   0.874 -0.0368 -0.3952 -0.4164
46090SOL    HW143081   2.488   0.518   0.825  0.9685 -0.4861 -0.6884
46090SOL    HW243082   2.514   0.463   0.964  0.2306 -0.3474 -0.4924
46091SOL     OW43083   6.649  11.298   9.210 -0.1294 -0.5329  0.5205
46091SOL    HW143084   6.562  11.324   9.241  0.0999  0.3372  0.4727
46091SOL    HW243085   6.643  11.204   9.198 -0.7352 -0.6454  1.5870
46092SOL     OW43086   2.997   4.876   1.235 -0.2894  0.3646 -0.3126
46092SOL    HW143087   2.922   4.920   1.276 -0.2132 -0.3423  0.6061
46092SOL    HW243088   3.051   4.948   1.202 -0.2731  0.9655  0.9719
46093SOL     OW43089   6.846  11.322   7.919  0.1583 -0.1232 -0.0405
46093SOL    HW143090   6.815  11.236   7.890 -0.6219  0.7995 -2.1083
46093SOL    HW243091   6.788  11.345   7.992 -0.4691 -0.7942 -0.3202
46094SOL     OW43092   6.245   0.429   8.251  0.0637 -0.1446 -0.2574
46094SOL    HW143093   6.340   0.435   8.254  0.0535 -0.3563  0.7247
46094SOL    HW243094   6.224   0.350   8.300 -0.6415  0.1203 -0.1165
46095SOL     OW43095   6.667   3.785   2.036  0.1539 -0.4273  0.5714
46095SOL    HW143096   6.691   3.872   2.066 -1.9347  0.7996 -1.0212
46095SOL    HW243097   6.733   3.764   1.969 -0.1320  0.5552 -0.0323
46096SOL     OW43098   1.853   1.537   5.365 -0.2744  0.7051 -0.2768
46096SOL    HW143099   1.769   1.499   5.392  0.2085 -2.0084 -2.2157
46096SOL    HW243100   1.831   1.624   5.333 -2.3309  0.1037 -0.6316
46097SOL     OW43101   7.475   0.208   0.864 -0.4842 -0.9007 -0.1370
46097SOL    HW143102   7.541   0.193   0.797 -0.7632 -0.5019 -0.5095
46097SOL    HW243103   7.428   0.126   0.871 -0.9420 -0.7206 -0.9765
46098SOL     OW43104   6.347   4.077   6.924 -0.0290 -0.2187 -0.0728
46098SOL    HW143105   6.438   4.071   6.894  0.1313 -0.4055  0.4380
46098SOL    HW243106   6.299   4.018   6.867  0.0614  0.3647 -0.7640
46099SOL     OW43107   5.815   5.245   6.986 -0.1212  0.0004 -0.4723
46099SOL    HW143108   5.763   5.274   7.061 -0.4675  1.1811 -1.1478
46099SOL    HW243109   5.816   5.150   6.993 -2.3984 -0.0770 -0.4463
46100SOL     OW43110   5.641   6.306  12.037  0.1023 -0.4317  0.1236
46100SOL    HW143111   5.733   6.328  12.020 -0.0998  0.1095 -0.2903
46100SOL    HW243112   5.600   6.389  12.059 -0.4018 -0.5852 -0.2223
46101SOL     OW43113   6.272  10.225   1.114  0.1465 -0.6109 -0.0131
46101SOL    HW143114   6.217  10.173   1.055  1.3699 -0.8713 -0.9696
46101SOL    HW243115   6.283  10.309   1.069  1.0549 -0.7950 -0.1560
46102SOL     OW43116   8.549   7.384   1.435 -0.5922  0.2861  0.0441
46102SOL    HW143117   8.471   7.436   1.418 -1.6161 -1.0928  0.3200
46102SOL    HW243118   8.584   7.418   1.518 -0.7794  1.0364 -0.1825
46103SOL     OW43119   0.202   3.357   7.138  0.3059  0.1041 -0.2946
46103SOL    HW143120   0.161   3.441   7.120  0.7702  1.3606  3.4605
46103SOL    HW243121   0.199   3.310   7.055 -0.4715  3.5721 -2.4443
46104SOL     OW43122   9.870   4.914  10.365 -0.2355  0.4344 -0.7347
46104SOL    HW143123   9.925   4.984  10.400 -0.4181  0.2345 -0.0345
46104SOL    HW243124   9.924   4.874  10.297 -0.2596  1.4700 -1.3963
46105SOL     OW43125   6.989   2.610   2.213  0.1681 -0.0787 -0.2350
46105SOL    HW143126   7.054   2.539   2.205 -0.5770 -0.6932 -1.0176
46105SOL    HW243127   6.961   2.627   2.123 -0.3581  0.5642  0.0404
46106SOL     OW43128   2.409   9.374   7.870  0.2792 -0.4530  0.0249
46106SOL    HW143129   2.434   9.412   7.955  1.0045 -1.3119  0.2097
46106SOL    HW243130   2.472   9.303   7.856  2.0610  1.4180 -2.5816
46107SOL     OW43131   8.536  10.477   2.300  0.4366 -0.7925  0.8240
46107SOL    HW143132   8.545  10.385   2.324  1.2425 -0.9421 -0.0396
46107SOL    HW243133   8.483  10.514   2.371  0.7041 -1.7551  1.5532
46108SOL     OW43134   3.094   1.781   3.710 -0.0765  0.2177 -0.3266
46108SOL    HW143135   3.159   1.781   3.639 -0.7285 -0.0442 -0.9422
46108SOL    HW243136   3.091   1.872   3.739  0.0498  0.3708 -0.7846
46109SOL     OW43137   7.434   0.538   7.542 -0.5118 -0.6551  0.5390
46109SOL    HW143138   7.502   0.472   7.555 -1.3982 -1.6860  0.0924
46109SOL    HW243139   7.377   0.501   7.475  0.1554  1.5247 -1.3328
46110SOL     OW43140   5.662   2.863   2.251  0.0121 -0.3729 -0.4600
46110SOL    HW143141   5.567   2.873   2.239  0.1066 -1.6562 -3.2358
46110SOL    HW243142   5.698   2.950   2.235 -0.6853  0.3059  1.3980
46111SOL     OW43143  12.592   5.330   8.671  0.4818 -0.1052  0.5017
46111SOL    HW143144  12.653   5.295   8.736  0.2166  0.5028  1.0928
46111SOL    HW243145  12.552   5.406   8.714 -0.4102 -0.2650 -0.0197
46112SOL     OW43146   3.145  11.994   7.642 -0.0271  0.0314  0.0719
46112SOL    HW143147   3.070  11.937   7.623  2.1836 -3.2562  0.3022
46112SOL    HW243148   3.137  12.014   7.735 -0.3363 -0.7846  0.2293
46113SOL     OW43149  11.839   3.176  10.648 -0.0101  0.4796 -0.0817
46113SOL    HW143150  11.866   3.215  10.564  0.9736  0.1920  0.0930
46113SOL    HW243151  11.860   3.083  10.639  2.2624  0.7670  1.2810
46114SOL     OW43152   5.636   4.915   6.754  0.3953  0.0612 -0.1429
46114SOL    HW143153   5.625   5.003   6.789  1.5559 -0.4125  1.5857
46114SOL    HW243154   5.566   4.904   6.690 -1.1290  1.4495  1.2059
46115SOL     OW43155   5.428   4.172   2.854 -0.4552 -0.0751 -0.4352
46115SOL    HW143156   5.514   4.188   2.815 -0.6270 -0.3792 -0.9561
46115SOL    HW243157   5.444   4.169   2.948  0.0324  0.3102 -0.4973
46116SOL     OW43158   5.007  10.890   1.109 -0.5266 -0.8214 -0.4949
46116SOL    HW143159   4.997  10.985   1.115 -0.6967 -0.8270 -0.6848
46116SOL    HW243160   4.955  10.855   1.182  1.4315 -0.6740  1.0810
46117SOL     OW43161   6.964   2.586   0.032 -0.6480  0.1313 -0.3080
46117SOL    HW143162   6.872   2.607   0.015 -0.3796  1.3243 -0.4090
46117SOL    HW243163   7.010   2.669   0.018  0.3539 -0.2748  0.4385
46118SOL     OW43164   3.214   3.519   3.382  0.3593  0.1612  0.0853
46118SOL    HW143165   3.145   3.566   3.428  0.5320  0.2149  0.2918
46118SOL    HW243166   3.258   3.468   3.450  1.2817  1.0432  0.1850
46119SOL     OW43167   4.922   5.111   5.816  0.3906  0.5824  0.3407
46119SOL    HW143168   4.832   5.077   5.816  0.0109  1.5235 -0.9716
46119SOL    HW243169   4.969   5.056   5.754  0.0234  1.7540 -1.0222
46120SOL     OW43170   4.123   6.683   0.487 -0.4326 -0.8515 -0.0179
46120SOL    HW143171   4.180   6.730   0.425 -0.9000 -1.0860 -0.6406
46120SOL    HW243172   4.141   6.723   0.572 -0.7837  0.4280 -0.5287
46121SOL     OW43173  10.823   4.059   4.825  0.1627  0.2416 -0.3925
46121SOL    HW143174  10.811   4.027   4.735  0.2687 -0.4286 -0.1775
46121SOL    HW243175  10.748   4.023   4.873  0.4784  0.0105 -0.0663
46122SOL     OW43176   9.885   6.507   7.828 -0.5331  0.4346 -0.3824
46122SOL    HW143177   9.892   6.602   7.821 -2.9430  0.5630 -3.1076
46122SOL    HW243178   9.965   6.480   7.872 -0.0395  3.7396  1.0638
46123SOL     OW43179   2.032   0.971   3.792 -0.1795  0.2436  0.0186
46123SOL    HW143180   2.048   0.876   3.798 -1.7009  0.0285  1.5915
46123SOL    HW243181   1.938   0.980   3.808  0.2419  2.1492  1.8857
46124SOL     OW43182  12.637   9.603   4.239 -0.0689 -0.4382 -0.0109
46124SOL    HW143183  12.577   9.650   4.181 -1.3872 -0.8652  0.9562
46124SOL    HW243184  12.591   9.520   4.258  0.9031 -0.8421  0.6261
46125SOL     OW43185   9.104   2.193   8.893  0.2715  0.0215 -0.2453
46125SOL    HW143186   9.155   2.271   8.871 -0.2121  0.2306 -0.6466
46125SOL    HW243187   9.030   2.195   8.832  1.4874 -2.0280 -1.9210
46126SOL     OW43188   7.506   3.660   9.501  0.0530  0.2047 -0.1328
46126SOL    HW143189   7.501   3.634   9.593  1.9039  0.9973  0.2277
46126SOL    HW243190   7.485   3.580   9.452 -1.2634 -0.1495  0.9362
46127SOL     OW43191   4.169  11.051   6.029 -0.0679  0.4478 -0.3742
46127SOL    HW143192   4.094  11.090   5.984  0.4726  0.9677 -0.8454
46127SOL    HW243193   4.136  11.026   6.115 -1.0610 -0.3361 -0.9635
46128SOL     OW43194   2.791  10.442   3.926  0.3998 -0.1792  0.1444
46128SOL    HW143195   2.798  10.364   3.981  0.3422 -1.3911 -1.5158
46128SOL    HW243196   2.787  10.515   3.989  0.3109 -1.4982  1.7325
46129SOL     OW43197   6.072   1.406  10.016  0.0523 -0.7959  0.2218
46129SOL    HW143198   6.042   1.481   9.965  1.7177 -0.5161 -0.4317
46129SOL    HW243199   6.123   1.353   9.954 -0.3710 -2.0249  0.8836
46130SOL     OW43200   3.209  10.888   5.826 -0.1793  0.1088  0.6407
46130SOL    HW143201   3.301  10.873   5.849  0.4464  0.0791 -1.6287
46130SOL    HW243202   3.212  10.951   5.754 -1.9207  0.0126  0.4391
46131SOL     OW43203   3.623   1.181   9.251 -0.4656 -0.0300 -0.3335
46131SOL    HW143204   3.665   1.096   9.262 -0.1480  0.0905 -0.5977
46131SOL    HW243205   3.581   1.198   9.336 -0.8259 -0.6051 -0.3887
46132SOL     OW43206   3.010   8.172   6.049 -0.3829 -0.3561 -0.7997
46132SOL    HW143207   3.098   8.147   6.020 -0.3751 -0.7069 -0.4774
46132SOL    HW243208   2.986   8.244   5.991  0.7192  0.7679  0.1071
46133SOL     OW43209  11.027   9.413   6.661  0.5236  0.5935 -0.0545
46133SOL    HW143210  11.081   9.485   6.627  1.9347 -0.6362 -0.5640
46133SOL    HW243211  11.072   9.334   6.630 -1.1162 -0.5047  0.2761
46134SOL     OW43212   2.796   6.756   2.281  0.2629  0.4487 -0.1484
46134SOL    HW143213   2.734   6.830   2.278 -0.1787  0.0660 -1.2083
46134SOL    HW243214   2.765   6.697   2.212  0.6055 -0.7372  0.6970
46135SOL     OW43215   4.467  11.877   0.294 -0.3936 -0.1301 -0.1403
46135SOL    HW143216   4.486  11.919   0.378  1.8683  1.9063 -1.5670
46135SOL    HW243217   4.421  11.796   0.319  0.7130  0.0681  3.0822
46136SOL     OW43218   9.736   9.897  11.502  0.3015  0.2936 -0.3293
46136SOL    HW143219   9.728   9.925  11.593 -0.3048 -0.7643 -0.0392
46136SOL    HW243220   9.814   9.841  11.501  0.6170  0.7308 -0.5791
46137SOL     OW43221   4.007   6.368   5.887 -0.1774 -0.5086 -0.6693
46137SOL    HW143222   4.034   6.451   5.928  2.6005  0.1583 -3.4719
46137SOL    HW243223   3.911   6.369   5.893 -0.1109  1.4581  1.9636
46138SOL     OW43224   0.973   1.501   0.733 -0.1567 -0.1626 -0.3052
46138SOL    HW143225   0.933   1.419   0.762  2.7628 -1.8275 -0.5710
46138SOL    HW243226   1.010   1.539   0.813  1.3736 -0.9028 -0.6123
46139SOL     OW43227   0.587   6.909  11.053 -0.0676 -0.3645  0.6654
46139SOL    HW143228   0.496   6.902  11.026 -0.1124 -0.3234  0.8056
46139SOL    HW243229   0.622   6.981  11.001 -0.2182 -0.1273  0.8857
46140SOL     OW43230   7.125   5.718   0.060 -0.2947 -0.0089  0.0137
46140SOL    HW143231   7.062   5.699   0.130  0.6198 -0.9332  0.6126
46140SOL    HW243232   7.150   5.809   0.074  0.7853 -0.5106  1.6878
46141SOL     OW43233   2.941   2.670   5.589  0.2491 -0.1462 -0.2045
46141SOL    HW143234   3.010   2.705   5.533  0.5014 -0.3107  0.0044
46141SOL    HW243235   2.875   2.740   5.592 -0.7604 -0.9087 -2.4040
46142SOL     OW43236   1.120   5.194   6.291 -0.2286 -0.0141  0.4340
46142SOL    HW143237   1.133   5.195   6.196  1.3278 -0.7348  0.6087
46142SOL    HW243238   1.026   5.180   6.303 -0.7089  1.6887 -0.9893
46143SOL     OW43239  10.919   4.463   1.313 -0.0703  0.3078 -0.4319
46143SOL    HW143240  10.863   4.439   1.387  1.4827 -0.4600  0.5317
46143SOL    HW243241  10.961   4.544   1.339 -1.0441  1.1562 -1.3658
46144SOL     OW43242  11.770  10.846   1.079  0.2439  0.3954  0.2903
46144SOL    HW143243  11.800  10.840   0.988  1.3280  0.2494  0.6438
46144SOL    HW243244  11.787  10.937   1.103  0.1097  0.3925  0.3960
46145SOL     OW43245  11.036   6.668   1.473 -0.1179 -0.3101 -0.3240
46145SOL    HW143246  10.986   6.712   1.542  1.4367 -1.5335  1.7101
46145SOL    HW243247  10.982   6.677   1.395 -1.0940  2.8093  0.5600
46146SOL     OW43248   1.965   1.993   8.188 -0.0554 -0.6535  0.1113
46146SOL    HW143249   1.908   1.993   8.265 -0.9080  0.2335 -0.4977
46146SOL    HW243250   2.052   2.010   8.223 -0.5348  0.4442  0.8232
46147SOL     OW43251   4.674   0.041  12.623 -0.0318  0.0441 -0.2323
46147SOL    HW143252   4.708   0.039  12.712  0.2840 -0.0667 -0.3567
46147SOL    HW243253   4.737  -0.009  12.571  1.3459  2.4962 -1.0709
46148SOL     OW43254   6.443   1.046   3.712  0.1572 -0.7237  0.0213
46148SOL    HW143255   6.406   1.133   3.724  0.1579 -0.9898  2.5195
46148SOL    HW243256   6.511   1.057   3.645  0.3449  1.2495  0.4890
46149SOL     OW43257   2.258   9.957   2.621  0.9235  0.0887 -0.4209
46149SOL    HW143258   2.228  10.048   2.616  2.6173  0.7124 -0.0066
46149SOL    HW243259   2.247   9.933   2.713 -1.2310 -0.7783 -0.8681
46150SOL     OW43260   1.485   5.597  11.535  0.1046  0.1491  0.0667
46150SOL    HW143261   1.525   5.516  11.506  0.7371  0.0261  1.2264
46150SOL    HW243262   1.412   5.611  11.475 -0.4609 -1.6617  0.2737
46151SOL     OW43263   5.053  11.075   1.542  0.2951  0.2630  0.3588
46151SOL    HW143264   5.044  11.061   1.448  1.6125  0.3465  0.2022
46151SOL    HW243265   5.017  10.996   1.581 -1.7561  0.8732 -0.1073
46152SOL     OW43266   6.813   4.972   4.185 -0.3224 -0.3152  0.1126
46152SOL    HW143267   6.796   5.025   4.107 -0.9060 -0.8259 -0.1149
46152SOL    HW243268   6.820   5.036   4.256  0.0268  0.1389 -0.3262
46153SOL     OW43269   6.948  11.824   9.527 -0.4490 -0.6178  0.1515
46153SOL    HW143270   6.929  11.730   9.527  0.0543 -0.7234  0.1941
46153SOL    HW243271   6.918  11.854   9.441  1.0679 -1.1840 -0.6131
46154SOL     OW43272   0.040   0.067   7.312  0.5303  0.7144  0.3706
46154SOL    HW143273  -0.040   0.061   7.260  0.0023 -1.4962  1.3348
46154SOL    HW243274   0.016   0.123   7.387 -0.1510  0.0012  0.6911
46155SOL     OW43275  10.599   3.522   8.055  0.1717  0.4881  0.6658
46155SOL    HW143276  10.536   3.531   8.126 -0.9581 -1.1766 -0.0647
46155SOL    HW243277  10.580   3.595   7.996  0.2835  1.1462  1.4265
46156SOL     OW43278   6.851   8.841   6.613 -0.6341 -0.0798  0.3226
46156SOL    HW143279   6.915   8.790   6.564 -0.5068 -1.2884  1.6944
46156SOL    HW243280   6.842   8.922   6.563  1.9537  0.1398  0.0813
46157SOL     OW43281  11.053   1.940   8.635  0.2150  0.4271 -0.0411
46157SOL    HW143282  11.133   1.910   8.678 -0.5686 -1.3299  0.2574
46157SOL    HW243283  11.047   1.887   8.556  0.0855  1.5723 -0.8232
46158SOL     OW43284   0.923  11.191   5.712  0.6340  1.0986  0.2287
46158SOL    HW143285   0.912  11.098   5.734 -0.9172  1.1367 -0.2385
46158SOL    HW243286   1.017  11.207   5.721  0.9901 -0.6091 -0.0633
46159SOL     OW43287   8.182   7.217   1.862 -0.3384 -0.2159  0.2908
46159SOL    HW143288   8.110   7.216   1.800 -0.1685  0.9724  0.0422
46159SOL    HW243289   8.170   7.299   1.912  0.2351 -0.5246  0.9576
46160SOL     OW43290   8.243   4.484   9.835  0.5017 -0.4375 -0.3037
46160SOL    HW143291   8.148   4.477   9.830  0.2966  1.0861  0.6662
46160SOL    HW243292   8.261   4.576   9.817  2.2143 -1.4187 -4.8307
46161SOL     OW43293   0.587   5.868   6.265 -0.0301  0.2323 -0.2184
46161SOL    HW143294   0.654   5.816   6.310 -0.4059 -1.3474 -1.4166
46161SOL    HW243295   0.635   5.916   6.198  0.0174 -0.2972 -0.5662
46162SOL     OW43296   3.435   6.075   5.413 -0.0143  0.1150  0.2949
46162SOL    HW143297   3.483   6.102   5.335  1.4547  2.9056  1.9596
46162SOL    HW243298   3.382   6.151   5.436  1.3227  0.3334  3.1615
46163SOL     OW43299   9.344   8.306  10.531  0.0999 -0.1086  0.1557
46163SOL    HW143300   9.391   8.385  10.503  1.4775 -0.8882  0.2163
46163SOL    HW243301   9.399   8.268  10.599 -2.2740  0.7470  2.7529
46164SOL     OW43302   5.771   9.722   5.784  0.6241  0.1085  0.1547
46164SOL    HW143303   5.836   9.787   5.760 -0.1072  0.4858 -0.8988
46164SOL    HW243304   5.711   9.769   5.842  0.6742  0.0754  0.2337
46165SOL     OW43305   5.262   9.840   3.790  0.1811 -0.6981 -0.0851
46165SOL    HW143306   5.354   9.836   3.817 -0.0773 -0.7415  0.8312
46165SOL    HW243307   5.243   9.755   3.752  0.3096 -0.9759  0.4631
46166SOL     OW43308  10.412   1.828   6.311 -0.0695  0.4488 -0.1884
46166SOL    HW143309  10.331   1.874   6.289 -0.9836  0.0301  2.1175
46166SOL    HW243310  10.384   1.740   6.336  1.2111  0.0037 -0.2288
46167SOL     OW43311   4.502   5.573   3.617  0.3527  0.3088 -0.0430
46167SOL    HW143312   4.523   5.519   3.541  1.2850 -0.0573  0.4639
46167SOL    HW243313   4.429   5.628   3.588  1.8620  1.4797 -1.8104
46168SOL     OW43314  11.501   6.481   8.322 -0.4708  0.2582  0.0622
46168SOL    HW143315  11.488   6.413   8.256 -1.2609 -0.3226  0.7995
46168SOL    HW243316  11.591   6.511   8.307  0.0447 -1.2403 -0.0049
46169SOL     OW43317   2.637   6.345   1.011  0.2240 -0.5790 -0.0652
46169SOL    HW143318   2.638   6.439   1.030 -3.0097 -0.6497  1.0308
46169SOL    HW243319   2.679   6.304   1.086  0.8013 -0.0620 -0.1029
46170SOL     OW43320   5.764   0.556   0.442 -0.0646  0.4983  0.5681
46170SOL    HW143321   5.806   0.487   0.493 -1.5740 -0.6128  0.3644
46170SOL    HW243322   5.696   0.511   0.393 -1.1558  2.1537  0.5052
46171SOL     OW43323   1.826   0.055  11.498 -0.1650 -0.6789  0.5745
46171SOL    HW143324   1.751   0.000  11.523 -0.8213 -0.5792 -1.0332
46171SOL    HW243325   1.830   0.122  11.566 -2.1755 -0.0959  0.1915
46172SOL     OW43326   7.765   6.139   8.272  0.8917 -0.6099  0.5297
46172SOL    HW143327   7.709   6.061   8.270 -0.1586  0.1319  0.3257
46172SOL    HW243328   7.720   6.199   8.331 -1.6423  2.2462 -3.8195
46173SOL     OW43329   2.142   2.281   4.306  0.7824 -0.9412  0.2805
46173SOL    HW143330   2.100   2.252   4.386 -0.2754  1.3959  0.6557
46173SOL    HW243331   2.146   2.203   4.251 -1.6549 -1.8658  1.2774
46174SOL     OW43332   1.074   4.863   2.638  1.0062  0.5805 -0.3348
46174SOL    HW143333   1.140   4.902   2.581  1.3682 -0.4148 -0.6051
46174SOL    HW243334   1.089   4.769   2.632 -0.3918  0.3439 -0.3348
46175SOL     OW43335   4.576   6.292   5.110  0.0554  0.1844 -0.1623
46175SOL    HW143336   4.529   6.354   5.165  2.5073  1.6162  0.4601
46175SOL    HW243337   4.579   6.211   5.161  2.1983  1.4509  1.8950
46176SOL     OW43338   6.891   5.896   3.345  0.6315  0.2366  0.1709
46176SOL    HW143339   6.808   5.942   3.351  0.7173  0.2021  3.6163
46176SOL    HW243340   6.953   5.961   3.312 -0.1182  1.2346  0.7096
46177SOL     OW43341  11.764   5.670  10.085 -0.4381  0.4322 -0.7149
46177SOL    HW143342  11.788   5.581  10.058  1.8122  0.3194  1.2659
46177SOL    HW243343  11.832   5.726  10.047 -0.0852  0.8763  0.5156
46178SOL     OW43344   7.320  10.596   3.180 -0.5066 -0.1340  0.2699
46178SOL    HW143345   7.310  10.544   3.101 -0.5565  0.6432 -0.2522
46178SOL    HW243346   7.231  10.626   3.201 -0.2566  1.2314 -0.4951
46179SOL     OW43347   1.204  10.249   8.206  0.4337 -0.0625 -0.8215
46179SOL    HW143348   1.173  10.159   8.208 -2.5961  0.8297 -1.2659
46179SOL    HW243349   1.136  10.299   8.252  2.3172  1.9530 -0.0078
46180SOL     OW43350  10.411   0.616   3.987  0.3768  0.8097 -0.0272
46180SOL    HW143351  10.493   0.646   3.949  0.3807  0.8252 -0.0069
46180SOL    HW243352  10.344   0.672   3.947  0.1178 -0.6166 -1.6960
46181SOL     OW43353   7.892   5.496   5.209  0.4212 -0.9279 -0.1817
46181SOL    HW143354   7.892   5.591   5.218  0.2433 -0.7324 -2.0141
46181SOL    HW243355   7.963   5.467   5.267 -0.4278  0.1677  1.4830
46182SOL     OW43356   0.492   0.053  11.232 -0.3351  0.0497  0.4090
46182SOL    HW143357   0.431   0.078  11.301 -1.1309  1.7811 -0.8493
46182SOL    HW243358   0.442  -0.007  11.177 -0.2853  0.0321  0.3828
46183SOL     OW43359   6.747   3.615   9.334 -0.4080 -0.2284 -0.1045
46183SOL    HW143360   6.825   3.601   9.280  1.2296  1.9855  1.5292
46183SOL    HW243361   6.714   3.701   9.308 -0.6645  0.0697  1.1246
46184SOL     OW43362  11.596   6.455   1.972  0.1149  0.2307  0.2033
46184SOL    HW143363  11.656   6.523   2.002 -1.3882  1.5799  0.3194
46184SOL    HW243364  11.509   6.490   1.992 -0.7029 -2.1500  1.1317
46185SOL     OW43365   8.183   4.331   1.993 -0.2654  0.1102 -0.0628
46185SOL    HW143366   8.245   4.369   1.930  0.6065 -0.7052  0.2705
46185SOL    HW243367   8.153   4.250   1.951 -1.6378  0.8168 -0.5056
46186SOL     OW43368  11.896  11.454   5.509 -0.1530 -0.0644  0.3538
46186SOL    HW143369  11.939  11.464   5.425  0.1563  2.1577  0.6991
46186SOL    HW243370  11.804  11.477   5.492 -0.0393  0.6318  0.6558
46187SOL     OW43371  12.192   2.395   0.270 -0.6410  0.0034  0.1073
46187SOL    HW143372  12.151   2.481   0.263 -0.2152  0.2113  0.1575
46187SOL    HW243373  12.204   2.367   0.179  1.1767  0.9388  0.0125
46188SOL     OW43374   0.171   6.736   6.911  0.0727 -0.2137 -0.1404
46188SOL    HW143375   0.149   6.759   6.820 -1.0514 -1.6549 -0.2682
46188SOL    HW243376   0.086   6.716   6.951  0.6986 -0.9910  0.8175
46189SOL     OW43377   4.684  10.707   3.222  0.4008 -0.3180  0.3131
46189SOL    HW143378   4.624  10.646   3.266 -2.4232  2.2423  0.4025
46189SOL    HW243379   4.730  10.751   3.293  0.3270 -0.3771  0.3974
46190SOL     OW43380   4.103   0.150   6.544  0.5483  0.0873  0.4351
46190SOL    HW143381   4.063   0.080   6.595 -2.6112  0.6486 -0.9637
46190SOL    HW243382   4.068   0.230   6.583  1.6280  0.7395  0.1062
46191SOL     OW43383   5.284  10.403  11.248 -0.2163 -0.3826 -0.2310
46191SOL    HW143384   5.357  10.402  11.310  0.3186  1.1423 -0.7845
46191SOL    HW243385   5.260  10.495  11.241 -3.5254 -0.9899  1.3943
46192SOL     OW43386  10.122   4.017   1.076  0.7629 -0.7937 -0.3743
46192SOL    HW143387  10.046   3.981   1.031 -0.7705  0.9986  0.6357
46192SOL    HW243388  10.088   4.092   1.125  3.2987  0.4324 -0.3351
46193SOL     OW43389   9.433   7.719   6.246 -0.1189  0.1981  0.0141
46193SOL    HW143390   9.507   7.767   6.209  0.6954  0.7141  2.1795
46193SOL    HW243391   9.357   7.748   6.194  0.8128  1.5269 -0.6660
46194SOL     OW43392  12.340   3.679   4.061  0.1075  0.5906  0.1729
46194SOL    HW143393  12.380   3.655   3.977 -1.3245 -0.3091 -0.2846
46194SOL    HW243394  12.366   3.770   4.074  3.1138 -0.2010  0.4168
46195SOL     OW43395  10.997   3.867  10.039 -0.3901  0.1999 -0.1853
46195SOL    HW143396  11.026   3.800   9.976 -0.2163  0.1531 -0.0559
46195SOL    HW243397  10.903   3.849  10.050 -0.5428  0.5515 -0.8453
46196SOL     OW43398  10.602   7.281   8.528  0.0733  0.0910 -0.1473
46196SOL    HW143399  10.653   7.246   8.455 -1.7474 -0.3792 -1.2644
46196SOL    HW243400  10.627   7.373   8.532  1.0317 -0.1370 -0.6376
46197SOL     OW43401   8.896   4.690   6.651 -0.5504  0.6209  0.0371
46197SOL    HW143402   8.928   4.747   6.581  1.5710 -0.1031  0.3239
46197SOL    HW243403   8.924   4.734   6.732 -0.0319 -0.1419  0.2950
46198SOL     OW43404   2.346   2.052   7.022  0.3768 -0.6286 -0.4778
46198SOL    HW143405   2.432   2.073   7.058 -1.0000  0.1695  2.7038
46198SOL    HW243406   2.352   1.959   6.998  1.7021 -1.0165  1.1568
46199SOL     OW43407  12.421   4.884  10.884  0.1212 -0.1979 -0.6008
46199SOL    HW143408  12.456   4.904  10.797 -0.9305 -0.6904 -1.1530
46199SOL    HW243409  12.434   4.790  10.895 -2.2997 -0.7099 -1.4548
46200SOL     OW43410   9.107   6.255   0.610 -0.2122  1.1274 -0.3019
46200SOL    HW143411   9.016   6.226   0.617 -0.0411  0.5648 -0.4318
46200SOL    HW243412   9.154   6.179   0.577  0.4548  1.1429  0.5893
46201SOL     OW43413   4.753  10.279   6.195 -0.3771  0.2814  0.6486
46201SOL    HW143414   4.797  10.196   6.176  1.3222  0.6361  2.6481
46201SOL    HW243415   4.678  10.254   6.248 -1.3997 -0.1369 -0.9134
46202SOL     OW43416   1.509  10.985   1.305 -0.1478  0.0105  0.2618
46202SOL    HW143417   1.498  10.897   1.338  2.2337  0.0006  1.2670
46202SOL    HW243418   1.421  11.022   1.302 -1.0509 -1.9737  0.9633
46203SOL     OW43419   7.783   9.196   5.509  0.3649 -0.2337 -0.4048
46203SOL    HW143420   7.780   9.130   5.440 -0.1468  1.2224 -1.8380
46203SOL    HW243421   7.808   9.277   5.464  1.4329  0.4881  1.3699
46204SOL     OW43422  10.147   2.195   4.602  0.1588 -0.2658 -0.3155
46204SOL    HW143423  10.203   2.118   4.607  1.1421  0.3035 -1.9848
46204SOL    HW243424  10.104   2.189   4.517 -0.9498  0.2427  0.1858
46205SOL     OW43425   0.249  11.815   5.416 -0.0226 -1.0613  0.2466
46205SOL    HW143426   0.232  11.726   5.385  0.0732 -1.1087  0.3292
46205SOL    HW243427   0.167  11.862   5.399  0.5098 -0.6917 -1.4668
46206SOL     OW43428  11.984  10.676   3.922 -0.1886  0.0651 -0.5180
46206SOL    HW143429  11.897  10.671   3.962 -0.6285  0.8269 -1.3460
46206SOL    HW243430  12.036  10.612   3.971 -1.4327 -1.0460 -0.5664
46207SOL     OW43431   2.583   4.935   4.482 -0.0950  0.3085  0.0877
46207SOL    HW143432   2.655   4.997   4.493  0.7167 -0.7220  0.8351
46207SOL    HW243433   2.586   4.881   4.561 -0.5459 -0.9099 -0.7035
46208SOL     OW43434   2.920   8.041   5.703  0.0967 -0.3587 -0.1854
46208SOL    HW143435   2.924   8.136   5.696 -0.1924 -0.4351 -1.9249
46208SOL    HW243436   3.007   8.015   5.734  0.0996  0.4794  0.5280
46209SOL     OW43437   2.462   5.062   1.837 -0.6922  0.3083  0.4092
46209SOL    HW143438   2.473   5.026   1.749  1.5162  1.5163  0.0937
46209SOL    HW243439   2.518   5.007   1.893 -0.3349  0.8793  0.6260
46210SOL     OW43440  10.519   5.142  10.671 -0.3491  0.0207 -0.2047
46210SOL    HW143441  10.588   5.077  10.686 -0.9349 -1.0811 -2.0890
46210SOL    HW243442  10.517   5.193  10.753  0.1918 -2.2434  1.3177
46211SOL     OW43443   6.472  11.823   1.269  0.0144  0.3963 -0.7456
46211SOL    HW143444   6.435  11.906   1.301  0.5069  0.9958 -1.6703
46211SOL    HW243445   6.408  11.757   1.296  0.1499  0.9159  0.9718
46212SOL     OW43446   8.534  11.756  11.421 -0.1381  0.3014  0.0568
46212SOL    HW143447   8.445  11.761  11.386  0.4656  0.4252 -1.5730
46212SOL    HW243448   8.573  11.840  11.398  0.9524 -0.4431 -0.9574
46213SOL     OW43449   5.518   9.906   9.285 -0.1988 -0.0435 -0.0850
46213SOL    HW143450   5.498   9.829   9.232  0.1783  0.3102 -0.7516
46213SOL    HW243451   5.509   9.876   9.375 -0.3111 -0.7950 -0.3390
46214SOL     OW43452  12.612   8.671   5.839  0.0320  0.2289  0.1278
46214SOL    HW143453  12.522   8.639   5.830  0.4501 -0.4190 -2.4074
46214SOL    HW243454  12.666   8.592   5.834  0.8080  0.7207  0.5493
46215SOL     OW43455   1.382   6.158  10.508  0.4864  0.1921 -0.7296
46215SOL    HW143456   1.350   6.111  10.585  1.4004  0.5798 -0.0875
46215SOL    HW243457   1.438   6.095  10.463 -0.7254 -0.3162 -1.5686
46216SOL     OW43458   4.332   3.989  10.738  0.4205  0.1910 -0.2465
46216SOL    HW143459   4.338   4.080  10.767 -2.3773  0.4793 -0.3013
46216SOL    HW243460   4.280   3.993  10.658 -0.4533 -1.5205  0.1937
46217SOL     OW43461   1.115   8.750   3.548  0.2392  0.9252 -0.2373
46217SOL    HW143462   1.075   8.680   3.497 -0.4076 -0.7653  2.3859
46217SOL    HW243463   1.209   8.737   3.539  0.1234 -0.6483  0.6392
46218SOL     OW43464   2.124   6.232  11.077  0.3087 -0.1021  0.1112
46218SOL    HW143465   2.105   6.242  11.170  4.6597  2.3971  1.0302
46218SOL    HW243466   2.135   6.138  11.065  0.4898 -0.4347  2.3951
46219SOL     OW43467   6.629   8.230   8.473 -0.6166  0.2137  0.1480
46219SOL    HW143468   6.594   8.148   8.509  1.7004 -1.1175 -0.3968
46219SOL    HW243469   6.702   8.251   8.531  0.6232  0.2676 -1.3860
46220SOL     OW43470   7.715   5.832   0.615  0.7580 -0.2887  1.1076
46220SOL    HW143471   7.789   5.805   0.670  1.0747 -1.6002  0.1051
46220SOL    HW243472   7.745   5.913   0.574  1.0602 -0.0346  1.8034
46221SOL     OW43473   0.584   6.944   1.245 -0.1527  0.0748 -0.0105
46221SOL    HW143474   0.662   6.903   1.208 -0.6864  0.9167 -2.1802
46221SOL    HW243475   0.616   6.984   1.327  1.7880  0.6298 -0.9624
46222SOL     OW43476   3.727  12.186   7.104  0.0704 -0.0113  0.0909
46222SOL    HW143477   3.766  12.132   7.172 -0.2974 -0.5757 -0.1471
46222SOL    HW243478   3.795  12.194   7.038 -0.0079 -0.5018 -0.0496
46223SOL     OW43479   3.348   0.953   8.187  0.3725 -0.0566  0.6138
46223SOL    HW143480   3.284   1.016   8.219  1.0550  0.8384  0.2790
46223SOL    HW243481   3.396   1.001   8.119  1.1968 -0.7937  0.6609
46224SOL     OW43482   9.654   2.785   7.188 -0.2183 -0.2850  0.1743
46224SOL    HW143483   9.561   2.786   7.162 -0.6531 -0.2621  1.6383
46224SOL    HW243484   9.680   2.876   7.186  0.0120 -0.3548 -0.9643
46225SOL     OW43485   7.739   7.669   0.518  0.2823 -0.3478 -0.0659
46225SOL    HW143486   7.776   7.755   0.498  0.1300 -0.3510 -0.3810
46225SOL    HW243487   7.781   7.642   0.600  2.6963 -1.3656 -1.5234
46226SOL     OW43488   7.958   5.555  12.192  0.2428 -0.1594 -0.0049
46226SOL    HW143489   8.037   5.594  12.231  1.6348 -2.6330 -0.1714
46226SOL    HW243490   7.946   5.603  12.110  3.2010 -1.3851 -1.2985
46227SOL     OW43491   7.728   7.370  11.883 -0.8214  0.6182 -0.1518
46227SOL    HW143492   7.742   7.276  11.875 -0.9683  0.5842  0.0027
46227SOL    HW243493   7.805   7.409  11.840 -0.8027  0.4301 -0.2919
46228SOL     OW43494   1.184   0.703   8.355 -0.2014  0.2063  0.4330
46228SOL    HW143495   1.161   0.795   8.365 -1.0914  0.0080  0.3222
46228SOL    HW243496   1.252   0.703   8.288 -0.1684  0.7834  0.4578
46229SOL     OW43497   3.171   7.374   3.327  0.3633  0.5199  0.8810
46229SOL    HW143498   3.256   7.351   3.291 -0.2398 -1.1205  0.3788
46229SOL    HW243499   3.136   7.440   3.267  0.6595  0.0931  0.2349
46230SOL     OW43500   7.930   3.728   2.817 -0.4743 -0.0653 -0.3434
46230SOL    HW143501   8.004   3.668   2.831 -1.0143 -1.2662 -2.2277
46230SOL    HW243502   7.911   3.721   2.723 -2.7777  0.4414  0.0292
46231SOL     OW43503  11.637  12.404   3.871 -0.3014  0.5835  0.5569
46231SOL    HW143504  11.650  12.388   3.965 -0.6738 -1.3584  0.3126
46231SOL    HW243505  11.628  12.499   3.865 -2.2491  0.6468  2.7746
46232SOL     OW43506  11.446   9.837   2.315  0.1156  0.1254 -0.1422
46232SOL    HW143507  11.505   9.899   2.273 -0.1311 -0.8226 -1.9865
46232SOL    HW243508  11.452   9.858   2.408  3.5828 -0.1104 -0.1652
46233SOL     OW43509   5.703   4.683   1.663 -0.5817 -0.2214  0.1917
46233SOL    HW143510   5.644   4.749   1.699  0.0266  1.1877 -1.2759
46233SOL    HW243511   5.684   4.683   1.569 -1.2972 -2.9297  0.2399
46234SOL     OW43512   0.357   4.034   3.498 -0.4858  0.1883  0.3423
46234SOL    HW143513   0.387   4.073   3.580  0.5869  1.0528 -0.4379
46234SOL    HW243514   0.326   3.947   3.523  1.8568 -0.4281  1.3437
46235SOL     OW43515  11.963   4.430   9.637 -0.1465 -0.1993  0.0628
46235SOL    HW143516  11.888   4.434   9.697  1.6552 -1.3153  2.5409
46235SOL    HW243517  11.972   4.338   9.615  0.3553 -0.0401 -0.4247
46236SOL     OW43518  10.879   9.730  12.480  0.3012  0.0259 -0.0424
46236SOL    HW143519  10.918   9.681  12.408 -0.0826 -0.8512  0.3255
46236SOL    HW243520  10.898   9.678  12.558  1.1531  1.2214  0.5754
46237SOL     OW43521  11.084   6.313   5.109 -0.7107 -0.0385 -0.0150
46237SOL    HW143522  11.064   6.406   5.114 -1.5006 -0.2430  1.0704
46237SOL    HW243523  11.011   6.270   5.154 -1.1249 -1.3003 -1.7725
46238SOL     OW43524   0.286   1.414   9.880  0.2249 -0.1245  0.2425
46238SOL    HW143525   0.297   1.483   9.814 -0.9322  0.1717  0.3431
46238SOL    HW243526   0.244   1.342   9.833 -1.2007  0.3276  0.7708
46239SOL     OW43527  11.887   8.248   7.656 -0.0010 -0.3354 -0.6163
46239SOL    HW143528  11.870   8.214   7.568  0.7837 -0.5865 -0.6746
46239SOL    HW243529  11.909   8.171   7.708 -0.1431 -0.1476 -0.2773
46240SOL     OW43530  10.603   1.807  10.194  0.1859 -0.3159 -0.1155
46240SOL    HW143531  10.689   1.845  10.207 -0.1155  0.7061 -0.9357
46240SOL    HW243532  10.544   1.882  10.183 -0.8919 -0.9796  0.8706
46241SOL     OW43533   3.795   0.515   2.489 -0.0707  0.6992  0.1056
46241SOL    HW143534   3.788   0.611   2.483  2.5687  1.0184  0.9937
46241SOL    HW243535   3.715   0.488   2.535 -2.2540  2.0965 -2.5584
46242SOL     OW43536   1.757   5.082   3.498  0.2301 -0.3489 -0.3889
46242SOL    HW143537   1.807   5.019   3.550  1.7517  0.3702 -0.9567
46242SOL    HW243538   1.738   5.036   3.416  4.0578  0.8559 -2.1392
46243SOL     OW43539   6.639  10.779   4.667 -0.4268  0.2322  0.2898
46243SOL    HW143540   6.710  10.787   4.604 -0.0009 -0.0001  0.7390
46243SOL    HW243541   6.565  10.746   4.615  0.4930 -1.9749  0.2878
46244SOL     OW43542   7.241  12.105   7.777  0.0089  0.2316  0.6368
46244SOL    HW143543   7.319  12.067   7.738 -0.7591  0.5343 -1.3095
46244SOL    HW243544   7.263  12.197   7.792 -0.4343  0.7165 -1.4040
46245SOL     OW43545  11.624  12.423   0.813 -0.0370 -0.1966  1.0546
46245SOL    HW143546  11.654  12.332   0.814  0.4729 -0.2325 -2.8072
46245SOL    HW243547  11.529  12.417   0.807 -0.0397 -0.4473  1.3238
46246SOL     OW43548  12.180  11.424   4.728  0.3108  0.0332 -0.5130
46246SOL    HW143549  12.129  11.487   4.677 -1.3494 -1.0651 -0.2850
46246SOL    HW243550  12.264  11.467   4.742 -0.7210  2.1349 -0.4445
46247SOL     OW43551   6.331   8.141   5.210 -0.2977  0.3326  0.1587
46247SOL    HW143552   6.250   8.168   5.252  0.4054  1.1153  1.0384
46247SOL    HW243553   6.346   8.051   5.242 -1.4939 -0.3301 -1.0622
46248SOL     OW43554  11.656   5.199   6.186 -0.0569 -0.7949  0.6462
46248SOL    HW143555  11.584   5.217   6.246  0.4150 -1.2490  1.3577
46248SOL    HW243556  11.689   5.113   6.212  1.3306 -0.1961  0.9344
46249SOL     OW43557  12.366   6.957   6.422  0.1031 -0.0516  0.3123
46249SOL    HW143558  12.376   6.981   6.330  0.1322  1.1483  0.6215
46249SOL    HW243559  12.394   6.865   6.426  1.7228  0.3713 -0.5767
46250SOL     OW43560   2.960  10.608   8.776  0.3614 -0.0142  0.7211
46250SOL    HW143561   2.993  10.684   8.824 -0.9316  1.3389 -0.4173
46250SOL    HW243562   2.872  10.633   8.749  0.5434 -1.2188 -1.2195
46251SOL     OW43563  10.991   0.520  11.227 -0.6806  0.3929 -0.0782
46251SOL    HW143564  11.059   0.562  11.175  0.6514 -2.5514 -0.9361
46251SOL    HW243565  11.015   0.538  11.318  2.1664 -1.6548 -0.2937
46252SOL     OW43566   1.461   4.198   2.226 -0.6355  0.1858 -0.1552
46252SOL    HW143567   1.436   4.164   2.313  0.1653 -2.3138 -0.8175
46252SOL    HW243568   1.488   4.288   2.243 -0.5033 -0.2163  2.2045
46253SOL     OW43569   3.810  10.759   9.799  0.2700 -0.1495 -0.2035
46253SOL    HW143570   3.826  10.780   9.891 -1.8901 -0.8191  0.3590
46253SOL    HW243571   3.862  10.680   9.783  0.3924 -0.2248  0.5306
46254SOL     OW43572   2.018   8.540   0.979 -0.4093  0.1471 -0.3586
46254SOL    HW143573   1.935   8.501   0.951 -0.1300  0.3780 -1.5624
46254SOL    HW243574   2.074   8.465   1.000 -0.3281 -0.0750 -1.3265
46255SOL     OW43575   8.439   9.649  12.135  0.1979 -0.1573 -0.3413
46255SOL    HW143576   8.507   9.649  12.203 -0.0706 -0.5885 -0.0653
46255SOL    HW243577   8.374   9.711  12.167  0.6399  0.5514 -0.7949
46256SOL     OW43578   1.277   0.611   1.958  0.3989  0.4089 -0.6365
46256SOL    HW143579   1.197   0.577   1.999  0.4829  0.5477 -0.3584
46256SOL    HW243580   1.263   0.598   1.864  0.5501 -0.6794 -0.5227
46257SOL     OW43581   3.161   9.581   9.149 -0.1288  0.2607 -0.2534
46257SOL    HW143582   3.223   9.509   9.161 -1.7433 -0.9979  1.0108
46257SOL    HW243583   3.131   9.601   9.238 -0.2189  2.0675 -0.6548
46258SOL     OW43584   4.682   0.968   0.647  0.0662 -0.1126  0.1362
46258SOL    HW143585   4.741   0.956   0.573 -0.2216  0.8632 -0.2686
46258SOL    HW243586   4.594   0.962   0.610 -0.0821  1.0874  0.2496
46259SOL     OW43587   7.520  11.901   6.756 -0.3515 -0.0353 -0.0888
46259SOL    HW143588   7.553  11.825   6.710 -1.3011 -0.1874 -0.5595
46259SOL    HW243589   7.424  11.892   6.751 -0.5013  1.5815 -0.8593
46260SOL     OW43590   4.671   0.764   2.914 -0.0071 -0.0252  0.1867
46260SOL    HW143591   4.664   0.793   3.005 -0.3236  1.9799 -0.4215
46260SOL    HW243592   4.739   0.821   2.877 -0.4300 -0.2867 -1.0195
46261SOL     OW43593  12.260   6.613  10.753  0.1581 -0.5357 -0.0807
46261SOL    HW143594  12.171   6.638  10.728 -1.1874 -2.5926  2.2129
46261SOL    HW243595  12.310   6.695  10.751 -2.6539  1.4153  2.0090
46262SOL     OW43596   5.806   3.520   3.692  0.4311 -0.1438 -0.0422
46262SOL    HW143597   5.857   3.565   3.759 -1.1638  1.0185  0.4470
46262SOL    HW243598   5.743   3.467   3.741  0.0741 -0.2704 -0.6228
46263SOL     OW43599   3.911   7.997   5.331 -0.3442  0.4252 -0.1628
46263SOL    HW143600   3.989   8.049   5.311 -0.2461 -0.5239 -2.4740
46263SOL    HW243601   3.890   8.020   5.422  3.6591 -0.6323  1.2324
46264SOL     OW43602  10.050   4.369   1.151 -0.5555 -0.5476  0.0944
46264SOL    HW143603  10.085   4.325   1.229  1.4490  1.6976  0.5903
46264SOL    HW243604   9.983   4.429   1.185  2.3633  2.6867  0.7633
46265SOL     OW43605   5.745   7.238   1.521  0.0394 -0.0767 -0.3257
46265SOL    HW143606   5.828   7.265   1.481 -0.1165  0.7676 -0.0939
46265SOL    HW243607   5.717   7.162   1.470  0.9928 -0.4174 -0.3594
46266SOL     OW43608  10.688  10.871   7.369 -0.0576  0.6847  0.3956
46266SOL    HW143609  10.752  10.832   7.309 -2.6916  0.3949 -2.5020
46266SOL    HW243610  10.684  10.810   7.443  1.3269 -0.4747 -0.4171
46267SOL     OW43611   7.091   5.509   9.441  0.2495 -0.0724  0.2958
46267SOL    HW143612   7.176   5.488   9.404  1.1228  2.4074  0.6786
46267SOL    HW243613   7.105   5.511   9.536  0.0041  1.0929  0.3303
46268SOL     OW43614   2.412   8.373  10.240 -0.0081 -0.5882 -0.3447
46268SOL    HW143615   2.432   8.447  10.298 -1.3731 -0.5875  0.1507
46268SOL    HW243616   2.381   8.304  10.298  0.7257 -1.3855 -0.8658
46269SOL     OW43617   2.264  10.663   1.105  0.1697 -0.2755  0.1344
46269SOL    HW143618   2.351  10.623   1.118 -0.4905 -1.7614  0.1641
46269SOL    HW243619   2.203  10.591   1.117 -1.1268  0.8933  0.7509
46270SOL     OW43620   3.690  10.257   3.642 -0.1929 -0.0608 -0.3221
46270SOL    HW143621   3.663  10.252   3.734 -0.8459 -1.1217 -0.5538
46270SOL    HW243622   3.632  10.322   3.603 -0.0759  0.2147 -0.0385
46271SOL     OW43623   4.973   4.539   4.581  0.1388  0.7152  0.3310
46271SOL    HW143624   4.954   4.498   4.665  1.0999  0.7819  0.5975
46271SOL    HW243625   5.049   4.595   4.599  1.1349 -0.1915 -0.8357
46272SOL     OW43626   3.827   0.279   8.868 -0.2481 -0.0133 -0.0173
46272SOL    HW143627   3.759   0.342   8.844 -0.4088  0.3612  1.3193
46272SOL    HW243628   3.784   0.194   8.868 -0.6164  0.1699  0.3871
46273SOL     OW43629   6.116   9.166   9.051  0.0491 -0.4370  0.2566
46273SOL    HW143630   6.122   9.230   8.980  1.1853 -0.8897 -0.0748
46273SOL    HW243631   6.137   9.216   9.130  0.6621 -0.3266  0.0330
46274SOL     OW43632  10.425   3.377   4.821 -0.1843  0.5491 -0.1035
46274SOL    HW143633  10.393   3.403   4.735 -0.4564  1.9346  0.3955
46274SOL    HW243634  10.346   3.359   4.872 -0.0651  0.9278  0.2164
46275SOL     OW43635   7.052  10.571   2.980 -0.3078 -0.0349 -0.4209
46275SOL    HW143636   7.018  10.608   3.061  1.5773 -0.4171  0.6122
46275SOL    HW243637   7.119  10.509   3.009  0.9145  0.3470 -2.2719
46276SOL     OW43638  10.255   6.558   9.456  0.1438  0.1637 -0.0661
46276SOL    HW143639  10.185   6.564   9.391 -0.5579  0.3304  0.6859
46276SOL    HW243640  10.324   6.508   9.412 -0.6309 -0.4124 -0.6636
46277SOL     OW43641   2.621  11.964   8.022 -0.1266 -0.2569  0.2360
46277SOL    HW143642   2.630  11.878   8.062  1.3553  0.0502  0.6344
46277SOL    HW243643   2.532  11.992   8.043 -0.6493 -1.7053  0.0433
46278SOL     OW43644   7.458   0.470   3.635 -0.0933  0.4992 -0.1578
46278SOL    HW143645   7.471   0.464   3.540  1.7430  2.1952 -0.0846
46278SOL    HW243646   7.480   0.560   3.656 -1.9190  0.5650  1.7179
46279SOL     OW43647   3.281   2.671   3.097 -0.2487 -0.0732 -0.3591
46279SOL    HW143648   3.237   2.587   3.083 -1.5586  0.6957 -0.9890
46279SOL    HW243649   3.211   2.735   3.105  0.7046  0.8500  1.1461
46280SOL     OW43650  10.447   8.953   0.479 -0.0828 -0.0851 -0.1160
46280SOL    HW143651  10.358   8.945   0.513 -0.4426  1.4643 -0.5816
46280SOL    HW243652  10.450   8.893   0.404 -0.8675  0.1236 -0.3253
46281SOL     OW43653  11.272   8.190   8.091  0.1840  0.2852 -0.3685
46281SOL    HW143654  11.179   8.177   8.072  0.4481 -1.1335 -0.8348
46281SOL    HW243655  11.314   8.110   8.059  1.3929  0.2920  1.0710
46282SOL     OW43656   9.075   5.274  10.282 -0.1170 -0.1891 -0.6324
46282SOL    HW143657   9.116   5.198  10.242  0.3521 -0.3275  0.0927
46282SOL    HW243658   9.034   5.321  10.209 -0.5270 -1.2002 -1.0694
46283SOL     OW43659   8.573   5.046   0.333  0.7631  0.6217 -0.4448
46283SOL    HW143660   8.514   5.115   0.360 -0.7022 -0.0336 -1.8001
46283SOL    HW243661   8.623   5.083   0.260  0.0275  0.3073 -1.1245
46284SOL     OW43662   4.762   7.160   8.411 -0.1266  0.0874 -0.8271
46284SOL    HW143663   4.718   7.075   8.417  0.9039 -0.4205 -0.2232
46284SOL    HW243664   4.853   7.142   8.436  0.2532  1.2525 -1.3105
46285SOL     OW43665   2.188  11.991   5.277 -0.0711 -0.3354  0.8288
46285SOL    HW143666   2.190  12.081   5.245  1.0294 -0.5794  0.1864
46285SOL    HW243667   2.166  11.939   5.200  0.9888 -0.7710  0.8091
46286SOL     OW43668   7.508   6.443   1.648 -0.2273  0.6036  0.3799
46286SOL    HW143669   7.484   6.356   1.682  2.5017  0.6486  2.8192
46286SOL    HW243670   7.469   6.504   1.710  2.3831  0.8018  1.9707
46287SOL     OW43671  10.253   2.460   8.290 -0.4570 -0.4304 -0.4118
46287SOL    HW143672  10.167   2.503   8.299 -0.5349 -0.8796  1.4122
46287SOL    HW243673  10.302   2.488   8.368  1.4423  0.5815 -1.8919
46288SOL     OW43674   0.144  10.902   2.957  0.2461 -0.0700 -0.4369
46288SOL    HW143675   0.077  10.833   2.963 -0.4743  0.4003 -2.4214
46288SOL    HW243676   0.103  10.978   2.998 -0.1575  0.0034 -0.9651
46289SOL     OW43677   4.145   6.560   4.122 -0.1462  0.0219  1.0565
46289SOL    HW143678   4.090   6.484   4.139 -0.4561 -0.3610 -1.3220
46289SOL    HW243679   4.178   6.585   4.208 -1.0651 -2.0043  2.0729
46290SOL     OW43680   3.945  11.757   5.733 -0.2890 -0.1221  0.3884
46290SOL    HW143681   3.975  11.797   5.814 -0.9643 -1.7033  1.4450
46290SOL    HW243682   3.874  11.814   5.703 -1.5397 -0.7259  2.1097
46291SOL     OW43683   4.068   5.798   2.226  0.1781 -0.3155  0.4123
46291SOL    HW143684   4.114   5.808   2.309 -0.3818 -1.4044  0.8587
46291SOL    HW243685   4.118   5.732   2.178  0.3203  0.0831 -0.0097
46292SOL     OW43686   7.159   0.455   8.181 -0.6683  0.5104 -0.3780
46292SOL    HW143687   7.154   0.492   8.269  0.3671  0.9006 -0.4763
46292SOL    HW243688   7.097   0.382   8.183 -3.1053  2.4338 -0.3176
46293SOL     OW43689  10.400   5.792   6.117 -0.7694 -0.0397  0.0902
46293SOL    HW143690  10.451   5.762   6.042 -0.6835  0.3564 -0.0124
46293SOL    HW243691  10.464   5.802   6.188 -0.7831 -0.0098  0.0979
46294SOL     OW43692   2.823   1.042   4.317  0.1416 -0.0430 -0.2911
46294SOL    HW143693   2.820   0.958   4.272 -0.3473 -0.3024  0.2076
46294SOL    HW243694   2.882   1.096   4.265 -0.6087 -0.2475 -1.3816
46295SOL     OW43695  10.379  10.805   6.407  0.2975  0.2258  0.4237
46295SOL    HW143696  10.423  10.867   6.349  0.0623  1.0922  1.1463
46295SOL    HW243697  10.380  10.722   6.359  0.8331  0.7286 -0.4594
46296SOL     OW43698   9.391  12.214  10.517  0.0824 -0.1896 -0.7679
46296SOL    HW143699   9.320  12.182  10.573  0.2413  0.0828 -0.4007
46296SOL    HW243700   9.391  12.156  10.441  0.6945 -1.4096  0.1207
46297SOL     OW43701  12.340   8.019   8.651 -0.4645  0.0041 -0.4959
46297SOL    HW143702  12.391   7.985   8.724 -0.2939 -0.8684 -1.0115
46297SOL    HW243703  12.404   8.065   8.595 -0.7153  1.3509  0.2704
46298SOL     OW43704   3.612   7.661  11.458  0.2119  0.0896  0.0332
46298SOL    HW143705   3.613   7.737  11.516  1.1688  1.0137 -1.1368
46298SOL    HW243706   3.581   7.696  11.374 -1.6328 -1.3159  0.0702
46299SOL     OW43707   9.244  11.414  10.498 -0.1290  0.4393  0.6228
46299SOL    HW143708   9.178  11.362  10.452  0.9335 -0.5166  0.1042
46299SOL    HW243709   9.223  11.403  10.590  0.2091 -1.1687  0.5432
46300SOL     OW43710   6.538   9.340  12.321  0.1009 -0.1023 -0.2670
46300SOL    HW143711   6.566   9.344  12.229  0.7331  0.5807 -0.0591
46300SOL    HW243712   6.618   9.317  12.369  0.5506  2.5402  0.4122
46301SOL     OW43713  11.423   2.281   8.287  0.1336  0.4845  0.2553
46301SOL    HW143714  11.372   2.262   8.208 -2.3929  0.4377  1.7815
46301SOL    HW243715  11.382   2.359   8.324  0.6926  0.0237  1.9401
46302SOL     OW43716   3.622   4.315  10.576 -0.7319  0.3097  0.3279
46302SOL    HW143717   3.549   4.269  10.615 -0.6466 -0.0645  0.0478
46302SOL    HW243718   3.656   4.371  10.647 -2.7579  2.3198 -0.1634
46303SOL     OW43719  11.262   1.803  12.631  0.2289 -0.3560  0.3385
46303SOL    HW143720  11.272   1.708  12.638 -1.0510 -0.4040  2.2799
46303SOL    HW243721  11.206   1.815  12.555  1.8314 -1.0048 -1.0031
46304SOL     OW43722   8.633  12.625  12.607 -0.4379  0.0659  0.2882
46304SOL    HW143723   8.616  12.669  12.524  2.0331  0.4626 -0.0750
46304SOL    HW243724   8.660  12.537  12.583 -0.8469 -0.1902  0.7515
46305SOL     OW43725   5.574   6.406   7.023 -0.0997 -0.3713 -0.2660
46305SOL    HW143726   5.651   6.458   6.999 -0.9039  1.5035  1.0025
46305SOL    HW243727   5.532   6.386   6.940  1.3307 -0.7974 -0.9312
46306SOL     OW43728   8.439   2.039   1.959 -0.1783 -0.1986 -0.3641
46306SOL    HW143729   8.464   1.996   1.877 -0.8955 -1.2748 -0.0460
46306SOL    HW243730   8.468   2.130   1.949  0.1168 -0.4160 -1.6386
46307SOL     OW43731   5.421   8.422  11.146  0.2630 -1.0437 -0.1117
46307SOL    HW143732   5.381   8.472  11.075  0.1900 -1.0091 -0.0482
46307SOL    HW243733   5.462   8.488  11.202  1.6413 -1.1874 -0.9267
46308SOL     OW43734   1.706   9.033  11.595  0.0123 -0.3246  0.0598
46308SOL    HW143735   1.633   9.094  11.602  0.1337 -0.2858  1.1371
46308SOL    HW243736   1.784   9.089  11.596  0.1031 -0.4567  0.4583
46309SOL     OW43737   3.074   8.550  10.891 -0.6382  0.3941  0.0985
46309SOL    HW143738   3.166   8.549  10.864 -0.6588 -0.4832  0.0207
46309SOL    HW243739   3.033   8.481  10.838 -0.8999 -0.6353  1.5662
46310SOL     OW43740   4.666   3.926   0.641 -0.3600  0.3118 -0.5860
46310SOL    HW143741   4.740   3.916   0.701 -0.9733  0.2920  0.1881
46310SOL    HW243742   4.692   3.998   0.583  1.8057 -1.9714 -2.7021
46311SOL     OW43743   0.494  10.972   5.801  0.2888 -0.1684  0.5945
46311SOL    HW143744   0.570  11.024   5.826 -1.1146  2.3633 -0.1122
46311SOL    HW243745   0.419  11.028   5.819 -1.2832 -1.5784 -1.1503
46312SOL     OW43746   0.002   9.040  10.980 -0.2251 -0.2528  0.0149
46312SOL    HW143747  -0.029   9.019  11.069 -1.0693 -0.0928 -0.2343
46312SOL    HW243748   0.047   8.961  10.952  1.6986  0.3157  1.2772
46313SOL     OW43749   1.825   2.293   6.688 -0.7192  0.3725 -0.0464
46313SOL    HW143750   1.793   2.353   6.756 -0.7457  0.1301  0.1550
46313SOL    HW243751   1.782   2.210   6.707 -1.0756  0.4196 -0.6279
46314SOL     OW43752  11.815  12.309   0.453  0.6028  0.3654  0.6211
46314SOL    HW143753  11.723  12.298   0.475  0.8084 -1.6413  0.6897
46314SOL    HW243754  11.852  12.221   0.460  2.2652  0.9054 -0.5854
46315SOL     OW43755  12.103   2.615   2.091  0.0988 -0.4128  0.0906
46315SOL    HW143756  12.183   2.665   2.105 -0.4286  0.7956 -0.9700
46315SOL    HW243757  12.035   2.665   2.137 -0.7560  0.9194 -2.4313
46316SOL     OW43758  10.004   9.046   7.189  0.0358  0.4662  0.0795
46316SOL    HW143759   9.918   9.066   7.152 -0.2621  0.9556  0.9945
46316SOL    HW243760  10.066   9.093   7.133 -0.3281  0.4833 -0.3121
46317SOL     OW43761   2.341   3.722  10.966  0.0016 -0.3654  0.1144
46317SOL    HW143762   2.375   3.675  10.890  0.5496  0.4840 -0.1843
46317SOL    HW243763   2.396   3.693  11.039 -0.1015 -0.6862  0.0676
46318SOL     OW43764   8.786  11.933   4.927 -0.2400  0.2242  0.2802
46318SOL    HW143765   8.760  11.896   4.843 -0.6729  1.7636 -0.3014
46318SOL    HW243766   8.708  11.926   4.982 -0.8097  1.5457 -0.3057
46319SOL     OW43767   2.095   9.450   9.107  0.8116  0.2428 -0.9664
46319SOL    HW143768   2.083   9.400   9.188  0.4586 -2.9590 -2.8199
46319SOL    HW243769   2.186   9.433   9.082  0.9696  1.3469 -1.1935
46320SOL     OW43770  10.122  11.065   3.873  0.3480  0.2529  0.1237
46320SOL    HW143771  10.194  11.086   3.814 -0.2203 -0.3091 -0.7962
46320SOL    HW243772  10.131  11.126   3.946 -0.4636  2.7745 -1.7760
46321SOL     OW43773   4.479   6.330  12.147  0.1132  0.1333 -0.6655
46321SOL    HW143774   4.510   6.413  12.183 -2.0846  1.2575 -1.2420
46321SOL    HW243775   4.402   6.353  12.095  0.5786 -2.0193 -2.4551
46322SOL     OW43776   8.896   5.275   1.203  0.0137  0.4516 -0.4272
46322SOL    HW143777   8.975   5.240   1.164 -0.1950 -0.5146 -0.0243
46322SOL    HW243778   8.825   5.231   1.156 -0.2558  0.4155  0.0067
46323SOL     OW43779   4.356   3.335   8.309  0.0629 -0.2891  0.0997
46323SOL    HW143780   4.320   3.258   8.355 -3.0088  1.3618  0.7456
46323SOL    HW243781   4.378   3.303   8.222  0.9762 -2.3477  1.0140
46324SOL     OW43782   6.978  11.488  10.289  0.3218 -0.2464  0.4133
46324SOL    HW143783   7.022  11.410  10.256  1.0959  0.6418 -0.7507
46324SOL    HW243784   6.913  11.455  10.351 -1.3307 -2.0581 -2.0858
46325SOL     OW43785   6.511   7.429   9.565  0.1614  0.1391 -0.2735
46325SOL    HW143786   6.515   7.427   9.661  0.7392 -1.3185 -0.3109
46325SOL    HW243787   6.422   7.456   9.546  0.2439  1.1621  0.6692
46326SOL     OW43788  10.586  10.003  10.722 -0.3863  0.0150 -0.4127
46326SOL    HW143789  10.651   9.983  10.789 -0.2932 -0.0948 -0.5342
46326SOL    HW243790  10.627   9.974  10.640  0.8089  2.8516 -0.9655
46327SOL     OW43791  11.690  11.383   9.708 -0.0342 -0.0319  0.2744
46327SOL    HW143792  11.687  11.371   9.613 -1.7453  0.1505  0.2619
46327SOL    HW243793  11.727  11.302   9.742  1.4794  0.2663 -0.5821
46328SOL     OW43794   7.696   9.710   8.253 -0.2282 -0.1964  0.1477
46328SOL    HW143795   7.663   9.769   8.322 -0.5851  1.9350 -1.7279
46328SOL    HW243796   7.619   9.686   8.203  0.0221 -1.7996  0.4955
46329SOL     OW43797   8.569   5.482  11.043 -0.0824 -0.3312 -0.7390
46329SOL    HW143798   8.597   5.510  11.130 -1.2193  1.6860 -0.9403
46329SOL    HW243799   8.645   5.497  10.987 -0.2367  1.2500 -0.5826
46330SOL     OW43800  10.548   3.959   5.764 -0.0071  0.4643  0.5551
46330SOL    HW143801  10.536   4.022   5.693 -0.6107 -1.6672 -1.3605
46330SOL    HW243802  10.641   3.939   5.763 -0.2694 -0.9003 -0.9504
46331SOL     OW43803  11.907  10.583   1.334 -0.1803  0.1308  0.4087
46331SOL    HW143804  11.945  10.581   1.422 -1.4152  0.6641  0.9713
46331SOL    HW243805  11.882  10.492   1.317  1.6903 -0.3205 -0.1518
46332SOL     OW43806   3.630   0.791   9.597 -0.2472 -0.1654 -0.0862
46332SOL    HW143807   3.587   0.720   9.643  0.7676 -0.8726 -0.1789
46332SOL    HW243808   3.650   0.755   9.510 -1.3647  0.8573 -0.8015
46333SOL     OW43809  10.302   9.820  10.357 -0.9224 -0.1505  0.0607
46333SOL    HW143810  10.348   9.736  10.354 -1.9378 -0.7282  0.4548
46333SOL    HW243811  10.209   9.797  10.357 -1.2229  0.9073  1.6932
46334SOL     OW43812   1.834   0.507  11.449 -0.0570  0.5144 -0.0501
46334SOL    HW143813   1.914   0.464  11.420 -0.7108 -0.9674  0.2017
46334SOL    HW243814   1.802   0.553  11.371 -0.3962 -1.2060 -0.9721
46335SOL     OW43815   2.422   5.366   4.027 -0.3349  0.1344  0.2169
46335SOL    HW143816   2.385   5.446   3.988 -0.5006 -1.4990 -3.3241
46335SOL    HW243817   2.347   5.308   4.037  0.3616 -1.3107 -2.0922
46336SOL     OW43818   7.328  12.202   1.208 -0.2859 -0.2563  0.4280
46336SOL    HW143819   7.403  12.173   1.261 -0.1011 -0.2874  0.1535
46336SOL    HW243820   7.266  12.130   1.212  1.2518 -1.8811 -2.3879
46337SOL     OW43821   6.909   4.231   1.603 -0.0127 -0.1438 -0.8333
46337SOL    HW143822   6.913   4.159   1.540 -0.9283 -1.4170  0.4920
46337SOL    HW243823   6.819   4.265   1.595 -0.2163 -0.4745 -0.0890
46338SOL     OW43824   3.343   7.851   8.838 -0.5426  0.6359  0.6694
46338SOL    HW143825   3.249   7.869   8.832 -0.3558  1.3124 -0.6874
46338SOL    HW243826   3.380   7.929   8.880 -0.7217 -0.1574  2.3425
46339SOL     OW43827   1.445   8.043   6.585  0.1437 -0.4036 -0.3517
46339SOL    HW143828   1.527   7.998   6.605 -0.7658 -1.5960  0.9736
46339SOL    HW243829   1.387   7.973   6.553 -1.0823 -0.0775  1.0428
46340SOL     OW43830   8.749   6.612   1.900 -0.3211 -0.3801 -0.0308
46340SOL    HW143831   8.778   6.701   1.881 -3.8294  0.6980 -1.1289
46340SOL    HW243832   8.735   6.573   1.814 -1.5924 -0.9530  0.4227
46341SOL     OW43833   7.796   4.425   8.379  0.3841  0.4168  0.4306
46341SOL    HW143834   7.728   4.423   8.446 -0.7870  1.6194 -0.6753
46341SOL    HW243835   7.776   4.502   8.327  2.7551  0.9632  0.2051
46342SOL     OW43836   3.997   3.173   9.922  0.4090  0.7539 -0.5101
46342SOL    HW143837   3.934   3.185   9.851 -1.3391 -2.6507  0.2434
46342SOL    HW243838   4.081   3.160   9.879 -0.2908  0.5521 -1.8540
46343SOL     OW43839  11.193   6.427   0.250  0.1184 -0.1841 -0.0110
46343SOL    HW143840  11.220   6.379   0.329  1.5279 -0.9848 -0.9478
46343SOL    HW243841  11.267   6.484   0.231  0.1100 -0.5434 -1.1747
46344SOL     OW43842  10.789   8.584   4.533  0.3338  0.1063 -0.0233
46344SOL    HW143843  10.858   8.559   4.595 -1.9788 -0.7285  2.4354
46344SOL    HW243844  10.777   8.507   4.478  0.4132 -0.2838  0.4903
46345SOL     OW43845   8.540  12.470   1.417  0.0642  0.1158 -0.6395
46345SOL    HW143846   8.453  12.430   1.415  0.4117 -0.6490 -2.8486
46345SOL    HW243847   8.538  12.536   1.347  0.7901  1.2253  0.3379
46346SOL     OW43848   1.575  10.583   7.332  0.4771 -0.4073 -0.2748
46346SOL    HW143849   1.533  10.627   7.406 -0.3990 -0.5561 -0.6664
46346SOL    HW243850   1.570  10.490   7.353  0.1369 -0.4562 -0.5613
46347SOL     OW43851   0.475   8.334  11.782 -0.6004 -0.1519  0.4112
46347SOL    HW143852   0.402   8.299  11.732 -1.0038  1.9406 -0.5456
46347SOL    HW243853   0.445   8.333  11.873 -1.4580 -0.1475  0.1286
46348SOL     OW43854   3.605   1.323   8.439  0.1842 -0.1570  0.0472
46348SOL    HW143855   3.525   1.356   8.397  1.3417  1.2403 -1.1429
46348SOL    HW243856   3.670   1.320   8.369  1.7054  0.5831  1.3650
46349SOL     OW43857   8.358  10.963  11.622  0.2063 -0.3625  0.3884
46349SOL    HW143858   8.415  11.021  11.572 -0.2104 -0.8000 -0.6172
46349SOL    HW243859   8.392  10.968  11.712  0.2182  1.3594  0.3131
46350SOL     OW43860  11.408   9.706   9.303  0.4523 -0.0976 -0.4820
46350SOL    HW143861  11.359   9.783   9.331 -0.0942 -0.4864 -0.3706
46350SOL    HW243862  11.460   9.736   9.228 -1.0894 -0.0548 -1.5671
46351SOL     OW43863   8.902   1.175   2.210 -0.3458  0.2476 -0.6362
46351SOL    HW143864   8.985   1.128   2.204  0.9304  2.3714 -0.3347
46351SOL    HW243865   8.884   1.181   2.304 -0.1509  0.9394 -0.6400
46352SOL     OW43866   7.581   7.932  12.633  0.4994 -0.1308 -0.4266
46352SOL    HW143867   7.568   7.937  12.728  0.5534 -0.1030 -0.4210
46352SOL    HW243868   7.668   7.970  12.618 -0.0529  1.1058 -0.6250
46353SOL     OW43869   3.538   8.688   0.257 -0.0327 -0.0741  0.5691
46353SOL    HW143870   3.593   8.740   0.316  0.8166 -0.7475  0.3858
46353SOL    HW243871   3.591   8.676   0.179 -0.7186 -0.1503  0.1071
46354SOL     OW43872   4.809  11.454   3.542  0.6481  0.1702  0.2097
46354SOL    HW143873   4.786  11.367   3.575 -1.2350  1.1896  1.8094
46354SOL    HW243874   4.811  11.444   3.447 -1.4178 -1.2533  0.2446
46355SOL     OW43875   7.865  10.877  10.666 -0.3602  0.1668 -0.4672
46355SOL    HW143876   7.821  10.840  10.742 -0.5628  0.9903 -0.1713
46355SOL    HW243877   7.799  10.934  10.626 -0.7462 -1.3385 -2.0978
46356SOL     OW43878   6.234  10.123   2.361  0.5484  0.1833 -0.0239
46356SOL    HW143879   6.276  10.065   2.424  0.6997 -0.4129 -0.6718
46356SOL    HW243880   6.143  10.096   2.359  0.8964 -1.0116 -1.3840
46357SOL     OW43881   7.793   8.308   6.778 -0.1387  0.5816  0.1922
46357SOL    HW143882   7.774   8.222   6.815 -3.7504  0.1602 -2.1215
46357SOL    HW243883   7.786   8.368   6.853 -1.0317 -0.7918  1.2681
46358SOL     OW43884  10.836  12.022   7.455 -0.1269  0.1059  0.0834
46358SOL    HW143885  10.865  11.989   7.370 -0.9853 -0.4284 -0.0159
46358SOL    HW243886  10.882  12.105   7.465  0.6584 -0.2392 -0.5025
46359SOL     OW43887   7.098   9.554  11.016  0.1090 -0.0303  0.3036
46359SOL    HW143888   7.078   9.570  10.924 -0.8253  0.2124  0.5331
46359SOL    HW243889   7.161   9.622  11.039  0.0965  0.1133 -0.0750
46360SOL     OW43890  10.670   1.795   5.773  0.0435  0.0843 -0.0395
46360SOL    HW143891  10.605   1.864   5.782  0.2923  0.0295  4.1060
46360SOL    HW243892  10.754   1.841   5.772  0.1245 -0.0593  0.0108
46361SOL     OW43893   5.619   3.957   0.584  0.4316 -0.1086  0.0018
46361SOL    HW143894   5.553   3.903   0.540  0.8689 -0.5765 -0.0850
46361SOL    HW243895   5.571   4.034   0.613 -0.0838 -0.2866 -0.3654
46362SOL     OW43896  10.098   7.253   1.497 -0.1907 -0.2241 -0.3301
46362SOL    HW143897  10.143   7.331   1.529  0.4015 -0.7450  0.1204
46362SOL    HW243898  10.008   7.263   1.530  0.2623 -0.4713  1.0565
46363SOL     OW43899   3.658   5.928   5.064 -0.6606 -0.4469  0.0024
46363SOL    HW143900   3.700   5.843   5.050  2.4245  1.0564 -0.7245
46363SOL    HW243901   3.690   5.956   5.150 -1.7777 -0.0686  0.3062
46364SOL     OW43902   0.013   9.993   9.611 -0.0261 -0.5946 -0.0409
46364SOL    HW143903  -0.022   9.934   9.678  0.8057 -0.9974  0.0550
46364SOL    HW243904   0.102   9.960   9.594 -0.2156 -0.4854 -1.3354
46365SOL     OW43905  12.621   5.288   5.891 -0.6710  0.0633 -0.2668
46365SOL    HW143906  12.699   5.336   5.918 -0.5027 -1.1592  1.5934
46365SOL    HW243907  12.577   5.347   5.829  1.0591  1.2943 -0.4032
46366SOL     OW43908   7.320   1.775   1.810  0.5943  0.3303  0.0449
46366SOL    HW143909   7.372   1.825   1.872 -1.3102  1.5657  0.7275
46366SOL    HW243910   7.230   1.801   1.827 -0.3584 -2.2236 -0.6183
46367SOL     OW43911   7.961   3.265   2.744  0.1418  0.3353  0.0254
46367SOL    HW143912   8.004   3.224   2.819  0.0197 -1.0583 -0.6402
46367SOL    HW243913   7.954   3.196   2.678 -1.1741  1.0949 -0.6997
46368SOL     OW43914   6.108   5.777   4.521 -0.0796 -0.1809 -0.0208
46368SOL    HW143915   6.095   5.843   4.589 -0.0825  0.3831 -0.5533
46368SOL    HW243916   6.093   5.693   4.565 -2.3644  0.2600  0.1461
46369SOL     OW43917  11.432   2.555   7.287  0.3775 -0.3912  0.1023
46369SOL    HW143918  11.510   2.605   7.308  2.0931 -2.9109  0.1687
46369SOL    HW243919  11.384   2.549   7.369  1.1409 -0.4539  0.5568
46370SOL     OW43920   8.482   4.305  10.197 -0.0901 -0.2091 -0.2963
46370SOL    HW143921   8.471   4.330  10.105 -0.1361 -0.3318 -0.3237
46370SOL    HW243922   8.526   4.220  10.193 -1.0853 -0.7394 -0.2235
46371SOL     OW43923   4.442   4.229   8.358 -0.0119 -0.1060  0.0993
46371SOL    HW143924   4.502   4.160   8.386  1.1676 -0.1987 -2.3827
46371SOL    HW243925   4.357   4.185   8.353  0.4297 -0.9844  0.0416
46372SOL     OW43926   2.293  11.333   1.155 -0.1313  0.3703 -0.6886
46372SOL    HW143927   2.260  11.407   1.103  1.3360 -0.2419 -2.6034
46372SOL    HW243928   2.218  11.273   1.161 -1.1394  1.6697  0.3219
46373SOL     OW43929   5.329   1.170   9.438 -0.0888 -0.7728  0.1370
46373SOL    HW143930   5.328   1.085   9.394 -0.3306 -0.6115 -0.1657
46373SOL    HW243931   5.344   1.234   9.368  1.3126 -0.6564  0.5077
46374SOL     OW43932   1.279   3.190   5.086 -0.0205  0.3679 -0.6294
46374SOL    HW143933   1.236   3.106   5.103 -0.9919  1.0521  0.4650
46374SOL    HW243934   1.250   3.246   5.157  1.5408  1.3171 -0.6943
46375SOL     OW43935   7.929   4.290   7.627 -0.7441 -0.6395  0.2889
46375SOL    HW143936   8.017   4.327   7.634 -1.0917 -0.0720  2.3761
46375SOL    HW243937   7.885   4.344   7.562  0.1638 -0.3226 -0.0734
46376SOL     OW43938   7.133  10.340   9.305 -0.3694  0.6058  0.9030
46376SOL    HW143939   7.078  10.344   9.227  0.5294 -0.9288  0.1423
46376SOL    HW243940   7.222  10.356   9.273  0.5115 -3.2426  0.9405
46377SOL     OW43941   2.030   2.582   6.003 -0.1700 -0.2791 -0.4966
46377SOL    HW143942   2.079   2.547   6.077 -2.2125 -1.1383  0.5029
46377SOL    HW243943   2.094   2.637   5.956  1.6780 -1.2343  0.7954
46378SOL     OW43944   0.504   9.874   1.594 -0.5645  0.9997  0.2495
46378SOL    HW143945   0.413   9.868   1.624 -0.8775  1.0514 -0.6580
46378SOL    HW243946   0.497   9.882   1.499  0.4647 -0.9645 -0.0414
46379SOL     OW43947   0.014   9.293   8.460 -0.1988  0.2964  0.4387
46379SOL    HW143948   0.023   9.233   8.534  0.0574 -3.8281 -2.5706
46379SOL    HW243949  -0.080   9.310   8.454 -0.3929 -0.6025  0.7933
46380SOL     OW43950   3.266   6.649  12.340  0.0772 -0.0005  0.3785
46380SOL    HW143951   3.360   6.637  12.352  0.0610  1.3712  2.3934
46380SOL    HW243952   3.254   6.744  12.341 -1.4770 -0.1753  1.5787
46381SOL     OW43953   8.426   1.086   2.329 -0.2623 -0.3656  0.1181
46381SOL    HW143954   8.388   1.000   2.314  1.5689 -2.2016  4.4349
46381SOL    HW243955   8.521   1.072   2.323  0.0956  2.1336 -2.0043
46382SOL     OW43956   0.659   2.565   5.601  0.2340  0.2439  0.2992
46382SOL    HW143957   0.722   2.520   5.657  1.6228  0.6250 -0.8893
46382SOL    HW243958   0.643   2.503   5.529 -1.3252 -0.1384  0.9387
46383SOL     OW43959  12.070   8.756   9.687  0.2677  0.3001 -0.3068
46383SOL    HW143960  12.115   8.684   9.731  1.1177  1.2138  0.3636
46383SOL    HW243961  11.982   8.756   9.725  0.4166 -0.0604  0.0443
46384SOL     OW43962  10.053   9.440   8.321 -0.2853  0.0597 -0.0295
46384SOL    HW143963  10.043   9.345   8.328  0.1391  0.0893  1.5885
46384SOL    HW243964   9.991   9.475   8.384 -1.4259  0.9490 -1.5984
46385SOL     OW43965   5.342   5.076   1.627  0.2389 -0.4232 -0.2848
46385SOL    HW143966   5.392   5.154   1.603  1.2410 -1.2915 -1.1280
46385SOL    HW243967   5.310   5.042   1.543 -0.8292 -0.5173  0.1429
46386SOL     OW43968   6.255  12.191   1.157  0.5326 -0.1626 -0.2488
46386SOL    HW143969   6.240  12.138   1.079  0.5596 -0.3839 -0.1054
46386SOL    HW243970   6.324  12.144   1.205  0.6845  0.0981 -0.2100
46387SOL     OW43971  11.331   2.036   0.204  0.6719  0.9512 -0.1950
46387SOL    HW143972  11.237   2.022   0.197  0.5227  1.7889 -0.0040
46387SOL    HW243973  11.355   2.081   0.123  1.2635 -0.9262 -1.1240
46388SOL     OW43974   5.018   7.553   8.534 -0.5211 -0.8207  0.3722
46388SOL    HW143975   4.929   7.589   8.540 -0.0274  0.7535 -0.9931
46388SOL    HW243976   5.037   7.522   8.622 -2.5605 -1.5717  0.6207
46389SOL     OW43977  11.731   4.496   9.777 -0.2377  0.6352 -0.3468
46389SOL    HW143978  11.791   4.562   9.814  2.1204 -1.2244 -0.5707
46389SOL    HW243979  11.666   4.481   9.846 -1.1422  3.4451 -0.4718
46390SOL     OW43980   3.828   2.306  11.868  0.1975 -0.0263  0.5300
46390SOL    HW143981   3.806   2.372  11.934  2.7588  0.6130  0.8626
46390SOL    HW243982   3.922   2.291  11.879  0.2873 -1.5043 -1.5606
46391SOL     OW43983   4.249   6.384  12.387  0.4731  0.6570 -0.1481
46391SOL    HW143984   4.215   6.302  12.424 -1.4199  1.6455  0.4200
46391SOL    HW243985   4.329   6.401  12.436  0.6023 -0.5617  0.1106
46392SOL     OW43986   3.182   7.711   0.714 -0.0652  0.7196 -0.5285
46392SOL    HW143987   3.095   7.735   0.680  0.8269  2.6638 -1.6484
46392SOL    HW243988   3.178   7.732   0.807 -1.4408 -1.2929 -0.0719
46393SOL     OW43989   7.791   5.716   2.592 -0.0232  0.0940 -0.0965
46393SOL    HW143990   7.787   5.787   2.657 -0.9257 -0.2198  0.2062
46393SOL    HW243991   7.750   5.754   2.515  1.8548  0.7796 -0.8279
46394SOL     OW43992   5.683   7.547   2.137  0.4003  0.2120 -0.3383
46394SOL    HW143993   5.753   7.495   2.098  0.6571  0.9849 -0.9364
46394SOL    HW243994   5.729   7.615   2.187  0.0831  0.8762 -0.9394
46395SOL     OW43995   5.832  12.088  10.187 -0.5111  0.0046  0.3657
46395SOL    HW143996   5.869  12.003  10.208 -0.1678  0.0294 -0.1076
46395SOL    HW243997   5.908  12.145  10.173 -0.6954 -0.0965 -1.2454
46396SOL     OW43998   0.007   4.669  11.340 -0.2689 -0.0319 -0.0891
46396SOL    HW143999  -0.063   4.660  11.404  0.2556 -0.3835  0.4417
46396SOL    HW244000  -0.035   4.709  11.264 -1.5274 -2.0154 -0.5224
46397SOL     OW44001   7.892   0.721   7.270 -0.1028 -0.6772  0.3699
46397SOL    HW144002   7.904   0.809   7.233  0.0922 -0.4322  0.9992
46397SOL    HW244003   7.924   0.662   7.203  0.8350 -0.2130  0.3948
46398SOL     OW44004   6.320  10.709  10.204 -0.2262 -0.1562  0.4329
46398SOL    HW144005   6.293  10.761  10.129  1.5523 -2.3227 -1.8612
46398SOL    HW244006   6.238  10.672  10.239 -0.9612 -0.3976 -1.4570
46399SOL     OW44007  10.287   0.033   0.560  0.7967 -0.0736  0.2477
46399SOL    HW144008  10.260   0.123   0.543 -0.6013 -0.5808 -0.3961
46399SOL    HW244009  10.205  -0.015   0.566  1.5338 -1.5070 -0.6106
46400SOL     OW44010   2.655   3.912   8.435  0.2026  0.4290 -0.2849
46400SOL    HW144011   2.572   3.956   8.451  0.7205  0.8279  1.5399
46400SOL    HW244012   2.685   3.947   8.352 -1.4549  0.2369 -1.0112
46401SOL     OW44013   7.840   8.031  12.599 -1.0138 -0.0829 -0.4554
46401SOL    HW144014   7.924   8.054  12.639 -1.2038 -1.2454  0.6509
46401SOL    HW244015   7.858   7.950  12.551 -1.1726  0.4571 -1.4711
46402SOL     OW44016   8.855   7.452   4.812 -0.4078 -0.0481 -0.0260
46402SOL    HW144017   8.803   7.378   4.779 -0.9147  0.1130  0.4028
46402SOL    HW244018   8.933   7.411   4.849  0.6916 -0.1795 -2.3072
46403SOL     OW44019  10.543  10.281   8.711 -0.4884  0.0081  0.5449
46403SOL    HW144020  10.617  10.280   8.772 -0.0796  0.7887  0.0762
46403SOL    HW244021  10.582  10.308   8.627 -1.2420  0.0886  0.2157
46404SOL     OW44022   8.897   9.607   9.834 -0.2474 -0.0752 -0.2561
46404SOL    HW144023   8.875   9.651   9.917 -0.7174 -1.7835  0.5696
46404SOL    HW244024   8.959   9.666   9.791 -1.2594  1.6329  0.5396
46405SOL     OW44025   0.763  11.377   9.056  0.3386 -0.2312 -0.1545
46405SOL    HW144026   0.711  11.412   9.128 -0.8464 -2.0164 -0.0745
46405SOL    HW244027   0.796  11.294   9.090  2.6032  0.4678 -0.5071
46406SOL     OW44028  11.919   9.395   8.685 -0.6763  0.4137 -0.3135
46406SOL    HW144029  11.894   9.347   8.605 -0.7111  0.5116 -0.3606
46406SOL    HW244030  11.889   9.484   8.669 -0.2401  0.5443 -0.3943
46407SOL     OW44031   7.698   9.958   2.974 -0.2045  0.0413  0.6942
46407SOL    HW144032   7.612  10.000   2.963 -0.6093 -0.8912  0.1533
46407SOL    HW244033   7.681   9.884   3.032  0.0088 -0.7611 -0.2384
46408SOL     OW44034  10.954   4.070   5.264  0.2654  0.5788  0.3033
46408SOL    HW144035  10.930   4.036   5.350 -1.6407  0.3270 -0.2654
46408SOL    HW244036  10.920   4.160   5.263  0.3211  0.5977 -0.1483
46409SOL     OW44037   3.157   1.745   6.240 -0.0894  0.1580 -0.0713
46409SOL    HW144038   3.160   1.716   6.331 -0.2516 -0.9477 -0.4080
46409SOL    HW244039   3.076   1.708   6.205  0.3012  0.0020 -0.8491
46410SOL     OW44040   2.365   8.478  12.471  0.1055 -0.0455 -0.3852
46410SOL    HW144041   2.289   8.438  12.515 -0.1801  1.4698  0.5698
46410SOL    HW244042   2.406   8.405  12.424 -0.7789 -1.3156  0.7200
46411SOL     OW44043   4.186   4.153   7.117 -0.2668  0.1266  0.1517
46411SOL    HW144044   4.208   4.106   7.198 -0.7383  0.8412  0.7111
46411SOL    HW244045   4.270   4.167   7.074 -0.0772 -0.8993  0.1525
46412SOL     OW44046   3.467   1.631   0.096 -0.4130  0.4348 -0.3183
46412SOL    HW144047   3.404   1.641   0.168  1.1190 -0.3228  1.1949
46412SOL    HW244048   3.508   1.546   0.112  1.7302  1.3521 -0.6422
46413SOL     OW44049   0.209   2.473   1.149  0.1066  0.1136  0.1837
46413SOL    HW144050   0.120   2.483   1.116 -0.2510  2.3943  1.6258
46413SOL    HW244051   0.208   2.389   1.195 -2.9565  2.1678  4.5660
46414SOL     OW44052   2.215   9.092   9.848  0.1737 -0.7224 -0.0187
46414SOL    HW144053   2.250   9.058   9.766 -2.7955 -1.8552 -0.9776
46414SOL    HW244054   2.238   9.185   9.848  0.3294 -0.7248 -2.0900
46415SOL     OW44055  11.693   7.819   2.935 -0.2659  0.5785 -0.3813
46415SOL    HW144056  11.743   7.895   2.906 -1.0488  0.5560 -1.8375
46415SOL    HW244057  11.698   7.823   3.031  1.9167  0.9544 -0.4607
46416SOL     OW44058   4.495  10.818   9.477 -0.0452 -0.1587  0.4109
46416SOL    HW144059   4.556  10.829   9.404 -1.2361  1.0033 -0.4563
46416SOL    HW244060   4.440  10.896   9.475 -0.4140 -0.3138  2.2879
46417SOL     OW44061   9.677   0.342   6.128  0.7839 -0.0381 -0.1781
46417SOL    HW144062   9.585   0.341   6.156  1.1553  0.9527  1.2156
46417SOL    HW244063   9.684   0.418   6.071  1.1887  1.3799  1.6351
46418SOL     OW44064   5.290   1.705   1.415  0.6249  0.2916 -1.1436
46418SOL    HW144065   5.229   1.637   1.384 -0.9142  0.3674  1.4189
46418SOL    HW244066   5.356   1.657   1.464 -1.0719  0.6003  1.6115
46419SOL     OW44067  11.125   6.548   2.258 -0.0572  0.2946  0.3795
46419SOL    HW144068  11.090   6.632   2.290  0.4731  0.1121  1.4691
46419SOL    HW244069  11.077   6.533   2.176 -0.5961  1.3622  0.4703
46420SOL     OW44070   9.966   6.357   0.317 -0.4824 -0.2005  0.5381
46420SOL    HW144071   9.895   6.420   0.326 -0.3522 -0.0096  0.2411
46420SOL    HW244072   9.940   6.283   0.372 -0.4760  0.2575  1.1662
46421SOL     OW44073   9.176   3.169  10.891  0.7093  0.1385 -0.1855
46421SOL    HW144074   9.261   3.211  10.900  0.2187  1.1095  0.0126
46421SOL    HW244075   9.143   3.198  10.806  0.8685 -0.7977 -0.5822
46422SOL     OW44076   7.007   7.112  10.986  0.5704  0.1377  0.2800
46422SOL    HW144077   6.920   7.071  10.985 -0.4007  1.7650 -3.7678
46422SOL    HW244078   6.999   7.183  11.050 -1.1305  0.2651 -0.0202
46423SOL     OW44079  12.622   6.175   9.517 -0.4655  0.2161  0.0941
46423SOL    HW144080  12.551   6.178   9.453 -0.0471 -1.9532 -0.5538
46423SOL    HW244081  12.591   6.115   9.585 -0.2065  1.1627  1.0796
46424SOL     OW44082   2.529   3.359  12.559 -0.2117  0.1936 -0.2437
46424SOL    HW144083   2.516   3.384  12.467  1.0075  1.6933 -0.0393
46424SOL    HW244084   2.488   3.429  12.609 -1.4703 -0.9514  0.4071
46425SOL     OW44085  12.373   6.323   4.542 -0.4775 -0.0494 -0.1601
46425SOL    HW144086  12.385   6.259   4.472  0.9939 -1.4545  1.2826
46425SOL    HW244087  12.380   6.271   4.622 -2.2321  1.4727  1.0669
46426SOL     OW44088   5.398   1.578   7.544  0.5003  0.8397 -1.0144
46426SOL    HW144089   5.429   1.535   7.465  1.5211  1.7907 -1.1584
46426SOL    HW244090   5.429   1.668   7.536  1.0855  0.8365  0.7022
46427SOL     OW44091   3.129   0.104   8.751 -0.3186 -0.1234 -0.3865
46427SOL    HW144092   3.105   0.186   8.708  0.4782  0.3036 -0.0502
46427SOL    HW244093   3.170   0.132   8.833 -1.0096 -0.8944  0.2394
46428SOL     OW44094  12.356   6.504   9.291  0.1741  0.5149 -0.2916
46428SOL    HW144095  12.421   6.469   9.230 -1.4081  0.7462 -2.2290
46428SOL    HW244096  12.287   6.539   9.234 -0.9759  1.5715  1.6514
46429SOL     OW44097  10.178   7.364  12.430 -0.0601  0.0890 -0.4394
46429SOL    HW144098  10.155   7.317  12.350  1.4315  0.0464 -0.8691
46429SOL    HW244099  10.158   7.455  12.411 -0.0374  0.0344 -0.7257
46430SOL     OW44100   2.017   4.996  12.101 -0.3740 -0.1056 -0.0781
46430SOL    HW144101   2.015   5.039  12.016  1.0501  0.2094  0.0199
46430SOL    HW244102   1.941   4.939  12.101 -1.6609  1.5451 -0.6674
46431SOL     OW44103   9.290   4.246   1.942  0.7444 -0.0063 -0.3152
46431SOL    HW144104   9.336   4.329   1.938  0.4641  0.2794  1.3990
46431SOL    HW244105   9.200   4.267   1.915  0.6801  0.2550  0.0916
46432SOL     OW44106   5.652   3.358   3.842  0.3458  0.5960 -0.4277
46432SOL    HW144107   5.580   3.325   3.787 -0.1300  0.0376  0.5039
46432SOL    HW244108   5.624   3.339   3.931  1.6186  0.4566 -0.0457
46433SOL     OW44109  10.858   2.892   2.179  0.0994 -0.4387 -0.4024
46433SOL    HW144110  10.950   2.890   2.206  0.8761  1.7481 -2.4896
46433SOL    HW244111  10.849   2.823   2.114  0.3489 -0.4871 -0.3830
46434SOL     OW44112  10.875   1.992   5.760 -0.2866 -0.0966  0.2547
46434SOL    HW144113  10.875   2.085   5.783  0.2731  0.5038 -1.9888
46434SOL    HW244114  10.966   1.965   5.774 -0.6068 -0.5449  1.6413
46435SOL     OW44115  10.859   1.984   9.411 -0.1147 -0.4997 -0.3135
46435SOL    HW144116  10.812   2.061   9.444  1.1153 -0.9009  2.7350
46435SOL    HW244117  10.860   1.923   9.485  3.9218 -1.0494 -0.5976
46436SOL     OW44118  10.544   4.971   3.746  0.2310  0.4735  0.0477
46436SOL    HW144119  10.528   4.877   3.741 -2.2937  0.8791 -1.0049
46436SOL    HW244120  10.552   4.999   3.655  0.6425  1.3169  0.3331
46437SOL     OW44121   2.455   4.289   0.714 -0.2347 -0.2861  0.1709
46437SOL    HW144122   2.492   4.219   0.660 -0.2636  0.0611 -0.3070
46437SOL    HW244123   2.367   4.302   0.678 -0.8032 -1.0550  1.2496
46438SOL     OW44124   5.823   1.568   6.720  0.6310 -0.0228  0.1993
46438SOL    HW144125   5.818   1.472   6.722 -0.7216  0.0378  2.0256
46438SOL    HW244126   5.915   1.586   6.702  0.7799 -1.6493 -0.9247
46439SOL     OW44127   7.713  12.446   8.817 -0.4002  0.2944  0.6379
46439SOL    HW144128   7.647  12.457   8.885 -0.7994  0.9956  0.1425
46439SOL    HW244129   7.770  12.522   8.826 -0.0151  0.0111  0.6556
46440SOL     OW44130  12.538  12.530   5.092 -0.0040 -0.3155 -0.7580
46440SOL    HW144131  12.563  12.576   5.172  0.2721  1.0076 -1.5759
46440SOL    HW244132  12.447  12.503   5.108  0.4664 -1.2409  0.4975
46441SOL     OW44133  12.344   0.070   5.432 -0.0114 -0.1020 -0.1332
46441SOL    HW144134  12.300  -0.011   5.405  0.0627  0.0342 -0.6687
46441SOL    HW244135  12.315   0.084   5.522  0.8337 -1.3130  0.3491
46442SOL     OW44136   1.842   4.686   1.038 -0.3956 -0.0100 -0.0707
46442SOL    HW144137   1.825   4.592   1.046  2.3039 -0.5883  0.0212
46442SOL    HW244138   1.804   4.724   1.116 -1.1980 -1.0927  0.0919
46443SOL     OW44139   3.636   9.888  11.337  0.2312 -0.0348 -0.1945
46443SOL    HW144140   3.629   9.938  11.256 -1.8262 -0.9309 -0.6313
46443SOL    HW244141   3.647   9.797  11.308 -2.0801 -0.5760  0.4404
46444SOL     OW44142   8.702   8.437  10.518 -0.1447  0.1175 -0.1182
46444SOL    HW144143   8.632   8.488  10.476  1.0579  0.8995 -1.2467
46444SOL    HW244144   8.697   8.460  10.610  0.4415  2.4387 -0.6148
46445SOL     OW44145   2.543   7.988   8.951 -0.0926  0.2278 -0.0157
46445SOL    HW144146   2.530   7.993   9.046 -0.3790  2.0223 -0.1201
46445SOL    HW244147   2.569   8.076   8.925 -1.7105  0.2477 -1.8324
46446SOL     OW44148   9.744   7.917   3.213  0.4379 -0.3606  0.2452
46446SOL    HW144149   9.713   7.905   3.303 -0.9804  2.1290  0.1861
46446SOL    HW244150   9.695   7.852   3.162 -1.7573  0.7654  0.7822
46447SOL     OW44151   3.278   6.844  11.393 -0.2718  0.1622  0.4801
46447SOL    HW144152   3.311   6.892  11.317  0.9235  2.1412  2.1427
46447SOL    HW244153   3.328   6.879  11.467 -1.2815 -1.7822  2.1786
46448SOL     OW44154   6.693   2.766  11.229  0.5752  0.3412 -0.8423
46448SOL    HW144155   6.662   2.794  11.143 -0.7854  0.5627 -0.3042
46448SOL    HW244156   6.720   2.846  11.273 -4.0363  1.2155  0.9874
46449SOL     OW44157   6.013  10.351  11.544 -0.3580 -0.4406  0.4444
46449SOL    HW144158   6.090  10.344  11.488 -0.7126  0.0270 -0.1099
46449SOL    HW244159   6.047  10.390  11.625  0.1146 -0.9095  0.4754
46450SOL     OW44160   6.567   1.824   1.580 -0.0250 -0.3051  0.4509
46450SOL    HW144161   6.503   1.768   1.625  0.3448  0.2421  1.7012
46450SOL    HW244162   6.558   1.909   1.622 -0.7409  0.6895 -1.5857
46451SOL     OW44163   7.747   9.687   0.061  0.0966 -0.1039 -0.0491
46451SOL    HW144164   7.762   9.734   0.143  0.9243  0.0449 -0.2763
46451SOL    HW244165   7.752   9.595   0.085  1.2000 -0.0565 -0.0802
46452SOL     OW44166   6.542   2.142   3.081  0.1132  0.4701 -0.0605
46452SOL    HW144167   6.512   2.120   2.993  1.1919 -1.6322  0.0134
46452SOL    HW244168   6.638   2.141   3.075  0.2225 -0.6135  1.2989
46453SOL     OW44169   9.607  11.027   2.238 -0.6501 -0.4885  0.2488
46453SOL    HW144170   9.548  10.958   2.206 -0.4704 -0.6207  0.2060
46453SOL    HW244171   9.576  11.044   2.327 -0.7430 -0.5696  0.2334
46454SOL     OW44172   6.377  10.209  11.732 -0.4485  0.3000  0.0146
46454SOL    HW144173   6.365  10.156  11.811  1.8725  2.0975  1.6930
46454SOL    HW244174   6.320  10.285  11.746 -1.7134 -0.3919 -1.1394
46455SOL     OW44175   3.894   4.411   6.853 -0.4316 -0.0770  0.3801
46455SOL    HW144176   3.875   4.328   6.897 -0.5713 -0.2648 -0.0354
46455SOL    HW244177   3.813   4.433   6.807 -0.0266 -0.2872 -0.4459
46456SOL     OW44178   4.976   1.134  11.855  0.2465 -0.1983 -0.5588
46456SOL    HW144179   4.997   1.172  11.941 -2.2627 -1.5308  0.7630
46456SOL    HW244180   5.012   1.045  11.859  1.9986  0.4201 -1.7874
46457SOL     OW44181   1.587  11.547   2.602  0.1449 -0.0465  0.0218
46457SOL    HW144182   1.675  11.581   2.619 -0.1239  0.7729 -0.1975
46457SOL    HW244183   1.550  11.608   2.538 -0.3308 -0.7886 -0.4136
46458SOL     OW44184   4.440   2.443   1.975  0.2058  0.1029  0.2235
46458SOL    HW144185   4.445   2.509   1.906  1.2706 -1.1606 -0.9598
46458SOL    HW244186   4.346   2.425   1.983  0.0081  0.8116 -0.3465
46459SOL     OW44187   5.688  11.880   5.628  0.3534  0.6466 -0.4029
46459SOL    HW144188   5.698  11.948   5.694 -0.3423  1.0862 -0.7335
46459SOL    HW244189   5.649  11.926   5.553  0.6968  0.0631 -0.9430
46460SOL     OW44190   5.058   5.417   5.611 -0.0906  0.2642  0.0816
46460SOL    HW144191   5.121   5.347   5.592  0.5956  1.2394 -1.3693
46460SOL    HW244192   5.006   5.383   5.684  0.2009 -1.7735 -0.6036
46461SOL     OW44193   0.050   1.390   8.931 -0.3197 -0.1433  0.1321
46461SOL    HW144194   0.001   1.307   8.933 -2.8316  1.2393 -0.5726
46461SOL    HW244195   0.035   1.425   8.843  1.6158  0.5932  0.0460
46462SOL     OW44196  12.472  11.485   6.780  0.2380  0.2067 -0.4560
46462SOL    HW144197  12.460  11.579   6.774 -0.6733  0.1852  0.7002
46462SOL    HW244198  12.385  11.448   6.766  0.5042 -0.4520 -0.4563
46463SOL     OW44199   8.426   5.026  11.236  0.4623 -0.3193  0.4762
46463SOL    HW144200   8.368   5.011  11.161  0.4361 -0.2012  0.4722
46463SOL    HW244201   8.509   4.986  11.211  0.5271 -0.0715  0.2815
46464SOL     OW44202   3.721   2.819   8.695 -0.4762  0.0248 -0.3930
46464SOL    HW144203   3.801   2.789   8.738  0.0896  1.0036 -0.7083
46464SOL    HW244204   3.676   2.739   8.669  1.9307 -0.6829 -2.9807
46465SOL     OW44205   7.338   5.355   2.293  0.1088  0.0626 -0.7692
46465SOL    HW144206   7.389   5.282   2.327  0.7241  0.8656  0.0727
46465SOL    HW244207   7.271   5.314   2.238 -0.7377 -1.2716  1.1794
46466SOL     OW44208   9.608   5.362   8.288 -0.3556 -0.4559  0.5041
46466SOL    HW144209   9.538   5.412   8.331 -0.2684 -0.2012  0.3521
46466SOL    HW244210   9.622   5.286   8.345 -0.0689  0.0093  1.0629
46467SOL     OW44211   4.859   2.190  11.625 -0.4096 -0.2886 -0.2252
46467SOL    HW144212   4.806   2.261  11.663 -1.3290 -0.5554 -0.9843
46467SOL    HW244213   4.824   2.110  11.666  0.2389 -0.3695  0.1915
46468SOL     OW44214   8.606   7.857   4.868 -0.0434 -0.3428 -0.2079
46468SOL    HW144215   8.570   7.805   4.796 -1.0423  0.1633 -0.0899
46468SOL    HW244216   8.669   7.799   4.910  0.5374 -0.6691 -1.4535
46469SOL     OW44217   6.937   8.520   3.107 -0.0016 -0.0121  0.9986
46469SOL    HW144218   6.927   8.609   3.071  1.4162 -0.2024  0.0268
46469SOL    HW244219   6.967   8.533   3.196  3.0621  0.5840 -0.0080
46470SOL     OW44220   7.376   6.012  11.413  0.3214  0.0609  0.2175
46470SOL    HW144221   7.378   5.994  11.507  1.0040 -1.0643  0.0126
46470SOL    HW244222   7.286   5.993  11.387 -0.2715  1.7948  0.8694
46471SOL     OW44223   4.753   5.451  10.175 -0.0638 -0.3668 -0.1718
46471SOL    HW144224   4.839   5.426  10.207  0.3307 -0.9622 -1.5932
46471SOL    HW244225   4.694   5.437  10.249  1.3199  2.0221  1.4968
46472SOL     OW44226   7.044  12.016   3.745  0.3096 -0.0212  0.3635
46472SOL    HW144227   7.100  11.961   3.800 -0.9028 -0.4008  1.2789
46472SOL    HW244228   6.977  11.956   3.712 -0.0349  0.5786 -0.0388
46473SOL     OW44229   2.923   5.669   5.839  0.3332  0.4867  0.5942
46473SOL    HW144230   3.011   5.659   5.875  1.0929  0.2397 -1.2240
46473SOL    HW244231   2.872   5.705   5.912  1.8927  0.5385  1.7295
46474SOL     OW44232   9.064  12.275   5.213 -0.6615  0.5180  0.4522
46474SOL    HW144233   9.138  12.233   5.170 -0.9505 -0.6972  1.1138
46474SOL    HW244234   9.072  12.251   5.305 -1.7961  0.4774  0.5551
46475SOL     OW44235   9.890   3.332  10.774  0.1737 -0.0705  0.2973
46475SOL    HW144236   9.899   3.265  10.706 -2.0930  0.2922 -0.4656
46475SOL    HW244237   9.842   3.288  10.844 -1.3109  0.6725 -0.2001
46476SOL     OW44238   4.117   3.319   6.206 -0.1957 -0.3243  0.2971
46476SOL    HW144239   4.027   3.352   6.216 -0.2197 -0.0133 -0.7278
46476SOL    HW244240   4.106   3.225   6.195 -0.5239 -0.1582 -0.9925
46477SOL     OW44241  10.430   6.939   0.306 -0.1523 -0.1820  0.1712
46477SOL    HW144242  10.400   6.896   0.385  0.7534 -0.1947  0.5166
46477SOL    HW244243  10.387   7.025   0.308  1.7481  0.8043  1.9697
46478SOL     OW44244  11.386   7.618   4.120  0.9935  0.1708  0.2240
46478SOL    HW144245  11.339   7.688   4.165  1.5648  0.0264  1.0751
46478SOL    HW244246  11.332   7.540   4.133  1.2043  0.1096  0.7583
46479SOL     OW44247   2.589   0.949   3.887 -0.4256  0.0503  0.3657
46479SOL    HW144248   2.561   1.037   3.913  1.8042  0.6728  0.9717
46479SOL    HW244249   2.578   0.947   3.792  1.6403  1.9265 -0.0086
46480SOL     OW44250   3.815   0.144   0.815  0.2366 -0.0747 -0.1357
46480SOL    HW144251   3.904   0.153   0.848  0.9917 -0.2965 -1.9545
46480SOL    HW244252   3.797   0.228   0.773 -1.3858  0.8796  2.2674
46481SOL     OW44253   1.389   7.707   5.423 -0.3956  0.5919  0.0159
46481SOL    HW144254   1.408   7.642   5.356 -0.8724  0.1026  0.3444
46481SOL    HW244255   1.333   7.771   5.380  0.7398  1.2377 -0.5377
46482SOL     OW44256   0.202   4.419   9.780  0.2485 -0.1291  0.5167
46482SOL    HW144257   0.268   4.350   9.769 -1.1249 -1.2189 -1.4940
46482SOL    HW244258   0.121   4.371   9.799 -0.3689  1.0722  1.0001
46483SOL     OW44259   3.673   9.905   6.905 -0.4396  0.5730  0.2497
46483SOL    HW144260   3.735   9.900   6.979 -1.1271 -1.3036  0.7646
46483SOL    HW244261   3.621   9.983   6.922  0.9010  1.4452  0.5142
46484SOL     OW44262   4.564   8.777   9.813  0.7446  0.2239  0.6926
46484SOL    HW144263   4.551   8.870   9.828  1.3629  0.3703  0.3631
46484SOL    HW244264   4.627   8.751   9.881  0.9873  0.1624  0.4439
46485SOL     OW44265   7.509   4.581   9.247  0.3193  0.5984 -0.2483
46485SOL    HW144266   7.479   4.667   9.277  1.1530  1.3051 -1.3902
46485SOL    HW244267   7.493   4.523   9.322  2.0424  2.2219  1.4783
46486SOL     OW44268   4.206   9.774   9.847 -0.6115  0.1694 -0.1994
46486SOL    HW144269   4.153   9.697   9.864 -0.0937 -0.4411 -1.2492
46486SOL    HW244270   4.255   9.788   9.928 -1.4684  0.0253  0.3518
46487SOL     OW44271  12.001   6.162  10.400 -0.3869  0.0135 -0.6578
46487SOL    HW144272  11.996   6.088  10.341  0.1320  0.1537 -0.8818
46487SOL    HW244273  12.094   6.168  10.424 -0.5000  0.3028 -0.2758
46488SOL     OW44274  10.940   3.953   8.192 -0.1040 -0.1086  0.0015
46488SOL    HW144275  11.028   3.915   8.202  1.0581  2.3708 -0.0282
46488SOL    HW244276  10.887   3.881   8.157  1.9706 -1.6153 -0.2492
46489SOL     OW44277   7.245   1.710  10.190  0.2124 -0.0408 -0.1167
46489SOL    HW144278   7.304   1.641  10.160  1.8573  1.5588 -0.8415
46489SOL    HW244279   7.280   1.736  10.275 -1.2648 -1.0084  0.8345
46490SOL     OW44280   0.330  11.901   6.138 -0.1110  0.4935  0.0331
46490SOL    HW144281   0.267  11.954   6.188 -1.4858  0.4520 -1.5709
46490SOL    HW244282   0.374  11.964   6.081  0.3046  0.2958  0.1247
46491SOL     OW44283   3.634  11.324   4.706 -0.0822  0.1162  0.1465
46491SOL    HW144284   3.719  11.280   4.707  0.8847  1.8793 -0.2882
46491SOL    HW244285   3.630  11.373   4.788 -0.3141  0.7229 -0.2232
46492SOL     OW44286   5.483   0.885   0.808  0.3596 -0.1679 -0.3314
46492SOL    HW144287   5.558   0.937   0.838 -1.0585  0.5507  2.3558
46492SOL    HW244288   5.422   0.949   0.772 -0.8803 -0.0109  1.8691
46493SOL     OW44289   0.375   5.461   9.748 -0.6907 -0.3446 -0.0750
46493SOL    HW144290   0.315   5.427   9.814 -1.5552 -0.0966 -0.7008
46493SOL    HW244291   0.383   5.554   9.768 -2.5903  0.2016 -1.4482
46494SOL     OW44292  12.027   8.509   8.581  0.7832 -0.4268 -0.1473
46494SOL    HW144293  12.089   8.435   8.577  0.2321 -0.8722 -0.8031
46494SOL    HW244294  11.942   8.469   8.561  0.2928  0.1943  0.6600
46495SOL     OW44295   9.473   7.756   0.161 -0.1367  0.1213 -0.7838
46495SOL    HW144296   9.513   7.842   0.146  0.3730 -0.4852 -3.2251
46495SOL    HW244297   9.530   7.714   0.225 -0.1044  1.3768  0.0549
46496SOL     OW44298   8.067  11.034   8.285  0.4120  0.2454  0.0214
46496SOL    HW144299   8.081  11.058   8.193  0.1921  2.1068  0.4470
46496SOL    HW244300   7.972  11.037   8.296  0.5013  1.3243  0.6159
46497SOL     OW44301   8.424   0.942   7.385 -0.2118  0.4895 -0.1592
46497SOL    HW144302   8.392   0.987   7.307 -0.6329  0.9920  0.3019
46497SOL    HW244303   8.425   1.009   7.453 -1.3066 -0.2956  0.6597
46498SOL     OW44304  11.876   3.856  12.175 -0.4614 -0.5074  0.2817
46498SOL    HW144305  11.810   3.839  12.108  0.1743 -1.4588 -0.1116
46498SOL    HW244306  11.831   3.913  12.238 -2.0818 -2.1633  0.7106
46499SOL     OW44307  10.613   5.880   3.504 -0.0489 -0.2215 -0.1264
46499SOL    HW144308  10.526   5.912   3.480  0.7019  0.1797 -2.5310
46499SOL    HW244309  10.603   5.849   3.594 -2.7167 -0.3817 -0.4021
46500SOL     OW44310   5.602   4.238   9.111 -0.5912  0.2288 -0.1076
46500SOL    HW144311   5.662   4.216   9.182 -1.7710  1.0512  1.1775
46500SOL    HW244312   5.647   4.307   9.062 -0.3701  0.6613  0.6874
46501SOL     OW44313   6.614   0.527   0.929 -0.3092  0.2220 -0.0439
46501SOL    HW144314   6.638   0.619   0.938 -0.5455  0.3020 -0.2398
46501SOL    HW244315   6.686   0.489   0.878  1.0213 -0.2237  2.0235
46502SOL     OW44316   1.095   4.382   2.874  0.0897 -0.3417  0.4914
46502SOL    HW144317   1.042   4.310   2.908 -0.8231  0.3904  0.6205
46502SOL    HW244318   1.137   4.345   2.796 -1.3510 -0.6368 -0.1666
46503SOL     OW44319   6.459   4.420   7.267  0.4988  0.1883 -0.3402
46503SOL    HW144320   6.420   4.338   7.298 -0.1537 -0.3993 -2.5416
46503SOL    HW244321   6.553   4.409   7.283  0.3259 -0.6070  0.1894
46504SOL     OW44322   6.084   5.691   3.399 -0.7381 -0.2391  0.2995
46504SOL    HW144323   6.142   5.727   3.466 -0.0539  2.2794 -1.5360
46504SOL    HW244324   6.140   5.633   3.347 -1.1095 -1.6384  1.3718
46505SOL     OW44325   7.327   3.104   1.919  0.3338  0.1994 -0.4861
46505SOL    HW144326   7.339   3.021   1.964 -0.1714 -0.0818 -0.8643
46505SOL    HW244327   7.348   3.170   1.985 -0.9325 -0.1896  0.3497
46506SOL     OW44328   8.219   6.175   4.838 -0.1416 -0.2479 -0.3250
46506SOL    HW144329   8.279   6.142   4.904  1.2387 -1.0218 -1.9081
46506SOL    HW244330   8.237   6.269   4.833  0.6346 -0.4041 -0.4892
46507SOL     OW44331   3.432  11.993   7.531 -0.0647  0.5526  0.1594
46507SOL    HW144332   3.466  11.937   7.601  0.7794 -0.4311 -0.9803
46507SOL    HW244333   3.338  11.977   7.531  0.1636 -0.9336 -0.1662
46508SOL     OW44334  10.635   3.688   5.589 -0.7403 -0.4800 -0.0540
46508SOL    HW144335  10.622   3.617   5.651 -1.0956 -0.7073 -0.3886
46508SOL    HW244336  10.709   3.661   5.535  1.6231  1.0455  2.1905
46509SOL     OW44337   8.043  10.633   7.288 -0.0203  0.2141  0.0398
46509SOL    HW144338   8.058  10.726   7.308  1.6075 -0.0208  0.0024
46509SOL    HW244339   8.069  10.623   7.197  2.5538 -0.8168  0.8124
46510SOL     OW44340   2.129  10.621  11.321 -0.1842  0.3073  0.0206
46510SOL    HW144341   2.051  10.673  11.342 -1.8250 -2.0398  0.1050
46510SOL    HW244342   2.197  10.686  11.303 -2.6474  2.5549 -2.0826
46511SOL     OW44343   0.652   3.628  11.014  0.5636  0.5304  0.1152
46511SOL    HW144344   0.687   3.706  10.969  0.3846  0.9732  0.7338
46511SOL    HW244345   0.559   3.627  10.990  1.2898 -1.7864 -3.1933
46512SOL     OW44346   8.230   4.686  10.724 -0.1117 -0.7216 -0.1082
46512SOL    HW144347   8.302   4.631  10.694 -0.0755 -0.7956  0.1107
46512SOL    HW244348   8.274   4.764  10.760 -0.2101  0.2165 -1.9040
46513SOL     OW44349   1.959  11.297   5.620  0.5100 -0.1484 -0.1891
46513SOL    HW144350   1.934  11.389   5.618  1.2307  0.0758  0.5645
46513SOL    HW244351   1.905  11.256   5.552 -1.5731  0.3595  1.0709
46514SOL     OW44352  11.908   1.558  10.170 -0.4909  0.4642 -0.8432
46514SOL    HW144353  11.828   1.593  10.129 -1.1550  0.8653  0.7147
46514SOL    HW244354  11.892   1.566  10.264  1.3144  0.3433 -0.4939
46515SOL     OW44355   0.442  12.186  10.889 -0.9658  0.0088  0.7930
46515SOL    HW144356   0.416  12.180  10.981 -0.4872  1.0424  1.0035
46515SOL    HW244357   0.366  12.153  10.841 -0.6794 -1.9887  1.5980
46516SOL     OW44358  11.230   0.556   7.396  0.4749 -0.0785 -0.4765
46516SOL    HW144359  11.269   0.511   7.471 -0.3320 -0.1242 -0.0731
46516SOL    HW244360  11.202   0.487   7.337 -1.4566 -0.1838  0.4898
46517SOL     OW44361   1.271  11.167   0.786  0.2131 -0.4342  0.2828
46517SOL    HW144362   1.260  11.188   0.879  0.1780 -4.1561  1.2941
46517SOL    HW244363   1.184  11.142   0.756 -0.0777  2.1092 -1.2762
46518SOL     OW44364   5.044   2.175   5.320 -0.0248 -0.5786  0.0366
46518SOL    HW144365   5.134   2.206   5.332  0.1476  0.3130 -2.9217
46518SOL    HW244366   4.990   2.240   5.364  0.6690  0.4851 -0.6309
46519SOL     OW44367   5.542   5.502   0.233 -0.0562 -0.0671 -0.3337
46519SOL    HW144368   5.539   5.597   0.245  1.0380  0.3249 -2.5194
46519SOL    HW244369   5.594   5.469   0.306 -2.1819  0.6991  1.6358
46520SOL     OW44370   3.485   4.274   9.568  0.0496 -0.0820  0.1415
46520SOL    HW144371   3.505   4.237   9.655 -1.1037 -0.8313  0.1247
46520SOL    HW244372   3.521   4.211   9.507 -0.6889 -0.4908  0.1062
46521SOL     OW44373   3.159   3.435   9.179  0.1288 -0.3485  0.3094
46521SOL    HW144374   3.160   3.356   9.234 -1.3114 -1.2119 -0.8074
46521SOL    HW244375   3.227   3.420   9.114  1.9819  0.7675  1.8682
46522SOL     OW44376   3.897   9.832   2.715  0.1309  0.3269 -0.1089
46522SOL    HW144377   3.804   9.835   2.737  0.3228  1.1669  0.6683
46522SOL    HW244378   3.902   9.779   2.635 -1.1379  1.2675 -0.8447
46523SOL     OW44379   2.232  12.211   4.361  0.0429 -0.5421  0.2422
46523SOL    HW144380   2.309  12.204   4.418 -0.5239 -1.5065  0.9068
46523SOL    HW244381   2.267  12.235   4.276  0.9119  1.0133  0.9928
46524SOL     OW44382   7.618   1.593   3.802 -0.2557  0.0308  0.7758
46524SOL    HW144383   7.674   1.592   3.880  0.0303  2.3739  0.6616
46524SOL    HW244384   7.535   1.554   3.832  0.2682 -0.2710  1.8899
46525SOL     OW44385   4.405  10.915   0.299  0.1693 -0.4335  0.0384
46525SOL    HW144386   4.316  10.893   0.272  0.0740  0.1985 -0.1846
46525SOL    HW244387   4.461  10.857   0.247 -0.0921 -0.4922 -0.1809
46526SOL     OW44388   5.549   4.052   5.255  0.3280  0.0218 -0.3386
46526SOL    HW144389   5.506   3.967   5.248  1.4176 -0.6597  0.9397
46526SOL    HW244390   5.569   4.076   5.165 -0.3839 -0.8613 -0.7475
46527SOL     OW44391   0.081   6.622   4.293  0.4719  0.2437  0.0741
46527SOL    HW144392   0.085   6.526   4.295  1.0992  0.2726  0.3938
46527SOL    HW244393   0.172   6.650   4.301  0.1964  0.8880  1.0832
46528SOL     OW44394   3.238  12.185   6.960  0.3262 -0.2919  0.2391
46528SOL    HW144395   3.319  12.152   7.001 -0.1086 -3.3150 -1.0839
46528SOL    HW244396   3.175  12.114   6.972 -0.3606 -0.6213 -3.8670
46529SOL     OW44397  11.508   6.719  10.272  0.1358  0.3095  0.5000
46529SOL    HW144398  11.420   6.757  10.274  0.4297  1.2641 -1.5962
46529SOL    HW244399  11.563   6.782  10.318  0.1052  0.9969 -0.3619
46530SOL     OW44400   5.629   9.800   6.014  0.0793  0.2760 -0.3441
46530SOL    HW144401   5.551   9.849   5.988  0.4318  0.5884 -0.8341
46530SOL    HW244402   5.644   9.825   6.105 -0.4725  0.1043 -0.2011
46531SOL     OW44403   5.153   5.176  11.793 -0.2456 -0.5294  0.0026
46531SOL    HW144404   5.190   5.227  11.865  0.8801 -1.9770  0.5012
46531SOL    HW244405   5.067   5.214  11.778  0.3389  1.1569  0.6823
46532SOL     OW44406  11.382   2.997   4.341  0.0012  0.0238  0.6358
46532SOL    HW144407  11.409   2.983   4.251 -0.8604  0.4478  0.2991
46532SOL    HW244408  11.343   2.914   4.368  1.2574 -0.4691  1.0024
46533SOL     OW44409   8.148   9.493  11.385 -0.7830  0.5367  0.0298
46533SOL    HW144410   8.213   9.556  11.417 -0.3440 -0.0029  0.2159
46533SOL    HW244411   8.192   9.450  11.311 -1.4274  1.0963 -0.6963
46534SOL     OW44412   0.296   6.561   3.670  0.5934  0.0010 -0.0205
46534SOL    HW144413   0.349   6.641   3.676  0.2979  0.0994  1.8484
46534SOL    HW244414   0.358   6.493   3.645  1.4275  0.2944  1.1599
46535SOL     OW44415   7.050   4.846   6.422 -0.0978  0.6657 -0.0211
46535SOL    HW144416   7.090   4.762   6.445 -3.6998 -1.7586 -1.6519
46535SOL    HW244417   7.078   4.863   6.332  0.5302  1.1896  0.2653
46536SOL     OW44418   1.556   1.831   7.932  0.2146  0.0816 -0.4318
46536SOL    HW144419   1.628   1.848   7.871  1.0156 -1.5083  0.0176
46536SOL    HW244420   1.571   1.894   8.003  0.7705  0.2127 -0.6564
46537SOL     OW44421   4.500   5.714   9.616  0.3763 -0.7798  0.3290
46537SOL    HW144422   4.561   5.642   9.633  1.3800 -0.0412 -0.0370
46537SOL    HW244423   4.466   5.738   9.702  0.3025 -1.4451  0.4928
46538SOL     OW44424  10.496   3.250   2.931 -0.9484  0.1669  0.8270
46538SOL    HW144425  10.561   3.213   2.990 -1.4139  1.0125  1.8941
46538SOL    HW244426  10.544   3.315   2.880  0.3521 -2.8951 -2.3744
46539SOL     OW44427   3.742   2.143   5.835 -0.8083 -0.1822 -0.8532
46539SOL    HW144428   3.738   2.234   5.805 -0.1250  0.9876  2.2779
46539SOL    HW244429   3.669   2.100   5.791 -2.3396  2.3744 -0.9759
46540SOL     OW44430   1.441   9.683  11.615 -0.1609 -0.1245 -0.2868
46540SOL    HW144431   1.455   9.646  11.528 -2.3368  0.3077 -0.8558
46540SOL    HW244432   1.491   9.626  11.673  0.0040 -1.3944 -1.6287
46541SOL     OW44433   7.901   1.171   7.572  0.2307 -0.0823 -0.2432
46541SOL    HW144434   7.970   1.106   7.587  0.1774 -0.4318 -1.4179
46541SOL    HW244435   7.911   1.196   7.481 -0.0504  1.2318  0.0620
46542SOL     OW44436   2.379  12.391   7.841 -0.5929  0.3755 -0.5189
46542SOL    HW144437   2.408  12.453   7.908 -2.8921  1.7073 -0.6707
46542SOL    HW244438   2.311  12.340   7.884 -2.0019  1.1606 -1.7551
46543SOL     OW44439   1.581  10.333   7.405  0.6916 -0.3091 -0.3433
46543SOL    HW144440   1.494  10.342   7.445  0.2924 -1.5568 -0.8663
46543SOL    HW244441   1.601  10.240   7.411  1.8683 -0.0813 -0.5094
46544SOL     OW44442   2.620   7.154   6.841 -0.3146 -0.2126 -0.5453
46544SOL    HW144443   2.558   7.086   6.869  0.1321 -0.8185 -0.9987
46544SOL    HW244444   2.706   7.118   6.864 -0.0603  0.1047 -0.9855
46545SOL     OW44445  11.281   7.411   3.368 -0.2695 -0.1268 -0.1953
46545SOL    HW144446  11.295   7.497   3.329  0.3818 -0.2047 -0.1442
46545SOL    HW244447  11.237   7.360   3.300  1.1101 -0.3531 -0.9550
46546SOL     OW44448  10.139   7.678  10.827 -0.4002  0.0911 -0.4560
46546SOL    HW144449  10.214   7.724  10.788  0.3149 -0.8920 -0.2738
46546SOL    HW244450  10.153   7.586  10.804 -1.4122 -0.1385 -0.1766
46547SOL     OW44451   6.775   0.884   6.166 -0.2247  0.4364  0.9377
46547SOL    HW144452   6.826   0.962   6.144 -0.7664  0.0715 -1.9123
46547SOL    HW244453   6.700   0.918   6.215 -0.7135  1.8066 -0.6816
46548SOL     OW44454   4.690   4.025  11.343  0.1946 -0.1640  0.5822
46548SOL    HW144455   4.617   4.086  11.332  0.2386  0.1362  1.8122
46548SOL    HW244456   4.753   4.051  11.276  0.4307  1.4905  1.4032
46549SOL     OW44457   6.013   0.235   2.114 -0.6491  0.1744 -0.2837
46549SOL    HW144458   5.968   0.161   2.072  0.6603 -0.3994 -0.7613
46549SOL    HW244459   6.096   0.241   2.066  0.3089  0.3847  1.3525
46550SOL     OW44460   4.367   5.844   0.891 -0.0332  0.2796 -0.7091
46550SOL    HW144461   4.393   5.753   0.908 -0.2039  0.4638  0.6820
46550SOL    HW244462   4.446   5.895   0.909  0.6531  0.3035 -3.3629
46551SOL     OW44463   4.470  11.393   1.955 -0.1599  0.3728 -0.5515
46551SOL    HW144464   4.465  11.299   1.938  0.6982  0.3788 -0.8637
46551SOL    HW244465   4.556  11.419   1.923 -0.4278  1.2860 -0.5594
46552SOL     OW44466   7.980   1.560   4.177 -0.1753 -0.4421  0.4644
46552SOL    HW144467   8.007   1.651   4.169  0.0910 -0.3887  1.7909
46552SOL    HW244468   7.884   1.564   4.174 -0.2307  0.0770  2.0785
46553SOL     OW44469   3.267   2.912   1.655 -0.6596  0.0710  0.5230
46553SOL    HW144470   3.280   2.824   1.619 -1.7556 -0.5991  1.6676
46553SOL    HW244471   3.286   2.971   1.582  0.8530 -1.0622 -0.0536
46554SOL     OW44472   8.558   7.924   2.749 -0.2547 -0.6527  0.5517
46554SOL    HW144473   8.553   8.008   2.703 -0.2562 -0.1070  1.5145
46554SOL    HW244474   8.598   7.864   2.686 -0.0377  0.1309 -0.0709
46555SOL     OW44475  12.372   1.200  11.361 -0.6785  0.1463 -0.3099
46555SOL    HW144476  12.459   1.239  11.369 -0.1868 -1.0808  0.9923
46555SOL    HW244477  12.352   1.202  11.268  0.8984  0.1773 -0.6668
46556SOL     OW44478  11.297   0.794   2.687  0.8084  0.2858 -0.2029
46556SOL    HW144479  11.265   0.712   2.650  0.7174 -0.0341  0.5569
46556SOL    HW244480  11.331   0.843   2.613  0.2647 -0.1660 -0.7562
46557SOL     OW44481   9.742   5.710   8.094  0.3206  0.3285  0.3672
46557SOL    HW144482   9.766   5.668   8.176 -0.0484 -0.1606  0.2284
46557SOL    HW244483   9.756   5.643   8.028  0.7262  0.7552  0.0111
46558SOL     OW44484   6.617  10.354  11.264 -0.2096 -0.1308  0.3998
46558SOL    HW144485   6.537  10.379  11.309 -1.3929 -2.3504 -0.3107
46558SOL    HW244486   6.673  10.315  11.332 -0.6592 -0.5428  0.5385
46559SOL     OW44487  10.143  11.077   9.434  0.2494  0.2984  0.5776
46559SOL    HW144488  10.153  11.128   9.515 -0.5022  1.9446 -0.3145
46559SOL    HW244489  10.048  11.076   9.418  0.3525 -0.4297 -0.0404
46560SOL     OW44490   0.618   5.333   8.394 -0.3899 -0.4154 -0.8390
46560SOL    HW144491   0.684   5.270   8.421  1.0027  1.0150 -0.7660
46560SOL    HW244492   0.610   5.321   8.300  0.4164 -0.2131 -0.9398
46561SOL     OW44493   3.448   1.449   9.932 -0.7707 -0.1475 -0.0301
46561SOL    HW144494   3.485   1.390   9.866 -0.2451  0.6133 -0.4375
46561SOL    HW244495   3.524   1.492   9.970 -1.1117 -0.1691  0.6845
46562SOL     OW44496   5.411   1.657  10.797  0.2013 -0.3438 -0.0505
46562SOL    HW144497   5.375   1.649  10.709 -1.0078 -1.4385  0.4979
46562SOL    HW244498   5.427   1.567  10.825 -2.4647 -0.3245  1.9730
46563SOL     OW44499   6.784   3.760   8.591 -0.4372 -0.4052 -0.0301
46563SOL    HW144500   6.877   3.752   8.573 -0.3759  0.1221  0.0515
46563SOL    HW244501   6.758   3.673   8.621 -0.1814 -0.8405 -1.0177
46564SOL     OW44502   2.044   8.635  10.334  0.0539  0.2892 -0.2483
46564SOL    HW144503   2.053   8.556  10.387  0.1075  0.3047 -0.2346
46564SOL    HW244504   2.116   8.692  10.362  0.4366  0.0562 -0.7549
46565SOL     OW44505   0.141   0.878   9.848  0.4620 -0.3748 -0.4144
46565SOL    HW144506   0.213   0.843   9.900  1.3676  0.8617 -0.7761
46565SOL    HW244507   0.136   0.970   9.873 -0.8071 -0.3648 -0.6286
46566SOL     OW44508   2.225   4.425   7.785  0.0247 -0.1886 -0.5250
46566SOL    HW144509   2.253   4.334   7.777 -1.4593 -0.6561 -0.6328
46566SOL    HW244510   2.219   4.441   7.879 -0.8284 -0.5760 -0.5045
46567SOL     OW44511   9.322  12.118   3.985 -0.2073 -0.3709 -0.6232
46567SOL    HW144512   9.328  12.203   4.030 -1.5901 -0.7690  0.3772
46567SOL    HW244513   9.409  12.104   3.948  0.5442  0.6787  0.6825
46568SOL     OW44514  11.298   6.237   7.540 -0.1637  0.4966  0.2520
46568SOL    HW144515  11.263   6.188   7.466  2.9537  0.5943 -1.4420
46568SOL    HW244516  11.310   6.326   7.507  2.4412  0.2617  0.3614
46569SOL     OW44517   6.118   9.789  12.143 -0.0387  0.0279  0.6891
46569SOL    HW144518   6.060   9.771  12.216  1.2855  1.3858  2.1446
46569SOL    HW244519   6.188   9.724  12.152 -0.0839 -0.0729  0.3544
46570SOL     OW44520   9.440   8.653   9.155  0.2051 -0.2525 -0.2997
46570SOL    HW144521   9.364   8.651   9.213  1.5002 -1.6039  1.5004
46570SOL    HW244522   9.412   8.605   9.077 -1.5192  1.4038 -0.7463
46571SOL     OW44523   7.825   3.111   6.469  0.5147  0.0880 -0.1622
46571SOL    HW144524   7.779   3.099   6.552  1.7077  0.5919  0.5841
46571SOL    HW244525   7.822   3.024   6.428  2.1155 -0.8408  1.5698
46572SOL     OW44526   0.932  11.474   5.690 -0.0013 -0.1995  0.7315
46572SOL    HW144527   0.986  11.396   5.701  0.5936  0.2279  0.8872
46572SOL    HW244528   0.848  11.451   5.728  0.0563 -0.8867  0.4540
46573SOL     OW44529   2.362   2.923   9.547  0.3051 -0.2989 -0.4477
46573SOL    HW144530   2.312   2.842   9.543 -1.3662  0.5549  1.4224
46573SOL    HW244531   2.336   2.971   9.469  0.3666 -1.0440 -0.9352
46574SOL     OW44532   3.792   6.700   6.821  0.6167 -0.2048 -0.3808
46574SOL    HW144533   3.807   6.770   6.758  0.0573  1.2112  0.9966
46574SOL    HW244534   3.737   6.637   6.774  1.6933 -0.0957 -1.8646
46575SOL     OW44535   8.711  11.280   3.166  0.8671 -0.1968  0.0556
46575SOL    HW144536   8.787  11.292   3.109  0.5650  1.8724  0.0159
46575SOL    HW244537   8.741  11.309   3.252  0.2300  0.3165  0.1120
46576SOL     OW44538   4.370   5.227   5.799 -0.0481 -0.1824  0.1423
46576SOL    HW144539   4.446   5.270   5.837  0.5229 -0.3052 -0.8161
46576SOL    HW244540   4.353   5.152   5.856  0.0071  0.3525  0.8585
46577SOL     OW44541   6.275  12.318  12.244  0.2290 -0.0978 -0.3819
46577SOL    HW144542   6.199  12.361  12.283  0.9936 -1.1459  2.5967
46577SOL    HW244543   6.350  12.353  12.292  1.3745 -0.9254 -1.4872
46578SOL     OW44544   3.354   2.342   9.898  0.0252  0.3513 -0.8751
46578SOL    HW144545   3.359   2.269   9.960  4.0333  0.3961 -0.9363
46578SOL    HW244546   3.273   2.325   9.848 -1.8729 -1.2017  2.3919
46579SOL     OW44547   3.895   8.279   8.173 -0.2456  0.0145  0.1051
46579SOL    HW144548   3.874   8.273   8.079  0.6066  0.2388 -0.1026
46579SOL    HW244549   3.978   8.233   8.181 -0.3322 -0.0261  0.7659
46580SOL     OW44550  10.463   3.103   4.484 -0.4681  0.9188 -0.3958
46580SOL    HW144551  10.472   3.052   4.564  1.0951  0.2467 -0.9532
46580SOL    HW244552  10.451   3.193   4.514  0.6013  0.7551  0.6123
46581SOL     OW44553   8.234  11.312   0.719  0.2387 -0.1717  0.1372
46581SOL    HW144554   8.284  11.260   0.656  1.4756  0.7650  0.3026
46581SOL    HW244555   8.271  11.289   0.804 -0.1854 -0.0922  0.3460
46582SOL     OW44556   4.903   9.505   9.026 -0.3589 -0.8155  0.3388
46582SOL    HW144557   4.981   9.556   9.005 -0.1617 -0.9548  0.7268
46582SOL    HW244558   4.908   9.429   8.968 -0.3087 -0.7265  0.2260
46583SOL     OW44559   5.953   5.830   2.608  0.1914  0.3238  0.3299
46583SOL    HW144560   5.897   5.853   2.534 -0.5313  1.1218  1.0917
46583SOL    HW244561   5.940   5.736   2.620  1.5901 -0.1756 -1.5516
46584SOL     OW44562  10.756   2.019   6.067 -0.3200 -0.2670 -0.3728
46584SOL    HW144563  10.742   2.085   5.999 -0.7940 -2.5016 -2.5796
46584SOL    HW244564  10.684   2.033   6.129  0.1627  1.8594 -0.2037
46585SOL     OW44565   9.690   8.791   7.561 -0.1880 -0.0762  0.2862
46585SOL    HW144566   9.681   8.701   7.528  2.3068 -1.0214  1.9051
46585SOL    HW244567   9.773   8.822   7.525 -1.3780  1.9585 -0.8977
46586SOL     OW44568   5.561   8.859   3.820 -0.2168  0.2381  1.1958
46586SOL    HW144569   5.613   8.934   3.791 -0.7309 -0.2680 -1.2137
46586SOL    HW244570   5.627   8.797   3.854  0.5524  0.4673  0.1681
46587SOL     OW44571   3.636   2.403   9.905  0.4209 -0.1491 -0.0025
46587SOL    HW144572   3.640   2.364   9.992 -0.3808  0.0061  0.1149
46587SOL    HW244573   3.549   2.380   9.872 -0.3362  1.9903  0.3052
46588SOL     OW44574   9.370   8.152   4.237 -0.2270  0.6460  0.5898
46588SOL    HW144575   9.315   8.079   4.265 -0.6426  1.3942  1.7730
46588SOL    HW244576   9.316   8.201   4.175 -0.3379  0.5449  0.6085
46589SOL     OW44577  11.023  10.398   8.164 -0.6204 -0.6281 -0.1637
46589SOL    HW144578  11.031  10.430   8.074 -0.8355 -2.3375 -0.8233
46589SOL    HW244579  10.934  10.363   8.169 -0.3867 -1.1463  0.5144
46590SOL     OW44580   4.876   0.010   9.295  0.8203  0.4005  0.5365
46590SOL    HW144581   4.949  -0.037   9.335  1.2974  0.3773 -0.3271
46590SOL    HW244582   4.908   0.100   9.286  0.6777  0.4309  0.3194
46591SOL     OW44583   2.336   1.785   6.962  0.3224  0.2428  0.0216
46591SOL    HW144584   2.337   1.700   7.005 -0.2652  0.1446 -0.1528
46591SOL    HW244585   2.355   1.765   6.870  2.0672  0.5005  0.2944
46592SOL     OW44586   9.424   9.300   8.522  0.3911 -0.1140  0.0999
46592SOL    HW144587   9.443   9.259   8.606  1.5737 -0.0503 -0.1201
46592SOL    HW244588   9.510   9.310   8.480 -0.2169 -0.5159 -1.2888
46593SOL     OW44589   3.753  11.140   1.564 -0.8677 -0.7692 -0.4892
46593SOL    HW144590   3.765  11.197   1.488 -1.0855 -0.2739 -0.1575
46593SOL    HW244591   3.841  11.113   1.589 -0.6118  0.8538  0.4363
46594SOL     OW44592   9.978   2.554   3.956 -0.0454  0.2954  0.0438
46594SOL    HW144593   9.976   2.648   3.939  0.6243  0.4037  0.5077
46594SOL    HW244594  10.046   2.521   3.897  2.3593  0.6836  2.4034
46595SOL     OW44595   8.048   6.066   3.017  0.4201 -0.3228  0.2446
46595SOL    HW144596   8.143   6.064   3.004  0.5673 -1.2893  1.3659
46595SOL    HW244597   8.019   5.976   2.999 -0.5901  0.3728 -2.0026
46596SOL     OW44598   3.042   2.062   2.728  0.2966 -0.4598  0.3055
46596SOL    HW144599   3.047   2.135   2.666  0.3668 -1.6060 -1.0831
46596SOL    HW244600   3.050   1.984   2.674 -0.5877 -1.5400  1.6657
46597SOL     OW44601   9.325   8.406   3.276  0.1246 -0.0900 -0.0610
46597SOL    HW144602   9.341   8.469   3.346  1.0405  0.6095 -0.8682
46597SOL    HW244603   9.298   8.460   3.201 -1.5572 -0.8798 -0.0774
46598SOL     OW44604   0.333   1.178   0.467  0.3508 -0.0853 -0.2770
46598SOL    HW144605   0.327   1.132   0.550 -1.0979 -0.5258 -0.6102
46598SOL    HW244606   0.425   1.167   0.440  0.3129 -1.7884  0.2051
46599SOL     OW44607   3.627   2.323   9.608  0.3245  0.1886 -0.3073
46599SOL    HW144608   3.669   2.369   9.681  1.5413  0.4955 -1.1665
46599SOL    HW244609   3.618   2.232   9.639  2.6575 -0.1532 -0.4453
46600SOL     OW44610   5.437   8.932   0.230 -0.4381 -0.3158 -0.8384
46600SOL    HW144611   5.362   8.990   0.243 -1.2422 -1.0023 -2.1990
46600SOL    HW244612   5.465   8.948   0.140  0.1314 -1.1233 -0.8214
46601SOL     OW44613   1.832   7.490   7.671  0.3712 -0.0465  0.0972
46601SOL    HW144614   1.886   7.411   7.676 -0.8576 -1.0152 -1.1750
46601SOL    HW244615   1.788   7.484   7.587 -0.4001  1.5997  0.3361
46602SOL     OW44616   1.705  10.395   8.837 -0.6359 -0.0049 -0.1201
46602SOL    HW144617   1.653  10.468   8.804 -0.6948 -0.4202 -0.9839
46602SOL    HW244618   1.775  10.436   8.888 -0.9681  0.6226 -0.1587
46603SOL     OW44619  11.028  12.247   6.152 -0.2843  0.4236 -0.0254
46603SOL    HW144620  10.963  12.176   6.152  1.0686 -0.8844  1.0224
46603SOL    HW244621  11.003  12.302   6.078 -0.5088 -1.9937 -1.8820
46604SOL     OW44622   8.568   1.367   8.884  0.0349  0.1031  0.1776
46604SOL    HW144623   8.501   1.422   8.927 -0.1448  0.0487 -0.0351
46604SOL    HW244624   8.636   1.358   8.951 -1.0456 -1.4831  1.1268
46605SOL     OW44625   9.701  11.498   7.626 -0.3480 -0.1239 -0.5598
46605SOL    HW144626   9.781  11.504   7.573 -0.3758 -1.1161 -0.7269
46605SOL    HW244627   9.711  11.566   7.692  1.9509 -1.9686  1.1624
46606SOL     OW44628  11.298   0.512   0.407 -0.2110  0.2293 -0.2396
46606SOL    HW144629  11.223   0.552   0.363 -0.3743 -0.1623 -0.3254
46606SOL    HW244630  11.261   0.473   0.487  0.2916  2.0143  0.9117
46607SOL     OW44631  12.190   6.961   5.741  0.2152 -0.7408  0.2321
46607SOL    HW144632  12.255   7.030   5.749  0.5436 -0.5096 -3.0594
46607SOL    HW244633  12.106   7.005   5.752  0.4847 -0.0854 -0.2611
46608SOL     OW44634   2.820  10.121  11.116 -0.4213 -0.0073 -0.5696
46608SOL    HW144635   2.740  10.126  11.064 -0.3979 -0.8249 -0.7047
46608SOL    HW244636   2.809  10.188  11.184 -0.4535  1.0564 -1.6071
46609SOL     OW44637   6.030   2.338   2.377 -0.0125  0.1457  0.0666
46609SOL    HW144638   6.068   2.317   2.292  1.0554  2.0603  0.0089
46609SOL    HW244639   5.946   2.292   2.378  0.5805 -1.0541 -1.4149
46610SOL     OW44640   7.912   8.686   9.223  0.5126  0.0470  0.3916
46610SOL    HW144641   7.899   8.779   9.242 -0.1256  0.0446 -0.0009
46610SOL    HW244642   7.938   8.648   9.307 -0.3689  0.3793  0.8224
46611SOL     OW44643  12.353  11.023   2.307 -0.1417  0.2059  0.2959
46611SOL    HW144644  12.298  11.101   2.312 -1.4960 -0.6398 -0.9760
46611SOL    HW244645  12.294  10.950   2.325  1.3615 -0.5088  2.8696
46612SOL     OW44646   5.629   1.723   8.797  0.3051 -0.0797  0.5504
46612SOL    HW144647   5.549   1.770   8.822  0.6948  0.3598  0.9886
46612SOL    HW244648   5.696   1.757   8.857  0.6512 -0.9984  0.6950
46613SOL     OW44649   7.111   4.597   9.769  0.5320  0.2782 -0.0661
46613SOL    HW144650   7.142   4.656   9.701  0.1267  0.9928  0.3497
46613SOL    HW244651   7.147   4.511   9.746  2.9549  1.0506  0.4570
46614SOL     OW44652   7.848   0.554  10.053 -0.6353 -0.1125 -0.2293
46614SOL    HW144653   7.786   0.483  10.035 -0.9877  0.3474 -0.9116
46614SOL    HW244654   7.792   0.629  10.073 -0.3131  0.3094 -0.8620
46615SOL     OW44655   3.401   3.133  11.478  0.1761  0.1651  0.2002
46615SOL    HW144656   3.452   3.052  11.477 -1.1370 -0.6999 -1.3470
46615SOL    HW244657   3.310   3.105  11.465 -0.4608  1.8131  0.7589
46616SOL     OW44658   6.311   0.309   0.752  0.0975 -0.8500 -0.2294
46616SOL    HW144659   6.356   0.246   0.807 -1.2773 -1.0488  0.7125
46616SOL    HW244660   6.318   0.392   0.799  1.4717 -0.3674 -1.2245
46617SOL     OW44661   7.826  11.567   6.780  0.3053 -0.1272  0.6597
46617SOL    HW144662   7.900  11.627   6.792 -1.5671  2.2821  0.8595
46617SOL    HW244663   7.808  11.533   6.867  1.5180 -1.2535  0.5105
46618SOL     OW44664   1.701   9.007  10.803  0.0682 -0.1015 -0.1938
46618SOL    HW144665   1.675   8.965  10.722  1.0640  3.7751 -2.7994
46618SOL    HW244666   1.620   9.044  10.839 -0.1132 -0.2675 -0.4361
46619SOL     OW44667   6.395   6.339   9.974 -0.0711 -0.3262 -0.5196
46619SOL    HW144668   6.474   6.368   9.928  0.6586  0.1015  0.9339
46619SOL    HW244669   6.352   6.280   9.913  1.7999 -1.2100 -1.0620
46620SOL     OW44670   0.860   8.178   3.930  0.4017  0.1914 -0.6119
46620SOL    HW144671   0.875   8.084   3.937  1.4499  0.3819 -0.1231
46620SOL    HW244672   0.911   8.216   4.001  0.4802  1.1778 -1.1758
46621SOL     OW44673  11.749   8.178   8.263  0.2135 -0.1123  0.0418
46621SOL    HW144674  11.751   8.234   8.185  0.7489  1.2693  0.9923
46621SOL    HW244675  11.816   8.112   8.247  1.0766  0.8006 -0.2581
46622SOL     OW44676   9.761   0.405  11.693 -0.3170 -0.4785  0.3888
46622SOL    HW144677   9.814   0.339  11.738  1.3231 -0.1508 -0.9605
46622SOL    HW244678   9.798   0.489  11.721 -1.5861 -0.1449  1.1343
46623SOL     OW44679   7.471   2.723   4.041 -0.4673  0.0916  0.5281
46623SOL    HW144680   7.501   2.661   4.106 -0.4673 -1.6114 -1.0114
46623SOL    HW244681   7.375   2.720   4.047 -0.4562  0.3634  0.8322
46624SOL     OW44682  11.363   8.124   5.838 -0.2094  0.7966  0.3440
46624SOL    HW144683  11.321   8.128   5.924 -1.6258  0.1794 -0.2977
46624SOL    HW244684  11.331   8.043   5.799 -0.0230  1.3458 -0.9966
46625SOL     OW44685  12.300   7.701  11.493 -0.1939 -0.1154 -0.6261
46625SOL    HW144686  12.250   7.661  11.421  1.0092 -0.4028 -1.3237
46625SOL    HW244687  12.334   7.782  11.456  2.8629 -1.6166 -1.4141
46626SOL     OW44688  11.258   4.106   1.866 -0.0559 -0.2102 -0.2262
46626SOL    HW144689  11.193   4.036   1.869 -0.7485  0.3510 -1.3165
46626SOL    HW244690  11.338   4.067   1.900 -0.8250 -1.0748  0.6202
46627SOL     OW44691   0.788  10.520  10.653 -0.9769  0.1689 -0.2753
46627SOL    HW144692   0.779  10.615  10.650 -0.3985  0.3952  2.4848
46627SOL    HW244693   0.746  10.494  10.735  1.2206 -1.5849  0.4168
46628SOL     OW44694   6.782   7.667   5.167 -0.1654 -0.4316  0.4787
46628SOL    HW144695   6.731   7.589   5.188  1.1210 -0.9477  1.8187
46628SOL    HW244696   6.860   7.633   5.122  1.0981 -0.1148  2.3205
46629SOL     OW44697   4.311   3.879   9.532 -1.5762 -0.3495 -0.4152
46629SOL    HW144698   4.283   3.969   9.515  0.2436  0.7671  1.8695
46629SOL    HW244699   4.253   3.848   9.602 -1.2490 -0.3716 -0.1477
46630SOL     OW44700   3.393  11.721   4.148 -0.4128 -0.1347 -0.3225
46630SOL    HW144701   3.433  11.650   4.098  2.8443  0.7156  0.8415
46630SOL    HW244702   3.389  11.688   4.238 -1.9484  0.0238 -0.3064
46631SOL     OW44703  12.146   5.779   4.323 -0.3807  0.0833  0.1271
46631SOL    HW144704  12.052   5.777   4.304 -0.3460 -1.7125  0.0688
46631SOL    HW244705  12.156   5.724   4.400  0.9941 -2.4737 -1.7346
46632SOL     OW44706   9.433   0.739   2.364  0.7622 -0.0216 -0.3059
46632SOL    HW144707   9.428   0.710   2.273  1.1370 -1.5799  0.1406
46632SOL    HW244708   9.521   0.715   2.392  0.0277 -1.3099  1.0228
46633SOL     OW44709  12.628   5.932   6.644  0.5184  0.1520 -0.1060
46633SOL    HW144710  12.629   5.972   6.731  0.9124 -0.4935  0.1894
46633SOL    HW244711  12.553   5.972   6.600 -0.6107 -0.6216  1.0631
46634SOL     OW44712   8.919  10.769   1.277 -0.0666 -0.5958 -0.0333
46634SOL    HW144713   8.881  10.755   1.190  0.5220 -0.7765 -0.2592
46634SOL    HW244714   8.999  10.717   1.278  0.6901  0.5287  0.0985
46635SOL     OW44715   8.599   7.570   7.855 -0.1836 -0.3435 -0.3978
46635SOL    HW144716   8.671   7.561   7.793  0.4298 -1.3955  0.4309
46635SOL    HW244717   8.641   7.586   7.939 -1.0388  2.6192 -0.4340
46636SOL     OW44718   6.023   2.648   7.312  0.0252 -0.3907  0.0459
46636SOL    HW144719   6.012   2.557   7.337 -2.0426 -0.2755 -0.2924
46636SOL    HW244720   6.011   2.649   7.217  0.4007  0.1915 -0.0043
46637SOL     OW44721  11.336   1.004   2.450 -0.2885  0.1882  0.2653
46637SOL    HW144722  11.379   1.089   2.442 -0.2144  0.1583  0.3507
46637SOL    HW244723  11.242   1.025   2.454 -0.2424  0.2940  0.7417
46638SOL     OW44724   8.830   3.093   2.221  0.1545  0.1407 -0.1828
46638SOL    HW144725   8.905   3.072   2.166  0.1706  1.1901 -0.5965
46638SOL    HW244726   8.861   3.162   2.280 -0.7486  1.3703 -1.0891
46639SOL     OW44727   7.988   8.276   2.983  0.6782 -0.1110  0.4033
46639SOL    HW144728   8.082   8.260   2.972  0.8776  0.6173  1.0505
46639SOL    HW244729   7.957   8.201   3.034  1.0916  0.1408  1.0277
46640SOL     OW44730   1.046   4.641   8.121 -0.4473 -0.1157  0.6182
46640SOL    HW144731   1.104   4.600   8.056 -0.5941  1.8304 -0.8224
46640SOL    HW244732   0.983   4.572   8.143  1.2373 -1.6821  0.7869
46641SOL     OW44733   7.975   2.338   5.482  0.1766 -0.1242  0.4163
46641SOL    HW144734   7.895   2.374   5.519  1.0553  0.4570  1.8750
46641SOL    HW244735   7.957   2.245   5.469 -0.8371  0.0704  0.3848
46642SOL     OW44736   9.275   3.026   1.839 -0.1910  0.7051 -0.1264
46642SOL    HW144737   9.303   2.976   1.916  0.0909 -0.3666 -0.9011
46642SOL    HW244738   9.340   3.095   1.830  1.2910 -0.7185 -0.8877
46643SOL     OW44739   9.797   2.346   5.235  0.3983 -0.0547 -0.5448
46643SOL    HW144740   9.802   2.441   5.220  0.3956 -0.0797 -0.7163
46643SOL    HW244741   9.727   2.335   5.299 -0.4485 -0.0257 -1.4368
46644SOL     OW44742   8.432   4.940   8.729  0.0807 -0.7831  0.0015
46644SOL    HW144743   8.367   4.908   8.666 -0.8622 -0.4720  0.7887
46644SOL    HW244744   8.461   5.024   8.693  0.5858 -1.2570 -0.7180
46645SOL     OW44745   3.428   3.881  11.950  0.2932  0.0169 -0.3878
46645SOL    HW144746   3.457   3.790  11.944 -0.4044 -0.3184  0.9896
46645SOL    HW244747   3.337   3.879  11.921  0.6186  0.5013 -1.4983
46646SOL     OW44748   7.948  12.147   6.342 -0.1815 -0.1442 -0.0098
46646SOL    HW144749   7.934  12.204   6.416  1.3509  1.1806 -0.6854
46646SOL    HW244750   7.988  12.203   6.275 -0.2945 -1.5852 -1.3488
46647SOL     OW44751   6.518   7.658   1.265 -0.4147  0.3236  0.4582
46647SOL    HW144752   6.478   7.592   1.207 -0.9114  1.1713 -0.1875
46647SOL    HW244753   6.612   7.646   1.253 -0.5104  0.6053 -0.6870
46648SOL     OW44754   8.352  11.543   1.407  0.6098 -0.0812  0.5119
46648SOL    HW144755   8.437  11.506   1.431 -0.4202 -3.0722  0.0230
46648SOL    HW244756   8.300  11.537   1.487  0.1638 -0.5290  0.1919
46649SOL     OW44757   5.099   5.129   1.163 -0.5451 -0.4300  0.6961
46649SOL    HW144758   5.079   5.068   1.093  0.3531  0.0180  0.0227
46649SOL    HW244759   5.020   5.182   1.172 -0.2399  0.3790 -0.9227
46650SOL     OW44760   4.599   0.244   9.735  0.4810 -0.1730  0.0198
46650SOL    HW144761   4.598   0.239   9.831 -1.5891 -0.1638  0.0418
46650SOL    HW244762   4.559   0.329   9.715  1.7946  0.2638 -0.8607
46651SOL     OW44763  11.811   0.781  10.715  0.0500  1.1088 -0.3234
46651SOL    HW144764  11.744   0.743  10.659 -1.1620  2.0405  0.4545
46651SOL    HW244765  11.789   0.874  10.720  1.8501  1.5954 -0.6614
46652SOL     OW44766  12.391   2.388   2.175  0.0135  0.2803  0.3767
46652SOL    HW144767  12.363   2.308   2.132 -0.2640  1.0923 -0.9815
46652SOL    HW244768  12.406   2.451   2.104  2.8326  0.6651  1.1584
46653SOL     OW44769  12.201   4.797   7.205  0.3887  0.2387  0.1243
46653SOL    HW144770  12.256   4.771   7.279  0.6942 -0.6944 -0.4104
46653SOL    HW244771  12.262   4.822   7.137  0.2116 -1.3105 -0.6564
46654SOL     OW44772   6.199   3.565   4.122  0.0420 -0.2704 -0.3334
46654SOL    HW144773   6.288   3.539   4.098  0.2820  0.0697  0.1769
46654SOL    HW244774   6.187   3.650   4.079 -0.5171 -0.8956 -1.4802
46655SOL     OW44775   0.747   2.089   5.479  0.0805 -0.4340  0.2321
46655SOL    HW144776   0.821   2.046   5.522  0.2216  0.1755  0.6171
46655SOL    HW244777   0.670   2.057   5.525 -0.0199 -2.0323 -0.9731
46656SOL     OW44778   6.450  12.632   0.318 -0.3166 -0.4168 -0.0497
46656SOL    HW144779   6.420  12.672   0.399 -0.7686  0.0773 -0.4535
46656SOL    HW244780   6.407  12.683   0.249 -0.5005 -1.2813 -0.5826
46657SOL     OW44781   8.114   8.603   9.923 -0.4856  0.2685  0.7627
46657SOL    HW144782   8.155   8.678   9.880  0.8593  0.1132  1.7040
46657SOL    HW244783   8.097   8.632  10.012 -1.6196  0.0155  0.6487
46658SOL     OW44784   7.468  12.117   0.178  0.3709  0.0670  0.3254
46658SOL    HW144785   7.455  12.192   0.120 -0.7287 -0.2851  0.0987
46658SOL    HW244786   7.463  12.153   0.266 -1.5773  0.0870  0.2523
46659SOL     OW44787   8.199   3.268   7.457  0.0104 -0.2995  0.2045
46659SOL    HW144788   8.178   3.337   7.394  0.5703 -0.6988 -0.4285
46659SOL    HW244789   8.154   3.190   7.425 -0.7456 -0.2153  1.0024
46660SOL     OW44790   7.001   6.531   7.542  0.0403  0.0202  0.1334
46660SOL    HW144791   7.091   6.523   7.510 -0.7658 -1.4451 -2.0427
46660SOL    HW244792   6.985   6.447   7.586 -0.3146  0.2124  0.3664
46661SOL     OW44793   8.559  10.685  10.017 -0.0549 -0.7625 -0.0533
46661SOL    HW144794   8.567  10.780  10.014  1.1822 -0.7127  2.0898
46661SOL    HW244795   8.634  10.653   9.966  0.0473 -0.5693 -0.0243
46662SOL     OW44796   8.010  10.278   2.244  0.2445  0.3363  0.2993
46662SOL    HW144797   7.924  10.260   2.283 -0.0018 -0.5172 -0.6045
46662SOL    HW244798   8.071  10.272   2.317 -0.4581  0.9740  0.9618
46663SOL     OW44799   9.736  12.469   3.989  0.2129  0.6186 -0.1503
46663SOL    HW144800   9.827  12.447   4.010 -0.5851 -1.9610  1.0486
46663SOL    HW244801   9.698  12.496   4.072 -0.6177 -0.4117 -0.1748
46664SOL     OW44802   1.711   1.459   8.454 -0.0041  0.0617 -0.4012
46664SOL    HW144803   1.790   1.406   8.465 -0.0290  0.2906  0.9924
46664SOL    HW244804   1.737   1.547   8.482 -0.5533  0.3030 -0.6354
46665SOL     OW44805   6.018   5.496   9.793 -0.4112 -0.3243 -0.8553
46665SOL    HW144806   5.926   5.472   9.787 -0.3805 -0.1944 -2.2502
46665SOL    HW244807   6.025   5.577   9.743  0.2864  0.2360  0.1085
46666SOL     OW44808   8.359   4.053   3.138 -0.1413 -0.1933  0.2022
46666SOL    HW144809   8.382   4.104   3.061  0.1596  0.9406  1.0201
46666SOL    HW244810   8.419   3.978   3.136 -0.1900 -0.2151 -0.6921
46667SOL     OW44811   6.909   5.281   2.907 -0.1419 -0.0528  0.1903
46667SOL    HW144812   6.960   5.361   2.919 -0.7935  0.2297  1.1560
46667SOL    HW244813   6.921   5.232   2.988  1.1408 -1.4803 -0.8120
46668SOL     OW44814   4.071   0.099   9.324 -0.2389 -0.3583  0.9389
46668SOL    HW144815   4.065   0.139   9.238  0.8730 -1.6524  0.2313
46668SOL    HW244816   4.115   0.165   9.378  0.0786  0.0123  0.2334
46669SOL     OW44817   1.365   0.124  12.328  0.0576  0.1506  0.1700
46669SOL    HW144818   1.442   0.155  12.376  0.2620 -0.0174 -0.0479
46669SOL    HW244819   1.326   0.057  12.384 -0.4208  0.8333  0.6737
46670SOL     OW44820   0.916   8.546  12.476  0.1399  0.4591  0.0247
46670SOL    HW144821   0.942   8.454  12.475  0.8212  0.6465 -1.3574
46670SOL    HW244822   0.948   8.582  12.394 -1.1251  1.6665  0.0085
46671SOL     OW44823   2.821   1.066  12.413 -0.1011  0.1830  0.1150
46671SOL    HW144824   2.727   1.082  12.413 -0.1939 -0.1452 -1.8774
46671SOL    HW244825   2.859   1.148  12.379  0.4871  0.8504  2.2350
46672SOL     OW44826   3.855  10.052  10.555 -0.4541  0.0591  0.4035
46672SOL    HW144827   3.824  10.140  10.579 -0.9907  0.2445 -0.9184
46672SOL    HW244828   3.909  10.026  10.630 -0.4649  1.4192  0.9302
46673SOL     OW44829   4.428  10.516   4.790 -0.5172  0.0835  0.3325
46673SOL    HW144830   4.426  10.599   4.837 -1.3416 -1.0533  2.4063
46673SOL    HW244831   4.502  10.469   4.828 -1.3668 -0.9777  0.6945
46674SOL     OW44832  11.282   1.169   6.028 -0.5215 -0.0709  0.3519
46674SOL    HW144833  11.329   1.229   6.087  1.3930  0.3042 -1.4594
46674SOL    HW244834  11.220   1.225   5.982  0.7189  0.4284 -0.7691
46675SOL     OW44835   5.119   7.267   6.363 -0.2289  0.1756 -0.5291
46675SOL    HW144836   5.129   7.194   6.424  0.6815  0.7184 -0.0253
46675SOL    HW244837   5.200   7.269   6.313 -0.5778  0.3451 -1.1052
46676SOL     OW44838   7.409   7.363  12.410 -0.2750  0.1494 -0.1769
46676SOL    HW144839   7.435   7.275  12.437  0.8382  0.4137 -0.3498
46676SOL    HW244840   7.426   7.417  12.487  0.7130  0.5058 -0.6271
46677SOL     OW44841   6.015   7.450   9.743 -0.5720 -0.0277  0.2253
46677SOL    HW144842   5.930   7.409   9.727 -1.6070  1.2301  2.0783
46677SOL    HW244843   5.997   7.544   9.742  1.0338  0.3150 -0.4315
46678SOL     OW44844  11.162  11.179   9.393  0.1195  0.6068  0.1205
46678SOL    HW144845  11.083  11.146   9.437  0.7467  0.2090  0.9759
46678SOL    HW244846  11.136  11.263   9.357 -0.9949  0.0149 -0.5232
46679SOL     OW44847  10.168   0.083   5.143 -0.1407 -0.9935 -0.0255
46679SOL    HW144848  10.247   0.046   5.182 -1.0594 -0.9308  2.0262
46679SOL    HW244849  10.096   0.049   5.197 -1.3140  0.7678 -0.3996
46680SOL     OW44850  10.531   6.027   9.603  0.1221 -0.0937  0.1424
46680SOL    HW144851  10.518   5.985   9.518 -0.5528  0.4695 -0.0472
46680SOL    HW244852  10.564   6.114   9.581 -0.2779  0.1344  0.4478
46681SOL     OW44853   5.638   7.348   6.892  0.2555  0.0964  0.2679
46681SOL    HW144854   5.590   7.407   6.950 -1.1110 -0.7763  0.0770
46681SOL    HW244855   5.662   7.274   6.948  1.7093  0.6667  0.4385
46682SOL     OW44856  10.788   8.577   1.543  0.2328  0.0798  0.1024
46682SOL    HW144857  10.760   8.585   1.451  0.5204  0.5475  0.0529
46682SOL    HW244858  10.726   8.632   1.591 -0.3968 -0.7778  0.2899
46683SOL     OW44859   4.629   5.046  11.672 -0.2026 -0.2561  0.3620
46683SOL    HW144860   4.596   4.959  11.694  1.3735 -0.1030  3.9555
46683SOL    HW244861   4.583   5.105  11.731  1.2535  0.8374  0.4654
46684SOL     OW44862   4.235   0.202   8.918  0.5205  0.2477 -0.3492
46684SOL    HW144863   4.309   0.180   8.862  0.1893  0.6542 -0.9609
46684SOL    HW244864   4.217   0.121   8.967  3.0713  0.8724  1.8620
46685SOL     OW44865  12.263   2.833   6.923  0.1523  0.3447  0.1250
46685SOL    HW144866  12.184   2.879   6.894 -1.2893 -0.9900  1.6712
46685SOL    HW244867  12.233   2.743   6.940  1.7244  0.0890  1.9135
46686SOL     OW44868   4.741   4.140   9.223  0.5486  0.3987  0.1594
46686SOL    HW144869   4.650   4.159   9.201  0.4001 -1.0177 -0.5235
46686SOL    HW244870   4.780   4.226   9.240 -0.6006  1.1216 -0.7336
46687SOL     OW44871   9.762   1.487   0.964 -0.5029 -0.0255 -0.0811
46687SOL    HW144872   9.855   1.493   0.939 -0.4321  1.1232  0.4052
46687SOL    HW244873   9.716   1.482   0.880  0.0589 -2.2535 -0.3209
46688SOL     OW44874   9.646   8.720   8.248 -0.0800 -0.2946  0.3622
46688SOL    HW144875   9.662   8.752   8.159  1.3024  0.3539  0.8066
46688SOL    HW244876   9.595   8.790   8.289 -3.0059 -1.7131 -0.6203
46689SOL     OW44877   1.349   4.983  11.128  0.0799  0.0132  0.1110
46689SOL    HW144878   1.284   4.919  11.158 -2.5384  2.8852  1.0647
46689SOL    HW244879   1.306   5.028  11.056  1.3982  1.4031  0.1575
46690SOL     OW44880   8.454   2.760   6.965 -0.2598 -0.5829 -0.1981
46690SOL    HW144881   8.532   2.737   6.914  0.2050 -1.2902  0.8049
46690SOL    HW244882   8.417   2.835   6.919  1.4107  0.2222 -0.3045
46691SOL     OW44883  10.579   7.103   6.917  0.1685  0.1055  0.0024
46691SOL    HW144884  10.517   7.152   6.971 -0.6697  0.4245 -1.2159
46691SOL    HW244885  10.631   7.170   6.873 -1.0165 -0.0426 -1.7099
46692SOL     OW44886   7.318   4.045   8.676 -0.0481 -0.1121 -0.3212
46692SOL    HW144887   7.346   3.953   8.674 -2.1696 -0.8891  1.1154
46692SOL    HW244888   7.267   4.052   8.757  0.7611  2.5846  0.0336
46693SOL     OW44889   5.689   0.200   5.164 -0.0253  0.3215  0.0184
46693SOL    HW144890   5.703   0.292   5.144 -0.8380  0.2105 -1.2061
46693SOL    HW244891   5.752   0.154   5.108  0.5434  0.1372  0.8044
46694SOL     OW44892   1.247   2.837   1.550  0.3011 -0.1270 -0.7759
46694SOL    HW144893   1.237   2.897   1.476 -3.5584  0.1464 -0.2598
46694SOL    HW244894   1.232   2.891   1.628  2.5017 -0.7553  0.1639
46695SOL     OW44895   7.751   0.484  11.741  0.2279  0.1064  0.6365
46695SOL    HW144896   7.826   0.427  11.760  0.2057  0.4585  1.9007
46695SOL    HW244897   7.780   0.571  11.770 -0.4682  0.3444  0.6205
46696SOL     OW44898   7.071   8.144  12.044  0.4543 -0.3662  0.3574
46696SOL    HW144899   7.038   8.215  11.990  1.0632  1.4482  2.2697
46696SOL    HW244900   7.159   8.127  12.010  0.0142 -0.8225 -0.6174
46697SOL     OW44901   2.221   3.490   1.929  0.2556 -0.1527  0.4940
46697SOL    HW144902   2.272   3.514   2.006  2.0921  0.6280 -0.8883
46697SOL    HW244903   2.252   3.550   1.860 -3.9478  1.7863 -0.0225
46698SOL     OW44904   7.300   3.351   0.075 -0.4154  0.0596 -0.1847
46698SOL    HW144905   7.366   3.304   0.125 -0.3987 -0.7057 -0.8967
46698SOL    HW244906   7.341   3.366  -0.010 -0.3759  1.5028  0.0643
46699SOL     OW44907   8.824   1.545   9.907 -0.4583  0.7250 -0.0124
46699SOL    HW144908   8.766   1.621   9.910 -1.0813  0.3975 -2.3727
46699SOL    HW244909   8.769   1.473   9.877  0.4481 -0.3682  0.8393
46700SOL     OW44910   5.117   0.638   8.740 -0.3180  0.2459  0.2431
46700SOL    HW144911   5.151   0.560   8.696 -0.6317 -0.1690  0.7183
46700SOL    HW244912   5.048   0.604   8.798 -0.4716  0.8799  0.4358
46701SOL     OW44913   5.825  12.498  12.181 -0.3710 -0.0812  0.5119
46701SOL    HW144914   5.787  12.411  12.178 -2.5481  0.7239  2.0593
46701SOL    HW244915   5.827  12.527  12.090 -1.1705 -1.1235  0.1531
46702SOL     OW44916   3.869   6.745  11.016  0.4632 -0.6891  0.3851
46702SOL    HW144917   3.896   6.791  10.937  1.8238 -1.3498  0.4336
46702SOL    HW244918   3.801   6.684  10.986 -0.3234  0.3175  0.0722
46703SOL     OW44919   7.336   6.305   2.984 -0.3790  0.4197 -0.4388
46703SOL    HW144920   7.249   6.265   2.980 -0.4893  0.7151 -1.3993
46703SOL    HW244921   7.345   6.334   3.074  0.0860 -2.5457  0.5783
46704SOL     OW44922  10.802   6.136   4.252 -0.5523 -0.4556 -0.0645
46704SOL    HW144923  10.759   6.134   4.167 -0.2293 -0.7774 -0.2211
46704SOL    HW244924  10.841   6.049   4.262  2.2804  0.5905 -1.0721
46705SOL     OW44925   5.149   8.846   2.073 -0.1000 -0.0121 -0.1156
46705SOL    HW144926   5.179   8.936   2.056  1.1882 -0.3227  0.3979
46705SOL    HW244927   5.207   8.791   2.022 -0.5001 -0.5947  0.0422
46706SOL     OW44928   2.121   2.882   7.126 -0.1665 -0.0255  0.0122
46706SOL    HW144929   2.068   2.950   7.169 -0.2433 -0.0812  0.0061
46706SOL    HW244930   2.135   2.816   7.194 -0.9394 -0.4847 -0.2580
46707SOL     OW44931  10.224   1.486   9.657  0.0634 -0.1855 -0.2241
46707SOL    HW144932  10.250   1.413   9.601  1.6085 -0.0481  0.2916
46707SOL    HW244933  10.162   1.536   9.603 -3.3926 -3.3410  0.3851
46708SOL     OW44934   7.804  12.417   2.216  0.1828  0.5165  1.2612
46708SOL    HW144935   7.777  12.467   2.139  0.9199 -1.1811 -0.1860
46708SOL    HW244936   7.722  12.389   2.256 -0.2962 -0.8256 -0.5102
46709SOL     OW44937   3.539  12.024   0.194  0.1023  0.1179  0.3276
46709SOL    HW144938   3.534  12.008   0.100 -0.3442 -0.2324  0.4061
46709SOL    HW244939   3.584  11.947   0.229 -0.8927 -0.3717  0.5534
46710SOL     OW44940  11.909   0.454   1.866 -0.0174  0.5651 -0.5322
46710SOL    HW144941  12.000   0.431   1.885 -0.8453 -1.2960  1.5192
46710SOL    HW244942  11.888   0.525   1.927 -0.8055 -1.1285  1.2532
46711SOL     OW44943   0.140  10.560   3.726 -0.4937  0.0547  0.3094
46711SOL    HW144944   0.204  10.489   3.720 -0.6694 -0.0416 -0.6778
46711SOL    HW244945   0.074  10.537   3.661  0.9813  2.6750 -2.3290
46712SOL     OW44946   5.372   3.838   7.678 -0.0216  0.1322  0.0977
46712SOL    HW144947   5.387   3.928   7.706 -0.6094 -0.0753  1.1305
46712SOL    HW244948   5.282   3.819   7.705 -0.1463 -0.5279 -0.7537
46713SOL     OW44949   5.226  11.335   5.602  0.5379  0.1898 -0.0085
46713SOL    HW144950   5.196  11.246   5.619  0.5859  0.1096 -0.3488
46713SOL    HW244951   5.282  11.356   5.677  0.3828 -0.0005  0.1612
46714SOL     OW44952   2.197   9.220   7.638 -0.1443  0.5424  1.0608
46714SOL    HW144953   2.281   9.222   7.593 -1.1733  0.6001 -0.9590
46714SOL    HW244954   2.180   9.311   7.663 -1.0337  1.1284 -1.4277
46715SOL     OW44955   3.046  10.924   2.346 -0.0385 -0.1408  0.3257
46715SOL    HW144956   3.096  10.904   2.425 -0.2365 -1.4768  0.1357
46715SOL    HW244957   3.000  10.843   2.325  0.8182 -0.1760 -1.7413
46716SOL     OW44958  10.525   1.011   1.551  0.4057 -0.3330  0.2418
46716SOL    HW144959  10.525   1.088   1.609  1.2623 -0.4377  0.3881
46716SOL    HW244960  10.444   0.965   1.573 -0.8509  1.2477 -0.8194
46717SOL     OW44961   4.053   8.537   7.725 -0.3933  0.4049  0.3601
46717SOL    HW144962   4.142   8.541   7.760 -0.4211  0.1996  0.4569
46717SOL    HW244963   4.011   8.467   7.775 -0.4412  0.1252 -0.0663
46718SOL     OW44964   4.829   6.430   0.529  0.3309 -0.1479 -0.3865
46718SOL    HW144965   4.843   6.524   0.532 -0.1659 -0.0456 -0.9944
46718SOL    HW244966   4.902   6.393   0.579 -0.0379  0.6048  0.7567
46719SOL     OW44967   0.716   8.734   8.987 -0.0189 -0.0726  0.2208
46719SOL    HW144968   0.717   8.823   8.953  3.1494 -0.6996 -1.7268
46719SOL    HW244969   0.724   8.743   9.082  1.1126  1.7240 -0.0168
46720SOL     OW44970   2.681   2.763  10.227 -0.2934 -0.6236  0.4233
46720SOL    HW144971   2.642   2.804  10.304  0.4710 -0.3807  0.6995
46720SOL    HW244972   2.728   2.686  10.262 -0.2785 -0.7415  0.1470
46721SOL     OW44973   2.889   0.933   5.225  0.2842  0.1937  0.3224
46721SOL    HW144974   2.844   0.861   5.181  1.8221 -0.9143  0.4692
46721SOL    HW244975   2.943   0.973   5.157 -1.6482  2.2050 -0.1140
46722SOL     OW44976   6.270   1.945  12.420  0.3323 -0.1012  0.5740
46722SOL    HW144977   6.233   2.033  12.411 -0.6002 -0.4324  0.9919
46722SOL    HW244978   6.364   1.957  12.414  0.1588  0.6728 -1.4443
46723SOL     OW44979   7.174   0.015  10.165 -0.0044  0.1698 -0.3536
46723SOL    HW144980   7.169   0.111  10.157 -0.5776  0.3105  1.3876
46723SOL    HW244981   7.129  -0.005  10.247  2.8580 -1.3122  0.9785
46724SOL     OW44982   2.224  11.875   8.219  0.3388 -0.0954 -0.2005
46724SOL    HW144983   2.166  11.951   8.228 -0.4291 -0.7501  0.5152
46724SOL    HW244984   2.223  11.854   8.126 -1.5980 -0.8667 -0.0450
46725SOL     OW44985   0.414   7.762   1.217  0.0457  0.3574 -0.4713
46725SOL    HW144986   0.498   7.753   1.263  0.0046  0.7033 -0.3244
46725SOL    HW244987   0.433   7.821   1.144  0.7541 -2.2161 -2.5232
46726SOL     OW44988   0.403   7.266   9.359 -0.4781  0.4225 -0.2454
46726SOL    HW144989   0.410   7.321   9.437 -1.4156 -0.2316  0.3214
46726SOL    HW244990   0.400   7.177   9.393  2.8387 -0.1747 -1.2286
46727SOL     OW44991  11.211   4.441  11.713  0.2278  0.1738  0.2774
46727SOL    HW144992  11.187   4.533  11.708  0.1722  0.1224 -0.4876
46727SOL    HW244993  11.139   4.400  11.760  0.3429  0.5495  0.7911
46728SOL     OW44994   0.981   6.430   6.739  0.3133 -0.6911 -0.1389
46728SOL    HW144995   0.962   6.503   6.680 -0.3021 -0.8955 -0.1998
46728SOL    HW244996   0.895   6.402   6.771  0.5489 -1.3533 -0.0768
46729SOL     OW44997   5.242   4.367   8.122  0.1824  0.2383 -0.3937
46729SOL    HW144998   5.252   4.273   8.112 -1.6880 -0.0674  0.2535
46729SOL    HW244999   5.166   4.389   8.069  1.4399  1.6634 -1.7125
46730SOL     OW45000  12.067   5.368   5.535  0.1776 -0.3584 -0.7420
46730SOL    HW145001  12.089   5.364   5.442  0.2609 -1.6350 -0.6886
46730SOL    HW245002  12.129   5.308   5.577  2.1285  2.3513  0.5726
46731SOL     OW45003   9.897   0.564   5.241 -0.0963 -0.0720 -0.1743
46731SOL    HW145004   9.877   0.489   5.297  0.7183  0.5559  1.0153
46731SOL    HW245005   9.940   0.626   5.300  1.3604  0.3673 -1.6373
46732SOL     OW45006   2.728   8.447   2.947  0.2380 -0.0221  0.2652
46732SOL    HW145007   2.705   8.365   2.991  0.6700 -0.4527 -0.2978
46732SOL    HW245008   2.811   8.473   2.986  0.8786 -0.6734 -0.6427
46733SOL     OW45009   2.563   8.365   5.406  0.7161  0.2028 -0.5926
46733SOL    HW145010   2.617   8.294   5.373  0.4161  0.0450 -0.7435
46733SOL    HW245011   2.490   8.322   5.450 -0.8906  0.3488 -2.9201
46734SOL     OW45012   4.874   3.612  11.683 -0.9081  0.2780  0.0719
46734SOL    HW145013   4.865   3.686  11.623 -1.6414 -1.0052 -1.4906
46734SOL    HW245014   4.857   3.648  11.769 -2.0863  1.7703 -0.7427
46735SOL     OW45015   6.260   7.420   7.137 -0.2300 -0.0333 -0.0648
46735SOL    HW145016   6.180   7.386   7.097 -0.5210 -0.0865  0.5587
46735SOL    HW245017   6.318   7.344   7.142  0.6954  0.4187 -2.4826
46736SOL     OW45018   2.922   8.040   2.840  0.0277  0.4126  0.2152
46736SOL    HW145019   2.863   7.984   2.788 -0.1120  1.3715 -0.6883
46736SOL    HW245020   2.901   8.129   2.811  2.6345  0.7347 -0.9271
46737SOL     OW45021   5.906   1.923  11.060  0.2274  0.1637  0.0861
46737SOL    HW145022   5.892   1.940  11.153 -0.7053 -0.2279  0.0232
46737SOL    HW245023   5.844   1.979  11.015  0.5990  0.2699 -0.3011
46738SOL     OW45024   6.555   1.458   0.391  0.2008  0.4867  0.2959
46738SOL    HW145025   6.495   1.532   0.382 -0.3220 -0.0948 -1.1521
46738SOL    HW245026   6.503   1.381   0.369  1.1728 -0.1478  0.1317
46739SOL     OW45027   7.165   3.552   7.891  0.3952  0.4096  0.1891
46739SOL    HW145028   7.227   3.498   7.842 -0.1697  1.1526 -1.4182
46739SOL    HW245029   7.204   3.639   7.890 -0.2591  0.7059 -0.1057
46740SOL     OW45030   5.275   9.126   0.997  0.0757  0.1129 -0.1883
46740SOL    HW145031   5.359   9.080   0.994  1.0771  1.8323  0.1217
46740SOL    HW245032   5.210   9.059   0.978  1.6972 -0.7817 -3.2485
46741SOL     OW45033   7.297   0.854   7.890  0.2240 -0.2970  0.0733
46741SOL    HW145034   7.227   0.844   7.826 -0.3704  0.3565  0.6009
46741SOL    HW245035   7.352   0.777   7.878  0.6724  0.2728 -1.8688
46742SOL     OW45036   5.582   2.535   5.876 -0.3045 -0.3619  0.5367
46742SOL    HW145037   5.650   2.592   5.913  0.3998  0.3310 -1.6919
46742SOL    HW245038   5.630   2.459   5.843 -0.7636 -0.4755  0.1236
46743SOL     OW45039   8.430   0.924  10.301 -0.3311 -0.0777  0.1085
46743SOL    HW145040   8.414   0.830  10.307 -0.1427 -0.1366 -0.2482
46743SOL    HW245041   8.371   0.954  10.232 -0.7124  0.1461  0.5301
46744SOL     OW45042  11.568   4.628   9.044 -0.1863 -0.8372 -0.0271
46744SOL    HW145043  11.607   4.702   9.091  1.5744 -1.8310  0.1594
46744SOL    HW245044  11.545   4.565   9.112  0.0193 -1.2271 -0.3146
46745SOL     OW45045   6.322   1.048   0.567  0.3532  0.2961  0.0927
46745SOL    HW145046   6.349   1.071   0.656  0.5408  3.7604 -0.6968
46745SOL    HW245047   6.346   1.125   0.515 -3.0446 -0.0403 -2.2745
46746SOL     OW45048  11.168   4.554  11.345  0.0230 -0.2025  0.4798
46746SOL    HW145049  11.097   4.547  11.281 -0.7637  1.3187  1.1274
46746SOL    HW245050  11.161   4.643  11.379  1.3593 -0.4891  1.6051
46747SOL     OW45051   0.334   9.109  11.030 -0.1232  0.0769 -0.2742
46747SOL    HW145052   0.398   9.171  11.064  0.6402 -0.3711 -0.8829
46747SOL    HW245053   0.258   9.163  11.008  0.0904  0.6294  0.3008
46748SOL     OW45054   0.112  12.103   4.242  0.5569 -0.2678 -0.2712
46748SOL    HW145055   0.052  12.174   4.265 -0.0923 -0.3228 -1.6879
46748SOL    HW245056   0.144  12.071   4.326 -0.2744  0.7250  0.4566
46749SOL     OW45057   9.632   8.992  11.933  0.2307 -0.2787  0.6710
46749SOL    HW145058   9.718   9.021  11.962  0.6924 -1.8038  0.9185
46749SOL    HW245059   9.611   8.919  11.991 -0.4739 -1.0110 -0.4596
46750SOL     OW45060   5.332   8.694   1.926  0.6112 -0.5340 -0.2838
46750SOL    HW145061   5.387   8.726   1.855 -1.2837  0.0364 -1.5758
46750SOL    HW245062   5.308   8.605   1.901 -1.2027  0.1415 -1.1650
46751SOL     OW45063   9.281   5.189   9.144  0.2911  0.0402  0.2956
46751SOL    HW145064   9.355   5.159   9.197 -1.0318 -1.5012  1.3626
46751SOL    HW245065   9.289   5.140   9.062  1.8017  1.7222 -0.6263
46752SOL     OW45066   4.307   4.758   0.248 -0.1686 -0.6548 -0.2568
46752SOL    HW145067   4.274   4.847   0.260  0.2636 -0.5566  0.2248
46752SOL    HW245068   4.402   4.768   0.242 -0.1448 -1.0463 -0.5655
46753SOL     OW45069   3.183   1.019   9.942 -0.2766  0.2639 -0.5311
46753SOL    HW145070   3.245   1.048  10.009 -0.2493 -0.9062 -0.0226
46753SOL    HW245071   3.107   1.076   9.954  0.4304  1.2710 -0.7256
46754SOL     OW45072   6.300   0.320  10.285  0.2696  0.4858  0.0830
46754SOL    HW145073   6.302   0.234  10.327 -0.8241  0.3653 -0.0783
46754SOL    HW245074   6.318   0.302  10.192 -1.1528  0.2599 -0.1702
46755SOL     OW45075   1.330  11.677   9.196 -0.0578 -0.2157 -0.2452
46755SOL    HW145076   1.247  11.629   9.188 -0.3804  0.5926 -2.3140
46755SOL    HW245077   1.397  11.611   9.175 -0.5652  0.3260 -4.5659
46756SOL     OW45078   4.359   7.208   6.183 -0.5083 -0.4503  0.2347
46756SOL    HW145079   4.418   7.263   6.234  0.1836 -0.8291 -0.1383
46756SOL    HW245080   4.272   7.238   6.206 -0.1488  0.7004  0.1477
46757SOL     OW45081   6.559   2.234   8.031  0.6746 -0.5112  0.9896
46757SOL    HW145082   6.557   2.212   7.938  0.6453  0.0240  0.8629
46757SOL    HW245083   6.647   2.210   8.059  0.6660 -0.7254  0.8407
46758SOL     OW45084   4.698  10.638  11.609 -0.2739  0.0475  0.4000
46758SOL    HW145085   4.768  10.691  11.648  0.1601  0.4763 -0.9196
46758SOL    HW245086   4.738  10.553  11.595  0.2922  0.5508 -1.1892
46759SOL     OW45087   3.156   2.303   3.606 -0.4315  0.2311 -0.3522
46759SOL    HW145088   3.062   2.315   3.592 -0.3257  0.2499 -1.1019
46759SOL    HW245089   3.197   2.356   3.537  0.2562  4.2727  2.7653
46760SOL     OW45090   1.759   0.707   9.868 -0.2069 -0.1009 -0.6395
46760SOL    HW145091   1.817   0.771   9.826 -1.8295  2.6375  1.0304
46760SOL    HW245092   1.692   0.689   9.803  0.8545 -1.0434 -1.5192
46761SOL     OW45093   6.477  12.307   3.430  0.0181  0.2673 -0.0638
46761SOL    HW145094   6.466  12.402   3.430 -1.0495  0.1542  0.3443
46761SOL    HW245095   6.563  12.293   3.390 -0.4694  1.3180 -1.5657
46762SOL     OW45096   7.459   7.651   6.921 -0.4143  0.5596  0.7733
46762SOL    HW145097   7.412   7.599   6.986 -0.9367  1.7531  1.3862
46762SOL    HW245098   7.478   7.590   6.851 -0.9074 -0.4809  1.5147
46763SOL     OW45099   8.324   1.639   1.754 -0.7503 -0.1469 -0.1539
46763SOL    HW145100   8.316   1.604   1.842 -0.6718  0.7095  0.1994
46763SOL    HW245101   8.257   1.593   1.703 -0.8235 -0.6072  0.3621
46764SOL     OW45102   4.069   4.290  10.864 -0.1671 -0.5029  0.2436
46764SOL    HW145103   4.155   4.266  10.830  0.1598  1.6637 -0.6032
46764SOL    HW245104   4.007   4.249  10.804  0.3904  2.2259 -2.4708
46765SOL     OW45105   5.045   6.739   8.560 -0.3128 -0.1480 -0.2878
46765SOL    HW145106   4.995   6.753   8.480  0.0675 -3.1289 -1.1395
46765SOL    HW245107   5.013   6.656   8.594 -0.3896  0.9622  2.6596
46766SOL     OW45108  11.675   5.295  10.408 -0.1121 -0.1536  0.8738
46766SOL    HW145109  11.607   5.285  10.342  0.7549  1.1524 -0.2662
46766SOL    HW245110  11.713   5.381  10.391  1.1005 -0.3928  2.1721
46767SOL     OW45111   1.819  12.032   4.451  0.0426  0.4035 -0.9495
46767SOL    HW145112   1.888  11.966   4.460 -0.5380 -0.2877 -1.4076
46767SOL    HW245113   1.860  12.104   4.403  1.2299  1.2460  1.1933
46768SOL     OW45114   7.745   8.103  11.043  0.1825  0.6025 -0.4295
46768SOL    HW145115   7.722   8.015  11.014  0.6184  0.1837  0.4514
46768SOL    HW245116   7.668   8.134  11.090 -0.1958  0.9389 -1.2492
46769SOL     OW45117   5.130   3.450   1.231  0.3024  0.4549 -0.1742
46769SOL    HW145118   5.059   3.509   1.203  0.5430  0.7925 -0.0887
46769SOL    HW245119   5.106   3.423   1.319  0.7445  1.3274  0.2271
46770SOL     OW45120  11.411  11.082   5.878 -0.4842  0.2635  0.1696
46770SOL    HW145121  11.383  11.078   5.786  0.6949  1.4563 -0.2665
46770SOL    HW245122  11.330  11.094   5.927 -1.1681 -0.7429 -0.6689
46771SOL     OW45123   8.545   2.283   1.907 -0.3279 -0.1395  0.0134
46771SOL    HW145124   8.579   2.365   1.942  0.7670 -1.0307  1.1116
46771SOL    HW245125   8.487   2.310   1.836 -0.0245  1.5778  0.3684
46772SOL     OW45126  11.243   0.901   2.090  0.0060 -0.1476  0.2683
46772SOL    HW145127  11.327   0.906   2.135 -0.1573  0.8376  0.4849
46772SOL    HW245128  11.185   0.957   2.141 -1.1066 -1.6846  0.7769
46773SOL     OW45129   9.957   1.567  11.655 -0.7073  0.1691  0.0685
46773SOL    HW145130   9.949   1.506  11.727  0.6437  0.4534  0.4905
46773SOL    HW245131   9.923   1.520  11.579 -0.5234 -0.7661  0.5550
46774SOL     OW45132   2.970   7.551  11.402 -0.4283  0.3090 -0.0794
46774SOL    HW145133   3.012   7.471  11.432 -1.2064 -0.1470 -0.1851
46774SOL    HW245134   2.881   7.546  11.438 -0.9516  0.4120 -1.3153
46775SOL     OW45135   4.020  12.107   2.768  0.2624  0.0222 -0.0690
46775SOL    HW145136   4.021  12.038   2.834 -1.4570  0.9276  0.9761
46775SOL    HW245137   4.044  12.186   2.816  1.6548  0.2747 -1.1308
46776SOL     OW45138   0.857   2.659   1.995 -0.2812 -0.3919 -0.0982
46776SOL    HW145139   0.811   2.643   1.913 -0.9175 -0.1311  0.1985
46776SOL    HW245140   0.870   2.572   2.033  0.5254 -0.5646 -0.7308
46777SOL     OW45141   9.912   4.941   0.498  0.5732  0.0939  0.3940
46777SOL    HW145142   9.907   5.035   0.514 -1.1967  0.0440  0.3274
46777SOL    HW245143   9.975   4.932   0.426 -0.8443  1.4488 -1.1009
46778SOL     OW45144   1.037  11.305   0.864 -0.7567  0.0325  0.2557
46778SOL    HW145145   1.047  11.226   0.917 -3.1727 -2.0432 -2.0885
46778SOL    HW245146   0.993  11.367   0.922  1.8375  0.0923  2.3850
46779SOL     OW45147   0.707   5.067   4.642 -0.2512  0.0510 -0.7147
46779SOL    HW145148   0.668   4.999   4.588 -0.1452  0.2359 -1.0289
46779SOL    HW245149   0.659   5.147   4.619 -0.0120  0.1870 -0.7472
46780SOL     OW45150   2.006   9.004  10.976  0.0353  0.3623  0.1127
46780SOL    HW145151   1.974   9.092  10.997  0.5631  0.2129  1.7138
46780SOL    HW245152   2.072   9.019  10.909  0.7834  1.3259  1.0165
46781SOL     OW45153   9.910   7.569   7.910 -0.3402 -0.1455 -0.6669
46781SOL    HW145154   9.972   7.520   7.963  0.3592  0.2680 -1.0850
46781SOL    HW245155   9.937   7.660   7.918 -1.1463  0.0974 -0.5338
46782SOL     OW45156  10.990  12.242   7.710  0.3358  0.4477 -0.3993
46782SOL    HW145157  10.900  12.253   7.743  0.9270  2.3658  0.7607
46782SOL    HW245158  11.019  12.159   7.747 -0.9471 -0.2235 -0.8183
46783SOL     OW45159   2.588   1.383   7.706 -0.0710 -0.0282  0.2545
46783SOL    HW145160   2.516   1.324   7.727 -0.0163 -0.1388  0.1270
46783SOL    HW245161   2.553   1.441   7.638  0.4184 -1.0037 -0.8527
46784SOL     OW45162   7.383   0.677   2.892  0.0283 -0.4547 -0.4045
46784SOL    HW145163   7.464   0.644   2.854  1.2754 -0.2725  1.9077
46784SOL    HW245164   7.313   0.630   2.846  1.5344 -2.3344 -0.8829
46785SOL     OW45165   9.739   9.280   0.423  0.0857 -0.2257 -0.5767
46785SOL    HW145166   9.670   9.223   0.456  0.2949 -0.6922 -0.9224
46785SOL    HW245167   9.807   9.220   0.392  1.9232  0.1667  2.2628
46786SOL     OW45168   5.396  11.156   9.604 -0.4363 -0.1738  0.0548
46786SOL    HW145169   5.335  11.156   9.530  0.5690  1.6532 -0.8526
46786SOL    HW245170   5.388  11.068   9.641 -0.0397 -1.6638 -3.0237
46787SOL     OW45171  10.985   4.690   3.538 -0.5775  0.4595  0.2764
46787SOL    HW145172  10.902   4.738   3.536 -0.7781  0.0877 -0.8738
46787SOL    HW245173  10.984   4.637   3.459  0.9130  0.7032  0.0679
46788SOL     OW45174   3.281   1.460   6.076  0.2739  0.3183 -0.0288
46788SOL    HW145175   3.237   1.488   6.157  0.3007  3.1850 -0.8936
46788SOL    HW245176   3.371   1.442   6.104 -0.0067  0.1035  0.7845
46789SOL     OW45177   0.611   0.272   5.596 -0.1400 -0.0514 -0.1230
46789SOL    HW145178   0.699   0.277   5.635 -0.7968 -0.6763  1.5126
46789SOL    HW245179   0.588   0.364   5.580 -0.1060  0.3255  1.6634
46790SOL     OW45180  10.317   5.179   0.736 -0.2531  0.6951  0.3039
46790SOL    HW145181  10.322   5.202   0.829  1.1551  2.1497 -0.0830
46790SOL    HW245182  10.409   5.175   0.708 -0.6274 -0.5624 -0.8480
46791SOL     OW45183   8.116  11.151   2.328  0.1311 -0.1857 -0.6869
46791SOL    HW145184   8.171  11.141   2.405  0.5429 -0.7199 -1.0429
46791SOL    HW245185   8.176  11.179   2.259 -0.1453 -0.1931 -0.9329
46792SOL     OW45186   4.397   1.661   2.525  0.1601 -0.2142 -0.1873
46792SOL    HW145187   4.434   1.729   2.469 -1.2366  0.6040 -0.1517
46792SOL    HW245188   4.367   1.593   2.464 -0.9874  0.4917 -0.4340
46793SOL     OW45189   6.064   4.497  10.513  0.5600 -0.5600  0.2212
46793SOL    HW145190   5.976   4.529  10.492 -0.4809 -1.5831  2.6539
46793SOL    HW245191   6.054   4.453  10.598  3.4772 -0.5463  0.6671
46794SOL     OW45192   7.296   3.291   3.550 -0.2796 -0.2483  0.3658
46794SOL    HW145193   7.231   3.318   3.487 -1.7381 -1.5568  1.2306
46794SOL    HW245194   7.363   3.247   3.498 -1.6178 -1.6093 -0.2746
46795SOL     OW45195   1.894   1.999   1.068 -0.5411  0.2024  0.0554
46795SOL    HW145196   1.902   2.026   1.159 -1.3971 -0.0855  0.2173
46795SOL    HW245197   1.818   2.046   1.035 -1.6296 -1.4225  0.1418
46796SOL     OW45198  10.802   9.778   6.389 -0.2199  0.1912  0.3365
46796SOL    HW145199  10.895   9.801   6.387 -0.4381  1.3865  1.8603
46796SOL    HW245200  10.765   9.820   6.311  0.2858  0.8931  0.4616
46797SOL     OW45201  12.327   2.187   9.082  0.0636  0.4230 -0.0765
46797SOL    HW145202  12.300   2.235   9.160 -1.6295  0.8711 -0.8960
46797SOL    HW245203  12.247   2.145   9.050  0.9939 -0.8452 -0.8381
46798SOL     OW45204   2.006  12.592  10.298 -0.5601  0.7224 -0.2899
46798SOL    HW145205   2.053  12.526  10.348 -0.8110  1.5433  1.0963
46798SOL    HW245206   2.046  12.590  10.211  0.8844  0.2512  0.3604
46799SOL     OW45207   3.441   4.112   0.544 -0.0208 -0.0586 -0.0322
46799SOL    HW145208   3.358   4.066   0.534  1.0469 -2.4169  1.2619
46799SOL    HW245209   3.422   4.181   0.609 -0.8909 -0.7802  0.5069
46800SOL     OW45210   0.052   7.884   6.617 -0.1534 -0.5681 -0.4863
46800SOL    HW145211   0.035   7.977   6.635  0.6558 -0.7803  1.6337
46800SOL    HW245212  -0.020   7.838   6.661  1.0287 -1.0482  1.0202
46801SOL     OW45213   3.881   9.811   9.606 -0.6022  0.1562 -0.4667
46801SOL    HW145214   3.815   9.879   9.597  0.6527  1.5728  0.5677
46801SOL    HW245215   3.894   9.801   9.700  1.0677  0.3768 -0.6287
46802SOL     OW45216   3.356   5.848   5.561 -0.7303 -0.3196  0.6776
46802SOL    HW145217   3.387   5.911   5.496 -1.8023 -1.2235 -0.7923
46802SOL    HW245218   3.435   5.808   5.596 -0.1173 -0.0869 -0.3826
46803SOL     OW45219   2.189   0.191   0.540  0.1188  0.5056 -0.5845
46803SOL    HW145220   2.250   0.192   0.466 -0.2181 -1.7740 -0.9685
46803SOL    HW245221   2.230   0.248   0.606  1.6396  0.6266 -1.5950
46804SOL     OW45222  11.142   3.916  11.861 -0.5845 -0.5132  0.1560
46804SOL    HW145223  11.147   3.904  11.766 -0.2583 -2.8240  0.4113
46804SOL    HW245224  11.063   3.869  11.887 -0.1576 -0.7247  1.1244
46805SOL     OW45225   5.428  12.367   3.421  0.2295  0.2417  0.1164
46805SOL    HW145226   5.478  12.412   3.490  1.0582 -0.8026  0.2248
46805SOL    HW245227   5.338  12.397   3.434  0.6233  1.2476  0.6785
46806SOL     OW45228  11.273   0.901  11.742 -0.2073  0.8245 -0.1575
46806SOL    HW145229  11.338   0.949  11.793  0.7723  0.0251 -0.6404
46806SOL    HW245230  11.311   0.814  11.730 -0.8066  0.7320 -1.5171
46807SOL     OW45231   8.065   0.175   0.835 -0.2248  0.4533 -0.4589
46807SOL    HW145232   8.101   0.176   0.746 -0.3508 -1.5315 -0.5732
46807SOL    HW245233   8.018   0.092   0.841 -1.2234  1.0848  1.0967
46808SOL     OW45234   8.274   5.968  12.060 -0.4790  0.2054 -0.4086
46808SOL    HW145235   8.271   5.925  12.145  0.6534 -1.9746 -1.4063
46808SOL    HW245236   8.198   6.027  12.061 -1.1628 -0.5950  1.6509
46809SOL     OW45237  10.161   4.485   6.094 -0.1011 -0.2879 -0.2695
46809SOL    HW145238  10.153   4.392   6.114 -0.3661 -0.3621 -0.6931
46809SOL    HW245239  10.190   4.487   6.003 -2.0676  0.0403 -0.9327
46810SOL     OW45240   7.396   5.930  12.521  0.0526  0.1840  0.6776
46810SOL    HW145241   7.301   5.932  12.511 -0.0619  1.5120  1.7686
46810SOL    HW245242   7.429   5.972  12.440 -0.0992 -2.6874 -0.9961
46811SOL     OW45243   3.283   8.047   1.950 -0.1915 -0.3659  0.2271
46811SOL    HW145244   3.307   8.136   1.926 -2.0489  0.7760  2.1733
46811SOL    HW245245   3.297   7.996   1.871  1.9703  1.4049 -0.6445
46812SOL     OW45246   1.337   7.588   1.597  0.1674  1.1245 -0.3733
46812SOL    HW145247   1.356   7.681   1.613  0.2044  0.5627  3.6652
46812SOL    HW245248   1.267   7.567   1.657  1.0409 -1.7880 -0.2463
46813SOL     OW45249   8.315   6.118   4.411  0.3849 -0.3420 -0.2615
46813SOL    HW145250   8.289   6.050   4.350 -0.3551  0.9455 -1.4240
46813SOL    HW245251   8.238   6.174   4.421  0.6858 -0.1465  1.3522
46814SOL     OW45252   3.278   0.423   0.585 -0.2583 -0.5185 -0.4004
46814SOL    HW145253   3.196   0.473   0.583  0.5059  0.7747 -0.3821
46814SOL    HW245254   3.287   0.388   0.497 -0.5716 -0.2035 -0.5607
46815SOL     OW45255   9.172  11.233   4.884  0.2747  1.1889  0.8119
46815SOL    HW145256   9.239  11.211   4.820  0.1228  0.2651  0.9631
46815SOL    HW245257   9.184  11.169   4.955 -4.1380 -2.7575 -1.4464
46816SOL     OW45258   7.099   2.754   9.313 -0.1755 -0.0220 -0.1722
46816SOL    HW145259   7.125   2.687   9.250  1.9204  0.1064  0.4734
46816SOL    HW245260   7.006   2.766   9.298 -0.3205 -2.0590 -1.2576
46817SOL     OW45261   5.481   0.296  12.255 -0.2297 -0.1749 -0.3432
46817SOL    HW145262   5.426   0.234  12.206 -0.6306 -1.0662  1.1549
46817SOL    HW245263   5.419   0.356  12.296  0.1721  1.4511 -1.9953
46818SOL     OW45264   5.476   0.172   3.399  0.0125  0.3380  0.3298
46818SOL    HW145265   5.445   0.262   3.412 -2.1648 -0.1534 -0.9150
46818SOL    HW245266   5.427   0.120   3.463  1.3619  0.0097  1.1416
46819SOL     OW45267   1.970   2.720   8.558 -0.2405 -0.4242 -0.6178
46819SOL    HW145268   1.894   2.746   8.506 -0.6705 -0.4857 -0.0347
46819SOL    HW245269   1.933   2.693   8.642  0.4808  0.2100 -0.0803
46820SOL     OW45270   5.666   8.770   2.254  0.2918 -0.5591 -0.0872
46820SOL    HW145271   5.695   8.793   2.166  0.2367  0.5235  0.1597
46820SOL    HW245272   5.571   8.762   2.247  0.1589  0.6235  0.0799
46821SOL     OW45273   2.760   9.304   4.232  0.5909 -0.2019  0.5891
46821SOL    HW145274   2.819   9.242   4.189 -0.8706 -0.3442 -1.3818
46821SOL    HW245275   2.686   9.251   4.261 -0.2119  0.4209 -0.2243
46822SOL     OW45276   1.121   1.104   8.598  0.1482  0.3530  0.4469
46822SOL    HW145277   1.081   1.186   8.569  3.1469  1.8575  0.1205
46822SOL    HW245278   1.113   1.107   8.694 -0.0624  0.8899  0.4196
46823SOL     OW45279   7.733   4.637   4.015 -0.1707 -0.1027 -0.0555
46823SOL    HW145280   7.764   4.728   4.005  0.6734 -0.2365  1.0813
46823SOL    HW245281   7.774   4.607   4.097  0.1022 -1.7267 -0.7470
46824SOL     OW45282   8.778   0.458  11.147 -0.1003  0.4584 -0.2616
46824SOL    HW145283   8.862   0.504  11.141 -0.2559  0.7549 -0.1326
46824SOL    HW245284   8.713   0.522  11.120 -0.7668  1.6415  3.6168
46825SOL     OW45285   5.863  11.424   2.643 -0.3835  0.1112 -0.2133
46825SOL    HW145286   5.952  11.455   2.659 -1.1384  1.3239  2.0794
46825SOL    HW245287   5.859  11.410   2.548  1.9732  0.7958 -0.4730
46826SOL     OW45288   4.402   3.954   0.409 -0.3429 -0.1414 -0.0325
46826SOL    HW145289   4.441   4.023   0.463 -0.2511  1.8704 -2.4882
46826SOL    HW245290   4.472   3.890   0.398  0.5261  0.7834 -0.0160
46827SOL     OW45291  10.204  12.044   1.285  0.3409 -0.1994  0.2039
46827SOL    HW145292  10.237  11.955   1.268  0.6334 -0.4610  1.9520
46827SOL    HW245293  10.279  12.090   1.322 -0.0888  0.4768  0.2382
46828SOL     OW45294   5.820   7.591   1.577  0.0575  0.3669  0.5356
46828SOL    HW145295   5.878   7.526   1.615 -1.1174 -0.5296  0.8621
46828SOL    HW245296   5.869   7.673   1.583  2.2436 -0.6948 -1.4088
46829SOL     OW45297   8.373   2.405   3.785  0.3607  0.4672  0.2409
46829SOL    HW145298   8.375   2.476   3.849  1.5959  0.8032 -0.1321
46829SOL    HW245299   8.405   2.329   3.834 -0.4738  0.2870  0.5071
46830SOL     OW45300  12.068   4.153  11.451 -0.1516  0.0429  0.1001
46830SOL    HW145301  12.081   4.074  11.503  0.8301  1.2378  1.7869
46830SOL    HW245302  11.992   4.197  11.491  0.4891  0.8798  0.4343
46831SOL     OW45303  10.179   2.543  10.407 -0.2133  0.1736  0.4783
46831SOL    HW145304  10.106   2.552  10.346 -0.7269  0.9549  1.1892
46831SOL    HW245305  10.256   2.571  10.357 -0.4390 -0.3290 -0.1693
46832SOL     OW45306   0.533   1.838   4.941  0.1964  0.4352 -0.1518
46832SOL    HW145307   0.578   1.918   4.968  0.1698  0.2003  0.6287
46832SOL    HW245308   0.584   1.806   4.866  0.7500  0.6971  0.1033
46833SOL     OW45309   3.155   5.668   4.692  0.2443  0.4603  0.1347
46833SOL    HW145310   3.225   5.656   4.756  0.8908  1.8052 -0.2876
46833SOL    HW245311   3.078   5.690   4.744  0.6135  0.9232  0.4904
46834SOL     OW45312   5.212   6.739   3.754  0.0482  0.1326 -0.0934
46834SOL    HW145313   5.117   6.741   3.763 -0.2550 -1.4013 -2.1090
46834SOL    HW245314   5.235   6.825   3.720 -0.7270  0.2282 -0.3969
46835SOL     OW45315   0.767   5.655  10.856 -0.7115  0.7209  0.0191
46835SOL    HW145316   0.767   5.749  10.875 -1.2296  0.6766  0.2546
46835SOL    HW245317   0.725   5.615  10.933 -0.0291  0.2493  0.1560
46836SOL     OW45318  12.042  11.436   0.658  1.3977 -0.2681  0.4528
46836SOL    HW145319  12.032  11.343   0.676  1.8777 -0.4112 -0.0084
46836SOL    HW245320  11.979  11.478   0.716 -0.3897 -0.9980 -0.8577
46837SOL     OW45321  12.248   3.066   2.894 -0.3337 -0.3777 -0.1111
46837SOL    HW145322  12.247   3.012   2.973  3.8390 -0.9986 -0.2543
46837SOL    HW245323  12.184   3.135   2.911 -1.5208 -1.9947  2.6101
46838SOL     OW45324   2.781   3.403   8.581 -0.0636  0.4930 -0.1177
46838SOL    HW145325   2.784   3.345   8.657  1.6438  0.5665 -0.1010
46838SOL    HW245326   2.758   3.489   8.616  1.2478  0.6398  0.4013
46839SOL     OW45327   2.891   3.060  11.873 -0.2356 -0.5690  0.5867
46839SOL    HW145328   2.896   3.014  11.957 -1.5779 -0.3232  0.8200
46839SOL    HW245329   2.958   3.017  11.819  0.6121 -0.7663  1.7487
46840SOL     OW45330   9.135   8.115   2.205  0.2313 -0.3559 -0.1330
46840SOL    HW145331   9.125   8.163   2.287  0.6014 -0.2414 -0.1523
46840SOL    HW245332   9.046   8.107   2.171  0.0786 -0.3828  0.2650
46841SOL     OW45333   1.267   7.879   2.552  0.1389 -0.0959  0.5847
46841SOL    HW145334   1.282   7.885   2.647  0.2674 -0.5876  0.5991
46841SOL    HW245335   1.350   7.904   2.513 -0.6271  2.7348  0.5101
46842SOL     OW45336  12.312   8.197   4.427  0.3262 -0.4407 -0.0089
46842SOL    HW145337  12.231   8.166   4.386 -0.2461  1.7696 -0.7331
46842SOL    HW245338  12.299   8.185   4.520 -0.7633 -0.3549 -0.1362
46843SOL     OW45339  11.288   2.943   0.170 -0.5133 -0.1938  0.0381
46843SOL    HW145340  11.322   3.020   0.215  0.3737  0.1032 -1.0730
46843SOL    HW245341  11.193   2.947   0.184 -0.5255  1.2765 -0.2382
46844SOL     OW45342   0.092   9.247   1.512  0.2606 -0.1121 -0.2234
46844SOL    HW145343   0.118   9.272   1.424  0.8771 -1.1118 -0.3372
46844SOL    HW245344   0.174   9.234   1.559 -0.0024 -1.9945 -0.2065
46845SOL     OW45345  10.222  10.634   7.860  0.2403  0.3845 -0.1028
46845SOL    HW145346  10.206  10.726   7.841  0.8639  0.3896 -0.6605
46845SOL    HW245347  10.170  10.586   7.795  2.5276  0.4033 -2.0826
46846SOL     OW45348  11.655   8.329   9.984 -0.4086 -0.3460 -0.0323
46846SOL    HW145349  11.666   8.238   9.957 -0.7232 -0.6195  0.7490
46846SOL    HW245350  11.659   8.379   9.902  0.8042 -0.9590 -0.3602
46847SOL     OW45351  11.233   0.370   8.271  0.1845  0.6705  0.5599
46847SOL    HW145352  11.232   0.466   8.272  0.3694  0.7357 -1.1236
46847SOL    HW245353  11.325   0.347   8.266  0.0987  0.5372 -1.4257
46848SOL     OW45354   6.164   5.381   8.971 -0.3498 -0.1937 -0.0563
46848SOL    HW145355   6.139   5.472   8.954 -0.8378 -0.8365 -3.4966
46848SOL    HW245356   6.201   5.382   9.060  1.7670  3.7830 -0.7817
46849SOL     OW45357   1.786  11.009   1.916 -0.0737 -0.4103  0.0780
46849SOL    HW145358   1.724  10.954   1.965 -1.4662  1.3642  0.4227
46849SOL    HW245359   1.777  10.981   1.825 -0.5681 -0.9158  0.2759
46850SOL     OW45360  10.744   7.276   6.405  0.5974 -0.0089  0.2704
46850SOL    HW145361  10.721   7.183   6.403 -2.8549  0.5295  3.1611
46850SOL    HW245362  10.727   7.307   6.316  0.7251 -1.8774 -0.4572
46851SOL     OW45363   6.453  12.485  12.405 -0.3492 -0.8113 -0.0904
46851SOL    HW145364   6.518  12.464  12.472  0.1062  0.3975 -0.1233
46851SOL    HW245365   6.392  12.544  12.450 -0.9306 -1.2337 -0.3140
46852SOL     OW45366   3.930   9.177   6.540 -0.4884 -0.0982 -0.2678
46852SOL    HW145367   3.872   9.200   6.613  0.4657  1.4689  0.0477
46852SOL    HW245368   3.874   9.181   6.463 -1.3828 -1.2106  0.2933
46853SOL     OW45369   7.597   6.792   7.443 -0.6074  0.2533 -0.7894
46853SOL    HW145370   7.605   6.885   7.464 -1.9364  0.1550  0.1999
46853SOL    HW245371   7.509   6.782   7.407 -0.2685 -0.5333 -1.4539
46854SOL     OW45372   8.214   4.139   7.553 -0.0632 -0.0509 -0.6734
46854SOL    HW145373   8.120   4.124   7.552 -0.0285 -0.4811  0.4760
46854SOL    HW245374   8.253   4.051   7.549  0.2613  0.0621 -0.1395
46855SOL     OW45375   9.466   9.274   2.518 -0.4419 -0.2431 -0.1755
46855SOL    HW145376   9.545   9.326   2.504  0.5129 -1.0041  1.9528
46855SOL    HW245377   9.486   9.188   2.481  0.4523 -0.9537  1.8062
46856SOL     OW45378   6.874   7.877   1.168 -0.3301  0.0233 -0.3949
46856SOL    HW145379   6.809   7.825   1.122 -0.3025  0.4755 -0.9574
46856SOL    HW245380   6.831   7.901   1.250 -0.4946 -0.5257 -0.3146
46857SOL     OW45381   9.168   0.648   2.751  0.5762  0.3596  0.1257
46857SOL    HW145382   9.163   0.643   2.846  4.2136  0.8012  0.4582
46857SOL    HW245383   9.197   0.561   2.723 -1.1309  0.0126 -0.7221
46858SOL     OW45384   2.707   5.129  12.272  0.1796  0.0213  0.2144
46858SOL    HW145385   2.627   5.172  12.245  0.2204 -0.6258 -1.0332
46858SOL    HW245386   2.777   5.184  12.238  0.2369 -0.5478 -0.6152
46859SOL     OW45387  11.411   2.635  11.300  0.4639  0.4005 -0.2670
46859SOL    HW145388  11.361   2.593  11.230  1.4628 -1.6563  0.1966
46859SOL    HW245389  11.446   2.714  11.259 -0.8122  0.4158 -1.4175
46860SOL     OW45390   1.894  11.884   9.259  0.1598 -0.2697  0.0744
46860SOL    HW145391   1.803  11.914   9.262  0.2824  0.1618 -0.2534
46860SOL    HW245392   1.891  11.802   9.209 -0.1960 -0.8657  1.0562
46861SOL     OW45393  11.091  12.465   2.539  0.2779  0.2550  0.5464
46861SOL    HW145394  11.089  12.482   2.633  2.5357 -0.2512  0.7494
46861SOL    HW245395  11.081  12.370   2.532  0.0534  0.2994  0.2720
46862SOL     OW45396  10.952  10.129   1.171  0.0079  0.0611 -0.5598
46862SOL    HW145397  10.879  10.115   1.231 -0.9709  0.5365 -1.5947
46862SOL    HW245398  10.921  10.096   1.087  0.5734  1.2237 -1.2640
46863SOL     OW45399   6.976   9.780   6.697  0.5932 -0.0198  0.7549
46863SOL    HW145400   6.922   9.857   6.683  0.0423 -0.3667  0.9086
46863SOL    HW245401   7.048   9.810   6.752 -0.2100  0.1553  1.7497
46864SOL     OW45402   7.173   1.668   7.060 -0.6288 -0.7395  0.4137
46864SOL    HW145403   7.135   1.668   6.972 -0.3992 -1.6122  0.3066
46864SOL    HW245404   7.235   1.742   7.058 -2.5259  0.9556  0.7218
46865SOL     OW45405   9.715   3.401   7.560 -0.0713 -0.3958 -0.3420
46865SOL    HW145406   9.633   3.378   7.516 -0.9586 -1.4865  1.7788
46865SOL    HW245407   9.733   3.327   7.618 -0.2682  1.8972  2.9097
46866SOL     OW45408  11.434  10.096   9.840 -0.2909  0.1183  0.3687
46866SOL    HW145409  11.498  10.025   9.838 -0.9486 -0.5296  1.3392
46866SOL    HW245410  11.386  10.088   9.758 -0.2597 -0.4602  0.4034
46867SOL     OW45411   0.239   3.406   1.120  0.5101  0.1445 -0.5917
46867SOL    HW145412   0.311   3.352   1.153  0.2065  1.0428  1.7307
46867SOL    HW245413   0.188   3.347   1.065  0.7519 -1.6835  1.0266
46868SOL     OW45414   6.708   9.753   1.369  0.3645  0.5100 -0.5062
46868SOL    HW145415   6.690   9.660   1.377  0.5970  0.2155 -2.9044
46868SOL    HW245416   6.652   9.794   1.435 -1.1568 -1.1760 -0.6855
46869SOL     OW45417  12.090   6.588   5.452 -1.0286  0.4664 -0.1144
46869SOL    HW145418  12.144   6.650   5.403  1.5552 -1.5672 -0.0309
46869SOL    HW245419  12.044   6.642   5.516  0.5579  2.3946 -0.5083
46870SOL     OW45420   3.857   6.615   2.146  0.4540 -0.2958 -0.0575
46870SOL    HW145421   3.848   6.573   2.231  0.1817  0.1264  0.1263
46870SOL    HW245422   3.925   6.565   2.101  2.0007  0.6469  1.1320
46871SOL     OW45423   6.392   1.611   7.810 -0.2217  0.5839  0.2606
46871SOL    HW145424   6.322   1.666   7.776 -2.5788 -0.2201  3.4106
46871SOL    HW245425   6.448   1.670   7.860  0.8848  1.0416 -1.4144
46872SOL     OW45426   8.901   8.894   1.812 -0.2197  0.2156  0.3748
46872SOL    HW145427   8.838   8.960   1.840 -0.5036  0.1129 -0.0107
46872SOL    HW245428   8.901   8.829   1.883  0.1083  0.6512  0.7851
46873SOL     OW45429   6.028   9.091  12.402 -0.6349 -0.0505 -0.0179
46873SOL    HW145430   6.121   9.114  12.394 -0.6306 -0.0182  0.1211
46873SOL    HW245431   6.024   9.036  12.480 -1.1945  2.4861  1.8618
46874SOL     OW45432  11.110   8.669   0.766  0.0076  0.5807 -0.1022
46874SOL    HW145433  11.199   8.679   0.800 -0.6336 -0.2579  1.9756
46874SOL    HW245434  11.056   8.722   0.825 -1.1251 -0.6387  0.0019
46875SOL     OW45435  11.746   8.249   3.130  0.1663 -0.1513  0.1658
46875SOL    HW145436  11.735   8.337   3.094 -0.0020 -0.6035 -0.9110
46875SOL    HW245437  11.668   8.201   3.103  0.3710 -0.7081  0.5372
46876SOL     OW45438   3.973   3.330   5.045 -0.4417 -0.2230  0.3354
46876SOL    HW145439   3.990   3.236   5.051  1.3057 -0.3174 -3.4334
46876SOL    HW245440   3.888   3.336   5.001 -1.3180  0.0818  1.9660
46877SOL     OW45441  11.869   5.601   1.921 -0.1983 -0.8783  0.5361
46877SOL    HW145442  11.950   5.610   1.871 -0.7985 -0.1729 -0.3582
46877SOL    HW245443  11.847   5.508   1.915  0.7110 -1.1377  1.0713
46878SOL     OW45444   3.864   4.029   1.543  0.3115  0.4248 -0.8721
46878SOL    HW145445   3.799   3.959   1.551  0.1064  0.6629 -0.4216
46878SOL    HW245446   3.938   3.988   1.499  0.2040 -0.0900 -0.5827
46879SOL     OW45447   3.113   1.729   3.022  0.1624 -0.3172 -0.4201
46879SOL    HW145448   3.134   1.645   2.981 -1.1186 -2.4071  2.8326
46879SOL    HW245449   3.019   1.739   3.008  0.2087  0.3041 -0.3048
46880SOL     OW45450  11.475   4.342   0.933 -0.6172  0.4288 -0.6144
46880SOL    HW145451  11.466   4.325   0.840  1.0961  3.0758 -1.3624
46880SOL    HW245452  11.429   4.424   0.948  0.2758  0.7499  0.5619
46881SOL     OW45453   7.299  10.295   0.881  0.4562 -0.4210  0.4969
46881SOL    HW145454   7.227  10.357   0.866 -0.4490 -0.9717  2.3368
46881SOL    HW245455   7.378  10.348   0.868 -0.2599  1.5952  3.4301
46882SOL     OW45456   3.498   6.445   2.936  0.2965 -0.1661  0.3435
46882SOL    HW145457   3.593   6.437   2.926  0.2988 -1.1453  1.0750
46882SOL    HW245458   3.476   6.525   2.888  1.3190 -0.5789 -0.8636
46883SOL     OW45459   1.738   8.180   8.872  0.4417 -0.0359 -0.0163
46883SOL    HW145460   1.802   8.118   8.906  0.0778 -0.2558  0.2717
46883SOL    HW245461   1.654   8.135   8.879  0.4268 -0.4248 -1.9735
46884SOL     OW45462   9.492  10.712  11.149 -0.2604 -0.0589  0.0535
46884SOL    HW145463   9.461  10.714  11.240  0.9867 -2.5486  0.6170
46884SOL    HW245464   9.414  10.696  11.097 -0.9502  1.1323  0.6737
46885SOL     OW45465   8.562   4.569   6.047 -0.2280  0.6386  0.3524
46885SOL    HW145466   8.615   4.531   5.976 -1.1194  0.3656 -0.1809
46885SOL    HW245467   8.482   4.597   6.005 -1.6265 -1.3036  1.5441
46886SOL     OW45468  10.234   4.720   3.488  0.6519 -0.1472 -0.6868
46886SOL    HW145469  10.193   4.743   3.405 -0.2080 -0.5190 -0.3787
46886SOL    HW245470  10.272   4.633   3.474  2.3186  0.6426 -1.3008
46887SOL     OW45471  12.346  11.116   2.975  0.0922 -0.4130 -0.4954
46887SOL    HW145472  12.337  11.193   3.031 -2.5205 -0.3833 -0.8285
46887SOL    HW245473  12.321  11.042   3.030  2.4858 -1.0999 -0.2063
46888SOL     OW45474   5.928   2.853  11.165 -0.6141  0.1745 -0.3343
46888SOL    HW145475   5.986   2.916  11.121  0.4881 -0.0755  0.7275
46888SOL    HW245476   5.980   2.819  11.237 -1.9990 -0.2848  0.4727
46889SOL     OW45477   6.088   7.292  10.014 -0.5060  0.3308  0.1356
46889SOL    HW145478   6.082   7.379   9.975 -2.5112  0.9327  1.6119
46889SOL    HW245479   6.118   7.235   9.942  0.2113  2.0935 -1.0243
46890SOL     OW45480   2.330   5.418   4.690  0.2598  0.1195 -0.0374
46890SOL    HW145481   2.366   5.494   4.644  0.3452  0.3157  0.3455
46890SOL    HW245482   2.252   5.451   4.734 -0.9288 -0.5139 -1.5876
46891SOL     OW45483   6.237   4.791   8.334 -0.4331  0.0140 -0.5871
46891SOL    HW145484   6.239   4.721   8.399  1.2242  0.4392 -0.1403
46891SOL    HW245485   6.199   4.750   8.256 -0.7174 -1.0094  0.0696
46892SOL     OW45486   8.068   6.032   8.050 -0.1629 -0.6871  0.4049
46892SOL    HW145487   8.035   5.953   8.094 -0.6614 -0.7045  0.0179
46892SOL    HW245488   8.004   6.100   8.073  0.3146 -0.3666  0.8124
46893SOL     OW45489   9.138   8.513  10.227  0.2319  0.0800 -0.2387
46893SOL    HW145490   9.091   8.459  10.163 -0.2063  0.6564 -0.4118
46893SOL    HW245491   9.084   8.507  10.306  1.4081 -1.6330  0.4907
46894SOL     OW45492   2.320   4.275   7.206 -0.0785  0.4379  0.7312
46894SOL    HW145493   2.227   4.262   7.227 -0.2460  0.1726 -0.1458
46894SOL    HW245494   2.356   4.187   7.201 -0.0722  0.4880 -0.2003
46895SOL     OW45495   0.223   3.303   7.453 -0.1201 -0.0119 -0.2596
46895SOL    HW145496   0.220   3.329   7.361 -1.1382 -0.2249 -0.2938
46895SOL    HW245497   0.149   3.348   7.494  0.5712  0.4129  0.5495
46896SOL     OW45498   5.717   2.508   7.937  0.2809  0.4506 -0.2917
46896SOL    HW145499   5.637   2.529   7.889 -0.3192  0.9202  0.8622
46896SOL    HW245500   5.708   2.556   8.020  0.8556 -1.0226  0.6656
46897SOL     OW45501   7.643   6.659   0.191  0.4645 -1.0736  0.0462
46897SOL    HW145502   7.723   6.677   0.143 -0.5454  0.5371 -1.1142
46897SOL    HW245503   7.590   6.606   0.131  0.5073 -1.8439  0.6706
46898SOL     OW45504   8.841   4.744   4.235  0.8457 -0.2339  0.4366
46898SOL    HW145505   8.817   4.672   4.177 -0.3848  0.5677 -0.0847
46898SOL    HW245506   8.840   4.822   4.179 -0.9847  0.6511  1.6080
46899SOL     OW45507   7.322   3.369   3.803  0.1733  0.2482 -0.3264
46899SOL    HW145508   7.384   3.440   3.785  1.3695 -1.0733 -1.6582
46899SOL    HW245509   7.286   3.347   3.717 -0.1359 -0.7927  0.0562
46900SOL     OW45510  12.002   0.118   6.286  0.6117  0.3373 -0.7810
46900SOL    HW145511  11.975   0.135   6.376  0.4216 -0.2048 -0.7333
46900SOL    HW245512  11.961   0.035   6.264  1.9512 -0.3269 -0.8364
46901SOL     OW45513   4.405   1.988  11.473  0.0502  0.2253  0.0747
46901SOL    HW145514   4.445   2.073  11.491 -0.5817  0.5403  0.0075
46901SOL    HW245515   4.477   1.926  11.482  0.7094  0.8476 -0.6931
46902SOL     OW45516  10.334   4.954   4.245 -0.0758  0.2389 -0.0278
46902SOL    HW145517  10.242   4.970   4.227 -0.2379 -0.2716  0.3431
46902SOL    HW245518  10.336   4.870   4.290  0.4279  0.9641  1.3655
46903SOL     OW45519   4.970   2.594  12.071  0.2925 -0.7629  1.1421
46903SOL    HW145520   4.955   2.604  12.164  0.3693  0.8749  1.0024
46903SOL    HW245521   5.016   2.674  12.045 -1.5148 -0.2127 -0.6628
46904SOL     OW45522  11.437   2.209   2.125  0.0888 -0.0924  0.1298
46904SOL    HW145523  11.531   2.226   2.135  0.1635  0.9786 -1.9443
46904SOL    HW245524  11.406   2.197   2.215  1.8513  1.5334  1.0430
46905SOL     OW45525   0.918  10.179  11.360 -0.1215  0.1059  0.3537
46905SOL    HW145526   0.890  10.092  11.387 -0.1138  0.0081  0.0514
46905SOL    HW245527   0.848  10.210  11.302 -0.9752  0.9967  1.7953
46906SOL     OW45528   8.491   2.155   3.890 -0.2724 -0.0851  0.8883
46906SOL    HW145529   8.583   2.159   3.864 -1.1709 -1.0501 -3.1151
46906SOL    HW245530   8.488   2.092   3.962  2.0807 -0.8402  0.3879
46907SOL     OW45531  10.274  12.280   8.772  0.2660 -0.0660 -0.1795
46907SOL    HW145532  10.221  12.274   8.693  0.1556  1.1091 -0.2097
46907SOL    HW245533  10.356  12.320   8.742  0.2783  0.2461  0.2574
46908SOL     OW45534   6.818   9.819   9.594  0.0824  0.9681  0.5582
46908SOL    HW145535   6.741   9.870   9.617 -0.8926  0.7171 -1.9084
46908SOL    HW245536   6.891   9.867   9.634 -1.2647  1.2196  2.9255
46909SOL     OW45537  10.706   1.223  10.313 -0.0735 -0.0889 -0.2593
46909SOL    HW145538  10.776   1.191  10.257  0.4803 -0.1879  0.4819
46909SOL    HW245539  10.681   1.307  10.274 -1.2573 -1.1619 -1.9758
46910SOL     OW45540   4.782  11.127   5.826 -0.0654 -0.1088 -0.0262
46910SOL    HW145541   4.776  11.082   5.742  1.4087 -1.0884  0.3568
46910SOL    HW245542   4.768  11.059   5.891  1.5049  0.0776  0.5530
46911SOL     OW45543   5.371   4.491   1.605 -0.1928  0.4176 -0.7873
46911SOL    HW145544   5.404   4.580   1.602 -0.1491  0.3742 -2.1213
46911SOL    HW245545   5.295   4.491   1.546 -0.9004 -0.1454  0.0921
46912SOL     OW45546   7.638   4.689  11.349  0.3096  0.1590 -0.1107
46912SOL    HW145547   7.543   4.697  11.354 -0.1084 -2.9490 -0.9632
46912SOL    HW245548   7.670   4.720  11.433 -1.3993  1.4830  0.0993
46913SOL     OW45549   2.046   6.310   8.802 -0.3483  0.1783 -0.0992
46913SOL    HW145550   2.004   6.227   8.779  2.1127 -0.8682 -1.1409
46913SOL    HW245551   2.048   6.359   8.720  0.5915  0.1338 -0.1108
46914SOL     OW45552   5.596   9.568   0.321 -0.3839  0.3033  0.3348
46914SOL    HW145553   5.595   9.658   0.288  0.7973  0.5080  0.7837
46914SOL    HW245554   5.516   9.561   0.374  0.3623  1.6711  1.7154
46915SOL     OW45555   8.850   9.595   8.026  0.0156 -0.4322 -0.0307
46915SOL    HW145556   8.780   9.614   7.964 -0.5319 -0.3774  0.5985
46915SOL    HW245557   8.911   9.668   8.016 -0.0841 -0.4077 -0.4796
46916SOL     OW45558   8.371   1.828   0.423 -0.2924  0.2152 -0.2574
46916SOL    HW145559   8.328   1.851   0.505 -0.4088  0.6392 -0.4344
46916SOL    HW245560   8.331   1.885   0.357  0.4390  0.5322 -0.4480
46917SOL     OW45561   9.487   1.178   7.128  0.5784  0.0995  0.2527
46917SOL    HW145562   9.575   1.175   7.166  0.8964  1.5399 -0.3137
46917SOL    HW245563   9.448   1.094   7.151  2.1239 -0.5835  0.4841
46918SOL     OW45564   1.240   1.775   1.652  0.5471  0.1463 -0.0721
46918SOL    HW145565   1.189   1.711   1.701  0.6418  0.1513  0.0341
46918SOL    HW245566   1.230   1.857   1.701  0.6224  0.1566 -0.0732
46919SOL     OW45567   0.581  10.273  11.738 -0.0070  0.2662 -1.0930
46919SOL    HW145568   0.544  10.190  11.769 -1.2339  1.0180 -0.4658
46919SOL    HW245569   0.513  10.309  11.682  0.7379  0.6164 -1.7815
46920SOL     OW45570   9.464   8.858  12.614 -0.1638 -0.7290 -0.1439
46920SOL    HW145571   9.445   8.785  12.556  0.2588 -0.8685 -0.1129
46920SOL    HW245572   9.547   8.893  12.582 -0.7689  0.2633 -0.6722
46921SOL     OW45573   2.814   7.154   3.177 -0.5424 -0.2530  0.4718
46921SOL    HW145574   2.736   7.127   3.128 -0.4051  1.2681 -0.6260
46921SOL    HW245575   2.886   7.144   3.115 -0.4279  2.1637  0.1263
46922SOL     OW45576   7.320  12.245   2.440 -0.8705 -0.1677 -0.5305
46922SOL    HW145577   7.349  12.157   2.465 -1.4035 -0.5471 -1.1958
46922SOL    HW245578   7.366  12.263   2.358  0.4477  0.8405  0.3793
46923SOL     OW45579  10.978   6.757   2.379 -0.1689  0.7648 -0.2067
46923SOL    HW145580  10.960   6.839   2.334  0.4612  0.5172 -0.9441
46923SOL    HW245581  10.899   6.705   2.368  0.3518  0.2835 -2.0255
46924SOL     OW45582   0.500   6.232   6.546  0.4271 -0.0478 -0.0833
46924SOL    HW145583   0.464   6.204   6.462 -2.8746  0.1887  1.1192
46924SOL    HW245584   0.513   6.150   6.595  0.3074 -0.0591 -0.0709
46925SOL     OW45585   0.322   0.815   2.638 -0.1882 -0.1225  0.6500
46925SOL    HW145586   0.378   0.862   2.700  0.1894  0.0660  0.1755
46925SOL    HW245587   0.233   0.829   2.671  0.0855 -1.4045  2.0853
46926SOL     OW45588   3.576   3.247   9.059  0.1583 -0.4950  0.0337
46926SOL    HW145589   3.651   3.195   9.030 -0.7974 -1.5411 -0.7134
46926SOL    HW245590   3.609   3.336   9.066  1.2617 -0.7742 -1.1286
46927SOL     OW45591   1.890   2.200  11.196  0.1108  0.4083  0.2663
46927SOL    HW145592   1.801   2.184  11.164 -0.1822 -1.9703  2.0132
46927SOL    HW245593   1.947   2.167  11.127 -0.4352 -0.3476  0.1602
46928SOL     OW45594   5.080   8.698   3.917  0.2204  0.1950 -0.2306
46928SOL    HW145595   5.118   8.613   3.940 -2.6014 -1.1063  0.0529
46928SOL    HW245596   5.149   8.744   3.870  2.3201 -1.6698  0.8706
46929SOL     OW45597   9.909   8.688  11.053 -0.2291  0.3791  0.3419
46929SOL    HW145598   9.994   8.664  11.091 -1.4458 -2.4184  1.5700
46929SOL    HW245599   9.905   8.783  11.062  2.7997  0.6351  0.1062
46930SOL     OW45600   8.456  10.537   0.492 -0.1364  0.2385 -0.1594
46930SOL    HW145601   8.446  10.567   0.582 -2.8447 -1.0886  0.0661
46930SOL    HW245602   8.545  10.502   0.488  0.1497  0.6181  1.8751
46931SOL     OW45603   0.756   2.396   2.089  0.1182 -0.1005  0.0968
46931SOL    HW145604   0.679   2.370   2.038  0.5563 -0.1116 -0.5790
46931SOL    HW245605   0.826   2.338   2.057  0.2578 -0.5485  1.1816
46932SOL     OW45606   4.676   9.712   8.797  0.4443 -0.2461 -0.4268
46932SOL    HW145607   4.746   9.776   8.781 -0.6525  0.7592 -1.3938
46932SOL    HW245608   4.675   9.702   8.892  1.9559 -0.3692 -0.3968
46933SOL     OW45609   8.847   5.805   3.552  0.4077  0.0136 -0.3403
46933SOL    HW145610   8.842   5.834   3.643 -1.2930  2.1751 -1.0486
46933SOL    HW245611   8.763   5.764   3.535 -0.2192  1.6828 -1.5267
46934SOL     OW45612  11.676   5.827   3.065  0.5613  0.2506  0.1144
46934SOL    HW145613  11.639   5.916   3.068  1.2518  0.5438  0.2399
46934SOL    HW245614  11.683   5.808   2.971  1.7370  0.9196  0.0346
46935SOL     OW45615   7.269   2.887   2.884 -0.1299  0.1101 -0.5288
46935SOL    HW145616   7.287   2.970   2.839 -1.9136  0.5219 -0.5679
46935SOL    HW245617   7.220   2.913   2.963 -0.4056 -0.8857 -0.3582
46936SOL     OW45618   1.229   8.048   8.687  0.5886  0.1557 -0.1052
46936SOL    HW145619   1.280   8.129   8.684  0.5536  0.2405  1.1213
46936SOL    HW245620   1.189   8.047   8.774 -0.8345 -0.3245 -0.7269
46937SOL     OW45621   1.045  10.103   0.986 -0.6010 -0.7422 -0.4457
46937SOL    HW145622   1.032  10.107   1.080 -1.9794 -2.5156 -0.5064
46937SOL    HW245623   0.959  10.079   0.951 -0.0967 -0.2068 -2.1487
46938SOL     OW45624   0.537   6.488   2.180  0.6646 -0.2195 -0.1927
46938SOL    HW145625   0.562   6.518   2.268  0.0210 -1.0031  0.2763
46938SOL    HW245626   0.565   6.558   2.122  0.8852  0.4287  0.6706
46939SOL     OW45627   1.188   1.074   9.366 -0.4220  0.6354 -0.5708
46939SOL    HW145628   1.224   1.151   9.410  1.8910 -1.2720  1.1175
46939SOL    HW245629   1.169   1.013   9.437 -0.8565 -0.8720 -1.9404
46940SOL     OW45630   5.411   2.865   9.863  0.0107  0.3860  0.6573
46940SOL    HW145631   5.447   2.903   9.783 -0.3912  0.3195  0.4415
46940SOL    HW245632   5.346   2.929   9.892 -0.0953  0.2412  0.7389
46941SOL     OW45633  10.864   6.437   7.205 -0.1919 -0.2869 -0.0120
46941SOL    HW145634  10.923   6.367   7.235  0.5205  0.8972  1.4684
46941SOL    HW245635  10.920   6.499   7.161 -1.0168 -1.2159 -2.5278
46942SOL     OW45636   4.785   6.464   0.968 -0.1429  0.5143  0.0577
46942SOL    HW145637   4.731   6.419   0.903  1.0826 -0.0013 -0.6398
46942SOL    HW245638   4.764   6.421   1.051  0.3259 -0.7420 -0.4533
46943SOL     OW45639   5.997  12.128   1.261  0.0359  0.5768 -0.1400
46943SOL    HW145640   5.977  12.050   1.209 -0.4717  0.9224 -0.4780
46943SOL    HW245641   6.092  12.129   1.269 -0.0353 -1.1953  1.5995
46944SOL     OW45642   9.125   2.892   7.350  0.2742 -0.2437 -0.0561
46944SOL    HW145643   9.093   2.982   7.352 -1.3109 -0.7677  1.1087
46944SOL    HW245644   9.064   2.847   7.291  1.9728 -0.3011 -1.8833
46945SOL     OW45645   6.739  12.123   8.613 -0.2623 -0.5793 -0.2829
46945SOL    HW145646   6.719  12.080   8.696 -0.2068 -0.8405 -0.4035
46945SOL    HW245647   6.834  12.125   8.609 -0.2633 -0.3030 -0.2073
46946SOL     OW45648   1.526   7.769  11.620 -0.0151  0.4664 -0.2746
46946SOL    HW145649   1.608   7.817  11.634  0.3834 -0.3946  0.4764
46946SOL    HW245650   1.541   7.721  11.538 -0.7683  2.2742 -1.5534
46947SOL     OW45651   1.048   8.497   7.424  0.4308 -0.7699 -0.5893
46947SOL    HW145652   0.997   8.576   7.407  0.3892 -0.6512  0.0884
46947SOL    HW245653   1.052   8.453   7.339 -0.6355 -0.6822 -0.6997
46948SOL     OW45654   2.534   6.441   5.409  0.0443 -0.3086 -0.3935
46948SOL    HW145655   2.472   6.431   5.336  1.0226 -1.3963 -1.1087
46948SOL    HW245656   2.555   6.352   5.435  0.1629  0.0630  0.8674
46949SOL     OW45657  10.112   8.850   1.609  0.1815  0.1888 -0.1281
46949SOL    HW145658  10.155   8.931   1.638  0.3455 -0.4826  1.6424
46949SOL    HW245659  10.181   8.784   1.610 -0.0882 -0.1137 -0.9353
46950SOL     OW45660   5.710   4.452   6.979 -0.4176  0.0088  0.0205
46950SOL    HW145661   5.754   4.481   7.059 -0.8747  0.3437  0.1627
46950SOL    HW245662   5.637   4.514   6.969 -1.6322 -1.2798  0.5177
46951SOL     OW45663   7.532   5.196   0.678 -0.3948  0.0116 -0.2299
46951SOL    HW145664   7.470   5.264   0.653  1.3840  1.6744 -0.2978
46951SOL    HW245665   7.495   5.116   0.640 -3.0079  0.6978  0.6282
46952SOL     OW45666   5.128   0.813   4.374  0.5972 -0.1321 -0.1864
46952SOL    HW145667   5.203   0.843   4.426  0.1708 -0.3703  0.5848
46952SOL    HW245668   5.051   0.845   4.422  0.1972  0.6324 -1.2827
46953SOL     OW45669   1.092  11.630   1.182 -0.0356 -0.5690 -0.6276
46953SOL    HW145670   1.097  11.662   1.272  2.7498 -1.3496 -0.4240
46953SOL    HW245671   1.067  11.707   1.131  1.9188  0.8636  0.4134
46954SOL     OW45672   6.129   7.345  12.446 -0.4457 -0.7482 -0.3652
46954SOL    HW145673   6.071   7.420  12.433 -2.8256 -2.3848  0.1308
46954SOL    HW245674   6.208   7.383  12.484 -1.6952  1.4805  0.2430
46955SOL     OW45675   0.653   2.317   1.729  0.3143 -0.1915 -0.0481
46955SOL    HW145676   0.695   2.273   1.655  0.5622 -1.6215  0.9123
46955SOL    HW245677   0.586   2.255   1.759  0.1589  0.4094  0.8828
46956SOL     OW45678   3.655  11.007  11.694 -0.2258  0.4152 -0.1224
46956SOL    HW145679   3.699  11.074  11.746 -0.9121 -0.3706  1.5679
46956SOL    HW245680   3.720  10.978  11.631  0.8269  1.0572  0.6396
46957SOL     OW45681   1.561   8.554   4.608 -0.0948  0.2692 -0.1251
46957SOL    HW145682   1.506   8.593   4.676 -1.0792 -1.3033  0.0228
46957SOL    HW245683   1.506   8.558   4.529  0.0039 -0.3220 -0.2235
46958SOL     OW45684   5.570   5.192   3.246  0.0506 -0.5726  0.3539
46958SOL    HW145685   5.497   5.253   3.236 -0.5278 -1.4946 -1.5451
46958SOL    HW245686   5.627   5.212   3.172 -0.0470 -2.1588 -0.1800
46959SOL     OW45687   8.072   1.726  12.152  0.1229  0.3552  0.0561
46959SOL    HW145688   8.089   1.706  12.244 -0.8739 -1.7730 -0.1680
46959SOL    HW245689   7.997   1.672  12.129  0.1680  1.0664 -1.9447
46960SOL     OW45690  12.060   3.518   9.750 -0.6262 -0.8258 -0.9152
46960SOL    HW145691  12.120   3.563   9.811 -1.2436 -0.2391 -0.7272
46960SOL    HW245692  12.113   3.449   9.711  0.2289 -0.2008 -0.8860
46961SOL     OW45693   5.718  12.261   6.014  0.1273  0.3103 -0.1242
46961SOL    HW145694   5.727  12.343   5.965  0.5443  0.0867 -0.4316
46961SOL    HW245695   5.801  12.252   6.061  0.9614 -0.9809 -1.7365
46962SOL     OW45696  12.169   4.388  10.302 -0.2236  0.1871 -0.1664
46962SOL    HW145697  12.091   4.341  10.328  0.0581 -1.3616 -1.9171
46962SOL    HW245698  12.146   4.428  10.218  1.0872 -1.0793 -1.1892
46963SOL     OW45699   6.406   9.022   0.059 -0.3627  0.3341 -0.1864
46963SOL    HW145700   6.351   9.100   0.055  1.9404  2.0097 -1.6001
46963SOL    HW245701   6.409   9.000   0.152 -1.9524  1.2484  0.1203
46964SOL     OW45702   2.603   3.259   4.287 -0.0330  0.2099 -0.3309
46964SOL    HW145703   2.601   3.351   4.314 -2.5911  1.1845 -3.2632
46964SOL    HW245704   2.521   3.222   4.320 -0.0848 -0.3912 -1.1079
46965SOL     OW45705  11.027   0.271   1.479 -0.1557  0.2057 -0.7585
46965SOL    HW145706  11.090   0.200   1.468  0.8837  1.0637 -0.5955
46965SOL    HW245707  10.956   0.234   1.530 -0.0966 -0.9708 -1.4992
46966SOL     OW45708  11.599  10.506   2.297  0.1988 -0.4225 -0.0262
46966SOL    HW145709  11.604  10.496   2.202  1.7904  3.1186 -0.4827
46966SOL    HW245710  11.506  10.495   2.317 -0.6446  1.2959 -2.4543
46967SOL     OW45711   5.138  11.735  10.197 -0.1029 -0.2072 -0.3103
46967SOL    HW145712   5.187  11.817  10.198  0.0353 -0.2844 -0.5478
46967SOL    HW245713   5.046  11.762  10.202 -0.0660 -0.0290 -0.5710
46968SOL     OW45714   3.099   5.321   8.971 -0.4499  0.0753 -0.2488
46968SOL    HW145715   3.054   5.360   9.045 -0.3874  1.3111 -0.8373
46968SOL    HW245716   3.041   5.335   8.896 -0.0784 -0.2903 -0.6161
46969SOL     OW45717   4.645   5.253   5.581  0.6101  0.3054 -0.1764
46969SOL    HW145718   4.654   5.313   5.655 -0.4675  1.4176 -0.9010
46969SOL    HW245719   4.661   5.166   5.618  0.6590  0.8964  1.2322
46970SOL     OW45720   6.229   8.196   7.618 -0.4983  0.7392  0.1737
46970SOL    HW145721   6.281   8.118   7.641 -0.7900 -0.2458 -2.2472
46970SOL    HW245722   6.294   8.263   7.599 -0.2160  0.6974  0.9449
46971SOL     OW45723   2.289   1.619   2.232  0.2755 -0.0635 -0.3137
46971SOL    HW145724   2.357   1.575   2.284 -0.3595 -0.9333 -0.2134
46971SOL    HW245725   2.276   1.562   2.157  0.4746  0.6960 -0.9363
46972SOL     OW45726   5.172   9.547   9.733 -0.1195  0.4651 -0.2155
46972SOL    HW145727   5.181   9.468   9.786  1.1816  0.6990 -0.0657
46972SOL    HW245728   5.260   9.564   9.700 -0.0314  2.6957  0.9895
46973SOL     OW45729   0.343   0.004   4.276  0.0907  0.2869  0.2631
46973SOL    HW145730   0.337  -0.052   4.354 -0.0004  1.7131  1.3160
46973SOL    HW245731   0.345  -0.058   4.203 -1.7728 -1.0650  1.2529
46974SOL     OW45732   1.017  11.000   8.446 -0.5573  0.5698  0.1351
46974SOL    HW145733   1.012  10.910   8.414  1.5665 -0.2169  1.7706
46974SOL    HW245734   0.926  11.026   8.457 -1.3735  0.0875 -4.0144
46975SOL     OW45735   1.309   2.117  11.193  0.3401  0.6564  0.5695
46975SOL    HW145736   1.243   2.064  11.238  0.0041  0.4422 -0.1641
46975SOL    HW245737   1.267   2.201  11.178  0.1364  0.4362 -0.1249
46976SOL     OW45738  10.345   9.275  10.110  0.0118 -0.0589 -0.1479
46976SOL    HW145739  10.397   9.282  10.189  0.1372  1.2905 -0.3398
46976SOL    HW245740  10.254   9.279  10.140  0.0181 -1.1291  0.0605
46977SOL     OW45741   4.871   0.675  10.106 -0.4609  0.1589  0.1126
46977SOL    HW145742   4.929   0.678  10.031  0.3342 -0.0069  0.7092
46977SOL    HW245743   4.812   0.602  10.089  0.1033 -0.2571 -0.0656
46978SOL     OW45744   6.835  10.328   1.101  0.2650  0.2237 -0.5085
46978SOL    HW145745   6.855  10.385   1.027 -0.4967  0.6025 -0.4304
46978SOL    HW245746   6.759  10.277   1.073 -1.8295  2.3139  0.9486
46979SOL     OW45747   6.169   1.209   2.381  0.3389  0.0046  0.2720
46979SOL    HW145748   6.111   1.140   2.412  2.0933 -0.9298  1.6811
46979SOL    HW245749   6.256   1.182   2.410  1.3889  1.7194 -1.0846
46980SOL     OW45750  11.997   8.631   9.448 -0.0314  0.1920 -0.2154
46980SOL    HW145751  12.010   8.685   9.370 -1.0815 -0.0093 -0.5424
46980SOL    HW245752  12.029   8.685   9.520  2.0729 -0.0540 -0.8718
46981SOL     OW45753   4.535   0.372   8.394  0.3532 -0.4584 -0.6350
46981SOL    HW145754   4.540   0.332   8.308  2.2374  1.3757 -1.4873
46981SOL    HW245755   4.575   0.459   8.382 -1.2431  0.6938  1.6134
46982SOL     OW45756   3.827   7.427   9.864 -0.4266  0.4105 -0.2330
46982SOL    HW145757   3.798   7.518   9.861 -1.1793  0.1703 -0.5875
46982SOL    HW245758   3.897   7.426   9.930 -2.5030  0.6842  2.1558
46983SOL     OW45759   4.624   2.075   3.835 -0.2270 -0.3268 -0.4379
46983SOL    HW145760   4.538   2.088   3.876 -0.1888 -0.2141 -0.3919
46983SOL    HW245761   4.610   2.092   3.742 -0.1450  0.2130 -0.3578
46984SOL     OW45762  12.411   7.860   3.280  0.2729  0.4677  0.3392
46984SOL    HW145763  12.503   7.874   3.302 -0.5523  2.1714  3.2203
46984SOL    HW245764  12.382   7.791   3.340 -0.7944  1.4145  0.9508
46985SOL     OW45765   3.377  12.212   3.533  0.5536  0.0687 -0.2974
46985SOL    HW145766   3.348  12.301   3.556 -2.1171  0.0217 -2.7880
46985SOL    HW245767   3.319  12.155   3.583  0.7626 -0.2104 -0.3770
46986SOL     OW45768  12.228  11.056   3.902  0.3898  0.2384 -0.2522
46986SOL    HW145769  12.135  11.040   3.919 -0.4917  2.1721 -2.6292
46986SOL    HW245770  12.269  11.055   3.988 -1.6092 -1.7066  0.7845
46987SOL     OW45771   1.530   5.787   3.370  0.2402 -0.2023  0.0585
46987SOL    HW145772   1.540   5.873   3.409  1.2710 -0.3032  0.0333
46987SOL    HW245773   1.604   5.736   3.403 -0.0860 -0.9388 -0.3086
46988SOL     OW45774   8.539  12.052   9.691  0.5207 -0.0082 -0.5213
46988SOL    HW145775   8.473  12.116   9.717  0.4428 -0.8197  1.4646
46988SOL    HW245776   8.499  12.005   9.617 -0.3760  0.6604 -0.4840
46989SOL     OW45777   0.822  12.460  10.064 -0.2771 -0.5011  0.1424
46989SOL    HW145778   0.822  12.374  10.021 -0.1055 -1.0371  1.1791
46989SOL    HW245779   0.768  12.447  10.142  0.1427  0.2051  0.5591
46990SOL     OW45780   0.951   5.393   8.443 -0.5369 -0.1535 -0.9983
46990SOL    HW145781   0.916   5.452   8.376  1.3228  1.2442 -0.8144
46990SOL    HW245782   1.045   5.410   8.443 -0.3336 -1.0385  1.1050
46991SOL     OW45783  12.037   0.223  12.524 -0.1697  0.3369  0.4201
46991SOL    HW145784  12.068   0.153  12.466 -0.9882 -0.5694  1.0514
46991SOL    HW245785  12.015   0.295  12.464  0.3104 -0.0748 -0.2674
46992SOL     OW45786   4.888   4.353  10.557  0.1649 -0.6902  0.4001
46992SOL    HW145787   4.838   4.299  10.495 -1.8886 -0.1529  1.4856
46992SOL    HW245788   4.846   4.336  10.642  1.0165  0.7971  1.1568
46993SOL     OW45789   6.450   3.001   0.680  0.0053  0.0610 -0.3007
46993SOL    HW145790   6.443   2.949   0.760 -0.7084 -1.2621 -1.1763
46993SOL    HW245791   6.512   3.070   0.701 -0.8238  0.2619  1.6595
46994SOL     OW45792   0.917  12.220   9.991  0.2249  0.3206  0.0532
46994SOL    HW145793   0.969  12.198  10.068 -0.2647  1.1954  0.6571
46994SOL    HW245794   0.874  12.138   9.966 -0.7399  0.3198  1.5939
46995SOL     OW45795   2.890   0.908   8.243 -0.0177  0.4550 -0.3008
46995SOL    HW145796   2.984   0.905   8.224  0.1104  2.0364 -0.0081
46995SOL    HW245797   2.861   0.992   8.209 -1.7427 -0.7444 -2.0396
46996SOL     OW45798   7.109   4.405   1.635 -0.1127 -0.1920  0.6623
46996SOL    HW145799   7.060   4.323   1.627 -0.7806  0.2648 -0.1111
46996SOL    HW245800   7.055   4.470   1.589  0.4136  0.6777  1.2403
46997SOL     OW45801  12.353   3.852   1.788 -0.0966 -0.2818 -0.9381
46997SOL    HW145802  12.322   3.925   1.734 -0.4313  0.7037  0.5384
46997SOL    HW245803  12.293   3.850   1.862  1.6338 -0.1863  0.5259
46998SOL     OW45804   1.425   7.865   0.502 -0.1634  0.5365  0.6206
46998SOL    HW145805   1.487   7.933   0.477 -0.0154  0.2101  0.0877
46998SOL    HW245806   1.389   7.896   0.586  0.0671  1.1533  0.5018
46999SOL     OW45807   8.221   3.936   2.447 -0.7079  0.1849 -0.4059
46999SOL    HW145808   8.125   3.935   2.450 -0.6825 -0.2081  1.2484
46999SOL    HW245809   8.245   4.021   2.481 -0.4522  0.2448 -0.7307
47000SOL     OW45810   1.454   0.052   2.967  0.7564 -0.1745 -0.6168
47000SOL    HW145811   1.532   0.010   2.932  0.0075 -1.6420 -0.6115
47000SOL    HW245812   1.384  -0.012   2.952  0.3602 -1.0566  3.5638
47001SOL     OW45813   4.899   4.068   7.710  0.0744 -0.2263 -0.3068
47001SOL    HW145814   4.827   4.120   7.747 -0.4814 -1.9021  1.1125
47001SOL    HW245815   4.897   3.986   7.760  1.7860 -1.0659 -1.5304
47002SOL     OW45816   6.770   6.157   0.064  0.1280 -0.2416  0.1820
47002SOL    HW145817   6.854   6.118   0.091 -0.3033 -0.8078  0.7367
47002SOL    HW245818   6.704   6.091   0.088 -0.4571  0.1020 -0.4605
47003SOL     OW45819   5.854   8.497   3.221  0.1012 -0.3015  0.1420
47003SOL    HW145820   5.862   8.529   3.311  0.8443 -0.1993  0.0440
47003SOL    HW245821   5.807   8.566   3.175 -0.2114 -0.3189  0.4368
47004SOL     OW45822  11.961   5.575   2.454  0.5844 -0.2356 -0.1040
47004SOL    HW145823  12.031   5.567   2.389  2.1006 -0.0350  1.4265
47004SOL    HW245824  11.985   5.513   2.523  0.2982  1.1911  1.3388
47005SOL     OW45825   0.054   8.535   9.154  0.1840 -0.0564 -0.1906
47005SOL    HW145826   0.147   8.538   9.132  0.2501 -0.1357  0.0718
47005SOL    HW245827   0.042   8.451   9.197  0.4138  0.7717  1.5867
47006SOL     OW45828   3.467   2.883   2.060  0.0113 -0.1079  0.1682
47006SOL    HW145829   3.561   2.882   2.048 -0.0055  1.8256 -0.5507
47006SOL    HW245830   3.454   2.853   2.150  1.3671  0.1846  0.4853
47007SOL     OW45831   4.380   5.591   1.897  0.0114 -0.6946 -0.1042
47007SOL    HW145832   4.407   5.504   1.868 -1.0634 -1.5074  1.1719
47007SOL    HW245833   4.444   5.614   1.965 -1.2715 -1.7598  1.5356
47008SOL     OW45834   3.623   8.881  10.794 -0.5431  0.5786  0.2816
47008SOL    HW145835   3.555   8.928  10.746  0.0469  0.1849 -0.9687
47008SOL    HW245836   3.574   8.826  10.856 -1.4155 -0.1451 -0.9971
47009SOL     OW45837   2.297   9.276   2.769  0.2492 -0.1855  0.7135
47009SOL    HW145838   2.254   9.334   2.833 -1.0917  0.7435 -0.9494
47009SOL    HW245839   2.268   9.188   2.795  0.0924  0.1246  1.6504
47010SOL     OW45840   0.146   6.704   2.144 -0.1735 -0.1063  0.1842
47010SOL    HW145841   0.208   6.756   2.093 -1.6155  1.2497 -0.2412
47010SOL    HW245842   0.126   6.629   2.088  2.4997 -1.6614  1.1091
47011SOL     OW45843  11.612   6.859  11.389  0.1747 -0.0934 -0.3968
47011SOL    HW145844  11.532   6.897  11.425 -1.9099 -2.9375 -1.6801
47011SOL    HW245845  11.669   6.935  11.374 -1.6562  1.9114  1.9003
47012SOL     OW45846  10.304   1.015   3.061  0.0329 -0.2756 -0.0027
47012SOL    HW145847  10.275   0.930   3.093  0.4344 -0.1228  0.7992
47012SOL    HW245848  10.291   1.074   3.136 -0.9958  0.5357 -0.7951
47013SOL     OW45849   2.371   4.149   2.249  0.4981  0.5730  0.6091
47013SOL    HW145850   2.403   4.100   2.173  1.5886  2.5051 -0.2461
47013SOL    HW245851   2.276   4.137   2.246  0.7182 -1.4327  0.4376
47014SOL     OW45852   9.488   5.430   6.181  0.5457 -0.1807 -0.2900
47014SOL    HW145853   9.395   5.421   6.202  0.3208 -0.1909 -1.2606
47014SOL    HW245854   9.528   5.453   6.265  0.2839 -3.9421  1.0553
47015SOL     OW45855   3.116   1.770  11.322  0.3446 -0.7300  0.1953
47015SOL    HW145856   3.198   1.726  11.299 -0.3446 -1.5902 -0.7039
47015SOL    HW245857   3.073   1.711  11.383  0.2463 -0.4218  0.4299
47016SOL     OW45858   9.426   4.233   7.840  0.2991 -0.5232  0.2033
47016SOL    HW145859   9.382   4.157   7.877  0.4202 -0.4039  0.6011
47016SOL    HW245860   9.483   4.264   7.911 -0.3567  0.4229  0.3451
47017SOL     OW45861   7.932  10.832   3.602 -0.1576  0.4849 -0.1470
47017SOL    HW145862   7.875  10.880   3.541 -2.2454 -0.6752  0.7938
47017SOL    HW245863   7.872  10.779   3.654  1.8883 -1.6312  0.2094
47018SOL     OW45864   7.944   1.631   9.794 -0.2189 -0.0837  0.2032
47018SOL    HW145865   7.993   1.569   9.849  0.1910  0.0056 -0.0635
47018SOL    HW245866   7.890   1.680   9.857  0.1722 -0.0512  0.5204
47019SOL     OW45867   2.649   9.582   4.159 -0.0460  0.7088 -0.0202
47019SOL    HW145868   2.564   9.620   4.183 -1.8293 -1.2996 -2.4796
47019SOL    HW245869   2.644   9.491   4.189  0.5933  0.1669 -1.4209
47020SOL     OW45870   0.546   0.422   1.848  0.8250 -0.3241  0.5378
47020SOL    HW145871   0.635   0.458   1.841  0.6916 -0.2573 -1.2225
47020SOL    HW245872   0.532   0.413   1.942  1.5196  2.5799  1.0203
47021SOL     OW45873  12.353  12.270   0.166  0.4733 -0.1805 -0.5360
47021SOL    HW145874  12.432  12.292   0.215  0.4934  0.3818 -0.8178
47021SOL    HW245875  12.337  12.345   0.110 -0.5124 -0.0906 -0.1595
47022SOL     OW45876   6.373   3.644   7.982  0.3797  0.1559 -0.5100
47022SOL    HW145877   6.400   3.553   7.996 -0.9022 -0.3031 -0.9238
47022SOL    HW245878   6.293   3.638   7.930 -0.9521  1.4203  1.2817
47023SOL     OW45879  11.884   8.214   0.050 -0.0523 -0.2505  0.0189
47023SOL    HW145880  11.792   8.225   0.026 -0.6093 -2.2566  1.0452
47023SOL    HW245881  11.883   8.200   0.145  1.5065  1.3536  0.3353
47024SOL     OW45882   8.047   8.865   7.807 -0.0073 -0.2598 -0.1176
47024SOL    HW145883   8.020   8.855   7.898 -1.1463 -0.4217 -0.4592
47024SOL    HW245884   7.981   8.818   7.757 -0.4959  1.4311 -1.1628
47025SOL     OW45885   8.526  10.239  12.589  0.0829  0.1847 -0.1725
47025SOL    HW145886   8.483  10.316  12.550  0.8274 -0.1900 -1.8430
47025SOL    HW245887   8.620  10.256  12.579  0.3451  0.2963  2.0262
47026SOL     OW45888  11.440   8.179   1.037 -0.2357 -0.0855 -0.1762
47026SOL    HW145889  11.499   8.241   0.994  0.0236  0.1000  0.4330
47026SOL    HW245890  11.457   8.096   0.994 -1.1574  0.4017 -1.5652
47027SOL     OW45891  10.382   9.325   6.637  0.1425  0.0563 -0.2032
47027SOL    HW145892  10.361   9.271   6.561  0.6787 -1.1020  0.4489
47027SOL    HW245893  10.356   9.414   6.611 -4.1364 -0.9073 -0.0404
47028SOL     OW45894   7.383   5.258   4.235 -0.3781 -0.3737 -0.1905
47028SOL    HW145895   7.375   5.164   4.248  0.5917 -0.4737 -0.2773
47028SOL    HW245896   7.339   5.275   4.152 -0.8097 -0.7044 -0.0306
47029SOL     OW45897   7.998   6.482  10.309 -0.0575  0.3881 -0.0183
47029SOL    HW145898   7.951   6.491  10.226 -2.4525  1.0465  1.2967
47029SOL    HW245899   8.009   6.571  10.340  0.2199  0.1217  0.6738
47030SOL     OW45900   0.296   8.687   8.179 -0.1458  0.1974 -0.0977
47030SOL    HW145901   0.302   8.721   8.089 -0.0915  0.0112 -0.1642
47030SOL    HW245902   0.369   8.626   8.187 -0.4315 -0.1439 -0.0814
47031SOL     OW45903   4.702   3.020  12.035  0.0488  0.0426  0.2452
47031SOL    HW145904   4.640   2.961  11.993  1.6880 -0.4582 -1.6331
47031SOL    HW245905   4.741   3.069  11.963  0.3719  1.8161  1.5613
47032SOL     OW45906   3.869  10.016   3.998  0.0299  0.4927 -0.1737
47032SOL    HW145907   3.942   9.993   4.055  1.2212  1.4625 -1.2210
47032SOL    HW245908   3.896  10.099   3.958  0.9961 -1.7465 -4.8471
47033SOL     OW45909   0.418  10.904   9.132  0.2943 -0.2399 -0.2133
47033SOL    HW145910   0.336  10.931   9.092  0.8002 -0.8986 -1.7876
47033SOL    HW245911   0.393  10.841   9.199 -0.6371  1.5158  1.1703
47034SOL     OW45912   9.091  11.520   1.907 -0.0907  0.1350 -0.2130
47034SOL    HW145913   9.134  11.464   1.842  0.9456  0.8629 -0.1707
47034SOL    HW245914   9.094  11.468   1.988  0.0911 -0.1007 -0.3678
47035SOL     OW45915   3.924  11.851   2.290  0.4433  0.0455 -0.1441
47035SOL    HW145916   3.982  11.775   2.292  0.6950  0.2536  0.5200
47035SOL    HW245917   3.970  11.914   2.235  2.0089  1.1255  2.2949
47036SOL     OW45918   7.581   6.354   5.146 -0.9466  0.1012 -0.3516
47036SOL    HW145919   7.651   6.411   5.179  1.2034 -2.2148 -0.6142
47036SOL    HW245920   7.586   6.362   5.051 -2.1815  1.1512 -0.3525
47037SOL     OW45921   1.625   0.202   9.581 -0.2877 -0.8724  0.1621
47037SOL    HW145922   1.533   0.174   9.579 -1.6994  3.2386 -1.0009
47037SOL    HW245923   1.635   0.247   9.665 -0.2596  1.1570 -0.8762
47038SOL     OW45924   6.167  11.822   2.472 -0.0540 -0.0418  0.2525
47038SOL    HW145925   6.243  11.864   2.432  0.9078 -0.4031  1.6291
47038SOL    HW245926   6.145  11.878   2.547 -0.2249 -0.7177  0.7127
47039SOL     OW45927   7.332   2.057   8.853  0.3588 -0.6097  0.8928
47039SOL    HW145928   7.388   2.028   8.781 -1.1024  1.2339 -1.1243
47039SOL    HW245929   7.355   2.149   8.865 -1.3752 -0.1360  0.8134
47040SOL     OW45930  11.318   8.809   7.509  0.2241  0.2650 -0.2701
47040SOL    HW145931  11.281   8.858   7.435 -0.3535 -0.2449 -0.3247
47040SOL    HW245932  11.368   8.874   7.558 -1.3233  1.1474  0.2064
47041SOL     OW45933   6.104  10.270   8.761  0.3477  0.0024 -0.0463
47041SOL    HW145934   6.042  10.212   8.805  0.4619  0.4204  0.6664
47041SOL    HW245935   6.179  10.276   8.820  1.0182 -0.3818 -0.8317
47042SOL     OW45936  10.416   4.921   4.685 -0.5103  0.0499  0.3819
47042SOL    HW145937  10.473   4.879   4.749 -1.9226  0.2054  1.8171
47042SOL    HW245938  10.432   5.014   4.696 -1.8744  0.1692  1.6862
47043SOL     OW45939   2.496   8.991   4.177 -0.1584  0.4765 -0.4107
47043SOL    HW145940   2.503   8.923   4.110  2.0888 -0.0505  0.2430
47043SOL    HW245941   2.410   8.979   4.215  0.0720 -1.9041 -0.4689
47044SOL     OW45942   5.587   0.884  11.455 -0.0589  0.1565  0.2502
47044SOL    HW145943   5.649   0.814  11.473 -0.2338  0.0055  0.2737
47044SOL    HW245944   5.528   0.884  11.530  0.8058  1.2947  0.9488
47045SOL     OW45945   1.627  10.577   1.694  0.4711 -0.1699 -0.3591
47045SOL    HW145946   1.721  10.593   1.699  0.1935  1.5544  0.1997
47045SOL    HW245947   1.590  10.664   1.679 -1.1269 -0.6162  0.8093
47046SOL     OW45948   9.388   5.005   3.030 -0.6739  0.5296 -0.3233
47046SOL    HW145949   9.304   5.048   3.017 -1.3753 -0.7874 -0.2569
47046SOL    HW245950   9.379   4.919   2.989  0.4853  0.1949  0.0689
47047SOL     OW45951  12.131  12.192   9.446  0.4572  0.0392  0.0187
47047SOL    HW145952  12.083  12.233   9.518 -0.5773 -0.6442 -0.2547
47047SOL    HW245953  12.126  12.255   9.375 -1.7302 -0.7508 -0.6299
47048SOL     OW45954  11.380  12.647   5.383 -0.1667 -0.0748 -0.1337
47048SOL    HW145955  11.362  12.706   5.309  1.4622  0.9850  0.2620
47048SOL    HW245956  11.359  12.699   5.460  0.4337 -0.3231  0.2003
47049SOL     OW45957   4.330   6.114   9.524 -0.1906  0.4558 -0.5011
47049SOL    HW145958   4.415   6.154   9.508 -0.0305 -0.6103 -2.6544
47049SOL    HW245959   4.348   6.020   9.522 -1.4847  0.2085 -1.4452
47050SOL     OW45960  10.526  11.708   0.313  0.0316 -0.4560 -0.3936
47050SOL    HW145961  10.525  11.798   0.281  0.5764 -0.5416 -0.6705
47050SOL    HW245962  10.435  11.678   0.304  0.1477 -0.4538 -1.8461
47051SOL     OW45963   4.536   6.638   2.699  0.0381 -0.0614 -0.0185
47051SOL    HW145964   4.631   6.627   2.711  0.4553  0.8496 -1.9434
47051SOL    HW245965   4.517   6.591   2.618 -0.9435  0.6648 -0.2276
47052SOL     OW45966   6.072   5.260   9.393  0.1800  0.3973 -0.0913
47052SOL    HW145967   5.977   5.271   9.394  0.0357 -0.4816 -1.4824
47052SOL    HW245968   6.089   5.189   9.454 -0.0854  0.4154  0.0017
47053SOL     OW45969   6.975  11.324   1.177 -0.3386 -0.4689 -0.2388
47053SOL    HW145970   6.954  11.251   1.235 -0.2141 -0.3278 -0.0138
47053SOL    HW245971   7.071  11.329   1.178 -0.3891  1.0627  1.4826
47054SOL     OW45972   9.998   5.045   1.524  0.1415  0.6125 -0.5610
47054SOL    HW145973   9.945   5.009   1.595  0.0858 -0.8913 -1.3127
47054SOL    HW245974  10.000   5.139   1.541 -0.3334  0.3656  1.1023
47055SOL     OW45975   8.137   8.817   6.069 -0.1860  0.2127  0.3619
47055SOL    HW145976   8.044   8.835   6.083 -0.0036  1.0098  0.6181
47055SOL    HW245977   8.170   8.897   6.027  0.1832 -0.4435 -0.6205
47056SOL     OW45978   0.988   2.170   0.347  0.0890 -0.5617 -0.9536
47056SOL    HW145979   1.062   2.179   0.407  1.3952  0.0040 -2.5808
47056SOL    HW245980   0.942   2.253   0.353 -1.0538 -1.2586  0.7889
47057SOL     OW45981   0.321   5.461   3.029  0.4369 -0.0197 -0.0350
47057SOL    HW145982   0.407   5.420   3.036  0.9748  1.2276  1.0834
47057SOL    HW245983   0.332   5.531   2.965 -0.3751 -1.3010 -1.6333
47058SOL     OW45984   8.094   0.716   9.602  0.0325  0.5230 -0.0619
47058SOL    HW145985   8.053   0.671   9.676  0.9840 -2.1936 -1.0349
47058SOL    HW245986   8.179   0.744   9.636 -0.1713  0.7220  0.2946
47059SOL     OW45987   8.455   3.458   2.775  0.3287 -0.0164  0.3902
47059SOL    HW145988   8.398   3.443   2.850  1.2780 -0.9548  0.9494
47059SOL    HW245989   8.507   3.378   2.768  0.5115  0.2039 -1.0429
47060SOL     OW45990   0.220   8.009   2.867 -0.4409 -0.0414 -0.0873
47060SOL    HW145991   0.300   7.995   2.817  0.6032  0.1080  1.4584
47060SOL    HW245992   0.233   8.094   2.910 -0.8154 -0.6152  1.2298
47061SOL     OW45993  11.192   4.044  12.108 -0.0301  0.0411 -0.1526
47061SOL    HW145994  11.222   3.963  12.150  0.0160  0.5764  0.8649
47061SOL    HW245995  11.162   4.016  12.021 -0.6889 -1.1844  0.4462
47062SOL     OW45996   5.430   6.559  10.793  0.4676  0.0287 -0.1228
47062SOL    HW145997   5.493   6.493  10.820  0.1743  1.1117  3.8789
47062SOL    HW245998   5.345   6.520  10.811  0.2919  1.3373  2.3212
47063SOL     OW45999   9.226   5.481   9.830  0.2639  0.3184  1.0164
47063SOL    HW146000   9.293   5.507   9.893  0.2863 -1.4326  1.7721
47063SOL    HW246001   9.219   5.386   9.840 -0.4393  0.1101 -0.9423
47064SOL     OW46002  11.240   3.546  10.228 -0.3242  0.2630 -0.2285
47064SOL    HW146003  11.289   3.518  10.152  0.9909  0.6825  0.4280
47064SOL    HW246004  11.284   3.505  10.302 -1.2952  0.2222  0.3494
47065SOL     OW46005   1.846   3.707   4.607  0.3187 -0.4186  0.4911
47065SOL    HW146006   1.942   3.718   4.604  0.1605  1.1659 -2.5155
47065SOL    HW246007   1.831   3.617   4.581  0.9742 -0.8490  1.5337
47066SOL     OW46008   6.496   0.922   9.259 -0.8506 -0.0503  0.5815
47066SOL    HW146009   6.408   0.947   9.286 -1.1554  1.4448 -1.5582
47066SOL    HW246010   6.485   0.835   9.221 -0.8326 -1.0951  2.7679
47067SOL     OW46011   1.117  10.782   6.239 -0.5836  0.5690  0.3051
47067SOL    HW146012   1.062  10.858   6.218 -1.1868 -0.3067 -1.4452
47067SOL    HW246013   1.171  10.769   6.161  0.2262 -0.1998  0.9788
47068SOL     OW46014   6.690  10.541   4.309  0.2719 -0.5894 -0.2038
47068SOL    HW146015   6.785  10.547   4.321  0.3614 -2.1902  0.1330
47068SOL    HW246016   6.673  10.587   4.227  1.1146  1.0337  0.4732
47069SOL     OW46017  10.924   3.078   4.188  0.3976 -0.0337  0.2538
47069SOL    HW146018  10.839   3.121   4.182  0.5828  0.1796 -0.9949
47069SOL    HW246019  10.971   3.128   4.254 -0.8423 -0.8892  1.8595
47070SOL     OW46020  11.528   7.436   5.630 -0.5277 -0.0458 -0.1264
47070SOL    HW146021  11.516   7.459   5.722 -0.1956 -1.2255  0.2344
47070SOL    HW246022  11.451   7.385   5.607  0.2233 -1.3124  0.0500
47071SOL     OW46023   6.033   8.408   4.732 -0.7028  0.1134  0.1374
47071SOL    HW146024   5.996   8.433   4.648  0.6194 -1.7921 -1.0921
47071SOL    HW246025   6.115   8.458   4.739  0.7430 -1.9083 -1.2210
47072SOL     OW46026  10.820   6.993   2.629 -0.0264 -0.5822  0.1609
47072SOL    HW146027  10.910   7.019   2.609 -0.2306 -1.2707 -1.9202
47072SOL    HW246028  10.821   6.898   2.621 -0.5789 -0.7705  1.9031
47073SOL     OW46029   3.838   4.803   8.637 -0.2416 -0.6020  0.1679
47073SOL    HW146030   3.851   4.763   8.723  0.0372  0.5228  0.6725
47073SOL    HW246031   3.888   4.748   8.577  2.5263  0.5277  1.2576
47074SOL     OW46032  10.166  11.653   7.101 -0.5322  0.3206 -0.1873
47074SOL    HW146033  10.107  11.587   7.137  1.3979 -1.6381 -0.3851
47074SOL    HW246034  10.228  11.602   7.048  0.4478  2.4340 -1.1545
47075SOL     OW46035   1.950   6.099   6.607  0.2801 -0.0493  0.1856
47075SOL    HW146036   1.892   6.048   6.550  2.1941 -0.5331 -1.4576
47075SOL    HW246037   1.967   6.180   6.558  0.8455  0.1592  0.7146
47076SOL     OW46038  10.635   2.698   4.644 -0.0442  0.0215 -0.4222
47076SOL    HW146039  10.670   2.674   4.558 -1.8385 -0.8741 -0.9649
47076SOL    HW246040  10.710   2.695   4.703  1.6401  2.4914 -2.2399
47077SOL     OW46041   4.859  11.976   2.560  0.3238 -0.5294 -0.0560
47077SOL    HW146042   4.828  11.946   2.474 -1.0113 -0.0612  0.2378
47077SOL    HW246043   4.824  11.912   2.622  2.1576 -1.4513  0.0671
47078SOL     OW46044   4.384   3.172   8.080  0.3203 -0.1286 -0.1863
47078SOL    HW146045   4.429   3.110   8.137  2.3109  2.1935  0.9890
47078SOL    HW246046   4.447   3.189   8.009 -0.7614 -0.4614 -1.2607
47079SOL     OW46047   3.411   8.613   6.478  0.6972 -0.1185  0.4806
47079SOL    HW146048   3.318   8.611   6.501  0.3594  1.0129 -0.6757
47079SOL    HW246049   3.451   8.546   6.534 -0.6766 -0.1001  1.5341
47080SOL     OW46050   5.614  11.382   1.700  0.9060  0.1353 -0.0146
47080SOL    HW146051   5.605  11.315   1.767  1.0652  0.1249 -0.0032
47080SOL    HW246052   5.560  11.351   1.627 -0.3086  0.7683  0.5839
47081SOL     OW46053   4.685  10.132   7.622 -0.5635  0.0165  0.1876
47081SOL    HW146054   4.771  10.154   7.657 -1.1279  0.9767  1.0098
47081SOL    HW246055   4.695  10.043   7.587  0.4726 -0.2851  1.2111
47082SOL     OW46056   7.567   2.436   5.371 -0.8784 -0.7860 -0.0098
47082SOL    HW146057   7.511   2.513   5.366  0.2217  0.0490 -5.1188
47082SOL    HW246058   7.508   2.362   5.360 -1.7278 -0.7186  3.1681
47083SOL     OW46059  11.633   3.764  12.390  0.4793  0.2543 -0.0316
47083SOL    HW146060  11.623   3.722  12.476 -0.8476  1.1676  0.2914
47083SOL    HW246061  11.702   3.830  12.404 -1.8463  2.5910  1.2774
47084SOL     OW46062   2.779   5.762   6.689  0.0257 -0.3810 -0.2879
47084SOL    HW146063   2.841   5.832   6.710 -0.0438 -0.2845 -0.4025
47084SOL    HW246064   2.771   5.765   6.593 -0.5095 -0.0885 -0.2384
47085SOL     OW46065   3.454   8.479   6.901 -0.1900 -0.1942  0.9398
47085SOL    HW146066   3.408   8.416   6.957 -0.9055  0.9629  1.6951
47085SOL    HW246067   3.544   8.479   6.935 -0.1513 -0.8998  0.8469
47086SOL     OW46068   4.216   0.242   3.362 -0.8746  0.0955 -0.1150
47086SOL    HW146069   4.133   0.264   3.403 -0.4642  0.2949  0.6136
47086SOL    HW246070   4.270   0.208   3.433 -1.0425 -2.0776 -0.9564
47087SOL     OW46071   5.972   7.056  11.086  0.0161  0.2361  0.6203
47087SOL    HW146072   5.894   7.005  11.107  1.0443 -0.7233  2.3610
47087SOL    HW246073   5.988   7.038  10.994 -0.4761 -1.4904  0.8292
47088SOL     OW46074   4.502  12.078   5.205 -0.1890  0.1353 -0.3408
47088SOL    HW146075   4.554  12.027   5.267  0.4109  0.5577 -0.4932
47088SOL    HW246076   4.418  12.032   5.201 -0.7361  0.8434  1.8205
47089SOL     OW46077   9.601   4.872  10.397  0.6236 -0.0761  0.2208
47089SOL    HW146078   9.578   4.911  10.482 -0.0587 -2.5901  1.2943
47089SOL    HW246079   9.690   4.901  10.380  0.3301  1.5038  1.1508
47090SOL     OW46080   6.517   8.400   0.391 -0.3020 -0.2756  0.0991
47090SOL    HW146081   6.519   8.317   0.439 -0.5293  0.0078  0.6097
47090SOL    HW246082   6.603   8.440   0.407  0.6471 -1.3677 -1.9034
47091SOL     OW46083   5.843  10.701   0.360 -0.1256 -0.3279 -0.5263
47091SOL    HW146084   5.864  10.608   0.350 -0.7703 -0.7491  1.4818
47091SOL    HW246085   5.765  10.714   0.307  1.2056 -0.3638 -2.5937
47092SOL     OW46086   5.513   9.544   7.407 -0.2634  0.4510  0.1739
47092SOL    HW146087   5.587   9.483   7.403  0.2002  1.0320 -0.2413
47092SOL    HW246088   5.456   9.508   7.476  0.5362  0.1452  0.6897
47093SOL     OW46089   1.991   6.587   2.241  0.2324 -0.4151  0.3993
47093SOL    HW146090   1.958   6.666   2.197  2.8946  1.0569  0.8456
47093SOL    HW246091   1.996   6.521   2.171 -2.2575 -0.3724  0.0647
47094SOL     OW46092   1.330   3.641   7.451 -0.1471  0.2803  0.0513
47094SOL    HW146093   1.417   3.681   7.450  0.0555 -0.0536  1.7632
47094SOL    HW246094   1.312   3.625   7.543 -0.5789 -2.8012 -0.4708
47095SOL     OW46095   5.063   5.976   2.278  0.1005 -0.0513  0.0582
47095SOL    HW146096   5.029   5.962   2.190  0.2624  1.0671 -0.1991
47095SOL    HW246097   4.994   5.944   2.336 -0.1354 -0.5127 -0.4754
47096SOL     OW46098   6.120   0.989   5.960  0.6649 -0.2000 -0.3972
47096SOL    HW146099   6.111   1.019   6.050  1.6591 -1.4677  0.1634
47096SOL    HW246100   6.091   0.897   5.963  0.3042 -0.1364 -1.4685
47097SOL     OW46101   0.775   9.813   8.957 -0.1073  0.7855  0.8557
47097SOL    HW146102   0.690   9.785   8.923  0.4319 -0.3739  0.4263
47097SOL    HW246103   0.757   9.897   8.999 -1.0110  1.8232 -1.4248
47098SOL     OW46104  12.136   4.545   1.220  0.2886  0.0119  0.5402
47098SOL    HW146105  12.174   4.619   1.172  1.5279 -1.2872 -0.5453
47098SOL    HW246106  12.106   4.584   1.302  1.9591  1.5248  0.5034
47099SOL     OW46107   9.136   4.077   9.108  0.0991 -0.1793  0.0575
47099SOL    HW146108   9.181   4.005   9.064 -0.8962 -0.6052 -0.3118
47099SOL    HW246109   9.059   4.093   9.053 -0.6243 -0.0194  1.0852
47100SOL     OW46110   6.782   0.470  11.114 -0.0576 -0.1094  0.5984
47100SOL    HW146111   6.859   0.509  11.074  0.6868 -0.1171  1.9653
47100SOL    HW246112   6.724   0.449  11.041  0.2228  2.0220 -0.2922
47101SOL     OW46113  10.726   0.525   6.731  0.9461 -0.1901 -0.5317
47101SOL    HW146114  10.644   0.506   6.778  0.5148 -0.3307 -1.3125
47101SOL    HW246115  10.752   0.440   6.694  0.8732  0.0613 -1.1657
47102SOL     OW46116  11.953   8.591   1.661 -0.5259 -0.2530  0.2110
47102SOL    HW146117  11.979   8.627   1.576  0.9981 -0.5591  0.5080
47102SOL    HW246118  11.898   8.516   1.639  0.9477 -1.1574 -0.5769
47103SOL     OW46119   0.032   5.733  12.557 -0.0026 -0.2640 -0.7755
47103SOL    HW146120  -0.034   5.789  12.517  0.9780  0.0764 -1.9608
47103SOL    HW246121   0.114   5.758  12.515  0.5822 -2.0770 -0.8258
47104SOL     OW46122  11.042   2.018   0.146 -0.7711 -0.3587 -0.0764
47104SOL    HW146123  11.000   1.965   0.079 -1.3887  0.1185 -0.0837
47104SOL    HW246124  10.970   2.069   0.184 -0.3200 -0.1250  0.4738
47105SOL     OW46125   4.942   7.808   3.386  0.0464  0.4676  0.1763
47105SOL    HW146126   4.912   7.818   3.295  1.2775  2.8081 -0.0421
47105SOL    HW246127   4.915   7.890   3.429 -0.6318 -0.6559  1.9982
47106SOL     OW46128  12.261   4.781   2.630  0.5148  0.5729  0.7842
47106SOL    HW146129  12.208   4.823   2.563  0.6796  0.1761  0.4027
47106SOL    HW246130  12.343   4.832   2.630  0.5474  0.5213  0.6245
47107SOL     OW46131   3.980   9.494   4.967  0.1601 -0.1766 -0.0040
47107SOL    HW146132   3.892   9.484   5.002  0.2436 -0.2239  0.1947
47107SOL    HW246133   4.021   9.409   4.983  0.1965 -0.1992 -0.2220
47108SOL     OW46134   7.470  10.853   8.563  0.4741  0.1764 -0.0995
47108SOL    HW146135   7.428  10.806   8.635 -0.7577  0.4961 -0.5832
47108SOL    HW246136   7.443  10.806   8.484  0.4493  0.7935 -0.4732
47109SOL     OW46137   7.396   6.144   5.116  0.6371  0.5135 -0.3617
47109SOL    HW146138   7.390   6.138   5.020 -3.3933  0.3028 -0.2538
47109SOL    HW246139   7.449   6.223   5.131  3.0990 -0.5294 -2.6140
47110SOL     OW46140   9.870   9.037   7.730 -0.2081 -0.2848 -0.5589
47110SOL    HW146141   9.890   9.038   7.636  0.1999 -0.2275 -0.4740
47110SOL    HW246142   9.911   9.116   7.764 -0.3968 -0.2802 -0.3397
47111SOL     OW46143   4.704   7.899   7.877 -0.4576  0.9295  0.3056
47111SOL    HW146144   4.750   7.910   7.961  0.8280 -1.0916 -0.0444
47111SOL    HW246145   4.775   7.897   7.812 -1.1543 -0.5391 -0.4518
47112SOL     OW46146   0.715   0.531   0.073 -0.2122 -0.0920  0.2608
47112SOL    HW146147   0.712   0.625   0.059  0.7239  0.3750  2.6580
47112SOL    HW246148   0.805   0.506   0.053 -0.4443 -0.4912 -0.3252
47113SOL     OW46149   5.392  12.332  11.613  0.4400 -0.2399  0.4270
47113SOL    HW146150   5.453  12.267  11.577 -0.1153  0.5811 -2.2076
47113SOL    HW246151   5.316  12.329  11.555 -1.0586  0.3852  2.2788
47114SOL     OW46152  10.308   6.140   8.846 -0.2557 -0.5168 -0.1189
47114SOL    HW146153  10.218   6.111   8.857 -1.2317  2.3621  0.3703
47114SOL    HW246154  10.336   6.167   8.933  0.8117 -0.5825 -0.4166
47115SOL     OW46155   7.145  10.640  11.085  0.4965  0.0236 -0.0059
47115SOL    HW146156   7.072  10.686  11.044  0.2460 -0.0881  0.3120
47115SOL    HW246157   7.150  10.556  11.039 -0.6898 -0.6955  1.1134
47116SOL     OW46158   2.695   7.269   1.252  0.2548 -0.0718 -0.1312
47116SOL    HW146159   2.726   7.359   1.257  1.1631 -0.4013  0.4517
47116SOL    HW246160   2.722   7.230   1.335  0.0417 -0.9372 -0.4602
47117SOL     OW46161   5.730   8.231   3.526 -0.3182 -0.0624 -0.2080
47117SOL    HW146162   5.653   8.262   3.574  1.0577  1.6561  1.0219
47117SOL    HW246163   5.802   8.284   3.560  1.3457 -1.2903 -1.6529
47118SOL     OW46164   5.335  11.214   7.713  0.3938  0.1260  0.3060
47118SOL    HW146165   5.307  11.134   7.757  0.3148  0.1791  0.3534
47118SOL    HW246166   5.343  11.279   7.784 -1.4729  0.7119  0.0194
47119SOL     OW46167  10.996   6.897   1.963 -0.1208  0.3305  0.3276
47119SOL    HW146168  10.914   6.920   2.006  0.2672  0.9256  0.7639
47119SOL    HW246169  10.974   6.892   1.870 -0.3602  1.9382  0.2706
47120SOL     OW46170  11.344   2.130   2.904  0.2294  0.1514 -0.2616
47120SOL    HW146171  11.381   2.055   2.858 -0.5748 -0.4626  0.0653
47120SOL    HW246172  11.250   2.112   2.909  0.0791  0.9850  0.1799
47121SOL     OW46173   5.849  11.108  11.004  0.2337  0.7657  0.4754
47121SOL    HW146174   5.884  11.089  10.917 -0.5117  2.5474 -0.2701
47121SOL    HW246175   5.782  11.174  10.988 -1.2870 -0.2659  2.2016
47122SOL     OW46176   8.285   9.303   2.268 -0.0369  0.0405 -0.1749
47122SOL    HW146177   8.197   9.276   2.294 -0.8144  0.9373 -1.7622
47122SOL    HW246178   8.280   9.398   2.261  1.1865  0.1489  0.0977
47123SOL     OW46179   8.370   2.644   5.870 -0.6911  0.2538  0.0988
47123SOL    HW146180   8.463   2.666   5.883 -0.3354 -1.1142  0.0249
47123SOL    HW246181   8.323   2.716   5.910  0.4098  0.3965  1.2128
47124SOL     OW46182   6.282   8.361   0.751 -1.1331  0.2917 -0.0871
47124SOL    HW146183   6.358   8.304   0.751  0.7002  2.5859  1.0586
47124SOL    HW246184   6.237   8.342   0.833  2.4328  3.8726  3.1665
47125SOL     OW46185   3.913   9.909   7.796  0.3877 -0.0137  0.3150
47125SOL    HW146186   3.893   9.841   7.861  0.2987 -1.0915 -0.7873
47125SOL    HW246187   3.914   9.861   7.713  0.1376  1.3962 -0.5167
47126SOL     OW46188   9.636   7.359  12.571  0.3836 -0.0656  0.0682
47126SOL    HW146189   9.690   7.282  12.553 -0.9196 -1.1424  0.6336
47126SOL    HW246190   9.698   7.422  12.609  1.2368 -1.3008  0.8200
47127SOL     OW46191   6.870   6.517   9.145  0.1535  0.4451 -0.2118
47127SOL    HW146192   6.930   6.552   9.211 -0.4074 -0.3760  0.7764
47127SOL    HW246193   6.783   6.545   9.175  0.0227  1.6662 -1.6525
47128SOL     OW46194   3.838   8.144  10.566 -0.3377 -0.0940 -0.6749
47128SOL    HW146195   3.782   8.067  10.556  0.3830 -0.5301 -1.5425
47128SOL    HW246196   3.778   8.218  10.570 -1.0576 -0.7181  0.4996
47129SOL     OW46197  12.578   9.606   9.097  0.1047 -0.5467  0.2694
47129SOL    HW146198  12.596   9.535   9.035  2.9994  0.6968 -0.4654
47129SOL    HW246199  12.642   9.593   9.167  0.9372  1.4737 -0.0609
47130SOL     OW46200   8.070   2.911   8.072 -0.1200 -0.1192  0.4068
47130SOL    HW146201   8.104   3.000   8.082 -1.1998  0.4045 -0.3735
47130SOL    HW246202   8.068   2.876   8.162  2.4673 -0.2325  0.4885
47131SOL     OW46203   0.209  12.435   2.104  0.0688  0.1127 -0.1228
47131SOL    HW146204   0.300  12.409   2.091 -0.2439 -1.1591  0.1165
47131SOL    HW246205   0.160  12.382   2.042 -0.5469  0.5774 -0.0396
47132SOL     OW46206  11.382   1.953   3.156 -0.2238  0.1710 -0.1500
47132SOL    HW146207  11.322   1.930   3.086  0.5180 -0.6195 -0.5467
47132SOL    HW246208  11.389   2.049   3.152 -0.5989  0.1747 -0.8017
47133SOL     OW46209   2.468   6.691   0.107 -0.1470  0.0170  0.0672
47133SOL    HW146210   2.520   6.638   0.166 -1.5796 -0.1473  1.2239
47133SOL    HW246211   2.514   6.775   0.103 -0.1120  0.0812  1.5434
47134SOL     OW46212   2.137   3.278   9.696  0.4502 -0.7323  0.5302
47134SOL    HW146213   2.155   3.339   9.624 -1.9405  1.1457  1.4220
47134SOL    HW246214   2.052   3.241   9.675 -0.1373 -0.3970  2.2105
47135SOL     OW46215   7.844  10.963   9.702  0.1283  0.1249  0.0389
47135SOL    HW146216   7.831  10.989   9.610  0.1954  0.5153  0.1372
47135SOL    HW246217   7.913  10.897   9.698 -0.1367 -0.1398 -0.2317
47136SOL     OW46218   1.156   7.257   4.316  0.1189  0.2459  0.5041
47136SOL    HW146219   1.072   7.225   4.347 -0.4123  0.6948 -0.4210
47136SOL    HW246220   1.198   7.180   4.278 -0.6033  0.3450 -0.5462
47137SOL     OW46221   8.582   0.320   4.110  0.2777  0.2703  0.3386
47137SOL    HW146222   8.667   0.325   4.152  0.5120 -0.8815  0.0220
47137SOL    HW246223   8.599   0.338   4.018 -0.2168  2.6503  0.6523
47138SOL     OW46224   5.399   5.096  10.839 -0.4137 -0.3171  0.5405
47138SOL    HW146225   5.388   5.119  10.931 -1.5322  0.3768  0.2597
47138SOL    HW246226   5.338   5.154  10.792  1.6846  0.9100 -0.8609
47139SOL     OW46227   5.389   5.082   5.966  0.0980  0.8205 -0.1679
47139SOL    HW146228   5.329   5.095   6.040  1.4841 -0.2113  1.2082
47139SOL    HW246229   5.332   5.081   5.889 -1.9525 -1.8367  1.2037
47140SOL     OW46230   3.885   2.868  11.813  0.2882 -0.4305 -0.1713
47140SOL    HW146231   3.913   2.781  11.841 -0.7631 -0.6528  0.2419
47140SOL    HW246232   3.830   2.899  11.885  0.1801  0.3329 -0.5757
47141SOL     OW46233   5.001   4.235   4.972 -0.0982  0.0444 -0.0741
47141SOL    HW146234   4.922   4.182   4.961 -0.0143  0.3038 -2.4625
47141SOL    HW246235   5.071   4.181   4.935  0.4710  0.6853  0.0501
47142SOL     OW46236  11.039   9.926   5.772  0.3088  0.6625  0.0424
47142SOL    HW146237  11.117   9.967   5.737  0.5272  0.4676  0.2996
47142SOL    HW246238  11.029   9.845   5.722 -0.4023  1.2521 -0.8087
47143SOL     OW46239   5.534   5.292   9.975  0.1175  0.0674 -0.6004
47143SOL    HW146240   5.557   5.337  10.056  0.1042  0.2607 -0.7050
47143SOL    HW246241   5.480   5.354   9.927 -0.6891 -0.4114 -0.3223
47144SOL     OW46242   6.794   1.541   6.787 -0.8538  0.5086  0.1702
47144SOL    HW146243   6.699   1.527   6.794 -1.1054  1.7268 -0.6477
47144SOL    HW246244   6.803   1.623   6.739  0.6270  0.4521  0.3156
47145SOL     OW46245   5.478   5.769  12.556  0.0217  0.2406  0.5699
47145SOL    HW146246   5.436   5.700  12.504  0.8169  0.3436 -0.2403
47145SOL    HW246247   5.466   5.741  12.647 -1.9433  0.3611  0.4090
47146SOL     OW46248   9.571  10.766   9.373  0.2419 -0.3098  0.3607
47146SOL    HW146249   9.648  10.778   9.429 -1.1293  1.0390  2.0632
47146SOL    HW246250   9.512  10.711   9.424 -1.2350  1.3301  0.4995
47147SOL     OW46251   7.007  11.784   8.712 -0.8742  0.5740 -0.7930
47147SOL    HW146252   6.954  11.752   8.785 -1.6839  1.8690 -0.7909
47147SOL    HW246253   7.059  11.855   8.750 -0.6482  0.6648 -1.2714
47148SOL     OW46254   0.312   0.264  12.516  0.5158 -0.5746 -0.1072
47148SOL    HW146255   0.334   0.232  12.603  0.9717 -0.1356 -0.0518
47148SOL    HW246256   0.345   0.354  12.515  1.0351 -0.7605 -0.9174
47149SOL     OW46257   8.864   2.632   7.482  0.2809 -0.2401 -0.3705
47149SOL    HW146258   8.920   2.554   7.490 -0.7978 -0.9075  1.3227
47149SOL    HW246259   8.896   2.691   7.551  0.0408  0.1195 -0.5683
47150SOL     OW46260   0.043   1.019   5.220 -0.3573 -0.0441  0.0521
47150SOL    HW146261   0.032   1.057   5.133 -0.7982 -0.0357  0.1070
47150SOL    HW246262   0.130   1.047   5.248 -1.2970  2.4139  0.8126
47151SOL     OW46263   4.828  11.567   2.941  0.1842 -0.0788  0.1057
47151SOL    HW146264   4.843  11.537   3.031  1.6322 -0.7777 -0.3241
47151SOL    HW246265   4.736  11.550   2.925  0.7106 -3.9639  0.1088
47152SOL     OW46266   1.930   0.246   8.280  0.8005 -0.0521 -0.3098
47152SOL    HW146267   1.876   0.168   8.280  1.3324 -0.4473  1.2724
47152SOL    HW246268   1.990   0.234   8.206 -0.3394 -0.2440 -1.2183
47153SOL     OW46269   1.803   9.681  10.044  0.1547  0.4888 -0.0338
47153SOL    HW146270   1.819   9.728   9.962 -0.9260  1.0536  0.0505
47153SOL    HW246271   1.823   9.744  10.112 -0.6271  0.6085  0.0951
47154SOL     OW46272   5.787  10.868   3.345  0.3145 -0.4185  0.0909
47154SOL    HW146273   5.798  10.819   3.263 -2.2130  1.1560 -1.3064
47154SOL    HW246274   5.843  10.945   3.334 -0.7435  0.2723 -0.6234
47155SOL     OW46275   9.802   5.458   8.783  0.1117  0.2171  0.6205
47155SOL    HW146276   9.707   5.470   8.789  0.0251 -0.3921  0.6132
47155SOL    HW246277   9.838   5.517   8.849 -0.2661  0.5270  0.5557
47156SOL     OW46278   0.350   0.079   9.578 -0.2539  0.0721 -0.4017
47156SOL    HW146279   0.268   0.094   9.530 -0.3947 -1.5978 -0.7689
47156SOL    HW246280   0.322   0.043   9.662  0.0646 -2.3047 -1.2209
47157SOL     OW46281  11.550   0.254  11.019  0.4595  0.1600 -0.2690
47157SOL    HW146282  11.617   0.208  11.070 -1.5419 -0.8654  1.6256
47157SOL    HW246283  11.487   0.185  10.995 -0.8423  1.3384 -0.3804
47158SOL     OW46284   4.291   9.361  11.741 -0.0824 -0.1008  0.2251
47158SOL    HW146285   4.303   9.455  11.728  1.7211  0.0070  2.1033
47158SOL    HW246286   4.370   9.322  11.703 -1.5691 -1.0951 -2.0665
47159SOL     OW46287  10.972   9.611   1.598 -0.3540 -0.7494 -0.3841
47159SOL    HW146288  10.981   9.563   1.516  0.1348  1.0604 -1.4661
47159SOL    HW246289  10.954   9.701   1.571 -1.7845 -0.3813  1.5359
47160SOL     OW46290   0.795  12.067   7.732  0.1483  0.2433 -0.0998
47160SOL    HW146291   0.857  12.033   7.668  0.0490 -1.2394  0.5589
47160SOL    HW246292   0.772  11.992   7.786  0.7493  1.5569  2.1230
47161SOL     OW46293   2.275   3.651   0.163 -0.4616  0.5445  0.4061
47161SOL    HW146294   2.338   3.655   0.235  0.3036  0.5713 -0.2574
47161SOL    HW246295   2.319   3.692   0.089 -0.9299 -0.2016 -0.3064
47162SOL     OW46296   0.283   2.829   3.304  0.1076  0.1723 -0.0018
47162SOL    HW146297   0.298   2.767   3.376  0.4353 -1.0839 -1.1132
47162SOL    HW246298   0.226   2.782   3.243  1.2276  0.5440 -1.3890
47163SOL     OW46299   0.173  10.127   2.004  0.0421  0.2768 -0.2298
47163SOL    HW146300   0.129  10.124   2.089  1.9354 -1.4539  0.7622
47163SOL    HW246301   0.158  10.041   1.965  2.4578 -0.3738  0.1440
47164SOL     OW46302  10.740   5.440   7.244 -0.2184 -0.0794 -0.4976
47164SOL    HW146303  10.662   5.489   7.217 -2.4696 -2.9429  0.2227
47164SOL    HW246304  10.785   5.420   7.163  0.9316  3.2098 -0.7993
47165SOL     OW46305  11.916   3.729  10.363 -0.4028  0.0121 -0.0910
47165SOL    HW146306  11.834   3.767  10.395 -1.2848 -2.5297  0.9599
47165SOL    HW246307  11.950   3.678  10.437  1.1296 -0.5315 -1.1067
47166SOL     OW46308  11.538   4.047   2.793  0.1753 -0.2103 -0.5789
47166SOL    HW146309  11.558   3.955   2.809  1.1191 -0.0276 -0.6041
47166SOL    HW246310  11.524   4.053   2.699 -2.6578 -0.8005 -0.2596
47167SOL     OW46311  10.254  10.624   7.024  0.1662  0.5434 -0.1341
47167SOL    HW146312  10.334  10.672   7.006  0.2907  0.0574 -0.8952
47167SOL    HW246313  10.223  10.593   6.939 -0.7379  0.5749  0.1624
47168SOL     OW46314   9.310   4.863   3.732  0.2858  0.4260 -0.1574
47168SOL    HW146315   9.340   4.858   3.641 -1.2864  1.1288 -0.7689
47168SOL    HW246316   9.243   4.795   3.738  0.9513 -0.1536  0.7175
47169SOL     OW46317   7.535   3.520   8.465  0.8937 -0.3983  0.3660
47169SOL    HW146318   7.563   3.454   8.401 -0.6416 -0.6985 -0.0418
47169SOL    HW246319   7.512   3.469   8.543 -0.0346 -0.3490  0.1414
47170SOL     OW46320   0.249  10.866   0.711 -0.0731 -0.0807  0.5300
47170SOL    HW146321   0.258  10.912   0.628 -1.3515  0.1161  0.4776
47170SOL    HW246322   0.237  10.774   0.686  1.7549 -0.3741  0.6071
47171SOL     OW46323   0.954  10.551   5.278  0.1220 -0.2494 -1.0291
47171SOL    HW146324   0.913  10.467   5.298  0.4885 -0.8622 -2.6942
47171SOL    HW246325   1.023  10.530   5.216  2.9649  0.7727  1.5560
47172SOL     OW46326   8.685   3.119   7.625  0.0572 -0.0197  0.2890
47172SOL    HW146327   8.673   3.025   7.610  1.5839 -0.0071 -1.3053
47172SOL    HW246328   8.620   3.161   7.568 -2.5931 -0.0229  3.0294
47173SOL     OW46329   8.236   6.827   2.822 -0.2171 -0.0316 -0.4413
47173SOL    HW146330   8.254   6.913   2.861  1.5122  0.1536 -1.5647
47173SOL    HW246331   8.284   6.765   2.877 -2.2721 -0.4873  0.9886
47174SOL     OW46332   9.569   2.340   5.404  0.7613  0.0127  0.0254
47174SOL    HW146333   9.478   2.367   5.394  0.3187 -1.5083 -0.3818
47174SOL    HW246334   9.576   2.312   5.495  0.1345 -2.0752 -0.5093
47175SOL     OW46335   8.023   1.898   1.041 -0.2672  0.5983  0.0896
47175SOL    HW146336   8.054   1.928   0.956 -1.0212  1.7673  0.2137
47175SOL    HW246337   8.015   1.803   1.031  1.5669  0.4547 -0.5017
47176SOL     OW46338  10.914   2.129  10.458 -0.2108 -0.2621  0.2533
47176SOL    HW146339  10.947   2.079  10.532 -0.2259  0.2747  0.6244
47176SOL    HW246340  10.980   2.118  10.390 -0.1724 -0.7141  0.3589
47177SOL     OW46341   7.839   4.893   5.503 -0.7297  0.3276 -0.2276
47177SOL    HW146342   7.916   4.943   5.477 -1.0314 -0.5383 -3.1494
47177SOL    HW246343   7.865   4.850   5.585  1.3872  1.1380 -0.4116
47178SOL     OW46344   0.954   2.002   1.383 -0.2651 -0.3805  0.3087
47178SOL    HW146345   0.883   1.949   1.347  0.2318  0.1884 -1.6177
47178SOL    HW246346   0.949   2.084   1.335  0.4265  0.4613  1.6124
47179SOL     OW46347   9.033   9.210   5.998  0.0378  0.0866 -0.1132
47179SOL    HW146348   8.981   9.176   5.926 -0.7609  0.3674  0.3198
47179SOL    HW246349   9.084   9.134   6.028 -0.0022 -0.1516 -0.6412
47180SOL     OW46350   5.367   5.463   8.107 -0.1377 -0.0034  0.3777
47180SOL    HW146351   5.286   5.501   8.141  0.2450 -0.2153  1.5694
47180SOL    HW246352   5.341   5.422   8.025 -1.0529  0.7143  0.2942
47181SOL     OW46353   3.018   3.160   9.032  0.2053 -0.3251 -0.2248
47181SOL    HW146354   3.084   3.103   9.074 -0.0635 -0.4248  0.0701
47181SOL    HW246355   3.064   3.200   8.958  0.1553 -1.6206 -0.9849
47182SOL     OW46356   7.585   4.730   4.770  0.0053 -0.8698 -0.2197
47182SOL    HW146357   7.498   4.733   4.810 -1.0885 -0.3607 -2.4513
47182SOL    HW246358   7.643   4.703   4.841 -1.8851 -0.7824  1.4687
47183SOL     OW46359   3.285   6.948   9.716  0.1091  0.1778 -0.8094
47183SOL    HW146360   3.256   6.986   9.799  1.1952 -1.1196  0.2149
47183SOL    HW246361   3.348   7.012   9.682 -0.0256  0.5179 -0.4320
47184SOL     OW46362   7.484   6.942   4.375  0.2079 -0.1987 -0.3154
47184SOL    HW146363   7.469   7.033   4.348 -1.1337 -0.7831 -1.7101
47184SOL    HW246364   7.429   6.931   4.452  0.0906  0.0841 -0.3560
47185SOL     OW46365   8.351   9.922   0.219 -0.0589  0.4417  0.0697
47185SOL    HW146366   8.393   9.943   0.302  0.9006 -0.6192 -0.1208
47185SOL    HW246367   8.418   9.875   0.169  0.0571  2.6682 -2.0754
47186SOL     OW46368  10.271   5.160   3.190  0.1193  0.1005  0.3269
47186SOL    HW146369  10.306   5.195   3.108  0.8687 -0.5922  0.3356
47186SOL    HW246370  10.210   5.092   3.162 -0.3957  0.5544  0.3327
47187SOL     OW46371  10.534   8.365   2.783 -0.3844  0.2795 -0.5797
47187SOL    HW146372  10.517   8.443   2.835 -0.0336 -0.9124  1.4325
47187SOL    HW246373  10.624   8.340   2.805 -0.9269 -1.4262 -0.0754
47188SOL     OW46374  10.211   0.190   3.575  0.4816 -0.3528 -0.1572
47188SOL    HW146375  10.224   0.194   3.480 -0.0322  1.7642 -0.1836
47188SOL    HW246376  10.274   0.252   3.611  0.9390 -1.4118  0.9607
47189SOL     OW46377   8.837   7.883   4.597  0.5912 -0.4236  0.1993
47189SOL    HW146378   8.925   7.890   4.560  1.1860 -1.6708  1.2734
47189SOL    HW246379   8.834   7.950   4.665  0.1229  0.6881 -0.8954
47190SOL     OW46380  10.243   2.489   0.392 -0.0138 -0.2115  0.5248
47190SOL    HW146381  10.266   2.529   0.476  1.2547  0.0754  0.0658
47190SOL    HW246382  10.147   2.493   0.388 -0.0095  0.9623  1.3741
47191SOL     OW46383   2.058   2.145  10.949  0.3261 -0.4038 -0.5661
47191SOL    HW146384   2.149   2.170  10.966 -0.4829  1.6821  1.1257
47191SOL    HW246385   2.064   2.055  10.917  2.9822 -0.2672 -0.7148
47192SOL     OW46386  11.462   2.426  10.362  0.1555  0.3603 -0.2591
47192SOL    HW146387  11.419   2.374  10.430 -0.3606  0.5569 -0.4270
47192SOL    HW246388  11.431   2.515  10.377 -0.5435  0.2942 -1.1901
47193SOL     OW46389   5.573  12.328   8.795 -0.1220 -0.1236 -0.6984
47193SOL    HW146390   5.635  12.320   8.722  0.8183 -1.2662  0.1854
47193SOL    HW246391   5.625  12.362   8.868 -0.0336 -2.7023  0.5509
47194SOL     OW46392  11.980   1.710   2.168  0.0759  0.0703 -0.9921
47194SOL    HW146393  12.073   1.716   2.191 -0.1590 -0.1969  0.1149
47194SOL    HW246394  11.979   1.692   2.074  1.1045  1.2367 -1.2488
47195SOL     OW46395   5.547   6.660   0.061 -0.0269  0.6577 -0.0979
47195SOL    HW146396   5.613   6.635   0.126  0.4137  0.1532 -0.7301
47195SOL    HW246397   5.464   6.640   0.104  0.2800 -0.4769  0.0122
47196SOL     OW46398   1.483   6.556   4.128 -0.5442 -0.0877  0.7320
47196SOL    HW146399   1.476   6.498   4.204 -0.7907  0.4820  1.1465
47196SOL    HW246400   1.401   6.605   4.128 -0.8312 -0.5360 -0.2834
47197SOL     OW46401   2.167   4.529   2.153 -0.0561  0.1906 -0.1499
47197SOL    HW146402   2.227   4.540   2.079 -0.1837 -2.5223 -0.7537
47197SOL    HW246403   2.213   4.566   2.228  1.6927 -0.3680 -0.8995
47198SOL     OW46404  10.448   5.365   5.253 -0.5201  0.0586 -0.4833
47198SOL    HW146405  10.499   5.444   5.266  0.7842 -0.8917  0.4607
47198SOL    HW246406  10.454   5.347   5.159  1.0523 -0.1271 -0.3655
47199SOL     OW46407   2.033   1.155   5.975 -0.9111 -0.6443  0.9004
47199SOL    HW146408   2.045   1.229   5.916 -3.9727  0.3202  1.3292
47199SOL    HW246409   2.052   1.078   5.921 -1.0478  0.3080 -0.5666
47200SOL     OW46410   6.324   8.037   3.343  0.8348  0.2677  0.2887
47200SOL    HW146411   6.289   7.951   3.367  0.4196  0.5470  0.6983
47200SOL    HW246412   6.402   8.047   3.399  0.1187  0.7283  1.2393
47201SOL     OW46413   3.068   6.118   7.365 -0.4886 -0.1153  0.1018
47201SOL    HW146414   3.020   6.041   7.334  0.1901 -0.1464 -0.9146
47201SOL    HW246415   3.029   6.138   7.450 -0.3401 -1.8872  0.6197
47202SOL     OW46416  11.258  10.171   8.946  0.1642  0.1486  0.0596
47202SOL    HW146417  11.261  10.109   9.019  0.4936  0.5316  0.3789
47202SOL    HW246418  11.171  10.211   8.953 -0.6685 -1.3543 -1.0772
47203SOL     OW46419   4.611   1.415   0.154  0.3280 -0.1166 -0.6889
47203SOL    HW146420   4.628   1.325   0.183 -2.4492 -0.6750 -0.4901
47203SOL    HW246421   4.590   1.406   0.061  0.3791  0.3927 -0.7523
47204SOL     OW46422   4.217   8.024   9.143  0.2723 -0.4000 -0.1940
47204SOL    HW146423   4.284   8.085   9.175 -0.3056  0.3853 -0.4387
47204SOL    HW246424   4.263   7.970   9.078  0.7234 -0.0195 -0.2019
47205SOL     OW46425  11.934   5.134   6.079  0.1027  0.0443 -0.7635
47205SOL    HW146426  11.985   5.205   6.041 -0.4966  0.6783 -0.3854
47205SOL    HW246427  11.992   5.058   6.075  0.9606  0.6861 -0.6176
47206SOL     OW46428   6.697   9.326   1.743 -0.3191  0.3355  0.4253
47206SOL    HW146429   6.692   9.259   1.676 -0.2487  0.9263 -0.1844
47206SOL    HW246430   6.779   9.309   1.789  0.0052  0.3741 -0.1302
47207SOL     OW46431   8.030   1.060   5.615  0.0441 -0.0442 -0.0442
47207SOL    HW146432   8.021   1.134   5.675  1.6509  0.3959 -0.2886
47207SOL    HW246433   7.941   1.040   5.587 -0.6262  0.4131  1.6769
47208SOL     OW46434   2.636   5.447   2.605 -0.0776 -0.4787  0.6383
47208SOL    HW146435   2.717   5.423   2.559 -0.8506 -0.2256 -0.9191
47208SOL    HW246436   2.585   5.495   2.540 -1.0490  0.2779  1.9168
47209SOL     OW46437  11.016  11.193   2.301 -0.0143 -0.8354  0.4654
47209SOL    HW146438  10.975  11.109   2.324 -1.1618  0.0331  1.7555
47209SOL    HW246439  11.022  11.191   2.206 -3.8971 -0.7376  0.0477
47210SOL     OW46440   0.953   7.966   7.988 -0.3182  0.4861  0.3946
47210SOL    HW146441   0.922   7.878   8.012  1.0843 -0.3103 -0.5600
47210SOL    HW246442   0.962   8.012   8.071  1.2273 -1.0859  1.1586
47211SOL     OW46443   2.354  10.071   3.523  0.3953 -0.5483 -0.7183
47211SOL    HW146444   2.315   9.984   3.521  2.3992 -1.5050 -0.3033
47211SOL    HW246445   2.359  10.094   3.616 -1.5122  0.7290 -0.8680
47212SOL     OW46446  10.905   9.973   3.323 -0.1614 -0.2358  0.3276
47212SOL    HW146447  10.847   9.901   3.300 -0.3013 -0.1392  0.3780
47212SOL    HW246448  10.848  10.049   3.333 -0.0174 -0.1196  0.2899
47213SOL     OW46449  12.155   8.401   9.183 -0.0728  0.5405  0.0582
47213SOL    HW146450  12.076   8.452   9.202  0.2286  0.9009  0.3669
47213SOL    HW246451  12.192   8.380   9.270  1.0032  1.6945 -0.0990
47214SOL     OW46452  10.457   2.322   0.281  0.0100 -0.5786  0.1248
47214SOL    HW146453  10.412   2.273   0.213  0.3280  0.3035 -0.7460
47214SOL    HW246454  10.390   2.380   0.318  0.0167 -0.5318  0.0621
47215SOL     OW46455   1.606   4.600   8.804  0.3076  0.7287  0.1532
47215SOL    HW146456   1.654   4.613   8.722  1.9793  0.8904  1.1138
47215SOL    HW246457   1.648   4.659   8.866 -2.4497  2.4286  0.6006
47216SOL     OW46458   0.941   4.424   8.287  0.3853  0.1511  0.7727
47216SOL    HW146459   0.945   4.399   8.195  1.4622  1.2922  0.4763
47216SOL    HW246460   0.936   4.341   8.334  0.0413 -0.4574 -0.2964
47217SOL     OW46461   2.504   8.218   7.983  0.1966 -0.4683  0.7391
47217SOL    HW146462   2.551   8.140   8.012  1.8367  0.7045  1.3739
47217SOL    HW246463   2.422   8.216   8.032  0.6417 -1.2813  1.4779
47218SOL     OW46464  11.451   8.037   4.507  0.6597 -0.5873 -0.0881
47218SOL    HW146465  11.391   7.974   4.547 -0.4714  0.2062 -0.4890
47218SOL    HW246466  11.395   8.092   4.453  1.7428  0.2776 -0.3537
47219SOL     OW46467   3.745   3.368   9.391 -0.2249  0.8025 -0.0330
47219SOL    HW146468   3.783   3.280   9.380  0.5055  0.8701  1.6956
47219SOL    HW246469   3.665   3.354   9.441 -0.0006  1.1323  0.4261
47220SOL     OW46470   1.559   6.070   7.548 -0.1333 -0.3068 -0.5815
47220SOL    HW146471   1.474   6.030   7.569 -0.3971  0.5968  0.1042
47220SOL    HW246472   1.556   6.082   7.453 -0.3648 -1.1935 -0.6981
47221SOL     OW46473   9.357   1.798   0.465 -0.2132  0.2094 -0.0216
47221SOL    HW146474   9.278   1.853   0.468 -1.8092 -1.8391 -1.5880
47221SOL    HW246475   9.425   1.856   0.431 -0.0823  2.9259  4.1550
47222SOL     OW46476   6.521  11.794   0.892  0.4121  0.4286 -0.1181
47222SOL    HW146477   6.480  11.712   0.862  2.0907 -0.9788  1.2229
47222SOL    HW246478   6.575  11.822   0.819 -0.2957  0.4323 -0.6479
47223SOL     OW46479   1.204   6.013   4.608 -0.7369  0.3406 -0.3261
47223SOL    HW146480   1.244   5.928   4.626  0.6879  0.7974 -1.1330
47223SOL    HW246481   1.118   5.992   4.571  0.4421 -0.8712 -2.6014
47224SOL     OW46482   8.934   7.049   8.019 -0.8320 -0.1551  0.9242
47224SOL    HW146483   8.866   7.018   8.079 -2.1104 -0.9183 -0.8044
47224SOL    HW246484   8.950   6.974   7.961 -0.2461  0.8035 -0.2000
47225SOL     OW46485   6.569   5.297   2.030  0.4178  0.5145  0.7512
47225SOL    HW146486   6.509   5.261   1.965  1.3894  1.1391 -0.5500
47225SOL    HW246487   6.628   5.225   2.050 -0.7514 -0.1146  2.0663
47226SOL     OW46488   3.896   6.833   6.601 -0.2597  0.0486  0.1969
47226SOL    HW146489   3.881   6.923   6.572 -0.1553  0.2244  0.6912
47226SOL    HW246490   3.904   6.783   6.520  0.3691  0.5922 -0.0808
47227SOL     OW46491  10.862   3.671   5.425  0.5853 -0.5530 -0.5921
47227SOL    HW146492  10.914   3.625   5.490  1.6141  0.8472 -0.3809
47227SOL    HW246493  10.926   3.706   5.363 -0.2917 -0.8979 -1.7305
47228SOL     OW46494  10.093  12.106   0.363  0.1563 -0.0019  0.4083
47228SOL    HW146495  10.122  12.186   0.407 -1.5837  0.6855  0.3793
47228SOL    HW246496  10.089  12.041   0.433 -1.3485  0.7597  1.0958
47229SOL     OW46497   0.918   0.909   6.600  0.6365  0.8312  0.0787
47229SOL    HW146498   0.845   0.848   6.608  0.5622  0.9931  0.6907
47229SOL    HW246499   0.961   0.906   6.685  1.1910  0.9307 -0.1959
47230SOL     OW46500   9.318   5.818  10.516  0.4931  0.6158 -0.4282
47230SOL    HW146501   9.269   5.871  10.579  0.1960  0.3866 -0.4660
47230SOL    HW246502   9.384   5.772  10.569  0.6803  0.9327 -0.3795
47231SOL     OW46503  10.973   2.782   7.319 -0.2407  0.1057  0.8902
47231SOL    HW146504  10.983   2.850   7.386  0.2305 -0.9126  1.8832
47231SOL    HW246505  11.054   2.786   7.268  0.4530 -0.7022  1.9026
47232SOL     OW46506  12.148   0.380   1.689  0.2369  0.8466 -0.7234
47232SOL    HW146507  12.155   0.309   1.753 -0.1374  1.5673  0.1387
47232SOL    HW246508  12.083   0.348   1.626  0.1028  0.4039 -0.3707
47233SOL     OW46509  10.071   6.911   1.566  0.0432 -0.3686 -0.1936
47233SOL    HW146510  10.011   6.945   1.632 -1.1661 -0.6479 -1.1026
47233SOL    HW246511  10.115   6.838   1.609  0.5206  0.4831  0.8250
47234SOL     OW46512   9.651   8.733   3.400 -0.4016 -0.3404 -0.1449
47234SOL    HW146513   9.652   8.639   3.415 -1.6100 -0.5507 -1.2351
47234SOL    HW246514   9.623   8.770   3.484 -0.5184 -0.9916  0.1115
47235SOL     OW46515   2.575   2.708  12.641 -0.1219 -0.2110  0.0030
47235SOL    HW146516   2.593   2.614  12.639 -0.2147 -0.2845  1.4855
47235SOL    HW246517   2.660   2.749  12.627  0.2176 -0.5389  0.9972
47236SOL     OW46518   5.285   0.582   8.476 -0.5425  0.1074  0.5509
47236SOL    HW146519   5.232   0.503   8.475  0.1386 -0.5396 -3.8097
47236SOL    HW246520   5.375   0.550   8.479 -0.2868  0.8209  0.7423
47237SOL     OW46521  10.243  12.098  10.229  0.2951 -0.5020  0.0728
47237SOL    HW146522  10.299  12.163  10.185 -0.0704 -1.3112 -1.6561
47237SOL    HW246523  10.281  12.014  10.206 -0.1895 -0.9829  0.9724
47238SOL     OW46524   4.511  10.740   6.990  0.5028  0.5258  0.5654
47238SOL    HW146525   4.569  10.742   6.913 -0.6106 -3.1704 -0.5450
47238SOL    HW246526   4.522  10.652   7.025 -3.3503  0.1486  1.1495
47239SOL     OW46527   0.378   3.871   6.731 -0.2489 -0.7486 -0.1715
47239SOL    HW146528   0.397   3.780   6.709 -0.1107 -0.7822  0.0923
47239SOL    HW246529   0.464   3.913   6.739 -0.2938 -0.7739  0.4697
47240SOL     OW46530   2.617   3.030   1.374  0.4115 -0.9703  0.1674
47240SOL    HW146531   2.575   3.115   1.357 -2.2058 -2.1892  0.0351
47240SOL    HW246532   2.627   2.990   1.288  0.3136 -1.3694  0.3395
47241SOL     OW46533   1.865   8.733   4.141 -0.0796  0.6383 -0.0548
47241SOL    HW146534   1.948   8.701   4.175  0.0288  0.5391 -0.4081
47241SOL    HW246535   1.809   8.655   4.136  0.1627  0.5053 -0.8525
47242SOL     OW46536   7.457   0.757   3.462  0.1813 -0.0188 -0.0478
47242SOL    HW146537   7.384   0.807   3.498 -0.6926 -0.0445 -1.6928
47242SOL    HW246538   7.441   0.754   3.368  2.4262  0.1430 -0.4958
47243SOL     OW46539   1.431  10.542   0.630  0.1346  0.2423  0.0081
47243SOL    HW146540   1.438  10.448   0.609 -1.5754 -0.0564  0.6138
47243SOL    HW246541   1.462  10.549   0.720 -1.0294  0.0056  0.4429
47244SOL     OW46542   4.486   3.720  12.331  0.5166 -0.3233  0.0692
47244SOL    HW146543   4.525   3.777  12.397  0.3108  0.0958 -0.1638
47244SOL    HW246544   4.422   3.776  12.287 -0.5765 -1.0625  0.6470
47245SOL     OW46545  10.493   2.509  11.779  0.2588 -0.0150  0.0587
47245SOL    HW146546  10.552   2.477  11.847 -0.6836  0.7007  1.2490
47245SOL    HW246547  10.493   2.604  11.790 -0.5957  0.0399 -0.3533
47246SOL     OW46548   9.259  10.451   8.079  0.3332 -0.3683  0.5639
47246SOL    HW146549   9.214  10.527   8.041  0.8235  0.1222  0.9420
47246SOL    HW246550   9.219  10.440   8.165 -0.6940 -1.4061 -0.0236
47247SOL     OW46551   9.546   4.109  10.788  0.2494  0.2918 -0.0008
47247SOL    HW146552   9.525   4.031  10.738  1.6983 -1.1320  1.4971
47247SOL    HW246553   9.476   4.171  10.766  0.1676 -0.6319 -2.8067
47248SOL     OW46554   0.153   1.851   4.217  0.4814  0.0797 -0.5665
47248SOL    HW146555   0.190   1.937   4.195 -0.0724  0.5261  0.2169
47248SOL    HW246556   0.104   1.826   4.138 -1.8006  1.8424  0.1678
47249SOL     OW46557  12.295   6.454   1.413  0.5333  0.2727 -0.2046
47249SOL    HW146558  12.268   6.429   1.325  2.2021 -1.0453 -0.4005
47249SOL    HW246559  12.214   6.480   1.457 -0.4307  0.2524 -1.8888
47250SOL     OW46560  10.255   0.807   4.508  0.4835 -0.0643  0.2827
47250SOL    HW146561  10.241   0.814   4.602 -0.2201 -1.7192  0.3377
47250SOL    HW246562  10.321   0.739   4.498  0.3913 -0.0612 -0.4282
47251SOL     OW46563   3.154  10.047   4.461  0.8820 -0.2131 -0.5201
47251SOL    HW146564   3.117  10.085   4.540  1.0763  0.7348 -0.8725
47251SOL    HW246565   3.103   9.967   4.446  0.8080 -0.3729  0.5188
47252SOL     OW46566   3.910   9.803   4.519 -0.2466 -0.0541 -0.1541
47252SOL    HW146567   3.866   9.878   4.478  0.6584  0.2935 -0.5156
47252SOL    HW246568   3.925   9.742   4.447  0.1001 -0.0566 -0.0783
47253SOL     OW46569   8.665   2.300   4.882  0.2962 -0.0168  0.5042
47253SOL    HW146570   8.718   2.240   4.935 -1.8341 -1.7878  0.7350
47253SOL    HW246571   8.605   2.340   4.944  1.2838  2.0194  0.2488
47254SOL     OW46572   2.463   8.082   8.456  0.3633  0.0545  0.5298
47254SOL    HW146573   2.462   7.990   8.483  1.1693 -0.2953 -0.5493
47254SOL    HW246574   2.401   8.086   8.383  0.6772  0.2490  0.2661
47255SOL     OW46575   5.378   1.707  12.132 -0.2431 -0.2272 -0.2624
47255SOL    HW146576   5.436   1.632  12.150 -1.1719 -0.6459  1.1819
47255SOL    HW246577   5.415   1.747  12.054  0.5254 -1.9487 -0.8430
47256SOL     OW46578   4.764   0.850  12.529  0.3566  0.1734  0.3764
47256SOL    HW146579   4.817   0.834  12.451  0.7259  1.2085  0.4014
47256SOL    HW246580   4.691   0.903  12.498  0.6319  0.7869  0.7730
47257SOL     OW46581   8.078   2.639   4.170 -0.0610  0.4446 -0.5550
47257SOL    HW146582   8.037   2.726   4.163  1.4212  1.1352 -1.0048
47257SOL    HW246583   8.108   2.633   4.260 -0.9170  0.0346 -0.2892
47258SOL     OW46584  10.409   5.764   6.618  0.4749 -0.3525 -0.5414
47258SOL    HW146585  10.457   5.687   6.647 -0.2949 -1.0750 -1.1433
47258SOL    HW246586  10.340   5.776   6.683  0.0929 -0.6684 -0.8827
47259SOL     OW46587   8.349  10.993   5.886  0.4089  0.5913  0.3230
47259SOL    HW146588   8.353  10.897   5.880 -0.0797  0.5218  0.9703
47259SOL    HW246589   8.288  11.010   5.958  0.5605  1.3918  0.2743
47260SOL     OW46590   0.673   6.978   3.089 -0.2736 -0.0226  0.3431
47260SOL    HW146591   0.593   6.934   3.115 -0.6343  1.2726  1.5964
47260SOL    HW246592   0.655   7.071   3.102  0.7669  0.4604 -1.2871
47261SOL     OW46593   5.773   5.263   2.578  0.2963  0.4237 -0.9358
47261SOL    HW146594   5.812   5.282   2.663  0.9742 -2.2269 -0.5812
47261SOL    HW246595   5.702   5.202   2.597 -1.2243  1.7469 -2.0617
47262SOL     OW46596   3.759   9.818   1.845  0.1961 -0.1519  0.0795
47262SOL    HW146597   3.729   9.731   1.871  0.3053  0.3001  1.8370
47262SOL    HW246598   3.683   9.858   1.804  0.2124 -1.1301 -0.9652
47263SOL     OW46599   3.401   0.570  10.883 -0.2520  0.3437  0.1249
47263SOL    HW146600   3.361   0.491  10.918 -3.0903  0.1260 -3.1581
47263SOL    HW246601   3.364   0.641  10.935  1.4736 -0.2772  2.3622
47264SOL     OW46602   6.283   9.823  12.447  0.6416  0.0004 -0.3099
47264SOL    HW146603   6.365   9.780  12.422  1.1498  1.1227 -0.6592
47264SOL    HW246604   6.288   9.910  12.407  1.3481  1.8151  3.2644
47265SOL     OW46605  10.459  12.206   5.229  0.0685 -0.1589 -0.4404
47265SOL    HW146606  10.513  12.185   5.306  0.0173  1.1335 -0.0123
47265SOL    HW246607  10.411  12.126   5.210  0.7279 -0.7625  0.3519
47266SOL     OW46608   0.735   2.814   4.054 -0.2625  0.9619 -0.2630
47266SOL    HW146609   0.736   2.903   4.088  1.2072  1.7295 -2.1396
47266SOL    HW246610   0.792   2.765   4.114  1.1821  1.9580 -0.7804
47267SOL     OW46611  11.212   5.405   6.850  0.4098  0.2237  0.1358
47267SOL    HW146612  11.166   5.330   6.812 -0.4700  1.1092 -0.6067
47267SOL    HW246613  11.204   5.392   6.944  1.5102 -1.3424  0.0569
47268SOL     OW46614   6.831   2.243   0.120 -0.6778 -0.4768  0.6973
47268SOL    HW146615   6.798   2.299   0.191 -0.2225 -1.2967  1.5745
47268SOL    HW246616   6.886   2.302   0.068 -0.0182 -0.1419  1.7359
47269SOL     OW46617   4.172   8.762   0.073  0.0781 -0.2122 -0.1070
47269SOL    HW146618   4.134   8.707   0.004  0.0507 -0.5277  0.1604
47269SOL    HW246619   4.193   8.844   0.028 -0.0913 -0.3557 -0.4567
47270SOL     OW46620   6.059   3.296  10.328  0.3746 -0.0376 -0.2189
47270SOL    HW146621   6.024   3.310  10.415  0.8700  0.4939 -0.1020
47270SOL    HW246622   6.151   3.273  10.342 -0.0215 -1.9896 -0.4812
47271SOL     OW46623   7.534   6.403  11.101  0.1829  0.4151  0.7087
47271SOL    HW146624   7.444   6.426  11.078  0.5188  0.3013 -0.8189
47271SOL    HW246625   7.528   6.369  11.190 -1.6262 -1.5358 -0.0683
47272SOL     OW46626   3.640   7.036   7.858  0.0267  0.4031 -0.3095
47272SOL    HW146627   3.706   7.073   7.799 -0.6111  0.7029 -0.8535
47272SOL    HW246628   3.557   7.061   7.819 -0.4131  0.3721  0.5852
47273SOL     OW46629   0.743   3.512   8.434 -0.0475  0.3313  0.6041
47273SOL    HW146630   0.819   3.539   8.382 -0.2742  0.9996  0.5996
47273SOL    HW246631   0.671   3.564   8.398 -0.1766  0.9186  1.6911
47274SOL     OW46632   9.613   2.791  12.114  0.0923 -0.2284  0.2981
47274SOL    HW146633   9.627   2.705  12.153  1.8999  0.0453  0.3056
47274SOL    HW246634   9.663   2.788  12.032  2.3700  1.6495  1.5038
47275SOL     OW46635  11.290   6.831   9.605  0.5602 -0.1670  0.2843
47275SOL    HW146636  11.363   6.889   9.625 -0.0975  0.6247  0.4337
47275SOL    HW246637  11.331   6.747   9.587  1.5044  0.2493  0.4193
47276SOL     OW46638   7.427  11.862   0.850 -0.5204 -0.2622 -0.3458
47276SOL    HW146639   7.443  11.779   0.895  2.6196  0.6242  0.4047
47276SOL    HW246640   7.441  11.843   0.757  0.5914 -0.5252 -0.1370
47277SOL     OW46641   1.640   2.499  12.332 -0.2802 -0.2006 -0.3549
47277SOL    HW146642   1.576   2.503  12.261 -0.8579  0.0939  0.1709
47277SOL    HW246643   1.621   2.575  12.387  0.6040 -0.0380 -0.2479
47278SOL     OW46644   4.858   5.877   2.461  0.3604  0.1814 -0.2685
47278SOL    HW146645   4.863   5.938   2.534 -0.6953 -0.1775  0.1279
47278SOL    HW246646   4.898   5.796   2.494  0.3624  0.1813 -0.2717
47279SOL     OW46647   8.084   4.201   7.936  0.1352 -0.0650 -0.7161
47279SOL    HW146648   8.123   4.122   7.899 -0.0870  0.0213 -1.1428
47279SOL    HW246649   8.085   4.264   7.865 -0.3216  0.0961 -0.5882
47280SOL     OW46650   3.794   7.568   3.821 -0.1074 -0.0253  0.1311
47280SOL    HW146651   3.739   7.587   3.745 -0.7179 -2.0487 -0.0094
47280SOL    HW246652   3.810   7.473   3.816 -1.1855 -0.4882  3.1645
47281SOL     OW46653   2.733   6.492   3.360 -0.5547 -0.2433  0.6810
47281SOL    HW146654   2.663   6.540   3.315  0.4205  0.2327 -0.3646
47281SOL    HW246655   2.783   6.560   3.405 -1.3678 -0.6875  2.3216
47282SOL     OW46656   8.668   5.768   6.188 -0.6414 -0.6988 -0.1163
47282SOL    HW146657   8.719   5.687   6.182 -0.0150 -0.2493 -1.0604
47282SOL    HW246658   8.655   5.795   6.098  0.0096  0.7785  0.2058
47283SOL     OW46659   9.224   7.479  11.293 -0.0411 -0.2058  0.6922
47283SOL    HW146660   9.201   7.444  11.207  0.7321 -0.7476  0.7008
47283SOL    HW246661   9.216   7.404  11.352 -0.0571  0.0413  1.0065
47284SOL     OW46662   1.068   8.343   7.924 -0.1945 -0.5886 -0.2005
47284SOL    HW146663   1.153   8.375   7.954 -0.6432  0.5742 -0.1105
47284SOL    HW246664   1.072   8.351   7.829 -1.0527  1.8403 -0.0994
47285SOL     OW46665   3.364   4.512   1.495 -1.0339  0.1641 -0.0661
47285SOL    HW146666   3.442   4.558   1.463 -1.0434  0.1906 -0.0519
47285SOL    HW246667   3.314   4.580   1.541 -0.5300 -0.0817  0.8846
47286SOL     OW46668   8.480   5.665   7.313 -0.4331 -0.0530 -0.3502
47286SOL    HW146669   8.481   5.710   7.398  1.9788 -0.7133  0.0409
47286SOL    HW246670   8.415   5.595   7.324 -2.3137  1.6484 -0.0990
47287SOL     OW46671   8.789   2.726   5.527  0.7064  0.3942 -0.3164
47287SOL    HW146672   8.711   2.676   5.553  1.4182  0.2308  1.7031
47287SOL    HW246673   8.844   2.662   5.482  0.3628  0.1091 -0.3408
47288SOL     OW46674   2.110   2.296   1.478  0.3206  0.2953 -0.1476
47288SOL    HW146675   2.174   2.367   1.472  0.5236  0.0194 -1.7686
47288SOL    HW246676   2.069   2.307   1.564  1.6849  1.2098  0.4228
47289SOL     OW46677   8.621   2.848   6.508  0.2557 -0.2480 -0.1776
47289SOL    HW146678   8.549   2.833   6.447 -0.5915  0.3853  0.6278
47289SOL    HW246679   8.579   2.882   6.587  1.5059  0.8330  0.0708
47290SOL     OW46680  10.113   1.608   1.950  0.0329  0.8783 -0.1318
47290SOL    HW146681  10.192   1.599   2.003  0.2930  0.0115 -0.6546
47290SOL    HW246682  10.065   1.680   1.991 -0.1058 -0.1869  1.6711
47291SOL     OW46683   6.898   9.155   0.700  0.3761 -0.1602  0.8914
47291SOL    HW146684   6.813   9.188   0.728  0.1856 -0.9882  1.3143
47291SOL    HW246685   6.899   9.168   0.605  0.8041  2.1442  1.1511
47292SOL     OW46686   3.139  12.181   0.556  0.0201  0.6506 -0.5878
47292SOL    HW146687   3.160  12.273   0.573 -1.3442  0.8080  0.4052
47292SOL    HW246688   3.046  12.180   0.537 -0.3804 -0.7020  1.1452
47293SOL     OW46689  12.010   9.405   5.887  0.0809  0.4199 -0.5223
47293SOL    HW146690  12.078   9.341   5.867 -0.9624 -0.6785 -0.7099
47293SOL    HW246691  12.004   9.405   5.983  0.5225  0.7028 -0.4972
47294SOL     OW46692  10.846   2.559  10.931  0.0085 -0.5502 -0.0360
47294SOL    HW146693  10.926   2.591  10.888 -0.3080 -1.1854 -1.1464
47294SOL    HW246694  10.821   2.629  10.991  0.1482  0.6565 -1.3379
47295SOL     OW46695   3.912   1.659   1.834 -0.3726  0.2329  0.3893
47295SOL    HW146696   3.897   1.614   1.751 -3.2431  1.3990  0.1824
47295SOL    HW246697   3.864   1.607   1.899  1.8779 -0.6925  1.4356
47296SOL     OW46698   7.376   0.048   5.654  0.6646  0.6134  0.0539
47296SOL    HW146699   7.454   0.066   5.602  0.2641  0.5760 -0.5657
47296SOL    HW246700   7.307   0.102   5.615  0.8029  2.1199  1.7808
47297SOL     OW46701   5.392   2.610   2.256 -0.4936 -0.3320  0.0434
47297SOL    HW146702   5.305   2.590   2.223 -1.7187  3.1917  0.7124
47297SOL    HW246703   5.433   2.662   2.187  0.5379 -0.7438  0.3221
47298SOL     OW46704   8.045   4.545   6.630  0.0231 -0.2289  0.1523
47298SOL    HW146705   8.034   4.493   6.710 -0.3541 -1.8533 -0.9025
47298SOL    HW246706   8.003   4.493   6.562  0.3684  1.1015 -1.1305
47299SOL     OW46707   9.358   2.592   8.993  0.0878 -0.2816  0.1319
47299SOL    HW146708   9.332   2.681   8.969 -2.3671 -1.1572 -0.7748
47299SOL    HW246709   9.355   2.591   9.088 -0.8970  0.3519  0.1210
47300SOL     OW46710   3.040   7.331   2.558  0.8944 -0.8614 -0.0128
47300SOL    HW146711   2.969   7.355   2.618  0.5216  0.3257 -0.8872
47300SOL    HW246712   2.997   7.325   2.473  1.5583 -1.7723 -0.2938
47301SOL     OW46713   6.618   6.198   7.947 -0.2220 -0.1427  0.0607
47301SOL    HW146714   6.644   6.131   7.884 -0.1416  0.4213 -0.5087
47301SOL    HW246715   6.610   6.278   7.896  0.9056  0.5658  0.9432
47302SOL     OW46716   0.284   0.425  11.809  0.2198  0.9071 -0.4176
47302SOL    HW146717   0.202   0.470  11.829  0.0366 -0.1269  1.3610
47302SOL    HW246718   0.288   0.354  11.872  2.2461  0.6054 -0.8237
47303SOL     OW46719  10.543   9.161   0.970  0.3842 -0.3194  0.3601
47303SOL    HW146720  10.626   9.115   0.955  1.2264  0.5884  2.0127
47303SOL    HW246721  10.502   9.163   0.883  2.1654 -0.6180 -0.5538
47304SOL     OW46722   0.200  10.016   6.183 -0.1863  0.0043  0.5102
47304SOL    HW146723   0.120  10.026   6.132 -0.8619 -0.4558  1.4661
47304SOL    HW246724   0.230   9.927   6.164  0.9736  0.6779 -1.0524
47305SOL     OW46725   6.390   4.162   1.653  0.0163  0.3354 -0.3512
47305SOL    HW146726   6.373   4.193   1.742  0.9785 -1.6557  0.5704
47305SOL    HW246727   6.329   4.089   1.641  0.6654 -0.1190 -0.9013
47306SOL     OW46728   7.306  11.209  12.485  0.3855  0.1681  0.3217
47306SOL    HW146729   7.212  11.205  12.470  0.1445  0.5034  1.6407
47306SOL    HW246730   7.343  11.237  12.401 -0.7961  1.2173  0.1281
47307SOL     OW46731   3.159  10.647  11.875 -0.0592 -0.3726 -0.1779
47307SOL    HW146732   3.254  10.645  11.888  0.0940 -0.3914 -1.1670
47307SOL    HW246733   3.127  10.714  11.934  0.8581  1.2167 -1.4127
47308SOL     OW46734   6.005   8.443  10.625 -0.0558 -0.4650  0.3103
47308SOL    HW146735   6.066   8.514  10.644 -0.8729  0.5991 -0.8406
47308SOL    HW246736   6.047   8.393  10.555  0.1601 -0.6432  0.5654
47309SOL     OW46737   8.993   6.466  11.997  0.0891  0.2733  0.1303
47309SOL    HW146738   9.083   6.467  12.032  0.8612  1.6030 -1.7363
47309SOL    HW246739   8.970   6.559  11.988 -1.1572 -0.0515 -0.2197
47310SOL     OW46740  10.451   6.287   0.597 -0.8319  0.7241 -0.1376
47310SOL    HW146741  10.439   6.358   0.660  3.5327  2.6700 -1.1188
47310SOL    HW246742  10.516   6.230   0.637  1.0815  1.3030 -2.1939
47311SOL     OW46743   9.971   5.611   9.442 -0.2935 -0.0112 -0.0696
47311SOL    HW146744  10.064   5.595   9.429 -0.6013 -0.8324 -1.5777
47311SOL    HW246745   9.965   5.701   9.472  1.0249 -0.2168  0.8841
47312SOL     OW46746   3.020   2.321   0.177 -0.2459 -0.2027  0.0987
47312SOL    HW146747   3.109   2.286   0.176  0.2673  1.0669  0.0113
47312SOL    HW246748   2.992   2.312   0.268 -0.0357 -0.5991  0.1274
47313SOL     OW46749   9.877   2.894   6.301  0.4839 -0.6552  0.1717
47313SOL    HW146750   9.957   2.850   6.331  1.2831 -0.3885 -1.4757
47313SOL    HW246751   9.833   2.829   6.246  0.0245 -0.4779  0.3263
47314SOL     OW46752   9.630   5.957   2.803 -0.0390 -0.0462 -0.6643
47314SOL    HW146753   9.542   5.976   2.837 -0.5917  0.4190 -2.2511
47314SOL    HW246754   9.689   5.977   2.875 -1.3023 -1.6115  0.8862
47315SOL     OW46755   4.785   0.071   7.215  0.1636  0.6313 -0.4383
47315SOL    HW146756   4.751   0.025   7.139 -0.5726  0.4669 -0.0176
47315SOL    HW246757   4.733   0.151   7.220  1.9049  1.9114 -1.5943
47316SOL     OW46758  10.664   5.372   8.431  0.1372 -0.1093  0.2397
47316SOL    HW146759  10.611   5.303   8.392  0.9321  0.2328 -1.5457
47316SOL    HW246760  10.706   5.331   8.506  0.1532 -1.3961 -0.4550
47317SOL     OW46761   9.466   0.089  11.239  0.6060 -1.0415 -0.4492
47317SOL    HW146762   9.522   0.091  11.316  1.3552 -0.4871 -0.9877
47317SOL    HW246763   9.395   0.029  11.262  0.8454 -0.9238  0.6366
47318SOL     OW46764   1.370   4.640  10.396  0.6526  0.4272 -0.2699
47318SOL    HW146765   1.429   4.715  10.399 -0.6114  1.4477 -0.1071
47318SOL    HW246766   1.302   4.664  10.334 -1.8415  1.0598  2.4754
47319SOL     OW46767   7.179   6.649  11.238 -0.0614 -0.2440 -0.4404
47319SOL    HW146768   7.226   6.603  11.169 -1.2155 -1.3044 -0.5413
47319SOL    HW246769   7.173   6.586  11.310  1.2045  0.8676  0.7273
47320SOL     OW46770   8.206  11.685  11.154  0.4074 -0.6693 -0.5012
47320SOL    HW146771   8.261  11.701  11.231  1.2876 -0.7581 -1.0925
47320SOL    HW246772   8.236  11.600  11.121  1.5648  0.3291 -2.1755
47321SOL     OW46773   6.532  11.007   9.046  0.0556 -0.0413 -0.1241
47321SOL    HW146774   6.576  11.031   9.128 -1.0814  2.0203 -0.0531
47321SOL    HW246775   6.601  10.970   8.992  1.6569  1.9591  0.4299
47322SOL     OW46776   8.223   0.718   2.658 -0.3115  0.9053  0.2264
47322SOL    HW146777   8.180   0.804   2.659 -0.6453  0.7483  1.1479
47322SOL    HW246778   8.151   0.656   2.667 -0.2754  0.3864 -2.3501
47323SOL     OW46779   9.938   7.303  12.540  0.7436  0.5914 -0.1204
47323SOL    HW146780  10.006   7.364  12.510  1.5299 -0.0412  0.3362
47323SOL    HW246781   9.962   7.219  12.501 -0.6286  0.6590 -1.1702
47324SOL     OW46782   2.194  12.028   2.619 -0.1999  0.3726 -0.4738
47324SOL    HW146783   2.104  12.009   2.644  0.0155 -0.3279 -0.2099
47324SOL    HW246784   2.201  12.123   2.626 -0.1428  0.2383  2.2015
47325SOL     OW46785   6.639   5.961   7.760 -0.5209 -0.5578  0.5508
47325SOL    HW146786   6.570   5.975   7.696  0.6876  0.3019 -0.6100
47325SOL    HW246787   6.608   5.887   7.813 -1.4154 -1.4871 -1.1987
47326SOL     OW46788  11.476   0.430   5.949 -0.5492 -0.3606  0.5592
47326SOL    HW146789  11.410   0.385   5.897 -1.6322  1.1387  0.5774
47326SOL    HW246790  11.443   0.426   6.038 -0.3149 -0.1499  0.6564
47327SOL     OW46791   3.723  12.366  11.165  0.8777 -0.1689 -0.2836
47327SOL    HW146792   3.733  12.317  11.083  1.5293 -0.3762 -0.0782
47327SOL    HW246793   3.809  12.363  11.206  1.3274  2.2229 -0.8644
47328SOL     OW46794   6.807  12.493   3.702 -0.4335 -0.3559 -0.0081
47328SOL    HW146795   6.839  12.407   3.729 -0.4378 -0.1574  0.6516
47328SOL    HW246796   6.719  12.476   3.670 -0.8997 -0.4464  1.2374
47329SOL     OW46797   2.124   5.675  11.777 -0.2534 -0.7655  0.8636
47329SOL    HW146798   2.037   5.638  11.765 -0.1852 -0.2181 -1.7888
47329SOL    HW246799   2.126   5.753  11.721  1.5652 -0.1026  1.7495
47330SOL     OW46800   0.695   3.790   5.505  0.1464 -0.1784  0.1657
47330SOL    HW146801   0.777   3.839   5.509  0.0023  0.0798 -0.0081
47330SOL    HW246802   0.652   3.809   5.589  0.1678 -0.1366  0.1673
47331SOL     OW46803  11.518   6.103   4.143 -0.5579 -0.1403 -0.2782
47331SOL    HW146804  11.447   6.132   4.201  0.9699  0.3335  1.4535
47331SOL    HW246805  11.527   6.010   4.162 -1.1474 -0.3654 -1.0304
47332SOL     OW46806  10.319   4.445   1.813  0.2710 -0.0239 -0.5793
47332SOL    HW146807  10.274   4.467   1.894 -0.7380  0.1627 -1.1816
47332SOL    HW246808  10.396   4.503   1.812  0.1485  0.1552  0.1036
47333SOL     OW46809   0.706   6.319   8.926  0.1404 -0.5746 -0.2129
47333SOL    HW146810   0.782   6.292   8.875  0.3659 -2.7063  1.1509
47333SOL    HW246811   0.720   6.281   9.013 -1.5371  0.6721  0.6703
47334SOL     OW46812   3.840   4.493  12.037  0.7893 -0.0696  0.1649
47334SOL    HW146813   3.782   4.568  12.022  1.2557  0.3825  0.6176
47334SOL    HW246814   3.781   4.417  12.034  0.4207  0.2435 -1.0060
47335SOL     OW46815   0.985   5.678   9.033 -0.5307  0.5674  0.2519
47335SOL    HW146816   1.048   5.719   9.092 -1.6717  1.6833  0.7543
47335SOL    HW246817   0.908   5.663   9.088 -2.0648  2.7331 -1.1744
47336SOL     OW46818   1.930   6.378   3.821 -0.7879 -0.3846 -0.7394
47336SOL    HW146819   1.863   6.364   3.888 -0.7083 -0.2482 -0.6308
47336SOL    HW246820   1.922   6.470   3.797  0.8365  0.2567  0.9014
47337SOL     OW46821   7.196   8.441   9.501  0.3592 -0.3576  0.0997
47337SOL    HW146822   7.286   8.467   9.521 -0.2110  1.4441  0.4785
47337SOL    HW246823   7.199   8.345   9.497  2.0744 -0.3876  1.1673
47338SOL     OW46824   9.096   8.216   0.314  0.4497  0.2077  0.6852
47338SOL    HW146825   9.053   8.264   0.243  1.2125  0.0522  0.0985
47338SOL    HW246826   9.189   8.229   0.298  0.6332  0.3747  1.8161
47339SOL     OW46827   2.955   1.558   1.628  0.6303  0.0084 -0.9243
47339SOL    HW146828   2.972   1.619   1.699  1.7056 -0.5910 -0.6587
47339SOL    HW246829   2.888   1.498   1.663  2.2794 -1.2734  0.2116
47340SOL     OW46830   3.469   5.367   9.156 -0.0602 -0.0599 -0.8266
47340SOL    HW146831   3.478   5.290   9.213 -1.7664  1.4687  1.7298
47340SOL    HW246832   3.552   5.414   9.166 -0.8511  0.9545  1.7904
47341SOL     OW46833   0.675   6.995   5.183 -0.4376  0.6045  0.8809
47341SOL    HW146834   0.590   6.973   5.147 -0.5655  0.7693  1.0791
47341SOL    HW246835   0.713   6.911   5.209  0.8072  0.1064 -2.0985
47342SOL     OW46836  10.042   0.049   7.885 -0.5551 -0.2039 -0.1322
47342SOL    HW146837  10.060   0.140   7.862  0.9761 -0.5327 -0.4190
47342SOL    HW246838  10.017   0.008   7.802 -1.8969  0.0878  0.1204
47343SOL     OW46839   3.933   8.935   1.224  0.2093 -0.2773 -0.4293
47343SOL    HW146840   3.844   8.940   1.188 -0.6777 -3.3207  1.0449
47343SOL    HW246841   3.936   9.003   1.291 -1.4039 -0.7649  0.1897
47344SOL     OW46842   0.564  11.454   9.246  0.4518  0.2143  0.6386
47344SOL    HW146843   0.546  11.361   9.255  1.1476  0.1252  1.2181
47344SOL    HW246844   0.480  11.497   9.262  0.0298 -0.3276 -0.0913
47345SOL     OW46845   5.107   1.839   5.882  0.2628  0.1211 -0.3949
47345SOL    HW146846   5.053   1.771   5.923  0.9995 -1.4120 -1.8622
47345SOL    HW246847   5.187   1.840   5.934  1.2725 -1.9513 -1.7673
47346SOL     OW46848   6.914   6.995   1.657 -0.3033 -0.4882  0.0516
47346SOL    HW146849   6.846   7.039   1.605  0.1676 -2.0335 -1.9939
47346SOL    HW246850   6.972   7.067   1.684 -0.9642  0.4792 -0.9679
47347SOL     OW46851   2.931   7.521  11.757 -0.2762 -0.5601 -0.0075
47347SOL    HW146852   2.889   7.493  11.676 -0.5022  1.6022 -0.6826
47347SOL    HW246853   2.881   7.597  11.786  0.8516 -0.2458  1.2225
47348SOL     OW46854   8.031   2.834   5.964 -0.0297 -0.3117 -0.2509
47348SOL    HW146855   7.949   2.835   5.914  1.0020  1.1733 -2.0810
47348SOL    HW246856   8.014   2.777   6.039 -3.1617  1.0290  0.1979
47349SOL     OW46857   6.652   7.935   9.204  0.4500  0.3985 -0.0513
47349SOL    HW146858   6.618   8.022   9.187  1.5186  0.6483 -1.0898
47349SOL    HW246859   6.716   7.946   9.274 -0.7626  0.1160  1.1264
47350SOL     OW46860  10.383   3.543   7.801  0.4695  0.3423 -0.7284
47350SOL    HW146861  10.323   3.470   7.792  0.0115  0.6381 -0.1515
47350SOL    HW246862  10.347   3.595   7.873 -0.0184  1.8999 -2.0254
47351SOL     OW46863   1.611   1.116   2.895  0.2523  0.1971  0.3425
47351SOL    HW146864   1.544   1.050   2.881  0.9812 -0.4369 -0.2635
47351SOL    HW246865   1.594   1.182   2.827  1.5284 -1.0444 -1.2634
47352SOL     OW46866   5.511   4.486   3.740 -0.1223 -0.3697  0.3772
47352SOL    HW146867   5.579   4.419   3.741 -0.1698 -0.4550 -0.7291
47352SOL    HW246868   5.550   4.560   3.787  0.3088 -0.8051  0.7200
47353SOL     OW46869  11.461   3.881  12.203  0.2527 -0.1447  0.3571
47353SOL    HW146870  11.461   3.829  12.124  1.9202  0.8879 -0.3872
47353SOL    HW246871  11.523   3.837  12.261  2.3304  1.3438 -0.5973
47354SOL     OW46872   7.657   1.605   6.118  0.0011  0.0727  0.3498
47354SOL    HW146873   7.593   1.588   6.187 -1.2850  3.0165  0.0290
47354SOL    HW246874   7.628   1.552   6.044 -2.0163  1.1933  0.2766
47355SOL     OW46875   8.528  10.452  11.915 -0.2681  0.2089  0.1884
47355SOL    HW146876   8.473  10.527  11.937 -0.3615  0.3554 -0.5301
47355SOL    HW246877   8.576  10.479  11.836  0.0371 -0.3156  0.1876
47356SOL     OW46878  12.263   8.823   1.606  0.1620  0.1937 -0.0967
47356SOL    HW146879  12.311   8.828   1.689 -2.3750 -1.7186  1.6473
47356SOL    HW246880  12.219   8.908   1.599  0.5783  0.4587  0.4083
47357SOL     OW46881   5.661   3.693  12.627  0.2988  0.0889 -0.2614
47357SOL    HW146882   5.708   3.769  12.595 -1.4552  1.8472  1.0832
47357SOL    HW246883   5.702   3.672  12.711 -0.3789  0.7425  0.2448
47358SOL     OW46884   4.986   4.689  10.085  0.2084 -0.1073 -0.3532
47358SOL    HW146885   4.989   4.595  10.104  2.4291  0.1012  0.5722
47358SOL    HW246886   4.985   4.694   9.990 -0.1665 -1.0594 -0.4119
47359SOL     OW46887  12.323   7.010   8.768  0.5553  0.5420  0.3021
47359SOL    HW146888  12.374   6.945   8.816 -2.9123 -1.1759  2.0203
47359SOL    HW246889  12.308   6.970   8.682  1.8055  0.9737 -0.1443
47360SOL     OW46890   8.456   6.508  12.610 -0.0339 -0.3573 -0.1188
47360SOL    HW146891   8.400   6.585  12.618 -0.7363 -0.5351 -2.6280
47360SOL    HW246892   8.396   6.434  12.612  0.5250 -0.8174  1.0143
47361SOL     OW46893  10.835   6.130   8.611  0.2321 -0.3976 -0.1229
47361SOL    HW146894  10.889   6.192   8.561  0.7023 -0.1183  0.7139
47361SOL    HW246895  10.866   6.044   8.583 -0.3740 -0.2783 -1.2385
47362SOL     OW46896   2.461  12.354   3.897  0.0617  0.1539 -0.7336
47362SOL    HW146897   2.407  12.428   3.868  0.4188  0.3869 -0.8251
47362SOL    HW246898   2.467  12.364   3.992 -1.9944 -1.2193 -0.4015
47363SOL     OW46899   5.198   4.722   3.623  0.6568  0.1276 -0.2239
47363SOL    HW146900   5.186   4.627   3.622 -0.9900  0.3106 -0.1626
47363SOL    HW246901   5.277   4.736   3.571  2.3428 -1.4137  1.7610
47364SOL     OW46902   8.186   5.220   7.223  0.0463  0.0356 -0.3569
47364SOL    HW146903   8.180   5.196   7.315  1.6270 -1.7423 -0.6655
47364SOL    HW246904   8.163   5.313   7.221  1.4160  0.5032  2.0345
47365SOL     OW46905  12.344   6.618  11.023 -0.6548 -0.0495  0.1750
47365SOL    HW146906  12.412   6.685  11.020 -0.9275  0.2622  0.8715
47365SOL    HW246907  12.323   6.602  10.931  0.1481  0.0648 -0.0353
47366SOL     OW46908   9.827   8.586   8.570  0.0745  0.0948 -0.0193
47366SOL    HW146909   9.783   8.502   8.561 -0.9425  0.3690  1.9160
47366SOL    HW246910   9.834   8.620   8.480 -1.1249 -1.2304 -0.6371
47367SOL     OW46911   3.191   5.757   7.830 -0.2740 -0.7139  0.3724
47367SOL    HW146912   3.277   5.716   7.824 -0.3797 -1.3042  2.3304
47367SOL    HW246913   3.157   5.730   7.915 -1.1283  1.9563  0.9868
47368SOL     OW46914   5.031   3.557   5.457 -0.0697  0.4974  0.1193
47368SOL    HW146915   5.062   3.468   5.473  1.2327  1.0101  0.5964
47368SOL    HW246916   4.987   3.553   5.373  1.4403 -0.2602 -0.6727
47369SOL     OW46917   7.716   7.006   6.762  0.3759  0.2776  0.2110
47369SOL    HW146918   7.704   7.086   6.813 -0.1693  2.0098 -2.4936
47369SOL    HW246919   7.811   6.999   6.751  0.4580  0.2265  0.8753
47370SOL     OW46920  10.416   6.378   9.346  0.4372  0.1191  0.4522
47370SOL    HW146921  10.396   6.315   9.277  0.6843 -0.1396  0.6097
47370SOL    HW246922  10.509   6.396   9.336  0.8944 -1.2671  1.7774
47371SOL     OW46923   0.676   5.222   8.735  0.0529  0.1742  0.0277
47371SOL    HW146924   0.732   5.230   8.812 -1.4333 -1.0536  1.3091
47371SOL    HW246925   0.736   5.204   8.662  1.5859  2.4088  0.6488
47372SOL     OW46926   4.982   9.486   6.851 -0.2249  0.1339  0.0010
47372SOL    HW146927   5.001   9.560   6.793  1.1226 -1.4378 -1.6778
47372SOL    HW246928   4.905   9.444   6.811  0.6858 -0.9320 -0.7033
47373SOL     OW46929   7.994   9.818   8.569 -0.8446 -0.5319  0.8877
47373SOL    HW146930   8.063   9.818   8.636 -0.0596  0.4858  0.1162
47373SOL    HW246931   7.936   9.747   8.595 -0.1722 -0.6275  2.2506
47374SOL     OW46932   5.661  12.477   1.853  0.5347  0.5527 -0.5057
47374SOL    HW146933   5.741  12.506   1.810 -0.0346  1.9307 -0.6971
47374SOL    HW246934   5.625  12.556   1.892 -0.2630 -0.2204  0.3613
47375SOL     OW46935   6.759   5.598   6.165 -0.1707 -0.0656  0.7901
47375SOL    HW146936   6.731   5.513   6.132  0.7925 -0.2071  0.3049
47375SOL    HW246937   6.817   5.577   6.238 -0.4415  0.1972  1.0858
47376SOL     OW46938   2.268  10.556  12.050  0.5707  0.5902  0.4258
47376SOL    HW146939   2.338  10.497  12.023 -0.5989 -0.2549 -0.9730
47376SOL    HW246940   2.207  10.500  12.098 -0.1242  0.8450 -0.1408
47377SOL     OW46941   9.245   4.410   9.519 -0.0464  0.3933  0.5316
47377SOL    HW146942   9.277   4.434   9.606  3.2836  1.0796 -0.7378
47377SOL    HW246943   9.295   4.332   9.495 -0.6579  0.4020 -0.9014
47378SOL     OW46944   4.871   8.684  12.596 -0.2882  0.0213  0.2146
47378SOL    HW146945   4.852   8.753  12.533  0.2697  0.0965  0.1226
47378SOL    HW246946   4.806   8.695  12.665 -0.0858  0.7656  0.2925
47379SOL     OW46947   8.509   5.490   5.957  0.1655  0.0986  0.1484
47379SOL    HW146948   8.493   5.558   5.892  0.3072  1.1997  1.2387
47379SOL    HW246949   8.501   5.408   5.908  1.0898  0.9004 -1.4375
47380SOL     OW46950   0.451   3.286   6.537  0.2929  0.1978  0.0274
47380SOL    HW146951   0.361   3.288   6.507  0.1237 -0.1860  0.4958
47380SOL    HW246952   0.502   3.324   6.465 -0.3733  1.5747  0.2581
47381SOL     OW46953   6.510   8.452   9.846  0.3653  0.8569 -0.2329
47381SOL    HW146954   6.500   8.378   9.786 -0.4441  1.3318 -0.7037
47381SOL    HW246955   6.496   8.530   9.791  0.0138  1.3140  0.4827
47382SOL     OW46956   9.027   8.280   3.561 -0.1935  0.3486 -0.2745
47382SOL    HW146957   9.017   8.355   3.503 -1.2019  1.0328  0.7476
47382SOL    HW246958   8.980   8.209   3.516 -1.8011  1.1190  0.1057
47383SOL     OW46959   3.245   5.435   7.838 -0.0334  0.8594 -0.3147
47383SOL    HW146960   3.161   5.471   7.870  0.3975  2.6394 -1.0256
47383SOL    HW246961   3.310   5.500   7.865  0.6559  1.2245 -2.6283
47384SOL     OW46962  10.993   9.976   6.174  0.0639 -0.1577 -0.2377
47384SOL    HW146963  10.911  10.022   6.153 -0.4556 -1.2601 -0.6774
47384SOL    HW246964  10.990   9.896   6.122  0.5126 -1.1587  1.2321
47385SOL     OW46965   6.945  12.521  10.804  0.4130  0.2017  0.4168
47385SOL    HW146966   6.961  12.614  10.819 -1.8142  1.0900 -1.9917
47385SOL    HW246967   6.860  12.518  10.760  0.7428 -2.9427 -0.2212
47386SOL     OW46968   5.636   7.401   6.195 -0.0979  0.1858 -0.6315
47386SOL    HW146969   5.694   7.440   6.261 -2.5184  0.6877  1.3766
47386SOL    HW246970   5.652   7.453   6.116  0.4941  1.8713  0.5271
47387SOL     OW46971  12.493   3.980   2.077 -0.0146  0.2934 -0.4182
47387SOL    HW146972  12.460   3.926   2.005 -0.8136 -0.3709  0.4181
47387SOL    HW246973  12.574   4.018   2.043  0.4265 -1.2028 -1.1400
47388SOL     OW46974   4.700   6.619   1.836  0.4177 -0.3275 -0.0065
47388SOL    HW146975   4.761   6.634   1.909 -0.0713 -1.0490  0.5563
47388SOL    HW246976   4.746   6.655   1.760  1.5532 -0.8320  0.4098
47389SOL     OW46977   6.124  10.469  11.036  0.1994  0.6105  0.0035
47389SOL    HW146978   6.143  10.550  11.084  2.6343  0.4267 -0.5145
47389SOL    HW246979   6.183  10.472  10.961  0.5422 -1.7621  0.1265
47390SOL     OW46980   3.138   8.543   2.862  0.1321 -0.0936 -0.4881
47390SOL    HW146981   3.227   8.545   2.896 -0.2382  0.2751  0.4857
47390SOL    HW246982   3.146   8.500   2.776  1.4831  1.4198 -1.1655
47391SOL     OW46983   3.353   2.508   5.337  0.0542  0.0913  0.1341
47391SOL    HW146984   3.375   2.590   5.294  2.2064 -0.4076  0.1411
47391SOL    HW246985   3.438   2.472   5.364 -0.8036 -2.2195 -0.0258
47392SOL     OW46986   2.542   8.752   7.498  0.0057  0.2144 -0.4662
47392SOL    HW146987   2.491   8.672   7.494  0.4272 -0.0950  0.2120
47392SOL    HW246988   2.485   8.814   7.544 -0.2174  0.2257 -0.7566
47393SOL     OW46989   7.560   5.010  11.165  0.4019  0.2308 -0.0429
47393SOL    HW146990   7.631   4.986  11.105  0.4342  1.6888 -0.6101
47393SOL    HW246991   7.552   5.105  11.158  1.0080  0.6114  2.9796
47394SOL     OW46992   4.586   1.066  12.430 -0.2691  0.0583 -0.1020
47394SOL    HW146993   4.512   1.027  12.384  1.1666 -1.0994 -1.5076
47394SOL    HW246994   4.623   1.129  12.368 -1.6177  2.7076  1.5662
47395SOL     OW46995   1.427  10.200  11.031 -0.4105 -0.6609 -0.5370
47395SOL    HW146996   1.516  10.222  11.004 -0.3885 -0.2788 -0.1570
47395SOL    HW246997   1.437  10.121  11.084  0.1567  1.2333  2.4023
47396SOL     OW46998   8.261   3.559   5.250 -0.2305 -0.3752 -0.5262
47396SOL    HW146999   8.209   3.607   5.314 -0.5595  1.4309 -2.0817
47396SOL    HW247000   8.271   3.472   5.289 -1.4765  0.2625  1.3818
47397SOL     OW47001   3.984   4.321   1.579  0.9295  0.6826 -0.4385
47397SOL    HW147002   4.075   4.292   1.578  0.7462  0.0972 -0.7437
47397SOL    HW247003   3.941   4.263   1.641 -0.1112 -1.9004 -3.3185
47398SOL     OW47004   5.893   6.445  11.377 -0.2132 -0.1533  0.0423
47398SOL    HW147005   5.976   6.479  11.343 -0.2594 -0.3050 -0.2255
47398SOL    HW247006   5.826   6.503  11.340 -0.2367 -0.0866  0.1855
47399SOL     OW47007   0.927   5.944   6.048 -0.0183 -0.3298 -0.0611
47399SOL    HW147008   0.922   5.853   6.018  1.1191 -0.5611  0.4061
47399SOL    HW247009   0.936   5.996   5.968 -1.0200 -0.5931 -0.3498
47400SOL     OW47010   4.263  11.672   1.917  0.3064  0.5324  0.7224
47400SOL    HW147011   4.303  11.723   1.848 -0.6608 -1.6125 -1.5743
47400SOL    HW247012   4.327  11.603   1.937  0.3006  0.7390  1.4873
47401SOL     OW47013   6.198   8.452   9.452 -0.0450  0.3291  0.1974
47401SOL    HW147014   6.236   8.406   9.377 -2.0885  1.0013 -1.3113
47401SOL    HW247015   6.186   8.542   9.422  1.3941  1.3011  2.2178
47402SOL     OW47016   0.535   0.951   2.811  0.0960 -0.2427 -0.3465
47402SOL    HW147017   0.536   0.988   2.899 -1.3991 -0.1369 -0.3446
47402SOL    HW247018   0.579   1.016   2.756  0.9429 -0.2638  0.2855
47403SOL     OW47019   8.620   1.786   5.535 -0.3101  0.2089  0.3968
47403SOL    HW147020   8.638   1.692   5.533  0.7278  0.3501  1.9319
47403SOL    HW247021   8.677   1.822   5.467 -1.3898 -0.3402 -0.8469
47404SOL     OW47022   4.224  12.017   8.458 -0.0529  0.0620 -0.2766
47404SOL    HW147023   4.233  12.059   8.543  0.7780 -0.1477 -0.2575
47404SOL    HW247024   4.294  11.953   8.454  1.1974  1.4124 -1.8816
47405SOL     OW47025   2.371  10.285   9.679  0.1098 -0.1791 -0.0955
47405SOL    HW147026   2.368  10.308   9.586 -1.8712 -1.0075 -0.3029
47405SOL    HW247027   2.279  10.270   9.702  0.5961 -0.2631  1.9346
47406SOL     OW47028   9.759  10.345   7.145  0.2051 -0.1099 -0.1353
47406SOL    HW147029   9.727  10.357   7.234  2.6034  0.9837  0.6458
47406SOL    HW247030   9.735  10.426   7.100  0.5870  0.0983  0.0346
47407SOL     OW47031   6.512   9.833   3.137  0.3411 -0.2600  0.2307
47407SOL    HW147032   6.537   9.858   3.048  2.1536 -0.7088  0.5726
47407SOL    HW247033   6.419   9.810   3.130  0.3439  0.0853 -1.4594
47408SOL     OW47034   0.992   9.642  10.005 -0.7018  0.1590  0.2624
47408SOL    HW147035   1.071   9.696  10.001 -0.3605 -0.1241  2.2028
47408SOL    HW247036   0.993   9.605  10.093 -0.6594 -3.4583 -1.0918
47409SOL     OW47037   8.859   1.951   4.484  0.4064  0.0849  0.4860
47409SOL    HW147038   8.913   1.959   4.405  0.6889 -0.9006  0.5740
47409SOL    HW247039   8.907   2.001   4.550  0.2841  0.7232  0.1027
47410SOL     OW47040   1.836   4.440   2.826 -0.1104  0.7664  0.1163
47410SOL    HW147041   1.812   4.462   2.916  0.0190  1.0574  0.0812
47410SOL    HW247042   1.761   4.467   2.773 -2.4323 -3.8634  0.5860
47411SOL     OW47043   7.302   2.749   6.295 -0.4979 -0.3322  0.1961
47411SOL    HW147044   7.370   2.682   6.283 -0.2667 -0.0623 -0.0344
47411SOL    HW247045   7.349   2.831   6.282 -0.5833 -0.0891  1.3747
47412SOL     OW47046   1.216   4.489   7.928 -0.2270 -0.5052 -0.0034
47412SOL    HW147047   1.156   4.469   7.856 -0.2669 -1.3357  0.2531
47412SOL    HW247048   1.257   4.405   7.949  0.5381 -0.0745  0.2636
47413SOL     OW47049   6.507   6.609   4.900  0.6758  0.2195  0.0675
47413SOL    HW147050   6.462   6.541   4.851  1.2610  0.8907 -1.4427
47413SOL    HW247051   6.493   6.585   4.992 -0.7227 -0.8813 -0.3940
47414SOL     OW47052   1.462   8.710   2.382  0.5199  0.3657  0.1500
47414SOL    HW147053   1.406   8.698   2.305  0.4478  1.7516 -0.0446
47414SOL    HW247054   1.472   8.805   2.389 -1.2506  0.4588  3.1292
47415SOL     OW47055   8.473   1.540   2.959  0.3714  0.1671 -0.3072
47415SOL    HW147056   8.527   1.542   2.879 -1.3650 -0.0143 -1.5429
47415SOL    HW247057   8.384   1.523   2.927 -0.6765  1.8336  1.5121
47416SOL     OW47058   4.952   9.439   3.072 -0.0417 -0.1365 -0.1002
47416SOL    HW147059   4.924   9.394   2.992 -0.5110  0.7671 -0.4594
47416SOL    HW247060   4.918   9.527   3.063  1.5553  0.5470  0.2027
47417SOL     OW47061   6.698   9.538   8.130  0.0318  0.2547  0.4444
47417SOL    HW147062   6.671   9.566   8.218 -1.0575  0.5042  0.0430
47417SOL    HW247063   6.663   9.605   8.071  0.8764  0.1639 -0.1783
47418SOL     OW47064   1.456   3.211   1.184 -0.3464  0.5774 -0.0935
47418SOL    HW147065   1.410   3.220   1.268 -0.6284  1.6447 -0.3457
47418SOL    HW247066   1.417   3.133   1.144 -3.7078  2.6344 -1.2983
47419SOL     OW47067   6.949   2.674   9.050  0.6033  0.3643  0.0455
47419SOL    HW147068   6.912   2.592   9.019 -3.3492  2.5445 -1.8544
47419SOL    HW247069   7.004   2.704   8.977  0.5694  0.2382 -0.0323
47420SOL     OW47070   0.633   8.479   1.728  0.1734 -0.2899  0.0541
47420SOL    HW147071   0.667   8.390   1.724 -0.7055 -0.5934 -1.1492
47420SOL    HW247072   0.641   8.512   1.638 -1.7428 -0.0264 -0.0606
47421SOL     OW47073   3.607   3.401  10.852 -0.2287  0.6420  0.3287
47421SOL    HW147074   3.655   3.419  10.772 -0.0709  0.1771  0.3174
47421SOL    HW247075   3.558   3.482  10.869  1.0151  1.3418  0.6713
47422SOL     OW47076   9.397   5.520   8.368  0.7002 -0.1767  0.1164
47422SOL    HW147077   9.404   5.603   8.321  3.4317 -0.9435 -1.0197
47422SOL    HW247078   9.343   5.465   8.311 -0.2515  0.4571  0.3790
47423SOL     OW47079   2.578  12.187   8.281 -0.0622  0.4578 -0.3189
47423SOL    HW147080   2.559  12.101   8.244 -0.2723  0.0974  0.5967
47423SOL    HW247081   2.493  12.233   8.279 -0.5585 -0.2885  1.5389
47424SOL     OW47082   9.904   2.063   8.443  0.0587 -0.0033  0.7211
47424SOL    HW147083   9.879   2.149   8.477  0.8519  0.2884  0.5944
47424SOL    HW247084   9.849   2.051   8.365  1.0765  1.1215 -0.1989
47425SOL     OW47085   6.536   4.932   9.268 -0.2800 -0.2993 -0.2607
47425SOL    HW147086   6.457   4.901   9.224 -0.7965  0.2317  0.2860
47425SOL    HW247087   6.581   4.851   9.295 -0.5212 -0.6056 -0.7596
47426SOL     OW47088  11.762   5.559  10.332 -0.5069 -0.5892  0.2267
47426SOL    HW147089  11.783   5.610  10.253  0.6769  1.0085  1.5082
47426SOL    HW247090  11.829   5.584  10.395 -0.7520 -2.7168  1.4022
47427SOL     OW47091   6.159   7.372   8.073 -0.4809  0.8448 -0.1104
47427SOL    HW147092   6.159   7.392   8.166 -1.6868 -0.4488  0.1940
47427SOL    HW247093   6.110   7.290   8.065  2.2052 -0.7558 -1.5590
47428SOL     OW47094   7.622  11.419  10.686  0.4394  0.1473  0.1592
47428SOL    HW147095   7.553  11.377  10.635  1.6970 -0.8099 -0.8339
47428SOL    HW247096   7.583  11.436  10.771 -1.0519 -0.2378 -0.4225
47429SOL     OW47097   8.540   3.470  10.050 -0.4903  0.5240 -0.5183
47429SOL    HW147098   8.616   3.506  10.096 -0.0128 -0.2728 -0.6804
47429SOL    HW247099   8.465   3.504  10.099  0.0070 -0.0864  0.7030
47430SOL     OW47100  11.168   5.965   2.331  0.3875  0.5851  0.2198
47430SOL    HW147101  11.143   6.058   2.332  0.0188  0.4857  0.2594
47430SOL    HW247102  11.166   5.939   2.423  0.8846  0.6384  0.2512
47431SOL     OW47103  11.208  11.962   5.876 -0.2402 -0.7928 -0.1307
47431SOL    HW147104  11.142  11.947   5.808 -1.2897  1.0894  0.4199
47431SOL    HW247105  11.265  12.029   5.839 -1.0198  0.4999  0.9298
47432SOL     OW47106   8.279   6.132   1.315 -0.2471 -0.2308  0.3664
47432SOL    HW147107   8.254   6.189   1.388  1.5203  0.4595  0.4817
47432SOL    HW247108   8.364   6.097   1.339 -0.6305 -1.7746 -0.3931
47433SOL     OW47109   1.896  10.635  10.553 -0.1781  0.0058 -0.2624
47433SOL    HW147110   1.919  10.726  10.571  1.1747 -0.3990  0.1814
47433SOL    HW247111   1.883  10.596  10.639  1.5734 -0.7728 -0.3098
47434SOL     OW47112   8.825   8.027   9.238 -0.2760  0.3250 -0.7422
47434SOL    HW147113   8.878   7.969   9.183 -0.6200  0.1797 -0.9212
47434SOL    HW247114   8.770   8.075   9.176 -1.9340 -1.0886 -0.4364
47435SOL     OW47115   7.780  10.281   6.643  0.3203 -0.1114 -0.6907
47435SOL    HW147116   7.761  10.245   6.556  2.6033  1.9037 -2.1269
47435SOL    HW247117   7.870  10.314   6.636  0.6027  0.0511  2.4906
47436SOL     OW47118  10.488   1.249   9.575 -0.6937 -0.3897  0.1222
47436SOL    HW147119  10.418   1.234   9.638 -2.4783  0.9197 -1.4412
47436SOL    HW247120  10.452   1.217   9.492  1.1079 -0.9111 -0.5060
47437SOL     OW47121   2.065   1.021   4.933  0.0964  0.2388  0.0069
47437SOL    HW147122   2.048   1.057   4.846 -1.5842  0.6552  0.4620
47437SOL    HW247123   1.994   0.959   4.948  1.7431 -1.7310  0.1219
47438SOL     OW47124   5.892   2.942   2.512  0.2367 -0.1592  0.0724
47438SOL    HW147125   5.961   2.982   2.459 -0.4770  0.1103 -0.6852
47438SOL    HW247126   5.908   2.848   2.505 -0.8135 -0.2453 -2.0647
47439SOL     OW47127   7.729  11.987  11.161  0.5820 -0.4424 -0.1153
47439SOL    HW147128   7.780  12.068  11.165  0.5197 -0.4169  0.1776
47439SOL    HW247129   7.794  11.917  11.170  0.6207 -0.4242 -0.2442
47440SOL     OW47130   6.200   1.661  10.809 -0.4362  0.2806 -0.4659
47440SOL    HW147131   6.235   1.575  10.831  0.9765  0.9715  0.1600
47440SOL    HW247132   6.189   1.659  10.714  0.3673 -0.3276 -0.5564
47441SOL     OW47133  10.376   7.404   1.415  0.7148  0.1307  0.1235
47441SOL    HW147134  10.423   7.467   1.360  1.7791 -0.4827  0.2932
47441SOL    HW247135  10.320   7.356   1.354  0.8261  0.4103 -0.2032
47442SOL     OW47136   8.019   0.168   1.887  0.2054 -0.3984  0.0544
47442SOL    HW147137   7.961   0.242   1.903  1.3896  0.7707 -0.8500
47442SOL    HW247138   8.015   0.156   1.792  0.6203 -0.9918  0.1096
47443SOL     OW47139  11.204   8.233   5.576 -0.0103  0.0408  0.1048
47443SOL    HW147140  11.250   8.317   5.569 -0.8706  0.4621 -0.7394
47443SOL    HW247141  11.246   8.189   5.649  0.9808  0.8824  0.0684
47444SOL     OW47142   3.753   9.716  10.215 -0.2529  0.5677  0.3151
47444SOL    HW147143   3.670   9.761  10.231 -1.0264 -0.2808 -1.1177
47444SOL    HW247144   3.730   9.642  10.159  1.6654  1.1854 -1.4209
47445SOL     OW47145   3.439  10.841   4.975 -0.9911 -0.2200  0.6003
47445SOL    HW147146   3.348  10.849   5.004 -0.8744  0.1080  0.8839
47445SOL    HW247147   3.478  10.927   4.994 -0.6494 -0.3228  0.3857
47446SOL     OW47148   4.216   5.199  10.900 -0.3452 -0.3963 -0.2963
47446SOL    HW147149   4.254   5.286  10.888  1.3994 -1.0755 -0.0389
47446SOL    HW247150   4.133   5.202  10.851  0.5848  0.8111 -1.9140
47447SOL     OW47151   0.453   3.292   0.101  0.1112 -0.3798 -0.4041
47447SOL    HW147152   0.360   3.296   0.079  0.0319 -0.1572 -0.0382
47447SOL    HW247153   0.488   3.222   0.046 -0.8990 -2.6838  1.7186
47448SOL     OW47154   4.071   9.982   7.140  0.4077 -0.1415 -0.5281
47448SOL    HW147155   4.078   9.887   7.129  0.3408 -0.2937  0.5711
47448SOL    HW247156   4.097   9.997   7.231 -1.5106  0.6646 -0.0724
47449SOL     OW47157   9.499   5.274   8.870 -0.1078  0.5455 -0.1478
47449SOL    HW147158   9.531   5.267   8.961  0.6589 -2.0321 -0.5138
47449SOL    HW247159   9.411   5.236   8.873  0.6517 -1.3833 -0.7409
47450SOL     OW47160   0.619  12.374   2.775  0.4181 -0.2734  0.3864
47450SOL    HW147161   0.524  12.386   2.780  0.0944 -1.1723 -2.3764
47450SOL    HW247162   0.645  12.417   2.694  2.4643  0.2746  1.2660
47451SOL     OW47163   4.663   1.493   5.612 -0.3914  0.0258 -0.2119
47451SOL    HW147164   4.571   1.465   5.606 -0.1869 -0.5276 -0.9823
47451SOL    HW247165   4.663   1.582   5.578 -0.8518  0.5480  1.0904
47452SOL     OW47166   3.351   9.597   7.014 -0.0843  0.0855 -0.1367
47452SOL    HW147167   3.417   9.646   7.063 -0.6795  1.3198 -0.5236
47452SOL    HW247168   3.276   9.657   7.009  0.2945  0.4775 -3.4500
47453SOL     OW47169   6.583   5.703   2.885 -0.2657  0.0166  0.3567
47453SOL    HW147170   6.553   5.613   2.874 -0.1231  0.0626 -0.4287
47453SOL    HW247171   6.534   5.735   2.961 -2.3476  0.1330 -0.9463
47454SOL     OW47172   3.363   2.032   3.575 -0.4405 -0.0903 -0.3246
47454SOL    HW147173   3.338   2.002   3.487 -0.7378  0.8068 -0.5628
47454SOL    HW247174   3.370   1.952   3.627 -0.1894 -0.6390 -1.1836
47455SOL     OW47175   0.415   3.119   6.270  0.2922  0.2330  0.2771
47455SOL    HW147176   0.364   3.039   6.284  0.7778 -0.2320 -0.5235
47455SOL    HW247177   0.389   3.150   6.183  1.3581 -0.0191 -0.1515
47456SOL     OW47178   1.570   7.635  11.882 -0.1098 -0.0990  0.2558
47456SOL    HW147179   1.492   7.581  11.872  0.0709 -0.3505  0.1821
47456SOL    HW247180   1.571   7.692  11.805  0.3608 -0.8485 -0.3105
47457SOL     OW47181   4.506  10.075   9.909 -0.0613  0.0630 -0.2626
47457SOL    HW147182   4.575  10.140   9.897  0.0553  0.0168  0.1409
47457SOL    HW247183   4.552   9.991   9.911 -0.3830 -0.2482 -2.7702
47458SOL     OW47184   7.325   2.150   6.372  0.0231  0.1650 -0.3705
47458SOL    HW147185   7.340   2.225   6.430 -0.0553 -0.6862  0.7879
47458SOL    HW247186   7.407   2.140   6.324  0.1464  0.7798 -0.2956
47459SOL     OW47187  12.351   0.895  11.255  0.4105  0.2461 -1.1363
47459SOL    HW147188  12.405   0.970  11.231 -0.3591  0.8536 -1.0237
47459SOL    HW247189  12.275   0.933  11.299  0.9695 -0.7205  0.7920
47460SOL     OW47190  10.483  11.596   4.982  0.4551 -0.0910 -0.2360
47460SOL    HW147191  10.515  11.526   5.039  2.2806 -0.7894 -1.9925
47460SOL    HW247192  10.560  11.650   4.965 -0.0735  0.2146 -1.8256
47461SOL     OW47193   1.081   9.253   5.951 -0.6598 -0.1027 -0.1580
47461SOL    HW147194   1.072   9.277   6.043  2.2070 -0.7053  0.3650
47461SOL    HW247195   1.130   9.170   5.952  0.1303  0.2782 -2.2371
47462SOL     OW47196   6.178   8.450   2.192 -0.0231  0.7025  0.3066
47462SOL    HW147197   6.108   8.503   2.153  1.0613  1.8673 -0.1154
47462SOL    HW247198   6.214   8.506   2.260  1.6818  0.8624 -0.6825
47463SOL     OW47199   3.292   9.313   4.809  0.3936  0.7159  0.6377
47463SOL    HW147200   3.276   9.220   4.827  2.8260  0.4546  1.9762
47463SOL    HW247201   3.219   9.359   4.851 -0.6010 -0.5616  0.3458
47464SOL     OW47202   4.695  10.472  10.670 -0.0805 -0.0303  0.1626
47464SOL    HW147203   4.662  10.554  10.633  1.1121  1.2677  1.8248
47464SOL    HW247204   4.749  10.435  10.601 -0.0599  0.9520 -0.3642
47465SOL     OW47205   3.023   8.873   1.994  0.0400 -0.0847  0.1103
47465SOL    HW147206   3.111   8.897   2.021  0.0548 -0.7211  0.6436
47465SOL    HW247207   2.985   8.830   2.070  0.1114 -2.0228 -0.8867
47466SOL     OW47208   0.799  10.946   8.097 -0.5589 -0.4178  0.1055
47466SOL    HW147209   0.886  10.966   8.062 -0.4099 -0.6151  0.3614
47466SOL    HW247210   0.774  11.025   8.145 -1.1560  0.2130 -1.1992
47467SOL     OW47211  12.251   6.052  10.749  0.0540 -0.6682 -0.0862
47467SOL    HW147212  12.286   6.099  10.672  0.7898  0.2073  0.7515
47467SOL    HW247213  12.233   5.964  10.717 -1.3534  0.1470 -1.7160
47468SOL     OW47214   9.872   6.986   7.187 -0.3354  0.4235  0.0496
47468SOL    HW147215   9.854   7.079   7.200  1.1543  0.5563  1.5698
47468SOL    HW247216   9.841   6.945   7.268  1.7631  0.0604  0.7230
47469SOL     OW47217   6.444   4.800  11.914 -0.0941  1.1929 -0.5495
47469SOL    HW147218   6.387   4.870  11.944  0.8606  2.1491 -0.9223
47469SOL    HW247219   6.508   4.789  11.985 -1.3653 -0.6785  0.4030
47470SOL     OW47220   6.152  10.858   7.188  0.4056 -0.2381  0.4465
47470SOL    HW147221   6.131  10.927   7.126  1.8592  0.6384  0.8786
47470SOL    HW247222   6.089  10.869   7.259  0.0398  0.0543  0.0776
47471SOL     OW47223   1.510   1.316   9.014 -0.6784 -0.4819  0.4597
47471SOL    HW147224   1.496   1.391   8.956 -0.1472  0.2815  1.2824
47471SOL    HW247225   1.604   1.319   9.033 -0.9786 -0.1794  2.0300
47472SOL     OW47226   7.204   6.596   0.315 -0.4213  0.2531  0.1156
47472SOL    HW147227   7.228   6.605   0.222  0.1088  1.3598  0.3356
47472SOL    HW247228   7.112   6.620   0.319 -0.4054  0.3527 -0.1065
47473SOL     OW47229  10.624   2.327   9.985  0.0049 -0.1667 -0.7146
47473SOL    HW147230  10.576   2.250   9.953 -0.6472 -0.1165  0.1197
47473SOL    HW247231  10.557   2.385  10.019  0.5736  0.3989 -0.5379
47474SOL     OW47232   4.742   2.429  11.017 -0.0100  0.5115 -0.0176
47474SOL    HW147233   4.722   2.516  10.982 -0.1324  1.0665  1.3796
47474SOL    HW247234   4.702   2.369  10.955 -0.2434  1.4539 -0.8144
47475SOL     OW47235  12.061   5.134   4.156  0.1160  0.1039 -0.5676
47475SOL    HW147236  11.999   5.137   4.229 -1.1534 -0.1823 -1.6170
47475SOL    HW247237  12.126   5.069   4.183  0.4522  0.9727  0.8857
47476SOL     OW47238   3.350   4.096   6.592 -0.1856 -0.0169  0.4382
47476SOL    HW147239   3.431   4.071   6.548 -0.9914 -0.5857 -0.7678
47476SOL    HW247240   3.376   4.165   6.653  0.9926  0.8168 -0.9443
47477SOL     OW47241   1.095   6.566   2.501 -0.4398 -0.1353  0.3475
47477SOL    HW147242   1.097   6.585   2.594  0.6426 -0.0427  0.3234
47477SOL    HW247243   1.093   6.470   2.496  0.7570 -0.1809  0.4814
47478SOL     OW47244  10.171  12.089   6.239  0.5814  0.2510  0.1554
47478SOL    HW147245  10.237  12.095   6.170 -1.0142 -1.5819 -1.6538
47478SOL    HW247246  10.097  12.140   6.206  0.0719 -0.0092  0.8766
47479SOL     OW47247   5.918   9.150   4.420 -0.3210  0.4769  0.1810
47479SOL    HW147248   5.848   9.088   4.400  0.0756  0.2899 -0.6993
47479SOL    HW247249   5.964   9.111   4.495 -1.3729  0.7945  1.0179
47480SOL     OW47250  11.475   4.167   3.294 -0.1827  0.0949  0.4470
47480SOL    HW147251  11.382   4.187   3.308 -0.7600  0.2884 -2.9253
47480SOL    HW247252  11.499   4.216   3.215  2.0670 -1.9573 -0.2667
47481SOL     OW47253   2.510   9.606   8.613  0.2163 -0.1177 -0.2406
47481SOL    HW147254   2.568   9.668   8.658  2.1420 -1.1158 -1.2409
47481SOL    HW247255   2.452   9.573   8.682 -0.7982  2.6115  0.3657
47482SOL     OW47256   3.633  12.316   9.779  0.0522  0.6766  0.2109
47482SOL    HW147257   3.607  12.306   9.871  2.8349 -0.4674  0.9984
47482SOL    HW247258   3.651  12.409   9.769 -0.0711  0.7822  0.9113
47483SOL     OW47259  10.374   3.897   0.279  0.6079 -0.8406  0.0044
47483SOL    HW147260  10.432   3.967   0.249 -0.7684 -0.4800 -2.0314
47483SOL    HW247261  10.299   3.942   0.317  0.1878 -1.2001 -0.3769
47484SOL     OW47262  12.371  11.758  11.703  0.3848 -0.4608 -0.1695
47484SOL    HW147263  12.399  11.756  11.612  0.7563  1.1163 -0.1151
47484SOL    HW247264  12.451  11.774  11.753  0.0343 -0.2885  0.3498
47485SOL     OW47265  11.865  11.939  11.048  0.3036 -0.1864  0.4101
47485SOL    HW147266  11.785  11.965  11.094  0.6841 -0.4664  1.2398
47485SOL    HW247267  11.888  12.015  10.995 -0.5893 -0.1574  0.0572
47486SOL     OW47268   4.393  12.264  10.894 -0.0049  0.2331  0.2917
47486SOL    HW147269   4.480  12.258  10.856 -0.4654  1.9922 -1.2348
47486SOL    HW247270   4.391  12.351  10.934 -0.4398 -0.5538  2.0616
47487SOL     OW47271  11.778   2.173   0.401 -0.1361  0.4644  0.0346
47487SOL    HW147272  11.728   2.205   0.476  0.4094  0.0077  0.6195
47487SOL    HW247273  11.857   2.228   0.400  0.4396 -0.3139  0.5731
47488SOL     OW47274   3.617   0.244   5.284  0.7362  0.1277 -0.1547
47488SOL    HW147275   3.647   0.265   5.196  1.0684 -2.0137 -0.6215
47488SOL    HW247276   3.620   0.327   5.331  2.7914  0.9099 -1.5056
47489SOL     OW47277   9.957   7.833   3.529  0.5641 -0.1755 -0.4382
47489SOL    HW147278   9.960   7.847   3.435 -0.4805  0.2616 -0.4295
47489SOL    HW247279   9.968   7.739   3.541 -0.3297 -0.3767 -1.0826
47490SOL     OW47280   4.726   3.914   7.499 -0.2956 -0.3206 -0.2898
47490SOL    HW147281   4.818   3.892   7.513 -0.4814 -0.4996  0.7831
47490SOL    HW247282   4.679   3.836   7.529 -0.7908 -0.3668 -1.1654
47491SOL     OW47283   8.520   4.083   2.131  0.2588 -0.1666 -0.5780
47491SOL    HW147284   8.526   3.990   2.109 -1.0138 -0.6468  0.9373
47491SOL    HW247285   8.435   4.093   2.173  0.6975  1.5295  0.0019
47492SOL     OW47286  10.460   2.269   9.256  0.1626 -0.6676  0.2375
47492SOL    HW147287  10.404   2.330   9.210  0.1922  0.2659  1.3871
47492SOL    HW247288  10.496   2.320   9.329 -0.4381 -2.2664  1.7019
47493SOL     OW47289   7.541   5.343  10.359  0.5206  0.2457 -0.3351
47493SOL    HW147290   7.484   5.386  10.423  0.3363 -0.6185  0.1004
47493SOL    HW247291   7.533   5.396  10.280 -1.1747 -0.0451 -0.3912
47494SOL     OW47292   1.218   8.525   2.708 -0.2257 -0.3726 -0.0476
47494SOL    HW147293   1.167   8.606   2.708 -0.6402 -0.6119  1.1102
47494SOL    HW247294   1.163   8.462   2.660  1.3039  0.6788 -3.5002
47495SOL     OW47295  10.854   9.151   0.877 -0.1717 -0.6795 -0.3172
47495SOL    HW147296  10.901   9.177   0.798  0.7378 -0.2041  0.3636
47495SOL    HW247297  10.816   9.066   0.856 -0.5960 -0.2052 -1.5248
47496SOL     OW47298   7.833  11.420   3.576 -0.2517  0.4039 -0.0102
47496SOL    HW147299   7.814  11.492   3.636 -0.6747 -0.2353  0.6370
47496SOL    HW247300   7.800  11.342   3.621 -0.5552 -0.0910 -1.0619
47497SOL     OW47301  11.612   1.006   4.259  0.4243  0.6187  0.2340
47497SOL    HW147302  11.522   1.010   4.291  0.4511  0.7122  0.2969
47497SOL    HW247303  11.656   0.946   4.319 -0.3766 -2.0612 -1.6488
47498SOL     OW47304  10.896  11.183   3.709 -0.6705 -0.3069 -0.1333
47498SOL    HW147305  10.817  11.132   3.721 -0.9964  0.5341  1.5292
47498SOL    HW247306  10.905  11.192   3.614 -2.3178 -0.7779 -0.3550
47499SOL     OW47307   7.917   1.877   6.656  0.3367 -0.2322 -0.7107
47499SOL    HW147308   7.880   1.966   6.655 -0.0957 -0.3736  0.8081
47499SOL    HW247309   7.991   1.882   6.716  0.5523 -0.8175 -0.9213
47500SOL     OW47310  10.127   4.187   0.276  0.4002  0.2143 -0.0147
47500SOL    HW147311  10.078   4.259   0.315 -1.1330 -0.7993  0.0053
47500SOL    HW247312  10.192   4.164   0.342 -0.7038 -0.0078  1.0375
47501SOL     OW47313   2.566   7.762  11.519  0.6817 -0.1207 -0.0998
47501SOL    HW147314   2.515   7.832  11.560  1.3889  0.2815  0.1047
47501SOL    HW247315   2.639   7.807  11.476  1.7532 -0.7907  0.9365
47502SOL     OW47316   2.686   6.712   2.016  0.2865 -0.1540 -0.2198
47502SOL    HW147317   2.691   6.627   1.971 -0.4563 -0.8092  0.8804
47502SOL    HW247318   2.593   6.723   2.034  0.2973  1.2313 -0.9347
47503SOL     OW47319  12.631   8.172   6.668  0.2765 -0.2750  0.4797
47503SOL    HW147320  12.596   8.261   6.674  1.7273  0.3150  0.5333
47503SOL    HW247321  12.602   8.129   6.748 -0.8159 -0.0074  0.2459
47504SOL     OW47322   0.204   2.994  10.001  0.0396  0.4635  0.1588
47504SOL    HW147323   0.256   3.074  10.007  0.4012  0.3419 -1.1005
47504SOL    HW247324   0.214   2.966   9.910 -1.1217 -0.3134  0.2517
47505SOL     OW47325   7.534   6.995   7.097 -0.3282 -0.3295  0.4086
47505SOL    HW147326   7.472   6.937   7.142  0.4145 -1.6653 -0.2107
47505SOL    HW247327   7.499   7.002   7.008 -1.1928  1.4026  0.8392
47506SOL     OW47328   5.421  10.918   1.268 -0.4577  0.2251  0.0696
47506SOL    HW147329   5.500  10.889   1.313 -0.6432  0.6196  0.6555
47506SOL    HW247330   5.362  10.844   1.274 -0.8421  0.6095  1.3531
47507SOL     OW47331   6.874   3.114   5.259 -0.8143  0.2998  0.4958
47507SOL    HW147332   6.842   3.099   5.348 -0.6850  1.3761  0.7449
47507SOL    HW247333   6.934   3.042   5.242  0.4562  0.9454  1.9322
47508SOL     OW47334  11.886  12.577   5.208  0.1447 -0.1745 -0.0385
47508SOL    HW147335  11.898  12.521   5.130  1.0879 -2.0422  1.3716
47508SOL    HW247336  11.814  12.536   5.255 -0.3677  0.9072  0.1513
47509SOL     OW47337  10.703  12.329   7.532 -0.4478 -0.0854 -0.5479
47509SOL    HW147338  10.753  12.322   7.450 -1.6146  1.2134 -1.4265
47509SOL    HW247339  10.616  12.297   7.508 -0.6618 -0.1605  0.3308
47510SOL     OW47340   9.248  11.036  11.303  0.0870  0.0937 -1.0466
47510SOL    HW147341   9.176  11.028  11.365 -0.6479  0.0793 -1.8831
47510SOL    HW247342   9.268  10.946  11.277  1.0906  0.0109 -0.0778
47511SOL     OW47343   5.519   6.623   8.465 -0.3319 -0.0263 -0.0308
47511SOL    HW147344   5.496   6.544   8.415  1.2710  0.1222 -1.0655
47511SOL    HW247345   5.581   6.593   8.531 -0.8809  0.1327  0.5701
47512SOL     OW47346   9.275   3.855   7.690  0.1871  0.0625 -0.1529
47512SOL    HW147347   9.205   3.793   7.712  0.0356 -0.3362 -1.6261
47512SOL    HW247348   9.242   3.901   7.612  0.3094  1.9957  0.8569
47513SOL     OW47349   4.569   7.021   3.889 -0.1164  0.2487  0.2373
47513SOL    HW147350   4.608   7.092   3.837  0.5458  0.8241  1.4749
47513SOL    HW247351   4.518   7.066   3.956  0.2372 -0.4372  0.9828
47514SOL     OW47352  10.795  10.361   6.342  0.1496 -0.3099  0.3904
47514SOL    HW147353  10.720  10.417   6.320 -0.8784 -1.0779  1.7908
47514SOL    HW247354  10.755  10.278   6.370  1.5825 -1.1840 -0.0611
47515SOL     OW47355  11.934  11.005  11.956  0.0498 -0.3777  0.0271
47515SOL    HW147356  11.876  10.931  11.976  0.6526 -1.1096 -0.8662
47515SOL    HW247357  12.020  10.979  11.989 -0.0164  0.5524  1.0132
47516SOL     OW47358   5.409   0.781  10.825  0.3376  0.4215  0.2920
47516SOL    HW147359   5.378   0.694  10.798  2.0192 -0.0572 -0.2353
47516SOL    HW247360   5.447   0.767  10.911  2.6921  0.0835 -0.7303
47517SOL     OW47361  10.145   0.215   1.953 -0.3766  0.3163 -0.0663
47517SOL    HW147362  10.161   0.265   1.873 -0.7907  0.1700 -0.2432
47517SOL    HW247363  10.056   0.241   1.980 -0.7747 -0.6458 -0.4055
47518SOL     OW47364   5.921   0.284   3.193  0.0517  0.0515 -0.5017
47518SOL    HW147365   5.994   0.274   3.132  0.0866  1.4303 -0.7138
47518SOL    HW247366   5.913   0.379   3.206 -2.3720  0.0273 -1.3310
47519SOL     OW47367   8.645   7.480   8.117 -0.3709 -0.1579 -0.2242
47519SOL    HW147368   8.717   7.437   8.071 -0.3560  0.2944 -0.6319
47519SOL    HW247369   8.688   7.552   8.164 -0.5505  0.0887 -0.4371
47520SOL     OW47370   2.837  12.574   4.683 -0.4034  0.0303 -0.5424
47520SOL    HW147371   2.777  12.648   4.680 -0.8636 -0.3745 -1.6440
47520SOL    HW247372   2.780  12.497   4.691 -0.0582 -0.3583 -1.6173
47521SOL     OW47373   0.849   3.665   8.026  0.0777  0.4035  0.4946
47521SOL    HW147374   0.934   3.687   7.987 -0.7847 -0.3140 -1.9925
47521SOL    HW247375   0.790   3.734   7.994 -0.4294  0.5085  1.6261
47522SOL     OW47376   6.993   1.828   9.296 -0.1895  0.0624 -0.0628
47522SOL    HW147377   7.064   1.888   9.274  0.9340 -1.1499  0.1200
47522SOL    HW247378   6.976   1.844   9.389 -1.1533  1.3297 -0.4248
47523SOL     OW47379  10.785   0.268  11.630  0.8054 -0.4809  0.0107
47523SOL    HW147380  10.837   0.228  11.560  1.0051 -0.2835  0.0427
47523SOL    HW247381  10.752   0.195  11.681 -2.4025 -0.9151 -2.3808
47524SOL     OW47382   0.519   8.922   6.516 -0.2520  0.3881  0.2413
47524SOL    HW147383   0.555   8.882   6.595  1.1757  0.8574 -0.1442
47524SOL    HW247384   0.486   8.847   6.465  0.3850 -0.0907  0.5114
47525SOL     OW47385   2.966   3.279   9.486 -0.3274  0.2151  0.2439
47525SOL    HW147386   3.044   3.226   9.471  0.7393  1.6422  0.5161
47525SOL    HW247387   2.921   3.281   9.401 -1.5973 -2.8304  0.6956
47526SOL     OW47388   6.557   6.257   2.540 -0.2093 -0.7308 -0.1959
47526SOL    HW147389   6.565   6.172   2.497 -0.2187 -0.9027  0.1390
47526SOL    HW247390   6.607   6.317   2.484 -1.3354 -0.6736 -1.1920
47527SOL     OW47391   9.816   1.964   7.282 -0.8656 -0.5016  0.0553
47527SOL    HW147392   9.798   1.937   7.372 -1.6693  1.7671  0.6388
47527SOL    HW247393   9.909   1.986   7.282 -1.1246  0.7066  0.7242
47528SOL     OW47394   0.420   7.754   8.514 -0.7854  0.1092 -0.0725
47528SOL    HW147395   0.354   7.759   8.445  0.0248  0.1850 -0.8736
47528SOL    HW247396   0.446   7.845   8.530  0.3241 -0.0147 -0.9973
47529SOL     OW47397   7.814   6.360   1.785 -0.2371  0.0029  0.8154
47529SOL    HW147398   7.768   6.402   1.858 -0.6285  0.9350  0.0509
47529SOL    HW247399   7.891   6.320   1.825  0.6308  2.2189  1.4605
47530SOL     OW47400  12.069  11.308   3.780  0.3231 -0.3634  0.0902
47530SOL    HW147401  12.076  11.367   3.855  0.0075  0.3065 -0.3994
47530SOL    HW247402  12.148  11.254   3.784  0.3913 -0.2224  0.8037
47531SOL     OW47403  11.114   6.263   2.323 -0.2766  0.1690  0.6464
47531SOL    HW147404  11.144   6.354   2.322 -1.2387  0.5032  0.8012
47531SOL    HW247405  11.037   6.262   2.265 -0.2760 -0.5492  0.6428
47532SOL     OW47406   2.434   5.963   9.596  0.0239 -0.2054  0.3832
47532SOL    HW147407   2.454   5.965   9.502 -0.3546 -0.0933  0.3011
47532SOL    HW247408   2.383   5.883   9.608 -0.3286  0.0243  0.4101
47533SOL     OW47409   5.275   2.032  10.909 -0.1725  0.4528 -0.0527
47533SOL    HW147410   5.205   1.978  10.871 -0.3490 -1.6311  2.8809
47533SOL    HW247411   5.237   2.068  10.989  1.5657  0.6888  0.7066
47534SOL     OW47412  11.484  11.046   0.620 -0.1459 -0.3590  0.2103
47534SOL    HW147413  11.439  10.987   0.680 -0.8882 -0.1664 -0.1468
47534SOL    HW247414  11.577  11.032   0.638 -0.2468 -2.4626 -0.6420
47535SOL     OW47415   8.670  10.858  11.049  0.2960 -0.0672  0.3343
47535SOL    HW147416   8.697  10.943  11.084 -0.9960 -0.1752  1.6973
47535SOL    HW247417   8.575  10.857  11.060  0.1433 -1.1883 -0.8388
47536SOL     OW47418  11.752   8.271   8.012  0.0581 -0.0027  0.0316
47536SOL    HW147419  11.677   8.328   7.993  0.4862  1.3167  1.9373
47536SOL    HW247420  11.741   8.196   7.954 -1.2590  1.4098 -1.6530
47537SOL     OW47421   6.896   4.328  11.878 -0.4149 -0.4868  0.1839
47537SOL    HW147422   6.810   4.353  11.846  0.3446  2.9985  0.4712
47537SOL    HW247423   6.880   4.298  11.968 -1.3916 -0.7916 -0.0761
47538SOL     OW47424   4.034   0.497   2.765  0.1663  0.2401  0.1114
47538SOL    HW147425   4.129   0.489   2.761  0.2530  1.5187 -2.1911
47538SOL    HW247426   4.006   0.425   2.821  2.5197  0.2639  1.4247
47539SOL     OW47427   4.906  10.971   0.812 -0.1287  0.1087  0.4115
47539SOL    HW147428   4.810  10.976   0.818 -0.0764  0.4359  1.1619
47539SOL    HW247429   4.934  10.948   0.901  0.5092  0.3824  0.2894
47540SOL     OW47430   1.112   3.096  11.160 -0.2871  0.2707 -0.1866
47540SOL    HW147431   1.115   3.090  11.065 -0.4149 -0.7041 -0.1379
47540SOL    HW247432   1.055   3.171  11.177 -0.0742  0.5946 -0.8751
47541SOL     OW47433   5.695  11.363   6.155 -0.1406 -0.3741  0.2115
47541SOL    HW147434   5.628  11.324   6.211 -0.9559 -0.1430 -0.5861
47541SOL    HW247435   5.772  11.307   6.167 -0.9348 -1.5490 -0.0303
47542SOL     OW47436   8.421   8.935   1.685  0.0821  0.5629 -0.1601
47542SOL    HW147437   8.446   8.994   1.615 -1.4411  0.5584 -0.7430
47542SOL    HW247438   8.336   8.967   1.715 -0.1927 -0.5749  0.3576
47543SOL     OW47439  10.965   2.960  11.193 -0.5634  0.1696 -0.5792
47543SOL    HW147440  11.054   2.980  11.162 -0.8094  0.6635 -0.9711
47543SOL    HW247441  10.957   2.866  11.183  0.8564 -0.3183  1.9158
47544SOL     OW47442   5.111   3.116   8.156 -0.1118  0.4688  0.0741
47544SOL    HW147443   5.150   3.109   8.243  0.8259 -2.7321 -0.4616
47544SOL    HW247444   5.018   3.097   8.170 -0.6881  3.3077  0.7129
47545SOL     OW47445   7.034  11.005   7.853 -0.3974 -0.4067 -0.2089
47545SOL    HW147446   7.058  10.995   7.945  0.2799  0.8820 -0.2066
47545SOL    HW247447   6.940  10.990   7.850 -0.1416 -2.3302  0.3601
47546SOL     OW47448   4.277  10.975   3.782 -0.1944  0.2568  0.2115
47546SOL    HW147449   4.269  11.066   3.754 -0.8138 -0.0660 -0.7131
47546SOL    HW247450   4.361  10.971   3.829  0.3509  1.0757 -0.6604
47547SOL     OW47451   1.048   9.371   6.174 -0.7994  0.4078 -0.0003
47547SOL    HW147452   1.128   9.383   6.224 -0.2453  0.2541 -0.8344
47547SOL    HW247453   0.991   9.320   6.232  1.0329 -2.6696 -0.6569
47548SOL     OW47454   0.559   5.017   3.601  0.3454  0.2905  0.3343
47548SOL    HW147455   0.533   5.108   3.616 -0.2967  0.1128  0.3551
47548SOL    HW247456   0.529   4.970   3.680  1.4016  0.2012  0.6885
47549SOL     OW47457   7.377   3.055   7.180  0.0382  0.0922  0.1203
47549SOL    HW147458   7.347   3.145   7.169 -0.1752 -0.0289 -0.2985
47549SOL    HW247459   7.297   3.005   7.195  0.3029  0.2318  2.2001
47550SOL     OW47460  11.433  12.183   0.289 -0.4398  0.3924  0.3508
47550SOL    HW147461  11.365  12.156   0.227 -1.1547  1.2291  0.7436
47550SOL    HW247462  11.413  12.134   0.369  0.3681 -0.5434 -0.0034
47551SOL     OW47463   1.074   9.864  12.422 -0.5096  0.5963  0.1510
47551SOL    HW147464   0.988   9.904  12.436 -0.9573  0.3418 -1.6620
47551SOL    HW247465   1.057   9.769  12.424 -0.1759  0.5386  0.3164
47552SOL     OW47466   3.679   6.603   7.385 -0.1197  0.2958 -0.1883
47552SOL    HW147467   3.605   6.546   7.406  1.0471 -0.6296  1.6743
47552SOL    HW247468   3.647   6.692   7.400 -0.3954 -0.1636  2.2875
47553SOL     OW47469  11.451   1.880   2.830 -0.8484  0.0603  0.3034
47553SOL    HW147470  11.423   1.844   2.745 -1.9346  0.9179  0.2929
47553SOL    HW247471  11.515   1.816   2.862  1.8059  1.0935 -2.4681
47554SOL     OW47472   2.876  12.013  11.288  0.2338  0.4480  0.5465
47554SOL    HW147473   2.827  12.041  11.211 -1.1625  0.9322  1.5707
47554SOL    HW247474   2.931  12.088  11.310 -1.2066  1.2756  1.4569
47555SOL     OW47475   1.376   5.385  12.444  0.2752  0.4106  0.0341
47555SOL    HW147476   1.423   5.309  12.478  0.0422  0.0808 -0.3746
47555SOL    HW247477   1.444   5.452  12.433  0.7006 -0.1441 -0.7999
47556SOL     OW47478   7.536   8.749   1.083 -0.0968  0.1434 -0.5058
47556SOL    HW147479   7.572   8.734   0.995 -0.7617 -1.1952 -0.5813
47556SOL    HW247480   7.511   8.841   1.084  3.3304  1.2163 -0.4265
47557SOL     OW47481  12.405   0.220   5.796 -0.3349 -0.2212 -0.1733
47557SOL    HW147482  12.347   0.170   5.738 -1.2782 -0.7479  1.1749
47557SOL    HW247483  12.399   0.310   5.764 -1.5117 -0.3572 -0.3924
47558SOL     OW47484   8.331   7.926   5.520 -0.3778 -0.2229 -0.8774
47558SOL    HW147485   8.281   7.907   5.440  1.0905  0.6810 -2.0655
47558SOL    HW247486   8.410   7.873   5.511 -1.4264 -2.3867  1.4357
47559SOL     OW47487   4.102   1.455   7.833  0.9575 -0.0886 -0.4514
47559SOL    HW147488   4.068   1.515   7.899  0.7492  1.1536 -1.6346
47559SOL    HW247489   4.188   1.429   7.867  1.5060  1.6933 -0.3552
47560SOL     OW47490   2.338   6.869   4.641 -0.3509 -0.5239 -0.0131
47560SOL    HW147491   2.413   6.911   4.599 -0.6117 -0.0761 -0.0453
47560SOL    HW247492   2.292   6.941   4.683  0.5680 -1.1065  2.1138
47561SOL     OW47493   2.826   1.013   1.306  0.3907 -0.3122 -0.0627
47561SOL    HW147494   2.915   1.045   1.321  1.0319 -1.1958 -1.7870
47561SOL    HW247495   2.836   0.920   1.286 -0.9429 -0.4772 -0.0578
47562SOL     OW47496   0.841  12.525   6.439  0.1272  0.0234  0.4582
47562SOL    HW147497   0.747  12.520   6.421  0.5091 -0.0290 -1.8255
47562SOL    HW247498   0.869  12.434   6.449  0.1515 -0.0477 -0.2219
47563SOL     OW47499   8.016   8.275   4.089  0.3507 -0.0304 -0.1620
47563SOL    HW147500   7.985   8.189   4.116  2.7324 -1.2798 -1.1308
47563SOL    HW247501   7.938   8.319   4.054 -1.4346 -0.7745  2.5648
47564SOL     OW47502   2.432   3.030   3.262  0.0939 -0.3007 -0.6430
47564SOL    HW147503   2.420   3.100   3.327  1.8670 -0.2397 -0.3536
47564SOL    HW247504   2.512   2.985   3.289  0.1675 -1.0821 -2.0751
47565SOL     OW47505  11.891   8.201   7.218  0.4444  0.0244 -0.5826
47565SOL    HW147506  11.946   8.126   7.196 -0.6117 -0.6297 -1.0761
47565SOL    HW247507  11.854   8.179   7.304 -1.5492 -1.0656 -1.6505
47566SOL     OW47508   6.072   3.534   8.293  1.0091 -0.3979 -0.3834
47566SOL    HW147509   6.051   3.534   8.386  1.1003  1.6149 -0.3047
47566SOL    HW247510   6.165   3.556   8.289  0.5120  1.8332 -0.9486
47567SOL     OW47511   8.821  12.486   6.438  0.1215 -0.6482 -0.2543
47567SOL    HW147512   8.727  12.471   6.436  0.2565 -1.6026 -2.9474
47567SOL    HW247513   8.851  12.437   6.515 -1.3377 -2.1683 -0.5823
47568SOL     OW47514   9.655   2.250   9.913 -0.1330  0.5631 -0.6926
47568SOL    HW147515   9.573   2.299   9.910  0.0337  0.8858 -0.1542
47568SOL    HW247516   9.633   2.168   9.956 -0.2317  0.5252 -0.8146
47569SOL     OW47517   4.725   3.404   0.484 -0.0066 -0.0880  0.1082
47569SOL    HW147518   4.676   3.425   0.404  0.8485 -0.3436 -0.5006
47569SOL    HW247519   4.714   3.310   0.494  0.8664 -0.2508 -0.3887
47570SOL     OW47520   2.879   6.780   5.964  0.3215  0.5856 -0.1860
47570SOL    HW147521   2.895   6.800   6.056 -0.8563  1.1882 -0.1024
47570SOL    HW247522   2.800   6.829   5.941 -1.1554 -1.8449 -0.7133
47571SOL     OW47523   8.534   5.835   5.419 -0.1634 -0.5810  0.5072
47571SOL    HW147524   8.446   5.835   5.380 -0.6612 -0.9711  1.6002
47571SOL    HW247525   8.579   5.763   5.376 -0.2415 -0.1591 -0.3204
47572SOL     OW47526   3.223  11.953   1.487 -0.2886  0.0258 -0.1343
47572SOL    HW147527   3.160  11.914   1.426 -0.3703 -0.3045  0.1608
47572SOL    HW247528   3.307  11.912   1.464  0.2618  2.0261 -1.9615
47573SOL     OW47529   3.032   3.954   6.759 -0.4218  0.0069  0.1710
47573SOL    HW147530   2.944   3.918   6.747 -0.1680 -1.0297  1.2252
47573SOL    HW247531   3.024   4.013   6.834 -0.1050 -0.5814  0.6808
47574SOL     OW47532   8.022   5.608   0.047 -0.1999  0.1779 -0.0958
47574SOL    HW147533   8.067   5.602   0.132  0.4674  0.4169 -0.4284
47574SOL    HW247534   7.985   5.521   0.033  0.4250 -0.1106  0.0349
47575SOL     OW47535   0.456   3.365   6.807 -0.1108  0.1949 -0.2102
47575SOL    HW147536   0.477   3.340   6.717  1.6028 -2.5876  0.8466
47575SOL    HW247537   0.539   3.393   6.845 -0.9915  2.2967  0.3073
47576SOL     OW47538   0.933   3.168   0.788 -0.0700  0.3298 -0.2209
47576SOL    HW147539   0.857   3.169   0.730  0.0805  0.6678 -0.4129
47576SOL    HW247540   0.897   3.183   0.875 -0.3303 -0.4513 -0.1854
47577SOL     OW47541   5.518  11.294   6.663  0.2068 -0.0408 -0.1486
47577SOL    HW147542   5.458  11.227   6.695 -0.6086  0.2948 -0.9327
47577SOL    HW247543   5.593  11.290   6.722 -1.0250  0.2218  1.5018
47578SOL     OW47544   6.301   9.184  12.442  0.4697  0.1470 -0.4820
47578SOL    HW147545   6.283   9.222  12.528  4.3331 -2.2617  1.6739
47578SOL    HW247546   6.359   9.247  12.399 -0.6379  0.8733 -0.9515
47579SOL     OW47547   3.428  10.842  11.710  0.7309 -0.2335 -0.0662
47579SOL    HW147548   3.503  10.901  11.715  1.4315 -1.1800  1.0624
47579SOL    HW247549   3.430  10.808  11.620  0.1642  1.5914 -0.8213
47580SOL     OW47550   7.747   8.575   4.274 -0.6464  0.3618 -0.2610
47580SOL    HW147551   7.706   8.628   4.343  0.7261  3.3560 -1.5732
47580SOL    HW247552   7.721   8.618   4.193  0.5357 -1.0441 -1.4248
47581SOL     OW47553   3.563   7.945   0.193 -0.5070 -0.3284 -0.5558
47581SOL    HW147554   3.581   7.984   0.278 -2.8515  1.0289 -0.5829
47581SOL    HW247555   3.564   7.851   0.209  2.3473 -0.2816  0.1699
47582SOL     OW47556   3.645   0.972   7.944  0.4009  0.0120  0.4033
47582SOL    HW147557   3.655   0.883   7.977 -2.0915 -0.7930 -0.7684
47582SOL    HW247558   3.730   0.993   7.905  0.8388 -2.1309  0.0797
47583SOL     OW47559  11.410   3.229   7.131  0.0142  0.1044 -0.0169
47583SOL    HW147560  11.423   3.137   7.154 -0.2902  0.3128  1.0141
47583SOL    HW247561  11.422   3.277   7.213 -0.6340  0.9095 -0.3739
47584SOL     OW47562  10.243   3.273  10.437  0.1939  0.1099  0.3278
47584SOL    HW147563  10.233   3.202  10.373  0.9391 -0.9157  1.3080
47584SOL    HW247564  10.229   3.230  10.522  0.0187  1.2827  0.9018
47585SOL     OW47565   4.304  10.112  10.098  0.0167 -0.1965 -0.4725
47585SOL    HW147566   4.363  10.075  10.033  1.4426  0.9773  0.0928
47585SOL    HW247567   4.300  10.046  10.167  0.1306 -0.5692 -0.8175
47586SOL     OW47568   2.449   1.563   0.010  0.2016  0.1648 -0.5183
47586SOL    HW147569   2.511   1.490   0.004  0.7864  0.4130  1.5543
47586SOL    HW247570   2.503   1.637   0.038 -0.9963  0.3535  1.4958
47587SOL     OW47571  10.752   3.348   8.764  0.5042 -0.0802  0.5405
47587SOL    HW147572  10.713   3.348   8.676 -1.1432 -0.9518  1.2324
47587SOL    HW247573  10.817   3.277   8.762 -1.0089 -1.5207  0.6068
47588SOL     OW47574  10.120   1.155   3.749 -0.1282 -0.1288  0.3742
47588SOL    HW147575  10.202   1.193   3.780  0.5289 -1.4196  0.2750
47588SOL    HW247576  10.072   1.229   3.712  0.1108  1.0307  2.2227
47589SOL     OW47577   2.644  11.748   8.187  0.0224 -0.3116 -0.2720
47589SOL    HW147578   2.707  11.743   8.259 -1.3669  1.4639  1.1640
47589SOL    HW247579   2.607  11.660   8.182  1.2374 -0.8698  0.1290
47590SOL     OW47580   0.525   0.909   9.195  0.4408 -0.2547  0.2859
47590SOL    HW147581   0.508   0.871   9.109  0.8743 -1.1372  0.5765
47590SOL    HW247582   0.486   0.996   9.191  2.0277  0.4512 -1.4473
47591SOL     OW47583   3.262   4.056   0.174 -0.0582  0.2526  0.1394
47591SOL    HW147584   3.193   3.997   0.145  0.4946 -0.7120  0.7718
47591SOL    HW247585   3.339   4.001   0.184 -0.0065  0.6949  2.6183
47592SOL     OW47586   1.357   0.152   9.505  0.9420 -0.3156 -0.2655
47592SOL    HW147587   1.294   0.175   9.572  0.0557 -2.2421 -0.3851
47592SOL    HW247588   1.355   0.225   9.443  2.5262  2.0043  2.2082
47593SOL     OW47589  11.178  10.965   4.108  0.5014  0.0281 -0.1238
47593SOL    HW147590  11.261  10.923   4.131  1.0231  0.0229 -1.8823
47593SOL    HW247591  11.137  10.905   4.046  0.0765  0.9283 -0.7341
47594SOL     OW47592   1.073   1.865   7.035  0.2257  0.0844  0.9823
47594SOL    HW147593   1.031   1.819   7.108 -0.4864 -1.5546 -0.4072
47594SOL    HW247594   1.002   1.884   6.974  1.2201 -1.5444 -0.8008
47595SOL     OW47595  12.139   0.001   4.375 -0.0591  0.2833 -0.1965
47595SOL    HW147596  12.159  -0.002   4.468  2.0989 -0.6037 -0.6253
47595SOL    HW247597  12.177   0.084   4.345  1.3167 -0.4853 -0.6632
47596SOL     OW47598   1.195   2.157   1.662  0.6365 -0.1940 -0.4035
47596SOL    HW147599   1.263   2.219   1.636  2.1976 -2.3944 -1.9170
47596SOL    HW247600   1.228   2.118   1.743  0.6547 -0.4823 -0.5481
47597SOL     OW47601   7.995   8.107   1.328  0.0031 -0.2886 -0.6799
47597SOL    HW147602   8.078   8.059   1.320 -0.0802 -0.3524 -1.2407
47597SOL    HW247603   8.016   8.195   1.296 -0.1672 -0.3333 -0.9179
47598SOL     OW47604  12.454  10.673  10.769 -0.0430  0.2415  0.2285
47598SOL    HW147605  12.477  10.649  10.679  1.1336 -1.2732  0.8664
47598SOL    HW247606  12.406  10.597  10.803 -1.4507  1.2480  0.5594
47599SOL     OW47607   8.927   9.686   7.747 -0.3069  0.0444  0.1137
47599SOL    HW147608   8.904   9.772   7.711 -1.0763 -0.7957 -1.5643
47599SOL    HW247609   8.874   9.625   7.695  1.3070 -1.5500  0.2727
47600SOL     OW47610   0.722   9.925   1.211 -0.0557 -0.3146  0.2046
47600SOL    HW147611   0.630   9.941   1.233 -0.5432 -0.4730 -1.5920
47600SOL    HW247612   0.733   9.830   1.221 -0.1878 -0.3431  0.0817
47601SOL     OW47613   6.826   6.993   5.479  0.6407 -0.5688  0.4253
47601SOL    HW147614   6.790   7.018   5.394 -1.2240 -1.2792  0.9469
47601SOL    HW247615   6.888   6.923   5.460 -0.1993 -1.1276 -0.3121
47602SOL     OW47616   0.999   3.477   2.197 -0.6640  0.2817  0.5637
47602SOL    HW147617   1.041   3.549   2.151  0.6619  1.1751  2.9410
47602SOL    HW247618   0.914   3.466   2.154  0.6138  0.7051 -2.2551
47603SOL     OW47619   1.291   6.315   7.158 -0.1080 -0.6127  0.5585
47603SOL    HW147620   1.358   6.350   7.217  0.7949 -1.5585  0.1368
47603SOL    HW247621   1.320   6.225   7.140 -0.5697 -0.4863 -0.9837
47604SOL     OW47622   7.618   4.236   0.761 -0.0180 -0.1333  0.1523
47604SOL    HW147623   7.622   4.168   0.828 -1.6412 -0.0752  0.3366
47604SOL    HW247624   7.555   4.203   0.696 -0.7560  1.1224  0.1873
47605SOL     OW47625  10.810   5.490   4.429 -0.5960 -0.0054 -0.0386
47605SOL    HW147626  10.761   5.413   4.457  1.1195 -0.9300  0.5584
47605SOL    HW247627  10.902   5.464   4.435  0.0126  1.8426 -0.5670
47606SOL     OW47628   2.342   9.019   8.220  0.1970 -0.1302  0.4337
47606SOL    HW147629   2.418   8.963   8.202 -0.2286 -0.6713  0.2909
47606SOL    HW247630   2.380   9.100   8.255  0.9284  0.1831 -1.0139
47607SOL     OW47631   8.471   2.682   8.379 -0.1585 -0.2545  0.3547
47607SOL    HW147632   8.434   2.599   8.409 -1.4931  0.0448 -0.3827
47607SOL    HW247633   8.399   2.744   8.387  0.2589  0.4224 -0.8948
47608SOL     OW47634  12.172   1.514   0.362  0.6250  0.6055  0.0289
47608SOL    HW147635  12.243   1.450   0.367  0.9803  1.0423  0.6658
47608SOL    HW247636  12.133   1.499   0.276  1.7356  0.6173 -0.4962
47609SOL     OW47637   9.574   2.909   9.575  0.1842 -0.2581  0.0089
47609SOL    HW147638   9.644   2.948   9.523 -0.9328 -0.9494 -2.1049
47609SOL    HW247639   9.512   2.981   9.591  0.9065  0.1460  1.1499
47610SOL     OW47640   7.478   5.408  10.783  0.3722  0.2919  0.2767
47610SOL    HW147641   7.438   5.398  10.870  1.9956  1.1667  1.1609
47610SOL    HW247642   7.540   5.335  10.777 -0.1773 -0.1329 -0.4290
47611SOL     OW47643   3.293   3.719   0.470 -0.0757 -0.4091 -0.4203
47611SOL    HW147644   3.300   3.648   0.406  1.2386 -1.4100  0.7888
47611SOL    HW247645   3.335   3.686   0.549 -1.9459  0.6678  1.1279
47612SOL     OW47646   4.407   8.644  10.517  0.3411 -0.2948 -0.5384
47612SOL    HW147647   4.381   8.650  10.609 -1.1703 -0.6718 -0.9183
47612SOL    HW247648   4.501   8.631  10.519  0.1912 -1.2563  0.9829
47613SOL     OW47649   2.623   3.254   7.135 -0.3349  0.0371 -0.1649
47613SOL    HW147650   2.576   3.215   7.209  0.6403 -2.0998 -0.6050
47613SOL    HW247651   2.588   3.343   7.129 -2.0823 -0.4781  1.4141
47614SOL     OW47652   4.620   0.784   2.083 -0.0978  0.4866  0.1041
47614SOL    HW147653   4.604   0.864   2.033 -3.6109  0.0855  0.3001
47614SOL    HW247654   4.566   0.795   2.162 -0.0600 -1.7289  0.5038
47615SOL     OW47655   9.776   8.683   2.903  0.2374  0.3686 -0.3951
47615SOL    HW147656   9.696   8.657   2.948  0.9128  0.3345  0.8335
47615SOL    HW247657   9.751   8.689   2.810 -0.8424 -0.9733 -0.2225
47616SOL     OW47658   7.523   0.594  11.932  0.1998  0.3845 -0.0438
47616SOL    HW147659   7.520   0.510  11.888 -1.1035 -0.0769  0.8831
47616SOL    HW247660   7.597   0.640  11.891  0.6597 -1.0257 -0.8472
47617SOL     OW47661   8.002  11.155   2.723 -0.2030 -0.6566 -0.1630
47617SOL    HW147662   7.954  11.130   2.802 -0.2442  2.0829  0.7833
47617SOL    HW247663   8.087  11.112   2.732 -0.3536 -0.7108  1.1554
47618SOL     OW47664   8.408   1.527   3.680 -0.1878  0.8068 -0.7350
47618SOL    HW147665   8.339   1.464   3.658 -0.3373  0.8488 -0.3936
47618SOL    HW247666   8.489   1.477   3.672 -0.3308  0.4360 -0.0336
47619SOL     OW47667  12.170  10.320   1.421 -0.5170 -0.4657 -0.0972
47619SOL    HW147668  12.207  10.255   1.360 -0.0081 -0.8561  0.6088
47619SOL    HW247669  12.081  10.333   1.391  0.5250  1.5399 -2.7429
47620SOL     OW47670  10.207   4.627   1.017 -0.3169 -0.0450 -0.2712
47620SOL    HW147671  10.121   4.638   1.057  0.6605  1.4412  1.5849
47620SOL    HW247672  10.220   4.705   0.963 -0.0781 -0.1954 -0.4375
47621SOL     OW47673   0.492   1.319   2.786 -0.2683  0.1270  0.0381
47621SOL    HW147674   0.501   1.407   2.749 -1.0351 -0.1504 -0.8666
47621SOL    HW247675   0.455   1.267   2.714 -1.1958 -0.5861  1.0039
47622SOL     OW47676  11.839   9.091   4.427 -0.1636 -0.1077 -0.2572
47622SOL    HW147677  11.781   9.021   4.395  0.4760 -0.1598 -1.3845
47622SOL    HW247678  11.883   9.052   4.502 -0.6284 -0.5302 -0.1923
47623SOL     OW47679   7.186   2.747   1.231  0.1913 -0.0778  0.1026
47623SOL    HW147680   7.261   2.689   1.217 -0.7531 -2.1461  2.6623
47623SOL    HW247681   7.221   2.818   1.286  0.5728 -0.2373  0.0661
47624SOL     OW47682   2.563   7.871  12.235 -0.3949 -1.0103 -0.2472
47624SOL    HW147683   2.497   7.860  12.304  0.6729  0.3283  1.0567
47624SOL    HW247684   2.640   7.824  12.267  0.6913  1.0776  0.3857
47625SOL     OW47685   4.436   3.719   7.333 -0.5434  0.2953 -0.6113
47625SOL    HW147686   4.516   3.696   7.285  0.5215  1.6336  0.4393
47625SOL    HW247687   4.386   3.638   7.336  0.0598 -0.2082 -2.6079
47626SOL     OW47688   0.837  12.395   8.403 -1.0920  0.2382  0.1088
47626SOL    HW147689   0.884  12.470   8.367 -0.5435  0.5195  1.3742
47626SOL    HW247690   0.796  12.354   8.326 -0.3836  1.1016 -0.7603
47627SOL     OW47691   0.021   0.999   2.566 -0.1441 -0.1101  0.0156
47627SOL    HW147692  -0.007   1.090   2.578 -1.5298 -0.8148  3.1240
47627SOL    HW247693   0.040   0.992   2.473 -0.5736  3.1897 -0.4408
47628SOL     OW47694   5.078   2.622  11.579 -0.2624  0.2166  0.0171
47628SOL    HW147695   4.986   2.648  11.574  0.0852  1.7480  0.7992
47628SOL    HW247696   5.126   2.705  11.584  0.9834 -0.5389  2.1251
47629SOL     OW47697   3.781   5.395   1.010 -0.0519  0.7880 -0.1394
47629SOL    HW147698   3.725   5.399   0.933  0.4179 -1.0500 -0.6189
47629SOL    HW247699   3.861   5.441   0.984 -0.0705  0.5603 -0.6015
47630SOL     OW47700   2.125   7.413   4.493 -0.2399  0.3592 -0.9852
47630SOL    HW147701   2.039   7.406   4.451 -0.6105  1.1480 -0.3580
47630SOL    HW247702   2.186   7.382   4.425 -1.0785 -1.1683 -1.1053
47631SOL     OW47703   6.476   1.879   6.105 -0.1246 -0.1377  0.4831
47631SOL    HW147704   6.510   1.842   6.023  1.9404  0.2684  1.0983
47631SOL    HW247705   6.428   1.958   6.077 -0.1388 -0.4385 -0.3896
47632SOL     OW47706   5.503   2.802   0.273 -0.1218  0.5158  0.0098
47632SOL    HW147707   5.422   2.771   0.234 -0.4003  0.8226  0.3414
47632SOL    HW247708   5.526   2.734   0.338 -1.1274  1.3329  1.2689
47633SOL     OW47709   6.847   8.201   9.311  0.1386 -0.6660 -0.3314
47633SOL    HW147710   6.829   8.291   9.337  0.3513 -0.6623 -0.1965
47633SOL    HW247711   6.793   8.147   9.369  0.4616 -0.6499 -0.0175
47634SOL     OW47712   3.363   3.138   8.077  0.1549  0.3769 -0.1839
47634SOL    HW147713   3.305   3.146   8.000 -0.2818  0.0823  0.1122
47634SOL    HW247714   3.326   3.199   8.141  1.0862  1.3486 -0.5468
47635SOL     OW47715   6.492  10.726   8.458  0.4627  0.3060  0.0035
47635SOL    HW147716   6.547  10.801   8.481  2.0180 -0.3422 -1.4390
47635SOL    HW247717   6.453  10.749   8.374 -0.9297  0.4305  0.6476
47636SOL     OW47718  11.252   5.572   4.794  0.4244 -0.1718 -0.4402
47636SOL    HW147719  11.345   5.565   4.814  0.3805  2.5663  1.2631
47636SOL    HW247720  11.241   5.662   4.761 -1.5074 -0.6749 -1.3254
47637SOL     OW47721   4.500   3.890   6.146  0.0556  0.3184  0.1637
47637SOL    HW147722   4.525   3.938   6.224 -0.6590  0.3804  0.3638
47637SOL    HW247723   4.513   3.798   6.169 -1.9406  0.2043  1.0549
47638SOL     OW47724  11.757   6.943   3.102 -0.2226 -0.3668  0.6099
47638SOL    HW147725  11.710   6.900   3.031  1.2939  1.1093 -1.4008
47638SOL    HW247726  11.779   6.872   3.163  0.6066 -2.1559 -1.6426
47639SOL     OW47727   1.767  11.735  10.088  0.2353  0.3176 -0.4589
47639SOL    HW147728   1.861  11.737  10.068  0.8645 -1.7496  1.7284
47639SOL    HW247729   1.743  11.642  10.084 -1.0358  0.4851  1.5331
47640SOL     OW47730   4.855   0.866   1.210 -0.4471  0.2326  0.3938
47640SOL    HW147731   4.836   0.939   1.270 -1.0203  0.1054  0.3731
47640SOL    HW247732   4.784   0.803   1.226 -0.8570  0.3870 -0.7201
47641SOL     OW47733   5.191   0.148   8.962  0.4696  0.6867  0.1317
47641SOL    HW147734   5.158   0.087   8.896 -2.3160  2.1751  0.0191
47641SOL    HW247735   5.145   0.122   9.042  0.2046  1.8488  0.3656
47642SOL     OW47736   8.677   3.876   8.247  0.4424  0.0403  0.2891
47642SOL    HW147737   8.648   3.795   8.289  0.7092  0.6588  1.7655
47642SOL    HW247738   8.762   3.854   8.210 -0.1240 -0.7247 -0.6221
47643SOL     OW47739   9.086   1.898   0.600 -0.0524  0.1415  0.0050
47643SOL    HW147740   9.014   1.880   0.661  1.1564 -1.0461  1.1649
47643SOL    HW247741   9.061   1.980   0.557 -3.1268 -1.3067 -1.2642
47644SOL     OW47742  12.150   6.383   5.811  0.0785 -0.1708 -0.0565
47644SOL    HW147743  12.217   6.321   5.780  0.8934  0.5631  0.1841
47644SOL    HW247744  12.103   6.336   5.880  0.8996 -0.4147  0.3481
47645SOL     OW47745   0.024   3.845   3.876  0.2226  0.4415  0.3217
47645SOL    HW147746   0.113   3.831   3.908  0.5606 -0.5278 -0.9776
47645SOL    HW247747  -0.025   3.870   3.954  1.2817 -0.6004  1.3653
47646SOL     OW47748   3.931   6.076   6.881  0.3031  0.1120 -0.1261
47646SOL    HW147749   4.006   6.074   6.940  0.8713  0.2210 -0.8282
47646SOL    HW247750   3.860   6.113   6.933  0.0532 -2.1402  1.3052
47647SOL     OW47751   1.830   6.734  10.309  0.5752 -0.2962  0.4175
47647SOL    HW147752   1.813   6.741  10.215  0.4892  1.1315  0.5061
47647SOL    HW247753   1.905   6.791  10.323 -1.0723  1.7233  1.5945
47648SOL     OW47754  11.070   0.677   8.006  0.2610 -0.2669 -0.0408
47648SOL    HW147755  11.086   0.752   8.063  0.3365 -0.0858 -0.2960
47648SOL    HW247756  11.009   0.622   8.055 -0.9210  0.6528 -0.4384
47649SOL     OW47757   6.585   0.256  11.516  0.3589  0.5946 -0.2234
47649SOL    HW147758   6.617   0.195  11.450 -0.0179  0.9340 -0.7229
47649SOL    HW247759   6.550   0.199  11.586  0.8186  0.2382 -0.2791
47650SOL     OW47760   5.589  12.199   3.814 -0.3868 -0.4136  0.0829
47650SOL    HW147761   5.614  12.281   3.857  2.7282 -1.0847 -0.2526
47650SOL    HW247762   5.661  12.139   3.832 -2.0213 -2.7310 -0.6994
47651SOL     OW47763   7.107   7.012   0.897 -0.3028  0.1318 -0.1215
47651SOL    HW147764   7.124   6.917   0.899 -2.5674 -0.3421 -0.7049
47651SOL    HW247765   7.170   7.046   0.834 -0.2737 -1.2030 -0.8575
47652SOL     OW47766   5.605   8.769   7.586  0.4211  0.1958  0.3881
47652SOL    HW147767   5.624   8.676   7.574  0.8976  0.5252 -1.8121
47652SOL    HW247768   5.691   8.810   7.594  0.3153  0.6807 -0.8267
47653SOL     OW47769  10.543   7.952   4.354  0.1198  0.4800 -0.2683
47653SOL    HW147770  10.475   7.979   4.292 -1.0315 -0.2647  0.6360
47653SOL    HW247771  10.530   8.008   4.430 -0.5077 -0.7110  0.5299
47654SOL     OW47772   5.190   8.490   2.701 -0.3647  0.0024  0.4115
47654SOL    HW147773   5.244   8.557   2.743  0.6267  0.1276 -0.9861
47654SOL    HW247774   5.224   8.408   2.736  1.2958  0.0375 -1.0061
47655SOL     OW47775   5.885   0.928  10.138 -0.3830  0.3285 -0.2586
47655SOL    HW147776   5.804   0.936  10.088  0.1952 -1.6138 -1.6251
47655SOL    HW247777   5.885   0.838  10.170 -0.3731  1.2661  2.7497
47656SOL     OW47778   9.762  11.292   8.547 -0.0990 -0.2853 -0.4101
47656SOL    HW147779   9.822  11.217   8.539 -0.0580 -0.5432  1.7496
47656SOL    HW247780   9.819  11.369   8.542  0.2284 -0.4897  0.0529
47657SOL     OW47781  10.168   6.698   7.456  0.0458 -0.4616 -0.3163
47657SOL    HW147782  10.095   6.650   7.418 -0.8142  0.1941  0.4520
47657SOL    HW247783  10.174   6.778   7.404  1.3585 -1.2714 -1.4769
47658SOL     OW47784   0.631   6.744   3.686 -0.3856  0.1644 -0.2637
47658SOL    HW147785   0.688   6.679   3.727  0.5148  0.0161 -1.6839
47658SOL    HW247786   0.559   6.756   3.748 -0.5749 -2.1875  0.0347
47659SOL     OW47787   2.569  10.019   8.921 -0.2373 -0.2636  0.0698
47659SOL    HW147788   2.528  10.009   8.835  0.1083 -0.4664 -0.0736
47659SOL    HW247789   2.551   9.937   8.966  0.7784 -0.7186 -0.3263
47660SOL     OW47790  11.444   1.310   9.501 -0.3695 -0.6606 -0.3141
47660SOL    HW147791  11.442   1.225   9.544 -0.5469 -0.6089 -0.2179
47660SOL    HW247792  11.356   1.345   9.513  0.1849  0.3064  1.1977
47661SOL     OW47793   1.911   8.340   3.677 -0.1235 -0.2041 -0.5313
47661SOL    HW147794   1.892   8.256   3.635  0.8714 -0.2030 -1.0072
47661SOL    HW247795   1.875   8.405   3.618 -0.9369 -0.2857 -0.1402
47662SOL     OW47796   4.182   4.989   0.400  0.2785  0.2362  0.2676
47662SOL    HW147797   4.255   5.047   0.419 -0.7709  1.5592  0.4524
47662SOL    HW247798   4.142   4.972   0.485  0.2572 -0.3250  0.1474
47663SOL     OW47799  10.669   3.410   1.900 -0.7287  0.3692  0.4138
47663SOL    HW147800  10.584   3.411   1.943 -0.5850 -0.6924  0.7519
47663SOL    HW247801  10.661   3.344   1.832 -0.1104  0.1048  0.5876
47664SOL     OW47802  11.883  10.692  11.759 -0.0496 -0.0008 -0.2630
47664SOL    HW147803  11.796  10.720  11.787 -0.4502  0.6258 -2.0236
47664SOL    HW247804  11.930  10.677  11.841 -1.7491 -0.2218  0.7369
47665SOL     OW47805   9.626   8.398   3.334  0.3775  0.2196 -0.1875
47665SOL    HW147806   9.559   8.377   3.269 -1.9674  0.0362  2.1260
47665SOL    HW247807   9.709   8.375   3.291 -1.0696 -0.6224 -2.7762
47666SOL     OW47808   9.843  10.726   5.583 -0.2881  0.2935 -0.3746
47666SOL    HW147809   9.934  10.755   5.591  0.3828 -1.9772  1.6126
47666SOL    HW247810   9.795  10.803   5.553  2.0395  2.0031  0.0440
47667SOL     OW47811   8.538  10.694   8.619  0.3518  0.6173 -0.0206
47667SOL    HW147812   8.461  10.670   8.567  0.1223  0.2364  0.4825
47667SOL    HW247813   8.588  10.613   8.626  0.0893  0.5121  0.8259
47668SOL     OW47814   6.262   7.502   4.608 -0.4256 -0.0050 -0.9424
47668SOL    HW147815   6.293   7.513   4.698 -1.1813 -3.8193 -0.0525
47668SOL    HW247816   6.173   7.537   4.608  0.1480  1.5457 -0.7376
47669SOL     OW47817   7.036   5.511   2.959 -0.1985  0.0437 -0.0346
47669SOL    HW147818   7.073   5.514   3.048  1.7696 -1.7660 -0.6944
47669SOL    HW247819   6.981   5.588   2.953 -2.6372 -1.1563  3.6871
47670SOL     OW47820   4.957   0.786  11.204 -0.2722  0.7628 -0.0499
47670SOL    HW147821   4.923   0.864  11.247  1.2342  0.9502  0.8703
47670SOL    HW247822   4.975   0.814  11.114  0.5929  1.6022  0.3659
47671SOL     OW47823   1.454   4.066   4.553 -0.0621 -0.1152  0.5285
47671SOL    HW147824   1.527   4.005   4.569  0.3439 -0.4364 -2.0927
47671SOL    HW247825   1.462   4.131   4.623  1.3281 -1.4139  1.6555
47672SOL     OW47826   4.633  10.709   4.050  0.4180  0.0539  0.2625
47672SOL    HW147827   4.633  10.772   3.978  1.3622 -1.5155 -1.1566
47672SOL    HW247828   4.650  10.763   4.128  1.2247  1.5543 -0.8893
47673SOL     OW47829   1.948   3.496   1.406 -0.2159  0.4808  0.3694
47673SOL    HW147830   1.940   3.419   1.463 -1.3194  1.2170  1.2617
47673SOL    HW247831   2.041   3.520   1.411  0.1263 -0.7446  0.1252
47674SOL     OW47832   3.997   8.550   1.860  0.4022  0.6032 -0.4768
47674SOL    HW147833   3.931   8.481   1.866 -1.8125  2.5443 -0.7658
47674SOL    HW247834   4.013   8.560   1.766  3.0796 -1.4658 -0.3654
47675SOL     OW47835   7.944   9.559  11.883  0.5828 -0.0997 -0.0563
47675SOL    HW147836   7.995   9.567  11.963 -0.7965  1.4433  0.7481
47675SOL    HW247837   7.909   9.647  11.868  0.7111 -0.3709 -2.3114
47676SOL     OW47838   3.953   6.995   4.596 -0.0907  0.4324 -0.1347
47676SOL    HW147839   3.947   6.917   4.651 -1.5406  2.8580  3.5749
47676SOL    HW247840   3.862   7.018   4.577  0.2953  1.3980 -0.8868
47677SOL     OW47841   6.179   3.443   8.788 -0.6901  0.6616  0.2844
47677SOL    HW147842   6.141   3.505   8.850 -0.2997  1.6166 -0.3969
47677SOL    HW247843   6.239   3.496   8.735 -1.0993 -0.0965 -0.9808
47678SOL     OW47844   2.135   1.643   2.582 -0.1603  0.1804 -0.2642
47678SOL    HW147845   2.188   1.604   2.511 -1.7888 -1.3199 -0.7407
47678SOL    HW247846   2.061   1.583   2.591 -1.4179  1.8269  0.8580
47679SOL     OW47847   2.495  10.158   5.067 -0.0415  0.1411 -0.4334
47679SOL    HW147848   2.452  10.231   5.023  0.5344  0.2489 -0.8337
47679SOL    HW247849   2.427  10.091   5.075  0.5737 -1.2100 -4.4952
47680SOL     OW47850  12.504   5.312  12.387  0.0678  0.5907  0.3125
47680SOL    HW147851  12.450   5.330  12.463 -0.0866  1.4916 -0.0067
47680SOL    HW247852  12.514   5.396  12.343 -0.9333 -0.1210 -1.3755
47681SOL     OW47853   9.741  12.050  10.398  0.4187  0.1065 -0.0474
47681SOL    HW147854   9.720  12.144  10.391 -0.6829  0.0407  1.6432
47681SOL    HW247855   9.837  12.047  10.400  0.4766  1.4107  1.6834
47682SOL     OW47856   9.083   4.948   3.146 -0.4044 -0.3684 -0.3409
47682SOL    HW147857   9.066   4.997   3.066 -1.5637  0.0796  0.1620
47682SOL    HW247858   9.084   5.014   3.215  0.5890 -0.7467  0.0314
47683SOL     OW47859   6.253   3.880   7.322  0.4812  0.0556 -0.3760
47683SOL    HW147860   6.171   3.838   7.348 -0.2710  1.4528 -0.3867
47683SOL    HW247861   6.303   3.811   7.278 -0.2881 -1.0526  0.4454
47684SOL     OW47862   9.921   8.379   9.695  0.6359 -0.2976 -0.2866
47684SOL    HW147863   9.892   8.370   9.786  2.1924 -1.8591  0.1178
47684SOL    HW247864  10.014   8.400   9.702  0.6416  0.1388 -1.5303
47685SOL     OW47865   1.187   2.874   1.109 -0.0389  0.1929 -0.0637
47685SOL    HW147866   1.194   2.933   1.184  0.8895  1.6056 -1.1972
47685SOL    HW247867   1.137   2.799   1.141  0.7791  0.5109  2.0890
47686SOL     OW47868   9.834  10.093  11.093 -0.4836 -0.2498 -0.1673
47686SOL    HW147869   9.863  10.182  11.073 -0.9998 -0.1692 -0.5544
47686SOL    HW247870   9.764  10.104  11.157  1.2049 -0.5058  1.8385
47687SOL     OW47871   8.043  11.395   7.187 -0.3794 -0.1999 -0.5052
47687SOL    HW147872   8.130  11.404   7.147 -0.2783  0.8858 -0.0532
47687SOL    HW247873   8.047  11.447   7.266 -1.4671 -0.1132 -0.4924
47688SOL     OW47874   3.231   2.969   2.521  0.3533 -0.1728  0.0006
47688SOL    HW147875   3.184   3.000   2.444 -1.3288  0.1304  1.0855
47688SOL    HW247876   3.197   2.881   2.537  0.5052 -0.1456  0.5297
47689SOL     OW47877   0.234   7.216  12.432  0.6251 -0.3558  0.6891
47689SOL    HW147878   0.238   7.209  12.527  0.3254  0.6514  0.7881
47689SOL    HW247879   0.163   7.278  12.415  2.0879  1.2024 -0.0827
47690SOL     OW47880   5.098  12.504   6.754  0.1165  0.3664  0.7351
47690SOL    HW147881   5.161  12.506   6.682 -0.0530 -0.5966  0.5386
47690SOL    HW247882   5.095  12.594   6.786  1.2030  0.5316  0.4142
47691SOL     OW47883  10.907   5.799   2.755 -0.3568  0.8098  0.2350
47691SOL    HW147884  10.944   5.711   2.763 -0.1415  0.8233 -0.5365
47691SOL    HW247885  10.884   5.823   2.844  0.8131  0.5007  0.6450
47692SOL     OW47886   7.659   0.287   3.334  0.5672 -0.4276 -0.1976
47692SOL    HW147887   7.569   0.315   3.352  0.3374 -1.3597  0.1883
47692SOL    HW247888   7.713   0.347   3.385  0.2105  0.5853 -0.9828
47693SOL     OW47889  11.858   8.397   4.199  0.0565  0.1777 -0.3374
47693SOL    HW147890  11.845   8.303   4.184  1.0637 -0.3137  1.5473
47693SOL    HW247891  11.844   8.437   4.113  2.0100 -1.9381 -1.7514
47694SOL     OW47892  12.184  11.903   6.700  0.4653  0.5099 -0.4633
47694SOL    HW147893  12.192  11.834   6.635  0.4080 -0.6013  0.6840
47694SOL    HW247894  12.250  11.883   6.766  0.9261  1.9555 -0.4517
47695SOL     OW47895   5.355  10.656  12.579 -0.1274 -0.1277 -0.5993
47695SOL    HW147896   5.430  10.701  12.540 -0.7721 -0.3643 -2.1988
47695SOL    HW247897   5.287  10.723  12.585 -0.4129 -0.3725 -1.0194
47696SOL     OW47898   6.819   4.790   2.713  0.1929  0.5028 -0.6333
47696SOL    HW147899   6.741   4.776   2.765 -1.5415  1.5744 -2.7653
47696SOL    HW247900   6.841   4.882   2.728  1.7689 -0.0554  0.7907
47697SOL     OW47901   8.142   2.452   1.225  0.6335  0.5443 -0.5693
47697SOL    HW147902   8.223   2.469   1.177  0.5681 -2.4999 -1.9540
47697SOL    HW247903   8.167   2.394   1.296 -0.3197 -0.5131 -1.0713
47698SOL     OW47904   7.575   1.184  11.720 -0.4734 -0.4371 -0.7365
47698SOL    HW147905   7.494   1.187  11.771  1.3957 -1.4613  2.5616
47698SOL    HW247906   7.633   1.247  11.763  1.1961 -1.2641 -1.6742
47699SOL     OW47907   9.538   3.113   2.440  0.0104 -0.4074 -0.1038
47699SOL    HW147908   9.597   3.187   2.452  1.2941 -1.4085 -0.0280
47699SOL    HW247909   9.556   3.082   2.351 -0.3301 -0.7857 -0.0422
47700SOL     OW47910  10.710   3.869   2.545  0.1183 -0.3384 -0.3758
47700SOL    HW147911  10.722   3.775   2.557  0.8353 -0.3672 -1.2020
47700SOL    HW247912  10.677   3.900   2.629  0.0939 -1.2905 -0.0219
47701SOL     OW47913   9.127   9.328   8.577  0.3346 -0.2532  0.6849
47701SOL    HW147914   9.071   9.287   8.510  1.7387 -2.0255  0.5321
47701SOL    HW247915   9.116   9.272   8.654 -0.9225  1.5219  1.8779
47702SOL     OW47916   0.812  10.405   9.205 -0.6693 -0.3517  0.2522
47702SOL    HW147917   0.727  10.389   9.165  0.0318  2.5866 -2.9291
47702SOL    HW247918   0.800  10.486   9.255  0.6127  1.5568 -2.2702
47703SOL     OW47919  10.872   4.305   4.386  0.0799 -0.2657  0.1505
47703SOL    HW147920  10.863   4.218   4.425 -1.1353 -0.6881 -0.9979
47703SOL    HW247921  10.847   4.365   4.457  1.1449 -0.8148  1.0225
47704SOL     OW47922   4.630   0.152   9.992 -0.0314  0.7185  0.1674
47704SOL    HW147923   4.589   0.153  10.078 -0.4467  1.5999 -0.0302
47704SOL    HW247924   4.638   0.059   9.971  1.4092  0.4362  1.7519
47705SOL     OW47925  10.772   4.210   3.374  0.1795  0.2171  0.0110
47705SOL    HW147926  10.782   4.245   3.463 -1.4337 -0.6136  0.5578
47705SOL    HW247927  10.812   4.123   3.377 -0.0061  0.1290 -0.0283
47706SOL     OW47928   0.213   7.573   4.200 -0.0299 -0.6671 -0.3323
47706SOL    HW147929   0.256   7.658   4.192 -1.3637  0.2811  1.6410
47706SOL    HW247930   0.150   7.584   4.272 -1.5564 -2.7903 -1.2100
47707SOL     OW47931   2.321   0.984   7.393  0.1501 -0.0407 -0.0882
47707SOL    HW147932   2.300   0.956   7.482  0.3513  0.7150  0.2110
47707SOL    HW247933   2.289   0.914   7.337 -1.2491  0.1095  0.4814
47708SOL     OW47934   3.099  10.463   7.405 -0.3769  0.0041 -0.2506
47708SOL    HW147935   3.181  10.422   7.432  0.5643  1.7957 -0.2572
47708SOL    HW247936   3.065  10.503   7.485 -0.5675  0.3896 -0.5205
47709SOL     OW47937   2.345   6.908   0.884 -0.7033  0.3500  0.7037
47709SOL    HW147938   2.360   6.878   0.973  0.7787 -0.9891  0.0580
47709SOL    HW247939   2.429   6.894   0.840 -1.4527  0.8045 -0.9403
47710SOL     OW47940  11.952   4.153   8.542  0.3976  0.0346  0.3294
47710SOL    HW147941  11.900   4.174   8.464 -0.2696 -0.5706  0.6039
47710SOL    HW247942  11.887   4.146   8.613  1.0121  0.7124  0.9655
47711SOL     OW47943   0.197   7.577   7.090 -0.1690 -0.5565 -0.2303
47711SOL    HW147944   0.276   7.529   7.063 -0.3055 -0.8148 -0.1695
47711SOL    HW247945   0.141   7.511   7.131 -0.4488 -0.3880 -0.3361
47712SOL     OW47946  10.897   1.931   6.263 -0.8181  0.0058 -0.0949
47712SOL    HW147947  10.832   1.872   6.300  0.0008 -2.7411 -2.6350
47712SOL    HW247948  10.877   1.935   6.170  1.7257  0.2451 -0.7210
47713SOL     OW47949   8.694   3.602   3.186  0.0545  0.0920 -0.0674
47713SOL    HW147950   8.723   3.556   3.108  3.1192 -2.0526  2.0850
47713SOL    HW247951   8.610   3.563   3.207  0.4028 -1.1720 -0.9041
47714SOL     OW47952   2.868   4.839   6.200 -0.9802  0.4482 -0.4647
47714SOL    HW147953   2.912   4.833   6.285 -2.1684  0.9544  0.1934
47714SOL    HW247954   2.880   4.751   6.162 -1.1803 -0.0542  0.5917
47715SOL     OW47955   1.277   5.478   2.047  0.1334 -0.1246 -0.6386
47715SOL    HW147956   1.316   5.493   1.961  0.7377 -0.8501 -0.5101
47715SOL    HW247957   1.224   5.399   2.036  0.3317 -0.3066 -0.3168
47716SOL     OW47958   7.014   3.038   2.171  0.4874  0.4394  0.1403
47716SOL    HW147959   6.936   3.074   2.213  0.2131 -0.1139  0.1045
47716SOL    HW247960   7.033   2.958   2.221  1.1071  0.6385  0.2333
47717SOL     OW47961   3.625   2.237  11.373 -0.3137 -0.0194  0.0972
47717SOL    HW147962   3.650   2.259  11.463 -3.1681 -0.9561  1.2252
47717SOL    HW247963   3.677   2.160  11.353  0.3493  0.1845  0.9419
47718SOL     OW47964   4.807   3.868   3.215 -0.5980 -0.2518 -0.4668
47718SOL    HW147965   4.712   3.879   3.205 -0.4990  1.5983  0.1522
47718SOL    HW247966   4.831   3.804   3.149 -2.2981 -0.8274 -0.5730
47719SOL     OW47967   9.422   1.090  12.367 -0.5783 -0.0537  0.0346
47719SOL    HW147968   9.461   1.042  12.439 -0.8116  0.4151  0.4775
47719SOL    HW247969   9.361   1.028  12.326 -0.8989 -0.1246  0.6168
47720SOL     OW47970   2.569   1.424   0.269  0.0269 -0.8043  0.7601
47720SOL    HW147971   2.613   1.394   0.190  0.0468  1.0766  0.0021
47720SOL    HW247972   2.581   1.353   0.332  1.1264 -1.7924 -0.5118
47721SOL     OW47973  10.904   6.051   1.232  0.0175 -0.6284  0.2076
47721SOL    HW147974  10.972   6.067   1.297 -1.1191  0.5857  1.1500
47721SOL    HW247975  10.952   6.034   1.151  1.4404  0.3717  0.8020
47722SOL     OW47976   5.248   3.868   2.921 -0.0817 -0.0431 -0.2629
47722SOL    HW147977   5.261   3.835   3.010 -0.9709 -2.1319 -0.8506
47722SOL    HW247978   5.315   3.824   2.869 -0.2149  0.3848 -0.8048
47723SOL     OW47979   4.581  10.307   1.815  0.2941 -0.4316  0.1282
47723SOL    HW147980   4.529  10.329   1.738 -0.5983  0.6910  1.0039
47723SOL    HW247981   4.654  10.255   1.782 -1.2429 -1.8361 -1.1839
47724SOL     OW47982   7.716   0.771   6.313  0.2607  0.4060 -0.1445
47724SOL    HW147983   7.689   0.856   6.348  1.4296  1.2375 -1.1663
47724SOL    HW247984   7.753   0.725   6.388  0.2536  1.0773  0.2804
47725SOL     OW47985   4.200   4.577   8.287  0.1957 -0.3542  0.1972
47725SOL    HW147986   4.144   4.568   8.364  1.5539 -0.7278  1.1830
47725SOL    HW247987   4.176   4.504   8.231 -1.7355  0.6659 -0.3825
47726SOL     OW47988  10.439  11.451  11.375  0.3484 -0.0622  0.3335
47726SOL    HW147989  10.466  11.373  11.424 -1.1353 -0.4458  0.5657
47726SOL    HW247990  10.345  11.441  11.362 -0.0369  2.0657  1.0434
47727SOL     OW47991   5.837   8.514   1.703  0.6000  0.6772  0.5274
47727SOL    HW147992   5.893   8.560   1.766 -0.7085  1.3448  1.2374
47727SOL    HW247993   5.895   8.449   1.663  1.4682  0.1796  2.4747
47728SOL     OW47994   4.757   7.332  10.017  0.1542 -0.4002  0.2697
47728SOL    HW147995   4.730   7.395  10.085  2.0390 -0.4286  1.1399
47728SOL    HW247996   4.830   7.375   9.973 -1.2589 -0.2351 -2.0652
47729SOL     OW47997  10.494   0.207   3.133 -0.0000  0.0786  0.1694
47729SOL    HW147998  10.582   0.216   3.172 -0.6504 -0.5635  1.8634
47729SOL    HW247999  10.509   0.158   3.052  1.3683  1.1985 -0.3104
47730SOL     OW48000   2.818   4.273   2.178 -0.3700 -0.0431 -0.2923
47730SOL    HW148001   2.820   4.288   2.083 -2.1658  1.6789 -0.1083
47730SOL    HW248002   2.850   4.183   2.188 -1.4039 -0.7556 -2.6388
47731SOL     OW48003   5.950  12.044   9.418 -0.0049 -0.3313 -0.4612
47731SOL    HW148004   6.020  11.991   9.380  1.7194  0.2815  1.6857
47731SOL    HW248005   5.931  12.002   9.502 -0.3667  0.9777  0.1389
47732SOL     OW48006   9.014   1.182  10.292 -0.3669 -0.6613  0.3361
47732SOL    HW148007   8.968   1.186  10.208 -0.6542  0.3730  0.5226
47732SOL    HW248008   8.945   1.193  10.357  0.0403  0.1635  0.6434
47733SOL     OW48009   5.859   9.516  11.528  0.2634  0.2276  0.4184
47733SOL    HW148010   5.799   9.543  11.459 -0.3219  0.5951  1.0596
47733SOL    HW248011   5.863   9.592  11.587  1.9916  0.5311 -0.0313
47734SOL     OW48012   6.912   2.489  10.913  0.1222  0.2501 -0.0446
47734SOL    HW148013   6.949   2.577  10.914  1.1684 -0.0718 -2.6900
47734SOL    HW248014   6.830   2.498  10.865 -0.7339  0.0870  1.3611
47735SOL     OW48015   0.995   3.139   3.249  1.0490 -0.6724  0.3395
47735SOL    HW148016   1.057   3.069   3.268  1.2875 -0.3206  0.8963
47735SOL    HW248017   1.041   3.219   3.276 -0.0070 -0.4908  1.6714
47736SOL     OW48018   4.404   3.961  10.422  0.1945 -0.2481 -0.1841
47736SOL    HW148019   4.383   4.047  10.385  0.5047 -0.4288 -0.7974
47736SOL    HW248020   4.319   3.924  10.446  0.0653  0.2734  0.1967
47737SOL     OW48021   1.076  10.487   9.657 -0.4944 -0.3376 -0.1508
47737SOL    HW148022   1.022  10.419   9.695  1.7636 -2.1753 -0.0366
47737SOL    HW248023   1.144  10.504   9.722  1.7956 -1.5330 -2.0871
47738SOL     OW48024  11.271  11.743   3.300 -0.3578 -0.3532  0.5129
47738SOL    HW148025  11.209  11.679   3.335  1.5607 -2.1547  0.8728
47738SOL    HW248026  11.292  11.711   3.212  0.8894 -0.4755  0.8262
47739SOL     OW48027   7.974   0.617   0.123 -0.3866  0.3109 -0.3523
47739SOL    HW148028   7.922   0.640   0.200 -1.0657  0.4393 -0.8325
47739SOL    HW248029   8.041   0.685   0.118 -0.4132  0.3718  0.0508
47740SOL     OW48030  11.441  10.545   1.403  0.4895  0.1073 -0.3159
47740SOL    HW148031  11.450  10.613   1.336 -0.6386  0.8978  0.2886
47740SOL    HW248032  11.508  10.565   1.468 -0.7424  1.5860  0.5885
47741SOL     OW48033   6.655  10.229   3.284 -0.2901 -0.1680 -0.0476
47741SOL    HW148034   6.577  10.247   3.337 -0.1510 -1.8498  0.8113
47741SOL    HW248035   6.694  10.314   3.269 -1.3658  0.5396  0.9719
47742SOL     OW48036   5.421   9.792  11.444  0.1848 -0.7965  0.5239
47742SOL    HW148037   5.422   9.754  11.356 -0.2233 -0.6469  0.4536
47742SOL    HW248038   5.342   9.845  11.447 -0.0262 -1.1281  1.1191
47743SOL     OW48039   5.327   1.683   9.459 -0.1658 -0.0734 -0.1243
47743SOL    HW148040   5.351   1.723   9.543  2.0165 -1.8258  0.1659
47743SOL    HW248041   5.383   1.728   9.396 -1.1771  0.6230 -0.5535
47744SOL     OW48042   4.365   0.174   8.675  0.4180  0.0188 -0.0599
47744SOL    HW148043   4.337   0.083   8.672  1.5490 -0.3275 -0.5134
47744SOL    HW248044   4.442   0.174   8.732  0.3708  0.7049  0.0133
47745SOL     OW48045   0.137   0.204   2.440 -0.4397 -0.0634  0.0804
47745SOL    HW148046   0.086   0.153   2.503  0.2171 -0.5896  0.1972
47745SOL    HW248047   0.133   0.294   2.474  0.9000 -0.5132  1.5959
47746SOL     OW48048   8.820  10.964   9.298 -0.2808  1.0890 -0.1795
47746SOL    HW148049   8.790  11.053   9.280  0.0786  1.0976 -0.7620
47746SOL    HW248050   8.872  10.972   9.378  1.7600  1.8592 -1.4897
47747SOL     OW48051  12.198  12.330  12.394  0.0497  0.9078  0.0871
47747SOL    HW148052  12.236  12.245  12.417 -1.5328 -0.3945 -1.7392
47747SOL    HW248053  12.257  12.366  12.328  0.3450  0.9076  0.3481
47748SOL     OW48054  10.328   2.179  12.369  0.4316  0.3479  0.6599
47748SOL    HW148055  10.252   2.216  12.414  1.4638  1.0373  1.9386
47748SOL    HW248056  10.392   2.165  12.440  0.7394 -2.2262 -0.0413
47749SOL     OW48057  10.427   2.695   3.980  0.9046 -1.2450 -0.3088
47749SOL    HW148058  10.514   2.710   4.017  0.2177  0.1802  0.8036
47749SOL    HW248059  10.444   2.673   3.888  2.4875 -2.1527  0.1629
47750SOL     OW48060   2.478   5.298  10.519  0.8366  0.3808 -0.1519
47750SOL    HW148061   2.433   5.345  10.589 -1.9602  1.0854 -2.2717
47750SOL    HW248062   2.438   5.211  10.519 -0.1856  0.8167 -1.6671
47751SOL     OW48063  11.440  10.822   4.076  0.4167 -0.3180 -0.0632
47751SOL    HW148064  11.512  10.882   4.056  0.1558 -0.1508 -0.5094
47751SOL    HW248065  11.467  10.779   4.158  0.4640  0.6299  0.4394
47752SOL     OW48066  12.168  12.378   3.349 -0.6972 -0.2913 -0.6299
47752SOL    HW148067  12.162  12.448   3.283  3.1701 -1.0578 -2.0393
47752SOL    HW248068  12.168  12.425   3.433 -0.0689  1.2658 -1.4527
47753SOL     OW48069   6.360   3.041   7.070 -0.1895 -0.3477  0.0915
47753SOL    HW148070   6.336   3.132   7.052  2.2196  0.4170  0.3601
47753SOL    HW248071   6.281   2.991   7.051 -1.3404  1.7104 -0.8597
47754SOL     OW48072   6.649  12.353   9.801 -0.0018 -0.3873  0.1157
47754SOL    HW148073   6.679  12.269   9.835  0.0225 -0.8128 -0.9259
47754SOL    HW248074   6.557  12.339   9.777  0.0516 -0.1709 -0.2318
47755SOL     OW48075   7.630  12.284   2.729  0.5136  0.5539  0.2410
47755SOL    HW148076   7.699  12.279   2.663 -0.1337 -1.5089 -0.3540
47755SOL    HW248077   7.667  12.242   2.806 -0.0075 -0.5244 -0.0667
47756SOL     OW48078  11.971   7.388  10.255 -0.2501  0.1432 -0.5376
47756SOL    HW148079  11.996   7.398  10.347 -1.5255  3.6018 -0.4108
47756SOL    HW248080  12.043   7.428  10.206  0.2041 -1.2611 -1.0669
47757SOL     OW48081  11.968   6.801   1.534 -0.5825 -0.0115  0.1734
47757SOL    HW148082  11.927   6.881   1.503 -2.7939 -0.5098  1.6039
47757SOL    HW248083  12.048   6.830   1.578 -0.3310  1.1901 -1.0418
47758SOL     OW48084  12.094   1.775   4.101  0.2927  0.2657  0.3329
47758SOL    HW148085  12.084   1.791   4.008  0.9481 -0.2099  0.1760
47758SOL    HW248086  12.076   1.860   4.142  0.5685  0.6176 -0.2699
47759SOL     OW48087  10.546  11.622   9.377  0.2688  0.2058 -0.1632
47759SOL    HW148088  10.461  11.610   9.335 -0.1140  0.7561  0.4335
47759SOL    HW248089  10.544  11.711   9.412 -0.6765 -1.1347  3.7071
47760SOL     OW48090   0.152  10.994  12.306 -0.4404  0.2925 -0.3489
47760SOL    HW148091   0.127  10.952  12.223  1.3379 -1.2567 -0.1817
47760SOL    HW248092   0.240  10.960  12.324 -1.4393 -0.8817  3.1040
47761SOL     OW48093  11.930  10.503   6.122 -0.6511 -0.0269  0.0231
47761SOL    HW148094  11.841  10.482   6.151 -0.4964  1.9942  2.2617
47761SOL    HW248095  11.927  10.494   6.027 -2.5415 -2.3968  0.2090
47762SOL     OW48096  10.255   6.936  10.594 -0.1233 -0.0345 -0.5888
47762SOL    HW148097  10.226   6.953  10.504 -2.3088  0.1428  0.0808
47762SOL    HW248098  10.298   6.851  10.591 -1.0032 -0.4548 -1.6545
47763SOL     OW48099   5.736   7.984   0.891  0.2478  0.1858  0.5564
47763SOL    HW148100   5.726   8.039   0.813  0.5177 -0.3199  0.1597
47763SOL    HW248101   5.653   7.995   0.938 -0.7364 -1.0481 -0.8033
47764SOL     OW48102   1.726   6.720   6.162 -0.4007  0.2318 -0.2391
47764SOL    HW148103   1.813   6.686   6.182 -0.3978  0.9906  1.2509
47764SOL    HW248104   1.673   6.695   6.238 -2.1103 -2.1292 -2.0712
47765SOL     OW48105   9.529   7.079   0.208  0.3492  0.3711 -0.3226
47765SOL    HW148106   9.621   7.089   0.184  0.2947 -0.7401 -1.0650
47765SOL    HW248107   9.489   7.162   0.185  0.6638 -0.0199 -2.4970
47766SOL     OW48108   1.619   2.907   5.706 -0.2569 -0.5652 -0.3601
47766SOL    HW148109   1.640   2.997   5.727 -1.3846  0.1093 -1.9303
47766SOL    HW248110   1.532   2.911   5.666 -0.8924 -2.5033  0.6739
47767SOL     OW48111   8.749   4.040   1.843 -0.6633 -0.3744 -0.4558
47767SOL    HW148112   8.803   4.020   1.766  1.6557 -2.2632  1.5195
47767SOL    HW248113   8.677   3.977   1.839  0.9424 -2.3653  0.2483
47768SOL     OW48114   0.079   4.236   6.727 -0.3514 -0.1143 -0.4832
47768SOL    HW148115   0.033   4.315   6.702 -2.1338 -0.8365  0.3501
47768SOL    HW248116   0.081   4.183   6.647 -0.1079  0.3195 -0.7663
47769SOL     OW48117   9.686   4.896   2.941  0.1976  0.7850 -0.3658
47769SOL    HW148118   9.665   4.811   2.979  4.1799 -0.7538 -1.1401
47769SOL    HW248119   9.737   4.941   3.008  0.3432  1.4857 -0.9254
47770SOL     OW48120   8.721  12.548   6.101 -0.1183 -0.2992  0.2491
47770SOL    HW148121   8.804  12.563   6.145  0.0826 -0.5841 -0.0181
47770SOL    HW248122   8.654  12.576   6.163  0.2190  1.7874 -0.2665
47771SOL     OW48123   7.559   9.485  11.882  0.1479 -0.0042 -0.2333
47771SOL    HW148124   7.488   9.422  11.891 -1.6086  1.7135 -1.2230
47771SOL    HW248125   7.602   9.463  11.799 -2.1600  1.5921 -1.9729
47772SOL     OW48126   1.220   9.394   3.226  0.1517 -0.9004 -0.4155
47772SOL    HW148127   1.221   9.475   3.174  0.0894 -0.9955 -0.5640
47772SOL    HW248128   1.128   9.382   3.248  0.4677  0.6807  2.1163
47773SOL     OW48129   9.061   0.084   7.074 -0.0238 -0.5876 -0.2762
47773SOL    HW148130   9.007   0.121   7.144  1.8949 -0.7606  1.4180
47773SOL    HW248131   9.011   0.099   6.994 -1.8729  0.5394  1.0067
47774SOL     OW48132   6.942   9.104  11.275  0.0825  0.1855  0.1854
47774SOL    HW148133   6.989   9.021  11.267 -1.6091 -0.8208  0.2866
47774SOL    HW248134   6.963   9.151  11.195  2.2753  0.3595  0.7844
47775SOL     OW48135   6.476  10.378   9.100 -0.5953  0.4220 -0.2281
47775SOL    HW148136   6.545  10.335   9.150 -0.5440 -2.7464 -2.7305
47775SOL    HW248137   6.521  10.447   9.051  0.2801  0.0784  0.0780
47776SOL     OW48138   4.657   9.986   0.457 -0.0385 -0.3443 -0.5301
47776SOL    HW148139   4.582  10.020   0.408 -0.1018 -0.5207 -0.5576
47776SOL    HW248140   4.701  10.063   0.492  1.2052 -0.0581 -2.5834
47777SOL     OW48141   2.654   8.713   1.829  0.0142  0.5351 -0.2131
47777SOL    HW148142   2.584   8.648   1.831 -0.4479  1.0139 -0.5459
47777SOL    HW248143   2.733   8.662   1.811 -0.5965  0.2545 -2.3901
47778SOL     OW48144   1.705   3.369   2.937 -0.7704  0.1367 -0.0817
47778SOL    HW148145   1.663   3.352   3.021 -0.7106 -0.0725 -0.0939
47778SOL    HW248146   1.798   3.381   2.957 -1.1384  3.0946  0.2843
47779SOL     OW48147  11.122   2.015   3.977 -0.1915  0.3901  0.0715
47779SOL    HW148148  11.189   2.076   4.008 -0.2349  0.3505  0.2473
47779SOL    HW248149  11.095   2.050   3.892  1.4347 -0.6600 -0.9215
47780SOL     OW48150   4.138   7.082   6.501  0.1808  0.0446  0.3243
47780SOL    HW148151   4.194   7.149   6.539 -1.5560  1.0877  1.1381
47780SOL    HW248152   4.116   7.115   6.414  0.6254 -0.2572  0.0930
47781SOL     OW48153  11.344  11.801   7.229  0.4042 -0.4804 -0.6665
47781SOL    HW148154  11.413  11.745   7.263  0.2155 -0.9041 -0.9751
47781SOL    HW248155  11.339  11.781   7.136 -1.5638 -2.0350 -0.3002
47782SOL     OW48156   1.045   7.120   6.515  0.0057  0.9138  0.1116
47782SOL    HW148157   1.083   7.203   6.541  0.0413  0.9570 -0.0806
47782SOL    HW248158   0.952   7.139   6.501 -0.7241  0.2617  3.2816
47783SOL     OW48159   8.251   9.224   3.111  0.1865 -0.0195  0.1022
47783SOL    HW148160   8.241   9.135   3.078 -0.0297  0.1336 -0.2427
47783SOL    HW248161   8.170   9.268   3.086 -0.9092 -0.4543  2.5893
47784SOL     OW48162   3.539  12.538   5.850  0.1065  0.5823 -0.2648
47784SOL    HW148163   3.536  12.460   5.905  2.1615  1.4081  1.1530
47784SOL    HW248164   3.606  12.519   5.785  1.7244  1.6545  1.0160
47785SOL     OW48165   2.480   9.848   5.615 -0.0306  0.7198 -0.0287
47785SOL    HW148166   2.572   9.840   5.589  0.7428 -1.3435  2.8137
47785SOL    HW248167   2.477   9.930   5.664 -0.5579  2.4529 -2.7476
47786SOL     OW48168   7.810  12.018  11.446 -0.3666  0.6389  0.2409
47786SOL    HW148169   7.750  11.986  11.378  0.3629 -0.1307 -0.0530
47786SOL    HW248170   7.783  11.972  11.525 -0.7626  1.0072  0.3274
47787SOL     OW48171   7.079   1.379   0.876 -0.3655  0.9224  0.6219
47787SOL    HW148172   7.088   1.357   0.784 -1.5744  1.1780  0.4255
47787SOL    HW248173   7.167   1.368   0.913 -0.2386 -1.0005 -0.1633
47788SOL     OW48174   6.237  11.612   4.183  0.6229 -0.5389 -0.4514
47788SOL    HW148175   6.300  11.540   4.188  0.1481 -1.2717 -3.1182
47788SOL    HW248176   6.249  11.648   4.095 -1.9001 -0.0049 -0.6541
47789SOL     OW48177   6.283   0.635   3.517 -0.8711  0.4833 -0.5928
47789SOL    HW148178   6.220   0.669   3.453 -0.6286  0.9998 -0.5589
47789SOL    HW248179   6.368   0.666   3.487 -0.5109 -0.9509 -1.1283
47790SOL     OW48180   1.601   4.483  10.034  0.0926  0.0361 -0.2125
47790SOL    HW148181   1.572   4.447  10.118  0.3644  0.2213 -0.0382
47790SOL    HW248182   1.696   4.492  10.043  0.2906 -1.1177 -0.9867
47791SOL     OW48183   3.144   7.480   1.956  0.3065 -0.6217 -0.6915
47791SOL    HW148184   3.235   7.454   1.970 -0.3204 -1.2606  3.3245
47791SOL    HW248185   3.140   7.572   1.980 -0.1777 -0.6877 -0.5044
47792SOL     OW48186   7.801  11.460  11.668 -0.5984  0.1712 -0.2811
47792SOL    HW148187   7.897  11.459  11.672 -0.5980 -0.8575 -0.0512
47792SOL    HW248188   7.781  11.476  11.576 -0.0984 -3.1694 -1.1303
47793SOL     OW48189   5.093   2.384  11.347  0.2378 -0.3522  0.4452
47793SOL    HW148190   5.044   2.304  11.327  1.0622 -0.9860  0.8546
47793SOL    HW248191   5.057   2.450  11.289  0.3870 -1.3364 -0.8140
47794SOL     OW48192  10.101   9.018  10.052 -0.3261  0.0270 -0.0995
47794SOL    HW148193  10.019   8.971  10.032  0.5604 -0.6739 -2.4603
47794SOL    HW248194  10.104   9.090   9.989  0.6206  0.3743  0.3206
47795SOL     OW48195   2.464   2.498  10.148 -0.5580 -0.1057 -0.0730
47795SOL    HW148196   2.519   2.550  10.090 -0.6465  0.6930  0.5521
47795SOL    HW248197   2.401   2.560  10.185 -0.3739 -0.5509  1.0286
47796SOL     OW48198   9.200   4.432  11.354  0.0912  0.5021 -0.2671
47796SOL    HW148199   9.239   4.452  11.269 -1.9414 -0.4176 -1.4793
47796SOL    HW248200   9.267   4.458  11.418  2.1400  0.1566 -2.1627
47797SOL     OW48201   7.289   6.070   1.574 -0.1878 -0.1553 -0.7318
47797SOL    HW148202   7.203   6.060   1.615 -0.0556 -0.1773 -0.4549
47797SOL    HW248203   7.303   5.988   1.527 -1.6450  0.9874 -3.3564
47798SOL     OW48204   1.371  10.236   9.615 -0.1368  0.0449  0.1987
47798SOL    HW148205   1.447  10.186   9.645 -1.0470 -1.4372  0.1856
47798SOL    HW248206   1.308  10.229   9.687 -1.0205 -0.5555 -0.5990
47799SOL     OW48207   1.526   3.065   6.810 -0.0799  0.3607 -0.2775
47799SOL    HW148208   1.500   2.977   6.837  1.7878 -1.1001 -2.8612
47799SOL    HW248209   1.445   3.108   6.784 -1.0024 -0.5533  0.9733
47800SOL     OW48210   4.370   3.178   9.268 -0.0169  0.2245 -0.1974
47800SOL    HW148211   4.294   3.127   9.294  0.0160  0.1332 -0.2805
47800SOL    HW248212   4.341   3.229   9.193  0.2151 -0.3741 -0.7075
47801SOL     OW48213   3.028   2.202   2.493 -0.9117 -0.9927  0.0729
47801SOL    HW148214   2.964   2.273   2.496  2.3667  2.3106 -0.6828
47801SOL    HW248215   3.042   2.185   2.400  0.2107 -0.6985  0.1676
47802SOL     OW48216   8.025  11.400   7.632 -0.1451 -0.1841  0.3224
47802SOL    HW148217   7.959  11.340   7.666  0.7150 -0.8530  0.8863
47802SOL    HW248218   8.060  11.444   7.710 -0.2567  0.5065 -0.0133
47803SOL     OW48219   2.320   4.613  11.171  0.5927 -0.0208  0.2196
47803SOL    HW148220   2.297   4.561  11.248  1.3007 -1.0584 -0.2449
47803SOL    HW248221   2.400   4.659  11.196  1.4737 -1.2569 -0.2737
47804SOL     OW48222  10.761  11.070   0.842  0.1499 -0.5736 -0.3243
47804SOL    HW148223  10.678  11.048   0.801  0.2690 -2.4705  0.3462
47804SOL    HW248224  10.794  10.986   0.876  0.5353  0.6572  2.7005
47805SOL     OW48225   8.858   9.399   3.513 -0.3949 -0.2930  0.0660
47805SOL    HW148226   8.916   9.459   3.466 -0.1536 -0.0402  0.6755
47805SOL    HW248227   8.910   9.319   3.524  0.4422  0.4498  1.9562
47806SOL     OW48228   6.886   1.562   9.303  0.1471  0.1905  0.1428
47806SOL    HW148229   6.906   1.570   9.209 -1.7633 -0.1166 -0.3314
47806SOL    HW248230   6.906   1.649   9.338 -0.5734  0.7898 -0.8639
47807SOL     OW48231   0.974  10.925   1.678 -0.2726  0.0952  0.7176
47807SOL    HW148232   1.023  11.002   1.705  0.6479 -0.0684 -0.4102
47807SOL    HW248233   0.915  10.957   1.610 -0.0107 -0.1576  0.3698
47808SOL     OW48234   3.207   3.097   1.395  0.5921 -0.1961 -0.0986
47808SOL    HW148235   3.235   3.102   1.303 -0.1011 -0.3201 -0.3260
47808SOL    HW248236   3.123   3.143   1.396 -0.0488 -1.3405  0.2038
47809SOL     OW48237   0.523   9.594   8.721 -0.7971  0.4578  0.3465
47809SOL    HW148238   0.511   9.644   8.802 -0.9840 -0.4484  0.8899
47809SOL    HW248239   0.569   9.515   8.747 -1.9593 -0.4443 -0.1993
47810SOL     OW48240   7.958   7.560   5.664  0.3809  0.1089 -0.2950
47810SOL    HW148241   8.037   7.506   5.677  0.9859  1.1874  0.7509
47810SOL    HW248242   7.957   7.580   5.571  0.3343 -1.3981 -0.6444
47811SOL     OW48243  11.416   8.706  10.548  0.5074  0.4689  0.0883
47811SOL    HW148244  11.337   8.669  10.510  0.6934 -0.5639  0.6595
47811SOL    HW248245  11.436   8.782  10.494  1.3532 -1.5168 -2.6011
47812SOL     OW48246  12.420   4.800   7.362  0.1551 -0.7157 -0.0046
47812SOL    HW148247  12.444   4.841   7.445 -1.4975 -0.1159  0.2142
47812SOL    HW248248  12.470   4.849   7.296  0.5131 -0.3669  0.5221
47813SOL     OW48249   0.026   6.543  10.775  0.2474  0.3393  0.6080
47813SOL    HW148250  -0.027   6.622  10.783 -1.1129 -0.3142 -1.2691
47813SOL    HW248251  -0.036   6.475  10.747  1.9364 -0.5782 -1.1577
47814SOL     OW48252   4.275   7.324   3.302 -0.7296 -0.3450 -0.7558
47814SOL    HW148253   4.335   7.371   3.245 -1.3131  0.0056 -1.0859
47814SOL    HW248254   4.310   7.235   3.306 -0.4786 -0.2740 -1.3581
47815SOL     OW48255   6.928   9.462  10.477  0.0141  0.2190  0.3805
47815SOL    HW148256   6.894   9.374  10.457  0.8522  0.1602 -0.8693
47815SOL    HW248257   6.978   9.487  10.399  0.2541  1.5832  0.9460
47816SOL     OW48258  10.270   1.625   0.200 -0.4096 -0.2575  0.6667
47816SOL    HW148259  10.320   1.641   0.279  0.7139  0.4306 -0.1559
47816SOL    HW248260  10.203   1.561   0.226  0.5902 -0.8378  1.9094
47817SOL     OW48261   7.663   7.714   4.163  0.1647  0.1293  0.6094
47817SOL    HW148262   7.755   7.735   4.150  0.1768  0.8439  1.7619
47817SOL    HW248263   7.637   7.670   4.082  0.3089  3.9109 -1.7348
47818SOL     OW48264   2.443   1.408   8.174  0.6091  0.5487 -1.0052
47818SOL    HW148265   2.421   1.485   8.227 -0.4520 -0.7232  0.5140
47818SOL    HW248266   2.357   1.372   8.150  1.0648 -1.1528 -0.1535
47819SOL     OW48267   6.426   0.277   2.761  0.4934 -0.4333 -0.1130
47819SOL    HW148268   6.454   0.186   2.753  0.0494 -0.5592 -0.2407
47819SOL    HW248269   6.345   0.272   2.812  0.6986 -0.0724  0.2497
47820SOL     OW48270   9.304   2.858   1.093  0.3426  0.1011  0.3276
47820SOL    HW148271   9.284   2.783   1.038  1.1830  1.7335 -2.4214
47820SOL    HW248272   9.229   2.917   1.082 -0.3834 -0.3194  2.5687
47821SOL     OW48273  12.534   9.867   7.801 -0.3784 -0.0005  0.4623
47821SOL    HW148274  12.606   9.930   7.795  0.6466 -1.2323 -2.6758
47821SOL    HW248275  12.455   9.921   7.796  0.4192  1.1855  0.0711
47822SOL     OW48276   9.275   1.563   4.965  0.2725  0.4179 -0.3082
47822SOL    HW148277   9.352   1.579   4.910  0.8660 -0.0631  0.3736
47822SOL    HW248278   9.309   1.519   5.042 -1.0277 -2.3614 -1.1958
47823SOL     OW48279   8.545   4.754  11.715 -0.1991 -0.0850  0.0523
47823SOL    HW148280   8.519   4.778  11.626  2.8292  1.3937 -0.5478
47823SOL    HW248281   8.519   4.829  11.768 -0.5458 -0.2655  0.1417
47824SOL     OW48282   9.663   0.015   3.403  0.1394  0.2973 -0.0771
47824SOL    HW148283   9.737  -0.038   3.374 -1.5324 -0.7457 -2.7888
47824SOL    HW248284   9.598   0.006   3.334 -1.6514  3.0567  1.0646
47825SOL     OW48285   5.482   0.153   9.925 -0.2877  0.1789  0.4199
47825SOL    HW148286   5.469   0.247   9.911 -2.2466 -0.5084 -3.7786
47825SOL    HW248287   5.574   0.138   9.906 -0.2351  1.0659 -0.0616
47826SOL     OW48288   8.023   8.047   2.427  0.2663 -0.1949  0.3759
47826SOL    HW148289   8.074   7.966   2.428 -0.0555 -0.3957  1.0104
47826SOL    HW248290   7.967   8.041   2.505  1.4217  1.3917  1.4018
47827SOL     OW48291   6.906   7.499   9.979  0.5177  0.3577  0.0731
47827SOL    HW148292   6.879   7.573   9.924  0.0893 -0.9289 -1.5233
47827SOL    HW248293   6.966   7.449   9.923  0.8497 -0.4752  1.1495
47828SOL     OW48294   0.970  11.812   2.841  0.1216  0.4254  0.0589
47828SOL    HW148295   1.059  11.807   2.806  1.0558 -0.6950  2.3592
47828SOL    HW248296   0.936  11.723   2.831  0.1430  0.2658  1.1948
47829SOL     OW48297   5.771   8.649  10.417  0.2293  0.3038  0.5219
47829SOL    HW148298   5.747   8.662  10.325  0.2216  0.0674  0.4902
47829SOL    HW248299   5.709   8.705  10.465 -0.1869 -0.0659  0.4211
47830SOL     OW48300   6.606   6.335   0.659 -0.2092  0.2927  0.0221
47830SOL    HW148301   6.702   6.327   0.660 -0.2746 -2.2355 -2.1928
47830SOL    HW248302   6.575   6.244   0.659 -2.5224  1.0021 -1.4738
47831SOL     OW48303   1.656  12.279  10.702 -0.1801  0.1390  0.0889
47831SOL    HW148304   1.683  12.260  10.792  0.9483 -1.3809 -0.5206
47831SOL    HW248305   1.565  12.307  10.709 -0.9112 -2.3049  1.5192
47832SOL     OW48306   8.701   0.336  11.724  0.0437  0.1596 -0.3928
47832SOL    HW148307   8.785   0.296  11.705 -0.3201 -0.7165 -0.2054
47832SOL    HW248308   8.718   0.398  11.794 -0.0593 -2.6156  2.2891
47833SOL     OW48309   4.909   9.941  12.158  0.0011  0.1055  0.1079
47833SOL    HW148310   4.948   9.954  12.071  0.6579  2.4484  0.6635
47833SOL    HW248311   4.955   9.865  12.194  0.7861  0.0185 -1.0328
47834SOL     OW48312   1.939  10.776   1.061  0.0858 -0.0993  0.3258
47834SOL    HW148313   1.953  10.758   1.154 -1.5383 -1.9496  0.2884
47834SOL    HW248314   1.845  10.759   1.047 -0.7673  4.3079 -0.8240
47835SOL     OW48315   7.047  10.454   3.842 -0.5055 -0.2220  0.1637
47835SOL    HW148316   7.114  10.385   3.839 -0.4495 -0.2197  1.1918
47835SOL    HW248317   7.070  10.511   3.768  1.4041  0.4767  1.2240
47836SOL     OW48318  10.207   6.686   8.291  0.2054 -0.0203  0.3744
47836SOL    HW148319  10.266   6.621   8.253  0.8585  1.2891 -0.9655
47836SOL    HW248320  10.129   6.636   8.318  1.6017 -1.6705  1.5469
47837SOL     OW48321   8.758   9.402  10.512 -0.5540  0.5858 -0.0942
47837SOL    HW148322   8.669   9.433  10.529 -1.4841 -1.2225 -1.2978
47837SOL    HW248323   8.748   9.338  10.441  1.7194  0.3405 -0.2764
47838SOL     OW48324   7.503   6.916   0.293  0.1831 -0.3052 -0.1788
47838SOL    HW148325   7.414   6.886   0.272  0.4581 -0.4914 -1.1516
47838SOL    HW248326   7.529   6.865   0.370  0.1919 -1.7236 -1.0876
47839SOL     OW48327  11.350  10.497   5.163 -0.3104 -0.1159  0.0902
47839SOL    HW148328  11.375  10.570   5.219  1.5978  0.0791 -0.9262
47839SOL    HW248329  11.308  10.537   5.087  1.4839  0.0542 -0.8623
47840SOL     OW48330   6.372   9.435   5.993 -0.9721 -0.3181 -0.6025
47840SOL    HW148331   6.355   9.529   5.989 -1.6393 -0.2358  2.2369
47840SOL    HW248332   6.318   9.397   5.924 -1.0767  1.3142 -1.4521
47841SOL     OW48333   3.580   2.461   3.227 -0.7214 -0.1615 -0.4329
47841SOL    HW148334   3.546   2.479   3.139  1.4043  1.7092 -0.9639
47841SOL    HW248335   3.571   2.544   3.273 -0.1453 -0.6279  0.5355
47842SOL     OW48336   5.094   7.876  11.858 -0.0881 -0.4221  0.1942
47842SOL    HW148337   5.164   7.828  11.815 -0.9615 -0.3759 -1.3710
47842SOL    HW248338   5.071   7.822  11.934  0.9923 -0.9015  0.2041
47843SOL     OW48339   6.925   8.909   0.364  0.1219 -0.0989  0.5964
47843SOL    HW148340   6.964   8.925   0.278  0.7730  1.1582  1.0909
47843SOL    HW248341   6.970   8.832   0.398  1.4621  0.7161  0.7178
47844SOL     OW48342   6.230  10.222  10.747  0.0907  0.0409 -0.1325
47844SOL    HW148343   6.138  10.203  10.731  0.4091 -0.1956 -1.9628
47844SOL    HW248344   6.271  10.136  10.755  0.1481  0.1465  0.8948
47845SOL     OW48345   2.462   8.301   9.153 -0.4378 -0.0386  0.4455
47845SOL    HW148346   2.418   8.294   9.068  4.5978  2.2429 -2.8023
47845SOL    HW248347   2.468   8.210   9.184 -3.0059 -0.8918 -1.2044
47846SOL     OW48348   5.562   8.040   1.872  0.8477 -0.3542  0.3342
47846SOL    HW148349   5.619   7.983   1.821  1.6048  0.0268  0.7316
47846SOL    HW248350   5.473   8.006   1.857  1.2103 -1.1595 -0.0312
47847SOL     OW48351  12.144   4.281   2.333  0.1266 -0.0557  0.5025
47847SOL    HW148352  12.231   4.249   2.308  0.2580  1.6599 -1.4862
47847SOL    HW248353  12.090   4.265   2.256  0.1664  4.1488 -0.6519
47848SOL     OW48354  11.099   7.043   5.187 -0.2239 -0.1179  0.4095
47848SOL    HW148355  11.176   7.057   5.241 -0.3951  0.8840  0.4232
47848SOL    HW248356  11.045   7.121   5.201  0.1157  0.6050 -1.8273
47849SOL     OW48357   2.309   8.603   6.517  0.2862  0.2086 -0.2715
47849SOL    HW148358   2.347   8.602   6.430 -0.7263  0.5282 -0.7307
47849SOL    HW248359   2.228   8.553   6.509 -0.6248  1.5645  0.0977
47850SOL     OW48360   1.797  11.713   1.226  0.4612 -0.3907  0.2452
47850SOL    HW148361   1.809  11.618   1.225 -0.1990 -0.6314  3.3911
47850SOL    HW248362   1.709  11.725   1.261  1.2168  1.3501  1.6894
47851SOL     OW48363   3.732   9.471   5.003 -0.1778 -0.9966  0.1799
47851SOL    HW148364   3.743   9.527   4.926  0.1729  0.6522  1.3694
47851SOL    HW248365   3.637   9.460   5.011 -0.3273  0.3662  0.5352
47852SOL     OW48366  12.097   2.153   2.908  0.4077  0.4061 -0.5508
47852SOL    HW148367  12.118   2.214   2.838 -1.4466  0.8344 -0.7851
47852SOL    HW248368  12.031   2.198   2.961 -1.3857 -1.4812 -0.9958
47853SOL     OW48369   0.077   1.415   7.349 -0.1974 -0.1691 -0.5677
47853SOL    HW148370   0.106   1.345   7.408  0.7259 -0.6439 -1.5577
47853SOL    HW248371   0.010   1.462   7.399  0.0114 -1.0302  0.5616
47854SOL     OW48372   2.794   6.876   2.836  0.2913  0.5415  0.1301
47854SOL    HW148373   2.854   6.839   2.901  1.1055 -0.1652 -0.9963
47854SOL    HW248374   2.755   6.951   2.880  0.6903 -0.0202  1.4979
47855SOL     OW48375  11.438   7.674   1.645  0.6471 -0.2343  0.2105
47855SOL    HW148376  11.494   7.641   1.574 -0.4701 -0.4532 -0.6172
47855SOL    HW248377  11.351   7.640   1.623 -0.0781  1.2474  0.6805
47856SOL     OW48378  12.101  10.739   6.071  0.7222 -0.3610  0.1130
47856SOL    HW148379  12.089  10.652   6.108  0.5490 -1.0758 -1.5445
47856SOL    HW248380  12.188  10.766   6.102  0.2693 -0.5829  1.6372
47857SOL     OW48381   8.073   3.953   5.507 -0.3485  0.3760  0.2249
47857SOL    HW148382   8.085   4.047   5.511 -0.6215  0.4106  0.2274
47857SOL    HW248383   7.979   3.941   5.493 -0.1533  0.1388 -1.0571
47858SOL     OW48384  10.629   6.752   5.903  0.1171  0.1873  0.1528
47858SOL    HW148385  10.583   6.672   5.926 -0.1370  0.2384 -0.1594
47858SOL    HW248386  10.715   6.723   5.871  0.7349  0.1582  1.7541
47859SOL     OW48387  10.768   9.714  10.329 -0.4714  0.5177 -0.5120
47859SOL    HW148388  10.777   9.621  10.310  1.3555  0.2184  1.4461
47859SOL    HW248389  10.836   9.756  10.276  0.0860  0.4610  0.1361
47860SOL     OW48390   5.889   1.249   4.334 -0.3234  0.3189 -0.2611
47860SOL    HW148391   5.904   1.299   4.414 -0.9968  1.8370 -1.0381
47860SOL    HW248392   5.969   1.261   4.283 -0.4036  0.4516 -0.3583
47861SOL     OW48393   4.659  12.091   0.134 -0.3570  0.4897 -0.2007
47861SOL    HW148394   4.679  12.004   0.169 -1.2857  0.0050 -0.8191
47861SOL    HW248395   4.716  12.150   0.183 -1.1275 -0.2196  1.6563
47862SOL     OW48396  11.551   5.315   5.070 -0.1291  0.0301 -0.5666
47862SOL    HW148397  11.585   5.242   5.018  0.6362 -0.0035 -0.0307
47862SOL    HW248398  11.481   5.276   5.123 -0.8755  0.0503 -1.5036
47863SOL     OW48399  10.143   9.906   6.185 -0.1066  0.3754 -0.3701
47863SOL    HW148400  10.178   9.995   6.178  0.7889  0.1134  0.5128
47863SOL    HW248401  10.063   9.907   6.133  0.2357  1.5210 -0.8959
47864SOL     OW48402  12.490   8.525   3.389  0.1638  0.0546 -0.0017
47864SOL    HW148403  12.519   8.435   3.402  1.1894  0.4560  0.6388
47864SOL    HW248404  12.561   8.566   3.339 -0.8295  0.2190 -1.3430
47865SOL     OW48405   2.508   6.424   1.681  0.4772  0.3210 -0.0276
47865SOL    HW148406   2.565   6.463   1.615  2.1076  1.1247  1.7510
47865SOL    HW248407   2.431   6.480   1.682 -0.1228 -0.3751 -1.9870
47866SOL     OW48408   9.978   0.337   4.929  0.4463  0.5492  0.0553
47866SOL    HW148409   9.991   0.428   4.954  2.5717  0.1955  0.4306
47866SOL    HW248410   9.895   0.313   4.969  0.1505  2.1336  0.4649
47867SOL     OW48411   8.124   1.233   9.330 -0.9409  0.6868 -0.1359
47867SOL    HW148412   8.200   1.235   9.273 -1.2014  1.2448 -0.4692
47867SOL    HW248413   8.069   1.164   9.293 -0.8626  0.6786 -0.2363
47868SOL     OW48414   4.658   0.008   9.469  0.2614 -0.6840 -0.2895
47868SOL    HW148415   4.723  -0.003   9.399 -0.0304 -1.5038 -0.4434
47868SOL    HW248416   4.710   0.008   9.549  0.6869  1.0625 -0.5203
47869SOL     OW48417   5.406  10.169   3.390  0.0910 -0.2872 -0.3088
47869SOL    HW148418   5.352  10.228   3.337 -0.7191  1.8195  2.5407
47869SOL    HW248419   5.494  10.175   3.352 -0.3676  1.3913 -1.1977
47870SOL     OW48420   6.376   9.648   0.504  0.1024  0.2257  0.0076
47870SOL    HW148421   6.337   9.566   0.473 -0.4120  0.2006  0.6977
47870SOL    HW248422   6.462   9.651   0.461  0.7415 -1.3913  1.0442
47871SOL     OW48423   8.641   9.398   7.051 -0.0107  0.0406  0.5391
47871SOL    HW148424   8.587   9.470   7.084 -2.0820 -1.0124 -0.3521
47871SOL    HW248425   8.614   9.322   7.102  1.7787 -0.2704  1.1100
47872SOL     OW48426   8.193   4.685   1.893 -1.1605  0.5683  0.5485
47872SOL    HW148427   8.141   4.626   1.838  1.4743 -2.8810  1.4397
47872SOL    HW248428   8.137   4.703   1.968 -2.7465  0.8148 -0.6366
47873SOL     OW48429  11.434  10.306   8.149 -0.0870 -0.5240 -0.1192
47873SOL    HW148430  11.443  10.279   8.057 -0.2340 -0.9129 -0.0225
47873SOL    HW248431  11.524  10.326   8.176  0.0521 -1.0840 -0.1490
47874SOL     OW48432   6.249   1.395  10.251  0.1704 -0.8182 -0.1549
47874SOL    HW148433   6.321   1.343  10.214 -0.9791 -1.1881 -2.0084
47874SOL    HW248434   6.191   1.411  10.177 -1.4177 -0.0877  1.1923
47875SOL     OW48435  12.517   3.855   0.822  0.2739  0.2552 -0.5764
47875SOL    HW148436  12.506   3.781   0.763 -1.8052  1.3376 -1.6299
47875SOL    HW248437  12.445   3.848   0.884  1.3085  0.2351  0.6726
47876SOL     OW48438   7.414   6.623   1.802  0.2252 -0.2522  0.4411
47876SOL    HW148439   7.499   6.641   1.843  0.5479  0.1827 -0.3770
47876SOL    HW248440   7.362   6.580   1.870  1.1708 -0.7050  0.8952
47877SOL     OW48441   8.053   1.997  11.557 -0.3572 -0.7769 -0.0574
47877SOL    HW148442   8.024   1.977  11.646 -1.5893 -0.1173 -0.2865
47877SOL    HW248443   8.054   1.912  11.513 -0.8922 -0.9619  0.2670
47878SOL     OW48444   0.594  11.780  11.394  0.4270  0.6121  0.4962
47878SOL    HW148445   0.547  11.700  11.418 -0.5676  1.7418  2.6278
47878SOL    HW248446   0.654  11.753  11.324 -0.4659 -1.7868  0.5670
47879SOL     OW48447   4.937   4.180   4.569  0.0908 -0.2456  0.4724
47879SOL    HW148448   4.980   4.173   4.484  1.9220 -1.2748  1.4085
47879SOL    HW248449   4.847   4.151   4.554  0.4027 -0.4574 -1.0939
47880SOL     OW48450   2.662  10.308   0.755 -0.6935  0.1497  0.3118
47880SOL    HW148451   2.745  10.331   0.797  0.2110 -0.5518 -1.0180
47880SOL    HW248452   2.625  10.240   0.812  0.9986 -1.5196 -0.4743
47881SOL     OW48453   9.300   7.619   9.991  0.2447  0.1715  0.1765
47881SOL    HW148454   9.388   7.610   9.954 -0.4224 -0.4499 -1.3370
47881SOL    HW248455   9.243   7.630   9.915 -0.8538  2.0701  1.1853
47882SOL     OW48456   8.101  10.444   5.231 -0.2443  0.4042  0.3193
47882SOL    HW148457   8.095  10.397   5.314  1.8593  2.9091  2.0641
47882SOL    HW248458   8.065  10.531   5.250 -0.2059  0.8866 -1.5699
47883SOL     OW48459   4.288  11.600   1.371 -0.0215 -0.1067  0.3281
47883SOL    HW148460   4.275  11.630   1.281  0.4611  0.8925  0.5781
47883SOL    HW248461   4.259  11.674   1.425 -1.2339 -1.0609  1.0289
47884SOL     OW48462   4.201   2.356   7.040 -1.1286  0.6792 -0.1758
47884SOL    HW148463   4.242   2.424   6.987  0.9919 -2.4132 -2.8995
47884SOL    HW248464   4.249   2.358   7.123  1.6479  0.0914 -1.6438
47885SOL     OW48465   1.757   6.200   8.877 -0.0114  0.2930  0.3753
47885SOL    HW148466   1.670   6.198   8.915 -0.7924 -0.9979 -1.3398
47885SOL    HW248467   1.756   6.275   8.817 -0.2628 -0.2154 -0.2754
47886SOL     OW48468   1.205   9.505   1.534 -0.7666 -0.4724 -0.2756
47886SOL    HW148469   1.254   9.587   1.531 -2.6737  0.7087 -1.2318
47886SOL    HW248470   1.256   9.444   1.481  1.0779 -0.1612  1.0821
47887SOL     OW48471   3.219   5.570  10.347 -0.2102  0.7218 -0.3705
47887SOL    HW148472   3.286   5.637  10.343  1.1002 -0.5763 -0.8414
47887SOL    HW248473   3.140   5.613  10.313  0.7083  1.8608 -1.1313
47888SOL     OW48474  12.622   2.694   8.233 -0.1221  0.3356 -0.7145
47888SOL    HW148475  12.609   2.650   8.149 -0.6113 -1.4274  0.2244
47888SOL    HW248476  12.715   2.718   8.233  0.3651 -1.4016 -0.9837
47889SOL     OW48477  10.767   4.844  10.524  0.1840 -0.2976 -0.1686
47889SOL    HW148478  10.819   4.770  10.554 -1.0642  0.0264  3.1148
47889SOL    HW248479  10.714   4.870  10.599  0.5841  3.9951 -1.0739
47890SOL     OW48480   0.651   4.605   0.213 -0.3225 -0.1988 -0.5252
47890SOL    HW148481   0.583   4.595   0.147 -2.3621  0.6282  1.3040
47890SOL    HW248482   0.627   4.543   0.282  0.1896  0.8098  0.5979
47891SOL     OW48483   8.650  10.143   9.797  0.6147  0.2365  0.8627
47891SOL    HW148484   8.574  10.087   9.787 -0.5055  1.8338  0.0083
47891SOL    HW248485   8.716  10.087   9.838 -0.1491 -1.9388 -0.6859
47892SOL     OW48486   2.175   2.627  10.451  0.4967  0.2889  0.3166
47892SOL    HW148487   2.203   2.608  10.540  1.4753  1.1487  0.2123
47892SOL    HW248488   2.138   2.715  10.455  2.8440  1.4040 -0.5360
47893SOL     OW48489   3.962   6.098   8.434 -0.0106 -0.0827 -0.3169
47893SOL    HW148490   4.017   6.073   8.509  0.0535  1.1275  0.0605
47893SOL    HW248491   3.899   6.027   8.426  0.0041 -0.2509  0.8731
47894SOL     OW48492  11.278   7.167  11.824 -0.1884 -0.1414 -0.1593
47894SOL    HW148493  11.242   7.123  11.747 -0.0440  0.1270 -0.3800
47894SOL    HW248494  11.347   7.108  11.855  0.1878  0.0540 -0.6152
47895SOL     OW48495   6.136   9.921   8.857 -0.3302 -0.6848  0.8903
47895SOL    HW148496   6.076   9.986   8.895  0.3656  1.3843 -1.3505
47895SOL    HW248497   6.100   9.903   8.770  1.6856 -0.1586 -0.1169
47896SOL     OW48498  11.187   0.432   0.621  0.9287 -0.2502  0.1965
47896SOL    HW148499  11.252   0.423   0.690  0.6441  1.5917  0.7445
47896SOL    HW248500  11.104   0.444   0.668  0.4710 -0.6647 -0.4889
47897SOL     OW48501   8.530   7.791   7.588 -0.3710 -0.3674  0.3671
47897SOL    HW148502   8.499   7.716   7.538  0.9615 -0.8066  0.1504
47897SOL    HW248503   8.539   7.861   7.523 -1.2125 -0.1267  0.4956
47898SOL     OW48504   0.637   5.307   6.828 -0.4564  0.6637 -0.2522
47898SOL    HW148505   0.581   5.338   6.757 -1.5781  1.0216  0.7533
47898SOL    HW248506   0.599   5.223   6.854  0.5041  0.0849 -0.6804
47899SOL     OW48507  10.864   5.901   9.285 -0.6151  0.4660 -0.1694
47899SOL    HW148508  10.809   5.857   9.220 -1.4686  0.7271  0.3574
47899SOL    HW248509  10.847   5.855   9.367  1.0910 -0.4049 -0.2538
47900SOL     OW48510   2.029   7.572   0.326 -0.0813 -0.2160 -0.0195
47900SOL    HW148511   1.934   7.567   0.326 -0.1661  0.9842  0.4494
47900SOL    HW248512   2.055   7.543   0.238 -0.7113 -2.6682  0.5385
47901SOL     OW48513  10.516   7.146   2.368  0.2084  0.4659 -0.1896
47901SOL    HW148514  10.549   7.195   2.443 -1.4895  0.6498  0.4702
47901SOL    HW248515  10.487   7.213   2.306 -0.1570  0.3097 -0.1891
47902SOL     OW48516   2.362  11.197   5.367  0.7768  0.6420 -0.5203
47902SOL    HW148517   2.310  11.142   5.308  0.3164 -0.0581  0.5114
47902SOL    HW248518   2.302  11.218   5.439  1.5313  0.9085  0.0404
47903SOL     OW48519   7.819   3.553   6.986 -0.0566 -0.0332 -0.0438
47903SOL    HW148520   7.783   3.465   6.970 -0.0510 -0.2754  1.1502
47903SOL    HW248521   7.762   3.590   7.053  0.0465  0.8133 -0.4195
47904SOL     OW48522   5.396   8.311   7.016 -0.1933 -0.5204  0.2087
47904SOL    HW148523   5.360   8.227   7.046 -1.9936  0.0960 -0.1517
47904SOL    HW248524   5.488   8.291   6.998 -0.6012 -2.4691 -0.0235
47905SOL     OW48525   8.630   3.234   9.925  0.1557 -0.2287 -0.0464
47905SOL    HW148526   8.592   3.317   9.954 -2.2702 -0.6194 -1.8111
47905SOL    HW248527   8.672   3.199  10.004  1.0120  2.4730  0.8385
47906SOL     OW48528   7.931   0.675   4.198  0.9834  0.2256 -0.1841
47906SOL    HW148529   7.918   0.623   4.119 -0.3226  0.5857 -0.2385
47906SOL    HW248530   7.914   0.615   4.270  0.0888  0.3926 -0.2368
47907SOL     OW48531   2.643   4.077  12.606 -0.0747  0.5469 -0.0546
47907SOL    HW148532   2.556   4.091  12.568  0.0210  0.6215 -0.2480
47907SOL    HW248533   2.681   4.007  12.554  0.1203  0.7621 -0.2044
47908SOL     OW48534  11.684   0.438   7.431 -0.3695 -0.5034 -0.0104
47908SOL    HW148535  11.705   0.480   7.514 -1.9451  0.3045  0.0149
47908SOL    HW248536  11.623   0.498   7.389 -0.7352 -1.6051 -1.1006
47909SOL     OW48537   0.194   6.256  10.837  0.1498 -0.3460  0.2707
47909SOL    HW148538   0.112   6.239  10.884 -1.1054 -1.6181 -2.2136
47909SOL    HW248539   0.184   6.344  10.803 -0.8086 -0.9417 -1.0873
47910SOL     OW48540   3.896   4.834   0.395 -0.5179 -0.2512 -0.4008
47910SOL    HW148541   3.836   4.760   0.409 -0.3425 -0.3759 -0.2978
47910SOL    HW248542   3.904   4.841   0.300 -1.6735  0.5630 -0.4626
47911SOL     OW48543   2.442   8.322  11.275  0.2326 -0.1246  0.5714
47911SOL    HW148544   2.389   8.270  11.335  0.7617 -0.5881  0.6430
47911SOL    HW248545   2.525   8.335  11.320  0.3345  0.2371  0.2873
47912SOL     OW48546   6.397  11.465   1.351  0.3969 -0.6451 -0.5069
47912SOL    HW148547   6.318  11.415   1.374  0.1258 -0.1519 -0.3600
47912SOL    HW248548   6.432  11.419   1.275  0.5941 -1.5334  0.1097
47913SOL     OW48549   6.109   4.842   6.657  1.0825  0.1995 -0.0512
47913SOL    HW148550   6.162   4.803   6.588 -0.2771 -1.8982  0.0053
47913SOL    HW248551   6.173   4.878   6.718  2.6714 -3.4181  0.7165
47914SOL     OW48552  10.472   0.895  10.076  0.4544 -0.2801  0.1625
47914SOL    HW148553  10.561   0.871  10.101 -0.4294 -0.3712  3.6683
47914SOL    HW248554  10.417   0.863  10.147 -2.5547 -0.9314 -2.2379
47915SOL     OW48555   4.156  11.385  10.960  0.1511 -0.0755 -0.5577
47915SOL    HW148556   4.203  11.466  10.979  1.3593 -1.1746  1.5110
47915SOL    HW248557   4.082  11.413  10.906  1.0568  2.2455 -0.7418
47916SOL     OW48558   8.435   8.207   0.752 -0.0862 -0.2647  0.1702
47916SOL    HW148559   8.360   8.177   0.700 -2.4289  2.7099  1.5104
47916SOL    HW248560   8.455   8.293   0.717  1.2394 -0.0587  1.3574
47917SOL     OW48561   8.417   5.739   7.056 -0.2879  0.1422 -0.2067
47917SOL    HW148562   8.431   5.765   7.147  0.0144  1.1731 -0.5293
47917SOL    HW248563   8.441   5.817   7.005 -1.0190 -0.2174 -1.1366
47918SOL     OW48564  10.285   8.473   4.630  0.3910  0.3218  0.7175
47918SOL    HW148565  10.338   8.479   4.710  0.5769  0.9786  0.5547
47918SOL    HW248566  10.295   8.559   4.589 -0.1192  0.1604  0.2489
47919SOL     OW48567  10.057   4.768   4.784  0.2034 -0.0910 -0.4633
47919SOL    HW148568  10.095   4.688   4.747  0.1583 -0.1331 -0.4178
47919SOL    HW248569  10.120   4.836   4.762  1.8538 -0.6148  2.2484
47920SOL     OW48570  10.506   9.709   8.287  0.2266 -0.1663  0.2226
47920SOL    HW148571  10.434   9.688   8.227  1.9843 -3.0411 -1.1006
47920SOL    HW248572  10.475   9.680   8.373 -0.9717  0.6664  0.0952
47921SOL     OW48573   5.412   2.019  10.251  0.2529 -0.3331  0.3237
47921SOL    HW148574   5.451   2.102  10.278 -0.1424  0.0661 -0.2943
47921SOL    HW248575   5.350   2.044  10.182 -0.8267 -0.9767  1.0387
47922SOL     OW48576   7.880   5.939  12.251  0.1884 -0.1760 -0.4471
47922SOL    HW148577   7.845   5.861  12.294  2.4463 -1.6115 -0.9993
47922SOL    HW248578   7.809   6.002  12.253 -2.1602 -2.6272 -0.9496
47923SOL     OW48579  10.307  10.521  10.189  0.5161  0.2543  0.4040
47923SOL    HW148580  10.230  10.512  10.244  0.8065  0.8508  0.9154
47923SOL    HW248581  10.379  10.486  10.241  0.5853 -0.3611 -0.0944
47924SOL     OW48582  12.320   2.709   9.666  0.0289 -0.4465  0.2599
47924SOL    HW148583  12.282   2.788   9.704 -0.0148  0.0993 -0.8724
47924SOL    HW248584  12.245   2.662   9.629  0.2759  0.0461 -0.9283
47925SOL     OW48585  11.568   4.869   1.670  0.1187  0.3096 -0.0900
47925SOL    HW148586  11.552   4.783   1.629  0.6791  0.2571 -0.1995
47925SOL    HW248587  11.644   4.855   1.726 -0.2126  0.5654  0.4331
47926SOL     OW48588  10.208  10.950   8.584 -0.2563 -0.2792 -0.6571
47926SOL    HW148589  10.205  11.020   8.649 -0.7293 -0.0208 -0.9460
47926SOL    HW248590  10.184  10.871   8.633  1.3893 -0.4578 -0.0781
47927SOL     OW48591   5.350   7.453   9.147 -0.1859 -0.0153 -0.1806
47927SOL    HW148592   5.432   7.486   9.182  0.0650  0.2695 -1.0106
47927SOL    HW248593   5.286   7.469   9.216  0.5006 -0.4732  0.5768
47928SOL     OW48594   4.284   8.452   0.292 -0.3514  0.7302  0.3934
47928SOL    HW148595   4.316   8.542   0.287  1.2237  0.2007  0.3555
47928SOL    HW248596   4.226   8.451   0.369 -0.4829  1.7926  0.3206
47929SOL     OW48597   9.738   9.141   3.304 -0.9654  0.2430 -0.3415
47929SOL    HW148598   9.660   9.088   3.289 -0.7618 -0.2252  0.2168
47929SOL    HW248599   9.758   9.129   3.396 -0.4625  0.6844 -0.3856
47930SOL     OW48600  12.084  10.979   9.075 -0.1621  0.4167  0.5212
47930SOL    HW148601  12.015  11.019   9.022  0.3590 -0.7916 -1.1673
47930SOL    HW248602  12.077  10.885   9.057  0.7845  0.0780  1.7323
47931SOL     OW48603   8.644   4.099  11.763  0.7521  0.7065  0.2157
47931SOL    HW148604   8.676   4.028  11.818  1.3816  0.1515 -0.8357
47931SOL    HW248605   8.589   4.151  11.821 -0.0542 -0.8561  0.9148
47932SOL     OW48606   6.129   3.332   6.293 -0.0138  0.4904  0.0250
47932SOL    HW148607   6.117   3.422   6.263  0.5778  0.2787 -0.8793
47932SOL    HW248608   6.210   3.334   6.344 -1.0155  0.8492  1.6673
47933SOL     OW48609   9.341   0.243   0.672  0.2608 -0.5247 -0.1639
47933SOL    HW148610   9.425   0.277   0.702 -0.4211  0.4905  0.6233
47933SOL    HW248611   9.284   0.247   0.748 -0.5637 -1.0559 -0.7322
47934SOL     OW48612   5.858  10.504   3.850 -0.3679 -0.2076 -0.5615
47934SOL    HW148613   5.861  10.504   3.946  1.5835 -3.2127 -0.4931
47934SOL    HW248614   5.894  10.590   3.826 -0.8616  0.6033  1.3807
47935SOL     OW48615   6.622   5.725   6.789 -0.0785 -0.4470 -0.2687
47935SOL    HW148616   6.564   5.779   6.844 -0.2904 -0.4562 -0.4812
47935SOL    HW248617   6.706   5.771   6.791  0.0565 -0.7096  0.4655
47936SOL     OW48618  10.229   3.217   3.148 -0.6737  0.4972 -0.0728
47936SOL    HW148619  10.205   3.151   3.213  1.1172  0.7714  0.9466
47936SOL    HW248620  10.212   3.175   3.064 -0.6941 -0.8324  0.5698
47937SOL     OW48621   1.155   3.516   5.149 -0.3423  0.2643 -0.4011
47937SOL    HW148622   1.101   3.490   5.225 -0.8133  2.6724  0.1553
47937SOL    HW248623   1.245   3.495   5.176 -0.6954 -0.9621 -0.1057
47938SOL     OW48624   7.153   4.348   9.143  0.3997  0.5884 -0.0230
47938SOL    HW148625   7.199   4.284   9.198 -0.5438  0.1386  0.2604
47938SOL    HW248626   7.067   4.309   9.127 -0.1393  1.7056  0.0272
47939SOL     OW48627   5.895   3.725   4.367  0.6168 -0.1808 -0.7214
47939SOL    HW148628   5.981   3.763   4.347  0.8114  0.1520  0.6596
47939SOL    HW248629   5.837   3.765   4.302  0.7171  2.9866  0.9001
47940SOL     OW48630   2.845   2.830   4.596  0.2245 -0.5710  0.4774
47940SOL    HW148631   2.812   2.747   4.563  0.8412 -0.5344 -0.2469
47940SOL    HW248632   2.801   2.841   4.681 -0.1101 -1.4681  0.4295
47941SOL     OW48633   5.554   7.084   2.671  0.2022 -0.0387 -0.5905
47941SOL    HW148634   5.644   7.053   2.687 -0.0295 -1.5519 -1.8934
47941SOL    HW248635   5.526   7.034   2.594 -0.6482  2.7282 -2.1955
47942SOL     OW48636  12.136   3.976  12.347  0.3124  0.2021 -0.1659
47942SOL    HW148637  12.163   3.920  12.420  1.1114  0.2028 -0.4472
47942SOL    HW248638  12.080   3.920  12.293  1.2279 -0.3882 -0.5252
47943SOL     OW48639   2.479   4.208  10.340 -0.0435 -0.2138 -0.0881
47943SOL    HW148640   2.452   4.300  10.340  0.5786 -0.0120 -0.9377
47943SOL    HW248641   2.400   4.159  10.318 -0.1283  0.2254 -0.8076
47944SOL     OW48642   4.639   2.922  12.313 -0.1341  0.1131  0.2141
47944SOL    HW148643   4.703   2.877  12.367 -2.6161 -2.9120  0.9414
47944SOL    HW248644   4.672   2.913  12.224  0.7836 -0.7622  0.6295
47945SOL     OW48645   7.399   3.659   0.505  0.0253  0.2618  0.3215
47945SOL    HW148646   7.320   3.643   0.453 -0.1003 -1.0723  0.8912
47945SOL    HW248647   7.375   3.732   0.562 -0.9403 -0.3801  0.7559
47946SOL     OW48648  12.580   6.431   5.415  0.7545 -0.1697 -0.3243
47946SOL    HW148649  12.551   6.515   5.378  1.4678  0.5201  0.6014
47946SOL    HW248650  12.533   6.425   5.499  2.4594  0.4954  0.7389
47947SOL     OW48651   2.131  11.731   9.757  0.1312 -0.1707  0.0630
47947SOL    HW148652   2.218  11.706   9.727  0.7354  0.9850  0.7954
47947SOL    HW248653   2.101  11.796   9.693 -0.4027 -0.9142 -0.4546
47948SOL     OW48654   7.951   2.910   0.833  0.3222  0.2314  0.0361
47948SOL    HW148655   8.037   2.931   0.798 -0.0950  0.1580 -1.0741
47948SOL    HW248656   7.950   2.951   0.920  1.3134  0.5839 -0.1052
47949SOL     OW48657   6.056   8.129   2.270  0.0405  0.4434  0.1009
47949SOL    HW148658   6.016   8.211   2.239  1.5708  1.5426  0.8780
47949SOL    HW248659   6.140   8.125   2.225 -0.1618 -0.9167 -0.1871
47950SOL     OW48660   0.650   4.865   4.448  0.4220 -0.3317 -0.0564
47950SOL    HW148661   0.730   4.884   4.399  1.2959  1.9240  2.0199
47950SOL    HW248662   0.580   4.907   4.398  1.1596  1.1449  0.1005
47951SOL     OW48663   1.653   2.048   5.339  0.0320  0.2655 -0.5562
47951SOL    HW148664   1.683   2.057   5.429 -0.6171 -0.6445 -0.2372
47951SOL    HW248665   1.730   2.069   5.286  0.4041  0.8544  0.2003
47952SOL     OW48666  11.714  10.047  12.535 -0.0472  0.1279 -0.4394
47952SOL    HW148667  11.705  10.016  12.445  0.1449 -1.1167 -0.0485
47952SOL    HW248668  11.802  10.021  12.561 -1.0627 -2.2369  1.0555
47953SOL     OW48669   0.815   1.666   7.883 -0.2305 -0.0456  0.1777
47953SOL    HW148670   0.900   1.696   7.912 -0.0567 -0.1082 -0.2591
47953SOL    HW248671   0.796   1.590   7.938  1.5443 -2.1900 -1.9041
47954SOL     OW48672   7.769   1.972   2.716  0.3983 -0.0441  0.0162
47954SOL    HW148673   7.768   1.895   2.660 -0.5991  0.4865 -0.7253
47954SOL    HW248674   7.794   2.044   2.659  1.5906  0.1576  0.7634
47955SOL     OW48675   4.024   6.906   2.415 -0.0003 -0.4641  0.4967
47955SOL    HW148676   3.989   6.824   2.451  0.7085 -0.9225  0.1644
47955SOL    HW248677   4.082   6.938   2.484  1.2141 -1.2474 -0.1248
47956SOL     OW48678  10.029   2.943   5.098  0.2823 -0.3824 -0.2405
47956SOL    HW148679  10.115   2.902   5.107 -0.7290 -2.6662 -0.2768
47956SOL    HW248680   9.986   2.926   5.182 -1.1402 -1.9330 -1.2006
47957SOL     OW48681   4.117   1.407   7.313 -0.4196  0.2730  0.1105
47957SOL    HW148682   4.068   1.462   7.374 -1.3966  0.6156 -0.9360
47957SOL    HW248683   4.176   1.468   7.268 -1.6081  0.5499 -1.1561
47958SOL     OW48684   6.348   7.128   7.695 -0.4896 -0.0974  0.2074
47958SOL    HW148685   6.370   7.040   7.726 -0.7365 -0.4909 -0.7159
47958SOL    HW248686   6.267   7.116   7.646 -0.7324  0.7148  0.4040
47959SOL     OW48687  11.276   0.958   7.430  0.1218 -0.2194  0.7789
47959SOL    HW148688  11.249   0.880   7.477 -3.1761  0.9744  1.1495
47959SOL    HW248689  11.238   1.031   7.480  3.1836  1.7159  0.5621
47960SOL     OW48690   8.394  11.573   7.772  0.6579 -0.7597  0.2068
47960SOL    HW148691   8.407  11.645   7.710 -2.0550 -0.8442 -0.5569
47960SOL    HW248692   8.445  11.598   7.849 -0.4879  2.1913  0.1260
47961SOL     OW48693   8.796   1.670   3.561 -0.0838 -0.7209  0.6340
47961SOL    HW148694   8.779   1.762   3.580  2.0290 -0.2263  0.4453
47961SOL    HW248695   8.851   1.641   3.634  0.0285 -1.5689  0.2169
47962SOL     OW48696   8.531   6.745   2.297  0.4286  0.3933 -0.1107
47962SOL    HW148697   8.588   6.779   2.228  0.5694  0.7178  0.1596
47962SOL    HW248698   8.562   6.656   2.313  0.8972  0.5871  0.0728
47963SOL     OW48699  11.233  11.206   3.630  0.3739  0.2325  0.2241
47963SOL    HW148700  11.284  11.285   3.610  0.8889  0.0685  0.8651
47963SOL    HW248701  11.231  11.202   3.726 -0.9133  0.2712  0.2090
47964SOL     OW48702   4.227   2.650  12.063  0.0455 -0.0745  0.1310
47964SOL    HW148703   4.321   2.665  12.051  0.2308 -0.9037  0.5251
47964SOL    HW248704   4.188   2.736  12.050  0.7873  0.1429 -0.7778
47965SOL     OW48705   0.260   6.255   6.220  0.1962 -0.2397  0.5398
47965SOL    HW148706   0.330   6.289   6.165 -0.2812  0.3377  0.2796
47965SOL    HW248707   0.296   6.175   6.258 -0.2447 -1.9064 -2.3362
47966SOL     OW48708   0.455   0.181   1.070 -0.6374 -0.2946  0.4848
47966SOL    HW148709   0.432   0.115   1.136 -3.7120 -0.3131 -0.4396
47966SOL    HW248710   0.425   0.264   1.108  1.1999  0.3131  0.7037
47967SOL     OW48711   9.860   7.370  11.491  0.2567  0.3889 -0.1650
47967SOL    HW148712   9.888   7.442  11.434 -0.2251 -0.5617 -1.6520
47967SOL    HW248713   9.885   7.291  11.443 -0.2019 -0.4500  0.9462
47968SOL     OW48714   5.756   1.905   5.056  0.1126 -0.2476  0.0353
47968SOL    HW148715   5.845   1.913   5.090  0.3603  0.2448 -0.7094
47968SOL    HW248716   5.751   1.816   5.022  0.7466  0.1400 -1.0985
47969SOL     OW48717   9.246   8.606   6.330  0.4595 -0.2295  0.3421
47969SOL    HW148718   9.277   8.581   6.243 -1.6528 -0.4793 -0.3931
47969SOL    HW248719   9.309   8.672   6.360  0.5822  0.7556 -1.8986
47970SOL     OW48720   6.033   4.152   9.215 -0.0256 -0.1469  0.3855
47970SOL    HW148721   6.010   4.103   9.294  1.0121  0.7484  1.2816
47970SOL    HW248722   6.128   4.164   9.221 -0.1169  1.0887 -0.3058
47971SOL     OW48723   8.734   4.689   5.158  0.2335  0.5167 -0.1548
47971SOL    HW148724   8.783   4.666   5.079  0.7704 -1.3331  0.6799
47971SOL    HW248725   8.786   4.758   5.199  0.8076  0.3346 -0.5667
47972SOL     OW48726   7.753   6.346   3.472 -0.0172 -0.1130 -0.9845
47972SOL    HW148727   7.794   6.405   3.409 -0.2443  1.2002  0.0436
47972SOL    HW248728   7.694   6.292   3.419  0.9090 -0.0849 -2.0801
47973SOL     OW48729   3.555   3.312   0.105  0.0070 -0.0600  0.6233
47973SOL    HW148730   3.538   3.222   0.077  3.1239 -0.7383  0.5287
47973SOL    HW248731   3.558   3.362   0.023  0.5214 -0.3261  0.4783
47974SOL     OW48732   8.138  10.580   5.933  0.0996  0.5084 -0.8522
47974SOL    HW148733   8.050  10.604   5.905 -0.2617  0.5618  0.3035
47974SOL    HW248734   8.164  10.509   5.874 -2.4101 -2.5685  1.3826
47975SOL     OW48735   8.752   6.816   8.593  0.3036 -0.0498 -0.3848
47975SOL    HW148736   8.744   6.898   8.643  0.5795  0.3824 -1.0438
47975SOL    HW248737   8.838   6.782   8.617  0.0838 -0.2927  0.0900
47976SOL     OW48738   9.446   0.260   9.032 -0.0039  0.6572  0.3934
47976SOL    HW148739   9.475   0.265   8.940 -0.1361  0.5530  0.3457
47976SOL    HW248740   9.511   0.204   9.074  0.6841  1.5981  0.6143
47977SOL     OW48741   8.526   1.078  11.534 -0.6861  0.2026  0.2471
47977SOL    HW148742   8.494   1.153  11.483  0.8034  1.2726  0.8285
47977SOL    HW248743   8.488   1.091  11.621 -0.5294  0.2105  0.3145
47978SOL     OW48744   0.529   8.234   2.711 -0.6714  0.5027 -0.2594
47978SOL    HW148745   0.511   8.144   2.740  1.4167 -0.5247 -1.9369
47978SOL    HW248746   0.566   8.277   2.788  0.0846 -0.6512  0.0435
47979SOL     OW48747   9.194   3.573   4.823 -0.2464 -0.0010 -0.0961
47979SOL    HW148748   9.146   3.546   4.745  2.0556 -1.6025 -1.0778
47979SOL    HW248749   9.181   3.501   4.885 -1.2992  0.8324  0.6790
47980SOL     OW48750   5.858   1.124   1.653  0.1861  0.6838 -0.6091
47980SOL    HW148751   5.833   1.215   1.662  0.8512  0.8463 -0.3555
47980SOL    HW248752   5.885   1.115   1.561  0.1079  0.7353 -0.6369
47981SOL     OW48753   1.818   8.730   6.261  0.3818 -0.5944  0.3985
47981SOL    HW148754   1.820   8.647   6.213 -0.8601 -0.0687 -0.6320
47981SOL    HW248755   1.741   8.723   6.317 -0.5273  0.3455 -0.6794
47982SOL     OW48756  11.767   3.460   8.714 -0.4898  0.2861 -0.5930
47982SOL    HW148757  11.775   3.371   8.679 -0.7769 -0.8332  1.9940
47982SOL    HW248758  11.675   3.482   8.703 -0.8208 -0.5172  0.4318
47983SOL     OW48759   2.094  12.157   3.351  0.1153  0.1817  0.3475
47983SOL    HW148760   2.130  12.142   3.438  0.1992 -0.8081  0.1612
47983SOL    HW248761   2.043  12.237   3.359  1.2221  0.8516  0.9645
47984SOL     OW48762   1.729   4.735   9.924 -0.3531  0.2234 -0.1918
47984SOL    HW148763   1.751   4.753  10.015 -0.6937 -0.4295  0.0325
47984SOL    HW248764   1.751   4.815   9.877  2.2589 -0.2787  0.0233
47985SOL     OW48765   3.392   4.213  10.655  0.0849 -0.6515  0.5702
47985SOL    HW148766   3.303   4.237  10.679  0.0784  0.3271 -0.3906
47985SOL    HW248767   3.434   4.189  10.738 -0.9543 -0.7758  1.0707
47986SOL     OW48768   1.193   6.664   7.299  0.0165 -0.1355 -0.4550
47986SOL    HW148769   1.131   6.737   7.302  0.2405  0.0633 -0.5923
47986SOL    HW248770   1.246   6.673   7.378 -1.4606 -1.5083  0.7447
47987SOL     OW48771   7.900   2.410   9.557 -0.2849  0.5984  0.0133
47987SOL    HW148772   7.838   2.470   9.514 -0.1150 -1.1269 -2.9394
47987SOL    HW248773   7.857   2.324   9.553  1.1137 -0.1547  0.5190
47988SOL     OW48774   8.040  10.592   0.544 -0.1799 -0.2846  0.9600
47988SOL    HW148775   8.092  10.537   0.485 -0.4241  0.4711  0.0088
47988SOL    HW248776   8.073  10.681   0.530 -1.0315  0.0636  1.1026
47989SOL     OW48777   8.076   0.400   9.449  0.1626  0.2152  0.2167
47989SOL    HW148778   8.130   0.343   9.504 -0.8751 -0.6687  0.3268
47989SOL    HW248779   8.114   0.488   9.463  1.0876 -0.2667  0.8799
47990SOL     OW48780  12.616   7.844   9.650  0.0972 -0.0003 -0.6167
47990SOL    HW148781  12.702   7.815   9.621  1.0294  1.0290  0.9608
47990SOL    HW248782  12.556   7.810   9.584  1.9424  1.5193 -3.2621
47991SOL     OW48783   6.309  10.318   0.802  0.1568 -0.3109  0.0296
47991SOL    HW148784   6.222  10.331   0.839  0.7885  1.4302  0.9715
47991SOL    HW248785   6.365  10.378   0.849  1.6855 -0.6011 -1.3299
47992SOL     OW48786   5.631  11.869   0.294  0.0306 -0.2385  0.9678
47992SOL    HW148787   5.587  11.935   0.242  1.5715 -0.8104 -1.1830
47992SOL    HW248788   5.573  11.793   0.291 -0.0321 -0.1669  0.3412
47993SOL     OW48789   1.696   0.513   1.846 -0.2037  0.1416  0.6981
47993SOL    HW148790   1.678   0.498   1.754  0.9049 -0.0027  0.4987
47993SOL    HW248791   1.704   0.609   1.854  1.2549  0.0695  0.3307
47994SOL     OW48792   6.736   9.008   3.028 -0.1058 -0.6970 -0.2612
47994SOL    HW148793   6.657   9.024   3.079  1.2023  0.1139  1.6350
47994SOL    HW248794   6.713   9.033   2.939 -1.2191  2.1132  0.7186
47995SOL     OW48795  12.214  10.411   5.436  0.1626  0.2299 -0.4315
47995SOL    HW148796  12.256  10.476   5.378 -0.6629  0.4546 -0.7849
47995SOL    HW248797  12.224  10.448   5.524  0.3946  0.4520 -0.5483
47996SOL     OW48798   0.078   9.135   9.662 -0.1863 -0.0976  0.1038
47996SOL    HW148799  -0.009   9.096   9.675 -0.1088 -0.9929 -1.6987
47996SOL    HW248800   0.138   9.062   9.675  0.0235 -0.4324 -2.3847
47997SOL     OW48801   5.872   4.749   6.754 -0.0131  0.5327  0.7660
47997SOL    HW148802   5.797   4.808   6.744 -0.2522  0.0011 -1.0276
47997SOL    HW248803   5.946   4.799   6.718 -0.0730  0.0533 -0.0517
47998SOL     OW48804  10.339   7.062   6.442  0.6609 -0.1451 -0.3257
47998SOL    HW148805  10.374   7.082   6.529  1.2340 -0.5826 -0.4534
47998SOL    HW248806  10.268   7.000   6.458  0.5342  0.0420 -0.1480
47999SOL     OW48807   5.238   8.596   8.572 -0.1861 -0.4013 -0.3699
47999SOL    HW148808   5.145   8.621   8.580 -0.0233  0.7569 -1.7148
47999SOL    HW248809   5.284   8.656   8.631 -0.0994  0.5126 -1.3368
48000SOL     OW48810   5.162   8.999  12.224  0.1195 -0.2621 -0.0947
48000SOL    HW148811   5.104   8.926  12.246  0.4794 -0.3274  0.6878
48000SOL    HW248812   5.131   9.030  12.139 -0.2341 -1.1272 -0.2894
48001SOL     OW48813   6.657   1.118   0.688  0.5389 -0.6555 -0.5359
48001SOL    HW148814   6.677   1.083   0.601  1.0401 -2.1563  0.1501
48001SOL    HW248815   6.740   1.113   0.735  0.5392  1.1604 -0.2695
48002SOL     OW48816  10.166  10.580   6.161  0.3972 -0.2170  0.3279
48002SOL    HW148817  10.229  10.511   6.183  0.1475 -0.6519 -0.2928
48002SOL    HW248818  10.169  10.586   6.065 -1.0172 -0.7469  0.2306
48003SOL     OW48819   3.104   5.365   0.520 -0.0092  0.0293  0.1131
48003SOL    HW148820   3.066   5.288   0.478 -1.8039 -0.2679  2.1405
48003SOL    HW248821   3.184   5.332   0.562 -0.4971 -0.6387  0.5390
48004SOL     OW48822   5.616   1.237   4.265  0.1643 -0.4964 -0.2412
48004SOL    HW148823   5.687   1.225   4.328  0.9917  0.0907 -1.0445
48004SOL    HW248824   5.660   1.261   4.184 -0.9470 -0.3288 -0.8044
48005SOL     OW48825   0.489   9.472   0.604  0.2951  0.1879  0.4108
48005SOL    HW148826   0.469   9.394   0.553  0.0903  0.9333 -0.6766
48005SOL    HW248827   0.442   9.543   0.560 -3.0068  0.3455  3.6707
48006SOL     OW48828   9.134   9.604   7.895 -0.5652  0.0101  0.1470
48006SOL    HW148829   9.096   9.518   7.912 -1.1477  0.4495  1.1338
48006SOL    HW248830   9.065   9.651   7.847 -1.2670  0.7719  1.8419
48007SOL     OW48831  11.637   9.106   0.771 -0.3013  0.2339  0.0572
48007SOL    HW148832  11.662   9.081   0.682  0.8217  1.3976  0.0138
48007SOL    HW248833  11.688   9.047   0.827  1.2451  1.4026 -0.0610
48008SOL     OW48834  12.514   8.882   2.190  0.0739  0.2683  0.1685
48008SOL    HW148835  12.551   8.970   2.192  1.2594 -0.0734 -2.6125
48008SOL    HW248836  12.561   8.838   2.120 -0.3117 -2.7020  1.6423
48009SOL     OW48837   8.102  10.300   7.522 -0.3207  0.2050  0.3368
48009SOL    HW148838   8.181  10.275   7.474 -0.0253  0.3846  0.7182
48009SOL    HW248839   8.117  10.268   7.611 -0.3913  0.8125  0.5723
48010SOL     OW48840   6.007   6.641   4.067 -0.4151 -0.3310 -0.1297
48010SOL    HW148841   6.065   6.641   4.143  1.8919 -1.2883 -1.7617
48010SOL    HW248842   5.920   6.629   4.103  0.4694  0.3743  2.4157
48011SOL     OW48843   8.910   9.598   4.202 -0.0168 -0.6252 -0.2915
48011SOL    HW148844   8.856   9.675   4.220  0.7661  0.0758 -0.8171
48011SOL    HW248845   8.959   9.584   4.283  2.1318  1.3824 -1.1196
48012SOL     OW48846   1.129   2.583   5.545  0.3542  0.3337  0.0085
48012SOL    HW148847   1.101   2.673   5.529  1.2968  0.4872 -0.8713
48012SOL    HW248848   1.048   2.534   5.554 -0.1790  1.1251 -0.3439
48013SOL     OW48849  10.453   5.973  10.509  0.4422 -0.5704  0.3015
48013SOL    HW148850  10.497   5.889  10.521  0.5547 -0.5737 -0.0953
48013SOL    HW248851  10.510   6.037  10.551 -0.2526 -0.8380  1.6932
48014SOL     OW48852   2.690   0.009  10.869 -0.2863  1.0145 -0.3968
48014SOL    HW148853   2.605   0.035  10.904 -0.1784  1.7901 -0.7024
48014SOL    HW248854   2.737   0.091  10.854  0.0908  0.6537 -1.2968
48015SOL     OW48855   4.724   8.819   4.273 -0.2483  0.4410 -0.0084
48015SOL    HW148856   4.752   8.804   4.183 -0.1559 -1.6977  0.3318
48015SOL    HW248857   4.663   8.747   4.291 -0.6226  1.1083  1.4866
48016SOL     OW48858   3.410   4.055   5.202  0.1112  0.0425  0.6496
48016SOL    HW148859   3.448   4.141   5.184 -1.2571  0.4565 -0.3801
48016SOL    HW248860   3.486   3.995   5.204  0.8831  0.9404 -0.6410
48017SOL     OW48861   2.909  11.398   1.085 -0.1309 -0.0976  0.1879
48017SOL    HW148862   2.863  11.321   1.051 -0.8015  1.0778 -1.7393
48017SOL    HW248863   2.857  11.427   1.160  0.6092 -1.9625  1.4912
48018SOL     OW48864  11.436   4.240  12.097  0.1017  0.5223 -0.6233
48018SOL    HW148865  11.468   4.245  12.188  1.1608  1.1059 -1.0010
48018SOL    HW248866  11.379   4.164  12.095  0.2006  0.4032  0.5008
48019SOL     OW48867   4.602  12.266  10.753  0.3862 -0.4273  0.0010
48019SOL    HW148868   4.656  12.332  10.709 -1.7338  0.3408 -1.6235
48019SOL    HW248869   4.661  12.192  10.766  2.1429  0.8027 -0.5244
48020SOL     OW48870   4.280  12.425  11.927  0.0662  0.5735  0.3570
48020SOL    HW148871   4.254  12.459  12.013  0.0901  0.8512  0.2529
48020SOL    HW248872   4.375  12.423  11.931  0.0691  0.6449  0.3132
48021SOL     OW48873  10.935   4.826  11.170 -0.0446  1.0215 -0.1578
48021SOL    HW148874  10.917   4.915  11.199  0.7892  0.8883  0.8032
48021SOL    HW248875  10.937   4.774  11.250 -2.4573 -0.2536 -0.8334
48022SOL     OW48876  11.854   7.692   8.336  0.0973 -0.3904 -0.0202
48022SOL    HW148877  11.809   7.692   8.420  0.0209 -1.1096 -0.0556
48022SOL    HW248878  11.796   7.644   8.277  0.3882 -0.3474 -0.3460
48023SOL     OW48879   9.038   1.990   2.244 -0.5323 -0.0254 -0.3812
48023SOL    HW148880   8.998   2.071   2.274 -0.6319 -0.0411 -0.4739
48023SOL    HW248881   9.043   1.998   2.149  0.4575  0.3362 -0.3164
48024SOL     OW48882   7.495  10.932   8.239  0.0471 -0.0029 -0.3577
48024SOL    HW148883   7.455  10.880   8.169  0.0757  1.2933 -1.3682
48024SOL    HW248884   7.466  10.889   8.319 -0.5761 -1.1030 -1.1327
48025SOL     OW48885  10.776  12.406  12.085 -0.9310  0.0159 -0.3801
48025SOL    HW148886  10.828  12.393  12.006 -1.7159 -0.7770 -0.7818
48025SOL    HW248887  10.721  12.328  12.091 -0.8197  0.0129  1.0049
48026SOL     OW48888   8.367   4.661   7.958  0.2017 -0.1322  0.3425
48026SOL    HW148889   8.276   4.671   7.986  0.8281  1.3364  2.0435
48026SOL    HW248890   8.389   4.747   7.921  0.4229 -1.0082 -1.7069
48027SOL     OW48891   7.892  10.004   0.496  0.1117  0.3365  0.4853
48027SOL    HW148892   7.942  10.051   0.430 -2.4734  0.8207 -1.2815
48027SOL    HW248893   7.861  10.071   0.556 -2.7867  0.9704 -1.5051
48028SOL     OW48894   6.652   4.100   8.095  0.0403  0.6750 -0.1345
48028SOL    HW148895   6.744   4.083   8.117 -0.2980  2.5074  3.4459
48028SOL    HW248896   6.610   4.014   8.100  1.1992  0.1006  0.1314
48029SOL     OW48897   3.633  10.159  11.481 -0.4299  0.3837 -0.2547
48029SOL    HW148898   3.710  10.108  11.457  0.0687  0.1388  1.6723
48029SOL    HW248899   3.611  10.208  11.402  0.7945 -0.6640 -1.2924
48030SOL     OW48900   5.067   7.797   5.992 -0.2590  0.7447 -0.7843
48030SOL    HW148901   5.116   7.878   6.008 -0.9388  1.3517 -1.6801
48030SOL    HW248902   5.090   7.740   6.066 -0.3249  2.0097  0.2414
48031SOL     OW48903   6.566   5.462  10.878  0.3054 -0.4911 -0.6820
48031SOL    HW148904   6.531   5.378  10.849  1.7915  0.1039 -4.9748
48031SOL    HW248905   6.646   5.439  10.926 -0.7350 -1.5242  0.6315
48032SOL     OW48906   7.612   7.429   7.161 -0.2202  0.4119 -0.0737
48032SOL    HW148907   7.522   7.440   7.129  0.1765  0.9607 -1.0376
48032SOL    HW248908   7.624   7.501   7.223 -0.4223  0.3714  0.0149
48033SOL     OW48909   6.206   4.299   8.130 -0.5813 -0.4244  0.8541
48033SOL    HW148910   6.246   4.219   8.096 -0.4512  0.3725 -0.9596
48033SOL    HW248911   6.166   4.272   8.213 -0.4685 -2.3400  0.3325
48034SOL     OW48912   8.626   8.545   4.796  0.7739 -0.8001 -0.1025
48034SOL    HW148913   8.592   8.540   4.885 -0.8835  1.5696 -0.5103
48034SOL    HW248914   8.635   8.453   4.768 -1.4774 -1.5830  1.4780
48035SOL     OW48915   9.376   2.772   2.340 -0.1151 -0.1640  0.4219
48035SOL    HW148916   9.297   2.807   2.381 -1.5942 -1.9668 -0.7384
48035SOL    HW248917   9.407   2.705   2.400 -0.3851 -0.5513  0.1279
48036SOL     OW48918   2.104   7.351   3.429 -0.2720 -1.1125 -0.4366
48036SOL    HW148919   2.124   7.403   3.350 -0.1249  0.1101  0.3759
48036SOL    HW248920   2.057   7.275   3.396 -1.4757  0.0626 -1.5946
48037SOL     OW48921   0.010   9.608   6.673 -0.1344  0.1179  0.2852
48037SOL    HW148922  -0.072   9.641   6.636 -0.4581 -0.6753  0.2921
48037SOL    HW248923   0.039   9.677   6.733 -0.3689  0.7611 -0.3266
48038SOL     OW48924   8.953   8.748  12.286  0.6391  0.3130  0.5763
48038SOL    HW148925   8.927   8.660  12.311  0.3531  0.5942  1.3095
48038SOL    HW248926   8.960   8.795  12.369 -0.6072  1.3656  0.1119
48039SOL     OW48927   9.082  10.489   6.687  0.1385 -0.1297  0.0758
48039SOL    HW148928   9.059  10.571   6.642  0.3963  0.5553  1.1650
48039SOL    HW248929   9.169  10.505   6.722 -0.9511  0.2945  2.8782
48040SOL     OW48930   8.938   8.524  10.431  0.0835 -0.1315 -0.5464
48040SOL    HW148931   8.852   8.484  10.441 -0.1904  0.4746 -0.4687
48040SOL    HW248932   8.978   8.518  10.517 -0.3898  0.7475 -0.2581
48041SOL     OW48933   8.844   9.041   8.192 -0.3408  0.1059  0.3196
48041SOL    HW148934   8.758   9.020   8.227 -0.4378 -1.9202 -0.9729
48041SOL    HW248935   8.861   8.973   8.127  2.4989  0.0557  0.9799
48042SOL     OW48936   9.636   5.431   7.259 -0.5389  0.2294  0.3027
48042SOL    HW148937   9.597   5.348   7.287 -0.3122  0.2337  0.6333
48042SOL    HW248938   9.697   5.406   7.189  0.4626 -0.0472  1.2387
48043SOL     OW48939   3.719   7.048   3.450 -0.0263 -0.4592 -0.2114
48043SOL    HW148940   3.647   7.110   3.457 -0.9667 -1.6859  1.6973
48043SOL    HW248941   3.678   6.967   3.420  1.1863 -0.2608 -2.7135
48044SOL     OW48942   9.726   6.781   2.624 -0.1011  0.2927 -0.5622
48044SOL    HW148943   9.763   6.751   2.707  2.4882  2.3989 -0.8182
48044SOL    HW248944   9.656   6.841   2.648  0.7163  0.9890  0.1201
48045SOL     OW48945   9.943   2.310   7.144 -0.1492 -0.0174 -0.3120
48045SOL    HW148946   9.854   2.280   7.159  0.0970 -0.5183  0.2389
48045SOL    HW248947   9.990   2.285   7.224  1.0309 -1.8925 -1.5064
48046SOL     OW48948   6.821   9.860   2.360  0.7710  0.1384 -0.2867
48046SOL    HW148949   6.802   9.857   2.454 -0.1227 -0.3430 -0.4725
48046SOL    HW248950   6.740   9.832   2.318  1.4489 -0.5767 -1.1688
48047SOL     OW48951  10.084   2.025  10.829 -0.1386  0.4860 -0.1096
48047SOL    HW148952  10.114   2.110  10.796 -0.6463  0.6876 -0.0646
48047SOL    HW248953  10.086   2.034  10.924 -1.3430  0.8705 -0.1070
48048SOL     OW48954   6.924   8.436  11.584 -0.0237 -0.5149  0.1741
48048SOL    HW148955   6.830   8.421  11.599 -0.0153 -1.5983 -0.7037
48048SOL    HW248956   6.960   8.348  11.569  0.8231  0.0204 -1.1373
48049SOL     OW48957   8.995   6.409   4.371  0.3039  0.5715 -0.1348
48049SOL    HW148958   9.061   6.460   4.418 -0.6663  1.6589  0.0830
48049SOL    HW248959   8.948   6.361   4.440 -1.3746  2.4631  0.1200
48050SOL     OW48960   5.766   9.423   8.807  0.1000  0.3146  0.5517
48050SOL    HW148961   5.688   9.394   8.760  0.5518  0.1253 -0.0953
48050SOL    HW248962   5.760   9.379   8.892 -0.0186 -0.4488  0.1563
48051SOL     OW48963   1.848   7.916   1.310  0.3250 -0.5381  0.2769
48051SOL    HW148964   1.830   7.984   1.244 -0.3763 -1.5450 -0.5957
48051SOL    HW248965   1.785   7.934   1.380 -1.1275 -1.3432 -0.7650
48052SOL     OW48966   9.596   6.301   8.878 -0.0194  0.5385 -0.9228
48052SOL    HW148967   9.537   6.262   8.943  1.1839 -0.2771 -0.2758
48052SOL    HW248968   9.595   6.395   8.898  1.1985  0.1783  1.0505
48053SOL     OW48969  12.574   2.553   1.085 -0.8373  0.1026 -0.3629
48053SOL    HW148970  12.490   2.533   1.127 -1.2188  0.2186 -1.0502
48053SOL    HW248971  12.575   2.648   1.078  0.2866  0.2816  1.4966
48054SOL     OW48972   9.699   5.564   3.561  0.2990 -0.8520 -0.0002
48054SOL    HW148973   9.703   5.547   3.467  0.4273  1.9318 -0.5961
48054SOL    HW248974   9.778   5.614   3.580 -1.6747  2.3604  0.5957
48055SOL     OW48975   7.848  11.467  12.571  0.2660 -0.0298  0.2388
48055SOL    HW148976   7.775  11.529  12.567  1.6193  1.5548 -2.1835
48055SOL    HW248977   7.857  11.434  12.482  1.5102 -1.4201  0.8400
48056SOL     OW48978   5.423   8.529  10.271 -0.5582 -0.2373  0.4145
48056SOL    HW148979   5.476   8.528  10.351 -2.5999 -0.2184  1.8623
48056SOL    HW248980   5.479   8.489  10.204  1.5785  0.6502  1.5854
48057SOL     OW48981   5.202   6.740   1.415  0.5901  0.1894  0.2807
48057SOL    HW148982   5.198   6.645   1.430 -2.0184 -0.0676 -1.3787
48057SOL    HW248983   5.116   6.772   1.441  1.2982  2.0680  0.4372
48058SOL     OW48984  11.675   3.958   0.003 -0.3741 -0.4442 -0.1921
48058SOL    HW148985  11.670   3.986   0.094  0.0288 -1.3153  0.1155
48058SOL    HW248986  11.611   3.887  -0.004 -0.9029  0.0760 -0.7747
48059SOL     OW48987   3.127   0.938   1.893  0.2154 -0.4464  0.6472
48059SOL    HW148988   3.125   0.844   1.915  0.0473 -0.6195 -0.0667
48059SOL    HW248989   3.044   0.972   1.927 -0.1896 -0.7770  0.0133
48060SOL     OW48990   1.029   0.698   9.863 -0.0543 -0.2429  0.2630
48060SOL    HW148991   0.934   0.688   9.856 -0.1152  0.6065 -0.2188
48060SOL    HW248992   1.063   0.609   9.853 -0.7911 -0.5406  0.3234
48061SOL     OW48993   0.188   6.632   2.842 -0.1316 -0.3255 -0.1958
48061SOL    HW148994   0.109   6.579   2.856 -0.3121 -0.4621 -1.5787
48061SOL    HW248995   0.191   6.646   2.748  2.0980 -1.2510 -0.3336
48062SOL     OW48996  10.345   3.045   7.334 -0.5629 -0.4643  0.5420
48062SOL    HW148997  10.325   3.079   7.247  1.6171  0.7909  0.4481
48062SOL    HW248998  10.344   3.121   7.391  0.1428 -0.9186  1.1864
48063SOL     OW48999   5.759   6.658   8.162  0.0343 -0.0698 -0.1432
48063SOL    HW149000   5.746   6.749   8.187 -1.0513 -0.4304  0.7058
48063SOL    HW249001   5.672   6.628   8.136  0.7233 -0.3458 -2.2756
48064SOL     OW49002   4.738   7.896   6.328 -0.2596 -0.4933 -0.4130
48064SOL    HW149003   4.831   7.912   6.312 -0.3183  0.5307  0.1740
48064SOL    HW249004   4.726   7.802   6.310  0.9156 -0.6754 -0.3187
48065SOL     OW49005   2.332  11.112   0.288 -0.7403 -0.5566  0.1492
48065SOL    HW149006   2.417  11.145   0.315 -1.5028  0.5806  1.2662
48065SOL    HW249007   2.320  11.146   0.200 -0.1073 -0.6187  0.0345
48066SOL     OW49008   1.410  11.673   7.606 -0.0332 -0.2261  0.4523
48066SOL    HW149009   1.369  11.704   7.687 -1.1028 -0.8220  0.1601
48066SOL    HW249010   1.395  11.743   7.543  1.2930  0.4896  0.8839
48067SOL     OW49011  11.355   1.554   5.477 -0.8665 -1.1543 -0.0398
48067SOL    HW149012  11.434   1.605   5.494 -0.3529 -2.2666  1.0709
48067SOL    HW249013  11.285   1.620   5.473 -0.0276 -0.2383 -0.0815
48068SOL     OW49014   2.473   7.612   1.275 -0.1261 -0.5432  0.0992
48068SOL    HW149015   2.477   7.669   1.351 -0.3830  0.2433 -0.4570
48068SOL    HW249016   2.400   7.553   1.293 -1.2378  0.6877 -0.2172
48069SOL     OW49017   2.082   0.817   1.340  0.0868 -0.4803  0.4064
48069SOL    HW149018   2.050   0.795   1.427  0.0075 -1.4786  0.1268
48069SOL    HW249019   2.166   0.860   1.356 -0.4780  0.4159  1.0285
48070SOL     OW49020   8.472   5.943   8.022 -0.5796  0.3331 -0.0350
48070SOL    HW149021   8.444   5.980   7.938  1.5667  1.8365 -0.1627
48070SOL    HW249022   8.421   5.991   8.088 -0.6891  0.6987 -0.3858
48071SOL     OW49023   3.551   7.502  11.681  0.1806  0.2003 -0.1700
48071SOL    HW149024   3.640   7.509  11.715  0.4464  0.9862 -0.9932
48071SOL    HW249025   3.549   7.561  11.605 -0.8076 -0.4152 -0.6468
48072SOL     OW49026   6.109   7.822   5.278 -0.5423  0.0322 -0.6113
48072SOL    HW149027   6.114   7.824   5.182 -0.1171  0.6898 -0.5818
48072SOL    HW249028   6.093   7.912   5.303  0.8360  0.1368  0.0048
48073SOL     OW49029   3.895   0.647  11.359  0.3813 -0.2104  0.3751
48073SOL    HW149030   3.865   0.571  11.408 -0.6707  0.5128  0.9140
48073SOL    HW249031   3.845   0.720  11.396  1.4751  0.7731 -0.0089
48074SOL     OW49032   9.070   8.750   3.042  0.2379  0.8346 -0.4266
48074SOL    HW149033   8.995   8.738   2.984 -0.9503  1.7792  0.8546
48074SOL    HW249034   9.034   8.792   3.120  2.0838  1.1888  0.2897
48075SOL     OW49035   9.011   1.774   5.475  0.4300  0.5468 -0.7166
48075SOL    HW149036   9.085   1.813   5.429  2.4414  0.9016  2.5213
48075SOL    HW249037   8.993   1.693   5.427  2.1188  1.0373 -2.2843
48076SOL     OW49038   1.964   3.443   6.935  0.6794  0.3882 -0.4101
48076SOL    HW149039   1.981   3.398   6.851 -2.3166 -1.0761 -0.3775
48076SOL    HW249040   2.042   3.425   6.987  0.9034 -2.3243 -1.4786
48077SOL     OW49041   4.427   5.506   2.265  0.5000  0.4991 -0.6258
48077SOL    HW149042   4.399   5.584   2.217 -0.4255 -0.3984 -1.5954
48077SOL    HW249043   4.368   5.502   2.340  0.5459  0.7200 -0.5767
48078SOL     OW49044   9.050   1.112   9.139  0.0938 -0.2375 -0.0468
48078SOL    HW149045   9.015   1.201   9.125  1.5698  0.4189  0.2800
48078SOL    HW249046   9.086   1.087   9.054  1.6342  0.3945  0.3830
48079SOL     OW49047   5.233   5.757   6.457 -0.4280 -0.6861 -0.4091
48079SOL    HW149048   5.212   5.839   6.502  0.8219  0.1247 -1.2220
48079SOL    HW249049   5.268   5.700   6.525  0.8285  0.2863 -0.1955
48080SOL     OW49050   9.074  11.194   4.280  0.3190 -0.6082 -0.1972
48080SOL    HW149051   9.021  11.126   4.240 -0.5119 -0.6891  0.9959
48080SOL    HW249052   9.126  11.229   4.208  0.1806 -1.9493 -0.9851
48081SOL     OW49053   4.406   4.886  11.006 -0.3826 -0.2872 -0.3007
48081SOL    HW149054   4.311   4.892  11.010 -0.3521 -0.4267  1.5227
48081SOL    HW249055   4.427   4.804  11.051  0.6397  0.3113  0.3700
48082SOL     OW49056   3.469   2.346   2.328  0.6908 -0.1196  0.0582
48082SOL    HW149057   3.502   2.434   2.314 -1.8463  1.3454  2.4843
48082SOL    HW249058   3.532   2.306   2.388  0.5586  0.9519  0.9375
48083SOL     OW49059   1.631   2.320  11.539 -0.2586 -0.0055  0.1567
48083SOL    HW149060   1.637   2.280  11.453  0.9170  0.7051 -0.1151
48083SOL    HW249061   1.549   2.369  11.538  1.6479  3.5596 -2.1987
48084SOL     OW49062   7.659   2.140   0.289  0.2119 -0.4565 -0.3680
48084SOL    HW149063   7.707   2.219   0.265 -2.0056  0.8829 -0.6516
48084SOL    HW249064   7.568   2.167   0.291 -0.5424 -2.8236  0.4126
48085SOL     OW49065   2.146   2.950   2.025  0.0246 -0.1251 -0.0583
48085SOL    HW149066   2.074   2.898   1.987 -0.2223  0.3736 -0.2776
48085SOL    HW249067   2.109   3.037   2.037  1.2033  0.7632 -2.2147
48086SOL     OW49068   9.805   1.947   4.672 -0.3709 -0.1433 -0.2783
48086SOL    HW149069   9.787   2.030   4.628  1.7271  0.2526 -0.4962
48086SOL    HW249070   9.794   1.965   4.765 -0.2012  0.3180 -0.3460
48087SOL     OW49071  11.087   4.333   3.974  0.2799  0.7838  0.7981
48087SOL    HW149072  11.018   4.375   4.025 -1.4559  0.7089 -1.3599
48087SOL    HW249073  11.113   4.398   3.909  1.6346  0.4763  0.9887
48088SOL     OW49074   1.172   4.573   6.113  0.1182 -0.3352 -0.0842
48088SOL    HW149075   1.160   4.661   6.150 -0.9431 -0.9973  1.2868
48088SOL    HW249076   1.173   4.587   6.019 -3.5409  0.8829 -0.1327
48089SOL     OW49077   7.753   6.902   7.925 -0.4097 -0.7053  0.4811
48089SOL    HW149078   7.771   6.843   7.852 -0.0143  0.1136 -0.0950
48089SOL    HW249079   7.805   6.867   7.997 -0.6279 -1.3926  0.3171
48090SOL     OW49080   0.966   6.179   0.474  0.5242  0.3732  0.1550
48090SOL    HW149081   0.973   6.121   0.399 -0.0283 -1.2788  1.3219
48090SOL    HW249082   0.887   6.231   0.457 -0.1042 -0.6059 -0.0218
48091SOL     OW49083   7.491   2.889   3.518  0.0342 -0.2774  0.1779
48091SOL    HW149084   7.581   2.856   3.517  0.5528  1.0682  0.0282
48091SOL    HW249085   7.463   2.879   3.609  1.0488  1.0403  0.6830
48092SOL     OW49086   1.356   8.126   1.437  0.0254 -0.0661 -0.0598
48092SOL    HW149087   1.297   8.148   1.509  1.9511  0.4769  1.4259
48092SOL    HW249088   1.383   8.211   1.401 -0.9727 -0.3246 -1.5546
48093SOL     OW49089   0.480   3.440  11.999  0.1208 -0.5975  0.3217
48093SOL    HW149090   0.443   3.527  11.986 -1.6859 -1.0668  1.8130
48093SOL    HW249091   0.477   3.399  11.912  1.6848  1.0240 -0.5471
48094SOL     OW49092  10.533   3.531  12.513  0.1356 -0.1079 -0.4517
48094SOL    HW149093  10.529   3.618  12.554 -0.3230  0.0869 -0.8972
48094SOL    HW249094  10.608   3.489  12.555 -0.1584  0.1820  0.3929
48095SOL     OW49095  10.831   2.899   0.459 -0.2586  0.4392 -0.0915
48095SOL    HW149096  10.772   2.852   0.401  1.0373  0.7001 -1.6841
48095SOL    HW249097  10.822   2.991   0.434 -2.4484  1.1295  2.7012
48096SOL     OW49098   8.264   6.770   8.019  0.5102 -0.1038 -0.3610
48096SOL    HW149099   8.204   6.736   7.953 -0.3943  1.0557 -0.1686
48096SOL    HW249100   8.212   6.833   8.070  0.8683 -1.6931  2.1528
48097SOL     OW49101   4.814   6.738   8.853 -0.0581 -0.4692  0.8038
48097SOL    HW149102   4.766   6.688   8.919  0.5640 -1.1293  0.7653
48097SOL    HW249103   4.906   6.730   8.878  0.1729 -0.5933 -0.0454
48098SOL     OW49104   5.497   4.564   6.359 -0.2528 -0.1545 -0.2381
48098SOL    HW149105   5.516   4.648   6.318  0.1838 -0.7319 -1.2573
48098SOL    HW249106   5.555   4.502   6.314 -1.2413 -1.1621 -0.1635
48099SOL     OW49107   9.631   0.348  10.538  0.2804  0.1262  0.5194
48099SOL    HW149108   9.639   0.263  10.581  1.4236  0.6806  1.4238
48099SOL    HW249109   9.584   0.328  10.457  2.1051 -1.6926 -0.1897
48100SOL     OW49110   2.657   7.673   3.086  0.7022 -0.3582  0.4667
48100SOL    HW149111   2.716   7.599   3.101  0.3597 -0.5426  0.9344
48100SOL    HW249112   2.648   7.678   2.990  0.9066 -0.7789  0.4241
48101SOL     OW49113   4.528   9.478   4.135 -0.2819  0.1438  0.1389
48101SOL    HW149114   4.578   9.405   4.098 -0.1308  0.4685 -0.3179
48101SOL    HW249115   4.436   9.453   4.125 -0.2479  0.2828 -0.5966
48102SOL     OW49116   2.905   1.709  10.443 -0.1932  0.0796 -0.2704
48102SOL    HW149117   2.888   1.740  10.354 -1.3098 -2.8976 -1.2151
48102SOL    HW249118   2.994   1.673  10.439  0.5544  1.7401  0.4396
48103SOL     OW49119  11.344   9.307  12.371  0.2598 -0.1044 -0.6081
48103SOL    HW149120  11.376   9.237  12.428  0.3975 -0.0454 -0.6135
48103SOL    HW249121  11.417   9.326  12.312 -0.2833 -0.9960 -1.6011
48104SOL     OW49122   9.073   3.664  12.589 -0.1141  0.2354  0.1162
48104SOL    HW149123   9.139   3.730  12.610 -0.4279 -0.3706  3.6219
48104SOL    HW249124   8.996   3.688  12.641 -0.5410 -2.3120  0.8169
48105SOL     OW49125  10.937   0.404  10.674  0.6692 -0.2930  0.1405
48105SOL    HW149126  10.986   0.484  10.655  0.1365  0.7404  2.6978
48105SOL    HW249127  10.998   0.333  10.653  1.9576  0.8447 -0.1300
48106SOL     OW49128  10.754   3.112  11.209  0.1887  0.3453 -0.1548
48106SOL    HW149129  10.834   3.060  11.208  0.0206  0.0270  1.2308
48106SOL    HW249130  10.777   3.192  11.162  0.5203 -0.8189 -2.1245
48107SOL     OW49131   9.601   0.324   3.265  0.2864 -0.0693  0.1429
48107SOL    HW149132   9.616   0.280   3.349 -1.7261  1.3820  1.3606
48107SOL    HW249133   9.508   0.310   3.247  0.0941  1.7993 -0.5176
48108SOL     OW49134  11.733   1.408   6.301  0.3145 -0.6620  0.3549
48108SOL    HW149135  11.720   1.496   6.335  2.1030 -0.5935  0.9807
48108SOL    HW249136  11.693   1.410   6.214  0.2971  0.7586  0.3709
48109SOL     OW49137   9.526   2.114  11.738  0.3081  0.0745 -0.8784
48109SOL    HW149138   9.595   2.077  11.792  1.2970  1.7490 -0.9238
48109SOL    HW249139   9.572   2.146  11.660 -0.4955  1.1802 -0.9247
48110SOL     OW49140  11.884  10.831  10.998  0.4621 -0.3016 -0.1290
48110SOL    HW149141  11.888  10.922  11.026  1.3539  0.2065 -1.7730
48110SOL    HW249142  11.973  10.809  10.972 -0.1361 -0.9093 -1.8457
48111SOL     OW49143  12.372   1.448   8.150  0.5630 -0.6535  0.1784
48111SOL    HW149144  12.374   1.475   8.058  0.2887 -1.2235 -0.0010
48111SOL    HW249145  12.464   1.440   8.175  0.6688 -2.1289 -0.5468
48112SOL     OW49146   2.784   9.976   1.855  0.2624 -0.2805 -0.2072
48112SOL    HW149147   2.832  10.057   1.844  0.1231  0.0034  1.0763
48112SOL    HW249148   2.848   9.915   1.891  0.4540 -0.8630 -1.4732
48113SOL     OW49149   7.749   0.655   8.874  0.1461  0.2670  0.3534
48113SOL    HW149150   7.662   0.696   8.871  0.1492  0.2699  0.3058
48113SOL    HW249151   7.773   0.658   8.967  0.6174  1.3570  0.2055
48114SOL     OW49152   8.597   0.021   8.483 -0.1167 -0.2939  0.0968
48114SOL    HW149153   8.563   0.098   8.528  2.6267  2.0515 -1.4881
48114SOL    HW249154   8.551   0.018   8.399 -0.4602 -0.6187  0.2921
48115SOL     OW49155   3.681   5.628   1.244 -0.2882 -0.0721  0.2931
48115SOL    HW149156   3.751   5.637   1.179 -0.2530  2.5835  0.6035
48115SOL    HW249157   3.605   5.670   1.204 -0.4409  1.0480  1.6655
48116SOL     OW49158  10.443   0.766   0.773  0.5158 -0.5677 -0.5273
48116SOL    HW149159  10.473   0.771   0.864 -1.1146 -1.9657  0.1495
48116SOL    HW249160  10.426   0.673   0.759  0.5106 -0.3411 -2.1996
48117SOL     OW49161   6.373   9.505   1.190 -0.1227  0.5705 -0.2154
48117SOL    HW149162   6.341   9.415   1.183  0.9957  0.1339  0.0954
48117SOL    HW249163   6.309   9.557   1.141  0.2132 -0.6259 -2.0031
48118SOL     OW49164   6.986  12.151   4.308  0.2650 -0.1334 -0.1531
48118SOL    HW149165   7.019  12.226   4.357  1.1920 -1.0470  0.6768
48118SOL    HW249166   7.056  12.086   4.314 -1.0342 -1.5506  0.2825
48119SOL     OW49167  11.064   8.144  11.383 -0.2287 -0.4885 -0.0632
48119SOL    HW149168  10.982   8.175  11.344  0.2703  0.4568 -0.3773
48119SOL    HW249169  11.107   8.223  11.415  2.0978 -0.4891 -2.8061
48120SOL     OW49170   8.484   5.106   7.633  0.2718  0.1047 -0.1186
48120SOL    HW149171   8.502   5.060   7.551  0.5151  1.5358 -0.9093
48120SOL    HW249172   8.392   5.085   7.652  0.2721 -0.4127 -0.6540
48121SOL     OW49173  12.243   6.222   7.264  0.0936  0.0322 -0.0374
48121SOL    HW149174  12.220   6.149   7.322  0.6662 -0.2828 -0.1988
48121SOL    HW249175  12.211   6.196   7.178 -0.2213  0.2304  0.0210
48122SOL     OW49176   4.568   7.946   9.881  0.2513  0.2199  0.3052
48122SOL    HW149177   4.521   7.864   9.896 -0.8746  0.6511 -0.6789
48122SOL    HW249178   4.658   7.928   9.909 -0.1262 -1.1468  0.6954
48123SOL     OW49179   6.775   4.678   6.939  0.0322 -0.1392  0.2658
48123SOL    HW149180   6.810   4.695   7.026 -0.3045  3.7985 -0.1971
48123SOL    HW249181   6.850   4.687   6.880 -0.0074 -1.4191 -0.0141
48124SOL     OW49182   2.202  11.657   6.063  0.6959  0.2101  0.2156
48124SOL    HW149183   2.293  11.628   6.056  0.5818 -0.4009  1.1454
48124SOL    HW249184   2.201  11.743   6.021  1.4436 -0.2987 -0.8895
48125SOL     OW49185   3.710   5.809   6.769 -0.0027  0.0790  0.2335
48125SOL    HW149186   3.718   5.905   6.773 -0.0460  0.1196 -0.5154
48125SOL    HW249187   3.687   5.783   6.858  2.2965  0.5395  1.0265
48126SOL     OW49188   4.184   3.461   8.653 -0.1508  0.4789  0.3250
48126SOL    HW149189   4.142   3.381   8.683 -0.0136  0.4377  0.4066
48126SOL    HW249190   4.120   3.500   8.593 -0.3099  0.4230  0.4568
48127SOL     OW49191   6.890   5.631  11.169  0.0967  0.0596 -0.2028
48127SOL    HW149192   6.831   5.557  11.158  0.2260 -0.0826  0.0663
48127SOL    HW249193   6.866   5.669  11.253 -0.2251  0.5564 -0.5051
48128SOL     OW49194   0.418   3.386   0.872  0.0802  0.1828  0.2755
48128SOL    HW149195   0.349   3.419   0.816 -0.0979  0.6913  0.7915
48128SOL    HW249196   0.498   3.425   0.838  0.4119 -1.8422 -1.4930
48129SOL     OW49197   0.222  11.574   3.085  0.5875  0.1844  0.1848
48129SOL    HW149198   0.302  11.522   3.098  1.2266  0.9160 -0.7528
48129SOL    HW249199   0.168  11.553   3.161  1.8668  0.0260  1.0864
48130SOL     OW49200   8.342  10.895   9.673  0.6210  0.4770  0.1874
48130SOL    HW149201   8.298  10.945   9.604 -2.2509 -2.4268 -0.3535
48130SOL    HW249202   8.391  10.827   9.626 -1.1293 -1.3532  0.8414
48131SOL     OW49203   8.092   0.346  11.373  0.0001  0.3692 -0.2090
48131SOL    HW149204   8.150   0.283  11.329 -0.7136  0.5247 -1.4346
48131SOL    HW249205   8.103   0.427  11.323 -0.8228  0.5553 -0.0973
48132SOL     OW49206   7.176   4.194  11.891 -0.2886  0.0785  0.2158
48132SOL    HW149207   7.144   4.260  11.830 -3.2947  0.5870  2.1252
48132SOL    HW249208   7.102   4.135  11.905  1.4849 -2.2190  0.5748
48133SOL     OW49209   8.357  11.800   3.824 -0.8148 -0.7732 -0.4952
48133SOL    HW149210   8.379  11.890   3.798 -0.0887 -1.3458 -1.9328
48133SOL    HW249211   8.433  11.770   3.874 -0.0604 -1.3196 -1.9115
48134SOL     OW49212   8.444   4.696   0.169  0.5031 -0.5360 -0.0098
48134SOL    HW149213   8.355   4.695   0.203  0.4908 -1.9442 -0.0411
48134SOL    HW249214   8.498   4.717   0.246  0.1017  1.4294 -0.2049
48135SOL     OW49215   4.373  11.253   3.229  0.3144 -0.9498 -0.5086
48135SOL    HW149216   4.364  11.271   3.323  0.9584  0.7771 -0.7466
48135SOL    HW249217   4.302  11.303   3.188  0.2126 -1.4698 -0.9782
48136SOL     OW49218   6.395   2.635   9.591 -0.1876 -0.0039  0.4228
48136SOL    HW149219   6.439   2.704   9.641  0.4689 -0.0405 -0.0861
48136SOL    HW249220   6.302   2.659   9.594  0.2048  2.1380 -1.5575
48137SOL     OW49221   9.121   7.910   0.761  0.0035 -0.7086 -0.5430
48137SOL    HW149222   9.112   7.948   0.848 -1.6887 -0.5763 -0.7421
48137SOL    HW249223   9.118   7.984   0.701 -1.9527 -0.9909 -0.8548
48138SOL     OW49224   2.543   6.589   7.123  0.6946  0.1043  0.7547
48138SOL    HW149225   2.469   6.626   7.170  1.2499  0.6914  1.1889
48138SOL    HW249226   2.549   6.640   7.042  0.3753 -0.2153  0.5292
48139SOL     OW49227  11.702   7.394  10.842 -0.2901 -0.1509  0.7822
48139SOL    HW149228  11.739   7.367  10.926 -0.1097  0.4795  0.9100
48139SOL    HW249229  11.771   7.446  10.801 -0.1453 -0.9490 -0.0278
48140SOL     OW49230   8.160   7.765   1.512 -0.2650 -0.2659 -0.3047
48140SOL    HW149231   8.170   7.764   1.607  1.2328 -0.6250 -0.4446
48140SOL    HW249232   8.160   7.858   1.489 -0.2759 -0.1873  0.0090
48141SOL     OW49233   3.544   7.521   5.361 -0.5570  0.2398  0.0501
48141SOL    HW149234   3.636   7.517   5.388 -1.0011 -0.5342  1.6024
48141SOL    HW249235   3.532   7.443   5.307 -0.5821 -0.3657  0.8997
48142SOL     OW49236   0.099   2.599   9.018 -0.3381 -0.0036  0.1960
48142SOL    HW149237   0.130   2.657   8.948 -0.2107  3.3741  2.7802
48142SOL    HW249238   0.014   2.635   9.043 -0.2881 -0.9483  1.8728
48143SOL     OW49239   2.525   5.862   1.359  0.8718  0.5206 -0.3341
48143SOL    HW149240   2.476   5.936   1.323 -0.8329 -1.2584 -1.9664
48143SOL    HW249241   2.520   5.873   1.454  0.4199  2.3190 -0.5414
48144SOL     OW49242   4.866   3.399   8.870  0.4976 -0.3371 -0.0084
48144SOL    HW149243   4.826   3.360   8.948  0.9799  0.3509  0.6059
48144SOL    HW249244   4.795   3.407   8.807  0.1071 -0.9285  0.3515
48145SOL     OW49245   8.096   0.611   6.346 -0.4955  0.1747 -0.0002
48145SOL    HW149246   8.181   0.578   6.316 -0.4274 -0.8695  1.2699
48145SOL    HW249247   8.087   0.696   6.302  0.0349 -0.8057 -2.1492
48146SOL     OW49248   0.209   1.408   1.927  0.0249  0.7317 -0.7253
48146SOL    HW149249   0.191   1.316   1.948  1.5752  0.6680  0.5331
48146SOL    HW249250   0.123   1.446   1.910 -0.7756 -0.6314  0.1128
48147SOL     OW49251   7.076   4.712  10.013 -0.2869 -0.1824 -0.6682
48147SOL    HW149252   7.095   4.664   9.933 -1.4687  0.9067 -1.6570
48147SOL    HW249253   7.031   4.649  10.069 -1.9317 -0.2556 -1.9900
48148SOL     OW49254  11.715   3.182   8.882 -0.0748  0.4961  0.1365
48148SOL    HW149255  11.682   3.243   8.948 -1.0804  0.4478 -0.2947
48148SOL    HW249256  11.670   3.099   8.902  1.5435 -0.2438  0.9417
48149SOL     OW49257   1.396   7.520   3.077  0.3930 -0.0676  0.2512
48149SOL    HW149258   1.326   7.551   3.020  0.3027 -0.3931  0.1812
48149SOL    HW249259   1.431   7.442   3.033  0.5974 -0.0836  0.4356
48150SOL     OW49260   1.915   9.914   1.361  0.3931 -0.2758  0.3234
48150SOL    HW149261   1.829   9.947   1.337  0.7220  0.4992  0.1823
48150SOL    HW249262   1.971   9.935   1.286  0.3879 -2.1606 -0.2647
48151SOL     OW49263   7.631   6.241   9.198 -0.4367  0.6260 -0.1420
48151SOL    HW149264   7.602   6.305   9.133  0.1361 -0.5082 -1.5851
48151SOL    HW249265   7.726   6.249   9.199 -0.4842  1.1302  1.1179
48152SOL     OW49266   1.072   3.313   6.482 -0.0533 -0.5014  0.3465
48152SOL    HW149267   0.990   3.357   6.503 -0.0301  0.5092 -1.4942
48152SOL    HW249268   1.064   3.227   6.522 -1.6226 -0.0917  0.9760
48153SOL     OW49269   2.994   1.172   5.781 -0.1202 -0.1646 -0.1974
48153SOL    HW149270   3.005   1.077   5.778 -0.1248 -0.2222  1.0805
48153SOL    HW249271   3.080   1.206   5.804 -0.3761  0.0509  0.4720
48154SOL     OW49272   0.617  11.780   1.499  0.2717 -0.7689  0.3352
48154SOL    HW149273   0.611  11.863   1.452  2.0640 -0.9836 -0.3600
48154SOL    HW249274   0.541  11.730   1.471 -0.8614  0.6149  0.7879
48155SOL     OW49275  11.142   4.580   1.581 -0.1811 -0.0346 -0.2892
48155SOL    HW149276  11.138   4.497   1.628 -0.7074 -0.4568 -1.0518
48155SOL    HW249277  11.189   4.639   1.640  2.2515 -1.4784 -0.6499
48156SOL     OW49278   0.545   4.074  12.247  0.1516  0.0788  0.4865
48156SOL    HW149279   0.518   4.049  12.335 -1.2532  0.4122  0.1837
48156SOL    HW249280   0.631   4.033  12.234  0.8421  0.8459  2.3666
48157SOL     OW49281   6.939   5.799   4.706 -0.0270 -0.3579  0.0816
48157SOL    HW149282   7.024   5.780   4.745 -0.6586 -2.0162  0.7432
48157SOL    HW249283   6.894   5.852   4.771  0.6058  0.8336 -0.4238
48158SOL     OW49284   0.913   5.949   1.133  0.1846  0.0793 -0.2178
48158SOL    HW149285   0.924   6.041   1.110  1.7889 -0.2566 -0.9938
48158SOL    HW249286   0.985   5.931   1.194  1.2399 -1.1348 -1.7211
48159SOL     OW49287   0.851   8.228   8.876 -0.4799 -0.4627 -0.3446
48159SOL    HW149288   0.830   8.136   8.893 -1.7217  0.1237  1.4732
48159SOL    HW249289   0.858   8.268   8.962 -1.7108  1.5390 -1.1127
48160SOL     OW49290   6.213   5.966   3.612  0.0190  0.0807  0.5381
48160SOL    HW149291   6.120   5.979   3.630 -0.0161 -1.2026  1.4480
48160SOL    HW249292   6.239   6.043   3.561 -1.3191  0.9003  1.0468
48161SOL     OW49293  12.508  10.674   2.341 -0.4334 -0.2966 -0.0195
48161SOL    HW149294  12.422  10.715   2.340 -0.2011  0.3498  1.9264
48161SOL    HW249295  12.490  10.580   2.334 -0.9958 -0.0652 -3.9813
48162SOL     OW49296   1.002   4.920   6.677  0.0075  0.4716 -0.3195
48162SOL    HW149297   0.944   4.994   6.695 -0.2558  0.2112 -0.1009
48162SOL    HW249298   1.019   4.881   6.762 -2.0419 -1.3604 -0.6764
48163SOL     OW49299  10.949   4.892  12.619 -0.1010  0.8137 -0.1284
48163SOL    HW149300  11.012   4.874  12.689  0.0492  0.5552 -0.3279
48163SOL    HW249301  11.002   4.902  12.541 -0.4167 -2.4389 -0.9265
48164SOL     OW49302  12.258   0.270   9.976  0.2946 -0.0318  0.0095
48164SOL    HW149303  12.265   0.321   9.895  1.4494  1.2545  0.8604
48164SOL    HW249304  12.293   0.184   9.954 -1.0836 -0.2943 -1.3014
48165SOL     OW49305  11.406   7.039   1.436 -0.3072  0.3911  0.3434
48165SOL    HW149306  11.363   6.971   1.385 -0.2767  0.9051 -0.3775
48165SOL    HW249307  11.491   7.001   1.460 -0.4895 -0.0050  0.3725
48166SOL     OW49308   6.367   7.106   2.515  0.5230 -0.2043 -0.1647
48166SOL    HW149309   6.343   7.142   2.601  1.0337  0.7661 -0.4124
48166SOL    HW249310   6.358   7.012   2.526 -1.0459 -0.0151  0.4490
48167SOL     OW49311   4.471   2.756  12.430 -0.4257  0.0018 -0.2896
48167SOL    HW149312   4.534   2.807  12.379 -0.5444  1.6722  1.1385
48167SOL    HW249313   4.408   2.820  12.462 -0.1779 -0.8777  2.1860
48168SOL     OW49314   0.387   2.984   4.966 -0.0418 -0.3980 -0.6161
48168SOL    HW149315   0.340   2.922   4.911  0.2738 -1.3728  0.1852
48168SOL    HW249316   0.457   2.933   5.006 -0.5245  0.1703  1.0336
48169SOL     OW49317  12.259   9.387  11.271 -0.0829 -0.4748 -0.7065
48169SOL    HW149318  12.273   9.396  11.365  0.2585  0.7456 -0.8554
48169SOL    HW249319  12.222   9.471  11.244  0.9649 -0.3454 -1.8481
48170SOL     OW49320   4.738   9.623   8.173  0.4963 -0.6157  0.0573
48170SOL    HW149321   4.705   9.654   8.257 -1.0986  1.4907 -1.2290
48170SOL    HW249322   4.664   9.577   8.133  0.1314  1.1471 -1.4406
48171SOL     OW49323   9.277   4.766   0.324 -0.5191 -0.4519 -1.1023
48171SOL    HW149324   9.292   4.859   0.340 -1.3869 -0.7308  1.9952
48171SOL    HW249325   9.361   4.725   0.343 -0.1791 -0.3397 -2.3144
48172SOL     OW49326  10.106   5.732   8.655  0.1640 -0.5445  1.0210
48172SOL    HW149327  10.039   5.719   8.588 -0.6684 -0.2336  1.7731
48172SOL    HW249328  10.163   5.656   8.646  0.6218 -0.0510 -0.6446
48173SOL     OW49329   7.606   2.731   2.868  0.0610 -0.4056  0.0336
48173SOL    HW149330   7.612   2.826   2.877 -0.9609 -0.4098  0.8930
48173SOL    HW249331   7.519   2.709   2.900  0.1213 -1.5907 -0.5745
48174SOL     OW49332   9.193  12.143  11.384  0.1298 -0.1599 -0.0470
48174SOL    HW149333   9.162  12.193  11.459  0.6328  1.8571 -1.0982
48174SOL    HW249334   9.289  12.147  11.389  0.2064  1.5434 -1.6770
48175SOL     OW49335   0.919  10.600  11.363  0.0690  0.3989  0.5144
48175SOL    HW149336   0.955  10.566  11.445  1.0157  0.2043  0.0344
48175SOL    HW249337   0.986  10.580  11.298 -0.4853  0.9348 -0.2315
48176SOL     OW49338   3.201   7.030   0.105 -0.2032  0.3002 -0.2489
48176SOL    HW149339   3.119   7.076   0.126  1.1666  2.5076  0.5172
48176SOL    HW249340   3.224   6.984   0.185  0.3097  1.2996  0.1893
48177SOL     OW49341  11.549  11.061  12.048 -1.0832  0.4759  0.0019
48177SOL    HW149342  11.495  11.117  11.993 -1.3918  1.0930  0.9019
48177SOL    HW249343  11.534  10.972  12.015 -1.6873  0.7738 -0.5410
48178SOL     OW49344   8.832   5.193   9.390 -0.4079 -0.1091 -0.0244
48178SOL    HW149345   8.754   5.238   9.424 -0.8225 -1.4724  0.9040
48178SOL    HW249346   8.902   5.218   9.451 -0.5841 -0.5010  0.3469
48179SOL     OW49347   7.115  11.821   9.152  0.1860  0.7560 -0.6513
48179SOL    HW149348   7.025  11.841   9.179  0.2291  0.8955 -0.6093
48179SOL    HW249349   7.121  11.726   9.158 -0.2231  0.6692 -1.4947
48180SOL     OW49350  11.491   5.777   7.461  0.4349  0.4447 -0.3026
48180SOL    HW149351  11.519   5.864   7.434 -0.3755  0.3987 -1.3607
48180SOL    HW249352  11.572   5.731   7.482  1.0869  0.6649 -2.1686
48181SOL     OW49353  10.255   7.583   4.776  0.0384 -0.5861  0.3268
48181SOL    HW149354  10.245   7.500   4.822 -0.4071 -0.6402  0.1371
48181SOL    HW249355  10.221   7.649   4.837 -1.8319 -0.7963 -0.4181
48182SOL     OW49356   2.885   1.900   4.306 -0.0582  0.1544  0.0414
48182SOL    HW149357   2.960   1.856   4.346  0.2940  0.0671 -0.6913
48182SOL    HW249358   2.816   1.834   4.305 -0.2634  0.3341  1.0188
48183SOL     OW49359  10.708   5.519   6.536 -0.0634  0.0092  0.5964
48183SOL    HW149360  10.638   5.563   6.488 -0.4191 -1.5218 -0.3470
48183SOL    HW249361  10.701   5.554   6.625 -1.2780  0.7259  0.2501
48184SOL     OW49362  10.565   6.075   8.958 -0.4154 -1.2070 -0.3040
48184SOL    HW149363  10.513   6.011   9.007 -1.2651  1.2760  2.3276
48184SOL    HW249364  10.506   6.109   8.891 -1.1618 -0.6756  0.6080
48185SOL     OW49365  12.183   0.236   9.273  0.4797 -0.2571 -0.4948
48185SOL    HW149366  12.242   0.174   9.231 -0.2237 -0.3768 -1.3270
48185SOL    HW249367  12.212   0.322   9.241  1.7280 -0.0792  0.9886
48186SOL     OW49368  11.600   7.301   9.269  0.5905  0.2185 -1.0222
48186SOL    HW149369  11.540   7.369   9.299  0.8443  0.6200 -1.4025
48186SOL    HW249370  11.670   7.300   9.334  2.4711  2.8521 -2.7921
48187SOL     OW49371  12.372   8.593   4.755  0.5154 -0.1711 -0.3140
48187SOL    HW149372  12.354   8.561   4.844  0.9300  0.0286 -0.1539
48187SOL    HW249373  12.334   8.681   4.754 -0.4413 -0.5798 -0.6869
48188SOL     OW49374   5.664   6.977   8.561  0.0806 -0.0741 -0.3184
48188SOL    HW149375   5.669   6.881   8.554 -0.2885 -0.0256 -1.4999
48188SOL    HW249376   5.728   6.999   8.629  0.3764 -1.1371 -0.2232
48189SOL     OW49377  12.353   7.589  10.706  0.2762  0.1210  0.1947
48189SOL    HW149378  12.363   7.595  10.611  1.8424 -0.0842  0.3226
48189SOL    HW249379  12.405   7.513  10.732 -1.2057 -0.6415  1.0989
48190SOL     OW49380   3.306   1.935   1.006  0.1103 -0.1349 -0.3866
48190SOL    HW149381   3.242   1.864   1.008  0.6155 -0.6097 -0.7177
48190SOL    HW249382   3.340   1.940   1.095  0.2073 -0.4423 -0.4032
48191SOL     OW49383   4.907  10.684   2.647  0.0006  0.3494 -0.8610
48191SOL    HW149384   4.842  10.635   2.697  0.4105  0.0839 -0.5863
48191SOL    HW249385   4.855  10.748   2.597 -0.4077  0.6638 -0.0533
48192SOL     OW49386   7.345  11.660  10.173  0.5895  0.1833 -0.2777
48192SOL    HW149387   7.314  11.624  10.090 -0.1958 -1.3567  0.6456
48192SOL    HW249388   7.419  11.603  10.198 -0.7650 -1.0099  1.2765
48193SOL     OW49389   0.195   3.652   9.097 -0.4303 -0.4529  0.3628
48193SOL    HW149390   0.101   3.663   9.088 -0.3521 -0.6880 -1.1094
48193SOL    HW249391   0.233   3.732   9.059 -0.0409 -1.2773 -1.1000
48194SOL     OW49392   4.324   6.472  11.973  0.6369 -0.4067 -0.1046
48194SOL    HW149393   4.294   6.436  11.889  1.1763  0.4206 -0.6665
48194SOL    HW249394   4.347   6.563  11.953  1.3697 -0.3806  0.8022
48195SOL     OW49395   0.467   4.677  10.673 -0.0848  0.5041  1.1712
48195SOL    HW149396   0.474   4.676  10.578  0.3950  3.6231  1.0732
48195SOL    HW249397   0.541   4.624  10.703 -0.1733 -0.4058 -0.1670
48196SOL     OW49398   8.907   0.523   5.070  0.5538  0.1730  0.0418
48196SOL    HW149399   8.986   0.524   5.016  0.3072  1.4933 -0.3336
48196SOL    HW249400   8.913   0.442   5.121 -0.5991 -2.7683 -3.9677
48197SOL     OW49401   4.709   4.212   5.410  0.1285  0.5743 -0.2054
48197SOL    HW149402   4.729   4.139   5.351 -0.8895  0.6298 -0.6549
48197SOL    HW249403   4.650   4.175   5.476  2.6322  0.0807  1.8854
48198SOL     OW49404  10.668   4.004   9.543  0.1266 -0.4801 -0.3644
48198SOL    HW149405  10.651   3.910   9.557 -1.3477 -0.6648 -2.7559
48198SOL    HW249406  10.757   4.008   9.510 -0.3736 -1.2871 -1.8964
48199SOL     OW49407   8.447   8.880   2.412  0.4612 -0.1259 -0.3836
48199SOL    HW149408   8.455   8.975   2.402 -0.7878  0.0371  0.0778
48199SOL    HW249409   8.494   8.844   2.337  0.7026  0.8588 -0.7156
48200SOL     OW49410  11.423   5.137  10.878  0.4170 -1.0447 -0.7291
48200SOL    HW149411  11.506   5.160  10.837  1.2762 -2.1832  0.3004
48200SOL    HW249412  11.431   5.044  10.900 -1.0781 -1.1463 -0.4887
48201SOL     OW49413   4.444   9.654   0.985 -0.4020 -0.2165 -0.6320
48201SOL    HW149414   4.456   9.708   1.064  3.1384  2.1189 -2.4882
48201SOL    HW249415   4.403   9.713   0.922 -0.0404 -0.9561 -1.5788
48202SOL     OW49416  12.420   7.020   1.272 -0.1161  0.0765  0.3108
48202SOL    HW149417  12.399   7.024   1.178 -1.7189 -0.3763  0.6160
48202SOL    HW249418  12.447   7.109   1.294 -1.6744  0.6980 -0.1711
48203SOL     OW49419   7.149   9.708   1.958 -0.2388  0.7965  0.7444
48203SOL    HW149420   7.064   9.751   1.956 -2.6364 -3.2135  3.1881
48203SOL    HW249421   7.162   9.683   2.049  1.4124 -2.4934 -0.2131
48204SOL     OW49422   2.031   8.188   5.924  0.2151  0.4522 -0.0565
48204SOL    HW149423   2.073   8.273   5.931  0.1668  0.3910  1.1265
48204SOL    HW249424   2.062   8.139   5.999 -0.6823 -0.1646 -0.0675
48205SOL     OW49425  12.330   6.753   3.822 -0.4152 -0.5172 -0.2592
48205SOL    HW149426  12.360   6.671   3.782 -0.2910 -0.3439 -0.5288
48205SOL    HW249427  12.362   6.821   3.762 -2.2120 -0.3645 -1.0923
48206SOL     OW49428   9.050   2.409   1.141 -0.0229  0.3111 -0.1647
48206SOL    HW149429   9.107   2.373   1.209  2.1268  0.0573 -1.9687
48206SOL    HW249430   9.027   2.333   1.087 -2.2925  0.3821  0.5981
48207SOL     OW49431  12.584   3.271   6.964  0.0333 -0.2226  0.2238
48207SOL    HW149432  12.658   3.213   6.945  1.2736  1.7385 -1.4560
48207SOL    HW249433  12.579   3.329   6.888 -0.6548  2.3069  2.0299
48208SOL     OW49434  12.104   5.332   9.395 -0.4252 -0.5080 -0.0524
48208SOL    HW149435  12.139   5.417   9.420  0.0151 -0.8137  0.3774
48208SOL    HW249436  12.009   5.345   9.393 -0.4931 -0.4961  1.8458
48209SOL     OW49437   4.382   5.462   0.457  0.5160 -0.1376  0.0437
48209SOL    HW149438   4.418   5.549   0.476 -0.9557  0.7858 -1.1433
48209SOL    HW249439   4.319   5.446   0.527  0.3703  0.0158 -0.0516
48210SOL     OW49440   7.351  10.817  10.966  0.1590  0.5942 -0.6434
48210SOL    HW149441   7.407  10.851  11.036 -1.6617  3.0938 -0.2523
48210SOL    HW249442   7.289  10.760  11.011  0.4071  0.3835 -0.5704
48211SOL     OW49443  10.708   3.050   5.860  0.0963  0.3225  0.1818
48211SOL    HW149444  10.796   3.020   5.883 -0.5143 -0.8202  1.1226
48211SOL    HW249445  10.692   3.124   5.919 -0.1270 -0.4099  1.0629
48212SOL     OW49446   9.006  10.358   5.602 -0.2033  0.6349  0.2586
48212SOL    HW149447   9.074  10.424   5.587 -0.7670  1.3524  0.7817
48212SOL    HW249448   8.965  10.385   5.684 -0.7416 -0.1201  0.2425
48213SOL     OW49449   0.517   3.377   5.208 -0.1422  0.0517 -0.0998
48213SOL    HW149450   0.527   3.473   5.209  0.5611 -0.0206 -0.1013
48213SOL    HW249451   0.439   3.361   5.260  1.0760  0.4741  1.9681
48214SOL     OW49452   0.475   8.667   1.855  0.2330  0.1994  0.2984
48214SOL    HW149453   0.541   8.626   1.799 -0.4178  1.1953 -1.2430
48214SOL    HW249454   0.398   8.611   1.847  0.9349 -1.2455  2.4848
48215SOL     OW49455   1.457   7.624   2.312 -0.8372  0.0473 -0.0832
48215SOL    HW149456   1.470   7.635   2.218  0.0272  0.6020  0.1014
48215SOL    HW249457   1.365   7.648   2.326 -1.0249 -0.2183 -0.8059
48216SOL     OW49458  10.095   9.336  12.621 -0.0340 -0.3495  0.2590
48216SOL    HW149459  10.102   9.414  12.566 -0.9848 -0.2234  0.3159
48216SOL    HW249460  10.057   9.367  12.703 -0.0820 -0.8177  0.4179
48217SOL     OW49461  12.592   0.322   1.534  0.2565  0.3302  0.0537
48217SOL    HW149462  12.525   0.306   1.468 -1.0945  0.1498  1.4001
48217SOL    HW249463  12.552   0.387   1.593  1.3426  0.3760  0.7709
48218SOL     OW49464   6.359   9.712   6.013 -0.1424 -0.0382  0.6593
48218SOL    HW149465   6.454   9.719   5.999 -0.1608  0.3348  0.7011
48218SOL    HW249466   6.339   9.783   6.074 -0.4343 -0.1809  0.7275
48219SOL     OW49467   4.096  10.413   6.569 -0.4621 -0.2111  0.5718
48219SOL    HW149468   4.174  10.451   6.529 -0.8882  0.0640 -0.0180
48219SOL    HW249469   4.113  10.416   6.663  0.2524 -0.1971  0.4481
48220SOL     OW49470   0.821   8.675   0.069 -0.3174 -0.5332  0.0114
48220SOL    HW149471   0.867   8.648  -0.010  0.8532  3.3249 -0.8513
48220SOL    HW249472   0.888   8.674   0.138 -0.1367  0.4385 -0.1345
48221SOL     OW49473   8.411   7.671   3.965  0.3123  0.3029  0.4452
48221SOL    HW149474   8.321   7.660   3.994  0.9178 -1.6850  1.7320
48221SOL    HW249475   8.464   7.632   4.034  2.0767 -0.1825 -1.1008
48222SOL     OW49476   3.307   3.072  11.945  0.0478  0.1302  0.3752
48222SOL    HW149477   3.240   3.014  11.907  0.1211  0.1652  0.1907
48222SOL    HW249478   3.378   3.072  11.881  0.5021 -0.4162  0.8639
48223SOL     OW49479   8.646   5.415  12.611 -0.2949  0.4925 -0.3159
48223SOL    HW149480   8.676   5.506  12.607  0.5611  0.2031 -0.8446
48223SOL    HW249481   8.554   5.421  12.636 -0.4622  1.5414 -1.1112
48224SOL     OW49482   4.897  10.379  11.752 -0.0292  0.1730  0.0753
48224SOL    HW149483   4.843  10.384  11.673 -0.2690  1.8530  0.3225
48224SOL    HW249484   4.934  10.291  11.749 -2.0723 -0.7378 -0.5609
48225SOL     OW49485   8.391   2.429   8.551 -0.3983 -0.2927 -0.4765
48225SOL    HW149486   8.463   2.369   8.570 -0.8596 -0.7418 -0.1226
48225SOL    HW249487   8.312   2.380   8.576 -0.7651  0.5397  0.0096
48226SOL     OW49488   5.494   1.937   2.513  0.1445 -0.3345  0.0683
48226SOL    HW149489   5.466   1.912   2.425 -0.3483  1.3696 -0.2817
48226SOL    HW249490   5.583   1.971   2.502  1.2822 -2.8165  0.7211
48227SOL     OW49491  11.608   3.743   7.301  0.2688 -0.2177  0.4720
48227SOL    HW149492  11.572   3.663   7.264 -0.6195 -0.6038  2.0599
48227SOL    HW249493  11.635   3.795   7.225 -0.0171 -1.6018 -0.6171
48228SOL     OW49494   2.173   8.947   7.708 -0.9199  0.4166 -0.4205
48228SOL    HW149495   2.182   8.938   7.803 -0.7891 -1.0761 -0.5546
48228SOL    HW249496   2.178   9.041   7.693  2.3866  0.5575  0.7251
48229SOL     OW49497   2.075   9.598   3.484  0.3094 -0.2320  0.0274
48229SOL    HW149498   1.998   9.656   3.479 -2.1974 -3.2060  0.9517
48229SOL    HW249499   2.056   9.529   3.420  2.4477 -0.8688  0.0219
48230SOL     OW49500   2.116  12.107   3.634  0.5179  0.1702 -0.0564
48230SOL    HW149501   2.117  12.030   3.691  0.9864  1.2176  1.4219
48230SOL    HW249502   2.046  12.162   3.670 -0.0107  0.3367 -1.2748
48231SOL     OW49503   7.903   4.581   3.075  0.3196  0.0968 -0.2424
48231SOL    HW149504   7.808   4.587   3.064 -0.2340  0.5818  3.4534
48231SOL    HW249505   7.916   4.511   3.139  2.5800 -0.5477 -1.2753
48232SOL     OW49506   4.540   5.510  12.391 -0.4150  0.3174 -0.1774
48232SOL    HW149507   4.537   5.518  12.296  0.3976  2.1915 -0.1049
48232SOL    HW249508   4.605   5.575  12.418 -0.8339  0.0282  1.6690
48233SOL     OW49509   6.161   0.251   5.636  0.4908 -0.2680 -0.0757
48233SOL    HW149510   6.197   0.262   5.548  0.3586 -0.6877 -0.1876
48233SOL    HW249511   6.126   0.161   5.636 -0.4371  0.0863  0.0685
48234SOL     OW49512   2.881   0.203  10.838 -0.3687 -0.0268  0.1395
48234SOL    HW149513   2.875   0.268  10.768 -2.7259  0.4968  0.7380
48234SOL    HW249514   2.934   0.133  10.801 -1.2309  0.4079 -2.0604
48235SOL     OW49515   5.333   6.033   4.482  0.2177 -0.6100  0.2346
48235SOL    HW149516   5.250   6.056   4.524  0.1182 -0.2452 -0.1578
48235SOL    HW249517   5.349   6.104   4.421  0.9695 -0.5347  0.5131
48236SOL     OW49518   4.825   5.705   8.122  0.1469 -0.3922 -0.4535
48236SOL    HW149519   4.858   5.785   8.082  0.8649 -0.1484  0.5866
48236SOL    HW249520   4.752   5.678   8.066  0.3719  0.5715 -1.2342
48237SOL     OW49521   8.715   2.858  12.595  0.0656 -0.0400 -0.6968
48237SOL    HW149522   8.712   2.937  12.540  2.3838 -0.9408 -2.2952
48237SOL    HW249523   8.720   2.786  12.532  2.0646 -1.1875  0.6842
48238SOL     OW49524  11.105   7.102  11.302  1.1323 -0.3356  0.0720
48238SOL    HW149525  11.054   7.179  11.278  2.9175  0.7998 -0.2964
48238SOL    HW249526  11.171   7.095  11.233  2.4281 -0.8250  1.3143
48239SOL     OW49527   1.767   9.835   6.387 -0.3848 -0.4321  0.0665
48239SOL    HW149528   1.796   9.746   6.406 -1.6636 -1.6407 -2.9518
48239SOL    HW249529   1.845   9.889   6.396  0.7551 -2.1047  0.5609
48240SOL     OW49530  12.144  11.833  11.592 -0.5873  0.1819 -0.5297
48240SOL    HW149531  12.159  11.783  11.512 -1.2170 -1.9083  0.5809
48240SOL    HW249532  12.220  11.815  11.647 -0.5576  0.9097 -0.3233
48241SOL     OW49533   4.940   0.204   6.512 -0.0931  0.1828  0.3492
48241SOL    HW149534   4.968   0.218   6.421  0.1650  1.4757  0.6109
48241SOL    HW249535   4.864   0.146   6.505  0.6867 -0.7698 -0.5940
48242SOL     OW49536   9.404   0.327   0.248  0.3148 -0.6092 -0.4668
48242SOL    HW149537   9.335   0.318   0.182  1.7605 -3.5180 -1.7531
48242SOL    HW249538   9.468   0.385   0.206 -0.6007  0.9375  0.1640
48243SOL     OW49539   6.140   7.839   4.634 -0.2614 -0.4104  0.1886
48243SOL    HW149540   6.235   7.830   4.638 -0.2753 -0.6025  3.9802
48243SOL    HW249541   6.123   7.929   4.665 -1.3071 -0.4689 -0.1840
48244SOL     OW49542   7.404   2.924   8.234  0.4516  0.1884  0.4834
48244SOL    HW149543   7.349   2.851   8.263 -1.4035  1.6858  0.9195
48244SOL    HW249544   7.357   3.002   8.262 -0.0474  1.7604 -4.0393
48245SOL     OW49545   7.339   2.902   7.725  0.0286 -0.0289  0.1517
48245SOL    HW149546   7.316   2.964   7.794  1.6966  1.9299 -0.9362
48245SOL    HW249547   7.410   2.945   7.676  0.0646 -2.0496 -1.7577
48246SOL     OW49548  12.526   8.955   8.424 -0.6410  0.2422  0.7042
48246SOL    HW149549  12.561   8.937   8.511 -3.2247 -2.0531  1.4191
48246SOL    HW249550  12.603   8.961   8.367  1.0144 -0.5461  2.7526
48247SOL     OW49551   2.809  12.532   9.296 -0.0518 -0.0486 -0.2921
48247SOL    HW149552   2.862  12.487   9.230 -1.3738  0.2010 -1.5697
48247SOL    HW249553   2.719  12.516   9.270 -0.6904 -1.0922  2.2624
48248SOL     OW49554   8.041   5.445   8.769 -0.3266 -0.3127 -0.6824
48248SOL    HW149555   7.962   5.420   8.816  0.3634 -0.8674  0.2067
48248SOL    HW249556   8.009   5.499   8.696 -1.3532  1.4294  0.9548
48249SOL     OW49557   1.610   0.307   6.759 -0.4086 -0.1803 -0.1276
48249SOL    HW149558   1.547   0.266   6.700 -0.4449 -0.7183  0.2646
48249SOL    HW249559   1.650   0.376   6.708 -1.1332  0.0019 -0.4676
48250SOL     OW49560  10.120   0.400   0.559 -0.4728 -0.6007 -0.4545
48250SOL    HW149561  10.118   0.480   0.506 -2.5382  0.1588  0.6780
48250SOL    HW249562  10.090   0.331   0.499 -1.0715 -0.0758 -0.7742
48251SOL     OW49563   8.981  11.529  11.113  0.1134 -0.0266  0.3900
48251SOL    HW149564   8.919  11.601  11.118  0.4271  0.2768 -0.0446
48251SOL    HW249565   8.927  11.451  11.126 -0.1554  0.2979  1.3696
48252SOL     OW49566  10.123   0.289   3.878 -0.2782  0.1761  0.2888
48252SOL    HW149567  10.114   0.301   3.972  3.2585 -0.2059  0.8334
48252SOL    HW249568  10.089   0.370   3.840  0.4638  1.4120  2.1245
48253SOL     OW49569  11.676   2.775   2.092 -0.0925 -0.1234  0.1799
48253SOL    HW149570  11.708   2.845   2.149  0.0693 -0.3784  0.4054
48253SOL    HW249571  11.656   2.703   2.152 -1.4644  0.1587  0.0984
48254SOL     OW49572   2.151   1.701   1.150 -0.0297  0.5343 -0.8372
48254SOL    HW149573   2.213   1.656   1.206  0.4927  1.2450 -0.8396
48254SOL    HW249574   2.198   1.777   1.118 -0.4900  0.4183 -1.8308
48255SOL     OW49575   5.186   2.986   2.297 -0.1031 -0.0532 -0.0108
48255SOL    HW149576   5.251   2.954   2.235  0.3927 -1.6359  1.2431
48255SOL    HW249577   5.102   2.959   2.261  0.2060 -1.3267  0.1603
48256SOL     OW49578   5.451   0.250  10.829  0.4116 -0.0026  0.2438
48256SOL    HW149579   5.530   0.231  10.779 -0.2401 -3.3547  0.2670
48256SOL    HW249580   5.379   0.228  10.770 -0.4521  0.3223  1.1416
48257SOL     OW49581   8.097   9.234   0.892 -0.8702  0.1874  0.0317
48257SOL    HW149582   8.169   9.263   0.836 -1.2617  2.1101  0.4218
48257SOL    HW249583   8.135   9.166   0.947  0.7184  1.2419  0.3165
48258SOL     OW49584  11.185  11.609   1.438  0.2842 -0.1626  0.0221
48258SOL    HW149585  11.261  11.627   1.493 -0.6640  2.1992  0.6854
48258SOL    HW249586  11.215  11.627   1.349  0.2229  2.1102  0.3976
48259SOL     OW49587   8.843  12.005   5.356 -0.2245 -0.3522 -0.4243
48259SOL    HW149588   8.932  11.972   5.369  0.2725  0.5658 -1.3451
48259SOL    HW249589   8.787  11.945   5.405  0.9734 -0.5215  0.7867
48260SOL     OW49590   2.244   8.755   3.231 -0.6325 -0.5340  0.6764
48260SOL    HW149591   2.237   8.845   3.261 -2.1034 -0.3555 -0.1183
48260SOL    HW249592   2.260   8.762   3.137 -0.2245 -1.1060  0.6990
48261SOL     OW49593   2.944  10.237  10.293  0.0399  0.5436  0.2557
48261SOL    HW149594   2.975  10.214  10.205 -0.7183 -1.2796  0.4115
48261SOL    HW249595   2.910  10.154  10.328  1.3307  0.9523  2.6978
48262SOL     OW49596   9.770   2.528  11.039  0.3512 -0.1247 -0.0599
48262SOL    HW149597   9.701   2.506  10.977  0.7983 -0.1348 -0.5546
48262SOL    HW249598   9.852   2.509  10.993  0.7373 -3.7929  1.7853
48263SOL     OW49599   5.449   9.373   1.377  0.1690  0.1329  0.1638
48263SOL    HW149600   5.430   9.364   1.283 -0.3678  1.2890  0.1551
48263SOL    HW249601   5.367   9.351   1.421  0.1332  0.5949  0.3248
48264SOL     OW49602   7.765   6.962  10.616 -0.8713  0.5965  0.6385
48264SOL    HW149603   7.709   6.884  10.612  1.1929 -0.9367 -0.1862
48264SOL    HW249604   7.768   6.985  10.709 -0.5491 -1.0780  1.0781
48265SOL     OW49605  12.070  10.828   5.811 -0.4421 -0.2339 -0.2909
48265SOL    HW149606  12.068  10.800   5.902  1.1759  0.3208 -0.0462
48265SOL    HW249607  12.124  10.763   5.767 -0.1800  0.1692 -0.5816
48266SOL     OW49608   8.993   9.160   0.928  0.1164 -0.2665  0.0082
48266SOL    HW149609   9.001   9.079   0.979  0.7204  0.2680  0.7869
48266SOL    HW249610   8.946   9.220   0.985 -1.5982 -0.4900 -1.1067
48267SOL     OW49611  11.225   8.868   0.107 -0.3113 -0.0256 -0.0866
48267SOL    HW149612  11.154   8.820   0.064 -0.5681  0.4411 -0.1868
48267SOL    HW249613  11.305   8.832   0.068 -0.4490 -1.1020  0.5903
48268SOL     OW49614   7.387   7.608   3.701  0.2714 -0.4637 -0.2497
48268SOL    HW149615   7.370   7.521   3.665 -0.7573 -0.1434 -0.5773
48268SOL    HW249616   7.431   7.655   3.631  1.1449 -0.8201  0.0508
48269SOL     OW49617   6.935  10.852   4.256 -0.5467  0.3136 -0.3629
48269SOL    HW149618   6.944  10.933   4.206  1.3667 -0.1252 -0.8131
48269SOL    HW249619   6.939  10.783   4.190  2.2222 -0.2886  0.3078
48270SOL     OW49620   7.979   4.158   6.279  0.6948  0.3688 -0.3795
48270SOL    HW149621   7.907   4.217   6.257  0.3094 -0.6211 -1.8122
48270SOL    HW249622   8.057   4.215   6.279 -0.0371  1.4526  1.2389
48271SOL     OW49623   4.718   1.680   0.679 -0.3607  0.2118  0.2292
48271SOL    HW149624   4.642   1.729   0.709  0.7113  1.7504  0.5961
48271SOL    HW249625   4.787   1.702   0.742  0.0679 -2.2369  0.7246
48272SOL     OW49626   4.903   3.103   1.652  0.0174 -0.5646 -0.1905
48272SOL    HW149627   4.979   3.061   1.612  0.3110 -0.3979  0.1889
48272SOL    HW249628   4.831   3.082   1.593  0.3226 -0.8729 -0.4610
48273SOL     OW49629   4.977   8.545   8.641  0.2131  0.4921  0.1898
48273SOL    HW149630   4.988   8.461   8.685 -1.0541  0.5069  0.5705
48273SOL    HW249631   4.928   8.599   8.703  1.6239  1.7840  0.2538
48274SOL     OW49632   5.248   5.517   8.423 -0.3096 -0.3280  0.1046
48274SOL    HW149633   5.245   5.516   8.518  1.8873 -0.7255  0.2274
48274SOL    HW249634   5.259   5.425   8.399  1.0870 -0.0647 -0.3806
48275SOL     OW49635   6.050   3.803  12.428  0.4270  0.4012  0.2126
48275SOL    HW149636   5.994   3.741  12.382  0.9304  0.1101 -0.0155
48275SOL    HW249637   6.041   3.885  12.380 -0.5560  0.6267  0.7523
48276SOL     OW49638   2.867   1.236   0.942 -0.1193 -0.4486 -0.5614
48276SOL    HW149639   2.927   1.310   0.955 -0.9234  0.2646 -0.7893
48276SOL    HW249640   2.918   1.159   0.966  0.8226  0.1587 -0.5595
48277SOL     OW49641   7.376  11.927   2.607  0.1433  1.0164  0.3328
48277SOL    HW149642   7.336  11.859   2.662 -0.6757  1.3104  0.1240
48277SOL    HW249643   7.366  12.007   2.658  1.4263  0.9414  0.7360
48278SOL     OW49644   8.301   4.096   9.596  0.2513 -0.1949  0.4277
48278SOL    HW149645   8.322   4.063   9.509  0.0103 -0.9666  0.6541
48278SOL    HW249646   8.306   4.192   9.588  0.1963 -0.2624 -0.4323
48279SOL     OW49647  11.273   0.807  12.645  0.3180 -0.3956  0.3056
48279SOL    HW149648  11.276   0.720  12.684 -2.5312 -0.7285 -0.0188
48279SOL    HW249649  11.244   0.864  12.715  0.7327  0.0289  0.1332
48280SOL     OW49650   8.888  12.434   3.011 -0.3122  0.0798 -0.1982
48280SOL    HW149651   8.957  12.401   3.068 -0.9784  0.4711  0.8538
48280SOL    HW249652   8.823  12.364   3.008 -0.9434  0.6150  0.6837
48281SOL     OW49653   6.188   6.189   2.596 -0.2691  0.1535  0.1015
48281SOL    HW149654   6.188   6.164   2.688 -2.9050 -2.1298 -0.3779
48281SOL    HW249655   6.212   6.109   2.549 -1.0383  0.6633 -1.2409
48282SOL     OW49656   6.134   6.165   7.729  0.7855 -0.1987  0.1626
48282SOL    HW149657   6.149   6.259   7.719  0.4673 -0.1613  0.0089
48282SOL    HW249658   6.099   6.137   7.644  0.9853 -0.4775  0.1699
48283SOL     OW49659   1.203   7.011   3.344  0.3001  0.1897 -0.4093
48283SOL    HW149660   1.266   7.080   3.322  1.0198 -0.1187  0.6208
48283SOL    HW249661   1.122   7.038   3.300  0.7012  1.4432 -0.4230
48284SOL     OW49662   5.048   0.006   3.792 -0.6487 -0.3076 -0.2264
48284SOL    HW149663   5.088  -0.036   3.869 -0.6468 -0.7729 -0.4791
48284SOL    HW249664   4.979   0.061   3.829 -0.0654  0.1712  0.1821
48285SOL     OW49665   0.575   9.283  11.997 -0.1778 -0.5401 -0.3519
48285SOL    HW149666   0.581   9.276  11.901  0.1556  3.0302 -0.7202
48285SOL    HW249667   0.662   9.314  12.024 -0.1198 -1.9418  1.2207
48286SOL     OW49668  11.049  12.208   2.074  0.5327  0.3039 -0.0926
48286SOL    HW149669  11.038  12.118   2.105  1.1327 -0.8459 -2.9817
48286SOL    HW249670  11.133  12.235   2.111  1.1300 -0.9358 -0.4667
48287SOL     OW49671   4.764   3.378   9.498  0.3415  0.2621  0.4942
48287SOL    HW149672   4.721   3.318   9.437  1.1161  0.7652 -0.5864
48287SOL    HW249673   4.700   3.447   9.513  0.0514  0.0037  0.4398
48288SOL     OW49674   9.848  12.293   3.654 -0.2996 -0.3644 -0.3448
48288SOL    HW149675   9.870  12.367   3.596 -0.1432 -0.7577 -0.7931
48288SOL    HW249676   9.926  12.280   3.707 -0.4964  0.0926  0.0592
48289SOL     OW49677   6.962  11.341   7.172 -0.2536 -0.2957  0.4648
48289SOL    HW149678   7.008  11.356   7.255 -0.5990  0.0699  0.5922
48289SOL    HW249679   6.988  11.414   7.117 -1.8605  0.7659  1.0510
48290SOL     OW49680   8.837  10.879   2.985 -0.3212 -0.3663 -0.9255
48290SOL    HW149681   8.790  10.802   2.952  1.0696 -1.5055 -0.3430
48290SOL    HW249682   8.896  10.844   3.052  0.8008  1.1206 -1.0894
48291SOL     OW49683   3.321   5.450   3.335  0.7197 -0.1160  0.4561
48291SOL    HW149684   3.375   5.383   3.377 -1.9507 -2.4787  0.4894
48291SOL    HW249685   3.294   5.507   3.407 -0.4612 -1.6667  1.3158
48292SOL     OW49686  10.683   3.725   3.177  0.9224  0.0467  0.1585
48292SOL    HW149687  10.614   3.715   3.244  0.7447 -0.7978 -0.1361
48292SOL    HW249688  10.738   3.648   3.189 -0.9733 -1.9775 -2.7826
48293SOL     OW49689   9.294   8.501   1.945 -0.7970  0.1663 -0.3088
48293SOL    HW149690   9.249   8.583   1.927 -0.2831  0.4501 -0.3317
48293SOL    HW249691   9.252   8.468   2.025 -1.4414  0.1212 -0.6631
48294SOL     OW49692  12.556   8.714  11.562  0.2248 -0.1090  0.1021
48294SOL    HW149693  12.505   8.776  11.614  1.7220  1.6215 -0.3718
48294SOL    HW249694  12.622   8.679  11.623 -0.9054 -1.6595  0.4878
48295SOL     OW49695  11.708   3.678   7.870  0.6079 -0.1643  0.3013
48295SOL    HW149696  11.646   3.740   7.831 -0.1552  0.1801  1.9720
48295SOL    HW249697  11.740   3.723   7.948  1.8889 -0.9270  0.2346
48296SOL     OW49698   7.978   9.452   8.423 -0.4480 -0.2563 -0.0890
48296SOL    HW149699   7.950   9.364   8.446 -0.4276 -0.3752 -0.5055
48296SOL    HW249700   7.928   9.510   8.481  0.9957 -0.6243  1.5954
48297SOL     OW49701   8.843   6.116   9.613  0.4524  0.1988  0.2953
48297SOL    HW149702   8.918   6.174   9.599 -0.6852  1.6476 -0.1534
48297SOL    HW249703   8.830   6.116   9.707  1.6942 -1.0091  0.4972
48298SOL     OW49704   2.212  10.774   0.744 -0.1567 -0.4635 -0.1680
48298SOL    HW149705   2.174  10.686   0.741 -0.1437 -0.4593 -0.5339
48298SOL    HW249706   2.140  10.830   0.773 -0.3177 -0.5196 -0.4487
48299SOL     OW49707   3.720   1.120   6.001  0.5511 -0.9927  0.1332
48299SOL    HW149708   3.738   1.207   6.037 -1.1036 -0.6979  0.3267
48299SOL    HW249709   3.697   1.136   5.910 -1.1425 -1.0468  0.5330
48300SOL     OW49710   5.416   1.245   0.806 -0.2266 -0.0303  0.5434
48300SOL    HW149711   5.500   1.199   0.811  0.5444  1.3865  1.7316
48300SOL    HW249712   5.358   1.195   0.863  0.4615  0.1684  1.4480
48301SOL     OW49713  12.270  10.767   8.697 -0.2130 -0.0889  0.0086
48301SOL    HW149714  12.194  10.798   8.648  1.0985  2.0130 -0.8421
48301SOL    HW249715  12.321  10.846   8.715 -0.0791 -0.8739  3.9600
48302SOL     OW49716   7.666   1.843   4.735 -0.0267  0.0755  0.4076
48302SOL    HW149717   7.658   1.880   4.647  0.0343  1.2412  0.8712
48302SOL    HW249718   7.678   1.749   4.721 -0.4981  0.1829 -0.8015
48303SOL     OW49719   0.050  10.535   2.700  0.2715  0.3058 -0.3006
48303SOL    HW149720   0.037  10.515   2.793 -0.5550 -1.3033 -0.7366
48303SOL    HW249721   0.011  10.622   2.690  0.7126  0.6728  0.9290
48304SOL     OW49722   7.918   5.377  11.039  0.4594 -0.2495  0.5926
48304SOL    HW149723   7.853   5.428  10.991  0.5878 -0.2906  0.3733
48304SOL    HW249724   7.977   5.443  11.076 -0.6769 -0.1019  2.2438
48305SOL     OW49725   8.882  10.090   5.823 -0.0496 -0.3507  0.2036
48305SOL    HW149726   8.869  10.183   5.806  0.6612  0.1176  1.9448
48305SOL    HW249727   8.815  10.046   5.771 -0.0804  1.0930 -1.0340
48306SOL     OW49728   4.386   6.346   1.283  0.3633 -0.0517 -0.3410
48306SOL    HW149729   4.343   6.299   1.212 -1.3770  0.0557  0.6074
48306SOL    HW249730   4.387   6.284   1.355 -0.3133  0.7280  0.3607
48307SOL     OW49731   8.536   8.347   6.483  0.2345 -0.5083 -0.1329
48307SOL    HW149732   8.478   8.381   6.414  1.5341  2.0090 -0.1185
48307SOL    HW249733   8.600   8.294   6.436  1.6071  1.8413 -1.1260
48308SOL     OW49734   6.785  11.962   2.882 -0.4331 -0.0760 -0.2480
48308SOL    HW149735   6.694  11.983   2.905 -0.0595  1.5052 -0.0782
48308SOL    HW249736   6.783  11.947   2.787 -0.8598  0.0810 -0.2668
48309SOL     OW49737   0.347   7.058   1.193  0.4705 -0.0171 -0.4941
48309SOL    HW149738   0.424   7.006   1.214  0.3948  0.0831  0.0418
48309SOL    HW249739   0.323   7.100   1.275 -0.4899 -0.4928 -0.5181
48310SOL     OW49740  11.126   0.789  11.984 -1.1922 -0.2833  0.6083
48310SOL    HW149741  11.178   0.813  11.907 -1.9343  0.1093  0.2168
48310SOL    HW249742  11.176   0.824  12.058 -2.2326  2.6722  0.0741
48311SOL     OW49743   0.170   3.985  11.293 -0.3737  0.3516 -0.2355
48311SOL    HW149744   0.221   3.927  11.349 -0.4200  0.7074  0.1848
48311SOL    HW249745   0.081   3.951  11.298 -0.1420 -0.4047 -1.1517
48312SOL     OW49746   2.910  11.588   5.206 -0.5420 -0.3506 -0.1261
48312SOL    HW149747   2.870  11.660   5.158 -0.4259  1.1416  1.8458
48312SOL    HW249748   2.838  11.527   5.223 -1.4376  0.9392  0.9717
48313SOL     OW49749  12.297   1.442   3.945  0.0083  0.0183 -0.3147
48313SOL    HW149750  12.250   1.517   3.981  0.5793 -0.6079  1.9308
48313SOL    HW249751  12.265   1.367   3.996 -0.3016 -1.2534 -2.2561
48314SOL     OW49752   9.995   8.371   1.789 -0.0745  0.1954  0.4924
48314SOL    HW149753   9.944   8.449   1.769  0.5240  0.0655 -1.7297
48314SOL    HW249754  10.079   8.405   1.820 -0.3616  0.4057  1.0556
48315SOL     OW49755   0.684   3.590   2.838 -0.1239 -0.5848  0.0966
48315SOL    HW149756   0.722   3.550   2.760  0.3675 -0.6762  0.3787
48315SOL    HW249757   0.731   3.672   2.849  1.0018 -1.3299  1.2372
48316SOL     OW49758   2.764   7.905  11.370 -0.6537 -0.4228  0.2911
48316SOL    HW149759   2.784   7.933  11.460 -0.6996 -1.2063  0.5508
48316SOL    HW249760   2.848   7.877  11.335 -0.9407 -1.9679  0.7615
48317SOL     OW49761   1.449  11.279   8.981  0.2264  0.4069 -0.4313
48317SOL    HW149762   1.520  11.225   8.947 -0.0327 -0.5574  0.5120
48317SOL    HW249763   1.474  11.369   8.958  1.8468  0.1125  0.0483
48318SOL     OW49764   4.688   5.273   6.239 -0.3140  0.0860  0.2696
48318SOL    HW149765   4.608   5.319   6.215  0.3140  1.0034 -0.1233
48318SOL    HW249766   4.674   5.183   6.210 -0.9431  0.3838 -0.3852
48319SOL     OW49767   9.209   0.231   7.954  0.1860  0.0993  0.4945
48319SOL    HW149768   9.212   0.159   8.017 -0.2232  0.7667  1.2965
48319SOL    HW249769   9.301   0.247   7.932  0.2697 -0.8284  0.0978
48320SOL     OW49770   6.181   1.951   8.777 -0.0682  0.5259  0.3513
48320SOL    HW149771   6.267   1.993   8.779 -0.0532  0.5106  2.1925
48320SOL    HW249772   6.129   2.005   8.717  1.5176 -0.1481 -1.7100
48321SOL     OW49773   8.978   1.539   0.407  0.6238 -0.2808  0.1823
48321SOL    HW149774   8.956   1.632   0.403  0.4632 -0.3063  0.4740
48321SOL    HW249775   9.061   1.535   0.453  0.4225 -0.3139  0.5450
48322SOL     OW49776   7.198   6.358   9.425 -0.1235  0.7618  0.2915
48322SOL    HW149777   7.172   6.266   9.438  0.6924  0.8356  3.1108
48322SOL    HW249778   7.116   6.404   9.408 -0.5796 -0.4124 -0.8794
48323SOL     OW49779  10.146   2.048   1.295 -0.1726  0.3814  0.2195
48323SOL    HW149780  10.089   2.124   1.300  0.6021  0.9228  0.9932
48323SOL    HW249781  10.124   1.996   1.372  1.2425  1.2236  1.2257
48324SOL     OW49782   4.369   8.361   8.791  0.3313  0.0627  1.0336
48324SOL    HW149783   4.460   8.346   8.767  0.3880  2.7476 -0.9709
48324SOL    HW249784   4.371   8.430   8.857 -0.2212  1.7339 -0.6041
48325SOL     OW49785   9.989  10.560   9.923 -0.1813  0.5298 -0.0024
48325SOL    HW149786   9.929  10.577   9.851 -1.3393 -1.2236  0.4922
48325SOL    HW249787  10.075  10.555   9.881 -0.5932  1.3063 -0.9839
48326SOL     OW49788   6.227   6.712   5.180 -0.3827  0.2192 -0.7509
48326SOL    HW149789   6.198   6.674   5.096  1.3383  0.1603 -1.3511
48326SOL    HW249790   6.147   6.748   5.218 -1.2720 -0.0585 -2.2542
48327SOL     OW49791   2.771   2.941   9.477  0.4641  0.0862 -0.2398
48327SOL    HW149792   2.862   2.971   9.478  0.2957  0.6225  0.3041
48327SOL    HW249793   2.761   2.894   9.560  0.8091 -1.7961 -1.2299
48328SOL     OW49794  10.322  12.078   1.946 -0.1270  0.1525 -0.1359
48328SOL    HW149795  10.347  12.143   1.881 -0.9204  0.2768 -0.3253
48328SOL    HW249796  10.351  11.994   1.909  1.5972  0.4376  0.4558
48329SOL     OW49797   2.685   8.900   5.754  0.1900  0.8987 -0.7939
48329SOL    HW149798   2.690   8.826   5.815  0.6362 -0.2666 -2.1751
48329SOL    HW249799   2.658   8.974   5.808 -1.1569 -0.4549  0.4949
48330SOL     OW49800   7.562   5.077   8.247 -0.2794 -0.5039  0.5368
48330SOL    HW149801   7.547   5.058   8.155 -1.0634  0.9063  0.3499
48330SOL    HW249802   7.479   5.056   8.290 -0.4405  0.3475  0.6581
48331SOL     OW49803   4.929   3.425   6.499 -0.1717  0.2527  0.4398
48331SOL    HW149804   4.995   3.399   6.435 -0.5258  0.2478  0.0739
48331SOL    HW249805   4.979   3.449   6.577  0.2305 -0.3804  0.3884
48332SOL     OW49806   5.383   6.530   0.258  0.6885 -0.1037  0.2086
48332SOL    HW149807   5.477   6.521   0.274  0.5650  0.2722  1.2020
48332SOL    HW249808   5.349   6.573   0.336 -0.0707  1.1843 -0.7836
48333SOL     OW49809  11.037   5.239   7.196 -0.2771  0.0786 -0.3530
48333SOL    HW149810  11.009   5.162   7.245  0.1874  0.7440  1.0369
48333SOL    HW249811  10.963   5.261   7.140  0.0087 -2.0271 -1.6480
48334SOL     OW49812   0.935  11.801  10.838 -0.9137 -0.2178 -0.2560
48334SOL    HW149813   0.853  11.847  10.851 -1.0573 -0.9332  1.7070
48334SOL    HW249814   0.910  11.713  10.810 -0.7379  0.0557 -1.3071
48335SOL     OW49815   8.560   0.347   5.940  0.1928  0.7666  0.2950
48335SOL    HW149816   8.484   0.289   5.935  0.2882  0.7303 -1.6079
48335SOL    HW249817   8.612   0.324   5.863  2.0815  0.8871  1.4795
48336SOL     OW49818  10.853  10.075   2.772  0.4294 -0.0817  0.1226
48336SOL    HW149819  10.928  10.053   2.717  1.0006  1.2409  0.3352
48336SOL    HW249820  10.891  10.102   2.855 -0.3623 -0.6963  0.7024
48337SOL     OW49821  10.737   6.063   2.260  0.0920 -0.7076  0.0833
48337SOL    HW149822  10.657   6.100   2.224  0.9730 -0.2510 -1.5174
48337SOL    HW249823  10.805   6.086   2.196  1.4410 -1.3685  1.2188
48338SOL     OW49824   7.993  10.798   2.580 -0.2566 -0.0130 -0.4632
48338SOL    HW149825   7.940  10.799   2.500  1.2687  0.1945 -1.5235
48338SOL    HW249826   7.960  10.872   2.631  0.2755  1.3260 -1.9830
48339SOL     OW49827   1.730   1.692   8.753 -0.1202  0.5600 -0.2495
48339SOL    HW149828   1.761   1.775   8.789  2.5473  0.0294 -1.1201
48339SOL    HW249829   1.695   1.714   8.667 -3.1561  1.2808  1.0364
48340SOL     OW49830   4.851   8.196   1.016 -0.3403  0.1752 -0.5864
48340SOL    HW149831   4.801   8.147   1.081  0.8229 -1.6283 -0.9872
48340SOL    HW249832   4.935   8.213   1.058 -0.7855  2.0621 -0.3841
48341SOL     OW49833   2.509   3.847   6.789 -0.6260  0.5711 -0.4003
48341SOL    HW149834   2.425   3.875   6.754  0.3802  2.6426 -1.3444
48341SOL    HW249835   2.566   3.923   6.778  1.3021 -0.6649  0.4740
48342SOL     OW49836  12.173   7.875   2.786 -0.4209 -0.1188  0.1528
48342SOL    HW149837  12.249   7.908   2.738 -1.3417  1.0093 -0.5670
48342SOL    HW249838  12.190   7.897   2.877 -0.1615  0.6938 -0.0872
48343SOL     OW49839   4.091  11.402   3.344 -0.2339  0.3438 -0.0279
48343SOL    HW149840   4.080  11.477   3.285  1.8270 -0.8798 -2.1584
48343SOL    HW249841   4.168  11.425   3.397 -0.0534  0.0618 -0.1648
48344SOL     OW49842   9.106   7.753  11.803 -0.7370  0.4637  0.3466
48344SOL    HW149843   9.127   7.826  11.861 -0.7986  1.0384 -0.3431
48344SOL    HW249844   9.153   7.678  11.841 -0.9418  0.7832  1.2401
48345SOL     OW49845   3.100   0.401   8.716  0.3907 -0.2011 -0.1986
48345SOL    HW149846   3.050   0.462   8.662  0.7264 -0.5817 -0.9574
48345SOL    HW249847   3.052   0.397   8.799  0.3278  1.0364 -0.1560
48346SOL     OW49848   9.458  11.884   9.385  0.0930  0.2779  0.2742
48346SOL    HW149849   9.404  11.947   9.337  1.5530 -0.1195 -2.0583
48346SOL    HW249850   9.530  11.936   9.420 -0.5583  0.4336  1.4369
48347SOL     OW49851   6.871  12.101   7.431  0.2568  0.4301  0.3768
48347SOL    HW149852   6.775  12.097   7.434  0.2922 -0.2400  0.9702
48347SOL    HW249853   6.895  12.160   7.502  0.2335  1.9250 -0.8119
48348SOL     OW49854   9.191   5.425   6.183 -0.4344  0.3932 -0.0553
48348SOL    HW149855   9.187   5.331   6.204  0.1477  0.3203 -0.2533
48348SOL    HW249856   9.107   5.459   6.212 -0.7423 -0.2331 -0.1818
48349SOL     OW49857   0.658   1.602  10.491  0.5358  0.4801  0.1486
48349SOL    HW149858   0.634   1.689  10.459 -1.1358  1.0855  2.6920
48349SOL    HW249859   0.603   1.542  10.441 -0.0099  1.1147 -0.0350
48350SOL     OW49860   2.673   7.431   6.495  0.2983 -0.3514  0.1746
48350SOL    HW149861   2.646   7.492   6.426  0.0876 -1.2976 -0.6019
48350SOL    HW249862   2.647   7.345   6.462  5.7898 -1.7296 -1.5736
48351SOL     OW49863  11.584   3.759   8.311 -0.3797 -0.3415  0.2238
48351SOL    HW149864  11.606   3.833   8.255 -0.1411 -1.4520 -1.2123
48351SOL    HW249865  11.489   3.751   8.303 -0.7144  1.0872  2.0942
48352SOL     OW49866   6.191  10.601   4.369 -0.3495  0.1309  0.0250
48352SOL    HW149867   6.179  10.675   4.310  0.4244  1.0864  1.0189
48352SOL    HW249868   6.120  10.610   4.433 -0.6213 -0.3467 -0.2080
48353SOL     OW49869   0.771   1.437   1.755 -0.3794 -0.4340  0.6403
48353SOL    HW149870   0.712   1.363   1.765  1.1117 -1.5972  1.1233
48353SOL    HW249871   0.822   1.438   1.836  1.9906 -1.0474 -0.7677
48354SOL     OW49872   9.198   2.528   7.733  0.7920 -0.5741 -0.1347
48354SOL    HW149873   9.108   2.505   7.754  1.2962 -1.1109  1.6260
48354SOL    HW249874   9.246   2.446   7.739  1.6898  0.0006  0.7414
48355SOL     OW49875   5.360   6.547   6.868 -0.4327 -0.0002  0.0084
48355SOL    HW149876   5.424   6.614   6.893 -0.5006 -0.0394  0.2889
48355SOL    HW249877   5.390   6.516   6.783 -0.0152 -0.0921  0.1877
48356SOL     OW49878   8.578  11.389   8.719  0.5696 -0.2448  0.0662
48356SOL    HW149879   8.666  11.418   8.742  0.5712 -0.8211  0.8182
48356SOL    HW249880   8.591  11.332   8.643  0.9460 -0.9934  0.6786
48357SOL     OW49881   3.742   1.395   5.946 -0.5793 -0.5472  0.3747
48357SOL    HW149882   3.737   1.416   5.853  0.0317 -1.3234  0.1501
48357SOL    HW249883   3.826   1.431   5.974 -1.5033  1.1695  1.0420
48358SOL     OW49884   5.172   3.114   9.623  0.3466 -0.2514  0.7513
48358SOL    HW149885   5.224   3.049   9.575 -1.5269 -0.2029 -1.5193
48358SOL    HW249886   5.176   3.085   9.714  1.6132 -2.0958  0.1768
48359SOL     OW49887   6.136   6.653   4.932 -0.3156  0.1037  0.4706
48359SOL    HW149888   6.040   6.660   4.927 -0.3233 -0.6894 -0.9313
48359SOL    HW249889   6.165   6.659   4.841  0.8108 -1.6508  0.6737
48360SOL     OW49890   5.198   2.717   4.429  0.3467 -0.2607  0.6588
48360SOL    HW149891   5.166   2.800   4.466  0.5985 -0.3110  0.9910
48360SOL    HW249892   5.293   2.723   4.436  0.3313 -1.0377  1.6927
48361SOL     OW49893   0.527  10.141   0.562 -0.1779  0.3117  0.3118
48361SOL    HW149894   0.442  10.110   0.592  1.1101 -1.3845  2.4899
48361SOL    HW249895   0.573  10.062   0.534  1.6240  0.8050  1.7228
48362SOL     OW49896   8.031   1.416   9.572 -0.2704 -0.2359  0.4847
48362SOL    HW149897   7.976   1.339   9.561 -0.6117  0.1409 -0.5646
48362SOL    HW249898   8.024   1.463   9.489  1.6737 -0.1957  0.3048
48363SOL     OW49899   0.301   7.731   5.394 -0.5898 -0.0109  0.2821
48363SOL    HW149900   0.377   7.687   5.357 -0.7452  1.2988 -1.7909
48363SOL    HW249901   0.329   7.761   5.480  0.4946 -1.4626  0.4513
48364SOL     OW49902   1.488   8.482   8.293 -0.4281  0.0585 -0.3741
48364SOL    HW149903   1.448   8.400   8.322 -0.5755  0.0680 -0.5493
48364SOL    HW249904   1.448   8.548   8.350 -1.1261  0.1465 -0.9571
48365SOL     OW49905   2.109   5.817  10.545 -0.4186 -0.4101  0.0943
48365SOL    HW149906   2.023   5.787  10.576  0.1455 -0.3152  1.8708
48365SOL    HW249907   2.128   5.894  10.600  0.3855  0.1503 -0.9370
48366SOL     OW49908   1.441   5.476  10.230 -0.1249 -0.7420 -0.2258
48366SOL    HW149909   1.507   5.506  10.168  0.0244 -2.5453 -1.0192
48366SOL    HW249910   1.400   5.556  10.263 -0.1405  0.3073 -2.5804
48367SOL     OW49911   9.395   5.478  12.448  0.0186  0.0713  0.1495
48367SOL    HW149912   9.473   5.517  12.485  0.7701 -2.0620  0.9821
48367SOL    HW249913   9.423   5.445  12.362 -1.2071  3.2387 -1.6289
48368SOL     OW49914   5.082   2.016   0.316  0.2358 -0.1472  0.3766
48368SOL    HW149915   5.159   2.007   0.260  0.7984  0.4010  1.0538
48368SOL    HW249916   5.101   1.964   0.393  0.6704  1.3176  1.3067
48369SOL     OW49917   8.715   9.224  11.737  0.1649  0.5194 -0.5229
48369SOL    HW149918   8.628   9.263  11.736 -0.0047  0.1509 -0.1027
48369SOL    HW249919   8.750   9.246  11.823 -0.3300 -1.1208  0.1271
48370SOL     OW49920   0.045   0.413   2.665  0.3102 -0.0232 -0.1427
48370SOL    HW149921   0.102   0.349   2.708  0.1779  0.5015  0.8406
48370SOL    HW249922   0.083   0.498   2.687 -0.1728  0.2869 -0.4723
48371SOL     OW49923   4.634   0.198   6.437  0.4921 -0.2135  1.0538
48371SOL    HW149924   4.552   0.169   6.477  0.9068  0.1375  2.1782
48371SOL    HW249925   4.679   0.117   6.413 -1.0099 -0.4281 -1.3831
48372SOL     OW49926   5.153  10.071   5.550 -0.8244 -0.5325  0.1558
48372SOL    HW149927   5.062  10.071   5.520 -0.4793  2.0959 -1.2675
48372SOL    HW249928   5.165  10.158   5.589  2.0648  1.0294 -3.5681
48373SOL     OW49929   1.750  11.360   2.480  0.3925  0.3931  0.0227
48373SOL    HW149930   1.756  11.397   2.392 -2.2001 -0.8825 -0.8003
48373SOL    HW249931   1.688  11.417   2.526 -0.3738 -0.4925  0.1075
48374SOL     OW49932  11.530  10.355   1.091 -0.5612  0.2469  0.9195
48374SOL    HW149933  11.594  10.286   1.107 -1.9191 -0.9911  1.1704
48374SOL    HW249934  11.570  10.434   1.127  1.5320 -0.1243 -0.4246
48375SOL     OW49935   1.062   5.074   1.716  0.8758  0.1040  0.3507
48375SOL    HW149936   0.967   5.061   1.709  0.9802 -0.4886  0.0138
48375SOL    HW249937   1.071   5.163   1.750  0.1759 -0.2661  1.5686
48376SOL     OW49938  12.426   2.582   1.958 -0.0338 -0.0077  0.0612
48376SOL    HW149939  12.498   2.520   1.950  0.6895  0.8498 -0.3944
48376SOL    HW249940  12.469   2.664   1.984 -0.8816  0.4440  0.0581
48377SOL     OW49941   0.185   2.487   4.561  0.6476 -0.1818  0.2563
48377SOL    HW149942   0.161   2.543   4.487 -0.7948 -1.0758  0.0051
48377SOL    HW249943   0.243   2.421   4.524  1.6377  0.6097  0.3720
48378SOL     OW49944   2.080   2.330   8.823  0.1195 -0.5531 -0.0288
48378SOL    HW149945   2.148   2.345   8.757  1.2682 -0.2539  1.1709
48378SOL    HW249946   2.104   2.388   8.895 -1.5048 -0.3548  0.3786
48379SOL     OW49947   5.581   2.242   3.376 -0.1713 -0.0312 -0.1786
48379SOL    HW149948   5.629   2.227   3.458  1.0343 -0.2823 -0.9147
48379SOL    HW249949   5.545   2.330   3.385  1.1930  0.5250  0.0267
48380SOL     OW49950   9.272   0.778   5.178  0.1680  0.5331 -0.0631
48380SOL    HW149951   9.191   0.827   5.188  0.7767  1.5079  0.3467
48380SOL    HW249952   9.251   0.688   5.203 -1.0541  0.5098 -1.1126
48381SOL     OW49953   9.244   1.563  10.039  0.0608  0.0145  0.3906
48381SOL    HW149954   9.287   1.648  10.039 -0.3819  0.2588 -0.7257
48381SOL    HW249955   9.159   1.579  10.079 -0.2003  0.2036 -0.2289
48382SOL     OW49956   5.306  11.890   1.225 -0.1775 -0.1036  0.0080
48382SOL    HW149957   5.263  11.862   1.144  0.6369 -1.7178  0.0898
48382SOL    HW249958   5.389  11.928   1.196 -0.2029 -0.0237  0.0404
48383SOL     OW49959  10.235   0.718  11.657 -0.4395 -0.2790  0.3661
48383SOL    HW149960  10.155   0.704  11.606 -0.2979 -0.5851  0.2265
48383SOL    HW249961  10.204   0.734  11.746 -0.6496 -0.5456  0.3425
48384SOL     OW49962   8.431  10.155   8.962 -0.2365 -0.4014  0.4550
48384SOL    HW149963   8.425  10.068   8.922  2.4955 -0.0105 -1.0743
48384SOL    HW249964   8.495  10.144   9.032 -0.5446  0.2078  0.8360
48385SOL     OW49965  12.510  12.260   6.488 -0.3207  0.1505 -0.4083
48385SOL    HW149966  12.585  12.233   6.541 -0.3110  1.2069  0.1428
48385SOL    HW249967  12.451  12.184   6.489  1.1552 -1.0895 -1.7047
48386SOL     OW49968  10.583   1.105   9.207  0.7007  0.2198  0.3604
48386SOL    HW149969  10.643   1.152   9.266 -0.2682  1.8149  0.1276
48386SOL    HW249970  10.641   1.068   9.140  1.5656  0.5366  0.9072
48387SOL     OW49971  11.606   2.823  10.194 -0.4755  1.0010  0.0876
48387SOL    HW149972  11.602   2.743  10.143 -0.4078  2.2304 -1.9636
48387SOL    HW249973  11.622   2.892  10.129  1.3392  2.4710  1.9632
48388SOL     OW49974  10.690   2.623   4.145  0.0986  0.2806 -0.0256
48388SOL    HW149975  10.659   2.532   4.144  0.0978  0.2861 -0.4583
48388SOL    HW249976  10.627   2.669   4.202 -0.0043  0.0473  0.0486
48389SOL     OW49977  12.460  12.308   4.564 -0.1825  0.0469 -1.0804
48389SOL    HW149978  12.393  12.268   4.509 -0.5502 -0.1567 -0.4960
48389SOL    HW249979  12.423  12.307   4.652  0.9764 -0.9581 -0.5710
48390SOL     OW49980   0.713   0.231   8.823  0.3555  0.5216 -0.3965
48390SOL    HW149981   0.772   0.196   8.757  0.5116 -0.4556  0.2534
48390SOL    HW249982   0.657   0.158   8.848 -0.6155  1.2331 -0.4335
48391SOL     OW49983  10.585   7.736   6.500 -0.4273  0.4666  0.1132
48391SOL    HW149984  10.553   7.819   6.535 -0.3594  0.1845  0.8531
48391SOL    HW249985  10.652   7.762   6.436  1.1421  0.9748  1.8617
48392SOL     OW49986   6.135  11.251   3.468 -0.1914 -0.2798  0.5332
48392SOL    HW149987   6.047  11.287   3.459 -0.4544 -1.1513 -0.7159
48392SOL    HW249988   6.168  11.248   3.378  0.4811 -1.5064  0.8037
48393SOL     OW49989   8.771   9.677   5.382  0.6075  0.2814 -0.0010
48393SOL    HW149990   8.835   9.747   5.381  2.1632 -1.0891 -0.1844
48393SOL    HW249991   8.743   9.670   5.473  1.3044  0.4007  0.2255
48394SOL     OW49992  11.569   1.782   2.220  0.5733  0.5320  0.1388
48394SOL    HW149993  11.511   1.776   2.144  1.2174  0.4288 -0.3486
48394SOL    HW249994  11.653   1.809   2.184  1.8418 -2.7333  0.3410
48395SOL     OW49995   7.588   0.214   4.459  0.0423  0.1691  0.3399
48395SOL    HW149996   7.604   0.298   4.503  1.9627 -0.2844  0.6088
48395SOL    HW249997   7.657   0.208   4.393 -0.8549 -0.6232 -0.5411
48396SOL     OW49998   2.818  11.051  11.598  0.1426  0.2394 -0.1825
48396SOL    HW149999   2.828  10.963  11.634 -2.1611 -0.0834 -0.2173
48396SOL    HW250000   2.795  11.037  11.506 -1.7348  0.7908  0.1686
48397SOL     OW50001   3.132   9.149   6.216  0.3756 -0.4094 -0.0284
48397SOL    HW150002   3.128   9.086   6.288 -0.3913 -0.8187 -0.4111
48397SOL    HW250003   3.076   9.111   6.148 -0.9845  1.1783  0.1298
48398SOL     OW50004  11.675   0.159   1.339  0.1012 -0.1832 -0.0436
48398SOL    HW150005  11.770   0.159   1.327  0.0911  1.2316 -0.2085
48398SOL    HW250006  11.639   0.143   1.252  0.1753  1.4498 -0.4051
48399SOL     OW50007  11.590   0.799   7.509 -0.3142  0.4975  0.5244
48399SOL    HW150008  11.557   0.875   7.461 -0.6412  0.0138 -0.0289
48399SOL    HW250009  11.551   0.724   7.465 -2.3155  0.0897  2.7793
48400SOL     OW50010   7.655  11.288  10.339 -0.4212 -0.6391 -0.2107
48400SOL    HW150011   7.611  11.231  10.276 -0.6879 -0.2963 -0.3339
48400SOL    HW250012   7.589  11.305  10.406 -0.2272 -0.7733  0.0145
48401SOL     OW50013   4.190   5.272   4.065  0.0097  0.1363  0.1457
48401SOL    HW150014   4.258   5.329   4.030 -1.1209  0.9701 -0.7570
48401SOL    HW250015   4.211   5.186   4.029 -0.4812  0.7569 -1.7462
48402SOL     OW50016   5.043   1.509   3.929 -0.1922 -0.0518 -0.1488
48402SOL    HW150017   4.988   1.475   4.000  0.8464 -0.5650  0.4441
48402SOL    HW250018   5.112   1.558   3.974  0.8375 -0.9110 -0.7597
48403SOL     OW50019  10.635   6.311   0.007  0.3939  0.1022 -0.3873
48403SOL    HW150020  10.713   6.287  -0.044  0.2168 -0.5706 -0.3514
48403SOL    HW250021  10.666   6.378   0.068  0.8211  0.2370 -0.7447
48404SOL     OW50022   5.669   7.625  10.861 -0.2169 -0.1586 -0.1259
48404SOL    HW150023   5.754   7.668  10.849  0.9841 -1.9949  1.2795
48404SOL    HW250024   5.641   7.601  10.773  0.0257  1.6664 -0.7402
48405SOL     OW50025   4.065   8.944   4.585  0.8173  0.6319 -0.5049
48405SOL    HW150026   4.142   8.933   4.528  0.8490  0.9011 -0.5141
48405SOL    HW250027   4.049   8.856   4.619  0.0876  0.2112 -1.8367
48406SOL     OW50028   6.656   8.589   6.163  0.1943  0.0249 -0.1257
48406SOL    HW150029   6.733   8.605   6.109  1.4993  1.9524  2.0996
48406SOL    HW250030   6.691   8.551   6.244 -1.2864  0.1913  0.6283
48407SOL     OW50031   7.811   3.401   2.317 -0.2353  1.0343 -0.0410
48407SOL    HW150032   7.810   3.487   2.360 -1.8973  0.6661  0.7748
48407SOL    HW250033   7.725   3.364   2.338  0.5723 -0.9737 -0.0657
48408SOL     OW50034   1.288   1.998   1.864 -0.1782  1.2180  0.5590
48408SOL    HW150035   1.268   1.940   1.938 -1.0259 -0.7002 -1.0590
48408SOL    HW250036   1.365   2.047   1.891  1.0747 -1.2537  1.7615
48409SOL     OW50037   6.488   3.446   4.405  0.0908  0.1160 -0.7751
48409SOL    HW150038   6.466   3.537   4.384 -0.5732  0.0512 -0.4135
48409SOL    HW250039   6.531   3.451   4.490 -2.1908 -0.1096  0.4620
48410SOL     OW50040   0.668   8.241   1.396  0.5630  0.8429  0.1723
48410SOL    HW150041   0.692   8.313   1.338  0.5766  1.8776  1.4184
48410SOL    HW250042   0.573   8.235   1.389  0.5246  1.2218  0.3209
48411SOL     OW50043   2.621   1.675   8.679  0.7143 -0.0956 -0.5740
48411SOL    HW150044   2.599   1.730   8.754 -0.1267  1.0172 -1.5892
48411SOL    HW250045   2.570   1.712   8.607  0.1946 -2.1618 -1.3259
48412SOL     OW50046   7.322   4.272  12.641 -0.0721 -0.0893  0.1784
48412SOL    HW150047   7.229   4.268  12.666  0.1935 -1.1138  1.0700
48412SOL    HW250048   7.358   4.188  12.670  1.2568  0.5208  0.3559
48413SOL     OW50049   2.974  12.151   1.981  0.0054  0.3794 -0.0135
48413SOL    HW150050   3.047  12.198   2.022  1.1568  0.0014 -1.5480
48413SOL    HW250051   2.920  12.220   1.942  0.4486  0.5626 -0.3054
48414SOL     OW50052   3.084   2.716   2.282  0.3917 -0.0448  0.0881
48414SOL    HW150053   3.137   2.642   2.309 -0.0261 -0.1058  0.7774
48414SOL    HW250054   2.993   2.686   2.291  0.2018 -0.4997 -2.6416
48415SOL     OW50055   9.892   7.098  10.412  0.5581  0.0853 -0.5549
48415SOL    HW150056   9.919   7.009  10.433  1.1956  0.1862 -0.9369
48415SOL    HW250057   9.945   7.153  10.470  1.7320  0.3231 -1.8027
48416SOL     OW50058   6.957   6.740   8.928  0.2861 -0.5392  0.3087
48416SOL    HW150059   6.986   6.779   8.846  0.5942 -2.7976 -0.7470
48416SOL    HW250060   6.897   6.671   8.901  0.0148 -1.0130  2.0205
48417SOL     OW50061   1.948  12.362   8.412 -0.6875 -0.4820 -0.3797
48417SOL    HW150062   1.931  12.350   8.505  1.2270  1.8348  0.3667
48417SOL    HW250063   1.887  12.430   8.384 -0.3253 -0.1941 -0.4757
48418SOL     OW50064   5.149   0.092   1.672  0.3379 -0.0805  0.6122
48418SOL    HW150065   5.069   0.145   1.668  1.3464  1.4941  0.5012
48418SOL    HW250066   5.212   0.148   1.717  1.8623 -0.6157 -0.7884
48419SOL     OW50067   3.354   7.556   6.895  0.3153 -0.6385 -0.7675
48419SOL    HW150068   3.310   7.498   6.957 -1.5321  1.5080  0.0597
48419SOL    HW250069   3.447   7.538   6.908  0.0103 -0.4268  2.5362
48420SOL     OW50070   3.522   1.409   6.164 -0.1375 -0.5293  0.2111
48420SOL    HW150071   3.568   1.474   6.216  1.7202 -1.8338  0.3012
48420SOL    HW250072   3.573   1.401   6.083  0.4702 -2.7283  0.7306
48421SOL     OW50073   1.884   0.511   4.359 -1.1471 -0.3656  0.6156
48421SOL    HW150074   1.794   0.493   4.333 -0.4493 -0.9510 -1.6030
48421SOL    HW250075   1.891   0.606   4.360 -1.9639 -0.3035  1.5462
48422SOL     OW50076   5.965   4.761   5.296  0.4116 -0.0441 -0.2001
48422SOL    HW150077   5.909   4.730   5.367  0.9556 -0.8384 -0.1054
48422SOL    HW250078   6.030   4.815   5.339  0.1811  0.2477 -0.2147
48423SOL     OW50079   3.696   1.205   4.065  0.2052  0.1761 -0.0632
48423SOL    HW150080   3.747   1.132   4.029 -0.0380  0.0041 -0.0622
48423SOL    HW250081   3.761   1.267   4.097  0.4420  0.6854 -1.4883
48424SOL     OW50082   1.222   6.439  10.103  0.1766 -0.2331 -0.7690
48424SOL    HW150083   1.163   6.514  10.107 -0.6473 -0.8050 -1.8008
48424SOL    HW250084   1.226   6.406  10.193  1.0453  1.3967 -0.1774
48425SOL     OW50085   8.450   9.532  11.051 -0.1394 -0.1912 -0.4401
48425SOL    HW150086   8.513   9.475  11.005 -0.1996  1.4274 -2.6902
48425SOL    HW250087   8.370   9.480  11.056  0.5421 -1.2453 -0.0807
48426SOL     OW50088   6.088   5.039  10.363 -0.0840  0.0480  1.2208
48426SOL    HW150089   6.121   4.953  10.337 -1.4889 -0.4358  0.9673
48426SOL    HW250090   6.098   5.093  10.285 -0.4751 -0.2633  0.9555
48427SOL     OW50091   8.274  12.538   0.961  0.2819  0.6225  0.0015
48427SOL    HW150092   8.309  12.587   0.887 -0.3860  1.3468  0.1480
48427SOL    HW250093   8.301  12.588   1.038 -1.7901  1.7565  0.0913
48428SOL     OW50094  10.085  11.513   7.798  0.5581  0.4018 -0.2097
48428SOL    HW150095  10.074  11.558   7.881 -0.1696  2.1534 -1.2028
48428SOL    HW250096  10.110  11.424   7.822  1.2381  1.0905  1.8497
48429SOL     OW50097  12.645   8.120  12.510  0.7530  0.1571 -0.1663
48429SOL    HW150098  12.679   8.126  12.421  1.9850 -1.6538  0.1301
48429SOL    HW250099  12.588   8.042  12.508  1.1815 -0.1871  0.7419
48430SOL     OW50100   2.318   0.418  10.646  0.1937 -0.1795 -0.4260
48430SOL    HW150101   2.326   0.326  10.672 -1.5951 -0.2290  0.0395
48430SOL    HW250102   2.274   0.415  10.562  1.4780  0.2152 -1.1360
48431SOL     OW50103   5.744   0.263   8.175 -0.1338 -0.2899  0.3378
48431SOL    HW150104   5.731   0.335   8.113 -1.0458  0.1276  0.9938
48431SOL    HW250105   5.703   0.293   8.256  3.5580  0.4245  2.1695
48432SOL     OW50106   5.364   1.954   1.342 -0.0558  0.4095  0.3546
48432SOL    HW150107   5.348   1.875   1.393 -1.0993  1.4283  1.7002
48432SOL    HW250108   5.449   1.985   1.372  1.3095 -1.1899 -1.6080
48433SOL     OW50109   1.517   1.051   3.887  0.2888  0.0010 -0.3432
48433SOL    HW150110   1.458   1.100   3.945  0.6387  1.7157 -1.3686
48433SOL    HW250111   1.459   0.996   3.834 -0.1891 -0.0329  0.2108
48434SOL     OW50112   4.899   2.975   8.501  0.1443  0.0260  0.2028
48434SOL    HW150113   4.962   2.919   8.457 -0.8481 -0.1037 -1.1498
48434SOL    HW250114   4.950   3.027   8.563  1.1707 -1.9033  1.0354
48435SOL     OW50115   1.984   1.030  11.138  0.0189 -0.7948 -0.2149
48435SOL    HW150116   1.938   0.986  11.066 -0.3393  0.8864 -1.0456
48435SOL    HW250117   1.918   1.036  11.208 -0.4981  0.0174 -0.7587
48436SOL     OW50118   3.388   3.658   5.424  0.2903 -0.3027 -0.6900
48436SOL    HW150119   3.480   3.683   5.408  1.0422 -2.0397  0.6198
48436SOL    HW250120   3.382   3.568   5.393 -1.4629  0.2719 -2.2291
48437SOL     OW50121  10.533   8.693   8.785 -0.1986 -0.2564 -0.2293
48437SOL    HW150122  10.515   8.783   8.812 -0.9362  0.0440 -1.6134
48437SOL    HW250123  10.465   8.641   8.828  0.2628 -0.1747  0.6173
48438SOL     OW50124  10.374   8.669   5.267 -0.2297  0.4002 -0.2457
48438SOL    HW150125  10.305   8.604   5.254  0.9104 -0.8557 -0.2636
48438SOL    HW250126  10.396   8.699   5.178  1.6476 -1.8507 -0.6529
48439SOL     OW50127  10.742   8.672   5.171  0.0127  0.2262  0.4653
48439SOL    HW150128  10.723   8.755   5.127  0.6305  0.5578  0.8153
48439SOL    HW250129  10.682   8.669   5.245  1.2090  1.2251  1.5105
48440SOL     OW50130   7.158   3.806   0.124 -0.3602 -0.0190 -0.2443
48440SOL    HW150131   7.139   3.792   0.031  1.0405 -1.2057 -0.3812
48440SOL    HW250132   7.176   3.719   0.159  0.1923  0.5220  0.8855
48441SOL     OW50133  11.739  12.100   2.743  0.4313  0.1871  0.0971
48441SOL    HW150134  11.679  12.164   2.706 -1.9080 -1.2753  1.1550
48441SOL    HW250135  11.708  12.086   2.832  1.6550 -1.4746  0.3229
48442SOL     OW50136   8.094   2.250   8.911 -0.2428 -0.3690 -0.0511
48442SOL    HW150137   8.139   2.320   8.958 -2.9320  0.6535  1.1889
48442SOL    HW250138   8.104   2.274   8.819  1.2221  0.0905  0.1935
48443SOL     OW50139   8.397   3.093   3.957 -0.4017 -0.5135  0.0570
48443SOL    HW150140   8.402   3.018   4.016  2.3573 -0.6396 -0.1960
48443SOL    HW250141   8.403   3.170   4.015 -1.4166 -0.5081  0.1750
48444SOL     OW50142   9.735   0.288  12.224  1.2962  0.2655  0.2457
48444SOL    HW150143   9.825   0.308  12.249  0.5563  2.2802  1.5527
48444SOL    HW250144   9.717   0.344  12.149  1.7324 -1.6874 -1.4072
48445SOL     OW50145   6.804   1.112   6.489  0.6666 -0.2645 -0.1633
48445SOL    HW150146   6.741   1.059   6.440  1.9259 -0.8998 -1.1519
48445SOL    HW250147   6.757   1.192   6.510  0.0022 -0.0509 -2.2716
48446SOL     OW50148   0.338   9.221   1.703  0.2206 -0.0184 -0.2433
48446SOL    HW150149   0.317   9.287   1.769 -0.2584 -0.9350  0.5629
48446SOL    HW250150   0.419   9.252   1.663  1.9141 -0.5393  2.4468
48447SOL     OW50151   5.186  11.013   0.430 -0.3080 -0.6918  0.4718
48447SOL    HW150152   5.164  11.025   0.523 -0.7519 -0.2287  0.3106
48447SOL    HW250153   5.160  11.095   0.389  0.0642 -0.8248 -0.0340
48448SOL     OW50154   6.395   2.740   5.409 -0.0797  0.6285  0.6000
48448SOL    HW150155   6.411   2.652   5.444  0.1776  0.5823  0.3688
48448SOL    HW250156   6.303   2.738   5.381  0.0003  0.3498  0.3536
48449SOL     OW50157   9.371  10.745   9.024  0.6603 -0.3493 -0.3766
48449SOL    HW150158   9.394  10.824   8.976  0.6783  0.0451  0.2781
48449SOL    HW250159   9.444  10.730   9.084 -1.2777  1.7573  2.7963
48450SOL     OW50160  12.491  12.496   2.558  0.0202 -0.9123  0.0885
48450SOL    HW150161  12.567  12.537   2.599  1.0942 -2.0003 -0.7236
48450SOL    HW250162  12.429  12.485   2.630  0.9836 -0.8101  0.9762
48451SOL     OW50163   1.454   0.489   8.266 -0.2314  0.3536  0.5867
48451SOL    HW150164   1.434   0.545   8.340 -2.0946 -0.7050  0.9354
48451SOL    HW250165   1.494   0.547   8.201 -0.1332  1.6123  1.7458
48452SOL     OW50166   7.418   0.878  10.225  0.4131  0.6664 -0.2908
48452SOL    HW150167   7.492   0.939  10.217  0.4479  0.6089 -0.4122
48452SOL    HW250168   7.356   0.907  10.158 -0.1327  1.3532  0.4996
48453SOL     OW50169   4.168  10.787   9.853 -0.1816 -0.4536  0.4153
48453SOL    HW150170   4.172  10.705   9.804  0.1197 -0.6600  0.7779
48453SOL    HW250171   4.178  10.760   9.944  0.0654  0.0034  0.5221
48454SOL     OW50172  10.369   3.841  12.196  0.3783  0.2047  0.0285
48454SOL    HW150173  10.277   3.816  12.181 -0.0770  1.6571  0.2605
48454SOL    HW250174  10.417   3.798  12.125 -0.4605 -0.6267 -0.0687
48455SOL     OW50175  12.330   0.624   3.071 -0.8027 -0.7268  0.2517
48455SOL    HW150176  12.243   0.608   3.034 -0.9356  0.3547  0.0687
48455SOL    HW250177  12.314   0.686   3.142 -0.2833 -1.2087  0.7970
48456SOL     OW50178  10.151   2.348   2.370 -0.2075 -0.5321 -0.1539
48456SOL    HW150179  10.111   2.394   2.296  1.5096  1.0496 -0.1678
48456SOL    HW250180  10.086   2.357   2.441  0.3729  2.8558  0.1303
48457SOL     OW50181  11.009   0.899  10.875  0.4104  0.3726  0.2711
48457SOL    HW150182  10.972   0.821  10.916  1.1320  0.0475  0.3076
48457SOL    HW250183  11.104   0.889  10.885  0.7148 -0.3297 -2.5528
48458SOL     OW50184   6.114   6.090   2.024  0.4171 -0.0412  0.2753
48458SOL    HW150185   6.132   6.178   2.056 -2.0318  0.9201 -0.7223
48458SOL    HW250186   6.115   6.098   1.929  0.1787 -1.0832  0.1747
48459SOL     OW50187   0.590   2.116   7.631  0.2745 -0.2117 -0.2268
48459SOL    HW150188   0.501   2.099   7.600  1.4088 -1.4496 -3.1764
48459SOL    HW250189   0.601   2.210   7.621  0.2461 -0.4225 -2.9495
48460SOL     OW50190   6.897  11.568  12.269  0.6924 -0.1126  0.5326
48460SOL    HW150191   6.901  11.641  12.331  2.9003  1.2323 -1.0496
48460SOL    HW250192   6.980  11.572  12.222 -0.6854 -1.3210 -2.2189
48461SOL     OW50193   3.034  10.357   6.178  0.0518  0.8410 -0.3828
48461SOL    HW150194   2.993  10.335   6.094  0.2221  0.4608 -0.3648
48461SOL    HW250195   3.023  10.452   6.185  0.7148  0.9844 -1.1894
48462SOL     OW50196  10.578   7.976  12.300  0.0049  0.4707  0.1120
48462SOL    HW150197  10.649   8.033  12.329  0.7128 -0.2705 -0.1361
48462SOL    HW250198  10.559   7.921  12.377 -1.2682  1.5875  0.6403
48463SOL     OW50199   2.376   0.088   0.792  0.5195  0.3693  0.3004
48463SOL    HW150200   2.453   0.065   0.843  0.0050 -1.1166  0.4560
48463SOL    HW250201   2.407   0.093   0.701  0.9623  0.6743  0.4677
48464SOL     OW50202   0.632   2.097   3.963 -0.2225 -0.1569  0.1865
48464SOL    HW150203   0.705   2.060   4.014 -2.1700  0.0728  3.4329
48464SOL    HW250204   0.559   2.101   4.025 -2.5723  1.1681 -2.4314
48465SOL     OW50205  11.714  12.396  12.256  0.0380 -0.2661 -0.0779
48465SOL    HW150206  11.806  12.373  12.238  0.5622  0.1903  1.7762
48465SOL    HW250207  11.671  12.311  12.267  0.5847 -0.4802  0.5207
48466SOL     OW50208  12.284  12.059   8.040  0.1356  0.1190  0.1439
48466SOL    HW150209  12.302  11.967   8.056 -1.5664 -0.1779  0.4732
48466SOL    HW250210  12.214  12.060   7.974  0.9200  1.2116 -0.7311
48467SOL     OW50211   8.942   7.344   6.465 -0.1239  0.0589 -0.6499
48467SOL    HW150212   8.972   7.414   6.522  0.0094 -0.5745  0.0708
48467SOL    HW250213   8.884   7.388   6.402  0.9365  1.0098 -0.9929
48468SOL     OW50214   7.887   3.332   7.255 -0.5706  0.2505  0.4360
48468SOL    HW150215   7.798   3.302   7.273 -0.8965  1.0237  0.1781
48468SOL    HW250216   7.942   3.256   7.270 -1.3613 -0.4558 -0.1644
48469SOL     OW50217   5.931   6.342   0.962  0.1348 -0.5236  0.0601
48469SOL    HW150218   6.012   6.371   0.920 -0.1966 -0.2792 -0.4305
48469SOL    HW250219   5.910   6.411   1.025  0.6158 -0.8736  0.6120
48470SOL     OW50220   9.437  10.860   1.791  0.3649  0.0229  0.2543
48470SOL    HW150221   9.431  10.948   1.829 -0.3428 -1.2045  3.2257
48470SOL    HW250222   9.357  10.817   1.819 -0.4529 -0.9461 -3.1423
48471SOL     OW50223   5.893  11.578   8.116  0.6124  0.0242  0.4093
48471SOL    HW150224   5.906  11.670   8.140 -1.0281  0.4745 -0.2542
48471SOL    HW250225   5.798  11.569   8.106  0.7511 -1.7194  0.3327
48472SOL     OW50226   2.501   3.444   6.405 -1.4516 -0.2451 -0.4797
48472SOL    HW150227   2.484   3.447   6.311 -3.3330  2.2243 -0.1528
48472SOL    HW250228   2.438   3.505   6.443 -1.1208 -1.5782  2.4771
48473SOL     OW50229  10.290   7.000   7.555  0.4711 -0.1300  0.3843
48473SOL    HW150230  10.343   7.014   7.633 -1.1790  1.8306  1.2492
48473SOL    HW250231  10.204   6.975   7.590 -0.4454  1.3177 -0.7543
48474SOL     OW50232  11.966   1.650   0.135 -0.1437  0.3182  0.2737
48474SOL    HW150233  12.011   1.573   0.100 -2.3886  0.1466 -2.5903
48474SOL    HW250234  11.912   1.615   0.206 -2.1089 -1.1452 -1.7971
48475SOL     OW50235   8.693  10.627   3.956  0.3393 -0.1696 -0.1375
48475SOL    HW150236   8.731  10.540   3.945 -0.2709 -0.5502  0.6912
48475SOL    HW250237   8.752  10.671   4.018  0.7828  0.0999 -0.7418
48476SOL     OW50238   0.341   7.387   4.837 -0.7130  0.2560  0.3931
48476SOL    HW150239   0.257   7.432   4.828 -0.1587  1.1981 -0.3592
48476SOL    HW250240   0.379   7.389   4.749 -0.5191 -1.4459  0.4027
48477SOL     OW50241   5.141   3.529   6.718 -0.2640  0.5698 -0.2981
48477SOL    HW150242   5.090   3.557   6.794  1.6511  2.2615  0.4483
48477SOL    HW250243   5.200   3.602   6.700 -0.3668  0.0542 -3.2103
48478SOL     OW50244   4.384   9.355   4.699 -0.0806  0.6173 -0.4550
48478SOL    HW150245   4.343   9.359   4.786  1.2952  0.5208  0.2218
48478SOL    HW250246   4.394   9.262   4.681  1.1068  0.6312  0.0280
48479SOL     OW50247  11.597   8.378   5.981 -0.1815  0.3240 -0.6210
48479SOL    HW150248  11.631   8.467   5.986  0.4024  0.1119 -0.7193
48479SOL    HW250249  11.609   8.343   6.069 -0.4272  0.3496 -0.5779
48480SOL     OW50250   5.521   9.037  12.628 -0.5659 -0.3045 -0.1576
48480SOL    HW150251   5.566   9.022  12.545 -2.2178 -0.1291 -1.1271
48480SOL    HW250252   5.516   9.133  12.636 -2.2026 -0.2962 -0.9131
48481SOL     OW50253   3.078   2.934   3.779 -0.6312 -0.0327  0.7480
48481SOL    HW150254   3.150   2.899   3.727 -1.2919 -1.2461  0.6159
48481SOL    HW250255   3.085   2.888   3.863 -0.1524  1.2008  1.4081
48482SOL     OW50256   3.831   0.718   5.165 -0.8121  0.0272  0.5007
48482SOL    HW150257   3.787   0.795   5.200  0.4920  1.5506 -1.0436
48482SOL    HW250258   3.858   0.743   5.077  0.4267 -1.8947  0.2663
48483SOL     OW50259   8.026   9.152   8.613  0.5352 -0.0807  0.3588
48483SOL    HW150260   8.021   9.101   8.533 -0.8801  4.7442 -3.1080
48483SOL    HW250261   8.119   9.171   8.624  0.6434  0.3816 -1.1197
48484SOL     OW50262  10.644   4.050   0.419 -0.0526 -0.1669 -0.1963
48484SOL    HW150263  10.709   3.996   0.373 -0.7790 -0.7321 -0.5781
48484SOL    HW250264  10.592   4.090   0.350  0.0706  0.5210  0.1037
48485SOL     OW50265   0.392   8.119   8.021  0.4287 -0.3946  0.7031
48485SOL    HW150266   0.455   8.151   8.086  1.7694 -0.8560 -0.3347
48485SOL    HW250267   0.320   8.084   8.074  0.6710  0.8135  1.9037
48486SOL     OW50268   1.765   2.486   3.932 -0.2947 -0.3969  0.0357
48486SOL    HW150269   1.785   2.458   3.842  0.1451  0.2344 -0.0750
48486SOL    HW250270   1.670   2.499   3.932 -0.2341  0.1217 -0.5012
48487SOL     OW50271   8.028   5.535   3.134 -0.2032 -0.2477  0.0126
48487SOL    HW150272   8.043   5.465   3.071 -0.6935 -0.0139 -0.3728
48487SOL    HW250273   8.008   5.490   3.216 -1.5736 -0.5894 -0.4771
48488SOL     OW50274   7.618   3.054   1.931 -1.0936 -0.1805  0.5767
48488SOL    HW150275   7.673   3.129   1.950 -1.3104 -0.4206  2.3739
48488SOL    HW250276   7.530   3.090   1.923 -0.8966  0.0289 -0.9534
48489SOL     OW50277   1.864   5.716   2.720  0.0275  0.4574  0.1005
48489SOL    HW150278   1.875   5.779   2.791 -0.3270  0.9459 -0.2698
48489SOL    HW250279   1.930   5.649   2.737  1.1721  1.4982 -0.1139
48490SOL     OW50280   3.761  11.585   6.203  0.1582 -0.2903  0.0310
48490SOL    HW150281   3.826  11.600   6.272  1.7453 -1.8659 -1.0305
48490SOL    HW250282   3.699  11.523   6.243  1.3497 -1.5931 -0.0701
48491SOL     OW50283  10.677  12.085   8.408  0.3611 -0.5264 -0.3398
48491SOL    HW150284  10.679  12.178   8.433 -0.3167 -0.5234 -0.2561
48491SOL    HW250285  10.727  12.081   8.326  2.0075 -0.4233  0.6254
48492SOL     OW50286   9.486   2.701   3.078  0.2177 -0.5244 -0.3650
48492SOL    HW150287   9.404   2.652   3.078  1.5369 -2.8649  0.2968
48492SOL    HW250288   9.500   2.724   2.986  0.2450 -2.6783 -0.9445
48493SOL     OW50289   8.763   5.797   9.095 -0.3307  0.3436 -1.0270
48493SOL    HW150290   8.702   5.871   9.102 -1.8572 -0.9165 -0.3273
48493SOL    HW250291   8.759   5.771   9.003 -0.7120  0.3950 -1.0271
48494SOL     OW50292   3.985   5.169   5.673  0.1784 -0.3631 -0.2762
48494SOL    HW150293   3.998   5.145   5.764  0.2464 -1.0461 -0.4549
48494SOL    HW250294   4.048   5.115   5.625  0.0870 -0.0741 -0.7313
48495SOL     OW50295   4.908   8.786   9.813  0.1786  0.1213 -0.2769
48495SOL    HW150296   4.849   8.769   9.887 -1.0846 -0.0605 -1.2873
48495SOL    HW250297   4.988   8.820   9.853 -0.5172  0.1289  1.1626
48496SOL     OW50298  11.247   9.880   7.820 -0.3246  0.0007  0.7443
48496SOL    HW150299  11.297   9.799   7.829 -0.8112 -0.4162 -0.2212
48496SOL    HW250300  11.203   9.873   7.735 -1.0377  0.9096  1.0143
48497SOL     OW50301   4.112   2.870   9.805  0.0926 -0.2735  0.2461
48497SOL    HW150302   4.017   2.876   9.803 -0.0502 -2.2070 -1.3651
48497SOL    HW250303   4.141   2.921   9.730  0.2833 -0.3797  0.2471
48498SOL     OW50304   1.074  12.381   5.141 -0.0411  0.4007 -0.5971
48498SOL    HW150305   1.132  12.368   5.067  3.6715  0.0001  2.1299
48498SOL    HW250306   1.064  12.294   5.180 -0.2546  0.9173  0.5390
48499SOL     OW50307   5.575   8.558   2.818 -0.2213  0.1347 -0.2864
48499SOL    HW150308   5.536   8.476   2.791 -1.3683 -0.1488  2.0143
48499SOL    HW250309   5.501   8.617   2.832  0.4173  0.8182  0.3167
48500SOL     OW50310  11.211   9.157   8.473  0.3037 -0.5257  0.1882
48500SOL    HW150311  11.154   9.187   8.402 -0.1724  1.6414  1.3897
48500SOL    HW250312  11.290   9.126   8.429  0.3362  1.4412 -1.3003
48501SOL     OW50313   6.252   5.734  11.572  0.0870 -0.2867 -0.4146
48501SOL    HW150314   6.183   5.800  11.583 -1.5985 -2.0724  0.2955
48501SOL    HW250315   6.290   5.753  11.486 -0.1699  1.7313 -0.1272
48502SOL     OW50316  11.295   2.051   8.049 -0.2616 -0.2161  0.2273
48502SOL    HW150317  11.229   1.982   8.041 -0.0496 -0.2186 -1.9773
48502SOL    HW250318  11.323   2.069   7.960  0.9088  1.5783  0.8908
48503SOL     OW50319   8.565   8.379   3.359 -0.6577 -0.0213  0.4250
48503SOL    HW150320   8.483   8.429   3.359 -0.8550 -0.3169 -0.6551
48503SOL    HW250321   8.564   8.330   3.441 -1.4089  0.2207  0.5664
48504SOL     OW50322   1.250  11.751   2.129 -0.7393  0.8121 -0.3955
48504SOL    HW150323   1.331  11.794   2.155 -0.8894 -0.1878  2.0299
48504SOL    HW250324   1.188  11.771   2.199 -1.2709 -1.9287  0.0457
48505SOL     OW50325   5.937   0.470   8.287 -0.0174 -0.1383  0.1765
48505SOL    HW150326   6.026   0.487   8.318  0.3088 -0.1030 -0.7313
48505SOL    HW250327   5.949   0.419   8.207 -0.8575 -0.9647  0.5677
48506SOL     OW50328   5.815   4.911   5.089 -0.2153 -0.6337 -0.2307
48506SOL    HW150329   5.837   4.847   5.157  0.4157  1.1360  1.3349
48506SOL    HW250330   5.894   4.916   5.035 -0.0144 -0.6682  0.0565
48507SOL     OW50331   0.572   0.995  12.275 -0.3192 -0.4369 -0.2277
48507SOL    HW150332   0.585   1.085  12.246  0.2013 -0.9256 -1.5514
48507SOL    HW250333   0.493   0.966  12.230 -0.5614 -0.6134  0.3007
48508SOL     OW50334   5.367   4.221   8.916 -0.2855  0.0121  0.0722
48508SOL    HW150335   5.419   4.143   8.934 -2.3470 -1.5122 -0.2043
48508SOL    HW250336   5.362   4.267   9.000  0.8413 -0.2182  0.2749
48509SOL     OW50337   9.206   6.704  10.934 -0.0591  0.0279  0.2132
48509SOL    HW150338   9.294   6.732  10.960 -0.8638  2.5117  0.5862
48509SOL    HW250339   9.182   6.636  10.997  0.7634  0.9050  1.5065
48510SOL     OW50340   4.069   0.141   6.015 -0.3846  0.1722  0.2711
48510SOL    HW150341   3.982   0.123   5.978  0.2376 -0.4715 -0.9447
48510SOL    HW250342   4.084   0.071   6.077  0.1935 -1.0842 -1.2219
48511SOL     OW50343  10.918   4.419   9.133 -0.4463 -0.7008  0.2391
48511SOL    HW150344  10.886   4.364   9.204 -0.3105  1.4563  2.0656
48511SOL    HW250345  10.843   4.470   9.105  0.0260  0.1369  0.4623
48512SOL     OW50346   6.187   2.028   6.484 -0.3146  0.1184 -0.3006
48512SOL    HW150347   6.121   1.974   6.439 -0.0528 -0.7838  0.3718
48512SOL    HW250348   6.238   2.067   6.413 -1.6907  1.0262 -0.8499
48513SOL     OW50349   7.902   5.700   5.432 -0.4793  0.0814 -0.3476
48513SOL    HW150350   7.858   5.772   5.476 -0.9522 -1.8570  2.6719
48513SOL    HW250351   7.944   5.651   5.503  0.9421 -1.8608 -2.3955
48514SOL     OW50352   1.611   3.514   6.330  0.6038  0.3607  0.8690
48514SOL    HW150353   1.651   3.465   6.401 -0.6078 -0.9917  0.6612
48514SOL    HW250354   1.574   3.447   6.272  0.8411  1.4473 -0.6179
48515SOL     OW50355   2.545   1.356   4.684 -0.8739  0.2174 -0.2119
48515SOL    HW150356   2.503   1.404   4.613 -1.2855  0.4977  0.2146
48515SOL    HW250357   2.638   1.377   4.674 -0.8074 -0.5137 -1.2340
48516SOL     OW50358   2.227   6.646  11.042 -0.0037 -0.5639  0.0533
48516SOL    HW150359   2.179   6.627  11.122 -1.1078  1.6942  0.0057
48516SOL    HW250360   2.192   6.584  10.978 -2.1173  0.2710  0.3167
48517SOL     OW50361   7.225   5.115   1.997 -0.4356 -0.0325 -0.2367
48517SOL    HW150362   7.273   5.053   1.943 -1.0910 -0.4704 -0.3326
48517SOL    HW250363   7.147   5.136   1.945 -0.5987  0.2798  0.1305
48518SOL     OW50364   5.274   4.250   5.893  0.2437  0.3990  0.4011
48518SOL    HW150365   5.233   4.175   5.850 -3.6656  0.8931  2.7392
48518SOL    HW250366   5.345   4.212   5.945  1.8388 -0.8185 -2.4850
48519SOL     OW50367   2.238   2.792   9.980  0.0935 -0.2891  0.2334
48519SOL    HW150368   2.285   2.785  10.063 -0.0297 -1.0589  0.2510
48519SOL    HW250369   2.303   2.825   9.918  0.1276  0.5014  0.6767
48520SOL     OW50370   4.000   9.133   5.816  0.0870 -0.0578 -0.4109
48520SOL    HW150371   4.085   9.109   5.778 -0.3853 -1.6119 -0.5491
48520SOL    HW250372   3.942   9.060   5.794 -1.0154  0.4635  0.6250
48521SOL     OW50373   1.852   6.117  11.012 -0.3123  0.3750  0.6849
48521SOL    HW150374   1.887   6.121  10.923  1.5313  1.0138  1.4029
48521SOL    HW250375   1.842   6.208  11.039 -1.2917  0.1918  0.9833
48522SOL     OW50376  10.912  12.369   5.704 -0.0502  0.2997  1.0101
48522SOL    HW150377  10.925  12.286   5.658  0.6850 -0.2249  2.1101
48522SOL    HW250378  10.906  12.434   5.635 -0.5688 -0.6636  0.1278
48523SOL     OW50379   2.929   2.411  10.319 -0.3167  0.1122  0.4002
48523SOL    HW150380   2.955   2.451  10.402 -0.5118 -1.5516  1.3128
48523SOL    HW250381   2.836   2.431  10.310 -0.7276 -1.1569  1.5062
48524SOL     OW50382   1.043   3.460   5.395 -0.4875  0.4286  0.0634
48524SOL    HW150383   0.953   3.471   5.364 -0.5049 -1.0004 -0.4606
48524SOL    HW250384   1.035   3.454   5.490 -0.8278  1.2142  0.0964
48525SOL     OW50385  12.025  11.334   7.890 -0.2183  0.1949 -0.1119
48525SOL    HW150386  11.981  11.407   7.934 -1.2960 -1.0160  0.8739
48525SOL    HW250387  12.117  11.359   7.890 -0.5330  1.4505  0.4178
48526SOL     OW50388   0.061   2.672   7.959  0.5631 -0.2558 -0.5424
48526SOL    HW150389   0.026   2.588   7.989  0.4936 -0.0817 -0.1355
48526SOL    HW250390   0.131   2.648   7.899  1.4771 -0.6193  0.6349
48527SOL     OW50391  10.932  10.159   5.863  0.1768  0.9345 -0.0974
48527SOL    HW150392  10.967  10.075   5.835 -0.7779  0.8403 -1.0742
48527SOL    HW250393  10.988  10.224   5.822  0.5514  0.7837  0.1715
48528SOL     OW50394   5.703   4.445   1.368  0.0770 -0.0677 -0.0602
48528SOL    HW150395   5.643   4.377   1.399 -1.2154  0.5280 -1.1714
48528SOL    HW250396   5.779   4.439   1.427 -1.7551  0.2923  2.4975
48529SOL     OW50397   5.983   8.017  11.789 -0.4290 -0.3030  0.1967
48529SOL    HW150398   5.952   7.936  11.747 -0.8433 -0.0744  0.0566
48529SOL    HW250399   6.037   7.986  11.862 -2.0582 -0.7515  1.2802
48530SOL     OW50400  10.022   3.968   2.424 -0.6666  0.4648  0.6579
48530SOL    HW150401  10.073   3.887   2.416 -0.4019  0.8043 -2.1079
48530SOL    HW250402   9.942   3.942   2.471 -0.7289 -1.5091 -0.4361
48531SOL     OW50403   6.646  11.420   7.451  0.2462  0.3905 -0.1469
48531SOL    HW150404   6.669  11.508   7.479  0.4648  0.1047  0.6192
48531SOL    HW250405   6.705  11.363   7.501 -0.8536 -0.2597  0.4662
48532SOL     OW50406   1.874   4.422   9.536 -0.7231  0.3132  0.1506
48532SOL    HW150407   1.871   4.466   9.451 -0.7481  0.7482  0.3764
48532SOL    HW250408   1.827   4.480   9.596 -1.2871 -0.3043  0.3270
48533SOL     OW50409   3.898  11.305   2.648 -0.4785  0.3635 -0.0955
48533SOL    HW150410   3.818  11.283   2.601 -1.3208  0.1305  1.3707
48533SOL    HW250411   3.962  11.241   2.619 -1.1086 -0.0635 -0.5624
48534SOL     OW50412   7.777   6.139   6.820 -0.3958  0.2518  0.0393
48534SOL    HW150413   7.737   6.219   6.785 -0.0491  0.3568 -0.1094
48534SOL    HW250414   7.704   6.077   6.826 -0.4444  0.2035 -0.9388
48535SOL     OW50415  10.408   5.262   7.175  0.3707  0.0496  0.3555
48535SOL    HW150416  10.465   5.250   7.252  2.2373  3.2098 -0.3702
48535SOL    HW250417  10.461   5.231   7.101  0.2589  0.8892 -0.0838
48536SOL     OW50418  11.362   9.270   3.992 -0.5991  0.4318  0.1666
48536SOL    HW150419  11.368   9.298   3.901  0.6925  0.4612  0.2316
48536SOL    HW250420  11.269   9.277   4.014 -1.0882 -0.5417 -1.4345
48537SOL     OW50421   6.276   8.315   7.173 -0.4050 -0.2622  0.1228
48537SOL    HW150422   6.213   8.252   7.208 -0.8956  1.0949  1.8147
48537SOL    HW250423   6.316   8.354   7.251 -1.9477  3.3374 -0.7035
48538SOL     OW50424   5.820   1.029   9.383  0.6540 -0.2957  0.1973
48538SOL    HW150425   5.826   1.107   9.438  0.3130  0.3672 -0.6907
48538SOL    HW250426   5.888   0.971   9.418  1.4490  0.7072  0.3768
48539SOL     OW50427   4.443   8.921  12.050 -0.1038  0.3632 -0.4088
48539SOL    HW150428   4.459   9.015  12.037 -0.3673  0.6884  1.3567
48539SOL    HW250429   4.516   8.892  12.104 -0.8214 -0.0906  0.3449
48540SOL     OW50430   8.388  12.324   2.150  0.1012 -0.2339  0.5179
48540SOL    HW150431   8.461  12.374   2.186  0.7954  0.0197 -1.1607
48540SOL    HW250432   8.316  12.386   2.146  0.1972 -0.0975  0.8708
48541SOL     OW50433   1.575   6.830   7.209  0.2141 -0.2197 -0.5369
48541SOL    HW150434   1.524   6.902   7.245  0.3612  0.6948 -2.0802
48541SOL    HW250435   1.510   6.766   7.180  0.0864 -0.8046  0.9429
48542SOL     OW50436   7.289  12.114   0.643 -0.1391 -0.2912  0.2107
48542SOL    HW150437   7.205  12.155   0.666 -0.6240 -1.2639  0.1958
48542SOL    HW250438   7.301  12.135   0.550 -0.0905  0.3143  0.3480
48543SOL     OW50439   4.986   7.967   7.795  0.2844 -0.4300  0.8452
48543SOL    HW150440   5.012   7.911   7.722  0.3029 -0.4239  0.8474
48543SOL    HW250441   5.039   7.937   7.868  0.1527 -0.5425  0.8973
48544SOL     OW50442   8.710   2.213   5.651  0.1733 -0.0124 -0.5699
48544SOL    HW150443   8.686   2.135   5.700  2.3385 -0.8623 -0.7388
48544SOL    HW250444   8.653   2.212   5.574 -0.5058 -0.8630 -0.0670
48545SOL     OW50445  11.685   3.776   4.757 -0.3393 -0.2180  0.2220
48545SOL    HW150446  11.769   3.819   4.742 -0.9690  0.9210 -0.1353
48545SOL    HW250447  11.691   3.743   4.847  0.7106 -0.7014 -0.0092
48546SOL     OW50448   3.658   1.677   4.803  0.0399  0.0226  0.1385
48546SOL    HW150449   3.737   1.705   4.848  0.0832  2.4785 -1.2658
48546SOL    HW250450   3.690   1.618   4.734  0.5392  0.2731  0.1511
48547SOL     OW50451   8.414   4.698   1.215  0.2212  0.1985  0.5328
48547SOL    HW150452   8.328   4.662   1.234 -0.3054  1.2963  0.3461
48547SOL    HW250453   8.441   4.656   1.133  0.3996 -1.0156  1.1986
48548SOL     OW50454   8.865   9.880   3.274  0.1549  0.2770  0.1577
48548SOL    HW150455   8.853   9.881   3.369 -1.7986 -0.7176 -0.0316
48548SOL    HW250456   8.788   9.924   3.239 -0.0877 -0.9823 -1.0146
48549SOL     OW50457   8.778   0.350   0.179  0.2325  0.3421 -0.0047
48549SOL    HW150458   8.873   0.364   0.184  0.2063  3.4213 -3.6864
48549SOL    HW250459   8.741   0.438   0.182 -2.6260 -0.8112  1.7261
48550SOL     OW50460   9.859   6.997   1.714 -0.0803 -0.3143  0.7549
48550SOL    HW150461   9.802   7.028   1.643  0.9910 -1.3776 -0.6338
48550SOL    HW250462   9.905   7.076   1.743 -0.1906  0.0741 -0.0711
48551SOL     OW50463   7.051  11.831  10.777 -0.2380  0.0304 -0.2348
48551SOL    HW150464   6.965  11.838  10.734  0.7447  0.2500 -2.3018
48551SOL    HW250465   7.053  11.905  10.839 -2.0459 -0.8019  0.9039
48552SOL     OW50466   5.198   9.305   1.719  0.0458  0.3737  0.3535
48552SOL    HW150467   5.159   9.275   1.801 -1.7553 -1.3092 -1.0176
48552SOL    HW250468   5.281   9.258   1.712 -0.7014 -0.9677  0.3268
48553SOL     OW50469   4.805   9.767   3.956 -0.0578  0.9698  0.6408
48553SOL    HW150470   4.829   9.805   3.871 -1.2498  2.0301  0.7435
48553SOL    HW250471   4.889   9.755   4.001  0.9726 -2.5022 -1.7599
48554SOL     OW50472   8.269   8.772   6.316 -0.0722 -0.9852 -0.2212
48554SOL    HW150473   8.189   8.772   6.369  0.2666 -0.0120  0.3228
48554SOL    HW250474   8.242   8.809   6.232  0.1335  1.1276  0.5668
48555SOL     OW50475   7.748   4.512   0.751 -0.0326  0.1533  0.3639
48555SOL    HW150476   7.839   4.483   0.747  0.3423  1.0592  1.5183
48555SOL    HW250477   7.697   4.432   0.751  0.8368 -0.4237  0.9843
48556SOL     OW50478   8.227   2.666  10.116  0.0029  0.1231 -0.0388
48556SOL    HW150479   8.198   2.575  10.113 -2.1142  0.7512 -0.1732
48556SOL    HW250480   8.146   2.717  10.108  1.1751  2.0176 -0.3622
48557SOL     OW50481   4.615   5.144   7.556  0.1941 -0.3326 -0.5196
48557SOL    HW150482   4.547   5.186   7.503  0.6543 -0.1401 -0.9754
48557SOL    HW250483   4.687   5.130   7.494  0.3415 -1.0820 -0.1864
48558SOL     OW50484   7.990   6.109   6.531  0.3643  0.6281 -0.4976
48558SOL    HW150485   7.937   6.188   6.516 -1.6659 -0.2599  1.4731
48558SOL    HW250486   7.925   6.039   6.542  1.9666 -0.6131  1.5643
48559SOL     OW50487  12.602   2.189  11.496  0.1392 -0.2713 -0.1418
48559SOL    HW150488  12.561   2.157  11.415  1.1335  0.3195 -0.8907
48559SOL    HW250489  12.679   2.238  11.467  2.0720 -2.2838  1.2413
48560SOL     OW50490   7.846   3.537   7.793  1.2204 -0.5531  0.1936
48560SOL    HW150491   7.884   3.622   7.817  0.8575 -0.8327  1.8403
48560SOL    HW250492   7.909   3.501   7.731  1.8505  0.5233  0.1686
48561SOL     OW50493   2.966   5.843   0.522  0.1358 -0.2922 -0.3028
48561SOL    HW150494   3.029   5.914   0.507  0.1603 -0.2181  0.1503
48561SOL    HW250495   3.013   5.765   0.492  0.5564 -0.2758  0.2924
48562SOL     OW50496   8.757   2.824  10.890 -0.1563  0.5728 -0.2360
48562SOL    HW150497   8.681   2.768  10.874  0.2059 -0.2086  0.6792
48562SOL    HW250498   8.792   2.843  10.803  0.0691 -1.1302 -0.5572
48563SOL     OW50499   9.926   4.822   9.877 -0.3049 -0.4950 -0.5189
48563SOL    HW150500   9.989   4.774   9.823 -0.1945 -0.2786 -0.5813
48563SOL    HW250501   9.933   4.913   9.848  0.7442 -0.1249  0.7716
48564SOL     OW50502   4.683   9.975  10.783 -0.1512  0.3145  0.1782
48564SOL    HW150503   4.685   9.895  10.730  0.1909 -0.3549  1.1696
48564SOL    HW250504   4.610  10.026  10.748  0.7978  0.4486 -1.7077
48565SOL     OW50505   0.764  12.000  10.928  0.1601  0.3509  0.1106
48565SOL    HW150506   0.839  12.049  10.963  0.9191  0.0327 -1.0239
48565SOL    HW250507   0.706  11.989  11.003  1.4080  0.3105  1.1057
48566SOL     OW50508   5.806   8.013   8.758 -0.1443 -0.0332 -0.4874
48566SOL    HW150509   5.900   8.022   8.742 -0.2302 -2.2029 -2.7506
48566SOL    HW250510   5.800   7.987   8.850  1.4846 -0.2076 -0.4018
48567SOL     OW50511   4.473   9.714  11.917 -0.0433 -0.4922  0.2340
48567SOL    HW150512   4.445   9.751  12.001  0.1058  1.2101 -0.4364
48567SOL    HW250513   4.568   9.723  11.917 -0.0157 -0.7740  0.0138
48568SOL     OW50514   8.833   0.328   4.574  0.3471 -0.4363 -0.1544
48568SOL    HW150515   8.777   0.323   4.652  0.8516 -3.1907  0.1448
48568SOL    HW250516   8.921   0.338   4.609  0.5280 -1.2319 -0.3633
48569SOL     OW50517   2.630   7.261  10.520 -0.1866  0.2174  0.1634
48569SOL    HW150518   2.643   7.356  10.521  0.0544  0.1832  0.2995
48569SOL    HW250519   2.538   7.249  10.545 -0.8377  0.5158 -1.8729
48570SOL     OW50520   4.466   4.416   8.140  0.4842  0.2863  0.4450
48570SOL    HW150521   4.474   4.379   8.229  0.9494  0.7451  0.6012
48570SOL    HW250522   4.377   4.396   8.114  0.7676 -1.1052  0.4578
48571SOL     OW50523   7.962   2.600  12.024  0.5293  0.4403 -0.2196
48571SOL    HW150524   7.917   2.567  11.946  0.5205  1.8119 -0.8375
48571SOL    HW250525   8.024   2.665  11.990  0.2884  1.3098  0.9285
48572SOL     OW50526   6.548  12.013   6.722 -0.2527  0.2749 -0.3356
48572SOL    HW150527   6.579  12.052   6.803  1.1316  2.0835 -1.6486
48572SOL    HW250528   6.613  11.946   6.701  0.1300  0.7264 -0.6124
48573SOL     OW50529   0.841   6.925  10.535 -0.0507  0.3140  0.2363
48573SOL    HW150530   0.749   6.946  10.523 -0.4021 -0.5027  1.3738
48573SOL    HW250531   0.847   6.832  10.513  0.3481  0.1748  0.9164
48574SOL     OW50532   9.116   6.928   6.985 -0.3026  0.0256 -0.3267
48574SOL    HW150533   9.045   6.987   7.009  0.5478  0.8049  0.3358
48574SOL    HW250534   9.079   6.872   6.916 -0.7492  2.1887 -1.9302
48575SOL     OW50535   5.382   1.629   9.930  0.2297 -0.3732  0.7692
48575SOL    HW150536   5.419   1.717   9.938 -1.7956  0.5156  0.7580
48575SOL    HW250537   5.318   1.622  10.000 -1.6590 -0.7441 -0.8868
48576SOL     OW50538  10.412   1.238   4.370 -0.5856  0.1074  0.0454
48576SOL    HW150539  10.426   1.316   4.423 -1.5552  0.0695  0.3769
48576SOL    HW250540  10.425   1.165   4.431  0.8314 -0.0222 -0.3817
48577SOL     OW50541  12.441   4.435  12.469  0.2594  0.0351  0.4704
48577SOL    HW150542  12.461   4.523  12.501  0.8208 -0.5318  1.7570
48577SOL    HW250543  12.523   4.385  12.482 -0.2861 -0.8748  0.5098
48578SOL     OW50544   1.469   3.723   0.533  0.3604  0.1029  0.1438
48578SOL    HW150545   1.458   3.724   0.628  0.3181  0.0897  0.1391
48578SOL    HW250546   1.521   3.644   0.515  0.5521  0.2214  0.1753
48579SOL     OW50547   1.058  11.669   8.664  0.5160 -0.4255  0.0156
48579SOL    HW150548   0.997  11.613   8.616  0.6988 -1.9870  1.4703
48579SOL    HW250549   1.126  11.609   8.695  0.9067  0.6576  1.3850
48580SOL     OW50550  12.636   4.414   7.125 -0.3466  0.2795  0.3455
48580SOL    HW150551  12.612   4.413   7.217  1.9090 -1.7851  1.0245
48580SOL    HW250552  12.565   4.366   7.081 -0.4035 -0.5509  1.3293
48581SOL     OW50553   7.295   9.751  10.108 -0.6895  0.7358 -0.1338
48581SOL    HW150554   7.218   9.713  10.066  0.8958 -0.7274 -1.9033
48581SOL    HW250555   7.324   9.819  10.046  0.5174 -0.0509 -0.4506
48582SOL     OW50556   4.457  11.269  12.057 -0.8700  0.2109  0.4945
48582SOL    HW150557   4.506  11.350  12.043  0.2252 -0.5026  0.0435
48582SOL    HW250558   4.378  11.296  12.104 -1.0795  1.6936 -0.6186
48583SOL     OW50559  10.021   3.327  11.645  0.0876  0.1300  0.1362
48583SOL    HW150560  10.061   3.410  11.621 -0.2111  0.8075  1.8156
48583SOL    HW250561   9.967   3.347  11.722 -3.2511 -0.7957 -1.7743
48584SOL     OW50562   5.339   7.225   3.032 -0.0606 -0.5119 -0.4774
48584SOL    HW150563   5.260   7.270   3.063  0.0945 -0.2867 -0.4089
48584SOL    HW250564   5.399   7.296   3.009  0.4410 -0.6877  0.2725
48585SOL     OW50565   9.210   6.500   4.519 -0.1882 -0.2288 -0.4101
48585SOL    HW150566   9.189   6.555   4.594 -1.2252 -2.0112  0.6574
48585SOL    HW250567   9.268   6.432   4.554 -0.1739 -0.7215 -1.3613
48586SOL     OW50568  12.181   9.715   7.613  0.2331  0.4326 -0.1414
48586SOL    HW150569  12.120   9.657   7.566 -1.1227  1.9115 -0.2838
48586SOL    HW250570  12.125   9.762   7.675  1.7255 -0.2373  1.7896
48587SOL     OW50571   7.996   4.979   2.490  0.0252 -0.0123  0.0004
48587SOL    HW150572   8.088   4.951   2.489  0.0330 -0.1178  1.5904
48587SOL    HW250573   7.960   4.941   2.570 -0.4696  2.8576  1.2676
48588SOL     OW50574  12.585  11.396   4.121  0.1611  0.7527  0.6024
48588SOL    HW150575  12.544  11.475   4.085  0.6279  0.9318  0.4503
48588SOL    HW250576  12.645  11.430   4.188  0.4850  0.5379  0.4217
48589SOL     OW50577   5.991   5.894   6.940 -0.1593  0.1109  0.2805
48589SOL    HW150578   6.048   5.880   6.865  0.4166  0.1472  0.7048
48589SOL    HW250579   5.941   5.812   6.947 -0.3616  0.1845 -0.2604
48590SOL     OW50580  11.938   1.120   7.019 -0.1444  0.0399  0.0519
48590SOL    HW150581  11.927   1.062   6.943  0.7676  0.0754 -0.1259
48590SOL    HW250582  11.881   1.194   7.001 -2.3854 -1.3806  0.9183
48591SOL     OW50583   7.674   4.707  11.611  0.0929  0.6264  0.2445
48591SOL    HW150584   7.710   4.790  11.641 -0.7351  1.2153 -0.3448
48591SOL    HW250585   7.748   4.646  11.613  0.8615  1.5402  0.0534
48592SOL     OW50586  10.731   9.143   5.768  0.9940 -0.7825  0.4801
48592SOL    HW150587  10.716   9.186   5.852 -0.5632  1.3538 -0.8122
48592SOL    HW250588  10.822   9.164   5.747  1.5811 -1.7828  1.7958
48593SOL     OW50589  10.175   8.198   9.453  0.2161  0.1608  0.6272
48593SOL    HW150590  10.251   8.177   9.398 -0.3573  1.5056 -0.7488
48593SOL    HW250591  10.117   8.249   9.396 -0.9317  0.6576  2.1616
48594SOL     OW50592   0.060   0.667   0.939  0.5634 -0.1191  0.2834
48594SOL    HW150593   0.054   0.576   0.910  1.0254 -0.2169  0.4795
48594SOL    HW250594   0.137   0.669   0.995 -0.2791  0.0840  1.4573
48595SOL     OW50595   7.424   2.499   8.091 -0.3823  0.4320  0.2486
48595SOL    HW150596   7.384   2.546   8.164  0.3877 -2.1678  2.5273
48595SOL    HW250597   7.356   2.497   8.024 -0.9399  3.3777  0.5717
48596SOL     OW50598   8.539   2.208  10.010 -0.1043 -0.3324 -0.2447
48596SOL    HW150599   8.605   2.186  10.075  0.0191  0.1586 -0.2002
48596SOL    HW250600   8.476   2.137  10.015  0.8132 -1.2163 -0.8265
48597SOL     OW50601   8.029   6.589   2.440 -0.1140 -0.1080 -0.2055
48597SOL    HW150602   8.027   6.496   2.417  1.3907 -0.5423  1.1894
48597SOL    HW250603   7.966   6.598   2.511  0.6572 -0.3594  0.5291
48598SOL     OW50604   6.958  10.153   0.941 -0.1668 -0.1652 -0.3970
48598SOL    HW150605   6.880  10.156   0.996  2.4799  1.3574  3.7586
48598SOL    HW250606   6.976  10.060   0.929 -0.2991 -0.6258  2.4151
48599SOL     OW50607   7.771   6.167   4.638  0.3222 -0.4209  0.2969
48599SOL    HW150608   7.844   6.109   4.661  0.1164 -1.1668 -0.8598
48599SOL    HW250609   7.778   6.179   4.543  0.0071  0.9884  0.4284
48600SOL     OW50610   9.675   4.598  12.379 -0.3820 -0.1025 -0.1286
48600SOL    HW150611   9.622   4.671  12.348  0.1633  0.4642  0.2397
48600SOL    HW250612   9.728   4.573  12.304  1.2124  1.5140  0.3688
48601SOL     OW50613   9.207   0.784  10.947 -0.0971  0.4621 -0.3327
48601SOL    HW150614   9.275   0.810  10.886 -0.4684  2.8100  0.1616
48601SOL    HW250615   9.247   0.716  11.002  0.9879  0.0146 -1.6456
48602SOL     OW50616  12.630   8.256   3.058  0.4985 -0.4257 -0.6717
48602SOL    HW150617  12.660   8.182   3.111 -0.9343  1.3593  3.0089
48602SOL    HW250618  12.705   8.315   3.054  0.3769 -0.1701  0.3151
48603SOL     OW50619   2.128   9.643   5.445 -0.4410  0.2719  0.5370
48603SOL    HW150620   2.056   9.584   5.425 -1.8740  1.5419  1.6092
48603SOL    HW250621   2.120   9.714   5.381  1.1703 -0.5581 -0.6502
48604SOL     OW50622   1.608   1.658   2.758 -0.1690 -0.0868 -0.1763
48604SOL    HW150623   1.548   1.584   2.757 -1.1216  0.6051  1.2929
48604SOL    HW250624   1.672   1.635   2.826 -0.2024  0.2133 -0.0399
48605SOL     OW50625   8.087   5.429   6.671  0.1917 -0.2423 -0.5420
48605SOL    HW150626   8.158   5.483   6.639  0.3088 -0.1140 -0.0741
48605SOL    HW250627   8.104   5.342   6.636 -0.0938  0.0588 -1.4441
48606SOL     OW50628  11.255   3.231  11.451 -0.7478 -0.1700 -0.1091
48606SOL    HW150629  11.254   3.218  11.356  0.4317 -0.0605 -0.1434
48606SOL    HW250630  11.179   3.182  11.482 -0.6305 -0.9485 -1.0125
48607SOL     OW50631   5.825   9.675   2.965 -0.0450  0.1956 -0.2333
48607SOL    HW150632   5.849   9.723   2.885 -0.2915  0.6423 -0.0456
48607SOL    HW250633   5.758   9.730   3.007  0.7374  0.4400  0.7478
48608SOL     OW50634   6.089   8.432   9.123  0.1397 -0.3617  0.1086
48608SOL    HW150635   6.032   8.440   9.199  0.6140 -0.1493  0.4487
48608SOL    HW250636   6.177   8.426   9.160  0.2508 -2.0023 -0.3445
48609SOL     OW50637   9.044   2.809   4.994  0.2124 -0.0945  0.1332
48609SOL    HW150638   9.087   2.765   4.921 -1.2434 -1.9027  0.3200
48609SOL    HW250639   9.111   2.812   5.063  0.4948 -1.6249 -0.0478
48610SOL     OW50640   5.194   4.431   0.745  0.1971  0.6377  0.2526
48610SOL    HW150641   5.145   4.372   0.802  1.0897 -0.9298 -0.5438
48610SOL    HW250642   5.286   4.414   0.765  0.4878  1.9951  0.2084
48611SOL     OW50643   2.673   7.010   7.508 -0.1761 -0.4697 -0.4345
48611SOL    HW150644   2.654   7.018   7.414  0.6627 -0.4755 -0.6078
48611SOL    HW250645   2.687   6.916   7.522  2.3132 -0.2252 -0.8437
48612SOL     OW50646  10.071   2.745   1.752 -1.0792  0.1521  0.2713
48612SOL    HW150647  10.117   2.743   1.837  0.8417  0.0300 -0.7146
48612SOL    HW250648  10.077   2.836   1.724  0.5481 -0.2634 -0.8573
48613SOL     OW50649   6.355   9.249   1.092 -0.1957  0.1025  0.2136
48613SOL    HW150650   6.414   9.199   1.148  1.7489  1.7497 -0.2324
48613SOL    HW250651   6.350   9.198   1.011  0.1192 -0.3531  0.4786
48614SOL     OW50652   6.821  11.707   8.890  0.3122  0.5334 -0.2614
48614SOL    HW150653   6.792  11.634   8.835  0.5034  0.8080 -0.7360
48614SOL    HW250654   6.778  11.692   8.974 -1.4841  1.1207 -1.0295
48615SOL     OW50655   8.941  11.319   5.661 -0.0612  0.1608  0.2988
48615SOL    HW150656   8.974  11.280   5.742  0.4530 -0.8702 -0.3824
48615SOL    HW250657   8.847  11.302   5.662  0.1283 -0.9161  0.1157
48616SOL     OW50658   2.458   3.866   0.283  0.4768  0.2907  0.8041
48616SOL    HW150659   2.521   3.936   0.266  0.0666  1.6099  3.9456
48616SOL    HW250660   2.374   3.901   0.253  0.7074 -0.1534 -0.4162
48617SOL     OW50661   9.868   1.624   7.461 -0.2346  0.2814  0.1191
48617SOL    HW150662   9.891   1.578   7.542  0.6295  1.7973  0.7862
48617SOL    HW250663   9.910   1.573   7.392 -0.8773 -0.9621  0.6116
48618SOL     OW50664  12.006   2.586  12.257 -0.0943  0.1515 -0.6599
48618SOL    HW150665  12.009   2.681  12.248 -1.6688  0.3016 -0.0609
48618SOL    HW250666  11.933   2.571  12.318 -0.2156 -1.4553 -1.1571
48619SOL     OW50667  11.017   3.518   6.178 -0.0156  0.1831  0.4191
48619SOL    HW150668  11.040   3.596   6.229  1.3129 -0.5336  0.9872
48619SOL    HW250669  11.096   3.463   6.183 -0.8901 -1.1576 -0.0318
48620SOL     OW50670   0.360   4.035   4.980  0.7854  0.2249 -0.6075
48620SOL    HW150671   0.273   4.000   4.960  0.8356  0.4074 -1.1495
48620SOL    HW250672   0.354   4.060   5.072  0.0564  0.8229 -0.8019
48621SOL     OW50673  12.251   5.569  12.299 -0.1057 -0.5449 -0.2733
48621SOL    HW150674  12.346   5.568  12.314  0.0058 -1.5036 -0.9518
48621SOL    HW250675  12.221   5.651  12.339  0.9997 -0.2521 -0.0154
48622SOL     OW50676  11.606  10.254   5.868 -0.0825  0.3093 -0.5722
48622SOL    HW150677  11.699  10.241   5.851 -0.2026 -1.3048 -0.2243
48622SOL    HW250678  11.595  10.349   5.872  1.4186  0.5424 -1.2570
48623SOL     OW50679   2.286   7.304  10.226  0.2696  0.2072  0.5272
48623SOL    HW150680   2.336   7.385  10.214 -2.5992  1.8465 -1.4610
48623SOL    HW250681   2.235   7.320  10.306  0.7133 -0.2527  0.9111
48624SOL     OW50682   2.735   0.811   0.818 -0.2981  0.2864 -0.2199
48624SOL    HW150683   2.690   0.745   0.765  1.5243 -1.1509 -0.0419
48624SOL    HW250684   2.668   0.879   0.832 -2.0374 -1.1823 -0.9412
48625SOL     OW50685  11.118   5.243  10.570 -0.1995 -0.3694  0.3832
48625SOL    HW150686  11.147   5.153  10.555  1.0453 -0.0440  0.7372
48625SOL    HW250687  11.024   5.241  10.554  0.1228 -1.2876 -1.7616
48626SOL     OW50688   3.305  12.365   2.983  0.0840  0.3680  0.1057
48626SOL    HW150689   3.211  12.376   2.996 -0.1548 -0.0015 -1.1490
48626SOL    HW250690   3.333  12.310   3.055 -0.6905  0.3573  0.4066
48627SOL     OW50691   1.063  10.218   6.713 -0.1790 -0.2198  0.5668
48627SOL    HW150692   1.084  10.229   6.620  0.8780  0.3585  0.8570
48627SOL    HW250693   0.990  10.156   6.714  1.5108 -2.3657 -0.5230
48628SOL     OW50694   8.024   0.381   1.484 -0.1141  1.0019  0.0812
48628SOL    HW150695   8.079   0.391   1.562 -0.6296 -0.4322  0.6650
48628SOL    HW250696   7.955   0.320   1.511  0.1518 -0.1648 -1.7083
48629SOL     OW50697  10.130  12.023   2.675  0.2112 -0.1412 -0.4579
48629SOL    HW150698  10.035  12.021   2.667  0.0074 -1.2855  1.5656
48629SOL    HW250699  10.153  11.936   2.707  2.2085 -0.6501 -2.9175
48630SOL     OW50700   2.907  11.900   0.885  1.1309 -0.0711 -0.2419
48630SOL    HW150701   2.938  11.809   0.883  0.9332 -0.1408 -0.1146
48630SOL    HW250702   2.841  11.902   0.954  0.2765 -0.1106 -1.0288
48631SOL     OW50703   3.958   4.602   7.034  0.1148  0.0209 -0.5073
48631SOL    HW150704   3.946   4.558   6.949 -1.0414  0.0480 -0.3766
48631SOL    HW250705   3.955   4.531   7.098 -0.1214  0.1151 -0.4136
48632SOL     OW50706   6.270  10.615   1.575  0.0038 -0.0394 -0.1306
48632SOL    HW150707   6.354  10.593   1.534 -1.6948 -4.1360 -1.9189
48632SOL    HW250708   6.239  10.691   1.526  1.7324  0.3039 -0.7676
48633SOL     OW50709  12.387   3.357   3.699  0.3720  0.2533 -0.2958
48633SOL    HW150710  12.442   3.360   3.621  0.5621 -1.4414 -0.2769
48633SOL    HW250711  12.428   3.291   3.754 -1.7388 -1.2452 -0.3630
48634SOL     OW50712   5.005   7.567  11.135 -0.1748 -0.1021  0.0629
48634SOL    HW150713   5.062   7.538  11.064  0.7219  1.0774  0.2578
48634SOL    HW250714   5.021   7.662  11.141  0.3126 -0.2653  2.2658
48635SOL     OW50715  10.985   5.115  10.889 -0.6754  0.0566  0.2234
48635SOL    HW150716  10.902   5.128  10.936  0.0502 -2.6080  2.5138
48635SOL    HW250717  11.002   5.021  10.895  2.3596  0.4560 -0.4383
48636SOL     OW50718   2.426  10.385   4.354 -0.4839 -0.0445  0.2161
48636SOL    HW150719   2.500  10.422   4.403 -1.0979  1.9664 -0.2880
48636SOL    HW250720   2.465  10.348   4.275 -0.0629  1.5037 -0.3132
48637SOL     OW50721   6.238   4.012   5.657 -0.5847 -0.1135 -0.0247
48637SOL    HW150722   6.203   4.093   5.694 -0.6623  0.2824 -0.9365
48637SOL    HW250723   6.333   4.027   5.651 -0.5067 -0.3794  0.4926
48638SOL     OW50724  10.273   2.215   8.662 -0.1639 -0.7049  0.2063
48638SOL    HW150725  10.216   2.277   8.708  0.7248  1.1895 -1.0785
48638SOL    HW250726  10.217   2.175   8.596 -0.1611  0.9293 -0.8540
48639SOL     OW50727   0.121   0.025   5.560  0.5881  0.2231 -0.2974
48639SOL    HW150728   0.212   0.022   5.588  0.8769 -2.1539 -1.3099
48639SOL    HW250729   0.092   0.113   5.584  2.3860  0.2166  2.3244
48640SOL     OW50730   6.056   7.689   2.745  0.2077 -0.7060  0.2097
48640SOL    HW150731   6.111   7.765   2.766 -1.5716  0.8141 -0.3526
48640SOL    HW250732   6.087   7.659   2.660  0.3725 -0.0593  0.0370
48641SOL     OW50733   7.741   3.090  11.604  0.2388 -0.5270 -0.5085
48641SOL    HW150734   7.760   3.118  11.693 -0.8198  0.3477 -0.5400
48641SOL    HW250735   7.780   3.003  11.598 -0.4591 -0.9901  1.1037
48642SOL     OW50736   7.488   0.400  11.702 -0.3121  0.5300  0.0478
48642SOL    HW150737   7.582   0.390  11.716 -0.4994  0.6231  1.5473
48642SOL    HW250738   7.469   0.346  11.625  0.7301 -0.6361  0.5807
48643SOL     OW50739   1.406   8.650   4.821 -0.1477 -0.5517 -0.1863
48643SOL    HW150740   1.411   8.561   4.855 -0.5868 -0.3773  0.3449
48643SOL    HW250741   1.435   8.706   4.893  0.5398 -0.2930 -0.6616
48644SOL     OW50742   2.055   6.601   7.656  0.1907 -0.5434 -0.5321
48644SOL    HW150743   2.013   6.679   7.620 -2.2177 -2.3168 -1.8844
48644SOL    HW250744   2.031   6.602   7.749 -1.2864 -0.4878 -0.8888
48645SOL     OW50745   8.934  11.811   6.395 -0.0695 -0.2346 -0.1252
48645SOL    HW150746   8.935  11.905   6.413 -2.7576 -0.0616 -0.4601
48645SOL    HW250747   8.935  11.805   6.300 -0.2784 -0.5416 -0.1081
48646SOL     OW50748   8.583   6.934   1.839  0.2025  0.2078 -0.1697
48646SOL    HW150749   8.551   7.024   1.842 -0.2555  0.1078 -1.4122
48646SOL    HW250750   8.527   6.891   1.774  0.9053 -0.7734 -0.1477
48647SOL     OW50751   7.548   8.588   7.702 -0.3322  0.0747 -0.4668
48647SOL    HW150752   7.460   8.618   7.678 -1.3091 -2.6840 -0.6734
48647SOL    HW250753   7.536   8.543   7.786  1.1492  0.6291  0.0899
48648SOL     OW50754   2.584   6.936   5.102  0.3617  0.3918 -0.2399
48648SOL    HW150755   2.632   6.868   5.150 -0.5258 -0.1101 -0.0489
48648SOL    HW250756   2.551   6.890   5.024  1.3933  1.0824 -1.1169
48649SOL     OW50757  10.000   9.940  11.969 -0.5806 -0.4220 -0.4327
48649SOL    HW150758   9.904   9.936  11.978 -0.8305  3.1343 -0.1946
48649SOL    HW250759  10.014   9.999  11.895  1.4557 -0.1470  0.1356
48650SOL     OW50760   5.084  10.254   9.779 -0.2869  0.0871  0.1774
48650SOL    HW150761   5.160  10.209   9.817 -0.0371 -2.4225 -2.8699
48650SOL    HW250762   5.029  10.183   9.746 -1.4545  1.9427 -2.1626
48651SOL     OW50763   6.480   5.396   0.764 -0.1274  0.7062  0.4366
48651SOL    HW150764   6.470   5.446   0.844 -0.6809  0.8572  0.2746
48651SOL    HW250765   6.472   5.461   0.694  0.2941  0.5676  0.2562
48652SOL     OW50766   7.403   0.846   4.208 -0.6512  0.4656 -0.1809
48652SOL    HW150767   7.343   0.806   4.271 -0.3775 -0.4226 -0.4718
48652SOL    HW250768   7.446   0.772   4.164  1.1061  1.0624  0.4333
48653SOL     OW50769  12.364   0.806   3.787 -0.1529 -0.2874  0.3558
48653SOL    HW150770  12.291   0.746   3.768  1.0269 -1.8210  0.4795
48653SOL    HW250771  12.390   0.840   3.701 -0.6085 -0.2201  0.2416
48654SOL     OW50772  10.033  12.384   1.428  0.4864 -0.2487 -0.4732
48654SOL    HW150773   9.981  12.304   1.423  1.4450 -0.9973  0.8388
48654SOL    HW250774   9.974  12.453   1.398 -1.6057 -0.9019  1.7773
48655SOL     OW50775   4.610   3.839  10.946  0.4294 -0.7096 -0.7261
48655SOL    HW150776   4.550   3.782  10.898  0.3628  0.5228 -2.2116
48655SOL    HW250777   4.610   3.805  11.035 -2.0270 -1.1186 -0.7956
48656SOL     OW50778   7.320   5.004   6.906 -0.3360 -0.2503 -0.2302
48656SOL    HW150779   7.292   4.991   6.815 -1.4518 -0.4018  0.1265
48656SOL    HW250780   7.295   5.094   6.926 -2.9602 -1.1408  0.8875
48657SOL     OW50781   4.732   5.455   1.662 -0.3820  0.1333 -0.3172
48657SOL    HW150782   4.657   5.408   1.697  0.2557  0.0067  0.9366
48657SOL    HW250783   4.800   5.388   1.654  0.1080  0.5691  0.1607
48658SOL     OW50784   8.770  12.293   5.438 -0.2414 -0.2506  0.1162
48658SOL    HW150785   8.716  12.279   5.516 -1.2875 -1.0210 -0.7140
48658SOL    HW250786   8.806  12.206   5.418 -1.4891 -0.4727 -1.3134
48659SOL     OW50787   1.793   9.335   6.432  0.3300  0.5140 -0.4822
48659SOL    HW150788   1.723   9.296   6.485 -0.2871  0.8461 -1.0349
48659SOL    HW250789   1.836   9.260   6.391  1.1439  0.2108  0.8537
48660SOL     OW50790   4.966   3.393   2.775  0.3095  0.4259 -0.8160
48660SOL    HW150791   5.006   3.306   2.777 -0.3219  0.1204 -1.1223
48660SOL    HW250792   5.008   3.437   2.702  0.4426  0.2812 -0.8271
48661SOL     OW50793   9.453   4.444   1.704  0.0835  0.0084  0.5660
48661SOL    HW150794   9.504   4.442   1.623  0.1021 -3.0620  0.5518
48661SOL    HW250795   9.511   4.486   1.768 -0.4131  3.7115 -1.1546
48662SOL     OW50796   0.389   7.288   7.049  0.5186  0.4132 -0.1127
48662SOL    HW150797   0.370   7.277   6.956  1.0381 -0.4175 -0.1318
48662SOL    HW250798   0.483   7.274   7.056  0.3521 -0.4441  0.6542
48663SOL     OW50799   6.249  11.441   7.959  0.4521  0.1995  0.2682
48663SOL    HW150800   6.263  11.361   7.909 -0.6394 -1.4432  2.4359
48663SOL    HW250801   6.282  11.421   8.047 -0.1680  2.0077  0.9744
48664SOL     OW50802   4.207  12.236   5.680  0.8277  0.1420  0.1663
48664SOL    HW150803   4.169  12.149   5.693  0.0999  0.2538 -1.0301
48664SOL    HW250804   4.251  12.231   5.596  1.3604  0.7401  0.4032
48665SOL     OW50805   1.079   2.095   5.904  0.0220 -0.4179  0.1425
48665SOL    HW150806   1.144   2.028   5.923  0.3279  0.5729  3.0359
48665SOL    HW250807   1.107   2.171   5.955 -2.8976  0.3391  0.7924
48666SOL     OW50808   0.505   1.985  11.271 -0.0880 -0.3994 -0.5753
48666SOL    HW150809   0.528   1.892  11.269  1.1754 -0.1145 -2.6129
48666SOL    HW250810   0.560   2.022  11.340  0.3100 -0.9709 -0.5768
48667SOL     OW50811   0.352   2.469  11.619 -0.2973  0.0192 -0.2815
48667SOL    HW150812   0.319   2.425  11.541 -0.8102  0.0765 -0.0985
48667SOL    HW250813   0.373   2.399  11.680  1.0424 -0.0888 -0.8151
48668SOL     OW50814  10.707   5.263   5.388 -0.3282 -0.0542 -0.2223
48668SOL    HW150815  10.625   5.279   5.341 -0.0499 -0.3211 -0.8140
48668SOL    HW250816  10.759   5.343   5.374 -0.4356  0.0576  0.0313
48669SOL     OW50817   4.835   2.709   5.573 -0.2879  0.0896  0.7721
48669SOL    HW150818   4.804   2.665   5.494  0.7818 -0.5337  0.6773
48669SOL    HW250819   4.810   2.650   5.645  1.3809 -0.8723  0.6236
48670SOL     OW50820  11.429  11.222  11.878  0.0635  0.2781 -0.5181
48670SOL    HW150821  11.474  11.304  11.856  0.3327  0.6672  1.3531
48670SOL    HW250822  11.354  11.219  11.818 -0.1164  2.0507 -0.4416
48671SOL     OW50823  11.627   8.645  12.220  0.2962 -0.0500 -0.2895
48671SOL    HW150824  11.553   8.585  12.224  1.5062 -1.6915 -1.3138
48671SOL    HW250825  11.677   8.617  12.144  1.3711  1.7586 -0.3151
48672SOL     OW50826   6.437   5.446   4.681 -0.3674 -0.1534  0.2941
48672SOL    HW150827   6.411   5.401   4.600 -2.1832 -0.0799  0.8002
48672SOL    HW250828   6.385   5.526   4.681  1.1282  0.8383  0.5531
48673SOL     OW50829   3.640   7.921   5.812 -0.2405  0.5995  0.3444
48673SOL    HW150830   3.696   7.855   5.770 -0.2677  0.6509  0.2253
48673SOL    HW250831   3.564   7.872   5.843 -0.4455  0.6332 -0.0880
48674SOL     OW50832   0.337   9.969   8.813  0.0443 -0.0535  1.0923
48674SOL    HW150833   0.369  10.052   8.776  0.0808 -0.9179 -0.9443
48674SOL    HW250834   0.247   9.961   8.780 -0.3429 -0.3293  2.1688
48675SOL     OW50835   2.380   5.696   0.786  0.0337  0.2539  0.4791
48675SOL    HW150836   2.365   5.602   0.802 -1.6469  0.4433  0.2256
48675SOL    HW250837   2.377   5.705   0.691  0.5459  0.5272  0.4844
48676SOL     OW50838   3.127   4.201  10.670  0.8903 -0.2175  0.5701
48676SOL    HW150839   3.045   4.175  10.710  0.7193 -0.2223  0.2176
48676SOL    HW250840   3.122   4.169  10.580  1.6142 -0.9349  0.7650
48677SOL     OW50841   3.609   6.825   3.717 -0.4793 -0.5410  0.4655
48677SOL    HW150842   3.587   6.752   3.659 -1.1293  0.1646 -0.2015
48677SOL    HW250843   3.702   6.840   3.703 -0.8071  0.2257 -1.1471
48678SOL     OW50844  11.859   5.603   9.741  0.0250 -0.3653 -0.0038
48678SOL    HW150845  11.865   5.668   9.811  1.2859  0.5660 -0.9312
48678SOL    HW250846  11.881   5.520   9.783 -2.8416 -0.4919  1.4875
48679SOL     OW50847   9.974   4.052  11.564  0.7924  0.7717 -0.0344
48679SOL    HW150848   9.883   4.036  11.539  0.8243  0.1579  0.2155
48679SOL    HW250849   9.972   4.137  11.610  0.4329  0.9957 -0.4620
48680SOL     OW50850   4.288   4.638   4.724  0.5654  0.2999  0.5535
48680SOL    HW150851   4.364   4.695   4.717  0.2661  0.6205 -0.1701
48680SOL    HW250852   4.289   4.586   4.643  0.1400  0.1575  0.6345
48681SOL     OW50853   8.954   0.460   2.029  0.4009 -0.2011 -0.1272
48681SOL    HW150854   9.017   0.498   1.968 -0.2172  1.5394  0.2591
48681SOL    HW250855   8.915   0.387   1.980 -0.0263  1.0870 -1.8376
48682SOL     OW50856  12.616   8.378  12.542  0.0581  0.0807  0.3139
48682SOL    HW150857  12.577   8.411  12.461  1.2549  0.2529 -0.2114
48682SOL    HW250858  12.620   8.283  12.530  1.3114  0.1950 -0.3540
48683SOL     OW50859   9.699   3.725  10.514  0.2516  0.0247 -0.2124
48683SOL    HW150860   9.787   3.761  10.515  0.3895 -0.2819  0.7417
48683SOL    HW250861   9.643   3.796  10.485  0.6272  0.7446  0.7632
48684SOL     OW50862   9.151   1.916   5.760 -0.2072  0.1260  1.0626
48684SOL    HW150863   9.106   1.952   5.684  0.6757 -1.6090 -0.3869
48684SOL    HW250864   9.160   1.823   5.740  2.6732  0.1146  1.8920
48685SOL     OW50865  11.118   0.627  11.573  0.3202 -0.2155  0.0292
48685SOL    HW150866  11.196   0.614  11.627  0.6042  1.3769  0.0492
48685SOL    HW250867  11.055   0.563  11.607  0.9707 -0.2056  1.3251
48686SOL     OW50868   1.466   9.766   8.019  0.2305  0.1116 -0.0784
48686SOL    HW150869   1.384   9.812   8.039  0.1486  1.0298 -2.2335
48686SOL    HW250870   1.515   9.828   7.965  0.8173 -1.7088 -1.7330
48687SOL     OW50871   8.101   9.867   2.823  0.0525  0.3010 -0.0507
48687SOL    HW150872   8.012   9.865   2.786  0.4649 -0.6716 -1.0528
48687SOL    HW250873   8.109   9.955   2.859 -1.4837  0.2535  0.4912
48688SOL     OW50874   7.497  12.500   9.007  0.4348 -0.1551 -0.2445
48688SOL    HW150875   7.507  12.595   9.017  0.0985 -0.1858  0.3877
48688SOL    HW250876   7.417  12.489   8.956  0.4676 -0.1050 -0.3072
48689SOL     OW50877   8.662   0.837   6.054 -0.7681 -0.3326 -0.3958
48689SOL    HW150878   8.751   0.802   6.054 -1.4007 -2.0486  0.9082
48689SOL    HW250879   8.667   0.915   6.109 -0.4882 -1.6839  1.5774
48690SOL     OW50880   8.085   1.959  12.647 -0.0183 -0.5463 -0.3863
48690SOL    HW150881   8.116   2.049  12.638  1.5054 -0.8397  1.4448
48690SOL    HW250882   8.157   1.905  12.614 -0.3429 -1.1283 -0.1570
48691SOL     OW50883   7.984   3.116  11.089  0.2956  0.0056 -0.0082
48691SOL    HW150884   8.036   3.196  11.103 -1.5100  1.5969 -1.6772
48691SOL    HW250885   8.049   3.048  11.073  1.9127  1.2533  0.9159
48692SOL     OW50886   4.242   3.850   6.383  0.7908  0.3230  0.2040
48692SOL    HW150887   4.258   3.868   6.291 -1.8522  1.6453 -0.0766
48692SOL    HW250888   4.215   3.759   6.386 -0.3223  0.6119 -0.5426
48693SOL     OW50889   9.774   1.466  10.498  0.1145 -0.2968 -0.0745
48693SOL    HW150890   9.789   1.385  10.448 -1.5263 -0.6843 -0.0059
48693SOL    HW250891   9.680   1.466  10.515  0.1330  1.4770  0.2168
48694SOL     OW50892  12.450   1.605   4.423 -0.1634  0.3317 -0.5848
48694SOL    HW150893  12.508   1.533   4.449 -1.5873 -0.2606  1.1396
48694SOL    HW250894  12.435   1.591   4.329  0.8467 -0.6663 -0.6232
48695SOL     OW50895   6.914  11.402   4.180  0.3201  0.4016  1.0126
48695SOL    HW150896   6.863  11.393   4.260 -1.5117  2.5991  0.1992
48695SOL    HW250897   6.850  11.391   4.109  1.4198  0.9756 -0.1040
48696SOL     OW50898   5.125   3.942   3.837 -0.4124  0.2061 -0.3129
48696SOL    HW150899   5.152   4.019   3.888 -1.8335  0.3360  0.2793
48696SOL    HW250900   5.160   3.868   3.886  0.2990  0.4313 -0.4675
48697SOL     OW50901  12.502   0.226   5.258 -1.0021  0.4855 -0.0705
48697SOL    HW150902  12.545   0.275   5.328 -0.2488  0.7208 -0.6918
48697SOL    HW250903  12.435   0.174   5.303  1.1464 -1.3409  1.2024
48698SOL     OW50904  12.164   0.214   0.436  0.2381  0.2665  0.2917
48698SOL    HW150905  12.168   0.161   0.356 -3.1166  2.0153 -1.2369
48698SOL    HW250906  12.112   0.161   0.497  2.6153 -0.9720  1.3941
48699SOL     OW50907  10.662   4.172   9.042  0.6460  0.3475 -0.0703
48699SOL    HW150908  10.612   4.094   9.019 -0.8161  0.2975  2.8890
48699SOL    HW250909  10.752   4.150   9.018 -0.0285 -1.4223 -1.1585
48700SOL     OW50910   7.889   8.605   3.285 -0.4190  0.5825  0.4845
48700SOL    HW150911   7.833   8.586   3.210 -1.9226  1.5089  1.3104
48700SOL    HW250912   7.968   8.645   3.248 -0.8425  0.4002 -0.6314
48701SOL     OW50913   1.385   5.901   0.122 -0.1153  0.3731 -0.4800
48701SOL    HW150914   1.312   5.871   0.068 -1.3567  0.3063  1.1606
48701SOL    HW250915   1.405   5.827   0.179  0.5942  0.7360 -0.2391
48702SOL     OW50916   3.440   4.355  12.193 -0.0839 -0.0283  0.4166
48702SOL    HW150917   3.351   4.356  12.159 -0.0362  1.4921  0.2565
48702SOL    HW250918   3.429   4.369  12.287 -0.0087  0.6923  0.3254
48703SOL     OW50919   3.553   7.255   2.149  0.0676  0.0324  0.2159
48703SOL    HW150920   3.461   7.256   2.124 -0.9294 -1.3064  3.3143
48703SOL    HW250921   3.591   7.184   2.097 -1.1548 -0.6927  0.2712
48704SOL     OW50922   2.898   6.274   0.747 -0.1917 -0.4616  0.0326
48704SOL    HW150923   2.886   6.330   0.823 -1.6159  0.2057 -0.6423
48704SOL    HW250924   2.832   6.205   0.756 -2.3017  1.1240 -1.8526
48705SOL     OW50925   8.980   2.276   0.190  0.4041 -0.1894 -0.0197
48705SOL    HW150926   9.065   2.233   0.201  1.1017  0.8126 -1.2080
48705SOL    HW250927   8.937   2.226   0.121  0.6074  0.0968 -0.3629
48706SOL     OW50928   0.555   0.470   1.161  0.0650 -0.2704  0.0651
48706SOL    HW150929   0.613   0.535   1.121 -0.0878  1.1071  1.9880
48706SOL    HW250930   0.608   0.391   1.165  1.3698  0.5876  0.5518
48707SOL     OW50931  12.485   9.669   0.358  0.0117 -0.6367  0.0257
48707SOL    HW150932  12.452   9.756   0.381  0.6213 -0.1010 -1.0334
48707SOL    HW250933  12.422   9.637   0.293 -1.0220 -1.6242  1.4505
48708SOL     OW50934   7.954   9.733   0.709 -0.3392  0.1212  0.2080
48708SOL    HW150935   7.891   9.762   0.643 -0.6231  0.5016  0.6414
48708SOL    HW250936   7.902   9.686   0.774  0.1026 -1.3208 -0.4350
48709SOL     OW50937   0.468   3.841   1.322 -0.8409  0.3333  0.3925
48709SOL    HW150938   0.499   3.897   1.251  0.1074  1.2213  1.4749
48709SOL    HW250939   0.454   3.756   1.281 -0.4803  0.8710 -0.8874
48710SOL     OW50940  10.146   2.734   0.726 -0.3565  0.7549  0.3523
48710SOL    HW150941  10.116   2.645   0.744  1.2765 -0.6102 -2.8661
48710SOL    HW250942  10.081   2.769   0.664  0.2412  0.9217 -0.1845
48711SOL     OW50943   7.674  12.629   4.000  0.5301 -0.1105  0.2360
48711SOL    HW150944   7.716  12.554   4.043  0.8212 -0.3052 -0.3697
48711SOL    HW250945   7.595  12.645   4.051  0.5374 -0.7423  0.4538
48712SOL     OW50946   1.979   0.214   1.975 -0.4713  0.2653  0.3541
48712SOL    HW150947   2.049   0.150   1.964  0.5782  1.5055 -0.6056
48712SOL    HW250948   1.899   0.167   1.953  0.0000 -1.2705  1.7755
48713SOL     OW50949   9.424   5.107   9.636  0.5608  0.2634 -0.5857
48713SOL    HW150950   9.352   5.152   9.681  0.8924  0.8177 -0.6081
48713SOL    HW250951   9.502   5.159   9.657  0.9747 -0.3905 -0.4774
48714SOL     OW50952   2.892  10.421   0.860  0.6035 -0.2260  0.7433
48714SOL    HW150953   2.947  10.434   0.937  1.2368  0.0755  0.2551
48714SOL    HW250954   2.952  10.431   0.786  0.4106 -2.3608  0.2307
48715SOL     OW50955   9.151   5.181   3.004  0.3655 -0.1245 -0.1522
48715SOL    HW150956   9.137   5.224   3.088  0.1390 -0.3116 -0.0943
48715SOL    HW250957   9.132   5.249   2.939 -1.3197 -0.5100 -0.0902
48716SOL     OW50958   1.938   4.585   6.970 -0.1058  0.4697 -0.2013
48716SOL    HW150959   2.032   4.598   6.961 -0.4752  3.0953 -0.9140
48716SOL    HW250960   1.920   4.508   6.915  1.6173 -0.2586  0.1673
48717SOL     OW50961   8.576  11.315   0.525 -0.2823  0.0503  0.1516
48717SOL    HW150962   8.511  11.249   0.504 -0.3832 -0.5602  2.1925
48717SOL    HW250963   8.660  11.269   0.519 -0.3001 -0.0847  0.8649
48718SOL     OW50964  12.310   7.766   5.664  0.0255  0.1043  0.0855
48718SOL    HW150965  12.380   7.815   5.707 -1.5520  2.4794  0.0832
48718SOL    HW250966  12.297   7.689   5.720  0.5898  1.1738  1.7499
48719SOL     OW50967   3.126   8.373   9.677 -0.0355  0.4325 -0.1944
48719SOL    HW150968   3.120   8.393   9.771  0.6796 -0.8862  0.1540
48719SOL    HW250969   3.170   8.449   9.639  0.2663  0.6845  0.6381
48720SOL     OW50970   9.550   3.834   7.752 -0.0233  0.1979  0.8433
48720SOL    HW150971   9.455   3.834   7.746  0.0698  0.6418 -1.5832
48720SOL    HW250972   9.573   3.741   7.764 -0.7327  0.0885  1.4259
48721SOL     OW50973   2.114   4.763  12.534 -0.3788  0.5489 -0.0199
48721SOL    HW150974   2.173   4.688  12.529 -1.7288 -0.9417  3.5888
48721SOL    HW250975   2.152   4.827  12.473  5.3614  0.0440  2.3621
48722SOL     OW50976  11.277   9.304   7.511  0.2851  0.7549 -0.3087
48722SOL    HW150977  11.327   9.292   7.430 -1.7328  0.1548 -1.5345
48722SOL    HW250978  11.186   9.313   7.482 -0.6493 -0.5198  1.9490
48723SOL     OW50979   9.521  11.123  11.318 -0.0033  0.4210  0.1853
48723SOL    HW150980   9.454  11.055  11.310  0.5824 -0.3501  1.4939
48723SOL    HW250981   9.587  11.099  11.253 -0.2911  0.3498 -0.0852
48724SOL     OW50982  11.525   2.480  11.491  0.1875 -0.4203  0.1809
48724SOL    HW150983  11.480   2.537  11.429  1.0364  0.6374  0.5181
48724SOL    HW250984  11.507   2.519  11.577  3.7095  1.5609  0.1997
48725SOL     OW50985  11.974   3.255   2.959  0.0031  0.4923 -0.0756
48725SOL    HW150986  11.994   3.266   3.052 -0.3231 -0.4175  0.1146
48725SOL    HW250987  11.880   3.271   2.953  0.4871  3.9929 -0.8426
48726SOL     OW50988  10.932  10.835   2.061  0.4163  0.1054 -0.4443
48726SOL    HW150989  10.866  10.853   1.994 -0.4742 -0.0484  0.3656
48726SOL    HW250990  10.908  10.748   2.094  1.3990 -0.2206 -0.5513
48727SOL     OW50991   2.272   9.406   2.027  0.2267  0.1963  0.1052
48727SOL    HW150992   2.361   9.419   2.060  0.1384 -0.7254  0.7199
48727SOL    HW250993   2.279   9.334   1.964  0.1493  1.0505 -0.9214
48728SOL     OW50994  10.260   6.895  11.257 -0.1258  0.0211  0.0518
48728SOL    HW150995  10.202   6.915  11.330 -0.6483 -1.1507 -0.0295
48728SOL    HW250996  10.332   6.959  11.266 -0.6914  0.5537  0.9780
48729SOL     OW50997  12.194   0.439   1.200 -0.2388 -0.8626 -0.0590
48729SOL    HW150998  12.121   0.483   1.245 -1.9234 -2.6910 -0.8651
48729SOL    HW250999  12.184   0.464   1.108  0.8090 -0.2930 -0.0291
48730SOL     OW51000   0.435   8.881   5.170  0.0136 -0.2889  0.1754
48730SOL    HW151001   0.416   8.790   5.195 -1.0931  0.0375  0.5757
48730SOL    HW251002   0.372   8.900   5.101 -2.6010  1.4290  2.8115
48731SOL     OW51003   6.422   3.017  11.468 -0.0173 -0.0956 -0.2344
48731SOL    HW151004   6.416   3.039  11.375 -1.6320 -1.1979 -0.4448
48731SOL    HW251005   6.434   2.922  11.469 -0.4434 -0.1509  0.6744
48732SOL     OW51006   9.859   4.645  11.530 -0.4207  0.1405  0.1880
48732SOL    HW151007   9.928   4.627  11.594 -0.2415  0.1334 -0.0071
48732SOL    HW251008   9.902   4.699  11.463 -0.6664  0.3494  0.1946
48733SOL     OW51009   9.706   5.909   4.696 -0.5164  0.2604 -0.0237
48733SOL    HW151010   9.673   5.893   4.785  1.3944 -0.3565  0.6119
48733SOL    HW251011   9.690   5.827   4.649 -0.1530  0.0522  0.2091
48734SOL     OW51012   6.428   7.722   2.282  0.3579 -0.1356 -0.8529
48734SOL    HW151013   6.391   7.638   2.256  1.6141 -1.2632  0.7835
48734SOL    HW251014   6.452   7.711   2.374  2.9864  1.1034 -1.2787
48735SOL     OW51015  11.628   8.903   2.301 -0.2341  0.4326 -0.2753
48735SOL    HW151016  11.672   8.919   2.217  3.5544  1.6670  1.6906
48735SOL    HW251017  11.585   8.985   2.322  1.4798  1.2146  0.3312
48736SOL     OW51018   1.690   0.256   2.842 -0.2572 -0.1282 -0.1810
48736SOL    HW151019   1.671   0.348   2.821  1.3929  0.3570  0.3115
48736SOL    HW251020   1.625   0.233   2.908  2.2342  2.3001  3.4908
48737SOL     OW51021   3.297  10.844   9.875  0.3612  0.0250  0.1436
48737SOL    HW151022   3.311  10.759   9.833  1.9748  0.7720 -0.9143
48737SOL    HW251023   3.202  10.858   9.869  0.3139 -0.7696 -1.5956
48738SOL     OW51024   6.647   7.547   2.522 -0.1532  0.4842  0.8116
48738SOL    HW151025   6.616   7.462   2.492 -0.8047  0.2396  2.1208
48738SOL    HW251026   6.578   7.579   2.579  0.0084  1.9756  0.2263
48739SOL     OW51027   5.513   6.464   8.939 -0.1727  0.0353  0.0160
48739SOL    HW151028   5.511   6.377   8.978 -0.5376  0.8655  1.9492
48739SOL    HW251029   5.440   6.463   8.876  1.4409 -1.8556 -1.9896
48740SOL     OW51030   6.392   7.202   9.445  0.0601 -0.3811  0.2232
48740SOL    HW151031   6.327   7.267   9.474 -0.7558 -0.8819 -0.4275
48740SOL    HW251032   6.451   7.193   9.519 -0.1670  0.6575  0.5509
48741SOL     OW51033  11.791   2.804   0.857  0.4184 -0.3958 -0.0113
48741SOL    HW151034  11.855   2.735   0.875  0.0514 -1.0179 -1.0260
48741SOL    HW251035  11.777   2.845   0.942  1.6203 -0.7144  0.3717
48742SOL     OW51036   5.700   9.726   7.730  0.1364  0.1477  0.0087
48742SOL    HW151037   5.650   9.657   7.774  0.9067  0.2994  1.1749
48742SOL    HW251038   5.791   9.696   7.734  0.6903  1.9038  1.9273
48743SOL     OW51039   0.392  11.045   4.856  0.3055 -0.3607  0.4145
48743SOL    HW151040   0.317  11.104   4.863 -0.9866 -1.7290 -1.0400
48743SOL    HW251041   0.361  10.961   4.890  1.7267 -0.5460  1.3396
48744SOL     OW51042   3.387  10.488  10.630 -0.0951 -0.1959  0.3554
48744SOL    HW151043   3.398  10.572  10.673  0.6749 -1.2577  2.3704
48744SOL    HW251044   3.355  10.429  10.699 -1.0966 -1.4520 -1.1122
48745SOL     OW51045   6.478   8.916   0.288  0.3511  0.0082  0.2043
48745SOL    HW151046   6.500   8.828   0.259  2.1790  0.7591 -0.8470
48745SOL    HW251047   6.513   8.921   0.377 -0.0461 -0.4134  0.3881
48746SOL     OW51048   5.691   0.105   0.940 -0.2773 -0.5770  0.5533
48746SOL    HW151049   5.685   0.013   0.965 -2.7249 -0.2308  1.5248
48746SOL    HW251050   5.656   0.108   0.851  0.7545 -0.6755  0.1220
48747SOL     OW51051   4.474   5.928   4.760  0.2979  0.2541 -0.3630
48747SOL    HW151052   4.417   5.994   4.798 -0.5238 -0.6813  0.0896
48747SOL    HW251053   4.457   5.932   4.666  0.6672  1.0475 -0.3995
48748SOL     OW51054   3.139   7.384  11.573  0.4010 -0.2969  0.3689
48748SOL    HW151055   3.209   7.357  11.633 -0.0869  0.5108  1.3224
48748SOL    HW251056   3.062   7.393  11.629 -0.5260 -1.3204 -0.6932
48749SOL     OW51057  11.706   9.527   0.170 -0.7527  0.0137  0.0078
48749SOL    HW151058  11.755   9.519   0.088 -1.1852  2.0517 -0.5284
48749SOL    HW251059  11.773   9.536   0.238 -0.3628  0.4116 -0.4189
48750SOL     OW51060   5.780  11.810   0.973  0.3249  0.4301 -0.3796
48750SOL    HW151061   5.817  11.896   0.956  0.1157  0.4648 -0.6518
48750SOL    HW251062   5.727  11.790   0.896 -2.5078  1.5646  1.1538
48751SOL     OW51063  11.246   5.634   8.578 -0.2184  0.7668  0.1772
48751SOL    HW151064  11.313   5.703   8.575 -0.5107  1.0275 -1.8790
48751SOL    HW251065  11.253   5.598   8.666  2.4956  0.9242  0.1067
48752SOL     OW51066   2.061   2.748   1.403  0.0084  0.5210  0.1354
48752SOL    HW151067   2.092   2.701   1.326  0.0419  0.6483  0.0693
48752SOL    HW251068   2.031   2.680   1.463 -0.9418  0.4523 -0.3863
48753SOL     OW51069  12.091   3.693   3.488 -0.2152  0.3182 -0.4412
48753SOL    HW151070  12.186   3.709   3.485 -0.1178 -0.0090  0.5035
48753SOL    HW251071  12.057   3.741   3.413  0.6998  0.4428 -0.7992
48754SOL     OW51072  10.484   3.293   3.831  0.1498  0.2097 -0.3989
48754SOL    HW151073  10.487   3.384   3.800 -1.2401 -0.6617 -3.5121
48754SOL    HW251074  10.398   3.286   3.872 -0.0776  0.1155 -0.8840
48755SOL     OW51075   6.545   0.995   1.668  0.1922 -0.2394  0.1615
48755SOL    HW151076   6.486   1.061   1.705  1.5089  1.0493  0.0788
48755SOL    HW251077   6.515   0.983   1.578 -0.4692 -0.2526  0.3808
48756SOL     OW51078   8.611   1.721   9.855  0.0405 -0.7930 -0.1113
48756SOL    HW151079   8.526   1.696   9.891  0.1706 -0.2285  0.6060
48756SOL    HW251080   8.611   1.684   9.767 -0.2075 -2.3767  0.5225
48757SOL     OW51081   2.012  10.953   9.837  0.0526  0.2390  0.7690
48757SOL    HW151082   2.042  10.862   9.843  0.3310  0.1165 -1.7381
48757SOL    HW251083   2.093  11.004   9.835  0.0143  0.2685 -1.1151
48758SOL     OW51084   9.928   6.459  10.435  0.4816  0.0446  0.7014
48758SOL    HW151085   9.863   6.517  10.395  1.0338 -0.2243 -0.6761
48758SOL    HW251086   9.887   6.427  10.515 -0.6195  0.7588  0.4434
48759SOL     OW51087   4.948  11.176   9.479 -0.2473 -0.2900 -0.3540
48759SOL    HW151088   4.986  11.112   9.418  0.3013 -0.4295  0.1245
48759SOL    HW251089   5.007  11.252   9.473  0.6960 -0.8665  1.1072
48760SOL     OW51090   8.795  11.403   7.580  0.1906 -0.9961 -0.2116
48760SOL    HW151091   8.865  11.466   7.564 -1.7187  1.0850 -0.9413
48760SOL    HW251092   8.820  11.326   7.528  1.7660 -0.2163 -0.6755
48761SOL     OW51093  12.182   1.116   0.657 -0.0139  0.2553  0.1310
48761SOL    HW151094  12.192   1.195   0.710  0.9509  0.3445 -0.1643
48761SOL    HW251095  12.112   1.066   0.701 -0.7418  1.3333  0.2230
48762SOL     OW51096   3.645   2.695   5.272  0.3160  0.4399 -0.1335
48762SOL    HW151097   3.665   2.621   5.329 -0.6050  1.2019  1.2107
48762SOL    HW251098   3.724   2.749   5.273  1.4612 -1.0160 -2.0544
48763SOL     OW51099   0.041   0.370   4.734 -0.0840 -0.3293 -0.0580
48763SOL    HW151100  -0.027   0.437   4.724  1.2265  1.4899  2.1920
48763SOL    HW251101   0.010   0.314   4.805  0.0968 -0.3633 -0.0041
48764SOL     OW51102   6.107   9.874  11.900  0.2142 -0.1665 -0.1266
48764SOL    HW151103   6.088   9.836  11.986  0.2910 -0.8810 -0.4191
48764SOL    HW251104   6.059   9.957  11.899  1.8351  0.8583  1.3890
48765SOL     OW51105   0.808   2.246  12.523  0.0766 -0.8882  0.0550
48765SOL    HW151106   0.748   2.172  12.520 -0.4948 -0.4749  1.0889
48765SOL    HW251107   0.793   2.287  12.608  0.7785  0.0936 -0.2720
48766SOL     OW51108   4.346   7.938   8.668 -0.4095  0.1461 -0.5376
48766SOL    HW151109   4.353   7.928   8.763 -0.6738  0.2894 -0.5001
48766SOL    HW251110   4.435   7.951   8.638 -0.2623 -0.4214 -0.3702
48767SOL     OW51111   0.041   3.403   1.349  0.1182 -0.0344 -0.2947
48767SOL    HW151112   0.122   3.408   1.298  0.3932 -1.1053  0.0153
48767SOL    HW251113   0.012   3.312   1.340 -0.2206 -0.0565  0.8567
48768SOL     OW51114   8.102   3.112   6.445  0.2220 -0.4048 -0.1051
48768SOL    HW151115   8.056   3.117   6.528  2.5974  1.7555  1.2188
48768SOL    HW251116   8.122   3.203   6.422  1.6599 -1.0746 -1.8363
48769SOL     OW51117  11.531   9.080   4.578 -0.6622 -0.5453  0.5766
48769SOL    HW151118  11.610   9.033   4.603 -0.0585 -1.0431 -2.0024
48769SOL    HW251119  11.537   9.164   4.624  1.3950 -0.5625  0.4215
48770SOL     OW51120   7.747   7.079   0.644  0.1543  0.1968  0.5501
48770SOL    HW151121   7.693   7.075   0.565 -0.0043 -0.7768  0.7050
48770SOL    HW251122   7.749   6.990   0.677  1.0348  0.4085  1.1103
48771SOL     OW51123   0.722   8.390   6.430  0.4941 -0.0429  0.6215
48771SOL    HW151124   0.643   8.422   6.473  0.0965  1.1917 -0.9394
48771SOL    HW251125   0.735   8.302   6.466 -2.1110 -0.6458  0.3116
48772SOL     OW51126   7.070   8.172   9.466 -0.0865  0.0995 -0.1296
48772SOL    HW151127   7.017   8.169   9.386 -0.5081 -0.7170  0.1680
48772SOL    HW251128   7.011   8.208   9.532 -0.5899 -1.5829  0.4037
48773SOL     OW51129   2.584   3.820   1.656  0.3909 -0.4009 -0.5058
48773SOL    HW151130   2.526   3.818   1.579 -0.8121 -2.8805  0.3693
48773SOL    HW251131   2.534   3.869   1.722 -0.9122 -2.6061  0.2771
48774SOL     OW51132  11.828   4.718   0.161 -0.0532  0.3519 -0.0372
48774SOL    HW151133  11.782   4.646   0.119 -1.0770 -0.3178  2.1099
48774SOL    HW251134  11.899   4.739   0.100 -0.5417 -1.5318 -1.3609
48775SOL     OW51135  11.872  11.480   2.250  0.2382  0.3171  0.1466
48775SOL    HW151136  11.950  11.424   2.245  1.4259  1.8719  0.4495
48775SOL    HW251137  11.819  11.441   2.320  0.2792 -1.2795 -0.6586
48776SOL     OW51138  11.823   2.436   8.237 -0.5870  0.6919 -0.1138
48776SOL    HW151139  11.876   2.362   8.208 -0.2538  0.9071 -0.0743
48776SOL    HW251140  11.773   2.403   8.311 -0.2605  0.5704  0.0554
48777SOL     OW51141   9.776  11.078   6.575 -0.0195 -0.1579 -0.3693
48777SOL    HW151142   9.797  11.039   6.660 -1.3993 -0.3360 -0.0802
48777SOL    HW251143   9.763  11.003   6.517  2.2368 -0.0285 -1.1197
48778SOL     OW51144   3.124  12.431   3.295  0.4006 -0.2921  0.0770
48778SOL    HW151145   3.029  12.428   3.310  0.3126  0.3402 -0.3213
48778SOL    HW251146   3.133  12.449   3.202  0.8793  1.9888  0.5060
48779SOL     OW51147   8.929   8.401   7.619 -0.0598  0.2881 -0.5293
48779SOL    HW151148   8.963   8.489   7.634 -0.9854  0.9368 -2.0077
48779SOL    HW251149   8.972   8.347   7.685  0.1112  1.9388  0.7654
48780SOL     OW51150   0.800   5.531   1.666  0.1901 -0.3358  0.5843
48780SOL    HW151151   0.723   5.557   1.716 -0.9847  1.8323 -2.0691
48780SOL    HW251152   0.770   5.529   1.575  3.1149  0.0211 -0.4957
48781SOL     OW51153   4.181   3.961   7.310  0.5247  0.3814 -0.1350
48781SOL    HW151154   4.152   3.882   7.265 -2.6732  1.1712  0.2599
48781SOL    HW251155   4.269   3.941   7.340 -1.0776 -4.2278  2.5902
48782SOL     OW51156   9.367   0.747   1.362 -0.1402  0.5272 -0.1480
48782SOL    HW151157   9.329   0.668   1.323 -0.7432  0.5595  0.3633
48782SOL    HW251158   9.431   0.777   1.297 -0.5079  0.0921 -0.7208
48783SOL     OW51159   7.653  12.113   7.411  0.0048  0.1128 -0.0609
48783SOL    HW151160   7.665  12.023   7.379  2.0999  0.0497  0.7329
48783SOL    HW251161   7.669  12.168   7.334 -0.4439 -0.1667 -0.3581
48784SOL     OW51162   9.236  10.314   0.447 -0.4117 -0.0538  0.1600
48784SOL    HW151163   9.156  10.321   0.499  0.5418 -1.0692  1.8333
48784SOL    HW251164   9.266  10.404   0.438 -0.5717  0.1358  1.4107
48785SOL     OW51165   4.375   5.094   1.157  0.3417 -0.4434  0.1892
48785SOL    HW151166   4.288   5.123   1.132 -0.0599 -1.0363  0.8754
48785SOL    HW251167   4.434   5.161   1.121 -0.3517 -0.2580 -0.6438
48786SOL     OW51168  12.296   1.173   0.051  0.0547  0.1657  0.2295
48786SOL    HW151169  12.267   1.259   0.019  0.6047  0.0785 -0.5150
48786SOL    HW251170  12.251   1.110  -0.005  1.0464  0.0144 -0.4334
48787SOL     OW51171   6.683  10.140   0.979  0.0360  0.8549 -0.4588
48787SOL    HW151172   6.658  10.119   0.889 -0.4536  0.3240 -0.2052
48787SOL    HW251173   6.659  10.061   1.029 -0.2508  1.3729  0.2296
48788SOL     OW51174   3.187   5.175   5.851  0.3184 -0.2409  0.4388
48788SOL    HW151175   3.156   5.213   5.769 -0.4627 -0.3058  0.6943
48788SOL    HW251176   3.256   5.234   5.880  1.0400 -0.5665 -0.5862
48789SOL     OW51177  11.443  12.013  12.539 -0.0443 -0.1881 -0.2389
48789SOL    HW151178  11.423  11.954  12.613 -1.4129  1.4547  0.7733
48789SOL    HW251179  11.383  11.984  12.470 -1.4802  0.6164  0.6129
48790SOL     OW51180   2.169   1.946   9.348  0.0324 -0.5012 -0.1358
48790SOL    HW151181   2.189   2.026   9.397  1.3584 -1.0259  0.2319
48790SOL    HW251182   2.154   1.975   9.258  2.4041 -0.0025 -0.4299
48791SOL     OW51183   7.209   4.986   7.936  0.8232  0.3005  0.2138
48791SOL    HW151184   7.277   5.021   7.878 -0.2960  0.9421 -0.7567
48791SOL    HW251185   7.211   4.891   7.919  1.0640  0.3850 -0.2668
48792SOL     OW51186   6.005   6.921  12.081 -0.3390  0.0643 -0.3308
48792SOL    HW151187   6.029   6.936  12.172 -0.1073  1.0128 -0.5289
48792SOL    HW251188   6.077   6.960  12.031 -0.3193 -0.7095 -0.9154
48793SOL     OW51189   5.544   3.660   4.053 -0.2012 -0.2041  0.1923
48793SOL    HW151190   5.459   3.702   4.036  0.3357  0.6862 -0.3553
48793SOL    HW251191   5.526   3.599   4.124 -1.0431  0.8620  0.9295
48794SOL     OW51192  10.420   8.088   0.874  0.1465  0.5899  0.0870
48794SOL    HW151193  10.488   8.155   0.865  1.6820 -0.5092  2.5069
48794SOL    HW251194  10.390   8.097   0.965 -0.1758 -1.4787  0.2187
48795SOL     OW51195   3.234   1.113   5.533  0.2713  0.5161 -0.4617
48795SOL    HW151196   3.153   1.067   5.555  0.0845  1.4396  0.9253
48795SOL    HW251197   3.261   1.154   5.615  0.7267  2.4064 -1.5143
48796SOL     OW51198   5.184   4.780  11.848  0.5556  0.3586  0.1694
48796SOL    HW151199   5.110   4.729  11.882  1.2051  0.3431  1.6821
48796SOL    HW251200   5.225   4.722  11.784 -0.8013  0.4268 -0.8034
48797SOL     OW51201   6.096  11.551   7.110  0.1494  0.3152  0.8543
48797SOL    HW151202   6.179  11.596   7.093 -0.4849  1.6530  1.1229
48797SOL    HW251203   6.042  11.617   7.154 -0.7809 -0.7813  1.3985
48798SOL     OW51204   5.329   6.097   0.036  0.0563  0.2646 -0.2802
48798SOL    HW151205   5.303   6.183   0.067  0.8282  0.0623  1.0059
48798SOL    HW251206   5.258   6.038   0.062  0.4628  0.1849  0.6908
48799SOL     OW51207   9.136  11.715   1.011  0.3947 -0.0692  0.2110
48799SOL    HW151208   9.231  11.719   0.999  0.2724 -0.8451 -1.2692
48799SOL    HW251209   9.123  11.677   1.098  1.4375 -0.4055  0.2260
48800SOL     OW51210   8.263   9.594   0.505  0.9182 -0.2934 -0.4523
48800SOL    HW151211   8.210   9.671   0.483  0.2039 -1.4612 -3.3540
48800SOL    HW251212   8.353   9.626   0.509  0.8026  0.5555 -2.9672
48801SOL     OW51213   6.396   8.479   6.396 -0.0658  0.1463  0.2895
48801SOL    HW151214   6.398   8.568   6.360  0.7356 -0.1517 -0.4385
48801SOL    HW251215   6.483   8.444   6.378 -0.9520 -1.4620 -1.1973
48802SOL     OW51216   0.812   2.802   0.165  0.1187  0.6037  0.2228
48802SOL    HW151217   0.824   2.725   0.110 -1.3495 -0.0275  0.7233
48802SOL    HW251218   0.743   2.777   0.227  1.8374  1.1861  2.5218
48803SOL     OW51219   4.078   5.185  11.791  0.2479 -0.1765  0.4664
48803SOL    HW151220   3.998   5.212  11.835 -0.0211 -0.5331  0.1999
48803SOL    HW251221   4.102   5.260  11.736  0.4265  0.1579  0.9902
48804SOL     OW51222  10.206   8.156  11.462  0.2904 -0.7034 -0.5125
48804SOL    HW151223  10.279   8.105  11.426 -0.0840  0.1440 -2.6540
48804SOL    HW251224  10.129   8.102  11.443  0.1003 -0.3224 -0.8323
48805SOL     OW51225   4.590   3.324   7.153 -0.2046  0.2300  0.3744
48805SOL    HW151226   4.605   3.417   7.136 -0.7288  0.4312  1.0007
48805SOL    HW251227   4.627   3.309   7.240  0.2993 -0.2561  0.0818
48806SOL     OW51228   5.205  10.156  11.269  0.0211  0.5660 -0.5560
48806SOL    HW151229   5.255  10.233  11.243 -1.5081  1.3018 -1.4157
48806SOL    HW251230   5.178  10.115  11.187  1.1065 -1.1357 -0.1343
48807SOL     OW51231   2.543  10.506   6.549  0.1193 -0.1100  0.2737
48807SOL    HW151232   2.518  10.584   6.498  0.3926 -1.4134 -1.9877
48807SOL    HW251233   2.617  10.469   6.501  0.4182 -1.4319  1.6748
48808SOL     OW51234   1.941   7.726   8.476 -0.0247  0.1220 -0.0391
48808SOL    HW151235   2.013   7.674   8.510  1.4322  0.7274 -1.9614
48808SOL    HW251236   1.958   7.814   8.509  0.5094  0.3817 -0.9330
48809SOL     OW51237   1.628   5.908   8.939  0.4561  0.1358  0.1762
48809SOL    HW151238   1.662   5.902   8.850 -1.1382 -1.3514 -0.3660
48809SOL    HW251239   1.585   5.994   8.942  0.7526  0.3116 -0.3788
48810SOL     OW51240   0.964  11.213   1.746 -0.3768 -0.2259 -0.0964
48810SOL    HW151241   1.028  11.187   1.812  0.0047  2.2166  0.5933
48810SOL    HW251242   0.881  11.215   1.792 -0.6070 -1.1899 -0.4324
48811SOL     OW51243  11.672   8.734   6.900 -0.1073 -0.5080 -0.3153
48811SOL    HW151244  11.665   8.810   6.843 -1.7218  0.3838  0.9851
48811SOL    HW251245  11.753   8.747   6.948  0.7652 -0.7802 -1.6352
48812SOL     OW51246   2.892  11.523   5.680  0.1088  0.1425 -0.6607
48812SOL    HW151247   2.821  11.459   5.684 -0.0733  0.4149  1.5753
48812SOL    HW251248   2.960  11.488   5.737  0.5134  1.3610 -0.3582
48813SOL     OW51249  11.223   0.767   9.535  0.4655  0.0406 -0.0816
48813SOL    HW151250  11.167   0.719   9.596  0.4191 -0.4173 -0.4765
48813SOL    HW251251  11.291   0.705   9.510  1.1406  0.5865  0.3710
48814SOL     OW51252   1.976   6.714   6.297  0.2937  0.6494 -0.2355
48814SOL    HW151253   2.063   6.703   6.335 -0.1195 -0.2004  0.4892
48814SOL    HW251254   1.928   6.765   6.362 -0.1352 -0.0040 -0.0294
48815SOL     OW51255   9.133   4.329   9.246  0.0919  0.5202  0.2611
48815SOL    HW151256   9.196   4.336   9.317 -0.8733 -1.6557  1.4335
48815SOL    HW251257   9.140   4.238   9.216 -2.0303  0.3653  0.0633
48816SOL     OW51258  11.413   4.639   3.358 -1.1228  0.5432  0.0211
48816SOL    HW151259  11.366   4.628   3.275 -0.8263 -1.4346  0.0497
48816SOL    HW251260  11.406   4.732   3.378 -1.1296  1.0955 -2.2619
48817SOL     OW51261   4.506  10.306   0.669 -0.5709  0.0607 -0.0916
48817SOL    HW151262   4.485  10.318   0.576 -0.1689 -0.5921 -0.2715
48817SOL    HW251263   4.601  10.296   0.672 -0.4815  0.9131  0.4926
48818SOL     OW51264  10.602  12.030  11.055  0.4831  0.3295  0.0701
48818SOL    HW151265  10.509  12.039  11.078  0.0731 -1.2769 -0.7859
48818SOL    HW251266  10.649  12.050  11.136 -0.5911  1.4890  0.4338
48819SOL     OW51267   3.698  11.865   8.629 -0.1815 -0.1872  0.9528
48819SOL    HW151268   3.708  11.902   8.541  0.8603  0.9486  1.5201
48819SOL    HW251269   3.748  11.784   8.626 -1.4894 -0.9947  0.0453
48820SOL     OW51270  11.170   2.533   3.271 -0.1936 -0.1727 -0.5440
48820SOL    HW151271  11.126   2.510   3.352 -1.0508  0.6409 -0.7543
48820SOL    HW251272  11.229   2.459   3.253 -0.3890 -0.5999  0.5219
48821SOL     OW51273   6.542   4.286   4.544  0.4894 -0.2614 -0.6004
48821SOL    HW151274   6.486   4.303   4.620 -1.0799 -1.6186 -1.3877
48821SOL    HW251275   6.482   4.292   4.469  1.4362 -1.5807 -1.5016
48822SOL     OW51276  10.047   2.768   4.308  0.0344  0.5379  0.3982
48822SOL    HW151277  10.109   2.809   4.367 -0.7416  1.3730  0.6443
48822SOL    HW251278  10.102   2.726   4.241  0.8666  2.2153 -0.0335
48823SOL     OW51279   0.297   3.131  12.358 -0.2450  0.1649 -0.2029
48823SOL    HW151280   0.373   3.160  12.308 -0.6059 -1.3696 -1.7375
48823SOL    HW251281   0.225   3.131  12.295 -0.8849 -1.1274  0.4729
48824SOL     OW51282   5.436   9.228   2.751 -0.4393 -0.0187 -0.6339
48824SOL    HW151283   5.521   9.244   2.793 -1.0788 -0.9969  1.1302
48824SOL    HW251284   5.458   9.210   2.659  1.2393 -0.0417 -0.2647
48825SOL     OW51285   2.996   8.827   9.039  0.0751  0.0828 -0.1096
48825SOL    HW151286   3.081   8.869   9.049  0.1678  0.0098 -0.5604
48825SOL    HW251287   2.945   8.889   8.987  0.0552 -0.1464 -0.3653
48826SOL     OW51288  11.226   4.336   6.152 -0.4716  0.2215 -0.0197
48826SOL    HW151289  11.151   4.389   6.123  0.5380  1.5422 -0.2862
48826SOL    HW251290  11.198   4.299   6.236 -1.7654 -0.0803 -0.5549
48827SOL     OW51291  11.580   8.015   2.245  0.4161 -0.5615  0.0441
48827SOL    HW151292  11.529   8.071   2.186  1.3994  0.9138  0.5442
48827SOL    HW251293  11.538   7.929   2.238 -0.7180  0.0534 -1.2738
48828SOL     OW51294   9.453   4.031   3.991  0.1710  0.5007  0.1884
48828SOL    HW151295   9.496   4.108   4.029 -0.2050  1.1424 -0.6387
48828SOL    HW251296   9.478   4.034   3.899 -2.3435  1.4546 -0.5579
48829SOL     OW51297  10.985   3.288   5.080 -0.7689 -1.1279 -0.2050
48829SOL    HW151298  11.026   3.234   5.147  0.8193 -1.0941 -1.1161
48829SOL    HW251299  10.921   3.341   5.128  1.2468 -0.1261  1.5347
48830SOL     OW51300   4.249  12.482   5.827 -0.2692  0.2225 -0.6032
48830SOL    HW151301   4.282  12.414   5.885 -0.2900  0.3765 -0.4124
48830SOL    HW251302   4.185  12.436   5.772  1.5248 -0.4898 -2.2004
48831SOL     OW51303   2.008  11.459   2.697  0.4675  0.1580 -0.1943
48831SOL    HW151304   1.997  11.404   2.619  2.0350 -3.2137  1.6986
48831SOL    HW251305   1.937  11.432   2.755  0.8601  0.6565  0.5307
48832SOL     OW51306   4.064   8.952  12.293 -0.5274 -0.3856 -0.2965
48832SOL    HW151307   4.156   8.970  12.313 -0.5347 -0.0346 -0.5763
48832SOL    HW251308   4.032   9.031  12.250 -0.8409 -0.6691 -0.5982
48833SOL     OW51309  12.572  11.090   2.446 -0.2383 -0.3077  0.2652
48833SOL    HW151310  12.527  11.173   2.450 -0.5750 -0.4468 -0.5328
48833SOL    HW251311  12.508  11.028   2.411 -0.2569 -1.0968  1.6013
48834SOL     OW51312   5.034   9.833   4.244 -0.7394  0.4981  0.0711
48834SOL    HW151313   4.997   9.920   4.228 -1.5921  0.1971  0.3463
48834SOL    HW251314   5.069   9.805   4.159 -2.0873  0.3640 -0.4540
48835SOL     OW51315  11.962   7.564   5.160  0.4945 -0.3952 -0.0152
48835SOL    HW151316  11.924   7.478   5.142  0.4390 -0.4329  0.2834
48835SOL    HW251317  11.997   7.557   5.249 -0.8548  0.3651  0.6055
48836SOL     OW51318   8.754  11.490   4.184  0.0782  0.1570  0.5534
48836SOL    HW151319   8.660  11.480   4.171  0.1075 -1.0361  1.1132
48836SOL    HW251320   8.784  11.541   4.109 -0.8489 -0.3517 -0.1797
48837SOL     OW51321   5.781   8.182   2.789 -0.6177  0.3254 -0.5437
48837SOL    HW151322   5.724   8.248   2.751 -0.1464  1.4108  0.5960
48837SOL    HW251323   5.842   8.159   2.718 -1.2305  0.5716 -1.1575
48838SOL     OW51324  10.994   7.890   9.600 -0.3765  0.5058 -0.2698
48838SOL    HW151325  10.970   7.979   9.574  0.8368  0.3920 -2.0340
48838SOL    HW251326  11.059   7.901   9.669  0.0189  1.0322 -0.7166
48839SOL     OW51327   1.265   2.788   7.650 -0.1962 -0.1908  1.0783
48839SOL    HW151328   1.243   2.873   7.612  0.4243 -0.7062 -0.4846
48839SOL    HW251329   1.188   2.734   7.636 -0.5805  0.0920  2.0477
48840SOL     OW51330   6.705  12.074   9.481 -0.4481  0.2782  0.2216
48840SOL    HW151331   6.611  12.088   9.495 -0.2775  1.2770  0.5074
48840SOL    HW251332   6.743  12.162   9.488  0.1688  0.3714 -2.8363
48841SOL     OW51333   4.124   2.100   8.227  0.0288 -0.3660 -0.4634
48841SOL    HW151334   4.097   2.182   8.186 -1.2291 -1.4789 -2.0332
48841SOL    HW251335   4.059   2.036   8.197  0.3125 -1.7241  1.6188
48842SOL     OW51336  10.662  10.722   9.585 -0.1840 -0.7672  0.5793
48842SOL    HW151337  10.585  10.779   9.589  0.2541 -0.1853  0.8595
48842SOL    HW251338  10.699  10.725   9.673  2.3943  2.1434 -0.3909
48843SOL     OW51339   5.384   8.211  11.343  0.2448 -0.6171 -0.2609
48843SOL    HW151340   5.385   8.274  11.271  2.2087 -0.0894  0.1826
48843SOL    HW251341   5.368   8.263  11.421 -1.3938 -1.1284 -0.2105
48844SOL     OW51342   2.106   1.368   5.782  0.6547  0.0884  0.4492
48844SOL    HW151343   2.085   1.455   5.748 -1.3046 -0.1171  1.0128
48844SOL    HW251344   2.062   1.308   5.722  0.7152 -0.4481  0.9337
48845SOL     OW51345  10.983  11.575   6.060 -0.2247  0.7162 -0.4124
48845SOL    HW151346  10.941  11.660   6.066  1.5281  1.6223 -0.3650
48845SOL    HW251347  11.067  11.592   6.017 -0.2417 -1.1467 -1.3204
48846SOL     OW51348   1.415   1.791   9.100 -0.2336 -0.0735 -0.1649
48846SOL    HW151349   1.366   1.808   9.020 -2.8932  0.0205  1.3881
48846SOL    HW251350   1.352   1.802   9.171  2.3808  1.5566  2.1302
48847SOL     OW51351  10.132   3.820   4.488  0.2918  0.2784  0.7850
48847SOL    HW151352  10.193   3.892   4.507  2.1479 -0.5389 -1.5664
48847SOL    HW251353  10.059   3.862   4.442  2.1163  0.6476 -2.0713
48848SOL     OW51354   2.120   9.816  12.066  0.1324  0.4720 -0.2005
48848SOL    HW151355   2.054   9.873  12.105  0.9865  1.1393  0.3206
48848SOL    HW251356   2.136   9.749  12.132  0.8308  1.0070  0.1915
48849SOL     OW51357   6.242   2.044   7.291 -0.1644  0.0098  0.0287
48849SOL    HW151358   6.203   2.117   7.244  0.6384  0.4360  0.0052
48849SOL    HW251359   6.261   1.979   7.223 -0.3832  0.0024 -0.0250
48850SOL     OW51360  10.996   0.690   0.982 -0.2269 -0.3077  0.5167
48850SOL    HW151361  11.007   0.696   0.887 -0.9072 -0.2290  0.4370
48850SOL    HW251362  11.003   0.781   1.013 -0.2107 -0.3088  0.5160
48851SOL     OW51363   9.257   6.865   0.737  0.2307  0.1321  0.4794
48851SOL    HW151364   9.188   6.826   0.684 -0.2127  1.3497  0.1127
48851SOL    HW251365   9.299   6.791   0.781 -0.5056 -0.7396 -0.2433
48852SOL     OW51366   0.901   0.229  12.162  0.2234  0.5659  0.0746
48852SOL    HW151367   0.873   0.320  12.168 -2.5298 -0.2109  0.5743
48852SOL    HW251368   0.931   0.220  12.071  1.1761  2.0691  0.1927
48853SOL     OW51369   3.745  11.578   3.092 -0.3931  0.0750 -0.1570
48853SOL    HW151370   3.835  11.599   3.118 -0.3562 -0.0724 -0.1636
48853SOL    HW251371   3.692  11.602   3.168 -0.3798  0.4137 -0.2528
48854SOL     OW51372   2.190   4.137   0.512 -0.5884  0.1217 -0.2342
48854SOL    HW151373   2.199   4.198   0.438  1.0233  0.5257  0.2473
48854SOL    HW251374   2.191   4.194   0.589  0.1468 -0.4477  0.1878
48855SOL     OW51375   4.239   3.079   8.893 -0.1351 -0.3834 -0.0544
48855SOL    HW151376   4.284   3.011   8.943 -0.0204  0.1567  0.5904
48855SOL    HW251377   4.282   3.077   8.807 -1.1311 -2.1202 -0.5668
48856SOL     OW51378   3.592  12.351   2.716  0.5557 -0.0838 -0.3013
48856SOL    HW151379   3.614  12.350   2.623  1.2033 -0.5646 -0.1502
48856SOL    HW251380   3.510  12.400   2.721  0.8271  0.4703 -1.0536
48857SOL     OW51381   0.138   7.052  11.428 -0.0127  0.5171 -0.0633
48857SOL    HW151382   0.217   7.098  11.458 -0.4493 -0.3628  2.7232
48857SOL    HW251383   0.066   7.103  11.464 -0.6343 -0.1184 -0.4060
48858SOL     OW51384  10.366  10.811   6.848  0.0267  0.3220  0.3128
48858SOL    HW151385  10.305  10.868   6.801  2.5629  1.8145 -1.4446
48858SOL    HW251386  10.430  10.872   6.885  1.1051 -1.2208  1.0531
48859SOL     OW51387   7.082  10.940   4.997  0.6212 -0.4694  0.2025
48859SOL    HW151388   7.129  10.906   4.921  1.7776  1.0389  0.2161
48859SOL    HW251389   7.150  10.970   5.056 -0.3191 -0.0858  1.1256
48860SOL     OW51390   7.082   7.326   8.423 -0.0338 -0.0725  0.1580
48860SOL    HW151391   7.040   7.240   8.428 -1.1626  0.4252 -0.3816
48860SOL    HW251392   7.012   7.385   8.395  1.1888  0.6794 -1.4997
48861SOL     OW51393   4.865   1.947   8.859 -0.0860  0.2833  0.2565
48861SOL    HW151394   4.815   1.874   8.822  0.4044  0.4160 -0.7036
48861SOL    HW251395   4.807   2.023   8.849  0.5751  0.5942 -1.6091
48862SOL     OW51396   1.965   4.899  11.419  0.2692  0.4025  0.0334
48862SOL    HW151397   1.949   4.807  11.398  1.4541  0.3261 -0.6815
48862SOL    HW251398   2.015   4.897  11.500  0.2362  0.4200  0.0540
48863SOL     OW51399   4.197   8.518   1.455 -0.8691  0.0974  0.0880
48863SOL    HW151400   4.212   8.597   1.402  0.1926 -0.9267 -1.1933
48863SOL    HW251401   4.175   8.450   1.391 -1.5013 -0.7298  1.1560
48864SOL     OW51402   4.574   6.852   6.582  0.3631 -0.0006  0.2703
48864SOL    HW151403   4.503   6.900   6.624  0.1945 -0.8361  0.9442
48864SOL    HW251404   4.563   6.762   6.610  1.3051 -0.2590 -0.1441
48865SOL     OW51405   8.479  12.307   8.362  0.1385  0.6416 -0.5133
48865SOL    HW151406   8.555  12.320   8.418  1.5271 -2.3456 -1.4822
48865SOL    HW251407   8.419  12.256   8.415 -0.2223  1.0622 -0.5118
48866SOL     OW51408   4.925  11.286   7.167 -0.6671 -0.3735 -0.4472
48866SOL    HW151409   4.978  11.322   7.095 -1.9548 -0.8356 -1.6783
48866SOL    HW251410   4.835  11.295   7.136 -1.2941 -0.0613  1.3888
48867SOL     OW51411   9.936   3.517   8.267 -0.0992 -0.0798 -0.1329
48867SOL    HW151412   9.841   3.516   8.277 -0.3238  4.7437  0.7315
48867SOL    HW251413   9.952   3.571   8.190  2.0148 -1.2771 -0.6273
48868SOL     OW51414  11.669   8.238   6.267 -0.0575  0.2878 -0.5183
48868SOL    HW151415  11.583   8.258   6.304 -0.2647  0.2070 -0.9569
48868SOL    HW251416  11.730   8.289   6.320 -0.4376  0.8750 -0.6369
48869SOL     OW51417   1.270   5.751   3.447 -0.3697  0.5181  0.4446
48869SOL    HW151418   1.364   5.767   3.435 -0.2965  0.4151  0.8813
48869SOL    HW251419   1.228   5.825   3.404 -0.0959  0.4071 -0.0204
48870SOL     OW51420   4.532  10.700  10.559 -0.3974 -0.0945 -0.8126
48870SOL    HW151421   4.486  10.783  10.570  0.9395  0.4154  1.5344
48870SOL    HW251422   4.623  10.724  10.539  0.5013 -0.8390  1.9025
48871SOL     OW51423   8.152  11.499  12.058 -0.9752 -0.3893 -0.1998
48871SOL    HW151424   8.154  11.444  11.980  2.7300  1.5978 -1.7407
48871SOL    HW251425   8.075  11.554  12.047 -1.1530 -0.9223 -1.8817
48872SOL     OW51426   9.830   7.897   0.652 -0.4496  0.8041  0.3895
48872SOL    HW151427   9.826   7.986   0.618 -0.0021  0.2077 -1.3091
48872SOL    HW251428   9.744   7.859   0.630 -0.1796  0.4341 -0.0499
48873SOL     OW51429   9.129   3.397   5.266 -0.1856  0.1722 -0.0757
48873SOL    HW151430   9.117   3.302   5.255 -1.2845  0.3867 -0.9197
48873SOL    HW251431   9.060   3.436   5.212 -1.1394  1.4396  1.9537
48874SOL     OW51432   0.210  11.840  10.042  0.1034 -0.0331 -0.2892
48874SOL    HW151433   0.290  11.860   9.995 -0.4613  0.5654 -1.0172
48874SOL    HW251434   0.236  11.775  10.108  1.2159  0.3337 -0.3589
48875SOL     OW51435  12.102  10.711   8.915 -0.0938  0.1815  0.2070
48875SOL    HW151436  12.019  10.741   8.877  0.1048 -0.7390 -1.0160
48875SOL    HW251437  12.162  10.708   8.840  0.9162  0.3831  0.9945
48876SOL     OW51438   1.412   7.625   7.586 -0.0042  0.4928 -0.0147
48876SOL    HW151439   1.421   7.710   7.627  0.2084  0.1080  0.7540
48876SOL    HW251440   1.497   7.608   7.545 -0.0804  0.6925 -0.2556
48877SOL     OW51441   9.237   3.825   4.924  0.1222  0.2530 -0.2147
48877SOL    HW151442   9.210   3.823   5.015  0.8228  0.9118  0.0130
48877SOL    HW251443   9.209   3.740   4.889 -2.9345  1.1387 -0.2166
48878SOL     OW51444  12.541   1.228   9.626  0.2535 -0.1261 -0.0751
48878SOL    HW151445  12.575   1.316   9.608  0.6275 -0.1016  0.7144
48878SOL    HW251446  12.473   1.242   9.692  0.7505 -0.4900  0.5276
48879SOL     OW51447   7.663   8.446   7.360 -0.4397  0.7411 -0.2905
48879SOL    HW151448   7.680   8.359   7.324 -0.0238  0.6842  0.0314
48879SOL    HW251449   7.584   8.476   7.315 -2.7218 -1.2486  2.0246
48880SOL     OW51450   3.347   2.761   7.051 -0.0011  0.3915 -0.1272
48880SOL    HW151451   3.404   2.838   7.060 -1.2274  1.1640  1.7277
48880SOL    HW251452   3.303   2.773   6.967  1.1001  0.7939 -0.6663
48881SOL     OW51453   4.125   8.185   1.782  0.0777  0.2373 -0.4280
48881SOL    HW151454   4.058   8.159   1.845  0.5487 -1.8373 -0.7259
48881SOL    HW251455   4.076   8.228   1.712 -0.7028  0.5539  0.2892
48882SOL     OW51456  10.326   4.236  12.288 -0.4874 -0.0123  0.1081
48882SOL    HW151457  10.338   4.331  12.279 -1.5188  0.1824  0.5869
48882SOL    HW251458  10.308   4.205  12.200 -1.2196  0.4137  0.1015
48883SOL     OW51459   7.141   8.693   6.152  0.1783 -0.2185  0.3065
48883SOL    HW151460   7.218   8.659   6.198 -1.0069 -0.8882  1.8850
48883SOL    HW251461   7.122   8.629   6.084  0.5032 -0.4933  0.4739
48884SOL     OW51462   3.336   7.751  11.451  0.0678 -0.4777  0.3788
48884SOL    HW151463   3.398   7.820  11.428 -0.9436 -0.0443 -1.2898
48884SOL    HW251464   3.309   7.771  11.541  0.4825  0.7814  0.2356
48885SOL     OW51465   0.344   7.635   7.444  0.2031 -1.1232 -0.6041
48885SOL    HW151466   0.399   7.705   7.477  0.2743 -1.4223 -0.0752
48885SOL    HW251467   0.343   7.648   7.349 -1.1990  0.6328 -0.4027
48886SOL     OW51468   5.278   5.404   4.808  0.5505  0.2755 -0.2747
48886SOL    HW151469   5.258   5.311   4.798 -0.8801  0.2596  1.9415
48886SOL    HW251470   5.371   5.406   4.831  0.1704 -0.8551  1.6283
48887SOL     OW51471   1.731   0.689   0.855 -0.0401 -0.0771 -0.0201
48887SOL    HW151472   1.770   0.776   0.860  0.9642 -0.5831  1.7434
48887SOL    HW251473   1.647   0.703   0.811  0.3166  1.6989 -0.2048
48888SOL     OW51474   9.947   7.072   8.461 -0.0967 -0.4119  0.3361
48888SOL    HW151475   9.896   6.992   8.446  0.3845 -1.2730  2.7335
48888SOL    HW251476  10.034   7.039   8.485 -0.2084  0.7462  2.5239
48889SOL     OW51477   3.870   7.855   9.227 -0.7358 -0.4519  0.1117
48889SOL    HW151478   3.901   7.929   9.280  0.5760  0.5567 -1.9705
48889SOL    HW251479   3.884   7.779   9.284 -2.1672  0.8171  2.3420
48890SOL     OW51480   8.369   3.377   1.124  0.3369  0.3521  0.1576
48890SOL    HW151481   8.343   3.298   1.076  2.9785  0.6685 -2.1098
48890SOL    HW251482   8.347   3.449   1.064 -2.5375  1.5357  2.4113
48891SOL     OW51483   2.945   6.407   5.452  0.3495  0.2523  0.2027
48891SOL    HW151484   3.010   6.337   5.464 -0.0886  0.0386  1.4624
48891SOL    HW251485   2.992   6.487   5.475  0.7862  0.3716 -1.0239
48892SOL     OW51486  11.284   4.707   9.585  0.0309 -0.6296  0.5017
48892SOL    HW151487  11.371   4.674   9.609 -0.4088 -1.5068  0.8955
48892SOL    HW251488  11.282   4.796   9.621  1.1164 -0.2415 -0.3316
48893SOL     OW51489  10.537   9.192  10.356 -0.2022  0.3080 -0.1139
48893SOL    HW151490  10.453   9.235  10.370 -1.1623 -1.5703  0.1246
48893SOL    HW251491  10.582   9.201  10.440 -1.2524 -0.9051  0.6147
48894SOL     OW51492   8.295   2.565   3.424  0.0429 -0.0764  0.4498
48894SOL    HW151493   8.303   2.616   3.344  3.1064 -0.0064  0.7085
48894SOL    HW251494   8.250   2.622   3.486  0.4644  1.0541 -0.2747
48895SOL     OW51495   4.572  11.702   3.690 -0.0870 -0.9572  0.2711
48895SOL    HW151496   4.490  11.726   3.731  0.8268  0.6523  1.2570
48895SOL    HW251497   4.599  11.621   3.734 -1.5832 -2.0732 -0.7661
48896SOL     OW51498  10.047   3.591   6.259  0.1244  0.2382 -0.0542
48896SOL    HW151499   9.985   3.622   6.192 -0.6745  2.0575  1.4335
48896SOL    HW251500  10.088   3.671   6.291  0.9823 -0.6715  1.1554
48897SOL     OW51501   7.880   9.424  10.020 -0.1747  0.2164 -0.5788
48897SOL    HW151502   7.826   9.437  10.098  0.0329 -0.3418 -0.3359
48897SOL    HW251503   7.934   9.502  10.015 -0.8927  0.7144 -0.7369
48898SOL     OW51504  11.858  11.450   1.855  0.0426 -0.2121  0.2557
48898SOL    HW151505  11.776  11.444   1.904 -0.6165 -1.7711 -0.9531
48898SOL    HW251506  11.921  11.402   1.908 -0.3611 -0.8316  0.1792
48899SOL     OW51507   3.239   1.972  11.019  0.0177  0.1217 -0.2051
48899SOL    HW151508   3.260   2.024  11.097 -0.1006  1.7497 -1.1941
48899SOL    HW251509   3.149   1.997  10.998 -0.2770 -1.0228 -0.3237
48900SOL     OW51510   5.605  11.680   4.785 -0.0478  0.4538 -0.5077
48900SOL    HW151511   5.521  11.696   4.742 -0.7953 -0.0651  0.6862
48900SOL    HW251512   5.635  11.596   4.750 -0.1863  0.4918 -0.7166
48901SOL     OW51513   6.302   0.010   2.383 -0.3942 -0.1824 -0.3802
48901SOL    HW151514   6.260   0.078   2.435  1.3112  0.6103  0.0111
48901SOL    HW251515   6.336  -0.052   2.447  1.2108  0.4968 -0.5516
48902SOL     OW51516   0.653   0.019   3.721  0.2631 -0.1763 -0.5499
48902SOL    HW151517   0.626   0.065   3.801  1.3275  1.3267 -1.0108
48902SOL    HW251518   0.577   0.023   3.664  0.1181  0.4539 -0.3245
48903SOL     OW51519   1.757   7.267   1.763 -0.1143 -0.1822  0.4280
48903SOL    HW151520   1.836   7.225   1.730 -0.4121  0.1697 -0.7810
48903SOL    HW251521   1.744   7.343   1.706 -1.4612 -0.3867  0.4199
48904SOL     OW51522  11.522   0.380  12.598  0.7169 -0.0847 -0.1423
48904SOL    HW151523  11.505   0.464  12.557  2.0929  0.1508 -0.2615
48904SOL    HW251524  11.450   0.369  12.661 -0.4781  0.3210 -1.3800
48905SOL     OW51525   9.607   1.188   3.146  0.2270 -0.0793 -0.5764
48905SOL    HW151526   9.660   1.122   3.190 -0.7870 -1.2930 -1.1085
48905SOL    HW251527   9.616   1.168   3.053 -1.0930 -0.2780 -0.6784
48906SOL     OW51528   1.854   3.727   0.364  0.2335  0.6243  0.3388
48906SOL    HW151529   1.925   3.663   0.362 -0.3753 -0.1055  1.1570
48906SOL    HW251530   1.868   3.777   0.444 -0.3834  0.2111  0.7175
48907SOL     OW51531  10.414   2.041   4.691 -0.2754 -0.1728 -0.4288
48907SOL    HW151532  10.445   2.097   4.762 -2.3223  0.0364  0.3668
48907SOL    HW251533  10.487   2.038   4.630  1.8503 -0.9119  1.9573
48908SOL     OW51534   4.068  11.429   3.915  0.3978 -0.3198  0.3840
48908SOL    HW151535   4.015  11.459   3.842 -1.4182 -1.6137  1.1055
48908SOL    HW251536   4.140  11.382   3.875 -0.3863 -0.7173 -0.5892
48909SOL     OW51537  11.802   5.166  12.104  0.2225  0.4327  0.0436
48909SOL    HW151538  11.710   5.174  12.077  0.1842 -0.0247  0.0385
48909SOL    HW251539  11.812   5.075  12.129  0.2221  0.8527  1.7203
48910SOL     OW51540   9.055   5.668   4.948  0.3621 -0.4442  0.2121
48910SOL    HW151541   9.030   5.760   4.939  0.3608 -0.3095  1.3979
48910SOL    HW251542   8.978   5.619   4.922 -0.2917 -0.0680  1.3669
48911SOL     OW51543   4.723   2.987   4.637  0.1827  0.1892  0.0394
48911SOL    HW151544   4.772   2.997   4.718 -0.1211 -0.4303  0.3063
48911SOL    HW251545   4.652   2.927   4.659 -0.0900  0.2646 -0.6033
48912SOL     OW51546   8.408  12.395  11.316 -0.0074 -0.5579  0.1478
48912SOL    HW151547   8.440  12.467  11.371  1.4759 -2.3165  1.7412
48912SOL    HW251548   8.459  12.401  11.236  0.3728 -0.0515  0.4244
48913SOL     OW51549   7.117   8.638   5.821  0.2313  0.0568  0.2525
48913SOL    HW151550   7.132   8.729   5.848  0.4551  0.1621 -0.2101
48913SOL    HW251551   7.184   8.621   5.755  0.4102 -0.5581  0.5794
48914SOL     OW51552   8.741   9.303   1.802  0.2262 -0.2913  0.2336
48914SOL    HW151553   8.686   9.365   1.850  0.2611 -0.9086  1.1148
48914SOL    HW251554   8.697   9.218   1.815  0.5896 -0.5671 -0.2978
48915SOL     OW51555   0.908   7.666   1.746  0.0754  0.3410  0.0641
48915SOL    HW151556   0.999   7.636   1.749  0.0548  0.2572 -0.1958
48915SOL    HW251557   0.901   7.725   1.822  0.2548  0.0930  0.2771
48916SOL     OW51558   6.640   0.070   6.305  0.1459  0.2946  0.0411
48916SOL    HW151559   6.699   0.117   6.247  0.3489  1.8348  1.4149
48916SOL    HW251560   6.553   0.081   6.265  0.3057  1.1637 -0.0744
48917SOL     OW51561   2.617  10.583   2.156 -0.0956  0.1490 -0.0690
48917SOL    HW151562   2.682  10.629   2.210 -0.3557 -0.1648  0.5277
48917SOL    HW251563   2.620  10.493   2.189 -0.2537 -0.0511 -0.5965
48918SOL     OW51564   1.870   9.022   2.368  0.0799  0.1292  0.3014
48918SOL    HW151565   1.895   8.971   2.291  0.4347  0.9371 -0.1340
48918SOL    HW251566   1.775   9.010   2.376 -0.0201  0.3365 -0.4952
48919SOL     OW51567   0.958   5.140   9.093 -0.3480  0.2742  0.1264
48919SOL    HW151568   0.989   5.082   9.163 -1.7530 -0.4629  0.1716
48919SOL    HW251569   0.884   5.187   9.131 -0.9679  0.0486 -0.7754
48920SOL     OW51570   5.013   4.958   2.542 -0.1975  1.0985 -0.3405
48920SOL    HW151571   4.965   5.037   2.566  0.5324  1.4988 -0.1623
48920SOL    HW251572   5.005   4.901   2.619 -0.8780  0.9183 -0.5388
48921SOL     OW51573   5.258  11.836   7.740 -0.3405 -0.1389  0.4358
48921SOL    HW151574   5.247  11.776   7.813  0.1277  1.3995  1.8260
48921SOL    HW251575   5.242  11.923   7.777 -0.6668  0.6481 -1.4269
48922SOL     OW51576   2.929  12.397  10.614 -0.0146 -0.0003 -0.6239
48922SOL    HW151577   2.953  12.460  10.545 -1.6254  1.5987  0.2106
48922SOL    HW251578   2.872  12.334  10.570  0.8065 -0.3453 -1.2384
48923SOL     OW51579   4.157   0.904   7.652 -0.1695  0.0770  0.3096
48923SOL    HW151580   4.086   0.850   7.617  0.5405 -0.0112 -1.0419
48923SOL    HW251581   4.166   0.875   7.743  0.4781 -2.4463 -0.4762
48924SOL     OW51582   3.587   5.335   2.132 -0.1503  0.2717  0.4600
48924SOL    HW151583   3.496   5.322   2.161 -0.1612 -2.1880 -0.4807
48924SOL    HW251584   3.587   5.423   2.095 -1.4405  1.4243  2.9175
48925SOL     OW51585   7.190   2.542  10.289  0.4100  0.2959 -1.2852
48925SOL    HW151586   7.274   2.498  10.304  0.7308  0.8545 -1.3974
48925SOL    HW251587   7.139   2.525  10.368  1.5174  1.9443 -0.1329
48926SOL     OW51588   1.960   4.467  10.700 -0.1471  0.7348 -0.0141
48926SOL    HW151589   1.876   4.462  10.655 -0.2568 -1.5382  0.3343
48926SOL    HW251590   2.007   4.537  10.655 -0.8718 -0.3161 -2.5965
48927SOL     OW51591   7.405   1.238   2.390 -0.4625  0.3440  0.5679
48927SOL    HW151592   7.451   1.267   2.311 -0.1980  0.5283  0.7897
48927SOL    HW251593   7.470   1.244   2.460 -0.7253  0.2794  0.8204
48928SOL     OW51594   4.124   4.155   4.097  0.0541 -0.9323 -0.2383
48928SOL    HW151595   4.066   4.170   4.172  0.4680 -0.0965 -0.0722
48928SOL    HW251596   4.068   4.164   4.021 -0.1186 -0.4959 -0.0643
48929SOL     OW51597   0.238   7.799   9.573  0.0023  0.1681  0.8565
48929SOL    HW151598   0.277   7.886   9.584  0.2480  0.0325  1.0891
48929SOL    HW251599   0.209   7.796   9.483  3.3410 -0.8302 -0.3630
48930SOL     OW51600   1.636   7.504  10.607 -0.2826 -0.0767 -0.1761
48930SOL    HW151601   1.721   7.519  10.566  0.1361  2.1577  1.3428
48930SOL    HW251602   1.623   7.409  10.601  1.7306 -0.3389 -1.5066
48931SOL     OW51603   0.495   0.676   6.758 -0.1681 -0.2661  0.0290
48931SOL    HW151604   0.445   0.616   6.813  0.3159 -1.9257 -1.2652
48931SOL    HW251605   0.432   0.707   6.693 -1.0475  2.5907  2.0271
48932SOL     OW51606   8.742  12.410  12.473  0.1867  0.7027 -0.2678
48932SOL    HW151607   8.725  12.396  12.380 -0.2574 -2.3157  0.1758
48932SOL    HW251608   8.702  12.335  12.517  3.4381  0.0922  2.0367
48933SOL     OW51609   6.448   6.949   0.387 -0.4100  0.2582  0.4623
48933SOL    HW151610   6.408   7.020   0.338  0.3459 -0.6745 -1.6054
48933SOL    HW251611   6.537   6.979   0.406 -1.2380  1.3802  3.0303
48934SOL     OW51612   0.558   5.609   3.806  0.2206 -0.4145  0.6433
48934SOL    HW151613   0.649   5.586   3.784  0.6332  0.2760  1.5472
48934SOL    HW251614   0.552   5.595   3.901 -0.4632  0.0399  0.6745
48935SOL     OW51615  11.376   3.164   2.300 -0.1699 -0.2900 -0.4433
48935SOL    HW151616  11.419   3.232   2.248  2.2869 -1.0338  0.4483
48935SOL    HW251617  11.436   3.089   2.295  0.0228 -0.5233  3.0521
48936SOL     OW51618   2.345   1.184   2.634 -0.0283 -0.5401 -0.3480
48936SOL    HW151619   2.268   1.139   2.669  1.7171 -2.8828  0.7607
48936SOL    HW251620   2.417   1.121   2.645  2.6228  2.4358  1.1639
48937SOL     OW51621   9.602   3.801   3.332 -0.7032  0.1979 -0.1081
48937SOL    HW151622   9.538   3.736   3.302 -1.4049  0.7170  0.2392
48937SOL    HW251623   9.626   3.771   3.419 -0.3182 -0.1070 -0.3170
48938SOL     OW51624  10.107   6.885   9.554  0.3399 -0.0509  0.2477
48938SOL    HW151625  10.201   6.869   9.557  0.6494  1.7532  1.5826
48938SOL    HW251626  10.098   6.977   9.529 -1.0989 -0.2536 -0.1148
48939SOL     OW51627   0.380   1.639   6.011 -0.0686  0.3501 -0.2931
48939SOL    HW151628   0.291   1.643   5.975 -0.3352 -0.7036  0.1950
48939SOL    HW251629   0.375   1.688   6.093  0.4866  2.5730 -1.5337
48940SOL     OW51630   0.343   2.846  10.878  0.1538 -0.1331  0.0520
48940SOL    HW151631   0.297   2.808  10.803  0.7621 -0.3526 -0.2177
48940SOL    HW251632   0.390   2.772  10.918  0.0249  0.0273  0.5047
48941SOL     OW51633   6.041   2.244   5.936 -0.1155 -0.2893 -0.5066
48941SOL    HW151634   6.124   2.244   5.887  0.0340  2.0948 -0.3603
48941SOL    HW251635   5.994   2.169   5.901  1.3018 -0.5457 -2.0324
48942SOL     OW51636   9.491  12.509   9.265 -0.3859 -0.5493 -0.7751
48942SOL    HW151637   9.421  12.448   9.292 -0.8832  0.4022  0.1574
48942SOL    HW251638   9.488  12.579   9.330  1.9481 -0.8514 -0.2653
48943SOL     OW51639  10.648   5.301   6.664 -0.1533  0.6958 -0.4514
48943SOL    HW151640  10.700   5.359   6.609  2.0144  0.8987  1.6029
48943SOL    HW251641  10.639   5.220   6.613  2.2726  0.6544 -0.9536
48944SOL     OW51642   8.296   6.378  11.664 -0.4241 -0.9114 -0.3207
48944SOL    HW151643   8.310   6.427  11.584 -0.1705 -0.0598  0.2299
48944SOL    HW251644   8.275   6.444  11.730  1.1962 -1.3765  0.7297
48945SOL     OW51645   2.522  11.802  11.906  0.3531 -0.0894 -0.3556
48945SOL    HW151646   2.588  11.871  11.910  0.1296  0.0839  0.6342
48945SOL    HW251647   2.568  11.722  11.930  0.0234  0.1864  1.2990
48946SOL     OW51648   4.894  11.825   6.292 -0.2207 -0.3354 -0.6255
48946SOL    HW151649   4.974  11.808   6.243 -0.7865 -0.1885 -1.6325
48946SOL    HW251650   4.850  11.740   6.298 -0.6011 -0.1863 -1.2061
48947SOL     OW51651  10.223   5.646   7.101 -0.2619 -0.0810 -0.2200
48947SOL    HW151652  10.287   5.692   7.155  0.7058 -1.7176  0.0825
48947SOL    HW251653  10.197   5.571   7.153 -0.7375 -0.6515 -1.2567
48948SOL     OW51654  12.084  12.529   3.051 -0.0087  0.1636 -0.3869
48948SOL    HW151655  12.090  12.612   3.003  1.1400  0.2128 -0.1888
48948SOL    HW251656  12.045  12.552   3.135  0.3321  0.5139 -0.3228
48949SOL     OW51657   9.976  11.414   7.144 -0.5434 -0.4070  0.4680
48949SOL    HW151658   9.884  11.436   7.139 -0.7986 -1.3054  0.8868
48949SOL    HW251659   9.989  11.347   7.077 -0.3497 -0.7519  0.8416
48950SOL     OW51660   3.677   8.002   9.074 -0.2129 -0.1788 -0.1152
48950SOL    HW151661   3.741   7.964   9.133 -1.5095 -1.3320  0.6190
48950SOL    HW251662   3.608   7.936   9.068 -1.2945  0.9725 -0.9397
48951SOL     OW51663   3.331  11.254   6.589  0.1932  0.2293  0.0774
48951SOL    HW151664   3.250  11.245   6.537  0.6025 -0.8572 -0.3945
48951SOL    HW251665   3.398  11.210   6.537  0.6815 -0.6486  1.3992
48952SOL     OW51666  11.020   3.450   7.625 -0.2085  0.3115  0.2917
48952SOL    HW151667  10.953   3.485   7.684  1.3644 -0.3940  2.6768
48952SOL    HW251668  10.977   3.443   7.540 -3.1614 -0.2013  1.7131
48953SOL     OW51669   7.364   4.629   6.715 -0.5859  0.4685 -0.0785
48953SOL    HW151670   7.387   4.542   6.749 -0.3392  0.4464 -0.2999
48953SOL    HW251671   7.413   4.690   6.771 -0.6562  0.4589 -0.0064
48954SOL     OW51672   8.112   5.443  11.257 -0.2214  0.5402 -0.1169
48954SOL    HW151673   8.176   5.466  11.323 -1.2339 -0.8108  1.4222
48954SOL    HW251674   8.155   5.375  11.204  0.5365  1.5194 -0.7830
48955SOL     OW51675   5.265   8.220   8.872  0.1591 -0.3505  0.3686
48955SOL    HW151676   5.318   8.150   8.909 -1.0850 -1.1449  0.7155
48955SOL    HW251677   5.327   8.275   8.824  1.1440 -1.7732 -0.0367
48956SOL     OW51678  12.016   1.675   7.153 -0.1243 -0.6410 -0.0449
48956SOL    HW151679  11.975   1.758   7.175 -0.1822  0.0014 -2.3138
48956SOL    HW251680  11.967   1.610   7.202 -1.4555  0.4640  0.1494
48957SOL     OW51681  11.841   3.047   9.461  0.7860 -0.4884 -0.1615
48957SOL    HW151682  11.817   2.985   9.530  2.1913 -1.4206 -0.4555
48957SOL    HW251683  11.914   3.004   9.415 -0.9492 -0.5300 -3.1046
48958SOL     OW51684   1.630  11.914   5.993 -0.0109 -0.2120 -0.1028
48958SOL    HW151685   1.566  11.983   5.979 -1.2338 -1.1717  0.6084
48958SOL    HW251686   1.714  11.956   5.974 -0.5966  1.8130  1.3913
48959SOL     OW51687  11.877  10.509   4.785  0.3710 -0.1067 -0.3698
48959SOL    HW151688  11.939  10.573   4.750  0.5460  0.2789  0.6149
48959SOL    HW251689  11.830  10.477   4.708  1.1893  0.2329 -1.0297
48960SOL     OW51690   7.136   6.284  11.157  0.1329 -0.1495 -0.4665
48960SOL    HW151691   7.080   6.323  11.090 -1.0953  1.4476  1.3634
48960SOL    HW251692   7.075   6.253  11.224  1.3501 -0.4809  0.5315
48961SOL     OW51693  10.438   3.317   6.666  0.0260 -0.0222  0.1223
48961SOL    HW151694  10.346   3.311   6.690  0.4917 -0.4054  2.0238
48961SOL    HW251695  10.485   3.294   6.747  1.7837  0.6969 -0.6393
48962SOL     OW51696   7.646   2.358   3.358  0.0641  0.2470  0.4186
48962SOL    HW151697   7.618   2.364   3.266  0.3434  1.2063  0.3824
48962SOL    HW251698   7.715   2.292   3.358 -0.1398  0.0265 -0.0035
48963SOL     OW51699   5.873   7.422   6.777 -0.1836 -0.5532  0.4950
48963SOL    HW151700   5.783   7.413   6.810 -0.9890  0.6987 -1.1803
48963SOL    HW251701   5.876   7.364   6.701 -0.1767  0.7249 -0.5166
48964SOL     OW51702   5.184   4.397   2.003 -0.3281 -0.5958 -0.1565
48964SOL    HW151703   5.227   4.467   2.053 -0.4367 -0.0996 -0.7318
48964SOL    HW251704   5.135   4.444   1.935 -0.7844 -1.2169 -0.2608
48965SOL     OW51705   7.316  11.504   9.939 -0.1581  0.4233 -0.3278
48965SOL    HW151706   7.399  11.539   9.905  0.1942  0.5948  0.6567
48965SOL    HW251707   7.254  11.515   9.868  0.2518  1.9288 -0.4821
48966SOL     OW51708  11.794  10.355   9.192 -0.0505 -0.2995 -0.0540
48966SOL    HW151709  11.867  10.341   9.132  0.3300 -2.7665  0.8492
48966SOL    HW251710  11.835  10.384   9.274 -0.3208  0.5223 -0.2013
48967SOL     OW51711   2.003   1.429  10.314 -0.0447  0.1856  0.5755
48967SOL    HW151712   2.000   1.344  10.270 -0.2592  0.4496  0.0757
48967SOL    HW251713   1.912   1.457  10.321 -0.0053  0.1886  1.1081
48968SOL     OW51714  10.145   0.459   1.365 -0.0354 -0.0630 -0.2775
48968SOL    HW151715  10.234   0.433   1.342  0.4567 -0.4860  1.8904
48968SOL    HW251716  10.156   0.522   1.437 -1.4557  0.6718 -0.6648
48969SOL     OW51717   5.609   7.777   4.286 -0.0988  0.4307  1.2982
48969SOL    HW151718   5.549   7.774   4.360 -1.0526  0.0283  0.5276
48969SOL    HW251719   5.618   7.870   4.265  0.9164  0.6349  2.4726
48970SOL     OW51720   4.908   7.878   1.049  0.0340 -0.4158  0.2833
48970SOL    HW151721   4.999   7.849   1.055  0.4925  1.0695  0.9160
48970SOL    HW251722   4.913   7.973   1.060 -1.6147 -0.3383  0.5003
48971SOL     OW51723   6.096   7.803   7.653  1.1332  0.8638  0.1841
48971SOL    HW151724   6.132   7.737   7.594 -1.1274  0.0380 -0.3832
48971SOL    HW251725   6.094   7.760   7.738  0.0704  0.3158 -0.0994
48972SOL     OW51726   4.024   5.844   5.409 -0.2264  0.4757  0.1233
48972SOL    HW151727   4.015   5.829   5.315 -0.2782  0.7767  0.0781
48972SOL    HW251728   3.980   5.769   5.449 -0.0006  0.2275 -0.0902
48973SOL     OW51729  10.020   1.520   7.242 -0.0732 -0.5787 -0.5259
48973SOL    HW151730  10.005   1.434   7.204  2.0396 -0.9874 -0.5502
48973SOL    HW251731  10.114   1.534   7.234 -0.2830  1.4922  0.0108
48974SOL     OW51732  12.507   6.235  12.064 -0.9601 -0.4985 -0.2244
48974SOL    HW151733  12.435   6.280  12.020 -1.2692  1.2557  1.9158
48974SOL    HW251734  12.497   6.257  12.156  1.9898 -0.6472  0.2441
48975SOL     OW51735   0.776   7.094   8.636  0.0784  0.2256  0.8920
48975SOL    HW151736   0.747   7.090   8.545  1.6164 -1.3092  0.4065
48975SOL    HW251737   0.717   7.156   8.678 -3.1534 -1.8345 -0.2417
48976SOL     OW51738   1.257   3.041  10.846 -0.2841 -0.1883  0.4364
48976SOL    HW151739   1.266   2.976  10.776 -2.2780 -0.1040  0.0205
48976SOL    HW251740   1.317   3.012  10.914  1.7600 -0.2538 -1.2838
48977SOL     OW51741   6.912   4.323   7.473 -0.1717 -0.1659  0.3517
48977SOL    HW151742   6.852   4.340   7.546  0.7750 -2.2118  1.7396
48977SOL    HW251743   6.860   4.275   7.409 -0.6542  0.3882  0.3216
48978SOL     OW51744   2.331   5.193   9.446  0.0228  0.1878 -0.1515
48978SOL    HW151745   2.398   5.125   9.442 -1.6380 -1.4943 -0.6462
48978SOL    HW251746   2.250   5.149   9.421 -1.6972  1.6148  2.4482
48979SOL     OW51747   7.803   5.833   7.230  0.0654 -0.2677  0.2527
48979SOL    HW151748   7.756   5.823   7.147 -0.9372 -0.2305  0.7940
48979SOL    HW251749   7.743   5.797   7.295  0.0835  1.3098  1.1774
48980SOL     OW51750  11.316   9.017  10.679 -0.3725 -0.5830 -0.0435
48980SOL    HW151751  11.246   8.954  10.693 -1.1748  0.3171  0.0623
48980SOL    HW251752  11.346   8.999  10.589  0.5698 -2.2161  0.5552
48981SOL     OW51753   1.399  11.523   3.125  0.2566  0.3999  0.1346
48981SOL    HW151754   1.315  11.545   3.086  0.9759 -1.3576 -2.6616
48981SOL    HW251755   1.461  11.584   3.085  0.6215  0.4281  0.7257
48982SOL     OW51756  12.087   0.713  10.254  0.2548 -0.4926  0.4581
48982SOL    HW151757  12.144   0.789  10.264  0.7147 -0.7230 -0.3951
48982SOL    HW251758  12.010   0.747  10.207 -1.8375  0.5541  4.1614
48983SOL     OW51759  10.011   8.251   4.088 -0.1366 -0.2259 -0.5020
48983SOL    HW151760   9.956   8.179   4.056  0.7365 -0.2596 -2.0621
48983SOL    HW251761  10.097   8.233   4.051  0.2457  1.2819 -0.4128
48984SOL     OW51762   5.014  10.167   6.020  0.2338 -0.2032 -0.0016
48984SOL    HW151763   5.063  10.231   5.969  0.7521 -0.9757 -0.4947
48984SOL    HW251764   4.938  10.146   5.966  0.5239 -0.6479 -0.2510
48985SOL     OW51765   7.492   7.709  11.231  0.2253 -0.0402  0.3673
48985SOL    HW151766   7.530   7.705  11.319 -0.3996 -0.6215  0.6159
48985SOL    HW251767   7.399   7.694  11.244 -0.0270  0.8833 -0.2959
48986SOL     OW51768  11.271   6.696   2.855 -0.3394  0.0049 -0.3936
48986SOL    HW151769  11.261   6.644   2.935  0.0365 -0.9931 -0.9756
48986SOL    HW251770  11.248   6.785   2.881  1.2084  0.0009  1.2213
48987SOL     OW51771   3.441   3.840   7.265  0.3466  0.1248 -0.1629
48987SOL    HW151772   3.499   3.825   7.190 -0.2740 -1.0032 -0.4333
48987SOL    HW251773   3.441   3.935   7.276  2.1798  0.1738 -0.2031
48988SOL     OW51774   4.828   1.127   8.201 -0.3561 -0.3121  0.0865
48988SOL    HW151775   4.820   1.040   8.238 -0.0757 -0.5212 -0.3315
48988SOL    HW251776   4.849   1.184   8.276 -0.9401 -0.5339  0.4178
48989SOL     OW51777   3.218   3.555   9.684 -0.4876  0.5024 -0.0045
48989SOL    HW151778   3.201   3.473   9.730  1.0244  0.0622 -0.1826
48989SOL    HW251779   3.175   3.622   9.737 -3.3617 -0.5527 -0.8369
48990SOL     OW51780  10.034   3.990   3.778  0.5829  0.1689 -0.7491
48990SOL    HW151781  10.083   4.068   3.754 -0.9655  1.7087  0.7710
48990SOL    HW251782   9.961   3.987   3.716  1.5667 -1.1216 -1.9061
48991SOL     OW51783  10.235   6.356   9.799 -0.1396 -0.3287  0.1721
48991SOL    HW151784  10.175   6.420   9.760  0.6278  0.4589  0.2535
48991SOL    HW251785  10.257   6.297   9.726  1.1213  1.0123 -0.5701
48992SOL     OW51786   5.136   3.870   0.006 -0.3652  0.3839  0.1168
48992SOL    HW151787   5.181   3.933   0.062  0.0343  1.7491 -1.6717
48992SOL    HW251788   5.196   3.795   0.001  0.2588  0.8630  0.3217
48993SOL     OW51789   6.867   1.545   8.465 -0.3727  0.3897  0.1625
48993SOL    HW151790   6.862   1.455   8.433  2.0327  0.2459  0.0268
48993SOL    HW251791   6.884   1.536   8.559  0.5802  0.6807  0.0237
48994SOL     OW51792   8.673  10.506   7.208 -0.2933  0.1873  0.0702
48994SOL    HW151793   8.704  10.419   7.183  0.2471  0.6427 -0.9229
48994SOL    HW251794   8.577  10.498   7.208 -0.2849 -0.0949 -1.2428
48995SOL     OW51795   6.637   2.225  11.356  0.0284 -0.0728  0.0324
48995SOL    HW151796   6.722   2.216  11.313 -0.5857 -0.1158 -1.2308
48995SOL    HW251797   6.630   2.318  11.376 -0.8402  0.5084 -2.5906
48996SOL     OW51798   4.173   0.337   0.613 -0.3387  0.0758  0.1810
48996SOL    HW151799   4.180   0.371   0.702  0.9116  1.5847 -0.4393
48996SOL    HW251800   4.261   0.309   0.590 -0.7240 -0.6650 -0.4456
48997SOL     OW51801  10.971   7.532  10.313  0.0017  0.6265  0.1924
48997SOL    HW151802  10.974   7.495  10.225  0.0723  1.8327 -0.3260
48997SOL    HW251803  11.062   7.526  10.344 -0.0356  0.1444  0.2195
48998SOL     OW51804  11.368   1.576   6.878  0.9342  0.5533 -0.1300
48998SOL    HW151805  11.428   1.567   6.804 -0.2296 -2.3706 -0.8992
48998SOL    HW251806  11.294   1.625   6.843  0.3730 -0.8433 -1.0058
48999SOL     OW51807   9.823   1.687   4.197  0.1276  0.6187 -0.0128
48999SOL    HW151808   9.905   1.638   4.205  1.0758  2.1724  0.3032
48999SOL    HW251809   9.813   1.702   4.104  0.2452  0.4826 -0.0479
49000SOL     OW51810   0.944   2.656  10.641 -0.4542  0.2350 -0.5606
49000SOL    HW151811   1.029   2.699  10.627  1.1450 -2.8842 -1.3666
49000SOL    HW251812   0.925   2.670  10.733  1.4280  0.2788 -0.1341
49001SOL     OW51813   0.968   6.366  10.928 -0.0556 -0.3919 -0.0908
49001SOL    HW151814   0.889   6.312  10.930 -0.8977  0.6828 -1.9832
49001SOL    HW251815   1.034   6.311  10.886 -0.6265 -0.3655 -1.0697
49002SOL     OW51816   4.849   2.957   4.876 -0.3500  1.0428 -0.2572
49002SOL    HW151817   4.922   3.019   4.869  0.1807  0.5766  0.8855
49002SOL    HW251818   4.891   2.872   4.889 -1.0615  0.3943 -1.8559
49003SOL     OW51819   9.982   9.942   5.102 -0.4910  0.5283  0.9322
49003SOL    HW151820   9.992   9.991   5.184 -0.2984  0.5648  0.8880
49003SOL    HW251821   9.905   9.980   5.060  0.8197  2.1942 -0.0727
49004SOL     OW51822   2.013   6.859   7.087 -0.5223  0.4381 -0.1458
49004SOL    HW151823   2.053   6.945   7.102  1.3247 -0.7265  2.6134
49004SOL    HW251824   2.043   6.833   7.000 -0.2481  2.1351 -0.5840
49005SOL     OW51825   9.795   7.460   7.346  1.0453 -0.6049 -0.1404
49005SOL    HW151826   9.805   7.461   7.441  0.9167 -2.7159 -0.0437
49005SOL    HW251827   9.726   7.524   7.328  0.1674 -1.0886  1.3237
49006SOL     OW51828   2.165   0.818   8.499  0.4563 -0.4612  0.3135
49006SOL    HW151829   2.130   0.756   8.563 -0.4216  0.2962  0.5969
49006SOL    HW251830   2.088   0.847   8.449  0.8029  0.5675  0.3448
49007SOL     OW51831  11.972   7.163   1.985  0.2465  0.7257 -0.4446
49007SOL    HW151832  11.977   7.155   1.890 -1.2952 -0.2567 -0.4757
49007SOL    HW251833  12.034   7.098   2.018  0.1076  0.4237 -0.7765
49008SOL     OW51834   4.780   5.854   0.108  0.2712 -0.4747  0.1514
49008SOL    HW151835   4.804   5.773   0.154  0.0018 -1.1804 -0.9143
49008SOL    HW251836   4.764   5.917   0.179  2.5914 -0.7017  0.9547
49009SOL     OW51837   7.426   7.857  10.235 -0.2030  0.1321 -0.2318
49009SOL    HW151838   7.457   7.769  10.255  1.5088  0.6684 -0.3742
49009SOL    HW251839   7.425   7.902  10.320 -1.2527 -0.0555 -0.1301
49010SOL     OW51840  10.464   0.092   9.495 -0.0364  0.2162 -0.5788
49010SOL    HW151841  10.448   0.154   9.565 -0.2472  1.0643 -1.3616
49010SOL    HW251842  10.502   0.144   9.424  1.6090 -0.8843 -0.5595
49011SOL     OW51843   8.088  12.442  12.006 -0.2317  0.2586  0.0702
49011SOL    HW151844   8.064  12.463  11.916 -1.5471  2.8281  0.9172
49011SOL    HW251845   8.004  12.437  12.052  0.2633 -2.9410  0.8709
49012SOL     OW51846  11.285   0.346  10.235  0.3082 -0.0554  0.2696
49012SOL    HW151847  11.311   0.436  10.256  0.0412  0.0830  0.0199
49012SOL    HW251848  11.199   0.355  10.193  0.1265 -0.4574  0.5470
49013SOL     OW51849   6.210   2.770  10.246 -0.3362 -0.6947 -0.2590
49013SOL    HW151850   6.261   2.774  10.166 -0.8952  0.0337 -0.5877
49013SOL    HW251851   6.184   2.860  10.263 -0.5013 -0.8875  0.5634
49014SOL     OW51852   4.212   4.796   8.476  0.8282  0.2738  0.7502
49014SOL    HW151853   4.257   4.743   8.410 -0.5301 -0.9977  0.8086
49014SOL    HW251854   4.133   4.746   8.498  0.5930  1.2991  2.3955
49015SOL     OW51855   5.622   1.577  12.161  0.3968 -0.2859  0.3427
49015SOL    HW151856   5.574   1.506  12.118  0.0572  0.0724  0.1218
49015SOL    HW251857   5.713   1.547  12.162  0.0334 -1.4599  1.7637
49016SOL     OW51858   8.341   6.581   9.357 -0.0052  0.0267 -0.1596
49016SOL    HW151859   8.396   6.558   9.283  0.8635 -2.1771  1.0912
49016SOL    HW251860   8.266   6.521   9.351  0.1082 -0.2215  0.7519
49017SOL     OW51861   7.709   4.073   2.843  0.7291  0.8604 -0.0849
49017SOL    HW151862   7.789   4.077   2.792  0.3906  1.0093 -0.6174
49017SOL    HW251863   7.736   4.092   2.933  1.1561  1.8496 -0.4104
49018SOL     OW51864   7.497   1.634   5.116  0.4657  0.4184  0.3777
49018SOL    HW151865   7.478   1.718   5.159  0.3758 -0.7674  2.8389
49018SOL    HW251866   7.554   1.588   5.178 -0.0060 -1.6143 -0.6145
49019SOL     OW51867  11.932   2.171   8.521  0.5136  0.5717  0.3067
49019SOL    HW151868  11.885   2.254   8.517  0.7650  0.7042  0.0986
49019SOL    HW251869  11.905   2.124   8.442  0.8688  0.7212  0.0974
49020SOL     OW51870   6.617   5.204  11.289  0.1297 -0.0286 -0.5165
49020SOL    HW151871   6.562   5.132  11.259  0.0766 -0.7445  1.2164
49020SOL    HW251872   6.561   5.257  11.345  0.7399  0.1895 -0.0942
49021SOL     OW51873   6.132   5.285   7.443  0.0404 -0.3152 -0.7353
49021SOL    HW151874   6.227   5.291   7.457 -0.2905  1.3800  1.2587
49021SOL    HW251875   6.096   5.269   7.531 -1.6656  1.3141 -1.0852
49022SOL     OW51876   9.424  10.881   6.680 -0.2958 -0.1876  0.2558
49022SOL    HW151877   9.453  10.971   6.667  0.2377 -0.5816 -1.5218
49022SOL    HW251878   9.333  10.880   6.650  0.3134 -0.6537 -1.6664
49023SOL     OW51879   1.403   0.738   8.174  0.3659 -0.7078  0.3082
49023SOL    HW151880   1.398   0.738   8.079  2.6440 -1.4458  0.1241
49023SOL    HW251881   1.459   0.812   8.196 -3.2368  1.9869  1.4613
49024SOL     OW51882   8.826  10.128   1.219 -0.4076 -0.5291 -0.0540
49024SOL    HW151883   8.821  10.035   1.239 -0.4084 -0.6271 -0.5031
49024SOL    HW251884   8.816  10.171   1.304  0.6498 -0.9556  0.3009
49025SOL     OW51885  12.443   1.396  12.526 -0.0036  0.8884 -0.4592
49025SOL    HW151886  12.394   1.415  12.447  2.1800  2.1969 -1.5678
49025SOL    HW251887  12.491   1.476  12.546 -0.5409  0.6384  2.2733
49026SOL     OW51888   7.915   1.225  10.802 -0.8122 -0.1957 -0.2974
49026SOL    HW151889   7.874   1.213  10.888 -1.9063 -3.1106 -1.1148
49026SOL    HW251890   7.844   1.255  10.746 -0.7852 -0.8981 -0.7259
49027SOL     OW51891  10.508   2.640   8.087 -0.0174  0.3183  0.0372
49027SOL    HW151892  10.517   2.599   8.173  0.4368  0.5861  0.1183
49027SOL    HW251893  10.428   2.601   8.051  0.0003 -0.0862  0.4169
49028SOL     OW51894   7.047   5.464   9.761 -0.1185 -0.3167 -0.1966
49028SOL    HW151895   7.087   5.549   9.782 -0.2194 -0.3710  0.2329
49028SOL    HW251896   7.019   5.430   9.846  1.2268 -1.4384 -0.1584
49029SOL     OW51897   6.501   4.774   9.018 -0.0604  0.4496  0.7991
49029SOL    HW151898   6.519   4.692   8.972 -0.7051  0.6218  0.2072
49029SOL    HW251899   6.543   4.841   8.963 -0.8183  0.6550  0.4524
49030SOL     OW51900   6.415   2.952   6.273  0.2083  0.8960  0.1547
49030SOL    HW151901   6.424   2.999   6.191  0.5974  1.7231  0.6537
49030SOL    HW251902   6.375   2.868   6.249  0.0272  1.2495 -0.8255
49031SOL     OW51903   8.828   6.918   2.449 -0.1459  0.5577  0.0621
49031SOL    HW151904   8.843   6.848   2.385  0.0821  0.1950  0.5016
49031SOL    HW251905   8.773   6.877   2.516 -2.1851  1.5219 -0.9356
49032SOL     OW51906   5.384  11.473   9.302 -0.3019 -0.3666 -0.3324
49032SOL    HW151907   5.472  11.441   9.283  0.5388  2.7514 -2.4630
49032SOL    HW251908   5.391  11.515   9.388  0.3418  0.0653 -0.5968
49033SOL     OW51909   8.079  12.004  11.453  0.1212 -0.2904 -0.4546
49033SOL    HW151910   8.098  11.931  11.512 -1.6620  0.0446  0.6227
49033SOL    HW251911   7.984  12.016  11.460  0.4160  2.5742 -0.0566
49034SOL     OW51912   3.937  10.664   5.599  0.0249  0.0034  0.0068
49034SOL    HW151913   3.875  10.734   5.617 -0.4338 -0.2422 -0.5809
49034SOL    HW251914   3.909  10.591   5.654 -0.1146 -0.0540 -0.1386
49035SOL     OW51915   8.991   0.068   3.013 -0.5383 -0.5041  0.0142
49035SOL    HW151916   8.986   0.048   3.107 -3.8446  0.3478  0.1415
49035SOL    HW251917   8.951  -0.009   2.970  0.4715 -0.6582 -0.6707
49036SOL     OW51918   9.278   6.625  11.719 -0.0759  0.3276  0.3183
49036SOL    HW151919   9.187   6.629  11.687  0.6762  1.0296 -1.9155
49036SOL    HW251920   9.314   6.547  11.676  1.1191  1.5793 -1.0423
49037SOL     OW51921   7.340   5.269   8.612 -0.5125 -0.1429 -0.0631
49037SOL    HW151922   7.303   5.340   8.559 -2.4468 -0.6324  0.5391
49037SOL    HW251923   7.428   5.257   8.578 -0.3265  2.1643 -0.5570
49038SOL     OW51924  12.476   6.313  10.776 -0.2000  0.1912  0.0902
49038SOL    HW151925  12.434   6.321  10.861 -0.0681  0.4909  0.1292
49038SOL    HW251926  12.405   6.288  10.717 -0.1676 -0.6457  0.4021
49039SOL     OW51927  11.633   9.806  10.638  0.3640  0.4544  0.1691
49039SOL    HW151928  11.553   9.784  10.591  1.3035 -1.0032 -0.8356
49039SOL    HW251929  11.613   9.787  10.730 -0.8643  1.4352  0.1259
49040SOL     OW51930  12.067   2.770   4.218 -1.0253 -0.1313  0.4878
49040SOL    HW151931  12.095   2.734   4.302  1.0584 -0.1528 -0.1696
49040SOL    HW251932  12.028   2.855   4.240  1.2123  0.7423  1.3525
49041SOL     OW51933   2.282   3.559   5.848 -0.0616 -0.0297 -0.1153
49041SOL    HW151934   2.243   3.613   5.917  0.3416 -0.2060  0.2565
49041SOL    HW251935   2.374   3.552   5.872  0.0687 -0.1495 -0.6391
49042SOL     OW51936  11.522   1.827   0.081  0.1749  0.6812  0.3370
49042SOL    HW151937  11.446   1.808   0.026  1.6041  0.7167 -1.7919
49042SOL    HW251938  11.591   1.772   0.046  1.4398  1.5024  1.4586
49043SOL     OW51939   8.262   8.578   4.090 -0.1592  0.3972 -0.1564
49043SOL    HW151940   8.226   8.550   4.174 -0.5211  1.4378  0.0492
49043SOL    HW251941   8.207   8.652   4.063  0.4758  0.6214 -0.9000
49044SOL     OW51942   2.302  12.125   5.788 -0.6349 -0.1597  0.1961
49044SOL    HW151943   2.257  12.173   5.858 -0.9087  2.0642 -1.3860
49044SOL    HW251944   2.236  12.115   5.720 -0.1134 -1.4161 -0.1423
49045SOL     OW51945   0.667   0.570   5.571  0.2437  0.1262  0.3436
49045SOL    HW151946   0.759   0.567   5.599  1.0104 -0.3711 -2.0199
49045SOL    HW251947   0.658   0.655   5.527 -0.0280 -0.3862 -0.6216
49046SOL     OW51948   4.168   6.264   5.693 -0.5546  0.3654  0.3752
49046SOL    HW151949   4.245   6.318   5.677 -0.0019 -0.4383  0.2457
49046SOL    HW251950   4.122   6.307   5.764 -0.4304  1.3125 -0.0973
49047SOL     OW51951  11.976   1.898   6.913 -0.1845  0.4226  0.0286
49047SOL    HW151952  11.932   1.981   6.930 -0.0975  0.2691  1.0794
49047SOL    HW251953  12.044   1.893   6.980 -0.6644 -0.8372  0.4428
49048SOL     OW51954   2.212   0.864   7.679  0.2611  0.2365  0.6125
49048SOL    HW151955   2.134   0.823   7.640  0.1546  1.2255 -0.2395
49048SOL    HW251956   2.178   0.940   7.727  0.7648  1.1061 -0.3851
49049SOL     OW51957   8.540   5.671  11.995  0.3877 -0.4905  0.3862
49049SOL    HW151958   8.458   5.696  11.950 -0.6585 -1.3093  1.7569
49049SOL    HW251959   8.604   5.663  11.924 -0.9303 -0.6825 -0.8437
49050SOL     OW51960  12.051  12.643   7.663  0.2030  0.1275 -0.0316
49050SOL    HW151961  12.081  12.578   7.599  0.2131  1.0229 -0.9643
49050SOL    HW251962  12.042  12.594   7.745  0.8243 -0.9063 -0.5612
49051SOL     OW51963   1.380   1.856   8.525 -0.1956  0.0210 -0.1258
49051SOL    HW151964   1.379   1.951   8.523  1.9196  0.0873 -0.1421
49051SOL    HW251965   1.387   1.834   8.617 -0.4282 -0.1304 -0.1419
49052SOL     OW51966   7.585   8.282  12.225  0.8276 -0.5284  0.1190
49052SOL    HW151967   7.608   8.263  12.134 -0.7041 -0.7729 -0.2496
49052SOL    HW251968   7.610   8.203  12.273 -0.0361 -1.1515 -0.4190
49053SOL     OW51969  11.525   8.421   4.433 -0.0211 -0.2329  0.5554
49053SOL    HW151970  11.488   8.372   4.359 -0.2399 -0.2382  0.6676
49053SOL    HW251971  11.493   8.510   4.422 -0.5579 -0.3702  0.9823
49054SOL     OW51972  11.421   8.559  10.774  0.1704 -0.2471  0.4382
49054SOL    HW151973  11.333   8.523  10.788  0.6954 -2.0603 -0.6471
49054SOL    HW251974  11.412   8.614  10.696 -0.1573  0.1794  0.7725
49055SOL     OW51975   0.551   4.281  10.754  0.5419  0.2662  0.1514
49055SOL    HW151976   0.559   4.377  10.759  2.3565  0.1052  1.5097
49055SOL    HW251977   0.488   4.259  10.823  1.2171  0.4056  0.8286
49056SOL     OW51978   1.122   6.326   0.643 -0.0162  0.1549 -0.0935
49056SOL    HW151979   1.055   6.284   0.590 -1.2274  2.1703 -0.2384
49056SOL    HW251980   1.169   6.384   0.582  1.4264 -0.6822  0.1596
49057SOL     OW51981   1.952   3.483   0.052 -0.2119  0.8200  0.1459
49057SOL    HW151982   1.859   3.466   0.070 -0.4940  0.0221 -1.8327
49057SOL    HW251983   1.952   3.535  -0.028  1.0577  0.4007 -0.1534
49058SOL     OW51984   9.182   0.909  10.134  0.1783 -0.1050  0.7409
49058SOL    HW151985   9.204   1.000  10.149  1.0307 -0.1988  0.1082
49058SOL    HW251986   9.201   0.894  10.041  0.0517 -0.9203  0.8335
49059SOL     OW51987  10.842  11.908   9.047  0.1224  0.3474  0.6259
49059SOL    HW151988  10.925  11.928   9.091  2.2064 -1.3878 -2.0972
49059SOL    HW251989  10.824  11.817   9.072 -0.6662  0.5398  0.7671
49060SOL     OW51990  12.284   9.427   7.975 -0.0732  0.3321  0.3407
49060SOL    HW151991  12.317   9.354   8.027 -0.1417  0.1683  0.1565
49060SOL    HW251992  12.248   9.489   8.039 -1.0729 -0.3259  0.4328
49061SOL     OW51993  12.125   5.370   5.008 -0.5871  0.3125 -0.3098
49061SOL    HW151994  12.035   5.339   5.008 -0.6392  0.4191  0.7336
49061SOL    HW251995  12.177   5.290   4.997 -0.7572 -0.0675  1.3520
49062SOL     OW51996   8.155   7.606  10.063  0.5169  0.3844 -0.0150
49062SOL    HW151997   8.084   7.641  10.010 -0.6445 -1.0002  0.5711
49062SOL    HW251998   8.229   7.600  10.002 -0.0309  1.2535 -0.7903
49063SOL     OW51999   7.058  10.172   1.821  0.3761 -0.1881  0.4079
49063SOL    HW152000   7.099  10.118   1.753 -0.5684 -1.2559  0.6587
49063SOL    HW252001   6.975  10.201   1.782  1.8207  3.0847 -0.6184
49064SOL     OW52002  10.659  11.909   3.296  0.2224  0.2101 -0.2447
49064SOL    HW152003  10.594  11.899   3.226  0.2305 -0.1479 -0.2050
49064SOL    HW252004  10.683  11.819   3.319 -0.8706  0.2720  1.2344
49065SOL     OW52005  10.924   9.330   3.806 -0.1558 -0.6803 -0.4947
49065SOL    HW152006  10.907   9.324   3.712 -0.9145  1.9330 -0.5956
49065SOL    HW252007  10.842   9.304   3.847 -0.6539  0.5497 -0.6653
49066SOL     OW52008  11.320   8.235  11.678 -0.5137  0.1358 -0.1388
49066SOL    HW152009  11.354   8.235  11.767  0.2163  2.3865 -0.3451
49066SOL    HW252010  11.343   8.149  11.643 -2.4771 -1.5775  2.3686
49067SOL     OW52011   3.665   5.505  12.061  0.1385 -0.4725  0.0495
49067SOL    HW152012   3.757   5.481  12.051  0.5771  1.1358 -0.1054
49067SOL    HW252013   3.660   5.596  12.029 -1.4401 -0.4225  0.3316
49068SOL     OW52014   3.171   1.801   0.022 -0.2989 -0.1840 -0.1170
49068SOL    HW152015   3.104   1.768  -0.038 -2.0898 -0.9006  2.1103
49068SOL    HW252016   3.241   1.736   0.017  0.0833  0.3334 -2.1546
49069SOL     OW52017   4.837   0.527   5.312  0.1809 -0.0028  0.6452
49069SOL    HW152018   4.819   0.603   5.367  2.0255  0.6887  0.3563
49069SOL    HW252019   4.751   0.502   5.277 -0.5210  1.7361  1.0283
49070SOL     OW52020   2.725  10.827   3.831  1.2746  0.2165 -0.1784
49070SOL    HW152021   2.741  10.907   3.780  0.4869 -0.7617 -2.0299
49070SOL    HW252022   2.744  10.755   3.771 -1.7521 -0.9971  0.1453
49071SOL     OW52023  10.752   7.974   0.771 -0.0217  0.0841 -0.1104
49071SOL    HW152024  10.822   7.990   0.708 -0.9725 -1.6338 -1.6692
49071SOL    HW252025  10.703   8.057   0.773  1.7682  1.1998  0.7616
49072SOL     OW52026   9.272   9.245   9.963  0.3211  0.0961  0.4003
49072SOL    HW152027   9.198   9.306   9.957  0.2001 -0.1633 -1.5639
49072SOL    HW252028   9.233   9.163   9.994 -0.2227 -0.0202 -0.5558
49073SOL     OW52029   5.874  10.163  10.626  0.1984 -0.0311  0.2663
49073SOL    HW152030   5.843  10.221  10.696 -0.0493  1.3279 -0.9250
49073SOL    HW252031   5.901  10.222  10.556  1.9044 -1.3093 -0.2197
49074SOL     OW52032   5.160   2.840  11.420 -0.1247  0.5880  0.4834
49074SOL    HW152033   5.240   2.893  11.417 -1.0496  2.0162 -2.3601
49074SOL    HW252034   5.093   2.900  11.452 -0.5289  0.0804  0.6012
49075SOL     OW52035   0.114   5.703   7.418 -0.6609 -0.4476 -0.3089
49075SOL    HW152036   0.080   5.711   7.329  1.0591 -1.1787 -1.0601
49075SOL    HW252037   0.136   5.611   7.427  1.1701  0.0011  0.1014
49076SOL     OW52038   5.941   7.552   1.007 -0.3168 -0.1595  0.2604
49076SOL    HW152039   5.925   7.598   1.090 -0.0418 -0.1826  0.3285
49076SOL    HW252040   5.926   7.619   0.940  0.3886  0.1253  0.3736
49077SOL     OW52041   1.970  10.023   0.647 -0.4529  0.1112 -0.3449
49077SOL    HW152042   2.037   9.959   0.668 -1.1478 -0.2224  0.9771
49077SOL    HW252043   1.974  10.087   0.718 -2.3272 -0.5828  0.4694
49078SOL     OW52044   9.770  11.938  11.368 -1.0580 -0.2695 -0.1789
49078SOL    HW152045   9.798  11.937  11.276  2.1014  2.5159  0.5583
49078SOL    HW252046   9.675  11.946  11.364 -1.0668 -0.7671 -3.1876
49079SOL     OW52047   6.000   4.396   0.102  0.2477  0.0782  0.3160
49079SOL    HW152048   6.022   4.472   0.048 -1.3664  0.3821  0.0339
49079SOL    HW252049   6.077   4.339   0.096  0.3047  0.3098 -1.9381
49080SOL     OW52050   2.633  12.527   3.328  0.1418  0.1536 -0.2215
49080SOL    HW152051   2.595  12.616   3.331  0.2500  0.1780  0.6039
49080SOL    HW252052   2.561  12.470   3.355  0.8635  0.2691  2.1014
49081SOL     OW52053   3.189   9.020   1.372 -0.5312  0.3022 -0.5724
49081SOL    HW152054   3.137   9.093   1.406  0.9017  1.9401 -1.7543
49081SOL    HW252055   3.252   9.001   1.441 -0.6688  0.4246 -0.4116
49082SOL     OW52056   9.912   8.475   2.145  0.8352  0.0614  0.4088
49082SOL    HW152057   9.905   8.495   2.052  1.2283  1.6343  0.6943
49082SOL    HW252058   9.862   8.544   2.188 -1.6354 -2.1348  1.2878
49083SOL     OW52059   3.063   1.900   3.213 -0.0973  0.1290  0.6092
49083SOL    HW152060   3.000   1.864   3.275 -0.1972 -0.1934  0.3268
49083SOL    HW252061   3.080   1.829   3.152  0.9378  0.0425  0.9717
49084SOL     OW52062  11.808   2.368   4.191  0.6652  0.6927 -0.1122
49084SOL    HW152063  11.745   2.307   4.230  0.3030  0.4777 -0.9982
49084SOL    HW252064  11.808   2.346   4.098  1.6179  1.0893 -0.2186
49085SOL     OW52065   4.702   6.040   5.251  0.1917  0.1792 -0.3650
49085SOL    HW152066   4.724   5.951   5.279  0.7647  0.1851 -0.7603
49085SOL    HW252067   4.783   6.072   5.210  0.0086  0.9062 -0.1624
49086SOL     OW52068  12.641   7.097   8.429  0.3024 -0.1576 -0.4012
49086SOL    HW152069  12.641   7.048   8.511  3.1224  1.0042  0.3988
49086SOL    HW252070  12.564   7.153   8.434 -1.1280 -2.0631  0.1353
49087SOL     OW52071  11.695   0.220   0.072 -0.3859 -0.1455  0.0940
49087SOL    HW152072  11.641   0.285   0.028  0.6067 -0.1957 -1.2668
49087SOL    HW252073  11.633   0.155   0.106 -1.2230  0.2390 -0.6800
49088SOL     OW52074   9.277   8.995   6.077  0.3066 -0.0911 -0.0232
49088SOL    HW152075   9.346   8.988   6.143  0.5923 -1.4988 -0.4320
49088SOL    HW252076   9.325   9.000   5.994 -0.0689  0.6664 -0.2034
49089SOL     OW52077  10.398  11.076   8.348  0.2504  0.1119 -0.2478
49089SOL    HW152078  10.413  11.166   8.318 -0.3314  0.1616 -0.3952
49089SOL    HW252079  10.330  11.085   8.415  0.6984 -0.1376  0.2498
49090SOL     OW52080  10.241   9.982   8.006 -0.3957 -0.0441 -0.0393
49090SOL    HW152081  10.152   9.948   7.994 -0.6172 -0.0448  1.4472
49090SOL    HW252082  10.232  10.076   7.992 -0.7497  0.0254  0.5851
49091SOL     OW52083  12.025   0.663   4.551 -0.2622  0.0857  0.4127
49091SOL    HW152084  12.110   0.634   4.518  0.1231  1.1893  0.3788
49091SOL    HW252085  12.012   0.748   4.509 -0.9045  0.3862  1.2109
49092SOL     OW52086  12.343  11.914   3.531  0.6996  0.2572 -0.3417
49092SOL    HW152087  12.371  11.825   3.554  0.9322  0.5689  0.6272
49092SOL    HW252088  12.252  11.903   3.503  0.9032 -0.3627 -0.7839
49093SOL     OW52089  10.443   4.251  11.451 -0.2400  0.6572 -0.1159
49093SOL    HW152090  10.537   4.246  11.471 -0.3119  2.2054  0.7652
49093SOL    HW252091  10.439   4.243  11.355  0.9707  2.3674 -0.3570
49094SOL     OW52092   8.779   7.936  11.422 -0.4765  0.0357  0.2518
49094SOL    HW152093   8.810   8.010  11.369  0.6539 -1.7210 -1.6581
49094SOL    HW252094   8.685   7.932  11.405 -0.5579  1.0155  0.3911
49095SOL     OW52095   5.080   5.152   9.882 -0.0304  0.0991 -0.1959
49095SOL    HW152096   4.998   5.130   9.927 -0.9825  0.9694 -1.4087
49095SOL    HW252097   5.136   5.189   9.951 -0.4451 -1.0026  0.7624
49096SOL     OW52098  10.090   5.101  12.368  0.1162 -0.3037  0.5982
49096SOL    HW152099  10.031   5.026  12.379  0.6546 -0.7690  0.3995
49096SOL    HW252100  10.178   5.064  12.378  0.3697  0.4370  1.2287
49097SOL     OW52101   0.845  10.623   0.387 -0.4378 -0.2147 -0.3078
49097SOL    HW152102   0.765  10.570   0.393  0.9458 -2.3159  1.1988
49097SOL    HW252103   0.886  10.594   0.306 -0.2159 -0.6652 -0.0383
49098SOL     OW52104   2.434   5.697   2.964 -0.2667 -0.0327 -0.3657
49098SOL    HW152105   2.493   5.685   2.890 -1.0511 -1.0933 -0.8484
49098SOL    HW252106   2.485   5.668   3.040 -0.3230 -1.4894 -0.8475
49099SOL     OW52107   2.045  12.190   4.950 -0.2127  0.4712 -0.6479
49099SOL    HW152108   2.013  12.259   4.890  2.1688  0.5857 -1.8931
49099SOL    HW252109   2.113  12.233   5.001 -1.2746 -0.0179  1.2793
49100SOL     OW52110   9.542   4.674   9.277  0.1897 -0.0321  0.5287
49100SOL    HW152111   9.475   4.607   9.261 -1.4169  1.4676  0.6150
49100SOL    HW252112   9.606   4.631   9.333 -1.3598 -1.1866  1.5095
49101SOL     OW52113   2.520   7.507   9.215  0.4183 -0.4106  0.0103
49101SOL    HW152114   2.601   7.468   9.181  1.5891  1.6562  0.2255
49101SOL    HW252115   2.501   7.578   9.155  0.3027  0.8208  1.4349
49102SOL     OW52116  11.093   3.628   0.129 -0.4123 -0.3091  0.1440
49102SOL    HW152117  11.101   3.535   0.106 -0.5794 -0.2536 -0.1467
49102SOL    HW252118  11.043   3.666   0.057 -1.7541 -0.3166  1.0353
49103SOL     OW52119  12.162   0.901  12.554 -0.6174 -0.2121 -0.1187
49103SOL    HW152120  12.153   0.826  12.613  0.8490 -0.9427 -0.7737
49103SOL    HW252121  12.093   0.962  12.582 -0.8943 -1.1621  1.3773
49104SOL     OW52122   9.728   3.244  11.428 -0.1564 -0.1119 -0.3481
49104SOL    HW152123   9.806   3.188  11.426  0.2082  0.3954 -2.5772
49104SOL    HW252124   9.752   3.321  11.377 -1.9682  0.2766 -0.6959
49105SOL     OW52125   0.810   7.476   7.242  0.3013  0.3687  0.3230
49105SOL    HW152126   0.900   7.498   7.217  0.6588 -0.1642  1.0726
49105SOL    HW252127   0.810   7.483   7.338 -0.1524 -0.6774  0.4130
49106SOL     OW52128   2.308   2.363   0.132 -0.4535 -0.2025  0.8350
49106SOL    HW152129   2.302   2.268   0.144 -1.3127 -0.0291  1.8811
49106SOL    HW252130   2.337   2.396   0.216  0.3206  0.4377  0.3324
49107SOL     OW52131   2.416  11.240   2.430 -0.3259 -0.1721 -0.0946
49107SOL    HW152132   2.372  11.263   2.349 -0.6339  0.2417  0.1839
49107SOL    HW252133   2.418  11.322   2.481 -1.3697 -0.7297  0.8824
49108SOL     OW52134  11.813   5.787   8.991 -0.6335 -0.1107 -0.1098
49108SOL    HW152135  11.732   5.792   8.940 -0.2841  1.1512 -0.5804
49108SOL    HW252136  11.786   5.807   9.081 -1.0659 -1.1621  0.0027
49109SOL     OW52137   9.833   4.351   5.907  0.4645 -0.2250  0.1140
49109SOL    HW152138   9.824   4.446   5.909 -0.9772 -0.3334 -0.1058
49109SOL    HW252139   9.837   4.330   5.813  0.7324 -0.3945  0.1616
49110SOL     OW52140   2.536   2.748   5.023  0.4681 -0.5581 -0.0238
49110SOL    HW152141   2.589   2.813   5.069 -0.8326  1.1643 -0.8477
49110SOL    HW252142   2.460   2.733   5.081  0.5030 -0.9659 -0.0778
49111SOL     OW52143   2.308   7.964  11.042  0.3128  0.4467  0.1401
49111SOL    HW152144   2.235   8.000  11.092  0.0986  1.5047 -0.9049
49111SOL    HW252145   2.384   8.013  11.071  0.7853 -1.0511  1.6653
49112SOL     OW52146  10.554   4.654   3.185 -0.3058 -0.1662 -0.3565
49112SOL    HW152147  10.516   4.605   3.258 -0.9730 -0.2885 -0.7854
49112SOL    HW252148  10.603   4.588   3.136  0.5098 -0.0019  0.2141
49113SOL     OW52149   7.625   9.933   0.738  0.1256  0.1841  0.3966
49113SOL    HW152150   7.584   9.987   0.806  0.9393  0.1152  0.9473
49113SOL    HW252151   7.610   9.982   0.657 -1.0779  0.1386  0.5712
49114SOL     OW52152  11.413   7.116   9.432 -0.0862 -0.1321  0.0377
49114SOL    HW152153  11.431   7.209   9.418 -2.5492  0.4772  0.4341
49114SOL    HW252154  11.335   7.115   9.488 -0.3782 -2.4284 -0.3182
49115SOL     OW52155   1.814   4.433   3.659 -0.2107 -0.2803 -0.1927
49115SOL    HW152156   1.728   4.428   3.702  0.5747 -0.5003  1.4126
49115SOL    HW252157   1.876   4.407   3.727  1.0893 -0.6923 -1.5068
49116SOL     OW52158   0.896   6.854   9.745  0.7611 -0.3389 -0.3540
49116SOL    HW152159   0.967   6.815   9.694  1.0484  1.7069 -1.6159
49116SOL    HW252160   0.834   6.885   9.679 -0.6057 -0.7833  0.6910
49117SOL     OW52161  10.871   4.423   4.123  0.0781 -0.0722  0.1938
49117SOL    HW152162  10.800   4.379   4.078 -1.4721  2.8059 -0.4188
49117SOL    HW252163  10.856   4.405   4.216 -0.2304 -1.1366 -0.0496
49118SOL     OW52164   6.539   9.560   7.826  0.0106 -0.0608  0.2288
49118SOL    HW152165   6.568   9.575   7.736 -1.3820  0.6552 -0.1479
49118SOL    HW252166   6.537   9.465   7.836  1.1489 -0.1363 -0.1458
49119SOL     OW52167   8.721   4.312   2.237  0.0401 -0.4114  0.0619
49119SOL    HW152168   8.662   4.298   2.163  0.0058 -0.5869  0.1216
49119SOL    HW252169   8.741   4.224   2.268 -0.5756 -0.3099  0.7632
49120SOL     OW52170   7.226   6.447   8.455  0.4296  0.7312  0.1912
49120SOL    HW152171   7.213   6.353   8.471 -1.2850  0.8384 -0.3913
49120SOL    HW252172   7.214   6.487   8.542 -0.5971  0.5484  0.1520
49121SOL     OW52173   8.058   1.775   0.597 -0.2185 -0.0451 -0.1899
49121SOL    HW152174   8.058   1.701   0.658 -2.2970 -0.2504 -0.3442
49121SOL    HW252175   8.021   1.847   0.648 -1.5531 -0.0992 -1.0359
49122SOL     OW52176  11.994   8.024  12.542 -0.2562 -0.2083 -0.5851
49122SOL    HW152177  11.927   8.026  12.474 -0.8476 -1.3664 -0.0572
49122SOL    HW252178  11.964   8.086  12.608 -0.0146  0.4177 -1.0437
49123SOL     OW52179   6.378   0.644   6.778 -0.7618  0.5672 -0.4722
49123SOL    HW152180   6.299   0.591   6.788  0.7362 -2.0779 -1.4119
49123SOL    HW252181   6.363   0.693   6.697 -1.3965 -0.0207 -0.7280
49124SOL     OW52182  12.390   4.410   8.387 -0.1191  0.5901  0.0247
49124SOL    HW152183  12.322   4.342   8.379 -0.4300  0.8181  0.6654
49124SOL    HW252184  12.472   4.361   8.396 -0.3641  0.2882  0.6997
49125SOL     OW52185   3.386   4.331   3.840  0.2746  0.4402 -0.2304
49125SOL    HW152186   3.353   4.379   3.764 -1.3128  0.9388  0.7259
49125SOL    HW252187   3.351   4.242   3.829  0.8541  0.2537 -0.5713
49126SOL     OW52188   0.328  12.090   4.091  0.0997 -0.3890 -0.0376
49126SOL    HW152189   0.244  12.097   4.137 -1.2286 -2.3051 -1.9874
49126SOL    HW252190   0.346  12.179   4.060 -1.1527  0.0817  0.5073
49127SOL     OW52191   8.804   9.166   5.615 -0.4616  0.4082  0.4448
49127SOL    HW152192   8.800   9.259   5.593  2.0051  0.3183 -0.7272
49127SOL    HW252193   8.893   9.139   5.592 -0.7454 -2.0070  1.7966
49128SOL     OW52194   4.813  12.184   2.176 -0.3485  0.3443  0.0893
49128SOL    HW152195   4.777  12.237   2.248 -0.7566  1.6092 -0.9972
49128SOL    HW252196   4.902  12.217   2.164 -0.9900  1.6683 -1.3582
49129SOL     OW52197  12.344  10.615   0.296 -0.4746 -0.0771 -0.0124
49129SOL    HW152198  12.350  10.552   0.368  0.4434 -0.6658 -0.5754
49129SOL    HW252199  12.394  10.575   0.225 -1.2640  0.5409 -0.9485
49130SOL     OW52200   2.338   9.146  11.011 -0.0851  0.1461  0.1473
49130SOL    HW152201   2.308   9.159  10.921  0.1481  0.6523  0.1402
49130SOL    HW252202   2.355   9.052  11.017 -1.6124 -0.1669  0.1296
49131SOL     OW52203  12.195   9.346   1.055 -0.1021  0.4679 -0.2072
49131SOL    HW152204  12.232   9.301   0.979 -1.1094  1.9978 -1.6752
49131SOL    HW252205  12.270   9.367   1.109  0.7409 -0.0046 -1.1544
49132SOL     OW52206   4.138   5.839   9.916  0.4637  0.0168  0.0297
49132SOL    HW152207   4.152   5.875  10.003  1.8474 -1.0846  0.3090
49132SOL    HW252208   4.043   5.837   9.905  0.2513 -0.4196  1.7566
49133SOL     OW52209  10.610   1.287   8.209  0.4204  0.9410 -0.2046
49133SOL    HW152210  10.560   1.342   8.148 -3.1505 -2.1538 -0.4429
49133SOL    HW252211  10.662   1.231   8.152  1.5083  1.7917 -0.0831
49134SOL     OW52212  12.608   6.552   5.957 -0.0434 -0.4112  0.0214
49134SOL    HW152213  12.655   6.515   6.033  0.2869 -1.1528 -0.5303
49134SOL    HW252214  12.627   6.646   5.961 -0.4426 -0.3648  1.1436
49135SOL     OW52215   8.189   7.809   6.268 -0.3839 -0.1965 -0.0951
49135SOL    HW152216   8.275   7.795   6.307 -0.8427  1.0008  1.4563
49135SOL    HW252217   8.127   7.792   6.340 -1.1926  3.8803  0.3903
49136SOL     OW52218   2.939  11.028   8.614  0.1540 -0.3712  0.5151
49136SOL    HW152219   2.950  10.963   8.544  0.9572 -1.8546  1.9523
49136SOL    HW252220   2.845  11.031   8.629  0.0500 -0.6738 -0.0396
49137SOL     OW52221   9.398   7.891  12.293 -0.6390  0.0595 -0.0104
49137SOL    HW152222   9.321   7.834  12.295 -0.7018 -0.0053 -1.9703
49137SOL    HW252223   9.444   7.865  12.213  0.4064  1.3949  0.1297
49138SOL     OW52224  11.182   5.570   7.534 -0.2818  0.2099 -0.6450
49138SOL    HW152225  11.105   5.527   7.497 -0.7344 -0.3467  0.8489
49138SOL    HW252226  11.186   5.538   7.624  2.2080 -0.4845 -0.9218
49139SOL     OW52227   0.991  10.474  11.921  0.2934  0.0971  0.0315
49139SOL    HW152228   1.012  10.436  12.007 -1.7644  0.7272  0.8695
49139SOL    HW252229   0.975  10.399  11.865  0.4461 -0.3160  0.5329
49140SOL     OW52230   3.292  11.176   7.308 -0.0764 -0.2276  0.0360
49140SOL    HW152231   3.372  11.124   7.323 -0.7631 -1.3094  0.0908
49140SOL    HW252232   3.323  11.254   7.262  0.8985 -1.1013 -0.8721
49141SOL     OW52233   8.583   0.977   4.555  0.4165 -0.1056 -0.0180
49141SOL    HW152234   8.635   1.053   4.581 -1.8700  1.8190 -0.7628
49141SOL    HW252235   8.501   1.013   4.521  0.2320 -2.7459 -2.9479
49142SOL     OW52236   3.427   1.130   3.466  0.0698 -0.2450  0.3664
49142SOL    HW152237   3.375   1.105   3.543  0.4734 -0.0549  0.7036
49142SOL    HW252238   3.408   1.223   3.454  1.2498  0.1367  1.2307
49143SOL     OW52239   6.935   9.210   1.799  0.0400  0.3095 -0.0360
49143SOL    HW152240   6.875   9.150   1.842  0.1074  1.1070  1.2155
49143SOL    HW252241   7.008   9.219   1.860  0.9801  0.1237 -1.0958
49144SOL     OW52242   9.290   9.175   4.925  0.2006  0.1682 -0.4460
49144SOL    HW152243   9.222   9.116   4.893 -0.6709  0.8692  0.0592
49144SOL    HW252244   9.317   9.224   4.848 -0.2737  0.2715 -0.5537
49145SOL     OW52245   9.253  12.194  12.492  0.2194  0.2550  0.2125
49145SOL    HW152246   9.269  12.110  12.448 -0.4466 -0.7390  1.7589
49145SOL    HW252247   9.158  12.208  12.482 -0.1793 -0.5771  2.1846
49146SOL     OW52248   0.692  10.726   8.178 -0.1987 -0.2536  0.5741
49146SOL    HW152249   0.771  10.673   8.176  0.3309  0.5566 -0.4958
49146SOL    HW252250   0.717  10.811   8.142 -1.4115  0.2235  0.7679
49147SOL     OW52251   4.732   2.798   8.239  0.7609  0.4063 -0.2335
49147SOL    HW152252   4.773   2.883   8.254  0.7745  1.1239 -3.6886
49147SOL    HW252253   4.773   2.765   8.159 -0.8335 -1.8507 -0.2197
49148SOL     OW52254   0.504   4.001   9.010  0.0814  0.2653 -0.2963
49148SOL    HW152255   0.552   4.014   9.092  0.0346  0.1539 -0.2517
49148SOL    HW252256   0.481   3.908   9.010 -4.1561  1.0342  1.9382
49149SOL     OW52257   0.289   2.393   6.294 -0.5352  0.0936  0.5808
49149SOL    HW152258   0.314   2.469   6.346 -2.2056  0.4813  0.8669
49149SOL    HW252259   0.344   2.399   6.216  0.9072  0.3556  1.5853
49150SOL     OW52260  11.575   6.405  11.520 -0.2095  0.0493 -0.4053
49150SOL    HW152261  11.627   6.421  11.441 -0.0137 -1.8697 -0.7297
49150SOL    HW252262  11.638   6.367  11.582 -0.3596  1.5456  0.6995
49151SOL     OW52263   1.791   3.748   7.058 -0.3246 -0.3570  0.2549
49151SOL    HW152264   1.763   3.671   7.009  1.8310 -0.5259 -0.8458
49151SOL    HW252265   1.844   3.798   6.996 -0.3318  1.1911  1.4334
49152SOL     OW52266   4.868   5.162   2.625 -0.1875  0.3964 -0.1892
49152SOL    HW152267   4.805   5.146   2.695 -1.4045  0.1465 -1.2819
49152SOL    HW252268   4.824   5.224   2.567  0.4040 -0.0854 -1.1858
49153SOL     OW52269   4.457   0.556  12.016  0.3410 -0.0018  0.1592
49153SOL    HW152270   4.377   0.505  12.029 -0.1741  0.5810 -0.6640
49153SOL    HW252271   4.525   0.490  12.000 -0.3243 -0.4517 -0.9562
49154SOL     OW52272  11.909   8.822   7.951 -0.3651  0.2973 -0.3326
49154SOL    HW152273  11.825   8.783   7.976 -0.7412  0.6411 -1.0247
49154SOL    HW252274  11.940   8.769   7.878 -1.3268  1.7807 -1.9017
49155SOL     OW52275   4.186   2.969   1.547  0.5611  0.4589 -0.0786
49155SOL    HW152276   4.149   2.978   1.459 -0.4505 -0.5787  0.2200
49155SOL    HW252277   4.168   3.053   1.588 -3.0819 -0.4686  0.6051
49156SOL     OW52278   4.673   2.730   4.206 -0.3074  0.0421 -0.3659
49156SOL    HW152279   4.668   2.705   4.298 -0.6265  1.4159  0.0189
49156SOL    HW252280   4.594   2.782   4.191 -0.2151 -0.0949 -1.4029
49157SOL     OW52281   1.768   7.535   0.276  0.2128  0.3022  0.6376
49157SOL    HW152282   1.675   7.550   0.293 -0.1677 -1.2542  0.1031
49157SOL    HW252283   1.785   7.580   0.193 -0.0684  0.5504  0.7144
49158SOL     OW52284   5.326   7.820  10.054  0.1219 -0.0253  0.1150
49158SOL    HW152285   5.318   7.834  10.149 -1.7180 -0.5518  0.0826
49158SOL    HW252286   5.254   7.872  10.017  0.1437 -0.6985 -0.8971
49159SOL     OW52287   5.820   2.873   8.150  0.5320 -0.4821  0.8522
49159SOL    HW152288   5.914   2.854   8.157  0.7824  0.9817  1.9280
49159SOL    HW252289   5.813   2.965   8.174 -0.9613 -0.0192 -1.1877
49160SOL     OW52290  10.038   1.979  10.203  0.0321  0.0029 -0.0240
49160SOL    HW152291  10.097   1.931  10.143 -0.4038 -0.5955  0.0194
49160SOL    HW252292  10.079   1.969  10.289 -0.7983 -1.5602  0.2317
49161SOL     OW52293   7.344   3.505   0.962 -0.6160 -0.1148 -0.4713
49161SOL    HW152294   7.383   3.565   0.898 -0.5264 -0.6595 -0.9284
49161SOL    HW252295   7.367   3.418   0.931 -0.8554 -0.3966  0.1240
49162SOL     OW52296   8.701  11.744   1.947 -0.1940 -0.4919  0.0815
49162SOL    HW152297   8.767  11.761   2.014  1.2526 -1.1537 -1.1196
49162SOL    HW252298   8.649  11.824   1.943  2.4158  1.2502 -1.0040
49163SOL     OW52299   9.918   8.369   1.422 -0.3487  0.6241 -0.2245
49163SOL    HW152300   9.923   8.372   1.517 -1.3143  1.3238 -0.1854
49163SOL    HW252301   9.885   8.281   1.403 -0.7241  0.6901  0.1144
49164SOL     OW52302  11.364  11.607   4.877  0.4840 -0.3064 -0.1879
49164SOL    HW152303  11.405  11.688   4.847 -0.1696 -0.2318 -0.9210
49164SOL    HW252304  11.271  11.617   4.854  0.3652 -1.1816 -0.1253
49165SOL     OW52305   4.462   1.021   2.930  0.7238 -0.0512 -0.3148
49165SOL    HW152306   4.523   0.962   2.884  2.1315 -0.7612  2.2865
49165SOL    HW252307   4.377   0.978   2.922  0.9322 -0.2149 -2.0771
49166SOL     OW52308   3.481   2.995   2.996 -0.2145 -0.4335 -0.1441
49166SOL    HW152309   3.559   3.041   2.964  0.9334 -2.3928 -0.3411
49166SOL    HW252310   3.412   3.019   2.935  0.4235  0.7628 -0.4170
49167SOL     OW52311   9.911   0.980   7.208 -0.3259  0.2344  0.2588
49167SOL    HW152312   9.900   0.908   7.269 -1.1087  0.7427  0.7403
49167SOL    HW252313   9.907   0.939   7.121  0.2630 -0.4222  0.5342
49168SOL     OW52314  10.605   6.688   0.550  0.0129 -0.3022  0.1608
49168SOL    HW152315  10.584   6.611   0.498  0.5298  0.7794 -1.7633
49168SOL    HW252316  10.657   6.743   0.492 -1.5383  2.1573  0.9238
49169SOL     OW52317   5.080   4.029   9.835 -0.2366  0.0177  0.0079
49169SOL    HW152318   5.056   3.938   9.850 -1.7903  0.6692  1.7108
49169SOL    HW252319   5.176   4.028   9.829 -0.2095 -1.6495  0.4221
49170SOL     OW52320  12.410   2.524   4.767 -0.3501 -0.3421 -0.4160
49170SOL    HW152321  12.410   2.617   4.744 -1.5715 -0.3596 -0.5545
49170SOL    HW252322  12.414   2.524   4.863  1.4535 -0.2082 -0.4535
49171SOL     OW52323  11.932   1.842   5.932  0.3715 -0.3859 -0.1773
49171SOL    HW152324  11.886   1.796   6.002 -1.1930 -0.8034 -1.4203
49171SOL    HW252325  11.922   1.785   5.856  1.4569  0.3670 -0.9093
49172SOL     OW52326  10.940   4.729   1.435  0.4197 -0.1547 -0.0553
49172SOL    HW152327  10.854   4.743   1.475  0.1769  0.2467 -0.6929
49172SOL    HW252328  10.995   4.696   1.506 -0.3244 -0.6516  0.2977
49173SOL     OW52329   2.772   3.070   1.125  0.3103  0.3946 -0.0727
49173SOL    HW152330   2.682   3.046   1.101  0.0770 -1.5667  2.4098
49173SOL    HW252331   2.826   3.025   1.060 -0.4325  0.3418 -0.6797
49174SOL     OW52332   2.809  11.785   5.044  0.1554 -0.5232 -0.1962
49174SOL    HW152333   2.815  11.847   4.971 -0.4203 -1.3449 -0.9490
49174SOL    HW252334   2.716  11.764   5.051  0.2203 -0.5611  0.6965
49175SOL     OW52335   1.985   6.566  12.389 -0.3361 -0.5390 -0.5949
49175SOL    HW152336   1.979   6.476  12.356 -1.4504 -0.5686 -0.3766
49175SOL    HW252337   2.074   6.594  12.368 -0.4690 -1.1437 -2.0892
49176SOL     OW52338   1.053   9.999   6.249  0.1288  0.6527 -0.3165
49176SOL    HW152339   1.070  10.076   6.302  0.9710 -0.9476  1.8622
49176SOL    HW252340   1.136   9.951   6.248 -0.8195 -1.0868 -0.1327
49177SOL     OW52341   9.356   6.003   7.523 -0.2845  0.4061 -0.2153
49177SOL    HW152342   9.393   5.920   7.555  0.7781  0.5159 -1.1164
49177SOL    HW252343   9.305   6.036   7.597  1.0493  0.0160  0.9185
49178SOL     OW52344   2.610  12.232   8.784  0.5711  0.0471  0.0838
49178SOL    HW152345   2.567  12.215   8.700  1.4871 -1.7610 -0.0771
49178SOL    HW252346   2.565  12.174   8.846  2.2977 -1.4386  0.0273
49179SOL     OW52347  12.380  10.667  10.316 -0.1962  0.3877 -0.3347
49179SOL    HW152348  12.462  10.714  10.300 -1.0515  1.5974 -1.2823
49179SOL    HW252349  12.380  10.597  10.251  0.1330  0.3180 -0.2610
49180SOL     OW52350   9.351  10.569   6.734  0.2026 -0.6700 -0.0466
49180SOL    HW152351   9.324  10.660   6.751 -1.6477 -1.1627 -0.0612
49180SOL    HW252352   9.324  10.522   6.813 -1.8177 -1.7272 -1.2994
49181SOL     OW52353   2.555   2.800   6.308 -0.2378 -0.5837  0.0398
49181SOL    HW152354   2.471   2.843   6.325 -0.4733  0.0970 -2.4803
49181SOL    HW252355   2.534   2.707   6.301 -0.5136 -0.5911  0.8214
49182SOL     OW52356   8.801  12.596   7.983 -0.4014 -0.0535  0.5028
49182SOL    HW152357   8.773  12.505   7.990  0.7741 -0.4911 -0.0691
49182SOL    HW252358   8.734  12.638   7.929 -0.1870 -0.9703 -0.5214
49183SOL     OW52359   6.069   0.896   9.464  0.2134  0.0561 -0.2885
49183SOL    HW152360   6.081   0.805   9.490  2.5849  0.5774  0.6958
49183SOL    HW252361   6.053   0.943   9.545  2.3455  0.9400 -0.3050
49184SOL     OW52362   5.519   8.634   9.485  0.1700  0.4705 -0.2908
49184SOL    HW152363   5.445   8.658   9.430 -0.9740  3.4032  2.2099
49184SOL    HW252364   5.487   8.562   9.539  0.4636 -0.7225 -1.6478
49185SOL     OW52365   8.533   2.859   2.716 -0.1673 -0.4701 -0.1577
49185SOL    HW152366   8.584   2.939   2.728  1.5806 -1.3376 -1.3688
49185SOL    HW252367   8.462   2.865   2.781  1.2854  0.9370  1.3886
49186SOL     OW52368   8.394   4.151   6.471 -0.5311  0.1086 -0.0025
49186SOL    HW152369   8.357   4.116   6.389  1.9136  0.1906 -1.2369
49186SOL    HW252370   8.321   4.149   6.533 -2.2121 -0.9339 -1.8858
49187SOL     OW52371  12.102  11.940  11.875 -0.6045  0.6526 -0.5299
49187SOL    HW152372  12.111  11.937  11.779  0.0328 -0.5368 -0.4628
49187SOL    HW252373  12.190  11.962  11.906 -0.3113 -0.8606 -0.1808
49188SOL     OW52374  11.124   1.406   2.515 -0.9589 -0.6477 -0.4225
49188SOL    HW152375  11.200   1.448   2.475  0.4153 -1.6121  1.0514
49188SOL    HW252376  11.049   1.439   2.465  0.2478  1.6272 -0.8535
49189SOL     OW52377   9.958   0.814   3.080 -0.7252 -0.1932  0.0962
49189SOL    HW152378   9.863   0.826   3.071 -0.5971  0.8050 -0.0287
49189SOL    HW252379   9.988   0.799   2.990 -0.7751 -0.6688  0.1542
49190SOL     OW52380   8.228   9.433   0.262  0.3809 -0.3783  0.3428
49190SOL    HW152381   8.247   9.443   0.356  0.7887 -0.3076  0.2545
49190SOL    HW252382   8.199   9.520   0.234  0.4992 -0.3351  0.3521
49191SOL     OW52383   2.312   6.848  11.627 -0.4332  0.1280 -0.0467
49191SOL    HW152384   2.264   6.908  11.685 -0.3371  0.5886 -0.4422
49191SOL    HW252385   2.399   6.843  11.666  0.0505  1.4924 -0.8701
49192SOL     OW52386   0.195   2.026   0.439  0.3486  0.4840  0.2178
49192SOL    HW152387   0.103   2.023   0.465 -0.2400 -0.0938 -1.8290
49192SOL    HW252388   0.242   2.045   0.521 -1.6319  1.6172  1.1559
49193SOL     OW52389   8.668   9.695   1.277 -0.3329  0.5257 -0.3558
49193SOL    HW152390   8.573   9.706   1.281 -0.4435  0.3209 -1.8436
49193SOL    HW252391   8.683   9.603   1.296 -0.6582  0.0138 -2.3446
49194SOL     OW52392   3.081   6.147   6.176  0.5813 -0.5359 -0.2816
49194SOL    HW152393   3.112   6.237   6.172 -0.9003 -0.0035 -0.0656
49194SOL    HW252394   3.161   6.095   6.186  1.4393  0.7487 -0.2593
49195SOL     OW52395   9.609   9.984   5.574 -0.2279 -0.5195  0.4320
49195SOL    HW152396   9.681   9.965   5.514  0.9575 -1.1234  1.9834
49195SOL    HW252397   9.611   9.912   5.637  0.0081  1.1756  2.4671
49196SOL     OW52398   6.869  10.646   0.947 -0.5332 -0.4387  0.3934
49196SOL    HW152399   6.801  10.585   0.916 -0.1587 -1.4537  1.5209
49196SOL    HW252400   6.847  10.661   1.039 -0.0433  0.3684  0.3832
49197SOL     OW52401  10.097   1.470   5.017 -0.3986 -0.2580 -0.1552
49197SOL    HW152402  10.139   1.442   4.935 -1.6311  1.3146 -1.3813
49197SOL    HW252403  10.165   1.458   5.083  1.9279  1.8336 -1.9707
49198SOL     OW52404  11.246   6.216   6.724 -0.2388  0.1409  0.5830
49198SOL    HW152405  11.338   6.195   6.736  0.1054  1.6997  0.8807
49198SOL    HW252406  11.242   6.261   6.639 -0.5971  0.8011  0.9467
49199SOL     OW52407   6.496   1.406   1.012 -0.3446 -0.0870 -0.0312
49199SOL    HW152408   6.580   1.420   0.968  0.2166  2.9256  1.7266
49199SOL    HW252409   6.499   1.315   1.041  1.8699 -0.3523 -0.8789
49200SOL     OW52410  10.929   8.178   9.510  0.0996  0.5098 -0.4372
49200SOL    HW152411  10.871   8.210   9.441 -0.4703 -0.1563 -0.2801
49200SOL    HW252412  11.013   8.218   9.491 -0.5408  1.9589 -0.3368
49201SOL     OW52413   0.361  10.024   5.336  0.2561 -0.2804 -0.2941
49201SOL    HW152414   0.397  10.044   5.423  0.0249  0.8495 -0.4415
49201SOL    HW252415   0.365   9.929   5.330  0.6009 -0.3528  0.8173
49202SOL     OW52416  11.702   3.118  11.816 -0.3990 -0.0817 -0.1666
49202SOL    HW152417  11.680   3.090  11.905  0.7167  0.0330  0.1517
49202SOL    HW252418  11.789   3.156  11.823 -0.2587 -0.1491 -1.3354
49203SOL     OW52419   8.926   6.762  11.019 -0.2596 -0.2455  0.3012
49203SOL    HW152420   8.841   6.805  11.023  0.1073  0.6162 -0.6103
49203SOL    HW252421   8.945   6.736  11.109 -1.1499  0.2059  0.6241
49204SOL     OW52422  12.310   8.745   6.842  0.4497 -0.0326  0.0076
49204SOL    HW152423  12.244   8.737   6.774  1.7811  0.8101 -1.4443
49204SOL    HW252424  12.277   8.691   6.914 -0.1958 -2.3812 -1.9161
49205SOL     OW52425   8.402  11.672   4.123  0.4101  0.3262  0.2968
49205SOL    HW152426   8.411  11.701   4.213  1.0265 -2.8020  1.3739
49205SOL    HW252427   8.485  11.696   4.081  0.4054  1.1418  0.7370
49206SOL     OW52428   0.029   0.212  12.138 -0.3594  0.7414  0.2987
49206SOL    HW152429   0.064   0.133  12.180  1.4529  0.4388 -1.6756
49206SOL    HW252430   0.014   0.272  12.211  1.0328 -0.3634  1.5651
49207SOL     OW52431   6.655   0.239   0.770  0.1369  0.3033 -0.5041
49207SOL    HW152432   6.579   0.281   0.731  0.2052  1.0654  0.1652
49207SOL    HW252433   6.619   0.165   0.819 -0.1283  0.4175 -0.5258
49208SOL     OW52434  12.199   1.858   5.336 -0.3346  0.1590 -0.4737
49208SOL    HW152435  12.222   1.829   5.248  0.6178 -0.3599 -0.0768
49208SOL    HW252436  12.215   1.952   5.336  0.3712  0.0433 -0.6516
49209SOL     OW52437   0.697   4.424   4.254 -0.4954 -0.5266 -1.1542
49209SOL    HW152438   0.620   4.444   4.307 -1.8982 -1.5172 -2.7158
49209SOL    HW252439   0.717   4.332   4.275  0.6599 -0.1142 -0.3274
49210SOL     OW52440  10.252   6.766  12.640  0.3444  0.0483 -0.6287
49210SOL    HW152441  10.230   6.790  12.730  1.1352 -0.2087 -0.3575
49210SOL    HW252442  10.171   6.732  12.604 -0.6961  2.5465 -0.8495
49211SOL     OW52443   1.547   5.186   2.270 -0.1897 -0.2375  0.2040
49211SOL    HW152444   1.533   5.113   2.209 -0.1749 -0.2316  0.1938
49211SOL    HW252445   1.542   5.264   2.216  1.6816 -0.3053 -0.1353
49212SOL     OW52446   2.419   1.577  11.630 -0.4178 -0.2414 -0.0459
49212SOL    HW152447   2.399   1.585  11.723 -0.8076 -0.5233 -0.1025
49212SOL    HW252448   2.514   1.566  11.626 -0.5189 -1.3133  0.3857
49213SOL     OW52449   4.511  10.312   5.416  0.1317 -0.0237 -0.4223
49213SOL    HW152450   4.523  10.316   5.321 -0.5671  0.1921 -0.5080
49213SOL    HW252451   4.504  10.403   5.443  1.3063 -0.0395 -0.0203
49214SOL     OW52452   3.442   7.848   3.556 -0.4152 -0.4917 -0.2454
49214SOL    HW152453   3.522   7.880   3.598 -2.1143  2.8600  0.7252
49214SOL    HW252454   3.397   7.798   3.625  1.3244 -3.6875 -1.2046
49215SOL     OW52455   0.591  10.041   2.782  0.0022 -0.1942 -0.1356
49215SOL    HW152456   0.674  10.041   2.733 -0.4574  2.2114 -1.0295
49215SOL    HW252457   0.535   9.981   2.734  0.1410  0.7743 -1.5610
49216SOL     OW52458  12.180  11.323  11.163  0.1655  0.0786 -0.0118
49216SOL    HW152459  12.261  11.293  11.204 -0.7831  0.9908  2.7488
49216SOL    HW252460  12.148  11.392  11.221 -3.4775 -1.4152  0.0145
49217SOL     OW52461   6.806   9.392   3.696  0.5947  0.0816  0.1987
49217SOL    HW152462   6.835   9.311   3.737  2.3075 -0.3692 -1.7486
49217SOL    HW252463   6.833   9.384   3.605  1.4933  3.1340  0.0864
49218SOL     OW52464   3.020   2.364   8.120 -0.5111  0.0997 -0.7111
49218SOL    HW152465   2.938   2.315   8.120  0.0853 -0.9701  0.6644
49218SOL    HW252466   3.078   2.313   8.063 -0.4753  0.2561 -0.8151
49219SOL     OW52467   4.967   8.903   6.703 -0.0049  0.7892  0.3042
49219SOL    HW152468   4.919   8.973   6.658 -1.5868 -0.2029  0.3438
49219SOL    HW252469   4.933   8.905   6.793  0.5131  0.4815  0.5094
49220SOL     OW52470   3.820  11.162   7.353 -0.2816 -0.5469 -0.5947
49220SOL    HW152471   3.901  11.172   7.303  0.1439 -0.2332  0.1434
49220SOL    HW252472   3.823  11.071   7.384 -0.5324 -0.7327 -1.1141
49221SOL     OW52473   8.226   5.533  11.899 -1.0222  0.0010 -0.2955
49221SOL    HW152474   8.239   5.594  11.972 -3.4058 -0.1852  0.3548
49221SOL    HW252475   8.269   5.453  11.928 -0.9666  0.2800  0.4265
49222SOL     OW52476  10.351   7.238   2.709  0.0007  0.1781  0.4717
49222SOL    HW152477  10.334   7.320   2.755  1.3598  0.5595  0.3493
49222SOL    HW252478  10.268   7.215   2.667  0.1991  2.8513 -1.6372
49223SOL     OW52479   9.347   3.081   6.995 -0.3943 -0.1542 -0.6733
49223SOL    HW152480   9.307   3.025   7.061  0.1074  1.4299  1.0431
49223SOL    HW252481   9.436   3.048   6.985 -0.6922 -0.8493 -1.1435
49224SOL     OW52482   7.704   8.395   9.766 -0.0203 -0.6621  0.0613
49224SOL    HW152483   7.681   8.359   9.852 -0.7426  0.1790  0.2396
49224SOL    HW252484   7.696   8.321   9.706  1.8707 -1.6133  0.8962
49225SOL     OW52485   1.866  11.239  10.181 -0.0933  0.1928  0.2553
49225SOL    HW152486   1.808  11.227  10.106  0.1080 -0.2279  0.1664
49225SOL    HW252487   1.807  11.250  10.256 -0.3219  1.5294 -0.0815
49226SOL     OW52488   0.977   1.017   9.998  0.0755  0.2545 -0.5735
49226SOL    HW152489   0.950   1.086   9.937 -1.1120 -0.3142 -0.7192
49226SOL    HW252490   1.016   1.063  10.072 -0.4435  1.0702 -0.7985
49227SOL     OW52491   6.731   6.939   8.442  0.2998 -0.6874 -0.0788
49227SOL    HW152492   6.666   6.994   8.484  0.8372 -0.3992  0.3997
49227SOL    HW252493   6.751   6.872   8.508 -0.0622 -1.2178 -0.5060
49228SOL     OW52494   4.154   4.491   1.019 -0.1765 -0.6100  0.1161
49228SOL    HW152495   4.204   4.416   1.053 -2.7835 -2.3037  0.4814
49228SOL    HW252496   4.110   4.457   0.941 -1.3147  0.5902  0.2000
49229SOL     OW52497   4.445  10.887  10.169 -0.4989 -0.1754 -0.1673
49229SOL    HW152498   4.451  10.853  10.080 -1.4997  2.9867 -1.6052
49229SOL    HW252499   4.351  10.900  10.183 -0.3142 -0.2063  1.1783
49230SOL     OW52500   3.514   4.367   2.709 -0.4321 -0.3821 -0.1317
49230SOL    HW152501   3.533   4.276   2.684 -0.8310 -0.7986  1.0306
49230SOL    HW252502   3.419   4.370   2.717 -0.4710  0.3119 -0.7646
49231SOL     OW52503  11.070   5.201   2.288  0.7189 -0.2832  0.6315
49231SOL    HW152504  11.072   5.156   2.373  1.8571 -1.9185 -0.2077
49231SOL    HW252505  11.158   5.238   2.278  1.9549 -3.3309 -1.3808
49232SOL     OW52506   8.850   3.169   6.715  0.0578  0.3882 -0.0866
49232SOL    HW152507   8.813   3.085   6.742 -0.4703  1.1284  1.5828
49232SOL    HW252508   8.924   3.145   6.659 -0.1374 -1.1885  0.2844
49233SOL     OW52509   4.681   1.528   3.962  0.0884 -0.3324 -0.2004
49233SOL    HW152510   4.673   1.613   4.006  0.2427  0.9824 -2.5234
49233SOL    HW252511   4.599   1.519   3.913  0.4671 -1.0653 -0.7212
49234SOL     OW52512   8.830   6.663   1.033 -0.1778  0.2021 -0.2757
49234SOL    HW152513   8.908   6.640   0.983  0.4067 -1.4368  1.2758
49234SOL    HW252514   8.859   6.666   1.124 -1.3305  2.5073  0.0792
49235SOL     OW52515  11.654  10.770   6.195  0.1604 -0.1210 -0.0259
49235SOL    HW152516  11.642  10.823   6.115 -1.0888  0.9013  0.8001
49235SOL    HW252517  11.681  10.834   6.261  2.1863 -1.1142  0.1806
49236SOL     OW52518   4.482   9.228   9.936  0.3104  0.2475 -0.0057
49236SOL    HW152519   4.577   9.216   9.940  0.5859  1.2714 -2.1093
49236SOL    HW252520   4.450   9.148   9.895  0.2430 -0.0846  0.6751
49237SOL     OW52521   0.176   0.905   3.345 -0.7876  0.3122  0.2243
49237SOL    HW152522   0.152   0.983   3.397 -0.8496 -0.2225  1.0180
49237SOL    HW252523   0.268   0.919   3.322 -0.6084  0.3340  0.9130
49238SOL     OW52524   8.376   0.503   5.037  0.3157 -0.0717  0.1260
49238SOL    HW152525   8.364   0.582   4.984  1.0671 -1.1953 -1.8349
49238SOL    HW252526   8.470   0.497   5.051  0.1209  0.1975  1.6036
49239SOL     OW52527   2.153   1.944  11.278 -0.6060  0.0740 -0.8683
49239SOL    HW152528   2.130   1.853  11.260  0.6888 -0.3728 -0.4293
49239SOL    HW252529   2.074   1.984  11.314 -1.6239 -0.4672 -2.4405
49240SOL     OW52530  12.338   3.707   7.698 -0.4520  0.4802 -0.2082
49240SOL    HW152531  12.275   3.656   7.649  0.8431  1.0229 -2.6043
49240SOL    HW252532  12.293   3.789   7.718 -1.3008 -0.1129  0.3228
49241SOL     OW52533   9.927   8.694   9.661  0.4722  0.2753 -0.4914
49241SOL    HW152534  10.016   8.663   9.679  0.1514 -1.6181 -1.8485
49241SOL    HW252535   9.927   8.784   9.691  2.7022  0.1692  0.0352
49242SOL     OW52536   3.121   7.815   8.049  0.3134  0.1445 -0.0607
49242SOL    HW152537   3.153   7.793   8.137  2.1603 -0.7848 -0.8950
49242SOL    HW252538   3.102   7.730   8.008  0.1894  0.5182 -0.8015
49243SOL     OW52539  11.748  11.859   2.638  0.2574 -0.0054 -0.1534
49243SOL    HW152540  11.834  11.822   2.654  0.6546  0.5979 -0.8607
49243SOL    HW252541  11.753  11.948   2.673 -0.1522 -0.0355 -0.0087
49244SOL     OW52542   7.045   6.305   5.745  0.5125  0.2836  0.0462
49244SOL    HW152543   7.099   6.358   5.804  1.1914  0.0840 -0.3847
49244SOL    HW252544   7.065   6.339   5.658 -1.5415  1.5404 -0.0182
49245SOL     OW52545   1.346   4.537   2.680 -0.3138  0.8768  0.4632
49245SOL    HW152546   1.349   4.563   2.588  1.8179  1.1045  0.5619
49245SOL    HW252547   1.350   4.619   2.728 -1.3154  0.7511  0.8011
49246SOL     OW52548   9.886   5.780   7.187 -0.2757 -0.0496 -0.0127
49246SOL    HW152549   9.968   5.773   7.235 -0.8355  0.4439  1.0307
49246SOL    HW252550   9.894   5.714   7.118  1.4433  0.7292 -0.6213
49247SOL     OW52551   1.736   2.031   6.606 -0.4707 -0.5105 -0.7384
49247SOL    HW152552   1.640   2.025   6.608 -0.4197 -2.7612 -1.6187
49247SOL    HW252553   1.765   1.968   6.673  0.4726  2.4129  1.8491
49248SOL     OW52554   8.359  12.351   0.154  0.2548 -0.0737  0.2034
49248SOL    HW152555   8.436  12.408   0.157  0.1443  0.1481 -0.8232
49248SOL    HW252556   8.372  12.297   0.076 -1.2357  0.8623 -0.7545
49249SOL     OW52557   7.499   3.781   8.448  0.3921 -0.2463 -0.0114
49249SOL    HW152558   7.536   3.693   8.439 -2.0656 -1.1854 -2.2988
49249SOL    HW252559   7.442   3.776   8.524 -1.2610 -1.3192 -1.2534
49250SOL     OW52560  12.495   1.752   6.977  0.2581 -0.0883  0.2191
49250SOL    HW152561  12.562   1.720   6.916  0.6660  2.8574 -1.0190
49250SOL    HW252562  12.531   1.732   7.063  2.5834  0.9702 -0.4110
49251SOL     OW52563  11.622   5.052  10.152  0.2823 -0.1767 -0.3456
49251SOL    HW152564  11.600   4.968  10.192  0.3340  0.2838  0.6600
49251SOL    HW252565  11.570   5.116  10.200  0.2060  0.3738 -1.1347
49252SOL     OW52566   4.619  10.866   2.743  0.8780 -0.8609  0.0329
49252SOL    HW152567   4.610  10.784   2.792 -0.1371  0.1959  1.7359
49252SOL    HW252568   4.667  10.924   2.802 -0.6681  0.5629 -0.0176
49253SOL     OW52569  12.128  11.492   0.412  0.0440 -0.1918 -0.1936
49253SOL    HW152570  12.143  11.406   0.373  1.4416 -0.1691  0.2349
49253SOL    HW252571  12.094  11.473   0.499  0.0114 -0.2957 -0.2285
49254SOL     OW52572   3.973  12.171  11.661 -0.2596  0.2204 -0.0310
49254SOL    HW152573   3.960  12.195  11.569  0.3420 -0.6603 -0.3569
49254SOL    HW252574   3.889  12.136  11.689 -0.3797  0.2875 -0.3077
49255SOL     OW52575   4.633  12.262   0.512 -0.1293 -0.2707 -0.4329
49255SOL    HW152576   4.672  12.267   0.599 -0.9892  0.3169 -0.0606
49255SOL    HW252577   4.543  12.232   0.527  0.8146 -4.2104 -1.4772
49256SOL     OW52578   4.533   5.309   8.943 -0.5231  0.0913  0.2862
49256SOL    HW152579   4.510   5.400   8.957  0.1179  0.4239 -0.7014
49256SOL    HW252580   4.572   5.307   8.855 -0.1198 -1.0501  0.4666
49257SOL     OW52581   5.304  12.183   0.946  0.1040 -0.7108  0.3731
49257SOL    HW152582   5.388  12.140   0.931 -0.0847 -0.7148 -0.8274
49257SOL    HW252583   5.255  12.167   0.865 -0.7409 -0.0008  0.7308
49258SOL     OW52584   7.891   3.533  11.377 -0.6512  0.1887 -0.0056
49258SOL    HW152585   7.826   3.500  11.438  0.6461 -1.5687  0.4872
49258SOL    HW252586   7.842   3.591  11.318 -2.7196 -1.3480  0.1279
49259SOL     OW52587   3.226  10.095   6.159  0.1792 -0.0076 -0.3819
49259SOL    HW152588   3.279  10.019   6.184 -0.1190  0.1421  0.7559
49259SOL    HW252589   3.273  10.170   6.195 -0.3561  0.1937 -0.0922
49260SOL     OW52590  12.333  10.003   3.664 -0.5322  0.5646 -0.9355
49260SOL    HW152591  12.412   9.973   3.618  0.7179  0.7868  0.9114
49260SOL    HW252592  12.363  10.078   3.716 -2.3563  1.6591 -1.3861
49261SOL     OW52593   7.383   4.411   4.422 -0.0104 -0.8702 -0.0714
49261SOL    HW152594   7.419   4.420   4.510  1.2562  0.5169 -0.6861
49261SOL    HW252595   7.300   4.365   4.434  0.1237 -0.6703  1.8460
49262SOL     OW52596   7.676   9.640   9.948 -0.7303  0.1136  0.0886
49262SOL    HW152597   7.610   9.626  10.016  0.2009  1.0537  1.2067
49262SOL    HW252598   7.739   9.569   9.961  1.9564  2.7697  3.3236
49263SOL     OW52599   4.282   7.568  10.357  0.2525  0.0018 -0.4065
49263SOL    HW152600   4.262   7.602  10.445 -0.7268 -0.4777 -0.4261
49263SOL    HW252601   4.212   7.506  10.340 -0.4723  1.2214 -2.1685
49264SOL     OW52602  12.319   6.602  11.313 -0.6143  0.5687 -0.1616
49264SOL    HW152603  12.258   6.534  11.342  1.3432 -1.3161 -0.2128
49264SOL    HW252604  12.305   6.609  11.219 -0.4423 -0.1683 -0.2436
49265SOL     OW52605   5.160  11.142  11.631  0.3035 -0.5527 -0.0408
49265SOL    HW152606   5.065  11.152  11.623  0.2457 -1.0946 -0.0238
49265SOL    HW252607   5.173  11.092  11.712  0.5638 -1.1766 -0.4647
49266SOL     OW52608   7.785  11.085   8.289 -0.1291 -0.8415 -0.6902
49266SOL    HW152609   7.696  11.054   8.303 -0.4793  0.1244 -0.6690
49266SOL    HW252610   7.820  11.098   8.378  0.2318 -1.7225 -0.6897
49267SOL     OW52611   3.285   8.888   2.032 -0.1847  0.2094 -0.0044
49267SOL    HW152612   3.341   8.830   1.981 -1.2885  2.3697 -4.1041
49267SOL    HW252613   3.345   8.952   2.070  0.5868 -0.9956  0.8995
49268SOL     OW52614   2.263   7.276   3.828  0.3260 -0.0504 -0.5427
49268SOL    HW152615   2.359   7.274   3.835  0.2508 -4.1102  2.7150
49268SOL    HW252616   2.243   7.214   3.758 -0.0049  0.5526 -0.9969
49269SOL     OW52617   5.115   4.468   5.578  0.3146  0.2897 -0.4383
49269SOL    HW152618   5.133   4.376   5.559  2.1835  0.1111  1.7565
49269SOL    HW252619   5.026   4.468   5.614  0.8366 -0.9339  0.9598
49270SOL     OW52620   2.894   2.768   6.630  0.1186 -0.8362 -0.2445
49270SOL    HW152621   2.872   2.813   6.712 -0.1988 -1.2311 -0.1130
49270SOL    HW252622   2.847   2.685   6.635  0.6602 -1.1620 -0.5106
49271SOL     OW52623   8.428   4.320   9.915  0.0142 -0.3817 -0.3686
49271SOL    HW152624   8.399   4.393   9.860  0.0040 -1.2959 -1.6363
49271SOL    HW252625   8.523   4.316   9.902 -0.1956 -1.8042 -1.9612
49272SOL     OW52626   4.163   4.352   6.834 -0.2140  0.7540  0.1588
49272SOL    HW152627   4.071   4.378   6.837  0.1617  2.0951  1.9157
49272SOL    HW252628   4.179   4.310   6.919  0.4150 -1.0403 -0.7807
49273SOL     OW52629   7.106   4.778   8.842  0.4895 -0.3864 -0.1783
49273SOL    HW152630   7.143   4.703   8.795  1.8023 -0.5152  0.9702
49273SOL    HW252631   7.049   4.821   8.779  0.2098 -1.9906 -1.0550
49274SOL     OW52632   7.971   0.266   4.914  0.1507 -0.2239  0.1582
49274SOL    HW152633   8.036   0.309   4.969 -0.7734  0.1697  0.9722
49274SOL    HW252634   7.903   0.237   4.975 -0.5284 -0.4631 -0.6865
49275SOL     OW52635   0.558   8.463  10.375  0.1315 -0.1401  0.6163
49275SOL    HW152636   0.548   8.520  10.299  0.0009  1.1197  1.5509
49275SOL    HW252637   0.583   8.522  10.447  0.1220 -1.2699  1.5796
49276SOL     OW52638  11.544   1.925   0.986 -0.7995  0.3147 -0.1047
49276SOL    HW152639  11.559   1.863   0.914 -0.0505 -0.7901  0.9490
49276SOL    HW252640  11.451   1.947   0.980 -1.4214 -1.9676  0.2472
49277SOL     OW52641   9.986   2.626  10.243  0.0367 -0.2678  0.0092
49277SOL    HW152642   9.917   2.585  10.191 -2.0830 -0.5087  2.7728
49277SOL    HW252643   9.997   2.713  10.205 -0.9163 -0.6642 -1.2440
49278SOL     OW52644   2.557   0.778   3.369 -0.3857  0.8754 -0.3636
49278SOL    HW152645   2.543   0.869   3.397  1.4505  1.2313 -0.5217
49278SOL    HW252646   2.546   0.726   3.449 -0.6043  1.3078 -0.1088
49279SOL     OW52647   9.897   1.314   8.979  0.5665  0.5914  0.0031
49279SOL    HW152648   9.889   1.298   8.885 -0.1444  0.5562  0.0661
49279SOL    HW252649   9.991   1.309   8.996  0.5533 -2.1757 -0.2457
49280SOL     OW52650  12.629   4.661   8.342 -0.5396  0.3116  0.2298
49280SOL    HW152651  12.562   4.700   8.287 -1.6544 -2.0436 -0.1850
49280SOL    HW252652  12.605   4.685   8.431 -1.4878  0.1536  0.0211
49281SOL     OW52653   6.023   3.996   5.445 -0.2004 -0.5374  0.2568
49281SOL    HW152654   6.066   4.057   5.385 -0.4719 -0.3329  0.2699
49281SOL    HW252655   6.076   4.001   5.525 -0.6542  0.2577  0.5239
49282SOL     OW52656  10.872  11.173   9.831 -0.0796 -0.0697  0.4419
49282SOL    HW152657  10.878  11.247   9.771 -2.2424  0.9117  1.3388
49282SOL    HW252658  10.787  11.133   9.812 -0.6101 -0.0081  2.4725
49283SOL     OW52659   7.782   7.391   3.628 -0.0075 -0.2683  0.5071
49283SOL    HW152660   7.848   7.391   3.558 -1.0058 -2.8496 -0.5352
49283SOL    HW252661   7.698   7.396   3.582 -0.6473 -0.0322  1.6624
49284SOL     OW52662   3.771   1.394   8.213 -0.3014  0.0628  0.2344
49284SOL    HW152663   3.834   1.326   8.188 -1.3985 -0.9513  0.1683
49284SOL    HW252664   3.702   1.389   8.147 -1.3877 -0.1285  1.3502
49285SOL     OW52665   8.072   1.720  12.428  0.5375  0.1980  0.3230
49285SOL    HW152666   8.150   1.760  12.467 -0.0129  1.1257  0.5044
49285SOL    HW252667   8.012   1.793  12.413 -0.5513 -0.5690  0.7677
49286SOL     OW52668  11.105   7.319  11.969  0.4055 -0.0686  0.3633
49286SOL    HW152669  11.152   7.261  11.909 -2.2406  0.5909 -2.5788
49286SOL    HW252670  11.081   7.395  11.916 -0.1567  1.6588  2.9163
49287SOL     OW52671   5.461   2.779   4.437 -0.1377  0.2582 -0.0739
49287SOL    HW152672   5.484   2.769   4.529 -0.4881 -0.5076 -0.0629
49287SOL    HW252673   5.478   2.871   4.418  1.1655  0.1451  0.4167
49288SOL     OW52674   7.355   3.646  11.390 -0.2356 -0.8202 -0.1108
49288SOL    HW152675   7.261   3.663  11.380 -0.3230 -0.8957  0.5540
49288SOL    HW252676   7.388   3.721  11.439  0.0415 -0.8334 -0.2742
49289SOL     OW52677   3.389   3.912   5.621  0.2461 -0.1393  0.5195
49289SOL    HW152678   3.457   3.858   5.663  1.1426  0.7307  0.2334
49289SOL    HW252679   3.404   4.000   5.656 -1.8694 -0.2195  1.8077
49290SOL     OW52680   6.322   2.113   6.263  0.3047  0.3979 -0.2058
49290SOL    HW152681   6.415   2.134   6.250  0.2981  1.6003  1.3742
49290SOL    HW252682   6.291   2.087   6.176  1.6889  1.6886 -1.1374
49291SOL     OW52683  11.190   9.758  10.057  0.6156  0.1413 -0.0544
49291SOL    HW152684  11.141   9.814   9.996  2.0049  1.0229 -0.3980
49291SOL    HW252685  11.182   9.802  10.142  1.1605  0.5100 -0.1940
49292SOL     OW52686   3.216  10.317   6.551  0.2109  0.4408  0.3575
49292SOL    HW152687   3.164  10.263   6.491 -0.2657  1.6046 -0.3268
49292SOL    HW252688   3.167  10.399   6.557  0.7005  0.6568  1.6911
49293SOL     OW52689   6.835   2.019   8.377  0.7705  0.0415 -0.4470
49293SOL    HW152690   6.780   1.953   8.420  0.5064  0.6974  0.2513
49293SOL    HW252691   6.924   1.995   8.400  0.6531  0.1408  0.1133
49294SOL     OW52692   2.852   4.396   2.732 -0.1035  0.1670 -0.1938
49294SOL    HW152693   2.813   4.368   2.650  0.2105 -0.3494 -0.1758
49294SOL    HW252694   2.924   4.334   2.747  0.0237  0.4268  0.3230
49295SOL     OW52695   9.095   7.838  11.539 -0.0941  0.0044  0.2059
49295SOL    HW152696   9.093   7.808  11.630  0.9641  1.9575  0.9096
49295SOL    HW252697   9.018   7.796  11.499  0.3496 -2.2111  1.5281
49296SOL     OW52698   0.745   4.986   4.922  0.2624  0.0029  0.1439
49296SOL    HW152699   0.687   5.046   4.876 -0.4945 -0.7456  0.0800
49296SOL    HW252700   0.831   5.028   4.921 -0.1823  0.9148 -0.1791
49297SOL     OW52701   8.708   7.679   3.281 -0.1745 -0.4290  0.3082
49297SOL    HW152702   8.785   7.698   3.335 -0.6605 -0.1182  0.9181
49297SOL    HW252703   8.645   7.748   3.304 -0.8000 -0.9349  0.1648
49298SOL     OW52704   6.491   5.925   9.857 -0.1635  0.3137 -0.2005
49298SOL    HW152705   6.414   5.868   9.853  1.7699 -2.8164  1.9789
49298SOL    HW252706   6.464   5.998   9.912 -1.7933 -0.2712 -0.1694
49299SOL     OW52707   8.095   7.733   2.748 -0.4838  0.5872  0.1486
49299SOL    HW152708   8.146   7.666   2.793  0.1662  0.9334 -0.0632
49299SOL    HW252709   8.015   7.741   2.800 -0.7614 -0.6463 -0.0575
49300SOL     OW52710  12.351   7.555  12.207 -0.8308  0.1263 -0.2983
49300SOL    HW152711  12.391   7.489  12.150 -0.0749 -1.0911  1.5526
49300SOL    HW252712  12.270   7.515  12.238 -2.3803  1.6353 -2.1054
49301SOL     OW52713   0.787  12.209   0.300  0.3494  0.1497 -0.1251
49301SOL    HW152714   0.753  12.177   0.383  0.5383  0.2988  0.0115
49301SOL    HW252715   0.821  12.131   0.256 -1.0267 -0.1562 -0.6844
49302SOL     OW52716   8.515   8.751   0.637  0.3473  0.2835  0.0990
49302SOL    HW152717   8.538   8.698   0.561 -2.4886  0.6032 -1.1127
49302SOL    HW252718   8.506   8.840   0.603 -0.4301  0.5324  0.9034
49303SOL     OW52719   7.501   0.184   9.822 -0.7560  0.0842  0.3134
49303SOL    HW152720   7.523   0.133   9.900  1.0669  0.4938  0.1134
49303SOL    HW252721   7.406   0.175   9.813 -0.5685 -3.1992  0.3399
49304SOL     OW52722   1.543   5.432   5.248 -0.2549 -0.1011  0.5026
49304SOL    HW152723   1.510   5.490   5.316  0.0946  0.4201  0.2337
49304SOL    HW252724   1.466   5.381   5.221 -0.6249  0.4162  0.5597
49305SOL     OW52725  11.654   4.774   8.815 -0.0964 -0.1393  0.0667
49305SOL    HW152726  11.657   4.710   8.886 -0.4219  0.9583  1.1062
49305SOL    HW252727  11.582   4.746   8.760  0.1669 -1.0117  0.1527
49306SOL     OW52728  11.245   7.806   2.983 -0.1240  0.2695 -0.2558
49306SOL    HW152729  11.273   7.871   2.918 -1.8648  1.8425  0.4854
49306SOL    HW252730  11.177   7.850   3.034 -0.9155 -1.9332  0.7233
49307SOL     OW52731   3.293   4.623   3.907  0.5055  0.1509  0.2533
49307SOL    HW152732   3.287   4.563   3.832 -2.5761  0.5984  0.0158
49307SOL    HW252733   3.385   4.647   3.911  1.4174 -2.6283 -1.1847
49308SOL     OW52734   7.583   2.442   7.669  0.0452 -0.2208  0.4910
49308SOL    HW152735   7.534   2.373   7.625  0.7759  0.7312 -1.9478
49308SOL    HW252736   7.611   2.402   7.752 -1.7371 -1.9496  0.3361
49309SOL     OW52737   1.238   7.514   3.497 -0.1246  0.1028  0.0859
49309SOL    HW152738   1.274   7.473   3.576  0.5765  0.6767  0.0743
49309SOL    HW252739   1.264   7.455   3.426  0.0108  0.0443  0.1828
49310SOL     OW52740   3.318   8.902   5.265 -0.0910 -0.0336 -0.6413
49310SOL    HW152741   3.316   8.826   5.208  0.2195 -0.3875 -0.1970
49310SOL    HW252742   3.226   8.924   5.280 -0.1712  0.4235 -1.7321
49311SOL     OW52743   9.567   8.553   4.217 -0.7585 -0.4113 -0.4895
49311SOL    HW152744   9.620   8.491   4.266  0.1967  0.9698  0.2761
49311SOL    HW252745   9.609   8.558   4.131  0.7180  1.0435  0.2676
49312SOL     OW52746   8.768   9.899   6.423  0.1323 -0.4210  0.2976
49312SOL    HW152747   8.734   9.859   6.343  2.0112 -0.8328 -0.3353
49312SOL    HW252748   8.812   9.979   6.393  1.9360 -1.2109  0.7218
49313SOL     OW52749   4.335   0.803  12.572 -0.2132  0.0787 -0.1434
49313SOL    HW152750   4.247   0.835  12.551 -1.7278 -2.6692  1.5257
49313SOL    HW252751   4.363   0.756  12.494 -0.5752  0.2194 -0.3618
49314SOL     OW52752  11.051  10.457   5.036  0.1622 -0.6030  0.0197
49314SOL    HW152753  11.077  10.441   4.946  1.5870 -0.0958  0.3133
49314SOL    HW252754  11.096  10.538   5.060  1.1396 -1.5827  1.6966
49315SOL     OW52755   6.456   8.226   8.267  0.3994 -0.2830 -0.4192
49315SOL    HW152756   6.513   8.215   8.343 -1.3221  1.0768  1.1717
49315SOL    HW252757   6.456   8.320   8.250 -0.5333 -0.3746 -1.0236
49316SOL     OW52758   5.592  12.184  10.548  0.3070  0.0569 -0.0900
49316SOL    HW152759   5.610  12.258  10.607  0.0601 -0.6113  0.8456
49316SOL    HW252760   5.652  12.115  10.577 -0.3045 -0.5170 -0.1748
49317SOL     OW52761   3.751   9.937   0.222  0.3746 -0.1355  0.3852
49317SOL    HW152762   3.775  10.030   0.215 -3.2571  0.8699 -0.7578
49317SOL    HW252763   3.770   9.915   0.313 -0.0367  2.2195  1.1167
49318SOL     OW52764   8.641  10.319   5.496 -0.2751 -0.2494 -0.2261
49318SOL    HW152765   8.630  10.351   5.585  1.0398 -1.0172  0.2484
49318SOL    HW252766   8.553  10.315   5.460 -0.6532  2.0448  0.3192
49319SOL     OW52767   7.151   4.335   5.790  0.0948  0.1591 -0.3197
49319SOL    HW152768   7.120   4.297   5.707 -0.4587  1.7605 -0.8996
49319SOL    HW252769   7.238   4.368   5.769  0.3089 -0.2035 -0.0051
49320SOL     OW52770   0.210  10.714   9.265  0.1732  0.2165  0.4383
49320SOL    HW152771   0.245  10.647   9.207 -0.4373 -1.7790  2.2218
49320SOL    HW252772   0.142  10.758   9.214  0.7638 -0.3466 -0.8638
49321SOL     OW52773   1.654   9.980  10.658 -0.1536  0.2645 -0.1655
49321SOL    HW152774   1.640   9.982  10.753 -2.7374  2.3536 -0.4408
49321SOL    HW252775   1.746  10.002  10.646 -0.3017  2.4042  1.8828
49322SOL     OW52776   7.919   6.088   7.794 -0.2334  0.0763 -0.0158
49322SOL    HW152777   7.878   6.071   7.878 -0.3813 -2.0232 -0.4585
49322SOL    HW252778   8.010   6.109   7.815 -0.3532 -0.0788  0.6736
49323SOL     OW52779   5.096   0.574   0.960 -0.4381 -0.6384 -0.3451
49323SOL    HW152780   5.187   0.602   0.954 -0.0374 -2.0715 -1.6817
49323SOL    HW252781   5.046   0.655   0.966  0.7202  0.3779 -2.9635
49324SOL     OW52782  10.094  10.468   5.622 -0.1749 -1.0078  0.1817
49324SOL    HW152783  10.153  10.453   5.548  0.0138 -0.5075  0.2240
49324SOL    HW252784  10.074  10.562   5.618  1.1872 -0.6131  1.7608
49325SOL     OW52785   9.471   7.289   8.071 -0.0935 -0.0025  0.2511
49325SOL    HW152786   9.506   7.302   7.982  2.0285  0.8208  1.1397
49325SOL    HW252787   9.536   7.233   8.114 -1.1858 -0.5365  1.2553
49326SOL     OW52788   0.102   4.534   2.783 -0.4139  0.6414 -0.3475
49326SOL    HW152789   0.032   4.469   2.789 -0.1475  0.4338  0.7311
49326SOL    HW252790   0.163   4.510   2.853  0.5373  1.0567 -1.0018
49327SOL     OW52791   2.486   2.853   0.643  0.3432 -0.4643  0.3451
49327SOL    HW152792   2.445   2.776   0.606 -1.3958  0.2691  0.6573
49327SOL    HW252793   2.512   2.827   0.732 -2.1456 -0.1578  1.2448
49328SOL     OW52794   0.653   1.304  12.471 -0.1781  0.2859  0.3357
49328SOL    HW152795   0.624   1.258  12.392  1.3402 -1.2391  0.6034
49328SOL    HW252796   0.616   1.253  12.543  0.7541 -0.0150  0.6233
49329SOL     OW52797   4.267   6.384   3.708 -0.2320  0.2329 -0.4298
49329SOL    HW152798   4.300   6.450   3.646 -0.8369  1.7069  0.7694
49329SOL    HW252799   4.337   6.320   3.713  1.2072  1.7490 -0.2250
49330SOL     OW52800   6.089   5.544   7.701 -0.3967 -0.1466  0.2195
49330SOL    HW152801   6.070   5.597   7.779 -0.3232  1.6353 -0.9278
49330SOL    HW252802   6.041   5.587   7.631  1.0010 -0.6488 -1.0836
49331SOL     OW52803   6.782  11.129   1.791  0.2876  0.3945 -0.3050
49331SOL    HW152804   6.820  11.118   1.878  1.5604 -0.6311 -0.9665
49331SOL    HW252805   6.856  11.145   1.733 -0.1841 -1.8198 -1.6613
49332SOL     OW52806   5.212   3.540   5.939 -0.1780  0.4925  0.9709
49332SOL    HW152807   5.169   3.555   5.854  2.2745  0.2479 -0.4063
49332SOL    HW252808   5.188   3.451   5.963  1.5333 -0.6143 -1.0896
49333SOL     OW52809   2.236   5.455   6.264 -0.6171  0.4503 -0.2065
49333SOL    HW152810   2.261   5.499   6.345 -0.4001  0.7221 -0.4210
49333SOL    HW252811   2.208   5.525   6.205 -2.0084  0.1494  0.0631
49334SOL     OW52812  10.274   9.885   5.800  0.3402 -0.5031  0.3734
49334SOL    HW152813  10.231   9.800   5.806  0.0844 -0.3618  0.5644
49334SOL    HW252814  10.334   9.876   5.726 -2.0668  0.1728 -1.8506
49335SOL     OW52815  10.123   8.835   6.807 -0.1588 -0.2312  0.2200
49335SOL    HW152816  10.098   8.795   6.724 -1.0184  0.7740 -0.0389
49335SOL    HW252817  10.209   8.875   6.790  1.6504 -3.4685  1.0316
49336SOL     OW52818   7.119   1.481   8.265  0.0118  0.3410 -0.2211
49336SOL    HW152819   7.197   1.466   8.319 -0.4949  1.1293  0.7684
49336SOL    HW252820   7.078   1.395   8.256 -0.7262  0.4081  1.9784
49337SOL     OW52821  12.572   6.885  11.457  0.7344  0.4374  0.5545
49337SOL    HW152822  12.643   6.941  11.427 -0.9402  2.8761  0.8894
49337SOL    HW252823  12.496   6.911  11.404  0.1949 -2.7301 -0.4778
49338SOL     OW52824   4.924   9.310  12.139 -0.7093  0.0548 -0.5793
49338SOL    HW152825   4.850   9.282  12.085 -0.6798  0.8992 -1.0718
49338SOL    HW252826   4.991   9.244  12.124 -0.4883  0.5799 -2.0373
49339SOL     OW52827  12.040   6.137   0.048 -0.1208  0.0471 -0.2135
49339SOL    HW152828  12.119   6.161   0.001 -1.6328  1.3055 -2.2963
49339SOL    HW252829  12.036   6.041   0.042  0.5205  0.0830 -1.3240
49340SOL     OW52830   6.249   4.581   0.177  0.1158  0.4908 -0.2251
49340SOL    HW152831   6.300   4.540   0.107 -0.5362 -1.1400  0.1848
49340SOL    HW252832   6.194   4.645   0.132  0.0326 -0.2055 -1.1576
49341SOL     OW52833   3.042  10.685  10.982  0.7210 -0.1870  0.2628
49341SOL    HW152834   3.126  10.681  11.027 -0.6047 -1.3829  2.8669
49341SOL    HW252835   3.041  10.772  10.941  2.3514  0.7358  2.0063
49342SOL     OW52836  11.967   3.999   9.057  1.0011  0.0512  0.0684
49342SOL    HW152837  12.048   4.046   9.073  1.5221 -1.0563  0.8360
49342SOL    HW252838  11.934   4.034   8.974  2.5242  0.1755 -0.4990
49343SOL     OW52839   6.697   8.410   2.026  0.4854 -0.4845 -0.0411
49343SOL    HW152840   6.701   8.501   1.998  0.5870 -0.5004 -0.0807
49343SOL    HW252841   6.654   8.365   1.953 -0.4129 -0.3206  0.3674
49344SOL     OW52842   5.069   6.545   2.219 -0.1035  0.4589  0.4270
49344SOL    HW152843   5.161   6.553   2.245  0.2285  0.6738 -0.7702
49344SOL    HW252844   5.043   6.459   2.250  0.9275 -0.2006 -0.4556
49345SOL     OW52845   9.596   9.699  10.619  0.2100  0.0059  0.1840
49345SOL    HW152846   9.510   9.671  10.651  0.7373 -0.5053  1.1856
49345SOL    HW252847   9.638   9.619  10.588 -0.6777  0.5953 -2.9206
49346SOL     OW52848  11.648  12.083   4.168  0.1479  0.1669  0.4721
49346SOL    HW152849  11.695  12.054   4.090 -1.8169 -0.0995 -0.6629
49346SOL    HW252850  11.660  12.178   4.169  1.6641  0.0047  0.8991
49347SOL     OW52851   0.228   9.938   3.257 -0.5243 -0.1550  0.0548
49347SOL    HW152852   0.315   9.977   3.259 -1.0888  1.1812 -0.4207
49347SOL    HW252853   0.178   9.986   3.324 -0.9130 -0.8828  0.3002
49348SOL     OW52854   5.415   9.537   9.424  0.4390  0.4529  0.1767
49348SOL    HW152855   5.388   9.457   9.380  0.7972  0.2843  0.2579
49348SOL    HW252856   5.334   9.584   9.442  0.0932 -0.5787  1.4490
49349SOL     OW52857   2.928   6.796   0.246 -0.6003  0.1808 -0.5219
49349SOL    HW152858   2.898   6.850   0.319 -1.3985 -2.3212  1.1149
49349SOL    HW252859   2.968   6.720   0.287  1.5484 -0.0018 -2.7400
49350SOL     OW52860   8.900   7.407   8.936  0.3320  0.2128 -0.2000
49350SOL    HW152861   8.987   7.439   8.913  0.9307 -0.2521  1.2918
49350SOL    HW252862   8.853   7.485   8.967  1.3869 -0.0408  2.2583
49351SOL     OW52863  11.502  12.128   6.381 -0.1558 -0.1039 -0.6851
49351SOL    HW152864  11.430  12.071   6.410 -0.9893  0.8754 -0.7833
49351SOL    HW252865  11.516  12.105   6.289 -2.1628  1.5030 -1.4631
49352SOL     OW52866   5.884   6.119   8.411 -0.1553  0.3005 -0.2335
49352SOL    HW152867   5.810   6.063   8.388 -1.2676  1.3858  0.5662
49352SOL    HW252868   5.852   6.172   8.483  1.7881  0.0196  0.9108
49353SOL     OW52869   4.751   8.382   4.862  0.0547 -0.5620 -0.8064
49353SOL    HW152870   4.800   8.319   4.915  1.0171 -0.5732 -1.6657
49353SOL    HW252871   4.706   8.329   4.797 -1.3082 -0.5670  0.1048
49354SOL     OW52872  11.963  10.365  11.059 -0.1566 -0.0952 -0.2572
49354SOL    HW152873  12.035  10.414  11.099  1.1030 -1.7087 -0.4562
49354SOL    HW252874  11.938  10.300  11.125 -1.0273  0.0588 -0.4288
49355SOL     OW52875   7.505   7.506   0.788 -0.2484 -0.4323 -0.1185
49355SOL    HW152876   7.522   7.425   0.836 -0.7695 -0.1179  0.6212
49355SOL    HW252877   7.472   7.477   0.703 -1.9314 -1.0340  0.6887
49356SOL     OW52878   8.152   0.299   4.198  0.0842  0.0762  0.2801
49356SOL    HW152879   8.191   0.368   4.251 -3.1459  1.7559  0.7751
49356SOL    HW252880   8.125   0.232   4.261  1.2491 -0.6390  0.0458
49357SOL     OW52881  10.959   6.708   0.656 -0.8493  0.0954  0.3207
49357SOL    HW152882  10.963   6.802   0.671  0.3632 -0.0537  1.0883
49357SOL    HW252883  10.992   6.697   0.567  0.5416  0.2953  0.7844
49358SOL     OW52884   8.118   6.913  11.684  0.6955  0.4526  0.0460
49358SOL    HW152885   8.155   6.919  11.596 -0.5549  0.1936 -0.5327
49358SOL    HW252886   8.023   6.905  11.669  0.3030  1.9853  1.4714
49359SOL     OW52887  12.327   3.889   1.018 -0.0362  0.6964 -0.3707
49359SOL    HW152888  12.252   3.829   1.013  1.6311 -1.5190 -0.4975
49359SOL    HW252889  12.361   3.877   1.107  0.2037  1.6184 -0.3351
49360SOL     OW52890   8.989   5.616  12.364 -0.2242  0.1662 -0.8235
49360SOL    HW152891   9.038   5.698  12.369  0.1236 -0.0564  3.7722
49360SOL    HW252892   9.052   5.549  12.390 -1.6602 -0.8052  0.3513
49361SOL     OW52893   7.818   0.883   3.097  0.1240  0.3523 -0.2288
49361SOL    HW152894   7.771   0.966   3.096  0.9987  0.8850  1.0908
49361SOL    HW252895   7.885   0.892   3.030  0.1185  0.6574 -0.1948
49362SOL     OW52896   5.216   5.559   6.909 -0.2928 -0.4932 -0.4291
49362SOL    HW152897   5.245   5.588   6.823 -0.7768  1.9038  0.1315
49362SOL    HW252898   5.296   5.557   6.962 -0.1778 -0.7316 -0.6101
49363SOL     OW52899   2.356  10.422  10.901  0.3043  0.0915 -0.4277
49363SOL    HW152900   2.272  10.460  10.928  0.3305 -0.9586  1.3071
49363SOL    HW252901   2.353  10.332  10.933  2.3339  0.2211  0.2937
49364SOL     OW52902   1.555  11.179   4.928 -0.3292 -0.0748 -0.2367
49364SOL    HW152903   1.631  11.220   4.970 -2.9026  2.2935  2.6096
49364SOL    HW252904   1.523  11.245   4.867  0.2672 -1.3969 -2.0706
49365SOL     OW52905   8.162  12.612   4.133 -0.2205  0.3392 -0.1336
49365SOL    HW152906   8.244  12.570   4.157 -1.0987 -1.4235 -0.0879
49365SOL    HW252907   8.185  12.668   4.058  0.9988 -0.1486 -0.1523
49366SOL     OW52908   2.450   4.196   4.178  0.3642  0.0698 -0.8197
49366SOL    HW152909   2.497   4.257   4.235  0.1004 -1.4323  1.1002
49366SOL    HW252910   2.514   4.127   4.160 -0.3906 -0.8296 -0.0908
49367SOL     OW52911   8.215   1.196   7.955 -0.1426 -0.0980 -0.4252
49367SOL    HW152912   8.143   1.252   7.928  1.0360  0.7152 -2.0227
49367SOL    HW252913   8.281   1.256   7.990  0.4290 -0.6499 -0.5345
49368SOL     OW52914  10.211   6.817   5.573 -0.3429 -0.1085  0.2866
49368SOL    HW152915  10.270   6.774   5.635 -0.6712 -0.6162  0.2461
49368SOL    HW252916  10.147   6.861   5.629 -0.5310 -0.4145  0.3139
49369SOL     OW52917   7.330  11.813   3.869 -0.0595  0.5021  0.3397
49369SOL    HW152918   7.317  11.779   3.781  1.0198  1.1891 -0.1087
49369SOL    HW252919   7.422  11.842   3.871  0.2499 -0.4287  2.0135
49370SOL     OW52920   5.247   7.654  12.386 -0.3050  0.1005 -0.0978
49370SOL    HW152921   5.170   7.623  12.433 -0.5616  0.0358 -0.5528
49370SOL    HW252922   5.287   7.574  12.351  0.6836  0.0030  1.1947
49371SOL     OW52923  12.481  10.309   4.131 -0.0907  0.0928 -0.6771
49371SOL    HW152924  12.399  10.356   4.137  0.9328  1.8205  0.5240
49371SOL    HW252925  12.519  10.338   4.048  0.3140  1.0600 -0.1694
49372SOL     OW52926   3.115   4.890   2.506  0.2834  0.0501  0.2887
49372SOL    HW152927   3.197   4.906   2.459 -1.3701  0.9105 -2.6024
49372SOL    HW252928   3.098   4.797   2.494 -0.3068  0.3333 -1.2343
49373SOL     OW52929   6.107  11.633  11.036 -0.0651  0.3904 -0.0633
49373SOL    HW152930   6.120  11.538  11.046  0.9760  0.6206  1.1141
49373SOL    HW252931   6.152  11.671  11.112 -1.6167  1.7698  0.2237
49374SOL     OW52932   9.373   5.384  10.643  0.0359 -0.0163  0.1634
49374SOL    HW152933   9.336   5.448  10.703 -2.0048 -0.6686 -0.3435
49374SOL    HW252934   9.348   5.414  10.556 -0.5705 -1.2433 -0.1062
49375SOL     OW52935   6.401   4.226   6.092  0.0523  0.3314 -0.0837
49375SOL    HW152936   6.317   4.184   6.110 -0.2062  1.1745  0.7129
49375SOL    HW252937   6.463   4.153   6.082 -0.3487 -0.2482  1.4839
49376SOL     OW52938   2.481   6.157   1.727  0.4437 -0.0766  0.4455
49376SOL    HW152939   2.492   6.249   1.703 -1.9586  0.3611  0.7957
49376SOL    HW252940   2.558   6.137   1.781  0.7956  1.8272  0.7160
49377SOL     OW52941   9.299  10.669   0.717  0.2383  0.0567  0.6205
49377SOL    HW152942   9.352  10.594   0.742  1.1122  1.3853  3.0936
49377SOL    HW252943   9.363  10.738   0.700 -0.5559  0.3646 -1.3400
49378SOL     OW52944   2.469   2.440   7.552  0.1351 -0.4497 -0.2049
49378SOL    HW152945   2.531   2.503   7.516 -0.1728 -0.1621 -0.2444
49378SOL    HW252946   2.424   2.405   7.475 -0.2784 -0.0946 -0.1312
49379SOL     OW52947   6.473   8.961  12.212  0.4664 -0.7426 -0.6747
49379SOL    HW152948   6.526   8.992  12.285 -0.4378  1.4842 -0.9099
49379SOL    HW252949   6.522   8.987  12.134 -0.0574 -0.3648 -0.8788
49380SOL     OW52950  11.028   4.201   9.679  0.4925 -0.1458 -0.0038
49380SOL    HW152951  11.086   4.131   9.711  0.5654  0.0379  0.2649
49380SOL    HW252952  11.006   4.174   9.589 -1.2683 -1.6752  0.7959
49381SOL     OW52953   3.671   3.957   7.960 -0.6049  0.1708 -0.3242
49381SOL    HW152954   3.669   4.029   8.023  0.0450  1.0464 -1.2632
49381SOL    HW252955   3.586   3.915   7.968  0.3515 -1.5489  3.1311
49382SOL     OW52956  10.342   4.778   1.530  0.4040 -0.3826  0.0459
49382SOL    HW152957  10.278   4.758   1.598  1.8072  1.5080  2.0653
49382SOL    HW252958  10.303   4.746   1.450 -2.3308 -0.7619  1.4273
49383SOL     OW52959   2.125  10.043   1.682 -0.0542  0.0559 -0.3089
49383SOL    HW152960   2.035  10.074   1.693 -0.1485 -0.7158  1.4224
49383SOL    HW252961   2.169  10.114   1.634 -0.8857  1.7324  1.2710
49384SOL     OW52962   1.807   4.897  10.972 -0.0116 -0.1245  0.3226
49384SOL    HW152963   1.856   4.831  11.022  0.4711  0.9781  1.3696
49384SOL    HW252964   1.747   4.936  11.036  1.7857  2.4971  0.6239
49385SOL     OW52965  11.140  10.064   3.396 -0.1299 -0.6219  0.1775
49385SOL    HW152966  11.160  10.098   3.309 -0.4568  1.9054  1.0342
49385SOL    HW252967  11.057  10.018   3.384 -0.7038  0.5838 -0.6719
49386SOL     OW52968   7.613  10.370   0.186  0.0160 -0.3804 -0.2240
49386SOL    HW152969   7.643  10.351   0.275 -0.9138  0.8486  0.3686
49386SOL    HW252970   7.610  10.284   0.143  3.6983 -0.6987 -0.1711
49387SOL     OW52971   8.047   8.347   9.901  0.6481  0.3262  0.0750
49387SOL    HW152972   8.045   8.322   9.809  1.5613 -0.5253  0.2690
49387SOL    HW252973   8.059   8.442   9.899  1.4931  0.2203 -0.6948
49388SOL     OW52974   9.272   9.635   5.879 -0.1334 -0.6831  0.0054
49388SOL    HW152975   9.203   9.616   5.942 -1.2372  0.9045 -0.6552
49388SOL    HW252976   9.318   9.711   5.915  0.4489 -0.9369 -0.1892
49389SOL     OW52977  12.059   3.422   4.824  1.1099 -0.7950 -0.0689
49389SOL    HW152978  12.055   3.343   4.878 -0.7107 -0.6224  0.1149
49389SOL    HW252979  12.084   3.391   4.737 -1.5709 -1.9281 -0.5308
49390SOL     OW52980   6.841   8.460   1.668 -0.6217 -0.0798  0.2283
49390SOL    HW152981   6.850   8.401   1.592 -1.9982 -2.3999  1.7102
49390SOL    HW252982   6.797   8.537   1.633 -2.0726 -1.4744 -1.2533
49391SOL     OW52983   0.760   0.818   5.879 -0.0723  0.1753 -0.5969
49391SOL    HW152984   0.781   0.895   5.826 -0.4795  0.2042 -0.7166
49391SOL    HW252985   0.835   0.759   5.865  0.1746  0.4899 -0.6152
49392SOL     OW52986   7.943   0.308   3.982 -0.3934  0.5335  0.3568
49392SOL    HW152987   7.964   0.393   3.944  0.4687  0.4763  0.6646
49392SOL    HW252988   8.012   0.294   4.048  1.2929 -1.6968 -1.7038
49393SOL     OW52989   8.891   9.857  12.424 -0.4419 -0.9893 -0.3737
49393SOL    HW152990   8.971   9.909  12.417  0.3129 -2.0706 -0.0317
49393SOL    HW252991   8.823   9.920  12.447  0.2366 -0.0046 -0.9840
49394SOL     OW52992   8.668  10.421   8.667  0.0301 -0.3433  0.2148
49394SOL    HW152993   8.753  10.379   8.680  0.1594  0.0073  0.5364
49394SOL    HW252994   8.621  10.405   8.749  0.5067  1.1093  0.8079
49395SOL     OW52995   5.050   6.345   3.763 -0.2609  0.3361  0.7262
49395SOL    HW152996   4.997   6.322   3.687 -0.2856  0.2769  0.7609
49395SOL    HW252997   5.057   6.263   3.813  0.0950  0.2727  0.5806
49396SOL     OW52998   3.524   6.227  10.573  0.4304  0.4573  0.4860
49396SOL    HW152999   3.516   6.245  10.479  0.9911  0.2117  0.3880
49396SOL    HW253000   3.459   6.158  10.589 -1.5716  2.3068  0.8259
49397SOL     OW53001   6.960   0.877   7.814  0.1147 -0.1363 -0.0548
49397SOL    HW153002   6.910   0.819   7.872  0.6054  0.2533  0.7871
49397SOL    HW253003   6.896   0.909   7.750 -0.6883  0.2537  0.9145
49398SOL     OW53004  12.383  11.282  11.755  0.6893 -0.3440 -0.2735
49398SOL    HW153005  12.298  11.326  11.744  0.6014 -0.3181  0.4632
49398SOL    HW253006  12.373  11.232  11.836  1.6147  0.2135  0.1936
49399SOL     OW53007   6.039   5.960   0.799  0.5342 -0.1050 -0.3993
49399SOL    HW153008   5.984   6.031   0.833  0.2108 -1.0115  1.0248
49399SOL    HW253009   5.989   5.924   0.726 -0.8596 -0.9678  0.9281
49400SOL     OW53010   3.018   1.593  11.052 -0.4960 -0.3900 -0.3153
49400SOL    HW153011   3.061   1.554  10.976 -1.2420 -0.3057 -0.7989
49400SOL    HW253012   3.055   1.681  11.058  0.7235 -0.9209  0.3956
49401SOL     OW53013   6.904   5.310   4.573  0.2845 -0.1209 -0.5883
49401SOL    HW153014   6.856   5.391   4.594  1.0972  0.7904 -2.0156
49401SOL    HW253015   6.861   5.242   4.625 -1.9556  0.8075 -1.1075
49402SOL     OW53016   2.620   4.685   2.547 -0.1948 -0.6549  0.0672
49402SOL    HW153017   2.610   4.663   2.640 -1.2545 -0.2785  0.0614
49402SOL    HW253018   2.605   4.603   2.502  0.9429 -0.9711  0.2485
49403SOL     OW53019   8.457   6.844   7.721 -0.2795 -0.0886  0.2887
49403SOL    HW153020   8.508   6.764   7.734  0.4713 -0.2685 -2.9303
49403SOL    HW253021   8.495   6.906   7.782 -0.0480 -1.8061  1.9884
49404SOL     OW53022   1.660   4.254   9.596  0.3766 -0.2574  0.3447
49404SOL    HW153023   1.578   4.276   9.553 -0.5889  0.4708  2.4240
49404SOL    HW253024   1.722   4.321   9.565 -0.5951  0.9518  0.9364
49405SOL     OW53025   2.132   6.709   9.775 -0.3416  0.5041 -0.1347
49405SOL    HW153026   2.107   6.675   9.861 -0.7120  1.1346  0.0129
49405SOL    HW253027   2.102   6.642   9.713 -0.9585  0.4972  0.1588
49406SOL     OW53028   7.994  10.898   2.309 -0.1928  0.0187 -0.2791
49406SOL    HW153029   7.967  10.883   2.218  0.1500 -0.6557 -0.2713
49406SOL    HW253030   8.006  10.993   2.314  0.0029  0.0385 -0.9976
49407SOL     OW53031   3.915   4.018   1.203  0.1976 -0.4116 -0.3609
49407SOL    HW153032   3.992   4.003   1.258 -0.1049 -1.5386 -0.2182
49407SOL    HW253033   3.863   4.082   1.252 -0.9800 -2.7568  1.6700
49408SOL     OW53034   5.890  12.405   1.589  0.6723  0.0686 -0.8263
49408SOL    HW153035   5.942  12.326   1.574  0.9655  0.2892 -0.9571
49408SOL    HW253036   5.832  12.410   1.512 -0.3865 -0.8397 -0.1209
49409SOL     OW53037  11.281   7.556   9.229  0.4018  0.0860 -0.1432
49409SOL    HW153038  11.330   7.541   9.148 -1.0471 -1.7875 -0.7595
49409SOL    HW253039  11.255   7.469   9.258 -1.7064  0.9160  0.6692
49410SOL     OW53040   4.175   9.051  10.268 -0.0892  0.4172  0.4894
49410SOL    HW153041   4.162   8.968  10.314 -0.2192  0.4463  0.5067
49410SOL    HW253042   4.264   9.077  10.292  0.2754 -0.1472 -0.2178
49411SOL     OW53043  12.267   6.445  12.350 -0.6688 -0.0182 -0.1194
49411SOL    HW153044  12.356   6.477  12.366  0.0761 -1.4894 -1.0570
49411SOL    HW253045  12.237   6.495  12.273 -0.1519 -0.4012 -0.5757
49412SOL     OW53046   9.168   1.922   3.968 -0.0341  0.2409 -0.1478
49412SOL    HW153047   9.176   1.952   3.877 -0.3206 -1.8768 -0.9241
49412SOL    HW253048   9.168   1.827   3.962  2.6132 -0.0391  2.3406
49413SOL     OW53049   5.116   3.325   4.732  0.2308 -0.2857  0.0605
49413SOL    HW153050   5.069   3.242   4.720  2.7038 -1.5526 -1.9370
49413SOL    HW253051   5.175   3.309   4.806  0.2055 -0.0516  0.1326
49414SOL     OW53052   9.305  12.428   1.663 -0.1098 -0.3896  0.2045
49414SOL    HW153053   9.396  12.438   1.688  0.5389  0.6678 -2.3052
49414SOL    HW253054   9.301  12.460   1.573 -3.3906  1.6698  0.9130
49415SOL     OW53055   7.106  11.987   8.908  0.4086  0.9059 -0.4875
49415SOL    HW153056   7.101  11.949   8.995  0.5117 -0.4064 -1.0319
49415SOL    HW253057   7.035  12.051   8.906 -1.0223 -0.5976 -0.1438
49416SOL     OW53058   7.327   6.527   9.214 -0.8954 -0.6070 -0.4181
49416SOL    HW153059   7.359   6.605   9.260 -1.1565 -0.5495 -0.3324
49416SOL    HW253060   7.312   6.464   9.284 -0.2111 -0.9068 -0.5318
49417SOL     OW53061   9.643   9.570   6.785  0.4426  0.2721 -0.0510
49417SOL    HW153062   9.628   9.577   6.880 -0.3891 -1.8205  0.0316
49417SOL    HW253063   9.577   9.627   6.746 -0.7791 -0.6333  0.6150
49418SOL     OW53064   2.848   1.051   9.770  0.4967 -0.2711  0.1974
49418SOL    HW153065   2.882   1.059   9.681 -0.7965  0.0061 -0.3017
49418SOL    HW253066   2.911   1.096   9.825  0.4350  1.0913 -0.8133
49419SOL     OW53067   2.152   0.116   4.170 -0.1930  0.0157 -0.4036
49419SOL    HW153068   2.132   0.032   4.211 -0.5208  0.8171  1.1542
49419SOL    HW253069   2.219   0.154   4.226  1.6627 -0.1622 -2.3902
49420SOL     OW53070   5.012   1.097  12.610  0.5089  0.2828  0.0898
49420SOL    HW153071   5.057   1.086  12.527  1.7734  1.3197  0.6079
49420SOL    HW253072   5.001   1.008  12.644 -1.8860 -0.3598 -2.0768
49421SOL     OW53073   7.450   3.230   6.789  0.1113  0.0433 -0.2934
49421SOL    HW153074   7.361   3.248   6.759 -0.0565 -0.3896 -0.0715
49421SOL    HW253075   7.495   3.197   6.712  0.6293  2.0425 -0.8899
49422SOL     OW53076   8.387   8.176   1.468  0.1261 -0.5622 -0.4077
49422SOL    HW153077   8.329   8.252   1.475 -0.1131 -0.8251  0.7593
49422SOL    HW253078   8.467   8.209   1.429  0.2438  0.4282  0.6204
49423SOL     OW53079  10.778  10.012   6.681 -0.3586 -0.7369 -0.1030
49423SOL    HW153080  10.701  10.066   6.699 -1.2358 -2.2699  1.0284
49423SOL    HW253081  10.825  10.059   6.612  0.1329  2.5928  2.2723
49424SOL     OW53082   0.225   6.421  10.438 -0.0173 -0.1923  0.6817
49424SOL    HW153083   0.241   6.471  10.518  0.6859  1.6610 -0.5415
49424SOL    HW253084   0.137   6.447  10.411 -0.4367 -1.1645  1.0531
49425SOL     OW53085   3.368   9.912   7.326 -0.3433 -0.2057 -0.5440
49425SOL    HW153086   3.325   9.995   7.305 -2.2489 -1.1376 -0.5264
49425SOL    HW253087   3.324   9.882   7.406  0.6900 -0.9873 -0.2506
49426SOL     OW53088   4.806   0.768   5.476  0.4731 -0.5542 -0.0766
49426SOL    HW153089   4.727   0.762   5.529  0.7749 -0.6921  0.3686
49426SOL    HW253090   4.813   0.861   5.455 -0.2577 -0.6656 -0.8293
49427SOL     OW53091   9.083   2.497   2.861 -0.4649 -0.4815  0.2319
49427SOL    HW153092   9.060   2.444   2.785 -2.5320  0.8705 -0.1579
49427SOL    HW253093   9.140   2.566   2.827  0.6633 -1.2948  0.4050
49428SOL     OW53094  11.339   2.983   8.441 -0.2800  0.0230  0.3628
49428SOL    HW153095  11.273   3.051   8.446  1.4891  1.7839  1.3338
49428SOL    HW253096  11.345   2.949   8.530  2.4290  2.3357  1.2097
49429SOL     OW53097   7.081   5.400   5.685 -0.0803  0.0954  0.0110
49429SOL    HW153098   7.008   5.450   5.648  1.1285  1.3735 -0.7550
49429SOL    HW253099   7.081   5.422   5.778 -0.2470  0.6418 -0.1175
49430SOL     OW53100  12.467   2.875   1.530  0.0557  0.3445 -0.1612
49430SOL    HW153101  12.554   2.909   1.508  0.6168 -0.6730  0.4252
49430SOL    HW253102  12.482   2.819   1.607 -1.0466 -0.2180 -0.3392
49431SOL     OW53103   1.927   6.918   4.219  0.0284  0.8508  0.5406
49431SOL    HW153104   1.898   6.954   4.303  0.3392 -2.0870  2.0620
49431SOL    HW253105   2.017   6.891   4.235  0.0385  0.0796 -0.6977
49432SOL     OW53106  11.359   2.147   8.625 -0.5194  0.7150 -0.9843
49432SOL    HW153107  11.405   2.231   8.618 -0.6393  0.9175  0.4193
49432SOL    HW253108  11.333   2.141   8.717  0.5453 -1.4166 -0.7405
49433SOL     OW53109   4.599  10.472  12.245  0.3369 -0.1457 -0.0805
49433SOL    HW153110   4.679  10.422  12.262 -0.1161 -1.0910 -0.6069
49433SOL    HW253111   4.606  10.498  12.153 -0.6873 -1.6653 -0.6287
49434SOL     OW53112   1.388  12.438   1.590 -0.2814 -0.2137 -0.1465
49434SOL    HW153113   1.399  12.378   1.515  2.3212 -0.3430  0.2618
49434SOL    HW253114   1.330  12.391   1.650  0.8715 -1.9073 -0.3044
49435SOL     OW53115   0.455   9.219   3.909  0.2103  0.8240 -0.1067
49435SOL    HW153116   0.542   9.179   3.914  0.0875  0.1992 -2.1484
49435SOL    HW253117   0.401   9.168   3.969  1.0902  0.8206  0.7044
49436SOL     OW53118   4.650   2.765   1.277  0.3547 -0.4670 -1.3386
49436SOL    HW153119   4.609   2.691   1.323 -0.3939 -0.0282 -1.2811
49436SOL    HW253120   4.594   2.779   1.201 -0.3390  0.9378 -0.5997
49437SOL     OW53121   2.506   5.867   7.835 -0.1451  0.1122  0.5238
49437SOL    HW153122   2.475   5.809   7.904  0.5726  1.7149  2.2746
49437SOL    HW253123   2.427   5.912   7.804 -0.5159 -0.8497  0.0268
49438SOL     OW53124  12.274  12.448   5.152  0.0808 -0.3061 -0.2127
49438SOL    HW153125  12.211  12.382   5.124  0.0044 -0.3202 -0.0110
49438SOL    HW253126  12.237  12.485   5.232 -0.0119  0.1771 -0.4760
49439SOL     OW53127   9.515   8.407   0.985  0.0927  0.3214 -0.0051
49439SOL    HW153128   9.595   8.459   0.984  0.6764 -0.5277  1.0734
49439SOL    HW253129   9.459   8.448   1.051  0.0729  0.2816  0.0031
49440SOL     OW53130  11.226   5.742   0.342  0.0923 -0.2198 -0.1683
49440SOL    HW153131  11.133   5.736   0.362 -0.5463  1.8455 -1.9675
49440SOL    HW253132  11.248   5.658   0.302 -0.8160 -0.9822  0.8996
49441SOL     OW53133   6.591  10.660  10.781  0.3289  0.3404 -0.0544
49441SOL    HW153134   6.558  10.595  10.719 -1.0713  0.6280  0.3582
49441SOL    HW253135   6.678  10.627  10.805 -0.5119 -1.6796  0.5024
49442SOL     OW53136   9.763   4.586   9.026 -0.1249  0.4650  0.3580
49442SOL    HW153137   9.683   4.567   9.076  0.0926 -1.3830  0.0568
49442SOL    HW253138   9.812   4.504   9.026  1.9818  1.6406  0.8328
49443SOL     OW53139  11.484   3.221   4.852  0.2981 -0.3885  0.2490
49443SOL    HW153140  11.422   3.267   4.796 -1.7096 -0.9581  1.8535
49443SOL    HW253141  11.461   3.128   4.841 -0.6171 -0.4796  2.4101
49444SOL     OW53142   6.587  10.735  11.412  0.3679 -0.0897  0.0857
49444SOL    HW153143   6.636  10.806  11.453 -0.3883  1.0887 -0.9877
49444SOL    HW253144   6.647  10.699  11.346  0.8896 -0.7264  0.8901
49445SOL     OW53145  10.321   5.943   8.171 -0.0340  0.4484 -0.4701
49445SOL    HW153146  10.388   5.881   8.142 -0.9427 -0.1429 -1.3991
49445SOL    HW253147  10.296   5.913   8.258  0.0181 -0.0869 -0.6382
49446SOL     OW53148  10.689   6.662   5.086  0.8609  0.4247 -0.5782
49446SOL    HW153149  10.783   6.654   5.103  0.4588 -0.4244  1.6670
49446SOL    HW253150  10.652   6.692   5.170 -1.1767 -2.1278 -0.4381
49447SOL     OW53151  10.761  12.641   7.644  0.2985  0.0719  0.0618
49447SOL    HW153152  10.849  12.608   7.624  0.3180  0.4993 -0.5665
49447SOL    HW253153  10.730  12.584   7.715  0.9718 -0.2543  0.1027
49448SOL     OW53154  10.973   6.969   0.966 -0.3114  0.5992 -0.0210
49448SOL    HW153155  10.991   6.909   1.039  1.4666  1.3146  0.1828
49448SOL    HW253156  10.889   7.009   0.988 -0.0797  0.3873  1.3692
49449SOL     OW53157   2.006  10.927  11.983  0.1180 -0.3403  0.4238
49449SOL    HW153158   1.964  10.919  11.897  0.2978 -0.2933  0.3322
49449SOL    HW253159   1.956  10.867  12.039 -1.9562  1.8004  1.0321
49450SOL     OW53160  10.136   5.290   6.754  0.3871 -1.0133  0.3143
49450SOL    HW153161  10.163   5.265   6.842 -1.1437 -1.7143  0.6142
49450SOL    HW253162  10.136   5.207   6.705 -2.4865 -1.3285  0.7074
49451SOL     OW53163  10.522   8.623  11.709  0.2528 -0.1057 -1.3134
49451SOL    HW153164  10.603   8.660  11.745 -0.2345 -0.1250 -0.1453
49451SOL    HW253165  10.510   8.669  11.626  0.8686  0.7053 -0.9734
49452SOL     OW53166   2.562   0.262  10.498 -0.5850  0.4511  0.1659
49452SOL    HW153167   2.488   0.248  10.556 -0.0477  0.6899  0.9198
49452SOL    HW253168   2.556   0.354  10.473  0.2337  0.8509  1.3511
49453SOL     OW53169   1.943  11.103   8.941 -0.4639  0.3915  0.7566
49453SOL    HW153170   1.930  11.066   9.028 -2.4273 -0.8322  0.0157
49453SOL    HW253171   1.855  11.130   8.913 -0.2349 -0.9147 -1.5244
49454SOL     OW53172  10.827   2.627  11.620  0.9264  0.3000 -0.6382
49454SOL    HW153173  10.866   2.594  11.701 -0.2273 -0.1821 -0.2609
49454SOL    HW253174  10.739   2.656  11.645  1.1481  1.7290 -1.3862
49455SOL     OW53175   4.795   0.564   7.840  0.0667  0.0080  0.3152
49455SOL    HW153176   4.757   0.497   7.898 -0.6441  0.1342  0.0066
49455SOL    HW253177   4.815   0.637   7.898  1.2686 -0.6282  0.7306
49456SOL     OW53178   3.587   1.952   5.237  0.1969  0.4384 -0.0005
49456SOL    HW153179   3.622   1.869   5.205  0.7272  1.4068 -2.0814
49456SOL    HW253180   3.605   1.951   5.331  0.0248 -1.8627  0.0427
49457SOL     OW53181  10.112   1.658   7.710 -0.0027 -0.0335  0.5152
49457SOL    HW153182  10.156   1.597   7.651 -0.8281  0.4798 -0.6802
49457SOL    HW253183  10.043   1.606   7.751  0.9261 -0.5343  1.4887
49458SOL     OW53184   9.606   8.767   2.645  0.1566  0.4575  0.6469
49458SOL    HW153185   9.642   8.818   2.573  2.1530 -0.2633  1.0745
49458SOL    HW253186   9.659   8.687   2.647 -2.3379 -1.3430  0.4996
49459SOL     OW53187   1.349   1.996  12.595 -0.3561 -1.1908 -0.3832
49459SOL    HW153188   1.275   2.031  12.644  1.1419 -0.0059  1.1678
49459SOL    HW253189   1.368   1.912  12.635 -0.0590 -0.8941  0.1106
49460SOL     OW53190  10.296   6.755   8.895 -0.6718  0.1911 -0.0337
49460SOL    HW153191  10.389   6.777   8.882 -0.3355  1.3828  3.4187
49460SOL    HW253192  10.250   6.836   8.875 -0.8427  0.0162 -0.3578
49461SOL     OW53193   7.446   4.692   7.567  0.3411 -0.1718 -0.6924
49461SOL    HW153194   7.418   4.644   7.489  1.8634 -0.3238 -1.1634
49461SOL    HW253195   7.470   4.624   7.630 -1.7586 -0.0824  0.3110
49462SOL     OW53196   7.863  11.447   4.635  0.2126  0.2388  0.1418
49462SOL    HW153197   7.783  11.410   4.670  0.5069  0.4750  1.1053
49462SOL    HW253198   7.834  11.521   4.581 -0.2933 -0.6287 -0.8076
49463SOL     OW53199   4.856   6.087  12.417 -0.3442  0.4116  0.3387
49463SOL    HW153200   4.927   6.097  12.353 -1.3800 -1.5982 -1.2268
49463SOL    HW253201   4.875   6.154  12.484  2.0566  1.0593 -0.8665
49464SOL     OW53202  10.316   9.796   2.201  0.1186  0.1024 -0.6186
49464SOL    HW153203  10.332   9.750   2.284  0.4608 -0.1704 -0.8358
49464SOL    HW253204  10.228   9.769   2.176  0.6886 -1.2585 -1.2621
49465SOL     OW53205   7.729   4.083   2.059 -0.3445 -0.0017  0.0876
49465SOL    HW153206   7.639   4.094   2.089  0.2281  1.6135  1.3152
49465SOL    HW253207   7.737   4.143   1.984 -0.8140 -1.6075 -1.3208
49466SOL     OW53208   5.325  12.639  11.307 -0.0317 -0.4553  0.0630
49466SOL    HW153209   5.307  12.695  11.231 -1.5341  0.5898  1.1279
49466SOL    HW253210   5.392  12.578  11.276  0.3873  0.7956 -1.6830
49467SOL     OW53211   4.919   4.225   4.114 -0.3995 -0.0355  0.1585
49467SOL    HW153212   4.954   4.244   4.028 -0.0210  0.1474  0.3530
49467SOL    HW253213   4.835   4.182   4.097 -0.2337 -0.1757 -0.2983
49468SOL     OW53214   6.585   5.292   2.999  0.3829 -0.5790  0.6071
49468SOL    HW153215   6.577   5.352   3.073  1.9795  1.3152 -0.6163
49468SOL    HW253216   6.666   5.244   3.016 -0.3227 -1.6401  1.0505
49469SOL     OW53217   2.769   8.050  11.605 -0.1560  0.4415  0.3668
49469SOL    HW153218   2.725   8.051  11.689 -0.5552 -0.5159  0.1835
49469SOL    HW253219   2.800   8.139  11.593 -3.4582  1.6519 -0.2451
49470SOL     OW53220   4.441   0.794   6.553 -0.3772  0.0538 -0.0356
49470SOL    HW153221   4.424   0.826   6.465  1.8849  0.0549 -0.5448
49470SOL    HW253222   4.463   0.701   6.541 -0.6523 -0.1054  0.6129
49471SOL     OW53223   5.091   2.535   1.684  0.6099 -0.0172  0.3086
49471SOL    HW153224   5.067   2.574   1.768  1.1721  1.5888 -0.2497
49471SOL    HW253225   5.045   2.451   1.684  2.1780 -1.0287  3.0912
49472SOL     OW53226   3.484   5.487   4.443  0.4488 -0.2460 -0.1965
49472SOL    HW153227   3.480   5.465   4.536 -1.0463 -0.3020 -0.2471
49472SOL    HW253228   3.470   5.403   4.398  0.9846 -0.1895 -0.4850
49473SOL     OW53229   9.186  11.402  10.754  0.3786 -0.1261 -0.2654
49473SOL    HW153230   9.197  11.491  10.787 -0.4198 -0.5381  1.2298
49473SOL    HW253231   9.119  11.364  10.811  0.8809 -1.7531 -0.7072
49474SOL     OW53232  10.596   9.820   4.037  0.0351 -0.3347 -0.3568
49474SOL    HW153233  10.534   9.846   4.105 -1.7209 -0.2693 -1.9031
49474SOL    HW253234  10.553   9.843   3.955  1.9480 -0.6863 -1.5242
49475SOL     OW53235   1.549   4.418  11.530 -0.4153 -0.2741  0.1131
49475SOL    HW153236   1.463   4.446  11.562 -0.5435 -0.6163  0.0671
49475SOL    HW253237   1.598   4.500  11.520 -0.1889 -0.1830  1.6995
49476SOL     OW53238   4.392   7.482   4.470 -0.0653  0.4032  0.0756
49476SOL    HW153239   4.424   7.460   4.382 -2.9366 -1.3346 -0.6538
49476SOL    HW253240   4.374   7.575   4.465 -1.4382  0.0999 -1.6774
49477SOL     OW53241   7.802   8.983   5.326 -0.0378 -0.6169  0.1621
49477SOL    HW153242   7.882   8.970   5.275 -0.7622 -0.4762 -1.0262
49477SOL    HW253243   7.733   8.942   5.275 -1.3823  2.4444 -0.7149
49478SOL     OW53244   9.625   0.572   3.788 -0.7184  0.0121 -0.3347
49478SOL    HW153245   9.599   0.482   3.770  0.2671 -0.4961  0.6572
49478SOL    HW253246   9.669   0.601   3.708 -1.4743 -0.2104 -0.8341
49479SOL     OW53247   5.749  10.307   7.908 -0.5512 -0.1459 -0.0626
49479SOL    HW153248   5.728  10.330   7.998  0.6874  2.3520 -0.3066
49479SOL    HW253249   5.807  10.231   7.915 -0.6621 -0.1289  1.2118
49480SOL     OW53250   0.025   7.802   4.453 -0.2659  0.4564 -0.0786
49480SOL    HW153251  -0.048   7.744   4.475 -0.6499  1.3380  1.0636
49480SOL    HW253252  -0.001   7.842   4.370  0.5503 -1.8459 -1.5392
49481SOL     OW53253  11.396  11.684   0.412 -0.5289 -0.7788 -0.1248
49481SOL    HW153254  11.334  11.721   0.350  0.9868 -0.9417 -1.8304
49481SOL    HW253255  11.481  11.690   0.368  0.6950 -0.5436  2.1148
49482SOL     OW53256   0.220   4.531   4.957  0.0160 -0.4648  0.7752
49482SOL    HW153257   0.284   4.565   4.894 -0.3785 -3.7552 -1.6813
49482SOL    HW253258   0.143   4.588   4.946  0.5466  0.0381 -0.5209
49483SOL     OW53259   1.117  10.012   1.750 -0.0204  0.3825 -0.0769
49483SOL    HW153260   1.027  10.036   1.771  0.2763  0.7219  0.8307
49483SOL    HW253261   1.111   9.920   1.722 -0.7247  0.5807 -0.6064
49484SOL     OW53262  11.439   4.302   4.674  0.5393 -0.1329 -0.2510
49484SOL    HW153263  11.369   4.246   4.641 -0.9307  2.1663 -1.3002
49484SOL    HW253264  11.447   4.280   4.766 -0.6299 -1.3654 -0.4198
49485SOL     OW53265   5.569   9.245   0.804  0.2411 -0.0306 -0.0451
49485SOL    HW153266   5.568   9.164   0.854 -1.0217 -0.4024 -0.6397
49485SOL    HW253267   5.569   9.314   0.871 -4.3598 -0.4483  0.6994
49486SOL     OW53268   7.031   7.684   7.290  0.2747  0.4556  0.1390
49486SOL    HW153269   6.959   7.746   7.307  1.4683  1.2326  2.8875
49486SOL    HW253270   7.109   7.727   7.326  1.3541 -2.1576  1.1870
49487SOL     OW53271   1.579   5.314  12.644 -0.0781  0.3452  0.1255
49487SOL    HW153272   1.550   5.395  12.687 -1.0704  0.2714 -0.3925
49487SOL    HW253273   1.568   5.246  12.712 -0.6781  0.4003  0.0924
49488SOL     OW53274   7.276   9.279   5.865 -0.1101 -0.3171  0.6180
49488SOL    HW153275   7.370   9.287   5.882 -0.2593 -0.1180  1.4026
49488SOL    HW253276   7.270   9.235   5.781  0.7004  1.9141 -0.6907
49489SOL     OW53277   9.929   4.647   5.474  0.1986  0.5588 -0.2843
49489SOL    HW153278   9.888   4.622   5.391  0.0741 -1.3827  0.3266
49489SOL    HW253279  10.018   4.673   5.450  0.4866 -0.9409 -0.9222
49490SOL     OW53280   4.575   8.526   5.308 -0.1273 -0.0107 -0.2614
49490SOL    HW153281   4.670   8.512   5.299 -0.1561 -1.7188  1.3558
49490SOL    HW253282   4.560   8.520   5.402 -1.9103 -0.2399 -0.5415
49491SOL     OW53283   9.675   0.791  10.740 -0.0553 -0.5910  0.3923
49491SOL    HW153284   9.676   0.695  10.742  0.7737 -0.5849  1.9009
49491SOL    HW253285   9.721   0.817  10.820  0.3523  1.0739 -0.3401
49492SOL     OW53286   9.232   4.031   6.894  0.3126 -0.7000 -0.3580
49492SOL    HW153287   9.229   3.948   6.942  0.6255 -1.1508 -1.1058
49492SOL    HW253288   9.304   4.020   6.832  1.0844  0.5413  0.2745
49493SOL     OW53289   9.804   0.227   8.817 -0.3893  0.0687  0.2576
49493SOL    HW153290   9.837   0.231   8.907  1.5288 -1.5702 -0.3068
49493SOL    HW253291   9.832   0.310   8.778  0.1186  0.1272  0.7315
49494SOL     OW53292   6.486   3.691   3.045  0.5272 -0.2152 -0.5136
49494SOL    HW153293   6.455   3.677   3.134 -1.3908  0.8839 -0.9666
49494SOL    HW253294   6.539   3.771   3.050 -0.0435  0.1594 -0.4597
49495SOL     OW53295   9.897  12.366   0.651  0.3822  0.1244  0.0315
49495SOL    HW153296   9.870  12.283   0.691 -2.1409  0.9377  0.2204
49495SOL    HW253297   9.886  12.352   0.557  1.0527 -0.0930 -0.0183
49496SOL     OW53298   4.766  10.985   1.288 -0.3340  0.6964 -0.6608
49496SOL    HW153299   4.700  10.996   1.356  0.3790  0.2043  0.1417
49496SOL    HW253300   4.792  11.074   1.264  0.1238  0.8852  0.4537
49497SOL     OW53301   4.167   1.583   0.159  0.4029 -0.2774  0.2248
49497SOL    HW153302   4.186   1.664   0.206 -0.7597  0.0387  0.1804
49497SOL    HW253303   4.213   1.593   0.075  0.2910  0.3170  0.2315
49498SOL     OW53304   9.379   7.510   8.151 -0.1267 -0.3749  0.1373
49498SOL    HW153305   9.408   7.426   8.116  1.9286  0.7698 -1.1167
49498SOL    HW253306   9.304   7.533   8.096 -0.5029 -1.2292  0.2783
49499SOL     OW53307   8.787   7.738   1.184  0.1832 -0.1160 -0.6400
49499SOL    HW153308   8.777   7.829   1.156  0.6917 -0.0451 -0.6005
49499SOL    HW253309   8.713   7.692   1.143 -0.1282  0.3287 -0.5829
49500SOL     OW53310   5.753   5.219   1.657  0.2013 -0.8956 -0.4503
49500SOL    HW153311   5.838   5.239   1.617  0.2053 -0.4823 -0.2391
49500SOL    HW253312   5.689   5.233   1.587 -0.1796  3.0739  0.4233
49501SOL     OW53313   1.200   4.222   3.839 -0.1262  0.1686 -0.0832
49501SOL    HW153314   1.116   4.266   3.831 -0.5039  0.4787  3.6662
49501SOL    HW253315   1.181   4.142   3.888  1.7445  0.5199  1.3480
49502SOL     OW53316   0.375   5.846   5.175  0.1503  0.4625 -0.5903
49502SOL    HW153317   0.372   5.938   5.203 -0.0307  0.4224 -0.4751
49502SOL    HW253318   0.467   5.829   5.158  0.2445  0.5315 -0.1557
49503SOL     OW53319   3.113   6.719   9.093  0.2450 -0.1716 -0.1993
49503SOL    HW153320   3.174   6.706   9.020 -0.6867  2.0587 -1.4924
49503SOL    HW253321   3.122   6.812   9.115 -0.1343 -0.6063  1.9994
49504SOL     OW53322   8.642   7.600  10.704 -0.0892 -0.5603  0.8150
49504SOL    HW153323   8.729   7.616  10.666 -0.5608 -0.5167 -0.2753
49504SOL    HW253324   8.650   7.628  10.795  1.1373 -0.8698  0.8232
49505SOL     OW53325   9.367   8.996   4.394  0.0738  0.6293  0.0365
49505SOL    HW153326   9.352   8.902   4.388  0.3210  0.6652 -1.4608
49505SOL    HW253327   9.462   9.006   4.381  0.0139  1.0986 -0.0521
49506SOL     OW53328  12.171   6.745  11.716  0.1224  0.0434  0.6474
49506SOL    HW153329  12.116   6.671  11.743  0.7074 -0.0692  1.5443
49506SOL    HW253330  12.234   6.708  11.655 -0.7969  0.1825 -0.4380
49507SOL     OW53331  11.845  12.256   6.817  0.1611 -0.6367  0.3878
49507SOL    HW153332  11.872  12.186   6.758  0.6539 -1.7029  1.8107
49507SOL    HW253333  11.832  12.212   6.902 -1.3014  0.6924  0.8955
49508SOL     OW53334   9.275   3.126   8.814  0.2650 -0.6257 -0.5150
49508SOL    HW153335   9.347   3.119   8.751 -0.2040 -0.6457 -1.0517
49508SOL    HW253336   9.220   3.197   8.781  0.8321  0.4270  0.7143
49509SOL     OW53337  10.511   9.805   4.951 -0.0585  0.0376 -0.0868
49509SOL    HW153338  10.551   9.858   5.020 -0.8899 -0.3874  0.7543
49509SOL    HW253339  10.424   9.843   4.939 -0.9999 -1.5828  1.1315
49510SOL     OW53340   0.938   5.189   8.638 -0.5144  0.0231 -0.2643
49510SOL    HW153341   0.959   5.260   8.577 -1.6252  1.1496  0.6067
49510SOL    HW253342   1.000   5.200   8.710 -0.4096 -0.1541 -0.3278
49511SOL     OW53343  11.867   7.695   7.889  0.2714 -0.4812 -0.0709
49511SOL    HW153344  11.907   7.697   7.802 -0.0714 -2.6799 -0.3395
49511SOL    HW253345  11.937   7.666   7.947  0.0479 -0.7529  0.0688
49512SOL     OW53346  12.056  11.010   6.902  0.0657 -0.0507  0.1014
49512SOL    HW153347  12.064  11.047   6.814 -1.1261  2.7875  1.0681
49512SOL    HW253348  11.994  10.939   6.894  0.1831 -0.0003 -1.3914
49513SOL     OW53349   6.216  12.506   0.584  0.3376 -0.5341 -0.0234
49513SOL    HW153350   6.134  12.546   0.555  0.4696  0.2450  0.6547
49513SOL    HW253351   6.223  12.426   0.532 -0.5484 -0.3027 -0.5193
49514SOL     OW53352   4.632   9.236  11.320 -0.3115 -0.0610  0.3616
49514SOL    HW153353   4.641   9.153  11.273 -0.0172 -0.1044  0.4968
49514SOL    HW253354   4.574   9.289  11.265 -0.8502 -0.5120  0.4814
49515SOL     OW53355   5.800  10.000  11.472 -0.0190 -0.2393 -0.6884
49515SOL    HW153356   5.782   9.923  11.418  1.0606 -1.2890  0.3783
49515SOL    HW253357   5.895   9.999  11.484  0.0056  1.2189 -0.5589
49516SOL     OW53358   7.506   1.808  12.357  0.2632 -0.4243 -0.1868
49516SOL    HW153359   7.585   1.754  12.352  0.5866  0.0968 -0.9827
49516SOL    HW253360   7.538   1.898  12.360 -0.2852 -0.1291 -1.7545
49517SOL     OW53361   8.983   9.641  10.691 -0.0630  0.5618 -0.0169
49517SOL    HW153362   8.895   9.673  10.669  0.2885  1.3967 -0.2754
49517SOL    HW253363   9.036   9.720  10.694  0.5538  0.1250  0.7622
49518SOL     OW53364   1.924  11.929   4.859 -0.3827 -0.1603 -0.5068
49518SOL    HW153365   1.941  12.010   4.907 -1.7446  0.0855 -0.3934
49518SOL    HW253366   1.999  11.920   4.800  0.3810  0.5328  0.3398
49519SOL     OW53367   6.151   8.276   0.992 -0.2519 -0.2562  0.0405
49519SOL    HW153368   6.211   8.218   1.038  2.4781  0.5992 -2.1546
49519SOL    HW253369   6.109   8.221   0.927  1.1045 -0.1688 -0.9497
49520SOL     OW53370  10.112   6.234   7.387  0.1024 -0.5974  0.5998
49520SOL    HW153371  10.185   6.238   7.326 -0.2402 -2.8635 -0.0518
49520SOL    HW253372  10.147   6.188   7.464  0.0904  0.8033  1.4751
49521SOL     OW53373  10.175   0.346   1.712  0.4814  0.0288 -0.2117
49521SOL    HW153374  10.248   0.389   1.755  0.5217 -0.9090  0.7038
49521SOL    HW253375  10.206   0.329   1.623  0.7338  1.1740 -0.3520
49522SOL     OW53376   8.699  11.552   7.259  0.0073 -0.0951  0.2298
49522SOL    HW153377   8.709  11.647   7.270  0.3550 -0.1447  0.3359
49522SOL    HW253378   8.733  11.515   7.341  2.5361 -0.4731 -0.9020
49523SOL     OW53379   6.956   6.008   1.413  0.1288 -0.3219  0.3533
49523SOL    HW153380   6.886   6.006   1.479 -1.5023 -0.7276 -1.3174
49523SOL    HW253381   6.959   6.099   1.383 -0.7725 -0.6066 -0.6544
49524SOL     OW53382  10.907   8.533   8.258  0.3087  0.2307 -0.3207
49524SOL    HW153383  10.923   8.544   8.165 -0.6146 -2.6936 -0.9281
49524SOL    HW253384  10.812   8.532   8.266  0.3783  0.5013  0.6718
49525SOL     OW53385   4.940   5.879   8.947  0.4166 -0.0420  0.1431
49525SOL    HW153386   4.950   5.820   8.873 -1.4234  0.3874 -0.5062
49525SOL    HW253387   4.848   5.905   8.945  0.0490 -0.6935  3.0869
49526SOL     OW53388   7.412  11.491   3.611  0.5419  0.3326 -0.4712
49526SOL    HW153389   7.340  11.553   3.627  1.3706  0.9838  1.0157
49526SOL    HW253390   7.467  11.534   3.546  0.8000  0.9116  0.1176
49527SOL     OW53391   4.752   7.540   2.586  0.0810 -0.2112  0.1012
49527SOL    HW153392   4.721   7.474   2.648 -2.3330  0.8710  0.1326
49527SOL    HW253393   4.827   7.580   2.630 -0.9185 -0.1893  1.8834
49528SOL     OW53394   8.043  11.301   1.779 -0.0642 -0.1308  0.7691
49528SOL    HW153395   8.094  11.346   1.712  0.3897  0.0843  1.2517
49528SOL    HW253396   8.103  11.235   1.814  0.0237  0.3736  1.6051
49529SOL     OW53397   3.361   7.405   9.561 -0.2881 -0.1759  0.0624
49529SOL    HW153398   3.363   7.466   9.635  1.3051 -0.0491 -0.0450
49529SOL    HW253399   3.379   7.459   9.485  1.6111 -0.8030  0.0173
49530SOL     OW53400   1.321  10.323  11.854  0.3640 -0.0566  0.4230
49530SOL    HW153401   1.359  10.306  11.768  3.1851 -3.0318  2.0927
49530SOL    HW253402   1.239  10.273  11.854 -0.0957  0.6446 -0.7490
49531SOL     OW53403   5.158   6.135  10.290 -0.8136  0.5554  0.6878
49531SOL    HW153404   5.241   6.105  10.254 -0.7186  0.9443  0.5768
49531SOL    HW253405   5.092   6.092  10.235 -0.6648  1.9280 -0.6443
49532SOL     OW53406   5.523   4.117  10.562  0.1458 -0.3574  0.1846
49532SOL    HW153407   5.470   4.094  10.485  1.7367  0.2121 -1.1438
49532SOL    HW253408   5.462   4.112  10.636 -0.7387 -4.2823 -0.5702
49533SOL     OW53409   5.236  11.717   5.602  0.2350 -0.1873  0.0460
49533SOL    HW153410   5.256  11.798   5.555  1.2343 -0.6600 -0.3649
49533SOL    HW253411   5.301  11.654   5.570 -3.3126 -2.6031 -3.2495
49534SOL     OW53412   1.404  10.024   8.894 -0.3963  0.1728 -0.0019
49534SOL    HW153413   1.335   9.958   8.903 -0.2920  0.2939  2.3260
49534SOL    HW253414   1.386  10.088   8.963 -0.1565  2.3186 -1.8226
49535SOL     OW53415   7.697  11.843   7.331  0.1297  0.0531 -0.0475
49535SOL    HW153416   7.732  11.812   7.247 -1.0045  0.0809 -0.5498
49535SOL    HW253417   7.659  11.765   7.371 -0.8109  0.3516 -0.3318
49536SOL     OW53418   4.093   0.941   5.447  0.7132  0.1902 -0.0152
49536SOL    HW153419   4.080   0.852   5.478  0.9694  0.6763  1.6096
49536SOL    HW253420   4.182   0.963   5.475  1.1198  0.5368 -1.5119
49537SOL     OW53421   2.181   5.675   6.133 -0.2905 -0.6016 -0.4539
49537SOL    HW153422   2.254   5.702   6.078 -1.1617 -0.0257 -1.3499
49537SOL    HW253423   2.126   5.752   6.140 -1.7230 -1.5096 -1.2824
49538SOL     OW53424   1.074   1.267   1.048 -0.0239  0.1470 -0.0578
49538SOL    HW153425   1.063   1.196   1.110  1.9196  1.0442  1.3929
49538SOL    HW253426   1.042   1.345   1.094 -1.9526  0.3202 -1.5484
49539SOL     OW53427   0.254   1.568  12.150 -0.2680 -0.2137 -0.1145
49539SOL    HW153428   0.285   1.548  12.062  0.2044 -0.0916  0.0224
49539SOL    HW253429   0.319   1.528  12.208 -0.7343 -0.5527  0.1863
49540SOL     OW53430   2.235   7.415   6.703  0.4799 -0.3793 -0.0711
49540SOL    HW153431   2.195   7.341   6.747  0.2769 -0.1187  0.1901
49540SOL    HW253432   2.308   7.378   6.653  0.2935 -0.7674 -0.0494
49541SOL     OW53433   9.755  12.427  10.979  0.4686  0.5726 -0.0205
49541SOL    HW153434   9.682  12.488  10.989  0.2003 -0.0342  2.5733
49541SOL    HW253435   9.765  12.416  10.885 -2.2466  1.2990 -0.4807
49542SOL     OW53436   2.507   2.077   6.107 -0.2729  0.1348 -0.5704
49542SOL    HW153437   2.600   2.074   6.084 -0.1345  0.1201 -0.0274
49542SOL    HW253438   2.463   2.028   6.038  0.2144 -0.5682 -0.3917
49543SOL     OW53439  12.601   0.410  10.419  0.1017 -0.1740 -0.3738
49543SOL    HW153440  12.669   0.362  10.466 -1.5077 -0.8435  1.4110
49543SOL    HW253441  12.539   0.343  10.391 -1.4845  0.6829  0.9504
49544SOL     OW53442   0.881  11.665   2.463 -0.1255 -0.2633 -0.8234
49544SOL    HW153443   0.813  11.600   2.442  0.2835 -0.4575 -1.5841
49544SOL    HW253444   0.832  11.739   2.499 -0.7529 -0.3791 -1.4113
49545SOL     OW53445   8.926   3.910  12.182 -0.1272 -0.3521 -0.0681
49545SOL    HW153446   9.012   3.886  12.216 -0.3800 -0.2817  0.6331
49545SOL    HW253447   8.943   3.949  12.096  0.3901 -2.0966 -0.8002
49546SOL     OW53448   8.128   7.700   6.030 -0.0901  0.0978 -0.3234
49546SOL    HW153449   8.151   7.761   6.101  0.6349 -1.6079  0.9757
49546SOL    HW253450   8.064   7.641   6.069 -1.6467  0.6772 -1.9142
49547SOL     OW53451   8.850   7.908   4.086 -0.1149  0.2267  0.1285
49547SOL    HW153452   8.856   7.827   4.035 -1.0707  1.0936 -1.4543
49547SOL    HW253453   8.757   7.915   4.108 -0.1091  1.0787 -0.0953
49548SOL     OW53454   4.879   0.283   8.267  0.0864  0.1070 -0.1526
49548SOL    HW153455   4.801   0.292   8.213 -0.8216  2.3445  1.3621
49548SOL    HW253456   4.852   0.228   8.341  0.6310 -0.9847 -0.7477
49549SOL     OW53457  10.244  12.292   0.532  0.8023  0.8227  0.0960
49549SOL    HW153458  10.235  12.317   0.624  1.8076  1.0668  0.1422
49549SOL    HW253459  10.319  12.233   0.531  1.3089  1.4680 -0.6786
49550SOL     OW53460   3.528   4.467  11.873 -0.1161 -1.0488 -0.2407
49550SOL    HW153461   3.489   4.460  11.961  0.0892  0.8514  0.0432
49550SOL    HW253462   3.482   4.401  11.822 -0.9435 -1.5288  1.0536
49551SOL     OW53463   9.908   1.743   8.472  0.3094 -0.0855  0.4624
49551SOL    HW153464   9.868   1.720   8.556  0.6091  0.9334  0.9024
49551SOL    HW253465   9.932   1.835   8.481 -0.6457  0.3685 -1.1421
49552SOL     OW53466   9.406   7.158   1.476 -1.2089 -0.0549 -0.2964
49552SOL    HW153467   9.343   7.225   1.450  2.3978  2.5854 -3.4634
49552SOL    HW253468   9.412   7.100   1.400  1.1473  0.7500 -0.8319
49553SOL     OW53469   4.224   2.536   2.261 -0.3361  0.3428  0.4190
49553SOL    HW153470   4.139   2.565   2.293 -0.5572  0.4867 -0.2844
49553SOL    HW253471   4.206   2.503   2.173  0.0580 -1.1050  0.8495
49554SOL     OW53472   8.532   9.200  11.237 -0.5085  0.1237 -0.6514
49554SOL    HW153473   8.450   9.245  11.219 -0.4042  0.0678 -1.2912
49554SOL    HW253474   8.514   9.147  11.315 -0.9927  0.3325 -0.6180
49555SOL     OW53475  11.148   2.670   5.588  0.5231 -0.1819  0.1469
49555SOL    HW153476  11.228   2.674   5.641  0.0050 -1.0738  1.0348
49555SOL    HW253477  11.151   2.584   5.547  0.6023  0.2572 -0.7892
49556SOL     OW53478   1.631   7.910   7.054  0.2799 -0.2158 -0.0433
49556SOL    HW153479   1.711   7.884   7.100  0.8278  0.7036 -0.4582
49556SOL    HW253480   1.618   7.843   6.987  1.4584  0.3373 -0.8506
49557SOL     OW53481   6.033   3.029   4.360  0.1561 -0.1976  0.5511
49557SOL    HW153482   6.029   2.943   4.402  2.1052 -0.0802  1.0262
49557SOL    HW253483   6.109   3.025   4.303 -0.3441  0.8870 -0.2345
49558SOL     OW53484  10.165   4.215   6.181  0.0285  0.6612 -0.4504
49558SOL    HW153485  10.252   4.176   6.183  0.2380  1.1037 -0.8851
49558SOL    HW253486  10.126   4.190   6.265  1.1392  1.7414  0.4155
49559SOL     OW53487  11.477   4.030   3.941  0.7159  0.5976 -0.4056
49559SOL    HW153488  11.556   3.978   3.925 -0.0412 -0.2869 -1.3448
49559SOL    HW253489  11.469   4.034   4.036 -0.4724 -3.0008 -0.2210
49560SOL     OW53490   6.347  11.723   0.619  0.2521 -0.1958 -0.0796
49560SOL    HW153491   6.406  11.648   0.615  0.8806  0.2605  0.3752
49560SOL    HW253492   6.351  11.762   0.532  1.4333  0.4183  0.2191
49561SOL     OW53493  12.419  11.514  11.978  0.1507 -0.7179 -0.4366
49561SOL    HW153494  12.358  11.585  11.959  1.2876  1.0909  2.1146
49561SOL    HW253495  12.367  11.449  12.026 -0.1371  0.0890  0.3586
49562SOL     OW53496  10.366  12.510   0.363  0.2402 -0.0321  0.5270
49562SOL    HW153497  10.395  12.437   0.417 -0.3294  0.0067  0.8930
49562SOL    HW253498  10.347  12.580   0.425 -1.0617 -0.2046  0.3518
49563SOL     OW53499   2.757   4.274   0.597 -0.3321  0.5661 -0.3581
49563SOL    HW153500   2.745   4.346   0.660 -0.1136  0.0683  0.2626
49563SOL    HW253501   2.728   4.196   0.645  1.9579 -0.1691 -0.0514
49564SOL     OW53502   4.321   4.474  11.635 -0.3024  0.0729 -0.2919
49564SOL    HW153503   4.333   4.561  11.672  1.0496 -0.8214  1.5153
49564SOL    HW253504   4.405   4.430  11.647 -0.9364 -1.4805 -1.1908
49565SOL     OW53505  11.267  12.553   7.097 -0.0002 -0.5091 -0.1970
49565SOL    HW153506  11.361  12.561   7.115 -0.1662 -2.2571  1.8797
49565SOL    HW253507  11.226  12.613   7.159 -0.2862  0.5721 -1.3917
49566SOL     OW53508  10.546   7.760  12.504 -0.1053  0.0089  0.8056
49566SOL    HW153509  10.470   7.714  12.468 -1.0792  1.1520  1.3421
49566SOL    HW253510  10.536   7.754  12.599  0.3906  0.3258  0.8827
49567SOL     OW53511   3.766   3.215   2.655  0.3021 -0.0633  0.4848
49567SOL    HW153512   3.761   3.305   2.689  2.0489  0.2439  0.0424
49567SOL    HW253513   3.776   3.226   2.560 -0.8550 -0.7865  0.2663
49568SOL     OW53514   6.436  12.213   2.713  0.3779 -0.1840  0.0827
49568SOL    HW153515   6.399  12.126   2.729 -3.0694  1.3798  1.7701
49568SOL    HW253516   6.522  12.210   2.755 -0.3538 -2.2694  1.6318
49569SOL     OW53517   0.778  10.702   3.857 -0.1608  0.4090 -0.2509
49569SOL    HW153518   0.812  10.715   3.946  0.5285 -2.7666  0.0718
49569SOL    HW253519   0.797  10.784   3.812 -0.2864  2.0375  2.4088
49570SOL     OW53520  11.740   1.011  10.146 -0.4019 -0.1324  0.3315
49570SOL    HW153521  11.826   0.969  10.150 -0.6703 -0.8612 -0.9690
49570SOL    HW253522  11.758   1.097  10.109 -0.1989 -0.1801  0.3143
49571SOL     OW53523  11.280  11.929  12.365 -0.7648  0.4127  0.1914
49571SOL    HW153524  11.288  11.871  12.289 -0.9525  0.8754 -0.1887
49571SOL    HW253525  11.186  11.946  12.373 -0.6863  0.9539  0.0673
49572SOL     OW53526  11.608   6.020  12.000 -0.3745 -0.3297 -0.2138
49572SOL    HW153527  11.676   6.042  12.065 -0.0129  1.6088 -1.1542
49572SOL    HW253528  11.657   5.995  11.922 -0.7461  0.3035 -0.6558
49573SOL     OW53529   7.037  11.182   1.714 -0.1277 -0.5435  0.2992
49573SOL    HW153530   7.065  11.270   1.692 -0.1427 -0.8485 -1.0042
49573SOL    HW253531   7.118  11.132   1.722 -0.1522 -0.5950  0.2250
49574SOL     OW53532   6.232  11.683   1.366  0.6600  0.6606  0.3111
49574SOL    HW153533   6.298  11.615   1.358  0.9828  1.1126 -1.1485
49574SOL    HW253534   6.162  11.642   1.417  1.3599 -0.3502  0.4945
49575SOL     OW53535   5.393   3.342   4.995 -0.1535 -0.8640  0.0693
49575SOL    HW153536   5.479   3.310   5.023  0.2580  0.9434  1.0144
49575SOL    HW253537   5.331   3.293   5.047  0.4803  0.1367  1.8664
49576SOL     OW53538   3.538   8.083  10.944  1.1883 -0.0281 -0.5693
49576SOL    HW153539   3.474   8.141  10.902  0.4355  0.5193  1.2488
49576SOL    HW253540   3.519   7.997  10.907 -2.4912 -0.4585  1.7804
49577SOL     OW53541   0.928   2.843   3.047  0.6600  0.2524 -0.3980
49577SOL    HW153542   0.837   2.824   3.022  1.0813  0.1463 -1.9559
49577SOL    HW253543   0.962   2.894   2.974  1.8588  0.3003  0.1825
49578SOL     OW53544   3.465  11.881   7.296 -0.3607  0.4427  0.0417
49578SOL    HW153545   3.385  11.829   7.307 -0.0748  0.0508  0.2931
49578SOL    HW253546   3.471  11.932   7.376 -0.1612  0.1947  0.1867
49579SOL     OW53547  10.489   3.761   6.602  0.5919 -0.1678 -0.1862
49579SOL    HW153548  10.569   3.803   6.632  0.2095 -0.0695  0.7425
49579SOL    HW253549  10.502   3.668   6.619  0.1491 -0.0533  0.8821
49580SOL     OW53550  10.117  10.747   7.511  0.0161 -0.0465  0.5086
49580SOL    HW153551  10.108  10.672   7.570 -0.4233  0.9009  1.6867
49580SOL    HW253552  10.035  10.750   7.463  0.2791 -0.6763  0.0039
49581SOL     OW53553   8.143   3.641   8.654 -0.1974  0.0862  0.3203
49581SOL    HW153554   8.224   3.665   8.611 -0.2946  0.8163  0.5377
49581SOL    HW253555   8.140   3.695   8.733  0.7663 -2.3047  2.1356
49582SOL     OW53556   3.365   6.305   5.601  0.0248 -0.1222 -0.8688
49582SOL    HW153557   3.371   6.278   5.692  0.9236 -0.2455 -0.9572
49582SOL    HW253558   3.331   6.395   5.605  0.5340  0.0515 -0.3912
49583SOL     OW53559   1.025   7.119   9.797  0.4196  0.3265 -0.4137
49583SOL    HW153560   0.975   7.037   9.801  0.8475  0.0607 -0.3225
49583SOL    HW253561   0.986   7.168   9.726 -1.5301  1.1816  1.1521
49584SOL     OW53562   3.773   6.564   3.311 -0.5512  0.4634 -0.3169
49584SOL    HW153563   3.824   6.576   3.231  1.6088  1.1251  1.0408
49584SOL    HW253564   3.717   6.489   3.294  2.4447 -1.7634 -1.2716
49585SOL     OW53565   3.006  11.980   8.230  0.7602  0.1564  0.2296
49585SOL    HW153566   2.961  11.903   8.265 -1.1594  1.9632  2.0363
49585SOL    HW253567   2.958  12.003   8.151  2.4295 -1.4181 -1.3371
49586SOL     OW53568   3.221   1.147  10.511  0.2736 -0.0373  0.1855
49586SOL    HW153569   3.288   1.202  10.471  0.7061  0.4545  1.5455
49586SOL    HW253570   3.139   1.195  10.497  0.3305 -0.1336 -0.5522
49587SOL     OW53571   1.614  12.293   0.078  0.1966  0.0597 -0.5627
49587SOL    HW153572   1.572  12.269  -0.004  0.8976 -1.9095 -0.3936
49587SOL    HW253573   1.703  12.258   0.071  0.9007  1.5739  0.2641
49588SOL     OW53574   2.547   2.187   3.591  0.3085 -0.2051  0.3395
49588SOL    HW153575   2.527   2.129   3.518  1.6393  1.1416 -1.1951
49588SOL    HW253576   2.525   2.275   3.558 -1.1293  0.2666  2.3775
49589SOL     OW53577   3.725   9.629   4.781  0.1547  0.0576  0.7056
49589SOL    HW153578   3.747   9.627   4.688  1.3554 -0.3266  0.9724
49589SOL    HW253579   3.662   9.700   4.790 -0.1149 -0.0290 -0.4273
49590SOL     OW53580   1.627   7.719   8.683  0.5084  0.2466  0.2643
49590SOL    HW153581   1.608   7.628   8.706 -0.3431 -0.2269 -2.0092
49590SOL    HW253582   1.600   7.769   8.760 -1.0142 -1.2720  0.7879
49591SOL     OW53583  12.162  11.404  11.819 -0.3217 -0.1616  0.0540
49591SOL    HW153584  12.156  11.376  11.911  2.5871  1.0856  0.7247
49591SOL    HW253585  12.154  11.499  11.823 -1.5838 -0.1948 -1.1909
49592SOL     OW53586  12.085   4.861   7.636 -0.3178  0.0324 -0.0328
49592SOL    HW153587  12.049   4.892   7.553  3.8520  0.4656 -1.9033
49592SOL    HW253588  12.133   4.782   7.614 -1.7598 -1.7827  2.7087
49593SOL     OW53589  10.974   1.934   2.559 -0.1461 -0.0464  0.8183
49593SOL    HW153590  10.916   2.007   2.582 -0.8563  0.4846 -2.2827
49593SOL    HW253591  10.925   1.856   2.584 -1.6205  0.4372 -0.4499
49594SOL     OW53592  10.488   8.976   3.937  0.3035 -0.4878 -0.4526
49594SOL    HW153593  10.489   8.901   3.997  2.2714 -1.1147 -1.1976
49594SOL    HW253594  10.505   9.051   3.994 -1.4456 -0.5995  0.2675
49595SOL     OW53595   2.044   5.119  11.836  0.2357 -0.2265 -0.2442
49595SOL    HW153596   2.114   5.144  11.775 -0.3143 -1.1772 -1.3010
49595SOL    HW253597   1.966   5.114  11.781 -0.1229 -1.8737  0.3784
49596SOL     OW53598   0.881   6.208   3.514  0.2185 -0.0378 -0.4136
49596SOL    HW153599   0.876   6.260   3.434  0.9645 -1.8638 -1.7117
49596SOL    HW253600   0.961   6.238   3.557  0.3556  0.2620 -0.8752
49597SOL     OW53601   4.440   6.842   5.709 -0.3953 -0.2480 -0.1233
49597SOL    HW153602   4.411   6.932   5.725 -0.3304 -0.3911  0.8847
49597SOL    HW253603   4.427   6.829   5.615 -0.0848  0.9288 -0.3548
49598SOL     OW53604   1.312   8.399   5.153  0.4270 -0.4654  0.2761
49598SOL    HW153605   1.232   8.430   5.196  0.5949 -0.3107  0.4818
49598SOL    HW253606   1.302   8.425   5.062  0.4318 -0.0582  0.3858
49599SOL     OW53607   8.341   0.207   2.273  0.0874  0.6847 -0.2783
49599SOL    HW153608   8.395   0.164   2.339  0.6322 -0.4876 -1.4417
49599SOL    HW253609   8.346   0.300   2.295 -1.5190  0.2263  2.6232
49600SOL     OW53610   4.141   2.541   9.767  0.2477  0.2315 -0.3717
49600SOL    HW153611   4.201   2.563   9.696  0.1778  0.7316 -0.2797
49600SOL    HW253612   4.142   2.445   9.770 -0.1224  0.1911 -1.3536
49601SOL     OW53613   1.441   0.722   0.030 -0.4352  0.0412 -0.8555
49601SOL    HW153614   1.369   0.736   0.091  0.2685  0.1467 -0.0231
49601SOL    HW253615   1.513   0.775   0.065 -0.1671  0.5382 -2.0736
49602SOL     OW53616   4.036   6.009  10.141  0.1238 -0.1117  0.0602
49602SOL    HW153617   4.101   6.064  10.096  2.3713 -0.8323  2.2074
49602SOL    HW253618   3.991   6.068  10.201  0.0072  0.0656 -0.2016
49603SOL     OW53619  11.449   3.763   3.765  0.1188 -0.2889  0.0012
49603SOL    HW153620  11.512   3.735   3.698 -0.0575  0.0520 -0.3078
49603SOL    HW253621  11.495   3.746   3.848  1.3705  1.6515 -0.2389
49604SOL     OW53622   5.288   6.657   4.292 -0.1675  0.7570 -0.1910
49604SOL    HW153623   5.371   6.659   4.340 -0.8085 -1.2304  1.1130
49604SOL    HW253624   5.312   6.628   4.204  0.7455  2.2589 -0.4642
49605SOL     OW53625   5.833   2.291   5.000  0.1877 -0.0304 -0.2504
49605SOL    HW153626   5.881   2.244   4.932  0.1098  0.2193 -0.4800
49605SOL    HW253627   5.887   2.282   5.078  0.1930 -0.4687 -0.3009
49606SOL     OW53628   5.349  10.709   8.788 -0.0224  0.1266 -0.2485
49606SOL    HW153629   5.322  10.795   8.820 -0.3001 -0.8486  2.4431
49606SOL    HW253630   5.442  10.704   8.808  0.3707  0.3813 -1.9138
49607SOL     OW53631   9.025   4.999   0.097  0.2017  0.4189 -0.0057
49607SOL    HW153632   9.035   5.050   0.177  0.8167 -1.0831  0.9344
49607SOL    HW253633   9.090   5.036   0.037  1.4385  0.0435  1.0515
49608SOL     OW53634   3.510   8.246   6.386  0.0855  0.1135  0.2484
49608SOL    HW153635   3.482   8.194   6.461 -0.3803  0.6828  0.4699
49608SOL    HW253636   3.598   8.213   6.366  0.4538  0.3521  1.4043
49609SOL     OW53637   9.656   5.877  10.676  0.3415  0.1312 -1.0008
49609SOL    HW153638   9.598   5.945  10.641  0.4890  0.0460 -1.4171
49609SOL    HW253639   9.612   5.795  10.657  1.1474 -0.0091 -2.4206
49610SOL     OW53640  11.640   1.684   9.517 -0.0506  0.9724 -0.0826
49610SOL    HW153641  11.735   1.699   9.516  0.4125 -1.3092  1.8628
49610SOL    HW253642  11.605   1.760   9.565  1.1309  0.5669  1.5297
49611SOL     OW53643   8.065   2.201  10.694 -0.5003  0.0637  0.4256
49611SOL    HW153644   8.012   2.231  10.621 -0.9537 -0.4173  0.5490
49611SOL    HW253645   8.024   2.241  10.771 -1.0248 -0.7382  0.5760
49612SOL     OW53646   5.204  11.605   1.657  0.3331  0.7498 -0.0499
49612SOL    HW153647   5.156  11.586   1.738 -0.6691  1.7642 -0.3831
49612SOL    HW253648   5.203  11.522   1.609  0.3999  0.3072  0.7028
49613SOL     OW53649   8.475   0.433   7.262  0.1140 -0.0587 -0.1358
49613SOL    HW153650   8.406   0.489   7.297  1.0353  2.4028 -1.9708
49613SOL    HW253651   8.554   0.458   7.310  1.0322  2.1440 -2.5423
49614SOL     OW53652   7.367   5.582  10.424  0.3323  0.2471  0.1271
49614SOL    HW153653   7.428   5.653  10.445  0.5057  0.2981 -0.5303
49614SOL    HW253654   7.280   5.621  10.438  0.4214  0.6686 -0.4686
49615SOL     OW53655  11.252   8.651  12.363 -0.0123 -0.3037 -0.0077
49615SOL    HW153656  11.291   8.621  12.281 -0.6581 -2.2228  0.3161
49615SOL    HW253657  11.302   8.728  12.387  2.0001 -1.2726 -0.8333
49616SOL     OW53658  10.418   7.357  10.649  0.1932 -0.0027 -0.0941
49616SOL    HW153659  10.324   7.356  10.669 -0.1335  3.2824 -0.8942
49616SOL    HW253660  10.459   7.321  10.727 -1.7100 -2.0418  0.0581
49617SOL     OW53661   5.813   4.510   4.489 -0.5069 -0.1472 -0.1048
49617SOL    HW153662   5.836   4.475   4.576 -2.0978  1.4096  1.0207
49617SOL    HW253663   5.872   4.585   4.478 -0.5522 -0.1286 -0.2176
49618SOL     OW53664  10.348   8.422  10.504  0.7480 -0.3583  0.0681
49618SOL    HW153665  10.404   8.423  10.426  3.1784  0.5221  1.6863
49618SOL    HW253666  10.331   8.514  10.522 -1.3707 -0.6098 -0.4061
49619SOL     OW53667   6.439   2.839   9.896  0.0407  0.8650 -0.6701
49619SOL    HW153668   6.408   2.749   9.900 -2.0275  1.5461  0.7453
49619SOL    HW253669   6.497   2.841   9.820 -1.2338 -1.2543 -1.8220
49620SOL     OW53670   1.903   9.619   5.166 -0.0943 -0.4938 -0.4124
49620SOL    HW153671   1.931   9.665   5.087 -0.0357  1.3302  0.6032
49620SOL    HW253672   1.958   9.541   5.170  2.7109  1.3385 -0.1681
49621SOL     OW53673   9.962   7.920   7.680  0.2333 -0.3956 -0.1360
49621SOL    HW153674   9.925   7.925   7.768 -1.2721  0.0209 -0.7521
49621SOL    HW253675   9.895   7.875   7.628  0.8774 -0.1909 -1.1810
49622SOL     OW53676   0.396   2.638   2.073 -0.5009  0.2543 -0.2536
49622SOL    HW153677   0.308   2.643   2.111 -1.0718  0.4586 -1.5471
49622SOL    HW253678   0.408   2.545   2.055 -0.0392  0.0930  0.8204
49623SOL     OW53679  11.270   0.946  10.949  0.0837  0.5907 -0.0821
49623SOL    HW153680  11.293   0.906  11.032 -0.2262 -0.6134 -0.5534
49623SOL    HW253681  11.310   1.033  10.952 -2.1699  1.6805  2.4234
49624SOL     OW53682  11.210  11.420   8.106  0.4822 -0.5443 -0.3523
49624SOL    HW153683  11.264  11.430   8.027  0.7349 -1.1029 -0.2506
49624SOL    HW253684  11.248  11.482   8.169  0.2283 -0.0357 -0.6857
49625SOL     OW53685   5.945  11.589   1.332 -0.3522  0.2852 -0.3426
49625SOL    HW153686   5.959  11.615   1.241 -0.1677  2.5870  0.2643
49625SOL    HW253687   5.885  11.655   1.367 -0.3425 -0.4866  1.2223
49626SOL     OW53688  12.603   2.321   4.159 -0.1314 -0.8859  0.1474
49626SOL    HW153689  12.516   2.320   4.197  0.1040  0.8512  0.8114
49626SOL    HW253690  12.623   2.229   4.140 -1.9523 -1.3322  0.2872
49627SOL     OW53691   6.112   6.371  12.635 -0.3715 -0.2922 -0.5963
49627SOL    HW153692   6.201   6.394  12.607 -0.3447  0.2551 -0.0676
49627SOL    HW253693   6.069   6.455  12.648 -1.4776 -0.5254 -2.4205
49628SOL     OW53694   2.711  11.444   2.920  0.1470 -0.4231 -0.1239
49628SOL    HW153695   2.629  11.460   2.875  0.4815  2.0324  0.0380
49628SOL    HW253696   2.686  11.393   2.998 -0.9509 -1.1520 -0.9256
49629SOL     OW53697  10.695   2.615   9.293  0.0393  0.3983 -0.1616
49629SOL    HW153698  10.720   2.677   9.361  0.9119 -0.0789 -0.0343
49629SOL    HW253699  10.777   2.581   9.260 -0.4158 -0.3575 -0.5438
49630SOL     OW53700   3.808   6.243   1.009 -0.1628  0.3367 -0.4943
49630SOL    HW153701   3.729   6.289   0.977  1.1366  3.3232  0.2045
49630SOL    HW253702   3.801   6.248   1.104  1.8756  2.8129 -0.3681
49631SOL     OW53703  11.870   4.536   7.551 -0.1749  0.2643  0.3242
49631SOL    HW153704  11.842   4.535   7.459  1.5151 -0.8604 -0.2274
49631SOL    HW253705  11.955   4.581   7.550 -0.4120  0.7828  1.4487
49632SOL     OW53706   9.985  12.494   4.109  0.3781  0.4565 -0.0235
49632SOL    HW153707  10.052  12.428   4.125  1.2143  1.3589  0.2440
49632SOL    HW253708  10.022  12.551   4.041 -1.1278 -0.4596 -1.6945
49633SOL     OW53709   0.026   8.728   7.049 -0.2554 -0.1334 -0.0295
49633SOL    HW153710   0.021   8.760   6.959 -0.1692 -0.9424 -0.3357
49633SOL    HW253711   0.020   8.633   7.040 -0.4500 -0.2089  0.8374
49634SOL     OW53712   0.096   0.605  11.904  0.2478 -0.1919  0.2511
49634SOL    HW153713   0.019   0.612  11.847  0.6371  0.4201 -0.2168
49634SOL    HW253714   0.158   0.669  11.869  1.1470 -0.9772  0.3549
49635SOL     OW53715   2.430   7.524   5.081  0.3689  0.2836  0.1838
49635SOL    HW153716   2.366   7.464   5.120 -0.9912  2.0071  0.7380
49635SOL    HW253717   2.385   7.561   5.005  0.5777  1.7290  0.7387
49636SOL     OW53718  12.041  11.965   3.165  0.0972 -0.1506  0.0020
49636SOL    HW153719  12.025  11.937   3.255  0.4254 -0.0367  0.0984
49636SOL    HW253720  12.028  12.060   3.166 -1.7711 -0.3473 -0.4895
49637SOL     OW53721   2.853   6.909   8.377  0.0737  0.0802  0.1071
49637SOL    HW153722   2.850   6.835   8.437 -0.6812 -0.4792 -0.5945
49637SOL    HW253723   2.787   6.970   8.410 -0.2489 -0.1703 -0.0590
49638SOL     OW53724   4.318   1.081   2.225 -0.3653  0.2499 -0.5189
49638SOL    HW153725   4.261   1.117   2.157  0.2408  1.3604 -0.4651
49638SOL    HW253726   4.405   1.115   2.203  0.0539 -0.4277  0.0869
49639SOL     OW53727   2.180   6.676   4.945  0.4661  0.1701 -0.1782
49639SOL    HW153728   2.187   6.682   4.850 -1.5340  0.7807 -0.3141
49639SOL    HW253729   2.240   6.604   4.969 -1.2587 -2.1124 -2.2178
49640SOL     OW53730  11.229   5.300   4.713 -0.1441  0.4523 -0.2756
49640SOL    HW153731  11.274   5.385   4.707  0.8847 -0.1116 -0.8552
49640SOL    HW253732  11.223   5.283   4.807  1.3257  0.3112 -0.1902
49641SOL     OW53733   9.231   2.277  12.336  0.8201  0.3631  0.3597
49641SOL    HW153734   9.325   2.290  12.320  0.7911  1.5554  1.0397
49641SOL    HW253735   9.224   2.267  12.431  0.3437 -0.6357  0.2313
49642SOL     OW53736   1.330   5.070  10.552  0.8279 -0.0131  0.2590
49642SOL    HW153737   1.295   5.024  10.475  0.3586 -1.6930  1.4150
49642SOL    HW253738   1.422   5.045  10.554  0.7763 -0.2008  0.3796
49643SOL     OW53739   5.321   5.334  12.355 -0.2259 -0.6542 -0.0871
49643SOL    HW153740   5.287   5.328  12.444 -2.2658  2.5385 -0.4814
49643SOL    HW253741   5.244   5.326  12.300  0.8792 -1.5768 -1.5816
49644SOL     OW53742   2.315  10.189   7.851  0.4636  0.2907 -0.5552
49644SOL    HW153743   2.409  10.183   7.864  0.4971  1.5634  0.0484
49644SOL    HW253744   2.304  10.212   7.759  0.8190  1.2058 -0.3806
49645SOL     OW53745   7.354  10.661   4.259  0.5935  0.3930 -0.3056
49645SOL    HW153746   7.325  10.589   4.202 -1.3703  1.1527 -0.3642
49645SOL    HW253747   7.333  10.740   4.210  1.2981  1.0314  0.4098
49646SOL     OW53748   7.980  11.981   2.842  0.3260 -0.4610 -0.2572
49646SOL    HW153749   7.938  11.954   2.924  1.1592 -0.7299  0.0874
49646SOL    HW253750   7.914  11.962   2.775  0.5156 -2.5369  0.0599
49647SOL     OW53751   0.530  11.598   4.740 -0.2453  0.3438  0.3717
49647SOL    HW153752   0.466  11.564   4.677 -0.0958  0.3494  0.2168
49647SOL    HW253753   0.602  11.535   4.737  0.0611  0.7074  0.0391
49648SOL     OW53754   6.705   1.145  10.681 -0.1041 -0.3532 -0.1428
49648SOL    HW153755   6.683   1.112  10.768  0.5559 -0.0965  0.1277
49648SOL    HW253756   6.723   1.067  10.629 -0.7286 -0.5186 -0.1161
49649SOL     OW53757   2.408   1.837   3.875  0.0538 -0.1684  0.1814
49649SOL    HW153758   2.443   1.799   3.794  1.6315  0.3361  0.5866
49649SOL    HW253759   2.429   1.930   3.869  3.4778 -0.5822  2.6532
49650SOL     OW53760   2.899   6.659   2.985 -0.2757 -0.3908 -0.0041
49650SOL    HW153761   2.894   6.605   3.065 -1.5772  0.8696  0.8165
49650SOL    HW253762   2.842   6.614   2.923 -2.8351  0.8624  1.2618
49651SOL     OW53763   3.885   6.470   7.710  0.0855  0.1330 -0.0150
49651SOL    HW153764   3.965   6.418   7.718  1.6834  2.2867 -1.0696
49651SOL    HW253765   3.834   6.426   7.642  0.9057 -0.6035 -0.1674
49652SOL     OW53766   8.183   2.120   1.130  0.1936  0.3178  0.0063
49652SOL    HW153767   8.139   2.035   1.132  0.0102  0.4059 -0.1804
49652SOL    HW253768   8.206   2.137   1.221 -0.3734  0.3793  0.1425
49653SOL     OW53769   3.143   0.854   9.694  0.5996  0.1811  0.1966
49653SOL    HW153770   3.172   0.906   9.769  1.5542  0.2185 -0.1877
49653SOL    HW253771   3.172   0.904   9.618  2.5698 -1.4488 -0.1988
49654SOL     OW53772   9.139   3.002   2.315  0.0246  0.2441 -0.0560
49654SOL    HW153773   9.084   3.037   2.245  1.2150  1.7778 -0.2918
49654SOL    HW253774   9.172   3.080   2.360 -0.0583 -0.6995  1.7115
49655SOL     OW53775   7.929   7.401   4.164 -0.5116  0.8100  0.3265
49655SOL    HW153776   7.975   7.386   4.247  0.7805  1.2866 -0.2647
49655SOL    HW253777   7.999   7.402   4.099 -1.5949 -0.4921 -0.9043
49656SOL     OW53778   6.096   0.157   0.707  0.3303 -0.3307  0.1006
49656SOL    HW153779   6.172   0.214   0.719 -0.3503  0.6357 -0.1033
49656SOL    HW253780   6.056   0.153   0.794  1.1119 -1.6023  0.4355
49657SOL     OW53781   5.660   3.597   5.352  0.5057  0.2130  0.0018
49657SOL    HW153782   5.701   3.612   5.267 -0.0604  1.9262  0.0049
49657SOL    HW253783   5.569   3.626   5.341 -0.1822 -1.5472  0.5967
49658SOL     OW53784   6.712   6.689  11.891  0.1648 -0.8611  0.4613
49658SOL    HW153785   6.698   6.743  11.968 -1.1763 -0.3943 -0.0807
49658SOL    HW253786   6.791   6.725  11.851 -0.3807  0.3343  0.4293
49659SOL     OW53787   3.493   7.176   2.690  0.0469  0.2575  0.3669
49659SOL    HW153788   3.490   7.271   2.695  1.6941  0.4386 -1.1767
49659SOL    HW253789   3.430   7.153   2.622  0.0536  0.2914  0.3491
49660SOL     OW53790  11.313  11.243   8.437 -0.2513 -0.5035  0.3389
49660SOL    HW153791  11.351  11.262   8.523  1.2477  0.3189 -0.4750
49660SOL    HW253792  11.373  11.283   8.374 -2.0244  0.0927 -1.0606
49661SOL     OW53793   4.807  11.997   5.739  0.2048 -0.0876  0.6000
49661SOL    HW153794   4.795  11.914   5.785 -0.8755 -0.3800 -0.1767
49661SOL    HW253795   4.828  12.060   5.808 -0.6553 -0.6623  1.4068
49662SOL     OW53796  10.926   4.977   7.315 -0.3869  0.5179  0.1902
49662SOL    HW153797  10.870   4.901   7.331 -0.0491  0.2425  0.0662
49662SOL    HW253798  11.009   4.940   7.286 -0.0574  0.9203  0.6239
49663SOL     OW53799   7.530   2.597  11.327 -0.2067  0.0513  0.2465
49663SOL    HW153800   7.497   2.508  11.339 -2.4939  0.6064 -1.3208
49663SOL    HW253801   7.556   2.600  11.235  1.0212  0.6698  0.5974
49664SOL     OW53802   6.822   0.861   9.125  0.4776 -0.7528  0.1679
49664SOL    HW153803   6.808   0.939   9.180 -2.6715 -0.6016 -0.6490
49664SOL    HW253804   6.813   0.787   9.186  0.9394 -0.5333  0.5079
49665SOL     OW53805   8.460   1.058   7.633  0.5674 -0.0681 -0.5659
49665SOL    HW153806   8.499   1.142   7.659  0.1985 -0.3781  1.1014
49665SOL    HW253807   8.484   0.998   7.703 -0.4061 -0.9967 -1.0076
49666SOL     OW53808   5.395   9.308   4.794  0.3823 -0.4382  0.2176
49666SOL    HW153809   5.372   9.400   4.810  0.5365 -0.7781  2.6746
49666SOL    HW253810   5.431   9.308   4.705 -0.0870  1.7828 -0.0342
49667SOL     OW53811   8.781   8.752   1.158  0.8207  0.2279  0.6123
49667SOL    HW153812   8.722   8.706   1.217 -1.5640  0.6094 -1.3049
49667SOL    HW253813   8.851   8.690   1.140 -0.4716 -1.3279  0.7971
49668SOL     OW53814   7.168  11.500   7.283 -0.1667 -0.3150 -0.1056
49668SOL    HW153815   7.235  11.435   7.303  1.2441  1.0159 -0.3039
49668SOL    HW253816   7.215  11.569   7.236 -1.6641  0.7102 -0.1543
49669SOL     OW53817   5.879   7.163   7.771 -0.4959  0.1657  0.2517
49669SOL    HW153818   5.829   7.086   7.796 -0.9001  0.6123  0.8378
49669SOL    HW253819   5.876   7.163   7.675 -0.5352 -0.5085  0.2477
49670SOL     OW53820   2.329   9.306  10.101  0.6893  0.0038 -0.1428
49670SOL    HW153821   2.400   9.242  10.098  0.3299 -0.3758 -2.7772
49670SOL    HW253822   2.331   9.340  10.190  2.7075 -1.6287  0.5040
49671SOL     OW53823   0.896   4.714   8.994  0.3176  0.0951 -0.5990
49671SOL    HW153824   0.847   4.635   9.016  1.7447 -0.8855 -0.8291
49671SOL    HW253825   0.873   4.733   8.904 -1.3791  0.9941 -0.0195
49672SOL     OW53826  12.554   1.821   1.546 -0.6140  0.1568 -0.3050
49672SOL    HW153827  12.491   1.845   1.478 -0.5950 -0.4424 -0.5373
49672SOL    HW253828  12.563   1.726   1.538  1.4027  0.3865 -1.2105
49673SOL     OW53829   5.978   4.628   4.736  0.3678 -0.2597  0.2928
49673SOL    HW153830   6.046   4.587   4.683  1.4272  0.2620  1.2152
49673SOL    HW253831   5.998   4.602   4.826  0.6584  1.6476  0.8285
49674SOL     OW53832   1.561   0.076   5.970 -0.0607  0.0302 -0.1788
49674SOL    HW153833   1.621   0.005   5.947 -0.7204 -0.2703 -1.0260
49674SOL    HW253834   1.607   0.124   6.039  2.0940  1.0042 -2.1364
49675SOL     OW53835  11.349  11.477   3.646  0.1371 -0.3646  0.2698
49675SOL    HW153836  11.292  11.549   3.619  0.8368 -0.0125 -0.3167
49675SOL    HW253837  11.369  11.495   3.737  0.8947  0.6038 -0.0659
49676SOL     OW53838   3.982   1.783   6.869 -0.7472 -0.0881  0.5727
49676SOL    HW153839   4.023   1.705   6.833 -1.1621 -0.1769  0.2796
49676SOL    HW253840   4.055   1.836   6.901 -0.1270  0.8913 -2.1767
49677SOL     OW53841  11.382   6.590  11.638 -0.0202  0.3768  0.3301
49677SOL    HW153842  11.427   6.561  11.718 -0.4292 -0.5471  0.2288
49677SOL    HW253843  11.431   6.550  11.567 -0.8616 -0.4668  0.2086
49678SOL     OW53844   2.672   9.628   6.898 -0.5286 -0.5172  0.0311
49678SOL    HW153845   2.675   9.640   6.803  0.2616 -1.5392 -0.0907
49678SOL    HW253846   2.598   9.570   6.913 -0.8246 -0.1329  0.0725
49679SOL     OW53847  11.218   0.228   6.514 -0.2506 -0.2563  0.7171
49679SOL    HW153848  11.225   0.160   6.446 -2.1234  1.6454 -1.5210
49679SOL    HW253849  11.278   0.198   6.583  1.1871 -2.6990 -1.3962
49680SOL     OW53850   2.090   5.660   4.119 -0.4317  0.0296 -0.2616
49680SOL    HW153851   2.151   5.640   4.048 -0.6824 -0.1393 -0.4322
49680SOL    HW253852   2.089   5.582   4.174 -1.5133 -0.5074 -1.0031
49681SOL     OW53853  11.503   8.191   2.453  0.0878 -0.0737  0.5951
49681SOL    HW153854  11.547   8.159   2.374 -0.8359  0.7290 -0.2758
49681SOL    HW253855  11.430   8.132   2.466  0.0158  0.0219  0.6268
49682SOL     OW53856   8.420  11.570   5.337  0.2420  0.1897 -0.2218
49682SOL    HW153857   8.432  11.521   5.419  0.0839  1.0433  0.3317
49682SOL    HW253858   8.435  11.506   5.268 -0.2884 -0.7199  0.4784
49683SOL     OW53859   7.537   7.071   2.040 -0.1063  0.3489 -0.3292
49683SOL    HW153860   7.476   7.116   1.982 -0.2807  0.2177 -0.2501
49683SOL    HW253861   7.504   6.982   2.045  0.0581  0.2917 -0.2363
49684SOL     OW53862   6.955   8.699   5.583  0.8250  0.0472  0.2305
49684SOL    HW153863   7.021   8.689   5.651  0.3658  1.1267  0.8618
49684SOL    HW253864   6.944   8.794   5.573  0.8156 -0.0743 -1.2883
49685SOL     OW53865   3.440   0.846   7.743 -0.1970 -0.3748  0.1651
49685SOL    HW153866   3.440   0.862   7.649  0.2713  0.2462  0.2663
49685SOL    HW253867   3.356   0.879   7.773  0.6212  1.7049  0.3204
49686SOL     OW53868   5.862   4.231   6.481  0.0562  0.6778 -0.5070
49686SOL    HW153869   5.771   4.258   6.492  0.1968  1.0931 -0.3617
49686SOL    HW253870   5.880   4.178   6.558 -0.5251 -0.7091 -1.2676
49687SOL     OW53871   0.776   3.053   6.107 -0.0872 -0.3355 -0.2656
49687SOL    HW153872   0.759   3.072   6.014 -2.1185  2.2274  0.4917
49687SOL    HW253873   0.864   3.016   6.109  0.2610  0.1059 -3.1556
49688SOL     OW53874   9.469  11.669   8.040 -0.4529  0.0431 -0.2035
49688SOL    HW153875   9.426  11.727   8.104 -0.0631 -0.4373  0.5063
49688SOL    HW253876   9.398  11.638   7.985 -0.9331 -0.2184  0.5454
49689SOL     OW53877  11.350  11.350   5.604  0.4524  0.2033 -0.0615
49689SOL    HW153878  11.326  11.442   5.597  1.5216  0.3505 -3.1825
49689SOL    HW253879  11.367  11.322   5.514  1.4061 -2.7213  0.8994
49690SOL     OW53880   3.719   5.850   1.875 -0.4304  0.3979 -0.1942
49690SOL    HW153881   3.690   5.935   1.909 -0.2917  0.1229  0.6440
49690SOL    HW253882   3.814   5.857   1.871 -0.5115  1.0704 -2.3211
49691SOL     OW53883   0.590   5.130   6.487 -0.3339  0.4063  0.3267
49691SOL    HW153884   0.629   5.075   6.554 -1.7707 -0.0886  0.8002
49691SOL    HW253885   0.607   5.220   6.516 -0.4544  0.1989  1.0570
49692SOL     OW53886  12.063  12.080   7.276 -0.0583 -0.3310  0.1548
49692SOL    HW153887  11.995  12.035   7.327  0.9013 -1.7298  0.2660
49692SOL    HW253888  12.143  12.068   7.327  0.2990  1.2634  0.0129
49693SOL     OW53889   4.307   2.669   8.853 -0.2929 -0.0398  0.1914
49693SOL    HW153890   4.362   2.736   8.814  1.4525 -1.8304 -0.5772
49693SOL    HW253891   4.217   2.699   8.837  0.4170  1.3895 -1.3956
49694SOL     OW53892   6.896   2.429   2.578  0.2995 -0.3370  0.0885
49694SOL    HW153893   6.933   2.517   2.589  0.5974 -0.6101  1.5642
49694SOL    HW253894   6.962   2.381   2.527  0.3439  0.1656 -0.3319
49695SOL     OW53895   3.928   1.119   9.060 -0.3382  0.2378 -0.0023
49695SOL    HW153896   3.985   1.045   9.039 -0.2199  0.7805 -1.7159
49695SOL    HW253897   3.867   1.084   9.125 -0.9318 -1.6954 -1.4827
49696SOL     OW53898   8.868   3.716   1.510  0.6244  0.0364 -0.4872
49696SOL    HW153899   8.857   3.676   1.424  2.8051  0.1615 -0.8847
49696SOL    HW253900   8.808   3.668   1.567 -0.1139 -0.7328 -1.8630
49697SOL     OW53901   2.335   7.699  11.377  0.0861 -0.6770  0.8040
49697SOL    HW153902   2.419   7.722  11.418  0.6829 -1.6954  0.1882
49697SOL    HW253903   2.360   7.654  11.297 -1.0694 -0.4307  0.2939
49698SOL     OW53904   2.773   3.743   7.489  0.0756 -0.0768 -0.6889
49698SOL    HW153905   2.814   3.658   7.504 -0.1051  0.0962  1.0972
49698SOL    HW253906   2.844   3.800   7.461  0.3855 -0.5953 -0.9605
49699SOL     OW53907   8.328   6.652   9.649 -0.0761  0.1294  0.2971
49699SOL    HW153908   8.235   6.641   9.664  0.1586 -2.8774  0.1721
49699SOL    HW253909   8.338   6.643   9.554  0.3766 -0.0653  0.3609
49700SOL     OW53910   0.665   3.216   4.350  0.0821 -0.2325  0.2140
49700SOL    HW153911   0.580   3.174   4.341 -0.2522  0.4111  0.3910
49700SOL    HW253912   0.657   3.272   4.426  1.2204 -1.5085  1.3299
49701SOL     OW53913   6.230   1.070   6.646  0.4463  0.1148 -0.3963
49701SOL    HW153914   6.323   1.051   6.663 -0.1668 -1.1288  1.8907
49701SOL    HW253915   6.212   1.025   6.563  1.5025 -0.9869 -0.0678
49702SOL     OW53916   6.877  10.951   6.385 -0.5752  0.6023  0.2500
49702SOL    HW153917   6.855  10.891   6.457 -0.2372 -1.4843 -1.3008
49702SOL    HW253918   6.792  10.977   6.350 -0.7211  0.6567  0.6306
49703SOL     OW53919  12.073   4.734   0.018 -0.2465  0.3921  0.6919
49703SOL    HW153920  12.134   4.807   0.005  0.7562 -0.5356  0.0021
49703SOL    HW253921  12.117   4.678   0.082 -0.8399  0.2089  0.9433
49704SOL     OW53922   0.917   2.550   1.431  0.4931  0.1922 -0.2442
49704SOL    HW153923   0.918   2.473   1.374  0.9295 -1.1851  1.5224
49704SOL    HW253924   0.827   2.555   1.464  0.4130  0.5768 -0.5112
49705SOL     OW53925   3.882   8.158   5.569 -0.2701 -0.3239 -0.2287
49705SOL    HW153926   3.911   8.246   5.596 -0.9098 -0.1341 -0.1555
49705SOL    HW253927   3.859   8.114   5.650  2.0564 -1.3313 -0.0187
49706SOL     OW53928   2.698   7.194   7.700 -0.1942 -0.0473  0.1807
49706SOL    HW153929   2.613   7.238   7.697  1.1340  2.7513 -0.0132
49706SOL    HW253930   2.691   7.123   7.637 -1.3016  2.3605 -2.6740
49707SOL     OW53931   7.925   7.372   9.283 -0.2209  0.3674 -0.0520
49707SOL    HW153932   7.836   7.364   9.315 -0.1561  1.5620  0.4766
49707SOL    HW253933   7.962   7.446   9.331  1.2186 -0.3966  0.0980
49708SOL     OW53934   7.620   7.977  10.101  0.8089 -0.1105 -0.1271
49708SOL    HW153935   7.614   7.950  10.009 -0.2443 -0.1396 -0.0665
49708SOL    HW253936   7.559   7.919  10.147  0.2623  0.8215  0.3628
49709SOL     OW53937   7.093  10.833   2.057 -0.4532  0.2659  0.3805
49709SOL    HW153938   7.069  10.777   2.130  0.6149 -1.5946 -0.6069
49709SOL    HW253939   7.188  10.838   2.061 -0.0928 -1.8717 -2.1203
49710SOL     OW53940   1.201   5.685   1.729  0.3989  0.0583 -0.0636
49710SOL    HW153941   1.281   5.713   1.773 -0.6496  0.2495  1.7932
49710SOL    HW253942   1.208   5.724   1.641  2.0873  0.4944  0.2267
49711SOL     OW53943   5.101   0.068  12.284  0.0352  0.1392 -0.2732
49711SOL    HW153944   5.179   0.071  12.229 -0.9454 -2.0088 -1.9497
49711SOL    HW253945   5.058  -0.014  12.260 -2.3262  0.8567  1.1554
49712SOL     OW53946   3.843   3.827   7.017  0.2492 -0.1103 -0.3527
49712SOL    HW153947   3.869   3.739   7.045 -0.7371 -0.0537  0.8535
49712SOL    HW253948   3.924   3.869   6.991  0.8796 -1.0393  0.0468
49713SOL     OW53949   3.875   4.229   2.860 -0.0474 -0.4532 -0.3880
49713SOL    HW153950   3.783   4.206   2.846 -1.0319  2.8800 -0.2737
49713SOL    HW253951   3.886   4.223   2.955 -0.5002  0.2169 -0.2874
49714SOL     OW53952   4.546   8.460  10.886  0.8586  0.0891  0.6699
49714SOL    HW153953   4.484   8.433  10.954  1.3007 -0.3854  0.8932
49714SOL    HW253954   4.582   8.543  10.918  1.3396 -0.3173  1.2090
49715SOL     OW53955   8.223  10.637   2.943 -0.4311  0.1642  0.0678
49715SOL    HW153956   8.196  10.545   2.944 -0.6733  0.2242 -0.5049
49715SOL    HW253957   8.293  10.640   2.878 -0.2540  0.3427  0.2651
49716SOL     OW53958   5.865   5.134   1.374 -0.4292 -0.5139  0.4728
49716SOL    HW153959   5.934   5.104   1.433 -0.3578  0.1800  0.7591
49716SOL    HW253960   5.864   5.229   1.385 -1.1097 -0.4714  0.1143
49717SOL     OW53961   9.253   2.281  10.289  0.0812  0.0091  0.0934
49717SOL    HW153962   9.273   2.278  10.382  0.4529  1.9607  0.1215
49717SOL    HW253963   9.336   2.307  10.247 -0.0921 -0.7886 -0.7829
49718SOL     OW53964   3.539   6.596   5.603 -0.2655 -0.0950  0.2461
49718SOL    HW153965   3.444   6.594   5.619 -0.3397  0.3721 -0.1009
49718SOL    HW253966   3.551   6.670   5.544  0.6322  1.5121  2.3118
49719SOL     OW53967  12.536  12.407  11.000 -0.4298 -0.2911  0.0486
49719SOL    HW153968  12.517  12.351  11.076  0.5317  0.3127  0.7615
49719SOL    HW253969  12.467  12.473  11.001 -0.4060 -0.2683  0.4247
49720SOL     OW53970   6.219   1.932  11.292 -0.4227 -0.2919  0.1966
49720SOL    HW153971   6.182   2.017  11.270  0.3197  0.2216  0.8429
49720SOL    HW253972   6.308   1.952  11.322 -0.7766 -1.1071  1.9201
49721SOL     OW53973   1.848  12.220  11.829  0.0657  0.2450  0.0955
49721SOL    HW153974   1.908  12.152  11.799  0.3589  0.1813  0.8160
49721SOL    HW253975   1.875  12.299  11.781  1.2262  0.4037  0.9750
49722SOL     OW53976   5.633  10.418  10.476  0.3967  0.7888  0.2230
49722SOL    HW153977   5.540  10.430  10.493 -0.0184 -2.7172  1.1809
49722SOL    HW253978   5.667  10.381  10.558  2.1008 -0.2568 -0.9070
49723SOL     OW53979   3.395  12.362  11.486 -0.6493  0.1443  0.9697
49723SOL    HW153980   3.416  12.437  11.543 -0.1775 -0.1961  1.2500
49723SOL    HW253981   3.470  12.303  11.495  0.3327  0.9024 -1.4480
49724SOL     OW53982   5.996   1.063  11.635 -0.1546  0.3443 -0.2817
49724SOL    HW153983   6.086   1.048  11.663 -0.6387 -2.8966  0.0255
49724SOL    HW253984   6.000   1.139  11.578  2.8190  0.1115 -0.5244
49725SOL     OW53985  11.831   0.317  10.966  0.0337  0.7658  0.2617
49725SOL    HW153986  11.776   0.274  10.899  1.4331  0.0446 -0.4708
49725SOL    HW253987  11.770   0.371  11.016 -1.0946  1.2077 -1.4994
49726SOL     OW53988   3.693   7.998   0.860  0.0675 -0.5109 -0.0797
49726SOL    HW153989   3.634   8.063   0.822  1.7646  0.5290 -1.0815
49726SOL    HW253990   3.760   8.049   0.906 -0.0548 -1.6646  1.4699
49727SOL     OW53991   9.628   5.177   1.814 -0.2672 -0.0737  0.0958
49727SOL    HW153992   9.699   5.148   1.872 -0.1193  0.7670  0.3453
49727SOL    HW253993   9.548   5.155   1.860 -0.1492  0.6652  0.6621
49728SOL     OW53994   5.215   8.469   8.188 -0.0049  0.4385  0.0533
49728SOL    HW153995   5.229   8.420   8.269 -0.7622  1.7464  1.0103
49728SOL    HW253996   5.293   8.524   8.179  1.3137 -1.4970 -1.5351
49729SOL     OW53997   8.987   4.262   6.572  0.5021 -0.0609  0.6267
49729SOL    HW153998   9.043   4.241   6.647  0.6304  1.5633  1.0338
49729SOL    HW253999   8.925   4.328   6.606  1.0056  1.2289 -0.8344
49730SOL     OW54000   4.782  10.485  12.001  0.0245  0.8263 -0.2561
49730SOL    HW154001   4.861  10.536  12.016  0.3726  0.0579  0.6559
49730SOL    HW254002   4.803  10.431  11.925 -0.4954  2.3022 -1.4753
49731SOL     OW54003  10.504  11.005  10.742 -0.4282  0.9466 -0.0153
49731SOL    HW154004  10.465  11.088  10.712 -0.6012 -0.0639 -2.9247
49731SOL    HW254005  10.583  10.996  10.688 -1.0807 -1.3407 -0.6790
49732SOL     OW54006   3.966   0.298   1.167 -0.1513  0.1659 -0.6755
49732SOL    HW154007   4.041   0.305   1.225  1.1145  0.1675 -2.2441
49732SOL    HW254008   3.996   0.334   1.083 -2.2476  1.2136 -1.0619
49733SOL     OW54009  10.696   3.825   8.849  0.2101  0.0958 -0.9123
49733SOL    HW154010  10.642   3.879   8.907 -1.1215  0.6667 -2.6013
49733SOL    HW254011  10.762   3.786   8.907 -1.6357 -0.1485  1.1647
49734SOL     OW54012   8.242   5.446   4.638 -0.3076  0.7635  0.0259
49734SOL    HW154013   8.235   5.463   4.544 -0.7316  3.2103  0.4313
49734SOL    HW254014   8.313   5.503   4.667  0.3456 -0.5405  1.1067
49735SOL     OW54015   0.666  11.200  12.079 -0.1998  0.5028  0.1889
49735SOL    HW154016   0.662  11.265  12.148  1.6441  0.1986  0.6462
49735SOL    HW254017   0.583  11.154  12.084  0.0938  0.1040  2.6212
49736SOL     OW54018  11.591   5.632   5.171 -0.4917  0.3299 -0.2071
49736SOL    HW154019  11.647   5.646   5.094 -0.5573  0.1434 -0.2888
49736SOL    HW254020  11.513   5.685   5.154 -1.3621 -1.1783 -1.1675
49737SOL     OW54021   9.355  12.432  10.020  0.1795  0.2357  0.2083
49737SOL    HW154022   9.343  12.491  10.095 -1.6679 -0.0947  0.2110
49737SOL    HW254023   9.379  12.489   9.948 -2.5057  1.1876 -0.0266
49738SOL     OW54024   2.431   4.266   1.262  0.0909 -0.2916  0.2541
49738SOL    HW154025   2.452   4.352   1.227  0.8809  0.1388  1.7063
49738SOL    HW254026   2.504   4.210   1.234  1.5544  0.4105  2.3922
49739SOL     OW54027   2.631  12.167   3.518  0.5034 -0.0378  0.3135
49739SOL    HW154028   2.615  12.161   3.424  0.9851 -2.4321  0.3337
49739SOL    HW254029   2.545  12.165   3.558  0.1237  3.1614 -0.0530
49740SOL     OW54030   8.090   9.525   3.846  0.2457  0.1817  0.3976
49740SOL    HW154031   8.122   9.439   3.873  1.9401  0.3731 -0.8330
49740SOL    HW254032   8.163   9.584   3.862 -0.2537  1.0710 -0.4675
49741SOL     OW54033   8.603   2.053  10.979 -0.6360 -0.4507  0.1196
49741SOL    HW154034   8.603   1.968  10.936 -1.6103 -0.1584 -0.4865
49741SOL    HW254035   8.514   2.086  10.967 -0.4070  0.4419  0.7720
49742SOL     OW54036   0.617   3.981   6.672 -0.3314 -0.0601  0.3791
49742SOL    HW154037   0.700   3.957   6.631 -0.4673 -0.1585  0.1605
49742SOL    HW254038   0.595   4.066   6.633 -0.1299  0.1634  0.7414
49743SOL     OW54039   2.109   1.837  12.502  0.2228  0.2154 -0.0416
49743SOL    HW154040   2.138   1.838  12.593  0.7990 -0.4125 -0.2049
49743SOL    HW254041   2.157   1.763  12.463 -2.5988 -1.8083  0.0125
49744SOL     OW54042  10.702   5.742  11.571 -0.1278 -0.0713 -0.5953
49744SOL    HW154043  10.716   5.829  11.609 -2.6298 -0.3420  1.1297
49744SOL    HW254044  10.745   5.682  11.632 -0.4098 -0.1983 -0.5201
49745SOL     OW54045   4.989   8.263   6.198  0.0323  0.1409  0.4501
49745SOL    HW154046   5.004   8.340   6.143  1.3653 -1.2747 -1.3231
49745SOL    HW254047   4.894   8.254   6.201 -0.1339  1.6460  0.4071
49746SOL     OW54048   6.866  11.550  10.057 -0.5786  0.7235  0.2540
49746SOL    HW154049   6.901  11.521  10.141  2.1033  0.4496 -0.8451
49746SOL    HW254050   6.821  11.474  10.022 -0.0048  0.2202  0.5925
49747SOL     OW54051   6.959   6.312   6.035  0.0755  0.1459 -0.0303
49747SOL    HW154052   6.914   6.397   6.039 -0.0453  0.0746  0.1290
49747SOL    HW254053   6.922   6.269   5.959  0.0345  0.1787 -0.0292
49748SOL     OW54054  12.257  10.932   1.418  0.1869 -0.2941 -0.1989
49748SOL    HW154055  12.334  10.989   1.409  1.1938 -1.7904 -1.7976
49748SOL    HW254056  12.287  10.847   1.387 -1.1665 -1.8382  2.4187
49749SOL     OW54057   4.121   9.376   9.706 -0.4918  0.0713 -0.3602
49749SOL    HW154058   4.175   9.431   9.764 -0.5524 -1.1075  0.8715
49749SOL    HW254059   4.185   9.326   9.655 -0.4270 -0.0040 -0.2058
49750SOL     OW54060  12.630   2.420   1.970  0.3311  0.2348 -0.0617
49750SOL    HW154061  12.673   2.456   2.047 -0.9488  0.7122  0.4606
49750SOL    HW254062  12.645   2.326   1.975  1.3714  0.3976  0.0519
49751SOL     OW54063  10.566   5.813   7.314 -0.2675  0.2295 -0.5929
49751SOL    HW154064  10.603   5.865   7.243  0.0869  0.8526  0.0253
49751SOL    HW254065  10.631   5.820   7.385 -1.1810  0.6603  0.2246
49752SOL     OW54066  12.366   8.776  10.949  0.3715 -1.1951  0.2928
49752SOL    HW154067  12.446   8.739  10.986  1.7553  1.6810  0.5039
49752SOL    HW254068  12.319   8.701  10.912  3.1295 -3.0114  0.1660
49753SOL     OW54069   0.041  10.573   2.011 -0.3913  0.0951 -0.5227
49753SOL    HW154070  -0.026  10.629   1.972  1.6371  2.1463 -1.2891
49753SOL    HW254071   0.079  10.526   1.937  1.0374  1.2872 -0.5939
49754SOL     OW54072  11.872  10.243   8.419  0.0782 -0.0022  0.4575
49754SOL    HW154073  11.931  10.252   8.494 -1.9993 -0.4332  2.2378
49754SOL    HW254074  11.883  10.325   8.371  1.0229  0.5486  1.5482
49755SOL     OW54075   0.906  10.520   8.129  0.1977 -0.2479  0.3339
49755SOL    HW154076   0.940  10.465   8.200  0.5861 -0.4390  0.0061
49755SOL    HW254077   0.966  10.504   8.056 -0.9665 -1.0803 -0.4738
49756SOL     OW54078   0.346   2.287  10.358  0.1654  0.0711  0.6314
49756SOL    HW154079   0.271   2.235  10.385 -0.3749 -0.0989 -1.0793
49756SOL    HW254080   0.318   2.378  10.369 -0.5199  0.0137 -0.5326
49757SOL     OW54081   9.689   5.170   7.919  0.3747  0.1794 -0.1577
49757SOL    HW154082   9.763   5.230   7.926 -0.5643  1.2714  0.7317
49757SOL    HW254083   9.613   5.226   7.905 -0.4223 -0.8567 -0.1226
49758SOL     OW54084  12.258  11.964  10.855 -0.1592 -0.0282  0.2922
49758SOL    HW154085  12.283  11.992  10.943 -0.1996  1.0508 -0.0248
49758SOL    HW254086  12.225  12.044  10.813  2.2007  0.0951 -1.5392
49759SOL     OW54087   2.499   9.760   6.287  1.1912  0.3377 -0.1774
49759SOL    HW154088   2.509   9.823   6.216  0.2762 -1.2276 -1.7868
49759SOL    HW254089   2.404   9.752   6.299  1.3232  1.3765  2.0424
49760SOL     OW54090   2.039   6.540  12.056  0.0433 -0.0822  0.4707
49760SOL    HW154091   2.074   6.535  12.145  1.7687 -0.3228 -0.1762
49760SOL    HW254092   2.086   6.471  12.008  1.5706  2.0638 -1.3784
49761SOL     OW54093   4.825  10.187   7.955 -0.2818 -0.3827 -0.5949
49761SOL    HW154094   4.803  10.177   8.047 -1.5012 -1.1831 -0.9471
49761SOL    HW254095   4.795  10.275   7.932  0.1811 -0.1162 -0.1992
49762SOL     OW54096   4.944  10.528   9.781  0.6840 -0.4746 -0.5579
49762SOL    HW154097   4.980  10.440   9.773  1.1184 -0.5375  1.6155
49762SOL    HW254098   5.021  10.585   9.774  0.8142 -0.4428  0.9476
49763SOL     OW54099   1.825   4.612   5.589  0.5478 -0.3315 -0.1674
49763SOL    HW154100   1.874   4.666   5.651 -0.3379 -0.4556  0.6532
49763SOL    HW254101   1.853   4.643   5.503 -1.2414  2.6898  0.2343
49764SOL     OW54102   0.730   0.270   7.267  0.2141 -0.7871 -0.8468
49764SOL    HW154103   0.651   0.226   7.299  0.1342 -0.0260  0.0107
49764SOL    HW254104   0.801   0.231   7.317  0.1062  0.2915  0.1674
49765SOL     OW54105   6.996   8.356  12.253 -0.1879  0.3722 -0.4981
49765SOL    HW154106   6.998   8.321  12.164 -0.4769 -0.5103 -0.1662
49765SOL    HW254107   7.050   8.435  12.249  0.1842  0.0840 -1.3479
49766SOL     OW54108   2.886   8.911   0.279  0.1377  0.3640 -0.3817
49766SOL    HW154109   2.909   8.836   0.224  0.4066  0.7311 -0.7793
49766SOL    HW254110   2.814   8.954   0.233  1.4732  1.6621 -1.3910
49767SOL     OW54111   9.110   3.268   6.323 -0.5137  0.0916  0.6334
49767SOL    HW154112   9.194   3.227   6.303 -0.5667  0.0123  0.5735
49767SOL    HW254113   9.117   3.356   6.285 -0.0882  0.4296  1.4762
49768SOL     OW54114   7.976   0.920   7.054 -0.4174 -0.2877 -0.5604
49768SOL    HW154115   8.027   1.000   7.069 -1.8596  1.0638 -2.3185
49768SOL    HW254116   8.041   0.855   7.027  0.9152 -0.0448  1.7976
49769SOL     OW54117   7.713   1.113   6.406 -0.6905  0.3172  0.5536
49769SOL    HW154118   7.741   1.204   6.395 -0.0948  0.1504  0.6323
49769SOL    HW254119   7.718   1.098   6.501  0.4295 -0.1597  0.4410
49770SOL     OW54120   9.077   1.977   4.908  0.0430  0.1430  0.9518
49770SOL    HW154121   9.143   1.979   4.977  0.3515  1.8352  0.6490
49770SOL    HW254122   9.071   1.884   4.883  3.0093  0.0237  0.3075
49771SOL     OW54123   8.934   2.614   0.743 -0.1499  0.2796  0.1435
49771SOL    HW154124   8.861   2.657   0.699  0.8371  0.0626 -1.8348
49771SOL    HW254125   9.001   2.681   0.750  0.0425  0.0538  0.4797
49772SOL     OW54126   2.281   9.640  12.346  0.1429  0.2389 -0.1008
49772SOL    HW154127   2.310   9.556  12.381  1.0580  0.8006  0.5065
49772SOL    HW254128   2.358   9.676  12.302  0.1115  1.2761  0.6418
49773SOL     OW54129  11.040   4.295  10.191  0.6422  0.1993  0.3716
49773SOL    HW154130  10.998   4.274  10.108 -1.8414 -0.2518  1.6507
49773SOL    HW254131  11.044   4.211  10.237 -1.3874  0.9646  2.0950
49774SOL     OW54132   1.563  10.785   7.138 -0.5902 -0.0703  0.7105
49774SOL    HW154133   1.545  10.732   7.216 -0.8096  0.9252  1.3424
49774SOL    HW254134   1.561  10.722   7.066 -2.4164 -0.6770  1.2552
49775SOL     OW54135   6.054   8.088   5.308  0.2927 -0.4602  0.7635
49775SOL    HW154136   5.980   8.097   5.248  0.8106 -1.3582 -0.0398
49775SOL    HW254137   6.048   8.164   5.365  0.1634  0.8005 -0.8495
49776SOL     OW54138   0.431   0.136   3.844 -0.4499  0.5528  0.6068
49776SOL    HW154139   0.420   0.207   3.781  1.5663  0.2912 -0.1348
49776SOL    HW254140   0.359   0.076   3.826 -1.6367  1.9372  0.6168
49777SOL     OW54141   3.756   2.300   2.474 -0.1766 -0.0498  0.0838
49777SOL    HW154142   3.751   2.232   2.541  0.9143 -1.4263 -1.1666
49777SOL    HW254143   3.828   2.273   2.417 -0.6437  1.3963 -1.2816
49778SOL     OW54144   7.913  11.653   9.712  0.0562  0.7728 -0.2500
49778SOL    HW154145   7.909  11.667   9.806  0.5067 -0.7030  0.0049
49778SOL    HW254146   7.976  11.582   9.700  0.1291  1.0387 -1.6793
49779SOL     OW54147   2.192   4.721   9.293  0.2185 -0.0504  0.1055
49779SOL    HW154148   2.139   4.667   9.234 -1.5623 -0.6252  2.0773
49779SOL    HW254149   2.255   4.764   9.237 -0.6698 -1.3993 -2.0430
49780SOL     OW54150   6.225   3.883   6.766 -0.4637 -0.0086  0.1737
49780SOL    HW154151   6.170   3.827   6.820  1.0386 -1.8741 -0.1277
49780SOL    HW254152   6.187   3.876   6.678  1.0899 -2.6422 -0.3897
49781SOL     OW54153   7.113   6.861   3.511  0.0409  0.6341 -0.2830
49781SOL    HW154154   7.152   6.828   3.593 -1.7051  0.8773  0.7117
49781SOL    HW254155   7.177   6.923   3.477  0.7758  0.6136  0.9696
49782SOL     OW54156   5.378   4.577   4.815 -0.0960  0.4133 -0.1230
49782SOL    HW154157   5.453   4.636   4.822 -1.1034  1.6180  0.9892
49782SOL    HW254158   5.308   4.620   4.864 -1.2053 -1.2053 -0.1867
49783SOL     OW54159   4.483   3.201   3.464 -0.0991  0.0599 -0.3610
49783SOL    HW154160   4.531   3.194   3.381 -1.5378 -0.0183 -1.2185
49783SOL    HW254161   4.519   3.131   3.518 -0.1992 -0.8997 -1.4926
49784SOL     OW54162   2.300   7.432   7.359 -0.2204  0.1693 -0.0710
49784SOL    HW154163   2.287   7.360   7.420  1.8271 -2.0265 -2.0036
49784SOL    HW254164   2.270   7.398   7.274  0.4699  1.7144 -0.9873
49785SOL     OW54165   0.666   3.070   5.673 -0.2374  0.1346 -0.1920
49785SOL    HW154166   0.696   2.982   5.653 -0.0365  0.3814 -1.0535
49785SOL    HW254167   0.578   3.058   5.709  0.8188 -0.5969  2.3845
49786SOL     OW54168  11.336   3.855   5.459 -0.0753 -0.3446 -0.4026
49786SOL    HW154169  11.328   3.791   5.388 -0.1084  0.6140 -1.2924
49786SOL    HW254170  11.355   3.803   5.537  2.0599 -1.3012 -1.4718
49787SOL     OW54171   5.302   1.049   3.253 -0.0531 -0.0765 -0.8534
49787SOL    HW154172   5.265   1.132   3.282 -1.3335 -0.5071 -1.2037
49787SOL    HW254173   5.383   1.039   3.304 -1.0957  0.2516  0.9269
49788SOL     OW54174   8.224   5.107  10.206  0.0502 -0.3027  0.0080
49788SOL    HW154175   8.157   5.093  10.139 -1.1698  1.9591  0.6335
49788SOL    HW254176   8.282   5.174  10.169 -0.6487  0.9898  1.1394
49789SOL     OW54177   0.183   6.675   5.107  0.1618 -0.4564 -0.3360
49789SOL    HW154178   0.167   6.659   5.200  1.6529  2.2547  0.5006
49789SOL    HW254179   0.269   6.636   5.091  0.8819  0.8864  0.0505
49790SOL     OW54180   0.641  11.606   8.411  0.3322  0.2101  0.6768
49790SOL    HW154181   0.560  11.563   8.437 -0.6842  1.9112  0.5034
49790SOL    HW254182   0.644  11.686   8.464  1.3636  0.6755 -0.0456
49791SOL     OW54183   3.742  11.436   7.838 -0.0025 -0.6615  0.0144
49791SOL    HW154184   3.794  11.454   7.760 -0.8563  0.9169 -0.2177
49791SOL    HW254185   3.734  11.340   7.839  2.3141 -0.9275 -0.2786
49792SOL     OW54186   5.635   5.501   8.188 -0.0597 -0.5947 -0.1547
49792SOL    HW154187   5.675   5.419   8.159  0.1169  0.4334 -3.1477
49792SOL    HW254188   5.542   5.490   8.168 -0.0871 -0.2192 -0.2383
49793SOL     OW54189   0.157   9.833   4.908 -0.1315  0.4728 -0.1510
49793SOL    HW154190   0.118   9.921   4.910  0.0854  0.5753 -0.3912
49793SOL    HW254191   0.250   9.848   4.928  0.3030  0.5236 -2.0477
49794SOL     OW54192   0.656   6.273   5.158 -0.2037  0.1337  0.8757
49794SOL    HW154193   0.642   6.259   5.251  2.1953  1.3412  1.5032
49794SOL    HW254194   0.656   6.369   5.147  0.9289  0.0616 -0.0590
49795SOL     OW54195   2.910   8.495   0.959  0.1181  0.0217 -0.8926
49795SOL    HW154196   2.926   8.503   0.865  2.9814 -2.4721 -0.7696
49795SOL    HW254197   2.984   8.539   1.001 -0.3868 -0.0751  0.1525
49796SOL     OW54198   5.878   0.060   5.013  0.5470 -0.2248  0.2203
49796SOL    HW154199   5.826  -0.014   4.982  1.9847 -0.8147 -0.8839
49796SOL    HW254200   5.952   0.020   5.059  0.8906  0.5427  0.3550
49797SOL     OW54201   5.973   1.956   5.223 -0.3925 -0.0161  0.4319
49797SOL    HW154202   6.028   2.025   5.183  0.3047 -2.0743 -2.4810
49797SOL    HW254203   6.036   1.897   5.265 -0.7760 -0.1321  0.8467
49798SOL     OW54204  10.537   4.208   9.813  0.5067  0.2719 -0.4436
49798SOL    HW154205  10.525   4.175   9.903 -3.3595 -0.8751 -1.1899
49798SOL    HW254206  10.523   4.131   9.758 -0.8473  1.6421 -2.0992
49799SOL     OW54207   9.659  10.609   7.335 -0.1427  0.2617  0.1105
49799SOL    HW154208   9.636  10.594   7.243  0.8791  0.0319 -0.1122
49799SOL    HW254209   9.679  10.521   7.369  1.3966  0.5584  0.0210
49800SOL     OW54210   6.244   2.204   6.688 -0.5559  0.1698  0.2147
49800SOL    HW154211   6.219   2.158   6.607  1.2526  2.0178 -1.5120
49800SOL    HW254212   6.165   2.251   6.713 -1.0053  0.0166 -0.8239
49801SOL     OW54213  10.968   4.690   9.235 -0.1802 -0.2256  0.1529
49801SOL    HW154214  10.984   4.600   9.206 -1.1253  0.2100 -1.9491
49801SOL    HW254215  11.052   4.735   9.222 -0.0908 -0.4815 -0.1608
49802SOL     OW54216  11.280   7.790  10.364 -0.2421  0.3123  0.2219
49802SOL    HW154217  11.272   7.695  10.365 -1.3764  0.3909  1.9364
49802SOL    HW254218  11.222   7.819  10.294 -0.1553 -0.2307 -0.0762
49803SOL     OW54219   7.862   8.519   1.720  0.2449  0.2606 -0.2552
49803SOL    HW154220   7.889   8.470   1.642  0.2212  0.2456 -0.2536
49803SOL    HW254221   7.906   8.475   1.792  0.4686  0.4278 -0.2863
49804SOL     OW54222   8.520   9.290   3.499  0.3690  0.6173 -0.2594
49804SOL    HW154223   8.484   9.367   3.543 -1.4299 -0.2805 -0.0841
49804SOL    HW254224   8.612   9.312   3.486  0.0595  2.5329  0.3575
49805SOL     OW54225   7.819   4.519   4.241  0.1720 -0.5543 -0.2039
49805SOL    HW154226   7.880   4.490   4.309  0.0618  1.3325  0.7480
49805SOL    HW254227   7.743   4.462   4.252 -0.1144  0.1228  1.7364
49806SOL     OW54228   3.858   0.331   9.450 -0.0896  0.6582  0.1858
49806SOL    HW154229   3.841   0.316   9.543 -1.1975  2.7960  0.3980
49806SOL    HW254230   3.952   0.351   9.446  0.1077 -0.1372  0.7337
49807SOL     OW54231  10.578  11.756  11.763 -0.2056 -0.3717  0.2038
49807SOL    HW154232  10.587  11.663  11.783 -0.5712 -0.3706  0.3762
49807SOL    HW254233  10.609  11.764  11.672 -1.5497 -0.9085 -0.3218
49808SOL     OW54234   1.960   5.165   1.053 -0.3529 -0.5091  0.2811
49808SOL    HW154235   1.889   5.222   1.084 -0.6700 -0.3655 -0.6971
49808SOL    HW254236   1.962   5.093   1.117 -0.2625  0.3373  1.2674
49809SOL     OW54237   5.854  11.844   1.251  0.7916 -0.0160 -0.2436
49809SOL    HW154238   5.946  11.864   1.237  0.7110 -0.2286 -1.1145
49809SOL    HW254239   5.811  11.865   1.168  0.2390 -0.9785 -0.2281
49810SOL     OW54240   2.529  10.646   1.186  0.4188 -0.5391  0.5876
49810SOL    HW154241   2.563  10.732   1.212  0.8072 -1.1768  2.3060
49810SOL    HW254242   2.578  10.624   1.107  0.5493  0.6674  0.3040
49811SOL     OW54243  10.993   3.239   0.737 -0.0117  0.6023 -0.1829
49811SOL    HW154244  11.046   3.235   0.816  0.0266 -0.5642 -0.2572
49811SOL    HW254245  11.012   3.157   0.691  0.5309  1.5549 -1.7707
49812SOL     OW54246  12.174  10.546   6.257  0.0283 -0.1882 -0.0389
49812SOL    HW154247  12.101  10.483   6.254  0.7991 -1.0886 -0.2847
49812SOL    HW254248  12.187  10.563   6.350 -0.7702  0.3118 -0.0095
49813SOL     OW54249   9.573   9.206   0.080  0.3834  0.4888 -0.0352
49813SOL    HW154250   9.636   9.147   0.123  0.2334  1.7612  2.0359
49813SOL    HW254251   9.495   9.201   0.134 -0.3461  1.0388 -1.0188
49814SOL     OW54252   8.813   2.901   2.613  0.1134  0.1708 -0.1565
49814SOL    HW154253   8.847   2.846   2.684  1.0292 -2.7200 -2.6367
49814SOL    HW254254   8.753   2.844   2.565 -0.0072  1.7886 -2.0648
49815SOL     OW54255   2.866   4.794  10.019  0.2478 -0.1141  0.4397
49815SOL    HW154256   2.904   4.848  10.089 -1.2574 -1.0126  2.0079
49815SOL    HW254257   2.813   4.729  10.065 -0.7354 -0.7801 -1.5510
49816SOL     OW54258   3.630  12.500   4.196 -0.4336  0.1312  0.7323
49816SOL    HW154259   3.585  12.552   4.263 -1.1447 -0.0460  0.4073
49816SOL    HW254260   3.560  12.451   4.153  0.1626 -0.6685  0.6537
49817SOL     OW54261   6.258   9.557   3.961 -0.2721  0.4587  1.2830
49817SOL    HW154262   6.315   9.617   3.912  0.3640  1.2630  2.9052
49817SOL    HW254263   6.189   9.533   3.900  1.2760  0.2301 -0.4457
49818SOL     OW54264   7.052   0.101   8.868  0.2221  0.5700 -0.2511
49818SOL    HW154265   7.117   0.080   8.935  0.7826  0.8236 -0.7116
49818SOL    HW254266   7.023   0.190   8.890  0.1237  0.5109 -0.1323
49819SOL     OW54267   7.942   2.650   0.191 -0.2225  0.0470 -0.0183
49819SOL    HW154268   7.887   2.578   0.159  1.2922 -0.4591 -1.6383
49819SOL    HW254269   7.964   2.624   0.281 -2.1420  0.0136  0.4884
49820SOL     OW54270   9.342   6.256   6.597  0.0827  0.4759  0.3022
49820SOL    HW154271   9.252   6.261   6.565  0.2723  0.6869 -0.2088
49820SOL    HW254272   9.396   6.273   6.520  0.5556  0.7077  0.6804
49821SOL     OW54273   3.802   2.226   8.809  0.0153  0.5736 -0.3343
49821SOL    HW154274   3.858   2.186   8.742  0.4682 -2.0517  1.4445
49821SOL    HW254275   3.864   2.264   8.871 -0.1431 -0.9958  0.8495
49822SOL     OW54276   4.011   7.696   3.152 -0.2780 -0.3843  0.3892
49822SOL    HW154277   3.947   7.627   3.140 -1.1128  0.3007  0.8002
49822SOL    HW254278   4.056   7.673   3.234 -0.2650 -0.6513  0.3076
49823SOL     OW54279   3.310   8.277   7.996 -0.1156 -0.0088 -0.4317
49823SOL    HW154280   3.291   8.214   8.065 -1.6039 -1.1435 -1.8162
49823SOL    HW254281   3.335   8.224   7.921 -0.0002  1.1176 -1.2078
49824SOL     OW54282   5.438   3.541   9.399 -0.3346  0.0936 -0.4143
49824SOL    HW154283   5.411   3.549   9.491 -1.6918 -4.5684 -0.1553
49824SOL    HW254284   5.363   3.575   9.350 -0.2119  1.2694  0.1778
49825SOL     OW54285  12.620   9.116   8.669  0.1661 -0.2327  0.8858
49825SOL    HW154286  12.527   9.102   8.688  0.2725 -1.8966  0.3296
49825SOL    HW254287  12.666   9.055   8.727  0.7294 -1.6814 -0.9723
49826SOL     OW54288   4.269   3.039  11.255 -0.4358  0.0911  0.1918
49826SOL    HW154289   4.279   3.039  11.350  0.2438  0.3623  0.1295
49826SOL    HW254290   4.329   2.972  11.224 -0.8062 -0.1382 -0.0354
49827SOL     OW54291   3.834  11.171   0.315 -0.4037  0.2012  0.0181
49827SOL    HW154292   3.788  11.163   0.231 -0.3078 -0.5001  0.0271
49827SOL    HW254293   3.927  11.171   0.291 -0.3296 -1.3416  0.2048
49828SOL     OW54294  10.722   6.895  12.162 -0.4722 -0.1334  0.0246
49828SOL    HW154295  10.665   6.866  12.091 -0.0014  1.6927 -1.1741
49828SOL    HW254296  10.682   6.976  12.193  1.3586  1.1668 -0.8143
49829SOL     OW54297  11.725   3.357   8.146 -0.1448 -0.2013  0.2241
49829SOL    HW154298  11.813   3.326   8.169 -0.1832 -0.9573 -0.6046
49829SOL    HW254299  11.740   3.438   8.097  0.1649 -0.9822 -0.9973
49830SOL     OW54300   1.815  12.241   6.922 -0.1457 -0.4720  0.0804
49830SOL    HW154301   1.817  12.314   6.860 -0.2777 -0.8247 -0.3436
49830SOL    HW254302   1.829  12.163   6.868 -0.3849 -0.7934  0.4768
49831SOL     OW54303   5.349   8.983   8.963  0.2697 -0.2260 -0.7557
49831SOL    HW154304   5.269   8.971   9.015  0.6602 -0.1671 -0.1227
49831SOL    HW254305   5.420   8.976   9.027  0.8580 -1.6234 -1.5082
49832SOL     OW54306   5.654   0.277   3.603  0.5477 -0.9081 -0.6117
49832SOL    HW154307   5.598   0.347   3.571 -1.2351 -0.9192  2.1499
49832SOL    HW254308   5.626   0.199   3.555 -3.0517 -1.2274  1.6337
49833SOL     OW54309  11.971   7.529   3.251  0.2483 -0.1638  0.8976
49833SOL    HW154310  11.962   7.540   3.157  1.9907 -2.4054  0.3925
49833SOL    HW254311  11.895   7.478   3.278  0.9826 -1.6392  0.2424
49834SOL     OW54312   7.242  11.154   6.070  0.1846  0.2749  0.3535
49834SOL    HW154313   7.284  11.085   6.020 -0.1875  0.1638  0.1868
49834SOL    HW254314   7.310  11.188   6.128 -0.2818 -2.2317  2.5955
49835SOL     OW54315   0.510   2.940   9.959  0.3662 -0.1954  1.0230
49835SOL    HW154316   0.447   2.928   9.888  0.9601  1.4666  0.1700
49835SOL    HW254317   0.457   2.936  10.039 -0.7360  0.6166  0.3576
49836SOL     OW54318  10.720   7.980   8.076  0.2949 -0.4713 -0.0354
49836SOL    HW154319  10.777   8.052   8.104  1.0294 -1.5585  1.4022
49836SOL    HW254320  10.701   7.998   7.984 -1.2870  2.6939  0.7755
49837SOL     OW54321  12.456   0.092   9.147  0.0603 -0.0891 -0.0839
49837SOL    HW154322  12.500   0.170   9.114 -1.3799  1.3479  1.1826
49837SOL    HW254323  12.383   0.078   9.086 -0.0117 -0.1072  0.0055
49838SOL     OW54324  11.963  10.433   3.212  0.6217 -0.6314  0.0858
49838SOL    HW154325  11.894  10.491   3.179  0.9561 -1.5700 -2.5209
49838SOL    HW254326  11.916  10.360   3.252  0.1554 -0.1380  0.4482
49839SOL     OW54327   4.519   7.085   3.335 -0.4962  0.2298  0.0956
49839SOL    HW154328   4.586   7.133   3.287  0.1542  0.3554  1.1084
49839SOL    HW254329   4.519   7.124   3.422 -1.5218 -0.1230  0.2703
49840SOL     OW54330  10.132  11.678  11.957  0.6332 -0.5284 -0.1589
49840SOL    HW154331  10.220  11.659  11.990  0.4791  0.3859  0.8691
49840SOL    HW254332  10.085  11.711  12.034  0.2559  1.7344 -1.2660
49841SOL     OW54333   3.639   6.794   2.099  0.2527  0.3055  0.2326
49841SOL    HW154334   3.595   6.790   2.184 -1.7204 -1.1632 -0.7525
49841SOL    HW254335   3.685   6.710   2.092 -1.2296 -0.4605 -0.8932
49842SOL     OW54336   5.883   7.914   2.020 -0.4432 -0.2940  0.2729
49842SOL    HW154337   5.878   7.884   2.111 -1.5820  0.9697  0.6562
49842SOL    HW254338   5.801   7.885   1.980 -1.0724  1.2677  0.3590
49843SOL     OW54339  11.546  12.258   1.491 -0.0234  0.0281 -0.2135
49843SOL    HW154340  11.617  12.295   1.439 -0.2753  1.0291  0.1399
49843SOL    HW254341  11.470  12.313   1.472 -0.3219 -0.0945  0.5714
49844SOL     OW54342   6.768   0.916   9.795 -0.5133  0.8598 -0.0007
49844SOL    HW154343   6.715   0.990   9.767 -0.0202  0.9954 -0.6212
49844SOL    HW254344   6.838   0.911   9.729  0.8058  1.2941  1.3102
49845SOL     OW54345   6.608   1.814   0.111 -0.6575  0.5239 -0.4513
49845SOL    HW154346   6.529   1.866   0.118 -1.5265 -0.9328  1.4976
49845SOL    HW254347   6.577   1.725   0.094  0.4848 -0.1650  0.8296
49846SOL     OW54348   5.229   4.449   3.712 -0.4607 -0.4641 -0.5437
49846SOL    HW154349   5.318   4.465   3.744 -1.3604 -0.0530  1.9865
49846SOL    HW254350   5.240   4.382   3.644  1.7848 -0.2121 -0.5309
49847SOL     OW54351   9.325   2.216   8.286 -0.1506  0.5456  0.0501
49847SOL    HW154352   9.233   2.213   8.262 -0.2017  0.0278  0.2991
49847SOL    HW254353   9.326   2.218   8.381  0.0839  1.2651  0.0420
49848SOL     OW54354   9.444   4.382   7.601  0.4180 -0.4154 -0.0974
49848SOL    HW154355   9.449   4.358   7.694  2.1207  0.8552  0.1792
49848SOL    HW254356   9.394   4.463   7.599  0.0108 -0.6674 -0.3538
49849SOL     OW54357   8.465   5.335   0.332 -0.2065 -0.0716  0.3678
49849SOL    HW154358   8.455   5.310   0.240  0.2076 -0.2693  0.3722
49849SOL    HW254359   8.377   5.360   0.360 -0.2655  0.3680 -0.1900
49850SOL     OW54360  11.042   0.223   0.440 -0.0734 -0.1877  0.5988
49850SOL    HW154361  11.099   0.155   0.477 -1.4318 -1.1352  1.0175
49850SOL    HW254362  11.025   0.283   0.512  2.2089  1.4384 -0.0905
49851SOL     OW54363   2.526   3.137   1.635  0.1029 -0.6244  0.2232
49851SOL    HW154364   2.548   3.063   1.579  2.4659 -1.5629  2.1936
49851SOL    HW254365   2.450   3.108   1.686  0.9605 -1.7295  0.9259
49852SOL     OW54366   6.258   0.868   1.358  0.5479  0.4464 -0.5149
49852SOL    HW154367   6.301   0.784   1.340  1.3055  0.7490 -0.1521
49852SOL    HW254368   6.230   0.861   1.450  0.1172  0.3778 -0.6517
49853SOL     OW54369   8.484   0.750  12.613 -0.4001  0.1516  0.5894
49853SOL    HW154370   8.460   0.663  12.579  1.2743 -0.2749  0.3856
49853SOL    HW254371   8.403   0.800  12.612 -0.7802 -0.3395 -2.5548
49854SOL     OW54372  11.668   5.364   1.604  0.6162  0.4649 -0.2167
49854SOL    HW154373  11.744   5.316   1.571  0.2542  0.5057 -1.1199
49854SOL    HW254374  11.704   5.446   1.637  1.2794 -0.4818  1.5499
49855SOL     OW54375   4.746   0.032   7.470  0.7646 -0.2563  0.0814
49855SOL    HW154376   4.769   0.046   7.378 -1.2254 -0.3603 -0.4628
49855SOL    HW254377   4.694  -0.048   7.471 -0.6735  0.6421  1.0342
49856SOL     OW54378   5.314  12.370  10.960 -0.5537 -0.4460  0.0591
49856SOL    HW154379   5.341  12.297  10.905 -1.3702 -0.2450 -0.6250
49856SOL    HW254380   5.268  12.429  10.901  0.9998  1.1568  0.3688
49857SOL     OW54381   9.597   4.320   5.554 -0.1608 -0.2429 -0.0227
49857SOL    HW154382   9.587   4.367   5.637  2.2551  1.9982 -0.8710
49857SOL    HW254383   9.519   4.343   5.504 -0.8358 -0.2632  0.9947
49858SOL     OW54384  10.502   0.072   4.508 -0.1470  0.4777 -0.3982
49858SOL    HW154385  10.445   0.033   4.442  0.8208 -1.7626 -0.0263
49858SOL    HW254386  10.443   0.100   4.577 -0.9376 -0.3841 -0.6979
49859SOL     OW54387   0.551   3.230   3.009  0.8345 -0.5102  0.2232
49859SOL    HW154388   0.494   3.282   2.952 -0.3433 -1.1943  0.7291
49859SOL    HW254389   0.490   3.176   3.060  1.9701 -2.8373 -0.7140
49860SOL     OW54390   6.218   1.884   9.586 -0.3399 -0.3351 -0.3522
49860SOL    HW154391   6.237   1.792   9.569  3.0681  0.2116 -0.1692
49860SOL    HW254392   6.230   1.927   9.501  0.2907  0.2009 -0.0013
49861SOL     OW54393   0.911   5.454   3.234  0.0466  0.0460 -0.1318
49861SOL    HW154394   0.837   5.514   3.241 -0.6221 -0.8483  0.6660
49861SOL    HW254395   0.872   5.367   3.222  0.9265 -0.5260  0.8991
49862SOL     OW54396   6.570   8.793   6.512  0.2240  0.2039 -0.1829
49862SOL    HW154397   6.579   8.869   6.455 -1.0435  2.1780  2.0731
49862SOL    HW254398   6.646   8.798   6.570  0.9063 -1.1257 -0.9307
49863SOL     OW54399   8.901  11.377   1.070  0.4495 -0.5195 -0.2273
49863SOL    HW154400   8.951  11.414   0.996 -0.8269  0.0121 -0.8533
49863SOL    HW254401   8.839  11.318   1.029 -0.3680 -0.1058  0.4026
49864SOL     OW54402  10.615   7.338   8.969  0.2690  0.1777 -0.0286
49864SOL    HW154403  10.597   7.361   9.060 -1.6586  1.4028 -0.6674
49864SOL    HW254404  10.608   7.421   8.922 -0.6512 -0.7191 -1.5441
49865SOL     OW54405   0.933   2.777  11.246 -0.3087  0.1435  0.9432
49865SOL    HW154406   1.025   2.789  11.272  0.0023  2.5512 -0.9121
49865SOL    HW254407   0.883   2.802  11.324  0.5862 -0.0804  1.6106
49866SOL     OW54408   7.789  12.116   8.424 -0.4048 -0.3805 -0.4641
49866SOL    HW154409   7.787  12.063   8.344  0.3520 -1.0025 -0.0829
49866SOL    HW254410   7.698  12.142   8.438 -0.5273 -0.1639 -1.5944
49867SOL     OW54411   9.064   3.905   9.420  0.2406  0.1146  1.1219
49867SOL    HW154412   9.107   3.841   9.477  1.1062 -0.4208 -0.0892
49867SOL    HW254413   8.986   3.931   9.469 -0.0835 -1.7869  1.7207
49868SOL     OW54414   8.349   1.409  11.960  0.0174  0.1989  0.3486
49868SOL    HW154415   8.418   1.439  11.901 -0.2723  1.2162  0.5063
49868SOL    HW254416   8.268   1.440  11.920 -0.6372 -3.0351 -1.1264
49869SOL     OW54417   1.657  11.285   3.760 -0.0673 -0.7081 -0.1642
49869SOL    HW154418   1.597  11.357   3.778 -0.1837 -0.6475 -0.7570
49869SOL    HW254419   1.704  11.312   3.681  2.6718  0.4639  1.7242
49870SOL     OW54420   9.557   5.426   1.997  0.3008  0.4507  0.2513
49870SOL    HW154421   9.627   5.385   2.049  0.2474  0.0886  0.0443
49870SOL    HW254422   9.536   5.361   1.930  0.7459  1.1187 -0.5627
49871SOL     OW54423   8.409  12.169   7.907 -0.0867  0.2384 -0.0009
49871SOL    HW154424   8.419  12.075   7.890 -1.3660  0.1917 -0.6277
49871SOL    HW254425   8.387  12.206   7.822 -0.9775  0.8834  0.4860
49872SOL     OW54426   6.956   2.116   1.686 -0.1776 -0.1931 -0.3943
49872SOL    HW154427   6.924   2.129   1.776  2.2782  0.2126  0.4938
49872SOL    HW254428   6.917   2.033   1.659 -2.4399  0.5611  0.3101
49873SOL     OW54429   6.705   6.951  10.342  0.1342 -0.1530 -0.1068
49873SOL    HW154430   6.700   6.941  10.247  1.3327 -0.0623 -0.1998
49873SOL    HW254431   6.794   6.923  10.364  0.7997  2.3350  0.6609
49874SOL     OW54432   6.642   0.807   0.890  0.0051  0.3770 -0.2314
49874SOL    HW154433   6.556   0.815   0.931  0.4430  4.1575  0.3622
49874SOL    HW254434   6.625   0.819   0.796 -0.2668 -0.6405 -0.3167
49875SOL     OW54435   4.358  10.336   0.908  0.2644  0.5559 -0.2852
49875SOL    HW154436   4.349  10.430   0.896 -1.2394  0.3583 -0.9663
49875SOL    HW254437   4.396  10.304   0.826 -1.7362  0.2890 -1.1821
49876SOL     OW54438   0.185   5.180   5.687  0.6598 -0.3647  0.6903
49876SOL    HW154439   0.145   5.226   5.761  0.5621  1.3990 -0.4125
49876SOL    HW254440   0.251   5.123   5.727  1.3943  1.3735  2.0582
49877SOL     OW54441   3.429  10.263   7.804  0.3198  0.0458  0.4669
49877SOL    HW154442   3.497  10.314   7.760  1.6849 -0.2691  2.1028
49877SOL    HW254443   3.412  10.311   7.886  0.9688 -1.5764  1.6010
49878SOL     OW54444   0.626   6.855  11.307 -0.0764 -0.3876  0.0655
49878SOL    HW154445   0.595   6.852  11.216 -1.1616  0.0540  0.4003
49878SOL    HW254446   0.610   6.945  11.335  1.4116 -0.1729  0.3270
49879SOL     OW54447   4.171   5.843   9.125 -0.1987  0.2849 -0.0035
49879SOL    HW154448   4.184   5.805   9.212 -0.1722 -0.6271 -0.3893
49879SOL    HW254449   4.211   5.929   9.130  1.0567 -0.3054  0.4778
49880SOL     OW54450   7.135   7.498   5.110 -0.0827  0.1122  0.7265
49880SOL    HW154451   7.181   7.519   5.191  1.1237  0.2516  0.0162
49880SOL    HW254452   7.133   7.579   5.060  0.0991 -0.2239  0.1633
49881SOL     OW54453   2.867   3.975   3.395 -0.7519  0.1411 -0.3186
49881SOL    HW154454   2.885   3.905   3.457  0.6609  1.0218  0.2942
49881SOL    HW254455   2.905   4.053   3.434  0.6204  0.6447 -2.5054
49882SOL     OW54456  11.762   7.097  10.487 -0.0933  0.1913 -0.3013
49882SOL    HW154457  11.843   7.081  10.437 -0.0302 -0.7332  0.0745
49882SOL    HW254458  11.695   7.110  10.420  0.2720  0.4700 -0.6195
49883SOL     OW54459  11.734   3.469   3.826 -0.3320  0.6545  0.3124
49883SOL    HW154460  11.775   3.401   3.773 -1.0609  0.1428  0.3797
49883SOL    HW254461  11.763   3.451   3.916  1.9318  2.2829 -0.0244
49884SOL     OW54462   9.967   9.078   9.714 -0.2523 -0.2591 -0.3177
49884SOL    HW154463   9.953   9.165   9.749  0.7044  0.0522 -0.6649
49884SOL    HW254464  10.043   9.044   9.762  0.6084 -0.1200 -1.5191
49885SOL     OW54465  10.453   9.473   4.198  0.2076 -0.4838 -0.0747
49885SOL    HW154466  10.502   9.413   4.255  1.8130 -0.9391 -1.8305
49885SOL    HW254467  10.395   9.521   4.257  1.8577 -0.8527  1.9418
49886SOL     OW54468   1.177  11.585   0.489 -0.2292 -0.2472 -0.5071
49886SOL    HW154469   1.192  11.538   0.571 -1.5068 -1.4450 -0.9155
49886SOL    HW254470   1.233  11.540   0.425 -0.5063 -0.4132 -0.6357
49887SOL     OW54471  12.547   4.607   2.216  0.1422  0.1999 -0.0711
49887SOL    HW154472  12.636   4.642   2.230  0.4627 -1.0816  1.3500
49887SOL    HW254473  12.508   4.606   2.304 -0.5091 -1.2447 -0.3557
49888SOL     OW54474   5.195   8.980   6.919 -0.4223  0.0270  0.0382
49888SOL    HW154475   5.100   8.989   6.912 -0.2472  1.6975 -0.5002
49888SOL    HW254476   5.227   8.987   6.829  0.4490  3.3652  0.4686
49889SOL     OW54477   5.442   2.992  11.169  0.3387  0.2656 -0.0164
49889SOL    HW154478   5.440   3.030  11.257  1.7665  1.1377 -0.3320
49889SOL    HW254479   5.412   2.902  11.181 -0.0993  0.5546  1.2498
49890SOL     OW54480   4.644  10.929   6.258 -0.5610  0.1933  0.0095
49890SOL    HW154481   4.695  10.976   6.192 -0.9527  0.0660 -0.3863
49890SOL    HW254482   4.710  10.891   6.317 -0.2076  0.2200 -0.3664
49891SOL     OW54483   0.926  11.088   2.146 -0.2108 -0.0563  0.1947
49891SOL    HW154484   0.975  11.170   2.155  0.9289 -0.6974  0.0530
49891SOL    HW254485   0.881  11.078   2.230  1.5896 -0.4831  1.1633
49892SOL     OW54486   4.906   6.219   1.320  0.2736  0.1637 -0.1517
49892SOL    HW154487   4.831   6.248   1.268  0.5447 -0.0101 -0.6464
49892SOL    HW254488   4.961   6.170   1.258  0.9062  0.4845  0.1441
49893SOL     OW54489   8.732   8.671   6.454 -0.2766  0.4636  0.3010
49893SOL    HW154490   8.777   8.739   6.504  0.2005  2.9156 -3.0709
49893SOL    HW254491   8.800   8.635   6.397 -1.4001  0.1269 -0.8679
49894SOL     OW54492  11.389   9.535  10.283  0.9606 -0.1770  0.7812
49894SOL    HW154493  11.433   9.616  10.308 -0.2838  0.8270 -0.1454
49894SOL    HW254494  11.296   9.552  10.298  0.2421 -0.0336 -2.8276
49895SOL     OW54495   6.650   9.510   7.043 -0.5219 -0.3036  0.6750
49895SOL    HW154496   6.561   9.534   7.071 -0.3724 -1.2211  2.0216
49895SOL    HW254497   6.654   9.538   6.952 -1.7891  0.8450  0.9312
49896SOL     OW54498   7.155   5.280  12.116  0.4125  0.2797  0.0593
49896SOL    HW154499   7.191   5.359  12.156  0.5532 -0.0205  0.5374
49896SOL    HW254500   7.061   5.297  12.108 -0.1949 -0.7364  3.2527
49897SOL     OW54501  12.049   5.710   6.154  0.4732 -0.1560  0.2383
49897SOL    HW154502  12.075   5.654   6.227 -0.0701  1.3231  1.6082
49897SOL    HW254503  12.096   5.673   6.078  0.8604 -1.8683  1.2492
49898SOL     OW54504   4.986   1.735  10.223  0.1140 -0.8456  0.0571
49898SOL    HW154505   4.987   1.820  10.179 -0.8906 -1.7083 -1.7475
49898SOL    HW254506   4.999   1.756  10.316  2.0888  1.0671 -0.5779
49899SOL     OW54507  11.237   1.683   1.843  0.2790  0.4385  0.3263
49899SOL    HW154508  11.248   1.660   1.751  2.2051  0.3019  0.5558
49899SOL    HW254509  11.189   1.610   1.881 -0.3857  0.4262 -0.5254
49900SOL     OW54510   7.123   4.546   8.210  0.2029  0.1820  0.3882
49900SOL    HW154511   7.141   4.473   8.151  0.3893 -0.0727  0.7626
49900SOL    HW254512   7.087   4.505   8.289 -2.9351  0.6609 -0.6137
49901SOL     OW54513   2.249   8.240   1.803  0.0374 -0.2407 -0.7095
49901SOL    HW154514   2.254   8.231   1.707 -0.1296 -1.5952 -0.6138
49901SOL    HW254515   2.156   8.234   1.823  0.1395 -0.8524 -0.3955
49902SOL     OW54516  11.690   2.017   2.711  0.0671  0.1406  0.0541
49902SOL    HW154517  11.707   1.959   2.637 -0.1049  1.3592 -0.9923
49902SOL    HW254518  11.604   1.990   2.743  1.0368 -1.7805  1.2026
49903SOL     OW54519   0.039   7.329   5.081  0.0978 -0.2537  0.3333
49903SOL    HW154520   0.017   7.237   5.100  0.5701 -0.7473 -1.3312
49903SOL    HW254521  -0.039   7.378   5.107 -0.8639 -1.3457 -0.3900
49904SOL     OW54522  11.385   5.953   2.613  0.2922  0.2353 -0.2375
49904SOL    HW154523  11.392   6.045   2.587 -0.0211  0.2854 -0.1474
49904SOL    HW254524  11.292   5.933   2.604  0.3553 -0.0662 -0.2280
49905SOL     OW54525   2.436   0.408   9.304 -0.0186  0.2109  0.1767
49905SOL    HW154526   2.462   0.318   9.320 -0.3628 -0.5174 -2.7998
49905SOL    HW254527   2.345   0.402   9.275 -0.3858  1.6542  0.9328
49906SOL     OW54528  12.054   0.979   8.883 -0.1482 -0.1478 -0.1512
49906SOL    HW154529  12.051   0.921   8.959  1.7414 -2.2713 -1.5470
49906SOL    HW254530  11.967   0.971   8.843 -0.4353 -0.7684  0.5708
49907SOL     OW54531   2.498   5.281   4.910 -0.2669  0.6567  0.5372
49907SOL    HW154532   2.424   5.294   4.969 -1.0693 -1.1072 -0.0517
49907SOL    HW254533   2.482   5.340   4.837 -1.5512 -0.3154  0.0102
49908SOL     OW54534   7.926  11.690   8.179  0.3375 -0.7562  0.1307
49908SOL    HW154535   7.896  11.668   8.267 -1.8937 -0.3306 -0.4547
49908SOL    HW254536   7.925  11.607   8.132 -1.2105 -0.5867 -0.1962
49909SOL     OW54537  12.435   8.768   5.446 -0.5659 -0.3941  0.5934
49909SOL    HW154538  12.424   8.718   5.527 -1.9463 -0.6845  0.2555
49909SOL    HW254539  12.498   8.837   5.468  0.4209 -1.5201  1.4119
49910SOL     OW54540   6.229   9.020   4.329 -0.0346 -0.3497 -0.0117
49910SOL    HW154541   6.264   9.107   4.346  0.5058 -0.3881 -0.8516
49910SOL    HW254542   6.157   9.034   4.267  0.6260 -0.5724 -0.8452
49911SOL     OW54543   6.313   7.475  11.659 -0.5682 -0.1258  0.0490
49911SOL    HW154544   6.314   7.428  11.743 -1.5439  0.6326  0.5107
49911SOL    HW254545   6.324   7.407  11.593  0.4978 -0.7138  0.7864
49912SOL     OW54546   9.908   8.969  11.387  0.6904 -0.4219 -0.4426
49912SOL    HW154547   9.875   9.048  11.430  0.6186 -1.9308  2.5613
49912SOL    HW254548  10.003   8.983  11.382  0.4219  0.9616 -2.5341
49913SOL     OW54549   4.132   9.990   5.420 -0.2432 -0.3475  0.9099
49913SOL    HW154550   4.126   9.896   5.402  1.3230 -0.1456 -1.1109
49913SOL    HW254551   4.119  10.031   5.335  0.5758  1.1807  1.4819
49914SOL     OW54552   5.078  12.608   7.041 -0.0036  0.3253 -0.0144
49914SOL    HW154553   5.141  12.614   7.113 -3.9803  2.2588  3.7658
49914SOL    HW254554   5.055  12.699   7.023 -2.6843 -0.3130 -0.1609
49915SOL     OW54555   9.861   6.350   3.438 -0.1011  0.1552  0.3079
49915SOL    HW154556   9.875   6.390   3.524 -1.3702 -0.1931  0.7030
49915SOL    HW254557   9.798   6.407   3.395 -1.1714 -0.8461  0.4963
49916SOL     OW54558   3.930   3.587   9.374 -0.6456 -0.1519  0.2759
49916SOL    HW154559   3.876   3.509   9.364  0.6311 -1.0160 -0.1917
49916SOL    HW254560   4.020   3.554   9.374 -0.0583  1.3561 -0.3783
49917SOL     OW54561   2.199   0.071   1.938  0.7241 -0.0457  0.0290
49917SOL    HW154562   2.265   0.038   1.877  0.9206 -0.6254  0.5460
49917SOL    HW254563   2.218   0.026   2.020 -0.4119 -0.3298  0.1477
49918SOL     OW54564   6.028   1.492   4.147  0.6280 -0.0070 -0.2637
49918SOL    HW154565   6.035   1.584   4.120 -1.1390 -0.1168 -1.2857
49918SOL    HW254566   6.017   1.444   4.065  0.9030 -1.0653  0.3072
49919SOL     OW54567   6.768   0.552   5.813  0.9199 -0.7696  0.1297
49919SOL    HW154568   6.762   0.537   5.719 -1.5718  0.3868  0.0199
49919SOL    HW254569   6.704   0.492   5.851  0.7356 -0.1014  0.9146
49920SOL     OW54570  10.632   3.186   0.677  0.1917 -0.2999  0.2180
49920SOL    HW154571  10.547   3.227   0.693 -0.6280 -1.6750 -0.3577
49920SOL    HW254572  10.622   3.143   0.592  1.3640 -0.7292  0.2785
49921SOL     OW54573   0.213   2.773   1.158 -0.1056  0.1789  0.7358
49921SOL    HW154574   0.209   2.678   1.171  2.5661 -0.1203 -0.0953
49921SOL    HW254575   0.305   2.795   1.170  0.0281  2.0573 -2.6468
49922SOL     OW54576   4.678   4.127   4.048 -0.0731 -0.5631 -0.1388
49922SOL    HW154577   4.620   4.051   4.039  0.8835 -1.2084 -1.0257
49922SOL    HW254578   4.708   4.145   3.959  2.0142 -0.9986  0.4294
49923SOL     OW54579   3.652   6.408   2.026 -0.5737  0.4892 -0.4042
49923SOL    HW154580   3.573   6.425   1.975 -0.4384  1.7275 -0.2531
49923SOL    HW254581   3.722   6.450   1.975 -0.0394 -0.4472 -0.4518
49924SOL     OW54582   5.732  10.247   9.581 -0.1686  0.0677  0.2725
49924SOL    HW154583   5.779  10.319   9.623  0.0811  0.3928 -0.5269
49924SOL    HW254584   5.667  10.219   9.645  2.7676 -2.1572  2.5191
49925SOL     OW54585   6.840   6.149   6.831  0.9191 -0.4740  0.3797
49925SOL    HW154586   6.925   6.127   6.870  1.3313  1.4705  0.7074
49925SOL    HW254587   6.863   6.187   6.745  0.2585 -1.3913 -0.2156
49926SOL     OW54588   0.844  10.854   4.410  0.1349  0.1401 -0.7139
49926SOL    HW154589   0.784  10.801   4.463 -0.3946  1.0655 -0.3671
49926SOL    HW254590   0.821  10.944   4.431  0.7790  0.5150 -1.5720
49927SOL     OW54591   2.024   2.804  11.860 -0.4413  0.1709 -0.5231
49927SOL    HW154592   2.002   2.791  11.767  2.9352 -1.5591 -1.2452
49927SOL    HW254593   1.998   2.721  11.902 -0.3162  0.2565 -0.2770
49928SOL     OW54594   2.652   1.763   8.404  0.3774  0.5380 -0.2199
49928SOL    HW154595   2.687   1.834   8.350 -0.6415  0.8072 -0.5458
49928SOL    HW254596   2.557   1.771   8.396  0.2392 -0.6048  0.0902
49929SOL     OW54597  10.497   6.776   2.632  0.2858 -0.4915 -0.3676
49929SOL    HW154598  10.448   6.695   2.648  1.5213 -0.9382  1.4488
49929SOL    HW254599  10.589   6.749   2.636  0.7208  0.6665 -1.7879
49930SOL     OW54600   6.772   4.552   0.606  0.1102  0.3686  0.7775
49930SOL    HW154601   6.810   4.561   0.519  2.3984 -2.6722  1.3180
49930SOL    HW254602   6.783   4.638   0.646  0.3069  1.4205 -1.3969
49931SOL     OW54603   8.635  12.564   3.521 -0.2281 -0.0768 -0.3864
49931SOL    HW154604   8.627  12.531   3.431 -0.2866 -0.2346 -0.3216
49931SOL    HW254605   8.551  12.545   3.562 -0.3687  0.4052 -0.4345
49932SOL     OW54606   8.899  10.429   4.409 -0.1277  0.1059  0.2945
49932SOL    HW154607   8.806  10.410   4.416 -0.3387  1.0698  0.3124
49932SOL    HW254608   8.918  10.485   4.485  0.6664 -0.8024  0.7887
49933SOL     OW54609  11.303   3.384   9.992  0.1295 -0.7425  0.8961
49933SOL    HW154610  11.330   3.329   9.920  1.0361  0.8658 -0.0444
49933SOL    HW254611  11.217   3.417   9.966 -0.7032 -2.1468  1.7447
49934SOL     OW54612   6.900   6.378   5.033  0.6088  0.1434  0.0100
49934SOL    HW154613   6.984   6.415   5.060  0.8013 -1.2054  1.3784
49934SOL    HW254614   6.835   6.432   5.077  0.7692  0.6378 -0.3461
49935SOL     OW54615   6.321   4.638  10.848  0.4021 -0.0174  0.0642
49935SOL    HW154616   6.374   4.693  10.791 -1.7885  1.7700 -0.3758
49935SOL    HW254617   6.324   4.551  10.807 -1.0341  1.1721 -2.8484
49936SOL     OW54618   9.970   6.673   6.230 -0.5840  0.2502 -0.0654
49936SOL    HW154619   9.911   6.681   6.304  1.2810  1.5693  1.3694
49936SOL    HW254620   9.967   6.758   6.187  1.1821  0.8190  0.8250
49937SOL     OW54621   2.813   4.464   0.760  0.1940 -0.7126  1.0537
49937SOL    HW154622   2.904   4.447   0.783  0.3126 -0.2542  0.9355
49937SOL    HW254623   2.810   4.558   0.743 -0.1461 -0.8506  0.3460
49938SOL     OW54624   1.073   0.345   9.452 -0.2705 -0.1170 -0.6805
49938SOL    HW154625   1.165   0.353   9.426 -0.8644 -0.8043 -3.3053
49938SOL    HW254626   1.051   0.430   9.491  1.6153 -0.1899  0.7177
49939SOL     OW54627   2.812   2.872   3.822 -0.9977 -0.2112 -0.0592
49939SOL    HW154628   2.896   2.900   3.784 -1.0888  1.0862  0.6504
49939SOL    HW254629   2.832   2.789   3.866 -0.3739 -0.5457 -0.9450
49940SOL     OW54630   3.847  10.924  11.538  0.1327  0.5316  0.0072
49940SOL    HW154631   3.930  10.971  11.549 -0.4750  2.0442 -1.4496
49940SOL    HW254632   3.871  10.844  11.491  0.8950  0.4160  0.5636
49941SOL     OW54633   9.387   6.021   0.238 -0.1207 -0.4353  0.2169
49941SOL    HW154634   9.376   6.047   0.146 -1.9389  0.7598  0.7415
49941SOL    HW254635   9.335   5.941   0.247  0.0053 -0.5163  0.2344
49942SOL     OW54636   6.796   2.059  12.162  0.4070  0.4165  0.3152
49942SOL    HW154637   6.827   2.149  12.153 -1.9879  1.2455 -0.4278
49942SOL    HW254638   6.711   2.067  12.205  0.1452 -1.5066  0.2456
49943SOL     OW54639   6.572  11.823   7.384 -0.4343  0.4825  0.5004
49943SOL    HW154640   6.617  11.764   7.444 -0.9654 -0.1132  0.3340
49943SOL    HW254641   6.479  11.815   7.409 -0.5628  0.8692  0.1479
49944SOL     OW54642   7.819   7.559   2.741  0.3617 -0.3726 -0.1557
49944SOL    HW154643   7.909   7.527   2.748  0.0611 -0.9568  1.3763
49944SOL    HW254644   7.813   7.628   2.807 -0.1641  0.0558 -0.6386
49945SOL     OW54645  12.128   1.020  11.320  0.2399  0.5622 -0.3767
49945SOL    HW154646  12.075   1.031  11.242 -0.5357  2.6514  0.3591
49945SOL    HW254647  12.180   1.101  11.325 -1.5677  1.7274  2.5303
49946SOL     OW54648   0.790   1.900  11.640  0.3297  0.3363  0.3634
49946SOL    HW154649   0.815   1.810  11.620  0.9169  0.3551  0.9575
49946SOL    HW254650   0.764   1.937  11.556  0.0156 -0.4052  0.1244
49947SOL     OW54651   6.707   3.027   3.035  0.3523  0.3982  0.3123
49947SOL    HW154652   6.621   2.988   3.043  0.3112  0.5692  0.7425
49947SOL    HW254653   6.710   3.093   3.104  1.2484 -0.3925  1.0639
49948SOL     OW54654  10.400   6.414   7.945  0.1774 -0.5076 -0.6599
49948SOL    HW154655  10.382   6.320   7.950 -1.4422 -0.1636  0.9703
49948SOL    HW254656  10.431   6.427   7.855 -0.3639 -2.4719 -1.1923
49949SOL     OW54657   0.040   7.118  11.155  0.3655 -0.4034  0.0596
49949SOL    HW154658   0.113   7.075  11.111  0.8279  0.5764 -0.1594
49949SOL    HW254659   0.049   7.094  11.247 -1.8439 -4.2764 -0.5125
49950SOL     OW54660   9.731   2.497   3.434 -0.0689 -0.0006  0.7024
49950SOL    HW154661   9.771   2.544   3.360  0.9467 -0.7205  0.7671
49950SOL    HW254662   9.643   2.474   3.404 -0.0987  0.7658  0.1766
49951SOL     OW54663   4.794   9.458   8.710 -0.1414 -0.4997  0.1474
49951SOL    HW154664   4.809   9.553   8.718 -2.2645 -0.1454  0.6629
49951SOL    HW254665   4.798   9.441   8.616 -0.9542  0.3563 -0.0619
49952SOL     OW54666   3.528   1.672   3.671 -0.4790 -0.0876  0.5495
49952SOL    HW154667   3.597   1.737   3.659 -0.4928  0.1471  1.6763
49952SOL    HW254668   3.572   1.588   3.661 -0.6670  0.0365 -2.1009
49953SOL     OW54669   1.920   4.215   7.687 -0.0074  0.3344 -0.1367
49953SOL    HW154670   1.828   4.234   7.705 -0.5801 -2.2946  0.2477
49953SOL    HW254671   1.961   4.211   7.773 -0.3240 -1.6749 -0.0300
49954SOL     OW54672   3.334   5.375   2.692 -0.4452 -0.2594  0.1588
49954SOL    HW154673   3.425   5.398   2.673  0.1910 -1.0807  2.0056
49954SOL    HW254674   3.282   5.432   2.634  1.1991  1.0057 -0.1342
49955SOL     OW54675   2.349  11.199  12.633 -0.0008 -0.0286  0.1310
49955SOL    HW154676   2.408  11.129  12.604 -1.0290 -0.8205 -0.0941
49955SOL    HW254677   2.392  11.279  12.602  0.6067 -0.6317 -0.6546
49956SOL     OW54678  11.686  11.803   0.043  0.0432 -0.4640 -0.1974
49956SOL    HW154679  11.749  11.736   0.017 -0.6078 -1.6389  1.0801
49956SOL    HW254680  11.659  11.777   0.131  0.4370  2.0096  0.7381
49957SOL     OW54681  10.212   9.325   9.097  0.1682  0.5399  0.3529
49957SOL    HW154682  10.300   9.324   9.136  1.6768  1.8702 -2.7064
49957SOL    HW254683  10.195   9.417   9.079 -2.8509  0.6035  2.6376
49958SOL     OW54684   0.937   6.285   5.600 -0.2566 -0.1688  0.2007
49958SOL    HW154685   0.846   6.303   5.622 -0.4664 -0.1131 -0.6700
49958SOL    HW254686   0.979   6.371   5.597 -0.6357 -0.0022 -1.2927
49959SOL     OW54687   0.611   5.585   8.326 -0.6301  0.7221  0.2113
49959SOL    HW154688   0.693   5.601   8.279 -1.0027 -2.5134 -1.8768
49959SOL    HW254689   0.624   5.500   8.368 -2.7960  0.2850  0.0876
49960SOL     OW54690  10.767   1.498   7.578 -0.4613 -0.0090  0.1052
49960SOL    HW154691  10.809   1.581   7.598  0.1568  0.4196 -2.6026
49960SOL    HW254692  10.702   1.519   7.511 -1.7685 -1.4092  0.8701
49961SOL     OW54693   4.059   3.062   2.690 -0.6294  0.1176  0.0604
49961SOL    HW154694   4.075   3.150   2.723 -1.4566  0.2700  0.0891
49961SOL    HW254695   4.138   3.013   2.711 -0.1650  0.8551  0.0408
49962SOL     OW54696   6.758  10.717   6.609 -0.2849 -0.5970 -0.0006
49962SOL    HW154697   6.852  10.712   6.627 -0.4197 -0.0862  0.8806
49962SOL    HW254698   6.747  10.667   6.528  0.8315 -0.1580 -0.4492
49963SOL     OW54699   6.183   8.651  10.023 -0.1009 -0.2468 -0.0937
49963SOL    HW154700   6.234   8.721   9.983 -1.9776 -0.3787 -3.0839
49963SOL    HW254701   6.248   8.586  10.050  1.5099  1.4883  0.3887
49964SOL     OW54702  10.010   0.790   5.368  0.3036  0.1983 -0.1258
49964SOL    HW154703  10.049   0.855   5.309 -1.5197  1.2083 -0.2848
49964SOL    HW254704  10.006   0.833   5.453  2.2253 -0.9877  0.6361
49965SOL     OW54705   7.568   8.535  10.747  0.6012 -0.2973  0.2609
49965SOL    HW154706   7.536   8.522  10.657 -1.0653  0.7606  0.6756
49965SOL    HW254707   7.621   8.614  10.742  0.4010 -0.1643  0.2342
49966SOL     OW54708  11.869   7.975   4.450  0.1284 -0.0688 -0.5858
49966SOL    HW154709  11.818   7.997   4.528  0.3926 -0.1919 -0.3752
49966SOL    HW254710  11.805   7.971   4.379  0.1502  2.1303 -0.7963
49967SOL     OW54711   6.747   2.508  11.686  0.3510  0.0529 -0.1439
49967SOL    HW154712   6.714   2.488  11.598  0.3514  1.2552 -0.4266
49967SOL    HW254713   6.668   2.511  11.740  0.2256  0.5582 -0.3522
49968SOL     OW54714  10.524   3.914   9.807 -0.2870 -0.1527 -0.1382
49968SOL    HW154715  10.509   3.897   9.900  2.0452  1.8303  0.7289
49968SOL    HW254716  10.615   3.889   9.792 -0.5783 -0.3209 -1.8893
49969SOL     OW54717   0.561   5.296  12.030 -0.2548 -0.6247 -0.3107
49969SOL    HW154718   0.609   5.313  11.949  1.0820  1.4316  0.8186
49969SOL    HW254719   0.628   5.296  12.098 -1.6612  0.9583  1.1689
49970SOL     OW54720  10.180   0.121   6.223 -0.6413 -0.0616 -0.6653
49970SOL    HW154721  10.263   0.138   6.267  0.5023  0.8676 -2.9837
49970SOL    HW254722  10.136   0.206   6.221 -0.9971 -0.2458 -0.6658
49971SOL     OW54723   5.596   2.005   7.438 -0.3229 -0.2761 -0.0521
49971SOL    HW154724   5.673   2.054   7.466  0.0093 -0.1615 -1.1235
49971SOL    HW254725   5.611   1.988   7.345 -0.6817 -1.9479  0.1576
49972SOL     OW54726  12.601   5.643   3.163 -0.1472  0.0233  0.2029
49972SOL    HW154727  12.601   5.720   3.221 -1.7794 -0.9713  1.6476
49972SOL    HW254728  12.520   5.652   3.113  1.4610  1.0950 -2.3546
49973SOL     OW54729   1.607   1.903   5.811  0.4664 -0.1887  0.9796
49973SOL    HW154730   1.609   1.915   5.906 -0.9881  3.2450  0.7102
49973SOL    HW254731   1.675   1.961   5.778 -0.5428  0.3801 -0.1462
49974SOL     OW54732   6.752   3.834   7.333 -0.6081  0.0978 -0.8339
49974SOL    HW154733   6.830   3.789   7.299  0.3951  1.1535 -0.0103
49974SOL    HW254734   6.740   3.909   7.275  0.2633  1.1008  0.2133
49975SOL     OW54735   7.389   4.227   2.800 -0.1596  0.4114  0.4208
49975SOL    HW154736   7.320   4.282   2.838 -0.3542 -0.4937  1.4238
49975SOL    HW254737   7.448   4.289   2.757  0.3125  1.5709  2.5727
49976SOL     OW54738   0.680  10.322   6.925  0.1977  0.2796  0.3338
49976SOL    HW154739   0.679  10.273   7.007  2.0129 -0.6591 -0.1515
49976SOL    HW254740   0.596  10.368   6.924 -1.3190 -2.2478  1.1692
49977SOL     OW54741  11.290  10.797   2.481  0.3981 -0.0050  0.1578
49977SOL    HW154742  11.242  10.714   2.481 -0.2306  0.3547 -0.2569
49977SOL    HW254743  11.355  10.786   2.411 -1.5358  0.8816 -1.9002
49978SOL     OW54744   2.030  11.491   1.405 -0.0696 -0.1907  0.0375
49978SOL    HW154745   2.033  11.574   1.453 -0.3989  0.3989 -0.9282
49978SOL    HW254746   1.963  11.440   1.450 -0.2546  0.2881  0.3147
49979SOL     OW54747   1.572   1.623  10.926  0.3799  0.1041  0.2779
49979SOL    HW154748   1.562   1.534  10.891 -1.0757 -0.1615  1.2382
49979SOL    HW254749   1.666   1.634  10.938  1.0381  0.3039 -3.7431
49980SOL     OW54750   3.168   8.390   1.308 -0.4932 -0.3301 -0.4674
49980SOL    HW154751   3.137   8.477   1.332 -0.2458  0.0840 -1.5647
49980SOL    HW254752   3.254   8.382   1.348 -0.4603 -0.0091 -0.4722
49981SOL     OW54753   2.935   7.221   1.410  0.3396  0.5639  0.1373
49981SOL    HW154754   2.999   7.158   1.442 -0.9296 -1.4031 -0.9877
49981SOL    HW254755   2.980   7.266   1.338  1.2573  0.9999  0.9533
49982SOL     OW54756   9.683   4.043   0.576 -0.1213 -0.5025 -0.1795
49982SOL    HW154757   9.629   4.119   0.596  0.4341  0.0513 -0.7377
49982SOL    HW254758   9.763   4.056   0.627  1.2603  0.8622 -2.4851
49983SOL     OW54759   4.783  10.175   1.118 -0.0610 -0.2749 -0.3755
49983SOL    HW154760   4.778  10.184   1.213 -0.5286  0.5459 -0.4722
49983SOL    HW254761   4.715  10.233   1.084  0.1467 -0.5038 -1.2181
49984SOL     OW54762   4.183   6.683  10.746  0.4981 -0.0129  0.1422
49984SOL    HW154763   4.106   6.628  10.729  0.3194 -0.7872  2.8599
49984SOL    HW254764   4.227   6.691  10.662 -2.6853  0.7155 -1.5990
49985SOL     OW54765   0.290   4.316   6.545 -0.2931  0.3183  0.8331
49985SOL    HW154766   0.253   4.402   6.525  1.9155  0.8459 -1.6049
49985SOL    HW254767   0.249   4.257   6.483  0.9489  0.4151 -0.1231
49986SOL     OW54768  11.783   1.603  10.457  0.2267 -0.5117  0.1079
49986SOL    HW154769  11.791   1.698  10.466 -0.0018 -0.5739  1.0996
49986SOL    HW254770  11.865   1.569  10.491  0.5181 -0.6579 -0.7193
49987SOL     OW54771  11.273   5.778   6.490  0.1207  0.0862 -0.3159
49987SOL    HW154772  11.267   5.686   6.515 -0.4450  0.0757 -0.4839
49987SOL    HW254773  11.211   5.823   6.547 -1.4743  0.0124 -1.9000
49988SOL     OW54774   6.345  10.131   7.964 -0.3781  0.4952 -0.7712
49988SOL    HW154775   6.363  10.069   7.893 -1.5594 -0.1563 -0.5264
49988SOL    HW254776   6.334  10.075   8.042 -0.0105  1.1326 -0.2508
49989SOL     OW54777   4.910   7.930   5.301  0.2325  0.0662 -0.1371
49989SOL    HW154778   4.944   7.958   5.386  0.9823 -0.5456 -0.2239
49989SOL    HW254779   4.888   7.837   5.313 -1.1669  0.3628 -0.1686
49990SOL     OW54780   6.604  12.366   8.597  0.4825 -0.5832 -0.2120
49990SOL    HW154781   6.649  12.282   8.596  1.1428 -0.2413 -0.0571
49990SOL    HW254782   6.654  12.420   8.536 -0.6604 -0.6605 -1.2458
49991SOL     OW54783  10.112   7.548   3.168  0.2977  0.2708  0.3997
49991SOL    HW154784  10.025   7.580   3.148  0.4391 -0.2176 -1.0897
49991SOL    HW254785  10.172   7.616   3.137  0.4741  0.5178  1.2386
49992SOL     OW54786   1.590   9.045   1.223 -0.0873  0.0516 -0.4004
49992SOL    HW154787   1.679   9.014   1.208  0.0127  0.1094  0.0619
49992SOL    HW254788   1.590   9.136   1.194  0.4677  0.5805  1.1804
49993SOL     OW54789  11.968   2.788  11.561  0.1089  0.2588 -0.0936
49993SOL    HW154790  11.912   2.769  11.637  1.0168 -0.4985  0.4130
49993SOL    HW254791  12.001   2.877  11.577  1.0308 -0.2353  0.9050
49994SOL     OW54792   0.066   7.421  11.127 -0.0078 -0.3264 -0.6697
49994SOL    HW154793   0.034   7.438  11.038 -1.0456 -1.1074 -0.4720
49994SOL    HW254794   0.055   7.326  11.138  1.2200 -0.4098 -0.1165
49995SOL     OW54795  11.550   0.781  11.171  0.4292 -0.4490  0.0548
49995SOL    HW154796  11.625   0.806  11.117  1.3315 -1.4447  0.7897
49995SOL    HW254797  11.539   0.687  11.155 -2.1595  0.0613 -1.8077
49996SOL     OW54798   4.283  10.882   1.739 -0.2678  0.2833 -0.4488
49996SOL    HW154799   4.239  10.880   1.823 -1.2069  3.2181 -0.7660
49996SOL    HW254800   4.357  10.942   1.751 -0.2931  0.5937 -1.6502
49997SOL     OW54801   8.459  11.464  10.423 -0.1547  0.3539  0.5115
49997SOL    HW154802   8.481  11.524  10.351 -0.6806  1.8680  1.5617
49997SOL    HW254803   8.367  11.442  10.409 -0.2208  0.5413  0.6555
49998SOL     OW54804   3.638  12.117   9.255  0.5597 -0.8019 -0.2099
49998SOL    HW154805   3.681  12.166   9.326  0.7289 -1.9978  0.5554
49998SOL    HW254806   3.691  12.136   9.177  1.1047 -0.4215  0.2423
49999SOL     OW54807   5.481   5.209   1.167  0.1283 -0.1776 -0.3886
49999SOL    HW154808   5.424   5.165   1.104 -0.4574 -3.3238  2.1316
49999SOL    HW254809   5.551   5.147   1.185  0.7313  0.9388  1.4660
50000SOL     OW54810   1.429   1.007   5.758  0.2146  0.0326 -0.5224
50000SOL    HW154811   1.373   0.990   5.681 -0.1596  0.9062 -0.4573
50000SOL    HW254812   1.389   1.083   5.800  1.1854  0.3835 -0.2033
50001SOL     OW54813   7.324   3.166   3.992 -0.1386 -0.3833  0.7238
50001SOL    HW154814   7.407   3.122   3.980 -0.8871 -1.8153  0.6336
50001SOL    HW254815   7.315   3.223   3.915  0.9387  0.1420  0.9636
50002SOL     OW54816   1.113  12.151  10.166  0.1027  0.3504 -0.1674
50002SOL    HW154817   1.195  12.180  10.126  0.6447  0.5120  1.0396
50002SOL    HW254818   1.106  12.059  10.142  0.3969  0.4562 -0.6690
50003SOL     OW54819   0.919   0.401   1.181 -0.3787  1.1987  0.1282
50003SOL    HW154820   0.895   0.465   1.114  1.4895  1.2418 -0.5667
50003SOL    HW254821   0.930   0.319   1.132 -1.5640  0.5908  0.8258
50004SOL     OW54822   0.557   7.778  10.348 -0.0605 -0.4998 -0.0545
50004SOL    HW154823   0.633   7.815  10.304 -0.6921 -0.1505 -0.8936
50004SOL    HW254824   0.525   7.710  10.287 -0.8047 -0.1801 -0.0331
50005SOL     OW54825  12.232   8.106   2.939 -0.0993 -0.2535 -0.1709
50005SOL    HW154826  12.292   8.051   2.989  0.1909  0.2164  0.0147
50005SOL    HW254827  12.160   8.123   3.000 -0.1075 -0.2956 -0.1692
50006SOL     OW54828   2.838   0.436   0.906  0.7772 -0.6122  0.1693
50006SOL    HW154829   2.905   0.469   0.846  0.1930  1.5890  0.6274
50006SOL    HW254830   2.757   0.476   0.875  0.4524  0.5551  2.3077
50007SOL     OW54831   5.115   6.526   0.656 -0.0815 -0.3305 -0.2318
50007SOL    HW154832   5.092   6.436   0.632 -0.7456 -0.2192 -0.0186
50007SOL    HW254833   5.161   6.518   0.739  0.6937 -0.5543 -0.6669
50008SOL     OW54834   4.723  12.528  10.310 -0.1662 -0.4003 -0.5008
50008SOL    HW154835   4.639  12.492  10.283 -0.4547  0.1704 -0.3677
50008SOL    HW254836   4.761  12.461  10.367 -1.0396 -0.1774  0.3607
50009SOL     OW54837   8.840  12.184   5.055 -0.3925  0.4251  0.7343
50009SOL    HW154838   8.829  12.089   5.049  2.2304  0.0997 -0.2328
50009SOL    HW254839   8.902  12.196   5.128  0.2787  1.2885  0.0411
50010SOL     OW54840   8.251   4.847   5.906  0.2775 -0.1544 -0.3376
50010SOL    HW154841   8.219   4.772   5.957 -0.4093  0.0722 -0.4367
50010SOL    HW254842   8.335   4.817   5.871 -0.9594 -1.6928 -2.1756
50011SOL     OW54843   6.732   2.514  11.333  0.6328  0.9447  0.2970
50011SOL    HW154844   6.822   2.483  11.342  0.2001 -0.2099  0.8788
50011SOL    HW254845   6.741   2.607  11.311  1.9765  0.4744 -1.4065
50012SOL     OW54846   8.987   6.810   6.777 -0.5242 -0.0385  0.1448
50012SOL    HW154847   8.992   6.734   6.719  1.1033 -0.3027  0.5764
50012SOL    HW254848   8.896   6.814   6.804 -0.6756 -1.7446 -0.0097
50013SOL     OW54849  11.021   6.111   2.764  0.3085 -0.3211 -0.3433
50013SOL    HW154850  11.104   6.089   2.723  0.6960  0.9440 -0.2938
50013SOL    HW254851  10.974   6.162   2.698 -0.3310 -0.8094 -0.2789
50014SOL     OW54852   4.859   8.947   6.354  0.2729  0.3780  0.3887
50014SOL    HW154853   4.807   9.027   6.355 -1.7019 -0.8304  1.2763
50014SOL    HW254854   4.795   8.878   6.334  1.1406 -1.3893  3.1467
50015SOL     OW54855  11.662   9.067   8.147 -0.0527 -0.0457 -0.0681
50015SOL    HW154856  11.682   9.161   8.156  0.1218  0.0250 -1.1102
50015SOL    HW254857  11.721   9.024   8.209  0.1750  0.4954  0.1000
50016SOL     OW54858   8.542   8.478   4.156  0.2708  0.3719  0.0364
50016SOL    HW154859   8.516   8.542   4.223 -1.3573 -1.3317  1.1443
50016SOL    HW254860   8.616   8.431   4.195 -0.6555 -0.5977  0.7051
50017SOL     OW54861   3.291  10.463   6.932  0.1590  0.4549 -0.7588
50017SOL    HW154862   3.203  10.491   6.906  0.2178  1.7717  0.3221
50017SOL    HW254863   3.301  10.495   7.022  0.8293 -1.8864  0.0575
50018SOL     OW54864   1.639   6.312   7.176 -0.2052 -0.2682 -0.0965
50018SOL    HW154865   1.634   6.404   7.199 -0.5287  0.3378 -2.2981
50018SOL    HW254866   1.581   6.303   7.100 -0.2998 -2.3198  0.1450
50019SOL     OW54867   2.243   0.181  11.597 -0.9435  0.1582 -0.1501
50019SOL    HW154868   2.270   0.227  11.677 -0.8247 -0.5141  0.2030
50019SOL    HW254869   2.316   0.192  11.537 -0.7001 -0.0026  0.1155
50020SOL     OW54870   9.027   8.428   5.564 -0.7457  0.5746 -0.3633
50020SOL    HW154871   9.095   8.490   5.592 -0.0503 -0.2963 -0.0819
50020SOL    HW254872   9.005   8.455   5.475  0.7472  0.2122 -0.8556
50021SOL     OW54873   7.601   4.979  11.930 -0.7517  0.5231 -0.6646
50021SOL    HW154874   7.633   5.064  11.903  1.2385  0.4644  1.2462
50021SOL    HW254875   7.664   4.916  11.896  0.2054  0.2295  1.4541
50022SOL     OW54876   5.938   7.576  12.186 -0.4778  0.7133 -0.2990
50022SOL    HW154877   5.918   7.553  12.277  1.4545 -0.5703 -0.1327
50022SOL    HW254878   5.987   7.658  12.192  0.7940 -0.0334 -0.0152
50023SOL     OW54879  12.619   2.062   3.532 -0.0372 -0.3548  0.1568
50023SOL    HW154880  12.539   2.114   3.531 -0.3038 -0.7489  0.2834
50023SOL    HW254881  12.641   2.054   3.625 -0.4574 -1.1340  0.2069
50024SOL     OW54882  10.839   4.170   5.742  0.6543 -0.5841 -0.4998
50024SOL    HW154883  10.879   4.153   5.828  0.6953 -0.2744 -0.4583
50024SOL    HW254884  10.748   4.189   5.761  0.5654 -0.9326 -0.5639
50025SOL     OW54885   5.834  11.912   8.905  0.2028 -0.3344 -0.5932
50025SOL    HW154886   5.794  11.903   8.992 -1.0823  0.5613 -1.0714
50025SOL    HW254887   5.902  11.845   8.904 -1.6329 -2.3452  0.0495
50026SOL     OW54888   3.172   1.550   1.920  0.3639 -0.0144  0.1695
50026SOL    HW154889   3.149   1.602   1.998 -0.5495  0.7110 -0.5612
50026SOL    HW254890   3.108   1.479   1.919  0.2105  0.1254 -0.0556
50027SOL     OW54891   2.887   2.865   5.331  0.1025  0.1695  0.7824
50027SOL    HW154892   2.861   2.893   5.419  0.6040 -1.2846  1.4116
50027SOL    HW254893   2.977   2.895   5.322  0.8729 -1.7239  1.7201
50028SOL     OW54894   9.887   9.440   5.798 -0.4496 -0.2132  0.6950
50028SOL    HW154895   9.943   9.503   5.753  0.4312 -0.5630  1.2640
50028SOL    HW254896   9.892   9.465   5.891 -0.7877 -0.5938  0.8222
50029SOL     OW54897   1.005  11.638   1.468 -0.0903 -0.2861  0.0081
50029SOL    HW154898   0.932  11.603   1.416 -0.0086 -0.5850  0.0930
50029SOL    HW254899   0.978  11.624   1.559  0.7889 -1.9194  0.0461
50030SOL     OW54900   9.387  12.510  10.765 -0.1293  0.2404  0.2626
50030SOL    HW154901   9.295  12.511  10.793 -0.0658  0.4149  0.4617
50030SOL    HW254902   9.434  12.553  10.836 -0.0297  1.0785 -0.3000
50031SOL     OW54903  11.450   6.006   1.305  0.1234 -0.2820  0.1047
50031SOL    HW154904  11.525   6.023   1.362 -0.3658  1.3185  0.3227
50031SOL    HW254905  11.436   6.088   1.258 -1.8885 -0.3229  0.5270
50032SOL     OW54906   0.574   3.149   4.715 -0.0086  0.1249 -0.0936
50032SOL    HW154907   0.511   3.176   4.781  0.3577  1.2513 -0.1894
50032SOL    HW254908   0.528   3.158   4.631  0.0641  0.3159 -0.1138
50033SOL     OW54909   1.887   0.644   9.571 -0.2664 -0.6538  0.0642
50033SOL    HW154910   1.930   0.719   9.612 -0.3852 -0.9439  0.7398
50033SOL    HW254911   1.804   0.678   9.538 -0.8185 -0.7058  1.3394
50034SOL     OW54912   8.198   1.317   3.085  0.0281 -0.4159 -0.2925
50034SOL    HW154913   8.242   1.305   3.001 -0.7152  1.7360 -1.0409
50034SOL    HW254914   8.268   1.340   3.146  0.4058 -0.7959 -0.5713
50035SOL     OW54915  11.373   5.573   5.363  0.1356 -0.5783  0.0519
50035SOL    HW154916  11.444   5.568   5.299 -0.1737  0.6210 -0.4108
50035SOL    HW254917  11.411   5.614   5.440 -0.0119 -0.0747 -0.1410
50036SOL     OW54918   1.956   0.054   9.561 -0.2724  0.1599 -0.1812
50036SOL    HW154919   1.940   0.149   9.558 -1.3962 -0.0064  0.1623
50036SOL    HW254920   1.986   0.038   9.651 -0.4169  0.1425 -0.1359
50037SOL     OW54921   1.966   5.192   4.509 -0.3372  0.1023  0.0403
50037SOL    HW154922   2.038   5.137   4.540 -0.2806  0.8748  1.3792
50037SOL    HW254923   1.997   5.229   4.427 -0.3029 -1.6799 -0.7852
50038SOL     OW54924   8.729   7.511   7.065  0.5336  0.0904  0.6332
50038SOL    HW154925   8.781   7.554   7.132  1.0262 -0.4396  0.6022
50038SOL    HW254926   8.690   7.436   7.110  1.4377 -0.6823  0.1762
50039SOL     OW54927   0.530   3.898   1.850 -0.0295  0.2695 -0.1031
50039SOL    HW154928   0.529   3.905   1.755 -0.8296 -0.7827 -0.1911
50039SOL    HW254929   0.443   3.927   1.877  1.2182  3.8110  0.6291
50040SOL     OW54930   8.352   8.449   5.865 -0.0763  0.3929  0.2511
50040SOL    HW154931   8.315   8.485   5.784 -1.0535  0.5176  0.7279
50040SOL    HW254932   8.429   8.503   5.882 -0.5915  1.2159  0.0725
50041SOL     OW54933   8.264   3.299  12.246 -0.3165  0.3851 -0.2098
50041SOL    HW154934   8.306   3.277  12.330  1.6901  2.0983 -0.6772
50041SOL    HW254935   8.177   3.331  12.270 -0.1800 -0.1914  1.1260
50042SOL     OW54936   7.744   7.713  11.860  0.2997 -0.1660 -0.0979
50042SOL    HW154937   7.703   7.648  11.802  0.0539  0.3960 -0.5662
50042SOL    HW254938   7.826   7.736  11.816  0.6706 -0.5861  0.3631
50043SOL     OW54939   2.680   3.236  10.250 -0.4641  0.0276 -0.1766
50043SOL    HW154940   2.712   3.271  10.167 -0.6242  0.3990 -0.0828
50043SOL    HW254941   2.750   3.179  10.281  0.0165  0.6597 -0.0834
50044SOL     OW54942   9.014   1.675  10.859 -0.5741  0.0962  0.7153
50044SOL    HW154943   9.032   1.766  10.885  0.9447 -0.2726  1.0551
50044SOL    HW254944   9.034   1.673  10.765 -1.1127  0.2246  0.5944
50045SOL     OW54945   4.513  11.610   5.865  0.2112  0.2187  0.2141
50045SOL    HW154946   4.502  11.617   5.960  1.9095  0.1407  0.4534
50045SOL    HW254947   4.565  11.530   5.853 -0.0914  0.1561 -0.8002
50046SOL     OW54948   3.468   5.591   6.786 -0.2408 -0.1185 -0.4441
50046SOL    HW154949   3.427   5.567   6.869 -1.4036  0.1494 -0.9075
50046SOL    HW254950   3.557   5.558   6.792 -0.3564 -0.2380  0.8431
50047SOL     OW54951   2.241  12.224  11.941  0.3207  0.3792  0.0562
50047SOL    HW154952   2.327  12.196  11.910  0.1344  0.0400 -0.1647
50047SOL    HW254953   2.179  12.186  11.878  0.1088  2.0773 -0.8159
50048SOL     OW54954   7.291   9.403   4.043 -0.1264 -0.3848 -0.2242
50048SOL    HW154955   7.338   9.452   3.976  0.2447  2.7333  2.1122
50048SOL    HW254956   7.204   9.442   4.045 -0.4671 -1.1435  0.4336
50049SOL     OW54957   3.416   9.446   3.987 -0.6151  0.1335 -0.2481
50049SOL    HW154958   3.328   9.416   3.964 -0.5975  1.3179 -2.0734
50049SOL    HW254959   3.408   9.542   3.989  0.4649  0.2239  0.3556
50050SOL     OW54960   7.867   9.080   6.966  0.7267 -0.2199 -0.7072
50050SOL    HW154961   7.773   9.084   6.982  0.8865 -0.0917  0.2639
50050SOL    HW254962   7.891   8.990   6.990  0.5439 -0.8923 -2.8391
50051SOL     OW54963  12.370   2.199  10.398 -0.5114  0.2010 -0.1027
50051SOL    HW154964  12.324   2.153  10.469  0.4470 -0.0890  0.3407
50051SOL    HW254965  12.312   2.189  10.323 -1.0991 -0.3166  0.4016
50052SOL     OW54966   5.091   1.476   7.770  0.2511  0.3817 -0.0103
50052SOL    HW154967   5.073   1.506   7.859 -0.7736  2.1700 -0.7703
50052SOL    HW254968   5.026   1.408   7.753  0.0808  0.4405  0.4073
50053SOL     OW54969   5.028   5.568   4.658 -0.0489 -0.3392  0.0213
50053SOL    HW154970   5.069   5.609   4.734 -0.0772  1.3625 -0.8308
50053SOL    HW254971   4.935   5.567   4.679 -0.0674  0.2187 -0.0170
50054SOL     OW54972   3.942   6.457   2.363  0.1233 -0.0937 -0.0906
50054SOL    HW154973   4.035   6.452   2.341  0.2628  0.6118  0.3009
50054SOL    HW254974   3.913   6.366   2.367  0.6246 -0.2996 -0.9147
50055SOL     OW54975   2.402   5.498   3.559 -0.3141 -0.4336  0.1663
50055SOL    HW154976   2.423   5.542   3.476  0.6060  0.4394  0.8501
50055SOL    HW254977   2.421   5.406   3.542  3.2195  0.1214  0.3792
50056SOL     OW54978   0.994   6.874   4.482  0.6702 -0.5066 -0.4593
50056SOL    HW154979   0.924   6.811   4.466  0.0535  0.6006 -2.4054
50056SOL    HW254980   1.069   6.840   4.433  0.4786 -0.0155 -1.1150
50057SOL     OW54981   0.740  10.513  10.390  0.8115  0.7839  0.0594
50057SOL    HW154982   0.744  10.521  10.485  0.4453  0.7519  0.0819
50057SOL    HW254983   0.667  10.453  10.374 -0.3476  2.2210 -0.2775
50058SOL     OW54984   6.604   7.669   9.212  0.0724 -0.1927 -0.0842
50058SOL    HW154985   6.525   7.641   9.260 -0.5055 -2.2861 -2.0807
50058SOL    HW254986   6.602   7.764   9.217 -0.9489 -0.2578  2.4215
50059SOL     OW54987   1.596   5.576   9.638  0.0913 -0.1922  0.2544
50059SOL    HW154988   1.541   5.548   9.711  0.4339 -0.9237  0.2390
50059SOL    HW254989   1.557   5.535   9.561  0.4750 -0.4580  0.1999
50060SOL     OW54990   2.673   1.118   9.959  0.2589 -0.2235 -0.0550
50060SOL    HW154991   2.739   1.072   9.907  0.2189 -1.5224  1.0166
50060SOL    HW254992   2.724   1.180  10.011  0.6750 -1.3541  0.9101
50061SOL     OW54993  12.007   5.018   9.451 -0.4682 -0.1421 -0.4141
50061SOL    HW154994  12.072   4.993   9.385  0.8623  1.5388  0.1641
50061SOL    HW254995  11.941   5.067   9.402  0.0218  0.2739 -0.6734
50062SOL     OW54996   3.577   9.074   6.846 -0.3919  0.0593  0.7988
50062SOL    HW154997   3.502   9.055   6.902 -1.3540 -0.1350 -0.5172
50062SOL    HW254998   3.560   9.026   6.765  0.8084  0.5764  0.2125
50063SOL     OW54999   7.457   6.250   2.028 -0.2250 -0.0482  0.1825
50063SOL    HW155000   7.397   6.316   2.065 -0.8288 -0.2013 -0.4999
50063SOL    HW255001   7.451   6.263   1.933  0.6869 -0.1972  0.0989
50064SOL     OW55002   1.285   1.610   3.486 -0.1415  0.0653  0.1225
50064SOL    HW155003   1.257   1.550   3.417 -0.9482  0.2189  0.3104
50064SOL    HW255004   1.328   1.682   3.440 -1.5501  0.6576 -0.3151
50065SOL     OW55005   7.319   8.217   3.861  0.1928 -0.0660 -0.4424
50065SOL    HW155006   7.384   8.178   3.920  1.3489  0.2722 -1.4590
50065SOL    HW255007   7.241   8.228   3.916  0.9506 -0.5588  0.7849
50066SOL     OW55008   5.790   7.221   1.186  0.4714 -0.4414  0.5353
50066SOL    HW155009   5.714   7.171   1.158  0.8245 -0.5257 -0.2955
50066SOL    HW255010   5.754   7.306   1.214 -0.0712 -0.9760  1.5050
50067SOL     OW55011  11.758   1.399   0.800  0.0293  0.0303 -0.3811
50067SOL    HW155012  11.822   1.373   0.866 -0.1839 -0.8425 -0.5087
50067SOL    HW255013  11.688   1.443   0.850  1.7517  3.1504 -0.4597
50068SOL     OW55014   4.606   6.492   3.422 -0.5429 -0.0950  0.2820
50068SOL    HW155015   4.692   6.487   3.463 -0.3759 -2.4187 -0.1858
50068SOL    HW255016   4.557   6.554   3.475  1.5650  1.7671  0.1964
50069SOL     OW55017   0.985   2.313   7.600  0.2356  0.1758 -0.0147
50069SOL    HW155018   0.983   2.220   7.577  2.6022 -0.0642  0.4969
50069SOL    HW255019   0.970   2.359   7.517  0.7252 -0.6692 -0.5783
50070SOL     OW55020  10.103  11.860   0.892  0.0191 -0.8932  1.0347
50070SOL    HW155021  10.037  11.791   0.889  0.2305 -1.0911  0.8266
50070SOL    HW255022  10.135  11.859   0.982 -0.0097 -1.0372  1.0432
50071SOL     OW55023  12.269   8.274   2.712 -0.3904 -0.1886 -0.2764
50071SOL    HW155024  12.356   8.279   2.673  0.3994 -0.2158  1.3675
50071SOL    HW255025  12.281   8.219   2.790 -2.2176 -1.4626 -0.8345
50072SOL     OW55026  11.736   0.285  11.399 -0.0814  0.1023  0.0828
50072SOL    HW155027  11.732   0.380  11.383  0.8700  0.1815  0.2729
50072SOL    HW255028  11.829   0.266  11.406 -0.3100 -0.5635  1.7243
50073SOL     OW55029   5.055   5.143   8.264  0.3771  0.1848 -0.1991
50073SOL    HW155030   5.061   5.061   8.215 -0.9479  0.4127 -0.8044
50073SOL    HW255031   5.036   5.209   8.197 -0.3114  0.6868  0.4778
50074SOL     OW55032  11.874  11.391   3.988 -0.6401  0.3325 -0.2028
50074SOL    HW155033  11.914  11.417   4.071  1.9939 -0.3814 -1.1529
50074SOL    HW255034  11.856  11.474   3.943 -2.5144  0.7373  1.2162
50075SOL     OW55035   0.583   2.749   4.651 -0.0192 -0.2431 -0.3452
50075SOL    HW155036   0.627   2.756   4.567  1.7072  0.5856  0.5923
50075SOL    HW255037   0.564   2.839   4.677 -2.1254 -0.5565 -0.6043
50076SOL     OW55038  11.196   7.140   4.231  0.4234  0.3137  0.5180
50076SOL    HW155039  11.112   7.100   4.208  0.2466  1.3162 -0.6298
50076SOL    HW255040  11.185   7.233   4.213  1.7814  0.4624  0.3598
50077SOL     OW55041   3.450   2.456   1.988 -0.2837 -0.2122  0.0266
50077SOL    HW155042   3.508   2.467   2.063 -1.6564  2.3835  0.8275
50077SOL    HW255043   3.381   2.521   2.001 -1.5992 -0.9417 -2.5544
50078SOL     OW55044  11.836   3.639   5.656 -0.1477 -0.5088 -0.3520
50078SOL    HW155045  11.834   3.730   5.686  0.2447 -0.4258 -0.5659
50078SOL    HW255046  11.772   3.636   5.585 -0.7755 -0.6066  0.2093
50079SOL     OW55047   7.977   8.722   6.416 -0.6484  0.5622  0.2157
50079SOL    HW155048   7.894   8.765   6.396 -0.6665  0.3833 -0.0964
50079SOL    HW255049   7.968   8.634   6.379 -1.3577 -0.4060  2.4550
50080SOL     OW55050   9.438   9.397   1.295 -0.6121  0.2936 -0.1564
50080SOL    HW155051   9.525   9.378   1.332 -0.9015 -1.5999 -0.3855
50080SOL    HW255052   9.454   9.466   1.231  0.2396  2.1519  1.9173
50081SOL     OW55053   3.538   6.077   6.095  0.2526 -0.2079 -0.0236
50081SOL    HW155054   3.570   6.053   6.181 -0.3679 -0.9005  0.0164
50081SOL    HW255055   3.618   6.095   6.044  0.6345  2.9523  1.4095
50082SOL     OW55056  12.482   9.610   8.261  0.0547  0.1173 -0.4212
50082SOL    HW155057  12.502   9.675   8.328  0.2527 -0.5916  0.2114
50082SOL    HW255058  12.453   9.662   8.186  1.4311  1.0046 -0.3672
50083SOL     OW55059   4.280  11.352   6.013  0.2156  0.5098 -0.2199
50083SOL    HW155060   4.312  11.353   5.923 -0.7119  0.0215 -0.5694
50083SOL    HW255061   4.269  11.259   6.034 -0.1444  0.6386  0.1773
50084SOL     OW55062   1.168   4.918   4.069 -0.0717  0.2725  0.6231
50084SOL    HW155063   1.216   4.992   4.032  1.4436 -0.9947 -0.0855
50084SOL    HW255064   1.077   4.933   4.044  0.0481  2.3135  1.2485
50085SOL     OW55065   6.579   8.751  11.191  0.3192 -0.3284  0.5029
50085SOL    HW155066   6.651   8.697  11.223 -0.4341 -0.0460  2.9412
50085SOL    HW255067   6.521   8.689  11.146  0.7814 -1.0738  0.9077
50086SOL     OW55068  10.475   1.469  10.997  0.1837  0.0680  0.1738
50086SOL    HW155069  10.539   1.531  11.031 -2.1578  0.8218  3.7637
50086SOL    HW255070  10.417   1.522  10.943  0.4140  0.1668  0.0239
50087SOL     OW55071   6.562   1.649   8.133  0.4652 -0.7253 -0.9041
50087SOL    HW155072   6.579   1.724   8.191 -0.1818 -1.1144 -0.1938
50087SOL    HW255073   6.646   1.603   8.128  0.9894  0.2895 -1.7200
50088SOL     OW55074  11.757   9.862   1.764  0.4248 -0.3989 -0.0174
50088SOL    HW155075  11.708   9.893   1.841  1.2906 -0.1461  0.4415
50088SOL    HW255076  11.750   9.767   1.767 -0.0479 -0.3646  0.0373
50089SOL     OW55077  10.083   4.790  11.375  0.0395 -0.7674  0.0263
50089SOL    HW155078  10.111   4.817  11.287  2.8713  1.0720  1.3427
50089SOL    HW255079  10.153   4.734  11.406  0.2814  0.4856  1.9104
50090SOL     OW55080  10.014  11.699  10.951 -0.4032  0.1678 -0.1101
50090SOL    HW155081  10.102  11.688  10.913  0.0809  0.0058  1.0122
50090SOL    HW255082   9.960  11.635  10.904 -0.1153  0.8040 -1.3565
50091SOL     OW55083   8.755   8.515   9.547  0.3656 -0.3348 -0.8558
50091SOL    HW155084   8.738   8.485   9.637 -0.6859 -0.1026 -0.9752
50091SOL    HW255085   8.751   8.610   9.552  1.2256 -0.2803 -0.9802
50092SOL     OW55086   2.028   2.541   7.197 -0.2609  0.1987  1.1748
50092SOL    HW155087   1.946   2.509   7.234 -1.2411  1.8413  0.5120
50092SOL    HW255088   2.061   2.603   7.261 -0.0472  0.2908  0.9766
50093SOL     OW55089   4.304  11.366   1.474  0.7898 -0.6598  0.3923
50093SOL    HW155090   4.231  11.315   1.439 -0.1802 -0.4050  1.9398
50093SOL    HW255091   4.305  11.445   1.422  0.3958 -0.9694 -0.0957
50094SOL     OW55092   2.617  10.425   9.133  0.1599  0.4692 -0.3679
50094SOL    HW155093   2.667  10.403   9.212  1.8671  1.9741 -0.9685
50094SOL    HW255094   2.674  10.400   9.061 -1.5842 -1.3634 -1.2185
50095SOL     OW55095   5.641   9.191   1.966  0.1997  0.2517 -0.4612
50095SOL    HW155096   5.728   9.216   1.934  0.7235 -0.7592  0.0928
50095SOL    HW255097   5.645   9.203   2.060  0.9380 -2.9072  0.0445
50096SOL     OW55098   3.864   8.074  11.919 -0.0277  0.3160 -0.1511
50096SOL    HW155099   3.776   8.112  11.925 -0.3572 -0.5493  0.7327
50096SOL    HW255100   3.909   8.129  11.854 -1.6069  0.0025 -1.5869
50097SOL     OW55101   5.124  11.180   6.541 -0.1010 -0.5501  0.4081
50097SOL    HW155102   5.143  11.146   6.453  0.7542 -0.4301  0.5320
50097SOL    HW255103   5.029  11.189   6.543 -0.0942  0.0484 -0.7317
50098SOL     OW55104   9.837  11.226  11.170 -0.2821 -0.2072  0.0561
50098SOL    HW155105   9.828  11.320  11.154 -0.0067 -0.2255 -0.2131
50098SOL    HW255106   9.893  11.221  11.248  1.2076 -0.1638 -0.9639
50099SOL     OW55107   2.284   3.069  12.039 -0.2837  0.5502  0.2360
50099SOL    HW155108   2.342   3.065  11.963  0.1731  1.4313  0.5222
50099SOL    HW255109   2.198   3.043  12.005  0.1123  0.0063 -0.3681
50100SOL     OW55110  11.792   6.277  11.265 -0.8434 -0.2437 -0.0036
50100SOL    HW155111  11.798   6.358  11.215  1.4355 -2.2702 -3.4670
50100SOL    HW255112  11.867   6.279  11.325 -0.5513  0.0527 -0.3739
50101SOL     OW55113   7.051   3.482   8.967 -0.6335  0.3591 -0.2264
50101SOL    HW155114   7.038   3.518   8.879 -2.4603 -0.1620 -0.2097
50101SOL    HW255115   6.995   3.404   8.969  0.4465 -0.4298  0.9505
50102SOL     OW55116   5.564  10.623   2.257 -0.0953  0.6137  0.1995
50102SOL    HW155117   5.503  10.676   2.307  0.3809  2.8816 -1.4229
50102SOL    HW255118   5.518  10.603   2.176  0.0405 -0.8181  0.4478
50103SOL     OW55119   2.889   3.065  10.338  0.0107 -0.3461  0.7842
50103SOL    HW155120   2.842   2.996  10.385 -1.4535  1.0045  1.3661
50103SOL    HW255121   2.962   3.088  10.397  0.1792 -0.9847  0.8372
50104SOL     OW55122   6.390   1.820  12.017 -0.9988  0.4255  0.0807
50104SOL    HW155123   6.363   1.753  12.080 -1.1158 -0.2038 -0.6305
50104SOL    HW255124   6.482   1.800  11.999 -0.6410  1.2688  0.8640
50105SOL     OW55125   8.481   9.253   3.224  0.5633 -0.2276  0.4324
50105SOL    HW155126   8.465   9.258   3.318 -0.2505 -0.2496  0.3013
50105SOL    HW255127   8.397   9.229   3.186  0.7761  0.2048 -0.3441
50106SOL     OW55128  10.188  10.673  12.335 -0.4264  0.0924 -0.0639
50106SOL    HW155129  10.107  10.641  12.296 -0.1443  0.2223 -0.7715
50106SOL    HW255130  10.170  10.765  12.357 -0.3986  0.1848 -0.4263
50107SOL     OW55131  10.022   7.305   3.498 -0.3992  0.5740  0.0510
50107SOL    HW155132  10.009   7.212   3.518 -0.4865  0.3210 -1.1108
50107SOL    HW255133  10.081   7.305   3.423 -0.6929  1.4550 -0.1906
50108SOL     OW55134   8.066   0.680   8.646 -0.2079 -0.3378 -0.0602
50108SOL    HW155135   8.157   0.706   8.637 -1.0630  2.6669 -1.1732
50108SOL    HW255136   8.039   0.714   8.731  0.1939 -3.1899  1.3240
50109SOL     OW55137   2.689   6.400   0.434 -1.2228  0.2166  0.0910
50109SOL    HW155138   2.701   6.422   0.342 -2.3321  0.8128  0.0693
50109SOL    HW255139   2.768   6.352   0.458 -0.4368  0.9907 -0.8819
50110SOL     OW55140   1.264   0.268  11.889  0.5012  0.1637  0.4162
50110SOL    HW155141   1.295   0.202  11.951  1.3887 -0.1614 -0.3527
50110SOL    HW255142   1.342   0.294  11.841  0.0977  1.5109  0.4435
50111SOL     OW55143   8.559   5.215   4.469 -0.5596 -0.2635  0.3454
50111SOL    HW155144   8.489   5.277   4.448 -2.4618 -1.9439  1.2389
50111SOL    HW255145   8.604   5.200   4.387 -1.7772  0.3130 -0.4553
50112SOL     OW55146   2.387   4.800   0.238  0.1114  0.3035  1.0987
50112SOL    HW155147   2.475   4.763   0.246 -0.2144 -0.5106  0.9652
50112SOL    HW255148   2.395   4.889   0.274  0.9577  0.1944  1.1935
50113SOL     OW55149   5.567   6.817   5.655 -0.1215  0.0926 -0.0442
50113SOL    HW155150   5.585   6.907   5.683  0.3910  0.4788 -1.5351
50113SOL    HW255151   5.478   6.819   5.621  0.3270  0.3430 -1.2346
50114SOL     OW55152   2.728   4.394   8.996  0.0704 -0.3200 -0.2263
50114SOL    HW155153   2.713   4.328   8.928  0.1566  0.1441 -0.6967
50114SOL    HW255154   2.650   4.450   8.994 -1.9672 -2.6718  2.8576
50115SOL     OW55155   3.991   2.515   1.657 -0.8342 -0.0593  0.1684
50115SOL    HW155156   3.916   2.567   1.628  0.8505  2.7663  0.5114
50115SOL    HW255157   4.067   2.573   1.644  1.2602 -2.5967  0.2719
50116SOL     OW55158   9.916   3.945   1.525 -0.0789  0.5707 -1.0262
50116SOL    HW155159   9.924   3.987   1.611 -0.3576  2.8992 -2.0404
50116SOL    HW255160   9.960   3.860   1.535  1.9474  1.7127  0.7994
50117SOL     OW55161   8.145   0.701   1.624 -0.1353 -0.2182  0.0981
50117SOL    HW155162   8.221   0.727   1.572 -0.3635 -0.5846 -0.4266
50117SOL    HW255163   8.168   0.616   1.660 -0.1611 -0.1706  0.2284
50118SOL     OW55164   7.483  11.786   6.156 -0.2693  0.4038  0.3190
50118SOL    HW155165   7.438  11.703   6.171 -1.0816  1.0288  1.4635
50118SOL    HW255166   7.549  11.765   6.090 -1.9364 -0.6414 -1.1095
50119SOL     OW55167   9.521   1.894   6.392 -0.2235 -0.0694  0.5465
50119SOL    HW155168   9.530   1.972   6.338  0.1654  0.3301  1.1645
50119SOL    HW255169   9.491   1.928   6.477  0.3028 -0.5466  0.9263
50120SOL     OW55170   9.985   4.969   2.365 -0.5461 -0.1275  0.1481
50120SOL    HW155171  10.029   4.990   2.282 -0.3355  0.9586  0.5206
50120SOL    HW255172   9.903   5.018   2.362 -0.8347 -0.5974  0.3062
50121SOL     OW55173   5.998   7.086   5.736 -0.0938 -0.2292  0.0995
50121SOL    HW155174   6.001   7.181   5.732  0.2178 -0.2943 -1.9457
50121SOL    HW255175   5.904   7.065   5.734 -0.1522  0.0205  0.1922
50122SOL     OW55176  11.281   0.577   3.704 -0.1648 -0.4123  0.0492
50122SOL    HW155177  11.284   0.482   3.691 -0.8562 -0.1993 -1.9934
50122SOL    HW255178  11.205   0.591   3.760  1.5928 -1.2256  2.8060
50123SOL     OW55179   8.664   9.800   7.144  0.2055 -0.1024  0.1816
50123SOL    HW155180   8.669   9.892   7.116 -0.6564 -0.2805 -0.6011
50123SOL    HW255181   8.705   9.751   7.072 -0.2723 -0.4052  0.1083
50124SOL     OW55182   2.400   1.984   1.636 -0.0211  0.5706 -0.0207
50124SOL    HW155183   2.491   1.993   1.666 -0.3246 -1.8395  1.9088
50124SOL    HW255184   2.398   2.032   1.553  2.4528  2.4582  0.8748
50125SOL     OW55185  12.461  11.291   4.401 -0.4149 -0.2414 -0.1480
50125SOL    HW155186  12.524  11.360   4.383 -0.9135 -0.3685 -2.6650
50125SOL    HW255187  12.375  11.333   4.389 -0.7973 -0.6812  0.8652
50126SOL     OW55188  10.646   8.578  12.548 -0.0221 -0.0320  0.0551
50126SOL    HW155189  10.593   8.653  12.576  1.2365  0.0276  2.5035
50126SOL    HW255190  10.586   8.525  12.495 -1.0490  2.4696 -1.4526
50127SOL     OW55191   5.281  11.049   7.309  0.4860 -0.3777  0.2541
50127SOL    HW155192   5.311  11.137   7.332  0.0725 -0.5802  1.6711
50127SOL    HW255193   5.186  11.055   7.309  0.4535 -0.4892 -1.1345
50128SOL     OW55194  10.966   9.259  10.450  0.2183 -0.0907 -0.5814
50128SOL    HW155195  10.934   9.169  10.457  3.2972 -1.1989  1.6018
50128SOL    HW255196  10.894   9.312  10.484 -0.7572 -1.9643  0.4955
50129SOL     OW55197   4.908   3.538  12.237  0.2027  0.3297  0.3172
50129SOL    HW155198   4.840   3.573  12.179  0.3699  1.1961  0.6291
50129SOL    HW255199   4.860   3.486  12.301 -0.0736  0.1707 -0.0115
50130SOL     OW55200   2.898   2.787   1.705 -0.4055  0.4632  0.0358
50130SOL    HW155201   2.845   2.825   1.775 -1.1477 -1.0926  0.3506
50130SOL    HW255202   2.865   2.827   1.625  0.1230  1.8915  0.4915
50131SOL     OW55203   2.033   5.950   3.256 -0.0366  0.4113  0.1641
50131SOL    HW155204   2.043   6.045   3.257  0.9780  0.3321 -0.5625
50131SOL    HW255205   2.079   5.922   3.176 -2.2542 -0.4985 -0.8632
50132SOL     OW55206   2.628   3.977   9.736 -0.2690 -0.1814  0.3154
50132SOL    HW155207   2.679   4.015   9.808  0.4499  0.2197 -0.3911
50132SOL    HW255208   2.597   4.053   9.686 -0.9985 -0.4480  0.3484
50133SOL     OW55209  11.736   7.078   8.140  0.4890  0.0275 -0.0020
50133SOL    HW155210  11.766   6.990   8.165 -2.1699 -0.5222  1.6625
50133SOL    HW255211  11.651   7.064   8.100  0.6188  1.7850 -0.9811
50134SOL     OW55212   8.640   2.971   0.186 -0.4039 -0.2293  0.1265
50134SOL    HW155213   8.670   2.893   0.234 -0.5027 -0.1953  0.2456
50134SOL    HW255214   8.652   2.949   0.094  0.6960  0.0599  0.1776
50135SOL     OW55215   5.433   3.190   3.789  0.2794  0.8491  0.0307
50135SOL    HW155216   5.401   3.152   3.707  1.7515 -0.1328 -0.1206
50135SOL    HW255217   5.379   3.148   3.856 -0.4241  1.0934 -0.3621
50136SOL     OW55218   5.921   0.693   1.396 -0.4499  0.1449 -0.1848
50136SOL    HW155219   5.853   0.709   1.330 -0.2040 -0.6084 -0.6236
50136SOL    HW255220   5.971   0.619   1.362 -0.3019 -0.2332  0.8363
50137SOL     OW55221   2.070   5.807  11.419 -0.1058  0.1331  0.1807
50137SOL    HW155222   2.039   5.874  11.359  1.4866  0.6056 -0.1782
50137SOL    HW255223   2.046   5.724  11.378  0.0990  0.4677 -0.6367
50138SOL     OW55224   5.412  11.478   3.324  0.6494  0.1662 -0.3647
50138SOL    HW155225   5.369  11.554   3.361  0.5558  0.0728 -0.2833
50138SOL    HW255226   5.353  11.405   3.342  1.7324 -0.3101  1.5091
50139SOL     OW55227  10.494  10.459   8.281 -0.2200  0.2306 -0.2893
50139SOL    HW155228  10.490  10.409   8.363 -0.4665  0.4472 -0.1678
50139SOL    HW255229  10.475  10.549   8.307  0.3537  0.4125 -0.4889
50140SOL     OW55230  10.860   4.764   8.416  0.3501  0.8542 -0.2390
50140SOL    HW155231  10.894   4.764   8.506  1.5405  2.1455 -0.6488
50140SOL    HW255232  10.818   4.850   8.407 -4.2523 -1.0209  0.6028
50141SOL     OW55233   4.872   2.212   1.117  0.4247 -0.0859  0.3152
50141SOL    HW155234   4.933   2.139   1.129 -1.0050 -1.2371  0.9275
50141SOL    HW255235   4.910   2.265   1.048  2.0254 -0.8530  0.5704
50142SOL     OW55236  11.536   6.622   2.729  0.2897 -0.7526 -0.1540
50142SOL    HW155237  11.522   6.645   2.637  1.8835  1.4123  0.0738
50142SOL    HW255238  11.452   6.640   2.771 -0.1110 -0.6389 -0.9688
50143SOL     OW55239   0.351   0.730  11.652 -0.0640 -0.1991 -0.0593
50143SOL    HW155240   0.338   0.794  11.583 -0.2990  0.9076  0.9732
50143SOL    HW255241   0.307   0.767  11.728  1.6246 -0.5400  1.1584
50144SOL     OW55242   4.880  11.106   8.325 -0.1809  0.3392  0.9273
50144SOL    HW155243   4.823  11.152   8.263 -2.1940 -1.3928  1.3831
50144SOL    HW255244   4.922  11.038   8.272 -2.4448 -1.6070  1.4511
50145SOL     OW55245   3.513   7.586   5.749 -0.2043  0.5981 -0.0540
50145SOL    HW155246   3.510   7.504   5.700 -0.5906 -0.6078  1.8782
50145SOL    HW255247   3.605   7.610   5.751 -0.0869  0.2170 -0.6137
50146SOL     OW55248   2.743   4.335   5.148 -0.5344  0.0989  0.6160
50146SOL    HW155249   2.687   4.329   5.225 -1.3074 -0.8600  0.0053
50146SOL    HW255250   2.776   4.246   5.135 -0.7668  0.1437 -0.4085
50147SOL     OW55251   5.129   5.329   8.925 -0.1262  0.2152  0.2947
50147SOL    HW155252   5.069   5.371   8.986 -1.0160 -1.0115  0.2997
50147SOL    HW255253   5.205   5.306   8.977 -0.1676  0.6701  0.5600
50148SOL     OW55254   3.352   9.133   3.949 -0.0689  0.4167 -0.0861
50148SOL    HW155255   3.386   9.170   4.031 -0.8903  2.4006 -0.5800
50148SOL    HW255256   3.318   9.208   3.901 -2.0771 -1.0403 -1.0931
50149SOL     OW55257   4.750  12.092  11.555  0.0476  0.1813  0.2705
50149SOL    HW155258   4.771  12.108  11.647  0.8891 -0.7581  0.2603
50149SOL    HW255259   4.746  11.996  11.548  0.7913  0.2181 -0.8386
50150SOL     OW55260   4.598  11.465   3.183 -0.5655  0.1568  0.0434
50150SOL    HW155261   4.580  11.517   3.261  1.5230 -1.2024  1.5573
50150SOL    HW255262   4.682  11.422   3.202 -0.9126 -1.6973 -2.1799
50151SOL     OW55263  12.539   8.671   7.429  0.2487 -0.0272  0.2172
50151SOL    HW155264  12.477   8.678   7.501  1.3518  0.5164  1.1532
50151SOL    HW255265  12.489   8.631   7.358 -1.2119  0.5776  0.8614
50152SOL     OW55266   6.116  11.378   0.488  0.0976  0.6979 -0.3407
50152SOL    HW155267   6.155  11.329   0.560 -1.2460 -0.2474 -0.2294
50152SOL    HW255268   6.038  11.419   0.526  0.6684  2.1488 -0.6775
50153SOL     OW55269   3.407   5.073   2.115 -0.3351 -0.3650  0.1275
50153SOL    HW155270   3.428   5.116   2.033  1.0196 -1.4908 -0.1591
50153SOL    HW255271   3.451   4.988   2.110 -2.2422 -1.4842  0.9949
50154SOL     OW55272   8.524  11.903   8.257  0.5165  0.1930 -0.1066
50154SOL    HW155273   8.603  11.947   8.288 -0.5659  0.9519  1.7679
50154SOL    HW255274   8.520  11.822   8.307 -0.3849  0.6377  0.5749
50155SOL     OW55275   0.063   6.890   2.362 -0.5579  0.0566  0.5265
50155SOL    HW155276   0.027   6.829   2.427  0.5783  0.9092  2.0227
50155SOL    HW255277   0.117   6.835   2.305 -0.3458 -0.5112  1.2482
50156SOL     OW55278  12.513   5.586   8.753  0.0120 -0.3924 -0.1688
50156SOL    HW155279  12.559   5.584   8.837  0.2794 -0.4799 -0.3137
50156SOL    HW255280  12.525   5.676   8.722  0.2767 -0.4726 -0.3070
50157SOL     OW55281   1.640   6.783   4.742  0.7015 -0.5701 -0.1948
50157SOL    HW155282   1.647   6.795   4.837 -1.1621 -0.8822  0.0176
50157SOL    HW255283   1.596   6.699   4.732 -0.4708  0.1358 -1.2829
50158SOL     OW55284   9.890   6.266   8.402 -0.1229 -0.0268 -0.0724
50158SOL    HW155285   9.895   6.249   8.307 -1.9365 -1.9562  0.0817
50158SOL    HW255286   9.962   6.216   8.439  0.6720  0.8364 -0.4181
50159SOL     OW55287  11.347   7.298   7.656 -0.0019  0.2797 -0.3884
50159SOL    HW155288  11.275   7.236   7.649 -0.7014  0.9771  0.4791
50159SOL    HW255289  11.312   7.380   7.622 -0.1431  1.0148  1.4200
50160SOL     OW55290   9.925   3.185   3.757 -0.2872 -0.5629 -0.1876
50160SOL    HW155291   9.957   3.260   3.806 -0.5779 -1.2246  1.0729
50160SOL    HW255292   9.830   3.199   3.751 -0.0775  0.2960 -1.9768
50161SOL     OW55293   0.103   6.934  12.157 -0.0831  0.6631 -0.2078
50161SOL    HW155294   0.042   6.970  12.093  0.9569  1.8523 -0.5624
50161SOL    HW255295   0.182   6.987  12.148 -0.0595  1.2010  2.3990
50162SOL     OW55296  11.194   4.921  11.139  0.4870 -0.5821  0.7628
50162SOL    HW155297  11.229   4.833  11.122  0.1085 -0.9927  2.0115
50162SOL    HW255298  11.100   4.912  11.123  0.0408 -1.1027  3.3417
50163SOL     OW55299   2.255  12.284   2.624  0.1016 -0.3241  0.6466
50163SOL    HW155300   2.344  12.313   2.606 -0.8813  2.3839 -0.3230
50163SOL    HW255301   2.222  12.345   2.690 -1.6367 -0.0050 -0.4404
50164SOL     OW55302   5.027  11.081   7.298 -0.0546 -0.1210 -0.0355
50164SOL    HW155303   4.943  11.035   7.294  0.2252 -0.7051  0.5790
50164SOL    HW255304   5.006  11.171   7.275 -1.2918  0.2997  2.3309
50165SOL     OW55305  12.094   7.724  10.640 -0.0538  0.0176  0.5607
50165SOL    HW155306  12.106   7.819  10.636 -2.8404  0.4038 -1.2174
50165SOL    HW255307  12.163   7.689  10.583  0.0228  1.1035 -0.0504
50166SOL     OW55308  11.536   9.472  10.083 -0.3385  0.0481  0.2797
50166SOL    HW155309  11.503   9.492  10.171 -0.7202  0.2160  0.1014
50166SOL    HW255310  11.615   9.525  10.075 -0.4843  0.2903  0.4013
50167SOL     OW55311  10.876   7.143   4.469  0.2532  0.0817 -0.1545
50167SOL    HW155312  10.898   7.115   4.380  1.7812  0.1023  0.1897
50167SOL    HW255313  10.811   7.212   4.457 -0.5312 -0.7914 -1.1895
50168SOL     OW55314   8.204   3.068   3.344 -0.0199 -0.1005  0.2948
50168SOL    HW155315   8.133   3.118   3.302  0.2875  1.2671  1.3526
50168SOL    HW255316   8.163   3.027   3.420  0.0771 -0.2448  0.2708
50169SOL     OW55317  12.406   5.846   2.110  0.1549  0.0827 -0.0196
50169SOL    HW155318  12.375   5.881   2.026  0.8292  1.0838  0.1430
50169SOL    HW255319  12.473   5.907   2.139  0.0186 -0.3218  1.2018
50170SOL     OW55320   1.821   2.326   4.372 -0.3269  0.2468  0.1731
50170SOL    HW155321   1.892   2.284   4.420 -1.0385  0.6233  1.6054
50170SOL    HW255322   1.833   2.298   4.281  1.7323  0.4403  0.3458
50171SOL     OW55323   9.759   1.208   8.483  0.0054  0.9818  0.1394
50171SOL    HW155324   9.835   1.192   8.540  0.8463  1.8938 -0.6989
50171SOL    HW255325   9.772   1.296   8.450 -0.2825  0.3423 -1.7667
50172SOL     OW55326  11.973   1.307  11.415 -0.2407  0.5190 -0.5146
50172SOL    HW155327  11.928   1.236  11.460 -0.0705  0.0168 -1.1179
50172SOL    HW255328  11.903   1.362  11.379 -0.3713  0.5063 -0.2808
50173SOL     OW55329   3.076  11.578   7.814  1.0320 -0.4417 -0.0328
50173SOL    HW155330   3.000  11.624   7.849  0.7205 -0.7326 -0.3243
50173SOL    HW255331   3.150  11.636   7.835  0.5536  0.6323 -1.1730
50174SOL     OW55332   5.882   5.849  10.064 -0.7306 -0.2241  0.1961
50174SOL    HW155333   5.878   5.888   9.976 -0.5037 -0.5352  0.0470
50174SOL    HW255334   5.814   5.782  10.063 -0.1703 -0.7972 -0.0238
50175SOL     OW55335   6.081   7.046  10.525 -0.0715 -0.5818 -0.1272
50175SOL    HW155336   6.113   7.073  10.439  0.4731 -1.5057 -0.2321
50175SOL    HW255337   6.159   7.022  10.574 -0.1664  1.8352  1.3757
50176SOL     OW55338  11.243   9.477  10.915  0.3032 -0.2283 -0.4438
50176SOL    HW155339  11.233   9.572  10.920 -1.0337 -0.2799 -1.6436
50176SOL    HW255340  11.335   9.464  10.893  0.7099  0.7415  0.5740
50177SOL     OW55341   1.057   1.347  11.704  0.7464 -0.1070 -0.8074
50177SOL    HW155342   1.131   1.392  11.744  0.2142  0.5328 -0.5325
50177SOL    HW255343   1.009   1.416  11.658 -0.4735 -0.2441  0.2155
50178SOL     OW55344   4.539   6.124   6.883 -0.2286 -0.4964  0.4340
50178SOL    HW155345   4.473   6.179   6.841 -1.8003 -0.7122  2.4468
50178SOL    HW255346   4.594   6.186   6.932 -1.0705 -0.5726  1.4944
50179SOL     OW55347  11.601   1.009   6.463 -0.3524  0.3514  0.5852
50179SOL    HW155348  11.525   1.005   6.521  0.5647  2.5142  2.0637
50179SOL    HW255349  11.602   1.099   6.432  1.4341  0.2724  0.3357
50180SOL     OW55350   0.877  10.160   7.988 -0.1998  0.2015 -0.3198
50180SOL    HW155351   0.831  10.244   7.993  0.1653  0.3724  0.1711
50180SOL    HW255352   0.950  10.176   7.928 -0.1953  0.1999 -0.3145
50181SOL     OW55353   0.601   3.431   1.808 -0.1930 -0.4826  0.6484
50181SOL    HW155354   0.611   3.342   1.777 -1.1587 -0.1254 -0.7863
50181SOL    HW255355   0.595   3.484   1.728  1.0645  0.9689  1.4475
50182SOL     OW55356  11.868   9.385   6.546  0.2448  0.1661 -0.1637
50182SOL    HW155357  11.892   9.471   6.580  1.2167 -0.6520  1.3248
50182SOL    HW255358  11.848   9.333   6.624  0.1832 -1.1044 -0.9967
50183SOL     OW55359   6.726   5.119   9.138  0.2982  0.1604 -0.3102
50183SOL    HW155360   6.757   5.181   9.204 -1.1203 -0.4373  0.9671
50183SOL    HW255361   6.669   5.059   9.185 -0.8720 -0.2285 -2.0999
50184SOL     OW55362  11.680  12.022   8.455 -0.6264  0.1586  0.4691
50184SOL    HW155363  11.707  12.099   8.506  0.1690  0.0722  0.1947
50184SOL    HW255364  11.585  12.022   8.461 -0.5681  0.3598  1.6603
50185SOL     OW55365   6.139  12.511   5.315 -0.6307 -1.0037 -0.4201
50185SOL    HW155366   6.199  12.444   5.282  1.6940 -0.1159  1.7218
50185SOL    HW255367   6.111  12.559   5.236 -0.0468 -2.6216 -1.6627
50186SOL     OW55368   1.013   0.243   4.315  0.5333 -0.3196  0.2447
50186SOL    HW155369   1.012   0.150   4.337 -0.6895 -0.3628  0.0774
50186SOL    HW255370   1.005   0.246   4.220  1.5102 -0.0508  0.1595
50187SOL     OW55371   2.611   7.539   4.848 -0.4572 -0.1837 -0.5247
50187SOL    HW155372   2.563   7.514   4.927 -1.5233  1.3373 -0.6417
50187SOL    HW255373   2.552   7.517   4.776 -0.1588 -0.1036 -0.7971
50188SOL     OW55374   1.356   3.539   2.890 -0.4376  1.0610  0.1518
50188SOL    HW155375   1.353   3.549   2.795  2.5637 -1.4841 -0.3504
50188SOL    HW255376   1.419   3.606   2.919 -0.0302  0.7069  0.0972
50189SOL     OW55377   8.375  12.143   5.486 -0.0579  0.3791  0.1863
50189SOL    HW155378   8.399  12.066   5.538  0.9708 -0.0428 -0.8724
50189SOL    HW255379   8.410  12.125   5.399 -1.2401  1.3281 -0.5107
50190SOL     OW55380   2.517  10.527   5.839  0.6692  0.1887 -0.1065
50190SOL    HW155381   2.508  10.573   5.755  3.4008  1.6630  0.2998
50190SOL    HW255382   2.529  10.597   5.904 -1.8510 -0.8973  1.6880
50191SOL     OW55383  11.095   1.756   4.011  0.3634 -0.7623 -0.3193
50191SOL    HW155384  11.115   1.850   4.005 -1.0522 -0.4302 -0.3315
50191SOL    HW255385  11.172   1.717   4.052  0.9667  0.4093 -0.3021
50192SOL     OW55386   4.657   8.018   2.349 -0.1594  0.0780 -0.4711
50192SOL    HW155387   4.587   8.069   2.390 -0.0940  1.1893 -1.6543
50192SOL    HW255388   4.705   7.979   2.422 -0.9606  0.7078  0.4228
50193SOL     OW55389   8.295   4.368   6.682  0.3965  0.2987  0.2230
50193SOL    HW155390   8.340   4.446   6.715  0.9670 -0.0070  0.1882
50193SOL    HW255391   8.217   4.402   6.638  0.8485  0.8796 -0.1413
50194SOL     OW55392   9.423   8.809   2.875 -0.4374  0.2888 -0.7754
50194SOL    HW155393   9.489   8.815   2.806  0.1559  1.5692 -0.1308
50194SOL    HW255394   9.431   8.718   2.907  2.4127  0.8768  0.5684
50195SOL     OW55395   0.970   6.109  10.324  0.1652 -0.2378 -0.6911
50195SOL    HW155396   1.017   6.150  10.396  0.7927  0.1446 -1.3061
50195SOL    HW255397   0.882   6.094  10.358  0.0183  1.3050 -0.3351
50196SOL     OW55398   5.321  12.378   9.040 -0.0621 -0.1157  0.0591
50196SOL    HW155399   5.377  12.447   9.005  0.2591  0.0271  0.8263
50196SOL    HW255400   5.335  12.304   8.980  2.4486 -0.7203  1.2328
50197SOL     OW55401   1.239   7.517   9.004  0.1310  0.4081 -0.1582
50197SOL    HW155402   1.145   7.522   8.984  0.0596  0.0276  0.0787
50197SOL    HW255403   1.278   7.479   8.925 -0.0800 -0.5743  0.1901
50198SOL     OW55404   0.328   5.250   5.206  0.1170  0.4693  0.5067
50198SOL    HW155405   0.252   5.231   5.262  0.3555 -1.8563  0.1478
50198SOL    HW255406   0.402   5.209   5.251  0.7584  0.7368 -0.2746
50199SOL     OW55407   2.209  10.097  10.183 -0.0367 -0.6222 -0.6143
50199SOL    HW155408   2.194  10.159  10.255 -1.8102 -1.0729 -0.5430
50199SOL    HW255409   2.122  10.081  10.147  0.6931 -1.2500 -2.1817
50200SOL     OW55410   6.465   7.153  11.083 -0.0410  0.3943 -0.3603
50200SOL    HW155411   6.432   7.223  11.139 -0.2711 -0.4024  0.5345
50200SOL    HW255412   6.415   7.161  11.001  1.2622  2.4324 -1.0285
50201SOL     OW55413   6.727   3.792   1.662 -0.1698 -0.4480  0.3085
50201SOL    HW155414   6.655   3.844   1.625  1.3007  0.5901 -1.2441
50201SOL    HW255415   6.791   3.857   1.691  1.0446 -1.3594 -0.2351
50202SOL     OW55416   1.115   7.278   6.175 -0.2209 -0.1141 -0.1885
50202SOL    HW155417   1.037   7.306   6.223  0.0601 -0.5708  0.5684
50202SOL    HW255418   1.092   7.289   6.083 -0.1314  2.5276  0.0329
50203SOL     OW55419   0.234  10.542   0.855 -0.2947 -0.0250 -0.0200
50203SOL    HW155420   0.191  10.616   0.898 -0.4218 -0.4717  0.6283
50203SOL    HW255421   0.242  10.570   0.763 -0.1568  0.8750  0.2501
50204SOL     OW55422   9.744   3.231   2.674 -0.9982  0.5436 -0.3375
50204SOL    HW155423   9.712   3.164   2.735 -0.9230  1.8260  1.1743
50204SOL    HW255424   9.668   3.287   2.657 -0.7742  0.7509 -0.6738
50205SOL     OW55425   5.655   1.782   8.110 -0.2295 -0.3628 -0.0189
50205SOL    HW155426   5.713   1.858   8.114  0.2293 -0.6317 -1.2024
50205SOL    HW255427   5.697   1.716   8.164  1.1864 -0.9286 -1.7148
50206SOL     OW55428   6.019   3.452   7.303 -1.1004 -0.3597 -0.2329
50206SOL    HW155429   5.978   3.450   7.216 -1.2772  0.9117 -0.2068
50206SOL    HW255430   5.984   3.375   7.348 -2.8986  0.2485 -0.4853
50207SOL     OW55431  11.513   2.525   9.688  0.2826 -0.4073  0.0011
50207SOL    HW155432  11.582   2.460   9.673  0.2808 -0.1585 -1.1631
50207SOL    HW255433  11.507   2.573   9.606  0.0285  0.8378  0.7305
50208SOL     OW55434   1.941   5.678  11.016 -0.1838  0.0973  0.4909
50208SOL    HW155435   1.965   5.722  11.097  0.1946  0.3296  0.2577
50208SOL    HW255436   2.018   5.625  10.994 -0.6057 -0.6243  0.7264
50209SOL     OW55437  10.789   5.456   2.055  0.2630 -0.3868  0.2410
50209SOL    HW155438  10.821   5.368   2.074  0.4021 -0.4127 -0.1110
50209SOL    HW255439  10.707   5.463   2.105  0.0628 -0.8468 -0.0208
50210SOL     OW55440   8.737  10.713   2.253  0.0437 -0.0819 -0.3253
50210SOL    HW155441   8.678  10.768   2.201  1.7791 -0.8047 -3.3005
50210SOL    HW255442   8.684  10.635   2.273 -0.9298  0.5701 -0.2653
50211SOL     OW55443   0.670   5.851   7.775  0.1628 -0.1428 -0.1245
50211SOL    HW155444   0.755   5.846   7.731  0.9490  0.5845  1.2324
50211SOL    HW255445   0.678   5.791   7.849 -0.5368 -0.1464 -0.0473
50212SOL     OW55446  11.504   9.761   3.671  0.0010 -0.4494  0.2290
50212SOL    HW155447  11.504   9.671   3.706  0.4864 -0.6268 -0.2241
50212SOL    HW255448  11.485   9.750   3.578  0.6381 -0.1250  0.0597
50213SOL     OW55449  11.544  10.855   5.940 -0.4462  0.1938  0.1095
50213SOL    HW155450  11.490  10.784   5.904  1.0281 -0.7473 -0.3207
50213SOL    HW255451  11.485  10.931   5.942 -2.1752 -1.0913  0.9077
50214SOL     OW55452   2.300   1.043   6.226 -0.2232  0.2504 -0.1181
50214SOL    HW155453   2.342   0.959   6.244 -0.7593 -0.3451 -1.5149
50214SOL    HW255454   2.206   1.023   6.224 -0.7120  1.5648  3.0256
50215SOL     OW55455   0.989   7.576   3.428  0.1489 -0.3518  0.2073
50215SOL    HW155456   0.935   7.497   3.415 -0.7642 -0.1903  2.4688
50215SOL    HW255457   1.070   7.543   3.466  0.2770 -0.3115 -0.0327
50216SOL     OW55458  10.086   6.556   9.239  0.3434 -0.4069 -0.1715
50216SOL    HW155459  10.074   6.462   9.246 -1.9275 -0.2009 -0.4631
50216SOL    HW255460  10.012   6.593   9.286  0.1982  1.2094 -1.5765
50217SOL     OW55461   6.325  11.741   3.922  0.0380 -0.3962 -0.0243
50217SOL    HW155462   6.302  11.726   3.831  1.8346 -0.9820 -0.3965
50217SOL    HW255463   6.366  11.660   3.951 -1.2244 -0.5292  1.5804
50218SOL     OW55464   1.274   4.299  11.282  0.4225 -0.3234  0.1028
50218SOL    HW155465   1.306   4.209  11.291 -2.4355 -1.3995  0.6633
50218SOL    HW255466   1.271   4.313  11.187 -2.1965 -2.1826 -0.2188
50219SOL     OW55467   7.656   4.799   4.411 -0.1194 -0.1603 -0.2319
50219SOL    HW155468   7.706   4.840   4.340  1.4663  1.8528  1.8730
50219SOL    HW255469   7.698   4.831   4.491 -1.6436 -2.5129  1.6613
50220SOL     OW55470   6.168   1.129   9.091 -0.3256 -0.0483 -0.4850
50220SOL    HW155471   6.233   1.173   9.036  0.0372  0.2056  0.1354
50220SOL    HW255472   6.161   1.041   9.053  2.1761 -0.9135  0.8334
50221SOL     OW55473   4.168   7.102   5.484  0.3218 -0.4244  0.1872
50221SOL    HW155474   4.213   7.017   5.478  0.0749 -0.5292 -0.2383
50221SOL    HW255475   4.230   7.165   5.449 -0.4132 -0.7790 -1.8775
50222SOL     OW55476   2.459   7.153   4.293  0.5525 -0.4122  0.3621
50222SOL    HW155477   2.552   7.151   4.270  0.8115  0.9513  1.1872
50222SOL    HW255478   2.417   7.097   4.228  2.2542 -3.2889  1.5527
50223SOL     OW55479  10.089  12.268   9.280  0.4720  0.4343 -0.0349
50223SOL    HW155480  10.078  12.326   9.205  0.0659 -0.3354 -0.5798
50223SOL    HW255481  10.171  12.297   9.320  0.1018  1.6045 -0.0817
50224SOL     OW55482  11.984   4.402  11.714 -0.2226  0.3859 -0.1893
50224SOL    HW155483  11.916   4.364  11.769  1.6724  0.5438  2.4597
50224SOL    HW255484  11.974   4.496  11.725  0.7838  0.3979  0.7430
50225SOL     OW55485   7.832   3.197  11.843 -0.3681 -0.5030 -0.2386
50225SOL    HW155486   7.855   3.176  11.934  1.1312 -1.6509 -0.8458
50225SOL    HW255487   7.913   3.231  11.805 -0.7436 -0.8421 -1.3741
50226SOL     OW55488   3.710   1.578   9.420 -0.1441 -0.0135 -1.0370
50226SOL    HW155489   3.644   1.591   9.488  0.5752  0.7353 -0.4580
50226SOL    HW255490   3.735   1.667   9.394  1.0106 -0.2639 -0.8572
50227SOL     OW55491   1.580  12.086   9.708 -0.3113 -0.3302  0.3127
50227SOL    HW155492   1.621  12.004   9.738  1.0216 -0.2728 -1.2284
50227SOL    HW255493   1.641  12.154   9.735  0.1868 -0.1557 -1.1783
50228SOL     OW55494  10.564  12.445   5.015  0.3757  0.1029 -0.3299
50228SOL    HW155495  10.586  12.519   4.959 -0.8667  0.0287 -0.9474
50228SOL    HW255496  10.644  12.392   5.018  0.3041 -0.2223 -2.5798
50229SOL     OW55497   8.628  12.418   0.308 -0.1785  0.3821 -0.0951
50229SOL    HW155498   8.678  12.500   0.303  0.2849  0.1844  1.0689
50229SOL    HW255499   8.679  12.356   0.254 -0.8934  1.0076 -1.5529
50230SOL     OW55500  10.139   2.419   4.167  0.2527  0.3677 -0.0235
50230SOL    HW155501  10.187   2.502   4.176  0.3431  0.4590 -1.1724
50230SOL    HW255502  10.093   2.427   4.083 -1.8503  0.3080  1.0374
50231SOL     OW55503   7.983   7.754   3.806 -0.0280 -0.5928  0.0985
50231SOL    HW155504   8.074   7.737   3.829  0.4568  1.1320 -0.4035
50231SOL    HW255505   7.934   7.729   3.884  0.6872 -2.7859 -0.0699
50232SOL     OW55506   2.907   4.290  10.211 -0.6490 -0.0437  0.1917
50232SOL    HW155507   2.930   4.352  10.142  0.6831 -2.7000 -1.9680
50232SOL    HW255508   2.823   4.254  10.185 -1.2118  0.5050  1.1976
50233SOL     OW55509   3.577   4.192   7.464  0.2125  0.4190 -0.3883
50233SOL    HW155510   3.609   4.138   7.536  0.3202  0.3978 -0.4519
50233SOL    HW255511   3.650   4.250   7.442  0.3773  0.0507 -0.8427
50234SOL     OW55512  11.589   6.579  10.735  0.2895  0.3607  0.0067
50234SOL    HW155513  11.557   6.629  10.810  1.4521 -0.4048  1.0588
50234SOL    HW255514  11.515   6.576  10.674 -0.1932  2.3086  0.4229
50235SOL     OW55515   7.275   0.732   7.086  0.7930 -0.2719 -0.4268
50235SOL    HW155516   7.360   0.709   7.125  0.3944  0.1966  0.7449
50235SOL    HW255517   7.288   0.821   7.052  0.8893 -0.3655 -0.6421
50236SOL     OW55518  10.398  11.603   3.413 -0.1883 -0.6448 -0.0501
50236SOL    HW155519  10.390  11.628   3.321 -0.7868 -1.4201 -0.2185
50236SOL    HW255520  10.309  11.584   3.441 -0.2382  1.1858  1.1813
50237SOL     OW55521   7.722   9.344   4.837 -0.1192  0.6770  0.2407
50237SOL    HW155522   7.791   9.409   4.823  0.7580  0.0600  1.5555
50237SOL    HW255523   7.752   9.266   4.792 -0.4539  0.7097 -0.0480
50238SOL     OW55524   0.689   2.174   3.524 -0.5003  0.2055 -0.0181
50238SOL    HW155525   0.654   2.140   3.442  0.4823  0.5891 -0.6102
50238SOL    HW255526   0.613   2.179   3.582 -1.5933  1.8347 -1.5185
50239SOL     OW55527   1.252   8.662   6.522  0.5833  0.3852  0.6978
50239SOL    HW155528   1.172   8.664   6.575  0.4232  2.1357  0.4643
50239SOL    HW255529   1.243   8.584   6.468 -0.9852  0.5246  0.7003
50240SOL     OW55530   0.671   9.083   6.343  0.0909  0.1098  0.0940
50240SOL    HW155531   0.618   9.083   6.263  0.3462  2.2085 -0.1161
50240SOL    HW255532   0.616   9.038   6.408 -2.0903  2.3034 -0.0869
50241SOL     OW55533   7.342   4.225   6.232  0.2736 -0.3068 -0.2050
50241SOL    HW155534   7.375   4.313   6.252  0.6768 -0.1632 -1.3627
50241SOL    HW255535   7.261   4.240   6.184  0.7128 -0.5241 -1.0458
50242SOL     OW55536   4.498  11.640   6.434  0.4947 -0.1067 -0.5857
50242SOL    HW155537   4.415  11.605   6.401  1.7217 -2.5104 -1.4312
50242SOL    HW255538   4.474  11.697   6.507 -1.8761 -0.8363 -0.7301
50243SOL     OW55539   6.697   0.120   3.773  0.2714  0.2261  0.8597
50243SOL    HW155540   6.660   0.177   3.705  0.6729 -0.0654  0.3876
50243SOL    HW255541   6.744   0.052   3.724  0.0524 -0.3401  1.4239
50244SOL     OW55542   6.988   4.908   6.760  0.0401 -0.0036  0.1763
50244SOL    HW155543   6.954   4.996   6.778  1.0848  0.5711 -0.5589
50244SOL    HW255544   6.913   4.861   6.723 -0.6293  0.4522  0.8992
50245SOL     OW55545  11.954   0.485  10.309  0.3438  0.1302 -0.4808
50245SOL    HW155546  12.003   0.413  10.269 -1.8461 -1.5370 -0.3692
50245SOL    HW255547  12.006   0.563  10.292  2.7980 -1.4589 -0.6847
50246SOL     OW55548   9.021   1.091   7.436  0.4657 -0.3646  0.3098
50246SOL    HW155549   9.062   1.061   7.355 -0.5738 -0.8510 -0.0687
50246SOL    HW255550   9.045   1.183   7.443  1.0678 -0.4741 -0.2368
50247SOL     OW55551   0.554   5.706   8.567 -0.5593  0.2081 -0.2963
50247SOL    HW155552   0.550   5.681   8.475 -2.3767  0.2060 -0.2557
50247SOL    HW255553   0.612   5.641   8.607  0.8580  0.6386 -1.5357
50248SOL     OW55554  11.783   1.551   1.673  0.0277  0.4602 -0.3409
50248SOL    HW155555  11.718   1.520   1.611  0.5192  2.2951 -1.8545
50248SOL    HW255556  11.850   1.482   1.674 -1.3732 -0.9638  0.4691
50249SOL     OW55557  11.015  12.025   0.037  0.1400  0.4091  0.0502
50249SOL    HW155558  11.055  11.938   0.040 -1.4561 -0.3857 -0.7533
50249SOL    HW255559  11.000  12.042  -0.056 -0.0933  1.3019  0.2359
50250SOL     OW55560   3.346   4.732   0.029  0.2603  0.0825 -0.0415
50250SOL    HW155561   3.279   4.745  -0.038  1.3095  0.3978 -1.0484
50250SOL    HW255562   3.422   4.781  -0.002  1.3022 -1.0738  0.5846
50251SOL     OW55563   8.280   0.421   0.852  0.0463  0.4880  0.1939
50251SOL    HW155564   8.330   0.458   0.925 -0.4714  0.6704  0.4568
50251SOL    HW255565   8.295   0.327   0.858  0.1973  0.5229  0.3904
50252SOL     OW55566  10.372   1.629   4.243 -0.7311 -0.2198  0.6204
50252SOL    HW155567  10.459   1.601   4.271 -1.1061 -2.0635  0.0697
50252SOL    HW255568  10.316   1.612   4.319 -0.7652  0.1787  0.6875
50253SOL     OW55569   6.065   7.474   5.169 -1.3575 -0.1740  0.2032
50253SOL    HW155570   6.085   7.380   5.173  0.2588  0.1978  2.1488
50253SOL    HW255571   6.129   7.509   5.108 -0.2362  0.0303  1.4688
50254SOL     OW55572   0.551  12.406   9.008  0.0551  0.0842  0.3378
50254SOL    HW155573   0.624  12.405   9.069 -0.7317  0.4824  1.3006
50254SOL    HW255574   0.476  12.379   9.060 -1.0395  2.4509  0.0910
50255SOL     OW55575   0.133   3.001  10.658  0.1160  0.3432  0.0119
50255SOL    HW155576   0.135   2.905  10.652 -0.9667  0.3947 -1.6575
50255SOL    HW255577   0.045   3.021  10.689  0.0958  0.8244 -0.3498
50256SOL     OW55578  10.976   6.183   8.851 -0.0366  0.0286 -0.5954
50256SOL    HW155579  11.016   6.112   8.901  0.7268  0.3294 -0.7583
50256SOL    HW255580  10.912   6.140   8.795 -2.2774 -0.1289  1.9228
50257SOL     OW55581   2.366  11.556   7.309  0.0488  0.3546  0.0169
50257SOL    HW155582   2.462  11.556   7.309  0.0495 -0.1116 -0.2920
50257SOL    HW255583   2.342  11.637   7.355  0.5886  0.3374  0.3348
50258SOL     OW55584   2.476   1.629   3.164  0.5003  0.0743 -0.1164
50258SOL    HW155585   2.398   1.574   3.172  0.2142  0.6232  1.2631
50258SOL    HW255586   2.443   1.718   3.161  1.0338  0.2616 -0.5518
50259SOL     OW55587  10.578  11.714   6.343  0.1534 -0.1910 -0.0134
50259SOL    HW155588  10.509  11.710   6.277 -0.0098  1.1626  0.0565
50259SOL    HW255589  10.549  11.654   6.412 -1.1620  0.6583  0.1996
50260SOL     OW55590   0.777   3.278  12.333  0.1340 -0.2245  0.6039
50260SOL    HW155591   0.708   3.326  12.378 -0.6551 -0.5520 -0.2119
50260SOL    HW255592   0.762   3.295  12.240 -0.0836 -1.8817  0.2954
50261SOL     OW55593   0.652   3.771   8.808  0.0842  0.0145 -0.2611
50261SOL    HW155594   0.626   3.742   8.896 -1.7866  0.1429 -0.7185
50261SOL    HW255595   0.670   3.690   8.761 -0.2486 -0.1384 -0.1322
50262SOL     OW55596   0.855   8.826   1.596  0.0399  0.4459  0.0931
50262SOL    HW155597   0.853   8.921   1.588  0.1205  0.4069 -0.4577
50262SOL    HW255598   0.915   8.798   1.527 -2.2755 -0.2061 -1.8057
50263SOL     OW55599  10.658   2.885   2.740 -0.0897 -0.0326  0.3345
50263SOL    HW155600  10.674   2.792   2.753 -1.3529 -0.0623  2.0652
50263SOL    HW255601  10.690   2.903   2.652 -0.1833 -2.1808 -0.1887
50264SOL     OW55602   5.197   3.625  11.157 -0.5178  0.1363  0.6802
50264SOL    HW155603   5.144   3.698  11.125 -0.9064 -1.5163 -2.8780
50264SOL    HW255604   5.134   3.555  11.172 -0.0272  0.1242  3.1188
50265SOL     OW55605  10.589   7.248  10.153  0.5601 -0.1626  0.8932
50265SOL    HW155606  10.562   7.277  10.067  2.7292 -0.5811  0.0085
50265SOL    HW255607  10.582   7.325  10.209 -0.3716  0.2351  0.2410
50266SOL     OW55608   0.617   4.280   8.092 -0.0910 -0.1149 -0.1343
50266SOL    HW155609   0.605   4.232   8.174  0.9185  0.4415  0.3642
50266SOL    HW255610   0.708   4.263   8.067  0.4369  1.8563  0.2940
50267SOL     OW55611  11.180  12.194   9.946  0.2984  0.4831 -0.6677
50267SOL    HW155612  11.152  12.237  10.027  1.1858  2.2167 -1.2128
50267SOL    HW255613  11.099  12.167   9.904 -0.2629  0.9871  0.0601
50268SOL     OW55614   3.826  11.058   8.468  0.1943  0.1998  0.0204
50268SOL    HW155615   3.835  11.059   8.373  0.6920  0.5934  0.0709
50268SOL    HW255616   3.913  11.078   8.501  0.3970 -1.4869  0.5948
50269SOL     OW55617   8.897   3.469  11.376  0.0332  0.0289 -0.3309
50269SOL    HW155618   8.891   3.512  11.291 -1.0790  2.2639  0.7938
50269SOL    HW255619   8.847   3.388  11.365  1.3120 -0.5770 -2.2280
50270SOL     OW55620  10.678   9.235  10.808 -0.4136  0.6782  0.4524
50270SOL    HW155621  10.723   9.309  10.767 -1.0108  0.0381 -1.4773
50270SOL    HW255622  10.585   9.250  10.789 -0.4847 -0.9190 -0.6420
50271SOL     OW55623   7.409   9.322   7.137  0.0060 -0.4429 -0.4178
50271SOL    HW155624   7.386   9.385   7.205  1.3592  2.1043 -2.1506
50271SOL    HW255625   7.411   9.237   7.182 -0.6618  0.8760  2.3138
50272SOL     OW55626   9.024  11.219   9.140 -0.3757  0.4555 -0.1540
50272SOL    HW155627   8.986  11.232   9.227 -1.6066 -0.8265 -0.4533
50272SOL    HW255628   9.050  11.127   9.138  1.1665  0.8694 -0.6039
50273SOL     OW55629   4.290   6.172   3.010  0.5177  0.3099  0.3799
50273SOL    HW155630   4.299   6.148   3.102  1.7509  2.0220  0.7541
50273SOL    HW255631   4.351   6.244   2.997 -1.3507  1.7472 -1.1957
50274SOL     OW55632   7.831   9.222   6.715 -0.0450  0.3326  0.6595
50274SOL    HW155633   7.804   9.152   6.774  1.7600 -0.1950  0.9402
50274SOL    HW255634   7.922   9.201   6.693 -1.0302 -0.3968 -3.6380
50275SOL     OW55635   6.756   7.603   8.532  0.0806 -0.2214 -0.4225
50275SOL    HW155636   6.813   7.584   8.457  0.1183  0.0277 -0.4590
50275SOL    HW255637   6.792   7.551   8.604  0.1723 -0.2946 -0.5210
50276SOL     OW55638   1.000   6.621  10.828  0.1398  0.8690 -0.1080
50276SOL    HW155639   0.987   6.531  10.859  1.5198  0.8114  0.3754
50276SOL    HW255640   0.936   6.673  10.876 -0.0442  0.2752  0.2970
50277SOL     OW55641   1.823   1.983   1.997  0.1763 -0.4236 -0.3796
50277SOL    HW155642   1.778   1.936   1.927 -1.0110  0.9178 -0.5642
50277SOL    HW255643   1.912   1.947   1.997 -0.7348 -2.8206 -0.2990
50278SOL     OW55644  11.136   2.692   8.954  0.1159  0.2037  0.3143
50278SOL    HW155645  11.040   2.687   8.956  0.0244  1.2739 -0.4622
50278SOL    HW255646  11.163   2.612   8.910 -0.6385  1.2481 -2.2391
50279SOL     OW55647   0.809   4.590  11.024  0.0623  0.1266 -0.3709
50279SOL    HW155648   0.760   4.531  11.081 -0.0908  1.4003  0.8856
50279SOL    HW255649   0.901   4.573  11.045  0.0552 -0.3222 -0.7002
50280SOL     OW55650   0.469   4.282   6.204  0.6914  0.6520 -0.1497
50280SOL    HW155651   0.542   4.223   6.223 -0.6905 -1.4350 -1.0475
50280SOL    HW255652   0.482   4.356   6.265  3.4823  0.3511 -0.2619
50281SOL     OW55653   7.095   8.194   4.029 -0.2726 -0.2096  0.3580
50281SOL    HW155654   7.096   8.197   4.124 -0.0899 -0.3707  0.3614
50281SOL    HW255655   7.010   8.156   4.007  0.7003 -2.7000  0.5430
50282SOL     OW55656   3.589   3.220  10.307  0.2740  0.1850  0.4898
50282SOL    HW155657   3.668   3.167  10.292  0.3940  0.0647  1.5197
50282SOL    HW255658   3.596   3.291  10.242  1.5160  0.4882  0.9256
50283SOL     OW55659   6.055   6.335   9.950  0.2312  0.2302  0.3864
50283SOL    HW155660   5.991   6.297   9.891 -0.1331  1.6057 -0.1585
50283SOL    HW255661   6.095   6.261   9.995 -0.3167 -0.7652 -0.7372
50284SOL     OW55662  11.817   8.129   4.130 -0.0480  0.0320  0.0757
50284SOL    HW155663  11.868   8.065   4.081 -0.8587 -0.0642 -0.6684
50284SOL    HW255664  11.754   8.077   4.179 -0.2766  0.2188 -0.0195
50285SOL     OW55665   6.282  12.088   7.038 -0.1212 -0.4471  0.1672
50285SOL    HW155666   6.361  12.041   7.065 -0.0153 -0.6546 -0.4760
50285SOL    HW255667   6.260  12.143   7.113  0.4238 -0.6617  0.4939
50286SOL     OW55668   2.406   8.866   9.563  0.0266 -0.1750  0.3158
50286SOL    HW155669   2.326   8.844   9.515  0.3849 -2.2815  0.5924
50286SOL    HW255670   2.476   8.858   9.498  0.1724  0.2654  0.4147
50287SOL     OW55671   0.190   3.158  11.310 -0.1984 -0.1154 -0.3006
50287SOL    HW155672   0.174   3.161  11.216 -0.2723  0.9097 -0.2661
50287SOL    HW255673   0.258   3.224  11.325 -1.2844  0.8580  0.5602
50288SOL     OW55674   7.072   0.387   8.845  0.1118  0.0753  0.3085
50288SOL    HW155675   7.048   0.454   8.909 -2.4732 -1.0082  0.6028
50288SOL    HW255676   7.003   0.391   8.779 -0.1125 -2.2427  0.3226
50289SOL     OW55677   9.482  10.256   2.039 -0.1961 -0.3280  0.5399
50289SOL    HW155678   9.494  10.231   1.947  0.9381 -1.6953  1.0193
50289SOL    HW255679   9.482  10.352   2.038  0.0666 -0.3214 -0.8540
50290SOL     OW55680   7.833  10.924   0.934  0.4498 -0.1617  0.3918
50290SOL    HW155681   7.803  10.992   0.994  1.7919 -1.0900  2.2686
50290SOL    HW255682   7.826  10.962   0.847 -0.0140  1.8938  1.2790
50291SOL     OW55683   7.887  12.253  12.392  0.0209 -0.6342 -0.1169
50291SOL    HW155684   7.805  12.248  12.440  0.4149 -0.1034  0.6191
50291SOL    HW255685   7.860  12.256  12.300 -0.7713 -0.7177  0.1020
50292SOL     OW55686  11.500   7.262   0.740 -1.1446  0.1373  0.3375
50292SOL    HW155687  11.440   7.334   0.720 -3.0323 -1.3700  0.1927
50292SOL    HW255688  11.444   7.196   0.782 -0.0140 -2.1421 -1.5060
50293SOL     OW55689   9.162   4.553   1.719  0.0642  0.4893 -0.0423
50293SOL    HW155690   9.252   4.530   1.696  0.1136  0.6508 -0.0145
50293SOL    HW255691   9.122   4.470   1.747  0.1813  0.4038 -0.1299
50294SOL     OW55692   7.446  11.117  11.866  0.5189  0.5089  0.5267
50294SOL    HW155693   7.515  11.178  11.891  0.2114  0.4421  1.5753
50294SOL    HW255694   7.460  11.040  11.922 -0.8337  0.7899  1.2920
50295SOL     OW55695   2.452   3.809   5.246 -0.3841 -0.1296 -0.0514
50295SOL    HW155696   2.399   3.885   5.222  0.7474  0.0406 -2.1974
50295SOL    HW255697   2.462   3.817   5.341 -0.5387  2.2576 -0.1687
50296SOL     OW55698   1.852   3.735  10.429  0.0393 -0.2897  0.3144
50296SOL    HW155699   1.777   3.713  10.484 -0.2306  0.8116  0.4039
50296SOL    HW255700   1.814   3.771  10.349  0.4591 -0.3799  0.0715
50297SOL     OW55701   2.461   8.748   5.442 -0.2522 -0.2995  0.4034
50297SOL    HW155702   2.547   8.711   5.425 -0.1195  0.6212 -1.0978
50297SOL    HW255703   2.404   8.710   5.375 -0.5511  0.6318  0.1073
50298SOL     OW55704   7.870  12.156   3.215  0.0186 -0.1298  0.0607
50298SOL    HW155705   7.951  12.196   3.246  0.9391 -2.6232  1.1005
50298SOL    HW255706   7.819  12.140   3.294  0.0274 -1.6324 -0.2030
50299SOL     OW55707   8.352   0.008  11.503 -0.3122  0.3643  0.8728
50299SOL    HW155708   8.402  -0.069  11.531 -0.8433  0.5979  2.5467
50299SOL    HW255709   8.384   0.079  11.559 -0.9835  1.0063  0.4663
50300SOL     OW55710   7.511   7.592   5.669  0.0220 -0.4994  0.1661
50300SOL    HW155711   7.475   7.530   5.733 -0.0471 -1.1734 -0.5094
50300SOL    HW255712   7.441   7.602   5.604 -0.3918  1.1447  0.8356
50301SOL     OW55713  11.265   5.582   5.853  0.1639  0.0477  0.6034
50301SOL    HW155714  11.359   5.590   5.871  0.2859 -0.9125  0.4328
50301SOL    HW255715  11.227   5.662   5.889  1.1878  0.9954 -0.3400
50302SOL     OW55716   6.109   4.312   3.062  0.3043 -0.3046  0.1519
50302SOL    HW155717   6.150   4.228   3.082  1.1319  0.1038  0.2193
50302SOL    HW255718   6.179   4.363   3.021 -0.3067  0.2063 -0.2619
50303SOL     OW55719   2.465   8.516   7.267  0.2576 -0.3291  0.2568
50303SOL    HW155720   2.514   8.544   7.190 -1.9699  1.2433 -0.6862
50303SOL    HW255721   2.386   8.476   7.232 -1.0590  0.8950  1.6512
50304SOL     OW55722  10.418   8.983   3.217 -0.1052 -0.6967  0.0231
50304SOL    HW155723  10.412   9.078   3.228  1.9551 -0.6495  1.2118
50304SOL    HW255724  10.451   8.972   3.128  2.4788 -0.0997  0.8219
50305SOL     OW55725  10.005   0.415   1.086 -0.1755  0.1185 -0.1456
50305SOL    HW155726  10.062   0.419   1.163 -1.0755 -0.2479  0.5500
50305SOL    HW255727  10.011   0.324   1.056 -0.7704 -0.0496  0.2282
50306SOL     OW55728  11.750   2.609   0.386  0.5761 -0.3142 -0.3377
50306SOL    HW155729  11.735   2.701   0.405 -2.5420 -0.5008 -1.3175
50306SOL    HW255730  11.721   2.564   0.466  0.5357 -0.5156 -0.4661
50307SOL     OW55731   4.484  10.772   4.906 -0.0016  0.5895 -0.3086
50307SOL    HW155732   4.507  10.842   4.967 -0.3960  1.6693 -1.3564
50307SOL    HW255733   4.560  10.764   4.848 -1.1147  2.3936 -2.1688
50308SOL     OW55734   8.730  11.955   1.046  0.4537 -0.0296 -0.2098
50308SOL    HW155735   8.755  12.021   1.111 -2.4858 -0.5424  1.5799
50308SOL    HW255736   8.751  11.871   1.087 -0.9082 -0.3473 -0.1267
50309SOL     OW55737   8.251   3.556   7.944 -0.4668  0.2451  0.0277
50309SOL    HW155738   8.217   3.525   7.861  1.4146  0.2865 -0.8062
50309SOL    HW255739   8.174   3.582   7.994 -1.7027 -0.7818 -1.2758
50310SOL     OW55740   6.972  11.742   1.751  0.4253 -0.0112 -0.0458
50310SOL    HW155741   6.903  11.765   1.814  0.4571  1.3986 -0.4779
50310SOL    HW255742   7.026  11.821   1.746  0.3249 -0.0099 -1.9512
50311SOL     OW55743  11.284   0.925   5.900  0.1278  0.1089 -0.0816
50311SOL    HW155744  11.316   1.013   5.920  1.1941 -0.1197 -0.7529
50311SOL    HW255745  11.361   0.869   5.905  0.0006 -0.3370 -2.3917
50312SOL     OW55746   2.750  10.013  10.255  0.3409  0.0280  0.3239
50312SOL    HW155747   2.690   9.965  10.312 -1.0742  0.7171 -0.5041
50312SOL    HW255748   2.820   9.951  10.235  1.2147 -0.0524  3.2206
50313SOL     OW55749   6.980   7.453   7.410 -0.1103 -0.1712  0.0999
50313SOL    HW155750   7.056   7.435   7.464 -0.2523 -0.1634  0.3041
50313SOL    HW255751   6.999   7.537   7.368  0.0370 -0.2197  0.0705
50314SOL     OW55752   4.063   9.437   4.716 -0.4725 -0.4056 -0.4512
50314SOL    HW155753   4.049   9.447   4.810  2.2258  0.9798 -0.0973
50314SOL    HW255754   4.094   9.347   4.707 -2.2994 -1.0999 -0.3149
50315SOL     OW55755   1.927   5.936   2.902  0.0008 -0.4515  0.5719
50315SOL    HW155756   1.858   5.958   2.965 -0.0723  1.6689 -0.1779
50315SOL    HW255757   1.990   5.885   2.953 -0.7276  0.0167  2.0165
50316SOL     OW55758   3.306   8.032   8.136  0.5569 -0.6752 -0.4396
50316SOL    HW155759   3.271   8.054   8.223  1.0742 -0.2920 -0.3226
50316SOL    HW255760   3.256   7.955   8.109  0.4151 -0.8205  0.2150
50317SOL     OW55761   8.592   5.707   3.517 -0.2765  0.1399 -0.1931
50317SOL    HW155762   8.540   5.642   3.564 -0.3308 -1.4994 -2.3700
50317SOL    HW255763   8.536   5.735   3.444  1.1310 -0.2880 -1.5119
50318SOL     OW55764   9.328   4.851  11.242 -0.5305  0.0445 -0.2263
50318SOL    HW155765   9.275   4.931  11.242  0.2332  0.5864  0.8957
50318SOL    HW255766   9.417   4.881  11.224  0.0351 -0.3044  1.7108
50319SOL     OW55767   6.651  11.625   7.872  0.1029  0.2262  0.4639
50319SOL    HW155768   6.639  11.697   7.935  0.5854  1.1371 -0.4427
50319SOL    HW255769   6.613  11.549   7.915 -0.0373  0.9298  1.6440
50320SOL     OW55770   1.919   9.206   4.517 -0.0225  0.2853 -0.7592
50320SOL    HW155771   1.909   9.257   4.436 -0.9200  0.9731 -0.2289
50320SOL    HW255772   1.881   9.121   4.496  0.2994  0.2518 -1.2406
50321SOL     OW55773   3.036   3.460  10.118  0.0549 -0.3703 -0.2768
50321SOL    HW155774   3.052   3.366  10.110 -0.6438 -0.4552 -0.7670
50321SOL    HW255775   3.062   3.497  10.034  0.0565 -0.1618 -0.1873
50322SOL     OW55776   1.559   5.284  11.013  0.2007 -0.3801  0.0224
50322SOL    HW155777   1.547   5.211  11.074  1.2973  1.0511  2.0845
50322SOL    HW255778   1.631   5.334  11.050 -0.0731  1.3955 -1.6965
50323SOL     OW55779   1.550   0.451   3.811  0.2766  0.0087  0.2420
50323SOL    HW155780   1.605   0.457   3.889 -1.1717 -0.7405  1.3704
50323SOL    HW255781   1.536   0.542   3.785  2.6275  0.1949 -0.5304
50324SOL     OW55782   3.883   3.851   1.856  0.6071  0.4146  0.6998
50324SOL    HW155783   3.889   3.944   1.831  2.3838  0.3279  0.6367
50324SOL    HW255784   3.833   3.851   1.938 -0.8933  1.2260 -0.1732
50325SOL     OW55785  11.522  11.623   5.881 -0.0896  0.6153 -0.1843
50325SOL    HW155786  11.548  11.531   5.876 -1.3400  0.2496 -0.2686
50325SOL    HW255787  11.551  11.660   5.798 -0.4981  0.0449 -0.5908
50326SOL     OW55788  11.771   0.998   5.467  0.1918  0.0390 -0.6142
50326SOL    HW155789  11.780   0.998   5.372 -0.9208  2.4048 -0.8055
50326SOL    HW255790  11.684   0.960   5.483  0.3692 -0.3369 -0.5539
50327SOL     OW55791   1.296   8.669   0.770  0.3523 -0.3387  0.1233
50327SOL    HW155792   1.265   8.595   0.822  0.0695 -0.6833 -0.5191
50327SOL    HW255793   1.222   8.730   0.768  0.4970 -0.1461  0.4371
50328SOL     OW55794  10.098   8.279  10.530 -0.8234  0.6307  0.7747
50328SOL    HW155795  10.183   8.323  10.521 -0.8747  0.4125 -1.1450
50328SOL    HW255796  10.120   8.186  10.536 -0.9338  0.4645 -0.9174
50329SOL     OW55797   3.696   9.231   3.686  0.1057 -0.0168  0.5581
50329SOL    HW155798   3.786   9.198   3.693  0.1167 -0.9005 -2.3564
50329SOL    HW255799   3.702   9.323   3.710  1.6062 -0.2535  1.1936
50330SOL     OW55800   4.093  10.768  11.860 -0.5859  0.1507  0.0405
50330SOL    HW155801   4.090  10.862  11.876  1.9812  0.1024  1.3314
50330SOL    HW255802   4.085  10.728  11.946  2.2080 -0.5952  0.0503
50331SOL     OW55803   3.563   6.061   0.715 -0.0578  0.2705  0.1937
50331SOL    HW155804   3.543   6.012   0.635  0.8417 -0.6827  0.5309
50331SOL    HW255805   3.533   6.004   0.786  0.5420  0.4219  0.5770
50332SOL     OW55806  10.014   5.296   6.396  0.0182  0.2174 -0.0138
50332SOL    HW155807  10.052   5.378   6.365  1.0758 -0.8577 -1.7285
50332SOL    HW255808  10.083   5.257   6.451  1.3582 -1.4989 -2.7214
50333SOL     OW55809   8.266   7.993   5.008 -0.0348 -0.1547 -0.1336
50333SOL    HW155810   8.278   8.027   4.919 -1.0006  0.5582 -0.0077
50333SOL    HW255811   8.240   8.069   5.060 -0.3549 -0.7301  0.5715
50334SOL     OW55812   4.534   7.513   3.665  0.0582 -0.0440  0.2640
50334SOL    HW155813   4.602   7.560   3.617 -1.2765  1.6909 -0.0117
50334SOL    HW255814   4.512   7.570   3.738 -2.2729  0.2731 -0.6085
50335SOL     OW55815   9.560   8.383   0.717 -0.0780  0.5952 -0.1765
50335SOL    HW155816   9.496   8.318   0.687 -2.4625  3.3384 -1.5637
50335SOL    HW255817   9.536   8.401   0.808  1.1245 -0.9699  0.4867
50336SOL     OW55818   6.630   5.299  12.251 -0.0211 -0.0280 -0.0621
50336SOL    HW155819   6.720   5.317  12.222  0.1537 -0.1555  0.3890
50336SOL    HW255820   6.577   5.310  12.172  0.6488 -2.1623 -0.8615
50337SOL     OW55821   1.533   0.876   9.992 -0.5160 -0.1882  0.0319
50337SOL    HW155822   1.502   0.797  10.036 -0.7782 -0.0085  0.1747
50337SOL    HW255823   1.568   0.846   9.909 -0.8554 -0.4232 -0.0279
50338SOL     OW55824   2.244   7.879  10.207  0.2098  0.4403 -0.4853
50338SOL    HW155825   2.211   7.951  10.261 -0.2491  0.4234 -0.7345
50338SOL    HW255826   2.166   7.828  10.185  0.6656 -0.8202  0.6778
50339SOL     OW55827   4.351   6.869   8.348 -0.1629  0.0216 -0.0376
50339SOL    HW155828   4.323   6.804   8.413 -0.7680 -0.5066 -0.7921
50339SOL    HW255829   4.419   6.824   8.298  0.4488  0.5009  0.3638
50340SOL     OW55830   8.825  10.933   3.937 -0.2196 -0.3967  0.1653
50340SOL    HW155831   8.732  10.920   3.922 -0.6012  2.9921 -1.3551
50340SOL    HW255832   8.865  10.928   3.850  0.1252  2.9572 -0.0370
50341SOL     OW55833   0.853  11.928   5.727 -0.1277  1.0660 -0.3950
50341SOL    HW155834   0.850  11.987   5.651  1.0860  0.6035 -0.8185
50341SOL    HW255835   0.900  11.851   5.696  0.3108  0.8292  0.8117
50342SOL     OW55836   9.488   1.086   2.574  0.2025 -0.1404  0.2430
50342SOL    HW155837   9.510   1.060   2.484 -1.4679  1.7156 -0.7963
50342SOL    HW255838   9.417   1.027   2.599 -0.6036  0.5240 -0.4128
50343SOL     OW55839  11.712   2.462   1.046  0.4369 -0.2457  0.9653
50343SOL    HW155840  11.750   2.376   1.031  1.3994  0.3326 -0.1012
50343SOL    HW255841  11.786   2.523   1.038 -0.5762  0.8676 -0.5786
50344SOL     OW55842  12.455   4.558   0.989 -0.1632  0.4239  0.3880
50344SOL    HW155843  12.394   4.538   1.060  0.7065  2.9208  1.9945
50344SOL    HW255844  12.490   4.473   0.963 -0.3946 -0.6180  3.1206
50345SOL     OW55845  12.626   4.672   3.687 -0.1685  0.1890  0.1929
50345SOL    HW155846  12.721   4.666   3.677 -0.0149 -0.8747  1.8963
50345SOL    HW255847  12.595   4.707   3.603  1.5289 -1.4926 -1.2219
50346SOL     OW55848   5.853   2.293   2.627 -0.0767  0.1192  0.4745
50346SOL    HW155849   5.843   2.260   2.538  1.3008  3.5871 -1.1364
50346SOL    HW255850   5.773   2.342   2.644  0.1684  0.4588  0.6692
50347SOL     OW55851  11.964   7.169   5.724  0.3012 -0.5414  0.0058
50347SOL    HW155852  11.894   7.125   5.676 -1.1902 -0.5409  2.0812
50347SOL    HW255853  11.935   7.260   5.730  1.6011 -0.0182 -1.0377
50348SOL     OW55854   7.333   2.389   1.511  0.1253 -0.4552 -0.4064
50348SOL    HW155855   7.253   2.351   1.547  0.9681 -2.1837 -0.2112
50348SOL    HW255856   7.347   2.343   1.428  1.2759 -0.7223 -0.0878
50349SOL     OW55857   9.032   3.759  10.755  0.1901 -0.1110  0.5009
50349SOL    HW155858   8.944   3.744  10.789  0.3694  0.3412  1.1696
50349SOL    HW255859   9.039   3.699  10.680 -1.4399  1.3278 -0.8946
50350SOL     OW55860   0.933   2.708  10.948  0.3058 -0.1819  0.1063
50350SOL    HW155861   0.973   2.624  10.969  0.0619 -0.2095  0.4747
50350SOL    HW255862   0.968   2.768  11.014  0.2253 -0.0693  0.0472
50351SOL     OW55863   5.834   2.845   5.584 -0.4609 -0.0295  0.2390
50351SOL    HW155864   5.742   2.869   5.593 -0.3403  0.4743  0.1358
50351SOL    HW255865   5.878   2.927   5.563  0.0444 -0.2313  0.5119
50352SOL     OW55866  11.765  12.590  11.584 -0.2819 -0.5329 -0.0482
50352SOL    HW155867  11.719  12.592  11.668 -0.5733  0.3610 -0.2178
50352SOL    HW255868  11.857  12.584  11.607 -0.4528 -2.3455  0.2970
50353SOL     OW55869   9.109   3.698   9.769  0.0420  0.1491 -0.3145
50353SOL    HW155870   9.096   3.793   9.769  0.0217  0.1483  0.3682
50353SOL    HW255871   9.178   3.683   9.834 -1.5634 -0.4988  1.3247
50354SOL     OW55872   8.268  10.221   8.657 -0.0533 -0.3458 -0.6626
50354SOL    HW155873   8.304  10.157   8.595  0.0349  0.0926 -1.0669
50354SOL    HW255874   8.330  10.222   8.730  1.7293  1.6282 -2.0858
50355SOL     OW55875   3.107  10.119   0.382 -0.2835 -0.3415 -0.0350
50355SOL    HW155876   3.184  10.065   0.395  2.0697  2.8374  0.4718
50355SOL    HW255877   3.121  10.162   0.298 -0.7622  1.3110  0.6744
50356SOL     OW55878   6.154   5.297   4.768 -0.5337 -0.0602 -0.1829
50356SOL    HW155879   6.217   5.344   4.713 -1.5377  1.0840 -0.4006
50356SOL    HW255880   6.099   5.249   4.706 -0.6617 -0.0574 -0.0725
50357SOL     OW55881   9.431  11.068   1.380  0.5361 -0.3602 -0.2613
50357SOL    HW155882   9.519  11.090   1.412 -0.1201 -0.7041  1.9394
50357SOL    HW255883   9.400  11.149   1.339  1.5127  0.0480 -0.2159
50358SOL     OW55884   6.741   5.962   1.590  0.1769  0.1208  0.2280
50358SOL    HW155885   6.740   5.876   1.548  3.7676  0.1260 -0.1889
50358SOL    HW255886   6.740   5.943   1.684 -2.9899 -0.0812  0.2710
50359SOL     OW55887   6.917  11.160   1.398  0.1992  0.2694  0.7421
50359SOL    HW155888   6.947  11.080   1.443  1.1566 -0.0740 -0.4668
50359SOL    HW255889   6.822  11.160   1.411  0.0544 -1.5740 -0.0249
50360SOL     OW55890  12.219   5.962   4.881 -0.6497  0.2561  0.1062
50360SOL    HW155891  12.185   6.026   4.818  0.4036  0.5021 -0.2361
50360SOL    HW255892  12.258   6.016   4.950  0.2177 -0.0084 -0.1687
50361SOL     OW55893  10.905   9.121   7.876  0.0733  0.1556 -0.1283
50361SOL    HW155894  10.869   9.042   7.915  0.1215  0.5800  0.7936
50361SOL    HW255895  10.992   9.096   7.846  0.5435  0.1496  1.2003
50362SOL     OW55896   9.033  12.311   3.242 -0.1353  0.5211  0.3304
50362SOL    HW155897   9.009  12.396   3.277 -1.0193  0.7193 -0.6998
50362SOL    HW255898   9.098  12.277   3.304  0.4680  2.0601  0.5897
50363SOL     OW55899   4.831  11.841   3.909 -0.2059 -0.0032 -0.2146
50363SOL    HW155900   4.914  11.886   3.894 -0.3689 -0.3135 -2.1926
50363SOL    HW255901   4.855  11.749   3.923 -0.2856 -0.4359 -2.5888
50364SOL     OW55902   6.623  12.405   9.280 -0.5402  0.3713  0.1706
50364SOL    HW155903   6.658  12.399   9.369  0.2472  1.4861 -0.0479
50364SOL    HW255904   6.685  12.461   9.234  0.1125 -1.6653 -1.6046
50365SOL     OW55905  10.638   6.803   9.416  0.0733 -0.5194  0.3440
50365SOL    HW155906  10.584   6.773   9.343  0.7625  2.6707 -1.7027
50365SOL    HW255907  10.584   6.869   9.460  1.5265  1.5090 -0.7235
50366SOL     OW55908  11.774   1.938  11.632 -0.3049 -0.4947  0.0882
50366SOL    HW155909  11.858   1.980  11.612 -0.4569 -0.2697 -0.0886
50366SOL    HW255910  11.746   1.980  11.713 -0.1818 -0.6712  0.2243
50367SOL     OW55911  10.582   6.209   9.947  0.7587 -0.6722 -0.3634
50367SOL    HW155912  10.643   6.205   9.874  1.2130 -0.9123  0.0234
50367SOL    HW255913  10.636   6.236  10.022 -0.2318  2.7785 -0.7003
50368SOL     OW55914   9.479   9.293   5.391 -0.7017  0.0511  0.5831
50368SOL    HW155915   9.461   9.373   5.441  1.3275 -0.3142  2.0103
50368SOL    HW255916   9.474   9.222   5.455 -0.7601 -0.7634 -0.3019
50369SOL     OW55917   3.389  10.276   3.758  0.2833  0.0498  0.3683
50369SOL    HW155918   3.402  10.217   3.832 -0.2706  0.9426  1.1902
50369SOL    HW255919   3.354  10.356   3.796 -0.4473  0.3701 -0.9097
50370SOL     OW55920   5.601  11.519   7.546  0.8000 -0.1865  0.2264
50370SOL    HW155921   5.662  11.502   7.619  0.7562 -0.4338  0.2073
50370SOL    HW255922   5.616  11.446   7.486 -0.4584 -0.9966  0.8423
50371SOL     OW55923   2.683   8.519   1.119 -0.0737 -0.0725  0.9455
50371SOL    HW155924   2.639   8.438   1.093 -1.8151  0.7228  1.2312
50371SOL    HW255925   2.769   8.515   1.078 -0.7544 -1.2926 -0.4426
50372SOL     OW55926   8.853   1.351   9.595  0.4277  0.2153  0.1353
50372SOL    HW155927   8.795   1.337   9.520  0.4439  2.1297 -0.2854
50372SOL    HW255928   8.890   1.438   9.580  0.2852  0.7326  2.4658
50373SOL     OW55929  10.247   5.608   5.598 -0.3426 -0.8551  0.3927
50373SOL    HW155930  10.321   5.551   5.619  0.3335  0.3512  1.4059
50373SOL    HW255931  10.284   5.677   5.543 -0.1612  0.9770  2.6477
50374SOL     OW55932   7.541   3.899   2.746  0.0772 -0.0413  0.3718
50374SOL    HW155933   7.451   3.921   2.769  0.3567  2.4213 -0.5531
50374SOL    HW255934   7.594   3.964   2.792  1.2789 -0.6512 -0.1057
50375SOL     OW55935  12.286   8.800  11.298 -0.1608  0.2543 -0.0611
50375SOL    HW155936  12.378   8.779  11.282 -0.0999  0.5752 -0.1337
50375SOL    HW255937  12.272   8.883  11.252  0.1660  1.5171  2.0145
50376SOL     OW55938   5.025   9.642   3.629 -0.1364  0.0115  0.3263
50376SOL    HW155939   5.004   9.628   3.537 -1.0628 -0.8785  0.6577
50376SOL    HW255940   5.103   9.588   3.644 -0.2844 -0.2454  0.1832
50377SOL     OW55941  11.555   8.067  11.317  0.5281 -0.1054 -0.0002
50377SOL    HW155942  11.557   8.131  11.246 -0.3735 -1.6728 -1.5137
50377SOL    HW255943  11.647   8.052  11.338  0.7678  1.2913  0.0617
50378SOL     OW55944   6.253   5.064   3.447  0.0933 -0.3997 -0.0816
50378SOL    HW155945   6.179   5.113   3.413 -0.3590 -1.0146 -0.0058
50378SOL    HW255946   6.324   5.081   3.385 -0.5392 -1.0089 -1.0077
50379SOL     OW55947   6.351   9.378  10.218  0.1181 -0.2393  0.1293
50379SOL    HW155948   6.291   9.435  10.266 -0.2076 -0.4165 -0.0626
50379SOL    HW255949   6.438   9.413  10.236 -0.1615  1.1918 -1.1001
50380SOL     OW55950   0.564   4.539  10.423 -0.2833 -0.3974 -0.0130
50380SOL    HW155951   0.543   4.446  10.416  4.2703 -1.6129 -0.6552
50380SOL    HW255952   0.550   4.574  10.335 -2.0104 -0.3931  0.2290
50381SOL     OW55953   5.617   3.998   6.169  0.2411 -0.3029  0.0702
50381SOL    HW155954   5.604   4.028   6.259  0.3557 -0.2568  0.0719
50381SOL    HW255955   5.677   3.923   6.177 -0.1716 -0.6391  0.0801
50382SOL     OW55956   9.803   1.597  11.111  0.0653 -0.0527  0.2931
50382SOL    HW155957   9.786   1.690  11.093  0.4416 -0.0538 -0.0724
50382SOL    HW255958   9.725   1.568  11.159  0.4300  0.7187  1.3862
50383SOL     OW55959  12.351   5.530   4.219  0.5150  0.9934  0.2019
50383SOL    HW155960  12.289   5.458   4.223  0.9539  0.6579  1.7746
50383SOL    HW255961  12.300   5.605   4.189 -0.6394  0.6912  1.3323
50384SOL     OW55962  11.901   9.735   0.011 -0.7376 -0.3386  0.4866
50384SOL    HW155963  11.822   9.764   0.056  1.2443  4.1971  1.5941
50384SOL    HW255964  11.963   9.807   0.021  3.1793 -3.0366 -1.4435
50385SOL     OW55965   4.958  11.175   1.167  0.0378  0.0952  0.2475
50385SOL    HW155966   4.882  11.176   1.110  0.1501 -0.7224  0.0694
50385SOL    HW255967   4.934  11.231   1.241 -1.0371 -0.7469  0.5590
50386SOL     OW55968   9.679   2.641   0.460 -0.2765  0.2404 -0.1102
50386SOL    HW155969   9.723   2.617   0.541  2.1635  0.4041 -1.2975
50386SOL    HW255970   9.646   2.558   0.425 -2.4190  0.3099  1.5468
50387SOL     OW55971   0.622   4.777   4.010  0.4354 -0.4547 -0.6086
50387SOL    HW155972   0.599   4.685   3.995  1.5193 -0.9460  0.5934
50387SOL    HW255973   0.568   4.802   4.085 -0.4043  0.1365 -1.3875
50388SOL     OW55974  10.260   6.850   4.851  0.0291  0.1624 -0.0854
50388SOL    HW155975  10.327   6.834   4.917 -1.1922 -0.9391  0.9399
50388SOL    HW255976  10.250   6.945   4.850 -0.5616  0.1919  2.0457
50389SOL     OW55977  11.062   5.611   3.277  0.0315 -0.1743  0.2645
50389SOL    HW155978  11.135   5.635   3.219 -0.2412 -0.9868 -0.4302
50389SOL    HW255979  11.084   5.652   3.361  1.3391 -0.4993  0.0991
50390SOL     OW55980   5.874   3.885   6.577 -0.1215  0.2214  0.3449
50390SOL    HW155981   5.791   3.865   6.533  0.7739 -0.1911 -1.2168
50390SOL    HW255982   5.865   3.977   6.603 -0.4387  0.7131 -1.3370
50391SOL     OW55983   8.037  12.479   5.101 -0.1263  0.1402 -0.9613
50391SOL    HW155984   8.077  12.393   5.110  0.6327  0.4117 -1.6094
50391SOL    HW255985   8.110  12.540   5.116 -0.6900  0.6768 -0.3258
50392SOL     OW55986   0.635   4.727   6.022  0.3879 -0.4264  0.0297
50392SOL    HW155987   0.560   4.671   6.039 -0.3465 -0.3622 -2.5470
50392SOL    HW255988   0.637   4.736   5.926  3.0708  0.4167  0.0760
50393SOL     OW55989   7.080   7.839  11.831 -0.1644  0.0553  0.5294
50393SOL    HW155990   7.011   7.898  11.859  1.4381  1.5866  1.4166
50393SOL    HW255991   7.059   7.756  11.873 -2.3885 -0.0635 -0.6503
50394SOL     OW55992   3.780   3.967   3.876 -0.3009 -0.3965  0.2837
50394SOL    HW155993   3.743   3.962   3.788 -0.8173 -1.1518  0.5327
50394SOL    HW255994   3.837   3.891   3.883 -1.3127 -1.1118  1.0566
50395SOL     OW55995   5.453   3.027   0.499 -0.2147 -0.1315  0.5335
50395SOL    HW155996   5.420   2.946   0.537 -0.0243 -0.2606  0.4229
50395SOL    HW255997   5.539   3.040   0.539 -0.0436 -0.2313  0.2088
50396SOL     OW55998   1.464  12.265   3.331 -0.0723  0.1865  0.9036
50396SOL    HW155999   1.533  12.207   3.361  0.0854 -0.5134 -0.6942
50396SOL    HW256000   1.397  12.206   3.295 -0.5712  0.9386  0.5772
50397SOL     OW56001  11.675   2.845  10.671  0.1196  0.4343  0.0181
50397SOL    HW156002  11.702   2.767  10.621 -1.5795  0.2895 -0.7462
50397SOL    HW256003  11.617   2.811  10.739  0.1037  0.9357  0.2575
50398SOL     OW56004   3.525  10.176   9.792 -0.2473 -0.2188  0.0061
50398SOL    HW156005   3.607  10.174   9.843 -0.8862  0.8878  1.1227
50398SOL    HW256006   3.456  10.174   9.858 -1.1207 -0.1921 -0.8884
50399SOL     OW56007  12.365  10.815   6.142 -0.4280  0.4814  0.1804
50399SOL    HW156008  12.391  10.803   6.050 -1.6172  0.9531 -0.2381
50399SOL    HW256009  12.403  10.740   6.188  2.0846  1.3580 -0.2568
50400SOL     OW56010   4.211   1.640   5.852 -0.4573 -0.3714  0.2411
50400SOL    HW156011   4.231   1.554   5.890 -0.7042 -0.7489 -0.4666
50400SOL    HW256012   4.135   1.625   5.796 -1.5965  0.6783  1.4526
50401SOL     OW56013   8.072   9.287   9.172  0.7466 -0.0979  0.1295
50401SOL    HW156014   8.091   9.233   9.248 -0.3541  0.0224  0.5025
50401SOL    HW256015   8.051   9.225   9.102 -0.0601 -0.1816  0.4342
50402SOL     OW56016   4.108   8.105  11.695  0.0349  0.6974 -0.0469
50402SOL    HW156017   4.198   8.074  11.678  0.3191  0.3699  1.8862
50402SOL    HW256018   4.057   8.071  11.621  1.2460 -0.2992 -0.4628
50403SOL     OW56019   6.391   8.787   8.481 -0.1751 -0.2693 -0.2879
50403SOL    HW156020   6.352   8.768   8.566 -0.6205  2.7382  0.2692
50403SOL    HW256021   6.452   8.859   8.498 -1.0625  1.1351 -2.6716
50404SOL     OW56022   8.738   4.406   4.986  0.2031  0.0314  0.5098
50404SOL    HW156023   8.750   4.377   5.077  2.1309 -0.3787  0.1796
50404SOL    HW256024   8.780   4.492   4.983  0.1854  0.0242  0.0121
50405SOL     OW56025   9.426   1.042   9.767  0.6538  0.0611 -0.0343
50405SOL    HW156026   9.440   1.045   9.673  1.0082  2.5756  0.0397
50405SOL    HW256027   9.331   1.041   9.778  0.4563 -4.1648 -0.3538
50406SOL     OW56028  11.176  11.456  11.225  0.4588 -0.6681 -0.3724
50406SOL    HW156029  11.150  11.375  11.270  1.9181 -0.6413  0.5801
50406SOL    HW256030  11.271  11.451  11.218  0.3720 -0.2634 -2.7616
50407SOL     OW56031   8.186   2.004   3.713  0.1342 -0.1720  0.2753
50407SOL    HW156032   8.163   2.095   3.726 -1.2321 -0.7105  2.1313
50407SOL    HW256033   8.113   1.966   3.664  0.9852 -0.1699 -1.0439
50408SOL     OW56034  10.547   8.972   4.552  0.1004 -0.5435  0.0324
50408SOL    HW156035  10.568   8.884   4.583  2.0674 -1.1060 -2.4779
50408SOL    HW256036  10.508   8.958   4.465 -1.2110  1.0279  0.3115
50409SOL     OW56037   3.375  11.173   0.268  0.4728 -0.8826 -0.2364
50409SOL    HW156038   3.305  11.231   0.237 -0.0756 -0.6998  1.2761
50409SOL    HW256039   3.446  11.233   0.291 -0.0757 -0.7805  1.2800
50410SOL     OW56040  11.070  11.175  11.000  0.0310  0.1509  0.6071
50410SOL    HW156041  11.066  11.256  10.949  2.5022 -1.0200 -1.7182
50410SOL    HW256042  11.163  11.165  11.021 -0.3363 -1.6472  1.5384
50411SOL     OW56043   8.998   3.402   1.632  0.2909 -0.1228 -0.4011
50411SOL    HW156044   9.044   3.383   1.550 -1.3668 -1.9286 -0.9980
50411SOL    HW256045   8.908   3.416   1.605 -0.1414 -0.0231  1.0656
50412SOL     OW56046  11.888   0.403  10.649  0.0212 -0.9399  0.0466
50412SOL    HW156047  11.917   0.394  10.558 -0.2626 -1.2763 -0.0093
50412SOL    HW256048  11.802   0.363  10.652 -0.6504  0.4490  0.1209
50413SOL     OW56049   0.703  11.566   8.159  0.5842  0.1600  0.4805
50413SOL    HW156050   0.692  11.596   8.249  1.4034  0.2554  0.5590
50413SOL    HW256051   0.720  11.472   8.167 -1.1680 -0.2110  0.2896
50414SOL     OW56052   4.315   8.721   8.079  0.0303 -0.1609 -0.7045
50414SOL    HW156053   4.300   8.634   8.043 -1.8256  0.1760 -0.8533
50414SOL    HW256054   4.283   8.716   8.169  1.1149  0.0281 -0.2988
50415SOL     OW56055   9.713  11.605   9.529 -0.0438 -0.0554  0.3566
50415SOL    HW156056   9.670  11.520   9.535  1.0990 -0.7003 -0.2426
50415SOL    HW256057   9.672  11.648   9.454  0.9464 -1.0316 -0.7794
50416SOL     OW56058   0.871   5.712   4.965 -0.8594 -0.2763  0.1488
50416SOL    HW156059   0.912   5.719   4.879  1.1521  0.2921  1.0898
50416SOL    HW256060   0.937   5.669   5.020 -0.9580  1.8159  2.0420
50417SOL     OW56061   5.677   2.244   4.270 -0.3308  0.2774 -0.4297
50417SOL    HW156062   5.756   2.264   4.219 -0.3531 -0.0223 -0.5866
50417SOL    HW256063   5.605   2.260   4.209 -0.2974 -1.6506 -1.0510
50418SOL     OW56064   4.293   3.643   0.735 -0.5078  0.3505  0.3894
50418SOL    HW156065   4.279   3.606   0.648  0.1732 -0.1994  0.4992
50418SOL    HW256066   4.265   3.573   0.795  0.0873  0.2872  0.6004
50419SOL     OW56067   4.968   7.148  11.582 -0.4113 -0.1176  0.3396
50419SOL    HW156068   4.900   7.105  11.633 -1.2644 -0.6186 -1.1642
50419SOL    HW256069   4.922   7.212  11.528  0.4368  0.2649  0.0394
50420SOL     OW56070   1.942   7.431  10.855  0.3158 -0.1570 -0.0541
50420SOL    HW156071   1.860   7.386  10.875  0.1430  0.8084  1.5278
50420SOL    HW256072   1.917   7.521  10.837  0.9076 -0.1592 -0.9842
50421SOL     OW56073   6.104   8.072   9.959  0.5447  0.1121  0.5620
50421SOL    HW156074   6.129   8.164   9.961  2.0434 -0.2701  2.3835
50421SOL    HW256075   6.172   8.030   9.907 -0.7485  0.1437 -1.2321
50422SOL     OW56076   3.157   6.027   3.080  0.0917 -0.2652 -0.5691
50422SOL    HW156077   3.234   6.079   3.058  0.2495  0.0701  0.7059
50422SOL    HW256078   3.120   6.070   3.157 -0.6672 -1.1358 -0.4297
50423SOL     OW56079   4.857   4.993   9.962  0.2177 -0.0784  0.2672
50423SOL    HW156080   4.803   5.043   9.900  0.9405  1.0812  0.5408
50423SOL    HW256081   4.893   4.921   9.910  2.6209  2.1044 -1.3623
50424SOL     OW56082   4.974   4.095   3.608 -1.1028  0.0221  0.3745
50424SOL    HW156083   5.009   4.046   3.683  1.7490  0.5309 -0.4918
50424SOL    HW256084   4.985   4.036   3.534 -2.2119  0.1979  0.0627
50425SOL     OW56085   5.613  11.474   8.091  0.5021  0.4404  0.1411
50425SOL    HW156086   5.573  11.391   8.065 -0.6636  1.3637 -1.2142
50425SOL    HW256087   5.605  11.476   8.186 -0.5648 -0.4606  0.0918
50426SOL     OW56088  10.562   3.295   9.349  0.2337  0.6069  0.4829
50426SOL    HW156089  10.511   3.359   9.300  1.1210  0.0229 -1.2954
50426SOL    HW256090  10.547   3.212   9.304  0.1569 -0.2020  1.9335
50427SOL     OW56091   2.484   7.916   9.430 -0.7277  0.8397  0.2469
50427SOL    HW156092   2.493   7.981   9.500 -2.1412  0.7942  0.5109
50427SOL    HW256093   2.391   7.893   9.431 -0.8823  1.1756 -1.9665
50428SOL     OW56094   2.849   5.169   1.285 -0.1480 -0.3034  0.5607
50428SOL    HW156095   2.916   5.237   1.281  0.0345 -0.4978  0.2188
50428SOL    HW256096   2.794   5.184   1.208 -0.5485 -0.0946  0.8846
50429SOL     OW56097   8.884   5.066   9.726  0.6586 -0.3151  0.0378
50429SOL    HW156098   8.936   5.020   9.660 -0.1288 -0.4865 -0.4783
50429SOL    HW256099   8.867   5.000   9.793  2.1640  0.0816  0.8408
50430SOL     OW56100  11.738   6.910   0.633 -0.1364 -0.0545 -0.2716
50430SOL    HW156101  11.801   6.981   0.619  0.8135 -1.0204 -1.2156
50430SOL    HW256102  11.700   6.927   0.718  2.0824  0.1108  0.7573
50431SOL     OW56103  11.497  10.636   0.870 -0.7343  0.7396  0.2863
50431SOL    HW156104  11.495  10.565   0.805  0.1474  1.8812 -1.0490
50431SOL    HW256105  11.406  10.665   0.876 -0.9855 -0.0227  0.2983
50432SOL     OW56106   3.292   1.232   1.685  0.0177 -0.1089  0.3157
50432SOL    HW156107   3.200   1.208   1.691 -0.1021 -0.1315 -1.1361
50432SOL    HW256108   3.340   1.149   1.696 -0.0685  0.0212  1.8938
50433SOL     OW56109   1.522  11.917   3.236 -0.1072 -0.5432 -0.3556
50433SOL    HW156110   1.508  11.881   3.148 -1.5239 -0.2042 -0.3007
50433SOL    HW256111   1.614  11.900   3.255  0.3590 -0.1476 -2.1234
50434SOL     OW56112   3.968  11.305   5.627 -0.6233  0.1049 -0.9385
50434SOL    HW156113   3.991  11.279   5.537  0.1922 -0.6364 -0.5320
50434SOL    HW256114   3.904  11.375   5.616 -1.2405 -0.6038 -2.0982
50435SOL     OW56115   9.222   5.063   7.062  0.0700  0.0106  0.4716
50435SOL    HW156116   9.205   5.095   6.973 -0.3606 -0.3773  0.4153
50435SOL    HW256117   9.316   5.075   7.073  0.2976 -0.8038 -0.3909
50436SOL     OW56118   0.939   5.340   0.309  0.3838 -0.6296 -0.1239
50436SOL    HW156119   0.921   5.377   0.222  2.7314 -1.3893 -1.0094
50436SOL    HW256120   1.018   5.386   0.338  0.8064 -1.8355  0.6919
50437SOL     OW56121  10.709   0.320   2.457  0.0976 -0.6530  0.4352
50437SOL    HW156122  10.792   0.279   2.479  0.1624 -0.0888  1.2793
50437SOL    HW256123  10.683   0.279   2.374  0.8438 -1.3662  0.5437
50438SOL     OW56124   0.197   6.338   5.427  0.0436 -0.4338  0.3647
50438SOL    HW156125   0.218   6.397   5.499 -2.5184  0.3708  0.5585
50438SOL    HW256126   0.102   6.348   5.415  0.3286 -0.6957 -2.9743
50439SOL     OW56127   5.611   3.694  10.669  0.4689  0.6892  0.1569
50439SOL    HW156128   5.625   3.625  10.734  2.2076 -1.2899 -2.1434
50439SOL    HW256129   5.516   3.708  10.669  0.1229 -1.2680  1.1524
50440SOL     OW56130   5.996   7.408  10.900  0.2056  0.0759  0.1173
50440SOL    HW156131   5.917   7.356  10.887 -1.2930  2.2930 -0.1794
50440SOL    HW256132   5.989   7.441  10.990  0.2123  1.1618 -0.2674
50441SOL     OW56133  10.833   6.618   8.743  0.0860  0.0825 -0.1415
50441SOL    HW156134  10.789   6.628   8.659 -2.9189 -0.4225  1.2331
50441SOL    HW256135  10.807   6.530   8.773  1.9034 -0.1506  0.8858
50442SOL     OW56136   7.957   4.299  11.318  0.3138 -0.2583  0.1289
50442SOL    HW156137   7.913   4.268  11.397 -0.4169 -0.8066 -0.4834
50442SOL    HW256138   7.891   4.348  11.271  0.5447 -0.5097 -0.4681
50443SOL     OW56139   3.859   4.366   2.022 -0.4198  0.1140 -0.6182
50443SOL    HW156140   3.945   4.408   2.018 -0.6663  1.1310  2.5451
50443SOL    HW256141   3.877   4.274   2.005  1.3288  0.2826  0.1072
50444SOL     OW56142   9.941   3.054   4.327  0.0177  0.4376 -0.3734
50444SOL    HW156143   9.907   2.964   4.330  1.0904  0.0077 -0.5618
50444SOL    HW256144  10.028   3.048   4.367 -0.0108  1.4521 -0.1396
50445SOL     OW56145   9.934  11.547   1.133  0.0340 -0.3053  0.2016
50445SOL    HW156146   9.880  11.610   1.180  0.5903 -0.3143  0.8579
50445SOL    HW256147   9.941  11.472   1.192 -0.3066 -0.8420 -0.4164
50446SOL     OW56148  10.532   0.004   0.183  0.2386 -0.5344 -0.0577
50446SOL    HW156149  10.538  -0.045   0.101 -2.0102 -0.7035 -0.1740
50446SOL    HW256150  10.490  -0.057   0.244  1.2940 -0.1834  1.0540
50447SOL     OW56151  12.171   2.127  10.837 -0.4719  0.0679  0.0405
50447SOL    HW156152  12.152   2.076  10.916 -1.4013  0.2940 -0.0327
50447SOL    HW256153  12.155   2.218  10.862  1.1758  0.3643  0.1693
50448SOL     OW56154   9.234   9.935   4.686 -0.0138  0.4978 -0.1702
50448SOL    HW156155   9.162   9.959   4.744  1.4508  0.4113  1.7959
50448SOL    HW256156   9.215   9.845   4.660 -0.4859  0.3721  0.5702
50449SOL     OW56157   2.075   4.004  12.551 -0.2023  0.6749 -0.3829
50449SOL    HW156158   2.038   3.923  12.585 -0.2550  0.8241 -0.0786
50449SOL    HW256159   1.999   4.059  12.534 -0.1301  0.9410  0.1359
50450SOL     OW56160   1.796  11.297   5.011 -0.1978  0.1512 -0.2006
50450SOL    HW156161   1.823  11.353   4.939 -0.8439  1.2172  0.3532
50450SOL    HW256162   1.833  11.340   5.089  0.6712 -1.0911  0.0972
50451SOL     OW56163  10.162   3.980  12.631  0.4671 -0.0040  0.2593
50451SOL    HW156164  10.145   4.075  12.629 -0.1058 -0.0929  0.5424
50451SOL    HW256165  10.173   3.956  12.540  0.1139  0.2531  0.1460
50452SOL     OW56166   7.832   7.949   4.422 -0.5285  0.1037 -0.3896
50452SOL    HW156167   7.770   7.991   4.363 -1.5657  1.7421  1.6988
50452SOL    HW256168   7.787   7.872   4.455 -0.7236  0.2559 -0.2985
50453SOL     OW56169  10.552   5.738   3.795 -0.4471  0.1309 -0.3700
50453SOL    HW156170  10.570   5.660   3.847 -1.9881 -0.5423 -0.7988
50453SOL    HW256171  10.460   5.729   3.770 -0.3585  1.5792 -1.2876
50454SOL     OW56172   9.672   2.868   1.933  0.0686 -0.3291  0.3870
50454SOL    HW156173   9.699   2.777   1.923 -0.0519 -0.1031 -2.8909
50454SOL    HW256174   9.754   2.917   1.944  0.3244 -0.6107 -0.2260
50455SOL     OW56175  11.536   8.346  11.565 -0.2037  0.0978 -0.0512
50455SOL    HW156176  11.449   8.307  11.579 -0.3966  1.0027  1.5067
50455SOL    HW256177  11.518   8.430  11.522 -0.0927  0.1567  0.0153
50456SOL     OW56178  11.716   5.752   7.712 -0.2294  0.0678 -0.0797
50456SOL    HW156179  11.686   5.694   7.642  2.0124 -0.0439 -1.0348
50456SOL    HW256180  11.803   5.782   7.683  0.7274  0.1272  2.5655
50457SOL     OW56181   5.980   5.593   5.056 -0.2775  0.0596  0.6017
50457SOL    HW156182   5.983   5.506   5.094  0.5229  0.2093  0.8958
50457SOL    HW256183   6.059   5.636   5.088 -1.6641  1.6092  2.1704
50458SOL     OW56184   7.255   1.086   4.185  0.5962 -0.1964 -0.1465
50458SOL    HW156185   7.318   1.015   4.194 -0.2055 -1.1775 -1.8166
50458SOL    HW256186   7.173   1.051   4.220  0.3117  0.0937 -0.5153
50459SOL     OW56187   0.398  11.299   6.612  0.3191  0.4724 -0.5043
50459SOL    HW156188   0.434  11.290   6.701 -2.5210 -0.8205  0.6258
50459SOL    HW256189   0.342  11.376   6.616 -3.9632 -2.3650  0.5713
50460SOL     OW56190  11.743   5.509   6.508  0.3141 -0.7652 -0.0567
50460SOL    HW156191  11.776   5.475   6.425 -1.0896 -1.2386 -0.4383
50460SOL    HW256192  11.755   5.437   6.570  0.5552 -0.7190 -0.0487
50461SOL     OW56193   1.526   8.335   7.310 -0.8603  0.4325  0.0209
50461SOL    HW156194   1.469   8.259   7.302 -1.8493  1.0657  0.7946
50461SOL    HW256195   1.533   8.350   7.405 -1.4246  1.8163 -0.1245
50462SOL     OW56196  11.316   4.191  11.756  0.3795 -0.0324  0.5918
50462SOL    HW156197  11.386   4.249  11.786  1.2295  0.6083 -2.2737
50462SOL    HW256198  11.238   4.246  11.754  1.1426  1.1125 -1.9219
50463SOL     OW56199   8.262   3.684   3.076  0.0325  0.5076  0.2291
50463SOL    HW156200   8.247   3.597   3.040 -1.6298  0.8364  0.0299
50463SOL    HW256201   8.181   3.704   3.124  0.3009  2.0075  0.0987
50464SOL     OW56202   7.633   5.937   4.745 -0.0535 -0.0311 -0.2267
50464SOL    HW156203   7.552   5.949   4.696 -0.2429  0.1550  0.1279
50464SOL    HW256204   7.667   6.026   4.756 -0.6827  0.0714  1.1084
50465SOL     OW56205   7.842   0.991   0.146  0.1492 -0.5756 -0.5963
50465SOL    HW156206   7.831   1.061   0.081 -0.4916  0.1230  0.2300
50465SOL    HW256207   7.761   0.940   0.140 -0.3807  0.1234  0.3630
50466SOL     OW56208   3.859  11.890   1.800  0.2244 -0.3198 -0.0820
50466SOL    HW156209   3.822  11.876   1.888  0.7500  0.4220  0.2665
50466SOL    HW256210   3.796  11.848   1.741 -1.7614  1.7641  0.3974
50467SOL     OW56211   9.494   3.196   7.888  0.4067  0.1713 -0.4386
50467SOL    HW156212   9.553   3.189   7.963  1.3159 -1.7695 -1.2655
50467SOL    HW256213   9.508   3.115   7.839  0.6345  1.7947 -3.2648
50468SOL     OW56214   5.747  11.476   7.827  0.0548 -0.9387  0.2406
50468SOL    HW156215   5.686  11.531   7.877 -0.8440 -1.3761 -0.3551
50468SOL    HW256216   5.829  11.526   7.826 -1.2556  1.3361 -1.9183
50469SOL     OW56217   1.450   7.287   2.942  0.2748  0.1003  0.1336
50469SOL    HW156218   1.468   7.194   2.953 -0.7192 -0.1076  0.1561
50469SOL    HW256219   1.386   7.291   2.870  1.1453  0.8588 -0.6355
50470SOL     OW56220   1.168   8.010   4.567 -0.1229 -0.2495 -0.5193
50470SOL    HW156221   1.162   7.969   4.652 -1.1461 -0.5769 -0.7418
50470SOL    HW256222   1.178   7.938   4.505 -2.4999 -0.2738 -0.9683
50471SOL     OW56223   9.390  10.583  10.457  0.2793  0.0219  0.2553
50471SOL    HW156224   9.425  10.589  10.547 -0.1445  0.4808  0.3935
50471SOL    HW256225   9.345  10.667  10.444  1.8141  0.6996 -1.0101
50472SOL     OW56226  11.079   7.838   1.618 -0.1537  0.1972  0.7886
50472SOL    HW156227  11.118   7.834   1.706  0.1412  2.6797  0.8380
50472SOL    HW256228  10.987   7.861   1.635 -0.1636  0.4029  0.4443
50473SOL     OW56229   6.590   4.045   2.357  0.1038  0.1514  0.9678
50473SOL    HW156230   6.537   4.123   2.376  1.9147  1.5561  0.5444
50473SOL    HW256231   6.596   4.000   2.441  1.0243  1.7989  1.8503
50474SOL     OW56232   0.775   1.400   5.715 -0.1013 -0.5577 -0.4062
50474SOL    HW156233   0.822   1.475   5.679  0.5570 -0.4463  0.6300
50474SOL    HW256234   0.714   1.438   5.778  0.6949 -0.9164  0.6058
50475SOL     OW56235   0.473   7.043   1.679  0.0900 -0.2122  0.3293
50475SOL    HW156236   0.512   7.071   1.762  0.7139  0.8039 -0.2796
50475SOL    HW256237   0.425   6.963   1.700  2.1076 -1.2527  1.2172
50476SOL     OW56238   3.632   9.048   6.072 -0.1947  0.1274  0.1828
50476SOL    HW156239   3.644   9.130   6.025 -1.3115  0.5511  0.6006
50476SOL    HW256240   3.588   9.073   6.153 -1.1336 -0.9477  0.0308
50477SOL     OW56241   6.071   8.626   1.837 -0.2573 -0.1709 -0.1968
50477SOL    HW156242   6.121   8.579   1.904  0.7919  1.1728 -0.0065
50477SOL    HW256243   6.132   8.690   1.801 -0.6903 -1.0588 -2.7061
50478SOL     OW56244   5.661   5.239  11.941 -0.3362  0.1985 -0.3203
50478SOL    HW156245   5.624   5.326  11.928  0.6705  0.6910  0.0409
50478SOL    HW256246   5.653   5.224  12.036 -0.4908 -0.1022 -0.3786
50479SOL     OW56247   7.128   6.083   4.671 -0.1244  0.1125 -0.4348
50479SOL    HW156248   7.108   6.057   4.761 -0.2078  0.0427 -0.4725
50479SOL    HW256249   7.153   6.001   4.628  1.0490  0.3265 -0.1822
50480SOL     OW56250   1.818   5.896  10.714 -0.1190 -0.4352 -0.0005
50480SOL    HW156251   1.748   5.881  10.777 -0.1240 -1.5070 -0.2405
50480SOL    HW256252   1.773   5.911  10.631 -0.1142  1.0257  0.2401
50481SOL     OW56253  11.219  10.813  10.969  0.4471  0.2910 -0.7937
50481SOL    HW156254  11.247  10.723  10.983 -0.1563 -0.1737 -2.3154
50481SOL    HW256255  11.293  10.854  10.923  0.3848  0.3192 -0.8686
50482SOL     OW56256   2.114   5.029   9.426  0.4670  0.6973 -0.2218
50482SOL    HW156257   2.036   5.083   9.430 -0.1062 -0.1005 -0.4486
50482SOL    HW256258   2.119   5.001   9.334 -0.5583 -1.4962  0.3178
50483SOL     OW56259   7.663   9.862   5.954 -0.6350  0.0487 -0.3860
50483SOL    HW156260   7.751   9.864   5.915  0.4828 -2.5751  1.6454
50483SOL    HW256261   7.669   9.919   6.031  0.9284 -3.3803  2.3570
50484SOL     OW56262   5.098   4.671   5.287  0.1643 -0.1287 -0.2214
50484SOL    HW156263   5.177   4.625   5.313  0.7107  0.0180 -1.5643
50484SOL    HW256264   5.029   4.632   5.340  0.7634 -1.8313 -0.6504
50485SOL     OW56265   8.480   1.328   9.934  0.3839  0.5053  0.3154
50485SOL    HW156266   8.451   1.254   9.987 -0.2369 -0.3886 -1.1828
50485SOL    HW256267   8.506   1.289   9.850  1.8561  1.7874  0.1141
50486SOL     OW56268   5.881   6.656  10.178 -0.1650 -0.0261  0.2953
50486SOL    HW156269   5.922   6.587  10.230 -0.0288  0.6016  1.0377
50486SOL    HW256270   5.924   6.737  10.207 -1.1745  0.5150  0.3302
50487SOL     OW56271   3.665   5.899   5.829 -0.0903 -0.1120 -0.3562
50487SOL    HW156272   3.620   5.826   5.871  0.8978 -0.3496  0.3468
50487SOL    HW256273   3.755   5.868   5.816  0.5590  1.2050  0.6279
50488SOL     OW56274   7.459   3.861  10.041 -0.4545 -0.0677 -0.0563
50488SOL    HW156275   7.517   3.790  10.068 -2.2443 -1.8633 -0.6948
50488SOL    HW256276   7.497   3.892   9.959  1.8513  1.6403  1.5313
50489SOL     OW56277   3.462   2.179  12.435 -0.2922  0.1991 -0.0080
50489SOL    HW156278   3.509   2.098  12.454 -1.2419 -0.6926 -1.2641
50489SOL    HW256279   3.372   2.162  12.462 -0.6496  0.5647 -0.9129
50490SOL     OW56280   6.371   7.282   4.484 -0.4163  0.2010 -0.1475
50490SOL    HW156281   6.343   7.352   4.542  0.1120  1.1650 -1.0283
50490SOL    HW256282   6.423   7.224   4.540 -1.8199 -0.1583  0.8607
50491SOL     OW56283  12.474   1.592   1.062  0.1883  0.4620 -0.0948
50491SOL    HW156284  12.478   1.673   1.112 -0.5275 -0.0554  0.8216
50491SOL    HW256285  12.381   1.569   1.060  0.6044 -1.9756  2.3599
50492SOL     OW56286  10.057   1.491   1.712 -0.1036 -0.3660 -0.1715
50492SOL    HW156287  10.149   1.472   1.692  0.1118 -0.3597  0.7627
50492SOL    HW256288  10.061   1.546   1.791 -0.9168 -0.6237  0.0534
50493SOL     OW56289   3.949   1.898   5.466  0.3346  0.1839 -0.1940
50493SOL    HW156290   3.914   1.860   5.546 -1.3014  1.7782 -0.0629
50493SOL    HW256291   3.947   1.993   5.482  1.1269  0.4831 -1.6715
50494SOL     OW56292   3.549  11.068   7.322 -0.0182  0.0968 -0.0301
50494SOL    HW156293   3.611  11.140   7.331 -0.4929  0.4065  0.8475
50494SOL    HW256294   3.575  11.005   7.389 -1.3385  0.7531  1.1363
50495SOL     OW56295   1.422   3.557   4.307  0.5192 -0.2676  0.0981
50495SOL    HW156296   1.501   3.600   4.274  1.1939 -0.5247  1.3001
50495SOL    HW256297   1.413   3.591   4.396 -0.3414 -0.7628  0.2032
50496SOL     OW56298  12.228   9.681   3.760 -0.4312 -0.0530  0.3073
50496SOL    HW156299  12.238   9.762   3.811 -0.5279 -0.8246  1.5917
50496SOL    HW256300  12.137   9.683   3.730 -0.8124 -0.2584  1.3876
50497SOL     OW56301   2.522   2.396  10.562  0.4848 -0.6489  0.0053
50497SOL    HW156302   2.444   2.379  10.614 -0.1430 -0.3713 -0.8345
50497SOL    HW256303   2.592   2.347  10.607  0.4184  1.1629  2.2551
50498SOL     OW56304   2.053   9.292   9.345 -0.0379  0.3866  0.1540
50498SOL    HW156305   1.978   9.238   9.321 -0.6351  1.2903 -0.0688
50498SOL    HW256306   2.073   9.267   9.436 -0.4516 -0.0271  0.1341
50499SOL     OW56307   2.210   8.950   5.081 -0.3070 -0.2206 -0.1836
50499SOL    HW156308   2.267   8.995   5.143 -0.7691  0.2396 -0.0902
50499SOL    HW256309   2.129   8.934   5.130 -0.1763 -1.1080 -0.2298
50500SOL     OW56310  10.720   1.695   7.922  0.3939  0.8440 -0.3825
50500SOL    HW156311  10.662   1.762   7.959  1.3458  0.6658  1.5385
50500SOL    HW256312  10.775   1.743   7.860  0.6161  1.7304  0.4800
50501SOL     OW56313   0.014   4.206   1.922 -0.0238 -0.4469  0.3401
50501SOL    HW156314   0.095   4.189   1.971  0.4247 -2.6281 -1.0348
50501SOL    HW256315  -0.040   4.257   1.983  1.5755 -0.6492  2.0436
50502SOL     OW56316   1.121   5.914   2.254 -0.1610  0.2281  0.0550
50502SOL    HW156317   1.166   5.992   2.285 -0.3919  1.1722 -1.7996
50502SOL    HW256318   1.189   5.863   2.209 -0.1529 -0.3103  0.6626
50503SOL     OW56319   6.132   0.592   7.420  0.8368  0.5542  0.3794
50503SOL    HW156320   6.138   0.678   7.460  0.3204 -0.6143  3.1858
50503SOL    HW256321   6.197   0.539   7.466  0.0578 -0.9347 -0.1578
50504SOL     OW56322   5.810   2.879   1.514 -0.4495  0.1036  0.0095
50504SOL    HW156323   5.726   2.910   1.480 -1.6615 -2.4811  0.4330
50504SOL    HW256324   5.787   2.813   1.579  1.9246 -0.1934  0.6362
50505SOL     OW56325  10.720   9.130   4.689 -1.0452  0.0289 -0.0412
50505SOL    HW156326  10.693   9.098   4.775 -0.2090 -0.1815  0.1597
50505SOL    HW256327  10.670   9.078   4.626 -1.5773  0.1027  0.3159
50506SOL     OW56328   3.960   3.858   6.073  0.0723  0.1288 -0.4809
50506SOL    HW156329   4.054   3.841   6.069 -0.2290 -1.3754 -2.5688
50506SOL    HW256330   3.934   3.869   5.982 -1.9888 -0.6971 -0.0350
50507SOL     OW56331   1.507   2.668   1.376  0.2345 -0.0994 -1.0599
50507SOL    HW156332   1.541   2.749   1.414 -1.6566  1.1927 -1.9321
50507SOL    HW256333   1.583   2.610   1.369  1.2379  0.7257  1.6747
50508SOL     OW56334   5.502   4.406   3.462 -0.3001  0.3293 -0.5489
50508SOL    HW156335   5.541   4.319   3.475 -0.1967  0.6337  1.6138
50508SOL    HW256336   5.505   4.446   3.549 -2.7470  1.5068 -0.9298
50509SOL     OW56337   6.093   6.772   0.510  0.7025  0.1156  0.3964
50509SOL    HW156338   6.081   6.856   0.555 -3.1758  0.1344 -0.4083
50509SOL    HW256339   6.159   6.791   0.443  1.6699  1.8245  1.7237
50510SOL     OW56340   1.149  11.671   9.645  0.1777 -0.0171  0.0689
50510SOL    HW156341   1.189  11.725   9.713  1.8914  1.4114 -1.9318
50510SOL    HW256342   1.223  11.635   9.596 -0.9869 -1.3778 -0.7913
50511SOL     OW56343   3.832  10.704   5.914  0.1287 -0.7659  0.2057
50511SOL    HW156344   3.842  10.621   5.867  0.8249 -0.6143  0.0668
50511SOL    HW256345   3.898  10.701   5.983 -0.6019 -0.8012  0.9213
50512SOL     OW56346   8.387   3.830   2.105 -0.3915  0.0537 -0.2514
50512SOL    HW156347   8.324   3.832   2.032 -0.2936  0.3343 -0.3316
50512SOL    HW256348   8.339   3.788   2.176 -0.7774  0.5234 -0.2207
50513SOL     OW56349   0.846   1.932   8.636 -0.0450  0.4992  0.1282
50513SOL    HW156350   0.899   1.855   8.652 -0.2440  0.6177  1.4322
50513SOL    HW256351   0.817   1.961   8.722 -2.5300  0.2363 -0.5356
50514SOL     OW56352   9.589   7.148   1.943 -0.9564  0.2128 -0.9509
50514SOL    HW156353   9.495   7.167   1.955 -0.4037  1.5546  2.3136
50514SOL    HW256354   9.622   7.223   1.894 -1.3373  0.5803 -0.6655
50515SOL     OW56355   2.712   9.231   5.854  0.3964 -0.6188  0.0320
50515SOL    HW156356   2.623   9.219   5.819  0.6448 -0.9724 -0.5034
50515SOL    HW256357   2.714   9.321   5.886 -0.5010 -0.9511  1.0859
50516SOL     OW56358   6.726   7.238  12.126 -0.1697  0.2183 -0.1981
50516SOL    HW156359   6.710   7.196  12.042 -0.2694 -0.6911  0.2568
50516SOL    HW256360   6.738   7.165  12.187 -2.3040  0.7948  1.0115
50517SOL     OW56361  10.290   8.145   2.906  0.0499  0.1119 -0.1801
50517SOL    HW156362  10.288   8.076   2.840  0.0395  0.7412 -0.8605
50517SOL    HW256363  10.310   8.225   2.856 -2.7832  1.1246  0.1033
50518SOL     OW56364   2.672   7.760   0.074  0.6827 -0.3738 -0.2643
50518SOL    HW156365   2.743   7.698   0.092  1.7921  1.5618  2.8458
50518SOL    HW256366   2.717   7.840   0.049 -0.3909  0.6981  1.1109
50519SOL     OW56367   8.393   8.810   6.594 -0.3836 -0.7533 -0.3777
50519SOL    HW156368   8.473   8.784   6.640 -0.0596 -0.3787 -0.7270
50519SOL    HW256369   8.348   8.868   6.656  1.0593  1.4522 -1.2801
50520SOL     OW56370  10.527  11.552   3.701 -0.0237  0.0170 -0.4968
50520SOL    HW156371  10.607  11.522   3.657 -0.0314  1.0866 -1.2689
50520SOL    HW256372  10.459  11.545   3.633 -0.4120 -0.0519 -0.1055
50521SOL     OW56373   6.641   8.482   2.800  0.1411  0.0136  0.4640
50521SOL    HW156374   6.632   8.551   2.865  1.7540  1.7561 -1.0396
50521SOL    HW256375   6.694   8.415   2.843 -0.0775  0.4402  1.4114
50522SOL     OW56376   8.600   1.199   6.359 -0.3277  0.8444 -0.0311
50522SOL    HW156377   8.540   1.270   6.338  1.5635  2.5223 -0.1668
50522SOL    HW256378   8.649   1.231   6.435  0.8183 -0.1550 -0.3141
50523SOL     OW56379   9.413   4.322   5.908 -0.1055 -0.2820 -0.3818
50523SOL    HW156380   9.468   4.290   5.980 -1.5051  0.1564  0.9451
50523SOL    HW256381   9.422   4.417   5.912 -1.8127 -0.1026  0.6638
50524SOL     OW56382  10.472   1.889   3.063  0.1900 -0.2611 -0.0033
50524SOL    HW156383  10.498   1.868   3.152  0.9908 -1.8463 -0.5756
50524SOL    HW256384  10.399   1.829   3.045  1.8047 -1.9714 -1.2941
50525SOL     OW56385   2.873   5.990   6.174  0.0932 -0.0008  0.2714
50525SOL    HW156386   2.948   6.050   6.179 -0.9289  1.2958  0.4323
50525SOL    HW256387   2.872   5.946   6.259 -0.0838  0.9071  0.7433
50526SOL     OW56388  10.083   0.997   4.381 -0.4036 -0.0706  0.2015
50526SOL    HW156389  10.100   0.978   4.288 -0.3506 -0.2335  0.2433
50526SOL    HW256390  10.135   0.932   4.428 -0.8327 -0.3192  0.3398
50527SOL     OW56391   3.818   0.755  11.605 -0.4859 -0.4703  0.2542
50527SOL    HW156392   3.901   0.755  11.652 -0.2150 -0.0666 -0.2098
50527SOL    HW256393   3.829   0.822  11.538 -0.4367 -1.8479 -1.1521
50528SOL     OW56394  11.278  11.481  10.753  0.2638  0.2935  0.1756
50528SOL    HW156395  11.239  11.552  10.804 -1.0116  0.0498 -0.4194
50528SOL    HW256396  11.369  11.506  10.743  0.7715  0.0200  3.1641
50529SOL     OW56397   7.591   3.605   8.897 -0.2458 -0.0044  0.3422
50529SOL    HW156398   7.501   3.573   8.889 -0.5716  1.1485 -1.1060
50529SOL    HW256399   7.627   3.597   8.809  0.5708  0.9406  0.5775
50530SOL     OW56400   8.608   8.999   4.065 -0.2324  0.1851 -0.0804
50530SOL    HW156401   8.587   9.029   3.976 -1.0703 -4.1414 -1.5697
50530SOL    HW256402   8.691   8.951   4.055  0.4487  0.8717  1.8351
50531SOL     OW56403   1.795   9.527   1.311  0.2382  0.2046 -0.2991
50531SOL    HW156404   1.863   9.529   1.244  0.8522  0.6488  0.3260
50531SOL    HW256405   1.828   9.584   1.381  0.6434 -1.9710  1.3711
50532SOL     OW56406  10.543   5.701   6.387 -0.2220  0.5180 -0.5640
50532SOL    HW156407  10.598   5.779   6.385  1.4169 -0.5744  0.2753
50532SOL    HW256408  10.491   5.711   6.467  1.8766 -0.4405  1.0015
50533SOL     OW56409   2.780  12.394   2.520  0.2372  0.3011 -0.5683
50533SOL    HW156410   2.746  12.475   2.481  2.9951  1.4239 -0.8288
50533SOL    HW256411   2.810  12.421   2.607 -0.3996 -0.8687  0.0306
50534SOL     OW56412   8.083  11.120   3.807  0.1984 -0.4324 -0.2112
50534SOL    HW156413   8.100  11.214   3.814 -1.6161  0.1082 -2.1007
50534SOL    HW256414   8.103  11.099   3.716 -1.0945 -1.4675 -0.2834
50535SOL     OW56415   6.633   0.401   1.161  0.2488  0.6374 -0.3816
50535SOL    HW156416   6.545   0.384   1.195  0.7315 -0.1523  0.5471
50535SOL    HW256417   6.619   0.450   1.080 -1.0549  0.0816 -0.5159
50536SOL     OW56418   7.313   2.486   0.850  0.4843 -0.6776  0.5033
50536SOL    HW156419   7.347   2.452   0.767  0.4539 -0.2742  0.3218
50536SOL    HW256420   7.219   2.498   0.835  1.0407  3.3714 -0.8625
50537SOL     OW56421   1.040  10.274   7.466 -0.8824 -0.4129 -0.1923
50537SOL    HW156422   1.062  10.367   7.470 -0.3267 -0.4243 -1.9446
50537SOL    HW256423   1.089  10.235   7.538  2.2986  0.0993 -1.8695
50538SOL     OW56424   0.984   4.056   3.568 -0.6157 -0.8989  0.3893
50538SOL    HW156425   0.946   4.130   3.615  0.0515 -0.8978  0.9409
50538SOL    HW256426   0.911   4.019   3.518 -1.1230 -0.3337  0.7032
50539SOL     OW56427   8.442   9.076   9.720 -0.7467 -0.2774 -0.1680
50539SOL    HW156428   8.511   9.085   9.655 -0.4202 -0.6321  0.1232
50539SOL    HW256429   8.441   8.982   9.741 -0.1214 -0.0152  1.1254
50540SOL     OW56430   4.930   6.129  10.487 -0.0847 -0.4223 -0.7136
50540SOL    HW156431   5.004   6.181  10.521 -0.2997 -0.9452  0.5975
50540SOL    HW256432   4.911   6.169  10.402 -0.7190  2.1869  0.5257
50541SOL     OW56433   2.243   8.707   7.345  0.1057  0.0112 -0.3751
50541SOL    HW156434   2.266   8.640   7.410 -0.0162  0.4319  0.1157
50541SOL    HW256435   2.294   8.784   7.372 -0.9976  0.6184  0.0707
50542SOL     OW56436   9.145   9.363   9.313  0.0265 -0.1408 -0.0706
50542SOL    HW156437   9.209   9.299   9.281  2.0893  0.3727  2.6812
50542SOL    HW256438   9.174   9.446   9.274 -0.8637 -0.3545 -1.2500
50543SOL     OW56439   0.279  12.208   7.557  0.5102  0.3776  0.4242
50543SOL    HW156440   0.307  12.123   7.592  1.5729  0.8092  0.6828
50543SOL    HW256441   0.263  12.261   7.635 -2.2423 -0.1818  0.3156
50544SOL     OW56442  10.078   7.487   0.118  0.0092  0.6887 -0.2078
50544SOL    HW156443  10.084   7.404   0.071  0.6709  1.7975 -2.2073
50544SOL    HW256444  10.099   7.465   0.208 -1.3864 -1.5612 -0.3500
50545SOL     OW56445  10.142  10.109  11.776  0.5060  0.1567  0.0528
50545SOL    HW156446  10.175  10.066  11.697 -0.4318 -1.0742  0.2939
50545SOL    HW256447  10.211  10.169  11.802  1.9990 -1.3867 -0.1902
50546SOL     OW56448   9.646  10.696   9.099 -0.2846 -0.1308 -0.5360
50546SOL    HW156449   9.640  10.712   9.193  2.2591 -0.9520 -0.1320
50546SOL    HW256450   9.737  10.719   9.077 -0.0059 -2.4785 -2.2184
50547SOL     OW56451   7.266   8.953   6.110 -0.3451  0.0858  0.4310
50547SOL    HW156452   7.244   8.867   6.146  1.0623 -0.0575  0.9882
50547SOL    HW256453   7.269   9.011   6.186 -4.2647  1.3930 -0.1834
50548SOL     OW56454  10.080   9.837   2.591  0.0263  0.0140 -0.5561
50548SOL    HW156455   9.987   9.822   2.576  0.4825 -3.0132 -1.1366
50548SOL    HW256456  10.098   9.923   2.554 -2.8526  1.5946  1.3234
50549SOL     OW56457   8.403   3.362   6.253  0.4332 -0.3791  0.4746
50549SOL    HW156458   8.489   3.323   6.239  0.9369  1.1203 -0.8839
50549SOL    HW256459   8.409   3.450   6.214 -1.3456  0.2018  1.3897
50550SOL     OW56460   6.344   4.287   1.399  0.4084 -0.1396 -0.0143
50550SOL    HW156461   6.257   4.247   1.404 -0.3089  1.4043  0.6974
50550SOL    HW256462   6.393   4.250   1.472  0.3989 -1.0971 -0.4833
50551SOL     OW56463   2.397   3.310   9.825 -0.4277  0.2390  0.1329
50551SOL    HW156464   2.314   3.308   9.778  0.7250  0.2007 -2.0526
50551SOL    HW256465   2.455   3.255   9.772  0.6396 -0.8813  2.3469
50552SOL     OW56466   4.083   7.596   8.342  0.2988  0.4827 -0.7337
50552SOL    HW156467   4.141   7.612   8.417 -1.4389 -0.1423  0.8190
50552SOL    HW256468   3.999   7.573   8.381 -0.1815 -1.8571 -2.8412
50553SOL     OW56469   7.247   1.970   0.654  0.1780  0.2660 -0.1954
50553SOL    HW156470   7.179   1.915   0.694 -1.0186  2.7962  1.4916
50553SOL    HW256471   7.198   2.030   0.598  1.1647  1.2221 -0.0613
50554SOL     OW56472   9.050   0.115   8.653  0.1508 -0.1193  0.7592
50554SOL    HW156473   9.124   0.077   8.701  0.2499 -1.1403 -0.1608
50554SOL    HW256474   8.976   0.106   8.714  0.0843 -2.1959  0.4573
50555SOL     OW56475   1.648   6.320   2.339 -0.5362 -0.5636 -0.1909
50555SOL    HW156476   1.692   6.309   2.255 -2.4396 -0.1433 -1.3179
50555SOL    HW256477   1.714   6.359   2.396  1.1188 -1.8357 -1.1466
50556SOL     OW56478   5.627   4.800   6.227  0.6763 -0.2493 -0.2006
50556SOL    HW156479   5.606   4.829   6.138  0.3898  1.6758  0.4324
50556SOL    HW256480   5.660   4.879   6.270 -1.3126 -0.5326  2.0624
50557SOL     OW56481  11.930   1.607   1.922 -0.0280 -0.5355  0.6374
50557SOL    HW156482  12.006   1.579   1.872  0.3139  1.4774 -0.0742
50557SOL    HW256483  11.857   1.603   1.860 -0.2514 -1.1922  0.9377
50558SOL     OW56484   7.810  11.168   7.983  1.0698  0.0165  0.3970
50558SOL    HW156485   7.902  11.141   7.984  1.4393  1.1626 -0.4126
50558SOL    HW256486   7.795  11.207   8.069  1.3443 -0.1434  0.5175
50559SOL     OW56487   2.702  10.473   0.536 -0.9525  0.1557  0.1502
50559SOL    HW156488   2.683  10.424   0.616 -0.8854 -0.6640 -0.3263
50559SOL    HW256489   2.719  10.406   0.470 -1.1092  0.8200 -0.5796
50560SOL     OW56490   1.983   9.502  11.806  0.1179  0.2722  0.1229
50560SOL    HW156491   2.071   9.472  11.785 -0.6057 -1.6947 -0.3490
50560SOL    HW256492   1.931   9.421  11.811 -1.4697  1.3086  1.2893
50561SOL     OW56493  11.054  12.347   7.088 -0.4412  0.0679 -0.2796
50561SOL    HW156494  10.965  12.315   7.079 -1.1961  1.4118  1.8383
50561SOL    HW256495  11.088  12.304   7.166  0.9959 -0.8428 -1.3586
50562SOL     OW56496  10.872  10.079   5.258  0.5992 -0.5273 -0.2347
50562SOL    HW156497  10.819  10.023   5.200 -0.9841  1.3272 -0.6715
50562SOL    HW256498  10.953  10.094   5.210  0.9114 -2.1160 -0.2583
50563SOL     OW56499   0.193   6.712   6.027  0.0365  0.1660  0.6754
50563SOL    HW156500   0.260   6.667   5.975 -2.3611 -1.8560 -0.8879
50563SOL    HW256501   0.169   6.789   5.975 -0.2093 -0.1676  0.2957
50564SOL     OW56502   4.601   4.437  12.168  0.0840  0.1184 -0.3172
50564SOL    HW156503   4.582   4.461  12.259 -1.5023  1.2024 -0.8834
50564SOL    HW256504   4.687   4.395  12.171  0.1649  0.3527  1.6411
50565SOL     OW56505  11.763   2.892   7.430  0.4059 -0.2652  0.5519
50565SOL    HW156506  11.694   2.923   7.489  0.6124 -0.7176  1.0378
50565SOL    HW256507  11.734   2.805   7.404  1.0209 -0.6478  1.1316
50566SOL     OW56508   4.094   3.176   6.461 -0.0970 -0.2497  0.3175
50566SOL    HW156509   4.149   3.252   6.478 -1.9676  1.3508 -0.3679
50566SOL    HW256510   4.115   3.149   6.372 -0.9763  0.8901 -0.2547
50567SOL     OW56511   7.566   1.078   8.825 -0.0516 -0.4558 -0.2331
50567SOL    HW156512   7.511   1.109   8.753 -0.7785  1.4539  1.0601
50567SOL    HW256513   7.654   1.108   8.802 -0.4639  1.1586  0.1590
50568SOL     OW56514   1.612   4.670   1.766  0.3374 -0.2910 -0.1537
50568SOL    HW156515   1.596   4.763   1.781 -0.7819 -0.6247  0.8427
50568SOL    HW256516   1.610   4.660   1.671  1.2447  0.8171 -0.3087
50569SOL     OW56517   5.626   6.609   4.671 -0.4038 -0.0303 -0.6603
50569SOL    HW156518   5.703   6.557   4.649  0.2939  0.4272  0.5685
50569SOL    HW256519   5.661   6.687   4.714 -1.4611  1.1745 -1.8836
50570SOL     OW56520  10.023   5.782   6.267 -0.1085 -0.3721  0.2249
50570SOL    HW156521   9.980   5.708   6.224  1.0611 -0.4503 -0.8559
50570SOL    HW256522   9.959   5.853   6.262 -0.3279 -0.6314 -0.8784
50571SOL     OW56523   6.088   1.194   3.695  0.1315  0.1835  0.7857
50571SOL    HW156524   6.044   1.155   3.619 -0.8296  2.2823  0.1724
50571SOL    HW256525   6.078   1.130   3.765  3.1222 -2.9618 -1.3368
50572SOL     OW56526   4.981   0.270  10.070 -0.1612 -0.2623 -0.2878
50572SOL    HW156527   4.940   0.296   9.987  0.4549 -1.0643 -0.8641
50572SOL    HW256528   4.930   0.193  10.098 -0.3791  0.0190  0.0883
50573SOL     OW56529   3.073   2.400   9.424 -0.0926  0.1467  0.4403
50573SOL    HW156530   2.979   2.384   9.418  0.3132 -2.8307  0.6744
50573SOL    HW256531   3.101   2.350   9.501  1.7029  1.0278  0.4100
50574SOL     OW56532  12.065   0.246  11.074  0.0015  0.0146  0.7469
50574SOL    HW156533  12.129   0.271  11.007  0.0184  2.5347  1.6172
50574SOL    HW256534  11.980   0.264  11.034 -0.0271  0.2859  0.9238
50575SOL     OW56535   0.005  10.322   8.478 -0.1873  0.0211 -0.2110
50575SOL    HW156536  -0.083  10.297   8.504  0.5235  0.0522  2.5856
50575SOL    HW256537  -0.002  10.415   8.454 -1.0530 -0.2093 -0.8710
50576SOL     OW56538   4.384  10.594   7.863  0.6873 -0.8485 -0.5666
50576SOL    HW156539   4.465  10.606   7.813  1.1296  0.0857  0.3318
50576SOL    HW256540   4.346  10.514   7.828  1.5526 -0.8230 -1.6141
50577SOL     OW56541   8.123   5.793   2.049 -0.4444  0.3884  0.3192
50577SOL    HW156542   8.126   5.729   1.977  0.0911 -0.5905  1.1877
50577SOL    HW256543   8.048   5.766   2.102 -2.3245  2.4939 -1.0639
50578SOL     OW56544   6.996   9.103   1.549 -0.0041  0.2799  0.0700
50578SOL    HW156545   7.018   9.178   1.604  0.9814 -0.5214  0.8085
50578SOL    HW256546   7.042   9.030   1.589 -1.5262 -0.8859 -0.2090
50579SOL     OW56547   6.251   5.091   1.032  0.3503  0.1634 -0.5872
50579SOL    HW156548   6.279   5.169   1.080  1.3553 -0.0129 -0.8489
50579SOL    HW256549   6.333   5.052   1.001 -0.0407 -1.5799  0.4198
50580SOL     OW56550   1.076   4.274   9.329  0.5994 -0.0036 -0.7441
50580SOL    HW156551   1.107   4.260   9.419  0.2055 -0.4694 -0.6768
50580SOL    HW256552   1.128   4.213   9.277 -0.4996 -1.1241 -0.5695
50581SOL     OW56553   7.371   9.998   9.375  0.0639 -0.0970  0.5129
50581SOL    HW156554   7.390  10.014   9.282 -0.9879  0.5262  0.3879
50581SOL    HW256555   7.401   9.908   9.390  0.2725 -0.1977 -0.4228
50582SOL     OW56556   7.636   3.161   2.385 -0.4242 -0.9080  0.0886
50582SOL    HW156557   7.688   3.138   2.307 -0.1233 -1.4258  0.4325
50582SOL    HW256558   7.571   3.091   2.390 -0.0337 -1.2358  0.6686
50583SOL     OW56559   8.055   1.641   5.478 -0.0541  0.3417 -0.1204
50583SOL    HW156560   7.984   1.689   5.435 -1.2344 -1.8060 -0.7080
50583SOL    HW256561   8.134   1.668   5.432 -0.8583  0.6599 -1.3737
50584SOL     OW56562   9.508  12.490   2.822 -0.0702  0.2261  0.5332
50584SOL    HW156563   9.566  12.505   2.896  0.8495  0.3954 -0.1933
50584SOL    HW256564   9.494  12.396   2.821 -0.2027  0.2386  1.0007
50585SOL     OW56565   5.437  10.018   1.412  0.1025  0.0206 -0.0746
50585SOL    HW156566   5.439  10.108   1.380  0.6790  0.0138 -0.0755
50585SOL    HW256567   5.481  10.022   1.497 -1.5507  0.0692  0.8272
50586SOL     OW56568   3.408   6.760   7.375 -0.2439  0.4338 -0.9245
50586SOL    HW156569   3.328   6.743   7.425  0.7906 -0.6289  0.4615
50586SOL    HW256570   3.415   6.686   7.315 -0.0637  0.2813 -0.7168
50587SOL     OW56571   3.751   4.916   9.347 -0.0840 -0.2014 -0.3089
50587SOL    HW156572   3.672   4.878   9.310  0.2744 -0.9254 -0.3559
50587SOL    HW256573   3.775   4.856   9.419  0.7514 -0.3404 -0.6852
50588SOL     OW56574   6.841   8.785   9.750  0.2511  0.7312 -0.3463
50588SOL    HW156575   6.819   8.698   9.715  1.6152  0.6138 -0.9961
50588SOL    HW256576   6.788   8.845   9.699 -0.0867  0.3323 -0.4700
50589SOL     OW56577   2.313   0.359   7.915 -0.2369 -0.4268 -0.1188
50589SOL    HW156578   2.355   0.344   7.999 -0.9531 -0.2851  0.2656
50589SOL    HW256579   2.308   0.271   7.876 -1.6769 -0.7952  0.8347
50590SOL     OW56580   0.887  10.941  12.119  0.6249 -0.2754  0.2441
50590SOL    HW156581   0.849  11.004  12.181  0.5995  0.2632 -0.3086
50590SOL    HW256582   0.895  10.990  12.037  2.8461 -0.2582  0.4123
50591SOL     OW56583   5.523   0.516   7.163 -0.0526 -0.1890  0.0484
50591SOL    HW156584   5.466   0.582   7.203 -1.3841 -1.1816 -0.1262
50591SOL    HW256585   5.605   0.522   7.212  0.0215  1.8607 -0.2372
50592SOL     OW56586   8.563   9.117   2.936 -0.0611 -0.1663 -0.3131
50592SOL    HW156587   8.487   9.136   2.882 -0.3292 -1.7088 -0.5278
50592SOL    HW256588   8.555   9.175   3.012 -1.1507  0.0695 -0.6016
50593SOL     OW56589   8.885   0.138  11.240  0.1010  0.2345  0.1208
50593SOL    HW156590   8.935   0.220  11.246 -0.2803  0.4636  0.1786
50593SOL    HW256591   8.795   0.163  11.260 -0.1208 -0.0946 -0.4418
50594SOL     OW56592   6.419   9.570   3.425  0.0902 -0.1502 -0.1672
50594SOL    HW156593   6.470   9.537   3.498  0.1999  0.5873  0.0908
50594SOL    HW256594   6.358   9.632   3.464  0.8100  0.9958 -0.8083
50595SOL     OW56595   3.729   2.639   4.780 -0.0489  0.1120 -0.3611
50595SOL    HW156596   3.758   2.547   4.786 -0.5230 -0.0064  0.1859
50595SOL    HW256597   3.765   2.680   4.859 -0.5976  0.1801 -0.1454
50596SOL     OW56598   9.738   3.089   9.452  0.4482  0.1719 -0.0067
50596SOL    HW156599   9.761   3.175   9.487 -0.7536  0.8867 -0.9113
50596SOL    HW256600   9.794   3.079   9.374 -0.2976  0.7005 -0.6223
50597SOL     OW56601   4.455  10.471   6.739  0.2168  0.1406  0.2500
50597SOL    HW156602   4.365  10.439   6.746  0.0177  0.7530  0.6134
50597SOL    HW256603   4.488  10.468   6.829  0.6634 -0.3675  0.0720
50598SOL     OW56604  10.093   0.867  11.870  0.2234  0.1038 -0.5628
50598SOL    HW156605  10.029   0.904  11.808 -1.5801 -3.2017 -0.8880
50598SOL    HW256606  10.041   0.812  11.928  2.2856  0.7755  2.1378
50599SOL     OW56607   4.767   6.337   6.678 -0.2037  0.5091  0.3966
50599SOL    HW156608   4.687   6.304   6.639  1.2068 -0.2118 -2.1339
50599SOL    HW256609   4.801   6.264   6.728 -0.0676  0.0651 -0.3261
50600SOL     OW56610   3.593  12.118  11.722  0.0627 -0.3707 -0.0662
50600SOL    HW156611   3.533  12.051  11.689  0.7076 -1.3780  0.7473
50600SOL    HW256612   3.668  12.069  11.755 -0.3808  0.5548  2.6096
50601SOL     OW56613   9.526   3.954   5.376 -0.2722  0.1015 -0.1151
50601SOL    HW156614   9.454   4.016   5.365  0.4241  1.0778  0.6118
50601SOL    HW256615   9.506   3.883   5.315 -1.7062  0.4726 -0.1152
50602SOL     OW56616   0.828   7.748   2.440  0.3985 -0.5791  0.4260
50602SOL    HW156617   0.820   7.813   2.510 -1.0667 -1.5733  1.2233
50602SOL    HW256618   0.899   7.691   2.470  1.3307  0.2982 -0.0272
50603SOL     OW56619   5.845   7.802  11.171 -0.3432 -0.6510  0.1718
50603SOL    HW156620   5.861   7.799  11.077  1.1071 -0.2881  0.3862
50603SOL    HW256621   5.850   7.710  11.199 -0.7677 -0.7577 -0.0831
50604SOL     OW56622   6.272   6.470   4.662 -0.3143  0.0978 -0.2172
50604SOL    HW156623   6.356   6.431   4.639  0.4883  1.3960  0.4090
50604SOL    HW256624   6.277   6.560   4.629 -0.5162  0.9151  1.8216
50605SOL     OW56625  11.046   7.591   1.302  0.3394 -0.2907 -0.7437
50605SOL    HW156626  11.046   7.628   1.214 -0.2601 -0.1731 -0.6983
50605SOL    HW256627  10.992   7.512   1.295 -1.2760  0.7076 -0.0955
50606SOL     OW56628   4.427   3.092   2.953  0.2563  0.0482  0.3854
50606SOL    HW156629   4.512   3.049   2.963  0.7909  1.0685  0.2871
50606SOL    HW256630   4.415   3.140   3.035 -0.8178 -1.0993  0.9245
50607SOL     OW56631   2.022   4.507   8.821 -0.6704  0.8469 -0.3551
50607SOL    HW156632   2.080   4.581   8.804 -1.9146  1.8379 -0.4566
50607SOL    HW256633   2.026   4.454   8.741 -0.0610  1.0051 -0.4327
50608SOL     OW56634   5.689   5.981   1.231  0.1306 -0.3212 -0.0278
50608SOL    HW156635   5.713   6.036   1.305  0.7236 -1.3562  0.5699
50608SOL    HW256636   5.593   5.980   1.231  0.1277 -0.1003  0.5429
50609SOL     OW56637  12.397   0.475   1.635  0.1927 -0.3739 -0.4940
50609SOL    HW156638  12.328   0.440   1.692 -0.5027  0.3637 -0.8707
50609SOL    HW256639  12.351   0.533   1.574  1.2531  0.8782 -0.1545
50610SOL     OW56640   6.637  10.412   9.335 -0.9020 -0.1709  0.4177
50610SOL    HW156641   6.609  10.490   9.287  1.6884  0.4140 -0.2855
50610SOL    HW256642   6.642  10.441   9.426 -1.5196 -0.0272  0.4156
50611SOL     OW56643   1.756   6.766   3.937  0.5049 -0.2168  0.2252
50611SOL    HW156644   1.757   6.715   4.018  0.7660 -1.6575 -0.6301
50611SOL    HW256645   1.665   6.761   3.907  0.7479 -1.2119 -0.4326
50612SOL     OW56646   8.873  10.744  10.663  0.2750  0.0943  0.5170
50612SOL    HW156647   8.919  10.789  10.591  1.0017 -1.4656 -0.0498
50612SOL    HW256648   8.827  10.813  10.709 -1.9687  0.9541 -2.6894
50613SOL     OW56649   9.246   4.164  10.648  0.3050 -0.1467  0.2551
50613SOL    HW156650   9.162   4.129  10.620 -0.0981  1.5364 -0.7894
50613SOL    HW256651   9.268   4.115  10.728 -0.9254 -1.6252 -0.2786
50614SOL     OW56652   7.289   9.321   8.985 -0.3146 -0.1856 -0.5401
50614SOL    HW156653   7.308   9.373   9.063  0.2099 -1.6486  0.3590
50614SOL    HW256654   7.218   9.262   9.013 -1.7016  0.7920 -1.8797
50615SOL     OW56655   2.513   5.312   8.566 -0.1332 -0.0368 -0.9346
50615SOL    HW156656   2.586   5.281   8.513  0.4027 -1.4746  0.5719
50615SOL    HW256657   2.455   5.356   8.504  2.0037  1.2212 -2.1673
50616SOL     OW56658   1.953  10.712   1.345  0.6694  0.3640 -0.2487
50616SOL    HW156659   2.004  10.694   1.424 -1.3625  1.3845  1.4066
50616SOL    HW256660   1.937  10.626   1.307  1.7243 -0.1526  0.4211
50617SOL     OW56661   6.033  10.921  10.077  0.3206  0.4851  0.3863
50617SOL    HW156662   6.124  10.919  10.048 -0.2677  0.2548 -1.5344
50617SOL    HW256663   6.016  11.014  10.096  0.4813  0.8011 -0.9132
50618SOL     OW56664   5.852   4.198   2.544 -0.0540 -0.2326  0.1786
50618SOL    HW156665   5.861   4.270   2.481 -1.9659 -1.4406 -1.5758
50618SOL    HW256666   5.930   4.143   2.529  0.5597  0.5568  0.3737
50619SOL     OW56667  11.881   6.925   3.794  0.2059  0.1953 -0.2634
50619SOL    HW156668  11.892   7.017   3.769 -0.6215  0.8416  1.5954
50619SOL    HW256669  11.913   6.920   3.884 -2.0280 -0.7593  0.5476
50620SOL     OW56670  10.710   3.001   8.649 -0.2737 -0.1995  0.1429
50620SOL    HW156671  10.694   3.084   8.604 -1.3527 -0.5532 -0.1500
50620SOL    HW256672  10.753   3.026   8.731 -1.2236  0.7145  0.3833
50621SOL     OW56673   9.794   3.474   2.453 -0.4816 -0.4719  0.0031
50621SOL    HW156674   9.849   3.476   2.532 -0.8382 -0.2427  0.2484
50621SOL    HW256675   9.838   3.533   2.392 -1.4711  1.2706  0.8926
50622SOL     OW56676   2.925   2.112   8.581  0.4218  0.2310 -0.5221
50622SOL    HW156677   2.848   2.058   8.598 -0.0012  0.8927 -0.3138
50622SOL    HW256678   2.904   2.160   8.501  0.6727  0.3105 -0.5409
50623SOL     OW56679  10.409  10.233   0.585  0.2341 -0.1075  0.1309
50623SOL    HW156680  10.393  10.234   0.490  0.1792  0.8569  0.1407
50623SOL    HW256681  10.494  10.189   0.594  0.7146  0.6877 -0.4512
50624SOL     OW56682   2.062  12.228   9.011 -0.2148  0.1801  0.8861
50624SOL    HW156683   2.091  12.208   9.100 -0.1528  1.4870  1.1700
50624SOL    HW256684   2.026  12.316   9.016 -0.3109  0.2319 -0.3620
50625SOL     OW56685   6.123   7.841   3.413  0.1470  0.2800 -0.2877
50625SOL    HW156686   6.106   7.798   3.329 -0.7564  0.8602 -0.4202
50625SOL    HW256687   6.054   7.908   3.420 -1.0726 -1.0589  1.8469
50626SOL     OW56688   1.871   3.402   0.567  0.0460 -0.7680 -0.4126
50626SOL    HW156689   1.942   3.459   0.596 -0.8747  0.4235 -0.4086
50626SOL    HW256690   1.880   3.398   0.472  0.9805 -1.8269 -0.2955
50627SOL     OW56691   1.086   8.584  11.774  0.1422  0.6565 -0.5341
50627SOL    HW156692   1.161   8.567  11.831  0.4830 -0.1124 -1.1952
50627SOL    HW256693   1.123   8.591  11.686 -0.6157 -0.2956 -0.9460
50628SOL     OW56694   7.937   3.443   1.090 -0.0348  0.2738  0.4510
50628SOL    HW156695   7.948   3.348   1.089 -0.2386  0.2532 -0.4161
50628SOL    HW256696   7.843   3.457   1.085  0.0635  0.5281 -0.8623
50629SOL     OW56697  12.483   4.996   0.585 -0.7881  0.1029 -0.9957
50629SOL    HW156698  12.505   4.956   0.669 -2.1271  0.2375 -0.5496
50629SOL    HW256699  12.567   5.015   0.545 -0.1190 -0.4815  0.0670
50630SOL     OW56700   9.812   5.555   8.308  0.1053  0.3901  0.1664
50630SOL    HW156701   9.740   5.492   8.317 -0.3986  0.9458  0.1033
50630SOL    HW256702   9.837   5.576   8.398 -0.1503  0.5782  0.1936
50631SOL     OW56703   2.709   2.099   1.998  0.2448 -0.4704 -0.7904
50631SOL    HW156704   2.796   2.087   2.036  0.4368 -0.1384 -1.1254
50631SOL    HW256705   2.723   2.158   1.924 -0.2839 -0.3097 -0.7660
50632SOL     OW56706   4.639  10.590   7.691  0.0581  0.1737 -0.5543
50632SOL    HW156707   4.701  10.654   7.657  1.0631 -1.3065 -1.6489
50632SOL    HW256708   4.632  10.524   7.622 -0.5745 -1.1447  0.7060
50633SOL     OW56709   7.652  11.580  12.160  0.0139 -0.0685  0.1037
50633SOL    HW156710   7.643  11.643  12.089  0.3808  0.2709  0.3589
50633SOL    HW256711   7.563  11.547  12.174 -0.0705 -0.0977 -0.4718
50634SOL     OW56712   1.489   5.170   9.409 -0.6894 -0.4475  0.1641
50634SOL    HW156713   1.527   5.120   9.480 -1.6472  0.8123  1.6354
50634SOL    HW256714   1.412   5.120   9.383 -0.8393 -0.4636  0.6342
50635SOL     OW56715  12.074   9.407   1.342 -0.4043 -0.1823  0.1029
50635SOL    HW156716  12.127   9.328   1.353 -1.3881 -0.7564  0.9680
50635SOL    HW256717  12.016   9.386   1.269 -1.2670 -0.6253  0.8966
50636SOL     OW56718  10.498  10.829  10.228  0.2222  0.5020 -0.5282
50636SOL    HW156719  10.435  10.758  10.239 -0.1540  1.2534  3.3510
50636SOL    HW256720  10.563  10.794  10.166 -1.1053 -2.3245 -0.4708
50637SOL     OW56721  10.129   5.797   7.347  0.1453 -0.2030 -0.4727
50637SOL    HW156722  10.179   5.869   7.384  0.3875 -0.4692 -0.2781
50637SOL    HW256723  10.147   5.723   7.405 -0.8880 -0.1714 -0.0921
50638SOL     OW56724   9.610  11.322   6.250 -0.0391  0.1421  0.0479
50638SOL    HW156725   9.564  11.404   6.269 -2.1331 -0.9563  0.0252
50638SOL    HW256726   9.694  11.331   6.297 -0.8099  1.6880  1.2508
50639SOL     OW56727   4.563   1.323  10.822 -0.5951  0.0382  0.1836
50639SOL    HW156728   4.497   1.391  10.834 -0.9625 -0.2063 -0.4037
50639SOL    HW256729   4.591   1.301  10.910  0.3885  1.7766  0.3530
50640SOL     OW56730   2.726   1.784   3.926 -0.7526  0.0343  0.5171
50640SOL    HW156731   2.681   1.862   3.957  0.5194  0.8808  0.3296
50640SOL    HW256732   2.819   1.805   3.936 -0.3784 -1.2264 -0.1040
50641SOL     OW56733   9.066   9.827   9.781 -0.0246  0.4322  0.0653
50641SOL    HW156734   9.131   9.794   9.718  1.1626 -0.0583  1.4701
50641SOL    HW256735   9.114   9.893   9.832 -1.0253  0.9875  0.3154
50642SOL     OW56736   9.306  10.290   3.518  0.1434 -0.2196  0.0476
50642SOL    HW156737   9.353  10.230   3.576  0.6487 -1.0447 -1.1820
50642SOL    HW256738   9.232  10.239   3.486 -0.2635  0.3074  0.1222
50643SOL     OW56739  12.489  10.662   1.861 -0.1717 -0.0723  0.1826
50643SOL    HW156740  12.423  10.730   1.844  0.0933  0.2875  0.5675
50643SOL    HW256741  12.496  10.614   1.779 -0.9534 -0.1427  0.1496
50644SOL     OW56742   2.371   7.511   8.789 -0.0267  0.0667  0.0548
50644SOL    HW156743   2.355   7.447   8.858  2.6927  1.3945  2.0472
50644SOL    HW256744   2.434   7.469   8.731  0.3192  0.2305  0.3106
50645SOL     OW56745   4.176   7.403   2.702 -0.2647 -0.0342  0.3789
50645SOL    HW156746   4.185   7.498   2.692  1.4272 -0.3576 -2.3223
50645SOL    HW256747   4.082   7.389   2.712 -0.8443  1.7976 -1.6989
50646SOL     OW56748   4.354   6.592   2.899  0.8875  0.2181  0.2805
50646SOL    HW156749   4.436   6.629   2.866  0.6450  3.7536  3.0060
50646SOL    HW256750   4.289   6.619   2.834  1.3569  1.0500  0.1328
50647SOL     OW56751   9.463  12.536   6.225 -0.3432  0.3781 -0.2384
50647SOL    HW156752   9.549  12.496   6.211 -0.7000  0.0432 -1.6444
50647SOL    HW256753   9.463  12.562   6.317  0.6554 -1.0739  0.2075
50648SOL     OW56754  10.521   9.071  12.034 -0.0536  0.1012  0.0860
50648SOL    HW156755  10.606   9.042  12.001  0.4954 -1.0854  2.3363
50648SOL    HW256756  10.540   9.110  12.120 -1.8767 -1.6716  1.3985
50649SOL     OW56757   7.533   3.465   4.685  0.2391  0.4064 -0.2420
50649SOL    HW156758   7.609   3.412   4.661  1.3515  1.4648  0.7467
50649SOL    HW256759   7.457   3.414   4.658  1.2304 -1.7759  0.8696
50650SOL     OW56760   8.742   2.726   0.590 -0.1544  0.2941 -0.2849
50650SOL    HW156761   8.673   2.786   0.617  0.1036 -0.1009  1.3814
50650SOL    HW256762   8.740   2.728   0.494 -2.0719  0.7171 -0.2717
50651SOL     OW56763   6.642   5.674   2.340  0.0689  0.1378  0.0996
50651SOL    HW156764   6.599   5.594   2.309  0.2370  0.0405  0.1164
50651SOL    HW256765   6.656   5.726   2.261 -0.8576  0.5555  0.1905
50652SOL     OW56766   9.196   1.628   3.924  0.5093  0.2156  0.3027
50652SOL    HW156767   9.258   1.556   3.910 -0.6990 -0.6974 -0.5176
50652SOL    HW256768   9.122   1.588   3.969 -0.7150  0.6489 -1.2412
50653SOL     OW56769   4.412  10.734   1.242  0.6315  0.2659  0.4922
50653SOL    HW156770   4.426  10.699   1.330  1.4331 -0.2156  0.1829
50653SOL    HW256771   4.500  10.743   1.206  0.2349 -1.4004 -0.9794
50654SOL     OW56772  10.249   5.833  12.069 -0.3891  0.3978  0.2728
50654SOL    HW156773  10.341   5.860  12.079 -0.1460  0.0288 -0.8649
50654SOL    HW256774  10.208   5.858  12.152  0.0371  3.4361 -0.3069
50655SOL     OW56775   5.826  10.338   4.841  0.9368 -0.0477 -0.0017
50655SOL    HW156776   5.818  10.338   4.936  1.6004  0.3483  0.0603
50655SOL    HW256777   5.832  10.245   4.818  0.7627 -0.1447  0.3429
50656SOL     OW56778   3.828   1.584   4.590 -0.5824 -0.5415  0.4813
50656SOL    HW156779   3.808   1.672   4.558 -0.3307 -0.0466  1.6531
50656SOL    HW256780   3.902   1.555   4.536 -1.0341 -0.2801 -0.2992
50657SOL     OW56781  10.546   2.353   8.253 -0.5723  0.3322  0.4546
50657SOL    HW156782  10.519   2.339   8.344 -1.5721  1.2582  0.3305
50657SOL    HW256783  10.634   2.388   8.259 -1.5503  2.8764  1.2654
50658SOL     OW56784   7.145   7.182  11.601  0.0274  0.1272  0.7401
50658SOL    HW156785   7.053   7.163  11.620  0.3107 -0.9339  1.1081
50658SOL    HW256786   7.186   7.190  11.687  0.2036  1.0565  0.5793
50659SOL     OW56787   5.888  11.519   6.442 -0.1496  0.3811 -0.0019
50659SOL    HW156788   5.970  11.552   6.405 -0.6845  2.3296  0.4214
50659SOL    HW256789   5.846  11.471   6.370  0.8821  0.2293 -0.5209
50660SOL     OW56790   2.416   5.411  10.891  0.4356  0.3080 -0.3533
50660SOL    HW156791   2.389   5.469  10.819 -0.1146 -1.0599 -1.2887
50660SOL    HW256792   2.416   5.323  10.852  1.6174 -0.2919  0.9251
50661SOL     OW56793   3.463   8.952   9.377 -0.1998  0.2192  0.1868
50661SOL    HW156794   3.402   8.908   9.319 -1.3538  0.6668  1.0244
50661SOL    HW256795   3.411   8.976   9.454  0.7429  1.6380  0.4309
50662SOL     OW56796  10.188   5.296   5.360 -0.1725 -0.0718 -0.2043
50662SOL    HW156797  10.269   5.288   5.309 -0.2311  4.0953 -1.3358
50662SOL    HW256798  10.189   5.386   5.392 -3.3995 -0.5147  1.5604
50663SOL     OW56799   9.385   6.657   3.605  0.1622 -0.1192 -0.3745
50663SOL    HW156800   9.346   6.629   3.688 -0.8508  0.8094 -0.5025
50663SOL    HW256801   9.477   6.674   3.626  0.2087 -1.0688  0.2596
50664SOL     OW56802   6.682   7.302   4.909  0.3102 -0.1285 -0.2337
50664SOL    HW156803   6.670   7.207   4.916  0.2356 -0.0877  0.2078
50664SOL    HW256804   6.768   7.318   4.949 -0.1118  0.1074  0.5937
50665SOL     OW56805   0.829   5.968   6.675  0.1248 -0.2315 -0.4111
50665SOL    HW156806   0.875   5.976   6.759 -0.5616  0.2406 -0.0765
50665SOL    HW256807   0.894   5.994   6.610  1.3397 -2.5694 -0.2369
50666SOL     OW56808  10.518   1.941   8.282 -0.7014  0.1124  0.1279
50666SOL    HW156809  10.607   1.961   8.310 -1.0994  1.5575  0.4181
50666SOL    HW256810  10.503   1.851   8.312  0.3334  0.1784  0.8782
50667SOL     OW56811   8.273   6.551   8.958 -0.5057 -0.1625  0.0334
50667SOL    HW156812   8.360   6.537   8.920 -0.3741 -1.8048  0.8865
50667SOL    HW256813   8.261   6.479   9.020 -2.4180  0.1085  0.0482
50668SOL     OW56814   7.057   4.225   5.541  0.0040 -0.5785 -0.3903
50668SOL    HW156815   6.976   4.177   5.557 -0.8911  0.9383 -0.1249
50668SOL    HW256816   7.045   4.263   5.453 -0.2973  0.9680  0.2863
50669SOL     OW56817   7.365   9.766   5.504  0.3524 -0.4092  0.8237
50669SOL    HW156818   7.447   9.815   5.510  2.0287 -3.1312  2.3486
50669SOL    HW256819   7.392   9.675   5.498 -2.5801 -1.2852 -1.7642
50670SOL     OW56820  11.626  12.139  12.351  0.1176  0.5289  0.1585
50670SOL    HW156821  11.572  12.101  12.420 -0.5298  0.5327 -0.3370
50670SOL    HW256822  11.709  12.092  12.356 -0.6121 -0.8396 -0.3527
50671SOL     OW56823   0.993   1.173   3.081 -0.6242 -0.0273  0.0500
50671SOL    HW156824   0.941   1.160   3.001 -1.0538  1.1152  0.1120
50671SOL    HW256825   0.949   1.120   3.147 -1.1768  0.1934 -0.1271
50672SOL     OW56826   2.360   1.912   5.433  0.4364 -0.3672 -0.0483
50672SOL    HW156827   2.300   1.848   5.472  0.6042  0.4129  1.5685
50672SOL    HW256828   2.305   1.988   5.415  0.6235 -0.2434 -0.0969
50673SOL     OW56829   9.065   0.641   6.436 -0.3497  0.2071 -0.0232
50673SOL    HW156830   9.109   0.568   6.478  0.1482  0.4802 -0.0627
50673SOL    HW256831   9.135   0.691   6.395 -0.5051  1.5253  1.2339
50674SOL     OW56832   9.044  10.588   0.671 -0.0774 -0.3836 -0.8282
50674SOL    HW156833   9.135  10.617   0.680 -0.3235  0.0538  0.4998
50674SOL    HW256834   9.028  10.535   0.749 -1.0980 -0.0402 -0.7851
50675SOL     OW56835   8.323  11.416   0.389 -0.5414 -0.1039 -0.5916
50675SOL    HW156836   8.247  11.470   0.410  0.0025  0.3351  0.3118
50675SOL    HW256837   8.391  11.445   0.450  0.4256 -0.3270 -1.5367
50676SOL     OW56838  12.060   2.840   2.537  0.2377  0.5105  0.2439
50676SOL    HW156839  11.976   2.808   2.503 -0.1971  2.2893 -0.4960
50676SOL    HW256840  12.125   2.783   2.496 -0.4720  0.7207 -1.2678
50677SOL     OW56841   2.179   3.686   6.086  0.2014 -0.1774 -0.5526
50677SOL    HW156842   2.141   3.605   6.118  1.2194 -0.8045 -0.8775
50677SOL    HW256843   2.192   3.740   6.165 -3.0451  0.8711 -0.5951
50678SOL     OW56844   1.908   2.675   6.659 -0.0202  0.4354 -0.2201
50678SOL    HW156845   1.963   2.669   6.736  1.2197  0.7546 -1.0552
50678SOL    HW256846   1.936   2.756   6.615 -2.9148  2.0673  0.6527
50679SOL     OW56847  11.716   0.484   6.998  0.1518 -0.3377 -0.3502
50679SOL    HW156848  11.795   0.528   7.030 -0.6567  1.0147 -0.1691
50679SOL    HW256849  11.644   0.542   7.021 -0.9978 -1.8699  0.1001
50680SOL     OW56850   1.670   6.862   2.893  0.0442 -0.5274  0.6759
50680SOL    HW156851   1.678   6.767   2.906  1.0309 -1.1155 -3.0113
50680SOL    HW256852   1.742   6.900   2.942  1.0824 -1.9585  0.3103
50681SOL     OW56853   9.700   9.914   7.048 -0.1796  0.3838  0.7399
50681SOL    HW156854   9.717   9.873   6.964 -0.0969 -1.9086  1.8015
50681SOL    HW256855   9.781   9.902   7.098 -1.0606 -0.6647  2.0055
50682SOL     OW56856   3.349   4.519   9.652 -0.3522 -0.2917 -0.2564
50682SOL    HW156857   3.331   4.443   9.708  0.3180 -0.2287  0.0514
50682SOL    HW256858   3.444   4.522   9.645 -0.3156  1.0615  0.4999
50683SOL     OW56859   1.103  10.058  10.915 -0.3374 -0.2109  0.1108
50683SOL    HW156860   1.112  10.078  11.008  1.9408 -0.0489 -0.0826
50683SOL    HW256861   1.130   9.966  10.908  1.7995  0.4161 -0.6335
50684SOL     OW56862   8.231  10.011  11.523  0.0521 -0.0453  0.0340
50684SOL    HW156863   8.318   9.994  11.488 -0.5208  1.0075 -2.0712
50684SOL    HW256864   8.171   9.974  11.458 -1.1181 -0.7655  1.4449
50685SOL     OW56865  10.300   2.261   1.981  0.1449 -0.0103 -0.2791
50685SOL    HW156866  10.211   2.286   2.007  0.8008  1.3580  0.8490
50685SOL    HW256867  10.288   2.208   1.903 -1.6495  0.3857 -0.3340
50686SOL     OW56868   3.950   2.131   9.800 -0.3241  0.1034 -0.1510
50686SOL    HW156869   3.922   2.046   9.834  0.6878  0.3032  1.2621
50686SOL    HW256870   3.888   2.194   9.837  0.0972  0.1888  0.4271
50687SOL     OW56871   8.531   1.733   4.817 -0.2202 -0.0036 -0.4726
50687SOL    HW156872   8.612   1.760   4.775  0.2276  0.6601  0.7683
50687SOL    HW256873   8.534   1.774   4.903 -1.1048 -1.3260  0.2163
50688SOL     OW56874  10.633   7.923   2.358 -0.5530 -0.1593  0.4747
50688SOL    HW156875  10.709   7.956   2.310 -0.4515 -0.0074  0.7382
50688SOL    HW256876  10.621   7.834   2.326 -0.5297 -0.0354  0.1148
50689SOL     OW56877   9.861   6.858   3.594  0.1655  1.0498 -0.0921
50689SOL    HW156878   9.929   6.826   3.653 -2.8258  1.2407  3.8228
50689SOL    HW256879   9.852   6.951   3.615 -1.6669  0.9083 -0.0506
50690SOL     OW56880   5.303   9.470   4.178  0.1516 -0.2238 -0.1746
50690SOL    HW156881   5.330   9.549   4.226  2.0314  0.4681 -2.1848
50690SOL    HW256882   5.363   9.402   4.210  0.8686  0.0432 -0.9187
50691SOL     OW56883   1.540   5.679   2.005 -0.0088 -0.7389  0.3393
50691SOL    HW156884   1.504   5.716   1.924 -0.6313 -1.6503  0.1867
50691SOL    HW256885   1.624   5.723   2.016 -0.9302  1.1173  0.4464
50692SOL     OW56886   8.491   5.416   8.911  0.0815 -0.7314  0.0037
50692SOL    HW156887   8.433   5.410   8.835  0.1377  0.1304 -0.1215
50692SOL    HW256888   8.573   5.376   8.882 -0.1326 -1.0652 -0.1454
50693SOL     OW56889  10.229   4.677   3.826  0.1405  0.4213  0.0111
50693SOL    HW156890  10.173   4.754   3.823 -0.5594  0.0099  1.5332
50693SOL    HW256891  10.211   4.637   3.911 -0.1326 -1.8923 -1.0568
50694SOL     OW56892  10.757   6.365  11.147 -0.8902 -0.0528 -0.3696
50694SOL    HW156893  10.786   6.353  11.237  2.8286 -0.3830 -1.4612
50694SOL    HW256894  10.714   6.451  11.147 -1.0719 -0.0955  1.7020
50695SOL     OW56895   6.811   3.784   3.323 -0.7276 -0.5405  0.2079
50695SOL    HW156896   6.799   3.869   3.366  1.8195  0.2111 -0.3833
50695SOL    HW256897   6.774   3.720   3.385 -2.2945  0.9284  0.8656
50696SOL     OW56898   7.220  10.322  10.795  0.3749  0.2356 -0.0253
50696SOL    HW156899   7.202  10.408  10.757 -1.6372 -0.1589 -0.1126
50696SOL    HW256900   7.224  10.338  10.890  0.2022  0.4749 -0.0557
50697SOL     OW56901   7.972   7.242   1.711  0.0531  0.4340  0.4459
50697SOL    HW156902   7.981   7.292   1.630  1.7881 -1.2324 -0.4386
50697SOL    HW256903   7.890   7.194   1.701  0.0472  0.5608 -0.1072
50698SOL     OW56904   8.446   3.111   5.379 -0.1497 -0.3146  0.2331
50698SOL    HW156905   8.526   3.149   5.343 -0.0833  1.5572  2.1093
50698SOL    HW256906   8.475   3.060   5.454 -0.7133  1.3932  1.6962
50699SOL     OW56907   4.236   5.159   8.803 -0.1796 -0.1333  0.2606
50699SOL    HW156908   4.306   5.188   8.744 -0.7421 -2.0036 -1.4627
50699SOL    HW256909   4.156   5.171   8.753 -0.6253 -2.3323  0.3494
50700SOL     OW56910  11.285   1.895   7.011 -0.4278 -0.6971  0.2977
50700SOL    HW156911  11.343   1.925   6.941 -0.8441 -0.3170  0.1057
50700SOL    HW256912  11.288   1.965   7.076 -1.6908 -0.0377 -0.3185
50701SOL     OW56913   4.633   7.997   3.112  0.5528  0.0326 -0.5022
50701SOL    HW156914   4.623   7.924   3.173  1.0957 -0.5173 -1.0479
50701SOL    HW256915   4.570   8.063   3.142 -0.9580 -1.2169 -0.8173
50702SOL     OW56916   0.544   0.794  12.531 -0.4900  0.0629  0.2777
50702SOL    HW156917   0.562   0.866  12.470  0.2643 -0.9145 -0.7030
50702SOL    HW256918   0.623   0.789  12.586 -0.8038  0.3788  0.7622
50703SOL     OW56919  12.226   9.943   3.331 -0.2520  0.4638 -0.2537
50703SOL    HW156920  12.301   9.931   3.273 -0.6950  2.7624 -1.4285
50703SOL    HW256921  12.240   9.880   3.402  1.9167 -0.2992 -1.2693
50704SOL     OW56922   2.980  11.357  10.559  0.7647  0.4233 -0.0967
50704SOL    HW156923   2.913  11.341  10.493  0.9069  0.0309 -0.1492
50704SOL    HW256924   3.059  11.316  10.524  0.5655 -0.8475  0.8333
50705SOL     OW56925   0.267   0.084  10.911  0.4634  0.3109 -0.1774
50705SOL    HW156926   0.223   0.156  10.956 -0.0866  0.1905 -0.5195
50705SOL    HW256927   0.206   0.057  10.843 -0.0635 -1.5820  0.9744
50706SOL     OW56928   5.957  10.313  11.214  0.0424 -0.4638 -0.5023
50706SOL    HW156929   5.973  10.358  11.131 -0.2842  0.4160 -0.0959
50706SOL    HW256930   6.042  10.313  11.257  0.0065 -0.0670 -0.4258
50707SOL     OW56931   4.944   3.474   6.901 -0.3502  0.5026  0.1315
50707SOL    HW156932   4.934   3.446   6.993 -0.8699 -1.4663 -0.4635
50707SOL    HW256933   4.968   3.393   6.855 -1.3310  1.1918 -1.6573
50708SOL     OW56934   8.045   2.755   6.215 -0.2945  0.2473  0.4002
50708SOL    HW156935   8.057   2.666   6.247 -0.5072  0.2283  0.4274
50708SOL    HW256936   7.971   2.789   6.266 -1.5128 -0.2289 -1.0010
50709SOL     OW56937   1.019   1.010   2.614  0.7085 -0.1152 -0.5576
50709SOL    HW156938   1.111   1.026   2.635  0.9343 -0.6528 -1.1211
50709SOL    HW256939   0.996   0.931   2.664 -0.5149  1.9568  2.5360
50710SOL     OW56940   7.469  12.120   0.860  0.5195 -0.2460 -0.2964
50710SOL    HW156941   7.482  12.027   0.877 -0.4933 -0.3269  0.1092
50710SOL    HW256942   7.387  12.124   0.810 -0.8966  0.5745  1.9339
50711SOL     OW56943   9.830  12.155  12.471 -0.1549  0.1311  0.4978
50711SOL    HW156944   9.812  12.130  12.380  1.9154 -3.1909  0.8458
50711SOL    HW256945   9.925  12.151  12.478 -0.2934 -0.1470  2.9419
50712SOL     OW56946   4.300   5.381   9.382 -0.3675  0.2302 -0.1591
50712SOL    HW156947   4.262   5.469   9.374 -2.2743 -0.5490 -0.1211
50712SOL    HW256948   4.315   5.353   9.292  1.6833  1.1321 -0.1584
50713SOL     OW56949   3.602   8.655  10.055 -0.8552  0.5081  0.2626
50713SOL    HW156950   3.633   8.622  10.140 -1.0436 -0.1344  0.0874
50713SOL    HW256951   3.554   8.581  10.017 -0.9630  0.8689 -0.3088
50714SOL     OW56952   0.442   0.576  12.206 -0.7924  0.0912  0.3160
50714SOL    HW156953   0.348   0.566  12.219 -0.9505  0.0119 -0.7782
50714SOL    HW256954   0.474   0.489  12.185 -0.2940 -0.0646  1.6302
50715SOL     OW56955  11.617  12.500   3.260 -0.1347  0.1015 -0.0526
50715SOL    HW156956  11.621  12.474   3.168 -0.9215 -0.0350 -0.0529
50715SOL    HW256957  11.622  12.418   3.308 -0.7042  0.0966 -0.0006
50716SOL     OW56958  12.182   4.140   6.681 -0.4392 -0.2973 -0.3451
50716SOL    HW156959  12.103   4.182   6.716 -0.4382  2.8515 -3.5875
50716SOL    HW256960  12.253   4.200   6.703  0.3417 -0.8936 -1.1741
50717SOL     OW56961  11.460   3.601   7.063 -0.4615  0.4785  0.2730
50717SOL    HW156962  11.544   3.557   7.073 -0.2572  0.6768 -0.5477
50717SOL    HW256963  11.479   3.679   7.012 -1.1295  0.5731  0.1636
50718SOL     OW56964   0.556  12.262   5.625  0.0918 -0.2435  0.0646
50718SOL    HW156965   0.478  12.310   5.597 -0.1383 -0.6301  0.0259
50718SOL    HW256966   0.628  12.303   5.577 -0.2868 -0.8635 -1.0794
50719SOL     OW56967  12.121   8.815   3.827 -0.1731 -0.2225  0.9036
50719SOL    HW156968  12.039   8.793   3.871  0.1560 -0.2859  1.4903
50719SOL    HW256969  12.093   8.862   3.747 -0.7597  0.2102  1.3494
50720SOL     OW56970   3.264   4.798   0.657  0.3045  0.5295  0.2170
50720SOL    HW156971   3.316   4.784   0.578  0.5545  0.6207  0.3621
50720SOL    HW256972   3.315   4.756   0.726 -0.4112 -0.4388  0.1668
50721SOL     OW56973   2.242   7.396   9.638 -1.3631  0.2507 -0.1010
50721SOL    HW156974   2.159   7.355   9.613  0.3002 -2.9450 -1.0262
50721SOL    HW256975   2.307   7.325   9.630  1.5321  2.6501  0.2284
50722SOL     OW56976  11.713   9.888   7.244  0.2052 -0.5628 -0.2533
50722SOL    HW156977  11.708   9.795   7.262 -2.3768  0.0011  2.9505
50722SOL    HW256978  11.627   9.910   7.207 -0.4063  0.8973  1.8225
50723SOL     OW56979   5.524   3.052   0.973 -0.2432 -0.0400  0.0728
50723SOL    HW156980   5.505   3.144   0.951 -1.0534 -0.0468  0.7105
50723SOL    HW256981   5.620   3.047   0.973 -0.1771  1.0025  0.8063
50724SOL     OW56982   2.641   9.198   3.588 -0.6088 -0.5414  0.3178
50724SOL    HW156983   2.668   9.172   3.676 -0.9525 -0.9458  0.3075
50724SOL    HW256984   2.641   9.294   3.591  1.1820 -0.5035  0.1958
50725SOL     OW56985   3.408   4.567   1.152  0.4753 -0.4500 -0.0169
50725SOL    HW156986   3.365   4.494   1.196 -1.6480  1.2344  0.8633
50725SOL    HW256987   3.431   4.628   1.222  2.4774 -0.3413 -0.6983
50726SOL     OW56988   4.812   0.534   4.232  0.5519 -0.0681  0.0835
50726SOL    HW156989   4.717   0.526   4.225  0.6268 -1.1833  0.2629
50726SOL    HW256990   4.834   0.489   4.314  0.9279  2.7969  1.7174
50727SOL     OW56991  11.931   4.013   2.363  0.2517 -0.1005  0.7459
50727SOL    HW156992  11.937   4.069   2.286  0.6135 -0.2448  0.6671
50727SOL    HW256993  12.022   3.986   2.381  0.1240 -0.3849  0.9843
50728SOL     OW56994   0.001   1.248   4.599 -0.8625 -0.4501  0.6380
50728SOL    HW156995  -0.015   1.288   4.684 -0.0593 -3.0682  2.1547
50728SOL    HW256996  -0.066   1.181   4.590 -1.2275  0.0776 -1.0654
50729SOL     OW56997   3.477   5.527   7.087  0.9772  0.4215  1.0123
50729SOL    HW156998   3.531   5.447   7.085  0.9686  0.4315  0.0886
50729SOL    HW256999   3.536   5.594   7.124  2.4140  0.9837 -2.0123
50730SOL     OW57000   4.912  11.248  10.469  0.0525  0.2140  0.4120
50730SOL    HW157001   4.963  11.324  10.442 -0.9575  0.7506 -0.0661
50730SOL    HW257002   4.974  11.192  10.515  0.8483  1.2596  0.6480
50731SOL     OW57003   6.614   1.283   5.261 -0.0883 -0.0505 -0.4046
50731SOL    HW157004   6.592   1.348   5.327  1.5735 -0.0042  0.1457
50731SOL    HW257005   6.570   1.314   5.181 -0.5668  0.8988  0.2054
50732SOL     OW57006   6.001   8.899  12.598 -1.0308  0.2892 -0.0189
50732SOL    HW157007   5.942   8.857  12.535  1.6091 -0.2789 -2.2840
50732SOL    HW257008   6.067   8.832  12.617 -0.2635  1.3822  1.3186
50733SOL     OW57009   9.736   9.731  10.146  0.1408  0.4240  0.4782
50733SOL    HW157010   9.646   9.764  10.141  0.3691  1.2608  1.5008
50733SOL    HW257011   9.726   9.638  10.167 -0.5174  0.9778  2.9347
50734SOL     OW57012   0.165   1.293   6.628 -0.2597 -0.3014 -0.3142
50734SOL    HW157013   0.178   1.217   6.571 -0.3722 -1.2569  0.8975
50734SOL    HW257014   0.071   1.293   6.646 -0.0248 -0.9328  1.0678
50735SOL     OW57015  11.134  10.213   0.278 -1.0330  0.0330  0.2761
50735SOL    HW157016  11.065  10.169   0.228 -0.0787 -1.0568 -0.1304
50735SOL    HW257017  11.176  10.142   0.327  0.0404  0.6137  0.2223
50736SOL     OW57018   6.108   2.768   0.413  0.1106  0.0173 -0.3481
50736SOL    HW157019   6.089   2.767   0.507  0.0261 -1.3567 -0.3547
50736SOL    HW257020   6.203   2.779   0.408  0.1067  0.1703 -0.1012
50737SOL     OW57021   0.396   9.726   8.524  0.4085  0.2619 -0.3510
50737SOL    HW157022   0.454   9.688   8.590 -1.4861 -0.8003  0.8007
50737SOL    HW257023   0.390   9.658   8.456  3.4982  1.8980 -2.5313
50738SOL     OW57024   2.471   4.852   3.323 -0.0506  0.1662  0.1720
50738SOL    HW157025   2.411   4.862   3.250 -0.6570 -0.7245  0.5380
50738SOL    HW257026   2.557   4.874   3.287 -0.4275  0.2904 -0.6535
50739SOL     OW57027   0.764   4.429   7.715  0.1571  0.2881  0.2956
50739SOL    HW157028   0.802   4.516   7.725  1.2939 -0.2097  0.5410
50739SOL    HW257029   0.822   4.385   7.653  0.6255 -0.8502  1.5024
50740SOL     OW57030  10.009  12.596  11.201  0.1715 -0.0854  0.2027
50740SOL    HW157031   9.961  12.672  11.169 -1.1174 -1.2625 -0.7627
50740SOL    HW257032  10.083  12.633  11.249 -0.8199  1.7649  0.3816
50741SOL     OW57033   8.231   6.420   3.587 -0.4005 -0.0721 -0.0760
50741SOL    HW157034   8.296   6.366   3.542  0.8687  0.6254  0.8361
50741SOL    HW257035   8.176   6.358   3.634 -0.5484 -0.6905 -1.0400
50742SOL     OW57036   8.590  12.583   9.981  0.1238  0.5102  0.7481
50742SOL    HW157037   8.659  12.649   9.975  0.7231 -0.1477  0.3145
50742SOL    HW257038   8.522  12.614   9.922  0.7741  0.3111 -0.1226
50743SOL     OW57039   1.174   4.408   9.830 -0.3470 -0.1250  0.0233
50743SOL    HW157040   1.197   4.499   9.847  0.4474 -0.0386 -1.3210
50743SOL    HW257041   1.099   4.390   9.886  1.1026  0.5573  2.2821
50744SOL     OW57042   7.298   7.270   7.331  0.0387 -0.1753 -0.1147
50744SOL    HW157043   7.380   7.304   7.367  1.1601 -2.6037 -0.1646
50744SOL    HW257044   7.271   7.203   7.394 -2.2207  0.9144  0.1528
50745SOL     OW57045   5.945  11.350  10.283 -0.9187 -0.6404  0.4753
50745SOL    HW157046   5.876  11.373  10.345 -1.3677  0.4911 -0.4054
50745SOL    HW257047   5.899  11.330  10.202 -0.2042  1.6071 -0.5793
50746SOL     OW57048  12.617   2.972  12.446  0.3310 -0.0265  0.7376
50746SOL    HW157049  12.617   3.057  12.403 -3.2504  0.2737  1.0735
50746SOL    HW257050  12.593   2.910  12.377  0.9530 -0.4931  0.9292
50747SOL     OW57051   2.782   2.548   4.428  0.6317 -0.6537 -0.0051
50747SOL    HW157052   2.711   2.598   4.468  1.3511 -0.7111  1.3938
50747SOL    HW257053   2.745   2.515   4.346 -0.8561 -0.4256  0.5460
50748SOL     OW57054   9.566   7.168   8.949  0.1225 -0.1359 -0.0459
50748SOL    HW157055   9.475   7.182   8.925  0.0311 -0.7772 -0.0975
50748SOL    HW257056   9.576   7.073   8.951  0.5103 -0.0932  0.9966
50749SOL     OW57057   4.440   8.397   2.863 -0.1471  0.4158 -0.4814
50749SOL    HW157058   4.499   8.331   2.826 -0.0262  0.4506 -0.3502
50749SOL    HW257059   4.486   8.480   2.853 -1.6162  1.0201 -3.6799
50750SOL     OW57060  12.049   8.340   3.200 -0.0991  0.2411  0.3557
50750SOL    HW157061  12.087   8.330   3.287  2.7719 -1.0072 -0.8962
50750SOL    HW257062  12.006   8.257   3.183  1.1959 -0.3654 -0.1479
50751SOL     OW57063   1.386   9.333   9.023  0.3065  0.1461 -0.7558
50751SOL    HW157064   1.397   9.411   9.078 -0.9900  0.7653 -1.3338
50751SOL    HW257065   1.451   9.343   8.954 -0.0663  0.9077 -1.0119
50752SOL     OW57066   4.392  10.125   2.094 -0.1340 -0.1088 -0.1344
50752SOL    HW157067   4.462  10.190   2.106 -1.4579  1.0096  2.4084
50752SOL    HW257068   4.340  10.132   2.174 -1.5285 -2.9240 -0.6806
50753SOL     OW57069   1.054   7.714   2.047  0.0765 -0.2758 -0.7761
50753SOL    HW157070   1.082   7.637   2.096 -0.1591  0.5455  0.6802
50753SOL    HW257071   1.026   7.777   2.113  3.8758  2.6134 -1.5821
50754SOL     OW57072   5.655  10.810   1.386  0.8362 -0.7162  0.2660
50754SOL    HW157073   5.669  10.875   1.454 -0.2814  1.8180 -1.7463
50754SOL    HW257074   5.730  10.819   1.327 -0.5818  0.7990 -1.4503
50755SOL     OW57075   6.179  12.238   3.354  0.2890  0.1553 -0.1298
50755SOL    HW157076   6.116  12.193   3.411 -0.1959  0.9132 -0.0606
50755SOL    HW257077   6.262  12.235   3.403  0.2764 -0.6848 -0.1424
50756SOL     OW57078   4.824   4.614   2.106 -0.6011  0.3984 -0.5561
50756SOL    HW157079   4.906   4.663   2.097  0.1198 -0.7691 -0.5200
50756SOL    HW257080   4.835   4.566   2.188 -0.6194 -1.0447 -1.3741
50757SOL     OW57081  11.255   4.391   3.601  0.0020  0.0031 -0.0956
50757SOL    HW157082  11.302   4.465   3.639 -1.1929 -0.3940  2.3554
50757SOL    HW257083  11.297   4.313   3.637 -1.1844 -0.3926  0.5024
50758SOL     OW57084   4.658   1.416  10.241 -0.1114 -0.6926 -0.1129
50758SOL    HW157085   4.602   1.479  10.195  0.6656 -0.2044 -0.4065
50758SOL    HW257086   4.746   1.431  10.206  0.1315 -1.7766 -0.0056
50759SOL     OW57087   0.768  11.098   8.435 -0.7673 -0.0529 -0.2047
50759SOL    HW157088   0.762  11.160   8.362 -0.0963  0.2794  0.0114
50759SOL    HW257089   0.774  11.154   8.513 -1.7094 -0.4041  0.1341
50760SOL     OW57090  10.329   8.271  11.214  1.0388  0.2168  0.1362
50760SOL    HW157091  10.247   8.258  11.262  0.6540 -2.7331 -1.1145
50760SOL    HW257092  10.301   8.302  11.128  1.4885  2.0208  0.6059
50761SOL     OW57093   1.599  10.918   4.653  0.3179  0.0401  0.2229
50761SOL    HW157094   1.681  10.893   4.697  1.0037 -0.0680 -1.0567
50761SOL    HW257095   1.603  11.013   4.649 -0.6466  0.1993  2.0144
50762SOL     OW57096   8.282   3.935   8.160  0.0917 -0.1529  0.3303
50762SOL    HW157097   8.211   3.976   8.208  2.0110  1.6050  1.8539
50762SOL    HW257098   8.248   3.923   8.072 -3.0121 -2.0025  1.6119
50763SOL     OW57099   7.513   7.233  10.734  0.8129  0.5178 -0.1626
50763SOL    HW157100   7.453   7.242  10.660  0.0004  1.4256  0.5772
50763SOL    HW257101   7.515   7.140  10.753 -0.8030  0.5225  0.1428
50764SOL     OW57102   8.913  10.696   5.081 -0.5008  0.2978  0.0487
50764SOL    HW157103   8.890  10.614   5.037 -0.9708  0.3261  0.2399
50764SOL    HW257104   8.846  10.707   5.148 -0.0825  0.5182  0.4389
50765SOL     OW57105   7.732   5.180   8.897  0.2691  0.1116  0.2150
50765SOL    HW157106   7.688   5.096   8.883  0.2156  0.3814 -1.4314
50765SOL    HW257107   7.661   5.241   8.918 -0.1689  0.4497 -1.9900
50766SOL     OW57108   1.110   9.123  11.166  0.6834  0.3951  0.3373
50766SOL    HW157109   1.030   9.116  11.114  0.3228 -1.0797  1.0495
50766SOL    HW257110   1.132   9.216  11.162 -2.7231  1.4755  2.5086
50767SOL     OW57111   0.829   0.166   3.423  0.1223 -0.2369  0.0025
50767SOL    HW157112   0.899   0.228   3.444 -0.0187 -0.1113  0.1020
50767SOL    HW257113   0.805   0.128   3.508 -1.6027  1.4861  0.3614
50768SOL     OW57114   1.809   0.900  10.968 -0.0713 -0.7087 -0.4426
50768SOL    HW157115   1.855   0.876  10.887  0.4150  0.8750 -0.6741
50768SOL    HW257116   1.729   0.942  10.938  0.6054  0.8586 -0.1712
50769SOL     OW57117   6.662  10.819   5.256 -0.0410 -0.0915 -0.8727
50769SOL    HW157118   6.659  10.867   5.339  1.0675 -0.9838 -0.2922
50769SOL    HW257119   6.701  10.882   5.195  0.0316  0.2514 -0.4851
50770SOL     OW57120   1.333   4.988   6.733  0.2059 -0.2292 -0.9147
50770SOL    HW157121   1.320   5.014   6.641  0.1401  0.7264 -0.6547
50770SOL    HW257122   1.253   4.942   6.756 -0.4201  0.8125 -0.9271
50771SOL     OW57123   9.128   9.243   6.917  0.2300  0.4652  0.6823
50771SOL    HW157124   9.166   9.262   7.003 -0.9829 -2.5926  2.0516
50771SOL    HW257125   9.048   9.294   6.915  0.3980  0.7661  1.2854
50772SOL     OW57126   8.357   5.453  10.863 -0.2494 -0.5004 -0.3803
50772SOL    HW157127   8.443   5.455  10.905  0.1661 -0.4075 -1.2019
50772SOL    HW257128   8.365   5.383  10.798  0.3777  1.6861 -2.8278
50773SOL     OW57129   0.262  11.159   5.822 -0.4084  0.4463 -0.1924
50773SOL    HW157130   0.218  11.078   5.798  0.9308 -0.6971  1.0253
50773SOL    HW257131   0.241  11.172   5.914  2.2195 -0.5152  0.6397
50774SOL     OW57132   5.833   6.557   9.615 -0.0589 -0.1988  0.1977
50774SOL    HW157133   5.832   6.473   9.571 -0.2435 -1.2056  2.0360
50774SOL    HW257134   5.747   6.564   9.657  1.3354 -1.1320  3.5609
50775SOL     OW57135   0.867   4.830   7.982  0.0254  0.1093  0.2156
50775SOL    HW157136   0.945   4.803   8.030 -0.3881  1.1903  1.5579
50775SOL    HW257137   0.794   4.805   8.039 -0.6940 -1.5326 -1.3390
50776SOL     OW57138  10.345   0.927   7.184  0.1269 -0.0661 -0.5287
50776SOL    HW157139  10.285   0.990   7.222 -0.5090 -1.0361  0.1294
50776SOL    HW257140  10.428   0.974   7.176 -0.4768  1.0121 -0.6137
50777SOL     OW57141   0.378   0.536   4.232 -0.0865  0.4692 -0.0173
50777SOL    HW157142   0.421   0.478   4.170 -0.3424  1.1344 -0.8397
50777SOL    HW257143   0.330   0.478   4.291  0.6123 -0.1995 -0.0980
50778SOL     OW57144   0.210   7.451   1.593  0.6388  0.1832  0.2433
50778SOL    HW157145   0.165   7.535   1.586 -1.9629 -1.1915 -1.0715
50778SOL    HW257146   0.248   7.437   1.506  0.8637 -0.0969  0.3844
50779SOL     OW57147   7.186   7.502  12.621  0.1149  0.0129 -0.1174
50779SOL    HW157148   7.203   7.574  12.560  0.4441  0.9079  0.9969
50779SOL    HW257149   7.205   7.539  12.707 -2.3420 -0.5499  0.7518
50780SOL     OW57150   2.880   5.222   1.829 -0.0060 -0.1639 -0.1365
50780SOL    HW157151   2.860   5.133   1.860 -0.4446  0.0851  0.3193
50780SOL    HW257152   2.936   5.259   1.898 -0.8619  0.3404  0.3050
50781SOL     OW57153   7.184   1.063   1.059 -0.1028 -0.0684  0.6459
50781SOL    HW157154   7.120   1.042   0.992  0.3148 -1.9120  0.7678
50781SOL    HW257155   7.132   1.087   1.136 -0.5849  1.2146 -0.0532
50782SOL     OW57156   2.437   2.437   0.371  0.6343 -0.1848  0.1513
50782SOL    HW157157   2.447   2.398   0.457  1.7600  0.5926  0.3943
50782SOL    HW257158   2.431   2.531   0.387  1.2837  0.0062 -0.6274
50783SOL     OW57159   4.222   9.348   6.703  0.1951  0.0002  0.2990
50783SOL    HW157160   4.192   9.341   6.794 -0.3840 -3.2580 -0.0297
50783SOL    HW257161   4.307   9.303   6.702  0.3846  0.3488 -0.7226
50784SOL     OW57162   1.851   2.872  10.818  0.5497  0.1137 -0.4404
50784SOL    HW157163   1.889   2.938  10.759  2.0298 -0.1099  0.2210
50784SOL    HW257164   1.894   2.887  10.902 -1.9189  0.8005  0.8206
50785SOL     OW57165   0.676   0.744  12.203 -0.4986 -0.4118  0.6511
50785SOL    HW157166   0.593   0.700  12.223 -0.9957  0.7759  1.2710
50785SOL    HW257167   0.669   0.829  12.247  1.0296 -0.2792  0.6681
50786SOL     OW57168   9.446   5.190   0.526  0.0107 -0.5733  0.1204
50786SOL    HW157169   9.475   5.238   0.449 -0.7186 -0.9258 -0.3871
50786SOL    HW257170   9.522   5.189   0.584  0.1915  0.7547 -0.0643
50787SOL     OW57171   0.515   1.815  10.335  0.2497 -0.4972  0.0825
50787SOL    HW157172   0.563   1.763  10.271  0.3824 -1.2501  0.7712
50787SOL    HW257173   0.462   1.876  10.283 -1.2383 -2.4552 -0.8165
50788SOL     OW57174   7.601   9.317  11.676  0.1522  0.4658  0.1556
50788SOL    HW157175   7.535   9.247  11.674 -0.2938  0.8798  0.2037
50788SOL    HW257176   7.662   9.295  11.607  2.2305 -2.1007  2.5732
50789SOL     OW57177   9.963   2.477   8.581  0.1878 -0.2799 -0.3476
50789SOL    HW157178   9.871   2.503   8.587  0.5448  0.8877  0.3779
50789SOL    HW257179   9.989   2.456   8.671  0.5466 -0.8915 -0.5901
50790SOL     OW57180  11.852   6.939   9.506 -0.7328  0.3008 -0.5951
50790SOL    HW157181  11.768   6.926   9.551 -0.4954 -0.6652 -0.4113
50790SOL    HW257182  11.840   6.896   9.421 -0.5260  0.4475 -0.6995
50791SOL     OW57183   4.373   0.055   6.507 -0.2864 -0.5902 -0.3530
50791SOL    HW157184   4.283   0.085   6.500 -0.4207 -1.0007 -0.3861
50791SOL    HW257185   4.383  -0.007   6.435 -0.0415 -0.7143 -0.2116
50792SOL     OW57186  12.393  10.216   6.597  0.2552  0.4020  0.2105
50792SOL    HW157187  12.309  10.172   6.584 -0.7583  2.1181  0.7545
50792SOL    HW257188  12.410  10.261   6.514 -0.0432  1.1702  0.5621
50793SOL     OW57189  10.678   0.724  11.463  0.1145  0.3048  0.2925
50793SOL    HW157190  10.749   0.777  11.499 -0.6043  1.0127  0.6893
50793SOL    HW257191  10.598   0.770  11.489 -0.4741 -0.0546 -0.8164
50794SOL     OW57192  10.468  10.939   1.118  0.5467 -0.1359  0.1493
50794SOL    HW157193  10.382  10.905   1.144  0.3156  0.8733  0.7683
50794SOL    HW257194  10.471  10.928   1.023  0.4236 -1.6989  0.3005
50795SOL     OW57195   0.686   8.508  11.213 -0.0920 -0.1632  0.5056
50795SOL    HW157196   0.749   8.489  11.283 -2.0325 -0.9473  2.1509
50795SOL    HW257197   0.677   8.425  11.166 -0.2700 -0.1850  0.5800
50796SOL     OW57198   5.999  10.031   3.260  0.2167  0.4407  0.1294
50796SOL    HW157199   5.984  10.045   3.167  0.3046  0.5588  0.1326
50796SOL    HW257200   5.924   9.979   3.289 -0.2145  1.0675  0.1585
50797SOL     OW57201   4.971   2.832   9.553 -0.4916 -0.2351  0.1312
50797SOL    HW157202   5.064   2.852   9.544 -0.9043  2.9820  1.6147
50797SOL    HW257203   4.955   2.833   9.647 -1.9589 -1.3295 -0.0662
50798SOL     OW57204   9.700   6.550  10.292  0.3241 -0.6158 -0.0957
50798SOL    HW157205   9.705   6.628  10.348  4.4316 -0.2689 -0.5835
50798SOL    HW257206   9.613   6.554  10.253 -0.8870  1.8281  2.4741
50799SOL     OW57207   9.525   4.132   4.811  0.0774 -0.0030 -0.1482
50799SOL    HW157208   9.498   4.172   4.894  0.4590  1.1456 -0.5551
50799SOL    HW257209   9.584   4.061   4.837 -1.1467 -0.7821  0.6168
50800SOL     OW57210   8.136   8.717   0.830 -0.5174  0.0455 -0.2463
50800SOL    HW157211   8.228   8.692   0.839 -0.4271  0.0292 -1.1354
50800SOL    HW257212   8.090   8.634   0.819 -0.4780  0.1333 -1.0864
50801SOL     OW57213   5.593   7.123   0.930 -0.0384  0.5280  0.0402
50801SOL    HW157214   5.586   7.045   0.876 -0.4270 -0.2843  1.2429
50801SOL    HW257215   5.503   7.151   0.945  0.0340  0.3697  0.8045
50802SOL     OW57216   3.324   0.909  10.579  0.6564 -0.0979  0.3491
50802SOL    HW157217   3.294   0.992  10.542  0.7079  0.5487  1.6784
50802SOL    HW257218   3.420   0.915  10.576  0.6591 -0.1338  0.3615
50803SOL     OW57219  12.080   0.888   0.793 -0.1143 -0.7068  0.0550
50803SOL    HW157220  12.171   0.859   0.799  0.4071  0.7801 -0.2564
50803SOL    HW257221  12.033   0.831   0.853  1.1263 -1.1373  0.6585
50804SOL     OW57222  11.781   4.667  12.393 -0.1421  0.0756  0.1252
50804SOL    HW157223  11.756   4.627  12.476  4.0013 -1.3594  0.9090
50804SOL    HW257224  11.876   4.655  12.388 -0.0750  0.7557 -4.5104
50805SOL     OW57225   1.436  10.524   0.923  0.0388 -0.4519  0.5041
50805SOL    HW157226   1.430  10.559   1.012 -0.3417 -0.6741  0.5715
50805SOL    HW257227   1.360  10.467   0.915 -0.4651  0.2938 -0.2869
50806SOL     OW57228   9.651   7.662   7.725 -0.8662 -0.2694  0.6489
50806SOL    HW157229   9.617   7.750   7.710 -2.2379 -0.9409 -0.5508
50806SOL    HW257230   9.731   7.657   7.673 -0.7609  0.2781  0.7584
50807SOL     OW57231  11.725   9.461   5.067 -0.1306 -0.2333  0.3080
50807SOL    HW157232  11.639   9.459   5.025  0.3508 -1.1694 -0.6768
50807SOL    HW257233  11.756   9.371   5.064  0.3253 -0.1574  1.8784
50808SOL     OW57234  10.315   3.056   7.778 -0.2396  0.4740  0.6800
50808SOL    HW157235  10.351   3.082   7.863  0.1203 -1.2601  1.0972
50808SOL    HW257236  10.375   3.093   7.713  0.8347 -0.1866  1.2790
50809SOL     OW57237   2.108   4.878   0.158  0.2232  0.0921  0.0698
50809SOL    HW157238   2.112   4.797   0.107 -0.8880 -0.2102  0.4245
50809SOL    HW257239   2.147   4.945   0.101 -2.4677  0.1080 -1.9512
50810SOL     OW57240   0.208   0.105   1.418  0.0949 -0.0225  0.4045
50810SOL    HW157241   0.272   0.108   1.347 -0.4942 -0.4389 -0.1511
50810SOL    HW257242   0.182   0.013   1.422 -0.3362  0.1140  0.7554
50811SOL     OW57243   9.427  10.533   1.275 -0.0986  0.4378  0.3810
50811SOL    HW157244   9.342  10.573   1.257 -0.3846 -0.2711  0.1332
50811SOL    HW257245   9.471  10.597   1.332 -0.6836  0.9360  0.2953
50812SOL     OW57246   1.817   1.878   7.393  0.2166  0.7936 -0.1773
50812SOL    HW157247   1.858   1.963   7.373 -1.8455  1.9517  0.2803
50812SOL    HW257248   1.756   1.897   7.464  0.0525 -1.2104  0.2731
50813SOL     OW57249   8.238  11.586   9.141 -0.4804 -0.0698  0.1172
50813SOL    HW157250   8.180  11.662   9.151 -2.1863 -1.0282 -1.8624
50813SOL    HW257251   8.186  11.522   9.093  0.9682 -2.4745  1.5588
50814SOL     OW57252   9.822   2.469   4.446  0.0159  0.4976  0.2933
50814SOL    HW157253   9.845   2.501   4.533  1.8079 -0.1529  0.1041
50814SOL    HW257254   9.856   2.379   4.444  1.7858  1.1293 -1.6930
50815SOL     OW57255   6.110  10.082   5.186  0.2506 -0.0818 -0.0035
50815SOL    HW157256   6.053  10.024   5.136 -0.3701  0.8440 -0.4051
50815SOL    HW257257   6.065  10.167   5.185  1.1390  0.4165  0.5499
50816SOL     OW57258   5.250   9.931   7.954  0.6162  0.2845  0.1462
50816SOL    HW157259   5.161   9.940   7.918  0.2929 -4.1663 -0.6888
50816SOL    HW257260   5.237   9.934   8.049 -0.3515  0.3017  0.0315
50817SOL     OW57261   6.723   1.075   7.115  0.4099 -0.0230 -0.2642
50817SOL    HW157262   6.651   1.012   7.117  0.2294  0.2018  1.2758
50817SOL    HW257263   6.701   1.133   7.041 -0.7483 -0.2440 -0.1158
50818SOL     OW57264   9.836   8.559   5.639  0.0805  0.0509  0.1844
50818SOL    HW157265   9.923   8.553   5.677  0.3589  0.1064 -0.4449
50818SOL    HW257266   9.843   8.516   5.554 -0.3217  0.7036 -0.1872
50819SOL     OW57267   4.798   8.305   1.968 -0.1286 -0.6526  0.6064
50819SOL    HW157268   4.813   8.278   2.059 -1.1813  0.0851  1.0224
50819SOL    HW257269   4.863   8.372   1.952  1.9768 -2.7383 -0.1710
50820SOL     OW57270   0.482   0.098   2.925  0.8168  0.5564  0.0908
50820SOL    HW157271   0.552   0.050   2.969  1.8515  1.2676 -0.7429
50820SOL    HW257272   0.523   0.136   2.848 -0.8424 -0.2754 -1.2873
50821SOL     OW57273   7.492   8.540   4.054 -0.6846 -0.4613 -0.4956
50821SOL    HW157274   7.400   8.566   4.047 -0.6094 -0.1551 -0.3095
50821SOL    HW257275   7.502   8.509   4.144 -0.3842  0.3567 -0.2379
50822SOL     OW57276   6.521   0.050   6.552 -0.0886 -0.0643 -0.2935
50822SOL    HW157277   6.570   0.042   6.470  3.5927  2.0330  1.4417
50822SOL    HW257278   6.487   0.139   6.552  0.5589  0.2083  0.6824
50823SOL     OW57279   7.347   3.266   9.021 -0.5713  0.0089  0.1379
50823SOL    HW157280   7.356   3.353   8.982  2.4604 -0.7223 -1.0930
50823SOL    HW257281   7.321   3.209   8.949  0.1621 -0.5230  0.2702
50824SOL     OW57282  11.202   3.415   5.770  0.4395  0.4619 -0.0243
50824SOL    HW157283  11.254   3.438   5.847  0.6765  0.3631 -0.1504
50824SOL    HW257284  11.156   3.336   5.794  1.4029 -0.2290 -0.3663
50825SOL     OW57285   9.989   0.883   0.461  0.4444  0.3790  0.3450
50825SOL    HW157286   9.973   0.953   0.525  0.3245  0.4938  0.1885
50825SOL    HW257287   9.979   0.802   0.512 -0.7234  0.4409  0.2378
50826SOL     OW57288  11.744  10.519   4.212 -0.0438  0.1569 -0.0604
50826SOL    HW157289  11.724  10.544   4.122  0.8781  2.7256  0.3609
50826SOL    HW257290  11.754  10.424   4.209 -0.9957  0.0650 -2.4442
50827SOL     OW57291   3.845   6.863  11.278 -0.0486  0.5463  0.4273
50827SOL    HW157292   3.852   6.814  11.197  0.5712 -0.7451  1.2201
50827SOL    HW257293   3.824   6.797  11.345  0.0499  1.4701  1.4068
50828SOL     OW57294  12.435   9.332   3.303 -0.6510  0.1848 -0.1489
50828SOL    HW157295  12.475   9.251   3.333  0.5949  0.7827 -0.1517
50828SOL    HW257296  12.344   9.308   3.283 -0.1306 -1.3307 -0.7798
50829SOL     OW57297   2.897  10.456  10.909 -0.0445 -0.8148  0.2536
50829SOL    HW157298   2.848  10.447  10.991 -0.4673  0.1137  0.1201
50829SOL    HW257299   2.972  10.511  10.932 -0.7279  0.3468 -0.1792
50830SOL     OW57300   4.862  11.111  11.025  0.2040 -0.2048 -0.4303
50830SOL    HW157301   4.811  11.147  11.098  0.6478 -0.1657 -0.1326
50830SOL    HW257302   4.841  11.167  10.951  0.8899  0.6727  0.0277
50831SOL     OW57303   6.966   6.300   4.697 -0.3107 -0.4262 -0.1935
50831SOL    HW157304   6.997   6.312   4.787  0.6033 -0.2266 -0.5187
50831SOL    HW257305   7.005   6.218   4.668  0.4336  0.1264 -0.8127
50832SOL     OW57306   2.186   2.372   1.176 -0.2594  0.3721  0.1466
50832SOL    HW157307   2.258   2.311   1.169 -1.1289 -0.6156 -0.4534
50832SOL    HW257308   2.120   2.326   1.228 -1.8361 -0.1533 -2.1511
50833SOL     OW57309   7.265   0.667   5.120  0.2027 -0.3877 -0.0915
50833SOL    HW157310   7.269   0.647   5.026  1.1299 -0.9219  0.0431
50833SOL    HW257311   7.338   0.617   5.157  0.2353  0.3266  0.8209
50834SOL     OW57312  10.201   5.532   5.050  0.0583  0.2253  0.2798
50834SOL    HW157313  10.220   5.564   5.139 -0.9688  1.3090  0.1352
50834SOL    HW257314  10.126   5.584   5.022  0.6396  0.1964 -1.4028
50835SOL     OW57315   9.649   1.441   5.947 -0.1954 -0.1414 -0.0337
50835SOL    HW157316   9.564   1.424   5.989 -1.3349  1.9039 -1.3363
50835SOL    HW257317   9.709   1.453   6.020 -1.1327 -1.0365  0.9329
50836SOL     OW57318   6.702   1.678   0.703 -0.4084 -0.2875  0.0321
50836SOL    HW157319   6.672   1.588   0.700 -0.5837 -0.3108  1.8157
50836SOL    HW257320   6.798   1.672   0.709 -0.4717 -0.3966  1.0800
50837SOL     OW57321   5.291   7.785  11.718 -0.1925 -0.2324 -0.0014
50837SOL    HW157322   5.340   7.851  11.671 -0.9937 -0.4229 -1.1516
50837SOL    HW257323   5.308   7.704  11.671  0.5108 -0.7989  1.1946
50838SOL     OW57324   0.588   3.858   3.828 -0.7788 -0.0546  0.3076
50838SOL    HW157325   0.672   3.817   3.807 -1.3966 -0.5651 -1.3677
50838SOL    HW257326   0.560   3.815   3.909  0.9173  0.7052  1.3469
50839SOL     OW57327   8.282   3.618   1.514 -0.3769  0.0662 -0.1971
50839SOL    HW157328   8.334   3.658   1.445  0.3140 -0.1712  0.1751
50839SOL    HW257329   8.221   3.560   1.468  0.2928 -0.3346 -0.5805
50840SOL     OW57330   0.616   1.196   9.280 -0.3935  0.5417  0.2585
50840SOL    HW157331   0.609   1.263   9.211 -0.9623 -0.7937 -1.0492
50840SOL    HW257332   0.710   1.178   9.286 -0.4145 -0.0958 -0.9814
50841SOL     OW57333   8.998   7.048   6.019  0.0022  0.3560  0.0841
50841SOL    HW157334   8.903   7.040   6.030 -0.1157 -2.4839 -1.6820
50841SOL    HW257335   9.012   7.138   5.989 -1.9702  1.1686  1.4421
50842SOL     OW57336   6.345  11.016   6.513  0.0223 -0.0843 -0.1275
50842SOL    HW157337   6.383  11.087   6.565  0.9296  1.3530 -2.5258
50842SOL    HW257338   6.284  11.060   6.454 -1.4154 -1.7090  0.0715
50843SOL     OW57339   3.174   5.591   5.946  0.4691 -0.0794 -0.1146
50843SOL    HW157340   3.256   5.639   5.961  1.9317 -2.0749 -1.2655
50843SOL    HW257341   3.202   5.501   5.931 -1.8147 -0.5180 -2.1894
50844SOL     OW57342   1.467  10.577   1.191  0.1974 -0.2858  0.1373
50844SOL    HW157343   1.393  10.617   1.237 -0.8479 -0.5893 -1.2038
50844SOL    HW257344   1.530  10.556   1.260 -0.4874  0.9725  1.1940
50845SOL     OW57345   9.458   9.534   0.668  0.7376  0.6953 -0.1973
50845SOL    HW157346   9.438   9.441   0.662  1.5824  0.4427  0.5358
50845SOL    HW257347   9.462   9.564   0.578  3.6462 -0.7257 -0.6685
50846SOL     OW57348  10.792   5.282   2.404 -0.0264 -0.5324  0.4905
50846SOL    HW157349  10.844   5.264   2.325 -0.0696  3.2596 -0.6207
50846SOL    HW257350  10.857   5.300   2.472  0.0251 -1.3011  0.6540
50847SOL     OW57351   2.742   7.416   1.558 -0.1234 -0.1050 -0.1607
50847SOL    HW157352   2.809   7.351   1.580  0.5033  0.1966 -1.1195
50847SOL    HW257353   2.747   7.424   1.463 -3.6820 -2.4287 -0.7572
50848SOL     OW57354   5.158   0.208   2.362 -0.1949 -0.1975  0.6777
50848SOL    HW157355   5.236   0.263   2.358  1.4805 -2.4277  0.6539
50848SOL    HW257356   5.192   0.119   2.374 -2.6709 -1.4984 -1.0866
50849SOL     OW57357  11.885   2.622  10.055 -0.0753  0.4014 -0.1610
50849SOL    HW157358  11.802   2.614  10.009 -0.4523  1.1666  0.3556
50849SOL    HW257359  11.952   2.615   9.987 -0.5964  0.6367 -0.7000
50850SOL     OW57360  11.341   4.667  10.039  0.0912  0.0484  0.0349
50850SOL    HW157361  11.250   4.639  10.048 -0.1169  0.4727 -0.6059
50850SOL    HW257362  11.354   4.675   9.944  0.1621  1.9819  0.1661
50851SOL     OW57363  10.558   7.748   7.111 -1.0491 -0.4375  0.2390
50851SOL    HW157364  10.638   7.717   7.154 -0.4964  2.0521  1.2442
50851SOL    HW257365  10.491   7.684   7.134  0.4016 -1.9829  0.3342
50852SOL     OW57366   0.797   2.506  10.295 -0.1332  0.2490 -0.3109
50852SOL    HW157367   0.863   2.570  10.270  0.8953 -0.2715  0.9860
50852SOL    HW257368   0.830   2.422  10.262  1.5439 -0.5589  3.0164
50853SOL     OW57369   5.652   7.566   3.169 -0.0852 -0.5771  0.5384
50853SOL    HW157370   5.670   7.626   3.241  2.4883 -0.1378 -0.3599
50853SOL    HW257371   5.698   7.604   3.094 -0.2977 -2.4713 -0.6262
50854SOL     OW57372  10.410  11.249  10.660  0.3675 -0.1559 -0.5077
50854SOL    HW157373  10.342  11.295  10.610  1.3854 -1.6881 -3.4788
50854SOL    HW257374  10.492  11.286  10.629  1.0296 -0.3862  0.8986
50855SOL     OW57375   5.288   6.985   2.458 -0.4399  0.0960  0.1045
50855SOL    HW157376   5.298   7.079   2.472  0.2026  0.0314  0.0997
50855SOL    HW257377   5.197   6.974   2.430 -1.0141  0.5266  1.7136
50856SOL     OW57378   7.640   1.371  12.468  0.0272  0.4644  0.3077
50856SOL    HW157379   7.580   1.435  12.508 -0.0668  0.3368  0.3719
50856SOL    HW257380   7.582   1.303  12.432  0.0941  0.7533 -0.3543
50857SOL     OW57381   7.232  12.152   7.286  0.1841  0.0054 -0.1040
50857SOL    HW157382   7.149  12.135   7.242  0.1654 -1.4583  0.4498
50857SOL    HW257383   7.251  12.071   7.334  0.7893  1.1102  1.6142
50858SOL     OW57384   2.750   5.714   1.368 -0.1214  0.5301  0.4026
50858SOL    HW157385   2.730   5.636   1.420  1.7631  0.3461  0.9136
50858SOL    HW257386   2.671   5.767   1.374 -1.3234 -1.1866  0.3155
50859SOL     OW57387   7.747   1.807   4.145 -0.4601 -0.1992  0.5957
50859SOL    HW157388   7.752   1.809   4.240  0.6971  1.3242  0.5316
50859SOL    HW257389   7.801   1.880   4.116 -0.2402 -1.0422 -1.2648
50860SOL     OW57390   1.379   6.372   1.279 -0.5348 -0.3462 -0.5940
50860SOL    HW157391   1.421   6.293   1.314  0.8041  0.7285  0.3451
50860SOL    HW257392   1.401   6.371   1.186 -0.1781 -0.8632 -0.5131
50861SOL     OW57393   5.325   2.790   5.310  0.1839  0.6919  0.1131
50861SOL    HW157394   5.413   2.828   5.305  0.7664 -0.5085  0.8570
50861SOL    HW257395   5.321   2.751   5.397 -0.3982 -0.8968 -0.6001
50862SOL     OW57396   3.126  11.826   6.097 -0.4551  0.2487 -0.6028
50862SOL    HW157397   3.084  11.783   6.172  2.4771  0.3758  1.2596
50862SOL    HW257398   3.140  11.916   6.126  2.3707 -0.1473 -0.4586
50863SOL     OW57399   6.360  11.670   7.889 -0.1908  0.5191  0.6862
50863SOL    HW157400   6.386  11.653   7.798  0.4270  0.7077  0.8225
50863SOL    HW257401   6.319  11.588   7.918  0.6725  0.0496  0.6097
50864SOL     OW57402  12.503   2.849  12.193 -0.0119 -0.2176  1.1830
50864SOL    HW157403  12.461   2.781  12.140  1.1333 -0.4012  0.4713
50864SOL    HW257404  12.483   2.931  12.147  1.9246 -0.4771 -0.2524
50865SOL     OW57405   1.709   5.604   9.344  0.5617 -0.6076  0.1084
50865SOL    HW157406   1.678   5.662   9.274  0.5038 -0.0085  0.6221
50865SOL    HW257407   1.754   5.662   9.405  0.4547 -1.1042  0.6663
50866SOL     OW57408   1.710   9.160   2.909  0.0036  0.3151 -0.0480
50866SOL    HW157409   1.646   9.210   2.958 -0.0090 -0.0758  0.3448
50866SOL    HW257410   1.704   9.071   2.945 -0.9308 -0.3079 -1.6308
50867SOL     OW57411   9.402   1.639   5.689 -0.2590 -0.2515 -0.1413
50867SOL    HW157412   9.317   1.672   5.719 -0.9318 -0.9837 -1.1751
50867SOL    HW257413   9.389   1.621   5.596  1.4621  0.9727 -0.6590
50868SOL     OW57414   5.563   3.947   9.498 -0.1366 -0.4704  0.0616
50868SOL    HW157415   5.491   3.911   9.446  0.3639 -1.4893  0.0465
50868SOL    HW257416   5.611   3.870   9.528  0.9840  0.1937  0.0171
50869SOL     OW57417   4.955   2.348   2.827  0.5985  0.3241  0.4584
50869SOL    HW157418   5.035   2.395   2.846  0.3632  0.1345  2.0434
50869SOL    HW257419   4.886   2.398   2.871  0.2392 -0.9800  1.4702
50870SOL     OW57420   3.536   0.834   3.723 -0.2149 -0.1097  0.0381
50870SOL    HW157421   3.450   0.793   3.734  0.1599 -1.0863 -0.5522
50870SOL    HW257422   3.531   0.914   3.775 -1.7009  0.1771 -0.5034
50871SOL     OW57423  11.352   4.714   0.672 -0.4370 -0.4386  0.6087
50871SOL    HW157424  11.364   4.694   0.765  0.3448 -0.4189  0.5178
50871SOL    HW257425  11.326   4.806   0.670  1.6804  0.2063  0.6979
50872SOL     OW57426   8.653   2.399   9.233  0.3567  0.1684 -0.0352
50872SOL    HW157427   8.605   2.325   9.272 -0.6954  0.0313 -1.4977
50872SOL    HW257428   8.585   2.463   9.212  1.0888  0.9046 -0.2098
50873SOL     OW57429  12.260   3.003   0.689 -0.7102  0.3196 -0.0542
50873SOL    HW157430  12.290   3.072   0.631  0.9455  1.0401  1.5466
50873SOL    HW257431  12.333   2.943   0.696 -1.3559 -0.4567  0.2478
50874SOL     OW57432   4.707   7.032  11.500 -0.1335  0.2933  0.0102
50874SOL    HW157433   4.794   7.001  11.472 -0.9554 -1.1430 -1.1039
50874SOL    HW257434   4.646   6.980  11.448 -1.6700  2.8115 -0.8691
50875SOL     OW57435  12.342   0.080  12.497 -0.5376 -0.4390 -0.1230
50875SOL    HW157436  12.420   0.135  12.497  1.1230 -2.6162 -1.6542
50875SOL    HW257437  12.303   0.094  12.583 -0.5857  3.4512 -0.5632
50876SOL     OW57438   1.451   7.193   4.598  0.0037  0.3460  0.3002
50876SOL    HW157439   1.401   7.274   4.588 -0.6599 -0.0330  0.4961
50876SOL    HW257440   1.386   7.123   4.585  0.9157 -0.1971 -1.8079
50877SOL     OW57441   7.764   1.099   1.318 -0.4560  0.2476 -1.0242
50877SOL    HW157442   7.840   1.151   1.295 -0.8338  1.9422  1.2060
50877SOL    HW257443   7.793   1.008   1.310  0.6862  0.7580 -3.5556
50878SOL     OW57444  11.394   7.077  12.273  0.6944 -1.1250 -0.6340
50878SOL    HW157445  11.490   7.077  12.273  0.7018 -1.4741  0.2174
50878SOL    HW257446  11.371   6.992  12.311  0.0574 -0.3132  0.8423
50879SOL     OW57447   1.981   9.304   3.335 -0.3109 -0.5539 -0.5239
50879SOL    HW157448   1.923   9.239   3.375  0.4271  0.5005  2.5160
50879SOL    HW257449   2.064   9.257   3.322 -0.3411 -0.7193 -0.1253
50880SOL     OW57450   9.067   0.545   5.559  0.1426 -0.0837  0.4369
50880SOL    HW157451   9.102   0.595   5.485  1.3114 -1.1815  0.2076
50880SOL    HW257452   9.140   0.542   5.622 -0.4158 -0.2408  1.0843
50881SOL     OW57453   6.468   7.201   7.119  0.3209  0.2371  0.0187
50881SOL    HW157454   6.440   7.147   7.045 -1.1613  1.1426 -0.1238
50881SOL    HW257455   6.563   7.207   7.110  0.3509 -1.0853 -0.8141
50882SOL     OW57456  11.903   2.969   2.708 -0.1379 -0.1505 -0.2188
50882SOL    HW157457  11.949   2.913   2.646 -3.1485 -1.9655 -1.0595
50882SOL    HW257458  11.917   2.929   2.793  0.4779 -0.2074 -0.3474
50883SOL     OW57459  10.787   9.373   4.326 -0.5017 -0.2662 -0.2510
50883SOL    HW157460  10.771   9.446   4.266 -0.1376 -0.1297 -0.1864
50883SOL    HW257461  10.706   9.367   4.378  0.0409  1.1654  0.8576
50884SOL     OW57462   9.542   5.337   1.247  0.2335 -0.1563 -0.2943
50884SOL    HW157463   9.637   5.340   1.253  0.2708  0.8104 -1.1618
50884SOL    HW257464   9.518   5.415   1.197 -0.9312 -0.9902 -1.0911
50885SOL     OW57465   3.741  11.558  10.809  0.0128 -0.0726  0.3679
50885SOL    HW157466   3.746  11.649  10.779  0.2241 -0.3987 -0.6280
50885SOL    HW257467   3.828  11.539  10.843  0.4438 -0.3395 -0.8056
50886SOL     OW57468   1.335  10.616  11.604 -0.4150  0.1299 -0.2492
50886SOL    HW157469   1.358  10.657  11.687  0.6377 -0.6982 -0.1006
50886SOL    HW257470   1.311  10.688  11.546  0.2950  0.8468  0.3419
50887SOL     OW57471   7.884  12.158  11.791 -0.1192  0.2103 -0.8263
50887SOL    HW157472   7.935  12.217  11.735 -0.9892 -0.1064 -1.9843
50887SOL    HW257473   7.945  12.133  11.860  0.0801  3.0546  0.1780
50888SOL     OW57474   9.607   3.055  10.700 -0.1893 -0.8832  0.0507
50888SOL    HW157475   9.593   2.972  10.654  1.3333 -0.2392 -1.7276
50888SOL    HW257476   9.653   3.032  10.780  0.8223 -1.7283 -0.7497
50889SOL     OW57477  12.316  10.999   5.284  0.3770  0.2858 -0.0044
50889SOL    HW157478  12.263  11.078   5.298  0.6603  0.6533 -0.9636
50889SOL    HW257479  12.261  10.927   5.314  0.4329  0.8971  1.7170
50890SOL     OW57480   6.991  11.058   2.292 -0.3819  0.2195  0.1634
50890SOL    HW157481   7.085  11.046   2.289 -0.3978 -0.1860  0.8493
50890SOL    HW257482   6.965  11.073   2.202  0.3883  0.7467  0.0203
50891SOL     OW57483   6.486  12.328   2.105 -0.1988 -0.4213 -0.7869
50891SOL    HW157484   6.478  12.321   2.010  0.4034  1.8337 -1.0561
50891SOL    HW257485   6.432  12.403   2.129  1.1557  0.2550  0.3626
50892SOL     OW57486  12.049   1.318  10.153  0.2673  0.0624 -0.4593
50892SOL    HW157487  12.004   1.269  10.084  1.0347 -1.2191 -0.0712
50892SOL    HW257488  11.995   1.396  10.165 -0.2993 -0.0534 -1.9725
50893SOL     OW57489   5.725  12.525   5.169  0.9219  0.1852  0.5751
50893SOL    HW157490   5.751  12.496   5.256  1.6398 -0.3353  0.1946
50893SOL    HW257491   5.630  12.510   5.166  0.6364  1.5350  1.7565
50894SOL     OW57492  11.533   8.691   6.298 -0.3818  0.0639  0.4543
50894SOL    HW157493  11.591   8.755   6.339 -0.4447  0.4534 -0.0588
50894SOL    HW257494  11.448   8.707   6.338 -0.3938  0.2926  0.3389
50895SOL     OW57495  12.505   6.356   4.165 -0.3385  0.2441  0.1033
50895SOL    HW157496  12.599   6.371   4.160 -0.2509 -0.4151 -0.4155
50895SOL    HW257497  12.468   6.439   4.194  0.4847  0.2775  1.1424
50896SOL     OW57498  10.306   8.490  11.802  0.1415  0.3250  0.0224
50896SOL    HW157499  10.259   8.481  11.719 -1.9835 -0.2682  1.2278
50896SOL    HW257500  10.382   8.544  11.780 -0.6822  0.7211 -2.1731
50897SOL     OW57501   6.774   5.690   3.635  0.5400  0.3860  0.1113
50897SOL    HW157502   6.850   5.668   3.581 -0.0536  1.0758 -1.0448
50897SOL    HW257503   6.808   5.690   3.725  1.7073 -0.1117 -0.3066
50898SOL     OW57504   7.137  10.237   4.908  0.4924 -0.1668  0.0826
50898SOL    HW157505   7.205  10.304   4.901  0.2542  0.3097  1.7682
50898SOL    HW257506   7.080  10.252   4.834  1.8801 -0.1956 -1.0360
50899SOL     OW57507   5.152  12.351   3.492  0.2791  0.5789  0.0425
50899SOL    HW157508   5.170  12.360   3.585  0.7178  1.1881 -0.0891
50899SOL    HW257509   5.122  12.261   3.481  2.6465 -0.3232  0.4060
50900SOL     OW57510   5.089   3.994   4.789  0.0354  0.0202 -0.6813
50900SOL    HW157511   5.050   4.074   4.754 -1.0904 -0.1196  0.2181
50900SOL    HW257512   5.027   3.925   4.765  0.5511 -0.4532 -0.6664
50901SOL     OW57513   8.887   0.500   1.298 -0.1078  0.0058 -0.1116
50901SOL    HW157514   8.952   0.529   1.235 -0.9685  0.5424 -0.7854
50901SOL    HW257515   8.836   0.579   1.319  1.3861  0.3448  2.8407
50902SOL     OW57516   3.055   2.446   6.187 -0.1807 -0.1598  0.0857
50902SOL    HW157517   3.118   2.489   6.244  0.3481 -1.4596  0.5272
50902SOL    HW257518   3.036   2.510   6.118  0.9847  0.5452  0.4019
50903SOL     OW57519   8.809   1.174   2.686  0.1872 -0.5515  0.7130
50903SOL    HW157520   8.820   1.230   2.762 -0.4256 -1.1585  1.2642
50903SOL    HW257521   8.874   1.104   2.698 -0.2761 -0.9445  0.9671
50904SOL     OW57522   2.773   3.566   9.283  0.0153  0.0293  0.8064
50904SOL    HW157523   2.736   3.478   9.295  0.1373 -0.1621 -0.1286
50904SOL    HW257524   2.836   3.555   9.212  0.7172  0.6878  1.3186
50905SOL     OW57525   2.689   0.731   8.234  0.3973  0.0034  0.2876
50905SOL    HW157526   2.619   0.769   8.180  0.0633 -1.9692 -0.7882
50905SOL    HW257527   2.759   0.796   8.230  0.6414 -0.2440 -3.1466
50906SOL     OW57528   2.998   1.215   9.984  0.1671  0.2173  0.0765
50906SOL    HW157529   3.072   1.272  10.004  1.6717 -1.2389 -1.0114
50906SOL    HW257530   2.930   1.242  10.045  1.9999  0.8174  1.9942
50907SOL     OW57531   9.250   2.053   0.766  0.1909  0.3076  0.1151
50907SOL    HW157532   9.191   2.011   0.703  0.6615 -1.2567  0.6837
50907SOL    HW257533   9.225   2.018   0.851  1.9881 -0.4888  0.3618
50908SOL     OW57534   6.436   5.953   1.362 -0.7057  0.4835 -0.0719
50908SOL    HW157535   6.527   5.980   1.351 -0.8359  0.8490 -0.2644
50908SOL    HW257536   6.386   6.010   1.304 -1.0644  0.3101  0.0576
50909SOL     OW57537   4.586  11.136   8.649 -0.0979 -0.1211 -0.1546
50909SOL    HW157538   4.574  11.067   8.714 -0.7398  1.9518  2.0683
50909SOL    HW257539   4.639  11.202   8.694  0.4923  0.8617 -2.1832
50910SOL     OW57540   9.356  11.061   7.011  0.1161  0.1784  0.2589
50910SOL    HW157541   9.272  11.106   6.998 -0.8214 -1.1909  1.2550
50910SOL    HW257542   9.413  11.127   7.050 -0.9246  0.7926  0.8032
50911SOL     OW57543   0.238  11.016  10.544 -0.1538  0.0803  0.6513
50911SOL    HW157544   0.210  11.107  10.539  3.7749  1.4253 -1.1820
50911SOL    HW257545   0.218  10.979  10.458 -1.2009 -0.6459  1.1908
50912SOL     OW57546  11.596   0.787   6.315  0.5778  0.1476 -0.0993
50912SOL    HW157547  11.646   0.837   6.251  0.6802  2.2379  1.5307
50912SOL    HW257548  11.578   0.848   6.386  1.3402 -2.2877  2.4045
50913SOL     OW57549   5.921   5.421   8.441  0.1333  0.7711 -0.1481
50913SOL    HW157550   5.921   5.461   8.354  1.3703 -1.1323 -1.1066
50913SOL    HW257551   5.843   5.365   8.442  1.2516 -0.8866 -0.9409
50914SOL     OW57552   4.966   9.602  11.974 -0.0881  0.1603  0.6837
50914SOL    HW157553   5.047   9.597  11.924 -0.6968  0.4310 -0.3500
50914SOL    HW257554   4.967   9.525  12.031  0.4467 -0.3334  0.0046
50915SOL     OW57555   0.724  10.517   4.311  0.4356  0.0232 -0.4932
50915SOL    HW157556   0.664  10.514   4.385  0.9872  2.4928  0.1215
50915SOL    HW257557   0.804  10.475   4.343 -0.9503 -3.7756 -1.4842
50916SOL     OW57558   5.209   9.117   8.461 -0.3231  0.4049  0.1666
50916SOL    HW157559   5.264   9.042   8.439 -2.4478 -0.9362 -0.9192
50916SOL    HW257560   5.168   9.092   8.544 -2.4158 -0.5663 -1.0670
50917SOL     OW57561   9.691   2.045   2.496  0.0441 -0.8019  0.0259
50917SOL    HW157562   9.770   2.072   2.542  0.6730  0.3800 -1.6214
50917SOL    HW257563   9.622   2.048   2.562  1.1774 -0.8206  1.2496
50918SOL     OW57564   1.185   3.020   5.766  0.2392 -0.2586 -0.5746
50918SOL    HW157565   1.107   2.978   5.802 -1.0700  1.5939 -1.1173
50918SOL    HW257566   1.153   3.100   5.725  2.6054  1.3130  0.4362
50919SOL     OW57567  10.195  11.163   6.664 -0.2801  0.2664  0.2117
50919SOL    HW157568  10.153  11.199   6.586 -2.2763 -0.8196  0.7055
50919SOL    HW257569  10.211  11.071   6.642  0.8351  0.3937  0.4536
50920SOL     OW57570  10.736   1.109   8.791  0.2514 -0.0277 -0.1042
50920SOL    HW157571  10.777   1.115   8.877  0.5464 -1.9010 -0.0535
50920SOL    HW257572  10.725   1.014   8.777 -0.8824  0.2851 -1.6117
50921SOL     OW57573   6.146  10.765   8.629 -0.0743  0.0378  0.9897
50921SOL    HW157574   6.235  10.731   8.634  0.7811  2.0165 -0.1191
50921SOL    HW257575   6.091  10.687   8.639  1.7721 -1.5067 -0.1488
50922SOL     OW57576   6.302   4.628   2.104 -0.1760 -0.0488 -0.2735
50922SOL    HW157577   6.340   4.547   2.137  1.8863  1.2518  0.7128
50922SOL    HW257578   6.208   4.618   2.117  0.1587 -1.7070  1.1293
50923SOL     OW57579  10.511  12.187  11.487  0.0764 -0.3099  0.4785
50923SOL    HW157580  10.604  12.164  11.482 -0.4237 -2.1997 -2.0185
50923SOL    HW257581  10.477  12.130  11.557  0.4384 -1.0685  0.0488
50924SOL     OW57582   3.598   3.674   2.516 -0.4172 -0.1009 -0.4126
50924SOL    HW157583   3.680   3.722   2.510 -0.4714  0.1082  0.4467
50924SOL    HW257584   3.541   3.729   2.570 -0.1005 -1.6146  1.5776
50925SOL     OW57585   0.357  11.812   9.411  0.2306 -0.3601 -0.4765
50925SOL    HW157586   0.278  11.758   9.420 -3.2888  4.4343  1.3677
50925SOL    HW257587   0.404  11.799   9.493 -0.9194 -0.1757  0.2303
50926SOL     OW57588  11.721   2.685  10.907  0.5151 -0.3449 -0.1635
50926SOL    HW157589  11.691   2.736  10.982  0.6231  0.4007 -0.6141
50926SOL    HW257590  11.783   2.623  10.943  0.5093 -0.0375  0.3786
50927SOL     OW57591   1.937   9.004   3.807  0.0700 -0.1484  0.0329
50927SOL    HW157592   1.848   8.986   3.835  0.6731 -0.4765  1.8433
50927SOL    HW257593   1.966   8.923   3.766 -0.4771 -0.0035 -0.6684
50928SOL     OW57594   5.782   0.597   4.694 -0.0997  0.8046 -0.2838
50928SOL    HW157595   5.854   0.659   4.685 -0.3871  1.1547 -0.2199
50928SOL    HW257596   5.711   0.649   4.732 -0.7051  0.7166 -1.2723
50929SOL     OW57597   3.972   0.762   1.648 -0.2260  0.2682  0.7202
50929SOL    HW157598   3.923   0.844   1.641 -1.0651 -0.2303  0.5765
50929SOL    HW257599   3.938   0.708   1.577  1.9532  0.6088 -0.6438
50930SOL     OW57600   5.715   9.305  10.589  0.3197 -0.2247 -0.3008
50930SOL    HW157601   5.729   9.235  10.525  3.6538  0.4349 -0.4495
50930SOL    HW257602   5.766   9.278  10.665 -2.5384 -0.3605  1.7259
50931SOL     OW57603   9.498   5.094   0.960  0.1840  0.2942  0.3074
50931SOL    HW157604   9.588   5.119   0.981 -0.0159  2.2455 -0.8900
50931SOL    HW257605   9.455   5.177   0.939 -1.4951 -0.7625 -0.6204
50932SOL     OW57606   8.123  11.409   2.680  0.1749 -0.1086  0.3621
50932SOL    HW157607   8.215  11.388   2.697 -0.0626 -0.1880  1.7210
50932SOL    HW257608   8.074  11.343   2.729 -0.6690 -1.3693 -2.0245
50933SOL     OW57609  10.017   3.344   4.492 -0.6021  0.1865  0.5552
50933SOL    HW157610   9.954   3.415   4.500 -2.7217 -1.5738  0.3516
50933SOL    HW257611   9.986   3.277   4.553  0.4976 -1.1389 -0.2790
50934SOL     OW57612   5.209  11.160   6.252 -0.2306  0.2004  0.0943
50934SOL    HW157613   5.170  11.074   6.263  0.0552  0.1711  0.9234
50934SOL    HW257614   5.163  11.198   6.177 -0.3508 -0.6702 -0.2756
50935SOL     OW57615   9.489   1.785   9.066 -0.2612 -0.3159 -0.1693
50935SOL    HW157616   9.523   1.788   9.156  0.5004  2.1535 -0.4574
50935SOL    HW257617   9.520   1.867   9.026 -1.7426 -0.7015 -2.2747
50936SOL     OW57618   0.629  12.496  12.607  0.3064  0.2263 -0.0415
50936SOL    HW157619   0.699  12.477  12.668  0.5351 -1.5299 -0.7896
50936SOL    HW257620   0.549  12.471  12.653  0.1213  2.1982  0.7993
50937SOL     OW57621   9.476   3.846   4.199 -0.7107 -0.4975  0.1176
50937SOL    HW157622   9.519   3.924   4.234 -0.5749 -0.8827  0.8231
50937SOL    HW257623   9.470   3.862   4.105 -1.2327  0.6315  0.3297
50938SOL     OW57624  11.824   3.207  11.516 -0.0828 -0.0394  0.4423
50938SOL    HW157625  11.765   3.133  11.498 -0.1292  0.5379 -2.1380
50938SOL    HW257626  11.778   3.283  11.482  1.8977  0.4922 -1.1718
50939SOL     OW57627  10.397   0.490  11.852  0.1072 -0.2854 -0.4858
50939SOL    HW157628  10.401   0.580  11.886  1.0277 -0.5172  0.0421
50939SOL    HW257629  10.464   0.487  11.783  0.2513 -0.6377 -0.3312
50940SOL     OW57630   5.132   4.732  11.388  0.0887  0.0673 -0.0903
50940SOL    HW157631   5.205   4.786  11.359  0.2736 -0.1334 -0.0050
50940SOL    HW257632   5.084   4.787  11.449 -0.7112  0.7545 -1.2911
50941SOL     OW57633   0.356   1.347   5.268  0.3981  0.1056  0.3846
50941SOL    HW157634   0.435   1.386   5.306  0.7379  0.6373 -0.8061
50941SOL    HW257635   0.320   1.416   5.211 -0.8973 -0.1504  0.8590
50942SOL     OW57636  10.721  11.280   2.340 -0.7322 -0.1257  0.3382
50942SOL    HW157637  10.807  11.254   2.307 -0.3982  1.3122  0.0143
50942SOL    HW257638  10.669  11.200   2.337  0.2499 -0.7565 -0.5730
50943SOL     OW57639  10.291   3.567  12.038 -0.2498  0.1851 -0.2236
50943SOL    HW157640  10.233   3.584  11.964  0.4265  0.1597 -0.7701
50943SOL    HW257641  10.232   3.550  12.112 -0.9301  0.9452 -0.5801
50944SOL     OW57642  10.189   7.265   6.081  0.1436  0.3612  0.0638
50944SOL    HW157643  10.105   7.247   6.122  0.2290 -1.5233 -0.4858
50944SOL    HW257644  10.218   7.347   6.120 -0.6907 -0.3132  2.2882
50945SOL     OW57645   8.354  10.519   3.244  0.3702 -0.4275  0.0178
50945SOL    HW157646   8.390  10.590   3.297 -0.6182 -0.2605  0.4903
50945SOL    HW257647   8.423  10.498   3.181  0.0988  2.0765 -1.2498
50946SOL     OW57648   6.195   1.011   0.287 -0.0312 -0.4176 -0.3725
50946SOL    HW157649   6.224   1.100   0.308 -0.6941 -0.5151  1.0550
50946SOL    HW257650   6.193   1.009   0.191 -1.5596  1.6570 -0.4747
50947SOL     OW57651  12.507  11.915   3.269 -0.6486 -0.3705 -0.2770
50947SOL    HW157652  12.437  11.895   3.206 -0.6430  0.1923 -0.4654
50947SOL    HW257653  12.461  11.931   3.352 -0.8160  0.6568 -0.5475
50948SOL     OW57654   8.161   9.335   3.623  0.0404 -0.7458  0.2415
50948SOL    HW157655   8.114   9.404   3.577 -1.1276 -3.0182 -2.2279
50948SOL    HW257656   8.096   9.295   3.680  0.1720 -1.1042  0.1424
50949SOL     OW57657   6.729   4.540   7.366  0.1649 -0.0954 -0.0977
50949SOL    HW157658   6.792   4.595   7.411 -0.2693  1.1521 -0.9555
50949SOL    HW257659   6.783   4.475   7.320  0.6172 -1.2515  1.9522
50950SOL     OW57660  10.774   1.909   0.889  0.0816  0.5503 -0.4979
50950SOL    HW157661  10.797   1.884   0.799 -0.3929  2.0612 -1.0753
50950SOL    HW257662  10.679   1.903   0.892  0.0973  0.4824 -0.0791
50951SOL     OW57663  10.661   1.833   3.564 -0.0647  0.1788  0.6035
50951SOL    HW157664  10.710   1.912   3.586 -0.1547 -0.1131  1.9589
50951SOL    HW257665  10.685   1.770   3.633  0.2455 -1.0814 -0.6093
50952SOL     OW57666   6.824   3.950   5.293 -0.5093 -0.5891  0.6544
50952SOL    HW157667   6.918   3.965   5.289 -0.8818  2.9061  1.1090
50952SOL    HW257668   6.811   3.893   5.369  1.2136 -0.8626  0.7656
50953SOL     OW57669   2.346   9.980  12.007 -0.4778  0.2646 -0.0852
50953SOL    HW157670   2.418   9.969  12.070  0.3004 -0.5186 -1.0900
50953SOL    HW257671   2.281   9.917  12.035 -0.8079  0.9836  0.8375
50954SOL     OW57672   5.543  10.954   7.823  0.3911  0.1540 -0.1432
50954SOL    HW157673   5.555  10.859   7.812 -0.6353 -0.1659  1.1827
50954SOL    HW257674   5.547  10.968   7.918 -0.8450  1.2156 -0.2105
50955SOL     OW57675  10.903   8.019   4.921 -0.2187 -0.5641 -0.0991
50955SOL    HW157676  10.927   8.106   4.954  0.0730 -0.3545 -0.8397
50955SOL    HW257677  10.844   7.984   4.987 -1.3839  0.7205 -0.4028
50956SOL     OW57678   7.079   1.536   1.284  0.5459  0.0763  0.4611
50956SOL    HW157679   7.113   1.606   1.228 -1.3738 -0.1586 -1.1119
50956SOL    HW257680   7.151   1.516   1.344  1.2510  3.1654  0.7762
50957SOL     OW57681   1.249   4.032   1.186  0.7633  0.0422 -0.2123
50957SOL    HW157682   1.225   4.124   1.186 -0.1676 -0.1942  0.5247
50957SOL    HW257683   1.200   3.994   1.112 -1.0017 -0.3827  1.1181
50958SOL     OW57684   5.727   8.223  11.114 -0.4221 -0.2112 -0.1761
50958SOL    HW157685   5.656   8.178  11.070 -1.0548  0.7406 -0.1623
50958SOL    HW257686   5.688   8.305  11.144  0.4672 -0.0403  0.5573
50959SOL     OW57687   4.670   7.842  11.699  0.0513 -0.5691  0.0532
50959SOL    HW157688   4.629   7.875  11.619 -2.6517  0.2104  1.6260
50959SOL    HW257689   4.680   7.748  11.685 -0.7722 -0.5087 -1.0287
50960SOL     OW57690   2.102   3.540  10.636  0.1216 -0.0640 -0.8008
50960SOL    HW157691   2.157   3.610  10.601  0.8086  0.2147  0.7371
50960SOL    HW257692   2.164   3.477  10.673 -0.4935  1.0821  2.5329
50961SOL     OW57693   3.041  12.167   1.490  0.0352 -0.1783  0.2059
50961SOL    HW157694   2.971  12.109   1.460  0.8669 -0.6404 -0.9157
50961SOL    HW257695   3.114  12.108   1.508  0.8016  0.4795 -0.6850
50962SOL     OW57696   2.678  10.392   3.023  0.4720 -0.4245  0.1093
50962SOL    HW157697   2.672  10.298   3.012  1.6249 -0.7014  1.5068
50962SOL    HW257698   2.737  10.421   2.953  0.4100 -0.7970 -0.0942
50963SOL     OW57699   1.639   2.916   9.448  0.2086  0.1214  0.2550
50963SOL    HW157700   1.620   2.990   9.390  0.1790 -0.5406 -0.6043
50963SOL    HW257701   1.562   2.859   9.441  0.1998  0.0386  0.9612
50964SOL     OW57702   3.309  12.567   7.751 -0.3744 -0.1571  0.6959
50964SOL    HW157703   3.231  12.613   7.719  0.0206  0.3243  0.4140
50964SOL    HW257704   3.336  12.511   7.679  1.1764  1.7532 -0.3256
50965SOL     OW57705  11.753   4.298   0.362  0.6175  0.3658  0.3598
50965SOL    HW157706  11.667   4.279   0.325  1.0921 -0.2421 -0.4637
50965SOL    HW257707  11.812   4.301   0.287  1.5984 -0.8343  1.0246
50966SOL     OW57708   5.829   5.428   2.150  1.1436 -0.6739  0.3079
50966SOL    HW157709   5.859   5.339   2.165  0.4818 -0.9296  0.1746
50966SOL    HW257710   5.752   5.418   2.094  0.4064 -0.1060  1.1871
50967SOL     OW57711   9.968   3.064   8.259  0.1642 -0.4072 -0.2811
50967SOL    HW157712   9.980   3.135   8.322  0.8029 -1.0424  0.3302
50967SOL    HW257713   9.886   3.023   8.284  0.1216 -0.2909 -0.2299
50968SOL     OW57714   9.787   5.124   0.310 -0.2034 -0.0562 -0.0157
50968SOL    HW157715   9.832   5.144   0.228 -0.0704 -0.5276 -0.0633
50968SOL    HW257716   9.809   5.197   0.368 -1.1707  0.8238 -0.7283
50969SOL     OW57717   4.824   3.172   6.082 -0.3786  0.6227 -0.3329
50969SOL    HW157718   4.819   3.256   6.036 -1.9135 -0.5104 -2.4462
50969SOL    HW257719   4.805   3.107   6.014  0.8636 -1.4623  1.2042
50970SOL     OW57720   6.511   4.929  11.671  0.1688 -0.0575 -0.2922
50970SOL    HW157721   6.514   5.023  11.688 -0.3483  0.0025 -0.5426
50970SOL    HW257722   6.490   4.890  11.756  0.4089  0.0466 -0.1828
50971SOL     OW57723   9.186   5.446   9.060 -0.2033 -0.3127 -0.3419
50971SOL    HW157724   9.216   5.358   9.086  0.2863 -0.6588 -1.9797
50971SOL    HW257725   9.091   5.443   9.072 -0.4437 -1.7386 -2.1659
50972SOL     OW57726  12.311   5.554   0.969 -1.0048 -0.1714 -0.4303
50972SOL    HW157727  12.323   5.461   0.989  0.4694  0.3387  1.3964
50972SOL    HW257728  12.221   5.572   0.994 -1.0884 -0.9679 -0.1329
50973SOL     OW57729  11.024   1.681   5.496 -0.3379  0.1567  0.1214
50973SOL    HW157730  11.002   1.697   5.588 -0.6003  1.1347 -0.1017
50973SOL    HW257731  11.049   1.767   5.462 -1.0807 -0.0374 -0.9558
50974SOL     OW57732  11.823   8.665   4.997 -0.4304 -0.4890  0.0101
50974SOL    HW157733  11.876   8.602   4.950 -1.2217 -0.5802 -0.7800
50974SOL    HW257734  11.737   8.662   4.954 -0.3537  1.4645 -0.3808
50975SOL     OW57735   1.286   8.397  10.601 -0.0465  0.3651 -0.6846
50975SOL    HW157736   1.237   8.319  10.629 -1.0417  0.8696 -0.9827
50975SOL    HW257737   1.227   8.443  10.543  1.1106  0.5789 -1.7314
50976SOL     OW57738   3.461   2.437  10.730 -0.1172  0.0045 -0.2671
50976SOL    HW157739   3.452   2.349  10.766  1.5334 -0.2236 -0.3169
50976SOL    HW257740   3.382   2.451  10.679 -0.5125 -1.3477 -0.0596
50977SOL     OW57741   2.837   6.115   2.215  0.4280  0.5367 -0.0934
50977SOL    HW157742   2.757   6.072   2.187 -1.3418  1.7965  2.6333
50977SOL    HW257743   2.815   6.208   2.219  1.7062  0.8151  1.6450
50978SOL     OW57744  10.506   6.167   6.041  0.1359 -0.1352  0.1285
50978SOL    HW157745  10.541   6.105   6.105 -0.8432 -0.7394  0.0957
50978SOL    HW257746  10.437   6.118   5.996 -0.1079  0.7284 -0.4491
50979SOL     OW57747   8.453   2.486   7.103  0.6332 -0.5623  0.0704
50979SOL    HW157748   8.450   2.515   7.012 -0.0782 -1.0371 -0.0665
50979SOL    HW257749   8.458   2.567   7.154  0.1769 -0.2547 -0.3641
50980SOL     OW57750  10.201   6.499   0.731  0.5626 -0.0309 -0.1306
50980SOL    HW157751  10.190   6.455   0.815 -0.8585  1.6493  0.6273
50980SOL    HW257752  10.293   6.526   0.729  0.7821 -0.6933  0.5526
50981SOL     OW57753   3.059   3.656   6.638  0.2471  0.3060  0.0111
50981SOL    HW157754   3.100   3.735   6.672 -0.5965  0.8527 -0.2031
50981SOL    HW257755   3.004   3.624   6.710  1.7413 -0.9735  0.6483
50982SOL     OW57756   9.332   7.956   3.375 -0.2672  0.3821  0.6179
50982SOL    HW157757   9.294   7.938   3.460  0.9621 -0.8160  0.9518
50982SOL    HW257758   9.417   7.995   3.394  0.8579 -1.6330  0.0253
50983SOL     OW57759   1.721   2.804   1.529  0.2917  0.1040  0.5455
50983SOL    HW157760   1.667   2.765   1.598  0.6943  0.3766  1.0125
50983SOL    HW257761   1.799   2.748   1.525 -0.2012 -0.5601 -0.4367
50984SOL     OW57762  12.373   3.807   3.442  0.1103  0.7887  0.2885
50984SOL    HW157763  12.442   3.847   3.493 -1.3564  3.1780  0.5571
50984SOL    HW257764  12.418   3.764   3.369  1.8928  1.7139  0.8047
50985SOL     OW57765   3.167   0.340   4.750  0.0266 -0.5854 -0.2643
50985SOL    HW157766   3.257   0.308   4.755  0.5445  0.5420 -1.6724
50985SOL    HW257767   3.127   0.289   4.679 -0.5706 -1.3259  0.5856
50986SOL     OW57768  11.999  12.316  10.449  0.3764 -0.3021 -0.2362
50986SOL    HW157769  11.942  12.329  10.374  1.7328 -0.9861 -1.4513
50986SOL    HW257770  11.991  12.396  10.501  0.0227  0.5350 -1.5424
50987SOL     OW57771   4.322   6.932   6.637 -0.1770 -0.4005  0.1658
50987SOL    HW157772   4.245   6.967   6.593  0.0327  0.6903  0.6284
50987SOL    HW257773   4.301   6.939   6.730  0.1119 -0.9618  0.2744
50988SOL     OW57774   6.955   1.640   2.070 -0.3892  0.2951  0.4885
50988SOL    HW157775   6.879   1.583   2.082  1.5757 -3.0034 -1.1815
50988SOL    HW257776   6.940   1.682   1.984 -0.7140  0.3734  0.5812
50989SOL     OW57777  10.743   3.199   2.702  0.7511 -0.3076 -0.8267
50989SOL    HW157778  10.733   3.143   2.779  0.5853  0.1003 -0.5492
50989SOL    HW257779  10.826   3.245   2.716 -0.3245  1.4364  0.2153
50990SOL     OW57780   0.772   4.701   3.493 -0.0062 -0.0016  0.2620
50990SOL    HW157781   0.802   4.611   3.502  0.6120  0.2683  1.0843
50990SOL    HW257782   0.716   4.701   3.415  0.7673 -0.8902 -0.3156
50991SOL     OW57783   3.744   8.243  11.524  0.1221  0.3160 -0.2932
50991SOL    HW157784   3.774   8.156  11.551 -0.6755  0.3606  0.8123
50991SOL    HW257785   3.684   8.270  11.593  0.5070  1.8411 -0.5139
50992SOL     OW57786   2.552   2.522   6.709 -0.0193  0.8944 -0.1309
50992SOL    HW157787   2.631   2.521   6.654  0.2960  2.3534  0.2527
50992SOL    HW257788   2.498   2.451   6.675  0.6864  1.0040 -1.5555
50993SOL     OW57789   5.740  10.113   9.917  0.2317 -0.3206  0.7352
50993SOL    HW157790   5.786  10.033   9.946 -1.1559 -1.1559  0.7154
50993SOL    HW257791   5.676  10.082   9.853  1.1084  1.1110 -0.9150
50994SOL     OW57792  12.218   1.196   2.492  0.0590 -0.2191 -0.0153
50994SOL    HW157793  12.304   1.221   2.457  0.5557  0.1361  1.3639
50994SOL    HW257794  12.239   1.150   2.574 -1.0795  0.5720  0.7542
50995SOL     OW57795   1.681   9.553   4.907  0.7725 -0.2874 -0.2083
50995SOL    HW157796   1.701   9.488   4.839  0.7685 -0.4946 -0.0145
50995SOL    HW257797   1.663   9.500   4.985  0.2403 -0.0708 -0.1859
50996SOL     OW57798   7.330   3.512   8.856 -0.2194 -0.1843 -0.1937
50996SOL    HW157799   7.261   3.544   8.915 -0.8485 -1.1358 -0.3855
50996SOL    HW257800   7.283   3.463   8.789  0.7699 -3.1819  1.1375
50997SOL     OW57801   4.005   0.576   3.878  0.2738  0.2285  0.3300
50997SOL    HW157802   3.941   0.642   3.851 -0.1609 -0.1938  0.3379
50997SOL    HW257803   4.019   0.594   3.972 -0.3269 -0.0952  0.4852
50998SOL     OW57804   0.526  11.342   6.834 -0.4082  0.0220  0.5275
50998SOL    HW157805   0.614  11.374   6.854 -0.2194 -1.7425  2.9819
50998SOL    HW257806   0.507  11.278   6.903 -2.6176 -1.5469 -1.3519
50999SOL     OW57807   2.930   6.298   0.473  0.2393 -0.4054 -0.0767
50999SOL    HW157808   2.948   6.318   0.565 -0.6598  1.2555 -0.2377
50999SOL    HW257809   3.016   6.298   0.431  0.3935  3.3312 -0.0548
51000SOL     OW57810   1.769   8.394   0.200  0.1541  0.5280 -0.5694
51000SOL    HW157811   1.817   8.402   0.283  0.6255 -0.3657 -0.7476
51000SOL    HW257812   1.698   8.332   0.219  0.4975  0.0189 -0.9359
51001SOL     OW57813   7.989   9.079   0.010 -0.5828 -0.0170 -0.1575
51001SOL    HW157814   7.987   9.093   0.105 -1.3127 -1.0098 -0.0117
51001SOL    HW257815   8.071   9.033  -0.006  0.1034  1.1736 -0.1752
51002SOL     OW57816   2.954   2.744   8.626  0.7692  0.0737 -0.1098
51002SOL    HW157817   2.913   2.830   8.621  0.2932 -0.1736 -0.6128
51002SOL    HW257818   2.988   2.738   8.715 -1.5609 -0.2739  0.8391
51003SOL     OW57819   3.322  11.902   3.440  0.4748 -0.1403  0.0987
51003SOL    HW157820   3.331  11.933   3.530  1.4942 -1.7406  0.5852
51003SOL    HW257821   3.398  11.938   3.394 -0.8154  1.9293 -0.5653
51004SOL     OW57822   1.580  12.002   5.695  0.9643  0.5460 -0.4297
51004SOL    HW157823   1.612  11.926   5.645  0.7358  0.0263  0.2039
51004SOL    HW257824   1.486  12.000   5.683  0.9608  0.7413 -0.4265
51005SOL     OW57825   3.123   2.862   0.470 -0.1993 -1.2002  0.5543
51005SOL    HW157826   3.099   2.871   0.378  0.1320 -0.9942  0.4862
51005SOL    HW257827   3.195   2.799   0.470  1.8639  1.0014  0.3191
51006SOL     OW57828   7.421  11.944  11.714 -0.0310  0.4531  0.0887
51006SOL    HW157829   7.406  11.918  11.805  1.4899  0.2508  0.3066
51006SOL    HW257830   7.376  12.028  11.706 -1.6347 -0.3172  0.5191
51007SOL     OW57831   2.468  11.620   1.336  0.7484 -0.4054 -0.0977
51007SOL    HW157832   2.384  11.596   1.376  0.1845 -0.0088 -0.9938
51007SOL    HW257833   2.534  11.588   1.397 -0.0653  0.2368  1.1718
51008SOL     OW57834   2.093   2.422  10.733 -0.3124 -0.5713  0.3125
51008SOL    HW157835   2.178   2.418  10.776  0.5420  3.7038 -0.4976
51008SOL    HW257836   2.108   2.385  10.645  0.7564  0.1800  0.1651
51009SOL     OW57837   8.375   4.482   1.825 -0.7102  0.1387  0.3208
51009SOL    HW157838   8.326   4.561   1.847  0.4526  0.9220  0.2010
51009SOL    HW257839   8.466   4.511   1.822 -0.4208 -0.7935 -1.5225
51010SOL     OW57840   2.356   6.053  11.814  0.3467  0.4000  0.0116
51010SOL    HW157841   2.323   6.004  11.889  1.4710  1.4949  1.2834
51010SOL    HW257842   2.303   6.023  11.740  0.1531 -1.7568  0.9550
51011SOL     OW57843   3.670   8.589   4.094 -0.3610  0.2055 -0.6333
51011SOL    HW157844   3.739   8.593   4.028 -1.6328  0.1557 -2.0355
51011SOL    HW257845   3.594   8.630   4.052 -0.8665  1.3633  1.2887
51012SOL     OW57846   2.531   6.414   3.516  0.6886  0.7734  0.0079
51012SOL    HW157847   2.616   6.430   3.477  1.4920 -0.2942  1.2527
51012SOL    HW257848   2.542   6.335   3.569 -0.4930  1.7530  1.8533
51013SOL     OW57849   1.718   0.805   7.187  0.8634 -0.2011 -0.2284
51013SOL    HW157850   1.723   0.853   7.104 -1.4758 -0.9829 -0.9061
51013SOL    HW257851   1.776   0.729   7.174  1.5482  0.3751 -0.6268
51014SOL     OW57852   9.752   2.077   0.613  0.0445 -0.0565  0.3608
51014SOL    HW157853   9.662   2.106   0.628  0.1305  0.0233  0.7284
51014SOL    HW257854   9.805   2.129   0.673  0.0958 -1.6635  1.7836
51015SOL     OW57855  11.805   6.663   0.664 -0.1240  0.2446 -0.3518
51015SOL    HW157856  11.887   6.668   0.714 -0.5591 -0.5910  0.4846
51015SOL    HW257857  11.774   6.754   0.659 -0.1980  0.3332  1.1546
51016SOL     OW57858  10.225   1.761   3.568 -0.1548 -0.2068  0.3488
51016SOL    HW157859  10.290   1.831   3.573  0.2778 -0.4995 -0.7541
51016SOL    HW257860  10.275   1.684   3.540 -0.7968 -0.6991  0.5360
51017SOL     OW57861   4.886   4.676   3.808 -0.5036 -0.0853 -0.1808
51017SOL    HW157862   4.868   4.770   3.808  1.0913  0.2830  1.8663
51017SOL    HW257863   4.866   4.647   3.897  0.7854 -1.2814 -0.2371
51018SOL     OW57864   8.305   5.765   6.682  0.1037 -0.7753 -0.4914
51018SOL    HW157865   8.340   5.833   6.624  0.7131 -1.2009 -0.6300
51018SOL    HW257866   8.231   5.807   6.726  0.1058 -0.2091 -1.0162
51019SOL     OW57867   2.295   7.673   6.709  0.1035  0.0425 -0.0562
51019SOL    HW157868   2.257   7.587   6.726  1.6209 -0.8301 -0.8421
51019SOL    HW257869   2.256   7.701   6.626 -2.9621  1.7302  1.7550
51020SOL     OW57870  11.040   8.455   7.264 -0.2116 -0.0009 -0.0238
51020SOL    HW157871  11.090   8.415   7.336 -0.8701  0.3275  0.6237
51020SOL    HW257872  10.949   8.434   7.284 -0.3590 -0.3582 -1.0536
51021SOL     OW57873   7.887  10.136   3.721  0.2221 -0.0132 -0.5544
51021SOL    HW157874   7.871  10.156   3.629 -2.0935 -0.3617 -0.2855
51021SOL    HW257875   7.800  10.127   3.759  1.1300 -0.4748  1.5524
51022SOL     OW57876   3.421   3.027  12.444 -0.5881  0.0940  0.0763
51022SOL    HW157877   3.451   2.955  12.499 -2.1726 -0.6054  0.0605
51022SOL    HW257878   3.366   3.080  12.502  1.2280  1.8342  0.3392
51023SOL     OW57879   3.120   5.688   9.062 -0.1130  0.2557  0.2964
51023SOL    HW157880   3.193   5.646   9.017  0.2350 -0.0836  1.1550
51023SOL    HW257881   3.043   5.659   9.014  0.2166 -0.4534  0.1794
51024SOL     OW57882  12.508  10.344   1.196  0.2387  1.0208 -0.1233
51024SOL    HW157883  12.524  10.365   1.288 -3.1464  0.0713  0.8331
51024SOL    HW257884  12.590  10.307   1.165  0.7284 -1.2135  3.3247
51025SOL     OW57885   3.730  12.325  11.801  0.6560 -0.2792  0.0241
51025SOL    HW157886   3.676  12.252  11.771  1.8529 -0.8831 -0.7925
51025SOL    HW257887   3.742  12.380  11.723  0.1769  0.5288  0.5120
51026SOL     OW57888   1.356   9.147   3.279 -0.5002  0.0452  0.6040
51026SOL    HW157889   1.305   9.227   3.267  0.7370  0.6897 -0.4745
51026SOL    HW257890   1.291   9.081   3.304 -1.6868  1.1160  0.4253
51027SOL     OW57891   0.332   3.187   7.715 -0.2042  0.1036  0.5988
51027SOL    HW157892   0.281   3.238   7.652 -0.0566 -0.8299 -0.2956
51027SOL    HW257893   0.271   3.171   7.787 -1.3612 -1.3460 -0.6248
51028SOL     OW57894  11.074  11.542  10.535 -0.2855  0.0066  0.7641
51028SOL    HW157895  11.131  11.482  10.583  0.1857  1.4831  2.1239
51028SOL    HW257896  11.132  11.584  10.471 -0.4697 -0.4965  0.2619
51029SOL     OW57897   0.834  10.444  10.993  0.1978 -0.0373 -0.6235
51029SOL    HW157898   0.905  10.397  11.036  0.2158  0.4176 -0.1503
51029SOL    HW257899   0.755  10.416  11.039  0.1634  0.0738 -0.6140
51030SOL     OW57900  12.576  10.487   7.969  0.2353  0.5140 -0.4508
51030SOL    HW157901  12.598  10.428   8.040  0.6358  0.6274 -0.4825
51030SOL    HW257902  12.492  10.526   7.995  0.0332  0.0318 -0.3711
51031SOL     OW57903  10.359   3.318  11.430 -0.3710 -0.1855  0.4602
51031SOL    HW157904  10.445   3.358  11.440 -0.8439  0.9635  0.0191
51031SOL    HW257905  10.366   3.269  11.348 -0.1079 -0.1968  0.4870
51032SOL     OW57906   6.788   8.093   6.895 -0.4155  0.2138 -0.2691
51032SOL    HW157907   6.769   8.139   6.812 -0.5916 -1.1804 -1.0306
51032SOL    HW257908   6.825   8.009   6.868 -2.1604 -1.0452  0.9897
51033SOL     OW57909   1.753   7.836   2.214 -0.3979 -0.1405 -0.2181
51033SOL    HW157910   1.815   7.903   2.242  0.7530 -1.5622  0.7947
51033SOL    HW257911   1.685   7.884   2.166 -0.4782  1.9415  1.8165
51034SOL     OW57912   6.219   3.647  11.052 -0.1308 -0.3559  0.3710
51034SOL    HW157913   6.214   3.739  11.077 -0.1488 -0.0337 -0.7699
51034SOL    HW257914   6.184   3.644  10.963  0.7148 -1.3199  0.0479
51035SOL     OW57915   3.960   1.374   0.175  0.0443 -0.2902 -0.2492
51035SOL    HW157916   4.023   1.430   0.129  1.4986 -1.0462  0.7611
51035SOL    HW257917   3.933   1.426   0.251  2.1360 -1.2427  1.2313
51036SOL     OW57918   8.760   0.760  12.581 -0.1743 -0.1976  1.0031
51036SOL    HW157919   8.666   0.767  12.597 -1.0413 -0.8572 -2.8479
51036SOL    HW257920   8.795   0.846  12.605 -1.5685 -0.1181  3.0386
51037SOL     OW57921  10.811  12.202   4.403  0.1947  0.1753  0.1023
51037SOL    HW157922  10.881  12.144   4.432 -0.4463 -0.2337  0.8867
51037SOL    HW257923  10.854  12.286   4.385  0.8901 -0.0910  0.5125
51038SOL     OW57924  11.620   5.097   7.197  0.1942 -0.3110 -0.5154
51038SOL    HW157925  11.686   5.108   7.129 -0.5697 -0.3847 -1.2844
51038SOL    HW257926  11.560   5.170   7.184  0.8162  0.5112  1.0030
51039SOL     OW57927   6.061   2.375   7.364  0.3929  0.0155  0.1910
51039SOL    HW157928   6.149   2.409   7.383  1.3862 -1.7951 -0.8566
51039SOL    HW257929   6.066   2.347   7.273 -1.5832  0.6898 -0.1600
51040SOL     OW57930   8.423   5.989   5.936  0.7149  0.5795  0.1106
51040SOL    HW157931   8.338   5.947   5.923  1.1543 -0.0044 -1.0278
51040SOL    HW257932   8.406   6.060   5.998 -1.4326  2.9790 -2.9309
51041SOL     OW57933   2.289   9.687   5.048 -0.3851 -0.1107  0.4806
51041SOL    HW157934   2.313   9.698   4.956 -1.3097 -1.2811  0.0843
51041SOL    HW257935   2.238   9.606   5.050 -0.5648  0.0221  1.9913
51042SOL     OW57936   8.888   3.248   0.034  0.0282  0.3326 -0.0989
51042SOL    HW157937   8.831   3.189  -0.016  1.6700 -1.4311  0.0403
51042SOL    HW257938   8.977   3.224   0.008  0.8017  1.7606  1.0871
51043SOL     OW57939  11.132  12.459  11.252 -0.3388  0.0501 -0.0121
51043SOL    HW157940  11.072  12.525  11.217  1.4695  0.5072 -2.5206
51043SOL    HW257941  11.193  12.509  11.307 -0.5324  0.0336  0.2192
51044SOL     OW57942   5.394   4.042   8.065 -0.3582  0.2515  0.8209
51044SOL    HW157943   5.467   3.996   8.024 -1.7065 -1.5528  0.3129
51044SOL    HW257944   5.322   4.035   8.001 -0.9963  2.0138  1.2775
51045SOL     OW57945   4.462   5.359   1.414  0.0720 -0.5138  0.2846
51045SOL    HW157946   4.444   5.452   1.425 -0.1136 -0.5819  0.5824
51045SOL    HW257947   4.557   5.354   1.401  0.0735 -0.2795  0.2056
51046SOL     OW57948  10.333   7.883  10.029 -0.2138  0.3660  0.1771
51046SOL    HW157949  10.270   7.866   9.958 -2.6375  0.7534  2.0966
51046SOL    HW257950  10.355   7.975  10.021  1.2969 -0.0678 -1.3277
51047SOL     OW57951   7.373   8.844   0.645 -0.2666  0.8703 -0.3953
51047SOL    HW157952   7.391   8.829   0.552  0.8251  1.1948 -0.2411
51047SOL    HW257953   7.450   8.889   0.678  0.4320 -1.3064  1.2000
51048SOL     OW57954   6.641  10.130   1.838  0.2140  0.2812  0.5109
51048SOL    HW157955   6.646  10.035   1.848 -0.6064  0.1166 -0.5220
51048SOL    HW257956   6.558  10.145   1.794  1.0703  1.3378 -0.8227
51049SOL     OW57957   3.525   1.866   4.040  0.1749  0.5639  0.1564
51049SOL    HW157958   3.536   1.773   4.063  0.4825  0.3248 -0.9229
51049SOL    HW257959   3.556   1.913   4.118 -0.9500 -0.2385  1.1164
51050SOL     OW57960   6.887   3.626   3.099 -0.1640  0.2053 -0.0995
51050SOL    HW157961   6.976   3.593   3.108 -0.3797 -0.3827 -0.0598
51050SOL    HW257962   6.879   3.691   3.169 -0.1413 -0.5978  0.6757
51051SOL     OW57963   4.440   8.955   8.148 -0.1267 -0.5922  0.0731
51051SOL    HW157964   4.526   8.947   8.190  1.3994 -1.2533 -2.9397
51051SOL    HW257965   4.412   8.865   8.133 -1.7473 -0.4083  1.5827
51052SOL     OW57966   8.019   4.427  10.712  0.0088  0.3457  0.2358
51052SOL    HW157967   8.060   4.513  10.714 -0.3262  0.5541 -1.0244
51052SOL    HW257968   8.062   4.378  10.782  1.9298  0.7723 -0.5850
51053SOL     OW57969   4.368  12.643   9.458  0.3332  0.0287  0.2525
51053SOL    HW157970   4.365  12.559   9.413  0.1468  0.1530  0.0353
51053SOL    HW257971   4.460  12.669   9.453 -0.0225  1.0223 -1.8566
51054SOL     OW57972   5.644   4.834   0.008  0.0708  0.2468  0.4634
51054SOL    HW157973   5.563   4.785   0.023 -0.7714  0.7524 -2.0016
51054SOL    HW257974   5.632   4.875  -0.077  2.3982  1.4696  0.6378
51055SOL     OW57975   4.955  10.704  12.523 -0.2317 -0.1608  0.1499
51055SOL    HW157976   5.028  10.767  12.528  0.2596 -0.6165 -0.8409
51055SOL    HW257977   4.963  10.652  12.603  1.4011 -1.0982 -0.5714
51056SOL     OW57978   1.059   3.978   0.092 -0.1717  0.6153  0.0583
51056SOL    HW157979   1.150   3.970   0.062  0.1294  0.9874  0.8259
51056SOL    HW257980   1.062   3.947   0.183 -0.7576  0.9082  0.1816
51057SOL     OW57981   5.170   0.484  10.132 -0.1367 -0.4033 -0.4538
51057SOL    HW157982   5.099   0.443  10.083  0.0065 -0.3793 -0.6837
51057SOL    HW257983   5.250   0.447  10.093 -0.0024  0.1901 -0.7475
51058SOL     OW57984   4.619   9.104   5.592  0.0398  0.2561 -0.3087
51058SOL    HW157985   4.553   9.153   5.542 -1.7182 -0.1193  1.4901
51058SOL    HW257986   4.610   9.014   5.561 -1.4367 -0.0814  0.9527
51059SOL     OW57987   1.204   2.881   2.392 -0.4675 -0.4001 -0.3391
51059SOL    HW157988   1.176   2.872   2.301  0.0563  0.2113 -0.5665
51059SOL    HW257989   1.162   2.807   2.437 -0.7510 -0.6937 -1.0641
51060SOL     OW57990   5.154  10.130  10.744 -0.0495 -0.0886  0.0835
51060SOL    HW157991   5.073  10.080  10.755 -1.6535  1.9368 -1.7232
51060SOL    HW257992   5.192  10.094  10.663 -0.9978  1.2501 -0.9947
51061SOL     OW57993  11.706   6.358  10.510 -0.4133 -0.6450  0.0570
51061SOL    HW157994  11.753   6.278  10.532 -0.1081 -0.8222 -1.1502
51061SOL    HW257995  11.710   6.411  10.590  1.3332 -0.9041  0.1781
51062SOL     OW57996   3.062  11.161   7.803  0.0935 -0.1385  0.3445
51062SOL    HW157997   3.154  11.187   7.806  0.2104 -0.3394 -0.7655
51062SOL    HW257998   3.018  11.234   7.758 -0.6001  0.6905  2.2479
51063SOL     OW57999   8.584   3.540   2.169  0.3440 -0.4934 -0.1476
51063SOL    HW158000   8.495   3.505   2.174 -0.1965  0.1493 -3.2604
51063SOL    HW258001   8.572   3.633   2.148  1.7262 -0.5257 -1.2206
51064SOL     OW58002  10.573   9.116  12.467  0.3000 -0.1226 -0.1083
51064SOL    HW158003  10.509   9.049  12.443  1.1662 -1.6848  1.6669
51064SOL    HW258004  10.652   9.066  12.490  1.0574  1.5173  1.0250
51065SOL     OW58005   6.120   9.260  11.215 -0.7098  0.0553  0.0699
51065SOL    HW158006   6.111   9.166  11.231 -0.4155 -0.1249 -0.7500
51065SOL    HW258007   6.050   9.280  11.152  0.1050  0.0757 -0.8644
51066SOL     OW58008   7.580   5.457  10.118  0.5018 -0.0053 -0.2951
51066SOL    HW158009   7.664   5.484  10.081 -0.6130  0.6808 -2.5061
51066SOL    HW258010   7.517   5.471  10.047 -1.4121 -0.9709  1.1245
51067SOL     OW58011   8.355   5.584   9.710 -0.2588 -0.6532  0.2666
51067SOL    HW158012   8.370   5.621   9.623  1.8872 -2.9074 -0.4350
51067SOL    HW258013   8.274   5.533   9.700 -0.5920 -0.0777 -0.0773
51068SOL     OW58014   7.206   6.709   7.883  0.0507 -0.0720  0.1353
51068SOL    HW158015   7.268   6.724   7.955  0.6191 -0.2250 -0.3079
51068SOL    HW258016   7.253   6.740   7.805 -0.2878 -0.5319 -0.2575
51069SOL     OW58017   9.406   7.449   6.493  0.0802 -0.1941 -0.0115
51069SOL    HW158018   9.480   7.406   6.451  1.4578  1.9413  0.1169
51069SOL    HW258019   9.392   7.529   6.442 -1.5517 -0.0933  0.5386
51070SOL     OW58020   2.670  10.898   2.253 -0.3204 -0.7762  0.6585
51070SOL    HW158021   2.743  10.849   2.290  0.8492  0.6213  0.2936
51070SOL    HW258022   2.648  10.850   2.173  1.7162 -0.0111 -0.4293
51071SOL     OW58023   0.904   8.596   2.063  0.2949 -0.2146 -0.4490
51071SOL    HW158024   0.884   8.614   1.971  0.7114  1.4816 -0.2497
51071SOL    HW258025   0.819   8.581   2.104  0.1162 -1.1405 -1.1306
51072SOL     OW58026   1.136   9.151   1.762  0.2205  0.3520 -0.1153
51072SOL    HW158027   1.154   9.091   1.835 -1.0236  0.5436  0.3801
51072SOL    HW258028   1.179   9.111   1.687 -0.7540 -1.3195  0.1502
51073SOL     OW58029   8.066   4.996   9.769  0.5702  0.2959 -0.2319
51073SOL    HW158030   8.043   5.041   9.850 -0.2426 -0.5670  0.0290
51073SOL    HW258031   8.152   4.958   9.786  0.9238  1.0883 -0.1943
51074SOL     OW58032  11.336   7.449   7.287 -0.4160 -0.3815 -0.2755
51074SOL    HW158033  11.393   7.494   7.350 -1.7447 -1.6802  2.0260
51074SOL    HW258034  11.309   7.517   7.226  2.8445  0.4482 -0.9778
51075SOL     OW58035   2.295   7.244  11.866 -0.1348 -0.3744  0.0838
51075SOL    HW158036   2.251   7.326  11.844  1.9719  0.6976 -0.4152
51075SOL    HW258037   2.233   7.176  11.841 -1.6089  1.0572 -0.2824
51076SOL     OW58038  12.460   5.898   3.111  0.5603  0.1775 -0.2068
51076SOL    HW158039  12.377   5.864   3.144  0.5958  1.1162  0.9148
51076SOL    HW258040  12.434   5.966   3.048  0.4959 -0.8341 -1.3049
51077SOL     OW58041  10.119   7.884  11.097 -0.0018  0.0093 -0.2266
51077SOL    HW158042  10.161   7.799  11.109  0.8197  0.6015  1.5311
51077SOL    HW258043  10.177   7.932  11.038  1.1408  0.3253  1.0862
51078SOL     OW58044   3.288   4.692   8.063 -0.0573 -0.0431 -0.1723
51078SOL    HW158045   3.273   4.633   7.990 -0.8520 -0.8608  0.6317
51078SOL    HW258046   3.364   4.655   8.108 -0.2469 -0.1701  0.0441
51079SOL     OW58047   2.306  12.599   8.038  0.5199  0.3981  0.8886
51079SOL    HW158048   2.344  12.669   8.090  2.1671 -1.0521  1.7152
51079SOL    HW258049   2.236  12.563   8.093 -1.0556  1.9519  0.0511
51080SOL     OW58050   4.049   3.548   5.198 -0.1937 -0.5116 -0.4632
51080SOL    HW158051   4.020   3.479   5.139  0.2642 -2.1805  1.1684
51080SOL    HW258052   3.999   3.534   5.279  0.9290  0.1671  0.3869
51081SOL     OW58053   7.499   2.961   1.661  0.1162 -0.1486 -0.0229
51081SOL    HW158054   7.440   3.021   1.706 -0.0091  0.0121 -0.3997
51081SOL    HW258055   7.585   3.004   1.664 -0.0240  0.1713 -0.5162
51082SOL     OW58056   8.422   9.333   5.068  0.3646 -0.1057  0.2126
51082SOL    HW158057   8.382   9.255   5.030 -0.7913  0.9257 -0.7737
51082SOL    HW258058   8.516   9.314   5.068 -0.0103 -2.6506  2.7145
51083SOL     OW58059   3.483   4.063   9.375  0.2771  0.3125  0.3980
51083SOL    HW158060   3.502   4.095   9.287 -0.2839 -2.3393 -0.7929
51083SOL    HW258061   3.395   4.096   9.394 -0.3132 -0.5270 -0.7945
51084SOL     OW58062  11.008   7.432   6.836  0.6631 -0.2667 -0.2273
51084SOL    HW158063  10.922   7.390   6.843  0.4814  0.1384  0.0099
51084SOL    HW258064  10.993   7.523   6.863  0.7623  0.3451 -2.0941
51085SOL     OW58065   6.521  11.497   2.426  0.0600 -0.1954 -0.2216
51085SOL    HW158066   6.446  11.474   2.481  1.0808 -0.4675  1.0850
51085SOL    HW258067   6.560  11.413   2.402  0.8128 -0.0201  0.3509
51086SOL     OW58068   6.655   6.305  11.301 -0.2643 -0.2662 -0.2537
51086SOL    HW158069   6.728   6.355  11.339 -1.5078  1.4061  0.0411
51086SOL    HW258070   6.616   6.260  11.376 -0.3303 -0.1217 -0.2012
51087SOL     OW58071   0.300   7.113   3.265  0.3475 -0.1209  0.0791
51087SOL    HW158072   0.250   7.119   3.346  0.0397  1.0753 -0.1873
51087SOL    HW258073   0.237   7.129   3.195  0.7414 -0.4582 -0.3641
51088SOL     OW58074  12.129   3.400   8.515 -0.4874 -0.2412  0.5536
51088SOL    HW158075  12.154   3.328   8.572  1.9580 -0.1455 -0.2977
51088SOL    HW258076  12.117   3.360   8.429  0.3486  0.2569  0.1891
51089SOL     OW58077   5.404   0.107   0.925 -0.0654 -0.2272  0.2271
51089SOL    HW158078   5.483   0.103   0.872 -0.8717 -1.2663 -0.9669
51089SOL    HW258079   5.333   0.088   0.864 -1.1336 -0.4316  1.4745
51090SOL     OW58080   5.262   3.592   9.614 -0.2679  0.2125  0.0389
51090SOL    HW158081   5.200   3.551   9.554 -0.4298  0.4084  0.0719
51090SOL    HW258082   5.269   3.683   9.584 -2.6285  1.1814  2.0431
51091SOL     OW58083   1.137  11.434  11.696 -0.1561 -0.0899 -0.1807
51091SOL    HW158084   1.160  11.360  11.638 -0.4860  0.2446 -0.7501
51091SOL    HW258085   1.103  11.501  11.636 -0.8300  0.1333  0.4490
51092SOL     OW58086   5.173   0.911   5.326 -0.1247  0.2747  0.3293
51092SOL    HW158087   5.244   0.883   5.268  0.2569  1.5271  0.1410
51092SOL    HW258088   5.158   0.837   5.384  0.2524 -0.5949 -0.6614
51093SOL     OW58089   3.919   4.099   2.582 -0.6848 -0.3003 -0.1078
51093SOL    HW158090   3.929   4.178   2.635 -3.1259  0.1929 -0.2801
51093SOL    HW258091   3.973   4.115   2.505 -1.2793  1.2873 -0.2235
51094SOL     OW58092   9.632  10.588   1.495  0.4231  0.1328  0.7026
51094SOL    HW158093   9.723  10.566   1.517  0.4473  1.1047  1.6314
51094SOL    HW258094   9.625  10.681   1.514 -0.4195  0.3613 -0.6129
51095SOL     OW58095   0.567  12.215   1.201  0.6023  0.1465  1.2623
51095SOL    HW158096   0.595  12.168   1.280 -0.9147 -0.9716  1.1538
51095SOL    HW258097   0.502  12.278   1.232 -0.0998 -0.3882  0.9015
51096SOL     OW58098   7.477  10.055   4.491 -0.9892  0.4539  0.0754
51096SOL    HW158099   7.395  10.040   4.539  0.1495 -2.2353  1.3946
51096SOL    HW258100   7.464  10.011   4.407 -0.6860 -0.5779  0.5569
51097SOL     OW58101  12.640  12.130   2.789 -0.2376  0.2729  0.4101
51097SOL    HW158102  12.678  12.116   2.875  1.2096 -1.6719 -0.4784
51097SOL    HW258103  12.694  12.199   2.750 -0.6778  0.9086  0.9102
51098SOL     OW58104   9.519   3.322   7.400 -0.1553 -0.3680  0.3294
51098SOL    HW158105   9.482   3.315   7.312  0.9693 -1.7569 -0.0693
51098SOL    HW258106   9.444   3.307   7.458 -0.5950 -1.2020 -0.4186
51099SOL     OW58107  10.892  11.769  11.611 -0.0459 -0.3098  0.0727
51099SOL    HW158108  10.825  11.737  11.551  1.2584  0.1349 -1.7040
51099SOL    HW258109  10.895  11.864  11.597 -1.8134  0.3371  3.1260
51100SOL     OW58110  10.103   8.219   2.352  0.2633  0.3345 -0.4090
51100SOL    HW158111  10.148   8.137   2.334 -0.3805 -0.0584 -0.2477
51100SOL    HW258112  10.157   8.286   2.309  1.8681  0.0817  1.1098
51101SOL     OW58113   8.628   1.294   7.669  0.2106  0.6051  0.3771
51101SOL    HW158114   8.715   1.282   7.707  0.0416 -1.8499  0.1537
51101SOL    HW258115   8.570   1.309   7.744  0.1856 -2.2470  1.0372
51102SOL     OW58116   1.256  11.963   1.072  0.2428 -0.2814 -0.6866
51102SOL    HW158117   1.289  12.051   1.087 -0.6131 -0.2454  1.4068
51102SOL    HW258118   1.334  11.912   1.050  1.1494  0.5220  0.5355
51103SOL     OW58119  11.815   1.099   1.789  0.0942 -0.1405  0.0303
51103SOL    HW158120  11.782   1.093   1.699 -2.3393 -2.5915  0.9359
51103SOL    HW258121  11.869   1.020   1.799  0.9706  0.5043  0.5395
51104SOL     OW58122   7.153  10.933   4.419 -0.1633  0.0410  0.2740
51104SOL    HW158123   7.208  10.857   4.434  0.9331  0.6810 -0.3405
51104SOL    HW258124   7.088  10.904   4.354 -0.4470 -0.6667  0.8678
51105SOL     OW58125   3.481   9.036   3.659  0.3211 -0.7696 -0.1363
51105SOL    HW158126   3.462   9.111   3.714  0.4170 -1.0130  0.2379
51105SOL    HW258127   3.456   9.062   3.570  0.9653 -0.0602 -0.1206
51106SOL     OW58128  12.305   3.594   9.180 -0.2261  0.2430  0.4134
51106SOL    HW158129  12.282   3.629   9.094  1.0957  0.8725  0.2973
51106SOL    HW258130  12.308   3.670   9.237  0.7105  0.0743  0.6031
51107SOL     OW58131   9.716   4.850   6.079  0.2965  0.0534  0.3218
51107SOL    HW158132   9.660   4.876   6.006 -0.3422 -3.1146 -0.4693
51107SOL    HW258133   9.655   4.818   6.146  1.0077 -2.0690  0.0383
51108SOL     OW58134  12.111   3.467  10.807 -0.2909 -0.2859  0.3873
51108SOL    HW158135  12.042   3.432  10.862  1.0715 -1.4916  1.4032
51108SOL    HW258136  12.163   3.523  10.865 -0.1938  0.3140 -0.2624
51109SOL     OW58137   9.078   2.752  11.130 -0.4310 -0.0030 -0.4048
51109SOL    HW158138   8.991   2.712  11.119 -0.5231  0.3238 -0.9018
51109SOL    HW258139   9.138   2.677  11.130 -0.6660 -0.1950 -0.5827
51110SOL     OW58140   3.831   1.807   9.339  0.9154 -0.2076 -0.0470
51110SOL    HW158141   3.824   1.890   9.291  2.7230 -0.0854 -0.1625
51110SOL    HW258142   3.873   1.747   9.278 -0.9385 -1.4458 -0.1814
51111SOL     OW58143   4.609   0.740  10.829  0.0690  0.1239 -0.5074
51111SOL    HW158144   4.699   0.709  10.819  0.4035  1.3637 -1.7237
51111SOL    HW258145   4.563   0.669  10.873  1.7778 -0.2866  0.6893
51112SOL     OW58146   5.941   4.962   3.470 -0.1199  0.1100  0.2084
51112SOL    HW158147   5.911   5.021   3.540 -0.6567  0.4906 -0.3326
51112SOL    HW258148   5.963   5.020   3.397  0.5154 -0.2803  0.0784
51113SOL     OW58149  10.820   2.076   3.601 -0.0160 -0.0508  0.4353
51113SOL    HW158150  10.799   2.126   3.522 -1.1833 -2.3578 -0.8150
51113SOL    HW258151  10.803   2.137   3.673  0.9119  2.0699 -1.0251
51114SOL     OW58152   6.179   3.873   0.478 -0.7914 -0.5909  0.2919
51114SOL    HW158153   6.134   3.796   0.443 -1.0612 -0.5440  0.5302
51114SOL    HW258154   6.184   3.933   0.404 -0.7322 -0.7705  0.1495
51115SOL     OW58155   1.954   2.083   4.962 -0.2124  0.1751 -0.1882
51115SOL    HW158156   1.967   2.151   4.896 -2.4680 -0.0242 -0.9178
51115SOL    HW258157   2.028   2.024   4.950  0.2145  0.9365 -1.5129
51116SOL     OW58158   2.777  10.036   3.426 -0.4349  0.0533  0.1032
51116SOL    HW158159   2.741  10.062   3.511 -0.6122  0.3973 -0.0770
51116SOL    HW258160   2.703   9.994   3.381 -0.7036  1.0151 -0.3794
51117SOL     OW58161   0.398   3.791   0.759 -0.8698  0.2799 -0.2508
51117SOL    HW158162   0.474   3.748   0.799 -1.5047  0.4382  1.2077
51117SOL    HW258163   0.412   3.884   0.775 -1.4985  0.2892  0.3274
51118SOL     OW58164  11.308   8.799  11.282  0.0017  0.5130  0.6359
51118SOL    HW158165  11.223   8.764  11.307  0.7204 -1.6411  0.2798
51118SOL    HW258166  11.294   8.838  11.195  0.0815 -3.4618 -1.3852
51119SOL     OW58167  10.400  12.505   8.183 -0.0203 -0.7807  0.1750
51119SOL    HW158168  10.456  12.534   8.111  0.0973 -1.7270 -0.1224
51119SOL    HW258169  10.311  12.529   8.156  0.2668  1.6906  1.1030
51120SOL     OW58170   0.818  11.814  11.236 -0.4569 -0.8497 -0.1398
51120SOL    HW158171   0.853  11.742  11.182  1.8592  1.2889 -1.7177
51120SOL    HW258172   0.872  11.812  11.315  0.3905 -0.1681 -0.6915
51121SOL     OW58173  11.137   7.800  11.764 -0.4017  0.1825 -0.2958
51121SOL    HW158174  11.113   7.875  11.710  0.6049  0.7615  0.0310
51121SOL    HW258175  11.194   7.836  11.832  0.1292 -0.8738 -0.1456
51122SOL     OW58176   2.865   0.910   8.937  0.1328  0.1077 -0.2904
51122SOL    HW158177   2.799   0.975   8.964 -0.3554 -0.5129  0.0215
51122SOL    HW258178   2.947   0.960   8.932 -0.3491  0.8864 -0.6701
51123SOL     OW58179   0.128  10.770   2.277 -0.4619 -0.1464 -0.3065
51123SOL    HW158180   0.158  10.704   2.339 -1.3761  1.0273  1.4677
51123SOL    HW258181   0.041  10.741   2.251  0.1663 -0.9609 -1.5632
51124SOL     OW58182   3.839   6.254  11.256  0.6234  0.1058 -1.1334
51124SOL    HW158183   3.750   6.287  11.266  1.1877  2.0999 -2.0837
51124SOL    HW258184   3.882   6.274  11.339 -0.0082 -1.7367 -0.3030
51125SOL     OW58185   5.399   4.992   8.880  0.1936  0.0378 -0.2032
51125SOL    HW158186   5.409   5.058   8.811 -0.9544  0.8374  0.3678
51125SOL    HW258187   5.482   4.995   8.928  0.7431 -0.0537 -1.1200
51126SOL     OW58188   2.017   5.369  11.076 -0.0621 -0.0289 -0.0423
51126SOL    HW158189   2.026   5.294  11.018 -0.7398 -0.5093  0.4477
51126SOL    HW258190   1.926   5.363  11.107  0.5771 -0.3994  1.8787
51127SOL     OW58191   6.723  10.507   4.801 -0.0933  0.5125 -0.2999
51127SOL    HW158192   6.779  10.526   4.876 -0.9102  0.9831  0.2021
51127SOL    HW258193   6.684  10.591   4.779 -4.2203 -0.4586  2.3152
51128SOL     OW58194  12.005  11.971   2.843 -0.5989  0.7090  0.6509
51128SOL    HW158195  12.059  11.997   2.918  1.2809 -0.1202 -0.3251
51128SOL    HW258196  11.944  12.043   2.831  0.3482  1.7476  1.7968
51129SOL     OW58197   8.044   8.160   0.870  0.0084  0.5768  0.3162
51129SOL    HW158198   8.067   8.072   0.899  1.1672  1.2640  1.5775
51129SOL    HW258199   7.989   8.146   0.793  0.2189 -1.2398  0.4567
51130SOL     OW58200  12.595  12.093   0.941 -0.4090  0.1390 -0.5809
51130SOL    HW158201  12.643  12.089   0.858 -0.0791  1.3884 -0.4734
51130SOL    HW258202  12.574  12.186   0.951 -0.3115  0.0207  0.8139
51131SOL     OW58203   7.445   7.162   0.130 -0.3496 -0.4061  0.0680
51131SOL    HW158204   7.481   7.091   0.183 -2.0690 -1.1408  0.3000
51131SOL    HW258205   7.413   7.226   0.193 -1.3039 -0.7206 -0.0856
51132SOL     OW58206   9.824   1.187   9.885 -0.0997 -0.2958  0.3872
51132SOL    HW158207   9.787   1.103   9.912 -1.5942  0.1272 -0.2474
51132SOL    HW258208   9.777   1.208   9.804  1.2644  0.4752 -0.2299
51133SOL     OW58209   7.909   6.818   4.024  0.0508 -0.0153 -0.2143
51133SOL    HW158210   7.922   6.850   4.113 -0.3427  1.1276 -0.5543
51133SOL    HW258211   7.882   6.895   3.974  0.6089 -0.5623 -1.4047
51134SOL     OW58212   0.415   6.476   9.374  0.2585  0.7368 -0.0373
51134SOL    HW158213   0.366   6.540   9.322  0.4481 -0.1926 -1.4192
51134SOL    HW258214   0.355   6.401   9.382  0.5100  0.5863  0.4475
51135SOL     OW58215   3.144   1.771   7.960 -0.1942  0.5592 -0.2173
51135SOL    HW158216   3.062   1.815   7.937 -0.5284  0.7883  1.3134
51135SOL    HW258217   3.116   1.686   7.995  0.3554 -0.1753 -1.4843
51136SOL     OW58218   5.126   3.575   3.336 -0.3436  0.2338  0.2080
51136SOL    HW158219   5.202   3.563   3.393 -0.1311  1.4978  0.2086
51136SOL    HW258220   5.163   3.609   3.254 -0.6882 -1.2008 -0.5897
51137SOL     OW58221   7.729   6.922  11.886 -0.3876 -0.0405  0.4762
51137SOL    HW158222   7.749   6.965  11.968 -1.7116  0.9895  0.2834
51137SOL    HW258223   7.811   6.925  11.836 -0.0147  0.7314  1.1284
51138SOL     OW58224   5.371   2.140   3.550 -0.3676  0.2805 -0.0096
51138SOL    HW158225   5.303   2.186   3.599 -0.0287  0.0870  0.6581
51138SOL    HW258226   5.364   2.174   3.461 -1.1165  0.5045  0.1297
51139SOL     OW58227   3.728   4.535  10.458 -0.1046  0.0985  0.4437
51139SOL    HW158228   3.675   4.467  10.499 -0.5489  0.3569  0.3112
51139SOL    HW258229   3.749   4.596  10.529  1.8100 -1.0712  0.9594
51140SOL     OW58230   4.050  10.408  10.712 -0.2011 -0.2605  0.2720
51140SOL    HW158231   4.011  10.459  10.640 -1.8861 -1.3579  0.3396
51140SOL    HW258232   4.110  10.348  10.668 -0.8825 -0.6169 -0.2024
51141SOL     OW58233   9.583   7.326   4.634  0.0319  0.0263 -0.4561
51141SOL    HW158234   9.621   7.394   4.689  1.7161  0.4340 -2.0198
51141SOL    HW258235   9.510   7.368   4.590  0.0882  0.3481 -0.2467
51142SOL     OW58236   7.086   2.357   6.303  0.0217 -0.6273  0.0684
51142SOL    HW158237   7.157   2.295   6.285 -0.1236 -1.3797  1.9167
51142SOL    HW258238   7.099   2.427   6.239  2.9586 -0.3163  0.8736
51143SOL     OW58239   4.729   7.397   5.713  0.1326  0.1302 -0.0774
51143SOL    HW158240   4.817   7.430   5.696  0.6600 -0.9572  0.4609
51143SOL    HW258241   4.672   7.472   5.696  1.2627  1.2744  0.9062
51144SOL     OW58242   4.299   0.736   8.282 -0.1869  0.4158  0.0299
51144SOL    HW158243   4.378   0.709   8.330 -0.7875 -0.7289  0.4109
51144SOL    HW258244   4.322   0.725   8.190  0.6828  1.8051  0.0479
51145SOL     OW58245   5.973   2.066   9.533  0.0346 -0.5397  0.2072
51145SOL    HW158246   5.991   2.003   9.463  1.4749  0.0206  0.0415
51145SOL    HW258247   5.906   2.123   9.497  1.1599  0.0958 -0.9709
51146SOL     OW58248  12.233   2.773  12.612  0.1441  0.4053 -0.1386
51146SOL    HW158249  12.252   2.850  12.666 -1.0503  2.6327 -2.6832
51146SOL    HW258250  12.250   2.801  12.522 -1.8214 -1.8146 -1.3134
51147SOL     OW58251  12.478   6.688   6.457  0.1049 -0.4103  0.4347
51147SOL    HW158252  12.495   6.609   6.406 -0.3520  0.4759 -1.1693
51147SOL    HW258253  12.490   6.661   6.548  0.0171 -2.2913 -0.0685
51148SOL     OW58254   8.753   5.918   5.600 -0.3767  0.3861 -0.0811
51148SOL    HW158255   8.692   5.856   5.560 -0.2407  0.0410  0.2456
51148SOL    HW258256   8.832   5.913   5.545 -0.7395  1.0560 -0.6855
51149SOL     OW58257   8.972  12.319   6.623 -0.0108 -0.6924  0.2895
51149SOL    HW158258   8.925  12.343   6.703  0.6340  0.3823  0.3719
51149SOL    HW258259   9.062  12.348   6.638 -0.1731  0.8475 -1.3449
51150SOL     OW58260   8.966  10.904   7.081  0.1873  0.3977 -0.0984
51150SOL    HW158261   9.052  10.927   7.046  1.4202 -0.5027  2.1232
51150SOL    HW258262   8.903  10.948   7.024  2.0584  0.0551 -2.5713
51151SOL     OW58263   8.971  12.489   9.019  0.1460 -0.0817 -0.2260
51151SOL    HW158264   9.026  12.460   8.946 -0.0104 -0.7161 -0.0968
51151SOL    HW258265   8.885  12.506   8.979  0.5951  1.6071 -0.5613
51152SOL     OW58266  12.557  11.023   9.453  0.5381 -0.4325 -0.5419
51152SOL    HW158267  12.582  10.931   9.460  3.2679  0.3336  2.3552
51152SOL    HW258268  12.502  11.039   9.530 -0.5800  0.2195 -1.4488
51153SOL     OW58269  11.219   5.707  12.633 -0.5862 -0.0992  0.1771
51153SOL    HW158270  11.232   5.650  12.709  3.1973  0.4135  0.0839
51153SOL    HW258271  11.223   5.649  12.558  0.4617 -0.0639  0.1988
51154SOL     OW58272   1.625   0.492   5.343  0.5429 -0.2956 -0.3936
51154SOL    HW158273   1.622   0.485   5.438  2.6284  1.3000 -0.1272
51154SOL    HW258274   1.667   0.411   5.313  2.6819  0.4592  0.3813
51155SOL     OW58275   1.490   3.273   7.995  0.2631  0.1143  0.1780
51155SOL    HW158276   1.452   3.186   8.006  0.0581  0.3135  1.1830
51155SOL    HW258277   1.415   3.332   7.995  0.5155  0.5103  2.1589
51156SOL     OW58278   9.141   8.379   8.860  0.7006  0.3335  0.6632
51156SOL    HW158279   9.084   8.453   8.838 -0.9161 -0.9257  0.4119
51156SOL    HW258280   9.102   8.341   8.938  0.8253 -0.9334  0.1329
51157SOL     OW58281  10.050   0.104  11.599 -0.8104 -0.1228 -0.2913
51157SOL    HW158282  10.097   0.033  11.644 -2.3584  0.3172  2.2433
51157SOL    HW258283   9.974   0.061  11.559  0.7934 -0.5852 -3.0542
51158SOL     OW58284   9.849   7.535   2.304 -0.1562 -0.3536 -0.4267
51158SOL    HW158285   9.813   7.618   2.336  1.5178  0.2865 -0.0934
51158SOL    HW258286   9.816   7.528   2.215 -2.5734 -0.7459  0.4304
51159SOL     OW58287  10.652   8.239   0.788  0.2127 -0.6020 -0.2224
51159SOL    HW158288  10.688   8.243   0.699 -0.1302 -0.0678 -0.3398
51159SOL    HW258289  10.645   8.330   0.815  0.7641 -0.7734  0.5425
51160SOL     OW58290   3.518   1.800   2.197  1.0301 -0.0984  0.2851
51160SOL    HW158291   3.496   1.836   2.282 -0.3569  2.2810 -0.9796
51160SOL    HW258292   3.583   1.732   2.215 -0.5241 -0.9368  3.3642
51161SOL     OW58293   5.902   8.264   7.849  0.0511 -0.3965  0.3595
51161SOL    HW158294   5.893   8.213   7.929 -0.2446  0.9593  1.2318
51161SOL    HW258295   5.817   8.308   7.839  0.1760 -0.3349 -0.5550
51162SOL     OW58296   9.856   7.973   8.754  0.5490 -0.7645  0.0737
51162SOL    HW158297   9.780   7.945   8.703  0.9948 -1.5714 -0.1629
51162SOL    HW258298   9.838   7.942   8.843  0.1463 -0.0669  0.2455
51163SOL     OW58299   7.523   4.369   5.242 -0.1687 -0.3967 -0.1136
51163SOL    HW158300   7.439   4.412   5.259 -0.7918 -1.3150 -0.7317
51163SOL    HW258301   7.506   4.315   5.165  0.7524 -1.2688  0.2788
51164SOL     OW58302   9.702   1.327   4.007 -0.0860  0.5189 -0.0009
51164SOL    HW158303   9.634   1.274   4.047 -0.0848  0.4609 -0.0761
51164SOL    HW258304   9.773   1.265   3.987 -1.0355  0.0927 -2.3291
51165SOL     OW58305   2.168   7.033   5.948  0.2527  0.1645  0.6698
51165SOL    HW158306   2.220   6.956   5.974  0.0282 -0.0493  0.4821
51165SOL    HW258307   2.125   7.061   6.029  0.9765  0.5933  0.9233
51166SOL     OW58308  10.509   4.209   7.257 -0.2449  0.3284 -0.2931
51166SOL    HW158309  10.548   4.235   7.341 -1.2872 -2.0844  1.0302
51166SOL    HW258310  10.427   4.165   7.281 -2.2395  2.3783 -2.8066
51167SOL     OW58311  11.838   0.518   0.530 -0.6320  0.3620 -0.6086
51167SOL    HW158312  11.802   0.563   0.607 -2.2110 -1.6559 -0.0638
51167SOL    HW258313  11.881   0.440   0.567 -1.3374 -0.5918 -1.7346
51168SOL     OW58314   0.026   5.862  10.831 -0.5057  0.4474  0.7657
51168SOL    HW158315  -0.008   5.879  10.918  0.2713 -0.7496  1.3195
51168SOL    HW258316  -0.049   5.875  10.773 -0.9348  1.6497  1.5441
51169SOL     OW58317   8.390   2.621   9.253 -0.7772 -0.1633  0.7818
51169SOL    HW158318   8.363   2.565   9.326 -0.1172  0.2439  1.3565
51169SOL    HW258319   8.342   2.703   9.267 -0.9375 -0.2156  0.5418
51170SOL     OW58320   8.430   5.762   3.289  0.3192  0.2830  0.4955
51170SOL    HW158321   8.348   5.752   3.338  0.7582 -1.5904  0.9114
51170SOL    HW258322   8.406   5.818   3.214 -1.0735  0.6405  1.1619
51171SOL     OW58323   4.207   2.059   1.139 -0.0138 -0.1632 -0.3953
51171SOL    HW158324   4.230   2.009   1.217 -0.3177 -1.6596 -1.2263
51171SOL    HW258325   4.180   2.144   1.172 -1.3512 -1.1601  1.2453
51172SOL     OW58326   6.325   1.819   1.240  0.0088  0.2337 -0.2971
51172SOL    HW158327   6.358   1.730   1.229 -1.1041 -0.3030  0.4405
51172SOL    HW258328   6.230   1.810   1.231 -0.1204  1.3335 -0.1198
51173SOL     OW58329   0.371   4.270   8.002  0.0225  0.5184  0.9646
51173SOL    HW158330   0.458   4.276   8.041  0.8680  1.6989 -0.9431
51173SOL    HW258331   0.379   4.201   7.936 -0.1693  1.2966  0.1060
51174SOL     OW58332   0.077   3.421   6.173  0.7958  0.5117 -0.2343
51174SOL    HW158333   0.097   3.510   6.144 -1.9155  0.6512 -2.0544
51174SOL    HW258334   0.079   3.369   6.093 -3.9307  0.2962 -0.5222
51175SOL     OW58335   5.045   1.716   9.443  0.0984  0.1854  0.4987
51175SOL    HW158336   5.132   1.676   9.449  0.2908  0.5263  0.0743
51175SOL    HW258337   5.044   1.758   9.357 -0.6845 -0.2574  0.2806
51176SOL     OW58338   0.721   5.006   1.714  0.4571 -0.5367 -0.0498
51176SOL    HW158339   0.686   4.944   1.650  1.2392  0.9669 -2.0339
51176SOL    HW258340   0.752   4.951   1.786 -0.0252 -2.3432 -1.1567
51177SOL     OW58341   5.181   1.650   2.619  0.2671  0.6930  0.6130
51177SOL    HW158342   5.094   1.618   2.645  0.3783  1.0410  1.4326
51177SOL    HW258343   5.162   1.724   2.561 -0.0194 -1.4196 -2.2514
51178SOL     OW58344   9.269   0.833   9.282  0.0097 -0.4365  0.0636
51178SOL    HW158345   9.251   0.761   9.343  1.9820  0.2022  1.5011
51178SOL    HW258346   9.357   0.815   9.249 -0.0755  0.5275 -0.7380
51179SOL     OW58347  11.947   4.832   4.373 -0.2024  0.0936 -0.6092
51179SOL    HW158348  11.959   4.927   4.376  1.2466 -0.0913  1.1089
51179SOL    HW258349  12.020   4.800   4.320  1.5358 -0.2767  1.8276
51180SOL     OW58350   5.556   8.071   3.324 -0.1582  0.3772  0.4036
51180SOL    HW158351   5.496   8.136   3.359  0.1719  1.7672 -1.4267
51180SOL    HW258352   5.620   8.123   3.275  2.1652 -1.0883  1.7078
51181SOL     OW58353   9.522   7.278   0.806  0.2317 -0.0457 -0.3611
51181SOL    HW158354   9.549   7.370   0.805 -0.3857  0.1859  1.3501
51181SOL    HW258355   9.436   7.278   0.764  0.4924  0.0427 -0.9127
51182SOL     OW58356   8.826   8.126   5.046  0.0566 -0.1595 -0.0342
51182SOL    HW158357   8.823   8.079   5.130 -0.6423 -0.2036 -0.0770
51182SOL    HW258358   8.916   8.116   5.017 -0.1029 -1.6102 -0.1103
51183SOL     OW58359   9.927   9.192   0.252  0.0052  0.5505 -0.0823
51183SOL    HW158360  10.007   9.155   0.215 -0.4148 -0.9516  0.4323
51183SOL    HW258361   9.860   9.126   0.235 -0.8331  1.1695  0.7040
51184SOL     OW58362   2.095   1.153   8.268 -0.3404 -0.1424 -0.0373
51184SOL    HW158363   2.058   1.090   8.330  2.2429 -0.9059  0.8484
51184SOL    HW258364   2.179   1.179   8.307  0.9605  0.0592 -2.7473
51185SOL     OW58365   7.703   1.538   4.912 -0.6387 -0.0008 -0.5181
51185SOL    HW158366   7.636   1.559   4.977 -0.2674 -0.7296  0.1218
51185SOL    HW258367   7.772   1.494   4.963 -0.0341  0.0348 -1.2927
51186SOL     OW58368  11.911  11.704   5.864 -0.3302 -0.1214 -0.3579
51186SOL    HW158369  11.855  11.719   5.940 -0.6941  2.2133 -1.0254
51186SOL    HW258370  11.851  11.694   5.791  0.0007  2.9599 -1.1750
51187SOL     OW58371   8.963  11.508   2.295 -0.1894  0.1044 -0.6856
51187SOL    HW158372   9.026  11.572   2.330  0.1435 -0.5115 -0.1324
51187SOL    HW258373   9.016  11.449   2.241 -0.5186  0.3681 -1.3073
51188SOL     OW58374  12.442   4.199  11.513 -0.6337  0.4129 -0.1028
51188SOL    HW158375  12.509   4.223  11.577  0.0091 -0.4136 -0.4360
51188SOL    HW258376  12.387   4.277  11.505 -0.4730  0.6728  1.1284
51189SOL     OW58377   5.018   2.521   4.685 -0.0756 -0.6547  0.0294
51189SOL    HW158378   5.099   2.471   4.673  1.0710  1.5031 -2.0608
51189SOL    HW258379   4.959   2.487   4.617  1.4423  1.9897 -2.8743
51190SOL     OW58380   5.043   2.234   6.028 -0.3220 -0.1073  0.5987
51190SOL    HW158381   4.984   2.303   6.058 -0.0603 -0.3963  1.8158
51190SOL    HW258382   5.119   2.281   5.993  0.4098  0.2440  2.5564
51191SOL     OW58383   9.058   5.462   3.807  0.1340 -0.1255 -0.6429
51191SOL    HW158384   8.971   5.502   3.802  0.0816 -0.2622 -0.8301
51191SOL    HW258385   9.115   5.525   3.762  0.2936  0.4009  0.2621
51192SOL     OW58386   0.674   1.193   1.505  0.0851  0.3354 -0.7779
51192SOL    HW158387   0.737   1.121   1.507  1.0565  1.1745 -0.7510
51192SOL    HW258388   0.644   1.200   1.595 -0.5297 -0.4642 -0.9045
51193SOL     OW58389   6.931   4.261   4.778 -0.0149 -0.2292 -0.3172
51193SOL    HW158390   6.844   4.256   4.818  0.2542  0.3476  0.3669
51193SOL    HW258391   6.951   4.355   4.775  1.2752 -0.4104  1.0956
51194SOL     OW58392   7.340   8.070   2.649  0.6641 -0.0381  0.0323
51194SOL    HW158393   7.335   8.165   2.639 -1.1333 -0.0424  0.5054
51194SOL    HW258394   7.294   8.035   2.572 -0.6677 -0.4220  0.9598
51195SOL     OW58395   5.765   0.915   1.793  0.5485  0.0276 -0.2670
51195SOL    HW158396   5.812   0.990   1.756  1.8654 -1.4089 -1.6439
51195SOL    HW258397   5.798   0.907   1.882 -0.0632  1.4032  0.1238
51196SOL     OW58398   7.740   2.834   6.060 -0.0108  0.4574 -0.0810
51196SOL    HW158399   7.750   2.831   6.155  1.7852  1.3062 -0.2229
51196SOL    HW258400   7.715   2.925   6.041 -0.6740  0.2162 -0.4176
51197SOL     OW58401   2.264   3.700   1.759 -0.0343  0.1365  0.6665
51197SOL    HW158402   2.250   3.716   1.666  1.7281  0.0891  0.3746
51197SOL    HW258403   2.203   3.760   1.803 -0.4983  0.5436 -0.5058
51198SOL     OW58404   0.675   6.128   3.215  0.1993  0.0427  0.0752
51198SOL    HW158405   0.698   6.158   3.127 -0.3553  2.7252  0.7574
51198SOL    HW258406   0.747   6.157   3.270  0.3810 -1.3177  0.6007
51199SOL     OW58407   5.805   8.224   4.510 -0.4899  0.2059  0.2102
51199SOL    HW158408   5.742   8.266   4.452  0.8842  1.7517 -0.2237
51199SOL    HW258409   5.857   8.167   4.453 -1.2538 -0.8371  0.5187
51200SOL     OW58410   2.235  12.276   5.141 -1.1131  0.0151 -0.8547
51200SOL    HW158411   2.311  12.236   5.185 -1.2394  0.3331 -0.3342
51200SOL    HW258412   2.271  12.351   5.094 -1.0211 -0.1607 -1.0685
51201SOL     OW58413   3.671   6.178   9.852 -0.0997  0.0720 -0.1510
51201SOL    HW158414   3.679   6.112   9.922  2.3895  2.0193  1.5957
51201SOL    HW258415   3.742   6.156   9.791  1.5933  1.7305  1.1075
51202SOL     OW58416   0.115   9.446  10.347  0.0417  0.0847 -0.3145
51202SOL    HW158417   0.194   9.398  10.320  1.0078 -0.5129  3.0458
51202SOL    HW258418   0.047   9.379  10.349  0.4626 -0.3376  0.6381
51203SOL     OW58419  11.401   9.586   2.299  0.6008 -0.1896  0.5242
51203SOL    HW158420  11.418   9.680   2.293  1.8858 -0.3953  0.7459
51203SOL    HW258421  11.438   9.549   2.219 -1.0710 -0.3707 -0.2051
51204SOL     OW58422   7.791   0.069   3.219  0.0409  0.1354  0.5189
51204SOL    HW158423   7.759   0.146   3.265 -0.1292 -0.7025  1.8701
51204SOL    HW258424   7.742   0.068   3.137 -1.3563  0.4304  1.3115
51205SOL     OW58425   4.414  11.610   0.345 -0.2104 -0.0597 -0.2935
51205SOL    HW158426   4.461  11.528   0.357  0.6496  0.5995  1.1025
51205SOL    HW258427   4.352  11.613   0.417 -1.3225 -0.1679 -1.2119
51206SOL     OW58428   6.482   8.125   3.575 -0.0143 -0.1192 -0.3491
51206SOL    HW158429   6.524   8.168   3.650  0.3130  0.5290 -0.8920
51206SOL    HW258430   6.415   8.069   3.614  0.6826 -0.4017  0.4786
51207SOL     OW58431   7.199   3.297  10.614 -0.3338 -0.0201 -0.7067
51207SOL    HW158432   7.253   3.374  10.594 -1.6165  2.0796  3.0073
51207SOL    HW258433   7.262   3.227  10.632  1.1524  1.6311  0.8953
51208SOL     OW58434   4.368   8.669  12.070 -0.0441  0.1565 -0.0553
51208SOL    HW158435   4.375   8.763  12.052 -0.3013 -0.1945 -2.3217
51208SOL    HW258436   4.458   8.638  12.073  0.0223  0.3567  0.0617
51209SOL     OW58437   9.969   7.879   6.704  0.3963 -0.4281  0.0901
51209SOL    HW158438   9.955   7.784   6.706 -0.8189 -0.2858  2.0201
51209SOL    HW258439  10.007   7.897   6.618  0.3973 -2.6211 -0.4188
51210SOL     OW58440  12.202   5.645   8.738  0.1031 -0.3311 -0.2020
51210SOL    HW158441  12.151   5.690   8.805 -0.7929 -2.1047  0.3684
51210SOL    HW258442  12.291   5.675   8.751 -0.2133  0.0503  1.2022
51211SOL     OW58443   3.440   3.366   8.422  0.1145 -0.2185  0.1589
51211SOL    HW158444   3.400   3.389   8.338  1.0237  0.7001 -0.0312
51211SOL    HW258445   3.405   3.430   8.484  1.4069  0.7125 -0.0460
51212SOL     OW58446  12.322   8.245   2.383 -0.6908 -0.4940  0.2565
51212SOL    HW158447  12.241   8.228   2.430 -0.2190 -1.5167  0.7164
51212SOL    HW258448  12.379   8.288   2.446 -0.6740 -0.2779  0.0968
51213SOL     OW58449   5.781   8.118   9.112  0.0615  0.6024 -0.4124
51213SOL    HW158450   5.838   8.168   9.054  1.9599  0.9613  1.6276
51213SOL    HW258451   5.771   8.173   9.189  0.3150 -1.1445  0.9471
51214SOL     OW58452   0.212   3.177  12.628  0.3453  0.6241 -0.0179
51214SOL    HW158453   0.157   3.255  12.636 -1.0735 -0.2646 -0.8409
51214SOL    HW258454   0.227   3.168  12.534  0.3785 -0.1812  0.0639
51215SOL     OW58455  10.782   4.000  12.236  0.2578 -0.4095  0.3755
51215SOL    HW158456  10.718   4.068  12.258  0.6231  0.3176 -0.7148
51215SOL    HW258457  10.866   4.040  12.256  0.3952 -1.8580  3.1446
51216SOL     OW58458   9.429   6.083   8.236  0.4737  0.2325 -0.0311
51216SOL    HW158459   9.488   6.154   8.258  0.4119  0.5849 -0.9618
51216SOL    HW258460   9.480   6.027   8.177  0.3657 -0.2431  0.3205
51217SOL     OW58461   0.817   6.624   0.886 -0.3710 -0.0321 -0.4005
51217SOL    HW158462   0.841   6.546   0.936 -0.0270  0.0880 -0.3762
51217SOL    HW258463   0.768   6.590   0.811 -0.2433 -0.2701 -0.3778
51218SOL     OW58464   8.790   5.854   9.656 -0.2568  0.6134 -0.5888
51218SOL    HW158465   8.780   5.804   9.574  3.1984 -0.1692 -0.6885
51218SOL    HW258466   8.810   5.943   9.627 -0.5688  0.6862 -0.5756
51219SOL     OW58467   3.628  10.415   0.798 -0.1088  0.1290  0.4435
51219SOL    HW158468   3.578  10.451   0.872 -2.3528  0.4079 -1.1000
51219SOL    HW258469   3.688  10.486   0.773  1.5417 -0.3829  2.6402
51220SOL     OW58470   2.222  11.252   5.584  0.1613 -0.0246 -0.0638
51220SOL    HW158471   2.247  11.297   5.665 -0.8854 -0.2877  0.4259
51220SOL    HW258472   2.130  11.273   5.572  0.2447 -0.1777 -1.0794
51221SOL     OW58473   0.311   4.601   3.166 -0.0619  0.2816  0.0787
51221SOL    HW158474   0.317   4.551   3.085 -1.5746  2.0011 -1.1715
51221SOL    HW258475   0.241   4.558   3.216  0.1710 -0.1625  0.0294
51222SOL     OW58476   8.855  10.894   3.385 -0.0404 -0.4604 -0.1626
51222SOL    HW158477   8.928  10.848   3.344  0.5917  1.9792 -2.0454
51222SOL    HW258478   8.897  10.956   3.445 -0.8098 -1.5784  1.5954
51223SOL     OW58479  12.632   6.208   2.133  0.1026 -0.3864  0.1787
51223SOL    HW158480  12.654   6.115   2.125  0.8831 -0.1814 -0.2202
51223SOL    HW258481  12.539   6.209   2.156 -0.3724 -1.2317 -1.5333
51224SOL     OW58482   9.501   1.221  11.269  0.0647 -0.3690 -0.2418
51224SOL    HW158483   9.459   1.137  11.247 -0.2491 -0.3544  0.2879
51224SOL    HW258484   9.481   1.234  11.362 -1.2134  1.0521 -0.6938
51225SOL     OW58485   2.308   2.218  11.017  0.3935 -0.2600  0.2509
51225SOL    HW158486   2.392   2.173  11.012  1.1831  1.1649  0.0253
51225SOL    HW258487   2.284   2.215  11.109  0.6726 -0.6942  0.3104
51226SOL     OW58488   1.980   9.319   2.562  0.6572  0.0257  0.4050
51226SOL    HW158489   1.999   9.265   2.639 -0.1572 -0.8935 -0.0304
51226SOL    HW258490   1.933   9.262   2.502 -1.2052  1.5096  0.3634
51227SOL     OW58491   2.117   4.330  11.103  0.2244 -0.6653  0.1534
51227SOL    HW158492   2.108   4.316  11.198 -0.8152  1.1840  0.3830
51227SOL    HW258493   2.209   4.351  11.091 -0.2614  2.8905  1.4314
51228SOL     OW58494   4.496   4.262   8.710 -0.3706  0.8596 -0.1980
51228SOL    HW158495   4.527   4.177   8.677  1.3198  1.5481 -0.4672
51228SOL    HW258496   4.489   4.317   8.632 -0.8847  1.1503  0.0499
51229SOL     OW58497  12.218   7.994   6.050  0.6570 -0.2485  0.4586
51229SOL    HW158498  12.167   7.983   6.130 -1.6010 -0.2894 -0.9093
51229SOL    HW258499  12.245   7.904   6.027  0.7580 -0.3108  0.8120
51230SOL     OW58500   1.883   9.153   7.815  0.0566 -0.4459  0.2637
51230SOL    HW158501   1.939   9.085   7.853 -0.7395 -1.2062  0.0894
51230SOL    HW258502   1.915   9.234   7.854  2.2535 -0.6524 -0.8902
51231SOL     OW58503   1.572   5.373   0.289 -0.3377  0.4657  0.6469
51231SOL    HW158504   1.597   5.281   0.299  2.2391  1.2717  2.9268
51231SOL    HW258505   1.499   5.384   0.349 -0.4489 -0.0078  0.6055
51232SOL     OW58506   9.418   6.253   9.886 -0.2954  0.2747 -0.0979
51232SOL    HW158507   9.377   6.317   9.828 -0.1596  0.9939  0.5859
51232SOL    HW258508   9.379   6.269   9.972  0.1316 -0.1986  0.1947
51233SOL     OW58509  10.275  12.224   2.869 -0.3701  0.0331 -0.0452
51233SOL    HW158510  10.208  12.259   2.810 -0.3696 -0.2693 -0.2322
51233SOL    HW258511  10.236  12.143   2.903 -0.6222  0.5135  0.8536
51234SOL     OW58512   2.876  11.438   4.808 -0.7205 -0.1209 -0.3515
51234SOL    HW158513   2.789  11.403   4.789 -1.0441 -0.7252  1.9378
51234SOL    HW258514   2.870  11.530   4.785 -1.2887 -0.5606 -2.1497
51235SOL     OW58515   5.380  11.481   2.645 -0.5683  0.4708  0.3390
51235SOL    HW158516   5.398  11.447   2.733 -0.0884 -0.6863 -0.1831
51235SOL    HW258517   5.361  11.402   2.593 -2.1804  1.2321 -0.2936
51236SOL     OW58518   5.666   6.584  11.056 -0.0419  0.1335  0.1143
51236SOL    HW158519   5.703   6.505  11.017  0.0091  0.3254 -0.2369
51236SOL    HW258520   5.657   6.645  10.982  0.6252  0.7167  0.5062
51237SOL     OW58521   3.131   7.525   1.422 -0.0858  0.0103  0.1716
51237SOL    HW158522   3.110   7.480   1.504  0.7987 -0.5374  0.1100
51237SOL    HW258523   3.102   7.464   1.354  1.4535 -0.6706  0.0861
51238SOL     OW58524  12.240   3.140   7.537 -0.2612  0.5042 -0.1351
51238SOL    HW158525  12.289   3.069   7.578 -1.2258  1.3304  2.6189
51238SOL    HW258526  12.166   3.155   7.595 -0.2291  3.6335 -0.7586
51239SOL     OW58527   2.293   3.895   4.515  0.7514 -0.4633  0.5667
51239SOL    HW158528   2.205   3.922   4.543  1.1386  0.1121  1.2639
51239SOL    HW258529   2.351   3.961   4.553  1.4503 -0.5959 -0.2612
51240SOL     OW58530  11.115   0.891  11.475  0.0031 -0.7156 -0.6158
51240SOL    HW158531  11.187   0.933  11.521  0.3777 -0.9321 -0.9972
51240SOL    HW258532  11.115   0.801  11.507 -0.8164 -0.4428  0.2220
51241SOL     OW58533   3.206   9.073   9.485 -0.2547  0.0475  0.0125
51241SOL    HW158534   3.236   9.087   9.395 -0.4569  1.6573  0.1722
51241SOL    HW258535   3.113   9.050   9.477 -0.0888 -0.5553 -0.2219
51242SOL     OW58536   3.509   2.918   0.701 -0.1788 -0.2602 -0.1205
51242SOL    HW158537   3.554   3.001   0.718  0.2475 -0.4893 -0.1046
51242SOL    HW258538   3.421   2.943   0.673  0.3604  0.2623 -1.4461
51243SOL     OW58539   5.940   5.926   9.275  0.4457 -0.0092 -0.2265
51243SOL    HW158540   5.878   5.885   9.215 -1.0998  2.1267 -0.1824
51243SOL    HW258541   6.015   5.866   9.277 -0.2653 -1.0907 -2.7669
51244SOL     OW58542  12.304   8.328  10.720  0.0585  0.1419 -0.1149
51244SOL    HW158543  12.386   8.286  10.747 -0.4692 -0.6185  0.3491
51244SOL    HW258544  12.277   8.279  10.642 -0.3053 -0.0574  0.1358
51245SOL     OW58545   3.892   9.116   0.673  0.2238  0.7239  0.0613
51245SOL    HW158546   3.949   9.069   0.612 -0.7534 -1.7082  0.8867
51245SOL    HW258547   3.945   9.130   0.751 -0.4363 -2.5480  1.2693
51246SOL     OW58548  12.039   0.406  11.733  0.0068 -0.4556 -0.3194
51246SOL    HW158549  12.117   0.409  11.787  0.5195 -0.0788 -1.0617
51246SOL    HW258550  12.050   0.478  11.670 -2.4254  1.7435  1.5593
51247SOL     OW58551   8.551   6.807   6.090  0.5436 -0.7625 -0.4568
51247SOL    HW158552   8.511   6.728   6.127  1.3122 -0.8112  0.3015
51247SOL    HW258553   8.637   6.813   6.133  0.0142  1.1562  0.4194
51248SOL     OW58554   8.913   0.329   5.636 -0.5718  0.1392 -0.3435
51248SOL    HW158555   8.970   0.403   5.615  0.6578  0.0990  2.4226
51248SOL    HW258556   8.959   0.252   5.601  0.7326  0.2007  1.1375
51249SOL     OW58557   4.582   2.073   4.172  0.5493 -0.3549 -0.0475
51249SOL    HW158558   4.624   1.988   4.159  2.3232  0.5185 -0.2986
51249SOL    HW258559   4.591   2.091   4.266  0.8838 -0.1093 -0.1233
51250SOL     OW58560  10.483   8.844   7.346  0.2117 -0.7377  0.1752
51250SOL    HW158561  10.401   8.868   7.304  1.2798 -0.8387 -2.1085
51250SOL    HW258562  10.459   8.774   7.407 -1.5174 -0.0679  0.3142
51251SOL     OW58563  10.137  12.210   3.374  0.5935 -0.7013  0.4403
51251SOL    HW158564  10.206  12.156   3.334 -0.5621 -1.2393 -0.9303
51251SOL    HW258565  10.086  12.149   3.427  0.5363 -0.5160  0.6017
51252SOL     OW58566   8.946   0.418   8.733 -0.2787 -0.2015  0.3612
51252SOL    HW158567   8.876   0.474   8.701  0.3537  0.7497  0.5870
51252SOL    HW258568   8.943   0.428   8.828 -1.1852 -1.8303  0.5345
51253SOL     OW58569   8.602   5.566   8.371 -0.0054  0.2050  0.5813
51253SOL    HW158570   8.530   5.506   8.350  1.1121 -1.1861  0.5886
51253SOL    HW258571   8.597   5.634   8.303 -0.5352 -0.5796 -0.1903
51254SOL     OW58572   3.694   8.748   1.315  0.2386 -0.4550  0.1417
51254SOL    HW158573   3.703   8.792   1.230  0.9468  0.2624  0.5716
51254SOL    HW258574   3.751   8.671   1.308  1.6880  0.5564  0.5707
51255SOL     OW58575   6.944   2.919  11.147  0.1221 -0.2023  0.5458
51255SOL    HW158576   6.961   2.895  11.238  0.3894 -1.7923  0.1190
51255SOL    HW258577   6.857   2.884  11.128  0.6001 -1.0524 -0.1609
51256SOL     OW58578   6.843  12.575   0.665  0.4114  0.5653 -0.2207
51256SOL    HW158579   6.874  12.594   0.754  0.3596  1.3737 -0.3709
51256SOL    HW258580   6.879  12.488   0.646 -0.3353 -0.0135  0.9242
51257SOL     OW58581   7.114   6.345   7.119  0.3157 -0.5687 -0.1380
51257SOL    HW158582   7.050   6.335   7.190  0.6232  0.2508  0.2656
51257SOL    HW258583   7.079   6.417   7.066  1.0012  0.0239  0.2021
51258SOL     OW58584   3.051   0.802   3.612 -0.2991  0.3433 -0.1473
51258SOL    HW158585   3.025   0.750   3.536  1.2684 -0.0810 -0.4235
51258SOL    HW258586   3.062   0.891   3.577 -0.1337  0.2664 -0.2909
51259SOL     OW58587   3.326   4.827  10.483 -0.4128  0.0029  0.0758
51259SOL    HW158588   3.237   4.826  10.519 -0.1844  0.3504  0.6696
51259SOL    HW258589   3.382   4.803  10.556  0.1601  1.8110  0.2918
51260SOL     OW58590   4.272   8.422   5.214 -0.4392 -0.4323 -0.6948
51260SOL    HW158591   4.208   8.478   5.171  0.3441  0.9729 -0.0876
51260SOL    HW258592   4.357   8.457   5.188  0.0604 -0.6231  0.5938
51261SOL     OW58593   7.533   8.857   6.637  0.2399  0.3934 -0.4331
51261SOL    HW158594   7.462   8.922   6.641  0.1054  0.1928  1.4330
51261SOL    HW258595   7.539   8.834   6.544 -0.4451  2.2510 -0.9907
51262SOL     OW58596   8.473  10.409   8.903  0.0580  0.2778  0.2568
51262SOL    HW158597   8.403  10.431   8.842  0.9788  0.9496 -0.5984
51262SOL    HW258598   8.468  10.314   8.912 -0.9803  0.3205  0.2530
51263SOL     OW58599  12.213   0.608   3.601  0.2497 -0.2867 -0.2204
51263SOL    HW158600  12.256   0.526   3.625  0.3812 -0.3899 -0.7966
51263SOL    HW258601  12.203   0.603   3.506  1.0775  0.7559 -0.3743
51264SOL     OW58602   7.526   5.549   2.276 -0.0750  0.3672 -0.4486
51264SOL    HW158603   7.465   5.482   2.245  0.6993  0.7436 -3.0861
51264SOL    HW258604   7.574   5.508   2.347  0.2116 -1.8388 -1.8269
51265SOL     OW58605   8.372  10.392   2.084  0.6369  0.2915 -0.5554
51265SOL    HW158606   8.415  10.462   2.133  0.0190 -1.0239  2.0463
51265SOL    HW258607   8.443  10.346   2.040  1.6216 -0.0887  1.3232
51266SOL     OW58608   1.972   7.658   8.202  0.7452  0.2189 -0.0971
51266SOL    HW158609   1.993   7.737   8.152  1.8014 -0.3159 -0.5314
51266SOL    HW258610   1.979   7.685   8.294  2.4936  0.3205 -0.2212
51267SOL     OW58611  10.686  11.360   1.285 -0.2904 -0.1525  0.1777
51267SOL    HW158612  10.668  11.442   1.331  0.8797 -0.9565  2.2037
51267SOL    HW258613  10.760  11.379   1.229  2.2943 -0.5334  3.1961
51268SOL     OW58614  12.232   2.977  12.077 -0.3750 -0.2774  0.1089
51268SOL    HW158615  12.283   2.924  12.015  0.1314 -0.9593  1.0846
51268SOL    HW258616  12.258   3.067  12.058 -0.4167 -0.4591 -0.8371
51269SOL     OW58617   8.342  11.657  12.488  0.6410  0.3265 -0.1239
51269SOL    HW158618   8.314  11.662  12.579 -0.6997 -1.0141 -0.4242
51269SOL    HW258619   8.423  11.605  12.490 -0.0912 -0.8300  0.1909
51270SOL     OW58620   9.569  11.400   8.721 -0.2549 -0.2643 -0.5166
51270SOL    HW158621   9.635  11.435   8.661  1.1708  0.0363  1.1389
51270SOL    HW258622   9.485  11.432   8.686  0.4624 -0.3999 -2.5064
51271SOL     OW58623   1.826   4.230  12.491 -0.0359  0.1875 -0.5631
51271SOL    HW158624   1.780   4.173  12.429 -0.7354 -0.1346  0.2365
51271SOL    HW258625   1.791   4.206  12.577  0.7148  0.8241 -0.0644
51272SOL     OW58626   5.896   4.412   1.540 -0.4804 -0.1688  0.0916
51272SOL    HW158627   5.885   4.388   1.632 -0.1727 -2.2749 -0.3781
51272SOL    HW258628   5.971   4.471   1.539 -0.8734  0.3754  1.2548
51273SOL     OW58629   8.707   3.316   0.997  0.4290  0.2111  0.4101
51273SOL    HW158630   8.669   3.288   1.081  0.8556 -1.9089 -0.0483
51273SOL    HW258631   8.687   3.410   0.992 -1.9361 -0.1451  1.6621
51274SOL     OW58632   7.580   1.095   9.581 -0.2755 -0.3223  0.0899
51274SOL    HW158633   7.580   1.039   9.503 -2.5585 -0.2013 -0.0405
51274SOL    HW258634   7.549   1.038   9.651 -0.4176  0.1863  0.4444
51275SOL     OW58635   8.391   7.911   4.316  0.5844 -0.1245  0.2956
51275SOL    HW158636   8.427   7.927   4.403 -0.0597 -1.2847  0.7978
51275SOL    HW258637   8.308   7.866   4.332  0.7795 -0.9652 -0.9302
51276SOL     OW58638   9.126   1.485   4.753 -0.2520  0.8050 -0.1354
51276SOL    HW158639   9.162   1.526   4.832  0.4515 -1.6132  0.8887
51276SOL    HW258640   9.044   1.444   4.782  0.1653 -0.3578 -0.5272
51277SOL     OW58641   0.079   6.562   1.701 -0.2984 -0.5151 -0.3294
51277SOL    HW158642   0.145   6.566   1.631 -0.4192 -1.3237 -0.4996
51277SOL    HW258643  -0.003   6.544   1.655 -0.9555  2.1018 -0.2851
51278SOL     OW58644   8.947   6.423  11.596 -0.4890  0.2160 -0.1455
51278SOL    HW158645   8.882   6.469  11.542 -0.1989 -0.2143 -0.8754
51278SOL    HW258646   9.021   6.484  11.600 -1.0492  0.8622  0.9871
51279SOL     OW58647   3.015   5.492   5.617 -0.5101  0.6525  0.2792
51279SOL    HW158648   2.977   5.546   5.686 -0.6599  0.0242  0.6970
51279SOL    HW258649   3.013   5.403   5.652 -1.1509  0.2356 -0.7718
51280SOL     OW58650   8.425   3.007  11.634  0.5726  0.3179  0.5912
51280SOL    HW158651   8.359   3.070  11.604 -0.3874 -0.3426  1.2631
51280SOL    HW258652   8.505   3.059  11.642  1.0915  0.4764 -3.4565
51281SOL     OW58653   0.842  10.094   7.380  0.2228  0.1940 -0.3776
51281SOL    HW158654   0.913  10.157   7.394  0.1306  0.4550 -1.0465
51281SOL    HW258655   0.880  10.027   7.324  0.2042 -0.1473  0.0114
51282SOL     OW58656   0.879   2.611   3.744  0.1007  0.1206  0.1154
51282SOL    HW158657   0.804   2.569   3.786 -0.5251  1.6905  0.6281
51282SOL    HW258658   0.883   2.571   3.657 -0.7094 -0.7010  0.4383
51283SOL     OW58659   8.419   3.760   0.139  0.2460 -0.1075  0.6136
51283SOL    HW158660   8.503   3.806   0.132 -0.6334  1.5188  0.4067
51283SOL    HW258661   8.402   3.756   0.233  0.5363 -0.4363  0.6561
51284SOL     OW58662  12.402   0.065  10.616 -0.3813  0.2873 -0.0531
51284SOL    HW158663  12.471   0.035  10.557 -2.1401 -1.0390 -1.5617
51284SOL    HW258664  12.326   0.011  10.593 -2.0080  1.8564  1.3426
51285SOL     OW58665   6.957  10.760  10.938  0.4936  0.1148  0.0281
51285SOL    HW158666   6.981  10.791  10.851 -1.3001 -1.5215 -1.1126
51285SOL    HW258667   6.869  10.795  10.953  0.6912  0.1868  1.1087
51286SOL     OW58668   8.199   2.052   3.096 -0.2723  0.2317  0.2667
51286SOL    HW158669   8.286   2.043   3.058  0.4380  1.3537  1.5568
51286SOL    HW258670   8.159   1.965   3.087  2.2914 -1.3871  2.8578
51287SOL     OW58671   9.128   0.470   3.028 -0.3814  0.3922  0.0335
51287SOL    HW158672   9.210   0.518   3.041  0.3517 -1.2160  1.8194
51287SOL    HW258673   9.084   0.474   3.113 -1.0107 -0.7950 -0.2202
51288SOL     OW58674   0.682   8.956   8.145  0.6880 -0.0272 -0.0235
51288SOL    HW158675   0.674   8.908   8.062 -0.8942  1.3314 -0.7162
51288SOL    HW258676   0.747   9.024   8.128  2.1121 -1.1673  0.6237
51289SOL     OW58677  10.375   0.224   0.974 -0.4515 -0.1334  0.2716
51289SOL    HW158678  10.292   0.203   0.930  0.5087 -0.9591 -1.2062
51289SOL    HW258679  10.349   0.281   1.047 -2.2781 -0.0791 -0.3659
51290SOL     OW58680  12.285   0.904  10.040  0.2382  0.3627  0.9823
51290SOL    HW158681  12.358   0.855  10.078 -1.9497 -1.5940  2.9991
51290SOL    HW258682  12.304   0.995  10.061  2.0731 -0.0767  1.4365
51291SOL     OW58683   1.540  10.885   4.389  0.3066 -0.0827  0.0200
51291SOL    HW158684   1.564  10.928   4.471 -1.2307  1.5169 -0.3192
51291SOL    HW258685   1.568  10.946   4.321  0.4357 -0.8201 -0.5998
51292SOL     OW58686   4.501   2.480   7.571  0.0617  0.0911 -0.0864
51292SOL    HW158687   4.447   2.545   7.616  0.7452  0.6571 -0.0702
51292SOL    HW258688   4.591   2.510   7.584  0.4204 -1.0904  0.2945
51293SOL     OW58689   9.667  10.805  10.752  0.0945 -0.0566  0.2664
51293SOL    HW158690   9.630  10.889  10.779  0.1588 -0.2579  1.0057
51293SOL    HW258691   9.591  10.747  10.747 -0.1018  0.2967 -1.3030
51294SOL     OW58692   4.207   3.465   9.294  0.3240 -0.6854 -0.2448
51294SOL    HW158693   4.248   3.401   9.236  0.6554 -0.9583  0.2888
51294SOL    HW258694   4.276   3.529   9.312  0.1937 -0.5482 -0.2236
51295SOL     OW58695  11.630   3.507   1.334  0.7783 -0.6902  0.3177
51295SOL    HW158696  11.690   3.483   1.405 -0.6490 -0.4534  1.6589
51295SOL    HW258697  11.657   3.596   1.309  1.6493 -0.9913  0.1438
51296SOL     OW58698  12.437   1.171   2.853  0.0705  0.0567 -0.0551
51296SOL    HW158699  12.511   1.223   2.820 -0.9072  0.7729 -1.2334
51296SOL    HW258700  12.442   1.088   2.806  0.1766  0.0733 -0.0719
51297SOL     OW58701   4.016   2.068   0.604  0.2953  0.1566  0.0613
51297SOL    HW158702   4.031   1.973   0.596  1.1714  0.1988  1.0350
51297SOL    HW258703   3.983   2.094   0.518 -0.1252 -1.0613 -0.1650
51298SOL     OW58704   0.006   2.957   1.044  0.1859  0.0536 -0.9340
51298SOL    HW158705  -0.022   2.916   0.963 -0.8896 -1.8632  0.3529
51298SOL    HW258706   0.087   2.911   1.067  0.2581  0.3026 -0.6879
51299SOL     OW58707   4.726   1.026   5.495 -0.0181  0.0888 -0.1398
51299SOL    HW158708   4.700   1.024   5.403  2.2635 -0.1686 -0.8516
51299SOL    HW258709   4.760   1.114   5.509  2.3957 -0.7178 -0.4506
51300SOL     OW58710   8.075   3.941   1.541 -0.2483 -0.2138  0.3320
51300SOL    HW158711   8.098   3.960   1.450 -1.4171 -0.7312 -0.0832
51300SOL    HW258712   8.085   3.847   1.550  0.3567 -0.1028  0.8915
51301SOL     OW58713   3.216   6.711   1.067 -0.1496  0.2952 -0.1897
51301SOL    HW158714   3.261   6.636   1.106 -0.2490 -0.9501 -2.3334
51301SOL    HW258715   3.125   6.684   1.060  0.1468 -0.3152 -2.8739
51302SOL     OW58716   3.173   6.254   3.465  0.0702  0.6641  0.2731
51302SOL    HW158717   3.095   6.240   3.412 -0.3045 -1.9336  1.3355
51302SOL    HW258718   3.242   6.274   3.403 -0.8751  0.2434 -0.9472
51303SOL     OW58719   0.965   5.906   6.387  0.5801  0.0523 -0.5990
51303SOL    HW158720   0.914   5.826   6.378  0.6959 -0.3922  2.0210
51303SOL    HW258721   0.914   5.973   6.341 -0.0801 -1.2554 -1.8479
51304SOL     OW58722   1.129   2.836   8.726  0.1007  0.1546  0.1902
51304SOL    HW158723   1.068   2.899   8.688  0.1371  0.7826  1.1641
51304SOL    HW258724   1.118   2.757   8.672 -1.8221  0.1368  0.5323
51305SOL     OW58725   4.771   2.764  12.525  0.0961 -0.4925 -0.1037
51305SOL    HW158726   4.711   2.724  12.588 -1.2401  2.6145  0.7496
51305SOL    HW258727   4.846   2.791  12.578  0.7829 -1.3357 -0.6034
51306SOL     OW58728   0.731   8.910   2.693  0.2368 -0.2467 -0.2088
51306SOL    HW158729   0.773   8.990   2.662 -0.9051  0.8667  0.9989
51306SOL    HW258730   0.754   8.844   2.628  3.0735  0.4891 -0.1082
51307SOL     OW58731   6.277   0.585  11.763 -0.0204  0.0621  0.2678
51307SOL    HW158732   6.298   0.662  11.710  0.3741  0.0115  0.3468
51307SOL    HW258733   6.357   0.569  11.813  0.1237 -0.7787 -0.2170
51308SOL     OW58734   8.529   7.521   8.926 -0.2417 -0.4381 -0.1647
51308SOL    HW158735   8.484   7.568   8.996 -0.0508  1.3494 -1.1912
51308SOL    HW258736   8.490   7.433   8.927 -0.0504 -0.5690  2.3213
51309SOL     OW58737   1.111  11.244   3.329  0.5528 -0.1891 -0.0933
51309SOL    HW158738   1.030  11.285   3.300 -0.7943 -1.4616  1.6065
51309SOL    HW258739   1.083  11.159   3.364  3.1506 -2.7963 -3.5765
51310SOL     OW58740   6.728   1.603  11.399  0.0448 -0.0849 -0.0778
51310SOL    HW158741   6.745   1.689  11.437  1.0858 -0.0165 -0.6528
51310SOL    HW258742   6.731   1.543  11.473  1.4118  0.1247  0.0624
51311SOL     OW58743   5.928   1.405   4.566  0.5765 -0.2533 -0.1116
51311SOL    HW158744   5.883   1.321   4.577  1.1057 -0.8634 -2.2179
51311SOL    HW258745   5.858   1.467   4.546  0.4135 -0.6812 -0.8824
51312SOL     OW58746   3.585   9.616  11.146  0.5600 -0.0303 -0.6904
51312SOL    HW158747   3.557   9.647  11.060 -1.0506  2.1554  0.5173
51312SOL    HW258748   3.513   9.559  11.175  0.4266  0.3548 -0.2467
51313SOL     OW58749   8.169   2.502   5.416  0.0538  0.8087  0.4402
51313SOL    HW158750   8.101   2.437   5.428  0.3886 -0.1466 -2.1517
51313SOL    HW258751   8.204   2.517   5.504 -3.4292  1.3995  1.8902
51314SOL     OW58752   4.740   0.977  10.157  0.3206  0.7893 -0.4183
51314SOL    HW158753   4.693   0.949  10.078  0.2496 -0.1611 -0.0481
51314SOL    HW258754   4.831   0.985  10.128  0.7249 -1.8013 -0.1084
51315SOL     OW58755   0.205  12.414   7.776  0.2617  0.4697  0.2148
51315SOL    HW158756   0.137  12.449   7.719  0.7887  0.0510 -0.6955
51315SOL    HW258757   0.158  12.378   7.851 -0.8031 -2.0117 -1.4947
51316SOL     OW58758   1.998   0.319  12.521  0.2447 -0.5315 -0.4488
51316SOL    HW158759   1.962   0.286  12.604 -0.9854 -0.1078 -0.7955
51316SOL    HW258760   2.068   0.379  12.549 -1.6950  1.4922  0.4551
51317SOL     OW58761   5.533   4.994   2.522 -0.0381 -0.4618  0.3631
51317SOL    HW158762   5.533   5.061   2.454 -0.0261 -2.3827 -1.6529
51317SOL    HW258763   5.441   4.987   2.548 -0.2276 -0.4925 -0.2913
51318SOL     OW58764   6.624  12.500   6.738  0.3912  0.8367  0.1372
51318SOL    HW158765   6.683  12.475   6.666  0.5907  0.5343  0.4012
51318SOL    HW258766   6.581  12.579   6.707 -1.7106 -0.8245 -1.5438
51319SOL     OW58767   5.186   4.534   1.126 -0.7012  0.5993  0.3330
51319SOL    HW158768   5.226   4.551   1.211  1.9999  1.4049 -0.9732
51319SOL    HW258769   5.213   4.608   1.072  0.4670 -1.4583 -2.0896
51320SOL     OW58770   9.297   6.987  11.161 -0.7065 -0.2874 -0.4564
51320SOL    HW158771   9.367   6.931  11.127 -0.0263 -0.0286  0.4746
51320SOL    HW258772   9.311   6.988  11.256 -3.3844 -2.1296  0.0603
51321SOL     OW58773   6.644   7.872   6.185  0.0807 -0.2656  0.0852
51321SOL    HW158774   6.627   7.881   6.279  0.1269 -1.0910  0.1877
51321SOL    HW258775   6.588   7.799   6.158 -2.1034  1.7191 -1.1485
51322SOL     OW58776   7.108   2.991   4.021 -0.3814  0.1681  0.2539
51322SOL    HW158777   7.061   3.008   3.940 -0.8822 -2.7770 -0.1913
51322SOL    HW258778   7.184   3.049   4.017 -1.2831  1.3241 -1.4719
51323SOL     OW58779   3.567   8.409   0.411 -0.3253  0.0447 -0.1963
51323SOL    HW158780   3.562   8.489   0.359 -1.9038 -1.2102 -2.1093
51323SOL    HW258781   3.646   8.366   0.380  0.5003  0.7984  0.8013
51324SOL     OW58782   9.212   6.007   0.555  0.4236 -0.5464 -0.0009
51324SOL    HW158783   9.137   5.961   0.592 -0.3176  0.0038 -0.7994
51324SOL    HW258784   9.284   5.944   0.563  0.0615 -0.8161  1.4193
51325SOL     OW58785   3.134  10.358   2.682 -0.7467  0.1627 -0.3497
51325SOL    HW158786   3.143  10.437   2.628  1.3289  1.7082  2.0574
51325SOL    HW258787   3.183  10.291   2.635 -0.1491  1.0771 -1.0621
51326SOL     OW58788  12.437  12.307   5.799 -0.0155 -0.4829 -0.8038
51326SOL    HW158789  12.483  12.390   5.811 -1.4144  0.7071 -2.9104
51326SOL    HW258790  12.453  12.284   5.708 -0.0244 -2.3237 -0.3665
51327SOL     OW58791   8.743   6.546   0.403 -0.4640 -0.0488 -0.8004
51327SOL    HW158792   8.780   6.463   0.374 -1.4646 -0.6583 -0.3767
51327SOL    HW258793   8.785   6.562   0.487  1.9797  1.4159 -2.1604
51328SOL     OW58794  11.962   3.191  11.049 -0.2129 -0.1323 -0.4440
51328SOL    HW158795  11.951   3.183  11.144 -1.5422 -0.1635 -0.5900
51328SOL    HW258796  11.903   3.126  11.012 -1.2314  1.2448 -1.3325
51329SOL     OW58797   0.439   8.698   6.345  0.4872  0.2713  0.0701
51329SOL    HW158798   0.474   8.719   6.258 -0.8342  1.4701 -0.2003
51329SOL    HW258799   0.363   8.643   6.327 -0.8133  1.9215  0.3358
51330SOL     OW58800  11.347   3.976   1.451  0.0965  0.0500 -0.5744
51330SOL    HW158801  11.428   4.024   1.470  0.0394 -0.5024  1.2058
51330SOL    HW258802  11.277   4.036   1.475 -0.0283  0.2385 -1.3799
51331SOL     OW58803   0.189  10.172   3.425  0.5085 -0.1691  0.1871
51331SOL    HW158804   0.280  10.195   3.407  0.6735  0.1681  1.3854
51331SOL    HW258805   0.139  10.248   3.395  0.6624 -0.1406 -0.0021
51332SOL     OW58806   9.407   1.316   1.412  0.1499  0.1555  0.1565
51332SOL    HW158807   9.403   1.238   1.357 -3.1146  0.1824  0.1555
51332SOL    HW258808   9.429   1.283   1.499  2.5684 -0.2078 -0.5103
51333SOL     OW58809   8.797   0.281   0.531 -0.7307 -0.0543  0.1246
51333SOL    HW158810   8.768   0.201   0.573 -0.1898 -0.2570  0.1236
51333SOL    HW258811   8.847   0.252   0.454 -0.9844  0.2936 -0.1782
51334SOL     OW58812   6.569   7.442   6.483  0.2423  0.2680 -0.0099
51334SOL    HW158813   6.540   7.388   6.409 -1.2745  0.2971  0.5316
51334SOL    HW258814   6.504   7.425   6.551 -0.0666  2.5089  0.3078
51335SOL     OW58815  10.596   6.004   0.067 -0.4036  0.3687  0.1102
51335SOL    HW158816  10.633   5.924   0.104 -0.1400  0.2049 -0.4931
51335SOL    HW258817  10.556   6.049   0.141  0.1634  0.0752  0.5975
51336SOL     OW58818  12.589  10.100   6.042 -0.3346  0.5526  0.1449
51336SOL    HW158819  12.543  10.050   6.109  1.3059 -1.2398  0.0101
51336SOL    HW258820  12.520  10.123   5.979 -1.5052  0.3326  1.2945
51337SOL     OW58821   0.315   7.491   3.406  0.4162 -0.2770 -0.0281
51337SOL    HW158822   0.231   7.495   3.451  0.8458  0.0353  0.7577
51337SOL    HW258823   0.294   7.460   3.318 -0.4126 -1.1033  0.4475
51338SOL     OW58824  12.061   3.427   6.674  0.2692  0.2666  0.3981
51338SOL    HW158825  12.024   3.432   6.762 -1.9956  1.0095 -0.5329
51338SOL    HW258826  11.985   3.425   6.616  1.6118 -2.7099 -1.5020
51339SOL     OW58827   3.942  10.433   1.241 -0.3223 -0.2942 -0.0379
51339SOL    HW158828   4.019  10.464   1.288 -0.0901 -2.3816  1.0961
51339SOL    HW258829   3.965  10.440   1.149  0.0886  1.7518  0.1655
51340SOL     OW58830   2.651  10.684  11.091 -0.3032 -0.6949 -0.4144
51340SOL    HW158831   2.737  10.643  11.103  0.3638  0.5658 -0.6960
51340SOL    HW258832   2.666  10.753  11.026 -1.4358 -0.1574 -0.1314
51341SOL     OW58833   7.357   8.291   6.295  0.0261 -0.3514 -0.2850
51341SOL    HW158834   7.382   8.220   6.235  2.3977 -0.3524  0.6296
51341SOL    HW258835   7.275   8.260   6.334 -0.2452 -1.4944 -1.6481
51342SOL     OW58836   3.820   1.344  12.174  0.6502  0.5917  0.0093
51342SOL    HW158837   3.820   1.399  12.253 -1.2709  1.3594 -0.4733
51342SOL    HW258838   3.851   1.402  12.105  2.2591 -0.0623  0.1232
51343SOL     OW58839  12.543   5.338  11.439  0.1688  0.1473  0.2705
51343SOL    HW158840  12.606   5.389  11.388 -0.1889  0.4313  0.1056
51343SOL    HW258841  12.530   5.258  11.388 -0.5577  0.6460 -0.3418
51344SOL     OW58842   4.570   7.713   3.201 -0.5965 -0.6267  0.2777
51344SOL    HW158843   4.528   7.751   3.278  2.1154 -0.5451  1.8278
51344SOL    HW258844   4.562   7.618   3.215 -0.4228 -0.6128  0.4791
51345SOL     OW58845   7.427  11.480   0.330 -0.4904 -0.7342  0.0930
51345SOL    HW158846   7.347  11.524   0.357  0.2956  1.6855 -1.1367
51345SOL    HW258847   7.402  11.430   0.252 -0.9754 -0.7728  0.2716
51346SOL     OW58848   2.252  12.168   4.698 -0.3564 -0.2385 -0.1953
51346SOL    HW158849   2.189  12.240   4.695 -0.0564  0.0268 -0.1121
51346SOL    HW258850   2.324  12.197   4.642  0.1499 -0.1095  0.5108
51347SOL     OW58851   9.806   2.556   6.435 -0.1662 -0.5323 -0.5539
51347SOL    HW158852   9.863   2.632   6.447  2.1940 -2.1756 -0.4723
51347SOL    HW258853   9.823   2.501   6.512 -0.3299 -1.9824 -1.5152
51348SOL     OW58854   9.997  10.339   6.482  0.0261  0.3056 -0.2904
51348SOL    HW158855   9.912  10.304   6.457 -0.7203  1.6444  0.2681
51348SOL    HW258856  10.027  10.282   6.553 -0.0895 -0.5607 -0.9198
51349SOL     OW58857  11.510   0.553   2.681 -0.1795 -0.3460 -0.0485
51349SOL    HW158858  11.518   0.532   2.588 -0.9839 -1.5343  0.1363
51349SOL    HW258859  11.420   0.529   2.704  0.0879 -0.3138  1.1039
51350SOL     OW58860  12.462   7.514   3.453 -0.5273 -0.7254 -0.1918
51350SOL    HW158861  12.371   7.505   3.424 -0.3353  0.0754 -1.1039
51350SOL    HW258862  12.512   7.463   3.388 -0.3389 -1.3755  0.4519
51351SOL     OW58863   2.020   7.016   1.881 -0.2882  0.4475  0.1616
51351SOL    HW158864   1.928   7.016   1.907 -0.7330  0.1722 -1.2745
51351SOL    HW258865   2.018   7.040   1.788  0.8871 -1.6212 -0.4656
51352SOL     OW58866   3.968   1.073   9.786  0.1927  0.5535 -0.0921
51352SOL    HW158867   3.983   1.162   9.754  2.9985  0.3379  0.3787
51352SOL    HW258868   3.959   1.020   9.706 -0.0059  1.0461 -0.3965
51353SOL     OW58869   2.324   8.757   7.053  0.1117 -0.0749 -0.1244
51353SOL    HW158870   2.234   8.755   7.020 -0.3966  0.6955  1.1339
51353SOL    HW258871   2.316   8.733   7.145  1.0673  0.8924  0.2285
51354SOL     OW58872   3.009   4.211   5.046  0.1289 -0.1492 -0.3439
51354SOL    HW158873   3.067   4.191   5.119 -0.8157  0.4980  0.6112
51354SOL    HW258874   2.967   4.294   5.069  2.4340  2.0562 -3.2549
51355SOL     OW58875   5.747   0.656   3.919  0.0973 -0.4005 -0.5696
51355SOL    HW158876   5.830   0.618   3.949 -0.5899 -0.8202  0.8924
51355SOL    HW258877   5.766   0.749   3.908  1.0855 -0.6974 -1.5175
51356SOL     OW58878   0.774   5.053  12.354  0.2134 -0.3329  0.3820
51356SOL    HW158879   0.804   5.098  12.433  0.3627 -3.1494  2.0408
51356SOL    HW258880   0.818   4.969  12.355 -2.0687 -1.6685 -1.0928
51357SOL     OW58881   0.862   1.082   9.108  0.3102 -0.1553  0.5086
51357SOL    HW158882   0.835   1.010   9.165  0.0814 -0.8705 -0.4642
51357SOL    HW258883   0.852   1.047   9.019  1.6540  0.5591  0.0381
51358SOL     OW58884  12.071  10.341   8.587 -0.0107  0.3005 -0.2086
51358SOL    HW158885  12.019  10.419   8.565 -1.2801 -0.1651  0.9619
51358SOL    HW258886  12.054  10.328   8.680  2.3388  0.1789  0.2486
51359SOL     OW58887   7.793   8.407   4.059  0.2239  0.2434 -0.1908
51359SOL    HW158888   7.800   8.497   4.027 -1.1330  1.2167  1.9655
51359SOL    HW258889   7.788   8.416   4.155  1.0462 -2.2216  0.1583
51360SOL     OW58890   3.868  10.551   0.316  0.2440 -0.0217  0.1858
51360SOL    HW158891   3.845  10.517   0.230  0.0085 -0.4741  0.4206
51360SOL    HW258892   3.791  10.534   0.370  0.9148 -1.0727  0.8524
51361SOL     OW58893   1.411   3.119   0.707  0.6556 -0.4068  0.6157
51361SOL    HW158894   1.448   3.158   0.786  1.5791  0.1185 -0.0537
51361SOL    HW258895   1.444   3.174   0.636  0.0593 -1.0302 -0.1613
51362SOL     OW58896   9.601   5.924   8.862 -0.0980  0.0079  0.3013
51362SOL    HW158897   9.654   5.878   8.796 -1.4475  0.4264 -1.1325
51362SOL    HW258898   9.665   5.968   8.917  1.0795  0.2315 -1.1745
51363SOL     OW58899  11.654   7.778   7.204  0.0169  0.3727  0.3088
51363SOL    HW158900  11.747   7.799   7.197 -0.3392  1.8488 -0.3439
51363SOL    HW258901  11.633   7.738   7.120 -0.1888  1.1495 -0.0189
51364SOL     OW58902  10.633   3.541  10.052  0.4095  0.3137 -0.2070
51364SOL    HW158903  10.683   3.504   9.979 -1.1616  0.8571 -1.6135
51364SOL    HW258904  10.573   3.471  10.078  1.0169  0.0912  0.6633
51365SOL     OW58905   7.451   6.722   3.731 -0.6203 -0.4585 -0.1407
51365SOL    HW158906   7.495   6.741   3.813 -1.4139  1.0449 -0.0273
51365SOL    HW258907   7.521   6.724   3.665 -0.2476  0.2246  0.2595
51366SOL     OW58908  10.923   2.617  10.556  0.2645 -0.3301 -0.3369
51366SOL    HW158909  10.861   2.545  10.559 -0.4719  0.2376 -1.2792
51366SOL    HW258910  10.955   2.617  10.465  2.9119 -1.6344  0.4921
51367SOL     OW58911   0.618   4.708   3.285 -0.1726 -0.3897 -0.1696
51367SOL    HW158912   0.562   4.785   3.272 -2.3369 -1.6110  1.2081
51367SOL    HW258913   0.627   4.671   3.197  1.9585  2.0148 -1.0788
51368SOL     OW58914   4.248   4.651   0.505  0.0149  0.0809  0.0775
51368SOL    HW158915   4.228   4.738   0.540 -1.9246  0.2046 -1.1736
51368SOL    HW258916   4.306   4.669   0.430 -0.1337  0.2672  0.0055
51369SOL     OW58917  11.622  10.014   5.042  0.3221  0.3444 -0.2878
51369SOL    HW158918  11.716  10.012   5.026  0.3052 -0.4463 -0.3135
51369SOL    HW258919  11.583  10.015   4.955  0.3063  0.7541 -0.2767
51370SOL     OW58920   1.159   4.342   5.619 -0.0413 -0.2401 -0.0955
51370SOL    HW158921   1.117   4.283   5.683  2.4457 -0.1681  1.7444
51370SOL    HW258922   1.237   4.375   5.664  0.8958  1.2287 -2.5907
51371SOL     OW58923   6.520   6.430   6.174 -0.0126 -0.1056 -0.5915
51371SOL    HW158924   6.555   6.508   6.217 -1.8574  0.6767 -0.3952
51371SOL    HW258925   6.508   6.456   6.083 -1.1174  0.0383 -0.4182
51372SOL     OW58926  10.919  11.606   8.025 -0.0780 -0.3586  0.7290
51372SOL    HW158927  10.891  11.516   8.038  0.6981 -0.4927  1.5684
51372SOL    HW258928  10.894  11.651   8.105  0.0003  0.0571  0.5245
51373SOL     OW58929   2.243   8.296   4.313  0.2448  0.2687 -0.0731
51373SOL    HW158930   2.309   8.281   4.245  1.3165  0.5764  0.8808
51373SOL    HW258931   2.161   8.306   4.264  0.7047 -1.1406 -1.2269
51374SOL     OW58932   9.462  11.098  11.878 -0.4147  0.2211  0.1280
51374SOL    HW158933   9.522  11.096  11.804 -0.1860  1.2677  0.2832
51374SOL    HW258934   9.422  11.011  11.878  0.1241 -0.0369 -0.7721
51375SOL     OW58935   5.628   7.019   1.391  0.3845  0.3912  0.2471
51375SOL    HW158936   5.580   6.938   1.412  0.5130  0.3809  0.4987
51375SOL    HW258937   5.560   7.078   1.358  0.0667  0.6286  1.2791
51376SOL     OW58938   1.912   1.417  12.069 -0.4596  0.0645  0.4542
51376SOL    HW158939   1.947   1.501  12.041 -0.2680  0.2127  1.1069
51376SOL    HW258940   1.893   1.370  11.988 -0.3559  0.6478  0.0875
51377SOL     OW58941   7.737   9.566   5.136 -0.2688 -0.3789 -0.3459
51377SOL    HW158942   7.722   9.636   5.073 -0.4146  0.2639  0.3997
51377SOL    HW258943   7.661   9.568   5.193 -0.0274 -0.8109 -0.0031
51378SOL     OW58944   3.539   5.003   9.728  0.1485 -0.0959 -0.3780
51378SOL    HW158945   3.602   5.059   9.772  2.5014 -3.2324  0.6266
51378SOL    HW258946   3.463   5.001   9.786  0.3742  1.2549 -0.0099
51379SOL     OW58947   5.766   8.920   4.422 -0.6180 -0.0537 -0.3468
51379SOL    HW158948   5.745   8.846   4.365  2.2414  0.6458 -2.5531
51379SOL    HW258949   5.819   8.882   4.492  0.6398 -0.2018 -1.3436
51380SOL     OW58950   8.500   4.797   6.519 -0.1624  0.0768  0.5834
51380SOL    HW158951   8.509   4.708   6.553 -0.6412 -0.0363  0.4165
51380SOL    HW258952   8.529   4.790   6.428  1.1215  0.3784  0.9451
51381SOL     OW58953  12.623   2.006  10.679 -0.0792 -0.3099  0.2925
51381SOL    HW158954  12.657   1.969  10.761  0.4200  1.4681  0.9390
51381SOL    HW258955  12.547   2.058  10.705 -0.3599 -0.3216 -0.4760
51382SOL     OW58956  10.254   3.954   4.977  0.3621  0.3507 -0.1011
51382SOL    HW158957  10.271   3.926   5.067  0.9883 -0.0014 -0.3202
51382SOL    HW258958  10.236   3.873   4.929 -0.2391  0.5636 -0.2370
51383SOL     OW58959   0.007   7.431   6.596  0.1507  0.1393  0.9561
51383SOL    HW158960   0.023   7.366   6.664 -0.6954 -0.9511  0.1519
51383SOL    HW258961  -0.081   7.464   6.614  0.0044 -0.0028  0.5299
51384SOL     OW58962   0.368  11.045   1.392 -0.2002 -0.4727 -0.2122
51384SOL    HW158963   0.416  11.027   1.311  1.0101 -0.0886  0.4158
51384SOL    HW258964   0.360  10.960   1.434  0.0377 -0.5125 -0.2494
51385SOL     OW58965   5.011   8.126   3.560  0.4507  0.0427 -0.1198
51385SOL    HW158966   4.938   8.086   3.606  0.5081  0.7900  0.6443
51385SOL    HW258967   5.087   8.111   3.616  0.7647 -0.1674 -0.5940
51386SOL     OW58968   1.060   6.475   7.169 -0.2638 -0.0062  0.7180
51386SOL    HW158969   1.126   6.415   7.133  0.0649  0.1336  1.0694
51386SOL    HW258970   1.110   6.531   7.229 -0.9613 -1.0067  2.3030
51387SOL     OW58971   0.535   8.874  12.074 -0.0974  0.1491  0.1117
51387SOL    HW158972   0.541   8.818  12.151 -0.4216 -1.7677 -1.1886
51387SOL    HW258973   0.614   8.855  12.024  0.8925  2.5145  0.6243
51388SOL     OW58974   4.684   4.109   3.774 -0.1042 -0.1076 -0.2196
51388SOL    HW158975   4.602   4.116   3.726  0.3028 -2.2909 -1.3677
51388SOL    HW258976   4.746   4.165   3.726 -0.1421 -0.9323 -1.2519
51389SOL     OW58977   6.162   5.575   7.021  0.2508  0.0417  0.1270
51389SOL    HW158978   6.155   5.493   7.071 -1.1793  0.2339  0.2641
51389SOL    HW258979   6.134   5.552   6.933  0.5381  0.2303 -0.0147
51390SOL     OW58980  11.354   2.722  12.243  0.4966 -0.5842 -0.3513
51390SOL    HW158981  11.381   2.637  12.276  0.5122 -0.7597 -0.8075
51390SOL    HW258982  11.259   2.719  12.243  0.4377  0.0812  1.3784
51391SOL     OW58983   1.929   3.118   9.598  0.5964 -0.0322  0.4904
51391SOL    HW158984   1.906   3.040   9.547  0.6439 -0.6568  1.4049
51391SOL    HW258985   1.879   3.109   9.679  0.4194  1.0190  0.5057
51392SOL     OW58986   9.122   1.595   6.174 -0.6090 -0.4285  0.5033
51392SOL    HW158987   9.122   1.509   6.215  0.3883 -0.8632 -0.3429
51392SOL    HW258988   9.174   1.650   6.233  0.7071 -1.0142 -0.0694
51393SOL     OW58989   4.924   1.401   7.080 -0.4578  0.3455 -0.3509
51393SOL    HW158990   4.905   1.396   6.986  2.8360 -5.0653 -1.1584
51393SOL    HW258991   4.871   1.331   7.119  1.2329 -0.2324  1.0260
51394SOL     OW58992   8.789   3.634   6.541  0.6162  0.4158  0.3594
51394SOL    HW158993   8.780   3.542   6.515 -0.7875  0.5778  0.1749
51394SOL    HW258994   8.863   3.666   6.490 -0.4927  0.0559 -1.5874
51395SOL     OW58995   1.758   4.729  12.210  0.1207  0.2081  0.3506
51395SOL    HW158996   1.669   4.696  12.204  0.3436 -0.2581 -0.8021
51395SOL    HW258997   1.752   4.807  12.264 -1.3280  1.2521 -1.2260
51396SOL     OW58998   6.109  11.064   0.499  0.6191 -0.6281  0.0329
51396SOL    HW158999   6.134  11.123   0.570 -1.1303 -1.7967  1.7046
51396SOL    HW259000   6.151  11.102   0.422  0.5718  2.1055  1.2155
51397SOL     OW59001   8.349   7.556   1.456  0.9451  0.5529  0.3739
51397SOL    HW159002   8.287   7.627   1.444 -1.0140 -0.9692  1.0293
51397SOL    HW259003   8.335   7.526   1.545  0.2370 -1.9445 -0.5022
51398SOL     OW59004  12.090   1.291   3.680  0.3424  0.5502 -0.4235
51398SOL    HW159005  12.155   1.241   3.729  0.6972  0.6550 -0.7803
51398SOL    HW259006  12.024   1.227   3.655  0.8099  0.2380 -0.9033
51399SOL     OW59007   8.073  10.696   5.379  0.0452 -0.8385 -0.2785
51399SOL    HW159008   8.144  10.697   5.443  1.7187 -1.5174 -2.0486
51399SOL    HW259009   7.993  10.702   5.432  1.3891 -0.2165  1.7812
51400SOL     OW59010   7.421   3.696   1.137  0.4062  0.6088  0.4298
51400SOL    HW159011   7.398   3.654   1.220 -0.4801  0.4817  0.1323
51400SOL    HW259012   7.403   3.630   1.071 -0.1026  1.1365  0.0311
51401SOL     OW59013  11.334   2.654   1.554  0.1287 -0.2979 -0.4176
51401SOL    HW159014  11.348   2.630   1.462 -1.1895 -1.4820 -0.3372
51401SOL    HW259015  11.243   2.683   1.558 -0.2779 -1.6302  0.7509
51402SOL     OW59016   3.930  11.219  11.265  0.2127  0.2642 -0.0046
51402SOL    HW159017   3.910  11.235  11.357  2.4185  1.9978  0.2688
51402SOL    HW259018   3.951  11.126  11.261 -0.9764 -0.0789  0.9882
51403SOL     OW59019   2.206   8.466  10.066  0.5405  0.1189  0.7715
51403SOL    HW159020   2.132   8.465  10.127 -0.2800 -0.9982 -0.1975
51403SOL    HW259021   2.276   8.420  10.114 -0.3015 -1.3320  0.6754
51404SOL     OW59022  12.063  10.711   6.551 -0.4090  0.2114  0.0222
51404SOL    HW159023  11.994  10.702   6.486 -1.9403 -1.0638  1.7273
51404SOL    HW259024  12.096  10.800   6.539 -1.3770  0.3845 -1.7211
51405SOL     OW59025   7.009   0.221   8.184  0.0087 -0.5171  0.1183
51405SOL    HW159026   7.039   0.180   8.265  0.6715  0.3246  0.3113
51405SOL    HW259027   7.006   0.150   8.120 -2.1433 -1.5722  1.2644
51406SOL     OW59028   0.291   7.916  11.255 -0.6462  0.0980 -0.1783
51406SOL    HW159029   0.313   8.008  11.271 -0.8840  0.4938 -1.8998
51406SOL    HW259030   0.374   7.870  11.257 -0.3035  0.6562 -1.0455
51407SOL     OW59031   4.943   8.779  12.125  0.4985  0.4547  0.1026
51407SOL    HW159032   4.914   8.688  12.118 -2.2204  1.2999 -1.8398
51407SOL    HW259033   4.905   8.811  12.207 -0.8249  0.4686 -0.4864
51408SOL     OW59034   0.595   6.456   8.710  0.2627 -0.5128  0.2229
51408SOL    HW159035   0.625   6.547   8.706  0.2974 -0.5550 -2.3200
51408SOL    HW259036   0.653   6.409   8.650 -0.7169 -1.9226  0.3237
51409SOL     OW59037   7.564   1.650   2.982  0.4082 -0.1849 -0.1015
51409SOL    HW159038   7.478   1.673   2.946  1.0570  1.3563 -0.7609
51409SOL    HW259039   7.545   1.613   3.068 -0.8545  1.2779  0.2805
51410SOL     OW59040   1.083   5.520  12.117  0.0809 -0.0564  0.3241
51410SOL    HW159041   1.078   5.540  12.023  1.0846  0.9361  0.4606
51410SOL    HW259042   1.003   5.556  12.154 -0.8291 -1.3683 -0.2801
51411SOL     OW59043   7.856  10.894   4.463 -0.9203  0.1016  0.0545
51411SOL    HW159044   7.790  10.939   4.516 -0.8167  1.0587 -0.6103
51411SOL    HW259045   7.938  10.941   4.481 -1.0896  1.2378 -1.8199
51412SOL     OW59046   8.095  12.466   0.012  0.3719 -0.1501 -0.3870
51412SOL    HW159047   8.173  12.445   0.064  1.4495  0.5940 -1.6267
51412SOL    HW259048   8.025  12.415   0.052  1.3683 -0.4067  1.1290
51413SOL     OW59049   1.666   2.586  10.262 -0.5166 -0.0217  0.3497
51413SOL    HW159050   1.576   2.618  10.270 -0.0102  2.0106 -1.1000
51413SOL    HW259051   1.717   2.646  10.318  0.1751  0.2095 -0.5104
51414SOL     OW59052   8.065   7.567  11.153  0.5129  0.6370  0.2858
51414SOL    HW159053   7.983   7.552  11.107  2.6359 -2.1281 -3.1694
51414SOL    HW259054   8.062   7.508  11.227 -0.2776 -0.1114 -0.3234
51415SOL     OW59055   7.678  12.584   6.399  0.1203  0.0529  0.4170
51415SOL    HW159056   7.658  12.562   6.308 -1.8399 -0.5255  0.9354
51415SOL    HW259057   7.735  12.661   6.393  0.1233 -0.0371 -1.2863
51416SOL     OW59058  12.468   0.096   6.045  0.6516  0.4022 -0.5559
51416SOL    HW159059  12.432   0.131   5.963  0.9992 -0.1963 -0.9763
51416SOL    HW259060  12.395   0.100   6.107  0.6064  1.5844 -0.6673
51417SOL     OW59061   4.613   2.167   9.534 -0.0639  0.9859  0.2827
51417SOL    HW159062   4.672   2.201   9.602  0.6536  1.5963 -0.6340
51417SOL    HW259063   4.668   2.110   9.481 -0.4251  1.1544 -0.2716
51418SOL     OW59064   3.061  10.669   0.039  0.8377 -0.0857  0.6139
51418SOL    HW159065   3.077  10.731   0.110  0.9515 -0.1469  0.6416
51418SOL    HW259066   3.146  10.659  -0.004  0.0434  2.9529 -1.9897
51419SOL     OW59067   6.830   8.032   5.671  0.3446 -0.1576 -0.1446
51419SOL    HW159068   6.829   8.090   5.595  1.6526 -1.8053 -1.5099
51419SOL    HW259069   6.766   8.069   5.731 -1.8199  0.4512 -2.6514
51420SOL     OW59070   8.692  10.322  11.503  0.3916  0.2440  0.0767
51420SOL    HW159071   8.636  10.290  11.432 -0.5070  1.7010  0.1084
51420SOL    HW259072   8.768  10.263  11.501  0.6050  0.4880 -2.3969
51421SOL     OW59073   8.356  10.350  12.233  0.0044 -0.3611 -0.0819
51421SOL    HW159074   8.325  10.297  12.306  1.0421  1.7851  2.0348
51421SOL    HW259075   8.451  10.357  12.246 -0.0277  1.6036 -0.5231
51422SOL     OW59076  11.787   3.918   2.082 -0.3397  0.1299  0.2271
51422SOL    HW159077  11.826   4.006   2.076 -0.1937  0.0647  0.2201
51422SOL    HW259078  11.852   3.860   2.042 -0.5808  0.0629 -0.0788
51423SOL     OW59079  11.010  11.251   8.426  0.0540 -0.2300  0.3432
51423SOL    HW159080  10.942  11.298   8.474 -1.5655 -0.4319 -1.6304
51423SOL    HW259081  11.092  11.292   8.454 -0.9451  0.7704  1.9545
51424SOL     OW59082  10.673   8.123   2.579  0.7250 -0.1544  0.1721
51424SOL    HW159083  10.661   8.070   2.500 -1.7883  0.1372  0.2638
51424SOL    HW259084  10.593   8.175   2.585  2.1241  2.0035  1.3450
51425SOL     OW59085   3.171   8.298   9.956  0.3344  0.3528 -0.2008
51425SOL    HW159086   3.252   8.282   9.908  1.8593  0.8990  2.0260
51425SOL    HW259087   3.181   8.247  10.037 -1.4141  0.6918  0.2750
51426SOL     OW59088   3.795   2.017   6.362 -0.5278 -0.1474  0.0975
51426SOL    HW159089   3.878   2.037   6.405 -1.6148 -0.8648  2.7954
51426SOL    HW259090   3.747   1.965   6.427 -1.9883 -2.2147 -2.4452
51427SOL     OW59091   9.180   8.801   7.121 -0.0220  0.1469 -0.1584
51427SOL    HW159092   9.125   8.727   7.148 -0.1495  0.3277  0.0799
51427SOL    HW259093   9.138   8.835   7.042 -0.8313  0.9068  0.5772
51428SOL     OW59094   7.936   6.121  10.278 -0.0354 -0.0707 -0.3048
51428SOL    HW159095   8.003   6.089  10.338 -0.3200  0.7634  0.4781
51428SOL    HW259096   7.985   6.161  10.206  0.3644  1.6119  0.8323
51429SOL     OW59097   1.452   3.608  11.134 -0.0400 -0.5281  0.3892
51429SOL    HW159098   1.445   3.556  11.215  1.6666 -0.9740  0.3000
51429SOL    HW259099   1.362   3.614  11.102 -0.3845 -3.3021  0.5179
51430SOL     OW59100   5.602  10.858  11.899 -0.7711  0.4517 -0.4785
51430SOL    HW159101   5.573  10.773  11.931 -0.2712  0.1536 -0.8133
51430SOL    HW259102   5.683  10.840  11.852  1.0133  1.4900  1.9715
51431SOL     OW59103   9.707  10.401   4.126  0.2929 -0.0843 -0.3139
51431SOL    HW159104   9.698  10.306   4.129  1.3854 -0.1938 -0.1793
51431SOL    HW259105   9.754  10.419   4.044 -0.4641  0.3915 -0.6556
51432SOL     OW59106  12.409   7.936   0.893  0.3303 -0.0583 -0.8915
51432SOL    HW159107  12.486   7.991   0.882  0.1570 -0.0339 -2.0958
51432SOL    HW259108  12.419   7.867   0.828  0.4007 -1.3170  0.4035
51433SOL     OW59109   4.427  11.802   4.367  0.4235 -0.0059  0.0198
51433SOL    HW159110   4.469  11.774   4.448  0.6251  0.2443  0.0023
51433SOL    HW259111   4.401  11.720   4.324  0.0240 -0.1335  0.4871
51434SOL     OW59112   6.675  12.151  10.039  0.0648  0.1195 -0.3111
51434SOL    HW159113   6.745  12.124  10.099  1.4242 -0.0498 -1.9083
51434SOL    HW259114   6.656  12.072   9.988 -0.4209  0.5087 -0.7411
51435SOL     OW59115   6.427   5.526   4.343  0.0659 -0.1396  0.1482
51435SOL    HW159116   6.358   5.470   4.308  0.3186 -0.7757  0.6488
51435SOL    HW259117   6.392   5.615   4.335 -0.1953 -0.3352 -0.9749
51436SOL     OW59118  11.027   9.166   6.082  0.2900 -0.2275  0.6171
51436SOL    HW159119  11.016   9.080   6.123  0.5488 -0.6615 -0.2107
51436SOL    HW259120  11.116   9.192   6.103  0.9452 -1.1321 -0.9109
51437SOL     OW59121   5.894  10.614   1.612 -0.1025 -0.1920  0.4550
51437SOL    HW159122   5.942  10.696   1.606  1.4705 -0.9188  1.9820
51437SOL    HW259123   5.959  10.551   1.643 -1.2914 -1.9920 -0.5663
51438SOL     OW59124   7.516   9.065  11.950  0.1546 -0.2266 -0.4944
51438SOL    HW159125   7.593   9.032  11.903  1.1950 -0.1468  1.0846
51438SOL    HW259126   7.452   8.994  11.942  1.7129 -1.9715  1.2745
51439SOL     OW59127   3.972   1.437   9.364 -0.0832  0.2131 -0.4102
51439SOL    HW159128   3.896   1.452   9.419  0.2300  1.1809 -0.2198
51439SOL    HW259129   4.028   1.378   9.414  0.6267  1.8090  0.7433
51440SOL     OW59130  12.191   3.126   8.008 -0.1212 -0.0615 -0.6972
51440SOL    HW159131  12.157   3.045   7.968 -0.9325 -0.6424  1.0562
51440SOL    HW259132  12.273   3.100   8.050  0.7530  0.5555 -1.9649
51441SOL     OW59133   0.065   6.359   4.359 -0.1721  0.1559  0.5450
51441SOL    HW159134   0.069   6.267   4.332  1.7581  0.0514  1.0709
51441SOL    HW259135   0.052   6.355   4.454  0.1731  0.4124  0.6056
51442SOL     OW59136  10.495   2.147   2.849 -0.0752  0.3064  0.1697
51442SOL    HW159137  10.581   2.184   2.869 -0.4008  0.2992  1.7066
51442SOL    HW259138  10.467   2.106   2.930  0.1914 -3.2678 -1.3523
51443SOL     OW59139   7.998   5.164  12.575 -0.5231 -0.2830 -0.1700
51443SOL    HW159140   7.979   5.198  12.488  1.3815 -1.2564 -1.0297
51443SOL    HW259141   8.075   5.109  12.563 -0.2055 -0.4554  2.1403
51444SOL     OW59142   0.460   7.182   5.941  0.5450 -0.5805 -0.2938
51444SOL    HW159143   0.391   7.242   5.971  1.0088 -0.2910  0.2154
51444SOL    HW259144   0.507   7.232   5.874  0.9141 -0.3871  0.1102
51445SOL     OW59145   2.923   4.361   1.922  0.2324 -0.9043  0.2120
51445SOL    HW159146   2.904   4.278   1.877  1.0548 -0.8636 -0.2408
51445SOL    HW259147   2.998   4.397   1.873 -1.0185  0.8203 -0.5111
51446SOL     OW59148   9.315   2.353   9.614  0.4031 -0.5573 -0.5299
51446SOL    HW159149   9.226   2.324   9.634  0.7333 -0.0513  2.0350
51446SOL    HW259150   9.305   2.408   9.536 -1.4747 -0.7770 -0.4902
51447SOL     OW59151  10.400  11.411   2.625 -0.1936 -0.1919 -0.8237
51447SOL    HW159152  10.449  11.428   2.544  0.9339  1.4364  0.1525
51447SOL    HW259153  10.310  11.395   2.596  0.2115  0.2589 -2.4053
51448SOL     OW59154   5.194   3.015  10.774 -0.7936 -0.0395 -0.0862
51448SOL    HW159155   5.184   3.022  10.679  1.8616  1.3511 -0.3466
51448SOL    HW259156   5.121   3.066  10.809 -2.1513 -1.0504 -1.3013
51449SOL     OW59157  12.282   6.400  11.640 -0.3391  0.0203  0.6397
51449SOL    HW159158  12.223   6.404  11.715 -1.1350 -0.1215  0.0354
51449SOL    HW259159  12.327   6.484  11.639 -1.2884  0.5289  0.4995
51450SOL     OW59160   9.657   8.438   8.966  0.5220 -0.1916  0.5699
51450SOL    HW159161   9.732   8.387   8.997 -0.1863 -3.2717 -2.1783
51450SOL    HW259162   9.670   8.448   8.872 -1.7521  0.5059  0.2475
51451SOL     OW59163  12.132  11.252   7.325  0.2886  0.6574 -0.0340
51451SOL    HW159164  12.162  11.176   7.374  0.3532 -0.5038 -1.7839
51451SOL    HW259165  12.074  11.216   7.258 -0.1550  2.2196 -0.5274
51452SOL     OW59166  12.213   2.082  10.571 -0.0729 -0.5721  0.0415
51452SOL    HW159167  12.126   2.096  10.532 -0.7335  3.2916  2.4262
51452SOL    HW259168  12.196   2.077  10.665  2.2691  0.0962  0.5500
51453SOL     OW59169   7.355   8.351   4.263  0.1015 -0.2581 -0.1017
51453SOL    HW159170   7.413   8.301   4.206 -0.9997 -0.8039 -0.7732
51453SOL    HW259171   7.268   8.314   4.247 -0.5531  1.0630  0.2902
51454SOL     OW59172  10.835   7.902   6.219 -0.3623  0.7572 -0.0480
51454SOL    HW159173  10.829   7.961   6.294 -0.8662  0.7324 -0.0618
51454SOL    HW259174  10.772   7.832   6.239  1.7976 -0.9764  1.0141
51455SOL     OW59175   6.142   6.304   3.985 -0.5213 -0.5596  0.0146
51455SOL    HW159176   6.192   6.233   3.945  2.8652  0.9064  1.2730
51455SOL    HW259177   6.110   6.355   3.910  0.1601 -1.3670 -0.8624
51456SOL     OW59178   3.542   3.609  12.118  0.2916 -0.0151 -0.7040
51456SOL    HW159179   3.550   3.674  12.188 -1.6859 -0.3189 -0.1359
51456SOL    HW259180   3.628   3.568  12.113  1.2787  1.9257 -0.3772
51457SOL     OW59181   2.590   6.592   1.090 -0.4090  0.6594  0.0354
51457SOL    HW159182   2.677   6.629   1.078  0.4072 -1.2624 -0.4481
51457SOL    HW259183   2.534   6.666   1.111  1.0914  2.1149 -0.9163
51458SOL     OW59184   5.498   0.910   5.861 -1.3748 -0.2664  0.6866
51458SOL    HW159185   5.433   0.841   5.847 -0.1329 -1.3208 -0.1261
51458SOL    HW259186   5.575   0.864   5.893 -0.8453  0.8906  1.1184
51459SOL     OW59187   3.832   9.772   7.217  0.1775 -0.5890  0.1816
51459SOL    HW159188   3.855   9.861   7.191  0.0201 -0.9027 -1.1061
51459SOL    HW259189   3.899   9.717   7.177 -0.5828 -1.1745 -0.3022
51460SOL     OW59190   4.365   4.219  10.283  0.0326  0.3041  0.5180
51460SOL    HW159191   4.305   4.261  10.346 -0.0104  0.5907  0.2838
51460SOL    HW259192   4.343   4.258  10.199  1.2335  1.1541  0.5719
51461SOL     OW59193   3.127   4.487   0.738  0.1612  0.5898  0.0228
51461SOL    HW159194   3.142   4.395   0.717  0.7295  0.6763  0.0265
51461SOL    HW259195   3.156   4.534   0.660 -3.2670  0.6177 -1.3800
51462SOL     OW59196   7.549   7.797   6.377  0.0315 -0.0488  0.0669
51462SOL    HW159197   7.615   7.802   6.308  0.9827 -1.3310  0.8335
51462SOL    HW259198   7.595   7.760   6.452 -1.5126 -0.8219  0.6889
51463SOL     OW59199   1.382   0.024   5.514 -0.6457  0.2474  0.2680
51463SOL    HW159200   1.475   0.039   5.499 -0.0238 -3.2875 -0.0687
51463SOL    HW259201   1.350  -0.011   5.430 -2.8720  3.2702 -0.3415
51464SOL     OW59202  11.237   6.313  11.091 -0.6169 -0.3494 -0.4677
51464SOL    HW159203  11.199   6.347  11.172  1.7658  2.2776 -0.2996
51464SOL    HW259204  11.288   6.236  11.119 -4.0417 -2.8650 -0.4559
51465SOL     OW59205   8.838   3.515   2.613  0.1898  0.5603  0.0864
51465SOL    HW159206   8.805   3.568   2.541  0.8753 -0.4922 -1.0259
51465SOL    HW259207   8.797   3.430   2.602  1.0113  0.1103  0.3858
51466SOL     OW59208   2.282   6.333  11.390  0.5242  0.0196 -0.1285
51466SOL    HW159209   2.319   6.315  11.477  2.1381  0.6201 -0.6685
51466SOL    HW259210   2.265   6.427  11.391  1.5642  0.2263 -0.8242
51467SOL     OW59211   2.308   5.662   8.737  0.3573 -0.0896  0.1430
51467SOL    HW159212   2.214   5.669   8.721  0.3858 -2.4093 -1.6062
51467SOL    HW259213   2.333   5.747   8.771 -1.8763  1.5497 -1.9679
51468SOL     OW59214  11.776   0.170   7.527 -0.0493  0.4717  0.2940
51468SOL    HW159215  11.731   0.254   7.534 -0.6893  0.0555  1.5169
51468SOL    HW259216  11.869   0.192   7.533 -0.1945  1.1309  0.1455
51469SOL     OW59217  11.307   0.423   2.116 -0.2348 -0.2156 -0.3534
51469SOL    HW159218  11.331   0.361   2.047  2.4114  0.9054 -0.5774
51469SOL    HW259219  11.330   0.377   2.198 -0.4597 -0.3997 -0.3942
51470SOL     OW59220   6.392   0.580   8.533 -0.1401  0.3127 -0.2105
51470SOL    HW159221   6.411   0.487   8.551  1.5763  0.8954  1.3240
51470SOL    HW259222   6.303   0.580   8.498 -0.0475 -1.9482 -0.6103
51471SOL     OW59223   9.113  11.902   9.646 -0.3049 -0.5383 -0.2959
51471SOL    HW159224   9.164  11.821   9.644  0.0808 -0.3063  0.0397
51471SOL    HW259225   9.036  11.881   9.699 -0.1924 -0.6757 -0.1850
51472SOL     OW59226   8.461  10.655   1.933 -0.3800 -0.5444  0.2571
51472SOL    HW159227   8.515  10.625   2.007  0.6085 -0.6454 -0.4810
51472SOL    HW259228   8.520  10.651   1.858 -0.7752  1.4949 -0.2066
51473SOL     OW59229   2.672   5.242   0.459  0.3736 -0.2677  0.7031
51473SOL    HW159230   2.670   5.211   0.368 -0.2269 -0.0447  0.6310
51473SOL    HW259231   2.749   5.201   0.497  0.1844 -1.0007  0.3139
51474SOL     OW59232   5.804   6.492   9.065  0.8517 -0.0016 -0.5459
51474SOL    HW159233   5.767   6.503   9.153  0.4526  0.5699 -0.7764
51474SOL    HW259234   5.756   6.418   9.028 -1.1620  1.5978 -1.3721
51475SOL     OW59235   2.649   6.401  11.564 -0.9534 -0.2121  0.0714
51475SOL    HW159236   2.701   6.408  11.484  1.8108 -1.1283  1.6562
51475SOL    HW259237   2.634   6.306  11.574 -2.4206 -0.0158  0.0213
51476SOL     OW59238   6.512   8.509   8.596  0.0636  0.3790  0.3372
51476SOL    HW159239   6.552   8.427   8.568  1.1536  0.5808  1.2449
51476SOL    HW259240   6.484   8.551   8.514  0.1205 -0.5710 -0.1833
51477SOL     OW59241   8.847   2.222   1.643 -0.0465  0.1087  0.7119
51477SOL    HW159242   8.907   2.234   1.717  3.8126  2.2196 -2.3765
51477SOL    HW259243   8.777   2.285   1.659  0.5770  0.3850  2.6195
51478SOL     OW59244   9.127   7.837   7.043  0.5515  0.2385  0.3417
51478SOL    HW159245   9.148   7.819   7.134  0.2079 -1.4756  0.1085
51478SOL    HW259246   9.100   7.929   7.042  1.6520  0.6041  1.7546
51479SOL     OW59247   2.558  11.980   7.520  0.1255  0.0811  0.4856
51479SOL    HW159248   2.488  12.019   7.573 -0.7729  0.6571 -1.0695
51479SOL    HW259249   2.638  12.022   7.552 -0.4588  0.8482  0.9904
51480SOL     OW59250   7.810   7.258   7.146 -0.3407  0.3575 -0.1101
51480SOL    HW159251   7.735   7.316   7.135 -0.2761  0.3725 -0.4704
51480SOL    HW259252   7.853   7.289   7.226 -0.9451  0.0950  0.3230
51481SOL     OW59253   3.646   2.213   9.131  0.2205 -0.6271  0.6341
51481SOL    HW159254   3.678   2.128   9.101 -1.9592 -1.3423  0.2099
51481SOL    HW259255   3.688   2.226   9.216  0.9427 -1.8947  0.4854
51482SOL     OW59256  11.379   3.775  11.950 -0.2685 -0.0548  0.1346
51482SOL    HW159257  11.321   3.814  11.885 -1.8006  0.0257  1.4759
51482SOL    HW259258  11.377   3.681  11.932  0.0810  0.0521 -0.4949
51483SOL     OW59259   9.879   4.405   8.655 -0.3934 -0.1174 -0.5346
51483SOL    HW159260   9.950   4.407   8.719 -2.2074 -0.2268  1.5841
51483SOL    HW259261   9.908   4.465   8.586  1.4228  0.3906  0.5983
51484SOL     OW59262  11.371   1.770   2.042 -0.0474  0.4187 -0.1771
51484SOL    HW159263  11.320   1.744   1.965 -0.8410  0.2077  0.4138
51484SOL    HW259264  11.306   1.781   2.111  0.7787 -0.6198  0.7991
51485SOL     OW59265   5.081   5.238   9.368  0.0727 -0.1721  0.0076
51485SOL    HW159266   5.029   5.158   9.357 -0.6590  0.4293 -1.1789
51485SOL    HW259267   5.090   5.249   9.462 -0.8326 -1.0128  0.2041
51486SOL     OW59268   4.543  10.358   7.564  0.1704 -0.2534  0.0462
51486SOL    HW159269   4.568  10.266   7.574  1.2716  0.1191  1.0208
51486SOL    HW259270   4.556  10.377   7.471 -1.3448 -1.4117 -0.4378
51487SOL     OW59271  10.989  12.550   4.941  0.0799 -0.3928  0.0340
51487SOL    HW159272  11.083  12.565   4.950  0.2543 -0.2519 -1.6857
51487SOL    HW259273  10.950  12.637   4.947  0.1165 -0.3786  0.0648
51488SOL     OW59274  10.765   1.245   6.697  0.1597 -0.0924 -0.3073
51488SOL    HW159275  10.785   1.297   6.775  1.3815  1.5570 -1.6451
51488SOL    HW259276  10.799   1.158   6.717  0.4007  0.2859  1.0140
51489SOL     OW59277   0.643   3.248   8.360 -0.3965 -0.3629  0.5966
51489SOL    HW159278   0.601   3.270   8.443 -0.7564  1.9848 -0.1491
51489SOL    HW259279   0.729   3.291   8.364 -0.1572 -0.7631 -0.0000
51490SOL     OW59280  10.166   9.969   9.048 -0.1777 -0.4617 -0.2082
51490SOL    HW159281  10.087  10.004   9.006 -0.2168 -0.2787  0.0195
51490SOL    HW259282  10.182  10.028   9.122  1.3795  0.7559 -1.4483
51491SOL     OW59283   6.485   1.872   7.833  0.3078 -0.0038 -0.4100
51491SOL    HW159284   6.521   1.945   7.783  0.7862  0.3667  0.4413
51491SOL    HW259285   6.395   1.865   7.803 -0.4992  2.4698  1.0551
51492SOL     OW59286   4.289   1.154   1.371  0.1069  0.0591  0.0829
51492SOL    HW159287   4.274   1.078   1.315 -1.4982  1.2214 -1.1547
51492SOL    HW259288   4.221   1.148   1.438 -1.1433  1.2771 -1.0309
51493SOL     OW59289   3.488   0.605   6.399  0.0480  0.9527 -0.1265
51493SOL    HW159290   3.394   0.621   6.395  0.0432  1.7791  2.0487
51493SOL    HW259291   3.504   0.572   6.488  1.5550 -1.1594 -1.0974
51494SOL     OW59292   2.979   0.472  11.046 -0.3509 -0.5104  0.0386
51494SOL    HW159293   2.903   0.527  11.026  0.0089 -0.7034 -2.2065
51494SOL    HW259294   2.998   0.488  11.138 -0.3091  3.0648 -0.4657
51495SOL     OW59295   9.859  12.175   1.405 -0.0052  0.0811 -0.0815
51495SOL    HW159296   9.807  12.160   1.484 -2.1855  1.4320 -1.1762
51495SOL    HW259297   9.875  12.087   1.371  0.7214 -0.5041  1.6665
51496SOL     OW59298   8.903   4.970   0.642 -0.6957 -0.1284 -0.1346
51496SOL    HW159299   8.998   4.973   0.658 -0.9532  1.3978  1.4994
51496SOL    HW259300   8.894   4.927   0.557  1.2679 -3.0155  0.9782
51497SOL     OW59301  10.733   9.294   3.146 -0.8301  0.4745  0.4251
51497SOL    HW159302  10.638   9.286   3.146 -0.7160 -1.6232  1.1353
51497SOL    HW259303  10.760   9.262   3.059 -0.7490  0.7345  0.3531
51498SOL     OW59304  10.657   0.349   6.263 -0.0591  0.5493 -0.3786
51498SOL    HW159305  10.713   0.347   6.341 -0.1175  1.7917 -0.2820
51498SOL    HW259306  10.663   0.439   6.232 -1.0212  0.3791 -1.0977
51499SOL     OW59307  12.130   3.895   3.859  0.0933 -0.9763  0.2857
51499SOL    HW159308  12.211   3.870   3.903  1.4562  1.8801 -0.3015
51499SOL    HW259309  12.100   3.972   3.908 -0.7868 -0.4080 -1.0982
51500SOL     OW59310   8.218   9.288   5.923  0.1088 -0.5990  0.4158
51500SOL    HW159311   8.138   9.260   5.968 -0.5483 -0.4270 -0.6119
51500SOL    HW259312   8.190   9.358   5.865  0.8605 -1.0685 -0.5463
51501SOL     OW59313   3.416   1.327  11.145  0.4061  0.1306 -0.6464
51501SOL    HW159314   3.364   1.392  11.192  3.3468  2.1031  0.1628
51501SOL    HW259315   3.383   1.243  11.177 -0.3906  1.3293  1.9632
51502SOL     OW59316   0.296   5.512  11.883 -0.2420 -0.1248  0.0893
51502SOL    HW159317   0.358   5.508  11.955  1.5037 -0.4503 -1.3381
51502SOL    HW259318   0.244   5.432  11.891  0.0508 -0.2367  0.8861
51503SOL     OW59319   3.537   1.409   8.064 -0.4628  0.5668 -0.0306
51503SOL    HW159320   3.466   1.372   8.116 -0.5788  0.1047 -0.5027
51503SOL    HW259321   3.499   1.418   7.976  0.3056 -0.4808 -0.4941
51504SOL     OW59322   7.676   8.501   0.478 -0.3804  0.0533  0.2323
51504SOL    HW159323   7.583   8.478   0.483 -0.0002 -1.4241  1.2103
51504SOL    HW259324   7.708   8.458   0.399 -0.2137 -0.7452  0.7218
51505SOL     OW59325   0.775   7.421   1.974  0.3724  0.1505  0.1786
51505SOL    HW159326   0.794   7.471   2.053  2.0708 -0.1967  0.0269
51505SOL    HW259327   0.741   7.485   1.912  0.3520  0.6780  0.7229
51506SOL     OW59328   5.201   7.362  11.167 -0.0093 -0.0351 -0.2693
51506SOL    HW159329   5.228   7.428  11.103 -1.4810  1.2548  0.3848
51506SOL    HW259330   5.144   7.408  11.228  1.3093 -1.2098  2.0186
51507SOL     OW59331   6.526   0.989   8.537  0.2095 -0.0463 -0.0329
51507SOL    HW159332   6.556   0.944   8.458 -1.2845 -0.9375 -0.1259
51507SOL    HW259333   6.604   0.996   8.592  1.1219 -0.0267 -1.2970
51508SOL     OW59334   6.884   4.048   6.802 -0.1875 -0.2032  0.5413
51508SOL    HW159335   6.928   4.068   6.719 -0.6445  0.3345  0.4270
51508SOL    HW259336   6.935   3.975   6.839 -1.7492 -2.5916 -1.6751
51509SOL     OW59337   6.452   1.428   2.880 -0.7466  0.2007  0.0251
51509SOL    HW159338   6.435   1.414   2.787 -1.8796 -2.1271  0.4973
51509SOL    HW259339   6.535   1.382   2.896 -0.7400  0.2875  0.2331
51510SOL     OW59340   4.755   7.353   8.648 -0.7432  0.1234  0.2496
51510SOL    HW159341   4.745   7.285   8.581 -0.0933 -0.6288  0.8948
51510SOL    HW259342   4.762   7.304   8.731 -2.2300  1.0528  0.9617
51511SOL     OW59343  10.113   1.804   0.868 -0.0420 -0.4696  0.0800
51511SOL    HW159344  10.141   1.883   0.914 -1.0636 -0.3246  0.4791
51511SOL    HW259345  10.154   1.810   0.782  0.2465  0.2730  0.2660
51512SOL     OW59346   5.121   4.760   4.736  0.4423 -0.1373 -0.0078
51512SOL    HW159347   5.063   4.833   4.760 -0.4625 -0.6935 -0.4633
51512SOL    HW259348   5.130   4.710   4.817  1.1932  0.5500  0.3492
51513SOL     OW59349   2.344   1.537   7.060  0.0558  0.5246  0.1655
51513SOL    HW159350   2.392   1.577   7.132  0.7179 -0.0657  0.0728
51513SOL    HW259351   2.411   1.519   6.993 -0.8497  3.1152 -1.5893
51514SOL     OW59352   7.983   9.789   7.244  0.2797  0.0280 -1.1080
51514SOL    HW159353   7.959   9.704   7.280  0.4152  0.6331  0.4863
51514SOL    HW259354   8.078   9.783   7.230  1.1904  1.2615  3.1776
51515SOL     OW59355  11.856  10.746   9.115  0.1700 -0.3592 -0.2993
51515SOL    HW159356  11.921  10.675   9.119 -0.3740 -0.8377  1.0422
51515SOL    HW259357  11.817  10.746   9.203  0.2162  1.6808 -0.2404
51516SOL     OW59358   2.825  10.145   1.106 -0.1344 -0.4829  0.3008
51516SOL    HW159359   2.740  10.136   1.062 -0.0156  2.9146 -0.9408
51516SOL    HW259360   2.889  10.139   1.035  0.2193  2.4185  0.2343
51517SOL     OW59361   2.418   4.413   8.092 -0.2243  0.0806 -0.0496
51517SOL    HW159362   2.450   4.409   8.002  0.8896 -1.5810  0.3744
51517SOL    HW259363   2.448   4.332   8.132 -2.6024 -0.2750  1.2238
51518SOL     OW59364   1.180   2.512   3.535 -0.6203  0.0224 -0.5921
51518SOL    HW159365   1.095   2.542   3.505 -1.5739 -2.2513 -0.3885
51518SOL    HW259366   1.178   2.417   3.522  1.5092 -0.2201  0.3496
51519SOL     OW59367   8.458  10.860   2.955 -0.0029  0.0306 -0.2482
51519SOL    HW159368   8.548  10.838   2.931  0.0104  0.6018 -0.7308
51519SOL    HW259369   8.463  10.887   3.046 -0.0042 -1.8537  0.3535
51520SOL     OW59370   2.783  10.300  11.319 -0.2204 -0.2230 -0.5097
51520SOL    HW159371   2.792  10.366  11.250 -0.8755  0.3031 -0.1025
51520SOL    HW259372   2.689  10.296  11.337 -0.0864 -0.5298  0.1794
51521SOL     OW59373   6.304   8.907   5.856  0.1868  0.2830  0.1867
51521SOL    HW159374   6.341   8.973   5.798  3.0379 -0.7419  0.6797
51521SOL    HW259375   6.253   8.850   5.798 -0.8802  1.8686 -0.5026
51522SOL     OW59376   2.313   4.512   2.598 -0.1109 -0.6070  0.3452
51522SOL    HW159377   2.254   4.456   2.648 -0.2674 -1.6626 -0.9608
51522SOL    HW259378   2.391   4.459   2.585  0.0257 -0.2626 -0.3002
51523SOL     OW59379  12.334   5.107   8.612 -0.5891 -0.9535  0.0197
51523SOL    HW159380  12.367   5.022   8.640  0.2517 -0.8515 -0.6449
51523SOL    HW259381  12.409   5.166   8.619 -0.9863 -0.4164 -0.1756
51524SOL     OW59382   8.981   9.934   6.567  0.7216 -0.0562  0.1094
51524SOL    HW159383   9.003  10.023   6.541  2.7282 -0.5679 -0.1179
51524SOL    HW259384   8.907   9.910   6.510  2.2581  0.3483 -2.1923
51525SOL     OW59385   7.382   7.100   3.716 -0.5915 -0.1931  0.8208
51525SOL    HW159386   7.426   7.185   3.709  1.3119 -1.1537  0.2687
51525SOL    HW259387   7.436   7.051   3.778  0.6866 -2.2934 -1.7839
51526SOL     OW59388  11.790   8.090   7.440 -0.6563  0.3327 -0.5143
51526SOL    HW159389  11.739   8.010   7.453  0.3521 -0.1353  0.7989
51526SOL    HW259390  11.726   8.161   7.450 -1.4500 -0.2829 -1.0802
51527SOL     OW59391   2.154   9.715   9.112  0.4638  0.6314 -0.5793
51527SOL    HW159392   2.226   9.721   9.174  0.2300 -0.7773 -0.1221
51527SOL    HW259393   2.128   9.622   9.114  0.0778  0.6490 -2.3532
51528SOL     OW59394   7.110   9.350   7.061  0.0719 -0.0130 -0.0064
51528SOL    HW159395   7.201   9.335   7.087  0.4144  0.6501 -0.7781
51528SOL    HW259396   7.107   9.328   6.968 -0.0998  1.7416 -0.4477
51529SOL     OW59397  12.175   6.525   4.797  0.0798  0.0166  0.1483
51529SOL    HW159398  12.129   6.602   4.764 -1.2025 -1.0597 -0.6633
51529SOL    HW259399  12.262   6.529   4.756 -0.1678  0.7375 -0.3159
51530SOL     OW59400  10.680  10.575  11.610  0.0295 -0.6192 -0.3670
51530SOL    HW159401  10.764  10.566  11.564 -0.0268 -1.4249 -0.3373
51530SOL    HW259402  10.620  10.520  11.560 -0.6134  0.3583 -0.6839
51531SOL     OW59403   5.507  10.034   5.713  0.2058 -0.2741  0.5210
51531SOL    HW159404   5.559  10.115   5.715 -0.6634  0.4305 -1.7222
51531SOL    HW259405   5.533   9.992   5.631 -0.8869 -1.2037  0.6328
51532SOL     OW59406   3.401   0.843  11.704 -0.1599  1.2261  0.3411
51532SOL    HW159407   3.472   0.901  11.731  0.8331  0.2433 -0.1035
51532SOL    HW259408   3.437   0.754  11.714 -1.2047  0.7220 -0.2155
51533SOL     OW59409   0.260   7.125   2.420  0.6647  0.1217  0.1671
51533SOL    HW159410   0.173   7.087   2.403  1.2577 -1.0182 -0.4290
51533SOL    HW259411   0.241   7.207   2.467 -0.6507 -1.3161  2.3745
51534SOL     OW59412   9.323   7.974   8.431 -0.2123 -0.2473 -0.2616
51534SOL    HW159413   9.417   7.963   8.414 -0.1702 -0.8791  0.3549
51534SOL    HW259414   9.318   8.050   8.490 -0.1281  0.0720 -0.6635
51535SOL     OW59415  12.318  12.338   7.283  0.0805  0.2900  0.1282
51535SOL    HW159416  12.301  12.248   7.307  1.4342  0.4417  1.8222
51535SOL    HW259417  12.368  12.332   7.201  0.2184 -0.4911  0.2645
51536SOL     OW59418  10.122   8.916   2.031 -0.0769 -0.1523 -0.2323
51536SOL    HW159419  10.036   8.905   2.071  0.0761  0.8344  0.4144
51536SOL    HW259420  10.108   8.979   1.960  0.1534  0.2118  0.0421
51537SOL     OW59421   6.913   3.541  12.642 -0.2447 -0.3367 -0.3135
51537SOL    HW159422   6.934   3.607  12.575  0.4852 -0.3485 -0.1043
51537SOL    HW259423   6.867   3.591  12.710 -0.6288 -0.2475 -0.6337
51538SOL     OW59424   7.191   0.325   4.532  0.0300 -0.0344  0.1679
51538SOL    HW159425   7.245   0.391   4.488 -2.3481  2.4581  0.6751
51538SOL    HW259426   7.155   0.371   4.608  1.6113 -3.2594  3.1408
51539SOL     OW59427  11.596  11.005   3.081 -0.0344 -0.0124  0.9722
51539SOL    HW159428  11.544  11.082   3.102 -0.6278 -0.7721  2.4173
51539SOL    HW259429  11.643  10.985   3.161  2.6595  0.7051 -0.3012
51540SOL     OW59430   2.187   1.779   2.840  0.2711  0.8129 -0.4947
51540SOL    HW159431   2.196   1.721   2.764  3.0909 -0.2760  0.5392
51540SOL    HW259432   2.254   1.846   2.827  0.4228  0.9289  0.7575
51541SOL     OW59433   2.562   6.309  11.179  0.1932  0.3655 -0.0453
51541SOL    HW159434   2.625   6.351  11.237 -0.8597 -0.7967  2.0387
51541SOL    HW259435   2.485   6.295  11.233 -0.8805 -0.7346 -1.7580
51542SOL     OW59436  11.102   8.488   2.797  0.3233 -0.4314  0.4449
51542SOL    HW159437  11.136   8.449   2.877  1.1217  0.9075  0.7741
51542SOL    HW259438  11.007   8.491   2.810  0.4789  0.1377  1.5040
51543SOL     OW59439  12.006   9.665   6.315  0.3520 -0.4892 -0.0889
51543SOL    HW159440  12.047   9.710   6.240 -0.1502 -1.1981 -0.8122
51543SOL    HW259441  11.912   9.683   6.305  0.4466  1.1909  1.5970
51544SOL     OW59442   2.557   2.811   7.803  0.1158 -0.2853 -0.1682
51544SOL    HW159443   2.465   2.836   7.792  0.1464 -0.2250 -0.2781
51544SOL    HW259444   2.553   2.719   7.830  0.0381 -0.3942 -0.5431
51545SOL     OW59445  11.410   5.123   0.891  0.1793  0.2406  0.0309
51545SOL    HW159446  11.504   5.126   0.872  0.4631 -0.6600  1.1802
51545SOL    HW259447  11.384   5.214   0.898  0.4709  0.6016 -2.4621
51546SOL     OW59448   1.899   2.336   0.880 -0.6408 -0.2524 -0.4073
51546SOL    HW159449   1.877   2.287   0.800  0.6026 -2.2956  0.4238
51546SOL    HW259450   1.994   2.344   0.878 -0.5907 -0.3240  0.8583
51547SOL     OW59451   0.558  11.468   6.199  0.3817 -0.3356 -0.2431
51547SOL    HW159452   0.558  11.469   6.295 -1.4676 -0.2504 -0.1974
51547SOL    HW259453   0.569  11.376   6.176  2.4537 -0.1783 -0.0163
51548SOL     OW59454  11.328  12.040   8.161  0.3881  0.0553  0.6866
51548SOL    HW159455  11.420  12.050   8.138  0.1249  0.0137 -0.4203
51548SOL    HW259456  11.297  11.969   8.105 -0.6334  0.9432  0.0884
51549SOL     OW59457   6.141  11.202   9.975 -0.0008  0.1804  0.0930
51549SOL    HW159458   6.143  11.167   9.886  2.4718  2.1056 -0.7379
51549SOL    HW259459   6.125  11.296   9.964  1.2844  0.6206  1.5394
51550SOL     OW59460   4.660  11.479   3.788  0.0996  0.1149  0.6141
51550SOL    HW159461   4.645  11.397   3.835  0.1534 -0.4089 -0.2590
51550SOL    HW259462   4.738  11.462   3.735 -0.6568  0.2677 -0.5860
51551SOL     OW59463   3.000   7.740   4.312  0.0285 -0.1118  0.2204
51551SOL    HW159464   3.080   7.688   4.309  0.6669  0.8690 -0.0445
51551SOL    HW259465   2.945   7.704   4.242  0.8699  0.2064 -0.6209
51552SOL     OW59466   3.109  12.122   3.644 -0.7907  0.6232  0.2760
51552SOL    HW159467   3.087  12.066   3.719  1.3218 -0.4366  0.1819
51552SOL    HW259468   3.047  12.096   3.576 -2.2691  1.0865  1.4112
51553SOL     OW59469  10.568   3.560  11.068 -0.4867 -0.1224  0.7557
51553SOL    HW159470  10.494   3.556  11.129 -1.6136 -1.5277 -0.6555
51553SOL    HW259471  10.629   3.494  11.101 -0.8177 -0.4514  0.7203
51554SOL     OW59472   4.182   9.683   9.001 -0.5768 -0.1198  1.0212
51554SOL    HW159473   4.114   9.628   8.963 -1.5197  0.1622  2.2473
51554SOL    HW259474   4.147   9.772   8.997  0.7412  0.3797 -0.5221
51555SOL     OW59475   4.582   1.514   6.739  0.4242  0.3374 -0.7117
51555SOL    HW159476   4.534   1.581   6.787  0.2801  0.9447 -1.6684
51555SOL    HW259477   4.519   1.479   6.676  0.0401 -1.7780  0.7108
51556SOL     OW59478   6.297  10.993   2.513 -0.3579  0.2362 -0.2194
51556SOL    HW159479   6.303  10.906   2.474  0.1000  0.0700  0.2136
51556SOL    HW259480   6.257  11.047   2.445 -1.1649 -0.4348 -0.2984
51557SOL     OW59481   1.727   7.138   7.897  0.0740  0.0735  0.4268
51557SOL    HW159482   1.777   7.098   7.968  2.0493 -0.4760 -1.1665
51557SOL    HW259483   1.658   7.075   7.877  0.5039 -0.5284  0.8077
51558SOL     OW59484   5.317  10.991   8.388  0.0976  0.1407 -0.0942
51558SOL    HW159485   5.308  11.021   8.298 -0.8531  1.5097  0.4321
51558SOL    HW259486   5.245  10.928   8.400 -0.8866  1.2914  0.2131
51559SOL     OW59487   8.290   9.056   6.083  0.2107 -0.3527 -0.0314
51559SOL    HW159488   8.269   9.111   6.008  0.9471  1.5212  1.0496
51559SOL    HW259489   8.342   9.113   6.140  0.9057 -2.1637  1.2315
51560SOL     OW59490   3.611   6.718   7.057  0.7226  0.4885 -0.3576
51560SOL    HW159491   3.607   6.631   7.097  0.4628  0.1229 -1.1522
51560SOL    HW259492   3.678   6.710   6.989  0.8810  0.9870 -0.2651
51561SOL     OW59493   8.405   9.096   6.737 -0.0083  0.1465  0.1255
51561SOL    HW159494   8.333   9.080   6.797  1.3357 -1.9519  1.3452
51561SOL    HW259495   8.484   9.089   6.791  1.1802  0.7287 -1.4220
51562SOL     OW59496   0.068   2.106   0.702  0.2077  0.3387  0.5796
51562SOL    HW159497   0.091   2.156   0.780 -0.1597  2.2931 -0.5025
51562SOL    HW259498   0.035   2.171   0.640  0.5514 -1.1288 -1.2541
51563SOL     OW59499   6.566   0.261   4.406 -0.2324  0.3132 -0.3833
51563SOL    HW159500   6.534   0.320   4.474  0.1436 -0.5990  0.6169
51563SOL    HW259501   6.648   0.300   4.377  1.0796 -0.6569  1.6969
51564SOL     OW59502  10.795  10.571   0.526  0.5860  0.5363 -0.0327
51564SOL    HW159503  10.886  10.577   0.554  0.4066  2.3092  0.2539
51564SOL    HW259504  10.745  10.558   0.606  0.5547 -0.4835 -0.1934
51565SOL     OW59505   3.343   2.254   2.771  0.1331 -0.5464 -0.1560
51565SOL    HW159506   3.401   2.253   2.694  0.3103  0.1348 -0.0383
51565SOL    HW259507   3.329   2.162   2.791  2.9617 -0.8288  1.1281
51566SOL     OW59508   2.406   2.971  11.105 -0.0420 -0.1385  0.7802
51566SOL    HW159509   2.499   2.962  11.128  0.7857  1.0543 -1.7995
51566SOL    HW259510   2.363   2.984  11.190  1.9324 -1.9853  2.1818
51567SOL     OW59511   7.487   8.542   5.864  1.1341  0.1603  0.0118
51567SOL    HW159512   7.449   8.515   5.780 -2.0967 -2.0574  1.9591
51567SOL    HW259513   7.453   8.630   5.878 -0.7673 -0.5361  0.1772
51568SOL     OW59514  10.666   4.252   2.035  0.3852  0.2113  0.1729
51568SOL    HW159515  10.587   4.245   1.980  0.8937  1.9001 -0.8274
51568SOL    HW259516  10.632   4.262   2.124 -0.5176  0.3498 -0.1739
51569SOL     OW59517   2.788   2.482   6.572 -0.4849  0.3517  0.4596
51569SOL    HW159518   2.808   2.449   6.484 -1.5563  0.4337  0.1687
51569SOL    HW259519   2.816   2.412   6.631 -0.3279  0.0320  0.0111
51570SOL     OW59520   1.293   8.439   1.169  0.1306 -0.0642  0.3774
51570SOL    HW159521   1.220   8.384   1.197  0.3729 -0.8563 -0.4992
51570SOL    HW259522   1.259   8.528   1.175 -0.5714 -0.3614  0.9508
51571SOL     OW59523  10.998   6.587   2.691 -0.1714 -0.3761 -0.3357
51571SOL    HW159524  10.986   6.588   2.786  1.7577 -0.3286 -0.0508
51571SOL    HW259525  11.085   6.624   2.678 -0.6148  0.0848 -2.1722
51572SOL     OW59526   4.864   8.727   3.715 -0.2763 -0.0027 -0.1935
51572SOL    HW159527   4.920   8.724   3.792 -0.1237 -1.0599 -0.3296
51572SOL    HW259528   4.858   8.636   3.686 -2.2974  0.0253 -0.0180
51573SOL     OW59529  11.190   1.326   7.142  0.5526  0.1952 -0.3530
51573SOL    HW159530  11.137   1.250   7.165 -0.3409  1.0122  0.3964
51573SOL    HW259531  11.142   1.401   7.178  2.3598  0.9566  0.5876
51574SOL     OW59532   4.009  10.794   4.443 -0.1401 -0.0867 -0.0887
51574SOL    HW159533   4.053  10.728   4.390  0.0507 -0.3270  0.3674
51574SOL    HW259534   3.934  10.749   4.481 -0.5311  0.2016 -0.4971
51575SOL     OW59535   4.439   1.837   4.036  0.5219  0.1789 -0.1880
51575SOL    HW159536   4.384   1.770   3.996  2.1019 -0.0993 -2.0117
51575SOL    HW259537   4.389   1.918   4.026  0.4322 -0.0528 -1.9032
51576SOL     OW59538  10.260   6.427   5.516 -0.7421  0.3444  0.2842
51576SOL    HW159539  10.226   6.394   5.432 -0.6291 -0.0255  0.3843
51576SOL    HW259540  10.340   6.376   5.531 -1.1020 -0.0355  0.9315
51577SOL     OW59541   1.216   5.811   9.156  0.1287  0.0844  0.1239
51577SOL    HW159542   1.224   5.905   9.143  1.1225 -0.2617 -2.5018
51577SOL    HW259543   1.302   5.776   9.132 -0.9511 -1.6577 -1.5524
51578SOL     OW59544   0.824   3.370  10.023  0.2909 -0.6332  0.1859
51578SOL    HW159545   0.903   3.336  10.066  0.5915 -2.4592 -1.6721
51578SOL    HW259546   0.845   3.371   9.930 -0.8141  1.9317 -0.1203
51579SOL     OW59547  11.946   4.128   7.419 -0.0426  0.3363  0.6623
51579SOL    HW159548  11.980   4.110   7.507  1.4605 -0.9553 -0.1382
51579SOL    HW259549  11.951   4.044   7.374 -1.4726  0.8123 -0.4624
51580SOL     OW59550   8.031   6.989   8.079  0.0412  0.3668  0.1292
51580SOL    HW159551   7.950   6.940   8.092  0.4671  0.0645  2.0135
51580SOL    HW259552   8.012   7.077   8.113  0.5129  0.2718  0.6541
51581SOL     OW59553  12.437   9.051   7.456  0.0818  0.0540 -0.3022
51581SOL    HW159554  12.485   9.131   7.477  1.1935 -0.0214 -2.2599
51581SOL    HW259555  12.504   8.991   7.423 -1.0445 -0.9100 -0.9276
51582SOL     OW59556   3.965   9.843  12.095 -0.0767  0.0161  0.3208
51582SOL    HW159557   3.970   9.835  12.190 -0.6848 -0.7915  0.2940
51582SOL    HW259558   3.923   9.928  12.080 -3.1756 -1.2839  0.8756
51583SOL     OW59559   5.016   0.349   0.731  0.1468  0.0291 -0.4747
51583SOL    HW159560   5.087   0.319   0.787 -0.5330 -1.0020 -0.1582
51583SOL    HW259561   4.985   0.430   0.773  1.0334  0.4262 -0.5524
51584SOL     OW59562  10.289   2.553   5.135 -0.5990  0.0428 -0.9055
51584SOL    HW159563  10.300   2.520   5.225 -0.3468  0.8353 -0.6425
51584SOL    HW259564  10.282   2.648   5.145  0.5167  0.2341 -1.8283
51585SOL     OW59565   5.557   6.105   5.782 -0.0733  0.4352 -0.6414
51585SOL    HW159566   5.625   6.149   5.833 -0.0380 -0.0074 -0.3017
51585SOL    HW259567   5.566   6.013   5.804  0.5977  0.0930 -2.2301
51586SOL     OW59568   4.201   4.033   1.793  0.2056  0.6242 -0.2192
51586SOL    HW159569   4.230   4.051   1.882  0.9170 -0.5469 -0.1943
51586SOL    HW259570   4.273   3.984   1.753 -1.5171 -2.0987 -0.2750
51587SOL     OW59571   3.075   1.343   7.891 -0.0331 -0.2378  0.0183
51587SOL    HW159572   3.053   1.360   7.799  0.9657 -1.2552 -0.4284
51587SOL    HW259573   3.008   1.391   7.940  1.2807  3.0817 -1.1439
51588SOL     OW59574   8.245   8.893   5.393  0.1444 -0.5103 -0.3965
51588SOL    HW159575   8.312   8.958   5.371  0.4602 -0.6060  0.2522
51588SOL    HW259576   8.293   8.822   5.435 -0.3934 -0.4900  0.2641
51589SOL     OW59577  10.302  11.350   8.533 -0.4685 -0.2049 -0.7156
51589SOL    HW159578  10.364  11.413   8.497  0.0158 -0.0975  0.2757
51589SOL    HW259579  10.334  11.332   8.621 -0.6209 -1.8089 -0.9565
51590SOL     OW59580   2.528   4.678   7.204  0.0521  0.3579  0.2310
51590SOL    HW159581   2.592   4.732   7.250 -1.6941 -0.2049  3.6827
51590SOL    HW259582   2.557   4.588   7.219 -0.3454  0.1775 -0.0624
51591SOL     OW59583   6.494   0.324   6.561  0.1216 -0.3125  0.0425
51591SOL    HW159584   6.414   0.377   6.568  0.1413 -0.4565  1.7526
51591SOL    HW259585   6.547   0.369   6.495 -1.1442  0.0583 -0.7676
51592SOL     OW59586   2.897  10.161   7.039 -0.5174 -0.1621 -0.1138
51592SOL    HW159587   2.945  10.232   7.082 -0.3469 -0.9739  1.1021
51592SOL    HW259588   2.928  10.163   6.948  2.0697 -0.8109  0.6575
51593SOL     OW59589   0.609   1.734   5.679  0.1689 -0.3934 -0.1256
51593SOL    HW159590   0.617   1.665   5.744  0.1163 -1.1395 -0.8933
51593SOL    HW259591   0.670   1.709   5.609  0.6199  0.6657 -0.1393
51594SOL     OW59592   6.087   6.033   7.981 -0.2331 -0.0870  0.3196
51594SOL    HW159593   6.121   6.094   7.915  0.5710 -2.5268 -1.6314
51594SOL    HW259594   6.107   6.077   8.064  0.3669  2.2743 -0.9494
51595SOL     OW59595   2.833   7.272  11.568  0.0492  0.1999  0.0136
51595SOL    HW159596   2.900   7.208  11.545 -1.1092 -0.8896 -0.4375
51595SOL    HW259597   2.799   7.242  11.653 -0.6829  0.0433 -0.3259
51596SOL     OW59598   2.904   1.829   0.794 -0.4126  0.1299 -0.4475
51596SOL    HW159599   2.840   1.900   0.792 -1.0966 -0.4737 -0.3310
51596SOL    HW259600   2.857   1.753   0.760  0.3738 -0.2267 -0.7734
51597SOL     OW59601   1.238   1.481   3.758  0.9454  0.4133  0.1261
51597SOL    HW159602   1.227   1.561   3.810  0.3625 -0.3417  1.2096
51597SOL    HW259603   1.228   1.509   3.667 -0.8704  1.3203  0.5582
51598SOL     OW59604  10.173  10.368   3.698 -0.2336  0.1286 -0.7184
51598SOL    HW159605  10.109  10.438   3.708  0.2392  0.8313 -2.2924
51598SOL    HW259606  10.197  10.370   3.605  1.6683 -0.4561 -0.2906
51599SOL     OW59607   4.914   2.400   3.245  0.6487  0.0374  0.1840
51599SOL    HW159608   4.914   2.445   3.330 -1.2425 -0.7629  0.6520
51599SOL    HW259609   4.980   2.447   3.193  1.0964  1.2071  1.7407
51600SOL     OW59610  12.602   5.198   1.596 -0.0569  0.3324 -0.5275
51600SOL    HW159611  12.692   5.169   1.609  0.4846  1.8159 -0.8053
51600SOL    HW259612  12.591   5.272   1.655 -1.1565  0.0771 -0.3849
51601SOL     OW59613   1.331   1.586   4.990  0.2470  0.0407 -0.7619
51601SOL    HW159614   1.314   1.516   5.053  0.0188  1.5517  0.9628
51601SOL    HW259615   1.245   1.620   4.968  0.4318  1.5956  0.6736
51602SOL     OW59616   7.808   1.622   3.386  1.1013 -0.9044 -0.1191
51602SOL    HW159617   7.891   1.663   3.363  1.0871 -1.6265 -1.5470
51602SOL    HW259618   7.808   1.539   3.339 -0.8816 -0.4634 -1.0271
51603SOL     OW59619   1.590   2.314   5.204 -0.1572  0.3532  0.5242
51603SOL    HW159620   1.613   2.228   5.238  1.0685  0.6728  0.5276
51603SOL    HW259621   1.628   2.376   5.266 -0.2583  0.9133  0.0412
51604SOL     OW59622   7.439  10.401   8.865  0.4907 -0.8282  0.1097
51604SOL    HW159623   7.504  10.351   8.816  0.6101 -0.2669 -0.3160
51604SOL    HW259624   7.480  10.416   8.950  2.0885  1.8039 -1.0062
51605SOL     OW59625   4.685   9.024   3.280  0.0668  0.1804 -0.1373
51605SOL    HW159626   4.711   9.070   3.200  3.7038 -1.6942 -0.2178
51605SOL    HW259627   4.639   8.946   3.249 -1.2818  0.9738 -0.2065
51606SOL     OW59628   6.966  10.614   9.333  0.4497  0.3103 -0.0847
51606SOL    HW159629   7.010  10.630   9.250  0.0701  1.2592 -0.1176
51606SOL    HW259630   7.037  10.602   9.396  0.7714  1.4109 -0.2120
51607SOL     OW59631   0.672   1.085   5.238 -0.0745 -0.8305 -0.4450
51607SOL    HW159632   0.653   0.994   5.217 -0.4782 -1.3469  1.9385
51607SOL    HW259633   0.689   1.086   5.332  1.5791  1.3068 -0.6822
51608SOL     OW59634   4.155   8.071   4.419  0.1367 -0.2169 -0.8663
51608SOL    HW159635   4.179   8.002   4.481 -1.6653  0.5186  0.7556
51608SOL    HW259636   4.202   8.048   4.339  3.1668 -0.8314  0.9095
51609SOL     OW59637  12.060   7.957   8.629 -0.4617 -0.2300 -0.6041
51609SOL    HW159638  12.021   7.874   8.656  0.4217 -0.4347  0.0922
51609SOL    HW259639  12.151   7.952   8.659  0.3118 -0.0244 -2.7111
51610SOL     OW59640   8.289   2.229   0.473 -0.5040 -0.2681 -0.2765
51610SOL    HW159641   8.262   2.291   0.541 -1.5746 -0.6516 -0.3340
51610SOL    HW259642   8.358   2.275   0.425 -1.1046  0.7921 -0.1607
51611SOL     OW59643  10.259   3.143   7.089 -0.2988 -0.0177 -0.0458
51611SOL    HW159644  10.190   3.169   7.150  1.3781 -1.3231  2.5938
51611SOL    HW259645  10.266   3.217   7.028 -2.6003  1.0226  0.8342
51612SOL     OW59646   8.100   9.619   2.940 -0.6113 -0.2282 -0.1332
51612SOL    HW159647   8.127   9.628   3.031  0.5264  0.0952 -0.4923
51612SOL    HW259648   8.107   9.707   2.904  0.1211 -0.5655 -0.8442
51613SOL     OW59649   3.068   6.286   7.014 -0.8085  0.1673 -0.6927
51613SOL    HW159650   3.046   6.213   7.073  0.9155  0.5865  0.5489
51613SOL    HW259651   3.113   6.349   7.071 -0.0694  1.0924 -2.2541
51614SOL     OW59652   1.164   4.127  11.551  0.1772  0.5965 -0.0822
51614SOL    HW159653   1.087   4.184  11.542  0.4585  0.9930  0.0217
51614SOL    HW259654   1.202   4.152  11.635 -0.3694 -0.5606  0.5350
51615SOL     OW59655   6.107   5.239   0.290  0.2925 -0.6147 -0.0523
51615SOL    HW159656   6.094   5.316   0.345 -1.9816  0.3310 -1.7319
51615SOL    HW259657   6.095   5.272   0.201  0.6134 -2.6768 -0.9070
51616SOL     OW59658  11.414   9.768  12.043 -0.5090 -0.1889  0.2747
51616SOL    HW159659  11.501   9.786  12.079 -0.0726 -1.3922 -0.1635
51616SOL    HW259660  11.356   9.774  12.119  0.3312 -2.1636  1.1367
51617SOL     OW59661   8.355   5.000   1.067  0.4578  0.8197  0.4504
51617SOL    HW159662   8.372   5.094   1.065 -0.3727  0.9744 -1.5186
51617SOL    HW259663   8.279   4.991   1.124 -1.4837  1.7933 -1.7964
51618SOL     OW59664   7.555   6.250   9.674  0.1767 -0.1061  0.3493
51618SOL    HW159665   7.474   6.200   9.675 -0.3948  0.7928  0.2430
51618SOL    HW259666   7.601   6.223   9.754 -0.0683 -0.8622  0.2409
51619SOL     OW59667  10.441  10.769   0.597 -0.3407 -0.0231  0.6075
51619SOL    HW159668  10.370  10.724   0.642  0.3315 -0.7628  0.9591
51619SOL    HW259669  10.463  10.712   0.523 -2.2088  1.7343 -1.4232
51620SOL     OW59670   5.642   4.167   3.435 -0.2789  0.2019  0.1142
51620SOL    HW159671   5.731   4.159   3.401  0.8444  0.8329  2.6477
51620SOL    HW259672   5.611   4.077   3.444  0.2796 -0.0446 -0.3727
51621SOL     OW59673   5.401   8.444   5.034  0.0235 -0.5914  0.2841
51621SOL    HW159674   5.476   8.393   5.004  1.4043  0.8320  1.1277
51621SOL    HW259675   5.381   8.502   4.960 -1.4019 -2.1245 -0.5893
51622SOL     OW59676   1.785   1.923   3.963 -0.3583 -0.3119 -0.8766
51622SOL    HW159677   1.707   1.915   3.909  0.1865  1.0265 -1.9210
51622SOL    HW259678   1.827   1.837   3.959 -0.9803 -0.5907 -1.5575
51623SOL     OW59679   4.479  10.138   7.024  0.1685  0.1803  0.0104
51623SOL    HW159680   4.501  10.231   7.024  0.8818  0.0165  0.4198
51623SOL    HW259681   4.491  10.110   6.934  0.7286  0.3068  0.0468
51624SOL     OW59682  11.197   8.474   6.508 -0.6059 -0.2978  0.4028
51624SOL    HW159683  11.211   8.550   6.451  0.3061 -1.4230 -0.9790
51624SOL    HW259684  11.201   8.399   6.448  1.1278 -1.6091  2.0262
51625SOL     OW59685   6.862   8.456   0.263  0.9162 -0.3957  0.3860
51625SOL    HW159686   6.914   8.386   0.302 -3.0770 -2.6548  2.4147
51625SOL    HW259687   6.798   8.478   0.330 -0.2501  2.7127 -1.5369
51626SOL     OW59688   4.265  12.634   8.224  0.4246  0.9499  0.2610
51626SOL    HW159689   4.330  12.704   8.235  3.9471 -2.2684  2.5262
51626SOL    HW259690   4.308  12.570   8.167 -1.6970 -0.4060  0.0720
51627SOL     OW59691   7.159  11.322   6.350  0.0167  0.3211 -0.0341
51627SOL    HW159692   7.143  11.408   6.387 -2.4994 -0.1846  0.1977
51627SOL    HW259693   7.253  11.322   6.330  0.1173  3.0331  0.0634
51628SOL     OW59694  10.910  11.167   7.838  0.2715  0.0569 -0.1615
51628SOL    HW159695  10.939  11.079   7.813  1.7235  0.7815 -1.1543
51628SOL    HW259696  10.957  11.184   7.920 -1.0074 -0.5624  0.7319
51629SOL     OW59697   2.397   1.865  10.072 -0.0239 -0.7299  0.6949
51629SOL    HW159698   2.379   1.795  10.135  1.3824 -0.1710  1.7864
51629SOL    HW259699   2.399   1.945  10.125 -0.0089 -0.0712 -0.2686
51630SOL     OW59700   1.128   0.932   0.643 -0.0001 -0.0906  0.8084
51630SOL    HW159701   1.119   0.870   0.571 -0.4278 -0.6319  1.3237
51630SOL    HW259702   1.147   1.016   0.600 -0.3355 -0.3891  0.0682
51631SOL     OW59703   6.597   0.845   1.909  0.3508 -0.3589 -0.0880
51631SOL    HW159704   6.688   0.823   1.928  0.5873 -0.8198 -1.6471
51631SOL    HW259705   6.596   0.866   1.815 -1.0526  0.1479  0.0153
51632SOL     OW59706   5.851  10.126   0.289 -0.4130 -0.1392  0.2657
51632SOL    HW159707   5.809  10.206   0.320  0.4650  0.1762  0.6666
51632SOL    HW259708   5.906  10.098   0.362 -0.9749 -1.3084  0.2581
51633SOL     OW59709   6.734   8.897   9.194 -0.2119  0.1182 -0.6564
51633SOL    HW159710   6.665   8.840   9.228 -0.7378  0.8590 -0.4481
51633SOL    HW259711   6.689   8.979   9.172  0.4398  0.3002 -1.3937
51634SOL     OW59712   1.599  10.992  12.053  0.5292 -0.0284 -0.7987
51634SOL    HW159713   1.693  11.001  12.069  0.3131 -0.3749  0.8044
51634SOL    HW259714   1.586  10.898  12.043  0.2998 -0.0051 -0.7168
51635SOL     OW59715   2.427   5.348  11.153  0.0808 -0.2030  0.6082
51635SOL    HW159716   2.421   5.403  11.075 -0.7273 -0.6224  0.3652
51635SOL    HW259717   2.400   5.261  11.124  0.8618 -0.6239  1.1047
51636SOL     OW59718   0.815   5.227   2.978 -0.6382 -0.2484 -0.2536
51636SOL    HW159719   0.781   5.295   2.920  2.0975  0.9167 -0.6477
51636SOL    HW259720   0.874   5.176   2.923 -1.0644 -1.6704  0.5629
51637SOL     OW59721   2.128   4.333   7.501  0.7867 -0.6166  0.5633
51637SOL    HW159722   2.126   4.262   7.565  0.6210 -2.1604 -1.0881
51637SOL    HW259723   2.081   4.299   7.425  0.5514  1.3306 -0.2352
51638SOL     OW59724  10.960   4.631  10.224 -0.0343  0.2424  0.3625
51638SOL    HW159725  10.996   4.605  10.139 -0.2259  0.4537  0.2188
51638SOL    HW259726  11.014   4.583  10.287 -0.4382 -0.5806  0.0959
51639SOL     OW59727   9.113  12.279   4.703 -0.3341 -0.1018 -0.3745
51639SOL    HW159728   9.116  12.294   4.608  0.9394 -0.1441 -0.3499
51639SOL    HW259729   9.152  12.193   4.715 -0.6401 -0.1638  0.1790
51640SOL     OW59730   9.814   2.644   1.756  0.0986 -0.2799  0.0996
51640SOL    HW159731   9.902   2.678   1.736 -0.2477  0.3997 -0.2975
51640SOL    HW259732   9.827   2.549   1.765  0.7922 -0.2454 -0.4047
51641SOL     OW59733   0.742   6.545   9.693 -0.4141  0.2870  0.4696
51641SOL    HW159734   0.831   6.566   9.666 -0.7984  0.4979 -0.6613
51641SOL    HW259735   0.686   6.598   9.637 -1.2463  1.3251  2.1918
51642SOL     OW59736   5.252   6.493   5.866  0.3026 -0.6914 -0.4143
51642SOL    HW159737   5.187   6.552   5.903  0.4687  0.3436 -1.7175
51642SOL    HW259738   5.241   6.500   5.772  2.4555 -0.2860 -0.6989
51643SOL     OW59739   9.387   8.534   9.830  0.0254 -0.1149 -0.7514
51643SOL    HW159740   9.447   8.459   9.832  1.3523  0.7703 -3.1105
51643SOL    HW259741   9.433   8.604   9.876 -0.8106 -0.4362  0.6216
51644SOL     OW59742   7.312   4.706   4.848 -0.4696 -0.5681  0.1064
51644SOL    HW159743   7.276   4.727   4.761 -0.7217 -1.0736  0.0859
51644SOL    HW259744   7.300   4.786   4.898 -1.5431 -0.6922  0.0662
51645SOL     OW59745   6.908   6.462   8.626  0.2011 -0.5629 -0.0907
51645SOL    HW159746   6.963   6.419   8.691  1.4696  1.1951  0.0738
51645SOL    HW259747   6.840   6.505   8.678  0.7769  0.2153  0.0396
51646SOL     OW59748   8.512   6.312   1.440  0.2029  0.3681 -0.6104
51646SOL    HW159749   8.507   6.269   1.525 -1.1202  1.9079  0.1322
51646SOL    HW259750   8.606   6.326   1.425  0.9091 -4.0460 -1.6314
51647SOL     OW59751  12.241   2.952   9.003  0.3771  0.0427 -0.7534
51647SOL    HW159752  12.206   3.034   8.967  1.0475  0.9547  0.5576
51647SOL    HW259753  12.319   2.980   9.051 -1.1147 -0.8731  2.4249
51648SOL     OW59754   9.451   9.726   8.897 -0.6758 -0.2027  0.4301
51648SOL    HW159755   9.447   9.687   8.985  1.6026  1.5933  1.4689
51648SOL    HW259756   9.437   9.820   8.912 -1.0909  0.0399 -1.2680
51649SOL     OW59757  10.637   5.810   2.177 -0.3605 -0.2368  0.3636
51649SOL    HW159758  10.706   5.753   2.213  0.2466 -0.2450 -0.7600
51649SOL    HW259759  10.650   5.893   2.222  0.8120 -0.0471 -0.2757
51650SOL     OW59760   8.625   2.866  10.289  0.8814  0.5806 -0.1644
51650SOL    HW159761   8.604   2.908  10.372  1.8225 -0.1167  0.4562
51650SOL    HW259762   8.554   2.890  10.230 -1.7752 -1.7686  1.7932
51651SOL     OW59763   4.010   6.729   9.695 -0.2599 -0.5954 -0.0424
51651SOL    HW159764   4.045   6.814   9.721 -3.2467  1.2392 -1.4428
51651SOL    HW259765   4.051   6.710   9.610 -1.4312  0.8009 -0.9678
51652SOL     OW59766   5.939   9.256  11.021 -0.6101 -0.1216 -0.1811
51652SOL    HW159767   5.905   9.186  11.078  2.0952 -1.4282  0.0056
51652SOL    HW259768   5.930   9.220  10.933 -0.4910 -0.1167 -0.1955
51653SOL     OW59769   2.801  12.527   1.262 -0.3087  0.3796 -0.0162
51653SOL    HW159770   2.801  12.466   1.336 -2.0856  1.8505  1.2893
51653SOL    HW259771   2.866  12.491   1.202  0.7737 -1.2319  1.9658
51654SOL     OW59772   9.425   9.869   8.277  0.3003  0.2354  0.6347
51654SOL    HW159773   9.348   9.920   8.301 -0.8086 -0.5123 -1.1396
51654SOL    HW259774   9.391   9.794   8.230  2.0993 -0.2754  0.0397
51655SOL     OW59775   3.895  11.939  11.305 -0.2351  0.9209 -0.0923
51655SOL    HW159776   3.876  11.930  11.212  2.6729  0.9076 -0.7921
51655SOL    HW259777   3.885  12.032  11.323  0.0170  1.0653 -0.6620
51656SOL     OW59778  10.384   2.825   2.837 -0.4820 -0.3259 -0.3806
51656SOL    HW159779  10.334   2.752   2.800 -0.8000 -0.8870  1.1056
51656SOL    HW259780  10.471   2.815   2.799 -0.0038 -2.5453  1.1100
51657SOL     OW59781   2.249   8.142   8.647 -0.6662 -0.0816 -0.4256
51657SOL    HW159782   2.344   8.136   8.635 -0.4055  0.8332  1.0275
51657SOL    HW259783   2.221   8.051   8.660  0.1208 -0.2871 -0.1068
51658SOL     OW59784  12.565   4.984  12.029 -0.2860  0.7190 -0.0142
51658SOL    HW159785  12.519   4.901  12.040 -1.1018  1.2936  1.1715
51658SOL    HW259786  12.657   4.964  12.049 -0.0797 -0.3121 -1.8147
51659SOL     OW59787   5.344   1.657   1.785 -0.0567 -0.1225 -0.0863
51659SOL    HW159788   5.267   1.601   1.776 -1.2411  1.5683 -1.0925
51659SOL    HW259789   5.389   1.650   1.701  0.6211 -0.6954  0.3136
51660SOL     OW59790   3.759  12.398   5.245  0.4157  0.2459  0.3513
51660SOL    HW159791   3.760  12.489   5.274 -1.0260 -0.7026  3.9060
51660SOL    HW259792   3.847  12.365   5.262 -0.0972  0.0252  2.8618
51661SOL     OW59793   6.559   8.002   8.620  0.0268  0.5470  0.1134
51661SOL    HW159794   6.613   7.953   8.682 -0.1391 -1.0070 -0.9260
51661SOL    HW259795   6.520   7.936   8.563  1.5617  1.9498 -2.8187
51662SOL     OW59796   8.295   1.168  11.151 -0.4865  0.3445  0.0910
51662SOL    HW159797   8.320   1.224  11.224  0.8418 -1.1147  0.8215
51662SOL    HW259798   8.344   1.203  11.076  0.5390  0.0396  0.5978
51663SOL     OW59799   5.885   9.208   9.768 -0.2572 -0.9973 -0.3206
51663SOL    HW159800   5.973   9.178   9.793 -0.3331 -1.1767 -0.2685
51663SOL    HW259801   5.841   9.129   9.735 -0.5482 -1.0049  0.0720
51664SOL     OW59802   0.749   8.266  11.111 -0.2587  0.2439  0.4285
51664SOL    HW159803   0.664   8.222  11.122  0.0054 -1.1721 -2.3550
51664SOL    HW259804   0.813   8.202  11.144 -0.1627  0.6181  0.9721
51665SOL     OW59805   6.637   3.750  11.136 -0.2072 -0.2505 -0.0716
51665SOL    HW159806   6.666   3.755  11.045 -1.7060 -0.4658 -0.5747
51665SOL    HW259807   6.592   3.833  11.151 -1.4612 -0.9190 -0.0669
51666SOL     OW59808   5.651   9.271   4.906 -0.1977  0.6544 -0.0309
51666SOL    HW159809   5.558   9.268   4.883 -0.2185 -0.1695  0.1321
51666SOL    HW259810   5.679   9.180   4.903 -0.1015  0.5125  2.7770
51667SOL     OW59811  10.696   6.187   5.766 -0.2149  0.3531  0.0807
51667SOL    HW159812  10.626   6.122   5.772  0.3418 -0.2711 -0.0677
51667SOL    HW259813  10.753   6.154   5.697  1.6154 -0.5008  1.9062
51668SOL     OW59814   0.935   1.275   9.545 -0.2020 -0.0222 -0.3601
51668SOL    HW159815   1.013   1.225   9.570  0.1271  0.9051  0.5511
51668SOL    HW259816   0.964   1.367   9.547 -1.3047  0.3331 -0.0093
51669SOL     OW59817   7.585   8.024   6.176  0.2139  0.4324  0.3862
51669SOL    HW159818   7.625   8.039   6.262 -0.8093 -0.1731  0.9936
51669SOL    HW259819   7.649   7.971   6.129  0.2764 -0.2703  1.2312
51670SOL     OW59820   5.997   0.176   5.328  0.2317 -0.1122  0.4739
51670SOL    HW159821   5.911   0.175   5.286  0.1079  0.8473  0.6837
51670SOL    HW259822   5.990   0.111   5.398 -0.2323 -0.2270  0.3279
51671SOL     OW59823   8.200  11.936   3.260 -0.5770  0.1637  0.3073
51671SOL    HW159824   8.133  11.882   3.302  1.5874 -3.2407 -0.1441
51671SOL    HW259825   8.188  11.920   3.166  1.2691 -1.2436  0.2465
51672SOL     OW59826   2.699  12.071  11.070  0.3570 -0.1788 -0.1189
51672SOL    HW159827   2.614  12.115  11.071  0.8979  1.0480 -2.3296
51672SOL    HW259828   2.681  11.984  11.034 -0.4414 -1.2975  2.6914
51673SOL     OW59829   6.315   0.152   9.491 -0.1632  0.0057  0.7283
51673SOL    HW159830   6.237   0.206   9.483 -1.7098 -2.2639 -0.8266
51673SOL    HW259831   6.372   0.181   9.420 -1.0249 -0.4145 -0.1570
51674SOL     OW59832   4.443   9.703   0.555 -0.8067  0.0965 -0.5537
51674SOL    HW159833   4.480   9.642   0.619  0.2347  1.5220  0.2598
51674SOL    HW259834   4.373   9.747   0.602 -0.7037  0.4328 -0.7128
51675SOL     OW59835   8.518   4.602  10.670  0.1262  0.1089 -0.5138
51675SOL    HW159836   8.511   4.567  10.582 -0.4013  2.4541 -1.4909
51675SOL    HW259837   8.607   4.637  10.676 -0.5993  2.1938 -1.0916
51676SOL     OW59838   8.693   4.416  12.501  0.1003 -0.1672  0.2090
51676SOL    HW159839   8.750   4.478  12.456 -0.2433 -0.2707 -0.3710
51676SOL    HW259840   8.669   4.461  12.582 -2.3437  1.6533 -1.3986
51677SOL     OW59841   3.514   3.950   0.085 -0.2584 -0.2092  0.4353
51677SOL    HW159842   3.537   4.023   0.028  2.4748 -1.2586  0.0015
51677SOL    HW259843   3.585   3.947   0.150  0.5732 -3.2805 -0.4358
51678SOL     OW59844   8.668   0.242   1.758 -0.7697  0.0366 -0.5822
51678SOL    HW159845   8.679   0.223   1.665  2.0005  0.3611 -0.4214
51678SOL    HW259846   8.671   0.338   1.763  0.5557 -0.0091 -0.0731
51679SOL     OW59847   7.028   7.748   3.317  0.5374 -0.2619 -0.0078
51679SOL    HW159848   6.995   7.686   3.382 -1.7309  0.9054  0.0649
51679SOL    HW259849   7.055   7.824   3.368 -0.3608  0.2933 -0.3449
51680SOL     OW59850   7.870  12.312   0.821  0.4828  0.4307  0.6587
51680SOL    HW159851   7.965  12.296   0.821  0.2512 -1.4914 -1.4766
51680SOL    HW259852   7.833  12.232   0.857 -0.3628  1.0343  1.1531
51681SOL     OW59853  10.912   4.029   9.377 -0.7797 -0.4615 -0.2289
51681SOL    HW159854  10.967   4.035   9.299  0.7784  1.9316  0.9186
51681SOL    HW259855  10.935   3.945   9.417 -0.1454 -0.8095 -1.2998
51682SOL     OW59856   0.863   0.517   6.321  0.1562 -0.4092  0.2823
51682SOL    HW159857   0.837   0.498   6.412 -1.4948 -1.9473 -0.4461
51682SOL    HW259858   0.871   0.431   6.280  1.1143  0.2572 -0.9966
51683SOL     OW59859   2.476   5.570   2.388  0.5551  0.4325  0.4868
51683SOL    HW159860   2.389   5.564   2.427  0.2759 -0.0356 -0.1869
51683SOL    HW259861   2.488   5.486   2.343  1.8749 -0.0208  1.6072
51684SOL     OW59862   5.950   1.291   2.125 -0.5627 -0.3499 -0.1082
51684SOL    HW159863   5.987   1.327   2.044  0.2032 -0.9140 -0.0185
51684SOL    HW259864   6.025   1.279   2.183 -0.9932 -0.7456  0.3807
51685SOL     OW59865   7.483   4.173   6.511  0.2044 -0.5784 -0.1627
51685SOL    HW159866   7.530   4.094   6.538 -1.2695 -1.3796  0.1346
51685SOL    HW259867   7.442   4.149   6.428  0.6440  0.2488 -0.6272
51686SOL     OW59868   5.739   7.892   1.354 -0.3929  0.0541 -0.2065
51686SOL    HW159869   5.651   7.911   1.387 -0.8401 -0.8200 -0.8575
51686SOL    HW259870   5.761   7.968   1.300 -0.5934  0.4433  0.2508
51687SOL     OW59871   5.307   7.434  12.240  0.0895  1.1798 -0.3124
51687SOL    HW159872   5.383   7.378  12.221 -0.0489  0.6376  0.6503
51687SOL    HW259873   5.298   7.488  12.162  0.3231 -0.0360 -1.2283
51688SOL     OW59874   9.300   1.782  11.704 -0.5548  0.1514 -0.5668
51688SOL    HW159875   9.209   1.803  11.682 -1.1584 -1.2658  0.4226
51688SOL    HW259876   9.326   1.715  11.641  0.0250  0.9674 -1.2187
51689SOL     OW59877   8.433   9.134  12.526  0.2648 -0.4109  0.2503
51689SOL    HW159878   8.372   9.133  12.600  0.4284  2.3701  0.4950
51689SOL    HW259879   8.410   9.212  12.477  1.6716 -0.9750 -1.3837
51690SOL     OW59880  10.120   2.995   9.035  0.2070 -0.3602  0.3609
51690SOL    HW159881  10.207   2.963   9.012  0.5540  0.3286  0.6856
51690SOL    HW259882  10.124   3.089   9.018 -1.2027 -0.6177 -1.8964
51691SOL     OW59883   5.155   9.753   8.581  0.5543 -0.2219  0.0806
51691SOL    HW159884   5.079   9.729   8.528 -1.0920  1.3732  1.5561
51691SOL    HW259885   5.185   9.671   8.619  1.1327 -1.2485 -2.3815
51692SOL     OW59886   3.086   8.032   1.577 -0.3043 -0.1163  0.2355
51692SOL    HW159887   3.040   8.087   1.641 -0.7855 -1.4081  1.0335
51692SOL    HW259888   3.035   8.041   1.496  0.0145  1.1203  0.1530
51693SOL     OW59889   0.446   1.579   1.630 -0.7109  0.5837 -0.1414
51693SOL    HW159890   0.450   1.524   1.552  0.5404 -0.2920  0.5062
51693SOL    HW259891   0.487   1.527   1.699 -1.1518  1.6131  0.9491
51694SOL     OW59892   6.074   1.421   3.055 -0.4062 -0.5558 -0.0797
51694SOL    HW159893   6.050   1.418   2.962  0.3299 -1.8789 -0.2578
51694SOL    HW259894   6.035   1.502   3.088  0.6144  0.7215 -1.8843
51695SOL     OW59895  12.106   4.516   5.126 -0.1521  0.2801 -0.0435
51695SOL    HW159896  12.126   4.454   5.196 -0.5583 -0.5879 -0.6857
51695SOL    HW259897  12.173   4.499   5.059 -0.5240  0.2310 -0.4068
51696SOL     OW59898   4.522   4.332   2.940 -0.0212 -0.0212  0.1410
51696SOL    HW159899   4.471   4.284   3.005 -1.2175  0.3666 -0.4824
51696SOL    HW259900   4.588   4.379   2.991  1.1180 -2.1786  0.7827
51697SOL     OW59901   9.804  11.492  11.140 -0.7010 -0.6759 -0.3604
51697SOL    HW159902   9.848  11.567  11.180 -1.1579 -1.1029  0.9868
51697SOL    HW259903   9.806  11.511  11.046  0.0383  0.5549 -0.1236
51698SOL     OW59904   0.035   1.639   2.148 -0.1538 -0.1803 -0.0285
51698SOL    HW159905   0.125   1.611   2.163 -0.6178 -1.3722  0.6854
51698SOL    HW259906  -0.009   1.562   2.112  0.0575  1.5387 -4.6290
51699SOL     OW59907   9.332   1.736   2.062  0.0486  0.0315  0.6663
51699SOL    HW159908   9.403   1.799   2.048 -1.1606  1.2408 -0.2896
51699SOL    HW259909   9.349   1.667   1.998  0.1317  0.5315  0.1433
51700SOL     OW59910   4.471   8.782   1.464 -0.8611 -0.4704 -0.5100
51700SOL    HW159911   4.548   8.746   1.508  0.4860  2.5668 -0.1675
51700SOL    HW259912   4.398   8.730   1.496  0.8649 -2.6776  0.0809
51701SOL     OW59913   9.849   0.687   0.170 -0.1944 -0.3871 -0.8898
51701SOL    HW159914   9.903   0.711   0.246 -1.3660 -2.2874  0.6359
51701SOL    HW259915   9.794   0.765   0.156 -1.6186 -0.7724  1.8140
51702SOL     OW59916  10.352  11.816   4.792  0.2479 -0.1385  0.1162
51702SOL    HW159917  10.442  11.788   4.808  0.2073  0.0585  0.7255
51702SOL    HW259918  10.301  11.776   4.863 -0.3676 -1.2946 -0.9237
51703SOL     OW59919   2.447   9.746   5.937 -0.2462  0.1589 -0.0558
51703SOL    HW159920   2.477   9.704   5.857  1.3873 -0.1600  0.6764
51703SOL    HW259921   2.443   9.675   6.001 -0.5873  0.5725  0.3877
51704SOL     OW59922  12.250   6.454   6.589 -0.2021  0.1971  0.2957
51704SOL    HW159923  12.175   6.399   6.566  1.1043 -1.6928  0.3315
51704SOL    HW259924  12.323   6.418   6.539  0.5371  2.5947 -0.4772
51705SOL     OW59925   3.828   0.780   3.835  0.3158  0.5319 -0.2426
51705SOL    HW159926   3.736   0.783   3.810  0.3830 -0.7746 -0.7187
51705SOL    HW259927   3.836   0.845   3.905 -1.1501  0.0861  0.3884
51706SOL     OW59928   2.908  10.195   9.180 -0.4856  0.6849  0.2096
51706SOL    HW159929   2.859  10.195   9.263 -0.2982  0.1446  0.3236
51706SOL    HW259930   2.976  10.260   9.192 -2.0483  2.5391 -0.4812
51707SOL     OW59931   4.487   2.023   0.519  0.7240  0.1730  0.3615
51707SOL    HW159932   4.420   2.027   0.587  1.1436  1.2439  0.7425
51707SOL    HW259933   4.552   1.961   0.553  1.1389  1.0122  1.1590
51708SOL     OW59934   2.582  11.365   1.087  0.7203  0.0282 -0.2863
51708SOL    HW159935   2.538  11.353   1.003  0.2609  1.5586 -0.2944
51708SOL    HW259936   2.513  11.390   1.147  1.3636  1.1107  0.0219
51709SOL     OW59937   7.934   0.275   5.898 -0.5348  0.4050  0.8539
51709SOL    HW159938   7.983   0.289   5.979 -0.7598 -0.6127  1.1813
51709SOL    HW259939   8.000   0.285   5.829  0.0833 -0.6061  1.2707
51710SOL     OW59940   1.253   2.525   6.228 -0.5091 -0.4359 -0.7636
51710SOL    HW159941   1.235   2.596   6.290 -1.1453 -0.0264 -1.4090
51710SOL    HW259942   1.336   2.487   6.258  0.3702  1.2290 -1.0045
51711SOL     OW59943   5.680   3.850  11.989  0.0122  0.0943 -0.4446
51711SOL    HW159944   5.696   3.861  12.083 -1.5827  0.7803 -0.2226
51711SOL    HW259945   5.585   3.859  11.980 -0.0119 -1.3273 -1.9623
51712SOL     OW59946   7.583   1.088   1.511  0.0841 -0.0916 -0.5841
51712SOL    HW159947   7.631   1.082   1.428 -0.0993 -1.5513 -0.6162
51712SOL    HW259948   7.650   1.102   1.577  0.2845  0.5722 -0.9277
51713SOL     OW59949   2.444  10.004   0.300  0.4979  0.9188 -0.1994
51713SOL    HW159950   2.449   9.908   0.292  0.2424  0.9175 -0.3487
51713SOL    HW259951   2.488  10.037   0.223  0.0124  0.9155 -0.4832
51714SOL     OW59952   4.097  11.031  11.515  0.3808 -0.0916 -0.3835
51714SOL    HW159953   4.099  11.126  11.525  1.3632 -0.0615 -0.7251
51714SOL    HW259954   4.181  11.001  11.550  0.2632 -0.7895 -0.6730
51715SOL     OW59955   3.859   2.293   8.300  0.5893 -0.5826  0.4753
51715SOL    HW159956   3.828   2.380   8.275  3.5370  0.9390  1.6174
51715SOL    HW259957   3.865   2.245   8.217  1.8261  1.3732 -0.6469
51716SOL     OW59958   0.428   6.600   5.042 -0.2296  0.1498 -1.2060
51716SOL    HW159959   0.378   6.522   5.066 -1.2587  0.7511 -1.3202
51716SOL    HW259960   0.518   6.581   5.070 -0.9257 -0.0617  1.1158
51717SOL     OW59961   9.786   7.069   0.077 -0.5050 -0.0035 -0.6798
51717SOL    HW159962   9.835   7.136   0.028  0.6334  0.7788  1.4116
51717SOL    HW259963   9.831   6.987   0.058  1.9979  0.7420  1.4702
51718SOL     OW59964  12.009   7.179   8.306  0.1609 -0.1312  0.1359
51718SOL    HW159965  11.973   7.261   8.341  0.7892  0.4440 -0.5217
51718SOL    HW259966  11.962   7.110   8.352 -0.2467  0.6050  0.8445
51719SOL     OW59967   6.793   5.142  10.125  0.3471  0.1780 -0.1837
51719SOL    HW159968   6.835   5.056  10.130  1.4101  0.7359  0.5618
51719SOL    HW259969   6.703   5.126  10.154  0.0473 -0.9876 -1.6241
51720SOL     OW59970   2.445   7.654  11.842  0.4063  0.0967  0.2121
51720SOL    HW159971   2.389   7.593  11.794  0.4944  1.4301 -1.6825
51720SOL    HW259972   2.467   7.721  11.778  2.6870  0.5922  1.4290
51721SOL     OW59973   2.555   3.652  12.643  0.1092  0.2910  0.7299
51721SOL    HW159974   2.641   3.663  12.602  0.0830 -0.7709  0.3550
51721SOL    HW259975   2.575   3.620  12.731  0.1036 -0.9941  0.2923
51722SOL     OW59976   0.584   4.960   1.333 -0.2862  0.2965  0.1413
51722SOL    HW159977   0.561   5.029   1.396 -0.2997  0.9668 -0.5891
51722SOL    HW259978   0.634   4.896   1.385  0.1064  1.0671  0.7276
51723SOL     OW59979   3.841   0.959  10.563  0.3306 -0.2315 -0.5417
51723SOL    HW159980   3.875   0.999  10.643  0.4566 -0.0599 -0.6809
51723SOL    HW259981   3.815   1.033  10.509  0.6255 -0.3364 -0.8280
51724SOL     OW59982   8.643   0.872   8.205  0.0056  0.1464 -0.3300
51724SOL    HW159983   8.737   0.867   8.187  0.1271  1.5804 -0.2118
51724SOL    HW259984   8.605   0.800   8.155  1.1510 -0.3839 -0.4679
51725SOL     OW59985   3.401   8.505   5.230 -0.4199  0.7010 -0.1237
51725SOL    HW159986   3.444   8.561   5.295 -0.5261  0.6073  0.0299
51725SOL    HW259987   3.468   8.489   5.164  0.4654 -1.1315  1.1437
51726SOL     OW59988   7.222   6.219   0.587 -0.2603  0.4729  0.3981
51726SOL    HW159989   7.252   6.227   0.496  2.8314 -1.7205  1.0875
51726SOL    HW259990   7.139   6.173   0.581  1.0067 -1.8142 -1.3209
51727SOL     OW59991   6.661   6.537   5.836  0.4235  0.7828 -1.0891
51727SOL    HW159992   6.633   6.447   5.855 -1.0840  1.2946 -0.7437
51727SOL    HW259993   6.739   6.549   5.889  1.4871 -0.7780 -2.2203
51728SOL     OW59994   1.096   6.922   9.538  0.0546 -0.6097  0.0771
51728SOL    HW159995   1.147   6.975   9.476 -0.2110  1.2350  1.3485
51728SOL    HW259996   1.145   6.926   9.620 -0.7628 -1.0621  0.6060
51729SOL     OW59997   4.099  11.356   2.051 -0.8419 -0.4742 -0.4183
51729SOL    HW159998   4.104  11.309   2.134 -0.4381 -2.9364 -1.7432
51729SOL    HW259999   4.186  11.392   2.038 -1.0592  0.3944  0.4559
51730SOL     OW60000   0.164   5.168   1.893 -0.5583 -0.2649  0.1864
51730SOL    HW160001   0.115   5.229   1.949  1.2116  1.2389  0.1870
51730SOL    HW260002   0.171   5.213   1.809  1.6165  0.0289  0.4760
51731SOL     OW60003   9.731  11.105   5.798 -0.0734  0.4527  0.1806
51731SOL    HW160004   9.659  11.149   5.844 -0.8270 -0.9858  0.4200
51731SOL    HW260005   9.783  11.064   5.867  1.7296  2.4418  0.1256
51732SOL     OW60006   4.157   7.364   8.172  0.5681 -0.0119 -0.2645
51732SOL    HW160007   4.142   7.408   8.256 -0.8753  0.1868 -0.5935
51732SOL    HW260008   4.127   7.427   8.107 -0.8152 -1.1383 -0.7847
51733SOL     OW60009   6.386   2.121   4.474 -0.0438 -0.1853  0.3189
51733SOL    HW160010   6.385   2.217   4.484 -3.5516 -0.2795  2.2442
51733SOL    HW260011   6.441   2.090   4.546  0.7985  0.2960 -0.0872
51734SOL     OW60012   7.005   6.393  10.943 -0.2356  0.2067 -0.3090
51734SOL    HW160013   6.996   6.488  10.935  0.5959  0.5751  2.1361
51734SOL    HW260014   6.933   6.358  10.892 -0.5103  2.1293 -1.3662
51735SOL     OW60015   2.873  11.730   9.619 -0.2135 -0.0009  0.5225
51735SOL    HW160016   2.803  11.786   9.655  0.7842 -0.0559  2.7448
51735SOL    HW260017   2.945  11.791   9.601 -1.0443  0.2107 -2.7078
51736SOL     OW60018  11.840   0.858   6.486 -0.6280 -0.0910  0.0744
51736SOL    HW160019  11.883   0.886   6.405 -1.3341  0.4005 -0.1384
51736SOL    HW260020  11.754   0.900   6.483 -0.3284  0.6960  1.5047
51737SOL     OW60021   6.049   2.344   9.020 -0.2394 -0.4544 -0.2693
51737SOL    HW160022   6.141   2.363   9.001 -0.1391 -0.6334  0.0360
51737SOL    HW260023   6.047   2.251   9.039 -0.4294 -0.3815  0.0696
51738SOL     OW60024  12.185   5.634   7.525  0.0621 -0.1099 -0.2298
51738SOL    HW160025  12.220   5.654   7.612 -0.4784 -1.6313  0.3683
51738SOL    HW260026  12.225   5.700   7.468 -1.0624  2.1675  1.4512
51739SOL     OW60027   9.694   9.912  10.447  0.0339  0.0017 -0.3337
51739SOL    HW160028   9.628   9.919  10.515 -1.2642  0.8928 -1.6106
51739SOL    HW260029   9.660   9.845  10.387  0.4635  0.1973 -0.8044
51740SOL     OW60030   4.517   4.153   8.062 -0.1234  0.1825  0.7396
51740SOL    HW160031   4.493   4.242   8.086 -0.5025 -0.3446  2.5300
51740SOL    HW260032   4.438   4.101   8.079 -0.0923 -0.4314 -0.8191
51741SOL     OW60033   1.347   1.463   5.420  0.5499  0.0888 -0.4139
51741SOL    HW160034   1.324   1.412   5.498  2.3367  0.2441  0.2590
51741SOL    HW260035   1.332   1.403   5.347  2.2367 -1.3141  0.3372
51742SOL     OW60036   8.122   9.933   1.323 -0.1828 -0.5647 -0.0785
51742SOL    HW160037   8.199   9.954   1.270  0.5953 -2.7756  0.1027
51742SOL    HW260038   8.148   9.955   1.412 -0.5303  0.6329 -0.2589
51743SOL     OW60039  12.204  11.107   0.097  0.0339  0.5619 -0.3711
51743SOL    HW160040  12.289  11.152   0.100  0.0183  0.6300 -0.8480
51743SOL    HW260041  12.218  11.034   0.038  0.4802 -0.9842  1.5385
51744SOL     OW60042   4.372   5.115  12.429 -0.2242  0.6131 -0.5821
51744SOL    HW160043   4.463   5.142  12.441 -0.9251  2.5525  0.8471
51744SOL    HW260044   4.325   5.157  12.501 -1.8863 -2.4080  0.2909
51745SOL     OW60045   3.790  10.821  10.078 -0.1485 -0.4402  1.2256
51745SOL    HW160046   3.700  10.841  10.052  0.3801  1.6776  0.8362
51745SOL    HW260047   3.783  10.790  10.169 -1.2600 -0.4219  1.1587
51746SOL     OW60048   2.088  11.534   4.678 -0.5065 -0.1637 -0.1311
51746SOL    HW160049   2.029  11.544   4.603 -1.2928 -2.3404  0.1080
51746SOL    HW260050   2.038  11.481   4.740  0.8241  0.0122  1.1468
51747SOL     OW60051   7.800  11.899   3.810  0.5980 -0.5980  0.7789
51747SOL    HW160052   7.869  11.918   3.747 -0.3365  1.2658  0.2498
51747SOL    HW260053   7.846  11.866   3.887  1.7675 -2.8634 -0.7907
51748SOL     OW60054  11.972   9.253  12.282  0.0509  0.1905 -0.0947
51748SOL    HW160055  12.041   9.283  12.341  1.7422  0.1432 -1.9738
51748SOL    HW260056  12.004   9.171  12.246 -1.1921 -0.0739 -0.6734
51749SOL     OW60057   0.781   9.978  11.470  0.6691 -0.1205 -1.3965
51749SOL    HW160058   0.728   9.935  11.403 -0.7357  0.4939 -0.7298
51749SOL    HW260059   0.739   9.953  11.553  1.0796  0.8535 -0.8820
51750SOL     OW60060  10.107   4.946   6.767  0.1058  0.5708 -0.1952
51750SOL    HW160061  10.048   4.987   6.831 -1.0444 -0.8253 -0.3006
51750SOL    HW260062  10.151   4.877   6.817 -1.5808 -1.2367 -1.0810
51751SOL     OW60063  11.656  10.860   8.943 -0.4619 -0.3769 -0.4200
51751SOL    HW160064  11.720  10.861   9.015  2.9400  2.0394 -3.1392
51751SOL    HW260065  11.628  10.769   8.939  3.5547 -1.9013  0.5331
51752SOL     OW60066   5.023   2.100   1.561 -0.3332 -0.0830 -0.0790
51752SOL    HW160067   5.048   2.060   1.645 -0.2359  1.0271  0.4454
51752SOL    HW260068   4.982   2.030   1.512 -0.6180 -0.6978  1.0067
51753SOL     OW60069   6.386   0.212   6.189  0.2845 -0.3700 -0.3484
51753SOL    HW160070   6.342   0.216   6.104  1.6532 -0.9815 -1.1312
51753SOL    HW260071   6.437   0.293   6.194  0.6392 -0.5856 -0.3760
51754SOL     OW60072   1.556   9.299  10.683 -0.0162  0.2892 -0.3498
51754SOL    HW160073   1.649   9.296  10.706  0.3903 -0.6934 -1.9187
51754SOL    HW260074   1.552   9.358  10.608 -0.4110 -0.8366 -1.2330
51755SOL     OW60075   7.450   0.133   7.407  0.0339  0.2793  0.1538
51755SOL    HW160076   7.520   0.094   7.459 -1.3675 -2.2636  0.3488
51755SOL    HW260077   7.375   0.137   7.467 -0.4734  1.2465 -0.5215
51756SOL     OW60078   3.517   1.178   2.870  0.1820 -0.5617  0.2017
51756SOL    HW160079   3.455   1.220   2.810  0.7392  0.5634  0.3891
51756SOL    HW260080   3.517   1.086   2.844 -0.5610 -0.3321 -0.6662
51757SOL     OW60081  12.018   4.935   7.356 -0.2095 -0.1265 -0.5183
51757SOL    HW160082  12.026   5.026   7.327  1.3060  0.5212  1.7002
51757SOL    HW260083  12.056   4.883   7.285 -1.2861  0.8914 -1.9064
51758SOL     OW60084   1.180   6.819   2.460  0.1202 -0.6002 -0.2512
51758SOL    HW160085   1.239   6.782   2.394  0.4146  0.5474 -0.6557
51758SOL    HW260086   1.152   6.744   2.513  0.2071 -1.4864 -1.4235
51759SOL     OW60087   7.238   8.412   1.856  0.1254 -0.2346 -0.0471
51759SOL    HW160088   7.266   8.403   1.947 -0.0321 -0.0234  0.0221
51759SOL    HW260089   7.166   8.475   1.859 -1.7230 -2.2508  0.0545
51760SOL     OW60090   0.090  10.168   0.635  0.0752 -0.4415 -0.4152
51760SOL    HW160091   0.038  10.198   0.560 -1.1347 -0.4876  0.3694
51760SOL    HW260092   0.049  10.211   0.711  0.1853 -1.7244  0.4009
51761SOL     OW60093   7.369   5.815  11.050 -0.0052  0.2080 -0.1175
51761SOL    HW160094   7.443   5.856  11.004  0.6548 -1.6068 -0.8019
51761SOL    HW260095   7.318   5.888  11.085  1.5574  1.5451 -0.5104
51762SOL     OW60096   1.433  10.202  11.633  0.1662  0.0944  0.1221
51762SOL    HW160097   1.504  10.147  11.601  1.6258  2.0037 -0.0891
51762SOL    HW260098   1.398  10.246  11.556 -0.2698  0.2628  0.4065
51763SOL     OW60099   5.020   3.502   1.861 -0.4448 -0.3220 -0.2393
51763SOL    HW160100   5.088   3.537   1.803  0.2406 -3.4800 -1.5998
51763SOL    HW260101   4.997   3.574   1.919  2.3920  1.5566 -1.2651
51764SOL     OW60102   2.125  10.783   0.073  0.1885  0.0313  0.5555
51764SOL    HW160103   2.092  10.869   0.046 -0.5061 -0.2486  0.4846
51764SOL    HW260104   2.046  10.733   0.094  0.4096 -1.2951 -1.4907
51765SOL     OW60105   4.524   8.181   4.176 -0.4806  0.4239  0.5668
51765SOL    HW160106   4.529   8.253   4.113  0.6141 -0.9240 -1.0048
51765SOL    HW260107   4.608   8.185   4.223 -0.0687 -0.2524 -0.0801
51766SOL     OW60108   6.425   6.246  10.238 -0.7868  0.2203  0.2866
51766SOL    HW160109   6.432   6.283  10.150 -1.1032 -0.7612 -0.1642
51766SOL    HW260110   6.513   6.218  10.260 -0.6891  0.5550  0.3278
51767SOL     OW60111   7.324   0.027   3.414  0.2557  0.0488 -0.1317
51767SOL    HW160112   7.373  -0.056   3.411  0.6824  0.2681  0.6922
51767SOL    HW260113   7.268   0.019   3.491 -2.4569 -0.9743 -2.0551
51768SOL     OW60114   8.272   6.836  11.446 -0.3403  0.0436  0.4874
51768SOL    HW160115   8.181   6.854  11.424 -0.6547  2.0793  2.9181
51768SOL    HW260116   8.323   6.893  11.389 -0.8313  1.4325  1.3863
51769SOL     OW60117   7.414   3.835   2.010 -0.5459  0.5061  0.6249
51769SOL    HW160118   7.499   3.818   2.051  0.6219  2.3262 -0.8961
51769SOL    HW260119   7.395   3.926   2.031 -1.4980  0.4982 -0.1403
51770SOL     OW60120   1.666   9.097   9.025  0.3309  0.4155 -0.4360
51770SOL    HW160121   1.600   9.108   9.093  0.9324 -1.2746  0.4650
51770SOL    HW260122   1.632   9.027   8.969  0.6603  0.5914 -0.8700
51771SOL     OW60123   8.237   9.728   3.174 -0.1108 -0.2881 -0.7817
51771SOL    HW160124   8.252   9.701   3.265 -0.2507 -0.2465 -0.7446
51771SOL    HW260125   8.322   9.723   3.132 -0.0583 -0.3744 -0.6641
51772SOL     OW60126   0.150   4.620  10.510 -0.1207 -0.2308 -0.0020
51772SOL    HW160127   0.141   4.526  10.525 -0.7553 -0.2804 -0.6275
51772SOL    HW260128   0.175   4.656  10.595  2.1923 -1.1966 -0.2007
51773SOL     OW60129   2.484   1.643   7.951  0.3846  0.0896  0.0882
51773SOL    HW160130   2.440   1.712   8.000 -1.3084  1.0453 -2.5437
51773SOL    HW260131   2.454   1.561   7.990 -2.6735  0.7510 -0.6128
51774SOL     OW60132   6.738   0.269  10.878 -0.3738 -0.3610  0.1762
51774SOL    HW160133   6.700   0.241  10.794  0.1992 -0.4046 -0.0744
51774SOL    HW260134   6.830   0.243  10.872  0.2186  1.6286 -0.1026
51775SOL     OW60135  11.335   9.849   6.448 -0.2350 -0.3157 -0.3159
51775SOL    HW160136  11.325   9.944   6.440 -0.1216 -0.3587 -1.0256
51775SOL    HW260137  11.264   9.813   6.395  0.1823 -0.6238 -0.6767
51776SOL     OW60138   7.658   3.903   3.799  0.0267  0.0930 -0.1333
51776SOL    HW160139   7.597   3.869   3.866  1.4811 -0.3352  1.0349
51776SOL    HW260140   7.646   3.998   3.803 -1.2329 -0.0178 -0.6137
51777SOL     OW60141   4.732   9.896   9.966  0.0960  0.1576  0.1800
51777SOL    HW160142   4.728   9.862   9.877 -3.1520 -3.2300  1.3609
51777SOL    HW260143   4.783   9.831  10.015 -0.4527  0.5340  1.3018
51778SOL     OW60144   8.788   7.887  10.793 -0.3587 -0.2702 -0.0677
51778SOL    HW160145   8.794   7.910  10.701 -0.5826  0.8439  0.1843
51778SOL    HW260146   8.873   7.848  10.814  0.0508  0.3828 -0.5007
51779SOL     OW60147   5.659   0.636   8.920  0.5505 -0.1190  0.2220
51779SOL    HW160148   5.716   0.653   8.845 -1.5386  1.6699 -1.0712
51779SOL    HW260149   5.574   0.614   8.881 -0.8540  1.7965  2.0011
51780SOL     OW60150  12.349   8.237   1.869  0.1933 -0.0095  0.4311
51780SOL    HW160151  12.326   8.155   1.826  0.4241  0.9808 -1.6686
51780SOL    HW260152  12.356   8.301   1.799  1.8924  1.4200  1.7889
51781SOL     OW60153   3.508   2.460   2.926 -0.0457  0.0438  0.2574
51781SOL    HW160154   3.550   2.533   2.881  0.2904 -0.2659  0.0566
51781SOL    HW260155   3.416   2.465   2.900  0.1800 -0.2518 -0.6511
51782SOL     OW60156   0.378  12.489  11.478  0.1392  0.3026  0.3608
51782SOL    HW160157   0.461  12.527  11.508 -0.1913  0.2662  1.3347
51782SOL    HW260158   0.405  12.412  11.427  0.7610  1.1865 -0.6938
51783SOL     OW60159   6.663   5.379  10.426  0.3051 -0.3206  0.0574
51783SOL    HW160160   6.678   5.455  10.481  0.3508 -0.3467  0.0801
51783SOL    HW260161   6.691   5.407  10.338  1.1823 -0.6107  0.2350
51784SOL     OW60162   4.551  11.441  10.684 -0.1801  0.3855  0.0569
51784SOL    HW160163   4.525  11.352  10.659  0.3102  0.6127 -1.3409
51784SOL    HW260164   4.494  11.498  10.634 -0.0127  0.8651  0.4068
51785SOL     OW60165  12.122   2.625   8.717 -0.3522  0.3740 -0.7956
51785SOL    HW160166  12.128   2.538   8.756 -1.3339  0.8938  0.6132
51785SOL    HW260167  12.146   2.613   8.625  0.1057 -1.2634 -0.4793
51786SOL     OW60168   5.837   2.884   7.322 -0.3159 -0.3038 -0.6777
51786SOL    HW160169   5.859   2.948   7.253 -0.8066  1.6282  0.8572
51786SOL    HW260170   5.901   2.814   7.311  2.5622  2.0876 -0.3134
51787SOL     OW60171  10.723   9.800  11.514  0.2361 -0.4660 -0.4068
51787SOL    HW160172  10.797   9.742  11.496  1.7135  1.0198  0.6107
51787SOL    HW260173  10.705   9.789  11.607  0.4140  0.5579 -0.2429
51788SOL     OW60174   1.123   3.468  11.400  0.3907  0.5391  0.4241
51788SOL    HW160175   1.212   3.504  11.410  0.0741  1.0406  1.6468
51788SOL    HW260176   1.137   3.381  11.362  1.2602  1.3903 -1.3537
51789SOL     OW60177   8.250   2.644   8.682 -0.9048 -0.2267 -0.2153
51789SOL    HW160178   8.220   2.629   8.772 -0.0580 -0.8646 -0.0195
51789SOL    HW260179   8.312   2.573   8.666  0.9759  1.3675 -0.3712
51790SOL     OW60180   6.683   6.426   2.387  0.1008  0.0567 -0.1569
51790SOL    HW160181   6.777   6.427   2.367 -0.4678  1.0465 -3.4224
51790SOL    HW260182   6.660   6.518   2.401 -0.4657 -0.1127  0.0594
51791SOL     OW60183   3.928   1.909   1.585  0.5952 -0.0811 -0.3634
51791SOL    HW160184   3.896   1.964   1.656 -0.5047 -1.4258  0.2158
51791SOL    HW260185   3.879   1.939   1.508  1.9642  1.5429 -0.6839
51792SOL     OW60186   7.279   1.799   2.549  0.0918 -0.4022  0.1777
51792SOL    HW160187   7.374   1.790   2.542  0.2926  2.1588 -2.0906
51792SOL    HW260188   7.258   1.763   2.635  2.9754 -1.8453  0.4043
51793SOL     OW60189   2.820   8.748   4.597  0.0021 -0.3161  0.0819
51793SOL    HW160190   2.787   8.790   4.517 -3.4709 -0.7750  1.0900
51793SOL    HW260191   2.741   8.720   4.643  1.8984 -0.8665  3.2822
51794SOL     OW60192   6.754   3.773   9.619 -0.4711  0.5165 -0.5044
51794SOL    HW160193   6.833   3.761   9.567  1.5152  0.2213  2.3838
51794SOL    HW260194   6.724   3.861   9.597  1.5632  1.2449 -0.5466
51795SOL     OW60195   3.192   5.571   6.712 -0.6167 -0.0482 -0.5130
51795SOL    HW160196   3.286   5.584   6.715 -0.5909  0.1640 -1.6622
51795SOL    HW260197   3.161   5.597   6.799  0.2672  0.8498 -0.4458
51796SOL     OW60198   3.249   5.120   6.420 -0.8654  0.7884 -0.0356
51796SOL    HW160199   3.212   5.173   6.491  0.7692  0.0974  1.3823
51796SOL    HW260200   3.303   5.181   6.370  0.0138  0.7464  0.8483
51797SOL     OW60201   8.340   1.697  12.172  0.1590 -0.2997  0.3349
51797SOL    HW160202   8.245   1.709  12.162  0.1120 -0.0002  1.0516
51797SOL    HW260203   8.348   1.636  12.245  0.5274  0.1934  0.7146
51798SOL     OW60204   6.945   1.112   5.289  0.3532 -0.1865  0.5721
51798SOL    HW160205   6.977   1.202   5.291  0.7270 -0.2652 -0.7920
51798SOL    HW260206   6.986   1.070   5.365  0.7251  0.6046  0.8199
51799SOL     OW60207   2.557   7.397   3.167 -0.0002 -0.1883  0.4290
51799SOL    HW160208   2.494   7.331   3.194 -0.7318  0.4661  0.3294
51799SOL    HW260209   2.535   7.474   3.219  0.0086  0.3854 -0.4099
51800SOL     OW60210  10.669  12.457   3.141 -0.1256  0.4936 -0.2092
51800SOL    HW160211  10.641  12.444   3.050 -0.2987 -1.3203  0.0804
51800SOL    HW260212  10.670  12.552   3.152 -1.1725  0.7166 -1.7711
51801SOL     OW60213   6.849   7.854   1.825  0.0914  0.3363  0.1579
51801SOL    HW160214   6.791   7.787   1.788  0.8197  0.0746 -0.5430
51801SOL    HW260215   6.920   7.804   1.866 -0.3137  0.6472  1.2570
51802SOL     OW60216   3.634   0.122   2.475  0.5103  0.4403  0.0453
51802SOL    HW160217   3.696   0.059   2.513  0.8830  1.4232  1.1336
51802SOL    HW260218   3.552   0.105   2.521  0.0176 -0.6272 -1.1526
51803SOL     OW60219  10.534   0.351  10.633  0.5120  0.5995  0.1280
51803SOL    HW160220  10.499   0.397  10.710 -0.0360  0.7230 -0.1948
51803SOL    HW260221  10.607   0.406  10.604  1.6754 -0.1954  1.4265
51804SOL     OW60222   3.032   2.837   3.159 -0.4023  0.1718  0.3485
51804SOL    HW160223   2.986   2.865   3.238  0.9803  0.6341  1.0228
51804SOL    HW260224   3.038   2.917   3.105 -0.7240  0.0194  0.0806
51805SOL     OW60225   8.903   0.288  10.931 -0.2722 -0.3250 -0.4111
51805SOL    HW160226   8.852   0.347  10.986  1.2999  1.1513 -0.4675
51805SOL    HW260227   8.873   0.305  10.842  0.2022  0.4331 -0.4319
51806SOL     OW60228   7.154   4.023   1.641 -0.1456  0.3650 -0.4238
51806SOL    HW160229   7.177   3.965   1.568 -0.8460 -1.2838  0.6093
51806SOL    HW260230   7.084   3.977   1.687  1.2044  0.6689  2.1108
51807SOL     OW60231  11.200   4.225   0.961 -0.2480 -0.2838  0.3421
51807SOL    HW160232  11.261   4.228   1.035  1.5645 -0.9545 -1.0553
51807SOL    HW260233  11.244   4.271   0.890 -1.8020  0.0567 -0.4635
51808SOL     OW60234   5.291   1.291  12.037  0.6756 -0.1008  0.0461
51808SOL    HW160235   5.340   1.253  12.109  0.8895 -0.1928 -0.1447
51808SOL    HW260236   5.358   1.322  11.976  0.6094  2.9484  1.3461
51809SOL     OW60237   4.600   3.954   5.412 -0.5080 -0.0850  0.1685
51809SOL    HW160238   4.544   4.012   5.360 -1.7304 -2.1399 -0.9429
51809SOL    HW260239   4.639   3.895   5.348  0.9587 -0.3330  1.2311
51810SOL     OW60240   7.608   0.612   6.795 -0.0680  0.1247  0.5333
51810SOL    HW160241   7.651   0.548   6.852 -0.4503 -0.0484  0.6312
51810SOL    HW260242   7.526   0.571   6.770 -0.0738  0.3570  0.1578
51811SOL     OW60243   9.947   1.487   3.960  0.2186 -0.0502 -0.0226
51811SOL    HW160244   9.960   1.438   3.879 -1.5227  1.0231 -1.0379
51811SOL    HW260245   9.852   1.503   3.963  0.4063  1.0212  1.5708
51812SOL     OW60246  10.589  12.216   9.960  0.1422 -0.1904 -0.3466
51812SOL    HW160247  10.518  12.152   9.961  0.0084 -0.1579 -2.6501
51812SOL    HW260248  10.547  12.299   9.983 -0.0880 -0.5602  0.5966
51813SOL     OW60249  10.348   9.822  11.316  0.6750 -0.0099  0.1329
51813SOL    HW160250  10.383   9.910  11.307  1.6491 -0.4656 -0.9217
51813SOL    HW260251  10.313   9.801  11.229 -0.4753 -0.2818  0.6550
51814SOL     OW60252   8.153   7.829   0.617 -0.0673 -0.2970  0.7522
51814SOL    HW160253   8.167   7.735   0.630  1.1309 -0.2794 -0.2909
51814SOL    HW260254   8.066   7.845   0.655 -0.0308 -1.6947  1.5076
51815SOL     OW60255   5.505   4.104   1.884 -0.0725 -0.4332  0.1933
51815SOL    HW160256   5.478   4.196   1.888 -1.3961 -0.8429  1.2484
51815SOL    HW260257   5.555   4.090   1.964  2.5353  0.0284 -1.2354
51816SOL     OW60258   6.224   8.230   5.551 -0.0663  0.4400  0.2470
51816SOL    HW160259   6.289   8.300   5.562  1.6640 -1.0781  0.0600
51816SOL    HW260260   6.275   8.149   5.550 -1.9971 -0.8476  0.3065
51817SOL     OW60261   9.757   4.266   6.790 -0.2025 -0.5628 -0.8186
51817SOL    HW160262   9.723   4.344   6.745  1.2449  0.9366  0.5510
51817SOL    HW260263   9.683   4.232   6.840 -0.2184  1.6388  0.7883
51818SOL     OW60264   8.059   9.894  10.275 -0.2970  0.1334 -0.2415
51818SOL    HW160265   8.144   9.932  10.252 -1.0239  0.5979 -2.4472
51818SOL    HW260266   8.006   9.970  10.302 -0.1250 -0.1169  0.8499
51819SOL     OW60267   5.386   1.757   0.875 -0.4323 -0.1418 -0.4056
51819SOL    HW160268   5.472   1.785   0.908 -0.0911  1.4959 -2.4932
51819SOL    HW260269   5.398   1.664   0.855  0.6158 -0.1371  0.0978
51820SOL     OW60270   4.369   9.581   6.595 -0.1066 -0.3584  0.5583
51820SOL    HW160271   4.308   9.655   6.602 -0.7158 -0.4864 -2.1359
51820SOL    HW260272   4.313   9.504   6.606 -0.5411 -0.4765 -1.9230
51821SOL     OW60273  10.285   9.375   0.946 -0.0034  0.3126 -0.3884
51821SOL    HW160274  10.364   9.324   0.933  1.0624  1.3105  1.6604
51821SOL    HW260275  10.268   9.416   0.861 -1.3621 -3.8331 -2.3720
51822SOL     OW60276  12.605  10.072   1.749 -0.6932  0.0443 -0.1670
51822SOL    HW160277  12.534  10.052   1.687  0.4243 -2.1329 -0.8335
51822SOL    HW260278  12.583  10.021   1.827 -0.9390  1.0461  0.4318
51823SOL     OW60279   1.611  10.716  12.148 -0.1775  0.4278  0.3515
51823SOL    HW160280   1.562  10.642  12.114  1.9825 -0.8917 -0.1005
51823SOL    HW260281   1.623  10.697  12.241  0.6133  0.0275  0.1797
51824SOL     OW60282   4.209   7.901   2.198 -0.1105  0.1466 -0.2644
51824SOL    HW160283   4.257   7.980   2.171 -0.1317 -0.0561 -0.9232
51824SOL    HW260284   4.161   7.875   2.119 -1.1188  0.2125  0.3137
51825SOL     OW60285   1.074   5.183   4.305 -0.1726 -0.4001 -0.2400
51825SOL    HW160286   1.058   5.093   4.334  0.4540 -0.0979  1.1081
51825SOL    HW260287   1.028   5.237   4.368  1.1292  0.2757  0.1628
51826SOL     OW60288   6.434   9.679   3.780 -0.3205 -0.1413 -0.0303
51826SOL    HW160289   6.474   9.599   3.748  0.5839  0.2287  0.1393
51826SOL    HW260290   6.480   9.749   3.735  0.4046  0.3582  1.4172
51827SOL     OW60291   6.880   3.295   8.968  0.7755  0.5873 -0.2418
51827SOL    HW160292   6.868   3.234   9.040  4.0760  0.3112  0.2482
51827SOL    HW260293   6.797   3.342   8.962 -1.1727 -2.4150  0.7366
51828SOL     OW60294   9.258   2.592  11.477  0.1665 -0.4014  0.1769
51828SOL    HW160295   9.306   2.670  11.503  0.1871 -0.2502 -0.3088
51828SOL    HW260296   9.273   2.584  11.382 -1.3604  0.0853 -0.1371
51829SOL     OW60297  10.362   6.158  10.921  0.8598  0.2167  0.6116
51829SOL    HW160298  10.399   6.198  10.999  2.6230 -2.0058  1.0117
51829SOL    HW260299  10.267   6.164  10.933  1.0979  0.8945  2.3754
51830SOL     OW60300  10.868   1.226   0.487  0.1517  0.2979  0.0798
51830SOL    HW160301  10.854   1.311   0.446 -0.2701 -0.5764 -1.7180
51830SOL    HW260302  10.904   1.246   0.573 -1.2539  2.3265  0.2658
51831SOL     OW60303   1.602   9.377   0.086  0.4281 -0.0998  0.0404
51831SOL    HW160304   1.587   9.429   0.165  2.3414  0.1531  0.2810
51831SOL    HW260305   1.600   9.286   0.117  0.9471 -0.0127  0.3331
51832SOL     OW60306   2.770   9.897   5.366 -0.6613  0.3240 -0.2096
51832SOL    HW160307   2.755   9.991   5.357  0.4878  0.6139  0.6650
51832SOL    HW260308   2.786   9.884   5.459 -1.3333 -0.8322 -0.2364
51833SOL     OW60309   7.351   5.971   7.707  0.1305 -0.1233  0.2559
51833SOL    HW160310   7.438   6.005   7.685 -0.7829  1.4430 -1.1760
51833SOL    HW260311   7.341   5.893   7.654  0.2710  0.2967 -0.4041
51834SOL     OW60312  10.952   3.188   3.219 -0.1039  0.7078  0.5867
51834SOL    HW160313  10.883   3.225   3.273 -0.0482  1.1705  0.3436
51834SOL    HW260314  11.006   3.263   3.195  0.2234  0.4134  0.3993
51835SOL     OW60315   8.815   5.576   6.010  0.2888 -0.3151  0.4457
51835SOL    HW160316   8.837   5.485   6.030 -0.4030 -1.7818 -4.3557
51835SOL    HW260317   8.720   5.577   6.003  0.4100 -0.1389 -2.4944
51836SOL     OW60318  10.581   0.852   2.562  0.3299  0.1188  0.2229
51836SOL    HW160319  10.528   0.774   2.580 -1.0293  1.3577  1.9085
51836SOL    HW260320  10.645   0.854   2.633 -0.5382  1.2411  1.0165
51837SOL     OW60321   6.251   0.003   3.520 -0.3922  0.3773  0.3587
51837SOL    HW160322   6.241   0.044   3.434 -2.7874  1.3731  1.0328
51837SOL    HW260323   6.338  -0.037   3.518 -0.1858  0.8135 -2.3206
51838SOL     OW60324  11.946   3.246   2.653  0.9970 -0.0189 -0.1679
51838SOL    HW160325  11.896   3.165   2.640  0.5553  0.1843  0.2080
51838SOL    HW260326  11.984   3.236   2.740 -0.4245  0.8763  0.5796
51839SOL     OW60327   5.201  10.622   1.114 -0.2736  0.2996 -0.3193
51839SOL    HW160328   5.210  10.632   1.209 -0.3653  1.0138 -0.3846
51839SOL    HW260329   5.106  10.622   1.099 -0.2821 -0.6182 -0.3334
51840SOL     OW60330   2.675   2.733  11.136  0.3765 -0.7047  0.3291
51840SOL    HW160331   2.589   2.715  11.175  0.6593 -1.9006  0.4469
51840SOL    HW260332   2.678   2.828  11.127 -0.9442 -0.6362  0.3699
51841SOL     OW60333   4.952  10.070   0.180  0.1783  0.1099  0.3210
51841SOL    HW160334   4.934   9.986   0.220  0.6712 -0.5388 -0.7744
51841SOL    HW260335   4.868  10.116   0.179 -0.3910 -0.9346 -0.3767
51842SOL     OW60336   0.656   7.404   5.269 -0.3242 -0.2381  0.0267
51842SOL    HW160337   0.714   7.422   5.195 -1.0210 -0.7627 -0.6708
51842SOL    HW260338   0.701   7.336   5.319  0.3952  0.4896  0.3872
51843SOL     OW60339  11.908  11.193  10.684 -0.2024 -0.5257  0.2502
51843SOL    HW160340  11.930  11.114  10.635 -1.0387 -1.6378  1.6196
51843SOL    HW260341  11.975  11.256  10.659  1.4817 -2.1849  0.3877
51844SOL     OW60342   0.823   3.672   6.497 -0.1972 -0.7003 -0.3968
51844SOL    HW160343   0.916   3.694   6.495  0.2983 -2.6164 -1.7093
51844SOL    HW260344   0.780   3.738   6.443  0.6417 -0.7032 -1.0752
51845SOL     OW60345   4.711   6.073   0.265 -0.4888 -0.2112 -0.1626
51845SOL    HW160346   4.718   6.073   0.361 -2.3011 -0.6099  0.0073
51845SOL    HW260347   4.676   6.160   0.244  0.0356 -0.0758 -0.4854
51846SOL     OW60348   4.381   8.883  12.575  0.2745 -0.2290  0.3950
51846SOL    HW160349   4.413   8.803  12.533  0.2631 -0.5461  0.9865
51846SOL    HW260350   4.344   8.934  12.503 -0.1862 -0.9789  0.0858
51847SOL     OW60351   7.012  12.434  11.582 -0.4394 -0.3682  0.1011
51847SOL    HW160352   6.967  12.502  11.532 -0.2746  1.1133  1.8139
51847SOL    HW260353   7.064  12.386  11.518 -2.3155 -0.3417 -1.4924
51848SOL     OW60354  12.474   4.489  12.201 -0.3961  0.1738  0.0213
51848SOL    HW160355  12.446   4.461  12.288  0.6204 -0.7498  0.0737
51848SOL    HW260356  12.409   4.452  12.142 -2.2513  2.4645  0.4728
51849SOL     OW60357   3.992  10.412   4.567 -0.1889 -0.0674 -0.4919
51849SOL    HW160358   3.940  10.431   4.489  0.5059 -1.3709 -1.3105
51849SOL    HW260359   4.019  10.498   4.599 -1.0676  0.5207 -1.2742
51850SOL     OW60360   4.889   7.664   5.303 -0.3337 -0.5807 -0.0470
51850SOL    HW160361   4.820   7.620   5.353 -1.1971  0.0079 -0.7031
51850SOL    HW260362   4.926   7.595   5.249 -0.2857 -0.9406  0.4371
51851SOL     OW60363   2.591   4.584  11.480  0.3373  0.0165 -0.1527
51851SOL    HW160364   2.623   4.609  11.393 -0.2078  0.8784 -0.1272
51851SOL    HW260365   2.539   4.660  11.508  0.4014 -0.3046  0.8713
51852SOL     OW60366   3.862  11.966  10.210  0.4906  0.1808 -0.3335
51852SOL    HW160367   3.860  12.035  10.277 -1.3512  1.6467 -1.7766
51852SOL    HW260368   3.926  11.997  10.146 -0.7148  0.8523 -1.2421
51853SOL     OW60369   2.357  11.519  10.853  0.0550 -0.2399  0.3879
51853SOL    HW160370   2.335  11.560  10.937 -0.4973 -0.1341  0.1923
51853SOL    HW260371   2.424  11.576  10.816  0.1270 -0.1534  0.6456
51854SOL     OW60372   6.640   2.359   2.503 -0.0557 -0.3013 -0.1697
51854SOL    HW160373   6.626   2.304   2.580  1.2733 -0.5666 -0.0910
51854SOL    HW260374   6.728   2.396   2.515  0.0975 -0.1852 -1.4590
51855SOL     OW60375  12.647   0.293   2.203 -0.1983  0.2780 -0.3923
51855SOL    HW160376  12.675   0.248   2.282  1.2801  0.7064 -0.6358
51855SOL    HW260377  12.552   0.283   2.202 -0.3131  0.6681  1.6805
51856SOL     OW60378   8.043   0.518  11.106 -0.4811  0.0960  0.9173
51856SOL    HW160379   7.976   0.585  11.100 -1.4174 -0.9770 -1.9913
51856SOL    HW260380   8.040   0.472  11.022  1.1561 -2.6044  2.1873
51857SOL     OW60381  12.636  10.142   3.914  0.0648  0.4583 -0.2390
51857SOL    HW160382  12.630  10.169   3.822  0.1059 -2.1066 -1.0917
51857SOL    HW260383  12.697  10.204   3.953  2.8297 -0.3688 -2.8509
51858SOL     OW60384   5.412  10.937   9.765  0.3622  0.1418 -0.6142
51858SOL    HW160385   5.492  10.965   9.810 -0.0309  2.4412 -1.2130
51858SOL    HW260386   5.360  10.895   9.834  2.1701 -1.6978 -0.2931
51859SOL     OW60387   9.870  10.692   0.766  0.0081  0.3367  0.1209
51859SOL    HW160388   9.800  10.721   0.825 -1.0311  0.3041 -1.0805
51859SOL    HW260389   9.852  10.736   0.683  0.2426 -1.2342 -0.8041
51860SOL     OW60390   7.658   9.633   1.135 -0.0813  0.4361  0.1472
51860SOL    HW160391   7.625   9.569   1.199  0.2294 -0.2173 -0.3286
51860SOL    HW260392   7.582   9.655   1.082 -0.6302  1.9300  1.4985
51861SOL     OW60393   2.331   7.456  10.990 -0.3169  0.7807 -0.6434
51861SOL    HW160394   2.377   7.511  11.054 -1.1639  0.9392 -0.1594
51861SOL    HW260395   2.394   7.387  10.968  0.0750  0.8668  0.1689
51862SOL     OW60396   1.067  11.013   8.031  0.1055  0.0899 -0.0397
51862SOL    HW160397   1.063  11.079   8.100  2.9436 -1.1300  1.4449
51862SOL    HW260398   1.136  11.043   7.973  1.3660 -1.4073  0.6006
51863SOL     OW60399   4.917   3.462   7.893 -0.4374  0.3091 -0.4102
51863SOL    HW160400   4.839   3.512   7.871 -0.1099  0.4733 -1.2241
51863SOL    HW260401   4.883   3.380   7.929 -1.0104  1.6203  2.3576
51864SOL     OW60402  10.393   8.105   1.730 -0.5075  1.2925  0.9159
51864SOL    HW160403  10.401   8.048   1.807 -2.0068 -0.2496 -0.0101
51864SOL    HW260404  10.299   8.120   1.721 -0.8351 -1.5750 -2.6306
51865SOL     OW60405   3.979   3.137   5.766  0.1888  0.2274  0.3963
51865SOL    HW160406   3.930   3.058   5.745  0.7577 -0.4012  1.3480
51865SOL    HW260407   3.914   3.197   5.802  0.3188 -1.4135  3.8535
51866SOL     OW60408   1.709   6.363  12.483  0.3223 -0.3976 -0.1811
51866SOL    HW160409   1.688   6.431  12.419  1.1232  1.5114  1.4938
51866SOL    HW260410   1.794   6.388  12.519  0.8778 -2.5620  0.1792
51867SOL     OW60411   4.691  10.017   2.045 -0.2788 -0.1257  0.5405
51867SOL    HW160412   4.762   9.953   2.045  1.2196  1.3836 -1.6315
51867SOL    HW260413   4.630   9.985   1.979 -0.8703 -0.6022  1.2950
51868SOL     OW60414   9.825  12.376  10.390  0.4041 -0.0131  0.2145
51868SOL    HW160415   9.910  12.334  10.378  0.5207  0.1378  0.5067
51868SOL    HW260416   9.811  12.424  10.308  0.8398  0.3800  0.3654
51869SOL     OW60417  11.423   1.530  10.098  0.7941  0.1149  0.1121
51869SOL    HW160418  11.335   1.518  10.134 -0.1635  0.5410 -1.9272
51869SOL    HW260419  11.466   1.445  10.109  1.2130  0.6131  3.6276
51870SOL     OW60420   0.438   8.157   4.942 -0.1278  0.3405 -0.0182
51870SOL    HW160421   0.386   8.126   5.016  0.9357 -1.7802 -0.0838
51870SOL    HW260422   0.529   8.145   4.970  0.3013 -0.7331 -1.7047
51871SOL     OW60423   0.241   4.954   2.500  0.5727 -0.0235 -0.4986
51871SOL    HW160424   0.221   4.860   2.509  0.8726 -0.1140 -0.7983
51871SOL    HW260425   0.289   4.975   2.580 -1.3654  0.3781  0.6408
51872SOL     OW60426   0.641  10.698  11.718  0.0867 -0.1704  0.0795
51872SOL    HW160427   0.612  10.628  11.775  1.5224 -0.6462  0.2578
51872SOL    HW260428   0.730  10.718  11.747  1.0005 -0.6548 -2.1364
51873SOL     OW60429  10.280   3.844   8.813 -0.2469 -0.7746  0.4953
51873SOL    HW160430  10.333   3.844   8.734  0.8630 -1.0634  1.2097
51873SOL    HW260431  10.189   3.853   8.782  0.3000  1.5812 -0.6874
51874SOL     OW60432   5.710  11.897  11.559  0.5247  0.0098 -0.1702
51874SOL    HW160433   5.666  11.830  11.611  0.0833 -0.1848 -0.7769
51874SOL    HW260434   5.720  11.857  11.473  1.0557  0.4011 -0.2922
51875SOL     OW60435   6.111  10.094   2.683 -0.5540 -0.7975 -0.0122
51875SOL    HW160436   6.019  10.113   2.705 -0.9874 -0.5622 -1.8631
51875SOL    HW260437   6.110  10.007   2.645  0.5613 -2.2569  2.9955
51876SOL     OW60438   7.700  10.076   8.723  0.1915  0.2507  0.0699
51876SOL    HW160439   7.769  10.039   8.778  0.0724 -0.6084 -0.3561
51876SOL    HW260440   7.742  10.149   8.677  0.6108  0.1942  0.3605
51877SOL     OW60441  12.574   2.172   4.696 -0.5637  0.0288  0.0083
51877SOL    HW160442  12.606   2.259   4.719 -0.5316  0.3200 -1.0631
51877SOL    HW260443  12.645   2.133   4.644 -0.5006 -0.7117  0.6400
51878SOL     OW60444   1.708  11.043   5.793 -0.1742 -0.4999 -0.0561
51878SOL    HW160445   1.706  11.114   5.730 -0.3276 -0.2238  0.2592
51878SOL    HW260446   1.674  10.967   5.745 -0.0890 -0.3414 -0.3655
51879SOL     OW60447  11.937   3.262  10.388  0.3985 -0.6194 -0.5883
51879SOL    HW160448  11.951   3.322  10.314 -0.5258  0.0613 -0.2262
51879SOL    HW260449  12.024   3.232  10.411  0.6871 -1.1134 -2.1769
51880SOL     OW60450   3.989   8.462  10.041  0.6504 -0.2846 -0.3136
51880SOL    HW160451   3.991   8.447  10.135  0.5649  0.1146 -0.2475
51880SOL    HW260452   3.978   8.556  10.031 -0.5350 -0.4483 -0.7104
51881SOL     OW60453   5.463   1.057  12.016 -0.1759 -0.3582 -0.2783
51881SOL    HW160454   5.371   1.082  12.009  0.2735  1.5805  0.0853
51881SOL    HW260455   5.503   1.090  11.936  0.6099  0.9591  0.6161
51882SOL     OW60456   0.837   9.985   8.693  0.6038  0.1769 -0.0166
51882SOL    HW160457   0.887   9.903   8.693  1.1251  0.4564 -1.6681
51882SOL    HW260458   0.745   9.958   8.694  0.7459 -0.3641  1.6477
51883SOL     OW60459  12.480  12.179   5.553  0.5275 -0.0627  0.2773
51883SOL    HW160460  12.445  12.094   5.582  0.6609 -0.5299 -0.8589
51883SOL    HW260461  12.475  12.175   5.457 -0.2888  1.5657  0.2150
51884SOL     OW60462   0.573   1.267  12.228  0.4505  0.1017 -0.1390
51884SOL    HW160463   0.540   1.257  12.138  2.1904 -1.1738 -0.6812
51884SOL    HW260464   0.505   1.318  12.272  0.0469  1.7064 -2.4435
51885SOL     OW60465   9.747  12.433   6.995  0.3640  0.0609  0.1738
51885SOL    HW160466   9.842  12.444   6.993  0.1814  1.7697  0.1530
51885SOL    HW260467   9.730  12.393   7.080  0.8369  3.0959  1.8375
51886SOL     OW60468   5.614  11.168   2.316 -0.2573  0.5205 -0.2248
51886SOL    HW160469   5.538  11.115   2.293 -0.6851  1.1814 -0.3554
51886SOL    HW260470   5.683  11.138   2.257  0.0602 -1.1835  0.9430
51887SOL     OW60471   5.343   6.825   2.100 -0.1745  0.0413  1.0700
51887SOL    HW160472   5.311   6.771   2.172 -0.1794  0.7796  1.6320
51887SOL    HW260473   5.287   6.903   2.101 -0.3662 -0.0732  0.0743
51888SOL     OW60474   1.743   2.179   5.580 -0.1777  0.5828  0.2055
51888SOL    HW160475   1.794   2.107   5.617  0.8485  0.8122 -0.7075
51888SOL    HW260476   1.767   2.256   5.631 -0.2862  0.5226  0.3473
51889SOL     OW60477   1.815   3.305   1.969  0.4405  0.0967  0.1514
51889SOL    HW160478   1.893   3.310   1.914 -0.5868 -0.4864 -1.4295
51889SOL    HW260479   1.812   3.213   1.997 -0.6302 -0.3580 -1.3218
51890SOL     OW60480   2.627   9.958  10.908  0.0744  0.0589 -0.2970
51890SOL    HW160481   2.685  10.010  10.853 -0.2382  0.4438 -0.2633
51890SOL    HW260482   2.541   9.998  10.898  0.0791  0.3751  0.7677
51891SOL     OW60483   9.319   2.020   7.942 -0.1280  0.2325  0.2507
51891SOL    HW160484   9.283   1.948   7.891 -1.3137  1.9613 -1.5104
51891SOL    HW260485   9.316   1.990   8.032 -0.5267 -1.9153 -0.4226
51892SOL     OW60486  10.191  10.902   6.578 -0.2469 -0.4025 -0.5585
51892SOL    HW160487  10.240  10.882   6.499 -0.1724 -1.1257 -0.3348
51892SOL    HW260488  10.119  10.839   6.578 -0.3586 -0.2759 -0.1569
51893SOL     OW60489   8.377   9.846   6.566  0.2725  0.1137 -0.4108
51893SOL    HW160490   8.433   9.770   6.584  0.7262  0.8675  1.6466
51893SOL    HW260491   8.327   9.858   6.647 -0.4582  1.4677 -1.0426
51894SOL     OW60492   2.106   5.496  11.305 -0.7140  0.2229 -0.3862
51894SOL    HW160493   2.075   5.447  11.229 -2.4747  0.2828  0.2483
51894SOL    HW260494   2.149   5.431  11.360 -2.0436 -0.4348 -0.0829
51895SOL     OW60495   5.015   4.858   8.908 -0.2662 -0.7296  0.3703
51895SOL    HW160496   5.010   4.954   8.912 -0.0493 -0.7058  0.1235
51895SOL    HW260497   5.106   4.840   8.883 -0.3725 -0.9905  0.1628
51896SOL     OW60498   4.437   1.789  10.933  0.1806  0.2584  0.5937
51896SOL    HW160499   4.439   1.807  10.839  0.0481  1.5203  0.8024
51896SOL    HW260500   4.498   1.852  10.970 -0.5275  0.4694  1.4428
51897SOL     OW60501   3.380   2.893  11.622 -0.2832 -0.1942 -0.0892
51897SOL    HW160502   3.389   2.978  11.665  0.8963 -0.5510  0.4055
51897SOL    HW260503   3.439   2.836  11.670 -3.1602 -2.0738  1.5292
51898SOL     OW60504  11.278   8.703   6.377 -0.5765  0.1573 -0.2681
51898SOL    HW160505  11.284   8.791   6.415  2.0677  0.2592 -0.7848
51898SOL    HW260506  11.223   8.714   6.299 -2.0462  0.8717  0.7993
51899SOL     OW60507   3.083  12.419   1.376 -0.2006 -0.2302  0.1928
51899SOL    HW160508   3.166  12.427   1.422  0.2521  0.8434 -0.7461
51899SOL    HW260509   3.074  12.326   1.357  0.9602 -0.3173  0.0151
51900SOL     OW60510   7.971   4.715   7.678  0.5332  0.0759  0.5205
51900SOL    HW160511   8.021   4.739   7.756  0.8794  0.6647  0.1316
51900SOL    HW260512   7.883   4.697   7.709  0.1055  2.3930  0.8001
51901SOL     OW60513   9.008   6.775   9.057 -0.6118  0.0984  0.1210
51901SOL    HW160514   9.019   6.870   9.056  1.3475 -0.0845  0.6563
51901SOL    HW260515   9.018   6.749   8.965 -0.2632  0.3327  0.0911
51902SOL     OW60516   8.986   7.739   3.275 -0.1757  0.0123  0.1254
51902SOL    HW160517   9.079   7.720   3.260 -0.6178 -0.6795 -2.0490
51902SOL    HW260518   8.970   7.817   3.222 -0.5742  0.8999  1.5091
51903SOL     OW60519   8.676  11.865   6.063  0.5191 -0.5676  0.0586
51903SOL    HW160520   8.610  11.898   6.124 -0.7382 -2.8580  0.0610
51903SOL    HW260521   8.627  11.848   5.983  1.6626  0.0787 -0.7929
51904SOL     OW60522   2.574   4.413   7.163 -0.2781 -0.3287  0.4516
51904SOL    HW160523   2.491   4.369   7.181 -0.6616  0.6078  1.0299
51904SOL    HW260524   2.640   4.343   7.169 -0.9903 -1.0421  0.1814
51905SOL     OW60525   2.974   8.110   2.496  0.5121 -0.6014  0.3066
51905SOL    HW160526   2.924   8.057   2.559  1.4395 -1.6212  0.2113
51905SOL    HW260527   2.916   8.114   2.419 -1.0858  1.5353  1.5164
51906SOL     OW60528   1.912   2.586  12.300 -0.8312  0.2600  0.7032
51906SOL    HW160529   1.824   2.548  12.303 -0.6057 -0.2187  1.6107
51906SOL    HW260530   1.968   2.521  12.342 -0.0137  0.5126  0.0352
51907SOL     OW60531   2.326  10.308   7.606  0.4191 -0.5707 -1.0184
51907SOL    HW160532   2.397  10.372   7.595 -0.3651  0.4852 -0.1609
51907SOL    HW260533   2.263  10.330   7.537 -1.0707  1.3344  0.8191
51908SOL     OW60534  11.526   4.745   2.506 -0.0377  0.1060 -0.0155
51908SOL    HW160535  11.483   4.715   2.426  0.6827  0.7988 -0.6778
51908SOL    HW260536  11.574   4.669   2.538  0.4644  0.0818 -0.7938
51909SOL     OW60537  10.755  11.134   6.622 -0.4495 -0.0171  1.0531
51909SOL    HW160538  10.675  11.083   6.615 -0.6612  0.3764  0.5152
51909SOL    HW260539  10.761  11.158   6.714 -2.2479  1.9775  0.7439
51910SOL     OW60540  10.867   0.220   7.464 -0.0735 -0.2714  0.3648
51910SOL    HW160541  10.863   0.126   7.446  2.6691 -0.6864  1.4242
51910SOL    HW260542  10.858   0.261   7.379  0.3104 -1.5703 -0.3339
51911SOL     OW60543  11.697   0.702  12.009 -0.8060 -0.1561 -0.3686
51911SOL    HW160544  11.634   0.657  12.066 -0.0771  1.4535  1.8307
51911SOL    HW260545  11.744   0.631  11.965 -1.2452 -1.4907  1.2127
51912SOL     OW60546   5.032   7.121  10.492  0.4264 -0.0346  0.1619
51912SOL    HW160547   5.112   7.071  10.504  0.8941  0.0526 -2.1563
51912SOL    HW260548   4.962   7.055  10.495  0.6940 -0.2837  0.9454
51913SOL     OW60549  10.783   2.595   2.331  0.2377 -0.1862  0.3992
51913SOL    HW160550  10.752   2.511   2.364 -1.1505  0.0387 -0.2831
51913SOL    HW260551  10.860   2.614   2.384 -0.3001 -1.1618  1.5749
51914SOL     OW60552  11.057   3.405   4.791  0.3728  0.4734  0.3240
51914SOL    HW160553  11.015   3.490   4.781 -0.9158 -0.0182  1.1529
51914SOL    HW260554  11.055   3.388   4.886  0.6564 -0.4362  0.1809
51915SOL     OW60555  11.704  11.713   5.662  0.5719  0.0149 -0.3084
51915SOL    HW160556  11.691  11.658   5.586  0.5662  0.6730 -0.7933
51915SOL    HW260557  11.650  11.791   5.646 -0.0048 -0.1528  0.7015
51916SOL     OW60558   3.153   4.271   2.188  0.2259 -0.1454  0.2500
51916SOL    HW160559   3.086   4.238   2.246  0.3059  0.1788  0.5311
51916SOL    HW260560   3.165   4.202   2.122 -0.1701 -0.3255  0.3668
51917SOL     OW60561   1.623   2.610   3.499 -0.1570 -0.7261  0.3171
51917SOL    HW160562   1.682   2.626   3.426 -2.0536 -0.9393 -1.3648
51917SOL    HW260563   1.633   2.687   3.556 -0.9735  1.1288 -1.8879
51918SOL     OW60564   1.219   4.652  12.492  0.2505 -0.4052 -0.0140
51918SOL    HW160565   1.186   4.731  12.450  0.4390  0.7219  1.8393
51918SOL    HW260566   1.249   4.682  12.578  0.3553 -2.4977  0.7237
51919SOL     OW60567   4.155   0.306   6.299  0.0058 -0.5186  0.2129
51919SOL    HW160568   4.128   0.260   6.378 -1.5028  2.2155  1.4401
51919SOL    HW260569   4.100   0.269   6.230 -0.8737 -0.8441  1.0606
51920SOL     OW60570  11.535  11.104   2.517 -0.5168 -0.8217  0.0639
51920SOL    HW160571  11.448  11.097   2.476  0.5775 -2.1211 -2.2360
51920SOL    HW260572  11.525  11.059   2.601 -2.4310  0.4254  0.5847
51921SOL     OW60573  10.632   2.982  11.415 -0.6983  0.1719 -0.0165
51921SOL    HW160574  10.667   3.039  11.347  0.3825  1.1184  1.2895
51921SOL    HW260575  10.708   2.933  11.447 -1.0328  0.2963  1.0151
51922SOL     OW60576   2.781   1.858   9.072  0.1420 -0.0891  0.8478
51922SOL    HW160577   2.802   1.951   9.059 -1.2395 -0.1031 -2.5233
51922SOL    HW260578   2.690   1.850   9.042  0.0027 -2.4440  1.7271
51923SOL     OW60579   8.935  11.673   0.140 -0.1031  0.2309  0.0698
51923SOL    HW160580   8.988  11.743   0.177 -3.1319  2.4642  0.5258
51923SOL    HW260581   8.925  11.696   0.047 -1.1959  0.5285  0.2436
51924SOL     OW60582   2.853   3.598   6.824 -0.0666  0.5244 -0.1153
51924SOL    HW160583   2.796   3.623   6.897  0.5610  2.5777 -0.2524
51924SOL    HW260584   2.795   3.593   6.748 -0.2203  1.8644 -0.1126
51925SOL     OW60585   3.396   4.531  11.530  0.1616 -0.0036 -0.5398
51925SOL    HW160586   3.407   4.438  11.549 -1.3222 -0.4719 -1.7677
51925SOL    HW260587   3.301   4.545  11.534  0.4747  2.1064  2.3224
51926SOL     OW60588   5.166  12.187   0.702 -0.4346 -0.2218 -0.7046
51926SOL    HW160589   5.103  12.115   0.710 -1.6156  0.6680 -1.7695
51926SOL    HW260590   5.176  12.201   0.608 -0.9458  1.6168 -0.5237
51927SOL     OW60591  10.820   5.343  11.993  0.1149  0.1897 -0.2096
51927SOL    HW160592  10.797   5.402  11.922  0.8557 -0.0854 -0.6857
51927SOL    HW260593  10.817   5.397  12.072 -0.9058  0.4500 -0.4096
51928SOL     OW60594   2.753   7.657   4.589  0.3591 -0.0745 -0.6871
51928SOL    HW160595   2.809   7.664   4.667  0.5110  0.4126 -0.8375
51928SOL    HW260596   2.677   7.710   4.609  0.9163  0.9930 -1.3136
51929SOL     OW60597  11.172  12.140   4.462  0.2972  0.2959 -0.8171
51929SOL    HW160598  11.256  12.163   4.423  0.8100  0.3638  0.3129
51929SOL    HW260599  11.123  12.222   4.464  1.1088  0.7662  0.7160
51930SOL     OW60600   2.499   1.375  10.917  0.4576  0.4728  0.5934
51930SOL    HW160601   2.556   1.385  10.994  0.6100 -1.6568  0.8372
51930SOL    HW260602   2.411   1.362  10.954  0.2234  1.2527  0.3213
51931SOL     OW60603   9.125  11.396   1.663  0.3495  0.4433 -0.6195
51931SOL    HW160604   9.034  11.378   1.686  0.5780 -0.6951 -0.5486
51931SOL    HW260605   9.125  11.402   1.567  0.2377  0.2412 -0.6314
51932SOL     OW60606   8.097   0.997   0.702 -0.4464 -0.3774  0.4467
51932SOL    HW160607   8.080   1.046   0.621  0.1326 -0.3863  0.3147
51932SOL    HW260608   8.133   0.913   0.673 -1.4067 -0.8731  0.6762
51933SOL     OW60609   6.982  10.454  10.145 -0.0036 -0.2558 -0.3889
51933SOL    HW160610   7.064  10.436  10.099 -0.2367  0.0625 -0.9509
51933SOL    HW260611   6.986  10.400  10.224  0.2582 -1.0953 -0.9603
51934SOL     OW60612   8.630  12.358   6.745  0.4138 -0.8289  0.3742
51934SOL    HW160613   8.611  12.452   6.736  0.9121 -0.7636 -0.0509
51934SOL    HW260614   8.718  12.355   6.783 -0.8712 -1.1182  3.6261
51935SOL     OW60615  10.197   2.960   6.306  0.5448  0.3746 -0.2872
51935SOL    HW160616  10.217   2.880   6.259  2.9572  1.3935 -1.1340
51935SOL    HW260617  10.122   2.997   6.260 -0.5034 -1.2369  0.0176
51936SOL     OW60618   3.139   8.673   0.985 -0.1223  0.1808 -0.2620
51936SOL    HW160619   3.228   8.652   1.015  0.2503  0.0557 -1.3967
51936SOL    HW260620   3.111   8.745   1.041  0.0449 -0.8436  1.1990
51937SOL     OW60621   4.840   8.464   4.100  0.1075  0.2812  0.1714
51937SOL    HW160622   4.767   8.420   4.057  1.2700 -0.3801 -1.2039
51937SOL    HW260623   4.916   8.442   4.046  0.9250  3.0587  0.0776
51938SOL     OW60624   9.775   9.923   2.937  0.4346  0.7148  0.4694
51938SOL    HW160625   9.842   9.965   2.883  0.9585 -0.7906 -0.1303
51938SOL    HW260626   9.785   9.962   3.024  2.6595 -0.0205  0.6110
51939SOL     OW60627  12.069   8.249   0.654 -0.2385  0.0301 -0.5583
51939SOL    HW160628  12.125   8.244   0.731 -0.6461  2.3322 -0.0477
51939SOL    HW260629  11.986   8.285   0.685 -0.8838 -0.2420 -1.8564
51940SOL     OW60630   6.953   0.434   0.455  0.3247  0.8014  0.1155
51940SOL    HW160631   6.996   0.403   0.534 -0.6564  0.3228  0.4690
51940SOL    HW260632   7.002   0.394   0.383  1.4037  1.4757  0.4479
51941SOL     OW60633   2.540   2.325  11.885  0.1693 -0.0028 -0.0141
51941SOL    HW160634   2.629   2.337  11.920  0.6451 -0.2920 -1.1031
51941SOL    HW260635   2.530   2.231  11.875 -0.7328 -0.0670  1.2530
51942SOL     OW60636  11.806   7.099  10.764 -0.0904 -0.2131 -0.3662
51942SOL    HW160637  11.803   7.100  10.669 -1.2621 -0.8280 -0.3536
51942SOL    HW260638  11.732   7.153  10.791  0.2374 -0.0346  0.2021
51943SOL     OW60639   8.918  12.012   2.019 -0.0553 -0.4425 -0.1094
51943SOL    HW160640   8.924  12.017   1.924  1.4964  1.2024  0.0105
51943SOL    HW260641   9.008  12.027   2.049 -0.5760 -0.5931  1.6139
51944SOL     OW60642   8.301   9.426   1.640 -0.5465 -0.6184 -0.0564
51944SOL    HW160643   8.277   9.515   1.614  0.0129 -0.6899 -0.8578
51944SOL    HW260644   8.218   9.379   1.646 -1.0479  0.4038  2.2240
51945SOL     OW60645  11.812   7.213   9.465  0.3301 -0.2443 -0.4827
51945SOL    HW160646  11.852   7.146   9.410  0.4768 -2.3465  1.9852
51945SOL    HW260647  11.762   7.164   9.531  0.6503  2.0276  1.6124
51946SOL     OW60648   6.374  11.390  10.314 -0.1034 -0.4693  0.1341
51946SOL    HW160649   6.328  11.314  10.350 -1.7325  0.9289  1.1997
51946SOL    HW260650   6.310  11.431  10.255  0.1064  0.9627  0.8415
51947SOL     OW60651   4.207   3.850   9.190  0.2979  0.3729 -0.3496
51947SOL    HW160652   4.119   3.823   9.214  0.9620 -0.2621  1.5455
51947SOL    HW260653   4.195   3.934   9.144 -1.1728  1.1796  1.3971
51948SOL     OW60654   2.028  10.937   8.532  0.2766  0.1116 -0.4550
51948SOL    HW160655   2.093  10.867   8.538  1.0014  0.5727 -2.1212
51948SOL    HW260656   1.956  10.899   8.482  0.4620  0.3954 -0.9463
51949SOL     OW60657   8.722   3.563   7.807  0.2593  0.5826  0.3422
51949SOL    HW160658   8.656   3.589   7.870 -0.2887 -0.0584  0.0427
51949SOL    HW260659   8.737   3.642   7.754 -1.2544  0.3825 -0.4492
51950SOL     OW60660   6.863   6.677  11.570  0.1288 -0.6705 -0.4206
51950SOL    HW160661   6.902   6.756  11.609  0.1261 -1.5218  1.4317
51950SOL    HW260662   6.789   6.710  11.519  0.1778  0.5541  0.2449
51951SOL     OW60663   7.454   3.596   6.015  0.2486 -0.3340  0.1672
51951SOL    HW160664   7.495   3.531   6.072 -2.0627 -1.4168  0.7397
51951SOL    HW260665   7.441   3.550   5.932 -0.6554 -0.3820  0.3165
51952SOL     OW60666   3.930   1.276   3.164  0.3129  0.3714 -0.2629
51952SOL    HW160667   3.900   1.214   3.231 -1.7333  0.6525 -0.8389
51952SOL    HW260668   3.974   1.221   3.099  1.0587 -0.0861  0.6101
51953SOL     OW60669   4.926   4.868   7.755 -0.1551 -0.8535 -0.4199
51953SOL    HW160670   4.997   4.806   7.771  0.9093  0.3916 -0.1431
51953SOL    HW260671   4.965   4.954   7.772 -1.6334 -0.1126 -0.6177
51954SOL     OW60672  10.051   0.739   7.732 -0.3631  0.4595 -0.1082
51954SOL    HW160673  10.102   0.814   7.765 -0.2617  0.6407 -0.6624
51954SOL    HW260674  10.007   0.773   7.655  0.0704 -0.1895 -0.6545
51955SOL     OW60675   9.878   6.025   6.197 -0.6104 -0.4034  0.2700
51955SOL    HW160676   9.862   6.094   6.262 -1.9368  0.5936 -1.0610
51955SOL    HW260677   9.791   5.994   6.173 -0.0458 -2.5948  0.8222
51956SOL     OW60678  11.346   1.440   8.570  0.3861 -0.3668  0.5443
51956SOL    HW160679  11.314   1.396   8.492  0.3188 -0.9123  0.8799
51956SOL    HW260680  11.333   1.378   8.641  1.7593 -0.4426  0.7665
51957SOL     OW60681  11.232   9.490   2.949 -0.4394 -0.2884  0.0700
51957SOL    HW160682  11.145   9.453   2.965  0.2039 -1.2516  1.5076
51957SOL    HW260683  11.231   9.575   2.993 -1.5029  1.0028 -2.2127
51958SOL     OW60684   3.709   6.021   4.777  0.2655 -0.5717  0.5290
51958SOL    HW160685   3.757   6.001   4.696  1.2586 -4.0836  1.7775
51958SOL    HW260686   3.629   5.968   4.771  0.2667 -0.7324  1.7306
51959SOL     OW60687   2.405   7.860  12.470  0.3811  0.9380 -0.1905
51959SOL    HW160688   2.350   7.812  12.533  1.6627  0.1450  0.3650
51959SOL    HW260689   2.404   7.950  12.502  1.7648  0.3896  1.5949
51960SOL     OW60690  11.977  11.239   4.404  0.0096  0.5740 -0.3000
51960SOL    HW160691  11.969  11.161   4.348 -3.2087 -0.0610  0.7975
51960SOL    HW260692  11.918  11.303   4.365 -0.9725  0.7378  1.3593
51961SOL     OW60693   7.131   6.020   3.237 -0.0612 -0.0612  0.1544
51961SOL    HW160694   7.216   6.021   3.281 -0.5159 -0.3722  1.0771
51961SOL    HW260695   7.093   6.106   3.258  0.9517  1.0681 -2.2196
51962SOL     OW60696  12.312  11.358   2.184  0.4489  0.3911  0.2066
51962SOL    HW160697  12.268  11.436   2.151 -1.8707 -0.1424  1.7962
51962SOL    HW260698  12.348  11.384   2.269 -0.9470 -0.3641  1.0769
51963SOL     OW60699   0.929   5.832   3.319  0.8318  0.2286 -0.5431
51963SOL    HW160700   0.968   5.899   3.377 -0.3790  0.8086 -0.3786
51963SOL    HW260701   0.980   5.839   3.238  2.0250 -0.0411  0.1578
51964SOL     OW60702   8.940   3.518   8.678 -0.2673  0.1967 -0.4989
51964SOL    HW160703   8.859   3.474   8.654 -0.2380 -0.4332  0.5031
51964SOL    HW260704   9.002   3.447   8.693  0.1208  0.6265 -0.0311
51965SOL     OW60705   8.872  10.809   7.721 -0.2872 -0.0672 -0.1971
51965SOL    HW160706   8.802  10.745   7.734 -1.4198  1.0682 -0.5222
51965SOL    HW260707   8.953  10.758   7.729 -1.0454 -1.0481  2.3852
51966SOL     OW60708   8.457   7.076   5.101  0.1552  0.1898 -0.2815
51966SOL    HW160709   8.444   7.108   5.012  1.0704  1.2000 -0.0658
51966SOL    HW260710   8.499   7.149   5.148  1.9412 -1.1532  0.3347
51967SOL     OW60711   7.164   2.515   4.314  0.1772  0.1026  0.1580
51967SOL    HW160712   7.160   2.454   4.240 -0.3729 -1.7558  1.6542
51967SOL    HW260713   7.119   2.593   4.283 -0.3184 -0.7551 -1.3594
51968SOL     OW60714  11.899   9.348  11.870  0.2199  0.0481  0.3421
51968SOL    HW160715  11.888   9.386  11.957 -0.0326  1.0723 -0.1262
51968SOL    HW260716  11.814   9.311  11.848  0.5042 -0.9525  0.8586
51969SOL     OW60717  10.222   5.687   0.380  0.1808  0.5346  0.2157
51969SOL    HW160718  10.218   5.618   0.313  0.1112  1.0478 -0.3140
51969SOL    HW260719  10.312   5.684   0.412  0.3031  0.5013 -0.1257
51970SOL     OW60720   2.503   3.790   7.635  0.5276 -0.0984  0.1138
51970SOL    HW160721   2.581   3.806   7.688 -0.6589  2.1014  1.3532
51970SOL    HW260722   2.533   3.797   7.545  1.6483  1.5705  0.5724
51971SOL     OW60723   6.436   6.923   8.930  0.1554 -0.8368  0.2537
51971SOL    HW160724   6.391   6.993   8.885 -0.9501 -1.3163  0.5695
51971SOL    HW260725   6.491   6.881   8.863  1.1399  0.5426  0.1541
51972SOL     OW60726  12.634   4.966  11.374  0.2421  0.6240  0.3142
51972SOL    HW160727  12.658   5.040  11.318 -0.3414  0.3483 -0.2981
51972SOL    HW260728  12.647   4.889  11.320  1.1469  0.2353  1.0533
51973SOL     OW60729  10.274   2.031   5.132 -0.2737 -0.2223  0.1260
51973SOL    HW160730  10.259   1.983   5.213 -1.1840  2.4021  1.6275
51973SOL    HW260731  10.188   2.067   5.110  0.3196  0.5582 -1.0297
51974SOL     OW60732   3.022  10.932   1.117 -0.1695 -0.3143  0.1377
51974SOL    HW160733   3.117  10.918   1.123  0.0269  0.7488 -0.2473
51974SOL    HW260734   2.996  10.884   1.037 -0.0124 -0.8133  0.3788
51975SOL     OW60735   3.697   0.093  11.516  0.1787  0.1114  0.6821
51975SOL    HW160736   3.756   0.167  11.501 -1.1491  1.1369  0.3113
51975SOL    HW260737   3.710   0.071  11.608  0.1431  1.2389  0.9752
51976SOL     OW60738   9.188   0.712   1.709  0.0649  0.2642  0.0554
51976SOL    HW160739   9.153   0.640   1.655  1.3250  1.1366 -2.0459
51976SOL    HW260740   9.237   0.668   1.778  0.1688 -0.9194 -0.7310
51977SOL     OW60741   2.184   6.235   3.946  0.4132 -0.6516 -0.0536
51977SOL    HW160742   2.103   6.251   3.898 -0.0278 -2.0945  0.1749
51977SOL    HW260743   2.245   6.301   3.912 -0.6989  0.1248 -0.5895
51978SOL     OW60744   8.301   6.213   3.919  0.6931  0.1020 -0.1033
51978SOL    HW160745   8.371   6.265   3.879  0.4544  0.0980 -0.5295
51978SOL    HW260746   8.343   6.169   3.993  1.0269  0.4721 -0.0702
51979SOL     OW60747  11.820   0.127   8.734 -0.9614 -0.4091 -0.1437
51979SOL    HW160748  11.797   0.049   8.784 -0.6179 -0.8729 -0.6984
51979SOL    HW260749  11.915   0.132   8.738 -0.9421 -0.3412 -0.5719
51980SOL     OW60750   3.370  11.157   8.308 -0.0021 -0.0525 -0.2457
51980SOL    HW160751   3.374  11.249   8.283 -0.5992  0.1345  0.3196
51980SOL    HW260752   3.291  11.150   8.362  0.2739 -0.8117  0.0738
51981SOL     OW60753   2.275   2.803   7.761  0.2622  0.1481  0.1829
51981SOL    HW160754   2.280   2.735   7.828 -1.5145 -1.3715 -1.1183
51981SOL    HW260755   2.183   2.829   7.760  0.6622  1.6520 -0.2751
51982SOL     OW60756   4.627   5.233   0.313 -0.2579  0.3305  0.2213
51982SOL    HW160757   4.695   5.207   0.251 -0.0228 -1.3069  1.1044
51982SOL    HW260758   4.635   5.328   0.319  0.1647  0.4612 -1.7053
51983SOL     OW60759   3.337   0.997   9.483 -0.6588  0.0283  0.9033
51983SOL    HW160760   3.381   1.074   9.446  0.7612 -1.2475 -0.1999
51983SOL    HW260761   3.391   0.972   9.558  0.5139 -1.4633 -0.3750
51984SOL     OW60762   2.345   3.489  12.010 -0.1649  0.1978 -0.2997
51984SOL    HW160763   2.432   3.528  12.005  0.2010 -0.6604 -0.8334
51984SOL    HW260764   2.285   3.563  12.005  0.5169  0.7074 -1.2029
51985SOL     OW60765   5.973   8.673   4.490 -0.3944  0.1919  0.2306
51985SOL    HW160766   6.026   8.679   4.410 -0.4032  0.5570  0.2501
51985SOL    HW260767   5.885   8.651   4.458 -0.3219 -0.0079  0.1673
51986SOL     OW60768  10.678  10.052   1.265 -0.5421  0.2362  0.1952
51986SOL    HW160769  10.657   9.967   1.302 -2.8455  1.2738  1.5184
51986SOL    HW260770  10.661  10.044   1.172  3.0171 -1.7498 -0.4726
51987SOL     OW60771  11.498   0.683   9.080  0.1304  0.2462 -0.1705
51987SOL    HW160772  11.516   0.757   9.137  1.8235  0.2475 -0.6664
51987SOL    HW260773  11.472   0.613   9.139  3.9514 -0.4300  0.9785
51988SOL     OW60774   5.311   3.085   2.958  0.0912 -0.4248  0.4865
51988SOL    HW160775   5.317   3.036   2.876  1.6671 -0.3455  0.5250
51988SOL    HW260776   5.222   3.067   2.990 -1.1400  0.7453 -1.9620
51989SOL     OW60777   0.664  12.329   9.670  0.7678 -0.1907 -0.4195
51989SOL    HW160778   0.642  12.391   9.600  0.8525 -0.7392 -0.9421
51989SOL    HW260779   0.602  12.257   9.658  1.2681 -0.6310 -0.3917
51990SOL     OW60780  10.891   8.705  10.056 -0.7047  0.2901  0.2939
51990SOL    HW160781  10.896   8.734   9.964  0.1744 -0.4567  0.0969
51990SOL    HW260782  10.950   8.764  10.103 -0.9797  0.5275  0.3428
51991SOL     OW60783   7.441   7.622   7.793  0.1638  0.1985 -0.2233
51991SOL    HW160784   7.492   7.542   7.802 -0.6733 -0.2076  1.2932
51991SOL    HW260785   7.350   7.593   7.799 -0.1953  1.1094 -1.0438
51992SOL     OW60786   7.344   8.655   4.982  0.4154  0.6174 -0.3010
51992SOL    HW160787   7.386   8.621   5.061  1.0003  0.9400 -0.4710
51992SOL    HW260788   7.263   8.605   4.975 -0.4167  1.6497  1.3783
51993SOL     OW60789   4.969   8.738   2.221  0.1373 -0.6164  0.3720
51993SOL    HW160790   5.039   8.793   2.186  0.8968  0.1386  2.8618
51993SOL    HW260791   4.982   8.653   2.179  2.3018 -0.3636  0.4220
51994SOL     OW60792   4.048   1.531   3.234  0.9282 -0.4538  0.3812
51994SOL    HW160793   4.019   1.445   3.202 -0.9987  0.5716 -0.8444
51994SOL    HW260794   3.975   1.590   3.213  2.2652  1.5310  1.0340
51995SOL     OW60795   2.676   7.632   8.848 -0.3268  0.2459  0.4023
51995SOL    HW160796   2.687   7.624   8.943 -2.2811 -1.5135  0.5649
51995SOL    HW260797   2.721   7.555   8.813 -0.1161  0.5778 -0.0640
51996SOL     OW60798  11.678   1.520   3.463  0.4089 -0.0585 -0.3022
51996SOL    HW160799  11.619   1.520   3.388 -0.3331  0.0910  0.2758
51996SOL    HW260800  11.728   1.439   3.454 -2.4333 -2.1337  1.1814
51997SOL     OW60801  11.278  12.308   4.827 -0.0694 -0.0273  0.7123
51997SOL    HW160802  11.367  12.344   4.822 -0.3214  0.4817 -0.7161
51997SOL    HW260803  11.281  12.230   4.772 -0.6443  0.3518  0.1168
51998SOL     OW60804   1.149  10.282   3.483 -0.3468 -0.0887 -0.2282
51998SOL    HW160805   1.134  10.187   3.481  2.1911 -0.5575 -0.7041
51998SOL    HW260806   1.141  10.309   3.392 -1.1063  0.1938 -0.0875
51999SOL     OW60807   5.969   0.473   2.718  0.8629  0.0665  0.2168
51999SOL    HW160808   6.052   0.519   2.724  1.0385 -0.1998 -0.1566
51999SOL    HW260809   5.986   0.387   2.755  0.8384 -0.0978 -0.1488
52000SOL     OW60810   7.045  11.081   0.629 -0.3334  0.0186  0.2731
52000SOL    HW160811   7.123  11.069   0.684 -0.2565  1.6901  0.6087
52000SOL    HW260812   7.079  11.095   0.541 -0.3066 -0.1308  0.2597
52001SOL     OW60813  12.156   7.183   1.497  0.1658  0.3932 -0.4486
52001SOL    HW160814  12.129   7.144   1.414 -0.0167  1.2392 -0.7994
52001SOL    HW260815  12.248   7.208   1.482  0.0923  0.6705 -0.4517
52002SOL     OW60816   6.933   2.226   6.474  0.3879  0.5683  0.0384
52002SOL    HW160817   6.862   2.285   6.449  1.3407  2.3958  1.3894
52002SOL    HW260818   7.007   2.253   6.420  0.8713  0.7389  0.7688
52003SOL     OW60819   7.960   1.449  12.159  0.3387 -0.1898  0.1592
52003SOL    HW160820   8.023   1.407  12.217  1.2578  0.8075 -0.0769
52003SOL    HW260821   7.961   1.397  12.079  0.4058 -0.5291  0.3811
52004SOL     OW60822   4.441   7.092   8.523  0.7292  0.0999 -0.2739
52004SOL    HW160823   4.522   7.044   8.506 -0.3698 -2.1312  0.3596
52004SOL    HW260824   4.374   7.042   8.477 -0.2398  2.2813 -1.3526
52005SOL     OW60825   2.710   8.619  11.417  0.1290 -0.1217 -0.0914
52005SOL    HW160826   2.703   8.698  11.363 -1.0557 -1.0894 -1.4227
52005SOL    HW260827   2.651   8.635  11.490 -1.2671 -0.3377 -1.1314
52006SOL     OW60828   7.369   6.409  11.856  0.2431 -0.5895  0.0399
52006SOL    HW160829   7.305   6.450  11.915 -0.8663 -0.4538 -1.2021
52006SOL    HW260830   7.411   6.484  11.812  1.9376 -0.6370  1.4774
52007SOL     OW60831   7.284   3.780   9.392 -0.7602 -0.5631  0.4895
52007SOL    HW160832   7.276   3.710   9.328  0.5322  0.4048 -0.7894
52007SOL    HW260833   7.353   3.751   9.452  0.0713 -0.2104 -0.2885
52008SOL     OW60834   2.261   2.196   9.451  0.2113 -0.3937 -0.1137
52008SOL    HW160835   2.347   2.239   9.452  0.3304 -0.5579  1.8555
52008SOL    HW260836   2.233   2.198   9.543 -1.8882 -0.3749 -0.7066
52009SOL     OW60837   8.908   0.932   0.838 -0.8104  0.3942 -0.3249
52009SOL    HW160838   8.884   1.007   0.892 -0.6608  1.4526 -1.6549
52009SOL    HW260839   8.933   0.971   0.754  0.7170 -1.0322 -0.5858
52010SOL     OW60840   7.600   3.739   0.306  0.6160  0.0739  0.2972
52010SOL    HW160841   7.532   3.695   0.356 -1.0095  0.1543 -1.6980
52010SOL    HW260842   7.650   3.667   0.266  0.1331  0.0158 -0.2084
52011SOL     OW60843  10.179   8.834   8.021 -0.0926  0.4391  0.3338
52011SOL    HW160844  10.165   8.849   7.928 -1.8144 -0.0523  0.4817
52011SOL    HW260845  10.093   8.809   8.055  0.7692 -0.7265  1.8050
52012SOL     OW60846   3.210   9.163  10.865 -0.5847  0.5523  0.6162
52012SOL    HW160847   3.206   9.129  10.954 -3.0336  0.9983  0.7381
52012SOL    HW260848   3.139   9.227  10.860  0.8391  2.1230 -1.0364
52013SOL     OW60849   3.831  11.912  11.037  0.4120  0.4218  0.0505
52013SOL    HW160850   3.740  11.941  11.030  0.5073  0.5968 -0.4333
52013SOL    HW260851   3.837  11.837  10.978 -0.3619 -1.9306  2.7007
52014SOL     OW60852  10.973  12.417   4.352 -0.2251  0.1023 -0.1354
52014SOL    HW160853  10.999  12.423   4.260  0.3841 -1.0686 -0.0615
52014SOL    HW260854  11.048  12.452   4.400 -0.5222  0.6659 -0.0753
52015SOL     OW60855   7.024  10.725   2.287 -0.1933  0.1331  0.6541
52015SOL    HW160856   7.069  10.771   2.358  0.1070  1.4120 -0.3268
52015SOL    HW260857   6.934  10.756   2.292 -0.9869 -2.1374  2.3751
52016SOL     OW60858   8.747  12.411   8.451  0.3195  0.0703  0.2173
52016SOL    HW160859   8.689  12.479   8.484  0.4054 -0.1012  0.7208
52016SOL    HW260860   8.835  12.443   8.470  0.3508 -0.3480  0.7868
52017SOL     OW60861   2.981   9.418   2.618  0.4732  0.3352 -0.0728
52017SOL    HW160862   2.918   9.361   2.575 -1.5046  1.5005  1.1712
52017SOL    HW260863   3.015   9.474   2.548  0.2478 -0.3845 -0.7671
52018SOL     OW60864   1.299   5.054   5.767  0.7630  0.0229  0.2507
52018SOL    HW160865   1.324   4.986   5.705 -2.6976  0.5053 -1.9086
52018SOL    HW260866   1.222   5.020   5.811  0.2633  1.6510  0.7133
52019SOL     OW60867   6.365  10.535   7.960  0.4122  0.1220  0.4954
52019SOL    HW160868   6.333  10.600   8.022  0.2102  0.9857 -0.4776
52019SOL    HW260869   6.443  10.576   7.921  0.3134 -0.2339 -0.0885
52020SOL     OW60870  10.475   1.326   0.174 -0.1567  0.1773 -0.5106
52020SOL    HW160871  10.490   1.232   0.183 -1.2765 -0.1052 -1.4330
52020SOL    HW260872  10.404   1.334   0.111  0.5550  1.6883 -1.1880
52021SOL     OW60873   3.658   4.563   5.368  0.4374  0.4917  0.1219
52021SOL    HW160874   3.574   4.604   5.344  1.0882  2.4414  0.9432
52021SOL    HW260875   3.684   4.514   5.290 -0.4415  1.6134 -0.9206
52022SOL     OW60876   4.947  12.635   1.339 -0.2746  0.1817 -0.3830
52022SOL    HW160877   4.994  12.715   1.359 -0.9876  0.7227 -0.7989
52022SOL    HW260878   4.963  12.578   1.414 -0.7653  1.1747  0.5106
52023SOL     OW60879   0.017   4.430   0.201  0.8157 -0.6088  0.0381
52023SOL    HW160880  -0.014   4.371   0.133 -1.6732  0.7519 -0.1184
52023SOL    HW260881   0.039   4.511   0.154 -1.0018  0.3680  0.7792
52024SOL     OW60882  12.151   7.790  10.054 -0.0972  0.2391  0.6954
52024SOL    HW160883  12.132   7.820  10.143 -1.4607 -0.0266  0.5080
52024SOL    HW260884  12.073   7.810  10.004  0.8300  0.8061 -0.5825
52025SOL     OW60885   1.763  11.679   8.855  0.2325  0.1689  0.4423
52025SOL    HW160886   1.836  11.681   8.793 -0.4793 -0.4915 -0.4443
52025SOL    HW260887   1.802  11.700   8.940  1.4783 -0.3461  0.0095
52026SOL     OW60888  10.980   3.204  10.080  0.1443  0.5300 -0.0756
52026SOL    HW160889  10.890   3.235  10.089  0.6136  1.4155  2.3392
52026SOL    HW260890  11.027   3.279  10.043  0.0151  0.2643 -0.7939
52027SOL     OW60891  11.309   7.132  11.134  0.2144 -0.0722 -0.3349
52027SOL    HW160892  11.352   7.048  11.116 -1.5036 -1.3793  1.1428
52027SOL    HW260893  11.328   7.186  11.058 -1.1485 -2.8598 -2.8645
52028SOL     OW60894   3.569   2.374   7.545  0.2912 -0.0226 -0.3390
52028SOL    HW160895   3.492   2.377   7.603  1.0709 -0.7919  0.7772
52028SOL    HW260896   3.598   2.283   7.548  0.9176  0.1384 -1.1980
52029SOL     OW60897   3.500   9.911  12.163 -0.5431 -0.2856  0.1003
52029SOL    HW160898   3.515   9.961  12.243  0.4870  1.0515 -0.8786
52029SOL    HW260899   3.425   9.953  12.122 -1.3732 -1.2691  0.5685
52030SOL     OW60900   5.292   2.237   9.046  0.3542 -0.0110 -0.2054
52030SOL    HW160901   5.262   2.322   9.080  0.4971  0.1799 -0.5492
52030SOL    HW260902   5.212   2.193   9.018  0.2032 -0.2910  0.6411
52031SOL     OW60903   3.008  10.079   0.917  0.0394  0.5724 -0.5166
52031SOL    HW160904   3.094  10.098   0.879 -0.5406  1.9279 -1.2415
52031SOL    HW260905   2.971  10.012   0.861  0.2696  0.6384 -0.7530
52032SOL     OW60906  10.433   7.792  11.695  0.0966 -0.0331 -0.3925
52032SOL    HW160907  10.347   7.765  11.727  0.6118  1.1610  2.3494
52032SOL    HW260908  10.430   7.888  11.697  1.1262  0.0337 -1.3405
52033SOL     OW60909   7.747   1.355   1.916  0.3082  0.2069 -0.2900
52033SOL    HW160910   7.812   1.397   1.861  0.6624  0.8044  0.5621
52033SOL    HW260911   7.673   1.415   1.917 -0.3412 -0.5300 -1.3628
52034SOL     OW60912   9.345   1.835   7.289 -0.4550  0.2454 -0.4806
52034SOL    HW160913   9.422   1.853   7.235 -0.4340  0.3794 -0.4073
52034SOL    HW260914   9.306   1.921   7.305 -0.6890  0.1653 -0.6182
52035SOL     OW60915   5.446   6.599   3.299 -0.3493 -0.1992  0.0905
52035SOL    HW160916   5.449   6.688   3.266 -0.1062 -0.4589 -0.5978
52035SOL    HW260917   5.462   6.607   3.393 -0.4522  0.4869  0.0507
52036SOL     OW60918   0.396   1.115   6.388 -0.0411 -0.0033  0.2353
52036SOL    HW160919   0.326   1.072   6.437 -0.5427 -0.1300 -0.5710
52036SOL    HW260920   0.474   1.103   6.442 -0.5403 -0.2989  0.9072
52037SOL     OW60921   7.547   6.864   8.467 -0.1552  0.3133  0.1071
52037SOL    HW160922   7.586   6.930   8.410  0.2777  0.0070  0.0521
52037SOL    HW260923   7.538   6.908   8.552 -2.0040  1.2108 -0.4881
52038SOL     OW60924   2.170  10.049   3.864 -0.0825  0.0725  0.1908
52038SOL    HW160925   2.099  10.089   3.914 -1.0801  0.6980 -1.6303
52038SOL    HW260926   2.230  10.121   3.846 -0.7242  0.2889 -1.1522
52039SOL     OW60927   6.254   9.997  10.510 -0.1595  0.4974 -0.0341
52039SOL    HW160928   6.321   9.958  10.454 -1.2585  0.9903 -1.7918
52039SOL    HW260929   6.289   9.991  10.599  1.8448  0.0467 -0.8128
52040SOL     OW60930   8.535  10.275   2.577  0.6758 -0.4811 -0.1050
52040SOL    HW160931   8.620  10.311   2.604 -0.3072  1.2874  0.7901
52040SOL    HW260932   8.557  10.209   2.511  2.6183  1.3273 -1.3778
52041SOL     OW60933   1.651   7.430   9.471  0.3797  0.0740 -0.2602
52041SOL    HW160934   1.606   7.514   9.482  0.9561  0.2866  0.5943
52041SOL    HW260935   1.697   7.438   9.387 -0.7211  0.0570 -0.8763
52042SOL     OW60936   8.638  11.792   8.730  0.0008  0.1340  0.0168
52042SOL    HW160937   8.705  11.746   8.782 -1.0256 -0.6479  0.6880
52042SOL    HW260938   8.639  11.747   8.646  0.6509  0.4484 -0.1541
52043SOL     OW60939   2.050   8.668   1.639  0.9406 -0.0012 -0.2211
52043SOL    HW160940   1.981   8.731   1.621  1.0395  0.1171 -0.1925
52043SOL    HW260941   2.044   8.603   1.569  0.1347 -0.5678  0.3465
52044SOL     OW60942   5.911   7.998   3.089  0.3635  0.2874  0.5537
52044SOL    HW160943   5.933   7.913   3.128 -1.1169  1.4187  4.2975
52044SOL    HW260944   5.822   7.986   3.057 -0.3593  0.6833  2.2904
52045SOL     OW60945   9.718   4.713   9.996  0.5372 -0.5611  0.1072
52045SOL    HW160946   9.790   4.769   9.966 -0.3108  0.3078 -0.3490
52045SOL    HW260947   9.762   4.642  10.042  1.7755 -0.7889 -1.3277
52046SOL     OW60948  12.436   1.701   7.755 -0.6860  0.2531  0.4297
52046SOL    HW160949  12.523   1.723   7.789 -1.1888  1.8719  0.7405
52046SOL    HW260950  12.404   1.783   7.717 -1.8456 -0.4733 -0.2042
52047SOL     OW60951   9.968  12.396   9.033  0.1045 -0.3775  0.5826
52047SOL    HW160952   9.949  12.313   8.990  1.4128 -1.4209  1.9290
52047SOL    HW260953   9.882  12.427   9.063 -0.5290 -0.7149 -0.8106
52048SOL     OW60954   6.466  10.339   3.443 -0.0468 -0.0004 -0.0467
52048SOL    HW160955   6.404  10.334   3.370  2.2472 -1.1597 -2.0240
52048SOL    HW260956   6.459  10.430   3.473  0.7046  1.2888 -3.3994
52049SOL     OW60957   9.193  10.550   9.077 -1.2220 -0.2262  0.2356
52049SOL    HW160958   9.241  10.632   9.068 -0.8491 -0.2947  1.4118
52049SOL    HW260959   9.109  10.575   9.116 -0.8632 -0.4485  1.1905
52050SOL     OW60960  10.799   2.013   8.812  0.0926  0.1344  0.0155
52050SOL    HW160961  10.884   2.026   8.770 -0.1030 -0.0751 -0.4531
52050SOL    HW260962  10.742   1.982   8.741 -0.0424 -0.9889  0.6123
52051SOL     OW60963   8.121   9.023   9.095 -0.2656  0.5156 -0.1324
52051SOL    HW160964   8.125   8.940   9.048 -0.5265  0.1713  0.4399
52051SOL    HW260965   8.206   9.031   9.138 -0.0147  0.8464 -0.6867
52052SOL     OW60966   7.989   3.430  10.465  0.1945 -0.2428 -0.2411
52052SOL    HW160967   7.999   3.524  10.478  1.8785 -0.0618 -2.1735
52052SOL    HW260968   7.911   3.420  10.411  0.5749  0.1833 -0.8891
52053SOL     OW60969   7.595   3.151   7.374  0.1670  0.3331  0.4393
52053SOL    HW160970   7.550   3.118   7.297 -1.5315 -0.1874  1.6008
52053SOL    HW260971   7.531   3.209   7.417  0.5382 -0.4586  2.1620
52054SOL     OW60972   5.509   3.523  12.011  0.0815  0.4477  0.1527
52054SOL    HW160973   5.447   3.595  12.016  2.3366  2.3953  2.0686
52054SOL    HW260974   5.592   3.559  12.043  1.7385 -2.5733 -0.3095
52055SOL     OW60975   7.461   2.462   4.144 -0.3796 -0.4094  0.3695
52055SOL    HW160976   7.371   2.462   4.111  0.3102  0.4759 -1.6683
52055SOL    HW260977   7.451   2.454   4.239 -2.7089  1.4243  0.3891
52056SOL     OW60978   3.449  12.212   4.344 -0.0006 -0.1227  0.1698
52056SOL    HW160979   3.543  12.191   4.344 -0.3842 -2.7825  3.6367
52056SOL    HW260980   3.432  12.248   4.431 -2.0939  1.3385 -0.7485
52057SOL     OW60981   2.273  10.804  11.168 -0.2171  1.0090 -0.2135
52057SOL    HW160982   2.271  10.900  11.170 -0.4544  1.0562 -1.4988
52057SOL    HW260983   2.345  10.783  11.109 -0.0242  0.3885  0.2357
52058SOL     OW60984   2.478  11.407  12.508 -0.2886  0.3633  0.1313
52058SOL    HW160985   2.504  11.495  12.537  0.3326  0.7547 -1.4968
52058SOL    HW260986   2.538  11.387  12.436 -1.3922 -0.7870 -0.5111
52059SOL     OW60987   3.382  10.157  12.094  0.1500 -0.2992  0.2310
52059SOL    HW160988   3.333  10.234  12.065 -0.9124 -0.6330  1.0512
52059SOL    HW260989   3.331  10.124  12.168  1.9146 -0.3816  1.4469
52060SOL     OW60990   4.802   1.129   4.161  0.2892 -0.3181  0.5588
52060SOL    HW160991   4.824   1.037   4.152  1.2710 -0.1718  1.2710
52060SOL    HW260992   4.815   1.148   4.254 -1.1699  0.2354  0.6818
52061SOL     OW60993   6.369   4.264   7.489  0.3086  0.0980 -0.3901
52061SOL    HW160994   6.421   4.184   7.501 -2.5857 -1.8352  0.3816
52061SOL    HW260995   6.378   4.311   7.572 -2.8424 -2.7154  1.8248
52062SOL     OW60996  12.296   1.121  10.166  0.2769 -0.4167  0.1209
52062SOL    HW160997  12.257   1.117  10.253  0.9688 -0.8550  0.4164
52062SOL    HW260998  12.329   1.211  10.158  0.0418 -0.3213  0.2345
52063SOL     OW60999   1.624   9.219   9.374 -0.3473 -0.0684 -0.2562
52063SOL    HW161000   1.652   9.304   9.340  0.9673 -0.2768  0.2620
52063SOL    HW261001   1.696   9.160   9.354 -0.8188 -0.8458  0.2836
52064SOL     OW61002   7.174   4.487   2.604  0.4624  0.8392  0.8838
52064SOL    HW161003   7.189   4.578   2.632  1.9884  1.3132 -1.2531
52064SOL    HW261004   7.119   4.495   2.527 -0.5479 -0.1808  1.4770
52065SOL     OW61005   3.992   1.913   2.355  0.3624 -0.0542 -0.4583
52065SOL    HW161006   3.960   1.991   2.402  0.5038 -0.3089  0.0763
52065SOL    HW261007   4.027   1.947   2.273 -0.3045  0.3525 -0.5804
52066SOL     OW61008   2.282   7.733  12.026 -0.0459 -0.4746  0.4496
52066SOL    HW161009   2.335   7.707  11.951  0.0409  1.1033 -0.0894
52066SOL    HW261010   2.313   7.678  12.098  0.0631 -1.8238 -0.5859
52067SOL     OW61011   9.266   7.083   1.692  0.6786 -0.2066  0.1632
52067SOL    HW161012   9.215   7.162   1.707 -1.5949 -1.4893 -0.3469
52067SOL    HW261013   9.320   7.102   1.615 -0.6531  0.4956 -0.6213
52068SOL     OW61014   2.673   4.035   4.031 -0.2130 -0.6672  0.0240
52068SOL    HW161015   2.666   4.127   4.003 -2.1714 -0.4369  1.0859
52068SOL    HW261016   2.755   4.005   3.993  1.4786  2.0603  1.1638
52069SOL     OW61017   5.140   7.246   9.749  0.7678 -0.7535  0.5526
52069SOL    HW161018   5.171   7.179   9.689 -0.6316 -0.3503 -0.6810
52069SOL    HW261019   5.203   7.318   9.739 -0.0752 -0.2247 -1.3616
52070SOL     OW61020   5.966   3.777   8.720  0.7469 -0.1339  0.1480
52070SOL    HW161021   6.045   3.809   8.763 -0.0217  1.8777  0.1622
52070SOL    HW261022   5.943   3.847   8.658 -0.1781 -1.3655 -0.9458
52071SOL     OW61023   2.713   8.636   0.232  0.0142 -0.8006  0.0517
52071SOL    HW161024   2.669   8.583   0.165  1.1189 -0.2242 -1.1753
52071SOL    HW261025   2.798   8.657   0.194  1.2397 -1.5524  2.2052
52072SOL     OW61026  12.636   8.260   9.244 -0.2489  0.0939  0.2120
52072SOL    HW161027  12.704   8.244   9.179  0.9132  0.5457  1.2683
52072SOL    HW261028  12.571   8.192   9.228  0.7865 -0.7866 -0.3798
52073SOL     OW61029   7.660   1.877   6.092 -0.6576 -0.0571 -0.3259
52073SOL    HW161030   7.711   1.917   6.163  2.0276 -0.8816 -1.6308
52073SOL    HW261031   7.646   1.787   6.122  0.1143 -0.2893 -0.6473
52074SOL     OW61032   3.965  10.169   2.928 -0.4924 -0.0230 -0.1736
52074SOL    HW161033   3.892  10.174   2.866 -1.2555 -2.6649  0.3896
52074SOL    HW261034   4.033  10.122   2.881 -0.6685 -1.0849  0.6141
52075SOL     OW61035  12.545   9.450   6.439 -0.0032 -0.1173 -0.1321
52075SOL    HW161036  12.552   9.500   6.521  0.1897 -0.8424  0.3112
52075SOL    HW261037  12.457   9.467   6.407 -0.3781 -0.4783  0.6768
52076SOL     OW61038   2.961   0.544   8.480  0.0825  0.2851  0.0418
52076SOL    HW161039   3.032   0.529   8.417 -1.3120 -1.5747 -1.1833
52076SOL    HW261040   2.918   0.624   8.449  0.4380  0.3326 -0.3441
52077SOL     OW61041  12.224   1.813   7.960  0.4860  0.4870 -0.5529
52077SOL    HW161042  12.277   1.814   8.039  1.5650  1.8764 -1.2508
52077SOL    HW261043  12.287   1.813   7.888 -0.4606 -0.7413 -1.4366
52078SOL     OW61044   0.713   4.638  10.056  0.1289 -0.0813  0.8794
52078SOL    HW161045   0.734   4.644   9.963  2.1023  1.5844  1.3690
52078SOL    HW261046   0.636   4.694  10.067 -0.6778 -0.9980  0.1572
52079SOL     OW61047   7.328  11.979   5.360 -0.8067  0.0700 -0.3129
52079SOL    HW161048   7.373  11.898   5.335 -0.5815  0.3648 -0.8954
52079SOL    HW261049   7.325  11.977   5.456 -1.1043 -0.7795 -0.3368
52080SOL     OW61050   1.417   6.806   1.980 -0.1675  0.1282  0.0707
52080SOL    HW161051   1.465   6.872   1.930 -1.1159  1.2695  0.5960
52080SOL    HW261052   1.362   6.762   1.915 -1.0533  1.2901 -0.0073
52081SOL     OW61053   8.162   8.021  10.495  0.4171 -0.2017 -0.0472
52081SOL    HW161054   8.204   7.935  10.493  0.2065 -0.3037 -1.6998
52081SOL    HW261055   8.077   8.007  10.452  0.4956  0.8649 -0.6012
52082SOL     OW61056   4.994   5.936   6.498  0.4011 -0.8294 -0.1928
52082SOL    HW161057   5.004   5.880   6.575  0.3737  0.6483  0.9376
52082SOL    HW261058   5.068   5.997   6.504  0.0424 -0.3101 -0.9946
52083SOL     OW61059   3.481  10.457   2.488  0.4145 -0.5008  0.1398
52083SOL    HW161060   3.433  10.469   2.406  3.1228 -0.1132 -1.5255
52083SOL    HW261061   3.505  10.364   2.489  1.4458 -0.2439 -0.1559
52084SOL     OW61062   4.404   3.881   0.011 -0.1722 -0.3166 -0.0361
52084SOL    HW161063   4.464   3.879  -0.064  1.5064 -0.8090  1.2527
52084SOL    HW261064   4.459   3.859   0.086 -1.7565  0.3910  1.3903
52085SOL     OW61065   8.552   6.336   8.566 -0.1796 -0.6045 -0.1339
52085SOL    HW161066   8.534   6.287   8.646  1.9632 -0.2504  0.6103
52085SOL    HW261067   8.630   6.295   8.529 -0.3414  0.1071 -1.3310
52086SOL     OW61068   9.751   2.477   2.114 -0.1987  0.3999 -0.1508
52086SOL    HW161069   9.699   2.493   2.035 -0.8891  0.2500  0.2652
52086SOL    HW261070   9.834   2.521   2.097 -0.7605  1.3513 -0.4889
52087SOL     OW61071   5.693   3.941  10.360 -0.2877  0.2604 -0.0056
52087SOL    HW161072   5.699   3.999  10.435 -2.1763  1.0200 -0.3898
52087SOL    HW261073   5.765   3.879  10.371 -0.1902  0.6978  2.1072
52088SOL     OW61074   1.369  11.490   9.508 -0.1671  0.0428 -0.0707
52088SOL    HW161075   1.373  11.455   9.419  0.2234 -0.4367  0.1272
52088SOL    HW261076   1.458  11.520   9.526  0.0895 -1.0205  0.5998
52089SOL     OW61077  12.235   4.619  10.424 -0.4300 -0.0641  0.2761
52089SOL    HW161078  12.190   4.537  10.400 -0.9888  0.0547  0.8801
52089SOL    HW261079  12.289   4.639  10.348 -0.0589 -1.1486  0.2312
52090SOL     OW61080   7.580   1.933   2.292 -0.0648  0.7800  0.2759
52090SOL    HW161081   7.533   1.986   2.356 -0.9683  0.4750 -0.1192
52090SOL    HW261082   7.544   1.845   2.302  0.9868  0.3517  0.5027
52091SOL     OW61083   7.427  11.302  11.229  0.2184  0.5796  0.2344
52091SOL    HW161084   7.411  11.291  11.323  1.0376 -0.1707  0.2981
52091SOL    HW261085   7.478  11.225  11.204  2.1961  1.9972 -0.3109
52092SOL     OW61086   6.539   2.757   3.731 -0.2533 -0.1439 -0.9084
52092SOL    HW161087   6.499   2.839   3.758 -0.0084  0.0429 -1.1020
52092SOL    HW261088   6.472   2.714   3.678 -0.9162 -0.7404  0.3702
52093SOL     OW61089  11.007   5.158  11.873 -0.0872  0.5335  0.2560
52093SOL    HW161090  10.977   5.242  11.908  2.2018  1.5874 -0.0670
52093SOL    HW261091  11.005   5.170  11.778  1.9850  0.9745  0.2187
52094SOL     OW61092  11.090   5.243   0.818  0.9167 -0.2878 -0.5553
52094SOL    HW161093  11.058   5.153   0.817  0.2665 -0.0758 -2.1485
52094SOL    HW261094  11.110   5.261   0.910 -1.3513 -1.2055  0.1704
52095SOL     OW61095   4.936   9.308   5.357  0.5276 -0.0586  0.2589
52095SOL    HW161096   4.955   9.226   5.313 -1.2548  0.9422 -2.6811
52095SOL    HW261097   5.010   9.365   5.337  1.3945 -0.6660  1.6407
52096SOL     OW61098  11.165   1.800   2.251  0.7376  0.0609  0.7312
52096SOL    HW161099  11.223   1.760   2.315  0.2381 -1.1012  0.4867
52096SOL    HW261100  11.089   1.829   2.302 -0.9327 -3.3170  0.4110
52097SOL     OW61101   9.565  10.986   9.175  0.6089 -0.1604  0.0142
52097SOL    HW161102   9.652  10.996   9.137  0.4640 -2.6425 -1.1745
52097SOL    HW261103   9.578  10.925   9.248 -0.3358 -2.0452 -1.3159
52098SOL     OW61104   2.745   4.896   8.741  0.0401 -0.0273 -0.7950
52098SOL    HW161105   2.793   4.815   8.762  0.9071  0.6969  0.1582
52098SOL    HW261106   2.814   4.962   8.732 -0.6916  0.7003 -1.0763
52099SOL     OW61107   8.550   8.071   1.676  0.1075 -0.3997  0.0784
52099SOL    HW161108   8.500   8.125   1.615  2.0016  0.6822 -0.5858
52099SOL    HW261109   8.556   7.985   1.632 -1.9002 -0.8420  0.5988
52100SOL     OW61110  12.500   3.249  11.723 -0.0299 -0.2303  0.3160
52100SOL    HW161111  12.522   3.213  11.637  1.4752 -2.9628  1.6838
52100SOL    HW261112  12.448   3.327  11.704  3.0625  1.3130 -3.1204
52101SOL     OW61113  10.249   8.521   7.377  0.1551 -0.1158  0.1335
52101SOL    HW161114  10.168   8.525   7.429 -1.6712  1.1761 -2.5422
52101SOL    HW261115  10.238   8.445   7.320  1.5687 -0.8343  0.7815
52102SOL     OW61116   4.894   8.126   8.275 -0.1380  0.2583 -0.1040
52102SOL    HW161117   4.948   8.179   8.216  2.8668 -1.5800  0.7337
52102SOL    HW261118   4.860   8.055   8.220  1.2388 -0.4938 -0.0305
52103SOL     OW61119  11.596   0.414   2.009  0.4019 -0.2395  0.4347
52103SOL    HW161120  11.672   0.364   1.979  0.7680 -0.7417  2.0483
52103SOL    HW261121  11.521   0.371   1.968  1.0345  1.3431 -2.5900
52104SOL     OW61122   6.577   6.177  11.556 -0.3094  0.4877  0.1230
52104SOL    HW161123   6.614   6.093  11.586  0.2317 -0.1239 -2.0583
52104SOL    HW261124   6.484   6.170  11.574 -0.4277 -1.0316 -0.8971
52105SOL     OW61125  11.380  12.121   4.223  0.0120 -0.3870 -0.3294
52105SOL    HW161126  11.379  12.209   4.185 -2.0010  0.0137  0.5246
52105SOL    HW261127  11.472  12.105   4.244  0.5930  1.0084 -1.5937
52106SOL     OW61128   6.134   9.104   4.662  0.4687  0.2623  0.0971
52106SOL    HW161129   6.165   9.014   4.658  0.7346  0.3297  0.5205
52106SOL    HW261130   6.082   9.108   4.742 -1.3484 -0.0517 -0.9977
52107SOL     OW61131   4.709   1.866  10.749  0.3244 -0.4472 -0.2510
52107SOL    HW161132   4.709   1.961  10.758 -0.6456 -0.5948  1.7221
52107SOL    HW261133   4.627   1.846  10.704  0.2507 -0.3891 -0.1432
52108SOL     OW61134   6.371  10.619   3.894 -0.1443  0.2681  0.5077
52108SOL    HW161135   6.391  10.636   3.802  0.7781 -1.7370  0.3002
52108SOL    HW261136   6.452  10.640   3.940 -0.1883  0.0157  0.6996
52109SOL     OW61137   9.645  11.870   8.984  0.3107  0.3837  0.4070
52109SOL    HW161138   9.692  11.862   9.067 -0.1654  1.2550  0.7751
52109SOL    HW261139   9.596  11.952   8.992 -2.1521 -0.9941  0.4751
52110SOL     OW61140   5.391   6.782   6.364 -0.0411  0.0065  0.4771
52110SOL    HW161141   5.314   6.754   6.413 -0.7010 -2.4108 -1.7113
52110SOL    HW261142   5.357   6.842   6.297  0.1488 -0.0876  0.2923
52111SOL     OW61143   3.879   5.388  10.369  0.2072 -0.4744  0.2933
52111SOL    HW161144   3.810   5.422  10.312  1.4899  1.9635  0.0410
52111SOL    HW261145   3.961   5.419  10.329  1.4087 -2.3924  1.1387
52112SOL     OW61146   7.527  10.507   4.924  0.0458 -0.0353  0.2978
52112SOL    HW161147   7.536  10.475   5.014 -0.8974  0.9452  0.7770
52112SOL    HW261148   7.433  10.503   4.907 -0.3503  3.4641  0.8443
52113SOL     OW61149   2.892   3.931   9.573  0.1596  0.0560  0.0861
52113SOL    HW161150   2.804   3.895   9.578  0.9206 -1.8600  0.3478
52113SOL    HW261151   2.925   3.904   9.487  0.1572  1.6525 -0.4539
52114SOL     OW61152   2.806   4.083   4.307 -0.5485 -0.0151  0.0113
52114SOL    HW161153   2.854   4.129   4.239  2.2535 -1.1137  1.0883
52114SOL    HW261154   2.871   4.067   4.376 -2.5358 -1.4552  1.6857
52115SOL     OW61155  12.258  11.741   8.963 -0.1419 -0.1119 -0.2046
52115SOL    HW161156  12.250  11.668   9.025 -3.2238 -0.6781 -1.0887
52115SOL    HW261157  12.233  11.818   9.014 -0.8111 -0.3020 -0.2287
52116SOL     OW61158  11.717   2.766   8.499 -0.4470 -0.2329  0.0071
52116SOL    HW161159  11.662   2.691   8.518 -0.9216 -0.5048 -2.1059
52116SOL    HW261160  11.772   2.776   8.576 -1.1566 -2.0303  0.8089
52117SOL     OW61161   6.657   9.992   9.733  0.2321  0.1684 -0.2030
52117SOL    HW161162   6.648  10.054   9.806 -0.0180  0.7558 -0.7226
52117SOL    HW261163   6.594  10.023   9.668 -1.2972 -1.7169  0.2618
52118SOL     OW61164   9.644   0.372   8.532 -0.0918  0.8323 -0.0687
52118SOL    HW161165   9.702   0.303   8.500 -0.8116 -0.0036  0.3591
52118SOL    HW261166   9.662   0.447   8.476  1.1769  0.4973 -0.1255
52119SOL     OW61167   6.851   8.666   5.943  0.0330  0.6738  0.3020
52119SOL    HW161168   6.857   8.743   5.887 -0.1507 -0.7686 -1.8153
52119SOL    HW261169   6.882   8.594   5.889  2.5157 -0.4732  2.9692
52120SOL     OW61170   1.701   6.665   5.284  0.4104  0.4176 -0.2920
52120SOL    HW161171   1.611   6.647   5.258  0.1475  0.6186  0.4546
52120SOL    HW261172   1.715   6.610   5.361  1.4233 -0.7435 -1.2480
52121SOL     OW61173   1.955   6.134   7.811 -0.0224 -0.2698  0.0880
52121SOL    HW161174   1.928   6.189   7.737 -1.9642  0.2887  1.1625
52121SOL    HW261175   1.924   6.046   7.788 -2.6626  0.3077  1.1699
52122SOL     OW61176   4.228   4.888   7.613  0.2205 -0.2014  0.3056
52122SOL    HW161177   4.281   4.864   7.537  0.7414  0.2385  0.5210
52122SOL    HW261178   4.141   4.856   7.593  0.9047 -2.4518  0.6641
52123SOL     OW61179   2.112  11.267   1.899 -0.0795 -0.5954 -0.3829
52123SOL    HW161180   2.131  11.260   1.993  1.3756 -1.3555 -0.7002
52123SOL    HW261181   2.199  11.276   1.858 -0.7499  1.1149 -1.5661
52124SOL     OW61182   1.972   7.185   5.530  0.1150 -0.5462 -0.1517
52124SOL    HW161183   1.981   7.136   5.611  0.3399 -0.9861 -0.4397
52124SOL    HW261184   1.968   7.118   5.462  0.3742 -0.1639 -0.5462
52125SOL     OW61185  11.734   7.395  12.209  0.3676 -0.0036 -0.2263
52125SOL    HW161186  11.806   7.447  12.174 -0.5517  0.1066 -2.1321
52125SOL    HW261187  11.657   7.425  12.160 -0.4718 -2.0351 -0.2678
52126SOL     OW61188  12.030   4.384   9.200 -0.4378 -0.3239 -0.8228
52126SOL    HW161189  12.074   4.354   9.120  0.6937 -2.2289  0.4323
52126SOL    HW261190  11.951   4.428   9.169 -1.7600 -3.8086 -2.9628
52127SOL     OW61191   5.613   7.954   8.487  0.5997 -0.5822  0.6644
52127SOL    HW161192   5.567   7.931   8.568 -0.5655  0.6713  0.3980
52127SOL    HW261193   5.577   8.040   8.463  0.6665 -1.0747 -1.3555
52128SOL     OW61194  12.329   4.774   2.336 -0.9531 -0.3849 -0.1154
52128SOL    HW161195  12.365   4.728   2.259 -1.3653 -0.7600 -0.0859
52128SOL    HW261196  12.355   4.720   2.410  0.6826  0.7080  0.1734
52129SOL     OW61197   5.746   7.243   8.185 -0.3452 -0.6623 -0.2223
52129SOL    HW161198   5.656   7.239   8.152  0.1479  1.1553 -2.0105
52129SOL    HW261199   5.754   7.331   8.222  0.0678 -1.5959  2.0766
52130SOL     OW61200   7.006   9.674   1.331 -0.3643 -0.1049 -0.2086
52130SOL    HW161201   7.042   9.643   1.247  1.3414  0.4136  0.2804
52130SOL    HW261202   6.970   9.760   1.310  0.9760  0.4799 -0.2595
52131SOL     OW61203   8.883   0.200   1.910 -0.5666  0.4786 -0.3686
52131SOL    HW161204   8.800   0.206   1.863 -0.9218 -0.9616  0.0434
52131SOL    HW261205   8.943   0.157   1.849 -0.5319  0.2175 -0.1549
52132SOL     OW61206   6.232   1.715   3.404  0.1591 -0.0593 -0.4864
52132SOL    HW161207   6.175   1.638   3.401  1.3693 -0.9459 -1.6863
52132SOL    HW261208   6.318   1.680   3.425  0.6080  1.0505 -0.4390
52133SOL     OW61209   0.884   3.066   6.843 -0.0715  0.6892 -0.0248
52133SOL    HW161210   0.823   3.020   6.786 -0.6132  0.5570  0.6470
52133SOL    HW261211   0.841   3.149   6.862 -0.2345  0.4346  0.7667
52134SOL     OW61212   8.564   6.206   1.684  0.0976 -0.0985  0.2027
52134SOL    HW161213   8.651   6.243   1.702  0.4892 -1.0004  0.2284
52134SOL    HW261214   8.547   6.148   1.759 -0.8714  0.6560  0.5865
52135SOL     OW61215   7.128   9.866   9.150 -0.1890  0.2053 -0.3470
52135SOL    HW161216   7.177   9.949   9.148  0.4732 -0.1897 -0.7198
52135SOL    HW261217   7.139   9.834   9.239 -2.3873  1.6404  0.5352
52136SOL     OW61218   5.313  10.979   5.392 -0.1431 -0.0443  0.2682
52136SOL    HW161219   5.242  11.042   5.405  0.7316  1.0938 -0.1961
52136SOL    HW261220   5.272  10.893   5.398 -2.0428  0.5421 -2.4427
52137SOL     OW61221   9.025  11.516   0.822  0.0032  0.3863 -0.2111
52137SOL    HW161222   8.957  11.520   0.754 -0.3156  2.2194  0.1643
52137SOL    HW261223   9.014  11.597   0.871  0.6871 -0.5784  1.6175
52138SOL     OW61224   6.844   2.278   7.345  0.1431 -0.1038 -0.0207
52138SOL    HW161225   6.845   2.374   7.347  1.4123 -0.1234  1.6694
52138SOL    HW261226   6.860   2.257   7.253 -0.0440  1.2998 -0.4033
52139SOL     OW61227  10.229   2.748   6.115 -0.2351 -0.3386  0.0028
52139SOL    HW161228  10.186   2.807   6.052 -1.6056 -0.1169  1.1059
52139SOL    HW261229  10.291   2.699   6.062 -0.3584  0.8245 -1.2788
52140SOL     OW61230   1.489   0.732   0.744  0.6498  0.3269  0.1310
52140SOL    HW161231   1.476   0.728   0.650  1.8201 -0.3181 -0.0211
52140SOL    HW261232   1.401   0.749   0.780  0.2935  1.1925 -1.0895
52141SOL     OW61233   6.662   9.040   2.757 -0.1248  0.0564  0.1954
52141SOL    HW161234   6.711   8.973   2.708 -0.6129 -0.3289  0.2269
52141SOL    HW261235   6.716   9.119   2.751 -0.6355  0.3165 -1.8683
52142SOL     OW61236   4.767   6.839   9.628 -0.0919 -0.7284  0.3766
52142SOL    HW161237   4.798   6.862   9.540 -1.0858  1.0800  0.4378
52142SOL    HW261238   4.803   6.908   9.684 -3.7362  1.2924  0.4990
52143SOL     OW61239   4.517   8.438   0.654 -0.2504 -0.1016  0.0838
52143SOL    HW161240   4.546   8.382   0.726 -1.2748  0.9246  1.3665
52143SOL    HW261241   4.597   8.478   0.621  0.2386 -0.5046  0.7461
52144SOL     OW61242   3.521  11.053   4.439  0.4871  0.6166  0.1062
52144SOL    HW161243   3.616  11.042   4.437  0.4488  0.1623  0.6001
52144SOL    HW261244   3.493  11.006   4.518  0.1909  3.4443  1.8088
52145SOL     OW61245   5.761   5.838   0.704  0.2872  0.2694  0.1913
52145SOL    HW161246   5.776   5.930   0.685  1.1173  0.3022  0.9432
52145SOL    HW261247   5.730   5.801   0.622  2.0480  0.7717 -0.7620
52146SOL     OW61248  11.234   3.305   7.655  0.1447  0.2633  0.3593
52146SOL    HW161249  11.146   3.341   7.642 -0.6169 -1.3568  0.7151
52146SOL    HW261250  11.285   3.378   7.691 -1.2569  1.0183  0.8877
52147SOL     OW61251   5.574   3.326   9.664  0.6310 -0.2543  0.5123
52147SOL    HW161252   5.542   3.347   9.752 -1.0744  1.1079 -0.3632
52147SOL    HW261253   5.658   3.371   9.658  0.4565  0.1852  1.2276
52148SOL     OW61254  10.615   0.738  12.640 -0.1387  0.2641 -0.1451
52148SOL    HW161255  10.527   0.729  12.674  0.0671  0.2228  0.3894
52148SOL    HW261256  10.658   0.801  12.699  0.4370 -0.3520  0.1073
52149SOL     OW61257   8.477  12.381   5.105  0.4013 -0.1408 -0.0544
52149SOL    HW161258   8.489  12.447   5.037  0.2134  2.2953  2.1117
52149SOL    HW261259   8.535  12.409   5.176 -2.2732 -0.1515  2.3265
52150SOL     OW61260   9.639   9.342   2.291  0.5378 -0.4208 -0.5059
52150SOL    HW161261   9.636   9.424   2.243  0.8740 -0.0990  0.0071
52150SOL    HW261262   9.604   9.277   2.231 -1.5472  0.4081 -0.2718
52151SOL     OW61263   8.009   5.725   0.531 -0.0628 -0.5988 -0.0628
52151SOL    HW161264   7.995   5.746   0.623  1.9530 -0.3588  0.2427
52151SOL    HW261265   7.928   5.683   0.503 -1.0207  0.0603  1.5913
52152SOL     OW61266   5.297   5.887   7.338  0.6149 -0.0956 -0.1009
52152SOL    HW161267   5.271   5.890   7.245 -2.3634 -1.3060  0.5538
52152SOL    HW261268   5.308   5.794   7.356  0.7625  0.0996  0.8436
52153SOL     OW61269   1.208   4.524   9.363 -0.2218 -0.1030 -0.1035
52153SOL    HW161270   1.277   4.497   9.303 -0.7918  0.8710 -1.2444
52153SOL    HW261271   1.149   4.448   9.368  1.5003 -1.4068  1.8503
52154SOL     OW61272   2.138   9.529  12.633  0.4278 -0.0452 -0.7226
52154SOL    HW161273   2.045   9.549  12.641  0.5115  0.8516 -1.7969
52154SOL    HW261274   2.141   9.435  12.616 -0.2785 -0.0664 -0.7550
52155SOL     OW61275   3.099  11.984   9.686 -0.1453 -0.9547 -0.6255
52155SOL    HW161276   3.150  12.001   9.607  0.7849 -1.3268 -0.1103
52155SOL    HW261277   3.140  12.037   9.753 -1.0374 -0.5133 -0.4205
52156SOL     OW61278   3.620  10.855  11.987  0.1613 -0.8000  0.8992
52156SOL    HW161279   3.667  10.810  11.917  1.6847  0.3855  1.0954
52156SOL    HW261280   3.674  10.931  12.007 -0.5290 -0.7862  2.9697
52157SOL     OW61281   9.065   6.587   2.109 -0.3625 -0.6726 -0.1543
52157SOL    HW161282   9.081   6.519   2.043 -1.2318  0.5901 -1.7414
52157SOL    HW261283   9.147   6.636   2.115 -0.6595 -0.0115 -1.2731
52158SOL     OW61284  12.646   6.687   7.137 -0.0438  0.0386 -0.4363
52158SOL    HW161285  12.723   6.631   7.124 -1.0354 -1.2025 -1.2519
52158SOL    HW261286  12.571   6.630   7.116 -1.1193  1.5823 -0.9856
52159SOL     OW61287   2.934   5.026   6.395  0.3237 -0.0713 -0.4901
52159SOL    HW161288   2.888   5.110   6.388  0.4219  0.6114  4.0303
52159SOL    HW261289   3.027   5.049   6.390  0.3388 -0.0125  0.0610
52160SOL     OW61290   0.583   1.987  12.515  0.2519  0.3289  0.4706
52160SOL    HW161291   0.509   2.046  12.530 -0.9335 -1.1957  0.9270
52160SOL    HW261292   0.607   2.001  12.424  0.0687  1.5680  0.5962
52161SOL     OW61293   1.269   5.227   6.966  0.1225 -0.2839 -0.1464
52161SOL    HW161294   1.328   5.215   7.040  1.2477  0.8253 -0.8266
52161SOL    HW261295   1.326   5.231   6.889 -0.9484 -0.5465 -0.9859
52162SOL     OW61296   1.697   9.804   9.586 -0.3384 -0.3626 -0.1738
52162SOL    HW161297   1.765   9.816   9.652 -1.0556  0.2584  0.4713
52162SOL    HW261298   1.652   9.723   9.612 -0.7225 -0.0331  0.1984
52163SOL     OW61299   0.513   2.174   6.870 -0.1101 -0.7890 -0.6310
52163SOL    HW161300   0.537   2.096   6.819 -0.1871 -0.6762 -0.8444
52163SOL    HW261301   0.569   2.171   6.947 -2.2087 -2.7111  0.9287
52164SOL     OW61302   4.755   5.075  12.442 -0.0809 -0.0554  0.1753
52164SOL    HW161303   4.708   4.992  12.447  0.9115 -0.7057 -0.8944
52164SOL    HW261304   4.694   5.139  12.479 -1.0489 -1.1682  0.5696
52165SOL     OW61305   4.802   4.242  11.178  0.0672  0.1793  0.7350
52165SOL    HW161306   4.744   4.312  11.147  0.7700  0.1928 -0.6277
52165SOL    HW261307   4.889   4.282  11.179 -0.0403  0.5557  3.9865
52166SOL     OW61308   4.669   9.360   1.640  0.0746 -0.7426  0.3623
52166SOL    HW161309   4.668   9.329   1.550  2.9435 -1.0033  0.3305
52166SOL    HW261310   4.721   9.440   1.637 -0.1935 -0.4986  1.7012
52167SOL     OW61311   0.529   7.880   8.236  0.0938 -0.3252  0.0732
52167SOL    HW161312   0.523   7.970   8.267  0.3771  0.1326 -1.1597
52167SOL    HW261313   0.442   7.844   8.251 -0.2929  0.4429 -0.2848
52168SOL     OW61314  11.692   3.142   6.775  0.4118  0.6607 -0.0870
52168SOL    HW161315  11.708   3.048   6.767 -0.7762  0.3061  1.2348
52168SOL    HW261316  11.731   3.166   6.859  1.1552  1.4637 -0.6528
52169SOL     OW61317   2.782   0.549  10.759 -0.3878 -0.0148  0.6228
52169SOL    HW161318   2.703   0.510  10.794 -0.4837 -0.6877 -0.3148
52169SOL    HW261319   2.796   0.627  10.813 -1.7873  0.2246  0.6713
52170SOL     OW61320  11.993   4.346   7.721  0.0684 -0.0751 -0.9828
52170SOL    HW161321  12.060   4.412   7.739  0.0048 -0.7652  2.4331
52170SOL    HW261322  11.919   4.395   7.686  0.9762  1.2439 -1.1083
52171SOL     OW61323   6.694  10.530  12.601 -0.6110  0.4750  0.4074
52171SOL    HW161324   6.612  10.562  12.638 -0.3538  0.2202  1.2372
52171SOL    HW261325   6.759  10.596  12.626 -0.0944 -0.5821  2.0580
52172SOL     OW61326   9.209   1.765   4.376  0.3416  0.1036  0.3026
52172SOL    HW161327   9.215   1.743   4.468 -1.4689  0.0321  0.4330
52172SOL    HW261328   9.299   1.761   4.344  0.7445 -2.3141  1.4972
52173SOL     OW61329   5.195   0.553   2.680 -0.1168  0.2886  0.1427
52173SOL    HW161330   5.178   0.466   2.644  0.4862  0.6963 -1.1921
52173SOL    HW261331   5.271   0.585   2.632  1.8874  0.2080  2.9992
52174SOL     OW61332   8.567   4.290   1.915 -0.0375 -0.4834  0.8122
52174SOL    HW161333   8.499   4.325   1.857  1.0335  0.0276 -0.1774
52174SOL    HW261334   8.522   4.225   1.968 -1.3528  0.0142  0.3584
52175SOL     OW61335   7.322   3.104   2.727  0.1122 -0.2822 -0.5961
52175SOL    HW161336   7.252   3.117   2.664  1.2701  0.4318 -1.7941
52175SOL    HW261337   7.397   3.152   2.690  0.8484  0.1505  1.3049
52176SOL     OW61338   0.253   9.771   6.531  0.1098 -0.0893  0.7218
52176SOL    HW161339   0.166   9.748   6.564  0.2387  0.2235  1.2858
52176SOL    HW261340   0.284   9.691   6.489  0.4901 -0.9315  2.5204
52177SOL     OW61341   8.739   4.541   5.435 -0.0001 -0.2211  0.4712
52177SOL    HW161342   8.745   4.624   5.388 -1.2486  0.4332  1.3954
52177SOL    HW261343   8.825   4.500   5.424  0.1789  0.5241 -1.1893
52178SOL     OW61344   4.059   2.769  12.326 -0.1769 -0.3339 -0.0197
52178SOL    HW161345   4.139   2.820  12.337 -0.5820  0.3949 -0.3935
52178SOL    HW261346   4.045   2.728  12.412  0.2730  0.0111  0.2227
52179SOL     OW61347  11.616   1.691   7.126 -0.2015  0.0763 -0.2851
52179SOL    HW161348  11.616   1.717   7.034 -3.1714  2.4407  0.2098
52179SOL    HW261349  11.561   1.613   7.129 -0.0835 -0.0172 -0.5224
52180SOL     OW61350   9.906   3.767   0.052 -0.1363 -0.0644 -0.0536
52180SOL    HW161351   9.940   3.764  -0.037  1.8479 -1.1578  0.6744
52180SOL    HW261352   9.940   3.849   0.088  1.8685 -1.1390  0.6617
52181SOL     OW61353  11.778   7.349   3.275 -0.6603 -0.3491  0.3471
52181SOL    HW161354  11.821   7.327   3.193  0.3736  0.4803  0.6436
52181SOL    HW261355  11.711   7.413   3.251  0.2495  0.5945  0.2403
52182SOL     OW61356   3.053   3.895   0.119 -0.3772  0.0095  0.2673
52182SOL    HW161357   3.051   3.822   0.181 -1.6644  0.3507  0.6639
52182SOL    HW261358   3.054   3.853   0.033 -0.1948 -0.4672  0.4988
52183SOL     OW61359   4.269   6.712  12.321  0.3103 -0.3577 -0.5512
52183SOL    HW161360   4.265   6.758  12.406 -0.5235  0.4507 -1.0137
52183SOL    HW261361   4.285   6.621  12.344  1.5599  0.0748  0.4181
52184SOL     OW61362   1.197   9.975   0.015  0.3146  0.0726 -0.3367
52184SOL    HW161363   1.291   9.973  -0.003  0.6732 -3.0482  1.3033
52184SOL    HW261364   1.156   9.931  -0.059  0.0941  1.4424 -1.0572
52185SOL     OW61365  10.575  12.520  10.031  0.4784  0.0159 -0.4975
52185SOL    HW161366  10.589  12.600  10.082 -1.3271 -0.5226  0.9532
52185SOL    HW261367  10.525  12.550   9.955 -2.6373  0.0188  1.3896
52186SOL     OW61368   8.056   2.806   7.496  0.0297 -0.1085 -0.4237
52186SOL    HW161369   8.059   2.846   7.584 -1.5013 -0.3918 -0.2114
52186SOL    HW261370   8.073   2.714   7.511 -2.3998 -0.5714 -0.0705
52187SOL     OW61371   0.855   3.819   1.452 -0.3337  0.6766  0.4381
52187SOL    HW161372   0.935   3.815   1.505  0.8482  3.2187 -0.9454
52187SOL    HW261373   0.814   3.902   1.478 -0.5451  1.1935 -1.4366
52188SOL     OW61374   5.726  12.593   3.720  0.3495  0.0644 -0.4666
52188SOL    HW161375   5.800  12.533   3.718 -0.5066 -1.0995  0.8381
52188SOL    HW261376   5.765  12.680   3.733  1.4823 -0.4902 -0.0648
52189SOL     OW61377   0.924  11.043   6.246  0.0079  0.2449 -0.6856
52189SOL    HW161378   0.907  11.135   6.221  0.2456  0.9729  1.6382
52189SOL    HW261379   0.903  10.993   6.167 -1.1999  2.1969 -1.6825
52190SOL     OW61380   5.629   5.617   4.064 -0.0845  0.3014  0.3345
52190SOL    HW161381   5.703   5.636   4.122 -0.2123 -0.0296  0.6076
52190SOL    HW261382   5.664   5.553   4.001  0.0831  0.7381 -0.0182
52191SOL     OW61383  10.848   2.007  11.025  0.3757 -0.0193  0.3578
52191SOL    HW161384  10.755   2.010  11.002  0.5255 -1.1886 -0.4696
52191SOL    HW261385  10.871   1.914  11.023  2.1691  0.3603 -2.0593
52192SOL     OW61386   7.438   5.798   7.210  0.0765 -0.0180 -0.5385
52192SOL    HW161387   7.453   5.884   7.171 -0.1873 -0.0318 -0.6769
52192SOL    HW261388   7.504   5.790   7.278 -0.5764  0.7496  0.2144
52193SOL     OW61389   6.020   4.991   8.068 -0.5683  0.6792  0.2368
52193SOL    HW161390   5.990   5.055   8.132 -3.1030 -0.2821  0.1339
52193SOL    HW261391   5.981   4.908   8.096 -0.2685 -0.1290 -1.5517
52194SOL     OW61392   1.460   0.887   2.865  0.3201 -0.8011  0.0547
52194SOL    HW161393   1.371   0.920   2.879  0.4266  0.2218 -1.4949
52194SOL    HW261394   1.457   0.844   2.780  1.2464 -1.0135  0.1187
52195SOL     OW61395   6.157   9.015   5.497  0.7115  0.1747 -0.4245
52195SOL    HW161396   6.221   8.955   5.536  1.7496  0.2351 -1.9403
52195SOL    HW261397   6.115   8.963   5.428 -1.7470 -0.2229  1.2376
52196SOL     OW61398   3.339   1.861   3.357  0.6686 -0.1054 -0.0549
52196SOL    HW161399   3.310   1.785   3.408 -0.3245  0.9035  0.9266
52196SOL    HW261400   3.270   1.875   3.293  0.8659 -0.0338 -0.2534
52197SOL     OW61401   6.695   8.220  11.321  0.2004  0.0676 -0.0207
52197SOL    HW161402   6.784   8.237  11.291  0.8361 -0.1754  1.6581
52197SOL    HW261403   6.640   8.245  11.246  1.6360  0.4896 -0.9840
52198SOL     OW61404   2.522   6.732   7.799 -0.5619  0.1503 -0.3858
52198SOL    HW161405   2.477   6.757   7.719 -1.2011  0.4813  0.0672
52198SOL    HW261406   2.463   6.669   7.841 -1.3104  1.6429  0.9053
52199SOL     OW61407   8.561   2.689   6.088  0.3715 -0.1174 -0.3368
52199SOL    HW161408   8.605   2.760   6.135 -0.3809  1.2848 -1.6596
52199SOL    HW261409   8.632   2.637   6.052  1.0186  1.5254 -1.5768
52200SOL     OW61410  11.132  11.961   8.352 -0.4448 -0.4658  0.2201
52200SOL    HW161411  11.209  11.970   8.296  0.1076 -1.5278  0.7859
52200SOL    HW261412  11.092  12.048   8.352  1.6746  0.5818  1.2396
52201SOL     OW61413   6.498   3.098   8.374  0.2720  0.2613 -0.7220
52201SOL    HW161414   6.426   3.138   8.423  0.7964 -0.3470  0.6182
52201SOL    HW261415   6.457   3.026   8.326  0.0971 -0.7536  0.8519
52202SOL     OW61416   2.948  10.195  12.442 -0.2737  0.4189  0.1754
52202SOL    HW161417   3.002  10.214  12.365 -1.0601  1.5029 -0.1367
52202SOL    HW261418   2.962  10.270  12.500  0.1633 -0.3026  1.0182
52203SOL     OW61419   1.441   5.991   3.005  0.0629  0.3893  0.5357
52203SOL    HW161420   1.532   6.009   3.030  0.1806  0.6277 -0.0499
52203SOL    HW261421   1.423   5.904   3.040  1.0101 -0.3116 -0.6410
52204SOL     OW61422   3.851   7.324   0.848 -0.4209 -0.1195  0.0447
52204SOL    HW161423   3.829   7.384   0.777  1.6378  1.5243  0.7046
52204SOL    HW261424   3.875   7.242   0.805 -1.2280  0.1840 -1.0025
52205SOL     OW61425  12.097   0.531   8.814 -0.1331  0.1753  0.7147
52205SOL    HW161426  12.169   0.573   8.767 -0.0395 -1.4196 -0.6228
52205SOL    HW261427  12.028   0.598   8.815  0.5333  0.9047 -0.0178
52206SOL     OW61428   0.120   4.584   1.607  0.1794  0.1784  0.2614
52206SOL    HW161429   0.039   4.632   1.590 -0.8606 -1.2100  1.0763
52206SOL    HW261430   0.123   4.574   1.702  0.7365 -0.7124  0.1634
52207SOL     OW61431   1.920   7.933  11.019  0.2896 -0.1318 -0.0903
52207SOL    HW161432   1.978   7.930  10.943 -0.2414  0.8556 -0.5463
52207SOL    HW261433   1.970   7.979  11.086  0.4378 -0.2515 -0.1176
52208SOL     OW61434   4.008   6.723   4.953  0.3891  0.4518 -0.0717
52208SOL    HW161435   4.025   6.759   5.040  1.5957  0.1561 -0.1620
52208SOL    HW261436   3.984   6.631   4.969 -0.5106  0.6975  0.0155
52209SOL     OW61437  11.299  10.467   5.501 -0.1356  0.6133  0.3993
52209SOL    HW161438  11.265  10.416   5.427 -0.3307 -1.4520  1.8276
52209SOL    HW261439  11.358  10.530   5.461 -1.1589  0.3969 -1.6234
52210SOL     OW61440   7.741   2.169   2.534  0.2150  0.0319 -0.2227
52210SOL    HW161441   7.650   2.170   2.504  0.4033 -0.2994 -0.8311
52210SOL    HW261442   7.791   2.144   2.456  0.8969  0.9302 -0.0800
52211SOL     OW61443   5.826  12.238   7.389  0.1409 -0.1712  0.6049
52211SOL    HW161444   5.853  12.215   7.300 -0.7581 -0.5007  0.4074
52211SOL    HW261445   5.885  12.309   7.414  0.9608 -0.6390  0.0721
52212SOL     OW61446  11.111   8.276   5.082  0.2814 -0.0855 -0.0781
52212SOL    HW161447  11.041   8.340   5.094  2.3671  2.0967  1.5153
52212SOL    HW261448  11.106   8.220   5.159 -0.9663 -1.2924 -1.0090
52213SOL     OW61449  12.323   8.256   7.794  0.0372  0.4303 -0.7245
52213SOL    HW161450  12.411   8.223   7.815 -0.0446  0.2751 -0.6218
52213SOL    HW261451  12.264   8.199   7.843 -0.2134 -0.5001 -2.0752
52214SOL     OW61452   1.634   9.456   8.195  0.3431 -0.1145  0.2138
52214SOL    HW161453   1.671   9.398   8.262  0.2493 -0.4432 -0.0148
52214SOL    HW261454   1.556   9.410   8.164 -0.8427  1.0218  1.3894
52215SOL     OW61455   3.598   2.519   5.009 -0.0411  0.6650  0.0865
52215SOL    HW161456   3.583   2.577   4.935 -1.4352 -0.1396 -0.3076
52215SOL    HW261457   3.524   2.458   5.007 -0.2643  0.7818  2.2809
52216SOL     OW61458   4.594   9.790   8.377 -0.0653  0.8015 -0.0420
52216SOL    HW161459   4.559   9.705   8.405 -1.2466  0.5916 -1.9833
52216SOL    HW261460   4.520   9.851   8.388 -0.1103  0.9899 -1.2664
52217SOL     OW61461   8.827   7.749  12.200  0.0697  0.3765 -0.4903
52217SOL    HW161462   8.770   7.718  12.129  0.6695 -1.7453 -0.1111
52217SOL    HW261463   8.766   7.776  12.269 -0.5304 -1.1562 -0.3793
52218SOL     OW61464   5.824   9.330   1.740 -0.0686  0.1409 -0.7685
52218SOL    HW161465   5.745   9.376   1.710 -1.6725 -1.1613  1.1828
52218SOL    HW261466   5.863   9.388   1.805 -0.4780 -0.0110 -0.3844
52219SOL     OW61467   1.860   4.827   8.307 -0.0684  0.0300  0.0304
52219SOL    HW161468   1.946   4.864   8.326  0.1409  1.4686 -2.9881
52219SOL    HW261469   1.800   4.872   8.367  0.7872  2.1837 -0.6138
52220SOL     OW61470   9.807   3.514   8.009  0.3956  0.5044 -0.6572
52220SOL    HW161471   9.765   3.593   8.044  3.3708  1.7746  0.3768
52220SOL    HW261472   9.862   3.547   7.937  0.5401 -0.8808 -1.2050
52221SOL     OW61473   5.186  12.281   7.659  0.4782 -0.5317  0.2131
52221SOL    HW161474   5.153  12.359   7.703 -1.4476 -1.1395 -0.0234
52221SOL    HW261475   5.205  12.219   7.729  2.9969  0.4400  0.4669
52222SOL     OW61476   7.712   6.782   2.687  0.7807 -0.0155  0.0184
52222SOL    HW161477   7.806   6.793   2.677  0.7161  0.0066 -0.5707
52222SOL    HW261478   7.693   6.817   2.774  1.1156  1.2318 -0.3928
52223SOL     OW61479   3.424   2.599  12.550 -0.2690  0.0616 -0.2918
52223SOL    HW161480   3.363   2.532  12.579 -0.4256 -0.3287 -1.4971
52223SOL    HW261481   3.373   2.656  12.492  0.2613  0.2917 -0.5475
52224SOL     OW61482   5.405   4.764   1.631 -0.3597  0.0776 -0.2749
52224SOL    HW161483   5.345   4.758   1.705  1.9602 -1.7229  1.5932
52224SOL    HW261484   5.464   4.836   1.653 -0.2040  0.1365 -0.8450
52225SOL     OW61485   5.141   4.297  10.241 -0.1180 -0.5646 -0.2536
52225SOL    HW161486   5.086   4.253  10.177 -0.4074 -1.3863  0.5437
52225SOL    HW261487   5.126   4.250  10.323  0.8343 -0.0292  0.2514
52226SOL     OW61488   5.106  11.599   2.411  0.2153  0.5184  0.1521
52226SOL    HW161489   5.152  11.655   2.473 -0.2706  1.6726 -0.4740
52226SOL    HW261490   5.106  11.512   2.451  1.4302  0.8523  0.9334
52227SOL     OW61491   3.690   8.932   6.386 -0.0506  0.3151 -0.3660
52227SOL    HW161492   3.659   9.023   6.382 -1.1556  0.0161  0.8287
52227SOL    HW261493   3.767   8.931   6.328 -1.0783  1.5694 -1.8368
52228SOL     OW61494   2.770   6.835   7.796  0.3306  0.0270  0.2064
52228SOL    HW161495   2.678   6.812   7.784 -0.2197  1.5014  1.3781
52228SOL    HW261496   2.810   6.757   7.834 -0.8021 -0.0883  1.1955
52229SOL     OW61497   6.728   7.869   7.368  0.1422  0.2755  0.2118
52229SOL    HW161498   6.702   7.870   7.460 -0.7689 -0.5321 -0.0263
52229SOL    HW261499   6.681   7.795   7.330  2.5055 -1.0547 -0.3326
52230SOL     OW61500   1.761   7.162  10.443 -0.2618 -0.2310  0.0652
52230SOL    HW161501   1.731   7.151  10.534 -1.6229  1.0859 -0.1956
52230SOL    HW261502   1.687   7.202  10.398  0.9316  0.5493 -1.2757
52231SOL     OW61503   3.621  10.801   7.500  0.5180 -0.2280 -0.1702
52231SOL    HW161504   3.601  10.843   7.584 -0.1292 -0.5783 -0.1483
52231SOL    HW261505   3.541  10.755   7.476  1.1844 -1.3943 -0.2393
52232SOL     OW61506   4.738   2.620   7.571  0.1636  1.0822  0.0099
52232SOL    HW161507   4.808   2.623   7.636 -0.8865 -0.9963  1.3548
52232SOL    HW261508   4.781   2.596   7.489  0.9980 -0.8959  0.9661
52233SOL     OW61509  11.586  11.304   9.460  0.7164  0.3145  0.0174
52233SOL    HW161510  11.606  11.245   9.388  0.6467  0.9216 -0.5072
52233SOL    HW261511  11.494  11.287   9.480  0.3226  1.1390 -0.9962
52234SOL     OW61512   1.848   0.407   7.394  0.7357  0.1525  0.0901
52234SOL    HW161513   1.874   0.406   7.486  0.5536  1.0444  0.1583
52234SOL    HW261514   1.895   0.481   7.356  0.5098  0.0284 -0.4415
52235SOL     OW61515   1.590   3.684   7.363 -0.1994 -0.8975 -0.0709
52235SOL    HW161516   1.601   3.608   7.307  0.8715 -0.5826 -0.3113
52235SOL    HW261517   1.594   3.650   7.452  1.1941 -1.0198 -0.1669
52236SOL     OW61518  12.550   9.594   2.030 -0.3584 -0.4435 -0.4269
52236SOL    HW161519  12.469   9.575   1.981  0.1584  0.8523 -1.8652
52236SOL    HW261520  12.593   9.508   2.037 -1.1471 -0.9055 -0.9778
52237SOL     OW61521  10.360   0.635   2.860  0.2431 -0.1986  0.8416
52237SOL    HW161522  10.315   0.714   2.828  0.6451 -0.1422  0.4043
52237SOL    HW261523  10.435   0.624   2.801  0.9014 -0.2029  1.6697
52238SOL     OW61524   8.290   6.801   0.960  0.0849  0.8144 -0.3362
52238SOL    HW161525   8.231   6.739   0.918  0.0378  1.2396 -0.9137
52238SOL    HW261526   8.300   6.872   0.896  1.5216  0.5706 -0.4172
52239SOL     OW61527   0.127   2.207   8.399  0.4791 -0.1036  0.2791
52239SOL    HW161528   0.094   2.212   8.309 -0.6122  1.1293  0.7267
52239SOL    HW261529   0.055   2.237   8.454  0.8541 -1.5676  1.6693
52240SOL     OW61530   5.152   6.377  10.530 -0.0780  0.2652  0.7996
52240SOL    HW161531   5.225   6.439  10.532  0.1447  0.0257  0.2426
52240SOL    HW261532   5.116   6.385  10.442 -0.8763  0.5467  1.1497
52241SOL     OW61533   8.354  10.941   1.025 -0.4432  0.0225  1.0174
52241SOL    HW161534   8.394  10.934   0.938  1.1305 -0.7418  1.7753
52241SOL    HW261535   8.306  11.024   1.022  0.0856  0.3085 -0.3741
52242SOL     OW61536   4.964   8.574   8.100 -0.4141 -0.0114 -0.7828
52242SOL    HW161537   5.031   8.561   8.168 -0.4771  0.4284 -0.6331
52242SOL    HW261538   5.007   8.626   8.033 -0.2218 -0.8157 -1.2861
52243SOL     OW61539   2.434   5.875   0.982 -0.1514 -0.2020  0.1574
52243SOL    HW161540   2.429   5.804   0.919 -0.8071 -0.3685  0.3853
52243SOL    HW261541   2.519   5.865   1.024 -0.4641 -1.1946  0.5764
52244SOL     OW61542   6.781  11.732   8.539  0.4904 -0.4656  0.5101
52244SOL    HW161543   6.864  11.685   8.541 -0.1158 -1.5994 -0.1160
52244SOL    HW261544   6.723  11.682   8.597 -0.6276 -1.4820 -1.3784
52245SOL     OW61545   2.681   0.702  12.610  0.6820 -0.3866  0.1843
52245SOL    HW161546   2.702   0.776  12.552 -2.6213  1.5506  1.2299
52245SOL    HW261547   2.627   0.644  12.557  3.1349 -2.1370 -0.5819
52246SOL     OW61548   0.124   5.240   2.463 -0.1140  0.0042  0.3843
52246SOL    HW161549   0.124   5.293   2.383  0.4618 -1.1645 -0.4306
52246SOL    HW261550   0.181   5.166   2.442 -0.1229 -0.4374  1.8204
52247SOL     OW61551   9.977  11.156  10.008  0.1747  0.2707 -0.5559
52247SOL    HW161552   9.909  11.204  10.056 -1.4311 -0.9732 -1.4754
52247SOL    HW261553  10.027  11.111  10.076 -0.8359  0.0805  0.0819
52248SOL     OW61554   5.730   0.674  10.798 -0.0850  0.1774 -0.1505
52248SOL    HW161555   5.796   0.743  10.804 -0.5556  0.7126 -0.9959
52248SOL    HW261556   5.656   0.715  10.754 -0.6510 -0.6683 -0.0077
52249SOL     OW61557  11.520   7.199   7.864 -0.3045 -0.0521 -0.0732
52249SOL    HW161558  11.552   7.139   7.797  1.1104 -0.3178  0.7973
52249SOL    HW261559  11.452   7.250   7.820 -0.1460 -0.9318 -1.3985
52250SOL     OW61560  10.669  10.899   1.464  0.6760  0.8254 -0.1781
52250SOL    HW161561  10.764  10.898   1.451  0.5283  2.7800 -1.8439
52250SOL    HW261562  10.643  10.989   1.446 -1.3653  0.6750  1.5887
52251SOL     OW61563   5.648   2.488   8.412 -0.6268 -0.4702 -0.1591
52251SOL    HW161564   5.629   2.541   8.490  1.8282 -3.4241  2.7259
52251SOL    HW261565   5.732   2.520   8.382 -1.1755  0.0886 -1.1557
52252SOL     OW61566   5.937   7.184   3.586 -0.7252 -0.1209  0.2006
52252SOL    HW161567   5.986   7.154   3.509  2.0823  0.3588  1.6651
52252SOL    HW261568   5.890   7.262   3.555  1.2496  0.7393 -0.8250
52253SOL     OW61569   8.689   8.161   8.146  0.2969  0.1558 -0.4403
52253SOL    HW161570   8.731   8.171   8.060  2.3943  0.6604  0.5967
52253SOL    HW261571   8.629   8.087   8.134  3.9633 -3.0583 -1.1710
52254SOL     OW61572  12.565   1.498  12.087 -0.1698 -0.6831 -0.1944
52254SOL    HW161573  12.558   1.572  12.027  3.0746  0.7229  0.9656
52254SOL    HW261574  12.602   1.427  12.033  0.3840 -0.2194 -0.4323
52255SOL     OW61575   9.502  10.277   1.293 -0.2192 -0.1531  0.3306
52255SOL    HW161576   9.551  10.267   1.374 -0.3034  1.5337  0.6191
52255SOL    HW261577   9.500  10.371   1.277 -2.2642 -0.2551 -0.3515
52256SOL     OW61578   4.559   4.183   1.973  0.5604 -0.0900 -0.1222
52256SOL    HW161579   4.573   4.266   1.929  1.7894 -0.2382 -0.0301
52256SOL    HW261580   4.581   4.200   2.065 -1.7455  0.1601  0.4609
52257SOL     OW61581   6.493  10.789   4.895 -0.0351  0.1433  0.3431
52257SOL    HW161582   6.463  10.878   4.911  2.4173  1.0850  0.1175
52257SOL    HW261583   6.505  10.784   4.800  0.7168 -0.0985  0.4420
52258SOL     OW61584   4.437   5.282   4.212 -0.0870  0.5142  0.3720
52258SOL    HW161585   4.524   5.316   4.236  0.1316 -0.4615  1.0390
52258SOL    HW261586   4.387   5.360   4.189 -0.2215  1.6076  3.7813
52259SOL     OW61587  11.184   4.838   9.228 -0.2014  0.4265 -0.1915
52259SOL    HW161588  11.248   4.799   9.287 -0.6449 -0.1589 -0.0914
52259SOL    HW261589  11.235   4.869   9.153  0.0119 -1.7305 -1.0115
52260SOL     OW61590   4.486   6.281  11.066 -0.5882 -0.7008 -0.4491
52260SOL    HW161591   4.402   6.262  11.108  0.2286 -0.7432  1.2694
52260SOL    HW261592   4.536   6.328  11.133  1.2711 -1.9338 -0.8922
52261SOL     OW61593  11.880  11.081   8.939  0.2759  1.1627  0.3286
52261SOL    HW161594  11.833  11.085   8.855  1.0330  1.2429 -0.1008
52261SOL    HW261595  11.817  11.114   9.003 -0.1971  1.4249 -0.2619
52262SOL     OW61596  10.013  12.079  10.397  0.3536 -0.4449 -0.1404
52262SOL    HW161597  10.035  12.169  10.418  1.1087 -0.9650  1.4660
52262SOL    HW261598  10.086  12.048  10.343  0.2852 -0.2171 -0.3647
52263SOL     OW61599  10.465   5.691  10.550 -0.5806  0.1798  0.5945
52263SOL    HW161600  10.503   5.631  10.615 -2.3836 -1.1387  0.5137
52263SOL    HW261601  10.392   5.734  10.596 -0.2455  1.2058  0.1996
52264SOL     OW61602   8.909   3.755   3.968 -0.0513 -0.5828  0.5051
52264SOL    HW161603   8.951   3.741   4.053 -0.3893  0.5446  0.8702
52264SOL    HW261604   8.843   3.822   3.984 -0.0310 -0.2565 -0.6716
52265SOL     OW61605  10.873  10.648   1.745 -0.8353  0.0046 -0.3039
52265SOL    HW161606  10.834  10.562   1.727 -0.8130  0.0336 -0.4929
52265SOL    HW261607  10.927  10.666   1.668 -0.0642 -0.2583  0.1583
52266SOL     OW61608  12.404   6.316  11.039 -0.3037 -0.0630  0.6210
52266SOL    HW161609  12.335   6.292  11.101  0.7822 -0.7676  1.6004
52266SOL    HW261610  12.417   6.410  11.054  0.3714 -0.3352  1.9542
52267SOL     OW61611   6.929   1.787   1.005  0.5418  0.1812  0.4878
52267SOL    HW161612   7.007   1.732   0.990  1.4297  0.2798  3.9285
52267SOL    HW261613   6.941   1.861   0.945  3.1850  0.2380  0.9474
52268SOL     OW61614  12.607   5.063   9.360  0.1900  0.3152  1.1584
52268SOL    HW161615  12.595   5.153   9.330  0.1481 -0.0927 -0.1057
52268SOL    HW261616  12.698   5.042   9.338 -0.1012 -0.2871  0.5051
52269SOL     OW61617   2.044   9.636   5.836 -0.0097 -0.2576  0.6889
52269SOL    HW161618   2.058   9.611   5.927  1.8146 -0.4258  0.4046
52269SOL    HW261619   2.131   9.633   5.797 -0.7473 -0.1176 -1.0514
52270SOL     OW61620   3.323   2.636   4.981 -0.1585  0.2600  0.0161
52270SOL    HW161621   3.363   2.662   4.898 -2.4205 -2.5599 -2.1599
52270SOL    HW261622   3.230   2.656   4.971 -0.5328 -0.3437  1.7956
52271SOL     OW61623  11.012   4.447   5.989 -0.8038 -0.6425 -0.4293
52271SOL    HW161624  10.919   4.429   6.007 -1.0085  0.8232  0.1035
52271SOL    HW261625  11.024   4.425   5.897 -2.0629  0.5648 -0.9073
52272SOL     OW61626   5.631   5.740   7.515  0.4198 -0.3281 -0.1098
52272SOL    HW161627   5.572   5.815   7.514  0.0636 -0.5907  0.5508
52272SOL    HW261628   5.645   5.718   7.423 -0.2582 -0.0700 -0.2762
52273SOL     OW61629   8.422   9.969  10.101  0.2794 -0.3066 -0.1891
52273SOL    HW161630   8.476   9.999  10.174 -0.2206 -0.3065  0.1852
52273SOL    HW261631   8.342  10.021  10.107  0.3757 -0.0492 -0.9564
52274SOL     OW61632   9.637   1.317   7.634 -0.0084  0.4252  0.3543
52274SOL    HW161633   9.714   1.365   7.663  0.4190  0.3550 -0.6036
52274SOL    HW261634   9.589   1.380   7.581  0.1374  0.0557 -0.2345
52275SOL     OW61635  12.164   8.886   0.474  0.0699  0.4085 -0.0038
52275SOL    HW161636  12.087   8.838   0.444 -0.6330  2.2061 -1.2591
52275SOL    HW261637  12.161   8.878   0.570 -1.6398  0.3633 -0.0232
52276SOL     OW61638   6.697   4.023   0.170 -0.1292  0.3497 -0.4328
52276SOL    HW161639   6.792   4.013   0.158  0.2218  0.5976  1.7638
52276SOL    HW261640   6.660   3.997   0.086  1.8325 -0.7995 -1.0196
52277SOL     OW61641   0.362   1.400   6.796 -0.4981 -0.3394 -0.5090
52277SOL    HW161642   0.285   1.369   6.748 -0.3665 -1.2918 -0.1229
52277SOL    HW261643   0.437   1.368   6.744 -0.3570 -1.1668  0.1754
52278SOL     OW61644   4.401   9.987   8.752  0.2616  0.0860 -0.7399
52278SOL    HW161645   4.415   9.937   8.832 -2.2461 -0.8339 -0.7843
52278SOL    HW261646   4.429  10.076   8.774  0.7544 -0.4073  0.7485
52279SOL     OW61647   5.877   2.141   1.198 -0.5180 -0.2642 -0.5043
52279SOL    HW161648   5.838   2.074   1.254  0.3528 -1.2444 -1.0442
52279SOL    HW261649   5.860   2.111   1.109 -0.1546  0.2620 -0.7568
52280SOL     OW61650   2.444  11.945   6.527  0.1370  0.1074 -0.6715
52280SOL    HW161651   2.366  11.898   6.555  1.6461 -0.8859  2.1959
52280SOL    HW261652   2.480  11.893   6.455 -0.4821 -0.7935 -0.3340
52281SOL     OW61653   3.879   3.917  10.415 -0.0145  0.1966 -0.5215
52281SOL    HW161654   3.879   4.013  10.422 -0.0756  0.1582  0.0303
52281SOL    HW261655   3.809   3.889  10.473 -0.9473 -0.1190 -1.7589
52282SOL     OW61656   2.273   1.658  11.132 -0.0667  0.1394 -0.0773
52282SOL    HW161657   2.260   1.589  11.066  1.6520  0.4083 -0.7323
52282SOL    HW261658   2.367   1.673  11.133 -0.2066  1.1167  1.4833
52283SOL     OW61659   9.115   4.396   0.859 -0.4050 -0.1398  0.0100
52283SOL    HW161660   9.139   4.327   0.921  1.1922  0.2423 -0.1364
52283SOL    HW261661   9.122   4.477   0.910  1.7825  0.2664 -0.8094
52284SOL     OW61662   2.576   2.378   1.067 -0.1245  0.1603  0.1443
52284SOL    HW161663   2.663   2.346   1.091  0.4275  0.5283 -1.2440
52284SOL    HW261664   2.517   2.306   1.090  0.5102 -0.0266  1.2685
52285SOL     OW61665   2.528   4.294   2.988 -0.0726  0.1061 -0.0588
52285SOL    HW161666   2.583   4.290   2.910  1.7542 -0.3811  1.1630
52285SOL    HW261667   2.591   4.307   3.060 -1.8640  3.4678  1.1097
52286SOL     OW61668   0.516   2.042  12.145 -0.0119 -0.2123 -0.5390
52286SOL    HW161669   0.609   2.040  12.167 -0.0834 -0.3858 -0.2508
52286SOL    HW261670   0.496   1.953  12.115 -0.4570 -0.6405  0.9567
52287SOL     OW61671   4.467   4.112   9.131 -0.3105 -0.4977  0.4713
52287SOL    HW161672   4.528   4.043   9.106  0.8008  0.5773  0.0884
52287SOL    HW261673   4.413   4.125   9.054 -0.6973 -1.1055  0.6335
52288SOL     OW61674   0.748   5.060   7.930 -0.1985 -0.1108 -0.0619
52288SOL    HW161675   0.775   4.969   7.941 -0.8045 -0.1342  1.3497
52288SOL    HW261676   0.791   5.107   8.001 -0.7842  0.5083 -0.1021
52289SOL     OW61677   0.699   1.212   9.663 -0.0557 -0.4816 -0.1545
52289SOL    HW161678   0.784   1.235   9.625 -0.8869 -0.0800 -1.8711
52289SOL    HW261679   0.665   1.144   9.605 -1.6251  0.5275 -0.4658
52290SOL     OW61680  12.332   2.700  10.580  0.4810  0.5481  0.3380
52290SOL    HW161681  12.301   2.680  10.668  0.0960 -1.1181 -0.1430
52290SOL    HW261682  12.376   2.620  10.551  1.4898  1.4113 -0.6150
52291SOL     OW61683   3.775   1.439   2.211 -0.2423  0.0661  0.5278
52291SOL    HW161684   3.705   1.459   2.149  1.6024  2.5946 -0.9486
52291SOL    HW261685   3.757   1.494   2.287 -0.7305 -0.5375  0.8526
52292SOL     OW61686   2.986   4.219   8.032 -0.6175 -0.1723 -0.4841
52292SOL    HW161687   2.957   4.310   8.032 -0.4616 -0.1199 -1.6057
52292SOL    HW261688   2.911   4.171   8.068 -1.7383  0.0907 -2.3445
52293SOL     OW61689  10.745   3.079   7.588  0.2136 -0.3113  0.1498
52293SOL    HW161690  10.721   2.995   7.628  1.1725 -1.4150 -1.4242
52293SOL    HW261691  10.838   3.089   7.609  0.3129 -0.0797 -0.3821
52294SOL     OW61692   8.266   5.839  11.227  0.4635 -0.1365 -0.6566
52294SOL    HW161693   8.221   5.893  11.162  1.6057 -0.6647 -1.9622
52294SOL    HW261694   8.285   5.757  11.180 -0.9059 -1.5717  1.1406
52295SOL     OW61695   2.818   6.577   7.883 -0.0145 -0.3031 -0.4754
52295SOL    HW161696   2.748   6.520   7.913 -1.6098  1.5586 -0.4719
52295SOL    HW261697   2.870   6.594   7.961 -0.4752 -0.4471 -0.1328
52296SOL     OW61698   2.862   6.852  11.525  0.7893  0.2538  0.0313
52296SOL    HW161699   2.812   6.846  11.607 -1.1389  0.5985 -1.0539
52296SOL    HW261700   2.888   6.943  11.520 -0.7990  0.7110 -0.6316
52297SOL     OW61701   6.834   0.016   1.972 -0.1586 -0.5012 -0.1664
52297SOL    HW161702   6.884   0.023   1.891  0.7319 -1.0577  0.3281
52297SOL    HW261703   6.883  -0.046   2.026 -1.3620 -1.0382  0.3434
52298SOL     OW61704   1.618   1.274   2.676 -0.4766 -0.6090 -0.1572
52298SOL    HW161705   1.551   1.340   2.657 -0.8734 -0.8708  0.3073
52298SOL    HW261706   1.635   1.233   2.591 -0.8150 -0.4572 -0.3029
52299SOL     OW61707   1.015   5.333  10.877 -0.0253 -0.4339  0.0164
52299SOL    HW161708   0.924   5.353  10.856 -0.1029  0.6651  1.2597
52299SOL    HW261709   1.036   5.257  10.823 -0.9811  0.6205 -1.9560
52300SOL     OW61710   7.915  11.084  12.124 -0.0899 -0.0976  0.0526
52300SOL    HW161711   7.921  11.030  12.046 -2.0445  0.9471 -0.8766
52300SOL    HW261712   7.830  11.128  12.118  1.6370  3.7073  0.3196
52301SOL     OW61713   6.226   2.394   1.329  0.0531  0.2226 -0.0917
52301SOL    HW161714   6.277   2.474   1.317 -0.6525  0.5122 -1.3858
52301SOL    HW261715   6.149   2.406   1.273  1.2322 -2.4654 -2.5904
52302SOL     OW61716   1.108   3.697   5.562  0.6013 -0.5379 -0.4576
52302SOL    HW161717   1.035   3.636   5.570  0.6504 -0.5559 -0.1202
52302SOL    HW261718   1.150   3.695   5.648 -2.3241  3.7532  1.4251
52303SOL     OW61719   6.847  11.733   6.070 -0.7646  0.1882 -0.4825
52303SOL    HW161720   6.928  11.688   6.096 -0.6790 -0.0286 -1.1046
52303SOL    HW261721   6.833  11.705   5.980 -1.3161  0.5500 -0.5084
52304SOL     OW61722   4.171   9.489   3.112  0.1797 -0.2472  0.5143
52304SOL    HW161723   4.132   9.544   3.179  0.4079  0.7630 -0.1569
52304SOL    HW261724   4.118   9.504   3.034  1.3430  0.5066 -0.1812
52305SOL     OW61725   1.316   3.956   2.663  0.2793  0.3996  0.2959
52305SOL    HW161726   1.355   3.868   2.665 -1.2684 -0.3164  0.2562
52305SOL    HW261727   1.334   3.992   2.750 -0.1283 -0.4405  0.7396
52306SOL     OW61728   9.954   3.333   6.066  0.5889  0.8503  0.2003
52306SOL    HW161729   9.910   3.379   5.994  1.5065  0.2201 -0.7933
52306SOL    HW261730   9.951   3.395   6.139 -1.9934  0.8024  0.2186
52307SOL     OW61731   2.805   0.758   8.552 -0.4200 -0.4095 -0.0892
52307SOL    HW161732   2.850   0.717   8.627 -1.5819 -0.7131  0.4664
52307SOL    HW261733   2.829   0.850   8.558  1.0057 -0.7265 -0.4595
52308SOL     OW61734  10.067   0.855   9.707  0.3576  0.4037 -0.1247
52308SOL    HW161735   9.978   0.885   9.728  0.3208 -0.2560  0.7299
52308SOL    HW261736  10.058   0.761   9.694  0.4824  0.6890 -2.7553
52309SOL     OW61737   6.589   9.937   7.617 -0.3318 -0.2503  0.4997
52309SOL    HW161738   6.670   9.962   7.571  0.2203 -0.1735  1.4816
52309SOL    HW261739   6.544   9.878   7.556 -1.1261  2.1510 -1.4389
52310SOL     OW61740   8.170   3.635   7.021 -0.3677  0.2876  0.4938
52310SOL    HW161741   8.163   3.661   6.929 -2.1372 -0.8356  0.2627
52310SOL    HW261742   8.179   3.718   7.068 -0.9112  0.9825 -0.5884
52311SOL     OW61743   1.718   8.472   4.323  0.2482  0.0835  0.0491
52311SOL    HW161744   1.629   8.494   4.350  0.6197  1.6476  0.1273
52311SOL    HW261745   1.712   8.454   4.229 -0.0505  0.8699 -0.0896
52312SOL     OW61746   4.856   6.306   8.430 -0.1859  0.3057  0.4905
52312SOL    HW161747   4.772   6.279   8.469  0.6525 -0.1396  2.0791
52312SOL    HW261748   4.874   6.238   8.364 -0.8931  0.1936  0.4056
52313SOL     OW61749   2.268   4.671   4.794 -0.5083  0.5100 -0.0783
52313SOL    HW161750   2.228   4.683   4.708  2.0090 -0.4804 -1.4858
52313SOL    HW261751   2.275   4.577   4.805 -0.7474  0.6232  1.2314
52314SOL     OW61752   1.403   8.845   9.350  0.5932 -0.2074 -0.3611
52314SOL    HW161753   1.436   8.914   9.293  0.5562 -0.0707 -0.2167
52314SOL    HW261754   1.442   8.864   9.436 -1.6767  1.3067  0.4138
52315SOL     OW61755   0.328   1.541   8.528 -0.0429 -0.1434  0.3730
52315SOL    HW161756   0.317   1.446   8.541  0.8367 -0.3217 -0.1254
52315SOL    HW261757   0.328   1.577   8.616  0.1388 -0.6747  0.5977
52316SOL     OW61758   8.926   6.554   2.724 -0.5000 -0.2927 -0.4290
52316SOL    HW161759   8.982   6.481   2.702 -1.4938 -1.0740 -0.4329
52316SOL    HW261760   8.861   6.557   2.653  0.5458  1.7096 -1.3867
52317SOL     OW61761   6.861   8.158   1.091  0.0983 -0.1390  0.7665
52317SOL    HW161762   6.888   8.070   1.119 -1.2904 -0.9873 -0.3817
52317SOL    HW261763   6.869   8.212   1.170  1.2294 -1.2356  1.4320
52318SOL     OW61764   1.247   3.810   1.335 -0.5702  0.1737  0.1534
52318SOL    HW161765   1.327   3.783   1.380 -1.0881  1.4348  1.9429
52318SOL    HW261766   1.272   3.891   1.291 -0.1717 -0.8560 -1.5941
52319SOL     OW61767   4.113   5.233  12.372  0.4438  0.1691  0.0178
52319SOL    HW161768   4.022   5.261  12.359  0.2544 -0.6707 -0.5461
52319SOL    HW261769   4.163   5.285  12.309  0.3084  0.3277  0.0376
52320SOL     OW61770   8.301   4.433   3.962 -0.2400 -0.3079  0.2403
52320SOL    HW161771   8.234   4.416   4.028 -0.5502  2.2660  0.6816
52320SOL    HW261772   8.254   4.475   3.891  0.5645 -0.5139 -0.4215
52321SOL     OW61773   1.008   5.249  11.653 -0.5116  0.1457 -0.0940
52321SOL    HW161774   0.985   5.324  11.598  1.5129  2.3464  1.8449
52321SOL    HW261775   1.087   5.212  11.613 -2.2220 -1.9560 -1.8089
52322SOL     OW61776   9.842   7.821   0.052 -0.6282  0.0651 -0.2895
52322SOL    HW161777   9.782   7.886   0.090 -0.9496  0.1124 -0.8714
52322SOL    HW261778   9.860   7.761   0.124 -0.5022  0.6756  0.1940
52323SOL     OW61779  10.934   2.040   7.493  0.3942 -0.0662  0.1636
52323SOL    HW161780  10.904   1.999   7.412  0.0895  0.6738 -0.1005
52323SOL    HW261781  10.948   2.132   7.471  2.2519 -0.2440  0.4449
52324SOL     OW61782   7.621   1.391   9.936 -0.3014  0.4215 -0.1695
52324SOL    HW161783   7.606   1.457   9.869 -0.6671 -0.7114 -1.2375
52324SOL    HW261784   7.690   1.335   9.899  0.9404  0.9153  1.2638
52325SOL     OW61785   9.210   2.432   2.160  0.7198  0.2060  0.5427
52325SOL    HW161786   9.245   2.521   2.156  0.6202  0.2150 -0.3673
52325SOL    HW261787   9.161   2.422   2.078  0.0736 -0.4165  0.9969
52326SOL     OW61788   0.345  12.018   3.484 -0.2608 -0.4038 -0.6938
52326SOL    HW161789   0.390  11.965   3.419 -1.5754 -1.0415 -1.1194
52326SOL    HW261790   0.385  11.992   3.568  2.4323  1.4359 -1.2491
52327SOL     OW61791   6.319   5.812   4.348 -0.5296  0.9028  0.5467
52327SOL    HW161792   6.250   5.794   4.412  0.3995 -1.0550  1.0719
52327SOL    HW261793   6.285   5.886   4.297 -2.8025  0.3159  1.0756
52328SOL     OW61794   7.346   8.912   4.872  0.1275  0.4142 -0.4136
52328SOL    HW161795   7.363   8.978   4.940  1.8747 -0.5655  0.1482
52328SOL    HW261796   7.332   8.831   4.921 -0.9390  0.1247 -1.1538
52329SOL     OW61797   4.164  12.625   2.981  0.2039  0.0615 -0.1360
52329SOL    HW161798   4.128  12.558   3.039  0.0011  1.8251  1.8633
52329SOL    HW261799   4.150  12.707   3.027  2.0580  1.3448 -1.7034
52330SOL     OW61800   6.526   3.854   3.969  0.2460  0.0726 -0.3379
52330SOL    HW161801   6.545   3.928   3.911  1.1474  0.7015  0.7219
52330SOL    HW261802   6.603   3.798   3.962  0.8281  0.6522  0.9650
52331SOL     OW61803  10.199   4.604   8.183 -0.7673  0.7615 -0.5353
52331SOL    HW161804  10.108   4.575   8.178 -0.4880 -0.4399  0.7159
52331SOL    HW261805  10.195   4.689   8.226 -1.2299  0.0273  0.9467
52332SOL     OW61806   5.928   8.418  12.254  0.7392 -0.1069 -0.0641
52332SOL    HW161807   6.016   8.444  12.282  1.3171 -2.6238  0.7049
52332SOL    HW261808   5.919   8.455  12.166  0.3999  4.7589  1.6757
52333SOL     OW61809   4.887  10.949   6.086 -0.0067  0.3342 -0.1201
52333SOL    HW161810   4.887  11.040   6.055  0.2876  0.0972 -0.8496
52333SOL    HW261811   4.979  10.922   6.079 -0.2560 -0.3561 -0.9767
52334SOL     OW61812   8.010   3.966  11.469 -0.8330 -0.1433  0.4492
52334SOL    HW161813   7.971   3.931  11.389  1.1916 -0.1085 -0.6239
52334SOL    HW261814   8.005   3.893  11.532 -0.3577 -0.9887 -0.4667
52335SOL     OW61815   4.133  11.295   2.312  0.6389 -0.1501 -0.3803
52335SOL    HW161816   4.196  11.232   2.346 -0.8972 -1.1275  0.8275
52335SOL    HW261817   4.081  11.320   2.389  0.2997  1.5463 -1.1002
52336SOL     OW61818   1.082   7.635   6.115 -0.0155  0.3283 -0.6136
52336SOL    HW161819   1.158   7.577   6.105 -0.6099 -0.7844  0.9591
52336SOL    HW261820   1.013   7.594   6.063 -0.6767 -0.8967  1.1436
52337SOL     OW61821   8.081   6.351   2.183  0.6283  0.0043  0.3103
52337SOL    HW161822   8.018   6.318   2.119 -1.4018  1.8577  1.2027
52337SOL    HW261823   8.167   6.335   2.143 -0.4173 -1.6400 -1.4564
52338SOL     OW61824   0.349   5.499   5.112  0.3329  0.0051  0.7767
52338SOL    HW161825   0.436   5.500   5.071 -0.3652  0.3710 -0.7693
52338SOL    HW261826   0.342   5.410   5.149  1.2031 -0.1585  0.5858
52339SOL     OW61827  10.867  10.079  10.268 -0.0032  0.0713 -0.0407
52339SOL    HW161828  10.929  10.152  10.262  2.0233 -1.4705  0.8750
52339SOL    HW261829  10.811  10.101  10.341  0.5459  0.7486  0.1903
52340SOL     OW61830   3.146   5.844   9.818  0.1865 -0.0678 -0.4368
52340SOL    HW161831   3.106   5.782   9.758  0.9898 -2.1404  1.0546
52340SOL    HW261832   3.075   5.871   9.876 -0.0422 -0.0018 -0.7428
52341SOL     OW61833   2.834  12.000   1.387 -0.5510  0.2897 -0.1267
52341SOL    HW161834   2.808  11.943   1.460  0.9350  0.3294  0.4723
52341SOL    HW261835   2.877  11.942   1.325  1.0053  0.7306  0.5030
52342SOL     OW61836   3.146   9.539   5.659  0.1223 -0.3112  0.4164
52342SOL    HW161837   3.061   9.582   5.667 -0.1709 -0.9025  0.5278
52342SOL    HW261838   3.146   9.472   5.728  0.2952 -0.9463 -0.1933
52343SOL     OW61839   9.879  11.459   6.081  0.1733  0.4240 -0.4851
52343SOL    HW161840   9.941  11.525   6.050  0.7967 -0.2025 -0.6096
52343SOL    HW261841   9.793  11.495   6.060  0.5473  0.2208 -2.6088
52344SOL     OW61842   3.300  10.786   4.719  0.6291  0.3315  0.1024
52344SOL    HW161843   3.348  10.807   4.799 -0.2196 -0.8791  0.9670
52344SOL    HW261844   3.233  10.854   4.713 -1.3481 -1.2353  2.2400
52345SOL     OW61845   2.038  11.226   7.199 -0.2553  0.5184  0.1720
52345SOL    HW161846   2.068  11.227   7.108  0.0440  1.4838  0.2660
52345SOL    HW261847   1.956  11.274   7.198 -1.8742 -2.0593 -0.0707
52346SOL     OW61848  10.958   9.767   1.274  0.1199 -0.1585  0.0194
52346SOL    HW161849  10.938   9.800   1.362  1.8685  1.8625 -0.2603
52346SOL    HW261850  10.890   9.803   1.218  1.1001  1.7275 -0.0139
52347SOL     OW61851   8.927  12.328   7.458  0.2190 -0.3076  0.4147
52347SOL    HW161852   9.012  12.310   7.418 -0.3218 -0.6644 -0.6303
52347SOL    HW261853   8.910  12.252   7.514  1.3591  0.5839  2.0317
52348SOL     OW61854   6.044   4.525   4.183 -0.1041  0.1746 -0.2658
52348SOL    HW161855   5.957   4.561   4.164 -0.4112 -0.0021  0.7440
52348SOL    HW261856   6.028   4.431   4.195  0.0900  0.2529  0.6827
52349SOL     OW61857   9.349   5.857  11.908  0.0430 -0.2662  0.2520
52349SOL    HW161858   9.292   5.828  11.979 -1.1544 -0.4652 -0.7555
52349SOL    HW261859   9.343   5.953  11.911  0.2991 -0.2593  0.6464
52350SOL     OW61860   8.616   0.038   4.196  0.0243  0.3271 -0.6212
52350SOL    HW161861   8.649   0.089   4.270 -0.9925  0.2989 -0.1279
52350SOL    HW261862   8.582   0.104   4.135  2.6086  0.4806 -1.9999
52351SOL     OW61863   5.621   3.033   3.978 -0.3983  0.4827  0.8263
52351SOL    HW161864   5.603   3.124   4.004 -1.5040  0.3383  0.6543
52351SOL    HW261865   5.716   3.028   3.971 -0.3587  1.8953 -0.0930
52352SOL     OW61866   6.525   5.012   4.099 -0.1846  0.2992 -0.2284
52352SOL    HW161867   6.565   5.045   4.019  0.0164  1.2436  0.2490
52352SOL    HW261868   6.502   4.921   4.078 -2.8245  1.3223 -2.3761
52353SOL     OW61869   1.554   6.951   8.197 -0.0682 -0.6174  0.0362
52353SOL    HW161870   1.589   6.929   8.110 -1.3075  1.4039 -1.0499
52353SOL    HW261871   1.465   6.917   8.196  0.5805 -2.5964  1.4640
52354SOL     OW61872   5.156  10.463   0.309 -0.1120  0.1732  0.2763
52354SOL    HW161873   5.148  10.470   0.404  1.2055 -0.2959  0.4505
52354SOL    HW261874   5.164  10.369   0.292  1.9681  0.3448 -0.0284
52355SOL     OW61875   0.102  11.821   2.269  0.2142 -0.1048  0.0588
52355SOL    HW161876   0.157  11.819   2.191  1.4742  0.9504  0.8641
52355SOL    HW261877   0.154  11.870   2.334 -1.1415 -0.1961  1.2807
52356SOL     OW61878   2.524   8.384  10.814 -0.1683 -0.6329  0.1286
52356SOL    HW161879   2.565   8.301  10.789  0.3098 -0.6766  1.0217
52356SOL    HW261880   2.597   8.438  10.844 -0.2747  0.6253 -1.7145
52357SOL     OW61881   6.622   6.659   2.951  0.9822 -0.5684  0.3050
52357SOL    HW161882   6.571   6.721   3.004  1.4021 -0.8262  1.0281
52357SOL    HW261883   6.557   6.601   2.913  0.6087  0.1056 -0.1102
52358SOL     OW61884   3.695  10.611   6.777  0.3057 -0.5455  0.2479
52358SOL    HW161885   3.728  10.685   6.726 -1.0443 -0.6473 -0.8501
52358SOL    HW261886   3.603  10.605   6.753  0.0812 -1.7924  1.3059
52359SOL     OW61887   7.808   0.184   5.115  0.1258  0.5912  0.2007
52359SOL    HW161888   7.829   0.091   5.123  1.0389  0.8742  1.3129
52359SOL    HW261889   7.726   0.194   5.162  0.5745  0.5256  1.0109
52360SOL     OW61890   1.359   2.247  10.891 -0.2349 -0.0197  0.4362
52360SOL    HW161891   1.413   2.305  10.944 -0.2595  0.4318 -0.0242
52360SOL    HW261892   1.419   2.211  10.826 -0.2445 -0.4239  0.6511
52361SOL     OW61893   1.732  12.593   9.738 -0.0983  0.1428  0.0019
52361SOL    HW161894   1.774  12.679   9.731 -0.8757  0.6376  1.0451
52361SOL    HW261895   1.694  12.593   9.826  0.1228 -1.3842  0.1236
52362SOL     OW61896   2.233   8.077   5.707 -0.3209  0.4418 -0.5030
52362SOL    HW161897   2.194   8.125   5.781  1.3398  1.5484 -0.2666
52362SOL    HW261898   2.173   8.091   5.634 -1.5414  0.0858  0.4107
52363SOL     OW61899   7.653  10.035  10.097 -0.6093 -0.0512 -0.0946
52363SOL    HW161900   7.612  10.009  10.015 -0.7351  0.9952 -0.3771
52363SOL    HW261901   7.741  10.066  10.072  0.4688 -2.3947  0.5161
52364SOL     OW61902   0.335   1.630   1.078 -1.0806  0.2155  0.2790
52364SOL    HW161903   0.318   1.569   1.149 -1.8467  1.9993  1.7280
52364SOL    HW261904   0.359   1.575   1.003 -2.9553 -1.8843  1.1207
52365SOL     OW61905   3.570  11.615   3.295  0.4474  0.3145 -0.5279
52365SOL    HW161906   3.481  11.581   3.303 -0.0888  1.5811 -0.8494
52365SOL    HW261907   3.613  11.589   3.376 -0.2866 -0.0971 -0.2581
52366SOL     OW61908   6.621   0.821   9.485  0.8412 -0.0602 -0.3455
52366SOL    HW161909   6.578   0.836   9.401  1.2473 -0.3502 -0.6059
52366SOL    HW261910   6.561   0.859   9.550  1.7526  2.6614 -0.9487
52367SOL     OW61911   7.856   7.798   8.902  0.3681  0.3482  0.1372
52367SOL    HW161912   7.763   7.807   8.881  0.1627 -1.0238  0.3592
52367SOL    HW261913   7.868   7.705   8.922  1.6549  0.6163  0.7817
52368SOL     OW61914   1.390  11.196   6.889 -0.1371 -0.0709  0.5646
52368SOL    HW161915   1.399  11.162   6.978  0.5599  1.4770  1.1256
52368SOL    HW261916   1.374  11.290   6.901 -0.5833  0.0785 -0.9404
52369SOL     OW61917  11.479  11.672   9.456 -0.1409 -0.0801  0.0368
52369SOL    HW161918  11.413  11.689   9.524 -1.0604 -1.7277 -0.3981
52369SOL    HW261919  11.558  11.650   9.505 -0.0471  1.2708  0.5592
52370SOL     OW61920   0.681   8.828   4.014 -0.0814  0.5695 -0.8407
52370SOL    HW161921   0.628   8.774   3.955  0.2449  0.3711 -0.9524
52370SOL    HW261922   0.738   8.766   4.058 -2.0180  0.3439  1.5566
52371SOL     OW61923   4.823   7.907  10.468  0.0602 -0.2241  0.3491
52371SOL    HW161924   4.732   7.898  10.496 -0.0288  0.7259  0.4246
52371SOL    HW261925   4.822   7.982  10.408  0.8380 -0.0274  0.5703
52372SOL     OW61926   7.273   6.364   3.785 -0.1939 -0.4213  0.2188
52372SOL    HW161927   7.239   6.321   3.706  2.0529  0.6251 -1.4190
52372SOL    HW261928   7.365   6.338   3.789  1.3642  4.0075 -0.9052
52373SOL     OW61929   2.695  10.238   3.743 -0.0516 -0.2330 -0.2588
52373SOL    HW161930   2.601  10.247   3.759  0.1351 -1.7398  2.1873
52373SOL    HW261931   2.737  10.277   3.820  1.2110 -1.7169 -0.1360
52374SOL     OW61932   1.281  12.499  11.111  0.1903  0.4250  0.2785
52374SOL    HW161933   1.369  12.488  11.147  0.0524  2.4953  1.3902
52374SOL    HW261934   1.286  12.579  11.059 -1.1202  0.7604  0.6374
52375SOL     OW61935   0.749   4.003  10.551  0.1568 -0.0148  0.3947
52375SOL    HW161936   0.799   4.083  10.565  0.4444  0.2590 -1.8213
52375SOL    HW261937   0.662   4.034  10.524  0.1372 -0.4439 -0.0411
52376SOL     OW61938   1.937  10.546   5.388  0.4951 -0.3984 -0.7818
52376SOL    HW161939   1.913  10.482   5.321 -0.2182 -0.2932 -0.6395
52376SOL    HW261940   1.999  10.500   5.444 -0.3963 -1.1488 -0.3826
52377SOL     OW61941  10.691   1.923   5.354 -0.3639 -0.0719 -0.2575
52377SOL    HW161942  10.762   1.880   5.306  0.3194  1.1413 -0.3953
52377SOL    HW261943  10.730   2.004   5.387 -1.8495  0.9279 -0.8421
52378SOL     OW61944   9.384   2.011   3.372 -0.7655  0.0719  0.1099
52378SOL    HW161945   9.302   1.996   3.324 -0.5972 -1.4203  0.2316
52378SOL    HW261946   9.449   1.959   3.325 -0.0639  0.5664  0.5164
52379SOL     OW61947   5.642   7.353   0.405 -0.0139 -0.1776 -0.3159
52379SOL    HW161948   5.706   7.413   0.445  1.1955 -2.3318  1.2343
52379SOL    HW261949   5.669   7.266   0.436 -3.7352 -1.2362  0.4582
52380SOL     OW61950   4.928   3.958  10.786 -0.6675 -0.2380 -0.0150
52380SOL    HW161951   4.985   4.028  10.818  0.5650 -2.6020  3.5615
52380SOL    HW261952   4.840   3.984  10.812 -0.2346  0.0433  1.1991
52381SOL     OW61953   7.226   1.106   5.051  0.1754 -0.0208 -1.0042
52381SOL    HW161954   7.154   1.141   4.998  0.2071  2.7247  0.5857
52381SOL    HW261955   7.303   1.154   5.022  0.2947  1.1340  1.0584
52382SOL     OW61956  11.023   9.415   5.577 -0.3509  0.1768 -0.3402
52382SOL    HW161957  10.950   9.427   5.517 -0.0566  2.0153 -0.3826
52382SOL    HW261958  10.990   9.355   5.644 -2.1579  1.5000  0.0279
52383SOL     OW61959   9.460   2.204   8.902  0.3087 -0.8057 -0.6085
52383SOL    HW161960   9.412   2.229   8.980  1.4717 -1.4533  0.3393
52383SOL    HW261961   9.480   2.287   8.858 -0.5658 -0.4577 -0.3744
52384SOL     OW61962   7.375   6.676  12.339  0.7091 -0.0981  0.1343
52384SOL    HW161963   7.305   6.740  12.323  0.4087 -0.2263  0.8646
52384SOL    HW261964   7.450   6.730  12.364  0.1885 -0.0317  1.7095
52385SOL     OW61965  11.444  10.378  11.840  0.6418  0.1885 -0.0950
52385SOL    HW161966  11.419  10.453  11.786 -0.4221  0.5696  0.8806
52385SOL    HW261967  11.490  10.417  11.915 -0.4880 -0.0425  0.7479
52386SOL     OW61968  10.059  11.569   3.168  0.1882 -0.1380  0.3540
52386SOL    HW161969  10.003  11.521   3.229 -0.0476  0.8524  0.9522
52386SOL    HW261970  10.029  11.543   3.081 -1.1161  0.2502  0.6694
52387SOL     OW61971   4.438   9.078  11.525 -0.5589  0.1680  0.6997
52387SOL    HW161972   4.481   9.150  11.571  0.3833 -0.3961  0.7291
52387SOL    HW261973   4.492   9.001  11.543  0.3365  0.0596 -1.9970
52388SOL     OW61974  10.560   2.066   7.811 -0.0261  0.5683 -0.1472
52388SOL    HW161975  10.644   2.030   7.783 -0.4142  0.8126 -1.6960
52388SOL    HW261976  10.503   1.989   7.821  0.7759  0.1965  2.6429
52389SOL     OW61977   2.053  11.678   3.373  0.5990  0.2911  0.5890
52389SOL    HW161978   2.122  11.743   3.383  0.4627  0.4735  0.3520
52389SOL    HW261979   2.031  11.680   3.280 -0.2293  0.7557  0.7804
52390SOL     OW61980  10.338  10.254   7.339  0.5458  0.0397  0.0467
52390SOL    HW161981  10.292  10.195   7.280 -0.6547  1.2716 -0.2802
52390SOL    HW261982  10.426  10.261   7.300  0.3426 -0.5792 -0.5643
52391SOL     OW61983   8.364   8.079   7.694  0.2853  0.1226  0.1038
52391SOL    HW161984   8.328   8.019   7.630 -0.8787  0.0132  0.8231
52391SOL    HW261985   8.457   8.088   7.671  0.0540 -0.5005 -1.1050
52392SOL     OW61986   1.806   9.937   2.962 -0.0837 -0.2276 -0.0966
52392SOL    HW161987   1.765   9.962   3.045  2.1368  0.4603  0.8711
52392SOL    HW261988   1.797   9.842   2.959 -1.6273 -0.1092  0.1041
52393SOL     OW61989   8.653   0.327   5.658 -1.2619  0.0086 -0.1930
52393SOL    HW161990   8.633   0.248   5.608 -0.6913 -0.6779  0.6380
52393SOL    HW261991   8.747   0.338   5.648 -1.0841 -0.3376  1.0016
52394SOL     OW61992   1.739   5.775   9.857  0.1951 -0.5381  0.0478
52394SOL    HW161993   1.720   5.682   9.842  0.4618 -0.2355 -2.6131
52394SOL    HW261994   1.832   5.784   9.837 -0.0030  0.4423 -0.4695
52395SOL     OW61995   4.907   0.486   6.453 -0.1157 -0.1382  0.3463
52395SOL    HW161996   4.954   0.409   6.488 -1.7613 -0.9585  0.8411
52395SOL    HW261997   4.975   0.537   6.410  1.0405 -1.9306 -0.1003
52396SOL     OW61998   0.296   7.301   8.525 -0.4006  0.3381  0.5007
52396SOL    HW161999   0.220   7.359   8.531  0.9526  2.1862  0.5519
52396SOL    HW262000   0.369   7.359   8.506  0.9462 -1.4481 -0.0560
52397SOL     OW62001   4.130   2.278   1.706 -0.9886 -0.0757  0.0300
52397SOL    HW162002   4.104   2.370   1.702 -2.2110 -0.3841  0.5907
52397SOL    HW262003   4.122   2.255   1.798 -0.5161 -0.7058 -0.0783
52398SOL     OW62004   9.825   1.390   5.024  0.7311  0.2631 -0.0201
52398SOL    HW162005   9.902   1.441   4.999  0.2260  0.4646 -1.2159
52398SOL    HW262006   9.809   1.332   4.950 -1.1262  1.2350 -0.4290
52399SOL     OW62007   3.273   3.017   0.639 -0.2143 -0.2479  0.5114
52399SOL    HW162008   3.244   3.107   0.654 -1.7246 -0.9285  1.9977
52399SOL    HW262009   3.208   2.980   0.579  0.0647 -0.5083  0.3657
52400SOL     OW62010   0.264   4.625   0.433 -0.0450 -0.1369 -0.6235
52400SOL    HW162011   0.328   4.555   0.446  0.8394  0.8346  0.4584
52400SOL    HW262012   0.194   4.605   0.494  1.1938  1.0050  1.2957
52401SOL     OW62013   9.950  10.089   1.409  0.6545  0.0460 -0.1140
52401SOL    HW162014   9.964  10.075   1.503  0.9166  1.9326  0.1663
52401SOL    HW262015   9.947  10.001   1.372 -1.0699 -0.8195  1.8678
52402SOL     OW62016  10.637   3.954  11.985 -0.1185  0.4041  0.6777
52402SOL    HW162017  10.700   3.932  12.054 -0.7321  0.6580  1.3298
52402SOL    HW262018  10.586   3.874  11.973  1.0419 -0.1901 -0.6729
52403SOL     OW62019   8.442   4.515  11.409 -0.1253 -0.3141  0.0709
52403SOL    HW162020   8.353   4.478  11.413  0.4765 -1.9341 -0.6992
52403SOL    HW262021   8.495   4.456  11.462  0.5365  0.5679  0.4185
52404SOL     OW62022   7.601   1.072  10.172 -0.8387  0.8088  0.0759
52404SOL    HW162023   7.679   1.064  10.117 -0.8430 -0.9006  0.2611
52404SOL    HW262024   7.576   1.164  10.166  1.5511  1.5346  0.5084
52405SOL     OW62025  10.293   0.037   7.970 -0.0909 -0.1087  0.5768
52405SOL    HW162026  10.198   0.048   7.970 -0.0962 -0.1446  0.6745
52405SOL    HW262027  10.319   0.039   7.878 -0.1892 -0.1221  0.5493
52406SOL     OW62028   0.832   4.105   0.042  0.1945 -0.6131  0.3196
52406SOL    HW162029   0.826   4.117  -0.053 -0.3039 -1.9856  0.1563
52406SOL    HW262030   0.910   4.051   0.055  1.3464  1.0998  0.8739
52407SOL     OW62031   5.605  11.032   2.781 -0.1395  0.2323  0.0231
52407SOL    HW162032   5.529  11.070   2.825  0.1185  0.7276  0.0441
52407SOL    HW262033   5.625  11.092   2.710  0.1883  0.0656 -0.0293
52408SOL     OW62034   1.464   2.687   7.922 -0.3727 -0.1943 -0.2401
52408SOL    HW162035   1.413   2.719   7.847  0.4201  1.8941  0.0344
52408SOL    HW262036   1.555   2.691   7.892 -0.1548 -0.7743  0.3408
52409SOL     OW62037   7.681   2.086   9.656 -0.3888  0.0613  0.0515
52409SOL    HW162038   7.647   2.127   9.576 -0.2268 -0.3002 -0.2041
52409SOL    HW262039   7.720   2.004   9.626  0.7277  0.4709  0.3409
52410SOL     OW62040   6.670   0.653   6.922  0.4967 -0.0150  0.0204
52410SOL    HW162041   6.655   0.683   6.832 -0.2413  0.7992  0.4007
52410SOL    HW262042   6.583   0.635   6.956  0.7702 -0.3010  0.5859
52411SOL     OW62043  12.128   2.306   7.637  0.2522  0.3707 -0.0192
52411SOL    HW162044  12.153   2.372   7.572 -0.6475  0.4146 -0.3294
52411SOL    HW262045  12.110   2.356   7.717  1.7049  0.2859  0.3938
52412SOL     OW62046   9.959   7.436  10.488  0.2250  0.2062 -0.3776
52412SOL    HW162047  10.028   7.385  10.530 -0.8945  0.6880  2.2273
52412SOL    HW262048   9.996   7.460  10.403  2.8161 -0.5060  0.4467
52413SOL     OW62049   8.011  12.302   3.988 -0.4808  0.3618  0.3852
52413SOL    HW162050   7.995  12.361   4.062 -0.2030  0.7528  0.1360
52413SOL    HW262051   7.923  12.278   3.958 -0.6150  1.3865 -0.0917
52414SOL     OW62052   6.195   4.609   1.575  0.1130  0.1493 -0.4310
52414SOL    HW162053   6.214   4.597   1.668  1.6407  0.8792 -0.6003
52414SOL    HW262054   6.227   4.697   1.556  0.8530 -0.3985 -1.8765
52415SOL     OW62055   8.931   7.692  12.472  0.4840 -0.3033  0.0612
52415SOL    HW162056   8.867   7.763  12.469  0.9567  0.2432  1.6364
52415SOL    HW262057   8.879   7.612  12.466 -0.0341  0.1201 -2.0940
52416SOL     OW62058   7.877   9.368  11.325  0.5841 -0.0868 -0.1674
52416SOL    HW162059   7.932   9.291  11.339 -0.9619 -1.1357  0.3211
52416SOL    HW262060   7.882   9.384  11.230  1.9811  0.0605 -0.0917
52417SOL     OW62061   1.921   0.833   1.926 -0.2161 -0.0999  0.1541
52417SOL    HW162062   1.868   0.903   1.965 -0.4016  0.3404 -0.8739
52417SOL    HW262063   1.960   0.872   1.848  0.5091 -0.8435  0.1240
52418SOL     OW62064   6.162  12.126   6.791  0.3466 -0.0364 -0.5084
52418SOL    HW162065   6.067  12.115   6.797  0.3720  0.0591  0.0943
52418SOL    HW262066   6.192  12.122   6.881  0.6476  2.2438 -0.4513
52419SOL     OW62067   8.766   4.480   4.662  0.4445 -0.1699  0.3289
52419SOL    HW162068   8.755   4.543   4.592  1.3500 -1.8896 -1.4453
52419SOL    HW262069   8.857   4.451   4.655 -0.3689 -2.9250 -0.1093
52420SOL     OW62070   8.620   3.916   6.850  0.2315 -0.3249  0.2924
52420SOL    HW162071   8.557   3.987   6.859  0.7499  0.1087  0.5098
52420SOL    HW262072   8.677   3.923   6.927  0.8336 -0.4273 -0.1348
52421SOL     OW62073   4.728   9.659  12.269  0.6384  0.0216  0.4663
52421SOL    HW162074   4.815   9.621  12.270  0.3406 -0.6667  1.1261
52421SOL    HW262075   4.716   9.696  12.356  0.0899 -0.3348  0.5534
52422SOL     OW62076   3.826   2.782  12.211 -0.1579  0.3977 -0.2287
52422SOL    HW162077   3.912   2.764  12.250 -1.2620 -1.1731  1.6360
52422SOL    HW262078   3.800   2.866  12.249  0.1941  0.4840 -0.1736
52423SOL     OW62079   0.680   2.973   7.995  0.2330  0.2134  0.2179
52423SOL    HW162080   0.688   2.910   7.924 -1.3569  0.4363 -0.1905
52423SOL    HW262081   0.747   2.946   8.058  0.3298 -1.2022 -0.4479
52424SOL     OW62082   8.393   2.135   7.105 -0.3884  0.2182 -0.3716
52424SOL    HW162083   8.474   2.150   7.056 -0.0859 -0.1440  0.0046
52424SOL    HW262084   8.387   2.040   7.113 -0.8392  0.2439 -0.3738
52425SOL     OW62085  11.192   9.754   9.677  0.1878 -0.1577  0.2060
52425SOL    HW162086  11.181   9.705   9.596  1.3410  0.0667 -0.1014
52425SOL    HW262087  11.272   9.719   9.716  1.1165  1.5593 -0.0898
52426SOL     OW62088   0.104   2.712   6.695  0.2969 -0.1598  0.4498
52426SOL    HW162089   0.164   2.777   6.733  0.3726 -0.5198  0.9429
52426SOL    HW262090   0.017   2.751   6.705  0.3118 -0.2775  1.0357
52427SOL     OW62091   4.237   4.841  10.544  0.6820  0.4650 -0.3335
52427SOL    HW162092   4.306   4.777  10.558  0.5789  0.3007 -0.5657
52427SOL    HW262093   4.231   4.889  10.627 -0.7160 -1.2608  0.6365
52428SOL     OW62094   9.274   1.599   6.492 -0.0631 -0.3607 -0.1909
52428SOL    HW162095   9.367   1.584   6.503 -0.0344 -0.4775 -0.5825
52428SOL    HW262096   9.231   1.535   6.549  0.0257 -2.6017 -2.4615
52429SOL     OW62097   6.437   3.866   4.580 -0.2795  0.0875  0.0507
52429SOL    HW162098   6.416   3.958   4.567 -1.9788 -0.2149  0.4807
52429SOL    HW262099   6.481   3.863   4.665 -0.0255  0.5082 -0.0604
52430SOL     OW62100   4.242   7.623   7.867 -0.1612 -0.4948  0.0301
52430SOL    HW162101   4.322   7.637   7.918 -0.4900  1.7774  0.0390
52430SOL    HW262102   4.269   7.635   7.776 -0.4147  0.0192  0.0156
52431SOL     OW62103   7.467   9.509   3.861  0.1812  0.2982  0.0917
52431SOL    HW162104   7.439   9.476   3.776 -1.4116  0.4734  0.5209
52431SOL    HW262105   7.556   9.473   3.872 -0.1884 -1.0262 -0.9347
52432SOL     OW62106   9.642  10.464  11.077 -0.1174 -0.0258 -0.1344
52432SOL    HW162107   9.693  10.536  11.039 -1.7486  0.7829 -0.9023
52432SOL    HW262108   9.563  10.507  11.110 -1.3216 -1.5152 -0.9668
52433SOL     OW62109   4.784   7.556   0.213 -0.0131 -0.3262 -0.3651
52433SOL    HW162110   4.839   7.629   0.242  0.5680 -0.3192 -1.4228
52433SOL    HW262111   4.767   7.506   0.293 -0.0022  0.6793  0.2921
52434SOL     OW62112   7.696  11.906   0.448 -0.1092 -0.2338 -0.5179
52434SOL    HW162113   7.747  11.825   0.441 -1.1035 -0.8557 -0.8319
52434SOL    HW262114   7.615  11.879   0.492  0.4890  1.0591  1.5041
52435SOL     OW62115   1.291   5.496  11.855  0.1583  0.6065 -0.2435
52435SOL    HW162116   1.315   5.509  11.947  0.5912  0.3161 -0.3134
52435SOL    HW262117   1.230   5.568  11.836  2.1780  2.3709 -0.5103
52436SOL     OW62118   4.274   2.191   1.493 -0.6873  0.1755 -0.0532
52436SOL    HW162119   4.219   2.230   1.561 -1.2154 -0.4853 -0.0891
52436SOL    HW262120   4.334   2.261   1.468 -1.2568  0.7927  0.2627
52437SOL     OW62121  10.846   9.019  11.673  0.4733  0.0324 -0.6846
52437SOL    HW162122  10.811   8.930  11.668  0.9073 -0.1573 -0.4458
52437SOL    HW262123  10.772   9.076  11.651  0.3120 -0.4059 -1.2891
52438SOL     OW62124  12.458  12.415   3.663  0.4883 -0.7200 -0.1866
52438SOL    HW162125  12.552  12.409   3.682  0.4661 -0.3956  0.0189
52438SOL    HW262126  12.433  12.325   3.639  1.3736 -0.3967 -2.6871
52439SOL     OW62127   5.069   8.572   5.787 -0.3799 -0.8533 -0.1052
52439SOL    HW162128   5.055   8.496   5.730 -0.2025 -0.5990 -0.4924
52439SOL    HW262129   5.012   8.556   5.862  0.2709 -1.7769  0.2091
52440SOL     OW62130   4.778  11.368  11.859  0.7916 -0.1638 -0.0046
52440SOL    HW162131   4.709  11.409  11.912  1.3517  0.2684  0.3987
52440SOL    HW262132   4.736  11.290  11.822 -0.5606  1.1998 -1.4959
52441SOL     OW62133   5.512   1.622   5.220  0.0248  0.1127  0.1727
52441SOL    HW162134   5.560   1.595   5.142  0.3160  2.0384 -0.3542
52441SOL    HW262135   5.563   1.694   5.256 -0.8376  0.1492  1.3767
52442SOL     OW62136  10.187   9.811   8.280 -0.5359 -0.8363 -0.1786
52442SOL    HW162137  10.256   9.874   8.260  0.7622 -2.0886  0.1344
52442SOL    HW262138  10.119   9.862   8.324  1.5339 -0.0309  2.3163
52443SOL     OW62139   7.384   7.466   5.926  0.1474 -0.0715 -0.0729
52443SOL    HW162140   7.368   7.499   6.015  0.2451  0.5090 -0.2665
52443SOL    HW262141   7.301   7.476   5.881  0.4973  1.0608 -0.4885
52444SOL     OW62142   2.126   1.738   3.091  0.3279  0.0935 -0.3321
52444SOL    HW162143   2.147   1.770   3.003  1.3716  0.4727  0.0397
52444SOL    HW262144   2.149   1.646   3.089 -1.7637 -0.4820 -1.1076
52445SOL     OW62145   4.986   4.121   8.542 -0.0743 -0.0576  0.0129
52445SOL    HW162146   5.042   4.063   8.489  0.3609 -0.1691  0.5874
52445SOL    HW262147   5.041   4.145   8.616 -0.9150 -0.4686  0.7835
52446SOL     OW62148   9.271   4.679  12.263 -0.5120 -0.1547  0.1372
52446SOL    HW162149   9.339   4.743  12.241 -0.3325 -0.1424  0.6994
52446SOL    HW262150   9.319   4.607  12.303 -0.7585 -0.4648 -0.1210
52447SOL     OW62151   7.374   5.687   9.415  0.2936  0.1565 -0.3601
52447SOL    HW162152   7.361   5.712   9.323 -1.2156 -0.3422 -0.3143
52447SOL    HW262153   7.343   5.596   9.419 -0.5754  0.4875  0.8330
52448SOL     OW62154   5.818   7.328  11.447  0.0535  0.1909  0.1384
52448SOL    HW162155   5.810   7.423  11.462 -0.8070 -0.1728  2.4257
52448SOL    HW262156   5.802   7.318  11.354  0.2743  2.3215 -0.1921
52449SOL     OW62157   8.739   1.005   0.098 -0.6911 -0.5923  0.4320
52449SOL    HW162158   8.704   0.986   0.185 -3.8503  1.4583 -0.2066
52449SOL    HW262159   8.760   1.098   0.100  0.3764 -0.7898 -0.6623
52450SOL     OW62160   6.267   9.661   4.224 -0.7790  0.1879 -0.0815
52450SOL    HW162161   6.200   9.729   4.220 -0.3407  0.5677 -1.5096
52450SOL    HW262162   6.281   9.635   4.133  1.4970  0.6021  0.0930
52451SOL     OW62163   3.035   6.420   4.873 -0.1067 -0.2061 -0.0108
52451SOL    HW162164   2.945   6.447   4.854  0.3457  0.6939 -0.9632
52451SOL    HW262165   3.070   6.390   4.790  0.7146  0.1831  0.1800
52452SOL     OW62166  10.517   8.804  12.565 -0.1453  0.3112  0.5825
52452SOL    HW162167  10.496   8.873  12.628  1.3633  1.3745  0.0015
52452SOL    HW262168  10.520   8.850  12.481 -1.4416 -0.9501 -0.2020
52453SOL     OW62169   5.099   2.394   7.065  0.2914  0.1589 -0.1303
52453SOL    HW162170   5.151   2.360   6.992 -1.3475 -0.5587 -1.0249
52453SOL    HW262171   5.080   2.318   7.119 -0.2848  0.2999 -0.1241
52454SOL     OW62172   2.749   2.537   7.743  0.2171  0.3172  0.2856
52454SOL    HW162173   2.816   2.495   7.796 -0.4728 -1.9414 -0.5436
52454SOL    HW262174   2.674   2.546   7.802  0.4075  0.5400  0.4970
52455SOL     OW62175   9.630   0.090   2.079 -0.1602 -0.0847 -0.1834
52455SOL    HW162176   9.637   0.052   1.991  0.5405 -1.6284  0.4933
52455SOL    HW262177   9.721   0.108   2.104 -0.1674 -1.4789  0.9482
52456SOL     OW62178   8.849   2.838   3.793 -0.2333  0.4695 -0.8636
52456SOL    HW162179   8.771   2.788   3.818 -1.3204  1.1433 -2.6968
52456SOL    HW262180   8.921   2.797   3.841 -1.4601 -1.2116 -0.3787
52457SOL     OW62181   3.048   5.298   6.890  0.0506  0.1282  0.0848
52457SOL    HW162182   3.094   5.317   6.973 -2.7038  1.6232  1.4078
52457SOL    HW262183   2.970   5.250   6.917  0.2602 -1.5069 -1.9803
52458SOL     OW62184   3.215   8.617   9.860 -0.2065 -0.3420  0.2665
52458SOL    HW162185   3.302   8.648   9.833 -0.1358 -0.2126  0.6439
52458SOL    HW262186   3.227   8.584   9.948 -0.9319  1.5344  1.1273
52459SOL     OW62187   5.535   0.237  12.572 -0.4364 -0.2935  0.4179
52459SOL    HW162188   5.549   0.157  12.521  0.5953  0.3853 -0.4142
52459SOL    HW262189   5.599   0.232  12.643  2.9079  1.7514 -2.1111
52460SOL     OW62190   2.744   1.651   7.844  0.0056 -0.0126 -0.3510
52460SOL    HW162191   2.683   1.606   7.785 -0.3849 -1.1376  0.8791
52460SOL    HW262192   2.688   1.704   7.900  0.1562 -0.8242  0.5892
52461SOL     OW62193   2.955  11.928   2.194  0.6827 -0.4024  0.0443
52461SOL    HW162194   2.929  11.858   2.135  0.6404 -0.3122 -0.0461
52461SOL    HW262195   2.975  12.002   2.136 -0.9723  0.2217  0.1919
52462SOL     OW62196  11.027   2.402   3.474  0.4325 -0.3999  0.4095
52462SOL    HW162197  10.985   2.470   3.526  0.3507 -0.5059  0.4832
52462SOL    HW262198  11.064   2.341   3.538  0.9503 -0.1565  0.3455
52463SOL     OW62199   5.423   2.487  10.282  0.1195 -0.3350 -0.0074
52463SOL    HW162200   5.416   2.574  10.242  0.2228 -1.0223 -1.5620
52463SOL    HW262201   5.339   2.445  10.263 -0.2151 -0.3398  1.3731
52464SOL     OW62202   0.269  11.985   7.863 -0.0197 -0.0858 -0.5771
52464SOL    HW162203   0.340  11.965   7.802  0.6857 -0.5716  0.3708
52464SOL    HW262204   0.310  12.037   7.931 -0.1246 -1.8277  0.9059
52465SOL     OW62205   1.359   2.900   9.386  0.4258  0.1019 -0.1785
52465SOL    HW162206   1.384   2.986   9.352 -0.4427 -0.3902 -2.1851
52465SOL    HW262207   1.293   2.919   9.453  1.9285  1.0729  1.1072
52466SOL     OW62208  11.097  10.788   3.898  0.8077  0.1381 -0.7021
52466SOL    HW162209  11.173  10.733   3.915  1.0512  0.2732 -1.3630
52466SOL    HW262210  11.076  10.773   3.806 -0.0859 -0.0462 -0.4818
52467SOL     OW62211   8.658  10.960   7.040  0.3031 -0.3447 -0.7127
52467SOL    HW162212   8.570  10.997   7.029 -0.0215 -1.2939 -1.4107
52467SOL    HW262213   8.648  10.868   7.019  0.7626 -1.2284  2.4489
52468SOL     OW62214   6.126   4.347   4.585 -0.3307  0.3972 -0.1889
52468SOL    HW162215   6.208   4.376   4.626 -0.9374  1.0853  0.5664
52468SOL    HW262216   6.142   4.356   4.491  1.3445 -1.8766 -0.2264
52469SOL     OW62217   0.818   4.740   1.427 -0.1902 -0.3826 -0.2687
52469SOL    HW162218   0.790   4.705   1.342  1.5603  0.3476 -1.1823
52469SOL    HW262219   0.865   4.821   1.406  2.1722 -1.2867  1.1784
52470SOL     OW62220   2.522   1.509   6.851  0.1073 -0.7403 -0.0749
52470SOL    HW162221   2.596   1.456   6.881  0.4970  0.8362  1.9281
52470SOL    HW262222   2.559   1.565   6.782  0.8178  0.0075  0.8846
52471SOL     OW62223  11.130   9.623  10.320 -0.2210 -0.3589 -0.1000
52471SOL    HW162224  11.078   9.677  10.261 -1.0997 -0.1329  0.8507
52471SOL    HW262225  11.105   9.652  10.408  0.8601 -0.8648  0.3961
52472SOL     OW62226  12.590   9.650   2.311 -0.1202  0.8682  0.4412
52472SOL    HW162227  12.583   9.635   2.216  1.4898 -1.7295  0.6545
52472SOL    HW262228  12.521   9.595   2.349  0.2148  0.7307  0.8513
52473SOL     OW62229   5.137   7.800   7.593  0.5141  0.0023 -0.3497
52473SOL    HW162230   5.098   7.725   7.639  0.0333  0.0564 -0.6687
52473SOL    HW262231   5.185   7.761   7.520 -0.6663  0.0596 -1.1928
52474SOL     OW62232   4.795  10.970   8.570 -0.1029 -0.0747  0.2234
52474SOL    HW162233   4.733  11.037   8.598  1.1201  1.3639 -0.3325
52474SOL    HW262234   4.824  11.000   8.483  0.2829 -1.4762 -0.1488
52475SOL     OW62235   4.093   5.545   3.191 -0.1322 -0.0941  0.4385
52475SOL    HW162236   4.126   5.527   3.279 -0.0492 -0.0071  0.4252
52475SOL    HW262237   4.114   5.637   3.176  1.2039 -0.4870 -0.2546
52476SOL     OW62238   4.965   4.965   1.455 -0.2593 -0.2228  0.3045
52476SOL    HW162239   5.027   4.926   1.517 -0.8638  1.3014  1.9515
52476SOL    HW262240   4.940   4.893   1.397 -2.1664 -2.6315  3.8145
52477SOL     OW62241   9.237   4.900   8.372 -0.1462 -0.2936  0.1670
52477SOL    HW162242   9.181   4.978   8.372  0.4452  0.1369 -0.4396
52477SOL    HW262243   9.188   4.835   8.321 -0.4383 -0.1741  0.2934
52478SOL     OW62244   7.735   2.763   9.848 -0.1134  0.6485 -0.1482
52478SOL    HW162245   7.773   2.746   9.762  0.0032 -0.1842  0.0641
52478SOL    HW262246   7.651   2.806   9.829  0.3101  1.2699 -0.6458
52479SOL     OW62247   3.119   3.133  10.483  0.3638  0.0158 -0.0907
52479SOL    HW162248   3.144   3.102  10.571 -1.5359  0.4108  0.6414
52479SOL    HW262249   3.187   3.097  10.425  0.9279 -1.4077  1.3517
52480SOL     OW62250   7.546  11.023  12.312  0.1233  0.1867 -0.7352
52480SOL    HW162251   7.553  10.950  12.374  1.3872 -0.4856 -1.6107
52480SOL    HW262252   7.618  11.081  12.335 -1.1947  1.4841  0.2960
52481SOL     OW62253   3.681   7.259   3.157  0.1934  0.0874 -0.0597
52481SOL    HW162254   3.763   7.225   3.122 -0.0235 -0.4359 -0.0661
52481SOL    HW262255   3.621   7.184   3.156 -0.1073  0.3147  0.5014
52482SOL     OW62256   2.454   5.527   4.253 -0.4587 -0.0712 -0.4194
52482SOL    HW162257   2.472   5.497   4.164 -0.8184  0.2062 -0.5870
52482SOL    HW262258   2.534   5.506   4.301 -0.2152 -0.1171 -0.8340
52483SOL     OW62259   7.929   2.845   6.932  0.0236  0.1196 -0.0561
52483SOL    HW162260   7.868   2.816   6.864 -0.2347 -0.2058  0.3145
52483SOL    HW262261   8.001   2.782   6.928 -0.5559 -0.6141  0.7768
52484SOL     OW62262   6.745  11.398   4.399 -0.2904  0.2766 -0.3216
52484SOL    HW162263   6.778  11.340   4.468  0.6718  0.2923 -0.7561
52484SOL    HW262264   6.650  11.391   4.406 -0.2121 -1.5028 -0.4780
52485SOL     OW62265  12.140   1.568  11.308  0.3946 -0.1569  0.4983
52485SOL    HW162266  12.094   1.644  11.346 -0.2378 -0.5152  0.4609
52485SOL    HW262267  12.159   1.512  11.383  0.5460 -0.1330  0.4786
52486SOL     OW62268   0.157   2.825   6.347 -0.4590 -0.0134  0.3725
52486SOL    HW162269   0.217   2.875   6.403  1.8081 -1.0153 -1.0364
52486SOL    HW262270   0.149   2.740   6.390  0.2761 -0.3588 -0.1681
52487SOL     OW62271   8.531   8.973   3.787  0.6985 -0.1202  0.0758
52487SOL    HW162272   8.486   9.004   3.708  0.8576  0.5991  0.2614
52487SOL    HW262273   8.619   9.008   3.779  0.8466 -0.4281  0.3558
52488SOL     OW62274   6.435   9.242   4.786  0.5148  0.8743 -0.2713
52488SOL    HW162275   6.495   9.249   4.712 -1.6656 -1.3195 -2.4298
52488SOL    HW262276   6.348   9.253   4.747 -0.9272 -3.0169  1.3833
52489SOL     OW62277   5.239   2.156   3.912 -0.1504 -0.4312 -0.0040
52489SOL    HW162278   5.198   2.240   3.932 -0.3073 -0.2969 -0.8436
52489SOL    HW262279   5.329   2.165   3.940 -0.1568  0.0403 -0.1381
52490SOL     OW62280   3.892   2.142   4.233  0.1778  0.2239 -0.1924
52490SOL    HW162281   3.910   2.119   4.142  1.3416  1.7977 -0.3963
52490SOL    HW262282   3.800   2.119   4.246 -0.6610  1.9557 -2.4391
52491SOL     OW62283   1.595   8.763   5.183  0.4161  0.0760 -0.3249
52491SOL    HW162284   1.528   8.813   5.138 -0.3106  0.7064  1.3522
52491SOL    HW262285   1.652   8.829   5.223 -0.1692 -0.3793  1.3670
52492SOL     OW62286   6.382   2.289   6.917  0.1622  0.7809  0.2275
52492SOL    HW162287   6.343   2.258   6.836  1.1513  2.0128 -0.7471
52492SOL    HW262288   6.346   2.231   6.985 -2.0253  0.8174 -0.8379
52493SOL     OW62289   5.031   1.087   3.113 -0.3288  0.1183 -0.0352
52493SOL    HW162290   5.116   1.072   3.156 -1.3220 -0.7801  1.6972
52493SOL    HW262291   5.004   1.174   3.144 -0.4914 -0.0159  0.2007
52494SOL     OW62292   7.947   2.179  11.094 -0.0764  0.2965 -0.4005
52494SOL    HW162293   7.987   2.183  11.181  1.0277  0.8343 -0.9158
52494SOL    HW262294   7.873   2.120  11.105 -0.1544  0.6024  0.9814
52495SOL     OW62295  10.004   7.363   8.078 -0.4382  0.2899  0.0458
52495SOL    HW162296  10.014   7.417   8.157 -2.5120  1.2791 -0.2863
52495SOL    HW262297   9.948   7.291   8.106 -0.4824  0.1825 -0.3243
52496SOL     OW62298   1.413   2.706  10.210  0.5989  0.0116 -0.3211
52496SOL    HW162299   1.374   2.683  10.126  1.1833 -1.8517 -0.1224
52496SOL    HW262300   1.339   2.715  10.270  0.3135 -1.3728 -0.4349
52497SOL     OW62301  10.803  12.526   8.004  0.4038 -0.0125  0.3245
52497SOL    HW162302  10.786  12.484   7.920  1.4682 -0.7600  0.4584
52497SOL    HW262303  10.734  12.592   8.013 -0.4089 -0.7121 -0.5954
52498SOL     OW62304   8.745   6.782   4.534 -0.1673 -0.2982 -0.0233
52498SOL    HW162305   8.690   6.834   4.476  2.2230 -0.2813 -2.4846
52498SOL    HW262306   8.722   6.691   4.514  0.7117 -0.2944 -1.1222
52499SOL     OW62307   1.739   4.475   0.537  0.0467  0.1072 -0.4035
52499SOL    HW162308   1.689   4.403   0.498 -0.1714  0.1525 -0.2139
52499SOL    HW262309   1.830   4.446   0.533 -0.1561 -0.7877  0.9271
52500SOL     OW62310  11.398  12.010   7.427 -0.0165  0.2160  0.0855
52500SOL    HW162311  11.477  11.964   7.455 -0.1552 -0.6231 -0.8291
52500SOL    HW262312  11.370  11.963   7.348 -1.3344  0.5964  0.3016
52501SOL     OW62313   4.972   3.914   3.422  0.6162  0.2366 -0.4439
52501SOL    HW162314   4.976   3.832   3.472  0.9076  0.0504 -0.7641
52501SOL    HW262315   4.925   3.891   3.342 -1.7113  1.0095  0.6176
52502SOL     OW62316  11.465   6.963  11.919  0.2060  0.2647  0.0931
52502SOL    HW162317  11.542   6.936  11.969  0.5472  0.5397 -0.2768
52502SOL    HW262318  11.482   6.934  11.830 -0.3446 -0.1109  0.1008
52503SOL     OW62319   9.087   9.252   6.315  0.0637  0.2490 -0.4267
52503SOL    HW162320   9.125   9.279   6.232 -1.0191 -0.8231 -1.3197
52503SOL    HW262321   9.035   9.327   6.344  2.7918  1.7857  0.8754
52504SOL     OW62322   1.621   0.438   4.291  0.2672 -0.3847 -0.3366
52504SOL    HW162323   1.607   0.346   4.267 -1.1180 -0.0992 -0.6862
52504SOL    HW262324   1.538   0.466   4.329 -0.3121  1.4911 -2.7715
52505SOL     OW62325   7.176   1.569   4.182 -0.2119 -0.1878 -0.0019
52505SOL    HW162326   7.222   1.496   4.140  0.8830  0.5090 -0.0296
52505SOL    HW262327   7.171   1.544   4.274  1.6399  0.4043  0.3044
52506SOL     OW62328   5.620   4.336   6.613 -0.2267  0.0068 -0.5218
52506SOL    HW162329   5.552   4.400   6.634 -0.5102 -0.7215  0.9594
52506SOL    HW262330   5.701   4.378   6.641 -0.3941 -0.1968  0.2996
52507SOL     OW62331   0.213  12.139   1.766  0.0136 -0.7094 -0.8122
52507SOL    HW162332   0.201  12.198   1.840  0.4182 -1.3437 -0.2228
52507SOL    HW262333   0.124  12.120   1.736 -0.1073  0.3218 -1.1200
52508SOL     OW62334   4.626   8.436   6.323 -0.3049 -0.0278 -0.1904
52508SOL    HW162335   4.685   8.509   6.307 -0.2065 -0.2265 -0.7423
52508SOL    HW262336   4.542   8.476   6.343 -0.3810  0.2297 -1.0076
52509SOL     OW62337   3.675   6.019   5.557 -0.1725 -0.0511  0.5527
52509SOL    HW162338   3.597   6.027   5.502 -1.3728 -0.6992  2.0905
52509SOL    HW262339   3.649   5.958   5.626  1.4626  0.3083  1.5323
52510SOL     OW62340   1.243   0.866   1.171  0.2399  0.1125  0.2517
52510SOL    HW162341   1.274   0.802   1.106  1.2318  0.2164  0.6060
52510SOL    HW262342   1.288   0.947   1.148  1.6917 -0.1820  1.8686
52511SOL     OW62343   1.576   4.805   2.503 -0.0579  0.1869  0.2322
52511SOL    HW162344   1.636   4.733   2.522 -1.1468 -0.9975 -0.6463
52511SOL    HW262345   1.583   4.863   2.579  1.1546 -0.6232  0.7730
52512SOL     OW62346   0.041   1.595   0.886  0.0589  0.8122  0.3913
52512SOL    HW162347  -0.017   1.600   0.962 -0.0372  0.1181  0.3672
52512SOL    HW262348   0.023   1.676   0.837 -0.3540  0.9497  0.7618
52513SOL     OW62349   0.052   9.537  12.209  0.0927  0.2297  0.4618
52513SOL    HW162350   0.121   9.554  12.145 -0.2850  1.0097  0.2439
52513SOL    HW262351   0.070   9.449  12.241  0.1717 -0.2705 -0.8738
52514SOL     OW62352   8.181   7.491   2.015 -0.0918  0.0409 -0.5844
52514SOL    HW162353   8.199   7.435   2.091  0.7736  1.9654  0.7027
52514SOL    HW262354   8.093   7.525   2.030  0.0254  0.3144 -0.5205
52515SOL     OW62355   5.923   5.624   5.795 -0.0526 -0.1118 -0.8297
52515SOL    HW162356   6.013   5.598   5.815  0.2010  0.8023 -0.7284
52515SOL    HW262357   5.892   5.557   5.734  0.2485 -1.1482  0.1178
52516SOL     OW62358   3.280   3.424   2.007 -0.9907  0.3701 -0.1014
52516SOL    HW162359   3.337   3.347   2.010 -0.0969  0.8298 -2.7988
52516SOL    HW262360   3.197   3.392   1.974 -1.8160  0.0240  2.1246
52517SOL     OW62361   1.856   3.305   8.772 -0.0715 -0.2697  0.5317
52517SOL    HW162362   1.926   3.361   8.737  0.6731 -1.4557  0.0482
52517SOL    HW262363   1.830   3.348   8.854 -0.1888  1.2764 -0.2743
52518SOL     OW62364   2.046   9.977  11.065 -0.0907  0.0244 -0.1665
52518SOL    HW162365   2.096  10.027  11.001 -0.8004  0.8612 -0.0899
52518SOL    HW262366   2.095   9.895  11.076  0.4916  0.2335 -1.1286
52519SOL     OW62367   8.293   7.393   0.086 -0.0314 -0.2144  0.1434
52519SOL    HW162368   8.357   7.461   0.064  0.3411  0.1470  2.1975
52519SOL    HW262369   8.346   7.321   0.119 -0.5855 -0.6192  0.1526
52520SOL     OW62370   7.793   9.642   2.173 -0.0890 -0.1331  0.1050
52520SOL    HW162371   7.856   9.623   2.242  1.9944  0.6312 -1.4775
52520SOL    HW262372   7.797   9.737   2.162 -0.9677 -0.1555 -0.5330
52521SOL     OW62373   0.341   9.470   0.240 -0.4604 -0.0646 -0.4167
52521SOL    HW162374   0.349   9.380   0.271  1.2183 -0.5499 -2.0787
52521SOL    HW262375   0.345   9.523   0.319 -1.6220 -1.4299  0.6056
52522SOL     OW62376  10.384   0.394   6.854  0.5424  0.0566 -0.2259
52522SOL    HW162377  10.370   0.440   6.771 -0.9787  0.9663  0.5037
52522SOL    HW262378  10.344   0.308   6.840 -1.0580  0.7396  0.0458
52523SOL     OW62379   9.775   8.364   4.298 -0.0713 -0.0148  0.3116
52523SOL    HW162380   9.856   8.345   4.345  0.4491 -0.1093 -0.6040
52523SOL    HW262381   9.712   8.301   4.335  0.2039  0.1902  1.1649
52524SOL     OW62382  10.722   0.931   8.278  0.0413  0.1648  0.6819
52524SOL    HW162383  10.800   0.881   8.299  0.3273  0.4691  0.3621
52524SOL    HW262384  10.649   0.872   8.298  0.3826 -1.0049 -1.2045
52525SOL     OW62385   0.337   2.112  11.540  0.1648 -0.0952 -0.1684
52525SOL    HW162386   0.294   2.169  11.477  1.1898 -1.5852 -2.3217
52525SOL    HW262387   0.287   2.030  11.536 -1.4618  0.5662  3.0807
52526SOL     OW62388   3.833   8.290   5.147 -0.0856  0.1259 -0.4186
52526SOL    HW162389   3.836   8.277   5.242  0.4464  1.2727 -0.2607
52526SOL    HW262390   3.789   8.375   5.136 -0.4750 -0.1698 -1.2247
52527SOL     OW62391   8.983   5.424  10.073 -0.3540 -0.3696  0.1943
52527SOL    HW162392   8.989   5.394   9.982 -1.8139 -0.3266  0.0681
52527SOL    HW262393   8.893   5.453  10.083  0.1736  1.0279  1.2397
52528SOL     OW62394   8.782   1.868   2.102 -0.7498  0.5530 -0.1316
52528SOL    HW162395   8.736   1.894   2.181 -0.9939 -0.1083 -0.0494
52528SOL    HW262396   8.873   1.853   2.130 -1.1969 -1.4397  0.4287
52529SOL     OW62397  11.781   8.507  11.547  0.9458 -0.3730  0.2491
52529SOL    HW162398  11.783   8.412  11.559  1.6623 -0.5349 -0.9613
52529SOL    HW262399  11.740   8.520  11.461 -0.7965  0.5214  1.1625
52530SOL     OW62400   5.687   3.371   5.542  0.4286  0.1204 -0.4766
52530SOL    HW162401   5.686   3.448   5.487  0.3848 -0.4713 -1.3205
52530SOL    HW262402   5.596   3.341   5.544  0.2946  0.5675  0.5416
52531SOL     OW62403   6.172   4.742   8.897  0.0909 -0.4635  0.4325
52531SOL    HW162404   6.132   4.794   8.827  0.9827 -1.0664 -0.5509
52531SOL    HW262405   6.197   4.807   8.963 -1.8565 -0.0097  0.7691
52532SOL     OW62406   4.242   7.941  10.586 -0.3079  0.2740  0.3614
52532SOL    HW162407   4.181   7.946  10.659  0.2386  0.3199  0.8183
52532SOL    HW262408   4.314   8.000  10.610 -0.9535  1.7202 -1.0127
52533SOL     OW62409   1.413   8.114   2.937  1.0888 -0.1907 -0.6290
52533SOL    HW162410   1.373   8.152   2.859  0.5833  1.3450  0.3169
52533SOL    HW262411   1.507   8.131   2.926  1.1546 -1.0106 -1.4174
52534SOL     OW62412   5.906   7.076   2.483  0.4489 -0.2192  0.4219
52534SOL    HW162413   5.967   7.052   2.414  0.4431 -0.4349  0.4897
52534SOL    HW262414   5.955   7.136   2.539  0.0925  0.8524 -0.3882
52535SOL     OW62415   4.423  10.282   4.369 -0.2344 -0.4629  0.4394
52535SOL    HW162416   4.399  10.320   4.454 -1.7468 -0.5310  0.0697
52535SOL    HW262417   4.420  10.356   4.308  1.2502 -0.3337  0.4980
52536SOL     OW62418   3.937   6.086   3.194  0.3933 -0.1950  0.9638
52536SOL    HW162419   3.881   6.057   3.266  0.9901 -0.0378  1.4962
52536SOL    HW262420   4.005   6.138   3.235  0.0120  1.0012  0.1455
52537SOL     OW62421   3.713  10.862   6.111  0.5944  0.1635  0.4259
52537SOL    HW162422   3.766  10.848   6.189 -2.5475 -1.2152  2.4856
52537SOL    HW262423   3.773  10.844   6.038  3.6271  1.3970  2.4006
52538SOL     OW62424   8.513   7.908   5.120 -0.0961  0.1608  0.3718
52538SOL    HW162425   8.564   7.895   5.040 -1.8847  1.6529 -1.1203
52538SOL    HW262426   8.435   7.955   5.090 -1.4016 -0.3171  2.8360
52539SOL     OW62427   8.344   1.282   3.388 -0.2323 -0.5734 -0.0551
52539SOL    HW162428   8.421   1.233   3.414 -0.1634  1.0808  3.4339
52539SOL    HW262429   8.378   1.362   3.349 -0.2496 -0.9180 -0.7866
52540SOL     OW62430   9.934   2.809   9.766 -0.3862  0.2622 -0.1809
52540SOL    HW162431   9.962   2.718   9.773 -2.0282 -0.3424 -0.8414
52540SOL    HW262432   9.992   2.857   9.825 -1.2442 -1.6184  2.3744
52541SOL     OW62433  12.358  11.230  12.447  0.3802 -0.1583  0.1289
52541SOL    HW162434  12.408  11.289  12.390 -1.7882 -0.2974 -2.1119
52541SOL    HW262435  12.311  11.289  12.507  1.8723  0.0515  1.1416
52542SOL     OW62436   1.569   3.207   6.342  0.7719  0.0555 -0.3646
52542SOL    HW162437   1.551   3.262   6.266  1.0559  0.8960  0.1659
52542SOL    HW262438   1.662   3.221   6.360  0.6975 -0.1186  0.1590
52543SOL     OW62439   0.578   9.215  10.778  0.1896  0.1906  0.6543
52543SOL    HW162440   0.556   9.125  10.800 -1.9843  0.2442 -0.9313
52543SOL    HW262441   0.583   9.260  10.862 -1.0646 -0.9455  1.3711
52544SOL     OW62442   0.263   1.189   7.946  0.0268 -0.6459  0.1978
52544SOL    HW162443   0.306   1.106   7.923  0.9771  0.2542 -1.4205
52544SOL    HW262444   0.170   1.173   7.931  0.1667 -1.4985  0.1870
52545SOL     OW62445   3.014   2.556   1.941 -0.3187 -0.1577  0.2279
52545SOL    HW162446   2.997   2.466   1.913 -2.1315  0.3752 -0.5985
52545SOL    HW262447   3.021   2.605   1.859 -3.4387  1.0691  0.5452
52546SOL     OW62448   3.604   7.450   7.027  0.6726  0.4685 -0.6731
52546SOL    HW162449   3.585   7.356   7.024  2.3169  0.0754 -0.1273
52546SOL    HW262450   3.689   7.458   6.983  0.7720  1.6286 -0.2959
52547SOL     OW62451   8.574   0.740  10.692 -0.1326  0.4521 -0.3561
52547SOL    HW162452   8.551   0.710  10.604  0.3774 -0.1300 -0.2955
52547SOL    HW262453   8.490   0.749  10.737 -0.2991 -1.2226 -0.2691
52548SOL     OW62454   5.427  11.366   5.435  0.3677  0.0145  0.2834
52548SOL    HW162455   5.452  11.282   5.473  0.5694 -0.5296 -1.0185
52548SOL    HW262456   5.341  11.385   5.473  0.8157 -0.2020  1.4617
52549SOL     OW62457   6.665   4.298   7.892 -0.7525 -0.1856  0.3411
52549SOL    HW162458   6.700   4.379   7.928 -0.9487  0.8995 -1.7645
52549SOL    HW262459   6.674   4.234   7.963  1.6421  1.0473  1.2523
52550SOL     OW62460   5.778  10.306   8.813 -0.3107  0.3464  0.0064
52550SOL    HW162461   5.766  10.369   8.884  2.2784  0.7534  0.1590
52550SOL    HW262462   5.799  10.224   8.858  0.8292  0.4839 -0.2557
52551SOL     OW62463  10.901   8.408   0.920 -0.0906 -0.4288  0.1777
52551SOL    HW162464  10.825   8.439   0.871  0.9305  0.3721 -0.9462
52551SOL    HW262465  10.924   8.481   0.977  0.1060 -0.4961  0.1854
52552SOL     OW62466   5.615   5.412   3.036 -0.3584 -0.5729 -0.2720
52552SOL    HW162467   5.583   5.500   3.054 -3.3595 -1.7216  0.6671
52552SOL    HW262468   5.562   5.383   2.961  0.0107 -1.8316 -0.0592
52553SOL     OW62469  10.442   2.334   1.316 -0.1426  0.5560 -0.3937
52553SOL    HW162470  10.370   2.315   1.256  0.0565  0.1009 -0.4920
52553SOL    HW262471  10.496   2.255   1.315 -0.1367  0.5478  0.3923
52554SOL     OW62472  10.618  10.796  10.466  0.1342  0.3921 -0.1170
52554SOL    HW162473  10.649  10.873  10.515  0.3361  1.2193 -1.4883
52554SOL    HW262474  10.565  10.833  10.396  0.2873 -0.7295 -0.8370
52555SOL     OW62475  11.463  12.645   3.805  0.1431 -0.0080  0.5972
52555SOL    HW162476  11.504  12.669   3.888  0.1504 -0.2381  0.6613
52555SOL    HW262477  11.386  12.702   3.799  0.1565  0.0250  0.7498
52556SOL     OW62478  10.807   0.366   2.870 -0.6172  0.4836  0.1877
52556SOL    HW162479  10.753   0.411   2.935 -1.4258 -1.8674  1.2661
52556SOL    HW262480  10.743   0.323   2.812  0.0678 -1.3250  0.7278
52557SOL     OW62481  11.496   1.679   4.739 -0.2549  0.7800 -0.0312
52557SOL    HW162482  11.438   1.654   4.667 -0.3373  2.6078 -0.6418
52557SOL    HW262483  11.508   1.598   4.789 -1.2945 -0.2116 -1.3151
52558SOL     OW62484   0.127   8.197  10.512 -0.3386  0.4040  0.2122
52558SOL    HW162485   0.192   8.175  10.578  0.6496 -1.9163 -1.3989
52558SOL    HW262486   0.177   8.240  10.442 -0.9143  0.5652 -0.1134
52559SOL     OW62487   1.473   9.883   4.407 -0.7091 -0.2566 -0.2328
52559SOL    HW162488   1.417   9.894   4.330  0.2885  0.3217 -0.9022
52559SOL    HW262489   1.513   9.969   4.419 -1.0819 -0.2614  1.1288
52560SOL     OW62490   5.509   7.643  12.514 -0.0866  0.0999  0.0084
52560SOL    HW162491   5.557   7.669  12.436 -1.6659  0.6502 -0.8152
52560SOL    HW262492   5.421   7.677  12.501 -1.6543 -3.5539 -0.0112
52561SOL     OW62493   3.752   5.110   7.783  0.1881  0.6954 -0.1414
52561SOL    HW162494   3.841   5.080   7.802  0.4909  0.8316 -1.3121
52561SOL    HW262495   3.742   5.190   7.835 -0.3068 -0.8543  2.3174
52562SOL     OW62496  12.482   7.519   5.139 -0.6773 -0.1622  0.0321
52562SOL    HW162497  12.398   7.523   5.094 -1.1453  1.2609  0.9582
52562SOL    HW262498  12.533   7.591   5.102  0.4605 -1.4807 -1.0746
52563SOL     OW62499   6.562   5.427   3.226  0.2173 -0.5051 -0.5403
52563SOL    HW162500   6.485   5.484   3.235  0.5334  0.0943 -1.5144
52563SOL    HW262501   6.632   5.476   3.271  0.4302 -0.2358 -1.1604
52564SOL     OW62502   7.522   9.278   2.847 -0.7495 -0.0169  0.0335
52564SOL    HW162503   7.497   9.200   2.896 -1.4036  0.4600  0.4760
52564SOL    HW262504   7.567   9.245   2.769 -1.6910 -0.8561 -0.1606
52565SOL     OW62505   2.356   3.192   5.884 -0.3541 -0.2363  0.2944
52565SOL    HW162506   2.385   3.240   5.962 -1.9728  1.2317  0.0742
52565SOL    HW262507   2.300   3.122   5.919  0.0598 -0.4611  0.5103
52566SOL     OW62508   2.846   8.948   1.465 -0.0791  0.5211  0.3025
52566SOL    HW162509   2.900   8.872   1.488  0.4170  0.4396 -1.0232
52566SOL    HW262510   2.848   8.951   1.369 -0.8562  1.6666  0.2954
52567SOL     OW62511  10.433   7.069  10.958  0.5113  0.1285  0.5541
52567SOL    HW162512  10.443   6.975  10.970 -0.5836  0.0143  0.7164
52567SOL    HW262513  10.358   7.078  10.899  1.2384  0.8807 -0.2824
52568SOL     OW62514   1.507   7.678   3.651  0.1287 -0.2118 -0.2402
52568SOL    HW162515   1.551   7.645   3.573  0.9109 -0.2499  0.2049
52568SOL    HW262516   1.483   7.599   3.700  1.7847 -0.1834  0.7061
52569SOL     OW62517   5.604   8.464   7.499  0.0752 -0.0337 -0.7726
52569SOL    HW162518   5.520   8.420   7.509 -1.1456  1.5688 -3.1434
52569SOL    HW262519   5.641   8.429   7.419  0.4889  1.0162 -1.0603
52570SOL     OW62520   7.033   1.249   4.909  0.2678 -0.1984  0.4092
52570SOL    HW162521   7.061   1.328   4.956  0.8870  0.2941 -0.7641
52570SOL    HW262522   6.990   1.281   4.830  2.4502 -0.9885 -1.2146
52571SOL     OW62523   1.143   3.267   1.884  0.1073  0.5702 -0.1969
52571SOL    HW162524   1.048   3.269   1.878  0.0760 -1.0814 -0.7456
52571SOL    HW262525   1.162   3.272   1.978 -0.5325  0.4117 -0.0597
52572SOL     OW62526  12.559   5.071  12.570 -0.0962 -0.1229 -0.0218
52572SOL    HW162527  12.482   5.098  12.520  0.1161 -0.2903 -0.4493
52572SOL    HW262528  12.633   5.092  12.512  0.1180 -0.9012 -0.0373
52573SOL     OW62529   1.002   0.460   0.213 -0.4047  0.3310  0.2339
52573SOL    HW162530   0.927   0.435   0.269  0.0260 -1.0732  0.2309
52573SOL    HW262531   1.054   0.380   0.207  1.3053  1.3798  0.5262
52574SOL     OW62532   5.768   1.882   2.347 -0.3695  0.2737  0.0521
52574SOL    HW162533   5.765   1.789   2.371 -1.1452  0.6046  1.2913
52574SOL    HW262534   5.861   1.898   2.328 -0.0349 -0.4779  0.9756
52575SOL     OW62535   9.852   0.307   3.157  0.1202  0.2321  0.1857
52575SOL    HW162536   9.766   0.339   3.185  0.0439  0.3681 -0.1876
52575SOL    HW262537   9.856   0.330   3.064  0.2225 -0.5203  0.0040
52576SOL     OW62538   1.430   6.988   2.505  0.7202  0.6742 -0.3919
52576SOL    HW162539   1.480   6.952   2.432  0.6612 -0.3241  0.0485
52576SOL    HW262540   1.345   6.944   2.501  1.0861 -0.2032  0.9017
52577SOL     OW62541   0.920   1.199   4.164  0.9074  0.0200 -0.5201
52577SOL    HW162542   0.846   1.149   4.130  1.0494 -0.3362 -0.3096
52577SOL    HW262543   0.904   1.207   4.258  0.2382  1.4753 -0.7266
52578SOL     OW62544   7.566   7.456  11.094  0.2149  0.1799  0.1321
52578SOL    HW162545   7.495   7.402  11.059  1.3586  0.0710 -2.1583
52578SOL    HW262546   7.524   7.540  11.115 -0.7209 -0.1112 -0.5342
52579SOL     OW62547   8.406  11.346   1.623  0.6435  0.0514 -0.0427
52579SOL    HW162548   8.488  11.396   1.630  1.3948 -1.0450 -0.6458
52579SOL    HW262549   8.367  11.352   1.710  1.1621  0.9240  0.1429
52580SOL     OW62550   7.283   4.049   7.817 -0.0315  0.0489  0.1325
52580SOL    HW162551   7.208   4.109   7.811 -2.1152 -2.4866 -1.6351
52580SOL    HW262552   7.324   4.071   7.900 -1.4557  2.9664  0.2214
52581SOL     OW62553  12.540  11.924  11.856  0.4682  0.3818 -0.3423
52581SOL    HW162554  12.587  11.968  11.927  1.6020 -0.0583 -0.7965
52581SOL    HW262555  12.540  11.987  11.784  1.3441 -0.0216 -0.7080
52582SOL     OW62556  10.068   1.792   1.728  0.6746 -0.0288 -0.2165
52582SOL    HW162557  10.162   1.800   1.742  1.4013 -2.7144 -2.5280
52582SOL    HW262558  10.053   1.833   1.643 -0.8980  2.8985  1.3057
52583SOL     OW62559  11.067  11.449   2.348  0.1643 -0.1447  0.0608
52583SOL    HW162560  11.159  11.448   2.322 -0.1456 -1.2156 -1.0615
52583SOL    HW262561  11.043  11.357   2.359 -0.8296  0.1048  0.1322
52584SOL     OW62562   2.936  10.581   2.003 -0.1889 -0.4241 -0.1489
52584SOL    HW162563   2.908  10.494   2.033  1.7828 -1.1604 -0.3079
52584SOL    HW262564   2.928  10.637   2.080 -0.4219 -1.0096  0.2589
52585SOL     OW62565   8.142   0.793   0.515 -0.1617 -0.3715 -0.0524
52585SOL    HW162566   8.112   0.703   0.525  0.5145 -0.4772  1.1947
52585SOL    HW262567   8.139   0.809   0.420 -2.2058 -1.0218 -0.1399
52586SOL     OW62568   8.376   7.097  10.067  0.4877  0.0779  0.0438
52586SOL    HW162569   8.435   7.082   9.993  0.2836  1.7785 -0.5172
52586SOL    HW262570   8.297   7.049  10.044  0.2426  0.9910 -1.1123
52587SOL     OW62571   7.241   6.288   1.411 -0.3522 -0.2019 -0.2989
52587SOL    HW162572   7.321   6.321   1.370  0.1773  2.1847  2.3719
52587SOL    HW262573   7.270   6.216   1.467 -0.2763 -0.0678 -0.1683
52588SOL     OW62574   0.472   5.500  11.640 -0.0777 -0.2922 -0.3264
52588SOL    HW162575   0.446   5.488  11.731 -2.1257  0.3540 -0.7662
52588SOL    HW262576   0.489   5.594  11.632 -2.7450  0.2063 -1.1978
52589SOL     OW62577   3.075   6.610   0.359  0.5315 -0.1115 -0.3446
52589SOL    HW162578   3.043   6.533   0.312  0.3645 -1.0201  1.1906
52589SOL    HW262579   3.170   6.595   0.367  0.2852 -1.0184  1.3726
52590SOL     OW62580   6.292  10.594  11.642  0.5926  0.3711 -0.4255
52590SOL    HW162581   6.227  10.654  11.608  1.0772  0.9338 -0.3708
52590SOL    HW262582   6.243  10.532  11.696  0.3606  2.0964  1.4341
52591SOL     OW62583   2.083   2.087   6.803 -0.2601  0.5059 -0.1289
52591SOL    HW162584   2.037   2.004   6.788 -0.4422  0.4055  0.9265
52591SOL    HW262585   2.080   2.099   6.897  2.2318  0.3076  0.0399
52592SOL     OW62586   3.295   5.878   6.911 -0.1839  0.0768 -0.6354
52592SOL    HW162587   3.275   5.799   6.860  1.7847 -1.4770  0.8816
52592SOL    HW262588   3.219   5.889   6.968 -0.4721 -0.7315 -0.8437
52593SOL     OW62589   6.037   3.424   0.259  0.0290  0.2297  0.3264
52593SOL    HW162590   5.993   3.413   0.175 -1.2544 -0.6307  1.0710
52593SOL    HW262591   6.103   3.355   0.262 -0.6588 -0.4354  0.4580
52594SOL     OW62592   0.125   4.152   3.155  0.1385 -0.4176 -0.5865
52594SOL    HW162593   0.136   4.213   3.228 -0.5446  0.0093 -0.8310
52594SOL    HW262594   0.049   4.099   3.178  0.3600 -0.7715 -0.6576
52595SOL     OW62595   2.031   8.233   4.514  0.4439 -0.2481 -0.3234
52595SOL    HW162596   2.035   8.324   4.544 -1.0652  0.4204 -1.9589
52595SOL    HW262597   1.973   8.236   4.438 -0.7046 -2.7979  0.3553
52596SOL     OW62598  10.254   8.304  12.567 -0.1440  0.2306 -0.2553
52596SOL    HW162599  10.173   8.343  12.532  0.7943  1.8321 -0.7538
52596SOL    HW262600  10.277   8.360  12.641  1.2951  0.7173 -1.0411
52597SOL     OW62601   2.726   3.011   4.213  0.3760  0.4062  0.1116
52597SOL    HW162602   2.675   2.974   4.141 -0.3188  0.1917  0.6977
52597SOL    HW262603   2.676   3.088   4.241 -0.0697 -0.2614  1.2155
52598SOL     OW62604   8.848   2.856  10.618 -0.0768  0.7161 -0.5906
52598SOL    HW162605   8.822   2.774  10.578 -0.4177 -0.5860  2.0562
52598SOL    HW262606   8.943   2.861  10.606 -0.1315  0.1903 -1.2122
52599SOL     OW62607  11.090   0.682   2.366  0.3659 -0.2853  0.1786
52599SOL    HW162608  11.057   0.739   2.436 -0.5496  0.5048 -0.8665
52599SOL    HW262609  11.013   0.661   2.314  0.8127 -1.9716  0.1629
52600SOL     OW62610   1.914   1.823   2.735  0.1450 -0.3226  0.1026
52600SOL    HW162611   1.998   1.793   2.769  0.7010 -2.2632 -2.6250
52600SOL    HW262612   1.852   1.753   2.758 -0.3661  0.3002  0.6504
52601SOL     OW62613   6.528  10.844  10.350  0.5841  0.0139  0.1224
52601SOL    HW162614   6.531  10.925  10.299  0.9807 -0.0184  0.0938
52601SOL    HW262615   6.446  10.802  10.323  0.2357  0.5400  0.3439
52602SOL     OW62616   5.071   4.495   8.560 -0.2551 -0.1168  0.4774
52602SOL    HW162617   5.154   4.450   8.578  0.0364  0.5617  0.8679
52602SOL    HW262618   5.032   4.444   8.489  1.4565  0.6997 -1.1411
52603SOL     OW62619  11.769   9.592   1.169 -0.0193 -0.2480 -0.1866
52603SOL    HW162620  11.699   9.528   1.181 -0.4482 -0.1313 -1.8370
52603SOL    HW262621  11.816   9.592   1.252 -1.0344 -1.4618  0.4226
52604SOL     OW62622  12.418   6.721   1.132 -0.0937  0.7222  0.9816
52604SOL    HW162623  12.400   6.814   1.125  0.8431  0.8458  0.0180
52604SOL    HW262624  12.487   6.704   1.067 -0.1885 -0.6193  1.1940
52605SOL     OW62625   0.521   4.499   5.721 -0.0977  0.1651  0.5153
52605SOL    HW162626   0.536   4.492   5.815  1.9197 -0.6925  0.1863
52605SOL    HW262627   0.531   4.409   5.689  4.4125  0.9757 -1.0870
52606SOL     OW62628   1.884   0.183   6.547  0.3105  0.4644 -0.0452
52606SOL    HW162629   1.948   0.252   6.530 -0.5155  1.2184 -0.1933
52606SOL    HW262630   1.799   0.228   6.542 -0.2405 -0.5583 -0.1004
52607SOL     OW62631   5.796  11.922   1.503  0.1112  0.1523  0.1274
52607SOL    HW162632   5.798  11.891   1.412 -0.2518  0.5067 -0.0034
52607SOL    HW262633   5.726  11.872   1.544 -1.4789  1.7834 -0.4609
52608SOL     OW62634   9.880   1.576   9.016  0.2144 -0.7442  0.0451
52608SOL    HW162635   9.972   1.596   8.998  0.5586  0.1675  2.4130
52608SOL    HW262636   9.874   1.481   9.011  0.6540 -0.7104 -2.5809
52609SOL     OW62637   6.393   8.964  11.097  0.0997  0.1346 -0.0395
52609SOL    HW162638   6.401   8.875  11.131 -0.6741  0.6978  1.7549
52609SOL    HW262639   6.312   8.964  11.046 -0.5093  0.0565  0.8995
52610SOL     OW62640   4.024   9.916   6.776 -0.1397 -1.0927  0.0251
52610SOL    HW162641   4.115   9.903   6.750  0.4453  0.0353  1.3551
52610SOL    HW262642   4.028   9.931   6.871 -1.5547  0.3107 -0.0934
52611SOL     OW62643   3.911   9.718  12.594 -0.2505 -0.0746  0.2400
52611SOL    HW162644   3.842   9.654  12.609  0.6377 -1.7949 -2.3929
52611SOL    HW262645   3.991   9.675  12.624  0.2652  0.0414 -0.9150
52612SOL     OW62646   7.815   5.881   8.552  0.4163 -0.1318  0.1998
52612SOL    HW162647   7.809   5.874   8.457 -1.3041  0.0222  0.2682
52612SOL    HW262648   7.907   5.862   8.571  0.7082 -0.5846 -1.4464
52613SOL     OW62649  10.799   4.002   1.482 -0.0267  0.0082 -0.1580
52613SOL    HW162650  10.867   3.978   1.419  1.0324  2.4497 -0.0228
52613SOL    HW262651  10.847   4.034   1.559 -1.3327  0.2984  0.5651
52614SOL     OW62652   1.142   7.320   0.559  1.1249 -0.2493 -0.0882
52614SOL    HW162653   1.154   7.391   0.495  2.0271  1.2714  1.6798
52614SOL    HW262654   1.078   7.261   0.518  0.1873  1.6793 -1.5401
52615SOL     OW62655   5.658  11.754   1.701 -0.0058 -0.7081 -0.0380
52615SOL    HW162656   5.716  11.721   1.769  1.5908  1.9065  0.0098
52615SOL    HW262657   5.574  11.768   1.746 -0.0557 -2.4101  0.4480
52616SOL     OW62658   9.037   3.382   3.193 -0.2697  0.3952 -0.5831
52616SOL    HW162659   8.998   3.411   3.276  0.4724  1.2095 -0.5077
52616SOL    HW262660   9.096   3.311   3.219 -1.0312 -0.2559 -0.5910
52617SOL     OW62661   4.177   9.478  10.972 -0.1161  0.1303 -0.0041
52617SOL    HW162662   4.172   9.405  10.911 -0.2509  1.1984 -1.3022
52617SOL    HW262663   4.180   9.436  11.058 -2.6455 -1.3910 -0.5275
52618SOL     OW62664   3.255  10.407  10.931  0.2192 -0.3034 -0.0072
52618SOL    HW162665   3.304  10.477  10.976 -1.7711 -0.2006  2.1726
52618SOL    HW262666   3.271  10.329  10.984  0.7450 -1.0460 -1.2400
52619SOL     OW62667  11.959   0.455  12.405 -0.3282 -0.5398  0.1222
52619SOL    HW162668  11.938   0.450  12.312  0.9762 -1.4223 -0.1575
52619SOL    HW262669  11.901   0.522  12.440  0.7425  1.4807 -1.7893
52620SOL     OW62670   2.933   4.816   1.973  0.3250  0.4773 -0.4224
52620SOL    HW162671   2.948   4.791   2.064 -0.6568  0.0813 -0.3589
52620SOL    HW262672   3.016   4.854   1.945  0.8616 -0.0208  0.4299
52621SOL     OW62673   5.723   4.792   9.833 -0.1200 -0.4885 -0.4065
52621SOL    HW162674   5.705   4.796   9.927  0.6557  1.1973 -0.2854
52621SOL    HW262675   5.642   4.824   9.792  0.1999  0.6579 -0.1887
52622SOL     OW62676   5.177   5.836  11.419  0.1431  0.0348 -0.2589
52622SOL    HW162677   5.118   5.882  11.479  1.3702  0.0178  1.0188
52622SOL    HW262678   5.138   5.848  11.333 -1.3233  0.6381  0.4589
52623SOL     OW62679   7.006   1.984   0.866  0.2306 -0.3781 -0.2636
52623SOL    HW162680   6.972   2.060   0.817  0.0978  0.3916  0.9831
52623SOL    HW262681   7.100   2.001   0.874  0.2726 -0.5647 -0.3472
52624SOL     OW62682   0.796   7.613   6.968  0.5722  0.4719  0.2992
52624SOL    HW162683   0.845   7.534   6.994 -1.5343 -0.0262  3.2061
52624SOL    HW262684   0.751   7.587   6.888  3.1170  0.2189 -1.1875
52625SOL     OW62685   9.629   6.281   7.220 -0.1596 -0.0640  0.1907
52625SOL    HW162686   9.694   6.212   7.208 -1.5513 -1.1098 -1.7841
52625SOL    HW262687   9.596   6.268   7.309  0.9079 -0.7499  0.5016
52626SOL     OW62688   6.015   2.044   9.011  0.5849  0.6571 -0.1868
52626SOL    HW162689   6.058   2.007   8.934 -0.2937 -0.3611 -0.2072
52626SOL    HW262690   5.922   2.026   8.998  0.2385  1.9691  0.3189
52627SOL     OW62691   0.683  11.026  11.112 -0.5519 -0.0786  0.7354
52627SOL    HW162692   0.642  11.110  11.089 -0.5759 -0.5568 -1.1666
52627SOL    HW262693   0.766  11.051  11.152 -0.3990  0.8683 -0.1113
52628SOL     OW62694   7.859   7.143  11.152  0.4628 -0.1372  0.0839
52628SOL    HW162695   7.861   7.049  11.133  0.7836 -0.0120 -0.5398
52628SOL    HW262696   7.930   7.156  11.215 -0.5164 -0.5359  1.3033
52629SOL     OW62697   8.185  10.010   1.584 -0.2285  0.3470 -0.4423
52629SOL    HW162698   8.188  10.103   1.606  1.4677 -0.0266  1.0635
52629SOL    HW262699   8.267   9.993   1.539  0.2925 -0.7614  0.8642
52630SOL     OW62700   8.117   2.691  11.331  0.3354 -0.3306  0.0343
52630SOL    HW162701   8.189   2.657  11.277  0.6546  0.1556  0.1487
52630SOL    HW262702   8.156   2.765  11.379 -0.5648  0.7848 -0.8951
52631SOL     OW62703   3.311  12.540   8.891 -0.0876  0.1398 -0.5424
52631SOL    HW162704   3.339  12.451   8.872  1.8495 -0.9659  5.3342
52631SOL    HW262705   3.217  12.534   8.906  0.1655 -1.2682  0.7306
52632SOL     OW62706   5.127   0.903   6.110 -0.3420 -0.2817  0.5201
52632SOL    HW162707   5.033   0.905   6.130 -0.7374 -1.8164 -0.9391
52632SOL    HW262708   5.150   0.810   6.114  0.7751 -0.0725 -0.4906
52633SOL     OW62709   5.419   3.839   1.827  0.0413  0.0248 -0.6574
52633SOL    HW162710   5.421   3.935   1.831  0.2204 -0.0130  2.0041
52633SOL    HW262711   5.499   3.812   1.871 -0.6339 -1.3425 -0.2353
52634SOL     OW62712  11.856   6.369   3.506 -0.0081  0.4593 -0.5151
52634SOL    HW162713  11.828   6.460   3.499 -1.4823  0.0110 -0.7348
52634SOL    HW262714  11.776   6.318   3.495  0.7939 -0.8727 -0.4170
52635SOL     OW62715   8.969  10.639   9.210 -0.1146 -0.0993  0.6667
52635SOL    HW162716   8.911  10.637   9.133  2.0724 -0.3727 -1.0683
52635SOL    HW262717   8.947  10.722   9.253  0.1557  1.2387 -1.5807
52636SOL     OW62718   3.947   0.382   6.658 -0.1728 -0.2763 -0.1805
52636SOL    HW162719   3.872   0.358   6.604 -1.0612  1.0382  0.4219
52636SOL    HW262720   3.911   0.441   6.724  0.9567 -1.4216  1.5518
52637SOL     OW62721   9.457   3.185   0.935 -0.1450  0.5378 -0.5734
52637SOL    HW162722   9.548   3.209   0.950 -0.0657  0.8384 -1.4818
52637SOL    HW262723   9.462   3.101   0.888 -0.4018 -0.8208  1.6688
52638SOL     OW62724   8.319   6.342   2.023  0.2488 -0.0533 -0.3259
52638SOL    HW162725   8.368   6.424   2.014 -0.4470  0.2096 -2.2385
52638SOL    HW262726   8.354   6.286   1.954 -0.7987 -0.5562 -0.4636
52639SOL     OW62727   4.727  12.375   5.900 -0.2202 -0.2706  0.4800
52639SOL    HW162728   4.687  12.292   5.873 -0.3922  0.1070 -0.4664
52639SOL    HW262729   4.786  12.350   5.972  0.0194 -1.2855 -0.0344
52640SOL     OW62730   2.489  12.458   7.603 -0.2811  0.1710 -0.0630
52640SOL    HW162731   2.451  12.433   7.687  0.6729 -0.2229  0.2550
52640SOL    HW262732   2.413  12.479   7.548 -0.8957  0.8592  1.0164
52641SOL     OW62733   5.278   6.968   1.677  0.2073  0.0994 -0.7472
52641SOL    HW162734   5.318   7.054   1.663  1.6945 -0.7733 -2.1449
52641SOL    HW262735   5.205   6.965   1.616  0.5017  0.1728 -1.1071
52642SOL     OW62736  10.379  11.303   1.366  0.0540  0.1709  0.1501
52642SOL    HW162737  10.428  11.319   1.285  0.0826 -1.0999 -0.1053
52642SOL    HW262738  10.287  11.305   1.339  0.0765 -0.8491 -0.0575
52643SOL     OW62739   9.773   5.836   9.533  0.1531 -0.7070 -0.0302
52643SOL    HW162740   9.744   5.748   9.558 -1.1200 -0.3803 -0.3268
52643SOL    HW262741   9.693   5.888   9.528  1.0099  0.9217  1.7804
52644SOL     OW62742  10.815   8.307   4.492  0.0772 -0.4791  0.8362
52644SOL    HW162743  10.879   8.309   4.421  0.3642 -1.3361  1.0629
52644SOL    HW262744  10.798   8.214   4.507 -1.0761 -0.2703  0.9163
52645SOL     OW62745   7.844   4.946   5.135 -0.2399 -0.1540  0.2557
52645SOL    HW162746   7.887   5.029   5.116  1.8936 -1.3064 -0.3130
52645SOL    HW262747   7.779   4.967   5.202  0.0099  2.0029 -0.1143
52646SOL     OW62748   9.489   0.489   2.499 -0.3100 -0.0760 -0.0095
52646SOL    HW162749   9.499   0.411   2.444  0.5821  1.2205 -1.7992
52646SOL    HW262750   9.398   0.515   2.487 -0.2074  0.0116 -0.6395
52647SOL     OW62751  11.906   6.722   5.151  0.0403 -0.2218 -0.1530
52647SOL    HW162752  11.938   6.646   5.102  0.6496 -0.6750  0.9074
52647SOL    HW262753  11.976   6.741   5.213  0.3268  1.8381 -1.0416
52648SOL     OW62754   6.723   7.769  10.013  0.4601 -0.0447 -0.4803
52648SOL    HW162755   6.783   7.838  10.041  1.7119 -1.0969 -0.4795
52648SOL    HW262756   6.652   7.816   9.969  1.2986  1.2355 -0.5321
52649SOL     OW62757  11.934   8.628   3.166  0.0647  0.0885  0.1539
52649SOL    HW162758  11.933   8.701   3.105 -0.4505  0.5867  0.7499
52649SOL    HW262759  11.846   8.625   3.203  0.2417 -0.4679  0.5586
52650SOL     OW62760  12.131   5.543   5.214  0.0620 -0.0526  0.1170
52650SOL    HW162761  12.223   5.571   5.213  0.2373 -0.6320 -0.3178
52650SOL    HW262762  12.127   5.471   5.151 -1.0711  1.1437 -1.2704
52651SOL     OW62763   0.039  10.046   0.129 -0.0531  0.1841  0.2336
52651SOL    HW162764   0.013   9.968   0.179  0.1676  0.3445  0.6010
52651SOL    HW262765  -0.043  10.083   0.099 -0.1121 -0.9387 -1.0901
52652SOL     OW62766   1.991   0.267   8.764 -0.4276  0.1495 -0.3132
52652SOL    HW162767   1.949   0.182   8.781  0.2406 -0.1420 -0.0675
52652SOL    HW262768   1.961   0.292   8.677 -0.3866 -0.4960 -0.5181
52653SOL     OW62769   9.623   1.999   8.973 -0.0793  0.4038  0.3169
52653SOL    HW162770   9.611   1.967   8.884  0.3270  0.1998  0.3302
52653SOL    HW262771   9.576   2.082   8.976  0.4487  0.7348 -0.2833
52654SOL     OW62772   3.730   6.813   8.829  0.3112  0.3133  0.0737
52654SOL    HW162773   3.787   6.778   8.761  0.5562  0.9048 -0.0309
52654SOL    HW262774   3.696   6.736   8.874  1.3766 -0.0320  0.2955
52655SOL     OW62775   2.089   2.274   2.957  0.5750  0.0873 -0.3822
52655SOL    HW162776   2.028   2.279   2.883  0.2389  0.5496 -0.0820
52655SOL    HW262777   2.033   2.259   3.033  0.7469  1.2317 -0.0049
52656SOL     OW62778   3.357   6.189  11.212 -0.8493  0.4687  0.0335
52656SOL    HW162779   3.324   6.221  11.297  1.1869 -0.5820  1.2935
52656SOL    HW262780   3.395   6.103  11.232  2.6365  1.5527 -1.2074
52657SOL     OW62781  12.408  11.054   7.884  0.2077  0.0678  0.1735
52657SOL    HW162782  12.501  11.050   7.861 -0.0621 -1.9763 -0.7773
52657SOL    HW262783  12.391  10.970   7.926 -1.4320 -0.0247 -0.6176
52658SOL     OW62784  11.591   3.186   4.114  0.1063  0.1540 -0.1926
52658SOL    HW162785  11.623   3.258   4.168 -0.8414  0.0302  0.5562
52658SOL    HW262786  11.524   3.225   4.058  2.4301  0.7443 -2.8314
52659SOL     OW62787   2.565   5.097   9.799 -0.2873  0.2278  0.1907
52659SOL    HW162788   2.595   5.039   9.869 -1.3784  0.2505  0.6875
52659SOL    HW262789   2.542   5.039   9.727  1.7495  0.2481 -0.5571
52660SOL     OW62790  11.291   2.893  12.472 -0.1146  0.4112  0.1066
52660SOL    HW162791  11.243   2.832  12.527 -0.7630  1.4667  0.7596
52660SOL    HW262792  11.315   2.843  12.395  0.7540 -1.0997  1.2942
52661SOL     OW62793   6.833  11.881  10.611  0.0468 -0.0523  0.0584
52661SOL    HW162794   6.793  11.799  10.582 -0.1416  0.3643 -0.8984
52661SOL    HW262795   6.781  11.949  10.568  0.3014  0.5702  0.7172
52662SOL     OW62796   3.074  12.145  12.536  0.1222  0.1949 -0.2074
52662SOL    HW162797   3.126  12.160  12.457  0.8175  0.6313  0.3152
52662SOL    HW262798   3.011  12.218  12.538 -0.5538 -0.3572 -0.8655
52663SOL     OW62799   2.793   5.413   3.875 -0.0778  0.8050 -0.0903
52663SOL    HW162800   2.721   5.354   3.851  1.7347 -1.3493 -0.5654
52663SOL    HW262801   2.813   5.460   3.795 -1.4048  2.0165  0.2406
52664SOL     OW62802   4.816   6.212  10.232 -0.0209  0.8565 -0.6146
52664SOL    HW162803   4.777   6.178  10.152 -2.7897  1.2869  0.4426
52664SOL    HW262804   4.796   6.306  10.231 -1.5977  0.5940  1.2997
52665SOL     OW62805   2.690   2.935   5.142 -0.1487  0.4704 -0.0519
52665SOL    HW162806   2.651   3.018   5.168  0.0882  1.0522 -1.4620
52665SOL    HW262807   2.750   2.913   5.214 -0.3892  1.3939  0.4470
52666SOL     OW62808   4.009   1.602   5.683  0.0721 -0.2375 -0.4163
52666SOL    HW162809   3.996   1.518   5.638  0.2700 -0.8568  0.6626
52666SOL    HW262810   3.976   1.667   5.621 -0.0386 -1.1032 -1.2912
52667SOL     OW62811   3.005   4.287   9.807  0.5631  0.3790 -0.0934
52667SOL    HW162812   3.008   4.348   9.881  0.6232  1.7005 -1.1410
52667SOL    HW262813   3.096   4.262   9.794  0.5110 -0.1448  0.4892
52668SOL     OW62814   9.104   9.541  11.549  0.4812  0.1586  0.3800
52668SOL    HW162815   9.030   9.485  11.527  1.2983 -0.8107  0.0194
52668SOL    HW262816   9.174   9.481  11.574  1.4247  0.9976 -0.1264
52669SOL     OW62817   6.393   8.624   3.138 -0.4181 -0.1346  0.0533
52669SOL    HW162818   6.301   8.618   3.167 -0.4472 -1.3196 -0.2226
52669SOL    HW262819   6.441   8.569   3.200 -0.0978 -0.6214 -0.6189
52670SOL     OW62820   9.214   6.947   4.610 -0.2105  0.3601  0.2065
52670SOL    HW162821   9.143   6.947   4.675 -0.7800  1.8734 -0.3735
52670SOL    HW262822   9.254   7.033   4.618  1.1286 -0.2056  0.0072
52671SOL     OW62823   8.611   2.755   1.225 -0.0359 -0.8388 -0.5666
52671SOL    HW162824   8.594   2.768   1.132  0.7687  1.0853 -0.4982
52671SOL    HW262825   8.697   2.713   1.228  0.8559  0.8621 -0.7179
52672SOL     OW62826   5.910  11.853  11.125 -0.1783  0.0271 -0.5661
52672SOL    HW162827   5.859  11.874  11.047  0.2475 -1.5678 -1.2985
52672SOL    HW262828   5.947  11.767  11.108  1.4263  0.4334  0.6503
52673SOL     OW62829   0.036   7.962   7.725  0.3450  0.4795 -0.0615
52673SOL    HW162830  -0.042   7.918   7.760  0.8693 -0.6177 -0.2385
52673SOL    HW262831   0.093   7.891   7.696  1.9201  1.2059  1.1005
52674SOL     OW62832  10.461   7.214   5.569  0.0389  0.0789  0.1201
52674SOL    HW162833  10.375   7.193   5.534 -0.4414  1.0928  0.6521
52674SOL    HW262834  10.506   7.258   5.497  0.2507 -0.7673 -0.2728
52675SOL     OW62835   2.880   3.861   8.548  0.2481 -0.5061  0.3214
52675SOL    HW162836   2.861   3.900   8.634 -0.4337 -0.3788  0.1145
52675SOL    HW262837   2.800   3.872   8.498  0.8586  0.0022 -0.5599
52676SOL     OW62838   0.529   0.163   6.334 -0.3317 -0.1569 -0.1126
52676SOL    HW162839   0.520   0.198   6.423  1.4276  0.2362 -0.0383
52676SOL    HW262840   0.529   0.068   6.344 -2.7063 -0.1920 -0.0245
52677SOL     OW62841   9.846   7.961   9.061  0.8321  0.2242  0.9433
52677SOL    HW162842   9.918   8.018   9.033  0.7964  0.1910  0.7805
52677SOL    HW262843   9.792   8.016   9.118  0.6132  0.4583  0.5154
52678SOL     OW62844   2.062   6.937   1.258  0.0608 -0.6060  0.3415
52678SOL    HW162845   2.029   6.953   1.346 -1.4033  2.5307 -0.6290
52678SOL    HW262846   2.113   7.015   1.236 -2.9712  0.7584 -2.9245
52679SOL     OW62847  10.751   6.805  12.428 -0.3021 -0.7321 -0.3509
52679SOL    HW162848  10.673   6.753  12.448 -1.1211  1.0688  1.4213
52679SOL    HW262849  10.739   6.834  12.338 -1.0068 -1.5631 -0.5384
52680SOL     OW62850   8.749   1.589   8.985 -0.3541 -0.1123  0.1639
52680SOL    HW162851   8.671   1.561   9.031 -0.9626 -1.4163 -1.5500
52680SOL    HW262852   8.762   1.680   9.012 -2.5114  0.1665  0.4193
52681SOL     OW62853   1.749  12.537  11.969  0.0060  0.4289  0.0418
52681SOL    HW162854   1.715  12.551  12.057 -0.5256 -1.7020  0.2305
52681SOL    HW262855   1.840  12.512  11.981  0.0545  0.5677 -0.0382
52682SOL     OW62856   9.369  10.337  11.639 -0.1562  0.3780  0.5526
52682SOL    HW162857   9.367  10.369  11.729  1.2040  0.7650  0.4676
52682SOL    HW262858   9.462  10.329  11.618 -0.3308  2.4733 -1.5682
52683SOL     OW62859   1.575   9.126  10.059 -0.2280 -0.0683 -0.1477
52683SOL    HW162860   1.597   9.203  10.007  0.7288  0.1694  0.5875
52683SOL    HW262861   1.659   9.088  10.083 -0.6859 -1.1875 -0.2551
52684SOL     OW62862  10.708   3.122   3.036  0.7234  0.3137 -0.3471
52684SOL    HW162863  10.750   3.045   3.073  0.7091  0.9687  1.0941
52684SOL    HW262864  10.778   3.187   3.031  0.3597  0.7460  0.0887
52685SOL     OW62865   3.664   1.204   2.361 -0.1078  0.6541 -0.0723
52685SOL    HW162866   3.732   1.271   2.351 -0.2374  0.8651  0.4481
52685SOL    HW262867   3.688   1.157   2.441 -0.1224  0.1956 -0.3335
52686SOL     OW62868   3.521   9.334   1.234  0.0265 -0.2162 -0.2598
52686SOL    HW162869   3.475   9.415   1.255  0.9583  0.7870 -1.8704
52686SOL    HW262870   3.599   9.362   1.186  1.3269 -1.9679  0.7010
52687SOL     OW62871  10.876   0.788   6.890 -0.0769 -0.0327  0.6651
52687SOL    HW162872  10.867   0.741   6.972 -1.0099 -2.0358 -0.5282
52687SOL    HW262873  10.938   0.736   6.839 -2.0194 -0.7037 -1.1382
52688SOL     OW62874  11.469   1.714  11.632 -0.0422 -0.5268  0.0435
52688SOL    HW162875  11.491   1.635  11.583  0.7377  0.0519 -0.5635
52688SOL    HW262876  11.377   1.731  11.610 -0.2068 -1.2316  0.1525
52689SOL     OW62877   7.445   5.153   9.917 -0.3710 -0.2224 -0.5220
52689SOL    HW162878   7.415   5.225   9.973 -1.3859  0.8783 -2.3650
52689SOL    HW262879   7.370   5.094   9.911 -0.5707  0.0997 -1.3592
52690SOL     OW62880   4.020  12.534   4.296  0.0543  0.4136  0.3842
52690SOL    HW162881   4.114  12.521   4.284  0.3729  1.1599  1.8829
52690SOL    HW262882   3.999  12.609   4.240  0.5100  0.7421  0.6470
52691SOL     OW62883   5.310   1.314   8.514 -0.4027  0.0696  0.6956
52691SOL    HW162884   5.405   1.314   8.505 -0.4992  0.5764 -0.5764
52691SOL    HW262885   5.294   1.303   8.608  0.8673 -1.8817  0.7236
52692SOL     OW62886   0.069   0.849  12.145  0.1970 -0.8350 -0.1004
52692SOL    HW162887   0.116   0.857  12.228 -1.6756 -0.0924  0.9489
52692SOL    HW262888  -0.012   0.803  12.167  0.2007 -1.7479 -1.7765
52693SOL     OW62889   0.830   4.385   5.612 -0.1912  0.3290 -0.1517
52693SOL    HW162890   0.857   4.338   5.533 -1.7691 -0.2721 -0.3705
52693SOL    HW262891   0.736   4.399   5.601 -0.3359  0.7388  1.3695
52694SOL     OW62892   4.912   7.874  11.093  0.3248 -0.1602 -0.7856
52694SOL    HW162893   4.864   7.951  11.062 -0.9916 -0.4128  0.5109
52694SOL    HW262894   4.951   7.903  11.176  0.6856 -0.5769 -0.8109
52695SOL     OW62895   0.280  11.172   7.660  0.9453 -0.2989 -0.4375
52695SOL    HW162896   0.305  11.080   7.651 -0.5880 -1.1447  2.4446
52695SOL    HW262897   0.189  11.175   7.629 -0.0764 -0.5563  2.2533
52696SOL     OW62898   4.070   8.091   8.913  0.3310 -0.2918  1.0129
52696SOL    HW162899   4.096   8.104   9.004 -3.2679  0.4297  2.0819
52696SOL    HW262900   4.023   8.007   8.913 -1.7317  0.7945  0.4009
52697SOL     OW62901   4.375   9.708   5.384  0.4536  0.0167 -0.2163
52697SOL    HW162902   4.466   9.736   5.369  1.1692 -2.3309 -0.7507
52697SOL    HW262903   4.354   9.740   5.471  2.5471 -1.0726  0.7655
52698SOL     OW62904   4.489   7.937   5.628  0.7852  0.4972 -0.3425
52698SOL    HW162905   4.537   7.912   5.706  1.3369 -1.1423 -1.1494
52698SOL    HW262906   4.400   7.956   5.659  0.6243 -1.4702  0.5515
52699SOL     OW62907   5.946   9.023   3.532  0.0345  0.2457  0.1486
52699SOL    HW162908   6.036   9.020   3.498 -0.1665 -0.2981 -0.3535
52699SOL    HW262909   5.891   9.028   3.454 -0.3916  0.1750  0.4423
52700SOL     OW62910   9.520  10.088   2.765 -0.5319 -0.2682  0.6942
52700SOL    HW162911   9.503  10.003   2.807 -1.9241 -0.5993 -0.4479
52700SOL    HW262912   9.512  10.070   2.672 -1.1669  1.1856  0.4496
52701SOL     OW62913   7.697   3.630   6.673  0.1269  0.1953  0.7230
52701SOL    HW162914   7.705   3.538   6.650  0.2339  0.3303  0.2030
52701SOL    HW262915   7.750   3.640   6.752  1.2171  0.0794  0.0347
52702SOL     OW62916   9.998   0.216   5.417 -0.1814 -0.5369 -0.0927
52702SOL    HW162917   9.999   0.141   5.358 -1.2719 -0.9148  0.3320
52702SOL    HW262918  10.078   0.264   5.397 -0.5730 -0.5851 -1.9677
52703SOL     OW62919  12.488   0.379  11.457 -0.1417  0.1662 -0.3350
52703SOL    HW162920  12.460   0.470  11.453 -1.2959 -0.2114 -2.1388
52703SOL    HW262921  12.469   0.351  11.546  0.5481  1.7538  0.3439
52704SOL     OW62922  11.871  10.049   6.443  0.8869  0.1950  0.0773
52704SOL    HW162923  11.888  10.006   6.528  1.1752 -0.6591 -0.4010
52704SOL    HW262924  11.775  10.053   6.437  0.7718 -2.2937 -0.7722
52705SOL     OW62925  12.002   9.293   5.308 -0.4769  0.4072 -0.2965
52705SOL    HW162926  11.987   9.362   5.373 -0.3415  0.5135 -0.3784
52705SOL    HW262927  11.979   9.212   5.354  2.8717  0.0674  1.0847
52706SOL     OW62928   5.730   7.411   7.873 -0.2870  0.0960  0.0372
52706SOL    HW162929   5.708   7.330   7.828 -0.3737  1.9721 -3.7192
52706SOL    HW262930   5.826   7.411   7.879 -0.2023  0.1545 -1.0410
52707SOL     OW62931   7.282  10.126   7.378 -0.7783 -0.4537  0.3190
52707SOL    HW162932   7.290  10.218   7.353 -1.5158 -0.6536 -0.6998
52707SOL    HW262933   7.216  10.125   7.447  0.2485 -0.0702  1.3513
52708SOL     OW62934   2.683   2.188  10.294 -0.0594  0.2882 -0.6278
52708SOL    HW162935   2.663   2.281  10.308 -0.5822  0.0186  0.4821
52708SOL    HW262936   2.730   2.161  10.372 -0.0409 -0.4244 -0.8763
52709SOL     OW62937   5.352   3.183   7.576  0.3310  0.0439  0.2746
52709SOL    HW162938   5.393   3.176   7.662 -0.8181 -0.5424  0.7906
52709SOL    HW262939   5.343   3.092   7.547 -0.8996  0.1417  0.3229
52710SOL     OW62940  11.301   1.867   8.262 -0.0585 -0.1727  0.8403
52710SOL    HW162941  11.337   1.929   8.198 -0.5148 -1.2419 -0.4662
52710SOL    HW262942  11.333   1.782   8.234 -1.9313 -0.9051  0.8482
52711SOL     OW62943   6.346  11.598  11.704 -0.1628  0.0266  0.1123
52711SOL    HW162944   6.347  11.694  11.699  1.3497  0.1051  1.1609
52711SOL    HW262945   6.261  11.577  11.741 -0.5914  0.9430 -0.3100
52712SOL     OW62946   0.920  10.872   6.054  0.0205  0.1802 -0.1156
52712SOL    HW162947   0.825  10.876   6.053  0.0150  1.2664  1.0925
52712SOL    HW262948   0.942  10.787   6.016 -1.5374 -1.2277  1.9255
52713SOL     OW62949  10.136   2.367   8.864 -0.4470  0.8852  0.1690
52713SOL    HW162950  10.076   2.345   8.935 -0.3500 -2.2209 -0.5497
52713SOL    HW262951  10.194   2.433   8.901 -0.9840  0.0741  2.6731
52714SOL     OW62952   3.690   7.174  10.561 -0.5935 -0.0689 -0.2086
52714SOL    HW162953   3.752   7.128  10.503 -0.7454 -1.1419  0.4455
52714SOL    HW262954   3.604   7.146  10.530 -0.7155  0.4000 -0.2971
52715SOL     OW62955  10.598   2.233   0.527  0.6847 -0.0360  0.0429
52715SOL    HW162956  10.558   2.251   0.442  1.4179 -1.0514 -0.5402
52715SOL    HW262957  10.575   2.142   0.546  3.2209 -0.9157 -0.6654
52716SOL     OW62958  11.576  10.431  10.748 -0.0346  0.3388  0.1788
52716SOL    HW162959  11.503  10.490  10.729 -0.0190  1.0144  1.9879
52716SOL    HW262960  11.633  10.481  10.806  0.3322 -1.2057  1.2279
52717SOL     OW62961   1.101   9.193  12.449  0.3508 -0.2353  0.1952
52717SOL    HW162962   1.174   9.224  12.396  0.3206  2.4264  1.5486
52717SOL    HW262963   1.034   9.169  12.385  1.1147  0.6880 -1.0101
52718SOL     OW62964   5.936   5.824  12.467 -0.2841 -0.0924 -0.0509
52718SOL    HW162965   5.871   5.891  12.448 -0.4538  0.0918  1.0609
52718SOL    HW262966   5.887   5.742  12.464  0.0494 -0.2519 -1.9993
52719SOL     OW62967  12.546   3.236   7.693 -0.1883 -0.3554  0.2600
52719SOL    HW162968  12.614   3.172   7.672  0.7049  0.0152  1.8408
52719SOL    HW262969  12.465   3.186   7.697  0.6313 -1.6414  2.4797
52720SOL     OW62970   2.346   7.952   7.670 -0.0441 -0.0496 -0.4337
52720SOL    HW162971   2.428   7.921   7.708 -0.1799 -0.1184 -0.1953
52720SOL    HW262972   2.367   7.970   7.578  1.3092  3.6734  0.4351
52721SOL     OW62973   3.494   9.017   3.343 -0.5784 -0.3901 -0.3649
52721SOL    HW162974   3.415   9.070   3.342 -0.6633 -0.5087  0.0000
52721SOL    HW262975   3.465   8.931   3.375 -0.1583 -0.1979  0.5538
52722SOL     OW62976   1.823  10.991  11.600  0.3880 -0.0032 -0.1931
52722SOL    HW162977   1.732  11.019  11.589  0.4377  0.2451  0.0359
52722SOL    HW262978   1.820  10.930  11.673  0.3260 -0.3818 -0.5076
52723SOL     OW62979   6.356   1.100  10.742  0.1877  0.1815  0.4226
52723SOL    HW162980   6.388   1.181  10.702 -0.1339  0.1801  0.1591
52723SOL    HW262981   6.268   1.088  10.706  0.6036 -0.7998 -0.3235
52724SOL     OW62982   6.045   3.456   2.849  0.0860 -0.1363 -0.2962
52724SOL    HW162983   6.055   3.461   2.944  1.5608  0.3217 -0.4452
52724SOL    HW262984   6.003   3.372   2.833 -3.2656  1.1283  0.9407
52725SOL     OW62985   4.235  11.606   9.322  0.1304  0.7064 -0.0743
52725SOL    HW162986   4.307  11.596   9.259  1.5508 -1.1293  1.7317
52725SOL    HW262987   4.179  11.530   9.306  1.4404 -0.7820  1.9199
52726SOL     OW62988   7.281   1.560   7.478  0.0678 -0.1095  0.3239
52726SOL    HW162989   7.292   1.497   7.549 -4.0327  0.2211  1.4680
52726SOL    HW262990   7.290   1.646   7.520  0.1001  0.0899 -0.0824
52727SOL     OW62991   9.117   9.764   3.710 -0.3413 -0.1356 -0.0509
52727SOL    HW162992   9.092   9.765   3.802  1.6779 -0.8984  0.5683
52727SOL    HW262993   9.104   9.854   3.681 -0.2581  0.3046  1.2102
52728SOL     OW62994   0.410  11.698   2.751 -0.4701 -0.1789  0.0935
52728SOL    HW162995   0.355  11.620   2.740 -1.3202  0.5376 -0.8975
52728SOL    HW262996   0.354  11.771   2.726  0.8851  0.5964 -0.8503
52729SOL     OW62997  12.632   5.286   7.024 -0.5547 -0.3091  0.4133
52729SOL    HW162998  12.610   5.362   6.970 -0.0697  0.6065  1.4393
52729SOL    HW262999  12.672   5.224   6.964  0.0935  0.7303 -0.2638
52730SOL     OW63000   8.583  11.232   2.515  0.0554  0.4122  0.2073
52730SOL    HW163001   8.598  11.323   2.489  0.0177  0.2008 -0.5809
52730SOL    HW263002   8.498  11.209   2.478  0.4199 -0.1838 -0.2939
52731SOL     OW63003   6.906   8.951  11.744 -0.1216  0.5907  0.0573
52731SOL    HW163004   6.821   8.954  11.787  0.4874  1.2034  1.2386
52731SOL    HW263005   6.964   9.003  11.799  1.0816  0.0139 -0.6150
52732SOL     OW63006   9.810   9.051  10.195  0.5109 -0.2184 -0.4481
52732SOL    HW163007   9.815   9.000  10.275  0.7567  1.4909  0.6847
52732SOL    HW263008   9.733   9.106  10.207  0.5626  0.0710 -1.3793
52733SOL     OW63009   8.320   0.458   9.003 -0.2025 -0.3168 -0.0409
52733SOL    HW163010   8.291   0.405   9.077  1.0747 -0.2997  0.4930
52733SOL    HW263011   8.414   0.446   9.000 -0.0480  0.8694 -0.7360
52734SOL     OW63012  10.808   1.885   4.454 -0.1041 -0.0450 -0.1450
52734SOL    HW163013  10.843   1.916   4.371  0.6762 -1.4596 -0.3745
52734SOL    HW263014  10.868   1.816   4.482  0.2369  1.0562  2.1095
52735SOL     OW63015   0.873   8.422   4.910 -0.7468  0.2001 -0.1251
52735SOL    HW163016   0.877   8.342   4.857 -0.4064  1.3272 -1.8545
52735SOL    HW263017   0.780   8.445   4.911 -0.9990 -0.7588  1.2711
52736SOL     OW63018   6.902   9.937  10.466  0.2171  0.1597 -0.3049
52736SOL    HW163019   6.866  10.017  10.503 -0.7701  0.1741 -1.2400
52736SOL    HW263020   6.991   9.961  10.439  0.3801  0.5753  0.5598
52737SOL     OW63021  12.318   4.159  12.296  0.1447  0.1005 -0.3584
52737SOL    HW163022  12.258   4.084  12.293  1.2611 -0.7791 -1.2223
52737SOL    HW263023  12.269   4.226  12.344 -0.2709 -1.7057  1.9223
52738SOL     OW63024   6.854  10.020  11.704 -0.0169 -0.3943  0.0627
52738SOL    HW163025   6.823   9.982  11.621  0.2185 -2.3876  0.8154
52738SOL    HW263026   6.947   9.996  11.707  0.2186  0.5398  0.4571
52739SOL     OW63027   9.434   3.429  12.025 -0.0574  0.0060  0.7276
52739SOL    HW163028   9.414   3.521  12.006 -1.1222 -0.3237  0.2287
52739SOL    HW263029   9.494   3.434  12.100 -0.4367  1.0964  0.9872
52740SOL     OW63030  11.126   9.441  10.083  0.2132 -0.0258 -0.3206
52740SOL    HW163031  11.139   9.533  10.059 -0.0543 -0.0104 -0.4129
52740SOL    HW263032  11.169   9.432  10.168 -0.5534  0.4158  0.1226
52741SOL     OW63033   4.505   5.901   4.370  0.9482  0.0633  0.5975
52741SOL    HW163034   4.418   5.873   4.398  0.8274  1.7384  2.1079
52741SOL    HW263035   4.546   5.822   4.334 -1.1329 -0.7876 -0.0570
52742SOL     OW63036   9.629  12.354   7.266  0.3909 -0.0099 -0.0398
52742SOL    HW163037   9.571  12.430   7.256  0.3316 -0.2344 -1.7042
52742SOL    HW263038   9.583  12.283   7.221  1.4357 -0.4902 -0.3843
52743SOL     OW63039  10.453   8.942   2.939 -0.0331  0.3013  0.3029
52743SOL    HW163040  10.364   8.927   2.908 -0.1377  2.6808 -0.8116
52743SOL    HW263041  10.506   8.944   2.860  1.2835 -2.2018  1.0229
52744SOL     OW63042  10.409   1.687  10.438 -0.2729 -0.7639  0.3065
52744SOL    HW163043  10.426   1.667  10.346 -1.9048  1.0187 -0.4490
52744SOL    HW263044  10.473   1.634  10.486  2.4667  0.2411 -1.9544
52745SOL     OW63045   9.870   6.929   5.429  0.5196 -0.3708  0.1918
52745SOL    HW163046   9.893   6.846   5.388  1.1072  0.4317 -1.2031
52745SOL    HW263047   9.938   6.943   5.495  1.4599 -0.1885 -0.7799
52746SOL     OW63048   1.844   5.607   2.052  0.1763 -0.2824 -0.0493
52746SOL    HW163049   1.912   5.619   2.118 -0.8395 -0.7916  1.1025
52746SOL    HW263050   1.821   5.696   2.024 -0.0317 -0.0223  0.9421
52747SOL     OW63051  12.303   1.577   6.448 -0.0788  0.4041  0.5831
52747SOL    HW163052  12.394   1.601   6.462 -0.1415  1.2651 -0.3368
52747SOL    HW263053  12.256   1.618   6.522  0.2043  0.4616  0.7328
52748SOL     OW63054  11.671   0.149  12.018  0.1803 -0.1462 -0.4110
52748SOL    HW163055  11.756   0.191  12.025  0.5783 -0.7943 -1.2534
52748SOL    HW263056  11.621   0.205  11.958  0.2087 -0.0868 -0.3787
52749SOL     OW63057   1.225  12.284   4.377  0.2384  0.1876 -0.1731
52749SOL    HW163058   1.144  12.305   4.423  0.4469  0.0153  0.2782
52749SOL    HW263059   1.291  12.338   4.421  0.4561 -0.0565 -0.2015
52750SOL     OW63060   2.789  12.645   0.803  0.2983  0.2706 -0.5139
52750SOL    HW163061   2.726  12.585   0.762  1.7456 -0.4331 -1.7920
52750SOL    HW263062   2.734  12.710   0.847 -1.3436 -1.6395  0.4443
52751SOL     OW63063   7.713   3.689  11.226 -0.0570  0.5541 -0.1188
52751SOL    HW163064   7.679   3.769  11.267 -1.6201 -0.4463  0.6515
52751SOL    HW263065   7.767   3.720  11.153 -0.9230  2.2957 -0.0688
52752SOL     OW63066   8.972   9.605   2.885 -0.9295 -0.7031 -0.3327
52752SOL    HW163067   9.028   9.545   2.835  0.1738 -0.3029  0.3866
52752SOL    HW263068   8.963   9.564   2.971 -0.8646 -0.2467 -0.1066
52753SOL     OW63069   5.919   5.652   7.127  0.1854 -0.6514  0.0933
52753SOL    HW163070   5.909   5.560   7.151  3.2481 -0.9213  0.7229
52753SOL    HW263071   6.004   5.657   7.084 -0.6738  1.6409 -1.5518
52754SOL     OW63072   6.390   4.132  11.491 -0.7210 -0.1039  0.1810
52754SOL    HW163073   6.399   4.081  11.572 -0.6393  0.4842  0.5474
52754SOL    HW263074   6.350   4.214  11.519 -4.2096 -1.2567 -0.8702
52755SOL     OW63075   8.038   2.164   7.203 -0.5372  0.1160  0.1683
52755SOL    HW163076   8.098   2.196   7.135 -0.3303 -1.2787 -0.3203
52755SOL    HW263077   8.088   2.173   7.285 -0.4035  0.8001  0.0242
52756SOL     OW63078  11.284   6.578   9.462  0.1656 -0.0081  0.4678
52756SOL    HW163079  11.244   6.496   9.431 -1.8030  0.7852  0.7391
52756SOL    HW263080  11.276   6.574   9.557 -0.0012  0.5184  0.4779
52757SOL     OW63081   3.235   4.093  11.337 -0.2013  0.3642 -0.2187
52757SOL    HW163082   3.272   4.078  11.424 -1.9350  1.7475  0.8125
52757SOL    HW263083   3.287   4.037  11.279  3.1445  1.7789  1.1757
52758SOL     OW63084   8.422   6.889   8.377  0.7191 -0.3239  0.0134
52758SOL    HW163085   8.337   6.851   8.352  1.3901 -1.7034 -0.2675
52758SOL    HW263086   8.448   6.839   8.455  2.1192 -1.2217 -0.9758
52759SOL     OW63087   6.862   4.785   3.675 -0.1496  0.5640 -0.2615
52759SOL    HW163088   6.806   4.733   3.733  0.9372 -1.7652 -1.1421
52759SOL    HW263089   6.938   4.807   3.728 -0.0182  0.0568 -0.2275
52760SOL     OW63090   6.315   6.451   0.376 -0.4888  0.2169  0.8001
52760SOL    HW163091   6.292   6.403   0.296 -2.0482  0.7146  0.9350
52760SOL    HW263092   6.248   6.427   0.439 -0.6635  1.7102  1.2190
52761SOL     OW63093   6.300   7.273   3.330 -0.7766  0.4922 -0.3218
52761SOL    HW163094   6.296   7.365   3.357 -0.8155  0.6802 -0.9458
52761SOL    HW263095   6.212   7.240   3.347 -0.0537 -0.2066  2.5014
52762SOL     OW63096   2.019   2.071   9.759  0.8655  0.3357  0.0640
52762SOL    HW163097   2.104   2.042   9.792  0.8638  1.7325  1.4707
52762SOL    HW263098   2.029   2.166   9.749 -0.4587  0.4893  0.0413
52763SOL     OW63099   8.542   0.155  12.404  0.3290 -0.0879  0.1465
52763SOL    HW163100   8.566   0.158  12.311  1.0992 -0.0186  0.3406
52763SOL    HW263101   8.618   0.192  12.449  0.5001 -1.3213  0.8988
52764SOL     OW63102   2.855   9.305   8.952  0.0757  0.4450 -0.3877
52764SOL    HW163103   2.788   9.290   8.885 -0.2467 -0.1807  0.0625
52764SOL    HW263104   2.888   9.393   8.934  1.6829 -0.5272 -2.8524
52765SOL     OW63105   8.850   6.112  11.932  0.6505  0.0477  0.0721
52765SOL    HW163106   8.893   6.140  12.013  1.3294  0.4318 -0.4087
52765SOL    HW263107   8.771   6.068  11.961 -0.4533  2.3802  0.9039
52766SOL     OW63108  12.280   8.983  11.100  0.8103  0.6699  0.0160
52766SOL    HW163109  12.298   8.917  11.033 -0.9469 -1.4778  1.5105
52766SOL    HW263110  12.259   9.063  11.051  1.4981 -0.2829 -1.9092
52767SOL     OW63111  11.465   6.816   8.243  0.2469  0.0885  0.6092
52767SOL    HW163112  11.560   6.829   8.245  0.2355  0.1858  0.5616
52767SOL    HW263113  11.434   6.881   8.180 -0.0679  1.4170  2.0638
52768SOL     OW63114   5.816   1.925   4.480 -0.1746  0.3996 -0.2520
52768SOL    HW163115   5.731   1.968   4.478  0.2670  1.2727 -1.0700
52768SOL    HW263116   5.878   1.995   4.499  0.4263 -0.0985 -0.3449
52769SOL     OW63117   0.024   6.725   5.562  0.5362  0.2725 -0.6695
52769SOL    HW163118   0.085   6.796   5.580 -0.4181  0.8390  0.4216
52769SOL    HW263119   0.070   6.669   5.499  2.2345  0.5968  0.2385
52770SOL     OW63120   4.085   9.204  10.568  0.0809  0.2299 -0.0542
52770SOL    HW163121   4.162   9.248  10.533 -0.1216  0.4411 -0.2443
52770SOL    HW263122   4.118   9.123  10.606  0.0866 -1.0568 -2.5793
52771SOL     OW63123   4.842   6.483   3.559 -0.2565  0.4070 -0.0548
52771SOL    HW163124   4.862   6.394   3.531 -0.8871  0.4634 -0.7314
52771SOL    HW263125   4.904   6.538   3.512  0.7872  0.2717  1.1071
52772SOL     OW63126   9.605   3.036   8.966 -0.3704  0.4659 -0.1049
52772SOL    HW163127   9.691   3.018   8.929 -0.0158  0.5515  0.6554
52772SOL    HW263128   9.603   3.131   8.979 -0.1207  0.3415  0.9508
52773SOL     OW63129   6.930   1.318   5.571 -0.0381  0.5922  0.8322
52773SOL    HW163130   6.931   1.314   5.476 -0.7946  0.3522  0.8211
52773SOL    HW263131   6.987   1.391   5.593  0.1069  0.6778  0.1912
52774SOL     OW63132   8.456   0.266  10.851  0.2858  0.3504 -0.7001
52774SOL    HW163133   8.495   0.285  10.936  0.6100  0.2509 -0.8251
52774SOL    HW263134   8.403   0.188  10.866 -0.8626  1.1885 -0.2386
52775SOL     OW63135  11.621   4.994   2.469 -0.3641 -0.2973  0.2631
52775SOL    HW163136  11.563   5.036   2.406  1.9830  0.1374 -1.7484
52775SOL    HW263137  11.583   4.908   2.483 -2.5124  0.6445  0.5462
52776SOL     OW63138   7.213   7.963   3.053  0.3839 -0.0455 -0.0247
52776SOL    HW163139   7.217   8.053   3.019 -0.1877 -0.6951 -1.9733
52776SOL    HW263140   7.126   7.957   3.093 -0.3957 -0.2637 -1.6667
52777SOL     OW63141   7.090   9.255   1.315  0.0226  0.6026 -0.0117
52777SOL    HW163142   7.005   9.212   1.307 -0.1342  0.9094 -0.0495
52777SOL    HW263143   7.091   9.289   1.405  0.3244  0.1537  0.1598
52778SOL     OW63144   0.992   0.888   7.429 -0.7796  0.1078  0.2357
52778SOL    HW163145   1.044   0.923   7.501  0.2316 -0.0793 -0.3919
52778SOL    HW263146   0.981   0.795   7.450  0.6839 -0.2680 -0.4917
52779SOL     OW63147   2.933   3.716   6.394  0.1077  0.1214 -0.0218
52779SOL    HW163148   2.989   3.699   6.470  0.4906  1.0208 -0.0877
52779SOL    HW263149   2.921   3.811   6.394 -0.4324  0.0614 -0.7089
52780SOL     OW63150   6.820  10.128  12.491 -0.0264 -0.2606 -0.7883
52780SOL    HW163151   6.782  10.130  12.579  2.9815  1.2674  0.6194
52780SOL    HW263152   6.776  10.200  12.445 -0.8552 -0.3750 -0.2024
52781SOL     OW63153   3.159   6.337   4.644 -0.4139 -0.0855 -0.1483
52781SOL    HW163154   3.249   6.307   4.630  0.1946  1.3827  0.4184
52781SOL    HW263155   3.104   6.266   4.608  0.9327 -1.4723  0.4026
52782SOL     OW63156   8.267  10.839   3.204 -0.0258  0.0472  0.4121
52782SOL    HW163157   8.278  10.777   3.132 -3.2497 -2.2581  1.6969
52782SOL    HW263158   8.315  10.799   3.277 -1.3019 -0.5089  0.9751
52783SOL     OW63159   2.295   3.633  11.630  0.3983  0.1538 -0.6701
52783SOL    HW163160   2.251   3.670  11.707  1.1504  1.2011 -0.7153
52783SOL    HW263161   2.256   3.680  11.556 -0.5873 -1.1124 -0.9859
52784SOL     OW63162  10.336   8.541   9.559 -0.4054  0.3863  0.5940
52784SOL    HW163163  10.357   8.520   9.468 -0.8993 -1.4037  0.8494
52784SOL    HW263164  10.297   8.628   9.556 -0.6833  0.2342 -0.9432
52785SOL     OW63165   8.667   6.693  12.608  0.0532  0.2797 -0.0313
52785SOL    HW163166   8.725   6.684  12.533 -0.7787  1.0983 -0.7980
52785SOL    HW263167   8.609   6.617  12.602 -0.1631  0.4651 -0.3725
52786SOL     OW63168   9.373   7.021   7.868 -0.3756 -0.5512 -0.1452
52786SOL    HW163169   9.418   6.960   7.926  0.5220 -0.0576 -0.3033
52786SOL    HW263170   9.306   6.968   7.824 -0.8288 -1.0056  1.0608
52787SOL     OW63171   6.058   6.230   9.122 -0.2448  0.3160  0.3378
52787SOL    HW163172   5.971   6.190   9.118 -0.2022  0.2912 -2.6148
52787SOL    HW263173   6.082   6.245   9.030  3.3794 -0.7276  0.9416
52788SOL     OW63174   6.322   6.814   9.594  0.0608 -0.5972  0.0924
52788SOL    HW163175   6.231   6.786   9.600 -0.0187 -0.1355  1.7067
52788SOL    HW263176   6.361   6.786   9.677  1.3366 -0.6154 -0.4946
52789SOL     OW63177   7.499   1.625   8.135  0.0295 -0.2374 -0.0453
52789SOL    HW163178   7.512   1.578   8.052  0.3818  0.7662 -0.5787
52789SOL    HW263179   7.588   1.649   8.162  0.0531 -1.7446  1.3691
52790SOL     OW63180   1.259  12.394   4.915  0.2745  0.0888  0.5965
52790SOL    HW163181   1.293  12.483   4.914  0.2205  0.1233  1.4282
52790SOL    HW263182   1.327  12.342   4.872  0.9090  0.3285  1.2841
52791SOL     OW63183   6.655   7.049  11.939  0.6173 -0.3325  0.0430
52791SOL    HW163184   6.616   6.996  11.869  2.3734  0.3577 -1.5585
52791SOL    HW263185   6.664   6.989  12.013 -0.7932 -1.2394 -0.4881
52792SOL     OW63186   7.647   5.462   2.519  0.1437 -0.8516 -0.3864
52792SOL    HW163187   7.718   5.507   2.564  0.8153 -1.0348 -1.2370
52792SOL    HW263188   7.567   5.499   2.557  0.6868  0.3203 -0.3488
52793SOL     OW63189   3.664   1.481   8.699 -0.1877  0.3615 -0.3311
52793SOL    HW163190   3.646   1.404   8.753 -0.3012  1.4671  1.2812
52793SOL    HW263191   3.659   1.449   8.609  1.9611 -2.0134  0.2789
52794SOL     OW63192   7.178   5.479   1.377 -0.4536 -0.2451  0.3599
52794SOL    HW163193   7.113   5.410   1.386 -1.1483  0.5499  1.6863
52794SOL    HW263194   7.226   5.479   1.460  0.7610 -0.3138 -0.3093
52795SOL     OW63195   3.524   7.124   5.456  0.9528 -0.4826 -0.3838
52795SOL    HW163196   3.524   7.159   5.545  0.1897 -1.0540 -0.1494
52795SOL    HW263197   3.610   7.146   5.421  0.7129  1.1109 -0.0448
52796SOL     OW63198   6.568   6.736   7.220 -0.0867 -0.5963 -0.1056
52796SOL    HW163199   6.638   6.788   7.180 -0.0345  0.7087  1.5319
52796SOL    HW263200   6.529   6.688   7.148 -0.0912  1.6887 -1.7479
52797SOL     OW63201   9.382   7.920   8.753  0.1179 -0.2689 -0.0219
52797SOL    HW163202   9.304   7.870   8.777  1.1207 -0.7867  2.5023
52797SOL    HW263203   9.357   8.011   8.770 -0.1267 -0.3812  0.2390
52798SOL     OW63204  12.387   6.919  11.714 -0.2752  0.0267  0.1577
52798SOL    HW163205  12.420   6.887  11.629 -0.4842  0.5637 -0.1292
52798SOL    HW263206  12.328   6.851  11.744  0.7874 -0.7839  0.4977
52799SOL     OW63207   9.136  12.014   2.417  0.2785  0.0317  0.0441
52799SOL    HW163208   9.150  12.108   2.429  0.9336 -0.2191  1.5110
52799SOL    HW263209   9.182  11.973   2.491  0.4465 -1.4768 -0.8432
52800SOL     OW63210   7.433   9.118   8.547 -0.2499  0.1375  0.4443
52800SOL    HW163211   7.526   9.107   8.528 -0.0728  0.4256  1.1079
52800SOL    HW263212   7.420   9.074   8.631 -1.2099 -1.9394 -0.7258
52801SOL     OW63213   0.632   8.472   9.873 -0.3976  0.4325  0.5364
52801SOL    HW163214   0.570   8.412   9.915  1.6848  0.2367  3.6357
52801SOL    HW263215   0.610   8.558   9.909  0.9378  0.3889  1.5267
52802SOL     OW63216   2.851   6.679   4.971  0.3138  0.0571  0.5955
52802SOL    HW163217   2.903   6.733   4.911 -1.5321 -0.1331 -1.3011
52802SOL    HW263218   2.867   6.717   5.058  4.3709 -0.6509  0.3459
52803SOL     OW63219   0.666   6.866  11.739  0.0012 -0.2440 -0.2595
52803SOL    HW163220   0.699   6.876  11.828 -0.8107  0.3874 -0.0306
52803SOL    HW263221   0.712   6.933  11.688 -1.7798  1.4627  0.2999
52804SOL     OW63222  10.199   1.628   5.263 -0.1395  0.1353  0.5178
52804SOL    HW163223  10.167   1.543   5.294  0.9041 -0.1351  0.8850
52804SOL    HW263224  10.267   1.607   5.199 -0.7966  0.7045 -0.3981
52805SOL     OW63225   9.187   8.199   4.453  0.3191 -0.6560 -0.0550
52805SOL    HW163226   9.108   8.234   4.493  0.0863 -0.9841 -0.2262
52805SOL    HW263227   9.249   8.271   4.456 -0.1559 -0.2286 -0.4036
52806SOL     OW63228  11.218   2.131   5.131  0.5498 -0.0708  0.5376
52806SOL    HW163229  11.300   2.156   5.173  1.6300 -2.9655  0.3912
52806SOL    HW263230  11.221   2.035   5.127 -2.0660 -0.1990 -1.0581
52807SOL     OW63231  12.626   8.300   0.984  0.2058 -0.6824  0.3194
52807SOL    HW163232  12.548   8.350   0.958  0.9706 -0.4098 -1.5826
52807SOL    HW263233  12.699   8.358   0.963  1.0317 -1.8885 -0.2311
52808SOL     OW63234   3.548  11.814   8.061  0.2383  0.0977  0.3339
52808SOL    HW163235   3.616  11.807   8.127 -0.2701 -0.3552  0.8206
52808SOL    HW263236   3.472  11.768   8.099 -0.0112 -0.3158 -0.6223
52809SOL     OW63237   7.176  12.433   4.949  0.0070  0.2153  0.3497
52809SOL    HW163238   7.262  12.436   4.907  0.1715 -1.8413  0.4389
52809SOL    HW263239   7.114  12.422   4.877 -0.0769  0.4774  0.3790
52810SOL     OW63240   8.335   9.949   1.181 -0.2378  0.6092  0.0149
52810SOL    HW163241   8.392   9.959   1.105  1.0959 -1.6565  0.6320
52810SOL    HW263242   8.380   9.995   1.252  0.2970 -0.2228  0.2302
52811SOL     OW63243  10.886   6.748   9.977  0.0473  0.3450 -0.0616
52811SOL    HW163244  10.817   6.684   9.957 -1.6885  1.4091  2.1503
52811SOL    HW263245  10.928   6.765   9.892 -1.4301 -1.4312 -1.2269
52812SOL     OW63246   7.628  10.452   9.074  0.0629 -0.2603 -0.2305
52812SOL    HW163247   7.691  10.393   9.114  1.3194  1.8042  1.0602
52812SOL    HW263248   7.638  10.534   9.122 -2.0085  0.8556 -1.5166
52813SOL     OW63249   3.493   5.759   6.547 -0.1002  0.3358  0.2071
52813SOL    HW163250   3.552   5.712   6.487  0.0190  0.1222  0.4922
52813SOL    HW263251   3.517   5.728   6.634 -0.8057  0.0558  0.3097
52814SOL     OW63252   3.470  10.083   1.342 -0.2291 -0.6258 -0.5508
52814SOL    HW163253   3.558  10.062   1.373 -0.9709 -0.4865  1.8567
52814SOL    HW263254   3.442  10.156   1.396 -2.1022 -1.1598 -0.7316
52815SOL     OW63255   5.507   0.539   3.843 -0.2109  0.1972  0.7434
52815SOL    HW163256   5.599   0.562   3.859  0.1282 -0.8388  0.3638
52815SOL    HW263257   5.479   0.600   3.775  0.5818 -0.2744 -0.0314
52816SOL     OW63258   0.716   4.840   6.341 -0.1632 -0.8015 -0.3011
52816SOL    HW163259   0.786   4.778   6.320  0.2816 -0.5058  0.2723
52816SOL    HW263260   0.710   4.837   6.437 -0.7623 -0.6310 -0.3304
52817SOL     OW63261   2.604   5.421  10.262  0.3864 -0.4804  0.3492
52817SOL    HW163262   2.664   5.482  10.305 -1.9275  2.4623 -0.2813
52817SOL    HW263263   2.558   5.379  10.334  0.3659  0.2893  0.7983
52818SOL     OW63264   3.428  10.485   7.997 -0.1649 -0.4309 -0.4876
52818SOL    HW163265   3.495  10.549   7.974  0.9851 -1.3800  0.0998
52818SOL    HW263266   3.364  10.534   8.048  1.4156  0.0081  1.1903
52819SOL     OW63267  11.837   8.474  10.179 -0.5142 -0.0908  0.2580
52819SOL    HW163268  11.780   8.431  10.115 -0.5380 -0.3706  0.4673
52819SOL    HW263269  11.788   8.551  10.207 -0.2792  0.3373 -0.4630
52820SOL     OW63270   3.187  12.351  11.821  0.4829 -0.2023 -0.3051
52820SOL    HW163271   3.243  12.328  11.895  1.3727  1.9245 -0.2479
52820SOL    HW263272   3.150  12.436  11.845  2.0166  1.3206 -2.8928
52821SOL     OW63273   2.488   2.377  12.265 -0.7910  0.1086 -0.0171
52821SOL    HW163274   2.424   2.409  12.329 -0.6158  2.4463 -0.9069
52821SOL    HW263275   2.471   2.283  12.258 -2.1353  0.1587  1.9501
52822SOL     OW63276   6.993   0.334   6.012  0.3512 -0.0317 -0.7172
52822SOL    HW163277   7.040   0.358   5.931  1.2401 -0.4514 -0.3422
52822SOL    HW263278   7.061   0.337   6.080 -0.1271 -0.8615 -0.1913
52823SOL     OW63279   9.937   3.309   2.962  0.1351  0.0534 -0.5303
52823SOL    HW163280   9.945   3.250   3.036  2.2873 -1.5409 -1.9078
52823SOL    HW263281   9.868   3.272   2.908 -1.2085  1.0354  0.4570
52824SOL     OW63282   5.367  11.209  10.273  0.3576  0.1448  0.1635
52824SOL    HW163283   5.453  11.178  10.246 -0.1586 -0.3495 -1.0119
52824SOL    HW263284   5.351  11.165  10.356  0.5965 -1.0178 -0.3742
52825SOL     OW63285   1.343   9.769   2.434  0.5480 -0.2700 -0.7528
52825SOL    HW163286   1.307   9.736   2.351  0.0608  0.2012 -0.7398
52825SOL    HW263287   1.426   9.809   2.410  0.5994 -0.4957 -0.9512
52826SOL     OW63288   6.319  12.239   2.446  0.1879  0.2740 -0.4702
52826SOL    HW163289   6.377  12.287   2.387 -1.2308 -0.4512 -2.5919
52826SOL    HW263290   6.375  12.213   2.519  2.4370 -0.0257 -2.1810
52827SOL     OW63291   8.465   9.235  10.785  0.0021 -0.2152  0.1381
52827SOL    HW163292   8.496   9.163  10.731  0.5768 -0.9054  1.3485
52827SOL    HW263293   8.509   9.223  10.869 -1.9200 -0.0132  1.2428
52828SOL     OW63294   1.764   1.076   3.805 -0.2708 -0.0056  0.0539
52828SOL    HW163295   1.675   1.058   3.836 -0.0809 -0.7410  0.1851
52828SOL    HW263296   1.803   1.129   3.875  0.4325 -2.3493  1.5343
52829SOL     OW63297   2.196   4.192   3.860 -0.0309  0.3991 -0.5577
52829SOL    HW163298   2.278   4.239   3.873  0.9237 -1.3067 -0.1014
52829SOL    HW263299   2.174   4.207   3.768  1.0331  0.5114 -0.8085
52830SOL     OW63300  11.260   7.884   5.701 -0.4556  0.0492 -0.0277
52830SOL    HW163301  11.281   7.796   5.731  2.0237  0.5120 -0.1858
52830SOL    HW263302  11.314   7.897   5.623 -1.6441  1.3164 -0.6942
52831SOL     OW63303   2.697  10.708   1.660 -0.0424 -0.5152 -0.4355
52831SOL    HW163304   2.725  10.654   1.587 -0.6421  1.5488 -2.2976
52831SOL    HW263305   2.606  10.730   1.640 -0.0207  0.6379  0.5878
52832SOL     OW63306   8.376   5.913   2.444 -0.3406 -0.8638  0.2240
52832SOL    HW163307   8.465   5.936   2.469  0.2365 -1.5252 -1.0822
52832SOL    HW263308   8.372   5.935   2.351 -1.2313 -1.6992  0.0505
52833SOL     OW63309  12.344   3.153   6.208  0.3480  0.0216 -0.7537
52833SOL    HW163310  12.304   3.077   6.166 -0.0043 -0.8482  1.0534
52833SOL    HW263311  12.370   3.122   6.294  1.9061  1.4762 -0.6406
52834SOL     OW63312   2.457   7.487   6.163 -0.0175 -0.3301  0.1904
52834SOL    HW163313   2.404   7.542   6.106 -1.6896 -1.2236  0.7963
52834SOL    HW263314   2.406   7.406   6.172  0.8554 -0.7441  1.8087
52835SOL     OW63315   6.791   1.343   3.772  0.8617  0.2068 -0.3534
52835SOL    HW163316   6.819   1.356   3.863 -0.6143 -0.2595  0.1941
52835SOL    HW263317   6.839   1.411   3.723  1.2235  0.8606  0.8543
52836SOL     OW63318   1.305  11.173  11.067  0.6407  0.2776  0.1389
52836SOL    HW163319   1.232  11.198  11.124 -1.3245 -1.2220 -1.6099
52836SOL    HW263320   1.290  11.221  10.986  2.1726  0.6761  0.0542
52837SOL     OW63321   1.457   3.549  11.519  0.0665  0.4584  0.3457
52837SOL    HW163322   1.480   3.524  11.608  1.7460  0.1519 -0.1313
52837SOL    HW263323   1.456   3.467  11.471  2.7586  0.8774 -0.6257
52838SOL     OW63324   7.146  10.588   1.512  0.7648  0.2629  0.6363
52838SOL    HW163325   7.214  10.535   1.552  0.4226 -1.2470 -0.6846
52838SOL    HW263326   7.173  10.679   1.530  2.7551 -0.2945  0.7251
52839SOL     OW63327   4.460   5.272   9.969  0.6386 -0.3545 -0.6253
52839SOL    HW163328   4.417   5.309   9.892 -0.6206  0.5387  0.4626
52839SOL    HW263329   4.406   5.299  10.043  2.5887  0.0608  0.7436
52840SOL     OW63330   0.580   6.175   4.917  0.0613 -0.3041  0.0445
52840SOL    HW163331   0.665   6.132   4.905  1.0449  0.5811  3.1122
52840SOL    HW263332   0.579   6.202   5.008 -2.8052  1.3512 -0.3619
52841SOL     OW63333   7.728   2.319  11.269 -0.4060  0.0269 -0.1669
52841SOL    HW163334   7.654   2.265  11.240 -0.9661  0.9750 -0.5478
52841SOL    HW263335   7.765   2.354  11.188 -0.2696  0.4900  0.0916
52842SOL     OW63336   8.964   8.071   8.369  0.4654 -0.1611  0.3404
52842SOL    HW163337   9.022   8.021   8.426 -0.4007 -0.4882  0.9609
52842SOL    HW263338   8.900   8.111   8.429  1.2053  1.8224 -0.1172
52843SOL     OW63339   5.473   2.865   8.286  0.0032  0.0291  0.4331
52843SOL    HW163340   5.469   2.925   8.211  0.2574 -1.5111 -0.8501
52843SOL    HW263341   5.472   2.923   8.362 -0.3305  1.6404 -0.7431
52844SOL     OW63342  10.603  10.886  11.466 -0.3707  0.0130 -0.0254
52844SOL    HW163343  10.638  10.818  11.409  1.1764  1.0474 -0.3839
52844SOL    HW263344  10.621  10.855  11.555  2.0490  0.7315 -0.1978
52845SOL     OW63345   0.501  11.738   4.127 -0.2651  0.3445 -0.2953
52845SOL    HW163346   0.490  11.820   4.080  0.3987  0.1583 -0.7900
52845SOL    HW263347   0.412  11.712   4.151 -0.5517  0.7821 -0.8618
52846SOL     OW63348   3.892   8.560   3.183  0.1847 -0.1329 -0.4779
52846SOL    HW163349   3.946   8.486   3.209  2.3306  0.4203 -2.9689
52846SOL    HW263350   3.924   8.633   3.236  0.6033 -0.2136 -0.6154
52847SOL     OW63351   8.145   8.763   0.261  0.0075  0.3976 -0.9072
52847SOL    HW163352   8.176   8.732   0.346  1.0397 -0.1316 -1.4528
52847SOL    HW263353   8.217   8.744   0.201  0.0161  2.3656 -1.5829
52848SOL     OW63354  11.695   9.817   1.504  0.0754 -0.0020 -0.0949
52848SOL    HW163355  11.732   9.825   1.592  0.6618  0.5848 -0.3867
52848SOL    HW263356  11.771   9.802   1.447 -0.3321 -0.7678 -0.4616
52849SOL     OW63357  12.047   1.444  11.771 -0.2655 -0.8756 -0.4486
52849SOL    HW163358  12.081   1.385  11.703 -1.6678 -0.1928 -1.8105
52849SOL    HW263359  12.087   1.529  11.750 -0.8535 -0.6207 -0.5689
52850SOL     OW63360   3.741  10.871   4.383 -0.0401 -0.5838 -0.0206
52850SOL    HW163361   3.836  10.883   4.377 -0.1500 -0.0389 -0.8380
52850SOL    HW263362   3.728  10.825   4.466  0.8854 -0.0964  0.4070
52851SOL     OW63363  12.601   9.018   0.468 -0.3492  0.0935 -0.5343
52851SOL    HW163364  12.669   8.992   0.407 -0.1349 -0.8470  0.0842
52851SOL    HW263365  12.631   8.986   0.553 -1.1555  0.4168 -0.1117
52852SOL     OW63366   9.782   4.177  11.164 -0.4410  0.2983  0.6789
52852SOL    HW163367   9.785   4.174  11.259  0.3324  0.4045  0.6627
52852SOL    HW263368   9.819   4.262  11.141 -0.0867  0.0368  0.2620
52853SOL     OW63369   0.931  11.725  10.000 -0.0173  0.1542 -0.2819
52853SOL    HW163370   0.877  11.670  10.056 -1.0690  0.4119 -0.9955
52853SOL    HW263371   0.934  11.679   9.916 -0.0659  0.6793 -0.5824
52854SOL     OW63372   2.509  10.330   4.089 -0.4009 -0.1344 -0.1603
52854SOL    HW163373   2.466  10.296   4.010 -0.7676  0.9946 -0.4676
52854SOL    HW263374   2.584  10.273   4.102  0.9562  0.9605 -2.6193
52855SOL     OW63375   2.465   8.083  10.416 -0.1157 -0.3439 -0.2360
52855SOL    HW163376   2.518   8.135  10.476 -1.0690 -0.0134  0.3395
52855SOL    HW263377   2.512   8.000  10.408  1.0626  0.3255 -0.6256
52856SOL     OW63378   9.151   1.059  12.072 -0.0687  0.6094 -0.5768
52856SOL    HW163379   9.121   1.150  12.073 -0.3943  0.5111  1.6364
52856SOL    HW263380   9.116   1.024  11.990 -1.6619  1.9195 -0.5005
52857SOL     OW63381   3.865  11.878   7.018 -0.2423  0.0431 -0.0235
52857SOL    HW163382   3.831  11.918   6.938  2.5320  0.8639 -0.9021
52857SOL    HW263383   3.916  11.803   6.988 -0.3933 -0.5452  1.1254
52858SOL     OW63384   0.233  10.974   6.501  0.0939 -0.1012 -0.0248
52858SOL    HW163385   0.161  11.029   6.533  0.7620 -0.2969  1.9688
52858SOL    HW263386   0.217  10.888   6.540  1.2533 -0.2044  0.2640
52859SOL     OW63387   9.494  10.465   3.424  0.1271 -0.3220 -0.3090
52859SOL    HW163388   9.435  10.400   3.461 -0.9424 -0.1882 -1.6862
52859SOL    HW263389   9.573  10.460   3.478  0.0220 -2.6425 -0.2927
52860SOL     OW63390   6.449   3.492   2.860  0.2026 -0.1621  0.1009
52860SOL    HW163391   6.449   3.561   2.926  1.1987  0.8624 -0.9417
52860SOL    HW263392   6.415   3.534   2.781 -0.9365 -1.3621 -0.0909
52861SOL     OW63393  11.874   3.386   2.288  0.6709 -0.1068 -0.4144
52861SOL    HW163394  11.864   3.430   2.203 -1.2027  0.0638 -0.1495
52861SOL    HW263395  11.823   3.440   2.349  0.2648 -1.3607  0.3873
52862SOL     OW63396   7.605   4.008   6.802 -0.4474 -0.0555  0.5349
52862SOL    HW163397   7.533   4.065   6.829 -1.4496 -0.0020 -2.0237
52862SOL    HW263398   7.679   4.067   6.787 -0.7087  0.2406  0.4234
52863SOL     OW63399  12.443  11.512  11.239 -0.0348  0.0574  0.6590
52863SOL    HW163400  12.368  11.563  11.211  0.7372  1.8480  1.6678
52863SOL    HW263401  12.414  11.466  11.318 -0.4903 -0.4573  0.2001
52864SOL     OW63402  10.751   0.967   0.041 -0.7445 -0.8881  0.5183
52864SOL    HW163403  10.802   1.044   0.066 -2.4780  0.6151 -0.3156
52864SOL    HW263404  10.793   0.936  -0.040 -0.8573  0.0612  0.0796
52865SOL     OW63405   7.807   5.366   7.329  0.8300  0.0290 -0.6372
52865SOL    HW163406   7.899   5.340   7.335  1.2383  1.6176  0.4832
52865SOL    HW263407   7.795   5.429   7.399 -0.5144  1.6599 -2.2415
52866SOL     OW63408  10.165  12.364  12.109  0.2458  0.7680  0.0367
52866SOL    HW163409  10.124  12.410  12.182  0.8810  0.6909  0.4506
52866SOL    HW263410  10.210  12.290  12.149 -0.3084  0.0900 -0.5611
52867SOL     OW63411  11.045   8.615   4.253  0.4666  0.4703 -0.0956
52867SOL    HW163412  11.071   8.665   4.176 -2.4215  1.3133 -0.6681
52867SOL    HW263413  11.030   8.526   4.220  1.8184  0.1585  0.0939
52868SOL     OW63414   2.829  10.858   5.000  0.0648 -0.0214  0.1519
52868SOL    HW163415   2.746  10.897   5.027 -1.2136 -0.9162 -2.1910
52868SOL    HW263416   2.895  10.920   5.030 -1.6109  1.9484  0.0030
52869SOL     OW63417  11.821   0.574   2.749  0.0969 -0.1065 -0.8382
52869SOL    HW163418  11.758   0.532   2.691  0.9953 -1.6201 -0.7989
52869SOL    HW263419  11.906   0.537   2.722  0.5148 -1.1797  1.6259
52870SOL     OW63420   9.892   2.307   4.729 -0.2556 -0.5114  0.2684
52870SOL    HW163421   9.982   2.280   4.712  0.0889 -0.0892  1.3135
52870SOL    HW263422   9.895   2.347   4.816 -1.1903  0.7341 -0.2373
52871SOL     OW63423   2.700   2.833   2.588  0.6142 -0.6032 -0.3127
52871SOL    HW163424   2.717   2.861   2.678 -0.3591  0.1881 -0.3598
52871SOL    HW263425   2.734   2.904   2.534  1.7472 -1.3479 -0.6150
52872SOL     OW63426   7.225   4.430  10.091  0.0205  0.0822 -0.3570
52872SOL    HW163427   7.146   4.484  10.082  0.5525  0.9076 -0.1401
52872SOL    HW263428   7.298   4.491  10.080  0.6400 -0.5222  0.2875
52873SOL     OW63429   8.872   3.908   9.976 -0.1913  0.1909  0.0191
52873SOL    HW163430   8.778   3.895   9.991  0.1091  0.1506  2.1796
52873SOL    HW263431   8.908   3.819   9.975  0.0176  0.2601  0.8003
52874SOL     OW63432   2.824   1.345   3.231  0.3196  0.0453  0.2914
52874SOL    HW163433   2.919   1.357   3.223  0.1661  0.6754 -0.7218
52874SOL    HW263434   2.786   1.414   3.176 -0.7547  0.4704  1.5127
52875SOL     OW63435  11.836   0.217   0.346 -0.2198 -0.0183 -0.1013
52875SOL    HW163436  11.915   0.272   0.340 -0.7147  0.5970 -1.1639
52875SOL    HW263437  11.850   0.148   0.282  0.5808 -1.4383  1.5087
52876SOL     OW63438  10.485   0.536   7.075  0.3561 -0.0439  0.0744
52876SOL    HW163439  10.499   0.462   7.134  1.2416  0.1222  0.0813
52876SOL    HW263440  10.433   0.500   7.003  0.5948 -0.6241  0.1847
52877SOL     OW63441   5.035   8.272   5.701 -0.1674 -0.0179  0.2122
52877SOL    HW163442   5.080   8.212   5.641  5.3254  2.9559  0.7238
52877SOL    HW263443   5.042   8.229   5.787  1.3453  0.1233  0.1814
52878SOL     OW63444   7.590   9.248  11.123  0.2280 -0.2373  0.3743
52878SOL    HW163445   7.630   9.275  11.040  0.4505 -0.8544  0.2711
52878SOL    HW263446   7.572   9.154  11.111 -0.0488 -0.2554  0.9009
52879SOL     OW63447   9.377   8.664   7.515  0.1547  0.0131  0.0959
52879SOL    HW163448   9.429   8.695   7.588  0.4573  1.7264 -0.7840
52879SOL    HW263449   9.364   8.742   7.460 -0.8805 -0.9981 -1.1705
52880SOL     OW63450   1.051   5.513  11.332  0.0427 -0.0419  0.5217
52880SOL    HW163451   1.076   5.434  11.284  1.0595 -0.4070  1.5902
52880SOL    HW263452   0.985   5.483  11.394 -0.8592  0.3182 -0.2398
52881SOL     OW63453   0.772   2.357   8.076  0.3956  0.2061 -0.6389
52881SOL    HW163454   0.842   2.395   8.129  0.2865 -0.0388 -0.3163
52881SOL    HW263455   0.696   2.414   8.091  0.0128 -0.5693  0.4543
52882SOL     OW63456   7.238   4.033   6.385  0.1041 -0.0922  1.0632
52882SOL    HW163457   7.298   3.963   6.363 -1.4380 -1.1464  0.0093
52882SOL    HW263458   7.259   4.104   6.325 -0.2449 -0.7743  0.1205
52883SOL     OW63459   6.454   9.594   2.911 -0.2715 -0.5235 -0.4360
52883SOL    HW163460   6.457   9.684   2.881  1.0049 -0.5085 -0.3253
52883SOL    HW263461   6.524   9.550   2.862  0.5383 -0.9382  1.0254
52884SOL     OW63462   0.350  12.371   0.310  0.2562 -0.5940 -0.0619
52884SOL    HW163463   0.286  12.418   0.364 -0.6262 -1.3804 -0.4004
52884SOL    HW263464   0.434  12.392   0.349 -0.1871  0.5847  0.3128
52885SOL     OW63465   1.220   5.880   5.724 -0.1851  0.1974 -0.2451
52885SOL    HW163466   1.219   5.913   5.814 -1.3076  2.0381 -0.8571
52885SOL    HW263467   1.127   5.871   5.701  0.0595 -2.7031 -0.4506
52886SOL     OW63468  12.073   4.587   2.591 -0.5731  0.2312  0.0358
52886SOL    HW163469  12.008   4.601   2.660 -0.5483  0.9735 -0.0738
52886SOL    HW263470  12.135   4.659   2.603 -0.7155  0.5343 -0.9217
52887SOL     OW63471   0.996   7.779   6.702 -0.1336 -0.2866 -0.5139
52887SOL    HW163472   1.088   7.756   6.691 -0.2252 -0.6605 -0.5085
52887SOL    HW263473   0.989   7.808   6.793  0.0026 -0.1329 -0.5515
52888SOL     OW63474   9.518   0.552   2.150 -0.4361  0.9858 -0.4424
52888SOL    HW163475   9.557   0.559   2.062 -0.9954 -0.3469 -0.8251
52888SOL    HW263476   9.518   0.458   2.169 -1.4396  1.1499  0.4700
52889SOL     OW63477   9.592   5.018   1.516  0.5261 -0.5104  0.2006
52889SOL    HW163478   9.654   5.012   1.589  0.6285 -0.2687  0.1335
52889SOL    HW263479   9.637   4.974   1.443  1.3191  1.1015 -0.3189
52890SOL     OW63480   5.586   1.888  11.381 -0.1741  0.2695 -0.4890
52890SOL    HW163481   5.520   1.900  11.312 -0.8513 -1.5584 -0.1922
52890SOL    HW263482   5.593   1.793  11.391  0.8645  0.4903  1.0774
52891SOL     OW63483   4.625  12.073  10.067  0.4027  0.1544  0.1262
52891SOL    HW163484   4.616  12.006  10.000 -0.4242  0.1058  0.2718
52891SOL    HW263485   4.644  12.154  10.019 -1.3497  0.3636 -0.2926
52892SOL     OW63486   0.988   8.004   8.532  0.4387 -0.3228  0.5455
52892SOL    HW163487   0.937   7.945   8.586 -0.2217 -0.4988 -0.2575
52892SOL    HW263488   1.073   8.009   8.575  0.5018 -1.8391  0.6364
52893SOL     OW63489   8.740  10.173   8.203  0.0926  0.0403  0.7589
52893SOL    HW163490   8.796  10.182   8.126 -0.8254  1.0428  0.1905
52893SOL    HW263491   8.722  10.262   8.231  0.9110 -0.3073  2.5430
52894SOL     OW63492   2.046  12.338   6.502 -0.1064  0.6974 -0.7736
52894SOL    HW163493   2.010  12.419   6.538  0.4784  0.9366 -0.7141
52894SOL    HW263494   2.005  12.328   6.416 -1.5077  0.1320 -0.0637
52895SOL     OW63495   3.888   9.020   0.223 -0.3895  0.5899 -0.1744
52895SOL    HW163496   3.892   9.021   0.127 -0.0080  0.8661 -0.1600
52895SOL    HW263497   3.862   8.931   0.246 -0.7670  0.6049 -0.5458
52896SOL     OW63498   5.443   1.216   7.133 -0.2832 -0.1354 -0.3079
52896SOL    HW163499   5.409   1.136   7.173  0.7547 -0.8466 -0.8243
52896SOL    HW263500   5.427   1.205   7.039 -1.2274  0.8110 -0.2812
52897SOL     OW63501   0.153   0.365   3.016 -0.1211  0.2033  0.1479
52897SOL    HW163502   0.086   0.433   3.009 -2.6191 -1.8724  1.9906
52897SOL    HW263503   0.173   0.360   3.109  2.0173  0.1667 -0.2723
52898SOL     OW63504  10.647   0.438  12.324 -0.3733 -0.3242 -0.0896
52898SOL    HW163505  10.681   0.509  12.378  0.1080  0.5555 -1.5068
52898SOL    HW263506  10.721   0.378  12.315 -0.0250  0.2047 -0.8655
52899SOL     OW63507   7.403   0.975   9.737 -0.7363 -0.1416 -0.1989
52899SOL    HW163508   7.405   1.049   9.798  2.7779  0.4490 -0.8032
52899SOL    HW263509   7.383   0.900   9.792 -1.6176  0.8733  0.9383
52900SOL     OW63510  12.379   5.166  12.044  0.2937  0.0533 -0.2398
52900SOL    HW163511  12.398   5.181  12.137  0.2105 -0.2796 -0.1690
52900SOL    HW263512  12.452   5.113  12.012  0.1388 -0.1410 -0.2749
52901SOL     OW63513   3.164  12.430   6.338 -0.3967 -0.3105  0.0259
52901SOL    HW163514   3.117  12.351   6.364 -0.3572 -0.9997 -1.8487
52901SOL    HW263515   3.119  12.501   6.384 -0.6497 -1.3585  1.4790
52902SOL     OW63516   6.221   2.558   3.856  0.5031 -0.4152  0.1759
52902SOL    HW163517   6.191   2.612   3.929  0.8097  1.1018 -0.7872
52902SOL    HW263518   6.304   2.520   3.888  0.1880 -0.4893  0.9328
52903SOL     OW63519   0.960   2.879   0.831  0.3756 -0.3711  0.2964
52903SOL    HW163520   0.978   2.973   0.821  1.0305 -0.5522 -0.3261
52903SOL    HW263521   0.865   2.874   0.842  0.2024  0.2838 -0.7443
52904SOL     OW63522   0.414   0.583   3.430  0.3556 -0.1395  0.4006
52904SOL    HW163523   0.447   0.655   3.376  1.0735  0.5582  1.7388
52904SOL    HW263524   0.328   0.613   3.460  0.3732 -0.1206  0.4318
52905SOL     OW63525   6.143   4.941  11.210 -0.1084  0.5817  0.0065
52905SOL    HW163526   6.066   4.978  11.253  0.4362  0.8971  0.7309
52905SOL    HW263527   6.123   4.944  11.117 -1.8945 -1.3455  0.2367
52906SOL     OW63528   3.973   6.651   8.853  0.0529  0.3324 -0.0067
52906SOL    HW163529   3.962   6.600   8.933  0.7946  0.4607  0.1840
52906SOL    HW263530   4.032   6.722   8.877  1.5476 -0.5167 -1.0429
52907SOL     OW63531  10.805   0.047   8.216  0.2556 -0.2302  0.8236
52907SOL    HW163532  10.761   0.129   8.192  0.7059  0.6149  2.6585
52907SOL    HW263533  10.818   0.001   8.134  0.2313  1.6720 -0.2929
52908SOL     OW63534   6.459  12.419  11.131 -0.3766 -0.5444 -0.2535
52908SOL    HW163535   6.438  12.493  11.188  0.0303 -0.9812  0.4713
52908SOL    HW263536   6.394  12.424  11.061 -1.1156 -0.2256  0.4419
52909SOL     OW63537   3.180  11.350   0.193  0.7513 -0.0684  0.0599
52909SOL    HW163538   3.153  11.332   0.103 -0.0524  0.5592  0.1641
52909SOL    HW263539   3.109  11.403   0.230  0.6096 -1.1267  1.3750
52910SOL     OW63540   5.141   2.457   8.825 -0.0316 -0.5863  0.0977
52910SOL    HW163541   5.082   2.428   8.894  1.2533 -2.2255  0.5605
52910SOL    HW263542   5.205   2.513   8.870 -0.0886 -0.4055 -0.0459
52911SOL     OW63543  10.619   9.204   6.309 -0.4085  0.2897  0.0555
52911SOL    HW163544  10.709   9.173   6.320 -0.9456 -0.9411  1.1150
52911SOL    HW263545  10.620   9.292   6.347  0.3141  0.2508  0.1568
52912SOL     OW63546  10.693   1.587   3.785  0.3618  0.0412 -0.1999
52912SOL    HW163547  10.766   1.604   3.845 -0.2315  0.6081  0.3839
52912SOL    HW263548  10.631   1.536   3.837  0.7668 -1.3461 -1.0054
52913SOL     OW63549  11.677   6.092   5.933  0.9371  0.0411  0.3101
52913SOL    HW163550  11.764   6.123   5.907  1.0920  0.9296  1.7487
52913SOL    HW263551  11.642   6.050   5.855  3.3578 -1.9459  0.1579
52914SOL     OW63552   7.868   9.674   9.035 -0.0831 -0.0277 -0.1052
52914SOL    HW163553   7.930   9.620   9.084 -0.4252 -0.1274  0.2155
52914SOL    HW263554   7.852   9.750   9.090  0.5987  0.5360 -0.6711
52915SOL     OW63555   1.314   5.737   2.131  0.2142 -0.3150  0.2955
52915SOL    HW163556   1.408   5.744   2.114  0.0368  0.2856 -0.4330
52915SOL    HW263557   1.291   5.649   2.101  0.6691 -0.7245  1.1094
52916SOL     OW63558   1.879   7.044   8.114  0.2073  0.0325  0.1445
52916SOL    HW163559   1.932   6.967   8.097 -0.3698  0.0492 -2.0150
52916SOL    HW263560   1.811   7.014   8.175 -0.0272 -1.1896 -0.6854
52917SOL     OW63561   7.471   4.377  11.642 -0.2464 -0.5326  0.5417
52917SOL    HW163562   7.517   4.336  11.716  0.4740 -0.2550  0.2552
52917SOL    HW263563   7.411   4.440  11.683 -0.8106 -1.3089  0.9473
52918SOL     OW63564   9.397  12.323   3.157 -0.4492  0.2208  0.2701
52918SOL    HW163565   9.460  12.269   3.108  0.1321 -0.1688  1.4099
52918SOL    HW263566   9.317  12.319   3.104  0.6060  1.1583 -1.4925
52919SOL     OW63567   7.749   3.744  12.399  0.3386  0.1281  0.3374
52919SOL    HW163568   7.668   3.756  12.450  0.3230  1.3738  0.0424
52919SOL    HW263569   7.787   3.663  12.434 -0.1322  0.4670  1.7200
52920SOL     OW63570  10.641   9.253   6.009 -0.3688 -0.7300  0.3947
52920SOL    HW163571  10.566   9.307   5.984 -0.1157  0.1693  1.5074
52920SOL    HW263572  10.603   9.171   6.039 -0.8343 -0.6970 -0.0847
52921SOL     OW63573  10.852   0.253   4.522 -0.0104 -0.2543  0.2251
52921SOL    HW163574  10.875   0.251   4.615 -3.0567 -2.4189  1.0912
52921SOL    HW263575  10.845   0.161   4.496 -0.7596  0.2970 -1.7218
52922SOL     OW63576   7.051   0.556  11.087  0.2642 -0.0419  0.7996
52922SOL    HW163577   7.129   0.502  11.075 -0.9668 -1.5576 -1.1359
52922SOL    HW263578   7.084   0.645  11.089  1.9976 -0.5484 -1.1429
52923SOL     OW63579   9.462   0.120   1.397 -0.6842  0.1327 -0.2406
52923SOL    HW163580   9.479   0.026   1.393  0.2366  0.2854 -0.1597
52923SOL    HW263581   9.535   0.159   1.349 -0.6578  0.8471  0.3644
52924SOL     OW63582   7.628   5.070   5.549 -0.3149 -0.1320 -0.7054
52924SOL    HW163583   7.692   5.020   5.499  0.4994 -0.0895  0.2418
52924SOL    HW263584   7.637   5.037   5.639  1.2746  2.6318  0.2623
52925SOL     OW63585   1.277   2.848   0.642 -0.4874 -0.6443 -0.5298
52925SOL    HW163586   1.327   2.915   0.689 -2.0222  0.0876  0.1079
52925SOL    HW263587   1.322   2.839   0.558 -0.1624  1.0937 -0.5742
52926SOL     OW63588   4.229   3.515   2.173  0.2843 -0.7346 -0.3630
52926SOL    HW163589   4.147   3.559   2.149  0.1713 -0.4732  0.4786
52926SOL    HW263590   4.228   3.513   2.268  0.7926 -1.6328 -0.3730
52927SOL     OW63591   2.380   1.461   9.782  0.0222 -0.1388 -0.0192
52927SOL    HW163592   2.327   1.469   9.861 -0.8552 -1.5761 -0.4243
52927SOL    HW263593   2.318   1.477   9.710  0.5187 -0.1487 -0.4586
52928SOL     OW63594   0.278  10.151   7.527 -0.4202 -0.5177 -0.0743
52928SOL    HW163595   0.342  10.110   7.585  0.2253 -0.2616 -0.5994
52928SOL    HW263596   0.270  10.240   7.559 -1.5341 -0.9173  0.8259
52929SOL     OW63597  11.565   6.294   4.407 -0.1301 -0.2484 -0.4039
52929SOL    HW163598  11.477   6.289   4.442 -0.4095  0.0512 -1.0422
52929SOL    HW263599  11.622   6.271   4.481 -0.6941  0.3842  0.2405
52930SOL     OW63600   8.149   6.952  10.013 -0.3126 -0.1819 -0.2211
52930SOL    HW163601   8.102   6.962  10.096  2.2175  0.4433  1.2594
52930SOL    HW263602   8.163   6.858  10.004  1.1496 -0.1458  1.2003
52931SOL     OW63603   5.448   5.720   8.004 -0.3716  0.2959  0.3809
52931SOL    HW163604   5.379   5.655   8.015 -0.7587  0.8136  1.0167
52931SOL    HW263605   5.458   5.761   8.090  0.6867  0.2729  0.2892
52932SOL     OW63606  10.946   8.391   1.962  0.5278  0.5623  0.4499
52932SOL    HW163607  10.917   8.397   1.870  1.2296 -0.1136  0.1741
52932SOL    HW263608  10.864   8.381   2.011  0.2194 -2.4087 -0.4124
52933SOL     OW63609   9.008  12.460  12.558 -0.2920  0.0389  0.3474
52933SOL    HW163610   8.944  12.507  12.505 -0.6158  1.1420  1.6596
52933SOL    HW263611   9.014  12.373  12.517  0.2473  1.1462 -2.0445
52934SOL     OW63612  11.816   6.505  10.012 -0.7459 -0.4989  0.1136
52934SOL    HW163613  11.852   6.489  10.099 -1.1600 -0.8842  0.2153
52934SOL    HW263614  11.723   6.486  10.020 -1.2517  1.7457  0.1760
52935SOL     OW63615  10.207   1.340   2.950  0.0342 -0.3420 -0.3836
52935SOL    HW163616  10.134   1.400   2.935  0.9421  0.8564 -0.2028
52935SOL    HW263617  10.228   1.306   2.863 -1.6446 -1.8448 -0.2514
52936SOL     OW63618   5.396  10.328   0.818  0.3658  0.4693 -0.9236
52936SOL    HW163619   5.322  10.292   0.866  1.6463 -0.4146  0.4893
52936SOL    HW263620   5.429  10.255   0.766  0.6575  0.6586 -1.0090
52937SOL     OW63621   7.335   4.684   5.211 -0.1721 -0.7848 -0.2425
52937SOL    HW163622   7.258   4.723   5.253  0.6254 -1.0722  1.5809
52937SOL    HW263623   7.351   4.740   5.135 -0.9489  0.5335  0.5206
52938SOL     OW63624   4.153   4.945   2.639  0.0294 -0.4613  0.0680
52938SOL    HW163625   4.136   4.988   2.555 -0.1801 -0.3633  0.1612
52938SOL    HW263626   4.067   4.927   2.675  0.1185 -0.0565  0.4934
52939SOL     OW63627   3.348   1.274   6.781  0.4530 -0.6583 -0.0304
52939SOL    HW163628   3.307   1.218   6.715  0.9529 -2.6304  1.2582
52939SOL    HW263629   3.293   1.353   6.783 -0.5802 -1.2963 -1.5300
52940SOL     OW63630  10.310   3.183   6.074  0.2561 -0.9727 -0.9626
52940SOL    HW163631  10.239   3.125   6.098  0.8525 -1.4124 -0.2347
52940SOL    HW263632  10.286   3.268   6.111  0.7408 -1.4314  0.4710
52941SOL     OW63633  10.851   2.990   0.881 -0.6857 -0.8796  0.2935
52941SOL    HW163634  10.814   2.961   0.965 -2.5724 -0.6926 -0.4225
52941SOL    HW263635  10.859   3.085   0.890 -0.7891 -0.8721  0.3122
52942SOL     OW63636  12.238   6.148   7.774  0.0800  0.0156 -0.2120
52942SOL    HW163637  12.161   6.179   7.822 -0.7681 -0.7600 -1.0452
52942SOL    HW263638  12.309   6.151   7.839 -0.7494  0.2659  0.7095
52943SOL     OW63639   7.089  10.139   4.024 -0.3445  0.2774  0.3626
52943SOL    HW163640   7.131  10.087   4.092 -0.9496  1.8618  2.0477
52943SOL    HW263641   7.160  10.167   3.967  0.0428 -1.9577 -0.3338
52944SOL     OW63642   0.452   4.001  12.489 -0.2280  0.4085  0.1414
52944SOL    HW163643   0.513   3.954  12.546 -1.4022 -0.2894  0.8759
52944SOL    HW263644   0.386   4.035  12.550  0.3445  2.6534 -0.4233
52945SOL     OW63645   6.823   8.105  11.799 -0.1003 -0.4055 -1.0741
52945SOL    HW163646   6.839   8.089  11.706  0.3618 -2.9740 -0.6213
52945SOL    HW263647   6.788   8.023  11.832 -1.0700  0.7150  0.8934
52946SOL     OW63648   6.170   3.912   1.921 -0.2535  0.2451  1.0798
52946SOL    HW163649   6.179   3.913   1.826 -0.2695  1.6333  1.0613
52946SOL    HW263650   6.157   3.820   1.944  0.4829 -0.1951 -0.1799
52947SOL     OW63651   2.068  10.703   9.887  0.0424 -0.2175  0.1419
52947SOL    HW163652   2.039  10.664   9.805  0.1565 -1.7115  0.7819
52947SOL    HW263653   2.099  10.629   9.939  3.1384  1.0223  0.2692
52948SOL     OW63654   7.821   8.284   8.444 -0.1359 -0.2398  0.3018
52948SOL    HW163655   7.817   8.355   8.508  3.5511  1.1911 -0.7729
52948SOL    HW263656   7.900   8.234   8.467  1.0733  0.0547 -2.6635
52949SOL     OW63657   4.647   5.957  12.529 -0.0388 -0.2699  0.2421
52949SOL    HW163658   4.722   5.955  12.470 -0.4555 -2.2669 -0.3162
52949SOL    HW263659   4.679   5.913  12.608 -0.0160  0.7826  0.8337
52950SOL     OW63660   5.215   0.394  12.155 -0.4596 -0.2027 -0.2666
52950SOL    HW163661   5.231   0.464  12.218  0.3532 -0.8777  0.3007
52950SOL    HW263662   5.282   0.408  12.087  0.1723 -0.8275  0.2091
52951SOL     OW63663   3.839   1.848   5.718 -0.5525  0.0875  0.2590
52951SOL    HW163664   3.841   1.786   5.791 -3.5313  0.1878  0.5408
52951SOL    HW263665   3.837   1.934   5.761 -0.3130  0.2252 -0.0077
52952SOL     OW63666   9.955   6.767  11.832 -0.4714  0.6372  0.3620
52952SOL    HW163667   9.882   6.829  11.832  0.8239  2.2622  1.9773
52952SOL    HW263668  10.000   6.783  11.915  1.6745 -0.3920 -0.5368
52953SOL     OW63669   9.579   8.490  11.235 -0.1938  0.0649 -0.2283
52953SOL    HW163670   9.541   8.442  11.309 -0.9235 -0.7062 -1.0879
52953SOL    HW263671   9.654   8.536  11.273  1.0714 -2.4008  0.4737
52954SOL     OW63672   4.515   3.759   0.806 -0.4670 -0.0613 -0.3344
52954SOL    HW163673   4.442   3.722   0.757  0.1679 -0.4602 -0.9981
52954SOL    HW263674   4.562   3.813   0.743 -0.3474  0.4307  0.1650
52955SOL     OW63675   6.820   3.729   6.833 -0.1892  0.1519  0.0370
52955SOL    HW163676   6.792   3.646   6.795 -0.6840  0.2821  0.1090
52955SOL    HW263677   6.743   3.785   6.828 -0.2221  0.2208  1.0787
52956SOL     OW63678   8.281   4.809   7.107  0.1063 -0.1570 -0.1639
52956SOL    HW163679   8.246   4.721   7.118 -0.8990  0.1281 -0.9068
52956SOL    HW263680   8.304   4.815   7.014 -0.6722  0.6463 -0.3148
52957SOL     OW63681   6.695   5.899   0.624  0.6643 -0.5649 -0.5814
52957SOL    HW163682   6.717   5.845   0.700 -0.0186  0.3354  0.2689
52957SOL    HW263683   6.771   5.888   0.566  0.1338 -3.2312 -0.9281
52958SOL     OW63684   8.057  12.305   2.316  0.0047  0.1243 -0.6328
52958SOL    HW163685   8.004  12.369   2.268  1.0367  0.0061 -1.9786
52958SOL    HW263686   8.136  12.354   2.340 -0.0406 -0.1197  0.0210
52959SOL     OW63687   1.129   6.249   2.900 -0.4741 -0.4113 -0.1252
52959SOL    HW163688   1.208   6.302   2.892  0.1736 -1.3374 -0.0231
52959SOL    HW263689   1.153   6.164   2.862 -1.1251 -1.0092  0.7618
52960SOL     OW63690   8.329   1.569   2.069 -0.6351  0.0751  0.1659
52960SOL    HW163691   8.410   1.610   2.039 -0.2193  0.7292  2.0649
52960SOL    HW263692   8.350   1.475   2.073 -0.3393  0.1096 -0.4028
52961SOL     OW63693   1.552   7.151   8.383 -0.2590  0.0485 -0.1541
52961SOL    HW163694   1.551   7.088   8.310  0.2937  0.4324 -0.4965
52961SOL    HW263695   1.643   7.151   8.413 -0.2226  0.8110 -0.2635
52962SOL     OW63696   9.526   1.537   4.793  0.6766  0.4810  0.2090
52962SOL    HW163697   9.613   1.577   4.794  0.6882  0.7063 -2.2895
52962SOL    HW263698   9.542   1.445   4.770  0.2901  0.5323 -0.3104
52963SOL     OW63699  11.229   4.506   9.169 -0.1975  0.3190  0.0214
52963SOL    HW163700  11.149   4.475   9.125 -0.5687  0.2624  0.7216
52963SOL    HW263701  11.209   4.498   9.263  1.2154 -1.2063  0.2269
52964SOL     OW63702   7.524   4.360   7.721  0.7567 -0.4463 -0.2154
52964SOL    HW163703   7.458   4.310   7.672  0.3158  0.1202 -0.2108
52964SOL    HW263704   7.588   4.294   7.749  0.8858 -0.8210 -1.3428
52965SOL     OW63705   7.041   2.131   3.662  0.2890 -0.3439 -0.5448
52965SOL    HW163706   6.948   2.123   3.682  0.7154 -1.8882  1.1093
52965SOL    HW263707   7.053   2.081   3.581  0.0501 -2.2389  0.5530
52966SOL     OW63708   4.580   0.742   4.959  0.8626 -0.5209  0.0045
52966SOL    HW163709   4.605   0.821   4.910  0.5186 -1.0195 -0.9937
52966SOL    HW263710   4.485   0.737   4.948  0.5468  0.1531  1.9530
52967SOL     OW63711   6.668   9.910   4.757 -0.5171  0.1899 -1.0301
52967SOL    HW163712   6.701   9.958   4.682  1.1290  0.1621 -0.3552
52967SOL    HW263713   6.629   9.831   4.720 -0.8497  0.7658 -1.9353
52968SOL     OW63714   4.936   7.103  11.213 -0.1146  0.0920 -0.1359
52968SOL    HW163715   5.015   7.144  11.177 -0.6352  1.9913  0.7762
52968SOL    HW263716   4.864   7.144  11.166 -0.6610  0.3781  0.9174
52969SOL     OW63717   5.439   1.909  11.146  0.1232  0.0057  0.3252
52969SOL    HW163718   5.392   1.878  11.069  1.6960  0.3766 -0.8248
52969SOL    HW263719   5.378   1.968  11.190 -0.8910 -0.4363 -0.4543
52970SOL     OW63720   3.160   8.111  12.440  0.1789  0.1351  1.0098
52970SOL    HW163721   3.098   8.048  12.475  0.2649 -0.8611 -0.5456
52970SOL    HW263722   3.107   8.188  12.420 -0.1149  0.1795  1.9140
52971SOL     OW63723   0.363  12.168   2.593  0.2911  0.0797  0.3940
52971SOL    HW163724   0.383  12.236   2.529 -0.0649 -0.6026 -0.4535
52971SOL    HW263725   0.278  12.193   2.629  0.1696  0.0848  0.1003
52972SOL     OW63726   3.435   6.628   9.617 -0.1453 -0.1849 -1.0190
52972SOL    HW163727   3.454   6.536   9.599 -1.1508 -0.3707 -1.1492
52972SOL    HW263728   3.451   6.672   9.533  0.9273 -0.1384 -0.8000
52973SOL     OW63729   4.745   1.642  11.856 -0.4078 -0.6216  0.1626
52973SOL    HW163730   4.834   1.647  11.823 -0.7130  0.0955 -0.5714
52973SOL    HW263731   4.754   1.602  11.943  0.6981  0.1758  0.4299
52974SOL     OW63732  10.696   3.186  10.154  0.7265 -0.4305  0.1276
52974SOL    HW163733  10.604   3.189  10.128  1.0982 -0.2119 -1.2554
52974SOL    HW263734  10.715   3.092  10.162  0.0683 -0.4567  1.7104
52975SOL     OW63735   3.220   3.826  11.814 -0.2578 -0.3480 -0.1063
52975SOL    HW163736   3.125   3.820  11.812 -0.3563 -0.8488  2.3885
52975SOL    HW263737   3.250   3.737  11.829  0.4713  0.0500  0.9444
52976SOL     OW63738   9.861   2.939  11.234 -0.6478 -0.0935  0.0793
52976SOL    HW163739   9.890   3.012  11.290  0.6099 -0.7560  0.3262
52976SOL    HW263740   9.942   2.897  11.206 -1.3063 -0.5523 -1.2329
52977SOL     OW63741   7.455  11.530   6.457 -0.2103  0.1484 -0.0327
52977SOL    HW163742   7.540  11.512   6.416  1.1111  4.4301  0.3203
52977SOL    HW263743   7.477  11.565   6.543 -2.4197  0.2842  0.5464
52978SOL     OW63744   8.153   8.495   8.507  0.3437  0.3303  0.2841
52978SOL    HW163745   8.104   8.510   8.588 -1.3789  1.3646 -0.8737
52978SOL    HW263746   8.218   8.566   8.505 -0.8089  1.3999 -0.0829
52979SOL     OW63747   1.410   8.743  12.058  0.2950 -0.2679  0.1833
52979SOL    HW163748   1.354   8.670  12.085 -2.4367  0.4006 -3.0790
52979SOL    HW263749   1.477   8.702  12.003 -0.5627 -0.4477 -0.7334
52980SOL     OW63750  10.968  10.967   6.773  0.8287  0.0490  0.1555
52980SOL    HW163751  10.911  11.019   6.830  0.6903  0.3790 -0.2787
52980SOL    HW263752  10.956  11.005   6.686  0.9588 -0.5218 -0.1157
52981SOL     OW63753   2.992  10.698   3.234  0.2842 -0.4192  0.1071
52981SOL    HW163754   2.986  10.724   3.326 -0.9343  1.1906 -0.3742
52981SOL    HW263755   3.007  10.604   3.236 -1.1622 -0.6624  1.9534
52982SOL     OW63756   8.740  10.018   3.513 -0.3286 -0.3204  0.1734
52982SOL    HW163757   8.719  10.111   3.502  1.5912  0.1678  0.2304
52982SOL    HW263758   8.656   9.973   3.505 -1.0648  1.2618 -1.6699
52983SOL     OW63759  10.596   4.918   3.120 -0.0109 -0.7567 -0.5055
52983SOL    HW163760  10.586   4.823   3.125  0.5039 -0.9078 -1.8505
52983SOL    HW263761  10.635   4.943   3.204 -0.0864 -1.7400 -0.1684
52984SOL     OW63762   5.865  12.169   6.685  0.3822 -0.4241 -0.3427
52984SOL    HW163763   5.872  12.074   6.672  3.3803 -0.3218 -0.1217
52984SOL    HW263764   5.850  12.204   6.597  0.8441 -0.9996 -0.6568
52985SOL     OW63765   6.888   1.840   4.598 -0.0632 -0.1669  0.3628
52985SOL    HW163766   6.838   1.762   4.575  0.2699 -0.7132  1.4448
52985SOL    HW263767   6.832   1.913   4.571  0.4013 -0.7103 -2.3871
52986SOL     OW63768   8.905   4.645   9.778 -0.0416  0.0595  0.1907
52986SOL    HW163769   8.986   4.653   9.728  0.5710 -1.1779  0.9363
52986SOL    HW263770   8.863   4.730   9.770  2.7711  1.8021  2.2266
52987SOL     OW63771   6.145  12.618   1.371  0.4122  0.2951 -0.3651
52987SOL    HW163772   6.170  12.562   1.298  0.3365  0.7735 -0.7603
52987SOL    HW263773   6.056  12.646   1.351  0.1030 -0.1899  0.2947
52988SOL     OW63774   5.433   5.164  10.261  0.4011 -0.4452  0.4530
52988SOL    HW163775   5.504   5.100  10.258  1.4664  0.5304  2.5882
52988SOL    HW263776   5.395   5.153  10.349 -0.3527  0.8463  0.3166
52989SOL     OW63777   1.063   3.450   1.115 -0.0324  0.1611 -0.4877
52989SOL    HW163778   0.991   3.499   1.153 -0.0400  0.6477 -1.1125
52989SOL    HW263779   1.097   3.396   1.187 -0.1137  0.9712  0.1632
52990SOL     OW63780   5.670   5.591   0.773  0.3634 -0.4677  0.0102
52990SOL    HW163781   5.761   5.565   0.782  0.2574 -0.7006  0.4400
52990SOL    HW263782   5.673   5.685   0.754  0.8135 -0.9472 -2.7535
52991SOL     OW63783   6.899   9.094   2.344 -0.3541  0.5868  0.2189
52991SOL    HW163784   6.940   9.161   2.290 -1.3599  1.6160  0.6900
52991SOL    HW263785   6.969   9.062   2.401  0.0486  1.5091  0.2516
52992SOL     OW63786   0.120   2.117   3.139 -0.4071  0.1150  0.4683
52992SOL    HW163787   0.074   2.035   3.158  0.2451 -0.2209  0.6238
52992SOL    HW263788   0.171   2.134   3.218 -1.0815  1.0468  0.7108
52993SOL     OW63789   6.378   7.055   7.333  0.2902 -0.0553 -0.5178
52993SOL    HW163790   6.283   7.072   7.336  0.2858  0.3695 -2.1057
52993SOL    HW263791   6.411   7.116   7.266  2.2402  2.1340  2.2281
52994SOL     OW63792   9.602  10.726   7.805  0.2981  0.0750  0.6649
52994SOL    HW163793   9.681  10.695   7.761 -0.1860 -0.5309  0.2071
52994SOL    HW263794   9.530  10.699   7.748 -0.2584  0.4216  1.1873
52995SOL     OW63795  11.277  12.472  10.895  0.1578 -0.0355 -0.3367
52995SOL    HW163796  11.221  12.487  10.818 -0.6542 -2.3935 -0.2928
52995SOL    HW263797  11.273  12.378  10.909  3.6568 -0.2652  0.0884
52996SOL     OW63798   6.925   3.022   2.758 -0.4342 -0.2507 -0.2033
52996SOL    HW163799   6.983   3.090   2.722 -0.9314  1.0725  1.3760
52996SOL    HW263800   6.936   2.948   2.699  1.0804  0.7727 -1.2883
52997SOL     OW63801  12.159   7.235   5.534  0.3877  0.3005 -0.2639
52997SOL    HW163802  12.128   7.318   5.499  0.1424  0.3610  0.0890
52997SOL    HW263803  12.089   7.207   5.593  1.4592  0.9358  1.3381
52998SOL     OW63804   5.698   8.573   8.439 -0.3409 -0.4000  0.4323
52998SOL    HW163805   5.628   8.604   8.381 -1.1138 -1.2082  0.8956
52998SOL    HW263806   5.666   8.594   8.527  0.0660 -0.6573  0.6436
52999SOL     OW63807   1.256   6.976   9.776 -0.0362  0.2790  0.6813
52999SOL    HW163808   1.233   6.900   9.830  0.6049 -0.1717  0.3380
52999SOL    HW263809   1.207   7.048   9.814 -0.5474 -0.2816  1.1050
53000SOL     OW63810  10.086   8.577   5.756  0.2459  0.0611  0.1194
53000SOL    HW163811  10.160   8.602   5.701  0.2204 -0.0937  0.0130
53000SOL    HW263812  10.125   8.531   5.831  0.0959 -3.7139 -1.8656
53001SOL     OW63813   7.963   0.093  11.864 -0.0872  0.1279  0.0535
53001SOL    HW163814   7.914   0.011  11.876 -0.0493  0.0371 -0.4192
53001SOL    HW263815   7.984   0.096  11.771 -2.1942  1.8699 -0.4360
53002SOL     OW63816   9.300  12.555   1.988 -0.4465  0.4573  0.0543
53002SOL    HW163817   9.215  12.517   2.013  0.3447  0.1819  2.6088
53002SOL    HW263818   9.332  12.499   1.917 -1.3917 -0.8274  0.6032
53003SOL     OW63819  10.799   4.718   8.884  0.5567  0.6710 -0.2923
53003SOL    HW163820  10.771   4.630   8.907 -1.7283  1.3979 -0.0512
53003SOL    HW263821  10.790   4.768   8.965  1.1961  1.2738 -0.5831
53004SOL     OW63822  11.367   9.333   0.294 -0.0238 -0.3806  0.0295
53004SOL    HW163823  11.318   9.413   0.312  2.5630  0.9325  1.7736
53004SOL    HW263824  11.405   9.347   0.207  0.8370  0.5457  0.5404
53005SOL     OW63825   9.241   6.178   1.718 -0.1768  0.4167 -0.3128
53005SOL    HW163826   9.281   6.095   1.689  0.3510  0.9048 -1.0344
53005SOL    HW263827   9.246   6.175   1.813 -1.2914 -0.9244 -0.2768
53006SOL     OW63828   7.832   1.769   2.995 -0.4698  0.3004  0.1583
53006SOL    HW163829   7.739   1.763   3.019 -0.3444  1.3536  0.9637
53006SOL    HW263830   7.839   1.715   2.916 -1.5294 -0.7520  0.7341
53007SOL     OW63831   4.976   4.405   1.483  0.6876  0.1846  0.3258
53007SOL    HW163832   4.966   4.447   1.398  0.5171  1.5137  0.9853
53007SOL    HW263833   4.964   4.475   1.547  2.2372 -0.4853  1.4280
53008SOL     OW63834   5.018   9.037   9.396  0.1034 -0.0677  0.4022
53008SOL    HW163835   4.981   8.975   9.459  0.4530  0.7938  1.4914
53008SOL    HW263836   5.091   9.078   9.443  1.6102 -0.7492 -1.2259
53009SOL     OW63837   0.715   6.162   7.612 -0.3333 -0.1056  0.0815
53009SOL    HW163838   0.641   6.110   7.581 -0.7325  0.6068 -0.1600
53009SOL    HW263839   0.756   6.107   7.679  0.7059 -1.8184 -1.8326
53010SOL     OW63840  10.800   0.339   7.126 -0.3290  0.1173 -0.4213
53010SOL    HW163841  10.839   0.404   7.184  2.9098 -0.4691 -1.7302
53010SOL    HW263842  10.874   0.284   7.098 -2.2712 -1.6478 -2.5141
53011SOL     OW63843   0.289   8.227   8.476 -0.4048 -0.0004 -0.4152
53011SOL    HW163844   0.360   8.292   8.476 -0.0314 -0.3787 -1.6128
53011SOL    HW263845   0.216   8.271   8.518  0.5071  0.4293  0.8018
53012SOL     OW63846   9.055   2.817   0.343 -0.1815  0.3516  0.3888
53012SOL    HW163847   8.981   2.757   0.338 -0.4579  0.6520  0.7844
53012SOL    HW263848   9.072   2.841   0.252  0.5205 -1.0161  0.1309
53013SOL     OW63849   8.889  10.859   4.868  0.1620  0.0516  0.1086
53013SOL    HW163850   8.890  10.788   4.932 -0.5241  0.4092  0.5304
53013SOL    HW263851   8.970  10.848   4.818  1.2949  0.4180  1.7754
53014SOL     OW63852   3.601   0.620   7.799 -0.0092 -0.0189  0.0007
53014SOL    HW163853   3.553   0.699   7.774  0.3817  0.3991  0.5494
53014SOL    HW263854   3.582   0.558   7.729  0.0714  0.7231 -0.6951
53015SOL     OW63855   3.895   1.500   1.073  0.0047 -0.1577 -0.2084
53015SOL    HW163856   3.927   1.524   1.160 -1.7939  0.5549  0.3049
53015SOL    HW263857   3.974   1.500   1.018  1.1297 -0.2810  1.3228
53016SOL     OW63858   2.941   3.183   1.335 -0.4283  0.5508  0.4666
53016SOL    HW163859   2.919   3.275   1.349  0.4473  0.9154 -0.5182
53016SOL    HW263860   2.897   3.160   1.254 -1.4523 -0.1960  1.2035
53017SOL     OW63861   1.648   0.891   0.109  0.3273  0.0492 -0.3989
53017SOL    HW163862   1.717   0.955   0.095  2.9890 -1.6120  3.2964
53017SOL    HW263863   1.575   0.941   0.143  1.2244  1.4638 -0.4737
53018SOL     OW63864   2.293   6.215   2.080  0.5101  0.5293  0.3224
53018SOL    HW163865   2.339   6.298   2.087  1.2677  0.1768 -0.4155
53018SOL    HW263866   2.262   6.198   2.170  0.1650  1.6895  0.4402
53019SOL     OW63867   9.285   3.406   7.607 -0.1290  0.0046  0.0019
53019SOL    HW163868   9.232   3.481   7.634 -0.3046 -0.2483  0.3607
53019SOL    HW263869   9.262   3.337   7.668 -0.2794 -0.4731 -0.5877
53020SOL     OW63870   7.961   5.087   3.269  0.3618 -0.1006  0.3273
53020SOL    HW163871   7.963   4.994   3.245 -0.6326  0.0592 -0.3959
53020SOL    HW263872   7.916   5.089   3.354 -0.3574 -0.2054 -0.0458
53021SOL     OW63873  11.279   4.468  10.711  0.5290  0.0834  0.1799
53021SOL    HW163874  11.373   4.479  10.730  0.6394 -0.0759 -0.2693
53021SOL    HW263875  11.261   4.377  10.736  0.3295  0.3189  0.9278
53022SOL     OW63876  10.741   4.165  11.465  0.3677  0.1685  0.2247
53022SOL    HW163877  10.797   4.242  11.475 -0.0893  0.6154 -0.5861
53022SOL    HW263878  10.785   4.112  11.399 -0.0601  0.4345 -0.2823
53023SOL     OW63879   0.611   2.797   7.734  0.2042 -0.6004  0.2305
53023SOL    HW163880   0.595   2.863   7.666  0.0823 -0.3109  0.5392
53023SOL    HW263881   0.543   2.731   7.718  0.0501 -0.4348  0.1923
53024SOL     OW63882  10.802   1.939   7.725 -0.2997  0.2770 -0.1189
53024SOL    HW163883  10.814   1.997   7.650 -0.0385  0.4145  0.0294
53024SOL    HW263884  10.890   1.917   7.753 -0.3647  1.2691  0.9536
53025SOL     OW63885   4.454   3.654  10.066  0.1274  0.2016 -0.0209
53025SOL    HW163886   4.410   3.577  10.102 -1.2380  0.2315 -1.4905
53025SOL    HW263887   4.384   3.707  10.029  1.3087  0.6407 -1.7773
53026SOL     OW63888   3.192   1.033   4.297  0.0647  0.4552  0.1414
53026SOL    HW163889   3.124   1.078   4.248  0.4202  0.7977 -0.0445
53026SOL    HW263890   3.252   0.999   4.230  1.6444  2.6296  0.3318
53027SOL     OW63891  12.113   6.081   4.316  0.1534 -0.2040  0.1200
53027SOL    HW163892  12.142   5.997   4.354  0.2404  0.1805  0.9369
53027SOL    HW263893  12.189   6.138   4.326  0.1911 -0.1052 -0.6989
53028SOL     OW63894   3.510  11.714  11.727 -0.0342 -0.3789  0.3187
53028SOL    HW163895   3.437  11.676  11.678  0.9862 -0.4164 -1.2582
53028SOL    HW263896   3.518  11.803  11.692  0.3815 -0.2250  0.8072
53029SOL     OW63897   2.228   0.646   4.357  0.4100  0.4775 -0.4402
53029SOL    HW163898   2.262   0.601   4.435  1.3198  0.9965 -0.5237
53029SOL    HW263899   2.291   0.716   4.341 -1.3755  2.2861  0.1373
53030SOL     OW63900   7.148   3.702   7.535  0.7135 -0.2739 -0.3421
53030SOL    HW163901   7.161   3.795   7.550 -0.6427 -0.1542  0.2045
53030SOL    HW263902   7.237   3.667   7.527  1.3695  0.6930  1.7927
53031SOL     OW63903   7.613   1.453   0.951  0.1598 -0.0185  0.4466
53031SOL    HW163904   7.605   1.419   1.040 -1.0099 -0.4394  0.1908
53031SOL    HW263905   7.648   1.380   0.900 -0.5374 -0.2463  0.2825
53032SOL     OW63906   0.708   1.887   1.404  0.2215 -0.5531 -0.1593
53032SOL    HW163907   0.727   1.821   1.470  0.9381  0.6412  0.8726
53032SOL    HW263908   0.612   1.888   1.398  0.0434  0.2841  1.9319
53033SOL     OW63909   6.358  11.081   5.791  0.0573  0.4189 -0.3022
53033SOL    HW163910   6.301  11.134   5.735  1.9111  2.0820 -0.7689
53033SOL    HW263911   6.363  11.130   5.873  1.3148  0.6863 -0.5171
53034SOL     OW63912   5.020   6.525   8.895  0.8716 -1.2551 -0.3959
53034SOL    HW163913   4.937   6.505   8.938  1.2167  0.4771  1.2458
53034SOL    HW263914   5.000   6.522   8.802 -0.3639 -3.3835 -0.1268
53035SOL     OW63915   2.158   3.437   5.304 -0.2794 -0.5870 -0.0219
53035SOL    HW163916   2.241   3.443   5.258 -0.3781  0.4964 -0.0806
53035SOL    HW263917   2.155   3.515   5.360 -0.0612 -1.9506  2.0115
53036SOL     OW63918   5.124   6.942   4.957 -0.0414 -0.3534  0.6105
53036SOL    HW163919   5.108   6.851   4.983  0.8631 -0.7846 -0.2701
53036SOL    HW263920   5.135   6.939   4.862  1.2637  0.4526  0.7034
53037SOL     OW63921   9.071   1.928   3.398 -0.2488  0.0432 -0.3628
53037SOL    HW163922   8.982   1.954   3.422 -0.8838 -1.2709 -1.1548
53037SOL    HW263923   9.114   1.910   3.482 -0.8458  0.3235  0.0105
53038SOL     OW63924  10.571   7.788   7.595  0.3228  0.1977 -0.4690
53038SOL    HW163925  10.478   7.787   7.572  0.2798 -1.2780 -0.3046
53038SOL    HW263926  10.599   7.696   7.589  1.4912  0.4474  0.6126
53039SOL     OW63927   0.538   6.565   1.722 -0.0934  0.0553 -0.4419
53039SOL    HW163928   0.585   6.545   1.640 -2.0622 -1.7729 -1.2302
53039SOL    HW263929   0.475   6.632   1.698  0.2769  0.5531 -0.0454
53040SOL     OW63930   9.578   1.337   6.915  0.8053  0.1553 -0.2340
53040SOL    HW163931   9.539   1.281   6.982  1.4857 -0.4691 -0.3434
53040SOL    HW263932   9.652   1.287   6.882  1.9604  1.4813  0.2634
53041SOL     OW63933   2.398   7.729   0.631 -0.1113  0.4393  0.2836
53041SOL    HW163934   2.400   7.730   0.726 -0.5254  1.4296  0.3034
53041SOL    HW263935   2.344   7.653   0.608  0.2050  0.0499  0.8271
53042SOL     OW63936   2.872   3.520   9.566  0.1658 -0.0376 -0.1526
53042SOL    HW163937   2.907   3.430   9.563  0.2848 -0.0145  0.4767
53042SOL    HW263938   2.830   3.531   9.481  1.3376 -0.2154 -0.7886
53043SOL     OW63939   3.224   3.794  10.059  0.0924  0.2194 -0.4322
53043SOL    HW163940   3.156   3.846  10.015  0.0998  0.0111 -0.6909
53043SOL    HW263941   3.198   3.795  10.151 -0.5567 -0.3019 -0.6007
53044SOL     OW63942   6.690   5.463   1.315 -0.1947 -0.8344  0.1608
53044SOL    HW163943   6.736   5.411   1.249 -0.0195 -1.0649  0.4588
53044SOL    HW263944   6.669   5.545   1.271  1.5956 -0.2240  0.3706
53045SOL     OW63945  11.896  10.547   7.934 -0.1472  0.4212 -0.1412
53045SOL    HW163946  11.960  10.609   7.970  1.3184 -1.0400 -0.0769
53045SOL    HW263947  11.946  10.466   7.921 -1.9912 -0.7915 -0.1342
53046SOL     OW63948  12.169  12.519  11.031 -0.3552  0.0137 -0.2935
53046SOL    HW163949  12.205  12.556  11.112  1.3036 -1.5716 -0.2253
53046SOL    HW263950  12.244  12.515  10.971 -0.1792 -3.6592 -0.0933
53047SOL     OW63951  10.477  11.400  10.102 -0.4520 -0.1457 -0.1842
53047SOL    HW163952  10.482  11.490  10.071  0.8498  0.2292  1.0361
53047SOL    HW263953  10.547  11.354  10.057 -0.0210 -0.1360  0.4635
53048SOL     OW63954   3.168   3.594   5.665 -0.4681  0.1340  0.1474
53048SOL    HW163955   3.147   3.516   5.614  1.2891 -0.3783  0.1434
53048SOL    HW263956   3.261   3.610   5.647 -0.7003  1.9978  0.4689
53049SOL     OW63957   7.043   6.833   6.865 -0.1136  0.0947  0.1570
53049SOL    HW163958   7.018   6.804   6.777  0.0646 -0.1653  0.1938
53049SOL    HW263959   6.968   6.887   6.894  0.1904  0.8894 -0.4875
53050SOL     OW63960   1.879   9.522  11.358 -0.0045 -0.0523  0.7800
53050SOL    HW163961   1.912   9.439  11.323  1.8372  0.0533  2.1087
53050SOL    HW263962   1.786   9.506  11.374 -0.1802 -1.1231 -1.0279
53051SOL     OW63963   3.906   5.760   6.570  0.0674 -0.1720 -0.5174
53051SOL    HW163964   3.861   5.811   6.502  0.5240  0.9340 -0.0148
53051SOL    HW263965   3.852   5.771   6.648 -0.3082 -1.2180 -0.6165
53052SOL     OW63966   0.421   3.187   8.865 -0.1152 -0.5223 -0.3933
53052SOL    HW163967   0.342   3.133   8.869  0.1701 -0.9928 -0.8968
53052SOL    HW263968   0.390   3.276   8.882 -0.5034 -0.9173  1.0784
53053SOL     OW63969   0.015   8.457   6.977 -0.6191  0.5191 -0.1567
53053SOL    HW163970   0.042   8.368   6.997  0.3498  1.1103  1.3947
53053SOL    HW263971  -0.043   8.449   6.901 -1.5065 -1.5357  0.6720
53054SOL     OW63972   1.607   7.917   1.436  0.4794 -0.4879  0.6959
53054SOL    HW163973   1.546   7.991   1.428  2.0235  0.6309 -1.8009
53054SOL    HW263974   1.589   7.881   1.523 -0.2418  2.8959  2.1098
53055SOL     OW63975   4.307  11.391   0.079 -0.4836 -0.5156 -0.3609
53055SOL    HW163976   4.299  11.343  -0.004  0.8839 -1.7904  0.1884
53055SOL    HW263977   4.308  11.322   0.145 -0.6424  0.4323  0.6404
53056SOL     OW63978  11.451   5.115   2.277  0.0388 -0.3659  0.4720
53056SOL    HW163979  11.415   5.202   2.261 -0.4871 -0.7548 -0.6092
53056SOL    HW263980  11.377   5.056   2.261  0.3698 -1.0114  1.2686
53057SOL     OW63981   9.519   3.457   3.626 -0.6205 -0.1202 -0.4664
53057SOL    HW163982   9.604   3.489   3.655 -0.5822 -1.0554  0.4892
53057SOL    HW263983   9.490   3.523   3.562  0.4438  0.6286 -0.2137
53058SOL     OW63984  10.002   1.817   5.843  0.0833 -0.3109 -0.0402
53058SOL    HW163985   9.915   1.851   5.865 -0.3169 -1.4960  0.2851
53058SOL    HW263986   9.991   1.722   5.842  1.2725 -0.4588 -0.4669
53059SOL     OW63987   1.377   7.282   1.749 -0.2218 -0.1427  0.1288
53059SOL    HW163988   1.361   7.361   1.800  0.6528 -0.6022  1.1414
53059SOL    HW263989   1.467   7.291   1.718 -0.8214  0.2582 -1.5971
53060SOL     OW63990   1.151   5.796   3.133 -0.4255  0.5223 -0.1407
53060SOL    HW163991   1.245   5.794   3.152 -0.5882  0.6117  0.6696
53060SOL    HW263992   1.129   5.705   3.112 -0.5077  0.1607  1.4112
53061SOL     OW63993   7.444   7.208  11.392 -0.3646 -0.3790 -0.6498
53061SOL    HW163994   7.450   7.210  11.487  0.9205 -0.5902 -0.7039
53061SOL    HW263995   7.524   7.251  11.362 -1.6357  1.3886 -1.6598
53062SOL     OW63996   1.235   2.372  11.150  0.3446  0.1762  0.2922
53062SOL    HW163997   1.291   2.430  11.201  1.2208  0.1060 -0.5627
53062SOL    HW263998   1.189   2.430  11.089  1.4922 -0.0213 -0.8122
53063SOL     OW63999   0.755   2.088   9.392  0.2067  0.6963 -0.7562
53063SOL    HW164000   0.701   2.046   9.326  0.5246  1.1814 -1.3350
53063SOL    HW264001   0.760   2.180   9.365 -1.1507  1.3146  0.9142
53064SOL     OW64002  10.687   8.437   2.014  0.3819  0.0843  0.1848
53064SOL    HW164003  10.658   8.398   1.931  1.5397  0.9147 -0.6465
53064SOL    HW264004  10.657   8.376   2.081 -0.4173 -0.7070 -0.8587
53065SOL     OW64005  10.905   0.228   9.736  0.0549 -0.2055 -0.0601
53065SOL    HW164006  10.923   0.281   9.658  2.4640 -1.0006 -0.1301
53065SOL    HW264007  10.984   0.175   9.748 -1.8529 -3.1780  0.5067
53066SOL     OW64008   4.802   1.191   2.048 -0.5407 -0.1183  0.1815
53066SOL    HW164009   4.800   1.199   2.143 -1.0151  1.4569  0.0697
53066SOL    HW264010   4.747   1.115   2.029  0.2102 -0.9449  1.1845
53067SOL     OW64011   1.290   2.884   4.872  0.0660 -0.1688 -0.5796
53067SOL    HW164012   1.322   2.837   4.795  0.3047 -0.1606 -0.4867
53067SOL    HW264013   1.320   2.974   4.859 -0.5824  0.0097 -0.8679
53068SOL     OW64014   9.464   2.996   2.687  0.4286  0.0298  0.4864
53068SOL    HW164015   9.428   3.077   2.725  1.6267  1.5999 -1.5239
53068SOL    HW264016   9.494   3.022   2.600  3.9005 -1.7674  0.9779
53069SOL     OW64017   8.538   8.482   1.032  0.9380 -0.2351 -0.7193
53069SOL    HW164018   8.472   8.422   1.069  0.1721  0.6872 -0.5556
53069SOL    HW264019   8.571   8.531   1.107 -0.6100  1.6362 -1.1804
53070SOL     OW64020   9.184  11.118   7.939  0.0032 -0.1911  0.4213
53070SOL    HW164021   9.262  11.170   7.957  0.7338 -1.1118 -0.0047
53070SOL    HW264022   9.120  11.147   8.004  0.7148  0.5417  0.8064
53071SOL     OW64023   8.381   2.195   4.840  0.1059  0.4283  0.3451
53071SOL    HW164024   8.372   2.114   4.890 -0.7071  0.0648 -0.3694
53071SOL    HW264025   8.473   2.196   4.813 -0.4283 -1.5891 -1.8333
53072SOL     OW64026   7.844   4.584   7.989  0.5857 -0.0546  0.7695
53072SOL    HW164027   7.825   4.633   7.909  2.1556  0.0229  0.3943
53072SOL    HW264028   7.931   4.614   8.015  2.1958 -3.4002 -0.1418
53073SOL     OW64029   7.165   3.990   3.634  0.1397 -0.1925 -0.1941
53073SOL    HW164030   7.162   3.895   3.648 -0.9320 -0.3096 -1.0079
53073SOL    HW264031   7.164   4.027   3.722 -2.8133 -0.9218  0.2236
53074SOL     OW64032  11.462   4.554   6.461 -0.0931  0.2135  0.0017
53074SOL    HW164033  11.488   4.505   6.539  0.5203 -0.4614 -0.6074
53074SOL    HW264034  11.371   4.530   6.447  0.0434 -0.3379  0.0263
53075SOL     OW64035   0.522   8.858   8.774  0.0580 -0.0225  0.3363
53075SOL    HW164036   0.602   8.839   8.725 -0.4559 -0.7527 -0.2426
53075SOL    HW264037   0.479   8.927   8.723  0.3186  0.3742  0.6508
53076SOL     OW64038   0.208  11.515   6.995  0.0565  0.2237 -0.1084
53076SOL    HW164039   0.266  11.456   7.044  1.5688  1.0636 -0.8057
53076SOL    HW264040   0.193  11.589   7.054 -0.4495 -0.0687  0.1333
53077SOL     OW64041  12.494  10.943  10.846  1.0465 -0.3839  0.3568
53077SOL    HW164042  12.477  10.856  10.810  3.1319 -0.7546  0.1452
53077SOL    HW264043  12.527  10.926  10.934  0.9591  0.2330  0.5137
53078SOL     OW64044  11.555   2.668   5.222 -0.2696 -0.3332  0.1288
53078SOL    HW164045  11.624   2.607   5.197  0.5091  0.3907  0.4528
53078SOL    HW264046  11.484   2.651   5.160  0.6503 -0.2800 -0.9696
53079SOL     OW64047   9.346   7.228   5.453 -0.3143  0.1562  0.6491
53079SOL    HW164048   9.386   7.297   5.505 -2.0845 -0.2525  2.6939
53079SOL    HW264049   9.404   7.153   5.464 -0.2290  0.3218  1.3770
53080SOL     OW64050  12.510  10.540  10.540  0.4689 -0.7794  0.1866
53080SOL    HW164051  12.547  10.528  10.453  0.1749 -0.4139  0.0069
53080SOL    HW264052  12.421  10.506  10.533 -0.5976  1.8515 -0.5064
53081SOL     OW64053   2.262   0.197   8.719 -0.1597  0.5535  0.4480
53081SOL    HW164054   2.184   0.210   8.773 -0.3342  0.3150  0.2560
53081SOL    HW264055   2.228   0.160   8.637  0.1446  0.5458  0.3246
53082SOL     OW64056   3.488   0.723  12.201  0.2838  0.4227 -0.9380
53082SOL    HW164057   3.416   0.781  12.177 -0.3376 -0.6582 -1.7922
53082SOL    HW264058   3.447   0.638  12.216  1.1442  0.2366  0.5574
53083SOL     OW64059   1.720   0.544   8.486  0.0176  0.7378 -0.5195
53083SOL    HW164060   1.725   0.603   8.411 -3.0841  0.3526 -1.1465
53083SOL    HW264061   1.689   0.600   8.558  0.8798  0.6339 -0.0445
53084SOL     OW64062   7.829  10.804   2.833 -0.1325 -0.5313 -0.3820
53084SOL    HW164063   7.757  10.773   2.778  0.9559 -3.2051 -0.4618
53084SOL    HW264064   7.804  10.778   2.922 -0.1583  0.3607 -0.1189
53085SOL     OW64065   3.293   5.524  12.560  0.0027 -0.6778  0.7516
53085SOL    HW164066   3.317   5.448  12.508  0.4758 -1.0983  1.5709
53085SOL    HW264067   3.352   5.522  12.636  0.2778  0.7025  0.6114
53086SOL     OW64068   1.198   4.841   6.154  0.1635  0.8310  0.4295
53086SOL    HW164069   1.292   4.861   6.158  0.3441  0.3451 -0.9151
53086SOL    HW264070   1.164   4.902   6.089  0.5958 -2.4752 -3.2657
53087SOL     OW64071   6.611   9.894   1.946  0.1931 -0.5688 -0.4078
53087SOL    HW164072   6.571   9.835   1.882 -0.0860 -0.7971 -0.0218
53087SOL    HW264073   6.638   9.837   2.018  0.6437 -0.3316 -0.3829
53088SOL     OW64074   1.013   6.929  11.307  0.1252  0.1153  0.0091
53088SOL    HW164075   0.991   6.940  11.215  1.3278 -0.9920 -0.4385
53088SOL    HW264076   1.104   6.957  11.313  0.4698 -1.0946  0.5862
53089SOL     OW64077  11.978   0.886  10.045  0.0599  0.0723  0.8246
53089SOL    HW164078  12.066   0.919  10.065  0.2671 -0.2383  0.4443
53089SOL    HW264079  11.954   0.928   9.963 -1.5801  2.8401  2.5590
53090SOL     OW64080   0.350  12.356   5.939  0.5794 -0.1300 -0.5857
53090SOL    HW164081   0.323  12.416   6.009  1.4311  0.5559 -0.8279
53090SOL    HW264082   0.313  12.393   5.859 -0.5424 -1.0103 -0.5032
53091SOL     OW64083  11.080   6.954   3.537 -0.0476 -0.2225  0.4468
53091SOL    HW164084  11.018   7.023   3.559  0.6543 -0.4268  3.4052
53091SOL    HW264085  11.166   6.994   3.546  0.3490 -1.2227  1.3425
53092SOL     OW64086   4.856   1.799   1.038  0.5882 -0.3205  0.3086
53092SOL    HW164087   4.844   1.810   1.133  0.8696 -0.5569  0.3710
53092SOL    HW264088   4.918   1.728   1.030 -0.2244 -1.0023 -0.0811
53093SOL     OW64089   0.162   5.189  12.450 -0.1214 -0.2542 -0.3267
53093SOL    HW164090   0.164   5.282  12.473 -1.2989 -0.7268  1.9646
53093SOL    HW264091   0.116   5.185  12.367 -0.4567  1.1726 -0.2257
53094SOL     OW64092   1.625   4.677   0.697 -0.0175 -0.1441  0.4810
53094SOL    HW164093   1.645   4.653   0.788 -0.1495 -1.5348  0.1680
53094SOL    HW264094   1.667   4.608   0.645  0.1037  0.6715 -0.5230
53095SOL     OW64095  11.547   4.653   1.480  0.5743  0.3148  0.0273
53095SOL    HW164096  11.570   4.704   1.403 -2.0249  0.0494 -1.0511
53095SOL    HW264097  11.483   4.589   1.448 -0.3890  0.0012  2.3448
53096SOL     OW64098   8.553   6.457   8.213  0.0026 -0.4278  0.3137
53096SOL    HW164099   8.469   6.468   8.257 -0.0418  0.8311 -0.0321
53096SOL    HW264100   8.552   6.367   8.181 -0.0368 -1.3239  2.6741
53097SOL     OW64101   0.861  11.613   6.374 -0.0096 -0.0249  0.0227
53097SOL    HW164102   0.866  11.635   6.467  1.2478  1.7021 -0.3974
53097SOL    HW264103   0.768  11.618   6.352 -0.3746 -0.9387  1.2713
53098SOL     OW64104   4.285   9.447   1.108 -0.0385  0.2846  0.4459
53098SOL    HW164105   4.348   9.510   1.074 -0.6306 -0.3954 -2.1412
53098SOL    HW264106   4.339   9.374   1.139  0.5484 -0.4921 -2.1478
53099SOL     OW64107   2.516  11.722  10.381  0.2769  0.0190 -0.4821
53099SOL    HW164108   2.535  11.670  10.303  0.6617 -0.4951 -0.0442
53099SOL    HW264109   2.595  11.716  10.435 -0.6518 -1.1439  0.7924
53100SOL     OW64110   3.307   7.712   1.079  0.3175 -0.7819 -0.0907
53100SOL    HW164111   3.339   7.802   1.088  0.5457 -0.9744  1.2289
53100SOL    HW264112   3.222   7.721   1.036  0.2541  0.0841  0.1936
53101SOL     OW64113  10.726   4.837   9.133 -0.2631  1.2108 -0.8732
53101SOL    HW164114  10.803   4.822   9.188 -0.7650  0.8757 -0.2355
53101SOL    HW264115  10.696   4.924   9.158 -0.3849  1.1324 -0.7425
53102SOL     OW64116   5.095   1.433   8.354 -0.2148 -0.4015 -0.5769
53102SOL    HW164117   5.077   1.387   8.272  1.6295 -1.5941 -0.3840
53102SOL    HW264118   5.173   1.389   8.389 -1.3382 -0.4115  2.1782
53103SOL     OW64119   5.533   2.247  10.298 -0.1369  0.6792  0.2320
53103SOL    HW164120   5.615   2.197  10.292 -0.8891 -1.0513  2.8211
53103SOL    HW264121   5.562   2.338  10.310  1.3297  0.4432 -1.1478
53104SOL     OW64122   0.130   7.720   1.468  0.2813  0.4590 -0.6363
53104SOL    HW164123   0.224   7.736   1.475  0.0859  1.1694  0.6586
53104SOL    HW264124   0.089   7.800   1.502 -0.7541 -0.8035  1.2924
53105SOL     OW64125  10.800   2.905   7.785 -0.5069  0.1527 -0.3703
53105SOL    HW164126  10.835   2.968   7.849 -0.9678 -0.1176  0.1497
53105SOL    HW264127  10.761   2.836   7.838 -1.5796  0.3018 -0.9396
53106SOL     OW64128   4.936   6.350   7.092 -0.5792 -0.0095  0.2018
53106SOL    HW164129   5.012   6.361   7.034 -1.5965  1.8658 -0.8954
53106SOL    HW264130   4.969   6.374   7.179  0.7956 -2.1568  0.3397
53107SOL     OW64131  11.689   3.495  12.268 -0.7881 -0.0468  0.4583
53107SOL    HW164132  11.654   3.578  12.300  0.9895  0.2102  1.9182
53107SOL    HW264133  11.662   3.431  12.334 -0.5057 -0.2501  0.3786
53108SOL     OW64134   1.601   3.797   2.646 -0.3828 -0.3603 -0.1140
53108SOL    HW164135   1.664   3.732   2.612 -0.6683  0.3182 -2.0996
53108SOL    HW264136   1.645   3.836   2.722  0.6169 -1.5022 -0.0799
53109SOL     OW64137   2.678   8.821  12.503 -0.3637 -0.1409 -0.1684
53109SOL    HW164138   2.597   8.782  12.538 -0.2332  0.0892  0.4114
53109SOL    HW264139   2.654   8.852  12.416 -0.8931 -0.1206 -0.0213
53110SOL     OW64140  11.534   7.130   1.996 -0.1975 -0.5185  0.5558
53110SOL    HW164141  11.563   7.200   1.937 -1.4195 -0.9399 -0.5714
53110SOL    HW264142  11.485   7.175   2.064  1.6294  0.0267  1.5995
53111SOL     OW64143   6.394   2.758   7.926 -0.0728  0.3421 -0.2535
53111SOL    HW164144   6.346   2.676   7.917  0.3327  0.0776 -0.0609
53111SOL    HW264145   6.369   2.792   8.012  0.7220 -0.2255  0.2161
53112SOL     OW64146  12.480   5.387   2.968  0.0815  0.3886 -0.2864
53112SOL    HW164147  12.556   5.333   2.990  0.4272  1.0852  0.2430
53112SOL    HW264148  12.517   5.467   2.931 -0.4454 -0.8921 -4.0440
53113SOL     OW64149   2.198  11.334   5.166 -0.3298  0.0789 -0.2453
53113SOL    HW164150   2.176  11.425   5.187  0.1367  0.4146 -1.1594
53113SOL    HW264151   2.134  11.283   5.216 -0.6376  0.9046  0.2422
53114SOL     OW64152   0.227   2.028  12.096 -0.2202  0.6013 -0.3316
53114SOL    HW164153   0.322   2.030  12.083 -0.2355 -0.3217 -0.6610
53114SOL    HW264154   0.216   2.014  12.190  0.0654 -2.9498 -0.6894
53115SOL     OW64155   9.836   6.835   6.424 -0.4928 -0.2055 -0.1770
53115SOL    HW164156   9.819   6.902   6.490 -1.4280 -0.7467  0.1406
53115SOL    HW264157   9.838   6.752   6.473  0.9054 -0.4177 -0.5238
53116SOL     OW64158   9.733   6.980  11.727 -0.3750 -0.2633 -0.4711
53116SOL    HW164159   9.720   7.023  11.812  0.9178 -1.0138  0.1405
53116SOL    HW264160   9.795   7.038  11.681  0.6429 -0.9597 -0.0118
53117SOL     OW64161   4.844   2.412   5.169 -0.1278  0.0150 -0.3034
53117SOL    HW164162   4.798   2.417   5.085  0.8498  0.6277 -0.8143
53117SOL    HW264163   4.935   2.432   5.148  0.3518 -0.9979  0.7266
53118SOL     OW64164  12.138   3.727   4.847  0.4048 -0.1761 -0.0306
53118SOL    HW164165  12.101   3.640   4.833 -0.2155  0.1465 -0.3972
53118SOL    HW264166  12.224   3.723   4.804  0.0679 -0.3716 -0.6890
53119SOL     OW64167   0.914   0.365   2.798 -0.6755 -0.3078 -0.7409
53119SOL    HW164168   0.885   0.455   2.813  1.8302  0.6761 -1.3796
53119SOL    HW264169   0.963   0.342   2.877 -1.7701 -1.3539 -0.3383
53120SOL     OW64170   9.926   2.398   1.736  0.2126 -0.5501 -0.1325
53120SOL    HW164171   9.977   2.365   1.662  0.2104 -0.2890 -0.2519
53120SOL    HW264172   9.860   2.330   1.751  1.0410 -1.2242  0.4931
53121SOL     OW64173   9.865   5.789   0.935 -0.3774  0.1123  0.3228
53121SOL    HW164174   9.940   5.832   0.895 -1.7987  1.6571 -0.8645
53121SOL    HW264175   9.843   5.843   1.011 -1.6653  1.0847 -0.6926
53122SOL     OW64176   2.459   8.056   4.566 -0.0786 -0.4723  0.6970
53122SOL    HW164177   2.461   7.971   4.612  1.4551 -0.6360  0.3835
53122SOL    HW264178   2.511   8.114   4.622 -1.1269  0.2951  0.9142
53123SOL     OW64179   8.151   5.332   7.848 -0.1953  0.3200 -0.1148
53123SOL    HW164180   8.068   5.288   7.829 -0.1828 -0.3036  1.1232
53123SOL    HW264181   8.212   5.261   7.869  0.7982  0.7356 -1.4208
53124SOL     OW64182  11.404   0.404   0.813 -0.2480  0.2755 -0.0951
53124SOL    HW164183  11.357   0.487   0.817 -0.6132  0.0354  0.9881
53124SOL    HW264184  11.437   0.391   0.902 -1.3173 -1.3684  0.1090
53125SOL     OW64185   6.637   2.261   0.554  0.2743  0.0926 -0.4405
53125SOL    HW164186   6.545   2.238   0.542  0.1461  0.4732 -0.2101
53125SOL    HW264187   6.657   2.234   0.644  0.6920 -0.9736 -0.8375
53126SOL     OW64188   7.862   2.234  10.072  0.1643  0.2664  0.2679
53126SOL    HW164189   7.892   2.324  10.077 -0.7033  0.6136 -0.4140
53126SOL    HW264190   7.912   2.188  10.138  2.5196  0.6913 -1.1077
53127SOL     OW64191   0.617   0.608   9.759  0.3341 -0.3449  0.1472
53127SOL    HW164192   0.615   0.701   9.780  0.3409 -0.0912 -0.9173
53127SOL    HW264193   0.573   0.601   9.674 -1.7292 -1.5999  1.2255
53128SOL     OW64194  10.126  10.610   9.648 -0.7880  0.3820 -0.7517
53128SOL    HW164195  10.137  10.622   9.554  1.3308 -0.7798 -0.7129
53128SOL    HW264196  10.208  10.571   9.677 -0.8615  1.9214  1.8192
53129SOL     OW64197   5.159  11.780   9.454 -0.3918  0.3798 -0.4311
53129SOL    HW164198   5.194  11.862   9.418  0.3121  0.5090  0.5262
53129SOL    HW264199   5.165  11.791   9.549 -0.2361 -0.8087 -0.2977
53130SOL     OW64200  11.842   2.485   9.554  0.3162  0.5987  0.2293
53130SOL    HW164201  11.762   2.492   9.502  0.0085  0.3843  0.6668
53130SOL    HW264202  11.855   2.391   9.566  2.0379  0.4804 -1.9556
53131SOL     OW64203   2.629   0.953   9.313 -0.2947 -0.0737  0.3644
53131SOL    HW164204   2.550   0.950   9.259  0.0000  1.4622 -0.2150
53131SOL    HW264205   2.601   0.923   9.399 -1.9029  1.9015  0.6030
53132SOL     OW64206  11.323   6.669   6.729  0.1524 -0.1837  0.3723
53132SOL    HW164207  11.256   6.656   6.662  0.9162  0.7201 -0.5879
53132SOL    HW264208  11.359   6.756   6.711  1.0771 -0.3508  1.3291
53133SOL     OW64209   1.818   4.585   3.416 -1.0058 -0.0682 -0.5981
53133SOL    HW164210   1.727   4.592   3.390 -1.0090  1.6831 -0.1952
53133SOL    HW264211   1.817   4.526   3.492 -1.4933 -1.7702 -1.8554
53134SOL     OW64212   9.949   8.356   8.844  0.2405 -0.2816 -0.1014
53134SOL    HW164213  10.022   8.302   8.874  0.6801 -0.6285 -1.6776
53134SOL    HW264214   9.981   8.446   8.851  0.5660 -0.3922 -0.1426
53135SOL     OW64215  10.347   1.623   5.634 -0.2936  0.1648 -0.7138
53135SOL    HW164216  10.426   1.577   5.661 -0.9660 -0.5604  0.0632
53135SOL    HW264217  10.379   1.706   5.599  0.7906  0.0430 -0.0661
53136SOL     OW64218   5.319   8.844  12.569  0.2063  0.1198  0.6824
53136SOL    HW164219   5.380   8.918  12.572 -0.0517  0.2971  2.2095
53136SOL    HW264220   5.261   8.858  12.644  0.7650 -2.1515  1.6269
53137SOL     OW64221   4.107   2.156   5.041  0.1307 -0.0504  0.4135
53137SOL    HW164222   4.102   2.068   5.078 -2.0224 -0.0166  0.3419
53137SOL    HW264223   4.069   2.213   5.108  1.5600  0.8688  0.4846
53138SOL     OW64224  10.771   6.906   8.124 -0.2684  0.5245 -0.1503
53138SOL    HW164225  10.751   6.999   8.116 -0.0006  0.4876 -1.5656
53138SOL    HW264226  10.774   6.890   8.218 -1.0792  1.7735  0.1128
53139SOL     OW64227   4.571   0.103   8.046 -0.5281 -0.7060 -0.2247
53139SOL    HW164228   4.611   0.189   8.061 -0.1479 -0.4653 -2.3993
53139SOL    HW264229   4.578   0.059   8.131  1.9717  0.3088  0.1684
53140SOL     OW64230   6.141   2.451   0.376 -0.3874 -0.1683  0.2281
53140SOL    HW164231   6.194   2.482   0.449 -0.6161  0.2829  0.2039
53140SOL    HW264232   6.132   2.357   0.391  0.0826 -0.1828  0.4475
53141SOL     OW64233   3.850   4.351   8.846  0.5415 -0.4774  0.2721
53141SOL    HW164234   3.844   4.271   8.794  0.0634  0.0164 -0.4603
53141SOL    HW264235   3.897   4.413   8.789  1.2047 -0.3318  0.9596
53142SOL     OW64236   9.430   0.411  12.042 -0.5214 -0.3228 -0.0049
53142SOL    HW164237   9.369   0.474  12.003 -0.0304 -0.4525 -1.0104
53142SOL    HW264238   9.514   0.430  12.001 -0.6351 -2.5048 -1.3596
53143SOL     OW64239   9.207   6.935   9.441  0.8101 -0.3216 -0.4284
53143SOL    HW164240   9.145   6.997   9.479  1.4822  0.3080 -0.3199
53143SOL    HW264241   9.207   6.956   9.347  2.1395  0.9065 -0.2031
53144SOL     OW64242   2.911   6.500   4.427  0.5169 -0.1112  0.3519
53144SOL    HW164243   2.985   6.449   4.394  2.0736  1.5712  1.0481
53144SOL    HW264244   2.910   6.483   4.521 -0.9065 -1.2053  0.1664
53145SOL     OW64245   1.346   9.924   7.745  0.0120 -0.0835 -0.3635
53145SOL    HW164246   1.421   9.978   7.719 -0.6578  0.3679 -1.4453
53145SOL    HW264247   1.275   9.987   7.758 -0.5050 -0.6124 -0.5905
53146SOL     OW64248   8.118   3.229   0.451 -0.5027 -0.1967  0.1394
53146SOL    HW164249   8.123   3.203   0.359 -2.0501 -0.6882  0.1586
53146SOL    HW264250   8.205   3.211   0.486 -0.3646 -1.6000 -0.8306
53147SOL     OW64251   5.642   4.992   1.250 -0.2821  0.3117  0.0275
53147SOL    HW164252   5.669   4.924   1.187  0.5553  0.8703 -0.2339
53147SOL    HW264253   5.721   5.010   1.301 -0.8057  0.2789  0.8659
53148SOL     OW64254   9.816   3.064  11.778  0.0864 -0.0443 -0.3440
53148SOL    HW164255   9.878   3.072  11.850 -0.6150 -1.4057  0.4596
53148SOL    HW264256   9.820   2.972  11.753 -0.0208  0.3106 -1.7526
53149SOL     OW64257   9.941   6.449   7.034  0.4843  0.5563 -0.2613
53149SOL    HW164258   9.958   6.355   7.037 -1.5872  0.1342  1.2776
53149SOL    HW264259  10.026   6.490   7.048  1.3541 -1.0988 -0.5389
53150SOL     OW64260  12.635   2.467  11.682 -0.3481 -0.4637 -0.0695
53150SOL    HW164261  12.682   2.406  11.624  1.3520  1.1382 -0.4669
53150SOL    HW264262  12.670   2.553  11.659 -2.5897  0.6870  0.5618
53151SOL     OW64263  11.799   2.028  12.642 -0.3178  0.3799 -0.2482
53151SOL    HW164264  11.743   2.101  12.668  1.0544  1.5992 -0.6037
53151SOL    HW264265  11.765   2.000  12.557 -1.2305  0.1825  0.1699
53152SOL     OW64266   3.041   8.487   9.332  0.2347 -0.0381 -0.1210
53152SOL    HW164267   3.096   8.509   9.257  2.0449  0.3272  1.2362
53152SOL    HW264268   3.047   8.563   9.390 -0.4105 -0.6486  0.7901
53153SOL     OW64269  11.901   1.633   5.746  0.1752  0.1744  0.1420
53153SOL    HW164270  11.819   1.588   5.767 -0.4505  1.0346 -0.3691
53153SOL    HW264271  11.894   1.651   5.652  1.3469 -0.5149 -0.0898
53154SOL     OW64272   2.318  11.991   9.164  0.0125 -0.0660 -0.3323
53154SOL    HW164273   2.254  12.057   9.193 -0.1162  0.1645 -1.1072
53154SOL    HW264274   2.268  11.909   9.163 -0.1284  0.0196 -0.4236
53155SOL     OW64275   8.778   3.745   5.726  0.6920  0.3630 -0.1905
53155SOL    HW164276   8.702   3.702   5.764  0.4704  2.0432  1.3883
53155SOL    HW264277   8.850   3.684   5.740  0.2427  0.1344  1.2904
53156SOL     OW64278  10.073  12.345   5.996  0.3489  0.2939 -0.8935
53156SOL    HW164279  10.070  12.279   5.927 -0.5870 -1.0713  0.3949
53156SOL    HW264280  10.106  12.423   5.952 -1.6174 -0.0732 -3.2435
53157SOL     OW64281   5.582   9.877   4.470 -0.0478  0.3172 -0.4071
53157SOL    HW164282   5.561   9.794   4.513 -1.9664  0.4874 -0.9020
53157SOL    HW264283   5.499   9.925   4.469  0.8687  1.9831 -0.7151
53158SOL     OW64284   1.819   1.535  10.086 -0.1654  0.2378 -0.1099
53158SOL    HW164285   1.899   1.490  10.060  0.6915  1.4054  0.4578
53158SOL    HW264286   1.835   1.627  10.067 -0.2610  0.8901  2.5338
53159SOL     OW64287   8.304   0.837   2.347  0.6157  0.0713  0.2185
53159SOL    HW164288   8.380   0.795   2.307  1.2766  2.7005 -1.5592
53159SOL    HW264289   8.229   0.798   2.302  1.2289  0.9620 -1.6991
53160SOL     OW64290  11.764   6.702   9.788  0.1364  0.5236 -0.0178
53160SOL    HW164291  11.833   6.746   9.739  0.6664  2.3983  2.2441
53160SOL    HW264292  11.810   6.636   9.840  0.2032  1.4300  1.1078
53161SOL     OW64293   4.524   2.729   5.742  0.0009  0.4281 -0.2236
53161SOL    HW164294   4.528   2.794   5.672 -1.1562  0.9441  0.1522
53161SOL    HW264295   4.430   2.714   5.755  0.1201 -4.0939 -2.7670
53162SOL     OW64296   5.746   2.546   1.097  0.5150 -0.3172 -0.5516
53162SOL    HW164297   5.703   2.560   1.181  1.0119 -0.0367 -0.3422
53162SOL    HW264298   5.694   2.598   1.035 -0.0178 -0.7432 -0.4751
53163SOL     OW64299   9.886  12.564  11.812  0.7000 -0.0923  0.1395
53163SOL    HW164300   9.963  12.558  11.754 -0.7696  0.7250 -2.0109
53163SOL    HW264301   9.832  12.490  11.787  0.5106 -0.3541  1.2731
53164SOL     OW64302   0.301   0.891   7.142  0.0681 -0.1528 -0.1703
53164SOL    HW164303   0.226   0.900   7.084  0.4669 -0.0594 -0.6809
53164SOL    HW264304   0.270   0.923   7.227 -0.5287 -0.3263 -0.3199
53165SOL     OW64305  11.541   7.683  12.293  0.0647  0.4730  0.1192
53165SOL    HW164306  11.505   7.681  12.204 -1.3946  0.8970  0.6814
53165SOL    HW264307  11.530   7.594  12.326 -1.2847  0.7771  0.5717
53166SOL     OW64308   6.740  11.548   4.712  0.4323  0.4360  0.3319
53166SOL    HW164309   6.740  11.580   4.803  0.6915 -2.7648  1.5859
53166SOL    HW264310   6.666  11.488   4.708  0.9173 -0.0925 -1.3617
53167SOL     OW64311   4.873  11.062  12.601 -0.0042 -0.2750 -0.2373
53167SOL    HW164312   4.816  10.985  12.597 -1.0037  0.3422  1.4240
53167SOL    HW264313   4.890  11.083  12.509 -2.9712 -0.1305 -0.8478
53168SOL     OW64314   3.905  11.492  10.420  0.1455 -0.5949 -0.5723
53168SOL    HW164315   3.962  11.556  10.464 -1.0246 -0.2099  0.4500
53168SOL    HW264316   3.950  11.471  10.339  1.8597 -0.4872  0.3125
53169SOL     OW64317   3.891   3.898   0.791 -0.1287  0.0067  0.6589
53169SOL    HW164318   3.806   3.915   0.831 -0.6091  1.9143 -1.0186
53169SOL    HW264319   3.953   3.951   0.841 -0.5567  1.5584 -0.4153
53170SOL     OW64320   9.489  10.807   4.975 -0.5826  0.0117 -0.1067
53170SOL    HW164321   9.423  10.832   5.039 -0.8031 -1.4876  0.2954
53170SOL    HW264322   9.440  10.759   4.908 -0.0268 -0.4111 -0.2176
53171SOL     OW64323  10.034   6.316   8.908 -0.2039 -0.0862  0.2376
53171SOL    HW164324  10.028   6.294   9.001  0.2092  0.7180  0.4660
53171SOL    HW264325  10.076   6.402   8.907  0.3828 -0.3719 -0.7202
53172SOL     OW64326   6.657   2.008   0.734  1.0892 -0.0974  0.6446
53172SOL    HW164327   6.698   1.921   0.731 -0.1396 -0.6784  0.3924
53172SOL    HW264328   6.629   2.018   0.825  0.9186 -0.1173  0.5946
53173SOL     OW64329  10.739   8.609   7.372  0.1984  1.0263 -0.2757
53173SOL    HW164330  10.692   8.668   7.431  0.2985 -0.5485  1.4812
53173SOL    HW264331  10.683   8.604   7.295  0.4386  3.7476 -0.7378
53174SOL     OW64332   8.445   4.456  10.887 -1.0162  0.3457 -0.0176
53174SOL    HW164333   8.505   4.483  10.957  1.2680 -1.7894 -0.9962
53174SOL    HW264334   8.466   4.514  10.814  1.2446 -1.4021 -0.9059
53175SOL     OW64335   8.186   7.231   2.706 -0.0236  0.2788 -0.1985
53175SOL    HW164336   8.273   7.269   2.719  0.6597 -0.6858 -1.6563
53175SOL    HW264337   8.174   7.173   2.781  1.1472 -0.5250 -0.5988
53176SOL     OW64338   9.309   7.292   9.033 -0.9048  0.3403 -0.4580
53176SOL    HW164339   9.319   7.385   9.015 -2.6191  0.3777 -1.4779
53176SOL    HW264340   9.340   7.281   9.123  1.2704  1.4850 -0.9979
53177SOL     OW64341   4.179   7.155   4.431 -0.2497 -0.0573 -0.3167
53177SOL    HW164342   4.107   7.118   4.481  0.0257  0.0080  0.1326
53177SOL    HW264343   4.254   7.150   4.490  0.1816 -0.4028 -0.8901
53178SOL     OW64344  10.338   9.958  10.746 -0.8562  0.5256  0.4304
53178SOL    HW164345  10.432   9.967  10.735 -0.5406 -2.4854 -0.1572
53178SOL    HW264346  10.312  10.036  10.794  2.1846  0.6967  2.0331
53179SOL     OW64347  10.913   9.743   5.367 -0.1401  0.3265 -0.0065
53179SOL    HW164348  10.995   9.736   5.416  0.1045  0.2077 -0.4355
53179SOL    HW264349  10.859   9.802   5.420  0.2559  0.4836  0.2244
53180SOL     OW64350   7.331   4.905   5.479  0.3365  0.2973 -0.5454
53180SOL    HW164351   7.257   4.868   5.431  0.9340  0.1767 -1.3967
53180SOL    HW264352   7.390   4.831   5.495  0.3544  0.4214 -0.0317
53181SOL     OW64353   3.001   9.200   1.496  0.0793 -0.1446 -0.1366
53181SOL    HW164354   2.924   9.145   1.501 -0.8459  1.1985  1.3844
53181SOL    HW264355   3.031   9.208   1.586 -1.0238  3.3633  0.0814
53182SOL     OW64356   1.560  10.944   9.039  0.1062  0.4758  0.6752
53182SOL    HW164357   1.616  10.867   9.027  1.1853  1.1329  1.2950
53182SOL    HW264358   1.593  11.008   8.974 -0.5397  0.5413  0.4090
53183SOL     OW64359  11.255   9.579   5.199  0.0181  0.0703  0.2954
53183SOL    HW164360  11.188   9.550   5.262  0.8154  0.0353  1.1530
53183SOL    HW264361  11.221   9.661   5.164 -0.9504 -0.4650 -0.0470
53184SOL     OW64362   7.750  10.186   2.642 -0.0466  0.5203 -0.4183
53184SOL    HW164363   7.791  10.101   2.656 -1.9361 -0.2786  0.6763
53184SOL    HW264364   7.782  10.241   2.714 -2.4774 -0.7860  1.8601
53185SOL     OW64365   6.635   8.906  11.788  1.1414  0.8546  0.1277
53185SOL    HW164366   6.628   8.955  11.706 -0.6002  0.9810  0.3208
53185SOL    HW264367   6.583   8.956  11.850  0.1217 -0.7068  0.5862
53186SOL     OW64368   9.153  10.358  12.417 -0.2411  0.0354  0.5131
53186SOL    HW164369   9.152  10.373  12.511 -2.6917  1.8143  0.2759
53186SOL    HW264370   9.063  10.336  12.394  0.5679 -1.8050 -1.2583
53187SOL     OW64371   5.780   5.251   7.674 -0.1050  0.5164  0.6718
53187SOL    HW164372   5.845   5.182   7.689 -1.0188 -0.1739  1.5354
53187SOL    HW264373   5.812   5.297   7.597  0.9470 -0.3634  0.5590
53188SOL     OW64374   8.934   7.867   0.209  0.4363 -0.4185  0.0674
53188SOL    HW164375   9.026   7.840   0.202  0.4262 -0.6575  0.8231
53188SOL    HW264376   8.892   7.798   0.259  0.2132  0.5163  1.2088
53189SOL     OW64377   8.524  11.019  11.849 -0.2057 -0.1467 -0.0812
53189SOL    HW164378   8.461  11.050  11.915 -0.3606  0.1180 -0.3467
53189SOL    HW264379   8.598  11.079  11.857 -0.0958 -0.3035  0.0622
53190SOL     OW64380   5.126   1.523   9.800  0.2480 -0.1876  0.1063
53190SOL    HW164381   5.182   1.477   9.738  0.1588 -0.0788 -0.0551
53190SOL    HW264382   5.186   1.550   9.871  1.0024  2.3855 -1.3644
53191SOL     OW64383   4.359   8.301  11.307  0.7447  0.2315 -0.0143
53191SOL    HW164384   4.389   8.376  11.358  1.2578  0.5237 -0.7229
53191SOL    HW264385   4.340   8.337  11.220 -0.6721 -0.1466  0.1164
53192SOL     OW64386  12.152   2.734   8.179 -0.8965 -0.0211 -0.3671
53192SOL    HW164387  12.204   2.736   8.259 -0.2926  3.8258 -0.6712
53192SOL    HW264388  12.062   2.727   8.209 -0.7824  2.7205  0.8448
53193SOL     OW64389   4.384  10.473   1.701 -0.0798  0.1847 -0.1338
53193SOL    HW164390   4.365  10.415   1.627  1.2250 -2.1388  1.2053
53193SOL    HW264391   4.301  10.481   1.748 -0.4245 -0.1381 -0.6842
53194SOL     OW64392   0.388  10.457   3.390  0.4763 -0.3877  0.3582
53194SOL    HW164393   0.477  10.456   3.353  0.3635 -1.3367  0.0640
53194SOL    HW264394   0.332  10.482   3.317  0.5384  0.6584  0.6597
53195SOL     OW64395  11.188   5.250   8.815 -0.6038 -0.2918  0.0673
53195SOL    HW164396  11.226   5.177   8.766  0.1560  1.2130 -1.7020
53195SOL    HW264397  11.259   5.283   8.870 -0.4663  0.0915 -0.3316
53196SOL     OW64398   9.635   0.284   5.780  0.4420  0.5928 -0.4095
53196SOL    HW164399   9.682   0.367   5.789  0.7395  0.4927 -1.0284
53196SOL    HW264400   9.573   0.298   5.709  1.1907 -0.0202 -1.2110
53197SOL     OW64401   0.092   3.628   4.142  0.4546  0.1334  0.7566
53197SOL    HW164402   0.174   3.591   4.173  0.8038 -0.2844 -0.5995
53197SOL    HW264403   0.077   3.704   4.198  0.0819 -1.6062  3.1221
53198SOL     OW64404   1.956   6.236   5.819  0.3073  0.1854  0.5001
53198SOL    HW164405   1.935   6.280   5.902 -0.6469 -0.2600  0.4980
53198SOL    HW264406   1.945   6.304   5.753  1.2130  0.5826  0.7356
53199SOL     OW64407   3.331   5.992   8.728 -0.0051  0.1046 -0.4426
53199SOL    HW164408   3.338   5.899   8.750  3.1666 -0.0537 -1.5760
53199SOL    HW264409   3.307   5.993   8.635  0.2059  0.3902 -0.4957
53200SOL     OW64410  12.242   3.349   1.717 -0.7605  0.0333  0.0958
53200SOL    HW164411  12.284   3.264   1.707 -0.2582  0.1698  0.8865
53200SOL    HW264412  12.148   3.330   1.715 -0.6896 -0.8112  1.9737
53201SOL     OW64413   8.521   7.758   5.411 -0.2836  0.6556 -0.1363
53201SOL    HW164414   8.509   7.780   5.318 -0.7165  0.0461 -0.2291
53201SOL    HW264415   8.569   7.675   5.410 -0.9354  0.2722  0.1740
53202SOL     OW64416   5.325   6.044   4.078 -0.3299  0.9245  0.2635
53202SOL    HW164417   5.338   5.959   4.120  0.6740  1.4412  1.0072
53202SOL    HW264418   5.274   6.095   4.141 -0.1257  1.1874  0.2201
53203SOL     OW64419   7.634   3.391   6.129 -0.0865 -0.4767  0.2455
53203SOL    HW164420   7.711   3.417   6.078  0.1262  0.5727  1.0422
53203SOL    HW264421   7.667   3.384   6.219 -0.3366 -2.8047  0.2056
53204SOL     OW64422   3.228   8.231  11.657 -0.0351  0.4264  0.1146
53204SOL    HW164423   3.238   8.262  11.747 -2.4040  2.1787 -0.1224
53204SOL    HW264424   3.206   8.309  11.607 -1.0872 -0.8752 -1.5701
53205SOL     OW64425   0.393   8.021  10.109 -0.3422  0.0042  0.2563
53205SOL    HW164426   0.384   7.927  10.122  1.1159 -0.7872 -3.2666
53205SOL    HW264427   0.320   8.044  10.051  1.9263 -0.0645 -2.8241
53206SOL     OW64428   4.327   3.685   7.728  0.3476  1.2281 -0.9940
53206SOL    HW164429   4.314   3.779   7.716 -1.0570  1.1774 -0.0957
53206SOL    HW264430   4.275   3.664   7.806  2.1468  0.0406 -0.0657
53207SOL     OW64431   0.013  11.562  12.037  0.3047 -0.8322 -0.3065
53207SOL    HW164432   0.015  11.641  12.091  2.2170 -0.3309 -1.0622
53207SOL    HW264433  -0.079  11.553  12.012 -0.3616 -0.2078  1.7283
53208SOL     OW64434  11.266   0.308   5.844 -0.3161  0.0848  0.7682
53208SOL    HW164435  11.210   0.385   5.842 -0.0345  0.4320  3.1848
53208SOL    HW264436  11.210   0.236   5.816 -2.1536  0.3765  3.3813
53209SOL     OW64437   0.530   9.946   7.421  0.2457  0.2951  0.1898
53209SOL    HW164438   0.555   9.951   7.513 -0.4806 -1.4261  0.5349
53209SOL    HW264439   0.566  10.025   7.381 -0.8721  1.9733  2.2843
53210SOL     OW64440   4.115   5.524  11.980 -0.2459 -0.6163 -0.0992
53210SOL    HW164441   4.046   5.463  12.007 -0.5424 -1.0680 -1.7669
53210SOL    HW264442   4.071   5.608  11.972 -0.1218 -0.4479  0.9468
53211SOL     OW64443   4.610   6.132   4.463 -0.4861 -0.0884 -0.4614
53211SOL    HW164444   4.557   6.053   4.452 -2.1500  0.9696 -0.4285
53211SOL    HW264445   4.564   6.182   4.530  0.6520  0.8153 -0.3423
53212SOL     OW64446   7.113  11.418  12.610  0.3743  0.5762  0.2591
53212SOL    HW164447   7.100  11.480  12.682 -1.7280 -0.0155  0.4482
53212SOL    HW264448   7.027  11.378  12.597  1.4898 -1.8340 -0.2843
53213SOL     OW64449   2.056   8.245   7.509 -0.1489  0.1363 -0.1437
53213SOL    HW164450   2.141   8.255   7.466 -0.9979  4.1090 -1.4027
53213SOL    HW264451   2.073   8.268   7.601  0.6703 -2.8591  0.5615
53214SOL     OW64452   3.393  10.296   6.324  0.1111 -0.0830  0.4610
53214SOL    HW164453   3.340  10.346   6.386  1.0918  1.2537  0.2934
53214SOL    HW264454   3.480  10.337   6.329  0.3284 -0.2062 -1.4521
53215SOL     OW64455   0.442   9.898   1.257 -1.0159 -0.4476 -0.0645
53215SOL    HW164456   0.394   9.975   1.287  1.1520  0.8213  0.3549
53215SOL    HW264457   0.432   9.898   1.162 -0.5410  0.7141 -0.1222
53216SOL     OW64458   5.982   2.016   7.310 -0.5482 -0.1088 -0.3316
53216SOL    HW164459   5.940   1.984   7.390 -0.0393  0.4061  0.1565
53216SOL    HW264460   6.076   2.009   7.328 -0.4296 -0.5216 -1.1072
53217SOL     OW64461   9.577   3.879   6.922 -0.5036  0.3949 -0.0373
53217SOL    HW164462   9.565   3.857   7.015  0.3409  0.0282 -0.0047
53217SOL    HW264463   9.672   3.882   6.911 -0.4858 -2.5083 -1.5514
53218SOL     OW64464  11.838   1.589   6.565 -0.4074  0.0284 -0.1730
53218SOL    HW164465  11.831   1.663   6.505  0.8243  0.0917 -0.2612
53218SOL    HW264466  11.835   1.628   6.652  1.0320  0.2769 -0.2236
53219SOL     OW64467   8.714   9.889  10.823 -0.1343 -0.2299  0.4935
53219SOL    HW164468   8.677   9.806  10.853  1.3421 -1.6431 -1.3573
53219SOL    HW264469   8.639   9.948  10.816 -1.2680 -1.4831  1.5441
53220SOL     OW64470   8.456   7.988   9.465 -0.1362 -0.0618 -0.2393
53220SOL    HW164471   8.535   8.033   9.494  1.1739 -2.0386 -0.5213
53220SOL    HW264472   8.420   8.045   9.397  1.3295  0.6686 -0.4583
53221SOL     OW64473   4.451   3.943   1.782  0.3372  0.1143  0.2825
53221SOL    HW164474   4.511   3.975   1.713  1.0292  0.1534  0.8875
53221SOL    HW264475   4.470   3.999   1.857  1.3982 -1.5411  1.3001
53222SOL     OW64476   8.372   5.517   8.169  0.2449  0.5007  0.6624
53222SOL    HW164477   8.310   5.552   8.104  0.0070  0.0047  0.6154
53222SOL    HW264478   8.452   5.503   8.120 -0.0445 -0.2208  0.3770
53223SOL     OW64479   8.402   7.088  10.346 -0.0265 -0.2051 -0.2558
53223SOL    HW164480   8.397   7.091  10.251  2.2013 -0.0902 -0.4095
53223SOL    HW264481   8.388   7.179  10.374 -0.2953 -0.1737 -0.4926
53224SOL     OW64482   8.148   6.173   1.059  0.0751  0.1686  0.7311
53224SOL    HW164483   8.166   6.085   1.027  0.9482  0.4693  0.3551
53224SOL    HW264484   8.183   6.173   1.148  0.6705  0.3192  0.5041
53225SOL     OW64485   4.533   0.292  12.603 -0.5451 -0.6883  0.0772
53225SOL    HW164486   4.466   0.255  12.545  0.1808 -0.7477 -0.7401
53225SOL    HW264487   4.600   0.224  12.608 -0.3531 -0.4623  0.5665
53226SOL     OW64488   8.021   6.886   9.497 -0.0379 -0.4065  0.1088
53226SOL    HW164489   7.974   6.903   9.415 -2.1134  0.6345  1.4092
53226SOL    HW264490   8.085   6.957   9.503  1.3825 -1.5092 -1.4228
53227SOL     OW64491   5.060   5.945   9.285 -0.1885  0.5753 -0.2763
53227SOL    HW164492   5.070   5.853   9.261 -2.2406 -0.0119  0.8921
53227SOL    HW264493   5.063   5.992   9.201 -2.6314 -0.9465 -1.3214
53228SOL     OW64494   0.326  11.862   0.834  0.7907  0.1636  0.0066
53228SOL    HW164495   0.250  11.857   0.776  0.7410 -0.0501  0.0914
53228SOL    HW264496   0.399  11.834   0.779  0.8554  0.6515 -0.1609
53229SOL     OW64497   3.167   0.147   3.657 -0.3617 -0.7219  0.0904
53229SOL    HW164498   3.207   0.112   3.577 -1.4274  2.2400 -1.9514
53229SOL    HW264499   3.240   0.183   3.707  0.0391  1.2404 -1.7531
53230SOL     OW64500   0.474   0.866  11.284  0.6309  0.3955  0.5648
53230SOL    HW164501   0.569   0.866  11.286  0.7098  0.2318 -1.1059
53230SOL    HW264502   0.450   0.776  11.263  0.1082  0.4097  1.0841
53231SOL     OW64503   0.185  10.852   2.028  0.1940 -0.5170 -0.3713
53231SOL    HW164504   0.120  10.795   1.988 -1.3994  1.5163 -0.8229
53231SOL    HW264505   0.182  10.831   2.121  0.2965 -1.7454 -0.6246
53232SOL     OW64506   6.102  12.351  10.960  0.1255 -0.1801 -0.6875
53232SOL    HW164507   6.081  12.311  11.045 -0.6825 -1.6773 -1.5306
53232SOL    HW264508   6.069  12.440  10.966  1.3831  0.1900  1.0606
53233SOL     OW64509  10.992   1.214   8.617  0.4656 -0.1839 -0.5042
53233SOL    HW164510  10.930   1.195   8.688  0.2657 -0.9841 -0.8827
53233SOL    HW264511  10.986   1.308   8.605 -1.4107 -0.3454 -1.1866
53234SOL     OW64512  11.346  12.406   0.007 -0.0100  0.1268  0.9491
53234SOL    HW164513  11.437  12.375   0.005  0.2825  0.9909  0.4669
53234SOL    HW264514  11.332  12.436   0.096  0.2610  0.2203  0.9619
53235SOL     OW64515   9.824   3.609   6.109  0.0879 -0.1193 -0.6152
53235SOL    HW164516   9.766   3.545   6.151 -0.7285  0.4586 -0.8209
53235SOL    HW264517   9.823   3.584   6.016  2.2236 -1.6539 -0.3071
53236SOL     OW64518   3.026   0.042   4.863  0.3844 -0.7728 -0.1245
53236SOL    HW164519   2.977   0.004   4.790  1.2001 -0.0578 -1.0871
53236SOL    HW264520   2.959   0.080   4.920 -0.2363 -0.7650 -0.8405
53237SOL     OW64521   8.730   9.552   0.700  0.3301 -0.0509  0.0194
53237SOL    HW164522   8.767   9.615   0.761 -1.4485 -0.5221  1.6683
53237SOL    HW264523   8.778   9.471   0.717  1.1235  0.2839 -0.5676
53238SOL     OW64524   7.011   5.705   7.702  0.4146  0.0329  0.4116
53238SOL    HW164525   6.972   5.793   7.700  0.6910  0.1788  1.0597
53238SOL    HW264526   6.958   5.657   7.766  1.0497  0.1131  1.0003
53239SOL     OW64527   9.914   2.828  11.885  0.2436  0.2793  0.8757
53239SOL    HW164528   9.826   2.792  11.875  0.3719 -1.1848  3.8452
53239SOL    HW264529   9.965   2.756  11.922  1.7162  2.1602  2.7369
53240SOL     OW64530   8.044  10.777   6.582  0.7713  0.0693  0.0711
53240SOL    HW164531   8.020  10.688   6.610  0.2406 -0.0184 -0.6306
53240SOL    HW264532   8.126  10.766   6.534  1.2295  0.1009  0.8352
53241SOL     OW64533   3.596  11.264   1.034  0.0721 -0.1586 -0.0062
53241SOL    HW164534   3.554  11.295   1.115  1.2052  0.9701  0.1913
53241SOL    HW264535   3.671  11.322   1.023  1.7046 -2.2196 -0.2320
53242SOL     OW64536   3.040   4.532   4.543  0.2973 -0.6799  0.0680
53242SOL    HW164537   3.114   4.585   4.572 -0.6061  0.4258  0.4059
53242SOL    HW264538   3.048   4.450   4.593 -0.0725  0.3995  1.9801
53243SOL     OW64539   8.173   2.757   2.060  0.3759  0.6084 -0.1803
53243SOL    HW164540   8.168   2.763   2.155  2.1256 -0.3696  0.0168
53243SOL    HW264541   8.252   2.806   2.038 -0.4547  1.5238 -1.2398
53244SOL     OW64542   8.323   1.312   1.855 -0.2864 -0.1954 -0.8470
53244SOL    HW164543   8.260   1.242   1.837 -2.5121  0.9619  1.7077
53244SOL    HW264544   8.363   1.287   1.938  0.8159  0.3426 -1.2001
53245SOL     OW64545   9.499   6.795   0.130  0.1882 -0.9003 -0.4775
53245SOL    HW164546   9.563   6.864   0.147  0.0936 -0.9177 -0.0454
53245SOL    HW264547   9.414   6.837   0.143  0.1380 -1.2329  0.3336
53246SOL     OW64548   8.228   8.826   3.447 -0.8193  0.5754 -0.0868
53246SOL    HW164549   8.266   8.838   3.360  0.2696  0.6904  0.3807
53246SOL    HW264550   8.261   8.901   3.497  1.4681 -1.2572  1.3625
53247SOL     OW64551   0.651   7.883   2.045  0.3928  0.2569  0.0876
53247SOL    HW164552   0.632   7.949   2.111  0.6901  1.5555 -1.0859
53247SOL    HW264553   0.607   7.804   2.076  1.1912  0.6013  2.2262
53248SOL     OW64554   4.217   2.187  12.519  0.5877 -0.0263  0.5080
53248SOL    HW164555   4.174   2.102  12.511  0.8442 -0.3170  1.8800
53248SOL    HW264556   4.309   2.166  12.535  0.5446  0.4740  1.5030
53249SOL     OW64557   3.178   6.953   8.344 -0.0183 -0.5581 -0.4542
53249SOL    HW164558   3.243   6.910   8.288 -0.4002  0.2148 -1.5231
53249SOL    HW264559   3.134   6.881   8.388  0.1513 -1.2081 -1.3181
53250SOL     OW64560  10.767   1.290  11.101 -0.3384  0.2280 -0.4543
53250SOL    HW164561  10.832   1.225  11.075 -1.2743 -1.5082  1.2998
53250SOL    HW264562  10.686   1.259  11.060 -0.9980 -0.3370  1.1912
53251SOL     OW64563  12.646   7.718   5.084  0.2588  0.3882  0.1127
53251SOL    HW164564  12.637   7.789   5.020  0.8115  1.5737  1.3093
53251SOL    HW264565  12.735   7.728   5.118  0.4503 -1.0933  0.0836
53252SOL     OW64566  11.066   4.476   2.868  0.6462 -0.1618 -0.2824
53252SOL    HW164567  11.116   4.551   2.836 -0.1425  0.7288  0.4850
53252SOL    HW264568  10.980   4.486   2.828 -0.1112  0.5434  1.4169
53253SOL     OW64569  12.335   4.669  10.154  0.0262 -0.1317  0.3011
53253SOL    HW164570  12.315   4.757  10.123  2.2839 -0.4298 -2.4341
53253SOL    HW264571  12.431   4.667  10.159 -0.0108 -2.1614  1.1921
53254SOL     OW64572   5.586   1.496   0.706 -0.0134  0.3606  0.2311
53254SOL    HW164573   5.561   1.481   0.615  0.5746 -0.2905  0.1668
53254SOL    HW264574   5.516   1.456   0.758  2.1425 -4.2136  0.0945
53255SOL     OW64575   4.679   2.342   9.786  0.2492  0.2016  0.3863
53255SOL    HW164576   4.732   2.421   9.772  1.3738 -0.5764  0.1118
53255SOL    HW264577   4.741   2.270   9.777 -1.0119 -0.7975 -0.7513
53256SOL     OW64578   3.278   8.027   7.429  0.7210  0.1531 -0.0805
53256SOL    HW164579   3.271   8.016   7.334 -0.5732 -0.2129  0.0387
53256SOL    HW264580   3.188   8.014   7.461  1.1431  0.2781  1.1916
53257SOL     OW64581   1.847   3.292   7.304  0.5413  0.1574  0.0281
53257SOL    HW164582   1.840   3.319   7.212  0.0630  0.4878  0.1631
53257SOL    HW264583   1.769   3.326   7.346  0.0867 -1.1262  0.2854
53258SOL     OW64584  12.416   4.610  11.917 -0.1424 -0.4010  0.2123
53258SOL    HW164585  12.358   4.636  11.845  0.4110  1.4831  0.3919
53258SOL    HW264586  12.502   4.641  11.891  0.2882 -0.7556  1.1694
53259SOL     OW64587  11.130   2.322  12.556  0.4673  0.5394  0.3459
53259SOL    HW164588  11.099   2.246  12.606 -1.5422  1.2427  0.2625
53259SOL    HW264589  11.173   2.284  12.480 -2.7198 -0.6475 -1.0508
53260SOL     OW64590   2.669  10.463   9.742  0.0634  0.1217 -0.2767
53260SOL    HW164591   2.656  10.375   9.706 -0.4618  0.5045 -1.0448
53260SOL    HW264592   2.638  10.522   9.674  1.3255  0.9523 -0.1668
53261SOL     OW64593   1.381   9.366   3.943 -0.4923 -0.6211  0.7455
53261SOL    HW164594   1.358   9.281   3.906  1.6124 -0.5321 -0.9859
53261SOL    HW264595   1.429   9.345   4.024 -0.1447 -1.0928  0.4221
53262SOL     OW64596  11.634   1.960   1.554 -0.2547  0.3217  0.1882
53262SOL    HW164597  11.618   1.955   1.648  0.6330  0.2354  0.3457
53262SOL    HW264598  11.612   2.050   1.530 -0.3685  0.3778  0.5055
53263SOL     OW64599   8.926  11.704   1.783  0.7520 -0.1926  0.0001
53263SOL    HW164600   8.850  11.721   1.838  0.5673  1.3225 -0.6768
53263SOL    HW264601   8.978  11.640   1.833 -1.6800 -2.5575 -0.2290
53264SOL     OW64602   1.576  12.070   1.215 -0.1801  0.0501 -0.3778
53264SOL    HW164603   1.579  11.977   1.191 -0.9824 -0.0378 -0.1605
53264SOL    HW264604   1.640  12.111   1.157 -0.3847 -0.5223 -1.0347
53265SOL     OW64605  10.798  10.774   5.036  0.1615  0.4405  0.1614
53265SOL    HW164606  10.817  10.716   4.962 -0.2066 -0.7912  1.0048
53265SOL    HW264607  10.863  10.750   5.102 -0.0605  0.9198  0.5579
53266SOL     OW64608   3.842   6.799  10.412  0.1764  0.1127  0.2256
53266SOL    HW164609   3.937   6.802  10.423  0.3196  0.7181 -1.0104
53266SOL    HW264610   3.808   6.787  10.500  1.4697 -1.9881  0.5091
53267SOL     OW64611   6.471   7.323   6.261 -0.0868 -0.5217 -0.5677
53267SOL    HW164612   6.474   7.241   6.309 -2.5460 -0.3845 -0.0575
53267SOL    HW264613   6.491   7.299   6.171  1.5068 -1.2757 -0.0421
53268SOL     OW64614   2.893   8.270   8.581  0.0634  0.1629 -0.4603
53268SOL    HW164615   2.987   8.252   8.578 -0.2906 -2.2345  0.8554
53268SOL    HW264616   2.876   8.297   8.671 -0.7086 -0.8949 -0.2634
53269SOL     OW64617   0.654   0.462   2.593  0.1694  0.1301  0.2111
53269SOL    HW164618   0.635   0.545   2.637  0.6999 -0.7379  2.1734
53269SOL    HW264619   0.748   0.464   2.577  0.4387 -0.6107  1.5092
53270SOL     OW64620   9.521   2.261   3.814 -0.0793  0.0401  0.6713
53270SOL    HW164621   9.605   2.308   3.808  0.4241 -0.9423 -0.3047
53270SOL    HW264622   9.508   2.247   3.907  0.8092  0.2679  0.8355
53271SOL     OW64623   9.161  11.297   4.042  0.6957 -0.0588 -0.2420
53271SOL    HW164624   9.074  11.271   4.014  0.7266 -1.1669  0.6267
53271SOL    HW264625   9.220  11.252   3.981  0.6753  0.4976 -0.6788
53272SOL     OW64626   0.520   9.233   1.317 -0.4932  0.5907 -0.5604
53272SOL    HW164627   0.494   9.282   1.239  0.8751  2.3405  0.0069
53272SOL    HW264628   0.603   9.192   1.293  0.0812  1.3710  0.0322
53273SOL     OW64629   0.820   8.737  11.147  0.0166  0.4323  0.0046
53273SOL    HW164630   0.775   8.652  11.146  3.0698 -1.3158  0.2455
53273SOL    HW264631   0.794   8.776  11.231  1.8577 -2.3056  2.0209
53274SOL     OW64632   2.927   9.016   5.726 -0.0251 -0.6441 -0.3132
53274SOL    HW164633   2.935   9.083   5.658 -0.2450  0.1240  0.3990
53274SOL    HW264634   2.837   8.984   5.719  0.2742 -1.3581 -1.0877
53275SOL     OW64635  12.163   8.552  12.029  0.2640  0.2051  0.2011
53275SOL    HW164636  12.092   8.595  12.076  0.8457  0.3462  0.9657
53275SOL    HW264637  12.127   8.466  12.006 -0.6861  0.8314 -0.7944
53276SOL     OW64638   5.450   1.384  10.032 -1.2074 -0.2491  0.4276
53276SOL    HW164639   5.532   1.426  10.059 -1.2357  0.8143 -1.0434
53276SOL    HW264640   5.393   1.456  10.006 -1.2079 -1.1449 -2.3458
53277SOL     OW64641   9.702  11.625   0.497 -0.1185 -0.0706  0.2227
53277SOL    HW164642   9.764  11.575   0.444 -1.1812 -0.5966 -0.5650
53277SOL    HW264643   9.647  11.671   0.433 -0.3826  0.5923  0.9060
53278SOL     OW64644   8.238   5.497   5.138 -0.7015 -0.1157  0.6118
53278SOL    HW164645   8.218   5.450   5.057  0.9499 -1.3507  0.8732
53278SOL    HW264646   8.190   5.449   5.206 -1.0968  0.1660  0.5322
53279SOL     OW64647   4.062   3.714   2.861 -0.2855 -0.3471  0.6212
53279SOL    HW164648   4.043   3.797   2.906  1.1494 -0.5383  1.6719
53279SOL    HW264649   4.055   3.734   2.768 -0.3748  0.8563  0.8727
53280SOL     OW64650   3.189   3.429   4.446 -0.0495  0.5527  0.5541
53280SOL    HW164651   3.272   3.475   4.436 -1.4376  3.2226  0.5365
53280SOL    HW264652   3.157   3.419   4.356  0.6962 -1.4980  0.4629
53281SOL     OW64653   4.587   2.990   0.954 -0.6056 -0.2784 -0.2619
53281SOL    HW164654   4.546   3.070   0.984 -2.5837 -0.9576 -0.9905
53281SOL    HW264655   4.675   2.992   0.992 -1.2030  1.3775  1.1501
53282SOL     OW64656   6.676   7.733   4.220 -0.1503 -0.0427 -0.5648
53282SOL    HW164657   6.617   7.778   4.161  0.2449  1.5495  0.2132
53282SOL    HW264658   6.682   7.789   4.297  1.2886 -0.8436 -0.0402
53283SOL     OW64659   9.032   1.991   2.772  0.2936 -0.4577  0.0604
53283SOL    HW164660   9.073   2.071   2.738 -1.6046  0.7600  0.4733
53283SOL    HW264661   9.031   1.931   2.698  0.5854  0.3786 -0.6420
53284SOL     OW64662   7.438   1.249   5.172 -0.0936 -0.0753  0.4205
53284SOL    HW164663   7.478   1.165   5.195  0.8917 -0.2009 -1.5002
53284SOL    HW264664   7.384   1.271   5.247  1.3896 -1.3214  1.9518
53285SOL     OW64665   6.716   8.033   4.979 -0.2920 -0.1639  0.0928
53285SOL    HW164666   6.694   7.979   5.055  0.2414  0.1577  0.4847
53285SOL    HW264667   6.632   8.063   4.946 -0.5480 -0.5626  0.3657
53286SOL     OW64668   6.768   4.625  10.352  0.1213 -0.3617  0.4065
53286SOL    HW164669   6.812   4.621  10.437  0.0747  0.8575  0.5064
53286SOL    HW264670   6.688   4.674  10.369 -1.9362 -3.4861  0.4698
53287SOL     OW64671   9.561   6.955   3.758 -0.2652  0.1463  0.2658
53287SOL    HW164672   9.620   7.022   3.793 -0.3072  0.3297 -0.0092
53287SOL    HW264673   9.580   6.954   3.664 -1.9500  1.4705 -0.1356
53288SOL     OW64674   1.914   4.745   5.349 -0.4360 -0.5454  0.5444
53288SOL    HW164675   1.891   4.798   5.273  0.0377 -1.5781 -0.3575
53288SOL    HW264676   1.965   4.803   5.405  0.5592 -0.1879 -0.6871
53289SOL     OW64677   6.819  10.164  10.814 -0.3277 -0.4032  0.0091
53289SOL    HW164678   6.779  10.183  10.899 -1.6407  0.0558 -0.6865
53289SOL    HW264679   6.890  10.103  10.834  0.3744  0.8595  1.6261
53290SOL     OW64680   7.528   6.066   8.108 -0.2123 -0.3426 -0.6053
53290SOL    HW164681   7.506   6.159   8.106  0.9914 -0.0147  0.4057
53290SOL    HW264682   7.508   6.039   8.197  0.1008 -0.8850 -0.6962
53291SOL     OW64683   3.380   3.920   9.114 -0.3832 -0.0561 -0.3564
53291SOL    HW164684   3.384   3.954   9.203  1.9869 -0.3208 -0.3100
53291SOL    HW264685   3.361   3.997   9.060 -0.3662  0.3725  0.2438
53292SOL     OW64686   5.858   4.960  10.158  0.3963  0.3000 -0.3054
53292SOL    HW164687   5.931   5.021  10.160  2.0531 -1.4649 -2.3821
53292SOL    HW264688   5.806   4.982  10.236  2.1039  2.8156  0.2335
53293SOL     OW64689  12.222   6.343  11.349  0.4431  0.0879  0.3848
53293SOL    HW164690  12.220   6.256  11.309  1.3006  0.5503 -0.7024
53293SOL    HW264691  12.204   6.327  11.442 -2.1405 -0.9701 -0.1989
53294SOL     OW64692   1.416   2.699  11.892 -0.2151 -0.3025 -0.0317
53294SOL    HW164693   1.490   2.666  11.841 -0.3418  0.8299 -1.0061
53294SOL    HW264694   1.456   2.745  11.965 -0.0056 -1.1862  0.4175
53295SOL     OW64695  10.014   0.080   3.158 -0.1251  0.4066  0.2105
53295SOL    HW164696   9.979   0.168   3.147  0.0442  0.3206 -1.1710
53295SOL    HW264697  10.098   0.093   3.201 -0.3385  0.8682  0.4990
53296SOL     OW64698   8.954   7.612  11.369  0.0173 -0.4784  0.0049
53296SOL    HW164699   8.970   7.572  11.283  1.0501 -0.9118  0.3881
53296SOL    HW264700   9.029   7.586  11.422 -0.5119 -0.0455  0.9869
53297SOL     OW64701  11.100   7.933   6.214  0.4421 -0.5107 -0.1285
53297SOL    HW164702  11.133   7.843   6.210  0.6741 -0.3764 -2.2774
53297SOL    HW264703  11.004   7.923   6.214  0.4659 -0.7440 -0.3211
53298SOL     OW64704   0.673   7.671   1.325  0.1255 -0.4159 -0.8511
53298SOL    HW164705   0.755   7.720   1.323 -0.5450  0.7037 -1.6848
53298SOL    HW264706   0.634   7.694   1.409 -0.4180  0.8873 -1.4506
53299SOL     OW64707   5.426  12.621   8.914 -0.2770  0.8211 -0.9270
53299SOL    HW164708   5.358  12.683   8.939 -0.0685  0.9338 -0.6244
53299SOL    HW264709   5.495  12.675   8.877  1.4424  1.2670  2.4817
53300SOL     OW64710   4.259   8.530   0.601  1.0802  0.0287 -0.2432
53300SOL    HW164711   4.255   8.615   0.644 -1.3731 -1.1390  2.1408
53300SOL    HW264712   4.344   8.493   0.625  1.6148  1.2395 -0.2279
53301SOL     OW64713   6.015   2.275   9.732 -0.1950  0.2187 -0.0599
53301SOL    HW164714   6.008   2.213   9.660 -0.3273 -1.7876  1.5974
53301SOL    HW264715   6.073   2.232   9.796  0.6860  2.3286  0.6460
53302SOL     OW64716   5.704   7.537   0.094 -0.3518  0.8062 -0.1627
53302SOL    HW164717   5.731   7.451   0.062  0.2672  1.2329 -0.8174
53302SOL    HW264718   5.626   7.558   0.043  0.6742  1.5185 -1.5141
53303SOL     OW64719   8.294   1.500  11.520 -1.1825  0.8082 -0.4097
53303SOL    HW164720   8.293   1.517  11.614 -0.3711  0.6505 -0.3644
53303SOL    HW264721   8.202   1.498  11.495 -1.4224  0.2851  0.4819
53304SOL     OW64722   4.131   9.772  10.938  0.3235  0.5124  0.3407
53304SOL    HW164723   4.161   9.727  11.017 -0.9763  0.8780  1.0716
53304SOL    HW264724   4.167   9.860  10.946  0.1064  0.5805  0.5769
53305SOL     OW64725  12.079  10.557   8.312 -0.0994 -0.3247  0.2204
53305SOL    HW164726  12.022  10.560   8.389  0.1969 -0.7785  0.4640
53305SOL    HW264727  12.150  10.499   8.337 -0.8905 -1.9184 -0.9934
53306SOL     OW64728   7.383   0.245   1.455 -0.2197  0.3248 -0.0522
53306SOL    HW164729   7.422   0.187   1.391  1.4318  1.1726  0.1245
53306SOL    HW264730   7.428   0.224   1.537 -2.5902 -1.0463  1.0085
53307SOL     OW64731   4.031   6.252   3.616 -0.1884  0.3575 -0.4650
53307SOL    HW164732   3.985   6.332   3.588 -0.8113 -0.3882 -1.7047
53307SOL    HW264733   4.123   6.277   3.617 -0.2465  0.7773 -2.1074
53308SOL     OW64734   2.166   6.840   8.636  0.0009  0.0098 -0.2868
53308SOL    HW164735   2.230   6.849   8.566  1.2487  0.5964  0.8612
53308SOL    HW264736   2.177   6.750   8.668  0.6266  0.2507  0.2136
53309SOL     OW64737   6.591   8.533   4.254  0.0313  0.1719  0.4797
53309SOL    HW164738   6.571   8.479   4.178  1.0273 -1.1598  1.1257
53309SOL    HW264739   6.631   8.613   4.218 -1.3510  0.4601 -0.4811
53310SOL     OW64740   4.230   1.614   0.609 -0.3962  0.1861  0.7399
53310SOL    HW164741   4.292   1.638   0.540 -1.0252  1.1603  0.4981
53310SOL    HW264742   4.262   1.530   0.642  0.8885  0.5408  0.4365
53311SOL     OW64743   5.774   4.439  11.816 -0.2613  0.1630 -0.7197
53311SOL    HW164744   5.826   4.437  11.735 -2.3960  0.8685 -2.1831
53311SOL    HW264745   5.783   4.529  11.847  1.0896 -0.2694  0.2669
53312SOL     OW64746   0.089   3.715   5.790 -0.0092 -0.0534  0.7468
53312SOL    HW164747   0.070   3.671   5.708 -0.0807 -0.1674  0.8242
53312SOL    HW264748   0.105   3.806   5.765 -1.0059  0.1192  0.7187
53313SOL     OW64749  10.683   5.178   3.038  0.0821  0.0683  0.0352
53313SOL    HW164750  10.668   5.214   3.126 -0.1331 -0.7028  0.3202
53313SOL    HW264751  10.645   5.090   3.041  0.0808  0.0346 -0.8325
53314SOL     OW64752   8.667   6.120   3.873  0.8181 -0.6353  0.0980
53314SOL    HW164753   8.661   6.197   3.930 -0.1729 -0.3438 -0.3634
53314SOL    HW264754   8.625   6.148   3.791  1.5052 -1.2980 -0.4941
53315SOL     OW64755   4.632   7.542  12.108  0.5663  0.0728  0.2479
53315SOL    HW164756   4.579   7.598  12.050  1.7272  0.4610 -0.4794
53315SOL    HW264757   4.610   7.453  12.081  0.0071  0.2158  0.2111
53316SOL     OW64758   2.628   8.606   3.232  0.3902  0.0563  0.5551
53316SOL    HW164759   2.554   8.625   3.175 -0.5078  0.6973  1.8900
53316SOL    HW264760   2.634   8.510   3.232 -0.1762  0.0149  0.1062
53317SOL     OW64761   2.573  12.159   5.144 -0.6336  0.2332  0.2855
53317SOL    HW164762   2.658  12.205   5.146 -1.1987  1.3944 -0.7345
53317SOL    HW264763   2.549  12.159   5.052 -2.1828  0.7671  0.6661
53318SOL     OW64764   8.591  10.013  10.591 -0.2220  0.1687 -0.1623
53318SOL    HW164765   8.564  10.003  10.500  0.4689  1.2749 -0.5019
53318SOL    HW264766   8.668  10.070  10.587  1.5859 -2.0437  0.8478
53319SOL     OW64767   9.564   9.183  10.189  0.6442  0.2817 -0.8228
53319SOL    HW164768   9.474   9.152  10.199  1.1603 -1.4135 -1.0329
53319SOL    HW264769   9.580   9.182  10.095  0.2366  2.6763 -0.9761
53320SOL     OW64770   1.811   7.628   4.644 -0.3315 -0.9570 -0.2208
53320SOL    HW164771   1.756   7.566   4.691 -1.5377 -0.5635 -1.0872
53320SOL    HW264772   1.807   7.600   4.553  0.0692 -0.3105 -0.4403
53321SOL     OW64773   7.583   6.977  11.534 -0.3331  0.3077  0.2636
53321SOL    HW164774   7.532   6.954  11.456  0.0681 -2.1273  0.6262
53321SOL    HW264775   7.524   6.959  11.608  0.4154 -0.8048  0.6190
53322SOL     OW64776   0.028   4.799   3.218  0.5259  0.8246 -0.2148
53322SOL    HW164777   0.114   4.805   3.261  0.3991 -0.6588  0.3085
53322SOL    HW264778   0.005   4.889   3.198  1.0254  1.4967  1.9954
53323SOL     OW64779   3.974   8.316   1.541  0.0741 -0.0661  0.2578
53323SOL    HW164780   3.967   8.412   1.547  1.5952  0.1862 -1.1657
53323SOL    HW264781   4.035   8.302   1.469  2.3608 -2.0594  2.4432
53324SOL     OW64782   6.223   6.281   4.893  0.5166 -0.3489 -0.1935
53324SOL    HW164783   6.201   6.331   4.971 -0.4997 -0.6851 -0.2514
53324SOL    HW264784   6.238   6.346   4.825  1.7629 -0.0368  0.3483
53325SOL     OW64785   7.910   4.332   8.801  0.0156  0.0122 -0.1857
53325SOL    HW164786   7.909   4.427   8.810  2.1572 -0.0045  0.6306
53325SOL    HW264787   7.836   4.302   8.854  0.5248  1.1070  1.1864
53326SOL     OW64788  12.312  10.719  12.518  0.3057  0.1965  0.4487
53326SOL    HW164789  12.347  10.753  12.435  1.1399 -0.9091  0.3263
53326SOL    HW264790  12.258  10.645  12.492  0.5670 -0.1512  0.8943
53327SOL     OW64791   7.334   0.854  11.778  0.3523  0.3581  0.0695
53327SOL    HW164792   7.273   0.883  11.710 -0.0774 -0.5181  0.0711
53327SOL    HW264793   7.404   0.810  11.732 -0.2945 -0.8637  0.2214
53328SOL     OW64794  12.291   2.019   4.177  0.6666  0.2905  0.3756
53328SOL    HW164795  12.199   2.034   4.155  0.4220  0.3479  1.3886
53328SOL    HW264796  12.288   1.957   4.249  1.5572 -2.4118 -1.7465
53329SOL     OW64797  11.837   8.163   0.357 -0.1882  0.0594 -0.5055
53329SOL    HW164798  11.798   8.202   0.436 -1.1140 -1.9090  0.0651
53329SOL    HW264799  11.762   8.134   0.305  0.4115  1.3014 -2.1582
53330SOL     OW64800   3.917   1.103   0.382  0.2270  0.0721  0.0855
53330SOL    HW164801   3.915   1.008   0.396 -2.5101  0.0139 -0.3017
53330SOL    HW264802   3.906   1.113   0.288 -0.6591  0.7738  0.2560
53331SOL     OW64803  10.774   8.730  11.718 -0.2130 -0.2009  1.0423
53331SOL    HW164804  10.824   8.668  11.666  1.2525  0.5499  1.5145
53331SOL    HW264805  10.813   8.725  11.806  0.6779  2.1332  0.8514
53332SOL     OW64806   2.698   1.306   0.699 -0.4874 -0.0364 -0.4117
53332SOL    HW164807   2.633   1.376   0.697  1.3225  1.7313 -2.2573
53332SOL    HW264808   2.736   1.311   0.787 -0.2899  1.4257 -0.5641
53333SOL     OW64809   4.216  11.987   7.260 -0.5563  0.0108  0.7497
53333SOL    HW164810   4.247  11.992   7.350  2.0764 -1.4290  0.0355
53333SOL    HW264811   4.291  12.016   7.207 -0.7690 -2.4074 -1.0656
53334SOL     OW64812   3.805   2.419  11.012 -0.3910 -0.0439  0.3187
53334SOL    HW164813   3.761   2.335  11.024  0.8094 -0.7419 -0.0491
53334SOL    HW264814   3.890   2.397  10.973 -0.7257  1.4515 -1.3927
53335SOL     OW64815   0.861   4.454  12.097 -0.5966  0.4090 -0.1244
53335SOL    HW164816   0.904   4.368  12.096 -0.3168  0.5533 -1.0645
53335SOL    HW264817   0.767   4.433  12.091 -0.6229  0.1342  0.9456
53336SOL     OW64818  10.492   4.984  11.097  0.0176  0.9497 -0.3224
53336SOL    HW164819  10.427   5.001  11.029 -0.4314 -0.1026 -0.1690
53336SOL    HW264820  10.563   5.045  11.078 -1.3986  2.8106  0.0538
53337SOL     OW64821   8.058   6.184  10.040  0.3697 -0.4162  0.2668
53337SOL    HW164822   8.133   6.243  10.041 -0.4193  0.6074  0.3465
53337SOL    HW264823   8.009   6.208   9.961 -0.8222  0.1690  1.1597
53338SOL     OW64824   0.409   3.090   3.211  0.3981 -0.4334 -0.2745
53338SOL    HW164825   0.362   3.007   3.217  0.8748 -0.8298 -1.6042
53338SOL    HW264826   0.475   3.086   3.280 -0.2108 -0.7324  0.2988
53339SOL     OW64827  11.556  11.397   0.277 -0.1057  0.4921 -0.4452
53339SOL    HW164828  11.588  11.486   0.287  0.2042  0.2850  0.4209
53339SOL    HW264829  11.548  11.363   0.366 -2.2045  0.3472 -0.6351
53340SOL     OW64830   3.934   0.581   4.632  0.2261 -0.6966  0.1833
53340SOL    HW164831   3.904   0.610   4.546 -0.5925 -0.0999  0.6590
53340SOL    HW264832   3.937   0.661   4.684 -1.3154 -1.3206  1.2973
53341SOL     OW64833   6.687   4.497   9.127 -0.3398  0.6601 -0.0510
53341SOL    HW164834   6.751   4.509   9.057  0.1585  0.2161  0.3146
53341SOL    HW264835   6.739   4.502   9.207 -0.5424 -0.9954  0.2171
53342SOL     OW64836   7.762   3.109   4.618 -0.0772  0.8174 -0.1553
53342SOL    HW164837   7.690   3.086   4.678  1.0570  0.6439  1.1952
53342SOL    HW264838   7.748   3.202   4.598 -0.4288  0.8994  0.4497
53343SOL     OW64839   8.690   6.101  10.454 -0.5052  0.2489 -0.0138
53343SOL    HW164840   8.695   6.013  10.415  1.1528 -0.6032  1.9236
53343SOL    HW264841   8.731   6.158  10.390  0.7160 -0.8390 -0.2391
53344SOL     OW64842   7.039  11.911   2.972  0.3036  0.5727  0.3411
53344SOL    HW164843   7.050  12.000   3.007 -0.1680  0.2935  1.2412
53344SOL    HW264844   6.947  11.907   2.947  0.3965  0.4299  0.0271
53345SOL     OW64845  11.789   7.289   4.781  0.5910 -0.2178 -0.1374
53345SOL    HW164846  11.721   7.223   4.763  0.5054 -1.1066  2.7629
53345SOL    HW264847  11.871   7.241   4.773  0.6592 -0.0801 -0.2519
53346SOL     OW64848   8.522   0.594   2.869  0.9995 -0.1762  0.2916
53346SOL    HW164849   8.477   0.645   2.802 -0.8624  0.8305  2.2149
53346SOL    HW264850   8.522   0.504   2.834 -0.8557  0.1284 -0.6006
53347SOL     OW64851  11.865  10.626   1.733  0.4195  0.1911  0.0601
53347SOL    HW164852  11.933  10.615   1.666  0.1552 -0.2243 -0.1479
53347SOL    HW264853  11.853  10.538   1.769  1.0573  0.5407  1.1604
53348SOL     OW64854   5.942   5.109   5.335  0.0507  0.4020 -0.4470
53348SOL    HW164855   6.035   5.092   5.352 -0.1410 -3.7897 -2.3009
53348SOL    HW264856   5.898   5.086   5.417  0.4932 -0.3377 -0.4064
53349SOL     OW64857   9.974   0.528   8.226  0.0235  0.2065 -0.2052
53349SOL    HW164858   9.981   0.438   8.195  0.9412  0.5148 -0.9351
53349SOL    HW264859  10.037   0.534   8.298 -0.5320  0.0840  0.2960
53350SOL     OW64860   6.070   4.843   6.088 -0.2498 -0.4230  0.2055
53350SOL    HW164861   6.005   4.792   6.039 -1.4155 -0.6811  1.9391
53350SOL    HW264862   6.150   4.789   6.085 -0.7400 -1.1513 -0.0987
53351SOL     OW64863  11.168   8.368  11.499  0.5261 -0.6919  0.1540
53351SOL    HW164864  11.207   8.317  11.570  0.8047 -2.6619 -1.3290
53351SOL    HW264865  11.242   8.389  11.442  0.1897  0.1976  0.0395
53352SOL     OW64866  11.757   2.042   4.109 -0.1213  0.3706  0.2553
53352SOL    HW164867  11.737   2.113   4.048  1.3401  0.5410 -0.0624
53352SOL    HW264868  11.701   1.969   4.081  1.4065  0.0057 -2.1758
53353SOL     OW64869   7.311  11.966   8.749 -0.1492 -0.1231  0.2798
53353SOL    HW164870   7.226  11.972   8.792 -0.9556 -2.1153 -0.9210
53353SOL    HW264871   7.374  11.967   8.821 -1.3272 -0.8381  1.3566
53354SOL     OW64872  11.143   0.928   4.618  0.8371 -0.0005 -0.1919
53354SOL    HW164873  11.096   0.855   4.579  0.7528 -0.8543  1.4000
53354SOL    HW264874  11.183   0.891   4.697  0.4696  1.7553  0.8671
53355SOL     OW64875   3.164   8.026  11.086 -0.8078 -0.3108  0.4153
53355SOL    HW164876   3.210   8.084  11.025  0.0382  0.3575  1.6451
53355SOL    HW264877   3.109   8.084  11.139  0.8826 -0.3983  2.4086
53356SOL     OW64878   3.161  12.628  10.225  0.4027 -0.5778  0.3974
53356SOL    HW164879   3.206  12.553  10.187  1.8835 -0.3430  1.6032
53356SOL    HW264880   3.228  12.696  10.231 -0.4137  0.1950  1.1263
53357SOL     OW64881   0.375   0.937   1.988 -0.7112  0.2570 -0.2068
53357SOL    HW164882   0.410   0.880   1.920  1.2893  2.2023 -0.9302
53357SOL    HW264883   0.419   0.908   2.068 -2.4467 -1.4890  0.2056
53358SOL     OW64884   9.987   8.302  12.244 -0.0196 -0.2430  0.0046
53358SOL    HW164885  10.016   8.386  12.207  0.7072  0.0372  1.1640
53358SOL    HW264886  10.027   8.236  12.188  0.7583  0.1795  0.0457
53359SOL     OW64887  11.749   5.703   0.344  0.3373  0.3478 -0.1430
53359SOL    HW164888  11.724   5.665   0.428  1.1698  0.4875  0.1780
53359SOL    HW264889  11.672   5.753   0.316 -0.1416 -0.1481  0.2628
53360SOL     OW64890   6.747   6.375   1.936  0.4543  0.2984 -0.2442
53360SOL    HW164891   6.807   6.450   1.933 -1.4810  1.8750 -2.0546
53360SOL    HW264892   6.681   6.394   1.870 -2.0002 -1.4184  1.5446
53361SOL     OW64893   8.211   9.014   7.653 -0.0061  0.2937  0.0110
53361SOL    HW164894   8.160   8.960   7.712 -0.2569 -1.1826 -1.4802
53361SOL    HW264895   8.295   9.025   7.697  0.3014 -1.9243  0.1002
53362SOL     OW64896   0.675   6.925   6.503  0.9327 -0.2470 -0.1123
53362SOL    HW164897   0.724   6.900   6.425  1.9614  0.7797  0.1918
53362SOL    HW264898   0.601   6.863   6.505  0.3355  0.2888 -2.4013
53363SOL     OW64899   3.854   1.027  11.799 -0.1979 -0.3040 -0.0590
53363SOL    HW164900   3.879   0.945  11.756  0.1321  0.0449 -0.5463
53363SOL    HW264901   3.853   1.092  11.728  2.1774  0.6881  0.7173
53364SOL     OW64902  11.501   3.434   8.747  0.0761  0.4109 -0.5859
53364SOL    HW164903  11.537   3.423   8.835 -0.2890 -0.4114 -0.5242
53364SOL    HW264904  11.502   3.345   8.710 -2.4658  0.2173 -0.3457
53365SOL     OW64905   0.838   3.481   3.036  0.2094  0.0408  0.0469
53365SOL    HW164906   0.814   3.408   3.093  0.2975 -0.4742 -0.5528
53365SOL    HW264907   0.759   3.497   2.984 -0.3448  1.4516  1.2691
53366SOL     OW64908   0.841   8.258  11.387  0.0205  0.3931 -0.4496
53366SOL    HW164909   0.911   8.306  11.432 -0.0693  0.4102 -0.3280
53366SOL    HW264910   0.761   8.285  11.432  0.1317 -1.2445  0.8000
53367SOL     OW64911  12.598   0.517   1.186  0.1441  0.1864  0.4604
53367SOL    HW164912  12.638   0.436   1.218  1.2890  0.4502 -0.2208
53367SOL    HW264913  12.562   0.494   1.101  0.0307  0.2766  0.4838
53368SOL     OW64914   1.780   0.861   6.420 -0.0422 -0.3603  0.0729
53368SOL    HW164915   1.850   0.810   6.462  1.6671  1.3682 -0.4890
53368SOL    HW264916   1.791   0.844   6.326 -0.4449 -0.1590 -0.0119
53369SOL     OW64917   6.305  11.545   7.383 -0.4075  0.2814  0.0688
53369SOL    HW164918   6.337  11.633   7.402  1.6595 -0.7031  1.4452
53369SOL    HW264919   6.210  11.551   7.395 -0.2984  2.2938  0.2056
53370SOL     OW64920   0.537   3.952   6.007 -0.5471  0.2221  0.9114
53370SOL    HW164921   0.578   3.894   6.071 -3.7672 -2.4678  0.8500
53370SOL    HW264922   0.465   3.994   6.055 -0.5262  1.3071  0.0301
53371SOL     OW64923  10.329   4.047  11.234 -0.3664 -0.1835  0.0057
53371SOL    HW164924  10.260   4.094  11.187 -0.9895  0.7935  1.8118
53371SOL    HW264925  10.282   3.989  11.293  0.3893 -0.5405  0.2623
53372SOL     OW64926   1.523  10.291   4.243  0.8087 -0.0920  0.1996
53372SOL    HW164927   1.594  10.254   4.296  0.8486 -0.6627 -0.2390
53372SOL    HW264928   1.515  10.382   4.273  1.7948  0.0127  0.1884
53373SOL     OW64929   5.601   8.860   7.288  0.0587 -0.3440  0.1732
53373SOL    HW164930   5.512   8.838   7.261  0.6532 -1.5173 -0.9204
53373SOL    HW264931   5.606   8.834   7.380 -1.2256  1.3509  0.7767
53374SOL     OW64932   0.335   8.884   1.945 -0.3850  0.1888 -0.4679
53374SOL    HW164933   0.413   8.829   1.943  1.0522  2.1159 -0.5720
53374SOL    HW264934   0.307   8.884   2.037  2.3539  2.8264  0.5039
53375SOL     OW64935   6.788   8.474   9.296 -0.2479 -0.7372  0.5133
53375SOL    HW164936   6.765   8.495   9.205  1.2892 -1.7825 -0.1590
53375SOL    HW264937   6.715   8.508   9.348 -0.6126  0.9218 -1.0002
53376SOL     OW64938   3.152   5.046   8.042  0.4043 -0.0238  0.6612
53376SOL    HW164939   3.077   5.066   7.985  0.1693 -2.0347  0.2044
53376SOL    HW264940   3.180   5.132   8.075 -1.6593  0.8613  0.3076
53377SOL     OW64941  11.567   1.248   7.071 -0.7402 -0.4662 -0.5009
53377SOL    HW164942  11.498   1.311   7.048  0.0219  0.3919 -0.5073
53377SOL    HW264943  11.553   1.231   7.164 -0.3234  0.5342 -0.2450
53378SOL     OW64944   2.464   8.806   2.376 -0.1608  0.0139 -0.2532
53378SOL    HW164945   2.386   8.826   2.429 -0.0693 -0.9546  0.2736
53378SOL    HW264946   2.430   8.768   2.296 -0.2572  0.3817 -0.3886
53379SOL     OW64947   4.765  11.809   8.223 -0.9972 -0.0394  0.0867
53379SOL    HW164948   4.741  11.867   8.295 -0.9618 -0.5305  0.5016
53379SOL    HW264949   4.761  11.721   8.261  0.1394 -0.2243 -0.1849
53380SOL     OW64950   7.561   4.219   8.203 -0.1408 -0.2916 -0.0245
53380SOL    HW164951   7.581   4.164   8.279 -0.9490  1.7291  1.7682
53380SOL    HW264952   7.644   4.260   8.180  0.4359 -2.0298 -1.2791
53381SOL     OW64953   5.559   3.599   8.771 -0.3073  0.0268  0.0359
53381SOL    HW164954   5.485   3.582   8.829 -2.2572 -0.1945 -2.3960
53381SOL    HW264955   5.531   3.673   8.717  1.7891  0.7859 -0.1159
53382SOL     OW64956   1.040   1.980   4.916  0.3396  0.2752 -0.3790
53382SOL    HW164957   0.966   1.994   4.858 -0.6824  1.4135  1.1164
53382SOL    HW264958   1.093   2.059   4.908  2.2935 -1.1069 -2.5431
53383SOL     OW64959   1.396   2.962   8.306 -0.1259 -0.8236  0.7170
53383SOL    HW164960   1.415   3.028   8.373  0.5803 -1.2145  0.9133
53383SOL    HW264961   1.324   2.911   8.342  0.5118 -1.2777  1.3581
53384SOL     OW64962   0.618   0.282  10.794  0.3387 -0.2811  0.3232
53384SOL    HW164963   0.606   0.259  10.886 -1.1387  1.0731  0.5072
53384SOL    HW264964   0.529   0.286  10.758  0.6995  1.8250 -0.4744
53385SOL     OW64965   1.249  11.172   6.323  0.5376 -0.3152  0.3898
53385SOL    HW164966   1.223  11.249   6.374 -0.1090 -0.6327  0.5535
53385SOL    HW264967   1.171  11.150   6.273  0.5692 -1.1507  0.7031
53386SOL     OW64968   8.756   5.768   5.053  0.0232  0.6154 -0.3585
53386SOL    HW164969   8.669   5.759   5.015  0.3067 -0.6669 -0.7540
53386SOL    HW264970   8.805   5.819   4.989 -0.2148  0.6655 -0.5017
53387SOL     OW64971   0.980   7.008   4.800 -0.5017 -0.6521 -0.6773
53387SOL    HW164972   1.038   6.942   4.837  1.8327  1.2846 -0.6254
53387SOL    HW264973   0.952   6.972   4.716 -0.1724 -2.1383 -0.1795
53388SOL     OW64974   6.780   0.895  10.561  0.2626 -0.5759 -0.0559
53388SOL    HW164975   6.738   0.842  10.494 -0.4654 -0.5718  0.3834
53388SOL    HW264976   6.854   0.842  10.591  0.0818 -0.9472 -0.2598
53389SOL     OW64977   1.497   9.303   3.010 -0.1329 -0.1343  0.3685
53389SOL    HW164978   1.436   9.338   3.076  0.6931 -0.1037  1.1370
53389SOL    HW264979   1.482   9.357   2.933 -0.1853  0.7228  0.9619
53390SOL     OW64980   4.317   7.757   9.411 -0.2223 -0.3600  0.0594
53390SOL    HW164981   4.394   7.730   9.462 -0.8212  1.2714  1.9850
53390SOL    HW264982   4.352   7.785   9.327  1.4345  1.0693  1.1608
53391SOL     OW64983   8.181   7.649   5.163  0.2161 -0.4752  0.1705
53391SOL    HW164984   8.193   7.730   5.214  1.7550 -0.7236  0.2737
53391SOL    HW264985   8.088   7.630   5.168 -0.2699  1.5575 -0.2505
53392SOL     OW64986   9.611  12.106   4.016  0.5709 -0.1681 -0.1897
53392SOL    HW164987   9.613  12.161   4.094  0.0781 -2.2888  1.3959
53392SOL    HW264988   9.700  12.110   3.982  0.8603  0.5691  0.6132
53393SOL     OW64989   1.249   4.867   1.615  0.1269 -0.3045 -0.3368
53393SOL    HW164990   1.200   4.862   1.533 -0.5176 -1.7461  0.1095
53393SOL    HW264991   1.221   4.949   1.655  0.7120  0.5984 -1.6973
53394SOL     OW64992  12.301   0.768   9.032 -0.2551 -0.2487  0.1917
53394SOL    HW164993  12.359   0.709   9.080 -1.2169 -0.3644  1.2449
53394SOL    HW264994  12.270   0.716   8.957 -0.6972 -0.9176  0.8287
53395SOL     OW64995   9.522   9.668   3.300  0.0847  0.2294  0.6057
53395SOL    HW164996   9.441   9.665   3.250  0.3108  0.7173  0.1996
53395SOL    HW264997   9.516   9.594   3.360 -0.5919  0.1745  0.4780
53396SOL     OW64998   1.177   0.770   5.774 -0.1551 -0.5395 -0.3334
53396SOL    HW164999   1.217   0.696   5.820  0.8410 -0.3341 -0.8546
53396SOL    HW265000   1.245   0.801   5.715  0.4353  2.4545  1.6868
53397SOL     OW65001   7.238   5.837  10.110  0.2132  0.2135 -0.4472
53397SOL    HW165002   7.327   5.864  10.084  1.0461 -2.8002 -1.1671
53397SOL    HW265003   7.252   5.773  10.179 -1.4884  0.2281 -0.0445
53398SOL     OW65004   7.184  11.463   8.150 -0.0776 -0.1827 -0.2209
53398SOL    HW165005   7.151  11.386   8.104 -1.9186  0.5244 -0.1752
53398SOL    HW265006   7.179  11.533   8.084  0.7670  0.0720 -0.0147
53399SOL     OW65007   6.822   7.102   9.376 -0.5418 -0.5786  0.1866
53399SOL    HW165008   6.865   7.110   9.291 -3.7009 -0.7490 -1.5831
53399SOL    HW265009   6.781   7.187   9.391 -1.5372 -1.1117  0.6147
53400SOL     OW65010  11.818   5.579  12.391 -0.5440 -0.5624 -0.3706
53400SOL    HW165011  11.813   5.575  12.487 -0.3115  0.8347 -0.2727
53400SOL    HW265012  11.795   5.491  12.362 -0.1985 -1.1320  0.9885
53401SOL     OW65013   9.619   3.532   7.055  0.0298  0.2651  0.4573
53401SOL    HW165014   9.649   3.477   7.128  2.4937  0.0115 -0.6588
53401SOL    HW265015   9.605   3.618   7.094  0.8989  0.0298  1.3260
53402SOL     OW65016   6.366   2.957   3.850 -0.5054 -0.0820  0.1770
53402SOL    HW165017   6.430   2.953   3.921  0.7629 -0.7494 -0.9720
53402SOL    HW265018   6.301   3.021   3.880  0.7960  0.7743  1.2798
53403SOL     OW65019   8.021   2.190  11.358 -0.0778 -0.5053  0.2942
53403SOL    HW165020   8.056   2.146  11.435 -2.6407 -1.1347  1.2067
53403SOL    HW265021   8.023   2.283  11.381 -2.2509 -0.7784  1.8567
53404SOL     OW65022   7.006  10.026   5.679  0.1290 -0.2466  0.4654
53404SOL    HW165023   7.093   9.989   5.694  0.5260  0.5195  0.0611
53404SOL    HW265024   6.947   9.951   5.691  0.8915 -0.9445 -0.0093
53405SOL     OW65025   4.676  12.261   2.571  0.2877 -0.6324  0.0069
53405SOL    HW165026   4.745  12.326   2.585  0.7209 -1.1205  0.1807
53405SOL    HW265027   4.709  12.181   2.613  0.2077 -1.2432 -1.0669
53406SOL     OW65028   5.822   0.092  10.429 -0.0600  0.2476 -0.0967
53406SOL    HW165029   5.812  -0.000  10.406  0.6177  0.0603  0.3164
53406SOL    HW265030   5.907   0.096  10.474  0.1119  1.1457 -0.4860
53407SOL     OW65031  12.006   7.448   7.416  0.5150 -0.6071 -0.3639
53407SOL    HW165032  11.922   7.423   7.454 -0.3834  0.3632 -1.6722
53407SOL    HW265033  12.069   7.390   7.460 -0.8569 -1.6400  0.3359
53408SOL     OW65034   8.877   0.140   3.992 -0.3582 -0.2794  0.6284
53408SOL    HW165035   8.858   0.046   3.990  1.2337 -0.6574  1.7340
53408SOL    HW265036   8.897   0.159   4.084  1.1031  0.7589  0.1265
53409SOL     OW65037   5.263   9.816   7.617 -0.2045 -0.1598 -0.4075
53409SOL    HW165038   5.188   9.873   7.600 -0.5373 -1.1939 -2.7716
53409SOL    HW265039   5.326   9.837   7.549  0.9237 -0.5477  0.4931
53410SOL     OW65040   6.634   0.264   5.243  0.3947  0.1317 -0.1445
53410SOL    HW165041   6.702   0.199   5.223  1.5359  1.1323  0.3855
53410SOL    HW265042   6.555   0.229   5.201  1.1660 -1.1891 -0.5569
53411SOL     OW65043   9.892   3.028   1.920 -0.3523 -0.5633  0.0725
53411SOL    HW165044   9.975   3.069   1.896  0.0175 -1.5850 -0.4639
53411SOL    HW265045   9.851   3.090   1.980  1.2127 -0.4375  1.0653
53412SOL     OW65046   2.537   6.419  10.506  0.1722 -0.3512  0.3324
53412SOL    HW165047   2.589   6.450  10.580  0.0225  0.9661 -0.0897
53412SOL    HW265048   2.448   6.413  10.541  0.3538 -1.1781  0.6584
53413SOL     OW65049  10.071   4.330   3.657  0.0882  0.4765  0.4777
53413SOL    HW165050   9.994   4.380   3.631  0.4990  0.6798 -0.3966
53413SOL    HW265051  10.054   4.303   3.747 -2.8731 -3.0449 -0.8784
53414SOL     OW65052   4.937   7.323   9.133  0.0076 -0.1624 -0.2265
53414SOL    HW165053   4.934   7.384   9.207 -0.2548 -1.1547  0.6016
53414SOL    HW265054   4.894   7.244   9.165  0.6458 -0.9148 -1.1568
53415SOL     OW65055   4.005   1.780  11.824  0.1700  0.2654  0.7169
53415SOL    HW165056   4.044   1.831  11.895  1.2820 -2.0510  1.8653
53415SOL    HW265057   3.930   1.736  11.864 -0.1996  0.2230 -0.0012
53416SOL     OW65058   3.356  11.689   2.902  0.2136 -0.1876  0.8650
53416SOL    HW165059   3.375  11.655   2.815 -1.4086 -0.9346  0.7490
53416SOL    HW265060   3.439  11.725   2.933  1.1221 -1.0231 -0.4810
53417SOL     OW65061   4.175  10.739  11.587  0.3497  0.3483  0.2506
53417SOL    HW165062   4.238  10.802  11.621  1.0778 -0.7777  1.0955
53417SOL    HW265063   4.103  10.741  11.650  0.6433 -0.0749  0.6065
53418SOL     OW65064   5.606   5.630   8.460  0.0518  0.8535  0.1132
53418SOL    HW165065   5.632   5.559   8.402  1.2810  1.7732 -0.5035
53418SOL    HW265066   5.540   5.678   8.410 -0.9536  0.0413  0.6245
53419SOL     OW65067   3.656  11.606  12.250 -0.1157 -0.1597 -0.3262
53419SOL    HW165068   3.588  11.602  12.317  2.4763 -1.0357  2.5071
53419SOL    HW265069   3.652  11.696  12.217 -2.0537  0.0448  0.3423
53420SOL     OW65070   4.916   6.909   1.157  0.2174 -0.0538  0.0470
53420SOL    HW165071   4.876   6.839   1.107  2.1292 -1.9404  1.0124
53420SOL    HW265072   4.986   6.943   1.101  1.2959 -1.0570  0.7530
53421SOL     OW65073   6.722   6.952   2.066 -0.8621 -0.3382  0.3214
53421SOL    HW165074   6.811   6.916   2.071 -0.9786 -0.7585 -0.4985
53421SOL    HW265075   6.726   7.031   2.120 -0.1459 -0.6590  0.7659
53422SOL     OW65076   2.737   8.333   3.518 -0.0788  0.0446  0.6649
53422SOL    HW165077   2.684   8.413   3.515  0.2497  0.2728  0.9262
53422SOL    HW265078   2.677   8.266   3.551 -0.2460  0.2697  0.8211
53423SOL     OW65079   2.550  11.730   7.772 -0.4118 -0.5651  0.2288
53423SOL    HW165080   2.479  11.793   7.771  0.1407  0.0923 -2.0743
53423SOL    HW265081   2.624  11.778   7.811 -0.2598 -0.0782 -0.6384
53424SOL     OW65082   2.000   7.512   0.728  0.3559  0.0751 -0.0697
53424SOL    HW165083   2.021   7.583   0.668 -0.2072  0.4100  0.1270
53424SOL    HW265084   1.938   7.550   0.790 -1.5400 -1.1308 -1.1475
53425SOL     OW65085   0.020   9.552  11.324 -0.6872 -0.4596  0.3283
53425SOL    HW165086   0.060   9.466  11.340 -0.0220 -0.5164 -1.3453
53425SOL    HW265087   0.088   9.601  11.278 -1.1874  0.8538  0.9601
53426SOL     OW65088   9.186   1.040  10.507  0.1725  0.2846 -0.2561
53426SOL    HW165089   9.157   1.015  10.419 -0.8965 -0.0407  0.1650
53426SOL    HW265090   9.281   1.042  10.501  0.1244  0.1311 -1.3847
53427SOL     OW65091   9.345   5.082  10.286 -0.1794  0.1650 -0.6002
53427SOL    HW165092   9.277   5.100  10.222 -1.1305 -1.4531 -0.0846
53427SOL    HW265093   9.407   5.025  10.241 -0.8101 -0.9129 -0.1323
53428SOL     OW65094   6.852   0.336  11.522 -0.2905 -0.0018  0.1920
53428SOL    HW165095   6.757   0.334  11.511 -0.0773 -0.7746 -2.3325
53428SOL    HW265096   6.877   0.427  11.507 -0.5113 -0.1374 -1.1324
53429SOL     OW65097   2.060  11.513   9.200  0.2883  0.0792 -0.7047
53429SOL    HW165098   2.119  11.488   9.129  1.6267  0.0018  0.4114
53429SOL    HW265099   2.046  11.433   9.250  0.6247  0.4746  0.0317
53430SOL     OW65100   1.348  12.075   5.057  0.3489 -0.3010  0.1765
53430SOL    HW165101   1.368  12.011   4.988 -0.1973  1.6907 -1.9666
53430SOL    HW265102   1.419  12.066   5.120 -0.6363 -4.2197  0.9488
53431SOL     OW65103   3.778  11.916   2.772  0.2657  0.2856  0.3297
53431SOL    HW165104   3.784  11.905   2.677 -0.4866  0.5992  0.2426
53431SOL    HW265105   3.809  12.005   2.787 -3.9889  2.0725 -0.1663
53432SOL     OW65106   3.912   7.410   1.137 -0.3481 -0.6747 -0.0670
53432SOL    HW165107   3.921   7.316   1.157 -2.1310 -0.6485  1.0104
53432SOL    HW265108   3.851   7.413   1.063  1.1491 -0.4133 -1.3497
53433SOL     OW65109   2.880   5.015  11.221 -0.3758  0.5339 -0.4481
53433SOL    HW165110   2.898   5.064  11.301  1.4205  0.4528 -0.7494
53433SOL    HW265111   2.812   5.066  11.177 -2.3134 -0.0856  1.6552
53434SOL     OW65112  12.346  11.830   2.529 -0.4087 -0.5557  0.1480
53434SOL    HW165113  12.297  11.862   2.454  1.1090 -0.1171 -0.6919
53434SOL    HW265114  12.393  11.907   2.562 -1.0341 -0.7356  1.5651
53435SOL     OW65115   3.058   6.871   4.953  0.3323  0.7361  0.2141
53435SOL    HW165116   3.033   6.941   4.892  3.5208  0.6613 -1.4128
53435SOL    HW265117   3.121   6.912   5.012  0.4048 -0.1924  0.7950
53436SOL     OW65118   0.749   4.828   2.036  0.0825  0.0330  0.0312
53436SOL    HW165119   0.689   4.754   2.030  0.8044 -0.5800  0.2971
53436SOL    HW265120   0.809   4.806   2.108  0.6747  0.5969 -0.2724
53437SOL     OW65121  10.917   2.974  10.347 -0.4375  0.0246  0.1722
53437SOL    HW165122  10.927   2.885  10.314 -1.0253  0.0782 -0.1722
53437SOL    HW265123  10.961   3.029  10.282  0.3319 -0.0490  0.6249
53438SOL     OW65124   5.547   4.906  12.414 -0.1193 -0.4689  0.7565
53438SOL    HW165125   5.560   5.000  12.428  2.0764 -0.6989  0.6791
53438SOL    HW265126   5.493   4.901  12.335 -0.2709  0.7277  0.7592
53439SOL     OW65127  11.130   9.019   3.404  0.6157 -0.2642  0.0819
53439SOL    HW165128  11.058   9.042   3.344  2.0247  2.3286 -0.7720
53439SOL    HW265129  11.101   9.052   3.489  1.4881  2.6992 -0.6363
53440SOL     OW65130   6.070   2.707   1.379 -0.7397 -0.6636  0.0014
53440SOL    HW165131   6.116   2.767   1.438 -0.0996  0.3323 -1.4557
53440SOL    HW265132   5.980   2.738   1.380 -0.7105 -0.5792  0.3637
53441SOL     OW65133  10.336   1.433  11.319  0.8017 -0.5082  0.3699
53441SOL    HW165134  10.338   1.504  11.384 -0.5042 -0.5923  0.5379
53441SOL    HW265135  10.427   1.423  11.291  1.1923  0.3965  1.2513
53442SOL     OW65136  10.549  10.217  12.331 -0.3998 -0.5991 -0.3785
53442SOL    HW165137  10.600  10.298  12.326  0.5786 -1.0492  1.4505
53442SOL    HW265138  10.461  10.242  12.303 -0.0824  1.0671  0.0418
53443SOL     OW65139   2.143   4.169   1.914  0.2466  0.0850 -0.3887
53443SOL    HW165140   2.137   4.075   1.900  2.2740 -0.1274 -0.0814
53443SOL    HW265141   2.125   4.180   2.008  0.3182 -0.0299 -0.3614
53444SOL     OW65142  11.258   8.835   9.263  0.1629 -0.1712 -0.1230
53444SOL    HW165143  11.317   8.821   9.188 -1.9634 -0.9746 -1.7507
53444SOL    HW265144  11.181   8.876   9.225 -0.7775 -0.1116  1.7478
53445SOL     OW65145  11.294  10.412   1.999  0.0641 -0.1358 -0.2103
53445SOL    HW165146  11.362  10.440   1.939  0.4201  1.1610  0.7536
53445SOL    HW265147  11.214  10.454   1.967  0.3328  0.8977  0.4337
53446SOL     OW65148   8.013   5.140   9.998 -0.1019  0.8159  0.3989
53446SOL    HW165149   7.991   5.230   9.974  0.1308  1.1930  1.5326
53446SOL    HW265150   7.942   5.113  10.056 -0.6850 -0.0953 -0.7011
53447SOL     OW65151   4.485   0.902   1.673  0.2152 -0.1077 -0.3320
53447SOL    HW165152   4.396   0.870   1.660  0.0358  0.3812 -0.3440
53447SOL    HW265153   4.488   0.983   1.623  0.2763  0.5353  0.6799
53448SOL     OW65154   3.897   2.673   6.159 -0.3185 -0.5440 -0.4177
53448SOL    HW165155   3.813   2.713   6.136 -0.2746 -0.2261 -0.0250
53448SOL    HW265156   3.920   2.620   6.082 -0.7959 -0.5003 -0.5904
53449SOL     OW65157   5.735   8.693   4.897  0.0280  0.4766  0.4661
53449SOL    HW165158   5.818   8.660   4.929  2.2889  3.5514 -1.6190
53449SOL    HW265159   5.719   8.646   4.815  0.1446  0.4511  0.4596
53450SOL     OW65160   0.556   6.103   0.797 -0.4080 -0.6982  0.3078
53450SOL    HW165161   0.525   6.016   0.824  0.1536 -0.9213  0.2406
53450SOL    HW265162   0.644   6.109   0.833  0.2581 -0.8843 -1.2336
53451SOL     OW65163   7.767  11.937   9.308  0.2701  0.4783 -0.8028
53451SOL    HW165164   7.741  11.850   9.280 -1.3773  0.7724 -0.3058
53451SOL    HW265165   7.827  11.968   9.241  0.2508 -0.7334 -1.3912
53452SOL     OW65166   6.053   2.203   0.573 -0.5501  0.2328 -0.4608
53452SOL    HW165167   6.052   2.115   0.537 -0.0091  0.2548 -0.5305
53452SOL    HW265168   5.965   2.215   0.609 -1.4745  0.5844 -2.6686
53453SOL     OW65169   8.698  11.926   9.951  0.7110  0.2494  0.1194
53453SOL    HW165170   8.653  11.976  10.019  2.3138 -0.1575  1.5404
53453SOL    HW265171   8.666  11.963   9.869 -0.6911  1.2874  1.0845
53454SOL     OW65172   7.985  11.036   7.558 -0.1930  0.0185  0.0572
53454SOL    HW165173   7.954  11.119   7.594  0.4223 -0.0941  0.8791
53454SOL    HW265174   7.956  10.970   7.620 -0.4939 -0.3637 -0.4804
53455SOL     OW65175   8.772   1.401   5.608 -0.1064  0.0274  0.0575
53455SOL    HW165176   8.857   1.379   5.645  0.8791  0.4779 -1.7838
53455SOL    HW265177   8.735   1.316   5.581  0.0937 -0.1119  0.2207
53456SOL     OW65178  10.615  11.058   3.994  0.3299 -0.1990  0.2189
53456SOL    HW165179  10.694  11.005   3.981 -1.0423 -2.2321 -0.3626
53456SOL    HW265180  10.602  11.059   4.089  0.9130 -0.0612  0.3004
53457SOL     OW65181   1.529  10.692  12.423 -0.5211  0.5734 -0.0141
53457SOL    HW165182   1.494  10.760  12.480 -2.0648 -1.4435  1.6233
53457SOL    HW265183   1.593  10.646  12.478 -0.9044 -0.4728 -0.4186
53458SOL     OW65184  10.626  11.324   3.914  0.3147  0.2598  0.1095
53458SOL    HW165185  10.541  11.320   3.958 -0.3902  1.3652 -1.0467
53458SOL    HW265186  10.658  11.234   3.915 -1.9701 -0.6963 -1.4185
53459SOL     OW65187   1.892  10.040   7.179  0.5353 -0.7069 -0.2072
53459SOL    HW165188   1.871  10.004   7.265 -0.1942 -1.8039 -0.8264
53459SOL    HW265189   1.973   9.997   7.153  1.5314  0.6555  0.5004
53460SOL     OW65190   1.209   2.238   8.002  0.5822  0.6382 -0.8252
53460SOL    HW165191   1.226   2.145   8.017  0.2686  0.7633  0.4678
53460SOL    HW265192   1.117   2.242   7.976 -0.5394  0.8211  2.6417
53461SOL     OW65193   0.655   2.907  10.379 -0.2133  0.1840 -0.1487
53461SOL    HW165194   0.584   2.951  10.333 -0.5481 -0.0861  0.1105
53461SOL    HW265195   0.638   2.814  10.367 -0.9267  0.0775  1.4369
53462SOL     OW65196   7.639   9.095   3.668 -0.5764 -0.2341  0.2830
53462SOL    HW165197   7.591   9.101   3.751  0.3113  1.0055  0.7347
53462SOL    HW265198   7.720   9.051   3.691 -0.5858 -0.4303 -0.0542
53463SOL     OW65199   7.287   4.399   9.720  0.1613 -0.0598  0.1701
53463SOL    HW165200   7.304   4.362   9.634 -1.6273 -2.3139  0.6725
53463SOL    HW265201   7.370   4.438   9.747  0.6343  1.2071 -2.7239
53464SOL     OW65202   4.779   4.587   8.393  0.1276 -0.2615 -0.0387
53464SOL    HW165203   4.742   4.624   8.473 -2.2404 -0.6291 -0.8805
53464SOL    HW265204   4.760   4.494   8.399  1.7764 -0.6281 -0.1296
53465SOL     OW65205   9.767   0.088   8.500  0.2036 -0.5725  0.1049
53465SOL    HW165206   9.689   0.037   8.521  0.0938  0.3681  2.1117
53465SOL    HW265207   9.831   0.064   8.567  1.3121 -0.5188 -0.8843
53466SOL     OW65208   7.656   5.686   9.951 -0.5065 -0.2604 -0.0383
53466SOL    HW165209   7.618   5.715   9.868  1.2484  1.6723 -0.2510
53466SOL    HW265210   7.751   5.692   9.938 -0.1741  0.8660  2.3238
53467SOL     OW65211   3.406   6.798   8.521 -0.1533 -0.2777 -0.5120
53467SOL    HW165212   3.386   6.892   8.524 -1.5372 -0.5572 -0.3102
53467SOL    HW265213   3.497   6.794   8.493 -0.0714  1.1294 -0.5293
53468SOL     OW65214   9.130   3.813   3.732  0.3880 -0.3903  0.3796
53468SOL    HW165215   9.106   3.830   3.823  1.0556 -1.1900  0.7154
53468SOL    HW265216   9.053   3.839   3.682  0.3959  1.1055  1.0623
53469SOL     OW65217   5.514  11.115  11.851  0.5449 -0.5711  0.4931
53469SOL    HW165218   5.549  11.149  11.769  0.3257  0.3097  0.7520
53469SOL    HW265219   5.572  11.042  11.874 -0.0076 -1.5144 -0.9656
53470SOL     OW65220   0.068   2.473   0.139 -0.4467 -0.4504 -0.3766
53470SOL    HW165221   0.099   2.399   0.087 -0.7494 -0.7434 -0.1426
53470SOL    HW265222  -0.006   2.507   0.090 -0.3961 -0.3911 -0.4120
53471SOL     OW65223   3.488   9.453  11.522 -0.8844  0.1374 -0.0213
53471SOL    HW165224   3.423   9.521  11.542 -2.1805 -0.7781 -0.9991
53471SOL    HW265225   3.510   9.467  11.430  0.1838  0.3220  0.2539
53472SOL     OW65226   5.056   6.675   2.882  0.0038 -0.1208 -0.3830
53472SOL    HW165227   4.984   6.663   2.821 -0.0257 -1.0246 -0.1897
53472SOL    HW265228   5.097   6.588   2.887 -0.9924 -0.5304  2.1309
53473SOL     OW65229   9.333   8.747   2.582  0.0176 -0.8931 -0.1718
53473SOL    HW165230   9.301   8.674   2.636  0.7906 -0.6773  0.5989
53473SOL    HW265231   9.428   8.747   2.596 -0.0420  0.6571  0.3475
53474SOL     OW65232   3.352   8.952   0.067  0.7017  0.4350 -0.3566
53474SOL    HW165233   3.318   8.863   0.059  0.3824  0.6207 -1.1010
53474SOL    HW265234   3.432   8.953   0.014  0.8870  0.5072 -0.0834
53475SOL     OW65235   4.628  12.182   8.573  0.2719 -0.2117 -0.1129
53475SOL    HW165236   4.565  12.222   8.512  0.0994 -0.8330 -0.3499
53475SOL    HW265237   4.590  12.198   8.660  0.0348 -0.1442 -0.2272
53476SOL     OW65238  10.853  10.592   9.062 -0.1988  0.2479  0.7220
53476SOL    HW165239  10.846  10.658   8.993  1.3293 -0.2423  0.0250
53476SOL    HW265240  10.795  10.622   9.131 -0.0575  1.9524  0.1416
53477SOL     OW65241   0.045  10.846   3.478 -0.4813 -0.7491 -0.4535
53477SOL    HW165242   0.122  10.837   3.421 -0.4122 -2.7944 -0.1296
53477SOL    HW265243   0.053  10.773   3.539 -1.8282 -0.0054  0.6491
53478SOL     OW65244   4.328  11.717   8.878  0.4013 -0.1777 -0.0219
53478SOL    HW165245   4.348  11.800   8.920  3.7953 -1.1049  0.5496
53478SOL    HW265246   4.257  11.679   8.930 -0.3331  1.7575  0.4506
53479SOL     OW65247   6.778   7.504   3.026  0.4564 -0.3529 -0.8042
53479SOL    HW165248   6.857   7.546   2.992 -0.2170 -0.1250 -2.1623
53479SOL    HW265249   6.745   7.451   2.953  0.1952 -1.6920  0.2448
53480SOL     OW65250   9.465   4.605  10.289 -0.2939 -0.6282 -0.2653
53480SOL    HW165251   9.515   4.602  10.371 -0.2638  0.2214 -0.2380
53480SOL    HW265252   9.523   4.566  10.224  1.4846  2.4378 -0.7413
53481SOL     OW65253   7.826   9.588   8.580  0.5808 -0.1352  0.3404
53481SOL    HW165254   7.822   9.563   8.673  2.8659 -1.8341  0.0854
53481SOL    HW265255   7.739   9.567   8.546  0.2493 -1.2426  1.7269
53482SOL     OW65256  10.553   3.937  11.171  0.0971  0.0978  0.2135
53482SOL    HW165257  10.478   3.995  11.186  0.6864  0.5933  1.3745
53482SOL    HW265258  10.620   3.969  11.232  1.4282 -0.0293 -1.1318
53483SOL     OW65259  10.872   0.053   1.637 -0.3567  0.1030  0.1396
53483SOL    HW165260  10.792   0.046   1.584 -0.3520 -0.3920  0.1908
53483SOL    HW265261  10.871  -0.026   1.691  0.0351  0.2264  0.3262
53484SOL     OW65262   1.650   0.701   9.010 -0.0418 -0.4209  0.0672
53484SOL    HW165263   1.702   0.633   8.967 -1.0683 -0.7511 -0.6909
53484SOL    HW265264   1.563   0.692   8.972 -0.4420  0.6831  0.6831
53485SOL     OW65265   0.242   4.030   0.867  0.0693  0.2835 -0.0767
53485SOL    HW165266   0.160   4.037   0.915 -0.8146  0.7993 -1.6076
53485SOL    HW265267   0.217   4.019   0.775  1.6977  0.7898 -0.6344
53486SOL     OW65268   2.673   2.668  11.436 -0.2031  0.5428 -0.1026
53486SOL    HW165269   2.630   2.682  11.352  1.0025  2.6145 -0.4340
53486SOL    HW265270   2.757   2.629  11.414  0.0065  0.8366  0.1625
53487SOL     OW65271   1.439   6.737   9.618  0.1674  0.1068  0.1977
53487SOL    HW165272   1.425   6.717   9.710  2.5518  1.5213  0.9620
53487SOL    HW265273   1.468   6.828   9.618 -2.7176  1.1490 -2.2918
53488SOL     OW65274   1.908   9.777  12.438  0.1547  0.1942 -0.0585
53488SOL    HW165275   1.816   9.793  12.462  0.3661  0.7277  0.4275
53488SOL    HW265276   1.908   9.690  12.398 -0.0446 -1.2951  2.9441
53489SOL     OW65277   9.764   2.206   8.701 -0.3445 -0.1709 -1.0007
53489SOL    HW165278   9.832   2.150   8.740 -2.8631 -3.0737 -0.4170
53489SOL    HW265279   9.769   2.288   8.750  0.9378 -1.2822  0.8548
53490SOL     OW65280   2.630   7.858   8.704 -0.6180 -0.3056 -0.1387
53490SOL    HW165281   2.637   7.779   8.757 -1.2665 -0.1366  0.2104
53490SOL    HW265282   2.630   7.930   8.768  2.6163  0.2016 -0.5381
53491SOL     OW65283   5.360   7.934   8.219  0.1826 -0.5556 -0.2538
53491SOL    HW165284   5.347   7.909   8.311  1.3180 -0.5281 -0.0759
53491SOL    HW265285   5.318   7.863   8.169 -1.5264  0.0345  0.2562
53492SOL     OW65286  11.756  10.406   2.835 -0.0363 -0.1824  0.5084
53492SOL    HW165287  11.826  10.431   2.775  1.5436 -1.3980  1.7375
53492SOL    HW265288  11.701  10.484   2.843  2.1942  1.4393  0.8714
53493SOL     OW65289   4.971   3.758   7.525 -0.1845 -0.2519 -0.0442
53493SOL    HW165290   5.037   3.818   7.558  1.1034 -1.5683 -0.1558
53493SOL    HW265291   4.972   3.771   7.430 -1.0123  0.6186  0.0452
53494SOL     OW65292  11.361   2.453   6.609 -0.1160 -0.1465  0.3289
53494SOL    HW165293  11.455   2.443   6.625  0.0303  0.8715  0.1769
53494SOL    HW265294  11.331   2.508   6.682 -0.2025  1.1987 -0.6829
53495SOL     OW65295   9.046   5.480   8.501 -0.2386  0.2290  0.8892
53495SOL    HW165296   9.042   5.522   8.415  0.4932  2.6306  1.9194
53495SOL    HW265297   8.962   5.438   8.512 -0.8397  1.0095 -0.4874
53496SOL     OW65298   5.417   0.026   2.471 -0.7553 -0.3780  0.6152
53496SOL    HW165299   5.499  -0.017   2.448 -0.1518  0.5725  0.9557
53496SOL    HW265300   5.390  -0.015   2.553 -0.8623 -1.0076  0.2685
53497SOL     OW65301   4.010  11.279   5.358 -0.0632 -0.3912 -0.0350
53497SOL    HW165302   4.099  11.312   5.347 -0.0902  0.3566  1.7463
53497SOL    HW265303   3.968  11.295   5.273  1.5791 -1.0997 -1.0335
53498SOL     OW65304   5.890   8.056   4.726  0.6766  0.3340  0.6591
53498SOL    HW165305   5.846   8.122   4.673  2.3818 -1.1529 -2.9153
53498SOL    HW265306   5.821   7.995   4.751 -0.2058  1.1832  0.3550
53499SOL     OW65307   7.373  12.030   6.095 -0.6260 -0.1676  0.0806
53499SOL    HW165308   7.389  11.939   6.122 -0.0673 -0.5060 -1.3111
53499SOL    HW265309   7.410  12.036   6.007  0.1240  1.6684  0.4773
53500SOL     OW65310   4.918   4.845  10.644  0.4254 -0.0493 -0.0687
53500SOL    HW165311   4.866   4.776  10.602 -0.0696  0.5034 -0.3795
53500SOL    HW265312   4.991   4.799  10.684 -0.8183 -0.9668  1.2296
53501SOL     OW65313   3.169  11.972  11.059  0.4610  0.1472  0.3933
53501SOL    HW165314   3.077  11.967  11.085  0.2979  1.6377  0.2135
53501SOL    HW265315   3.198  11.881  11.054 -1.1379 -0.3716 -0.0269
53502SOL     OW65316  11.724   2.982  10.367  0.0579  0.0748  0.0392
53502SOL    HW165317  11.666   2.939  10.304 -1.0357  0.9703  0.3997
53502SOL    HW265318  11.669   2.998  10.443  1.3965 -1.0873  1.3091
53503SOL     OW65319   5.645   7.222   4.306  0.4702  0.5083  0.3724
53503SOL    HW165320   5.583   7.289   4.277  1.3669  0.0370 -3.0305
53503SOL    HW265321   5.599   7.177   4.377 -2.2060  1.5545 -0.5494
53504SOL     OW65322   1.124  11.856   7.583 -0.0957  0.1656 -0.0818
53504SOL    HW165323   1.057  11.852   7.515 -1.4057 -0.6733  1.1981
53504SOL    HW265324   1.129  11.767   7.618  1.1231  0.3933  0.3922
53505SOL     OW65325   7.097   6.013   1.174  0.2603  0.4191  0.0554
53505SOL    HW165326   7.057   5.973   1.251 -0.5672  0.8214 -0.1526
53505SOL    HW265327   7.046   6.092   1.158  0.2996  0.2493 -1.0166
53506SOL     OW65328  11.168  12.018   3.763 -0.1929  0.4206 -0.7348
53506SOL    HW165329  11.189  12.018   3.670  1.1656  0.9762 -0.4530
53506SOL    HW265330  11.085  12.065   3.768  0.5770  1.9343 -1.5135
53507SOL     OW65331   7.458  10.711  10.727 -0.0191 -0.1722  0.2442
53507SOL    HW165332   7.468  10.761  10.809  1.2777  1.4341 -0.8332
53507SOL    HW265333   7.543  10.669  10.715  0.3410  0.8466 -1.0119
53508SOL     OW65334   6.732   4.018   1.112 -0.0317  0.0183  0.0109
53508SOL    HW165335   6.750   3.928   1.140  0.9448  0.2257  0.0831
53508SOL    HW265336   6.687   4.058   1.187  0.1949 -0.1953  0.2640
53509SOL     OW65337   9.597   6.433   1.411  0.3013  0.3192  0.3890
53509SOL    HW165338   9.538   6.398   1.477 -2.1471  1.7364 -0.9062
53509SOL    HW265339   9.642   6.505   1.454 -0.3316  0.4379  0.8516
53510SOL     OW65340   5.458  12.440   5.232 -0.2562  0.2188  0.4479
53510SOL    HW165341   5.388  12.464   5.171 -0.1331 -0.9936 -0.2070
53510SOL    HW265342   5.460  12.344   5.230  2.0997  0.2022 -0.3672
53511SOL     OW65343   8.516   4.571  11.131 -0.0735  0.2959  0.3510
53511SOL    HW165344   8.461   4.548  11.205 -2.4275 -1.2055 -1.7100
53511SOL    HW265345   8.557   4.654  11.156 -0.5361 -0.2955  3.3706
53512SOL     OW65346   9.944   5.435  10.998 -0.6936  0.0664 -0.0065
53512SOL    HW165347  10.017   5.477  10.953 -0.8791  2.1062  1.4814
53512SOL    HW265348   9.867   5.487  10.974 -1.2587 -0.5557  0.4177
53513SOL     OW65349   5.498   0.262   5.740  0.0744  0.2023 -0.0607
53513SOL    HW165350   5.412   0.299   5.719  0.9403  1.6213 -1.2949
53513SOL    HW265351   5.495   0.173   5.704 -0.6419  0.4815 -0.7294
53514SOL     OW65352   2.023   1.231  10.966  0.1017  0.2246  1.1009
53514SOL    HW165353   2.007   1.168  11.036  0.4287 -0.8531  0.2234
53514SOL    HW265354   1.946   1.223  10.909  0.6322 -0.1290  0.4350
53515SOL     OW65355   0.494   7.300  12.038  0.0223 -0.2143  0.1493
53515SOL    HW165356   0.567   7.362  12.031  1.6403 -1.9667  0.6518
53515SOL    HW265357   0.448   7.327  12.118  0.8562  0.2136  0.5021
53516SOL     OW65358   3.277   4.612   9.205 -0.9046  0.5037  0.0885
53516SOL    HW165359   3.297   4.524   9.236 -2.3756  0.1050  0.0227
53516SOL    HW265360   3.320   4.618   9.120  0.6433  0.5010  0.8447
53517SOL     OW65361   6.595   1.778   7.076 -0.5857 -0.0205  0.2935
53517SOL    HW165362   6.556   1.797   7.162  0.6927  1.9412  0.5107
53517SOL    HW265363   6.686   1.807   7.084  1.0839 -4.4222 -0.1879
53518SOL     OW65364  12.388   9.458   2.365 -0.3439 -0.7414  0.0624
53518SOL    HW165365  12.310   9.453   2.420  0.0269 -0.9133  0.5839
53518SOL    HW265366  12.365   9.410   2.285 -0.9768 -0.2580 -0.0467
53519SOL     OW65367   7.980   2.094  10.267  0.4791  0.3999  0.2477
53519SOL    HW165368   7.982   2.001  10.292 -0.1847  0.2244 -0.3145
53519SOL    HW265369   8.071   2.122  10.271  0.8058 -0.5196 -0.4644
53520SOL     OW65370   4.516   8.802   3.239 -0.0725  0.2123  0.2053
53520SOL    HW165371   4.552   8.750   3.311 -3.0287  0.2236  1.8443
53520SOL    HW265372   4.424   8.813   3.262 -0.3323  3.2910 -1.8182
53521SOL     OW65373  10.974   3.724   3.164  0.4169 -0.5195  0.0212
53521SOL    HW165374  11.057   3.770   3.161  0.4155 -0.5612 -1.2193
53521SOL    HW265375  10.982   3.655   3.099 -0.9611  0.1471 -0.9105
53522SOL     OW65376   8.646  10.410   9.882 -0.3524  0.7720 -0.4237
53522SOL    HW165377   8.555  10.428   9.904 -0.6390  1.4448 -1.9981
53522SOL    HW265378   8.645  10.324   9.841 -0.3937  1.0482 -1.0155
53523SOL     OW65379  12.084   8.863   7.340  0.4163  0.0229  0.1725
53523SOL    HW165380  11.998   8.824   7.358 -0.1410  0.6050 -1.0929
53523SOL    HW265381  12.141   8.788   7.326  0.0503 -0.3699  0.6989
53524SOL     OW65382   9.884  11.678   4.353  0.1894 -0.1556 -0.5859
53524SOL    HW165383   9.856  11.767   4.334 -0.0272 -0.2270 -0.6125
53524SOL    HW265384   9.977  11.685   4.373  0.7929 -0.2500 -3.0052
53525SOL     OW65385   6.227   1.806   7.729 -0.3419 -0.0314  0.4073
53525SOL    HW165386   6.220   1.804   7.633 -1.2140 -1.9913  0.4752
53525SOL    HW265387   6.137   1.813   7.760 -0.2812 -1.7384  1.0793
53526SOL     OW65388   7.868   4.506  11.613 -0.3341 -0.0613  0.1957
53526SOL    HW165389   7.952   4.551  11.619 -0.3375 -0.0857  0.4375
53526SOL    HW265390   7.891   4.414  11.600 -0.2626 -0.4569  2.5706
53527SOL     OW65391   2.786   9.241   2.137  0.1926 -0.2984 -0.7513
53527SOL    HW165392   2.814   9.165   2.086  1.1861  0.2779 -1.0926
53527SOL    HW265393   2.863   9.298   2.140 -0.4574  0.5860 -0.2873
53528SOL     OW65394   1.041   3.515   8.925  0.0758 -0.2148  0.7001
53528SOL    HW165395   1.036   3.447   8.857 -0.6397 -0.5016  1.0260
53528SOL    HW265396   1.085   3.472   8.998  0.5132 -0.0202  0.5507
53529SOL     OW65397   3.072   3.441  11.989 -0.3609 -0.2600 -0.1774
53529SOL    HW165398   3.088   3.392  11.909  0.8001  0.5478 -0.4603
53529SOL    HW265399   3.104   3.385  12.060  1.7971  0.4062 -0.5642
53530SOL     OW65400   7.494   6.722   4.212  0.2862  0.4260 -0.1957
53530SOL    HW165401   7.485   6.799   4.269 -2.8439 -0.1518  0.2813
53530SOL    HW265402   7.532   6.655   4.267 -1.2388  0.3413  0.8040
53531SOL     OW65403  10.873  10.152   3.876  0.2624  0.5456 -0.5537
53531SOL    HW165404  10.807  10.130   3.810 -1.2382  2.9997  0.0201
53531SOL    HW265405  10.831  10.131   3.960  1.2334 -0.2897 -0.2553
53532SOL     OW65406   8.306   7.313  10.456 -0.2510 -0.0126 -0.0943
53532SOL    HW165407   8.214   7.340  10.461 -0.3086 -0.1363 -0.5003
53532SOL    HW265408   8.355   7.388  10.490 -0.4318  0.4796 -0.9160
53533SOL     OW65409   8.472   2.491   5.342  0.0398 -0.5065  0.1794
53533SOL    HW165410   8.550   2.486   5.286 -0.0656  0.1069 -0.0308
53533SOL    HW265411   8.428   2.571   5.315  0.2314  0.0627  1.4627
53534SOL     OW65412   8.977   1.261   1.392 -0.2369  0.3566 -0.3912
53534SOL    HW165413   9.019   1.239   1.309  1.2836 -0.9926  0.6926
53534SOL    HW265414   9.046   1.302   1.444 -0.4107 -1.2409  1.1675
53535SOL     OW65415   6.371   2.603   8.881  0.3651 -0.2815  0.3599
53535SOL    HW165416   6.436   2.665   8.846 -2.1369  1.4084 -1.7023
53535SOL    HW265417   6.326   2.652   8.950 -1.3809  0.1409 -1.0208
53536SOL     OW65418   1.771  10.140   9.375 -0.2562  0.1673 -0.2124
53536SOL    HW165419   1.699  10.081   9.351 -0.5340  0.1533  0.6031
53536SOL    HW265420   1.777  10.132   9.471  0.1813  0.9120 -0.1704
53537SOL     OW65421   9.063  10.208   6.661 -0.3637  0.1992  0.0640
53537SOL    HW165422   9.006  10.212   6.738  1.4583  2.9012  1.4362
53537SOL    HW265423   9.086  10.299   6.644  0.8759 -0.5089 -2.5189
53538SOL     OW65424   1.643  10.360   1.004  0.1619  0.2257  0.6263
53538SOL    HW165425   1.667  10.345   0.912 -2.0472 -0.1412  0.0707
53538SOL    HW265426   1.585  10.436   1.002 -0.3426 -0.1214  1.6677
53539SOL     OW65427  11.940   1.813   0.992 -0.0900 -0.2125 -0.1472
53539SOL    HW165428  12.002   1.882   1.014 -0.5282  0.4791 -0.9990
53539SOL    HW265429  11.928   1.764   1.073 -0.8823  1.6008  0.9016
53540SOL     OW65430   9.734   7.079  11.996  0.5496  0.2346 -0.0768
53540SOL    HW165431   9.758   7.023  12.069  2.4636 -1.4736 -1.9087
53540SOL    HW265432   9.813   7.130  11.978  1.0355 -1.2705 -2.5514
53541SOL     OW65433   6.585  10.669   7.811 -0.2203  0.1113  0.2558
53541SOL    HW165434   6.630  10.703   7.888 -0.2777 -0.2116  0.4368
53541SOL    HW265435   6.518  10.735   7.790 -2.1652 -1.0702  2.2254
53542SOL     OW65436   7.412   9.629  11.302 -0.0701  0.1310 -0.1656
53542SOL    HW165437   7.454   9.563  11.357  0.0305  1.0792  0.9322
53542SOL    HW265438   7.318   9.621  11.323  0.1953  2.7886  2.9394
53543SOL     OW65439   1.965   7.917   3.770  0.1523 -0.3167  0.3980
53543SOL    HW165440   1.945   7.960   3.687  0.4589 -0.1207  0.4209
53543SOL    HW265441   1.898   7.849   3.780  1.1328 -1.5034 -0.8475
53544SOL     OW65442   8.713   4.254   4.040 -0.2724  0.9572  0.2496
53544SOL    HW165443   8.744   4.343   4.055 -0.3538  0.8784  0.8952
53544SOL    HW265444   8.726   4.209   4.124 -0.3844  0.4084 -0.0219
53545SOL     OW65445   0.888  10.510   6.953  0.2142  0.3525  0.2746
53545SOL    HW165446   0.825  10.439   6.967 -0.8412  1.1601 -0.2568
53545SOL    HW265447   0.968  10.466   6.923 -0.6342 -0.5763 -0.7031
53546SOL     OW65448   2.618   6.314   4.536 -0.6073  0.3252 -0.1507
53546SOL    HW165449   2.546   6.330   4.474 -1.2386  1.3960  0.8104
53546SOL    HW265450   2.666   6.397   4.539  1.1810 -0.6341 -1.3856
53547SOL     OW65451   1.236   8.575   0.449 -0.1570 -0.3132  0.4988
53547SOL    HW165452   1.194   8.496   0.415 -0.1455 -0.4701  0.8470
53547SOL    HW265453   1.315   8.585   0.395  0.4269 -1.1651  1.1545
53548SOL     OW65454  10.252   1.226  12.356  0.1312  0.3273 -0.3144
53548SOL    HW165455  10.213   1.310  12.331 -1.5532  0.6352  2.8184
53548SOL    HW265456  10.180   1.163  12.348 -0.3853  0.3625  2.8401
53549SOL     OW65457   8.649   0.367   3.102  0.6232  0.3120 -0.1977
53549SOL    HW165458   8.719   0.430   3.115 -0.2465  1.4908 -0.9790
53549SOL    HW265459   8.585   0.387   3.170  1.1289 -0.9234  0.6723
53550SOL     OW65460  12.353   8.126   6.609 -0.0536 -0.2131  0.0801
53550SOL    HW165461  12.392   8.041   6.590  0.7986 -0.1447  1.4191
53550SOL    HW265462  12.269   8.105   6.650 -0.1857 -0.3857 -0.2719
53551SOL     OW65463  12.077   3.448   1.168  0.5599 -0.0427 -0.3529
53551SOL    HW165464  12.141   3.470   1.236  1.1886  0.2047 -1.0013
53551SOL    HW265465  12.073   3.353   1.167  0.9000 -0.0585 -0.2771
53552SOL     OW65466   9.508   5.875   6.378  0.0615 -0.2000 -0.3817
53552SOL    HW165467   9.569   5.819   6.426  0.4380  0.5649  0.0544
53552SOL    HW265468   9.460   5.816   6.321  1.7799 -0.7177 -1.3614
53553SOL     OW65469   6.476   0.787   0.658 -0.0900 -0.2250 -0.2163
53553SOL    HW165470   6.486   0.698   0.624 -0.1337 -0.5508  0.6079
53553SOL    HW265471   6.548   0.836   0.618  0.3594 -0.8007 -0.1290
53554SOL     OW65472   1.206   9.157   9.156  0.5601  0.0917 -0.4524
53554SOL    HW165473   1.260   9.218   9.107  2.0754 -0.2140  0.7528
53554SOL    HW265474   1.147   9.212   9.207  0.8238  0.4922 -0.5787
53555SOL     OW65475   6.410  11.207  11.471 -0.3080  0.2624 -0.6137
53555SOL    HW165476   6.342  11.140  11.484 -0.4228  0.3057 -0.9727
53555SOL    HW265477   6.474  11.190  11.540  0.5126 -1.2818 -1.7031
53556SOL     OW65478   2.328   1.505   1.768 -0.0225  0.6333 -0.2429
53556SOL    HW165479   2.393   1.571   1.743  0.3183  0.6542  0.6581
53556SOL    HW265480   2.244   1.546   1.749  0.2074  0.8665 -0.7891
53557SOL     OW65481   0.480   8.017   8.889  0.1933 -0.1426  0.2916
53557SOL    HW165482   0.390   8.028   8.860  0.5039 -0.3816 -0.7965
53557SOL    HW265483   0.488   8.076   8.964 -0.4242  1.0701 -0.5606
53558SOL     OW65484   5.473   5.179   9.657 -0.3003 -0.0617  0.8482
53558SOL    HW165485   5.546   5.230   9.692 -0.5367  2.4240 -1.9010
53558SOL    HW265486   5.509   5.135   9.580 -0.7379 -2.2425  1.8091
53559SOL     OW65487   4.178   0.817  10.731  0.2309  0.1579 -0.3622
53559SOL    HW165488   4.097   0.770  10.712  0.0083  0.3060  0.2202
53559SOL    HW265489   4.242   0.748  10.748 -0.0956  0.0543  0.4962
53560SOL     OW65490   5.401   0.602  11.504 -0.1353 -0.8668  0.1066
53560SOL    HW165491   5.372   0.558  11.584 -0.7651  1.6317  1.3665
53560SOL    HW265492   5.320   0.625  11.458 -0.0268  1.1257  0.7825
53561SOL     OW65493   1.812   7.779   5.913  0.0861 -0.2528 -0.2319
53561SOL    HW165494   1.845   7.865   5.886  1.5911 -0.7597 -0.0807
53561SOL    HW265495   1.827   7.777   6.008  0.5981 -0.9121 -0.3257
53562SOL     OW65496   9.536  10.974   8.773  0.2565 -0.1791  0.0350
53562SOL    HW165497   9.535  11.026   8.692  0.5437 -0.1668  0.0371
53562SOL    HW265498   9.536  10.883   8.742  1.5546 -0.1860 -0.0143
53563SOL     OW65499   1.871   8.458   0.679 -0.2285 -0.0788 -0.6262
53563SOL    HW165500   1.836   8.426   0.763 -2.1403  0.4106 -1.1813
53563SOL    HW265501   1.798   8.506   0.640  1.2171  1.3218 -1.7363
53564SOL     OW65502   6.820   4.846  11.706  0.1722  0.3734 -0.1121
53564SOL    HW165503   6.849   4.870  11.794  0.3202  1.1911 -0.3787
53564SOL    HW265504   6.739   4.894  11.693  0.2390  0.3916 -0.4873
53565SOL     OW65505   5.817   9.740   2.085 -0.4483 -0.8432  0.0320
53565SOL    HW165506   5.812   9.758   1.991  0.6209 -0.0661  0.0973
53565SOL    HW265507   5.879   9.806   2.118 -0.5905 -1.2916  1.2279
53566SOL     OW65508   6.412   5.725   7.736 -0.0217 -0.2671 -0.3793
53566SOL    HW165509   6.420   5.660   7.667 -0.4593 -0.8716  0.1260
53566SOL    HW265510   6.345   5.786   7.705  0.4585 -0.0014 -0.8972
53567SOL     OW65511   1.881   8.432   2.947  0.5509 -0.2854  0.1393
53567SOL    HW165512   1.890   8.482   3.028  0.0117 -0.1272  0.1078
53567SOL    HW265513   1.966   8.440   2.904  0.4870  0.5579  0.1641
53568SOL     OW65514   8.772   7.474  12.466  0.2107  0.0034 -0.3022
53568SOL    HW165515   8.716   7.498  12.393 -1.1433  1.4344  1.1208
53568SOL    HW265516   8.743   7.386  12.490 -0.5754  0.2231 -0.3974
53569SOL     OW65517  11.277   3.136   9.279 -0.3161  0.4485  0.0362
53569SOL    HW165518  11.218   3.098   9.214  1.2686 -0.0999 -1.1537
53569SOL    HW265519  11.282   3.228   9.256  0.2036  0.2653 -0.6191
53570SOL     OW65520  10.153   6.157   6.542  0.1015  0.0512  0.1915
53570SOL    HW165521  10.074   6.210   6.537 -1.3800 -1.8935  1.3988
53570SOL    HW265522  10.151   6.102   6.464  0.3711  0.1061  0.1433
53571SOL     OW65523   5.336   6.143   9.131 -0.0386  0.4593  0.5501
53571SOL    HW165524   5.315   6.082   9.061  0.6117 -1.0955  1.6688
53571SOL    HW265525   5.420   6.182   9.104  0.9917 -1.2635  1.1519
53572SOL     OW65526   3.718  12.221   2.934 -0.4290 -0.6971  0.3404
53572SOL    HW165527   3.653  12.242   2.867 -1.7628 -0.1928  1.7407
53572SOL    HW265528   3.769  12.301   2.945 -0.6232 -0.5764  0.3672
53573SOL     OW65529   9.261   6.569   1.628  0.2385 -0.4342  0.5308
53573SOL    HW165530   9.333   6.510   1.647  0.3400 -0.1614  0.9966
53573SOL    HW265531   9.267   6.584   1.534 -0.0593 -1.5187  0.3244
53574SOL     OW65532  12.111   3.605   7.577  0.0336 -0.1083 -0.3640
53574SOL    HW165533  12.043   3.615   7.644 -2.2266  0.6679 -2.6082
53574SOL    HW265534  12.071   3.548   7.511  1.8009 -0.1099 -1.4923
53575SOL     OW65535   8.513   6.919   4.376 -0.2550  0.1572 -0.1482
53575SOL    HW165536   8.419   6.903   4.372 -0.6580  2.1854 -4.5063
53575SOL    HW265537   8.522   7.001   4.425 -0.8458  0.3967 -0.4343
53576SOL     OW65538   6.706   8.817   7.531 -0.5075 -0.3937  0.5717
53576SOL    HW165539   6.788   8.866   7.534 -0.4957 -0.3331 -0.5241
53576SOL    HW265540   6.674   8.828   7.442 -0.6239 -2.1940  0.3593
53577SOL     OW65541   8.091   7.339  11.871  0.0974 -0.1311 -0.1406
53577SOL    HW165542   8.118   7.418  11.918 -1.1346 -0.0550  0.5052
53577SOL    HW265543   8.110   7.267  11.932  0.8418 -0.2985 -0.5625
53578SOL     OW65544   0.884   6.087   1.642 -0.2404  0.1894  0.1521
53578SOL    HW165545   0.796   6.119   1.666 -0.6692 -0.3726 -0.6319
53578SOL    HW265546   0.883   5.995   1.670 -0.0827  0.0438 -0.3280
53579SOL     OW65547   7.182  10.647   5.198  0.2265 -0.2609  0.2829
53579SOL    HW165548   7.261  10.700   5.183  0.1518 -0.5264 -1.1903
53579SOL    HW265549   7.122  10.672   5.128 -0.5596 -0.8978  0.7102
53580SOL     OW65550   6.960   8.796   7.046 -0.5794  0.3651  0.0957
53580SOL    HW165551   7.022   8.726   7.066 -0.4944  0.0395 -1.2494
53580SOL    HW265552   6.997   8.873   7.088 -1.0867 -0.5166  2.3049
53581SOL     OW65553  10.060  11.317   4.118  0.3747 -0.7640  0.3035
53581SOL    HW165554  10.123  11.311   4.190  0.2203 -2.2240  0.3556
53581SOL    HW265555   9.974  11.320   4.162  0.3694  0.4609  0.2184
53582SOL     OW65556   8.338  10.388  11.587  0.4767  0.4546 -0.2426
53582SOL    HW165557   8.332  10.329  11.511 -0.0770  0.9377 -0.5819
53582SOL    HW265558   8.368  10.332  11.658 -1.6894 -0.6713 -0.1228
53583SOL     OW65559   3.717   5.468   8.386 -0.0315 -0.3673 -0.7249
53583SOL    HW165560   3.781   5.534   8.359  0.6836 -0.5924  0.3379
53583SOL    HW265561   3.761   5.421   8.457 -1.7239  0.0841  0.6989
53584SOL     OW65562   0.756   2.982   3.586 -0.5977  0.2804 -0.3586
53584SOL    HW165563   0.666   2.980   3.618 -0.5543  1.5823 -0.1018
53584SOL    HW265564   0.808   2.950   3.659 -0.8211 -0.2274 -0.4170
53585SOL     OW65565  10.321   8.564   4.299  0.4809 -0.5169  0.0621
53585SOL    HW165566  10.407   8.528   4.278 -0.7109 -2.5930 -1.7064
53585SOL    HW265567  10.271   8.489   4.333 -0.7639  0.5419  0.6514
53586SOL     OW65568  12.376   2.754   8.355  0.4886 -0.5342 -0.6810
53586SOL    HW165569  12.425   2.728   8.277 -0.2374  0.8770 -1.6593
53586SOL    HW265570  12.433   2.818   8.399  0.0567  0.2078 -1.1768
53587SOL     OW65571   5.774   2.939   1.873  0.0857  0.2995 -0.2401
53587SOL    HW165572   5.837   2.897   1.932  0.3451  1.7929  0.5828
53587SOL    HW265573   5.733   3.007   1.926 -1.1835  0.3161 -1.1991
53588SOL     OW65574   1.203  10.988  10.312 -0.5920  0.3121  0.2368
53588SOL    HW165575   1.278  10.933  10.334 -0.0773  1.7542  2.3441
53588SOL    HW265576   1.132  10.926  10.296  0.3285 -1.0173  1.0763
53589SOL     OW65577   1.028   5.498   1.831 -0.0128  0.3316 -0.5366
53589SOL    HW165578   0.957   5.493   1.767 -0.1437  1.2143 -0.4705
53589SOL    HW265579   1.092   5.557   1.790 -0.1687  1.0349  0.2005
53590SOL     OW65580  11.955   2.573  11.882 -0.4975  0.4027  0.0714
53590SOL    HW165581  11.953   2.507  11.813 -1.8238 -0.0204  0.4901
53590SOL    HW265582  11.901   2.645  11.849  1.6495  1.7368 -0.7668
53591SOL     OW65583  11.597   1.983   1.828  0.4992 -0.1250 -0.7203
53591SOL    HW165584  11.547   2.064   1.823  1.5267  0.4459 -2.6725
53591SOL    HW265585  11.543   1.925   1.883 -1.1507  1.2311 -0.8307
53592SOL     OW65586   8.025   2.683   8.883  0.0837  0.6123 -0.2811
53592SOL    HW165587   8.065   2.598   8.898  0.0853  0.6259 -0.2058
53592SOL    HW265588   7.970   2.698   8.960 -0.2887  0.4683 -0.5129
53593SOL     OW65589   8.441   8.966   1.350 -0.4144  0.0794  0.4745
53593SOL    HW165590   8.447   8.986   1.256 -0.4485  0.9120  0.6421
53593SOL    HW265591   8.354   8.928   1.360 -1.7936  2.9845  0.6512
53594SOL     OW65592   7.098   8.376   2.366 -0.4663 -0.4745  0.1948
53594SOL    HW165593   7.017   8.351   2.321  0.5606  0.7555 -2.5956
53594SOL    HW265594   7.075   8.455   2.414 -0.7501  0.5575 -1.5306
53595SOL     OW65595   1.847   4.709  12.593 -0.2689 -0.2492 -0.4191
53595SOL    HW165596   1.815   4.632  12.545 -0.2720 -1.2203  1.0733
53595SOL    HW265597   1.940   4.714  12.570 -0.0232 -1.3370  0.2345
53596SOL     OW65598  10.019   4.863   1.032  0.3246 -0.4132 -0.1891
53596SOL    HW165599  10.026   4.918   1.110  1.8148 -1.5279  0.5127
53596SOL    HW265600   9.938   4.815   1.044 -0.5013  0.8752 -0.3448
53597SOL     OW65601   0.123   3.080   8.896 -0.5266 -0.2550  0.0069
53597SOL    HW165602   0.028   3.084   8.909 -0.3950  0.9089  0.7567
53597SOL    HW265603   0.136   3.105   8.805 -0.9525 -0.7696 -0.2013
53598SOL     OW65604   7.071   4.802   8.454 -0.0690  0.6378 -0.1894
53598SOL    HW165605   7.038   4.842   8.534 -0.4722  0.7807 -0.4270
53598SOL    HW265606   7.108   4.718   8.483 -0.0517  0.7663  0.1703
53599SOL     OW65607  12.096   8.626  10.561  0.6037 -0.0866  0.5587
53599SOL    HW165608  12.168   8.689  10.565 -1.6829  2.8377 -0.2007
53599SOL    HW265609  12.066   8.631  10.470 -0.8628 -0.8225  0.9799
53600SOL     OW65610   0.591   4.415   5.965 -0.2826  0.3156  0.4672
53600SOL    HW165611   0.677   4.420   6.008  1.2214 -3.4225 -1.6565
53600SOL    HW265612   0.546   4.344   6.010 -0.7273 -0.2506 -0.8450
53601SOL     OW65613   2.664   5.012  10.852 -0.2840 -0.8020 -0.0348
53601SOL    HW165614   2.608   4.949  10.896 -0.2553 -1.0678 -0.3728
53601SOL    HW265615   2.638   5.008  10.760  0.5040 -1.1668 -0.2510
53602SOL     OW65616   7.302   7.638   4.697 -0.0809  0.1271 -0.0281
53602SOL    HW165617   7.374   7.589   4.656 -0.6905  0.4080 -1.4949
53602SOL    HW265618   7.343   7.688   4.767  1.0756 -0.0784 -0.5433
53603SOL     OW65619   2.117  10.046   1.243 -0.2651  0.5680 -0.0633
53603SOL    HW165620   2.152  10.015   1.327  1.1693  2.7542  0.2292
53603SOL    HW265621   2.177  10.116   1.216 -0.3047 -0.4498 -3.2464
53604SOL     OW65622   6.752   1.443   2.079  0.7678 -0.3537 -0.4043
53604SOL    HW165623   6.749   1.347   2.075 -1.4229 -0.3596  0.1148
53604SOL    HW265624   6.700   1.465   2.156  1.8543  1.2582 -0.0907
53605SOL     OW65625   5.415   7.014   7.667 -0.1294  0.4648  0.0467
53605SOL    HW165626   5.359   6.979   7.599  0.4321  0.1638 -0.2705
53605SOL    HW265627   5.402   6.955   7.742 -0.2134  0.3842 -0.0321
53606SOL     OW65628   7.944   8.450   7.446  0.3458  0.3658 -0.3843
53606SOL    HW165629   7.854   8.467   7.417  0.7747  0.4475 -1.7309
53606SOL    HW265630   7.944   8.476   7.538 -0.7825  1.2094 -0.5938
53607SOL     OW65631  10.904   8.761  11.280 -0.6561 -0.0478 -0.5979
53607SOL    HW165632  10.980   8.749  11.337 -0.3210  0.7985 -0.8635
53607SOL    HW265633  10.932   8.726  11.196  0.0527  1.7665 -1.1607
53608SOL     OW65634   0.423  10.855  10.691 -0.1280  0.1275  0.1923
53608SOL    HW165635   0.380  10.774  10.717  0.2321 -0.2438 -0.3359
53608SOL    HW265636   0.356  10.905  10.644 -0.4494  0.2958  0.8233
53609SOL     OW65637   9.300   5.656   6.237 -0.2781  0.1015 -0.0562
53609SOL    HW165638   9.260   5.571   6.221 -0.0969 -0.0453  0.2537
53609SOL    HW265639   9.268   5.712   6.166  0.1274 -0.3968 -0.6445
53610SOL     OW65640  12.250   0.342   3.710 -0.4690  0.2042  0.5863
53610SOL    HW165641  12.291   0.328   3.624 -0.2106  1.1743  0.5444
53610SOL    HW265642  12.160   0.314   3.698 -0.4565  0.4134 -0.0323
53611SOL     OW65643   7.146   7.218   1.360 -0.5375 -0.0543  0.0694
53611SOL    HW165644   7.092   7.195   1.283  0.1887 -1.5218 -0.0329
53611SOL    HW265645   7.218   7.269   1.323 -0.9777  0.5374 -0.0029
53612SOL     OW65646   6.662   1.844   9.289  0.6690  0.1913 -0.5320
53612SOL    HW165647   6.696   1.820   9.375 -1.2940 -0.5116  0.1079
53612SOL    HW265648   6.669   1.940   9.286 -1.0496  0.4396  1.2877
53613SOL     OW65649   1.260   6.942   0.876  0.1359  0.2248  0.1394
53613SOL    HW165650   1.296   7.009   0.818  1.3675 -0.9240 -0.4831
53613SOL    HW265651   1.337   6.897   0.911 -0.6496 -0.5736  0.9096
53614SOL     OW65652   1.341   9.938   7.295 -0.1278 -0.5790  0.2345
53614SOL    HW165653   1.286   9.951   7.372 -0.1999 -0.4734  0.1657
53614SOL    HW265654   1.294   9.872   7.244 -0.3312 -0.2937  0.0444
53615SOL     OW65655  11.326   7.849  11.268  0.1108  0.3699  0.1546
53615SOL    HW165656  11.380   7.927  11.252 -0.2621  0.6051  0.0224
53615SOL    HW265657  11.239   7.874  11.238 -0.4146  0.5045  1.6973
53616SOL     OW65658   1.575   5.233   7.032 -0.2970 -0.5361 -0.3563
53616SOL    HW165659   1.566   5.231   6.937 -2.3493  1.2315 -0.2743
53616SOL    HW265660   1.665   5.262   7.048  0.0537 -0.8091 -1.7349
53617SOL     OW65661   8.379   7.868  11.602  0.1015  0.8218 -0.4314
53617SOL    HW165662   8.338   7.785  11.627  0.7470  0.7221  0.3283
53617SOL    HW265663   8.311   7.914  11.553  0.5009 -1.1555 -3.0585
53618SOL     OW65664   9.966  11.074   2.873 -0.1698  0.5214 -0.4960
53618SOL    HW165665  10.051  11.074   2.916 -0.5915 -0.6973  0.4145
53618SOL    HW265666   9.951  10.982   2.851 -1.0989  0.7742 -0.9558
53619SOL     OW65667   2.727   5.119   6.686 -0.4136  0.1198 -0.1244
53619SOL    HW165668   2.651   5.174   6.706 -1.2048 -0.7161 -0.6922
53619SOL    HW265669   2.794   5.179   6.655 -0.5860  0.9590  1.0623
53620SOL     OW65670   4.073  11.588   5.189 -0.8388  0.3468 -0.0537
53620SOL    HW165671   4.033  11.597   5.275  0.9927  1.4670  0.7293
53620SOL    HW265672   4.115  11.672   5.173  0.1111 -0.3499 -1.3814
53621SOL     OW65673   5.101   2.988  10.202  1.1398 -0.2539 -0.0407
53621SOL    HW165674   5.026   2.931  10.220 -0.4322  1.3600 -1.1946
53621SOL    HW265675   5.108   2.990  10.106  0.5618  2.1576 -0.0915
53622SOL     OW65676   8.457   8.666  10.678  0.0625  0.1997  0.6460
53622SOL    HW165677   8.434   8.708  10.761 -0.7746  0.9354  0.0546
53622SOL    HW265678   8.378   8.673  10.625  0.3268 -0.9984  0.0674
53623SOL     OW65679  12.480   3.763   0.224 -0.0956 -0.4152  0.0364
53623SOL    HW165680  12.551   3.806   0.274  0.5422 -1.1034 -0.2618
53623SOL    HW265681  12.459   3.825   0.154 -1.5273  0.9210  1.5470
53624SOL     OW65682   3.699   5.103   9.929 -0.1816  0.2048 -0.0416
53624SOL    HW165683   3.755   5.049   9.875 -0.5629 -1.3031  1.0071
53624SOL    HW265684   3.702   5.190   9.888  3.1398  0.2998  0.1708
53625SOL     OW65685  10.400   2.810   0.746  0.6319  0.8296 -0.1711
53625SOL    HW165686  10.310   2.777   0.747  0.5262  0.7288 -3.4283
53625SOL    HW265687  10.454   2.732   0.745  0.8133  0.8951  1.2971
53626SOL     OW65688   9.908   9.258   9.402 -0.6153  0.0903 -0.5378
53626SOL    HW165689   9.851   9.330   9.430 -0.5771  0.2414 -0.8506
53626SOL    HW265690   9.987   9.267   9.456 -0.5970  0.3010 -0.6009
53627SOL     OW65691  10.300   8.077   8.523 -0.4489  0.8176  0.5898
53627SOL    HW165692  10.335   7.990   8.541 -0.8476  0.0139 -2.0046
53627SOL    HW265693  10.210   8.074   8.554 -0.4810  0.2755  0.4541
53628SOL     OW65694   2.264   5.803   9.172  0.3913 -0.0754 -1.2682
53628SOL    HW165695   2.202   5.803   9.245  1.8149  0.9623 -0.0024
53628SOL    HW265696   2.210   5.821   9.095 -0.7690  1.9918 -0.0665
53629SOL     OW65697   5.261   2.899   4.718 -0.0901 -0.0284  0.4447
53629SOL    HW165698   5.352   2.869   4.717 -0.2982 -0.6629  0.5276
53629SOL    HW265699   5.209   2.820   4.702 -0.6286  0.3347  0.3665
53630SOL     OW65700   4.169  12.302   8.032 -0.2731  0.1906  0.3859
53630SOL    HW165701   4.104  12.233   8.050 -0.2228 -0.0948 -0.5040
53630SOL    HW265702   4.154  12.326   7.941  0.0634  0.9946  0.5382
53631SOL     OW65703   3.811   7.166   7.683  0.0245 -0.0696  0.1736
53631SOL    HW165704   3.870   7.162   7.607 -1.7187  0.3290 -1.2584
53631SOL    HW265705   3.843   7.241   7.733  1.1660 -0.2969 -0.1734
53632SOL     OW65706  10.191   3.076   0.082  0.3624 -0.3730 -0.4363
53632SOL    HW165707  10.190   3.031   0.166 -0.8923 -1.4983 -1.0248
53632SOL    HW265708  10.171   3.008   0.017  4.1650 -0.2357 -2.0536
53633SOL     OW65709   2.507   4.784  11.247  0.1816  0.7772  0.3167
53633SOL    HW165710   2.602   4.789  11.237  0.4981 -1.4675  1.5926
53633SOL    HW265711   2.493   4.782  11.342 -1.0068 -0.5626  0.1492
53634SOL     OW65712   7.848   9.292   1.868 -0.4740  0.2912 -0.4393
53634SOL    HW165713   7.769   9.249   1.835 -1.4004  1.1894  0.5607
53634SOL    HW265714   7.817   9.369   1.915  0.8997  0.0426  0.9897
53635SOL     OW65715   9.227   4.982   8.946  0.7189  0.1680  0.0586
53635SOL    HW165716   9.230   4.932   8.864  1.3259 -1.0340  0.7818
53635SOL    HW265717   9.182   5.063   8.923 -1.9206 -1.4255 -0.7865
53636SOL     OW65718   5.367   0.963  10.598 -0.1065  0.6807 -0.4427
53636SOL    HW165719   5.382   0.904  10.672 -3.1559 -0.8777 -0.8703
53636SOL    HW265720   5.304   1.028  10.631 -0.8575  0.4667 -1.3858
53637SOL     OW65721   1.869  12.504   4.117 -0.4593 -0.1605 -0.2147
53637SOL    HW165722   1.797  12.542   4.167  0.3279 -0.1969  0.9909
53637SOL    HW265723   1.947  12.523   4.169  0.2379 -1.3948 -0.7582
53638SOL     OW65724   4.520   1.151   0.030  0.2907 -0.1003  0.8403
53638SOL    HW165725   4.612   1.155   0.057  0.5640  1.4275 -0.1792
53638SOL    HW265726   4.524   1.118  -0.060 -0.0523  0.9157  0.4359
53639SOL     OW65727  10.243   1.802  11.070 -0.6549  0.4449 -0.0253
53639SOL    HW165728  10.218   1.894  11.067 -1.7315  0.1615 -0.0101
53639SOL    HW265729  10.173   1.756  11.023  0.8209 -0.1765 -1.7679
53640SOL     OW65730   0.173   2.430   2.180  0.5134 -0.1485  0.3951
53640SOL    HW165731   0.191   2.343   2.216 -1.4327 -0.4874  0.6575
53640SOL    HW265732   0.183   2.489   2.254 -1.5387 -0.6089  1.1056
53641SOL     OW65733   1.552   0.613  10.341  0.0461  0.1832  0.3140
53641SOL    HW165734   1.518   0.655  10.262  0.8032  0.2047 -0.0087
53641SOL    HW265735   1.570   0.687  10.400  0.6402  0.2668  0.0386
53642SOL     OW65736   2.245   0.675  10.753 -0.5042 -0.2250  0.3614
53642SOL    HW165737   2.171   0.700  10.698  0.8149 -1.3458 -2.0990
53642SOL    HW265738   2.257   0.582  10.735  0.7403 -0.3439  1.6580
53643SOL     OW65739   0.505   5.653  10.565 -0.7902 -0.3094 -0.2565
53643SOL    HW165740   0.579   5.593  10.569 -0.9513 -0.5757 -1.1070
53643SOL    HW265741   0.531   5.718  10.500 -1.1327 -0.1617 -0.2462
53644SOL     OW65742   0.171   3.536   9.359 -0.1628 -0.2193  0.0509
53644SOL    HW165743   0.156   3.587   9.279  1.6241  0.3718  0.0426
53644SOL    HW265744   0.151   3.446   9.334 -1.0863  0.1537 -0.6211
53645SOL     OW65745   5.433   9.260   4.304 -0.0990  0.3662 -0.2898
53645SOL    HW165746   5.522   9.228   4.297 -0.5841 -0.7557 -2.0405
53645SOL    HW265747   5.396   9.249   4.216 -2.7867 -1.7758  0.9497
53646SOL     OW65748  10.874  12.233   1.821 -0.0445 -0.1640  0.1610
53646SOL    HW165749  10.894  12.147   1.784  1.7914  0.6675 -0.9514
53646SOL    HW265750  10.922  12.235   1.904 -1.5088 -0.8083  1.0716
53647SOL     OW65751   7.824   6.728   4.897 -0.3906  0.1591 -0.7556
53647SOL    HW165752   7.869   6.761   4.975 -1.9544  1.5994 -0.4371
53647SOL    HW265753   7.781   6.804   4.858 -0.3205 -0.6751 -2.5993
53648SOL     OW65754  10.738   0.130   8.718  0.0700 -0.2299  0.1659
53648SOL    HW165755  10.759   0.138   8.625 -1.1997 -0.2026 -0.1357
53648SOL    HW265756  10.818   0.095   8.757 -0.3669 -3.4462 -1.4509
53649SOL     OW65757   3.753   7.551   0.393 -0.0210  0.0173  0.1872
53649SOL    HW165758   3.842   7.568   0.362 -0.4771  1.3136 -0.4808
53649SOL    HW265759   3.707   7.518   0.315 -0.0861 -0.8172  0.5729
53650SOL     OW65760  12.378   0.423  11.127 -0.6086 -0.4064  0.3667
53650SOL    HW165761  12.393   0.470  11.209  1.1884 -0.0114 -0.1511
53650SOL    HW265762  12.383   0.490  11.059  2.2339 -1.2484 -0.4002
53651SOL     OW65763   5.910   7.622   4.893 -0.4979 -0.3655 -0.2570
53651SOL    HW165764   5.962   7.554   4.852 -0.2644  0.1051 -0.7644
53651SOL    HW265765   5.839   7.576   4.937 -0.3738 -0.9285 -0.6405
53652SOL     OW65766   3.350  10.125   9.991 -0.6282 -0.1290 -0.4141
53652SOL    HW165767   3.293  10.201   9.995 -0.9154 -0.3238 -0.7813
53652SOL    HW265768   3.361  10.098  10.082 -0.3369  0.4850 -0.2609
53653SOL     OW65769   3.360   3.794  12.556  0.4004  0.1685 -0.0408
53653SOL    HW165770   3.413   3.835  12.625 -0.3527  0.1210  0.5813
53653SOL    HW265771   3.412   3.804  12.477  2.3821 -1.7924  0.8791
53654SOL     OW65772   4.761   0.142  11.424  0.3087 -0.3422 -0.0300
53654SOL    HW165773   4.848   0.104  11.421  0.4726 -0.0033  0.4068
53654SOL    HW265774   4.709   0.087  11.365  0.9085 -0.3045 -0.6107
53655SOL     OW65775  11.709   3.799   9.672 -0.5151  0.1523  0.0774
53655SOL    HW165776  11.686   3.885   9.710  1.7663  0.6200  0.5079
53655SOL    HW265777  11.794   3.813   9.631  0.1463 -2.0390  0.5890
53656SOL     OW65778   1.586   0.779  12.298 -0.1312  0.0902  0.1591
53656SOL    HW165779   1.629   0.738  12.223 -1.8941  0.7120 -1.2721
53656SOL    HW265780   1.590   0.713  12.367  0.2033 -1.1180 -0.9706
53657SOL     OW65781   1.089   4.004   8.218  0.6268 -0.8398 -0.3709
53657SOL    HW165782   0.997   4.005   8.191 -0.4312 -0.4693  2.8233
53657SOL    HW265783   1.112   3.911   8.219 -0.3023 -1.0759  0.5215
53658SOL     OW65784   7.374   9.545   0.537  0.0215  0.2923 -0.2650
53658SOL    HW165785   7.441   9.553   0.604 -0.1498  1.7938 -0.2443
53658SOL    HW265786   7.370   9.451   0.518  0.8227 -0.0263  1.0407
53659SOL     OW65787   9.119   7.743   1.395 -0.5258  1.1960  0.5019
53659SOL    HW165788   9.035   7.704   1.417 -0.3310  0.9487  0.8171
53659SOL    HW265789   9.124   7.737   1.300 -1.2175  1.9484  0.4048
53660SOL     OW65790   7.761   9.868   7.853  0.1304  0.2687 -1.0340
53660SOL    HW165791   7.702   9.806   7.897  1.3343 -1.0434 -1.2000
53660SOL    HW265792   7.717   9.888   7.771 -2.6491  3.5023  0.9631
53661SOL     OW65793  12.376   3.655  12.149  0.2858  0.5933  0.1755
53661SOL    HW165794  12.461   3.643  12.108 -0.3004  0.2765 -0.9699
53661SOL    HW265795  12.322   3.695  12.081 -0.8592 -0.4363  0.4442
53662SOL     OW65796  11.298  10.650   3.498  0.8829  0.5187 -0.4452
53662SOL    HW165797  11.343  10.605   3.570  1.2258  0.0754 -0.9303
53662SOL    HW265798  11.281  10.581   3.434 -0.8277  0.5940 -0.1312
53663SOL     OW65799   9.706   5.741   0.630  0.2860 -0.3569 -0.0478
53663SOL    HW165800   9.802   5.746   0.623  0.4649 -0.8494  1.4892
53663SOL    HW265801   9.674   5.785   0.552  1.7693  0.4538 -0.2465
53664SOL     OW65802   8.997   4.635   9.237  0.2898  0.1466  0.3128
53664SOL    HW165803   8.950   4.716   9.257 -0.2228 -0.2790  0.8946
53664SOL    HW265804   8.932   4.578   9.196 -0.0070 -0.8018  1.9888
53665SOL     OW65805  11.590   1.227   9.882 -0.7766 -0.6809 -0.2553
53665SOL    HW165806  11.539   1.305   9.864 -1.8272 -1.0929  0.7770
53665SOL    HW265807  11.525   1.158   9.894  0.1409 -1.8239 -1.5495
53666SOL     OW65808  10.657  10.061   0.536 -0.0461  0.0209 -0.4446
53666SOL    HW165809  10.687  10.136   0.485 -1.2532  0.2702 -0.8311
53666SOL    HW265810  10.616  10.003   0.472  0.3500 -0.7014 -0.0605
53667SOL     OW65811  11.701  11.974   6.773 -0.1556  0.0090  0.1124
53667SOL    HW165812  11.644  11.997   6.846  0.4870 -1.8389  1.2638
53667SOL    HW265813  11.676  11.884   6.750  1.0138 -0.1551 -0.6082
53668SOL     OW65814   9.384   3.315   7.184 -0.6404  0.3590  0.2125
53668SOL    HW165815   9.393   3.277   7.097 -0.0536  0.1440  0.3592
53668SOL    HW265816   9.298   3.356   7.184 -0.2273  1.2919 -0.8392
53669SOL     OW65817   7.084   0.611   1.907 -0.3107 -0.0503 -0.0506
53669SOL    HW165818   7.027   0.686   1.926 -0.3640 -0.0560 -0.1822
53669SOL    HW265819   7.102   0.572   1.992  0.6221  0.7664  0.1478
53670SOL     OW65820   0.570  10.345   9.064  0.3889 -0.0723  0.4580
53670SOL    HW165821   0.584  10.403   8.989  0.8967  0.1435  0.7129
53670SOL    HW265822   0.512  10.277   9.031  0.6039  0.0224 -0.1351
53671SOL     OW65823   2.792  11.068   3.720  0.6793 -0.2393  0.0964
53671SOL    HW165824   2.717  11.113   3.681  0.1588 -0.5633  0.7014
53671SOL    HW265825   2.865  11.127   3.707  0.3453  0.0238 -0.6241
53672SOL     OW65826   1.063  11.305  11.130  0.3571  0.4091  0.1409
53672SOL    HW165827   1.070  11.357  11.210  0.9217  0.8314 -0.1745
53672SOL    HW265828   1.048  11.370  11.061  0.8660  0.1375 -0.2293
53673SOL     OW65829   6.792   4.052   7.103 -0.1886 -0.3105 -0.2558
53673SOL    HW165830   6.825   4.032   7.016  1.1754  0.7847 -0.0179
53673SOL    HW265831   6.696   4.047   7.094 -0.0576 -0.8110 -1.6394
53674SOL     OW65832   2.489   4.820  12.597  0.1233  0.1840 -0.2922
53674SOL    HW165833   2.419   4.867  12.642 -0.4148 -0.1771 -0.7482
53674SOL    HW265834   2.491   4.734  12.639 -0.3305 -0.1280 -0.9085
53675SOL     OW65835   6.509   0.729   8.712 -0.2324  0.1504  0.5425
53675SOL    HW165836   6.457   0.696   8.639  0.5601 -1.1287  0.5300
53675SOL    HW265837   6.526   0.820   8.691 -1.8021  0.3795  0.1717
53676SOL     OW65838   9.113   6.513   7.494 -0.1750  0.1251  0.0647
53676SOL    HW165839   9.033   6.460   7.490  0.6028 -1.0667 -0.1246
53676SOL    HW265840   9.184   6.451   7.476  0.6662  1.5148 -1.7259
53677SOL     OW65841   0.281   1.275  11.073  0.6303 -0.5021 -0.2955
53677SOL    HW165842   0.290   1.325  11.154 -1.1622  0.6237 -0.7486
53677SOL    HW265843   0.338   1.199  11.086  2.5581  1.0479  0.8632
53678SOL     OW65844   1.125  10.218   6.412  0.4474 -0.1478 -0.3975
53678SOL    HW165845   1.215  10.209   6.443  0.3533 -0.9596 -0.3429
53678SOL    HW265846   1.107  10.312   6.419  1.3982  0.0758 -0.7269
53679SOL     OW65847  11.442   6.104   4.777 -0.0254  0.0515 -0.5710
53679SOL    HW165848  11.408   6.098   4.866 -1.2630  2.1555 -0.8374
53679SOL    HW265849  11.525   6.056   4.779 -1.7527 -3.2038  0.7407
53680SOL     OW65850   8.125   8.543   6.025 -0.3308 -0.6698  0.5988
53680SOL    HW165851   8.210   8.527   5.984  0.0002  1.0658  0.5509
53680SOL    HW265852   8.121   8.638   6.036 -2.5816 -0.6281 -0.0876
53681SOL     OW65853   1.749   6.801  11.638 -0.2117  0.2307 -0.1778
53681SOL    HW165854   1.688   6.855  11.688 -0.5361 -0.2161 -0.0905
53681SOL    HW265855   1.748   6.716  11.682  0.1301  0.0819 -0.4477
53682SOL     OW65856   5.287   7.925   1.305  1.0366  0.1760  0.5180
53682SOL    HW165857   5.257   7.835   1.296 -1.1324  0.9739 -1.1953
53682SOL    HW265858   5.361   7.931   1.244  0.3774 -0.1546 -0.3470
53683SOL     OW65859   5.471   7.211  11.163 -0.2351 -0.3422 -0.0898
53683SOL    HW165860   5.450   7.150  11.233  1.4329  1.1496  1.8553
53683SOL    HW265861   5.392   7.264  11.153 -0.2645 -0.0964  1.2332
53684SOL     OW65862  11.770   8.651   5.449  0.3287 -0.3801  0.3331
53684SOL    HW165863  11.703   8.583   5.446  0.1842 -0.2003 -1.6896
53684SOL    HW265864  11.793   8.658   5.541 -1.5855 -1.2708  0.9228
53685SOL     OW65865   5.676   1.526  10.701 -0.1897  0.1938 -0.4087
53685SOL    HW165866   5.691   1.587  10.774 -3.3617 -0.6114  1.0874
53685SOL    HW265867   5.683   1.439  10.740 -3.2834 -0.2488 -0.6007
53686SOL     OW65868   4.228   6.422   4.706  0.8302  0.8018 -0.6240
53686SOL    HW165869   4.250   6.376   4.625 -0.3295 -0.3062 -0.3362
53686SOL    HW265870   4.235   6.515   4.683 -0.1407  0.5227 -2.1947
53687SOL     OW65871   2.514   4.203   3.617 -0.2452 -0.1873 -0.0632
53687SOL    HW165872   2.527   4.193   3.711  2.7455 -2.3493 -0.5631
53687SOL    HW265873   2.466   4.125   3.590 -0.4023  0.0431 -0.4742
53688SOL     OW65874   1.129   1.200   6.210  0.3539  0.2208 -0.4280
53688SOL    HW165875   1.102   1.253   6.136 -0.5501  2.2953  1.2820
53688SOL    HW265876   1.090   1.243   6.286 -0.0371 -2.6658  1.1454
53689SOL     OW65877   4.732   6.753  11.734 -0.2444  0.1170  0.1969
53689SOL    HW165878   4.654   6.698  11.747 -1.0946  1.5026  1.3265
53689SOL    HW265879   4.758   6.737  11.643 -0.6852 -1.8165  0.3753
53690SOL     OW65880   2.215   1.831   7.646  0.2403 -0.0391  0.1532
53690SOL    HW165881   2.308   1.806   7.649  0.9109  2.1191 -0.6203
53690SOL    HW265882   2.168   1.749   7.660  2.2551 -1.2232  0.4691
53691SOL     OW65883   3.776   1.128  10.900 -0.7594 -0.8342  0.1419
53691SOL    HW165884   3.837   1.069  10.943  0.3264 -1.4332 -2.0673
53691SOL    HW265885   3.817   1.214  10.905 -1.1837 -0.6852  1.2453
53692SOL     OW65886   6.438   1.338   9.248  0.7997  0.8628  0.3603
53692SOL    HW165887   6.441   1.412   9.309 -0.5112  0.3060  1.1092
53692SOL    HW265888   6.411   1.264   9.300  2.4606 -0.2879 -0.3090
53693SOL     OW65889   6.762   7.731   0.607  0.4806 -0.3540  0.3869
53693SOL    HW165890   6.717   7.813   0.588 -1.4178 -1.2782  0.6797
53693SOL    HW265891   6.804   7.747   0.692  0.3518  0.3987  0.3213
53694SOL     OW65892   2.433  12.262   5.395 -0.5004  0.3759 -0.2185
53694SOL    HW165893   2.486  12.194   5.354 -0.0864  0.0873  0.7679
53694SOL    HW265894   2.463  12.344   5.355 -1.1667 -0.0172 -1.5837
53695SOL     OW65895  10.768   4.259   6.629  0.1887  0.0837 -0.0872
53695SOL    HW165896  10.721   4.183   6.595  1.8457 -1.2549  0.4515
53695SOL    HW265897  10.738   4.332   6.575 -1.5767 -0.8983 -0.5138
53696SOL     OW65898   0.069   0.427  11.317  0.2076  0.5533  0.1087
53696SOL    HW165899   0.055   0.520  11.333  0.7399  0.5863  0.4075
53696SOL    HW265900   0.004   0.383  11.373  1.5999  0.6867  1.8984
53697SOL     OW65901   7.305  11.708  10.692 -0.3540 -0.4992 -0.2123
53697SOL    HW165902   7.288  11.667  10.607 -0.5055 -3.3122  1.0588
53697SOL    HW265903   7.220  11.741  10.721 -0.2752  0.5923 -1.1671
53698SOL     OW65904   5.649   4.044   2.123 -0.2907  0.2046  0.7607
53698SOL    HW165905   5.697   3.969   2.087 -1.0475 -0.1962  0.5633
53698SOL    HW265906   5.717   4.101   2.159  0.2700 -0.8100  1.3656
53699SOL     OW65907   2.843   1.068   3.849 -0.3640 -0.0377 -0.1085
53699SOL    HW165908   2.752   1.038   3.856  0.2284 -1.6312  1.5111
53699SOL    HW265909   2.836   1.163   3.844 -2.0854  0.0557  2.1659
53700SOL     OW65910   6.598  10.614   9.030 -0.0414 -0.0662 -0.2228
53700SOL    HW165911   6.562  10.637   9.115 -1.2370 -0.0114 -0.7253
53700SOL    HW265912   6.597  10.695   8.980  1.4129  0.0805 -0.0468
53701SOL     OW65913  12.010  11.834   7.009  0.1099 -0.0736 -0.4388
53701SOL    HW165914  11.975  11.784   6.935  1.4986 -0.6397 -0.7395
53701SOL    HW265915  12.102  11.808   7.014 -0.3988 -1.7275  2.8372
53702SOL     OW65916   3.160   4.253  12.258  0.1998 -0.4015  0.7031
53702SOL    HW165917   3.174   4.183  12.321 -1.1958 -0.7604  0.6458
53702SOL    HW265918   3.075   4.291  12.283 -0.0210 -0.0724 -0.4989
53703SOL     OW65919  10.018   9.641   4.204 -0.0839  0.3100 -0.2753
53703SOL    HW165920  10.078   9.655   4.130  0.6838  0.1592  0.3015
53703SOL    HW265921  10.046   9.704   4.270 -1.1143  0.8094 -0.3068
53704SOL     OW65922   4.107   0.391   5.059 -0.7887 -0.2773 -0.4267
53704SOL    HW165923   4.168   0.338   5.007  0.4845  0.5177  0.2147
53704SOL    HW265924   4.161   0.459   5.097 -1.9888  0.1000  0.6644
53705SOL     OW65925   6.194  12.363   9.468 -0.4078  0.2946  0.7868
53705SOL    HW165926   6.242  12.407   9.538  0.5163 -0.5551  0.7045
53705SOL    HW265927   6.203  12.422   9.392  0.1437  0.3406  0.8854
53706SOL     OW65928  12.116   5.044   4.514  0.1187  0.1379 -0.6606
53706SOL    HW165929  12.081   5.107   4.451  1.4661 -0.8432 -2.4840
53706SOL    HW265930  12.085   5.076   4.599  0.0757  2.7987 -1.5755
53707SOL     OW65931   0.831  11.608   6.655  0.0306  1.0410  0.2791
53707SOL    HW165932   0.804  11.518   6.634 -2.3677  1.4817  1.1603
53707SOL    HW265933   0.923  11.600   6.679 -0.1924 -1.2531  0.6608
53708SOL     OW65934   9.868   0.227   9.091  0.0543  0.1065 -0.2799
53708SOL    HW165935   9.868   0.301   9.151  2.9573 -0.6069  0.7360
53708SOL    HW265936   9.816   0.160   9.136  1.6154 -0.1760  1.2277
53709SOL     OW65937   3.236   7.540   9.786  0.0023  0.4133  0.4807
53709SOL    HW165938   3.175   7.470   9.763  0.7947  0.3513 -1.7357
53709SOL    HW265939   3.190   7.620   9.764 -0.0472  0.4694  0.7887
53710SOL     OW65940   2.250  11.551   0.798  0.1561 -0.0267 -0.0619
53710SOL    HW165941   2.245  11.461   0.766 -3.1249  0.2628 -0.7084
53710SOL    HW265942   2.256  11.543   0.893  3.5484 -0.8524 -0.2422
53711SOL     OW65943   5.456   3.895   4.829  0.1950 -0.0525  0.1252
53711SOL    HW165944   5.462   3.807   4.866  0.4890  0.1736  0.6317
53711SOL    HW265945   5.488   3.886   4.740  0.1801 -0.4670  0.1584
53712SOL     OW65946   9.704   6.115   3.529 -0.1688  0.3023 -0.5598
53712SOL    HW165947   9.662   6.069   3.456  0.4518  0.1482 -0.8306
53712SOL    HW265948   9.753   6.186   3.488  0.9501 -0.3475 -0.4134
53713SOL     OW65949   0.041  10.472  12.143 -0.1975 -0.1580  0.2793
53713SOL    HW165950   0.038  10.511  12.056  0.6698 -2.8416 -1.0989
53713SOL    HW265951  -0.008  10.390  12.134 -1.5676  0.2580  2.8429
53714SOL     OW65952   3.783   8.202   2.737  0.1256  0.6992 -0.0898
53714SOL    HW165953   3.787   8.129   2.799 -1.3617  1.6206  1.1681
53714SOL    HW265954   3.713   8.258   2.770  2.0646  3.4330 -0.2000
53715SOL     OW65955  10.625   3.919   4.151  0.2670  0.0713 -0.0924
53715SOL    HW165956  10.684   3.895   4.223  0.0257 -0.2703 -0.0050
53715SOL    HW265957  10.619   3.839   4.098 -0.4475 -0.0248  0.1292
53716SOL     OW65958   6.436   3.122   4.847  0.1239 -0.3893 -0.6531
53716SOL    HW165959   6.350   3.158   4.823 -1.0777 -1.5134  1.5890
53716SOL    HW265960   6.467   3.079   4.768 -2.0884 -1.1621 -1.1925
53717SOL     OW65961   6.744   7.856  11.886 -0.2626 -0.4202  0.3566
53717SOL    HW165962   6.691   7.847  11.965  0.4046 -2.8721  0.6088
53717SOL    HW265963   6.775   7.768  11.868  2.3589  0.6212 -0.7347
53718SOL     OW65964   5.325  12.018   2.996 -0.8625  0.2004  0.1565
53718SOL    HW165965   5.235  12.019   2.963 -1.0463 -2.3414  0.4077
53718SOL    HW265966   5.377  11.983   2.923 -0.3009  0.3098  0.4984
53719SOL     OW65967   0.420   8.970   2.875 -0.3961  0.1789 -0.2153
53719SOL    HW165968   0.331   8.951   2.843 -0.4514 -1.7465  0.8717
53719SOL    HW265969   0.469   8.890   2.856  1.4658  1.5936 -1.7741
53720SOL     OW65970   4.962   3.739   7.246  0.5801 -0.1322  0.5497
53720SOL    HW165971   4.965   3.776   7.158  2.4589  0.2610  0.7493
53720SOL    HW265972   5.044   3.692   7.256  0.3114 -0.3443  2.0308
53721SOL     OW65973   0.611  12.120  11.578  0.1948 -0.2386 -0.3580
53721SOL    HW165974   0.549  12.131  11.506 -0.6499  1.0993  0.5355
53721SOL    HW265975   0.599  12.029  11.606 -0.8039 -0.2255 -0.7012
53722SOL     OW65976  12.236   5.407   3.209 -0.0373 -0.5378 -0.5203
53722SOL    HW165977  12.147   5.375   3.201 -0.4898 -0.1955  2.1465
53722SOL    HW265978  12.288   5.352   3.151 -1.8794 -1.0762 -1.7234
53723SOL     OW65979   5.215   5.204  11.514  1.4685  0.0442  0.5590
53723SOL    HW165980   5.137   5.252  11.487  1.3477  0.5439  1.7186
53723SOL    HW265981   5.190   5.164  11.597  2.0424 -0.8515  0.3081
53724SOL     OW65982   9.686   7.382  10.106 -0.1011 -0.3531 -0.0325
53724SOL    HW165983   9.614   7.318  10.106  0.2926 -0.8020 -0.6712
53724SOL    HW265984   9.764   7.331  10.124 -0.1490  0.4205  2.7466
53725SOL     OW65985   4.119   4.068   8.803 -0.7650 -0.2735 -0.1998
53725SOL    HW165986   4.087   4.125   8.733  0.9482  1.0753  0.0385
53725SOL    HW265987   4.181   4.009   8.760 -0.6005 -0.2359 -0.0157
53726SOL     OW65988   9.704  10.596   8.816  0.3409 -0.0942  0.0548
53726SOL    HW165989   9.704  10.593   8.912  2.3232  0.1530  0.1120
53726SOL    HW265990   9.677  10.508   8.790  0.7928 -0.4877  0.8621
53727SOL     OW65991   8.517  11.229   5.920  0.6243 -0.1583 -0.3414
53727SOL    HW165992   8.481  11.144   5.894 -0.5209  0.6375 -1.4439
53727SOL    HW265993   8.564  11.260   5.843  3.4939 -0.9892  0.9336
53728SOL     OW65994   7.110   2.981   6.937 -0.1013 -0.0303 -0.3395
53728SOL    HW165995   7.110   3.074   6.961 -0.5859  0.1947 -1.1837
53728SOL    HW265996   7.097   2.980   6.842 -0.7201 -0.9792 -0.2647
53729SOL     OW65997   4.441   4.221   3.744  0.2523  0.1292 -0.0888
53729SOL    HW165998   4.346   4.213   3.740  0.3017 -1.1765  0.7464
53729SOL    HW265999   4.458   4.314   3.728 -1.4374  1.2053  3.3751
53730SOL     OW66000   9.898   9.993   6.395  0.3885 -0.6368  0.5359
53730SOL    HW166001   9.833  10.057   6.423  2.0569  0.8567  1.1593
53730SOL    HW266002   9.948  10.037   6.326  0.7726 -1.7373  0.0811
53731SOL     OW66003  10.748   3.607  10.348 -0.0674  0.0362 -0.1753
53731SOL    HW166004  10.838   3.591  10.376 -0.7191  0.4784  2.5224
53731SOL    HW266005  10.755   3.667  10.274  1.8497  0.6344  0.4343
53732SOL     OW66006  11.821  12.373   3.032  0.0904 -0.0165 -0.3534
53732SOL    HW166007  11.887  12.429   2.992  0.0299  1.9928  2.1511
53732SOL    HW266008  11.861  12.343   3.113 -1.4501 -0.1909  0.3700
53733SOL     OW66009   2.333   1.361  12.180  0.0826 -0.1788 -0.3920
53733SOL    HW166010   2.280   1.372  12.259  1.4337 -2.2608  0.8984
53733SOL    HW266011   2.269   1.354  12.109 -1.3318 -1.4292  0.9514
53734SOL     OW66012   1.468   7.376   0.468  0.0968 -0.0481 -0.0440
53734SOL    HW166013   1.476   7.454   0.523  0.2285  0.3970 -0.6865
53734SOL    HW266014   1.384   7.386   0.424 -0.5096 -0.9344  0.8776
53735SOL     OW66015   8.814   4.704  11.658 -0.0904 -1.0645 -0.1393
53735SOL    HW166016   8.799   4.681  11.566  0.6722 -1.0810 -0.2699
53735SOL    HW266017   8.728   4.730  11.691 -0.1587  0.2602 -1.2373
53736SOL     OW66018   6.292  10.358   5.429  0.6802 -0.0902  0.1476
53736SOL    HW166019   6.200  10.335   5.422  0.8113 -0.5759  0.0073
53736SOL    HW266020   6.293  10.454   5.425  0.3027 -0.1155 -1.3856
53737SOL     OW66021  11.917   9.221  11.536  0.2402  0.6419 -0.3932
53737SOL    HW166022  11.897   9.188  11.448  0.8778  0.6376 -0.5432
53737SOL    HW266023  12.010   9.242  11.532  0.8425 -1.4959  0.9691
53738SOL     OW66024   3.301   4.391   5.244  0.4303 -0.0441  0.5839
53738SOL    HW166025   3.329   4.388   5.335 -0.0654  0.2233  0.7502
53738SOL    HW266026   3.381   4.379   5.194  0.8499  0.7497  1.0436
53739SOL     OW66027   0.313   7.634   8.759 -0.5927  0.1032  0.4484
53739SOL    HW166028   0.237   7.590   8.721  0.3544 -2.6302  1.4419
53739SOL    HW266029   0.357   7.674   8.685 -1.4259 -0.8053 -0.5809
53740SOL     OW66030   9.092   9.484   0.535  0.1447  0.3146 -0.0831
53740SOL    HW166031   9.017   9.487   0.476  1.0351  1.1714 -1.2212
53740SOL    HW266032   9.117   9.391   0.535 -0.2823  0.1902 -0.5138
53741SOL     OW66033   0.099   0.921   0.326  0.2749  0.0210 -0.3235
53741SOL    HW166034   0.039   0.852   0.298  1.1149 -0.3123 -1.3584
53741SOL    HW266035   0.045   1.000   0.331 -0.8588 -0.8008  1.5538
53742SOL     OW66036   9.287   3.713   1.887 -0.2287 -0.6032 -0.0242
53742SOL    HW166037   9.289   3.622   1.856  0.9379 -0.1832 -1.3063
53742SOL    HW266038   9.344   3.715   1.963 -0.0602 -0.8919 -0.1446
53743SOL     OW66039   8.852   5.831   0.036  0.0175  0.4032 -0.0791
53743SOL    HW166040   8.809   5.916   0.029  1.4963  1.0747 -2.1241
53743SOL    HW266041   8.940   5.846   0.002  1.4274 -1.2484  2.5763
53744SOL     OW66042   4.337  12.412   1.752 -0.5443 -0.3335 -0.0044
53744SOL    HW166043   4.361  12.500   1.781 -2.1557 -0.0611  0.5975
53744SOL    HW266044   4.302  12.425   1.664 -0.6271 -0.3980  0.0192
53745SOL     OW66045   5.127   7.189   5.071  0.0850 -0.7154 -0.1691
53745SOL    HW166046   5.118   7.226   4.983 -1.1539  0.6885  0.4968
53745SOL    HW266047   5.132   7.095   5.057  1.6156 -0.4385 -1.8410
53746SOL     OW66048   9.924   7.238   2.165 -0.3431 -0.0622  0.1000
53746SOL    HW166049   9.880   7.307   2.116 -0.2647  0.0856  0.2362
53746SOL    HW266050  10.017   7.260   2.160 -0.2868 -0.3469 -0.1467
53747SOL     OW66051  11.253   5.852   3.826 -0.5718  0.0968 -0.2660
53747SOL    HW166052  11.229   5.928   3.878  0.7315 -0.6061  1.4532
53747SOL    HW266053  11.267   5.782   3.890  2.0267 -0.5694 -1.4318
53748SOL     OW66054   4.232  12.060   9.671  0.0568  0.3312  0.2440
53748SOL    HW166055   4.303  12.099   9.620  0.4128  0.9312  1.1583
53748SOL    HW266056   4.236  11.966   9.651  0.5175  0.4855 -0.4131
53749SOL     OW66057   7.673   0.594   2.440 -0.0147  0.1417  0.7146
53749SOL    HW166058   7.652   0.503   2.461  2.6419 -0.6445  0.3544
53749SOL    HW266059   7.666   0.598   2.345  0.2158  0.2121  0.7014
53750SOL     OW66060   3.904   5.195   1.370  0.4660  0.3355  0.0738
53750SOL    HW166061   3.956   5.275   1.380  1.2871  0.1451 -2.1159
53750SOL    HW266062   3.833   5.221   1.310  0.7574 -0.5530 -0.6763
53751SOL     OW66063   9.430   9.957   5.050  0.3343 -0.7271  0.2124
53751SOL    HW166064   9.477   9.977   5.131  1.7790  0.0098 -0.7649
53751SOL    HW266065   9.357  10.019   5.048  1.0442  0.1249  0.3453
53752SOL     OW66066  10.437   1.691   8.614  0.1924 -0.3115  0.6872
53752SOL    HW166067  10.476   1.690   8.701 -0.9447 -0.8274  1.2258
53752SOL    HW266068  10.383   1.611   8.611 -0.2398 -0.0078 -0.2727
53753SOL     OW66069  10.182   7.854   5.116 -0.0981 -0.0131 -1.0982
53753SOL    HW166070  10.161   7.865   5.023  0.1925  2.3946 -0.9522
53753SOL    HW266071  10.273   7.882   5.123 -0.4513  0.9097  0.0697
53754SOL     OW66072   0.758   7.167   7.737  0.3867 -0.3781  0.1297
53754SOL    HW166073   0.762   7.077   7.769  2.1832 -0.6022 -0.6194
53754SOL    HW266074   0.695   7.164   7.665 -1.3040 -0.5111  1.5504
53755SOL     OW66075   1.481   8.444   6.251 -0.6830  0.2177  0.3162
53755SOL    HW166076   1.545   8.377   6.227 -0.7277  0.2949 -0.0268
53755SOL    HW266077   1.406   8.395   6.284 -0.5234  0.1202  0.5427
53756SOL     OW66078   4.329   0.145   7.903 -0.4495 -0.1404  0.8108
53756SOL    HW166079   4.354   0.081   7.837 -0.1023  0.2957  0.5174
53756SOL    HW266080   4.391   0.132   7.974  0.9334  1.2135 -0.0822
53757SOL     OW66081  11.210   0.218  10.759 -0.1789 -0.2172  0.5572
53757SOL    HW166082  11.165   0.260  10.832  1.1182  1.4597  0.4650
53757SOL    HW266083  11.212   0.285  10.690  0.2118 -1.1330 -0.3557
53758SOL     OW66084   8.697   5.524   2.304  0.0954 -0.0344  0.0626
53758SOL    HW166085   8.737   5.609   2.284 -2.0451  0.9052 -0.6441
53758SOL    HW266086   8.604   5.537   2.282 -0.5798 -2.0717  1.4756
53759SOL     OW66087   3.413   1.327   2.362 -0.7697 -0.2387  0.6294
53759SOL    HW166088   3.392   1.327   2.456  0.0124  1.6571  0.8606
53759SOL    HW266089   3.506   1.309   2.358 -0.3054  1.9730  0.4279
53760SOL     OW66090   4.650   1.860   9.684 -0.0517 -0.0248 -0.3807
53760SOL    HW166091   4.568   1.896   9.718  0.4565  0.2775  0.5726
53760SOL    HW266092   4.675   1.919   9.613 -0.2115  0.3904 -0.0937
53761SOL     OW66093   0.852   9.395  12.205  0.5671  0.1487  0.4215
53761SOL    HW166094   0.939   9.385  12.168 -0.3952  0.2120 -2.0385
53761SOL    HW266095   0.814   9.469  12.158 -0.5910  0.5683  1.9351
53762SOL     OW66096   5.049   2.109  10.371  0.5872  0.7229  0.2934
53762SOL    HW166097   5.080   2.174  10.436 -1.6933  2.4564 -0.2368
53762SOL    HW266098   5.107   2.122  10.296  2.4073 -0.3895  1.4070
53763SOL     OW66099   1.651   9.845  12.537  0.5675 -0.1346  0.3977
53763SOL    HW166100   1.606   9.778  12.588  1.2796 -0.2089  0.9464
53763SOL    HW266101   1.603   9.926  12.557  1.0715 -0.0908  1.5132
53764SOL     OW66102   7.433   8.941   2.663  0.3740  0.4201 -0.3079
53764SOL    HW166103   7.485   8.993   2.601 -1.9591  0.6514 -2.2255
53764SOL    HW266104   7.367   9.001   2.695 -0.5135 -0.5874 -0.1996
53765SOL     OW66105   9.525   2.165   3.175  0.0574 -0.3363 -0.1721
53765SOL    HW166106   9.479   2.233   3.127  0.2798  0.1615  0.3085
53765SOL    HW266107   9.457   2.120   3.225 -0.0842 -0.4515 -0.4681
53766SOL     OW66108   3.025   4.134   6.967 -0.3049  0.4633  0.2976
53766SOL    HW166109   3.029   4.088   7.050 -1.8707  1.4811  0.9801
53766SOL    HW266110   3.047   4.225   6.989  1.5514  0.3413 -0.8176
53767SOL     OW66111   2.883   5.660   4.811 -0.1081 -0.0153  0.0335
53767SOL    HW166112   2.864   5.662   4.717 -1.5602 -1.9243  0.2282
53767SOL    HW266113   2.852   5.744   4.844 -1.9887 -0.3357 -0.8044
53768SOL     OW66114   7.237   7.207   2.466 -0.4597 -0.0290 -0.1838
53768SOL    HW166115   7.261   7.150   2.393 -2.3309 -0.9071 -0.1711
53768SOL    HW266116   7.233   7.149   2.542 -0.9691  0.3901  0.1193
53769SOL     OW66117   7.131   9.094  12.221 -0.1841 -0.7795  0.0628
53769SOL    HW166118   7.074   9.112  12.146  1.0099 -0.7650 -0.8691
53769SOL    HW266119   7.157   9.181  12.253 -0.3186 -0.7902  0.2038
53770SOL     OW66120   2.299  12.461   3.124 -0.3608  0.3629  0.4350
53770SOL    HW166121   2.262  12.378   3.094  0.6710  0.3162 -0.8146
53770SOL    HW266122   2.332  12.443   3.212  2.2019 -1.3816 -0.7368
53771SOL     OW66123   3.061  11.325   3.493 -0.3414 -0.2189 -0.0847
53771SOL    HW166124   3.012  11.402   3.464 -1.4394 -1.7146 -2.4868
53771SOL    HW266125   3.032  11.310   3.582 -2.0424  0.6888 -0.4410
53772SOL     OW66126   0.815   4.947   3.583 -0.1975 -0.0799  0.3222
53772SOL    HW166127   0.823   4.853   3.571  1.2750 -0.0540  0.9570
53772SOL    HW266128   0.720   4.963   3.585 -0.4619 -1.4762 -0.1973
53773SOL     OW66129   7.838   3.890   9.257  0.0783 -0.2551 -0.3912
53773SOL    HW166130   7.876   3.949   9.191 -2.7755  1.7025 -0.4714
53773SOL    HW266131   7.854   3.934   9.340 -1.9024  0.6709 -0.4357
53774SOL     OW66132   3.973  11.513   7.661  0.4797  0.0672 -0.5137
53774SOL    HW166133   4.044  11.455   7.635  0.5761 -1.4022  2.5228
53774SOL    HW266134   4.006  11.559   7.738 -1.4905 -0.0340  0.4788
53775SOL     OW66135   1.214   3.188   9.986  0.3524 -0.1356 -0.0884
53775SOL    HW166136   1.234   3.164  10.076 -0.1135 -1.0851 -0.2257
53775SOL    HW266137   1.257   3.273   9.973 -0.3413  0.4517  1.2972
53776SOL     OW66138   6.094   4.059   4.010 -0.3055  0.1344  0.4030
53776SOL    HW166139   6.115   4.104   3.928 -0.1187 -0.1246  0.3102
53776SOL    HW266140   6.096   4.129   4.076 -0.2641  0.3088  0.2193
53777SOL     OW66141   7.890   6.580   7.737 -0.0009 -0.6489 -0.3649
53777SOL    HW166142   7.837   6.507   7.707 -0.2076 -0.4370 -0.5115
53777SOL    HW266143   7.846   6.658   7.704  0.0062 -0.4355  0.1096
53778SOL     OW66144   3.054   5.821   8.149 -0.6080 -0.1929  0.4145
53778SOL    HW166145   3.009   5.905   8.136  0.3431  0.4086  0.8386
53778SOL    HW266146   3.117   5.839   8.219 -0.0020 -1.1037  0.1221
53779SOL     OW66147   1.976   3.642   8.157  0.3176 -0.0362 -0.3017
53779SOL    HW166148   1.907   3.617   8.218  1.3571 -0.6672  0.6475
53779SOL    HW266149   2.015   3.559   8.130  0.1716  0.2615 -1.4997
53780SOL     OW66150   3.064   7.563   8.761  0.4766  0.0868  0.0870
53780SOL    HW166151   3.059   7.658   8.753 -1.7938 -0.1251 -2.3246
53780SOL    HW266152   3.127   7.536   8.695  3.4187 -0.0247  2.7221
53781SOL     OW66153   4.491   5.886   8.199 -0.2700 -0.5493 -0.4278
53781SOL    HW166154   4.570   5.878   8.252 -0.4171 -0.7332 -0.2328
53781SOL    HW266155   4.439   5.953   8.244 -1.5480 -2.4953  1.1541
53782SOL     OW66156   7.910   8.616   4.644  0.3517  0.2744 -0.7422
53782SOL    HW166157   7.891   8.694   4.696  1.8610 -0.3800  0.9316
53782SOL    HW266158   7.847   8.618   4.573 -0.7079  2.1487  0.1712
53783SOL     OW66159   5.404   4.193   4.712 -0.1045 -0.0615 -0.0408
53783SOL    HW166160   5.496   4.170   4.700 -0.6652 -1.8791 -1.2591
53783SOL    HW266161   5.361   4.110   4.734 -1.4344  0.7885  0.7099
53784SOL     OW66162   1.779   2.743  11.625 -0.3231  0.1480  0.1610
53784SOL    HW166163   1.859   2.693  11.607 -0.4414  0.5770 -1.7763
53784SOL    HW266164   1.735   2.694  11.694  1.1876 -0.5655  0.6675
53785SOL     OW66165  10.834   5.039   9.768 -0.9947  0.6367 -1.0450
53785SOL    HW166166  10.811   5.074   9.682 -0.3678  2.3050 -0.5786
53785SOL    HW266167  10.926   5.062   9.780 -0.6613 -0.8484 -0.5070
53786SOL     OW66168   6.012   8.233  11.134  0.2238  0.1940  0.5189
53786SOL    HW166169   6.047   8.153  11.095  0.7688  1.1674 -1.0679
53786SOL    HW266170   5.917   8.225  11.125  0.0754 -1.3755  2.6794
53787SOL     OW66171   8.508   2.229   5.968  0.5828  0.6546  0.5278
53787SOL    HW166172   8.590   2.236   6.016  0.1207  0.6208  1.3396
53787SOL    HW266173   8.440   2.228   6.035 -0.0313 -0.3557 -0.0736
53788SOL     OW66174   7.576   8.187  11.227  0.7215 -0.5945  0.2301
53788SOL    HW166175   7.524   8.115  11.262 -0.5667  1.0501  1.8968
53788SOL    HW266176   7.644   8.203  11.292  1.7654 -1.0394 -0.7084
53789SOL     OW66177   0.561  12.046   2.740  0.0459  0.3749  0.1607
53789SOL    HW166178   0.593  12.130   2.771  0.7970  0.5496 -1.0181
53789SOL    HW266179   0.488  12.068   2.682 -0.1683  0.1634  0.3448
53790SOL     OW66180   8.497   9.424   1.832 -0.1241  0.3540  0.2820
53790SOL    HW166181   8.459   9.360   1.893 -0.6518  0.8986  0.5292
53790SOL    HW266182   8.431   9.433   1.763 -0.6297  1.5759  0.8992
53791SOL     OW66183   5.711   4.658   0.484  0.6743 -0.0341  0.0270
53791SOL    HW166184   5.750   4.577   0.450  1.1006  0.7259 -1.3806
53791SOL    HW266185   5.624   4.632   0.512  0.9804 -1.0844  0.0584
53792SOL     OW66186   7.411   1.030   4.503 -0.0205  0.2787 -0.4847
53792SOL    HW166187   7.345   0.961   4.500 -1.5215  1.6183  0.3058
53792SOL    HW266188   7.380   1.096   4.440 -1.2322  2.3721  2.1026
53793SOL     OW66189   7.649   3.585   5.201  0.4802 -0.1459 -0.1445
53793SOL    HW166190   7.611   3.587   5.113 -0.6101 -1.2152  0.2691
53793SOL    HW266191   7.669   3.676   5.221  0.8898  0.1041 -1.5499
53794SOL     OW66192  12.499   3.060   5.449  0.1375 -0.0909 -0.1946
53794SOL    HW166193  12.541   3.083   5.532 -0.0647  0.6195 -0.2771
53794SOL    HW266194  12.529   3.127   5.388 -1.2860  0.5740 -0.1942
53795SOL     OW66195   0.226   3.955  10.184  0.0386  0.4088 -0.6214
53795SOL    HW166196   0.187   3.873  10.155  1.4631 -0.2988 -0.6571
53795SOL    HW266197   0.273   3.932  10.264  0.4913  1.1648 -0.6550
53796SOL     OW66198   5.591   2.309   6.370 -0.0292 -0.0940 -0.1731
53796SOL    HW166199   5.551   2.302   6.283 -1.0292 -2.4696  0.4053
53796SOL    HW266200   5.684   2.288   6.355 -0.4155 -1.6884 -0.5617
53797SOL     OW66201  11.931   5.357  11.368 -0.2540  0.1419  0.2556
53797SOL    HW166202  11.959   5.448  11.376  0.4563 -0.0416 -0.0645
53797SOL    HW266203  12.004   5.313  11.325 -1.7057 -0.0080 -2.2919
53798SOL     OW66204   9.704   3.456   4.124 -0.0616  0.3434 -0.5422
53798SOL    HW166205   9.682   3.405   4.202 -3.6811  2.3407 -0.0403
53798SOL    HW266206   9.702   3.393   4.052 -1.3841 -0.7551  0.4079
53799SOL     OW66207  10.107  10.701   4.508 -0.1185  0.4255 -0.7219
53799SOL    HW166208  10.199  10.728   4.499  0.1710 -0.4870 -0.5909
53799SOL    HW266209  10.089  10.707   4.602  0.2749 -0.8280 -0.5479
53800SOL     OW66210   1.868   8.497   1.716  0.1209 -0.0694 -0.3102
53800SOL    HW166211   1.898   8.450   1.793  1.6109  0.3662 -0.5860
53800SOL    HW266212   1.920   8.578   1.716  0.9682 -0.5513 -2.3328
53801SOL     OW66213  12.534   7.413   5.406 -0.3872  0.1115  0.0846
53801SOL    HW166214  12.516   7.451   5.320 -0.6663 -1.1081 -0.4232
53801SOL    HW266215  12.520   7.319   5.394  0.5754 -0.2000  1.2050
53802SOL     OW66216   7.296  11.395   9.073 -0.2361  0.1000  0.6683
53802SOL    HW166217   7.329  11.308   9.097 -1.7234 -0.1734  1.9179
53802SOL    HW266218   7.297  11.395   8.977  0.3627 -1.0643  0.6540
53803SOL     OW66219   2.851   2.208   1.120 -0.7145 -0.0624 -0.3602
53803SOL    HW166220   2.930   2.235   1.166 -0.9866  0.3535 -0.1370
53803SOL    HW266221   2.882   2.182   1.033 -0.0042 -2.1520  0.4522
53804SOL     OW66222  10.061   2.851   4.649 -0.0279 -0.4022  0.9104
53804SOL    HW166223  10.140   2.823   4.695  0.2404 -1.1415  0.0450
53804SOL    HW266224  10.022   2.770   4.617 -0.4179  0.0570  0.1892
53805SOL     OW66225   8.439   0.241   5.119  0.7194  0.4175 -0.6656
53805SOL    HW166226   8.421   0.267   5.029  0.0610  1.1743 -0.3243
53805SOL    HW266227   8.450   0.323   5.167  1.0128  0.0261 -0.0407
53806SOL     OW66228   9.981   5.897   1.565  0.1245  0.5399  0.3500
53806SOL    HW166229   9.964   5.989   1.581 -0.6659  0.2183  1.4937
53806SOL    HW266230   9.899   5.864   1.527 -1.2234 -0.5528  3.8580
53807SOL     OW66231   4.410   3.142   1.176  0.1057  0.4443  0.3809
53807SOL    HW166232   4.408   3.049   1.154  0.2622  0.9577 -2.0661
53807SOL    HW266233   4.388   3.145   1.270 -1.5185 -1.9232  0.1648
53808SOL     OW66234   1.389   8.236   8.069  0.3536  0.6946 -0.1685
53808SOL    HW166235   1.400   8.147   8.103  0.5925 -0.0935 -2.1694
53808SOL    HW266236   1.406   8.228   7.976 -0.0227  2.7927 -0.4627
53809SOL     OW66237   6.211  11.213   3.177 -0.7903  0.4910 -0.3226
53809SOL    HW166238   6.201  11.187   3.085  0.0683  1.3603 -0.6828
53809SOL    HW266239   6.216  11.131   3.225 -2.6903  0.0010 -0.8653
53810SOL     OW66240   4.897   0.352   9.811  0.1675  0.3950  0.0117
53810SOL    HW166241   4.892   0.353   9.715 -1.0354  0.4165  0.0541
53810SOL    HW266242   4.959   0.422   9.832  1.5987 -0.5721 -0.7810
53811SOL     OW66243   1.652  11.531   5.367 -0.3490  0.0935  0.0851
53811SOL    HW166244   1.603  11.450   5.382 -0.7518  0.2732 -0.2529
53811SOL    HW266245   1.607  11.574   5.294 -1.5301  1.7651  1.7194
53812SOL     OW66246   2.114   2.060   5.444  0.3066  0.0222  0.0588
53812SOL    HW166247   2.056   1.994   5.481  1.3983 -1.1695 -0.2691
53812SOL    HW266248   2.084   2.143   5.482 -3.4077 -0.0502 -2.2386
53813SOL     OW66249   3.886  11.659   8.593 -0.3449  0.7213  0.4367
53813SOL    HW166250   3.875  11.590   8.659  0.3906 -0.0048 -0.1718
53813SOL    HW266251   3.888  11.612   8.509  1.1218  1.3721  0.0757
53814SOL     OW66252   6.545   6.901   3.988  0.3193  0.1727 -0.3023
53814SOL    HW166253   6.603   6.872   4.059 -1.0758  0.1764  0.8869
53814SOL    HW266254   6.562   6.841   3.916  1.0890 -0.4317  0.3655
53815SOL     OW66255  10.083  12.638   7.195 -0.1676  0.2850 -0.5197
53815SOL    HW166256  10.071  12.676   7.283  0.3529 -1.0493  0.1509
53815SOL    HW266257  10.009  12.672   7.145 -1.1089  0.1926  0.7472
53816SOL     OW66258   4.281   7.290   6.558 -0.2916  0.2602 -0.3752
53816SOL    HW166259   4.345   7.351   6.521 -0.3223 -0.3066 -1.3733
53816SOL    HW266260   4.244   7.338   6.633 -1.0895  1.9188 -1.7594
53817SOL     OW66261   6.303  12.159  10.886 -0.4711  0.1324 -0.0980
53817SOL    HW166262   6.222  12.141  10.838 -1.2112  0.1425  1.1052
53817SOL    HW266263   6.285  12.130  10.975  0.8389  0.1924  0.2050
53818SOL     OW66264   2.573  10.622   8.160  0.5401  0.1382  0.0760
53818SOL    HW166265   2.524  10.630   8.242 -1.4825  0.2094 -1.0522
53818SOL    HW266266   2.565  10.708   8.119  0.5575 -0.2098 -0.6855
53819SOL     OW66267   8.171   5.349   2.638 -0.4523 -0.1141 -0.2961
53819SOL    HW166268   8.206   5.373   2.552 -0.4785 -1.0108 -0.5652
53819SOL    HW266269   8.082   5.318   2.620 -0.8726  0.7509  0.2039
53820SOL     OW66270   0.049   2.928   2.556  0.1184 -0.5275 -0.6044
53820SOL    HW166271   0.104   2.896   2.627 -1.5002  0.7077  1.3010
53820SOL    HW266272  -0.033   2.880   2.566 -0.8544  1.1506 -0.3214
53821SOL     OW66273   7.233  12.518  12.358 -0.0733  0.1022 -0.0399
53821SOL    HW166274   7.139  12.536  12.363 -0.2825 -0.9941  0.4676
53821SOL    HW266275   7.264  12.524  12.448  0.2925  0.2319 -0.1721
53822SOL     OW66276   9.697  10.767   1.766  0.1862  0.5448 -0.1018
53822SOL    HW166277   9.720  10.774   1.673 -0.7989  0.0215 -0.4033
53822SOL    HW266278   9.611  10.809   1.772  0.2022  0.4911  0.5642
53823SOL     OW66279   7.457  10.319  12.366 -0.0226 -0.1386 -0.2063
53823SOL    HW166280   7.525  10.354  12.308 -0.6069  0.5169 -0.5178
53823SOL    HW266281   7.457  10.225  12.350 -0.0199  0.0100 -1.1068
53824SOL     OW66282   7.329   6.830   4.595 -0.1724 -0.0833  0.3433
53824SOL    HW166283   7.363   6.895   4.657  1.5316  0.4965 -1.1253
53824SOL    HW266284   7.354   6.746   4.632  0.9295  0.2617  0.4082
53825SOL     OW66285   7.767   7.966   7.539 -0.0525 -0.5103 -0.4049
53825SOL    HW166286   7.683   7.994   7.576  2.2236  2.8251  2.9723
53825SOL    HW266287   7.794   7.892   7.593  0.3026  0.1459  0.3454
53826SOL     OW66288   5.584   4.300   0.579 -0.5636  0.1247 -0.1069
53826SOL    HW166289   5.599   4.311   0.485 -0.1421  0.6835  0.0206
53826SOL    HW266290   5.526   4.224   0.585 -0.0898 -0.3033 -0.7784
53827SOL     OW66291   9.857   9.657   5.981 -0.2215 -0.3547  0.4632
53827SOL    HW166292   9.862   9.733   6.039  0.5983  1.1482 -1.5027
53827SOL    HW266293   9.858   9.693   5.893 -2.1161 -2.5366 -0.5479
53828SOL     OW66294   4.864   2.901   7.981 -0.3448 -0.1255  0.2223
53828SOL    HW166295   4.770   2.918   7.970 -0.2600  0.1963 -0.0185
53828SOL    HW266296   4.901   2.987   8.001 -0.1450 -0.3052  0.6325
53829SOL     OW66297   6.641  11.021   6.316  0.8312 -0.4891 -0.2764
53829SOL    HW166298   6.581  10.997   6.246 -0.4433 -1.8335  1.1967
53829SOL    HW266299   6.604  11.101   6.353 -0.0323 -1.2514  0.5541
53830SOL     OW66300   2.520   7.816   4.698 -0.7093  0.1174 -0.3780
53830SOL    HW166301   2.522   7.794   4.791 -1.5800 -1.1973 -0.6363
53830SOL    HW266302   2.461   7.751   4.659  2.5359 -1.9351 -2.4869
53831SOL     OW66303   8.351   1.478  12.324 -0.0632 -0.0974 -0.2980
53831SOL    HW166304   8.326   1.405  12.267 -3.4824  1.9184 -1.6530
53831SOL    HW266305   8.326   1.449  12.412 -2.1024 -0.3490 -0.9138
53832SOL     OW66306   7.230   3.314   0.587  0.2482 -0.0838  0.3038
53832SOL    HW166307   7.165   3.354   0.530 -0.8951 -2.2677 -0.0637
53832SOL    HW266308   7.205   3.340   0.675  0.8191  1.6646 -0.0192
53833SOL     OW66309  10.590   3.917   7.429  0.1865  0.5690 -0.2567
53833SOL    HW166310  10.669   3.942   7.477 -0.6478  2.1460  0.3804
53833SOL    HW266311  10.619   3.903   7.339  1.6282 -1.5673  0.4535
53834SOL     OW66312  11.610   6.311  10.981 -0.1275 -0.0383  0.1367
53834SOL    HW166313  11.639   6.399  11.004 -0.6231 -0.1460  1.2514
53834SOL    HW266314  11.691   6.261  10.974  0.1132 -0.5081  3.9283
53835SOL     OW66315   6.573   8.575   1.393 -0.8774  0.3013 -0.1830
53835SOL    HW166316   6.592   8.537   1.307 -2.4051 -0.1909 -0.3186
53835SOL    HW266317   6.610   8.663   1.388 -2.7345  1.0500 -2.1173
53836SOL     OW66318   1.840   8.906   6.032 -0.1059 -0.1142 -0.3341
53836SOL    HW166319   1.851   8.829   6.088 -0.0172 -1.6760 -2.3905
53836SOL    HW266320   1.747   8.908   6.011 -0.0001 -0.0563 -0.8106
53837SOL     OW66321   9.594   3.183   5.015 -0.2388 -0.0347  0.6102
53837SOL    HW166322   9.642   3.109   4.977  0.2906  1.6437 -2.2659
53837SOL    HW266323   9.646   3.208   5.091  1.1493 -0.8737 -0.0249
53838SOL     OW66324   4.535   0.560   4.206 -0.0233 -0.3774 -0.3479
53838SOL    HW166325   4.449   0.525   4.183  0.2013 -0.8675 -0.4601
53838SOL    HW266326   4.531   0.575   4.300  0.1724 -1.5984 -0.1227
53839SOL     OW66327   4.851   6.201   2.956 -0.6395 -0.0338 -0.1866
53839SOL    HW166328   4.871   6.266   3.023 -0.9310  1.2260 -1.2713
53839SOL    HW266329   4.934   6.188   2.910 -0.4462 -0.8727  0.3805
53840SOL     OW66330   5.524  10.069   0.126 -0.6173  0.5273 -0.0194
53840SOL    HW166331   5.448  10.014   0.145 -0.6581 -0.1699 -1.9253
53840SOL    HW266332   5.490  10.138   0.068 -0.0296  0.9084  0.0789
53841SOL     OW66333   4.883  10.717  10.974 -0.2977 -0.1478 -0.1215
53841SOL    HW166334   4.796  10.687  11.000 -1.3955 -0.1774 -3.3322
53841SOL    HW266335   4.922  10.642  10.929  0.3073  0.6333 -0.9518
53842SOL     OW66336   2.002  11.068   0.307  0.4353 -0.2270 -0.1983
53842SOL    HW166337   1.963  11.061   0.220  1.6114 -0.1260 -0.7548
53842SOL    HW266338   1.977  10.987   0.351  0.8707 -0.8611 -1.0857
53843SOL     OW66339  10.922   9.135   2.924  0.0575  0.2611 -0.5078
53843SOL    HW166340  10.933   9.190   2.847  1.1171 -0.5700 -0.9696
53843SOL    HW266341  10.876   9.058   2.891  2.0802 -0.9178 -0.7305
53844SOL     OW66342   4.215   1.384   9.611 -0.1155 -0.0546 -0.6891
53844SOL    HW166343   4.211   1.290   9.628  1.0263  0.0208  0.1367
53844SOL    HW266344   4.162   1.424   9.680 -0.1341 -0.0676 -0.6959
53845SOL     OW66345   4.423   4.171   3.136  0.3970  0.2584  0.0173
53845SOL    HW166346   4.415   4.095   3.078 -0.0709  1.0474 -1.0016
53845SOL    HW266347   4.381   4.144   3.217  1.4639 -1.0399  0.1725
53846SOL     OW66348  10.037   5.305   3.772  0.2720 -0.0338  0.1900
53846SOL    HW166349   9.951   5.266   3.756  0.0828 -0.2091  1.4870
53846SOL    HW266350  10.061   5.274   3.860  1.4550  0.3850  0.0335
53847SOL     OW66351   8.673  11.744   4.733  0.4348 -0.3400  0.5128
53847SOL    HW166352   8.673  11.649   4.749  1.8557 -0.2067  1.4873
53847SOL    HW266353   8.583  11.763   4.704  0.7650 -2.3383 -2.1849
53848SOL     OW66354   0.812   6.780  12.360 -0.5812 -0.0112 -0.0025
53848SOL    HW166355   0.852   6.834  12.428 -1.3755  1.0046 -0.3259
53848SOL    HW266356   0.736   6.740  12.402  0.5900 -1.7803  0.5511
53849SOL     OW66357   6.534  12.054   8.061 -0.1374  0.7703  0.0823
53849SOL    HW166358   6.535  12.090   8.150  0.7633 -3.0016  1.7982
53849SOL    HW266359   6.445  12.018   8.051  0.6542 -1.5975  0.8494
53850SOL     OW66360   2.860   0.067   1.868  0.2811 -0.0251 -0.2592
53850SOL    HW166361   2.887   0.035   1.781  0.1522 -0.6859 -0.0661
53850SOL    HW266362   2.829  -0.012   1.913 -2.3529  0.7228 -0.5915
53851SOL     OW66363   2.528  11.393   1.484  0.6496  0.7722 -0.4277
53851SOL    HW166364   2.537  11.312   1.434 -0.8782 -0.5271  1.2425
53851SOL    HW266365   2.442  11.385   1.525  0.8870  2.8155  0.5650
53852SOL     OW66366   7.029   9.638   4.981 -0.3192 -0.6159 -0.1700
53852SOL    HW166367   6.993   9.686   5.056 -0.4731  1.0326 -1.2376
53852SOL    HW266368   7.007   9.547   4.998 -2.0014 -0.0599  0.8962
53853SOL     OW66369   6.578   4.809   6.512  0.2162 -0.9918  0.1405
53853SOL    HW166370   6.581   4.769   6.424  2.2643  0.4075 -0.4829
53853SOL    HW266371   6.503   4.868   6.508  0.8571 -0.2064 -1.0455
53854SOL     OW66372   9.037   7.684   5.136 -0.0125 -0.1909  0.0202
53854SOL    HW166373   9.084   7.605   5.162 -1.3022 -0.1119  3.0072
53854SOL    HW266374   9.105   7.750   5.126  0.8269 -0.9141  0.7472
53855SOL     OW66375  11.325   0.598   3.425 -0.1506  0.4306 -0.3452
53855SOL    HW166376  11.331   0.593   3.521 -0.3177  2.0252 -0.2258
53855SOL    HW266377  11.232   0.593   3.406 -0.0832 -0.4715 -0.4831
53856SOL     OW66378   5.026   2.613   5.106 -0.4296  0.0340 -0.1465
53856SOL    HW166379   4.998   2.687   5.160 -1.3542 -0.6803  0.3892
53856SOL    HW266380   5.116   2.595   5.135 -0.4062  0.5675  0.1336
53857SOL     OW66381   9.876   3.665  11.530  0.2642  0.0937  0.3646
53857SOL    HW166382   9.808   3.659  11.597 -0.6338  1.6560 -0.3503
53857SOL    HW266383   9.880   3.758  11.509  2.0576 -0.0894 -0.2185
53858SOL     OW66384  12.231   4.437   6.258  0.1123 -0.3646 -0.4223
53858SOL    HW166385  12.152   4.484   6.287 -0.2007 -1.8799  1.3435
53858SOL    HW266386  12.210   4.410   6.168 -1.1232 -0.1907 -0.2119
53859SOL     OW66387   4.606   5.643   6.711 -0.1295 -0.0529 -0.4889
53859SOL    HW166388   4.637   5.725   6.747  1.8303  0.0332 -2.1381
53859SOL    HW266389   4.616   5.653   6.616 -2.4971 -1.2081 -0.9517
53860SOL     OW66390  12.108  10.075   9.216  0.0667  0.2471 -0.4649
53860SOL    HW166391  12.105   9.987   9.180  2.2825 -0.0962  0.0053
53860SOL    HW266392  12.168  10.122   9.157  1.5328  0.4611  1.1159
53861SOL     OW66393   5.335   1.201   2.491  0.3015  0.2130  0.7015
53861SOL    HW166394   5.420   1.166   2.464 -0.0248 -0.4184  0.4785
53861SOL    HW266395   5.348   1.296   2.495  0.5760  0.2607 -0.9230
53862SOL     OW66396   2.900  11.121   3.373 -0.5320 -0.1003  0.2601
53862SOL    HW166397   2.927  11.036   3.408 -1.7449 -0.4020  0.5265
53862SOL    HW266398   2.811  11.106   3.340 -1.3720  1.4041  1.6779
53863SOL     OW66399   7.201   3.918   3.103 -0.4807 -0.0905  0.0228
53863SOL    HW166400   7.223   3.956   3.188 -1.5409  2.0011 -0.5780
53863SOL    HW266401   7.114   3.953   3.082  0.2564  0.4608 -2.4737
53864SOL     OW66402  10.315   6.348   8.647 -0.0700 -0.0981  0.0053
53864SOL    HW166403  10.400   6.390   8.631 -1.0746  2.5840  1.0288
53864SOL    HW266404  10.326   6.302   8.729  0.3753  0.3866  0.2266
53865SOL     OW66405   0.752   4.050  11.870  0.2429 -0.5677 -0.0540
53865SOL    HW166406   0.784   3.971  11.913  0.5589 -1.2121 -1.4422
53865SOL    HW266407   0.817   4.069  11.803  0.2134  0.9350  0.3024
53866SOL     OW66408   4.205   6.025   3.976 -0.4917  0.6452 -0.3279
53866SOL    HW166409   4.198   5.934   3.945  0.4014  0.3499  0.2703
53866SOL    HW266410   4.298   6.036   3.995 -0.7886  1.2807  0.8301
53867SOL     OW66411   0.885  12.062   6.649  0.3541  0.7290 -0.3334
53867SOL    HW166412   0.955  12.040   6.710 -0.2870 -2.1770 -0.4801
53867SOL    HW266413   0.816  12.102   6.703  0.8455  0.6447  0.3590
53868SOL     OW66414  12.166  12.596   0.865  0.3007  0.0726  0.0809
53868SOL    HW166415  12.205  12.647   0.936  1.3788 -1.5293  0.6914
53868SOL    HW266416  12.240  12.569   0.811 -0.1987 -1.0649 -0.0621
53869SOL     OW66417   0.428   4.112   0.591 -0.2102 -0.5212  0.5523
53869SOL    HW166418   0.422   4.100   0.496 -1.2191 -0.5176  0.6031
53869SOL    HW266419   0.355   4.062   0.626 -0.5035  0.3645  1.2516
53870SOL     OW66420   1.575   0.564   8.011  0.2256  0.3376 -0.2271
53870SOL    HW166421   1.665   0.550   8.042  0.3012 -0.1082 -0.6277
53870SOL    HW266422   1.582   0.634   7.947  0.2447  0.4900 -0.0589
53871SOL     OW66423   3.713   2.434   7.995 -0.6799 -0.8079  0.3241
53871SOL    HW166424   3.794   2.398   8.031 -0.4208 -1.1885 -0.6055
53871SOL    HW266425   3.644   2.390   8.045 -0.3726 -2.6512 -0.7608
53872SOL     OW66426   0.745   3.344   5.571 -0.0911  0.3012 -0.2401
53872SOL    HW166427   0.690   3.418   5.545  0.2597  1.4133  2.0014
53872SOL    HW266428   0.683   3.277   5.599 -0.3681  0.3378 -0.7493
53873SOL     OW66429   7.285  10.442   2.279  0.2516 -0.3841  0.3856
53873SOL    HW166430   7.323  10.511   2.224 -1.1669  0.5325  0.4861
53873SOL    HW266431   7.194  10.435   2.249  0.2044 -1.8157  0.7888
53874SOL     OW66432   4.296   8.390  10.381  0.1549  0.1259  0.2730
53874SOL    HW166433   4.296   8.446  10.304  1.3638 -0.5796 -0.2833
53874SOL    HW266434   4.345   8.439  10.447 -0.1930  0.3932  0.3363
53875SOL     OW66435   1.492   4.407   6.351 -0.4864  0.3437  0.2119
53875SOL    HW166436   1.439   4.475   6.392  0.5233  2.1445 -1.2731
53875SOL    HW266437   1.446   4.325   6.370 -3.0783  1.6671  0.0856
53876SOL     OW66438   3.424   7.575  10.866 -0.3528 -0.2790  0.6051
53876SOL    HW166439   3.339   7.605  10.835 -0.1399 -1.1608 -0.9516
53876SOL    HW266440   3.405   7.501  10.923 -0.5958 -1.9230 -1.4960
53877SOL     OW66441   2.064   8.262   8.489 -0.0800  0.5711  0.0415
53877SOL    HW166442   2.013   8.272   8.570  0.2988  1.2694  0.2020
53877SOL    HW266443   2.143   8.215   8.516 -0.2000  0.3297 -0.0265
53878SOL     OW66444  10.046   2.200  11.302 -0.0078  0.1977  0.1562
53878SOL    HW166445   9.964   2.157  11.324  0.5291 -1.2671 -0.5168
53878SOL    HW266446  10.085   2.223  11.386 -1.2944  1.3429  0.4714
53879SOL     OW66447   3.314   2.224   2.126  0.0194 -0.0327 -0.4312
53879SOL    HW166448   3.398   2.228   2.170 -0.2253 -1.1182  0.1755
53879SOL    HW266449   3.321   2.286   2.054  1.9086 -1.2736 -1.3839
53880SOL     OW66450   6.846   8.039   4.197 -0.3108 -0.1861 -0.1507
53880SOL    HW166451   6.861   8.092   4.276 -0.0393 -1.3884  0.6363
53880SOL    HW266452   6.752   8.025   4.196 -1.1467  4.0884 -2.9287
53881SOL     OW66453   7.365   7.870  12.217  0.5919 -0.5381  0.8288
53881SOL    HW166454   7.321   7.786  12.227  1.5370 -1.1465  0.0184
53881SOL    HW266455   7.404   7.887  12.303 -0.7072 -0.2555  1.3943
53882SOL     OW66456  10.318   4.017   8.251  0.4469 -0.5928  0.7045
53882SOL    HW166457  10.233   4.014   8.295  0.8068  1.3598  1.6781
53882SOL    HW266458  10.341   4.110   8.251  2.8458 -1.1118  0.9938
53883SOL     OW66459   9.612  12.277   7.552  0.4077  0.0511  0.0887
53883SOL    HW166460   9.641  12.295   7.463  1.0368  1.2855  0.5177
53883SOL    HW266461   9.588  12.363   7.587 -1.7590 -0.6545  0.4704
53884SOL     OW66462   8.296   3.656   9.870  0.0714  0.3277  0.0659
53884SOL    HW166463   8.262   3.738   9.834  0.3739 -0.4956 -2.3284
53884SOL    HW266464   8.371   3.635   9.813 -0.1749 -1.7388  0.4289
53885SOL     OW66465   9.997   3.666   1.110 -0.1292  0.5399  0.6998
53885SOL    HW166466  10.084   3.672   1.071 -0.3381  1.0100  0.3070
53885SOL    HW266467   9.955   3.749   1.090 -1.7338 -0.7321 -1.6666
53886SOL     OW66468  12.118   8.424   0.922  0.2556  0.2160 -0.1015
53886SOL    HW166469  12.081   8.501   0.966  1.2197  0.8308 -0.3474
53886SOL    HW266470  12.115   8.355   0.989  0.0877  0.6731  0.3717
53887SOL     OW66471   5.422   2.424   3.157  0.0177 -0.1164 -1.0854
53887SOL    HW166472   5.511   2.430   3.192 -0.0689 -2.0276 -0.3889
53887SOL    HW266473   5.373   2.491   3.205  0.2667 -1.5907  1.4110
53888SOL     OW66474  12.613   5.664   6.367  0.4392  0.3205  0.2342
53888SOL    HW166475  12.657   5.740   6.330 -1.0452 -0.2907 -3.2062
53888SOL    HW266476  12.523   5.693   6.380 -0.2189 -0.8475 -1.4086
53889SOL     OW66477   6.189   7.028   4.571  0.1884  0.5541 -0.5354
53889SOL    HW166478   6.161   7.078   4.494 -0.2224  1.3126  0.0918
53889SOL    HW266479   6.184   7.091   4.643 -0.6911 -0.4877  0.3398
53890SOL     OW66480   2.856   0.065   9.646 -0.1190 -0.1865 -0.0388
53890SOL    HW166481   2.811   0.065   9.562  0.3277  1.2907 -0.3097
53890SOL    HW266482   2.864  -0.027   9.670 -1.1165 -0.5702 -1.1415
53891SOL     OW66483   4.634   1.386   1.633 -0.4337  0.7454 -0.2194
53891SOL    HW166484   4.585   1.460   1.596 -0.2265  0.9497 -0.0845
53891SOL    HW266485   4.690   1.425   1.700 -0.2951  0.4709 -0.1739
53892SOL     OW66486   6.330   4.954   7.634  0.6346 -0.0298  0.5311
53892SOL    HW166487   6.344   5.033   7.582  0.8366  0.4030  1.2343
53892SOL    HW266488   6.284   4.984   7.712  0.3199 -0.6776  0.5995
53893SOL     OW66489   6.299   5.060   1.680  0.0412  0.3252 -0.1792
53893SOL    HW166490   6.234   4.997   1.711 -0.5497  1.6901  1.4824
53893SOL    HW266491   6.271   5.081   1.591 -0.0034 -1.3713 -0.6007
53894SOL     OW66492  11.888   0.315   1.605  0.2812  0.0022 -0.1291
53894SOL    HW166493  11.896   0.335   1.698  0.4662  1.4816 -0.4508
53894SOL    HW266494  11.819   0.248   1.601 -1.7298  1.9140  0.8421
53895SOL     OW66495   6.436   0.924   8.136 -0.3525  0.0207  0.3170
53895SOL    HW166496   6.379   0.861   8.092 -1.5684  1.0460  0.3629
53895SOL    HW266497   6.468   0.878   8.213  0.1690 -1.1099 -0.5439
53896SOL     OW66498  10.063   6.157  11.288  0.3401  0.1364 -0.1881
53896SOL    HW166499  10.124   6.085  11.277 -0.3751 -0.5371  0.1763
53896SOL    HW266500  10.093   6.203  11.366  0.3330 -0.2440  0.0405
53897SOL     OW66501   3.872   5.731   4.860  0.1988  0.2010 -0.0115
53897SOL    HW166502   3.902   5.815   4.824 -1.9201  0.6134 -0.9951
53897SOL    HW266503   3.922   5.665   4.811 -0.8873  0.8322 -2.0798
53898SOL     OW66504   3.234   0.200   9.300 -0.8896 -0.1968 -0.0886
53898SOL    HW166505   3.253   0.140   9.373  0.0999 -0.6123 -0.6753
53898SOL    HW266506   3.183   0.270   9.341 -0.0624 -0.2412  1.0888
53899SOL     OW66507   7.678   1.528   4.088 -0.4012 -0.6324 -0.0606
53899SOL    HW166508   7.625   1.480   4.151 -0.8085  1.4344  1.2552
53899SOL    HW266509   7.675   1.619   4.118  2.4408 -0.1545 -0.9643
53900SOL     OW66510   9.123   9.137   4.306 -0.7898 -0.0573 -0.2290
53900SOL    HW166511   9.120   9.154   4.212 -0.6800 -1.2900 -0.4627
53900SOL    HW266512   9.202   9.085   4.319 -0.9430 -0.1185  0.5111
53901SOL     OW66513   4.661   5.379   5.339  0.0559 -0.1359 -0.3037
53901SOL    HW166514   4.647   5.327   5.418  0.4100 -1.6768 -1.2141
53901SOL    HW266515   4.743   5.425   5.354 -0.9116  1.2742  1.0556
53902SOL     OW66516   8.561   4.574   8.156  0.6772 -0.3175  0.1669
53902SOL    HW166517   8.502   4.502   8.180  1.5357 -0.8931  0.5837
53902SOL    HW266518   8.516   4.619   8.084 -0.5168 -0.4190  0.8243
53903SOL     OW66519  11.679   6.451   7.226  0.0374  0.0384  0.4192
53903SOL    HW166520  11.650   6.361   7.239  0.6321 -0.1962  0.1683
53903SOL    HW266521  11.736   6.468   7.301 -1.1244  0.6722  1.1919
53904SOL     OW66522   8.160  10.373   2.935  0.3993  0.2111 -0.2666
53904SOL    HW166523   8.203  10.289   2.948  1.3847  0.9201  1.2712
53904SOL    HW266524   8.088  10.374   2.998  0.8899  0.8410  0.2912
53905SOL     OW66525  11.158  11.455   6.383  0.1904  0.5412  0.5343
53905SOL    HW166526  11.233  11.500   6.346  0.0148  0.9015  0.6077
53905SOL    HW266527  11.082  11.502   6.349 -0.1436 -1.4936 -1.7692
53906SOL     OW66528  10.185   4.674   5.707  0.8712 -0.3381  0.0708
53906SOL    HW166529  10.257   4.714   5.756  0.3705  1.6608 -0.7519
53906SOL    HW266530  10.110   4.731   5.724  0.4926 -0.0291 -2.3781
53907SOL     OW66531   2.918   2.241   3.102  0.1880 -0.2241  0.2080
53907SOL    HW166532   2.954   2.315   3.150  0.5646  0.5933 -1.2674
53907SOL    HW266533   2.992   2.205   3.053 -0.0810 -1.3315  0.5884
53908SOL     OW66534   6.627   2.110   7.089 -0.2178 -0.4454  0.0090
53908SOL    HW166535   6.634   2.169   7.013  0.3444  0.2905  0.6224
53908SOL    HW266536   6.566   2.042   7.060  0.5338 -0.5797 -1.3554
53909SOL     OW66537   8.080   9.562   0.917 -0.0070 -0.1281 -0.0738
53909SOL    HW166538   8.174   9.573   0.927  0.2358 -0.7169 -1.5120
53909SOL    HW266539   8.071   9.489   0.856 -1.3161  2.5485 -3.3673
53910SOL     OW66540  11.797   8.890   0.842  0.1556  0.2366 -0.5024
53910SOL    HW166541  11.815   8.820   0.780  0.2605  0.9369 -1.2859
53910SOL    HW266542  11.870   8.888   0.904  0.6720  0.2885 -1.1066
53911SOL     OW66543   1.450   0.379   6.038 -0.0271 -0.4509  0.1196
53911SOL    HW166544   1.543   0.366   6.017  0.6567  1.8079  1.4830
53911SOL    HW266545   1.446   0.375   6.133 -0.9339  1.6205  0.2114
53912SOL     OW66546  10.090   3.669  11.849  0.3516  0.1159 -0.2501
53912SOL    HW166547  10.000   3.649  11.821 -0.1534  1.7465  0.1224
53912SOL    HW266548  10.144   3.642  11.775 -0.5004 -0.3421 -0.7288
53913SOL     OW66549  10.493   9.162   7.727  0.2061  0.3022  0.4724
53913SOL    HW166550  10.399   9.158   7.746  0.1127  3.4603  1.2659
53913SOL    HW266551  10.534   9.179   7.812  1.3376  0.3541 -0.0600
53914SOL     OW66552   7.339   4.206   0.701 -0.6442  0.2098 -0.1278
53914SOL    HW166553   7.311   4.254   0.623  0.2279 -0.1877 -0.7024
53914SOL    HW266554   7.297   4.120   0.693  0.3589 -0.2423 -0.7803
53915SOL     OW66555   2.440   7.983   4.297  0.6758 -0.2104  0.0335
53915SOL    HW166556   2.468   8.008   4.385  0.5401 -2.1754  0.6693
53915SOL    HW266557   2.509   8.015   4.239  0.3403  1.8976  0.7002
53916SOL     OW66558   0.312   4.867   0.145  0.0468  0.1378 -0.3934
53916SOL    HW166559   0.239   4.909   0.099 -0.3564  0.5788  0.6244
53916SOL    HW266560   0.387   4.879   0.087 -0.7345 -0.6464 -1.6429
53917SOL     OW66561   5.038   3.212   6.284  0.0461  0.0303  0.4952
53917SOL    HW166562   5.086   3.254   6.212  1.1337  1.5405  2.0158
53917SOL    HW266563   4.953   3.191   6.247  0.8597  0.0055 -1.4639
53918SOL     OW66564   2.236   6.609  12.264  0.1189  0.2395  0.1585
53918SOL    HW166565   2.274   6.650  12.186 -0.0572 -1.4432 -0.8494
53918SOL    HW266566   2.301   6.622  12.333  1.5121 -0.6090 -0.9681
53919SOL     OW66567  10.990  11.647   2.505 -0.1623 -0.0789  0.4865
53919SOL    HW166568  11.001  11.570   2.448 -1.2030  0.2428 -0.1758
53919SOL    HW266569  10.895  11.658   2.512 -0.0398  0.4681  1.5247
53920SOL     OW66570   4.812   4.263  10.219 -0.0682 -0.3182 -0.0245
53920SOL    HW166571   4.779   4.334  10.164  1.3251 -0.4169 -1.0248
53920SOL    HW266572   4.858   4.205  10.159 -0.3607 -1.5800  0.9269
53921SOL     OW66573   8.662   8.549   2.705 -0.3736  0.0057 -0.0264
53921SOL    HW166574   8.660   8.622   2.767  0.4894 -0.8433  1.0471
53921SOL    HW266575   8.585   8.562   2.650 -1.3212  0.6668  1.3806
53922SOL     OW66576   1.752   2.376  10.425 -0.0255 -0.0858 -0.3680
53922SOL    HW166577   1.693   2.406  10.494  0.3415  1.6776 -0.7684
53922SOL    HW266578   1.717   2.416  10.345  2.0236  1.5572 -0.5232
53923SOL     OW66579   9.257   9.860   6.988 -0.6880  0.0894  0.5821
53923SOL    HW166580   9.246   9.929   7.053 -0.7103  0.3526  0.3026
53923SOL    HW266581   9.351   9.860   6.970 -0.9444  1.5871 -1.0591
53924SOL     OW66582   9.469   8.278   7.752  0.0841  0.0861 -0.4697
53924SOL    HW166583   9.407   8.206   7.753 -1.0904  0.9642 -3.0041
53924SOL    HW266584   9.422   8.351   7.793  0.7671 -0.1516  0.8017
53925SOL     OW66585  11.433   5.099   0.486 -0.3364 -0.1822 -0.2880
53925SOL    HW166586  11.423   5.167   0.554 -0.4516 -0.2750 -0.2127
53925SOL    HW266587  11.489   5.033   0.526  0.3388  0.1901 -0.6010
53926SOL     OW66588   3.939   4.805   7.927 -0.8527  0.3971  0.4372
53926SOL    HW166589   3.980   4.875   7.875 -0.8194  0.3748  0.4336
53926SOL    HW266590   4.001   4.791   7.999 -1.5733  1.4371  1.2912
53927SOL     OW66591   3.695   8.870   5.579  0.5671  0.1544 -0.2166
53927SOL    HW166592   3.653   8.954   5.558 -0.3468 -0.4329 -0.7857
53927SOL    HW266593   3.729   8.883   5.668 -0.9265  0.6258  0.3251
53928SOL     OW66594   5.628   3.910   7.981  0.1018 -0.3640 -0.0867
53928SOL    HW166595   5.646   3.817   7.967  2.4282 -0.0265  0.1803
53928SOL    HW266596   5.611   3.945   7.894 -0.0175 -0.8889 -0.2787
53929SOL     OW66597   4.564   2.106   8.158  0.4859  0.0057 -0.1768
53929SOL    HW166598   4.544   2.013   8.172  0.4050  0.2257  1.3193
53929SOL    HW266599   4.625   2.106   8.084 -0.8412 -1.0932 -1.3427
53930SOL     OW66600   8.242   8.365   1.798 -0.0248  0.0218 -0.7058
53930SOL    HW166601   8.155   8.328   1.783 -0.7119  0.7951  1.0520
53930SOL    HW266602   8.298   8.290   1.817 -1.3214 -0.3056  2.4888
53931SOL     OW66603   3.581   6.337   0.812 -0.2818  0.0909  0.4191
53931SOL    HW166604   3.567   6.390   0.734 -1.6720  0.3463  0.8116
53931SOL    HW266605   3.582   6.247   0.780  1.7551  0.2801 -0.2040
53932SOL     OW66606   4.117  10.458   4.993  0.1903  0.1660 -0.3220
53932SOL    HW166607   4.044  10.403   5.018  1.0692 -0.5042  0.8738
53932SOL    HW266608   4.091  10.546   5.019 -1.0225  0.2972 -1.8102
53933SOL     OW66609   8.205  12.225   4.809 -0.2755  0.3124  0.2580
53933SOL    HW166610   8.273  12.186   4.753  0.0751  2.6262 -1.0340
53933SOL    HW266611   8.134  12.161   4.808  0.7391 -0.8577 -0.7629
53934SOL     OW66612  10.860   3.373   6.572 -0.7186 -0.6168  0.3947
53934SOL    HW166613  10.860   3.412   6.484 -0.3121 -2.2607 -0.3717
53934SOL    HW266614  10.880   3.281   6.557  1.5807 -0.5374  2.4207
53935SOL     OW66615   0.766  11.146   1.931  0.0581 -0.3882 -0.9124
53935SOL    HW166616   0.818  11.135   2.011  2.0329  0.4594 -2.0092
53935SOL    HW266617   0.693  11.084   1.941  0.5071 -0.6509  1.2980
53936SOL     OW66618   6.540   5.844  11.402 -0.2108  0.2035  0.4595
53936SOL    HW166619   6.549   5.906  11.330 -1.0204 -1.7121 -1.3867
53936SOL    HW266620   6.524   5.760  11.360  0.2476 -1.1901  2.8729
53937SOL     OW66621   0.232  10.303   5.863 -0.7669  0.7292 -0.6477
53937SOL    HW166622   0.224  10.395   5.885  0.9672  0.6643  0.4501
53937SOL    HW266623   0.311  10.298   5.808 -0.2585 -0.1830  0.1132
53938SOL     OW66624   7.292   5.450   0.111  0.0570 -0.4138  0.1767
53938SOL    HW166625   7.265   5.379   0.053  0.9496 -1.0467  0.5102
53938SOL    HW266626   7.213   5.502   0.124 -0.3250 -0.6829 -1.0010
53939SOL     OW66627  11.542  10.574   2.754 -0.1580  0.3820 -0.4699
53939SOL    HW166628  11.590  10.619   2.685  1.0725 -0.1250  0.0412
53939SOL    HW266629  11.523  10.642   2.819  0.9146  0.3650 -0.1197
53940SOL     OW66630  11.689  11.137   5.923  0.1137  0.2676 -0.2498
53940SOL    HW166631  11.670  11.043   5.924  1.2228  0.0267 -0.6578
53940SOL    HW266632  11.603  11.179   5.930 -0.5067 -0.7653 -1.3295
53941SOL     OW66633   8.891   5.918   1.497 -0.1447 -0.4180 -0.5930
53941SOL    HW166634   8.868   5.910   1.590  0.2162  0.0841 -0.4556
53941SOL    HW266635   8.882   6.011   1.478  1.6712 -0.1930 -0.5468
53942SOL     OW66636   7.831   6.562   3.306 -0.1344  0.3682  0.3948
53942SOL    HW166637   7.925   6.554   3.323  0.0731  0.7306 -0.5258
53942SOL    HW266638   7.819   6.653   3.279 -0.2898 -0.3193 -2.0966
53943SOL     OW66639  10.890   1.608   3.977  0.1693 -0.1985  0.3129
53943SOL    HW166640  10.873   1.571   4.064  0.2380  0.5893  0.6630
53943SOL    HW266641  10.961   1.670   3.991  0.2804 -0.1798 -0.3353
53944SOL     OW66642   0.701   4.972   9.063 -0.4392 -0.0222  0.1545
53944SOL    HW166643   0.724   4.947   8.973 -1.4364  0.2768 -0.1901
53944SOL    HW266644   0.775   5.026   9.092  0.8938 -1.7943  0.2710
53945SOL     OW66645  11.320   5.943  10.745 -0.4070  0.6460 -0.0080
53945SOL    HW166646  11.351   6.030  10.773 -0.7730  0.4147  1.1597
53945SOL    HW266647  11.262   5.914  10.816 -0.2503 -0.5746 -0.3554
53946SOL     OW66648   5.900   6.402   8.267 -0.0868 -0.1757 -0.5153
53946SOL    HW166649   5.883   6.476   8.209  1.1622  1.2990  0.8802
53946SOL    HW266650   5.974   6.356   8.227  0.2294  0.3504 -0.5574
53947SOL     OW66651   5.702   0.669   5.469  0.0684  0.6090  0.1077
53947SOL    HW166652   5.689   0.653   5.562  0.1330  0.0723  0.0283
53947SOL    HW266653   5.794   0.693   5.461 -0.5090  3.2426  0.5146
53948SOL     OW66654  10.546   9.507   9.021  0.6673 -0.0948 -0.2647
53948SOL    HW166655  10.492   9.584   9.003  2.0182  0.5232 -1.9111
53948SOL    HW266656  10.635   9.536   9.004  1.3011 -1.7920 -0.0345
53949SOL     OW66657   4.460  12.389  10.230  0.6264  0.0968  0.6440
53949SOL    HW166658   4.430  12.306  10.193  0.9828  0.8042 -1.3745
53949SOL    HW266659   4.387  12.419  10.283 -0.0030 -0.9164  0.3871
53950SOL     OW66660  11.888   0.499   6.265 -0.3256 -0.3913  0.1637
53950SOL    HW166661  11.862   0.522   6.176 -0.0465  0.4848  0.2978
53950SOL    HW266662  11.982   0.481   6.259 -0.6859 -2.3602 -0.0924
53951SOL     OW66663   0.817  11.379   4.482 -0.2317 -0.0264 -0.3019
53951SOL    HW166664   0.798  11.394   4.575  0.9834 -0.3070  0.0089
53951SOL    HW266665   0.857  11.461   4.452 -0.5963  0.0533 -0.5718
53952SOL     OW66666   2.939   8.750   5.974  0.2202  0.2902  0.0564
53952SOL    HW166667   2.869   8.812   5.953  0.5608  0.9682  0.8667
53952SOL    HW266668   2.979   8.785   6.054  0.8682 -0.6040  0.1372
53953SOL     OW66669   6.240   4.980  10.702  0.4401 -0.4162 -0.8031
53953SOL    HW166670   6.258   5.072  10.683 -0.4101 -0.1909 -0.5898
53953SOL    HW266671   6.193   4.982  10.785  0.6374 -1.0659 -0.6720
53954SOL     OW66672   9.518   9.468  10.872 -0.0738 -0.2986 -0.2301
53954SOL    HW166673   9.463   9.527  10.821 -2.1929 -1.5587  0.4661
53954SOL    HW266674   9.591   9.446  10.813 -0.8625  0.5873 -1.5970
53955SOL     OW66675   4.750   9.144   3.051  0.5164 -0.6600  0.3352
53955SOL    HW166676   4.782   9.070   2.999 -0.7271 -0.1991 -1.1688
53955SOL    HW266677   4.747   9.217   2.989  1.4331  0.5980  1.7219
53956SOL     OW66678   4.276   5.550   5.059 -0.0690 -0.1055  0.2299
53956SOL    HW166679   4.254   5.640   5.033 -0.0605  0.5404  2.2554
53956SOL    HW266680   4.191   5.511   5.081  0.0779 -0.0521  0.9068
53957SOL     OW66681  11.924   9.314   0.732 -0.1554  0.8438 -0.1880
53957SOL    HW166682  11.931   9.275   0.644  2.7414  1.4658 -0.3317
53957SOL    HW266683  11.959   9.246   0.790  0.4606  1.4429  0.1435
53958SOL     OW66684   9.282   9.161   1.201  0.0777  0.3283  0.0051
53958SOL    HW166685   9.322   9.096   1.144 -0.2973  0.6814 -0.6610
53958SOL    HW266686   9.349   9.229   1.210 -0.4744  1.0892 -1.3963
53959SOL     OW66687   2.493   3.558   1.743  0.4327  0.2724 -0.0034
53959SOL    HW166688   2.407   3.589   1.714  0.1307 -1.5382 -1.2064
53959SOL    HW266689   2.484   3.548   1.837 -1.0755 -0.9327 -0.2346
53960SOL     OW66690   8.373  10.153   7.976 -0.0315 -0.5139 -0.1517
53960SOL    HW166691   8.426  10.098   7.919  0.1319 -2.1456  1.5079
53960SOL    HW266692   8.324  10.092   8.031  0.7193  0.9486  2.2942
53961SOL     OW66693   5.672   3.071  10.106 -0.0165  1.2019 -0.3998
53961SOL    HW166694   5.622   3.131  10.162  2.1431  1.0029  1.9377
53961SOL    HW266695   5.698   3.000  10.165 -0.4465 -0.8460 -2.5305
53962SOL     OW66696  11.896   4.787   8.292  0.2092  0.7104  0.1305
53962SOL    HW166697  11.863   4.760   8.206 -0.2270  1.7133 -0.0399
53962SOL    HW266698  11.990   4.767   8.289  0.3060  1.2468 -0.8026
53963SOL     OW66699   2.259   9.282  12.500  1.4030  0.3059  0.5368
53963SOL    HW166700   2.337   9.336  12.487  2.0774 -1.0013 -1.3240
53963SOL    HW266701   2.294   9.193  12.509  0.1643 -0.1947  0.5255
53964SOL     OW66702  11.624  10.445   0.308 -0.1217  0.2496 -0.3317
53964SOL    HW166703  11.549  10.496   0.279 -0.9791 -1.3568 -1.0286
53964SOL    HW266704  11.656  10.401   0.230 -0.6549 -1.8400  0.5648
53965SOL     OW66705   1.164   2.363   2.796 -0.1853 -0.1407  0.0248
53965SOL    HW166706   1.244   2.329   2.756  0.3603  1.7735 -0.6386
53965SOL    HW266707   1.164   2.327   2.884  0.7211 -1.2264 -0.4010
53966SOL     OW66708   2.844   4.229   5.420  0.6878  0.4820  0.2273
53966SOL    HW166709   2.855   4.177   5.340  1.1731 -0.4192  0.8615
53966SOL    HW266710   2.888   4.177   5.488  1.1646  1.7176  0.8815
53967SOL     OW66711  12.243  11.635   3.475 -0.1710 -0.1945  0.1326
53967SOL    HW166712  12.198  11.593   3.402 -0.7292 -1.1092  0.9858
53967SOL    HW266713  12.187  11.709   3.499  0.6509  0.9026 -1.1608
53968SOL     OW66714  10.384  12.372   4.237 -0.0214 -0.4726 -0.1577
53968SOL    HW166715  10.340  12.370   4.151  2.3549  1.3387 -1.5309
53968SOL    HW266716  10.460  12.314   4.226  0.7673  0.4283  0.4177
53969SOL     OW66717   8.702   5.491  10.055  0.0152 -0.3271 -0.3022
53969SOL    HW166718   8.715   5.586  10.059  1.9014 -0.4462 -2.0947
53969SOL    HW266719   8.614   5.481  10.018 -1.3107  0.6312  2.3079
53970SOL     OW66720   6.469  10.706   3.633  0.0837  0.1180 -0.4340
53970SOL    HW166721   6.466  10.800   3.650 -0.1022 -0.2383  1.7373
53970SOL    HW266722   6.378  10.680   3.624  0.0592 -0.0318  0.1831
53971SOL     OW66723   6.442   0.135   0.903 -0.0339  0.0650 -0.6274
53971SOL    HW166724   6.407   0.057   0.860 -0.2951 -0.5486  0.6317
53971SOL    HW266725   6.488   0.101   0.980  1.0300  1.0639 -0.7803
53972SOL     OW66726   5.082   6.773  10.785 -0.3834 -0.6712 -0.0872
53972SOL    HW166727   5.090   6.688  10.829  3.1070  1.1717  3.4130
53972SOL    HW266728   4.992   6.801  10.803 -0.1515 -1.5747  3.0991
53973SOL     OW66729   3.155   7.799   7.721 -0.7838  0.3684 -0.5446
53973SOL    HW166730   3.120   7.714   7.746 -0.1444  0.1589 -0.3326
53973SOL    HW266731   3.246   7.798   7.751 -1.8124  2.7664  3.4221
53974SOL     OW66732   8.716   9.687   6.851  0.7024 -0.0689 -0.4331
53974SOL    HW166733   8.789   9.657   6.796  0.1481  0.1046 -1.2901
53974SOL    HW266734   8.645   9.625   6.831  0.7598 -0.5401  0.7708
53975SOL     OW66735   1.988  12.279   4.453  0.2426  0.4090 -0.4509
53975SOL    HW166736   1.935  12.295   4.375  0.2368  1.4746 -0.2418
53975SOL    HW266737   2.067  12.236   4.420 -1.4608 -2.9604 -0.5851
53976SOL     OW66738   5.878   6.630   2.326  0.6551  0.3096  0.6385
53976SOL    HW166739   5.957   6.683   2.326  0.1468  1.0811  1.2265
53976SOL    HW266740   5.849   6.630   2.235  1.9642 -0.9831  0.1684
53977SOL     OW66741   9.705   9.324   1.436  0.1358 -0.1181  0.1596
53977SOL    HW166742   9.785   9.273   1.421 -0.0761 -0.0840 -1.2394
53977SOL    HW266743   9.698   9.330   1.531  0.0725 -2.8874  0.4190
53978SOL     OW66744   1.119   8.761   4.681 -0.0476  0.2793  0.0360
53978SOL    HW166745   1.124   8.775   4.776 -1.1495  0.8588  0.0268
53978SOL    HW266746   1.033   8.796   4.656 -0.8068 -1.9896 -0.8126
53979SOL     OW66747   1.114   6.574   1.053 -0.5902  0.3090 -0.2374
53979SOL    HW166748   1.042   6.635   1.067 -0.2361  0.4542  1.1439
53979SOL    HW266749   1.192   6.623   1.080 -0.2480 -0.5762  0.4178
53980SOL     OW66750   9.157   7.962  10.474 -0.1565  0.2949 -0.0674
53980SOL    HW166751   9.240   7.917  10.492 -1.2734 -2.9520 -2.1775
53980SOL    HW266752   9.133   8.002  10.558  2.3018 -0.7556  1.2460
53981SOL     OW66753   6.982   9.985   4.725 -0.0285  0.2827 -0.1031
53981SOL    HW166754   6.927   9.908   4.736  1.4876 -0.7405  0.8373
53981SOL    HW266755   6.928  10.058   4.755 -0.6196 -0.7747  1.5472
53982SOL     OW66756   4.438   2.448   9.854 -0.3056 -0.3813 -0.3381
53982SOL    HW166757   4.523   2.406   9.846 -0.6588 -1.2963  0.4286
53982SOL    HW266758   4.379   2.392   9.803 -0.3824  0.4956 -1.2437
53983SOL     OW66759   3.450   4.809   4.243 -0.0476  0.4161  0.0317
53983SOL    HW166760   3.467   4.795   4.336 -1.0663 -2.6966 -0.1426
53983SOL    HW266761   3.361   4.843   4.240 -0.1672  0.1172  0.1703
53984SOL     OW66762   3.916   2.868   1.830 -0.2306 -0.0279 -0.4817
53984SOL    HW166763   3.982   2.848   1.896 -0.3566  0.5172 -0.1856
53984SOL    HW266764   3.935   2.809   1.758  0.8959  0.4681 -0.6065
53985SOL     OW66765   7.668   7.318   9.402 -0.4280 -0.1361 -0.1457
53985SOL    HW166766   7.609   7.378   9.448 -0.9140  0.3040 -1.3134
53985SOL    HW266767   7.695   7.256   9.469  0.6996  1.8027  1.3143
53986SOL     OW66768   4.064   3.933  10.127 -0.3390 -0.1323 -0.1863
53986SOL    HW166769   4.077   3.839  10.114  0.9598 -0.1176  0.8074
53986SOL    HW266770   4.077   3.946  10.221 -0.6025  1.0258 -0.3008
53987SOL     OW66771  10.297   4.774   9.205 -0.0824  0.1526  0.2544
53987SOL    HW166772  10.252   4.846   9.161  0.4300  0.0285 -0.4874
53987SOL    HW266773  10.232   4.703   9.209  0.0107  0.0031 -0.7330
53988SOL     OW66774   1.931   0.098   2.897 -0.0638 -0.0582 -0.3970
53988SOL    HW166775   1.854   0.147   2.870 -0.0030 -0.4777 -1.3760
53988SOL    HW266776   1.909   0.007   2.879  0.3416 -0.2629  0.1202
53989SOL     OW66777   4.429  12.448   8.083 -0.0153 -0.0675  0.5712
53989SOL    HW166778   4.345  12.426   8.041  0.2193  1.2465 -0.6358
53989SOL    HW266779   4.491  12.454   8.011  0.8806  0.1414  1.3432
53990SOL     OW66780   8.064   6.149  12.120  0.4196 -0.0074  0.2409
53990SOL    HW166781   7.997   6.103  12.170  0.2050 -0.8304 -0.7726
53990SOL    HW266782   8.056   6.241  12.146 -2.0438  0.1602 -0.8644
53991SOL     OW66783   3.667   4.571   0.153 -0.7943 -0.4313  0.0780
53991SOL    HW166784   3.658   4.540   0.063 -0.0244 -1.4389  0.3267
53991SOL    HW266785   3.742   4.523   0.187 -1.4891 -0.5677  1.4720
53992SOL     OW66786  10.328  12.147   9.033 -0.6800 -0.3118  0.0421
53992SOL    HW166787  10.423  12.148   9.046 -0.4717 -0.3520 -1.3023
53992SOL    HW266788  10.314  12.204   8.957 -1.7587 -0.1315  0.3645
53993SOL     OW66789   9.684   7.472  10.507 -0.4522 -0.8998  0.7279
53993SOL    HW166790   9.779   7.466  10.493 -0.3728 -0.5346  1.0631
53993SOL    HW266791   9.668   7.421  10.586 -0.8448 -2.6628 -0.4547
53994SOL     OW66792   9.760   9.840   3.940 -0.1805 -0.8730 -0.1071
53994SOL    HW166793   9.729   9.791   3.864  0.8014 -0.5347 -0.7468
53994SOL    HW266794   9.819   9.906   3.903 -0.0239 -0.4270  0.9113
53995SOL     OW66795   7.583   4.215   9.202  0.0873  0.0709 -0.1495
53995SOL    HW166796   7.606   4.131   9.162  0.3921  0.2383 -0.3263
53995SOL    HW266797   7.660   4.270   9.189 -0.9234  1.1166 -1.9957
53996SOL     OW66798   8.358   9.112  10.440 -0.4042  0.0826  0.2479
53996SOL    HW166799   8.387   9.198  10.410 -0.2053 -0.4659 -1.2079
53996SOL    HW266800   8.438   9.067  10.468 -0.2463 -0.2516 -0.6882
53997SOL     OW66801   0.856   6.285   9.535  0.2333  0.2147 -0.2666
53997SOL    HW166802   0.798   6.283   9.459  0.0224  0.7572 -0.1187
53997SOL    HW266803   0.810   6.339   9.599  1.4777  1.7742 -0.6273
53998SOL     OW66804  10.929   6.653   9.072 -0.0551  0.2644  0.2328
53998SOL    HW166805  10.991   6.587   9.039  0.6023  1.4798 -1.0419
53998SOL    HW266806  10.921   6.716   9.000 -0.9437  1.3911  1.2922
53999SOL     OW66807   3.389   8.588   4.588 -0.0770 -0.0335  0.1078
53999SOL    HW166808   3.454   8.658   4.578 -1.8108  1.4007 -2.4416
53999SOL    HW266809   3.323   8.626   4.647 -0.9538  0.4788 -1.1727
54000SOL     OW66810   0.060  12.283  12.055  0.3966  0.3162  0.4206
54000SOL    HW166811   0.140  12.336  12.053 -0.2130  1.2717  0.3806
54000SOL    HW266812   0.002  12.330  12.114 -0.8624  0.7528 -1.0804
54001SOL     OW66813   0.497   7.315  12.473 -0.5865  0.1068 -0.3434
54001SOL    HW166814   0.414   7.292  12.431 -0.2082  0.0440 -1.0666
54001SOL    HW266815   0.564   7.271  12.421 -0.1084 -0.0152  0.3625
54002SOL     OW66816   8.887   5.474   9.025  0.5849  0.1951  0.2538
54002SOL    HW166817   8.817   5.532   9.055 -1.2473 -1.9868  0.4238
54002SOL    HW266818   8.865   5.453   8.934 -0.0660 -1.9127  0.8328
54003SOL     OW66819  10.880  10.201   9.241  0.7102  0.2619  0.2845
54003SOL    HW166820  10.799  10.222   9.195  0.6660 -2.3997 -1.0881
54003SOL    HW266821  10.941  10.270   9.216  0.1955 -0.2149 -2.6241
54004SOL     OW66822   2.232   7.534   5.686  0.5077  0.0042 -0.3951
54004SOL    HW166823   2.302   7.599   5.681 -0.4603  1.0850 -0.4581
54004SOL    HW266824   2.167   7.574   5.745  0.4534 -1.4713  0.6022
54005SOL     OW66825   9.717   4.427   3.019 -0.2563  0.1509 -0.1799
54005SOL    HW166826   9.750   4.337   3.012  0.9361  0.3872  1.7249
54005SOL    HW266827   9.769   4.476   2.955  1.2805  0.0123  0.9143
54006SOL     OW66828   0.941   3.464   7.437  0.3126  0.0779 -0.0497
54006SOL    HW166829   0.938   3.508   7.352  1.8445 -1.8886 -1.1860
54006SOL    HW266830   0.856   3.420   7.445 -0.2306  1.0887 -0.0514
54007SOL     OW66831   5.644   7.969   8.173 -0.4137 -0.3587 -0.3827
54007SOL    HW166832   5.656   8.063   8.184  0.1203 -0.2727 -1.5724
54007SOL    HW266833   5.561   7.951   8.218 -0.5364  0.6808 -0.1531
54008SOL     OW66834   2.749  11.690  11.243  0.5109  0.1725  0.2904
54008SOL    HW166835   2.704  11.765  11.280 -0.3512 -0.8426  1.3672
54008SOL    HW266836   2.680  11.627  11.222  1.3579 -1.4284  1.9861
54009SOL     OW66837   1.481   7.882   7.279 -0.1456 -0.2530 -0.3439
54009SOL    HW166838   1.455   7.791   7.288  0.0179 -0.3151 -0.4956
54009SOL    HW266839   1.533   7.885   7.199  0.2033 -0.1066 -0.1135
54010SOL     OW66840   8.266   2.060  10.432 -0.1777 -0.3039  0.3440
54010SOL    HW166841   8.210   2.006  10.486  0.0714 -0.7051  0.2039
54010SOL    HW266842   8.301   2.126  10.492 -1.5792  0.5936  0.2374
54011SOL     OW66843  12.374   4.949  12.365  0.4562  0.3214  0.4306
54011SOL    HW166844  12.368   4.885  12.294  2.5520  0.9446 -0.3711
54011SOL    HW266845  12.300   5.009  12.350 -1.2650 -1.5800  0.9404
54012SOL     OW66846   9.893  10.896  10.094 -0.2994  0.8779  0.0371
54012SOL    HW166847   9.840  10.975  10.109  0.9652  1.5507  1.2163
54012SOL    HW266848   9.914  10.899  10.001 -0.4700  1.8129  0.0120
54013SOL     OW66849   7.650   1.961   3.744 -0.1305 -0.1596 -0.0250
54013SOL    HW166850   7.621   2.008   3.666 -0.9743  1.9015  1.4604
54013SOL    HW266851   7.686   1.879   3.710  0.2132  0.9671 -2.6331
54014SOL     OW66852   9.511   4.047   0.901 -0.4822 -0.2254 -0.3974
54014SOL    HW166853   9.505   3.955   0.925 -0.5925  0.1000  0.8852
54014SOL    HW266854   9.593   4.078   0.941 -0.8012  0.4043 -0.2127
54015SOL     OW66855   3.201   0.913   6.732 -0.3802  0.2628 -0.0558
54015SOL    HW166856   3.253   0.990   6.711  0.3966 -0.2148  0.0725
54015SOL    HW266857   3.158   0.934   6.815  0.3548  0.3000  0.3196
54016SOL     OW66858   2.852   6.453  10.245 -0.7293 -0.4442  0.8819
54016SOL    HW166859   2.818   6.409  10.167  2.2714 -1.9733  0.2709
54016SOL    HW266860   2.859   6.545  10.220 -1.8134 -0.5432  0.1302
54017SOL     OW66861   4.478  12.267   9.757  0.3370  0.1971 -0.5967
54017SOL    HW166862   4.544  12.289   9.823  0.8476 -0.7966 -0.7573
54017SOL    HW266863   4.395  12.287   9.799  0.6795  0.0541  0.1678
54018SOL     OW66864   2.717  11.463   3.824  0.1794  0.9504  0.1056
54018SOL    HW166865   2.805  11.456   3.860  0.6171  1.6057 -0.8104
54018SOL    HW266866   2.727  11.513   3.743 -1.0588  1.2162  0.0856
54019SOL     OW66867  10.283  11.640  11.684  0.0665  0.0605 -0.7262
54019SOL    HW166868  10.190  11.621  11.697  0.0793 -0.0735 -0.8308
54019SOL    HW266869  10.329  11.567  11.724  0.1082 -0.2938 -1.3998
54020SOL     OW66870   8.818  12.315   0.095 -0.6139 -0.2030  0.2857
54020SOL    HW166871   8.873  12.366   0.035 -2.1372  2.4420  0.9563
54020SOL    HW266872   8.764  12.261   0.037  2.5001 -2.8931 -0.3832
54021SOL     OW66873  11.844   8.025   2.871 -0.2565 -0.3387 -0.3641
54021SOL    HW166874  11.845   8.064   2.784  0.0183 -0.2055 -0.3011
54021SOL    HW266875  11.936   8.015   2.895 -0.3302  0.4800  0.2906
54022SOL     OW66876   5.004   0.248   7.013 -0.1708 -0.0784 -0.0302
54022SOL    HW166877   5.083   0.300   6.994 -0.6235  1.9259  2.9648
54022SOL    HW266878   4.931   0.307   6.993 -0.6980  0.7107  3.6663
54023SOL     OW66879   1.400   0.801   6.098 -0.0299  0.3477  0.0971
54023SOL    HW166880   1.428   0.889   6.073 -1.1792  0.8526  0.5094
54023SOL    HW266881   1.415   0.796   6.192 -0.4415  0.2980  0.1641
54024SOL     OW66882   3.607   9.378   4.728  0.2671 -0.2004  0.3409
54024SOL    HW166883   3.595   9.470   4.751 -1.1365 -0.0482 -0.8985
54024SOL    HW266884   3.668   9.379   4.654  0.3573 -0.2928  0.4122
54025SOL     OW66885   2.798   2.618  12.453  0.4459  0.0501 -0.2256
54025SOL    HW166886   2.777   2.595  12.362  2.4334 -0.7363 -0.5155
54025SOL    HW266887   2.850   2.698  12.446 -0.1294  0.4831  0.2989
54026SOL     OW66888   8.828   1.066  12.297 -0.2736  0.4448 -0.0557
54026SOL    HW166889   8.806   1.155  12.270 -0.7792  0.6600  1.0152
54026SOL    HW266890   8.764   1.045  12.366  1.2644  0.1277  1.3380
54027SOL     OW66891  10.620   3.068   1.322  0.4052 -0.1614  0.0900
54027SOL    HW166892  10.634   2.983   1.281 -0.2505  0.0239 -0.5524
54027SOL    HW266893  10.541   3.102   1.280  1.0237  1.0541 -0.1584
54028SOL     OW66894  12.605   2.911   5.999  0.2350 -0.2236  0.2957
54028SOL    HW166895  12.521   2.876   6.027 -0.0917  0.6150  0.3666
54028SOL    HW266896  12.585   2.966   5.923  0.8850 -1.0390 -0.5006
54029SOL     OW66897   9.643  12.032  11.798  0.1362 -0.0280 -0.0269
54029SOL    HW166898   9.639  12.072  11.711  2.7535  0.0365 -0.1834
54029SOL    HW266899   9.692  11.951  11.785  0.2267 -0.2098  1.3408
54030SOL     OW66900   8.128  12.217   2.811 -0.3824  0.2569  0.1692
54030SOL    HW166901   8.049  12.168   2.789 -0.2893  0.3944 -0.4859
54030SOL    HW266902   8.200  12.155   2.796 -0.1808  0.8819 -1.6872
54031SOL     OW66903  10.293   6.089   7.193  0.4249  0.3432 -0.2387
54031SOL    HW166904  10.348   6.093   7.115  0.0404  1.2272 -0.4818
54031SOL    HW266905  10.204   6.080   7.160 -0.3073  4.9650 -0.2265
54032SOL     OW66906   6.075  10.112   2.005  0.0031 -0.2655  0.1772
54032SOL    HW166907   6.054  10.116   2.098  0.0805  0.8189  0.1581
54032SOL    HW266908   5.989  10.113   1.961 -0.0350 -0.8332  0.2301
54033SOL     OW66909   9.619   4.438  11.752 -0.4019  0.3893 -0.6745
54033SOL    HW166910   9.531   4.441  11.789  0.4266  0.0301  1.5266
54033SOL    HW266911   9.645   4.530  11.744 -1.4060  0.5429 -2.5569
54034SOL     OW66912   0.398   5.883   9.458 -0.2827  0.0593 -0.1809
54034SOL    HW166913   0.455   5.911   9.387  0.1782 -0.9703 -0.2441
54034SOL    HW266914   0.453   5.827   9.512 -0.9103  0.0034  0.4183
54035SOL     OW66915   0.736   9.351   0.759 -0.5143  0.1325 -0.9702
54035SOL    HW166916   0.651   9.331   0.719 -0.3388 -1.3740 -0.6426
54035SOL    HW266917   0.717   9.420   0.822 -2.0950 -2.1429  1.2170
54036SOL     OW66918   1.402  12.567   6.226  0.2149  0.3399 -0.2196
54036SOL    HW166919   1.411  12.512   6.148  1.3426 -2.4649  1.7169
54036SOL    HW266920   1.308  12.581   6.235 -0.2196 -2.0640 -0.3564
54037SOL     OW66921  11.206   1.194   7.617  0.1410  0.3499 -0.0692
54037SOL    HW166922  11.129   1.246   7.592 -0.1287  0.0112  0.0535
54037SOL    HW266923  11.276   1.258   7.626 -0.2653  0.7377  0.3931
54038SOL     OW66924   5.357   4.766  10.864  0.1605  0.8209 -0.3286
54038SOL    HW166925   5.352   4.734  10.954 -4.4584 -0.9453 -0.9182
54038SOL    HW266926   5.344   4.861  10.872  0.7877  0.8265  0.8807
54039SOL     OW66927   8.493   3.158   3.707  0.8818 -0.5796 -0.5960
54039SOL    HW166928   8.575   3.114   3.730  0.7048 -0.5574  0.0972
54039SOL    HW266929   8.440   3.153   3.786  0.3852 -0.1958 -0.8982
54040SOL     OW66930   6.368   1.545  11.094  0.0486 -0.2183 -0.2676
54040SOL    HW166931   6.296   1.491  11.125 -0.5548  0.7065 -0.0084
54040SOL    HW266932   6.397   1.503  11.014  0.3397 -1.5451  0.5134
54041SOL     OW66933   0.111  11.189   3.098  0.8943  0.4343  0.0410
54041SOL    HW166934   0.058  11.252   3.148  1.2531  0.2786  0.6310
54041SOL    HW266935   0.145  11.129   3.165 -0.6758 -1.3120 -0.6571
54042SOL     OW66936   1.320  11.196   9.587  0.8804  0.3059 -0.1006
54042SOL    HW166937   1.357  11.267   9.534  2.1799 -0.4188 -0.1912
54042SOL    HW266938   1.354  11.116   9.547 -1.8692 -0.5171 -1.0264
54043SOL     OW66939  10.915   0.575   8.765 -0.0182 -0.5024 -0.0759
54043SOL    HW166940  10.993   0.613   8.806  0.2575 -2.0274  0.9073
54043SOL    HW266941  10.897   0.496   8.816 -0.9250 -1.3628 -1.6342
54044SOL     OW66942   5.801   2.449   0.850  0.1946  0.9447  0.7265
54044SOL    HW166943   5.747   2.495   0.786 -2.1722 -0.9439  1.2584
54044SOL    HW266944   5.783   2.493   0.933  0.2476  0.8995  0.7621
54045SOL     OW66945   5.453   2.334   6.127  0.3190  0.3910 -0.5205
54045SOL    HW166946   5.451   2.299   6.038 -0.8264  1.5791 -0.9798
54045SOL    HW266947   5.424   2.424   6.119  0.7669  0.7041  0.9921
54046SOL     OW66948   8.298   6.050   7.502 -0.4781 -0.4118 -0.2943
54046SOL    HW166949   8.237   6.043   7.429 -0.2333 -0.2457 -0.5164
54046SOL    HW266950   8.363   6.114   7.474  0.6553 -1.6658 -0.7003
54047SOL     OW66951   5.848   3.524  10.524  0.2587  0.1393  0.6871
54047SOL    HW166952   5.803   3.577  10.589  2.0355  1.6286  0.7990
54047SOL    HW266953   5.913   3.475  10.575  0.8307  0.3754  0.1955
54048SOL     OW66954   2.837   8.984   6.462  0.2423 -0.3224  0.3929
54048SOL    HW166955   2.762   8.993   6.403  0.0436 -2.2507  0.2935
54048SOL    HW266956   2.802   9.002   6.549 -0.1559 -0.4331  0.2562
54049SOL     OW66957   9.621   6.423   7.637  0.7094 -0.3905  0.1318
54049SOL    HW166958   9.710   6.390   7.625  0.4357 -0.8789 -0.6459
54049SOL    HW266959   9.566   6.359   7.592  0.0956  0.7859 -0.8258
54050SOL     OW66960  11.190   7.600   1.539 -0.1580  0.1597  0.1825
54050SOL    HW166961  11.141   7.561   1.466 -0.2405 -0.1579  0.4065
54050SOL    HW266962  11.153   7.688   1.549  1.5304  1.2028 -1.8202
54051SOL     OW66963   2.347  11.634   3.739  0.2105 -0.1233  0.1293
54051SOL    HW166964   2.304  11.675   3.664 -0.8587 -3.2745 -1.1161
54051SOL    HW266965   2.280  11.635   3.808  0.4770  0.8546  0.3997
54052SOL     OW66966   6.779   1.023   9.343  0.0759 -0.3036 -0.2828
54052SOL    HW166967   6.716   0.973   9.396 -0.0768 -0.2671 -0.4281
54052SOL    HW266968   6.815   1.087   9.404 -1.2703  0.8055 -0.5940
54053SOL     OW66969   6.323   5.728  12.520 -0.5413  0.0411  0.3013
54053SOL    HW166970   6.271   5.689  12.450 -1.4770  0.1353  0.9325
54053SOL    HW266971   6.408   5.745  12.479  0.4233 -3.8114  0.2830
54054SOL     OW66972   8.627   0.397   3.861  0.3310 -0.4907 -0.0233
54054SOL    HW166973   8.695   0.458   3.891  0.1783 -0.2129 -0.2376
54054SOL    HW266974   8.625   0.409   3.766 -1.3067  0.8610  0.1449
54055SOL     OW66975   6.583   1.454   7.522  0.1104  0.1500 -0.1383
54055SOL    HW166976   6.677   1.470   7.513  0.2276 -0.6969 -0.4853
54055SOL    HW266977   6.574   1.415   7.609  0.0503  0.4206 -0.0220
54056SOL     OW66978   2.572   5.547   6.063 -0.0147 -0.3337  0.1999
54056SOL    HW166979   2.667   5.545   6.048  0.2606 -2.0716  1.6970
54056SOL    HW266980   2.564   5.543   6.159 -1.6102  0.4268  0.1152
54057SOL     OW66981   2.185   4.014  11.580 -0.0748 -0.0676 -0.1184
54057SOL    HW166982   2.092   4.013  11.559 -0.0612  1.9747 -0.4295
54057SOL    HW266983   2.229   3.995  11.497 -0.1634 -2.0434  0.2179
54058SOL     OW66984   8.800  12.462   2.735 -0.1003  0.4303 -0.1015
54058SOL    HW166985   8.830  12.467   2.826  0.2289  3.1224 -0.2855
54058SOL    HW266986   8.875  12.493   2.684  0.0942 -1.9999 -1.4716
54059SOL     OW66987   4.331   0.524  11.565  0.0694  0.1388 -0.3794
54059SOL    HW166988   4.288   0.530  11.479 -2.0798 -2.7888  0.3116
54059SOL    HW266989   4.368   0.436  11.566 -0.1511  0.0274  1.7370
54060SOL     OW66990   7.625   7.239   4.987  0.7208 -0.1953 -0.0536
54060SOL    HW166991   7.625   7.165   4.926  0.9276 -1.1977  1.1116
54060SOL    HW266992   7.603   7.199   5.072  0.1436  1.1972  0.4777
54061SOL     OW66993   9.874   7.755  10.810 -0.1810 -0.3666  0.3311
54061SOL    HW166994   9.863   7.799  10.726 -1.1408 -1.2264 -0.0125
54061SOL    HW266995   9.969   7.751  10.823 -0.0465  0.6702 -0.2137
54062SOL     OW66996  10.881  12.452   3.326 -0.3152 -0.0660  0.7366
54062SOL    HW166997  10.884  12.542   3.360  1.1886  0.1394  0.1140
54062SOL    HW266998  10.803  12.450   3.270 -0.8225  0.6002  1.3969
54063SOL     OW66999   5.285   3.280   3.315  0.1345  0.4589 -0.2463
54063SOL    HW167000   5.309   3.308   3.226  0.8821  1.5478  0.2786
54063SOL    HW267001   5.190   3.290   3.318  0.2455  1.8193 -0.4898
54064SOL     OW67002  11.162   9.991   1.454  0.0611 -0.1197 -0.3457
54064SOL    HW167003  11.154  10.059   1.386  0.7430  0.4252  0.1025
54064SOL    HW267004  11.232   9.934   1.422 -0.5506 -0.6550 -0.7490
54065SOL     OW67005   5.252   1.455   4.994 -0.2721 -0.3098 -0.2209
54065SOL    HW167006   5.172   1.498   4.965  0.1389  1.1044  0.6080
54065SOL    HW267007   5.318   1.525   4.995  0.7140 -1.2105  0.1069
54066SOL     OW67008   8.165   0.100   3.910 -0.2265 -0.0957 -0.5605
54066SOL    HW167009   8.074   0.125   3.923 -0.0993  0.6599 -1.0294
54066SOL    HW267010   8.202   0.171   3.857  1.5942  1.5253  2.5630
54067SOL     OW67011  11.848   6.126  10.622  0.5448 -0.1961  0.5085
54067SOL    HW167012  11.930   6.145  10.576  0.3914  0.4086  0.4677
54067SOL    HW267013  11.811   6.052  10.574  1.1275 -0.5574  0.6061
54068SOL     OW67014   8.995  11.075   8.671 -0.6729 -0.0728  0.1608
54068SOL    HW167015   9.046  11.026   8.606 -1.2356 -1.4388  0.7064
54068SOL    HW267016   8.946  11.139   8.620 -0.6934 -0.7616 -0.7110
54069SOL     OW67017   1.182   0.931   3.881  0.1181 -0.2830  0.6277
54069SOL    HW167018   1.197   0.914   3.788  1.7870  1.2074  0.5730
54069SOL    HW267019   1.130   1.011   3.882  1.6961  0.7631  0.9707
54070SOL     OW67020   2.516   2.122  12.128  0.1080 -0.6987 -0.3541
54070SOL    HW167021   2.487   2.034  12.153 -2.7760 -0.3496 -2.0466
54070SOL    HW267022   2.550   2.112  12.039  1.6781 -0.3964  0.1826
54071SOL     OW67023  11.856   1.204   9.970  0.7229  0.6252  0.3104
54071SOL    HW167024  11.907   1.181   9.892  1.6921 -1.2923  1.4301
54071SOL    HW267025  11.767   1.214   9.938  1.1467  0.1494 -1.0871
54072SOL     OW67026   3.327   8.532   7.924 -0.3572  0.5103 -1.0057
54072SOL    HW167027   3.367   8.446   7.940 -0.8924  0.2200 -1.2078
54072SOL    HW267028   3.279   8.521   7.842 -3.0011  0.0838  0.4821
54073SOL     OW67029   3.246   3.841   3.669  0.0279 -0.6277  0.4881
54073SOL    HW167030   3.297   3.761   3.687  1.2430 -0.2198 -0.9132
54073SOL    HW267031   3.166   3.809   3.629  0.2340 -1.1774  0.4922
54074SOL     OW67032   7.304   0.225   0.562  0.1335  0.0835  0.3160
54074SOL    HW167033   7.379   0.189   0.513  0.0161  1.6247 -1.0910
54074SOL    HW267034   7.228   0.204   0.507 -0.2381  0.2417  0.7666
54075SOL     OW67035   6.306   6.919  12.648 -0.1816 -0.0002 -0.0202
54075SOL    HW167036   6.335   6.961  12.729  1.8905  2.6496 -1.9150
54075SOL    HW267037   6.220   6.957  12.631 -0.8957 -1.0227  1.1782
54076SOL     OW67038   1.218   6.753  10.461  0.0901  0.2944  0.1005
54076SOL    HW167039   1.304   6.768  10.499  0.2917 -0.9234  0.1713
54076SOL    HW267040   1.203   6.829  10.405  1.5146  0.2161 -0.4352
54077SOL     OW67041   9.412   4.864   0.864 -0.7072 -0.1311 -0.0884
54077SOL    HW167042   9.427   4.958   0.867 -0.9310 -0.1208  1.8140
54077SOL    HW267043   9.389   4.840   0.954  0.6309 -2.2071 -0.2246
54078SOL     OW67044   6.501   1.438   5.729 -0.2925  0.1783 -0.0153
54078SOL    HW167045   6.491   1.429   5.824 -0.8268 -1.6644 -0.2180
54078SOL    HW267046   6.466   1.526   5.710 -1.0842  0.1979  1.3695
54079SOL     OW67047  11.077   6.196   6.289  0.3617 -0.1832 -0.0492
54079SOL    HW167048  11.132   6.125   6.323 -0.9949 -1.0646  0.3741
54079SOL    HW267049  10.999   6.195   6.345 -0.6149  0.2640 -1.3535
54080SOL     OW67050  11.603   0.282   2.850  0.6071 -0.1439 -0.8802
54080SOL    HW167051  11.687   0.242   2.870  1.1860  0.6660 -1.6354
54080SOL    HW267052  11.607   0.303   2.757  0.1280  1.1911 -0.6255
54081SOL     OW67053  11.468   3.789   1.620 -0.0327  0.0148 -0.0084
54081SOL    HW167054  11.417   3.858   1.577 -2.3520  0.7690  3.4818
54081SOL    HW267055  11.555   3.827   1.632 -0.0861  0.7196 -1.6520
54082SOL     OW67056   5.285   2.491   5.159 -0.3435 -0.4020 -0.0494
54082SOL    HW167057   5.374   2.460   5.143 -1.1325 -2.5947 -0.4295
54082SOL    HW267058   5.298   2.576   5.202  1.9205  1.1432 -3.2781
54083SOL     OW67059   2.915  12.143   8.005  0.0530 -0.4473  0.1486
54083SOL    HW167060   2.868  12.073   7.960 -0.5393 -0.2024  0.3744
54083SOL    HW267061   2.876  12.224   7.972  0.4573 -0.2321  0.1853
54084SOL     OW67062   1.483   7.742   7.837  0.1148  0.1865 -0.2949
54084SOL    HW167063   1.546   7.671   7.822  0.0180  0.0330  0.0053
54084SOL    HW267064   1.533   7.811   7.880  0.0294 -0.0358  0.1749
54085SOL     OW67065   4.775   7.103   0.559 -0.0659 -0.1139 -0.3313
54085SOL    HW167066   4.740   7.188   0.529  1.3533  0.2855 -0.8985
54085SOL    HW267067   4.843   7.126   0.621  0.1088 -0.8581 -0.2399
54086SOL     OW67068   4.496   3.417   1.657 -0.1496 -0.2112 -0.8738
54086SOL    HW167069   4.583   3.427   1.696  0.1216  0.3441 -1.6034
54086SOL    HW267070   4.436   3.442   1.727  0.1847 -2.2082  0.1830
54087SOL     OW67071  10.299   5.270   5.002  0.5508 -0.1729 -0.4886
54087SOL    HW167072  10.215   5.224   4.995  1.1721 -1.7716  1.5943
54087SOL    HW267073  10.275   5.361   5.021 -0.7512 -0.6550  0.3414
54088SOL     OW67074   0.695  11.840   6.702 -0.4638  0.4751  0.6669
54088SOL    HW167075   0.744  11.915   6.668 -0.3054 -0.0938 -0.3913
54088SOL    HW267076   0.739  11.763   6.666 -1.3624 -0.0875  0.7278
54089SOL     OW67077   6.053   1.920   1.212  0.0117  0.1707 -0.7683
54089SOL    HW167078   6.011   1.923   1.126 -0.3972  0.4072 -0.5571
54089SOL    HW267079   6.003   1.980   1.266 -0.6579 -1.0835  0.0606
54090SOL     OW67080  10.966  11.027   4.259  0.1722 -0.3990  0.4734
54090SOL    HW167081  10.927  11.107   4.222 -0.1645 -0.8617 -0.2062
54090SOL    HW267082  11.028  10.998   4.192  1.5195  0.1858  1.4384
54091SOL     OW67083   5.371   5.056  10.503  0.3203 -0.1910 -0.1922
54091SOL    HW167084   5.344   4.999  10.576 -0.6728  0.3448 -0.1177
54091SOL    HW267085   5.462   5.079  10.523  1.0057 -2.3160 -0.6077
54092SOL     OW67086   9.456   6.183   9.103  0.3621 -0.3190  0.0664
54092SOL    HW167087   9.393   6.206   9.171  1.4041  2.0286  0.3473
54092SOL    HW267088   9.472   6.089   9.116 -2.4649 -0.8484  0.4132
54093SOL     OW67089   3.005   7.299  11.944 -0.7640 -0.2734 -0.3126
54093SOL    HW167090   2.957   7.313  12.026  0.2179  1.5094 -0.0061
54093SOL    HW267091   2.978   7.372  11.888  1.5064  0.7767 -0.1360
54094SOL     OW67092   6.673   7.022   4.959  0.5089  0.4550 -0.1377
54094SOL    HW167093   6.593   6.979   4.987  1.1910 -1.1100 -0.4620
54094SOL    HW267094   6.690   6.986   4.872  2.7828 -1.1132  0.8419
54095SOL     OW67095   3.690   0.868   4.748  0.5451 -0.0725 -0.5324
54095SOL    HW167096   3.770   0.837   4.791  1.0990 -0.4780 -1.7976
54095SOL    HW267097   3.629   0.795   4.754 -0.9219  1.2101  3.0917
54096SOL     OW67098   7.729   8.849   0.389 -0.2548 -0.6735 -0.3164
54096SOL    HW167099   7.759   8.801   0.312 -0.8841 -0.3961 -0.7492
54096SOL    HW267100   7.651   8.896   0.358 -0.3067 -0.2799  0.3979
54097SOL     OW67101   3.401   2.797  10.231  0.4283 -0.0872 -0.0497
54097SOL    HW167102   3.368   2.844  10.308 -1.3751  0.6531 -1.1963
54097SOL    HW267103   3.388   2.859  10.159  1.5301 -0.9814 -1.0446
54098SOL     OW67104  12.022   0.655   0.040 -0.3973  0.5493  0.0832
54098SOL    HW167105  12.001   0.689   0.127 -2.1676  1.8412 -0.8059
54098SOL    HW267106  11.938   0.634   0.000  0.4740 -2.7531 -0.3493
54099SOL     OW67107   5.105   7.485   1.101  0.4126  0.1392  0.2701
54099SOL    HW167108   5.068   7.557   1.049  1.9814  0.1666 -0.8663
54099SOL    HW267109   5.046   7.412   1.085  0.8737  0.1293 -1.6621
54100SOL     OW67110   0.452   2.493   2.647 -0.0580 -0.0434  0.0767
54100SOL    HW167111   0.393   2.556   2.688 -1.0152 -0.4126 -0.6874
54100SOL    HW267112   0.499   2.543   2.581 -1.0398 -0.1670 -0.7425
54101SOL     OW67113   5.482   6.873  11.219 -1.0288  1.0899 -0.1437
54101SOL    HW167114   5.575   6.882  11.203 -1.0781  2.6823  0.2393
54101SOL    HW267115   5.443   6.859  11.133 -0.5199  1.3699 -0.4221
54102SOL     OW67116   9.874   6.883   9.673  0.4065 -0.2055 -0.1562
54102SOL    HW167117   9.830   6.964   9.650  0.3150 -0.1863  0.0791
54102SOL    HW267118   9.954   6.883   9.621  0.2395 -0.1292 -0.4121
54103SOL     OW67119  11.414   8.965   7.704  0.0288  0.0354  0.3719
54103SOL    HW167120  11.447   9.055   7.699  0.9519 -0.3285 -0.2715
54103SOL    HW267121  11.454   8.930   7.784 -0.4645  0.2293  0.7153
54104SOL     OW67122   8.696   4.536   5.810  0.0119  0.3680  0.4787
54104SOL    HW167123   8.706   4.497   5.724 -1.3268  1.8496 -0.3919
54104SOL    HW267124   8.786   4.544   5.844  0.5076 -0.6655 -0.5507
54105SOL     OW67125   0.956   1.875   3.903 -0.5703  0.7254  0.0088
54105SOL    HW167126   0.910   1.930   3.967 -0.1796  0.8051  0.2249
54105SOL    HW267127   1.046   1.907   3.904 -0.3802  0.2015  0.0036
54106SOL     OW67128  12.378   4.589   2.846  0.1461 -0.1466  0.7787
54106SOL    HW167129  12.301   4.645   2.837  0.0370 -0.2021  1.3525
54106SOL    HW267130  12.450   4.650   2.862 -0.1656 -0.2142  2.6419
54107SOL     OW67131   5.132   5.146   5.012  0.3167 -0.0883 -0.2049
54107SOL    HW167132   5.202   5.203   5.045 -0.2423  0.0119  0.8503
54107SOL    HW267133   5.172   5.059   5.008  0.9711  0.2454 -1.1562
54108SOL     OW67134   2.597   5.067   7.017  0.2924 -0.6323 -0.3247
54108SOL    HW167135   2.539   4.991   7.011 -0.1152 -0.3711  0.2493
54108SOL    HW267136   2.538   5.142   7.019  0.5555 -0.4211  1.6762
54109SOL     OW67137  12.238   5.319   2.840  0.2357 -0.1620 -0.2474
54109SOL    HW167138  12.219   5.229   2.865  0.5241 -0.4200 -0.9294
54109SOL    HW267139  12.311   5.345   2.896  0.8791 -0.7342 -0.8011
54110SOL     OW67140   7.898   6.483  12.503 -0.0689 -0.5952 -0.0239
54110SOL    HW167141   7.858   6.421  12.442 -1.9090  1.7110 -1.3288
54110SOL    HW267142   7.928   6.555  12.448  1.3907  0.0226  1.5025
54111SOL     OW67143   3.467   9.060  10.344 -0.0912  0.2680  0.7020
54111SOL    HW167144   3.526   9.014  10.283 -0.3192  1.6465 -0.6107
54111SOL    HW267145   3.525   9.094  10.412  0.5541  0.9462 -0.1625
54112SOL     OW67146  12.621   4.761   1.005 -0.4846  0.4078 -0.7809
54112SOL    HW167147  12.560   4.687   0.991  0.4377 -0.6084  0.3258
54112SOL    HW267148  12.698   4.721   1.046  1.1090  1.6029 -2.4542
54113SOL     OW67149   4.582   8.592   4.552  0.0512 -0.0491  0.1206
54113SOL    HW167150   4.511   8.557   4.498  0.4706  1.7263 -1.6944
54113SOL    HW267151   4.662   8.568   4.506  0.4640  0.8349  0.3496
54114SOL     OW67152   5.272   7.300   8.702 -0.0571 -0.0453  0.0215
54114SOL    HW167153   5.308   7.211   8.709  0.7226  0.3071  0.7013
54114SOL    HW267154   5.232   7.315   8.788 -0.3142  0.2057 -0.1448
54115SOL     OW67155   8.589  11.470   1.044  0.5564  0.6000 -0.0657
54115SOL    HW167156   8.496  11.493   1.046  0.2721 -0.5068  0.9797
54115SOL    HW267157   8.598  11.415   0.966  0.6582  1.9225 -0.9987
54116SOL     OW67158   8.906   5.538   5.443  0.0861  0.0886  0.1319
54116SOL    HW167159   8.910   5.541   5.538  0.5513  0.5049  0.1063
54116SOL    HW267160   8.826   5.585   5.420 -1.5128 -2.3315  0.4112
54117SOL     OW67161   2.499   6.292  10.273  0.5329 -0.0843  0.1145
54117SOL    HW167162   2.505   6.337  10.357  1.7530  0.4848 -0.2499
54117SOL    HW267163   2.469   6.204  10.295  0.6860  0.1088  1.1238
54118SOL     OW67164   8.457   3.654   8.959  0.1593  0.2177  0.2020
54118SOL    HW167165   8.365   3.660   8.986  0.0503  0.0042 -0.1141
54118SOL    HW267166   8.499   3.599   9.024  0.4451  1.6746  1.3067
54119SOL     OW67167   2.154   8.302  12.489 -0.3891  0.1349  0.2991
54119SOL    HW167168   2.073   8.291  12.441 -0.1976  1.3302 -0.3226
54119SOL    HW267169   2.178   8.213  12.516 -1.9482 -0.2262  0.6069
54120SOL     OW67170   3.595   0.886  10.205 -0.2927  0.0769 -0.0895
54120SOL    HW167171   3.656   0.958  10.188  1.2293 -0.8820  1.0189
54120SOL    HW267172   3.645   0.807  10.186 -1.7609 -0.7194 -0.7749
54121SOL     OW67173   3.832   3.150   1.715  0.2468  0.0402 -0.0545
54121SOL    HW167174   3.818   3.059   1.741  1.1581 -0.1883 -0.3237
54121SOL    HW267175   3.795   3.201   1.787  0.9494 -0.5698  0.7683
54122SOL     OW67176   0.601   9.879   9.386  0.2296  0.6204 -0.3801
54122SOL    HW167177   0.658   9.819   9.435 -1.5809 -0.1803  0.8645
54122SOL    HW267178   0.577   9.947   9.449 -2.0834 -0.3871 -0.0562
54123SOL     OW67179   8.255   3.808   3.632  0.4829 -0.6209  0.2633
54123SOL    HW167180   8.164   3.796   3.605  0.0422  1.5929  0.5058
54123SOL    HW267181   8.305   3.747   3.578 -0.8475  0.1989 -2.0429
54124SOL     OW67182   8.439   0.794   1.757  0.0776  0.6467  0.2112
54124SOL    HW167183   8.388   0.795   1.676 -0.2114  0.8585  0.3953
54124SOL    HW267184   8.451   0.886   1.780 -0.2900  0.5825  0.6860
54125SOL     OW67185   6.649   2.855   7.890 -0.7872  0.1401  0.5530
54125SOL    HW167186   6.690   2.778   7.851 -2.8297  0.1810 -1.9046
54125SOL    HW267187   6.559   2.828   7.909 -1.2544  1.6115  0.5687
54126SOL     OW67188   5.310   4.347   4.927 -0.4884 -0.0246 -0.4116
54126SOL    HW167189   5.346   4.427   4.889 -2.7032  1.2300 -0.0681
54126SOL    HW267190   5.318   4.282   4.858  1.3154  0.4789 -0.7250
54127SOL     OW67191   7.779  10.023   4.505  0.3426  0.3618 -0.4451
54127SOL    HW167192   7.685  10.003   4.507  0.6589 -1.3975  2.1822
54127SOL    HW267193   7.803  10.016   4.413 -1.5858 -1.9371 -0.8761
54128SOL     OW67194  11.750   5.944   5.214 -0.3070 -0.3793 -0.0780
54128SOL    HW167195  11.816   5.888   5.174  0.6409 -1.2122  2.4600
54128SOL    HW267196  11.723   5.897   5.293 -1.2524  1.6536  0.8818
54129SOL     OW67197   9.317   9.705   9.948 -0.1492 -0.1120  0.5921
54129SOL    HW167198   9.393   9.681  10.001 -0.0980 -1.6456 -0.1237
54129SOL    HW267199   9.313   9.638   9.879  0.1253  2.0964 -1.7247
54130SOL     OW67200   9.209   0.953   3.413  0.0376 -0.1559 -0.7670
54130SOL    HW167201   9.251   0.868   3.400  0.3610 -0.1836  0.3860
54130SOL    HW267202   9.272   1.016   3.377  0.3519 -0.3131 -0.5005
54131SOL     OW67203   6.662   9.472   2.723 -0.0253  0.4948 -0.5587
54131SOL    HW167204   6.683   9.381   2.702 -0.0484  0.1394  0.8580
54131SOL    HW267205   6.747   9.512   2.743 -0.0806  0.6282 -0.5881
54132SOL     OW67206   6.692   1.159   9.697 -0.6512 -0.3377 -0.0862
54132SOL    HW167207   6.764   1.162   9.634 -0.4181 -2.3038  0.0247
54132SOL    HW267208   6.723   1.210   9.771  0.1421 -0.1869 -0.5103
54133SOL     OW67209   6.508   5.584   5.027 -0.4199 -0.2714 -0.2314
54133SOL    HW167210   6.525   5.580   5.121  1.9343  0.0485 -0.5842
54133SOL    HW267211   6.582   5.539   4.987  1.1831  3.5342 -2.0765
54134SOL     OW67212   1.771   8.756   4.673 -0.3081  0.0906 -0.0845
54134SOL    HW167213   1.799   8.705   4.749  1.9795 -0.3192 -1.1289
54134SOL    HW267214   1.702   8.703   4.633  1.0693 -1.5571 -0.3694
54135SOL     OW67215  10.208   9.305   7.994 -0.2522 -0.1228  0.8360
54135SOL    HW167216  10.246   9.258   8.068 -1.3314 -1.9971  0.2784
54135SOL    HW267217  10.256   9.388   7.991  1.0472 -0.7470  2.5061
54136SOL     OW67218   9.637   2.414   0.343  0.2778  0.2536 -0.1593
54136SOL    HW167219   9.701   2.377   0.282  1.6088  2.5368 -0.2528
54136SOL    HW267220   9.560   2.358   0.334  1.1948 -0.7659 -2.3177
54137SOL     OW67221   4.370   2.022   1.728 -0.1028  0.1549  0.3012
54137SOL    HW167222   4.350   2.061   1.643 -0.5190  2.2154  1.2687
54137SOL    HW267223   4.304   2.058   1.787  0.7120 -0.5200  1.6829
54138SOL     OW67224  11.859   4.775   3.073  0.1560 -0.1435 -0.0946
54138SOL    HW167225  11.827   4.697   3.117 -3.2972  0.9631 -0.3494
54138SOL    HW267226  11.866   4.841   3.143 -0.3175  0.2269 -0.3878
54139SOL     OW67227  11.790   4.655   6.149  0.2382 -0.2800 -0.2379
54139SOL    HW167228  11.797   4.561   6.131  0.8046 -0.7747  2.1462
54139SOL    HW267229  11.731   4.660   6.225 -1.1461  1.4727 -1.3307
54140SOL     OW67230  12.334   7.458   4.570 -0.2319 -1.0501 -0.2367
54140SOL    HW167231  12.322   7.364   4.557  1.8767 -1.5197  0.7253
54140SOL    HW267232  12.256   7.486   4.618 -0.2502 -2.6153  0.7016
54141SOL     OW67233   4.586   2.456   8.417 -0.3118  0.4496 -0.8408
54141SOL    HW167234   4.640   2.528   8.450 -0.6522 -0.1260  1.0619
54141SOL    HW267235   4.639   2.416   8.348  1.8157 -0.2156  1.0802
54142SOL     OW67236  11.929   5.431   4.228  0.7276  0.2947 -0.5098
54142SOL    HW167237  12.018   5.438   4.194  0.7156  0.2529 -0.5507
54142SOL    HW267238  11.935   5.464   4.318  0.6844  0.7450 -0.6705
54143SOL     OW67239  11.355   7.864   8.601 -0.1649  0.0325 -0.1329
54143SOL    HW167240  11.325   7.905   8.682 -1.8677 -1.2842 -0.0386
54143SOL    HW267241  11.292   7.794   8.585  0.8712 -0.5523 -1.9262
54144SOL     OW67242   8.660  12.023   6.502 -0.2429  0.2449 -0.2725
54144SOL    HW167243   8.672  11.928   6.502  1.3837  0.3909  1.9157
54144SOL    HW267244   8.567  12.036   6.480  0.0656 -1.6729 -3.3036
54145SOL     OW67245   9.197   6.897   3.627  0.4431  0.0659  0.8754
54145SOL    HW167246   9.257   6.949   3.572  1.0884 -1.8397 -0.3573
54145SOL    HW267247   9.242   6.813   3.637 -1.0029 -0.6172  1.9054
54146SOL     OW67248   2.137   2.229  10.549  0.0765  0.2493 -0.0029
54146SOL    HW167249   2.201   2.251  10.481  0.7589 -0.6555  0.3286
54146SOL    HW267250   2.085   2.158  10.510 -1.0407  1.2746 -0.4406
54147SOL     OW67251  11.261   6.198   4.256 -0.1041  0.2954  0.0869
54147SOL    HW167252  11.257   6.161   4.344 -2.4099 -1.9162 -0.8367
54147SOL    HW267253  11.182   6.251   4.249  0.9446  1.9157 -0.1451
54148SOL     OW67254   1.536   7.956   9.553  0.1209 -0.1729  0.0184
54148SOL    HW167255   1.626   7.974   9.526  0.7720 -0.4885  1.8385
54148SOL    HW267256   1.525   8.005   9.635 -0.7057 -1.6635  0.8425
54149SOL     OW67257  10.277  11.642   9.260  0.0215  0.5154  0.3226
54149SOL    HW167258  10.191  11.685   9.267  0.8584  2.2512  0.6569
54149SOL    HW267259  10.334  11.710   9.224  1.3594 -0.4738  0.5095
54150SOL     OW67260   7.356   9.781   7.507  0.0753  0.2575  0.0627
54150SOL    HW167261   7.364   9.688   7.528  2.9912  0.6305  1.1750
54150SOL    HW267262   7.409   9.792   7.428 -1.2213  0.7982 -0.7454
54151SOL     OW67263   7.608   8.278   4.980  0.3767  0.4614 -0.4625
54151SOL    HW167264   7.635   8.254   5.069 -0.8443  1.2309  0.1527
54151SOL    HW267265   7.672   8.344   4.953  1.7831 -1.0095 -0.8700
54152SOL     OW67266   2.893   8.289  11.663  0.0174  0.3903 -0.2442
54152SOL    HW167267   2.951   8.268  11.736  3.2925  1.1591 -2.3637
54152SOL    HW267268   2.877   8.383  11.671  0.2803  0.4518 -0.4167
54153SOL     OW67269   3.428   8.605   0.783 -0.1158 -0.2718  0.2311
54153SOL    HW167270   3.363   8.536   0.770  0.7912 -0.8119 -1.8656
54153SOL    HW267271   3.386   8.667   0.843 -1.8726 -1.4608  0.2975
54154SOL     OW67272   8.666  11.750   5.187 -0.0547  0.3103 -0.3521
54154SOL    HW167273   8.641  11.750   5.279 -2.8067 -0.6486 -1.0225
54154SOL    HW267274   8.747  11.698   5.184  0.3014  0.6997  1.5461
54155SOL     OW67275  12.314   1.611  12.273 -0.3632 -0.0480  0.1306
54155SOL    HW167276  12.336   1.579  12.185  1.4155 -1.7535  1.1086
54155SOL    HW267277  12.331   1.705  12.270  1.0762 -0.3178 -0.9582
54156SOL     OW67278   1.836   3.938   7.782 -0.3183  0.0147 -0.1197
54156SOL    HW167279   1.808   3.938   7.873  0.4241 -1.3244  0.1444
54156SOL    HW267280   1.930   3.919   7.787 -0.4982 -1.2675 -1.2016
54157SOL     OW67281   6.148   2.897  11.801 -0.0951 -0.7009 -0.3524
54157SOL    HW167282   6.236   2.929  11.782 -0.1287 -1.4336 -1.9243
54157SOL    HW267283   6.104   2.894  11.716 -1.7398 -0.1064  0.4340
54158SOL     OW67284   1.379  11.070   6.642 -0.3013 -0.0635 -0.3083
54158SOL    HW167285   1.286  11.092   6.631 -0.0211  0.9982 -0.6581
54158SOL    HW267286   1.400  11.102   6.730 -0.4419 -0.9695  0.0635
54159SOL     OW67287   9.482  12.204   6.722 -0.5479 -0.0648  0.0384
54159SOL    HW167288   9.537  12.133   6.754 -1.2289 -0.5416  0.1705
54159SOL    HW267289   9.395  12.164   6.711 -0.5668  0.3262 -1.4618
54160SOL     OW67290   8.905   5.472  10.519  0.4764 -0.2830  0.5207
54160SOL    HW167291   8.953   5.525  10.456  2.0639 -0.1584  1.7846
54160SOL    HW267292   8.935   5.501  10.605 -1.5883 -0.4886  1.3795
54161SOL     OW67293   3.737  10.224   9.986 -0.4425  0.5286 -0.1840
54161SOL    HW167294   3.708  10.266  10.067 -0.2924  1.4381 -0.5881
54161SOL    HW267295   3.829  10.205  10.001 -0.4759  0.4621 -0.0534
54162SOL     OW67296   5.092  10.454   6.532  0.4668  0.7923  0.3021
54162SOL    HW167297   5.062  10.400   6.459 -2.0311  3.8326 -1.1446
54162SOL    HW267298   5.186  10.437   6.538  0.1337 -2.2293 -1.1959
54163SOL     OW67299   4.620   7.135   5.712  0.2766 -0.2396 -0.5482
54163SOL    HW167300   4.625   7.136   5.617 -1.9047  2.4286 -0.7575
54163SOL    HW267301   4.682   7.202   5.740 -0.2878  0.1456 -0.2075
54164SOL     OW67302   1.519  11.011   6.285  0.4752  0.0407 -0.6731
54164SOL    HW167303   1.428  11.041   6.284  0.1878 -0.8031 -0.3897
54164SOL    HW267304   1.554  11.038   6.200  0.0879  0.7290 -0.6275
54165SOL     OW67305  10.994   9.556   3.941 -0.3874  0.1003 -0.2389
54165SOL    HW167306  10.916   9.562   3.997 -1.5952 -1.1348 -1.6870
54165SOL    HW267307  10.973   9.486   3.879  2.9876 -2.1978  0.9620
54166SOL     OW67308  10.028  12.330   2.038  0.0213  0.2210  0.1873
54166SOL    HW167309  10.018  12.238   2.014 -0.6856  0.1950  0.5541
54166SOL    HW267310   9.969  12.376   1.979 -1.5347  0.1851  1.6424
54167SOL     OW67311  12.500   4.557   8.682  0.0440 -0.2651 -0.2710
54167SOL    HW167312  12.467   4.521   8.765  1.4349 -0.6538  0.1327
54167SOL    HW267313  12.535   4.482   8.635 -0.1850  0.0531 -0.9574
54168SOL     OW67314   5.962   9.516   5.692 -0.2546  0.4718 -0.3984
54168SOL    HW167315   5.896   9.581   5.714  0.2839  0.6392  0.7741
54168SOL    HW267316   6.042   9.566   5.675  0.0216  0.1628 -0.0410
54169SOL     OW67317   9.604   3.676   9.371  0.1871  0.2498  0.0260
54169SOL    HW167318   9.511   3.654   9.372  0.1553  0.3482 -0.6323
54169SOL    HW267319   9.648   3.591   9.371  0.1140  0.1990  0.7412
54170SOL     OW67320  10.621   5.099   8.880  0.0565  0.0141 -0.0765
54170SOL    HW167321  10.630   5.113   8.974  1.8566 -0.9451 -0.0591
54170SOL    HW267322  10.549   5.156   8.854  1.3622  2.5156  1.3949
54171SOL     OW67323   4.989   2.741   2.759 -0.6897 -0.0124  0.2716
54171SOL    HW167324   5.012   2.821   2.711 -0.4116  0.3508  1.0012
54171SOL    HW267325   4.894   2.736   2.754 -1.0904  2.3087  3.2184
54172SOL     OW67326  10.002   6.021   5.954  0.2297 -0.2307 -0.5872
54172SOL    HW167327  10.002   5.929   5.927 -0.2309 -0.0375 -1.2756
54172SOL    HW267328   9.978   6.019   6.047  0.4645 -0.8171 -0.5346
54173SOL     OW67329   8.140   2.015   1.639  0.1106  0.1536 -0.3757
54173SOL    HW167330   8.161   2.108   1.630 -0.1500  0.2027 -0.4899
54173SOL    HW267331   8.045   2.014   1.651  0.0369 -0.1357 -0.9624
54174SOL     OW67332   2.376   2.694   3.533  0.1276 -0.0387  0.5016
54174SOL    HW167333   2.310   2.652   3.477  0.3950 -0.1040  0.2287
54174SOL    HW267334   2.381   2.638   3.610 -0.8769  0.5306  0.9968
54175SOL     OW67335   0.044   2.437  12.101 -0.1066  0.4813  0.1489
54175SOL    HW167336   0.111   2.391  12.050  0.5448  0.4752  0.9947
54175SOL    HW267337  -0.013   2.367  12.134 -0.2087  0.4411 -0.1083
54176SOL     OW67338   5.592   1.998   3.613  0.0903 -0.7433  0.0542
54176SOL    HW167339   5.514   2.046   3.586  1.0359 -0.0089 -1.4993
54176SOL    HW267340   5.627   2.049   3.686  0.4813  0.3832 -0.8819
54177SOL     OW67341   2.083   2.077  10.099  0.1136 -0.3979  0.1514
54177SOL    HW167342   2.134   2.158  10.109  0.0317 -0.3157 -0.0949
54177SOL    HW267343   2.000   2.096  10.143  0.5160 -0.7395  1.0799
54178SOL     OW67344   1.943   1.054   8.078 -0.0262  0.0039  0.1925
54178SOL    HW167345   1.864   1.105   8.099 -0.9967 -1.1616 -0.5355
54178SOL    HW267346   2.006   1.080   8.145 -0.9138  1.2103  0.5947
54179SOL     OW67347   2.077   6.402   0.974  1.0473  0.1530 -0.2283
54179SOL    HW167348   1.989   6.416   0.938  0.0093 -1.8210  1.3520
54179SOL    HW267349   2.116   6.337   0.916  0.8504 -0.1631 -0.0072
54180SOL     OW67350   7.840  11.640   5.990  0.5571  0.2644  0.4303
54180SOL    HW167351   7.780  11.713   5.975 -0.9336 -0.9545  0.0966
54180SOL    HW267352   7.921  11.680   6.019  0.1188  2.1076 -0.7264
54181SOL     OW67353   0.562   1.230   3.888 -0.2375  0.9830 -0.0191
54181SOL    HW167354   0.567   1.285   3.810  1.0244  0.4241 -0.3564
54181SOL    HW267355   0.642   1.178   3.886 -0.3751  0.6775  1.4492
54182SOL     OW67356   8.101   8.202   7.535  0.3596  0.2994 -0.6936
54182SOL    HW167357   8.033   8.261   7.502  1.2214  0.1809 -2.7988
54182SOL    HW267358   8.181   8.254   7.530  0.8460 -0.4590 -0.8183
54183SOL     OW67359   8.605   4.778   0.406  0.3425 -0.9444  0.0562
54183SOL    HW167360   8.553   4.770   0.485  0.4057  0.5596  0.2754
54183SOL    HW267361   8.601   4.871   0.383  2.3532 -0.8883 -0.2970
54184SOL     OW67362   5.031   9.248   0.853 -0.3399  0.3366 -0.1239
54184SOL    HW167363   5.011   9.228   0.945 -1.4266  1.9819  0.0440
54184SOL    HW267364   5.126   9.237   0.847 -0.3763 -0.8400  0.9043
54185SOL     OW67365   7.384   2.233   0.357  0.4610  0.1566 -0.6216
54185SOL    HW167366   7.434   2.197   0.429 -2.2028 -1.8067  0.4122
54185SOL    HW267367   7.339   2.158   0.318 -3.7970  1.9026  0.3549
54186SOL     OW67368   2.260  12.337  12.333  0.4278 -0.4985  0.0104
54186SOL    HW167369   2.309  12.263  12.368 -0.1067 -0.4039  0.9905
54186SOL    HW267370   2.190  12.297  12.281 -0.1300 -0.7165  0.8973
54187SOL     OW67371  10.802   1.249  12.042  0.3547  0.1005  0.9474
54187SOL    HW167372  10.762   1.330  12.011  1.1925  0.1827  0.0381
54187SOL    HW267373  10.844   1.274  12.125  1.7055  0.9423  0.0509
54188SOL     OW67374   1.064   7.804   8.975  0.2014 -0.3746 -0.0808
54188SOL    HW167375   1.055   7.736   9.042 -0.2106 -1.4476 -1.1736
54188SOL    HW267376   1.017   7.769   8.899 -0.7439  1.5165 -0.4210
54189SOL     OW67377  10.809   8.082  12.422 -0.3693 -0.0291  0.1787
54189SOL    HW167378  10.820   8.164  12.469  1.9791  0.4097 -0.9531
54189SOL    HW267379  10.861   8.019  12.472 -0.6470 -0.3681  0.0449
54190SOL     OW67380   8.148   4.456   8.089 -0.2906  0.4779 -0.3538
54190SOL    HW167381   8.108   4.413   8.014 -1.6618 -0.1478  0.6770
54190SOL    HW267382   8.218   4.397   8.117  0.0627  0.5977 -0.9803
54191SOL     OW67383   8.510  12.578   5.493  0.0039 -0.6587  0.3218
54191SOL    HW167384   8.416  12.564   5.484 -0.4340  0.9458  1.7923
54191SOL    HW267385   8.520  12.616   5.580  2.2899 -2.8425  1.1274
54192SOL     OW67386  10.398   3.570   6.992 -0.3015  0.5275 -0.0051
54192SOL    HW167387  10.315   3.530   6.967 -0.3293  0.3603  0.3492
54192SOL    HW267388  10.464   3.507   6.962 -0.3959 -0.4310  1.7131
54193SOL     OW67389   0.476   3.293  11.708  0.0122  0.0875 -0.6295
54193SOL    HW167390   0.526   3.359  11.659  2.4828  0.8699  2.5660
54193SOL    HW267391   0.543   3.235  11.745 -1.5801 -0.1719  2.1082
54194SOL     OW67392   2.268   6.971   1.629  0.0302  0.3291  0.2351
54194SOL    HW167393   2.188   7.014   1.601  0.1261 -0.0448 -0.6436
54194SOL    HW267394   2.321   6.965   1.549  0.3480 -0.6846  0.5150
54195SOL     OW67395   3.592  10.213   5.642  0.3963 -0.0885 -0.3290
54195SOL    HW167396   3.656  10.262   5.591  1.4779  0.8133  1.7719
54195SOL    HW267397   3.553  10.278   5.700  0.7216 -1.4041  1.4252
54196SOL     OW67398  10.097   9.384   4.012  0.0793 -0.1666  0.2689
54196SOL    HW167399  10.169   9.440   3.981 -1.2629  0.9728 -0.9742
54196SOL    HW267400  10.031   9.446   4.043 -0.5087 -1.1728  1.0643
54197SOL     OW67401   5.918   5.805   3.050 -0.2490 -0.0557 -0.0513
54197SOL    HW167402   5.841   5.786   2.996  1.1048  1.4362 -2.7062
54197SOL    HW267403   5.906   5.896   3.076 -1.0990 -0.8640  2.7510
54198SOL     OW67404   3.169   5.436   1.682 -0.2787 -0.0362  0.4878
54198SOL    HW167405   3.213   5.510   1.642 -0.4375  0.5596  1.3909
54198SOL    HW267406   3.079   5.442   1.652 -0.1332 -0.2808 -0.0072
54199SOL     OW67407   0.417   6.849   3.138  0.5190 -0.0042 -0.0392
54199SOL    HW167408   0.332   6.868   3.100  1.1572 -1.0808 -2.1507
54199SOL    HW267409   0.421   6.902   3.217 -2.0646  0.1242  0.0712
54200SOL     OW67410   0.261   3.873   1.992 -0.1453  0.5161 -0.3066
54200SOL    HW167411   0.280   3.890   2.085  2.2362  0.7127 -0.7795
54200SOL    HW267412   0.264   3.778   1.984 -0.6764  0.4785 -0.1536
54201SOL     OW67413   7.689  12.302  12.577  0.3395  0.1305 -0.3127
54201SOL    HW167414   7.763  12.273  12.629  0.9624 -0.2375 -1.3637
54201SOL    HW267415   7.635  12.353  12.637  0.5287 -1.0806  0.9159
54202SOL     OW67416   6.631   7.368  11.681  0.2169  0.5418 -0.6236
54202SOL    HW167417   6.602   7.302  11.743 -0.6230  0.7054 -0.8248
54202SOL    HW267418   6.551   7.394  11.635  0.8079  0.4874 -1.7104
54203SOL     OW67419   6.968   1.861  12.282  0.2459  0.0793 -0.0074
54203SOL    HW167420   6.936   1.944  12.246 -0.0493  0.5382  1.2626
54203SOL    HW267421   6.904   1.837  12.348 -0.4515 -1.9425 -1.3296
54204SOL     OW67422   0.775  10.073   0.974 -0.1465  0.0871 -0.1818
54204SOL    HW167423   0.760  10.046   1.065 -0.4977  1.4773  0.1908
54204SOL    HW267424   0.721  10.150   0.962  1.8355  1.4741 -0.7602
54205SOL     OW67425   4.366  11.266  10.226  0.0527  0.6378  0.6107
54205SOL    HW167426   4.402  11.347  10.262 -0.9059  0.4938  2.0280
54205SOL    HW267427   4.435  11.230  10.171  2.0581  0.3890  3.1207
54206SOL     OW67428   1.171   2.557   7.962 -0.0443 -0.0757  0.0821
54206SOL    HW167429   1.181   2.466   7.989 -0.5935  0.4944  2.5137
54206SOL    HW267430   1.258   2.585   7.936  0.2118 -1.1740 -0.2618
54207SOL     OW67431   6.416   5.997  10.142  0.3713 -0.4334  0.1356
54207SOL    HW167432   6.412   6.091  10.158 -1.0138 -0.5028  0.3229
54207SOL    HW267433   6.440   5.959  10.227  0.6945 -0.2657  0.1177
54208SOL     OW67434   1.117   1.735   6.728  0.0993 -0.0982 -0.0285
54208SOL    HW167435   1.093   1.812   6.779  1.9064  0.0727  0.6470
54208SOL    HW267436   1.130   1.768   6.639 -1.0337 -0.0143 -0.1815
54209SOL     OW67437   3.679  12.377   0.428 -1.0220  0.2429  0.5569
54209SOL    HW167438   3.687  12.432   0.506  2.6968 -1.0021  1.2808
54209SOL    HW267439   3.598  12.328   0.441 -2.4311  2.6974  1.7302
54210SOL     OW67440   1.033   6.604   4.723 -0.9641  0.4404  0.6556
54210SOL    HW167441   0.962   6.613   4.659  0.3986 -0.9540 -1.1451
54210SOL    HW267442   1.032   6.511   4.746 -0.8609  0.7593  2.0167
54211SOL     OW67443  12.588   8.422   9.803  0.6693 -0.3061  0.5180
54211SOL    HW167444  12.659   8.413   9.867 -0.3431 -0.9470  1.6047
54211SOL    HW267445  12.598   8.346   9.746  0.0215 -1.2101  1.5658
54212SOL     OW67446   0.744  11.869   4.998  0.2800  0.0441 -0.4800
54212SOL    HW167447   0.757  11.823   5.081 -1.1408  0.1659 -0.1640
54212SOL    HW267448   0.788  11.953   5.009 -0.1995  0.2027  0.2967
54213SOL     OW67449   2.360  11.446   2.183  0.3453 -0.4807  0.1815
54213SOL    HW167450   2.271  11.445   2.216  0.4043 -0.5918  0.3421
54213SOL    HW267451   2.362  11.375   2.118  0.1677 -0.1125 -0.2327
54214SOL     OW67452  10.971   8.974   6.309  0.1804  0.9131 -0.1748
54214SOL    HW167453  10.960   8.953   6.402  1.1724  1.2312  0.0253
54214SOL    HW267454  10.909   8.916   6.264 -0.3667  0.8147  0.6849
54215SOL     OW67455  12.636  12.540   1.139 -0.2913  0.1298 -0.3772
54215SOL    HW167456  12.673  12.476   1.201 -0.9079  0.1919  0.0639
54215SOL    HW267457  12.541  12.529   1.148 -0.4487  1.9186  0.5757
54216SOL     OW67458   6.099   5.395  11.548 -0.2119  0.4856 -0.0691
54216SOL    HW167459   6.149   5.413  11.468  1.6141  0.3061  1.0010
54216SOL    HW267460   6.026   5.457  11.544 -0.9584 -0.3990 -2.5133
54217SOL     OW67461   0.852   3.607   0.198  0.2831 -0.0200 -0.5670
54217SOL    HW167462   0.791   3.560   0.255  0.2603 -0.0857 -0.6467
54217SOL    HW267463   0.920   3.544   0.177  0.8245  0.2872  0.1893
54218SOL     OW67464  10.086   6.594   8.955  0.0544  0.0808 -0.6614
54218SOL    HW167465  10.099   6.606   9.049 -3.8985  2.8600 -0.1816
54218SOL    HW267466  10.160   6.638   8.914  0.9650  0.3360  1.1770
54219SOL     OW67467   8.124   8.179   5.207 -0.1890  0.6598  0.2362
54219SOL    HW167468   8.118   8.248   5.273  0.2516  2.1888 -1.2483
54219SOL    HW267469   8.068   8.209   5.136 -1.3393 -1.3667  0.2246
54220SOL     OW67470   8.108   0.059   0.404 -0.5185  0.2860 -0.1079
54220SOL    HW167471   8.110   0.120   0.330  1.3532  1.8514  1.1661
54220SOL    HW267472   8.145  -0.022   0.369 -0.7538  0.6141 -1.1663
54221SOL     OW67473   1.228  10.553   3.376 -0.7321  0.0273  0.5579
54221SOL    HW167474   1.145  10.587   3.411 -1.7888 -0.8822 -0.9025
54221SOL    HW267475   1.211  10.460   3.361  0.8311 -0.3443  0.9189
54222SOL     OW67476  11.765   4.767   8.035  0.1807 -0.1623 -0.1397
54222SOL    HW167477  11.731   4.821   7.964  0.9893 -0.5948 -0.8673
54222SOL    HW267478  11.814   4.697   7.992 -2.5840 -2.8054  0.6765
54223SOL     OW67479   7.404   5.286   4.736 -0.0902 -0.0720 -0.2405
54223SOL    HW167480   7.382   5.324   4.651  0.3000  0.3003 -0.1757
54223SOL    HW267481   7.376   5.195   4.729  1.6782 -0.5736 -1.4654
54224SOL     OW67482   2.460   7.590   2.618 -0.3131 -0.9604  0.4943
54224SOL    HW167483   2.507   7.586   2.535 -1.3599 -1.0309 -0.1192
54224SOL    HW267484   2.481   7.676   2.654 -0.0408 -0.8376  0.0474
54225SOL     OW67485   6.101   7.022   2.218  0.2159  0.5437 -0.1247
54225SOL    HW167486   6.020   7.002   2.171  0.6544  1.1876 -1.1798
54225SOL    HW267487   6.164   7.043   2.149  1.0920  0.7303  0.7203
54226SOL     OW67488   0.971   2.918   2.005 -0.3336 -0.0692 -0.1813
54226SOL    HW167489   0.920   2.993   2.034 -0.8459  0.3031 -1.9777
54226SOL    HW267490   0.910   2.844   2.008  0.0241 -0.3410  1.0622
54227SOL     OW67491   7.243   8.763   5.358  0.1625 -0.0162  0.1461
54227SOL    HW167492   7.192   8.747   5.279 -0.4806 -2.0549  0.9051
54227SOL    HW267493   7.185   8.813   5.415  0.6003  1.3871 -0.6041
54228SOL     OW67494   4.579   1.354  11.756  0.1382 -0.0542  0.1947
54228SOL    HW167495   4.565   1.260  11.762 -1.4965  0.1727  0.4764
54228SOL    HW267496   4.634   1.365  11.678 -1.6663 -1.0997 -1.3089
54229SOL     OW67497   4.750   8.595   0.721  0.3681  0.2493 -0.3355
54229SOL    HW167498   4.831   8.646   0.708  1.3856 -0.7077  1.8669
54229SOL    HW267499   4.779   8.515   0.763 -1.5706 -0.9303 -1.1579
54230SOL     OW67500   4.915   2.716   2.111  0.4240  0.0748 -0.2160
54230SOL    HW167501   4.902   2.713   2.016  0.6337 -1.0080 -0.2335
54230SOL    HW267502   4.839   2.669   2.147 -0.4129  1.7286  0.2598
54231SOL     OW67503   8.419   0.493   5.371 -0.0263 -0.3968 -0.2447
54231SOL    HW167504   8.386   0.572   5.329  1.2979  1.2923  1.6770
54231SOL    HW267505   8.510   0.515   5.395  0.5789 -2.7171 -0.1413
54232SOL     OW67506   1.798   5.769  10.388 -0.2724  0.9057 -0.1046
54232SOL    HW167507   1.793   5.860  10.417  0.1865  0.0587  2.9296
54232SOL    HW267508   1.710   5.734  10.404  0.7839 -0.4556  3.9434
54233SOL     OW67509  12.617   6.936   9.163 -0.2590  0.0312 -0.1357
54233SOL    HW167510  12.530   6.964   9.192  0.3140  1.2178  0.5379
54233SOL    HW267511  12.666   6.923   9.244  0.6141  0.8341 -0.5214
54234SOL     OW67512   7.310   1.811   5.926  0.4195 -1.1284 -0.2669
54234SOL    HW167513   7.272   1.729   5.956 -0.7060 -0.1915  0.9610
54234SOL    HW267514   7.358   1.845   6.002 -0.5796  0.1834 -0.1917
54235SOL     OW67515   8.511   9.077   8.282  0.0607 -0.1549  0.7551
54235SOL    HW167516   8.436   9.133   8.264  0.3588 -0.5416 -2.3482
54235SOL    HW267517   8.496   9.043   8.370 -1.4923  2.6172  1.6623
54236SOL     OW67518   5.677  11.388   9.211 -0.0808 -0.5425  0.0904
54236SOL    HW167519   5.694  11.296   9.234  0.7709 -0.1543  1.1516
54236SOL    HW267520   5.750  11.436   9.251 -1.3409  0.7661  0.9565
54237SOL     OW67521   2.739   9.548   1.896  0.2332  0.4049 -0.6697
54237SOL    HW167522   2.712   9.573   1.808 -1.4640 -1.3211 -0.7028
54237SOL    HW267523   2.833   9.530   1.888 -0.0448 -0.5459 -2.3522
54238SOL     OW67524   7.723   5.015   2.185 -0.2202 -0.2366  0.4211
54238SOL    HW167525   7.714   5.067   2.105  0.9275 -1.3032 -0.4343
54238SOL    HW267526   7.707   4.925   2.157 -1.6469 -0.4322  1.7757
54239SOL     OW67527   1.385   6.105   2.762 -0.3849  0.0740  0.0523
54239SOL    HW167528   1.408   6.090   2.854 -0.8857 -1.7563 -0.0923
54239SOL    HW267529   1.353   6.021   2.731  0.9189  0.3061 -2.1659
54240SOL     OW67530   8.694   7.640   6.832  1.0598  0.0187  0.0663
54240SOL    HW167531   8.669   7.725   6.871  1.7815  0.7356 -0.9786
54240SOL    HW267532   8.713   7.584   6.907 -0.5347  0.4136  0.8193
54241SOL     OW67533   1.513   0.596   6.658 -0.0138  0.7614 -0.5515
54241SOL    HW167534   1.421   0.574   6.646 -0.1257  1.8685 -1.9584
54241SOL    HW267535   1.512   0.682   6.700  0.4078  0.2120  0.6369
54242SOL     OW67536   6.841  11.079   8.356  0.0907 -0.5586  0.1073
54242SOL    HW167537   6.769  11.117   8.305 -0.1871 -1.3032 -0.0815
54242SOL    HW267538   6.845  11.132   8.435 -1.1459 -0.9159  0.4385
54243SOL     OW67539  10.425   4.183   6.264  0.2789 -0.3376  0.0321
54243SOL    HW167540  10.491   4.165   6.331  1.3371  2.4743 -0.1099
54243SOL    HW267541  10.462   4.146   6.184 -0.4184 -2.6160  0.6930
54244SOL     OW67542   8.028   0.846   8.880  0.2970  0.0136 -0.0939
54244SOL    HW167543   7.946   0.864   8.926  0.2493 -0.6604  0.0945
54244SOL    HW267544   8.085   0.809   8.947  0.2846 -0.8309 -0.5439
54245SOL     OW67545   0.945   4.163  10.215  0.4397  0.3386 -0.7696
54245SOL    HW167546   0.971   4.136  10.303 -0.2223  0.8976 -0.3958
54245SOL    HW267547   0.935   4.081  10.167  1.3119  0.0531 -0.4759
54246SOL     OW67548   3.427   0.160   8.616  0.4142 -0.4281  0.2249
54246SOL    HW167549   3.453   0.129   8.703  2.7970 -1.2866 -0.7174
54246SOL    HW267550   3.431   0.082   8.561  0.9343  0.4717 -1.0461
54247SOL     OW67551   6.641   9.001   5.280  0.3176  0.2273  0.0749
54247SOL    HW167552   6.658   9.085   5.323  0.3597 -0.0157  0.5327
54247SOL    HW267553   6.602   9.026   5.196  1.5826  0.7548 -0.3942
54248SOL     OW67554   1.117   3.045   6.126  0.4830 -0.0862 -0.6515
54248SOL    HW167555   1.183   3.000   6.074  1.8014  0.1255  0.7518
54248SOL    HW267556   1.167   3.110   6.176 -0.6496 -0.5155  1.1237
54249SOL     OW67557  12.382   4.761   6.919 -0.5003  0.2636  0.1573
54249SOL    HW167558  12.382   4.841   6.866 -1.3428  0.4335  0.3988
54249SOL    HW267559  12.474   4.735   6.922 -0.4511  0.1701 -1.4894
54250SOL     OW67560   8.190   5.604   3.586  0.1303  0.3619  0.3096
54250SOL    HW167561   8.279   5.572   3.603  0.4796  1.7965  1.3141
54250SOL    HW267562   8.188   5.619   3.492  1.1593  0.8910  0.3626
54251SOL     OW67563   2.179   8.947   9.413 -0.4131 -0.1569  0.1404
54251SOL    HW167564   2.145   8.888   9.346  0.6920 -1.8099  0.9719
54251SOL    HW267565   2.122   8.933   9.489 -0.3982  0.1657  0.2142
54252SOL     OW67566  10.514   6.065   4.912 -0.2688 -0.1389 -0.1046
54252SOL    HW167567  10.449   6.008   4.871 -0.8005 -0.3787  1.0257
54252SOL    HW267568  10.569   6.005   4.963  0.4754  0.1313 -0.5859
54253SOL     OW67569  12.019  12.300   1.992 -0.2983 -0.1738 -0.7441
54253SOL    HW167570  11.999  12.297   2.086 -0.8049  0.2937 -0.8284
54253SOL    HW267571  12.062  12.385   1.980  0.0425 -0.3640 -0.8886
54254SOL     OW67572   3.431   8.068   8.630 -0.1832 -0.5627  0.1674
54254SOL    HW167573   3.405   8.115   8.710  2.2169  0.1345  0.5983
54254SOL    HW267574   3.507   8.016   8.656 -0.1906 -1.3908 -1.3597
54255SOL     OW67575   6.714   3.068  10.123  0.1862  0.2284 -0.7497
54255SOL    HW167576   6.677   3.129  10.186  0.9348  0.3109 -0.3778
54255SOL    HW267577   6.682   3.098  10.038 -1.9738 -0.7019 -0.3226
54256SOL     OW67578   9.786   1.317  11.623  0.0346 -0.0631  0.2244
54256SOL    HW167579   9.878   1.317  11.650  0.3627  0.7704 -0.8315
54256SOL    HW267580   9.745   1.251  11.679  1.3532 -0.7545  0.4233
54257SOL     OW67581   1.284   0.359  12.169 -0.3630  0.0143 -0.1624
54257SOL    HW167582   1.201   0.330  12.131 -0.0147 -2.6352  0.8899
54257SOL    HW267583   1.302   0.297  12.239  1.2257  2.1137  1.4364
54258SOL     OW67584   5.681  10.701   7.938  0.0970  0.4053  0.9878
54258SOL    HW167585   5.737  10.778   7.947 -0.7119  0.8280  2.7572
54258SOL    HW267586   5.717  10.638   8.000 -0.6918  0.2501  1.2964
54259SOL     OW67587   6.204  10.281  11.347 -0.2549 -0.5423 -0.6590
54259SOL    HW167588   6.227  10.252  11.259 -0.0424 -0.2972 -0.6851
54259SOL    HW267589   6.257  10.359  11.361 -0.4921 -0.4222 -0.4205
54260SOL     OW67590   3.046   0.753   4.356  0.1471 -0.3443  0.4476
54260SOL    HW167591   3.058   0.843   4.327 -1.6612 -0.4737 -0.8808
54260SOL    HW267592   3.119   0.738   4.417  2.3994  0.9242 -1.7340
54261SOL     OW67593  11.797   5.901   3.337  0.0183  0.2533 -1.0436
54261SOL    HW167594  11.746   5.866   3.263  0.0379 -1.6474 -0.2244
54261SOL    HW267595  11.828   5.823   3.383  1.3387  1.3918  0.0777
54262SOL     OW67596   9.317   1.665   2.988  0.2699 -0.1749 -0.1034
54262SOL    HW167597   9.302   1.579   3.025  1.2419 -0.4393 -0.2952
54262SOL    HW267598   9.250   1.721   3.028 -0.3443 -1.0000  0.0445
54263SOL     OW67599   5.251   9.613   7.340 -0.1366  0.0195 -0.4053
54263SOL    HW167600   5.321   9.561   7.381 -1.6293 -1.5364  0.2679
54263SOL    HW267601   5.233   9.567   7.258 -1.2599 -0.3624  0.0461
54264SOL     OW67602   7.243   7.065  12.609 -0.6253  0.1159  0.4679
54264SOL    HW167603   7.186   7.141  12.596  0.5365  0.6085 -2.4867
54264SOL    HW267604   7.320   7.101  12.655 -0.3932  0.6136 -0.2861
54265SOL     OW67605   5.180   8.173   9.965  0.2860  0.1362 -0.5032
54265SOL    HW167606   5.150   8.134  10.047  0.0427  0.0704 -0.6207
54265SOL    HW267607   5.180   8.100   9.903  0.0330  0.2779 -0.6714
54266SOL     OW67608  12.594  10.434   3.910 -0.4649  0.1331 -0.0880
54266SOL    HW167609  12.511  10.426   3.863 -0.9603 -0.2098  0.8367
54266SOL    HW267610  12.640  10.505   3.865 -1.9139  1.3997  0.3651
54267SOL     OW67611  12.222   3.367   7.141  0.5233  0.1412  0.1768
54267SOL    HW167612  12.279   3.426   7.190  0.9068 -0.5555  0.5774
54267SOL    HW267613  12.168   3.325   7.208 -0.3791  0.6903 -0.1847
54268SOL     OW67614   9.093   9.069   2.231 -0.6295  0.4458 -0.1585
54268SOL    HW167615   8.998   9.083   2.234 -0.4220  2.1871 -0.5999
54268SOL    HW267616   9.116   9.040   2.319 -1.5637  0.0770 -0.0252
54269SOL     OW67617  12.410   9.691   6.600 -0.3245 -0.2763 -0.7386
54269SOL    HW167618  12.322   9.676   6.564 -1.3889  1.0266  1.1601
54269SOL    HW267619  12.423   9.785   6.594  0.0201 -0.1904  1.0042
54270SOL     OW67620   6.186  10.525  10.766 -0.1115  0.6199  0.5407
54270SOL    HW167621   6.131  10.558  10.695 -0.1516 -1.6306 -0.5889
54270SOL    HW267622   6.208  10.436  10.738  0.0375 -0.2730  3.2758
54271SOL     OW67623  12.531   5.467   6.867  0.1657 -0.0838 -0.2084
54271SOL    HW167624  12.510   5.537   6.928 -0.9119 -0.1006 -0.5423
54271SOL    HW267625  12.515   5.504   6.781 -2.4479 -1.3202 -0.3451
54272SOL     OW67626   0.771   7.308   3.226  0.2455 -0.2671 -0.8544
54272SOL    HW167627   0.709   7.247   3.266 -0.9703  1.5335  0.1566
54272SOL    HW267628   0.724   7.343   3.150  0.7782 -0.2732 -1.1932
54273SOL     OW67629  12.125   9.253  11.082  0.0028 -0.3166 -0.1703
54273SOL    HW167630  12.131   9.340  11.041  1.6800 -0.1725  0.3220
54273SOL    HW267631  12.163   9.265  11.169 -0.6533 -1.3421  0.2762
54274SOL     OW67632   8.877   7.593  10.325 -0.1722  0.3145  0.0094
54274SOL    HW167633   8.880   7.642  10.408  1.7622 -0.8635  0.7073
54274SOL    HW267634   8.817   7.521  10.341 -1.7344  1.4556 -0.4771
54275SOL     OW67635   8.870   2.122  11.861 -0.5250 -0.2792 -0.9378
54275SOL    HW167636   8.779   2.093  11.860 -0.8617  0.7223 -0.7987
54275SOL    HW267637   8.878   2.171  11.943 -0.2373  0.7634 -1.5794
54276SOL     OW67638   7.339   0.694   8.127  0.2253 -0.2209  0.9277
54276SOL    HW167639   7.291   0.617   8.157  0.6211 -0.2748  1.4286
54276SOL    HW267640   7.286   0.728   8.054  1.3976 -2.5225 -1.1771
54277SOL     OW67641   2.535   2.063  11.872 -0.1619  0.1024 -0.0307
54277SOL    HW167642   2.613   2.014  11.845  0.4990  0.6085  0.9032
54277SOL    HW267643   2.463   2.000  11.863  0.1590 -0.0400 -1.9774
54278SOL     OW67644   0.828   2.939   8.843  0.7819 -0.1833 -0.0761
54278SOL    HW167645   0.838   2.952   8.749 -0.3624 -0.8180 -0.3047
54278SOL    HW267646   0.844   2.845   8.856  1.2669 -0.0387  0.4193
54279SOL     OW67647  12.572   8.877  10.048 -0.2530  0.2368  0.3486
54279SOL    HW167648  12.662   8.903  10.029  0.2571 -2.1269 -0.8091
54279SOL    HW267649  12.572   8.859  10.142  0.3778  0.6630  0.4357
54280SOL     OW67650   3.116   3.366   8.835  0.0536  0.6391 -0.3893
54280SOL    HW167651   3.187   3.402   8.889 -1.4681  1.3202  1.2869
54280SOL    HW267652   3.062   3.442   8.813 -0.7912 -0.0192 -0.6293
54281SOL     OW67653   2.469   7.423   7.049 -0.6364 -0.0125 -0.0413
54281SOL    HW167654   2.491   7.453   6.961  1.9825 -1.2798  0.0855
54281SOL    HW267655   2.484   7.499   7.106 -0.3193  0.2405 -0.4628
54282SOL     OW67656   7.015   5.639  12.055 -0.2030 -0.6972 -0.1399
54282SOL    HW167657   7.109   5.647  12.073 -0.0270 -1.0561 -0.8873
54282SOL    HW267658   6.986   5.729  12.038 -0.1954 -0.4596  0.9976
54283SOL     OW67659  12.252   5.422   6.209 -0.5120  0.5796  0.4800
54283SOL    HW167660  12.254   5.332   6.176 -0.3972  0.4119  0.9388
54283SOL    HW267661  12.335   5.460   6.180 -0.5547  0.5322  0.2958
54284SOL     OW67662   8.679  10.676   1.066 -0.0253  0.5925  0.1912
54284SOL    HW167663   8.721  10.603   1.020  2.3990  0.4451  2.3925
54284SOL    HW267664   8.685  10.750   1.005 -0.1062 -0.3821 -1.0399
54285SOL     OW67665   3.284   2.653   4.232  0.5397 -0.3379 -0.5606
54285SOL    HW167666   3.271   2.748   4.231  2.0254 -0.0291  2.1411
54285SOL    HW267667   3.204   2.618   4.271  0.8748  0.0176  0.4602
54286SOL     OW67668   3.603   2.093   9.738  0.3405 -0.0089 -0.5000
54286SOL    HW167669   3.512   2.088   9.711  0.6931  0.1390 -1.8083
54286SOL    HW267670   3.636   2.003   9.729  0.2097 -0.1546  0.4219
54287SOL     OW67671   8.591   8.226   4.602  0.1648 -1.0363 -0.3584
54287SOL    HW167672   8.537   8.151   4.577  1.4653 -2.0652 -0.1836
54287SOL    HW267673   8.652   8.192   4.668  1.5222 -0.1293 -1.0720
54288SOL     OW67674   9.382   2.574   5.773  0.0375  0.3778 -0.1745
54288SOL    HW167675   9.448   2.643   5.781 -0.1016  0.4482  0.4122
54288SOL    HW267676   9.301   2.620   5.751 -0.4518  0.6243  1.8901
54289SOL     OW67677   6.190   9.667   3.289 -0.0134  0.4824 -0.3065
54289SOL    HW167678   6.174   9.717   3.369  1.2304  2.1173 -1.0328
54289SOL    HW267679   6.249   9.596   3.318 -0.7235  0.1862  0.4740
54290SOL     OW67680   6.512   9.818   1.586 -0.2578 -0.3758  0.0781
54290SOL    HW167681   6.485   9.738   1.542  2.2723 -1.4692  0.3074
54290SOL    HW267682   6.477   9.810   1.675 -1.3860 -0.4081 -0.3521
54291SOL     OW67683  10.019   7.850   8.014 -0.5606  0.3071 -0.2371
54291SOL    HW167684   9.936   7.899   8.007 -0.7101 -0.1100 -2.1366
54291SOL    HW267685  10.086   7.914   7.989 -0.7994 -0.4270 -3.2076
54292SOL     OW67686   1.426  12.067   0.154 -0.6735  0.5666 -0.6754
54292SOL    HW167687   1.364  12.056   0.083 -1.4910  1.3494 -0.1130
54292SOL    HW267688   1.392  12.141   0.204  0.0929  0.2807  0.3060
54293SOL     OW67689   6.351   1.773  11.645 -0.4166 -0.2286 -0.0213
54293SOL    HW167690   6.331   1.706  11.580  3.4564 -1.8455  0.1460
54293SOL    HW267691   6.406   1.727  11.709  1.7741  2.8953  0.5302
54294SOL     OW67692   2.407   0.165   5.371  0.5385 -0.3305 -0.0088
54294SOL    HW167693   2.346   0.095   5.346 -1.1958  0.4790  1.6806
54294SOL    HW267694   2.378   0.241   5.320 -0.2951  0.2133  1.2380
54295SOL     OW67695   4.174   1.934   6.981  0.1262  0.3597 -0.2122
54295SOL    HW167696   4.265   1.954   6.962  0.4608 -0.4358  0.5286
54295SOL    HW267697   4.163   1.951   7.074 -0.2836 -0.2405 -0.1377
54296SOL     OW67698   3.114   4.677   6.497 -0.3214 -0.0545  0.2930
54296SOL    HW167699   3.050   4.635   6.438 -1.5359  0.8736  0.8937
54296SOL    HW267700   3.096   4.638   6.582 -0.4592  0.5904  0.5674
54297SOL     OW67701   6.606   0.600  11.278  0.1633 -0.2681 -0.0817
54297SOL    HW167702   6.530   0.568  11.228 -0.4906 -0.5752  1.0835
54297SOL    HW267703   6.681   0.555  11.239 -0.5806 -2.1834  0.6115
54298SOL     OW67704   2.227   9.451   0.271 -0.1444  0.0959 -0.3340
54298SOL    HW167705   2.164   9.386   0.240 -0.6255  0.3833  0.0328
54298SOL    HW267706   2.218   9.524   0.210  1.2159 -0.6191 -1.4422
54299SOL     OW67707   8.490   7.133   2.175 -0.5266  0.0119  0.2190
54299SOL    HW167708   8.574   7.116   2.217  0.6269  0.8141 -1.6110
54299SOL    HW267709   8.443   7.188   2.237  0.7009  0.3649  0.8797
54300SOL     OW67710   4.825  11.582   0.825 -0.2027  0.1062 -0.4947
54300SOL    HW167711   4.898  11.519   0.825 -0.9167 -0.7618 -1.3225
54300SOL    HW267712   4.867  11.668   0.817  0.7605 -0.3355 -0.2955
54301SOL     OW67713   1.691   5.905   5.171  0.5426  0.0206 -0.1139
54301SOL    HW167714   1.746   5.836   5.135  0.7586  0.2103 -0.1489
54301SOL    HW267715   1.752   5.960   5.220  0.2074 -0.4267  0.8340
54302SOL     OW67716   6.036   3.018   2.282  0.0882 -0.3301  0.3690
54302SOL    HW167717   5.958   3.027   2.226 -0.2173 -0.7617  0.7233
54302SOL    HW267718   6.109   3.022   2.220 -0.2094  0.0355  0.0261
54303SOL     OW67719   3.500   9.293   1.524  0.4824  0.1302  0.2427
54303SOL    HW167720   3.516   9.290   1.429  1.7654  3.3085  0.2414
54303SOL    HW267721   3.588   9.294   1.563  0.0125 -3.0110  1.7039
54304SOL     OW67722  11.756   7.110   8.417 -0.3789  0.2700 -0.2525
54304SOL    HW167723  11.679   7.095   8.362 -0.6784 -1.5852  0.5886
54304SOL    HW267724  11.738   7.194   8.460 -1.4032  0.4227 -0.9338
54305SOL     OW67725   0.598   5.963   9.269  0.3652  0.7185  0.6787
54305SOL    HW167726   0.657   5.889   9.283  0.6932  1.1630  1.7924
54305SOL    HW267727   0.655   6.035   9.244  0.2561  1.0305  1.3023
54306SOL     OW67728  11.153   3.859   6.007 -0.4148 -0.4848 -0.5194
54306SOL    HW167729  11.192   3.774   6.026 -0.4931 -0.4172 -0.0397
54306SOL    HW267730  11.153   3.905   6.091  0.5943  0.3959 -0.9887
54307SOL     OW67731  11.492   0.361   4.525  0.0387  0.5344 -0.1057
54307SOL    HW167732  11.397   0.348   4.524  0.1552 -0.6265  0.9152
54307SOL    HW267733  11.526   0.287   4.576  1.4385  1.2657  0.0845
54308SOL     OW67734  12.249   7.909  12.560  0.2191 -0.2651 -0.2416
54308SOL    HW167735  12.159   7.929  12.537  0.2680 -0.0804 -0.2772
54308SOL    HW267736  12.261   7.817  12.535 -0.3468 -0.6734  0.9692
54309SOL     OW67737   1.689   0.077   0.955 -0.3879 -0.1001 -1.0733
54309SOL    HW167738   1.777   0.112   0.942 -0.0903 -0.4427 -0.0748
54309SOL    HW267739   1.662   0.048   0.868  1.5420 -2.3536 -1.0207
54310SOL     OW67740  11.223   3.227  12.519 -0.2103  0.1820 -0.8087
54310SOL    HW167741  11.292   3.169  12.550 -3.2017 -3.2973 -0.0115
54310SOL    HW267742  11.238   3.232  12.424  0.9487 -0.7247 -0.7060
54311SOL     OW67743  11.034  12.161   3.212  0.1781  0.0444 -0.1591
54311SOL    HW167744  11.065  12.179   3.124  0.2461 -2.8592 -0.8177
54311SOL    HW267745  11.099  12.202   3.270  0.7398  1.0084 -1.4339
54312SOL     OW67746   2.039   3.045  10.709 -0.4762 -0.5578  0.0485
54312SOL    HW167747   2.086   3.098  10.644  0.4370 -0.9398  0.3805
54312SOL    HW267748   2.108   3.000  10.757 -1.2351 -3.2623 -1.2085
54313SOL     OW67749   6.515   1.318   3.752 -0.1532  0.0118 -0.3298
54313SOL    HW167750   6.603   1.287   3.773 -0.7172 -0.9037  0.7203
54313SOL    HW267751   6.526   1.413   3.739  0.7743  0.1353  1.0995
54314SOL     OW67752   8.635   8.317  12.515  0.7532 -0.2707 -0.0785
54314SOL    HW167753   8.610   8.409  12.524  1.8998  0.0982 -0.3988
54314SOL    HW267754   8.692   8.300  12.590  1.0696 -0.5310 -0.3755
54315SOL     OW67755   3.851   5.155   9.302 -0.2784 -0.1538  0.2998
54315SOL    HW167756   3.824   5.063   9.309  1.6572 -1.0823 -2.7214
54315SOL    HW267757   3.946   5.153   9.313  0.0542  1.1256 -1.8222
54316SOL     OW67758   5.956  10.096   8.933  0.3029 -0.6036 -0.0897
54316SOL    HW167759   5.972  10.172   8.990  0.8042 -0.0505 -0.9402
54316SOL    HW267760   5.940  10.024   8.993 -1.1861  0.3763  0.7354
54317SOL     OW67761   5.948   7.917   7.162  0.1331  0.0480 -0.2775
54317SOL    HW167762   6.013   7.882   7.223  0.4569 -0.7961 -1.0713
54317SOL    HW267763   5.982   7.892   7.075 -1.5718 -1.0166 -0.6767
54318SOL     OW67764   4.882   5.308   4.345 -0.4515  0.3669  0.4137
54318SOL    HW167765   4.932   5.308   4.426  0.9090  0.8833 -0.3895
54318SOL    HW267766   4.854   5.217   4.334  1.2639 -0.1906  0.3521
54319SOL     OW67767   8.280  12.335   7.439 -0.1307 -0.3183 -0.4016
54319SOL    HW167768   8.258  12.414   7.388 -0.2468 -0.3989 -0.4776
54319SOL    HW267769   8.333  12.282   7.379  1.0402  0.2737  0.0723
54320SOL     OW67770   2.673   7.331   1.891  0.2639  0.3019  0.1705
54320SOL    HW167771   2.583   7.319   1.921 -0.8681  2.3194 -2.0631
54320SOL    HW267772   2.711   7.393   1.953 -0.2423  0.2831  0.5028
54321SOL     OW67773   5.373   8.054   7.142 -0.0784 -0.1977 -0.2938
54321SOL    HW167774   5.456   8.058   7.094  0.4867  1.5801  0.7244
54321SOL    HW267775   5.394   8.013   7.225 -0.3004 -0.1272 -0.2007
54322SOL     OW67776   5.666   8.522  12.363 -0.5252  0.0950 -0.0169
54322SOL    HW167777   5.730   8.509  12.293 -0.5392  2.2887 -0.4988
54322SOL    HW267778   5.685   8.451  12.425  2.4261  0.6730 -0.0933
54323SOL     OW67779   0.474   7.942  11.512  0.0382  0.6796 -0.5824
54323SOL    HW167780   0.563   7.964  11.484 -0.5959  1.9884 -1.6885
54323SOL    HW267781   0.470   7.847  11.504  1.7940  0.4250  0.9698
54324SOL     OW67782   5.442   6.139   2.575 -0.0139  0.1624  0.0666
54324SOL    HW167783   5.483   6.142   2.662  1.4746  4.0112 -0.5812
54324SOL    HW267784   5.490   6.071   2.528  1.7485  0.5976  1.1528
54325SOL     OW67785   7.137   7.574   4.075  0.3996  0.2518  0.2938
54325SOL    HW167786   7.153   7.653   4.127 -1.5588  1.6885 -1.1306
54325SOL    HW267787   7.111   7.607   3.989 -1.0767 -1.9387 -0.1656
54326SOL     OW67788   6.297   6.167   3.206  0.1339 -0.0111 -0.0766
54326SOL    HW167789   6.265   6.093   3.258  1.2562 -0.6767 -0.2980
54326SOL    HW267790   6.244   6.165   3.127 -0.8172  0.3206  0.5266
54327SOL     OW67791   1.134   7.451   4.990 -0.0958 -0.1288  0.1879
54327SOL    HW167792   1.190   7.407   5.054 -0.1956  0.8399  0.9530
54327SOL    HW267793   1.188   7.521   4.954 -0.1824 -0.3978 -0.4781
54328SOL     OW67794   4.924  12.251   4.054  0.2332 -0.0812  0.0951
54328SOL    HW167795   4.880  12.181   4.102 -0.7513 -0.4226 -1.2355
54328SOL    HW267796   4.961  12.208   3.977 -2.2417  1.0858 -1.9150
54329SOL     OW67797   8.744   2.339   9.846  0.0680  0.3636  0.2327
54329SOL    HW167798   8.677   2.275   9.871 -1.3662  0.3988 -3.0482
54329SOL    HW267799   8.820   2.316   9.901 -0.9227 -3.0527  0.4276
54330SOL     OW67800   2.716   0.628   1.387 -0.0043 -0.4977 -0.0977
54330SOL    HW167801   2.802   0.651   1.353 -0.1987  2.1008  0.9985
54330SOL    HW267802   2.691   0.550   1.336  1.5348  0.6347 -2.8002
54331SOL     OW67803  10.252   8.397   8.168 -0.4312 -0.3745  0.1172
54331SOL    HW167804  10.309   8.457   8.121  1.4943 -2.5862 -0.5708
54331SOL    HW267805  10.301   8.373   8.247 -0.7422 -1.6558 -0.0457
54332SOL     OW67806   9.018   7.317  12.464  0.5392  0.7739  0.3511
54332SOL    HW167807   8.965   7.268  12.527 -1.4204 -0.8161 -2.3011
54332SOL    HW267808   8.966   7.395  12.444  1.3185  1.4548  0.9030
54333SOL     OW67809   5.904   6.669   8.574 -0.2698 -0.0356  0.1246
54333SOL    HW167810   5.949   6.728   8.634  2.6907 -2.4084  0.4549
54333SOL    HW267811   5.897   6.719   8.492  0.0646  1.5289  1.0143
54334SOL     OW67812   7.266   4.525  11.459  0.0089 -0.4432 -0.0125
54334SOL    HW167813   7.344   4.581  11.460  0.0069 -0.4343  0.9845
54334SOL    HW267814   7.194   4.584  11.481 -0.4134 -0.3001 -1.6340
54335SOL     OW67815   6.772   9.864   5.044  0.1294 -0.3682 -0.5056
54335SOL    HW167816   6.725   9.900   4.969  1.0030  0.0833 -0.8500
54335SOL    HW267817   6.846   9.923   5.056  0.0060 -0.4319  0.7179
54336SOL     OW67818   1.792   2.176   3.011  0.1745  0.5137 -0.5783
54336SOL    HW167819   1.758   2.156   2.924 -0.6981 -0.8856  0.0296
54336SOL    HW267820   1.823   2.092   3.044 -3.1270  0.0405  1.9297
54337SOL     OW67821  11.644   6.442   5.211  0.2789  0.4413 -0.0498
54337SOL    HW167822  11.726   6.399   5.234  1.1620  1.1696 -1.6874
54337SOL    HW267823  11.628   6.505   5.282  0.5183 -0.4899  0.8467
54338SOL     OW67824   3.218   5.391   6.374 -0.4068 -0.2580  0.6925
54338SOL    HW167825   3.140   5.387   6.429 -1.1258  0.2426 -0.2643
54338SOL    HW267826   3.229   5.484   6.355 -0.4660 -0.4706 -0.4156
54339SOL     OW67827   5.681   1.079   9.151 -0.1301 -0.2447 -0.0006
54339SOL    HW167828   5.731   1.069   9.232 -1.4760  0.6934  0.9777
54339SOL    HW267829   5.684   1.173   9.132  0.8614 -0.5464 -1.5222
54340SOL     OW67830   0.061   4.987   8.106 -0.1104 -0.3722 -0.3138
54340SOL    HW167831   0.073   4.925   8.178  0.3162  0.5984  0.4747
54340SOL    HW267832   0.133   5.049   8.116 -2.6119  2.5217  1.2972
54341SOL     OW67833   6.193   5.339   8.561  0.2321 -0.1736  0.0037
54341SOL    HW167834   6.239   5.414   8.597  0.4277 -0.1209 -0.3519
54341SOL    HW267835   6.107   5.373   8.534  0.4073 -0.0217 -0.3752
54342SOL     OW67836  12.224   0.293   4.896 -0.0659 -0.0027 -0.5285
54342SOL    HW167837  12.160   0.286   4.967  0.8858  2.3327  0.6398
54342SOL    HW267838  12.270   0.209   4.897 -0.2253 -0.1046  1.4813
54343SOL     OW67839   9.632  12.376   2.548 -0.0908 -0.6489 -0.3939
54343SOL    HW167840   9.577  12.438   2.501 -0.2040  0.1564  0.7506
54343SOL    HW267841   9.657  12.423   2.628  0.2833 -1.8748  0.2271
54344SOL     OW67842   3.423   2.171   5.275 -0.5223 -0.3741 -0.4409
54344SOL    HW167843   3.499   2.213   5.315  1.6379 -0.4021 -4.1258
54344SOL    HW267844   3.454   2.086   5.245 -1.8723 -0.2767 -2.3201
54345SOL     OW67845   0.015   5.870  10.401 -0.4575  0.5393  0.3087
54345SOL    HW167846  -0.059   5.813  10.421 -0.2317 -1.1930 -3.1418
54345SOL    HW267847   0.093   5.818  10.424 -0.2663  0.9837  0.6878
54346SOL     OW67848  11.464   5.947   3.263  0.2753  0.1367 -0.4630
54346SOL    HW167849  11.472   5.962   3.357 -0.3205 -0.0200 -0.3881
54346SOL    HW267850  11.465   5.851   3.254 -0.0196  0.1443 -0.5859
54347SOL     OW67851   0.290   6.606  12.505  0.0949  0.0030  0.0742
54347SOL    HW167852   0.215   6.563  12.546 -0.7150  0.3294 -0.9985
54347SOL    HW267853   0.258   6.632  12.419  0.9001  1.7409  0.2610
54348SOL     OW67854   4.290   9.820  10.233  0.2730 -0.3308  0.2789
54348SOL    HW167855   4.377   9.858  10.217 -0.1674  0.2532 -0.8639
54348SOL    HW267856   4.308   9.731  10.263  1.2735 -0.6967 -1.2611
54349SOL     OW67857   1.531   9.433   6.370 -0.6469  0.1006  0.5919
54349SOL    HW167858   1.618   9.396   6.352 -1.0529 -0.9935  0.7653
54349SOL    HW267859   1.546   9.500   6.436  0.2254  0.7863 -0.2827
54350SOL     OW67860   7.068   8.581   6.728  0.8593  0.2043  0.3904
54350SOL    HW167861   7.145   8.563   6.674 -0.6624 -0.4139 -1.7072
54350SOL    HW267862   7.059   8.676   6.725  1.4865  0.2780  0.6064
54351SOL     OW67863   3.460   3.454   2.908  0.0647  1.0186 -0.2383
54351SOL    HW167864   3.434   3.532   2.956  1.1395  0.5080  1.2646
54351SOL    HW267865   3.378   3.413   2.881 -0.5227  3.1390 -1.9631
54352SOL     OW67866   0.776   4.342   1.601 -0.5130  0.0171 -0.0289
54352SOL    HW167867   0.852   4.324   1.657 -0.9612 -0.4766  0.4397
54352SOL    HW267868   0.813   4.380   1.521  0.0586  2.0516  1.1271
54353SOL     OW67869  12.268   6.807   6.718 -0.4675  0.1313 -0.0542
54353SOL    HW167870  12.242   6.766   6.635 -0.1723  1.5380 -0.8683
54353SOL    HW267871  12.268   6.901   6.700  3.5148  0.3990  0.2896
54354SOL     OW67872  11.260  12.332   8.322  0.1713  0.2056 -0.2112
54354SOL    HW167873  11.266  12.421   8.355 -1.5754 -0.0302  0.8553
54354SOL    HW267874  11.301  12.335   8.235  0.1865  2.0215 -0.1677
54355SOL     OW67875   3.896   7.487  10.592 -0.4447  0.1833 -0.3306
54355SOL    HW167876   3.960   7.521  10.654 -0.5143  2.2084 -1.3122
54355SOL    HW267877   3.813   7.527  10.617 -0.6086  0.4829 -1.2945
54356SOL     OW67878   0.029   3.378  11.902 -0.0174  0.0250 -0.0526
54356SOL    HW167879   0.081   3.310  11.859  0.7571  1.9039 -2.2516
54356SOL    HW267880  -0.059   3.368  11.865 -0.0090 -0.0120 -0.0645
54357SOL     OW67881   6.803   5.254   8.912 -0.0878  0.0704 -0.3487
54357SOL    HW167882   6.762   5.217   8.991  0.8211  0.0421  0.1208
54357SOL    HW267883   6.729   5.273   8.854 -0.7520 -0.1783  0.3913
54358SOL     OW67884  12.393   6.648  11.578 -0.3780 -0.3338  0.4705
54358SOL    HW167885  12.389   6.632  11.484  1.3405  0.6594  0.1815
54358SOL    HW267886  12.484   6.630  11.602 -0.7202 -0.3049  1.8863
54359SOL     OW67887   1.950   2.592   7.725 -0.6766  0.0900 -0.9523
54359SOL    HW167888   1.898   2.512   7.739 -1.3759  0.4079 -1.6152
54359SOL    HW267889   2.022   2.564   7.669  0.0105 -0.4038  0.1591
54360SOL     OW67890   5.087   9.337   3.429  0.4171 -0.1675  0.2037
54360SOL    HW167891   5.176   9.358   3.458 -0.4626  0.6668  2.5736
54360SOL    HW267892   5.071   9.250   3.464 -0.2420  0.3710  1.3160
54361SOL     OW67893   1.038   9.056   7.736 -0.1425  0.3110 -0.9936
54361SOL    HW167894   0.965   9.118   7.734 -0.0339  0.6749  2.2020
54361SOL    HW267895   1.116   9.111   7.741  0.0528 -0.0468  0.1969
54362SOL     OW67896   4.955   4.352   3.193 -0.1248  0.5699  0.1467
54362SOL    HW167897   4.864   4.358   3.164  0.2656 -0.5606 -1.4049
54362SOL    HW267898   4.954   4.282   3.258 -0.5954  1.5349  1.2086
54363SOL     OW67899   3.971  12.431   6.122 -0.2297  0.5061  0.5047
54363SOL    HW167900   3.976  12.346   6.166 -1.1276  1.4077  2.5089
54363SOL    HW267901   4.036  12.485   6.167  0.6696  0.7789 -1.0599
54364SOL     OW67902  11.948  10.484   8.813 -0.1865 -0.7696  0.5370
54364SOL    HW167903  11.924  10.410   8.869  2.2315 -0.7924  1.6876
54364SOL    HW267904  12.009  10.536   8.866 -0.2782  0.9909 -0.9522
54365SOL     OW67905   8.571   4.282   8.986 -0.2105  0.6507 -0.3452
54365SOL    HW167906   8.595   4.341   9.058 -0.5239 -0.6806  0.9048
54365SOL    HW267907   8.520   4.336   8.926 -0.6613  1.6035  0.8560
54366SOL     OW67908   9.616   4.013  11.735  0.3513  0.1222 -0.0349
54366SOL    HW167909   9.549   4.033  11.669  0.3242  0.0054 -0.0425
54366SOL    HW267910   9.635   3.920  11.722  2.2492  0.6631 -1.6334
54367SOL     OW67911   3.484   7.076   3.156 -0.4976  0.6031  0.1823
54367SOL    HW167912   3.437   7.137   3.098 -2.4078  2.3045  3.2593
54367SOL    HW267913   3.421   7.007   3.174  0.0813  0.0894  0.2502
54368SOL     OW67914   3.296   3.488   6.640 -0.0263 -0.0090 -0.0584
54368SOL    HW167915   3.319   3.450   6.555  0.0189 -0.4791  0.1575
54368SOL    HW267916   3.225   3.548   6.622 -0.3355 -0.4631 -0.3625
54369SOL     OW67917   7.059   6.667   4.495  0.4825  0.6240  1.0795
54369SOL    HW167918   7.068   6.745   4.550  0.6640  1.5321 -0.1817
54369SOL    HW267919   7.054   6.702   4.406 -1.9974 -0.6606  0.6408
54370SOL     OW67920   4.858   6.601   2.058  0.0192  0.3223 -0.1826
54370SOL    HW167921   4.790   6.613   2.123 -0.5991  3.2900 -1.1944
54370SOL    HW267922   4.932   6.565   2.107 -1.0546  0.5857  1.7375
54371SOL     OW67923   9.528   2.681   7.675 -0.6594 -0.5717  0.5719
54371SOL    HW167924   9.590   2.654   7.607 -0.6907 -1.5754  0.9294
54371SOL    HW267925   9.452   2.713   7.626 -0.0451  0.2685  0.1342
54372SOL     OW67926   5.857  11.033  11.982  0.8224 -0.2890  0.4559
54372SOL    HW167927   5.822  10.954  12.022  0.8631 -0.0261  1.0180
54372SOL    HW267928   5.928  11.003  11.926  1.3635 -0.5739  1.2886
54373SOL     OW67929   4.056   3.352   1.948 -0.0052 -0.4517  0.6257
54373SOL    HW167930   4.010   3.288   2.002  0.4485 -0.2933  1.1987
54373SOL    HW267931   4.033   3.437   1.986 -0.0643 -0.3058  0.2774
54374SOL     OW67932  11.342   0.324   0.153 -0.2424 -0.4559  0.2791
54374SOL    HW167933  11.379   0.334   0.241  0.7404 -0.9026 -0.0624
54374SOL    HW267934  11.277   0.255   0.162  0.6655 -1.3224  0.4547
54375SOL     OW67935   7.147   7.462   5.753 -0.5817 -0.4151 -0.2829
54375SOL    HW167936   7.181   7.378   5.723  0.2881 -0.2923  0.3351
54375SOL    HW267937   7.156   7.520   5.677  1.5658 -0.1151  0.1579
54376SOL     OW67938   3.560   8.335  11.077 -0.1499 -0.1748  0.4518
54376SOL    HW167939   3.567   8.240  11.074  0.6998 -0.1056 -0.2618
54376SOL    HW267940   3.521   8.353  11.162  0.3440 -1.1347  0.9071
54377SOL     OW67941   4.372   9.809   3.691  0.4329  0.0291  0.1698
54377SOL    HW167942   4.394   9.744   3.625  1.0511 -0.6401  1.0008
54377SOL    HW267943   4.437   9.795   3.761 -0.0430  0.8696  0.8045
54378SOL     OW67944  12.190  11.806   4.778 -0.3436 -0.2617 -0.2021
54378SOL    HW167945  12.141  11.769   4.851  0.3070 -0.4021  0.1719
54378SOL    HW267946  12.247  11.736   4.749  0.8137  0.3918  0.4340
54379SOL     OW67947   7.126  10.726   4.716  0.4341  0.1714  0.0179
54379SOL    HW167948   7.053  10.782   4.689  0.4401  0.8131  1.2715
54379SOL    HW267949   7.203  10.772   4.684  0.2837 -1.1823 -2.5101
54380SOL     OW67950  10.449   0.823   9.177 -0.6238  0.0383 -0.4156
54380SOL    HW167951  10.544   0.826   9.173 -0.6419  0.3541 -0.6466
54380SOL    HW267952  10.429   0.814   9.270 -0.4018  1.4246 -0.2137
54381SOL     OW67953  10.616  11.078   9.799  0.6387  0.5731 -0.1789
54381SOL    HW167954  10.521  11.079   9.811  0.4185  0.3134 -1.7109
54381SOL    HW267955  10.642  10.990   9.827 -0.1397 -0.7666 -3.2437
54382SOL     OW67956   8.500   7.980   5.877  0.6525  0.1524 -0.0944
54382SOL    HW167957   8.464   7.893   5.894  0.5299  0.0397 -0.8915
54382SOL    HW267958   8.424   8.038   5.883  0.6978  0.1809  0.2272
54383SOL     OW67959   2.127   1.410   3.617  0.2543 -0.5337  0.3342
54383SOL    HW167960   2.076   1.335   3.587  0.1501 -0.5774  0.6138
54383SOL    HW267961   2.142   1.463   3.539  0.0088 -0.6564  0.2044
54384SOL     OW67962   7.783   4.031  11.006  0.0959 -0.2071 -0.5800
54384SOL    HW167963   7.706   4.057  11.056  0.7707 -2.7585  2.0679
54384SOL    HW267964   7.845   4.103  11.017 -1.4607  1.4478 -1.9626
54385SOL     OW67965   5.190  10.451   4.384 -0.2606  0.1359  0.4107
54385SOL    HW167966   5.255  10.455   4.314 -0.6692  1.5523  0.0589
54385SOL    HW267967   5.192  10.538   4.424 -1.9239  0.2354  0.3755
54386SOL     OW67968   4.942   7.274   1.682  0.1458  0.6781  0.5388
54386SOL    HW167969   4.863   7.222   1.669  1.1309 -0.8271  0.3351
54386SOL    HW267970   4.977   7.244   1.766  2.2765 -1.2017 -0.8924
54387SOL     OW67971   8.271   1.017   5.762  0.3647 -0.8274 -0.6893
54387SOL    HW167972   8.200   1.042   5.703  0.4755  0.9211 -0.1320
54387SOL    HW267973   8.242   0.935   5.802 -0.9628 -0.5787 -1.1106
54388SOL     OW67974   7.352   4.400   5.482 -0.3037 -0.2571  0.5559
54388SOL    HW167975   7.306   4.416   5.400  0.6124  0.0322  0.0834
54388SOL    HW267976   7.392   4.314   5.470 -0.9802 -0.6599  1.0948
54389SOL     OW67977   5.436   0.434  11.062 -1.0459  0.7156 -0.3192
54389SOL    HW167978   5.470   0.356  11.104  1.2203  1.4623 -0.6328
54389SOL    HW267979   5.419   0.408  10.972 -2.1195  0.1455  0.0237
54390SOL     OW67980   7.544   5.074  10.262  0.3969 -0.0252 -0.0494
54390SOL    HW167981   7.556   5.162  10.297  0.8423 -0.4779  0.9940
54390SOL    HW267982   7.548   5.017  10.339 -0.9323 -0.8720 -0.5690
54391SOL     OW67983   4.517   6.112   9.076 -0.4706  0.5081 -0.1623
54391SOL    HW167984   4.436   6.090   9.120 -1.0523  2.5298 -0.1038
54391SOL    HW267985   4.499   6.196   9.033  1.8020  1.4014  0.4863
54392SOL     OW67986   8.342   4.751   9.756  0.3388  0.4180 -0.2647
54392SOL    HW167987   8.358   4.828   9.811  0.0882  0.3325 -0.0752
54392SOL    HW267988   8.333   4.788   9.667 -1.7304  0.8437  0.0680
54393SOL     OW67989   2.331   2.808   2.595 -0.3841  0.7730 -0.2826
54393SOL    HW167990   2.302   2.899   2.588 -1.8037  0.2835 -1.1920
54393SOL    HW267991   2.315   2.785   2.687  5.4354  3.0839  1.7152
54394SOL     OW67992   9.011   7.170  11.271 -0.0783 -0.2765 -0.0285
54394SOL    HW167993   8.975   7.093  11.227 -0.0135 -0.6533  0.5572
54394SOL    HW267994   8.935   7.219  11.301 -0.1701  0.7750 -1.8292
54395SOL     OW67995  11.087   2.656  10.825  0.8805 -0.0981  0.4329
54395SOL    HW167996  11.168   2.669  10.775 -0.4694  0.9006 -1.6702
54395SOL    HW267997  11.053   2.745  10.837 -0.5727 -0.5793  0.0436
54396SOL     OW67998  10.834   3.368  10.650 -0.3255 -0.0642 -0.3139
54396SOL    HW167999  10.929   3.381  10.644  0.1211 -2.7279  0.1009
54396SOL    HW268000  10.807   3.426  10.722  1.1004  0.1995  0.0371
54397SOL     OW68001   0.629   9.343   8.802  0.0147 -0.1629 -0.1109
54397SOL    HW168002   0.700   9.295   8.760  1.4927  0.6684  1.3074
54397SOL    HW268003   0.637   9.320   8.895 -0.9454  0.7564  0.2156
54398SOL     OW68004   0.777  11.406   6.920 -0.0215  0.3843 -0.5419
54398SOL    HW168005   0.862  11.380   6.886 -0.1050  0.4817 -0.8301
54398SOL    HW268006   0.789  11.411   7.015  0.6389  1.6387 -0.6743
54399SOL     OW68007   4.341  10.918   7.730 -0.4146  0.9994 -0.2961
54399SOL    HW168008   4.393  10.906   7.810  1.3755 -0.5561 -1.6232
54399SOL    HW268009   4.392  10.977   7.676  0.0999 -0.6333 -1.6697
54400SOL     OW68010   0.041   9.201   6.501  0.3890  0.0331 -0.0896
54400SOL    HW168011  -0.040   9.164   6.464 -1.9417  2.5009  2.1414
54400SOL    HW268012   0.027   9.295   6.499  4.2055  0.7190 -1.4847
54401SOL     OW68013   1.817   9.389   4.713  0.6790  0.5368  0.8751
54401SOL    HW168014   1.830   9.472   4.667 -2.4276 -0.0698 -1.4034
54401SOL    HW268015   1.834   9.322   4.648  1.1675 -0.5808  2.1122
54402SOL     OW68016   2.945   6.148  10.921  0.3591 -0.0918 -0.1334
54402SOL    HW168017   3.039   6.130  10.927  0.6189  1.2463  0.2029
54402SOL    HW268018   2.936   6.207  10.846 -0.1417  0.2061  0.1530
54403SOL     OW68019  12.167   1.079   2.855  0.0025 -0.3540 -0.2379
54403SOL    HW168020  12.120   1.162   2.845 -0.4649 -0.6635 -0.6263
54403SOL    HW268021  12.258   1.105   2.870 -0.0947  0.2258 -0.6232
54404SOL     OW68022   4.671   3.663  12.148  0.5136 -0.0720  0.5307
54404SOL    HW168023   4.634   3.661  12.236 -2.8693  1.7693 -0.6337
54404SOL    HW268024   4.706   3.752  12.139 -1.8299  0.8091 -0.7887
54405SOL     OW68025   3.586   8.310   7.126  0.4531 -0.0134  0.3781
54405SOL    HW168026   3.653   8.256   7.083  0.3148 -0.0421  0.1965
54405SOL    HW268027   3.608   8.400   7.101 -1.3271 -0.1852 -2.2443
54406SOL     OW68028   7.307   6.749  10.089 -0.5162 -0.6200  0.4480
54406SOL    HW168029   7.248   6.821  10.112 -1.6656 -1.9543  1.9053
54406SOL    HW268030   7.367   6.743  10.162 -0.1399 -0.8611  0.1237
54407SOL     OW68031   8.181   8.275   7.838  0.2246 -0.2029  0.3073
54407SOL    HW168032   8.172   8.320   7.754 -1.4048 -0.8811  0.0696
54407SOL    HW268033   8.216   8.189   7.815  0.8637  0.0190  0.4544
54408SOL     OW68034   4.918   2.642  12.345  0.5089  0.3260  0.3611
54408SOL    HW168035   4.980   2.599  12.404  0.3202 -1.1664 -0.4659
54408SOL    HW268036   4.861   2.692  12.403  0.8636 -0.4028  1.3794
54409SOL     OW68037   2.667   8.868   6.818 -0.4341 -0.1071 -0.0120
54409SOL    HW168038   2.608   8.888   6.891 -0.7982 -0.5239 -0.1892
54409SOL    HW268039   2.617   8.809   6.763  0.3709 -0.9545  0.1475
54410SOL     OW68040   0.413   4.024   9.419 -0.4825 -0.1446  0.0168
54410SOL    HW168041   0.381   4.061   9.336 -1.2724 -2.3842 -0.7385
54410SOL    HW268042   0.501   3.992   9.398  0.0636  0.9074  0.5828
54411SOL     OW68043  11.576   4.576   0.531  0.2885  0.1103 -0.0705
54411SOL    HW168044  11.563   4.568   0.437 -2.2296  0.2239  0.1932
54411SOL    HW268045  11.490   4.603   0.565  0.6434 -1.5284  2.4321
54412SOL     OW68046  11.563   5.864   2.824  0.2302  0.1756 -0.1072
54412SOL    HW168047  11.513   5.893   2.748 -2.1476 -0.8038  0.9722
54412SOL    HW268048  11.525   5.912   2.898  2.4173  1.0274  0.5351
54413SOL     OW68049   7.515   3.016   6.382  0.1909 -0.1692 -0.0794
54413SOL    HW168050   7.607   3.005   6.358  0.2584  0.2512 -0.0307
54413SOL    HW268051   7.511   2.986   6.473  0.4604  0.5993  0.1953
54414SOL     OW68052  10.942  10.719   5.261  0.0791  0.1558 -0.2550
54414SOL    HW168053  10.911  10.766   5.339 -1.8999  2.9607 -2.4877
54414SOL    HW268054  10.919  10.628   5.277 -0.4191  0.6607  2.3539
54415SOL     OW68055   9.894   7.366  10.998  0.1636 -0.0051  0.0335
54415SOL    HW168056   9.964   7.426  11.026 -0.0122  0.2286 -0.0222
54415SOL    HW268057   9.813   7.407  11.032 -0.0421  0.2199 -0.7161
54416SOL     OW68058  11.426   5.150   5.510  0.0280  0.3193 -0.0605
54416SOL    HW168059  11.511   5.118   5.542  0.8218  0.2514 -2.0640
54416SOL    HW268060  11.438   5.245   5.504 -0.0993  0.3252 -0.1932
54417SOL     OW68061   8.056   8.409   0.132 -0.4235 -0.5284  0.0190
54417SOL    HW168062   8.138   8.368   0.106  0.9183  0.8745  1.7607
54417SOL    HW268063   8.047   8.483   0.071  0.0308 -0.2386  0.2935
54418SOL     OW68064   1.302   6.846   3.519 -0.8556 -0.0046 -0.2197
54418SOL    HW168065   1.264   6.903   3.453 -0.2388  0.3986 -0.2395
54418SOL    HW268066   1.332   6.905   3.588  0.6274 -0.1904 -0.6597
54419SOL     OW68067   5.089   8.531   0.027 -0.2954 -0.6255  0.4114
54419SOL    HW168068   5.008   8.574  -0.000 -0.5207  0.0336  2.0349
54419SOL    HW268069   5.132   8.507  -0.056 -1.8555 -0.4781 -0.4758
54420SOL     OW68070   0.158   1.003   4.802 -0.0546  0.0947  0.0757
54420SOL    HW168071   0.108   0.922   4.797  0.6934 -0.5277  1.8541
54420SOL    HW268072   0.115   1.053   4.871  1.2686 -0.1101  1.0791
54421SOL     OW68073   4.250  10.918   5.460  0.0793  0.3860  0.2538
54421SOL    HW168074   4.250  10.860   5.537 -1.6001 -1.7653 -1.2435
54421SOL    HW268075   4.159  10.944   5.450 -0.0209 -0.5334 -1.7584
54422SOL     OW68076   2.811   5.666   3.970 -0.2748  0.3162 -0.2391
54422SOL    HW168077   2.792   5.577   3.940 -2.1875  0.6084  0.0124
54422SOL    HW268078   2.898   5.685   3.934  0.5048 -1.8964  0.3038
54423SOL     OW68079   6.412   1.074   0.836 -0.4134 -0.0025  0.0722
54423SOL    HW168080   6.432   1.001   0.894  0.0410  0.1756  0.1428
54423SOL    HW268081   6.497   1.110   0.811 -0.6146  0.1272 -0.4457
54424SOL     OW68082   2.782   1.314   9.282  0.2446  0.2883  0.0328
54424SOL    HW168083   2.870   1.343   9.259  0.6395  0.1355  1.2982
54424SOL    HW268084   2.789   1.283   9.372 -0.9507 -0.3976 -0.0847
54425SOL     OW68085   6.600   4.562  11.329 -0.2808  0.0543 -0.5790
54425SOL    HW168086   6.652   4.546  11.407 -0.2378 -0.4257 -0.7062
54425SOL    HW268087   6.578   4.656  11.334  1.4420  0.5169 -1.0278
54426SOL     OW68088   3.210  11.206   1.307 -0.7007  0.2143 -0.0687
54426SOL    HW168089   3.155  11.230   1.382 -0.9501 -0.6729  0.0422
54426SOL    HW268090   3.291  11.173   1.346  0.1085  1.9211 -0.2389
54427SOL     OW68091   2.441   2.972   7.228 -0.2817  0.3138 -0.0899
54427SOL    HW168092   2.423   3.060   7.260  0.5879  0.2374  0.6569
54427SOL    HW268093   2.377   2.916   7.272  1.7708 -0.0047  2.7825
54428SOL     OW68094   8.636   1.906   2.355  0.4283 -0.2006  0.4293
54428SOL    HW168095   8.633   1.824   2.403  5.4509 -0.4781  0.8339
54428SOL    HW268096   8.628   1.974   2.422 -1.5299 -0.2974  0.3562
54429SOL     OW68097   6.174   6.905   3.255  0.1064 -0.5687 -0.4144
54429SOL    HW168098   6.196   6.933   3.344  0.5851  0.0697 -0.7240
54429SOL    HW268099   6.174   6.810   3.259  0.1106 -0.5418  0.2747
54430SOL     OW68100   4.300   6.517   3.176  0.4961  0.6570  0.3557
54430SOL    HW168101   4.337   6.601   3.204  0.3752  1.0475 -0.5945
54430SOL    HW268102   4.335   6.504   3.088 -1.0566  0.6955 -0.3086
54431SOL     OW68103   0.882  11.046   9.369 -0.4455 -0.1209 -0.4537
54431SOL    HW168104   0.793  11.037   9.405 -0.2337 -1.1358 -0.1373
54431SOL    HW268105   0.938  11.056   9.445 -0.3845  1.7390 -0.7013
54432SOL     OW68106   9.679   1.960   5.211  0.6789 -0.1583  0.5308
54432SOL    HW168107   9.669   1.911   5.129  1.0459  1.5859 -0.6064
54432SOL    HW268108   9.773   1.978   5.217  0.5213  0.6150  0.7869
54433SOL     OW68109  12.165   3.994   3.372  0.3698 -0.2659  0.5482
54433SOL    HW168110  12.247   3.946   3.358  0.9548  0.6127  0.9345
54433SOL    HW268111  12.182   4.051   3.446  0.3754  2.0945 -1.1654
54434SOL     OW68112   9.864   8.277   3.257 -0.5877 -0.7049  0.0538
54434SOL    HW168113   9.826   8.207   3.204 -0.6224 -0.8132  0.2212
54434SOL    HW268114   9.948   8.296   3.215 -1.6040  0.8153 -1.4327
54435SOL     OW68115   9.287   1.570  10.797 -0.0634  0.1105  0.3153
54435SOL    HW168116   9.247   1.486  10.820 -1.0388  0.9631  1.9591
54435SOL    HW268117   9.229   1.606  10.729  0.5057 -0.6313 -0.5847
54436SOL     OW68118   7.515   9.549  12.615  0.0248 -0.0683 -0.1535
54436SOL    HW168119   7.528   9.640  12.644  0.9517 -0.5650  1.0963
54436SOL    HW268120   7.500   9.500  12.696  1.2502 -1.2899 -0.6243
54437SOL     OW68121   2.443   6.681   4.409 -0.0120  0.3590  0.1621
54437SOL    HW168122   2.400   6.668   4.493  1.0905 -0.8848  0.5713
54437SOL    HW268123   2.483   6.596   4.389  0.7762  0.9750 -1.0190
54438SOL     OW68124   6.034  11.471   7.792  0.3036 -0.3052 -0.0239
54438SOL    HW168125   6.036  11.375   7.789 -0.4949 -0.4181  1.7962
54438SOL    HW268126   6.089  11.494   7.867 -0.7732  0.5716  0.5173
54439SOL     OW68127   8.422   7.049   3.506  0.5760  0.2025 -0.3536
54439SOL    HW168128   8.516   7.045   3.526  0.7016  1.3195 -0.6639
54439SOL    HW268129   8.418   7.092   3.421 -0.2695  1.0900  0.1194
54440SOL     OW68130   0.215   5.711   4.113  0.0389  0.5042  0.1994
54440SOL    HW168131   0.264   5.790   4.135 -0.1331  1.0232 -1.1924
54440SOL    HW268132   0.125   5.730   4.142 -0.8976  2.4186 -3.3794
54441SOL     OW68133  12.370   1.945   7.634 -0.2845 -0.7416 -0.2337
54441SOL    HW168134  12.391   1.985   7.719 -0.8809  0.1278 -0.4880
54441SOL    HW268135  12.305   2.003   7.595 -0.3671 -1.3884 -1.0900
54442SOL     OW68136   2.003  10.956   0.861  0.1876 -0.1245 -0.4279
54442SOL    HW168137   2.004  10.906   0.943  0.6406  0.5017 -0.0347
54442SOL    HW268138   1.911  10.960   0.836 -0.2747  1.5354  1.2476
54443SOL     OW68139   0.152   9.291   0.784 -0.2006 -0.0616 -0.2391
54443SOL    HW168140   0.064   9.270   0.753 -0.1547  1.1724 -1.2755
54443SOL    HW268141   0.150   9.385   0.802  1.1192  0.1518 -1.0395
54444SOL     OW68142   1.503   5.834   4.906 -0.1809 -0.1769  0.1818
54444SOL    HW168143   1.485   5.812   4.814  0.0313 -1.0752  0.3431
54444SOL    HW268144   1.598   5.848   4.908 -0.2847  0.6220  0.1225
54445SOL     OW68145  10.401   8.512   3.119  0.3040 -0.4668 -0.2985
54445SOL    HW168146  10.352   8.509   3.201  0.9968 -0.9259  0.1056
54445SOL    HW268147  10.458   8.435   3.122  0.1426 -0.6391 -1.3358
54446SOL     OW68148  11.501   6.042   6.682  0.2068 -0.4035  0.3914
54446SOL    HW168149  11.469   5.972   6.739 -2.2628 -0.3136 -0.7644
54446SOL    HW268150  11.517   5.999   6.598  1.8266 -0.1420  0.5291
54447SOL     OW68151  12.595   3.680  11.961 -0.2900  0.6809  0.2979
54447SOL    HW168152  12.678   3.636  11.983 -0.6151  0.1113  0.4134
54447SOL    HW268153  12.620   3.749  11.900  0.1185 -0.3270 -0.7072
54448SOL     OW68154   2.366   3.314  11.781 -0.2640 -0.1453 -0.2318
54448SOL    HW168155   2.347   3.394  11.732  2.0583 -0.3442 -1.5957
54448SOL    HW268156   2.379   3.344  11.871 -0.4434  0.8516 -0.5253
54449SOL     OW68157   6.576  12.605   1.642  0.3448 -0.4969  0.0195
54449SOL    HW168158   6.588  12.595   1.548  0.0268  0.5110 -0.1417
54449SOL    HW268159   6.634  12.540   1.681  1.6398  0.0954 -0.8477
54450SOL     OW68160  11.424   3.442  10.406  0.1229  0.3842  0.3562
54450SOL    HW168161  11.513   3.440  10.440  0.1166 -0.4523  0.3466
54450SOL    HW268162  11.369   3.444  10.484  0.1480  2.1891  0.3638
54451SOL     OW68163   5.213   1.036   7.778 -0.3831 -0.0669  0.4788
54451SOL    HW168164   5.278   0.976   7.740 -0.6757 -0.6031  0.8198
54451SOL    HW268165   5.239   1.045   7.869 -0.6044 -0.0267  0.5380
54452SOL     OW68166   0.920   7.384   1.290 -0.2300  0.5981 -0.4616
54452SOL    HW168167   0.969   7.465   1.283 -0.5355  0.9127  0.7092
54452SOL    HW268168   0.878   7.389   1.376 -2.3985  0.3958 -1.4357
54453SOL     OW68169   4.376   5.260   9.170 -0.0696  0.5336  0.1611
54453SOL    HW168170   4.324   5.188   9.132  0.0955 -0.4607  1.7377
54453SOL    HW268171   4.430   5.291   9.097  1.2682 -2.2478 -0.1557
54454SOL     OW68172   3.313   4.200   3.064 -0.2069 -0.3288  0.1857
54454SOL    HW168173   3.242   4.224   3.005 -0.0716  0.1019  0.1930
54454SOL    HW268174   3.344   4.283   3.100  1.7706 -0.2600 -1.4946
54455SOL     OW68175  12.307   7.852   8.972  0.5884  0.0337 -0.3074
54455SOL    HW168176  12.308   7.769   8.924  0.7559 -0.4141  0.4441
54455SOL    HW268177  12.380   7.902   8.936 -0.0959  0.2536 -1.4280
54456SOL     OW68178   9.167   2.540   7.264  0.2242  0.5663 -0.1336
54456SOL    HW168179   9.140   2.619   7.218 -3.4766 -1.1389 -1.2662
54456SOL    HW268180   9.260   2.532   7.245  0.4226  3.8253 -1.1467
54457SOL     OW68181  10.548  11.842   2.255 -0.0712  0.2271  0.3521
54457SOL    HW168182  10.456  11.822   2.239 -0.3038  2.1302 -1.0221
54457SOL    HW268183  10.595  11.798   2.185  0.0502 -0.5409  0.9103
54458SOL     OW68184   3.139  10.556   2.499  0.1371  0.3146 -0.2452
54458SOL    HW168185   3.063  10.584   2.448 -0.0323  1.1671  0.4469
54458SOL    HW268186   3.174  10.637   2.536  2.4014  0.1692 -1.8863
54459SOL     OW68187   8.313   5.104   4.197  0.3399  0.4434  0.3337
54459SOL    HW168188   8.228   5.149   4.193 -0.0989 -0.3782  0.0475
54459SOL    HW268189   8.314   5.063   4.284 -1.0930 -2.3628 -0.8302
54460SOL     OW68190   6.632  10.144   2.459  0.5320  0.0600 -0.2424
54460SOL    HW168191   6.565  10.171   2.396  0.4767 -0.3548 -0.3660
54460SOL    HW268192   6.616  10.050   2.471  0.2976  0.2072  0.6860
54461SOL     OW68193   1.546   9.571  10.980 -0.2813  0.0945  0.3464
54461SOL    HW168194   1.579   9.489  11.017 -0.5304  0.6854  1.9564
54461SOL    HW268195   1.488   9.606  11.048 -2.6737  0.0859 -1.5567
54462SOL     OW68196   8.548   2.218   1.422 -0.1298 -0.3022  0.3270
54462SOL    HW168197   8.611   2.233   1.351 -1.1980  0.7794 -0.4257
54462SOL    HW268198   8.547   2.123   1.433  2.0233 -0.3314  0.7457
54463SOL     OW68199   9.893   2.966   1.465  0.4920 -0.3513 -0.0599
54463SOL    HW168200   9.921   2.877   1.447 -0.9995 -1.3717  2.2496
54463SOL    HW268201   9.827   2.984   1.398 -0.4564 -1.6835  0.4664
54464SOL     OW68202   9.655   0.725  11.099 -0.1492 -0.4608  0.0285
54464SOL    HW168203   9.653   0.634  11.071 -0.8080 -0.6480  0.6508
54464SOL    HW268204   9.624   0.723  11.189  0.8802  0.2539  0.4198
54465SOL     OW68205   5.415   1.373   8.054 -0.2390 -0.1511  0.6718
54465SOL    HW168206   5.427   1.428   8.132 -0.9957 -1.1246  1.5028
54465SOL    HW268207   5.390   1.435   7.986  0.2368  0.7042  1.2551
54466SOL     OW68208   8.157   0.016   1.392  0.1888  0.5522 -0.2885
54466SOL    HW168209   8.088  -0.019   1.448 -0.1222 -2.0524 -2.1793
54466SOL    HW268210   8.117   0.026   1.306  1.7023  0.6544 -1.0195
54467SOL     OW68211   6.555   1.157   4.069 -0.2558 -0.0089  0.0466
54467SOL    HW168212   6.566   1.178   4.162 -1.1455 -0.0915  0.1770
54467SOL    HW268213   6.635   1.190   4.028  0.7784 -1.1609  1.0229
54468SOL     OW68214  10.563  10.296   4.824  0.1838 -0.4385  0.1705
54468SOL    HW168215  10.618  10.221   4.846  0.3165 -0.8964 -1.5979
54468SOL    HW268216  10.625  10.362   4.793 -0.0619 -0.0749  0.4432
54469SOL     OW68217   5.745  10.661  10.446  0.0229 -0.0762  0.3160
54469SOL    HW168218   5.739  10.674  10.351  1.3635 -1.1489  0.0468
54469SOL    HW268219   5.698  10.580  10.462 -1.0096  0.5863  0.7290
54470SOL     OW68220  10.513  10.420  12.645  0.0804 -0.7648 -0.1844
54470SOL    HW168221  10.584  10.407  12.583 -0.9239 -1.5239 -1.2284
54470SOL    HW268222  10.436  10.435  12.590 -0.2584  2.2543  0.8841
54471SOL     OW68223   6.608   3.375   8.372  0.6084  0.4902  0.4732
54471SOL    HW168224   6.560   3.300   8.337 -1.0417  1.8013 -0.2079
54471SOL    HW268225   6.608   3.362   8.466  0.5979 -0.5060  0.3477
54472SOL     OW68226   9.148   9.512   8.354 -0.4967  0.1340 -0.1051
54472SOL    HW168227   9.102   9.594   8.334  2.5000  1.9758 -0.0176
54472SOL    HW268228   9.140   9.460   8.274 -1.0816  1.2028 -0.7653
54473SOL     OW68229   5.769   2.522   4.474 -0.1672 -0.6355  0.0279
54473SOL    HW168230   5.761   2.588   4.543  0.0095 -0.5562 -0.0267
54473SOL    HW268231   5.863   2.505   4.468  0.1558  1.3384 -2.0183
54474SOL     OW68232   1.017  11.457  10.274  0.1001 -0.2028 -0.0969
54474SOL    HW168233   1.090  11.447  10.335  0.3608 -0.4217 -0.4420
54474SOL    HW268234   1.053  11.433  10.189 -0.6331 -1.2704 -0.1235
54475SOL     OW68235   2.533   1.716   1.793  0.5278 -0.2629 -0.5995
54475SOL    HW168236   2.554   1.808   1.777  0.9686 -0.0436  0.9810
54475SOL    HW268237   2.549   1.705   1.887 -2.5607 -1.1396 -0.0695
54476SOL     OW68238   7.121   4.661  11.145  0.3624 -0.4282 -0.0756
54476SOL    HW168239   7.114   4.668  11.240  0.9966  0.3923 -0.0752
54476SOL    HW268240   7.148   4.570  11.129  1.2697 -0.2904  0.6062
54477SOL     OW68241  11.873   2.538  11.256  0.1905 -0.1457  0.0872
54477SOL    HW168242  11.900   2.587  11.178 -0.4622  0.7752  0.4102
54477SOL    HW268243  11.786   2.505  11.235  0.5127 -0.9412 -0.0206
54478SOL     OW68244   9.529   7.392   9.561  0.1548  0.2193 -0.0542
54478SOL    HW168245   9.577   7.316   9.593 -0.0171  0.5683  1.0557
54478SOL    HW268246   9.447   7.391   9.610  0.8053  2.0145  1.1464
54479SOL     OW68247   8.337   8.081   0.233  0.0897  0.6023 -0.0261
54479SOL    HW168248   8.429   8.062   0.217 -0.5314 -0.7263 -2.6001
54479SOL    HW268249   8.301   8.000   0.269 -0.3609  0.6494 -0.3608
54480SOL     OW68250   8.898  11.208   3.959  0.2013 -0.2599 -0.4189
54480SOL    HW168251   8.830  11.266   3.927 -0.4176 -0.5994  0.2471
54480SOL    HW268252   8.856  11.122   3.965  0.7998 -0.5600 -0.3842
54481SOL     OW68253   1.347   8.226   3.497  0.1022  0.0841  0.1116
54481SOL    HW168254   1.340   8.204   3.404 -0.8703  0.0326  0.1873
54481SOL    HW268255   1.265   8.195   3.535  1.2849 -1.6669  1.3631
54482SOL     OW68256   5.786  11.677   1.925 -0.5138  0.1561 -0.0320
54482SOL    HW168257   5.842  11.712   1.995 -1.9927  1.2773  0.6486
54482SOL    HW268258   5.743  11.602   1.965 -1.8342  1.1658  0.5371
54483SOL     OW68259   4.729   9.975  11.802  0.4716 -0.0690  0.2145
54483SOL    HW168260   4.733   9.892  11.851 -1.9744 -0.9453 -0.8817
54483SOL    HW268261   4.733  10.042  11.869  0.0897 -1.1651  1.3843
54484SOL     OW68262   0.186   5.913   0.103  0.7979  0.1182  0.0074
54484SOL    HW168263   0.120   5.866   0.154  0.2926 -1.0175 -1.6280
54484SOL    HW268264   0.268   5.869   0.124  0.5381 -0.5811 -0.4390
54485SOL     OW68265   3.196   5.424   8.300  0.4641  0.6300  0.1834
54485SOL    HW168266   3.182   5.398   8.391 -0.7037  0.2981 -0.0741
54485SOL    HW268267   3.264   5.364   8.268  0.9857  0.8478  0.8676
54486SOL     OW68268  10.743  12.007   1.703 -0.0179 -0.2313  0.6942
54486SOL    HW168269  10.763  11.919   1.733  1.2212 -0.1249  0.2369
54486SOL    HW268270  10.774  12.010   1.612  0.0779  0.7041  0.7424
54487SOL     OW68271  10.601  11.705   9.108  0.2504  0.1209 -0.0323
54487SOL    HW168272  10.559  11.782   9.147  0.2050  0.2429 -0.3162
54487SOL    HW268273  10.629  11.652   9.183 -3.0938 -1.4889  0.2140
54488SOL     OW68274   6.032   8.702  10.453  0.5844 -0.3205  0.2253
54488SOL    HW168275   5.938   8.684  10.443  0.3960 -0.0917  1.4616
54488SOL    HW268276   6.053   8.760  10.380 -0.3668  0.1168  0.2821
54489SOL     OW68277   9.528   2.629   6.139  0.4982  0.3064  0.1112
54489SOL    HW168278   9.617   2.660   6.127  0.8689 -0.7970 -0.1129
54489SOL    HW268279   9.473   2.697   6.100  1.2334  1.0054  0.2751
54490SOL     OW68280  10.188   9.493   9.985 -0.6469  0.0940 -0.4767
54490SOL    HW168281  10.218   9.512   9.896 -0.8514  1.2773 -0.3131
54490SOL    HW268282  10.268   9.487  10.036 -0.5392 -0.3246 -0.6940
54491SOL     OW68283   0.376  12.358   6.862 -0.0149  0.1764 -0.9678
54491SOL    HW168284   0.378  12.279   6.808 -2.0518 -0.2138 -0.5843
54491SOL    HW268285   0.287  12.358   6.900  0.0489  2.4736 -0.6959
54492SOL     OW68286   0.255   6.893   3.589 -0.0453 -0.2638  0.2531
54492SOL    HW168287   0.208   6.823   3.634 -2.2951 -0.0039 -1.5560
54492SOL    HW268288   0.292   6.851   3.511  2.7076 -0.4192  1.5263
54493SOL     OW68289   3.998   1.692   2.496 -0.7446  0.2308 -0.0720
54493SOL    HW168290   3.939   1.708   2.570 -1.6260  1.2638 -0.9753
54493SOL    HW268291   3.984   1.766   2.437  0.0732 -0.4863 -1.2012
54494SOL     OW68292   1.387  12.078   2.433 -0.2942  0.3121  0.1240
54494SOL    HW168293   1.375  12.055   2.341  0.6964  1.6450 -0.3737
54494SOL    HW268294   1.317  12.140   2.452 -0.0741  0.5863  0.0507
54495SOL     OW68295   6.533  11.937   2.965  0.2967 -0.4640 -0.0336
54495SOL    HW168296   6.444  11.912   2.989  0.2646 -0.2544  0.0672
54495SOL    HW268297   6.584  11.921   3.044  0.1592  0.3904  0.2392
54496SOL     OW68298   8.183   8.896  12.604  0.2044  0.4291  0.0707
54496SOL    HW168299   8.210   8.894  12.512 -1.4383  1.4093 -0.4795
54496SOL    HW268300   8.201   8.808  12.636  1.1886  0.1936 -1.0660
54497SOL     OW68301   3.352   7.656   1.673  0.2445 -0.6629 -0.0846
54497SOL    HW168302   3.361   7.613   1.588 -0.4508 -0.0090 -0.5014
54497SOL    HW268303   3.442   7.665   1.705  0.6309  0.3703 -1.3969
54498SOL     OW68304   2.200   7.746   0.004 -0.0458 -0.0152  0.1957
54498SOL    HW168305   2.237   7.747   0.092  1.3933  2.0941 -0.3556
54498SOL    HW268306   2.195   7.653  -0.019  4.2253 -0.6024  0.7052
54499SOL     OW68307  11.967   1.330   1.671 -0.4044 -1.2037  0.2213
54499SOL    HW168308  12.060   1.316   1.651 -0.4979  0.3284 -1.5011
54499SOL    HW268309  11.935   1.243   1.696  1.4616 -1.7748  0.8399
54500SOL     OW68310   9.123   6.709   9.603  0.4781  0.1130  0.3503
54500SOL    HW168311   9.149   6.791   9.561  0.2628 -0.4707 -0.9638
54500SOL    HW268312   9.160   6.641   9.548 -1.1504 -0.6980  0.2044
54501SOL     OW68313  10.294  10.661   3.253 -0.5751 -0.1008 -0.3307
54501SOL    HW168314  10.302  10.682   3.160  0.7847 -0.2278 -0.2563
54501SOL    HW268315  10.351  10.723   3.297  0.9723 -1.8018  0.1648
54502SOL     OW68316   9.688   6.216   6.929  0.0893 -0.1815  0.1888
54502SOL    HW168317   9.663   6.124   6.942  2.6128 -1.0519 -0.6620
54502SOL    HW268318   9.634   6.246   6.856  1.1436 -1.8800 -1.3655
54503SOL     OW68319   1.025   1.140  11.330  0.0744  0.7513  0.2530
54503SOL    HW168320   1.006   1.130  11.423 -1.7581  1.4466 -0.0107
54503SOL    HW268321   1.051   1.231  11.320  0.1051  0.7196  0.0449
54504SOL     OW68322  11.017   2.090   5.298  0.1659 -0.0019  0.1879
54504SOL    HW168323  11.063   2.115   5.218  0.0687 -0.8086 -0.1311
54504SOL    HW268324  10.927   2.120   5.283  0.5219  1.4515  0.7549
54505SOL     OW68325   2.573   8.104   9.615 -0.6508  0.2643  0.2016
54505SOL    HW168326   2.628   8.049   9.672 -0.8566 -0.1960 -0.0426
54505SOL    HW268327   2.605   8.193   9.630 -1.7927  0.3925  2.3244
54506SOL     OW68328   7.088  10.531   2.550 -0.0608  0.2254  0.5066
54506SOL    HW168329   7.052  10.496   2.468  3.1718  1.6711 -1.7949
54506SOL    HW268330   7.072  10.462   2.615  1.3458 -3.3248 -2.4856
54507SOL     OW68331   5.316  12.047   6.162 -0.3696  0.1951  0.4345
54507SOL    HW168332   5.256  11.973   6.164  1.4723 -1.3736  1.4065
54507SOL    HW268333   5.352  12.047   6.074 -0.3233 -0.1149  0.4541
54508SOL     OW68334   0.652  11.663  10.871  0.4819 -0.1374 -0.4440
54508SOL    HW168335   0.637  11.682  10.778  1.3692 -1.7446 -0.9468
54508SOL    HW268336   0.564  11.649  10.907  0.0193  1.8505 -0.6868
54509SOL     OW68337   0.961   9.934   0.135 -0.3164 -0.8495  0.2414
54509SOL    HW168338   1.050   9.949   0.102 -0.0309 -1.6261  0.6414
54509SOL    HW268339   0.910  10.006   0.099  0.8122  0.5573  1.3494
54510SOL     OW68340  11.879   9.153   4.139 -0.0476  0.0689 -0.2773
54510SOL    HW168341  11.853   9.244   4.127 -0.7660  0.1455  1.6008
54510SOL    HW268342  11.868   9.137   4.232  1.0871 -1.6448 -0.3925
54511SOL     OW68343   1.997   8.366   2.321 -0.6642 -0.0874  0.2354
54511SOL    HW168344   1.931   8.300   2.299  0.3268 -0.9901 -0.1142
54511SOL    HW268345   2.042   8.330   2.398  0.1218 -0.0021 -0.1775
54512SOL     OW68346   0.791   4.983   6.856 -0.1276 -0.2075  0.4647
54512SOL    HW168347   0.807   5.046   6.927 -0.8039 -0.9135  1.2691
54512SOL    HW268348   0.738   4.914   6.897  0.2389 -1.0884 -0.5033
54513SOL     OW68349   2.860   3.184   6.264 -0.2940 -0.4634 -0.0844
54513SOL    HW168350   2.924   3.217   6.327 -0.4466  0.7660 -0.5313
54513SOL    HW268351   2.807   3.122   6.314 -0.0848  0.1006  0.8631
54514SOL     OW68352   5.912   3.211   2.737  0.4190  0.0657 -0.3589
54514SOL    HW168353   5.896   3.148   2.667 -0.0759 -1.7877  1.3391
54514SOL    HW268354   5.982   3.171   2.789  1.9710  2.1950 -0.6781
54515SOL     OW68355   0.041   6.783   7.406 -0.2778  0.4200 -0.2293
54515SOL    HW168356   0.056   6.750   7.318  0.5221 -0.8955  0.3680
54515SOL    HW268357  -0.027   6.726   7.442  0.1304  0.2704  0.3365
54516SOL     OW68358   1.078   7.350   9.898 -0.6104 -0.0514 -0.4303
54516SOL    HW168359   1.050   7.259   9.897 -2.6614  0.3994  2.2063
54516SOL    HW268360   1.016   7.395   9.841 -1.8641  0.1115  0.9805
54517SOL     OW68361   3.564   5.429   7.788 -0.2123  0.1844 -0.2721
54517SOL    HW168362   3.520   5.494   7.843  0.8395 -0.3310  1.2494
54517SOL    HW268363   3.544   5.345   7.830  0.1166 -0.2948 -1.0458
54518SOL     OW68364   6.034   0.629   5.049  0.0010 -0.0484  0.9004
54518SOL    HW168365   5.965   0.575   5.088 -0.2858 -0.8796 -0.6624
54518SOL    HW268366   6.115   0.597   5.089 -0.4219  0.2350  1.9976
54519SOL     OW68367  11.277   2.341   7.535  0.5317 -0.2342  0.3514
54519SOL    HW168368  11.281   2.435   7.519  2.0863  0.0800  2.2091
54519SOL    HW268369  11.365   2.318   7.564 -0.1428 -2.0273  1.1301
54520SOL     OW68370   7.683  11.190   4.107  0.2557  0.1310  0.0658
54520SOL    HW168371   7.769  11.151   4.122  0.6177 -0.1060 -2.3061
54520SOL    HW268372   7.627  11.117   4.083 -0.1738  0.5035 -0.0797
54521SOL     OW68373   2.259   8.966   4.352 -0.4572 -0.2681 -0.2071
54521SOL    HW168374   2.246   8.987   4.444 -1.4766 -0.8031 -0.2104
54521SOL    HW268375   2.188   9.012   4.307 -0.4671 -0.6874 -0.6266
54522SOL     OW68376  11.708   4.395   3.093  0.0222  0.5254  0.7530
54522SOL    HW168377  11.713   4.360   3.004  2.1614  2.3786  0.0557
54522SOL    HW268378  11.615   4.413   3.107 -0.6464 -1.7124 -0.2602
54523SOL     OW68379   0.812   7.256   1.589 -0.0374 -0.1153 -0.0239
54523SOL    HW168380   0.840   7.236   1.678 -1.1364  1.6050  0.7600
54523SOL    HW268381   0.874   7.322   1.559  0.4635 -0.8493 -0.6406
54524SOL     OW68382   4.081   7.364  11.811  0.0436  0.1411  0.3851
54524SOL    HW168383   4.005   7.412  11.779  0.6605  0.3485 -0.8377
54524SOL    HW268384   4.061   7.272  11.792  0.5141  0.2797 -0.9403
54525SOL     OW68385   5.697   7.847   1.733  0.6585 -0.1417 -0.3631
54525SOL    HW168386   5.776   7.857   1.680  0.2480  0.3905 -0.8939
54525SOL    HW268387   5.674   7.754   1.725  2.1260 -0.6787  1.1269
54526SOL     OW68388   7.070   2.807   8.253 -0.8188 -0.1142 -1.3993
54526SOL    HW168389   7.078   2.835   8.161  2.3253 -0.1705 -1.2611
54526SOL    HW268390   7.069   2.712   8.249  1.0695 -0.1701 -1.3653
54527SOL     OW68391  10.009   4.608   2.401 -0.6175 -0.1295 -0.5854
54527SOL    HW168392   9.924   4.647   2.418 -0.8039 -0.7571 -0.0294
54527SOL    HW268393  10.009   4.527   2.453  0.6860  0.3452  0.1871
54528SOL     OW68394   3.476   2.630   5.645 -0.7830 -0.2549 -0.3771
54528SOL    HW168395   3.535   2.575   5.594 -0.5629  0.6725 -1.1495
54528SOL    HW268396   3.486   2.600   5.735 -0.2738 -1.1101 -0.7148
54529SOL     OW68397   4.054   8.923   8.452  0.8421  0.1931  0.4463
54529SOL    HW168398   4.133   8.906   8.400  0.0452 -0.5486 -0.5723
54529SOL    HW268399   4.038   8.840   8.498  0.0411 -0.0310 -0.2198
54530SOL     OW68400   3.769   3.197   7.837  0.0983 -0.2415  0.3788
54530SOL    HW168401   3.755   3.203   7.931 -1.6022 -1.9586  0.2918
54530SOL    HW268402   3.689   3.157   7.803  1.2588 -1.0549 -1.5968
54531SOL     OW68403   8.320   9.583   2.203  0.2124 -0.1647  0.1610
54531SOL    HW168404   8.235   9.624   2.214  1.2871  2.1048  0.5829
54531SOL    HW268405   8.353   9.616   2.120  0.3354 -1.7578 -0.4643
54532SOL     OW68406  10.360  11.644  12.070  0.5970  0.3637 -0.0191
54532SOL    HW168407  10.354  11.606  12.157 -1.6063  2.7938  1.0276
54532SOL    HW268408  10.434  11.703  12.074  0.8116  0.0948  0.0195
54533SOL     OW68409   4.941   1.433   2.906  0.3568  0.4559 -0.6346
54533SOL    HW168410   5.036   1.424   2.907  0.4593  1.3844 -0.0452
54533SOL    HW268411   4.919   1.453   2.815  0.8947  1.6551 -0.5243
54534SOL     OW68412   2.476   0.623  11.160 -0.1093  0.6407  0.2882
54534SOL    HW168413   2.389   0.608  11.124  0.6587  0.7229 -1.7357
54534SOL    HW268414   2.521   0.539  11.150  0.9433  1.3616 -1.4753
54535SOL     OW68415   2.332   4.284   6.278  0.5789 -0.3268 -0.6020
54535SOL    HW168416   2.359   4.375   6.287 -2.2389  0.5033  0.8040
54535SOL    HW268417   2.351   4.261   6.188  2.5371  1.2066 -0.6292
54536SOL     OW68418   6.756  10.636   7.047  0.1330  0.0367  0.4938
54536SOL    HW168419   6.826  10.645   7.111  1.4677  2.4353 -1.1447
54536SOL    HW268420   6.786  10.568   6.987  1.2868  1.3244 -0.4210
54537SOL     OW68421   6.205   4.810   3.080 -0.3487  0.3170  0.4907
54537SOL    HW168422   6.215   4.794   2.986  0.6384  2.0967  0.2484
54537SOL    HW268423   6.111   4.821   3.093 -0.4749  0.2218 -0.3094
54538SOL     OW68424   3.131   3.296  11.768  0.3012  0.2810 -0.1770
54538SOL    HW168425   3.051   3.284  11.718  0.0500 -0.8192  0.4446
54538SOL    HW268426   3.192   3.233  11.729  1.0135  1.3757 -0.9005
54539SOL     OW68427   3.344  10.874  10.290 -0.6842 -0.7757  0.1593
54539SOL    HW168428   3.401  10.862  10.214  0.2266 -0.8981  0.8425
54539SOL    HW268429   3.376  10.955  10.330 -0.9576 -0.8763  0.5818
54540SOL     OW68430   8.960   3.605   4.201 -0.0678  0.0724 -0.2903
54540SOL    HW168431   8.887   3.618   4.262 -0.2235 -0.9311 -0.2357
54540SOL    HW268432   8.966   3.510   4.192  2.0593  0.0684  0.6990
54541SOL     OW68433   3.014  11.031   6.343  0.5165  0.2218  0.8111
54541SOL    HW168434   3.045  10.968   6.408  1.0221 -0.7292 -0.3084
54541SOL    HW268435   3.092  11.052   6.292 -0.2153 -0.5054 -0.6695
54542SOL     OW68436   8.785   4.905   5.528  0.2388  0.5175  0.1118
54542SOL    HW168437   8.846   4.839   5.496 -1.5899 -0.2334 -2.1626
54542SOL    HW268438   8.800   4.909   5.622  2.1118 -1.3402 -0.0461
54543SOL     OW68439   1.138   8.074   8.964 -1.0056  0.0257 -0.4566
54543SOL    HW168440   1.091   7.992   8.979 -0.9055  0.2203  1.1425
54543SOL    HW268441   1.136   8.119   9.049  0.7371  0.7332 -0.7332
54544SOL     OW68442   4.746   5.942   3.255  0.2329 -0.3382 -0.2881
54544SOL    HW168443   4.731   5.866   3.312 -0.5627  0.3583  0.4527
54544SOL    HW268444   4.659   5.968   3.227  0.6505 -1.3111 -2.7475
54545SOL     OW68445   9.999   1.235   4.308  0.0964 -0.2736 -0.0660
54545SOL    HW168446  10.038   1.152   4.335  2.2906  0.0803 -1.8696
54545SOL    HW268447   9.908   1.213   4.286  0.4502 -2.0501  0.1159
54546SOL     OW68448   2.877   0.078   3.574 -0.1384 -0.4782  0.3203
54546SOL    HW168449   2.862  -0.013   3.598  0.7965 -0.8489 -0.4346
54546SOL    HW268450   2.971   0.092   3.592 -0.1265  0.1332 -0.1891
54547SOL     OW68451  12.377   1.339   0.433  0.3059 -0.0507 -0.3264
54547SOL    HW168452  12.418   1.253   0.421 -0.7130 -0.6304  0.1585
54547SOL    HW268453  12.415   1.373   0.514 -0.8199 -1.0088  0.6467
54548SOL     OW68454   6.219   9.013   2.978  0.1623  0.2604 -0.2601
54548SOL    HW168455   6.303   8.980   2.947 -1.4553 -1.3023 -3.4756
54548SOL    HW268456   6.167   8.934   2.994 -0.7079  1.1796  1.9062
54549SOL     OW68457   9.135   9.460   5.501 -0.2381  0.5662 -0.4924
54549SOL    HW168458   9.201   9.479   5.567  0.7492  1.1779 -1.6230
54549SOL    HW268459   9.157   9.517   5.427 -0.1000 -1.5108 -2.1455
54550SOL     OW68460   8.698   1.945   4.739  0.4263 -0.2835 -0.1362
54550SOL    HW168461   8.777   1.897   4.716  1.2418 -0.1250  2.0581
54550SOL    HW268462   8.702   2.025   4.686  1.6349 -0.3681 -0.1989
54551SOL     OW68463   3.508   5.628   3.823 -0.7782 -0.1045 -0.1410
54551SOL    HW168464   3.460   5.710   3.822  0.1096  0.4246 -1.4013
54551SOL    HW268465   3.492   5.589   3.737  1.5844  0.4614 -0.9318
54552SOL     OW68466  11.278   7.114   3.615 -0.2334 -0.7116  0.2264
54552SOL    HW168467  11.263   7.093   3.707 -0.4088 -0.4471  0.2590
54552SOL    HW268468  11.283   7.210   3.612  1.7007 -0.7686  0.2514
54553SOL     OW68469   1.285   5.982  10.696 -0.8814  0.1806 -0.2044
54553SOL    HW168470   1.273   5.889  10.714  0.1054 -0.0257 -0.5569
54553SOL    HW268471   1.196   6.018  10.696 -1.2420 -0.6831  0.3128
54554SOL     OW68472  11.252   7.286  12.209 -0.7736 -0.3142 -0.6009
54554SOL    HW168473  11.233   7.288  12.115  0.0428  0.3599 -0.7682
54554SOL    HW268474  11.289   7.199  12.224  1.2024  0.3461 -1.3679
54555SOL     OW68475  10.981   7.853   2.080 -0.2581 -0.2479  0.2689
54555SOL    HW168476  10.906   7.910   2.062 -0.9789 -1.5189 -0.9740
54555SOL    HW268477  10.983   7.846   2.175 -2.4766 -1.1215  0.3108
54556SOL     OW68478   7.202   7.466   6.160 -0.4987 -0.1389 -0.2277
54556SOL    HW168479   7.227   7.409   6.233 -0.1424 -0.1148 -0.3249
54556SOL    HW268480   7.251   7.547   6.175 -0.9743  0.1298 -0.1099
54557SOL     OW68481   8.029   0.676   0.794  0.0885 -0.5975  0.3534
54557SOL    HW168482   8.059   0.616   0.726 -1.6246 -1.6759  0.4801
54557SOL    HW268483   8.106   0.692   0.848  0.9184 -1.5727 -0.5020
54558SOL     OW68484  11.133   9.552   2.307  0.3555  0.1647 -0.3874
54558SOL    HW168485  11.227   9.541   2.291  0.6554 -0.6722  1.6013
54558SOL    HW268486  11.091   9.518   2.228  1.7018 -0.0278 -1.0535
54559SOL     OW68487   1.245  11.237  11.410  0.1468 -0.3586 -0.0189
54559SOL    HW168488   1.303  11.284  11.350  1.5213 -1.6434  0.2285
54559SOL    HW268489   1.295  11.233  11.492 -0.6490 -0.7840  0.4527
54560SOL     OW68490   6.346   3.951   1.192  0.0211  0.1150 -0.0510
54560SOL    HW168491   6.379   3.870   1.230 -2.4702 -0.5616  0.8605
54560SOL    HW268492   6.321   3.929   1.103  0.0170  0.0543 -0.0346
54561SOL     OW68493   5.508  10.368   4.953  0.7403  0.4303  0.3789
54561SOL    HW168494   5.521  10.431   5.024  3.6620  0.2998  0.1150
54561SOL    HW268495   5.504  10.421   4.874 -1.7387  0.5240  0.5095
54562SOL     OW68496  12.036   8.849  11.489  0.1378 -0.3721 -0.9749
54562SOL    HW168497  12.118   8.803  11.471  1.4349  2.0695 -1.7925
54562SOL    HW268498  11.997   8.862  11.402 -0.1616  0.1073 -0.7729
54563SOL     OW68499   4.738   9.273  11.966  0.1194  0.2217 -0.3694
54563SOL    HW168500   4.711   9.348  11.914  0.8428 -0.4756 -1.8104
54563SOL    HW268501   4.664   9.212  11.962 -0.2687  0.6292  0.3828
54564SOL     OW68502   6.684   1.768   9.558  0.4467 -0.1690  0.2802
54564SOL    HW168503   6.612   1.796   9.615  0.7996  0.3811  0.4658
54564SOL    HW268504   6.762   1.809   9.596  0.8003 -0.4362 -0.1486
54565SOL     OW68505   8.407   7.707   2.262  0.1258 -0.2489  0.2531
54565SOL    HW168506   8.454   7.759   2.197 -2.1558 -0.2603 -1.5701
54565SOL    HW268507   8.405   7.619   2.225 -0.2776 -0.5058  0.8779
54566SOL     OW68508   3.697   5.197   0.147 -0.2587 -0.4142 -0.6865
54566SOL    HW168509   3.648   5.119   0.174  0.2946 -0.7226 -0.5523
54566SOL    HW268510   3.784   5.184   0.184  0.0100 -0.0101 -1.1678
54567SOL     OW68511   8.365   4.186  10.853 -0.4923 -0.2668 -0.3142
54567SOL    HW168512   8.417   4.266  10.860 -1.3550  0.2949 -0.1777
54567SOL    HW268513   8.344   4.163  10.944  0.9265 -1.4632 -0.2477
54568SOL     OW68514   6.800   9.290   7.683  0.2489 -0.2114  0.1782
54568SOL    HW168515   6.738   9.228   7.645  0.8723 -1.1070  0.5704
54568SOL    HW268516   6.879   9.237   7.699  0.5400  0.5189  1.2048
54569SOL     OW68517   7.171   5.739   7.959  0.5600  0.3108 -0.3125
54569SOL    HW168518   7.087   5.758   7.918 -0.1325 -1.0052  0.4042
54569SOL    HW268519   7.196   5.820   8.003 -0.6352  0.5565 -0.0621
54570SOL     OW68520   7.396  11.324   3.344  0.6816  0.2831  0.4866
54570SOL    HW168521   7.420  11.284   3.428  1.4769 -0.6157 -0.1517
54570SOL    HW268522   7.387  11.417   3.364 -0.0410 -0.0376  1.7572
54571SOL     OW68523   2.673  10.905  10.862  0.1262  0.0664 -0.1628
54571SOL    HW168524   2.684  10.840  10.793  0.3770  1.0848 -1.1203
54571SOL    HW268525   2.676  10.989  10.816 -1.3427  0.7266  0.8739
54572SOL     OW68526   4.974   8.636  11.200  0.5321  0.8394  0.1854
54572SOL    HW168527   5.056   8.679  11.174  0.0749  1.5719 -0.0877
54572SOL    HW268528   4.951   8.677  11.283  0.0713  1.1738 -0.0988
54573SOL     OW68529   4.398   0.492   0.088 -0.2756 -0.1498 -0.4307
54573SOL    HW168530   4.321   0.435   0.096 -0.1376 -0.1836  1.0165
54573SOL    HW268531   4.463   0.438   0.043 -0.7949 -0.4301 -0.8595
54574SOL     OW68532   5.956  11.347  11.791  0.2384 -0.0007 -0.7003
54574SOL    HW168533   6.005  11.265  11.795  0.2190  0.0256  1.8934
54574SOL    HW268534   5.897  11.343  11.867  0.3896  2.4741 -0.3757
54575SOL     OW68535   5.659   5.875   1.807  0.4506 -0.2627 -0.0609
54575SOL    HW168536   5.612   5.954   1.835  1.3154 -0.1154  1.0390
54575SOL    HW268537   5.599   5.803   1.829 -0.4432  0.0737 -1.2819
54576SOL     OW68538   8.342  12.291  10.461  0.0063 -0.2003  0.1996
54576SOL    HW168539   8.248  12.301  10.474  0.2653  3.6755  0.2948
54576SOL    HW268540   8.362  12.347  10.385  2.2799 -0.6195  0.4105
54577SOL     OW68541   8.341   2.626   4.582  0.5022 -0.1512  0.4358
54577SOL    HW168542   8.261   2.655   4.625  0.7093 -0.3109  0.9382
54577SOL    HW268543   8.320   2.539   4.548  0.8771 -0.7925  1.7843
54578SOL     OW68544   2.486   4.726   2.923 -0.3773  0.3635  0.1690
54578SOL    HW168545   2.442   4.650   2.961 -0.9417  0.3870 -0.4249
54578SOL    HW268546   2.576   4.698   2.909 -1.0990 -1.0440 -2.2713
54579SOL     OW68547   0.951   4.179   0.889  0.0372  0.0461  0.0103
54579SOL    HW168548   0.933   4.187   0.795  0.7888  0.1622 -0.1251
54579SOL    HW268549   1.025   4.236   0.905 -0.3761  0.3878  0.7740
54580SOL     OW68550  11.318  11.213   4.267 -0.1054 -0.1995  0.0515
54580SOL    HW168551  11.267  11.261   4.202  1.3074  0.1919 -0.8181
54580SOL    HW268552  11.360  11.142   4.218  0.3076 -0.4160  0.7031
54581SOL     OW68553   0.108  11.481   7.880 -0.2404 -0.5290  0.7244
54581SOL    HW168554   0.202  11.490   7.862 -0.1364  0.8501  1.7932
54581SOL    HW268555   0.099  11.392   7.915  0.5308 -0.9497 -0.1041
54582SOL     OW68556   3.305   6.552   3.124 -0.3198 -0.1803 -0.5775
54582SOL    HW168557   3.349   6.509   3.051  1.5115 -0.4613  0.6283
54582SOL    HW268558   3.359   6.532   3.200 -1.0068  1.8232  0.5236
54583SOL     OW68559   9.279   6.719   1.015  0.2161 -0.3746 -0.4696
54583SOL    HW168560   9.271   6.782   1.087  1.2036 -1.0940  0.2953
54583SOL    HW268561   9.190   6.709   0.982  0.2245  2.7434 -1.8000
54584SOL     OW68562   3.602  12.602   0.148 -0.0543  0.1952 -0.1168
54584SOL    HW168563   3.621  12.626   0.239 -0.1397 -0.2227  0.0136
54584SOL    HW268564   3.583  12.508   0.151  0.1143  0.1404 -0.5930
54585SOL     OW68565   7.033   3.175   7.395  0.7522  0.1877 -0.0605
54585SOL    HW168566   7.075   3.109   7.340 -2.0984 -0.8698 -1.1607
54585SOL    HW268567   6.968   3.126   7.446 -1.4270  2.0487 -0.8721
54586SOL     OW68568   2.592   4.125   0.291  0.0021  0.1926  0.2412
54586SOL    HW168569   2.542   4.169   0.222 -0.1008  0.3400  0.4091
54586SOL    HW268570   2.683   4.136   0.265 -0.0697 -0.5081 -0.3279
54587SOL     OW68571  11.449   4.853  11.327  0.0286 -0.4139  0.4615
54587SOL    HW168572  11.471   4.837  11.236  0.3073 -0.9966  0.6304
54587SOL    HW268573  11.515   4.806  11.377 -1.0845 -1.4944  0.9742
54588SOL     OW68574   1.253   5.749   8.279 -0.0576  0.2163 -0.2680
54588SOL    HW168575   1.179   5.777   8.225  0.0776 -0.6978 -0.9420
54588SOL    HW268576   1.285   5.830   8.319 -1.5573  0.5863  0.2112
54589SOL     OW68577   7.424   8.356   5.655  0.2406 -0.5311 -0.3847
54589SOL    HW168578   7.481   8.287   5.621  1.0634  1.0431 -2.4121
54589SOL    HW268579   7.336   8.331   5.625  0.4329 -0.9640 -0.6026
54590SOL     OW68580   1.893   0.658   5.428 -0.4803 -0.3107 -0.3308
54590SOL    HW168581   1.831   0.598   5.387  1.7424 -2.4622 -0.8424
54590SOL    HW268582   1.887   0.640   5.522  0.9533 -2.3175 -0.5508
54591SOL     OW68583   1.162   2.823   6.765 -0.3323  0.2744 -0.0845
54591SOL    HW168584   1.118   2.750   6.722 -2.3887  0.7668  1.0563
54591SOL    HW268585   1.134   2.900   6.716 -0.4404  0.5744  0.4520
54592SOL     OW68586   3.383   4.073  12.319 -0.1223 -0.0748 -0.0089
54592SOL    HW168587   3.369   4.082  12.413 -0.2853  0.3937 -0.0790
54592SOL    HW268588   3.392   4.162  12.286 -1.5191 -0.1496 -0.6611
54593SOL     OW68589   5.077   2.706   0.343 -0.3687 -0.5633 -0.4286
54593SOL    HW168590   5.089   2.757   0.423 -0.9372 -0.2376 -0.5435
54593SOL    HW268591   5.041   2.622   0.371 -0.8673 -0.3325 -0.3627
54594SOL     OW68592  10.357   4.508   3.320  0.2016  0.5819 -0.0439
54594SOL    HW168593  10.263   4.502   3.302  0.5580  0.6924 -2.2221
54594SOL    HW268594  10.382   4.420   3.350 -0.5041  0.4202  0.0812
54595SOL     OW68595   1.859   3.981   1.764  0.4598  0.1338  0.3383
54595SOL    HW168596   1.768   3.983   1.792  1.1770  0.5025  2.9027
54595SOL    HW268597   1.881   4.073   1.750  0.5284  0.0635 -0.0354
54596SOL     OW68598   6.798   9.142   0.155 -0.3491  0.2459 -0.2265
54596SOL    HW168599   6.728   9.079   0.176 -0.1175 -0.0102 -0.2213
54596SOL    HW268600   6.870   9.088   0.123 -0.6882  0.6143 -1.7056
54597SOL     OW68601   7.575   0.226   5.240 -0.1773 -0.0847 -0.1528
54597SOL    HW168602   7.587   0.286   5.314  1.5298  1.3537 -1.5101
54597SOL    HW268603   7.517   0.273   5.181 -0.3764 -0.6100 -0.3785
54598SOL     OW68604   2.216   2.671  11.057 -0.8672 -0.1590  0.4497
54598SOL    HW168605   2.221   2.763  11.029  0.0946 -0.8901 -2.0473
54598SOL    HW268606   2.290   2.660  11.116  0.6818  0.0524 -1.3734
54599SOL     OW68607   0.033   5.877  11.324 -0.1164  0.3918 -0.1036
54599SOL    HW168608  -0.043   5.820  11.315 -0.6039  0.9533  0.3751
54599SOL    HW268609   0.065   5.862  11.413  2.2162 -2.0979 -1.2144
54600SOL     OW68610  10.810   3.439   5.244 -0.2306 -0.6769 -0.3929
54600SOL    HW168611  10.716   3.422   5.252 -0.0719 -0.9584  1.2570
54600SOL    HW268612  10.823   3.522   5.290  0.2803 -0.4898 -0.8711
54601SOL     OW68613   2.306   9.696  10.484  0.0149  0.3236  0.2276
54601SOL    HW168614   2.309   9.742  10.568 -2.2303 -0.1847  0.6513
54601SOL    HW268615   2.213   9.678  10.470  0.5573 -1.6228 -1.2681
54602SOL     OW68616   8.349   4.110   8.803  0.4394  0.5059  0.2379
54602SOL    HW168617   8.256   4.107   8.781  0.3290 -0.0205  0.7616
54602SOL    HW268618   8.394   4.085   8.722 -0.0070 -3.2315  0.9670
54603SOL     OW68619   2.345  11.277   8.796 -0.4675 -0.2252 -0.6985
54603SOL    HW168620   2.259  11.248   8.765 -2.7939  2.9527  1.9617
54603SOL    HW268621   2.372  11.342   8.731 -0.3808 -0.7684 -1.2121
54604SOL     OW68622   1.467   8.202   3.212 -0.1025 -0.0114  0.7221
54604SOL    HW168623   1.450   8.188   3.119  0.9066  0.5916  0.4340
54604SOL    HW268624   1.554   8.242   3.215  0.4699 -1.2389  2.0060
54605SOL     OW68625   2.533   6.165   5.504 -0.0404 -0.4692  0.5003
54605SOL    HW168626   2.472   6.131   5.439  0.3686  0.6313 -0.4792
54605SOL    HW268627   2.604   6.100   5.506 -0.7684 -1.2798  0.9798
54606SOL     OW68628   8.021   9.406   4.171  0.1514 -0.2628  0.1073
54606SOL    HW168629   7.948   9.466   4.191  0.4695 -0.3711  1.7394
54606SOL    HW268630   7.978   9.328   4.136 -0.5221 -0.2742  0.9169
54607SOL     OW68631   2.713   8.384   4.861  0.5230 -0.1309 -0.3962
54607SOL    HW168632   2.761   8.442   4.920 -1.2493 -0.4234  1.4234
54607SOL    HW268633   2.743   8.296   4.883 -0.6846 -0.3048  0.6631
54608SOL     OW68634   1.958   0.981   1.727 -0.3253 -0.0238  0.6724
54608SOL    HW168635   1.894   0.957   1.660 -0.8424 -1.4034  1.6196
54608SOL    HW268636   2.018   1.041   1.682 -0.7838 -0.7273 -0.9577
54609SOL     OW68637   0.626   8.859   0.567 -0.0110 -0.2779 -0.7658
54609SOL    HW168638   0.612   8.927   0.633  1.0337 -1.5255  0.8362
54609SOL    HW268639   0.718   8.870   0.541 -0.0829 -0.5347 -1.1363
54610SOL     OW68640  12.594  11.873   7.140  0.1114  0.0731  0.0843
54610SOL    HW168641  12.544  11.855   7.061  0.2983  1.1861 -0.3006
54610SOL    HW268642  12.676  11.824   7.129  0.9037  1.6161 -1.2577
54611SOL     OW68643   7.354   9.634   4.262  0.0665  0.0505 -0.5057
54611SOL    HW168644   7.415   9.611   4.332 -0.6835 -0.3752  0.0163
54611SOL    HW268645   7.278   9.578   4.276 -0.5133  0.6725 -1.0669
54612SOL     OW68646  12.020   5.583  12.160 -0.2086  0.4969 -0.4310
54612SOL    HW168647  12.101   5.561  12.206 -0.8597 -0.5895  0.2363
54612SOL    HW268648  12.031   5.547  12.072  0.4173  1.2223 -0.6598
54613SOL     OW68649   8.707   0.269   4.816  0.4034 -0.2852 -0.0989
54613SOL    HW168650   8.727   0.338   4.879  0.4055 -0.7297  0.3919
54613SOL    HW268651   8.614   0.248   4.832  1.0892 -2.3513  1.7203
54614SOL     OW68652   4.570   1.139   2.228 -0.0498  0.2212  0.6605
54614SOL    HW168653   4.600   1.077   2.294  2.0337  0.8855  0.4186
54614SOL    HW268654   4.557   1.221   2.275  3.9707  1.4391  0.0351
54615SOL     OW68655   4.669   8.615   8.268 -0.3677 -0.0842 -0.0995
54615SOL    HW168656   4.752   8.577   8.298 -1.1048 -2.1764 -0.5209
54615SOL    HW268657   4.656   8.579   8.180 -1.7770  0.0899  0.0104
54616SOL     OW68658   6.768  12.327   0.471  0.6560  0.5686 -0.7594
54616SOL    HW168659   6.689  12.354   0.518  1.2989  0.7297  0.2591
54616SOL    HW268660   6.784  12.238   0.499  1.4433  0.9052 -0.1137
54617SOL     OW68661   6.398   7.471  12.350  0.5578 -0.6823 -0.2910
54617SOL    HW168662   6.487   7.479  12.384  0.6361 -0.4018 -0.5598
54617SOL    HW268663   6.342   7.497  12.423  0.6595 -1.6410  0.1455
54618SOL     OW68664   3.668   6.212   3.551  0.0834 -0.3575 -0.4236
54618SOL    HW168665   3.692   6.129   3.592  0.4178 -0.5381 -0.9730
54618SOL    HW268666   3.679   6.277   3.621  0.3240 -0.7013 -0.1330
54619SOL     OW68667   5.051   3.681   2.340  0.0707 -0.2289 -0.1711
54619SOL    HW168668   4.966   3.699   2.302 -0.2058  0.7328  0.8374
54619SOL    HW268669   5.111   3.679   2.266 -0.8413 -1.0395 -0.9037
54620SOL     OW68670  12.332   1.525   0.666  0.0157  0.0969  0.0277
54620SOL    HW168671  12.264   1.540   0.601  0.8402 -0.1486 -0.9217
54620SOL    HW268672  12.346   1.611   0.707 -0.5452  0.2398 -0.0711
54621SOL     OW68673   0.909   5.603  11.903 -0.2879 -0.1427 -0.9524
54621SOL    HW168674   0.887   5.653  11.982  0.5037 -0.8417 -0.2731
54621SOL    HW268675   0.869   5.652  11.832 -2.1085 -0.1481 -0.0015
54622SOL     OW68676   3.067  11.156   6.968  0.4054 -0.0609 -0.4486
54622SOL    HW168677   3.064  11.156   7.064 -1.4553  2.3046 -0.4057
54622SOL    HW268678   3.071  11.063   6.944 -2.8847 -1.0055  1.9150
54623SOL     OW68679  10.095   0.213  10.016 -0.3230 -0.8307  0.1864
54623SOL    HW168680  10.127   0.199   9.927  0.1199 -0.6704  0.3228
54623SOL    HW268681  10.154   0.277  10.054 -0.0553 -1.4607  0.8481
54624SOL     OW68682   1.545   1.443   0.069 -0.7368  0.7955 -0.1549
54624SOL    HW168683   1.636   1.431   0.097 -0.3132  2.5614 -0.6885
54624SOL    HW268684   1.550   1.498  -0.009 -2.2920  1.1245 -0.0638
54625SOL     OW68685   4.837   9.541   0.887 -0.5251  0.3769 -0.0853
54625SOL    HW168686   4.862   9.505   0.802  0.6575  1.5068 -0.2309
54625SOL    HW268687   4.892   9.494   0.950 -0.1869  0.7492 -0.1069
54626SOL     OW68688   8.504   3.646   7.942  0.1507  0.9522 -0.3325
54626SOL    HW168689   8.423   3.608   7.910  0.3165  0.1484  0.1703
54626SOL    HW268690   8.479   3.694   8.021  0.2705  0.0867  0.2415
54627SOL     OW68691   4.373   6.375   8.005  0.1930  0.2574 -0.6961
54627SOL    HW168692   4.354   6.413   7.920 -1.6932  0.1065 -0.3741
54627SOL    HW268693   4.336   6.287   8.002  0.5959  0.0461  0.0977
54628SOL     OW68694   3.547  10.340   7.225 -0.2507  0.1140  0.2069
54628SOL    HW168695   3.481  10.302   7.168  0.6849 -1.8746  0.3654
54628SOL    HW268696   3.570  10.423   7.183 -0.9643 -0.3944 -1.2608
54629SOL     OW68697   8.533   7.414  11.476 -0.1025 -0.5893  0.7083
54629SOL    HW168698   8.561   7.491  11.426  1.5150 -1.3208  0.4232
54629SOL    HW268699   8.574   7.424  11.561  0.0359 -1.0794  0.7014
54630SOL     OW68700  11.731  10.915   2.457 -0.5507  0.4344 -0.3880
54630SOL    HW168701  11.797  10.981   2.435  0.7903  0.1115  2.2433
54630SOL    HW268702  11.657  10.966   2.491  0.7361  0.6979  2.2651
54631SOL     OW68703   0.653   5.260   4.405 -0.1305  0.3611  0.2893
54631SOL    HW168704   0.567   5.302   4.395 -0.1148  0.3033 -0.0814
54631SOL    HW268705   0.690   5.260   4.317 -0.1995 -0.5892  0.2561
54632SOL     OW68706   8.927   9.108   9.627 -0.6071  0.4549  0.4007
54632SOL    HW168707   8.954   9.059   9.705 -0.5890 -0.3863 -0.1297
54632SOL    HW268708   8.899   9.193   9.662 -0.4407  0.1557  1.3079
54633SOL     OW68709   4.068   0.186   7.859 -0.8563 -0.9046  0.4470
54633SOL    HW168710   4.160   0.166   7.880 -1.3188 -0.3043  3.6130
54633SOL    HW268711   4.042   0.116   7.799  2.0047 -0.2837 -1.7421
54634SOL     OW68712   8.826   8.641  10.809  0.3649  0.2918 -0.1781
54634SOL    HW168713   8.766   8.623  10.881  0.7040 -2.1533 -0.4349
54634SOL    HW268714   8.774   8.692  10.747 -0.3047  1.3362  1.1724
54635SOL     OW68715   0.177   3.855  12.491  0.0562 -0.0990 -0.1081
54635SOL    HW168716   0.222   3.923  12.542  0.7013 -0.6751  0.0961
54635SOL    HW268717   0.107   3.903  12.446  1.2191  0.9349 -0.8950
54636SOL     OW68718   9.418   2.475   2.770  0.3014  0.4259  0.0280
54636SOL    HW168719   9.409   2.567   2.746 -0.8981  0.1404 -0.6343
54636SOL    HW268720   9.435   2.429   2.688 -0.9654 -0.1810  0.0902
54637SOL     OW68721   6.281   1.058  11.730 -0.1084  0.0229  0.5145
54637SOL    HW168722   6.273   1.124  11.799  0.2648  0.6835 -0.0578
54637SOL    HW268723   6.360   1.083  11.682 -0.7483  0.0042 -0.5864
54638SOL     OW68724   0.641  10.772  12.023  0.5612  0.1578  0.0255
54638SOL    HW168725   0.653  10.677  12.018  1.6771  0.3462 -2.1729
54638SOL    HW268726   0.729  10.808  12.018  0.1933  1.3390  1.3479
54639SOL     OW68727   6.957  11.204   8.574 -0.1892 -0.2439  0.7064
54639SOL    HW168728   6.941  11.276   8.636  0.1562 -0.0744  0.6012
54639SOL    HW268729   7.039  11.228   8.530  0.1951 -0.9443  1.0205
54640SOL     OW68730   3.395   1.900  11.683  0.1061 -0.5788 -0.5451
54640SOL    HW168731   3.363   1.949  11.607 -0.1232  0.4596  0.2045
54640SOL    HW268732   3.487   1.885  11.664 -0.2894 -1.6872 -1.7233
54641SOL     OW68733   1.875  10.728  12.121 -0.1238 -0.1528 -0.0515
54641SOL    HW168734   1.919  10.668  12.181 -0.1690 -1.5676 -1.3683
54641SOL    HW268735   1.783  10.701  12.123 -0.2513  0.2559 -0.2118
54642SOL     OW68736  12.204   3.520   6.330 -0.1721 -0.0062  0.7275
54642SOL    HW168737  12.208   3.557   6.418  3.4080  2.4801 -0.2519
54642SOL    HW268738  12.150   3.581   6.281  0.6285  0.5256  0.4904
54643SOL     OW68739  10.019  10.291   1.741 -0.1679  0.2915 -0.1684
54643SOL    HW168740   9.925  10.285   1.720 -0.7996  0.5502  2.2193
54643SOL    HW268741  10.046  10.200   1.755 -0.0750  0.2232 -0.7725
54644SOL     OW68742  10.945   9.929   6.867 -0.2651  0.6355  0.3466
54644SOL    HW168743  10.889   9.986   6.920  2.0446  2.8054  0.6464
54644SOL    HW268744  10.916   9.945   6.777 -0.5608  1.2435  0.5411
54645SOL     OW68745  12.359   6.674   2.606  0.5198 -0.0750 -0.6829
54645SOL    HW168746  12.323   6.599   2.652 -0.3253  0.1323 -0.9957
54645SOL    HW268747  12.290   6.702   2.547 -0.2342  2.5620  1.2502
54646SOL     OW68748   4.788   5.824   7.762  0.2710  0.5532  0.2253
54646SOL    HW168749   4.724   5.861   7.702 -1.3259 -2.2272 -0.0060
54646SOL    HW268750   4.788   5.730   7.741  1.3896 -0.1619  2.9729
54647SOL     OW68751   5.686   7.250   5.454 -0.1788 -0.3741  0.3406
54647SOL    HW168752   5.618   7.298   5.408  0.1351  0.6292  0.9008
54647SOL    HW268753   5.644   7.220   5.535  0.6648  2.5486  2.0227
54648SOL     OW68754   7.578   4.826   3.342 -0.0402  0.0587  0.5327
54648SOL    HW168755   7.642   4.834   3.272 -1.0124  3.2002 -0.1591
54648SOL    HW268756   7.517   4.758   3.312  0.0434  0.7410 -1.2707
54649SOL     OW68757   9.265   9.779   9.532 -0.0348  0.4743 -0.4189
54649SOL    HW168758   9.301   9.693   9.510 -0.4394 -0.0508  0.8810
54649SOL    HW268759   9.174   9.774   9.504  0.2275  0.9200 -1.4159
54650SOL     OW68760   9.927   6.843   8.947 -0.4089  1.0684 -0.4284
54650SOL    HW168761   9.950   6.752   8.929 -1.0910  1.0578 -1.2742
54650SOL    HW268762   9.839   6.853   8.913 -1.4187  1.3289  2.0354
54651SOL     OW68763   6.995  12.428   4.750 -0.2959  0.4967 -0.2804
54651SOL    HW168764   7.031  12.481   4.679 -0.6833  0.5053 -0.4743
54651SOL    HW268765   6.915  12.474   4.776  0.1565  0.8127  0.5639
54652SOL     OW68766   0.740   3.781   4.922  0.5991  0.3346 -0.2393
54652SOL    HW168767   0.817   3.793   4.978  1.7666  0.0019 -1.6746
54652SOL    HW268768   0.767   3.818   4.837  0.5939 -2.9264 -1.8506
54653SOL     OW68769  10.563   9.848   6.569 -0.1175 -0.1433 -0.1892
54653SOL    HW168770  10.595   9.915   6.630 -0.2983 -0.6177  0.4359
54653SOL    HW268771  10.628   9.847   6.499 -1.2389  2.2562 -1.3732
54654SOL     OW68772   0.701   0.649   7.255 -0.2069 -0.4952 -0.0429
54654SOL    HW168773   0.766   0.642   7.325 -0.1477 -0.4406 -0.0915
54654SOL    HW268774   0.625   0.690   7.296  0.2483  0.6361 -0.2770
54655SOL     OW68775   0.698   3.328   6.318  0.6928 -0.2482 -0.6693
54655SOL    HW168776   0.709   3.244   6.274  2.9229  0.0158 -0.7094
54655SOL    HW268777   0.636   3.376   6.262 -0.1528 -1.6190 -0.9506
54656SOL     OW68778   8.674   6.158  12.272 -0.0357 -0.2553 -0.2011
54656SOL    HW168779   8.673   6.073  12.227 -0.5581 -0.4680  0.2133
54656SOL    HW268780   8.582   6.184  12.277 -0.0454 -0.4824  1.2038
54657SOL     OW68781  12.408   2.245   3.582 -0.5240 -0.0656 -0.1704
54657SOL    HW168782  12.419   2.339   3.597  0.6014  0.0156 -1.3401
54657SOL    HW268783  12.329   2.222   3.631 -0.3815  1.3266  0.7693
54658SOL     OW68784   7.129   8.234   5.988  0.0223  0.4667  0.2968
54658SOL    HW168785   7.151   8.145   6.015 -0.7015  0.6837  1.6855
54658SOL    HW268786   7.210   8.284   6.001 -0.0688  0.3785  1.2837
54659SOL     OW68787   9.821   0.889   5.096 -0.1203  0.4621 -0.2565
54659SOL    HW168788   9.762   0.859   5.026  0.0017 -0.3213 -0.0401
54659SOL    HW268789   9.781   0.854   5.176 -0.4170  1.5978  0.1025
54660SOL     OW68790   8.097  10.945  12.308 -0.2585 -0.4052 -0.0242
54660SOL    HW168791   8.026  10.899  12.352 -0.1329  1.0681  1.8907
54660SOL    HW268792   8.054  11.015  12.260 -0.2022 -0.2379  0.1657
54661SOL     OW68793   3.277  10.226  12.455  0.3008  0.5980  0.4394
54661SOL    HW168794   3.298  10.161  12.521  0.0039  0.1144  0.0645
54661SOL    HW268795   3.272  10.309  12.503 -1.6685  0.0067  1.3429
54662SOL     OW68796   2.816   9.283   2.429  0.7625 -0.2872  0.1207
54662SOL    HW168797   2.817   9.254   2.338 -0.2822 -0.0302  0.0169
54662SOL    HW268798   2.765   9.215   2.475 -1.6366  1.2543 -0.1050
54663SOL     OW68799   1.993  10.554  12.296  0.8455 -0.0448 -0.0887
54663SOL    HW168800   1.924  10.516  12.350  0.6844 -0.6659 -0.7185
54663SOL    HW268801   2.027  10.481  12.245  0.5186  0.6491 -1.3369
54664SOL     OW68802   5.249  11.179   9.880 -0.3296  0.2346  0.3654
54664SOL    HW168803   5.289  11.196   9.965 -0.9375  2.0414  0.3244
54664SOL    HW268804   5.310  11.219   9.817 -1.2689  1.4285  0.1831
54665SOL     OW68805   8.730   2.788   2.305 -0.7920  0.3110  0.0664
54665SOL    HW168806   8.719   2.883   2.300 -0.6738  0.3173 -0.0767
54665SOL    HW268807   8.785   2.766   2.230  0.2660  0.2980  0.8159
54666SOL     OW68808   5.981   7.280   0.290 -0.4319  0.2372 -0.7283
54666SOL    HW168809   6.010   7.372   0.288 -0.1235  0.1874  0.5590
54666SOL    HW268810   5.927   7.270   0.211 -0.7940  1.6272 -0.6799
54667SOL     OW68811   5.522   6.272   4.645  0.1030  0.1821 -0.4732
54667SOL    HW168812   5.496   6.360   4.617 -0.1527  0.2903  0.0897
54667SOL    HW268813   5.524   6.221   4.564  0.1997  0.6885 -0.7999
54668SOL     OW68814   0.687  10.550   5.934 -0.1497 -0.7611  0.0699
54668SOL    HW168815   0.633  10.502   5.996 -1.2225  1.9081  1.3781
54668SOL    HW268816   0.649  10.531   5.849  0.3613 -3.2412  0.3219
54669SOL     OW68817   5.396   0.796  12.130 -0.2042  0.1117 -0.1398
54669SOL    HW168818   5.452   0.729  12.091  1.0709  0.1950  1.4119
54669SOL    HW268819   5.430   0.879  12.095  0.1622  0.1107  0.1992
54670SOL     OW68820   7.906   8.349   1.517 -0.4255 -0.8154 -0.4674
54670SOL    HW168821   7.879   8.265   1.556 -1.7417  0.4903  1.6372
54670SOL    HW268822   7.999   8.357   1.539 -0.6489 -1.0728  0.6533
54671SOL     OW68823   8.588   0.348   9.589  0.4366 -0.1592 -0.6480
54671SOL    HW168824   8.623   0.264   9.560  1.6648  0.0753  0.1146
54671SOL    HW268825   8.572   0.338   9.682  0.8712  0.5353 -0.4862
54672SOL     OW68826   8.688  10.188   0.994  0.5838  0.4807 -0.0961
54672SOL    HW168827   8.724  10.167   1.081 -0.2975 -0.0526  0.1526
54672SOL    HW268828   8.638  10.110   0.970  1.7980  0.1290 -1.6340
54673SOL     OW68829   9.925   0.732   7.322 -0.3373 -0.3195  0.0186
54673SOL    HW168830  10.016   0.705   7.314  0.3260  1.6498  0.1810
54673SOL    HW268831   9.875   0.662   7.282  1.2193 -1.5860  0.1733
54674SOL     OW68832   3.668  12.254   0.045  0.3825  0.4818  0.6049
54674SOL    HW168833   3.667  12.193   0.120  0.2282 -0.7524 -0.3630
54674SOL    HW268834   3.577  12.258   0.017  0.5651  0.2992 -0.0146
54675SOL     OW68835   9.067  12.052   7.040  0.2790 -0.2976  0.3618
54675SOL    HW168836   9.128  12.117   7.007 -1.5664  1.0740 -0.5780
54675SOL    HW268837   9.081  11.975   6.986 -1.6656  1.4154 -2.9046
54676SOL     OW68838  12.023   4.844   6.739 -0.5016  0.3240  0.5300
54676SOL    HW168839  11.956   4.911   6.752 -0.5116  0.2760  0.7282
54676SOL    HW268840  12.000   4.775   6.802 -1.7901 -0.8792 -1.1479
54677SOL     OW68841   7.980   8.343   3.279  0.0678 -0.2055  0.4603
54677SOL    HW168842   7.972   8.438   3.280  0.6823 -0.1228 -0.6135
54677SOL    HW268843   7.948   8.317   3.193  1.3604 -0.8014  0.1304
54678SOL     OW68844   7.786   6.966   7.196  0.2990 -0.4084 -0.0802
54678SOL    HW168845   7.697   6.967   7.162 -0.2570 -1.1846  1.2948
54678SOL    HW268846   7.806   7.059   7.211 -0.5352 -0.2674  0.2361
54679SOL     OW68847   3.936   1.369  10.893  0.0685  0.1614 -0.0327
54679SOL    HW168848   3.909   1.446  10.943  1.1570  0.3656  0.2535
54679SOL    HW268849   3.945   1.402  10.803  1.0437  0.5172  0.1761
54680SOL     OW68850   2.270  11.851  11.853  0.1466 -0.2605  0.2230
54680SOL    HW168851   2.361  11.827  11.871 -0.2892 -1.8601  0.4483
54680SOL    HW268852   2.225  11.837  11.935 -0.3653  0.2606  0.0348
54681SOL     OW68853   3.244   1.102  11.248  0.4707 -0.3217 -0.6108
54681SOL    HW168854   3.184   1.028  11.243 -0.7485  0.0672  3.9708
54681SOL    HW268855   3.193   1.176  11.214 -0.5590 -0.5470  0.3924
54682SOL     OW68856   4.086   2.234   3.032  0.2652 -0.3093  0.4553
54682SOL    HW168857   4.058   2.229   2.941 -1.7439  0.4657  0.9784
54682SOL    HW268858   4.146   2.309   3.035  0.7940 -0.6935 -0.3188
54683SOL     OW68859  11.402   5.244  11.476 -0.3689 -0.2449 -0.2534
54683SOL    HW168860  11.372   5.225  11.387  1.4444 -2.1866 -0.5334
54683SOL    HW268861  11.498   5.246  11.468 -0.2176  2.0777  1.2271
54684SOL     OW68862   6.676   2.191   5.092 -0.3001  0.5996 -0.4950
54684SOL    HW168863   6.617   2.116   5.104 -0.8504  1.0678 -0.2179
54684SOL    HW268864   6.719   2.175   5.008 -2.3566  1.2489 -1.7606
54685SOL     OW68865   6.390   0.092  11.735  0.3639  0.1462 -0.2191
54685SOL    HW168866   6.447   0.020  11.763  0.7447  0.7544  0.6057
54685SOL    HW268867   6.333   0.108  11.810  0.7652  1.1737 -0.1132
54686SOL     OW68868   3.044   6.486   3.870 -0.0900  0.5829  0.0931
54686SOL    HW168869   3.037   6.560   3.810 -0.6848  0.5529  0.1167
54686SOL    HW268870   3.086   6.417   3.819 -0.2956  0.6647 -0.1872
54687SOL     OW68871   1.709   2.747   7.789 -0.0940 -0.3702  0.0912
54687SOL    HW168872   1.654   2.719   7.715  0.2143  0.2755 -0.3949
54687SOL    HW268873   1.792   2.700   7.776 -0.2807 -0.7922  0.4204
54688SOL     OW68874   0.150   1.281   5.503 -0.6524 -0.1003 -0.0545
54688SOL    HW168875   0.133   1.274   5.409 -0.8284  0.1960 -0.0445
54688SOL    HW268876   0.161   1.375   5.519 -4.1633  0.2912  0.8329
54689SOL     OW68877   5.154   4.037   5.776  0.1668  0.1662  0.4314
54689SOL    HW168878   5.067   3.998   5.786  0.4771 -0.4795  0.6692
54689SOL    HW268879   5.204   3.972   5.725  0.0383  1.2540 -1.1746
54690SOL     OW68880  10.728   5.060   7.078  0.5846  0.2611  0.1999
54690SOL    HW168881  10.656   5.000   7.099  0.1967  1.0341  1.1273
54690SOL    HW268882  10.690   5.123   7.016  1.2269 -0.9153 -1.4789
54691SOL     OW68883   0.738   6.430   6.853 -0.2628 -0.4861 -0.1965
54691SOL    HW168884   0.688   6.350   6.870 -2.3171  0.6110 -0.6208
54691SOL    HW268885   0.739   6.476   6.937 -1.2250  0.1128 -0.4881
54692SOL     OW68886   2.244   9.436   4.778 -0.2125 -0.1123 -0.3112
54692SOL    HW168887   2.199   9.508   4.735  1.4568  1.5026  0.4910
54692SOL    HW268888   2.212   9.437   4.868  0.8934  0.6517  0.1009
54693SOL     OW68889   8.986   3.991   8.709  0.0633  0.6080 -0.4281
54693SOL    HW168890   8.985   4.050   8.785  0.0515 -1.4033  1.2243
54693SOL    HW268891   8.912   3.932   8.723  1.2135 -1.0249 -0.9710
54694SOL     OW68892   1.833  10.770  12.568  0.1216  0.0942 -0.6073
54694SOL    HW168893   1.775  10.781  12.644  0.5702  0.7170 -0.3478
54694SOL    HW268894   1.848  10.859  12.536  0.1303 -0.1464 -1.2856
54695SOL     OW68895   4.198   5.711   1.313 -0.7729 -0.5069  0.4105
54695SOL    HW168896   4.190   5.805   1.296  1.5714 -0.4331 -0.7697
54695SOL    HW268897   4.283   5.702   1.357 -1.3321 -2.0076  1.2481
54696SOL     OW68898   8.416   5.892   3.869 -0.3860  0.1994  0.3063
54696SOL    HW168899   8.439   5.960   3.932 -0.7892  1.1255 -0.5317
54696SOL    HW268900   8.322   5.878   3.881  0.1891 -2.7535  2.9112
54697SOL     OW68901   7.757   0.740  11.892 -0.0622  0.4466 -0.4190
54697SOL    HW168902   7.778   0.832  11.905  0.7298  0.1236  0.7701
54697SOL    HW268903   7.790   0.696  11.970 -0.6759 -0.8150 -0.8299
54698SOL     OW68904   2.988  10.814  10.686 -0.0643 -0.4432  0.7303
54698SOL    HW168905   3.070  10.809  10.637 -0.8556  1.7487 -0.9799
54698SOL    HW268906   2.959  10.723  10.694  0.3732 -0.9746 -2.5244
54699SOL     OW68907  12.005   1.744   1.580  0.1220 -0.3076 -0.1433
54699SOL    HW168908  11.939   1.812   1.564  0.5413  0.2664  0.4627
54699SOL    HW268909  11.955   1.667   1.607 -0.4116 -0.4758 -1.5210
54700SOL     OW68910   4.222   4.352   5.636 -0.1143  0.2883  0.2867
54700SOL    HW168911   4.166   4.293   5.687 -1.3953  1.3861  0.2258
54700SOL    HW268912   4.245   4.422   5.697  0.5521  0.2516  0.0815
54701SOL     OW68913   3.586   3.740  11.708 -0.0597  0.2649  0.1852
54701SOL    HW168914   3.546   3.653  11.711  0.0609  0.1986 -0.1369
54701SOL    HW268915   3.680   3.724  11.712 -0.0560  0.4975  2.7005
54702SOL     OW68916  11.624   9.637   7.275 -0.0889  0.0653  0.3168
54702SOL    HW168917  11.538   9.620   7.312  0.5714  1.0344  2.4414
54702SOL    HW268918  11.670   9.553   7.282 -0.4197 -0.1118  0.3944
54703SOL     OW68919   1.025   8.071   7.280 -0.1108 -0.0914 -0.3520
54703SOL    HW168920   1.087   8.031   7.341  0.0323  0.3884 -0.1776
54703SOL    HW268921   0.947   8.087   7.333 -0.6848 -1.4202 -0.7617
54704SOL     OW68922   6.595   7.778  10.435 -0.1048  0.1262  0.6916
54704SOL    HW168923   6.536   7.802  10.506 -0.4642 -2.4272  1.3684
54704SOL    HW268924   6.671   7.834  10.447  0.2755 -0.8567  3.7832
54705SOL     OW68925  12.379   1.875   2.863  0.2505  0.1680  0.4832
54705SOL    HW168926  12.367   1.784   2.835  1.1854  0.5514 -1.2593
54705SOL    HW268927  12.301   1.893   2.916  0.0582 -1.6443  0.8949
54706SOL     OW68928   3.406   2.242  10.918  0.1648 -0.7511  0.1563
54706SOL    HW168929   3.482   2.184  10.923  3.9221  3.6944  2.0785
54706SOL    HW268930   3.367   2.239  11.006 -0.2797 -1.0216 -0.0427
54707SOL     OW68931   4.327   9.818   0.816  0.4484  0.2390  0.0262
54707SOL    HW168932   4.245   9.838   0.770 -0.1544 -1.5066  0.2774
54707SOL    HW268933   4.372   9.903   0.820 -1.5956  1.3895  0.4174
54708SOL     OW68934  10.666   4.310   6.880  0.0911 -0.3617 -0.5761
54708SOL    HW168935  10.698   4.299   6.790  2.1837 -1.7531  0.2765
54708SOL    HW268936  10.603   4.238   6.892  0.1557 -0.4527 -0.7781
54709SOL     OW68937  11.618   2.731   1.447  0.5892 -0.3950 -0.2478
54709SOL    HW168938  11.542   2.686   1.409  0.5150  1.0026 -1.8769
54709SOL    HW268939  11.604   2.726   1.541 -3.1546  2.3757 -0.4426
54710SOL     OW68940   2.282   2.870   4.506 -0.0026 -0.1006 -0.6326
54710SOL    HW168941   2.255   2.794   4.454 -0.9706  0.1562 -0.5376
54710SOL    HW268942   2.336   2.833   4.576 -0.0179 -0.6392 -0.8954
54711SOL     OW68943   7.529   1.746   2.633 -0.2729  0.0020 -0.1205
54711SOL    HW168944   7.529   1.687   2.708 -0.8366  0.2161  0.0509
54711SOL    HW268945   7.568   1.695   2.562 -1.4729 -0.8547 -0.1912
54712SOL     OW68946   7.300   7.155   0.766 -0.1672  0.2508  0.7292
54712SOL    HW168947   7.350   7.104   0.703 -0.3794  0.4180  0.4258
54712SOL    HW268948   7.356   7.159   0.844 -0.0985 -0.3371  0.7116
54713SOL     OW68949   2.216  11.980   1.797  0.2246  0.0350  0.5111
54713SOL    HW168950   2.152  12.050   1.806 -0.6774 -0.5980 -0.6642
54713SOL    HW268951   2.283  12.016   1.738 -0.2218 -0.0702 -0.0680
54714SOL     OW68952   7.941  10.214  10.068  0.2147 -0.5303  0.1304
54714SOL    HW168953   8.030  10.186  10.045 -0.4000 -1.2825 -1.4206
54714SOL    HW268954   7.884  10.165  10.009 -1.2977 -0.6052  1.5780
54715SOL     OW68955   0.295   4.566   3.772  0.4420  0.2588  0.2775
54715SOL    HW168956   0.360   4.514   3.820 -0.5578 -2.2252 -0.8518
54715SOL    HW268957   0.325   4.563   3.681 -0.0263  1.1143  0.0836
54716SOL     OW68958   9.008   6.697   9.322 -0.1734 -0.2572  0.5268
54716SOL    HW168959   8.999   6.711   9.227 -0.6502  1.0863  0.7459
54716SOL    HW268960   8.957   6.619   9.340  1.5098 -1.6959 -0.6027
54717SOL     OW68961  12.075   6.233   8.157  0.1359 -0.1329 -0.3112
54717SOL    HW168962  12.109   6.252   8.070 -1.6905 -0.5529 -1.1534
54717SOL    HW268963  12.119   6.151   8.182  0.3225 -0.2671 -1.0432
54718SOL     OW68964   0.227   2.344   7.900  0.1585 -0.4600 -0.1730
54718SOL    HW168965   0.279   2.272   7.935  0.3294  0.0807  0.7149
54718SOL    HW268966   0.290   2.399   7.855  0.1314 -0.5320 -0.2988
54719SOL     OW68967   2.295   7.500   0.685  0.2972  0.5238  0.1387
54719SOL    HW168968   2.231   7.501   0.756 -1.7073  0.5509 -1.5854
54719SOL    HW268969   2.253   7.451   0.615  1.8585  1.1949 -1.3489
54720SOL     OW68970   7.221   5.676   5.178  0.2724 -0.3689 -0.3763
54720SOL    HW168971   7.145   5.625   5.148 -0.3759  0.0507  0.5151
54720SOL    HW268972   7.183   5.758   5.210  1.1350 -0.0582 -0.1404
54721SOL     OW68973   3.172   3.624   3.108  0.7472 -0.3630  0.5808
54721SOL    HW168974   3.160   3.719   3.105  2.1846 -0.1611  0.4398
54721SOL    HW268975   3.181   3.605   3.202  0.9981 -0.2841  0.5728
54722SOL     OW68976   1.164   3.094   2.573 -0.5071  0.3154  0.1103
54722SOL    HW168977   1.205   3.180   2.564 -1.2976  0.6896 -0.0434
54722SOL    HW268978   1.202   3.042   2.502 -0.7542  0.8404 -0.4178
54723SOL     OW68979   2.712  10.680   6.015  0.2710 -0.6019  0.0235
54723SOL    HW168980   2.783  10.641   6.065 -0.2956 -1.4665  0.1844
54723SOL    HW268981   2.732  10.774   6.012  2.1930 -1.0104 -1.2370
54724SOL     OW68982   8.522   4.103   8.184 -0.0127 -0.0813  0.2940
54724SOL    HW168983   8.572   4.023   8.203  0.7902  0.8908  2.5993
54724SOL    HW268984   8.432   4.072   8.174  0.5713 -1.5084 -1.0346
54725SOL     OW68985   8.254   8.066  10.181  0.2843  0.4603  0.3403
54725SOL    HW168986   8.178   8.043  10.235  0.0684  1.8835  0.6702
54725SOL    HW268987   8.297   7.982  10.165 -0.6790 -0.2264  1.1629
54726SOL     OW68988   9.968  10.590   2.592 -0.0345 -0.5681 -0.2409
54726SOL    HW168989   9.992  10.507   2.550  1.7696 -0.4810  0.5439
54726SOL    HW268990  10.039  10.650   2.568 -1.2179  0.7219 -0.6297
54727SOL     OW68991  10.900   8.939   2.034 -0.3644 -0.0063  0.3522
54727SOL    HW168992  10.813   8.959   2.068  0.0136  2.3121  0.1269
54727SOL    HW268993  10.943   9.024   2.026  1.4628 -0.9679 -0.8178
54728SOL     OW68994   2.257   4.045   1.243 -0.3459  0.1093  0.2027
54728SOL    HW168995   2.244   4.140   1.233 -0.7235 -0.0552 -1.0659
54728SOL    HW268996   2.352   4.034   1.240 -0.2918  0.4582  0.5356
54729SOL     OW68997   6.409  12.308   9.729  0.5978  0.2973 -0.1737
54729SOL    HW168998   6.348  12.379   9.713  0.0877 -0.3909 -1.4677
54729SOL    HW268999   6.354  12.234   9.754  0.9868 -0.0510 -0.3333
54730SOL     OW69000   9.618   2.725   6.691 -0.8871 -0.0838 -0.2804
54730SOL    HW169001   9.667   2.790   6.642  0.4139  0.7865  1.9864
54730SOL    HW269002   9.598   2.657   6.627  0.6068  0.9942 -2.0090
54731SOL     OW69003   3.892   5.059   8.481  0.2348 -0.6647 -0.0884
54731SOL    HW169004   3.898   4.970   8.516  2.2975 -0.7829 -0.6111
54731SOL    HW269005   3.942   5.057   8.399 -0.8072  0.6624 -0.7972
54732SOL     OW69006  11.572   3.273   1.130  0.3842  0.2779  0.2314
54732SOL    HW169007  11.507   3.208   1.103  1.1336 -1.1857  1.8097
54732SOL    HW269008  11.549   3.294   1.220  1.5599  0.4112  0.5163
54733SOL     OW69009   3.310  11.037   3.027  0.5189  0.1006 -0.6370
54733SOL    HW169010   3.228  11.003   3.062 -0.3932  0.6583 -2.1469
54733SOL    HW269011   3.378  10.989   3.075 -0.6762 -2.1427 -1.0488
54734SOL     OW69012   4.158   7.365   3.844  0.2062 -0.3615  0.2746
54734SOL    HW169013   4.206   7.330   3.769  0.4652  1.4413 -0.4356
54734SOL    HW269014   4.205   7.332   3.920  1.5329 -0.0555 -0.3883
54735SOL     OW69015   8.277  10.703   6.487 -0.0790  0.4804  1.0995
54735SOL    HW169016   8.279  10.643   6.412  1.5299 -0.6867  2.0114
54735SOL    HW269017   8.322  10.781   6.456  0.0589  0.2314  0.6598
54736SOL     OW69018   2.718  12.218   1.309  0.3570 -0.1321 -0.4138
54736SOL    HW169019   2.714  12.193   1.217 -2.9184 -1.7019  0.0444
54736SOL    HW269020   2.757  12.142   1.353 -0.5000 -0.4789 -0.2284
54737SOL     OW69021   3.346   5.504   2.429 -0.0476  0.1070  0.3796
54737SOL    HW169022   3.341   5.410   2.408  1.2808  0.6812 -3.1055
54737SOL    HW269023   3.434   5.515   2.465 -0.4270 -0.0520  1.3779
54738SOL     OW69024   9.940  12.040  11.733 -0.8608  0.5806 -0.1752
54738SOL    HW169025  10.011  12.071  11.788  0.8604 -1.7111 -0.9526
54738SOL    HW269026   9.921  12.113  11.674 -0.3894  1.8344  1.1776
54739SOL     OW69027   0.110   9.210  12.574 -0.3459 -0.1143  0.2223
54739SOL    HW169028   0.206   9.212  12.572 -0.3323  1.8839  0.6491
54739SOL    HW269029   0.089   9.195  12.666 -0.3942  1.2534  0.4610
54740SOL     OW69030  10.106   7.590   6.551 -0.2837 -0.3696  0.7420
54740SOL    HW169031  10.196   7.560   6.535 -1.4254 -2.4389 -3.0356
54740SOL    HW269032  10.061   7.512   6.584 -1.1372  0.0888  0.6887
54741SOL     OW69033   1.703   8.909   5.375 -0.4622  0.4079 -0.2420
54741SOL    HW169034   1.662   8.991   5.402 -3.7645 -1.4808  1.1221
54741SOL    HW269035   1.780   8.901   5.431 -1.6517  1.3066  1.6311
54742SOL     OW69036   7.636   4.494   2.965 -0.4604 -0.1092  0.1068
54742SOL    HW169037   7.698   4.463   2.900  0.0005  0.6117  0.1947
54742SOL    HW269038   7.561   4.525   2.913  0.7412  2.3974 -0.2545
54743SOL     OW69039  11.006  10.913   0.044  0.0673  0.5845 -0.2970
54743SOL    HW169040  11.042  10.854   0.111  0.0282 -0.8641 -1.5059
54743SOL    HW269041  10.952  10.975   0.093  0.8934  0.2255  1.1179
54744SOL     OW69042  11.395   5.613   1.892 -0.1782 -0.1614 -0.1482
54744SOL    HW169043  11.418   5.701   1.919 -1.5611  0.0541  0.4027
54744SOL    HW269044  11.477   5.563   1.898  0.6879  1.1298 -0.7660
54745SOL     OW69045   5.293   8.779   9.725  0.1749  0.2183  0.1610
54745SOL    HW169046   5.334   8.823   9.650  1.5318 -2.4171 -0.7862
54745SOL    HW269047   5.240   8.710   9.686 -1.5157  0.6602  1.5762
54746SOL     OW69048  12.279   3.485   2.367 -0.1992 -0.1676  0.0210
54746SOL    HW169049  12.346   3.417   2.370  0.0351  0.0375 -0.3734
54746SOL    HW269050  12.317   3.553   2.310 -1.2910 -0.6429 -1.3187
54747SOL     OW69051   2.416   2.586   3.757  0.6872  0.2197 -0.0657
54747SOL    HW169052   2.471   2.529   3.811 -0.7704  0.4565  1.7601
54747SOL    HW269053   2.328   2.549   3.765  0.3100  0.6569 -1.7979
54748SOL     OW69054   0.971   3.237  12.520 -0.6177 -0.1263 -0.3807
54748SOL    HW169055   0.901   3.241  12.454  0.7025 -1.6812 -1.9674
54748SOL    HW269056   0.930   3.194  12.594 -1.7428  0.3354 -0.7006
54749SOL     OW69057   1.901   3.377   7.818  0.0523 -0.6203  0.1666
54749SOL    HW169058   1.832   3.311   7.813 -0.5232 -0.0060 -0.0400
54749SOL    HW269059   1.943   3.374   7.732  0.7133 -1.4469  0.5072
54750SOL     OW69060   1.997   6.842   4.982  0.0758  0.1890 -0.0280
54750SOL    HW169061   2.043   6.915   4.939  1.8159 -1.4226 -1.0273
54750SOL    HW269062   2.064   6.775   4.994 -0.9345 -0.4498  2.9833
54751SOL     OW69063   2.758   8.772  10.245  0.4262  0.4921 -0.5293
54751SOL    HW169064   2.702   8.814  10.179  0.0857  0.7269 -0.0942
54751SOL    HW269065   2.726   8.682  10.250  0.7481  0.3459 -1.0080
54752SOL     OW69066   2.098  11.570   2.425  0.1559 -0.1413  0.1471
54752SOL    HW169067   2.134  11.484   2.403  0.3949  0.3420 -1.4551
54752SOL    HW269068   2.127  11.628   2.354 -0.7962  1.0591  0.6905
54753SOL     OW69069  11.532  10.614   8.899 -0.1181 -0.6501  0.1551
54753SOL    HW169070  11.567  10.577   8.980  0.4424 -1.1315 -0.2952
54753SOL    HW269071  11.584  10.573   8.830  1.2513  1.7417 -0.3285
54754SOL     OW69072  11.594   7.135   0.463 -0.6390  0.2595 -0.3176
54754SOL    HW169073  11.536   7.162   0.534 -2.3631 -1.5657 -0.9361
54754SOL    HW269074  11.622   7.217   0.422 -1.1813  1.2574  1.2319
54755SOL     OW69075   5.728   2.046   9.230 -0.0333  0.6859 -0.2885
54755SOL    HW169076   5.704   1.996   9.308  0.5181  0.6313 -0.1462
54755SOL    HW269077   5.802   1.998   9.192  0.1000  1.0489 -0.5001
54756SOL     OW69078  10.811   0.868   5.949 -0.1003  0.0887 -0.2608
54756SOL    HW169079  10.858   0.921   6.013  1.0856 -0.3945 -0.7138
54756SOL    HW269080  10.879   0.818   5.904 -0.9331  0.1546 -1.6544
54757SOL     OW69081  10.778  11.538   1.013 -0.2419 -0.2282  0.3178
54757SOL    HW169082  10.783  11.444   1.001  0.7771 -0.1601  0.1533
54757SOL    HW269083  10.868  11.565   1.031 -0.6415  0.6036  1.1805
54758SOL     OW69084   5.716   7.421   2.448  0.2195  0.1122  0.4163
54758SOL    HW169085   5.747   7.384   2.531 -1.1499 -0.6045  0.6422
54758SOL    HW269086   5.787   7.479   2.420  1.9405 -1.7218  0.6856
54759SOL     OW69087   6.867  10.843   6.880 -0.6597 -0.0149  0.1620
54759SOL    HW169088   6.901  10.781   6.816 -2.7411 -0.4482 -0.5985
54759SOL    HW269089   6.800  10.795   6.928 -0.4182  0.8659  1.4442
54760SOL     OW69090   5.194   7.501   5.726  0.6598  0.0625  1.0772
54760SOL    HW169091   5.289   7.509   5.716  0.7793 -1.0681  1.1338
54760SOL    HW269092   5.182   7.470   5.815  0.2736 -0.1548  0.9535
54761SOL     OW69093  11.946  10.183   9.426  0.0947 -0.7305  0.1723
54761SOL    HW169094  11.982  10.134   9.352  0.2414 -1.3629  0.6542
54761SOL    HW269095  12.016  10.242   9.453  0.6622 -1.6887  0.8662
54762SOL     OW69096  10.519  11.580   5.339 -0.3117 -0.3255 -0.3848
54762SOL    HW169097  10.548  11.603   5.427  0.6959 -0.1281 -0.7569
54762SOL    HW269098  10.440  11.632   5.326  1.5423  2.5489 -0.9535
54763SOL     OW69099   9.460   7.443   0.432 -0.1030  0.1644 -0.2136
54763SOL    HW169100   9.520   7.515   0.416 -1.6338  1.4136 -0.5305
54763SOL    HW269101   9.377   7.485   0.455 -0.7444 -1.5013  0.7335
54764SOL     OW69102   8.507   5.905   1.352  0.4509 -0.1778 -0.6665
54764SOL    HW169103   8.427   5.854   1.340  0.1143  0.2785 -0.3759
54764SOL    HW269104   8.539   5.878   1.438  1.2527 -1.2271 -1.2648
54765SOL     OW69105   9.235   2.458   0.096 -0.2778 -0.1891 -0.0309
54765SOL    HW169106   9.287   2.534   0.072  1.0136 -1.2601 -0.7652
54765SOL    HW269107   9.172   2.491   0.161  1.5129  1.0963  1.1402
54766SOL     OW69108   4.741  10.890   4.772  0.6065  0.2592 -0.2200
54766SOL    HW169109   4.748  10.941   4.691  1.8300  0.1236 -0.2201
54766SOL    HW269110   4.753  10.799   4.743  0.6467  0.1724  0.0689
54767SOL     OW69111   4.174   1.112   6.144  0.2371 -0.0844  0.2268
54767SOL    HW169112   4.145   1.192   6.187  1.0072  1.1053 -1.3677
54767SOL    HW269113   4.257   1.135   6.102 -0.4945 -1.0969 -1.9520
54768SOL     OW69114   1.131   6.792   4.865 -0.3636  0.5788  0.1542
54768SOL    HW169115   1.209   6.815   4.815  0.6746 -0.8972  1.0135
54768SOL    HW269116   1.094   6.716   4.820 -1.8000  1.7121 -0.6896
54769SOL     OW69117   0.007   7.464   9.514  0.3754 -0.0526  1.0286
54769SOL    HW169118  -0.080   7.461   9.555 -0.9115 -1.7023 -1.5489
54769SOL    HW269119   0.063   7.413   9.572 -1.1904 -1.7037  1.1848
54770SOL     OW69120   7.553  11.835   3.378  0.1260 -0.2308 -0.1474
54770SOL    HW169121   7.539  11.744   3.351  0.3372 -0.1148 -0.6668
54770SOL    HW269122   7.552  11.832   3.474 -0.5554 -0.6671 -0.1654
54771SOL     OW69123   8.760   3.383   4.668 -0.4888 -0.6325 -0.1159
54771SOL    HW169124   8.852   3.396   4.646 -0.7002 -0.7801 -1.1261
54771SOL    HW269125   8.760   3.310   4.730  0.0776 -0.6281 -0.1096
54772SOL     OW69126  11.465   9.525   4.783  0.1282 -0.2100 -0.3034
54772SOL    HW169127  11.400   9.527   4.712 -0.4924 -1.1274  0.2189
54772SOL    HW269128  11.513   9.607   4.773 -0.3057 -0.0723 -1.4524
54773SOL     OW69129   3.296  11.585   3.344  0.0654 -0.1080  0.2190
54773SOL    HW169130   3.295  11.598   3.439  1.7995  1.0477  0.1332
54773SOL    HW269131   3.240  11.655   3.310  0.7667  0.5374  0.3412
54774SOL     OW69132   8.863   0.479   2.600 -0.6595 -0.3437  0.1165
54774SOL    HW169133   8.876   0.482   2.695 -0.2695  0.7406  0.0378
54774SOL    HW269134   8.790   0.419   2.589 -1.9833  0.9693  1.2554
54775SOL     OW69135   5.850   3.040  11.379  0.4136 -0.1903  0.1916
54775SOL    HW169136   5.945   3.042  11.385  0.5966 -1.3376 -1.6044
54775SOL    HW269137   5.831   3.049  11.286 -1.2706  0.4015  0.5407
54776SOL     OW69138   8.961   4.333   3.664  0.0533  0.6290 -0.4054
54776SOL    HW169139   9.034   4.277   3.636 -0.1402  0.4812 -0.6124
54776SOL    HW269140   8.979   4.349   3.757 -0.0521 -0.0406 -0.2574
54777SOL     OW69141  10.570  10.367   8.025 -0.5830  0.0634 -0.2397
54777SOL    HW169142  10.534  10.382   8.113 -0.5279  0.2755 -0.2537
54777SOL    HW269143  10.657  10.407   8.028  0.2322 -1.6337  0.2374
54778SOL     OW69144  10.720  12.006  10.126  0.3886 -0.2401  0.6013
54778SOL    HW169145  10.813  12.009  10.144  0.5626  0.4357 -0.3241
54778SOL    HW269146  10.705  12.077  10.064 -0.3670 -1.5863 -0.8677
54779SOL     OW69147   5.585   7.164  11.492 -0.2673  0.5127 -1.4216
54779SOL    HW169148   5.620   7.239  11.444  0.3609 -0.7215 -3.0000
54779SOL    HW269149   5.490   7.170  11.481 -0.2764  1.4146 -0.9644
54780SOL     OW69150  11.179   2.874   7.155 -0.2547 -0.8630  0.4269
54780SOL    HW169151  11.187   2.896   7.063 -1.0193  0.3948  0.6454
54780SOL    HW269152  11.266   2.890   7.192 -0.1014 -0.8100  0.0451
54781SOL     OW69153   3.944   9.178  12.169 -0.5975 -0.4361 -0.1884
54781SOL    HW169154   3.979   9.204  12.084 -0.8091  1.7965  0.3613
54781SOL    HW269155   3.849   9.181  12.158 -0.6410  1.0265  0.4273
54782SOL     OW69156  10.922   6.905   1.701 -0.7926 -0.6085  0.4048
54782SOL    HW169157  10.834   6.914   1.664 -1.4159 -0.4832  1.8587
54782SOL    HW269158  10.979   6.948   1.637 -1.3641 -3.0822 -2.0029
54783SOL     OW69159  12.224   3.791   5.087 -0.1849  0.1594 -0.0049
54783SOL    HW169160  12.230   3.713   5.142  1.4797  0.9880  1.0735
54783SOL    HW269161  12.183   3.761   5.006 -0.6087 -1.5776  0.8242
54784SOL     OW69162  11.463   2.277   6.418  0.7417  0.0798 -0.4215
54784SOL    HW169163  11.386   2.236   6.376 -0.2552  0.7983  0.6634
54784SOL    HW269164  11.427   2.348   6.471  1.8447 -1.2631  2.3211
54785SOL     OW69165   1.667   0.818   9.449 -0.5141 -0.1287  0.3211
54785SOL    HW169166   1.603   0.781   9.389  0.2427 -0.6131 -0.2001
54785SOL    HW269167   1.657   0.913   9.440 -0.2109 -0.1908 -0.7910
54786SOL     OW69168   7.048   9.999   0.215  0.0371  0.4777 -0.0576
54786SOL    HW169169   7.114  10.034   0.155 -0.2052  0.1425 -0.5299
54786SOL    HW269170   7.032   9.910   0.183 -0.4050  0.4437  0.2465
54787SOL     OW69171   7.026   5.626  11.737 -0.0600 -0.2960 -0.2239
54787SOL    HW169172   7.035   5.593  11.826  2.1874  2.8974  0.9468
54787SOL    HW269173   6.955   5.690  11.742 -0.0078 -0.1969 -0.7035
54788SOL     OW69174  11.359  10.306   8.601  0.1944 -0.5660 -0.0114
54788SOL    HW169175  11.300  10.280   8.530 -0.0514 -1.9422  0.6626
54788SOL    HW269176  11.442  10.326   8.557 -0.1920 -0.5872 -0.7655
54789SOL     OW69177  11.552   7.245  12.561 -0.2927  0.0140  0.1201
54789SOL    HW169178  11.601   7.212  12.486  0.6099  1.4725  0.0270
54789SOL    HW269179  11.618   7.283  12.619 -1.1124  0.1383  1.0098
54790SOL     OW69180   6.624   7.589  12.584 -0.2736  0.2900  0.2691
54790SOL    HW169181   6.653   7.607  12.673  0.3896 -2.2912  0.6600
54790SOL    HW269182   6.681   7.518  12.554 -2.9972 -1.6802 -0.7039
54791SOL     OW69183   4.623   4.036  11.623 -0.0039  0.0547 -0.0620
54791SOL    HW169184   4.650   4.025  11.532  0.9127 -0.0369  0.2115
54791SOL    HW269185   4.577   3.954  11.644  0.3287 -0.1857 -0.2587
54792SOL     OW69186   3.288   8.251   3.224  0.5328 -0.3584 -0.0881
54792SOL    HW169187   3.254   8.221   3.140 -0.1240 -1.7305  0.6349
54792SOL    HW269188   3.296   8.172   3.277  0.4734  0.5228  1.3071
54793SOL     OW69189  12.223   8.497   7.872 -0.0902 -0.3232 -0.3862
54793SOL    HW169190  12.148   8.468   7.923 -0.3169 -0.3094 -0.7111
54793SOL    HW269191  12.273   8.417   7.855  0.8031 -0.1334  1.1529
54794SOL     OW69192   1.860   5.853   4.711 -0.1095 -0.0317  0.5575
54794SOL    HW169193   1.764   5.856   4.703 -0.0258  1.7744 -0.2710
54794SOL    HW269194   1.887   5.795   4.640 -0.5307  0.3482  0.0757
54795SOL     OW69195   7.378   5.540  11.860 -0.2019  0.3730  0.1734
54795SOL    HW169196   7.445   5.514  11.924  1.9659  0.4411 -1.9261
54795SOL    HW269197   7.341   5.457  11.829  0.8914  0.1527 -0.6054
54796SOL     OW69198  10.997  11.486   3.582 -0.0583  0.9044 -0.5724
54796SOL    HW169199  10.916  11.463   3.535  0.6950 -1.8348 -0.6445
54796SOL    HW269200  10.981  11.459   3.672  1.0537 -0.4695 -0.7651
54797SOL     OW69201   2.782   3.726   1.168 -0.3040  0.9013  0.0644
54797SOL    HW169202   2.872   3.724   1.136 -0.5795  0.6740 -0.7276
54797SOL    HW269203   2.787   3.774   1.250  0.4553  1.4034 -0.2581
54798SOL     OW69204  12.196  10.158  12.117  0.3235  0.0213 -0.4590
54798SOL    HW169205  12.193  10.088  12.053 -1.5412 -2.5409  2.1749
54798SOL    HW269206  12.106  10.165  12.150  0.3621  3.8661 -0.6820
54799SOL     OW69207   0.284   2.129  11.162 -0.3849  0.3254 -0.0575
54799SOL    HW169208   0.360   2.083  11.199 -2.4133 -2.2494  1.2681
54799SOL    HW269209   0.252   2.185  11.232 -1.0169 -0.3491  0.2044
54800SOL     OW69210  11.709   3.152  10.079  0.3009 -0.3063  0.9567
54800SOL    HW169211  11.620   3.142  10.114  0.6350 -1.2906  1.5462
54800SOL    HW269212  11.763   3.173  10.155  0.4224  1.4492  0.4431
54801SOL     OW69213   1.215   5.898   0.392  0.6090  0.2764 -0.1263
54801SOL    HW169214   1.306   5.874   0.372  0.6733 -1.4528  1.9531
54801SOL    HW269215   1.198   5.860   0.478 -2.7213 -1.2274 -1.2641
54802SOL     OW69216   7.125   0.457   3.133  0.2749  0.1339  0.4656
54802SOL    HW169217   7.109   0.447   3.227 -0.8980  0.8347  0.3531
54802SOL    HW269218   7.049   0.505   3.100  0.6959 -0.0494 -0.8379
54803SOL     OW69219  10.095   8.022  10.145 -0.6640  0.1151  0.1338
54803SOL    HW169220  10.074   8.071  10.065  0.2142  1.2733  0.5814
54803SOL    HW269221  10.132   7.940  10.113 -1.5209  0.0122 -0.6411
54804SOL     OW69222   9.069   8.519   5.255  0.0992  0.2521  0.1503
54804SOL    HW169223   8.996   8.521   5.193 -0.3981  0.1583  0.7174
54804SOL    HW269224   9.094   8.611   5.264 -1.1182  0.5021  1.2770
54805SOL     OW69225   5.129  12.580  10.350  0.0948 -0.0543  0.1123
54805SOL    HW169226   5.146  12.674  10.349 -0.8398  0.1449  1.2642
54805SOL    HW269227   5.128  12.555  10.258 -0.8223  1.2959 -0.2754
54806SOL     OW69228  10.236   3.845  10.424 -0.2712  0.2519 -0.2354
54806SOL    HW169229  10.205   3.852  10.333  0.4160 -1.1370 -0.5899
54806SOL    HW269230  10.310   3.786  10.420  0.1955  0.7020  1.1559
54807SOL     OW69231   3.616   7.711  10.303  0.0652  0.4897 -0.3605
54807SOL    HW169232   3.541   7.757  10.265 -2.2797 -1.4746  1.6167
54807SOL    HW269233   3.586   7.621  10.316  1.1025  0.6055  4.6550
54808SOL     OW69234   9.588   9.848   0.110 -0.5885  0.0054  0.4742
54808SOL    HW169235   9.647   9.797   0.165  0.8526 -0.9556 -1.7942
54808SOL    HW269236   9.576   9.794   0.031 -1.1768  2.0058 -0.8818
54809SOL     OW69237   0.611   2.654   2.487 -0.0604 -0.0883  0.3634
54809SOL    HW169238   0.589   2.745   2.465  1.6750  0.5261  1.0252
54809SOL    HW269239   0.671   2.626   2.418  2.5790  0.6679  2.1920
54810SOL     OW69240   4.080   8.170  10.476  0.3150 -0.0707 -0.5798
54810SOL    HW169241   3.993   8.182  10.514  0.5899 -0.4447  0.1999
54810SOL    HW269242   4.078   8.218  10.394 -0.7281 -0.3376 -0.7189
54811SOL     OW69243   5.299  12.385   4.906  0.2264  0.3168 -0.4623
54811SOL    HW169244   5.382  12.338   4.912 -0.1466 -0.2454  0.2721
54811SOL    HW269245   5.234  12.318   4.884 -0.3418  0.4423  0.7879
54812SOL     OW69246   9.991   6.267  10.258 -0.0214  0.4789 -0.0295
54812SOL    HW169247   9.916   6.276  10.199  0.6548 -0.2069 -1.0413
54812SOL    HW269248   9.976   6.332  10.327 -2.0009 -0.2618  0.3087
54813SOL     OW69249   3.469   8.215   4.043  0.5161 -0.0284  0.1544
54813SOL    HW169250   3.432   8.256   4.121 -0.4463 -1.1958  0.3397
54813SOL    HW269251   3.563   8.212   4.061  0.3996  0.4686  0.9084
54814SOL     OW69252   3.452   5.332   4.661  0.3188  0.9614 -0.5390
54814SOL    HW169253   3.444   5.402   4.726 -1.5508  0.6600 -0.3982
54814SOL    HW269254   3.536   5.291   4.681  0.3555  1.6584  0.8944
54815SOL     OW69255  12.390   1.890   4.512  0.6572 -0.1595  0.3309
54815SOL    HW169256  12.435   1.820   4.464 -0.4029  0.5005 -1.7131
54815SOL    HW269257  12.301   1.890   4.477  0.7335  2.4707 -0.0024
54816SOL     OW69258  11.312   7.982   9.581 -0.9668  0.1564  0.4855
54816SOL    HW169259  11.395   8.019   9.611 -0.7412  0.6550 -0.7088
54816SOL    HW269260  11.336   7.906   9.529 -1.2983 -0.1086  0.7141
54817SOL     OW69261   1.069   9.662   6.636  0.1089  0.7815 -0.4700
54817SOL    HW169262   1.084   9.685   6.728  1.0778 -0.0538 -0.3998
54817SOL    HW269263   0.989   9.710   6.612 -0.2620  0.8702  0.8510
54818SOL     OW69264   2.897   3.759  11.379 -0.3807 -0.4039 -0.3909
54818SOL    HW169265   2.894   3.751  11.283 -1.5431  1.2446 -0.5524
54818SOL    HW269266   2.809   3.735  11.407  0.4576 -2.6295  0.4906
54819SOL     OW69267   7.312   7.541   1.374 -0.0372  0.3149  0.4212
54819SOL    HW169268   7.305   7.611   1.440  0.7329  2.1423 -1.3196
54819SOL    HW269269   7.223   7.531   1.340 -0.4409 -0.6482  1.7054
54820SOL     OW69270  10.763   9.959   9.165  0.5799  0.1202  0.4408
54820SOL    HW169271  10.766  10.055   9.168 -1.0559  0.2355 -0.1216
54820SOL    HW269272  10.784   9.938   9.074  0.1644  0.0087  0.3672
54821SOL     OW69273   3.646  10.581   5.325  0.0403  0.6389  0.3243
54821SOL    HW169274   3.678  10.502   5.368 -3.8666 -0.9027  0.8821
54821SOL    HW269275   3.669  10.653   5.384  0.5682 -0.5802  1.6433
54822SOL     OW69276  11.712   5.093  10.840 -0.1485  0.1804 -0.0387
54822SOL    HW169277  11.755   5.014  10.872  0.6189  0.8445  0.5943
54822SOL    HW269278  11.729   5.092  10.745  1.4670  0.5253  0.2135
54823SOL     OW69279   4.382  12.070   7.050  0.1338 -0.5718  0.2526
54823SOL    HW169280   4.342  12.041   6.969  1.2979  0.5042 -0.7621
54823SOL    HW269281   4.473  12.039   7.045 -0.0321 -1.3492  1.6103
54824SOL     OW69282   6.980   6.909   7.997 -0.4596  0.2013  0.2475
54824SOL    HW169283   7.034   6.988   8.003 -0.6186  0.3139  0.1964
54824SOL    HW269284   6.920   6.914   8.071  0.2019 -0.3832  0.8464
54825SOL     OW69285   1.478   6.460   6.260 -0.2396 -0.2053 -0.7974
54825SOL    HW169286   1.479   6.422   6.348 -0.8722 -0.6890 -0.9861
54825SOL    HW269287   1.415   6.531   6.265 -3.1229 -2.5054 -1.7168
54826SOL     OW69288   9.486  10.893   5.947  0.4565  0.2912 -0.0850
54826SOL    HW169289   9.496  10.806   5.910 -0.0986  0.1919 -0.0050
54826SOL    HW269290   9.464  10.879   6.039 -0.0492  0.5039 -0.1678
54827SOL     OW69291   9.149   0.075  11.463  0.3504  0.0207  0.5252
54827SOL    HW169292   9.067   0.124  11.460  0.5214  0.2640 -0.5779
54827SOL    HW269293   9.146   0.029  11.547 -1.7113 -1.3445 -0.2148
54828SOL     OW69294   5.318  11.265   2.484  0.0164 -0.0785  0.3041
54828SOL    HW169295   5.281  11.208   2.416 -0.8131  0.3749  0.3593
54828SOL    HW269296   5.336  11.206   2.558 -0.4795 -0.3322  0.2269
54829SOL     OW69297   1.360   8.901   4.307 -0.0363 -0.3040  0.3743
54829SOL    HW169298   1.422   8.848   4.256 -0.3670  0.5374 -0.9354
54829SOL    HW269299   1.366   8.865   4.396  1.0877 -1.3326 -0.0869
54830SOL     OW69300   8.337   3.791   0.392 -0.0471  0.0049  0.6111
54830SOL    HW169301   8.382   3.865   0.433 -3.5220  1.3166  2.5030
54830SOL    HW269302   8.341   3.721   0.457  2.7202 -1.4640 -0.9423
54831SOL     OW69303   1.107   0.642   6.364 -0.3540  0.3604 -0.0946
54831SOL    HW169304   1.138   0.733   6.364 -0.1422  0.2982 -0.6701
54831SOL    HW269305   1.012   0.649   6.351 -0.1329  0.4738 -1.9963
54832SOL     OW69306   5.464  10.691  11.026  0.2813 -0.8214 -0.5223
54832SOL    HW169307   5.520  10.631  11.074  1.6919 -1.9390 -3.3370
54832SOL    HW269308   5.518  10.769  11.012 -0.2891 -0.3066  0.0460
54833SOL     OW69309   7.034  12.300   1.503 -0.1290  0.4421 -0.3453
54833SOL    HW169310   7.099  12.319   1.571  0.2033  1.2083 -0.8730
54833SOL    HW269311   7.005  12.211   1.523  0.8949  0.1804  0.0500
54834SOL     OW69312   1.005   0.013   5.252  0.5327  0.1671  0.6147
54834SOL    HW169313   1.052  -0.057   5.208  0.9383 -0.9878  2.7713
54834SOL    HW269314   1.064   0.089   5.245  1.5219 -0.5476  0.9856
54835SOL     OW69315  10.569  11.603   1.366 -0.3473  0.4849 -0.0255
54835SOL    HW169316  10.515  11.681   1.377 -0.2479  0.6708 -0.7833
54835SOL    HW269317  10.631  11.606   1.439 -0.9597  0.6011  0.4937
54836SOL     OW69318   6.142   8.347   9.903 -0.3374  0.2419 -0.0860
54836SOL    HW169319   6.200   8.419   9.878  1.5408 -1.0697  0.3060
54836SOL    HW269320   6.106   8.315   9.820 -0.6704  1.1678 -0.3138
54837SOL     OW69321   8.786   4.573  10.398  0.3515  0.0628  0.1052
54837SOL    HW169322   8.783   4.595  10.492 -1.1527 -1.1522  0.3767
54837SOL    HW269323   8.704   4.528  10.382 -0.0049  1.3985 -2.1272
54838SOL     OW69324  10.323   1.714   2.100  0.7256 -0.3265 -0.4786
54838SOL    HW169325  10.275   1.776   2.155  0.4003 -2.1503  1.3917
54838SOL    HW269326  10.384   1.671   2.160  2.0366 -0.7590 -2.0543
54839SOL     OW69327   7.586   3.183   9.723  0.4026 -0.0229  0.5837
54839SOL    HW169328   7.602   3.151   9.634 -0.4558  2.6657 -0.6497
54839SOL    HW269329   7.667   3.163   9.770  1.6994  0.2831 -1.3976
54840SOL     OW69330   4.063   0.672   7.425 -0.4899 -0.4067  0.0494
54840SOL    HW169331   3.973   0.646   7.444 -0.8371  0.9391  0.3584
54840SOL    HW269332   4.117   0.613   7.478 -1.0886 -2.2158 -1.2564
54841SOL     OW69333  10.992   0.439  11.717 -0.7408 -0.1705  0.2861
54841SOL    HW169334  10.912   0.387  11.711 -1.2083  0.4461  0.9530
54841SOL    HW269335  11.027   0.418  11.803 -1.1017  0.8277  0.6947
54842SOL     OW69336   7.197  12.063  10.429 -0.4375  0.5565  0.6160
54842SOL    HW169337   7.186  12.010  10.350  0.7604 -0.1089  0.8651
54842SOL    HW269338   7.282  12.035  10.464  0.6476  3.2274  0.3179
54843SOL     OW69339   5.430   0.428   5.228 -0.3647  0.5230  0.2387
54843SOL    HW169340   5.472   0.417   5.313  0.3079 -1.1109 -0.2529
54843SOL    HW269341   5.392   0.342   5.210 -0.0172  0.6706 -1.3431
54844SOL     OW69342   1.455  11.047   8.253 -0.3399  0.3727 -0.3049
54844SOL    HW169343   1.467  11.087   8.339  2.4656 -2.4940  0.8296
54844SOL    HW269344   1.532  11.074   8.203 -1.3369  1.0223 -1.5449
54845SOL     OW69345   3.343   6.641   4.997  0.6829 -0.4452  0.0664
54845SOL    HW169346   3.350   6.570   4.933  2.6834 -0.0603 -0.1962
54845SOL    HW269347   3.348   6.721   4.945  3.5539 -0.1100  0.7004
54846SOL     OW69348   8.941   5.027  10.346  0.2045  0.3114  0.3036
54846SOL    HW169349   8.886   5.105  10.355  0.3466  0.8854 -2.5699
54846SOL    HW269350   9.007   5.035  10.415 -1.3806  1.2819  1.7850
54847SOL     OW69351   3.356   8.415  11.313 -0.2910  0.4044 -0.4821
54847SOL    HW169352   3.278   8.415  11.369  0.7335 -2.2687  1.1231
54847SOL    HW269353   3.379   8.323  11.304  2.3086  1.0757 -1.4528
54848SOL     OW69354   4.555   0.642   8.354 -0.2492 -0.5583 -0.0620
54848SOL    HW169355   4.606   0.712   8.394 -1.6596  0.5924 -0.2148
54848SOL    HW269356   4.602   0.622   8.273 -0.1691  0.6637 -0.3388
54849SOL     OW69357  12.292   3.040  10.746  0.6877 -0.2814 -0.1402
54849SOL    HW169358  12.304   3.132  10.724 -0.3364 -0.3529 -1.0927
54849SOL    HW269359  12.381   3.008  10.763  1.0327  0.9355  0.5025
54850SOL     OW69360  12.364   9.048   8.721  0.1263 -0.1020  0.0167
54850SOL    HW169361  12.284   9.079   8.679 -0.4084 -0.5918  0.6243
54850SOL    HW269362  12.338   9.036   8.813  0.4292 -1.8036 -0.0817
54851SOL     OW69363  11.022   1.603   9.123  0.6060 -0.5957 -0.1761
54851SOL    HW169364  10.939   1.584   9.079  0.9161  1.6477 -1.8807
54851SOL    HW269365  11.030   1.533   9.189 -2.4328 -1.0884 -0.1687
54852SOL     OW69366  12.236   3.469  12.305 -0.0295  0.1380 -0.0609
54852SOL    HW169367  12.273   3.533  12.245 -2.3262  1.4337 -0.2249
54852SOL    HW269368  12.141   3.483  12.299 -0.4140 -0.6461  2.7847
54853SOL     OW69369   0.874   9.804   6.324  0.6869 -0.9440 -0.4976
54853SOL    HW169370   0.943   9.863   6.293  0.0359 -0.0228 -0.2294
54853SOL    HW269371   0.794   9.839   6.285  0.1667 -1.1059  0.4079
54854SOL     OW69372  11.197   7.900   7.541 -0.1435  0.2048 -0.2178
54854SOL    HW169373  11.106   7.929   7.547 -0.7012 -1.0946 -1.6688
54854SOL    HW269374  11.238   7.962   7.480 -0.2405  0.3630 -0.1226
54855SOL     OW69375   4.128   5.789  12.270  0.7248 -0.0323 -0.3445
54855SOL    HW169376   4.197   5.826  12.216  0.3821 -1.0848 -1.5550
54855SOL    HW269377   4.170   5.719  12.320  0.7770  0.0956 -0.2089
54856SOL     OW69378   7.532   7.661   9.673 -0.1685  0.3707 -0.0270
54856SOL    HW169379   7.585   7.584   9.652 -2.6830 -1.8464  1.1188
54856SOL    HW269380   7.465   7.664   9.605 -0.2314  1.4430  0.0672
54857SOL     OW69381   6.536   0.401   7.192  0.7422  0.3508  0.4421
54857SOL    HW169382   6.584   0.469   7.144  0.3189  1.0390  0.9697
54857SOL    HW269383   6.582   0.392   7.275 -0.3796  1.4980  1.2351
54858SOL     OW69384   7.425  11.946  10.711 -0.2897 -0.1777  0.2157
54858SOL    HW169385   7.373  11.866  10.724 -0.4508  0.2587  2.7022
54858SOL    HW269386   7.489  11.922  10.644 -2.8078 -1.1359 -2.0327
54859SOL     OW69387   0.116  11.897   7.638 -0.2087  0.2442  0.1449
54859SOL    HW169388   0.196  11.904   7.691 -0.0419 -1.6704  0.1892
54859SOL    HW269389   0.051  11.948   7.687  0.2328 -0.5550  1.6409
54860SOL     OW69390   0.070  12.105   9.009 -0.6019  0.3669 -0.4254
54860SOL    HW169391   0.016  12.038   9.051 -1.1085 -0.1339 -1.8377
54860SOL    HW269392   0.033  12.116   8.922  1.0603  0.6199 -1.1460
54861SOL     OW69393  10.214   2.288  10.465 -0.5492 -0.0196  0.3054
54861SOL    HW169394  10.207   2.383  10.452 -0.4735 -0.3487 -2.7982
54861SOL    HW269395  10.302   2.266  10.437 -1.5792 -1.3458 -2.2024
54862SOL     OW69396   4.503  10.270   1.509 -0.1362 -0.7046 -0.2735
54862SOL    HW169397   4.497  10.332   1.437  0.7500 -0.8204 -0.4504
54862SOL    HW269398   4.574  10.211   1.485  0.0205 -0.8861  0.5875
54863SOL     OW69399   1.232   3.411   8.039 -0.8453  0.0841  0.2088
54863SOL    HW169400   1.281   3.490   8.014 -0.2550 -0.4099 -0.2182
54863SOL    HW269401   1.194   3.380   7.956  0.1750 -0.9265  0.1085
54864SOL     OW69402   1.624   8.040   9.812 -0.0204  0.2171 -0.1024
54864SOL    HW169403   1.708   8.003   9.838  0.4155 -0.3656 -2.1283
54864SOL    HW269404   1.640   8.134   9.804 -0.2198  0.4467  1.7440
54865SOL     OW69405   1.155   4.780  11.775 -0.3275 -0.2484 -0.4765
54865SOL    HW169406   1.228   4.718  11.769  0.2298  0.3334  0.1258
54865SOL    HW269407   1.077   4.726  11.764  0.2023 -0.7873 -1.8076
54866SOL     OW69408  10.988   7.008   6.237 -0.4075 -0.2391 -0.0709
54866SOL    HW169409  11.070   6.964   6.262 -0.1654  1.2325  2.0061
54866SOL    HW269410  10.924   6.937   6.229  0.6600 -1.2405  0.0955
54867SOL     OW69411   3.668   1.129  12.594 -0.1961 -0.4543  0.0510
54867SOL    HW169412   3.758   1.133  12.626  0.1119 -0.3363 -0.8128
54867SOL    HW269413   3.666   1.192  12.522 -0.9094 -0.6330 -0.0891
54868SOL     OW69414  12.467   4.252   9.099 -0.4440  0.4858 -0.0957
54868SOL    HW169415  12.424   4.267   9.183  0.2292 -1.0671  0.5567
54868SOL    HW269416  12.530   4.323   9.091 -1.6344  1.5783 -0.0779
54869SOL     OW69417   8.429  12.170   5.832  0.6861  0.0558  0.7688
54869SOL    HW169418   8.333  12.173   5.839  0.5765 -1.6709  0.4137
54869SOL    HW269419   8.454  12.261   5.816 -0.9636  0.4339  0.0843
54870SOL     OW69420   7.465   6.882   7.880  0.2985 -0.2058  0.5878
54870SOL    HW169421   7.558   6.896   7.899  0.0532 -0.5983  2.3058
54870SOL    HW269422   7.428   6.856   7.964 -1.6372  1.3175  0.2924
54871SOL     OW69423  12.513   3.357   0.934  0.3403  0.1882 -0.2951
54871SOL    HW169424  12.563   3.438   0.944 -2.5917  2.1332  0.0935
54871SOL    HW269425  12.494   3.352   0.840 -1.0394  1.0542 -0.0908
54872SOL     OW69426  10.344  10.993   5.042 -0.1124  0.7260 -0.4931
54872SOL    HW169427  10.275  11.031   5.098 -0.9741  0.3850 -1.2953
54872SOL    HW269428  10.336  10.899   5.056  0.4734  0.7010 -0.2881
54873SOL     OW69429   5.344  11.909   2.706  0.0048 -0.1624  0.0550
54873SOL    HW169430   5.309  11.985   2.660  0.6087 -0.1682 -0.4324
54873SOL    HW269431   5.292  11.836   2.674 -0.0271 -0.0671 -0.1158
54874SOL     OW69432   6.364  12.607  11.312  0.0141  0.6224  0.1686
54874SOL    HW169433   6.313  12.526  11.319  0.4047  0.2659 -0.9279
54874SOL    HW269434   6.307  12.675  11.348 -0.6966  0.0138  0.2154
54875SOL     OW69435   7.258   6.350   4.661 -0.4383  0.0526 -0.3384
54875SOL    HW169436   7.176   6.395   4.682 -0.8149 -1.2871  1.3906
54875SOL    HW269437   7.235   6.257   4.665  1.0530 -0.3327 -0.2964
54876SOL     OW69438   3.368   3.646  11.299  0.2330  0.3649 -0.0942
54876SOL    HW169439   3.308   3.685  11.363 -1.3072 -2.0418  0.0686
54876SOL    HW269440   3.360   3.552  11.313  1.7400 -0.1555 -2.2011
54877SOL     OW69441  12.175  12.150   0.916 -0.5800  0.1794  0.1114
54877SOL    HW169442  12.110  12.146   0.986  0.2187  0.3727  0.8677
54877SOL    HW269443  12.152  12.229   0.867 -2.1216 -0.8068 -0.8423
54878SOL     OW69444  12.071   1.824   2.753 -0.1996  0.0145 -0.3444
54878SOL    HW169445  12.005   1.877   2.799 -1.3249  0.1706 -2.0397
54878SOL    HW269446  12.116   1.777   2.823  0.5287  2.7859  1.2365
54879SOL     OW69447   9.835   1.725   6.149  0.4838  0.2205  0.3676
54879SOL    HW169448   9.906   1.693   6.204  1.1738  0.3419 -0.4284
54879SOL    HW269449   9.762   1.664   6.164  0.2690  0.8907  2.2388
54880SOL     OW69450   5.956   5.431   1.487 -0.2128 -0.2971  0.3363
54880SOL    HW169451   6.043   5.413   1.451  0.6722  1.3136  1.5155
54880SOL    HW269452   5.918   5.493   1.424 -1.7030 -3.0172 -1.6514
54881SOL     OW69453   3.499   1.908  12.427  0.2207 -0.5361  0.0242
54881SOL    HW169454   3.424   1.848  12.434  1.8143 -2.4980  1.3283
54881SOL    HW269455   3.518   1.911  12.333 -0.9818 -0.6362 -0.2443
54882SOL     OW69456   4.880   0.785  10.598  0.0037  0.1568  0.1882
54882SOL    HW169457   4.966   0.760  10.562  0.8951  1.3239  1.3851
54882SOL    HW269458   4.820   0.777  10.524  1.3267  0.1908 -0.9335
54883SOL     OW69459   6.272   3.435  10.522 -0.7043  0.3702 -0.2684
54883SOL    HW169460   6.336   3.450  10.591 -1.4729  1.5651  0.2215
54883SOL    HW269461   6.190   3.417  10.568 -0.6264 -1.8056 -0.8793
54884SOL     OW69462   1.268   4.798   8.931 -0.1925  0.0395 -0.2031
54884SOL    HW169463   1.298   4.797   8.840 -2.4503  1.1868 -1.0466
54884SOL    HW269464   1.220   4.716   8.940 -0.0819 -0.0124 -0.0941
54885SOL     OW69465  11.849   8.522   9.669 -0.4598  0.1148  0.0642
54885SOL    HW169466  11.791   8.454   9.635  0.5633 -0.7855  0.0859
54885SOL    HW269467  11.885   8.564   9.590  0.4853 -0.7427  0.0279
54886SOL     OW69468   7.329   0.240   4.791  0.7119  0.2906  0.1807
54886SOL    HW169469   7.257   0.242   4.854  0.5914  1.2531  0.0281
54886SOL    HW269470   7.344   0.147   4.774 -0.6758  0.0797  0.0136
54887SOL     OW69471   6.513   7.254   0.614 -0.2400  0.0676  0.1138
54887SOL    HW169472   6.606   7.249   0.634 -0.3949 -0.6754  0.6973
54887SOL    HW269473   6.509   7.297   0.529  0.7037 -0.9702 -0.4770
54888SOL     OW69474   8.417  10.789   0.005 -0.3008  0.6297  0.1401
54888SOL    HW169475   8.457  10.799  -0.081  1.7349  2.6540  1.2299
54888SOL    HW269476   8.385  10.876   0.028 -0.1266  0.3087  1.7375
54889SOL     OW69477  10.649   7.551   8.765  0.1190 -0.3546  0.3561
54889SOL    HW169478  10.680   7.533   8.676 -1.4997 -0.8734 -0.1442
54889SOL    HW269479  10.723   7.594   8.808  0.6334  0.7208 -1.5027
54890SOL     OW69480  11.208   8.231   9.497  0.1542  0.4721  0.6873
54890SOL    HW169481  11.256   8.278   9.565  2.1946 -0.0890 -0.2620
54890SOL    HW269482  11.229   8.139   9.514 -0.6090  0.2113  0.2335
54891SOL     OW69483   8.998  11.263  11.704 -0.3216 -0.4278 -0.3039
54891SOL    HW169484   9.050  11.299  11.777 -1.1024  2.5167 -1.0354
54891SOL    HW269485   8.932  11.330  11.687 -0.5114 -1.2365 -3.3756
54892SOL     OW69486   9.263   1.895   1.571 -0.1524 -0.1507  0.2131
54892SOL    HW169487   9.222   1.863   1.650 -0.0616  0.4392  0.5071
54892SOL    HW269488   9.335   1.834   1.554 -0.6100 -0.6865  0.1763
54893SOL     OW69489   7.719  10.986   2.348 -0.0055 -0.0420  0.4445
54893SOL    HW169490   7.795  10.938   2.316 -1.1084 -1.5670  0.0101
54893SOL    HW269491   7.666  11.002   2.270 -0.4576  0.3955  0.8358
54894SOL     OW69492  10.894   7.752   7.659 -0.0692  0.1677 -0.2507
54894SOL    HW169493  10.903   7.848   7.655  0.2540  0.1771  0.4333
54894SOL    HW269494  10.950   7.727   7.732 -0.0821 -0.5592 -0.4919
54895SOL     OW69495   8.241   3.712   2.324  0.1935 -0.0903 -0.2609
54895SOL    HW169496   8.181   3.658   2.375 -0.5921  0.0640 -1.0042
54895SOL    HW269497   8.241   3.797   2.369 -1.7681  0.5743 -1.3772
54896SOL     OW69498   3.339   5.035   3.373 -0.3473  0.0342  0.3942
54896SOL    HW169499   3.395   5.107   3.404  1.2888  0.0554 -2.3154
54896SOL    HW269500   3.333   4.976   3.448 -0.3012  2.1041  2.1372
54897SOL     OW69501   1.162   4.965  11.989 -0.4754 -0.1050 -0.2082
54897SOL    HW169502   1.145   5.054  11.956  1.5879  0.1212 -0.8248
54897SOL    HW269503   1.151   4.909  11.912  2.1899  0.1631 -0.8899
54898SOL     OW69504   6.318   4.162   0.521  0.7702  0.1491  0.1329
54898SOL    HW169505   6.398   4.125   0.485  0.4617  1.9348 -2.7440
54898SOL    HW269506   6.326   4.257   0.505 -0.7312  0.7250  2.3265
54899SOL     OW69507   0.338   3.715   8.784  0.0752 -0.5532 -0.1903
54899SOL    HW169508   0.289   3.768   8.847  0.4893 -1.4873  0.9828
54899SOL    HW269509   0.426   3.709   8.823  0.3885 -1.0111 -0.9577
54900SOL     OW69510  12.617  10.247   0.412  0.3662 -0.0652  0.3194
54900SOL    HW169511  12.627  10.335   0.375  2.1193 -0.3839 -0.0207
54900SOL    HW269512  12.614  10.189   0.336  0.2206 -0.3979  0.5733
54901SOL     OW69513   7.738   1.523   0.633  0.5784  0.1550  0.1456
54901SOL    HW169514   7.697   1.451   0.586  1.2255  0.3538 -0.7463
54901SOL    HW269515   7.832   1.508   0.623  0.7189  0.9968  0.1268
54902SOL     OW69516  12.483   8.975   0.856 -0.2480 -0.7204 -0.4655
54902SOL    HW169517  12.470   8.883   0.879 -0.3971 -0.4893  0.4372
54902SOL    HW269518  12.469   9.022   0.939  1.7459 -0.0442 -0.4622
54903SOL     OW69519   1.812   0.481   9.250 -0.3429 -0.0877  0.0324
54903SOL    HW169520   1.762   0.429   9.313  0.0927 -1.9024 -1.0449
54903SOL    HW269521   1.840   0.417   9.184  0.8505  1.4168 -0.9647
54904SOL     OW69522   2.107   0.379  11.410 -0.6201 -0.5197 -0.3986
54904SOL    HW169523   2.148   0.305  11.456  1.7201  0.1543 -1.2202
54904SOL    HW269524   2.102   0.350  11.319 -0.3506  0.0583 -0.6014
54905SOL     OW69525   0.243   0.390   3.310 -0.6093 -0.1130 -0.5316
54905SOL    HW169526   0.335   0.417   3.303 -0.3734 -0.3594  1.1762
54905SOL    HW269527   0.244   0.297   3.289 -0.5544 -0.0139 -0.9836
54906SOL     OW69528   7.840   0.504   9.328  0.1879  0.0431  0.4345
54906SOL    HW169529   7.911   0.467   9.381  0.2462  0.0489  0.3596
54906SOL    HW269530   7.773   0.435   9.328 -0.6568  0.7992  2.1743
54907SOL     OW69531  12.019  11.564   4.164  0.0481 -0.3639 -0.7589
54907SOL    HW169532  11.955  11.618   4.210  0.1998 -1.6163  1.0148
54907SOL    HW269533  12.103  11.585   4.205  0.0459 -2.2124  0.3131
54908SOL     OW69534   8.942   5.542  11.705  0.7575 -0.1482  0.2234
54908SOL    HW169535   8.953   5.471  11.768  1.5863 -1.1122 -0.9613
54908SOL    HW269536   9.025   5.590  11.707  1.6568 -1.5049 -1.6502
54909SOL     OW69537   7.657   7.608   9.954 -0.5767 -0.7210 -0.0843
54909SOL    HW169538   7.632   7.641   9.868  2.6570  0.2456 -0.7751
54909SOL    HW269539   7.746   7.576   9.943  0.2564  0.1694  3.0395
54910SOL     OW69540   5.239  10.975   4.605 -0.2743  0.0207 -0.3320
54910SOL    HW169541   5.154  10.944   4.635 -0.5811  0.6417 -0.5429
54910SOL    HW269542   5.299  10.903   4.624 -0.9112 -0.5747 -0.5353
54911SOL     OW69543   8.293  11.800   2.296  0.0021  0.3948  0.0228
54911SOL    HW169544   8.309  11.739   2.224  0.2096 -0.1972  0.5635
54911SOL    HW269545   8.292  11.745   2.375 -0.6080  0.9820  0.4321
54912SOL     OW69546   9.639   7.628   0.311 -0.0134 -0.5624  0.0136
54912SOL    HW169547   9.715   7.599   0.261  0.6159  0.4360  0.3805
54912SOL    HW269548   9.671   7.639   0.401 -1.2120 -2.7076  0.7985
54913SOL     OW69549   9.952   1.517   2.458 -0.5228  0.1657 -0.1154
54913SOL    HW169550  10.027   1.523   2.518  0.4811 -0.1499 -1.2912
54913SOL    HW269551   9.913   1.604   2.460  0.3395  0.5633 -0.0353
54914SOL     OW69552   6.351   9.879   9.108 -0.2312 -0.3952 -0.1807
54914SOL    HW169553   6.389   9.812   9.165  0.7803 -0.0625 -0.4429
54914SOL    HW269554   6.424   9.937   9.088 -1.4135  1.7565  1.3749
54915SOL     OW69555   0.506   6.723   6.568  0.3799  0.3525  0.0850
54915SOL    HW169556   0.457   6.675   6.501  0.0888  0.9014 -0.1096
54915SOL    HW269557   0.557   6.656   6.614  0.7095 -0.0177 -0.7933
54916SOL     OW69558   3.906   4.624   4.264  0.7171  0.1139  0.3081
54916SOL    HW169559   3.920   4.666   4.348  1.9697 -0.2488  0.2940
54916SOL    HW269560   3.835   4.674   4.224  1.3808  1.4769  0.7774
54917SOL     OW69561   5.874   6.665   2.877  0.4661 -0.1719 -0.5390
54917SOL    HW169562   5.960   6.635   2.908  0.5573  1.1165  0.5668
54917SOL    HW269563   5.832   6.702   2.955 -1.7072 -2.0416 -0.7323
54918SOL     OW69564   1.475   7.047  10.565 -0.0865  0.2947  0.5734
54918SOL    HW169565   1.523   6.970  10.535 -2.3974 -2.0758  2.4722
54918SOL    HW269566   1.508   7.062  10.654 -1.6472 -0.3818  1.2975
54919SOL     OW69567   2.878   5.300   9.576  0.3758  0.2462 -0.1720
54919SOL    HW169568   2.841   5.212   9.571  0.5198  0.2538 -2.3187
54919SOL    HW269569   2.822   5.347   9.638 -1.4090 -0.5799 -1.0910
54920SOL     OW69570   3.327  12.442  10.075  0.0807 -0.0110 -0.1462
54920SOL    HW169571   3.369  12.518  10.034  0.5691 -0.7842 -1.1235
54920SOL    HW269572   3.398  12.397  10.120 -0.5703  1.2148  2.2349
54921SOL     OW69573  11.443   5.816   8.566  0.0171 -0.2276 -0.1276
54921SOL    HW169574  11.419   5.872   8.492 -0.2562 -0.3510 -0.1297
54921SOL    HW269575  11.527   5.778   8.540 -0.6241 -1.1677 -0.8747
54922SOL     OW69576   9.509   0.445   9.418  1.0211  0.4158  0.0904
54922SOL    HW169577   9.447   0.383   9.379 -0.5955  2.4291 -0.7299
54922SOL    HW269578   9.461   0.527   9.423  3.1128  1.6724  1.0289
54923SOL     OW69579   4.432   4.769   3.071 -0.2965 -0.0070  0.1401
54923SOL    HW169580   4.387   4.749   3.152  0.7832  0.1120  0.7910
54923SOL    HW269581   4.379   4.837   3.030 -0.3266  0.6424  1.2288
54924SOL     OW69582   6.949  11.792   0.034  0.1049 -0.2322  0.3392
54924SOL    HW169583   6.965  11.867   0.092  1.3510  1.9746 -2.5743
54924SOL    HW269584   7.007  11.723   0.066  1.2328  1.1275  1.3282
54925SOL     OW69585   2.074   5.380   8.607 -0.1531  0.0371 -0.5764
54925SOL    HW169586   2.084   5.422   8.521  1.9757  1.8662  0.4655
54925SOL    HW269587   2.056   5.452   8.667  1.4473 -0.7565  0.9576
54926SOL     OW69588   4.630  10.348   4.848 -0.2592  0.1245  0.2066
54926SOL    HW169589   4.700  10.386   4.795 -0.4534  0.7696  0.4056
54926SOL    HW269590   4.673  10.280   4.899  0.0964  0.0792 -0.1451
54927SOL     OW69591   9.004   8.927   6.148 -0.3006 -0.2581 -0.0791
54927SOL    HW169592   9.091   8.945   6.113 -0.3538 -0.3504 -0.2586
54927SOL    HW269593   9.016   8.931   6.243  0.2808 -1.9797 -0.0434
54928SOL     OW69594   3.276   8.782   8.820  0.5267 -0.5005 -0.2638
54928SOL    HW169595   3.372   8.781   8.820  0.5303 -1.4221  0.0311
54928SOL    HW269596   3.253   8.875   8.825  1.3768 -0.1334 -2.2517
54929SOL     OW69597   9.292   5.370  11.563 -1.1679 -0.4857 -0.3036
54929SOL    HW169598   9.265   5.450  11.519 -1.3749  0.1639  0.9890
54929SOL    HW269599   9.380   5.353  11.528 -0.1487  1.5913  1.0884
54930SOL     OW69600   1.029   7.580   2.500  0.4930  0.1830 -0.1307
54930SOL    HW169601   1.093   7.597   2.569  0.8461 -0.5971 -0.2533
54930SOL    HW269602   1.038   7.487   2.482  0.3546  0.3606 -1.1756
54931SOL     OW69603   7.196  10.300   4.579  0.8437  0.2439  0.3435
54931SOL    HW169604   7.183  10.206   4.593 -2.9850  0.4877 -0.3193
54931SOL    HW269605   7.275  10.306   4.526  2.9268 -2.2733  2.8669
54932SOL     OW69606  12.458   1.264   4.269  0.3293  0.2701  0.1944
54932SOL    HW169607  12.514   1.325   4.222  1.1681 -1.0548 -0.5962
54932SOL    HW269608  12.389   1.242   4.207  1.9955 -2.2672 -0.9293
54933SOL     OW69609  10.011   6.080  12.593  0.2363  0.8155  0.5857
54933SOL    HW169610  10.090   6.027  12.606  0.8919  1.6987  0.2849
54933SOL    HW269611  10.041   6.156  12.543 -1.2459 -0.0388 -1.7751
54934SOL     OW69612   9.162   6.498  11.113 -0.6313 -0.4413 -0.9052
54934SOL    HW169613   9.089   6.526  11.168 -0.9222 -2.0256 -0.4563
54934SOL    HW269614   9.231   6.473  11.174  0.6616  1.7762 -1.3122
54935SOL     OW69615   6.600   1.393  12.223  0.3815 -0.4724  0.0625
54935SOL    HW169616   6.623   1.379  12.131  0.4226 -2.2177  0.3085
54935SOL    HW269617   6.616   1.486  12.238  0.9978 -0.2971 -1.5143
54936SOL     OW69618   7.576   3.206   5.532  0.3330 -0.0403  0.0513
54936SOL    HW169619   7.653   3.171   5.577 -0.8534 -2.2055  0.4885
54936SOL    HW269620   7.610   3.281   5.482  2.7418 -1.0119  0.0967
54937SOL     OW69621   5.457   6.987   3.758  0.2312 -0.2104 -0.1590
54937SOL    HW169622   5.527   7.001   3.821  0.6040 -0.8624 -0.4192
54937SOL    HW269623   5.483   7.035   3.680 -0.1412  0.4438  0.1112
54938SOL     OW69624   3.587   4.946  11.041  0.4345  0.0876 -0.1247
54938SOL    HW169625   3.533   5.001  11.098  0.7515  1.5140 -1.1244
54938SOL    HW269626   3.584   4.990  10.956 -0.3894 -2.2260 -1.3697
54939SOL     OW69627   1.845  12.303   2.445 -0.3720 -0.0552  0.0622
54939SOL    HW169628   1.858  12.393   2.474 -1.2953  0.3888 -0.8632
54939SOL    HW269629   1.763  12.276   2.486  0.2480 -0.7409  0.9087
54940SOL     OW69630  10.028   5.333   3.104 -0.5423  0.4847 -0.0073
54940SOL    HW169631  10.051   5.423   3.125 -0.9139  0.9312 -1.3617
54940SOL    HW269632  10.087   5.309   3.032 -1.9553  0.4748 -1.2225
54941SOL     OW69633   1.911   8.044   5.369 -0.3107  0.0654  0.2456
54941SOL    HW169634   1.888   8.064   5.278  0.0204  0.7210  0.3006
54941SOL    HW269635   1.870   7.959   5.386 -0.2731 -0.1250 -0.5554
54942SOL     OW69636  11.944   8.372  12.244 -0.4473  0.0280  0.6000
54942SOL    HW169637  11.985   8.287  12.261 -0.6644 -0.3039 -0.4393
54942SOL    HW269638  11.874   8.352  12.181  0.3026  1.1557 -0.6303
54943SOL     OW69639   1.219   4.794   7.135  0.3666 -0.2223 -0.2244
54943SOL    HW169640   1.196   4.810   7.043  0.3074 -0.7615 -0.3085
54943SOL    HW269641   1.295   4.849   7.150  0.2275  0.0591 -0.5266
54944SOL     OW69642   6.014   2.481   5.746 -0.0263  0.3598 -0.8823
54944SOL    HW169643   5.976   2.438   5.823  1.3055 -0.7316 -0.7950
54944SOL    HW269644   5.976   2.434   5.672  2.9678 -2.5838 -0.7839
54945SOL     OW69645   6.855   8.925  11.477  0.4452  0.2836  0.2043
54945SOL    HW169646   6.784   8.862  11.478  1.1615 -0.5425  1.0864
54945SOL    HW269647   6.868   8.948  11.569 -0.3175  2.3446 -0.1441
54946SOL     OW69648   1.376  10.669   4.059 -0.3514 -0.5077  0.0218
54946SOL    HW169649   1.321  10.640   3.986  0.8683 -2.0809 -0.3313
54946SOL    HW269650   1.384  10.764   4.047 -0.5788 -0.6650 -1.6116
54947SOL     OW69651   7.372   4.907   0.679 -0.2081  0.0261 -0.1840
54947SOL    HW169652   7.415   4.909   0.764 -0.5987  0.3921  0.0066
54947SOL    HW269653   7.286   4.945   0.694 -0.2122  0.2644 -0.7789
54948SOL     OW69654   1.628   9.138   0.671  0.0440 -0.3450 -0.2082
54948SOL    HW169655   1.586   9.106   0.751 -2.1544 -0.2734 -1.2488
54948SOL    HW269656   1.560   9.130   0.604  1.6887 -0.0170 -1.9878
54949SOL     OW69657   2.100   7.084  10.300  0.3227  0.5921  0.2621
54949SOL    HW169658   2.086   7.100  10.393  0.9741  1.3614  0.2316
54949SOL    HW269659   2.162   7.151  10.273  0.4995  0.0823 -0.6252
54950SOL     OW69660   5.188   3.754   0.294  0.5039 -0.1872  0.4057
54950SOL    HW169661   5.282   3.742   0.309  0.3336 -0.1274  1.6899
54950SOL    HW269662   5.178   3.847   0.274  0.8267 -0.3992 -0.8124
54951SOL     OW69663   1.736   3.516   8.910  0.4611  0.4171 -0.2742
54951SOL    HW169664   1.795   3.591   8.903 -0.7863  1.7754  2.1773
54951SOL    HW269665   1.777   3.460   8.976  0.3641 -0.0473 -0.6026
54952SOL     OW69666   8.940   1.478   2.622  0.5701  0.3645  0.2049
54952SOL    HW169667   9.002   1.430   2.677  0.5117  1.2746  1.0873
54952SOL    HW269668   8.989   1.496   2.541  1.8461  1.9063  1.2541
54953SOL     OW69669   4.392   6.757   7.172  0.2839  0.0381  0.6306
54953SOL    HW169670   4.446   6.782   7.097 -0.5164  0.1480  0.0822
54953SOL    HW269671   4.395   6.661   7.172 -0.6784 -0.0003 -0.2667
54954SOL     OW69672   9.060  11.339   8.055 -0.1508 -0.1006 -0.2877
54954SOL    HW169673   9.079  11.411   8.115  1.6950 -0.2740 -0.6283
54954SOL    HW269674   9.003  11.378   7.988 -0.4158  0.6399  0.3462
54955SOL     OW69675   9.541   5.534   8.793 -0.0338  0.5349 -0.7401
54955SOL    HW169676   9.511   5.449   8.825  0.0936  0.9438  0.5233
54955SOL    HW269677   9.508   5.597   8.857 -0.2601  1.4607 -1.7388
54956SOL     OW69678  11.459   1.833   3.384  0.5619 -0.2972 -0.1750
54956SOL    HW169679  11.434   1.881   3.305 -1.9679  0.2664  0.8781
54956SOL    HW269680  11.400   1.757   3.386  1.7059 -1.2057  0.3597
54957SOL     OW69681   7.038   0.117  10.833  0.2424  0.8682  0.1870
54957SOL    HW169682   7.079   0.129  10.747 -0.3285  0.6956 -0.1160
54957SOL    HW269683   7.078   0.184  10.888 -1.2257  2.7040 -0.8656
54958SOL     OW69684   9.660   7.390  10.806  0.5015  0.2554  1.1812
54958SOL    HW169685   9.752   7.378  10.828  0.6101 -0.0500  0.5622
54958SOL    HW269686   9.633   7.467  10.857  1.8287  2.0706 -0.7357
54959SOL     OW69687   4.878  11.121  12.346  0.0164 -0.4081  0.2137
54959SOL    HW169688   4.817  11.176  12.297 -0.5490 -0.0720  1.2697
54959SOL    HW269689   4.957  11.120  12.292 -0.3197  0.5863 -0.3328
54960SOL     OW69690  11.080   9.159   6.847 -0.2872  0.2206  0.6826
54960SOL    HW169691  11.073   9.134   6.755  0.2888  2.3233  0.0256
54960SOL    HW269692  11.152   9.106   6.880  1.1484  1.1813 -0.7545
54961SOL     OW69693   7.986  10.364   3.140  0.5652 -0.3061  0.1585
54961SOL    HW169694   8.013  10.405   3.222  0.5122  0.5229 -0.2264
54961SOL    HW269695   7.911  10.310   3.164  0.7973 -0.3826  0.7266
54962SOL     OW69696   3.811   2.121  10.407  0.1899 -0.5806 -0.2236
54962SOL    HW169697   3.790   2.109  10.315  0.3661 -1.1937 -0.1912
54962SOL    HW269698   3.755   2.192  10.436 -1.2947 -1.6626 -0.3320
54963SOL     OW69699   1.597  11.898   6.326 -0.0257 -0.1199 -0.0624
54963SOL    HW169700   1.655  11.872   6.398 -1.9127 -0.7894  1.2934
54963SOL    HW269701   1.601  11.825   6.265  1.5284  0.4150 -0.6531
54964SOL     OW69702   7.694   0.922   3.430 -0.0742  0.1406  0.2506
54964SOL    HW169703   7.652   0.997   3.388  1.7064  0.2890 -1.3988
54964SOL    HW269704   7.629   0.852   3.426  0.1644 -0.0306 -3.3891
54965SOL     OW69705  12.259   9.739   9.545 -0.3086  0.0046  0.5727
54965SOL    HW169706  12.290   9.828   9.526 -0.2565 -0.0082  0.5963
54965SOL    HW269707  12.324   9.682   9.503 -0.9775 -0.0221 -0.4632
54966SOL     OW69708  11.807   4.195  11.197  0.0788 -0.0095 -0.1354
54966SOL    HW169709  11.846   4.281  11.192 -1.6806  1.0749  2.4036
54966SOL    HW269710  11.714   4.212  11.216 -0.2442 -2.4269  0.8296
54967SOL     OW69711   3.695   9.621   6.878  0.0747  0.2150  0.0689
54967SOL    HW169712   3.630   9.600   6.811 -0.0369  0.6660  0.0290
54967SOL    HW269713   3.680   9.714   6.897  2.0454  0.9149 -1.4205
54968SOL     OW69714   4.779   3.663   8.664  0.5110  0.1622 -0.0487
54968SOL    HW169715   4.726   3.588   8.689  0.8818  0.0989  0.5748
54968SOL    HW269716   4.869   3.629   8.664  0.6115  0.4250 -0.4599
54969SOL     OW69717   6.891   7.474  12.194 -0.8395 -0.1502  0.2497
54969SOL    HW169718   6.972   7.439  12.231  0.5754  0.8351 -1.6999
54969SOL    HW269719   6.841   7.396  12.168 -0.4489 -0.7758  1.3254
54970SOL     OW69720   9.968   9.782   9.901 -0.2573 -0.7729 -0.1778
54970SOL    HW169721  10.042   9.762   9.958 -0.0897 -1.5635 -0.6551
54970SOL    HW269722   9.896   9.800   9.961  0.1493 -0.6719  0.2883
54971SOL     OW69723   2.758   7.192   8.188  0.4775  0.7366  0.1530
54971SOL    HW169724   2.738   7.132   8.260  1.5947 -0.0274 -0.1545
54971SOL    HW269725   2.743   7.140   8.109 -0.4250  1.4754 -0.1819
54972SOL     OW69726   0.840   7.479   7.507 -0.6738  0.0012  0.2193
54972SOL    HW169727   0.816   7.440   7.591  0.1648  0.5666  0.7367
54972SOL    HW269728   0.895   7.554   7.530 -0.8369  0.4576 -0.8194
54973SOL     OW69729   5.079   6.845  12.499  0.2551 -0.7672 -0.5138
54973SOL    HW169730   5.036   6.885  12.575  1.5687  0.8751 -0.5899
54973SOL    HW269731   5.105   6.919  12.444  0.6308 -1.8628 -1.8572
54974SOL     OW69732   8.036  11.931  10.525  0.3974  0.1669  0.2061
54974SOL    HW169733   8.112  11.923  10.582  0.2644 -2.5496  0.1200
54974SOL    HW269734   7.961  11.928  10.583  0.2984 -0.6024  0.0432
54975SOL     OW69735  11.848   0.196   9.638 -0.4840  0.0733  0.1331
54975SOL    HW169736  11.854   0.131   9.708 -0.3852 -1.3859 -1.1826
54975SOL    HW269737  11.938   0.204   9.605 -0.5592  0.6367  0.0461
54976SOL     OW69738   0.939  11.413   5.364 -0.4031 -0.4725 -0.5364
54976SOL    HW169739   0.937  11.503   5.395 -0.0603  0.3808 -2.8301
54976SOL    HW269740   0.884  11.365   5.426 -2.2475  1.6823 -0.4014
54977SOL     OW69741  12.205   9.649   1.341  0.1744 -0.1004  0.0418
54977SOL    HW169742  12.159   9.565   1.335 -1.0968  0.6155 -0.7185
54977SOL    HW269743  12.236   9.666   1.252  0.3315  0.2824  0.1678
54978SOL     OW69744  12.035   0.853   3.337 -0.3473 -0.5494  0.5262
54978SOL    HW169745  11.952   0.807   3.335 -0.9453  0.5177 -0.7853
54978SOL    HW269746  12.101   0.786   3.318 -1.1275 -0.9817 -0.7388
54979SOL     OW69747   2.983   7.014   3.492 -0.1261  0.2946  0.3475
54979SOL    HW169748   2.936   6.947   3.442  0.7261 -0.0065 -0.0611
54979SOL    HW269749   2.914   7.071   3.526 -0.6879  1.0622 -1.9397
54980SOL     OW69750   4.726   5.429   9.180  0.0537  0.3419  0.4925
54980SOL    HW169751   4.724   5.446   9.086 -1.0150 -1.3626  0.1459
54980SOL    HW269752   4.715   5.515   9.220 -0.5847  0.9879 -0.9690
54981SOL     OW69753   5.184   8.464   1.864  0.4577 -0.0471  0.0183
54981SOL    HW169754   5.252   8.397   1.860  0.7229  0.1464  0.9270
54981SOL    HW269755   5.173   8.494   1.774  1.5316 -0.1342 -0.1537
54982SOL     OW69756   0.122   3.450  12.544  0.3469  0.6661 -0.0133
54982SOL    HW169757   0.191   3.460  12.479  0.2777  0.9705 -0.0433
54982SOL    HW269758   0.142   3.517  12.611  0.3956  0.3837  0.2576
54983SOL     OW69759   1.202  11.686  12.531  0.2012 -0.1693 -0.5746
54983SOL    HW169760   1.142  11.746  12.487 -1.5306  0.6446  2.6303
54983SOL    HW269761   1.287  11.730  12.527 -0.8935  2.3310  1.1415
54984SOL     OW69762   2.949   5.792   7.683  0.6868  0.1985 -0.1340
54984SOL    HW169763   2.898   5.840   7.748  1.5832  0.1679  0.5996
54984SOL    HW269764   3.034   5.778   7.724  0.7416 -1.2353 -0.6830
54985SOL     OW69765  10.895   1.937   4.912 -1.1034  0.5077 -0.1644
54985SOL    HW169766  10.927   1.900   4.829  0.3223  0.3966  0.4084
54985SOL    HW269767  10.873   2.028   4.890  1.5847  1.2560 -0.2183
54986SOL     OW69768   5.570  10.304  12.358  0.6933 -0.1186 -0.5238
54986SOL    HW169769   5.599  10.213  12.368 -1.0614 -0.5715  0.9024
54986SOL    HW269770   5.574  10.320  12.264  0.1947 -1.9708 -0.9072
54987SOL     OW69771   2.759  10.421  12.334  0.7553  0.3756  0.3273
54987SOL    HW169772   2.736  10.468  12.414 -0.8329  0.0946  0.0672
54987SOL    HW269773   2.728  10.331  12.349  0.2012  0.3842 -0.6874
54988SOL     OW69774   1.597   3.593   5.611 -0.0898 -0.8953 -0.6905
54988SOL    HW169775   1.502   3.599   5.598 -0.3470  1.6451  1.3396
54988SOL    HW269776   1.635   3.636   5.535 -0.5703 -1.4748 -1.2671
54989SOL     OW69777  10.975   4.356   5.021 -0.2772  0.0132  0.4546
54989SOL    HW169778  10.927   4.356   5.103 -0.9149  1.0322  0.1034
54989SOL    HW269779  11.042   4.289   5.032 -1.2529 -0.8646  1.2613
54990SOL     OW69780   8.102  11.982   5.369  0.6674 -0.0705 -0.6549
54990SOL    HW169781   8.139  12.052   5.423  0.9969  0.6793 -1.8209
54990SOL    HW269782   8.178  11.941   5.329  0.3733 -0.0087 -1.2746
54991SOL     OW69783   7.029   6.106   9.817  0.5229  0.6206  0.1431
54991SOL    HW169784   7.054   6.105   9.909  0.1511  0.0369  0.2431
54991SOL    HW269785   6.938   6.077   9.817  1.4932 -2.9218 -0.6903
54992SOL     OW69786  11.061   5.616  10.979  0.1573 -0.2098 -0.3890
54992SOL    HW169787  11.109   5.550  10.930  0.5585 -0.6272  0.5332
54992SOL    HW269788  10.981   5.572  11.007 -0.5719  0.3433 -1.5264
54993SOL     OW69789  10.673  11.660   2.065 -0.6844 -0.5079  0.4347
54993SOL    HW169790  10.738  11.604   2.107 -1.3384 -1.9529 -0.4394
54993SOL    HW269791  10.613  11.600   2.021 -1.1245  0.8907 -0.9744
54994SOL     OW69792  11.243  10.454   7.263  0.6346 -0.2161  0.2414
54994SOL    HW169793  11.190  10.532   7.248  0.5553 -0.5676 -1.6919
54994SOL    HW269794  11.191  10.400   7.322  0.2728  0.7931  0.8611
54995SOL     OW69795   0.980   6.276   5.134 -0.2224  0.3536 -0.9192
54995SOL    HW169796   0.897   6.230   5.144  0.5510 -0.8578  0.1979
54995SOL    HW269797   1.008   6.294   5.224  0.1590  1.8393 -1.3007
54996SOL     OW69798   7.996   0.503  11.969 -0.2610 -0.1701  0.0279
54996SOL    HW169799   7.917   0.520  12.021 -0.6878 -0.6579 -0.4456
54996SOL    HW269800   8.043   0.586  11.969  0.1895 -0.3721  1.9135
54997SOL     OW69801   2.539   2.877   1.744  0.7016  0.0228 -0.1416
54997SOL    HW169802   2.619   2.870   1.795  0.6858 -1.4891 -0.2808
54997SOL    HW269803   2.469   2.886   1.809  0.7242 -1.4566  0.1147
54998SOL     OW69804   0.860  12.143   9.631  0.1217 -0.0367 -0.3302
54998SOL    HW169805   0.920  12.165   9.560 -1.1648 -1.6337 -1.9960
54998SOL    HW269806   0.818  12.226   9.652  0.6931  0.5180 -1.2770
54999SOL     OW69807  11.317   3.933  10.942  0.6969 -0.1366  0.1117
54999SOL    HW169808  11.411   3.923  10.957  0.7616  1.0753  0.6664
54999SOL    HW269809  11.297   4.020  10.976 -0.8445 -0.8117  1.0037
55000SOL     OW69810   0.253   2.233   4.452 -0.2059  0.1705  0.5086
55000SOL    HW169811   0.172   2.203   4.412  1.2860 -1.0064 -1.8672
55000SOL    HW269812   0.274   2.167   4.518  0.7134 -1.7325 -1.5505
55001SOL     OW69813  11.215   0.099   0.618  0.6668 -0.2113 -0.4578
55001SOL    HW169814  11.219   0.049   0.700 -0.9727 -0.8404 -0.7268
55001SOL    HW269815  11.284   0.165   0.627 -0.1757  0.4513  1.9179
55002SOL     OW69816   8.371   5.689   9.458 -0.2425 -0.3002  0.1605
55002SOL    HW169817   8.434   5.644   9.401  0.3010  0.2110  0.3443
55002SOL    HW269818   8.419   5.766   9.490 -0.7618 -0.2230  0.7721
55003SOL     OW69819  10.839   3.649   2.184 -0.8272 -0.1050  0.2222
55003SOL    HW169820  10.846   3.594   2.106  1.0589  0.6187 -0.1619
55003SOL    HW269821  10.832   3.738   2.150 -0.6442  0.1616  0.8791
55004SOL     OW69822   8.702   6.754   0.244  0.2078 -0.0210 -0.6592
55004SOL    HW169823   8.724   6.671   0.285 -1.6968 -0.3092 -0.1148
55004SOL    HW269824   8.705   6.736   0.150  1.4943 -0.2226 -0.5860
55005SOL     OW69825  11.583  11.905   4.368  0.0550 -0.2694 -0.0398
55005SOL    HW169826  11.617  11.969   4.305  1.3476  1.3332  2.1221
55005SOL    HW269827  11.660  11.878   4.417 -1.0686 -0.5039  1.6563
55006SOL     OW69828   9.016   8.268   7.845 -0.7157  0.5425 -0.2079
55006SOL    HW169829   8.932   8.227   7.864 -0.0481 -0.5492  0.5281
55006SOL    HW269830   9.052   8.291   7.930 -0.3836  1.2612 -0.5297
55007SOL     OW69831  10.499   8.339   7.222  0.3333  0.1442 -0.0633
55007SOL    HW169832  10.454   8.423   7.214 -1.3905 -0.8876 -2.2742
55007SOL    HW269833  10.489   8.314   7.314 -0.5831  1.5631  0.2454
55008SOL     OW69834   6.528   4.273   5.844 -0.2950 -0.0644 -0.0486
55008SOL    HW169835   6.605   4.302   5.892  0.0585 -1.6962  0.4293
55008SOL    HW269836   6.463   4.255   5.912 -0.6426  0.0004 -0.3600
55009SOL     OW69837   1.204   3.220   0.928  0.0554  0.1132 -0.0890
55009SOL    HW169838   1.119   3.248   0.963  0.3730  1.8498 -0.6072
55009SOL    HW269839   1.183   3.150   0.866 -1.1370  1.1872 -0.9574
55010SOL     OW69840  10.188   6.812   9.225  0.7157 -0.2528  0.8939
55010SOL    HW169841  10.147   6.725   9.223 -0.7228  0.4025 -0.7381
55010SOL    HW269842  10.118   6.869   9.258  0.9623  0.5957 -0.0418
55011SOL     OW69843   2.389   5.155   4.582 -0.2964 -0.4413  0.0649
55011SOL    HW169844   2.476   5.118   4.566  0.2879  0.0186  1.9335
55011SOL    HW269845   2.407   5.241   4.622 -1.6262  0.3858 -1.0259
55012SOL     OW69846   7.055   4.000   9.551  0.1712 -0.7053 -0.4141
55012SOL    HW169847   7.040   3.906   9.546  0.6611 -0.8830  0.8941
55012SOL    HW269848   7.136   4.014   9.502  0.2728 -1.0238 -0.3385
55013SOL     OW69849  11.674   4.897   2.752  0.4221 -0.2056 -0.0087
55013SOL    HW169850  11.581   4.876   2.757  0.2343  0.9178  2.8224
55013SOL    HW269851  11.684   4.938   2.666 -1.1700 -2.3642 -1.3336
55014SOL     OW69852   8.223   1.997   0.253  0.0088  0.2790 -0.0457
55014SOL    HW169853   8.190   2.086   0.265 -1.2201 -0.0772 -0.6070
55014SOL    HW269854   8.145   1.946   0.229  0.0364 -1.5861  3.2064
55015SOL     OW69855   6.444   9.168   3.166  0.1405 -0.7318 -0.2046
55015SOL    HW169856   6.414   9.252   3.132  1.2181 -0.1416  0.2749
55015SOL    HW269857   6.383   9.104   3.128 -0.6255  0.2408 -0.6549
55016SOL     OW69858   3.221   0.265  11.240 -0.4286  0.3299 -0.5599
55016SOL    HW169859   3.138   0.230  11.274 -0.5615  0.6750 -0.5214
55016SOL    HW269860   3.288   0.210  11.280 -0.5951  0.6016  0.1013
55017SOL     OW69861   6.976   3.884   2.691  0.0177  0.0448  0.3737
55017SOL    HW169862   6.975   3.939   2.770  2.2381  0.1699  0.3755
55017SOL    HW269863   6.978   3.794   2.725 -0.5566  0.0443  0.4178
55018SOL     OW69864   5.759   8.236   0.449  1.0411 -0.6105  0.2869
55018SOL    HW169865   5.795   8.150   0.467  1.8578 -0.2830  0.2841
55018SOL    HW269866   5.670   8.220   0.418  1.7141 -1.5564 -1.2587
55019SOL     OW69867  10.258   8.729   9.189  0.0102 -0.0214 -0.3773
55019SOL    HW169868  10.168   8.744   9.161  0.3237  0.7020 -1.0224
55019SOL    HW269869  10.256   8.741   9.284 -0.2768  1.6046 -0.5576
55020SOL     OW69870  10.385   7.499   9.440  0.4763  0.0763 -0.4387
55020SOL    HW169871  10.370   7.458   9.525  1.1170  0.9700  0.1189
55020SOL    HW269872  10.425   7.584   9.461  0.6211  0.3145 -1.6268
55021SOL     OW69873  11.923   4.150   9.540 -0.0898  0.3675  0.1345
55021SOL    HW169874  11.856   4.151   9.609 -0.4241  1.8681 -0.1721
55021SOL    HW269875  11.874   4.136   9.459  0.3451 -1.8113  0.1875
55022SOL     OW69876   5.438   0.890   9.054 -0.0046  0.0154  0.1914
55022SOL    HW169877   5.499   0.964   9.057 -0.9253  0.8040  0.1236
55022SOL    HW269878   5.457   0.846   8.971  0.5162  0.2040  0.2075
55023SOL     OW69879  12.450   2.653   9.403 -0.1702 -0.4580  0.2400
55023SOL    HW169880  12.364   2.636   9.440 -0.5249  0.8943  0.0601
55023SOL    HW269881  12.475   2.739   9.438  1.0650 -0.7793  0.2085
55024SOL     OW69882   8.220   9.142   4.092 -0.4641  0.2859 -0.0247
55024SOL    HW169883   8.251   9.225   4.056  0.0290 -0.6100 -1.7940
55024SOL    HW269884   8.294   9.109   4.144 -0.0090  0.1601 -0.7395
55025SOL     OW69885   8.742   0.287  12.548 -0.4308  0.1571  0.3371
55025SOL    HW169886   8.761   0.378  12.527 -0.8885  0.4981  1.3241
55025SOL    HW269887   8.760   0.280  12.642  1.5009 -1.2762 -0.0596
55026SOL     OW69888   9.366   2.119   9.773  0.4355  0.0551  0.2367
55026SOL    HW169889   9.313   2.171   9.834 -0.5181  0.2630 -0.7408
55026SOL    HW269890   9.380   2.177   9.698  1.7095 -0.1498  0.2904
55027SOL     OW69891   6.959   5.868   0.473  0.4037  0.5880 -0.1089
55027SOL    HW169892   7.047   5.846   0.443  0.2304 -0.3738  0.0630
55027SOL    HW269893   6.967   5.957   0.506  1.7690 -0.1079  1.6128
55028SOL     OW69894   2.876   8.571   5.716 -0.7308  0.1762  0.6035
55028SOL    HW169895   2.932   8.618   5.777  0.2982 -1.6866  1.1996
55028SOL    HW269896   2.835   8.639   5.663  0.4128  1.7176  1.6061
55029SOL     OW69897   1.583  11.853   1.060 -0.4240 -0.7291 -0.2124
55029SOL    HW169898   1.542  11.812   0.983 -0.5062 -0.5705 -0.2533
55029SOL    HW269899   1.662  11.802   1.074  0.3654  0.1413 -1.2994
55030SOL     OW69900   1.823   7.895   0.204  0.1350 -0.1799 -0.1245
55030SOL    HW169901   1.845   7.814   0.250  0.1728 -0.4052 -0.5259
55030SOL    HW269902   1.780   7.866   0.123  0.7594  0.1696 -0.5971
55031SOL     OW69903   6.273  11.119   3.646 -0.1953 -0.1137  0.0033
55031SOL    HW169904   6.222  11.143   3.724  1.1392  1.2887  0.5120
55031SOL    HW269905   6.218  11.146   3.572 -0.1367  1.6558  0.5445
55032SOL     OW69906   1.740  10.570   6.184 -0.3856 -0.1419  0.3959
55032SOL    HW169907   1.819  10.516   6.189  0.5515  1.0661 -0.6770
55032SOL    HW269908   1.711  10.580   6.274  1.2304  0.1517  0.9046
55033SOL     OW69909   7.548  10.450   0.886 -0.6321  0.3768 -0.1356
55033SOL    HW169910   7.522  10.456   0.794 -2.1431 -1.1588  0.1492
55033SOL    HW269911   7.636  10.487   0.888 -0.7536  0.8897 -2.1094
55034SOL     OW69912   1.906  11.925  12.627  0.1522  0.0833  0.1585
55034SOL    HW169913   1.963  11.997  12.656 -0.3203  0.0543  1.2152
55034SOL    HW269914   1.829  11.932  12.683  0.6906 -2.1069  1.3125
55035SOL     OW69915   1.399   5.935   0.724 -0.1629  0.3963 -0.0699
55035SOL    HW169916   1.493   5.940   0.706 -0.3322  0.7958 -0.9058
55035SOL    HW269917   1.382   6.008   0.784 -0.1651  1.2050 -1.0214
55036SOL     OW69918   4.243   1.911   2.675 -0.1808 -0.4079  0.2450
55036SOL    HW169919   4.150   1.921   2.695 -0.4929  0.3663 -1.4125
55036SOL    HW269920   4.253   1.819   2.651 -0.8289 -0.2003 -0.9031
55037SOL     OW69921   2.474   2.878   9.828  0.1037 -0.3753 -0.8586
55037SOL    HW169922   2.442   2.911   9.744 -1.1152 -0.0905 -0.3020
55037SOL    HW269923   2.552   2.931   9.847 -0.0341  0.0480 -1.4653
55038SOL     OW69924   4.127  10.267   3.777  0.1612  0.2349  0.2795
55038SOL    HW169925   4.063  10.320   3.729 -0.9925  0.2361  1.7602
55038SOL    HW269926   4.211  10.307   3.757 -0.5505  1.7847  0.2652
55039SOL     OW69927   3.106   2.776   4.657  0.2530  0.1296  0.1386
55039SOL    HW169928   3.016   2.780   4.626 -0.5286 -1.8738  1.8602
55039SOL    HW269929   3.099   2.783   4.753  1.8642 -0.4991  0.3431
55040SOL     OW69930  11.359  12.614   4.752 -0.5456 -0.4352  0.0689
55040SOL    HW169931  11.454  12.605   4.745 -0.3803 -0.6409  2.0236
55040SOL    HW269932  11.343  12.708   4.744 -0.3230 -0.4978 -1.3850
55041SOL     OW69933   7.413   6.122   8.382 -0.7644 -0.0624 -0.0938
55041SOL    HW169934   7.459   6.056   8.434  0.0177 -0.2457 -0.9918
55041SOL    HW269935   7.323   6.119   8.413 -0.2879 -0.0616  1.3401
55042SOL     OW69936   7.963   2.006   6.016  0.3386 -0.1184  0.0984
55042SOL    HW169937   7.924   2.006   6.103 -0.8071  1.1673 -0.3774
55042SOL    HW269938   7.890   2.023   5.957  1.3258  0.4659 -0.9905
55043SOL     OW69939   5.402  12.118   8.393 -0.0484  0.1285 -0.0750
55043SOL    HW169940   5.406  12.026   8.418 -0.5549  0.1120 -0.0549
55043SOL    HW269941   5.488  12.153   8.416  0.2342 -0.3989 -0.3250
55044SOL     OW69942   2.684  11.305  10.364 -0.2717  0.0133 -0.3669
55044SOL    HW169943   2.682  11.398  10.342  0.4577  0.4649  1.2928
55044SOL    HW269944   2.611  11.294  10.425 -0.2241 -0.4576 -0.3947
55045SOL     OW69945   3.926   6.257  10.221  0.0830 -0.2673  0.6612
55045SOL    HW169946   3.963   6.331  10.173 -0.0774  0.4324  1.5997
55045SOL    HW269947   3.832   6.259  10.200 -0.1157  0.4954  1.5839
55046SOL     OW69948  10.716  11.409   9.363  0.0553  0.5216  0.1539
55046SOL    HW169949  10.671  11.486   9.398  0.0529 -0.1464  1.6966
55046SOL    HW269950  10.808  11.434   9.361 -0.1073  1.0852 -0.8129
55047SOL     OW69951   5.828   5.849   0.303  0.1878 -0.2934 -0.3533
55047SOL    HW169952   5.838   5.898   0.384  1.6402 -1.2298  0.0726
55047SOL    HW269953   5.807   5.915   0.237  2.7714  1.0272  0.0569
55048SOL     OW69954   5.707   3.128   2.104 -0.7587 -0.0276  0.3621
55048SOL    HW169955   5.703   3.188   2.179  1.2551 -0.1727  0.6367
55048SOL    HW269956   5.760   3.175   2.039  1.3167 -1.6532  0.7814
55049SOL     OW69957   8.715   8.707   6.833 -0.0813  0.7144 -0.3975
55049SOL    HW169958   8.659   8.632   6.810 -2.1787  2.5690 -1.6846
55049SOL    HW269959   8.804   8.677   6.812 -0.9640 -1.0121 -1.9731
55050SOL     OW69960   2.989   9.120   4.818 -0.1855 -0.3215 -0.2122
55050SOL    HW169961   3.030   9.076   4.743  1.1505 -1.2040  0.9909
55050SOL    HW269962   2.909   9.158   4.782  1.1036  0.4761 -2.3974
55051SOL     OW69963  10.804   3.419   1.133  0.7526 -0.2571 -0.0273
55051SOL    HW169964  10.795   3.363   1.211  1.3531 -0.7070 -0.2694
55051SOL    HW269965  10.794   3.358   1.059  0.9154  0.0409 -0.2964
55052SOL     OW69966  11.850  11.325   8.625 -0.2028 -0.1501 -0.2089
55052SOL    HW169967  11.890  11.412   8.629 -0.2592 -0.1622  0.8331
55052SOL    HW269968  11.765  11.335   8.667 -0.5948 -0.5160 -0.8853
55053SOL     OW69969  11.771   6.879   9.233 -0.2257  0.3525  0.3215
55053SOL    HW169970  11.774   6.901   9.140 -0.2511 -0.6310  0.0719
55053SOL    HW269971  11.681   6.899   9.260 -0.0728  1.1310  0.2717
55054SOL     OW69972   4.650   8.287   9.294 -0.0030  0.1771  0.0922
55054SOL    HW169973   4.613   8.211   9.250 -0.4469 -0.4320  1.4664
55054SOL    HW269974   4.692   8.252   9.373  1.3599  1.1509 -0.1580
55055SOL     OW69975  11.310   6.570   9.731  0.4077  0.1129  0.0604
55055SOL    HW169976  11.282   6.585   9.821 -0.8961  1.0838 -0.4834
55055SOL    HW269977  11.403   6.547   9.739  0.7595  1.8119  1.5332
55056SOL     OW69978   9.571   5.331  10.280 -0.0356  0.4569  0.0484
55056SOL    HW169979   9.496   5.288  10.238  1.2965 -0.6903 -1.2650
55056SOL    HW269980   9.598   5.269  10.348 -1.6534  1.9229  2.1499
55057SOL     OW69981  11.735   3.259   3.295 -0.0029  0.2145 -0.0959
55057SOL    HW169982  11.807   3.321   3.312  0.9511 -0.9731  0.3240
55057SOL    HW269983  11.677   3.307   3.235  1.3434  1.0747 -0.7861
55058SOL     OW69984   6.921   8.784   1.122  0.2978  0.6366 -0.0010
55058SOL    HW169985   6.880   8.851   1.068  1.1025  1.0298 -0.1411
55058SOL    HW269986   6.988   8.744   1.065 -1.4726 -1.6942 -0.6210
55059SOL     OW69987   7.414   0.410   3.334  0.1510  0.0601 -0.0960
55059SOL    HW169988   7.336   0.355   3.323  0.1326  0.0274  0.1996
55059SOL    HW269989   7.387   0.496   3.300 -0.2970  0.2855  0.7864
55060SOL     OW69990   6.733   9.307  11.378 -0.2208  0.1466  1.0243
55060SOL    HW169991   6.790   9.352  11.315  0.3061  0.8768  1.9899
55060SOL    HW269992   6.653   9.359  11.379 -0.2212  0.1466  0.9642
55061SOL     OW69993   3.152   2.502  10.460 -0.1800  0.6060 -0.1021
55061SOL    HW169994   3.146   2.590  10.424  0.3755  0.9850  0.7191
55061SOL    HW269995   3.082   2.498  10.525  0.1246  0.6089  0.2234
55062SOL     OW69996   3.901   6.148   7.650  0.3952  0.3391  0.1258
55062SOL    HW169997   3.868   6.139   7.740  2.0441  0.0713  0.7229
55062SOL    HW269998   3.831   6.196   7.605 -0.5521  0.3180  1.4879
55063SOL     OW69999   5.754  10.308   0.448  0.2791  0.0349  0.1492
55063SOL    HW170000   5.761  10.301   0.544 -0.7388  0.9654  0.3167
55063SOL    HW270001   5.661  10.321   0.432  0.6570  2.1145 -0.7656
55064SOL     OW70002   9.545   8.313  11.802 -0.1107 -0.0283 -0.0539
55064SOL    HW170003   9.460   8.269  11.802 -0.3017  0.3434  0.1018
55064SOL    HW270004   9.600   8.258  11.859  0.1661 -1.0468 -1.2559
55065SOL     OW70005   9.038  10.769   3.187 -0.0656  0.0478  0.0043
55065SOL    HW170006   9.103  10.754   3.118  0.1234  0.2742  0.1287
55065SOL    HW270007   8.978  10.695   3.181  1.2297 -1.1469  1.0611
55066SOL     OW70008   0.263   3.534   3.651  0.2426 -0.0333  0.2115
55066SOL    HW170009   0.351   3.499   3.642 -0.2006 -0.7696 -1.7321
55066SOL    HW270010   0.219   3.476   3.714  0.7026 -0.5680  0.0426
55067SOL     OW70011   7.869   4.236   0.490 -0.0108 -0.6567 -0.3405
55067SOL    HW170012   7.916   4.242   0.574  0.8597  0.6436 -0.8830
55067SOL    HW270013   7.795   4.178   0.508  2.4477 -3.8857  0.2207
55068SOL     OW70014   5.569   6.425   7.484 -0.1482 -0.0015  0.0913
55068SOL    HW170015   5.578   6.371   7.406  1.9259  1.2778 -0.6265
55068SOL    HW270016   5.526   6.368   7.548 -1.0975 -1.3549 -1.6762
55069SOL     OW70017   4.237   6.208   5.161 -0.1150 -0.2780  0.5820
55069SOL    HW170018   4.143   6.222   5.165 -0.4491 -2.0148 -0.3199
55069SOL    HW270019   4.259   6.163   5.242  0.1324  0.9158  1.2109
55070SOL     OW70020   7.585  11.223   8.851 -0.0011 -0.0644 -0.3080
55070SOL    HW170021   7.618  11.306   8.816 -0.2494 -0.4192 -1.4203
55070SOL    HW270022   7.591  11.162   8.778 -0.4008 -0.8805  0.3227
55071SOL     OW70023   8.075  10.801   9.789  0.1383  0.0766 -0.3072
55071SOL    HW170024   8.152  10.852   9.763 -0.6799  0.8948 -1.2225
55071SOL    HW270025   8.099  10.765   9.874  2.2140 -1.1797 -1.3375
55072SOL     OW70026  11.813   9.273   3.330 -0.1995  0.4292  0.1602
55072SOL    HW170027  11.880   9.222   3.285 -1.4232  0.3167 -1.6599
55072SOL    HW270028  11.856   9.356   3.351  0.8625 -0.1167  0.1722
55073SOL     OW70029   3.567   9.085  11.880 -0.4002 -0.1231 -0.6282
55073SOL    HW170030   3.584   9.102  11.787 -0.0461  1.5988 -0.3014
55073SOL    HW270031   3.501   9.150  11.904 -1.9415 -1.8032 -0.0858
55074SOL     OW70032   8.913   2.285  11.048 -0.0632 -0.5503 -0.2900
55074SOL    HW170033   8.964   2.242  11.117 -0.3165 -0.8750 -0.3020
55074SOL    HW270034   8.972   2.351  11.013  0.4889 -1.1528 -0.5336
55075SOL     OW70035   2.795  10.753   9.689  0.4403 -0.5847  0.8117
55075SOL    HW170036   2.871  10.803   9.658  0.9549 -1.2659  0.9616
55075SOL    HW270037   2.822  10.720   9.775 -0.0642 -0.7572  0.9042
55076SOL     OW70038   4.518   3.182   6.681  0.0373 -0.1563 -0.0972
55076SOL    HW170039   4.594   3.187   6.623  0.3787 -1.5433  0.1833
55076SOL    HW270040   4.448   3.225   6.632  0.7161  0.1049 -0.8626
55077SOL     OW70041   8.191   7.185   5.243 -0.1709  0.6307  0.3442
55077SOL    HW170042   8.174   7.154   5.154 -0.0829 -1.7845  1.1199
55077SOL    HW270043   8.277   7.227   5.238 -0.7128  1.6676 -0.9372
55078SOL     OW70044  10.099   2.023  11.654  0.4352 -0.0947 -0.3183
55078SOL    HW170045  10.183   2.053  11.688 -0.0146 -1.6326  2.4587
55078SOL    HW270046  10.107   1.928  11.652 -0.8121 -0.2014 -1.2733
55079SOL     OW70047   3.623  10.478   4.537 -0.1609 -0.0024  0.0935
55079SOL    HW170048   3.658  10.466   4.449  2.0733  0.1804  0.8925
55079SOL    HW270049   3.580  10.564   4.534 -0.3801 -0.1314 -0.8701
55080SOL     OW70050   8.346   9.716   5.153  0.0448  0.5047  0.0096
55080SOL    HW170051   8.302   9.741   5.234 -0.3115  1.2823 -0.4096
55080SOL    HW270052   8.315   9.779   5.088 -0.4894 -0.7528 -0.9973
55081SOL     OW70053   5.024  11.347   2.516  0.1213 -0.0621  0.1131
55081SOL    HW170054   4.999  11.320   2.604  1.1310 -0.7287  0.2043
55081SOL    HW270055   5.116  11.325   2.509 -0.3345 -1.6088 -1.7251
55082SOL     OW70056   3.417   9.993   4.478  0.1116 -0.4986 -0.7544
55082SOL    HW170057   3.446  10.083   4.494 -1.7345  0.0275 -0.1054
55082SOL    HW270058   3.321   9.999   4.477 -0.0336 -2.4304 -0.9112
55083SOL     OW70059   2.542  12.469   5.267 -0.0258 -0.1562  0.4871
55083SOL    HW170060   2.589  12.539   5.312 -0.9816 -1.2864  3.4735
55083SOL    HW270061   2.598  12.448   5.192  0.2179  3.7908 -0.6884
55084SOL     OW70062   3.900   4.362   2.302  0.1837  0.8568  0.4363
55084SOL    HW170063   3.906   4.407   2.218 -3.1448  2.6800  1.0084
55084SOL    HW270064   3.934   4.426   2.365  0.1575  0.5672  0.7442
55085SOL     OW70065   4.391  12.408   0.279 -0.2245 -0.5144  0.1888
55085SOL    HW170066   4.386  12.369   0.366 -0.0124 -1.1338 -0.0676
55085SOL    HW270067   4.331  12.355   0.225 -2.3061  1.3946  0.4856
55086SOL     OW70068  10.779  10.469   4.691 -0.2629 -0.1823  0.9170
55086SOL    HW170069  10.870  10.479   4.663 -0.5723 -1.1534 -0.5407
55086SOL    HW270070  10.754  10.556   4.722 -0.0473  1.2409 -2.4747
55087SOL     OW70071   2.595   0.609  11.468 -0.1579  0.3401  0.2068
55087SOL    HW170072   2.682   0.647  11.474  1.5989 -2.9629 -1.5294
55087SOL    HW270073   2.545   0.672  11.415  2.0283  1.0554 -1.1338
55088SOL     OW70074  12.605   9.562   3.503 -0.4686  0.8002  0.2627
55088SOL    HW170075  12.636   9.479   3.465 -1.7447 -0.0620  1.0122
55088SOL    HW270076  12.645   9.630   3.450  0.9625 -0.2929 -0.1086
55089SOL     OW70077   0.928   0.918   1.045  0.0337  0.3020  0.0367
55089SOL    HW170078   0.961   0.832   1.070  0.5444  0.0441 -1.4414
55089SOL    HW270079   0.871   0.902   0.970  2.4050  1.4507 -2.2020
55090SOL     OW70080   1.102   0.951   8.374  0.5670  0.8236 -0.8023
55090SOL    HW170081   1.163   0.983   8.307  0.2237  1.3454 -0.8670
55090SOL    HW270082   1.122   1.005   8.451  0.9883  0.1986 -0.4641
55091SOL     OW70083   0.741   8.441   1.210  0.0049  0.2205  0.0809
55091SOL    HW170084   0.667   8.408   1.158  2.1725 -1.3745 -2.1989
55091SOL    HW270085   0.729   8.536   1.211 -0.5254  0.2611 -2.8436
55092SOL     OW70086  10.171   1.887   0.609 -0.5849  0.3019 -0.2348
55092SOL    HW170087  10.266   1.890   0.594 -0.7138  0.9545 -0.9792
55092SOL    HW270088  10.135   1.854   0.527 -0.9921 -0.1718  0.1272
55093SOL     OW70089  11.445   6.293  11.986 -0.2882 -0.0640  0.4297
55093SOL    HW170090  11.472   6.202  11.972 -1.0224 -0.3061  0.5579
55093SOL    HW270091  11.354   6.296  11.956 -0.0032  0.8440 -0.3977
55094SOL     OW70092   3.021  11.587   3.219 -0.2658  0.6221 -0.0812
55094SOL    HW170093   2.940  11.588   3.169  0.1817 -0.0937 -0.8578
55094SOL    HW270094   3.012  11.658   3.282 -0.7485  1.7255 -1.3407
55095SOL     OW70095  11.451  10.075   7.184  0.1394  0.1306  0.6974
55095SOL    HW170096  11.487  10.095   7.098 -0.5252 -0.7506  0.2045
55095SOL    HW270097  11.361  10.049   7.168  0.1949 -0.6861  1.5850
55096SOL     OW70098   1.132   2.816   0.063  0.1642  0.1815 -0.4614
55096SOL    HW170099   1.109   2.729   0.031 -1.3901  0.2727  0.3019
55096SOL    HW270100   1.049   2.854   0.092  1.2692  0.4421  2.8077
55097SOL     OW70101  10.930   9.513   8.388 -0.6335 -0.5509  0.0711
55097SOL    HW170102  10.909   9.541   8.477 -1.8709  0.3069 -0.4666
55097SOL    HW270103  10.852   9.465   8.359 -0.2824 -0.7370 -0.5902
55098SOL     OW70104   6.242   0.286   4.632  0.4622 -0.4618 -0.1714
55098SOL    HW170105   6.174   0.344   4.599  2.0129 -0.2296 -3.3683
55098SOL    HW270106   6.203   0.245   4.710 -2.1796  1.7599 -0.1624
55099SOL     OW70107   5.157   2.056   1.823  0.2863 -0.1916 -0.4390
55099SOL    HW170108   5.158   2.085   1.914  1.2418  0.5447 -0.6772
55099SOL    HW270109   5.236   2.003   1.814  0.8552  0.7563 -1.1550
55100SOL     OW70110   5.895   1.057   2.435 -0.1062  0.1000 -0.3617
55100SOL    HW170111   5.803   1.041   2.454  0.2054 -0.3527  0.8814
55100SOL    HW270112   5.901   1.059   2.340 -1.3746  0.0239 -0.4490
55101SOL     OW70113  10.923   3.001   6.494 -0.0784 -0.0159  0.3058
55101SOL    HW170114  10.913   2.918   6.446 -1.0838 -0.0010  0.4693
55101SOL    HW270115  10.836   3.041   6.491  0.4066  1.0663  0.1957
55102SOL     OW70116   4.224   6.824   0.250  0.5062  0.1773  0.0045
55102SOL    HW170117   4.304   6.832   0.303 -0.1348  2.4554  0.7570
55102SOL    HW270118   4.248   6.861   0.165  0.6912 -0.7004 -0.3371
55103SOL     OW70119   2.850   8.806   5.143  0.6063 -0.0935  0.0990
55103SOL    HW170120   2.798   8.846   5.074  2.0953 -0.6600 -1.4313
55103SOL    HW270121   2.872   8.879   5.201  0.7332  0.7513 -0.9646
55104SOL     OW70122   7.625   5.030   7.949  0.6790  0.0125 -0.4719
55104SOL    HW170123   7.610   4.941   7.980  1.8329 -0.3988 -1.0463
55104SOL    HW270124   7.717   5.047   7.967  0.5992  0.9014 -0.8473
55105SOL     OW70125   9.626   8.942   7.758 -0.6631 -0.1835  0.3753
55105SOL    HW170126   9.720   8.963   7.761 -0.2723 -1.5373 -0.9326
55105SOL    HW270127   9.620   8.872   7.694 -2.5717 -0.2581  0.5904
55106SOL     OW70128   1.327  11.458   1.626  0.2792  0.6495 -0.0894
55106SOL    HW170129   1.263  11.388   1.609  0.0678  0.5305  1.1314
55106SOL    HW270130   1.327  11.468   1.721  0.7394  1.9174 -0.2085
55107SOL     OW70131   1.576   6.825  10.423 -0.8440  0.5796  0.6330
55107SOL    HW170132   1.531   6.875  10.355 -0.2051  1.0051  0.5200
55107SOL    HW270133   1.662   6.805  10.386 -0.8988 -0.1653  0.8788
55108SOL     OW70134  12.456   8.360   5.925 -1.3472  0.5655  1.0436
55108SOL    HW170135  12.424   8.272   5.906 -0.6535  0.5225 -0.0511
55108SOL    HW270136  12.535   8.368   5.872 -1.8417  2.1433  0.4898
55109SOL     OW70137   0.477   6.109   5.701 -0.4416 -0.5908  0.8675
55109SOL    HW170138   0.501   6.178   5.763 -0.3458  0.7156 -0.5451
55109SOL    HW270139   0.530   6.034   5.727  0.5477  0.3218  1.5950
55110SOL     OW70140   5.771  10.223   0.713  0.4000 -0.4690 -0.3035
55110SOL    HW170141   5.795  10.312   0.739 -1.0136 -0.1407 -0.0055
55110SOL    HW270142   5.798  10.168   0.787 -0.7455  0.0415  0.5368
55111SOL     OW70143   0.349   1.426   0.022  0.2627  0.7144 -0.5870
55111SOL    HW170144   0.367   1.484   0.096 -0.1472  2.0060 -1.4716
55111SOL    HW270145   0.257   1.401   0.032 -0.2750  2.2174 -1.5267
55112SOL     OW70146   1.358   6.107  11.444 -0.4558 -0.1182 -0.0071
55112SOL    HW170147   1.431   6.125  11.384  0.3069  0.8861  1.1845
55112SOL    HW270148   1.398   6.106  11.530 -1.2977 -2.8479  0.4399
55113SOL     OW70149   3.652   3.207   8.083  0.3272  0.1194  0.3283
55113SOL    HW170150   3.560   3.191   8.105 -0.7168  0.8587 -2.9141
55113SOL    HW270151   3.669   3.296   8.112  0.0519 -0.0635  1.0481
55114SOL     OW70152   5.877   8.733  12.434  0.3254 -0.1917 -0.0665
55114SOL    HW170153   5.943   8.752  12.367  0.6890 -1.9648 -0.2644
55114SOL    HW270154   5.805   8.694  12.386 -1.0649  1.9644  0.1152
55115SOL     OW70155   5.937   5.810   1.010  0.1296 -0.1457  0.1244
55115SOL    HW170156   5.970   5.876   0.949 -0.2786  0.6161  0.6972
55115SOL    HW270157   5.956   5.848   1.097 -0.2962 -0.6923  0.4591
55116SOL     OW70158   8.529  12.021   5.269 -0.2459  0.2549  0.1632
55116SOL    HW170159   8.624  12.025   5.278 -0.1060  1.3463 -1.3807
55116SOL    HW270160   8.512  12.051   5.180 -2.1730  1.9107  1.0188
55117SOL     OW70161   0.881   6.008   0.756 -0.5722  0.2422  0.1286
55117SOL    HW170162   0.897   6.046   0.670 -0.1659 -0.1288  0.0344
55117SOL    HW270163   0.863   6.083   0.813  2.4454  0.8682  0.4523
55118SOL     OW70164   3.866   1.168   8.059  0.2384  0.6208  0.1974
55118SOL    HW170165   3.818   1.090   8.088  0.0429  0.7981  0.3461
55118SOL    HW270166   3.827   1.189   7.974  1.4217 -0.4415 -0.6495
55119SOL     OW70167   0.952   6.593   3.364  0.2526 -0.3992  0.2784
55119SOL    HW170168   0.867   6.604   3.407  0.5453  0.9595  0.5495
55119SOL    HW270169   0.941   6.634   3.278  0.9282  0.7189  0.7123
55120SOL     OW70170  10.243   6.107   0.572 -0.6161 -0.1484  0.0587
55120SOL    HW170171  10.189   6.119   0.650 -1.6850 -0.5039 -0.6119
55120SOL    HW270172  10.305   6.181   0.574 -2.2177  1.2501 -0.0449
55121SOL     OW70173   7.264   6.971  11.066  0.1306  0.2541  0.0972
55121SOL    HW170174   7.178   6.954  11.103  0.0587  0.8313  0.2072
55121SOL    HW270175   7.257   6.944  10.975  0.2195 -0.8993  0.4201
55122SOL     OW70176   1.666  10.387  11.660  0.1611  0.7014  0.1164
55122SOL    HW170177   1.718  10.332  11.601 -1.1074 -1.3610  0.7836
55122SOL    HW270178   1.575  10.368  11.635 -0.3333  2.0543  0.8079
55123SOL     OW70179   8.460   3.854   7.099 -0.5402  0.5203 -0.4496
55123SOL    HW170180   8.475   3.822   7.010  0.4205 -0.7293  0.1218
55123SOL    HW270181   8.370   3.887   7.098 -1.2982 -1.3707 -1.3897
55124SOL     OW70182   5.311   4.514   5.366  0.2321 -0.1886  0.1139
55124SOL    HW170183   5.324   4.432   5.319 -2.8504 -0.4802 -0.4156
55124SOL    HW270184   5.269   4.488   5.448  1.8341  0.6826  1.2675
55125SOL     OW70185   2.454   3.962   8.938  0.2095 -0.2033  0.1230
55125SOL    HW170186   2.477   4.018   9.013 -1.2057  0.1926  0.2893
55125SOL    HW270187   2.359   3.962   8.937  0.2098 -0.4306 -1.5393
55126SOL     OW70188   4.550   4.830   2.801  0.2098  0.0454 -0.4183
55126SOL    HW170189   4.606   4.757   2.774 -1.0467 -0.2677 -2.3672
55126SOL    HW270190   4.523   4.807   2.890  4.2213  0.9205  1.2324
55127SOL     OW70191   9.893   3.657   2.213  0.5268 -0.1051 -0.6327
55127SOL    HW170192   9.944   3.617   2.143  0.0830 -0.0241 -1.0073
55127SOL    HW270193   9.950   3.727   2.247  1.2339 -0.9265 -0.0824
55128SOL     OW70194   2.211   1.303   7.396 -0.8131  0.2088 -0.0524
55128SOL    HW170195   2.257   1.290   7.313  1.3099  1.4251  0.8561
55128SOL    HW270196   2.227   1.222   7.446 -3.0484 -1.0206 -1.1365
55129SOL     OW70197   1.011  12.313   9.190 -0.2335  0.0024  0.5030
55129SOL    HW170198   1.050  12.400   9.179 -1.7641  0.7625  0.8723
55129SOL    HW270199   0.982  12.289   9.102  0.9725 -0.5482  0.2341
55130SOL     OW70200  12.579   5.525   5.396 -0.0337  0.3298  0.7772
55130SOL    HW170201  12.573   5.477   5.313  1.7199 -0.8211  1.2677
55130SOL    HW270202  12.665   5.503   5.430 -0.5217  1.2010  2.6743
55131SOL     OW70203  10.250   5.661   8.018  0.3827  0.3609 -0.4011
55131SOL    HW170204  10.233   5.739   7.964  0.4792  0.4736 -0.2706
55131SOL    HW270205  10.307   5.607   7.963 -0.4106 -0.0338 -0.8492
55132SOL     OW70206  12.269   5.190  11.534 -0.5464 -0.2705  0.1252
55132SOL    HW170207  12.254   5.108  11.488  1.0337 -0.0025 -0.9693
55132SOL    HW270208  12.309   5.247  11.468 -0.1883  0.8595  1.2790
55133SOL     OW70209   2.052  12.162   0.786 -0.0975  0.0766 -0.3698
55133SOL    HW170210   2.143  12.176   0.812  0.1653 -1.6808 -0.2198
55133SOL    HW270211   2.016  12.107   0.855 -0.8495 -0.4852 -1.1900
55134SOL     OW70212   3.166   2.029   4.249 -0.6966  0.4430  0.0780
55134SOL    HW170213   3.146   1.936   4.260 -0.7869  0.3616 -0.6989
55134SOL    HW270214   3.211   2.034   4.164  1.0316  0.8487  0.9737
55135SOL     OW70215   1.024   0.602  12.309 -0.9739 -0.1250 -0.1445
55135SOL    HW170216   0.957   0.564  12.252 -0.4593  0.0744 -0.8993
55135SOL    HW270217   1.073   0.661  12.251 -1.5208  1.4058  0.8950
55136SOL     OW70218   2.916   7.751   3.396 -0.1687  0.3568  0.0631
55136SOL    HW170219   2.970   7.687   3.349  0.1548  0.2792  0.5332
55136SOL    HW270220   2.950   7.836   3.367 -1.2933  0.3538 -1.3730
55137SOL     OW70221   3.169  12.135   4.661 -0.2372  0.2097 -0.3323
55137SOL    HW170222   3.204  12.221   4.639  0.7334 -0.6036 -2.1846
55137SOL    HW270223   3.245  12.085   4.691 -0.7520 -0.0810  0.5201
55138SOL     OW70224   0.845   5.617   7.457  0.5401 -0.4595 -0.7518
55138SOL    HW170225   0.786   5.690   7.475 -1.1194 -1.8429 -0.2892
55138SOL    HW270226   0.838   5.603   7.363 -0.5877 -1.1528 -0.5861
55139SOL     OW70227   8.873   0.308   7.012 -0.4236 -0.6927 -0.0568
55139SOL    HW170228   8.786   0.340   7.037 -0.3629 -1.1858  0.8277
55139SOL    HW270229   8.932   0.343   7.079 -0.0554 -1.0229 -0.2031
55140SOL     OW70230   4.468   6.148   4.048  0.1741  0.0164  0.0135
55140SOL    HW170231   4.491   6.059   4.074 -0.9369 -0.6078 -1.0452
55140SOL    HW270232   4.519   6.163   3.968 -0.3114  0.0021 -0.2982
55141SOL     OW70233   5.410   1.921   1.784 -0.1856 -0.1496 -0.1222
55141SOL    HW170234   5.448   1.931   1.697  1.8134 -0.1455  0.7165
55141SOL    HW270235   5.390   1.827   1.791  2.4711 -0.7488  0.4711
55142SOL     OW70236  11.379   0.817   2.939 -0.4005  0.3747  0.0290
55142SOL    HW170237  11.464   0.773   2.940 -0.8344 -0.5063 -0.0980
55142SOL    HW270238  11.347   0.805   2.849 -0.9589  0.0812  0.2612
55143SOL     OW70239   7.760  12.224   4.738 -0.3066  0.7314 -0.3187
55143SOL    HW170240   7.770  12.316   4.763 -0.8122  0.9592 -0.9186
55143SOL    HW270241   7.770  12.175   4.819  1.0161  1.2360 -0.1563
55144SOL     OW70242   5.977  11.058   4.606  0.0957  0.9466  0.8148
55144SOL    HW170243   6.073  11.055   4.616  0.0935 -0.7223  0.6075
55144SOL    HW270244   5.946  10.985   4.659 -1.1153  1.6988  1.1749
55145SOL     OW70245   6.106   1.313   7.567 -0.1324  0.4416 -0.2081
55145SOL    HW170246   6.033   1.252   7.554  0.2064  0.1979 -1.0847
55145SOL    HW270247   6.164   1.296   7.493  1.1506  0.1539  0.8275
55146SOL     OW70248   1.049  11.580   9.247 -0.3296  0.3514  0.2862
55146SOL    HW170249   0.962  11.609   9.272 -1.6149 -2.4909 -0.4861
55146SOL    HW270250   1.054  11.489   9.277  1.7318 -0.0758 -1.1131
55147SOL     OW70251   7.203   2.069   4.367  0.6509  0.4683 -0.5821
55147SOL    HW170252   7.190   2.103   4.278 -2.6130 -1.1249 -0.8339
55147SOL    HW270253   7.211   1.975   4.356  0.4586  0.2663  0.8182
55148SOL     OW70254   3.050   2.205  11.214  0.2739 -1.0238  0.1918
55148SOL    HW170255   3.134   2.246  11.237 -0.6511  0.3969  1.2164
55148SOL    HW270256   2.985   2.253  11.265 -1.2975 -1.4101 -1.3352
55149SOL     OW70257   2.922   0.176   7.268 -0.2981 -0.1373 -0.2030
55149SOL    HW170258   2.838   0.159   7.309 -0.2074 -1.6465 -0.5951
55149SOL    HW270259   2.902   0.187   7.175 -0.2221  1.0131 -0.1038
55150SOL     OW70260   6.155  10.398  12.137 -0.1640 -0.2975 -0.0375
55150SOL    HW170261   6.149  10.386  12.043 -1.2065  0.0378 -0.0211
55150SOL    HW270262   6.125  10.488  12.152 -1.7553 -0.9219  0.7738
55151SOL     OW70263   6.306   6.195   9.757 -0.2161  0.3131 -0.4306
55151SOL    HW170264   6.357   6.206   9.676  0.5394  1.8505  0.1982
55151SOL    HW270265   6.233   6.139   9.732  1.8455 -2.1386 -1.3498
55152SOL     OW70266   7.317   3.287   1.435  0.0051 -0.2869 -0.0968
55152SOL    HW170267   7.395   3.287   1.490  0.4884  0.4510 -0.7522
55152SOL    HW270268   7.332   3.358   1.372 -1.0150 -0.3977 -0.4870
55153SOL     OW70269   7.042  10.868   6.197  0.4314 -0.4049  0.7057
55153SOL    HW170270   7.041  10.773   6.207 -0.3912 -0.8615 -2.4404
55153SOL    HW270271   6.975  10.899   6.258 -1.6148 -2.2504 -0.4363
55154SOL     OW70272   6.547   9.035   0.678 -0.1288 -0.6295  0.1572
55154SOL    HW170273   6.599   9.066   0.604 -0.0715  0.2044  0.5397
55154SOL    HW270274   6.559   9.101   0.746  0.3538 -1.7120  1.1558
55155SOL     OW70275  12.058   6.702   4.619 -0.0543 -0.1252 -0.2110
55155SOL    HW170276  12.073   6.627   4.562 -0.8872 -0.4581 -0.0160
55155SOL    HW270277  11.962   6.711   4.622 -0.0100  0.2120  0.7011
55156SOL     OW70278   5.530   3.985   9.008 -0.1521 -0.0514  0.3475
55156SOL    HW170279   5.609   3.944   8.973 -0.0755 -0.0419  0.5080
55156SOL    HW270280   5.561   4.067   9.048 -0.5625  1.2379 -1.8050
55157SOL     OW70281  10.079   1.072   6.357  0.4362  0.0074 -0.2473
55157SOL    HW170282   9.990   1.101   6.335 -0.1221 -0.8704  0.7577
55157SOL    HW270283  10.120   1.148   6.396  0.4930  0.7340 -1.6401
55158SOL     OW70284   3.468   5.579  10.591 -0.3119  0.1532  0.5631
55158SOL    HW170285   3.503   5.571  10.680 -1.0379 -2.6336  0.6790
55158SOL    HW270286   3.376   5.601  10.604  0.1459  2.4484  0.3634
55159SOL     OW70287  10.024   9.936   9.476  0.0979  0.4108 -0.2112
55159SOL    HW170288  10.078  10.014   9.477 -0.3826  0.7435  0.0889
55159SOL    HW270289   9.936   9.967   9.496 -0.1562 -0.1607 -0.4149
55160SOL     OW70290  12.253   8.900   9.575 -0.3252 -0.2136 -0.0289
55160SOL    HW170291  12.241   8.971   9.511 -0.9366 -0.9310 -0.7414
55160SOL    HW270292  12.163   8.872   9.596 -0.0936 -1.8450 -1.0088
55161SOL     OW70293   1.024   3.060   9.831 -0.3107 -0.4625 -0.3353
55161SOL    HW170294   1.004   2.980   9.880 -0.4583  0.4893  1.2176
55161SOL    HW270295   1.088   3.106   9.886  0.1541  0.2554 -1.4474
55162SOL     OW70296   9.296   2.666   7.954  0.5492  0.0753  0.4253
55162SOL    HW170297   9.352   2.740   7.929 -0.9662  0.9027 -0.6612
55162SOL    HW270298   9.269   2.627   7.870 -1.2826  0.3247  0.8610
55163SOL     OW70299   7.045   1.740   8.297  0.0994  0.2732  0.1521
55163SOL    HW170300   7.066   1.647   8.295  1.7887  0.6279  0.1700
55163SOL    HW270301   6.965   1.745   8.350 -0.1318 -1.1629 -0.0120
55164SOL     OW70302  10.729   8.393   8.010  0.0940  0.7627  0.9241
55164SOL    HW170303  10.698   8.422   8.095  1.1750  2.3272  0.8305
55164SOL    HW270304  10.804   8.450   7.991 -0.0955  0.4254 -1.0473
55165SOL     OW70305  12.514  10.819   3.265 -0.5916 -0.2542  0.4155
55165SOL    HW170306  12.579  10.827   3.335  0.7530  0.6298 -0.8491
55165SOL    HW270307  12.448  10.885   3.285 -0.4011 -0.2448  1.0158
55166SOL     OW70308   7.663  10.604   8.617 -0.5699 -0.2472 -0.2125
55166SOL    HW170309   7.590  10.613   8.556 -0.6131  0.0402 -0.1185
55166SOL    HW270310   7.740  10.593   8.561 -0.7331 -0.9746 -0.3123
55167SOL     OW70311   3.167  12.462   0.585  0.0674  0.3132  0.7448
55167SOL    HW170312   3.093  12.520   0.602 -0.0358 -0.0540  1.6142
55167SOL    HW270313   3.217  12.506   0.517 -1.6499 -0.0505 -0.8377
55168SOL     OW70314   7.904   2.292  10.484 -0.2537  0.4249 -0.9778
55168SOL    HW170315   7.954   2.369  10.456  1.1283 -0.4259 -0.9300
55168SOL    HW270316   7.917   2.228  10.415  3.5881 -1.8799  1.4829
55169SOL     OW70317   8.109   5.353   1.605 -0.2743 -0.8377  0.5364
55169SOL    HW170318   8.136   5.322   1.691 -0.2431 -2.0114  0.1261
55169SOL    HW270319   8.041   5.291   1.578 -2.2575  1.0786  0.8509
55170SOL     OW70320   2.829  11.724  10.578 -0.7234 -0.4873 -0.0172
55170SOL    HW170321   2.835  11.812  10.616 -0.7671 -0.4350 -0.1287
55170SOL    HW270322   2.919  11.702  10.554 -0.8527 -0.0420 -0.9454
55171SOL     OW70323   8.464   8.560   2.439  0.0456 -1.0627  0.3137
55171SOL    HW170324   8.494   8.616   2.368  2.4254 -1.4348  0.9379
55171SOL    HW270325   8.482   8.471   2.409  3.1379 -1.1714  2.1147
55172SOL     OW70326   9.172  11.350   2.580  0.0558 -0.3741  0.4572
55172SOL    HW170327   9.137  11.438   2.597  0.2390 -0.0203 -0.8710
55172SOL    HW270328   9.162  11.338   2.486  0.4685 -1.6021  0.5497
55173SOL     OW70329   2.451   1.805   5.975  0.6179  0.4187 -0.3323
55173SOL    HW170330   2.498   1.779   5.896  0.7409  1.0326 -0.4631
55173SOL    HW270331   2.372   1.850   5.943 -0.3830 -1.0966 -0.1273
55174SOL     OW70332  10.556  11.721   0.594  0.2477 -0.3772  0.7901
55174SOL    HW170333  10.536  11.738   0.502  0.7716 -0.2904  0.6910
55174SOL    HW270334  10.595  11.803   0.626  2.1346 -1.1065  0.4934
55175SOL     OW70335   0.920  11.872   6.329 -0.4337 -0.0515  0.5677
55175SOL    HW170336   0.962  11.887   6.414  0.3099 -2.3544  0.6890
55175SOL    HW270337   0.934  11.779   6.312 -1.1862  0.1950 -1.7705
55176SOL     OW70338   0.678   6.548   5.164  0.0702  0.5495  0.0431
55176SOL    HW170339   0.739   6.525   5.234  1.2124  1.7499 -0.5225
55176SOL    HW270340   0.712   6.631   5.128 -2.2177  1.6032  0.1083
55177SOL     OW70341  12.265   5.181   0.534 -0.2825 -0.6016  0.2325
55177SOL    HW170342  12.298   5.094   0.559  1.4303 -0.4016 -1.1856
55177SOL    HW270343  12.314   5.242   0.589 -1.1420 -0.4611  0.8810
55178SOL     OW70344   1.197   1.372   8.323 -0.0112 -0.1093  0.5622
55178SOL    HW170345   1.238   1.290   8.295  0.0233  0.7608 -2.1881
55178SOL    HW270346   1.251   1.401   8.398  2.7097 -0.4802 -1.1032
55179SOL     OW70347   2.685  11.099   6.490  0.0366 -0.5992 -0.1154
55179SOL    HW170348   2.740  11.165   6.449 -0.8109 -1.3960 -2.7169
55179SOL    HW270349   2.612  11.148   6.527  0.7360  0.1362  0.3274
55180SOL     OW70350   0.401   2.679   3.730 -0.3220 -0.4408  0.1057
55180SOL    HW170351   0.316   2.652   3.763 -0.7284  1.3243  0.6541
55180SOL    HW270352   0.435   2.738   3.798  0.9366 -0.3979 -0.5186
55181SOL     OW70353   7.250   8.971  11.808  0.1678 -0.1502  0.1944
55181SOL    HW170354   7.199   9.037  11.855  0.0994 -0.3638  0.4207
55181SOL    HW270355   7.270   8.904  11.874  1.0385  0.1039  0.1925
55182SOL     OW70356   5.481   4.263  11.003 -1.1384 -0.1235  0.2423
55182SOL    HW170357   5.435   4.308  11.075  1.1284  2.0130  0.4884
55182SOL    HW270358   5.474   4.170  11.025 -0.5579  0.4303  3.2664
55183SOL     OW70359   1.521   1.967  12.364  0.1198 -0.0903  0.8947
55183SOL    HW170360   1.480   1.981  12.450  0.1094  1.3202  0.6950
55183SOL    HW270361   1.551   2.054  12.338  2.4250 -0.9045  0.5924
55184SOL     OW70362   1.178   8.392   4.923  0.6487  0.2328  0.1515
55184SOL    HW170363   1.096   8.430   4.956  1.0788  2.1902 -0.8424
55184SOL    HW270364   1.155   8.360   4.835 -0.0566 -3.3098  1.4819
55185SOL     OW70365   1.039   2.504   5.128  0.3703  0.2577 -0.0829
55185SOL    HW170366   0.973   2.564   5.162  0.9643  1.5452 -1.1001
55185SOL    HW270367   0.997   2.464   5.051  0.0018 -0.6218  0.5515
55186SOL     OW70368   1.652   2.589   5.329 -0.2883 -0.2470 -0.3940
55186SOL    HW170369   1.718   2.633   5.274  1.1428 -0.2375  1.2415
55186SOL    HW270370   1.644   2.644   5.406  1.4286 -2.6208  1.6506
55187SOL     OW70371   3.603   5.862   9.741  0.5270 -0.3632  0.0017
55187SOL    HW170372   3.603   5.844   9.647  2.1168  0.0554 -0.0982
55187SOL    HW270373   3.522   5.911   9.756  0.0362 -0.8223 -1.0530
55188SOL     OW70374  12.509   6.342   9.155 -0.3815  0.4241 -0.3076
55188SOL    HW170375  12.465   6.291   9.223  1.3314  0.0551  0.5773
55188SOL    HW270376  12.573   6.281   9.118  0.3668  1.3504 -0.5618
55189SOL     OW70377   7.682   1.001   5.944 -0.4381  0.0472 -0.0690
55189SOL    HW170378   7.773   0.980   5.962 -0.7764 -0.3803  1.2717
55189SOL    HW270379   7.683   1.093   5.920  0.3264  0.1038  0.1484
55190SOL     OW70380   5.391   8.598  11.843  0.0348  0.3935  0.6651
55190SOL    HW170381   5.462   8.578  11.905  1.9098 -0.0056 -1.4719
55190SOL    HW270382   5.420   8.678  11.799 -0.8501  0.2350 -0.2334
55191SOL     OW70383  11.393   2.559   3.777 -0.0727  0.3209  0.1390
55191SOL    HW170384  11.424   2.650   3.787 -1.4610  0.6951  1.2621
55191SOL    HW270385  11.456   2.507   3.827  0.9208  0.6012 -0.7736
55192SOL     OW70386   9.774   1.157   6.846  0.1847  0.2382  0.3194
55192SOL    HW170387   9.856   1.115   6.821  0.4305 -0.3969  2.0530
55192SOL    HW270388   9.726   1.090   6.894 -0.7886  1.0013  0.4482
55193SOL     OW70389  11.299   7.029  12.601  0.0431  0.0091 -0.4120
55193SOL    HW170390  11.294   7.086  12.678 -0.2098 -0.5405 -0.0179
55193SOL    HW270391  11.386   7.047  12.564  0.6886 -0.6492  0.7327
55194SOL     OW70392   1.261   7.041  11.337  0.1529 -0.0271  0.7323
55194SOL    HW170393   1.313   7.118  11.315  0.8505 -1.4318 -3.3361
55194SOL    HW270394   1.327   6.972  11.351 -0.5216 -0.8090  0.1022
55195SOL     OW70395   9.417   2.129   9.323  0.2306 -0.5010  0.2957
55195SOL    HW170396   9.465   2.046   9.329  0.6063 -0.2512  0.7895
55195SOL    HW270397   9.352   2.123   9.394  0.4020 -0.2852  0.4720
55196SOL     OW70398  11.662   5.832   8.265  0.1748 -0.1273 -0.0648
55196SOL    HW170399  11.677   5.806   8.356 -1.6456  0.6837  0.5109
55196SOL    HW270400  11.584   5.784   8.239  0.8820 -0.6217 -1.3431
55197SOL     OW70401   4.485   6.481   2.485 -0.4395 -0.3614  0.2383
55197SOL    HW170402   4.550   6.414   2.464 -1.5770 -1.2741 -0.5068
55197SOL    HW270403   4.464   6.521   2.401 -1.3912 -0.6135  0.3458
55198SOL     OW70404   5.206   6.237   1.591 -0.2862 -0.3387 -0.0627
55198SOL    HW170405   5.184   6.222   1.499 -1.6318 -1.9831  0.4885
55198SOL    HW270406   5.224   6.150   1.626 -2.2252 -0.0627  1.8015
55199SOL     OW70407   8.682   4.845   8.808 -0.1493 -0.0700 -0.0950
55199SOL    HW170408   8.596   4.865   8.772  0.0982 -1.5338 -1.6351
55199SOL    HW270409   8.730   4.927   8.805 -0.9931  0.4129 -0.7006
55200SOL     OW70410   0.550   7.940   6.568 -0.2598  0.6656  0.9037
55200SOL    HW170411   0.606   7.996   6.514  0.1719  1.0502  1.7469
55200SOL    HW270412   0.461   7.959   6.537  0.0894 -0.5429 -0.9984
55201SOL     OW70413   1.291   0.016   2.384  0.2629  0.3790  0.8428
55201SOL    HW170414   1.251  -0.071   2.393 -1.4152  0.9459 -0.4869
55201SOL    HW270415   1.378   0.007   2.423 -0.4186 -1.4850  2.0627
55202SOL     OW70416  10.948   1.091   3.769 -0.0864 -0.1962 -0.2633
55202SOL    HW170417  10.854   1.085   3.753 -0.1520  1.9373 -0.9323
55202SOL    HW270418  10.955   1.117   3.861 -0.2862  2.0213 -0.8314
55203SOL     OW70419  12.172   5.655   0.296 -0.5711  0.2788  0.2422
55203SOL    HW170420  12.193   5.638   0.388  1.4149  0.6508 -0.0993
55203SOL    HW270421  12.224   5.591   0.247 -1.4897  0.1865 -0.6436
55204SOL     OW70422   7.366   7.939   6.511  0.2342 -0.4877  0.0801
55204SOL    HW170423   7.422   7.874   6.467 -0.9502 -0.8515 -0.9403
55204SOL    HW270424   7.427   7.992   6.562  1.4051 -1.4627 -0.2602
55205SOL     OW70425   2.140   5.445   0.009  0.0058  0.2313  0.5399
55205SOL    HW170426   2.115   5.536  -0.008  0.7256  0.2123 -0.7007
55205SOL    HW270427   2.057   5.399   0.020 -0.3616  1.0405  1.2474
55206SOL     OW70428   8.477  12.125   5.041 -0.4983 -0.0834  0.3093
55206SOL    HW170429   8.481  12.220   5.056 -1.2221 -0.0356  0.2461
55206SOL    HW270430   8.437  12.116   4.955 -1.3362 -0.4603  0.7263
55207SOL     OW70431  11.633   6.419   3.255  1.2543  0.1312 -0.6622
55207SOL    HW170432  11.687   6.494   3.229  2.8238 -0.7569 -0.1459
55207SOL    HW270433  11.668   6.346   3.203 -0.3979 -0.2207 -1.3327
55208SOL     OW70434   3.418   9.127  11.345  0.1254  0.5136  0.0944
55208SOL    HW170435   3.506   9.096  11.368  0.3013 -0.3556 -1.5683
55208SOL    HW270436   3.430   9.219  11.321  0.6152  0.3646 -0.2411
55209SOL     OW70437  11.562  12.570   6.254  0.1199 -0.0636  0.0197
55209SOL    HW170438  11.565  12.649   6.309  1.9267  0.9209 -1.3952
55209SOL    HW270439  11.506  12.510   6.303 -2.1079  2.3759  0.7492
55210SOL     OW70440   2.283   4.077   5.229 -0.6919  0.7862  0.3432
55210SOL    HW170441   2.326   4.159   5.204  0.1853 -0.2399 -1.7772
55210SOL    HW270442   2.218   4.062   5.160 -0.0884 -0.7991  0.0690
55211SOL     OW70443   3.829   4.917  11.160  0.2372  0.0929 -0.7482
55211SOL    HW170444   3.860   4.831  11.131 -1.7158 -1.4678  1.4355
55211SOL    HW270445   3.738   4.921  11.130 -0.7674 -0.1522  2.0164
55212SOL     OW70446   3.007   1.862   1.254  0.4825  0.3264  0.0808
55212SOL    HW170447   3.036   1.830   1.169 -1.9587 -0.7850 -0.4190
55212SOL    HW270448   2.978   1.784   1.301 -1.8719  1.2932  0.3748
55213SOL     OW70449   3.370   2.876   5.606  0.0374 -0.3421  0.0322
55213SOL    HW170450   3.390   2.786   5.631 -0.2663 -0.1624  0.9647
55213SOL    HW270451   3.453   2.911   5.573  0.3938 -0.6656  0.5730
55214SOL     OW70452   1.082   1.735   4.948  0.0972  0.2046  0.0877
55214SOL    HW170453   0.995   1.697   4.933 -0.3864  0.3911  2.1026
55214SOL    HW270454   1.070   1.829   4.931  0.3978 -0.0197 -1.4488
55215SOL     OW70455   6.984   6.026  12.306 -0.3844 -0.1697 -0.3725
55215SOL    HW170456   6.958   6.117  12.295  1.0477  0.4738  1.1448
55215SOL    HW270457   6.997   6.015  12.401  2.3910 -1.0572 -0.7639
55216SOL     OW70458   3.928   7.979   3.470 -0.0291 -0.6698  0.1732
55216SOL    HW170459   3.940   7.949   3.380  0.7318  0.8687 -0.2621
55216SOL    HW270460   3.891   8.067   3.461  0.4682 -0.3255  1.3599
55217SOL     OW70461   9.538   9.704   0.855  0.4490 -0.0649  0.1658
55217SOL    HW170462   9.596   9.776   0.830 -0.3064 -0.2530 -2.4012
55217SOL    HW270463   9.520   9.658   0.773 -2.1464 -0.9182  1.1161
55218SOL     OW70464   4.970   0.243   9.225  0.6026  0.1762  0.0855
55218SOL    HW170465   5.030   0.308   9.263 -0.5562  0.4353  1.5811
55218SOL    HW270466   4.949   0.277   9.138  3.0585 -0.2310 -0.7562
55219SOL     OW70467   6.663   8.717   8.675  0.0750  0.0565  0.4456
55219SOL    HW170468   6.638   8.798   8.632  0.4643  0.3658  0.7943
55219SOL    HW270469   6.595   8.654   8.650  0.6657  0.0309 -1.1663
55220SOL     OW70470   4.124   9.135   0.350  0.4993 -0.4790 -0.1491
55220SOL    HW170471   4.100   9.227   0.363 -1.2344 -0.8892 -0.1819
55220SOL    HW270472   4.045   9.095   0.313  0.8343 -2.2115  0.8975
55221SOL     OW70473   4.203   6.324   8.906 -0.6343 -0.1513  0.0249
55221SOL    HW170474   4.157   6.321   8.990 -0.6223 -0.9126  0.0131
55221SOL    HW270475   4.285   6.370   8.926 -0.7853 -0.0201  0.3533
55222SOL     OW70476   8.758   8.411   8.260  0.1296 -0.0465 -0.1015
55222SOL    HW170477   8.747   8.322   8.226 -1.1721 -1.1764  2.8788
55222SOL    HW270478   8.688   8.461   8.219  2.0109  0.2375 -3.2844
55223SOL     OW70479   6.603   8.498   0.714 -0.2710  0.1413 -0.4080
55223SOL    HW170480   6.663   8.493   0.789  1.5268 -0.3351 -1.8027
55223SOL    HW270481   6.558   8.414   0.714  1.5749 -0.9267 -1.2494
55224SOL     OW70482   3.967   4.483   9.291  0.0845 -0.2896 -0.0462
55224SOL    HW170483   3.966   4.430   9.210  0.2191 -1.2474  0.5606
55224SOL    HW270484   3.947   4.572   9.261  1.7356 -0.2926 -1.3546
55225SOL     OW70485   1.505   5.748   9.129 -0.6052  0.0713 -0.0537
55225SOL    HW170486   1.550   5.822   9.090  2.1543 -0.3646  1.9762
55225SOL    HW270487   1.477   5.779   9.215 -3.4596  0.0025 -0.8701
55226SOL     OW70488   6.462  10.433   8.463 -0.2154 -0.4403  0.0856
55226SOL    HW170489   6.484  10.526   8.460  0.6758 -0.6542 -0.2216
55226SOL    HW270490   6.399  10.421   8.392 -0.0869 -0.1321 -0.0820
55227SOL     OW70491  10.327   1.568  11.814 -0.3176  0.7186 -0.1111
55227SOL    HW170492  10.257   1.620  11.774 -0.1663  1.3337  0.4026
55227SOL    HW270493  10.387   1.550  11.742  0.0666  2.0070 -0.1439
55228SOL     OW70494  12.044   3.039   0.502  0.3267 -0.0717 -0.1731
55228SOL    HW170495  12.118   2.985   0.476  2.2667  1.3999  1.8923
55228SOL    HW270496  12.056   3.121   0.454  1.3501  0.9743  1.7629
55229SOL     OW70497  11.332  12.050   4.753  0.0524 -0.0489 -0.0815
55229SOL    HW170498  11.269  12.033   4.683  2.6640 -0.5371 -2.4497
55229SOL    HW270499  11.392  11.976   4.751  0.9345  0.5447  1.8692
55230SOL     OW70500   8.863   0.129   7.287 -0.4984  0.1257  0.4667
55230SOL    HW170501   8.864   0.138   7.382  2.0167 -5.9343  1.5066
55230SOL    HW270502   8.783   0.080   7.268 -0.6565  0.7324 -0.5340
55231SOL     OW70503   6.618   6.594   9.191 -0.2707 -0.3668  0.0671
55231SOL    HW170504   6.636   6.680   9.153  1.8611 -1.2897 -1.1460
55231SOL    HW270505   6.571   6.614   9.272 -2.0119  1.8059 -1.3502
55232SOL     OW70506   0.769  10.251  10.449  0.1083 -0.5561 -0.4473
55232SOL    HW170507   0.674  10.245  10.443  0.1332 -3.5776  0.1435
55232SOL    HW270508   0.789  10.344  10.444 -2.8797  0.1683 -0.3397
55233SOL     OW70509  12.401   7.336   2.247 -0.7965 -0.2932 -0.0875
55233SOL    HW170510  12.437   7.261   2.199  0.4026  0.7438 -0.8698
55233SOL    HW270511  12.393   7.305   2.337  2.0493 -0.6549  0.1520
55234SOL     OW70512   4.747   3.729   1.663  0.6213  0.1938 -0.3303
55234SOL    HW170513   4.753   3.814   1.619  0.3913 -0.2136 -1.1732
55234SOL    HW270514   4.677   3.740   1.727 -0.4865  0.1939 -1.5057
55235SOL     OW70515  10.575  11.701  10.313 -0.1361  0.1329 -0.2416
55235SOL    HW170516  10.667  11.673  10.311 -0.0458 -0.3794  3.6283
55235SOL    HW270517  10.527  11.622  10.335 -1.2909  0.8226 -0.2366
55236SOL     OW70518   4.043   2.745   9.156 -0.3853 -0.1601  0.0855
55236SOL    HW170519   3.991   2.676   9.115 -0.6176 -1.3682  2.2277
55236SOL    HW270520   4.045   2.816   9.092 -2.8380 -0.9054 -0.9373
55237SOL     OW70521   8.916   3.298   2.406 -0.3348  0.5087  0.4873
55237SOL    HW170522   8.832   3.342   2.393 -0.7085 -0.4338 -0.5285
55237SOL    HW270523   8.980   3.353   2.362 -0.6747  0.4560 -0.0861
55238SOL     OW70524   3.591  10.962   9.060 -0.1040  0.0325 -0.1606
55238SOL    HW170525   3.679  10.955   9.097  0.4927  2.0787 -1.0210
55238SOL    HW270526   3.545  11.021   9.119 -1.6685 -2.6401  1.4666
55239SOL     OW70527   3.739   7.400  10.919  0.0325  0.0067  0.5731
55239SOL    HW170528   3.654   7.364  10.892  0.1240  0.0721  0.1995
55239SOL    HW270529   3.803   7.353  10.865  0.5576 -2.4280  3.0712
55240SOL     OW70530   4.952   7.501   9.894  0.5706 -0.1989  0.1104
55240SOL    HW170531   5.005   7.438   9.845 -1.3588 -0.6355 -1.5360
55240SOL    HW270532   4.947   7.577   9.837 -2.1619 -0.9103 -0.7554
55241SOL     OW70533   4.830   5.973   3.631 -0.0520 -0.2769 -0.0008
55241SOL    HW170534   4.736   5.980   3.613 -0.1319  0.3991  0.6466
55241SOL    HW270535   4.859   5.900   3.576 -1.2771 -1.5879  1.0053
55242SOL     OW70536   8.311   3.865   4.365  0.1120  0.0642  0.0452
55242SOL    HW170537   8.371   3.828   4.429 -1.3511  0.4832  1.7373
55242SOL    HW270538   8.224   3.841   4.396 -0.6959  1.1351 -1.2442
55243SOL     OW70539   3.060  11.430   9.218 -0.2487 -0.1741  0.3670
55243SOL    HW170540   3.065  11.498   9.285 -2.7451  0.4100  0.0531
55243SOL    HW270541   3.085  11.350   9.264  1.2764  0.6879  1.1272
55244SOL     OW70542  10.436  11.661   7.538  0.2020  0.0838  0.3761
55244SOL    HW170543  10.363  11.662   7.600  0.2816  0.3326  0.4714
55244SOL    HW270544  10.419  11.587   7.480 -0.9298  1.0553 -0.5716
55245SOL     OW70545  10.128   1.739   6.089  0.1721  0.2249 -0.2465
55245SOL    HW170546  10.172   1.662   6.053 -0.5122  0.0174 -0.6589
55245SOL    HW270547  10.063   1.762   6.022  0.0263  0.8459  0.1112
55246SOL     OW70548   6.570   0.989   6.407  0.1649 -0.0803 -0.0093
55246SOL    HW170549   6.561   0.973   6.501  0.4754 -0.2185  0.0012
55246SOL    HW270550   6.483   0.973   6.371  0.3740 -1.5506  0.0496
55247SOL     OW70551   3.693   0.990   5.152 -0.2578  0.2032  0.1752
55247SOL    HW170552   3.646   1.000   5.069  1.2831  1.6871 -0.5698
55247SOL    HW270553   3.727   1.077   5.172  0.4605 -0.3892  1.7468
55248SOL     OW70554   9.924   1.491   1.465  0.2054  0.3218 -0.2626
55248SOL    HW170555   9.851   1.521   1.519 -0.3058  0.2534 -0.8978
55248SOL    HW270556   9.996   1.480   1.526 -0.3909  0.1424  0.4245
55249SOL     OW70557   3.254  10.805   4.310 -0.5558  0.6334  0.5406
55249SOL    HW170558   3.172  10.776   4.350 -0.2312 -0.2667  0.5679
55249SOL    HW270559   3.235  10.894   4.279 -0.8549  1.2870  2.5012
55250SOL     OW70560   6.518   1.364   9.630  0.7053  0.2085  0.7240
55250SOL    HW170561   6.574   1.298   9.672  0.7832 -1.4933 -1.8126
55250SOL    HW270562   6.577   1.415   9.576  0.2050  0.2972  0.2524
55251SOL     OW70563   1.529  11.087   1.744  0.1875  0.8399 -0.3394
55251SOL    HW170564   1.586  11.130   1.808 -0.7910  1.0422  0.4208
55251SOL    HW270565   1.479  11.158   1.704 -0.5970  0.5325  0.0785
55252SOL     OW70566   2.397   1.279   9.512  0.5362  0.0556  0.3529
55252SOL    HW170567   2.318   1.266   9.565 -0.3648  0.4420 -0.8534
55252SOL    HW270568   2.468   1.242   9.565 -0.5136 -0.7041  1.2733
55253SOL     OW70569  11.450   4.137   5.911 -0.1784 -0.4229 -0.1432
55253SOL    HW170570  11.474   4.202   5.845 -2.4614 -0.4116 -1.0771
55253SOL    HW270571  11.387   4.183   5.967  0.6212 -0.8882  1.1631
55254SOL     OW70572  10.361   4.377   7.116 -0.3027 -0.0028  0.7213
55254SOL    HW170573  10.290   4.317   7.097  0.0680 -1.5319  3.5196
55254SOL    HW270574  10.426   4.323   7.162  0.5600  2.2604  2.3754
55255SOL     OW70575   0.307  10.719   9.991  0.2382  0.1264 -0.8098
55255SOL    HW170576   0.401  10.735   9.989  0.4533 -0.7943  0.6215
55255SOL    HW270577   0.298  10.628  10.021 -1.0870 -0.2584 -2.2203
55256SOL     OW70578   0.317   3.493   9.639  0.1765 -0.3935 -0.4075
55256SOL    HW170579   0.275   3.528   9.718  0.4828 -1.4013  0.2305
55256SOL    HW270580   0.262   3.523   9.567  1.4933  3.0610 -0.1500
55257SOL     OW70581   8.057   6.896   2.018 -0.5817  0.5609 -0.3379
55257SOL    HW170582   8.144   6.915   1.983 -1.4065  0.4567 -2.6572
55257SOL    HW270583   8.069   6.820   2.074  0.5893 -0.5274 -1.9687
55258SOL     OW70584   9.631   2.589   7.904  0.4869 -0.0429 -0.1749
55258SOL    HW170585   9.566   2.639   7.854  0.7112 -1.1371 -1.6231
55258SOL    HW270586   9.656   2.648   7.976 -2.0915  0.4206  0.4713
55259SOL     OW70587   1.317   6.503   5.182 -0.1457 -0.0334  0.2434
55259SOL    HW170588   1.344   6.440   5.250 -0.3044  0.2169  0.5399
55259SOL    HW270589   1.325   6.589   5.225 -1.1490  0.0660  0.2448
55260SOL     OW70590   7.586   0.134  12.058  0.4819 -0.2736 -0.3971
55260SOL    HW170591   7.660   0.073  12.065 -0.5189 -1.4736  0.2505
55260SOL    HW270592   7.511   0.083  12.088 -0.1648  1.7783  1.7509
55261SOL     OW70593   1.494   2.105  11.685  0.1953 -0.4809 -0.0407
55261SOL    HW170594   1.491   2.061  11.600 -1.9169  0.2322 -0.3939
55261SOL    HW270595   1.514   2.197  11.664 -2.1442  0.1068 -0.0376
55262SOL     OW70596   8.328   6.183   9.348  0.2815 -0.0265  0.2051
55262SOL    HW170597   8.405   6.211   9.398  0.7629  0.9630 -1.0174
55262SOL    HW270598   8.279   6.128   9.408  1.2136  0.4966  1.4973
55263SOL     OW70599   8.566   3.193   8.215 -0.4362 -0.2369  1.0277
55263SOL    HW170600   8.566   3.108   8.260  1.2730 -1.1581 -0.5596
55263SOL    HW270601   8.633   3.184   8.147 -1.4409  1.7906 -0.3442
55264SOL     OW70602   8.293   2.417  10.969  0.2762 -0.7128  0.1003
55264SOL    HW170603   8.238   2.492  10.947  0.4660  0.0224  2.0094
55264SOL    HW270604   8.326   2.436  11.056  2.7568 -1.6047 -0.5688
55265SOL     OW70605  10.768   1.276  10.591  0.1011 -0.3753 -0.2441
55265SOL    HW170606  10.772   1.264  10.496  1.2402 -0.5702 -0.1884
55265SOL    HW270607  10.786   1.189  10.627 -1.4136 -0.5478  0.1701
55266SOL     OW70608   3.929   7.683   6.288 -0.1668  0.1733 -0.2774
55266SOL    HW170609   3.909   7.700   6.196 -0.9262 -0.4021 -0.2272
55266SOL    HW270610   3.988   7.607   6.286  0.0223  0.3176 -0.2926
55267SOL     OW70611   4.867   6.492   4.324  0.1450 -0.0653 -0.1253
55267SOL    HW170612   4.807   6.565   4.340  0.7463  0.2330  0.9077
55267SOL    HW270613   4.810   6.417   4.308 -0.4902  0.7349 -1.8049
55268SOL     OW70614   7.333  12.193  10.640  0.1866 -0.1190  0.0570
55268SOL    HW170615   7.359  12.106  10.672 -1.8316 -0.0538  2.1282
55268SOL    HW270616   7.237  12.192  10.644  0.1195  2.1414 -0.0723
55269SOL     OW70617  10.296  12.437   9.897 -0.3691 -0.1597 -0.0006
55269SOL    HW170618  10.202  12.420   9.902 -0.1998 -1.1626 -0.1330
55269SOL    HW270619  10.317  12.425   9.804  0.1119 -1.1636  0.2281
55270SOL     OW70620   8.547   7.383   6.159  0.6518 -0.3576  0.5001
55270SOL    HW170621   8.600   7.416   6.232  0.0833 -0.0319  0.7679
55270SOL    HW270622   8.534   7.290   6.179  0.0476 -0.1555  1.0989
55271SOL     OW70623  10.709  11.014  10.980 -0.5053  0.1061  0.3033
55271SOL    HW170624  10.630  10.990  11.029 -0.1097 -0.3393  0.7260
55271SOL    HW270625  10.702  11.109  10.969 -0.4640  0.2601  1.4792
55272SOL     OW70626   0.354   0.380   2.715 -0.0858  0.2931 -0.2847
55272SOL    HW170627   0.439   0.409   2.749 -0.2547  0.4954 -0.0331
55272SOL    HW270628   0.333   0.441   2.645  0.5075 -0.4310 -1.1231
55273SOL     OW70629   0.049  10.103  10.956 -0.2441  0.4887  0.0263
55273SOL    HW170630   0.046  10.180  10.900 -0.2691 -1.2059 -2.5120
55273SOL    HW270631  -0.043  10.082  10.973 -0.2270  1.2442  1.0825
55274SOL     OW70632   2.229   0.833   5.099 -0.3805  0.7092  0.6745
55274SOL    HW170633   2.163   0.825   5.167 -0.2568  1.1720  0.8552
55274SOL    HW270634   2.193   0.898   5.038  0.1164  1.3224  1.0272
55275SOL     OW70635   9.687   8.140   7.582 -0.5563  0.1351 -0.7504
55275SOL    HW170636   9.630   8.208   7.618  2.2607  1.5316  1.5755
55275SOL    HW270637   9.710   8.171   7.495 -0.6997  1.2667 -0.3960
55276SOL     OW70638   0.221  11.495   2.690  0.3205 -0.3887  0.0676
55276SOL    HW170639   0.147  11.548   2.720 -0.0203 -0.7731 -0.0878
55276SOL    HW270640   0.216  11.415   2.742  0.6709 -0.3887  0.1055
55277SOL     OW70641  11.267   3.153   5.262  0.4623  0.2964 -0.0935
55277SOL    HW170642  11.321   3.206   5.204  1.1958 -1.1062 -0.7380
55277SOL    HW270643  11.293   3.179   5.351  2.1987 -0.3306 -0.3922
55278SOL     OW70644   7.777   5.803   2.350 -0.0293 -0.6392 -0.3072
55278SOL    HW170645   7.850   5.763   2.303  0.3760 -0.2451 -0.0247
55278SOL    HW270646   7.706   5.807   2.286  0.4373 -0.3414 -0.8092
55279SOL     OW70647   7.835  10.475   4.054 -0.1469  0.1825  0.5317
55279SOL    HW170648   7.930  10.478   4.065  0.2529 -1.1205 -1.9216
55279SOL    HW270649   7.821  10.461   3.960 -2.7135 -1.7097  1.0745
55280SOL     OW70650   4.175   7.906   7.632  0.3478  0.0937  0.2562
55280SOL    HW170651   4.130   7.868   7.557  0.3761 -0.4726  0.5157
55280SOL    HW270652   4.242   7.841   7.655 -0.8024 -0.5972  1.8517
55281SOL     OW70653   1.899  10.804   9.311  0.9031  0.1434  0.0304
55281SOL    HW170654   1.861  10.831   9.395 -1.3365 -0.9016 -0.5823
55281SOL    HW270655   1.824  10.785   9.255  2.3306 -1.5626 -1.4351
55282SOL     OW70656  10.932   1.062   6.110 -0.3121  0.1899  0.5173
55282SOL    HW170657  10.958   1.124   6.042 -2.0713  1.6814  1.1181
55282SOL    HW270658  10.964   1.101   6.192 -0.2129 -0.4221  0.7766
55283SOL     OW70659  12.233   5.903   5.901 -0.1160  0.1852  0.0085
55283SOL    HW170660  12.245   5.825   5.847  1.3185  1.2250 -1.2779
55283SOL    HW270661  12.299   5.895   5.970 -1.5705 -0.8642  1.3391
55284SOL     OW70662   1.109   8.480   0.921 -0.4543 -0.0989  0.0752
55284SOL    HW170663   1.184   8.424   0.943 -0.9109 -0.8496 -0.2177
55284SOL    HW270664   1.067   8.435   0.848 -0.0350  1.3635 -1.1201
55285SOL     OW70665   5.274   1.734  11.036 -0.3766 -0.3333  0.2143
55285SOL    HW170666   5.343   1.676  11.068  0.3561  0.0228 -0.6639
55285SOL    HW270667   5.266   1.713  10.943 -0.1608  0.8974 -0.1043
55286SOL     OW70668   5.847   3.337  10.041 -0.1005  0.2499 -0.7331
55286SOL    HW170669   5.776   3.329   9.977 -0.0161  1.6843 -1.0401
55286SOL    HW270670   5.803   3.355  10.124 -0.1085  1.2301 -0.9409
55287SOL     OW70671   5.276   2.891   9.502  0.4553 -0.0248 -0.2490
55287SOL    HW170672   5.345   2.824   9.501  0.2294 -0.3132 -2.2937
55287SOL    HW270673   5.255   2.903   9.409 -1.5143  0.8269  0.2787
55288SOL     OW70674  12.287   9.219   9.454  0.6802 -0.1933 -0.1845
55288SOL    HW170675  12.221   9.283   9.425  1.5763  0.7370 -0.2209
55288SOL    HW270676  12.312   9.248   9.541  2.1159  0.3686 -0.7475
55289SOL     OW70677   9.549   2.960  10.268  0.8366  0.0023 -0.0821
55289SOL    HW170678   9.484   2.892  10.250  0.4199  0.4440 -0.2703
55289SOL    HW270679   9.594   2.930  10.347  0.9263 -0.6828 -0.3861
55290SOL     OW70680  11.573   6.414   9.964 -0.0951 -0.1347 -0.5463
55290SOL    HW170681  11.547   6.398   9.873 -1.2060 -0.9963 -0.1050
55290SOL    HW270682  11.507   6.368  10.016 -1.7780  3.4156  0.8193
55291SOL     OW70683  10.608   6.058  10.242  0.7710 -0.5387  0.3482
55291SOL    HW170684  10.571   5.983  10.196  1.1078 -0.2782 -0.3634
55291SOL    HW270685  10.688   6.024  10.283  0.1318 -0.9316  1.3145
55292SOL     OW70686   8.145  11.854   3.997 -0.0524  0.5201  0.3892
55292SOL    HW170687   8.222  11.814   3.958 -0.9411 -1.6443  0.7225
55292SOL    HW270688   8.145  11.944   3.963  1.2577 -0.1366 -1.5185
55293SOL     OW70689   7.180   6.911   7.106  0.9059  0.0293 -0.3205
55293SOL    HW170690   7.116   6.877   7.042 -1.0643  0.0262  1.5461
55293SOL    HW270691   7.154   7.002   7.120 -0.2810 -0.6073  2.2014
55294SOL     OW70692   8.934   1.395  11.001 -0.0320  0.0286 -0.7390
55294SOL    HW170693   8.900   1.474  10.958 -1.5216 -0.1304  0.0967
55294SOL    HW270694   8.878   1.325  10.969 -0.3528 -0.2823  0.4905
55295SOL     OW70695   5.666   4.459   4.900 -0.7082  0.1974 -0.2206
55295SOL    HW170696   5.749   4.412   4.890  0.0151  1.1134  1.1509
55295SOL    HW270697   5.600   4.400   4.863  0.3238 -1.3699  0.3456
55296SOL     OW70698   7.540   4.155  11.289 -0.2761 -0.7630  0.5795
55296SOL    HW170699   7.454   4.171  11.328 -0.6513  2.2060 -1.2161
55296SOL    HW270700   7.595   4.226  11.321  0.8477 -1.2440 -0.2249
55297SOL     OW70701   0.633   7.581   8.660  0.7969 -0.1568  0.6451
55297SOL    HW170702   0.584   7.541   8.588 -0.9736 -0.9868  2.2232
55297SOL    HW270703   0.568   7.593   8.730  2.0225  2.3710  1.4809
55298SOL     OW70704   9.845  12.474   7.385  0.1982  0.0444 -0.3024
55298SOL    HW170705   9.785  12.427   7.328 -0.4770  1.1574 -0.5414
55298SOL    HW270706   9.805  12.560   7.398  0.6390  0.0519  1.3440
55299SOL     OW70707  10.455   9.853   7.849 -0.4134 -0.3701  0.4412
55299SOL    HW170708  10.386   9.905   7.890  0.4047  1.2668 -0.2082
55299SOL    HW270709  10.424   9.838   7.759  0.7462  1.7884 -0.3816
55300SOL     OW70710   6.969   7.250  12.415  0.0266 -0.3531  0.4431
55300SOL    HW170711   7.004   7.332  12.379 -1.7908  0.3842  0.2708
55300SOL    HW270712   6.976   7.262  12.510  0.1416 -0.1713  0.4136
55301SOL     OW70713  12.304  12.396  11.610 -0.2946 -0.0782 -0.1224
55301SOL    HW170714  12.357  12.317  11.624 -0.2604 -0.1794 -0.8271
55301SOL    HW270715  12.348  12.443  11.540 -0.8206  0.1142 -0.3294
55302SOL     OW70716   5.431   1.013   2.162 -0.8590 -0.4688  1.0234
55302SOL    HW170717   5.383   1.096   2.166  0.5305  0.3247  2.2177
55302SOL    HW270718   5.512   1.033   2.117 -0.6477 -1.2556  1.0338
55303SOL     OW70719   8.791   1.846  11.539  0.2948  0.3142 -0.0753
55303SOL    HW170720   8.718   1.785  11.550  1.1818 -1.2810 -2.2845
55303SOL    HW270721   8.751   1.926  11.504 -0.4473 -0.4842 -1.1086
55304SOL     OW70722  10.812  10.567   2.080  0.2403 -0.1956  0.1229
55304SOL    HW170723  10.743  10.553   2.015 -0.7338  1.2259  0.8042
55304SOL    HW270724  10.848  10.480   2.095 -0.2943 -0.7246 -1.4515
55305SOL     OW70725   9.940   0.456   1.952  0.5349  0.1403  0.0597
55305SOL    HW170726   9.864   0.442   1.895  1.3596  0.9606 -1.2898
55305SOL    HW270727   9.903   0.467   2.039 -1.0146  1.8011 -0.7565
55306SOL     OW70728   7.652   2.350   3.841  0.1006  0.6203  0.0908
55306SOL    HW170729   7.693   2.273   3.880  0.4102  0.3254 -0.7945
55306SOL    HW270730   7.644   2.412   3.914 -0.7994 -0.4857  0.9796
55307SOL     OW70731  11.615  11.390  12.482 -0.3074  0.1142  0.4640
55307SOL    HW170732  11.644  11.465  12.535  0.4649 -0.6910  1.2207
55307SOL    HW270733  11.540  11.355  12.530 -1.3018  0.9724 -0.4156
55308SOL     OW70734   1.675   5.363   7.660  0.6528  0.2578  1.0444
55308SOL    HW170735   1.590   5.332   7.628 -0.3643  2.7796  1.1234
55308SOL    HW270736   1.667   5.361   7.756  0.0380  2.0329  1.0558
55309SOL     OW70737   9.393   7.056  10.610 -0.0033 -0.4876  0.3145
55309SOL    HW170738   9.447   6.984  10.642 -1.0654 -1.4612 -0.0251
55309SOL    HW270739   9.395   7.121  10.681 -0.2500 -1.5060  1.2769
55310SOL     OW70740   1.038   4.246   0.415  0.2174 -0.2005 -0.6292
55310SOL    HW170741   1.073   4.208   0.496 -0.2823  1.3394  0.3501
55310SOL    HW270742   0.969   4.305   0.444 -0.3260  0.0127 -2.2410
55311SOL     OW70743  12.248   0.288   6.464 -0.1415  0.0482 -0.2485
55311SOL    HW170744  12.310   0.348   6.505  0.9668 -0.6607 -0.8078
55311SOL    HW270745  12.236   0.218   6.529 -0.6865  0.3914  0.0238
55312SOL     OW70746   2.549   5.752   4.635 -0.3056  0.0615  0.0176
55312SOL    HW170747   2.513   5.779   4.551 -1.2712  0.3016  0.4901
55312SOL    HW270748   2.472   5.725   4.686  0.3545 -0.8684  0.5352
55313SOL     OW70749   8.226   4.899  12.277  1.1617 -0.2703  0.0355
55313SOL    HW170750   8.147   4.866  12.319  0.2955  0.6567 -0.7880
55313SOL    HW270751   8.288   4.826  12.280 -0.3358 -1.6389 -0.8862
55314SOL     OW70752   9.442  11.812   8.552  0.2578  0.5693  0.2832
55314SOL    HW170753   9.459  11.782   8.641 -0.6232 -1.3191 -0.1423
55314SOL    HW270754   9.528  11.812   8.509  0.2230 -2.5778 -0.0038
55315SOL     OW70755   1.019   0.542   8.191  0.0483 -0.6986 -0.1731
55315SOL    HW170756   1.076   0.467   8.210 -0.1342 -0.4670  1.5243
55315SOL    HW270757   1.051   0.610   8.251 -0.6399  0.1456 -0.7523
55316SOL     OW70758   5.440   1.534   3.106 -0.3177 -0.0742 -0.1674
55316SOL    HW170759   5.422   1.624   3.134  0.4910 -0.4632  1.7583
55316SOL    HW270760   5.496   1.544   3.029  0.2577  1.0967  0.3696
55317SOL     OW70761   9.978   5.220   7.651  0.3729  0.2174 -0.0056
55317SOL    HW170762   9.987   5.128   7.628  0.7884 -0.0029  1.0033
55317SOL    HW270763   9.910   5.253   7.592  2.4002  0.0577 -2.6028
55318SOL     OW70764   7.154   9.309   0.654 -0.5444  0.0636  0.1926
55318SOL    HW170765   7.140   9.404   0.655 -2.5744 -0.2033  1.7627
55318SOL    HW270766   7.166   9.288   0.561  2.0225  2.0608 -0.0444
55319SOL     OW70767   0.835   7.516   2.236  0.1784 -0.4254  0.1148
55319SOL    HW170768   0.820   7.599   2.281  2.5614 -0.3164  0.8287
55319SOL    HW270769   0.830   7.450   2.304 -0.9755 -0.8290 -0.3308
55320SOL     OW70770   1.204   3.223   3.674 -0.2845 -0.6126 -0.3293
55320SOL    HW170771   1.171   3.255   3.758  1.0469 -0.3283  0.1084
55320SOL    HW270772   1.191   3.128   3.678 -1.4321 -0.4734 -0.3671
55321SOL     OW70773   6.003   4.046  10.786  0.4890 -0.0679 -0.3387
55321SOL    HW170774   6.011   4.135  10.753  1.0447  1.0706  2.5668
55321SOL    HW270775   5.913   4.021  10.765  0.4666  0.9690 -1.6205
55322SOL     OW70776   1.373   8.160   4.430 -0.0667  0.4085  0.1977
55322SOL    HW170777   1.419   8.215   4.493 -0.2230 -0.2732  0.9306
55322SOL    HW270778   1.309   8.112   4.483  0.4823 -0.9356 -0.2961
55323SOL     OW70779  11.518   5.553   7.220  0.0750  0.0131 -0.1440
55323SOL    HW170780  11.450   5.584   7.160 -0.7654 -0.9986  0.2504
55323SOL    HW270781  11.498   5.593   7.304  0.3394  0.2065 -0.1716
55324SOL     OW70782   1.633  10.309   6.115 -0.5406 -0.1951 -1.1485
55324SOL    HW170783   1.709  10.282   6.063  0.5453  1.8936 -0.7415
55324SOL    HW270784   1.647  10.402   6.131 -1.6524 -0.4107  1.5500
55325SOL     OW70785  10.038   9.706   6.400  0.4645 -0.0887 -0.4232
55325SOL    HW170786  10.051   9.750   6.315 -0.1355  0.5691 -0.1901
55325SOL    HW270787   9.946   9.725   6.422  0.7555  0.1746  0.6044
55326SOL     OW70788   3.609  10.047  11.119 -0.1182 -0.5431  0.4361
55326SOL    HW170789   3.538  10.076  11.061 -0.7299 -1.1226  0.8819
55326SOL    HW270790   3.668  10.122  11.122  2.0169 -1.6927 -3.9580
55327SOL     OW70791   1.315  11.513   6.545 -0.5419  0.3565  0.0162
55327SOL    HW170792   1.269  11.431   6.528 -1.3838  0.5306  1.3027
55327SOL    HW270793   1.257  11.561   6.605  0.6015  1.2584  0.4395
55328SOL     OW70794   9.322   7.577   9.077  0.2114  0.0906  0.4712
55328SOL    HW170795   9.415   7.556   9.080  0.4434  0.9928 -0.0753
55328SOL    HW270796   9.308   7.635   9.152  0.6041  1.8560 -0.7727
55329SOL     OW70797   5.965  11.792   5.613 -0.2769 -0.4048 -0.1870
55329SOL    HW170798   6.018  11.813   5.536 -2.4520  0.3298 -1.5975
55329SOL    HW270799   5.887  11.848   5.604 -0.0226  0.7410  3.3132
55330SOL     OW70800   0.267   4.356   2.950  0.0475 -0.1646 -0.6333
55330SOL    HW170801   0.238   4.306   3.027 -0.6523 -0.1913 -0.9148
55330SOL    HW270802   0.320   4.293   2.900 -0.2019 -0.4021 -0.6040
55331SOL     OW70803   1.423   2.428  11.740 -0.0976 -0.1434 -0.0545
55331SOL    HW170804   1.396   2.429  11.648  0.1780  0.9766 -0.1358
55331SOL    HW270805   1.347   2.459  11.788  0.0111  0.0255  0.0112
55332SOL     OW70806   5.722   9.902   5.532  0.2146 -0.4383 -0.4781
55332SOL    HW170807   5.795   9.875   5.587  0.1396  0.6834  0.2161
55332SOL    HW270808   5.761   9.957   5.464  0.1947 -1.0826 -1.0177
55333SOL     OW70809   6.437   8.417  10.434  0.6407 -0.0437 -0.4744
55333SOL    HW170810   6.515   8.429  10.488  0.3577 -2.1827  0.4945
55333SOL    HW270811   6.366   8.457  10.484  0.8898  0.8039 -0.7821
55334SOL     OW70812  10.339   5.011   1.050  0.8096 -0.1034  0.2802
55334SOL    HW170813  10.395   4.977   1.120  1.6309 -0.6913 -0.6306
55334SOL    HW270814  10.390   4.998   0.970 -0.3852 -0.0855 -0.5125
55335SOL     OW70815   2.146   9.076   9.133 -0.1248 -0.1342  0.5280
55335SOL    HW170816   2.076   9.100   9.193 -1.3546  0.4203 -1.0567
55335SOL    HW270817   2.202   9.153   9.130 -0.6998  0.2736  0.0937
55336SOL     OW70818   8.004   8.901   8.841  0.1421 -0.5263 -0.0516
55336SOL    HW170819   7.954   8.982   8.831 -0.4556 -0.8196  0.5363
55336SOL    HW270820   7.999   8.860   8.754  1.4418  0.6124 -0.6942
55337SOL     OW70821   3.665  10.889   1.682  0.2423  0.1660  0.4352
55337SOL    HW170822   3.753  10.854   1.668  1.0666  2.6543 -1.2147
55337SOL    HW270823   3.675  10.984   1.674 -2.6513  0.5208 -0.0759
55338SOL     OW70824   7.099   2.259   8.851  0.2948  0.4641 -0.3246
55338SOL    HW170825   7.195   2.264   8.845  0.2196  1.1124 -1.2569
55338SOL    HW270826   7.069   2.285   8.764 -0.7938  2.1920  0.5088
55339SOL     OW70827   8.607   3.023   5.582 -0.3662 -0.2904 -0.5461
55339SOL    HW170828   8.568   2.936   5.582 -2.0620  0.4391 -0.3349
55339SOL    HW270829   8.695   3.010   5.618 -1.3405 -1.6129  1.5304
55340SOL     OW70830  11.086   2.009   6.449  0.0172  0.3942 -0.7224
55340SOL    HW170831  11.012   1.989   6.392  0.3836 -0.2767 -0.9758
55340SOL    HW270832  11.071   2.099   6.478 -2.0374 -0.4139  0.9851
55341SOL     OW70833   9.624  11.748  11.656 -0.5066  0.1413 -0.4839
55341SOL    HW170834   9.593  11.694  11.583  0.6257  2.4236 -2.8105
55341SOL    HW270835   9.716  11.765  11.635 -0.0886  0.7387  1.6190
55342SOL     OW70836  12.251   9.215   1.375 -0.0807  0.6526 -0.5460
55342SOL    HW170837  12.225   9.174   1.457  0.5869 -0.4813 -0.8823
55342SOL    HW270838  12.345   9.228   1.383  0.1238 -0.1992 -1.4368
55343SOL     OW70839   7.986   3.094   9.224  0.1714 -0.1250 -0.7559
55343SOL    HW170840   8.067   3.091   9.275 -0.1367  4.6160  0.4411
55343SOL    HW270841   8.015   3.107   9.134  0.6670 -1.6847 -0.8568
55344SOL     OW70842   8.395   3.285   4.279 -0.3970 -0.0560  0.4322
55344SOL    HW170843   8.369   3.279   4.187 -0.6376 -0.5716  0.5268
55344SOL    HW270844   8.356   3.207   4.320  1.7760 -1.2172  0.4631
55345SOL     OW70845   5.962   9.085   4.914 -0.3404  0.3552 -0.0727
55345SOL    HW170846   6.011   9.145   4.971 -1.4319 -0.7628  2.1246
55345SOL    HW270847   5.890   9.053   4.968  0.0860 -2.8323 -1.1870
55346SOL     OW70848  10.087   0.944  10.069  0.1942 -0.3243  0.4128
55346SOL    HW170849  10.001   0.908  10.046 -1.2592  1.6480  2.3365
55346SOL    HW270850  10.095   1.023  10.016 -0.7201  1.2473  2.4625
55347SOL     OW70851   6.580   3.636   7.370 -0.0071  0.2802  0.2201
55347SOL    HW170852   6.538   3.643   7.456 -2.9415  1.2647 -1.1583
55347SOL    HW270853   6.650   3.701   7.372  0.6702 -0.4468  2.1919
55348SOL     OW70854   7.950   7.849   1.163  0.4898 -0.1670  0.4898
55348SOL    HW170855   7.950   7.925   1.220  2.6496  0.4735 -0.2317
55348SOL    HW270856   7.965   7.774   1.221  0.6893  0.2472  0.9751
55349SOL     OW70857  11.415   8.371   3.534 -0.2509 -0.3267 -0.3333
55349SOL    HW170858  11.468   8.400   3.608 -0.3568  0.9416 -0.7401
55349SOL    HW270859  11.400   8.450   3.483  0.5499 -1.3353 -2.1989
55350SOL     OW70860   9.202   2.195   4.584 -0.1433  0.4408  0.0482
55350SOL    HW170861   9.278   2.137   4.585 -0.2607  0.2932  1.1891
55350SOL    HW270862   9.234   2.277   4.547  0.0479 -0.2961 -1.5016
55351SOL     OW70863   6.532   0.742   3.476  0.1204  0.2078  0.3889
55351SOL    HW170864   6.573   0.698   3.402 -0.8401  0.8088 -0.5274
55351SOL    HW270865   6.523   0.833   3.448 -1.5061  0.1690  0.6830
55352SOL     OW70866   5.986   3.353   1.333 -0.0996 -0.0455 -0.1144
55352SOL    HW170867   5.972   3.263   1.363  2.5475 -0.4748  0.0650
55352SOL    HW270868   6.045   3.391   1.398 -0.3976  1.5307 -0.7128
55353SOL     OW70869  11.849   7.593  11.957 -0.3553  0.2052 -0.3785
55353SOL    HW170870  11.872   7.644  12.034 -0.9544 -1.8617  1.2786
55353SOL    HW270871  11.762   7.558  11.976  0.1837 -1.7349 -1.2086
55354SOL     OW70872   9.287  12.142   9.819 -0.2804 -0.3863 -0.5607
55354SOL    HW170873   9.224  12.195   9.868  1.3769  0.5768  0.6327
55354SOL    HW270874   9.261  12.052   9.836 -0.3050 -0.0603  1.4010
55355SOL     OW70875   9.902   0.510   0.684  0.2017 -0.3717 -0.0077
55355SOL    HW170876   9.938   0.561   0.757  0.9280  0.1174 -0.6908
55355SOL    HW270877   9.979   0.482   0.634 -0.2426 -1.4078 -0.1305
55356SOL     OW70878   4.639   2.317   0.178  0.0053  0.6809  0.5603
55356SOL    HW170879   4.690   2.257   0.123 -1.2923 -1.0473  1.1496
55356SOL    HW270880   4.670   2.299   0.267 -0.7744  0.4721  0.7934
55357SOL     OW70881  10.901  11.580   6.362  0.6030 -0.1344  0.1254
55357SOL    HW170882  10.845  11.556   6.436  0.2969 -3.9991 -1.1136
55357SOL    HW270883  10.845  11.635   6.307 -0.9789 -1.3807  0.3914
55358SOL     OW70884  10.270   8.398   1.831  0.4576 -0.1989 -0.0047
55358SOL    HW170885  10.324   8.477   1.825  1.2544 -0.6602  0.8331
55358SOL    HW270886  10.290   8.348   1.753 -0.7643  0.8345 -1.0345
55359SOL     OW70887  11.011   9.253   4.848  0.0498 -0.5121 -0.3472
55359SOL    HW170888  11.079   9.207   4.899 -1.2503 -2.5058 -0.2866
55359SOL    HW270889  10.937   9.192   4.848 -1.4369  1.2315 -1.1543
55360SOL     OW70890   1.570   9.276   1.078  0.2634 -0.4504 -0.7211
55360SOL    HW170891   1.557   9.354   1.024 -1.1842 -0.7030 -0.7960
55360SOL    HW270892   1.665   9.266   1.085  0.5178  1.9856  0.2574
55361SOL     OW70893   0.089   9.370   7.099 -0.7543  0.0472  0.3622
55361SOL    HW170894   0.018   9.378   7.164 -1.1316  0.7208 -0.1192
55361SOL    HW270895   0.146   9.445   7.116 -1.9829  1.4643 -1.4050
55362SOL     OW70896  10.071  12.074   2.004 -0.5173 -0.2182 -0.1049
55362SOL    HW170897  10.064  12.088   2.098 -1.5037 -1.0129 -0.0403
55362SOL    HW270898  10.165  12.069   1.987 -0.2835  0.9983  0.6571
55363SOL     OW70899   1.985  11.829   4.515  0.0650  0.5736 -0.1019
55363SOL    HW170900   2.031  11.860   4.593  1.1947  0.9644 -0.9019
55363SOL    HW270901   2.031  11.870   4.441 -0.4121 -0.4897 -1.0276
55364SOL     OW70902  10.595   0.474  11.641 -0.2244  1.0626 -0.1000
55364SOL    HW170903  10.640   0.395  11.611  0.0509  1.5432 -1.0178
55364SOL    HW270904  10.634   0.544  11.588 -1.1090  1.6784  0.0493
55365SOL     OW70905   9.822   0.036   2.676 -0.4108 -0.3450 -0.2333
55365SOL    HW170906   9.827  -0.059   2.684  0.4283 -0.2265  1.0226
55365SOL    HW270907   9.762   0.062   2.747  0.4534  0.1470  0.3411
55366SOL     OW70908  10.556  11.324   5.453 -0.7174  0.5434  0.6078
55366SOL    HW170909  10.496  11.396   5.435 -1.1311  0.4569  1.6350
55366SOL    HW270910  10.536  11.260   5.385 -1.8144  0.5002  0.9506
55367SOL     OW70911   1.599   9.047   2.288 -0.2051  0.0352 -0.1541
55367SOL    HW170912   1.559   9.121   2.243 -0.2780  0.1495  0.1008
55367SOL    HW270913   1.533   9.017   2.350 -0.6330 -0.9900 -1.0737
55368SOL     OW70914   4.412   1.055   8.423  0.2342 -0.2933  0.6176
55368SOL    HW170915   4.401   0.986   8.488 -1.6374 -0.6158  0.0233
55368SOL    HW270916   4.451   1.012   8.348  0.3077 -0.4058  0.7191
55369SOL     OW70917   2.805   6.234   2.612 -0.3690 -0.4838 -0.3879
55369SOL    HW170918   2.849   6.262   2.693 -0.1369  0.9553 -0.9861
55369SOL    HW270919   2.865   6.171   2.572  1.1265  1.3211 -1.1007
55370SOL     OW70920   4.671   1.407  12.476 -0.2114 -0.4631 -0.4041
55370SOL    HW170921   4.738   1.475  12.470 -0.6028 -0.1314 -1.2442
55370SOL    HW270922   4.704   1.337  12.420  0.5119 -1.2683  0.9880
55371SOL     OW70923   3.242   9.328   6.405 -0.3785  0.1856  0.4131
55371SOL    HW170924   3.203   9.294   6.325 -1.0505  0.1526  0.7503
55371SOL    HW270925   3.301   9.398   6.376 -1.4227  0.8948 -0.0345
55372SOL     OW70926  10.390   0.339   6.194  0.2274  0.4220  0.3960
55372SOL    HW170927  10.366   0.354   6.102 -0.4618  2.0586  0.8024
55372SOL    HW270928  10.483   0.318   6.191  0.1146  0.0023 -0.7178
55373SOL     OW70929   9.584   1.455   8.635 -0.2915  0.4856  0.1291
55373SOL    HW170930   9.631   1.505   8.702 -1.3706  2.7681 -0.7247
55373SOL    HW270931   9.501   1.431   8.676  0.2182 -0.6680  0.5319
55374SOL     OW70932   1.800   4.932   9.709  0.1298  0.2667 -0.3983
55374SOL    HW170933   1.747   4.907   9.634 -0.2801 -1.7285  0.4763
55374SOL    HW270934   1.791   5.027   9.715 -2.7970  0.0923 -0.6970
55375SOL     OW70935  12.512   2.611  12.353 -0.2953  0.3410  0.2452
55375SOL    HW170936  12.515   2.702  12.323  1.6969  0.2374  0.0444
55375SOL    HW270937  12.425   2.580  12.325 -0.0311  1.4100 -1.9744
55376SOL     OW70938   3.265   8.206  10.910 -0.2366  0.3864 -0.5232
55376SOL    HW170939   3.195   8.233  10.850  0.6814  1.2587 -1.2526
55376SOL    HW270940   3.339   8.261  10.885  1.6453 -2.4859 -1.8033
55377SOL     OW70941   5.854   7.100   4.181 -0.4376 -0.0060  0.0617
55377SOL    HW170942   5.791   7.162   4.217  1.3212  1.8365  0.0926
55377SOL    HW270943   5.878   7.044   4.256 -0.0846  0.9731  0.6912
55378SOL     OW70944   3.611   7.579   9.022  0.1829 -0.0950  0.3717
55378SOL    HW170945   3.649   7.638   8.956 -1.0701 -0.8479 -1.0911
55378SOL    HW270946   3.526   7.553   8.984 -0.9738  0.1038  2.6741
55379SOL     OW70947   4.458   4.509   7.052  0.4788  0.5486  0.0143
55379SOL    HW170948   4.368   4.541   7.042  0.1434 -0.4497 -0.3258
55379SOL    HW270949   4.503   4.539   6.973 -0.2879 -1.2404 -1.1664
55380SOL     OW70950   3.951   6.227   5.162 -0.0449  0.1149  0.2572
55380SOL    HW170951   3.895   6.301   5.184 -0.9743 -0.4497 -0.1393
55380SOL    HW270952   3.925   6.202   5.074  0.7734 -0.2242  0.1023
55381SOL     OW70953   2.897  10.478   8.526  0.2422  0.9446 -0.1915
55381SOL    HW170954   2.972  10.505   8.579  0.0514  1.9592 -0.4119
55381SOL    HW270955   2.915  10.514   8.439 -0.0983  0.4556 -0.4680
55382SOL     OW70956   7.491   8.500   8.949 -0.0520 -0.2520  0.2395
55382SOL    HW170957   7.538   8.561   9.006 -1.4119 -0.1401  1.2641
55382SOL    HW270958   7.441   8.556   8.890  2.1891 -0.3262 -1.9323
55383SOL     OW70959   4.258   5.326  10.594  0.2293  0.7022  0.4604
55383SOL    HW170960   4.334   5.276  10.565  0.3326  0.6472  0.8269
55383SOL    HW270961   4.275   5.415  10.565 -0.4759  0.3413 -1.2246
55384SOL     OW70962   6.244   6.213  11.219  0.3214  0.0330 -0.3203
55384SOL    HW170963   6.171   6.171  11.263 -1.7916  0.2444 -3.3117
55384SOL    HW270964   6.290   6.142  11.175 -0.1020  0.2292 -1.1030
55385SOL     OW70965   2.780   2.939   6.419 -0.0249  0.1522  0.5984
55385SOL    HW170966   2.834   2.879   6.471  1.4281 -1.0387 -2.0708
55385SOL    HW270967   2.708   2.885   6.388 -1.9754  1.3330  2.7550
55386SOL     OW70968   7.922   9.310  12.499  0.1651  1.1324 -0.0183
55386SOL    HW170969   7.944   9.256  12.574  0.4734  2.4592  0.8842
55386SOL    HW270970   7.874   9.252  12.440 -0.4438  0.1722  1.3892
55387SOL     OW70971  11.074   6.353   3.898  0.1612 -0.7754  0.1680
55387SOL    HW170972  11.045   6.319   3.814  0.6826  1.3792 -0.9636
55387SOL    HW270973  11.164   6.382   3.882  0.5261 -0.9793  1.6855
55388SOL     OW70974   6.872  11.296  12.568 -0.5266  0.1971 -0.5522
55388SOL    HW170975   6.842  11.259  12.485  1.9726 -1.6290 -0.7879
55388SOL    HW270976   6.853  11.227  12.633  1.9482 -0.6073 -0.5565
55389SOL     OW70977   6.876   1.214   4.419 -0.1410 -0.1387 -0.2096
55389SOL    HW170978   6.783   1.230   4.436 -0.2871 -1.4737  0.3598
55389SOL    HW270979   6.914   1.302   4.410 -1.5728  0.4182 -1.1869
55390SOL     OW70980   6.466   3.250   3.850 -0.2635 -0.2703  0.4233
55390SOL    HW170981   6.438   3.159   3.847  0.6905 -0.6376  1.6729
55390SOL    HW270982   6.558   3.248   3.823 -0.5188  0.4736 -0.5498
55391SOL     OW70983   7.893   2.491   2.151  0.0751  0.5181 -0.6237
55391SOL    HW170984   7.865   2.577   2.183 -0.2790  0.2140 -0.0984
55391SOL    HW270985   7.988   2.493   2.155  0.0304  0.3805  0.7649
55392SOL     OW70986   8.819   0.943   7.532 -0.6744  0.2499 -0.1124
55392SOL    HW170987   8.781   0.994   7.604 -1.4988  1.5520 -1.4100
55392SOL    HW270988   8.887   1.000   7.496 -1.1075  0.1566 -1.1234
55393SOL     OW70989  11.632   9.521   9.771  0.4101  0.8189 -0.1357
55393SOL    HW170990  11.586   9.439   9.790  1.1711 -0.0266 -1.6901
55393SOL    HW270991  11.567   9.576   9.728 -0.4680  1.5936  2.0175
55394SOL     OW70992   3.346  12.181   1.372 -0.5382 -0.3036 -0.6182
55394SOL    HW170993   3.292  12.109   1.402 -0.6321 -0.7197 -1.7259
55394SOL    HW270994   3.436  12.149   1.381 -0.5844 -0.6370 -1.2518
55395SOL     OW70995  10.421  10.762   4.223  0.2755  0.3778 -0.0747
55395SOL    HW170996  10.488  10.714   4.272 -1.1942 -0.4677  1.2242
55395SOL    HW270997  10.444  10.748   4.132  1.6237 -0.2322  0.3259
55396SOL     OW70998   1.878   9.264   8.644 -0.2066  0.1248 -0.1547
55396SOL    HW170999   1.942   9.228   8.705 -0.2159 -1.2774 -0.9149
55396SOL    HW271000   1.822   9.189   8.621 -0.5274  0.7300 -1.4504
55397SOL     OW71001   1.652  10.202   0.788 -0.4201 -0.1718 -0.2260
55397SOL    HW171002   1.691  10.140   0.726  0.6362  1.2556 -1.0693
55397SOL    HW271003   1.705  10.193   0.867  1.6111  1.5697 -1.2802
55398SOL     OW71004   9.719   2.712   1.206  0.5982 -0.0991 -0.1049
55398SOL    HW171005   9.801   2.686   1.247  1.3377  2.0513 -0.0611
55398SOL    HW271006   9.670   2.631   1.195  3.0551 -1.5576 -0.9043
55399SOL     OW71007   3.366  11.923   9.606 -0.3598  0.0738 -0.5072
55399SOL    HW171008   3.355  11.950   9.697 -2.6224  1.4569 -1.0936
55399SOL    HW271009   3.402  12.000   9.562 -0.9746  0.0414 -1.0892
55400SOL     OW71010   4.290   6.149   2.266 -0.6815 -0.3496  0.9456
55400SOL    HW171011   4.352   6.200   2.214 -3.2077  0.7971 -1.1615
55400SOL    HW271012   4.328   6.148   2.354  1.5387  1.5592  0.1143
55401SOL     OW71013  11.937  12.149   0.680 -0.2816  0.1358  0.0798
55401SOL    HW171014  11.989  12.076   0.644  1.1323  2.4825 -3.1660
55401SOL    HW271015  12.003  12.208   0.718 -1.1168  0.8282  0.4753
55402SOL     OW71016   2.415  10.502   6.858  0.6619 -0.2052  0.0638
55402SOL    HW171017   2.469  10.437   6.814  0.0558 -1.4516  1.1034
55402SOL    HW271018   2.477  10.554   6.909  0.8733 -2.2068  1.9813
55403SOL     OW71019   7.352   2.206   8.019 -0.1949  0.4763  0.4892
55403SOL    HW171020   7.432   2.246   8.053  0.2028 -0.2509  0.4339
55403SOL    HW271021   7.289   2.277   8.017  0.6779  1.2645 -0.2197
55404SOL     OW71022   2.723   9.038   8.473  0.5609  0.0184 -0.6285
55404SOL    HW171023   2.673   9.077   8.402 -0.4617 -0.3761 -0.1541
55404SOL    HW271024   2.803   9.007   8.432 -0.1537 -0.4992 -1.6906
55405SOL     OW71025   1.232   0.727   0.807 -0.2387  0.2534 -0.2153
55405SOL    HW171026   1.196   0.805   0.764  0.9300 -0.1835 -2.1185
55405SOL    HW271027   1.157   0.686   0.850 -1.0711  1.8452 -0.0810
55406SOL     OW71028   9.628   0.794   4.897  0.2700 -0.8566 -0.2322
55406SOL    HW171029   9.540   0.760   4.885 -0.3954  0.2611  1.1161
55406SOL    HW271030   9.677   0.721   4.935 -0.6300 -0.9173  0.8817
55407SOL     OW71031  10.727   4.884   0.143  0.3131  0.3086  0.1998
55407SOL    HW171032  10.714   4.955   0.206  1.2023  0.6011  0.0659
55407SOL    HW271033  10.812   4.902   0.104  1.4433 -1.8398  1.5037
55408SOL     OW71034   3.223   9.514   0.542  0.3228 -0.1378 -0.0907
55408SOL    HW171035   3.296   9.571   0.516  0.0512 -0.1458 -0.8992
55408SOL    HW271036   3.243   9.430   0.502 -1.0184  0.3375 -1.9313
55409SOL     OW71037   5.511   8.839   4.882 -0.2777  0.0853 -0.1187
55409SOL    HW171038   5.518   8.914   4.822 -1.0501  0.5369  0.3288
55409SOL    HW271039   5.600   8.803   4.886  0.5801  2.1412  1.1189
55410SOL     OW71040   3.857   0.725   5.766 -0.0486  0.1933  0.1537
55410SOL    HW171041   3.916   0.752   5.695  0.8739  1.5889  1.3846
55410SOL    HW271042   3.802   0.801   5.781 -1.8008 -0.8779 -0.5336
55411SOL     OW71043   6.574   2.422   4.603  0.7620 -0.1730  0.4759
55411SOL    HW171044   6.654   2.400   4.556 -0.0362 -1.2929 -0.4118
55411SOL    HW271045   6.507   2.431   4.535 -0.1298 -0.4702  1.2759
55412SOL     OW71046   4.471   0.274  11.580 -0.2786 -0.2059 -0.0486
55412SOL    HW171047   4.491   0.275  11.673  0.7320 -0.7025 -0.2338
55412SOL    HW271048   4.544   0.322  11.540 -1.2290  0.8924 -0.5037
55413SOL     OW71049   4.499   2.246   4.752  0.1029 -0.0583  0.1636
55413SOL    HW171050   4.450   2.235   4.834 -0.0104 -0.9317 -0.0142
55413SOL    HW271051   4.529   2.158   4.730 -1.3239 -0.1549 -1.6201
55414SOL     OW71052  12.203  10.433   2.291 -0.4999 -0.2569  0.3730
55414SOL    HW171053  12.177  10.519   2.261  0.0201  0.1090  0.9340
55414SOL    HW271054  12.141  10.373   2.251 -1.1844  0.4279  0.3985
55415SOL     OW71055   9.826   0.638  11.815 -0.1141  0.4498  0.5024
55415SOL    HW171056   9.768   0.699  11.770 -0.0159  0.4453  0.3685
55415SOL    HW271057   9.820   0.663  11.907 -0.9265 -0.0523  0.5906
55416SOL     OW71058  10.379   5.758   1.911 -0.0275 -0.1464  0.6139
55416SOL    HW171059  10.384   5.709   1.829  0.2403 -1.1532  1.2116
55416SOL    HW271060  10.290   5.792   1.914  0.2458  0.7492 -0.5468
55417SOL     OW71061   7.323   0.857   7.486  0.1139 -0.1434  0.2057
55417SOL    HW171062   7.294   0.792   7.550  0.4231 -2.3387 -1.7578
55417SOL    HW271063   7.413   0.833   7.466 -0.8283 -1.3488 -3.0781
55418SOL     OW71064   4.128   6.945  12.345  0.1090  0.0559 -0.0638
55418SOL    HW171065   4.204   7.000  12.329  0.1766 -0.1108 -0.3243
55418SOL    HW271066   4.152   6.859  12.309 -0.3276  0.0935 -0.4540
55419SOL     OW71067   3.291   2.031   1.636  0.4773  0.0073 -0.0620
55419SOL    HW171068   3.308   2.114   1.679 -0.8054  0.7186 -0.8803
55419SOL    HW271069   3.265   2.054   1.547 -0.3634 -1.2382 -0.1661
55420SOL     OW71070  10.858   0.317   3.941  0.7399 -0.3775 -0.3525
55420SOL    HW171071  10.779   0.353   3.979  0.7830 -2.1359  1.6342
55420SOL    HW271072  10.912   0.393   3.919  0.1421  0.8342  2.0172
55421SOL     OW71073   7.153   5.417   8.467  0.2441 -0.0303  0.4703
55421SOL    HW171074   7.070   5.434   8.422  1.3945  2.6932 -0.8375
55421SOL    HW271075   7.141   5.456   8.553  0.5765  1.6403 -0.2018
55422SOL     OW71076  12.154   6.696   6.501  0.0273 -0.1734 -0.0707
55422SOL    HW171077  12.191   6.612   6.527 -1.0545 -0.9845 -1.0762
55422SOL    HW271078  12.164   6.699   6.406  0.3381  0.9949 -0.0217
55423SOL     OW71079   7.240  10.575   1.814 -0.0212  0.4211 -0.4986
55423SOL    HW171080   7.293  10.497   1.828 -0.9187 -0.2702 -0.8493
55423SOL    HW271081   7.295  10.648   1.844  1.0700 -0.2810 -0.7632
55424SOL     OW71082   2.356   5.966   2.268 -0.0568  0.0008 -0.1292
55424SOL    HW171083   2.339   6.051   2.309  1.2954 -0.2403  0.9955
55424SOL    HW271084   2.429   5.982   2.208  0.7456 -0.4934  0.6766
55425SOL     OW71085   0.695  11.486   2.409  0.0282 -0.1483  0.0373
55425SOL    HW171086   0.690  11.466   2.315 -2.0818  1.2879 -0.2283
55425SOL    HW271087   0.604  11.494   2.436  0.5821  3.1646  1.3530
55426SOL     OW71088   4.367  10.472  10.645  0.2854  0.3041  0.0658
55426SOL    HW171089   4.432  10.509  10.586  0.3568 -2.0653 -1.5155
55426SOL    HW271090   4.283  10.505  10.612  0.2670 -1.4669 -1.9027
55427SOL     OW71091  10.777   9.477  10.681 -0.0356 -0.6017 -0.1166
55427SOL    HW171092  10.867   9.454  10.703  0.4246 -0.2956 -1.5660
55427SOL    HW271093  10.779   9.572  10.667 -0.4242 -0.6809 -0.7838
55428SOL     OW71094  12.617   3.413   0.560 -0.1457  0.9109 -0.0881
55428SOL    HW171095  12.676   3.432   0.488  0.2828  2.1961  0.5722
55428SOL    HW271096  12.597   3.499   0.598  0.3541  0.2162  1.8687
55429SOL     OW71097  10.154   5.267   9.932 -0.3709 -0.7288  0.4903
55429SOL    HW171098  10.221   5.305   9.876  0.4538 -1.8670  0.6799
55429SOL    HW271099  10.076   5.260   9.876 -0.7187  1.6226  0.5748
55430SOL     OW71100   2.257   2.621   1.847  0.5540  0.1594 -0.4411
55430SOL    HW171101   2.240   2.533   1.881 -0.4442  0.6416  0.3756
55430SOL    HW271102   2.175   2.647   1.805  0.4032  1.1782  0.4449
55431SOL     OW71103   6.069   8.896   8.773 -0.2913 -0.6792  0.0689
55431SOL    HW171104   6.001   8.861   8.716 -2.2573  0.7931  1.3327
55431SOL    HW271105   6.057   8.991   8.768  1.2742 -0.4025  0.8540
55432SOL     OW71106   0.342  10.499  11.227 -0.0364 -0.5366 -0.4745
55432SOL    HW171107   0.328  10.405  11.239 -2.3874 -0.0937  0.8588
55432SOL    HW271108   0.345  10.511  11.132  1.8760 -2.0957 -0.6730
55433SOL     OW71109   0.609   1.192   9.945  0.7002  0.0925  0.6790
55433SOL    HW171110   0.601   1.281   9.980  0.6981 -0.1650  1.3361
55433SOL    HW271111   0.659   1.203   9.864 -1.5502  1.0502 -0.6875
55434SOL     OW71112  11.760   0.594   4.215  0.0651 -0.1494 -0.1444
55434SOL    HW171113  11.830   0.541   4.175 -1.1170 -2.3479  0.5353
55434SOL    HW271114  11.753   0.560   4.305 -0.6581  1.2960  0.3759
55435SOL     OW71115  11.561   9.182   1.876 -0.3688 -0.6561 -0.2593
55435SOL    HW171116  11.633   9.125   1.902  1.2071  0.3522 -2.1616
55435SOL    HW271117  11.484   9.142   1.916  0.9030 -3.1113 -0.0412
55436SOL     OW71118  11.285   0.395   9.650 -0.4337  0.0675 -0.0456
55436SOL    HW171119  11.211   0.376   9.593 -1.2668 -0.4416  1.1827
55436SOL    HW271120  11.344   0.320   9.639 -2.1158 -1.7235  2.1716
55437SOL     OW71121  12.527   4.105   6.940  0.0256  0.5461  0.8628
55437SOL    HW171122  12.468   4.169   6.901 -0.6783 -0.4830  0.1969
55437SOL    HW271123  12.607   4.110   6.887  0.3455  1.5257  1.4069
55438SOL     OW71124   5.195   7.143   2.705  0.9427 -0.2361  0.0366
55438SOL    HW171125   5.216   7.061   2.750  0.6832 -1.0823 -1.3266
55438SOL    HW271126   5.269   7.158   2.647  0.8510  0.3548  0.0593
55439SOL     OW71127   0.363   9.303   8.732  0.0317  0.1263  0.0664
55439SOL    HW171128   0.444   9.330   8.775  0.0380 -0.5918  0.5303
55439SOL    HW271129   0.373   9.208   8.722 -0.8387  0.0028  0.3179
55440SOL     OW71130   8.258   5.007  11.029 -1.0196  0.4437  0.5538
55440SOL    HW171131   8.167   4.978  11.035 -0.5947 -1.6381 -1.4737
55440SOL    HW271132   8.253   5.096  10.997 -2.3789 -0.3179 -1.5571
55441SOL     OW71133   0.935   3.243  11.861 -0.0100 -0.0527  0.5657
55441SOL    HW171134   0.888   3.265  11.781 -1.1103 -1.6654  0.7017
55441SOL    HW271135   1.023   3.278  11.849 -0.7189  1.4218 -0.5044
55442SOL     OW71136   0.581   1.052   3.503 -0.0349  0.5652  0.0765
55442SOL    HW171137   0.584   1.131   3.451 -2.0649  0.7317  0.1038
55442SOL    HW271138   0.553   0.984   3.442  0.8756  0.0324  0.2354
55443SOL     OW71139   0.921   0.296  10.410  0.0538 -0.5158  0.3633
55443SOL    HW171140   0.994   0.355  10.425 -1.0841  0.9898  0.1741
55443SOL    HW271141   0.898   0.264  10.497 -0.1712  0.3931  0.6472
55444SOL     OW71142   3.738   9.518   0.733 -0.5335 -0.2720  0.4342
55444SOL    HW171143   3.709   9.435   0.694 -1.1376  0.0922  0.1027
55444SOL    HW271144   3.685   9.529   0.811 -1.0431  0.2103  0.0271
55445SOL     OW71145   4.402   5.954   1.215  0.0047  0.1818  0.1641
55445SOL    HW171146   4.394   6.032   1.160  1.2601 -0.2262 -0.6366
55445SOL    HW271147   4.408   5.881   1.153  1.9199 -0.2561  0.8034
55446SOL     OW71148   0.707   5.369  12.264  0.4492  0.0528  0.2312
55446SOL    HW171149   0.793   5.327  12.263  0.9367  0.9613 -2.0311
55446SOL    HW271150   0.725   5.461  12.280 -0.1899  0.1286  0.5644
55447SOL     OW71151   5.375  12.420   0.399  0.3807  0.4460  0.2490
55447SOL    HW171152   5.424  12.390   0.323 -0.0966 -0.9925  0.4746
55447SOL    HW271153   5.372  12.515   0.389 -0.4527  0.2537 -2.0229
55448SOL     OW71154   8.489   0.984   6.902  0.3984 -0.3133 -0.0762
55448SOL    HW171155   8.572   0.942   6.880  1.6545  2.4821 -1.2752
55448SOL    HW271156   8.513   1.050   6.968 -1.2175 -0.6063  0.8458
55449SOL     OW71157  12.566   9.515  10.582 -0.1502 -0.1414  0.3970
55449SOL    HW171158  12.604   9.595  10.618 -0.3135 -0.6993  1.8711
55449SOL    HW271159  12.616   9.499  10.502 -0.1220  1.4179  0.0685
55450SOL     OW71160  11.378  10.637   5.865 -0.6305 -0.1076  0.2560
55450SOL    HW171161  11.349  10.579   5.934  1.0214 -1.7678 -0.3501
55450SOL    HW271162  11.308  10.634   5.799 -0.3063 -2.0116 -0.0669
55451SOL     OW71163   0.737   4.166   7.767 -0.4797 -0.3583 -0.1862
55451SOL    HW171164   0.770   4.162   7.677 -0.8598 -1.3264 -0.2950
55451SOL    HW271165   0.706   4.255   7.777  0.6915  0.1203 -0.6096
55452SOL     OW71166   4.259  11.671   0.550  0.1356 -0.1931  0.0055
55452SOL    HW171167   4.204  11.730   0.499 -0.3205 -3.0597 -3.1490
55452SOL    HW271168   4.207  11.649   0.627 -0.8847  1.1861 -0.2613
55453SOL     OW71169   1.738   3.761   9.643  0.1816  0.7042  0.3121
55453SOL    HW171170   1.702   3.759   9.554  2.8199 -0.7597 -0.8247
55453SOL    HW271171   1.733   3.854   9.668  0.6504  1.4081 -1.9504
55454SOL     OW71172   6.669   6.647  12.322  0.3718 -0.1383  0.0130
55454SOL    HW171173   6.654   6.557  12.353  1.3326  0.0189  0.9747
55454SOL    HW271174   6.652   6.702  12.398 -1.8330  0.6778 -0.9834
55455SOL     OW71175   1.886   8.270   5.521 -0.1096  0.1506  0.9480
55455SOL    HW171176   1.911   8.189   5.477 -0.9160  0.4529 -0.1081
55455SOL    HW271177   1.942   8.337   5.482 -2.3836  0.8334 -1.4407
55456SOL     OW71178   8.707  12.524   4.498  0.4823  0.3652  0.0187
55456SOL    HW171179   8.774  12.536   4.431  1.5072 -1.3186  0.6711
55456SOL    HW271180   8.732  12.584   4.568  1.0154  0.1633  0.0134
55457SOL     OW71181   3.001   1.196   1.648  0.0265  0.5575  0.2746
55457SOL    HW171182   2.949   1.117   1.660  0.6863 -0.0428 -0.7313
55457SOL    HW271183   3.049   1.182   1.566 -0.7975  2.5159 -0.6116
55458SOL     OW71184   7.742   8.687  12.151  0.7453  0.0819  0.1788
55458SOL    HW171185   7.745   8.608  12.096  2.2955  0.6930 -0.6704
55458SOL    HW271186   7.797   8.665  12.226 -1.1860 -0.6671  1.4619
55459SOL     OW71187   4.293   3.283   3.677  0.0404 -0.1429  0.6166
55459SOL    HW171188   4.285   3.195   3.640 -0.2835  0.0059  0.3324
55459SOL    HW271189   4.363   3.324   3.627 -0.2593 -0.0114  0.3060
55460SOL     OW71190   1.112   6.035   1.455  0.1825 -0.7098 -0.4009
55460SOL    HW171191   1.020   6.054   1.474  0.5316 -0.1424  0.8719
55460SOL    HW271192   1.141   6.110   1.403  0.2515 -0.2248  0.3190
55461SOL     OW71193  11.087   7.354   1.737  0.6232  0.0398  0.2898
55461SOL    HW171194  11.047   7.407   1.668 -2.0081 -0.6719  1.1636
55461SOL    HW271195  11.109   7.272   1.694 -0.0860 -0.0401  0.0647
55462SOL     OW71196  10.898   3.115   7.933  0.0374 -0.3603 -0.4371
55462SOL    HW171197  10.838   3.185   7.959 -0.1594 -0.7064  0.0640
55462SOL    HW271198  10.922   3.073   8.016  0.4802 -0.6229 -0.6967
55463SOL     OW71199  11.690  10.647   3.978 -0.1387 -0.1733 -0.4400
55463SOL    HW171200  11.649  10.647   3.892 -0.6437 -0.4950 -0.2076
55463SOL    HW271201  11.687  10.738   4.007 -0.0806 -0.0864 -0.7122
55464SOL     OW71202   0.264  12.339  10.639 -0.2585 -0.4478 -0.0248
55464SOL    HW171203   0.180  12.384  10.638  0.0134  0.1544 -2.7329
55464SOL    HW271204   0.318  12.390  10.699 -1.3292  0.1017  0.4994
55465SOL     OW71205   6.799   9.936   4.016  0.0089 -0.0332 -0.6207
55465SOL    HW171206   6.836   9.995   4.082 -0.7193  0.1993 -0.4053
55465SOL    HW271207   6.861   9.863   4.012  0.2385  0.1106  0.0788
55466SOL     OW71208  12.004  12.543   1.670  0.2835  0.8184 -0.0460
55466SOL    HW171209  12.077  12.562   1.610  0.1517  0.7472 -0.2278
55466SOL    HW271210  12.046  12.507   1.747  0.4427  0.7803 -0.1502
55467SOL     OW71211   5.713   4.604   7.899 -0.9901  0.3485  0.0729
55467SOL    HW171212   5.717   4.516   7.936 -0.2468  0.1732 -0.4176
55467SOL    HW271213   5.626   4.609   7.859 -1.1053 -0.0906  0.2617
55468SOL     OW71214   5.884   2.035   2.733  0.3562  0.0903  0.7079
55468SOL    HW171215   5.802   2.023   2.781 -0.7524  0.7072 -0.9322
55468SOL    HW271216   5.876   2.122   2.693  2.0254  0.3622  0.8945
55469SOL     OW71217   3.932   7.973  12.185 -0.6775 -0.5734  0.2253
55469SOL    HW171218   3.951   8.008  12.098 -0.3550 -1.3929 -0.0392
55469SOL    HW271219   4.018   7.951  12.221 -0.5194  2.2407  1.8497
55470SOL     OW71220   3.885   9.434   6.942  0.2913 -0.1226  0.6082
55470SOL    HW171221   3.863   9.365   6.879 -0.7710 -1.2844  2.1659
55470SOL    HW271222   3.827   9.506   6.920  0.4324 -0.2385 -0.1725
55471SOL     OW71223   5.794   3.174   8.238  0.1322  0.0494 -0.2761
55471SOL    HW171224   5.871   3.222   8.208 -0.5936  1.5865  0.2269
55471SOL    HW271225   5.724   3.240   8.239 -0.7161 -0.8398  1.2036
55472SOL     OW71226   9.646   8.209  12.645 -0.1876  0.8270  0.2593
55472SOL    HW171227   9.731   8.216  12.602 -0.4742 -2.1056 -1.0508
55472SOL    HW271228   9.598   8.287  12.616  0.8572  0.7264 -1.9599
55473SOL     OW71229  10.464   3.907  10.069 -0.3596 -0.4262 -0.0529
55473SOL    HW171230  10.377   3.898  10.108  0.6494  0.3795  2.6321
55473SOL    HW271231  10.515   3.952  10.136  1.7500  0.5081 -2.1539
55474SOL     OW71232   6.606  11.650   6.157 -0.5394  0.1738 -0.0314
55474SOL    HW171233   6.685  11.686   6.118 -0.5741  1.3235  0.9278
55474SOL    HW271234   6.536  11.674   6.096  0.0016 -2.5437 -1.9453
55475SOL     OW71235   8.153   0.794   6.897  0.0274 -0.3510 -0.3168
55475SOL    HW171236   8.119   0.705   6.901 -2.5657  0.4989 -1.2379
55475SOL    HW271237   8.176   0.807   6.805  2.3684 -0.6683  0.1659
55476SOL     OW71238  12.610   1.976  11.676 -0.1251  0.1924  0.4198
55476SOL    HW171239  12.530   1.925  11.664 -0.1237  0.4230 -0.6305
55476SOL    HW271240  12.605   2.045  11.610  2.1187 -1.2622 -1.4089
55477SOL     OW71241   0.427   8.198   0.462  0.0612  0.0903  0.6355
55477SOL    HW171242   0.367   8.141   0.511 -0.7271 -0.5806 -1.0390
55477SOL    HW271243   0.512   8.183   0.503 -0.2900 -1.6676  0.7925
55478SOL     OW71244   2.564  12.085   4.792  0.2450  0.0228 -0.0490
55478SOL    HW171245   2.535  12.064   4.703 -0.2647  1.8510 -0.3432
55478SOL    HW271246   2.485  12.074   4.846  0.1824  0.3688 -0.0694
55479SOL     OW71247   7.351   9.318   1.518  0.0230 -0.2356  0.3500
55479SOL    HW171248   7.267   9.362   1.531 -0.3941 -1.1675  0.8780
55479SOL    HW271249   7.347   9.241   1.574  1.0960 -0.4822  0.1123
55480SOL     OW71250   0.316   1.695   3.923  0.1358  0.0446 -0.1987
55480SOL    HW171251   0.323   1.625   3.857 -0.1175 -0.4744  0.3226
55480SOL    HW271252   0.222   1.706   3.937  0.1988 -0.2491  0.4965
55481SOL     OW71253   2.126  10.741   4.899 -0.7725 -0.1824 -0.0831
55481SOL    HW171254   2.061  10.686   4.944 -1.4167 -0.8163 -1.7374
55481SOL    HW271255   2.075  10.792   4.836  0.2579 -0.3307 -1.0658
55482SOL     OW71256   3.348   3.527   2.509 -0.2946  0.1051 -0.1724
55482SOL    HW171257   3.285   3.560   2.445  0.1894 -0.7184 -1.1214
55482SOL    HW271258   3.432   3.563   2.479 -0.2679  1.0530  0.9749
55483SOL     OW71259  12.282   2.070   0.055 -0.3969  0.1881  0.0952
55483SOL    HW171260  12.197   2.025   0.054  0.0121 -0.6003 -0.0560
55483SOL    HW271261  12.264   2.155   0.017 -0.5911 -1.0096 -2.7415
55484SOL     OW71262   6.855  10.743  12.381 -0.1679  0.1610  0.0914
55484SOL    HW171263   6.903  10.809  12.332  0.2388  1.0710  1.6581
55484SOL    HW271264   6.807  10.694  12.314  1.5086  0.3840 -1.3460
55485SOL     OW71265   0.812   8.193   9.510 -0.6078  0.0924  0.5274
55485SOL    HW171266   0.753   8.119   9.523 -0.5804  0.4025  2.7113
55485SOL    HW271267   0.827   8.228   9.598  1.7605  0.8606 -0.1092
55486SOL     OW71268   8.135   2.404   0.033 -0.2755  0.1916  0.0180
55486SOL    HW171269   8.144   2.463   0.107 -1.7830 -0.5588  0.8368
55486SOL    HW271270   8.087   2.454  -0.032 -0.5501  0.2399  0.2610
55487SOL     OW71271  10.387   3.155  12.529  0.3897  0.2125 -0.8501
55487SOL    HW171272  10.335   3.227  12.493 -1.4967 -0.6009  0.0882
55487SOL    HW271273  10.337   3.125  12.605  1.2934 -1.8538 -0.9962
55488SOL     OW71274   7.742   9.703   6.728 -0.2922  0.1097  0.7219
55488SOL    HW171275   7.747   9.608   6.730 -1.8806 -0.0189 -0.1664
55488SOL    HW271276   7.825   9.730   6.689 -0.4471 -1.0096 -0.4660
55489SOL     OW71277   0.090   9.555   4.677 -0.4838  0.1759  0.1095
55489SOL    HW171278   0.088   9.474   4.728  1.0765 -1.0727 -1.6909
55489SOL    HW271279  -0.001   9.585   4.676 -1.3488 -2.2324 -0.2185
55490SOL     OW71280   8.377   6.174   7.072 -0.0250  0.2344 -0.4748
55490SOL    HW171281   8.435   6.250   7.061  0.3511  0.3355  1.6438
55490SOL    HW271282   8.413   6.128   7.148 -1.8959 -0.4858  0.0276
55491SOL     OW71283   7.090   1.144  12.393  0.0494 -0.1549 -0.3823
55491SOL    HW171284   7.130   1.074  12.444  0.5817  1.5717  1.7226
55491SOL    HW271285   7.164   1.195  12.360 -0.3379 -0.3302 -1.5681
55492SOL     OW71286   7.036   5.723   3.540 -0.0757  0.5464 -0.4456
55492SOL    HW171287   7.058   5.792   3.603 -1.3072  0.4280  0.1463
55492SOL    HW271288   7.006   5.770   3.462 -0.2197  0.6835 -0.3080
55493SOL     OW71289   9.370   7.286   7.070 -0.1327 -0.7535  0.6725
55493SOL    HW171290   9.296   7.231   7.097  0.4445 -1.3081  1.1297
55493SOL    HW271291   9.412   7.237   7.000  1.7756 -2.0565  2.6218
55494SOL     OW71292   6.282   6.037   1.171 -0.0478  0.1192 -0.5675
55494SOL    HW171293   6.324   6.060   1.088  0.4391  0.2172 -0.3008
55494SOL    HW271294   6.208   6.098   1.179  1.1171  1.5246  0.0450
55495SOL     OW71295   4.674   8.934  10.441  0.2008 -0.3233 -0.3489
55495SOL    HW171296   4.746   8.991  10.470  0.3185 -1.0732  0.9115
55495SOL    HW271297   4.690   8.922  10.347  0.7123  0.9278 -0.4494
55496SOL     OW71298   1.466   3.592   9.359  0.3040 -0.0040  0.1712
55496SOL    HW171299   1.513   3.671   9.331 -0.2161  0.4889  0.6534
55496SOL    HW271300   1.507   3.521   9.310  0.2436  0.6734 -0.8960
55497SOL     OW71301   9.314   8.372   3.625  0.2491  0.2739 -0.3953
55497SOL    HW171302   9.300   8.460   3.590  1.0320 -0.0480 -1.5892
55497SOL    HW271303   9.234   8.324   3.604 -0.6978  1.0242  1.3836
55498SOL     OW71304   4.529  11.706   3.065  0.4455 -0.7187  0.8563
55498SOL    HW171305   4.488  11.696   2.979  0.9945 -1.9583  0.7285
55498SOL    HW271306   4.555  11.618   3.090  2.7899 -0.0383  1.0672
55499SOL     OW71307   8.504   1.427   6.232  0.2466 -0.2511  0.0862
55499SOL    HW171308   8.439   1.417   6.162  1.1789  0.4165 -0.9007
55499SOL    HW271309   8.588   1.427   6.187  0.8317  0.9223  1.1211
55500SOL     OW71310  11.875  12.087   5.352 -0.3988 -0.2608  0.1762
55500SOL    HW171311  11.935  12.135   5.409 -0.9438 -0.9112  1.3370
55500SOL    HW271312  11.909  12.102   5.264  0.1327  1.2603  0.6005
55501SOL     OW71313   1.438  10.101   2.094  0.3245 -0.0324  0.3639
55501SOL    HW171314   1.508  10.166   2.093  0.0985  0.3437 -3.3064
55501SOL    HW271315   1.484  10.017   2.098  0.8425  0.2492  0.4773
55502SOL     OW71316   5.109   2.126   4.692  0.2914 -0.5090  0.1846
55502SOL    HW171317   5.136   2.195   4.751  1.2559  0.3656 -1.2129
55502SOL    HW271318   5.178   2.123   4.625  0.2298 -2.7448  0.1262
55503SOL     OW71319   9.873   3.408   0.649  0.5031 -0.2696 -0.1886
55503SOL    HW171320   9.923   3.363   0.580  2.1163  0.6565  0.3160
55503SOL    HW271321   9.849   3.338   0.710 -0.4001 -0.9994 -1.3503
55504SOL     OW71322   5.168  12.222   6.744  0.3835 -0.6306  0.1613
55504SOL    HW171323   5.097  12.202   6.682  0.9500  0.5684 -0.9057
55504SOL    HW271324   5.144  12.306   6.782  0.4910 -0.9411  0.9450
55505SOL     OW71325   5.615   5.216   4.677  0.0217 -0.2591  0.1201
55505SOL    HW171326   5.606   5.133   4.723 -3.4985  0.6732  1.4877
55505SOL    HW271327   5.551   5.211   4.606 -0.3999  1.3084  0.3518
55506SOL     OW71328   2.913   2.324   2.109 -0.0043 -0.3666 -0.4487
55506SOL    HW171329   2.822   2.346   2.127  0.7593  2.8522  0.2200
55506SOL    HW271330   2.924   2.339   2.015 -0.4775 -2.3707 -0.8663
55507SOL     OW71331   3.477   4.551   4.822  0.0592  0.5269 -0.2632
55507SOL    HW171332   3.532   4.553   4.744  0.9920  0.5117  0.3788
55507SOL    HW271333   3.497   4.633   4.867 -0.7675  0.7189 -0.2325
55508SOL     OW71334   9.998   2.857  10.551  0.5598  0.3872  0.1302
55508SOL    HW171335   9.966   2.768  10.534  0.6717  0.4110 -0.2140
55508SOL    HW271336  10.054   2.877  10.476  0.7692  0.6375  0.3515
55509SOL     OW71337   2.238   6.668   8.428 -0.6829  0.5592  0.2788
55509SOL    HW171338   2.236   6.588   8.480 -1.6160  0.7608  0.5750
55509SOL    HW271339   2.329   6.676   8.400 -1.0500 -2.3150 -2.4330
55510SOL     OW71340   1.836   0.480   8.166  0.5856 -0.5125 -0.2079
55510SOL    HW171341   1.839   0.410   8.232  0.7890  0.0621  0.4065
55510SOL    HW271342   1.926   0.487   8.135  0.7449  0.0415  0.3506
55511SOL     OW71343   8.169   2.641   1.436  0.0105 -0.3065 -0.7074
55511SOL    HW171344   8.143   2.606   1.350 -0.3103 -1.9700  0.0176
55511SOL    HW271345   8.100   2.611   1.495  0.6595  0.1075  0.2697
55512SOL     OW71346   1.458   9.085   9.213  0.5212 -0.1949  0.5030
55512SOL    HW171347   1.381   9.137   9.190  1.4499  0.9188 -0.2232
55512SOL    HW271348   1.505   9.139   9.277  1.1441 -0.4464  0.2700
55513SOL     OW71349   6.824   8.814  10.844  0.4594  0.4004  0.0320
55513SOL    HW171350   6.749   8.782  10.894  0.8085  1.1854  1.0745
55513SOL    HW271351   6.881   8.737  10.834  0.7989  0.4085  1.6230
55514SOL     OW71352   7.521  10.701   7.946 -0.1224 -0.3415 -0.0315
55514SOL    HW171353   7.605  10.745   7.964  1.0734 -2.2196 -0.6794
55514SOL    HW271354   7.495  10.735   7.860  0.2632 -0.1383 -0.0721
55515SOL     OW71355   0.567   1.679   5.286 -0.2631  0.8629  0.3234
55515SOL    HW171356   0.605   1.767   5.280  0.6025  0.4122 -1.5252
55515SOL    HW271357   0.571   1.645   5.196 -1.3493 -0.7574  0.8469
55516SOL     OW71358   1.732   3.967   5.514 -0.3696 -0.0941  0.4216
55516SOL    HW171359   1.793   3.899   5.543  0.1446  0.0622 -0.2594
55516SOL    HW271360   1.778   4.049   5.530 -0.5661  0.0451  0.2840
55517SOL     OW71361   2.441   7.096   2.751  0.2229 -0.0086  0.8359
55517SOL    HW171362   2.458   7.188   2.772 -1.0413  0.4088  0.1408
55517SOL    HW271363   2.345   7.091   2.744  0.3186 -1.2477  0.2814
55518SOL     OW71364   3.483   5.753   1.788  0.1474  0.3246  0.1416
55518SOL    HW171365   3.428   5.830   1.798  0.8196  1.0042 -1.1540
55518SOL    HW271366   3.573   5.786   1.798  0.5361  0.0468 -1.9922
55519SOL     OW71367   5.037   9.249   9.169  0.2266  0.2295 -0.0795
55519SOL    HW171368   4.980   9.321   9.196 -0.2734 -0.2269  0.1125
55519SOL    HW271369   5.036   9.188   9.244 -1.6140 -1.3165 -1.2621
55520SOL     OW71370   9.593   3.025   6.910 -0.3858 -0.0619  0.7314
55520SOL    HW171371   9.676   2.988   6.939 -0.4563 -0.0281  0.9771
55520SOL    HW271372   9.615   3.113   6.881 -0.2019 -0.3210  0.0644
55521SOL     OW71373   4.927   3.774  11.913 -0.1456 -0.5703 -0.2292
55521SOL    HW171374   5.001   3.768  11.973  1.3515  1.4215 -1.7134
55521SOL    HW271375   4.886   3.857  11.934 -0.8899 -0.8434 -0.5876
55522SOL     OW71376   1.074   8.059   1.119  0.2895  0.3947 -0.0911
55522SOL    HW171377   1.115   8.139   1.152 -0.9032  0.8823  0.2680
55522SOL    HW271378   1.128   7.989   1.153  0.3408  0.9856  1.1030
55523SOL     OW71379  10.738   0.388   1.537  0.6617 -0.4884  0.0245
55523SOL    HW171380  10.789   0.437   1.601  0.5790 -0.4231  0.0413
55523SOL    HW271381  10.720   0.451   1.467 -0.6270 -0.0888  0.6849
55524SOL     OW71382   9.083   9.618   3.944  0.1597  0.1034  0.0281
55524SOL    HW171383   9.038   9.649   4.022 -0.9046  1.2059 -0.9886
55524SOL    HW271384   9.020   9.561   3.900  0.9891 -1.0520  0.2834
55525SOL     OW71385  10.747   4.620   9.827  0.1806 -0.2007 -0.3528
55525SOL    HW171386  10.808   4.546   9.817  0.9158  0.1554  1.1625
55525SOL    HW271387  10.735   4.628   9.922  0.8348  2.1550 -0.4039
55526SOL     OW71388   4.402   6.305   5.955 -0.9020 -0.7667 -0.6348
55526SOL    HW171389   4.409   6.220   5.913  0.3350 -0.2410 -1.5626
55526SOL    HW271390   4.310   6.311   5.983 -1.0051 -2.3829 -0.5381
55527SOL     OW71391   1.833   5.323   7.078 -0.1516  0.4493 -0.0089
55527SOL    HW171392   1.879   5.261   7.135  1.9097  1.0299 -0.9455
55527SOL    HW271393   1.901   5.382   7.046 -1.5369  1.2952 -1.5927
55528SOL     OW71394   0.279   4.381  10.888 -0.0300 -0.0816  0.3332
55528SOL    HW171395   0.200   4.427  10.919  0.1018 -1.1158  2.3789
55528SOL    HW271396   0.345   4.400  10.955  1.3169  0.3112 -1.0777
55529SOL     OW71397   4.096  10.165   1.090 -0.5797  0.2267 -0.2171
55529SOL    HW171398   4.181  10.157   1.135  0.4142 -1.9455 -2.3178
55529SOL    HW271399   4.104  10.246   1.039 -0.5975  1.1005  1.0902
55530SOL     OW71400  10.657   4.717   1.409 -0.7518  0.2097 -0.2293
55530SOL    HW171401  10.580   4.761   1.445  0.2920  0.5149  1.7669
55530SOL    HW271402  10.645   4.624   1.431  0.9417  0.6468  3.2633
55531SOL     OW71403   3.139   0.456   5.940  0.0030 -0.5849 -0.4453
55531SOL    HW171404   3.140   0.512   5.863 -0.3135 -0.6176 -0.4737
55531SOL    HW271405   3.194   0.381   5.915  1.5635  0.3291  0.0745
55532SOL     OW71406   8.623   5.524   5.550 -0.2194 -0.0683 -0.1371
55532SOL    HW171407   8.594   5.444   5.507 -0.6751 -0.4182  0.7945
55532SOL    HW271408   8.650   5.496   5.637  1.4006  0.5022 -0.4226
55533SOL     OW71409  11.622   3.472   8.996 -0.0449  0.4714 -0.2130
55533SOL    HW171410  11.697   3.463   9.055 -0.4183 -1.3864  0.0528
55533SOL    HW271411  11.624   3.563   8.968  3.2745  0.1354 -1.5089
55534SOL     OW71412   1.782   0.295   5.246 -0.1393 -0.0698 -0.2143
55534SOL    HW171413   1.756   0.304   5.154  0.7257  1.2238 -0.3534
55534SOL    HW271414   1.800   0.202   5.256  0.4358 -0.1255 -1.5535
55535SOL     OW71415   7.300   3.854   5.724 -0.1774 -0.0998 -0.5633
55535SOL    HW171416   7.256   3.773   5.700  1.2304 -1.3425  0.9222
55535SOL    HW271417   7.265   3.877   5.810  0.2359  0.2870 -0.4932
55536SOL     OW71418   6.278  10.455  12.503 -0.1355 -0.2145  0.1731
55536SOL    HW171419   6.325  10.537  12.484 -0.7256  0.4048  1.2397
55536SOL    HW271420   6.239  10.470  12.589 -1.4484 -1.0923 -0.2413
55537SOL     OW71421   7.465   7.758  11.706 -0.3968  0.0045  0.0364
55537SOL    HW171422   7.521   7.822  11.662 -0.8955  0.7098  0.4184
55537SOL    HW271423   7.455   7.791  11.795 -0.9234 -0.4340  0.1477
55538SOL     OW71424   5.803   1.443   1.673  0.0208 -0.5546  0.0933
55538SOL    HW171425   5.708   1.435   1.676  0.0879 -2.1160 -0.8205
55538SOL    HW271426   5.821   1.493   1.594 -0.0724  1.5307  1.3190
55539SOL     OW71427   4.834   8.565   7.428  0.3125  0.3772  0.3405
55539SOL    HW171428   4.864   8.507   7.498 -0.1558  0.4183  0.5874
55539SOL    HW271429   4.905   8.565   7.364  0.3961 -0.3283  0.4185
55540SOL     OW71430   9.449   0.572   7.556 -0.2284  0.1125  0.2609
55540SOL    HW171431   9.494   0.487   7.556 -0.5840 -0.1120 -1.1894
55540SOL    HW271432   9.403   0.576   7.639  1.1706 -0.3588  1.0932
55541SOL     OW71433   3.322   8.241   0.417 -0.5045 -0.1944 -0.5429
55541SOL    HW171434   3.396   8.286   0.456 -2.1960  1.8154  0.5547
55541SOL    HW271435   3.288   8.185   0.486 -0.7030 -0.2173 -0.6560
55542SOL     OW71436  11.592   8.310   7.492 -0.3371  0.2743  0.4470
55542SOL    HW171437  11.599   8.379   7.557 -1.2472  0.4380  0.3782
55542SOL    HW271438  11.522   8.253   7.524 -0.4634  0.0887 -0.1448
55543SOL     OW71439   5.617   6.085   9.529 -0.0854  0.0188  0.1077
55543SOL    HW171440   5.658   6.009   9.489 -0.1955  0.8954 -1.7742
55543SOL    HW271441   5.564   6.050   9.601  0.7870 -1.5271  0.0207
55544SOL     OW71442   3.465  10.476   9.559 -0.3676 -0.2064  0.3312
55544SOL    HW171443   3.534  10.530   9.520 -0.6710  0.2606  0.4312
55544SOL    HW271444   3.483  10.478   9.653 -0.6156  0.0587  0.3740
55545SOL     OW71445   7.413   1.723   5.700 -0.0043  0.0145 -0.2214
55545SOL    HW171446   7.356   1.750   5.772 -0.9230 -1.4295 -0.3633
55545SOL    HW271447   7.488   1.782   5.705 -0.8406  1.0279  0.8651
55546SOL     OW71448  10.622   8.346   9.916 -0.5085  0.0990 -0.0001
55546SOL    HW171449  10.602   8.374   9.827  1.6355  0.4417 -0.4358
55546SOL    HW271450  10.631   8.427   9.966  0.5558  0.0284 -0.0438
55547SOL     OW71451  12.613   0.086  11.559  0.1913 -0.4206 -0.0489
55547SOL    HW171452  12.681   0.045  11.506  1.4591  0.4981  0.8014
55547SOL    HW271453  12.656   0.105  11.643 -1.0896  0.2628  0.4868
55548SOL     OW71454   4.283   6.956   6.895  0.5885 -0.2146 -0.4675
55548SOL    HW171455   4.250   6.885   6.950  0.9414 -1.4032 -1.7482
55548SOL    HW271456   4.278   7.034   6.951  2.4835 -1.6167  1.8779
55549SOL     OW71457   0.246   9.564   7.771  0.0142 -0.0090 -0.3335
55549SOL    HW171458   0.253   9.649   7.814  0.4165 -0.5669  0.7563
55549SOL    HW271459   0.153   9.555   7.750 -0.2712  0.1068  0.8200
55550SOL     OW71460  10.747   0.216   3.184  0.0415  0.6308 -0.0364
55550SOL    HW171461  10.741   0.311   3.174  0.5181  0.6258 -0.4050
55550SOL    HW271462  10.840   0.196   3.169  0.0146  0.1459  0.3890
55551SOL     OW71463   2.124   0.604   1.965  0.3776  0.6700 -0.0480
55551SOL    HW171464   2.082   0.680   1.925  0.0960 -0.5107 -2.1845
55551SOL    HW271465   2.131   0.540   1.893  1.9783 -0.7597  1.2853
55552SOL     OW71466   4.477   5.870   9.373  0.0033  1.1509 -0.1205
55552SOL    HW171467   4.491   5.802   9.440 -1.6578 -0.5229 -1.3683
55552SOL    HW271468   4.565   5.891   9.342  0.5884 -0.4126  0.3573
55553SOL     OW71469   0.831   9.315   0.222  0.6189  0.6630 -0.0652
55553SOL    HW171470   0.820   9.232   0.269  0.3664  1.1333  0.7255
55553SOL    HW271471   0.748   9.328   0.176  0.3056  0.9502  0.5817
55554SOL     OW71472   8.609   3.948   0.292  0.2304  0.1745 -0.1516
55554SOL    HW171473   8.569   3.941   0.378 -1.5676  0.0992 -0.9453
55554SOL    HW271474   8.696   3.909   0.302 -0.4193 -0.9648  1.3150
55555SOL     OW71475   2.600   9.627   4.735  0.2066  0.2900  0.5031
55555SOL    HW171476   2.520   9.679   4.725  0.6568  0.8567 -0.2833
55555SOL    HW271477   2.570   9.537   4.729 -0.0958  0.4680 -2.8081
55556SOL     OW71478   7.454  10.404   1.807 -0.6359  0.5662 -0.2453
55556SOL    HW171479   7.502  10.327   1.837 -1.3608  0.1746 -0.0567
55556SOL    HW271480   7.456  10.397   1.712 -0.3375  0.5428 -0.2384
55557SOL     OW71481   7.148   1.892   3.016  0.8411  0.3912 -0.0759
55557SOL    HW171482   7.066   1.916   3.059  1.2063  1.2540  0.1542
55557SOL    HW271483   7.214   1.901   3.084  1.2085  0.2383 -0.4096
55558SOL     OW71484   9.036   6.340   8.072  0.2987  0.0160 -0.8243
55558SOL    HW171485   9.107   6.355   8.135  1.6807 -0.7933 -2.0966
55558SOL    HW271486   9.045   6.247   8.049 -1.0082 -0.0247 -1.2476
55559SOL     OW71487   9.125  10.354   0.025 -0.4962  0.9277  0.1849
55559SOL    HW171488   9.047  10.399   0.058 -0.6537  0.1813  0.8543
55559SOL    HW271489   9.133  10.276   0.080 -0.3915 -0.0148 -1.1331
55560SOL     OW71490   9.186   4.897   4.752 -0.1670 -0.2441 -0.4039
55560SOL    HW171491   9.242   4.823   4.729 -0.0050 -0.0580 -0.6161
55560SOL    HW271492   9.096   4.864   4.743 -0.1002 -1.0127  1.4659
55561SOL     OW71493   0.870   9.990   3.556 -0.1252  0.1890 -0.0853
55561SOL    HW171494   0.903   9.983   3.467 -0.1891  3.2209 -0.4489
55561SOL    HW271495   0.793  10.046   3.549 -0.4127  0.1084  1.8259
55562SOL     OW71496   9.786   7.998  11.876 -0.3862  0.4190 -0.6443
55562SOL    HW171497   9.747   8.015  11.962  0.2482  0.9657 -0.4525
55562SOL    HW271498   9.804   8.085  11.841  0.8485  0.1754 -0.6359
55563SOL     OW71499   1.983  12.612   6.394 -0.7445  0.1703  0.4596
55563SOL    HW171500   1.945  12.698   6.410  0.3148  0.7196  0.1318
55563SOL    HW271501   1.910  12.559   6.361 -0.8921  1.6894 -1.9138
55564SOL     OW71502   4.419   0.200  11.342 -0.5870  0.1384  0.3500
55564SOL    HW171503   4.439   0.110  11.319  0.9443  0.7032 -0.6211
55564SOL    HW271504   4.434   0.204  11.437 -1.2779 -0.7599  0.5136
55565SOL     OW71505  11.940   0.434   7.350 -0.1291 -0.6836  0.4602
55565SOL    HW171506  11.978   0.371   7.410 -0.5412 -0.7034  0.6987
55565SOL    HW271507  11.854   0.455   7.387  0.1361  0.2710  0.5674
55566SOL     OW71508   6.929   2.305  12.156 -0.1899  0.0477  0.1990
55566SOL    HW171509   6.910   2.369  12.088 -1.0513 -0.2123  0.1908
55566SOL    HW271510   7.018   2.328  12.185 -0.5003  1.2967  0.2442
55567SOL     OW71511   8.649   3.422   5.399 -0.4836  0.1008 -0.1537
55567SOL    HW171512   8.659   3.334   5.363 -1.1001 -0.2594  0.5363
55567SOL    HW271513   8.677   3.480   5.328 -1.6403 -0.5847 -1.2031
55568SOL     OW71514  10.089   4.439  10.662  0.3355 -0.6557 -0.2397
55568SOL    HW171515  10.155   4.409  10.724  1.0736 -1.4428 -1.3640
55568SOL    HW271516  10.119   4.525  10.633 -1.3556  0.9323  2.3736
55569SOL     OW71517  11.932   7.397   8.443  0.3070 -0.2446  0.2601
55569SOL    HW171518  11.861   7.458   8.461 -0.0191 -0.5747  0.0974
55569SOL    HW271519  12.002   7.424   8.503  0.6780  1.1558 -0.7699
55570SOL     OW71520   8.690  11.738   0.756  0.3847  0.1254 -0.3190
55570SOL    HW171521   8.734  11.822   0.760  2.6229 -1.0215  0.8027
55570SOL    HW271522   8.634  11.737   0.834 -0.3990  0.9188 -0.8507
55571SOL     OW71523   7.656   5.358  11.594  0.1121 -0.4418  0.0266
55571SOL    HW171524   7.637   5.270  11.627 -0.8813 -0.4185 -0.4615
55571SOL    HW271525   7.746   5.375  11.622  1.0956 -2.4504 -1.6567
55572SOL     OW71526   9.581  11.304   9.415 -0.2449 -0.0135 -0.3302
55572SOL    HW171527   9.652  11.329   9.355  0.0748 -0.2998 -0.0775
55572SOL    HW271528   9.600  11.213   9.437 -0.1709  0.1839  0.4604
55573SOL     OW71529   3.710   1.997   2.932 -0.0523 -0.1676 -0.1980
55573SOL    HW171530   3.681   2.087   2.943  0.5472  0.3410 -2.3685
55573SOL    HW271531   3.630   1.945   2.941 -0.6620  0.7091 -0.4050
55574SOL     OW71532   5.867   0.224   3.756  0.5454  0.7872  0.3371
55574SOL    HW171533   5.944   0.224   3.699  1.0002 -0.6473  0.9041
55574SOL    HW271534   5.793   0.236   3.697  1.1271  1.1629 -0.3304
55575SOL     OW71535   1.291   3.241   3.987 -0.2339  0.2231  0.3974
55575SOL    HW171536   1.258   3.152   3.999 -0.0876  0.1432  0.2113
55575SOL    HW271537   1.352   3.234   3.914  1.7391 -0.0644  1.9530
55576SOL     OW71538   7.485   0.174   7.848  0.7617  0.0894 -0.4462
55576SOL    HW171539   7.446   0.218   7.924  0.0858 -2.6077  0.9194
55576SOL    HW271540   7.553   0.117   7.885  1.6632  0.0269 -2.0964
55577SOL     OW71541   9.653   4.017   0.098  0.4615 -0.7834 -0.5560
55577SOL    HW171542   9.651   4.106   0.135 -0.6391 -0.5101 -1.2207
55577SOL    HW271543   9.744   4.004   0.073  0.5031  0.4670 -1.1485
55578SOL     OW71544   4.387   8.070   5.086 -0.2198  0.1658 -0.4969
55578SOL    HW171545   4.318   8.080   5.152 -0.5634  1.4809 -1.0196
55578SOL    HW271546   4.452   8.136   5.109 -0.2157  0.4556 -1.3161
55579SOL     OW71547   9.329   6.536   3.361  0.3715 -0.2866  0.3797
55579SOL    HW171548   9.321   6.576   3.448 -2.2184 -1.1910  0.6457
55579SOL    HW271549   9.310   6.608   3.300 -3.1486 -0.6443  0.8249
55580SOL     OW71550  10.263  10.433   9.359 -0.6040 -0.5566 -0.1339
55580SOL    HW171551  10.344  10.469   9.393 -0.8748 -0.8059  0.7994
55580SOL    HW271552  10.209  10.510   9.339 -0.7666 -0.4049  0.8285
55581SOL     OW71553   5.186  12.001  11.735 -0.0030  0.8944  0.0531
55581SOL    HW171554   5.265  11.955  11.761 -0.3368  0.2170 -0.0971
55581SOL    HW271555   5.137  12.014  11.816 -1.4732 -2.0257 -0.2131
55582SOL     OW71556   0.404   5.529  12.600 -0.2932  0.4683 -0.2963
55582SOL    HW171557   0.462   5.580  12.543 -1.0858  1.9312  0.1461
55582SOL    HW271558   0.340   5.490  12.541 -0.3456  0.9177 -0.5383
55583SOL     OW71559   8.602   4.887   1.096 -0.3429  0.3451 -0.2852
55583SOL    HW171560   8.519   4.929   1.075 -2.2999 -1.9473  2.1471
55583SOL    HW271561   8.578   4.812   1.151  3.4383  0.7627  2.3460
55584SOL     OW71562  11.597   4.916  11.820  0.9745 -0.2756 -0.1179
55584SOL    HW171563  11.532   4.846  11.828 -0.8157  1.1640 -1.1862
55584SOL    HW271564  11.678   4.878  11.853 -0.2750 -2.3486  0.7401
55585SOL     OW71565   2.921   2.188   5.729  0.0938 -0.1243  0.2181
55585SOL    HW171566   2.929   2.230   5.815 -1.2190  1.6058 -0.4500
55585SOL    HW271567   2.962   2.250   5.668 -0.7336 -0.3849 -0.6341
55586SOL     OW71568   4.774   9.932  12.569  0.3281 -0.0166 -0.0215
55586SOL    HW171569   4.856   9.887  12.551  0.2773  0.1636 -0.7040
55586SOL    HW271570   4.793   9.988  12.644  0.6915 -0.3446  0.1339
55587SOL     OW71571   7.230   5.543  12.244  0.3539  0.1936 -0.1561
55587SOL    HW171572   7.288   5.520  12.316 -2.0673 -1.0557  1.5355
55587SOL    HW271573   7.148   5.567  12.286 -0.6176  1.1791 -2.4597
55588SOL     OW71574   2.871  12.484  11.582 -0.1145  0.1814  0.1368
55588SOL    HW171575   2.963  12.459  11.568 -0.6449 -0.6093 -2.6305
55588SOL    HW271576   2.869  12.521  11.670  3.4149  2.7579 -0.6243
55589SOL     OW71577   0.969   3.362   6.216 -0.0135  0.1096 -0.0228
55589SOL    HW171578   1.017   3.320   6.287 -1.1355 -1.5291 -0.1827
55589SOL    HW271579   0.879   3.368   6.247 -0.1944  0.9390 -0.6579
55590SOL     OW71580   0.319   9.451   8.455  0.1089 -0.1871  0.5811
55590SOL    HW171581   0.268   9.481   8.531 -0.6158 -1.2354  0.5291
55590SOL    HW271582   0.261   9.389   8.410  0.5151  0.4495 -0.8629
55591SOL     OW71583   2.949   8.473   2.508  0.3131 -0.3499 -0.1941
55591SOL    HW171584   3.036   8.449   2.540 -0.3679 -1.6497  0.7733
55591SOL    HW271585   2.963   8.496   2.416  1.6054 -0.9785 -0.1796
55592SOL     OW71586   1.184   4.116   8.598 -0.0669  0.1926  0.9296
55592SOL    HW171587   1.176   4.210   8.612  0.3291  0.3266  0.2726
55592SOL    HW271588   1.224   4.083   8.679 -0.4537  0.5454  1.2684
55593SOL     OW71589   5.544   7.663   4.043 -0.1990 -0.3435  0.5086
55593SOL    HW171590   5.565   7.695   4.131  1.0631  0.4837 -0.0651
55593SOL    HW271591   5.627   7.665   3.996 -0.0977 -3.9192  0.1952
55594SOL     OW71592  11.653   1.333   9.337 -0.0609  0.1866 -0.0451
55594SOL    HW171593  11.660   1.242   9.310 -1.5846  0.2883 -0.9281
55594SOL    HW271594  11.584   1.333   9.404 -0.7003  0.7992 -0.6900
55595SOL     OW71595   2.379  10.915  10.879 -0.5941 -0.6900 -0.1598
55595SOL    HW171596   2.469  10.929  10.909 -0.5352 -2.1663  0.4423
55595SOL    HW271597   2.359  10.991  10.825  0.9579 -0.2578 -0.1549
55596SOL     OW71598   2.626   7.717   5.190 -0.2325  0.5256  0.3328
55596SOL    HW171599   2.571   7.669   5.129 -0.0105 -0.3283  0.7782
55596SOL    HW271600   2.716   7.692   5.166 -0.0160  1.8680 -0.3617
55597SOL     OW71601   4.141   8.723   2.357  0.2281 -0.1527  0.1036
55597SOL    HW171602   4.139   8.697   2.265  0.8590  1.6674 -0.4668
55597SOL    HW271603   4.056   8.764   2.373 -0.5345 -1.8853  0.8395
55598SOL     OW71604   8.374  10.169  11.782  0.0508 -0.0748 -0.2570
55598SOL    HW171605   8.450  10.116  11.756  0.6054  0.8058 -0.4501
55598SOL    HW271606   8.336  10.121  11.856  2.1604  0.6336  1.4071
55599SOL     OW71607   2.372   0.049   8.901 -0.8744 -0.1766 -0.1552
55599SOL    HW171608   2.362   0.132   8.855 -1.6557 -1.0148 -1.5651
55599SOL    HW271609   2.285   0.032   8.937 -0.9141 -0.7521 -0.5240
55600SOL     OW71610  10.184   7.185   0.685 -0.1208  0.3659 -0.3049
55600SOL    HW171611  10.111   7.176   0.747  0.9414  0.8275  1.0515
55600SOL    HW271612  10.165   7.267   0.638 -1.5021 -0.5400 -1.4288
55601SOL     OW71613   1.462   2.488   3.093  0.0861 -0.0409 -0.0981
55601SOL    HW171614   1.441   2.574   3.058  1.6281  0.4079  0.0107
55601SOL    HW271615   1.378   2.442   3.096 -1.2146  2.1958  1.9319
55602SOL     OW71616   3.306   2.300  10.531 -0.3267 -0.1217  0.4091
55602SOL    HW171617   3.267   2.384  10.506 -0.2461 -0.7103 -1.9807
55602SOL    HW271618   3.249   2.234  10.491  0.1348 -1.1761  1.4417
55603SOL     OW71619  11.287   6.727  12.037 -0.0980  0.2377 -0.3208
55603SOL    HW171620  11.323   6.815  12.029 -2.1480  1.1085 -0.5763
55603SOL    HW271621  11.280   6.712  12.131 -0.2126  0.5700 -0.2732
55604SOL     OW71622   8.524   6.166   9.998  0.1967 -0.2924 -0.4162
55604SOL    HW171623   8.493   6.118  10.076 -0.1592  1.5832  0.6448
55604SOL    HW271624   8.485   6.119   9.925 -0.9424 -1.0513  0.6284
55605SOL     OW71625   5.740   3.416   9.135  0.0284 -0.0539 -0.0854
55605SOL    HW171626   5.683   3.379   9.202 -0.7868  0.5582 -0.4253
55605SOL    HW271627   5.815   3.357   9.132  1.1315  1.0549  2.8517
55606SOL     OW71628  11.419   5.459   7.468 -0.0408  0.3867 -0.5532
55606SOL    HW171629  11.378   5.379   7.434  0.0195  0.9577 -2.0475
55606SOL    HW271630  11.346   5.520   7.478  0.0126  0.3776 -0.0674
55607SOL     OW71631   6.776   1.815   9.053  0.0480 -0.2030  0.1024
55607SOL    HW171632   6.728   1.817   9.136  1.0844 -0.4265  0.7294
55607SOL    HW271633   6.868   1.813   9.079  0.4932  2.1679 -1.0561
55608SOL     OW71634   0.363   2.854  12.072 -0.4412  0.6175  0.2017
55608SOL    HW171635   0.453   2.821  12.063 -1.3596 -1.8957 -0.8519
55608SOL    HW271636   0.328   2.807  12.147 -0.5568  2.5209  1.3910
55609SOL     OW71637   3.099   4.404   9.428 -0.3562 -0.3680 -0.0939
55609SOL    HW171638   3.043   4.369   9.498  0.4698  0.8701  1.2545
55609SOL    HW271639   3.063   4.491   9.410  0.0906 -0.2577 -0.4571
55610SOL     OW71640   1.970  11.642  10.436  0.4665  0.5493  0.0415
55610SOL    HW171641   2.029  11.630  10.361  0.3065  1.4204 -0.2272
55610SOL    HW271642   2.029  11.640  10.512  0.6423 -0.2130 -0.0976
55611SOL     OW71643   6.914   4.517   3.475  0.4704 -0.3053 -0.0406
55611SOL    HW171644   6.955   4.580   3.416  0.5989  0.0067  0.3783
55611SOL    HW271645   6.975   4.509   3.548  0.3408 -0.7368  0.0243
55612SOL     OW71646   8.784  10.827   9.065  0.5626 -0.2164  0.1144
55612SOL    HW171647   8.858  10.820   9.003  1.5207 -0.2259  1.2279
55612SOL    HW271648   8.823  10.860   9.145 -0.9819  1.5164  0.2076
55613SOL     OW71649  11.794   9.422   5.725 -0.5447 -0.0773 -0.1514
55613SOL    HW171650  11.854   9.381   5.788  0.4490  0.0913 -0.9593
55613SOL    HW271651  11.726   9.462   5.780  0.1256 -0.1956  0.8050
55614SOL     OW71652   3.651   3.490   9.151 -0.6764  0.3436  0.5197
55614SOL    HW171653   3.572   3.533   9.184 -1.1161 -0.7836  0.9852
55614SOL    HW271654   3.694   3.455   9.229  0.1784  0.7678  0.2471
55615SOL     OW71655   1.853  10.327   1.931 -0.2843 -0.3033 -0.2416
55615SOL    HW171656   1.948  10.331   1.941 -0.4306 -0.2559  1.3675
55615SOL    HW271657   1.839  10.266   1.858  0.9746 -0.2049 -0.5793
55616SOL     OW71658   4.499   6.067   2.742 -0.7108 -0.1555  0.3582
55616SOL    HW171659   4.485   6.133   2.810  0.4349 -1.0558  1.5132
55616SOL    HW271660   4.430   6.084   2.677 -3.5627 -0.8864  2.9847
55617SOL     OW71661   3.017   0.301   7.512  0.2615  0.1586 -0.0087
55617SOL    HW171662   2.964   0.292   7.591  0.2906  0.8219  0.0923
55617SOL    HW271663   2.959   0.274   7.441 -0.0331  0.3582  0.1552
55618SOL     OW71664   7.489  10.422   1.537 -0.2343  0.2482 -0.5195
55618SOL    HW171665   7.533  10.507   1.541  3.4095 -1.4911  0.7698
55618SOL    HW271666   7.511  10.387   1.450 -1.7247  0.5330 -1.0507
55619SOL     OW71667   2.724   1.642   2.062  0.4163  0.3197  0.2538
55619SOL    HW171668   2.772   1.698   2.001  1.6526 -0.2145  0.7075
55619SOL    HW271669   2.656   1.699   2.098  0.4395  0.9769 -0.7078
55620SOL     OW71670  10.265   6.496  10.255 -0.0293  0.1133  0.1565
55620SOL    HW171671  10.348   6.503  10.302 -0.1183  3.0682  0.0875
55620SOL    HW271672  10.279   6.425  10.192  3.1074  1.5839 -1.0091
55621SOL     OW71673   6.649  12.616   8.484  0.3458  0.1202 -0.3076
55621SOL    HW171674   6.704  12.676   8.535  0.6258 -0.2075 -0.2218
55621SOL    HW271675   6.711  12.570   8.427 -0.0703  1.3187 -1.8174
55622SOL     OW71676   9.077   0.391  10.263  0.0699  1.0953  0.3034
55622SOL    HW171677   9.060   0.307  10.305 -1.1424  1.3529  0.3819
55622SOL    HW271678   9.048   0.456  10.327 -0.4038  1.5269 -0.3245
55623SOL     OW71679   2.055   1.145  10.196 -0.1606  0.0995  0.5634
55623SOL    HW171680   2.139   1.118  10.233  0.4503  0.5752 -0.4288
55623SOL    HW271681   2.008   1.064  10.180  0.0722 -0.1674  1.2208
55624SOL     OW71682   6.669   9.332   3.974  0.0446 -0.2177  0.0643
55624SOL    HW171683   6.739   9.372   4.026 -1.2715  1.2949  0.7605
55624SOL    HW271684   6.641   9.402   3.915 -0.6381 -0.9229 -0.4601
55625SOL     OW71685  12.114   1.460   6.256  1.0407  0.0263 -0.2956
55625SOL    HW171686  12.049   1.448   6.326  1.9246  0.0889  0.5482
55625SOL    HW271687  12.188   1.502   6.299  1.3006  0.7814 -1.4403
55626SOL     OW71688   9.675   7.620   8.055  0.0087  0.0897 -0.7411
55626SOL    HW171689   9.745   7.595   7.995 -0.0255 -0.1100 -0.6969
55626SOL    HW271690   9.594   7.604   8.006 -0.0427 -0.6828 -0.4160
55627SOL     OW71691  12.073   6.620  10.267 -0.1451  0.1555 -0.2186
55627SOL    HW171692  12.041   6.698  10.313 -0.2459 -0.4076  0.6939
55627SOL    HW271693  12.005   6.554  10.283  0.2436 -0.3034 -0.4516
55628SOL     OW71694   2.021   6.743   1.693 -0.4731  0.0558  0.2405
55628SOL    HW171695   2.003   6.835   1.674  0.4243  0.2636  0.3415
55628SOL    HW271696   2.026   6.739   1.789  0.4557  0.1033  0.2005
55629SOL     OW71697   4.731   9.344   3.247 -0.4940 -0.2234  0.4302
55629SOL    HW171698   4.811   9.370   3.202  0.9040 -0.6192  2.5553
55629SOL    HW271699   4.698   9.270   3.196  0.0304  0.4366 -0.9181
55630SOL     OW71700   3.872  12.334   0.247  0.1674 -0.1357  0.2172
55630SOL    HW171701   3.797  12.359   0.300 -0.2494 -0.5568 -0.1685
55630SOL    HW271702   3.845  12.351   0.157  0.6525  0.0081  0.0946
55631SOL     OW71703   5.006   5.077  10.987 -0.1423  0.4102 -0.2215
55631SOL    HW171704   5.101   5.083  10.975  0.0135 -1.2273 -0.0286
55631SOL    HW271705   4.989   5.128  11.066  0.3566  1.8625 -0.9994
55632SOL     OW71706  10.002   8.800   9.130  0.5323 -0.0609 -0.1497
55632SOL    HW171707   9.931   8.862   9.114  1.2283  0.4962 -1.2252
55632SOL    HW271708   9.958   8.720   9.159 -0.4199  0.7450  0.7011
55633SOL     OW71709   4.032   5.987   3.703 -0.2186 -0.3894 -0.4390
55633SOL    HW171710   4.030   5.988   3.799  0.9022 -0.3843 -0.4021
55633SOL    HW271711   4.029   6.080   3.678 -1.1060 -0.4117 -0.4347
55634SOL     OW71712   6.719  11.330   9.971  0.1073 -0.6263 -0.0093
55634SOL    HW171713   6.665  11.313  10.048 -1.0734  1.9541 -0.1653
55634SOL    HW271714   6.717  11.248   9.922  0.1271 -2.0398  2.2103
55635SOL     OW71715   6.063  11.067   1.374  0.0056 -0.2423  0.0970
55635SOL    HW171716   6.043  11.115   1.293 -1.5611 -0.3007  0.4227
55635SOL    HW271717   6.023  11.119   1.443 -1.1488 -1.6408  0.5295
55636SOL     OW71718   6.893   1.145   3.463 -0.2748  0.2308  0.1070
55636SOL    HW171719   6.891   1.066   3.517  0.1177  0.2682  0.1796
55636SOL    HW271720   6.847   1.120   3.383  0.3148 -0.2474 -0.0943
55637SOL     OW71721   2.464  12.055   6.239  0.3902 -0.1510  0.0901
55637SOL    HW171722   2.390  12.059   6.300 -0.1991  0.6944 -0.6400
55637SOL    HW271723   2.423  12.041   6.154  1.0417  0.7052 -0.3729
55638SOL     OW71724   4.716  10.093   1.441  0.2535  1.0430  0.3065
55638SOL    HW171725   4.775  10.057   1.508  0.6262 -1.4596 -1.2092
55638SOL    HW271726   4.713  10.025   1.374 -2.5883  2.0999 -0.7674
55639SOL     OW71727   2.302  10.805   0.444 -0.1108 -0.4055 -0.2311
55639SOL    HW171728   2.391  10.780   0.465 -0.1877 -0.9019 -0.4976
55639SOL    HW271729   2.258  10.811   0.529 -0.3774 -2.2397 -0.2060
55640SOL     OW71730   0.427  11.389   7.910  0.2032  0.2988 -0.7755
55640SOL    HW171731   0.407  11.431   7.993 -2.1850  0.0422 -1.1561
55640SOL    HW271732   0.458  11.460   7.854 -0.4957  0.9377 -0.3731
55641SOL     OW71733  10.572  12.613   6.334 -0.1823 -0.0693 -0.1990
55641SOL    HW171734  10.498  12.567   6.294 -0.4185  1.2006 -1.3009
55641SOL    HW271735  10.532  12.690   6.375  0.6464  1.6720 -2.4266
55642SOL     OW71736   8.827   5.746  10.702  0.2732 -0.2415 -0.3327
55642SOL    HW171737   8.819   5.703  10.616  1.1257 -0.7737 -0.1617
55642SOL    HW271738   8.769   5.822  10.696  0.8982  0.1706 -1.6596
55643SOL     OW71739   9.434   3.651   7.526  0.3392  0.0002  0.2538
55643SOL    HW171740   9.453   3.734   7.568  1.7084 -0.2823  0.2429
55643SOL    HW271741   9.374   3.607   7.586 -1.1760  1.3595 -0.2017
55644SOL     OW71742   3.364   1.595   8.555 -0.0569  0.4309 -0.1714
55644SOL    HW171743   3.418   1.653   8.501  1.2114 -0.6418 -0.1059
55644SOL    HW271744   3.427   1.545   8.607 -1.0608 -1.4001 -0.6391
55645SOL     OW71745   9.013   6.475   4.865 -0.1064  0.1524 -0.0283
55645SOL    HW171746   8.935   6.472   4.919  0.6320  0.2112  1.0786
55645SOL    HW271747   9.004   6.556   4.814  0.0853  1.1375  1.4488
55646SOL     OW71748  12.620   0.083   3.130  0.0763  0.5100 -0.0289
55646SOL    HW171749  12.708   0.120   3.130  0.3399 -0.0915  0.4206
55646SOL    HW271750  12.629   0.001   3.179 -0.6826  0.3256 -0.1906
55647SOL     OW71751  11.670   5.903   0.545 -0.0044 -0.0530 -0.2586
55647SOL    HW171752  11.629   5.878   0.462  0.2370  0.4610 -0.5411
55647SOL    HW271753  11.678   5.822   0.594 -1.5712 -0.1435 -0.1039
55648SOL     OW71754   8.200   4.163   9.052  0.4357 -0.5355  1.0052
55648SOL    HW171755   8.246   4.137   8.972  0.0372  0.5963  0.3807
55648SOL    HW271756   8.182   4.256   9.040  1.0134 -0.1431  2.7396
55649SOL     OW71757   9.891   1.996  11.461  0.2468 -0.0741 -0.2045
55649SOL    HW171758   9.832   1.971  11.533  1.1705  0.1021  0.6287
55649SOL    HW271759   9.974   2.015  11.504  0.1846  2.4286 -1.0193
55650SOL     OW71760   5.188   5.794  10.078 -0.1786 -0.6813 -0.4663
55650SOL    HW171761   5.119   5.734  10.047 -1.0871 -0.0386  0.2435
55650SOL    HW271762   5.143   5.878  10.087  0.9696  0.0065 -1.0014
55651SOL     OW71763   3.628   8.611  10.963  0.0783 -0.4111  0.0167
55651SOL    HW171764   3.696   8.676  10.978 -0.1859 -0.2405  0.4753
55651SOL    HW271765   3.655   8.535  11.014  0.7494 -0.9293 -1.0655
55652SOL     OW71766   3.092  10.577   2.937 -0.3707 -0.4817  0.1879
55652SOL    HW171767   3.147  10.655   2.928 -2.2775  0.8734 -0.5625
55652SOL    HW271768   3.149  10.504   2.915  0.6739  0.9981 -2.4853
55653SOL     OW71769   1.002   8.079  10.929 -0.2058 -0.9121 -0.0604
55653SOL    HW171770   1.021   8.019  11.000 -2.1011  0.1511  1.4452
55653SOL    HW271771   0.936   8.034  10.875 -1.4579 -0.3505  0.9420
55654SOL     OW71772   6.678   5.655   7.471  0.4681  0.1597 -0.0187
55654SOL    HW171773   6.720   5.648   7.557 -0.2070  0.5578  0.3584
55654SOL    HW271774   6.614   5.583   7.471  0.1216  0.4630  0.0214
55655SOL     OW71775   6.458   3.796   6.802 -0.2784 -0.1013 -0.3415
55655SOL    HW171776   6.497   3.762   6.721  0.9418 -0.6499  0.4452
55655SOL    HW271777   6.368   3.818   6.778 -0.6301 -2.3231 -1.3209
55656SOL     OW71778  11.180   4.508   6.535  0.0525 -0.2202  0.2259
55656SOL    HW171779  11.219   4.532   6.619  2.1812 -1.4995 -0.3385
55656SOL    HW271780  11.127   4.431   6.555  0.7927 -0.7015  0.3444
55657SOL     OW71781  10.246   1.093   5.571 -0.1485 -0.0342 -0.1524
55657SOL    HW171782  10.224   1.174   5.617 -1.5243 -1.3889  1.7475
55657SOL    HW271783  10.278   1.034   5.639 -0.2601 -1.4656 -1.2815
55658SOL     OW71784   5.132   1.849  11.728  0.1690  0.1565 -0.4373
55658SOL    HW171785   5.065   1.876  11.665 -0.5436 -0.0041  0.2331
55658SOL    HW271786   5.132   1.753  11.723 -0.6093  0.0925  0.5143
55659SOL     OW71787   4.390   9.714   9.517  0.5588 -0.0499 -0.0634
55659SOL    HW171788   4.363   9.805   9.506  2.8608  0.4586 -2.8491
55659SOL    HW271789   4.468   9.719   9.572  0.1606 -0.4719  0.5502
55660SOL     OW71790   1.690   4.805  10.741 -0.0644 -0.0585  0.0491
55660SOL    HW171791   1.731   4.861  10.807 -3.5703  1.1021  1.4920
55660SOL    HW271792   1.670   4.864  10.668  2.4963 -1.0493 -1.6014
55661SOL     OW71793   3.652   9.021  11.414  0.4887  0.3239  0.3059
55661SOL    HW171794   3.676   8.950  11.474  2.3657  1.6081  1.1934
55661SOL    HW271795   3.722   9.086  11.425  0.1777  1.2256 -2.3155
55662SOL     OW71796  10.873   9.252   7.566  0.2582 -0.8072 -0.0468
55662SOL    HW171797  10.857   9.322   7.503  0.5193  0.3983  1.1751
55662SOL    HW271798  10.913   9.296   7.642  2.7384 -2.5923 -0.1623
55663SOL     OW71799   7.087   8.428   1.437 -0.4287 -0.5005 -0.2987
55663SOL    HW171800   7.029   8.407   1.364  0.5502 -1.0580 -0.9360
55663SOL    HW271801   7.066   8.363   1.504 -0.5222 -0.7139 -0.5355
55664SOL     OW71802   6.660   3.902   3.110 -0.0464  0.0489 -0.2114
55664SOL    HW171803   6.626   3.968   3.170  1.5149 -0.0945  0.8633
55664SOL    HW271804   6.728   3.856   3.159 -0.4785 -1.7841 -1.2300
55665SOL     OW71805   3.374  11.579   7.606 -0.5880  0.0882  0.4903
55665SOL    HW171806   3.424  11.549   7.681  0.4350  1.6439  0.4537
55665SOL    HW271807   3.330  11.500   7.574  1.3727 -1.2274  0.8638
55666SOL     OW71808   7.159   3.743   2.075 -0.0242 -0.0381  0.0905
55666SOL    HW171809   7.248   3.779   2.075  0.5314 -1.3583  0.1222
55666SOL    HW271810   7.138   3.734   2.168  0.4193 -1.1428  0.0953
55667SOL     OW71811   4.974   7.341   8.049  0.1994 -0.0352 -0.0285
55667SOL    HW171812   4.923   7.290   8.111  1.9893  1.5284  2.9844
55667SOL    HW271813   4.983   7.427   8.090  2.4351  0.7558 -1.9290
55668SOL     OW71814   3.082  12.446  10.995  0.4475  0.4123  0.2376
55668SOL    HW171815   3.020  12.484  11.057 -0.0581  0.0949 -0.0679
55668SOL    HW271816   3.153  12.411  11.050 -0.6721 -1.1304  0.7583
55669SOL     OW71817  11.439   5.017   2.897  0.3715 -0.3941 -0.4598
55669SOL    HW171818  11.358   4.969   2.913 -1.0619  1.8463 -0.4827
55669SOL    HW271819  11.430   5.050   2.807  0.6830  0.9015 -0.0471
55670SOL     OW71820  12.592   9.698  11.880  0.4352  0.1286  0.0193
55670SOL    HW171821  12.571   9.626  11.821  0.7839 -1.2858  1.5489
55670SOL    HW271822  12.686   9.691  11.895  0.1861 -0.2362  1.5735
55671SOL     OW71823  11.442   4.465   8.850 -0.2847  0.5986  0.5799
55671SOL    HW171824  11.486   4.518   8.916 -1.1765  0.9073  0.9506
55671SOL    HW271825  11.433   4.524   8.774  0.6171  0.2880  0.2268
55672SOL     OW71826  10.788   7.861   5.349  0.0597 -0.0790 -0.2713
55672SOL    HW171827  10.783   7.951   5.381  0.3914  0.2261 -1.0488
55672SOL    HW271828  10.879   7.835   5.363  0.0703 -0.1358 -0.4369
55673SOL     OW71829   1.998   4.746   9.516 -0.0126 -0.1200  0.9091
55673SOL    HW171830   2.000   4.787   9.603  0.1440  0.4174  0.6527
55673SOL    HW271831   2.089   4.747   9.486  0.1959 -1.7294  1.3866
55674SOL     OW71832   7.116   1.042   3.951  0.2400  0.9466 -0.5908
55674SOL    HW171833   7.167   1.051   4.031  1.3545 -1.1518 -0.9898
55674SOL    HW271834   7.177   1.064   3.880  0.0766  0.1611 -0.9840
55675SOL     OW71835   9.673   9.274   6.853 -0.7493  0.4079 -0.6552
55675SOL    HW171836   9.579   9.259   6.843 -0.7898  0.4313 -0.3379
55675SOL    HW271837   9.682   9.369   6.856 -0.6083  0.4327 -1.6202
55676SOL     OW71838   8.763   8.799  11.536  0.2859  0.0554 -0.0905
55676SOL    HW171839   8.740   8.809  11.443 -2.5210  2.6002  0.7028
55676SOL    HW271840   8.721   8.717  11.562 -0.5063  0.2456 -0.7116
55677SOL     OW71841   1.775   6.922  12.308 -0.4143 -0.2783 -0.2340
55677SOL    HW171842   1.687   6.888  12.290 -0.4898 -0.3222  0.2102
55677SOL    HW271843   1.768   7.016  12.291 -1.0636  0.0447  1.6395
55678SOL     OW71844   9.619   1.398   3.358  0.0926  0.1990 -0.0359
55678SOL    HW171845   9.639   1.320   3.306 -0.3743 -0.0644  0.1691
55678SOL    HW271846   9.527   1.418   3.337  0.1373  0.5546  0.0912
55679SOL     OW71847   3.987   6.307   4.788 -0.5218 -0.2159 -0.1481
55679SOL    HW171848   4.073   6.342   4.761 -1.0747  0.5666 -0.9623
55679SOL    HW271849   3.936   6.306   4.707 -0.7218 -2.4245 -0.0502
55680SOL     OW71850   6.839  10.871   0.455  0.5175  0.0347 -0.1158
55680SOL    HW171851   6.841  10.805   0.386  1.9917  0.8056 -0.8460
55680SOL    HW271852   6.851  10.821   0.536 -0.9400 -0.8478 -0.4015
55681SOL     OW71853   8.191   6.048   3.295  0.2369  0.1889  0.4007
55681SOL    HW171854   8.195   6.140   3.270 -0.3607  0.0420 -0.2452
55681SOL    HW271855   8.143   6.047   3.378 -0.0655  0.4224  0.2275
55682SOL     OW71856  11.551  11.213   1.212  0.6757 -0.3410  0.3053
55682SOL    HW171857  11.539  11.305   1.237  0.7196 -0.9412  2.8168
55682SOL    HW271858  11.617  11.180   1.272  0.9613 -1.9395 -0.8139
55683SOL     OW71859   7.139  12.314   1.993  0.0064 -0.2633  0.2129
55683SOL    HW171860   7.174  12.324   1.904 -1.7883 -0.5836 -0.5809
55683SOL    HW271861   7.215  12.290   2.046  1.3045  0.8781 -1.0368
55684SOL     OW71862  10.074  10.334   9.653 -0.2122 -0.0268  0.0626
55684SOL    HW171863  10.162  10.361   9.624 -0.3210  0.7398  0.4201
55684SOL    HW271864  10.079  10.336   9.748 -0.0695 -1.8361  0.1400
55685SOL     OW71865   8.985   4.822  12.516 -0.0755  0.6040  0.3735
55685SOL    HW171866   9.019   4.779  12.595  2.2079  2.6019  0.5865
55685SOL    HW271867   8.991   4.916  12.535 -0.2574  1.1199 -1.8733
55686SOL     OW71868   0.398   8.938  10.319  0.3305  0.6585  0.3802
55686SOL    HW171869   0.458   8.978  10.381  0.8681 -0.3338  0.5269
55686SOL    HW271870   0.311   8.959  10.352  0.5870 -0.5182  1.9584
55687SOL     OW71871  11.083   0.426   4.740 -0.1708 -0.4163 -0.0832
55687SOL    HW171872  11.066   0.508   4.786  1.4809 -0.0468 -0.0678
55687SOL    HW271873  11.003   0.375   4.751 -0.2562  0.1173  2.2202
55688SOL     OW71874   9.988   5.078   5.416  0.6971 -0.4073  0.2474
55688SOL    HW171875  10.029   5.032   5.490  0.6801  1.8135  1.7115
55688SOL    HW271876  10.053   5.142   5.388  0.2406 -0.4400 -0.9398
55689SOL     OW71877   5.764   2.557   4.921  0.1181 -0.5016 -0.1497
55689SOL    HW171878   5.722   2.583   5.002 -1.3918  0.0851 -1.0728
55689SOL    HW271879   5.799   2.470   4.938 -0.0109 -0.3027  1.1716
55690SOL     OW71880   4.712   8.363   6.546  0.1577  0.2937  0.0900
55690SOL    HW171881   4.663   8.389   6.468  1.9001  1.7987 -0.5506
55690SOL    HW271882   4.728   8.269   6.534 -1.6322 -0.0323 -0.1534
55691SOL     OW71883   5.247   2.178   6.497  0.1297 -0.0921 -0.4954
55691SOL    HW171884   5.262   2.165   6.404  2.2359 -0.0094 -0.1976
55691SOL    HW271885   5.269   2.270   6.512 -0.9785  0.1228 -0.0218
55692SOL     OW71886   9.483   1.183   1.663 -0.4017  0.2855 -0.1712
55692SOL    HW171887   9.459   1.235   1.739 -1.4094  0.0900 -0.3435
55692SOL    HW271888   9.459   1.093   1.687  3.7651 -0.6686  1.2234
55693SOL     OW71889   6.194   1.519   1.446 -0.5579 -0.6237  0.6285
55693SOL    HW171890   6.245   1.498   1.368 -0.4236 -0.0008  0.5431
55693SOL    HW271891   6.127   1.452   1.450 -0.1677 -1.0354  0.3375
55694SOL     OW71892   5.352  12.172  10.780 -0.0593 -0.1454 -0.0565
55694SOL    HW171893   5.429  12.225  10.760 -0.3476  0.9647  1.5381
55694SOL    HW271894   5.336  12.121  10.701  1.8939  0.1050 -0.6507
55695SOL     OW71895   7.827   9.919   2.743  0.5816  0.0330 -0.1220
55695SOL    HW171896   7.808   9.925   2.837  0.5239 -1.1177 -0.0555
55695SOL    HW271897   7.790   9.836   2.716  0.2200  0.5492 -1.2726
55696SOL     OW71898   7.283   0.880   2.045 -0.3534  0.2839 -0.4245
55696SOL    HW171899   7.334   0.912   2.119 -0.4691 -0.2707 -0.1006
55696SOL    HW271900   7.274   0.956   1.987 -1.6881  1.1861  0.8973
55697SOL     OW71901   1.898   9.906   0.058  0.2499 -0.0047  0.2874
55697SOL    HW171902   1.899   9.873  -0.032  0.7320 -0.3677  0.4189
55697SOL    HW271903   1.918   9.829   0.112 -1.1037 -0.0199  0.7887
55698SOL     OW71904   5.098  12.450  11.246  0.5939 -0.1952 -0.2737
55698SOL    HW171905   5.190  12.469  11.265  0.2477  0.1902  1.1158
55698SOL    HW271906   5.061  12.422  11.330 -0.4871 -0.6480 -0.8804
55699SOL     OW71907   4.799   1.982   9.458 -0.1217  0.6030 -0.7032
55699SOL    HW171908   4.895   1.974   9.455 -0.1708  0.3784 -2.1761
55699SOL    HW271909   4.770   1.959   9.370 -1.6446 -0.6541  0.0819
55700SOL     OW71910   7.403  11.519   7.585 -0.3171 -0.0237  0.2007
55700SOL    HW171911   7.442  11.604   7.607 -1.0237 -0.1545  2.1346
55700SOL    HW271912   7.310  11.530   7.605 -0.6400 -0.8698 -0.7703
55701SOL     OW71913  11.180   9.405  12.581  0.2659  0.3014  0.0077
55701SOL    HW171914  11.213   9.365  12.500  0.6933  1.8049 -0.6076
55701SOL    HW271915  11.258   9.433  12.628 -0.0123  0.2628  0.4963
55702SOL     OW71916   4.674   6.035   3.857 -0.0939 -0.4935 -0.1952
55702SOL    HW171917   4.689   6.021   3.950  1.0345  1.7336  0.0242
55702SOL    HW271918   4.758   6.012   3.815 -0.1945 -0.2717 -0.5211
55703SOL     OW71919   3.702  11.589   8.332  0.2756  0.2505 -0.0681
55703SOL    HW171920   3.732  11.668   8.287 -0.2490 -0.0157 -0.9116
55703SOL    HW271921   3.622  11.615   8.377  0.7983  0.5157  0.7329
55704SOL     OW71922   9.496  11.037  12.535  0.6814 -0.1913 -0.0666
55704SOL    HW171923   9.441  10.989  12.596 -0.7803  0.0049 -1.1717
55704SOL    HW271924   9.551  10.970  12.494  0.1684 -0.6215 -0.0638
55705SOL     OW71925   3.509  11.399   0.323  0.1666  0.5148  0.2873
55705SOL    HW171926   3.467  11.483   0.336  1.2086  0.9155  1.2956
55705SOL    HW271927   3.575  11.415   0.255  0.1304  0.4219  0.2297
55706SOL     OW71928  11.785   9.769   7.594 -0.8054 -0.0331  0.4932
55706SOL    HW171929  11.833   9.804   7.519 -1.1237  1.0828  0.7919
55706SOL    HW271930  11.847   9.776   7.667 -0.2559 -1.7391  0.2359
55707SOL     OW71931   5.242  12.038   4.186  0.0738  1.1529  0.0769
55707SOL    HW171932   5.263  12.128   4.161  1.1041  1.0823  0.6202
55707SOL    HW271933   5.321  12.007   4.229 -0.9194  0.5777  1.5393
55708SOL     OW71934   8.391   5.318  10.132  0.0658  0.2221 -0.6715
55708SOL    HW171935   8.392   5.396  10.187  1.4697  1.0010 -1.7268
55708SOL    HW271936   8.414   5.350  10.044 -0.6074 -1.1989 -1.3988
55709SOL     OW71937  10.380   1.992   6.564 -0.5283 -0.0163  0.0099
55709SOL    HW171938  10.352   1.982   6.473  1.0365  0.1810 -0.5207
55709SOL    HW271939  10.352   1.911   6.607 -1.0994 -0.1985 -0.6870
55710SOL     OW71940   4.740   3.294  11.277  0.5943  0.3806  0.0857
55710SOL    HW171941   4.760   3.200  11.278 -0.1654  0.1469 -1.8478
55710SOL    HW271942   4.645   3.298  11.275  0.6333  1.1655 -0.4331
55711SOL     OW71943  10.658  11.865   4.296  0.2911 -0.0390 -0.0497
55711SOL    HW171944  10.637  11.899   4.208  1.5364 -1.4054 -0.9208
55711SOL    HW271945  10.598  11.791   4.308  1.0613 -0.7243 -0.3585
55712SOL     OW71946   4.580   2.315   2.939 -0.3248 -0.2077  0.0679
55712SOL    HW171947   4.663   2.319   2.986  0.0012  0.0567 -0.5259
55712SOL    HW271948   4.514   2.309   3.009  0.2557 -1.8484  0.5067
55713SOL     OW71949  10.467  10.907   3.563  0.0297 -0.3945  0.0931
55713SOL    HW171950  10.454  10.862   3.480  0.3174 -1.3025  0.5285
55713SOL    HW271951  10.429  10.994   3.550  3.1255  0.7875 -2.1779
55714SOL     OW71952   0.824  12.371   8.708  0.9274 -0.1616 -0.4088
55714SOL    HW171953   0.804  12.418   8.627 -1.6825  1.5620  1.0835
55714SOL    HW271954   0.779  12.287   8.699  2.1838 -0.7601 -1.4259
55715SOL     OW71955   9.822  10.483   4.902 -0.4903  0.3474 -0.1487
55715SOL    HW171956   9.800  10.575   4.887 -3.0895 -0.2510 -0.5456
55715SOL    HW271957   9.790  10.438   4.824 -0.8844 -1.0831  0.7991
55716SOL     OW71958   8.174   1.625   0.175  0.2336 -1.0054 -0.3125
55716SOL    HW171959   8.141   1.694   0.232  0.7157 -1.9046  1.1075
55716SOL    HW271960   8.197   1.670   0.093 -1.0194  0.2110 -0.0274
55717SOL     OW71961   9.226   7.600   1.608 -0.4714 -0.4617 -0.1855
55717SOL    HW171962   9.170   7.648   1.546 -0.7612 -0.7275 -0.1302
55717SOL    HW271963   9.271   7.669   1.657  0.1343 -0.2351 -1.0181
55718SOL     OW71964  12.160   2.679  12.010 -0.0175 -0.3451 -0.0020
55718SOL    HW171965  12.189   2.750  11.952  1.5607 -0.6858  0.3297
55718SOL    HW271966  12.080   2.646  11.968 -1.5178  2.3655  0.4592
55719SOL     OW71967   0.818  11.296   3.328 -0.0382  1.0150 -0.0301
55719SOL    HW171968   0.730  11.261   3.311  0.4619 -1.0229  1.1952
55719SOL    HW271969   0.803  11.389   3.347 -2.1418  0.4562  1.4724
55720SOL     OW71970   3.218   5.808   8.364 -0.7043  0.0612 -0.4904
55720SOL    HW171971   3.209   5.768   8.450 -0.2054  0.6571 -0.1580
55720SOL    HW271972   3.288   5.872   8.374 -1.0119  0.5231 -1.1993
55721SOL     OW71973   0.724   6.351   0.089  0.1572 -0.2111  0.3088
55721SOL    HW171974   0.745   6.269   0.133 -1.0202 -1.2017 -0.9213
55721SOL    HW271975   0.657   6.391   0.145  0.8106 -0.0091  0.9665
55722SOL     OW71976   4.142   9.504  10.325 -0.1365  1.1449 -0.4967
55722SOL    HW171977   4.197   9.498  10.247 -1.6145 -1.3797 -1.4580
55722SOL    HW271978   4.198   9.477  10.397  0.4118  0.5186 -1.1457
55723SOL     OW71979   7.250   2.173   7.259 -0.0049 -0.5166  0.1757
55723SOL    HW171980   7.341   2.147   7.274  0.8923  2.4275  0.5292
55723SOL    HW271981   7.199   2.119   7.319  1.9739  0.4614  2.9629
55724SOL     OW71982   9.537   6.332   6.342 -0.4266  0.1591  0.4418
55724SOL    HW171983   9.487   6.375   6.272  0.3498 -0.6010 -0.6084
55724SOL    HW271984   9.544   6.241   6.314  0.8197  0.0705  0.9756
55725SOL     OW71985   2.241   9.445   6.436  0.2477  0.3653 -0.0285
55725SOL    HW171986   2.234   9.524   6.383 -0.0038  0.2854 -0.1120
55725SOL    HW271987   2.306   9.391   6.389  2.5785  1.6811  1.4782
55726SOL     OW71988  12.587   2.678   5.595  0.2366 -0.5039 -0.4518
55726SOL    HW171989  12.675   2.704   5.568 -0.0619 -0.1997 -1.1464
55726SOL    HW271990  12.601   2.600   5.649  0.9832 -0.0651  0.0119
55727SOL     OW71991   6.930   4.284   8.951  0.4646 -0.3609 -0.1906
55727SOL    HW171992   6.888   4.365   8.923 -0.1755 -0.9234 -0.8870
55727SOL    HW271993   6.858   4.225   8.973  0.9259 -0.7212  0.4004
55728SOL     OW71994   9.203  11.858   4.259  0.7011  0.5649  0.3960
55728SOL    HW171995   9.181  11.893   4.345  1.6324 -3.1509  2.3658
55728SOL    HW271996   9.280  11.803   4.274 -0.5120 -2.1486 -2.2442
55729SOL     OW71997   7.727   9.360   1.452  0.0547 -0.2022  0.4804
55729SOL    HW171998   7.669   9.297   1.411  0.5977  0.3111 -1.1230
55729SOL    HW271999   7.669   9.431   1.481 -0.2638 -0.3035  0.0904
55730SOL     OW72000   8.635   1.995   2.626 -0.5153 -0.1398  0.2156
55730SOL    HW172001   8.660   2.055   2.697  1.6151 -0.4909 -0.1826
55730SOL    HW272002   8.652   1.907   2.662 -0.4233 -0.3651 -0.3686
55731SOL     OW72003   6.417   6.495   3.972 -0.0263  0.1858  0.0618
55731SOL    HW172004   6.459   6.414   4.003  1.6243 -0.0036 -2.3520
55731SOL    HW272005   6.334   6.498   4.018  0.7583 -1.7899  1.7862
55732SOL     OW72006  11.458   3.984   4.558 -0.0044  0.1340 -0.2589
55732SOL    HW172007  11.506   3.903   4.546  0.2326  0.0810  0.9121
55732SOL    HW272008  11.526   4.050   4.573 -0.2529  0.0341  1.5445
55733SOL     OW72009   9.388   1.216   7.833 -0.1097 -0.2424  0.4827
55733SOL    HW172010   9.362   1.189   7.745 -0.1127  0.4967  0.2505
55733SOL    HW272011   9.477   1.249   7.823 -0.2059  0.0900  0.7059
55734SOL     OW72012   9.939   1.216   0.951 -0.4001  0.0411 -0.4657
55734SOL    HW172013   9.972   1.164   1.024 -0.8145  0.2985 -0.0862
55734SOL    HW272014  10.005   1.284   0.937  0.0569 -0.4746 -0.8450
55735SOL     OW72015   2.776   5.436   6.627 -0.0773 -0.9169  0.1563
55735SOL    HW172016   2.745   5.426   6.717  0.5422  3.0783  1.0136
55735SOL    HW272017   2.695   5.438   6.575 -0.6755 -0.0923  1.0733
55736SOL     OW72018   9.330  10.565   0.430  0.5997 -0.5673 -0.1210
55736SOL    HW172019   9.384  10.616   0.370 -1.9220 -0.3046 -2.3230
55736SOL    HW272020   9.310  10.625   0.501  1.5101 -0.0368 -0.3001
55737SOL     OW72021  12.175   6.524   0.159 -0.1806  0.3867  0.1778
55737SOL    HW172022  12.124   6.600   0.132 -1.6809 -0.2810  1.0536
55737SOL    HW272023  12.238   6.559   0.222 -1.1286  0.8638  0.8841
55738SOL     OW72024   8.610  12.074  11.901  0.2090  0.0896 -0.0492
55738SOL    HW172025   8.607  12.124  11.819  2.1121 -0.1582 -0.3275
55738SOL    HW272026   8.700  12.040  11.904  0.0165 -0.3248  1.8976
55739SOL     OW72027   4.157   4.852   2.156  0.0407 -0.3013  0.2492
55739SOL    HW172028   4.175   4.941   2.188  1.4551 -0.2146 -0.6855
55739SOL    HW272029   4.121   4.806   2.231  0.2966  0.7738  1.0545
55740SOL     OW72030   6.790   5.911   4.899 -0.4526  0.4449 -0.1945
55740SOL    HW172031   6.753   5.999   4.895 -0.6553  0.3882  0.3151
55740SOL    HW272032   6.722   5.854   4.865  0.3752  0.6605 -2.3685
55741SOL     OW72033   1.698   1.759   4.415 -0.2533 -0.2715  0.0666
55741SOL    HW172034   1.745   1.679   4.439 -1.3440 -0.4452  1.8206
55741SOL    HW272035   1.692   1.808   4.497 -2.0415  0.3070 -0.3782
55742SOL     OW72036   8.109   5.676   4.826  0.3498  0.3634  0.4587
55742SOL    HW172037   8.101   5.582   4.841  3.0037  0.3236  2.3272
55742SOL    HW272038   8.157   5.684   4.745 -0.1103  0.1395  0.1581
55743SOL     OW72039   9.950   8.652  10.726 -0.7958 -0.2083  0.3864
55743SOL    HW172040   9.892   8.720  10.761 -1.3371 -1.3648  1.8258
55743SOL    HW272041   9.898   8.608  10.659 -0.3101  0.9861 -0.8320
55744SOL     OW72042   9.953  11.085   4.831  0.4573  0.1907  1.3394
55744SOL    HW172043   9.933  11.087   4.737 -0.4582 -0.0216  1.5181
55744SOL    HW272044  10.041  11.049   4.836  1.0004  1.3163  0.4942
55745SOL     OW72045   9.935   1.522   3.146 -0.1897  0.8396  0.2856
55745SOL    HW172046   9.996   1.581   3.191  0.0595  1.2890 -0.6107
55745SOL    HW272047   9.979   1.502   3.063 -0.4852 -0.2393  0.3800
55746SOL     OW72048   3.846  10.101   2.513 -0.0510 -1.2017 -0.7625
55746SOL    HW172049   3.914  10.035   2.503  0.1111 -1.2090  0.3049
55746SOL    HW272050   3.850  10.152   2.432  2.8468  0.3337  0.2278
55747SOL     OW72051   7.840   4.114   3.094  0.6207  0.1127  0.1778
55747SOL    HW172052   7.826   4.199   3.136 -0.3473 -0.4414  1.0166
55747SOL    HW272053   7.931   4.093   3.111  0.2403 -0.1530  2.1644
55748SOL     OW72054   9.150   1.339   6.676  0.1027  0.2594 -0.0315
55748SOL    HW172055   9.068   1.330   6.725  0.4738  2.4810  1.0892
55748SOL    HW272056   9.213   1.284   6.723 -0.5048 -0.8008 -0.4170
55749SOL     OW72057  10.119  11.323   7.364 -0.5443 -0.3572 -0.6768
55749SOL    HW172058  10.074  11.353   7.443 -0.7450 -0.2378 -0.8349
55749SOL    HW272059  10.060  11.347   7.293 -1.8737 -3.2365 -0.6865
55750SOL     OW72060   1.679  11.986   9.953  0.2051 -0.1893  0.3133
55750SOL    HW172061   1.706  11.896   9.972 -0.3325 -0.9650 -2.1625
55750SOL    HW272062   1.583  11.981   9.945  0.3648 -0.2919 -3.3298
55751SOL     OW72063   6.062   4.578   6.218  0.2047 -0.0920  0.5356
55751SOL    HW172064   6.007   4.611   6.147  0.2336  0.1076  0.6050
55751SOL    HW272065   6.007   4.589   6.297 -0.2187 -1.2378  0.4194
55752SOL     OW72066   9.663   0.533   6.500  0.1775 -0.0862 -0.1731
55752SOL    HW172067   9.678   0.554   6.408 -0.1866 -1.7194 -0.6301
55752SOL    HW272068   9.570   0.547   6.513  0.2731  0.3870  0.0253
55753SOL     OW72069   0.906   9.161   0.833  0.2028 -0.2269  0.2922
55753SOL    HW172070   0.849   9.236   0.816  0.2368 -0.2384  0.1176
55753SOL    HW272071   0.960   9.154   0.754  0.0167 -0.5998  0.1919
55754SOL     OW72072   2.159   0.645   4.735  0.1787 -0.3997  0.3098
55754SOL    HW172073   2.200   0.712   4.790  1.6763 -0.7173 -0.3932
55754SOL    HW272074   2.100   0.695   4.677 -0.4999  0.0488  1.3497
55755SOL     OW72075   4.020   7.344   5.532  0.2725  0.6680 -0.7702
55755SOL    HW172076   4.046   7.252   5.525 -2.3148 -0.2615  0.2764
55755SOL    HW272077   4.045   7.369   5.621  1.2755  1.0882 -1.1687
55756SOL     OW72078   9.381   4.875   7.490  0.1345  0.0314 -0.0438
55756SOL    HW172079   9.327   4.874   7.412  0.0644 -2.1072 -0.0334
55756SOL    HW272080   9.352   4.799   7.540  2.1754 -0.3508  0.6400
55757SOL     OW72081   6.860  11.688   2.779 -0.4979 -0.8514  0.2312
55757SOL    HW172082   6.812  11.754   2.728  0.2417  0.0920  0.7268
55757SOL    HW272083   6.950  11.693   2.746  0.4336  1.0455  2.7484
55758SOL     OW72084   0.223   3.504   8.662  0.5038 -0.7700  0.1855
55758SOL    HW172085   0.225   3.441   8.734  0.4953  1.4178  2.2643
55758SOL    HW272086   0.262   3.583   8.699  0.5576  0.4652 -2.2784
55759SOL     OW72087   5.861   9.650   9.769 -0.5805 -0.7837  0.5313
55759SOL    HW172088   5.956   9.656   9.779 -0.6989  1.4201  0.8097
55759SOL    HW272089   5.841   9.558   9.790  1.4744 -1.3403  0.3346
55760SOL     OW72090   0.262   8.405   4.247 -0.0235 -0.3744 -0.0701
55760SOL    HW172091   0.213   8.326   4.269  1.9812 -1.1523  2.0011
55760SOL    HW272092   0.314   8.381   4.170  2.4167 -2.0343  1.9448
55761SOL     OW72093   5.042   1.821   3.116  0.2222 -0.3478 -0.6862
55761SOL    HW172094   5.094   1.824   3.035  0.3901 -1.0296 -0.6093
55761SOL    HW272095   5.090   1.877   3.177 -1.1329  2.1343 -1.7338
55762SOL     OW72096   2.165   5.580   6.504 -0.1437  1.1570 -0.5547
55762SOL    HW172097   2.101   5.625   6.558 -2.2369  0.4079 -2.2842
55762SOL    HW272098   2.201   5.512   6.561  1.9326  3.8103  1.5876
55763SOL     OW72099  10.237  10.942   4.338  0.3787 -0.4384 -0.1846
55763SOL    HW172100  10.160  10.960   4.285 -0.4084 -0.9602  0.7545
55763SOL    HW272101  10.282  10.871   4.292 -0.7313 -1.4488  0.2334
55764SOL     OW72102   7.758   0.647   5.640 -0.2019 -0.2282 -0.2376
55764SOL    HW172103   7.783   0.680   5.554 -1.1459  4.9661  1.1420
55764SOL    HW272104   7.840   0.616   5.679  1.0065  1.1381 -1.5729
55765SOL     OW72105  12.537   7.112   2.652  0.4469 -0.5316  0.1375
55765SOL    HW172106  12.483   7.144   2.580 -1.8712 -1.0983  1.5141
55765SOL    HW272107  12.569   7.027   2.621  0.3773 -0.2836 -0.6395
55766SOL     OW72108   0.559   8.641   7.676 -0.1775 -0.4219  0.2429
55766SOL    HW172109   0.487   8.697   7.645 -0.7586 -0.8727  0.7490
55766SOL    HW272110   0.522   8.553   7.674 -0.2285 -0.4849  2.1722
55767SOL     OW72111   7.928   5.640   1.052  0.1126 -0.1697 -0.0167
55767SOL    HW172112   8.018   5.609   1.051  0.4209  0.6729  0.8112
55767SOL    HW272113   7.882   5.579   1.109  0.5914  0.5229  1.1358
55768SOL     OW72114  10.343   0.315   2.425  0.0605 -0.5786 -0.4988
55768SOL    HW172115  10.366   0.223   2.415  1.9171 -0.2051  0.0607
55768SOL    HW272116  10.341   0.329   2.520  0.6508  0.1499 -0.5830
55769SOL     OW72117   3.486   9.930   9.263  0.0512  0.0616 -0.0673
55769SOL    HW172118   3.576   9.936   9.232  0.6239  1.9384  1.6968
55769SOL    HW272119   3.479   9.842   9.298  0.1658 -1.2040 -2.9320
55770SOL     OW72120   8.662  10.761   7.351  0.1767 -0.5268  0.1732
55770SOL    HW172121   8.744  10.804   7.329  1.0422 -0.8987  2.3828
55770SOL    HW272122   8.670  10.673   7.316  0.1381 -0.1577 -0.7821
55771SOL     OW72123   2.521   6.596   9.060  0.0280  0.2218 -0.4099
55771SOL    HW172124   2.538   6.620   8.969  1.0534  0.3424 -0.2031
55771SOL    HW272125   2.432   6.561   9.060 -0.7964  2.1381 -1.0965
55772SOL     OW72126   2.410   9.351   4.304 -0.3359 -0.0098 -0.3974
55772SOL    HW172127   2.338   9.414   4.310 -0.7463 -0.5509  0.5200
55772SOL    HW272128   2.371   9.274   4.262 -0.6837 -0.8283  1.3583
55773SOL     OW72129   4.107   9.456   6.083 -0.6703  0.5787  0.4283
55773SOL    HW172130   4.191   9.422   6.114 -0.2889  0.1174 -1.0521
55773SOL    HW272131   4.042   9.400   6.125 -0.1116 -0.9019 -0.6290
55774SOL     OW72132   0.558   3.511   6.147  0.2429  0.3303  0.2499
55774SOL    HW172133   0.521   3.534   6.061 -2.0102  1.1944  1.3712
55774SOL    HW272134   0.610   3.587   6.171  0.2289  0.4275 -0.0206
55775SOL     OW72135   4.773   5.754  11.088  0.1782  0.4169  0.6221
55775SOL    HW172136   4.681   5.767  11.112  0.1860  0.3355  0.6972
55775SOL    HW272137   4.798   5.834  11.042  0.1910  0.6102  0.9678
55776SOL     OW72138   9.719   1.495  11.414  0.1264  0.1809  0.1582
55776SOL    HW172139   9.705   1.445  11.334  0.3251  0.1748  0.1258
55776SOL    HW272140   9.759   1.432  11.474  3.2359  1.0026 -0.8482
55777SOL     OW72141   5.803   4.649   0.760 -0.4291 -0.2326 -0.0888
55777SOL    HW172142   5.771   4.699   0.685  0.5785  1.4165  0.5273
55777SOL    HW272143   5.729   4.648   0.821 -0.4882  0.4233 -0.1489
55778SOL     OW72144   5.864   2.977   6.509 -0.0179  0.4457  0.1228
55778SOL    HW172145   5.956   2.954   6.523 -0.3913 -0.3960  1.3314
55778SOL    HW272146   5.835   2.921   6.437 -0.2366 -1.1383  1.3908
55779SOL     OW72147   3.757   4.176   0.887  0.3094 -0.0040  0.5566
55779SOL    HW172148   3.711   4.094   0.904  0.6599 -0.1073  1.0263
55779SOL    HW272149   3.751   4.187   0.792 -2.3134  0.9856  0.7518
55780SOL     OW72150   7.251   0.722   9.777  0.3074  0.2452 -0.0949
55780SOL    HW172151   7.289   0.635   9.759  2.6519  0.4579  2.9820
55780SOL    HW272152   7.166   0.703   9.817  0.9596 -0.6674  0.8949
55781SOL     OW72153   9.850   2.731   6.848 -0.0000 -0.2762 -0.0654
55781SOL    HW172154   9.914   2.674   6.805  0.6586  0.0681  0.4440
55781SOL    HW272155   9.767   2.709   6.806  0.6647  0.2893 -1.7409
55782SOL     OW72156   3.943   1.777   6.284  0.1400  0.1156 -0.2577
55782SOL    HW172157   3.855   1.813   6.274  0.3041  0.3864 -0.8006
55782SOL    HW272158   3.998   1.831   6.226  0.8716  0.6737  0.9279
55783SOL     OW72159   8.101  11.401   3.503 -0.0384  0.2652 -0.0084
55783SOL    HW172160   8.008  11.405   3.528 -0.0552 -2.1337  0.5841
55783SOL    HW272161   8.099  11.377   3.410 -0.0441 -0.6853  0.2268
55784SOL     OW72162   7.664   8.295   0.045  0.3757  0.0970 -0.4681
55784SOL    HW172163   7.710   8.276  -0.037  0.3943 -1.5125 -0.1156
55784SOL    HW272164   7.586   8.241   0.042  0.7724 -0.6129  0.9121
55785SOL     OW72165   5.721  11.789  11.303  0.1285 -0.8659 -0.2438
55785SOL    HW172166   5.797  11.808  11.249  0.7976 -2.8206 -0.0666
55785SOL    HW272167   5.732  11.698  11.330 -1.7783 -0.9105  0.6043
55786SOL     OW72168  12.404   0.009   9.935 -0.1091  0.3736  0.3274
55786SOL    HW172169  12.500   0.017   9.936 -0.0516 -0.1518 -0.2908
55786SOL    HW272170  12.379   0.007  10.027  0.6347 -1.1946  0.5140
55787SOL     OW72171   0.409   4.291   4.891 -0.1422 -0.1675 -0.1119
55787SOL    HW172172   0.395   4.202   4.924 -2.4615  0.2591  0.2259
55787SOL    HW272173   0.350   4.346   4.944  0.1929  1.3602 -1.2524
55788SOL     OW72174   3.366   5.049   9.916  0.0243  0.0522 -0.1361
55788SOL    HW172175   3.339   5.138   9.894 -2.3274 -0.6006 -0.1365
55788SOL    HW272176   3.305   5.021   9.984  2.0569 -0.8520  1.4413
55789SOL     OW72177  11.986   3.895   7.272 -0.6475  0.7114 -0.3855
55789SOL    HW172178  11.947   3.847   7.345  0.7743  0.5364  0.2758
55789SOL    HW272179  12.006   3.828   7.207  1.5109  0.3238  0.6144
55790SOL     OW72180  11.794  12.022   2.165  0.3158 -0.1026  0.2132
55790SOL    HW172181  11.783  12.094   2.227  1.3588  1.4404 -1.3104
55790SOL    HW272182  11.704  11.993   2.147 -0.0711  0.1590  1.5366
55791SOL     OW72183   9.895  11.033  10.960 -0.2056 -0.0522 -0.0692
55791SOL    HW172184   9.819  10.975  10.967 -1.1247  1.2271  0.9761
55791SOL    HW272185   9.887  11.092  11.035  0.4874  1.6745 -1.2976
55792SOL     OW72186  10.285   9.698   2.475 -0.0552  0.1848  0.2518
55792SOL    HW172187  10.208   9.746   2.505 -0.5314  0.3089 -1.1196
55792SOL    HW272188  10.251   9.618   2.435  0.2901  1.2442 -2.3694
55793SOL     OW72189   2.100  11.123   1.179 -0.0221  0.5067 -0.0896
55793SOL    HW172190   2.167  11.062   1.148  0.3296 -0.1885  1.8415
55793SOL    HW272191   2.066  11.082   1.258 -1.7208  1.5532 -0.2351
55794SOL     OW72192   1.402   5.402   0.530  0.4147  0.1943  0.1215
55794SOL    HW172193   1.447   5.358   0.602  2.1233 -0.4310 -1.2560
55794SOL    HW272194   1.354   5.474   0.571 -1.0937 -1.8899  2.2299
55795SOL     OW72195   6.531  11.388   4.645  0.1534  0.0026 -0.3317
55795SOL    HW172196   6.526  11.294   4.629 -1.7558  0.1486 -0.7887
55795SOL    HW272197   6.528  11.427   4.558  1.9409  0.5128 -0.2189
55796SOL     OW72198   8.080  12.637  11.535 -0.2079 -0.4757  0.0891
55796SOL    HW172199   8.071  12.732  11.542  2.8332 -0.1442  1.4261
55796SOL    HW272200   8.175  12.623  11.527 -0.1758 -3.4867  3.3385
55797SOL     OW72201   4.357   5.769   2.213 -0.0306 -0.3814  0.4641
55797SOL    HW172202   4.359   5.823   2.292  1.1106 -0.7769  0.7277
55797SOL    HW272203   4.370   5.831   2.141  0.6011 -0.2190  0.7144
55798SOL     OW72204   9.245  10.708   6.276  0.4711 -0.1783 -0.3408
55798SOL    HW172205   9.236  10.647   6.203 -1.4230  0.8181 -1.0030
55798SOL    HW272206   9.225  10.656   6.354  1.1536 -0.9285 -0.6606
55799SOL     OW72207   2.932   3.969   7.381  0.3810  0.5660 -0.5628
55799SOL    HW172208   3.016   3.936   7.349  0.3991  0.8509 -0.8097
55799SOL    HW272209   2.955   4.048   7.430  0.3722  0.0487  0.3016
55800SOL     OW72210   7.913   3.494   8.912  0.9253  0.2536 -0.2131
55800SOL    HW172211   8.001   3.464   8.935  0.4688 -0.3765  0.8005
55800SOL    HW272212   7.900   3.572   8.966  0.8196  0.2728 -0.2679
55801SOL     OW72213   4.482   0.822  10.605 -0.2157 -0.0224 -0.0150
55801SOL    HW172214   4.456   0.738  10.567 -0.1808 -0.0302 -0.0218
55801SOL    HW272215   4.522   0.800  10.689  0.4356 -0.0710 -0.3328
55802SOL     OW72216  10.093  10.258  10.337  0.1685 -0.0862 -0.4718
55802SOL    HW172217  10.064  10.339  10.295  0.1052  0.5642  0.7766
55802SOL    HW272218  10.064  10.188  10.278  0.7548  0.8205 -1.8645
55803SOL     OW72219   9.704  11.623   6.884 -0.0350 -0.3464 -0.0488
55803SOL    HW172220   9.732  11.594   6.798  0.2886  0.5360 -0.2487
55803SOL    HW272221   9.765  11.694   6.907  0.2067 -0.9052  1.1232
55804SOL     OW72222   4.867   2.559   3.558  0.9745 -0.1898 -0.0933
55804SOL    HW172223   4.873   2.511   3.640  0.8775 -0.0988 -0.0339
55804SOL    HW272224   4.774   2.554   3.534  0.7720  0.8261  0.4249
55805SOL     OW72225   1.485   1.623  11.967 -0.3324 -0.1114  0.0089
55805SOL    HW172226   1.467   1.668  12.050  0.5255 -0.9564  0.6808
55805SOL    HW272227   1.532   1.687  11.914 -1.0201  0.4875  0.1103
55806SOL     OW72228   9.975   9.236   1.409  0.2390  0.3282  0.0192
55806SOL    HW172229   9.985   9.230   1.314  0.1217  0.5912 -0.0129
55806SOL    HW272230  10.056   9.277   1.439  1.4393 -2.0957  0.3389
55807SOL     OW72231  10.836   7.324  10.965 -0.4928  0.0708 -0.0532
55807SOL    HW172232  10.831   7.303  11.058 -0.4866 -0.4337 -0.1618
55807SOL    HW272233  10.898   7.260  10.929 -1.2219 -0.3555 -0.5721
55808SOL     OW72234   2.396   6.286  12.415  0.2133  0.3980 -0.3569
55808SOL    HW172235   2.467   6.251  12.362  0.5358 -0.9783  0.9136
55808SOL    HW272236   2.437   6.308  12.499 -0.6144  0.7871 -0.0426
55809SOL     OW72237   8.156   7.209   8.403 -0.1381 -0.2823  0.0778
55809SOL    HW172238   8.238   7.216   8.354  1.6098 -0.4927  2.7740
55809SOL    HW272239   8.143   7.296   8.440  1.0155 -1.1493  2.7406
55810SOL     OW72240   4.274   0.731  10.066  0.1637  0.1564 -0.6513
55810SOL    HW172241   4.255   0.824  10.073 -0.8637 -0.0035 -1.0436
55810SOL    HW272242   4.213   0.699   9.999  1.3048 -0.5818 -1.3804
55811SOL     OW72243   1.517   9.794   4.982 -0.0398  0.1799 -0.0790
55811SOL    HW172244   1.582   9.724   4.977 -1.1655 -0.8925 -0.5179
55811SOL    HW272245   1.483   9.801   4.893  0.3919  1.6452 -0.1451
55812SOL     OW72246   9.771  12.319   2.221 -0.1697 -0.2538 -0.6677
55812SOL    HW172247   9.684  12.349   2.248 -0.2650 -0.9647 -0.1612
55812SOL    HW272248   9.810  12.395   2.178 -1.3907 -0.1933 -1.7300
55813SOL     OW72249   0.694   2.892   4.401 -0.0092  0.0514 -0.4128
55813SOL    HW172250   0.771   2.947   4.385 -0.1268 -0.3114 -2.5118
55813SOL    HW272251   0.620   2.953   4.397  0.0649  0.2824  0.9261
55814SOL     OW72252   7.195   7.862   5.374  0.3939  0.0036  0.2445
55814SOL    HW172253   7.103   7.844   5.392 -0.2833  1.0302 -1.7819
55814SOL    HW272254   7.208   7.952   5.403 -0.0181  0.7784 -1.8096
55815SOL     OW72255   2.611   9.608  10.038 -0.2441  0.4161  0.2124
55815SOL    HW172256   2.613   9.699  10.009  0.8668 -0.1420 -1.5599
55815SOL    HW272257   2.533   9.603  10.095  0.2032  2.6569  1.1154
55816SOL     OW72258  10.144   4.209   7.075 -0.0031 -0.0276 -0.3484
55816SOL    HW172259  10.180   4.123   7.053  0.4866 -0.0731  0.6070
55816SOL    HW272260  10.050   4.200   7.060 -0.0580 -0.9690  0.4662
55817SOL     OW72261  11.983   3.099   5.375 -0.1877 -0.1135  0.4296
55817SOL    HW172262  11.974   3.178   5.429  2.2707 -0.2481  1.1412
55817SOL    HW272263  12.041   3.042   5.426 -0.2676 -1.5297 -1.0028
55818SOL     OW72264   4.414   0.228   0.550 -0.2635  0.0332 -0.4333
55818SOL    HW172265   4.398   0.167   0.622 -2.7754  0.3702 -0.6180
55818SOL    HW272266   4.405   0.175   0.471 -2.3873  0.5259 -0.5919
55819SOL     OW72267   1.628   5.502   2.176  0.3052  0.2857  0.0947
55819SOL    HW172268   1.701   5.513   2.115  0.4745 -0.3137  0.1864
55819SOL    HW272269   1.551   5.533   2.127  0.5075  0.2270 -0.2620
55820SOL     OW72270   4.616   6.338  10.833 -0.1852  0.1651  0.1394
55820SOL    HW172271   4.618   6.250  10.796  0.1206  0.0119  0.5212
55820SOL    HW272272   4.569   6.329  10.915  2.3674 -0.2258  1.6637
55821SOL     OW72273  10.252   9.213   8.761  0.3752 -0.6086 -0.3660
55821SOL    HW172274  10.228   9.154   8.833  0.3708 -0.9725 -0.6668
55821SOL    HW272275  10.312   9.276   8.802  0.0435 -0.5589  0.0528
55822SOL     OW72276  11.461  11.320   0.550 -0.2039 -0.0887 -0.3980
55822SOL    HW172277  11.489  11.232   0.576  1.7827  0.5143 -0.3292
55822SOL    HW272278  11.478  11.374   0.627 -0.5757  0.5047 -0.7318
55823SOL     OW72279   4.659   6.832   7.870 -0.2487 -0.0051  0.7497
55823SOL    HW172280   4.721   6.766   7.840  1.3696  0.1946  3.3792
55823SOL    HW272281   4.583   6.783   7.899 -0.7293 -0.3621 -0.9792
55824SOL     OW72282   2.068  11.452   7.379 -0.3682 -0.4282 -0.3537
55824SOL    HW172283   2.156  11.491   7.382 -0.4610 -0.2456 -0.0005
55824SOL    HW272284   2.082  11.364   7.343 -0.3181  0.3779 -2.4781
55825SOL     OW72285  11.723  12.639  10.246 -0.1110  0.1855 -0.1852
55825SOL    HW172286  11.636  12.649  10.285 -0.2729  0.8629 -0.7011
55825SOL    HW272287  11.741  12.545  10.251 -0.6258  0.1138  0.4427
55826SOL     OW72288  10.440  10.856   9.577  0.2672  0.2688  0.7285
55826SOL    HW172289  10.435  10.921   9.506  0.4174  0.0426  0.5129
55826SOL    HW272290  10.350  10.851   9.610  0.1441  0.1807  0.3827
55827SOL     OW72291  10.023   5.181  11.124 -0.4780 -0.2569 -0.2969
55827SOL    HW172292  10.090   5.172  11.191  1.0327 -1.7506 -1.8951
55827SOL    HW272293  10.018   5.275  11.106  2.1939 -0.1877 -1.0465
55828SOL     OW72294   9.092   0.764   4.066  0.0570 -0.9768 -0.1455
55828SOL    HW172295   9.035   0.730   4.135  0.3340 -0.1199  0.5234
55828SOL    HW272296   9.127   0.686   4.023 -1.8868 -1.5447 -0.8308
55829SOL     OW72297   9.327   4.725  12.547 -0.2843  0.6173  0.2964
55829SOL    HW172298   9.358   4.637  12.527 -0.6851  0.4954  0.1971
55829SOL    HW272299   9.233   4.714  12.562 -0.3089  1.0035  0.4285
55830SOL     OW72300   1.934   3.987   9.352  0.7303 -0.3663 -0.4444
55830SOL    HW172301   1.995   4.051   9.389  1.4535 -0.6377 -1.1395
55830SOL    HW272302   1.894   4.032   9.277  1.3364 -0.7568 -1.0139
55831SOL     OW72303  10.711   7.965   8.688  0.0232  0.2787 -0.5819
55831SOL    HW172304  10.797   7.964   8.729 -0.1199  0.0830 -0.2841
55831SOL    HW272305  10.659   7.904   8.740 -0.1427 -0.0199 -1.0969
55832SOL     OW72306   3.039   4.233   3.846  0.0557 -0.6799  0.0089
55832SOL    HW172307   3.103   4.178   3.801 -1.3921 -2.5138  0.0784
55832SOL    HW272308   2.994   4.280   3.776  0.6935 -0.2434 -0.1173
55833SOL     OW72309  12.259   5.607   4.874  0.2378 -0.1319 -0.2319
55833SOL    HW172310  12.353   5.623   4.876  0.2760 -0.3892 -0.0104
55833SOL    HW272311  12.242   5.547   4.946 -0.0153 -0.5158 -0.6044
55834SOL     OW72312   9.166   7.612  10.396  0.3350  0.1434  0.5558
55834SOL    HW172313   9.091   7.592  10.340 -0.1548 -0.9948  1.5545
55834SOL    HW272314   9.242   7.605  10.339 -0.2783  0.7955 -0.3570
55835SOL     OW72315   7.218  10.346  11.701  0.0001  0.2264 -0.5780
55835SOL    HW172316   7.252  10.305  11.622  0.3830 -1.3122  0.3317
55835SOL    HW272317   7.134  10.384  11.675 -0.1309 -0.7231 -1.6043
55836SOL     OW72318   0.590  11.103   9.784  0.0803 -0.1008 -0.3412
55836SOL    HW172319   0.562  11.144   9.866  2.1945  0.7342  0.0237
55836SOL    HW272320   0.519  11.043   9.762 -1.5098  1.1983  0.9740
55837SOL     OW72321  12.505  11.585   5.523 -0.4464 -0.1186  0.1572
55837SOL    HW172322  12.538  11.500   5.554 -0.6174  0.0128  0.7114
55837SOL    HW272323  12.466  11.625   5.601 -2.2414 -0.4222 -0.5160
55838SOL     OW72324  12.453   8.176   1.162 -0.2702 -1.0179 -0.1850
55838SOL    HW172325  12.518   8.117   1.200  0.9742  0.2977 -0.1892
55838SOL    HW272326  12.501   8.226   1.096 -0.5496  1.8446  1.6231
55839SOL     OW72327  11.257   3.121   3.473  0.0840  0.4066 -0.3816
55839SOL    HW172328  11.276   3.135   3.380  0.4837 -1.7011 -0.6658
55839SOL    HW272329  11.328   3.066   3.504 -1.0322 -0.4833  0.7011
55840SOL     OW72330   2.869   4.475   0.223 -0.3213  0.0430  0.3987
55840SOL    HW172331   2.908   4.446   0.140 -1.6558 -1.5845  0.2614
55840SOL    HW272332   2.914   4.556   0.245  0.8210 -0.0669 -1.3670
55841SOL     OW72333  11.424   2.431   8.720  0.0327  0.4595 -0.9853
55841SOL    HW172334  11.458   2.420   8.808 -0.8451  2.7363 -0.2932
55841SOL    HW272335  11.330   2.447   8.732 -0.5204 -1.2074 -2.5096
55842SOL     OW72336  10.594   1.565   2.205  0.6664 -0.1717  0.1426
55842SOL    HW172337  10.549   1.527   2.281  1.5781 -0.5554  0.5044
55842SOL    HW272338  10.643   1.639   2.242 -0.1852  0.6645 -0.3632
55843SOL     OW72339  11.083   8.011   9.900  0.1100 -0.1891  0.1068
55843SOL    HW172340  11.055   8.098   9.874 -0.8730 -0.4032  0.3888
55843SOL    HW272341  11.179   8.015   9.902  0.1390  0.4369 -1.3689
55844SOL     OW72342  11.662   8.920  12.543  0.1939 -0.1850 -0.2938
55844SOL    HW172343  11.744   8.891  12.502  0.3936 -0.3696  0.2377
55844SOL    HW272344  11.663   8.880  12.630 -1.1761 -1.4633 -0.8163
55845SOL     OW72345   6.369   9.921  11.872  0.2876  0.0744 -0.1010
55845SOL    HW172346   6.369   9.988  11.940  2.0104 -0.1260  0.1383
55845SOL    HW272347   6.276   9.899  11.860 -0.1170  0.7035  1.5880
55846SOL     OW72348   3.054   9.516   8.898  0.7917 -0.4112  0.3347
55846SOL    HW172349   2.978   9.565   8.928  0.9236 -0.1106  0.1742
55846SOL    HW272350   3.111   9.510   8.976  1.4820  1.0235 -0.0271
55847SOL     OW72351   9.117  11.009  11.774  0.0632  0.2204 -0.3124
55847SOL    HW172352   9.179  10.966  11.716  0.5265  0.8550 -0.2983
55847SOL    HW272353   9.091  11.088  11.727  2.4834  2.1784  1.3822
55848SOL     OW72354  10.090   1.816   7.315 -0.1661  0.3055  0.1715
55848SOL    HW172355  10.172   1.765   7.314 -0.6405 -0.4703 -1.4057
55848SOL    HW272356  10.026   1.757   7.354 -0.3188  0.3809  0.0315
55849SOL     OW72357   3.925   4.103   4.288  0.1615  0.3989 -0.2495
55849SOL    HW172358   3.875   4.181   4.311 -1.2534 -0.2185 -1.1043
55849SOL    HW272359   3.977   4.084   4.366 -1.5037  0.6589  0.9856
55850SOL     OW72360   5.098   6.264   8.884  0.3515  0.2002  0.1485
55850SOL    HW172361   5.092   6.357   8.905  0.8830 -0.1221  1.8893
55850SOL    HW272362   5.081   6.259   8.790  1.6447  2.2026 -0.2397
55851SOL     OW72363   0.299   3.340   1.716  0.2268 -0.2450  0.7122
55851SOL    HW172364   0.221   3.386   1.686  0.9587  0.7080  0.2007
55851SOL    HW272365   0.274   3.303   1.800 -1.1338 -0.9633  0.0151
55852SOL     OW72366   4.254   8.950   2.501  0.4625 -0.0099 -0.0466
55852SOL    HW172367   4.231   8.887   2.433  0.4380 -0.7864  0.6811
55852SOL    HW272368   4.173   8.999   2.517  0.7168  0.8938 -1.2929
55853SOL     OW72369  12.015  11.010   4.246 -0.4197 -0.1429  0.0075
55853SOL    HW172370  11.932  10.987   4.204 -2.0441  1.3842  2.1755
55853SOL    HW272371  12.053  11.076   4.188 -2.1849  1.2706  0.3511
55854SOL     OW72372   4.138   9.099   9.784 -0.0685  0.0580 -0.5316
55854SOL    HW172373   4.091   9.173   9.746  1.3085  0.7010 -1.0425
55854SOL    HW272374   4.169   9.131   9.868  1.2615  0.4042 -1.1139
55855SOL     OW72375   4.278   0.378  12.115  0.1520  0.7349  0.1658
55855SOL    HW172376   4.307   0.306  12.169  0.1598  0.8521  0.3187
55855SOL    HW272377   4.198   0.346  12.073  0.1335  0.6523  0.2637
55856SOL     OW72378   8.219   2.732   2.338 -0.0561 -0.3073  0.1654
55856SOL    HW172379   8.305   2.691   2.337 -0.7499 -1.8915  0.8353
55856SOL    HW272380   8.229   2.807   2.397  1.0642  0.0351 -0.4454
55857SOL     OW72381   1.905  10.959  10.296 -0.2697 -0.6718 -0.6259
55857SOL    HW172382   1.828  10.966  10.353  0.2145  0.8573 -0.1159
55857SOL    HW272383   1.919  11.048  10.263  1.1026 -0.9789 -0.9375
55858SOL     OW72384  10.755   4.516  10.741 -0.5870  0.0108 -1.1978
55858SOL    HW172385  10.793   4.428  10.737  2.3728  1.0216  0.9417
55858SOL    HW272386  10.821   4.572  10.700 -2.0261  1.3539 -1.7452
55859SOL     OW72387   1.235   2.340  12.017  0.3723 -0.3718 -0.3236
55859SOL    HW172388   1.173   2.410  12.035  0.9652  0.5407 -1.5855
55859SOL    HW272389   1.216   2.314  11.927  1.3073 -0.5878 -0.4734
55860SOL     OW72390   0.399   1.761   6.963  0.4144 -0.2854 -0.0150
55860SOL    HW172391   0.322   1.777   6.909  1.1448  1.1953 -0.6739
55860SOL    HW272392   0.367   1.704   7.034 -1.4382  0.8530  0.1288
55861SOL     OW72393   6.864   5.282   2.418 -0.0184  0.0614  0.0167
55861SOL    HW172394   6.826   5.294   2.505 -1.9314 -0.9422 -0.6304
55861SOL    HW272395   6.939   5.224   2.433  0.9532  1.5621  1.2359
55862SOL     OW72396  10.132   0.623   8.505  0.0329  0.4878  0.2966
55862SOL    HW172397  10.185   0.640   8.583  2.0667  2.4083 -1.3431
55862SOL    HW272398  10.175   0.675   8.437 -2.1186 -0.4969 -1.9194
55863SOL     OW72399   8.342   7.950   8.955  0.2846 -0.1116  0.4588
55863SOL    HW172400   8.366   7.933   8.863 -0.9728 -1.6403  0.3708
55863SOL    HW272401   8.248   7.970   8.952  0.4822  1.0124  1.2976
55864SOL     OW72402  12.383   8.119   9.176  0.3827  0.2326  0.3478
55864SOL    HW172403  12.359   8.184   9.110 -0.3418 -0.4140 -0.0272
55864SOL    HW272404  12.304   8.107   9.229  0.3492 -0.7155  0.0988
55865SOL     OW72405   3.201   0.754   1.138  0.0808  0.6778  0.0201
55865SOL    HW172406   3.213   0.810   1.062  1.3718  1.2600  0.6155
55865SOL    HW272407   3.288   0.747   1.177 -0.2827 -0.7545  0.6605
55866SOL     OW72408   6.610   9.347   6.097  0.8017 -0.1293 -0.5054
55866SOL    HW172409   6.625   9.253   6.106  2.4920  0.0248 -1.3488
55866SOL    HW272410   6.520   9.354   6.063 -0.3318 -1.2791  1.9944
55867SOL     OW72411   4.570   2.152   2.734 -0.2005 -0.3184  0.8089
55867SOL    HW172412   4.645   2.158   2.674  0.4180 -0.6484  1.5261
55867SOL    HW272413   4.587   2.220   2.799 -1.1298  0.3806  0.3489
55868SOL     OW72414  11.684  10.340   7.985  0.1694 -0.3349  0.6388
55868SOL    HW172415  11.727  10.257   7.962  0.8982  0.2625 -0.2444
55868SOL    HW272416  11.737  10.407   7.941 -0.2825  0.6236  1.5160
55869SOL     OW72417   1.272   6.778   8.929 -1.2325 -0.4685 -0.1195
55869SOL    HW172418   1.224   6.696   8.941  0.3132 -1.5251 -0.8450
55869SOL    HW272419   1.361   6.751   8.907 -0.6325  1.4184 -0.2073
55870SOL     OW72420   1.952  10.058  10.064 -0.2208  0.1916 -0.2602
55870SOL    HW172421   1.947   9.999   9.989  1.2888 -2.2820  1.4534
55870SOL    HW272422   1.929  10.004  10.139  0.5652  1.9532  1.3425
55871SOL     OW72423   9.064   0.546   8.478 -0.3363  0.8614 -0.0509
55871SOL    HW172424   9.025   0.542   8.391 -0.9964  2.2244  0.1700
55871SOL    HW272425   9.034   0.628   8.515  1.6900  1.3493  0.6507
55872SOL     OW72426   7.872   8.221  10.435 -0.3721  0.0381 -0.4814
55872SOL    HW172427   7.844   8.158  10.501  0.4147  0.0579 -0.1219
55872SOL    HW272428   7.820   8.200  10.358 -0.3211 -0.8704 -0.2719
55873SOL     OW72429   1.036   2.525   0.130 -0.2931 -0.2682  0.0905
55873SOL    HW172430   1.014   2.554   0.219 -1.1358 -1.4367  0.2877
55873SOL    HW272431   0.955   2.487   0.097 -0.0166  0.2641 -1.2407
55874SOL     OW72432   8.275   0.851   2.907  0.3339 -0.2978  0.2067
55874SOL    HW172433   8.357   0.896   2.925  0.0156 -0.7752  3.3704
55874SOL    HW272434   8.299   0.775   2.855  1.6027  0.5644 -0.5156
55875SOL     OW72435  11.040   4.223   6.362 -0.1460  0.0846  0.0401
55875SOL    HW172436  11.047   4.253   6.453  1.5643  0.3029 -0.1263
55875SOL    HW272437  10.947   4.235   6.340 -0.1249  2.6073  0.9005
55876SOL     OW72438   4.427   0.598   0.557 -0.6016  0.0007  0.2027
55876SOL    HW172439   4.347   0.587   0.505  0.4434  0.9880 -1.7112
55876SOL    HW272440   4.496   0.614   0.493  1.0212 -0.0625  1.8438
55877SOL     OW72441   0.570   2.388   7.664  0.0440 -0.2815 -0.2693
55877SOL    HW172442   0.646   2.446   7.674 -0.5641  1.5584 -4.3253
55877SOL    HW272443   0.495   2.447   7.673 -0.7552 -1.2653 -0.4043
55878SOL     OW72444   8.820   0.848   2.789 -0.7514  0.4081 -0.2630
55878SOL    HW172445   8.758   0.844   2.717 -0.3889 -0.3825 -0.5492
55878SOL    HW272446   8.829   0.757   2.818 -1.1506  0.7577  1.0070
55879SOL     OW72447  12.432   7.611   4.381 -0.1967 -0.1256  0.5630
55879SOL    HW172448  12.479   7.554   4.320 -0.6705  0.6416 -0.5533
55879SOL    HW272449  12.396   7.551   4.446  2.5545 -0.7279  1.6916
55880SOL     OW72450   3.729   6.065  10.357 -0.5324 -0.4682 -0.6097
55880SOL    HW172451   3.723   6.023  10.442 -0.2484  1.4863  0.4369
55880SOL    HW272452   3.654   6.124  10.354  0.6500  1.1118 -0.7217
55881SOL     OW72453   8.807   4.343   2.552 -0.2859 -0.5642  0.3915
55881SOL    HW172454   8.789   4.437   2.547 -3.8136 -1.0919  0.5209
55881SOL    HW272455   8.883   4.335   2.610 -1.4858  2.1031  2.5160
55882SOL     OW72456   3.060   2.543   5.804 -0.5596 -0.1918 -0.1786
55882SOL    HW172457   3.011   2.583   5.731 -0.3885  1.7594  0.7194
55882SOL    HW272458   3.147   2.526   5.768 -0.4820  0.7350 -0.4462
55883SOL     OW72459   8.188   6.075   2.544 -0.0939 -0.4284  0.5357
55883SOL    HW172460   8.121   6.080   2.475 -0.4600 -1.0162  0.8465
55883SOL    HW272461   8.258   6.022   2.506 -1.0768 -2.3221  1.2306
55884SOL     OW72462  12.106  11.168   9.685  0.1029 -0.3110  0.0816
55884SOL    HW172463  12.086  11.097   9.624  1.8247 -0.2878 -0.5608
55884SOL    HW272464  12.071  11.138   9.769  1.7669 -2.4760  0.0764
55885SOL     OW72465   3.259  10.254   0.651  0.1885 -0.0111  0.1595
55885SOL    HW172466   3.275  10.169   0.693 -0.5221 -1.0544 -1.5901
55885SOL    HW272467   3.164  10.256   0.637  0.2913  0.7563 -0.4907
55886SOL     OW72468  10.182   4.743   7.834 -0.2396  0.5501 -0.0601
55886SOL    HW172469  10.108   4.714   7.780 -0.8934  0.6278  0.7848
55886SOL    HW272470  10.142   4.793   7.904  0.4591 -0.8154  1.3650
55887SOL     OW72471  12.281   2.159   6.833  0.0986 -0.4534 -0.9171
55887SOL    HW172472  12.240   2.180   6.749  0.4883  1.9735 -0.5670
55887SOL    HW272473  12.233   2.212   6.897  1.8775  0.2229 -0.0944
55888SOL     OW72474   9.514   4.099  11.092  0.1687 -0.2202 -0.1503
55888SOL    HW172475   9.604   4.123  11.113 -0.7300  2.9212  0.7059
55888SOL    HW272476   9.506   4.117  10.998  0.7409 -1.8210 -0.5343
55889SOL     OW72477  12.090   3.127   9.235 -0.3707 -0.0383  0.4211
55889SOL    HW172478  12.090   3.209   9.285  0.2231  0.5659 -0.5378
55889SOL    HW272479  12.120   3.152   9.148  0.5871 -1.4062  0.3252
55890SOL     OW72480  10.421  11.692   6.131  0.0695  0.1940  0.1067
55890SOL    HW172481  10.354  11.625   6.140 -0.0144  0.2359 -0.1778
55890SOL    HW272482  10.390  11.747   6.059  0.1177  0.5589  0.3644
55891SOL     OW72483   5.147   5.295   1.674  0.1501  0.3390 -0.0991
55891SOL    HW172484   5.225   5.240   1.667 -0.3710 -0.4185 -0.0517
55891SOL    HW272485   5.169   5.373   1.624  1.0199  0.2276  0.0870
55892SOL     OW72486   7.847   0.260   0.235  0.4210 -0.2238 -0.4600
55892SOL    HW172487   7.856   0.178   0.187 -0.5003 -0.7843  0.3101
55892SOL    HW272488   7.937   0.293   0.242  0.6379 -0.4371 -2.0099
55893SOL     OW72489   7.035   8.676   1.445 -0.3195  0.1994  0.0271
55893SOL    HW172490   7.077   8.591   1.434 -0.8396 -0.0609  0.0152
55893SOL    HW272491   6.972   8.681   1.374  0.0846  0.8355 -0.3003
55894SOL     OW72492   6.299  11.652   9.953 -0.1753 -0.2559  0.2193
55894SOL    HW172493   6.279  11.569   9.909 -0.1311  0.7800 -1.8540
55894SOL    HW272494   6.337  11.707   9.885 -0.8783  1.7361  1.3546
55895SOL     OW72495   7.897   4.889  12.590 -0.2810  0.1043  0.0537
55895SOL    HW172496   7.803   4.877  12.606 -0.4465 -1.3422 -1.7463
55895SOL    HW272497   7.919   4.967  12.640 -2.5585  0.8117  0.0845
55896SOL     OW72498   6.199   4.903   9.954 -0.0868  0.2250  0.1110
55896SOL    HW172499   6.141   4.943  10.019 -1.0969  0.2568 -0.8011
55896SOL    HW272500   6.203   4.810   9.979 -2.4538 -0.2873 -1.1655
55897SOL     OW72501   9.148   9.102  11.480 -0.4852 -0.3575 -0.0817
55897SOL    HW172502   9.081   9.080  11.415 -1.7843  1.1792  0.6651
55897SOL    HW272503   9.138   9.035  11.547  0.3588 -1.5177 -1.0720
55898SOL     OW72504   5.064   3.639   8.694  1.0566  0.1785  0.0232
55898SOL    HW172505   5.143   3.595   8.724 -1.4843 -3.0510  2.6921
55898SOL    HW272506   5.062   3.721   8.744  1.4095 -0.9762  2.0137
55899SOL     OW72507   1.881   1.248   3.499  0.4254 -0.4986  0.1530
55899SOL    HW172508   1.814   1.283   3.439  2.4081  0.2919 -1.7320
55899SOL    HW272509   1.872   1.153   3.491  1.1268 -0.4446 -2.1112
55900SOL     OW72510   1.110   8.712  11.266  0.2011 -0.0111 -0.1044
55900SOL    HW172511   1.166   8.645  11.227 -0.1761 -1.4991  1.7793
55900SOL    HW272512   1.025   8.700  11.223  0.6681  0.7442 -1.3143
55901SOL     OW72513   1.966   1.491   4.195 -0.1584  0.3675  0.0182
55901SOL    HW172514   1.919   1.494   4.112  0.1269 -1.5858 -0.2754
55901SOL    HW272515   2.019   1.570   4.196  0.7924 -0.1684 -2.2761
55902SOL     OW72516  12.041   7.934   1.242  0.3202 -0.5468  0.1706
55902SOL    HW172517  12.105   7.958   1.175 -1.4763  1.1746 -1.0794
55902SOL    HW272518  12.033   8.011   1.298 -0.1440 -0.9821  0.7285
55903SOL     OW72519   9.248  11.753  10.206 -0.5601  0.1312  0.7495
55903SOL    HW172520   9.171  11.707  10.173 -0.4574 -0.3852  1.2095
55903SOL    HW272521   9.302  11.769  10.129 -0.7199 -0.2926  0.5474
55904SOL     OW72522   8.791   8.193  11.662  0.0546 -0.4056  0.0561
55904SOL    HW172523   8.736   8.127  11.621  1.3347  0.7088 -3.8252
55904SOL    HW272524   8.881   8.165  11.642  0.6498  1.8560 -0.6677
55905SOL     OW72525   7.302   3.416   2.277  0.7731 -0.5287 -0.1656
55905SOL    HW172526   7.242   3.393   2.206  0.9422  0.9707 -0.8154
55905SOL    HW272527   7.377   3.456   2.233  1.8863 -1.5934  0.7016
55906SOL     OW72528   0.056   9.046   6.119  0.1077  0.2962  0.2013
55906SOL    HW172529  -0.027   9.017   6.156 -0.4942  1.2267 -0.3918
55906SOL    HW272530   0.070   8.989   6.043  1.1557 -1.3602  1.5656
55907SOL     OW72531   8.726   7.265  10.285 -0.1691 -0.0805 -0.0894
55907SOL    HW172532   8.742   7.308  10.369 -1.6344 -3.0298  1.8789
55907SOL    HW272533   8.640   7.298  10.257  0.7159  1.5803 -0.9642
55908SOL     OW72534  11.642   2.653   9.925  0.5026  0.3274 -0.1564
55908SOL    HW172535  11.620   2.726   9.867 -0.3851  1.7112  1.8377
55908SOL    HW272536  11.578   2.585   9.903 -0.6847  1.3336  0.1048
55909SOL     OW72537  10.501   3.584   8.749  0.1291 -0.0669 -0.2636
55909SOL    HW172538  10.584   3.630   8.763  1.1013 -2.3403  2.5278
55909SOL    HW272539  10.493   3.578   8.654  3.2114  0.2086 -0.6592
55910SOL     OW72540   7.639   1.479   5.764  0.1239  0.3550 -0.1514
55910SOL    HW172541   7.606   1.544   5.702 -2.2922 -0.0399  0.6432
55910SOL    HW272542   7.731   1.504   5.778 -0.3486  2.7596 -0.9177
55911SOL     OW72543   1.153   5.816   9.626 -0.2052 -0.1471 -0.3150
55911SOL    HW172544   1.169   5.897   9.578 -0.1401  0.0752  0.0725
55911SOL    HW272545   1.146   5.844   9.718  1.2384 -0.7303  0.0047
55912SOL     OW72546  10.365   1.870   1.887 -0.0413 -0.7160 -0.0159
55912SOL    HW172547  10.345   1.805   1.955 -0.8455  0.7995  1.2525
55912SOL    HW272548  10.451   1.845   1.855  0.1472 -1.7565  1.2233
55913SOL     OW72549   1.423   2.535   5.758  0.3339  0.4296 -0.6187
55913SOL    HW172550   1.447   2.453   5.802  0.4316  0.2380 -1.0248
55913SOL    HW272551   1.393   2.592   5.828  0.6712  0.1909 -0.2765
55914SOL     OW72552   2.174   0.664   9.707 -0.1398 -0.0012  0.0978
55914SOL    HW172553   2.242   0.731   9.715 -1.0741  1.0337 -0.4291
55914SOL    HW272554   2.222   0.581   9.713  1.4285  0.6588 -2.0404
55915SOL     OW72555  11.196   5.304  10.924 -0.4108  0.3603  0.4749
55915SOL    HW172556  11.272   5.246  10.924 -0.4859  0.1103  3.4328
55915SOL    HW272557  11.123   5.247  10.899 -0.2461 -0.5162  1.8716
55916SOL     OW72558   0.682   0.217   2.743 -0.3972  0.1067  0.1842
55916SOL    HW172559   0.760   0.224   2.798  0.0580 -1.0871 -0.2856
55916SOL    HW272560   0.683   0.297   2.690  1.0782 -0.3409 -0.5195
55917SOL     OW72561   3.701   5.800  12.555 -0.1907  0.6751 -0.4332
55917SOL    HW172562   3.625   5.807  12.497 -1.2142  0.0667  0.7945
55917SOL    HW272563   3.666   5.811  12.643  0.7825 -1.8132  0.3430
55918SOL     OW72564   6.626   5.384   8.729  0.1515  0.1782  1.0434
55918SOL    HW172565   6.608   5.411   8.820 -1.3404  0.7539  0.6083
55918SOL    HW272566   6.543   5.396   8.684  0.7389 -0.6078 -0.2988
55919SOL     OW72567  10.003   3.061   6.120  0.0540 -0.1429  0.2698
55919SOL    HW172568   9.937   3.026   6.180 -0.2159 -0.0042  0.0555
55919SOL    HW272569   9.973   3.150   6.100 -0.5332 -0.6123 -1.0465
55920SOL     OW72570   3.129   9.567   9.428 -0.0659 -0.4232 -0.7638
55920SOL    HW172571   3.221   9.592   9.436 -0.2825  0.3099 -0.5414
55920SOL    HW272572   3.094   9.578   9.516 -0.0773 -1.9012 -0.5595
55921SOL     OW72573  12.250   9.944   1.866  0.1973  0.6019 -0.5458
55921SOL    HW172574  12.214   9.888   1.797  1.4742  0.6050 -1.2299
55921SOL    HW272575  12.174   9.967   1.920 -0.3949 -1.7341 -0.2694
55922SOL     OW72576   2.700   1.966   6.827 -0.0351 -0.1038  0.2933
55922SOL    HW172577   2.729   1.926   6.909  0.0301  0.4851  0.5569
55922SOL    HW272578   2.655   1.894   6.781 -0.6501 -0.2776  1.1255
55923SOL     OW72579   6.926  12.351   1.793 -0.5612  0.2777 -0.1770
55923SOL    HW172580   6.957  12.440   1.777  0.1684 -0.2070 -1.6934
55923SOL    HW272581   7.006  12.298   1.796 -0.9877 -0.3512  0.6893
55924SOL     OW72582   3.024   9.167   0.053 -0.4250 -0.0731 -0.2957
55924SOL    HW172583   3.111   9.205   0.061 -0.6285  0.3450 -0.0659
55924SOL    HW272584   3.037   9.089  -0.001  0.7509 -2.2469  2.8892
55925SOL     OW72585   1.171  12.055  11.662  0.6157 -0.1417 -0.1904
55925SOL    HW172586   1.177  11.982  11.601  0.9221 -0.5772  0.3494
55925SOL    HW272587   1.090  12.100  11.638  2.6318  2.1117 -3.5547
55926SOL     OW72588   1.358   3.612   2.622  0.2375 -0.2946  0.0435
55926SOL    HW172589   1.325   3.631   2.534  0.9100  1.4639  0.1323
55926SOL    HW272590   1.452   3.626   2.616  0.6488 -2.5622  0.4767
55927SOL     OW72591   0.371   3.675  10.911 -0.3715  0.7112  0.4274
55927SOL    HW172592   0.293   3.702  10.960 -0.4505  1.5277 -0.1351
55927SOL    HW272593   0.340   3.603  10.856 -0.5357  0.5014  0.7883
55928SOL     OW72594   9.314   2.464   8.540 -0.0660  0.1746  0.1689
55928SOL    HW172595   9.309   2.559   8.552 -1.2896  0.2748 -0.8883
55928SOL    HW272596   9.225   2.439   8.514  0.3378 -1.2034  0.0573
55929SOL     OW72597   6.606   3.096   9.028  0.4186  0.0896  0.2264
55929SOL    HW172598   6.576   3.182   9.001 -0.4737 -0.0465  0.7456
55929SOL    HW272599   6.691   3.111   9.069  0.2137  0.7312  0.4185
55930SOL     OW72600   0.367  12.637   4.685 -0.3440  0.1430 -0.5606
55930SOL    HW172601   0.349  12.729   4.664  2.0387  0.4491 -1.5497
55930SOL    HW272602   0.325  12.588   4.614  0.8639  0.6818 -1.6813
55931SOL     OW72603   1.585   1.000  11.141  0.5285 -0.3521  0.2061
55931SOL    HW172604   1.624   0.915  11.121  0.8525 -0.1852  0.1284
55931SOL    HW272605   1.548   1.030  11.058 -0.4900 -0.8779  0.4524
55932SOL     OW72606   5.190  11.825   2.202 -0.2462 -0.0244 -0.0745
55932SOL    HW172607   5.154  11.825   2.291 -2.4499 -0.3717 -0.9294
55932SOL    HW272608   5.194  11.732   2.177  1.0583  0.0144 -0.1182
55933SOL     OW72609   5.391  10.230  12.581  0.0414  0.8966  0.1942
55933SOL    HW172610   5.439  10.246  12.500 -0.0005  0.9413  0.1786
55933SOL    HW272611   5.309  10.277  12.571  0.4055  1.6522  0.6318
55934SOL     OW72612  11.951   9.411  11.230 -0.0941  0.2446 -0.2724
55934SOL    HW172613  11.963   9.318  11.210  0.4876 -0.3396  2.4315
55934SOL    HW272614  11.896   9.444  11.159 -0.5659 -2.2180 -1.1368
55935SOL     OW72615   3.379   6.496   4.774  0.0490 -0.6755  0.5092
55935SOL    HW172616   3.292   6.463   4.754 -0.4245  0.1855  1.0871
55935SOL    HW272617   3.439   6.437   4.728 -0.8141 -1.5709  0.5185
55936SOL     OW72618  11.447   1.718  10.699 -0.5746  0.5284  0.0827
55936SOL    HW172619  11.492   1.785  10.751 -0.4293  0.7879 -0.3684
55936SOL    HW272620  11.405   1.661  10.763  1.2994 -0.3670  0.5866
55937SOL     OW72621   2.901   2.152  12.366 -0.1559  0.4008 -0.0667
55937SOL    HW172622   2.844   2.142  12.290  1.2432  1.3374 -1.2981
55937SOL    HW272623   2.957   2.226  12.345  0.3764  0.6116  1.8410
55938SOL     OW72624   5.903  12.402   9.841  0.4548  0.2251  0.7524
55938SOL    HW172625   5.928  12.357   9.761 -1.9188  0.2910 -0.1188
55938SOL    HW272626   5.922  12.494   9.823  1.5650  0.0497  0.9741
55939SOL     OW72627   3.764  11.471   1.075  0.2003 -0.0452 -0.0804
55939SOL    HW172628   3.712  11.548   1.099  0.9439  0.0978  1.1376
55939SOL    HW272629   3.822  11.502   1.005 -0.8607 -0.0335 -0.9800
55940SOL     OW72630  11.921  10.398   1.865  0.1597  0.0528  0.3586
55940SOL    HW172631  11.918  10.382   1.959 -0.6884 -0.2025  0.2916
55940SOL    HW272632  11.944  10.313   1.827  0.4438  0.1423  0.3277
55941SOL     OW72633  11.188   7.147   6.914  0.0247 -0.0539 -0.0921
55941SOL    HW172634  11.242   7.193   6.979 -1.4194  1.4771  0.0765
55941SOL    HW272635  11.206   7.193   6.832 -1.4598  0.8903  0.0824
55942SOL     OW72636  11.121   6.228   4.816  0.6068 -0.0050  0.2529
55942SOL    HW172637  11.080   6.206   4.900 -0.8466 -1.9056 -0.8582
55942SOL    HW272638  11.123   6.144   4.769  3.0258  0.6561 -0.9496
55943SOL     OW72639   1.602  11.335  10.301  0.0510  0.2078  0.0830
55943SOL    HW172640   1.597  11.409  10.241  1.9080  0.8813  0.6861
55943SOL    HW272641   1.529  11.278  10.275  0.6153  0.5797 -2.6153
55944SOL     OW72642   9.872   5.307   0.530  0.1040  0.2864 -0.1860
55944SOL    HW172643   9.796   5.285   0.585 -0.3528  0.3006 -0.8073
55944SOL    HW272644   9.948   5.278   0.582 -0.2372  1.5160  1.0354
55945SOL     OW72645   9.756   5.705  11.165 -0.0382 -0.2963 -0.0099
55945SOL    HW172646   9.753   5.655  11.246  1.6425  0.4466  0.5375
55945SOL    HW272647   9.745   5.639  11.096  0.5563 -1.2121  0.7494
55946SOL     OW72648   1.641   4.028   9.715  0.1436 -0.3029 -0.2629
55946SOL    HW172649   1.679   4.074   9.790  0.6193 -0.1738 -0.5809
55946SOL    HW272650   1.634   4.094   9.647 -0.3221 -0.4135 -0.3302
55947SOL     OW72651   4.400   8.997   9.835 -0.0743 -0.1177  0.0623
55947SOL    HW172652   4.380   8.966   9.924  0.2942  0.9138  0.5186
55947SOL    HW272653   4.315   9.007   9.794 -0.2876  0.1199  0.5533
55948SOL     OW72654   8.723   4.309  12.016  0.1481 -0.6581  0.0595
55948SOL    HW172655   8.762   4.391  11.984 -0.0414 -1.0858 -1.3578
55948SOL    HW272656   8.663   4.283  11.946  0.3177 -2.0869  0.4256
55949SOL     OW72657   3.770  10.123   7.644  0.3353  0.1222  0.2668
55949SOL    HW172658   3.812  10.069   7.711 -1.9552  0.4405  2.0912
55949SOL    HW272659   3.808  10.210   7.657 -0.6257  0.3602  1.7493
55950SOL     OW72660  10.186   7.044  10.830 -0.0495 -0.5642  0.3844
55950SOL    HW172661  10.185   6.994  10.748  0.5648 -1.0302  0.6627
55950SOL    HW272662  10.093   7.057  10.850 -0.2073 -0.7436 -0.2052
55951SOL     OW72663   0.611   1.891   9.263 -0.3169 -0.4342 -0.3725
55951SOL    HW172664   0.569   1.822   9.315 -0.9769  0.0683 -0.2150
55951SOL    HW272665   0.563   1.891   9.180 -0.3760 -0.1120 -0.3391
55952SOL     OW72666   0.498  10.421   8.171 -0.6553  0.2625 -0.2010
55952SOL    HW172667   0.567  10.447   8.232 -0.3996  0.0240 -0.3817
55952SOL    HW272668   0.419  10.415   8.225 -0.1234 -1.5473  0.4830
55953SOL     OW72669   1.199   0.021  12.504  0.0605  0.1848  0.2526
55953SOL    HW172670   1.186   0.086  12.573 -0.1922  0.6362 -0.2084
55953SOL    HW272671   1.118   0.026  12.452  0.1478 -0.3195  0.0657
55954SOL     OW72672   9.575   9.788   1.801  0.3187 -0.2701  0.2740
55954SOL    HW172673   9.630   9.792   1.879  1.7059  0.5800 -0.7024
55954SOL    HW272674   9.637   9.793   1.728 -1.0588  0.7306 -0.8706
55955SOL     OW72675   0.300   1.989   1.878 -0.1684  0.5097  0.1633
55955SOL    HW172676   0.255   1.934   1.942 -0.2504 -1.1713 -1.2529
55955SOL    HW272677   0.389   1.998   1.911 -0.2978 -0.0654  0.6856
55956SOL     OW72678   3.822   7.111   3.739 -0.3530 -0.8287 -0.3218
55956SOL    HW172679   3.826   7.184   3.677 -2.3048 -0.6403 -0.2737
55956SOL    HW272680   3.821   7.033   3.683 -0.8615 -0.7115 -0.4777
55957SOL     OW72681   1.686   8.228   2.857  0.3205  0.2670  0.0731
55957SOL    HW172682   1.731   8.198   2.778  0.6007 -2.8140  1.2964
55957SOL    HW272683   1.727   8.313   2.876  3.2535 -0.8493 -0.7563
55958SOL     OW72684  10.631   8.320   9.401 -0.2076 -0.7979 -0.1189
55958SOL    HW172685  10.630   8.267   9.321 -2.4543  1.7446 -1.9956
55958SOL    HW272686  10.690   8.392   9.381 -0.6194 -0.2471  0.6039
55959SOL     OW72687  10.259   5.267   1.092  0.0720 -0.2950 -0.5186
55959SOL    HW172688  10.264   5.172   1.086 -0.4766 -0.3211 -0.6506
55959SOL    HW272689  10.226   5.284   1.180  0.6129 -0.2105 -0.3335
55960SOL     OW72690   4.050   6.490  11.727  0.1053 -0.2483 -0.2120
55960SOL    HW172691   4.031   6.563  11.786  1.8260  0.8148 -0.8954
55960SOL    HW272692   4.055   6.414  11.784 -1.0428  0.2590  0.6156
55961SOL     OW72693   8.334   3.751   4.857 -0.0818  0.0200  0.6222
55961SOL    HW172694   8.316   3.838   4.820  1.1832 -0.7230 -1.9483
55961SOL    HW272695   8.376   3.769   4.940  1.0142  1.9398 -0.2713
55962SOL     OW72696   4.432   7.742   4.092 -0.1742  0.2402  0.1382
55962SOL    HW172697   4.370   7.787   4.150  0.4583  1.3619 -0.0294
55962SOL    HW272698   4.510   7.731   4.146  0.4162  1.2833 -0.4836
55963SOL     OW72699   1.733   3.160   7.873 -0.0398 -0.3270 -0.5117
55963SOL    HW172700   1.650   3.184   7.916 -1.3953 -1.8045 -2.1348
55963SOL    HW272701   1.792   3.137   7.944 -0.7343  1.5233  0.7346
55964SOL     OW72702   2.443   7.136   1.230 -0.1128  0.1311 -0.4806
55964SOL    HW172703   2.526   7.184   1.221  0.8514 -1.5377 -0.8456
55964SOL    HW272704   2.406   7.137   1.142  0.8471 -1.3435 -0.9528
55965SOL     OW72705   9.768   6.639   1.519  0.3603  0.0819  0.7962
55965SOL    HW172706   9.766   6.659   1.612 -1.3202  0.3082  0.7554
55965SOL    HW272707   9.716   6.709   1.478 -0.6212 -1.0777 -0.0425
55966SOL     OW72708   1.078   2.947   9.251  0.2655 -0.1014  0.3463
55966SOL    HW172709   1.052   2.908   9.168  1.3207  0.5722 -0.3201
55966SOL    HW272710   1.110   2.873   9.303 -2.4450 -0.9006  1.0506
55967SOL     OW72711   5.954   9.868  10.811 -0.6138 -0.8723 -0.0745
55967SOL    HW172712   5.864   9.854  10.838 -0.5735  0.8136  1.1288
55967SOL    HW272713   5.948   9.911  10.726 -1.0424  0.4012  0.5599
55968SOL     OW72714  10.664  11.632   3.395  0.0391 -0.4276 -0.0819
55968SOL    HW172715  10.572  11.621   3.420  0.5621  0.4242  2.5095
55968SOL    HW272716  10.708  11.556   3.433  0.5451 -0.3740 -0.5586
55969SOL     OW72717   3.955   3.569   2.088 -0.5714  0.0326  0.2974
55969SOL    HW172718   3.981   3.659   2.068 -1.5822  0.1508 -0.5176
55969SOL    HW272719   3.883   3.578   2.151 -1.2128 -0.1757 -0.3992
55970SOL     OW72720  11.418   4.986   1.999  0.0021  0.2952 -0.1994
55970SOL    HW172721  11.387   5.077   2.000  1.1654  0.7508  1.8507
55970SOL    HW272722  11.352   4.937   2.047  0.8903  0.7172  1.5517
55971SOL     OW72723   5.877  10.527   8.052  0.0487 -0.1243  0.2619
55971SOL    HW172724   5.904  10.562   7.966 -1.7605 -1.0085 -0.7362
55971SOL    HW272725   5.945  10.465   8.075 -0.3835 -1.3818 -1.5635
55972SOL     OW72726   2.126   4.271   5.436  0.4177  0.9273  0.1445
55972SOL    HW172727   2.153   4.229   5.354 -0.4671 -0.1409  0.3761
55972SOL    HW272728   2.132   4.365   5.418 -1.7754  0.7658 -1.8746
55973SOL     OW72729  12.512   2.835   6.819 -0.5709  0.0558  0.0612
55973SOL    HW172730  12.424   2.840   6.858 -1.1640 -0.5673 -1.1453
55973SOL    HW272731  12.521   2.916   6.770  0.6739  1.4375  2.3744
55974SOL     OW72732   6.918   7.066   3.176 -0.4508  0.0158 -0.1210
55974SOL    HW172733   6.855   7.138   3.186 -0.1702  0.5636 -1.9078
55974SOL    HW272734   6.895   7.026   3.092  0.5225 -0.8535  0.0088
55975SOL     OW72735   3.389   5.661   0.272 -0.1249 -0.1297  0.4132
55975SOL    HW172736   3.341   5.583   0.246  0.4109  0.3632 -2.3435
55975SOL    HW272737   3.465   5.628   0.320 -1.1420 -1.1018  1.4366
55976SOL     OW72738   3.154   9.045   8.857 -0.0404 -0.2962 -0.7177
55976SOL    HW172739   3.063   9.051   8.886  0.2327 -1.3060  0.4011
55976SOL    HW272740   3.206   9.069   8.933  0.6988 -3.1298 -0.2243
55977SOL     OW72741   7.671   0.164   1.245  0.3116  0.4786  0.9613
55977SOL    HW172742   7.699   0.252   1.269 -0.9186  1.0637  0.3264
55977SOL    HW272743   7.579   0.174   1.219  0.4197 -0.8171 -0.0340
55978SOL     OW72744   5.281  11.892   9.708 -0.5086 -0.8238  0.1789
55978SOL    HW172745   5.265  11.866   9.799  0.1827  1.0137  0.8883
55978SOL    HW272746   5.375  11.880   9.696 -0.6674 -1.4737 -0.4427
55979SOL     OW72747   6.810   8.247   5.152 -0.6479  0.2559 -0.3717
55979SOL    HW172748   6.771   8.207   5.074 -1.4785  1.1521 -0.4252
55979SOL    HW272749   6.899   8.271   5.124 -1.4080  1.9057 -1.5334
55980SOL     OW72750  11.047   0.927   1.096  0.0383  0.5488  0.3411
55980SOL    HW172751  11.094   1.005   1.067 -1.5935  1.0613 -1.1311
55980SOL    HW272752  10.985   0.959   1.162  1.5688 -0.1015  2.1884
55981SOL     OW72753   4.285   9.264   8.617  0.2066  0.1847  0.2471
55981SOL    HW172754   4.255   9.355   8.614 -1.0297 -0.2227 -0.1937
55981SOL    HW272755   4.288   9.243   8.710 -0.8413  0.2683  0.3160
55982SOL     OW72756  10.014  12.253   7.488 -0.1822 -0.4325 -0.0407
55982SOL    HW172757  10.098  12.223   7.454 -0.0395 -0.4280  0.3005
55982SOL    HW272758  10.008  12.344   7.460  1.2793  0.4935  2.3586
55983SOL     OW72759  12.202   4.174  11.756  0.1831 -0.2780  0.1068
55983SOL    HW172760  12.112   4.159  11.727  0.5873 -3.4669  0.1296
55983SOL    HW272761  12.194   4.232  11.831 -1.8790 -0.6728  0.2539
55984SOL     OW72762   9.016   2.017   3.040  0.0609 -0.4683 -0.0897
55984SOL    HW172763   9.001   2.020   2.945  0.2985  1.2835 -0.1118
55984SOL    HW272764   9.100   2.061   3.052 -0.9053  1.1513  1.0820
55985SOL     OW72765   5.234   1.010   6.758  0.4298 -0.4635  0.2409
55985SOL    HW172766   5.320   1.042   6.784  1.2563 -3.6056  1.9058
55985SOL    HW272767   5.174   1.049   6.821  0.3578  2.4547 -1.4588
55986SOL     OW72768  10.722   0.653   3.946  0.0748 -0.0241 -0.6889
55986SOL    HW172769  10.684   0.659   3.858  0.6772 -0.5435 -0.9915
55986SOL    HW272770  10.814   0.629   3.931  0.4532  0.8930  0.0396
55987SOL     OW72771   1.821   3.422   5.586  0.4887 -0.2429  0.6786
55987SOL    HW172772   1.739   3.467   5.605  0.5760  0.2769 -0.1665
55987SOL    HW272773   1.869   3.424   5.669 -0.0187  0.1408  0.9658
55988SOL     OW72774   6.728   9.143  11.624  0.0856 -0.1429  0.0182
55988SOL    HW172775   6.635   9.166  11.633 -0.1460 -1.2136  0.5959
55988SOL    HW272776   6.770   9.186  11.698 -0.1685 -0.7042  0.4956
55989SOL     OW72777   2.156   1.626   8.538  0.0778 -0.9480 -0.6745
55989SOL    HW172778   2.161   1.675   8.620 -1.2434 -1.2208 -0.4217
55989SOL    HW272779   2.142   1.535   8.565 -0.3632 -1.0386 -1.1946
55990SOL     OW72780   0.008   1.980   2.490  0.0515 -0.5156  0.0227
55990SOL    HW172781   0.005   1.885   2.496 -1.9136 -0.5851 -1.1642
55990SOL    HW272782  -0.053   2.011   2.557  2.2547  0.0789  1.8963
55991SOL     OW72783  11.725   4.196   7.926 -0.1662 -0.7957 -0.4107
55991SOL    HW172784  11.733   4.174   7.833  1.4828  0.0152 -0.5062
55991SOL    HW272785  11.724   4.292   7.927 -0.3621 -0.7997  0.3974
55992SOL     OW72786  12.075   0.704  10.696  0.5231  0.0109 -0.6227
55992SOL    HW172787  12.064   0.621  10.649  1.8207  1.1728 -3.1679
55992SOL    HW272788  11.989   0.744  10.694  0.1235 -0.8043 -0.2875
55993SOL     OW72789   7.045   4.182  11.198 -0.8131  0.1937  0.0582
55993SOL    HW172790   7.070   4.162  11.288  1.6584  0.7251 -0.4261
55993SOL    HW272791   6.981   4.114  11.176 -2.4457  0.8070  2.5600
55994SOL     OW72792   1.765  10.905   5.533 -0.2160  0.2930  0.0994
55994SOL    HW172793   1.841  10.918   5.590 -0.2176  0.5517  0.0432
55994SOL    HW272794   1.747  10.811   5.538 -0.4401  0.3673  0.8044
55995SOL     OW72795   5.285  12.129   2.524  0.0646 -0.1328 -0.2705
55995SOL    HW172796   5.362  12.142   2.469  0.0730  0.7277 -0.0658
55995SOL    HW272797   5.212  12.162   2.472  0.0207  0.3104  0.0573
55996SOL     OW72798   8.182   4.045  12.623 -0.0916  0.0869  0.1618
55996SOL    HW172799   8.274   4.052  12.648  0.1379  0.8197 -0.8288
55996SOL    HW272800   8.141   4.123  12.660 -0.5260 -0.6926  1.3871
55997SOL     OW72801   1.138   0.621   3.529 -0.2495 -0.5531  0.1665
55997SOL    HW172802   1.180   0.573   3.600 -0.3461  2.0684  2.1297
55997SOL    HW272803   1.158   0.569   3.451 -0.0273 -3.4967  2.0105
55998SOL     OW72804   6.877   0.498  11.920 -0.7351 -0.5526  0.4293
55998SOL    HW172805   6.905   0.523  11.833  0.7447 -1.9075  0.4707
55998SOL    HW272806   6.880   0.402  11.920 -0.0034 -0.5668  2.1763
55999SOL     OW72807   0.572   5.994   6.709 -0.6344 -0.2328 -0.0334
55999SOL    HW172808   0.668   5.990   6.715 -0.7216 -0.3209  2.0345
55999SOL    HW272809   0.545   5.903   6.700 -0.5976 -0.4494  1.7557
56000SOL     OW72810  11.174  10.022   0.506  0.2151  0.0643 -0.6566
56000SOL    HW172811  11.091   9.992   0.543  1.0411 -0.4503  0.8819
56000SOL    HW272812  11.235   9.949   0.522  0.8476  0.2146 -2.2332
56001SOL     OW72813  12.441   1.971   1.332 -0.4767  0.2033 -0.1233
56001SOL    HW172814  12.365   2.014   1.372 -0.5771 -0.0701 -0.0127
56001SOL    HW272815  12.502   2.042   1.314 -0.3811  0.3270  0.6285
56002SOL     OW72816   6.270   6.448   9.428  0.1781 -0.0883  0.0705
56002SOL    HW172817   6.250   6.465   9.520  2.6188 -0.4131  0.7432
56002SOL    HW272818   6.305   6.531   9.396 -0.0934 -0.1516 -0.3916
56003SOL     OW72819  11.798   9.560   7.859 -0.5741 -0.1966 -0.4520
56003SOL    HW172820  11.781   9.641   7.908  4.8569  0.9376  0.2463
56003SOL    HW272821  11.847   9.505   7.920  0.6826 -1.6044 -2.5947
56004SOL     OW72822   9.692  11.103   0.778 -0.3138 -0.3630  0.2033
56004SOL    HW172823   9.688  11.076   0.687  0.2590  2.3262 -0.7120
56004SOL    HW272824   9.606  11.143   0.794  0.1675  0.6454  0.3100
56005SOL     OW72825   4.574  10.846   4.295  0.4861 -0.1156  0.1652
56005SOL    HW172826   4.576  10.763   4.342  0.6316 -0.4147 -0.3617
56005SOL    HW272827   4.632  10.903   4.345  0.0472 -0.1916  0.7744
56006SOL     OW72828   2.211   4.058   5.877 -0.3228  0.0492  0.0533
56006SOL    HW172829   2.195   4.135   5.822  2.5416 -0.7753 -2.2102
56006SOL    HW272830   2.129   4.009   5.874 -0.9926  1.1923 -1.6422
56007SOL     OW72831   7.320   7.388   3.605 -0.2367  0.1522  0.8997
56007SOL    HW172832   7.266   7.329   3.658  0.2237  0.1211  1.3466
56007SOL    HW272833   7.282   7.384   3.517 -0.6581 -0.2444  1.0981
56008SOL     OW72834   1.189   0.257   7.864 -0.0842  0.3822  0.9323
56008SOL    HW172835   1.257   0.272   7.930  1.2640 -2.1857  0.2896
56008SOL    HW272836   1.226   0.293   7.784  1.0215 -1.8066  0.3914
56009SOL     OW72837   6.670  11.551   2.004 -0.0676 -0.0187 -0.2878
56009SOL    HW172838   6.601  11.527   1.943 -1.4397  1.4864  0.6096
56009SOL    HW272839   6.751  11.523   1.960 -1.0793 -0.0308 -2.2496
56010SOL     OW72840   4.985   4.691   6.754 -0.6936  0.0994 -0.4246
56010SOL    HW172841   4.964   4.598   6.747 -0.0385 -0.0957  0.1514
56010SOL    HW272842   4.974   4.725   6.665 -2.2283 -0.2379 -0.3984
56011SOL     OW72843   5.068  12.162   3.828  0.6057  0.2380  0.6740
56011SOL    HW172844   5.127  12.236   3.812 -0.9125  1.2815 -0.4594
56011SOL    HW272845   5.068  12.113   3.746  1.5850 -1.0590  1.4157
56012SOL     OW72846  11.603   8.807   0.395 -0.1548  0.4318 -0.3727
56012SOL    HW172847  11.510   8.825   0.385 -0.5227 -1.6984 -1.4172
56012SOL    HW272848  11.607   8.736   0.460  0.9782  2.1177  1.5318
56013SOL     OW72849   5.372   8.895   3.197  0.9430 -0.3356  0.1830
56013SOL    HW172850   5.322   8.871   3.274 -0.3951  1.7413  0.0255
56013SOL    HW272851   5.338   8.839   3.127 -0.9652  0.7925  0.1625
56014SOL     OW72852   2.775   3.437  12.343 -0.0214 -0.2743 -0.4607
56014SOL    HW172853   2.728   3.510  12.385  0.3426 -1.2995  1.8820
56014SOL    HW272854   2.724   3.418  12.265 -1.1645  1.2913 -0.1565
56015SOL     OW72855   6.982   0.992   1.975 -0.4287 -0.1927 -0.5889
56015SOL    HW172856   6.924   0.931   2.020 -2.6971  1.2452 -1.4110
56015SOL    HW272857   6.949   0.996   1.886  1.0780  0.5354 -1.1451
56016SOL     OW72858   6.359   5.489   0.311  0.5240 -0.0525  0.5534
56016SOL    HW172859   6.337   5.491   0.218  1.4758 -0.5588  0.3026
56016SOL    HW272860   6.373   5.396   0.330  0.5413  0.0700  1.1491
56017SOL     OW72861  10.381   8.732   6.411  0.2310  0.0930  0.0608
56017SOL    HW172862  10.351   8.669   6.477  1.1512  1.0943  1.4975
56017SOL    HW272863  10.424   8.678   6.345  1.0674 -0.8169  1.2856
56018SOL     OW72864   7.037   3.809   0.864  0.7331  0.2978  0.3411
56018SOL    HW172865   7.036   3.762   0.948 -0.1472 -0.7839 -0.2407
56018SOL    HW272866   6.965   3.872   0.871 -0.7317 -1.2221 -0.3301
56019SOL     OW72867   2.963   5.731   6.310  0.5036  0.6781 -0.0637
56019SOL    HW172868   2.877   5.748   6.348 -1.3546 -3.5001 -1.7484
56019SOL    HW272869   2.984   5.642   6.340  2.8298  0.4482 -2.0953
56020SOL     OW72870  11.135   1.809   1.469  0.3612 -0.1116 -0.0683
56020SOL    HW172871  11.101   1.893   1.439 -0.1599 -0.2732  0.0489
56020SOL    HW272872  11.221   1.829   1.505  0.1194  0.4272  0.2261
56021SOL     OW72873   0.784  12.016   4.198 -0.1417  0.2701 -0.2844
56021SOL    HW172874   0.780  11.999   4.104 -1.2098 -0.9601 -0.0334
56021SOL    HW272875   0.693  12.013   4.228 -0.0052  2.4052  0.5227
56022SOL     OW72876   5.851   7.677   7.333 -0.1512  0.1791 -0.2041
56022SOL    HW172877   5.824   7.616   7.401  0.0244  1.3669  0.9646
56022SOL    HW272878   5.887   7.752   7.380  0.2951  0.8927 -1.6130
56023SOL     OW72879   7.262   1.956   7.669  0.3457  0.1527  0.0482
56023SOL    HW172880   7.322   1.987   7.737  0.3665 -1.6323  0.9031
56023SOL    HW272881   7.185   1.927   7.717 -0.2476  0.2363 -0.8331
56024SOL     OW72882  11.101   2.188   6.765  0.2749  0.6168  0.2090
56024SOL    HW172883  11.059   2.198   6.679 -0.8803  0.0686  0.6873
56024SOL    HW272884  11.028   2.193   6.827  0.7929 -1.1831  1.0215
56025SOL     OW72885   6.033   2.784  12.212 -0.2763 -0.7229 -0.7557
56025SOL    HW172886   5.986   2.712  12.254  1.1259 -0.7600  0.8410
56025SOL    HW272887   5.963   2.841  12.179 -1.5350 -0.4825  2.0304
56026SOL     OW72888   0.045   3.964   0.327 -0.2742 -0.0280  0.0977
56026SOL    HW172889   0.077   4.054   0.335  0.0040  0.0917 -1.9454
56026SOL    HW272890   0.120   3.914   0.296 -0.1363 -1.2209  2.2055
56027SOL     OW72891   1.578   3.022  10.174 -0.0203  0.1678 -0.0277
56027SOL    HW172892   1.544   3.003  10.087  0.6405 -0.4082 -0.1784
56027SOL    HW272893   1.663   3.063  10.158  0.1994 -0.1363  0.3416
56028SOL     OW72894   2.736   5.797   0.967  0.0775  0.3318 -0.5785
56028SOL    HW172895   2.783   5.745   1.032 -3.2468 -1.0228  1.0008
56028SOL    HW272896   2.749   5.750   0.885  0.5523 -0.5900  0.0114
56029SOL     OW72897   9.710  10.955   3.120 -0.1161 -0.0427  0.1241
56029SOL    HW172898   9.718  10.864   3.089 -2.1790 -0.9691  2.0059
56029SOL    HW272899   9.776  10.962   3.190  0.0384 -0.0865 -0.0156
56030SOL     OW72900   1.358   7.769   9.038  0.3571 -0.5973 -0.0449
56030SOL    HW172901   1.273   7.812   9.040  0.6212 -0.0562  1.6856
56030SOL    HW272902   1.340   7.678   9.016 -0.7712 -0.6726  1.1137
56031SOL     OW72903   1.279   7.487   0.278 -0.3217 -0.0668 -0.4247
56031SOL    HW172904   1.263   7.432   0.201 -0.3607  0.3961 -0.7527
56031SOL    HW272905   1.194   7.529   0.295 -0.1507  0.3176 -0.5171
56032SOL     OW72906   8.147   2.122   9.909  0.4783 -0.0098  0.0476
56032SOL    HW172907   8.173   2.153   9.996  1.0609  0.8248 -0.4058
56032SOL    HW272908   8.052   2.137   9.905  0.7649  1.9920 -0.2310
56033SOL     OW72909  10.348   1.391  10.352 -0.0197  1.0541  0.1682
56033SOL    HW172910  10.386   1.321  10.299  1.4841  2.1889 -0.2990
56033SOL    HW272911  10.390   1.471  10.322 -3.3910  2.5870 -0.9641
56034SOL     OW72912   0.049   2.053   3.801  0.1251  1.0015  0.4176
56034SOL    HW172913  -0.012   2.014   3.863 -0.2900 -0.0237 -0.6067
56034SOL    HW272914   0.132   2.009   3.817 -0.6788 -1.5047 -1.7269
56035SOL     OW72915   9.956  11.771   7.442 -0.1308 -0.0919 -0.0739
56035SOL    HW172916   9.895  11.773   7.369 -0.3847  1.9606  0.1325
56035SOL    HW272917  10.040  11.797   7.405  0.0404 -0.3512  0.1255
56036SOL     OW72918   5.825   4.483   6.717  0.2553  0.2967  0.5119
56036SOL    HW172919   5.798   4.454   6.804  0.1399 -0.3724  0.2588
56036SOL    HW272920   5.845   4.576   6.728 -0.9284  0.5054  0.9823
56037SOL     OW72921  11.957   2.296   6.768 -0.3797  0.1218 -0.3367
56037SOL    HW172922  11.921   2.259   6.688  1.3868  0.2649 -1.2562
56037SOL    HW272923  12.036   2.342   6.740  1.1547 -1.1148  1.6619
56038SOL     OW72924   1.310  10.404   7.163  0.2173 -0.2969 -0.4173
56038SOL    HW172925   1.262  10.483   7.142 -0.4937 -0.2872  1.1615
56038SOL    HW272926   1.287  10.384   7.254 -0.9685 -3.2486 -1.2383
56039SOL     OW72927   7.750   7.956   8.296  0.1525  0.4640 -0.1777
56039SOL    HW172928   7.759   8.007   8.216  0.5682  0.8002  0.0764
56039SOL    HW272929   7.815   7.886   8.288 -0.7358 -0.3069 -0.7316
56040SOL     OW72930  10.758  12.039  11.295  0.1224 -0.4914  0.1465
56040SOL    HW172931  10.792  11.950  11.284  0.3905 -0.1493 -2.2583
56040SOL    HW272932  10.836  12.094  11.294 -0.1331 -0.1251  0.2104
56041SOL     OW72933   9.303   4.109   5.439  0.3485  0.3151 -0.3615
56041SOL    HW172934   9.295   4.072   5.527  0.0726  1.2409  0.0177
56041SOL    HW272935   9.300   4.204   5.452 -1.2754  0.4662 -1.4905
56042SOL     OW72936   4.406   4.143   4.220 -0.7851  0.4019 -0.1149
56042SOL    HW172937   4.370   4.209   4.161 -1.8076  1.0167  1.1472
56042SOL    HW272938   4.486   4.113   4.177 -1.0408  1.4625 -1.3727
56043SOL     OW72939   5.104   0.816   2.627  0.2730 -0.2811 -0.2328
56043SOL    HW172940   5.116   0.729   2.664 -0.6319  0.7841  2.8836
56043SOL    HW272941   5.164   0.872   2.676  0.2148  1.0337 -1.5672
56044SOL     OW72942   2.892   7.424   4.785 -0.1689 -0.1520  0.0369
56044SOL    HW172943   2.803   7.457   4.800 -0.0729  0.5239 -0.8219
56044SOL    HW272944   2.926   7.408   4.873 -0.6977  0.7970  0.4297
56045SOL     OW72945   6.344  10.163   3.628  0.0654  0.2017 -0.0680
56045SOL    HW172946   6.416  10.207   3.582 -0.5978  0.5072 -0.8288
56045SOL    HW272947   6.333  10.213   3.709 -1.0073  1.7999 -1.1450
56046SOL     OW72948  10.301   1.032   2.117 -0.1072  0.0906  0.1715
56046SOL    HW172949  10.304   0.981   2.036 -0.6271  0.4396 -0.0773
56046SOL    HW272950  10.323   0.969   2.186 -1.5782 -0.7003 -0.0296
56047SOL     OW72951   6.012  12.437  11.481 -0.2842  0.0560 -0.3257
56047SOL    HW172952   5.937  12.390  11.446 -0.6516  0.1413  0.3284
56047SOL    HW272953   5.979  12.479  11.561  1.0811 -1.9417  1.3860
56048SOL     OW72954  11.229   5.494   7.775  0.1986 -0.2046  0.2096
56048SOL    HW172955  11.261   5.426   7.833  2.1461 -0.3444 -0.9357
56048SOL    HW272956  11.244   5.576   7.823  4.1283 -0.0975 -0.9053
56049SOL     OW72957   4.145  11.618   2.143 -0.2161 -0.1403  0.0175
56049SOL    HW172958   4.183  11.646   2.059  0.6899  0.0211  0.4684
56049SOL    HW272959   4.221  11.603   2.199 -0.7709 -1.2826  0.4899
56050SOL     OW72960   4.594   1.407   8.200  0.5612  0.0268  0.0005
56050SOL    HW172961   4.679   1.423   8.243  1.0002  2.0641 -1.4358
56050SOL    HW272962   4.563   1.495   8.176 -0.5492 -0.8648 -2.0861
56051SOL     OW72963   3.615   0.545  12.500 -0.6838  0.2138  0.0027
56051SOL    HW172964   3.624   0.639  12.488  2.0664 -0.0888 -0.9466
56051SOL    HW272965   3.650   0.529  12.588 -1.2864  0.0856  0.2214
56052SOL     OW72966   0.282   2.457   5.498  0.2335  0.4854 -0.5382
56052SOL    HW172967   0.282   2.499   5.584  1.1566  1.5395 -1.0200
56052SOL    HW272968   0.228   2.379   5.509 -1.1999  1.5762  0.5186
56053SOL     OW72969   2.397   5.483   7.641  0.0973  0.1096  0.3712
56053SOL    HW172970   2.369   5.496   7.732 -0.0991 -0.8571  0.4622
56053SOL    HW272971   2.424   5.391   7.637  1.4762  0.5190 -0.2018
56054SOL     OW72972   2.913   5.082  11.507 -0.7667 -0.2896  0.7120
56054SOL    HW172973   2.830   5.068  11.553 -0.6681 -0.0809  0.9539
56054SOL    HW272974   2.942   5.169  11.535 -0.4856 -0.3458  0.5984
56055SOL     OW72975  12.123  12.226   5.747 -0.3971 -0.1211 -0.2085
56055SOL    HW172976  12.208  12.186   5.731 -0.2110  0.6822 -1.3665
56055SOL    HW272977  12.064  12.152   5.759 -0.0106 -0.7859 -2.0612
56056SOL     OW72978   9.788   2.105  10.530 -0.2378 -0.1763  0.4575
56056SOL    HW172979   9.749   2.079  10.447 -1.6046  0.8300  0.7417
56056SOL    HW272980   9.783   2.026  10.584  0.8953 -0.9100 -0.4675
56057SOL     OW72981  11.874   2.495   8.665  0.7443 -0.7353  0.7144
56057SOL    HW172982  11.847   2.505   8.756 -1.0362  0.3510  0.1178
56057SOL    HW272983  11.950   2.553   8.657  0.5565 -0.3855  1.3713
56058SOL     OW72984   6.305   3.991   3.676  0.1730  0.1918 -0.4170
56058SOL    HW172985   6.397   3.981   3.701 -0.1586 -0.3865  0.6316
56058SOL    HW272986   6.271   3.902   3.675 -0.8066  0.5270  0.9417
56059SOL     OW72987   4.649   4.223   2.226 -0.1142 -0.0548 -0.3181
56059SOL    HW172988   4.712   4.292   2.247 -2.4461  1.7771  1.2466
56059SOL    HW272989   4.618   4.193   2.312 -0.3925 -1.9024 -1.0248
56060SOL     OW72990   7.240   9.801   0.859  1.0960  0.0058 -0.0065
56060SOL    HW172991   7.216   9.780   0.769 -0.4523  0.2796  0.3204
56060SOL    HW272992   7.247   9.896   0.861  2.3515 -0.0632 -0.1037
56061SOL     OW72993  10.852   6.057   3.222  0.3695  0.0366 -0.2950
56061SOL    HW172994  10.893   6.124   3.168 -0.9583  0.9562 -0.2301
56061SOL    HW272995  10.760   6.059   3.195  0.1142 -1.0610  0.4356
56062SOL     OW72996   5.008   3.164  12.138  0.3022  0.2160 -0.5775
56062SOL    HW172997   4.922   3.163  12.180  0.3424 -0.3966 -0.4996
56062SOL    HW272998   4.995   3.214  12.057  0.2149  1.3597  0.1213
56063SOL     OW72999   0.398   5.961   4.445  0.3302  0.1418  0.2230
56063SOL    HW173000   0.336   5.937   4.514  0.0994 -0.6859 -0.2518
56063SOL    HW273001   0.472   5.999   4.492  0.0466 -0.1198  0.9043
56064SOL     OW73002   4.663   1.799   0.424  0.2371 -0.9289 -0.5413
56064SOL    HW173003   4.705   1.755   0.498 -1.2427  0.3004  1.1337
56064SOL    HW273004   4.735   1.833   0.371  1.3492 -2.5356 -0.1243
56065SOL     OW73005  11.796   6.680   3.845  0.1320 -0.0557  0.5969
56065SOL    HW173006  11.866   6.743   3.830  1.6303 -1.4304  1.5248
56065SOL    HW273007  11.820   6.603   3.794 -0.7024 -0.5552  0.9242
56066SOL     OW73008   5.242   3.687  11.895  0.1872  0.6856 -0.1478
56066SOL    HW173009   5.191   3.702  11.974  0.5092 -1.4086  0.5123
56066SOL    HW273010   5.274   3.597  11.903  0.9701  0.7138 -2.2421
56067SOL     OW73011   0.896   0.108   0.758 -0.6050  0.0990  0.0964
56067SOL    HW173012   0.862   0.093   0.670  0.2439 -0.7274 -0.1084
56067SOL    HW273013   0.950   0.030   0.777 -0.1746  0.6050  1.0466
56068SOL     OW73014   4.693   8.910   7.140 -0.4432  0.5228 -0.3217
56068SOL    HW173015   4.701   8.991   7.190 -0.3389 -0.2286  0.9213
56068SOL    HW273016   4.678   8.842   7.206 -2.1856 -0.2635 -1.4509
56069SOL     OW73017  11.821  10.614   0.701 -0.3216 -0.2106 -0.6501
56069SOL    HW173018  11.916  10.604   0.705 -0.2608  0.4194 -0.4638
56069SOL    HW273019  11.796  10.571   0.619  0.2742  0.7228 -1.3322
56070SOL     OW73020   7.851   2.579   4.508  0.6389 -0.4628  0.6420
56070SOL    HW173021   7.912   2.653   4.502 -0.9055  0.8413  0.3484
56070SOL    HW273022   7.889   2.512   4.451  1.7916  0.3220  0.4591
56071SOL     OW73023   7.826   5.821  11.747 -0.5080 -0.2261 -0.0454
56071SOL    HW173024   7.878   5.742  11.760  1.4971  1.1443  0.6778
56071SOL    HW273025   7.888   5.886  11.714 -1.5921  1.6318  1.3354
56072SOL     OW73026  11.787   5.968   2.706 -0.7208  0.1220 -0.3889
56072SOL    HW173027  11.716   5.904   2.718 -1.2874  0.6345 -0.9307
56072SOL    HW273028  11.848   5.924   2.647 -0.0777 -0.7039  0.8379
56073SOL     OW73029   8.530   2.406   7.799 -0.4498 -0.3807  0.4854
56073SOL    HW173030   8.494   2.495   7.804  1.6053  0.5218 -0.0529
56073SOL    HW273031   8.533   2.387   7.705 -1.1308 -1.1475  0.6108
56074SOL     OW73032   7.869   8.723   5.764  0.1174 -0.0659  0.1214
56074SOL    HW173033   7.832   8.805   5.797  0.6367  0.9641 -1.7655
56074SOL    HW273034   7.914   8.747   5.683  0.1116 -2.2475 -0.5878
56075SOL     OW73035   2.201   7.413  10.730 -0.2294 -0.3120  0.0004
56075SOL    HW173036   2.114   7.382  10.757 -0.1868 -1.0704 -0.6954
56075SOL    HW273037   2.243   7.439  10.811 -0.3783 -1.8467  0.6065
56076SOL     OW73038   9.060   1.726   2.148  0.1878 -0.3445 -0.1720
56076SOL    HW173039   9.060   1.813   2.188 -0.6359 -0.6305  0.4769
56076SOL    HW273040   9.152   1.711   2.123  0.5320  0.2668  0.6848
56077SOL     OW73041   5.208   4.982   7.929 -0.2629  0.7464 -0.5247
56077SOL    HW173042   5.180   4.948   8.014  1.7121  1.6529  0.5392
56077SOL    HW273043   5.239   4.905   7.881 -1.2198  0.2590 -0.3836
56078SOL     OW73044   6.501   0.605   9.620 -0.4340  0.1564  0.4556
56078SOL    HW173045   6.473   0.696   9.625  1.8002  1.0014 -1.0479
56078SOL    HW273046   6.575   0.599   9.680 -0.6071 -0.6927  0.5997
56079SOL     OW73047   7.866   7.793   6.972  0.2430 -0.5428  0.2863
56079SOL    HW173048   7.899   7.737   6.902 -1.0097 -0.1483 -0.6614
56079SOL    HW273049   7.878   7.741   7.052 -1.3352 -2.4456 -0.6122
56080SOL     OW73050   3.485   3.185  12.249 -0.1046 -0.5554 -0.0927
56080SOL    HW173051   3.439   3.137  12.180 -0.3186 -2.0652  1.0426
56080SOL    HW273052   3.458   3.142  12.330 -3.4873  3.8765  1.5438
56081SOL     OW73053   7.959  11.288   0.635 -0.1186  0.0684  0.1228
56081SOL    HW173054   8.034  11.289   0.694 -0.3460 -1.4971  0.4913
56081SOL    HW273055   7.996  11.311   0.549  0.7106 -0.2929  0.3728
56082SOL     OW73056  10.529   5.495   6.222 -0.4371 -0.1711 -0.0106
56082SOL    HW173057  10.438   5.490   6.193 -0.7659 -0.4913  1.0157
56082SOL    HW273058  10.534   5.580   6.267  0.0808  0.3546 -1.0352
56083SOL     OW73059   2.575   5.058   7.311 -0.4955 -0.4071  0.1497
56083SOL    HW173060   2.657   5.021   7.342 -0.4351 -0.6586 -0.3009
56083SOL    HW273061   2.586   5.065   7.216 -2.2427 -3.7493 -0.4619
56084SOL     OW73062   6.983   7.152   7.616  0.0523  0.5528 -0.1367
56084SOL    HW173063   6.969   7.069   7.661  2.0287  0.9722  1.3829
56084SOL    HW273064   6.909   7.207   7.643 -0.8511 -0.4340 -0.5433
56085SOL     OW73065   5.516   3.783   5.565 -0.0185  0.1773  0.0194
56085SOL    HW173066   5.449   3.715   5.570 -2.1929  2.1957  0.1152
56085SOL    HW273067   5.574   3.755   5.495 -2.0472 -0.7605 -1.3760
56086SOL     OW73068   1.312   6.780   2.227 -0.5536  0.1917  0.2156
56086SOL    HW173069   1.342   6.822   2.147 -0.4527 -0.6380 -0.1951
56086SOL    HW273070   1.247   6.716   2.199  0.8532 -1.4697  0.5374
56087SOL     OW73071   4.555   3.609   9.545 -0.0805 -0.2654  0.5018
56087SOL    HW173072   4.604   3.688   9.572 -1.0735  0.2045  0.9771
56087SOL    HW273073   4.512   3.634   9.464 -2.9166  0.8200  2.1828
56088SOL     OW73074   0.771   2.821   5.578 -0.0469 -0.3014  0.1234
56088SOL    HW173075   0.865   2.807   5.587  0.3437  2.2427  0.6310
56088SOL    HW273076   0.732   2.736   5.598  2.0675 -1.0530  1.2847
56089SOL     OW73077  10.001   3.570  10.679 -0.3930 -0.6177  0.2206
56089SOL    HW173078   9.951   3.488  10.681 -0.9971 -0.3681 -2.0379
56089SOL    HW273079  10.092   3.542  10.665 -0.5662 -0.9242 -0.3238
56090SOL     OW73080  11.978  12.432   3.551 -0.0221 -0.1770 -0.2970
56090SOL    HW173081  11.996  12.338   3.562  0.1552 -0.1899 -0.6862
56090SOL    HW273082  11.883  12.437   3.544 -0.0089 -0.3697 -0.6401
56091SOL     OW73083   5.005   7.209   8.572  0.2877  0.0939 -0.0821
56091SOL    HW173084   4.929   7.257   8.604  1.4074  0.2756  2.4822
56091SOL    HW273085   5.080   7.249   8.615  1.6522 -1.4421 -0.9016
56092SOL     OW73086   1.145   2.188  11.768 -0.2297  0.4913 -0.6832
56092SOL    HW173087   1.188   2.107  11.795 -0.4516  0.6114  0.0447
56092SOL    HW273088   1.064   2.191  11.819 -0.3417  1.0505 -0.8842
56093SOL     OW73089   9.948   8.839   5.109 -0.3647 -0.0822 -0.1873
56093SOL    HW173090   9.982   8.798   5.030  2.1347  1.6482 -0.1161
56093SOL    HW273091   9.920   8.766   5.164 -0.8030 -1.3797 -2.0546
56094SOL     OW73092   8.909   8.908   3.970  0.3089  0.1975  0.3019
56094SOL    HW173093   8.968   8.938   4.039  1.0198 -1.1521  0.3200
56094SOL    HW273094   8.909   8.813   3.979  0.9785 -0.0707 -1.9885
56095SOL     OW73095  11.558  12.359   7.911  0.0749 -0.4257  0.1809
56095SOL    HW173096  11.575  12.287   7.849 -0.2089 -0.3546  0.0175
56095SOL    HW273097  11.480  12.331   7.959 -0.3181 -0.0238 -0.2038
56096SOL     OW73098  12.544   7.644   7.071 -0.0004  0.6282 -0.0386
56096SOL    HW173099  12.528   7.604   6.985  0.2917 -0.5315  0.4295
56096SOL    HW273100  12.639   7.648   7.078  0.0167 -1.0210  0.9948
56097SOL     OW73101  10.395   7.561  12.192 -0.4076 -0.7248  0.5113
56097SOL    HW173102  10.411   7.654  12.179 -1.3110 -0.1873  2.7441
56097SOL    HW273103  10.302   7.549  12.173 -0.6073 -0.8679  1.5030
56098SOL     OW73104   6.567   7.406   7.884  0.1048 -0.8732  0.1263
56098SOL    HW173105   6.534   7.359   7.960  1.1773 -0.8188  0.6501
56098SOL    HW273106   6.494   7.462   7.857 -0.1691 -0.5889  1.3731
56099SOL     OW73107   0.177  11.432   6.724 -0.9492  0.3844 -0.0956
56099SOL    HW173108   0.097  11.381   6.736 -1.1541  0.5638 -0.6492
56099SOL    HW273109   0.200  11.462   6.812 -1.1593 -0.1585  0.1470
56100SOL     OW73110   8.079   8.381   4.691  0.1561 -0.0687 -0.2214
56100SOL    HW173111   8.011   8.448   4.680  1.1532  1.3159  1.5343
56100SOL    HW273112   8.161   8.428   4.677  0.8718 -0.9529  0.8156
56101SOL     OW73113   4.187   6.285  11.007  0.0402 -0.4844  0.0330
56101SOL    HW173114   4.117   6.270  10.944 -0.0599 -1.2120  0.3126
56101SOL    HW273115   4.220   6.373  10.986 -0.2311 -0.5740 -0.7936
56102SOL     OW73116   2.686   6.046   2.814  0.0027 -0.3322  0.5287
56102SOL    HW173117   2.770   6.043   2.860  0.1893 -0.6049  0.1835
56102SOL    HW273118   2.664   6.139   2.810  0.8766 -0.1373 -0.4019
56103SOL     OW73119   1.906   8.762   5.088 -0.7036  0.1068  0.7361
56103SOL    HW173120   1.856   8.728   5.014  0.5097  1.7319 -0.9141
56103SOL    HW273121   1.890   8.856   5.086  0.0181  0.2729  2.0335
56104SOL     OW73122  10.285   0.522   6.367  0.5431  0.0247 -0.3904
56104SOL    HW173123  10.337   0.601   6.350  0.8165  0.1051  0.7410
56104SOL    HW273124  10.323   0.456   6.309  0.4798  0.6517 -1.1594
56105SOL     OW73125   3.460  12.068   7.040 -0.1792 -0.5817  0.0357
56105SOL    HW173126   3.452  11.991   7.097 -0.0292 -0.2292  0.5473
56105SOL    HW273127   3.550  12.098   7.053  0.1240 -0.9893 -1.0474
56106SOL     OW73128   9.791   9.662   0.188  0.0224 -0.0034  0.2513
56106SOL    HW173129   9.820   9.573   0.170 -0.6767 -0.4214  1.1225
56106SOL    HW273130   9.871   9.709   0.212  0.1501 -0.9285  1.7906
56107SOL     OW73131   6.909   2.692  10.470  0.0222  0.2737 -0.0626
56107SOL    HW173132   6.974   2.763  10.473  0.9067 -0.4843 -0.6533
56107SOL    HW273133   6.954   2.616  10.507 -0.1386 -0.5382 -1.4608
56108SOL     OW73134   9.563   0.789   6.686  0.5175  0.2160  0.0306
56108SOL    HW173135   9.629   0.759   6.623  0.1345  0.8022 -0.6661
56108SOL    HW273136   9.514   0.857   6.639 -0.1135  0.2993  0.7862
56109SOL     OW73137   8.970   9.583   1.801  0.2556  0.2656 -0.5967
56109SOL    HW173138   8.955   9.515   1.867 -0.2754 -0.5411 -1.5155
56109SOL    HW273139   8.895   9.642   1.809 -0.4451 -0.5019 -1.2579
56110SOL     OW73140   6.070   7.205   5.108  0.5528 -0.2470  0.2937
56110SOL    HW173141   5.984   7.174   5.134  0.2794  0.8334  0.7615
56110SOL    HW273142   6.057   7.239   5.019  0.7990 -1.2535 -0.1298
56111SOL     OW73143  11.544   0.469   1.057 -0.2109  0.3481 -0.4068
56111SOL    HW173144  11.540   0.548   1.110 -1.9738 -0.6401  1.0799
56111SOL    HW273145  11.635   0.462   1.029  0.9072  0.7949  2.7757
56112SOL     OW73146   6.588   6.466   6.528 -0.2310 -0.4216  0.0619
56112SOL    HW173147   6.596   6.557   6.557 -2.9964 -0.3888  0.9713
56112SOL    HW273148   6.630   6.464   6.442  0.8882  1.4075  0.5104
56113SOL     OW73149   1.522   7.277   1.385 -0.3378  0.4311 -0.0947
56113SOL    HW173150   1.454   7.342   1.368 -1.8536 -1.3409 -1.2201
56113SOL    HW273151   1.473   7.197   1.405  1.4419 -0.7366 -0.2559
56114SOL     OW73152   1.519   9.854   5.458 -0.3244 -0.0240 -0.1787
56114SOL    HW173153   1.435   9.885   5.489 -0.2609  0.4006 -0.4091
56114SOL    HW273154   1.556   9.929   5.410  0.5832  0.1157  0.6950
56115SOL     OW73155   4.821   4.903  10.885 -0.2559  0.0754  0.4769
56115SOL    HW173156   4.888   4.960  10.923 -1.7254  1.3524  1.3167
56115SOL    HW273157   4.839   4.904  10.791  0.9748  0.2595  0.6942
56116SOL     OW73158   1.306  10.656   0.051 -0.5791  0.0504 -0.1674
56116SOL    HW173159   1.241  10.724   0.069  1.6608  2.3783 -0.3114
56116SOL    HW273160   1.368  10.663   0.124  1.6830  0.7747 -2.0447
56117SOL     OW73161  12.631   0.210   5.000  0.2783 -0.0079  0.3202
56117SOL    HW173162  12.594   0.229   5.087  2.3332  0.6770  1.1201
56117SOL    HW273163  12.710   0.159   5.019  1.1853  0.8125 -1.0659
56118SOL     OW73164   9.291   1.476   0.229 -0.0520  0.3254 -0.1728
56118SOL    HW173165   9.359   1.409   0.222 -1.0675 -0.7698  0.2457
56118SOL    HW273166   9.280   1.489   0.323  1.0098  2.0331 -0.2311
56119SOL     OW73167   7.418   2.653   3.387  0.5251  0.2578  0.6657
56119SOL    HW173168   7.468   2.572   3.397 -2.4551 -1.6071  1.7173
56119SOL    HW273169   7.449   2.709   3.458  0.4463 -1.2379  1.9415
56120SOL     OW73170  11.612   0.431   3.696 -0.1394 -0.1546 -0.4509
56120SOL    HW173171  11.583   0.405   3.783  2.9982 -0.2892  0.6980
56120SOL    HW273172  11.546   0.396   3.636 -1.1642 -2.1374  1.7121
56121SOL     OW73173   0.668   2.573   1.520 -0.3325  0.9331 -0.4564
56121SOL    HW173174   0.574   2.582   1.508 -0.5297 -0.8305 -0.5592
56121SOL    HW273175   0.678   2.546   1.612  0.0033  0.5586 -0.5977
56122SOL     OW73176   8.945   8.543   2.696  0.9775  0.8880  0.3837
56122SOL    HW173177   8.972   8.634   2.689 -0.2604  1.3407  1.1195
56122SOL    HW273178   8.852   8.547   2.719  1.0030 -0.5547  0.8784
56123SOL     OW73179   2.347   0.155   0.192  0.0622  0.2473 -0.0359
56123SOL    HW173180   2.340   0.241   0.234  0.2684 -0.2010  0.9561
56123SOL    HW273181   2.438   0.128   0.208 -0.0983 -0.3010 -0.0243
56124SOL     OW73182   3.707  10.819   0.046 -0.3793  0.1844  0.3134
56124SOL    HW173183   3.766  10.881   0.088 -0.5055 -0.2114  1.0862
56124SOL    HW273184   3.651  10.787   0.116  0.4557 -1.7086  0.1747
56125SOL     OW73185   5.048  10.322   6.265  0.5907  0.0978  0.2441
56125SOL    HW173186   5.140  10.297   6.261  0.4436 -0.3393 -0.4227
56125SOL    HW273187   5.006  10.272   6.196 -0.4865 -1.1159  1.6990
56126SOL     OW73188   9.025   4.903   3.898 -0.6860  0.2186 -0.3426
56126SOL    HW173189   9.060   4.891   3.986  0.5430  1.0689 -0.6892
56126SOL    HW273190   9.040   4.819   3.855  0.9505  0.5387 -0.4637
56127SOL     OW73191  12.489   0.348  10.717  0.2328  0.0140 -0.3335
56127SOL    HW173192  12.403   0.388  10.702 -0.0816 -0.8265 -0.8034
56127SOL    HW273193  12.472   0.254  10.718  1.2684 -0.2042 -1.2683
56128SOL     OW73194   9.936   9.739  10.934 -0.2092  0.6734  0.2901
56128SOL    HW173195   9.962   9.777  10.850 -0.1364 -0.5774 -0.2803
56128SOL    HW273196   9.843   9.720  10.924 -0.1133  0.1618  0.3446
56129SOL     OW73197   9.171   3.138   0.982 -0.5337 -0.3183 -0.2863
56129SOL    HW173198   9.263   3.155   1.001  0.0306 -5.0275  2.6265
56129SOL    HW273199   9.170   3.111   0.890  0.7727  0.7419 -0.6410
56130SOL     OW73200   3.990   6.367   6.348 -0.3326 -0.7011  0.1906
56130SOL    HW173201   3.913   6.416   6.317  0.8025  0.0283 -1.5969
56130SOL    HW273202   4.032   6.427   6.409 -0.7833 -0.8313  0.6420
56131SOL     OW73203   7.924   7.085   3.480 -0.2433  0.7180 -0.0963
56131SOL    HW173204   7.944   7.093   3.574  1.0684 -0.8826 -0.1783
56131SOL    HW273205   7.846   7.138   3.467 -1.6517 -0.5696  2.3285
56132SOL     OW73206  10.753   7.091   0.506 -0.0603 -0.3534 -0.4728
56132SOL    HW173207  10.782   7.059   0.421  1.7006 -1.1991  0.3859
56132SOL    HW273208  10.834   7.104   0.556 -0.7316  3.9097 -0.1379
56133SOL     OW73209  11.934   0.254   8.437  0.2341  0.3855 -0.3296
56133SOL    HW173210  11.929   0.158   8.439 -0.6534  0.4135 -0.8963
56133SOL    HW273211  11.845   0.283   8.453  0.6429  1.1510  0.6801
56134SOL     OW73212   7.481  12.378  12.154 -0.5964 -0.0634  0.7554
56134SOL    HW173213   7.414  12.352  12.218 -1.0429 -0.6287  0.0680
56134SOL    HW273214   7.460  12.329  12.075  0.9724 -0.7038  0.6954
56135SOL     OW73215   4.208   1.354   1.627 -0.1316 -0.1679 -0.1589
56135SOL    HW173216   4.147   1.299   1.676  1.2504 -1.1444  0.5555
56135SOL    HW273217   4.156   1.391   1.556 -1.6750 -0.4797  0.7707
56136SOL     OW73218   7.689   2.000  11.087 -0.6306 -0.1051  0.1014
56136SOL    HW173219   7.690   2.005  10.991 -2.6147  1.0015  0.0738
56136SOL    HW273220   7.727   1.915  11.107  1.5577  0.3873 -1.5498
56137SOL     OW73221   7.787   4.323   4.756 -0.0029 -0.4011  0.1012
56137SOL    HW173222   7.704   4.296   4.796 -0.6114  2.3391  0.8496
56137SOL    HW273223   7.765   4.398   4.701  1.8331 -0.3379 -0.6406
56138SOL     OW73224   4.409   4.562   0.969 -0.1401 -0.5116 -0.1873
56138SOL    HW173225   4.426   4.626   1.039 -0.1789 -3.2700  2.5430
56138SOL    HW273226   4.318   4.535   0.981  0.1271 -1.7228 -0.6877
56139SOL     OW73227   9.587  10.538   6.260  0.4234 -0.2065 -0.0221
56139SOL    HW173228   9.535  10.617   6.248  1.3963  0.7416  1.5123
56139SOL    HW273229   9.523  10.466   6.262 -0.4632  0.4914 -1.5700
56140SOL     OW73230   4.249   3.523   1.782 -0.2859 -0.3101  0.4653
56140SOL    HW173231   4.207   3.448   1.825 -0.6618 -0.3793 -0.0270
56140SOL    HW273232   4.203   3.534   1.700 -0.1430  0.3848  0.4675
56141SOL     OW73233  11.054   8.521   9.226  0.1867 -0.2795  0.1256
56141SOL    HW173234  11.021   8.438   9.259  0.5526 -0.0782  1.0372
56141SOL    HW273235  11.056   8.511   9.131 -1.0140 -0.8320  0.1474
56142SOL     OW73236   0.804   0.986   6.257 -0.3103  0.2812  0.4365
56142SOL    HW173237   0.881   0.985   6.201 -0.8194 -0.5409 -0.2844
56142SOL    HW273238   0.814   1.064   6.311  0.4942  0.7594 -0.3781
56143SOL     OW73239   4.737   1.482   5.878  0.1056 -0.2189 -0.1168
56143SOL    HW173240   4.734   1.484   5.782  0.4020  1.2261 -0.1129
56143SOL    HW273241   4.818   1.436   5.899  0.6332  0.4737 -0.5847
56144SOL     OW73242   9.023   6.756   0.598  0.3152 -0.2314 -0.1753
56144SOL    HW173243   8.972   6.688   0.642  1.5506 -0.4936  0.9105
56144SOL    HW273244   9.061   6.712   0.521 -0.7762 -0.1257 -0.7911
56145SOL     OW73245  10.030  12.604   0.613  0.2015 -0.1881 -0.3241
56145SOL    HW173246   9.985  12.528   0.651  1.5222 -1.8277 -1.8387
56145SOL    HW273247   9.961  12.653   0.569 -0.8539  0.1438  1.5830
56146SOL     OW73248  12.560   5.941  11.062  0.2783 -0.1319 -0.1837
56146SOL    HW173249  12.600   5.905  11.141  1.1915  1.4967  0.1515
56146SOL    HW273250  12.467   5.917  11.069  0.1444  0.7270  1.8787
56147SOL     OW73251   6.511  10.507   2.732  0.6396 -0.1501 -0.7189
56147SOL    HW173252   6.512  10.556   2.814  0.5534  1.1059 -1.4564
56147SOL    HW273253   6.549  10.566   2.668  1.9131 -1.5788 -1.3600
56148SOL     OW73254   1.337  10.469   5.269 -0.2746  0.0567  0.1685
56148SOL    HW173255   1.327  10.552   5.315 -0.8954 -0.6445  1.3577
56148SOL    HW273256   1.320  10.403   5.336 -0.6931 -1.0203 -0.9694
56149SOL     OW73257   6.380   5.976  11.145 -0.3159 -0.4666 -0.2401
56149SOL    HW173258   6.346   5.900  11.192  0.5469 -0.2764  0.7308
56149SOL    HW273259   6.355   5.962  11.054 -0.1187 -1.9334 -0.0855
56150SOL     OW73260   2.726  10.957   8.193  0.0601  0.2825  0.4611
56150SOL    HW173261   2.792  10.906   8.240  0.0741  0.0591  0.1993
56150SOL    HW273262   2.677  11.002   8.262 -2.1033 -2.5704  0.9830
56151SOL     OW73263  11.425   1.479   2.137  0.1215 -0.1406 -0.2081
56151SOL    HW173264  11.502   1.516   2.095  0.5003 -0.7427 -0.0562
56151SOL    HW273265  11.352   1.503   2.080  0.3349  0.9175 -0.0602
56152SOL     OW73266   9.997   7.889   4.617  0.1857  0.0906  0.0832
56152SOL    HW173267   9.912   7.852   4.594 -0.3727  1.5984 -0.3886
56152SOL    HW273268  10.042   7.901   4.533 -0.2015  1.7242  0.0778
56153SOL     OW73269   6.564   0.493   2.973 -0.1323  0.3891 -0.0710
56153SOL    HW173270   6.570   0.451   2.887  1.2924 -3.4358  1.6762
56153SOL    HW273271   6.494   0.445   3.018  0.7590  0.6593  1.6639
56154SOL     OW73272  11.196   9.927   4.071  0.2480 -0.3050  0.4458
56154SOL    HW173273  11.148   9.952   3.993  2.4144  2.3579 -0.2106
56154SOL    HW273274  11.264   9.868   4.039 -1.4006 -2.6983  1.1054
56155SOL     OW73275  11.237   5.905   1.986 -0.2492 -0.9262 -0.0628
56155SOL    HW173276  11.275   5.859   2.061  0.5945  1.6050  1.1529
56155SOL    HW273277  11.144   5.883   1.989 -0.3335 -0.4322  2.1017
56156SOL     OW73278  10.546   4.464  12.318  0.3591 -0.0708  0.1014
56156SOL    HW173279  10.617   4.400  12.321  0.1734 -0.2803  0.1042
56156SOL    HW273280  10.524   4.471  12.225 -0.1064 -0.5631  0.1655
56157SOL     OW73281  12.336   8.314   6.172  0.1277 -0.1603  0.0336
56157SOL    HW173282  12.389   8.342   6.097  0.1350 -2.4581 -0.8915
56157SOL    HW273283  12.396   8.321   6.246  0.8182  0.0433 -0.5277
56158SOL     OW73284   3.703  10.583   2.872  0.6323  0.1313  0.0965
56158SOL    HW173285   3.746  10.624   2.798 -1.3383  1.5879 -0.3343
56158SOL    HW273286   3.614  10.566   2.841  0.4235 -1.3702  1.3988
56159SOL     OW73287   8.365   5.107   3.698 -0.0235 -0.1805 -0.6601
56159SOL    HW173288   8.302   5.046   3.736 -2.1363  2.4688  0.4059
56159SOL    HW273289   8.400   5.155   3.773  1.0401  0.4451 -1.5291
56160SOL     OW73290   0.760   3.792  11.977 -0.0239 -0.1083  0.0949
56160SOL    HW173291   0.674   3.764  12.010  1.0724 -1.5851  1.8971
56160SOL    HW273292   0.792   3.718  11.926  1.2878 -0.7276  1.7195
56161SOL     OW73293   0.556   9.266   9.081 -0.4253 -0.2310 -0.0357
56161SOL    HW173294   0.460   9.269   9.087 -0.3518  0.7926  1.0244
56161SOL    HW273295   0.585   9.346   9.125  0.8778  0.4445 -1.9900
56162SOL     OW73296   4.648   3.082   8.440  0.2894 -0.0242  0.6320
56162SOL    HW173297   4.682   3.168   8.414  0.0392  0.1251  0.8039
56162SOL    HW273298   4.726   3.034   8.470  0.3692  0.2849  0.9262
56163SOL     OW73299   7.959   0.951   9.553 -0.3203  0.3754  0.6418
56163SOL    HW173300   8.017   0.879   9.578 -0.7907  0.6284  2.6739
56163SOL    HW273301   7.989   0.978   9.466  0.2593 -1.8351  0.0989
56164SOL     OW73302   7.642   2.204   9.394  0.3058  0.2529  0.2337
56164SOL    HW173303   7.548   2.215   9.401  0.4083  2.2291 -0.7500
56164SOL    HW273304   7.654   2.137   9.326 -0.4162  1.1953 -0.8622
56165SOL     OW73305   1.843   6.764  12.505  0.1085  0.8273 -0.5070
56165SOL    HW173306   1.888   6.687  12.471 -0.0010  0.7806 -0.5458
56165SOL    HW273307   1.837   6.823  12.430  0.9924  1.2471 -0.2624
56166SOL     OW73308   6.804   6.814   6.396 -0.1130  0.6612  0.5337
56166SOL    HW173309   6.807   6.905   6.368 -1.1672  0.3118 -0.8560
56166SOL    HW273310   6.739   6.813   6.467 -0.6375  0.8988  0.0707
56167SOL     OW73311   0.775  12.430   2.336 -0.0812  0.1219  0.4940
56167SOL    HW173312   0.717  12.498   2.372 -2.1182 -0.9012 -0.6996
56167SOL    HW273313   0.746  12.419   2.246  2.4527 -0.0116 -0.3796
56168SOL     OW73314   4.480   5.521   8.241 -0.7187 -0.3588 -0.3334
56168SOL    HW173315   4.483   5.602   8.190 -1.1685 -0.1857 -0.0957
56168SOL    HW273316   4.553   5.469   8.208 -0.8300 -0.1310 -0.9506
56169SOL     OW73317   6.679   1.261   2.861  0.1122  0.1497 -0.6252
56169SOL    HW173318   6.710   1.287   2.774  0.7550 -1.0931 -0.8006
56169SOL    HW273319   6.612   1.195   2.843  1.9444 -1.9598 -0.2268
56170SOL     OW73320  11.917  12.043   0.380  0.2553 -0.2997  0.0675
56170SOL    HW173321  11.970  12.029   0.301  0.8926 -2.8472  0.8519
56170SOL    HW273322  11.966  12.000   0.449 -2.9207 -3.0679  0.8228
56171SOL     OW73323  11.836   7.655   4.368  0.2647 -0.0234 -0.0001
56171SOL    HW173324  11.794   7.651   4.282 -1.4300  0.3939  0.7621
56171SOL    HW273325  11.929   7.666   4.348 -0.1198  0.4799 -1.7783
56172SOL     OW73326  11.833   5.371   3.954 -0.1116  0.1745 -0.7997
56172SOL    HW173327  11.906   5.380   3.894  0.9345  1.3170  0.5745
56172SOL    HW273328  11.870   5.390   4.041 -2.2179  1.9548 -0.1819
56173SOL     OW73329   9.887   1.673   7.058 -0.4589 -0.0019 -0.2265
56173SOL    HW173330   9.803   1.667   7.102  0.1378  0.6068  1.0364
56173SOL    HW273331   9.951   1.643   7.122  0.6794  2.9279  0.2003
56174SOL     OW73332   5.061   6.833   7.499 -0.0144  0.7374  0.1807
56174SOL    HW173333   5.054   6.927   7.515 -0.1941  0.7520  0.0232
56174SOL    HW273334   5.149   6.821   7.462  0.3876  0.7072  1.1332
56175SOL     OW73335   6.880   7.592   2.347  0.3583 -0.2485  0.1298
56175SOL    HW173336   6.875   7.541   2.266 -0.7615  0.5663 -0.3446
56175SOL    HW273337   6.807   7.560   2.400 -0.5119  0.9738 -0.2752
56176SOL     OW73338   0.560   8.569   1.458 -0.0815 -0.3152 -0.5707
56176SOL    HW173339   0.470   8.568   1.427 -0.3006 -0.5823  0.0471
56176SOL    HW273340   0.584   8.662   1.461 -0.7933 -0.1478  0.5255
56177SOL     OW73341   7.354   8.350   9.115 -0.2069 -0.0168  0.0464
56177SOL    HW173342   7.414   8.411   9.072  0.5165 -0.8977 -0.2092
56177SOL    HW273343   7.270   8.396   9.114  0.2231  0.7985 -0.5342
56178SOL     OW73344   6.973  11.278  11.130 -0.5939 -0.2291  0.0601
56178SOL    HW173345   7.056  11.248  11.166  0.1551 -1.5626 -2.5061
56178SOL    HW273346   6.954  11.216  11.059 -2.3376  1.6738 -1.2691
56179SOL     OW73347  10.889   2.276   1.660 -0.0223  0.4301  0.0612
56179SOL    HW173348  10.829   2.225   1.713  0.4285  0.5130  0.6602
56179SOL    HW273349  10.920   2.215   1.593  1.5869 -0.5237  1.5978
56180SOL     OW73350   1.709   0.949   4.155 -0.3492  0.3956 -0.7041
56180SOL    HW173351   1.741   1.020   4.100 -0.9591 -0.0729 -1.6990
56180SOL    HW273352   1.680   0.882   4.093 -0.6602 -0.3271  0.2005
56181SOL     OW73353  10.558  12.471   5.611  0.4486 -0.0440  0.4453
56181SOL    HW173354  10.573  12.396   5.669 -0.1285  0.1616  0.8795
56181SOL    HW273355  10.611  12.453   5.534  0.1140 -1.0314  0.4258
56182SOL     OW73356   1.827   0.882  11.348 -0.0642  0.2675 -0.6343
56182SOL    HW173357   1.756   0.819  11.358 -0.5810  0.9531  0.0558
56182SOL    HW273358   1.906   0.827  11.340 -0.4493 -0.4667  0.4083
56183SOL     OW73359   8.505   2.594   0.048 -1.2150  0.0864 -0.3890
56183SOL    HW173360   8.533   2.618  -0.040 -1.4169 -0.8041 -0.7044
56183SOL    HW273361   8.446   2.664   0.075  0.2137  1.2907 -0.2508
56184SOL     OW73362  12.335  12.405   4.856  0.1311  0.1323 -0.3080
56184SOL    HW173363  12.386  12.396   4.937 -1.1630  0.8231  0.6082
56184SOL    HW273364  12.261  12.346   4.868 -0.5185  0.8721 -0.6249
56185SOL     OW73365   7.780   7.233   0.131  0.1946 -0.2501  0.0311
56185SOL    HW173366   7.799   7.140   0.141 -0.8146 -0.3652  1.0576
56185SOL    HW273367   7.804   7.253   0.040  1.7836 -1.1601  0.2233
56186SOL     OW73368   5.174   4.048   0.316 -0.8574  0.1673  0.2822
56186SOL    HW173369   5.128   4.128   0.340  2.0023  1.9270  0.3603
56186SOL    HW273370   5.248   4.078   0.262 -0.0271 -2.4972 -0.2306
56187SOL     OW73371  11.874   1.176   0.317 -0.4094  0.2231  0.3910
56187SOL    HW173372  11.908   1.234   0.249  0.2853 -0.2940  0.2848
56187SOL    HW273373  11.912   1.208   0.398  2.0266 -1.5150  0.0595
56188SOL     OW73374   6.125   8.623   3.329  0.6345  0.2856 -0.7145
56188SOL    HW173375   6.062   8.663   3.388  0.4381 -0.7990 -0.1647
56188SOL    HW273376   6.207   8.623   3.378  0.5984 -0.1041 -0.6456
56189SOL     OW73377   7.987   9.098   8.198  0.3288  0.1828 -1.0414
56189SOL    HW173378   7.934   9.161   8.247 -3.1983 -3.4699  0.4309
56189SOL    HW273379   8.049   9.063   8.262 -0.6933 -0.8535 -0.5906
56190SOL     OW73380  11.599   0.557   3.320 -0.7474 -0.3602  0.1130
56190SOL    HW173381  11.514   0.595   3.341 -1.9900 -2.2840 -1.1095
56190SOL    HW273382  11.585   0.510   3.238  1.5039 -0.7615 -0.1102
56191SOL     OW73383   0.706   4.306   9.911  0.3093 -0.2129 -0.0290
56191SOL    HW173384   0.651   4.254   9.970 -0.9404  0.1128 -0.8888
56191SOL    HW273385   0.756   4.241   9.862 -0.6694 -0.5912 -0.5421
56192SOL     OW73386   2.663   6.096   8.563 -0.5444  0.7037 -0.3082
56192SOL    HW173387   2.693   6.021   8.512  0.4061  1.0622 -0.2899
56192SOL    HW273388   2.631   6.058   8.645 -2.0785  0.1251 -1.1240
56193SOL     OW73389   2.310   4.396   1.810 -0.2922  0.1108  0.6366
56193SOL    HW173390   2.270   4.313   1.838  0.8326 -1.6331 -2.4089
56193SOL    HW273391   2.402   4.374   1.796 -0.2830  1.4068 -1.8003
56194SOL     OW73392   4.961   4.348   1.189  0.4406  0.0266 -0.0029
56194SOL    HW173393   5.046   4.365   1.149 -0.0192 -1.1010 -1.5807
56194SOL    HW273394   4.898   4.391   1.132 -0.1081  0.1854  0.7052
56195SOL     OW73395   8.505   2.379   1.003 -0.1159 -0.1945  0.3788
56195SOL    HW173396   8.484   2.429   1.082  0.0380 -1.6004  1.3456
56195SOL    HW273397   8.586   2.418   0.971  0.3804 -0.2588  1.5120
56196SOL     OW73398   9.825   8.540  12.219  0.2617 -0.0581 -0.4567
56196SOL    HW173399   9.862   8.458  12.251  0.1274 -0.3438 -1.0187
56196SOL    HW273400   9.857   8.606  12.280 -1.0072 -0.7407  1.0085
56197SOL     OW73401   9.673   7.534   5.637  0.0565  0.0634 -0.3894
56197SOL    HW173402   9.725   7.589   5.579 -0.8846 -0.2174 -1.5502
56197SOL    HW273403   9.662   7.587   5.716  1.4545  0.4150 -0.4019
56198SOL     OW73404   1.472   4.660  11.759 -0.2032  0.2588  0.3028
56198SOL    HW173405   1.538   4.696  11.700  0.6275  0.4297  1.3022
56198SOL    HW273406   1.509   4.672  11.846 -1.3509 -0.0875  0.8585
56199SOL     OW73407   8.515  10.741   3.797  0.0769 -0.4590  0.3386
56199SOL    HW173408   8.566  10.764   3.719 -0.3790  1.2250  0.5164
56199SOL    HW273409   8.580  10.726   3.865  0.3896  1.5603  0.5326
56200SOL     OW73410  12.574  12.154   5.008  0.6106  0.6287  0.1297
56200SOL    HW173411  12.529  12.130   4.928 -0.0544  1.4343  0.2514
56200SOL    HW273412  12.627  12.077   5.030 -0.4067 -0.1920 -0.2148
56201SOL     OW73413   9.034   4.012   0.999 -0.0423  0.0031 -0.0865
56201SOL    HW173414   9.093   4.077   1.037 -1.4976  0.7516  0.9736
56201SOL    HW273415   9.045   4.022   0.904 -0.6333  2.2150  0.0337
56202SOL     OW73416  10.809   9.094  11.945  0.2084 -0.1793 -0.3775
56202SOL    HW173417  10.883   9.060  11.995  0.7710  0.3984 -0.7978
56202SOL    HW273418  10.839   9.093  11.854  0.7082  2.4511 -0.3301
56203SOL     OW73419   0.556   1.703  11.290 -0.7483  0.0502 -0.3734
56203SOL    HW173420   0.650   1.691  11.302 -1.1073 -2.0467  0.9572
56203SOL    HW273421   0.541   1.684  11.197  0.1252  0.5667 -0.6376
56204SOL     OW73422   8.822   2.835  11.813  0.3050  0.5765  0.1046
56204SOL    HW173423   8.743   2.785  11.832  0.4844  0.0252 -0.5823
56204SOL    HW273424   8.894   2.782  11.847  0.4829  0.4320 -0.4892
56205SOL     OW73425   5.943   4.893  12.086  0.3050  0.1659  0.1816
56205SOL    HW173426   5.900   4.821  12.132  0.2856  0.7467  1.0809
56205SOL    HW273427   5.944   4.965  12.148  1.3107  0.6115 -0.3265
56206SOL     OW73428   5.635  11.950  10.368  0.0004  0.3825 -0.6538
56206SOL    HW173429   5.639  12.041  10.397 -0.4032  0.4613 -0.8391
56206SOL    HW273430   5.703  11.943  10.302 -0.2164  0.6533 -0.9122
56207SOL     OW73431   5.138   4.415   7.308 -0.3841 -0.6074  0.3771
56207SOL    HW173432   5.084   4.341   7.337 -2.2449  0.8087  0.6996
56207SOL    HW273433   5.075   4.478   7.272  1.0865  1.0122  0.5149
56208SOL     OW73434   2.489   0.112   3.330 -0.6782  0.1082  0.1702
56208SOL    HW173435   2.473   0.206   3.324 -2.8055 -0.2955 -2.2453
56208SOL    HW273436   2.409   0.076   3.368 -0.0874 -0.8049  0.5981
56209SOL     OW73437   7.283  10.356   3.908  0.4794 -0.4863 -0.0896
56209SOL    HW173438   7.293  10.332   3.816  0.1942  0.4328 -0.3681
56209SOL    HW273439   7.304  10.449   3.911 -0.4450 -0.2922  0.6128
56210SOL     OW73440   6.976   3.144  10.138 -0.3255 -0.0027  0.4294
56210SOL    HW173441   6.965   3.226  10.090  0.0418 -1.0330 -1.5450
56210SOL    HW273442   6.891   3.129  10.180 -0.6470  0.9942  0.1602
56211SOL     OW73443   8.676   7.015   3.416  0.2424  0.0501 -0.2341
56211SOL    HW173444   8.653   7.092   3.363 -0.6683  0.8927  1.2904
56211SOL    HW273445   8.747   6.973   3.368 -0.5362  0.7620 -2.0941
56212SOL     OW73446   0.989   1.299   0.226 -0.0673  0.1350 -0.3815
56212SOL    HW173447   1.008   1.370   0.287  0.1130 -0.8289  0.7158
56212SOL    HW273448   1.019   1.331   0.141  0.8583  1.0068  0.2528
56213SOL     OW73449  10.527   1.187   2.965  0.5632  0.4521  0.3596
56213SOL    HW173450  10.458   1.131   3.000 -0.3070  1.0046 -0.4155
56213SOL    HW273451  10.607   1.156   3.007 -0.5570  2.0359  4.0709
56214SOL     OW73452   3.727   5.363   4.239 -0.0726 -0.3077  0.2745
56214SOL    HW173453   3.710   5.414   4.159 -0.6543  2.3306  1.9715
56214SOL    HW273454   3.800   5.306   4.216 -0.8629 -0.3820 -2.4256
56215SOL     OW73455   5.729  11.649  10.368 -0.3421 -0.5213 -0.3589
56215SOL    HW173456   5.703  11.640  10.277  0.3490 -1.4678 -0.4787
56215SOL    HW273457   5.712  11.741  10.389 -0.6951 -0.3423 -1.3721
56216SOL     OW73458  11.836   8.682  12.438 -0.0225  0.1443  0.4212
56216SOL    HW173459  11.779   8.654  12.367  1.4775 -0.5552 -0.5216
56216SOL    HW273460  11.844   8.605  12.494  2.4639 -0.8018 -1.1051
56217SOL     OW73461   1.003   1.699   2.697 -0.6184  0.1508  0.4169
56217SOL    HW173462   0.921   1.675   2.742 -0.7226  1.1210  0.7656
56217SOL    HW273463   0.976   1.718   2.607 -0.7391  0.1909  0.4612
56218SOL     OW73464  10.534   1.298   7.021 -0.1003  0.2052  0.1506
56218SOL    HW173465  10.560   1.215   7.061  2.3358 -0.1788 -1.9882
56218SOL    HW273466  10.601   1.361   7.048 -0.4711  0.8265 -0.3278
56219SOL     OW73467   8.744   1.929   9.000  0.4217 -0.0416 -0.0790
56219SOL    HW173468   8.826   1.963   9.034  0.5292  0.1091 -0.4793
56219SOL    HW273469   8.687   1.923   9.077  0.5017  0.7497  0.0550
56220SOL     OW73470  11.501   9.460   2.527  0.7532  0.5589  0.7760
56220SOL    HW173471  11.468   9.509   2.452 -0.9953  1.0378  1.8186
56220SOL    HW273472  11.596   9.457   2.513  0.6104  1.7654 -0.7554
56221SOL     OW73473   7.945  11.780   7.458  0.1577 -0.3256  0.6458
56221SOL    HW173474   7.868  11.821   7.420  1.4614  2.0535  0.3847
56221SOL    HW273475   7.932  11.785   7.552  0.5846  1.4285  0.6478
56222SOL     OW73476   0.438   2.182   0.829  0.2108 -0.0965 -0.6914
56222SOL    HW173477   0.431   2.196   0.734 -1.3927 -0.0647 -0.5850
56222SOL    HW273478   0.496   2.253   0.858  0.6459 -0.0462 -1.6260
56223SOL     OW73479   1.805  11.695   2.772  0.6836 -0.3898  0.0936
56223SOL    HW173480   1.726  11.715   2.821 -0.0740  1.2499 -1.7048
56223SOL    HW273481   1.867  11.665   2.839 -0.4876  1.1146  1.9523
56224SOL     OW73482  11.905   6.935  11.207  0.0277  0.0190 -0.2396
56224SOL    HW173483  11.987   6.897  11.237  1.2770 -0.4232 -3.7239
56224SOL    HW273484  11.926   7.026  11.185 -0.8326  0.3549  0.2607
56225SOL     OW73485   8.008   8.511   8.273  0.0353  0.3785 -0.2853
56225SOL    HW173486   8.024   8.428   8.228 -1.0142 -0.3106  0.5928
56225SOL    HW273487   8.069   8.510   8.347 -0.0668  0.3326 -0.2019
56226SOL     OW73488   5.436   0.708   6.932 -0.1984  0.5587  0.1312
56226SOL    HW173489   5.482   0.789   6.908 -0.5387  1.0917  1.2122
56226SOL    HW273490   5.435   0.709   7.027 -0.8158 -0.3923  0.1427
56227SOL     OW73491   1.155   9.682  12.007  0.3349 -0.6016 -0.1301
56227SOL    HW173492   1.202   9.747  12.058 -1.3691  0.5022  0.1413
56227SOL    HW273493   1.100   9.636  12.070 -2.3378  1.2638 -0.9088
56228SOL     OW73494   7.503  10.962   6.077  0.5479  0.1682  0.0358
56228SOL    HW173495   7.596  10.950   6.093  0.6167  1.5701  0.8647
56228SOL    HW273496   7.496  11.050   6.040 -0.4660  0.2283  0.3365
56229SOL     OW73497   0.600   4.204   2.085 -0.0772  0.5063 -0.6117
56229SOL    HW173498   0.591   4.300   2.090 -0.7449  0.3942  0.9699
56229SOL    HW273499   0.528   4.171   2.139 -0.8925 -0.9515 -2.4973
56230SOL     OW73500   7.256   1.173   3.524  0.0381  0.1887  0.6033
56230SOL    HW173501   7.222   1.090   3.556 -3.1243  1.5028  0.9797
56230SOL    HW273502   7.267   1.160   3.430  0.7474 -0.9665  0.8237
56231SOL     OW73503   7.495   7.615  10.310 -0.4809 -0.2337 -0.2966
56231SOL    HW173504   7.437   7.560  10.363  1.0645  0.3434  2.1360
56231SOL    HW273505   7.579   7.570  10.311 -0.1444  0.3437 -1.3636
56232SOL     OW73506   0.774   2.672   7.966  0.4389  0.2386 -0.2674
56232SOL    HW173507   0.779   2.634   7.878  1.5386 -0.0376 -0.0949
56232SOL    HW273508   0.684   2.656   7.994 -0.1104  0.8849 -1.5915
56233SOL     OW73509  11.333  11.966   6.540 -0.4955  0.7318 -0.3917
56233SOL    HW173510  11.354  11.949   6.632  0.1905  1.2054 -0.4505
56233SOL    HW273511  11.297  11.884   6.507 -0.9057  0.6108  0.3452
56234SOL     OW73512  10.528   0.879  11.249  0.5722  0.7403  0.0023
56234SOL    HW173513  10.537   0.784  11.248 -0.0770  0.6033  2.2498
56234SOL    HW273514  10.610   0.911  11.210  0.2308 -0.7107 -2.0432
56235SOL     OW73515   4.248   5.413   4.810 -0.1074  0.4049  0.1976
56235SOL    HW173516   4.223   5.323   4.832 -0.3697  0.4743  0.1923
56235SOL    HW273517   4.300   5.442   4.885 -0.4887  0.4349  0.4533
56236SOL     OW73518   3.650   1.483  10.469 -0.5423 -0.3756  0.1421
56236SOL    HW173519   3.581   1.482  10.535 -1.9690  1.8902 -1.1615
56236SOL    HW273520   3.686   1.572  10.472 -0.9535 -0.0409 -2.3204
56237SOL     OW73521   9.982   8.648   0.828 -0.2932 -0.4606 -0.1987
56237SOL    HW173522  10.055   8.701   0.797  0.9553 -2.3951 -0.7360
56237SOL    HW273523   9.968   8.676   0.919  0.9594  0.1176 -0.1771
56238SOL     OW73524  11.362   2.137   3.434  0.2369 -0.2692  0.0377
56238SOL    HW173525  11.358   2.149   3.529  0.0533 -1.5787  0.2114
56238SOL    HW273526  11.289   2.079   3.414 -2.1561  2.9392 -1.4527
56239SOL     OW73527   8.830   9.129   6.860 -0.2712 -0.1660 -0.1594
56239SOL    HW173528   8.847   9.114   6.767  1.3080 -0.8871  0.2119
56239SOL    HW273529   8.902   9.085   6.905 -0.3431  1.1916  1.3648
56240SOL     OW73530  11.386   9.796   5.814 -0.0211 -0.1997 -0.8847
56240SOL    HW173531  11.358   9.871   5.762  0.2480 -1.0536 -2.2977
56240SOL    HW273532  11.481   9.792   5.801  0.0301 -0.5284 -0.4399
56241SOL     OW73533   0.668   5.670   6.768 -0.3404  0.1301 -0.1999
56241SOL    HW173534   0.742   5.730   6.776 -0.5478  0.1442  3.1887
56241SOL    HW273535   0.704   5.585   6.795 -1.1482 -0.2488 -0.2906
56242SOL     OW73536   7.920   6.816   5.146 -0.1702  0.2958  0.1904
56242SOL    HW173537   7.831   6.825   5.182 -0.2201  0.7789 -0.0397
56242SOL    HW273538   7.972   6.878   5.197 -0.4572  1.8026 -1.2624
56243SOL     OW73539   1.535   4.172   7.137  0.1508 -0.1702  0.0089
56243SOL    HW173540   1.484   4.213   7.207 -0.0885 -1.9156  0.9227
56243SOL    HW273541   1.573   4.094   7.178 -0.1309 -1.3535 -1.8383
56244SOL     OW73542   8.351   5.480   6.194 -0.0452 -0.5897  0.3856
56244SOL    HW173543   8.386   5.501   6.107 -1.8437 -0.6686 -0.3898
56244SOL    HW273544   8.387   5.548   6.251  0.1560  0.2054 -0.6497
56245SOL     OW73545  11.933   3.305   3.713 -0.1951  0.0282 -0.2271
56245SOL    HW173546  11.881   3.235   3.673  1.0709 -0.9630 -0.2079
56245SOL    HW273547  11.996   3.259   3.769  1.1925  1.1382 -0.8293
56246SOL     OW73548   7.457   6.132   9.390 -0.4601  0.4570  0.0428
56246SOL    HW173549   7.538   6.120   9.340  0.0554 -2.5507  1.3604
56246SOL    HW273550   7.388   6.132   9.323  0.4312  0.2364 -0.9145
56247SOL     OW73551   6.997   8.336   2.085  0.0020  0.6071  0.4840
56247SOL    HW173552   7.080   8.383   2.079 -0.0149  0.6347  0.4637
56247SOL    HW273553   6.933   8.396   2.046  0.4261 -0.5481 -2.2174
56248SOL     OW73554   7.026   8.588   1.891  0.7154 -0.5555 -0.2365
56248SOL    HW173555   6.943   8.571   1.846  0.5194  1.4355 -0.7251
56248SOL    HW273556   7.012   8.672   1.936  2.8616  0.5260 -1.4360
56249SOL     OW73557   2.155   5.200   6.180 -0.1492 -0.5119 -0.6781
56249SOL    HW173558   2.160   5.296   6.177 -0.3700 -0.5132 -1.1977
56249SOL    HW273559   2.065   5.180   6.157 -0.1576 -0.8360 -0.3513
56250SOL     OW73560  12.507   2.756   6.290  0.0597 -0.3544 -0.1839
56250SOL    HW173561  12.601   2.763   6.309 -0.2036  0.9530  0.8218
56250SOL    HW273562  12.485   2.665   6.312  0.7351 -0.1698  1.3986
56251SOL     OW73563   8.030   7.728  10.757 -0.1300 -0.4629 -0.2533
56251SOL    HW173564   8.068   7.762  10.676  0.9867 -1.0671 -0.0056
56251SOL    HW273565   7.935   7.731  10.742  0.0483 -0.6881 -1.6347
56252SOL     OW73566  10.021   3.365   6.446  0.7002  0.6820  0.3131
56252SOL    HW173567  10.048   3.449   6.408 -1.6355  1.5148  0.3444
56252SOL    HW273568   9.966   3.324   6.379 -1.1747  0.8896  1.6502
56253SOL     OW73569   0.069   0.972   2.292 -0.8392 -0.0697  0.0278
56253SOL    HW173570   0.013   0.916   2.237  1.4468 -1.2225 -1.2583
56253SOL    HW273571   0.090   1.047   2.236  0.2083 -0.4521 -0.0995
56254SOL     OW73572   7.092   0.879   2.911  0.3570 -0.2952  0.0164
56254SOL    HW173573   7.130   0.822   2.845  1.4496  0.2617  0.1390
56254SOL    HW273574   7.008   0.906   2.874  1.2278  0.5441 -1.4721
56255SOL     OW73575   9.626  10.152   4.314  0.1557  0.5744 -0.2550
56255SOL    HW173576   9.538  10.135   4.349  0.6856 -0.3263  0.6754
56255SOL    HW273577   9.618  10.133   4.220 -0.5576  0.1394 -0.1165
56256SOL     OW73578  10.517   1.749   9.507 -0.5253 -0.2220  0.0911
56256SOL    HW173579  10.539   1.671   9.455 -0.8144 -1.2357  1.4324
56256SOL    HW273580  10.443   1.788   9.462  0.2141 -0.1810 -1.1278
56257SOL     OW73581   5.149   8.402  10.544 -0.1777 -0.2354  0.4886
56257SOL    HW173582   5.135   8.469  10.611 -1.4909 -0.2342  0.2382
56257SOL    HW273583   5.113   8.441  10.464 -0.6978 -1.1146  0.2832
56258SOL     OW73584   2.282   3.597   6.501 -0.1084  0.1611 -0.4852
56258SOL    HW173585   2.207   3.542   6.478  0.2033 -0.5225  0.1033
56258SOL    HW273586   2.308   3.567   6.588 -0.4300  1.7903  0.2044
56259SOL     OW73587   7.683  11.923   1.595  0.2303 -0.1739 -0.0813
56259SOL    HW173588   7.604  11.977   1.591  0.3100  0.0117  0.7152
56259SOL    HW273589   7.678  11.879   1.680  0.9678 -0.1924 -0.0402
56260SOL     OW73590  11.530   2.477   4.000  0.6610  0.0858  0.2535
56260SOL    HW173591  11.538   2.383   4.019 -0.3545 -0.4091 -1.5513
56260SOL    HW273592  11.458   2.507   4.055  1.7484  0.0914  1.7102
56261SOL     OW73593   2.815   2.179   9.064  0.0388  0.1511  0.2014
56261SOL    HW173594   2.865   2.204   8.987 -1.6356 -0.7571 -1.2603
56261SOL    HW273595   2.879   2.178   9.135  1.5811  1.2712 -1.1023
56262SOL     OW73596   8.872   5.281  12.524 -0.0069  0.1385  0.4680
56262SOL    HW173597   8.791   5.329  12.538  0.2010  0.3462  0.9727
56262SOL    HW273598   8.853   5.192  12.552 -0.2465  0.0364 -0.0110
56263SOL     OW73599   6.842   4.149   6.078 -0.0718 -0.2706 -0.7258
56263SOL    HW173600   6.793   4.163   6.159 -0.0505  0.3950 -0.8205
56263SOL    HW273601   6.816   4.222   6.022 -0.4750 -0.9999 -1.5139
56264SOL     OW73602   4.095   3.236   7.968 -0.0996 -0.1039  0.4057
56264SOL    HW173603   4.182   3.208   7.993 -0.2721 -1.0225 -0.0014
56264SOL    HW273604   4.035   3.179   8.016 -0.4533 -0.4138 -0.3820
56265SOL     OW73605  11.015  11.417   3.875  0.3357  0.2456 -0.2905
56265SOL    HW173606  11.002  11.323   3.861  0.2394  0.3078 -0.6144
56265SOL    HW273607  11.088  11.421   3.937 -1.8491 -0.1414  2.5299
56266SOL     OW73608  12.160   9.015   9.322 -0.3482  0.3872  0.1266
56266SOL    HW173609  12.188   8.983   9.236 -1.0039 -0.6288  0.2733
56266SOL    HW273610  12.223   9.084   9.344 -0.4678  1.0160 -1.3829
56267SOL     OW73611   6.695  12.584   2.294  0.4055  0.2092  0.0941
56267SOL    HW173612   6.710  12.518   2.226 -1.7264 -1.2781  0.9414
56267SOL    HW273613   6.655  12.657   2.248  2.1165  0.6756 -0.7394
56268SOL     OW73614   2.796   2.905   5.606 -0.4960 -0.2220  0.4006
56268SOL    HW173615   2.841   2.953   5.675  1.9086  1.5567 -2.2164
56268SOL    HW273616   2.715   2.954   5.591  1.4662  2.6492 -1.5645
56269SOL     OW73617   9.697   9.978   9.950 -0.1185  0.2466  0.4652
56269SOL    HW173618   9.627   9.987  10.015  0.4903  1.1199  1.0146
56269SOL    HW273619   9.725   9.887   9.957 -0.8559  0.0272  0.5939
56270SOL     OW73620  11.435   7.653   4.465 -0.6659 -0.0237  0.2770
56270SOL    HW173621  11.367   7.685   4.406  0.6774  2.3742 -0.1177
56270SOL    HW273622  11.432   7.712   4.540  0.7918 -0.0377  0.3726
56271SOL     OW73623  11.819   5.331   1.885  0.3509 -0.4556  0.1275
56271SOL    HW173624  11.812   5.293   1.797  0.5873  0.2182 -0.1888
56271SOL    HW273625  11.849   5.258   1.940 -0.2659 -1.0066 -0.2479
56272SOL     OW73626   0.039   6.066   2.806 -0.0445 -0.5596 -0.0911
56272SOL    HW173627   0.057   5.982   2.848 -3.4362 -1.3431  0.1343
56272SOL    HW273628   0.107   6.075   2.739  2.9119 -1.3546  2.6001
56273SOL     OW73629   2.316   1.258   7.725  0.2426 -0.0153 -0.2066
56273SOL    HW173630   2.246   1.194   7.726 -0.3845  0.6635  0.0616
56273SOL    HW273631   2.274   1.341   7.750  1.2218  0.3037  0.4413
56274SOL     OW73632  10.163   5.369   7.287 -0.2442  0.4346 -0.0389
56274SOL    HW173633  10.220   5.314   7.233 -0.3366 -0.2762  0.5630
56274SOL    HW273634  10.200   5.363   7.375  0.1605  1.9375 -0.0805
56275SOL     OW73635  10.277   9.198  11.934  0.5461 -0.2013  0.5077
56275SOL    HW173636  10.358   9.161  11.970  0.6111  0.3569  0.9406
56275SOL    HW273637  10.306   9.250  11.859  0.8322  1.5344  1.7560
56276SOL     OW73638   1.425  10.948  12.497  0.8225  0.1975  0.7213
56276SOL    HW173639   1.421  10.957  12.592  0.2263  4.5182  0.4774
56276SOL    HW273640   1.337  10.972  12.466  1.0208 -1.0300 -0.9771
56277SOL     OW73641  12.282  11.088   5.875  0.3816 -0.5821  0.2975
56277SOL    HW173642  12.351  11.076   5.810  0.0180 -0.6359 -0.0856
56277SOL    HW273643  12.217  11.021   5.853 -0.9784  1.0499 -0.9350
56278SOL     OW73644  10.595   6.744   7.852 -0.6371 -0.5616 -0.2168
56278SOL    HW173645  10.609   6.657   7.814 -1.6295 -0.4516 -0.8701
56278SOL    HW273646  10.597   6.730   7.946 -0.5511 -1.2541 -0.3127
56279SOL     OW73647   2.360   7.904  11.668  0.7006 -1.3958 -0.0100
56279SOL    HW173648   2.303   7.829  11.654 -0.0395 -0.5736 -1.7498
56279SOL    HW273649   2.313   7.978  11.629  1.6251 -0.1113  1.1871
56280SOL     OW73650   3.095   4.307  11.041 -0.3189 -0.0633  0.0764
56280SOL    HW173651   3.074   4.387  10.992 -0.3166 -1.3293 -2.1088
56280SOL    HW273652   3.188   4.294  11.026 -0.2093 -0.2136  0.8597
56281SOL     OW73653   8.587   8.048   0.213 -0.2993  0.6424  0.5447
56281SOL    HW173654   8.628   8.031   0.298 -0.2183 -1.5989  0.1272
56281SOL    HW273655   8.621   8.134   0.187  0.6542  0.8123  2.1964
56282SOL     OW73656  11.033   2.317   7.133 -0.0069  0.3055  0.0317
56282SOL    HW173657  11.006   2.409   7.133  0.3302  0.4069  0.8449
56282SOL    HW273658  11.050   2.297   7.224 -0.5685 -0.7171 -0.0723
56283SOL     OW73659  10.684   2.279   3.089  0.4347  0.3563 -0.2204
56283SOL    HW173660  10.608   2.333   3.110  1.9929  2.6071  0.0742
56283SOL    HW273661  10.743   2.291   3.164  0.8722 -1.8007 -0.1589
56284SOL     OW73662  10.886  11.530   2.162  0.0242 -0.0867 -0.2706
56284SOL    HW173663  10.946  11.506   2.233  1.1306  1.0178 -0.7955
56284SOL    HW273664  10.896  11.459   2.098  1.3957  0.4574 -0.7014
56285SOL     OW73665  12.266  11.327   5.547  0.0768 -0.6461  0.5327
56285SOL    HW173666  12.183  11.281   5.537  0.0249 -0.9764  2.2369
56285SOL    HW273667  12.242  11.412   5.583  0.5443 -1.1923  2.1839
56286SOL     OW73668   5.457   7.178   1.927  0.2307 -0.2970  0.2554
56286SOL    HW173669   5.400   7.119   1.977 -0.8900  0.5501  0.0117
56286SOL    HW273670   5.472   7.252   1.985  0.6126 -0.2475  0.0968
56287SOL     OW73671   6.612  12.291   2.487  0.1840 -0.2976 -0.3493
56287SOL    HW173672   6.618  12.274   2.393  0.1898  0.5375 -0.5074
56287SOL    HW273673   6.665  12.222   2.527  0.0804 -0.7359 -0.9465
56288SOL     OW73674   4.884   0.155  11.093  0.5193 -0.2296 -0.4715
56288SOL    HW173675   4.796   0.190  11.104  0.4778 -0.6370  0.6637
56288SOL    HW273676   4.921   0.204  11.020  0.1059  1.4505  0.4041
56289SOL     OW73677   4.125  11.218   5.009  0.2621 -0.2205  0.0277
56289SOL    HW173678   4.153  11.161   5.081 -0.4369 -1.0300 -0.3337
56289SOL    HW273679   4.166  11.180   4.931 -1.5873 -1.2639 -0.4700
56290SOL     OW73680   3.769   4.964   6.137  0.1584 -0.6230 -0.0386
56290SOL    HW173681   3.835   5.018   6.093 -1.7442 -0.0192 -2.3286
56290SOL    HW273682   3.753   5.009   6.220  0.3390  1.0249 -0.8523
56291SOL     OW73683   3.850  11.140   9.313 -0.2256 -0.1218  0.4055
56291SOL    HW173684   3.822  11.158   9.403 -0.1558  0.3369  0.3375
56291SOL    HW273685   3.811  11.055   9.292 -1.6115  0.5096  0.2904
56292SOL     OW73686   3.188  11.488   0.736 -0.4735  0.2428  0.3527
56292SOL    HW173687   3.275  11.509   0.770 -0.1266  0.6490 -0.7427
56292SOL    HW273688   3.169  11.400   0.770  0.3894  0.1230  0.5439
56293SOL     OW73689   0.700   4.553  10.776 -0.0810  0.0352 -0.3211
56293SOL    HW173690   0.724   4.559  10.868  0.1178 -1.1629 -0.2745
56293SOL    HW273691   0.776   4.588  10.729 -0.1029  0.4678 -0.0422
56294SOL     OW73692  12.272  11.146   4.947  0.5049 -0.1181  0.0661
56294SOL    HW173693  12.216  11.219   4.972  1.7533  1.5220 -1.6664
56294SOL    HW273694  12.322  11.125   5.026 -0.6599  0.1209  0.8944
56295SOL     OW73695  11.954   8.375  10.523 -0.4382 -0.0532  0.1822
56295SOL    HW173696  11.959   8.470  10.532 -0.1336  0.0669 -1.0142
56295SOL    HW273697  12.011   8.355  10.449 -2.5710 -0.8560 -1.3641
56296SOL     OW73698   1.618  11.114   6.041  0.1092 -0.0365  0.0048
56296SOL    HW173699   1.554  11.185   6.047 -0.2036 -0.3292  0.1618
56296SOL    HW273700   1.652  11.119   5.951  0.4242  0.5984  0.1562
56297SOL     OW73701   0.021   5.418   0.737 -0.5625  0.0560  0.3914
56297SOL    HW173702   0.054   5.352   0.676 -0.4764  0.1698  0.3156
56297SOL    HW273703   0.029   5.377   0.823  0.9914  0.5704  0.5117
56298SOL     OW73704   0.514   5.007   7.206 -0.0379  0.2216  0.0373
56298SOL    HW173705   0.586   4.943   7.205 -0.6118 -0.4730  1.2185
56298SOL    HW273706   0.490   5.014   7.299  1.7383  4.1565  0.4056
56299SOL     OW73707   9.658   6.077  12.104  0.2605  0.4043 -0.2559
56299SOL    HW173708   9.592   6.094  12.038  0.2326  1.2951 -0.0127
56299SOL    HW273709   9.617   6.102  12.187  0.5810  0.0935  0.0016
56300SOL     OW73710   6.096   3.487   1.530 -0.0225 -0.5504 -0.0418
56300SOL    HW173711   6.116   3.553   1.464 -1.6375  0.0495  0.0338
56300SOL    HW273712   6.062   3.536   1.604  0.5180 -1.3328  0.7502
56301SOL     OW73713   8.481   4.719   9.318  0.2436 -0.1443 -0.0930
56301SOL    HW173714   8.462   4.774   9.395  0.7186 -1.0335  0.6726
56301SOL    HW273715   8.571   4.689   9.331  1.1198  1.3978 -2.0722
56302SOL     OW73716   1.614  10.013   7.912 -0.1217 -0.7949  0.4306
56302SOL    HW173717   1.663  10.046   7.988  0.3030 -2.1126  0.7721
56302SOL    HW273718   1.530  10.057   7.916  0.5374  0.4851  0.6411
56303SOL     OW73719   7.814   3.762   3.642  0.2395 -0.2997  0.1421
56303SOL    HW173720   7.778   3.838   3.688  2.7223  1.2036 -0.1576
56303SOL    HW273721   7.772   3.686   3.683 -1.2632  1.1714  1.4628
56304SOL     OW73722   8.890  10.514   8.971  0.1031 -0.4740 -0.3259
56304SOL    HW173723   8.888  10.420   8.958 -0.6321 -0.3017 -1.5683
56304SOL    HW273724   8.913  10.550   8.886 -1.5903  0.5581 -0.3953
56305SOL     OW73725   3.316   9.042   9.713  0.1694  0.5095 -0.2103
56305SOL    HW173726   3.233   9.042   9.761  0.2482 -0.4481 -0.0617
56305SOL    HW273727   3.290   9.037   9.621  0.0676 -2.3201 -0.0885
56306SOL     OW73728  11.527   6.931   8.831 -0.1910  0.2142  0.1242
56306SOL    HW173729  11.457   6.921   8.895  0.1344  0.4342  0.5197
56306SOL    HW273730  11.490   6.985   8.762 -0.0723  1.2753  0.8658
56307SOL     OW73731   9.768   5.326   2.197 -0.4574  0.0749 -0.3815
56307SOL    HW173732   9.694   5.303   2.254 -1.1914  0.2309 -1.2452
56307SOL    HW273733   9.803   5.406   2.236 -0.2810 -0.3933  0.4525
56308SOL     OW73734  10.319   4.405  10.765  0.8497  0.3008  0.2507
56308SOL    HW173735  10.389   4.454  10.808  0.4825 -1.4937  3.1812
56308SOL    HW273736  10.324   4.317  10.803 -3.7115  0.3983  1.7188
56309SOL     OW73737   6.036   6.671   8.117  0.2052  0.3593 -0.4803
56309SOL    HW173738   5.942   6.654   8.125  0.4542 -0.8775 -0.1220
56309SOL    HW273739   6.053   6.740   8.182  0.2635 -2.2325  2.4576
56310SOL     OW73740   6.391   1.416  10.845 -0.2244  0.0098  0.0207
56310SOL    HW173741   6.454   1.366  10.794  0.2899  1.6840 -1.0762
56310SOL    HW273742   6.332   1.350  10.882  1.5643 -1.5222  0.2755
56311SOL     OW73743   9.341   7.455   3.061  0.1877  0.3679 -0.0620
56311SOL    HW173744   9.292   7.524   3.107 -0.1070 -1.7814  3.2230
56311SOL    HW273745   9.279   7.420   2.997 -0.0703  2.2590 -0.9030
56312SOL     OW73746   6.439   9.313   2.345  0.4019 -0.0263  0.5585
56312SOL    HW173747   6.502   9.274   2.406  0.5168 -0.7918 -0.0364
56312SOL    HW273748   6.391   9.238   2.309 -0.5036  0.5085  0.6199
56313SOL     OW73749   9.470  11.068   5.182 -0.2696 -0.2482  0.3969
56313SOL    HW173750   9.418  11.136   5.138 -0.0119  0.2359  0.8274
56313SOL    HW273751   9.529  11.036   5.113 -1.0876 -0.7687 -0.0813
56314SOL     OW73752   6.600   4.234   2.910  1.2125  0.8717  0.0895
56314SOL    HW173753   6.643   4.266   2.831  1.8785 -2.7635 -1.2052
56314SOL    HW273754   6.669   4.229   2.975  2.3489 -2.3482 -1.1786
56315SOL     OW73755  11.371   3.131   5.850 -0.5123  0.1183  0.4364
56315SOL    HW173756  11.425   3.134   5.929  0.7866 -0.2998 -0.3912
56315SOL    HW273757  11.415   3.190   5.789 -1.8500  0.9235  0.2233
56316SOL     OW73758   2.090  10.723   3.758 -0.6419 -0.3954  0.3731
56316SOL    HW173759   2.169  10.670   3.746 -1.3741 -1.5800  0.6590
56316SOL    HW273760   2.123  10.812   3.772  0.6324 -0.8590  0.4585
56317SOL     OW73761   0.133   3.687  12.265  0.2989 -0.4444 -0.4506
56317SOL    HW173762   0.142   3.733  12.349 -0.5896  0.0333 -0.6029
56317SOL    HW273763   0.059   3.627  12.279 -0.2194  0.0427 -1.0611
56318SOL     OW73764  11.016   2.645   8.325 -0.1134 -0.2946 -0.2179
56318SOL    HW173765  10.996   2.738   8.315  0.0697 -0.3086 -0.8055
56318SOL    HW273766  10.967   2.617   8.401  0.9869  0.6294  0.8744
56319SOL     OW73767   4.748   1.662   9.918  0.2796  0.1963  0.2825
56319SOL    HW173768   4.783   1.586   9.965  0.9695 -0.6339 -1.4788
56319SOL    HW273769   4.719   1.721   9.987  1.4806 -0.8372  1.7505
56320SOL     OW73770   6.010   7.481  11.609  0.0055 -0.1970 -0.0105
56320SOL    HW173771   5.993   7.411  11.545  0.8999 -0.2347 -0.2198
56320SOL    HW273772   6.101   7.505  11.595 -0.4397  1.4259 -0.3277
56321SOL     OW73773   6.815   3.165  11.749 -0.0373  0.4099  0.2367
56321SOL    HW173774   6.742   3.124  11.796 -0.7407 -0.6977 -1.6898
56321SOL    HW273775   6.880   3.095  11.741  0.2478  0.7073 -0.0631
56322SOL     OW73776   7.921   9.802  11.780  0.0773 -0.0979 -0.0757
56322SOL    HW173777   7.993   9.832  11.724 -0.3435 -0.0674 -0.6068
56322SOL    HW273778   7.842   9.814  11.727 -0.4662  1.0068  0.9497
56323SOL     OW73779   8.837   9.921   7.938 -0.1855  0.0616  0.1154
56323SOL    HW173780   8.801   9.984   8.001 -2.0050 -0.6252 -0.1789
56323SOL    HW273781   8.826   9.963   7.853  3.4684  1.5677  0.1816
56324SOL     OW73782   5.499  10.315   1.370  0.2821  0.0323 -0.0406
56324SOL    HW173783   5.579  10.265   1.390  1.3706  1.8986  0.4943
56324SOL    HW273784   5.511  10.343   1.279 -0.8565 -1.5645 -0.7222
56325SOL     OW73785   1.031   8.462   6.131 -0.0620  0.0384  0.1583
56325SOL    HW173786   1.008   8.534   6.189 -0.0057  0.4871 -0.3711
56325SOL    HW273787   1.120   8.482   6.102 -0.4970  0.4126 -0.9621
56326SOL     OW73788   5.819  10.052  12.160  0.0595  0.3169 -0.1065
56326SOL    HW173789   5.835   9.959  12.146  2.1337  0.7883 -1.3058
56326SOL    HW273790   5.842  10.067  12.252  2.1208  0.0503 -0.5321
56327SOL     OW73791   6.203   5.814  11.299 -0.1841  0.1409 -0.3968
56327SOL    HW173792   6.200   5.719  11.287 -1.7288  0.1373 -0.2367
56327SOL    HW273793   6.114   5.837  11.328  0.8043  1.3284  1.9475
56328SOL     OW73794   8.582   5.329  12.356  0.1203  0.5219  0.2109
56328SOL    HW173795   8.580   5.239  12.390  1.6899  0.7695  1.0136
56328SOL    HW273796   8.600   5.383  12.433 -0.2918  1.4898 -0.3609
56329SOL     OW73797   1.016   1.320   7.077 -0.3920  0.1240  0.3118
56329SOL    HW173798   1.096   1.371   7.061 -1.7712  1.7961 -1.7097
56329SOL    HW273799   0.945   1.380   7.059 -2.1620 -1.3306  2.0723
56330SOL     OW73800   7.224  12.057  12.314 -0.6327 -0.6540  0.2581
56330SOL    HW173801   7.310  12.068  12.356 -1.4898  1.0597  1.7119
56330SOL    HW273802   7.240  12.077  12.221  0.5114 -0.2212  0.5332
56331SOL     OW73803  11.747   6.810   8.202 -0.7274  0.1005 -0.4043
56331SOL    HW173804  11.813   6.764   8.149 -1.4212 -0.5173 -0.7640
56331SOL    HW273805  11.741   6.758   8.282 -1.0529 -0.0791 -0.5412
56332SOL     OW73806   5.660   5.362   6.240  0.1617 -0.3714 -0.1577
56332SOL    HW173807   5.655   5.451   6.275  0.4487 -1.2563  2.3259
56332SOL    HW273808   5.596   5.361   6.168 -0.8743  1.4411  0.6678
56333SOL     OW73809   1.094   0.769   2.159  0.2690  0.1623  0.1520
56333SOL    HW173810   1.112   0.836   2.225 -0.1786  1.7046 -1.2152
56333SOL    HW273811   1.077   0.819   2.079 -1.5634 -1.5460 -0.5913
56334SOL     OW73812   2.359   4.203   1.524  0.3088  0.0049 -0.3135
56334SOL    HW173813   2.388   4.221   1.434  0.6170 -0.4480 -0.3093
56334SOL    HW273814   2.439   4.175   1.569 -0.1375 -1.3412 -0.3239
56335SOL     OW73815  10.486   1.990  10.697  0.5016  0.2775 -0.0897
56335SOL    HW173816  10.542   1.925  10.656 -0.0286  1.0750 -2.1813
56335SOL    HW273817  10.404   1.944  10.715  0.7819 -0.1074  0.2239
56336SOL     OW73818   4.373   8.068  11.153 -0.1243 -0.2766  0.3505
56336SOL    HW173819   4.364   8.013  11.231  0.6472  0.5481  1.0359
56336SOL    HW273820   4.464   8.098  11.155 -0.0318 -0.4129 -0.9903
56337SOL     OW73821   2.924   7.244   5.257  0.0619 -0.1932 -0.7455
56337SOL    HW173822   2.962   7.157   5.265  0.0620 -0.0471  2.8920
56337SOL    HW273823   2.832   7.231   5.282 -0.2395  0.6604 -1.3976
56338SOL     OW73824   4.531  10.976   8.871 -0.3953  0.2336 -0.2478
56338SOL    HW173825   4.529  11.047   8.936 -0.4037  1.8820 -1.9381
56338SOL    HW273826   4.482  10.905   8.912 -0.6499  1.2958  1.4290
56339SOL     OW73827   0.201   3.206   5.559 -0.2118  0.0334 -0.0448
56339SOL    HW173828   0.114   3.230   5.592  0.6612  1.6291  1.2370
56339SOL    HW273829   0.262   3.248   5.619  1.4695 -0.0755 -1.5867
56340SOL     OW73830   8.504   3.743  10.509  0.4609 -0.0939  0.1407
56340SOL    HW173831   8.446   3.794  10.566 -0.1082  1.0834 -1.4144
56340SOL    HW273832   8.463   3.749  10.422  0.9196 -2.3927 -0.3040
56341SOL     OW73833   1.177   0.919   2.913  0.0142 -0.6218 -0.5305
56341SOL    HW173834   1.146   0.927   3.003  0.4662  1.4387 -0.5096
56341SOL    HW273835   1.099   0.893   2.863 -1.0512  1.3408  0.0054
56342SOL     OW73836   8.249   6.842   1.518 -0.4063  0.2819 -0.2585
56342SOL    HW173837   8.268   6.884   1.434  0.8284 -0.8086 -0.5631
56342SOL    HW273838   8.154   6.844   1.525 -0.5179  0.6678 -1.5423
56343SOL     OW73839   8.818  10.326   2.509  0.6800  0.1451 -0.6985
56343SOL    HW173840   8.839  10.402   2.455  1.7793 -0.9389 -1.8337
56343SOL    HW273841   8.884  10.261   2.487 -0.8553 -1.5378 -0.5550
56344SOL     OW73842   4.000   7.177   1.277 -0.0926  0.1597  0.3146
56344SOL    HW173843   4.093   7.168   1.255 -0.6593 -0.4756 -2.1991
56344SOL    HW273844   3.971   7.087   1.293 -0.3335  0.3213  0.7934
56345SOL     OW73845  10.567   9.886   1.052 -0.2959 -0.7307 -0.2398
56345SOL    HW173846  10.565   9.924   0.964  1.5321  1.1624  0.4363
56345SOL    HW273847  10.578   9.792   1.038 -0.1359 -0.4714 -2.0459
56346SOL     OW73848   6.495   0.238   2.462 -0.6353  0.1259  0.1497
56346SOL    HW173849   6.496   0.163   2.403  0.4220  0.3137 -0.0764
56346SOL    HW273850   6.580   0.236   2.506 -1.7452 -0.5756  2.4021
56347SOL     OW73851   8.574   9.651   6.555 -0.1067 -0.1999 -0.0948
56347SOL    HW173852   8.614   9.730   6.517  1.2826 -0.1282  1.4277
56347SOL    HW273853   8.616   9.579   6.510 -0.8509 -0.1129 -0.9697
56348SOL     OW73854   7.140  10.809   0.866  0.0962 -0.0238  0.1465
56348SOL    HW173855   7.168  10.837   0.954  2.2636  0.2170 -0.5474
56348SOL    HW273856   7.183  10.871   0.807  0.8910 -1.7776 -1.2028
56349SOL     OW73857   7.246   0.039   5.922 -0.6329 -0.1012 -0.0522
56349SOL    HW173858   7.316   0.055   5.985 -1.7162  1.4724  0.8191
56349SOL    HW273859   7.290   0.040   5.837  0.5577 -0.2945  0.5355
56350SOL     OW73860   7.921   4.344   6.503  0.0427  0.0400 -0.1399
56350SOL    HW173861   7.833   4.362   6.468  0.2132 -2.1584 -1.9249
56350SOL    HW273862   7.944   4.258   6.468  2.2452 -0.2168  1.6889
56351SOL     OW73863   4.511   6.596   9.270 -0.4256 -0.1650 -0.0881
56351SOL    HW173864   4.443   6.627   9.210 -0.4942 -0.3857 -0.1238
56351SOL    HW273865   4.583   6.570   9.213  0.6343  2.2684  0.0144
56352SOL     OW73866  11.752   8.015   7.896 -0.3038  0.4806  0.0648
56352SOL    HW173867  11.842   7.995   7.923  0.8888  0.7392 -3.1667
56352SOL    HW273868  11.728   7.942   7.839 -2.3038  0.3125  1.0453
56353SOL     OW73869  11.866   7.411   7.123  0.4242 -0.0955  0.0422
56353SOL    HW173870  11.788   7.362   7.149  0.3002  0.5983  1.0402
56353SOL    HW273871  11.837   7.463   7.048  0.4305 -1.1661 -0.7245
56354SOL     OW73872   3.350   9.209   0.136 -0.2821  0.0370  0.2303
56354SOL    HW173873   3.366   9.269   0.062  0.5080  0.0778  0.4258
56354SOL    HW273874   3.346   9.122   0.096 -0.6142  0.1347  0.0467
56355SOL     OW73875   4.755   4.625   1.462 -0.0307 -0.0661 -0.0360
56355SOL    HW173876   4.704   4.704   1.478 -0.4061 -0.6704  2.0255
56355SOL    HW273877   4.691   4.554   1.463  0.5829 -0.6289  0.5263
56356SOL     OW73878   2.602   0.923  11.944 -0.1814 -0.1717  0.1443
56356SOL    HW173879   2.543   0.907  12.017  0.5427 -0.5387  0.6606
56356SOL    HW273880   2.546   0.961  11.876 -1.1753 -1.2625  0.3213
56357SOL     OW73881   4.884  10.641   7.059 -0.0128 -0.1722  0.5938
56357SOL    HW173882   4.798  10.604   7.076 -0.5954  1.2813  0.9519
56357SOL    HW273883   4.945  10.581   7.103 -0.9560 -0.3425  1.7195
56358SOL     OW73884  10.000   7.182   4.259 -0.8530  0.2014  0.4093
56358SOL    HW173885  10.024   7.208   4.347 -0.3817 -0.5920  0.5267
56358SOL    HW273886   9.905   7.180   4.259 -0.8554 -1.6594  1.4890
56359SOL     OW73887  10.764  11.057   6.335 -0.3530  0.3887  0.3189
56359SOL    HW173888  10.812  11.126   6.380 -1.1566  0.5309  0.9915
56359SOL    HW273889  10.796  11.059   6.245  1.5875 -0.1533  0.9361
56360SOL     OW73890   1.419   8.509   4.346 -0.1684  0.3474  0.0551
56360SOL    HW173891   1.401   8.449   4.274  0.3944 -0.3273  0.4647
56360SOL    HW273892   1.336   8.517   4.392  0.3787 -2.4368  1.7080
56361SOL     OW73893   4.980   3.404   0.569  0.0781 -0.0447  0.3280
56361SOL    HW173894   5.021   3.357   0.496  1.8939  1.1866  0.5000
56361SOL    HW273895   4.888   3.410   0.544  0.8817  1.9140 -2.8317
56362SOL     OW73896   7.639   9.863   5.015  0.5290  0.1381  0.5432
56362SOL    HW173897   7.679   9.926   5.074 -0.1777 -0.8279  2.1056
56362SOL    HW273898   7.680   9.881   4.930  1.6137  1.5198  1.3146
56363SOL     OW73899  12.514   6.840  10.982  0.3036  0.1305 -0.3690
56363SOL    HW173900  12.495   6.928  10.949  0.1007 -0.7993 -2.8855
56363SOL    HW273901  12.597   6.849  11.028  0.3376  1.6108 -0.6869
56364SOL     OW73902   1.829   3.909  11.810  0.1323 -0.1916 -0.1639
56364SOL    HW173903   1.893   3.868  11.752  0.7135  1.6392 -0.8653
56364SOL    HW273904   1.777   3.965  11.752  0.6934  1.6480  1.0318
56365SOL     OW73905   4.609  10.491   9.360  0.2085  0.1918 -0.0313
56365SOL    HW173906   4.622  10.510   9.453 -1.8838 -1.1436  0.6099
56365SOL    HW273907   4.597  10.396   9.356  0.7756  0.1514 -1.7616
56366SOL     OW73908  10.036   0.805   6.498 -0.3559  0.3647  0.1886
56366SOL    HW173909  10.122   0.826   6.463  1.4498 -2.6228  2.4483
56366SOL    HW273910  10.018   0.716   6.468 -1.6854  0.1461  1.5168
56367SOL     OW73911   0.367   6.047   7.706  0.1922  0.1556  0.1259
56367SOL    HW173912   0.281   6.062   7.745 -0.4132 -1.0132 -0.6965
56367SOL    HW273913   0.427   6.100   7.759 -0.6982 -0.7191  2.1053
56368SOL     OW73914   1.423   2.330   8.157 -0.1635  0.0544  0.7547
56368SOL    HW173915   1.412   2.330   8.252 -1.1452  0.9827  0.6554
56368SOL    HW273916   1.336   2.311   8.123 -0.0960  1.0218  0.0177
56369SOL     OW73917   9.131  10.912   0.445 -0.1193  0.0965 -0.1084
56369SOL    HW173918   9.219  10.933   0.477 -0.4504  1.0022  0.2455
56369SOL    HW273919   9.072  10.954   0.507 -0.7922  0.8195 -1.1924
56370SOL     OW73920   0.308   5.661   2.854  0.2422 -0.1334  0.3564
56370SOL    HW173921   0.369   5.726   2.887  0.6344 -0.6500  0.6587
56370SOL    HW273922   0.346   5.633   2.770 -0.6927  1.0943 -0.5197
56371SOL     OW73923   1.236   2.057   9.231 -0.2923  0.4721 -0.3842
56371SOL    HW173924   1.181   2.051   9.153 -0.0175 -2.1764 -0.4610
56371SOL    HW273925   1.175   2.079   9.301 -0.9577  0.4285 -0.9331
56372SOL     OW73926   8.464   8.118  10.428 -0.2546  0.2860 -0.0017
56372SOL    HW173927   8.400   8.102  10.358  0.4859 -2.5973 -0.1572
56372SOL    HW273928   8.475   8.033  10.470  2.1103  1.1144  1.2223
56373SOL     OW73929   4.641   2.115   8.426 -0.0263 -0.5477  0.0596
56373SOL    HW173930   4.607   2.111   8.337 -0.2369 -1.6325  0.1737
56373SOL    HW273931   4.669   2.206   8.437 -1.0937 -0.0979 -0.7009
56374SOL     OW73932   6.939   6.049   2.248  0.2404 -0.3876 -0.4410
56374SOL    HW173933   7.013   6.057   2.188 -0.2162 -3.3342 -1.5790
56374SOL    HW273934   6.868   6.095   2.205  0.1476 -1.7519 -1.8500
56375SOL     OW73935   7.648   5.553   1.557 -0.4855  0.1455 -0.2992
56375SOL    HW173936   7.731   5.601   1.548 -1.2908  1.4438 -1.1540
56375SOL    HW273937   7.618   5.574   1.645 -0.5113  0.6918 -0.4339
56376SOL     OW73938   2.385   1.517   4.428  0.3192 -0.2181  0.0093
56376SOL    HW173939   2.351   1.564   4.352  0.3069  0.3151  0.3363
56376SOL    HW273940   2.309   1.469   4.462  0.5088 -1.0824 -0.7658
56377SOL     OW73941   7.783   6.798   7.632 -0.0793  0.3398 -0.3980
56377SOL    HW173942   7.707   6.782   7.576 -0.7397  1.7083  0.0739
56377SOL    HW273943   7.821   6.880   7.599  1.3147 -0.4045 -0.7336
56378SOL     OW73944   4.712  11.044  11.782  0.8620  0.0250  0.3929
56378SOL    HW173945   4.657  10.992  11.724  0.1326  0.5879  0.5550
56378SOL    HW273946   4.792  11.061  11.732  0.6116 -0.2416 -0.1024
56379SOL     OW73947   5.609   2.599   8.686  0.0034 -0.2977  0.0876
56379SOL    HW173948   5.579   2.567   8.771 -0.1044 -0.1074  0.1194
56379SOL    HW273949   5.632   2.690   8.701  1.4880 -0.6644  0.2958
56380SOL     OW73950   7.567   1.154   1.970  0.4847  0.2264 -0.0428
56380SOL    HW173951   7.624   1.230   1.976  2.7660 -1.4759  2.0945
56380SOL    HW273952   7.502   1.167   2.039 -0.5553  1.2181 -1.1607
56381SOL     OW73953   9.772   2.549   0.711  0.7107  0.3465 -0.2055
56381SOL    HW173954   9.799   2.538   0.802  0.8089 -1.6000 -0.4409
56381SOL    HW273955   9.681   2.520   0.709  1.5389 -2.4984 -1.2210
56382SOL     OW73956   0.306   1.009   1.084  0.0271  0.7566 -0.2304
56382SOL    HW173957   0.335   0.989   1.173  1.4711 -0.4375 -0.9417
56382SOL    HW273958   0.384   1.040   1.039 -0.3824  0.0869 -1.4529
56383SOL     OW73959   8.243   8.160  10.921  0.1694 -0.9142  0.0010
56383SOL    HW173960   8.276   8.233  10.973 -0.0685 -1.0714  0.3753
56383SOL    HW273961   8.148   8.173  10.919  0.2767  0.0137 -1.7736
56384SOL     OW73962   9.510  12.240   1.471 -0.1815 -0.3361  0.3256
56384SOL    HW173963   9.541  12.221   1.382 -0.4057  1.3934 -0.1580
56384SOL    HW273964   9.577  12.202   1.528 -0.0728 -1.5385 -0.5523
56385SOL     OW73965  10.908   3.200   9.071  0.0491 -0.4857 -0.7457
56385SOL    HW173966  10.940   3.109   9.071 -2.5981 -1.5224  0.4887
56385SOL    HW273967  10.816   3.193   9.046  0.1800  2.0910 -2.1938
56386SOL     OW73968   0.697   6.668   1.508  0.2486  0.4386 -0.2225
56386SOL    HW173969   0.775   6.679   1.454 -0.3275 -1.1043 -1.4629
56386SOL    HW273970   0.624   6.686   1.448 -0.3662  0.3919  0.5024
56387SOL     OW73971   7.797  10.255   4.804 -0.5548 -0.5889  0.3378
56387SOL    HW173972   7.812  10.331   4.859  3.0659 -0.1251 -1.0518
56387SOL    HW273973   7.851  10.186   4.842 -0.1402 -1.0663 -1.0433
56388SOL     OW73974  11.204   2.858   3.895 -0.0653 -0.0357  0.1917
56388SOL    HW173975  11.147   2.800   3.844 -1.1637  0.2615  1.0661
56388SOL    HW273976  11.179   2.843   3.986  0.2122  1.2024  0.4877
56389SOL     OW73977   0.554   1.392   7.323  0.1523 -0.2553  0.2359
56389SOL    HW173978   0.587   1.477   7.293  3.4510 -0.7782  1.9145
56389SOL    HW273979   0.511   1.354   7.246 -0.8230  2.5728 -0.7469
56390SOL     OW73980   4.635   7.412   5.344  0.1112  0.3644  0.1155
56390SOL    HW173981   4.702   7.412   5.275 -0.6985  1.3096 -0.6944
56390SOL    HW273982   4.682   7.383   5.422  1.2234 -0.0262 -0.6636
56391SOL     OW73983   5.879   3.129   4.129 -0.8295 -0.0368 -0.3020
56391SOL    HW173984   5.915   3.106   4.214  0.3533 -1.2757 -1.0940
56391SOL    HW273985   5.908   3.220   4.114  0.3527 -0.3527 -0.0679
56392SOL     OW73986   3.970   7.004  10.820  0.1719 -0.2617 -0.7842
56392SOL    HW173987   3.925   7.079  10.781  1.1495  1.1783  0.7268
56392SOL    HW273988   3.929   6.928  10.779 -2.9062  0.9568 -0.2387
56393SOL     OW73989   8.448   5.213  11.424 -0.1429 -0.3925 -0.2385
56393SOL    HW173990   8.517   5.157  11.458  1.6964  0.9188 -1.6052
56393SOL    HW273991   8.404   5.159  11.357  1.7054 -0.2339 -1.6604
56394SOL     OW73992   0.662   9.925  12.157 -0.2267 -0.5468 -0.3400
56394SOL    HW173993   0.585   9.916  12.212 -0.5917  1.1727 -0.5202
56394SOL    HW273994   0.699   9.836  12.153 -1.3423 -1.1116  0.9505
56395SOL     OW73995   8.570   1.619  11.557 -1.1199  0.0146 -0.5921
56395SOL    HW173996   8.620   1.571  11.491  0.4446  0.9672 -0.1781
56395SOL    HW273997   8.482   1.626  11.521 -0.8378 -1.3133 -1.5958
56396SOL     OW73998  10.402   8.370   1.525  0.0645  0.7881 -0.6548
56396SOL    HW173999  10.488   8.347   1.560 -0.6289  1.1456  1.4601
56396SOL    HW274000  10.373   8.291   1.479 -0.0653 -0.7848  1.9372
56397SOL     OW74001   1.388  12.021   6.563  0.0496  0.2583  0.1730
56397SOL    HW174002   1.424  12.073   6.634 -1.6962 -0.0768  1.3601
56397SOL    HW274003   1.374  12.084   6.492 -0.0997  1.0087  0.8546
56398SOL     OW74004   3.337  10.955   3.493  0.0046 -0.1083 -0.2725
56398SOL    HW174005   3.392  10.979   3.568 -0.7324  1.8032 -0.2835
56398SOL    HW274006   3.399  10.938   3.422  0.6382  1.1434 -0.0497
56399SOL     OW74007  12.499  11.255   2.812  0.1731 -0.0132 -0.4567
56399SOL    HW174008  12.508  11.216   2.725 -0.6092  0.1469 -0.6213
56399SOL    HW274009  12.438  11.197   2.858 -0.1159  0.3952 -0.3189
56400SOL     OW74010   3.585  10.330   9.181  0.1432  0.2002 -0.2898
56400SOL    HW174011   3.616  10.282   9.105  1.7586  1.4009 -0.4171
56400SOL    HW274012   3.516  10.387   9.147 -0.3583 -0.5159 -0.5060
56401SOL     OW74013   2.545   9.034   3.864  0.1933  0.1052  0.2861
56401SOL    HW174014   2.470   9.012   3.809  0.6521  0.3206 -0.4431
56401SOL    HW274015   2.543   8.969   3.935  0.6966 -1.4196 -1.0292
56402SOL     OW74016   5.008  10.410   1.989  0.3200 -0.0473 -0.2145
56402SOL    HW174017   5.039  10.409   1.898  1.4648  1.4103  0.1234
56402SOL    HW274018   4.984  10.319   2.007 -1.7511 -0.0793 -2.5365
56403SOL     OW74019   1.528   0.761   5.860 -0.4412 -0.0341 -0.4811
56403SOL    HW174020   1.490   0.849   5.860  1.4290  0.8034 -0.9389
56403SOL    HW274021   1.466   0.709   5.911 -2.0579  1.3191 -0.9758
56404SOL     OW74022   1.176   1.681   5.352  0.1031  0.7463  0.0263
56404SOL    HW174023   1.252   1.625   5.367 -0.4832 -0.0676  0.0304
56404SOL    HW274024   1.116   1.626   5.300 -0.5241  1.3361  0.1143
56405SOL     OW74025  10.317   0.422   1.162 -0.4800 -0.2539  0.2837
56405SOL    HW174026  10.372   0.474   1.222  0.7015  0.3979 -1.3012
56405SOL    HW274027  10.262   0.486   1.118  1.9955 -0.0125 -2.7508
56406SOL     OW74028   8.208   6.111  12.430 -0.4560 -0.5044 -0.3274
56406SOL    HW174029   8.115   6.124  12.451 -0.2812 -0.8904  0.7735
56406SOL    HW274030   8.211   6.026  12.387 -0.6555 -0.2874 -0.7869
56407SOL     OW74031   6.144  11.438  11.295  0.2497 -0.0189  0.1511
56407SOL    HW174032   6.223  11.481  11.327 -0.3486 -0.2433  2.0301
56407SOL    HW274033   6.103  11.401  11.373 -0.9698 -1.1556 -0.9736
56408SOL     OW74034   6.018   6.148  10.665 -0.1804 -0.2633  0.7521
56408SOL    HW174035   6.111   6.155  10.688 -0.0170  0.9609 -0.1808
56408SOL    HW274036   5.997   6.055  10.677  0.7632 -0.3026  2.4320
56409SOL     OW74037   3.363   5.530   0.837 -0.2239 -0.1669  0.4841
56409SOL    HW174038   3.317   5.514   0.919 -0.7553  0.7471  0.3733
56409SOL    HW274039   3.326   5.467   0.775 -1.1677  0.3920  0.4596
56410SOL     OW74040  12.521   0.302  12.555 -0.9206 -0.6313 -0.1758
56410SOL    HW174041  12.478   0.365  12.613 -0.7645  0.9496 -1.7157
56410SOL    HW274042  12.569   0.244  12.615 -0.9067  0.8230  1.2927
56411SOL     OW74043  11.489   6.214   1.066 -0.6063  0.2627 -0.8038
56411SOL    HW174044  11.408   6.164   1.053 -0.5020 -0.0339 -0.3486
56411SOL    HW274045  11.463   6.305   1.049 -1.3131  0.3101  0.3996
56412SOL     OW74046  11.029   3.509   7.904  0.2254 -0.3630  0.4815
56412SOL    HW174047  11.063   3.579   7.848  0.9149  0.9185  2.4212
56412SOL    HW274048  11.083   3.433   7.882  0.7371  0.2113 -0.3194
56413SOL     OW74049   1.366   1.581   2.412  0.4088 -0.0965  0.1448
56413SOL    HW174050   1.444   1.534   2.379  0.3965  0.5195 -0.7900
56413SOL    HW274051   1.296   1.554   2.353  0.1584  0.2468  0.2877
56414SOL     OW74052   1.505  11.597   8.909  0.2209 -0.1394  0.0556
56414SOL    HW174053   1.514  11.560   8.997  1.3614  0.4414  0.2046
56414SOL    HW274054   1.589  11.641   8.893 -0.3493  0.6252 -0.9236
56415SOL     OW74055   0.385   3.906   8.194 -0.4467 -0.3076  0.3250
56415SOL    HW174056   0.437   3.980   8.162  0.2251 -1.1579 -0.6133
56415SOL    HW274057   0.332   3.943   8.264  1.5743  0.5492  1.4851
56416SOL     OW74058   9.777  10.170   2.175 -0.0832 -0.2106  0.1623
56416SOL    HW174059   9.798  10.259   2.147 -0.8610 -0.3743 -1.0195
56416SOL    HW274060   9.702  10.180   2.234  0.4080 -0.0206  0.7676
56417SOL     OW74061   2.170  10.473   0.788 -0.3147 -0.2179  0.4229
56417SOL    HW174062   2.162  10.417   0.711 -1.0119 -1.2639  1.2285
56417SOL    HW274063   2.087  10.522   0.791  0.5339  1.3589 -0.6243
56418SOL     OW74064   7.990   6.772   2.676 -0.0617 -0.0755 -0.2279
56418SOL    HW174065   7.978   6.866   2.662 -0.6938 -0.1173  0.0083
56418SOL    HW274066   8.056   6.766   2.745  1.5317  0.1572 -1.6546
56419SOL     OW74067   3.794   3.515   4.289  0.6888 -0.6899 -0.8373
56419SOL    HW174068   3.727   3.447   4.275  2.2175 -2.6858  0.8848
56419SOL    HW274069   3.877   3.472   4.268  1.7001  0.6976  0.1032
56420SOL     OW74070   3.775   3.166   8.460 -0.0209 -0.5754  0.1575
56420SOL    HW174071   3.748   3.156   8.552  2.1211 -1.5461  0.7401
56420SOL    HW274072   3.867   3.140   8.459 -0.1117 -1.0467 -2.3826
56421SOL     OW74073  10.314   0.863   2.725  0.1969 -0.3057 -0.0361
56421SOL    HW174074  10.233   0.908   2.748  0.0327 -0.0909 -0.9653
56421SOL    HW274075  10.380   0.932   2.721 -0.2808  0.0980 -2.5546
56422SOL     OW74076   6.309   5.346   7.208 -0.0576 -0.4862  0.1907
56422SOL    HW174077   6.242   5.308   7.152 -0.1252  1.5618 -1.2449
56422SOL    HW274078   6.385   5.288   7.197 -1.1665 -2.1091  0.8376
56423SOL     OW74079   6.354   9.974   8.378 -0.0110  0.0613  0.1530
56423SOL    HW174080   6.442   9.979   8.417  0.0455  0.5498 -0.0282
56423SOL    HW274081   6.307  10.047   8.419  0.4853  1.5476 -1.7629
56424SOL     OW74082  12.114   4.210   5.786  0.6492  0.4927 -0.3691
56424SOL    HW174083  12.153   4.123   5.785  1.2985  0.7661 -2.3657
56424SOL    HW274084  12.023   4.195   5.760  0.3474  0.2547  0.7921
56425SOL     OW74085   6.271   0.741   4.009 -0.2607 -0.3462  0.3162
56425SOL    HW174086   6.317   0.824   3.994 -1.4150  0.3209  0.3953
56425SOL    HW274087   6.268   0.700   3.923 -0.4384  0.0943  0.1103
56426SOL     OW74088  10.050   4.071  11.112 -0.0662  0.4774 -0.1664
56426SOL    HW174089  10.002   4.032  11.039 -1.3894  0.1336  0.8483
56426SOL    HW274090  10.010   4.032  11.190  2.1419 -0.1262  0.7342
56427SOL     OW74091  11.286  10.642   3.984  0.0868 -0.2534 -0.5733
56427SOL    HW174092  11.350  10.706   4.015 -0.9855  0.7161 -0.2605
56427SOL    HW274093  11.265  10.590   4.061  0.1683 -0.2741 -0.5654
56428SOL     OW74094   8.180  10.694   2.408 -0.5735  0.1059  0.2446
56428SOL    HW174095   8.180  10.749   2.329  0.7674  0.0506  0.1873
56428SOL    HW274096   8.114  10.733   2.464 -1.4488  0.2444 -0.8385
56429SOL     OW74097  11.674   0.515   1.725 -0.8790  0.5102  0.1893
56429SOL    HW174098  11.640   0.446   1.669  2.3380 -0.1201 -1.2154
56429SOL    HW274099  11.716   0.469   1.798 -0.0632  1.0373  0.0657
56430SOL     OW74100   2.054   5.701   4.565  0.1244 -0.4796 -0.3577
56430SOL    HW174101   2.092   5.694   4.477  0.2102  0.7334 -0.4300
56430SOL    HW274102   2.070   5.791   4.591  0.2881 -0.8830  1.0052
56431SOL     OW74103   6.232   0.581   2.744  0.1609 -0.9318  0.2353
56431SOL    HW174104   6.274   0.519   2.685 -1.1639 -0.0124 -1.7391
56431SOL    HW274105   6.260   0.667   2.713 -0.9756 -0.4028  0.6174
56432SOL     OW74106   3.203   7.347  12.646 -0.0995  0.2403 -0.1568
56432SOL    HW174107   3.239   7.397  12.720  1.0408 -1.1798  0.2918
56432SOL    HW274108   3.280   7.320  12.596 -0.7340 -0.5733 -0.7113
56433SOL     OW74109  10.671   5.867  12.223  0.7191  0.1268  0.1522
56433SOL    HW174110  10.703   5.903  12.305  1.3263 -1.3519  0.6050
56433SOL    HW274111  10.751   5.839  12.177  0.4678  1.6661 -1.3412
56434SOL     OW74112   8.437  10.447   1.004 -0.5434 -0.1213 -0.2850
56434SOL    HW174113   8.355  10.493   1.024 -0.5991 -0.5676  0.5517
56434SOL    HW274114   8.489  10.456   1.084  0.4497  0.6209 -0.9990
56435SOL     OW74115   0.667   5.870   8.225 -0.0826  0.0385  0.2198
56435SOL    HW174116   0.576   5.852   8.200 -0.3907  2.5245 -0.7141
56435SOL    HW274117   0.718   5.801   8.182 -1.4455 -1.0425  0.2586
56436SOL     OW74118   1.704   2.534   0.826 -0.4997  0.3515 -0.1055
56436SOL    HW174119   1.704   2.515   0.733 -1.3853 -0.2093 -0.0090
56436SOL    HW274120   1.783   2.491   0.860  0.3294  1.3446 -0.7251
56437SOL     OW74121   7.944  10.500   0.926  0.0051  0.2648 -0.7719
56437SOL    HW174122   7.954  10.438   0.999 -1.8636  0.2145 -0.5041
56437SOL    HW274123   7.987  10.580   0.957 -0.3868  0.1061  0.2427
56438SOL     OW74124   5.681   8.110  11.771  0.0104 -0.3372  0.8037
56438SOL    HW174125   5.718   8.183  11.820  0.3044  1.5642 -2.0031
56438SOL    HW274126   5.751   8.081  11.713 -0.9574 -0.9606 -0.1003
56439SOL     OW74127   8.484   9.373   9.014 -0.5041 -0.0479  0.7396
56439SOL    HW174128   8.535   9.356   9.094 -1.7640  1.0519  1.8353
56439SOL    HW274129   8.541   9.428   8.960  0.6198 -1.3448  0.5678
56440SOL     OW74130   2.098   1.198  12.280  0.0309 -0.7666 -0.8110
56440SOL    HW174131   2.014   1.217  12.237 -0.6930 -1.8205  0.0939
56440SOL    HW274132   2.112   1.105  12.265  0.4755 -0.8433  0.0182
56441SOL     OW74133   2.900   0.211   9.296  0.0874  0.5264  0.2585
56441SOL    HW174134   2.918   0.125   9.335 -0.7900  0.2018 -0.0456
56441SOL    HW274135   2.970   0.267   9.330  2.2521 -0.8738 -1.5463
56442SOL     OW74136   3.666   1.271   1.664  0.2422 -0.0416  0.6253
56442SOL    HW174137   3.653   1.332   1.591  0.6791  0.5533  1.0325
56442SOL    HW274138   3.621   1.312   1.738 -1.1589 -1.1797  0.4511
56443SOL     OW74139   4.188  11.802   9.539  0.1888 -0.1189 -0.2438
56443SOL    HW174140   4.167  11.709   9.537  3.7908 -1.1164  0.8670
56443SOL    HW274141   4.228  11.819   9.454  0.8480  0.0096  0.0846
56444SOL     OW74142  10.247   2.629   8.968 -0.4926 -0.0863  0.8358
56444SOL    HW174143  10.339   2.616   8.948 -0.8794 -0.7518 -0.6570
56444SOL    HW274144  10.225   2.557   9.028 -0.4191 -0.8799 -0.0778
56445SOL     OW74145  12.479   2.485   6.322 -0.3552  0.0341  0.2022
56445SOL    HW174146  12.522   2.440   6.249 -1.0684 -0.3163 -0.0126
56445SOL    HW274147  12.495   2.428   6.397 -1.3815 -0.6851 -0.0970
56446SOL     OW74148   5.584   5.592   7.739 -0.6127 -0.3177 -0.4116
56446SOL    HW174149   5.535   5.644   7.803 -1.2239  0.2325 -1.2941
56446SOL    HW274150   5.612   5.656   7.673  1.1425 -0.6503 -0.0465
56447SOL     OW74151  11.416   8.723   9.807  0.4332 -0.1169 -0.2767
56447SOL    HW174152  11.382   8.735   9.895  0.9340 -0.9008  0.0340
56447SOL    HW274153  11.382   8.639   9.779  3.0818 -1.5852  0.5595
56448SOL     OW74154   2.492   6.762   8.349 -0.3954  0.1410  0.4801
56448SOL    HW174155   2.550   6.756   8.424 -0.4123 -1.2758  0.3931
56448SOL    HW274156   2.529   6.701   8.285 -0.7546  0.8417 -0.4151
56449SOL     OW74157   5.199   4.338   6.585  0.0847  0.2745  0.0521
56449SOL    HW174158   5.282   4.375   6.615  0.9096 -3.0064  2.4403
56449SOL    HW274159   5.225   4.265   6.528 -0.8024 -2.4542  2.8217
56450SOL     OW74160  12.481  10.982   6.673  0.2842 -0.3934  0.2491
56450SOL    HW174161  12.454  10.999   6.763  0.3396  0.4386  0.1181
56450SOL    HW274162  12.418  10.918   6.640  0.4485 -0.9343  0.9670
56451SOL     OW74163  11.287   4.950   9.679 -0.5145  0.0437 -0.7483
56451SOL    HW174164  11.319   5.002   9.753  3.5592 -1.5726 -1.1206
56451SOL    HW274165  11.319   4.997   9.602 -1.7692 -0.0906 -1.3772
56452SOL     OW74166   7.712  10.908   8.008  0.0473  0.0628  0.1879
56452SOL    HW174167   7.737  11.000   7.999  0.5706 -0.1454 -0.5368
56452SOL    HW274168   7.763  10.877   8.083  0.8571  0.0279 -0.3737
56453SOL     OW74169   9.339  10.894  11.638 -0.3588 -0.4817  0.3088
56453SOL    HW174170   9.403  10.965  11.628  0.6428 -1.3349  0.4201
56453SOL    HW274171   9.361  10.853  11.722  0.1937 -1.9710 -0.5195
56454SOL     OW74172   6.007   3.668   5.505 -0.7664  0.2817  0.6495
56454SOL    HW174173   5.977   3.759   5.511  0.0766  0.6202 -0.0671
56454SOL    HW274174   5.943   3.618   5.556 -1.4490  1.2250  0.7386
56455SOL     OW74175   1.248   9.529   9.614 -0.4476  0.4710 -0.0551
56455SOL    HW174176   1.215   9.617   9.599 -0.6296  0.2891 -0.7352
56455SOL    HW274177   1.182   9.488   9.669  0.1442  1.0827  1.1636
56456SOL     OW74178  11.091   5.128   2.569  0.3825 -0.0182 -0.4744
56456SOL    HW174179  11.040   5.206   2.590 -2.9792 -1.2938 -2.8297
56456SOL    HW274180  11.049   5.058   2.620  0.4718 -0.9384 -1.6146
56457SOL     OW74181  10.426  10.132   3.619 -0.1929 -0.1231 -0.1193
56457SOL    HW174182  10.417  10.226   3.632 -0.7516 -0.1590 -0.2229
56457SOL    HW274183  10.418  10.119   3.524  2.7894  0.0208 -0.4906
56458SOL     OW74184   9.682  11.832   4.460 -0.6161  0.3529  0.1645
56458SOL    HW174185   9.647  11.863   4.377  1.8716 -1.9447 -1.9369
56458SOL    HW274186   9.682  11.736   4.453 -1.2989 -0.0017  3.3091
56459SOL     OW74187   1.782   5.969   6.448 -0.4844 -0.0256 -0.5200
56459SOL    HW174188   1.781   5.891   6.394  1.2682  0.3843 -1.2179
56459SOL    HW274189   1.735   6.035   6.397 -1.0967 -0.3337 -0.3662
56460SOL     OW74190   4.127  12.496   9.525  0.3869 -0.3897  0.0482
56460SOL    HW174191   4.082  12.565   9.476 -0.4492 -0.1395  1.1248
56460SOL    HW274192   4.214  12.531   9.542 -0.1057  0.5058  0.7844
56461SOL     OW74193   1.261   5.679  11.400 -0.1445  0.1389 -0.0688
56461SOL    HW174194   1.185   5.622  11.413  0.6062 -0.5165  1.7623
56461SOL    HW274195   1.253   5.709  11.310 -3.3547  1.2257  0.4467
56462SOL     OW74196  10.143   9.755   9.306 -0.0693  0.3306  0.0744
56462SOL    HW174197  10.078   9.699   9.264 -1.5103  0.0360  2.5177
56462SOL    HW274198  10.092   9.812   9.364  1.6503  1.8788  0.1599
56463SOL     OW74199   1.647   1.923  10.415  0.0016  0.0569  0.0953
56463SOL    HW174200   1.705   1.880  10.478  3.2641  2.6111 -0.8657
56463SOL    HW274201   1.659   1.874  10.334 -0.2357 -0.2094  0.2200
56464SOL     OW74202   0.962   2.221   3.924  0.9529  0.2824 -0.2081
56464SOL    HW174203   0.905   2.210   3.848  2.0649 -1.2824 -0.8717
56464SOL    HW274204   1.049   2.199   3.892  1.3513 -1.1593  1.6724
56465SOL     OW74205   6.614   0.352  10.151  0.0519 -0.1608 -0.5557
56465SOL    HW174206   6.673   0.419  10.114 -0.0948  1.3479  1.7661
56465SOL    HW274207   6.671   0.296  10.203 -0.3040  0.2525  0.2886
56466SOL     OW74208   5.310  11.941   0.576 -0.3406  1.0449  0.4102
56466SOL    HW174209   5.264  11.937   0.492  3.1964 -0.9425 -1.7255
56466SOL    HW274210   5.347  12.029   0.578 -0.9194  1.2991  0.1688
56467SOL     OW74211   4.747   8.287   8.749 -0.4637  0.0593  0.2053
56467SOL    HW174212   4.842   8.286   8.737 -0.2939 -1.7639  1.2664
56467SOL    HW274213   4.735   8.316   8.840 -0.7402 -1.9280  0.8550
56468SOL     OW74214   0.652  10.172   5.972  0.2788 -0.7783 -0.1374
56468SOL    HW174215   0.703  10.175   5.891 -1.9831  0.9321 -1.6390
56468SOL    HW274216   0.715  10.147   6.039  2.1168 -3.1340 -2.4968
56469SOL     OW74217   3.644   3.463   7.776  0.0209 -0.3778 -0.0124
56469SOL    HW174218   3.712   3.405   7.812  1.9739  1.4566 -0.5595
56469SOL    HW274219   3.662   3.466   7.682  1.6805  3.0245  0.2588
56470SOL     OW74220   9.568   4.384  10.120 -0.2248  0.0943  0.2466
56470SOL    HW174221   9.656   4.398  10.083 -0.0688  0.3498  0.7013
56470SOL    HW274222   9.516   4.351  10.047  0.7031 -1.7917  0.3724
56471SOL     OW74223   2.634   7.146   0.755 -0.2913  0.4622  0.3461
56471SOL    HW174224   2.571   7.207   0.795 -1.5403  1.0206 -2.2683
56471SOL    HW274225   2.582   7.068   0.734  0.0699  0.5471 -0.9464
56472SOL     OW74226   6.628   5.951   5.719 -0.6702 -0.4517  0.0871
56472SOL    HW174227   6.703   5.994   5.762 -0.7614  0.8388 -0.9751
56472SOL    HW274228   6.573   5.922   5.791  0.5785 -0.9343  0.8846
56473SOL     OW74229   3.424   7.774  12.157  0.1981 -0.2715 -0.0115
56473SOL    HW174230   3.373   7.783  12.237 -0.4314  2.2940 -0.5973
56473SOL    HW274231   3.359   7.779  12.086  0.8393 -1.4845 -0.7092
56474SOL     OW74232  12.284   8.213  11.009  0.5056 -0.1211  0.1814
56474SOL    HW174233  12.224   8.172  10.948 -1.9554  1.5952  1.2904
56474SOL    HW274234  12.315   8.291  10.963  1.9257 -0.9586 -0.3563
56475SOL     OW74235   7.232   7.558   8.595 -0.6542  0.5593 -0.2969
56475SOL    HW174236   7.166   7.497   8.564  0.6784 -0.9670 -0.2915
56475SOL    HW274237   7.312   7.505   8.601 -0.0174  1.6741  2.2205
56476SOL     OW74238   6.229   2.238  12.489  0.0279  0.9982  0.5052
56476SOL    HW174239   6.163   2.297  12.451 -0.7219  1.8470  2.8758
56476SOL    HW274240   6.304   2.295  12.505 -0.2592  1.0805  1.6884
56477SOL     OW74241   2.748  11.300   5.619 -0.2727  0.1397  0.3427
56477SOL    HW174242   2.716  11.365   5.557 -2.1609 -1.9080 -1.0238
56477SOL    HW274243   2.817  11.253   5.572  0.8541  0.9082  1.1929
56478SOL     OW74244  12.091   6.566   3.663  0.1004 -0.1368  0.2956
56478SOL    HW174245  12.152   6.636   3.685 -1.2092  1.4832 -0.9346
56478SOL    HW274246  12.046   6.546   3.745  0.9504  0.0034  0.7998
56479SOL     OW74247   2.285  11.640   4.847  0.6194  1.0726  0.4942
56479SOL    HW174248   2.334  11.704   4.796 -0.1317 -0.5227 -2.5072
56479SOL    HW274249   2.213  11.613   4.789  0.2105 -1.5758  2.0441
56480SOL     OW74250   7.651   4.389  11.407  0.4765  0.0356 -0.0891
56480SOL    HW174251   7.634   4.394  11.501 -0.3401  0.3146 -0.2434
56480SOL    HW274252   7.640   4.479  11.377  2.1399  0.2151 -0.2316
56481SOL     OW74253   1.381  10.488   6.530  0.0132  0.1897  0.1370
56481SOL    HW174254   1.298  10.534   6.545  0.2180  0.6110 -0.0030
56481SOL    HW274255   1.357  10.395   6.530 -0.0568  0.1272  2.8039
56482SOL     OW74256   2.207   9.984   6.128 -0.8661 -0.3389  0.5824
56482SOL    HW174257   2.231   9.936   6.049 -1.7917 -1.3903  0.9068
56482SOL    HW274258   2.188   9.915   6.193  1.2916  0.4696  2.2001
56483SOL     OW74259  10.573   4.903   9.799  0.4192 -0.6298 -0.2557
56483SOL    HW174260  10.533   4.986   9.774  1.4838 -0.3890 -1.2714
56483SOL    HW274261  10.505   4.857   9.848 -1.0975 -0.2470 -1.8950
56484SOL     OW74262   7.125  11.387   2.034  0.3005  0.4110 -0.2446
56484SOL    HW174263   7.101  11.408   2.124 -0.1735 -2.5737  0.4142
56484SOL    HW274264   7.212  11.348   2.040 -0.6542 -2.0032 -0.6452
56485SOL     OW74265   2.482   7.329   0.867  0.1995  0.2101 -0.3088
56485SOL    HW174266   2.418   7.275   0.914  1.9887 -1.1510  0.7288
56485SOL    HW274267   2.439   7.413   0.856 -1.8044 -0.6755  0.2126
56486SOL     OW74268   2.351   3.984   3.161  0.0273 -0.7321  0.3067
56486SOL    HW174269   2.444   4.007   3.159 -0.3952  1.0559 -1.4753
56486SOL    HW274270   2.325   3.998   3.252  1.2771 -0.2030  0.5978
56487SOL     OW74271  12.305   8.253  12.566 -0.0074 -0.2286  0.5395
56487SOL    HW174272  12.231   8.311  12.582  1.0185  0.8761  1.4490
56487SOL    HW274273  12.315   8.203  12.647 -1.2460 -2.1932 -0.4284
56488SOL     OW74274   7.473   8.619   4.684  0.0784  0.6091 -0.3935
56488SOL    HW174275   7.413   8.566   4.632  1.2939 -1.0652 -0.1623
56488SOL    HW274276   7.440   8.614   4.773  0.1796  0.2648 -0.3761
56489SOL     OW74277  10.484  12.397  11.334  0.5668 -0.1989 -0.0847
56489SOL    HW174278  10.483  12.311  11.375  0.3707 -0.7779 -1.2603
56489SOL    HW274279  10.454  12.381  11.244  2.0406  0.8406 -0.7954
56490SOL     OW74280   1.712   1.668   9.765  0.0931  0.4829 -0.0264
56490SOL    HW174281   1.806   1.647   9.768  0.2563  1.0920 -0.6302
56490SOL    HW274282   1.708   1.758   9.798 -0.0486  1.1356 -1.7165
56491SOL     OW74283   6.703   2.710   1.805 -0.2656 -0.8706 -0.3003
56491SOL    HW174284   6.724   2.681   1.716  3.7497 -0.7500  0.4240
56491SOL    HW274285   6.671   2.800   1.793  1.7480 -0.2629 -1.5960
56492SOL     OW74286   3.475   1.251  12.385  0.1095  0.1061 -0.1319
56492SOL    HW174287   3.414   1.188  12.348 -0.8056  1.2450 -0.6263
56492SOL    HW274288   3.435   1.279  12.467  1.2083 -0.9866  0.8216
56493SOL     OW74289   5.542   2.137   0.125 -0.2472 -0.2856  0.2399
56493SOL    HW174290   5.614   2.184   0.166 -0.2962  0.1539 -0.1714
56493SOL    HW274291   5.555   2.150   0.031 -0.7161 -0.4181  0.1530
56494SOL     OW74292   4.858  11.545   9.758 -0.3207  0.3523 -0.6479
56494SOL    HW174293   4.946  11.549   9.795 -0.1790  1.6435 -1.0490
56494SOL    HW274294   4.843  11.634   9.724 -1.8529  0.2156 -0.3880
56495SOL     OW74295  10.512   7.393   2.189 -0.6712  0.1525 -0.5740
56495SOL    HW174296  10.516   7.395   2.093 -1.8897  1.8052 -0.6249
56495SOL    HW274297  10.429   7.436   2.210  1.4258  3.7149  1.3227
56496SOL     OW74298  11.159   8.338   0.810 -0.1059  0.2128 -0.8159
56496SOL    HW174299  11.076   8.367   0.847 -0.5700 -1.1023 -0.7817
56496SOL    HW274300  11.149   8.244   0.797  1.7399 -0.1613  0.1064
56497SOL     OW74301   7.931   3.703   2.216  0.2258  0.2290  0.1845
56497SOL    HW174302   8.009   3.714   2.269  0.2507 -0.4455  0.2988
56497SOL    HW274303   7.954   3.635   2.152 -0.7955 -1.2551  1.3149
56498SOL     OW74304   7.555   4.526   9.725 -0.8225 -0.0311  0.2053
56498SOL    HW174305   7.591   4.437   9.720 -0.5418  0.0600  0.4926
56498SOL    HW274306   7.632   4.581   9.742 -1.0737  0.1945  0.6191
56499SOL     OW74307   8.453   0.358  11.460 -0.5386 -0.5590  0.3780
56499SOL    HW174308   8.457   0.450  11.483  1.0064 -0.3585 -0.5388
56499SOL    HW274309   8.443   0.312  11.543 -1.2706  0.4140  0.8405
56500SOL     OW74310  11.495   7.004   3.463 -0.4050 -0.3757 -0.0288
56500SOL    HW174311  11.423   7.052   3.505  0.0753  1.1655 -0.8825
56500SOL    HW274312  11.527   7.064   3.396  0.6217 -1.6999 -0.7521
56501SOL     OW74313  12.190   7.195   9.359  0.1781 -0.6835 -0.0751
56501SOL    HW174314  12.150   7.183   9.445 -1.0330  2.1873 -0.1496
56501SOL    HW274315  12.117   7.193   9.298  0.5853  0.6974 -0.6459
56502SOL     OW74316   7.516   1.929   0.709  0.1021  0.4852  0.2012
56502SOL    HW174317   7.525   1.908   0.802  0.9728 -2.1159 -0.3841
56502SOL    HW274318   7.425   1.958   0.700 -0.0136  0.7058  1.8392
56503SOL     OW74319   0.195  11.340   5.623 -0.4240  0.6328 -0.1135
56503SOL    HW174320   0.110  11.297   5.612 -0.5146  1.0062 -0.9307
56503SOL    HW274321   0.243  11.282   5.682 -0.9178 -0.0493 -0.3681
56504SOL     OW74322   4.681   9.259   4.057 -0.3869  0.3064 -0.6390
56504SOL    HW174323   4.723   9.178   4.086 -0.4857  0.1526 -0.9254
56504SOL    HW274324   4.702   9.267   3.964  1.0289  1.4914 -0.2567
56505SOL     OW74325   3.360  11.228   7.786  0.0618 -0.1385 -0.4496
56505SOL    HW174326   3.349  11.322   7.772 -1.0417 -0.2868 -0.6901
56505SOL    HW274327   3.446  11.208   7.749  1.8136  1.3161  2.4891
56506SOL     OW74328   8.126  12.027   8.724  0.0698  0.9155  0.3915
56506SOL    HW174329   8.149  12.071   8.806 -1.2148  0.9595  0.7461
56506SOL    HW274330   8.200  11.968   8.707 -0.4410 -0.4674  2.5603
56507SOL     OW74331   5.482   7.551   0.334 -0.3739 -0.1315 -0.1686
56507SOL    HW174332   5.564   7.503   0.344 -1.2366 -1.4129  1.2556
56507SOL    HW274333   5.437   7.507   0.262 -0.4370 -0.4225  0.0425
56508SOL     OW74334   7.543   6.986   6.555 -0.3169  0.3470  0.0854
56508SOL    HW174335   7.603   6.973   6.629 -0.8084 -4.2006 -0.0575
56508SOL    HW274336   7.464   7.024   6.595  0.0010 -0.5605  1.6541
56509SOL     OW74337   1.458   1.056   6.444 -0.0489  0.3835 -0.7029
56509SOL    HW174338   1.390   1.074   6.510 -0.3861  1.4457 -1.3193
56509SOL    HW274339   1.467   0.961   6.446 -0.8582  0.2994  0.0864
56510SOL     OW74340  10.667   8.931   8.703 -0.0535 -0.8439 -0.1571
56510SOL    HW174341  10.656   8.995   8.633  1.0969 -1.8474 -1.3152
56510SOL    HW274342  10.722   8.862   8.664 -0.3836 -2.0216  1.3592
56511SOL     OW74343   1.514   7.608   0.259  0.1284  0.0063  0.6614
56511SOL    HW174344   1.505   7.581   0.168 -0.4827 -1.0493  1.0221
56511SOL    HW274345   1.434   7.578   0.302  0.8152 -0.3531  1.7501
56512SOL     OW74346   0.057  11.473   9.291 -0.0610  0.2582  0.3484
56512SOL    HW174347  -0.006  11.514   9.350  0.8691 -0.0474  1.5975
56512SOL    HW274348   0.093  11.545   9.240 -1.4834  0.4200 -0.4622
56513SOL     OW74349  11.770   0.855   4.396 -0.1697  0.2325 -0.3714
56513SOL    HW174350  11.861   0.884   4.386 -0.2079  0.1737 -0.9207
56513SOL    HW274351  11.771   0.764   4.367  0.0974 -0.5918  2.0327
56514SOL     OW74352   0.976   1.126  11.589 -0.1738  0.2468 -0.2076
56514SOL    HW174353   1.007   1.209  11.623 -1.3103  0.3703  0.6189
56514SOL    HW274354   0.884   1.123  11.616 -0.7306 -0.3193 -2.0660
56515SOL     OW74355   2.150   4.342   8.137 -0.1293  0.0773  0.5897
56515SOL    HW174356   2.243   4.337   8.115  0.1042 -0.9023  1.7310
56515SOL    HW274357   2.141   4.424   8.186 -0.3787  1.5007 -1.6729
56516SOL     OW74358  10.728  12.051   7.762  0.3059  0.1275  0.1443
56516SOL    HW174359  10.703  12.042   7.670 -0.5531  0.9536  0.2821
56516SOL    HW274360  10.772  11.969   7.782 -0.1555 -0.3792 -0.8007
56517SOL     OW74361  11.358   3.134   0.939  0.3996 -0.1686 -0.0228
56517SOL    HW174362  11.327   3.048   0.909 -1.5320  0.8150 -1.0552
56517SOL    HW274363  11.279   3.177   0.972  1.8149  0.2027  3.2284
56518SOL     OW74364   6.948   4.520   5.799  0.1044 -0.7774 -0.7667
56518SOL    HW174365   6.983   4.587   5.740  1.6917  0.3770  1.3209
56518SOL    HW274366   7.024   4.464   5.818 -0.7796 -2.1211 -1.0801
56519SOL     OW74367   1.684   7.830   4.066 -0.5130 -0.8177  0.0968
56519SOL    HW174368   1.654   7.769   4.134  2.7855 -0.4789  2.1173
56519SOL    HW274369   1.660   7.916   4.099 -1.0881 -0.7560 -0.4587
56520SOL     OW74370   7.031   1.010   9.937 -0.5207 -0.3905  0.6422
56520SOL    HW174371   6.941   0.990   9.964 -1.8717  1.3243 -2.1420
56520SOL    HW274372   7.044   0.958   9.858  0.3356  0.6038  0.1138
56521SOL     OW74373   0.638  12.604   2.555  0.0181 -0.1551  0.0745
56521SOL    HW174374   0.573  12.671   2.577 -0.7451 -0.2619 -1.7271
56521SOL    HW274375   0.721  12.650   2.557 -0.4776  0.8080 -0.9348
56522SOL     OW74376   0.061   8.012   5.161 -0.2344  0.1314  0.0201
56522SOL    HW174377   0.036   8.103   5.176 -0.5761  0.0261  0.1154
56522SOL    HW274378   0.006   7.962   5.223 -0.0850 -0.1399 -0.0650
56523SOL     OW74379   1.437   8.722  10.460 -0.1661 -0.4155  0.0261
56523SOL    HW174380   1.419   8.765  10.544  0.6388 -0.4855  0.2426
56523SOL    HW274381   1.351   8.702  10.424 -0.5186 -0.4720  0.8854
56524SOL     OW74382  10.384   0.814   5.021 -0.0536  0.2174 -0.0055
56524SOL    HW174383  10.346   0.741   5.069  0.4099  0.6633  1.0813
56524SOL    HW274384  10.471   0.825   5.059  0.3584  0.5623 -0.9996
56525SOL     OW74385   4.514  10.781   9.928 -0.1607 -0.4828  0.1777
56525SOL    HW174386   4.493  10.811   9.840 -0.5161  2.1259  1.0779
56525SOL    HW274387   4.609  10.775   9.930 -0.0378  1.0713  0.0630
56526SOL     OW74388   4.600   5.032   2.385 -0.3283  0.2415  0.7062
56526SOL    HW174389   4.528   4.976   2.415 -1.0407  0.5292 -0.3879
56526SOL    HW274390   4.677   4.976   2.389 -0.7409 -0.3059  1.2035
56527SOL     OW74391   9.111   7.440   2.558 -0.3261  0.0701  0.1615
56527SOL    HW174392   9.064   7.419   2.477 -0.3310  1.7358 -0.2966
56527SOL    HW274393   9.182   7.376   2.561 -0.4141 -0.1129 -1.0819
56528SOL     OW74394  11.892   5.033  10.113 -0.5252  0.2520  0.3178
56528SOL    HW174395  11.802   5.038  10.145 -0.1831  1.8729  1.1116
56528SOL    HW274396  11.896   5.098  10.043 -0.7751 -2.0017 -1.9692
56529SOL     OW74397   2.256   7.644   7.831 -0.0999 -0.6730  0.2647
56529SOL    HW174398   2.180   7.684   7.790 -1.1135 -1.5777  1.2009
56529SOL    HW274399   2.280   7.704   7.902  1.2541  0.5600 -1.1619
56530SOL     OW74400   5.054   5.857   7.569  0.0470  0.3767  0.8022
56530SOL    HW174401   5.128   5.884   7.513  0.7432 -2.3407  0.2398
56530SOL    HW274402   4.977   5.894   7.526  0.8777  1.3045  0.0486
56531SOL     OW74403   7.211  10.483  12.007 -0.3131  0.0851 -0.5761
56531SOL    HW174404   7.170  10.469  12.092  0.9303 -0.4207 -0.0365
56531SOL    HW274405   7.242  10.574  12.010  0.9233 -0.3288  0.0747
56532SOL     OW74406  10.944  12.283   0.010  0.4316 -0.1072  0.4881
56532SOL    HW174407  10.945  12.319   0.099 -0.6783  0.4106  0.3057
56532SOL    HW274408  10.974  12.193   0.020  0.8791  0.1217  1.2999
56533SOL     OW74409   3.870   6.986  11.935  0.6117 -0.1105  0.0385
56533SOL    HW174410   3.844   6.916  11.995  0.2292 -2.3404 -2.5396
56533SOL    HW274411   3.797   7.048  11.938  0.6482 -0.1153  1.9088
56534SOL     OW74412   4.792   2.999   9.456 -0.2202  0.0688  0.4000
56534SOL    HW174413   4.839   2.927   9.496 -0.0772  0.3279  0.7005
56534SOL    HW274414   4.704   2.996   9.495 -0.3711 -0.2448  0.0431
56535SOL     OW74415   7.654   5.518   9.453 -0.0734  0.1207  0.2509
56535SOL    HW174416   7.736   5.540   9.497 -0.0958 -0.6449  0.6825
56535SOL    HW274417   7.641   5.590   9.391 -0.8890  2.1711  2.6060
56536SOL     OW74418   4.094  11.960  10.970 -0.0354 -1.0102  0.0032
56536SOL    HW174419   4.054  11.958  10.883  1.2093 -1.2272 -0.5824
56536SOL    HW274420   4.024  11.932  11.029 -1.3200  0.4942 -0.7290
56537SOL     OW74421   2.797  10.608   9.437  0.0514 -0.1587 -0.4704
56537SOL    HW174422   2.893  10.615   9.439  0.1487 -0.2803 -2.3392
56537SOL    HW274423   2.767  10.665   9.507  1.5319 -1.4111  1.2726
56538SOL     OW74424   0.279   6.372   5.106  0.1083 -0.5114  0.2035
56538SOL    HW174425   0.301   6.285   5.073  0.3166 -0.1815 -0.5360
56538SOL    HW274426   0.193   6.362   5.147 -1.0785 -0.5339 -2.1208
56539SOL     OW74427  11.059  11.955  12.057 -1.0794 -0.1698 -1.0637
56539SOL    HW174428  11.007  12.001  11.991 -1.1192  3.5635  1.2812
56539SOL    HW274429  10.994  11.905  12.107 -1.6455  0.2125 -1.4003
56540SOL     OW74430   5.416   8.294   6.596  0.2341 -0.1076 -0.1546
56540SOL    HW174431   5.391   8.357   6.529 -1.0235 -1.2413 -0.7954
56540SOL    HW274432   5.338   8.286   6.652 -0.5479 -2.7404 -1.4284
56541SOL     OW74433   3.833   1.772  12.187  0.1027 -0.3941  0.2311
56541SOL    HW174434   3.919   1.814  12.197 -0.3129  0.7209 -0.7262
56541SOL    HW274435   3.819   1.728  12.271  1.6865 -0.7685  0.3453
56542SOL     OW74436   7.064   4.413   3.652 -0.4006 -0.2245  0.0076
56542SOL    HW174437   7.094   4.409   3.743  2.0988 -1.0110 -0.7707
56542SOL    HW274438   7.028   4.326   3.635  0.2526 -0.4751 -0.1025
56543SOL     OW74439   6.348   5.765   6.296  0.1769 -0.2857 -0.4089
56543SOL    HW174440   6.395   5.830   6.347  0.5800  1.3182 -2.6619
56543SOL    HW274441   6.256   5.777   6.319  0.4546 -0.4994  0.8584
56544SOL     OW74442   3.402  10.932   1.744 -0.2976 -0.4412  0.6413
56544SOL    HW174443   3.496  10.918   1.732 -0.4068 -0.8514  0.1962
56544SOL    HW274444   3.361  10.871   1.682 -0.8785 -1.0969  1.6343
56545SOL     OW74445   0.309   8.557   5.992 -0.0521 -0.0337 -0.1424
56545SOL    HW174446   0.348   8.619   5.931 -1.9208  0.4692 -0.8943
56545SOL    HW274447   0.246   8.507   5.940 -2.9345  1.5141  1.5619
56546SOL     OW74448   1.728   1.578   1.362 -0.8051  0.0674 -0.0588
56546SOL    HW174449   1.754   1.486   1.372  0.5364  0.4845  0.4473
56546SOL    HW274450   1.810   1.624   1.343 -1.5649  1.0687 -1.0099
56547SOL     OW74451   5.782   3.377   6.354  0.0489  0.3486 -0.7346
56547SOL    HW174452   5.697   3.382   6.397  1.0237  2.0113  1.1568
56547SOL    HW274453   5.834   3.319   6.409 -0.0939 -1.6189 -2.5031
56548SOL     OW74454   6.520   1.158  11.600  0.5641 -0.1335 -0.2485
56548SOL    HW174455   6.540   1.110  11.520 -0.4681 -2.1243  0.6198
56548SOL    HW274456   6.605   1.182  11.636  1.3136 -3.1354  0.2938
56549SOL     OW74457   8.706   5.636  11.789  0.0909  0.0724 -0.0265
56549SOL    HW174458   8.797   5.626  11.759  1.3073  3.1482  2.0753
56549SOL    HW274459   8.659   5.666  11.711  1.1870 -0.2845 -0.8526
56550SOL     OW74460   2.214   5.582  12.287 -0.6794  0.0500 -0.3768
56550SOL    HW174461   2.274   5.611  12.355  0.7574  0.5134 -1.7758
56550SOL    HW274462   2.142   5.539  12.334  0.8852 -0.7951  1.3498
56551SOL     OW74463   5.399  10.914   7.515  0.0427 -0.2527 -0.3946
56551SOL    HW174464   5.459  10.985   7.535 -0.7459  0.1209  0.7732
56551SOL    HW274465   5.338  10.952   7.451  0.8258 -0.5333 -1.3318
56552SOL     OW74466   0.994   7.866  11.411 -0.1142 -0.1108 -0.6724
56552SOL    HW174467   1.086   7.853  11.390  0.3762  2.7989 -0.7536
56552SOL    HW274468   0.975   7.802  11.480  1.5975 -1.5439 -1.4700
56553SOL     OW74469   3.766   3.060   1.416  0.1880 -0.4862 -0.2667
56553SOL    HW174470   3.815   2.984   1.385  2.4586  0.8548 -0.1883
56553SOL    HW274471   3.740   3.106   1.337  0.2741 -0.4699 -0.2856
56554SOL     OW74472   3.192   7.694  11.748  0.3478  0.3165  0.1155
56554SOL    HW174473   3.130   7.764  11.728  1.3836  1.5813  1.1291
56554SOL    HW274474   3.147   7.614  11.723 -1.0002  1.3115 -0.7950
56555SOL     OW74475   5.610   2.326  11.770  0.6467 -0.0458  0.0671
56555SOL    HW174476   5.523   2.318  11.733  0.1040  0.8027  1.0987
56555SOL    HW274477   5.607   2.273  11.850  0.9311  0.3562  0.3476
56556SOL     OW74478   7.555   8.856   5.182  0.3037 -0.3007  0.2912
56556SOL    HW174479   7.525   8.946   5.167 -1.0524 -0.7173  0.4443
56556SOL    HW274480   7.542   8.812   5.098  0.0587 -0.6125  0.4948
56557SOL     OW74481   3.396   3.964  10.480 -0.4973 -0.1541 -0.1677
56557SOL    HW174482   3.335   3.892  10.499  0.0095 -0.0796  2.0464
56557SOL    HW274483   3.379   4.029  10.549  0.8489  0.6673 -0.5674
56558SOL     OW74484   0.661   9.555  10.288 -0.5221 -0.0902 -0.1011
56558SOL    HW174485   0.727   9.489  10.309  0.2097  0.1837 -1.4402
56558SOL    HW274486   0.696   9.637  10.323  0.0041  0.1060 -1.0589
56559SOL     OW74487   9.188  11.612  10.939  0.4804 -0.6557  0.3353
56559SOL    HW174488   9.129  11.576  11.005  1.0397  0.0735  1.2700
56559SOL    HW274489   9.219  11.694  10.977  0.3079  0.1241 -1.1403
56560SOL     OW74490  10.566  11.657  11.207 -0.4200  0.4467 -0.2947
56560SOL    HW174491  10.532  11.572  11.236  1.1323 -0.0635  0.1620
56560SOL    HW274492  10.500  11.690  11.147 -1.0406 -1.1304 -0.5437
56561SOL     OW74493   4.033   4.590   7.681 -0.0613  0.5810 -0.4051
56561SOL    HW174494   4.018   4.684   7.668  0.1654  0.5848 -0.6519
56561SOL    HW274495   3.945   4.553   7.691 -0.1361  0.8578 -0.0387
56562SOL     OW74496   9.647   3.655   9.698  0.2493 -0.1790  0.1195
56562SOL    HW174497   9.722   3.682   9.751 -0.4700  1.2331  0.4351
56562SOL    HW274498   9.667   3.689   9.610  0.2733 -0.3707  0.0493
56563SOL     OW74499   2.926   6.838   8.113  0.1860  0.3986 -0.3624
56563SOL    HW174500   2.896   6.848   8.204  1.1979  3.0562 -0.2100
56563SOL    HW274501   2.946   6.928   8.085  2.0753 -0.5863 -2.4666
56564SOL     OW74502   9.552   3.404   2.643 -0.0072 -0.4715  0.2828
56564SOL    HW174503   9.536   3.495   2.617  1.1892 -0.6673 -1.2569
56564SOL    HW274504   9.495   3.391   2.719  0.2739  1.7517  0.9520
56565SOL     OW74505   9.023   2.559   9.024 -0.2532  0.2966 -0.1289
56565SOL    HW174506   9.018   2.609   9.106 -0.7996  0.4830 -0.2713
56565SOL    HW274507   9.116   2.559   9.002  0.1285 -1.0747  1.2899
56566SOL     OW74508   5.327   6.638   0.499 -0.4207 -0.1786 -0.0612
56566SOL    HW174509   5.266   6.608   0.567 -0.1811 -0.0841  0.1929
56566SOL    HW274510   5.410   6.649   0.544 -0.5647  1.1540 -0.0837
56567SOL     OW74511   0.216   4.753   3.537 -0.1729 -0.4470 -0.2822
56567SOL    HW174512   0.240   4.786   3.451  0.3470 -2.3172 -0.9150
56567SOL    HW274513   0.279   4.682   3.554 -0.9388 -0.8426  1.1466
56568SOL     OW74514   7.795  11.815  11.661  0.9431 -0.5630  0.6287
56568SOL    HW174515   7.740  11.785  11.733  0.1900 -0.1844  0.2225
56568SOL    HW274516   7.875  11.848  11.704  0.5356 -0.4145  1.2834
56569SOL     OW74517   4.564   5.032   9.866  0.2722  0.2689 -0.4676
56569SOL    HW174518   4.509   5.102   9.901 -0.3680 -0.8670  0.9019
56569SOL    HW274519   4.518   5.002   9.787  0.0402  0.7094 -0.5017
56570SOL     OW74520   5.023   8.930   7.274 -0.2540  0.1839 -0.0052
56570SOL    HW174521   5.024   8.855   7.214 -1.2167  0.6402 -0.6151
56570SOL    HW274522   5.000   8.893   7.359  0.2749 -0.3479 -0.0863
56571SOL     OW74523   6.442   2.768   3.337 -0.0078  0.3830  0.6126
56571SOL    HW174524   6.374   2.747   3.401 -0.3431 -2.1169 -0.4476
56571SOL    HW274525   6.513   2.707   3.357  0.2472  0.1870 -0.7996
56572SOL     OW74526   2.288  10.071  11.449  0.3397  0.2952 -0.2565
56572SOL    HW174527   2.239  10.138  11.401 -0.3177 -0.7187 -1.0664
56572SOL    HW274528   2.254   9.988  11.415 -0.3160 -0.4966  2.1325
56573SOL     OW74529   8.549   5.514   3.232 -0.1159  0.1105 -0.5810
56573SOL    HW174530   8.534   5.600   3.270  0.3562 -0.0916  0.0823
56573SOL    HW274531   8.640   5.517   3.201 -0.5064  0.2926 -1.7717
56574SOL     OW74532   7.895   2.228   8.399 -0.1300  0.3601 -0.3652
56574SOL    HW174533   7.915   2.161   8.464 -0.7488  0.7660  0.2610
56574SOL    HW274534   7.887   2.180   8.316  3.6748  0.1711 -0.8118
56575SOL     OW74535   3.580   2.231  11.982  0.9793  0.0658  0.4353
56575SOL    HW174536   3.658   2.262  11.936  0.6132 -1.2756 -1.2117
56575SOL    HW274537   3.592   2.259  12.072  1.9517  2.4654 -0.3567
56576SOL     OW74538   7.752  12.223   4.320  0.3378 -0.5429  0.1188
56576SOL    HW174539   7.818  12.205   4.388  0.4628 -0.1506  0.1031
56576SOL    HW274540   7.757  12.147   4.261 -1.0354 -1.7796  1.5165
56577SOL     OW74541   2.148   3.748   5.382 -0.0779 -0.6141  0.0962
56577SOL    HW174542   2.160   3.840   5.409 -0.1293 -0.6487  0.2389
56577SOL    HW274543   2.226   3.703   5.415 -0.1618 -0.6648  0.2243
56578SOL     OW74544   6.357   6.361   5.466 -0.3904  0.0247  0.4382
56578SOL    HW174545   6.280   6.362   5.524  0.1731 -0.5231  1.2246
56578SOL    HW274546   6.402   6.443   5.484 -0.9109  0.4519 -0.1938
56579SOL     OW74547   8.981   4.798  10.213  0.4235 -0.1673 -0.5278
56579SOL    HW174548   8.963   4.868  10.276 -0.2412 -0.9197  0.1520
56579SOL    HW274549   9.067   4.765  10.239  0.2168 -0.3774 -0.0845
56580SOL     OW74550   7.505   3.988   7.428 -0.1298  0.0645  0.2543
56580SOL    HW174551   7.483   3.981   7.336 -0.8739  0.8793  0.3514
56580SOL    HW274552   7.434   3.944   7.474 -0.6061  1.0434  0.4913
56581SOL     OW74553  11.863   1.830   4.344 -0.0905 -0.4530  0.1897
56581SOL    HW174554  11.818   1.897   4.293  2.0000  3.1754  2.6321
56581SOL    HW274555  11.807   1.817   4.421 -1.5644 -3.3872 -1.2063
56582SOL     OW74556   6.333  11.691   6.485  0.0248 -0.3600  0.7530
56582SOL    HW174557   6.324  11.733   6.571  0.3769 -1.4466  1.3371
56582SOL    HW274558   6.339  11.764   6.424 -0.7624  0.4397  1.5863
56583SOL     OW74559   0.138   1.361   4.411 -0.0013  0.2307  0.3227
56583SOL    HW174560   0.066   1.347   4.349 -1.2556  1.5565  1.4116
56583SOL    HW274561   0.111   1.316   4.491  0.5458  0.4504  0.6376
56584SOL     OW74562  10.833  12.103  10.915 -0.0879 -0.5999  0.8880
56584SOL    HW174563  10.755  12.082  10.967 -1.0174  2.5896  1.0354
56584SOL    HW274564  10.800  12.115  10.826  0.8181 -2.1689  0.3135
56585SOL     OW74565   4.077  12.432   0.507  0.3233 -0.3675 -0.2265
56585SOL    HW174566   4.044  12.401   0.423  0.9453  0.1342 -0.6709
56585SOL    HW274567   4.004  12.481   0.545 -0.6737 -2.3392  0.5013
56586SOL     OW74568   0.897   9.158   8.086  0.0719 -0.4617  0.4429
56586SOL    HW174569   0.868   9.242   8.123 -1.0036  2.1274 -5.1870
56586SOL    HW274570   0.989   9.171   8.066 -0.2160 -0.3376 -0.8980
56587SOL     OW74571   1.398   3.005   6.342 -0.6050  0.6923 -0.1755
56587SOL    HW174572   1.474   2.950   6.322 -0.9170  0.3611 -0.4696
56587SOL    HW274573   1.434   3.083   6.383 -0.2370 -0.3718  1.6614
56588SOL     OW74574   9.795   8.134   3.034  0.1309  0.0049 -0.2549
56588SOL    HW174575   9.786   8.042   3.058  1.0813 -0.2151 -0.6835
56588SOL    HW274576   9.816   8.133   2.940  1.3493  0.5770 -0.0122
56589SOL     OW74577   0.648   1.644   3.596  0.1550  0.2347  0.3731
56589SOL    HW174578   0.645   1.698   3.675  1.5652  0.6980  0.1505
56589SOL    HW274579   0.650   1.707   3.524 -0.0563 -0.1568  0.0211
56590SOL     OW74580  12.128   1.173   2.051 -0.2674  0.1863  0.5352
56590SOL    HW174581  12.089   1.133   2.128 -1.1454  0.6879  0.3593
56590SOL    HW274582  12.167   1.100   2.002  1.5802  0.0084  2.1450
56591SOL     OW74583   0.742  12.099   6.087 -0.0042 -0.1830 -0.4205
56591SOL    HW174584   0.757  12.005   6.076 -0.1975 -0.3305  0.5461
56591SOL    HW274585   0.730  12.131   5.998  0.5722 -0.9837 -0.8054
56592SOL     OW74586   2.454   0.081   8.416  0.0800  0.8236  0.0394
56592SOL    HW174587   2.467   0.105   8.508 -0.7291 -1.7553  0.9113
56592SOL    HW274588   2.529   0.118   8.370  1.7357  0.2355  2.1412
56593SOL     OW74589  12.372   9.445   9.962  0.0956 -0.3819 -0.0565
56593SOL    HW174590  12.312   9.494   9.905 -0.5283 -0.4043  0.5715
56593SOL    HW274591  12.447   9.503   9.973 -1.1530  0.9932  1.6617
56594SOL     OW74592  10.079   4.347   8.878 -0.1972  0.0551  0.3083
56594SOL    HW174593  10.135   4.269   8.872 -1.7321 -1.0992  0.3912
56594SOL    HW274594  10.104   4.388   8.961  1.2594  0.1757 -0.1634
56595SOL     OW74595   8.272   3.710  11.102  0.1768 -0.0240 -0.1006
56595SOL    HW174596   8.219   3.777  11.060 -0.5814 -0.6651 -0.1861
56595SOL    HW274597   8.317   3.756  11.173 -1.7959  0.2231  1.0758
56596SOL     OW74598   7.207   7.571   0.541 -1.1401  0.6805 -0.2314
56596SOL    HW174599   7.249   7.633   0.481 -1.4507  0.1426 -1.0209
56596SOL    HW274600   7.114   7.574   0.518 -1.1785  0.0302 -0.1866
56597SOL     OW74601  10.503   5.537   6.737  0.3043  0.3463  0.5563
56597SOL    HW174602  10.548   5.462   6.698 -0.9446 -0.1540  0.0146
56597SOL    HW274603  10.508   5.522   6.831 -0.0780 -0.5306  0.4517
56598SOL     OW74604  11.115  10.346   1.709 -0.1396  0.1581 -0.3869
56598SOL    HW174605  11.135  10.395   1.629  0.3647  0.2783 -0.1889
56598SOL    HW274606  11.199  10.311   1.737 -0.1917  0.7426  0.5107
56599SOL     OW74607   2.644   4.655   9.293  0.0588 -0.3840 -0.0394
56599SOL    HW174608   2.549   4.662   9.291  0.1305  1.0017  0.2364
56599SOL    HW274609   2.674   4.701   9.214  0.5159 -0.3044  0.1739
56600SOL     OW74610   4.897   6.938   4.657  0.2435 -0.0739  0.1388
56600SOL    HW174611   4.804   6.929   4.637  0.6803 -1.0600 -1.6243
56600SOL    HW274612   4.932   6.848   4.652  1.2547  0.2292  1.0890
56601SOL     OW74613   2.038  11.599   6.788  0.3599  0.1003 -0.0010
56601SOL    HW174614   2.065  11.671   6.731  0.3894  1.1131  1.2448
56601SOL    HW274615   1.987  11.641   6.858  1.5159 -0.8774  1.5005
56602SOL     OW74616   9.312   4.570   8.667 -0.1448  0.4678  0.4368
56602SOL    HW174617   9.234   4.621   8.644 -1.2277 -1.9743 -1.7285
56602SOL    HW274618   9.279   4.483   8.687  2.0674 -1.1449 -2.2494
56603SOL     OW74619   8.234  12.342  11.059 -0.5619 -0.0759 -0.1879
56603SOL    HW174620   8.304  12.346  10.993 -1.8622  1.6602 -1.5831
56603SOL    HW274621   8.247  12.258  11.103  1.8237 -0.2131 -1.0207
56604SOL     OW74622  11.559   0.449   9.277  0.4068 -0.5964  0.4542
56604SOL    HW174623  11.560   0.408   9.191 -2.1275 -2.3939  1.1534
56604SOL    HW274624  11.629   0.406   9.325  0.1673 -1.4511  0.0551
56605SOL     OW74625   7.263   1.038  10.055  0.5062 -0.8424  0.4382
56605SOL    HW174626   7.173   1.031  10.022  0.0491 -0.8126  1.5935
56605SOL    HW274627   7.301   1.110  10.005  0.2355 -1.5353 -0.7980
56606SOL     OW74628   5.530   3.731   4.453 -0.3904  0.2460  0.0808
56606SOL    HW174629   5.601   3.764   4.509  0.6437 -1.6035 -0.0760
56606SOL    HW274630   5.515   3.801   4.390 -0.2305  1.5678  1.4484
56607SOL     OW74631   7.225   8.616   0.698  0.0408  0.2426 -0.0727
56607SOL    HW174632   7.277   8.555   0.647  0.1949  0.2864  0.0313
56607SOL    HW274633   7.278   8.696   0.702  0.4690 -0.0738  0.9769
56608SOL     OW74634   0.819   6.593   7.102  0.3272  0.1868  0.1494
56608SOL    HW174635   0.842   6.682   7.076  1.0590  0.4348  1.5514
56608SOL    HW274636   0.903   6.547   7.108  0.0325 -0.3400  0.3153
56609SOL     OW74637   9.947  10.732   6.982  0.2705  0.3407  0.1320
56609SOL    HW174638   9.987  10.816   6.957  0.2110  0.0537 -1.0020
56609SOL    HW274639  10.011  10.666   6.955 -0.7230 -0.1004 -1.3104
56610SOL     OW74640   3.274   1.054  11.860  0.3515 -0.6906  0.1184
56610SOL    HW174641   3.346   1.036  11.800  0.3755 -1.2341  0.3030
56610SOL    HW274642   3.196   1.052  11.806  0.4479 -0.3456 -0.0387
56611SOL     OW74643  12.172   4.382  12.428  0.2926 -0.0663  0.4461
56611SOL    HW174644  12.257   4.417  12.454  1.1071 -0.9926 -0.8728
56611SOL    HW274645  12.116   4.459  12.418  0.9824  0.5578  1.2468
56612SOL     OW74646   8.730  12.648  11.516 -0.1774  0.2878 -0.6066
56612SOL    HW174647   8.674  12.571  11.526 -0.7140  0.6766 -0.6229
56612SOL    HW274648   8.800  12.618  11.457 -1.3419  0.3130 -2.0701
56613SOL     OW74649   1.145   8.763   4.967  0.0114 -0.3754  0.1826
56613SOL    HW174650   1.179   8.778   5.055  0.3590 -0.7639  0.1158
56613SOL    HW274651   1.206   8.702   4.928 -0.0436 -0.0628 -0.3969
56614SOL     OW74652   1.533   4.866   3.722  0.2460 -0.2010 -0.1325
56614SOL    HW174653   1.473   4.835   3.789  2.2261  1.4808  2.6157
56614SOL    HW274654   1.540   4.960   3.737  2.6948 -0.1578 -0.9922
56615SOL     OW74655  10.395  10.610  10.481  0.4956 -0.0245  0.4763
56615SOL    HW174656  10.458  10.682  10.490 -0.9125  1.2239  0.8378
56615SOL    HW274657  10.449  10.534  10.461  2.1470  0.9104  1.1135
56616SOL     OW74658  10.083   6.489   8.639 -0.0564  0.3424  0.0126
56616SOL    HW174659  10.161   6.434   8.644 -0.9351 -1.0013 -0.6976
56616SOL    HW274660  10.017   6.435   8.597 -0.5853  2.3534 -1.9745
56617SOL     OW74661   7.554   5.605   5.007 -0.7590 -0.3136 -0.2046
56617SOL    HW174662   7.639   5.625   4.968 -0.3448  2.0305  1.6636
56617SOL    HW274663   7.552   5.510   5.013  1.7487 -0.4308 -0.2912
56618SOL     OW74664   2.776   4.902   3.271  0.1944  0.2982  0.0764
56618SOL    HW174665   2.846   4.931   3.329 -0.1138  1.4312 -0.1043
56618SOL    HW274666   2.746   4.981   3.228 -0.9142 -0.2405 -0.1708
56619SOL     OW74667   6.158   1.445   8.982 -0.3967  0.2201  0.4727
56619SOL    HW174668   6.201   1.527   9.007 -0.4324  1.0382 -1.9010
56619SOL    HW274669   6.231   1.385   8.965 -0.3490  0.0397  1.2707
56620SOL     OW74670  11.735   6.780   8.691 -0.7413 -0.2693  0.0783
56620SOL    HW174671  11.760   6.707   8.747  1.3612 -0.8636 -1.5320
56620SOL    HW274672  11.670   6.828   8.742  1.7939 -0.1418  3.4956
56621SOL     OW74673   6.176   1.302  11.005 -0.2334  0.5114  0.0202
56621SOL    HW174674   6.176   1.333  11.096 -0.5821  0.2692  0.1028
56621SOL    HW274675   6.204   1.211  11.010  1.7016  1.0338 -0.3115
56622SOL     OW74676   7.108   3.372   8.376 -0.3164  0.5511  0.1764
56622SOL    HW174677   7.093   3.376   8.282  1.1322 -0.6251 -0.1355
56622SOL    HW274678   7.055   3.443   8.412 -0.9912  0.9339 -1.4986
56623SOL     OW74679   5.880   1.449   8.938 -0.1289 -0.2505  0.4368
56623SOL    HW174680   5.860   1.542   8.951 -0.8609 -0.3650  0.1535
56623SOL    HW274681   5.976   1.445   8.940 -0.0876  0.5260  0.3208
56624SOL     OW74682   9.239   7.353   0.817 -0.3289  0.0176  0.5716
56624SOL    HW174683   9.174   7.387   0.755 -0.5980 -1.7212 -0.1629
56624SOL    HW274684   9.264   7.429   0.869 -2.8192  0.8107  0.7540
56625SOL     OW74685   5.312  10.139   9.932 -0.2034  0.7983 -0.5886
56625SOL    HW174686   5.383  10.199   9.955  0.5867 -0.4789  0.5242
56625SOL    HW274687   5.262  10.129  10.013 -0.1063 -0.2766 -0.6414
56626SOL     OW74688   2.644  11.455   8.254 -0.2489  0.5388  0.3215
56626SOL    HW174689   2.694  11.382   8.218  0.1832  0.4127  1.1445
56626SOL    HW274690   2.552  11.430   8.245 -0.1389  0.3785 -0.3911
56627SOL     OW74691   4.912  11.359   2.764  0.5803  0.0780  0.3365
56627SOL    HW174692   4.869  11.438   2.797 -2.3362 -1.2343  0.0139
56627SOL    HW274693   4.965  11.328   2.837  2.2504  2.5506  0.2885
56628SOL     OW74694  12.444   5.666   0.746 -0.1358 -0.0151  0.0425
56628SOL    HW174695  12.539   5.674   0.753 -0.3538  1.1703  2.7587
56628SOL    HW274696  12.416   5.631   0.830 -2.1327 -0.4030 -0.7203
56629SOL     OW74697   2.514   6.031   0.359  0.3515  0.0204  0.7682
56629SOL    HW174698   2.532   5.985   0.440  1.9184 -1.5968 -0.4290
56629SOL    HW274699   2.597   6.073   0.336  0.6106 -1.3805 -1.0839
56630SOL     OW74700  11.603  10.014  10.150  0.7573 -0.0889  0.6772
56630SOL    HW174701  11.517  10.053  10.132 -0.1845 -1.6707  1.6144
56630SOL    HW274702  11.613   9.946  10.083  1.7199  0.6690  0.0079
56631SOL     OW74703   3.191   6.379   9.115 -0.1819 -0.4990  0.4646
56631SOL    HW174704   3.275   6.387   9.159 -1.2348  0.8063  2.4361
56631SOL    HW274705   3.154   6.468   9.120 -0.7528 -0.4928 -2.3795
56632SOL     OW74706   5.345   2.586   1.637  0.2764 -0.5106  0.4277
56632SOL    HW174707   5.252   2.565   1.646 -0.3757  0.6315 -2.3945
56632SOL    HW274708   5.390   2.503   1.653 -1.0253 -0.7944  3.2737
56633SOL     OW74709  11.159   7.073   3.853 -0.1868 -0.3096 -0.2005
56633SOL    HW174710  11.164   6.980   3.874 -1.6705 -0.5351 -0.7358
56633SOL    HW274711  11.073   7.100   3.885  0.9541  1.3548  1.6887
56634SOL     OW74712   8.242   6.110   3.645 -0.0247 -0.1528  0.1466
56634SOL    HW174713   8.247   6.015   3.656 -1.7751 -0.2782  0.0846
56634SOL    HW274714   8.165   6.124   3.590 -1.3175  1.4036  2.1724
56635SOL     OW74715   6.605   0.122  10.405  0.4051 -0.7801  0.2704
56635SOL    HW174716   6.532   0.061  10.409 -0.6902  0.3495 -1.4509
56635SOL    HW274717   6.674   0.075  10.358  0.0188 -1.0885  0.0135
56636SOL     OW74718   3.283   5.138   7.300 -0.1046 -0.3744  0.3156
56636SOL    HW174719   3.318   5.169   7.383 -0.9631  1.6045 -0.0186
56636SOL    HW274720   3.199   5.097   7.323  0.2688 -1.0060  0.5670
56637SOL     OW74721   4.198   2.485   2.990 -0.0143  0.5557  0.1060
56637SOL    HW174722   4.267   2.531   2.942  0.1775 -0.2741 -0.4331
56637SOL    HW274723   4.194   2.529   3.074 -0.1860  1.8929 -0.5752
56638SOL     OW74724   6.541   5.680   1.225  0.2146  0.0022  0.1942
56638SOL    HW174725   6.541   5.764   1.179 -0.0604  0.1035  0.3770
56638SOL    HW274726   6.530   5.703   1.317 -2.8247 -0.3232  0.0358
56639SOL     OW74727   7.265   5.120  10.227 -0.0050  0.1197  0.3645
56639SOL    HW174728   7.243   5.186  10.161 -1.3821  0.4618  1.1231
56639SOL    HW274729   7.360   5.117  10.228  0.0472  0.8833 -0.8705
56640SOL     OW74730   1.419   7.169   3.261  0.6227  0.0982  0.1368
56640SOL    HW174731   1.469   7.155   3.181  0.4027  0.2518 -0.0319
56640SOL    HW274732   1.352   7.233   3.236 -0.3352 -0.8920  0.0682
56641SOL     OW74733   2.571   4.427   7.848 -0.2437 -1.0065  0.5990
56641SOL    HW174734   2.511   4.435   7.774  2.1323 -0.5047 -1.4276
56641SOL    HW274735   2.614   4.342   7.834  1.7496  0.0169  0.0666
56642SOL     OW74736  11.287   6.797   8.442  0.2500 -0.1774 -0.3637
56642SOL    HW174737  11.333   6.786   8.525 -0.6132  0.0617  0.1520
56642SOL    HW274738  11.356   6.790   8.376  0.9185 -0.5507  0.3560
56643SOL     OW74739   9.424   3.471   7.867  0.5248  0.1302 -0.1547
56643SOL    HW174740   9.438   3.377   7.874  0.4447  0.1332  0.0373
56643SOL    HW274741   9.378   3.495   7.947  0.9925  0.4181  0.0271
56644SOL     OW74742   5.909   1.465   5.261  0.7455 -0.2434  0.2119
56644SOL    HW174743   5.922   1.382   5.308 -1.6170 -0.3861  0.7492
56644SOL    HW274744   5.890   1.529   5.330  1.4703  0.5086 -0.2740
56645SOL     OW74745   1.118  10.707   6.900 -0.4418 -0.4079 -0.0384
56645SOL    HW174746   1.111  10.612   6.899 -1.7683 -0.3438  0.8601
56645SOL    HW274747   1.087  10.735   6.814 -1.0308 -0.7391  0.0633
56646SOL     OW74748   1.807   1.570   6.878 -0.2162 -0.3729 -0.3544
56646SOL    HW174749   1.766   1.494   6.919 -1.2269  0.3437 -0.0049
56646SOL    HW274750   1.899   1.566   6.905 -0.7785 -0.1008  1.7215
56647SOL     OW74751   1.559   4.247   2.922  0.8122 -0.2454 -0.7504
56647SOL    HW174752   1.631   4.190   2.894  2.5628  1.7308 -0.4810
56647SOL    HW274753   1.574   4.329   2.876 -1.0124  0.3949 -0.2875
56648SOL     OW74754   8.493  12.143  11.025 -0.0966 -0.5771  0.3298
56648SOL    HW174755   8.474  12.182  10.940 -1.1588 -0.3986  0.6379
56648SOL    HW274756   8.455  12.055  11.020 -0.8362 -0.2970  0.8760
56649SOL     OW74757  10.577   9.058   1.753 -0.1696 -0.5629 -0.3077
56649SOL    HW174758  10.625   9.135   1.782 -2.7774  1.1832 -0.2442
56649SOL    HW274759  10.628   8.984   1.784  1.2268  1.1555  1.7535
56650SOL     OW74760  10.108   3.783  12.100 -0.1566 -0.1556 -0.4481
56650SOL    HW174761  10.079   3.711  12.155  0.2171  0.4443  0.5651
56650SOL    HW274762  10.093   3.753  12.011 -1.3908 -0.8921 -0.0074
56651SOL     OW74763   9.371   1.867   4.814 -0.0209  0.2676  0.4868
56651SOL    HW174764   9.386   1.933   4.747 -2.1845  0.5647  0.2125
56651SOL    HW274765   9.377   1.784   4.768  0.3660  0.3860  0.3261
56652SOL     OW74766   8.824  10.881   9.972 -0.3935 -0.0302  0.1169
56652SOL    HW174767   8.907  10.918   9.942 -0.5606  0.7367  0.5999
56652SOL    HW274768   8.840  10.786   9.974  0.9713  0.1854  1.6771
56653SOL     OW74769   4.334   8.386  12.412 -0.1542 -0.0730 -0.2108
56653SOL    HW174770   4.296   8.324  12.350  0.0969 -0.4992  0.0588
56653SOL    HW274771   4.370   8.331  12.482 -1.2337  0.4279  0.7842
56654SOL     OW74772   8.260   2.260   1.418  0.0242  0.1766 -0.3087
56654SOL    HW174773   8.354   2.247   1.435  0.1926 -0.5008 -1.6060
56654SOL    HW274774   8.224   2.286   1.503  1.0047 -1.7106  0.7782
56655SOL     OW74775   4.720   9.613   9.354 -0.3591 -0.2703 -0.6426
56655SOL    HW174776   4.801   9.648   9.317  0.8533 -0.4040  1.7313
56655SOL    HW274777   4.729   9.518   9.348  0.4110 -0.3323  1.0230
56656SOL     OW74778   4.225   1.413   4.140 -0.1190 -0.0340 -0.3515
56656SOL    HW174779   4.146   1.404   4.086 -0.3553  0.6120 -0.1249
56656SOL    HW274780   4.191   1.422   4.229  0.2842 -2.1111  0.0758
56657SOL     OW74781   6.304  11.748  10.227 -0.3443  0.0999 -0.1985
56657SOL    HW174782   6.281  11.750  10.134 -1.0191 -1.8771 -0.1356
56657SOL    HW274783   6.385  11.697  10.231 -0.7609 -0.5449  0.3414
56658SOL     OW74784   8.873  11.962  10.295  0.2074  0.0857 -0.4703
56658SOL    HW174785   8.851  11.962  10.389  1.9991 -1.9957  0.0232
56658SOL    HW274786   8.886  12.054  10.274 -0.0215  0.5817  1.3837
56659SOL     OW74787   0.756   6.345   8.510 -0.3653 -0.0231  0.0054
56659SOL    HW174788   0.714   6.266   8.474  0.0837 -0.5813  0.6718
56659SOL    HW274789   0.796   6.387   8.435 -0.3449 -0.6048 -0.3183
56660SOL     OW74790   5.433   7.441   4.263  0.0830 -0.4322 -0.0855
56660SOL    HW174791   5.458   7.493   4.339 -0.6524  0.7369 -0.6224
56660SOL    HW274792   5.474   7.485   4.189 -2.4525  0.8259 -0.8310
56661SOL     OW74793   7.854   9.016  11.050 -0.3245 -0.0107 -0.5677
56661SOL    HW174794   7.896   9.093  11.013  1.7613 -1.3739 -1.1563
56661SOL    HW274795   7.778   9.001  10.993 -0.7303  1.5207 -0.4850
56662SOL     OW74796   4.319  10.512   6.446 -0.9637  0.4932 -0.4460
56662SOL    HW174797   4.365  10.583   6.490 -0.6165 -0.5018  0.8941
56662SOL    HW274798   4.330  10.529   6.353 -1.2197  2.3764 -0.1623
56663SOL     OW74799   3.599   4.241   0.099  0.2753  0.2256  0.0986
56663SOL    HW174800   3.528   4.293   0.136  1.2293  0.0559  2.3263
56663SOL    HW274801   3.655   4.221   0.173  1.5384 -1.4513 -1.2244
56664SOL     OW74802   6.254   8.510  10.815  0.6372 -0.3553  0.3028
56664SOL    HW174803   6.304   8.429  10.805 -1.8151 -1.8548 -1.0787
56664SOL    HW274804   6.264   8.554  10.730 -0.4881 -0.8170 -0.1013
56665SOL     OW74805   6.954   4.591   1.498  0.0632  0.0399 -0.3959
56665SOL    HW174806   6.926   4.609   1.408  0.3381 -0.1061 -0.5145
56665SOL    HW274807   6.964   4.677   1.538  2.0265  0.2262 -1.1652
56666SOL     OW74808   9.071   8.643   8.568 -0.0508  0.1270  0.2737
56666SOL    HW174809   9.038   8.593   8.493 -0.6080 -0.1805  0.7177
56666SOL    HW274810   9.140   8.588   8.604 -1.0629 -0.6261  1.1200
56667SOL     OW74811   8.555  11.362   7.994 -0.1144  0.2992 -0.2161
56667SOL    HW174812   8.604  11.292   8.037  0.0052 -0.5952 -1.7381
56667SOL    HW274813   8.463  11.339   8.010 -0.0652  0.3323  0.1183
56668SOL     OW74814  11.002  12.389   0.276 -0.2026 -0.1029 -0.1505
56668SOL    HW174815  11.043  12.312   0.315 -1.3387 -0.8729 -0.4497
56668SOL    HW274816  10.986  12.448   0.350  1.8135  0.4311 -0.0749
56669SOL     OW74817   6.174   3.185   4.838  0.4163  0.3407 -0.4457
56669SOL    HW174818   6.199   3.243   4.910 -0.4838  0.5324 -0.2780
56669SOL    HW274819   6.080   3.197   4.830  0.3939 -0.2838 -1.1349
56670SOL     OW74820   5.049   9.234   6.682 -0.0133  0.0819 -0.4688
56670SOL    HW174821   5.063   9.232   6.777 -0.3523 -1.2231 -0.4245
56670SOL    HW274822   4.968   9.185   6.669  0.4708 -0.4849 -1.4907
56671SOL     OW74823   4.860   5.853  11.407 -0.6052 -0.0965  0.4319
56671SOL    HW174824   4.773   5.816  11.420 -0.8530 -0.0278 -0.8326
56671SOL    HW274825   4.918   5.798  11.461 -1.3110 -0.7022  0.5951
56672SOL     OW74826   4.331   4.619   9.437  0.3954 -0.3328 -0.5588
56672SOL    HW174827   4.329   4.549   9.372  0.7114  0.3449 -1.3072
56672SOL    HW274828   4.348   4.574   9.520  1.5870 -1.0619 -1.1672
56673SOL     OW74829   4.173   2.590   4.540 -0.3016 -0.1949 -0.7924
56673SOL    HW174830   4.223   2.580   4.459  1.7472 -1.3996  0.5173
56673SOL    HW274831   4.145   2.501   4.561  3.1227 -0.8445  2.0485
56674SOL     OW74832   8.121   4.122   6.601 -0.2111  0.5238  0.2392
56674SOL    HW174833   8.120   4.194   6.665 -1.0185  0.3562  0.4163
56674SOL    HW274834   8.116   4.043   6.654  0.3996  0.3401  0.0277
56675SOL     OW74835   9.896   2.625   4.667 -0.3524  0.3169  0.0382
56675SOL    HW174836   9.826   2.663   4.720 -0.1734 -1.3023  1.5138
56675SOL    HW274837   9.962   2.597   4.731  0.3443 -0.7715 -1.1105
56676SOL     OW74838  10.034  12.466   4.834  0.1622  0.6519 -0.3642
56676SOL    HW174839   9.964  12.412   4.872  1.0256 -0.0130  0.3130
56676SOL    HW274840   9.996  12.500   4.753 -0.7212 -0.2490 -0.3549
56677SOL     OW74841   4.680  10.622   3.637 -0.6904  0.2482 -0.5569
56677SOL    HW174842   4.758  10.677   3.649 -0.6911  0.3919 -1.1533
56677SOL    HW274843   4.618  10.678   3.592 -0.5839 -0.3195 -1.4446
56678SOL     OW74844   7.560  12.332   9.211 -0.1590  0.4475 -0.2782
56678SOL    HW174845   7.533  12.400   9.150 -0.3942 -1.4457 -2.4527
56678SOL    HW274846   7.656  12.330   9.203 -0.1929  0.1553 -0.7141
56679SOL     OW74847  11.755   5.134   5.841 -0.5183 -0.0178 -0.0073
56679SOL    HW174848  11.715   5.085   5.769  1.1784 -1.5579  0.0355
56679SOL    HW274849  11.787   5.214   5.800  0.7338 -1.0228 -1.0905
56680SOL     OW74850   7.112  11.521   4.521 -0.2483 -0.6326  0.3537
56680SOL    HW174851   7.067  11.440   4.498 -0.7768 -0.4827  0.8479
56680SOL    HW274852   7.042  11.585   4.534  0.1464 -0.1836  0.3110
56681SOL     OW74853   3.967   0.546   5.318  0.5721 -0.1946 -0.1644
56681SOL    HW174854   4.050   0.556   5.271  1.0744 -0.3308  0.6904
56681SOL    HW274855   3.903   0.589   5.261  0.9275 -1.4972 -1.6370
56682SOL     OW74856   6.528  10.994   6.939  0.0817  0.3163  0.5215
56682SOL    HW174857   6.532  10.949   6.854 -0.0268 -3.4348  2.3070
56682SOL    HW274858   6.610  11.043   6.944  0.2034  0.4310 -1.5982
56683SOL     OW74859   4.102   6.606   2.667  0.4660  0.2473 -0.3908
56683SOL    HW174860   4.010   6.597   2.639  0.9812  0.2680 -2.2272
56683SOL    HW274861   4.102   6.575   2.757 -2.2441  4.5609  1.4344
56684SOL     OW74862  11.502   1.666   7.869  0.0671  0.1819 -0.2594
56684SOL    HW174863  11.581   1.613   7.881 -0.3069 -0.3196 -0.0083
56684SOL    HW274864  11.457   1.662   7.953 -1.8863 -2.2391 -1.3027
56685SOL     OW74865   8.174   2.755   6.822  0.1871  0.1348  0.3820
56685SOL    HW174866   8.203   2.664   6.821  0.4190  0.2054  0.6278
56685SOL    HW274867   8.182   2.784   6.731 -3.0364 -1.0707 -0.4327
56686SOL     OW74868   3.936   3.193  10.497  0.0085  0.0403 -0.2536
56686SOL    HW174869   3.911   3.252  10.426 -0.5433  0.2033  0.0669
56686SOL    HW274870   3.960   3.112  10.453 -2.3922 -0.6014 -0.5603
56687SOL     OW74871  11.428   6.247   8.190 -0.3580 -0.5981  0.1250
56687SOL    HW174872  11.392   6.276   8.106  0.6803 -0.7470 -0.3956
56687SOL    HW274873  11.487   6.175   8.166 -0.2279 -0.7913  1.0147
56688SOL     OW74874   7.791  11.697   4.499  0.4216  0.2048  0.0524
56688SOL    HW174875   7.708  11.657   4.472 -0.1081 -0.0220  1.8428
56688SOL    HW274876   7.769  11.788   4.518  0.3005 -0.0903  1.4999
56689SOL     OW74877   5.662   7.117  12.277 -0.0449  0.0178  0.2064
56689SOL    HW174878   5.735   7.119  12.215 -0.0352 -0.3737  0.2090
56689SOL    HW274879   5.704   7.132  12.362 -0.2092  2.0210 -0.0052
56690SOL     OW74880   1.530   0.183  11.497  0.2239 -0.0826 -0.4855
56690SOL    HW174881   1.438   0.190  11.521  0.0590  0.2666 -1.1966
56690SOL    HW274882   1.563   0.273  11.506  0.9170 -0.4759  1.3740
56691SOL     OW74883   5.944  10.062   4.271  0.3382 -0.0036  0.1437
56691SOL    HW174884   5.976  10.151   4.257 -0.2722  0.2050  0.0278
56691SOL    HW274885   5.867  10.055   4.214  0.6073 -0.7362 -0.1397
56692SOL     OW74886   8.819   6.521   2.465 -0.3763  0.0822 -0.4355
56692SOL    HW174887   8.879   6.563   2.402 -1.9430  1.1326 -1.2893
56692SOL    HW274888   8.742   6.498   2.413 -0.8788 -0.9294  0.7160
56693SOL     OW74889  10.300   9.227   9.671 -0.5624  0.4207  0.3404
56693SOL    HW174890  10.232   9.225   9.739 -1.2261 -0.4212 -0.3205
56693SOL    HW274891  10.252   9.248   9.590 -0.1580 -0.8528 -0.2533
56694SOL     OW74892   3.512  11.638   1.059  0.8060  0.4240 -0.2878
56694SOL    HW174893   3.540  11.729   1.072 -0.9043  0.9332  0.0609
56694SOL    HW274894   3.437  11.627   1.118  0.2109 -0.8321 -1.2314
56695SOL     OW74895   8.300   6.282   2.978  0.1795 -0.4850  0.2277
56695SOL    HW174896   8.240   6.322   3.040  0.0157  0.3168 -0.4325
56695SOL    HW274897   8.374   6.342   2.974  1.1164 -1.5123  1.1177
56696SOL     OW74898   6.799  10.221   2.122 -0.3694  0.4298 -0.2651
56696SOL    HW174899   6.724  10.163   2.119 -0.1986  0.2319 -1.1214
56696SOL    HW274900   6.803  10.261   2.035  0.7056  0.1829 -0.3520
56697SOL     OW74901  10.096   5.941  11.498  0.2419  0.2751  0.0627
56697SOL    HW174902  10.021   5.995  11.523 -0.1639 -0.7117  1.0753
56697SOL    HW274903  10.061   5.851  11.498  1.3370 -0.1615  0.2115
56698SOL     OW74904   8.466   4.164   6.809 -0.6900 -0.1148  0.4749
56698SOL    HW174905   8.520   4.223   6.861  0.7877 -1.3392  0.4084
56698SOL    HW274906   8.407   4.222   6.761 -0.5977  1.1656  1.8389
56699SOL     OW74907   4.150  12.175   9.265  0.0961 -0.2652 -0.1726
56699SOL    HW174908   4.092  12.099   9.266  0.9358 -0.9130 -0.4115
56699SOL    HW274909   4.127  12.223   9.345 -1.2274 -0.1547 -0.5850
56700SOL     OW74910   7.891   8.624  11.077 -0.3665 -0.4902  0.4478
56700SOL    HW174911   7.948   8.569  11.023 -0.6120  0.3210 -0.6795
56700SOL    HW274912   7.830   8.662  11.015 -1.1318 -0.1002  1.4270
56701SOL     OW74913   9.353   4.498  11.552  0.0139 -0.2917 -0.0834
56701SOL    HW174914   9.446   4.479  11.541  0.1338 -0.5168  1.1088
56701SOL    HW274915   9.351   4.586  11.590 -0.2203 -0.4988  0.3979
56702SOL     OW74916   5.837   5.571   0.112  0.1074  0.2361  0.6129
56702SOL    HW174917   5.842   5.650   0.167  0.4370  0.1960  0.6421
56702SOL    HW274918   5.744   5.549   0.111  0.2009 -0.3043  1.9223
56703SOL     OW74919   4.430   3.535   6.911  1.1215 -0.2313  0.2318
56703SOL    HW174920   4.493   3.466   6.891  1.6667  0.6951 -1.4812
56703SOL    HW274921   4.469   3.614   6.873 -0.3181  0.6771  0.5879
56704SOL     OW74922   6.014   0.208   3.500 -0.0289 -0.0725  0.2381
56704SOL    HW174923   6.047   0.208   3.410 -1.8085 -0.8138 -0.4670
56704SOL    HW274924   5.973   0.122   3.510  1.7756 -0.7569  2.4323
56705SOL     OW74925   2.697   6.291   9.789 -0.2242 -0.8649  0.4671
56705SOL    HW174926   2.645   6.358   9.745  0.1607 -0.9188 -0.0710
56705SOL    HW274927   2.643   6.212   9.785 -1.4554 -0.2249  2.6170
56706SOL     OW74928   2.695   6.516   7.331  0.2442  0.0711  0.0218
56706SOL    HW174929   2.610   6.491   7.296  0.5309 -1.4226  0.3340
56706SOL    HW274930   2.755   6.510   7.256  0.5470 -1.4900  0.3609
56707SOL     OW74931   9.826   4.317   7.971  0.8754 -0.1227  0.6932
56707SOL    HW174932   9.733   4.338   7.956  1.1281 -0.5148 -1.8492
56707SOL    HW274933   9.824   4.229   8.008  0.2100 -0.8223 -0.8656
56708SOL     OW74934   2.849   1.854  10.188  0.4368 -0.2189 -0.3542
56708SOL    HW174935   2.854   1.925  10.123  0.4781  0.2947  0.1971
56708SOL    HW274936   2.901   1.783  10.151  1.4740  0.5085 -0.3432
56709SOL     OW74937   4.288  10.592   0.991  0.0941 -0.6231 -0.3074
56709SOL    HW174938   4.320  10.617   1.078  0.1388 -0.7879 -0.2764
56709SOL    HW274939   4.251  10.673   0.955  1.4830 -0.1517 -0.7567
56710SOL     OW74940   2.645   2.527   7.103  0.7003  0.3517 -0.4094
56710SOL    HW174941   2.623   2.619   7.120  0.2691  0.0832  0.5854
56710SOL    HW274942   2.635   2.484   7.188  2.2092 -0.3686 -0.5690
56711SOL     OW74943   6.458   4.556   8.336  0.6053 -0.0184  0.0391
56711SOL    HW174944   6.482   4.639   8.378 -0.2303 -0.2911  1.0989
56711SOL    HW274945   6.397   4.515   8.397  1.6639 -1.8403 -0.0511
56712SOL     OW74946   2.665   0.973   2.947  0.2331 -0.1609  0.2454
56712SOL    HW174947   2.574   0.959   2.921  0.1545 -1.7401  1.2306
56712SOL    HW274948   2.717   0.926   2.881  0.1988 -1.1480  0.8937
56713SOL     OW74949   7.647  10.849   7.552  0.3493 -0.5758  0.4235
56713SOL    HW174950   7.555  10.874   7.554  0.8714  1.6037  2.5480
56713SOL    HW274951   7.670  10.849   7.460 -1.6930 -0.9019 -0.1371
56714SOL     OW74952   5.810  11.176   9.338  0.2565  0.5188  0.8889
56714SOL    HW174953   5.786  11.140   9.423  1.5130 -2.2776  0.1656
56714SOL    HW274954   5.905  11.176   9.337  0.3006 -1.0877 -1.0549
56715SOL     OW74955   7.608   1.225   3.767 -0.4291  0.5658 -0.0780
56715SOL    HW174956   7.674   1.257   3.829  0.3128  0.0320 -0.5705
56715SOL    HW274957   7.534   1.284   3.779  0.3684  1.5752  0.0532
56716SOL     OW74958  11.242  10.553  11.084 -0.0654 -0.7671  0.4333
56716SOL    HW174959  11.324  10.510  11.059  1.3280  0.6296  2.3074
56716SOL    HW274960  11.189  10.483  11.123  1.3385 -1.2506  1.5938
56717SOL     OW74961   3.918   3.450  10.757  0.5533  0.5989  0.0669
56717SOL    HW174962   4.003   3.412  10.734 -0.0042 -0.9836  0.5112
56717SOL    HW274963   3.869   3.450  10.676  1.8738  4.2395 -0.9153
56718SOL     OW74964   5.845   1.957   4.079 -0.2459 -0.4436 -0.3117
56718SOL    HW174965   5.939   1.943   4.067  0.3827  1.7723  1.4101
56718SOL    HW274966   5.835   2.053   4.081 -2.5693 -0.6200 -0.5586
56719SOL     OW74967   4.253   4.085   8.097 -0.0009 -0.0044  0.0141
56719SOL    HW174968   4.222   4.132   8.175  1.7032 -0.1602  0.8277
56719SOL    HW274969   4.179   4.028   8.074 -0.5666  0.0565  1.5087
56720SOL     OW74970   3.968   4.121   7.412 -0.4950  0.3991 -0.0427
56720SOL    HW174971   3.897   4.058   7.402 -0.5833  0.6023 -0.7087
56720SOL    HW274972   4.047   4.073   7.387 -0.3399  0.0853  0.9721
56721SOL     OW74973  10.912   8.545  12.638 -0.0971 -0.2263  0.2939
56721SOL    HW174974  10.947   8.630  12.668  0.0708 -0.2954  0.2968
56721SOL    HW274975  10.825   8.566  12.604 -0.7812 -0.3179  1.8919
56722SOL     OW74976   4.971   0.582   0.097  0.1011 -0.0936 -0.4523
56722SOL    HW174977   5.036   0.514   0.112 -0.1661 -1.1591 -3.5192
56722SOL    HW274978   4.906   0.542   0.039 -1.6418  1.8954 -0.0032
56723SOL     OW74979   2.241   4.109  11.942 -0.4424  0.7919  0.7171
56723SOL    HW174980   2.163   4.060  11.966 -1.1637  1.2482 -0.5526
56723SOL    HW274981   2.207   4.190  11.903  0.6386  0.6795 -0.5268
56724SOL     OW74982  10.719   7.997   7.502  0.5628 -0.0176 -0.0294
56724SOL    HW174983  10.649   8.062   7.501 -0.2700 -0.8689 -1.8931
56724SOL    HW274984  10.690   7.931   7.565  0.5951  0.5357  0.5806
56725SOL     OW74985  12.197   5.425   6.997  0.4131  0.0222 -0.0670
56725SOL    HW174986  12.252   5.485   7.048  1.8498  0.1030 -1.6112
56725SOL    HW274987  12.206   5.341   7.041 -2.6693  1.0485  2.9208
56726SOL     OW74988   6.855   7.046   2.884 -0.7648 -0.2312  0.5823
56726SOL    HW174989   6.882   7.137   2.885  2.2743 -1.0222  0.5268
56726SOL    HW274990   6.933   6.998   2.856 -2.1832 -2.8738  0.8409
56727SOL     OW74991  12.237   0.382  10.582  0.5280  0.3114 -0.2131
56727SOL    HW174992  12.256   0.451  10.519 -0.0721  0.1831 -0.5460
56727SOL    HW274993  12.229   0.302  10.529 -2.4911  0.5914 -0.3847
56728SOL     OW74994   8.354   0.463   2.524  0.0348 -0.2720 -0.0270
56728SOL    HW174995   8.354   0.546   2.573 -1.4942 -0.7823  0.9155
56728SOL    HW274996   8.359   0.490   2.432 -3.7560  1.1590 -0.0062
56729SOL     OW74997   5.016   6.118   5.806  0.0593  0.0319  0.5561
56729SOL    HW174998   5.033   6.198   5.756 -0.7922 -0.3287 -0.3449
56729SOL    HW274999   5.102   6.076   5.814  0.5657  1.1581  1.2868
56730SOL     OW75000   5.567  12.184   7.749 -0.0038 -0.6454  0.3001
56730SOL    HW175001   5.575  12.253   7.815  1.4481 -1.6096  1.1676
56730SOL    HW275002   5.530  12.110   7.796 -0.7877 -0.7496 -0.4463
56731SOL     OW75003   7.235   7.919  10.051 -0.1374 -0.1592 -0.0754
56731SOL    HW175004   7.237   8.014  10.064 -0.5206 -0.2100  0.4139
56731SOL    HW275005   7.294   7.885  10.118 -1.2854 -0.3611  0.8739
56732SOL     OW75006   0.004  12.261   3.372  0.2381 -0.0203  0.3349
56732SOL    HW175007   0.035  12.234   3.458 -0.5619  0.1114  0.6803
56732SOL    HW275008   0.025  12.188   3.314 -0.1787 -0.5761  0.8707
56733SOL     OW75009   6.285  11.576   9.289  0.4638  0.1147  0.1466
56733SOL    HW175010   6.343  11.643   9.254 -1.1542  1.2923 -0.4584
56733SOL    HW275011   6.204  11.587   9.239  0.1930 -2.4379 -0.0780
56734SOL     OW75012  10.475   2.242   7.991  0.0259 -0.1422 -0.0812
56734SOL    HW175013  10.426   2.301   7.934  2.5822  2.8051  0.5185
56734SOL    HW275014  10.521   2.183   7.932 -0.1910  0.4722 -0.8681
56735SOL     OW75015   4.864   2.190   9.059  0.0481 -0.0715  0.1813
56735SOL    HW175016   4.807   2.136   9.115 -0.5627  0.0907 -0.2730
56735SOL    HW275017   4.941   2.136   9.044 -0.5270 -0.8040 -0.2119
56736SOL     OW75018   2.042   2.925   6.672 -0.3432  0.3281 -0.2531
56736SOL    HW175019   1.981   2.972   6.728 -2.2812 -1.6751 -0.5674
56736SOL    HW275020   2.056   2.984   6.598 -0.3444  1.6095  0.7189
56737SOL     OW75021   4.221  11.950   6.830 -0.2553 -0.1279 -0.0383
56737SOL    HW175022   4.183  11.866   6.803  0.8981 -0.6114 -0.1837
56737SOL    HW275023   4.179  12.014   6.772 -1.7372 -0.4836  0.6004
56738SOL     OW75024   7.721   7.247   6.502  0.5046 -0.4462  0.2156
56738SOL    HW175025   7.761   7.169   6.540  0.2632  0.4424  2.4440
56738SOL    HW275026   7.634   7.252   6.543  0.0710  0.3795 -0.7482
56739SOL     OW75027  12.293   8.493   5.008  0.3718  0.1121 -0.2370
56739SOL    HW175028  12.371   8.507   5.062 -0.2294 -0.5282  0.8278
56739SOL    HW275029  12.251   8.416   5.046 -0.8692  0.5361 -0.7012
56740SOL     OW75030   3.213   6.713   1.411 -0.0307  0.1485  0.1992
56740SOL    HW175031   3.284   6.718   1.476  0.3901  1.5283 -0.3365
56740SOL    HW275032   3.247   6.655   1.343 -0.4204 -1.2040  1.1015
56741SOL     OW75033  11.708   1.510   5.517 -0.5557 -0.1216  0.2411
56741SOL    HW175034  11.750   1.455   5.451  2.3731  0.2128  1.6918
56741SOL    HW275035  11.656   1.449   5.569 -2.2946 -0.5014 -1.7987
56742SOL     OW75036   4.451  10.641   9.677  0.9049 -0.5712  0.2365
56742SOL    HW175037   4.463  10.559   9.630  2.0859  0.2748 -1.0315
56742SOL    HW275038   4.483  10.708   9.616 -2.9445  1.2181 -0.1518
56743SOL     OW75039  10.794   3.775   6.266 -0.2896 -0.0993 -0.4226
56743SOL    HW175040  10.740   3.843   6.306 -1.4028 -1.7716  1.0510
56743SOL    HW275041  10.884   3.799   6.287 -0.6257  1.1642 -0.3752
56744SOL     OW75042   7.420  11.274   6.248 -0.2350 -0.1866 -0.1490
56744SOL    HW175043   7.500  11.223   6.250 -1.5706 -2.4982 -1.2576
56744SOL    HW275044   7.449  11.365   6.243  2.2536 -0.8036  1.6063
56745SOL     OW75045   3.222   6.511   1.683  0.6308  0.2367  0.3203
56745SOL    HW175046   3.140   6.559   1.693  0.0427 -0.8729  1.0262
56745SOL    HW275047   3.208   6.457   1.605 -0.0395 -1.2812  1.4308
56746SOL     OW75048   6.683   5.363   7.631 -0.3803 -0.2530 -0.2797
56746SOL    HW175049   6.670   5.311   7.552 -0.0907 -1.7509  0.6168
56746SOL    HW275050   6.778   5.370   7.640 -0.4129  0.1671 -0.2051
56747SOL     OW75051   0.027  10.505   4.828  0.4146 -0.0262 -0.1708
56747SOL    HW175052   0.082  10.442   4.875  0.7367  0.6705  0.4108
56747SOL    HW275053   0.012  10.576   4.891 -1.3922 -0.3206 -0.2111
56748SOL     OW75054   1.771   3.411   1.176 -0.0919 -0.8218 -0.2929
56748SOL    HW175055   1.802   3.334   1.128  0.6567  1.9738 -5.0151
56748SOL    HW275056   1.840   3.431   1.238  2.3510 -1.1364 -2.7185
56749SOL     OW75057  12.601   2.752   1.729 -1.0205 -0.1690  0.0665
56749SOL    HW175058  12.639   2.812   1.793  1.3661  0.5115 -1.8217
56749SOL    HW275059  12.666   2.683   1.719 -1.4971 -0.4606 -1.3213
56750SOL     OW75060   6.993   1.575  10.238  0.0574 -0.0765 -0.2688
56750SOL    HW175061   6.931   1.610  10.302 -1.3757  0.0106 -1.6387
56750SOL    HW275062   7.060   1.643  10.230 -1.0781  1.0332 -0.6819
56751SOL     OW75063   7.313   4.995   4.279  0.4850  0.6090 -0.2794
56751SOL    HW175064   7.268   4.925   4.234  2.9719  0.2544 -2.4863
56751SOL    HW275065   7.326   4.963   4.368 -1.4933 -0.1730 -0.2312
56752SOL     OW75066   6.707   8.576   0.451 -0.2370  0.1922 -0.4014
56752SOL    HW175067   6.679   8.589   0.542 -2.3071 -0.1156 -0.9421
56752SOL    HW275068   6.754   8.656   0.429 -1.9540  1.4273  0.1714
56753SOL     OW75069   7.539   3.503   2.962 -0.4354 -0.3191 -0.2787
56753SOL    HW175070   7.499   3.539   3.041  0.8291 -1.0241  0.7266
56753SOL    HW275071   7.472   3.446   2.925 -0.6360 -0.9601  1.0021
56754SOL     OW75072   6.487   1.582  11.769 -0.7134  0.4601  0.0908
56754SOL    HW175073   6.572   1.539  11.763  0.0975  1.8589  0.8884
56754SOL    HW275074   6.425   1.519  11.733  0.5956 -0.7714 -0.0868
56755SOL     OW75075   1.331   4.993  10.231 -0.6677 -0.4807  0.4969
56755SOL    HW175076   1.301   5.079  10.204 -0.4418  0.1374  2.1039
56755SOL    HW275077   1.325   4.939  10.152 -0.0653  1.1889 -0.7479
56756SOL     OW75078  12.087   6.494   8.260  0.0345  0.4200  0.4154
56756SOL    HW175079  12.075   6.400   8.253 -0.2493  0.4421  0.5682
56756SOL    HW275080  12.143   6.517   8.186  0.0850  0.1373  0.3640
56757SOL     OW75081   2.249   7.154   9.873  0.5111  0.1759  0.3949
56757SOL    HW175082   2.338   7.122   9.855 -0.4743 -1.5727 -1.9162
56757SOL    HW275083   2.213   7.090   9.934  1.1140  1.4794  2.1985
56758SOL     OW75084  12.491   8.344   2.569  0.0273  0.6123  0.3069
56758SOL    HW175085  12.555   8.283   2.608 -0.6749 -0.9484 -0.8633
56758SOL    HW275086  12.516   8.430   2.603  1.1673 -0.2938  1.9087
56759SOL     OW75087  12.323   8.851   5.815  0.4593  0.3758  0.1543
56759SOL    HW175088  12.411   8.827   5.787 -0.7252 -1.4518 -2.5230
56759SOL    HW275089  12.294   8.777   5.869 -0.3923 -0.6095 -1.5217
56760SOL     OW75090   2.755   3.994   7.621  0.0468  0.1021 -0.1369
56760SOL    HW175091   2.781   3.909   7.586  1.1283  0.1904  0.3939
56760SOL    HW275092   2.837   4.044   7.624 -0.2975  0.6158  1.0512
56761SOL     OW75093   9.202   7.959   2.963 -0.0121 -0.2538  0.4803
56761SOL    HW175094   9.249   7.934   3.042  0.3951  0.5990  0.5155
56761SOL    HW275095   9.247   8.038   2.932  1.0862 -1.6601 -1.7171
56762SOL     OW75096   8.691   3.987  12.300 -0.5325 -0.2928 -0.0089
56762SOL    HW175097   8.662   3.896  12.300  0.1988 -0.5349 -0.2934
56762SOL    HW275098   8.780   3.984  12.264 -1.4755  0.8567 -2.6875
56763SOL     OW75099   3.609   6.890  10.722  0.3102 -0.6776 -1.1435
56763SOL    HW175100   3.611   6.901  10.817 -0.7034  0.2200 -1.2135
56763SOL    HW275101   3.645   6.971  10.687 -1.1989 -0.1436 -1.5457
56764SOL     OW75102   7.088   3.206   5.518 -0.4974  0.0292  0.1530
56764SOL    HW175103   7.060   3.293   5.488  0.5579  0.3334  0.0159
56764SOL    HW275104   7.014   3.149   5.496 -1.1703  0.8680  0.1529
56765SOL     OW75105   2.158   1.793   9.677  0.3101  0.6077 -0.2813
56765SOL    HW175106   2.189   1.857   9.613  1.5450  0.2638 -0.0653
56765SOL    HW275107   2.191   1.826   9.761  1.3922 -0.5345 -0.2260
56766SOL     OW75108  10.373   1.995   6.897  0.2766  0.0157  0.3473
56766SOL    HW175109  10.363   1.901   6.912  0.8243  0.1317  1.5184
56766SOL    HW275110  10.314   2.037   6.960  0.5767  0.4687  0.3379
56767SOL     OW75111   4.859   8.686  10.799  0.5005 -0.1714 -0.1564
56767SOL    HW175112   4.782   8.715  10.750  1.8776  2.0197 -1.1587
56767SOL    HW275113   4.877   8.758  10.860  2.3083 -0.1600 -0.6393
56768SOL     OW75114   2.594   1.209   5.548 -0.4624  0.0962  0.1047
56768SOL    HW175115   2.673   1.258   5.573  0.4899 -0.9206 -0.8201
56768SOL    HW275116   2.598   1.129   5.600 -1.5150  0.5398  0.9057
56769SOL     OW75117  10.861   0.375   5.284 -0.1534 -0.0790  0.4369
56769SOL    HW175118  10.850   0.284   5.256  1.1541 -0.4774  1.1022
56769SOL    HW275119  10.772   0.411   5.286 -1.0143 -2.0739  2.5489
56770SOL     OW75120   6.989   0.294   0.014  0.0356  0.4539  0.2896
56770SOL    HW175121   7.023   0.272  -0.073 -0.5677 -0.2533  0.2196
56770SOL    HW275122   6.917   0.232   0.028  0.1275  0.5570  1.2983
56771SOL     OW75123   9.966   2.589  12.304  0.1334  0.3297  0.4286
56771SOL    HW175124  10.016   2.574  12.385 -0.4827 -1.4998  0.5072
56771SOL    HW275125  10.033   2.596  12.236  0.6014  0.6559  0.9073
56772SOL     OW75126   8.525   2.326   4.347 -0.5186  0.3199  0.6904
56772SOL    HW175127   8.549   2.369   4.265  0.3032 -0.5710  0.4445
56772SOL    HW275128   8.522   2.232   4.325 -2.7453  0.2315  1.0877
56773SOL     OW75129   5.448   9.141   8.768  0.7607 -0.4643 -0.4066
56773SOL    HW175130   5.462   9.085   8.692 -0.5178  0.2049 -1.1711
56773SOL    HW275131   5.386   9.092   8.823  1.0222 -0.5666 -0.1974
56774SOL     OW75132   7.956   2.800   3.863 -0.0988 -0.1050  0.8452
56774SOL    HW175133   7.947   2.853   3.941 -0.2499 -0.0553  0.7934
56774SOL    HW275134   7.991   2.860   3.797  1.0967 -0.3997  1.1695
56775SOL     OW75135  11.486  10.252   2.793 -0.1620  0.3420 -0.4922
56775SOL    HW175136  11.556  10.308   2.760 -0.7765  0.0579 -2.3891
56775SOL    HW275137  11.424  10.312   2.835  1.2742  0.5695  1.4222
56776SOL     OW75138   6.654   1.083  11.333  0.1502 -0.0771 -0.4898
56776SOL    HW175139   6.678   1.024  11.262 -0.2541  0.4969 -1.1270
56776SOL    HW275140   6.610   1.156  11.289  0.2358  0.4757  0.3187
56777SOL     OW75141   7.676   5.351   8.073  0.0467 -0.2209 -0.6276
56777SOL    HW175142   7.735   5.426   8.088  1.8438 -1.5769 -0.5161
56777SOL    HW275143   7.735   5.279   8.050 -1.4071 -2.1792  1.3882
56778SOL     OW75144   9.175   7.557   2.258 -0.0864  0.4034 -0.2431
56778SOL    HW175145   9.097   7.514   2.292 -0.1337 -0.0067 -0.8565
56778SOL    HW275146   9.148   7.647   2.242 -0.5391  0.1754 -0.7875
56779SOL     OW75147   0.343   4.830   2.974 -0.1036  0.1056 -0.3895
56779SOL    HW175148   0.275   4.776   3.014  0.0746 -0.8710 -1.3436
56779SOL    HW275149   0.407   4.766   2.941  0.0456  0.8866 -1.6769
56780SOL     OW75150   4.269   6.086   0.250  0.3894 -0.0697  0.1163
56780SOL    HW175151   4.319   6.005   0.251  1.7397  0.5617 -3.0555
56780SOL    HW275152   4.217   6.081   0.169  2.9710  3.3788 -2.0706
56781SOL     OW75153   9.157   3.779  12.284  0.0608 -0.0257 -0.2136
56781SOL    HW175154   9.164   3.830  12.364 -0.8967 -0.3220  0.0796
56781SOL    HW275155   9.169   3.688  12.313 -2.8842 -0.4281  0.1026
56782SOL     OW75156  12.176   5.889  11.392  0.7128  0.5834 -0.0582
56782SOL    HW175157  12.169   5.854  11.481  0.0797  2.0000  0.4679
56782SOL    HW275158  12.102   5.850  11.346  2.1181 -1.6955 -0.5616
56783SOL     OW75159  10.346   9.593   1.469 -0.0056 -0.0707  0.1949
56783SOL    HW175160  10.429   9.546   1.472  1.2452  1.9507 -0.5958
56783SOL    HW275161  10.364   9.677   1.511 -1.9558  0.0384  0.9224
56784SOL     OW75162   4.712  10.216   0.148 -0.3080  0.8572  0.0127
56784SOL    HW175163   4.670  10.241   0.066  0.0012 -3.4431 -1.7154
56784SOL    HW275164   4.639  10.188   0.204 -0.2710 -2.1457 -1.2625
56785SOL     OW75165   4.214   6.409   8.478  0.2665 -0.5262 -0.0697
56785SOL    HW175166   4.153   6.411   8.552  1.1309 -0.1806  0.6452
56785SOL    HW275167   4.221   6.500   8.451 -1.3747 -0.8239 -1.7262
56786SOL     OW75168   4.100   7.710   2.811 -0.6232 -0.4665  0.0304
56786SOL    HW175169   4.187   7.746   2.796 -0.4585 -0.9321 -0.1778
56786SOL    HW275170   4.092   7.703   2.906 -0.0364 -1.3504  0.0262
56787SOL     OW75171   0.894  11.612   4.363  0.3380 -0.4715 -0.0110
56787SOL    HW175172   0.884  11.606   4.268 -0.5555  0.4229 -0.0025
56787SOL    HW275173   0.864  11.701   4.384  3.8287  0.6763  0.7253
56788SOL     OW75174   5.541   9.677   2.238  0.1397  0.0371 -0.4080
56788SOL    HW175175   5.613   9.725   2.196  2.0818 -2.4355 -0.1208
56788SOL    HW275176   5.563   9.677   2.331 -0.8349  0.1696 -0.1673
56789SOL     OW75177   5.570   0.481   7.511  0.3538 -0.4772  0.5320
56789SOL    HW175178   5.632   0.553   7.521 -0.9689  0.7467  0.2548
56789SOL    HW275179   5.605   0.412   7.566  1.3074  0.6166  1.3594
56790SOL     OW75180   7.610   2.328  10.068 -0.4412 -0.2938 -0.4011
56790SOL    HW175181   7.695   2.286  10.055 -1.3092 -1.9980 -0.9178
56790SOL    HW275182   7.626   2.421  10.051  1.6446 -0.3005  1.1419
56791SOL     OW75183   4.260   1.099   9.638  0.1741  0.0278  0.2084
56791SOL    HW175184   4.336   1.079   9.583  0.2725 -1.5161  0.8560
56791SOL    HW275185   4.277   1.053   9.720 -2.0854 -1.5077 -0.1153
56792SOL     OW75186   5.143   9.829   9.961 -0.5617  0.3369  0.2194
56792SOL    HW175187   5.070   9.828  10.023 -0.5947  0.6784  0.1894
56792SOL    HW275188   5.218   9.798  10.011 -0.5454  0.8011  0.4909
56793SOL     OW75189   4.667   6.406  11.785 -0.2065 -0.0525  0.3239
56793SOL    HW175190   4.687   6.315  11.809 -1.1997 -0.6641 -0.9900
56793SOL    HW275191   4.751   6.451  11.792  0.6612 -1.4444 -0.4844
56794SOL     OW75192   4.226  11.030   8.928  0.3296  0.1363  0.6788
56794SOL    HW175193   4.229  10.967   8.999 -0.1833 -1.3083 -0.5285
56794SOL    HW275194   4.258  10.983   8.851 -0.8583  1.0648 -0.4496
56795SOL     OW75195   2.754   3.913   7.153 -0.1973  0.7307 -0.5829
56795SOL    HW175196   2.754   3.999   7.196  0.8482  0.1479  0.6557
56795SOL    HW275197   2.841   3.878   7.170 -1.0878 -1.2169  0.2737
56796SOL     OW75198   8.954   0.743   7.071 -0.3177  0.4640 -0.1984
56796SOL    HW175199   8.972   0.678   7.004 -0.0723  0.4295 -0.1004
56796SOL    HW275200   8.858   0.743   7.080 -0.4044  0.9252 -1.0026
56797SOL     OW75201   9.451   3.816   8.982  0.0271  0.0795  0.2028
56797SOL    HW175202   9.357   3.825   8.969  0.4117  1.2361 -2.7166
56797SOL    HW275203   9.485   3.793   8.895  2.4184 -0.4541  1.1976
56798SOL     OW75204   9.891  11.678   0.882 -0.1127 -0.0035 -0.3064
56798SOL    HW175205   9.867  11.638   0.966 -0.7954  0.0575 -0.4675
56798SOL    HW275206   9.935  11.608   0.834 -1.5152 -0.6767 -0.6821
56799SOL     OW75207   1.890   9.685  11.974  0.0813  0.5881  0.0743
56799SOL    HW175208   1.957   9.740  12.014  1.1837  0.4072 -1.4416
56799SOL    HW275209   1.939   9.618  11.925 -1.0628  1.8779 -3.1176
56800SOL     OW75210  11.334   7.377   8.008  0.1644  0.1442  0.6110
56800SOL    HW175211  11.389   7.304   7.981 -1.2894 -1.8770  2.7298
56800SOL    HW275212  11.246   7.352   7.980 -0.0081  2.7339 -1.6213
56801SOL     OW75213   6.407   3.126  12.414  0.2271 -0.7177  0.0037
56801SOL    HW175214   6.327   3.095  12.372  0.0462  0.6837 -0.7216
56801SOL    HW275215   6.379   3.191  12.477  0.8509  0.8997 -1.3094
56802SOL     OW75216   2.104   7.814   7.669 -0.1954  0.3665  0.3858
56802SOL    HW175217   2.143   7.771   7.593  1.1957 -1.2532  1.9017
56802SOL    HW275218   2.168   7.881   7.694  0.3734 -0.4741  1.2779
56803SOL     OW75219   7.119   3.502   3.063 -0.1435 -0.1888  0.2132
56803SOL    HW175220   7.142   3.410   3.056 -1.0219 -0.4619  0.7372
56803SOL    HW275221   7.171   3.545   2.995 -0.9260 -1.2858 -1.1351
56804SOL     OW75222   5.145   4.699   7.782 -0.1041  0.3029 -0.1138
56804SOL    HW175223   5.210   4.671   7.847  0.3499  0.7341 -0.3712
56804SOL    HW275224   5.107   4.617   7.750  1.0875 -0.0282 -0.7421
56805SOL     OW75225   8.175  11.385   9.563  0.4940  0.0859 -0.3595
56805SOL    HW175226   8.103  11.361   9.506  0.1486 -0.3318  0.2355
56805SOL    HW275227   8.221  11.455   9.517 -0.8253  1.0010 -0.3395
56806SOL     OW75228   8.386   9.777   8.436 -0.0939  0.1128  0.0905
56806SOL    HW175229   8.338   9.746   8.360  1.3406 -0.1319 -0.7413
56806SOL    HW275230   8.352   9.866   8.452 -1.6295 -0.4763  0.2674
56807SOL     OW75231   2.071  11.154   8.671 -0.2719 -0.4385 -0.0163
56807SOL    HW175232   2.005  11.162   8.740  0.6752  0.4968  0.8128
56807SOL    HW275233   2.044  11.078   8.620 -1.8151 -0.2585  0.4872
56808SOL     OW75234   1.031  11.352   6.824  0.3009  0.4445  0.3011
56808SOL    HW175235   1.057  11.265   6.794  1.2823 -0.2209  2.8006
56808SOL    HW275236   1.047  11.409   6.748  2.6953 -1.0544 -0.4484
56809SOL     OW75237  11.265   9.571   7.570 -0.1906  0.0655  0.2578
56809SOL    HW175238  11.281   9.477   7.562  2.1087  0.3190  0.9358
56809SOL    HW275239  11.338   9.603   7.624 -0.2776  2.4005 -0.8534
56810SOL     OW75240  11.304   6.854   7.712 -0.2838  0.5737 -0.0106
56810SOL    HW175241  11.272   6.775   7.755 -0.3640  1.1722  1.0725
56810SOL    HW275242  11.262   6.853   7.626 -4.5916  2.0472  1.8008
56811SOL     OW75243  11.899   8.287  11.231  0.5908  0.2033 -0.9620
56811SOL    HW175244  11.961   8.220  11.258 -0.7495 -0.2846  1.1531
56811SOL    HW275245  11.911   8.358  11.294  0.7724  1.2409 -2.1115
56812SOL     OW75246   6.171   5.449   4.296 -0.0460  0.7623 -0.2491
56812SOL    HW175247   6.171   5.355   4.280  0.0394  0.3017  2.0563
56812SOL    HW275248   6.079   5.471   4.312 -0.2195  1.3204 -1.8253
56813SOL     OW75249   3.638   8.059   9.648  0.7427 -0.0285  0.2389
56813SOL    HW175250   3.711   8.061   9.586  0.3702  0.9253 -0.1945
56813SOL    HW275251   3.577   8.125   9.615 -2.1511 -3.2929 -1.6297
56814SOL     OW75252  11.809   2.145   5.535 -0.1410 -0.0823  0.1901
56814SOL    HW175253  11.850   2.228   5.558 -0.9318  0.9613 -1.9359
56814SOL    HW275254  11.821   2.090   5.613  2.6307  1.1273  0.7540
56815SOL     OW75255  12.477   0.921   8.760 -0.6258  0.3245 -0.4249
56815SOL    HW175256  12.530   0.890   8.834 -0.7811 -2.9121 -1.5002
56815SOL    HW275257  12.512   1.008   8.740  0.9043  0.3657  1.9957
56816SOL     OW75258   1.598   6.300   0.570 -0.3123  0.0280  0.4311
56816SOL    HW175259   1.570   6.354   0.644  0.9602  1.0719  0.1981
56816SOL    HW275260   1.664   6.242   0.606  0.5437  0.7591  0.0749
56817SOL     OW75261  10.114   8.321   3.167  0.5034 -0.1508  0.0173
56817SOL    HW175262  10.151   8.235   3.148  1.6130  0.2731  0.1586
56817SOL    HW275263  10.190   8.376   3.186 -0.2114  0.7658  0.3178
56818SOL     OW75264   5.589   2.787   1.197 -0.1043 -0.2026 -0.5271
56818SOL    HW175265   5.586   2.861   1.259 -0.8874 -0.1383 -0.6367
56818SOL    HW275266   5.594   2.709   1.253 -0.4003 -0.1248 -0.3918
56819SOL     OW75267  10.307   2.093   8.238 -0.3416  0.3566 -0.9479
56819SOL    HW175268  10.387   2.042   8.246 -0.6661  0.1307  1.9278
56819SOL    HW275269  10.255   2.047   8.172  0.6291 -1.2788 -0.6096
56820SOL     OW75270  10.600   6.852  11.904 -0.1518 -0.4700  0.0067
56820SOL    HW175271  10.681   6.880  11.860 -0.8684 -0.2086 -1.2133
56820SOL    HW275272  10.582   6.766  11.867 -0.2832 -0.6503  0.4912
56821SOL     OW75273   3.361   1.457   5.509  0.2158  0.5710  0.2313
56821SOL    HW175274   3.452   1.451   5.539  0.1561 -0.7416  0.2032
56821SOL    HW275275   3.366   1.444   5.415 -0.0930 -0.7488  0.3739
56822SOL     OW75276   3.985   7.349   4.987 -0.3879  0.0843 -0.4907
56822SOL    HW175277   4.001   7.280   5.051  1.1447 -0.8588 -1.8269
56822SOL    HW275278   3.900   7.327   4.949 -0.3322 -0.5422 -0.2676
56823SOL     OW75279   9.283   3.905   6.614  0.7017 -0.3125  0.5078
56823SOL    HW175280   9.206   3.935   6.565  1.8219  0.0337 -1.1442
56823SOL    HW275281   9.291   3.812   6.591 -0.7312 -1.0785  2.8284
56824SOL     OW75282   7.945  12.610   6.617  0.8306 -0.4484  0.2465
56824SOL    HW175283   8.019  12.653   6.661  1.1304 -1.5228  0.8160
56824SOL    HW275284   7.868  12.654   6.653  1.1574  0.0942  0.2959
56825SOL     OW75285  11.290   1.016  12.475  0.1599 -0.3643  0.8778
56825SOL    HW175286  11.346   1.087  12.506 -0.6081  0.6842 -0.0451
56825SOL    HW275287  11.283   0.957  12.549 -1.5133  1.9633  2.7271
56826SOL     OW75288   4.340   7.730  11.708 -0.0128 -0.2341  0.3806
56826SOL    HW175289   4.248   7.712  11.723 -0.0562  0.4917  1.0001
56826SOL    HW275290   4.380   7.644  11.698 -1.1353 -0.5420 -2.3363
56827SOL     OW75291   7.450   2.358   9.123 -0.1767  0.0492  0.1912
56827SOL    HW175292   7.429   2.355   9.216  2.0347 -2.7350  0.7652
56827SOL    HW275293   7.542   2.383   9.120 -0.5062  1.2499 -1.3881
56828SOL     OW75294  10.392  11.424   6.691  0.1140 -0.2230 -1.2299
56828SOL    HW175295  10.347  11.339   6.691 -2.0914  0.8875 -1.9956
56828SOL    HW275296  10.335  11.482   6.642  1.7706  1.6545 -1.0703
56829SOL     OW75297   3.118   6.017   5.794 -0.1310  0.2293  0.4790
56829SOL    HW175298   3.177   5.980   5.860 -0.4340 -1.2953 -0.0538
56829SOL    HW275299   3.177   6.056   5.729  0.2814 -0.4810  0.4084
56830SOL     OW75300   3.353   3.554   1.727  0.1075  0.0671  0.4532
56830SOL    HW175301   3.396   3.508   1.800 -0.6542 -2.6016 -0.6517
56830SOL    HW275302   3.425   3.578   1.669  0.5100  0.0966  0.9493
56831SOL     OW75303   7.916   5.829   3.376  0.2779  0.3708 -0.1698
56831SOL    HW175304   7.872   5.808   3.294  0.8191  1.4477 -0.7557
56831SOL    HW275305   7.878   5.768   3.440 -2.1617  1.3382 -0.5944
56832SOL     OW75306  11.915   8.030   9.654 -0.7435  0.0314  0.5104
56832SOL    HW175307  11.836   7.983   9.627  0.6391 -2.2524  0.1677
56832SOL    HW275308  11.955   7.973   9.720  2.1349 -0.4675 -1.4853
56833SOL     OW75309  11.284   6.838  10.321 -0.1038  0.5009 -0.0642
56833SOL    HW175310  11.205   6.802  10.281 -0.3030  0.0975  0.6752
56833SOL    HW275311  11.256   6.921  10.360  0.0053  0.7097 -0.4250
56834SOL     OW75312   5.738   8.947   8.728 -0.3537  0.7432 -0.3714
56834SOL    HW175313   5.664   8.889   8.747  1.7284 -1.0940  3.0340
56834SOL    HW275314   5.787   8.901   8.660 -1.8555  1.6356 -2.1415
56835SOL     OW75315   0.772   7.688  11.842 -0.4772  0.5305 -0.1645
56835SOL    HW175316   0.831   7.758  11.871 -1.4110  1.6376 -0.8459
56835SOL    HW275317   0.684   7.724  11.855 -1.0817 -1.4154  1.6645
56836SOL     OW75318   2.782   2.117   9.398  0.1883 -0.2116  0.0500
56836SOL    HW175319   2.806   2.107   9.490 -0.8157  0.0996  0.3506
56836SOL    HW275320   2.784   2.211   9.382 -1.5443 -0.1073  0.2931
56837SOL     OW75321   4.747   5.242   9.601 -0.2205  0.2794 -0.0112
56837SOL    HW175322   4.734   5.228   9.507 -1.4432  1.3295 -0.0226
56837SOL    HW275323   4.671   5.292   9.629 -0.2881 -0.6991  1.7233
56838SOL     OW75324   9.019   5.643   7.639 -0.3805 -0.0656 -0.1007
56838SOL    HW175325   9.035   5.704   7.710 -0.4305  0.5529 -0.6059
56838SOL    HW275326   9.105   5.627   7.600 -0.3480 -0.4288  0.1208
56839SOL     OW75327   2.677   1.327   0.044  0.0668 -0.1363 -0.0131
56839SOL    HW175328   2.766   1.293   0.042 -0.2627 -1.0129 -0.0628
56839SOL    HW275329   2.665   1.369  -0.041  0.5157  0.2093  0.0931
56840SOL     OW75330   8.120  11.534  10.677  0.1506 -0.7331  0.1154
56840SOL    HW175331   8.045  11.515  10.733  0.3886  0.4241  0.8456
56840SOL    HW275332   8.196  11.513  10.731  0.3769 -1.6672 -0.5348
56841SOL     OW75333  10.472   6.782  10.986 -0.3033  0.2622  0.1930
56841SOL    HW175334  10.503   6.717  11.050  0.4579  0.6346  0.2010
56841SOL    HW275335  10.544   6.792  10.925 -1.0380 -0.1099 -0.7572
56842SOL     OW75336   9.493  11.275   3.643 -0.5909 -0.4423  0.2941
56842SOL    HW175337   9.545  11.199   3.670 -0.3167 -0.3796 -0.0573
56842SOL    HW275338   9.446  11.246   3.565  0.5270  0.1593 -0.6215
56843SOL     OW75339   0.045   9.987   5.650 -0.2028 -0.0774 -0.1867
56843SOL    HW175340  -0.041   9.952   5.629 -0.0193  0.6932 -2.5196
56843SOL    HW275341   0.098   9.970   5.573  2.1359 -1.5114  1.5834
56844SOL     OW75342   2.394   7.565  10.189  0.2721  0.0086 -0.0093
56844SOL    HW175343   2.342   7.624  10.134 -0.7567 -1.1042 -0.2762
56844SOL    HW275344   2.368   7.586  10.279  2.1476  2.0120  0.1481
56845SOL     OW75345   4.453  10.500   0.014 -0.2624  0.3052 -0.1704
56845SOL    HW175346   4.456  10.541  -0.073 -1.7249  1.4395  0.2806
56845SOL    HW275347   4.519  10.431   0.010  0.7022  1.2586 -1.7143
56846SOL     OW75348   2.282   4.189  12.212  0.0236 -0.3528  0.3296
56846SOL    HW175349   2.198   4.218  12.249  0.4163 -0.3489  1.2513
56846SOL    HW275350   2.259   4.145  12.130 -0.8211  0.2031  0.2576
56847SOL     OW75351   0.704   3.477   8.986 -0.2839 -0.1232 -0.1814
56847SOL    HW175352   0.720   3.471   8.892  1.3336  0.6914  0.0217
56847SOL    HW275353   0.764   3.414   9.025 -0.2836  0.2191  0.3794
56848SOL     OW75354   5.037   3.848   8.861  0.6259  0.9756 -0.3476
56848SOL    HW175355   4.972   3.869   8.927 -0.1103  0.9963 -1.0538
56848SOL    HW275356   5.121   3.865   8.902  0.1765  1.0573  0.5449
56849SOL     OW75357  10.013   1.268   2.756 -0.2255  0.3976  0.3755
56849SOL    HW175358   9.937   1.236   2.707 -2.0847  3.8365  0.6768
56849SOL    HW275359  10.053   1.334   2.700  0.3422  1.1897  1.6443
56850SOL     OW75360   4.800   2.039  12.027  0.1383  0.2731 -0.1667
56850SOL    HW175361   4.848   2.097  12.086  1.2382  0.8861 -1.5978
56850SOL    HW275362   4.864   1.972  12.003 -0.6236 -0.5942  0.1723
56851SOL     OW75363   3.017   7.117  11.477 -0.4006 -0.2052 -0.5091
56851SOL    HW175364   3.108   7.144  11.488 -0.5761  0.3502 -0.3832
56851SOL    HW275365   3.008   7.097  11.384 -0.5299  1.1996 -0.8167
56852SOL     OW75366  12.053   2.961   1.051  0.3467  0.2261  0.2159
56852SOL    HW175367  11.967   2.921   1.048  1.7627 -3.4583  2.0111
56852SOL    HW275368  12.055   3.007   1.135 -0.2984  1.5531 -0.4797
56853SOL     OW75369   8.223   7.548   4.703  0.2113  0.6046  0.5070
56853SOL    HW175370   8.219   7.466   4.752 -1.6070 -0.5629 -1.4186
56853SOL    HW275371   8.134   7.582   4.705  0.6472  1.8255  0.1273
56854SOL     OW75372   2.236  11.885   0.042 -0.1912  0.0502  0.2853
56854SOL    HW175373   2.216  11.794   0.024  2.6164 -0.3959 -1.1064
56854SOL    HW275374   2.196  11.934  -0.030  0.1703 -0.3395 -0.1814
56855SOL     OW75375   4.550   2.975   9.815 -0.4482 -0.0671 -0.7352
56855SOL    HW175376   4.497   2.897   9.795 -0.3719 -0.9842  2.2459
56855SOL    HW275377   4.579   2.962   9.905  2.0253  2.0713 -1.1195
56856SOL     OW75378  10.536   7.548   1.203  0.5692 -0.1949 -0.1596
56856SOL    HW175379  10.620   7.577   1.167  0.1247 -0.4991 -1.4916
56856SOL    HW275380  10.483   7.524   1.127 -1.1794  1.1278  0.5680
56857SOL     OW75381   3.307   0.135  10.823 -0.0733  0.1968  0.6193
56857SOL    HW175382   3.217   0.101  10.825  0.0001 -0.2336 -1.5946
56857SOL    HW275383   3.359   0.067  10.868 -0.6550 -0.1691  0.7497
56858SOL     OW75384   2.722   0.259   5.710 -0.1671  0.0905  0.6321
56858SOL    HW175385   2.632   0.277   5.680  0.2288  0.1250 -0.5968
56858SOL    HW275386   2.773   0.254   5.629  0.8550 -0.4228  1.2975
56859SOL     OW75387   4.479   9.496  11.468  0.5704  0.1667 -0.5661
56859SOL    HW175388   4.518   9.579  11.498 -0.2001 -0.2756  1.8795
56859SOL    HW275389   4.387   9.517  11.454 -0.0186 -0.5805  1.7637
56860SOL     OW75390  10.857   1.772   6.020 -0.2247 -0.0985 -0.0911
56860SOL    HW175391  10.831   1.859   5.991  0.2880  0.8011  1.9478
56860SOL    HW275392  10.774   1.724   6.030 -0.4384 -0.2994 -2.3882
56861SOL     OW75393  12.181   2.017  11.805 -0.0006  0.3375 -0.1479
56861SOL    HW175394  12.158   2.104  11.773  0.3662  0.8320  0.9029
56861SOL    HW275395  12.230   2.033  11.886  1.4365 -0.7855 -0.7507
56862SOL     OW75396   3.199   4.334   3.346  0.0039 -0.0643 -0.1608
56862SOL    HW175397   3.127   4.365   3.290 -1.2940  0.3315  1.6444
56862SOL    HW275398   3.274   4.388   3.320 -1.4517  2.6003  0.7940
56863SOL     OW75399   9.307   9.330   0.173 -0.2401  0.0009 -0.6036
56863SOL    HW175400   9.235   9.285   0.216 -0.1750  0.3874 -0.0775
56863SOL    HW275401   9.271   9.358   0.089 -0.3609 -0.7817 -0.8241
56864SOL     OW75402   9.159  11.842   3.102  0.6757  0.4311  0.2629
56864SOL    HW175403   9.142  11.877   3.189  0.9408 -1.6489  1.2086
56864SOL    HW275404   9.214  11.908   3.060 -0.8095  2.2298  1.0385
56865SOL     OW75405   4.661   2.632   0.681  0.4792  0.7282 -0.2124
56865SOL    HW175406   4.635   2.653   0.771 -0.9302  2.2590 -0.9181
56865SOL    HW275407   4.648   2.537   0.674  0.3938  0.6205  1.1276
56866SOL     OW75408   4.156   7.591   5.970  0.1431  0.0731  0.6187
56866SOL    HW175409   4.174   7.662   5.908  0.3591 -1.9483 -1.8059
56866SOL    HW275410   4.243   7.556   5.991 -0.0729 -1.2139 -0.4773
56867SOL     OW75411   5.418   3.455  11.434 -0.1486 -0.0990  0.3988
56867SOL    HW175412   5.355   3.527  11.436 -1.5630 -1.2907  1.9162
56867SOL    HW275413   5.456   3.454  11.522  1.4509  0.0943 -0.2520
56868SOL     OW75414  11.730   7.052   6.479 -0.5286  0.2896 -0.3938
56868SOL    HW175415  11.817   7.069   6.516 -0.8676 -0.4277  0.7847
56868SOL    HW275416  11.732   7.092   6.392  1.3497 -0.6795 -0.8374
56869SOL     OW75417   5.651   6.965   1.866 -0.0233 -0.2219  0.5987
56869SOL    HW175418   5.596   7.030   1.824  0.2828 -0.8103 -0.7660
56869SOL    HW275419   5.643   6.983   1.960 -1.1160  0.8088  0.3227
56870SOL     OW75420  12.523   3.575  11.460 -0.4220  0.1044 -0.1619
56870SOL    HW175421  12.500   3.665  11.441 -0.4618  0.0123 -0.5585
56870SOL    HW275422  12.473   3.523  11.397 -0.1320 -0.1721 -0.1682
56871SOL     OW75423   3.731   3.799   1.560  0.1678  0.2789 -0.6643
56871SOL    HW175424   3.756   3.770   1.648  0.4813  0.3700 -0.7230
56871SOL    HW275425   3.735   3.720   1.506 -0.2302  0.1810 -0.5544
56872SOL     OW75426   7.181  10.119   6.020  0.5345 -0.3925  0.2809
56872SOL    HW175427   7.237  10.100   5.946 -0.3989 -1.3756 -0.2036
56872SOL    HW275428   7.130  10.196   5.993  0.6757 -0.3378  0.1724
56873SOL     OW75429   7.776   3.083  10.897  0.3413  0.2566  0.0562
56873SOL    HW175430   7.857   3.064  10.944  0.0782  1.7930  1.2059
56873SOL    HW275431   7.772   3.179  10.895 -0.4531  0.2265 -1.7706
56874SOL     OW75432   9.894   9.079   0.605  0.3974 -0.0368 -0.3021
56874SOL    HW175433   9.899   9.167   0.643 -0.7188 -0.4428  0.8742
56874SOL    HW275434   9.824   9.036   0.654 -1.6285 -0.4208 -3.2680
56875SOL     OW75435   3.973  11.531  11.817  0.5085 -0.4221  0.4988
56875SOL    HW175436   3.907  11.497  11.878 -0.6537 -1.5422 -1.2764
56875SOL    HW275437   3.924  11.545  11.736  1.9900  1.0692 -0.1697
56876SOL     OW75438   0.789   8.580   8.749 -0.3699 -0.2914  0.5913
56876SOL    HW175439   0.882   8.602   8.758 -0.3872  0.9293 -1.5412
56876SOL    HW275440   0.746   8.665   8.735 -1.7083 -0.9096  0.8458
56877SOL     OW75441   0.535   5.252   5.394 -0.8085 -0.0780  0.0268
56877SOL    HW175442   0.624   5.283   5.380 -0.2755 -1.1731  0.8363
56877SOL    HW275443   0.544   5.184   5.461 -2.3491  0.3478  0.7102
56878SOL     OW75444   9.663   8.345   2.589 -0.7001  0.0371 -0.4625
56878SOL    HW175445   9.713   8.426   2.580 -0.5078  0.0014  0.2785
56878SOL    HW275446   9.725   8.276   2.567 -1.0096  0.1093 -1.6281
56879SOL     OW75447   2.367  12.409   8.856  0.0966 -0.3679 -0.2516
56879SOL    HW175448   2.390  12.382   8.945  0.7072 -0.6387 -0.4887
56879SOL    HW275449   2.395  12.500   8.849  0.8497 -0.6143 -0.4501
56880SOL     OW75450   3.893   1.808   7.865 -0.6013 -0.4144 -0.1779
56880SOL    HW175451   3.817   1.819   7.923 -0.2701 -0.2092  0.2164
56880SOL    HW275452   3.959   1.765   7.919 -0.1416  0.1684 -0.2729
56881SOL     OW75453   8.131   3.391  10.212 -0.1574 -0.1942 -0.1939
56881SOL    HW175454   8.068   3.384  10.285  1.0370  0.1249  0.9027
56881SOL    HW275455   8.164   3.480  10.217  0.2736 -0.3127 -0.8551
56882SOL     OW75456   9.227  11.714   7.178  0.3134  0.2586  0.4319
56882SOL    HW175457   9.147  11.742   7.133  0.0744  0.2445  0.8364
56882SOL    HW275458   9.222  11.618   7.178  0.1963  0.2623  0.6838
56883SOL     OW75459   3.403  12.335   0.038 -0.0031  0.2346 -0.2561
56883SOL    HW175460   3.359  12.416   0.061 -0.9951 -1.1354  3.4964
56883SOL    HW275461   3.335  12.268   0.045  1.2920 -1.2040 -0.7724
56884SOL     OW75462   8.680   3.954  10.417  1.0353 -0.3633  0.4293
56884SOL    HW175463   8.755   3.895  10.421  0.3838 -1.1908  0.9224
56884SOL    HW275464   8.615   3.914  10.476 -0.5077 -0.7254 -1.4111
56885SOL     OW75465   3.464   1.962   3.126  0.2391 -0.1919  0.4946
56885SOL    HW175466   3.492   2.024   3.193 -0.6570  0.2124  0.5113
56885SOL    HW275467   3.464   1.877   3.170 -1.0684  0.1713  1.2397
56886SOL     OW75468   3.948   0.118   4.098 -0.3437  0.3108 -0.2936
56886SOL    HW175469   3.913   0.199   4.136 -0.6192 -0.3230  0.8252
56886SOL    HW275470   4.043   0.132   4.095 -0.2149  0.0569  1.4556
56887SOL     OW75471  11.791   2.259   2.597 -0.3616  0.1928  0.5018
56887SOL    HW175472  11.835   2.232   2.517 -0.4097  0.1031  0.5057
56887SOL    HW275473  11.760   2.177   2.636 -2.1650  0.3779 -0.4323
56888SOL     OW75474   2.445   8.664   5.750 -0.8520  0.2918  0.5196
56888SOL    HW175475   2.382   8.604   5.710 -0.3695 -0.0318  0.2505
56888SOL    HW275476   2.485   8.710   5.676 -0.4878  0.2216  0.6746
56889SOL     OW75477   9.731   8.609   5.901  0.1786 -0.2019  0.0923
56889SOL    HW175478   9.788   8.629   5.976  0.4942 -0.7654  0.0107
56889SOL    HW275479   9.792   8.585   5.831 -0.0210  1.7462 -0.8165
56890SOL     OW75480   8.417   3.779   6.375 -0.2822 -0.0352  0.5264
56890SOL    HW175481   8.472   3.711   6.335 -0.4799 -0.2890  0.6820
56890SOL    HW275482   8.476   3.825   6.435  0.4422  1.3891 -1.2035
56891SOL     OW75483   5.112   7.178  10.026 -0.3446  0.0890 -0.3471
56891SOL    HW175484   5.201   7.162  10.056 -1.0847 -1.2347  1.2866
56891SOL    HW275485   5.121   7.195   9.932  1.6144  0.0993 -0.2024
56892SOL     OW75486   0.294   1.556  11.888 -0.7431  0.4699  0.2622
56892SOL    HW175487   0.347   1.528  11.813 -2.2653 -1.0698 -0.3028
56892SOL    HW275488   0.214   1.592  11.849 -1.4131 -0.0594  1.1145
56893SOL     OW75489  10.441   9.550  12.462  0.1459 -0.0478 -0.4548
56893SOL    HW175490  10.378   9.486  12.430  0.9171 -0.3266 -1.4375
56893SOL    HW275491  10.526   9.508  12.454  0.5469  0.6135  0.1294
56894SOL     OW75492   4.284   4.996   6.194 -0.1764  0.4922  0.3996
56894SOL    HW175493   4.224   5.059   6.153 -0.9297 -0.0010  0.7089
56894SOL    HW275494   4.327   4.953   6.121  0.3210  1.3369  0.1825
56895SOL     OW75495   7.945   8.798   4.171  0.8588  0.2638 -0.0111
56895SOL    HW175496   7.899   8.878   4.194  1.6749  1.1911 -1.4600
56895SOL    HW275497   7.985   8.768   4.253 -1.2863  0.0606  1.0312
56896SOL     OW75498   3.707   5.775  11.763  0.1754  0.1831  0.2474
56896SOL    HW175499   3.676   5.788  11.853 -0.6279  0.7699 -0.0952
56896SOL    HW275500   3.675   5.852  11.716 -1.6147 -1.2930 -1.1101
56897SOL     OW75501   5.220   6.557   6.231 -0.0475  0.1888  0.1380
56897SOL    HW175502   5.185   6.480   6.184 -0.6546  0.7262 -0.3106
56897SOL    HW275503   5.173   6.631   6.193  1.1772  0.8838 -0.0681
56898SOL     OW75504   2.890   5.837  10.893  0.2368 -0.1995 -0.5169
56898SOL    HW175505   2.801   5.801  10.902  0.1153  0.3253  0.6369
56898SOL    HW275506   2.880   5.930  10.914  1.1079 -0.1929 -0.0966
56899SOL     OW75507   5.529   0.701  11.059  0.0395 -0.4065 -0.1953
56899SOL    HW175508   5.472   0.624  11.069 -1.8494  1.1036  1.4886
56899SOL    HW275509   5.609   0.677  11.105 -0.8415 -1.0877  1.0436
56900SOL     OW75510   2.642   6.826   9.630  0.4089  0.9425  0.7899
56900SOL    HW175511   2.663   6.901   9.576  0.3785 -0.0407 -0.6482
56900SOL    HW275512   2.686   6.752   9.588 -0.2662  0.0013  1.6527
56901SOL     OW75513   7.033   7.169   1.109 -0.1059 -0.0905 -0.3860
56901SOL    HW175514   7.059   7.091   1.059 -1.3133  1.0777 -3.0126
56901SOL    HW275515   7.074   7.242   1.062 -0.9005  1.0415  0.6352
56902SOL     OW75516   0.619   7.651   3.187  0.3123  0.2095 -0.6401
56902SOL    HW175517   0.603   7.661   3.281  0.8469  1.4320 -0.6544
56902SOL    HW275518   0.531   7.652   3.148 -0.0734 -2.4988 -0.0267
56903SOL     OW75519   0.452   5.668   8.121 -0.0145 -0.3522 -0.3559
56903SOL    HW175520   0.472   5.647   8.212  1.0703 -0.6826 -0.6629
56903SOL    HW275521   0.516   5.620   8.070 -0.7443 -0.3396 -1.3196
56904SOL     OW75522   0.935   5.438   6.999  0.1958  0.2788 -0.2353
56904SOL    HW175523   0.940   5.374   6.929 -0.5737  0.6394 -0.6229
56904SOL    HW275524   1.027   5.456   7.021  0.5367  1.4974 -2.3807
56905SOL     OW75525   2.126   2.231   2.339  0.6721  0.6871 -0.4422
56905SOL    HW175526   2.096   2.310   2.384 -0.7455  1.7655 -3.0222
56905SOL    HW275527   2.047   2.177   2.332  1.2032 -0.1044 -0.3274
56906SOL     OW75528   9.741   6.122   0.654  0.0895  1.3279  0.1866
56906SOL    HW175529   9.697   6.052   0.703  1.9091  0.0861  0.1318
56906SOL    HW275530   9.670   6.183   0.632 -1.3666  0.1322  1.2757
56907SOL     OW75531   9.802   2.243   1.452  0.0794 -0.4130 -0.8413
56907SOL    HW175532   9.779   2.151   1.441  0.0414 -0.3151 -1.6843
56907SOL    HW275533   9.725   2.283   1.493  0.2962 -0.8506  0.0042
56908SOL     OW75534   8.767  12.485   8.856 -0.2308 -0.4125  0.1070
56908SOL    HW175535   8.691  12.534   8.825 -0.6765 -0.7813  0.5983
56908SOL    HW275536   8.739  12.393   8.853 -0.4620 -0.4434  2.0236
56909SOL     OW75537   9.219   2.955  12.041  0.2946  0.6275  0.0135
56909SOL    HW175538   9.272   3.029  12.012  0.4061  0.5600  0.0418
56909SOL    HW275539   9.258   2.929  12.125 -1.0248  1.8643  1.0597
56910SOL     OW75540  12.565   3.270   2.786 -0.3569  0.1254 -0.5674
56910SOL    HW175541  12.493   3.288   2.726 -2.2256 -1.0003  1.1899
56910SOL    HW275542  12.630   3.224   2.733 -2.0108 -0.9987 -1.7149
56911SOL     OW75543   4.532   6.881   8.944  0.1177 -0.8653 -0.6225
56911SOL    HW175544   4.608   6.880   9.002 -0.1999  2.2860  0.0277
56911SOL    HW275545   4.545   6.806   8.886  2.7511 -1.4901  0.6163
56912SOL     OW75546   0.280   9.172   0.294 -0.0652 -0.5291 -0.1333
56912SOL    HW175547   0.193   9.205   0.314  1.0488  1.9993  1.0796
56912SOL    HW275548   0.283   9.085   0.333 -1.3057  0.2805  1.8899
56913SOL     OW75549  11.427   8.546   1.840 -0.4512  0.0933 -0.1980
56913SOL    HW175550  11.486   8.620   1.827 -1.2094  0.8498  0.5864
56913SOL    HW275551  11.353   8.565   1.782 -0.8207  0.1378  0.2896
56914SOL     OW75552   6.236   8.810   4.674  0.3285  0.8030  0.0164
56914SOL    HW175553   6.231   8.818   4.579 -0.0772 -0.8829 -0.1274
56914SOL    HW275554   6.255   8.718   4.690 -1.1566  0.7136  1.6042
56915SOL     OW75555   7.951  10.486   3.547  0.2107 -0.4677  0.5011
56915SOL    HW175556   7.993  10.532   3.619  0.2048  0.6319 -0.1599
56915SOL    HW275557   8.007  10.503   3.471 -1.2631  0.9271 -0.3697
56916SOL     OW75558   3.381  11.164  11.667  0.3233  0.0734 -0.7533
56916SOL    HW175559   3.372  11.208  11.582  1.4247  0.2316 -0.7963
56916SOL    HW275560   3.456  11.106  11.656 -0.0367 -0.5169 -0.1373
56917SOL     OW75561   9.641   6.114   5.221 -0.1785 -0.4737 -0.1713
56917SOL    HW175562   9.613   6.080   5.307  1.4779 -1.8081 -0.1149
56917SOL    HW275563   9.627   6.041   5.161  1.3379 -0.5196 -0.4868
56918SOL     OW75564   8.024   6.921  11.364 -0.2426 -0.3085 -0.0971
56918SOL    HW175565   7.965   6.993  11.387 -2.0610 -1.0103 -2.2298
56918SOL    HW275566   7.982   6.879  11.289  1.6540 -2.5294 -0.0113
56919SOL     OW75567  12.359  12.151  12.522  0.1660  0.3103  0.4169
56919SOL    HW175568  12.323  12.165  12.610  0.4036  0.5345  0.4779
56919SOL    HW275569  12.453  12.146  12.535  0.3850  2.3495 -0.0631
56920SOL     OW75570   0.963   9.031   1.062  0.6281  0.1889  0.2836
56920SOL    HW175571   0.928   9.069   0.981  1.0109  0.7059  0.3545
56920SOL    HW275572   0.912   9.071   1.132  1.3759  0.9843  0.3904
56921SOL     OW75573  10.366  12.223   8.179 -0.5556  0.0632 -0.4625
56921SOL    HW175574  10.390  12.315   8.180  0.5181 -0.1808  1.4398
56921SOL    HW275575  10.357  12.201   8.086  0.4115  1.7565 -0.9995
56922SOL     OW75576  11.163   1.855   7.432  0.0375  0.0197 -0.5488
56922SOL    HW175577  11.121   1.933   7.467  0.6762 -0.1700  0.7017
56922SOL    HW275578  11.208   1.816   7.507 -0.6896 -1.8373 -1.0094
56923SOL     OW75579  12.537   4.113   4.822 -0.0352  0.5626  0.0902
56923SOL    HW175580  12.603   4.045   4.836 -2.4232 -1.6764  1.3340
56923SOL    HW275581  12.502   4.096   4.734 -1.2940 -0.5704  0.7555
56924SOL     OW75582   8.945   8.068  11.941  0.3173 -0.0122 -0.7484
56924SOL    HW175583   8.903   7.990  11.903  0.1213 -0.8060  1.0124
56924SOL    HW275584   8.942   8.053  12.035  1.2260  1.6689 -0.4238
56925SOL     OW75585  12.064   3.587   0.798 -0.4314 -0.3193 -0.2552
56925SOL    HW175586  12.004   3.661   0.805  0.6840  0.7226 -1.2430
56925SOL    HW275587  12.142   3.614   0.846 -0.2658 -1.1386 -0.0384
56926SOL     OW75588   0.835   5.500   8.868  0.2240 -0.7492  0.1430
56926SOL    HW175589   0.884   5.418   8.874  0.5573 -0.5865 -0.3125
56926SOL    HW275590   0.879   5.559   8.929 -0.5998 -1.1882  1.1999
56927SOL     OW75591   9.108   4.658   0.139 -0.4383 -0.6159 -0.0243
56927SOL    HW175592   9.077   4.604   0.211 -0.4913 -0.5896 -0.0270
56927SOL    HW275593   9.176   4.713   0.178 -0.7072 -0.3575  0.0876
56928SOL     OW75594   0.836   0.758   5.010  0.0968 -0.6923 -0.5272
56928SOL    HW175595   0.895   0.772   5.084 -0.5835 -0.6286  0.0148
56928SOL    HW275596   0.889   0.778   4.933  0.2895  1.0936  0.0136
56929SOL     OW75597   8.638  10.409   8.231 -0.0189 -0.1711  0.3843
56929SOL    HW175598   8.715  10.456   8.197 -1.5080  1.8187 -0.4480
56929SOL    HW275599   8.573  10.477   8.245 -1.8879 -1.8670  0.3888
56930SOL     OW75600   2.860   6.520   7.111 -0.2982 -0.1627  0.3850
56930SOL    HW175601   2.850   6.613   7.134 -0.2511  0.4309 -1.8106
56930SOL    HW275602   2.946   6.496   7.147 -0.1077  0.7702  0.5767
56931SOL     OW75603   0.563   5.732   4.066 -0.0440 -0.2508  0.1230
56931SOL    HW175604   0.542   5.806   4.008 -0.5298 -0.1219  0.4614
56931SOL    HW275605   0.484   5.679   4.067 -0.8538  0.8694  2.3541
56932SOL     OW75606   3.084   0.913   2.257 -0.0828  0.0717  0.3701
56932SOL    HW175607   3.002   0.936   2.215  1.6150 -1.2429 -4.2670
56932SOL    HW275608   3.139   0.990   2.248  0.0854  0.0269  0.9456
56933SOL     OW75609  11.951   7.548  11.383 -0.0686  0.5676 -0.1987
56933SOL    HW175610  11.931   7.624  11.438  0.0581  0.3771  0.1109
56933SOL    HW275611  12.031   7.573  11.336 -0.8249  1.2018 -1.1995
56934SOL     OW75612   0.516   6.835   8.711  0.2665  0.3063 -0.1103
56934SOL    HW175613   0.491   6.805   8.798 -0.0693  0.7972 -0.0396
56934SOL    HW275614   0.513   6.930   8.716  0.9138  0.3522 -0.4623
56935SOL     OW75615   3.179   5.329   3.934 -0.3589  1.2642  0.7512
56935SOL    HW175616   3.205   5.280   4.011  0.2056  1.3325  0.6091
56935SOL    HW275617   3.086   5.307   3.921 -0.2237  0.5715  0.9344
56936SOL     OW75618  10.459  10.555   2.372 -0.8172 -0.4457  0.6828
56936SOL    HW175619  10.459  10.472   2.419 -0.4239 -0.4542  0.6672
56936SOL    HW275620  10.551  10.575   2.358 -0.9118 -0.0516  0.6074
56937SOL     OW75621   8.340   9.196   5.665  0.3776  0.6013  0.4192
56937SOL    HW175622   8.433   9.176   5.660  0.0358 -1.6798  1.7475
56937SOL    HW275623   8.308   9.143   5.738 -2.0962  0.8058 -0.4165
56938SOL     OW75624   4.183   2.188  11.296  0.0894  0.2848  0.5004
56938SOL    HW175625   4.127   2.163  11.223 -0.8301 -1.8717  1.8366
56938SOL    HW275626   4.122   2.213  11.365  0.8087 -0.4221  1.4238
56939SOL     OW75627   0.660  11.746   4.336 -0.0494  0.4157 -0.2246
56939SOL    HW175628   0.656  11.842   4.334  3.0163  0.6296 -2.0007
56939SOL    HW275629   0.606  11.717   4.263  0.5179  0.9260 -0.8577
56940SOL     OW75630   4.777   6.064   0.771 -0.5975  0.0671  0.3035
56940SOL    HW175631   4.744   6.004   0.837 -0.0637  1.2747  1.7265
56940SOL    HW275632   4.822   6.132   0.821  0.8003  0.4450 -1.3645
56941SOL     OW75633   6.134   0.308  12.479  0.1587 -0.2465  0.3245
56941SOL    HW175634   6.201   0.376  12.484 -0.8826  1.0531 -1.9287
56941SOL    HW275635   6.076   0.336  12.409  0.3356 -4.0490 -1.6350
56942SOL     OW75636   6.780  11.893   2.603  0.1993  0.0434 -0.1773
56942SOL    HW175637   6.756  11.853   2.520 -0.7192 -2.6356  1.2459
56942SOL    HW275638   6.819  11.977   2.579 -0.8543 -0.2105 -3.2231
56943SOL     OW75639   0.698  10.585   3.479 -0.0696 -0.1656  0.3992
56943SOL    HW175640   0.681  10.600   3.386  0.1876  0.2107  0.4110
56943SOL    HW275641   0.620  10.618   3.523 -0.6479 -1.2768  0.2639
56944SOL     OW75642   7.033  11.747   9.949 -0.1148  0.4371 -0.0729
56944SOL    HW175643   6.961  11.708  10.000  1.4550  0.0118  1.9656
56944SOL    HW275644   7.050  11.683   9.880 -1.7986  0.6564 -0.7517
56945SOL     OW75645   9.563   5.493   4.434 -0.4632 -0.1596 -0.2038
56945SOL    HW175646   9.469   5.500   4.417 -0.7602  1.4897  1.8036
56945SOL    HW275647   9.576   5.402   4.460 -1.6823 -0.1578  0.4643
56946SOL     OW75648  11.839   8.512   5.218 -0.5043  0.5677  0.7815
56946SOL    HW175649  11.822   8.570   5.144  2.7591  1.7200  0.7573
56946SOL    HW275650  11.831   8.567   5.296 -2.4401 -0.2773  1.2369
56947SOL     OW75651  10.591   6.693   8.124  0.3122  0.0592 -0.1066
56947SOL    HW175652  10.661   6.752   8.152  2.8414 -1.5626 -2.5137
56947SOL    HW275653  10.613   6.609   8.164 -0.7150 -0.3176 -0.3011
56948SOL     OW75654   5.565   1.273   1.957 -0.3590 -0.2070  0.7011
56948SOL    HW175655   5.539   1.230   1.875 -0.0878  0.3573  0.3148
56948SOL    HW275656   5.628   1.212   1.997 -1.4107 -1.0579  1.1006
56949SOL     OW75657   4.001   9.532   8.861  0.4088 -0.0166  0.0552
56949SOL    HW175658   4.007   9.439   8.882  0.9393 -0.2062 -0.9055
56949SOL    HW275659   3.923   9.539   8.806  0.6062  0.0373 -0.2197
56950SOL     OW75660   4.147   3.381  11.887 -0.4552 -0.3904  0.1143
56950SOL    HW175661   4.186   3.407  11.804 -1.2894 -0.0647 -0.1836
56950SOL    HW275662   4.218   3.391  11.951 -0.5652  2.1247 -0.0585
56951SOL     OW75663   9.830   6.142   3.871  0.5732  0.9667  0.0451
56951SOL    HW175664   9.751   6.180   3.832  0.5143  0.3553 -0.4382
56951SOL    HW275665   9.895   6.144   3.802  1.7455  3.6294  1.0994
56952SOL     OW75666   5.672   3.043   6.692  0.5914  0.0366 -0.0223
56952SOL    HW175667   5.733   3.020   6.622  0.5256  0.1034 -0.1011
56952SOL    HW275668   5.656   3.137   6.680  1.9192  0.4502  1.1062
56953SOL     OW75669   6.985  11.849   7.179 -0.2690  0.0673  0.3800
56953SOL    HW175670   6.927  11.795   7.232  0.2884 -0.0728  0.8489
56953SOL    HW275671   7.071  11.843   7.221 -0.1939  1.3456  0.4691
56954SOL     OW75672   9.386   7.239   4.322  0.0467  0.1669  0.1123
56954SOL    HW175673   9.438   7.245   4.242  0.2428  1.1590  0.3042
56954SOL    HW275674   9.430   7.298   4.384 -0.4112 -0.1762  0.7810
56955SOL     OW75675  10.063   3.041   0.575  0.1354 -0.5462  0.0766
56955SOL    HW175676  10.029   3.109   0.516  1.4651 -1.4115 -1.7829
56955SOL    HW275677   9.985   2.991   0.600 -0.5271  0.0680 -0.6668
56956SOL     OW75678   1.238  10.049   4.997  0.5391  0.4403  0.2247
56956SOL    HW175679   1.206   9.966   4.962  0.0216  1.7805 -2.8202
56956SOL    HW275680   1.333  10.045   4.987  0.8997 -0.9100  3.0730
56957SOL     OW75681  10.668   3.173  10.595  0.3435  0.0912  0.0744
56957SOL    HW175682  10.734   3.242  10.604  1.1816 -0.4204 -1.7625
56957SOL    HW275683  10.604   3.209  10.533  0.3041 -0.4372 -0.1899
56958SOL     OW75684   3.955   9.753   5.401 -0.4423 -0.2823  0.4348
56958SOL    HW175685   3.984   9.724   5.315 -1.1709  1.1632 -0.3361
56958SOL    HW275686   3.862   9.732   5.404 -0.3610 -0.5895  0.9928
56959SOL     OW75687   4.693   6.590   9.805  0.3558  0.0373 -0.6054
56959SOL    HW175688   4.742   6.666   9.773  0.0641 -0.0654 -1.3257
56959SOL    HW275689   4.626   6.576   9.739  0.6589 -1.1005 -0.6937
56960SOL     OW75690  11.566   6.989   7.077 -0.2093 -0.0287 -0.9524
56960SOL    HW175691  11.559   6.905   7.122  0.6565  0.6588  0.5732
56960SOL    HW275692  11.591   6.967   6.988 -2.3466 -1.4708 -1.2593
56961SOL     OW75693  11.045   8.489   4.618  0.0650  0.1404 -0.0734
56961SOL    HW175694  11.122   8.532   4.582  0.0969  0.6380  0.5649
56961SOL    HW275695  11.078   8.438   4.692 -0.3264  1.1395  0.8298
56962SOL     OW75696   1.519   4.093   1.104 -0.1723  0.7070  0.1737
56962SOL    HW175697   1.559   4.146   1.174  0.9330 -0.3311  0.3535
56962SOL    HW275698   1.442   4.054   1.146 -0.1833  1.0369  0.4680
56963SOL     OW75699   8.820   5.999   5.838  0.4225  0.1759 -0.2902
56963SOL    HW175700   8.844   5.935   5.905  0.0971  0.1397 -0.2042
56963SOL    HW275701   8.828   5.951   5.755 -3.1152 -1.1210 -0.0723
56964SOL     OW75702  10.400   3.158   8.024 -0.0208  0.1073 -0.4321
56964SOL    HW175703  10.381   3.074   8.064 -2.4092  0.4379 -0.7061
56964SOL    HW275704  10.375   3.222   8.091 -0.4744  0.6080 -1.0694
56965SOL     OW75705  11.410   2.001   5.344 -0.1890 -0.2035 -0.1486
56965SOL    HW175706  11.323   1.964   5.360 -1.1411  1.6639 -0.6364
56965SOL    HW275707  11.433   2.043   5.427 -0.0998 -0.0668 -0.2425
56966SOL     OW75708  12.124   4.046   6.153 -0.1989  0.3276  0.2522
56966SOL    HW175709  12.144   4.026   6.244 -1.0394 -0.1843  0.3389
56966SOL    HW275710  12.209   4.054   6.110  0.1947  0.2183  1.0087
56967SOL     OW75711   5.771   0.956  11.773 -0.0738  0.5533 -0.3310
56967SOL    HW175712   5.740   1.032  11.823 -0.2089 -0.2590  0.8749
56967SOL    HW275713   5.847   0.988  11.725  1.4890  0.8815  2.1590
56968SOL     OW75714   3.213   4.342  10.117  0.1245 -0.4575 -0.2859
56968SOL    HW175715   3.256   4.261  10.143  1.6285  0.2322 -0.5237
56968SOL    HW275716   3.224   4.401  10.191  0.7740  0.1595 -0.8562
56969SOL     OW75717   7.940   9.937   3.997  0.3143 -0.3181 -0.8765
56969SOL    HW175718   8.015   9.967   3.946  1.2336  0.6689  0.9790
56969SOL    HW275719   7.876  10.008   3.991  0.7735  0.1798  0.0357
56970SOL     OW75720   7.047   9.914   7.253 -0.2891  0.2361  0.6716
56970SOL    HW175721   7.073   9.914   7.345 -0.6571  0.3044  0.7783
56970SOL    HW275722   7.056   9.823   7.225 -2.2131 -0.2230  1.3747
56971SOL     OW75723   0.327   5.940  11.291  0.1759 -0.1810 -0.1620
56971SOL    HW175724   0.232   5.934  11.305  0.1387  1.4705  0.5006
56971SOL    HW275725   0.356   6.009  11.351  1.4703  0.7842 -1.8224
56972SOL     OW75726   9.752  10.937   6.042 -0.1944 -0.5373  0.3650
56972SOL    HW175727   9.660  10.953   6.019 -0.8662 -1.5086  2.1899
56972SOL    HW275728   9.753  10.846   6.072  1.2656 -0.3542  0.9216
56973SOL     OW75729   1.066   0.890   6.056  0.7391 -0.7883 -0.7966
56973SOL    HW175730   1.044   0.797   6.054  0.4998 -0.8782  2.0451
56973SOL    HW275731   1.143   0.896   6.111  0.8578  0.6998 -1.0694
56974SOL     OW75732   4.730   9.331   9.400  0.0771 -0.3800  0.7156
56974SOL    HW175733   4.667   9.267   9.366 -0.3530  0.5519 -0.3029
56974SOL    HW275734   4.760   9.294   9.483 -1.1774 -1.2493  0.8022
56975SOL     OW75735  11.657  10.956   7.110 -0.0491 -0.0012  0.1939
56975SOL    HW175736  11.632  11.015   7.181 -0.8791 -0.2049  0.0789
56975SOL    HW275737  11.642  11.006   7.030 -0.8214 -0.3743  0.0922
56976SOL     OW75738  12.549   5.622   4.892 -0.5698 -0.6919  1.1272
56976SOL    HW175739  12.564   5.577   4.808 -0.5700  2.1021 -0.4807
56976SOL    HW275740  12.628   5.603   4.943  0.6199 -0.3875 -0.5100
56977SOL     OW75741   5.174   1.851   4.717 -0.3063  0.3314 -0.6764
56977SOL    HW175742   5.166   1.780   4.780 -0.5651  1.2109  0.3075
56977SOL    HW275743   5.168   1.931   4.769  0.7292  1.0933 -1.6559
56978SOL     OW75744   7.053   3.709  10.661 -0.7102 -0.5312 -0.0536
56978SOL    HW175745   6.990   3.666  10.603 -0.8745 -0.5046  0.1033
56978SOL    HW275746   7.126   3.733  10.604 -0.5218 -1.1999 -0.1152
56979SOL     OW75747   2.507  11.315  10.621 -0.3134 -0.4017  0.1806
56979SOL    HW175748   2.493  11.331  10.714  1.3181  3.1632 -0.0469
56979SOL    HW275749   2.459  11.384  10.576  0.1582 -1.1318 -1.5664
56980SOL     OW75750   9.783  11.002  12.278 -0.0500  0.5050  0.0196
56980SOL    HW175751   9.744  11.047  12.202  0.3104  1.9747  0.6670
56980SOL    HW275752   9.815  11.073  12.334 -1.5378 -0.4478  2.2441
56981SOL     OW75753   5.774   5.316  10.515  0.4909  0.2415 -0.1691
56981SOL    HW175754   5.790   5.334  10.423 -0.4288 -1.9467 -0.8382
56981SOL    HW275755   5.860   5.319  10.556  0.9294  1.1076 -1.1100
56982SOL     OW75756   2.519   6.350   4.110 -0.0107 -0.5809  0.4959
56982SOL    HW175757   2.436   6.309   4.085  0.0267  0.0262 -0.6972
56982SOL    HW275758   2.571   6.350   4.029  0.0709  1.6045  0.4983
56983SOL     OW75759  10.938  11.908   3.413  0.0016  0.2505 -0.0109
56983SOL    HW175760  10.911  11.862   3.493 -0.9004 -1.1034 -1.0465
56983SOL    HW275761  10.972  11.839   3.356 -0.6637  0.9776 -1.3340
56984SOL     OW75762   9.606   7.827  11.257 -0.4085 -0.3151  0.4787
56984SOL    HW175763   9.657   7.798  11.181  2.1696  0.6047  1.7492
56984SOL    HW275764   9.568   7.746  11.292  0.4844 -1.1037 -0.3005
56985SOL     OW75765  11.500   1.433   5.284 -0.2780 -0.4400 -0.0971
56985SOL    HW175766  11.454   1.461   5.364  1.5576  0.7459  0.6122
56985SOL    HW275767  11.572   1.380   5.316 -1.2484 -2.5280 -1.2136
56986SOL     OW75768   0.918   6.706   3.937 -0.2843 -0.3373 -0.0276
56986SOL    HW175769   0.991   6.645   3.952 -1.7996 -2.1278  0.4668
56986SOL    HW275770   0.853   6.654   3.890 -2.0502  0.6058  1.2757
56987SOL     OW75771   4.713   2.567   5.381 -0.2141  0.7524  0.2993
56987SOL    HW175772   4.634   2.530   5.419 -1.5201  2.3519 -0.6889
56987SOL    HW275773   4.726   2.518   5.299  0.7790 -0.5653  1.2010
56988SOL     OW75774   8.951   0.900   3.330  0.2135 -0.2334  0.5786
56988SOL    HW175775   8.955   0.901   3.235 -1.9180  2.2257  0.3921
56988SOL    HW275776   9.040   0.919   3.359  0.4113  1.5269 -1.0422
56989SOL     OW75777  10.277   3.759   6.864  0.5096 -0.2441  0.2806
56989SOL    HW175778  10.307   3.745   6.774  1.7127 -1.7137  0.8714
56989SOL    HW275779  10.322   3.692   6.915  1.6839  1.9481  2.3545
56990SOL     OW75780   4.758   9.687  11.302 -0.2427  0.7333  0.3658
56990SOL    HW175781   4.836   9.633  11.290 -0.3348  1.0007 -1.8323
56990SOL    HW275782   4.731   9.670  11.393  0.7545 -1.5033  0.3149
56991SOL     OW75783   3.536   0.917   6.315 -0.1116  0.5147 -0.3942
56991SOL    HW175784   3.582   0.997   6.342  0.9948 -0.1528 -0.2205
56991SOL    HW275785   3.582   0.890   6.236 -1.2296  0.6683 -1.1094
56992SOL     OW75786   7.777   7.181   5.657 -0.2367 -0.0032 -0.1053
56992SOL    HW175787   7.781   7.242   5.583 -1.0268 -1.0976 -1.0862
56992SOL    HW275788   7.797   7.234   5.734  0.7419  1.1338 -1.1227
56993SOL     OW75789   6.524   5.713   1.903  0.5920 -0.4358  0.4899
56993SOL    HW175790   6.437   5.691   1.870  0.9424 -3.1075  1.0947
56993SOL    HW275791   6.509   5.786   1.964 -0.9875  0.0949 -0.4780
56994SOL     OW75792   3.229   2.559   6.358 -0.0356  0.4312  0.2866
56994SOL    HW175793   3.196   2.633   6.410 -0.5650 -0.6923  1.5908
56994SOL    HW275794   3.322   2.556   6.379 -0.0185  0.6947  0.2608
56995SOL     OW75795   5.443   7.923   7.403 -0.1835  0.0868 -0.2782
56995SOL    HW175796   5.391   7.843   7.392  1.8857 -1.6874  1.8454
56995SOL    HW275797   5.420   7.955   7.490  0.9130  0.3072 -0.0582
56996SOL     OW75798   4.448   2.365   6.620 -0.0464 -0.1588 -0.3048
56996SOL    HW175799   4.521   2.407   6.574  0.4751 -0.6322  0.0704
56996SOL    HW275800   4.393   2.329   6.551  1.0463 -1.3905 -0.5765
56997SOL     OW75801   8.808  10.344   1.412  0.8179 -0.5065  0.2342
56997SOL    HW175802   8.800  10.438   1.431  1.4240 -0.3579 -0.2334
56997SOL    HW275803   8.820  10.304   1.498 -1.3621 -0.3908  0.6641
56998SOL     OW75804  10.152   7.545   9.926 -0.5521  0.0855  0.0875
56998SOL    HW175805  10.121   7.616   9.983 -0.5964 -0.0830  0.2756
56998SOL    HW275806  10.228   7.582   9.880  1.0715 -0.5318  2.0935
56999SOL     OW75807   6.391   2.796   1.671  0.5196 -0.1010 -0.0761
56999SOL    HW175808   6.322   2.856   1.642  0.1043 -0.8816 -0.7535
56999SOL    HW275809   6.377   2.788   1.766 -1.2025 -1.2898 -0.3816
57000SOL     OW75810   3.551   2.270   4.845 -0.1124  0.3287 -0.1540
57000SOL    HW175811   3.643   2.294   4.853  0.2450 -1.0428  0.0910
57000SOL    HW275812   3.522   2.255   4.935 -0.3521 -0.0213 -0.2864
57001SOL     OW75813   8.100   3.683   5.480  0.4098 -0.3015 -0.3275
57001SOL    HW175814   8.111   3.779   5.483 -0.9602 -0.0867 -1.3501
57001SOL    HW275815   8.092   3.657   5.572  2.0575  0.3727  0.0539
57002SOL     OW75816   5.464   4.725   2.359  1.0904 -0.0664  0.4591
57002SOL    HW175817   5.544   4.690   2.321  1.3576  2.0752 -1.1332
57002SOL    HW275818   5.478   4.720   2.454  1.6312 -2.8412  0.3267
57003SOL     OW75819  10.992   5.669   2.051 -0.3083  0.1433  0.1736
57003SOL    HW175820  10.922   5.603   2.052  1.1462 -1.4679 -0.2710
57003SOL    HW275821  10.951   5.747   2.015 -2.3701 -0.1616  1.6747
57004SOL     OW75822   3.790   6.772   9.472 -0.4629 -0.5540 -0.2837
57004SOL    HW175823   3.770   6.711   9.400  0.4101 -0.8954 -0.2534
57004SOL    HW275824   3.797   6.716   9.549 -0.3700 -0.3280 -0.1273
57005SOL     OW75825   3.368   7.009  11.185 -0.3922  0.7261 -0.2018
57005SOL    HW175826   3.456   7.047  11.186  0.5734 -1.3778  0.5942
57005SOL    HW275827   3.313   7.077  11.145  2.1510  0.8544 -3.9532
57006SOL     OW75828  10.241   8.871   5.838 -0.4813  0.1029 -0.3918
57006SOL    HW175829  10.162   8.924   5.853 -0.0488  0.5524  0.3640
57006SOL    HW275830  10.302   8.932   5.796  0.1274  0.3126  0.7599
57007SOL     OW75831   9.838   8.763   4.371 -0.0728 -0.0253 -0.5268
57007SOL    HW175832   9.853   8.853   4.398 -1.6072 -0.1670  1.0153
57007SOL    HW275833   9.750   8.743   4.405  0.4282 -2.2443 -0.4084
57008SOL     OW75834   3.836  10.797  10.825 -0.0236 -0.2787 -0.0368
57008SOL    HW175835   3.918  10.813  10.778 -1.4239  0.7825 -2.2895
57008SOL    HW275836   3.830  10.702  10.831  0.2311 -0.4722 -2.0940
57009SOL     OW75837   4.425   3.086  11.502 -0.0117 -0.4476  0.4966
57009SOL    HW175838   4.444   3.146  11.574  0.5771  1.6896 -1.3602
57009SOL    HW275839   4.482   3.011  11.519  0.6061  0.2838  1.8890
57010SOL     OW75840   5.840  11.986  12.208  0.2206 -0.0202 -0.6499
57010SOL    HW175841   5.916  12.045  12.205 -0.4663  0.8835 -0.6099
57010SOL    HW275842   5.869  11.908  12.160  1.1324  0.3576 -0.7428
57011SOL     OW75843   2.184  12.065  10.332  0.6006  0.0872 -0.0517
57011SOL    HW175844   2.103  12.068  10.384  1.0421 -1.9177  0.8826
57011SOL    HW275845   2.158  12.025  10.249  0.3930  0.7007 -0.2831
57012SOL     OW75846   1.348   7.993  11.976  0.7871  0.3427 -0.3046
57012SOL    HW175847   1.313   7.949  11.898  2.3510 -0.4542 -0.5952
57012SOL    HW275848   1.284   8.061  11.996  0.4307  0.6806 -2.4034
57013SOL     OW75849  12.157   9.068   7.477  0.3782  0.3922 -0.2237
57013SOL    HW175850  12.253   9.066   7.478  0.3993  0.5580 -1.4972
57013SOL    HW275851  12.132   8.983   7.441  0.0049 -0.0777  1.0808
57014SOL     OW75852  11.231   8.013  12.213  0.0615 -0.1780 -0.2864
57014SOL    HW175853  11.238   8.091  12.269 -1.0666 -0.2800  0.0265
57014SOL    HW275854  11.137   8.001  12.201  0.2631 -0.6560 -1.5263
57015SOL     OW75855   4.231   5.792   4.897 -0.4219  0.0718  0.1274
57015SOL    HW175856   4.272   5.739   4.829  0.3694 -2.0766  2.1469
57015SOL    HW275857   4.157   5.835   4.853 -0.0586 -1.3585 -2.0129
57016SOL     OW75858   3.837   3.719   0.223 -0.1514 -0.1454 -0.0952
57016SOL    HW175859   3.858   3.625   0.232 -0.7678 -0.5448 -2.2856
57016SOL    HW275860   3.746   3.726   0.251 -0.7421 -0.6013 -1.8130
57017SOL     OW75861   3.949   4.340   6.080  0.3150  1.0303 -0.2742
57017SOL    HW175862   3.933   4.361   5.988  0.9021 -0.1887 -0.6861
57017SOL    HW275863   4.038   4.305   6.081 -0.0299  0.1142  0.5879
57018SOL     OW75864   0.675   0.056  12.218 -0.5284 -0.3756 -0.3267
57018SOL    HW175865   0.684   0.061  12.313 -1.4530 -2.4796 -0.0817
57018SOL    HW275866   0.747   0.110  12.185 -0.8838  1.3616  1.5351
57019SOL     OW75867   0.358   0.303   9.744 -0.0154 -0.1444  0.2218
57019SOL    HW175868   0.450   0.322   9.763 -0.4380  2.7500 -0.0744
57019SOL    HW275869   0.360   0.255   9.661  1.2580 -1.8889  1.1908
57020SOL     OW75870   8.854   8.593   7.916  0.3521  0.8624  0.1174
57020SOL    HW175871   8.918   8.662   7.933  2.2454 -0.7159 -0.1856
57020SOL    HW275872   8.872   8.566   7.826 -2.6555  2.1900 -1.0240
57021SOL     OW75873   0.063   3.115   8.120  0.5832 -0.0955 -0.3257
57021SOL    HW175874   0.024   3.040   8.074 -2.2100  0.7169  0.5091
57021SOL    HW275875   0.052   3.188   8.060  2.8546 -0.2027 -0.9328
57022SOL     OW75876   1.735   7.949   6.182  0.0755 -0.0783  0.0574
57022SOL    HW175877   1.681   8.011   6.133  1.4761  2.2662  1.2928
57022SOL    HW275878   1.823   7.987   6.178  1.2054 -2.5198  0.1035
57023SOL     OW75879   5.194   2.572   1.197 -0.0117 -0.3594 -0.4099
57023SOL    HW175880   5.216   2.655   1.155 -2.1267  0.9947  0.9815
57023SOL    HW275881   5.193   2.508   1.125 -0.7255  1.3056 -1.9605
57024SOL     OW75882   2.368   6.106   0.838 -0.0271  0.3917 -0.0576
57024SOL    HW175883   2.445   6.163   0.834 -1.2786  2.4047  2.1998
57024SOL    HW275884   2.402   6.021   0.867  1.4779  0.8392 -0.4340
57025SOL     OW75885   5.121  10.981   1.895 -0.1034  0.2870  0.0969
57025SOL    HW175886   5.154  10.993   1.806  1.1822 -1.0063  0.3594
57025SOL    HW275887   5.194  11.009   1.951 -0.8559  0.9823  0.7495
57026SOL     OW75888   6.048   3.924   8.286  0.3334 -0.0762 -0.2009
57026SOL    HW175889   6.036   3.873   8.206  0.3953  0.6300 -0.6693
57026SOL    HW275890   6.052   4.015   8.257  0.2453  0.2045  0.6169
57027SOL     OW75891   3.457   5.306   8.631 -0.3418 -0.1634  0.1268
57027SOL    HW175892   3.491   5.339   8.714  0.2698 -1.7492  0.5526
57027SOL    HW275893   3.471   5.377   8.569 -1.3163  1.2758  1.4681
57028SOL     OW75894   7.057   5.517  11.435  0.1628  0.0229 -0.0579
57028SOL    HW175895   7.020   5.465  11.505 -1.4006 -1.0350 -1.5827
57028SOL    HW275896   7.126   5.463  11.398 -0.1751 -0.1713 -0.4157
57029SOL     OW75897   7.006   6.562   9.409  0.0377  0.3334 -0.1230
57029SOL    HW175898   6.976   6.652   9.415 -1.4223 -0.2321  1.9914
57029SOL    HW275899   6.972   6.519   9.487 -0.5466 -2.4186 -1.7293
57030SOL     OW75900  11.485  11.795   4.670  0.0523  0.1300  0.4928
57030SOL    HW175901  11.477  11.748   4.587 -3.0497  2.2346 -0.5999
57030SOL    HW275902  11.565  11.846   4.662 -0.8860  1.3823 -1.9264
57031SOL     OW75903   5.500  11.249  12.169 -0.1043  0.2195  0.0592
57031SOL    HW175904   5.404  11.254  12.164 -0.4045 -2.3704  1.3111
57031SOL    HW275905   5.523  11.294  12.250 -0.1290  1.7007 -0.7359
57032SOL     OW75906   0.392  10.828  11.901 -0.8125  0.0886 -0.1784
57032SOL    HW175907   0.416  10.919  11.918 -1.5501  0.1036  0.8657
57032SOL    HW275908   0.466  10.777  11.934 -1.7899  0.1704  2.3289
57033SOL     OW75909  10.978   0.065   4.009  0.0398  0.2337  0.3854
57033SOL    HW175910  10.944   0.143   3.967 -1.6157  0.2604  1.6474
57033SOL    HW275911  10.986   0.090   4.101  1.0385 -0.5969  0.5328
57034SOL     OW75912   1.365   6.653  12.615 -0.6307 -0.3882  0.0657
57034SOL    HW175913   1.330   6.643  12.704 -0.4829  3.3046  0.7291
57034SOL    HW275914   1.460   6.656  12.628 -0.5609 -0.7351 -0.3588
57035SOL     OW75915   5.149   8.601   5.292 -0.7542  0.3787  0.4650
57035SOL    HW175916   5.147   8.604   5.196  2.2793  1.9693  0.3239
57035SOL    HW275917   5.096   8.676   5.319 -1.4420  0.0547  0.0480
57036SOL     OW75918   0.654  12.284   7.664  0.2072 -0.2950 -0.3903
57036SOL    HW175919   0.712  12.209   7.678  1.3766  0.6597  0.0124
57036SOL    HW275920   0.600  12.287   7.744  0.8206 -0.1402  0.0262
57037SOL     OW75921   8.285   8.939   8.825  0.4095 -0.0337 -0.0291
57037SOL    HW175922   8.266   8.847   8.810 -1.5688  0.5950 -1.9330
57037SOL    HW275923   8.202   8.976   8.856  0.9233  1.2494 -0.1377
57038SOL     OW75924   1.133   8.081   0.231 -0.1882 -0.1989 -0.5353
57038SOL    HW175925   1.162   8.125   0.151  0.9297  2.7921  1.3210
57038SOL    HW275926   1.206   8.024   0.254  2.1961  3.1480  1.1359
57039SOL     OW75927   4.379   2.175   3.494  0.2910 -0.1167 -0.2826
57039SOL    HW175928   4.318   2.247   3.479  1.0508  0.4562 -0.7136
57039SOL    HW275929   4.380   2.126   3.411  0.0997 -0.3742 -0.1344
57040SOL     OW75930   6.613   4.818  10.100 -0.2452  0.1890  0.5003
57040SOL    HW175931   6.694   4.844  10.143 -0.5897  1.3790  0.4746
57040SOL    HW275932   6.592   4.892  10.043 -0.0930 -1.1096 -1.3105
57041SOL     OW75933   1.667  12.104   3.475 -0.0569  0.1329 -0.1626
57041SOL    HW175934   1.671  12.010   3.457  2.6522  0.3077 -0.8742
57041SOL    HW275935   1.666  12.110   3.570  1.4661 -0.6441 -0.0611
57042SOL     OW75936   4.562   0.045  12.251  0.4673  0.1227  0.0362
57042SOL    HW175937   4.611  -0.024  12.297 -0.0692 -0.4958 -0.3057
57042SOL    HW275938   4.630   0.106  12.222  1.0045 -0.5242 -0.1026
57043SOL     OW75939   4.163  10.980   4.323 -0.8133  0.5899  0.3049
57043SOL    HW175940   4.124  10.918   4.384 -2.6454  0.4932 -0.8935
57043SOL    HW275941   4.201  10.925   4.253 -0.4041  0.7610  0.3855
57044SOL     OW75942   5.475   1.094   4.464 -0.2383 -0.1430  0.3089
57044SOL    HW175943   5.554   1.100   4.518 -0.4197  0.1479  0.5427
57044SOL    HW275944   5.497   1.141   4.384  0.1989 -0.9871 -0.0765
57045SOL     OW75945   2.929   7.061   4.772  0.4365  0.8961 -0.2339
57045SOL    HW175946   2.863   7.075   4.705  0.6781  0.7195 -0.5104
57045SOL    HW275947   2.912   7.128   4.838 -1.1284 -0.2300  0.5655
57046SOL     OW75948   9.194   0.206  10.564 -0.0084  0.3194  0.1541
57046SOL    HW175949   9.245   0.157  10.629  0.7759  0.1916 -0.5489
57046SOL    HW275950   9.258   0.233  10.499 -0.7158  0.8553 -0.3274
57047SOL     OW75951   7.532   0.565  12.200 -0.2902 -0.4250  0.1709
57047SOL    HW175952   7.481   0.637  12.236  0.8223 -0.2490  1.4726
57047SOL    HW275953   7.519   0.572  12.105  0.2121  1.8316  0.2044
57048SOL     OW75954   9.975   5.030   3.598 -0.1415  0.1081  0.9219
57048SOL    HW175955  10.060   5.020   3.555 -0.6289 -0.8277  0.1262
57048SOL    HW275956   9.996   5.055   3.688  0.9218  1.7641  0.2704
57049SOL     OW75957  11.326   1.628   3.088 -0.7804  0.0316 -0.3352
57049SOL    HW175958  11.336   1.589   3.175 -1.2549 -1.2375 -0.8189
57049SOL    HW275959  11.247   1.681   3.094  0.3682  1.7323  0.5929
57050SOL     OW75960   7.545  11.646   9.858  0.7727  0.3268  0.5440
57050SOL    HW175961   7.579  11.577   9.801  0.8730 -0.2390  1.2820
57050SOL    HW275962   7.489  11.698   9.801 -1.8142 -2.1637  0.6254
57051SOL     OW75963   6.797   1.525   8.178  0.2301 -0.0329  0.5918
57051SOL    HW175964   6.777   1.456   8.241  1.6627 -0.2793  0.8175
57051SOL    HW275965   6.891   1.515   8.160  0.0969  0.7664 -0.6958
57052SOL     OW75966   4.383  11.742   7.968  0.3967 -0.2189  0.4213
57052SOL    HW175967   4.447  11.809   7.994 -0.9365  0.9546  0.8196
57052SOL    HW275968   4.421  11.701   7.890  1.4509  0.7156  0.4240
57053SOL     OW75969   2.737   0.654   6.659  0.5983  0.2129 -0.1989
57053SOL    HW175970   2.787   0.574   6.647  0.9058  0.2666  0.6715
57053SOL    HW275971   2.800   0.725   6.643  0.6808  0.2786  0.3925
57054SOL     OW75972   5.715   2.847   2.911 -0.0456 -0.0981  0.0449
57054SOL    HW175973   5.805   2.857   2.943 -0.6744  2.1838  1.3654
57054SOL    HW275974   5.675   2.932   2.927 -2.2248 -0.8004 -1.2973
57055SOL     OW75975   8.893  11.989  12.642  0.1814  0.1480 -0.0022
57055SOL    HW175976   8.980  11.958  12.618 -0.6437 -0.7654 -2.0087
57055SOL    HW275977   8.909  12.064  12.699  2.2571 -0.4972  0.3443
57056SOL     OW75978   8.410   7.220   5.408 -0.6227 -0.5416 -0.6501
57056SOL    HW175979   8.446   7.216   5.496  1.6993 -1.8720 -1.5856
57056SOL    HW275980   8.351   7.145   5.402  0.8797 -1.7382 -0.8709
57057SOL     OW75981  11.006   0.725  10.371 -0.6445 -0.0544 -0.2594
57057SOL    HW175982  11.000   0.684  10.285  0.7995  0.4317 -0.6155
57057SOL    HW275983  11.097   0.754  10.378 -1.2737  1.9593  0.4772
57058SOL     OW75984   3.726   1.099   1.894 -0.1528 -0.2542  0.4695
57058SOL    HW175985   3.729   1.063   1.983 -0.2112 -0.4897  0.3789
57058SOL    HW275986   3.654   1.162   1.896  0.0223 -0.0587  0.6611
57059SOL     OW75987  10.672   6.191   3.701  0.1336  0.2980 -0.1618
57059SOL    HW175988  10.581   6.164   3.692  0.1337 -0.2659  1.2499
57059SOL    HW275989  10.698   6.218   3.613 -0.9352 -0.9938 -0.9092
57060SOL     OW75990   3.209   8.890   3.903  0.6641  0.3338  0.1106
57060SOL    HW175991   3.242   8.979   3.907 -3.2830  2.1007 -1.5259
57060SOL    HW275992   3.188   8.876   3.811 -4.5893  0.3162  1.0147
57061SOL     OW75993   0.151   8.796   0.334 -0.4072  0.0528 -0.3829
57061SOL    HW175994   0.093   8.725   0.363 -0.4151 -0.1660 -0.9265
57061SOL    HW275995   0.178   8.770   0.246  1.3384 -0.3650  0.2382
57062SOL     OW75996   8.587  12.464   1.690  0.0618 -0.1726  0.5152
57062SOL    HW175997   8.593  12.450   1.595 -2.7236 -0.7538  0.3594
57062SOL    HW275998   8.557  12.554   1.699  1.3157  0.2367  0.9482
57063SOL     OW75999   3.804  10.132   5.245 -0.0190  0.7126  0.0930
57063SOL    HW176000   3.874  10.086   5.200 -0.5615  0.4560 -0.5134
57063SOL    HW276001   3.778  10.201   5.184 -0.5760  0.5317  0.1188
57064SOL     OW76002  10.643  11.992   6.338  0.2270 -0.0289  1.2720
57064SOL    HW176003  10.699  11.953   6.406  1.6494 -0.4543 -0.0969
57064SOL    HW276004  10.577  11.925   6.319  0.8351 -0.5691  1.0597
57065SOL     OW76005   1.070  11.835   5.981  0.4225  0.4276  0.1643
57065SOL    HW176006   1.071  11.740   5.972  1.1126  0.2156  2.0625
57065SOL    HW276007   0.978  11.858   5.994 -0.2518  0.4682 -3.5938
57066SOL     OW76008   6.311   7.005  10.767 -0.2164 -0.7061  0.1445
57066SOL    HW176009   6.341   7.094  10.787 -0.9916 -0.3644 -0.1939
57066SOL    HW276010   6.359   6.981  10.688  0.0379 -0.6105  0.2679
57067SOL     OW76011   8.131  10.806  11.692 -0.1365 -0.3372 -0.0390
57067SOL    HW176012   8.203  10.841  11.640 -1.3355  1.9826 -0.2508
57067SOL    HW276013   8.059  10.796  11.631 -0.6565 -0.5093  0.5872
57068SOL     OW76014   3.966   2.484  12.251  0.3092 -0.1646  0.1513
57068SOL    HW176015   4.028   2.551  12.222  1.4914 -1.1241  0.3582
57068SOL    HW276016   3.979   2.478  12.346  1.1459 -1.5381 -0.0215
57069SOL     OW76017   9.458  11.979   4.556  0.2850 -0.1804  0.2708
57069SOL    HW176018   9.522  11.926   4.508  1.0022  1.4945 -0.7236
57069SOL    HW276019   9.477  12.069   4.530 -1.4890  0.5098  1.1677
57070SOL     OW76020   7.660  11.749  10.278 -0.0875 -0.2332 -0.3638
57070SOL    HW176021   7.702  11.784  10.200  0.4279 -0.9655 -0.4233
57070SOL    HW276022   7.585  11.699  10.245  1.5995 -2.7584 -0.6534
57071SOL     OW76023   4.906   1.889   4.525 -0.1338 -0.0259 -0.0901
57071SOL    HW176024   4.869   1.977   4.520 -1.5914 -0.5702  0.3364
57071SOL    HW276025   4.981   1.898   4.583 -0.1761  0.9643 -0.1657
57072SOL     OW76026   9.108   6.140   6.001  0.3728  0.4288  0.1803
57072SOL    HW176027   9.164   6.105   5.932  1.7905  0.2164  1.3695
57072SOL    HW276028   9.100   6.233   5.981  1.7160  0.5943  0.3138
57073SOL     OW76029   6.753   0.611   6.132  0.0447  0.2080 -0.1222
57073SOL    HW176030   6.722   0.547   6.067  1.8191 -1.1496  0.2779
57073SOL    HW276031   6.742   0.696   6.089 -0.7877 -0.4849 -1.3625
57074SOL     OW76032   7.458   2.728   1.898  0.2162  0.2179 -0.3623
57074SOL    HW176033   7.523   2.686   1.954 -0.9726  1.1530  1.8240
57074SOL    HW276034   7.503   2.805   1.863  0.3486  0.8356  1.0960
57075SOL     OW76035   2.148   1.276   9.608  0.1392 -0.2407 -0.1947
57075SOL    HW176036   2.139   1.263   9.702  1.6386  4.7503  0.9423
57075SOL    HW276037   2.068   1.321   9.582 -0.4106 -1.8475 -1.5102
57076SOL     OW76038   0.855   0.045  11.657 -0.4197  0.5296 -0.3699
57076SOL    HW176039   0.897   0.125  11.627  0.9125  0.8457  2.0792
57076SOL    HW276040   0.847   0.056  11.752 -0.5876 -2.0442 -0.0115
57077SOL     OW76041   3.993   7.111  11.746 -0.7259 -0.2751 -0.0055
57077SOL    HW176042   4.061   7.048  11.722 -2.4696 -1.2174 -2.9585
57077SOL    HW276043   3.936   7.062  11.805 -0.8299 -0.7203 -0.4674
57078SOL     OW76044   5.413  11.534   6.817 -0.0837  0.8650  0.0529
57078SOL    HW176045   5.480  11.467   6.800 -0.8611  0.0031  0.3118
57078SOL    HW276046   5.336  11.504   6.769 -0.5566  1.3800  0.4788
57079SOL     OW76047   4.296   9.309   7.588 -0.4237 -0.7224  0.4464
57079SOL    HW176048   4.303   9.219   7.621  0.1918  0.2447  3.1885
57079SOL    HW276049   4.363   9.357   7.635  0.2378  0.9626 -2.0161
57080SOL     OW76050   4.177  11.774   7.094 -0.2461  0.4324  0.1549
57080SOL    HW176051   4.189  11.812   7.181 -1.9418 -0.2118  0.7093
57080SOL    HW276052   4.188  11.848   7.034  0.2204  1.0295  0.9523
57081SOL     OW76053  11.206   5.664   7.254 -0.3920  0.2342  0.2891
57081SOL    HW176054  11.190   5.670   7.348 -1.6764  0.2166  0.0839
57081SOL    HW276055  11.159   5.739   7.217  0.8229  0.7468 -0.2674
57082SOL     OW76056   9.518   0.773   9.182 -0.3541  0.1230  0.0173
57082SOL    HW176057   9.468   0.775   9.101 -1.7898  1.5017  0.8727
57082SOL    HW276058   9.605   0.805   9.158 -1.2344  2.1149 -0.7135
57083SOL     OW76059   7.950   4.928   8.911 -0.0737 -0.2234  0.5375
57083SOL    HW176060   7.931   4.979   8.990  2.0293  1.6250 -0.0636
57083SOL    HW276061   8.022   4.870   8.936 -1.2137 -1.6567  0.6760
57084SOL     OW76062  11.217   7.558  10.937 -0.7672  0.5658  0.0224
57084SOL    HW176063  11.128   7.586  10.957 -0.9567  0.4781 -0.6737
57084SOL    HW276064  11.273   7.622  10.982 -1.1893  1.0911 -0.1923
57085SOL     OW76065  11.799   6.237  12.644  0.1643  0.4517  0.3303
57085SOL    HW176066  11.887   6.212  12.670 -0.0758  0.2853  0.9837
57085SOL    HW276067  11.753   6.154  12.629  0.6558  0.5046 -1.9396
57086SOL     OW76068   7.840   9.045   2.578 -0.0656 -0.2860 -0.2622
57086SOL    HW176069   7.775   9.031   2.647 -0.5569 -1.7713 -0.9888
57086SOL    HW276070   7.826   8.973   2.517 -0.2184  1.4688 -2.3845
57087SOL     OW76071   7.052   1.359   3.431  0.0595  0.2292 -0.2926
57087SOL    HW176072   7.130   1.304   3.441 -0.2491 -0.7312 -2.5064
57087SOL    HW276073   6.980   1.302   3.459 -0.0635  0.2702 -0.5278
57088SOL     OW76074   7.672   3.426   7.441 -0.3571 -0.0132 -0.0242
57088SOL    HW176075   7.589   3.445   7.486  0.2757 -0.9066  1.6030
57088SOL    HW276076   7.681   3.331   7.447  1.7796  0.2217  1.7668
57089SOL     OW76077   6.518   9.896  11.576  0.6832 -0.5252 -0.6478
57089SOL    HW176078   6.491   9.907  11.667  0.3702  2.1451 -0.9940
57089SOL    HW276079   6.441   9.918  11.525  1.5246  0.4059 -1.5688
57090SOL     OW76080   3.090   9.876   2.333  0.3348  0.5815 -0.0955
57090SOL    HW176081   3.132   9.864   2.248  0.4208  1.0388 -0.1180
57090SOL    HW276082   3.077   9.787   2.366 -1.1871  0.2960 -1.3154
57091SOL     OW76083   1.623   4.428   5.201 -0.0324 -0.1281  0.1641
57091SOL    HW176084   1.717   4.426   5.185 -0.0350 -0.2051  0.1546
57091SOL    HW276085   1.606   4.512   5.243 -0.1040  0.3230 -0.7376
57092SOL     OW76086  10.370  10.093  10.319 -0.3514  0.0643 -0.2814
57092SOL    HW176087  10.346  10.001  10.336 -1.9442  0.3833 -0.6318
57092SOL    HW276088  10.294  10.143  10.347  0.4399  1.2896 -0.2468
57093SOL     OW76089   1.106  10.875  11.803 -0.0985  0.6044 -0.2727
57093SOL    HW176090   1.106  10.959  11.849  1.2211  0.2370  0.4398
57093SOL    HW276091   1.193  10.839  11.819 -1.0083 -1.4356  0.4033
57094SOL     OW76092   5.246   1.853   1.101 -0.2966  0.1800  0.2793
57094SOL    HW176093   5.299   1.797   1.045 -1.6618 -0.3849 -0.4834
57094SOL    HW276094   5.305   1.876   1.174  1.1030 -0.0775 -0.7335
57095SOL     OW76095   3.376   6.867   4.838 -0.5329  0.2135  0.5806
57095SOL    HW176096   3.371   6.929   4.911 -2.8389  0.8429 -0.0263
57095SOL    HW276097   3.329   6.910   4.766  1.1837 -0.6294 -1.1261
57096SOL     OW76098   4.161  11.330   9.634  0.4570  0.0200  0.3327
57096SOL    HW176099   4.250  11.353   9.659  0.5414 -0.0886  0.1271
57096SOL    HW276100   4.145  11.245   9.674  0.3105  0.2094  0.6888
57097SOL     OW76101   4.359  11.347   6.365 -0.1305  0.7995 -0.2847
57097SOL    HW176102   4.391  11.300   6.287 -0.9360  0.7831 -0.6113
57097SOL    HW276103   4.325  11.278   6.422  1.9993  0.6197  0.8707
57098SOL     OW76104   3.633  10.722   1.122 -0.0633 -0.7604 -0.2322
57098SOL    HW176105   3.606  10.631   1.106  0.0358 -0.8862  0.2859
57098SOL    HW276106   3.565  10.757   1.180  0.8931 -1.1043  1.1509
57099SOL     OW76107   8.790   7.428   7.409 -0.2143  0.0614  0.6412
57099SOL    HW176108   8.820   7.518   7.413  1.4539 -0.4718  1.0078
57099SOL    HW276109   8.764   7.407   7.499  2.0861 -0.6240  1.2326
57100SOL     OW76110  12.449   6.672   5.292 -0.1325  0.4610 -0.0575
57100SOL    HW176111  12.416   6.728   5.363 -0.9706 -0.2664  0.1430
57100SOL    HW276112  12.492   6.733   5.232  0.5019  1.0961  1.0204
57101SOL     OW76113   3.799  12.185  10.925 -0.0360 -0.1060 -0.3043
57101SOL    HW176114   3.829  12.189  10.834 -1.6451  0.3941 -0.8526
57101SOL    HW276115   3.861  12.126  10.968  1.0715  0.0652 -1.5847
57102SOL     OW76116   2.759  11.550   0.096 -0.2318  0.0309 -0.4938
57102SOL    HW176117   2.697  11.596   0.040  0.6036 -0.4625 -1.8739
57102SOL    HW276118   2.722  11.463   0.106 -0.4494  0.1604 -0.1537
57103SOL     OW76119   4.192   9.603  10.718  0.1435  0.7750  0.8939
57103SOL    HW176120   4.102   9.576  10.698  0.1937 -0.0041  1.6584
57103SOL    HW276121   4.192   9.618  10.812  1.2141 -0.8787  1.1911
57104SOL     OW76122   0.511   2.322   5.803  0.3479  0.3107 -0.3796
57104SOL    HW176123   0.472   2.247   5.759  2.2304 -0.9270 -0.0449
57104SOL    HW276124   0.524   2.387   5.733  2.3247 -1.2185 -1.5442
57105SOL     OW76125   4.913   8.642   0.324  0.8472  0.2759 -0.3000
57105SOL    HW176126   4.913   8.567   0.264 -0.5851  0.2342 -0.2719
57105SOL    HW276127   4.969   8.614   0.397 -0.3491 -1.1151  0.1296
57106SOL     OW76128  10.682   1.296   3.391 -0.8168 -0.3763 -0.0862
57106SOL    HW176129  10.621   1.225   3.409 -0.0157 -0.6408  1.8255
57106SOL    HW276130  10.765   1.266   3.428  0.1461  0.5453 -1.4244
57107SOL     OW76131   6.868   9.292   6.254 -0.4082 -0.4131  0.1244
57107SOL    HW176132   6.812   9.312   6.179 -1.8058  0.7453  1.4169
57107SOL    HW276133   6.905   9.376   6.280  0.0151 -0.7880  0.7712
57108SOL     OW76134   0.666   5.598   5.187  0.6603  0.1968  0.1741
57108SOL    HW176135   0.606   5.628   5.255  0.5993  1.6371 -0.4876
57108SOL    HW276136   0.722   5.673   5.170  0.1134  0.1754 -1.9817
57109SOL     OW76137   8.058   1.081   8.765  0.2153 -0.2695  0.1996
57109SOL    HW176138   8.058   0.998   8.811 -2.2634  0.4394  1.7104
57109SOL    HW276139   8.089   1.060   8.677 -1.0711 -2.9488  0.2863
57110SOL     OW76140  11.427   9.309   0.782 -0.3459  0.0626  0.6183
57110SOL    HW176141  11.462   9.224   0.809 -0.4835  0.6486  2.8240
57110SOL    HW276142  11.461   9.322   0.694  0.0421 -2.0673  0.4015
57111SOL     OW76143  11.110  11.775  12.639  0.3850 -0.9313 -0.3308
57111SOL    HW176144  11.127  11.705  12.703 -2.3407 -1.1573  0.2620
57111SOL    HW276145  11.091  11.728  12.558  1.6424 -0.7131 -0.7781
57112SOL     OW76146  12.510   0.661   7.587  0.1808  0.2781  0.2953
57112SOL    HW176147  12.441   0.601   7.558  0.6141 -0.9950  1.7639
57112SOL    HW276148  12.468   0.714   7.655 -0.2673  1.8541 -1.1637
57113SOL     OW76149   6.989   3.666   7.297  0.3798  0.5174 -0.4523
57113SOL    HW176150   6.984   3.575   7.326 -0.3640  0.3099 -1.2009
57113SOL    HW276151   7.039   3.711   7.365 -0.5195 -0.1440  0.6701
57114SOL     OW76152  11.048   3.558   5.583 -0.0441 -0.0390 -0.2850
57114SOL    HW176153  10.982   3.504   5.628 -1.3430  1.3024 -0.4941
57114SOL    HW276154  11.130   3.539   5.628 -0.7787 -0.9274  0.7181
57115SOL     OW76155   2.494   5.979   5.839  0.3920 -0.4043 -0.1220
57115SOL    HW176156   2.434   6.014   5.773  1.3718 -0.4680 -1.0842
57115SOL    HW276157   2.482   6.035   5.915 -1.5309 -0.9707  0.0354
57116SOL     OW76158   3.511   5.256   3.475  0.1862  0.0893 -0.5451
57116SOL    HW176159   3.511   5.252   3.571 -2.1152  0.3812 -0.4702
57116SOL    HW276160   3.575   5.324   3.454  0.1757  0.5582  0.8362
57117SOL     OW76161   7.159   6.639  11.524  0.0066  0.7078 -0.2685
57117SOL    HW176162   7.099   6.713  11.510 -1.8379 -0.6508  0.0299
57117SOL    HW276163   7.113   6.584  11.588  0.5408 -1.5202 -1.7197
57118SOL     OW76164  10.059  11.372   9.834 -0.1744 -0.0639  0.0720
57118SOL    HW176165  10.092  11.353   9.921 -0.1348 -0.2574  0.0155
57118SOL    HW276166   9.981  11.426   9.849 -0.2890 -0.2736  0.2342
57119SOL     OW76167   2.488   2.663   1.590 -0.1183  0.5166  0.4847
57119SOL    HW176168   2.513   2.731   1.652  0.7433  2.4290 -1.8167
57119SOL    HW276169   2.499   2.703   1.504 -3.1591 -1.3269 -0.9418
57120SOL     OW76170  10.346  11.048  11.001 -0.1512  0.3567  0.0266
57120SOL    HW176171  10.411  11.014  11.063 -0.0030  1.3891  0.4532
57120SOL    HW276172  10.382  11.025  10.915  0.8604  1.0335  0.2487
57121SOL     OW76173   4.734   7.137   7.415 -0.0783 -0.1628 -0.0322
57121SOL    HW176174   4.649   7.168   7.446 -0.1691 -0.6035  0.1622
57121SOL    HW276175   4.761   7.072   7.480 -0.8523 -2.0379 -1.4846
57122SOL     OW76176  12.279  12.267   2.238 -0.0696  0.0720 -0.3360
57122SOL    HW176177  12.209  12.224   2.287  0.4786 -1.4552 -0.8221
57122SOL    HW276178  12.349  12.281   2.302  0.7145 -2.0747 -0.6610
57123SOL     OW76179   4.836   9.375   9.691  0.5194 -0.1781  0.1092
57123SOL    HW176180   4.855   9.284   9.715  1.8823  0.4677  1.6866
57123SOL    HW276181   4.909   9.401   9.636 -0.0737 -0.1305 -0.6771
57124SOL     OW76182  11.868  11.529  12.010  0.0920  0.4475  0.5073
57124SOL    HW176183  11.903  11.447  12.046 -0.4259 -0.1063 -0.2133
57124SOL    HW276184  11.781  11.537  12.050 -0.0260  0.4201  0.2585
57125SOL     OW76185   4.524   3.191   5.605 -0.1903 -0.5839  0.1554
57125SOL    HW176186   4.472   3.113   5.626 -0.7331  0.1018  1.4659
57125SOL    HW276187   4.476   3.264   5.645  0.7615  0.3242 -0.2924
57126SOL     OW76188   3.577  11.129   8.576 -0.1628 -0.0127  0.1402
57126SOL    HW176189   3.654  11.111   8.522  1.0230 -0.7204  1.9492
57126SOL    HW276190   3.503  11.100   8.523  0.8947 -0.2652 -1.2601
57127SOL     OW76191   6.725   0.758   2.654  0.0278  0.2038  0.5193
57127SOL    HW176192   6.756   0.698   2.722 -1.2187  0.0634  0.9830
57127SOL    HW276193   6.803   0.777   2.602  0.8250 -0.3642  1.4698
57128SOL     OW76194   7.505   2.216   8.635  0.2679  0.0303  0.2651
57128SOL    HW176195   7.465   2.136   8.602 -1.0220 -0.0569  1.8992
57128SOL    HW276196   7.548   2.255   8.559  0.9517 -2.1971 -0.5633
57129SOL     OW76197   5.740   6.937  11.189 -0.3344  0.2695  0.1634
57129SOL    HW176198   5.749   6.985  11.272 -0.4538  2.0233 -0.7828
57129SOL    HW276199   5.793   6.858  11.202  0.2033  0.8249  1.6783
57130SOL     OW76200  11.886   5.967   8.693 -0.0817 -0.1323 -0.3805
57130SOL    HW176201  11.837   6.016   8.627 -0.7443 -1.2130 -0.7059
57130SOL    HW276202  11.835   5.979   8.773 -0.4322 -0.5724 -0.5360
57131SOL     OW76203   5.640   8.153   7.577  0.4214 -0.5844  0.0266
57131SOL    HW176204   5.546   8.161   7.591  0.4263 -0.9118  0.2619
57131SOL    HW276205   5.672   8.105   7.653  0.6381 -1.2883 -0.4920
57132SOL     OW76206   9.690   3.189  12.153 -0.5236  0.1883  0.0025
57132SOL    HW176207   9.738   3.272  12.150 -1.4942  0.7505 -0.5483
57132SOL    HW276208   9.751   3.125  12.115  0.4805  0.4961  1.0219
57133SOL     OW76209   5.407   6.389  11.307  0.3493  0.7514  0.1320
57133SOL    HW176210   5.437   6.318  11.251  0.6380  1.7948 -1.0655
57133SOL    HW276211   5.312   6.391  11.295  0.1527 -0.2892  1.2403
57134SOL     OW76212   5.336   3.811  11.692 -0.1727 -0.0246  0.2729
57134SOL    HW176213   5.409   3.749  11.684  0.6648  0.8675  0.7916
57134SOL    HW276214   5.300   3.793  11.779 -0.1786 -0.0545  0.2647
57135SOL     OW76215   7.712  10.930   7.266  0.8201  0.0564 -0.0157
57135SOL    HW176216   7.699  10.876   7.187  0.1007  0.5093 -0.2210
57135SOL    HW276217   7.735  11.016   7.233 -0.8375  0.6151  0.2048
57136SOL     OW76218   1.519   5.595   7.425  0.0369 -0.1789  0.0933
57136SOL    HW176219   1.572   5.675   7.418  0.8908 -0.7186  0.2713
57136SOL    HW276220   1.580   5.524   7.406 -0.4784 -0.8586  0.9228
57137SOL     OW76221   5.950  11.475   3.572 -0.6619 -0.0014  0.0188
57137SOL    HW176222   5.975  11.559   3.531  1.2881 -0.7639 -0.4581
57137SOL    HW276223   5.884  11.439   3.512 -1.7776  1.3114  0.4026
57138SOL     OW76224   0.952  11.994   1.515 -0.1671 -0.3261 -0.4417
57138SOL    HW176225   1.019  11.990   1.447  0.9262  0.5396  0.5382
57138SOL    HW276226   0.955  11.908   1.557  0.5946 -0.1812 -0.1849
57139SOL     OW76227   2.885   3.951   2.081  0.0695  1.0487 -0.0880
57139SOL    HW176228   2.976   3.957   2.110 -0.2898  2.1885  0.8503
57139SOL    HW276229   2.891   3.929   1.987  1.2708 -0.3351  0.2705
57140SOL     OW76230  10.801   8.156  10.046 -0.3346 -0.0696 -0.3255
57140SOL    HW176231  10.754   8.077  10.019 -1.1522  0.1870  0.3054
57140SOL    HW276232  10.733   8.223  10.053 -0.0990 -0.0147  1.9026
57141SOL     OW76233   1.941   3.521  11.686 -0.7725 -0.0241  0.1656
57141SOL    HW176234   1.911   3.472  11.609  2.6980  0.7450 -1.9205
57141SOL    HW276235   1.951   3.455  11.754  1.8233 -2.0585 -1.9507
57142SOL     OW76236   1.236   2.589   2.654 -0.4918 -0.2201 -0.2743
57142SOL    HW176237   1.222   2.519   2.718 -1.2764 -0.2688 -0.4941
57142SOL    HW276238   1.160   2.586   2.597  0.1980 -0.1707 -1.2231
57143SOL     OW76239   2.072   6.234  11.584 -0.4275 -0.2287 -0.0174
57143SOL    HW176240   2.013   6.308  11.568 -0.3162 -0.2455 -0.5077
57143SOL    HW276241   2.128   6.264  11.657 -2.1126 -0.8409  1.6175
57144SOL     OW76242  12.231  10.767   3.669 -0.3651 -1.1149  0.5999
57144SOL    HW176243  12.197  10.696   3.615 -1.0626 -0.9854  0.8594
57144SOL    HW276244  12.154  10.805   3.710 -0.3780  1.4474 -1.5136
57145SOL     OW76245   0.746   0.169   9.374  0.0143 -0.5721  0.0792
57145SOL    HW176246   0.712   0.090   9.330 -0.5442 -0.0609 -0.4279
57145SOL    HW276247   0.822   0.194   9.321 -0.0129 -0.5791  0.0362
57146SOL     OW76248   6.818   2.705   6.900 -0.1271  0.4310 -0.0646
57146SOL    HW176249   6.856   2.757   6.829 -0.1944 -1.1980 -1.3378
57146SOL    HW276250   6.888   2.698   6.965 -0.2369  2.3833  0.3288
57147SOL     OW76251   4.705   5.801   0.606 -0.1234 -0.1350  0.0611
57147SOL    HW176252   4.679   5.874   0.661  0.1757  0.7394 -0.9132
57147SOL    HW276253   4.624   5.754   0.588 -0.4384  0.3754  0.1262
57148SOL     OW76254   0.970   4.585  11.809  0.1433  0.6852 -0.6845
57148SOL    HW176255   0.969   4.490  11.793  0.0296  0.9126 -2.0949
57148SOL    HW276256   0.977   4.592  11.905 -0.5433 -0.7390 -0.4930
57149SOL     OW76257   8.711   8.833   5.268 -0.3764  0.1693  0.4102
57149SOL    HW176258   8.668   8.769   5.325 -0.4731  0.1787  0.3490
57149SOL    HW276259   8.677   8.918   5.298 -0.2061  0.1976  0.5282
57150SOL     OW76260   5.345   3.064   1.898 -0.0086 -0.1738 -0.4668
57150SOL    HW176261   5.275   3.124   1.871  0.5483  0.0198 -1.5082
57150SOL    HW276262   5.376   3.024   1.817  0.2038 -1.2595  0.1210
57151SOL     OW76263   9.874   0.051   4.284  0.2346  0.0379  0.3136
57151SOL    HW176264   9.963   0.079   4.303  0.2684 -0.7268  1.3548
57151SOL    HW276265   9.884  -0.035   4.244 -0.0849 -0.9787  2.2989
57152SOL     OW76266   7.442   3.570   9.751 -0.5111  0.6658 -0.0302
57152SOL    HW176267   7.530   3.589   9.783 -0.1705 -0.3081 -0.3356
57152SOL    HW276268   7.425   3.480   9.779 -0.8821  0.3929 -1.0719
57153SOL     OW76269   2.992  10.220   0.610  0.2508  0.0492 -0.5676
57153SOL    HW176270   3.020  10.198   0.521 -0.6809 -0.0598 -0.8415
57153SOL    HW276271   2.923  10.157   0.630  1.1998 -0.6430  0.6734
57154SOL     OW76272   7.100  12.462   9.062 -0.1129 -0.3997  0.1151
57154SOL    HW176273   7.156  12.538   9.079  0.5281 -1.3484  2.6642
57154SOL    HW276274   7.158  12.387   9.068 -0.7091 -1.1688 -2.5370
57155SOL     OW76275   1.501  10.076   6.140 -0.3968  0.4881 -0.1943
57155SOL    HW176276   1.408  10.097   6.148 -0.5827 -0.6692  0.9115
57155SOL    HW276277   1.541  10.158   6.110 -1.7349  1.0483 -0.5259
57156SOL     OW76278   6.906   2.880  11.435 -0.1436 -0.0249 -1.0419
57156SOL    HW176279   6.849   2.955  11.419 -1.6545 -0.6077  1.0239
57156SOL    HW276280   6.995   2.914  11.428 -0.7916  1.9747 -0.1578
57157SOL     OW76281   6.228  11.113   2.905 -0.0501  0.2421  0.5355
57157SOL    HW176282   6.191  11.050   2.843  0.3806 -0.7782  1.2963
57157SOL    HW276283   6.318  11.083   2.919  0.3342  1.3411  0.5075
57158SOL     OW76284   0.010   6.700   3.337  0.3557 -0.0590  0.1799
57158SOL    HW176285  -0.036   6.775   3.301  1.2000 -0.6802 -2.4203
57158SOL    HW276286  -0.058   6.633   3.348 -0.0421  0.3756  0.3778
57159SOL     OW76287  10.598   4.055   0.971  0.1078  0.1028 -0.3264
57159SOL    HW176288  10.642   4.128   1.015 -0.4661  0.6449 -0.6293
57159SOL    HW276289  10.545   4.097   0.903  0.2513 -0.6506 -0.9113
57160SOL     OW76290   4.791   8.157   4.295 -0.4265  0.1279 -0.2907
57160SOL    HW176291   4.797   8.087   4.230 -0.8791 -0.4917  0.3199
57160SOL    HW276292   4.852   8.130   4.364 -1.3438 -0.1869  0.4123
57161SOL     OW76293   0.629   5.463   2.932 -0.2074  0.1991  0.2130
57161SOL    HW176294   0.696   5.449   2.999 -1.7442 -0.3322  1.7169
57161SOL    HW276295   0.619   5.558   2.929  2.1917  0.4844 -1.7395
57162SOL     OW76296   0.990  12.113   1.748 -0.0293 -0.1764 -0.1223
57162SOL    HW176297   0.902  12.083   1.766  1.3165 -3.8651  1.2209
57162SOL    HW276298   1.009  12.083   1.659  0.3677 -0.7950  0.1644
57163SOL     OW76299   4.727  12.297   5.114  0.4014  0.0728 -0.1092
57163SOL    HW176300   4.725  12.268   5.023  0.3835  1.7330 -0.6789
57163SOL    HW276301   4.665  12.240   5.159 -2.0573  1.2254 -1.8109
57164SOL     OW76302   3.743  10.924   4.109  0.0484  0.6569  0.5199
57164SOL    HW176303   3.739  10.915   4.204 -0.2651 -1.7589  0.3347
57164SOL    HW276304   3.811  10.990   4.094  0.2134  0.9711  2.3893
57165SOL     OW76305   4.835   8.906  12.401  0.3360  0.6186  0.0918
57165SOL    HW176306   4.920   8.950  12.395 -0.3632  2.0772  0.4080
57165SOL    HW276307   4.792   8.947  12.476 -0.7171  0.0202 -0.1641
57166SOL     OW76308   4.332   9.978  10.943 -0.1280 -0.0652  0.4805
57166SOL    HW176309   4.342  10.034  11.020  0.0990 -0.7648  0.9699
57166SOL    HW276310   4.394  10.014  10.880  0.7633 -0.3504  1.1556
57167SOL     OW76311   0.549   1.118   0.946  0.0056 -0.2046  0.2842
57167SOL    HW176312   0.595   1.167   1.013  0.6607  0.8516 -0.8831
57167SOL    HW276313   0.613   1.054   0.914  0.3552  0.5616 -0.6106
57168SOL     OW76314   6.011   6.418   4.582  0.2467  0.2163  0.3239
57168SOL    HW176315   6.000   6.323   4.591  1.2461 -0.1489 -1.6146
57168SOL    HW276316   6.093   6.437   4.628  0.3216  0.0360  0.2655
57169SOL     OW76317  10.878   7.238  10.034 -0.1513  0.4512 -0.0995
57169SOL    HW176318  10.797   7.192  10.051  0.1337  0.6230  1.9424
57169SOL    HW276319  10.905   7.208   9.947 -1.6881 -0.6128 -0.2428
57170SOL     OW76320  11.978   7.065   9.231 -0.3311  0.6466 -0.7166
57170SOL    HW176321  12.041   7.011   9.183  0.6773  0.4980  0.7077
57170SOL    HW276322  11.900   7.009   9.240  0.0635  0.0748 -0.7754
57171SOL     OW76323   8.354   9.343   6.466 -0.3795 -0.4077  0.6158
57171SOL    HW176324   8.424   9.379   6.522 -0.2711 -0.8778  0.7970
57171SOL    HW276325   8.344   9.407   6.396 -0.6482  0.2907  1.2762
57172SOL     OW76326   2.322   2.983   0.228 -0.2708  0.3570 -0.0473
57172SOL    HW176327   2.272   2.901   0.225 -0.8891  0.6793  0.9073
57172SOL    HW276328   2.333   3.008   0.136 -1.0533 -0.2207 -0.3067
57173SOL     OW76329   2.706   2.537   8.015  0.3260  0.2274  0.2251
57173SOL    HW176330   2.643   2.582   8.071 -0.6721  0.0593 -0.7435
57173SOL    HW276331   2.767   2.606   7.988  0.1542  0.5340  0.6116
57174SOL     OW76332   7.810   6.164   8.880 -0.0905  0.3113 -0.3496
57174SOL    HW176333   7.869   6.185   8.808 -0.4284  0.2185 -0.6610
57174SOL    HW276334   7.848   6.207   8.957  0.9323 -0.5829 -0.3230
57175SOL     OW76335   9.052  11.842  10.708 -0.1634  0.2415 -0.0779
57175SOL    HW176336   9.031  11.763  10.659  0.9768  0.0558 -0.2839
57175SOL    HW276337   9.076  11.810  10.795 -1.8546  0.5463  0.5525
57176SOL     OW76338   7.363  11.940  11.299  0.0337  0.0028 -0.6119
57176SOL    HW176339   7.334  11.911  11.385 -0.6348  2.9633  0.2879
57176SOL    HW276340   7.455  11.914  11.294 -0.5346 -2.2926 -0.0670
57177SOL     OW76341   0.425   1.246   5.544 -0.6041  0.7247 -0.0922
57177SOL    HW176342   0.334   1.261   5.517 -0.5314  1.8099  0.2185
57177SOL    HW276343   0.477   1.301   5.485 -0.0981 -0.2613 -0.5912
57178SOL     OW76344  10.085   2.653   3.590 -0.0426 -0.1657 -0.0454
57178SOL    HW176345  10.105   2.677   3.500 -0.7246  0.2642 -0.0883
57178SOL    HW276346  10.115   2.729   3.641 -0.8585  0.1724 -0.0444
57179SOL     OW76347  11.438   1.980  11.250  0.2510 -0.5110  0.1899
57179SOL    HW176348  11.512   2.032  11.282  0.5680 -0.0759 -1.1569
57179SOL    HW276349  11.361   2.034  11.268  0.3281 -0.6493  0.9564
57180SOL     OW76350   2.189   7.366   0.459 -0.0212 -0.3704 -0.0196
57180SOL    HW176351   2.243   7.322   0.394 -1.0729  0.1701 -1.2935
57180SOL    HW276352   2.146   7.437   0.412  0.0682  0.7818  1.5331
57181SOL     OW76353   7.509   9.717   1.880  0.0018 -0.0874  0.1601
57181SOL    HW176354   7.439   9.692   1.820  0.0516 -1.4416  0.6151
57181SOL    HW276355   7.548   9.795   1.842 -1.9536  0.8863  0.0662
57182SOL     OW76356   6.350   9.119   2.164 -0.3553  0.2403  0.7132
57182SOL    HW176357   6.409   9.047   2.186 -0.4391 -0.1299 -0.2362
57182SOL    HW276358   6.380   9.148   2.077 -1.2779  0.3521  0.4286
57183SOL     OW76359   1.333   0.469   0.797 -0.0706  0.1199 -0.0177
57183SOL    HW176360   1.301   0.559   0.800 -1.6949 -0.4221  2.9417
57183SOL    HW276361   1.425   0.475   0.820 -0.3349  1.0384  0.8929
57184SOL     OW76362   6.488   7.804   5.797 -0.3776  0.5665 -0.2660
57184SOL    HW176363   6.526   7.840   5.877 -0.4998 -0.9881  0.5312
57184SOL    HW276364   6.394   7.816   5.808 -0.5313 -1.2114  0.6697
57185SOL     OW76365   7.291   9.433  10.186  0.2115  0.1405 -0.1979
57185SOL    HW176366   7.334   9.438  10.100  1.2007 -0.4623  0.2411
57185SOL    HW276367   7.345   9.489  10.242 -0.8202  1.0742 -0.1085
57186SOL     OW76368   3.637  11.458   1.636 -0.7322 -0.2581  0.3338
57186SOL    HW176369   3.711  11.408   1.601 -0.4796 -0.6519  1.4010
57186SOL    HW276370   3.567  11.443   1.574 -0.2493 -0.8188 -0.0901
57187SOL     OW76371   4.265   2.998   3.692 -0.2190  0.7920  0.0090
57187SOL    HW176372   4.184   3.036   3.727 -1.0577 -0.8014 -0.1459
57187SOL    HW276373   4.248   2.904   3.687  1.6632  0.4135 -0.0109
57188SOL     OW76374   6.334  12.418   8.573 -0.5284  0.1284 -0.2356
57188SOL    HW176375   6.305  12.376   8.654  1.3868 -2.0583 -0.5838
57188SOL    HW276376   6.429  12.405   8.572 -0.4980  0.0468 -2.8519
57189SOL     OW76377   3.475  12.175   9.558 -0.8494  0.0965  0.0644
57189SOL    HW176378   3.445  12.243   9.498  2.1467  0.6358 -0.9821
57189SOL    HW276379   3.520  12.223   9.628 -0.1416 -0.7445  0.1960
57190SOL     OW76380   0.115   4.111   4.415  0.1642  0.1391 -0.3580
57190SOL    HW176381   0.172   4.153   4.480 -0.1896 -1.2697  0.9434
57190SOL    HW276382   0.027   4.120   4.452  0.0527 -1.4264 -0.1963
57191SOL     OW76383  12.542  10.030   7.027  0.0588  0.4984  0.6168
57191SOL    HW176384  12.471  10.019   7.090 -0.6410  0.1337 -0.2220
57191SOL    HW276385  12.498  10.047   6.944  0.9246 -0.5829 -0.0852
57192SOL     OW76386   9.346   9.887   3.061 -0.1371  0.2648  0.8631
57192SOL    HW176387   9.257   9.885   3.027  0.0596  1.8095  0.1811
57192SOL    HW276388   9.392   9.819   3.010 -0.9014 -0.5689  1.2498
57193SOL     OW76389   5.521   3.078   8.098  0.3993 -0.1258 -0.4215
57193SOL    HW176390   5.527   3.095   8.004  0.8450 -1.4682 -0.6670
57193SOL    HW276391   5.594   3.125   8.136  0.0100  0.7161 -0.6962
57194SOL     OW76392   9.951   6.846  10.489  0.1622  0.0702  0.6189
57194SOL    HW176393   9.930   6.873  10.579  2.1373  0.9303  0.8705
57194SOL    HW276394  10.028   6.790  10.498  0.9286  0.8784 -0.5794
57195SOL     OW76395   7.871   4.087   1.647 -0.1038 -0.1209  0.3686
57195SOL    HW176396   7.953   4.065   1.604 -1.2216 -2.4950 -0.7236
57195SOL    HW276397   7.804   4.074   1.580 -1.6355 -1.0500  1.9766
57196SOL     OW76398   6.957   6.063   0.810  0.2686 -0.3191 -0.3671
57196SOL    HW176399   6.897   6.134   0.835 -0.0883 -1.1011  1.1105
57196SOL    HW276400   6.911   5.983   0.835  0.7255 -1.0814 -1.8999
57197SOL     OW76401   4.020  12.629   6.758  0.5988  0.3600  0.2747
57197SOL    HW176402   4.024  12.556   6.697  0.9069 -0.0598  0.7875
57197SOL    HW276403   4.077  12.603   6.830 -0.8015  0.2459  1.3939
57198SOL     OW76404   1.845   6.296   1.244  0.1143 -0.0521  0.4579
57198SOL    HW176405   1.820   6.379   1.284  0.0805  1.0214 -1.6512
57198SOL    HW276406   1.939   6.287   1.263 -0.0435  0.0860  1.3179
57199SOL     OW76407  10.169   1.851  12.427  0.4731 -0.2715  0.0476
57199SOL    HW176408  10.116   1.912  12.375 -0.7407 -0.7522  0.6836
57199SOL    HW276409  10.131   1.854  12.514  1.1960 -1.0024  0.4010
57200SOL     OW76410  12.018   4.659   5.930 -0.3671 -0.4841  0.4626
57200SOL    HW176411  11.931   4.619   5.931 -0.9224  0.6836  0.6758
57200SOL    HW276412  12.020   4.714   6.008 -0.0804  0.8073 -0.4141
57201SOL     OW76413   4.744   5.597   6.460  0.6629  0.9642 -0.5611
57201SOL    HW176414   4.775   5.607   6.370 -0.8301  0.5696 -1.1397
57201SOL    HW276415   4.753   5.503   6.478  0.9765  1.0441 -0.2705
57202SOL     OW76416   5.794   0.643   7.298  0.2275 -0.3197 -0.2385
57202SOL    HW176417   5.800   0.725   7.250  1.9948 -0.2154  0.0783
57202SOL    HW276418   5.757   0.667   7.383 -0.2552 -0.0260 -0.5343
57203SOL     OW76419   2.651   6.508   4.321  0.3815  0.0986 -0.1349
57203SOL    HW176420   2.659   6.457   4.240  1.1682  1.4735 -0.9481
57203SOL    HW276421   2.741   6.533   4.343 -0.0820  2.8360 -0.9215
57204SOL     OW76422   4.398   0.130   0.272  0.6160 -0.5796  0.1780
57204SOL    HW176423   4.360   0.199   0.218  1.1389  0.5704  1.2230
57204SOL    HW276424   4.490   0.154   0.281  0.1580  0.5256  3.3087
57205SOL     OW76425   5.474   7.885   3.120 -0.2587  0.0730  0.1585
57205SOL    HW176426   5.506   7.923   3.202 -0.8781 -1.4623  1.1482
57205SOL    HW276427   5.554   7.861   3.072  0.1273 -0.8371  1.2110
57206SOL     OW76428   6.910   3.144  10.994  0.2253 -0.1759 -0.4770
57206SOL    HW176429   6.957   3.219  11.030 -0.3732 -0.1329  0.2643
57206SOL    HW276430   6.935   3.071  11.051 -3.1492  0.4902  2.2211
57207SOL     OW76431  12.216  10.780   7.493  0.0948 -0.3956  0.0892
57207SOL    HW176432  12.260  10.763   7.409 -1.9588  0.0190 -1.1419
57207SOL    HW276433  12.208  10.876   7.496 -0.3223 -0.4408  0.4798
57208SOL     OW76434   2.728   7.138   0.033 -0.1225 -0.1281 -0.2316
57208SOL    HW176435   2.820   7.139   0.006  0.0082  0.7326  0.2228
57208SOL    HW276436   2.706   7.230   0.048 -0.8238 -0.3945  0.4438
57209SOL     OW76437   9.468  10.595  10.729  0.3037 -0.6494  0.2139
57209SOL    HW176438   9.385  10.583  10.776 -0.9134 -1.3145 -1.9598
57209SOL    HW276439   9.520  10.518  10.753  1.1252  0.6239  2.9881
57210SOL     OW76440  10.475   2.027   8.835 -0.0016 -0.2454  1.2530
57210SOL    HW176441  10.521   2.008   8.753 -0.8503 -1.5776  1.0360
57210SOL    HW276442  10.392   2.066   8.807  0.4578  0.9866  1.5776
57211SOL     OW76443  12.136   5.676   5.468  0.3178 -0.1395  0.6135
57211SOL    HW176444  12.149   5.612   5.399 -1.7550 -0.7922  0.7648
57211SOL    HW276445  12.178   5.756   5.436  0.2146 -0.6999 -0.9785
57212SOL     OW76446   5.655  12.298   3.266  0.4025 -0.2130  0.1856
57212SOL    HW176447   5.649  12.206   3.238 -1.6681 -0.1298  0.1683
57212SOL    HW276448   5.572  12.314   3.311  0.3323  1.9004 -0.6031
57213SOL     OW76449   9.856   9.016   8.068  0.1493  0.4807 -0.2949
57213SOL    HW176450   9.815   8.936   8.034  0.3385  0.8402 -1.4096
57213SOL    HW276451   9.905   9.051   7.994  0.2199  1.5343  0.2366
57214SOL     OW76452   6.137  11.009  11.108 -0.8362  0.0507  0.2381
57214SOL    HW176453   6.109  11.047  11.025  1.5778 -0.4958 -0.9069
57214SOL    HW276454   6.206  11.067  11.140 -1.1572 -0.2032  1.4745
57215SOL     OW76455   8.120   7.487   8.453  0.8127 -0.0249 -0.3974
57215SOL    HW176456   8.112   7.559   8.514  0.3575 -1.2256  1.0183
57215SOL    HW276457   8.084   7.521   8.371 -0.7406  0.9053  0.6186
57216SOL     OW76458   4.987   5.293   8.016  0.2698  0.3533 -0.1123
57216SOL    HW176459   4.933   5.227   7.972 -0.7646  1.9020 -1.2194
57216SOL    HW276460   5.072   5.288   7.972  0.7038 -1.2231  0.8075
57217SOL     OW76461   5.091   2.006   9.470  0.3973  0.4386  0.4274
57217SOL    HW176462   5.120   1.915   9.478  1.1063  0.4209 -1.7519
57217SOL    HW276463   5.090   2.038   9.560  0.5937 -1.5679  1.2105
57218SOL     OW76464   5.746  10.070  11.732  0.4864 -0.6148  1.0154
57218SOL    HW176465   5.824  10.059  11.787  1.3172  0.6259  0.1455
57218SOL    HW276466   5.778  10.055  11.643  0.1211  1.4917  0.4844
57219SOL     OW76467   1.199   0.687  11.629 -0.0776 -0.9329  0.0702
57219SOL    HW176468   1.265   0.650  11.688  0.6237 -0.1229 -0.1945
57219SOL    HW276469   1.147   0.745  11.685  0.7310  0.0140 -0.1273
57220SOL     OW76470  11.464  10.668   7.101  0.1244 -0.1987 -0.3843
57220SOL    HW176471  11.529  10.733   7.127 -0.3868 -0.7310  2.6381
57220SOL    HW276472  11.478  10.595   7.160 -2.0708 -1.0392 -0.7969
57221SOL     OW76473   3.339   8.165   9.582  0.5914  0.0791 -0.4175
57221SOL    HW176474   3.419   8.215   9.568  1.0492 -0.7094 -0.7425
57221SOL    HW276475   3.285   8.219   9.640  1.0468  0.9430 -0.7935
57222SOL     OW76476  10.231   2.076   1.762 -0.0381  0.2665 -0.0511
57222SOL    HW176477  10.305   2.074   1.701  0.8266  1.6361  0.8896
57222SOL    HW276478  10.256   2.016   1.832 -0.5985 -0.5670 -0.5520
57223SOL     OW76479  12.218   6.039   8.851  0.2214 -0.4038  0.6123
57223SOL    HW176480  12.169   6.070   8.775  0.4802  0.7739  0.8903
57223SOL    HW276481  12.272   6.115   8.877 -0.1912 -0.6244  2.2206
57224SOL     OW76482   0.923   8.951   6.366 -0.0540 -0.1939 -0.3717
57224SOL    HW176483   0.903   8.938   6.459  0.9791  0.1270 -0.0839
57224SOL    HW276484   0.844   8.990   6.329 -1.0190 -1.6811  0.0477
57225SOL     OW76485   0.846   7.108   9.321  0.3674 -0.0386  0.1239
57225SOL    HW176486   0.833   7.013   9.323 -0.0990  0.0203 -0.0026
57225SOL    HW276487   0.849   7.129   9.227  0.4783  0.0723  0.1525
57226SOL     OW76488   8.576   7.837   6.957  0.7768 -0.1227  0.4893
57226SOL    HW176489   8.497   7.883   6.929  0.0145 -1.4915  0.3069
57226SOL    HW276490   8.582   7.855   7.051 -0.0433 -0.4217  0.6083
57227SOL     OW76491   8.319  11.791   9.875  0.2525  0.1729  0.0711
57227SOL    HW176492   8.287  11.701   9.870  1.1859 -0.1614 -0.2256
57227SOL    HW276493   8.241  11.845   9.869 -0.2890 -0.6127 -0.1367
57228SOL     OW76494   6.715   7.261   9.793 -0.3564  0.1860  0.0301
57228SOL    HW176495   6.734   7.244   9.885  0.1397  0.5428  0.0011
57228SOL    HW276496   6.633   7.311   9.794  0.6485  1.9308  0.4283
57229SOL     OW76497  10.132   0.219  12.499 -0.2421  0.3161  0.0409
57229SOL    HW176498  10.075   0.178  12.564 -1.1200 -0.2196 -1.0365
57229SOL    HW276499  10.183   0.283  12.548  0.3689 -1.2785  1.5768
57230SOL     OW76500   0.897  10.669  12.186  0.1972  0.0517  0.4200
57230SOL    HW176501   0.989  10.668  12.158 -0.3364  0.5024 -1.4724
57230SOL    HW276502   0.868  10.759  12.172 -1.5314 -0.8421 -2.6994
57231SOL     OW76503   4.468   6.492   1.809  0.2028 -0.0714  0.6567
57231SOL    HW176504   4.552   6.526   1.841  0.9157 -0.9722 -0.2196
57231SOL    HW276505   4.482   6.477   1.716 -0.6204 -1.2003  0.7018
57232SOL     OW76506   7.743   6.026   2.514 -0.2857 -0.0207  0.1634
57232SOL    HW176507   7.777   6.001   2.599  2.7439  0.4249 -0.7833
57232SOL    HW276508   7.742   5.945   2.463 -1.1705 -0.1119  0.3035
57233SOL     OW76509   0.701   9.290  10.017 -0.1707  0.1239  0.4817
57233SOL    HW176510   0.705   9.214   9.958 -0.8960  0.0599  0.5108
57233SOL    HW276511   0.659   9.359   9.965  0.8763  0.6523  0.3124
57234SOL     OW76512   8.200   9.048   1.543 -0.2586  0.1315 -0.4790
57234SOL    HW176513   8.148   8.970   1.561  0.4218 -0.1423  0.3878
57234SOL    HW276514   8.147   9.120   1.576 -0.8317  0.0424 -1.1649
57235SOL     OW76515   1.822   7.161   8.460 -0.0946 -0.1498  0.7875
57235SOL    HW176516   1.828   7.105   8.537  1.1771  0.3391  1.0727
57235SOL    HW276517   1.837   7.250   8.494 -2.5656  0.4789  0.4298
57236SOL     OW76518   9.499  11.617   5.015  0.0967  0.2992 -0.1441
57236SOL    HW176519   9.416  11.569   5.018  0.0732  0.3073 -0.5482
57236SOL    HW276520   9.535  11.609   5.103 -1.0358  1.5205  0.4689
57237SOL     OW76521   6.725   7.271   3.184  0.2324  0.5140 -0.0379
57237SOL    HW176522   6.742   7.344   3.124 -0.5871  1.7710  1.1926
57237SOL    HW276523   6.636   7.241   3.161 -0.0626  0.9643  0.4932
57238SOL     OW76524   0.276  10.605  10.986  0.2979 -0.1413 -0.2773
57238SOL    HW176525   0.221  10.562  10.920  1.4031 -1.4037 -0.4172
57238SOL    HW276526   0.260  10.698  10.974 -1.8494 -0.4595 -0.2770
57239SOL     OW76527   0.439   0.389  10.082  0.0416 -0.0315 -0.0334
57239SOL    HW176528   0.486   0.462  10.123  0.6905 -0.5523  0.1762
57239SOL    HW276529   0.375   0.430  10.024 -1.6740  0.7690  2.3068
57240SOL     OW76530   3.082   7.330   6.893  0.1696  0.1157 -0.3988
57240SOL    HW176531   3.134   7.383   6.953 -2.2439  0.8336  1.1869
57240SOL    HW276532   3.005   7.383   6.873 -1.6286 -2.1532  0.0624
57241SOL     OW76533   5.387   3.730  10.053 -0.1894  0.0714  0.0271
57241SOL    HW176534   5.291   3.721  10.051 -0.2846  0.7045  1.1341
57241SOL    HW276535   5.403   3.815  10.093  0.8495 -0.2484  0.3310
57242SOL     OW76536   1.485   8.093  12.320  0.0906  0.3568 -0.8939
57242SOL    HW176537   1.566   8.070  12.365  0.4246  1.2355 -1.0272
57242SOL    HW276538   1.417   8.044  12.366  0.5909  0.2474 -0.2628
57243SOL     OW76539   1.005   3.412   0.125  0.3586  0.0691  0.6181
57243SOL    HW176540   1.054   3.348   0.177  1.2266 -0.8560 -1.2193
57243SOL    HW276541   0.999   3.372   0.038  0.2562  2.1671 -0.4016
57244SOL     OW76542   8.210   1.341   3.626 -0.1378  0.1333  0.0717
57244SOL    HW176543   8.217   1.284   3.550  0.2202  1.4601 -0.9289
57244SOL    HW276544   8.120   1.328   3.658 -0.9328  0.9449 -1.7292
57245SOL     OW76545   9.986  11.263  10.850 -0.0279  0.2540  0.1562
57245SOL    HW176546   9.951  11.188  10.898 -3.7252  2.4692  1.3846
57245SOL    HW276547   9.983  11.237  10.758 -1.5947 -0.9873  0.5208
57246SOL     OW76548   8.833   8.747   1.494 -0.3674 -0.3197  0.1077
57246SOL    HW176549   8.858   8.717   1.582  0.4946 -0.0951 -0.0533
57246SOL    HW276550   8.737   8.743   1.494 -0.3766 -0.3612  1.0471
57247SOL     OW76551   6.535   4.807  11.424  0.6079  0.2421  0.0631
57247SOL    HW176552   6.519   4.877  11.361 -1.0906 -0.5366 -0.4295
57247SOL    HW276553   6.511   4.845  11.508 -1.3283 -0.0370 -0.3338
57248SOL     OW76554   0.284   2.349   7.533 -0.1778  0.3676  0.8116
57248SOL    HW176555   0.192   2.364   7.511 -0.1947  1.1488  1.3599
57248SOL    HW276556   0.311   2.429   7.578  1.2146  0.7978 -0.7161
57249SOL     OW76557   6.208  10.615   3.630  0.4396 -0.7151 -0.2438
57249SOL    HW176558   6.163  10.531   3.625 -0.6014 -0.1713 -0.1119
57249SOL    HW276559   6.138  10.680   3.630  1.0731  0.0793  2.4659
57250SOL     OW76560   7.573   8.194   9.625 -0.4577 -0.5432 -0.2700
57250SOL    HW176561   7.501   8.131   9.615  1.8494 -3.4333 -0.2731
57250SOL    HW276562   7.602   8.182   9.715  0.7214 -0.3085 -0.6082
57251SOL     OW76563  12.329   2.879   0.946 -0.1026  0.0625 -0.0305
57251SOL    HW176564  12.337   2.844   1.035 -0.0255  0.1520 -0.0016
57251SOL    HW276565  12.418   2.878   0.911 -0.3349 -1.3392 -0.6400
57252SOL     OW76566   7.766   2.333   2.785  0.2477 -0.3171 -0.1627
57252SOL    HW176567   7.774   2.278   2.707 -0.1300 -2.5064  1.2334
57252SOL    HW276568   7.694   2.393   2.765  0.0420 -0.9420 -1.4319
57253SOL     OW76569   8.710  10.524  11.693 -0.0249 -0.1973 -0.2331
57253SOL    HW176570   8.707  10.450  11.633 -0.0854 -1.7982  1.6736
57253SOL    HW276571   8.798  10.523  11.729  0.5822  1.8048 -1.4946
57254SOL     OW76572   3.646   6.940   4.114 -1.0114  0.0434  0.3405
57254SOL    HW176573   3.559   6.929   4.152 -1.3152 -0.0884 -0.3909
57254SOL    HW276574   3.657   6.865   4.056 -0.2661 -0.1273  0.6934
57255SOL     OW76575   9.425   0.368   3.494 -0.2488  0.4201 -0.0558
57255SOL    HW176576   9.496   0.313   3.526  0.1585  0.7234 -0.4279
57255SOL    HW276577   9.373   0.311   3.438  0.0353  0.3543 -0.2493
57256SOL     OW76578   2.706   7.551  11.417 -0.2420  0.7197  0.0036
57256SOL    HW176579   2.638   7.611  11.449  1.2751  1.5546  1.8835
57256SOL    HW276580   2.665   7.465  11.420 -1.0703  1.1305  1.6401
57257SOL     OW76581   0.517   6.585  11.907  0.2406 -0.0910  0.2273
57257SOL    HW176582   0.596   6.557  11.953  1.1062  0.4231 -0.8814
57257SOL    HW276583   0.537   6.571  11.814 -0.3508  1.4917 -0.1786
57258SOL     OW76584  11.810   7.552   4.895 -0.0064 -0.5418 -0.1989
57258SOL    HW176585  11.838   7.494   4.966  3.3767  0.7944 -0.2742
57258SOL    HW276586  11.826   7.640   4.928 -1.3724  0.2305 -1.4926
57259SOL     OW76587  10.626   9.360   3.548  0.0274  0.1344 -0.1014
57259SOL    HW176588  10.624   9.283   3.491  0.8336 -1.6079  2.0747
57259SOL    HW276589  10.547   9.352   3.602  0.9426 -0.1141  1.2503
57260SOL     OW76590   9.499   8.100  11.250 -0.2121  0.3349  0.2597
57260SOL    HW176591   9.531   8.010  11.241 -1.9196 -0.4092  1.1317
57260SOL    HW276592   9.536   8.146  11.175  1.1762 -0.9358  0.1081
57261SOL     OW76593   8.722   0.955  11.067 -0.3691  0.0854 -0.1543
57261SOL    HW176594   8.756   0.876  11.024 -1.6949 -0.6501  0.0980
57261SOL    HW276595   8.666   0.922  11.136 -2.0973  1.2339 -0.9438
57262SOL     OW76596   3.890   9.593  11.045 -0.0517  0.0115 -0.3293
57262SOL    HW176597   3.984   9.593  11.026 -0.2622  0.3823 -1.4537
57262SOL    HW276598   3.853   9.657  10.984 -1.6122 -3.1823 -3.0835
57263SOL     OW76599   9.719   0.931   7.862 -0.0595 -0.1425  0.0491
57263SOL    HW176600   9.765   0.932   7.778  0.9809 -0.7830  0.5833
57263SOL    HW276601   9.634   0.892   7.842 -1.2117  2.8112 -1.3197
57264SOL     OW76602   8.575   2.058   1.079  0.2897  0.2182  0.4922
57264SOL    HW176603   8.549   2.122   1.146 -1.4784  1.2911 -1.1175
57264SOL    HW276604   8.627   2.108   1.016 -0.3915 -0.1024 -0.3468
57265SOL     OW76605   9.203   3.695   4.149 -0.3159  0.3559  0.3709
57265SOL    HW176606   9.108   3.690   4.146 -0.3004  0.5305 -0.9815
57265SOL    HW276607   9.226   3.759   4.081  0.8203 -0.5498 -0.1348
57266SOL     OW76608   4.699   3.785   5.601 -0.1218 -0.4083  0.5014
57266SOL    HW176609   4.639   3.844   5.557  0.7264  1.4607  1.7120
57266SOL    HW276610   4.732   3.727   5.532 -0.7048  0.7625 -0.7946
57267SOL     OW76611   5.720  12.185   1.286 -0.0087  0.1370 -0.1002
57267SOL    HW176612   5.735  12.275   1.313 -1.0115 -0.0126  0.9916
57267SOL    HW276613   5.798  12.138   1.315  0.0773  0.4612  0.1936
57268SOL     OW76614  11.661   5.219   9.586 -0.3735 -0.0308  0.5543
57268SOL    HW176615  11.633   5.180   9.668  0.9369  0.7277  1.4105
57268SOL    HW276616  11.756   5.228   9.595  0.3740 -2.9973 -2.3788
57269SOL     OW76617   2.058  11.288   0.163 -0.1107  0.2027 -0.2312
57269SOL    HW176618   2.115  11.350   0.209 -0.9314  1.2155 -0.5498
57269SOL    HW276619   2.050  11.214   0.223  2.7212 -0.6556 -0.7660
57270SOL     OW76620   1.738   3.212  11.741 -0.4540  0.1446 -0.1789
57270SOL    HW176621   1.828   3.206  11.773  0.2570  0.2005 -2.0606
57270SOL    HW276622   1.726   3.133  11.689 -1.4732  0.1809 -0.0112
57271SOL     OW76623   4.815   1.389   1.871  0.0772  0.2086 -0.0423
57271SOL    HW176624   4.874   1.464   1.884 -1.1078  0.9126  1.7652
57271SOL    HW276625   4.833   1.331   1.945 -0.3021 -0.4113 -0.4276
57272SOL     OW76626   4.015   8.316   1.094 -0.0595  0.1435  0.3682
57272SOL    HW176627   3.989   8.236   1.049  2.2989 -0.9561  0.8452
57272SOL    HW276628   3.933   8.364   1.107 -1.3790 -1.6560 -0.9186
57273SOL     OW76629  11.482   0.867   7.961 -0.4106 -0.4156  0.3400
57273SOL    HW176630  11.414   0.915   7.914 -0.3891  0.3649  1.0864
57273SOL    HW276631  11.458   0.775   7.949 -0.4052 -0.2432 -1.1663
57274SOL     OW76632   2.358  12.450   4.979  0.5217  0.3600  0.0372
57274SOL    HW176633   2.348  12.541   5.007  1.9002  0.1670  1.2522
57274SOL    HW276634   2.409  12.456   4.898 -2.6484  0.8527 -2.0970
57275SOL     OW76635   3.856   4.279   8.317 -0.0336  0.7525  0.2865
57275SOL    HW176636   3.779   4.222   8.309  1.1228 -1.0768  1.3786
57275SOL    HW276637   3.858   4.306   8.409  0.2618  1.3465  0.1155
57276SOL     OW76638   9.476   9.141   5.644  0.1929 -0.2032  0.1110
57276SOL    HW176639   9.532   9.154   5.721 -0.5032 -1.0319  0.7886
57276SOL    HW276640   9.395   9.104   5.680 -0.8605  1.0856 -0.8194
57277SOL     OW76641  11.231   9.276   4.313  0.0784  0.6650 -0.3729
57277SOL    HW176642  11.202   9.268   4.404  0.9689  1.0432 -0.0418
57277SOL    HW276643  11.158   9.242   4.262 -1.2242  2.1509  0.3895
57278SOL     OW76644  10.520   4.528   5.988 -0.5674  0.8502  0.1174
57278SOL    HW176645  10.528   4.596   6.055 -1.4966 -0.7022  1.9140
57278SOL    HW276646  10.512   4.576   5.906  1.4640  2.8260  0.9643
57279SOL     OW76647  11.630  10.080   8.838 -0.1401  0.2916  0.1762
57279SOL    HW176648  11.660  10.116   8.755 -0.2065  0.0946  0.0639
57279SOL    HW276649  11.709  10.061   8.887 -0.1202  1.0560  0.4382
57280SOL     OW76650   6.490  12.289  11.618 -0.3619 -0.1973  0.1114
57280SOL    HW176651   6.564  12.330  11.574  1.2267 -0.8867  1.9838
57280SOL    HW276652   6.443  12.243  11.549 -0.2310  1.8713 -1.4550
57281SOL     OW76653   2.168   4.673   0.599  0.2693 -0.0272 -0.3028
57281SOL    HW176654   2.160   4.590   0.551  2.1271  0.8007 -2.1847
57281SOL    HW276655   2.255   4.669   0.640  0.0902  0.7130  0.1725
57282SOL     OW76656  11.763   4.814   9.565 -0.2844 -1.2058  0.4208
57282SOL    HW176657  11.808   4.802   9.649  1.8415 -2.3526 -0.8192
57282SOL    HW276658  11.804   4.892   9.527 -2.2520  0.1990  0.9976
57283SOL     OW76659   0.475   9.830  10.349 -0.1937  0.6072  0.4239
57283SOL    HW176660   0.521   9.864  10.426  1.3393  0.8122 -0.5453
57283SOL    HW276661   0.384   9.859  10.360 -0.2779 -0.3325  2.6980
57284SOL     OW76662   5.381   8.732   7.742  1.1180  0.2417  0.3377
57284SOL    HW176663   5.450   8.763   7.683  0.3257  0.9777 -0.2154
57284SOL    HW276664   5.300   8.748   7.695  0.5428 -0.3471  1.1106
57285SOL     OW76665   9.682  12.013   9.489  0.1085  0.6367  0.0635
57285SOL    HW176666   9.627  12.067   9.546  1.1685  1.2805  0.5085
57285SOL    HW276667   9.752  11.981   9.546 -0.0295 -0.5434 -0.3887
57286SOL     OW76668   4.541   2.816  11.501  0.4999  0.2625 -0.1479
57286SOL    HW176669   4.563   2.723  11.490 -0.7511  0.0277 -0.8914
57286SOL    HW276670   4.495   2.820  11.585  2.3630  0.5909  0.9181
57287SOL     OW76671  12.471  10.551   8.678  0.2244 -0.1543  0.0289
57287SOL    HW176672  12.550  10.595   8.647 -0.6076  2.0737  0.8603
57287SOL    HW276673  12.400  10.613   8.659 -1.0604 -1.2492  1.0371
57288SOL     OW76674   0.569   6.300   1.338 -0.5824  0.1047  0.0325
57288SOL    HW176675   0.543   6.309   1.247 -1.1595  0.0332  0.1901
57288SOL    HW276676   0.566   6.206   1.354  2.0198 -0.1678 -0.6019
57289SOL     OW76677   7.820   5.129  10.950  0.1540  0.2057 -0.1801
57289SOL    HW176678   7.872   5.201  10.985  1.7165 -0.3671 -1.1781
57289SOL    HW276679   7.881   5.055  10.947 -0.6005 -0.4040 -1.7274
57290SOL     OW76680   1.414   5.113   3.288 -0.1108  0.7143 -0.4736
57290SOL    HW176681   1.374   5.186   3.335  0.7982  1.2388 -0.4855
57290SOL    HW276682   1.509   5.129   3.295  0.0569  0.4765 -1.9634
57291SOL     OW76683  10.132   7.170   2.583 -0.4376  0.5967  0.6467
57291SOL    HW176684  10.070   7.236   2.614 -0.3036  0.7253  0.6446
57291SOL    HW276685  10.093   7.086   2.607 -1.3547  0.6061 -0.6955
57292SOL     OW76686   3.872   3.434  11.806  0.2758 -0.3291 -0.4460
57292SOL    HW176687   3.847   3.502  11.744  0.6479 -0.5276 -0.8115
57292SOL    HW276688   3.965   3.449  11.823 -0.3019  1.1381  1.8229
57293SOL     OW76689   9.327  11.076  12.212 -0.1758  1.0720 -0.8828
57293SOL    HW176690   9.329  10.981  12.210 -1.7660  0.9660  0.3196
57293SOL    HW276691   9.271  11.102  12.139 -1.8633  0.9109  0.3052
57294SOL     OW76692   9.741   5.801   2.357 -0.2828 -0.6100  0.1061
57294SOL    HW176693   9.722   5.831   2.268  3.4694  0.0253 -0.6642
57294SOL    HW276694   9.657   5.806   2.403 -1.9579  0.9973 -2.8358
57295SOL     OW76695   3.769   3.470   4.902  0.3075 -0.1389  0.2973
57295SOL    HW176696   3.783   3.503   4.813  1.9177 -2.4012 -0.3905
57295SOL    HW276697   3.702   3.403   4.892  1.0399 -0.9402  0.6197
57296SOL     OW76698   4.481   1.927   5.375  0.0380 -0.2015 -0.0788
57296SOL    HW176699   4.459   2.000   5.318  1.3583  0.5814  0.3679
57296SOL    HW276700   4.438   1.947   5.458 -2.2264 -1.5453 -0.8541
57297SOL     OW76701  11.524   0.903  10.361 -0.4330 -0.4981 -0.7203
57297SOL    HW176702  11.531   0.982  10.307  0.4011 -0.6335 -0.8131
57297SOL    HW276703  11.609   0.861  10.354  0.1375  0.0850  1.6275
57298SOL     OW76704  12.081   7.113   5.298  0.3697  0.1948 -0.4358
57298SOL    HW176705  12.155   7.154   5.343 -0.8663  1.2680  0.7177
57298SOL    HW276706  12.106   7.114   5.205  1.6876  0.7584 -0.1022
57299SOL     OW76707   7.369   5.917   1.989 -0.0844 -0.5751 -0.0843
57299SOL    HW176708   7.440   5.981   1.996 -0.8597  0.1978  1.2196
57299SOL    HW276709   7.385   5.872   1.906  0.6240  1.1477 -0.9343
57300SOL     OW76710   2.647   6.091   0.702 -0.6539 -0.2163  0.6559
57300SOL    HW176711   2.592   6.163   0.671 -0.4390  0.5643  1.9892
57300SOL    HW276712   2.624   6.017   0.646 -1.7903  0.5553  0.0588
57301SOL     OW76713  11.408   3.038   1.598 -0.2341 -0.6492  0.7007
57301SOL    HW176714  11.386   3.035   1.505 -1.2057 -0.9567  0.9356
57301SOL    HW276715  11.353   3.108   1.633  0.2783 -0.3957  1.0105
57302SOL     OW76716   4.679   0.199   0.272 -0.0308 -0.0484 -0.0965
57302SOL    HW176717   4.747   0.229   0.211 -0.3568 -0.2958 -0.5922
57302SOL    HW276718   4.698   0.245   0.354  0.0557  0.7638 -0.5570
57303SOL     OW76719   4.231   2.178   5.886 -0.4013  0.6921  0.1711
57303SOL    HW176720   4.280   2.110   5.932 -0.3160  0.6769  0.0585
57303SOL    HW276721   4.297   2.244   5.863 -0.1653  0.0218 -1.2210
57304SOL     OW76722   3.742   9.866   9.209  0.1726 -0.0363 -0.1179
57304SOL    HW176723   3.807   9.912   9.262 -0.0591  0.4601 -0.2472
57304SOL    HW276724   3.785   9.851   9.125  0.9057 -1.7682  0.5414
57305SOL     OW76725   9.459   2.688  10.702  0.1891  0.3804 -0.4574
57305SOL    HW176726   9.513   2.623  10.747  0.3989 -0.2931 -1.6270
57305SOL    HW276727   9.407   2.636  10.641 -1.1264  1.1228  0.0027
57306SOL     OW76728  11.119   1.132   6.748  0.0214  0.6055 -0.0020
57306SOL    HW176729  11.057   1.059   6.754  0.2310  0.4429  0.2070
57306SOL    HW276730  11.069   1.208   6.779  0.2963  0.2455  1.4043
57307SOL     OW76731   2.798   1.509   2.531  0.6907 -0.4018 -0.2122
57307SOL    HW176732   2.719   1.496   2.583  1.6514 -0.0572  1.4373
57307SOL    HW276733   2.775   1.480   2.443 -0.9572 -1.2402  0.4561
57308SOL     OW76734   0.435  10.852   1.962 -0.0111 -0.2901 -0.1177
57308SOL    HW176735   0.468  10.820   2.046 -0.7730 -1.4082 -0.2275
57308SOL    HW276736   0.341  10.865   1.977  0.1715  1.3863 -0.2448
57309SOL     OW76737  12.541  11.364   9.932  0.4362 -0.0875 -0.6445
57309SOL    HW176738  12.568  11.455   9.948 -0.1497  0.0331 -0.3144
57309SOL    HW276739  12.507  11.365   9.843  0.6128 -0.0280 -0.7131
57310SOL     OW76740  11.731  12.035   3.489 -0.4525 -0.7508  0.1421
57310SOL    HW176741  11.710  12.089   3.565  0.2827 -0.6567  0.2794
57310SOL    HW276742  11.813  11.992   3.511  0.8454  0.8000 -1.3544
57311SOL     OW76743   1.734   1.426  11.579  0.2564  0.4785  0.1054
57311SOL    HW176744   1.738   1.342  11.533 -2.4265  0.6899 -0.6756
57311SOL    HW276745   1.656   1.420  11.633  0.2229  2.3490  0.3102
57312SOL     OW76746   9.674   8.263  12.041 -0.5050  0.1971 -0.4198
57312SOL    HW176747   9.730   8.200  12.086  1.4130  2.2756  0.2503
57312SOL    HW276748   9.734   8.313  11.986 -2.4741 -0.8574 -3.8049
57313SOL     OW76749   6.224   0.156   1.105  0.2288  0.1258 -0.3265
57313SOL    HW176750   6.134   0.149   1.073 -0.6683 -1.6454  2.2874
57313SOL    HW276751   6.268   0.078   1.070  0.4045  0.3124 -0.5291
57314SOL     OW76752  10.845  11.733   0.396  0.0392 -0.5549 -0.2957
57314SOL    HW176753  10.783  11.694   0.457  1.5884 -2.3195  0.2409
57314SOL    HW276754  10.790  11.784   0.336 -1.8651 -1.5410  0.5020
57315SOL     OW76755   3.872   5.598   7.913 -0.0728 -0.1590 -0.0151
57315SOL    HW176756   3.832   5.640   7.837 -0.1732  0.4252  0.3526
57315SOL    HW276757   3.849   5.655   7.987 -1.9001 -1.8440  0.8449
57316SOL     OW76758   4.945  12.598   5.512 -0.0667 -0.8114  0.1550
57316SOL    HW176759   4.958  12.510   5.547 -1.8952 -1.7326 -1.2855
57316SOL    HW276760   4.911  12.584   5.424  1.6897  1.3744 -0.9806
57317SOL     OW76761   5.930   2.818   5.833  1.0140 -0.0022  0.1613
57317SOL    HW176762   6.022   2.838   5.816  0.5800  1.5098 -0.7011
57317SOL    HW276763   5.891   2.809   5.745 -0.2371  2.5427  0.3651
57318SOL     OW76764   8.821  10.968   5.934  0.1269 -0.3019 -0.7873
57318SOL    HW176765   8.744  10.961   5.877 -0.4872 -1.5889  0.1504
57318SOL    HW276766   8.802  11.043   5.991 -0.4040 -0.5701 -0.6073
57319SOL     OW76767   3.837   3.180   7.581  0.3441  0.7686 -0.3376
57319SOL    HW176768   3.829   3.163   7.675  2.7050  1.7661  0.1171
57319SOL    HW276769   3.803   3.269   7.570 -0.7584  0.3293 -0.6146
57320SOL     OW76770   4.671  10.670   8.404  0.4886  0.3341 -0.0424
57320SOL    HW176771   4.578  10.648   8.403  0.6279 -0.3257 -1.8564
57320SOL    HW276772   4.675  10.754   8.450 -0.9005  0.0324  0.6909
57321SOL     OW76773   7.010   4.201  12.564 -0.6735 -0.3092 -0.0253
57321SOL    HW176774   6.920   4.189  12.533 -0.7061 -1.2923  0.4258
57321SOL    HW276775   7.063   4.147  12.506 -0.3849  0.1556 -0.1983
57322SOL     OW76776   3.532   2.793   7.507 -0.2062  0.1734 -0.5916
57322SOL    HW176777   3.572   2.827   7.587 -2.4300  0.5277  0.4209
57322SOL    HW276778   3.606   2.759   7.457  1.5466  2.0821  0.5190
57323SOL     OW76779   4.655   5.957   8.912  0.1900  0.7146  0.2049
57323SOL    HW176780   4.603   5.958   8.832 -0.1344  1.8091  0.4139
57323SOL    HW276781   4.593   5.983   8.981  0.7152  0.7957  0.6552
57324SOL     OW76782  10.391  12.183   8.486  0.0602 -0.5385 -0.1843
57324SOL    HW176783  10.421  12.172   8.396 -2.0795 -0.5647 -0.9546
57324SOL    HW276784  10.442  12.119   8.536  0.2867 -1.5495 -1.6381
57325SOL     OW76785   1.581   8.844   9.569  0.7075 -0.2231  0.5058
57325SOL    HW176786   1.581   8.770   9.629  0.3186  0.1757  1.0050
57325SOL    HW276787   1.659   8.831   9.515  1.1993 -0.4603  1.2629
57326SOL     OW76788  11.944   5.834   2.524 -0.1728 -0.3131 -0.9022
57326SOL    HW176789  11.966   5.882   2.444  1.5967 -1.6661 -1.3025
57326SOL    HW276790  11.930   5.744   2.495 -1.0012 -0.5461  0.1407
57327SOL     OW76791   1.881  10.746   7.476 -0.0218 -0.6893 -0.2453
57327SOL    HW176792   1.890  10.652   7.495  0.5214 -0.7050 -0.5739
57327SOL    HW276793   1.851  10.784   7.559  1.3859 -0.9093  0.3950
57328SOL     OW76794  11.901   7.433   8.942  0.9762 -0.1965  0.1045
57328SOL    HW176795  11.832   7.499   8.950  2.2064  1.0002  1.1381
57328SOL    HW276796  11.863   7.354   8.981  0.2660  0.5153  0.8933
57329SOL     OW76797   1.041   7.314   5.642 -0.6094 -0.0749  0.2708
57329SOL    HW176798   1.001   7.227   5.641  0.8491 -0.7805 -1.6082
57329SOL    HW276799   1.110   7.308   5.708 -0.9383 -0.1294  0.6123
57330SOL     OW76800   8.426   1.071   2.689  0.0263  0.4020 -0.2755
57330SOL    HW176801   8.484   1.128   2.639  0.2274 -0.4035 -1.0052
57330SOL    HW276802   8.478   0.992   2.705 -0.9716 -0.5159 -1.3209
57331SOL     OW76803   7.266  10.725   3.445 -0.0193  0.3241 -0.0332
57331SOL    HW176804   7.262  10.821   3.445 -1.3596  0.2929  1.2493
57331SOL    HW276805   7.183  10.698   3.405  0.2641 -0.3218 -0.1977
57332SOL     OW76806  11.931  10.117   9.808 -0.1148  0.0538  0.3004
57332SOL    HW176807  11.853  10.136   9.756  0.3579  0.7730 -0.1496
57332SOL    HW276808  11.990  10.072   9.747 -0.6715 -1.6727  0.9784
57333SOL     OW76809   8.544   3.474   1.346  0.1254  0.8430  0.5843
57333SOL    HW176810   8.469   3.453   1.290  0.3571  0.9667  0.2270
57333SOL    HW276811   8.536   3.568   1.362 -1.6365  0.3673  3.2240
57334SOL     OW76812  10.594   2.063   7.343 -0.3313 -0.6313 -0.1063
57334SOL    HW176813  10.612   1.992   7.282  0.1794 -2.0330  1.5777
57334SOL    HW276814  10.498   2.065   7.350 -0.5618  0.9883 -2.4751
57335SOL     OW76815   8.273  10.041   3.460  0.4938 -0.2325 -0.5123
57335SOL    HW176816   8.204   9.986   3.496  0.8776 -1.2293 -1.2409
57335SOL    HW276817   8.276  10.117   3.518 -1.0699 -0.2568 -0.3522
57336SOL     OW76818   8.021   2.651   2.609  0.0526 -0.1407 -0.1950
57336SOL    HW176819   8.047   2.723   2.667 -1.7443  0.3779  0.0263
57336SOL    HW276820   8.079   2.579   2.632  0.2302  0.4686  1.3626
57337SOL     OW76821  10.236  11.003   2.882  0.4287 -0.8828  0.3063
57337SOL    HW176822  10.271  10.925   2.840  0.5369 -0.9815  0.5772
57337SOL    HW276823  10.272  11.076   2.832 -1.4073 -1.0149 -1.3601
57338SOL     OW76824  10.080   2.759   7.125 -0.3478  0.1678 -0.5248
57338SOL    HW176825  10.142   2.820   7.166  1.1581 -3.0946  2.7021
57338SOL    HW276826  10.112   2.748   7.036  1.6198  1.2495 -0.0022
57339SOL     OW76827   5.654   0.918   9.932 -0.1665 -0.2772 -0.4797
57339SOL    HW176828   5.611   0.864   9.865 -0.7669 -2.3319  1.4607
57339SOL    HW276829   5.594   0.916  10.006  1.4644  0.1359  0.9112
57340SOL     OW76830   3.912   4.917   2.793 -0.2118  0.1635 -0.0040
57340SOL    HW176831   3.893   4.827   2.819 -0.0519  0.2075  0.2717
57340SOL    HW276832   3.883   4.969   2.868  3.5727  0.0680  1.7331
57341SOL     OW76833   1.646   2.545   2.690 -0.1943 -0.3343 -0.2109
57341SOL    HW176834   1.628   2.502   2.774 -0.1316  1.4239  0.7454
57341SOL    HW276835   1.668   2.473   2.631  2.4365 -1.4954  1.9555
57342SOL     OW76836  11.046   0.605   3.385  0.2937 -0.4653  0.4617
57342SOL    HW176837  11.029   0.528   3.440  0.5456 -2.0640 -1.5655
57342SOL    HW276838  11.060   0.569   3.298 -0.4917  1.9886 -0.7593
57343SOL     OW76839   0.228   9.898   9.841 -0.3701 -0.2593 -0.0127
57343SOL    HW176840   0.164   9.871   9.907  1.2585 -1.7325  1.0877
57343SOL    HW276841   0.244   9.991   9.860 -0.8294 -0.3458  0.8851
57344SOL     OW76842   2.287  12.380   9.853 -0.3162  0.1492 -0.0228
57344SOL    HW176843   2.367  12.430   9.840 -0.2331 -0.2399 -1.1182
57344SOL    HW276844   2.313  12.305   9.906 -0.3455  0.9836  1.2130
57345SOL     OW76845   0.128   2.582   3.502  0.5228  0.1521 -0.4870
57345SOL    HW176846   0.114   2.536   3.419 -1.9664  0.4858 -0.3361
57345SOL    HW276847   0.123   2.514   3.569 -0.2927  0.2411 -0.4490
57346SOL     OW76848   9.413   6.345  10.455  0.8181 -0.0619 -0.0973
57346SOL    HW176849   9.355   6.323  10.528  0.6914  1.6370  0.3564
57346SOL    HW276850   9.353   6.364  10.383  0.6818  2.5747  0.6164
57347SOL     OW76851   9.469   3.640  12.596  0.0349  0.6753  0.2839
57347SOL    HW176852   9.555   3.600  12.586 -0.4751 -0.8609  1.6233
57347SOL    HW276853   9.408   3.566  12.601 -1.4597  1.7261 -1.1450
57348SOL     OW76854   6.460   9.211   3.634  0.1832  0.0149 -0.8726
57348SOL    HW176855   6.493   9.157   3.562 -1.6552 -1.2220 -0.8535
57348SOL    HW276856   6.453   9.150   3.708 -1.8431  0.2409 -0.8273
57349SOL     OW76857   6.724   1.518   4.217  0.0998 -0.3432 -0.2328
57349SOL    HW176858   6.701   1.518   4.310  0.1362  0.0644 -0.2212
57349SOL    HW276859   6.691   1.601   4.184 -3.4279 -2.0534 -1.5038
57350SOL     OW76860   5.784   2.873  10.270  0.1522 -0.2619 -0.7276
57350SOL    HW176861   5.779   2.932  10.344 -0.9682 -0.2552 -0.7890
57350SOL    HW276862   5.745   2.791  10.301  1.7350 -1.0122 -0.6225
57351SOL     OW76863  12.511   0.983   4.303  0.0197  0.9192 -0.3059
57351SOL    HW176864  12.500   1.078   4.310 -0.0413  1.0604 -1.8809
57351SOL    HW276865  12.491   0.963   4.211  1.8017 -0.3538 -0.4786
57352SOL     OW76866   1.286  12.522   5.273  0.6294  0.2815  0.5198
57352SOL    HW176867   1.217  12.485   5.218 -1.0249 -0.3934  2.8810
57352SOL    HW276868   1.351  12.452   5.281  1.0210  0.4782 -0.7116
57353SOL     OW76869   0.762  11.563   1.394  0.0772 -0.5683 -0.1316
57353SOL    HW176870   0.702  11.637   1.391  0.0692 -0.3390  2.7300
57353SOL    HW276871   0.709  11.490   1.426  0.6536 -1.1228 -0.4180
57354SOL     OW76872   1.721  11.015  10.493 -0.2699  0.0161 -0.3359
57354SOL    HW176873   1.711  11.109  10.508 -1.7098 -0.0763 -0.6023
57354SOL    HW276874   1.766  10.983  10.571 -0.7372  0.7477  0.2453
57355SOL     OW76875  11.456   3.436   6.606 -0.5167 -0.4379 -0.1613
57355SOL    HW176876  11.520   3.367   6.589  1.8408  1.2096  1.3446
57355SOL    HW276877  11.406   3.405   6.681 -2.1386 -2.0532 -1.7830
57356SOL     OW76878   4.733   1.405   4.773 -0.6161 -0.4041 -0.5459
57356SOL    HW176879   4.809   1.374   4.724  1.0527  1.0296  1.0165
57356SOL    HW276880   4.697   1.476   4.720 -1.2318 -1.4207 -1.5381
57357SOL     OW76881  10.856   2.382   8.789 -0.0348  0.3586  0.6632
57357SOL    HW176882  10.834   2.316   8.855 -0.0990  0.1277  0.4101
57357SOL    HW276883  10.881   2.331   8.712  0.5864  0.6200  0.6851
57358SOL     OW76884   1.488   3.940   3.445 -0.4465 -0.2484 -0.2823
57358SOL    HW176885   1.483   4.035   3.429  1.2450  0.0487  0.6821
57358SOL    HW276886   1.500   3.932   3.539  0.1116 -1.3925 -0.4382
57359SOL     OW76887   7.413   9.101  11.612  0.2637 -0.2040 -0.4216
57359SOL    HW176888   7.364   9.043  11.671 -1.8414  1.5802 -0.2819
57359SOL    HW276889   7.349   9.128  11.546  1.5787  0.7730 -1.3589
57360SOL     OW76890   9.494   4.271   1.160 -0.4355 -0.1923  0.4613
57360SOL    HW176891   9.474   4.295   1.250 -0.5619  0.8992  0.1629
57360SOL    HW276892   9.566   4.208   1.166 -1.1836 -0.9806  1.3637
57361SOL     OW76893   5.273  11.969   6.789  0.0932 -0.4422 -0.3365
57361SOL    HW176894   5.255  12.059   6.762 -0.1725 -0.6169 -0.7560
57361SOL    HW276895   5.187  11.931   6.808  0.0616 -1.0266 -1.5358
57362SOL     OW76896   2.574  11.111   4.589 -0.5051  0.0523  0.0350
57362SOL    HW176897   2.611  11.090   4.674 -0.3776  0.3537  0.0551
57362SOL    HW276898   2.486  11.145   4.609  0.6220  3.0957  0.3278
57363SOL     OW76899   6.837   8.893   5.797  0.2029 -0.0194  0.0653
57363SOL    HW176900   6.757   8.946   5.787 -0.3820 -0.8313  0.3040
57363SOL    HW276901   6.907   8.947   5.761 -0.4714  0.6782 -0.2192
57364SOL     OW76902   6.800   0.557   4.172  0.1448 -0.5032  0.2510
57364SOL    HW176903   6.771   0.589   4.087 -0.4286  0.4049  0.7640
57364SOL    HW276904   6.887   0.595   4.184  0.8009 -1.7079 -0.4802
57365SOL     OW76905   7.886  12.088   1.517 -0.4037  0.2605  0.0760
57365SOL    HW176906   7.827  12.015   1.536  0.2333  0.1468  1.7284
57365SOL    HW276907   7.946  12.053   1.451 -0.9066 -0.2858 -0.0992
57366SOL     OW76908   7.372   7.365   3.107 -0.3721 -0.3042  0.0379
57366SOL    HW176909   7.320   7.445   3.121 -0.1954 -0.1162 -0.3829
57366SOL    HW276910   7.307   7.295   3.102 -0.6714  0.0699 -1.5851
57367SOL     OW76911   1.257  11.987   6.057 -0.4645 -0.2714 -0.5951
57367SOL    HW176912   1.179  11.938   6.030 -2.3128  2.0011  0.2298
57367SOL    HW276913   1.287  12.030   5.977 -0.2595 -0.8789 -0.8481
57368SOL     OW76914   1.727   2.417   6.902 -0.2416 -0.1637 -0.0606
57368SOL    HW176915   1.648   2.467   6.881 -0.8956 -1.6297 -1.3137
57368SOL    HW276916   1.793   2.483   6.921 -1.7891  1.1145  1.2012
57369SOL     OW76917   3.848   5.059  11.663 -0.3147 -0.4530  0.2862
57369SOL    HW176918   3.899   5.109  11.599 -0.7580  1.7595  1.5411
57369SOL    HW276919   3.811   4.987  11.613  1.6045 -0.4299 -1.3133
57370SOL     OW76920  11.928   1.798  12.191 -0.1176  0.2604  0.5160
57370SOL    HW176921  12.006   1.845  12.221  0.1621  0.2549 -0.1828
57370SOL    HW276922  11.943   1.707  12.219  0.9337 -0.1014 -1.0307
57371SOL     OW76923   1.294   7.160   8.776 -0.6458 -0.0763 -0.2086
57371SOL    HW176924   1.299   7.256   8.781  0.1687 -0.1512  1.2884
57371SOL    HW276925   1.232   7.136   8.845 -0.4311 -0.6389 -0.2101
57372SOL     OW76926   6.224   7.091   1.894 -0.0494  0.3309 -0.2124
57372SOL    HW176927   6.246   7.146   1.819 -1.1240  0.0381 -0.7690
57372SOL    HW276928   6.242   7.002   1.864 -0.6844  0.1946 -0.2238
57373SOL     OW76929   8.578   5.588  12.249  0.1645 -0.1961 -0.3975
57373SOL    HW176930   8.587   5.625  12.161  1.7134 -0.7577 -0.4975
57373SOL    HW276931   8.621   5.503  12.244 -0.0378 -0.3836  0.8183
57374SOL     OW76932  10.776   5.016  11.736  0.6521  0.0618  0.3173
57374SOL    HW176933  10.823   4.987  11.814  1.8094  0.7575 -0.1030
57374SOL    HW276934  10.817   4.969  11.664 -0.7912 -1.0180  0.1450
57375SOL     OW76935  11.399   4.821   1.266  0.1433  0.4950  0.0958
57375SOL    HW176936  11.457   4.889   1.232  0.1166  0.2251 -0.4929
57375SOL    HW276937  11.326   4.870   1.305 -0.5681  0.8277 -1.5326
57376SOL     OW76938   5.023   4.374   5.944 -0.4509  0.6039  0.6790
57376SOL    HW176939   5.112   4.340   5.933 -1.0664 -0.7399 -0.4588
57376SOL    HW276940   4.971   4.298   5.970 -1.7807  0.7293 -1.4022
57377SOL     OW76941   7.228   6.607   6.050  0.5042 -0.0326 -0.1125
57377SOL    HW176942   7.229   6.580   6.142  1.1333 -0.3284 -0.2010
57377SOL    HW276943   7.189   6.533   6.004  1.5365 -0.4977 -0.2607
57378SOL     OW76944   8.364   5.251  10.668 -0.3206 -0.0076  0.3991
57378SOL    HW176945   8.375   5.164  10.631  2.1843  0.4598 -0.1308
57378SOL    HW276946   8.356   5.309  10.593  0.8199  0.5088  0.6590
57379SOL     OW76947   9.150   1.666  12.510 -0.3667  0.1286 -0.2088
57379SOL    HW176948   9.241   1.642  12.526 -0.2841 -0.0051 -0.8296
57379SOL    HW276949   9.108   1.659  12.595  0.4159  1.1584  0.2810
57380SOL     OW76950   4.129   6.280   3.936 -0.5730  0.3912 -0.3731
57380SOL    HW176951   4.183   6.328   3.873 -0.8006  1.1312 -0.0104
57380SOL    HW276952   4.163   6.191   3.933  0.1516  0.6715 -0.7286
57381SOL     OW76953   1.554   9.372  12.165 -0.0019 -0.5299  0.6937
57381SOL    HW176954   1.485   9.410  12.110 -0.5458 -1.7391  0.5238
57381SOL    HW276955   1.591   9.447  12.211 -0.3679  0.3522 -0.3978
57382SOL     OW76956   2.781   2.184   4.292  0.0353 -0.1509 -0.1333
57382SOL    HW176957   2.788   2.157   4.384  1.2535 -0.0553 -0.1915
57382SOL    HW276958   2.759   2.104   4.245  1.3745 -0.6042 -0.0103
57383SOL     OW76959   8.039   9.139  11.328 -0.1554 -0.5872 -0.0468
57383SOL    HW176960   8.036   9.078  11.253 -0.9711 -0.1252 -0.4015
57383SOL    HW276961   8.028   9.083  11.404 -0.1749 -0.9650 -0.3221
57384SOL     OW76962  12.428   8.959   3.144 -0.4040  0.1246  0.1200
57384SOL    HW176963  12.436   8.869   3.112 -0.3908 -0.0608  0.6314
57384SOL    HW276964  12.475   9.012   3.079 -0.8427 -0.1737 -0.4514
57385SOL     OW76965   8.738   6.768   5.132 -0.2609 -0.0244  0.4981
57385SOL    HW176966   8.724   6.711   5.057  0.7993 -1.1027  1.0754
57385SOL    HW276967   8.651   6.787   5.165 -0.6702 -0.6103 -0.2241
57386SOL     OW76968   6.261   6.776   0.295  0.4046  0.4018  0.3458
57386SOL    HW176969   6.286   6.687   0.320 -0.7630  0.5229  2.1560
57386SOL    HW276970   6.339   6.829   0.312  1.7114 -0.4714 -2.4387
57387SOL     OW76971   7.968  12.482   9.076  0.1998 -0.7716 -0.4850
57387SOL    HW176972   7.981  12.403   9.128  2.0520  0.7479  1.5425
57387SOL    HW276973   8.045  12.488   9.019  0.5659  0.0271  0.0685
57388SOL     OW76974   1.579   4.910  10.315 -0.6864  0.5625  0.2733
57388SOL    HW176975   1.493   4.945  10.293 -1.4276 -1.3790 -0.0803
57388SOL    HW276976   1.621   4.895  10.231 -0.7020 -0.1239  0.3814
57389SOL     OW76977   7.739   9.312   7.966 -0.0308  0.3764 -0.0646
57389SOL    HW176978   7.762   9.399   7.934 -1.2498  0.3691 -1.0250
57389SOL    HW276979   7.650   9.321   7.999 -0.1742 -0.5106 -0.1728
57390SOL     OW76980   7.330   7.877   6.139 -0.3013  0.2773 -0.2516
57390SOL    HW176981   7.412   7.924   6.126 -0.2633 -0.1361 -1.6324
57390SOL    HW276982   7.356   7.795   6.181 -0.1321  0.5813  0.2467
57391SOL     OW76983   4.255   3.186   2.163  0.4704  0.7935  0.0868
57391SOL    HW176984   4.183   3.161   2.221 -0.5696  0.8176 -1.1371
57391SOL    HW276985   4.234   3.276   2.136  0.4200  0.4619 -1.0394
57392SOL     OW76986   9.589   0.749   8.628  0.7061 -0.0172  0.3775
57392SOL    HW176987   9.566   0.841   8.615  0.4055 -0.2005 -0.4183
57392SOL    HW276988   9.681   0.743   8.601  0.8169  0.1016  0.7148
57393SOL     OW76989  11.880   5.686   6.696 -0.1983  0.4147 -0.3642
57393SOL    HW176990  11.937   5.615   6.725 -0.3516  0.2144 -0.5479
57393SOL    HW276991  11.826   5.646   6.628  0.5443  1.0252 -1.3343
57394SOL     OW76992  11.239   7.445   3.642 -0.3552 -0.2281 -0.1429
57394SOL    HW176993  11.248   7.449   3.547 -1.7555 -1.1652 -0.3526
57394SOL    HW276994  11.232   7.536   3.670  0.8462  0.0930 -0.8329
57395SOL     OW76995   6.572   0.352   0.127 -0.0761 -0.0319  0.4365
57395SOL    HW176996   6.520   0.272   0.134 -0.5334  0.1340 -0.8224
57395SOL    HW276997   6.606   0.351   0.037  0.3745  0.9108  0.5851
57396SOL     OW76998   8.419   6.518   3.011 -0.0392 -0.6779  0.3326
57396SOL    HW176999   8.354   6.563   3.064 -0.7073 -1.7982  0.4911
57396SOL    HW277000   8.449   6.584   2.948 -1.0136 -0.0264  0.5301
57397SOL     OW77001  11.262   0.185   7.528 -0.1186  0.1027  0.3274
57397SOL    HW177002  11.173   0.194   7.562  0.1048 -1.8897  1.5797
57397SOL    HW277003  11.253   0.131   7.449  0.1225 -1.7052  1.4889
57398SOL     OW77004   6.086   7.883  10.508  0.0625  0.4486 -0.0883
57398SOL    HW177005   6.021   7.904  10.441 -2.0966 -2.4101  0.9322
57398SOL    HW277006   6.128   7.803  10.476  1.9293  1.2888  0.1211
57399SOL     OW77007   6.392   6.523   3.438  0.4075 -0.4103 -0.3324
57399SOL    HW177008   6.333   6.511   3.364 -0.4813 -0.3226  0.3540
57399SOL    HW277009   6.433   6.608   3.423 -1.0922  0.4417  0.1605
57400SOL     OW77010   2.066   4.067   4.080 -0.1355 -0.1104  0.0539
57400SOL    HW177011   2.107   4.067   4.167 -0.8149  0.8977  0.3979
57400SOL    HW277012   2.124   4.119   4.026 -1.1434  1.7305  0.6634
57401SOL     OW77013   0.595   0.568   3.666  0.0686 -0.2251 -0.1177
57401SOL    HW177014   0.667   0.624   3.637 -0.0489  0.2967  0.5813
57401SOL    HW277015   0.551   0.541   3.585 -1.2100  2.4572 -0.3991
57402SOL     OW77016   2.796   5.786   5.149 -0.6163 -0.6591  0.2447
57402SOL    HW177017   2.773   5.733   5.072 -0.5665 -0.8216  0.3412
57402SOL    HW277018   2.889   5.769   5.163 -0.5756 -0.4664  0.2166
57403SOL     OW77019   7.202   8.232   2.900  0.0120  0.2067 -0.4380
57403SOL    HW177020   7.209   8.211   2.807  0.6148 -0.8525 -0.1750
57403SOL    HW277021   7.208   8.328   2.904 -1.9270  0.4182 -1.6346
57404SOL     OW77022  12.036   5.464   0.859 -0.3185 -0.0090 -0.0905
57404SOL    HW177023  12.058   5.521   0.933  0.6551 -0.7574  0.2214
57404SOL    HW277024  11.958   5.417   0.887  0.6801 -1.1146  0.9650
57405SOL     OW77025   2.086  11.432   2.152  0.0278  0.0346  0.5280
57405SOL    HW177026   2.089  11.475   2.066  1.2806  0.0986  0.5793
57405SOL    HW277027   2.000  11.390   2.155 -0.1520  0.2752 -0.6379
57406SOL     OW77028   0.305   6.968   9.140  0.6081  0.0084  0.0424
57406SOL    HW177029   0.353   7.018   9.073  1.0684 -0.0004  0.3664
57406SOL    HW277030   0.218   7.009   9.141  0.0346 -1.0315 -1.7230
57407SOL     OW77031   5.005   1.013  10.714  0.2440 -0.3942 -0.0432
57407SOL    HW177032   5.074   1.050  10.659  0.5781 -0.6113  0.2201
57407SOL    HW277033   4.948   0.966  10.653 -1.3386  2.1446 -0.6972
57408SOL     OW77034   1.003   8.828   5.419 -0.2997  0.1342 -0.2007
57408SOL    HW177035   1.050   8.837   5.502  0.9127  0.7422 -0.9212
57408SOL    HW277036   0.911   8.839   5.442 -0.1223 -1.1165  1.2632
57409SOL     OW77037   8.835   3.254  10.518 -0.3506  0.8147  0.1337
57409SOL    HW177038   8.849   3.333  10.467 -0.5012 -0.7346 -2.4973
57409SOL    HW277039   8.923   3.226  10.544 -0.1888  1.1984  0.0005
57410SOL     OW77040   9.992   2.037   2.930  0.0801 -0.6767  0.2595
57410SOL    HW177041  10.015   2.130   2.934 -0.4162 -0.5222 -0.2591
57410SOL    HW277042   9.896   2.036   2.927  0.1076 -1.1322 -1.0196
57411SOL     OW77043   3.343  12.014  11.332  0.4282 -0.2172  0.2756
57411SOL    HW177044   3.267  12.043  11.382  0.0440 -0.1942 -0.3160
57411SOL    HW277045   3.388  12.094  11.307  0.1268 -0.1891 -0.1787
57412SOL     OW77046   1.223   5.842  12.281 -0.0147  0.2100 -0.4164
57412SOL    HW177047   1.196   5.837  12.189  0.0566  0.6600 -0.4633
57412SOL    HW277048   1.141   5.838  12.330  0.0514 -4.3326 -0.2580
57413SOL     OW77049   4.611   4.362   6.242  0.3831  0.5129  0.0290
57413SOL    HW177050   4.570   4.397   6.321 -0.9400 -1.6407  0.3973
57413SOL    HW277051   4.549   4.382   6.171 -0.3589 -0.8885  0.2346
57414SOL     OW77052   3.078   6.812   1.732 -0.0441  0.6846  0.2181
57414SOL    HW177053   3.131   6.803   1.811 -1.0834 -1.6298  0.7502
57414SOL    HW277054   2.988   6.815   1.764 -0.4392  0.5050 -0.8288
57415SOL     OW77055   5.671   7.823   9.343  0.1936 -0.9262  0.4017
57415SOL    HW177056   5.650   7.754   9.279 -0.3642  0.9992 -1.6049
57415SOL    HW277057   5.587   7.862   9.364  0.5776 -0.4272  1.0367
57416SOL     OW77058   1.718   6.004  10.495  0.1366  0.9881 -0.6221
57416SOL    HW177059   1.647   5.971  10.440  1.7789  1.4839 -3.2319
57416SOL    HW277060   1.713   6.099  10.487 -0.5249  1.1708  1.4295
57417SOL     OW77061   5.932   5.772  11.310  0.6590 -0.0564 -0.5808
57417SOL    HW177062   5.926   5.688  11.264  1.6941 -0.4740  0.0222
57417SOL    HW277063   5.842   5.805  11.311 -0.0476 -1.8727  0.5144
57418SOL     OW77064  11.881   1.919   2.920  0.8094 -0.6468 -0.2751
57418SOL    HW177065  11.820   1.861   2.966  0.1903 -0.0661 -0.3614
57418SOL    HW277066  11.826   1.971   2.862  1.3304  0.2448  0.0239
57419SOL     OW77067   0.191   5.826   3.659 -0.0320 -0.4015  0.0489
57419SOL    HW177068   0.147   5.788   3.735 -1.6092  1.2540  0.0642
57419SOL    HW277069   0.260   5.765   3.637 -1.0595 -2.1185  1.3529
57420SOL     OW77070   4.606   9.850   8.002  0.3623 -0.4544  0.2027
57420SOL    HW177071   4.600   9.760   8.034  1.9040 -0.6054  0.1478
57420SOL    HW277072   4.697   9.860   7.974  0.0367  0.9020 -0.4772
57421SOL     OW77073  11.217  10.295   5.291 -0.1851  0.1451 -0.7881
57421SOL    HW177074  11.207  10.339   5.206  1.0652 -0.2737 -1.1609
57421SOL    HW277075  11.277  10.222   5.274 -1.4753 -1.1680  0.0268
57422SOL     OW77076   2.782   9.836   6.109 -0.2245  0.2510  0.0831
57422SOL    HW177077   2.855   9.884   6.069 -0.4684  0.4336 -0.1448
57422SOL    HW277078   2.790   9.747   6.075 -0.6714  0.5048 -0.6980
57423SOL     OW77079   4.174   8.291   1.319  0.7868 -0.2062 -0.2652
57423SOL    HW177080   4.254   8.267   1.274  0.5172 -0.6273 -0.5257
57423SOL    HW277081   4.104   8.269   1.257  0.3956 -1.0154  0.4529
57424SOL     OW77082   1.143   3.913   6.903 -0.2109  0.0146 -0.7134
57424SOL    HW177083   1.116   3.893   6.993 -1.4316  0.1645 -1.0229
57424SOL    HW277084   1.082   3.981   6.875  1.4756  1.4816 -0.9663
57425SOL     OW77085   1.949  11.548   3.600  0.0922  0.5114 -0.0363
57425SOL    HW177086   1.906  11.614   3.654  1.3827  1.3435  0.0018
57425SOL    HW277087   1.991  11.597   3.530 -0.6185 -0.4657 -1.1998
57426SOL     OW77088  10.455  11.860   7.383 -0.3083  0.2919  0.0821
57426SOL    HW177089  10.445  11.794   7.453  2.4719 -0.1086  0.2012
57426SOL    HW277090  10.515  11.819   7.321 -1.4449  1.3143 -1.7533
57427SOL     OW77091   2.002   5.605  10.308 -0.3088 -0.1580  0.4926
57427SOL    HW177092   1.953   5.684  10.331 -2.2939 -1.0224 -0.5235
57427SOL    HW277093   1.939   5.534  10.321  0.5142 -1.2902 -1.3356
57428SOL     OW77094   3.457  10.495   2.801  0.3849  0.4551  0.4194
57428SOL    HW177095   3.420  10.522   2.717  0.1745  0.8892  0.6459
57428SOL    HW277096   3.467  10.400   2.794  1.1159  0.5715 -0.3962
57429SOL     OW77097   7.003   3.377   0.357 -0.7142  0.2081 -0.0139
57429SOL    HW177098   6.972   3.314   0.423  2.9472 -0.4619  1.2736
57429SOL    HW277099   6.971   3.342   0.274 -1.8304 -1.3079  0.9990
57430SOL     OW77100   5.904   7.885   6.657 -0.2149  0.2961  0.3074
57430SOL    HW177101   5.938   7.815   6.600  4.0434  1.3954  1.1324
57430SOL    HW277102   5.867   7.949   6.596 -1.5334 -1.2986 -0.6540
57431SOL     OW77103   9.638  11.826   1.563  0.0786 -0.0191 -0.1199
57431SOL    HW177104   9.567  11.797   1.621  0.0946  1.2671  0.5646
57431SOL    HW277105   9.713  11.771   1.588 -0.1998 -0.1961  0.3414
57432SOL     OW77106   8.658  12.137   4.033  0.8405  0.3153 -0.2708
57432SOL    HW177107   8.682  12.093   4.114 -2.3408 -0.3454  0.4761
57432SOL    HW277108   8.661  12.230   4.054  1.4128  0.1978  0.1704
57433SOL     OW77109  11.587   8.870   7.906  0.0638  0.2121 -0.3945
57433SOL    HW177110  11.642   8.944   7.933  0.3180 -0.2902  0.4629
57433SOL    HW277111  11.621   8.795   7.954 -0.5403 -0.3678 -0.8522
57434SOL     OW77112   7.123   4.613   9.074 -0.5430 -0.2614  0.4011
57434SOL    HW177113   7.102   4.650   8.988  0.1516 -0.1306  0.2753
57434SOL    HW277114   7.105   4.520   9.066  0.4709 -0.4263 -0.2234
57435SOL     OW77115   7.159  11.969   1.739 -0.4513  0.3549 -0.7208
57435SOL    HW177116   7.243  11.972   1.692  0.2211  1.3370  0.4970
57435SOL    HW277117   7.095  12.001   1.675  0.5514  2.3551 -0.7806
57436SOL     OW77118   7.952   9.274   4.399  0.3065  0.3027  0.1012
57436SOL    HW177119   7.969   9.336   4.470 -1.7092  0.9890  0.0385
57436SOL    HW277120   8.031   9.277   4.346  0.2557  2.9352  0.0379
57437SOL     OW77121   6.203   9.699   0.079 -0.7502 -0.3559  0.2481
57437SOL    HW177122   6.144   9.700   0.154 -2.8628 -2.2751 -1.2891
57437SOL    HW277123   6.269   9.634   0.101 -0.9591 -0.4118  0.7137
57438SOL     OW77124   9.589   2.198  10.879  0.7172  0.1540 -0.1444
57438SOL    HW177125   9.683   2.206  10.893  1.0891 -0.8810 -1.7886
57438SOL    HW277126   9.578   2.111  10.840 -0.7700  0.7326 -1.1017
57439SOL     OW77127   9.751   1.046   1.632  1.3679 -0.3501  0.3691
57439SOL    HW177128   9.673   1.097   1.652 -0.4489 -2.1868 -1.5205
57439SOL    HW277129   9.822   1.110   1.631 -0.4317  1.7433  0.1897
57440SOL     OW77130  10.574   6.645   4.465 -0.7962 -0.1213  0.2766
57440SOL    HW177131  10.502   6.708   4.479  1.0057  1.9939  0.6370
57440SOL    HW277132  10.628   6.654   4.543  1.0503  0.0522 -0.9739
57441SOL     OW77133   8.128  12.546  11.210  0.5702 -0.3997  0.5349
57441SOL    HW177134   8.175  12.473  11.168 -0.3163  0.8305 -2.9328
57441SOL    HW277135   8.043  12.508  11.234 -0.0762 -0.4870 -1.6898
57442SOL     OW77136  12.647   1.846  10.935  0.5449  0.3858 -0.2865
57442SOL    HW177137  12.566   1.797  10.934 -0.1504  1.1499  3.4933
57442SOL    HW277138  12.716   1.780  10.927 -0.3984 -0.6037 -0.4100
57443SOL     OW77139   9.648   5.429   9.912  0.0805 -0.3434  0.4993
57443SOL    HW177140   9.565   5.476   9.923  0.6006  1.0904 -1.2744
57443SOL    HW277141   9.710   5.476   9.969  0.4243  0.7582 -0.7202
57444SOL     OW77142  10.899   5.768   9.556 -0.2558  0.8245 -0.2758
57444SOL    HW177143  10.809   5.737   9.554 -0.0341  0.2083 -0.7573
57444SOL    HW277144  10.910   5.804   9.645 -0.8349  0.5108 -0.0731
57445SOL     OW77145   1.268   7.604  11.593  0.4665  0.1954  0.0256
57445SOL    HW177146   1.338   7.643  11.539  0.4889  0.2602  0.1022
57445SOL    HW277147   1.263   7.660  11.670  0.3026  0.2119  0.0020
57446SOL     OW77148  11.333   2.715  10.716  0.3035 -0.2037 -0.0112
57446SOL    HW177149  11.345   2.802  10.754  0.9206 -0.3007  0.0364
57446SOL    HW277150  11.331   2.730  10.621 -0.4700 -0.0453  0.0267
57447SOL     OW77151   4.633   5.463  10.654 -0.6962  0.5784 -1.2833
57447SOL    HW177152   4.704   5.521  10.682 -1.9433  2.1405 -1.2170
57447SOL    HW277153   4.611   5.412  10.732 -1.7405  2.3465 -0.3720
57448SOL     OW77154   1.104   2.528   5.825 -0.6329 -0.8890 -0.5948
57448SOL    HW177155   1.180   2.545   5.880 -0.4420  0.4593 -1.2201
57448SOL    HW277156   1.137   2.539   5.735 -1.9559  1.8204 -0.8435
57449SOL     OW77157   0.654   8.852   3.515 -0.1983  0.1813  0.2170
57449SOL    HW177158   0.744   8.878   3.535 -0.1696  0.1346  0.1481
57449SOL    HW277159   0.655   8.835   3.421 -0.1452 -0.3554  0.3146
57450SOL     OW77160  10.596   6.756   5.411 -0.8333  0.3224 -0.5251
57450SOL    HW177161  10.648   6.691   5.459 -1.6816 -0.2397 -0.3242
57450SOL    HW277162  10.577   6.824   5.475 -1.9311 -0.4083 -0.0453
57451SOL     OW77163   4.205   0.609   1.173 -0.1098  0.3732  0.0918
57451SOL    HW177164   4.150   0.593   1.095 -1.9187  1.0193  1.1689
57451SOL    HW277165   4.207   0.525   1.218  0.6830  0.0787 -0.4678
57452SOL     OW77166   4.667   1.829  10.111 -0.0495  0.4426 -0.3225
57452SOL    HW177167   4.661   1.855  10.203 -2.0837 -1.7470  0.2786
57452SOL    HW277168   4.622   1.899  10.064 -0.0407  1.0149  0.4990
57453SOL     OW77169  12.269   1.801   2.525 -0.0143 -0.4674 -0.3431
57453SOL    HW177170  12.181   1.808   2.563 -0.6279 -2.4394 -1.2264
57453SOL    HW277171  12.318   1.749   2.589 -0.4170 -1.9524 -1.2049
57454SOL     OW77172   4.770   4.708   5.248  0.3710 -0.1934 -0.9364
57454SOL    HW177173   4.829   4.643   5.285  0.9333  0.1782 -1.1624
57454SOL    HW277174   4.728   4.664   5.174  1.2630 -0.0929 -1.5164
57455SOL     OW77175   3.764  10.340   5.440  0.0696  0.0598 -1.1291
57455SOL    HW177176   3.753  10.249   5.415 -0.5396 -1.0555  2.5484
57455SOL    HW277177   3.856  10.348   5.463  0.0628  0.2967 -1.1768
57456SOL     OW77178   4.806   1.167  10.997 -0.1101  0.4320  0.1374
57456SOL    HW177179   4.758   1.084  11.002 -1.8445  1.4103  0.2966
57456SOL    HW277180   4.850   1.174  11.082 -0.2417 -0.1553  0.2558
57457SOL     OW77181  10.958   1.618   9.467 -0.1289  0.0310  0.1333
57457SOL    HW177182  10.905   1.676   9.523 -0.2218  0.0916 -0.0178
57457SOL    HW277183  10.941   1.530   9.502 -1.2094 -0.0770 -0.6163
57458SOL     OW77184   0.260  12.136   4.661  0.0321  0.1280 -0.6669
57458SOL    HW177185   0.212  12.054   4.645  1.2987 -0.2601 -2.7972
57458SOL    HW277186   0.191  12.201   4.674 -1.0155 -1.0781  0.1644
57459SOL     OW77187   9.114   9.028  10.401  0.0423 -0.3383 -0.3740
57459SOL    HW177188   9.036   9.010  10.350  0.5996  1.8137 -2.1339
57459SOL    HW277189   9.095   9.109  10.449  0.3354 -1.1306  1.1754
57460SOL     OW77190  11.889  12.082   1.351 -0.9842 -0.1651  0.2896
57460SOL    HW177191  11.899  12.072   1.256 -0.5336  0.9506  0.2103
57460SOL    HW277192  11.965  12.038   1.388 -0.6767  0.1919  0.0885
57461SOL     OW77193   7.819   5.889   0.023 -0.4817  0.3718 -0.4392
57461SOL    HW177194   7.794   5.801   0.051  0.6377 -0.3837 -1.6697
57461SOL    HW277195   7.867   5.926   0.097 -1.2050  0.0637  0.1897
57462SOL     OW77196   3.924   2.839   2.672  0.0189 -0.0536 -0.8070
57462SOL    HW177197   3.970   2.918   2.700 -0.6485 -0.1720  0.7818
57462SOL    HW277198   3.869   2.817   2.747  1.5293 -3.0654 -0.4330
57463SOL     OW77199   3.247  12.602   3.473 -0.1831  0.0589 -0.4354
57463SOL    HW177200   3.198  12.534   3.426  0.0529 -0.6136  0.2655
57463SOL    HW277201   3.318  12.626   3.414 -0.7868  0.3586 -1.0654
57464SOL     OW77202   6.662   6.172  10.289  0.3094 -0.3918  0.2351
57464SOL    HW177203   6.727   6.106  10.265 -0.0963 -0.9907  0.7795
57464SOL    HW277204   6.710   6.255  10.286  0.9272 -0.7543 -0.0254
57465SOL     OW77205   1.208  12.565   4.639  0.6884 -0.1644 -0.0762
57465SOL    HW177206   1.235  12.588   4.728 -0.4165  0.0905  0.2140
57465SOL    HW277207   1.289  12.543   4.594  1.3569  0.5407  0.7504
57466SOL     OW77208   9.114   2.707   3.910  0.2807  0.3916 -0.3114
57466SOL    HW177209   9.165   2.657   3.974 -1.3605 -1.4346 -0.3252
57466SOL    HW277210   9.179   2.739   3.847  1.6003 -0.3201  0.6338
57467SOL     OW77211   4.110   0.387   5.960 -0.5034 -0.2232  0.2603
57467SOL    HW177212   4.019   0.411   5.944 -0.3355 -0.3669 -1.0570
57467SOL    HW277213   4.109   0.291   5.965 -0.2855 -0.3127 -0.9624
57468SOL     OW77214   7.526   1.531   1.988 -0.0885 -0.2022 -0.2924
57468SOL    HW177215   7.549   1.623   1.975  1.2868 -0.4764 -0.0008
57468SOL    HW277216   7.457   1.514   1.925 -0.6646  1.1451 -0.0474
57469SOL     OW77217   8.918   6.232  10.981  0.3296  0.0337 -0.2681
57469SOL    HW177218   8.921   6.195  11.070  0.3111 -0.4276 -0.4575
57469SOL    HW277219   8.836   6.281  10.980  0.9778  1.1707  0.4053
57470SOL     OW77220   2.263   0.100   7.801  0.1093 -0.3996  1.1377
57470SOL    HW177221   2.298   0.042   7.869 -0.0321 -3.4292 -1.1716
57470SOL    HW277222   2.327   0.096   7.731 -0.8313  0.8088  0.1645
57471SOL     OW77223  11.179   1.588   7.545  0.1590 -0.6714  0.1053
57471SOL    HW177224  11.267   1.552   7.551  0.6525  0.1606 -1.5041
57471SOL    HW277225  11.128   1.520   7.500 -0.0296 -1.1472  1.0254
57472SOL     OW77226   2.618   0.176   0.930 -0.1737 -0.7056  0.4307
57472SOL    HW177227   2.565   0.245   0.889  0.5631 -1.3371 -1.7170
57472SOL    HW277228   2.677   0.224   0.989 -0.3221  0.4243 -0.3010
57473SOL     OW77229   4.524   8.230  12.153 -0.2463 -0.7724  0.0975
57473SOL    HW177230   4.429   8.233  12.153 -0.3409 -0.9724 -2.8590
57473SOL    HW277231   4.551   8.320  12.133  0.0655 -1.0769 -0.9500
57474SOL     OW77232   3.826   5.339   6.516  0.0766 -0.9862  0.5115
57474SOL    HW177233   3.876   5.369   6.440 -0.0829 -2.2059 -0.1063
57474SOL    HW277234   3.890   5.289   6.568 -0.2881 -1.8891  0.1154
57475SOL     OW77235  12.270   9.329   5.213  0.4590 -0.0308 -0.7623
57475SOL    HW177236  12.274   9.411   5.262  0.2904  0.0981 -0.9621
57475SOL    HW277237  12.190   9.286   5.245 -1.2836  1.3507 -2.9262
57476SOL     OW77238   1.065   0.232   6.592 -0.2972 -0.1104  0.3039
57476SOL    HW177239   1.014   0.170   6.643  0.3894  0.3218  1.5678
57476SOL    HW277240   1.128   0.177   6.544  0.6943 -0.4102  1.8571
57477SOL     OW77241   4.016   9.246   5.025  0.1217  0.5046 -0.3749
57477SOL    HW177242   3.935   9.196   5.031 -0.0143  0.6196 -1.1997
57477SOL    HW277243   4.069   9.215   5.099  0.0238 -0.8277 -0.8330
57478SOL     OW77244  11.526   0.721   5.899  0.3926  0.4189 -0.4507
57478SOL    HW177245  11.567   0.756   5.978  0.1934  0.4172 -0.3454
57478SOL    HW277246  11.546   0.627   5.902 -1.2283  0.0631  0.6094
57479SOL     OW77247   2.575   3.006   4.556 -0.2984  0.2336 -0.4280
57479SOL    HW177248   2.615   3.092   4.547 -0.3669  0.2766 -0.3301
57479SOL    HW277249   2.502   3.007   4.495  0.9109 -0.4919 -1.9479
57480SOL     OW77250   1.282   7.261   5.215 -0.2533  0.3027  0.3614
57480SOL    HW177251   1.322   7.347   5.218 -0.0789  0.1853  1.8176
57480SOL    HW277252   1.307   7.219   5.297 -0.2158 -1.1944 -0.3802
57481SOL     OW77253   1.890   5.322   5.746  0.3356 -0.0035  0.1130
57481SOL    HW177254   1.914   5.231   5.729  0.3997  0.0081  0.1423
57481SOL    HW277255   1.889   5.329   5.842  0.7367  0.1337  0.1126
57482SOL     OW77256   9.234   4.326  10.923  0.0459 -0.3914  1.1323
57482SOL    HW177257   9.183   4.256  10.964 -0.5578  0.5100  1.9596
57482SOL    HW277258   9.170   4.396  10.908 -0.1723 -1.2067 -2.8815
57483SOL     OW77259  11.147   3.958   3.215 -0.2005 -0.4130 -0.5333
57483SOL    HW177260  11.146   4.043   3.259  1.1821 -0.8417  0.3829
57483SOL    HW277261  11.195   3.974   3.133  1.6412 -0.6671  0.4647
57484SOL     OW77262   4.502   1.864   8.047  0.0423  0.1418 -0.3014
57484SOL    HW177263   4.466   1.804   8.112  0.8370  2.2745  2.3214
57484SOL    HW277264   4.523   1.809   7.971 -1.6978 -2.3539  0.9053
57485SOL     OW77265   2.310   2.635   7.981 -0.6878  0.0014  0.4133
57485SOL    HW177266   2.359   2.583   7.917  1.9961 -1.6927  3.5287
57485SOL    HW277267   2.225   2.592   7.987 -0.4349 -0.7318 -0.8393
57486SOL     OW77268   6.048   6.484  10.330  0.1853  0.2277  0.1636
57486SOL    HW177269   6.015   6.395  10.342 -1.7260  0.9368  0.4098
57486SOL    HW277270   6.128   6.473  10.278  1.1710 -1.7874  1.9472
57487SOL     OW77271   6.909   6.715   5.281 -0.2585 -0.0501  0.3027
57487SOL    HW177272   6.985   6.689   5.231 -0.3734  0.6644 -0.2642
57487SOL    HW277273   6.849   6.640   5.276 -0.2518 -0.0019 -0.5956
57488SOL     OW77274   8.616   9.101  10.559 -0.0478 -0.2733  0.1638
57488SOL    HW177275   8.662   9.061  10.485 -0.3533  1.9708 -1.3574
57488SOL    HW277276   8.686   9.127  10.619  0.2266 -1.7956  0.5422
57489SOL     OW77277  11.198   0.122   3.739 -0.0686  0.6410  0.8784
57489SOL    HW177278  11.208   0.200   3.794 -1.2755 -0.7112  3.2202
57489SOL    HW277279  11.108   0.093   3.756  0.4649 -1.4577  0.3820
57490SOL     OW77280   2.488   8.273   4.756  0.2489  0.3419 -0.3402
57490SOL    HW177281   2.567   8.311   4.794  0.2324  0.2406 -0.2005
57490SOL    HW277282   2.419   8.292   4.820  0.4892 -1.0729  0.3943
57491SOL     OW77283   9.639   8.420   4.761  0.3573  0.2337 -0.6106
57491SOL    HW177284   9.582   8.422   4.839 -1.2882 -0.3014 -1.7401
57491SOL    HW277285   9.716   8.470   4.787  0.0225 -0.2258  1.4809
57492SOL     OW77286   0.499  10.887   2.477 -0.1347 -0.5745 -0.0358
57492SOL    HW177287   0.539  10.948   2.538  1.4513 -1.7183  0.1199
57492SOL    HW277288   0.411  10.873   2.512 -0.0933  0.6251  0.6125
57493SOL     OW77289  10.227   9.607   8.501  0.2221  0.0618  0.0343
57493SOL    HW177290  10.237   9.516   8.473 -1.8488  0.1560 -1.2537
57493SOL    HW277291  10.187   9.651   8.425  1.4166  2.1305  0.5137
57494SOL     OW77292   2.895   3.233   5.275 -0.1749  0.3404  0.2822
57494SOL    HW177293   2.904   3.315   5.227 -0.3039  0.2804  0.1538
57494SOL    HW277294   2.802   3.226   5.294 -0.2249  0.0271 -0.0606
57495SOL     OW77295   4.100  11.002   6.285 -0.1417  0.1485 -0.2849
57495SOL    HW177296   4.096  11.082   6.338  0.3205  1.1480 -1.6723
57495SOL    HW277297   4.030  10.947   6.318 -0.6427  1.2515  0.5436
57496SOL     OW77298   5.386  10.869   3.623 -0.0898  0.5513  0.5680
57496SOL    HW177299   5.334  10.926   3.566 -0.9570  1.1947  1.9419
57496SOL    HW277300   5.459  10.924   3.652  1.3606 -0.3165 -1.2668
57497SOL     OW77301   2.205   7.870   7.085 -0.4210 -0.6230 -0.2314
57497SOL    HW177302   2.232   7.780   7.069 -0.0300 -0.6857  0.6981
57497SOL    HW277303   2.114   7.864   7.112 -0.2531 -0.7961  0.3106
57498SOL     OW77304   5.858   7.411   1.891  0.2175  0.1210  0.1679
57498SOL    HW177305   5.765   7.396   1.874  0.4131  0.1987 -1.0046
57498SOL    HW277306   5.896   7.323   1.890  0.4804  0.2285 -1.3997
57499SOL     OW77307  11.007   4.440   7.390 -0.4535  0.2685  0.0999
57499SOL    HW177308  11.061   4.492   7.450 -1.5899  0.5718  0.8945
57499SOL    HW277309  10.963   4.376   7.447 -0.9282  0.0263 -0.5316
57500SOL     OW77310  10.242  11.294  10.965 -0.1410 -0.2656  0.6511
57500SOL    HW177311  10.261  11.201  10.977 -1.6476 -0.5897  0.7714
57500SOL    HW277312  10.159  11.295  10.916  0.4133  1.0202 -0.3295
57501SOL     OW77313   2.233   8.372  12.174 -0.1330  0.2970  0.3096
57501SOL    HW177314   2.321   8.341  12.152 -0.7984 -0.0723 -2.1170
57501SOL    HW277315   2.211   8.327  12.255  0.3449 -2.8491 -1.1752
57502SOL     OW77316   8.657   0.443   3.589 -0.5335  0.1895  0.3053
57502SOL    HW177317   8.666   0.520   3.533 -0.3070  0.9966  1.4203
57502SOL    HW277318   8.705   0.374   3.542  0.6826  1.1499  0.0677
57503SOL     OW77319  11.198   9.298   5.388  0.2087 -0.2663 -0.1757
57503SOL    HW177320  11.143   9.241   5.334 -1.5240  1.2373 -0.0871
57503SOL    HW277321  11.141   9.328   5.458  0.6624  2.4774 -0.8584
57504SOL     OW77322  10.611   9.215  11.669 -0.8701 -0.3404  0.3491
57504SOL    HW177323  10.570   9.168  11.742 -1.3256  0.7887  0.8495
57504SOL    HW277324  10.632   9.301  11.705 -0.4343 -0.0143 -0.6554
57505SOL     OW77325   5.305   5.814   1.362  0.3218 -0.2754  0.2341
57505SOL    HW177326   5.296   5.765   1.443  0.0385 -1.1557 -0.3135
57505SOL    HW277327   5.254   5.765   1.298  0.2237  0.6151 -0.3925
57506SOL     OW77328  11.064   1.051   7.146  0.6118 -0.4340 -0.5860
57506SOL    HW177329  11.120   0.975   7.132  1.4406  0.1106 -0.2847
57506SOL    HW277330  11.000   1.021   7.211  0.9946 -0.8480 -0.3923
57507SOL     OW77331   0.117   2.565  12.441 -0.4223 -0.0420 -0.3255
57507SOL    HW177332   0.143   2.633  12.503  1.3467 -0.4964 -0.5223
57507SOL    HW277333   0.058   2.609  12.380  0.1312  1.1364 -0.0407
57508SOL     OW77334   0.188  11.768   7.135 -0.0433  0.3789 -0.2441
57508SOL    HW177335   0.268  11.802   7.097  0.4065  0.5929  0.8622
57508SOL    HW277336   0.215  11.727   7.217 -1.2848  2.2434  1.1866
57509SOL     OW77337   1.181   0.270  11.126  0.6674 -0.8308  0.4809
57509SOL    HW177338   1.264   0.245  11.167  0.8818 -0.9125 -0.0055
57509SOL    HW277339   1.114   0.228  11.180  0.8513  0.5563  1.8596
57510SOL     OW77340   4.032   5.261   9.972  0.7105  0.0557  0.1336
57510SOL    HW177341   4.026   5.326  10.042 -1.2870 -0.1383  0.1973
57510SOL    HW277342   3.979   5.297   9.901  0.2981 -1.0837 -0.1664
57511SOL     OW77343  10.798  12.291  10.317 -0.2062 -0.1232 -0.6163
57511SOL    HW177344  10.819  12.214  10.370 -0.6814  0.9233  1.1924
57511SOL    HW277345  10.704  12.301  10.328 -0.1095  0.8363 -0.6462
57512SOL     OW77346   9.586   2.228  10.283 -0.3852 -0.0971 -0.4309
57512SOL    HW177347   9.681   2.224  10.289 -0.3993 -0.6585 -0.5185
57512SOL    HW277348   9.556   2.188  10.365 -0.5432  0.6523 -0.1198
57513SOL     OW77349   7.638   9.733  10.824  0.0838 -0.5332  0.1616
57513SOL    HW177350   7.617   9.826  10.814 -0.7375 -0.9391 -2.5191
57513SOL    HW277351   7.593   9.708  10.904 -1.4856  0.9082 -0.2019
57514SOL     OW77352   3.263   1.080  12.355  0.2074  0.7612  0.6181
57514SOL    HW177353   3.267   1.048  12.445  0.3171 -2.4308 -0.3597
57514SOL    HW277354   3.170   1.078  12.333  0.3407 -0.8214  0.0203
57515SOL     OW77355   2.784  11.909   5.914  0.4619  0.7221  0.1389
57515SOL    HW177356   2.852  11.954   5.864  0.9193 -1.3389 -1.2219
57515SOL    HW277357   2.809  11.921   6.005  0.6229  3.0232 -0.1400
57516SOL     OW77358   0.677   7.298   7.076 -0.2264  0.1469  0.3698
57516SOL    HW177359   0.761   7.279   7.034 -0.6637 -0.1818 -0.3576
57516SOL    HW277360   0.701   7.343   7.157  0.6677 -0.2237  0.3225
57517SOL     OW77361   2.627   5.256   8.797 -0.0998  0.1479 -0.0963
57517SOL    HW177362   2.568   5.197   8.844 -0.0917 -0.1170 -0.4161
57517SOL    HW277363   2.578   5.281   8.718  0.2057 -0.0579 -0.3525
57518SOL     OW77364   5.913   6.357  12.020  0.2390 -0.8369 -0.1283
57518SOL    HW177365   5.977   6.414  12.063 -0.0840 -1.4618  1.2423
57518SOL    HW277366   5.912   6.277  12.073 -0.9454 -1.2389 -0.7080
57519SOL     OW77367  12.549  10.875  10.265 -0.3913 -0.0409  0.1620
57519SOL    HW177368  12.644  10.883  10.256 -0.2132  1.3792  2.3185
57519SOL    HW277369  12.526  10.942  10.330 -2.9099 -0.1973 -0.4589
57520SOL     OW77370   4.823  10.944   2.482 -0.8992  0.1787  0.0537
57520SOL    HW177371   4.779  10.994   2.550 -0.4236  0.1454  0.3873
57520SOL    HW277372   4.754  10.923   2.419 -0.8402  2.7533 -1.0151
57521SOL     OW77373   2.572   8.264  10.062 -0.7908  0.3904 -0.6341
57521SOL    HW177374   2.524   8.328  10.114 -0.9597  1.0986 -1.6481
57521SOL    HW277375   2.509   8.193  10.047 -1.1638  0.7900 -0.9846
57522SOL     OW77376   2.016   9.741  10.767 -0.2398 -0.1032 -0.2074
57522SOL    HW177377   1.941   9.730  10.825 -0.8786 -1.8193 -1.2914
57522SOL    HW277378   2.007   9.671  10.702  2.4399 -0.5620 -0.2113
57523SOL     OW77379   0.483   5.135   6.965  0.3112 -0.7647  0.0799
57523SOL    HW177380   0.517   5.086   7.040 -0.4710 -0.2860  0.7631
57523SOL    HW277381   0.453   5.218   7.002 -1.2165 -1.0135 -0.5443
57524SOL     OW77382   6.087   9.083   1.164  0.1492  0.2396  0.2360
57524SOL    HW177383   6.172   9.112   1.132  0.2791  0.4963  0.7880
57524SOL    HW277384   6.027   9.154   1.140 -0.1877 -0.5438 -1.3522
57525SOL     OW77385   0.788   4.741   0.407 -0.7388  0.0519 -0.0604
57525SOL    HW177386   0.724   4.720   0.339 -0.1488 -1.2103 -0.2748
57525SOL    HW277387   0.857   4.789   0.361 -0.6114 -0.3060 -0.2514
57526SOL     OW77388   7.763  12.002   6.185  0.2030  0.1802 -0.0250
57526SOL    HW177389   7.820  12.071   6.219  0.6009 -0.0243 -0.2767
57526SOL    HW277390   7.738  12.031   6.098 -0.0885  0.2731  0.0874
57527SOL     OW77391   6.341   0.927   6.274 -0.2250  0.2526 -0.1955
57527SOL    HW177392   6.247   0.945   6.276  0.1043  2.3862 -0.8822
57527SOL    HW277393   6.352   0.866   6.201 -0.7353  3.0273 -2.7773
57528SOL     OW77394   7.863   6.704   6.212 -0.4634  0.6310 -0.2342
57528SOL    HW177395   7.803   6.707   6.287 -0.8512 -1.0506 -0.4286
57528SOL    HW277396   7.938   6.654   6.243 -0.7846 -0.4011 -1.0387
57529SOL     OW77397   3.148   2.034  12.243  0.1000 -0.4535 -0.0830
57529SOL    HW177398   3.140   2.028  12.338 -0.7772  1.3149 -0.0008
57529SOL    HW277399   3.151   2.128  12.225  0.8409 -0.7610 -1.7737
57530SOL     OW77400   4.069   2.530   0.108  0.2371  0.0693 -0.0503
57530SOL    HW177401   4.049   2.620   0.082  1.1637 -0.0956 -1.4333
57530SOL    HW277402   4.164   2.528   0.119  0.4856 -1.1184 -1.8011
57531SOL     OW77403   3.078   2.790   0.821 -0.2344  0.0521 -0.3691
57531SOL    HW177404   3.126   2.807   0.740  0.0547 -0.3926 -0.2990
57531SOL    HW277405   3.021   2.716   0.800  0.4359 -0.6067  0.0494
57532SOL     OW77406   4.884   3.232   2.223 -0.1312 -0.2054 -0.0727
57532SOL    HW177407   4.911   3.242   2.314 -1.8931 -1.6715  0.6581
57532SOL    HW277408   4.910   3.143   2.200  0.3248  0.1593 -1.0405
57533SOL     OW77409   7.685   7.448  10.750 -0.3170 -0.1113  0.0873
57533SOL    HW177410   7.629   7.372  10.733  0.0829 -0.1647 -1.0895
57533SOL    HW277411   7.774   7.413  10.749 -0.1892  0.1675  0.8119
57534SOL     OW77412  10.432   2.992   8.781  0.3461 -0.0039 -0.2814
57534SOL    HW177413  10.356   2.970   8.727  1.1785 -1.5672 -0.8634
57534SOL    HW277414  10.501   3.012   8.718  0.9271 -0.4193  0.2138
57535SOL     OW77415   8.038  10.711   7.866 -0.2787 -0.4520 -0.6269
57535SOL    HW177416   7.950  10.699   7.902 -0.4261 -1.3134 -1.2429
57535SOL    HW277417   8.026  10.767   7.790  0.0526  1.4935  0.6826
57536SOL     OW77418   1.067   8.692   1.413  0.1054  0.7982 -0.5025
57536SOL    HW177419   1.130   8.656   1.476 -0.3310 -1.0787 -1.0611
57536SOL    HW277420   1.109   8.681   1.328  0.2061  2.2498 -0.6590
57537SOL     OW77421   2.252   4.875   1.932 -0.2658 -0.0746 -0.3449
57537SOL    HW177422   2.311   4.943   1.901 -0.3548 -0.2005 -0.8042
57537SOL    HW277423   2.165   4.915   1.926 -0.1518  0.5791  1.5685
57538SOL     OW77424   1.571  11.408   8.268 -0.0010  0.2265 -0.3064
57538SOL    HW177425   1.621  11.463   8.209 -1.3283  0.0519 -1.6576
57538SOL    HW277426   1.493  11.382   8.217  0.2942 -2.4450  0.4233
57539SOL     OW77427   8.662   7.104   2.635  0.2070  0.2952  0.1472
57539SOL    HW177428   8.632   7.189   2.603  0.8763  0.6619  0.4757
57539SOL    HW277429   8.618   7.040   2.578  1.0535  0.9098 -1.2583
57540SOL     OW77430   7.327   2.140   2.970  0.2604  0.1298  0.3222
57540SOL    HW177431   7.379   2.085   2.912  0.3327  0.3808  0.1482
57540SOL    HW277432   7.283   2.201   2.912  0.2020  0.2728  0.5169
57541SOL     OW77433   4.086   9.569  12.041 -0.0476  0.5565 -0.7278
57541SOL    HW177434   4.015   9.627  12.070  0.5248  1.3956 -0.9725
57541SOL    HW277435   4.099   9.591  11.949  0.4830  0.3524 -0.7073
57542SOL     OW77436  11.304   7.727   8.088  0.1672  0.7006  0.0243
57542SOL    HW177437  11.363   7.680   8.147  1.9783  0.6452 -1.7503
57542SOL    HW277438  11.361   7.773   8.027 -1.5353 -0.5227 -2.7063
57543SOL     OW77439   8.574  10.561   9.106  0.1788 -0.0592  0.3288
57543SOL    HW177440   8.670  10.558   9.108  0.1801 -0.0701  0.2269
57543SOL    HW277441   8.551  10.536   9.017  0.1089  0.6671  0.1368
57544SOL     OW77442   9.868   8.250  12.498  0.3834 -0.5158 -0.3427
57544SOL    HW177443   9.877   8.273  12.406  1.0399 -0.7202 -0.3329
57544SOL    HW277444   9.922   8.172  12.509 -0.4265 -1.0409  0.0113
57545SOL     OW77445  10.363   6.370  10.039  0.2611 -0.2119 -0.8825
57545SOL    HW177446  10.315   6.378   9.957 -0.5941 -1.3760 -0.5341
57545SOL    HW277447  10.430   6.304  10.022 -0.7716 -1.4533 -0.3096
57546SOL     OW77448   3.834   0.510   1.565  0.1117 -0.3129  0.1090
57546SOL    HW177449   3.800   0.421   1.553 -0.1620 -0.1755 -0.1610
57546SOL    HW277450   3.914   0.513   1.513  0.8077 -0.7824  1.1167
57547SOL     OW77451   3.640  11.638   2.336 -0.2959 -0.4012 -0.0827
57547SOL    HW177452   3.663  11.670   2.423  1.7864 -1.7562 -0.0490
57547SOL    HW277453   3.724  11.628   2.291 -0.7890 -4.3871 -0.5233
57548SOL     OW77454   0.220   0.075   1.685 -0.1486  0.0662 -0.2114
57548SOL    HW177455   0.214   0.106   1.595  0.7756 -1.9250 -1.0061
57548SOL    HW277456   0.142   0.020   1.697  0.0977 -0.2563 -0.0485
57549SOL     OW77457   4.914   0.978   9.600  0.0651 -0.0343 -0.8793
57549SOL    HW177458   4.819   0.978   9.618  0.5805 -1.5358  2.8462
57549SOL    HW277459   4.942   1.068   9.621 -0.1920 -0.3684  1.1475
57550SOL     OW77460   4.514   7.847   3.427 -0.1409  0.1372 -0.2891
57550SOL    HW177461   4.515   7.942   3.438  2.8586  0.1096  0.5702
57550SOL    HW277462   4.463   7.815   3.501  1.9996  0.9808  1.6737
57551SOL     OW77463   1.290   9.878   6.247  0.1561  0.0891  0.1313
57551SOL    HW177464   1.367   9.889   6.303  0.4782 -0.3932 -0.2092
57551SOL    HW277465   1.248   9.798   6.279 -0.8474  0.9437  1.0504
57552SOL     OW77466   5.594   4.680   3.913  0.2777 -0.1004  0.0123
57552SOL    HW177467   5.566   4.702   4.001  2.8184  0.4680  0.7687
57552SOL    HW277468   5.595   4.763   3.866  1.2860  0.0118  0.2091
57553SOL     OW77469   5.925   8.795   9.332 -0.2262  0.4417 -0.3029
57553SOL    HW177470   5.893   8.777   9.244 -0.3430 -0.9308 -0.0117
57553SOL    HW277471   5.845   8.806   9.384 -0.1848  0.1412 -0.1708
57554SOL     OW77472   1.970   7.550   6.608  0.6005 -0.4404 -0.0825
57554SOL    HW177473   2.043   7.491   6.626  0.0677 -0.7136  1.3279
57554SOL    HW277474   1.904   7.494   6.567 -0.5788 -1.3261  2.7731
57555SOL     OW77475   5.388   3.397   4.674 -0.0747 -0.1546 -0.3524
57555SOL    HW177476   5.467   3.395   4.729 -1.1721  0.0120  1.3122
57555SOL    HW277477   5.316   3.410   4.736 -1.3124  0.9555 -1.9367
57556SOL     OW77478  10.205   3.309   1.070 -0.5141  0.0973  0.5179
57556SOL    HW177479  10.154   3.365   1.128 -0.3248 -0.3989  1.1887
57556SOL    HW277480  10.159   3.225   1.071  0.7583 -0.6452  1.8641
57557SOL     OW77481   3.376   4.247   8.372  0.7010  0.1808 -0.0212
57557SOL    HW177482   3.450   4.207   8.418 -0.5106 -0.7405  1.1978
57557SOL    HW277483   3.299   4.219   8.421 -0.5037  0.8090 -1.4713
57558SOL     OW77484   7.107   3.353   2.083 -0.4267  0.3878  0.3731
57558SOL    HW177485   7.087   3.261   2.101 -1.1696  0.5099  0.1756
57558SOL    HW277486   7.048   3.402   2.141  0.2495  0.7462  0.7806
57559SOL     OW77487  11.286  10.830   1.563 -0.2191  0.4429  0.3885
57559SOL    HW177488  11.296  10.774   1.640  0.3580 -0.4940 -0.3440
57559SOL    HW277489  11.357  10.893   1.569  1.1545 -0.9339 -0.4166
57560SOL     OW77490  10.649   1.544   1.290 -0.1138  0.2156  0.2809
57560SOL    HW177491  10.655   1.554   1.195 -0.3077  3.0003  0.4736
57560SOL    HW277492  10.739   1.536   1.320  0.1317  1.5733 -0.0129
57561SOL     OW77493  10.259   5.091  12.103 -0.2223  0.1649  0.0420
57561SOL    HW177494  10.282   5.029  12.034  0.1226  0.0156  0.2872
57561SOL    HW277495  10.316   5.068  12.176  0.7816  1.5229 -0.2650
57562SOL     OW77496   6.173   5.498  10.775  0.2275  0.1466  0.2082
57562SOL    HW177497   6.077   5.504  10.772  0.2596  0.5161 -0.2333
57562SOL    HW277498   6.203   5.586  10.750  0.6936 -0.2450 -0.6373
57563SOL     OW77499   8.035   4.568   8.563  0.1380 -0.5882  0.3658
57563SOL    HW177500   8.005   4.638   8.505  1.5265 -1.9112 -2.1377
57563SOL    HW277501   7.982   4.492   8.539 -1.2249 -0.5673  2.9172
57564SOL     OW77502   7.465   5.433   8.218  0.1582 -0.2247  0.3428
57564SOL    HW177503   7.530   5.389   8.163 -0.1951  0.4121 -0.6048
57564SOL    HW277504   7.388   5.441   8.162 -0.2406  0.3760  0.9618
57565SOL     OW77505   5.920  11.958   3.093 -0.0038 -0.3482 -0.0963
57565SOL    HW177506   6.002  11.945   3.140  0.1573  0.8640 -0.0014
57565SOL    HW277507   5.852  11.938   3.157  0.1205  4.1095  1.8251
57566SOL     OW77508   4.983   9.710  10.554  0.1473 -0.5300 -0.0379
57566SOL    HW177509   5.001   9.716  10.648  0.6232 -0.7757 -0.1133
57566SOL    HW277510   4.930   9.632  10.545  0.3808 -0.6918 -0.0147
57567SOL     OW77511   0.746   4.689  12.243 -0.2994 -0.4061  0.7316
57567SOL    HW177512   0.774   4.598  12.253  0.7522 -0.3065 -0.9604
57567SOL    HW277513   0.827   4.737  12.227 -1.0197  0.5360 -0.2204
57568SOL     OW77514   0.797   7.492   6.018  0.3475  0.4792 -0.2253
57568SOL    HW177515   0.793   7.404   6.055  0.7240  0.5901  0.0926
57568SOL    HW277516   0.825   7.479   5.927 -1.0307  0.1671 -0.6286
57569SOL     OW77517   0.447   2.385   1.989  0.0103 -0.4608 -0.3458
57569SOL    HW177518   0.400   2.344   2.061  2.5115 -0.9449  1.1215
57569SOL    HW277519   0.390   2.374   1.913 -0.8347 -3.8354  0.6350
57570SOL     OW77520   9.671   4.931   9.276 -0.1116 -0.4756 -0.2579
57570SOL    HW177521   9.629   4.845   9.275 -0.1077 -0.5008  0.8951
57570SOL    HW277522   9.599   4.993   9.268 -0.5708 -0.4760  2.8590
57571SOL     OW77523   5.939   3.449   2.289 -0.9056 -0.2591 -0.1381
57571SOL    HW177524   6.005   3.394   2.246 -0.8060  0.0729 -0.4204
57571SOL    HW277525   5.984   3.532   2.303 -0.5765 -0.7001  1.6202
57572SOL     OW77526   2.476   9.282   3.009 -0.5833  0.5223  0.0129
57572SOL    HW177527   2.523   9.347   3.062  2.0922 -1.4952  0.3443
57572SOL    HW277528   2.509   9.296   2.920 -0.8964  0.3769 -0.1288
57573SOL     OW77529   1.109   7.562   7.437 -0.5661  0.6195 -0.2121
57573SOL    HW177530   1.140   7.482   7.478 -3.1864 -0.7263 -0.6456
57573SOL    HW277531   1.109   7.627   7.508 -0.9601 -0.5180  0.8742
57574SOL     OW77532   5.238   5.443  10.914  0.3831 -0.0080  0.7217
57574SOL    HW177533   5.284   5.382  10.857 -3.1760 -1.7153 -0.6509
57574SOL    HW277534   5.197   5.505  10.854 -0.1056  0.6857  1.7490
57575SOL     OW77535   4.025  11.379   8.866 -0.5368 -0.4187 -0.0473
57575SOL    HW177536   3.944  11.378   8.815 -0.2831  1.3041 -0.5738
57575SOL    HW277537   4.004  11.330   8.945 -1.8199 -0.7568 -0.5677
57576SOL     OW77538   3.185   9.867   5.838  0.3887 -0.4257 -0.1427
57576SOL    HW177539   3.136   9.793   5.801 -2.6116  1.1898  0.2963
57576SOL    HW277540   3.135   9.892   5.916  1.6569  1.7042  0.0630
57577SOL     OW77541  10.811   5.107  10.624  0.0717  0.1690  0.5161
57577SOL    HW177542  10.874   5.084  10.693 -0.4652 -0.7638  0.7183
57577SOL    HW277543  10.830   5.046  10.553  2.0045  2.4548 -1.0737
57578SOL     OW77544  11.844   7.338   5.063  0.9718 -0.2330 -0.3266
57578SOL    HW177545  11.888   7.310   4.983  2.7075  0.9214  0.1629
57578SOL    HW277546  11.751   7.336   5.042  0.8992 -5.1453 -0.6877
57579SOL     OW77547   5.122   8.632   3.079 -0.1367  0.1667  0.4661
57579SOL    HW177548   5.189   8.636   3.011  2.0481  0.0949  2.4684
57579SOL    HW277549   5.061   8.702   3.056 -0.0015 -0.4212 -1.9943
57580SOL     OW77550  10.695  11.383   3.567 -0.2472 -0.4386 -0.1410
57580SOL    HW177551  10.684  11.342   3.653 -0.8401 -1.4460 -0.6683
57580SOL    HW277552  10.678  11.312   3.505 -2.5673  0.8555 -1.1196
57581SOL     OW77553  11.003   0.414   4.347 -0.9871 -0.4813 -0.2977
57581SOL    HW177554  10.937   0.483   4.338  0.2885  1.3316  2.7973
57581SOL    HW277555  10.966   0.353   4.411 -0.8906 -1.1189 -0.8387
57582SOL     OW77556   6.946   5.100   7.701  0.0828 -0.5726  0.5093
57582SOL    HW177557   6.980   5.122   7.788  1.6052  1.2703 -0.4728
57582SOL    HW277558   6.964   5.006   7.691 -0.4213 -0.8780  2.2907
57583SOL     OW77559   9.309   1.560   8.985 -0.1479  0.2797  0.2903
57583SOL    HW177560   9.357   1.642   8.989  0.1176  0.0874  1.3843
57583SOL    HW277561   9.348   1.506   9.053 -1.2214 -0.2558  0.5076
57584SOL     OW77562   7.411   5.964   8.845  0.4338  0.1111  0.6295
57584SOL    HW177563   7.467   5.887   8.851  0.6264  0.0908 -0.9984
57584SOL    HW277564   7.322   5.929   8.849  0.5042 -0.3215 -0.8056
57585SOL     OW77565   3.384   6.755   4.082 -0.5232  0.6456  0.6778
57585SOL    HW177566   3.330   6.693   4.131 -0.2320  0.0560  0.2648
57585SOL    HW277567   3.471   6.714   4.078 -0.4950  0.7697 -0.1652
57586SOL     OW77568   1.792   1.411   3.825 -0.2888  0.1122 -0.2822
57586SOL    HW177569   1.853   1.358   3.774  0.2437  1.9497 -1.6669
57586SOL    HW277570   1.709   1.403   3.778 -0.3386  0.0848 -0.1896
57587SOL     OW77571   8.668  12.622   7.081  0.0307  0.5047  0.4317
57587SOL    HW177572   8.726  12.667   7.020 -0.0638  0.2976  0.1882
57587SOL    HW277573   8.589  12.603   7.030 -1.0649  2.5181  1.2700
57588SOL     OW77574   9.609   2.105   6.960  0.2764 -0.4675  0.4412
57588SOL    HW177575   9.654   2.169   6.904 -1.8732  0.1247 -0.7315
57588SOL    HW277576   9.560   2.050   6.899 -0.1180 -1.4462  1.6109
57589SOL     OW77577   4.120   6.439   2.878 -0.2400 -0.9151  0.1766
57589SOL    HW177578   4.068   6.372   2.921  1.9542 -1.7165  1.8094
57589SOL    HW277579   4.210   6.406   2.883  1.0621  2.3851  1.6942
57590SOL     OW77580   3.450  11.121  10.307  0.0572  0.3866 -0.2366
57590SOL    HW177581   3.424  11.209  10.334 -1.5115 -0.6786  2.0977
57590SOL    HW277582   3.426  11.116  10.214 -0.9444  2.0143 -0.0985
57591SOL     OW77583   1.287   0.269   2.934 -0.0136  0.6914 -0.2318
57591SOL    HW177584   1.358   0.214   2.967  0.6529  0.5166 -1.8684
57591SOL    HW277585   1.252   0.220   2.859 -1.7533  0.8669  0.4133
57592SOL     OW77586   4.762  11.887   3.626 -0.2165 -0.1536  0.3400
57592SOL    HW177587   4.688  11.834   3.654  0.5114 -1.9547 -0.9388
57592SOL    HW277588   4.813  11.901   3.706 -2.0685  1.4915  1.3285
57593SOL     OW77589  11.354   8.219   0.428 -0.2268 -0.1777 -1.0073
57593SOL    HW177590  11.297   8.281   0.383 -1.3294 -0.3545  0.0883
57593SOL    HW277591  11.297   8.174   0.490  1.4728  1.3597  1.9207
57594SOL     OW77592   6.574   5.311   4.448  0.3100 -0.0436 -0.7338
57594SOL    HW177593   6.535   5.391   4.413  1.8192  0.3190 -1.6858
57594SOL    HW277594   6.500   5.262   4.485 -0.5703  2.0701  0.4948
57595SOL     OW77595   5.582   3.296   4.107  0.4438 -0.1174  0.7835
57595SOL    HW177596   5.577   3.386   4.140 -0.8250 -0.6316  2.1102
57595SOL    HW277597   5.644   3.252   4.165  0.5370 -0.2838  0.5627
57596SOL     OW77598   9.273   3.134   3.429  0.2435 -0.7521  0.3560
57596SOL    HW177599   9.339   3.191   3.390  0.5341 -2.2775 -1.5707
57596SOL    HW277600   9.214   3.112   3.357 -1.6702 -0.4528  1.7515
57597SOL     OW77601   6.173   7.629   7.277  0.0667  0.4794  0.1344
57597SOL    HW177602   6.191   7.544   7.239 -0.1886  0.2948  0.4224
57597SOL    HW277603   6.078   7.633   7.283  0.0630  0.9058 -0.1495
57598SOL     OW77604   4.833   9.838   6.735  0.1248  0.5075  0.2687
57598SOL    HW177605   4.829   9.888   6.817  1.3576 -0.3315  0.8657
57598SOL    HW277606   4.744   9.803   6.725  0.1704 -0.1160  1.7248
57599SOL     OW77607   1.207   5.258   9.472 -0.0795  0.1399  0.3403
57599SOL    HW177608   1.295   5.233   9.444 -1.1984 -2.1336 -1.5037
57599SOL    HW277609   1.193   5.345   9.432  1.0842  0.2573  0.1465
57600SOL     OW77610   9.274  12.317   6.417  0.2568 -0.0382 -0.0936
57600SOL    HW177611   9.210  12.338   6.348 -0.7992  1.3472  1.2331
57600SOL    HW277612   9.311  12.402   6.442 -0.8902 -0.1988  2.4383
57601SOL     OW77613   0.157   5.354   4.209 -0.2343 -0.3088  0.1544
57601SOL    HW177614   0.099   5.324   4.139  0.2316 -1.0952  0.0881
57601SOL    HW277615   0.116   5.434   4.242  0.3543  1.0161 -2.0750
57602SOL     OW77616  10.182   5.098   2.533  0.0071  0.0724 -0.1847
57602SOL    HW177617  10.098   5.131   2.563  0.0935  3.0414 -2.6951
57602SOL    HW277618  10.161   5.044   2.457  0.2717 -0.2258 -0.0457
57603SOL     OW77619   0.043   6.036   1.010 -0.2132  0.0468 -0.5917
57603SOL    HW177620   0.112   5.979   1.045  0.3988  0.3653 -1.2533
57603SOL    HW277621   0.030   6.103   1.077  2.0741  1.5872 -1.5448
57604SOL     OW77622   0.239   7.259   3.787  0.0186  0.2277  0.1125
57604SOL    HW177623   0.184   7.312   3.729  1.8384 -0.0696 -2.0083
57604SOL    HW277624   0.298   7.322   3.829  1.2878  0.0964 -1.3907
57605SOL     OW77625   1.420  12.246   4.667  0.4062  0.1032 -0.3940
57605SOL    HW177626   1.509  12.210   4.665  0.4389  0.2093 -1.3691
57605SOL    HW277627   1.421  12.315   4.601 -0.2784  0.4121 -0.0881
57606SOL     OW77628   6.474   5.865   3.747 -0.2326  0.0949  0.1390
57606SOL    HW177629   6.471   5.770   3.763 -1.6031 -0.2361 -1.7944
57606SOL    HW277630   6.393   5.884   3.700 -0.5785  2.4641  1.5362
57607SOL     OW77631   7.655   3.877   5.224  0.3852  0.3740 -0.1658
57607SOL    HW177632   7.679   3.940   5.156 -1.6453  1.3319 -0.0909
57607SOL    HW277633   7.564   3.900   5.246  0.1409 -1.5438  1.0531
57608SOL     OW77634  12.569   0.299   6.246 -0.4764 -0.2595 -0.1908
57608SOL    HW177635  12.518   0.326   6.323  0.0496 -1.4519  0.6052
57608SOL    HW277636  12.532   0.214   6.222  0.7677 -0.9018  0.0796
57609SOL     OW77637   8.110  11.572  10.010  0.6429  0.3511 -0.2277
57609SOL    HW177638   8.028  11.575  10.058  1.0550  1.2402  0.4384
57609SOL    HW277639   8.123  11.479   9.991 -0.2581  0.1508  0.0949
57610SOL     OW77640   1.988   2.599  11.221 -0.5124 -0.9256 -0.2372
57610SOL    HW177641   1.902   2.607  11.180  0.4162 -1.3066 -2.3711
57610SOL    HW277642   2.050   2.603  11.149  1.2073 -2.4126  1.0614
57611SOL     OW77643   9.802  11.457  11.547 -0.2387  0.5994 -0.7846
57611SOL    HW177644   9.729  11.503  11.506 -0.9066  1.1461  0.8964
57611SOL    HW277645   9.810  11.498  11.634  1.4282 -0.1198 -0.5514
57612SOL     OW77646   3.347   6.024  10.513 -0.0476  0.2146  0.0072
57612SOL    HW177647   3.352   5.963  10.439 -1.1855  2.6742 -2.2616
57612SOL    HW277648   3.296   5.977  10.579 -1.6553 -0.9991 -1.9778
57613SOL     OW77649   4.939   4.316   3.777 -0.0010  0.5201  0.0661
57613SOL    HW177650   4.968   4.240   3.725  2.0069 -0.7130  2.7599
57613SOL    HW277651   4.926   4.385   3.712 -0.7352 -1.7573 -2.3800
57614SOL     OW77652  10.284   0.963  12.064 -0.3997  0.1995 -0.1270
57614SOL    HW177653  10.239   0.922  11.990  1.5202  0.8554 -1.7542
57614SOL    HW277654  10.323   1.043  12.027  2.0489 -0.3177  1.1211
57615SOL     OW77655   4.343   1.531   1.802  0.2996 -0.0630 -0.8241
57615SOL    HW177656   4.295   1.520   1.720  0.0010  2.6131 -1.1042
57615SOL    HW277657   4.275   1.544   1.868  0.5633  0.6435 -0.6812
57616SOL     OW77658   4.181   5.257  12.618 -0.1439  0.2022 -0.5322
57616SOL    HW177659   4.156   5.169  12.647 -0.5245  1.0588  1.9277
57616SOL    HW277660   4.144   5.264  12.530 -1.8539 -1.3844 -0.0019
57617SOL     OW77661   1.234   1.799   2.300 -0.4213  0.0626 -0.1775
57617SOL    HW177662   1.295   1.736   2.339  0.0353  0.5499 -0.0959
57617SOL    HW277663   1.263   1.884   2.334 -3.1199  0.0685  2.6148
57618SOL     OW77664  10.801  11.005   0.190 -0.0908  0.0073  0.4371
57618SOL    HW177665  10.762  11.082   0.147 -0.1394 -0.8400 -1.1412
57618SOL    HW277666  10.729  10.942   0.194  0.3121 -0.4588  0.3914
57619SOL     OW77667   5.724   6.215   2.440  0.7404 -0.4267 -0.1144
57619SOL    HW177668   5.806   6.167   2.450  1.4564  0.6403 -0.6524
57619SOL    HW277669   5.736   6.266   2.360 -0.1691  0.2741  0.1778
57620SOL     OW77670   6.902  11.695   3.966  0.3299  0.5551 -0.1774
57620SOL    HW177671   6.823  11.677   4.017  0.7452  0.8242  0.5624
57620SOL    HW277672   6.965  11.628   3.994 -0.0838 -0.5943 -1.8301
57621SOL     OW77673  10.185  10.237   7.989 -0.2500 -0.4529 -0.5921
57621SOL    HW177674  10.095  10.233   8.021 -1.0681 -0.3194 -2.7614
57621SOL    HW277675  10.223  10.311   8.036 -1.2109 -0.5852  0.4479
57622SOL     OW77676  12.275   7.974   1.115 -0.2828  0.6011 -0.9261
57622SOL    HW177677  12.312   8.055   1.150 -0.3969  1.4853 -2.7053
57622SOL    HW277678  12.330   7.953   1.040  0.0115 -1.2464 -0.2303
57623SOL     OW77679   8.456   1.606  10.524  0.3711  0.3653  0.0822
57623SOL    HW177680   8.539   1.648  10.547  0.2476 -0.6180  2.7063
57623SOL    HW277681   8.443   1.627  10.432  2.6341  2.0435  0.0559
57624SOL     OW77682   6.012   3.223   4.606 -0.4006  0.0952 -0.6748
57624SOL    HW177683   6.106   3.239   4.614 -0.5300  1.5225 -1.7713
57624SOL    HW277684   6.003   3.171   4.526 -0.2744 -3.1639  1.2650
57625SOL     OW77685   8.930   4.018  11.395 -0.0807  0.1053 -0.6496
57625SOL    HW177686   8.998   3.969  11.441  0.0050  2.0854  1.5059
57625SOL    HW277687   8.973   4.100  11.370 -1.6381  1.4466  0.8369
57626SOL     OW77688   6.823   1.223   0.253 -0.1241  0.2824  0.2739
57626SOL    HW177689   6.794   1.179   0.173 -0.0064  0.0719  0.3447
57626SOL    HW277690   6.861   1.153   0.306  1.0493  0.6455 -0.0689
57627SOL     OW77691   3.084   6.993   1.513 -0.3062 -0.2249 -0.2990
57627SOL    HW177692   3.071   6.932   1.585 -2.5117 -0.9479 -1.2129
57627SOL    HW277693   3.084   6.938   1.434  1.3934  0.6107 -0.9357
57628SOL     OW77694   5.299   9.852   2.310  0.1053 -0.2218  0.3869
57628SOL    HW177695   5.252   9.900   2.242  0.0273  1.1102  1.3471
57628SOL    HW277696   5.391   9.860   2.285  0.2177  1.6327  1.2296
57629SOL     OW77697  10.699   1.040   5.757  0.4646 -0.2955  0.0128
57629SOL    HW177698  10.686   0.992   5.675  3.3017 -0.0487 -0.6784
57629SOL    HW277699  10.725   0.973   5.820  0.4093 -0.1922  0.1454
57630SOL     OW77700   0.133   8.496  10.901 -0.4850  0.0916  0.0754
57630SOL    HW177701   0.062   8.442  10.935 -0.6074  0.0625 -0.2182
57630SOL    HW277702   0.200   8.495  10.970 -0.3093 -0.7709 -0.0879
57631SOL     OW77703   1.224   5.053   7.668  0.9019  0.0199  0.0662
57631SOL    HW177704   1.182   4.983   7.618  2.8881 -0.5994 -0.8456
57631SOL    HW277705   1.204   5.133   7.620  1.8494 -0.4353 -1.1199
57632SOL     OW77706   5.237   4.187  11.505  0.4332  0.2946  0.4232
57632SOL    HW177707   5.144   4.174  11.522  0.5666 -0.2577  0.7847
57632SOL    HW277708   5.269   4.235  11.582  0.7374 -0.8716  1.0587
57633SOL     OW77709   8.433   4.546   1.005 -0.0793  0.0080  0.3883
57633SOL    HW177710   8.381   4.478   0.963  4.2961 -2.6597 -1.3747
57633SOL    HW277711   8.466   4.599   0.933  0.0805  1.3332  1.3985
57634SOL     OW77712  12.093   5.714   9.249  0.4746 -0.0665 -0.7310
57634SOL    HW177713  12.130   5.784   9.302  1.2571  0.1123 -1.5002
57634SOL    HW277714  11.998   5.731   9.248  0.6344  0.8381 -0.7285
57635SOL     OW77715  10.075   2.168   6.368 -0.3253 -0.1560 -0.4608
57635SOL    HW177716  10.102   2.078   6.348 -0.0666 -0.6218  1.7758
57635SOL    HW277717  10.022   2.195   6.292  1.4430 -1.3492 -2.2321
57636SOL     OW77718   4.619   7.925   2.843  0.1229  0.5386  0.6718
57636SOL    HW177719   4.610   7.944   2.937  0.4431  1.6925  0.4775
57636SOL    HW277720   4.689   7.860   2.839  0.2781  0.6638  1.2212
57637SOL     OW77721   2.049   1.135   7.823 -0.1653  0.2214 -0.4506
57637SOL    HW177722   1.994   1.073   7.776 -0.6636  1.1978 -1.1823
57637SOL    HW277723   2.028   1.121   7.915  1.7751 -2.6487 -0.2891
57638SOL     OW77724  12.353   4.278  10.684  0.1512  0.0556  0.0090
57638SOL    HW177725  12.322   4.231  10.607 -0.2786 -0.9496  0.7774
57638SOL    HW277726  12.414   4.343  10.649  0.3392 -0.7013 -1.1233
57639SOL     OW77727   5.277   3.845   9.492  0.1883  0.0839  0.1867
57639SOL    HW177728   5.295   3.818   9.402  2.7580 -0.3910  0.7525
57639SOL    HW277729   5.235   3.930   9.485 -0.1656 -0.2069 -1.4587
57640SOL     OW77730   5.398   7.690   9.811 -0.2001  0.5805  0.3016
57640SOL    HW177731   5.364   7.700   9.900 -0.2435  1.3868  0.1988
57640SOL    HW277732   5.408   7.779   9.779  2.4276  0.4333  0.4913
57641SOL     OW77733  11.216   4.838  11.429  0.0887 -0.2044 -0.1032
57641SOL    HW177734  11.301   4.847  11.387  0.5315  1.3565  1.0043
57641SOL    HW277735  11.160   4.901  11.383 -0.4180 -1.0607 -0.6790
57642SOL     OW77736   5.775   2.576  10.028  0.0011 -0.3038  0.2313
57642SOL    HW177737   5.797   2.666  10.005 -0.3195 -0.4270 -0.6038
57642SOL    HW277738   5.850   2.543  10.076  0.6550  0.0129 -0.5564
57643SOL     OW77739   2.312   8.093   6.321  0.3038  0.0777 -0.4052
57643SOL    HW177740   2.363   8.163   6.279 -3.6949  2.3191 -2.1116
57643SOL    HW277741   2.262   8.137   6.389 -2.0135 -1.1227 -1.2268
57644SOL     OW77742   7.673  12.091   5.431  0.3456  0.4775  0.5207
57644SOL    HW177743   7.702  12.000   5.432 -0.1608  0.2954  2.2175
57644SOL    HW277744   7.730  12.134   5.367 -0.3659 -1.2945 -1.4219
57645SOL     OW77745   4.875  10.508  10.409  0.0962 -0.4655 -0.3952
57645SOL    HW177746   4.931  10.446  10.456  0.4679  0.0466 -0.1594
57645SOL    HW277747   4.932  10.548  10.344  0.6017  1.5936  1.2088
57646SOL     OW77748   0.899   7.866   4.436 -0.6756 -0.2545 -0.1446
57646SOL    HW177749   0.851   7.871   4.519  0.5876 -2.5196  0.7890
57646SOL    HW277750   0.989   7.889   4.458 -0.2475 -1.2418 -0.7849
57647SOL     OW77751   6.010   8.746   3.541  0.1579 -0.3069  0.2563
57647SOL    HW177752   5.938   8.693   3.575 -0.6724 -0.5555 -1.7569
57647SOL    HW277753   5.994   8.833   3.577 -1.3276 -0.2893 -0.3902
57648SOL     OW77754   5.028   1.243  12.091  0.1855  0.2584  0.2825
57648SOL    HW177755   5.016   1.261  12.184  0.0679  1.2657  0.0884
57648SOL    HW277756   5.121   1.262  12.075  0.1552  0.2997  0.1537
57649SOL     OW77757   2.641   6.422   1.950  0.4785  0.7680  0.2413
57649SOL    HW177758   2.719   6.371   1.927  1.4003  2.3498 -0.2549
57649SOL    HW277759   2.591   6.428   1.868  0.9658  1.6341 -0.0069
57650SOL     OW77760   2.309   7.247   6.182  0.3369 -0.5888  0.0639
57650SOL    HW177761   2.217   7.222   6.187 -0.0406  0.9783  2.5799
57650SOL    HW277762   2.357   7.167   6.207 -0.4714 -0.7480  1.1612
57651SOL     OW77763   9.150   5.191   1.089 -0.3400  0.0060  0.1658
57651SOL    HW177764   9.210   5.228   1.024  0.5495 -1.2047  0.2625
57651SOL    HW277765   9.191   5.208   1.173 -0.2519 -0.5872  0.2500
57652SOL     OW77766   5.617   7.555  11.099  0.4538 -0.2478  0.1194
57652SOL    HW177767   5.654   7.470  11.123  0.5071  0.1746  1.6438
57652SOL    HW277768   5.649   7.571  11.011 -0.2204 -2.1745 -0.5248
57653SOL     OW77769   8.960   0.191   4.959  0.1794  0.5850  0.3633
57653SOL    HW177770   8.921   0.115   4.915 -0.3761  1.0871 -0.0259
57653SOL    HW277771   8.918   0.193   5.045  0.6688  0.0814  0.6246
57654SOL     OW77772   3.611   9.129  10.576 -0.1304  0.3346 -0.2847
57654SOL    HW177773   3.690   9.181  10.562 -0.1839  1.0342  1.7015
57654SOL    HW277774   3.543   9.193  10.595 -0.5633 -0.3793  0.6401
57655SOL     OW77775   1.561   8.580   7.895  0.2443  0.0148  0.8326
57655SOL    HW177776   1.579   8.638   7.969  0.0980 -2.3380  2.8766
57655SOL    HW277777   1.483   8.530   7.923 -1.6236  0.9735 -2.1876
57656SOL     OW77778   7.597   0.611   2.753  0.0281  0.1019  0.2375
57656SOL    HW177779   7.623   0.602   2.661  0.0855 -1.8817  0.3969
57656SOL    HW277780   7.677   0.593   2.803 -0.3418 -0.4121  0.6687
57657SOL     OW77781   5.899   6.554   3.239  0.1811 -0.4409  0.1997
57657SOL    HW177782   5.842   6.478   3.227 -0.4812  0.3221 -1.8849
57657SOL    HW277783   5.844   6.618   3.284 -0.3187 -0.0918 -0.8664
57658SOL     OW77784   4.396   1.513  11.332 -0.5876  0.3122  0.1972
57658SOL    HW177785   4.486   1.540  11.315  0.2351 -1.5793  1.1784
57658SOL    HW277786   4.347   1.545  11.256  0.6156  2.5356  0.2616
57659SOL     OW77787  10.499   0.411   4.140  0.7145 -0.9933 -0.6220
57659SOL    HW177788  10.461   0.492   4.106  0.7863 -0.4630  0.5448
57659SOL    HW277789  10.503   0.423   4.234  2.5323 -1.5792 -0.5856
57660SOL     OW77790   6.155   5.998   1.478  1.1586 -0.2884 -0.3155
57660SOL    HW177791   6.225   5.936   1.457  0.5040 -1.1764  0.0382
57660SOL    HW277792   6.075   5.955   1.448  0.7153  0.5429 -0.3643
57661SOL     OW77793   3.696   8.878   9.053 -0.0192 -0.0012 -0.3560
57661SOL    HW177794   3.662   8.936   9.122 -2.4119 -0.6120 -0.9300
57661SOL    HW277795   3.791   8.892   9.055 -0.1103  0.8207  2.3024
57662SOL     OW77796   3.562   3.051   3.914  0.7462  0.0059  0.0235
57662SOL    HW177797   3.640   3.080   3.961  0.1404 -0.1829  1.1843
57662SOL    HW277798   3.504   3.016   3.982  0.0943 -0.8686 -0.9455
57663SOL     OW77799   2.434   8.583   1.471  0.0169  0.7659  0.1822
57663SOL    HW177800   2.522   8.546   1.478 -0.5151 -0.8210 -0.9345
57663SOL    HW277801   2.389   8.552   1.550 -0.3422 -0.8396 -0.6138
57664SOL     OW77802  10.563   9.058   4.897  0.3983  0.0113 -0.0198
57664SOL    HW177803  10.580   8.976   4.943 -0.1286  0.0146  0.1857
57664SOL    HW277804  10.578   9.126   4.964 -2.0945 -0.0557  0.7081
57665SOL     OW77805  11.010   3.758   0.799 -0.2013  0.3546  0.1054
57665SOL    HW177806  11.011   3.683   0.739  1.9060  0.9942 -0.7396
57665SOL    HW277807  10.981   3.722   0.882 -1.7925 -0.8576 -0.9118
57666SOL     OW77808   8.366   7.487  11.036  0.5827 -0.1729 -0.9739
57666SOL    HW177809   8.446   7.526  11.001  0.5326 -0.0347 -0.9369
57666SOL    HW277810   8.323   7.448  10.960  1.3692 -1.4747 -0.7772
57667SOL     OW77811  10.951   1.472   8.607 -0.0180  0.4449 -0.1046
57667SOL    HW177812  10.915   1.538   8.667  0.9511  0.8527  0.0496
57667SOL    HW277813  11.003   1.523   8.544  0.7830 -0.1723  0.0443
57668SOL     OW77814  10.467   3.132   8.510 -0.0382  0.5786  0.3390
57668SOL    HW177815  10.375   3.148   8.530  0.1764 -0.2675  2.2328
57668SOL    HW277816  10.512   3.212   8.537 -0.1714  0.9163 -0.4056
57669SOL     OW77817   6.902   6.935   2.440  0.2927  0.1235  0.4659
57669SOL    HW177818   6.927   6.897   2.525 -1.5002 -0.9723  0.5535
57669SOL    HW277819   6.870   7.022   2.461  2.0452  0.7825  0.5856
57670SOL     OW77820   7.374   0.309  11.975 -0.2702  0.2598  0.5215
57670SOL    HW177821   7.447   0.254  12.005  0.3502  0.8370  0.1018
57670SOL    HW277822   7.328   0.256  11.910 -0.6062 -0.3468  1.2358
57671SOL     OW77823   2.985   3.630   0.753 -0.3457 -0.1246 -0.3196
57671SOL    HW177824   2.896   3.629   0.786  0.1823  1.7573  1.3140
57671SOL    HW277825   3.026   3.554   0.794 -1.1644 -1.0379 -1.1326
57672SOL     OW77826   3.368   1.764   9.379 -0.6910 -0.0644  0.3682
57672SOL    HW177827   3.330   1.677   9.371  0.0144 -0.2800 -0.8954
57672SOL    HW277828   3.449   1.750   9.427  0.4687 -0.4832 -1.5738
57673SOL     OW77829   4.034   2.897   8.295  0.1790  0.5435  0.4553
57673SOL    HW177830   4.043   2.851   8.211  1.5190  1.5257  0.0278
57673SOL    HW277831   3.993   2.832   8.353 -1.3661  0.0574 -1.1007
57674SOL     OW77832   9.214  11.883   9.927 -0.3120  0.0674  0.0102
57674SOL    HW177833   9.188  11.939  10.001 -0.4348 -1.4568  1.1777
57674SOL    HW277834   9.133  11.840   9.900 -0.1784  0.2703 -0.7352
57675SOL     OW77835   8.357   5.960   6.384 -0.5573  0.7632 -0.1298
57675SOL    HW177836   8.336   6.018   6.457 -1.1758  0.5311 -0.1154
57675SOL    HW277837   8.431   6.001   6.341 -1.4357  1.9635 -0.5473
57676SOL     OW77838   3.863   4.710   2.257  0.1550 -0.0845  0.2435
57676SOL    HW177839   3.914   4.642   2.302 -0.9983 -0.7310  0.6199
57676SOL    HW277840   3.857   4.781   2.320 -2.1829 -1.3210  1.5491
57677SOL     OW77841  10.455  12.014   0.208 -0.1445  0.4877 -0.2341
57677SOL    HW177842  10.444  12.095   0.158 -0.6867  2.2146  2.4511
57677SOL    HW277843  10.372  11.968   0.196  0.0939  0.3841 -1.6340
57678SOL     OW77844  10.667   6.133  11.882  0.0298 -0.4116  0.1929
57678SOL    HW177845  10.702   6.145  11.971  0.4589  0.8955 -0.1372
57678SOL    HW277846  10.595   6.070  11.893 -4.2094  4.1261  2.6282
57679SOL     OW77847   8.900   2.903   1.184 -0.5462  0.5281  0.3897
57679SOL    HW177848   8.870   2.895   1.274  1.9366 -0.8660  1.1658
57679SOL    HW277849   8.927   2.994   1.175  0.4815  0.3504  1.5172
57680SOL     OW77850   3.621   6.857   5.196 -0.3831 -0.0932  0.2831
57680SOL    HW177851   3.628   6.950   5.215  2.6699 -0.7336  3.1422
57680SOL    HW277852   3.670   6.845   5.114  1.6641  0.5085  1.3713
57681SOL     OW77853  11.569   6.694   3.980  0.3680  1.0112  0.2161
57681SOL    HW177854  11.654   6.699   3.937 -0.0742  1.3224 -0.6476
57681SOL    HW277855  11.505   6.709   3.910 -0.4678 -0.7886  0.5427
57682SOL     OW77856   4.070  11.912  12.307 -0.6479 -0.1076  0.2550
57682SOL    HW177857   4.056  11.937  12.216 -2.1247  0.5724  0.6350
57682SOL    HW277858   4.150  11.958  12.332  0.8097 -1.7612 -1.1869
57683SOL     OW77859   8.848   9.175   7.838  0.2629  0.0399  0.2626
57683SOL    HW177860   8.827   9.142   7.751  0.3243  0.0821  0.2319
57683SOL    HW277861   8.777   9.143   7.894  0.4368 -0.3291  0.2757
57684SOL     OW77862   7.306   8.195   1.353 -0.8828 -0.0999 -0.1277
57684SOL    HW177863   7.277   8.178   1.263 -0.9711 -1.1605  0.0891
57684SOL    HW277864   7.309   8.291   1.359 -1.4998 -0.0033 -1.0592
57685SOL     OW77865  12.398   4.513   7.400 -1.0743 -0.0716 -0.1284
57685SOL    HW177866  12.487   4.478   7.404 -1.4630 -1.1743 -0.9205
57685SOL    HW277867  12.409   4.601   7.363 -0.4019 -0.5354 -1.0713
57686SOL     OW77868   2.108   8.710   9.274  0.2166  0.7008 -0.6815
57686SOL    HW177869   2.116   8.619   9.301 -0.2230  0.7470 -0.3852
57686SOL    HW277870   2.016   8.719   9.247  0.1518  1.1607 -0.3200
57687SOL     OW77871  11.102   9.073   0.970 -0.0575  0.2799 -0.3973
57687SOL    HW177872  11.021   9.123   0.969 -0.1977  0.1099  0.8179
57687SOL    HW277873  11.080   8.991   1.016  1.2898  1.1776  2.0957
57688SOL     OW77874  10.529  10.533   6.874 -0.2746 -0.4564 -0.2569
57688SOL    HW177875  10.538  10.478   6.796  3.1765 -0.1338 -0.2720
57688SOL    HW277876  10.526  10.622   6.839  3.5510 -0.1138 -0.2293
57689SOL     OW77877   5.182   1.542   6.021 -0.3792 -0.3540  0.7395
57689SOL    HW177878   5.130   1.617   6.051  0.3747  0.3420  0.3731
57689SOL    HW277879   5.273   1.569   6.037  0.0613 -0.0159 -1.9297
57690SOL     OW77880   9.296  12.002   8.818 -0.5144 -0.0839 -1.0995
57690SOL    HW177881   9.247  11.985   8.737 -1.1459 -1.7450 -0.4038
57690SOL    HW277882   9.363  11.934   8.819 -0.1584  0.2751 -0.4904
57691SOL     OW77883  10.689   8.176   6.177 -1.1157 -0.3895  1.0156
57691SOL    HW177884  10.639   8.233   6.236  2.1332  2.9200  0.8928
57691SOL    HW277885  10.758   8.140   6.232  1.3585  1.9423 -0.3385
57692SOL     OW77886  11.407   6.732  10.005  0.0110  0.3563 -0.1964
57692SOL    HW177887  11.330   6.678   9.983 -0.9529  1.5293  0.1819
57692SOL    HW277888  11.445   6.688  10.081 -2.0896  1.3531  1.5470
57693SOL     OW77889   6.219   4.657  11.207 -0.2108 -0.0719 -0.1743
57693SOL    HW177890   6.197   4.749  11.218 -1.8679 -0.5223  0.6005
57693SOL    HW277891   6.314   4.655  11.197 -0.0496  1.6113  0.8435
57694SOL     OW77892  12.489   7.477   5.667  0.7772 -0.0177  0.2254
57694SOL    HW177893  12.577   7.479   5.705  1.1782  0.6949 -0.7036
57694SOL    HW277894  12.504   7.462   5.573 -0.1500 -0.9643  0.2146
57695SOL     OW77895  12.588  12.565  11.846 -0.2153  0.0224 -0.3378
57695SOL    HW177896  12.624  12.652  11.828  0.8946 -0.4516 -0.4477
57695SOL    HW277897  12.580  12.562  11.942  0.2992  0.0337 -0.2919
57696SOL     OW77898  11.967   2.789   2.259 -0.7931 -0.0599 -0.0929
57696SOL    HW177899  12.042   2.836   2.296  0.5981 -2.8373  0.9165
57696SOL    HW277900  11.897   2.801   2.323 -0.1769 -0.0626  0.6015
57697SOL     OW77901   9.693   1.577   3.896  0.3110 -0.7013 -0.3070
57697SOL    HW177902   9.623   1.619   3.945  0.1439 -0.6864 -0.5565
57697SOL    HW277903   9.676   1.483   3.904  1.8086 -0.8558  1.9507
57698SOL     OW77904   8.269   8.433  12.367 -0.5337 -0.6397  0.3411
57698SOL    HW177905   8.221   8.462  12.289  0.5428 -0.2494 -0.2056
57698SOL    HW277906   8.344   8.385  12.331  1.3133  1.5673  1.0171
57699SOL     OW77907   7.791   5.924   1.095 -0.0800  0.4191 -0.2728
57699SOL    HW177908   7.853   5.891   1.029 -0.3235 -0.2734 -0.1614
57699SOL    HW277909   7.818   5.880   1.176 -1.6540 -1.1127 -0.5172
57700SOL     OW77910   2.440   3.371   7.555 -0.3395 -0.3020  0.3486
57700SOL    HW177911   2.528   3.343   7.580 -0.8006 -0.9753  1.2769
57700SOL    HW277912   2.384   3.296   7.574 -1.3236  0.5732  1.0552
57701SOL     OW77913   5.072  11.318   8.187 -0.0834 -0.1105  0.0255
57701SOL    HW177914   5.029  11.369   8.118 -0.9702 -0.8014  0.0474
57701SOL    HW277915   5.001  11.266   8.226  0.4470  0.0945  1.3045
57702SOL     OW77916   7.443   1.841  11.050 -0.3010  0.4770  0.1189
57702SOL    HW177917   7.376   1.843  11.118 -0.1110 -0.1326  0.3367
57702SOL    HW277918   7.515   1.895  11.085  0.2144 -0.6552  0.8719
57703SOL     OW77919   8.261  10.959   7.489  0.3300  0.6494 -0.1310
57703SOL    HW177920   8.169  10.939   7.508 -0.1039  0.5925 -2.0521
57703SOL    HW277921   8.267  11.054   7.500  0.0230  0.6571 -0.0111
57704SOL     OW77922   6.760   1.059   8.199 -0.1857 -0.3849 -0.7011
57704SOL    HW177923   6.676   1.078   8.158 -0.2315  1.2067  0.0604
57704SOL    HW277924   6.825   1.081   8.133 -0.3223 -0.0193 -0.7149
57705SOL     OW77925   9.184   4.916   0.701 -0.2049  0.3330  0.2068
57705SOL    HW177926   9.190   4.834   0.652  2.3070  0.8712 -0.5033
57705SOL    HW277927   9.240   4.903   0.777  0.6767  1.5673 -0.2090
57706SOL     OW77928   9.934  11.840  11.149 -0.1123  0.0752 -0.3893
57706SOL    HW177929   9.962  11.792  11.072 -0.0628 -1.4778  0.5560
57706SOL    HW277930   9.979  11.797  11.222 -0.6557  1.0928  0.5783
57707SOL     OW77931   6.757   2.673   8.727  0.5664  0.1399  0.2519
57707SOL    HW177932   6.752   2.587   8.768  0.8634 -1.7192 -3.2773
57707SOL    HW277933   6.851   2.687   8.712  0.3239 -1.5238 -3.8882
57708SOL     OW77934  10.015   4.558   7.618 -0.0900 -0.0144 -0.1880
57708SOL    HW177935   9.942   4.544   7.678 -1.1361  0.9686 -1.1864
57708SOL    HW277936  10.012   4.484   7.558  1.5382 -1.5186  1.4423
57709SOL     OW77937  11.426  12.303   9.086  0.2639  0.3950  0.2154
57709SOL    HW177938  11.420  12.398   9.099  0.6601  0.5056 -0.3653
57709SOL    HW277939  11.347  12.268   9.126  0.0583  0.9829  0.3329
57710SOL     OW77940   0.337   3.331  10.291  0.4047  0.3024  0.2412
57710SOL    HW177941   0.364   3.417  10.322  0.0947  0.0065  1.3808
57710SOL    HW277942   0.256   3.312  10.339 -0.3760  0.0219 -1.1193
57711SOL     OW77943   7.878   0.171   3.550 -0.2060 -0.1531  0.3236
57711SOL    HW177944   7.868   0.266   3.555  0.9807 -0.0963  2.6313
57711SOL    HW277945   7.847   0.139   3.634  1.3303 -1.6113  0.3889
57712SOL     OW77946   6.120  12.350  10.441  0.1839  0.1595 -0.1039
57712SOL    HW177947   6.115  12.445  10.443  0.9739  0.2418 -1.3101
57712SOL    HW277948   6.170  12.329  10.362 -0.0645 -1.2618  0.0750
57713SOL     OW77949   5.548  12.364  12.401 -0.2764 -0.2216 -0.0457
57713SOL    HW177950   5.522  12.344  12.491  1.9826  3.0687  1.5477
57713SOL    HW277951   5.606  12.292  12.377 -0.1809 -0.7039  1.5098
57714SOL     OW77952  11.952   7.248   6.577 -0.2563 -0.5327  0.4480
57714SOL    HW177953  11.978   7.244   6.670  3.3572 -3.1384 -0.4298
57714SOL    HW277954  12.012   7.313   6.539 -0.1706 -1.1007 -0.4107
57715SOL     OW77955   3.722   6.079   5.275  0.2159  0.1213 -0.2703
57715SOL    HW177956   3.749   6.052   5.363 -0.7370 -1.2926 -0.3739
57715SOL    HW277957   3.783   6.149   5.252  1.2239 -0.2721  1.0455
57716SOL     OW77958  10.524   3.048  11.034  0.5556 -0.1670 -0.1103
57716SOL    HW177959  10.596   3.026  11.093  0.4460 -0.1228  0.0408
57716SOL    HW277960  10.564   3.054  10.948  1.2695  2.5312  0.3160
57717SOL     OW77961   1.516   2.236  12.398 -0.3847  0.1806  0.0364
57717SOL    HW177962   1.450   2.233  12.329  0.2999  0.7492 -0.6564
57717SOL    HW277963   1.567   2.315  12.380  0.1401  0.0568  0.8867
57718SOL     OW77964   3.704  11.268   5.894  0.1914  0.9924  0.0051
57718SOL    HW177965   3.771  11.336   5.905  0.7195  0.5020 -0.1089
57718SOL    HW277966   3.647  11.277   5.970  1.0694  0.6540  0.7107
57719SOL     OW77967   8.180   1.832   8.117  0.1900 -0.2930 -0.1908
57719SOL    HW177968   8.106   1.810   8.173 -0.6482  2.7501  0.1144
57719SOL    HW277969   8.180   1.765   8.049 -1.5423 -1.5461  0.9719
57720SOL     OW77970   6.825   5.968  10.244 -0.2758 -0.2053 -0.1523
57720SOL    HW177971   6.796   5.918  10.168  1.7600 -1.8742  0.0639
57720SOL    HW277972   6.794   5.917  10.319 -0.3458  0.2135  0.1043
57721SOL     OW77973   6.006   1.112  12.409 -0.1198  0.0874  0.1510
57721SOL    HW177974   6.081   1.136  12.464  0.9514  0.7280 -1.4787
57721SOL    HW277975   6.037   1.036  12.359 -1.7602 -1.7331  1.7516
57722SOL     OW77976   9.468  11.914   2.109  0.3449 -0.3122  0.3344
57722SOL    HW177977   9.468  11.860   2.030 -0.2578 -0.1667  0.2270
57722SOL    HW277978   9.549  11.965   2.103 -0.8207  1.5084 -1.4796
57723SOL     OW77979   3.515  11.578  11.427  0.4394  0.0172  0.0208
57723SOL    HW177980   3.505  11.520  11.352  1.3063 -0.1852  0.0546
57723SOL    HW277981   3.596  11.626  11.411 -0.1308  1.0527  0.1174
57724SOL     OW77982   9.182   3.562   9.541  0.1605 -0.2923  0.3177
57724SOL    HW177983   9.102   3.532   9.498 -0.0608  0.6873  0.0177
57724SOL    HW277984   9.152   3.613   9.616  0.2830  3.3166 -1.8527
57725SOL     OW77985  10.036   9.631   8.111 -0.2789  0.3129 -0.1909
57725SOL    HW177986  10.044   9.551   8.164 -0.1972 -0.4188 -1.2871
57725SOL    HW277987  10.097   9.692   8.152  0.3574 -0.4923  0.0988
57726SOL     OW77988   1.578   9.923  10.963  0.1251  0.9785 -0.3744
57726SOL    HW177989   1.496   9.887  10.929  0.2753  0.4823 -0.2261
57726SOL    HW277990   1.560   9.942  11.055 -0.3064  2.3971 -0.7265
57727SOL     OW77991   5.636   7.681   1.013  0.0127 -0.1838 -0.1421
57727SOL    HW177992   5.608   7.590   1.023  0.7383 -0.3864  0.1408
57727SOL    HW277993   5.718   7.686   1.062  0.2470  0.4891 -0.5882
57728SOL     OW77994   7.760   8.522   6.957  0.2928 -0.0731  0.3066
57728SOL    HW177995   7.753   8.608   6.999 -1.2484 -0.6799  1.3955
57728SOL    HW277996   7.678   8.512   6.907  1.0521 -0.3675 -0.9202
57729SOL     OW77997  11.155   0.020   6.848 -0.1522  0.4927  0.2382
57729SOL    HW177998  11.229   0.047   6.793 -0.1223  0.5241  0.2936
57729SOL    HW277999  11.135   0.098   6.900  1.0498 -0.1105  1.6581
57730SOL     OW78000  10.442   3.518   2.738  0.3861 -0.1135 -0.2469
57730SOL    HW178001  10.469   3.437   2.695  1.4475  0.4261 -0.6409
57730SOL    HW278002  10.359   3.497   2.780  1.1423 -1.6792  0.5133
57731SOL     OW78003   7.946   0.651   1.226 -0.4263  0.0287  0.0808
57731SOL    HW178004   8.039   0.629   1.234  0.1355  1.3405 -1.9627
57731SOL    HW278005   7.943   0.746   1.239 -1.3387  0.1299 -0.7486
57732SOL     OW78006   7.936   5.634   2.194 -0.1486  0.9241 -0.1226
57732SOL    HW178007   7.877   5.627   2.119 -0.3178 -0.3667  0.1042
57732SOL    HW278008   7.992   5.556   2.188 -1.0571  0.0383  1.8114
57733SOL     OW78009   1.520  11.076  10.133 -0.0725 -0.4196  0.3988
57733SOL    HW178010   1.460  11.078  10.059 -1.4659 -0.2365  1.4935
57733SOL    HW278011   1.607  11.073  10.093 -0.5710  2.9438 -1.3198
57734SOL     OW78012   2.980   8.280  10.208  0.0548  0.0252 -0.5984
57734SOL    HW178013   2.901   8.226  10.207  0.2291 -0.2369 -0.4395
57734SOL    HW278014   3.052   8.217  10.204  0.3046  0.1357  1.4648
57735SOL     OW78015   8.211   6.345  11.008 -0.7218  0.6465  0.0549
57735SOL    HW178016   8.283   6.348  11.070 -0.5160 -0.2334 -0.1348
57735SOL    HW278017   8.137   6.310  11.058 -0.1127 -1.7101 -0.5861
57736SOL     OW78018   7.541   7.290  11.642  0.1641  0.3742  0.0651
57736SOL    HW178019   7.563   7.382  11.630  0.7790  0.1969 -0.2061
57736SOL    HW278020   7.603   7.259  11.708  0.2233  0.0555 -0.1375
57737SOL     OW78021  11.384   8.650   7.861  0.3615  0.1300 -0.6738
57737SOL    HW178022  11.298   8.688   7.880 -0.2471 -1.0489 -0.9764
57737SOL    HW278023  11.427   8.645   7.946 -0.2111 -0.0626 -0.3895
57738SOL     OW78024   8.547  10.273   7.339  0.4499  0.3277  0.1174
57738SOL    HW178025   8.586  10.304   7.421 -0.1180  2.4775 -0.3490
57738SOL    HW278026   8.453  10.278   7.354  0.3476  0.0137 -0.4036
57739SOL     OW78027   7.677   4.507   1.733  0.5653 -0.8258 -0.2004
57739SOL    HW178028   7.607   4.455   1.774 -0.4897 -0.2941 -1.2603
57739SOL    HW278029   7.744   4.443   1.710  0.0020 -1.4911 -0.0260
57740SOL     OW78030   6.649  10.258   0.107  0.5759 -0.2591  0.2679
57740SOL    HW178031   6.654  10.317   0.182 -1.2301  1.0808 -0.5596
57740SOL    HW278032   6.659  10.315   0.031  0.0032 -1.2050 -0.5479
57741SOL     OW78033   7.264   2.041  11.861  0.3252  0.6637 -0.0266
57741SOL    HW178034   7.264   1.998  11.946 -2.8060  2.0492  0.8040
57741SOL    HW278035   7.308   2.125  11.876 -0.0266  0.8134  0.1573
57742SOL     OW78036   5.636   3.758   6.899 -0.0591  0.0746  0.1273
57742SOL    HW178037   5.720   3.801   6.887  0.3448 -0.3448  1.3049
57742SOL    HW278038   5.600   3.750   6.811  0.8123  0.8873 -0.3183
57743SOL     OW78039  11.160   9.706   1.112 -0.2848  0.5799  0.0149
57743SOL    HW178040  11.097   9.718   1.183  0.8134 -3.4061  1.9337
57743SOL    HW278041  11.111   9.661   1.043 -0.1065 -0.4261  0.5365
57744SOL     OW78042   7.860   0.952   9.101  0.0130 -0.3126 -0.2181
57744SOL    HW178043   7.931   0.957   9.166  1.4301 -0.6504 -1.6878
57744SOL    HW278044   7.827   0.863   9.108 -0.9097  0.0928  1.0722
57745SOL     OW78045   9.246   7.677  11.103 -0.1867 -0.4926  0.0758
57745SOL    HW178046   9.246   7.638  11.190 -1.3788 -1.6923 -0.4345
57745SOL    HW278047   9.179   7.746  11.107 -1.8657 -2.0236 -0.4763
57746SOL     OW78048   5.297   2.278   5.328  0.5083 -0.2157  0.6057
57746SOL    HW178049   5.290   2.341   5.256  0.3161 -0.6590  0.2335
57746SOL    HW278050   5.388   2.249   5.326  0.6593  0.2136  0.9248
57747SOL     OW78051   4.645   5.022   8.177  0.2605  0.6583 -0.4652
57747SOL    HW178052   4.568   4.971   8.152  0.2121  0.4071  0.1670
57747SOL    HW278053   4.659   5.081   8.104  1.3241 -1.3681 -1.9974
57748SOL     OW78054   9.628  10.251   9.011  0.4645 -0.3283 -0.2798
57748SOL    HW178055   9.676  10.265   8.929  0.4415  1.0312 -0.0848
57748SOL    HW278056   9.696  10.226   9.074  0.7470  0.3197 -0.3148
57749SOL     OW78057   1.125   2.396  10.007  0.0733 -0.9727 -0.5230
57749SOL    HW178058   1.123   2.477   9.956  0.3147 -0.5233  0.1539
57749SOL    HW278059   1.175   2.335   9.953 -1.3439 -1.1479 -1.6970
57750SOL     OW78060   8.680   1.231   8.682  0.6460 -0.1600  0.3372
57750SOL    HW178061   8.629   1.294   8.732  0.4794 -0.8495  1.0715
57750SOL    HW278062   8.700   1.275   8.600 -2.4396 -0.3937 -0.6574
57751SOL     OW78063  11.137   5.428   5.261  0.2817 -0.0144 -0.1735
57751SOL    HW178064  11.228   5.449   5.285  0.3402  0.7376 -1.0136
57751SOL    HW278065  11.119   5.346   5.306  0.6511  0.9243  1.7980
57752SOL     OW78066   6.545   9.947  10.963 -0.3556  0.0945  0.6899
57752SOL    HW178067   6.471   9.939  11.023  0.3968 -0.8792  1.5088
57752SOL    HW278068   6.608  10.003  11.009  0.0520 -0.3131  0.6367
57753SOL     OW78069   2.463  11.928   5.265  0.4729  0.3710  0.2418
57753SOL    HW178070   2.497  12.014   5.241 -0.4368  0.9087  0.8291
57753SOL    HW278071   2.372  11.944   5.290 -0.3960 -1.0722 -1.6991
57754SOL     OW78072   1.437  11.005   8.610 -0.5802  0.3139  0.4169
57754SOL    HW178073   1.471  11.059   8.538  0.7909  0.7183  1.3441
57754SOL    HW278074   1.508  11.001   8.673 -1.4504 -0.7807  1.3681
57755SOL     OW78075   5.453  10.298  10.277 -0.3279  0.4943 -0.4530
57755SOL    HW178076   5.413  10.373  10.322  0.0322  0.1593  0.4696
57755SOL    HW278077   5.384  10.233  10.273 -0.6182  0.8406 -1.1810
57756SOL     OW78078   4.887   0.494   7.053 -0.5055  0.1202 -0.1097
57756SOL    HW178079   4.825   0.500   7.125  0.7091 -1.1533  1.1034
57756SOL    HW278080   4.954   0.560   7.073  0.0482 -0.5137  0.1656
57757SOL     OW78081   6.906   8.773   3.052  0.3541 -0.4724  0.1306
57757SOL    HW178082   6.994   8.805   3.030 -0.3290  0.8221 -0.8130
57757SOL    HW278083   6.860   8.850   3.084 -0.2406 -1.2989  1.3359
57758SOL     OW78084   5.145  12.182   5.865  0.8046  0.6186  0.0392
57758SOL    HW178085   5.137  12.104   5.811  0.2739  0.8685 -0.2448
57758SOL    HW278086   5.232  12.216   5.845  2.2897 -1.5191  2.3511
57759SOL     OW78087   8.771   3.309   7.061 -0.3402  0.4441 -0.4179
57759SOL    HW178088   8.748   3.398   7.086 -0.8787  0.0173  0.6968
57759SOL    HW278089   8.849   3.318   7.008  0.7586  1.4633  1.2673
57760SOL     OW78090   8.912   9.916   8.785  0.4314 -0.1118 -0.2125
57760SOL    HW178091   8.941   9.843   8.732  0.6637 -0.9148  0.9761
57760SOL    HW278092   8.991   9.967   8.801  0.3979  0.0193 -0.4585
57761SOL     OW78093  11.018   2.985   0.166 -0.3795 -0.0399 -0.0539
57761SOL    HW178094  10.995   2.928   0.240 -0.4680 -0.5984 -0.5062
57761SOL    HW278095  10.983   2.939   0.089 -0.1296  0.4501 -0.4622
57762SOL     OW78096   6.395   4.015  10.077 -0.2814  0.1666 -0.2888
57762SOL    HW178097   6.455   3.985  10.146 -0.3545 -1.1743 -0.7886
57762SOL    HW278098   6.329   3.946  10.071 -1.5411  1.3220 -0.1817
57763SOL     OW78099   3.286   2.759  12.384  0.4772 -0.1459  0.1347
57763SOL    HW178100   3.300   2.732  12.294  0.0945 -0.1169  0.0650
57763SOL    HW278101   3.284   2.855  12.381 -3.1513 -0.0855 -0.4413
57764SOL     OW78102   8.942   3.552   9.422  0.0326  0.2304 -0.7966
57764SOL    HW178103   8.855   3.520   9.445  0.9925 -0.8127  1.7337
57764SOL    HW278104   8.940   3.561   9.327 -1.5969 -3.6579 -1.3208
57765SOL     OW78105   9.512  12.232   5.785  0.1159  0.1513  0.1242
57765SOL    HW178106   9.419  12.210   5.785 -0.1875  1.3315 -0.2767
57765SOL    HW278107   9.544  12.206   5.872 -0.5235 -0.5049  0.1646
57766SOL     OW78108   4.945  10.089  10.310  0.0836  0.0236  0.3772
57766SOL    HW178109   4.875  10.144  10.275  0.6041 -0.3414 -1.3256
57766SOL    HW278110   4.902  10.038  10.379 -1.0047  0.7290  0.2629
57767SOL     OW78111  11.383   9.236   2.640  0.5029 -0.4830 -0.0570
57767SOL    HW178112  11.305   9.249   2.585  0.9914 -0.1402 -0.6732
57767SOL    HW278113  11.448   9.295   2.603  0.4738  0.6861  1.6494
57768SOL     OW78114  11.662   5.881   9.778 -0.3003 -0.2496 -0.2592
57768SOL    HW178115  11.756   5.894   9.766 -0.3660  0.0260 -0.4707
57768SOL    HW278116  11.628   5.968   9.796 -0.4579 -0.4069  0.2204
57769SOL     OW78117   5.962   5.920   5.341 -0.4190  0.8238 -0.0454
57769SOL    HW178118   5.877   5.876   5.345 -0.1452  0.3538  0.8776
57769SOL    HW278119   6.026   5.851   5.357  0.0544  1.4086  0.6781
57770SOL     OW78120  11.909  12.014   8.688 -0.3047 -0.3116  0.2675
57770SOL    HW178121  11.828  12.030   8.641 -0.3756 -3.1798 -0.8156
57770SOL    HW278122  11.882  11.966   8.766  0.2518 -0.4554  0.3760
57771SOL     OW78123   3.299   4.194   4.333  0.1490  0.2270  0.2103
57771SOL    HW178124   3.240   4.132   4.290 -0.7114  0.0721  1.5640
57771SOL    HW278125   3.247   4.273   4.346  1.3296  1.4532 -1.7944
57772SOL     OW78126  12.579   5.535   1.096  0.6011 -0.4921 -0.2264
57772SOL    HW178127  12.623   5.483   1.028  0.8194  0.9303 -1.2208
57772SOL    HW278128  12.499   5.567   1.054  0.8203  0.5390  0.1024
57773SOL     OW78129  12.573  11.709   8.952 -0.8351  0.4406 -0.2264
57773SOL    HW178130  12.577  11.770   9.025 -1.2880  0.4159 -0.1773
57773SOL    HW278131  12.481  11.709   8.925 -0.7191  0.2718 -0.6434
57774SOL     OW78132  10.431  12.376   7.222  0.0026 -0.6073 -0.3299
57774SOL    HW178133  10.417  12.470   7.209 -1.7730 -0.4644  2.0599
57774SOL    HW278134  10.346  12.336   7.206  0.6587 -1.8261 -0.9735
57775SOL     OW78135   8.022   9.020   4.990  0.1050 -0.2454 -0.4400
57775SOL    HW178136   7.983   9.101   5.022  0.1703 -0.3116 -0.1945
57775SOL    HW278137   8.051   9.041   4.901  2.1197  0.6815  0.3748
57776SOL     OW78138   1.092   9.836   1.199  0.2003 -0.0344  0.0326
57776SOL    HW178139   1.177   9.850   1.157  0.5710 -0.8120  0.4997
57776SOL    HW278140   1.044   9.782   1.137  0.0929  0.2888 -0.1693
57777SOL     OW78141   3.401   4.165  10.274 -0.0975 -0.5181  0.1139
57777SOL    HW178142   3.437   4.114  10.202 -1.6300 -2.4694  0.6322
57777SOL    HW278143   3.393   4.103  10.346 -1.6623  0.5351  0.9275
57778SOL     OW78144   4.686  11.036   0.324 -0.3038  0.2928  0.1303
57778SOL    HW178145   4.743  11.108   0.296 -0.5773  0.7299  0.6927
57778SOL    HW278146   4.615  11.036   0.260  0.3161 -0.2662 -0.5866
57779SOL     OW78147   4.381   6.972   7.660 -0.2420 -0.0232 -0.4240
57779SOL    HW178148   4.366   6.939   7.572 -0.6469  1.1420 -0.8152
57779SOL    HW278149   4.427   7.055   7.647 -0.4876  0.2623  0.4488
57780SOL     OW78150   8.843  10.315   3.225  0.4119 -0.0453  0.4925
57780SOL    HW178151   8.754  10.280   3.227  0.7111 -0.7974  1.4409
57780SOL    HW278152   8.898  10.239   3.204  0.7927  0.5223 -0.6499
57781SOL     OW78153  10.122   5.803   1.935  0.1094 -0.0407  0.5430
57781SOL    HW178154  10.060   5.730   1.935  1.8350 -1.5590  0.0252
57781SOL    HW278155  10.094   5.858   1.862 -0.9043 -0.4565  0.6032
57782SOL     OW78156   7.338   9.422   6.684 -0.0107 -0.0661 -0.3916
57782SOL    HW178157   7.283   9.357   6.727  0.8036 -1.1071 -0.8999
57782SOL    HW278158   7.410   9.438   6.747  0.0897 -0.0707 -0.5047
57783SOL     OW78159  11.904   4.217   0.989  0.5419  0.0419  0.1813
57783SOL    HW178160  11.959   4.244   1.062  0.8279  0.1008 -0.0540
57783SOL    HW278161  11.836   4.285   0.984 -0.2303 -0.6368  1.1932
57784SOL     OW78162   0.329   0.061   0.395  0.0905 -0.1158  0.9734
57784SOL    HW178163   0.419   0.049   0.364  0.1170  0.4185  0.8384
57784SOL    HW278164   0.317   0.156   0.399 -0.7034 -0.1759  0.3022
57785SOL     OW78165   3.580   5.497  12.312  0.0852  0.3346 -0.8208
57785SOL    HW178166   3.523   5.424  12.336  0.9682 -0.4425 -0.9979
57785SOL    HW278167   3.588   5.491  12.217  0.7234  0.2180 -0.7657
57786SOL     OW78168   8.775   7.220   8.790  0.6918 -0.2268 -0.4631
57786SOL    HW178169   8.752   7.243   8.700 -0.1152  0.7931 -0.0126
57786SOL    HW278170   8.804   7.302   8.829 -2.1426  0.1147  1.1511
57787SOL     OW78171   2.194   4.419   3.400 -0.5303  0.4623  0.6455
57787SOL    HW178172   2.285   4.442   3.380  0.1155 -1.6290  0.8942
57787SOL    HW278173   2.147   4.433   3.318 -0.2141  2.3747  0.7331
57788SOL     OW78174  11.031   0.833   4.092 -0.2011  0.1527  0.3621
57788SOL    HW178175  11.026   0.766   4.023 -0.2615 -0.3723  0.8755
57788SOL    HW278176  11.125   0.845   4.107 -0.1996 -0.1552  0.5992
57789SOL     OW78177   8.832   2.477   9.507  0.3342  0.1859 -0.1362
57789SOL    HW178178   8.811   2.431   9.426  1.4013  0.6579 -0.7013
57789SOL    HW278179   8.780   2.432   9.574  0.4020 -1.0274 -0.8641
57790SOL     OW78180   7.993  10.742   6.175  0.5802 -0.2748 -0.4285
57790SOL    HW178181   7.916  10.760   6.228  1.1123 -0.7287  0.5052
57790SOL    HW278182   7.958  10.717   6.089 -0.2724  0.6562 -0.3606
57791SOL     OW78183   4.916   2.173   3.382  0.5108 -0.9935  0.7691
57791SOL    HW178184   4.912   2.234   3.308  0.2326 -0.2516  1.3749
57791SOL    HW278185   5.007   2.179   3.413  0.2731 -0.2271  1.3510
57792SOL     OW78186   8.348   6.624   4.881  0.1300  0.3113  0.0693
57792SOL    HW178187   8.320   6.583   4.798 -0.1744 -0.9147  0.7410
57792SOL    HW278188   8.266   6.649   4.923  0.1224 -1.0582  0.9469
57793SOL     OW78189   0.524  11.409   9.582  0.5498  0.4409  0.6170
57793SOL    HW178190   0.464  11.453   9.522  0.1717 -0.3418  0.3993
57793SOL    HW278191   0.491  11.430   9.669 -0.8643 -1.0454  0.4890
57794SOL     OW78192  11.076   5.940   6.663  0.4142  0.5288  0.9724
57794SOL    HW178193  10.983   5.941   6.643  0.8049 -0.1355 -1.0800
57794SOL    HW278194  11.097   6.030   6.687 -0.7384  0.6790  1.4441
57795SOL     OW78195   6.601   6.103   2.135  0.0296 -0.7848 -0.5689
57795SOL    HW178196   6.529   6.058   2.091 -0.6721 -0.4029  0.1660
57795SOL    HW278197   6.574   6.194   2.139 -0.1099 -0.8652  0.9739
57796SOL     OW78198  12.579  12.647   9.381  0.4283 -0.5693  0.5461
57796SOL    HW178199  12.664  12.688   9.397  0.4909 -1.4457  2.7166
57796SOL    HW278200  12.552  12.680   9.295  2.0234  1.2951  0.7078
57797SOL     OW78201   7.131   2.422   7.617  0.0075  0.6841 -0.2102
57797SOL    HW178202   7.124   2.395   7.525  0.2485  1.1219 -0.3604
57797SOL    HW278203   7.058   2.379   7.660  0.0298  0.2857 -0.5638
57798SOL     OW78204   9.242  10.017   7.483  0.1430 -0.0572 -0.3129
57798SOL    HW178205   9.269  10.099   7.440  1.7546 -0.8648 -0.9197
57798SOL    HW278206   9.261   9.949   7.418  0.0355 -1.0445  0.6662
57799SOL     OW78207   7.865   0.712  11.119 -0.1836  0.3745 -0.7995
57799SOL    HW178208   7.878   0.749  11.031  0.7012  1.1892 -0.3401
57799SOL    HW278209   7.791   0.762  11.155  0.2422  0.8892 -0.6281
57800SOL     OW78210   8.963  10.156   4.041  0.1784  0.1007 -0.5815
57800SOL    HW178211   8.922  10.070   4.042  0.0039  0.1857 -0.0223
57800SOL    HW278212   9.044  10.145   4.090 -0.6347  0.6233  0.9433
57801SOL     OW78213   3.436   5.331   9.849 -0.0058  0.1191  0.3633
57801SOL    HW178214   3.450   5.380   9.769  0.3501  0.2168  0.4829
57801SOL    HW278215   3.472   5.386   9.918  1.1373 -0.6455  0.4112
57802SOL     OW78216   9.957  12.085   1.162 -0.2458  0.5592 -0.4809
57802SOL    HW178217  10.042  12.074   1.204 -0.4583  0.5268 -0.0469
57802SOL    HW278218   9.971  12.152   1.095 -0.0381  1.0617  0.0533
57803SOL     OW78219  11.367   5.147  11.208  0.3884  0.2783 -0.1011
57803SOL    HW178220  11.388   5.068  11.258  0.2271  0.3049  0.0115
57803SOL    HW278221  11.296   5.121  11.150 -1.3055  0.9067  1.5656
57804SOL     OW78222   9.335   4.550  11.137  0.7251  0.1242  0.0953
57804SOL    HW178223   9.313   4.617  11.073  1.5700  0.9146  0.6111
57804SOL    HW278224   9.392   4.489  11.090  0.1211 -0.1434 -0.3137
57805SOL     OW78225   2.174   3.380  11.571  0.0277  0.6258 -1.3481
57805SOL    HW178226   2.251   3.339  11.532  0.6239  0.5744 -0.1508
57805SOL    HW278227   2.198   3.472  11.581 -0.2812  0.7225 -1.4899
57806SOL     OW78228   9.960   0.548   9.143 -0.0569  0.0808  0.4759
57806SOL    HW178229   9.972   0.629   9.093  1.3408  0.9887  2.1898
57806SOL    HW278230   9.867   0.547   9.166 -0.9572 -0.7536 -2.6553
57807SOL     OW78231   6.484   2.404   4.359  0.3211  0.0207 -0.2217
57807SOL    HW178232   6.552   2.364   4.304  0.2887 -0.9886  0.4411
57807SOL    HW278233   6.432   2.458   4.299  1.1289  0.0490 -0.9086
57808SOL     OW78234   5.502   7.600  10.127  0.3801  0.0464 -0.6930
57808SOL    HW178235   5.481   7.575  10.217 -0.8806  0.4543 -0.8433
57808SOL    HW278236   5.442   7.673  10.109  1.0380  0.3591 -1.6602
57809SOL     OW78237   0.809   0.868  10.644  0.1747 -0.2221 -0.2795
57809SOL    HW178238   0.734   0.813  10.620 -0.1755  0.4750 -0.8424
57809SOL    HW278239   0.769   0.949  10.676  0.6543 -0.6987  1.6736
57810SOL     OW78240  10.560   1.484   2.975 -0.1786 -0.0252 -0.2720
57810SOL    HW178241  10.531   1.394   2.990  1.8745 -0.8856 -1.0082
57810SOL    HW278242  10.590   1.515   3.060 -0.6892 -0.1004 -0.0611
57811SOL     OW78243   3.187   8.919  11.949 -0.0238  0.3608  0.0993
57811SOL    HW178244   3.173   8.952  11.860 -1.4799 -3.1844 -1.1867
57811SOL    HW278245   3.273   8.877  11.946 -0.5574 -0.7705 -0.0587
57812SOL     OW78246   7.175   8.455  10.621  0.3420  0.1514 -0.2202
57812SOL    HW178247   7.125   8.468  10.540  1.8863  0.1803 -1.2086
57812SOL    HW278248   7.265   8.477  10.598  1.1176 -1.4459  1.0594
57813SOL     OW78249   8.808  11.433   1.952 -0.2676 -0.0807  0.0419
57813SOL    HW178250   8.827  11.368   1.884 -0.1338 -1.3606  1.2525
57813SOL    HW278251   8.886  11.488   1.955  0.8128 -1.5843  0.8601
57814SOL     OW78252  11.960   9.490   8.048  0.1195  0.3827  0.5905
57814SOL    HW178253  12.016   9.422   8.010 -0.3948  0.1678  0.2015
57814SOL    HW278254  12.017   9.537   8.108  0.7585  0.2496  0.1054
57815SOL     OW78255   7.324   4.572   7.331  0.2426  0.6794  0.1990
57815SOL    HW178256   7.244   4.541   7.375  0.2589 -0.6788 -0.6806
57815SOL    HW278257   7.294   4.647   7.278 -0.5222  0.0258 -0.3230
57816SOL     OW78258   8.334   9.651   4.725 -0.5143 -0.0347 -0.2285
57816SOL    HW178259   8.318   9.649   4.820 -0.9480  1.4654 -0.2429
57816SOL    HW278260   8.402   9.717   4.713  0.5699 -1.2422 -0.8497
57817SOL     OW78261  10.492   8.397  11.372  0.3549 -0.1554  0.2093
57817SOL    HW178262  10.430   8.341  11.325 -1.7869  0.9228  1.5933
57817SOL    HW278263  10.520   8.461  11.306  0.4226 -0.9708 -0.5777
57818SOL     OW78264   2.496   1.110   4.812 -0.3160  0.4865  0.3499
57818SOL    HW178265   2.506   1.177   4.744  1.3438 -0.6311 -0.5686
57818SOL    HW278266   2.533   1.150   4.890  1.6352  0.3087 -0.4449
57819SOL     OW78267   6.875   9.523   7.824 -0.4188 -0.0153 -0.1141
57819SOL    HW178268   6.968   9.505   7.817  0.1053  2.4977 -0.4960
57819SOL    HW278269   6.835   9.468   7.756  1.0381  0.3781 -1.3345
57820SOL     OW78270   6.757  12.285  10.954  0.4307 -0.0941  0.1479
57820SOL    HW178271   6.715  12.238  10.882  2.0938 -1.1784 -0.1732
57820SOL    HW278272   6.772  12.373  10.920 -2.7855  0.8125  0.7764
57821SOL     OW78273   6.364   9.634   8.182 -0.4170 -0.7761  0.0002
57821SOL    HW178274   6.381   9.650   8.275  0.5048 -0.1842 -0.2530
57821SOL    HW278275   6.448   9.650   8.139 -0.8339 -1.0248 -0.9417
57822SOL     OW78276   4.369   7.813   2.802 -0.1284  0.5143 -0.5257
57822SOL    HW178277   4.369   7.898   2.759 -1.0449  1.1681  0.7331
57822SOL    HW278278   4.448   7.813   2.856  0.7807 -0.1331 -1.7832
57823SOL     OW78279   5.708   8.689   6.661  0.1200  0.3305  0.0233
57823SOL    HW178280   5.724   8.606   6.706 -0.1554 -0.0094 -0.4955
57823SOL    HW278281   5.623   8.676   6.618 -0.0474  0.9776  0.1613
57824SOL     OW78282  10.000   0.462  11.456 -0.1544 -0.2344 -0.1029
57824SOL    HW178283   9.994   0.556  11.474 -2.8591 -0.6089  1.4458
57824SOL    HW278284  10.066   0.431  11.518  2.0518  0.7862 -1.7794
57825SOL     OW78285   6.630   5.121  10.824 -0.1263  0.4046 -0.0217
57825SOL    HW178286   6.567   5.050  10.809 -0.4549  0.9140 -1.1540
57825SOL    HW278287   6.696   5.109  10.756  0.5791  0.3749  0.6476
57826SOL     OW78288   9.612  11.491   4.807  0.0014 -0.3567  0.6812
57826SOL    HW178289   9.573  11.543   4.877  0.0642  1.1889 -0.3844
57826SOL    HW278290   9.538  11.448   4.765 -0.1466 -0.4050  0.9861
57827SOL     OW78291   6.157   2.430   4.676 -0.2810  0.1765 -0.1251
57827SOL    HW178292   6.185   2.448   4.766 -1.5098 -1.3504  0.6167
57827SOL    HW278293   6.218   2.363   4.645  1.3102  1.9697 -1.1807
57828SOL     OW78294   0.528   4.272   5.572  0.2433  0.1209 -0.2985
57828SOL    HW178295   0.439   4.235   5.575 -0.5526  1.8203 -1.1848
57828SOL    HW278296   0.575   4.216   5.511  0.1009 -1.3658  0.8900
57829SOL     OW78297   8.070   4.241   0.311 -0.3756 -0.2764  0.7643
57829SOL    HW178298   8.011   4.231   0.386 -0.5113  0.5375  0.7808
57829SOL    HW278299   8.075   4.154   0.273 -1.9435 -0.2942  0.5038
57830SOL     OW78300  10.082   4.688  12.268 -0.3649 -0.1267  0.0637
57830SOL    HW178301  10.122   4.636  12.198 -1.2667 -0.2776 -0.3425
57830SOL    HW278302  10.032   4.756  12.223 -0.5444  0.0849  0.5699
57831SOL     OW78303   0.021  10.021   9.028 -0.1150  0.3497  0.1141
57831SOL    HW178304   0.058  10.010   9.116  0.4334 -2.0921 -0.3360
57831SOL    HW278305  -0.058   9.967   9.029  0.3754 -0.4387 -1.1119
57832SOL     OW78306   7.111   9.175   2.833  0.6193  0.2391  0.4087
57832SOL    HW178307   7.076   9.190   2.921  1.5827 -0.4476  0.9301
57832SOL    HW278308   7.206   9.188   2.842  1.0048 -1.9520 -0.0252
57833SOL     OW78309   3.086   0.058   5.794  0.1962  0.1311  0.0119
57833SOL    HW178310   3.124   0.136   5.834  0.4745  1.2197 -2.1980
57833SOL    HW278311   3.158   0.021   5.742 -0.0081 -1.4800  0.8279
57834SOL     OW78312  11.584  12.162  12.078 -0.0121 -0.5224  0.4864
57834SOL    HW178313  11.489  12.155  12.069  0.0898 -1.2253 -0.2825
57834SOL    HW278314  11.601  12.151  12.171 -0.6515 -0.9426  0.5581
57835SOL     OW78315  12.580   6.105   8.683  0.3714  0.4703  0.5400
57835SOL    HW178316  12.621   6.045   8.621 -0.5782  0.2163  0.1419
57835SOL    HW278317  12.503   6.138   8.637  1.7592  3.3349  0.0808
57836SOL     OW78318   4.366   3.730  11.479  0.4223  0.8593 -0.1070
57836SOL    HW178319   4.386   3.638  11.462  0.5708  1.2241 -2.1082
57836SOL    HW278320   4.435   3.758  11.540 -0.1565 -0.5487  1.2796
57837SOL     OW78321   2.825   6.359   8.818  0.2788  0.0490 -0.0020
57837SOL    HW178322   2.765   6.357   8.744 -1.4207 -0.8899  1.3279
57837SOL    HW278323   2.828   6.450   8.845 -0.3439  0.1458 -0.2485
57838SOL     OW78324   7.316   0.587   6.074 -0.0811 -0.1213 -0.1290
57838SOL    HW178325   7.316   0.675   6.113  0.6269 -1.1674  2.4342
57838SOL    HW278326   7.255   0.593   6.001  0.1894  2.5685 -0.2353
57839SOL     OW78327   1.962   3.570   2.688 -0.0907  0.7152 -0.1682
57839SOL    HW178328   2.057   3.558   2.698 -0.2888  0.1700  1.1847
57839SOL    HW278329   1.953   3.654   2.643  1.0615  0.1738 -1.4941
57840SOL     OW78330   0.334   0.742   6.527  0.4670  0.3985 -0.0340
57840SOL    HW178331   0.372   0.709   6.446 -1.3404  0.3981 -0.9207
57840SOL    HW278332   0.259   0.684   6.544  0.0683  1.1635  0.9380
57841SOL     OW78333   0.623  10.857   7.896 -0.2474 -0.2167  0.4512
57841SOL    HW178334   0.694  10.887   7.954  1.0546 -1.2819 -0.5592
57841SOL    HW278335   0.603  10.934   7.843  0.9416 -0.2021 -0.0150
57842SOL     OW78336   6.892   6.132   9.051 -0.1335 -0.0651  0.4459
57842SOL    HW178337   6.840   6.177   8.985 -1.4539  0.4627  1.7887
57842SOL    HW278338   6.963   6.193   9.071 -0.7143  0.5361  0.7312
57843SOL     OW78339   9.585  12.265  12.166 -0.3946  0.6332  0.0599
57843SOL    HW178340   9.670  12.306  12.149 -0.8116  1.3797 -0.2428
57843SOL    HW278341   9.539  12.327  12.221  0.3599 -1.0767  2.8334
57844SOL     OW78342   6.133   0.710  10.530  0.5457 -0.4773  0.0869
57844SOL    HW178343   6.052   0.756  10.553  1.8086  1.4554  0.9416
57844SOL    HW278344   6.110   0.617  10.535 -1.0821 -0.0446  2.4697
57845SOL     OW78345   0.755  12.432   3.446  0.5354  0.4027 -0.3662
57845SOL    HW178346   0.706  12.510   3.422  0.0285  0.0348 -0.5440
57845SOL    HW278347   0.845  12.462   3.456  0.4640  0.8742 -1.0973
57846SOL     OW78348   0.590   8.210   8.194  0.4104  0.7250  0.0070
57846SOL    HW178349   0.662   8.237   8.136  0.8109 -0.8404 -0.2784
57846SOL    HW278350   0.633   8.176   8.272 -0.0158 -0.1222 -0.1183
57847SOL     OW78351   0.207   2.161   2.752 -0.5169  0.2874 -0.8459
57847SOL    HW178352   0.267   2.201   2.814 -0.7785  1.4353 -1.2961
57847SOL    HW278353   0.120   2.186   2.784 -0.6876  0.0083 -1.0881
57848SOL     OW78354   1.089  10.405   8.642 -0.3178 -0.3751 -0.3782
57848SOL    HW178355   1.134  10.441   8.566 -1.0315  0.4607 -0.4153
57848SOL    HW278356   1.051  10.322   8.611 -0.7267  0.0329 -0.9750
57849SOL     OW78357   2.419   7.264   8.906 -0.0286 -0.1288 -0.1034
57849SOL    HW178358   2.451   7.240   8.993  0.6909 -1.3596 -0.6781
57849SOL    HW278359   2.396   7.180   8.865 -0.1568  0.4125 -1.1709
57850SOL     OW78360   2.212   4.477  10.263 -0.2545  0.5117  0.4764
57850SOL    HW178361   2.252   4.521  10.338 -0.2638  1.0693  0.1629
57850SOL    HW278362   2.156   4.409  10.301  1.6770 -0.9321  0.9252
57851SOL     OW78363   1.029  12.332   6.985  0.0994 -0.1135 -0.2641
57851SOL    HW178364   1.055  12.406   6.930  1.0977  0.4274  0.8928
57851SOL    HW278365   1.069  12.350   7.070 -0.9268 -1.2210  0.4843
57852SOL     OW78366   0.840   5.141   7.690 -0.1031 -0.0545 -0.3723
57852SOL    HW178367   0.750   5.160   7.664  0.3835 -0.0142 -2.1675
57852SOL    HW278368   0.832   5.092   7.772 -1.6653  1.3400  0.3547
57853SOL     OW78369   9.485   5.013   7.133 -0.8635 -0.8994  0.3178
57853SOL    HW178370   9.448   4.925   7.122 -0.1026 -1.0993 -0.8995
57853SOL    HW278371   9.572   5.006   7.094 -0.0893 -0.0721  1.8277
57854SOL     OW78372   3.735  12.301   4.519 -0.2692 -0.3548 -0.0343
57854SOL    HW178373   3.799  12.306   4.448 -1.5866  0.1043 -1.2247
57854SOL    HW278374   3.751  12.379   4.571  0.4085 -0.4624 -0.0694
57855SOL     OW78375   8.740   9.237   6.208 -0.3814  0.3218 -0.3838
57855SOL    HW178376   8.821   9.205   6.169  0.0979 -1.5077  1.8951
57855SOL    HW278377   8.682   9.255   6.134  1.9149  1.2482 -2.0463
57856SOL     OW78378  10.229   7.471   2.830 -0.4160 -0.4171  0.5433
57856SOL    HW178379  10.202   7.522   2.754  0.3212 -2.3951 -1.1122
57856SOL    HW278380  10.171   7.502   2.900  0.3917  3.1199 -0.1242
57857SOL     OW78381   2.964  11.978   4.579 -0.1802 -0.3582 -0.2849
57857SOL    HW178382   3.034  12.033   4.615 -1.6958 -0.2940  2.9592
57857SOL    HW278383   2.921  12.033   4.514  0.0573  1.3100  0.8933
57858SOL     OW78384   7.717  12.636   1.058 -0.0282 -0.3652  0.4958
57858SOL    HW178385   7.708  12.710   1.118 -0.6677  0.1198 -0.1943
57858SOL    HW278386   7.657  12.570   1.093  2.2568 -1.5544  2.5235
57859SOL     OW78387   2.205   7.775   0.416  0.2153  0.7661  0.6171
57859SOL    HW178388   2.170   7.773   0.505 -0.6563 -0.3873  0.2752
57859SOL    HW278389   2.139   7.729   0.364  2.6597 -2.5767  0.1059
57860SOL     OW78390   6.222   0.681   5.313  0.0881  0.6104 -0.4836
57860SOL    HW178391   6.256   0.766   5.340  0.0609  0.3916  0.2774
57860SOL    HW278392   6.291   0.619   5.336 -0.4544  0.2667  0.2678
57861SOL     OW78393   8.346  11.392   1.909  0.4369 -0.0912  0.8527
57861SOL    HW178394   8.414  11.442   1.864  0.8024 -0.0560  1.4365
57861SOL    HW278395   8.305  11.456   1.968 -0.9632  0.2201 -0.3919
57862SOL     OW78396   5.019   4.120   1.342  0.3525 -0.4360  0.0222
57862SOL    HW178397   5.113   4.118   1.323  0.4047 -0.1166  0.2251
57862SOL    HW278398   4.994   4.212   1.328 -0.2923 -0.8379 -1.6856
57863SOL     OW78399   6.188   7.794   8.824  0.0266  0.1669  0.5968
57863SOL    HW178400   6.117   7.848   8.790  0.2291 -0.6308 -1.2156
57863SOL    HW278401   6.266   7.850   8.820 -0.2138  0.5544  1.1801
57864SOL     OW78402  10.435   9.962   6.264  0.0559  0.1456 -0.1395
57864SOL    HW178403  10.376   9.909   6.210  0.2359  1.3426 -1.5993
57864SOL    HW278404  10.522   9.939   6.233  0.2832 -0.5408  0.9846
57865SOL     OW78405   9.593   6.895  10.739  0.8356  0.1126  0.5288
57865SOL    HW178406   9.683   6.872  10.713  0.5722 -0.9352  0.4838
57865SOL    HW278407   9.540   6.820  10.711 -0.3144  1.3769 -0.8372
57866SOL     OW78408   4.104  12.138   0.875 -0.7042  0.4795 -0.1560
57866SOL    HW178409   4.049  12.162   0.949  0.4975 -0.8126  1.2516
57866SOL    HW278410   4.172  12.205   0.873  0.1352 -0.2854  0.9537
57867SOL     OW78411   5.263   5.137  11.073  0.4258  0.0168  0.0707
57867SOL    HW178412   5.310   5.094  11.144  0.7907 -1.4457 -1.0018
57867SOL    HW278413   5.203   5.198  11.117 -0.5559 -1.9988  1.7338
57868SOL     OW78414   6.878   2.183  11.750 -0.3467 -0.2674  0.3297
57868SOL    HW178415   6.793   2.210  11.788 -0.7933  0.3650 -1.0474
57868SOL    HW278416   6.892   2.095  11.784 -0.7759  0.2164  1.8560
57869SOL     OW78417   8.580   9.012   5.659  0.4463 -0.3602 -0.2227
57869SOL    HW178418   8.592   8.996   5.752 -1.5270  1.5830  0.4532
57869SOL    HW278419   8.655   9.067   5.634 -0.0888  0.8827  0.7743
57870SOL     OW78420  11.557   7.111   3.229  0.2096 -0.3047  0.0867
57870SOL    HW178421  11.604   7.194   3.232 -0.9798  0.3653  1.2364
57870SOL    HW278422  11.620   7.048   3.193  1.9587  0.5441  1.5511
57871SOL     OW78423   4.678   8.631  10.433 -0.1801 -0.2353  0.0121
57871SOL    HW178424   4.690   8.719  10.469  1.7726 -0.1683 -0.6725
57871SOL    HW278425   4.623   8.644  10.356 -0.3317  0.3168  0.2083
57872SOL     OW78426  11.674   4.605   3.748 -0.0632  0.4998 -0.5184
57872SOL    HW178427  11.654   4.579   3.658  0.3741 -0.4843 -0.3424
57872SOL    HW278428  11.610   4.673   3.768 -0.7015  0.1449 -1.2957
57873SOL     OW78429   2.242   5.952   9.861  0.4047 -0.3226 -0.3302
57873SOL    HW178430   2.183   6.022   9.833 -2.0430 -2.2810 -0.4418
57873SOL    HW278431   2.280   5.982   9.943  0.5048  1.6735 -1.0713
57874SOL     OW78432   3.515   8.414   6.640  0.3340  0.0132  0.6034
57874SOL    HW178433   3.492   8.321   6.643  1.0465 -0.2232 -0.6184
57874SOL    HW278434   3.500   8.446   6.729 -1.3748 -0.9150  0.6880
57875SOL     OW78435   0.268   1.701   0.058  0.0289 -0.0540  0.1983
57875SOL    HW178436   0.219   1.741   0.130  0.2977  0.2331  0.2254
57875SOL    HW278437   0.360   1.708   0.085  0.2212  1.0868 -0.6649
57876SOL     OW78438  10.618   8.751   4.681  0.5477  0.0347 -0.3026
57876SOL    HW178439  10.600   8.703   4.762 -1.3738  0.4338 -0.4483
57876SOL    HW278440  10.658   8.687   4.623 -0.1821 -0.8784  0.1794
57877SOL     OW78441   5.336  11.511   7.065 -0.0972  0.3729 -0.1141
57877SOL    HW178442   5.364  11.528   6.975  0.5937 -0.3486 -0.0460
57877SOL    HW278443   5.412  11.471   7.107 -0.5982  0.1729  0.6307
57878SOL     OW78444  10.051   2.089   0.141  0.3602  0.0664 -0.4023
57878SOL    HW178445  10.121   2.137   0.096  0.0959 -0.0207 -0.9036
57878SOL    HW278446  10.075   1.997   0.132  0.5833  0.0747  0.0932
57879SOL     OW78447   3.650   1.400   5.374 -0.0192 -0.2526 -0.2151
57879SOL    HW178448   3.651   1.318   5.424 -2.1858  0.6908  1.5835
57879SOL    HW278449   3.588   1.384   5.303 -0.6976 -0.0886  0.3329
57880SOL     OW78450   0.157   3.753   2.642 -0.1967  0.2511  0.5792
57880SOL    HW178451   0.198   3.726   2.724  1.0756 -1.2951 -0.5111
57880SOL    HW278452   0.101   3.679   2.617 -0.1066  0.4485 -0.2366
57881SOL     OW78453  10.963   5.328   4.134 -0.4851 -0.3595  0.2095
57881SOL    HW178454  10.876   5.340   4.095 -0.8995 -0.9873  0.9312
57881SOL    HW278455  10.957   5.245   4.181  0.9768 -1.2092 -1.0015
57882SOL     OW78456  10.172   1.095   7.231 -0.5190 -0.3813  0.6585
57882SOL    HW178457  10.189   1.171   7.176  0.7028 -0.1586  1.2932
57882SOL    HW278458  10.092   1.056   7.195  0.6931 -0.7812 -1.8535
57883SOL     OW78459  11.111   7.129   7.613  0.5613 -0.2351 -0.0744
57883SOL    HW178460  11.085   7.044   7.577 -0.3762  0.0586 -0.1291
57883SOL    HW278461  11.102   7.189   7.539  0.8608 -0.0246  0.0617
57884SOL     OW78462   3.434   9.329   7.679  0.0053  0.3515  0.5078
57884SOL    HW178463   3.449   9.234   7.677 -0.7258  0.2132  1.2332
57884SOL    HW278464   3.515   9.366   7.644  0.4470 -0.5278  0.5589
57885SOL     OW78465   6.381   5.311   2.586 -0.5788  0.8601 -0.5539
57885SOL    HW178466   6.429   5.369   2.528 -0.4276 -0.4522 -1.7854
57885SOL    HW278467   6.297   5.297   2.543 -0.4280 -0.2099 -0.5278
57886SOL     OW78468   8.583   8.440  10.760 -0.2657  0.0590 -0.1566
57886SOL    HW178469   8.525   8.514  10.742 -2.7742 -1.2905  1.7587
57886SOL    HW278470   8.533   8.363  10.733  0.5760 -1.1776  1.6328
57887SOL     OW78471   7.731   2.041   9.188 -0.2589 -0.3978 -0.0612
57887SOL    HW178472   7.652   1.998   9.155 -1.5977  1.5374  0.4219
57887SOL    HW278473   7.791   1.969   9.207 -2.3859 -2.0755  0.7946
57888SOL     OW78474   8.336   7.176   7.075  0.2857  0.1292 -0.7938
57888SOL    HW178475   8.271   7.147   7.011 -2.3752  2.2453  0.7343
57888SOL    HW278476   8.285   7.216   7.145  3.1724 -0.2119  1.7165
57889SOL     OW78477   3.784   8.021   7.490 -0.2534 -0.0210  0.6106
57889SOL    HW178478   3.812   7.931   7.510  1.7208  0.1121 -1.2071
57889SOL    HW278479   3.865   8.072   7.495 -0.8098  1.1099 -1.2098
57890SOL     OW78480   6.914   0.465   7.134  0.0437 -0.4007  0.5850
57890SOL    HW178481   6.854   0.540   7.130  1.2015  0.6168  1.4726
57890SOL    HW278482   6.917   0.441   7.226  1.3830 -0.0968  0.6322
57891SOL     OW78483   6.514  10.525   9.610  0.4013  0.7934  0.2628
57891SOL    HW178484   6.451  10.509   9.680  1.5728  1.7762  1.6081
57891SOL    HW278485   6.511  10.619   9.595  1.0255  0.7564 -0.1585
57892SOL     OW78486   4.681   8.273   1.295  0.3168  0.0236  0.4347
57892SOL    HW178487   4.738   8.241   1.365  0.0048 -0.1307  0.6194
57892SOL    HW278488   4.607   8.213   1.294  0.0194  0.3868  0.3812
57893SOL     OW78489   5.191   9.614   5.293 -0.4244  0.5773 -0.3051
57893SOL    HW178490   5.196   9.540   5.232  1.0661  0.8456 -0.5489
57893SOL    HW278491   5.193   9.574   5.380  1.1558  0.3163 -0.4257
57894SOL     OW78492   1.945   6.921   9.326  0.1377  0.0620 -0.6236
57894SOL    HW178493   1.906   6.969   9.253 -1.5487 -0.1315  0.1203
57894SOL    HW278494   2.020   6.974   9.352 -1.2312  1.9391 -0.2927
57895SOL     OW78495   2.690   3.281   0.789  0.5458  0.0287 -0.5855
57895SOL    HW178496   2.654   3.204   0.744  0.0256 -0.3023  0.3738
57895SOL    HW278497   2.613   3.327   0.822  0.9451 -0.7019  1.5190
57896SOL     OW78498   1.663   3.367   4.738  0.0632  0.0318  0.1600
57896SOL    HW178499   1.580   3.414   4.732 -0.8936 -1.5050  0.8229
57896SOL    HW278500   1.691   3.379   4.829 -0.4566 -1.0727  0.4837
57897SOL     OW78501  12.637   8.713   7.908 -0.1633 -0.3278  0.2404
57897SOL    HW178502  12.541   8.703   7.909 -0.3358  0.8766 -1.1701
57897SOL    HW278503  12.651   8.807   7.899  1.0591 -0.7404 -3.9038
57898SOL     OW78504  12.641   8.686   3.225 -0.3152 -0.3029  0.4838
57898SOL    HW178505  12.668   8.773   3.196 -0.7009 -0.2021  0.4233
57898SOL    HW278506  12.723   8.641   3.245 -0.1854  0.7004  2.4111
57899SOL     OW78507   0.785   4.236   1.085 -0.2815  0.7087 -0.1284
57899SOL    HW178508   0.846   4.207   1.017  0.2305 -1.3596  1.0999
57899SOL    HW278509   0.725   4.296   1.041  0.7248  0.3282 -2.1091
57900SOL     OW78510   2.762   5.643   7.950 -0.1389 -0.7680 -0.7718
57900SOL    HW178511   2.750   5.738   7.945  1.6584 -0.5167 -1.0573
57900SOL    HW278512   2.755   5.613   7.859 -1.4940 -1.0446 -0.5952
57901SOL     OW78513   0.416   2.591   1.455  0.0179 -0.1451  0.1442
57901SOL    HW178514   0.358   2.656   1.494  1.2973  1.2785 -0.2470
57901SOL    HW278515   0.386   2.508   1.491 -2.9143  0.3618 -0.7899
57902SOL     OW78516  12.074   6.732   9.477 -0.7460 -0.0238 -0.0440
57902SOL    HW178517  12.154   6.695   9.516 -1.5043 -1.0360  0.5906
57902SOL    HW278518  12.038   6.788   9.546 -3.0062 -3.1257  1.5532
57903SOL     OW78519   6.269   7.502   4.333 -0.5493  0.1254 -0.3439
57903SOL    HW178520   6.265   7.532   4.423 -2.3436 -0.5350 -0.1573
57903SOL    HW278521   6.336   7.433   4.333 -0.9758 -0.3026  0.6330
57904SOL     OW78522  12.577   3.075  10.834 -0.0256 -0.1790 -0.2307
57904SOL    HW178523  12.582   3.165  10.802  1.4307 -0.3532 -0.5405
57904SOL    HW278524  12.544   3.084  10.923 -0.1288  0.6458 -0.3386
57905SOL     OW78525  11.559   2.139   0.647 -0.0906  0.3116  0.1319
57905SOL    HW178526  11.559   2.211   0.711  1.1619  2.3059 -1.9642
57905SOL    HW278527  11.642   2.094   0.662 -0.2349  0.1607  0.5078
57906SOL     OW78528   0.718  12.415  11.476 -0.1936 -0.1429  0.6084
57906SOL    HW178529   0.659  12.467  11.531 -1.0628 -0.7063  0.2337
57906SOL    HW278530   0.705  12.325  11.507 -0.6641 -0.4610 -0.4708
57907SOL     OW78531   1.424   6.324   4.367 -0.2395  0.2650  0.2761
57907SOL    HW178532   1.396   6.245   4.322  1.5009  0.4013 -1.1435
57907SOL    HW278533   1.347   6.352   4.417 -0.6552 -2.7237  1.4814
57908SOL     OW78534  10.253   9.522   9.729  0.0440 -0.3180 -0.0885
57908SOL    HW178535  10.163   9.546   9.709  0.3996  1.1968  0.0434
57908SOL    HW278536  10.282   9.474   9.652 -0.9631 -1.1338  0.0089
57909SOL     OW78537   6.448   3.594   7.601  0.3230 -0.4877  0.4401
57909SOL    HW178538   6.400   3.526   7.553 -0.6548  0.6350 -0.2025
57909SOL    HW278539   6.381   3.646   7.644  1.1017 -0.3228  1.5069
57910SOL     OW78540   9.907   8.850   1.019  0.1561 -0.6933  0.1553
57910SOL    HW178541   9.957   8.908   1.076 -2.4630  1.0283  0.8660
57910SOL    HW278542   9.891   8.772   1.073 -0.1326 -0.1506  0.8697
57911SOL     OW78543   8.273   4.835   3.858 -0.4199 -0.3601  0.3952
57911SOL    HW178544   8.361   4.848   3.895 -0.4150  1.5302 -0.2170
57911SOL    HW278545   8.287   4.774   3.786  0.7756  1.3936 -0.9539
57912SOL     OW78546   6.153   7.794  11.900  0.2517  0.0144  0.3687
57912SOL    HW178547   6.212   7.809  11.974 -0.0967 -0.2626  0.7050
57912SOL    HW278548   6.210   7.792  11.824  0.6152  0.2993  0.6302
57913SOL     OW78549  11.451   2.227   3.729  0.1747 -0.0849 -0.3524
57913SOL    HW178550  11.479   2.219   3.820  1.2198  0.0670 -0.6442
57913SOL    HW278551  11.532   2.247   3.681 -0.1235 -1.4155 -1.4888
57914SOL     OW78552   2.427  10.747  10.094 -0.0159  0.2412  0.1337
57914SOL    HW178553   2.424  10.682  10.164 -2.2766  0.1611  0.0386
57914SOL    HW278554   2.432  10.696  10.014 -1.5213  0.1377  0.0738
57915SOL     OW78555   1.764   5.095   2.461 -0.5158 -0.1953  0.5925
57915SOL    HW178556   1.710   5.153   2.408  0.4282  0.3357  0.1831
57915SOL    HW278557   1.751   5.008   2.422 -0.4275  0.0661 -0.0271
57916SOL     OW78558   5.098   5.592   4.949  0.1899 -0.4830  0.4587
57916SOL    HW178559   5.153   5.515   4.931  0.6823 -0.5121  1.9652
57916SOL    HW278560   5.154   5.667   4.930  0.1945 -0.5029  0.3939
57917SOL     OW78561   4.571   2.563  10.123 -0.3615  0.1399 -0.0304
57917SOL    HW178562   4.647   2.551  10.067  1.0669 -0.3806  1.9036
57917SOL    HW278563   4.518   2.485  10.109 -0.1037  0.0876 -0.7485
57918SOL     OW78564   4.461   1.221   8.879 -0.0709  0.3649  0.0673
57918SOL    HW178565   4.411   1.183   8.807  1.2797 -0.0837 -0.6688
57918SOL    HW278566   4.553   1.205   8.856  0.4567  1.8483  0.9820
57919SOL     OW78567   8.710   6.420   6.666 -0.3722 -0.2742  0.5928
57919SOL    HW178568   8.650   6.353   6.634  0.6856 -1.1824  0.4388
57919SOL    HW278569   8.759   6.377   6.736  0.4229  0.2895  0.3972
57920SOL     OW78570  11.973   6.403   6.949 -0.7093  0.4456  0.4596
57920SOL    HW178571  12.022   6.330   6.987 -3.1391 -1.0976  0.9218
57920SOL    HW278572  11.989   6.397   6.855 -0.6242 -0.5239  0.5279
57921SOL     OW78573   1.648  12.078   0.765 -0.1248  0.1111 -0.1343
57921SOL    HW178574   1.560  12.069   0.802  0.4263 -0.3795  1.1348
57921SOL    HW278575   1.657  12.005   0.704 -0.1759 -0.6079  0.6858
57922SOL     OW78576   9.234  11.484   5.131  0.3543 -0.0462 -0.2459
57922SOL    HW178577   9.169  11.457   5.196  1.9567 -0.2643  1.3566
57922SOL    HW278578   9.182  11.515   5.057 -1.6398  1.5693  1.6558
57923SOL     OW78579   7.648  11.823  11.993 -0.1016 -0.4543 -0.1816
57923SOL    HW178580   7.557  11.852  11.994 -0.7618 -2.3804  1.1012
57923SOL    HW278581   7.692  11.878  12.059 -0.5432 -0.1689 -0.1203
57924SOL     OW78582   2.076   7.821  11.797  0.4935 -0.9068 -0.3652
57924SOL    HW178583   2.131   7.827  11.876  0.1796 -0.7945 -0.1502
57924SOL    HW278584   2.005   7.761  11.822 -0.3430  0.1555 -0.1076
57925SOL     OW78585   7.036  10.660   6.657 -0.1348 -0.0024 -0.0682
57925SOL    HW178586   7.084  10.597   6.604  0.3695 -0.6457  1.1251
57925SOL    HW278587   7.097  10.733   6.670  0.0637 -0.2513  0.3870
57926SOL     OW78588   8.680   6.349   0.028 -0.2215 -0.1739  0.0331
57926SOL    HW178589   8.704   6.372   0.118 -0.2575  1.3077 -0.3160
57926SOL    HW278590   8.598   6.395   0.013  1.1881  1.9225 -1.6793
57927SOL     OW78591   5.314   1.862   9.697 -0.1736  0.1084 -0.0370
57927SOL    HW178592   5.360   1.822   9.772 -1.5452 -1.6869 -0.0827
57927SOL    HW278593   5.370   1.935   9.671  2.2217 -1.4539  0.4264
57928SOL     OW78594  11.604   9.743   1.002 -0.4778  0.0660 -0.0181
57928SOL    HW178595  11.516   9.755   1.038  0.1275  1.1560  1.1494
57928SOL    HW278596  11.652   9.694   1.069 -0.0170 -0.0107 -0.3954
57929SOL     OW78597   8.677   2.893  12.307  0.0273  0.2683 -0.5340
57929SOL    HW178598   8.685   2.988  12.312  0.3388  0.3969 -2.6336
57929SOL    HW278599   8.641   2.876  12.220 -0.8977 -1.5068  0.1432
57930SOL     OW78600   0.368   2.980  11.653 -0.8294  0.4955  0.7204
57930SOL    HW178601   0.416   2.983  11.570 -0.6572  0.6360  0.8238
57930SOL    HW278602   0.276   2.981  11.628 -0.8343 -1.7083  0.4229
57931SOL     OW78603   0.669   5.650   7.929 -0.4779  0.0657 -0.3257
57931SOL    HW178604   0.683   5.591   7.855 -0.2259  0.6614 -0.7569
57931SOL    HW278605   0.757   5.672   7.960 -0.4536  1.9759 -1.5813
57932SOL     OW78606  11.962   5.613  11.022  0.0961  0.8091  0.0230
57932SOL    HW178607  12.030   5.553  10.993  0.5639  0.6407  1.4014
57932SOL    HW278608  11.894   5.607  10.955  1.2878  0.7439 -1.2079
57933SOL     OW78609   8.303   4.322   0.885  0.3048  0.9251  0.2146
57933SOL    HW178610   8.273   4.248   0.938  0.0581  1.0680  0.2770
57933SOL    HW278611   8.289   4.293   0.795 -2.1041  1.8101  0.2439
57934SOL     OW78612   3.459   1.421   3.947 -0.0030 -0.0615  0.2580
57934SOL    HW178613   3.402   1.346   3.965  0.5095 -1.2358 -2.5241
57934SOL    HW278614   3.399   1.495   3.939 -1.0191 -1.0003 -1.1689
57935SOL     OW78615   3.679   1.277   0.781 -1.0618 -0.4634 -0.4906
57935SOL    HW178616   3.742   1.211   0.809 -0.7362 -0.4888 -1.2501
57935SOL    HW278617   3.710   1.303   0.694 -2.4241 -0.8984 -1.1295
57936SOL     OW78618   4.333   2.533  12.511 -0.3037  0.0443 -0.0737
57936SOL    HW178619   4.320   2.500  12.422 -0.1855  0.5627 -0.2883
57936SOL    HW278620   4.380   2.615  12.499 -2.0149  1.1354  0.3552
57937SOL     OW78621   0.747   9.968   2.487 -0.2737 -0.3143 -0.1093
57937SOL    HW178622   0.769  10.011   2.570  0.3500 -0.6687 -0.0875
57937SOL    HW278623   0.665  10.010   2.460  1.2544  2.3182 -1.0871
57938SOL     OW78624   4.700  11.611   9.486 -0.0430 -0.2186 -0.0362
57938SOL    HW178625   4.776  11.669   9.496  2.3159 -2.4874 -3.0379
57938SOL    HW278626   4.709  11.547   9.557  1.1116 -0.7222 -0.6286
57939SOL     OW78627   0.364   6.664   4.364  0.0684  0.5132  0.5244
57939SOL    HW178628   0.411   6.747   4.371  0.0974  0.4126  1.8756
57939SOL    HW278629   0.350   6.637   4.455 -2.1254  0.2758  0.1635
57940SOL     OW78630   8.970   9.759   6.153  0.5083 -0.3556  0.1550
57940SOL    HW178631   8.877   9.779   6.139  0.6726 -0.3723 -1.1079
57940SOL    HW278632   8.981   9.671   6.117  1.3582  0.3412 -1.3932
57941SOL     OW78633   7.024   5.977   5.678 -0.2209 -0.4097 -0.1050
57941SOL    HW178634   7.115   5.997   5.658 -0.7980  1.4818 -1.1422
57941SOL    HW278635   6.991   6.055   5.723 -1.3456 -1.0167  0.1706
57942SOL     OW78636   2.930   3.989   6.280  0.2203  0.5372 -0.2313
57942SOL    HW178637   2.911   4.077   6.248  0.9447  1.1922  1.0658
57942SOL    HW278638   2.990   4.002   6.354 -0.6920 -0.9503  0.8325
57943SOL     OW78639   0.752   1.369  10.625 -0.2899 -0.1837  0.0682
57943SOL    HW178640   0.707   1.389  10.707 -0.6013  2.9557 -0.7398
57943SOL    HW278641   0.724   1.437  10.565 -0.7390 -2.8474 -3.0031
57944SOL     OW78642   1.826   8.859  11.099  0.7479 -0.1006 -0.1426
57944SOL    HW178643   1.741   8.897  11.073  0.4840  0.2942  1.2328
57944SOL    HW278644   1.890   8.906  11.046  0.1641  0.0302 -0.7539
57945SOL     OW78645   2.049   4.086   8.241 -0.0824  0.1016 -0.2041
57945SOL    HW178646   2.089   4.004   8.269  0.8351  0.4109 -0.5451
57945SOL    HW278647   2.124   4.141   8.217 -0.6956  0.9869 -0.0980
57946SOL     OW78648   8.165   9.891   9.809 -0.1703  0.5127  0.5805
57946SOL    HW178649   8.128   9.806   9.832  1.2199 -0.1609  0.4558
57946SOL    HW278650   8.152   9.899   9.715 -1.2610  0.9326  0.7611
57947SOL     OW78651   2.204   6.463   0.014 -0.1513 -0.5836 -0.4843
57947SOL    HW178652   2.160   6.382  -0.014 -1.2695  0.3630 -1.5963
57947SOL    HW278653   2.270   6.478  -0.054  1.3101 -1.5020  0.6881
57948SOL     OW78654   5.597   1.446   4.473 -0.5594  0.0570 -0.1846
57948SOL    HW178655   5.599   1.432   4.378  0.8784  0.7251 -0.2782
57948SOL    HW278656   5.630   1.365   4.510  1.8405  0.8485 -0.4344
57949SOL     OW78657   2.451   7.550   3.382  0.3177 -0.5806  0.1916
57949SOL    HW178658   2.523   7.610   3.404  0.8037 -0.6840 -1.0527
57949SOL    HW278659   2.462   7.477   3.444  0.8541 -0.2662  0.4806
57950SOL     OW78660   8.275   6.816  12.107 -0.1400  0.4785 -0.2601
57950SOL    HW178661   8.337   6.757  12.066  0.1206  1.0655 -0.7353
57950SOL    HW278662   8.266   6.889  12.045 -1.9198  0.0285 -0.5937
57951SOL     OW78663   7.047   6.809   1.495 -0.3956 -0.0979  0.2855
57951SOL    HW178664   7.126   6.784   1.542 -0.9216  2.3330  2.7104
57951SOL    HW278665   7.014   6.885   1.542 -2.2519  1.1852 -2.7720
57952SOL     OW78666   7.588   5.460   9.095  0.1414  0.3778 -0.1694
57952SOL    HW178667   7.579   5.369   9.124  0.1411 -0.2873 -2.1156
57952SOL    HW278668   7.674   5.487   9.126 -0.0362 -0.1266  0.8001
57953SOL     OW78669  11.874  11.214   7.684 -0.5660 -0.1765 -0.0217
57953SOL    HW178670  11.913  11.262   7.758 -1.3232 -0.4388  0.5672
57953SOL    HW278671  11.925  11.134   7.678 -1.2742 -0.7495  1.0687
57954SOL     OW78672   3.899   7.936   4.013 -0.5427 -0.3493  0.6769
57954SOL    HW178673   3.914   7.899   3.926  0.8915 -2.7580  1.8226
57954SOL    HW278674   3.863   7.863   4.064 -0.6330  0.7787  2.3170
57955SOL     OW78675   8.478  10.954   8.660 -0.0132  0.5370  0.0624
57955SOL    HW178676   8.496  10.868   8.622  0.0943  0.8612 -0.6458
57955SOL    HW278677   8.540  10.962   8.732 -1.2925 -0.7449  1.3504
57956SOL     OW78678   9.437  12.070   3.644 -0.2883  0.0469 -0.0839
57956SOL    HW178679   9.451  12.163   3.660  1.4906 -0.0370 -0.9010
57956SOL    HW278680   9.343  12.061   3.632 -0.5966  1.5706  0.9353
57957SOL     OW78681   6.879  11.274   2.437  0.1361 -0.1780 -0.4837
57957SOL    HW178682   6.898  11.225   2.358 -0.0036  0.1078 -0.6959
57957SOL    HW278683   6.939  11.348   2.435 -0.0237 -0.0454 -0.4423
57958SOL     OW78684   5.541   0.047   3.970  0.0430 -0.2276  0.4712
57958SOL    HW178685   5.464   0.053   3.914 -0.9411 -0.6925  1.7367
57958SOL    HW278686   5.569   0.137   3.983 -1.2146  0.0835  1.2116
57959SOL     OW78687   0.590  11.858  11.646  0.6435 -0.3587  0.3624
57959SOL    HW178688   0.585  11.848  11.551  1.8315  0.3500  0.2063
57959SOL    HW278689   0.566  11.772  11.681  1.9489 -1.1672 -0.6401
57960SOL     OW78690   7.692  11.317   9.428 -0.3212 -0.6098  0.1217
57960SOL    HW178691   7.691  11.302   9.334 -0.6294  0.8523 -0.1306
57960SOL    HW278692   7.634  11.249   9.464 -0.3120 -1.0888 -0.7481
57961SOL     OW78693   0.221   7.938   3.876 -0.2561 -0.4095  0.0595
57961SOL    HW178694   0.299   7.966   3.829  0.8578 -0.9742  1.4947
57961SOL    HW278695   0.167   7.893   3.810  0.9301 -0.5919 -0.8086
57962SOL     OW78696   7.954   2.708   2.344 -0.5265 -0.4702 -0.0302
57962SOL    HW178697   7.938   2.658   2.424 -1.4753 -0.8085 -0.4279
57962SOL    HW278698   8.050   2.713   2.339 -0.3698 -2.5516 -0.1554
57963SOL     OW78699   4.214   4.141   0.307 -0.0395 -0.1989 -0.3895
57963SOL    HW178700   4.145   4.079   0.283  0.5526 -0.3294 -1.8178
57963SOL    HW278701   4.294   4.088   0.309  0.3598  0.3794 -0.8887
57964SOL     OW78702   9.023   6.951  11.823 -0.2427  0.5297 -0.0625
57964SOL    HW178703   9.076   6.995  11.756  0.8696  0.2579  0.6137
57964SOL    HW278704   8.950   7.011  11.840  0.1680  1.1868 -0.5859
57965SOL     OW78705   2.933   2.936  11.291  0.4690  0.3118 -0.0893
57965SOL    HW178706   2.843   2.952  11.263  1.0401  0.4428 -1.9737
57965SOL    HW278707   2.928   2.858  11.346 -1.0493  1.4811  1.5320
57966SOL     OW78708  12.019   8.423   6.337 -0.2055 -0.2341  0.2266
57966SOL    HW178709  11.925   8.418   6.354 -0.4597 -1.7131 -1.3637
57966SOL    HW278710  12.029   8.493   6.273 -0.0370  0.8004  1.3495
57967SOL     OW78711   2.668  11.180   4.866  0.7434  0.3905 -0.1120
57967SOL    HW178712   2.601  11.136   4.917  0.1607  0.7790 -0.5364
57967SOL    HW278713   2.633  11.268   4.851  1.4766  0.6980 -0.0760
57968SOL     OW78714   7.020   7.319  11.157 -0.4164  0.0524  0.9090
57968SOL    HW178715   7.071   7.306  11.237 -1.6870 -1.1851  1.5523
57968SOL    HW278716   7.059   7.397  11.117  1.9974 -0.8472  1.3205
57969SOL     OW78717   0.920   4.156   8.387  0.4453 -0.2894  0.2134
57969SOL    HW178718   1.000   4.104   8.383  1.0152  0.6482 -1.2147
57969SOL    HW278719   0.886   4.140   8.475  1.3539 -1.9307  0.3087
57970SOL     OW78720   4.571   8.182  11.432  0.1539 -0.3374 -0.6012
57970SOL    HW178721   4.484   8.206  11.401 -0.4651 -0.8059  0.7017
57970SOL    HW278722   4.622   8.262  11.426 -0.6094  0.1553 -0.5925
57971SOL     OW78723   3.872   1.504   5.232  0.2829  0.5877 -0.0667
57971SOL    HW178724   3.842   1.428   5.283  1.0989 -0.2328 -0.7711
57971SOL    HW278725   3.953   1.474   5.190 -0.1988  1.3509 -1.5859
57972SOL     OW78726   4.885   2.003   0.868 -0.1137 -0.2745 -0.1330
57972SOL    HW178727   4.973   2.042   0.868 -0.2645  0.1462  1.1886
57972SOL    HW278728   4.888   1.938   0.938 -0.8910 -0.1410  0.0355
57973SOL     OW78729   4.599  12.179   5.765  0.1316  0.8003 -0.3832
57973SOL    HW178730   4.657  12.103   5.755 -0.5416  0.2328 -0.0624
57973SOL    HW278731   4.577  12.204   5.676 -0.2345  0.1454 -0.4888
57974SOL     OW78732   7.099   8.713   0.912 -0.3122  0.0089 -0.6509
57974SOL    HW178733   7.143   8.683   0.992 -0.8084 -1.5166 -0.9160
57974SOL    HW278734   7.142   8.664   0.841 -0.5350  0.6146 -1.2168
57975SOL     OW78735   7.723   2.864  11.844 -0.1049  0.9025 -0.3441
57975SOL    HW178736   7.660   2.883  11.914 -0.5396  0.0614 -0.4841
57975SOL    HW278737   7.689   2.784  11.804  3.0309 -1.8748  2.0055
57976SOL     OW78738   1.296  11.912  10.615  0.4688  0.1675  0.0525
57976SOL    HW178739   1.344  11.914  10.698  0.4543  2.2462  0.0575
57976SOL    HW278740   1.354  11.866  10.554  0.5622 -1.2195  1.1292
57977SOL     OW78741  10.900   8.614   7.993 -0.2330 -0.6086 -0.0042
57977SOL    HW178742  10.841   8.658   7.932 -0.1847 -0.9542 -0.3078
57977SOL    HW278743  10.987   8.641   7.966 -0.2823  0.7878  1.1392
57978SOL     OW78744   7.478   2.370   4.618 -0.4052  0.1469  0.2529
57978SOL    HW178745   7.390   2.401   4.596 -0.2756  1.0346  0.9421
57978SOL    HW278746   7.464   2.305   4.686 -0.5052  0.7470  0.8230
57979SOL     OW78747  11.058   1.171   3.497  0.3081  0.5324 -0.2500
57979SOL    HW178748  11.016   1.149   3.580 -0.3144  1.1865 -0.3759
57979SOL    HW278749  11.109   1.093   3.474  2.3850  1.1404  1.8797
57980SOL     OW78750   8.539   5.668   0.739  0.0755  0.0386 -0.2073
57980SOL    HW178751   8.563   5.596   0.681 -1.4163 -0.7213  0.0462
57980SOL    HW278752   8.550   5.747   0.686 -0.2927 -0.5573 -1.1992
57981SOL     OW78753  11.957  10.697  11.490  0.5451  0.3734 -0.5980
57981SOL    HW178754  11.940  10.727  11.580  2.1126  0.4626 -0.2942
57981SOL    HW278755  12.024  10.757  11.457 -0.4314  0.6969 -2.0591
57982SOL     OW78756   9.560   0.715   8.191 -0.1423  0.0800 -0.5266
57982SOL    HW178757   9.542   0.809   8.193  0.7602  0.2610  0.0736
57982SOL    HW278758   9.597   0.699   8.104  0.7032  0.5024 -0.2626
57983SOL     OW78759   6.720   7.484  11.255  0.3703  0.2098  0.2936
57983SOL    HW178760   6.700   7.451  11.167  2.2896 -0.6842  0.1317
57983SOL    HW278761   6.700   7.410  11.313 -0.7143  0.7350  0.6126
57984SOL     OW78762   3.150   0.542   8.285  0.7291 -0.0488 -0.5249
57984SOL    HW178763   3.238   0.577   8.297  0.6416 -0.4843  1.9488
57984SOL    HW278764   3.116   0.588   8.209  2.1201  2.1636  0.0933
57985SOL     OW78765   5.941   0.476   6.548 -0.0133  0.5269 -0.0687
57985SOL    HW178766   5.967   0.535   6.477 -1.9013 -0.4407 -1.6548
57985SOL    HW278767   5.950   0.388   6.512  0.0527 -0.0414  1.2766
57986SOL     OW78768   6.355  10.382   4.350 -0.2443  0.3127 -0.0992
57986SOL    HW178769   6.292  10.453   4.338 -1.3791 -0.5868  0.3295
57986SOL    HW278770   6.322  10.333   4.425  1.3875  0.2299  0.6038
57987SOL     OW78771   6.325   3.657   3.442  0.2967 -0.1421 -0.3415
57987SOL    HW178772   6.293   3.731   3.494  1.2426  0.7112 -0.9398
57987SOL    HW278773   6.286   3.580   3.483  0.0794  0.6090  0.9086
57988SOL     OW78774   5.135   5.665   0.446  0.3590 -0.5559  0.2976
57988SOL    HW178775   5.063   5.728   0.447 -0.1663 -1.1184 -0.3908
57988SOL    HW278776   5.214   5.718   0.454  0.1012  0.4901 -2.6189
57989SOL     OW78777   8.396   6.042   4.102 -0.4232 -0.1154 -0.0999
57989SOL    HW178778   8.486   6.046   4.134  0.0345  0.8438 -1.4383
57989SOL    HW278779   8.351   5.987   4.166  0.7169  0.7141  1.4960
57990SOL     OW78780   7.563   3.841  10.467  0.5491  0.0598 -0.2696
57990SOL    HW178781   7.586   3.821  10.558 -3.1973  0.2900  0.9317
57990SOL    HW278782   7.583   3.934  10.457 -0.9756  0.6133  1.1785
57991SOL     OW78783   0.559   6.499   6.255 -0.1407  0.1873  0.7493
57991SOL    HW178784   0.476   6.547   6.260 -0.6034 -0.4611 -0.4471
57991SOL    HW278785   0.609   6.531   6.330 -1.0490  1.3779  0.8789
57992SOL     OW78786  10.047   1.061  12.361 -0.5416  0.4704  1.0133
57992SOL    HW178787  10.067   0.970  12.386 -1.4546  0.1463  0.6129
57992SOL    HW278788   9.964   1.080  12.404  0.4257  1.6987  2.4161
57993SOL     OW78789   0.671  11.260   3.010  0.1440 -0.3260  0.5786
57993SOL    HW178790   0.765  11.276   3.020  0.2153 -0.2655 -0.1490
57993SOL    HW278791   0.658  11.250   2.916 -0.5771 -0.3641  0.6766
57994SOL     OW78792   7.837   1.052   0.732  0.5749  0.1760  0.6752
57994SOL    HW178793   7.792   0.969   0.714  1.5488  0.3734 -3.7483
57994SOL    HW278794   7.930   1.029   0.732  0.8232  1.1473  0.1278
57995SOL     OW78795   6.185  10.966  12.148  0.4175 -0.4070 -0.9143
57995SOL    HW178796   6.136  11.048  12.141 -0.1977 -0.8230 -1.5385
57995SOL    HW278797   6.119  10.900  12.167  0.8323 -0.8616 -1.0543
57996SOL     OW78798   8.325   7.450   6.316 -0.5564  0.3222  0.0429
57996SOL    HW178799   8.242   7.463   6.271  0.1458  1.3269 -1.0318
57996SOL    HW278800   8.388   7.433   6.246 -0.3883 -4.1122  0.9649
57997SOL     OW78801   4.929  12.468  11.963 -0.1319 -0.1454 -0.2223
57997SOL    HW178802   5.013  12.463  12.009 -0.6123 -0.1090  0.6817
57997SOL    HW278803   4.905  12.561  11.966 -1.0444 -0.3958  1.1071
57998SOL     OW78804   2.721   9.156  11.463 -0.4453 -0.4757 -0.4303
57998SOL    HW178805   2.795   9.212  11.486 -0.7575  0.9525 -2.6158
57998SOL    HW278806   2.739   9.073  11.508  1.1570  0.6384  1.1238
57999SOL     OW78807   8.691   1.480   2.787 -0.2380  0.0744 -0.3214
57999SOL    HW178808   8.703   1.414   2.855 -1.4612  0.9464  0.7803
57999SOL    HW278809   8.768   1.470   2.731  0.3045 -1.3340  0.6064
58000SOL     OW78810   2.255  10.912   8.712 -0.2618  0.3041 -0.0285
58000SOL    HW178811   2.337  10.901   8.761 -0.7422  0.6167  0.8756
58000SOL    HW278812   2.220  10.996   8.743 -0.0485  1.0624 -1.7356
58001SOL     OW78813   5.862   9.715   3.597 -0.4112  0.1533  0.1352
58001SOL    HW178814   5.936   9.654   3.597 -1.2043 -1.0998 -3.4446
58001SOL    HW278815   5.898   9.798   3.627  1.4184 -1.3342  2.3511
58002SOL     OW78816   5.530   5.766   9.735 -0.4705 -0.1724 -0.2243
58002SOL    HW178817   5.507   5.750   9.826 -0.0420 -2.0437 -0.4220
58002SOL    HW278818   5.450   5.800   9.696 -0.3200  1.9017  1.0992
58003SOL     OW78819   9.187   6.634   3.134  0.1677 -0.2711  0.3819
58003SOL    HW178820   9.192   6.629   3.038  0.3639 -0.1834  0.3873
58003SOL    HW278821   9.184   6.728   3.153 -2.3447 -0.2801  0.3441
58004SOL     OW78822   9.976   7.686   6.205 -0.0804  0.2698 -0.1362
58004SOL    HW178823   9.927   7.614   6.166 -0.1681  0.0179  0.4224
58004SOL    HW278824   9.928   7.765   6.181 -0.6907  0.0356  0.2966
58005SOL     OW78825  11.526   2.785   1.690 -0.4577 -0.5082 -0.0791
58005SOL    HW178826  11.464   2.720   1.657 -1.2754  0.5557 -0.6619
58005SOL    HW278827  11.508   2.864   1.640 -0.1282  0.4653  1.2843
58006SOL     OW78828   7.120   6.647   2.042 -0.3901 -0.3661  0.2169
58006SOL    HW178829   7.079   6.727   2.009  1.5453  0.7211  0.3227
58006SOL    HW278830   7.049   6.601   2.088 -1.5312  1.3051  0.1978
58007SOL     OW78831   3.389   7.747   7.887  0.1324  0.2101  0.0785
58007SOL    HW178832   3.458   7.798   7.928  0.6209 -1.0712  0.8769
58007SOL    HW278833   3.376   7.672   7.944 -2.1678  0.5676  0.1390
58008SOL     OW78834   0.784   0.727   1.303 -0.4431  0.7026 -0.3213
58008SOL    HW178835   0.851   0.661   1.290 -0.0588  0.9721  0.2165
58008SOL    HW278836   0.724   0.689   1.368 -0.4131  0.7414 -0.2702
58009SOL     OW78837   4.250   3.387  11.119 -0.0333  0.0278  0.0360
58009SOL    HW178838   4.207   3.422  11.196  0.8981 -0.6258  0.8763
58009SOL    HW278839   4.298   3.462  11.083  0.5837  0.0357  0.8464
58010SOL     OW78840   4.849   8.460   3.686  0.1351 -0.0853  0.1354
58010SOL    HW178841   4.917   8.436   3.749  0.3393  1.4125  0.5195
58010SOL    HW278842   4.783   8.391   3.694 -0.1327  0.3864  2.4304
58011SOL     OW78843  12.192  11.069   8.356  0.0359  0.2047  0.0968
58011SOL    HW178844  12.282  11.058   8.388 -0.2550 -0.5508  0.6949
58011SOL    HW278845  12.201  11.111   8.271  0.9473  0.2583  0.2149
58012SOL     OW78846   6.719  12.323   6.902 -0.4890  0.3493  0.3800
58012SOL    HW178847   6.797  12.355   6.947  0.1784 -1.2362  0.4256
58012SOL    HW278848   6.698  12.391   6.839  1.9989  0.0755 -0.8622
58013SOL     OW78849   9.831  10.412   8.470 -0.4363  0.3299 -0.2805
58013SOL    HW178850   9.913  10.363   8.469 -0.2007  0.6999 -1.5090
58013SOL    HW278851   9.853  10.495   8.513 -0.8095 -0.5363  1.6989
58014SOL     OW78852   9.167   0.423   9.095 -0.1514  0.1900 -0.4459
58014SOL    HW178853   9.243   0.393   9.144  0.9386  0.6854 -1.7628
58014SOL    HW278854   9.204   0.464   9.016 -1.6395  2.5916 -0.0222
58015SOL     OW78855   3.582   0.642  11.704  0.0662  0.7722 -0.1936
58015SOL    HW178856   3.639   0.603  11.769  0.1735  4.8720  2.5227
58015SOL    HW278857   3.641   0.674  11.636  0.3707  0.0339 -0.2831
58016SOL     OW78858   7.821  10.349   2.853 -0.0318 -0.0335  0.0306
58016SOL    HW178859   7.894  10.405   2.828 -0.0934  0.0001 -0.0717
58016SOL    HW278860   7.808  10.366   2.946  0.4290 -0.4218  0.1753
58017SOL     OW78861   2.949   7.133   4.097  0.5407  0.3837  0.0504
58017SOL    HW178862   3.000   7.112   4.019 -3.0029 -1.3296 -2.0462
58017SOL    HW278863   2.903   7.213   4.075 -1.9605 -1.1133 -0.5606
58018SOL     OW78864   3.938   0.329  10.346  0.1712  0.0803  0.6450
58018SOL    HW178865   3.871   0.397  10.358  1.5045  1.7950 -1.2088
58018SOL    HW278866   3.963   0.335  10.254  1.6642 -1.7087  0.8767
58019SOL     OW78867   2.507   0.850  11.316  0.3394  0.1426 -0.0386
58019SOL    HW178868   2.498   0.785  11.246  2.8759 -0.6167  0.2345
58019SOL    HW278869   2.429   0.839  11.370 -1.2093  0.1000 -2.1777
58020SOL     OW78870   4.057   5.560   9.602 -0.1905 -0.2125  0.0909
58020SOL    HW178871   4.047   5.637   9.545 -0.0537 -0.3655 -0.1416
58020SOL    HW278872   3.974   5.513   9.593 -0.0617 -0.3828 -0.1996
58021SOL     OW78873   3.787  10.661   0.747  0.6286  0.4803  0.1927
58021SOL    HW178874   3.775  10.703   0.662 -0.7693  1.1004  0.6718
58021SOL    HW278875   3.805  10.733   0.808  2.0273  0.0058  0.3842
58022SOL     OW78876   7.535   9.207   8.924  0.4596  0.2802 -0.7638
58022SOL    HW178877   7.466   9.271   8.941  1.1683  1.5375 -2.3864
58022SOL    HW278878   7.615   9.250   8.952  0.7653 -0.6861 -0.0719
58023SOL     OW78879   2.934   7.767   6.166 -0.3334 -0.0754 -0.1844
58023SOL    HW178880   2.910   7.805   6.082 -0.3534  0.0662 -0.1165
58023SOL    HW278881   2.910   7.835   6.230  0.1456  0.0271 -0.1060
58024SOL     OW78882  11.041   4.915   4.170  0.3567 -0.3416 -0.4892
58024SOL    HW178883  11.022   4.958   4.087 -0.6055 -1.1677 -0.7291
58024SOL    HW278884  11.047   4.822   4.148  0.0352 -0.5803  0.3603
58025SOL     OW78885   2.615   7.335   7.478  0.8795 -0.2849 -0.1441
58025SOL    HW178886   2.597   7.394   7.405  1.8213 -1.9413 -1.7738
58025SOL    HW278887   2.580   7.251   7.451 -0.7689 -0.4850  2.3068
58026SOL     OW78888   2.899   0.315   8.193 -0.4078  0.1222  0.5706
58026SOL    HW178889   2.890   0.321   8.288 -0.5861  1.9687  0.4699
58026SOL    HW278890   2.909   0.406   8.164  0.4523 -0.4658 -1.1029
58027SOL     OW78891   4.438  12.170  11.399  0.3801 -0.5524  1.1494
58027SOL    HW178892   4.419  12.104  11.466 -0.9973 -2.0546 -0.5765
58027SOL    HW278893   4.387  12.246  11.425  0.2348 -0.9495  2.0595
58028SOL     OW78894   7.223   6.869  11.853  0.4515  0.0512  0.3866
58028SOL    HW178895   7.287   6.940  11.860  1.3161 -0.2522 -2.7907
58028SOL    HW278896   7.273   6.795  11.817 -1.2279 -0.8870 -0.1386
58029SOL     OW78897   6.730  11.402   3.966  0.0478 -0.2669 -0.5624
58029SOL    HW178898   6.750  11.315   3.931  1.1035 -0.1814 -0.2013
58029SOL    HW278899   6.774  11.463   3.907  0.1316 -0.0318 -0.2654
58030SOL     OW78900   9.222  11.785   6.446  0.6856  0.0014 -0.0248
58030SOL    HW178901   9.126  11.777   6.445  0.3282  3.1103 -0.9343
58030SOL    HW278902   9.252  11.710   6.395 -1.0324 -2.2701  2.0144
58031SOL     OW78903   4.038   5.390   5.192  0.7514  0.6012 -0.0001
58031SOL    HW178904   3.963   5.332   5.180 -0.3560  1.7161  1.3078
58031SOL    HW278905   4.056   5.387   5.286  2.9494 -0.3176 -0.3802
58032SOL     OW78906  11.965  10.261   9.014  0.5294  0.2114  0.2193
58032SOL    HW178907  11.934  10.171   9.016  0.6236  0.1568 -0.4663
58032SOL    HW278908  12.060  10.255   9.027  0.5377  0.2096  0.1558
58033SOL     OW78909   9.323   0.453   3.744  0.0023 -0.0347 -0.4683
58033SOL    HW178910   9.345   0.415   3.659  1.3289  0.4817 -0.3812
58033SOL    HW278911   9.367   0.538   3.744  1.5642 -0.7788  1.4421
58034SOL     OW78912   4.500  10.187   0.293  0.4314 -0.6630 -0.1206
58034SOL    HW178913   4.434  10.143   0.240  0.0757  1.2203 -1.3274
58034SOL    HW278914   4.450  10.249   0.347  0.9283 -1.5402  1.4198
58035SOL     OW78915  11.344   7.315  10.071 -0.0947  0.3194  0.0906
58035SOL    HW178916  11.279   7.249  10.096  1.2143 -0.6146  1.1574
58035SOL    HW278917  11.308   7.355   9.992 -1.4645 -0.8788  0.0605
58036SOL     OW78918   5.831   7.651   5.656  0.0936  0.1917  0.4594
58036SOL    HW178919   5.785   7.640   5.740 -0.9791 -1.1765 -0.2538
58036SOL    HW278920   5.765   7.626   5.591  0.5284  2.3402 -0.8836
58037SOL     OW78921  10.933   7.043   8.495  0.5799 -0.2598 -0.1373
58037SOL    HW178922  10.985   7.121   8.514 -0.3418  0.3336  0.0240
58037SOL    HW278923  10.858   7.075   8.445  0.5118 -1.1380 -0.6287
58038SOL     OW78924  10.198   7.254   3.828  0.4300 -0.5105 -0.4003
58038SOL    HW178925  10.202   7.265   3.923  0.6745 -1.9017 -0.2253
58038SOL    HW278926  10.106   7.238   3.809 -0.1017  2.4035 -0.7759
58039SOL     OW78927   6.116   9.867   2.514  0.0990  0.0334  0.5933
58039SOL    HW178928   6.064   9.900   2.440 -1.1478  1.8823  2.1860
58039SOL    HW278929   6.098   9.773   2.515  1.9320 -0.5054 -2.7290
58040SOL     OW78930  11.713   1.517   5.909 -0.6214  0.3468 -0.2085
58040SOL    HW178931  11.682   1.592   5.959 -1.4058 -0.8151  1.1413
58040SOL    HW278932  11.805   1.507   5.934 -1.0241 -0.2715  1.1576
58041SOL     OW78933   6.333   4.499   5.163 -0.2636 -0.0294 -0.0432
58041SOL    HW178934   6.276   4.538   5.096 -0.4517 -0.2163  0.0062
58041SOL    HW278935   6.375   4.573   5.205 -0.8914  0.1443  0.2905
58042SOL     OW78936  10.275  11.243   5.866  0.5979 -0.2220 -0.1808
58042SOL    HW178937  10.269  11.230   5.772  0.6923  1.5579 -0.4712
58042SOL    HW278938  10.187  11.223   5.899 -0.2443  1.8140 -1.0528
58043SOL     OW78939   3.273   7.593   3.546 -0.1700 -0.7339 -0.2610
58043SOL    HW178940   3.184   7.557   3.546 -0.0050 -1.3024  1.6691
58043SOL    HW278941   3.313   7.560   3.466 -1.2084 -1.7820 -0.3733
58044SOL     OW78942  10.702   5.479  11.732 -0.0481 -0.4052 -0.5297
58044SOL    HW178943  10.749   5.480  11.648  1.5764  0.7639  0.3286
58044SOL    HW278944  10.633   5.414  11.720  1.7205 -2.1554 -1.9470
58045SOL     OW78945   3.462   9.468  12.500 -0.1432  1.0985  0.5499
58045SOL    HW178946   3.369   9.470  12.523 -0.6334 -2.9355 -0.3580
58045SOL    HW278947   3.467   9.512  12.415 -2.0319 -1.6130 -1.1538
58046SOL     OW78948   0.763   5.574   7.154 -0.1416 -0.0902  0.2823
58046SOL    HW178949   0.748   5.515   7.228  0.4569 -0.6998 -0.0707
58046SOL    HW278950   0.819   5.524   7.094 -0.7236  0.3485 -0.6467
58047SOL     OW78951   5.324   2.299   0.635  0.1353  0.5457 -0.1939
58047SOL    HW178952   5.284   2.213   0.651  1.2164  0.3384  1.6691
58047SOL    HW278953   5.265   2.342   0.573  0.0370 -1.8866 -1.9390
58048SOL     OW78954   5.031  11.406  10.838  0.9558  0.8987  0.4775
58048SOL    HW178955   5.013  11.492  10.877  0.7913  0.5916  1.0917
58048SOL    HW278956   4.944  11.366  10.828  0.9816  1.0165 -0.3297
58049SOL     OW78957   1.234   3.284   5.344  0.4507 -0.7799 -0.2924
58049SOL    HW178958   1.175   3.354   5.374 -0.7853 -1.4609 -1.0269
58049SOL    HW278959   1.307   3.287   5.405 -0.7169 -0.4124  1.1605
58050SOL     OW78960   1.723   2.718   7.166  0.4168  0.0042 -0.0270
58050SOL    HW178961   1.740   2.686   7.078 -0.9564  1.2851 -0.8044
58050SOL    HW278962   1.806   2.758   7.193  1.2962 -1.7012 -0.1202
58051SOL     OW78963  11.882   5.876   1.445  0.9028 -0.1926 -0.0662
58051SOL    HW178964  11.843   5.962   1.429  2.1523 -0.0192 -2.7756
58051SOL    HW278965  11.861   5.826   1.365  1.2635 -2.0123  0.9263
58052SOL     OW78966   4.657   8.792   9.150 -0.3738  0.1204 -0.0803
58052SOL    HW178967   4.664   8.719   9.212 -0.1933 -1.5288 -1.9430
58052SOL    HW278968   4.742   8.836   9.156 -0.7505  0.6873  1.6159
58053SOL     OW78969   1.162   5.849   7.885  0.0501 -0.0681  0.0414
58053SOL    HW178970   1.235   5.794   7.913 -0.2857 -0.1293  0.8226
58053SOL    HW278971   1.201   5.935   7.870  0.3585 -0.2036  0.0557
58054SOL     OW78972   8.367   9.872   4.142  0.6055 -0.2595  0.4628
58054SOL    HW178973   8.405   9.957   4.164 -1.9340  0.6310  1.7763
58054SOL    HW278974   8.297   9.859   4.207 -2.1945 -1.1200 -2.4547
58055SOL     OW78975   6.148   6.773   0.912  0.0486 -0.2957 -1.2064
58055SOL    HW178976   6.081   6.831   0.876 -0.0805 -0.0653 -0.5908
58055SOL    HW278977   6.128   6.767   1.005  1.1684  0.1526 -0.9340
58056SOL     OW78978   4.625   4.841  12.462  0.5807 -0.2484 -0.0310
58056SOL    HW178979   4.583   4.838  12.376  0.2477  1.9126 -0.0159
58056SOL    HW278980   4.564   4.795  12.520  1.2606 -2.5641 -1.0625
58057SOL     OW78981   4.455   5.270   0.102 -0.6030 -0.1188  0.0510
58057SOL    HW178982   4.365   5.245   0.120 -0.4282 -0.0861  0.9885
58057SOL    HW278983   4.503   5.250   0.182  0.2649 -0.3072 -0.4960
58058SOL     OW78984  12.157  10.129   6.591 -0.2528  0.2340 -0.3365
58058SOL    HW178985  12.078  10.182   6.592 -0.5739 -0.2383  0.4958
58058SOL    HW278986  12.125  10.039   6.581  0.1801  0.0621 -0.2051
58059SOL     OW78987  10.945   4.876  11.579  0.1922 -0.3700  0.3819
58059SOL    HW178988  10.933   4.833  11.494  0.3712 -0.7877  0.5672
58059SOL    HW278989  11.006   4.820  11.626  0.6284  0.2253  0.5335
58060SOL     OW78990  12.381   9.287   2.909 -0.3100 -0.2730  0.3123
58060SOL    HW178991  12.471   9.253   2.913 -0.1865  0.1128  0.9184
58060SOL    HW278992  12.389   9.379   2.932 -0.7251  0.0349 -0.7374
58061SOL     OW78993   1.730   3.084   1.478  0.1957  0.3291  0.1881
58061SOL    HW178994   1.721   2.993   1.507  1.0833  0.2249  0.1546
58061SOL    HW278995   1.706   3.082   1.385 -0.0709  0.1848  0.2597
58062SOL     OW78996   1.809   2.118   3.452  0.2597 -0.4016  0.0203
58062SOL    HW178997   1.739   2.180   3.473 -1.0160 -1.5706 -0.6201
58062SOL    HW278998   1.853   2.102   3.536 -1.7708 -1.4509  0.9521
58063SOL     OW78999   3.281   5.508   1.348 -0.3644  0.1526  0.0232
58063SOL    HW179000   3.345   5.481   1.413  0.3440  0.4265 -0.5456
58063SOL    HW279001   3.287   5.604   1.347 -0.9928  0.2013  0.1636
58064SOL     OW79002   0.444  11.795   6.843  0.0601  0.2272  0.2306
58064SOL    HW179003   0.413  11.739   6.772  0.1898 -0.8290  0.9737
58064SOL    HW279004   0.533  11.820   6.817 -0.3950  0.9980 -0.6147
58065SOL     OW79005   8.635   1.322   9.431  0.2974 -0.1317 -0.1837
58065SOL    HW179006   8.595   1.248   9.386 -0.1721 -0.0918  0.1540
58065SOL    HW279007   8.593   1.399   9.392 -1.4768 -0.1418  1.5243
58066SOL     OW79008   4.017   8.978  11.281  0.9320  0.0869 -0.2424
58066SOL    HW179009   3.974   9.017  11.204  0.5632 -0.6067 -0.4002
58066SOL    HW279010   4.097   8.940  11.246 -0.2233 -2.0903 -0.7413
58067SOL     OW79011  11.441  12.301   1.767 -0.6633  0.6581  0.0567
58067SOL    HW179012  11.472  12.299   1.676  0.5657  3.1094  0.3264
58067SOL    HW279013  11.491  12.233   1.811 -1.9510 -1.2091 -1.2375
58068SOL     OW79014   2.702  10.044   8.301  0.0526  0.2150  0.3601
58068SOL    HW179015   2.697  10.126   8.351 -1.8220  0.2747  0.1530
58068SOL    HW279016   2.708   9.976   8.368  2.4769  0.5039  0.5255
58069SOL     OW79017   8.585   0.059   0.265  0.1847 -0.2550  0.3916
58069SOL    HW179018   8.666   0.109   0.259  1.0920 -1.6427  0.4655
58069SOL    HW279019   8.566   0.033   0.175 -0.0488 -0.1372  0.4064
58070SOL     OW79020   6.175  10.348   7.900  0.0274 -0.4577  0.0339
58070SOL    HW179021   6.218  10.265   7.915  0.1918 -0.2867  0.5092
58070SOL    HW279022   6.246  10.413   7.900 -0.1058 -0.3064 -0.2578
58071SOL     OW79023   5.465   7.137   8.186  0.0457 -0.0366  0.0874
58071SOL    HW179024   5.400   7.143   8.256 -0.6826  0.2838 -0.6062
58071SOL    HW279025   5.434   7.199   8.120  1.1900  0.3054 -0.1480
58072SOL     OW79026  10.823   1.916   1.700 -0.0610 -0.1436  0.4039
58072SOL    HW179027  10.822   1.898   1.606 -0.3890 -0.2134  0.4179
58072SOL    HW279028  10.914   1.938   1.719 -0.0446  0.1259  0.0228
58073SOL     OW79029   4.628   5.175   6.647  0.0861 -0.0272  0.4150
58073SOL    HW179030   4.642   5.090   6.605 -1.5198 -1.3403  2.3372
58073SOL    HW279031   4.534   5.191   6.636  0.1819  0.9776  0.9983
58074SOL     OW79032   1.000   7.456   4.696  0.4311  0.0162 -0.2844
58074SOL    HW179033   1.069   7.432   4.759 -0.1352  0.1557  0.4024
58074SOL    HW279034   1.019   7.548   4.674  0.8327 -0.1366 -0.5887
58075SOL     OW79035   2.591   0.981   7.409 -0.1757  0.1252 -0.6198
58075SOL    HW179036   2.514   0.928   7.424  0.6734 -0.9989 -0.0738
58075SOL    HW279037   2.557   1.065   7.377 -1.4900 -1.2061 -2.9367
58076SOL     OW79038   5.425   8.627   9.960 -0.1288  0.6936  0.8015
58076SOL    HW179039   5.389   8.655   9.876  2.2692  2.9038  0.3660
58076SOL    HW279040   5.379   8.681  10.025 -1.3349 -0.3708  0.8774
58077SOL     OW79041  11.834   0.479   3.031  0.2384 -0.0927 -0.4209
58077SOL    HW179042  11.746   0.459   3.063  0.6729  0.0543  0.9355
58077SOL    HW279043  11.821   0.510   2.942 -1.4258  2.7147  0.6560
58078SOL     OW79044   5.249   7.496  10.603 -0.4528  0.3642 -0.4529
58078SOL    HW179045   5.247   7.521  10.511  1.6216 -1.4991 -1.0768
58078SOL    HW279046   5.284   7.573  10.648  1.5510  0.2462 -1.6938
58079SOL     OW79047   4.255   8.287   8.540 -0.0636 -0.1173 -0.4176
58079SOL    HW179048   4.309   8.308   8.617 -0.3718  2.2443 -0.7531
58079SOL    HW279049   4.196   8.218   8.571  0.4035  0.1611  1.2304
58080SOL     OW79050  10.232   7.779   1.451 -0.1293  0.3860 -0.0248
58080SOL    HW179051  10.236   7.798   1.357  0.4264 -0.0268 -0.0930
58080SOL    HW279052  10.159   7.718   1.459  0.1518  0.0037 -0.2763
58081SOL     OW79053   8.099   9.159   6.751 -0.1200 -0.1782  0.3961
58081SOL    HW179054   8.149   9.083   6.779 -1.9395 -0.5557  3.0313
58081SOL    HW279055   8.092   9.213   6.830 -1.5158  1.1609 -0.5874
58082SOL     OW79056   0.335   0.605   7.632 -0.7236 -0.3903  0.2242
58082SOL    HW179057   0.411   0.623   7.688 -0.2825  1.4274 -0.8773
58082SOL    HW279058   0.299   0.692   7.613 -0.7398 -0.9164 -2.4748
58083SOL     OW79059   8.923  10.347   8.718 -0.2426  0.0754 -0.4135
58083SOL    HW179060   9.016  10.361   8.733 -0.0054 -1.7799  0.1491
58083SOL    HW279061   8.897  10.285   8.786 -1.6108 -0.3794 -1.3104
58084SOL     OW79062   3.187   9.861  10.609 -0.2226 -0.3085  0.4692
58084SOL    HW179063   3.227   9.836  10.693  0.2643  0.3939  0.4571
58084SOL    HW279064   3.224   9.800  10.546 -1.8049 -1.8843  0.9997
58085SOL     OW79065   5.301   9.347   9.275  0.1778 -0.1152 -0.0413
58085SOL    HW179066   5.263   9.383   9.195  0.1646 -1.5066 -0.6980
58085SOL    HW279067   5.354   9.273   9.246  0.9575 -0.0659  1.1560
58086SOL     OW79068  10.478   4.614   7.096  0.1563 -0.1073 -0.4154
58086SOL    HW179069  10.524   4.601   7.013 -3.3478 -0.3744 -2.5146
58086SOL    HW279070  10.428   4.533   7.108 -1.6432  1.0754  0.4087
58087SOL     OW79071  11.361   0.145   5.612 -0.3730 -0.1484 -0.5091
58087SOL    HW179072  11.332   0.236   5.615 -1.9871 -0.5740 -1.9559
58087SOL    HW279073  11.325   0.107   5.692  1.7440  0.8098  1.0024
58088SOL     OW79074   6.436   1.111  10.402  0.1241 -0.9075 -0.2416
58088SOL    HW179075   6.375   1.038  10.414 -1.0988 -0.2611 -2.0493
58088SOL    HW279076   6.410   1.150  10.318  1.3451  1.0415  0.2269
58089SOL     OW79077   0.689   1.542   0.952 -0.4303 -0.2219  0.1066
58089SOL    HW179078   0.768   1.594   0.965 -0.3092  0.8317 -3.6123
58089SOL    HW279079   0.721   1.455   0.928 -0.4199 -0.0684 -0.4412
58090SOL     OW79080   3.459   4.772   3.126 -0.1268 -0.0036 -0.6879
58090SOL    HW179081   3.405   4.851   3.117  2.5350  2.1116  0.6595
58090SOL    HW279082   3.395   4.702   3.141 -2.5542  2.1270 -0.3106
58091SOL     OW79083   7.295   2.694  10.085  0.2808  0.2827 -0.0306
58091SOL    HW179084   7.336   2.621  10.037  0.9918  1.4756 -1.3446
58091SOL    HW279085   7.245   2.652  10.154  2.2417 -1.3705  0.4957
58092SOL     OW79086   1.359   2.650   1.155 -0.5744  0.4528 -0.0462
58092SOL    HW179087   1.320   2.734   1.131 -1.3771  0.0168 -0.2818
58092SOL    HW279088   1.397   2.666   1.242 -2.5367  0.5078  0.8625
58093SOL     OW79089   8.640   3.471   7.496 -0.1927  0.2963  0.3532
58093SOL    HW179090   8.705   3.528   7.535 -1.5456  1.4553  1.0125
58093SOL    HW279091   8.595   3.525   7.431 -0.7829 -0.3395  0.2091
58094SOL     OW79092   9.635  11.759   0.278 -0.3827  0.1517 -0.6249
58094SOL    HW179093   9.637  11.751   0.182 -0.1008 -3.2596 -0.4405
58094SOL    HW279094   9.545  11.788   0.297 -0.8737 -0.4799 -1.8691
58095SOL     OW79095   1.830   7.709   3.305 -0.7123  0.2355  0.3556
58095SOL    HW179096   1.866   7.705   3.216  0.0041 -1.0075  0.6837
58095SOL    HW279097   1.907   7.717   3.361 -1.1696  1.1350  0.8840
58096SOL     OW79098  11.810   9.683   9.889 -0.5981 -0.2483 -0.5529
58096SOL    HW179099  11.787   9.651   9.976 -0.5149 -1.1415 -0.8539
58096SOL    HW279100  11.766   9.623   9.828  0.9251 -0.8277 -1.1299
58097SOL     OW79101  12.594   9.422   8.122 -0.7607 -0.1437 -0.2330
58097SOL    HW179102  12.554   9.486   8.181 -1.9467 -3.5329  3.0579
58097SOL    HW279103  12.688   9.433   8.134 -0.9668  0.0243  1.5344
58098SOL     OW79104   1.188   5.186   3.679  0.5178  0.5881 -0.4547
58098SOL    HW179105   1.116   5.159   3.621 -0.0964  1.0161  0.1006
58098SOL    HW279106   1.151   5.257   3.731  0.9614 -0.0068  0.6897
58099SOL     OW79107   4.824   6.631   7.772 -0.3766  0.0158 -0.2189
58099SOL    HW179108   4.887   6.592   7.711  0.4753  1.3013 -0.2070
58099SOL    HW279109   4.862   6.616   7.858 -1.8268 -2.2426  0.0915
58100SOL     OW79110   0.178   4.679   2.555  0.1166 -0.1245 -0.1319
58100SOL    HW179111   0.210   4.595   2.525  1.2328 -0.2464  1.2659
58100SOL    HW279112   0.134   4.660   2.638  0.6718  0.6787  0.3733
58101SOL     OW79113   3.086   2.527   4.357  0.1120 -0.3420 -0.1854
58101SOL    HW179114   2.994   2.540   4.380  0.6062 -0.7693  2.4167
58101SOL    HW279115   3.089   2.442   4.313 -0.7433 -0.2166 -0.5053
58102SOL     OW79116   8.313   0.716   4.821 -0.1196  0.0319  0.5101
58102SOL    HW179117   8.285   0.732   4.731 -0.6212  0.4568  0.7360
58102SOL    HW279118   8.232   0.704   4.870  0.1695 -2.2298  0.5628
58103SOL     OW79119   2.936   7.242   5.929 -0.3905 -0.1643 -0.0805
58103SOL    HW179120   2.995   7.305   5.887  2.3286 -1.3277  1.6949
58103SOL    HW279121   2.864   7.295   5.964 -1.0620  1.1929 -3.2074
58104SOL     OW79122   3.259   5.231  10.830 -0.4015  0.4380  0.8843
58104SOL    HW179123   3.225   5.318  10.810 -0.0922  0.4461  0.3834
58104SOL    HW279124   3.353   5.244  10.840 -0.2762  0.0508  0.1986
58105SOL     OW79125   8.959   5.287   0.170  0.0921 -0.8142  0.1607
58105SOL    HW179126   8.895   5.340   0.218  1.9195  1.8573 -0.1120
58105SOL    HW279127   9.017   5.254   0.238  1.3685  1.1109  0.0888
58106SOL     OW79128   4.126   0.292   4.504  0.1470 -0.3089 -0.0681
58106SOL    HW179129   4.166   0.205   4.509  0.8123  0.0265  0.6790
58106SOL    HW279130   4.099   0.311   4.594 -1.4510 -0.3943 -0.4977
58107SOL     OW79131   6.417   8.339   2.112 -0.5570 -0.1011 -0.7587
58107SOL    HW179132   6.349   8.380   2.165  1.6307 -0.8367  2.9909
58107SOL    HW279133   6.482   8.409   2.098  0.1702 -0.6090  0.0099
58108SOL     OW79134   7.584   8.456   2.672 -0.1118 -0.7652 -0.0972
58108SOL    HW179135   7.651   8.396   2.704 -0.7738 -2.1304 -1.1717
58108SOL    HW279136   7.628   8.505   2.602 -0.1867 -1.6439 -0.7858
58109SOL     OW79137  10.561   8.109   4.682 -0.1421  0.3406  0.2273
58109SOL    HW179138  10.523   8.145   4.762 -1.5236 -1.9150  0.6780
58109SOL    HW279139  10.494   8.122   4.615 -0.4896 -0.9210  0.3007
58110SOL     OW79140  11.823   7.624   5.429  0.1343 -0.5203  0.1657
58110SOL    HW179141  11.788   7.592   5.512 -0.3498  0.8721  0.5182
58110SOL    HW279142  11.747   7.631   5.371  0.4693 -1.4882 -0.4106
58111SOL     OW79143   9.838   1.966   3.962  0.0002 -0.3208 -0.3141
58111SOL    HW179144   9.852   2.037   3.900 -1.7540  0.6636  0.3255
58111SOL    HW279145   9.921   1.956   4.008  0.5597  0.6462 -1.0989
58112SOL     OW79146   4.519   0.614  10.207  0.2199 -0.1482  0.6425
58112SOL    HW179147   4.446   0.663  10.169  1.9140  1.5888 -0.5934
58112SOL    HW279148   4.533   0.540  10.148 -0.2019 -0.1967  0.6027
58113SOL     OW79149  10.391   0.498   8.249  0.1532 -0.2863  0.4487
58113SOL    HW179150  10.346   0.420   8.217 -3.3670  1.1326  1.4178
58113SOL    HW279151  10.441   0.467   8.324 -0.7464 -1.7407  0.4989
58114SOL     OW79152   8.121  10.809  10.276 -0.2860 -0.2435 -0.0665
58114SOL    HW179153   8.210  10.844  10.276 -0.5042  0.3762  0.9852
58114SOL    HW279154   8.100  10.797  10.369 -1.3762 -0.1628 -0.2878
58115SOL     OW79155   4.241   4.438   1.859 -0.0296  1.0591  0.4725
58115SOL    HW179156   4.267   4.364   1.804 -1.0741  0.4119  0.8260
58115SOL    HW279157   4.254   4.515   1.804  0.0253  0.5208 -0.2770
58116SOL     OW79158   6.257   9.083   1.450  0.0966  0.4688 -0.0176
58116SOL    HW179159   6.341   9.085   1.403  0.7944 -1.5157  1.0380
58116SOL    HW279160   6.260   9.159   1.508  1.5512 -0.0187  0.5913
58117SOL     OW79161   5.398   4.885   1.282 -0.2369  0.2265  0.1591
58117SOL    HW179162   5.344   4.943   1.335 -0.5785  0.6987 -0.6843
58117SOL    HW279163   5.483   4.930   1.277 -0.3575  0.4252 -0.1073
58118SOL     OW79164   0.127   6.900   9.823 -0.0483 -0.3514 -0.7833
58118SOL    HW179165   0.063   6.883   9.754 -1.5888 -1.2167  0.7641
58118SOL    HW279166   0.189   6.962   9.785 -3.0477  2.3216 -1.6639
58119SOL     OW79167   3.118   1.358   8.880 -0.2847  0.6749 -0.5050
58119SOL    HW179168   3.111   1.435   8.936  1.2826  0.0255  0.6602
58119SOL    HW279169   3.130   1.393   8.792  0.8138  1.7910  0.0646
58120SOL     OW79170   5.240   2.206   3.295 -0.7989  0.5878  0.0737
58120SOL    HW179171   5.240   2.161   3.211  0.5124  0.6623  0.0228
58120SOL    HW279172   5.251   2.298   3.274 -0.8324  0.6486  0.3147
58121SOL     OW79173  11.427  12.208   2.393 -0.3716 -0.3834  0.3312
58121SOL    HW179174  11.343  12.161   2.389  0.3168 -1.5750 -1.2413
58121SOL    HW279175  11.403  12.300   2.401 -1.8706 -0.6005 -1.1962
58122SOL     OW79176   8.616  11.256  10.479 -0.3164  0.9018  0.3475
58122SOL    HW179177   8.565  11.329  10.444  0.2501  1.1233 -0.0306
58122SOL    HW279178   8.561  11.219  10.547 -2.2521 -0.6469 -1.8926
58123SOL     OW79179   7.303   2.082   9.955  0.6602 -0.3322  0.1920
58123SOL    HW179180   7.237   2.136   9.912  0.1603 -0.7791  0.3821
58123SOL    HW279181   7.294   1.996   9.913 -0.1308 -0.8964  1.4634
58124SOL     OW79182   1.192   2.240   3.513 -0.4956  0.1552  0.1990
58124SOL    HW179183   1.269   2.219   3.566 -1.6301 -1.8459  1.1868
58124SOL    HW279184   1.193   2.176   3.442 -0.3587  1.2151 -0.7845
58125SOL     OW79185   3.008   4.913   5.574 -0.3103  0.2583  0.1154
58125SOL    HW179186   2.996   4.903   5.668 -1.5666  0.6521  0.0086
58125SOL    HW279187   3.025   4.824   5.542  1.3151  0.2665  0.8399
58126SOL     OW79188   6.193   6.649   5.868 -0.4720 -0.2875  0.4006
58126SOL    HW179189   6.242   6.586   5.921 -0.8192 -0.9943 -0.1086
58126SOL    HW279190   6.103   6.617   5.870 -0.6969  0.3337  0.3390
58127SOL     OW79191   3.881   2.124   0.370 -0.7021 -0.4084  0.4398
58127SOL    HW179192   3.954   2.170   0.327 -0.3876 -2.6849 -1.6613
58127SOL    HW279193   3.806   2.182   0.358 -0.2113 -0.1264 -1.6013
58128SOL     OW79194  11.911   6.494  12.633 -0.2041 -0.7688 -0.3641
58128SOL    HW179195  11.975   6.442  12.681  1.3506 -0.7547 -2.3043
58128SOL    HW279196  11.941   6.585  12.643 -0.2452 -0.7034 -0.8245
58129SOL     OW79197   7.264  11.255   1.214 -0.2328 -0.1116  0.0958
58129SOL    HW179198   7.262  11.246   1.310  2.1808 -0.0768  0.1951
58129SOL    HW279199   7.330  11.322   1.198  1.7131 -2.2878 -1.6827
58130SOL     OW79200   0.312  11.766   1.710  0.1387 -0.0610 -0.3359
58130SOL    HW179201   0.367  11.693   1.681  1.4706  0.8875 -0.2748
58130SOL    HW279202   0.356  11.802   1.786 -0.5995  0.6984 -0.2423
58131SOL     OW79203   6.967   8.535  10.790  0.3860 -0.2260  0.0732
58131SOL    HW179204   7.003   8.527  10.878  2.4872  2.7035 -0.3708
58131SOL    HW279205   7.041   8.517  10.732  0.4980  2.7706 -0.9271
58132SOL     OW79206   9.429   7.586   8.584  0.1577  0.0684 -0.3248
58132SOL    HW179207   9.447   7.509   8.638 -1.5833 -1.3569 -1.6569
58132SOL    HW279208   9.414   7.657   8.647 -0.7892 -1.2967  1.0535
58133SOL     OW79209   2.708   1.885   0.985  0.0813  0.1826  0.3985
58133SOL    HW179210   2.739   1.959   0.934  1.5943  0.8845  2.2182
58133SOL    HW279211   2.702   1.918   1.074  0.0464 -1.6643  1.1237
58134SOL     OW79212  11.732   9.001   2.994 -0.6779 -0.0424  0.3685
58134SOL    HW179213  11.740   9.073   3.058 -0.3487  0.3696 -0.1224
58134SOL    HW279214  11.638   8.996   2.975 -0.7648 -0.0902  0.7943
58135SOL     OW79215   3.470   1.546   7.100 -0.0640 -0.7468 -0.4882
58135SOL    HW179216   3.563   1.556   7.122  0.1120 -1.0139 -1.0712
58135SOL    HW279217   3.468   1.549   7.004 -0.6408 -0.8904 -0.4864
58136SOL     OW79218   0.923   1.257   0.802 -0.4053  0.0401  0.8917
58136SOL    HW179219   0.889   1.178   0.761  0.3238  0.3438 -0.3635
58136SOL    HW279220   0.981   1.225   0.871 -0.8126 -0.4997  0.9904
58137SOL     OW79221  12.464   7.405  12.540  0.5664  0.3892 -0.2206
58137SOL    HW179222  12.396   7.341  12.517  0.6815 -0.5248  1.8073
58137SOL    HW279223  12.526   7.400  12.468 -0.0126 -0.9489 -0.6630
58138SOL     OW79224   0.926   2.248   7.865  0.2186 -0.7721 -0.4384
58138SOL    HW179225   0.925   2.290   7.779  2.2334 -0.2850 -0.2691
58138SOL    HW279226   0.841   2.269   7.903 -0.6496 -0.8433 -2.2112
58139SOL     OW79227  10.612  11.160   1.443 -0.1153  0.0655  0.2768
58139SOL    HW179228  10.674  11.219   1.400  1.1657 -0.6257  1.1018
58139SOL    HW279229  10.529  11.206   1.439  0.7906  1.8200  0.6737
58140SOL     OW79230   5.087   7.307   3.135  0.4605  0.2473  0.1164
58140SOL    HW179231   5.022   7.377   3.145  0.5207  0.4572 -0.8687
58140SOL    HW279232   5.105   7.278   3.224 -2.6159 -1.3147  0.3690
58141SOL     OW79233   3.918   1.776   0.025 -0.0959 -0.3667  0.0612
58141SOL    HW179234   3.937   1.776   0.118 -1.3349  3.0874  0.4687
58141SOL    HW279235   3.824   1.760   0.019 -0.2345  0.5248 -0.4594
58142SOL     OW79236   2.839   7.052   4.533 -0.0163 -0.1926 -0.1899
58142SOL    HW179237   2.764   7.009   4.491 -0.3797 -0.0155  0.2706
58142SOL    HW279238   2.914   7.027   4.479 -0.3305 -0.8013 -0.3541
58143SOL     OW79239   7.634   8.022   2.137 -0.5919  0.2811 -0.2260
58143SOL    HW179240   7.653   7.960   2.207  0.1558  0.3076 -0.3996
58143SOL    HW279241   7.538   8.023   2.131 -0.6182 -0.8344 -0.1964
58144SOL     OW79242  11.278  11.696   1.190  0.4073 -0.4355 -0.1214
58144SOL    HW179243  11.199  11.691   1.136  1.4613 -1.3158 -1.6943
58144SOL    HW279244  11.297  11.789   1.197  0.2984 -0.2881 -1.4331
58145SOL     OW79245   6.837  10.734   0.007  0.1346 -0.0606 -0.3690
58145SOL    HW179246   6.841  10.752  -0.087 -2.5541 -0.7118 -0.7204
58145SOL    HW279247   6.897  10.796   0.047  0.4473  1.0455 -2.4321
58146SOL     OW79248   4.864   5.332   1.953  0.1095 -0.3530 -0.3520
58146SOL    HW179249   4.806   5.283   2.012  0.2578  0.5228  0.5393
58146SOL    HW279250   4.812   5.344   1.873  0.5542 -3.1718 -1.2045
58147SOL     OW79251   8.025   1.685   2.374 -0.0532 -0.0832 -0.2478
58147SOL    HW179252   8.076   1.726   2.304 -1.0806  1.7834  0.0215
58147SOL    HW279253   8.025   1.592   2.352  2.1715  0.0402 -1.0576
58148SOL     OW79254   9.650   2.604   9.904 -0.6917  0.6185 -0.3920
58148SOL    HW179255   9.637   2.677   9.844 -1.3678  1.1816  0.4090
58148SOL    HW279256   9.562   2.575   9.926 -0.4372 -0.0588 -0.2474
58149SOL     OW79257   4.482   7.274  11.262  0.2599  0.1567 -0.5175
58149SOL    HW179258   4.446   7.273  11.351 -1.4770 -3.0269 -1.1054
58149SOL    HW279259   4.422   7.332  11.214 -2.1781 -2.3041 -0.6837
58150SOL     OW79260   6.639   8.548   2.299  0.0771 -0.4312  0.1776
58150SOL    HW179261   6.705   8.613   2.322 -0.1430 -0.0659 -0.2124
58150SOL    HW279262   6.650   8.535   2.205 -1.8019  1.2227 -0.3209
58151SOL     OW79263   8.196   4.550   4.910  0.5243  0.0956  0.2842
58151SOL    HW179264   8.117   4.567   4.859 -0.2346  0.5620  1.5656
58151SOL    HW279265   8.257   4.511   4.847 -1.6649 -3.0214 -0.1599
58152SOL     OW79266   4.861   4.563   4.088 -0.4256 -0.0329  0.3324
58152SOL    HW179267   4.885   4.470   4.091 -0.9538 -0.1596  0.9117
58152SOL    HW279268   4.767   4.563   4.068 -0.6890  0.3255  1.4690
58153SOL     OW79269   1.571  12.199   2.576 -0.4716  0.3506 -0.4229
58153SOL    HW179270   1.524  12.243   2.646 -1.3334 -1.7420  0.3996
58153SOL    HW279271   1.503  12.154   2.525  0.2966  0.4594 -1.6038
58154SOL     OW79272   2.099   4.524   0.940 -0.0639  0.0769  0.1482
58154SOL    HW179273   2.048   4.606   0.938  0.3340  0.3141 -0.5346
58154SOL    HW279274   2.041   4.461   0.982 -0.2237  0.8156  1.0837
58155SOL     OW79275   6.647   0.737   0.276 -0.0141  0.3560  0.7058
58155SOL    HW179276   6.713   0.699   0.219 -0.5325  1.6884 -0.8276
58155SOL    HW279277   6.576   0.672   0.277  0.4013 -0.1030  0.6276
58156SOL     OW79278   6.325   7.525   3.399 -0.2005 -0.0592 -0.0997
58156SOL    HW179279   6.282   7.528   3.485 -0.2840  0.4577 -0.1558
58156SOL    HW279280   6.340   7.617   3.377 -0.4960 -0.1726 -0.7993
58157SOL     OW79281   2.064   7.527  11.150 -0.1238 -0.4669 -0.5272
58157SOL    HW179282   2.140   7.472  11.168  0.2485  0.5872  1.4097
58157SOL    HW279283   2.091   7.582  11.077  0.0537 -1.7326 -1.4562
58158SOL     OW79284   0.423   1.327   7.078 -0.1446  0.1024 -0.1364
58158SOL    HW179285   0.368   1.259   7.039 -0.2277  0.5320 -0.7755
58158SOL    HW279286   0.414   1.402   7.020 -0.3265  0.7835  0.7387
58159SOL     OW79287   4.777   4.633  10.486 -0.3870 -0.1137 -0.9037
58159SOL    HW179288   4.729   4.666  10.410 -0.6389 -0.3542 -0.8498
58159SOL    HW279289   4.850   4.583  10.449 -0.6357 -0.4162 -0.9906
58160SOL     OW79290   4.161   9.757   1.937  0.3841 -0.5194 -0.0474
58160SOL    HW179291   4.168   9.706   1.857  0.0803 -0.2950 -0.2187
58160SOL    HW279292   4.067   9.764   1.953  0.3798  0.7797 -0.5351
58161SOL     OW79293   6.475  10.782   0.088 -0.2999  0.4690  0.1048
58161SOL    HW179294   6.414  10.763   0.159 -0.9687  2.0245 -0.0043
58161SOL    HW279295   6.530  10.852   0.121  0.5155  0.0397 -0.3161
58162SOL     OW79296  12.180   6.484   2.701  0.1822  0.4268  0.5606
58162SOL    HW179297  12.110   6.461   2.639  1.2575 -1.1356 -0.1513
58162SOL    HW279298  12.141   6.469   2.787 -0.8294  1.0472  0.2243
58163SOL     OW79299   2.129   5.164   3.218 -0.4474  0.5195 -0.3447
58163SOL    HW179300   2.123   5.073   3.249 -0.9412  0.5736 -0.2832
58163SOL    HW279301   2.185   5.207   3.283 -1.3239  0.5874  0.3770
58164SOL     OW79302   7.907  10.580   6.822 -0.0776 -0.0036 -0.0985
58164SOL    HW179303   7.872  10.520   6.887  1.8748  0.3057  1.3220
58164SOL    HW279304   7.846  10.653   6.821 -1.0086 -0.7502  0.1487
58165SOL     OW79305   8.969   5.784   4.601 -0.4372  0.0428  0.5131
58165SOL    HW179306   8.968   5.858   4.540 -1.5941  0.5405  1.0971
58165SOL    HW279307   8.998   5.821   4.684  1.5573 -0.7209  0.2030
58166SOL     OW79308   8.532  12.462  11.580 -0.2572  0.1456 -0.0388
58166SOL    HW179309   8.529  12.370  11.608 -2.8011  0.2600  0.3008
58166SOL    HW279310   8.551  12.510  11.660  0.5737 -0.0340 -0.1197
58167SOL     OW79311   8.504  12.630   4.959  0.0442 -0.0806  0.2073
58167SOL    HW179312   8.595  12.601   4.949 -0.0848 -0.2682 -0.4623
58167SOL    HW279313   8.508  12.696   5.028  1.0606  1.5197 -1.2945
58168SOL     OW79314   3.877   0.880  11.006  0.3711  0.0495  0.1968
58168SOL    HW179315   3.924   0.806  11.044  0.6589 -0.2055 -0.6236
58168SOL    HW279316   3.934   0.955  11.020 -0.2297  0.2574  1.6450
58169SOL     OW79317   2.880   8.547   6.650  0.1399  0.0550 -0.0886
58169SOL    HW179318   2.858   8.616   6.587  0.9082  0.8248  0.4645
58169SOL    HW279319   2.854   8.466   6.606 -2.1420  0.7543 -0.2007
58170SOL     OW79320   2.878   9.495  11.074  0.1997  0.3331 -0.3781
58170SOL    HW179321   2.840   9.575  11.036 -0.3959  0.4922  0.5261
58170SOL    HW279322   2.953   9.525  11.124  0.8375  0.1484 -1.1945
58171SOL     OW79323   0.614   8.181  10.426 -0.5642 -0.2416 -0.1421
58171SOL    HW179324   0.597   8.274  10.442  0.2216 -0.3867  1.7608
58171SOL    HW279325   0.529   8.139  10.436 -0.7757  0.1747 -0.1635
58172SOL     OW79326   5.092   4.847   8.182  0.6350 -0.4223 -0.0016
58172SOL    HW179327   5.135   4.789   8.245  0.8544 -0.5830 -0.2993
58172SOL    HW279328   5.005   4.861   8.219  0.1401 -1.9154 -0.5120
58173SOL     OW79329  10.888   9.222   6.338  0.1162 -0.0074 -0.1458
58173SOL    HW179330  10.921   9.270   6.262 -2.0763 -1.3868 -2.1099
58173SOL    HW279331  10.935   9.139   6.335 -0.6625 -0.4496 -0.6447
58174SOL     OW79332   7.686   6.464  11.639  0.5488 -0.3267 -0.5490
58174SOL    HW179333   7.733   6.463  11.722  0.6766 -0.4261 -0.6228
58174SOL    HW279334   7.623   6.392  11.646 -1.0622  1.0837  0.3924
58175SOL     OW79335  10.172  11.853   7.278 -0.5624 -0.1789 -0.3883
58175SOL    HW179336  10.262  11.868   7.306 -0.6604  0.9283 -0.6194
58175SOL    HW279337  10.176  11.776   7.221  0.0754 -0.7167  0.3703
58176SOL     OW79338   1.584   1.493   0.567  0.6684  0.1285 -0.6342
58176SOL    HW179339   1.675   1.515   0.548  1.1599 -1.4679 -0.2556
58176SOL    HW279340   1.553   1.567   0.620  1.7187  0.7169 -0.7993
58177SOL     OW79341   2.939  10.756  11.445 -0.0505  0.0994  0.3220
58177SOL    HW179342   2.855  10.722  11.475  0.7176 -2.2989 -0.0913
58177SOL    HW279343   2.916  10.835  11.395 -1.9221  0.1347  1.1593
58178SOL     OW79344   2.595   7.039   3.014  0.2634 -0.0428  0.0821
58178SOL    HW179345   2.555   7.055   2.929 -0.5643  0.3120  0.5256
58178SOL    HW279346   2.532   6.984   3.060  0.5761 -0.0042  0.5667
58179SOL     OW79347  12.122   8.056  10.871 -0.2452  0.0206  0.3792
58179SOL    HW179348  12.179   8.007  10.811  0.2250  0.1857  0.6846
58179SOL    HW279349  12.054   8.092  10.814  0.0507 -0.0390 -0.0224
58180SOL     OW79350   7.006  10.004   5.008 -0.4462 -0.5531  0.4075
58180SOL    HW179351   7.049  10.067   4.950 -0.0799 -0.6737  0.5440
58180SOL    HW279352   7.053  10.012   5.091 -1.0677 -0.2695  0.7441
58181SOL     OW79353  11.381  11.207   2.165  0.0602 -0.0082 -0.4510
58181SOL    HW179354  11.388  11.294   2.205 -0.9279  0.7224 -1.8106
58181SOL    HW279355  11.334  11.222   2.083  0.2513 -1.7737 -0.9108
58182SOL     OW79356   4.303   1.144   8.676  0.0138 -0.4189 -0.2331
58182SOL    HW179357   4.243   1.160   8.603 -1.2555 -3.9018 -0.1857
58182SOL    HW279358   4.309   1.048   8.681  4.1993 -0.2932  0.9882
58183SOL     OW79359   9.764   9.848   8.125  0.3500 -0.5787 -0.2556
58183SOL    HW179360   9.718   9.931   8.136  0.1288 -0.9046  1.5330
58183SOL    HW279361   9.699   9.781   8.145  0.5814 -1.2087 -1.4835
58184SOL     OW79362   4.318   5.283   7.795 -0.5229  0.5985 -0.8172
58184SOL    HW179363   4.289   5.252   7.709 -1.3098  1.6740 -0.9466
58184SOL    HW279364   4.279   5.370   7.804  3.7259  2.8579 -1.6058
58185SOL     OW79365   8.694  10.691   6.996 -0.0551  0.6511  0.2834
58185SOL    HW179366   8.713  10.652   7.082 -1.1743 -0.6281 -0.0219
58185SOL    HW279367   8.632  10.630   6.955  1.2515  0.6886 -1.8754
58186SOL     OW79368   1.704   5.665   0.031  0.1554  0.3243  0.2314
58186SOL    HW179369   1.752   5.747   0.044 -0.3662  0.6920 -0.1129
58186SOL    HW279370   1.660   5.676  -0.053 -0.5075 -0.0134  0.5265
58187SOL     OW79371   6.792   5.054   1.605 -0.6094  0.2106  0.2261
58187SOL    HW179372   6.821   5.136   1.644  0.0916 -0.1559  0.5022
58187SOL    HW279373   6.872   5.000   1.601 -1.1761 -0.6776  0.6164
58188SOL     OW79374  10.862   4.296   7.058 -0.2689 -0.1533 -0.4622
58188SOL    HW179375  10.827   4.376   7.098  1.1381 -0.4418  1.4988
58188SOL    HW279376  10.807   4.282   6.981 -1.8323  1.5980  0.2450
58189SOL     OW79377   3.676   2.123   2.191  0.2112  0.3277 -0.7239
58189SOL    HW179378   3.657   2.050   2.132  1.0400 -0.8126  0.3664
58189SOL    HW279379   3.679   2.083   2.278  2.9542  1.2216 -0.3220
58190SOL     OW79380  12.477   0.926   6.479 -0.6880 -0.4484 -0.4056
58190SOL    HW179381  12.402   0.969   6.520 -0.4717  1.3631 -1.7830
58190SOL    HW279382  12.480   0.962   6.390  2.0015 -0.1520 -0.3036
58191SOL     OW79383  11.926   0.978   7.664  0.4740  0.0489 -0.1758
58191SOL    HW179384  11.842   0.985   7.710  0.4106 -1.3697 -0.0390
58191SOL    HW279385  11.956   1.068   7.655 -0.2503  0.4623  1.2876
58192SOL     OW79386   5.258   1.146   8.039 -0.1468  0.2965 -0.4740
58192SOL    HW179387   5.328   1.205   8.066 -0.9210  1.1534 -0.2904
58192SOL    HW279388   5.183   1.203   8.021 -2.1395 -0.7938  3.3262
58193SOL     OW79389   2.068   3.818   9.535 -0.4229  0.6255  0.3429
58193SOL    HW179390   2.092   3.753   9.469  0.7042  0.2979  1.0401
58193SOL    HW279391   1.991   3.861   9.500 -0.6587 -0.4835 -0.5463
58194SOL     OW79392   7.699  10.678   5.860  0.0626 -0.0916  0.2528
58194SOL    HW179393   7.659  10.593   5.840  1.1781 -0.8941  1.2548
58194SOL    HW279394   7.775  10.682   5.803  0.9197 -0.5188  1.3331
58195SOL     OW79395  10.658   8.103   3.974  0.1383 -0.2023 -0.5850
58195SOL    HW179396  10.620   8.022   4.009 -0.3213 -0.1157 -0.8725
58195SOL    HW279397  10.686   8.081   3.885  1.2560 -0.4052 -0.1992
58196SOL     OW79398   0.593   1.117  10.411 -1.0934  0.0168 -0.2598
58196SOL    HW179399   0.596   1.089  10.319 -2.6073 -2.6138  0.4097
58196SOL    HW279400   0.681   1.098  10.444 -0.3948  1.3815 -1.2006
58197SOL     OW79401  12.525   7.915  10.098  0.4270  0.0825 -0.4970
58197SOL    HW179402  12.442   7.912  10.051  0.8161 -1.5669 -1.1441
58197SOL    HW279403  12.581   7.972  10.045  0.1818 -0.0277 -0.8792
58198SOL     OW79404   4.434   1.976   2.886  0.1509 -0.1166 -0.3309
58198SOL    HW179405   4.362   1.952   2.828  0.1682  0.4584 -0.5931
58198SOL    HW279406   4.491   2.033   2.833  1.4203 -1.4817 -0.5065
58199SOL     OW79407  12.630   2.700  10.408  0.1749 -0.7943 -0.0009
58199SOL    HW179408  12.585   2.774  10.447  2.3113  0.6039 -0.0285
58199SOL    HW279409  12.575   2.673  10.335 -0.1330  1.5015 -0.6822
58200SOL     OW79410   6.023   3.405  12.603 -0.4659  0.2721  0.7899
58200SOL    HW179411   5.940   3.359  12.616 -0.2515 -0.4535 -0.3125
58200SOL    HW279412   6.000   3.498  12.609 -1.5800  0.1191 -0.5686
58201SOL     OW79413   9.131   8.880   0.818  0.5682  0.2172 -0.3063
58201SOL    HW179414   9.083   8.809   0.777  0.0079  0.3488  0.1027
58201SOL    HW279415   9.097   8.883   0.908  1.2807  0.3713 -0.0330
58202SOL     OW79416   0.735   3.960   3.449  0.0235 -0.8667 -0.0244
58202SOL    HW179417   0.664   4.008   3.491  0.6067  0.6994 -0.7536
58202SOL    HW279418   0.698   3.874   3.431 -1.7624 -0.0323 -0.5847
58203SOL     OW79419   7.168  11.540  10.923  0.3568 -0.2604  0.4737
58203SOL    HW179420   7.072  11.539  10.917  0.3694 -1.0082  0.3067
58203SOL    HW279421   7.196  11.462  10.876  1.0911  0.2923 -0.0330
58204SOL     OW79422   4.263   7.844  10.262  0.0711 -0.4221 -0.1848
58204SOL    HW179423   4.270   7.842  10.167  1.0250  0.3684 -0.1551
58204SOL    HW279424   4.239   7.755  10.287  1.8037 -1.1806 -1.0339
58205SOL     OW79425   3.343   7.560   8.073  0.2662 -0.0635 -0.3490
58205SOL    HW179426   3.391   7.580   8.154 -0.6544  0.8801 -0.0159
58205SOL    HW279427   3.321   7.467   8.081  0.6680 -0.1149  0.2242
58206SOL     OW79428   9.082   6.187   9.102 -0.2721 -1.3802  0.0093
58206SOL    HW179429   9.084   6.183   9.007  1.3805 -0.6259 -0.0205
58206SOL    HW279430   9.168   6.156   9.130 -0.9764 -2.2993  1.3122
58207SOL     OW79431   2.808   2.914   4.862  0.0785 -0.0457  0.0010
58207SOL    HW179432   2.753   2.894   4.938  1.3273 -0.8908  0.7188
58207SOL    HW279433   2.839   3.003   4.878 -1.8812  0.8532 -0.9409
58208SOL     OW79434   5.907   8.476  11.403  0.0942 -0.0762  0.1550
58208SOL    HW179435   5.863   8.550  11.361 -0.0054 -0.1182  0.1871
58208SOL    HW279436   5.840   8.409  11.411  0.6527 -0.9042 -1.6533
58209SOL     OW79437   3.354   0.074   0.842  0.5026 -0.4315 -0.0228
58209SOL    HW179438   3.297   0.099   0.915  0.5300 -0.2059 -0.0782
58209SOL    HW279439   3.407   0.152   0.826  2.3429 -1.3041  1.4368
58210SOL     OW79440   9.484   6.222   7.446 -0.3569  0.6399  0.0232
58210SOL    HW179441   9.457   6.160   7.514  0.1128  0.3463 -0.0526
58210SOL    HW279442   9.416   6.216   7.379 -0.0794 -0.1409 -0.1974
58211SOL     OW79443   6.163   8.740  11.263  0.4261 -0.3961 -0.5816
58211SOL    HW179444   6.074   8.756  11.231 -0.4361 -1.0806  1.3032
58211SOL    HW279445   6.181   8.813  11.321  1.8419  0.6726 -2.2660
58212SOL     OW79446   1.777   6.251   2.107 -0.4057 -0.3853 -0.1839
58212SOL    HW179447   1.869   6.244   2.134 -0.3223 -0.6413 -0.5217
58212SOL    HW279448   1.780   6.246   2.012 -0.8851 -1.9556 -0.1448
58213SOL     OW79449   5.388   4.598   2.871 -0.4957  0.1668 -0.2016
58213SOL    HW179450   5.435   4.560   2.796 -1.6424  0.7572 -1.2565
58213SOL    HW279451   5.359   4.522   2.922 -0.0334 -0.2619 -0.5684
58214SOL     OW79452   7.941  10.868   0.084  0.0624  0.3802  0.1393
58214SOL    HW179453   7.884  10.871   0.007 -1.0491  1.4642  0.9667
58214SOL    HW279454   8.011  10.930   0.064  0.8751 -0.8152 -0.8063
58215SOL     OW79455  11.062   6.357   4.208  0.0015  0.0242 -0.2196
58215SOL    HW179456  11.065   6.399   4.122 -3.1595 -0.4824 -0.6692
58215SOL    HW279457  10.969   6.345   4.227  0.6252 -1.3922  2.5546
58216SOL     OW79458   7.350  11.705   0.050 -0.0371 -0.8498  0.4619
58216SOL    HW179459   7.349  11.663  -0.036  2.4189  0.7559 -0.4672
58216SOL    HW279460   7.427  11.668   0.094  1.0114  1.1042  0.3798
58217SOL     OW79461   0.727   1.022   4.693  0.4889 -0.2717 -0.0571
58217SOL    HW179462   0.733   1.107   4.738 -0.2642 -0.1162 -0.2434
58217SOL    HW279463   0.638   0.993   4.708 -0.3961  0.6202 -2.8988
58218SOL     OW79464  12.642   4.685  12.107 -0.1139  1.0106  0.1273
58218SOL    HW179465  12.572   4.620  12.111  0.8772 -0.1169 -0.3953
58218SOL    HW279466  12.639   4.728  12.193 -1.8220  1.4190 -0.0940
58219SOL     OW79467   7.468   8.151   1.590  0.2388  0.4092 -0.2798
58219SOL    HW179468   7.460   8.241   1.621 -2.0611  0.2454 -0.1873
58219SOL    HW279469   7.429   8.153   1.502  0.6000 -0.3905 -0.4615
58220SOL     OW79470  10.372   5.746   5.122  0.0990 -0.3505  0.6297
58220SOL    HW179471  10.328   5.828   5.099 -1.3426 -0.2147  3.3906
58220SOL    HW279472  10.332   5.721   5.205  4.3720 -0.9700  2.7356
58221SOL     OW79473   7.515   1.917  11.701 -0.0068  0.4777 -0.0318
58221SOL    HW179474   7.527   1.956  11.788  1.0320 -0.4328  0.2645
58221SOL    HW279475   7.604   1.893  11.674 -0.1675  1.7941 -1.8689
58222SOL     OW79476   7.094   8.818   1.674  0.6022 -0.7848 -0.4526
58222SOL    HW179477   7.153   8.762   1.724 -0.4168 -1.9142 -0.4651
58222SOL    HW279478   7.091   8.778   1.587  0.0558 -0.5679 -0.5366
58223SOL     OW79479   0.316  11.500   3.924 -0.2981 -0.4114  0.2422
58223SOL    HW179480   0.306  11.551   4.005  0.8222  0.8022 -0.3445
58223SOL    HW279481   0.230  11.460   3.910 -0.1746 -1.7376  2.7219
58224SOL     OW79482   2.854  10.916  10.219 -0.1945  0.8820 -0.2813
58224SOL    HW179483   2.765  10.933  10.190 -0.3371 -0.6193 -0.8345
58224SOL    HW279484   2.863  10.964  10.301 -2.3715 -0.9064  1.1138
58225SOL     OW79485   3.396   8.969   7.908  0.3457 -0.7777  0.1669
58225SOL    HW179486   3.326   8.911   7.938  1.4320 -1.4755  1.4967
58225SOL    HW279487   3.430   9.009   7.988  1.1609 -0.1066 -0.4958
58226SOL     OW79488   4.032   5.682   5.981  0.3163  0.1956  0.3988
58226SOL    HW179489   3.986   5.599   5.984 -0.2179  0.4337 -0.6227
58226SOL    HW279490   3.998   5.726   5.903  0.6013  1.3612  0.8964
58227SOL     OW79491   4.619  11.251  11.485 -1.0972 -0.5029 -0.1468
58227SOL    HW179492   4.541  11.206  11.451 -1.8142 -0.4295  1.2909
58227SOL    HW279493   4.586  11.301  11.560  0.0397  0.8966 -0.5503
58228SOL     OW79494   5.239   8.174   2.656  0.1796  0.3482  0.0767
58228SOL    HW179495   5.245   8.108   2.726 -0.2329  0.7557  0.5038
58228SOL    HW279496   5.216   8.123   2.578  0.7186 -0.1231  0.2181
58229SOL     OW79497   2.481   0.746   4.958  0.4756  1.2228  0.0914
58229SOL    HW179498   2.401   0.759   5.008 -0.6649  0.2093 -1.3784
58229SOL    HW279499   2.468   0.799   4.879 -0.2720 -1.4849 -1.7109
58230SOL     OW79500  11.371  11.880  11.741 -0.1170  0.3479 -0.4315
58230SOL    HW179501  11.409  11.832  11.814  0.0862  0.4683 -0.4583
58230SOL    HW279502  11.367  11.817  11.670 -0.5825  0.1477 -0.2339
58231SOL     OW79503   6.583   7.097   2.874  0.5031 -0.1207 -0.4158
58231SOL    HW179504   6.558   7.157   2.945  0.0859  1.6328 -1.9617
58231SOL    HW279505   6.675   7.079   2.889  0.9215  1.7539 -0.4244
58232SOL     OW79506   6.703   4.725   1.861  0.3205 -0.4697 -0.2766
58232SOL    HW179507   6.669   4.810   1.836  0.8626  0.3056  1.4427
58232SOL    HW279508   6.679   4.667   1.789 -0.6760  0.9747 -1.1580
58233SOL     OW79509   4.325   3.209   2.519  0.2203 -0.2727 -0.0865
58233SOL    HW179510   4.352   3.233   2.608 -0.9312 -0.9785  0.4832
58233SOL    HW279511   4.360   3.121   2.507  0.4144 -0.1587 -0.3444
58234SOL     OW79512   3.665   9.090   9.238 -0.4144  0.0277 -0.4585
58234SOL    HW179513   3.611   9.051   9.307  1.2435 -1.4779  0.0632
58234SOL    HW279514   3.752   9.097   9.277  0.6999 -1.3511 -2.5063
58235SOL     OW79515   7.923   4.022   8.044 -0.1310 -0.0481 -0.1718
58235SOL    HW179516   7.962   4.094   7.995  0.3356 -1.2084 -1.5542
58235SOL    HW279517   7.979   4.011   8.121 -0.2814  1.1106  0.1184
58236SOL     OW79518   2.071   8.098  11.162 -0.3836  0.8287 -0.0130
58236SOL    HW179519   2.055   8.097  11.257 -1.1788  2.1661 -0.1117
58236SOL    HW279520   2.053   8.188  11.136  0.8109  0.7256 -1.2838
58237SOL     OW79521   6.202   7.738   5.874  0.2413 -0.1497  0.0299
58237SOL    HW179522   6.206   7.650   5.913  1.0603 -0.0574  0.1731
58237SOL    HW279523   6.198   7.797   5.949 -0.0594 -0.0468 -0.0642
58238SOL     OW79524   5.191  11.928   5.415 -0.0793 -0.0150  0.6347
58238SOL    HW179525   5.232  11.984   5.349  0.6188 -1.6930 -0.4122
58238SOL    HW279526   5.150  11.858   5.365 -1.5582 -0.0904  1.8698
58239SOL     OW79527   7.740   9.619  11.473 -0.5607 -0.3033  0.0727
58239SOL    HW179528   7.717   9.697  11.523 -0.3210 -0.7221  0.8541
58239SOL    HW279529   7.657   9.586  11.439 -0.5992  0.6183 -0.7759
58240SOL     OW79530   1.254  11.218   3.091  0.1526 -0.1796  0.1705
58240SOL    HW179531   1.330  11.271   3.115  1.3099 -1.2522 -0.9503
58240SOL    HW279532   1.200  11.216   3.170  0.2571  2.2836  0.3815
58241SOL     OW79533  10.479   4.911   5.532 -0.1789  0.0876 -0.3203
58241SOL    HW179534  10.491   4.919   5.437 -0.3518 -3.5726 -0.8041
58241SOL    HW279535  10.560   4.869   5.562 -0.5380  0.3125  0.9823
58242SOL     OW79536  11.388   2.553   5.037 -0.1532 -0.4758  0.2047
58242SOL    HW179537  11.424   2.525   4.953  1.6083 -0.0091  0.7465
58242SOL    HW279538  11.303   2.592   5.016 -0.7509 -2.3221 -1.0731
58243SOL     OW79539   7.595   2.986   4.190  0.4246  0.1355 -0.3716
58243SOL    HW179540   7.574   2.902   4.150  2.8824 -0.0433 -1.4707
58243SOL    HW279541   7.605   2.967   4.283  0.6141 -0.7420 -0.5618
58244SOL     OW79542  11.980   3.238   8.153  0.2456 -0.1408 -0.5482
58244SOL    HW179543  11.989   3.187   8.233 -2.3400  1.0283  0.5894
58244SOL    HW279544  12.041   3.197   8.091  1.2970 -1.9347  1.5635
58245SOL     OW79545   3.498   6.393   7.386 -0.2950 -0.7541  0.0409
58245SOL    HW179546   3.429   6.431   7.331 -1.6071 -0.2550  1.9254
58245SOL    HW279547   3.461   6.311   7.419  1.4450 -2.3808 -1.7254
58246SOL     OW79548   6.300   7.476  10.455 -0.0973  0.3527  0.1387
58246SOL    HW179549   6.339   7.508  10.537  3.2844 -1.8096 -0.4434
58246SOL    HW279550   6.266   7.555  10.413  0.9985  2.0114  2.1547
58247SOL     OW79551  11.526   3.161   6.080 -0.0202 -0.7521  0.5859
58247SOL    HW179552  11.490   3.216   6.150 -0.2803 -2.4473  1.8294
58247SOL    HW279553  11.621   3.168   6.091 -0.0356 -0.1768  0.4121
58248SOL     OW79554   8.953   1.667   3.777 -0.1475 -0.3729  0.1956
58248SOL    HW179555   9.035   1.710   3.755  0.0922 -0.8796  0.0887
58248SOL    HW279556   8.978   1.595   3.835 -0.3201 -1.5376 -1.1356
58249SOL     OW79557   1.559   0.651   2.717  0.7623  0.2618  0.1862
58249SOL    HW179558   1.514   0.721   2.670 -0.0937  0.2844  0.9954
58249SOL    HW279559   1.604   0.601   2.649 -0.1805  0.4776 -0.6262
58250SOL     OW79560   4.844  12.104  11.848  0.2681 -0.1402  0.3557
58250SOL    HW179561   4.919  12.150  11.887 -0.5116  0.1552  1.5735
58250SOL    HW279562   4.836  12.024  11.900 -0.2724 -0.1637  0.2382
58251SOL     OW79563   1.749   8.213  11.147  0.3548  0.2761  0.2986
58251SOL    HW179564   1.818   8.267  11.108  0.0631  0.0776 -0.5173
58251SOL    HW279565   1.687   8.198  11.075  0.5906 -1.4180  0.4117
58252SOL     OW79566   8.424   3.876   0.799 -0.3000  0.4288 -0.0187
58252SOL    HW179567   8.408   3.784   0.820  2.4299 -0.3585 -0.8839
58252SOL    HW279568   8.482   3.907   0.870 -0.1501  1.0748 -0.4141
58253SOL     OW79569   9.715   1.043  10.416  0.0212  0.0118  0.6055
58253SOL    HW179570   9.734   0.963  10.367 -1.6580 -0.5794  0.8476
58253SOL    HW279571   9.742   1.024  10.505  2.1941  0.7504  0.1702
58254SOL     OW79572   9.693   1.640   3.273  0.4410 -0.9003 -0.4158
58254SOL    HW179573   9.663   1.571   3.332 -2.0845  0.3755 -0.0567
58254SOL    HW279574   9.751   1.595   3.212  0.6938 -2.8733  1.1444
58255SOL     OW79575   9.458  12.361  11.107 -0.0216 -0.3345  0.0164
58255SOL    HW179576   9.498  12.441  11.072  1.7621 -0.7547  0.9368
58255SOL    HW279577   9.443  12.381  11.199  2.5291 -1.7115  0.8275
58256SOL     OW79578   5.690   7.937   2.928 -0.2180 -0.7396  0.0483
58256SOL    HW179579   5.605   7.914   2.889 -0.2208 -0.4406 -0.1231
58256SOL    HW279580   5.715   8.018   2.884  0.1108 -0.7745  0.1726
58257SOL     OW79581  10.207   9.576   4.783 -0.0032 -0.1233  0.2802
58257SOL    HW179582  10.129   9.561   4.837 -0.8294  0.0711 -0.8230
58257SOL    HW279583  10.219   9.671   4.783 -0.4135 -0.0615 -0.4041
58258SOL     OW79584   2.401   6.959   6.914 -0.0171 -0.4976  0.5007
58258SOL    HW179585   2.338   7.027   6.891  1.8086  1.4593  0.9248
58258SOL    HW279586   2.401   6.958   7.010  1.5678  0.5626  0.5455
58259SOL     OW79587   3.795   9.384   1.152  1.0579 -0.8989  1.0937
58259SOL    HW179588   3.880   9.342   1.142  0.6834 -1.2140 -1.2716
58259SOL    HW279589   3.812   9.477   1.136  0.6251 -1.2782 -2.2310
58260SOL     OW79590  11.130   0.343  11.017  0.1884  0.2799  0.0306
58260SOL    HW179591  11.164   0.292  11.090  1.9749 -1.9813 -2.2338
58260SOL    HW279592  11.036   0.353  11.036  0.7738  0.8761  3.1555
58261SOL     OW79593   7.373   4.795   4.470 -0.0673 -0.6015 -0.0714
58261SOL    HW179594   7.333   4.708   4.468 -0.8012 -0.2498 -0.8725
58261SOL    HW279595   7.467   4.777   4.480 -0.2199 -1.4753 -0.0948
58262SOL     OW79596   9.315   4.708   5.581 -0.2995 -0.8407  0.4708
58262SOL    HW179597   9.306   4.748   5.667 -0.9747  1.4241 -0.5892
58262SOL    HW279598   9.259   4.760   5.524  1.1455 -1.4518 -1.6164
58263SOL     OW79599   0.013   1.147  10.410  0.0287 -0.4793  0.5322
58263SOL    HW179600   0.003   1.124  10.503 -0.2335  0.5261  0.7677
58263SOL    HW279601  -0.050   1.219  10.397 -1.4435 -1.9529 -0.9326
58264SOL     OW79602   5.772   1.306   4.040 -0.5316  0.3223  0.4520
58264SOL    HW179603   5.769   1.328   3.947 -1.2437  0.3554  0.4815
58264SOL    HW279604   5.864   1.282   4.056 -0.6926 -1.0405 -0.5611
58265SOL     OW79605   8.820   0.754   1.199  0.2707  0.3340  0.3145
58265SOL    HW179606   8.788   0.808   1.271 -1.5158  3.3371 -2.4766
58265SOL    HW279607   8.908   0.786   1.180 -0.6236  2.1400 -1.0544
58266SOL     OW79608  10.177   3.005  11.892  0.0340  0.7601 -0.1414
58266SOL    HW179609  10.092   2.962  11.891  0.5813 -0.4750 -2.9978
58266SOL    HW279610  10.236   2.942  11.934 -0.1336  0.9826  0.4454
58267SOL     OW79611   9.758   7.058   8.694 -0.2774  0.1377  0.0837
58267SOL    HW179612   9.765   6.964   8.705  0.9668  0.2015 -0.0577
58267SOL    HW279613   9.664   7.074   8.679 -0.4120 -1.1387 -0.5318
58268SOL     OW79614  11.411   4.077   9.517  0.1732  0.2090 -0.0131
58268SOL    HW179615  11.443   4.144   9.457  0.7243  2.7401  2.8480
58268SOL    HW279616  11.482   4.065   9.580 -0.8385 -1.3495  0.8973
58269SOL     OW79617  11.147   4.045   4.630  0.3900  0.3708  0.1779
58269SOL    HW179618  11.217   3.987   4.659  0.4876  1.0245  1.3275
58269SOL    HW279619  11.091   3.990   4.576  0.7682 -0.6560  0.8022
58270SOL     OW79620   4.672   4.838   1.183  0.1860 -0.0428 -0.6713
58270SOL    HW179621   4.643   4.907   1.242 -0.2871 -1.3569  0.7025
58270SOL    HW279622   4.765   4.855   1.169  0.1450  0.6948 -0.1159
58271SOL     OW79623   2.566   5.612   9.513  0.2198  0.6493 -0.3613
58271SOL    HW179624   2.506   5.685   9.495  1.6807  1.8656 -0.4660
58271SOL    HW279625   2.510   5.534   9.512 -1.6322  1.8691  1.0753
58272SOL     OW79626  10.679   4.295   1.110  0.6273  0.4038  0.3653
58272SOL    HW179627  10.768   4.315   1.081  0.5597 -0.7289 -0.6887
58272SOL    HW279628  10.624   4.361   1.066  0.7977  0.2145 -0.1369
58273SOL     OW79629   1.417   3.428   2.219 -0.0207  0.5855  0.1936
58273SOL    HW179630   1.440   3.521   2.220  1.1231  0.3335 -0.6366
58273SOL    HW279631   1.500   3.383   2.234  0.0271 -0.3568 -2.3552
58274SOL     OW79632   2.220   5.144   4.092  0.2659  0.3050 -0.1466
58274SOL    HW179633   2.289   5.081   4.111 -0.1307 -0.2367 -0.4754
58274SOL    HW279634   2.156   5.095   4.040  0.0862  1.0499 -0.6555
58275SOL     OW79635   9.354   4.464   0.276  0.3321  0.1991  0.3103
58275SOL    HW179636   9.304   4.518   0.336 -1.6312  0.7304 -1.6971
58275SOL    HW279637   9.435   4.513   0.262 -0.7147  1.8444 -0.2245
58276SOL     OW79638   2.580   5.253   8.140  0.3141  0.3842  0.1575
58276SOL    HW179639   2.645   5.204   8.189 -0.2749 -1.3328 -0.7016
58276SOL    HW279640   2.565   5.333   8.191  1.2819 -0.3397  1.6056
58277SOL     OW79641   6.252   4.469   1.056  0.4575  0.3556  0.4130
58277SOL    HW179642   6.280   4.554   1.021 -1.6896  0.6577 -0.7161
58277SOL    HW279643   6.231   4.488   1.148  2.6804  0.3552  0.9890
58278SOL     OW79644  10.265   2.508  10.813  0.7613 -0.1228 -0.4256
58278SOL    HW179645  10.353   2.473  10.799  0.8613  0.3384 -0.9877
58278SOL    HW279646  10.263   2.588  10.761  0.1498  0.0946 -0.0731
58279SOL     OW79647  10.826   6.596  10.648  0.3000  0.6012  0.0877
58279SOL    HW179648  10.881   6.518  10.647  0.9025  0.9659 -2.5059
58279SOL    HW279649  10.774   6.588  10.728  1.4709 -1.6331  0.7038
58280SOL     OW79650   4.321   2.877   8.005 -0.2488  0.1404  0.1093
58280SOL    HW179651   4.404   2.920   8.026  0.4034 -0.7176 -0.6561
58280SOL    HW279652   4.344   2.806   7.945 -1.6339  0.4117 -0.8066
58281SOL     OW79653   5.683   1.895   1.290 -0.2047 -0.3255 -0.3961
58281SOL    HW179654   5.706   1.826   1.353 -1.1328 -1.3656 -1.1629
58281SOL    HW279655   5.667   1.972   1.345  3.5775  0.1567  0.3222
58282SOL     OW79656   0.949  12.236  11.861 -0.1655 -0.1367 -0.2016
58282SOL    HW179657   0.990  12.322  11.861 -3.1759  1.3940 -0.2751
58282SOL    HW279658   0.937  12.215  11.953  1.0134 -0.7805 -0.1665
58283SOL     OW79659   7.003   1.090  11.237  0.0888 -0.4153  0.0081
58283SOL    HW179660   6.945   1.065  11.164 -0.1280 -0.4497  0.1912
58283SOL    HW279661   6.990   1.022  11.302  1.1392 -1.0028 -0.3758
58284SOL     OW79662   8.204   1.463   3.893 -0.4585 -0.6779 -0.1543
58284SOL    HW179663   8.155   1.384   3.920 -0.8841 -0.5666 -0.5931
58284SOL    HW279664   8.271   1.430   3.833  0.5964 -0.9497  1.1279
58285SOL     OW79665  11.970  10.936   8.225  0.2810 -0.0078 -0.7588
58285SOL    HW179666  11.954  10.984   8.144 -0.1279  0.4850 -0.3990
58285SOL    HW279667  12.035  10.988   8.272  1.4895 -0.9701 -1.3329
58286SOL     OW79668   9.998  11.139  10.595 -0.1072  0.0859  0.5189
58286SOL    HW179669  10.044  11.142  10.511 -0.0901  0.1158  0.5296
58286SOL    HW279670   9.950  11.057  10.593  1.3298 -0.8019  1.2304
58287SOL     OW79671   0.583   1.726   7.543 -0.1930  0.1635  0.3012
58287SOL    HW179672   0.653   1.664   7.567 -0.3077 -0.1452 -0.1512
58287SOL    HW279673   0.511   1.704   7.603 -0.1605 -0.0071  0.2800
58288SOL     OW79674   3.023   6.868   0.635  0.6413  0.0321  0.0917
58288SOL    HW179675   2.958   6.925   0.594 -0.1654  0.0366  1.3425
58288SOL    HW279676   2.982   6.782   0.636  1.7785 -0.5934 -1.6189
58289SOL     OW79677   9.269   6.070   5.293 -0.0524 -0.6688  0.5240
58289SOL    HW179678   9.265   6.084   5.198  0.6178  1.2544  0.7436
58289SOL    HW279679   9.262   5.975   5.303  2.9022 -1.2814 -1.6603
58290SOL     OW79680   2.746   8.651   7.348  0.3646 -0.1960 -0.4109
58290SOL    HW179681   2.722   8.632   7.257  1.6606  0.9871 -1.0417
58290SOL    HW279682   2.663   8.670   7.392 -0.2588 -0.5940 -1.3908
58291SOL     OW79683   5.331   0.497   1.751 -0.1738  0.1136  1.4248
58291SOL    HW179684   5.300   0.413   1.784 -0.0198  0.3478  2.1858
58291SOL    HW279685   5.333   0.554   1.828 -0.4111  0.8555  0.8923
58292SOL     OW79686  11.117   6.324   7.756 -0.0612 -0.0738 -0.6465
58292SOL    HW179687  11.166   6.287   7.684  2.2214 -1.3706  1.4226
58292SOL    HW279688  11.115   6.418   7.738  1.2817 -0.2581 -1.9046
58293SOL     OW79689   6.669   7.966  10.709 -0.1761 -0.5506  0.4254
58293SOL    HW179690   6.600   7.911  10.746 -0.3540 -0.8486 -0.3446
58293SOL    HW279691   6.745   7.907  10.701  0.0933 -0.2955  1.0078
58294SOL     OW79692   4.945   1.569   3.157 -0.7237  0.0797  0.6103
58294SOL    HW179693   4.976   1.515   3.084 -0.0090  1.1406  0.0976
58294SOL    HW279694   4.992   1.652   3.146  0.2499 -0.0892  2.8996
58295SOL     OW79695   6.502   8.718  10.845  0.0969 -0.1453 -0.4208
58295SOL    HW179696   6.528   8.627  10.858 -0.4184 -0.0918  1.2338
58295SOL    HW279697   6.431   8.732  10.907  0.1398  1.3805 -0.6662
58296SOL     OW79698   6.392   2.064   1.708 -0.1916  0.0998  0.7927
58296SOL    HW179699   6.401   1.980   1.753  0.3505 -0.2925 -0.0319
58296SOL    HW279700   6.363   2.125   1.776  2.1868 -0.0956  2.0845
58297SOL     OW79701   6.608  10.321   4.456  0.2713  0.2520  0.4932
58297SOL    HW179702   6.645  10.398   4.412  0.1899  1.4847  2.4346
58297SOL    HW279703   6.513  10.335   4.452  0.2410  0.0331  0.4631
58298SOL     OW79704  12.012   5.849   0.021 -0.0341  0.3224  0.3330
58298SOL    HW179705  11.924   5.850  -0.015  0.4451 -1.2730 -1.0223
58298SOL    HW279706  12.005   5.797   0.101 -0.0253 -1.6603 -0.8639
58299SOL     OW79707   8.888   2.646   1.488 -0.1694 -0.2405 -0.2532
58299SOL    HW179708   8.799   2.674   1.512 -0.4563 -0.7594 -0.6874
58299SOL    HW279709   8.945   2.694   1.547 -0.5227  2.3415 -1.8760
58300SOL     OW79710   5.767  10.568  12.298  0.4067  0.0050 -0.1140
58300SOL    HW179711   5.841  10.566  12.359  0.9751 -4.0829 -0.6759
58300SOL    HW279712   5.690  10.565  12.355  0.7892  0.1050  0.4236
58301SOL     OW79713   2.136  10.145   9.730  0.4391 -0.1434  0.8739
58301SOL    HW179714   2.158  10.103   9.647 -0.5740 -1.4620  1.2307
58301SOL    HW279715   2.153  10.078   9.796 -2.6513 -0.6333  1.3366
58302SOL     OW79716   4.595   9.491   1.219 -0.7915 -0.1937  0.2179
58302SOL    HW179717   4.563   9.527   1.302  2.0064  0.7611  0.9964
58302SOL    HW279718   4.601   9.567   1.161  0.9282 -0.0881  0.4600
58303SOL     OW79719  10.621  12.052   9.242  0.0410 -0.0866 -0.2256
58303SOL    HW179720  10.679  12.007   9.181  0.3905  1.2745 -0.9279
58303SOL    HW279721  10.645  12.144   9.236  0.4547  0.0514  2.3981
58304SOL     OW79722   2.261   9.823   3.559 -0.1939  0.5423  0.7953
58304SOL    HW179723   2.210   9.770   3.498  0.3256  0.9869 -0.0389
58304SOL    HW279724   2.226   9.801   3.645  1.2901 -2.6664  0.7172
58305SOL     OW79725   0.497   6.669   7.092  0.3491  0.0382  0.7639
58305SOL    HW179726   0.505   6.603   7.023  1.1192  0.3139  0.5783
58305SOL    HW279727   0.470   6.748   7.045  1.9692  0.5156  0.6011
58306SOL     OW79728   1.112   7.707  11.851  0.3842 -0.0422 -0.6429
58306SOL    HW179729   1.070   7.751  11.925  0.0397 -1.3674 -0.0182
58306SOL    HW279730   1.150   7.778  11.799  0.8678  0.9128  0.9392
58307SOL     OW79731   9.114   8.117   3.835 -0.3907 -0.1970  0.3551
58307SOL    HW179732   9.166   8.096   3.912 -0.2423 -0.7531  0.1108
58307SOL    HW279733   9.086   8.208   3.848 -0.6429 -0.3883  1.2202
58308SOL     OW79734   9.786   5.040  11.001 -0.1935  0.0725 -0.3196
58308SOL    HW179735   9.874   5.002  10.995  0.0141  0.5318 -0.2713
58308SOL    HW279736   9.749   5.027  10.913  0.1171  0.3257 -0.4930
58309SOL     OW79737  10.208   2.629  12.178  0.0405 -0.1080  0.3248
58309SOL    HW179738  10.262   2.662  12.249  1.5928  1.9337 -1.6693
58309SOL    HW279739  10.236   2.538  12.166  0.5144 -0.1428  1.5916
58310SOL     OW79740   5.489  10.401   0.398  0.1298  0.5127  0.0771
58310SOL    HW179741   5.467  10.464   0.468  0.0751 -0.1280  0.6407
58310SOL    HW279742   5.474  10.450   0.317 -0.3708  1.0843  0.5038
58311SOL     OW79743  11.802   6.169   7.894  0.1181  0.7757  0.0408
58311SOL    HW179744  11.876   6.119   7.927  1.2170  2.5844  0.4499
58311SOL    HW279745  11.746   6.182   7.971 -0.1751  0.1791 -0.0689
58312SOL     OW79746   6.885   6.926   7.353 -0.1413 -0.0831 -0.1749
58312SOL    HW179747   6.966   6.885   7.385 -2.2070 -3.2465  1.5449
58312SOL    HW279748   6.864   6.877   7.274  0.0872  1.4416 -1.2183
58313SOL     OW79749   5.301   2.341   7.673  0.6140  0.2594  0.0824
58313SOL    HW179750   5.237   2.320   7.741  0.6211  0.1081  0.0437
58313SOL    HW279751   5.249   2.358   7.595  0.6573 -0.8285 -0.2012
58314SOL     OW79752  11.003   4.889   4.528  0.5497  0.3716 -0.2705
58314SOL    HW179753  11.091   4.882   4.564  0.5877 -0.1444 -0.4517
58314SOL    HW279754  10.945   4.878   4.603  0.6421  0.7961 -0.1381
58315SOL     OW79755   4.565   7.769   5.423 -0.1258  0.1876  0.0686
58315SOL    HW179756   4.529   7.845   5.470 -1.7609  0.7560 -1.9453
58315SOL    HW279757   4.567   7.700   5.489  0.5939  1.7121  1.7523
58316SOL     OW79758   5.011   1.946  10.893 -0.6603 -0.4206 -0.1420
58316SOL    HW179759   4.960   2.021  10.865  0.7818  0.9612  0.7871
58316SOL    HW279760   4.964   1.912  10.969 -0.4103  0.6139  0.4890
58317SOL     OW79761   8.101   8.584   1.095 -0.6420 -0.8625 -0.2097
58317SOL    HW179762   8.060   8.500   1.115  1.0057 -1.8618 -0.8784
58317SOL    HW279763   8.122   8.579   1.002 -3.7894  1.7900 -1.2917
58318SOL     OW79764   0.769   9.075   4.612 -0.6711 -0.2797 -0.1480
58318SOL    HW179765   0.788   9.164   4.582 -2.1412  0.0138 -0.2945
58318SOL    HW279766   0.729   9.086   4.698 -0.1017 -0.8659  0.2046
58319SOL     OW79767   5.309   2.379   6.840  0.2910  0.2656  0.4646
58319SOL    HW179768   5.305   2.290   6.806  0.5427  0.1328  0.7773
58319SOL    HW279769   5.400   2.391   6.866  0.2119  0.5348  0.6271
58320SOL     OW79770  10.288   0.920  11.174 -0.1556 -0.4512 -0.2425
58320SOL    HW179771  10.372   0.926  11.220 -0.1637 -0.2766 -0.2481
58320SOL    HW279772  10.308   0.949  11.085  0.3561 -2.9193 -1.0033
58321SOL     OW79773   3.703   5.114   6.396 -0.0445  0.2015  0.2506
58321SOL    HW179774   3.734   5.199   6.427 -0.1791 -0.0717  1.1652
58321SOL    HW279775   3.718   5.055   6.470  1.1022 -0.8282 -0.7449
58322SOL     OW79776   5.328   3.330   6.775 -0.1680  0.0722  0.0311
58322SOL    HW179777   5.245   3.377   6.789 -0.6753 -0.7964 -0.0033
58322SOL    HW279778   5.318   3.248   6.823  1.0990  0.3958  0.9056
58323SOL     OW79779   8.099   1.517   5.026  0.8772 -0.1421  0.7017
58323SOL    HW179780   8.024   1.468   5.060  0.8420  0.0622  0.9188
58323SOL    HW279781   8.169   1.502   5.090  1.2404 -0.9078  0.1434
58324SOL     OW79782   6.044   8.176   0.774 -0.2224 -0.6167 -0.2044
58324SOL    HW179783   5.960   8.219   0.757  0.9760  1.2941 -1.8070
58324SOL    HW279784   6.077   8.153   0.687  1.3637 -0.3906  0.3076
58325SOL     OW79785   9.022   9.793   0.297 -0.0115 -0.1086 -0.3003
58325SOL    HW179786   9.077   9.871   0.284  0.3065 -0.3302 -0.3034
58325SOL    HW279787   9.044   9.737   0.222  0.2816 -0.5015  0.0776
58326SOL     OW79788   3.152   7.177   2.749  0.2400 -0.1670  0.5062
58326SOL    HW179789   3.166   7.253   2.693  1.6859 -0.7392  0.0669
58326SOL    HW279790   3.084   7.127   2.704  0.7181 -0.1480 -0.2465
58327SOL     OW79791   8.754   7.737   6.258  0.4250  0.3443  0.5061
58327SOL    HW179792   8.756   7.783   6.342  0.1706  1.2073  0.0472
58327SOL    HW279793   8.757   7.806   6.192  2.9662 -0.3818 -0.2547
58328SOL     OW79794   0.764   7.316  10.292 -0.1013 -0.1090 -0.2139
58328SOL    HW179795   0.819   7.288  10.219 -0.8520 -2.1166 -0.0937
58328SOL    HW279796   0.823   7.320  10.367  0.4378  0.7712 -0.6675
58329SOL     OW79797   3.798   0.519   4.344 -0.0279 -0.3348  0.1587
58329SOL    HW179798   3.857   0.588   4.314  0.1291 -0.2433  0.6779
58329SOL    HW279799   3.716   0.564   4.365  0.8109  0.1004  2.8347
58330SOL     OW79800   4.708   5.994   9.248 -0.5047 -0.4647 -0.3502
58330SOL    HW179801   4.796   5.998   9.209  0.4635  0.1829  1.7584
58330SOL    HW279802   4.653   6.042   9.188  0.5816 -0.8663 -1.7238
58331SOL     OW79803  12.228   5.774  10.660 -0.3599 -0.1552  0.2079
58331SOL    HW179804  12.225   5.693  10.711 -2.0878  0.5737  1.3293
58331SOL    HW279805  12.148   5.772  10.607 -0.0166  0.4574 -0.3481
58332SOL     OW79806   4.960   5.123   8.853  0.2380 -0.0472  0.0432
58332SOL    HW179807   5.028   5.187   8.874 -0.7535  0.9990  0.1198
58332SOL    HW279808   4.886   5.175   8.823 -1.6356 -0.9412  2.7883
58333SOL     OW79809   0.459  10.677   7.674 -0.4614  0.4193  0.1540
58333SOL    HW179810   0.511  10.727   7.737  0.5218  0.3356 -0.5644
58333SOL    HW279811   0.524  10.637   7.616 -1.2708 -0.8647  0.0944
58334SOL     OW79812   2.141   7.105   7.253  0.3029 -0.5083  0.5701
58334SOL    HW179813   2.091   7.125   7.332  0.8963 -0.4248  0.9362
58334SOL    HW279814   2.172   7.190   7.221 -2.0965 -0.2231 -1.2732
58335SOL     OW79815   9.436   3.604  11.765  0.0217  0.0633 -0.0888
58335SOL    HW179816   9.362   3.605  11.705 -0.4797 -0.3207  0.5049
58335SOL    HW279817   9.466   3.513  11.765 -1.0684 -0.3413  1.5142
58336SOL     OW79818  12.551   1.172   3.940  0.1306 -0.1187 -0.5298
58336SOL    HW179819  12.619   1.141   3.879 -1.2496 -0.3839 -1.9877
58336SOL    HW279820  12.497   1.094   3.957 -1.1868  0.6000 -1.2769
58337SOL     OW79821   0.111   9.118   7.036 -0.4598 -0.2697 -0.4917
58337SOL    HW179822   0.086   9.204   7.070  0.1503 -0.8015  1.4125
58337SOL    HW279823   0.075   9.116   6.947 -2.0883  1.2251  0.0756
58338SOL     OW79824   0.659   9.816   5.521 -0.0430  0.5313  0.2725
58338SOL    HW179825   0.717   9.832   5.596 -1.8329  0.3272  1.7650
58338SOL    HW279826   0.601   9.892   5.519  0.4146  0.8746 -1.3799
58339SOL     OW79827   2.802  11.946   8.636  0.0573  0.3107 -0.1277
58339SOL    HW179828   2.872  11.980   8.692 -0.5228  0.9939  0.1963
58339SOL    HW279829   2.738  11.909   8.696  0.5000 -1.0500 -0.4631
58340SOL     OW79830   1.258   5.442   1.624  0.1761 -0.1087 -0.1293
58340SOL    HW179831   1.230   5.440   1.532 -0.2406  0.9558 -0.0438
58340SOL    HW279832   1.234   5.530   1.654 -1.1805 -0.9552  1.4631
58341SOL     OW79833   4.266  11.758  12.541  0.0728 -0.0920  0.2918
58341SOL    HW179834   4.218  11.771  12.623  1.2679 -0.1095  1.0085
58341SOL    HW279835   4.317  11.838  12.529  1.5900 -0.9431  0.7349
58342SOL     OW79836   7.229  11.818  11.587 -0.0942 -0.0419  0.2111
58342SOL    HW179837   7.302  11.856  11.636  0.4044 -0.9801  0.2140
58342SOL    HW279838   7.206  11.739  11.635  0.4484 -1.0144 -1.0728
58343SOL     OW79839  11.646   6.792   7.917 -0.4302  0.1701 -0.3625
58343SOL    HW179840  11.665   6.796   8.011 -2.5644 -0.1887  0.1338
58343SOL    HW279841  11.602   6.708   7.905  2.6165 -1.3238 -2.3056
58344SOL     OW79842   9.768   9.078   0.942 -0.1923 -0.5859 -0.6035
58344SOL    HW179843   9.677   9.051   0.948 -0.1336 -0.5747  0.3522
58344SOL    HW279844   9.818   8.998   0.961 -0.0114 -0.2406  0.4067
58345SOL     OW79845   2.151   6.406   6.569 -0.0747  0.4158  0.5325
58345SOL    HW179846   2.167   6.339   6.636  0.0873  0.4728  0.5513
58345SOL    HW279847   2.145   6.488   6.618 -1.0447  0.3185  0.5919
58346SOL     OW79848   3.917  11.167  10.770  0.3323 -0.1118  0.5666
58346SOL    HW179849   3.982  11.225  10.731  0.2306 -1.7675 -2.2832
58346SOL    HW279850   3.958  11.080  10.769 -1.6178 -1.0841 -0.6622
58347SOL     OW79851  11.895   4.126   1.613  0.3038  0.3344  0.9196
58347SOL    HW179852  11.933   4.182   1.545  0.4157  0.2104  0.8800
58347SOL    HW279853  11.955   4.134   1.687 -1.3687  2.8927  2.1367
58348SOL     OW79854   0.290   2.416  11.067 -0.1680 -0.0855  0.3062
58348SOL    HW179855   0.266   2.438  11.157 -0.2517  0.0902  0.2401
58348SOL    HW279856   0.298   2.320  11.068 -0.0353 -0.0729  0.5337
58349SOL     OW79857  10.560   1.725   2.836 -0.1649 -0.3398  0.3434
58349SOL    HW179858  10.568   1.663   2.909  1.4086  0.3977  0.8489
58349SOL    HW279859  10.539   1.808   2.878 -1.7868 -0.3916 -0.2932
58350SOL     OW79860   0.156   6.502   0.226  0.5566  0.4440  0.3243
58350SOL    HW179861   0.227   6.566   0.223  0.7394  0.2122 -1.6699
58350SOL    HW279862   0.180   6.437   0.161 -0.9446 -0.2330  0.4110
58351SOL     OW79863  12.239   0.507   2.201  0.9061 -0.7250 -0.7985
58351SOL    HW179864  12.145   0.499   2.188  0.2561 -0.5384  2.7428
58351SOL    HW279865  12.268   0.418   2.224  1.2399 -0.4831 -0.2465
58352SOL     OW79866  12.614   4.429   6.193 -0.3562 -0.0202 -0.6364
58352SOL    HW179867  12.659   4.368   6.251 -0.5489  1.0122  0.6466
58352SOL    HW279868  12.684   4.478   6.150 -0.2127 -0.7337 -1.2198
58353SOL     OW79869   4.815   9.773   1.051  0.1996  0.5706  0.2872
58353SOL    HW179870   4.757   9.813   0.987  1.0347  1.4257  0.0433
58353SOL    HW279871   4.844   9.691   1.010 -0.3417  0.4413  0.1594
58354SOL     OW79872  11.028   6.789   8.522 -0.3386 -0.4915  0.1042
58354SOL    HW179873  11.000   6.876   8.492 -0.1082  0.4618  2.4518
58354SOL    HW279874  11.124   6.792   8.516 -0.3764 -1.2921 -1.5055
58355SOL     OW79875   5.501   1.143   8.905  0.4687 -0.1760 -0.3831
58355SOL    HW179876   5.423   1.199   8.909 -0.2555 -1.2283  1.8812
58355SOL    HW279877   5.568   1.199   8.866 -1.0035  1.2764 -0.9738
58356SOL     OW79878   1.738   5.566   3.930 -0.5418  0.3950  0.6145
58356SOL    HW179879   1.762   5.484   3.973 -0.2503  0.2206  0.1252
58356SOL    HW279880   1.764   5.554   3.838 -0.0882  1.1945  0.6256
58357SOL     OW79881  10.235   9.445   0.690 -0.2329  0.3418 -0.4583
58357SOL    HW179882  10.237   9.519   0.629 -0.3081 -0.1135 -1.0278
58357SOL    HW279883  10.173   9.384   0.651 -0.2408  0.0188  0.0553
58358SOL     OW79884   5.275   3.082   4.230 -0.4367  0.1268  0.3279
58358SOL    HW179885   5.363   3.098   4.263 -0.1091 -1.5585  0.3552
58358SOL    HW279886   5.280   3.103   4.136 -0.3286  1.1229  0.5473
58359SOL     OW79887   2.977   6.171  11.392 -0.0054 -0.3188 -0.0137
58359SOL    HW179888   2.885   6.176  11.415  0.3025  2.3956  0.9430
58359SOL    HW279889   2.984   6.220  11.310  0.6964  0.1138  0.2963
58360SOL     OW79890   8.328   4.396  12.134 -0.7714  0.4820  0.1996
58360SOL    HW179891   8.276   4.352  12.067  0.1884  0.9143 -0.8709
58360SOL    HW279892   8.401   4.336  12.152 -0.3248  0.9251 -0.1004
58361SOL     OW79893   2.293   1.234  11.212 -0.0346 -0.0207 -0.1233
58361SOL    HW179894   2.306   1.215  11.119  1.4888  0.1322  0.0338
58361SOL    HW279895   2.351   1.308  11.230 -0.1065 -0.2156  1.0070
58362SOL     OW79896   5.183   7.956   9.157 -0.3159  0.1501 -0.4738
58362SOL    HW179897   5.103   7.911   9.186  0.3023 -1.3192 -0.9446
58362SOL    HW279898   5.176   8.044   9.193  0.1207 -1.2984  3.6482
58363SOL     OW79899   6.903   5.935   7.682 -0.2581  0.1811  0.4594
58363SOL    HW179900   6.809   5.919   7.693 -0.3412  1.1116  1.1915
58363SOL    HW279901   6.911   6.030   7.678  0.6049  0.0963 -0.1064
58364SOL     OW79902   7.470   4.177   1.194  0.2698  0.1484  0.4728
58364SOL    HW179903   7.436   4.089   1.209  1.2969 -0.6960 -1.7363
58364SOL    HW279904   7.423   4.208   1.117  1.8894  0.3731 -0.4761
58365SOL     OW79905   4.078   9.377   3.900 -0.1680  0.7639  0.2202
58365SOL    HW179906   3.998   9.334   3.870 -0.6898  0.3629  2.0519
58365SOL    HW279907   4.148   9.318   3.872 -0.6202  0.3945 -0.1693
58366SOL     OW79908   2.070   4.292   9.675  0.6871  0.6592 -0.1530
58366SOL    HW179909   2.139   4.322   9.616  0.8742  1.9281  0.6714
58366SOL    HW279910   1.989   4.326   9.636  0.5720 -0.2783 -0.7701
58367SOL     OW79911  11.372   2.132  11.003  0.0531  0.2219  0.1700
58367SOL    HW179912  11.288   2.118  10.959  0.3847 -0.0079 -0.3936
58367SOL    HW279913  11.398   2.046  11.034 -0.7413  0.5565  1.8692
58368SOL     OW79914   9.761  11.373   8.182  0.2906  0.8248 -0.3288
58368SOL    HW179915   9.782  11.348   8.092 -0.6715  0.6891 -0.5277
58368SOL    HW279916   9.786  11.297   8.235 -0.5688  0.3031 -0.6661
58369SOL     OW79917   5.311   2.103   6.223  0.4474  0.4639 -0.0299
58369SOL    HW179918   5.320   2.180   6.167 -0.6615  0.4032 -0.3241
58369SOL    HW279919   5.341   2.030   6.168  0.8280  0.5957  0.0016
58370SOL     OW79920   3.913   2.595   9.942  0.7441  0.8104  0.7199
58370SOL    HW179921   3.990   2.598   9.886  0.2994  3.2101  0.1330
58370SOL    HW279922   3.860   2.524   9.907  0.6022  2.0682 -1.8168
58371SOL     OW79923  11.299   6.206   0.051 -0.3630 -0.0461  0.2337
58371SOL    HW179924  11.263   6.153  -0.020  0.0080 -0.6535  0.4881
58371SOL    HW279925  11.223   6.226   0.106 -0.3303 -1.3132  0.7631
58372SOL     OW79926   0.123   3.911   4.854 -0.5913  0.0567 -0.4160
58372SOL    HW179927   0.182   3.929   4.781 -0.4391 -0.5215 -0.4393
58372SOL    HW279928   0.122   3.816   4.861  2.4190  0.0405  2.7537
58373SOL     OW79929   9.150   5.692  10.115  0.5482  0.0838 -0.2542
58373SOL    HW179930   9.234   5.652  10.135  0.9715  0.5029 -1.1439
58373SOL    HW279931   9.107   5.630  10.057  0.7125  0.3760 -0.6917
58374SOL     OW79932   9.831  12.461   0.988  0.1797 -0.3580  0.0661
58374SOL    HW179933   9.735  12.452   0.988  0.2067 -0.6734 -0.5541
58374SOL    HW279934   9.846  12.555   0.985 -0.1186 -0.3322 -0.9778
58375SOL     OW79935   9.585  11.080   2.625 -0.1558 -0.2414  0.0443
58375SOL    HW179936   9.678  11.091   2.605  0.0676 -0.7129  0.7785
58375SOL    HW279937   9.567  11.144   2.693 -0.3535 -0.2040 -0.0421
58376SOL     OW79938   4.591  11.867   9.405  0.3902 -0.2499 -0.0822
58376SOL    HW179939   4.604  11.773   9.393 -0.4947 -0.6011  1.3696
58376SOL    HW279940   4.504  11.884   9.369  1.2616  0.4111 -2.0071
58377SOL     OW79941  12.280   5.899   3.766  0.0170  0.2908  0.1304
58377SOL    HW179942  12.332   5.819   3.775 -0.4029  0.1354  1.2900
58377SOL    HW279943  12.321   5.962   3.825  0.2625  0.8999 -0.6779
58378SOL     OW79944   9.640   2.298   1.661  0.0823 -0.0916  0.2627
58378SOL    HW179945   9.575   2.229   1.649 -0.4141 -0.0411  2.2933
58378SOL    HW279946   9.694   2.269   1.735  1.9990  0.1791 -0.9523
58379SOL     OW79947   3.804  12.577   0.612  0.4509  0.1087 -0.0996
58379SOL    HW179948   3.838  12.661   0.641 -1.0052  0.9287 -0.6323
58379SOL    HW279949   3.736  12.600   0.548 -0.3397 -1.4586  0.1334
58380SOL     OW79950   5.406   3.380   8.528 -0.2024 -0.0561  0.1937
58380SOL    HW179951   5.481   3.356   8.583  0.2025 -0.6809 -0.5953
58380SOL    HW279952   5.417   3.474   8.512  0.3967 -0.1323  0.1292
58381SOL     OW79953  10.614   5.521   3.469  0.1450 -0.9583 -0.0593
58381SOL    HW179954  10.590   5.489   3.382  0.1848  1.2168 -0.9389
58381SOL    HW279955  10.622   5.616   3.458  0.2480 -0.6348  2.3055
58382SOL     OW79956   5.695  11.612   5.508  0.3846  0.4151 -0.9023
58382SOL    HW179957   5.625  11.573   5.561 -0.1092 -1.4854 -2.7985
58382SOL    HW279958   5.704  11.701   5.541 -2.2792  0.4206  0.0409
58383SOL     OW79959   5.714   1.775   3.926 -0.2381  0.2946  0.1605
58383SOL    HW179960   5.760   1.831   3.989 -0.7462  1.0744 -0.1410
58383SOL    HW279961   5.778   1.761   3.856  0.2440 -0.3708  0.7222
58384SOL     OW79962   1.732   2.641   2.121  0.6081  0.5859  0.6965
58384SOL    HW179963   1.637   2.638   2.115  0.6982 -0.0219 -0.8925
58384SOL    HW279964   1.752   2.599   2.205 -0.4494 -1.0757  0.1566
58385SOL     OW79965   5.141   2.320   4.920 -0.2601  0.0369 -0.3706
58385SOL    HW179966   5.189   2.402   4.922  0.3959 -0.3312 -0.5246
58385SOL    HW279967   5.050   2.345   4.907 -0.3676  0.8451  1.6646
58386SOL     OW79968   8.263   8.296   9.174  0.5571 -0.1114  0.0067
58386SOL    HW179969   8.179   8.251   9.163  1.1116 -1.2708  0.3380
58386SOL    HW279970   8.324   8.227   9.198  1.6082  0.7256 -0.1837
58387SOL     OW79971  11.029  11.399  10.858 -0.5258  0.3357 -0.6191
58387SOL    HW179972  10.968  11.456  10.811  0.4450  0.2488 -2.0696
58387SOL    HW279973  11.114  11.416  10.817  0.0185 -1.1886 -0.2004
58388SOL     OW79974  10.247   2.704   1.986  0.5629  0.6968 -0.0897
58388SOL    HW179975  10.278   2.614   1.998  1.0560  0.7928 -0.5600
58388SOL    HW279976  10.322   2.758   2.009  0.4393  0.9665 -0.3124
58389SOL     OW79977   7.922   0.511  10.437  0.2856 -0.7962 -0.0965
58389SOL    HW179978   7.838   0.495  10.480  1.7086 -2.1456  2.4011
58389SOL    HW279979   7.928   0.607  10.432 -0.9980 -0.6517  0.4929
58390SOL     OW79980   7.866   1.223  12.514 -0.2049 -0.3283 -0.2963
58390SOL    HW179981   7.925   1.298  12.504  0.2155 -0.5521  0.4207
58390SOL    HW279982   7.778   1.260  12.508 -0.0918  0.6808  2.5446
58391SOL     OW79983   5.335   2.578   5.972  0.6586  0.0623  0.0630
58391SOL    HW179984   5.426   2.571   5.944  0.4050 -1.0787 -0.5113
58391SOL    HW279985   5.340   2.620   6.058  1.5854  1.7278 -0.7419
58392SOL     OW79986   4.971   8.006   5.587  0.0974 -0.0991  0.1478
58392SOL    HW179987   4.927   8.018   5.671  3.7846  0.6238  2.1830
58392SOL    HW279988   5.012   7.920   5.593 -0.3718 -0.4708 -1.3887
58393SOL     OW79989   3.951   3.459   9.638  0.5015  0.8165 -0.0391
58393SOL    HW179990   3.875   3.488   9.689 -0.1517 -0.2089 -0.4079
58393SOL    HW279991   3.948   3.514   9.559 -0.0118  0.6073 -0.1704
58394SOL     OW79992   5.610   1.886   3.353  0.5708 -0.0352 -0.3266
58394SOL    HW179993   5.615   1.919   3.442  2.0544  0.2091 -0.4715
58394SOL    HW279994   5.691   1.915   3.312  0.4451 -1.1288 -1.4202
58395SOL     OW79995  11.599   5.685  11.794 -0.1416  0.0881 -0.2490
58395SOL    HW179996  11.514   5.666  11.834 -0.5020  0.7397 -0.7006
58395SOL    HW279997  11.612   5.615  11.730  0.1004 -0.5425  0.4750
58396SOL     OW79998   9.316   8.901  10.548 -0.3637  0.1323 -1.0430
58396SOL    HW179999   9.234   8.933  10.510 -0.3812  0.5146 -0.6867
58396SOL    HW280000   9.290   8.823  10.597 -0.4202 -0.0748 -1.3930
58397SOL     OW80001  11.869  11.673   3.309  0.2885  0.1644 -0.7315
58397SOL    HW180002  11.829  11.648   3.392 -0.5672 -0.2631 -1.2555
58397SOL    HW280003  11.917  11.754   3.328  0.8556 -0.4211  0.3742
58398SOL     OW80004  10.287   2.535   9.388  0.5775  0.0899  0.7295
58398SOL    HW180005  10.215   2.497   9.438  0.9407 -0.6620  0.6909
58398SOL    HW280006  10.314   2.611   9.440 -2.7511  2.8747 -1.1041
58399SOL     OW80007  10.346  12.080   7.938 -0.3297  0.0060  0.6750
58399SOL    HW180008  10.292  12.096   7.860  0.7457  0.6277  0.0299
58399SOL    HW280009  10.341  11.985   7.952 -1.7136  0.0592  0.7533
58400SOL     OW80010   3.539   6.997   8.875  0.3776  0.1122 -0.3439
58400SOL    HW180011   3.591   7.069   8.913  0.6816 -0.1910 -0.1788
58400SOL    HW280012   3.604   6.934   8.844  0.1140  0.0078 -0.6840
58401SOL     OW80013   1.869   7.057  11.610  0.1245 -0.9674 -0.4464
58401SOL    HW180014   1.865   7.040  11.704  0.8436 -1.2188 -0.4629
58401SOL    HW280015   1.838   6.976  11.570 -2.1421 -0.2121 -0.4150
58402SOL     OW80016  11.172   7.314   8.756 -0.5964  0.4551  0.2184
58402SOL    HW180017  11.139   7.282   8.840  0.7522  0.1388  0.6458
58402SOL    HW280018  11.267   7.312   8.765 -0.4331  0.4934 -1.2880
58403SOL     OW80019   2.144   6.152  10.196 -0.1896 -0.2080  0.8887
58403SOL    HW180020   2.185   6.174  10.279 -1.3937  1.2300  1.1414
58403SOL    HW280021   2.102   6.067  10.211  0.1035 -0.2384  1.5580
58404SOL     OW80022   7.750   2.957   0.652  0.6148  0.5343 -0.4300
58404SOL    HW180023   7.814   2.979   0.584  0.9423 -0.0703 -0.3361
58404SOL    HW280024   7.804   2.926   0.725  0.2176  0.0209 -0.3468
58405SOL     OW80025   2.792   6.250   9.130  0.5936 -0.0191 -0.0097
58405SOL    HW180026   2.780   6.275   9.039 -2.0400 -0.8853  0.0321
58405SOL    HW280027   2.879   6.208   9.132  1.0576  0.7549 -1.8994
58406SOL     OW80028   0.601   3.825   0.298 -0.1064  0.5347  0.0009
58406SOL    HW180029   0.585   3.741   0.340  0.3366  0.7450  0.6111
58406SOL    HW280030   0.696   3.829   0.287 -0.2367  0.3490 -1.3396
58407SOL     OW80031   5.348   3.458   3.748  0.4856  0.9918  0.0576
58407SOL    HW180032   5.342   3.363   3.749 -1.5175  0.9590 -2.6589
58407SOL    HW280033   5.269   3.487   3.794 -0.2642  1.2529 -1.3472
58408SOL     OW80034  11.153   1.653   0.883 -0.0162  0.2663 -0.1504
58408SOL    HW180035  11.157   1.650   0.978  0.9112 -1.8617 -0.1966
58408SOL    HW280036  11.211   1.583   0.854 -0.3516  0.7942 -2.2919
58409SOL     OW80037   3.213   4.370  12.031 -0.0942 -0.3421 -0.0741
58409SOL    HW180038   3.164   4.332  11.958  0.6147  0.1562 -0.8299
58409SOL    HW280039   3.174   4.331  12.109 -3.1017  1.5129 -0.4587
58410SOL     OW80040   8.006   0.075   6.157 -0.4633 -0.4821 -0.0204
58410SOL    HW180041   7.925   0.099   6.202 -0.6706  0.4189 -0.8313
58410SOL    HW280042   8.042   0.158   6.127 -0.7111 -1.0853 -2.1255
58411SOL     OW80043   0.280   1.082   5.283  0.2429  0.0651 -0.3635
58411SOL    HW180044   0.340   1.156   5.293  0.2988  0.0090 -0.2911
58411SOL    HW280045   0.307   1.019   5.349 -0.3901  0.3711  0.1999
58412SOL     OW80046   7.957   7.797   5.779  0.3262  0.3997  0.4898
58412SOL    HW180047   7.963   7.710   5.741  0.1625  1.1060 -1.2143
58412SOL    HW280048   8.015   7.794   5.855  2.3897 -0.4347 -1.0300
58413SOL     OW80049   6.096   5.201   9.829 -0.1855 -0.3481  0.1123
58413SOL    HW180050   6.190   5.183   9.824 -0.1294 -0.0622  0.0693
58413SOL    HW280051   6.090   5.296   9.818 -0.4761 -0.3591  0.1726
58414SOL     OW80052   6.844   3.028   7.545 -0.3054  0.5292  0.0307
58414SOL    HW180053   6.808   3.104   7.591  1.1241  1.1901  0.0966
58414SOL    HW280054   6.772   2.964   7.546 -1.0514  1.3298  1.2613
58415SOL     OW80055   6.647   6.088  12.374  0.4154 -0.5455  0.4135
58415SOL    HW180056   6.571   6.061  12.426  0.7171 -0.3527  0.9640
58415SOL    HW280057   6.623   6.066  12.284 -1.5878  2.2795  0.1234
58416SOL     OW80058   7.880   7.535   0.768  0.4145  0.0642  0.7027
58416SOL    HW180059   7.955   7.488   0.804  1.8612  2.6149  1.2768
58416SOL    HW280060   7.878   7.618   0.816 -2.5709  0.2859  0.4222
58417SOL     OW80061   3.605   7.152   8.289  0.6702  0.5334 -0.4158
58417SOL    HW180062   3.692   7.193   8.286  0.7913  0.2359 -2.8317
58417SOL    HW280063   3.623   7.064   8.324  1.0738  0.9871  0.5738
58418SOL     OW80064   8.376   5.211   8.187 -0.3418 -0.3201 -0.1833
58418SOL    HW180065   8.357   5.244   8.274 -0.2548 -0.5272 -0.0864
58418SOL    HW280066   8.435   5.276   8.148 -1.8453  0.7537 -0.7752
58419SOL     OW80067   9.765   3.981   1.324  0.7442  0.1928 -0.5101
58419SOL    HW180068   9.684   4.023   1.354 -0.1063  0.3067 -2.7154
58419SOL    HW280069   9.826   3.991   1.396  0.0111  3.6236 -0.1904
58420SOL     OW80070   3.202   1.165   2.233  0.3200  0.1504 -0.0235
58420SOL    HW180071   3.237   1.162   2.144  1.7654 -1.9879  0.5390
58420SOL    HW280072   3.234   1.247   2.269  1.4109  0.0998 -0.8410
58421SOL     OW80073   0.247   1.027   1.407  0.1099  0.4411 -0.0168
58421SOL    HW180074   0.323   1.053   1.459  0.2673  0.4406 -0.2440
58421SOL    HW280075   0.189   1.103   1.410  0.9953  1.2218 -1.4837
58422SOL     OW80076   6.193   1.275   1.173  0.4141  0.4875  0.1086
58422SOL    HW180077   6.209   1.367   1.150 -2.5140  1.1900  0.4053
58422SOL    HW280078   6.202   1.272   1.269  1.4966  0.1819  0.0153
58423SOL     OW80079  11.537   5.854   7.884 -0.7745 -0.0792 -0.6275
58423SOL    HW180080  11.486   5.899   7.818  1.4461  1.3610 -1.4661
58423SOL    HW280081  11.611   5.816   7.836  0.7820  0.8243  0.9356
58424SOL     OW80082   0.141   7.631  12.134  0.0836  0.0211  0.0937
58424SOL    HW180083   0.127   7.568  12.204  0.0053 -0.3123 -0.2169
58424SOL    HW280084   0.055   7.673  12.123  0.4374  1.0852  1.1497
58425SOL     OW80085   2.085  10.198  11.671 -0.6568  0.3264 -0.4127
58425SOL    HW180086   2.169  10.179  11.631 -0.5320  1.5539 -0.7546
58425SOL    HW280087   2.106  10.247  11.751 -1.0007 -0.3200  0.0875
58426SOL     OW80088   8.011   4.292   8.282 -0.1734 -0.1954 -0.3134
58426SOL    HW180089   7.947   4.349   8.326 -1.3351 -0.3629 -1.7097
58426SOL    HW280090   8.061   4.352   8.226  0.4817 -0.1616  0.2953
58427SOL     OW80091   3.680   3.545   7.147  0.2455  0.1207  0.2501
58427SOL    HW180092   3.616   3.572   7.081 -0.6252 -0.3990  0.8693
58427SOL    HW280093   3.760   3.526   7.097 -0.8490 -1.8333 -0.8772
58428SOL     OW80094   2.465   1.886  10.884  0.2586  0.0052  0.1993
58428SOL    HW180095   2.473   1.981  10.875 -2.0905  0.1977 -0.6616
58428SOL    HW280096   2.393   1.874  10.945  0.1545 -1.2036 -0.1432
58429SOL     OW80097   6.038  12.150  12.170  0.0330 -0.0096 -0.5934
58429SOL    HW180098   6.119  12.139  12.120  0.5929 -0.5571  0.4029
58429SOL    HW280099   6.064  12.203  12.245 -0.3939 -0.6896  0.0448
58430SOL     OW80100   4.948   6.704   0.554 -0.2874  0.0374 -0.1394
58430SOL    HW180101   5.010   6.653   0.606  1.7342 -1.3048 -3.5087
58430SOL    HW280102   4.988   6.791   0.546  0.0116 -0.1208 -0.3919
58431SOL     OW80103   2.420   9.862   0.675 -0.6269  0.5538  0.6206
58431SOL    HW180104   2.431   9.801   0.748  0.4310 -0.4856 -0.3739
58431SOL    HW280105   2.367   9.815   0.611  1.6115 -0.0640 -0.8932
58432SOL     OW80106   2.220   5.205   4.363  0.3019 -0.4592 -0.1362
58432SOL    HW180107   2.226   5.130   4.304  1.0271  0.5344 -1.3828
58432SOL    HW280108   2.284   5.185   4.432  0.3739 -1.0545 -0.3626
58433SOL     OW80109   9.013   3.990   7.180 -0.4320 -0.6809  0.0166
58433SOL    HW180110   9.074   4.063   7.187 -0.5686 -0.4205 -1.2889
58433SOL    HW280111   8.948   4.006   7.248 -0.8248  0.7667 -0.6721
58434SOL     OW80112   4.730  10.967  10.664 -0.4156 -0.1505  0.1078
58434SOL    HW180113   4.808  10.918  10.688 -0.4190  0.0189  0.4594
58434SOL    HW280114   4.711  10.938  10.574  0.7219  0.6863 -0.4245
58435SOL     OW80115   3.728   8.777   6.073  0.2998 -0.1616  0.3869
58435SOL    HW180116   3.744   8.869   6.091 -1.5782  0.2748 -0.0313
58435SOL    HW280117   3.643   8.758   6.113  0.1513 -1.4230 -0.4491
58436SOL     OW80118   9.143   8.249   5.188 -0.2649  0.0837  0.0708
58436SOL    HW180119   9.124   8.199   5.267 -0.2207 -1.2761 -0.7383
58436SOL    HW280120   9.119   8.339   5.209 -2.7068 -0.6629  0.7997
58437SOL     OW80121   2.449  12.105   8.955 -0.1149  0.6915 -0.1984
58437SOL    HW180122   2.434  12.188   8.999 -1.5217  0.7445 -0.7219
58437SOL    HW280123   2.395  12.042   9.002 -0.2403  0.3847 -0.7410
58438SOL     OW80124   9.649   8.706   4.855  0.5022  0.6175  0.0452
58438SOL    HW180125   9.621   8.725   4.765 -1.0523  0.3228  0.4368
58438SOL    HW280126   9.633   8.788   4.902  1.1261  0.7107  0.0904
58439SOL     OW80127   4.562   3.207   7.895 -0.3435  0.1018  0.3049
58439SOL    HW180128   4.579   3.300   7.879  2.3607 -0.3372  0.1152
58439SOL    HW280129   4.552   3.168   7.808 -2.9834  0.3768  0.4118
58440SOL     OW80130   9.508   6.861   8.981  0.3852 -0.2326 -0.2290
58440SOL    HW180131   9.579   6.851   8.919 -0.4723 -0.2649 -1.2325
58440SOL    HW280132   9.429   6.842   8.931 -0.5368  1.9876  0.2521
58441SOL     OW80133   6.194   7.523   9.128  0.5807 -0.1172 -0.6466
58441SOL    HW180134   6.267   7.579   9.155 -0.0039  1.1801 -1.6263
58441SOL    HW280135   6.118   7.557   9.176  0.4455 -0.8967 -0.2911
58442SOL     OW80136   2.519  12.260   1.489  0.3308  0.3320 -0.3054
58442SOL    HW180137   2.575  12.260   1.566  1.1256 -0.5104 -0.8667
58442SOL    HW280138   2.579  12.272   1.415 -0.1003 -1.4702 -0.9895
58443SOL     OW80139   5.907   7.460   8.542  0.3426 -0.1715  0.4231
58443SOL    HW180140   5.896   7.530   8.606  1.9519  0.0954  0.4445
58443SOL    HW280141   5.878   7.381   8.588 -3.0206  0.6127 -0.1203
58444SOL     OW80142   2.820   4.452   4.149 -0.2238  0.1293 -0.1174
58444SOL    HW180143   2.740   4.406   4.175 -0.4438 -0.3590 -1.6086
58444SOL    HW280144   2.889   4.386   4.156 -0.0554  0.3585  0.4701
58445SOL     OW80145   2.538   4.297   4.935  0.0143  0.2937 -0.0860
58445SOL    HW180146   2.588   4.377   4.920  0.2493  0.1850  0.1201
58445SOL    HW280147   2.464   4.304   4.874  1.0056 -0.1927 -1.4032
58446SOL     OW80148  12.442   5.511   6.007  0.0295 -0.3462 -0.9813
58446SOL    HW180149  12.499   5.588   6.005 -0.1015 -0.2550 -2.5245
58446SOL    HW280150  12.500   5.439   6.031  0.2058  0.1829  0.2398
58447SOL     OW80151   3.482  11.470   5.642  0.4134  0.3295 -0.0793
58447SOL    HW180152   3.553  11.526   5.673  1.0334 -0.7403  0.5045
58447SOL    HW280153   3.402  11.516   5.666  0.9079  0.8295  0.6373
58448SOL     OW80154   0.970   2.048   7.523  0.2572  0.1125  0.3697
58448SOL    HW180155   0.889   2.016   7.484  0.4262 -0.6360  0.6071
58448SOL    HW280156   0.994   1.980   7.586  1.0695  0.3192  0.2948
58449SOL     OW80157   2.148   6.075   7.001  0.2034  0.6928  0.0676
58449SOL    HW180158   2.183   6.157   7.036  2.0366  0.3259 -0.8176
58449SOL    HW280159   2.214   6.010   7.022 -1.5728 -0.7757  1.4479
58450SOL     OW80160   7.785   4.044   9.915  0.2112  0.7300  0.2207
58450SOL    HW180161   7.717   4.004   9.862 -0.2424  0.0917  1.2547
58450SOL    HW280162   7.756   4.135   9.926 -1.8192 -0.0883  2.6557
58451SOL     OW80163  12.214   7.046  10.235 -0.4021  0.0120  0.5833
58451SOL    HW180164  12.247   7.097  10.161 -1.6646 -1.1667 -0.8466
58451SOL    HW280165  12.268   6.968  10.237 -0.3976  0.0221  0.8823
58452SOL     OW80166   3.467   4.128   2.130  0.7669  0.5152 -0.3913
58452SOL    HW180167   3.389   4.149   2.079  0.8931 -0.0854 -0.8375
58452SOL    HW280168   3.525   4.204   2.118 -1.2308  2.9191  3.1078
58453SOL     OW80169  11.976   8.082   3.106 -0.7310 -0.5223 -0.4229
58453SOL    HW180170  11.894   8.116   3.071 -1.5389 -2.6970 -0.7992
58453SOL    HW280171  11.949   8.010   3.163  0.6158  1.7911  3.5289
58454SOL     OW80172   4.533  10.367  10.861  0.0824 -0.2045  0.5057
58454SOL    HW180173   4.610  10.393  10.809  0.9917 -1.3692  1.2372
58454SOL    HW280174   4.460  10.408  10.815  1.1802  1.4815  0.1517
58455SOL     OW80175  11.877   1.164   6.329  0.0669  0.3692 -0.2999
58455SOL    HW180176  11.818   1.236   6.306 -0.6912 -0.1099  0.1130
58455SOL    HW280177  11.917   1.192   6.411  1.9660  1.5963 -1.5696
58456SOL     OW80178  12.264   9.686   9.243  0.1080  0.0045  0.3321
58456SOL    HW180179  12.189   9.741   9.265 -0.8233 -1.1678  0.1736
58456SOL    HW280180  12.268   9.623   9.315 -0.9176 -1.7862 -1.1123
58457SOL     OW80181   1.096   0.969   1.383  0.3097  0.5078  0.2717
58457SOL    HW180182   1.116   0.926   1.299  2.2887  0.3757  0.7600
58457SOL    HW280183   1.122   0.905   1.449  0.0341  1.1435  1.0019
58458SOL     OW80184   8.447   8.408  11.739 -0.1579 -0.2056 -0.0249
58458SOL    HW180185   8.355   8.417  11.766 -0.4847 -0.7034 -0.8906
58458SOL    HW280186   8.441   8.378  11.648  0.8697 -0.4676 -0.0132
58459SOL     OW80187   6.050  12.436  12.342 -0.1987 -0.2274 -0.3612
58459SOL    HW180188   6.022  12.397  12.425  0.5870 -0.2601 -0.1044
58459SOL    HW280189   5.969  12.468  12.302 -0.5864 -0.1976  0.4257
58460SOL     OW80190   1.942   7.326  11.569 -0.8001  0.1837 -0.4482
58460SOL    HW180191   1.939   7.230  11.576  2.8027 -0.0129  0.4909
58460SOL    HW280192   1.984   7.342  11.484 -2.3782  1.0576 -1.1217
58461SOL     OW80193   5.589   5.895   8.721  0.0967 -0.1735  0.3574
58461SOL    HW180194   5.607   5.940   8.803  1.2761  1.8276 -0.8878
58461SOL    HW280195   5.652   5.823   8.719 -0.1515 -0.4321  1.3178
58462SOL     OW80196   1.292   1.389  10.793 -0.3876  0.0991 -0.2772
58462SOL    HW180197   1.210   1.361  10.833 -0.2063  0.7857  0.6072
58462SOL    HW280198   1.296   1.483  10.810  0.3089  0.1747 -0.8192
58463SOL     OW80199  11.642   0.998   8.924 -0.0908 -0.1948  0.4604
58463SOL    HW180200  11.615   1.090   8.919  1.5124  0.3615  1.3780
58463SOL    HW280201  11.560   0.949   8.925 -0.9737  1.0856 -1.8774
58464SOL     OW80202   3.049   6.376   9.986  0.1452  0.1847 -0.2584
58464SOL    HW180203   3.014   6.293   9.953  0.2914  0.3423 -0.8191
58464SOL    HW280204   3.090   6.354  10.069  2.2238 -0.7564 -1.4734
58465SOL     OW80205   4.995   3.324   3.338  0.4250  0.0964 -0.0358
58465SOL    HW180206   5.011   3.412   3.304  0.8553 -0.6211 -1.7793
58465SOL    HW280207   4.956   3.339   3.424  2.1287  1.9806  0.5048
58466SOL     OW80208   7.649  11.575   5.558  0.0018 -0.3169 -0.2721
58466SOL    HW180209   7.723  11.541   5.609 -0.9612 -0.8672  0.7901
58466SOL    HW280210   7.685  11.587   5.470  1.4548 -0.2356  0.2955
58467SOL     OW80211   8.843   3.593   0.625 -0.1880 -0.5939  0.0137
58467SOL    HW180212   8.876   3.682   0.639  0.8179 -0.6411 -1.8005
58467SOL    HW280213   8.849   3.552   0.711  2.6957  0.0342  0.2083
58468SOL     OW80214   5.846   5.572  12.420  0.5247  0.3299  0.0483
58468SOL    HW180215   5.754   5.547  12.430  0.5140  0.6232  0.7375
58468SOL    HW280216   5.888   5.495  12.383 -0.2142  0.5867 -1.3898
58469SOL     OW80217   6.734   7.950   3.476 -0.0495  0.2474  0.0345
58469SOL    HW180218   6.768   7.918   3.560 -0.2107 -1.0210 -0.3657
58469SOL    HW280219   6.640   7.932   3.479 -0.1150  0.5195 -0.2823
58470SOL     OW80220   3.868  10.033  11.440  0.3333 -0.3018 -0.3623
58470SOL    HW180221   3.873  10.008  11.348 -0.4020 -1.3863 -0.1282
58470SOL    HW280222   3.876   9.950  11.488  0.0658  0.1734  0.5271
58471SOL     OW80223  11.033   6.756  10.594  0.2782 -0.2991 -0.4187
58471SOL    HW180224  10.966   6.697  10.628  0.2542  0.5963  1.1395
58471SOL    HW280225  11.109   6.741  10.650  0.8392 -0.0773 -1.1048
58472SOL     OW80226   4.284   8.724   0.814 -0.4444  0.3278  0.0747
58472SOL    HW180227   4.292   8.658   0.883 -0.9624  0.4920  0.3032
58472SOL    HW280228   4.197   8.761   0.828 -0.2603  0.8763 -0.2133
58473SOL     OW80229   1.902   2.141  10.429  0.3101 -0.4794 -0.5530
58473SOL    HW180230   1.912   2.126  10.335 -0.6368  0.0779 -0.7596
58473SOL    HW280231   1.835   2.209  10.435  0.3468 -0.5250  0.5309
58474SOL     OW80232   9.562   2.451   6.721 -0.2647 -0.6865  0.5437
58474SOL    HW180233   9.623   2.381   6.741  0.1131 -0.4414  0.2549
58474SOL    HW280234   9.599   2.528   6.764  0.6621 -0.1040 -1.2086
58475SOL     OW80235   2.635   9.518  12.026  0.2492  0.2983  0.0345
58475SOL    HW180236   2.636   9.430  12.063  1.3669  0.0495 -0.5475
58475SOL    HW280237   2.686   9.510  11.945 -0.2661  1.3183 -0.4023
58476SOL     OW80238   5.209   4.042  12.187  0.2283  0.2287  0.0197
58476SOL    HW180239   5.199   4.137  12.184  1.8987  0.6147  2.7792
58476SOL    HW280240   5.302   4.027  12.175 -0.2952 -1.3832 -3.0800
58477SOL     OW80241   5.373   5.362   3.203 -0.1024  0.0904  0.1473
58477SOL    HW180242   5.361   5.340   3.111 -0.1779  3.1610 -0.6702
58477SOL    HW280243   5.284   5.367   3.239 -0.3903  2.9169 -0.7456
58478SOL     OW80244   6.469   5.302  11.515 -0.5481 -0.3466  0.0567
58478SOL    HW180245   6.393   5.356  11.535  0.4609  1.6865 -1.2288
58478SOL    HW280246   6.476   5.241  11.588 -2.6069  0.2892  0.8469
58479SOL     OW80247   6.440   7.724   7.275  0.6383 -0.3629  0.3387
58479SOL    HW180248   6.366   7.666   7.258  0.9396 -0.5569 -0.3820
58479SOL    HW280249   6.477   7.694   7.358  1.3516 -1.8224 -0.4721
58480SOL     OW80250   3.126   1.449   4.726  0.4972 -0.2498  0.0055
58480SOL    HW180251   3.169   1.507   4.664  0.2276 -1.0402 -0.9505
58480SOL    HW280252   3.057   1.407   4.676 -2.7873  2.3831  1.9357
58481SOL     OW80253   5.587   9.100   8.524  0.1026  0.1143 -0.6755
58481SOL    HW180254   5.565   9.020   8.476  0.2682  0.4673 -1.3487
58481SOL    HW280255   5.667   9.079   8.571  0.4172  0.0351 -1.2431
58482SOL     OW80256   0.481   7.280   4.047  0.1018 -0.1654 -0.1016
58482SOL    HW180257   0.454   7.334   4.121 -0.5468 -0.4532 -0.1168
58482SOL    HW280258   0.479   7.339   3.972  1.0063  0.1905  0.1429
58483SOL     OW80259   4.756   6.695   4.956  1.0242 -0.2245 -0.2160
58483SOL    HW180260   4.686   6.639   4.990  0.6308  1.0149  1.1771
58483SOL    HW280261   4.710   6.764   4.909  1.1686  1.0941  1.4522
58484SOL     OW80262   1.599  10.109   1.133 -0.4107 -0.3653 -0.1159
58484SOL    HW180263   1.670  10.054   1.098 -1.5713 -1.0650 -1.4729
58484SOL    HW280264   1.614  10.195   1.095  0.3090 -0.2209  0.4684
58485SOL     OW80265   4.807   0.042   8.795 -0.0898 -0.1573  0.2090
58485SOL    HW180266   4.732  -0.012   8.771  0.5394 -0.8876 -0.1434
58485SOL    HW280267   4.882  -0.016   8.787  0.7344  1.0574 -1.2062
58486SOL     OW80268   0.583   8.918   4.335 -0.2105  0.1757  0.1972
58486SOL    HW180269   0.675   8.912   4.309 -0.4062  0.1851 -0.5185
58486SOL    HW280270   0.580   8.994   4.393  0.6380 -1.1681  2.0720
58487SOL     OW80271   7.869   7.926   8.588  0.7628 -0.6291 -0.1776
58487SOL    HW180272   7.815   7.968   8.654 -1.2909 -3.2607 -0.0235
58487SOL    HW280273   7.875   7.991   8.517 -1.8053  0.1627  0.2284
58488SOL     OW80274  11.031   3.492   2.553 -0.8147  0.5494  0.1159
58488SOL    HW180275  11.120   3.469   2.580 -0.5932  1.1636 -0.0744
58488SOL    HW280276  11.032   3.487   2.458 -0.8520  1.0135  0.0882
58489SOL     OW80277  10.223  12.290   5.472 -0.4461 -0.4867 -0.7802
58489SOL    HW180278  10.263  12.229   5.534  0.8994 -0.4074 -1.5284
58489SOL    HW280279  10.154  12.333   5.522  0.3062 -0.7510  0.5378
58490SOL     OW80280   6.567  12.503   5.685 -0.1266 -0.3655  0.2969
58490SOL    HW180281   6.566  12.583   5.633 -0.4308 -1.4687 -1.4866
58490SOL    HW280282   6.481  12.464   5.671 -0.7269 -0.0634  2.7663
58491SOL     OW80283   3.258   7.570   5.908 -0.3991  0.0095 -0.2669
58491SOL    HW180284   3.281   7.515   5.983 -2.0268 -0.4100 -0.0279
58491SOL    HW280285   3.330   7.558   5.847  0.5264 -0.3526  0.8574
58492SOL     OW80286   6.328   5.238   7.952 -0.4731  0.0753  0.6662
58492SOL    HW180287   6.411   5.242   7.906 -0.0842  0.7226  1.3915
58492SOL    HW280288   6.296   5.149   7.938 -0.0696  0.0767 -0.3151
58493SOL     OW80289   1.699   2.797   4.942  0.3005 -0.5344 -0.6247
58493SOL    HW180290   1.627   2.753   4.987  0.7598  0.1848  0.8554
58493SOL    HW280291   1.727   2.866   5.002  1.6545 -0.2388 -1.5537
58494SOL     OW80292  12.580   0.817   8.527  0.3682  0.0228  0.0424
58494SOL    HW180293  12.495   0.826   8.484  0.0710 -1.5009  0.2257
58494SOL    HW280294  12.578   0.881   8.598  0.2645  1.5287 -1.2569
58495SOL     OW80295   8.607   0.384   6.492  0.1283  0.1550 -0.1517
58495SOL    HW180296   8.573   0.368   6.404 -0.2302  0.7007 -0.1235
58495SOL    HW280297   8.679   0.445   6.480 -0.1431  0.5030 -0.0416
58496SOL     OW80298   9.681   2.820   3.918  0.2270 -0.5688 -0.3716
58496SOL    HW180299   9.776   2.814   3.909  0.2305 -3.1770  0.4910
58496SOL    HW280300   9.665   2.800   4.010 -1.1920 -1.2318 -0.7325
58497SOL     OW80301   8.626  10.783   3.543 -0.7767  0.3367  0.1536
58497SOL    HW180302   8.673  10.710   3.502 -1.6928  0.2789 -0.8444
58497SOL    HW280303   8.662  10.861   3.501 -0.2452  0.4216  0.7609
58498SOL     OW80304   2.504   8.665   5.017  0.0838 -0.7025 -0.0940
58498SOL    HW180305   2.470   8.578   5.000  0.7035 -0.4929 -2.8819
58498SOL    HW280306   2.465   8.720   4.949 -0.0736  1.1715  1.4158
58499SOL     OW80307  12.155   5.109   7.049  0.2036  0.3752 -0.6873
58499SOL    HW180308  12.243   5.086   7.078 -0.4905 -1.9264 -0.2183
58499SOL    HW280309  12.157   5.100   6.954 -0.1643 -2.4503 -0.5075
58500SOL     OW80310   9.563  11.220  11.037 -0.5837  0.5759 -0.1232
58500SOL    HW180311   9.636  11.258  11.086 -1.1320 -0.0792  1.2538
58500SOL    HW280312   9.488  11.274  11.060 -0.5037  1.5283 -1.8866
58501SOL     OW80313   3.812   3.468   7.527  0.1404 -0.1385 -1.0731
58501SOL    HW180314   3.897   3.512   7.530 -0.2316  0.7347  3.3983
58501SOL    HW280315   3.751   3.534   7.494  0.6113  0.6340 -0.4338
58502SOL     OW80316   4.003   0.898   8.046 -0.6360  0.0571 -0.4592
58502SOL    HW180317   4.080   0.889   7.989 -0.9059 -2.7544 -0.5513
58502SOL    HW280318   4.035   0.947   8.122  0.1635  2.4165 -2.1938
58503SOL     OW80319  12.500  11.203   5.200 -0.3020  0.3631  0.6243
58503SOL    HW180320  12.409  11.202   5.230 -0.9225 -0.7920 -1.1608
58503SOL    HW280321  12.515  11.294   5.173 -1.1341  0.4330  0.3683
58504SOL     OW80322  10.679   6.002   5.300 -0.1010 -0.5190  0.2486
58504SOL    HW180323  10.588   6.026   5.320 -1.0072 -1.6584 -2.0922
58504SOL    HW280324  10.672   5.940   5.227  2.6552  0.7089 -1.2228
58505SOL     OW80325   8.985   0.731   7.389  0.2332  0.1118 -0.1848
58505SOL    HW180326   8.927   0.785   7.442 -1.1045  0.0864 -1.5649
58505SOL    HW280327   8.955   0.744   7.299  0.5854 -2.0532 -0.6779
58506SOL     OW80328   8.312  10.500   1.752 -0.4766 -0.0733 -0.3990
58506SOL    HW180329   8.381  10.532   1.809  0.2837  0.1276 -1.4005
58506SOL    HW280330   8.257  10.577   1.735 -0.6588 -0.1160 -0.0207
58507SOL     OW80331   1.189   4.356   0.948 -0.1646  0.3443  0.5960
58507SOL    HW180332   1.279   4.347   0.978 -0.2491 -0.1870  0.7001
58507SOL    HW280333   1.166   4.448   0.966  0.0928  0.2776  1.2953
58508SOL     OW80334   1.617   1.466   5.462 -0.7564  0.4086 -0.2361
58508SOL    HW180335   1.522   1.455   5.463 -0.7416  0.1069  1.7228
58508SOL    HW280336   1.634   1.530   5.531  0.7102 -2.3545  2.1909
58509SOL     OW80337   8.202   4.444   4.411 -0.0893 -0.0405 -0.0747
58509SOL    HW180338   8.268   4.375   4.418  0.4170  0.4703  0.2332
58509SOL    HW280339   8.139   4.411   4.347  0.7746 -0.2895 -0.8114
58510SOL     OW80340   4.032   3.277   8.813 -0.5021  0.5528 -0.3280
58510SOL    HW180341   4.062   3.194   8.851 -2.0983  0.2789  0.4297
58510SOL    HW280342   3.957   3.302   8.867 -0.5914  2.0564 -1.0892
58511SOL     OW80343   7.769   5.804   9.669  0.0262  0.0172  0.3664
58511SOL    HW180344   7.861   5.778   9.676 -0.0202 -0.3828 -0.4811
58511SOL    HW280345   7.771   5.887   9.622  0.0525  0.8310  1.7233
58512SOL     OW80346   3.425   2.660   0.748  0.5931  0.2528  0.3607
58512SOL    HW180347   3.429   2.755   0.737 -0.0947  0.3852  1.1179
58512SOL    HW280348   3.511   2.636   0.783  0.3899  0.7616  1.2361
58513SOL     OW80349   5.456   7.399   2.100 -0.0304  0.6886 -0.4410
58513SOL    HW180350   5.385   7.455   2.132 -0.2319  1.3482 -1.9474
58513SOL    HW280351   5.535   7.451   2.113 -0.0381  0.7093 -0.4785
58514SOL     OW80352  11.641  11.395   5.731 -0.2769 -0.0787 -0.6806
58514SOL    HW180353  11.690  11.325   5.687 -1.1944 -1.2421  0.0911
58514SOL    HW280354  11.549  11.372   5.718 -0.6209  1.4889 -1.1762
58515SOL     OW80355  10.322   2.698   2.595  0.0687  0.1160 -0.3802
58515SOL    HW180356  10.305   2.768   2.533 -0.3893 -0.3869 -0.8351
58515SOL    HW280357  10.402   2.657   2.564 -0.9851 -1.1398 -1.6042
58516SOL     OW80358   1.852   5.184   2.025  0.6630 -0.1988 -0.0748
58516SOL    HW180359   1.795   5.219   1.956 -0.2024 -0.1692  0.6340
58516SOL    HW280360   1.868   5.258   2.083 -1.0230 -0.8643  1.3303
58517SOL     OW80361   7.406   9.473   3.013 -0.2232 -0.2015 -0.0213
58517SOL    HW180362   7.435   9.412   2.945 -0.3425 -0.3042  0.0190
58517SOL    HW280363   7.459   9.451   3.089 -2.2765 -2.2731  0.9202
58518SOL     OW80364   2.155   3.054   4.259 -0.2485 -0.2248 -0.2084
58518SOL    HW180365   2.069   3.075   4.296  0.3370 -0.1502  1.1709
58518SOL    HW280366   2.172   2.964   4.286  1.0523  0.4710  1.5189
58519SOL     OW80367   5.652   4.954   1.692  0.8662 -0.7115  0.5318
58519SOL    HW180368   5.666   5.042   1.656  1.1157 -0.7240  0.5987
58519SOL    HW280369   5.591   4.967   1.764 -0.3672 -0.7984 -0.4514
58520SOL     OW80370  12.249   4.421  11.546 -0.4155  0.0610 -0.3609
58520SOL    HW180371  12.183   4.370  11.594 -2.4857  0.4148 -2.6170
58520SOL    HW280372  12.230   4.403  11.454  2.7852  0.1171 -1.1257
58521SOL     OW80373   9.344   8.867   8.843  0.2707  0.8032 -0.3134
58521SOL    HW180374   9.312   8.856   8.932 -0.7589  1.8125 -0.5354
58521SOL    HW280375   9.265   8.877   8.790  0.8959  2.6028 -0.9900
58522SOL     OW80376   9.771   0.720   1.939 -0.1833  0.4901 -0.2161
58522SOL    HW180377   9.839   0.736   2.004 -0.5785 -0.2024  0.3861
58522SOL    HW280378   9.795   0.636   1.899  0.2414  1.0700 -1.2176
58523SOL     OW80379  12.446   2.191   5.744 -0.0898  0.6380  0.7039
58523SOL    HW180380  12.369   2.165   5.693  0.3946  0.4892  0.0340
58523SOL    HW280381  12.439   2.141   5.825  0.6126 -1.3339 -0.3820
58524SOL     OW80382   0.786   5.275   4.154  0.3037 -0.1430  0.1115
58524SOL    HW180383   0.777   5.264   4.059 -1.9307  2.1181 -0.0252
58524SOL    HW280384   0.864   5.330   4.164  0.8090 -0.7508 -0.3453
58525SOL     OW80385   8.424   0.570   8.471  0.2999  0.7528 -0.1615
58525SOL    HW180386   8.356   0.513   8.507  1.4357 -0.7151 -0.2517
58525SOL    HW280387   8.429   0.643   8.532 -0.6342  0.3571  0.4096
58526SOL     OW80388   3.695   7.072   0.178 -0.7952 -0.3093 -0.2627
58526SOL    HW180389   3.765   7.007   0.183 -1.3289 -0.8677  0.2038
58526SOL    HW280390   3.621   7.031   0.223 -1.5719  0.0743 -1.1350
58527SOL     OW80391  11.693   8.202   1.811 -0.1899  0.0823  0.3484
58527SOL    HW180392  11.745   8.179   1.888 -1.1682  0.8542  1.2712
58527SOL    HW280393  11.656   8.119   1.781 -0.4077 -0.1407  1.1839
58528SOL     OW80394   3.001  10.709   9.897 -0.0541  0.5735  0.3757
58528SOL    HW180395   3.023  10.802   9.900 -2.9673  1.4383 -1.1000
58528SOL    HW280396   3.086  10.664   9.888  1.3189  3.2093 -0.9173
58529SOL     OW80397   2.551  10.540  11.803  0.1594  0.6179  0.5263
58529SOL    HW180398   2.632  10.489  11.795  0.1389  0.5451  0.7725
58529SOL    HW280399   2.581  10.629  11.819  0.2082  0.8407 -0.7247
58530SOL     OW80400   9.166  10.717   4.181  0.7228 -0.2217  0.2824
58530SOL    HW180401   9.188  10.794   4.234 -0.4105 -1.9893  3.6241
58530SOL    HW280402   9.071  10.720   4.174  0.7110 -1.0616  0.0348
58531SOL     OW80403   1.145  12.432   2.383  0.2188  0.5270  0.4492
58531SOL    HW180404   1.153  12.374   2.307  0.5539  0.3249  0.6411
58531SOL    HW280405   1.148  12.374   2.459 -2.0558  0.4805  0.6007
58532SOL     OW80406   9.269  12.579   7.787 -0.2518  0.3305  0.3664
58532SOL    HW180407   9.204  12.565   7.719  0.2494  0.3878 -0.1339
58532SOL    HW280408   9.223  12.559   7.869 -1.1356  1.1665  0.0958
58533SOL     OW80409   3.837  11.179   4.956  0.4092 -0.0019  0.0063
58533SOL    HW180410   3.905  11.196   4.891  0.3397  1.5447  0.2897
58533SOL    HW280411   3.848  11.249   5.021 -1.2360  0.1117  0.2175
58534SOL     OW80412   3.433   2.325   1.111  0.5814  0.2717  0.1979
58534SOL    HW180413   3.369   2.327   1.040  1.1016  2.8072 -0.2956
58534SOL    HW280414   3.506   2.274   1.076  0.5788  0.9826 -0.8853
58535SOL     OW80415   3.019   3.347   2.567 -0.6983 -0.1531 -0.0612
58535SOL    HW180416   2.990   3.278   2.508  0.9379 -1.4377  0.5665
58535SOL    HW280417   3.005   3.428   2.518  1.2757 -1.1915 -2.5377
58536SOL     OW80418   5.589   1.688  10.512 -0.1072 -0.7134 -0.6706
58536SOL    HW180419   5.638   1.680  10.594  0.5607  1.6846 -0.7669
58536SOL    HW280420   5.498   1.692  10.539  0.1869  1.8374  0.2031
58537SOL     OW80421   7.198   7.167   3.135 -0.0289  1.0755 -0.2291
58537SOL    HW180422   7.226   7.121   3.056  0.7142  2.0309 -0.5460
58537SOL    HW280423   7.131   7.111   3.173  1.1067 -0.4709 -0.3842
58538SOL     OW80424   3.822   3.272   4.571 -1.1633  0.5582  0.4974
58538SOL    HW180425   3.904   3.274   4.521 -0.1085  0.6699  2.1495
58538SOL    HW280426   3.834   3.202   4.634 -1.8199  1.3961  1.5956
58539SOL     OW80427   1.279   2.501   3.782  0.5385 -0.3262 -0.0421
58539SOL    HW180428   1.246   2.565   3.844  1.7548  1.5015 -1.1875
58539SOL    HW280429   1.231   2.518   3.701 -1.4540 -3.0675  0.4130
58540SOL     OW80430   0.251   4.349   5.877 -0.7058 -0.3485 -0.4187
58540SOL    HW180431   0.181   4.377   5.818 -0.6129 -0.8491 -0.7697
58540SOL    HW280432   0.255   4.419   5.943  0.1708  0.9729 -1.8017
58541SOL     OW80433   4.044   9.312   1.117 -0.5292  0.0407 -0.0233
58541SOL    HW180434   4.108   9.373   1.080  0.9884 -0.8676  1.0031
58541SOL    HW280435   4.033   9.245   1.050 -0.9898  0.5921 -0.5052
58542SOL     OW80436   0.853   6.503   7.803  0.1646 -0.1678 -0.1099
58542SOL    HW180437   0.924   6.538   7.857  1.3393 -1.8092 -0.5280
58542SOL    HW280438   0.857   6.555   7.723 -0.6493  1.2989  0.7427
58543SOL     OW80439   7.904   1.092  10.342 -0.4391 -0.4179 -0.1765
58543SOL    HW180440   7.982   1.043  10.314  1.0093  2.4684 -1.6743
58543SOL    HW280441   7.851   1.101  10.263 -1.9080 -1.6106  0.6408
58544SOL     OW80442   3.773   2.464   0.584 -0.6441  0.2715  0.4917
58544SOL    HW180443   3.839   2.395   0.596 -0.0727  0.5470 -0.8752
58544SOL    HW280444   3.699   2.436   0.638 -0.1579 -1.0659  0.5073
58545SOL     OW80445   6.164   1.567  11.887 -0.1742 -0.2195 -0.5784
58545SOL    HW180446   6.159   1.636  11.953  0.1593 -0.4567 -0.2990
58545SOL    HW280447   6.075   1.561  11.852  0.0451  1.2122 -1.5014
58546SOL     OW80448   0.887   8.918   1.955  0.5609  0.0731  0.5390
58546SOL    HW180449   0.937   8.857   1.900  0.3506 -0.4050  0.8738
58546SOL    HW280450   0.807   8.935   1.905  0.6232  0.0769  0.4406
58547SOL     OW80451   0.794  12.442   2.008  0.2442  0.1392 -0.6648
58547SOL    HW180452   0.756  12.440   1.920  0.4034 -0.0719 -0.7288
58547SOL    HW280453   0.796  12.350   2.035 -1.2985  0.3049  0.1965
58548SOL     OW80454   4.745  10.941  11.324 -0.1393  0.0019 -0.1851
58548SOL    HW180455   4.802  10.873  11.289  1.8643  1.0440  0.8537
58548SOL    HW280456   4.737  11.005  11.253  0.6911  0.2443 -0.0671
58549SOL     OW80457  12.035  11.864   7.473 -0.0904  0.3605  0.4188
58549SOL    HW180458  12.099  11.805   7.514 -0.5610 -0.9348 -0.6551
58549SOL    HW280459  11.996  11.912   7.546  1.0215  0.0731  1.2222
58550SOL     OW80460   9.876   7.646   8.923  0.5141 -0.7623  0.4573
58550SOL    HW180461   9.831   7.628   8.840 -0.1250  0.2641  0.5682
58550SOL    HW280462   9.932   7.721   8.903 -0.7346  0.4414  1.3019
58551SOL     OW80463   7.336   4.820   9.015 -0.0286  0.1311 -0.3995
58551SOL    HW180464   7.247   4.813   8.981  0.1398 -0.9823 -0.6657
58551SOL    HW280465   7.340   4.755   9.085 -0.2551  2.1325  1.5977
58552SOL     OW80466   3.633  10.740   2.529 -0.1204 -0.0082 -0.6003
58552SOL    HW180467   3.723  10.718   2.553 -1.2166 -2.3543  1.8851
58552SOL    HW280468   3.587  10.656   2.528 -2.5001  1.2146 -0.8396
58553SOL     OW80469   5.206   1.388   2.884 -0.3335 -0.3978  0.5024
58553SOL    HW180470   5.249   1.304   2.867  0.4291 -0.4507  2.4281
58553SOL    HW280471   5.273   1.453   2.864 -0.4010 -0.3226  0.5238
58554SOL     OW80472   8.554  10.794   1.543 -0.2496 -0.3745 -0.7353
58554SOL    HW180473   8.516  10.853   1.609  2.0720  1.3431 -0.8139
58554SOL    HW280474   8.515  10.822   1.460 -0.4338 -0.0588 -0.5445
58555SOL     OW80475   9.993   1.403  11.867 -0.2048 -0.2955 -0.6036
58555SOL    HW180476   9.927   1.442  11.925 -0.5070 -1.0209 -0.4536
58555SOL    HW280477   9.996   1.311  11.892 -1.7492 -1.0887 -2.9981
58556SOL     OW80478  11.334   9.078   2.016 -0.3300 -0.4111  0.1122
58556SOL    HW180479  11.285   9.016   2.070 -1.7059  1.2906  0.9322
58556SOL    HW280480  11.268   9.140   1.984  1.1943  1.8686  1.0935
58557SOL     OW80481   9.764   0.052   5.161 -0.3523 -0.1356  0.1197
58557SOL    HW180482   9.734   0.070   5.250  0.6588  0.9676  0.2676
58557SOL    HW280483   9.843  -0.002   5.173 -0.0626  0.2398 -0.0929
58558SOL     OW80484   1.839   2.839   4.704  0.6352  0.0678  0.4399
58558SOL    HW180485   1.781   2.827   4.779  0.1458 -0.5397 -0.0267
58558SOL    HW280486   1.927   2.829   4.740  0.3637 -3.0287  0.5093
58559SOL     OW80487   5.584   2.487  10.991  0.0051  0.3214 -0.4955
58559SOL    HW180488   5.642   2.418  11.024 -0.4813  0.3272  0.4336
58559SOL    HW280489   5.503   2.474  11.041 -0.2208  1.3252 -0.5926
58560SOL     OW80490   6.250   2.706   6.435 -0.2753  0.5310  0.6385
58560SOL    HW180491   6.302   2.683   6.512  1.2750  0.8472 -0.2812
58560SOL    HW280492   6.304   2.680   6.361 -0.8872  2.0164 -0.3712
58561SOL     OW80493   2.859   6.199   0.188  0.0710 -0.7640  0.0872
58561SOL    HW180494   2.851   6.120   0.241  0.5969 -0.0218  1.3109
58561SOL    HW280495   2.898   6.169   0.106 -0.3860 -1.8700  0.2557
58562SOL     OW80496  11.008   3.108   7.024 -0.0465 -0.3044  0.1397
58562SOL    HW180497  11.097   3.091   6.992 -0.2428  1.2904 -1.3941
58562SOL    HW280498  11.013   3.194   7.064 -0.7572 -0.4958  0.6445
58563SOL     OW80499  10.676  11.198  12.335 -0.0165 -0.3559  0.0146
58563SOL    HW180500  10.736  11.255  12.287 -0.4374 -0.4073 -0.5826
58563SOL    HW280501  10.728  11.119  12.352 -0.0028 -0.5216 -0.7600
58564SOL     OW80502   2.699   8.356  11.406  0.6762  0.1560  0.5239
58564SOL    HW180503   2.778   8.308  11.379 -0.0541 -0.8733  0.1183
58564SOL    HW280504   2.723   8.448  11.401  0.9303  0.0180 -2.6968
58565SOL     OW80505   1.036  11.677  12.201 -0.1236 -0.1386  0.3276
58565SOL    HW180506   1.048  11.764  12.240 -1.6386 -0.0633  0.6931
58565SOL    HW280507   1.107  11.669  12.138  1.2498  0.5347  1.7213
58566SOL     OW80508   5.471   5.169   8.274  0.0671 -0.3689 -0.5527
58566SOL    HW180509   5.492   5.076   8.277  2.6022  0.1189 -0.3952
58566SOL    HW280510   5.549   5.209   8.234 -0.9963  1.6711 -0.7061
58567SOL     OW80511   9.391   4.153   0.670  0.5260  0.2751  0.6039
58567SOL    HW180512   9.376   4.059   0.661 -0.0550  0.4630 -0.5219
58567SOL    HW280513   9.395   4.168   0.765 -0.6991 -0.6763  0.8216
58568SOL     OW80514   5.895   9.357   4.616  0.1441  0.1922  0.4341
58568SOL    HW180515   5.882   9.278   4.564  1.1333 -0.5127  1.2204
58568SOL    HW280516   5.987   9.380   4.602  0.3376  0.1729  1.6052
58569SOL     OW80517   8.086   5.938   9.081  0.4652 -0.9573 -0.4998
58569SOL    HW180518   8.018   5.876   9.053  0.5177 -1.2537  0.0214
58569SOL    HW280519   8.038   6.008   9.124  0.6036 -2.3161  2.0420
58570SOL     OW80520   6.250   4.384  10.332 -0.4763 -0.1567 -0.4738
58570SOL    HW180521   6.167   4.411  10.371 -0.4916 -0.1383 -0.5188
58570SOL    HW280522   6.233   4.385  10.238 -0.5503 -0.5672 -0.4636
58571SOL     OW80523   3.253   8.465   9.053  0.5109  0.6176  0.0505
58571SOL    HW180524   3.300   8.395   9.008 -0.2313 -0.5241  0.9833
58571SOL    HW280525   3.275   8.452   9.145 -2.0997 -0.3858  0.6097
58572SOL     OW80526   9.468   5.524   1.057 -0.0012  0.1472 -0.2560
58572SOL    HW180527   9.402   5.593   1.067  0.4406  0.5859 -0.3108
58572SOL    HW280528   9.545   5.570   1.025  0.9947  0.0065  1.7938
58573SOL     OW80529   0.388   3.950   9.683 -0.1776  0.6355 -0.5579
58573SOL    HW180530   0.431   3.866   9.698 -0.2740  0.5993 -0.4837
58573SOL    HW280531   0.409   3.972   9.592  2.3766  1.9929  0.2579
58574SOL     OW80532   5.971   6.251  12.428 -0.7565 -0.9797 -0.4490
58574SOL    HW180533   5.887   6.295  12.416  0.3767  0.9154 -1.8701
58574SOL    HW280534   6.017   6.303  12.494 -0.7524 -2.1631  0.5317
58575SOL     OW80535   8.948   9.949   4.298 -0.3386  1.1062  0.7306
58575SOL    HW180536   8.960  10.015   4.367 -1.3160  0.2571  1.7435
58575SOL    HW280537   9.028   9.897   4.301  0.7488  2.5911 -0.5289
58576SOL     OW80538   9.642   4.664   9.726  0.2645  0.2062  0.5357
58576SOL    HW180539   9.598   4.745   9.698  2.2118  1.5228  1.0232
58576SOL    HW280540   9.663   4.680   9.818 -0.9586 -1.6889  1.2144
58577SOL     OW80541   7.407   5.751   9.141  0.1143  0.0842 -0.0891
58577SOL    HW180542   7.484   5.806   9.151  0.0190 -0.0486  1.7324
58577SOL    HW280543   7.435   5.682   9.080  2.1087 -1.0632  1.9864
58578SOL     OW80544   2.742   6.535   2.833 -0.0541  0.0299 -0.4521
58578SOL    HW180545   2.675   6.601   2.851 -0.3030 -0.2901 -0.1640
58578SOL    HW280546   2.728   6.511   2.741  0.5038  0.8867 -0.7678
58579SOL     OW80547   2.537  12.074   8.548  0.5062 -0.3679 -0.0277
58579SOL    HW180548   2.515  12.032   8.465  0.4393 -2.3872  0.9523
58579SOL    HW280549   2.630  12.054   8.560  0.5747  0.1321  0.2812
58580SOL     OW80550   2.042   7.633   5.841 -0.0540  0.1130  0.5815
58580SOL    HW180551   1.982   7.594   5.777 -0.6947  0.0784  1.1922
58580SOL    HW280552   1.987   7.654   5.916  0.5639  0.8053  0.8550
58581SOL     OW80553   3.746   6.146   5.928  0.3832 -0.5303  0.2436
58581SOL    HW180554   3.816   6.103   5.977  1.9076  0.0476 -1.3248
58581SOL    HW280555   3.724   6.085   5.858 -1.3900 -1.1075  1.2341
58582SOL     OW80556  11.475   2.984   3.570  0.4849 -0.2446 -0.0410
58582SOL    HW180557  11.481   2.913   3.634 -0.0692 -0.8060 -0.6035
58582SOL    HW280558  11.560   3.027   3.575  0.4508 -0.2626  1.0827
58583SOL     OW80559   5.764   3.922  11.489 -0.1534 -0.6214 -0.2462
58583SOL    HW180560   5.788   3.932  11.581  1.0940 -0.4290 -0.5676
58583SOL    HW280561   5.715   4.001  11.468  0.8353  0.0473 -0.1165
58584SOL     OW80562   7.358   3.754  10.723  0.2891  0.1027  0.1693
58584SOL    HW180563   7.315   3.815  10.783 -0.3774  0.5813 -0.7785
58584SOL    HW280564   7.448   3.750  10.754  0.1629  0.9952  0.6938
58585SOL     OW80565  10.003   7.925   3.249  0.1331  0.0362 -0.5872
58585SOL    HW180566   9.910   7.937   3.230  0.5170  0.3174 -2.4499
58585SOL    HW280567  10.046   8.000   3.209  1.1829 -0.0304  0.3500
58586SOL     OW80568   8.403  12.114   6.444 -0.0318  0.5110 -0.2418
58586SOL    HW180569   8.335  12.168   6.483  0.6575  1.5722 -0.4714
58586SOL    HW280570   8.368  12.090   6.358  0.7695  3.0042 -1.3656
58587SOL     OW80571   2.560   5.961   7.229 -0.1860  0.1841 -0.3246
58587SOL    HW180572   2.588   5.961   7.320 -1.8346 -1.8121  0.2545
58587SOL    HW280573   2.596   6.042   7.192  2.0682  0.1371  1.5767
58588SOL     OW80574   9.582   8.132   6.790 -0.1036 -0.3837 -0.0310
58588SOL    HW180575   9.638   8.142   6.713  0.0461  0.6518  0.2069
58588SOL    HW280576   9.630   8.072   6.847  0.6374  0.2761  0.0510
58589SOL     OW80577   8.013   0.476  10.840 -0.0453  0.3943  0.3387
58589SOL    HW180578   8.098   0.462  10.798 -0.3764 -0.4108 -0.0873
58589SOL    HW280579   7.973   0.547  10.790 -0.8455 -1.2104 -1.3873
58590SOL     OW80580   6.595   4.940   1.437 -0.0839  0.4271 -0.0713
58590SOL    HW180581   6.678   4.981   1.413  0.0077  1.1166  1.2974
58590SOL    HW280582   6.620   4.871   1.498 -0.4896  0.3564  0.0144
58591SOL     OW80583   9.746   0.018   7.959 -0.1834  0.3616 -0.0097
58591SOL    HW180584   9.666   0.035   8.009 -0.4098  0.5096 -0.4244
58591SOL    HW280585   9.795   0.100   7.964 -0.2768  0.4268 -0.1620
58592SOL     OW80586   4.455   1.671   6.950  0.1932  0.2471  0.1057
58592SOL    HW180587   4.440   1.665   7.045  1.1336 -0.3073  0.2266
58592SOL    HW280588   4.541   1.713   6.941  0.6632 -0.8105 -0.4696
58593SOL     OW80589   3.144   9.973   9.326  0.1021 -1.0592  0.1367
58593SOL    HW180590   3.110   9.896   9.370  0.3193 -2.9418 -2.7262
58593SOL    HW280591   3.078   9.994   9.259 -0.2647  1.7041  1.2039
58594SOL     OW80592   2.337   7.397   7.776  0.9779  0.2063 -0.2305
58594SOL    HW180593   2.360   7.386   7.869  0.3101  2.2458  0.2251
58594SOL    HW280594   2.296   7.484   7.771  0.9127  0.1120 -2.4298
58595SOL     OW80595  10.453   9.677   4.606 -0.3714 -0.0739  0.3324
58595SOL    HW180596  10.376   9.710   4.653 -0.6058 -1.0015  0.6144
58595SOL    HW280597  10.417   9.621   4.538  0.0550 -0.6310  0.5593
58596SOL     OW80598   7.986   1.850  10.365 -0.0556  0.1789  0.1320
58596SOL    HW180599   8.020   1.774  10.318 -0.8590 -0.2368  0.1947
58596SOL    HW280600   8.025   1.844  10.452 -0.3726 -0.3646  0.2458
58597SOL     OW80601   0.365   9.898   2.268 -0.1106  0.2271  0.0458
58597SOL    HW180602   0.364   9.807   2.296  0.1324  0.8211  2.1940
58597SOL    HW280603   0.273   9.922   2.259 -0.1922 -0.0679  0.0981
58598SOL     OW80604   7.098  11.522   7.585  0.1298  0.5119  0.2249
58598SOL    HW180605   7.061  11.545   7.670 -0.5492 -0.2577  0.1464
58598SOL    HW280606   7.105  11.605   7.538 -1.2496  0.7068  0.3369
58599SOL     OW80607   5.178   6.970   3.605 -0.2529 -0.1417  0.0211
58599SOL    HW180608   5.237   6.998   3.535 -1.2461  1.5806 -0.1885
58599SOL    HW280609   5.100   6.937   3.559 -0.5624  0.1875  0.3017
58600SOL     OW80610  10.869   1.290   0.766  0.2243  0.2551  0.2307
58600SOL    HW180611  10.935   1.222   0.778  0.1602  0.4522  2.0896
58600SOL    HW280612  10.910   1.368   0.804 -0.4439  0.7787 -0.1259
58601SOL     OW80613   5.114   3.727  10.032  0.3826  0.6272 -0.4908
58601SOL    HW180614   5.066   3.797  10.076  1.5522  1.2590 -0.1672
58601SOL    HW280615   5.066   3.647  10.054  0.1040  1.1055  0.7297
58602SOL     OW80616   0.452   1.442   4.051 -0.4302  0.0360 -0.5535
58602SOL    HW180617   0.510   1.514   4.027 -1.5188  0.6718 -1.3576
58602SOL    HW280618   0.488   1.366   4.005  1.7754 -0.4028  1.6995
58603SOL     OW80619   3.241   5.251  10.142  0.1712 -0.1322  0.2045
58603SOL    HW180620   3.280   5.313  10.080  0.0047 -0.1113  0.1198
58603SOL    HW280621   3.306   5.242  10.211 -0.0928  0.6885  0.5761
58604SOL     OW80622   9.985   3.473   7.796  0.3132 -0.2296  0.1938
58604SOL    HW180623   9.896   3.465   7.763  0.1194  0.3071  0.5829
58604SOL    HW280624  10.014   3.382   7.807 -0.3490 -0.4146  0.4972
58605SOL     OW80625  11.806   7.789  10.220 -0.7425 -0.0866  0.0452
58605SOL    HW180626  11.813   7.752  10.308 -0.1897  0.2306  0.1389
58605SOL    HW280627  11.889   7.834  10.206 -1.0196  0.2863 -0.4487
58606SOL     OW80628   1.308   6.938   4.027 -0.0276 -0.4511 -0.2455
58606SOL    HW180629   1.217   6.957   4.006 -0.4063 -0.3239  1.3917
58606SOL    HW280630   1.307   6.849   4.062  0.5126 -0.5361 -0.4329
58607SOL     OW80631   7.880   3.837   7.180  0.2888 -0.5324  0.0324
58607SOL    HW180632   7.882   3.765   7.243 -1.2358  0.2107  0.9862
58607SOL    HW280633   7.815   3.810   7.115 -0.1736 -0.0903  0.3087
58608SOL     OW80634   9.951   6.333   2.247  0.7057 -0.4115  0.1652
58608SOL    HW180635   9.909   6.417   2.263  0.4376 -0.8450  1.9456
58608SOL    HW280636  10.044   6.352   2.241  0.8452 -0.1694  2.4010
58609SOL     OW80637   0.929   9.054  11.977  0.1299  0.0135  0.1446
58609SOL    HW180638   0.907   9.131  11.924  0.3860  0.5685  0.8129
58609SOL    HW280639   1.025   9.049  11.973  0.0709 -0.6737 -0.4374
58610SOL     OW80640   9.985   5.685   5.031 -0.5761  0.1325  0.2903
58610SOL    HW180641   9.994   5.763   4.975 -0.4344 -1.3883 -1.9614
58610SOL    HW280642   9.910   5.704   5.087  0.0396  2.2507  0.4594
58611SOL     OW80643   4.055   0.754   3.085  0.9430 -0.2784  0.0771
58611SOL    HW180644   4.043   0.679   3.026 -0.1791 -0.4433  0.4934
58611SOL    HW280645   4.047   0.717   3.173 -0.1412  0.3942  0.2778
58612SOL     OW80646  12.199   2.424   6.401  0.4701 -0.4215 -0.3625
58612SOL    HW180647  12.258   2.351   6.381  0.0981 -0.8445  0.0675
58612SOL    HW280648  12.175   2.460   6.316 -0.1633 -1.4506 -0.6250
58613SOL     OW80649   6.181   9.733  10.747  0.8375  0.1065 -0.7098
58613SOL    HW180650   6.151   9.660  10.693 -1.2065 -0.8337  1.5577
58613SOL    HW280651   6.103   9.785  10.763  1.5489  0.8119  0.6458
58614SOL     OW80652   6.096   8.974   6.770  0.0478  0.0348 -0.4895
58614SOL    HW180653   6.116   8.898   6.716 -0.3708  0.0834 -0.7236
58614SOL    HW280654   6.025   8.944   6.828 -0.8277  0.5303 -1.2766
58615SOL     OW80655   5.069  12.178   8.931  0.2943 -0.3416  0.4995
58615SOL    HW180656   5.061  12.177   8.836  2.0921  0.4505  0.3007
58615SOL    HW280657   5.150  12.131   8.949 -0.2646 -0.8882  1.6840
58616SOL     OW80658   4.762   5.603   8.796  0.2666  0.3082 -0.3865
58616SOL    HW180659   4.688   5.639   8.747  1.6072  0.1034 -2.6486
58616SOL    HW280660   4.839   5.648   8.762  1.4319 -0.9936  0.3865
58617SOL     OW80661  10.680   2.321   7.406 -0.1028  0.2845  0.1164
58617SOL    HW180662  10.723   2.341   7.489 -0.1305  0.0309  0.1929
58617SOL    HW280663  10.644   2.234   7.418 -1.3114  0.7879  0.3341
58618SOL     OW80664  12.559  11.396  12.312 -0.9018 -0.0967  0.2406
58618SOL    HW180665  12.552  11.417  12.219  1.3503 -1.8976 -0.4202
58618SOL    HW280666  12.613  11.466  12.348 -1.2302  0.2502  0.0692
58619SOL     OW80667   7.234   4.603   6.470 -0.4507  0.1840  0.5440
58619SOL    HW180668   7.278   4.635   6.549  1.4018 -0.3331 -0.2256
58619SOL    HW280669   7.301   4.553   6.424 -1.8737 -0.6443 -0.7169
58620SOL     OW80670   5.298   9.696   1.822 -0.4228  0.3460 -0.2750
58620SOL    HW180671   5.207   9.676   1.800 -0.7423  0.9622  0.4739
58620SOL    HW280672   5.307   9.675   1.915  0.0903  0.6545 -0.2453
58621SOL     OW80673   5.790   4.218  12.082 -0.5525 -0.3067 -0.8870
58621SOL    HW180674   5.806   4.310  12.103  4.5451 -1.2745  0.9789
58621SOL    HW280675   5.856   4.196  12.016 -0.3983 -3.0033  0.0323
58622SOL     OW80676   4.058  12.607   5.456  0.1958 -0.3283 -0.1188
58622SOL    HW180677   4.053  12.575   5.546 -0.9482  1.3062  0.4393
58622SOL    HW280678   4.061  12.702   5.464 -1.1434 -0.0920 -1.8255
58623SOL     OW80679  10.746   3.088   5.223  0.4381  0.4812  0.3238
58623SOL    HW180680  10.762   3.137   5.141  0.9048 -0.6860 -0.3007
58623SOL    HW280681  10.832   3.083   5.265  0.9769 -2.0260 -0.9071
58624SOL     OW80682  12.182   9.584   8.195  0.3188  0.1070 -0.3196
58624SOL    HW180683  12.161   9.514   8.257 -0.8649  0.5775 -0.1756
58624SOL    HW280684  12.186   9.663   8.249  1.0225  0.2583 -0.5819
58625SOL     OW80685   4.566  10.596   4.442 -0.0778 -0.1365  0.7441
58625SOL    HW180686   4.597  10.632   4.525  0.2953 -1.0306  1.0068
58625SOL    HW280687   4.475  10.572   4.459 -0.5159  1.1863  0.3923
58626SOL     OW80688  11.308   5.784  10.341 -0.0647  0.2017 -0.4597
58626SOL    HW180689  11.280   5.743  10.423 -0.2219 -0.6065 -0.9035
58626SOL    HW280690  11.285   5.876  10.351 -0.1702  0.0950  0.3654
58627SOL     OW80691  12.611   7.019   1.685 -0.3160 -0.2135 -0.3936
58627SOL    HW180692  12.598   7.114   1.684 -1.4136 -0.3373 -2.3239
58627SOL    HW280693  12.668   7.003   1.760 -0.2337  1.9509  0.0506
58628SOL     OW80694   8.771   6.157   2.425 -0.2725 -0.0137  0.0546
58628SOL    HW180695   8.730   6.153   2.338  1.2920  2.1100 -0.8749
58628SOL    HW280696   8.842   6.094   2.421 -1.9481 -2.0692  0.8946
58629SOL     OW80697   2.128   1.438   0.295  0.1827 -0.3793 -0.5266
58629SOL    HW180698   2.035   1.415   0.295 -0.4549  1.8322  1.2920
58629SOL    HW280699   2.153   1.436   0.388  1.3364  1.2532 -0.7556
58630SOL     OW80700   1.787   2.029   9.303  0.7666 -0.3108 -0.0561
58630SOL    HW180701   1.751   2.116   9.288  0.9235 -0.4378 -1.2811
58630SOL    HW280702   1.798   2.023   9.398 -3.4163 -0.6487  0.6132
58631SOL     OW80703  10.472   0.565   1.332  0.0458 -0.7672  0.0088
58631SOL    HW180704  10.563   0.595   1.324 -0.1995 -0.2514 -1.1473
58631SOL    HW280705  10.432   0.625   1.394  0.3786 -0.6880  0.1478
58632SOL     OW80706   1.181   8.961   1.556 -0.0003  0.4964  0.6844
58632SOL    HW180707   1.269   8.977   1.522 -0.1252 -1.3945 -0.6583
58632SOL    HW280708   1.165   8.868   1.540 -1.2060  0.1435  3.4249
58633SOL     OW80709   8.437  12.285   9.426  0.3565  0.0307  0.2066
58633SOL    HW180710   8.471  12.339   9.498  0.3364 -1.5115  1.4353
58633SOL    HW280711   8.343  12.304   9.424  0.1205 -0.8219  1.4775
58634SOL     OW80712   9.842   2.349   5.894  0.1207 -0.6458  0.4121
58634SOL    HW180713   9.771   2.288   5.915 -1.2830 -0.5302 -3.2479
58634SOL    HW280714   9.864   2.329   5.803  1.2021  2.7548 -0.2038
58635SOL     OW80715   4.705   4.797   8.572 -0.0084 -0.1131  0.4208
58635SOL    HW180716   4.709   4.820   8.664 -0.4750 -0.5358  0.5499
58635SOL    HW280717   4.760   4.863   8.528 -1.3994  1.3211  0.7528
58636SOL     OW80718   7.433   2.417  10.259 -0.2244 -0.4783  0.6596
58636SOL    HW180719   7.478   2.384  10.181  0.8046  1.1648  0.5085
58636SOL    HW280720   7.460   2.359  10.330  3.2307  1.1112  0.8338
58637SOL     OW80721   7.496   4.767   6.419 -0.4331 -0.2510 -0.0308
58637SOL    HW180722   7.461   4.855   6.433  1.2506  0.4107  0.2450
58637SOL    HW280723   7.496   4.727   6.506  1.0999  0.3978  0.2963
58638SOL     OW80724   0.140   7.670   8.093 -0.5944  0.3525 -0.6761
58638SOL    HW180725   0.055   7.657   8.050  0.1153 -1.5392 -1.6314
58638SOL    HW280726   0.202   7.680   8.020  0.1428  0.8189 -0.0011
58639SOL     OW80727   0.116   3.319  10.466 -0.5513  0.2913  0.2898
58639SOL    HW180728   0.087   3.288  10.551  1.9983 -1.2474  0.7195
58639SOL    HW280729   0.050   3.285  10.405 -1.1551 -0.6452  1.4132
58640SOL     OW80730   8.609   6.614   7.780  0.7361 -0.4344  0.2754
58640SOL    HW180731   8.605   6.524   7.813 -0.9573 -0.6065 -0.2870
58640SOL    HW280732   8.653   6.607   7.695 -0.4782 -0.9604 -0.3440
58641SOL     OW80733   8.845  12.488   2.296 -0.5247 -0.1960 -0.1011
58641SOL    HW180734   8.838  12.393   2.287 -0.3926 -0.3024  0.7930
58641SOL    HW280735   8.768  12.522   2.251  0.8392 -0.5410 -2.8867
58642SOL     OW80736   9.833   1.063   1.975  0.0125 -0.0177 -0.5268
58642SOL    HW180737   9.859   0.975   1.951  0.6336 -0.3513  1.2107
58642SOL    HW280738   9.835   1.112   1.893  0.0565 -1.5012 -1.4482
58643SOL     OW80739   8.145   5.411   6.980 -0.1969 -0.6657 -0.5579
58643SOL    HW180740   8.231   5.433   6.943 -0.0704 -0.7234 -0.3019
58643SOL    HW280741   8.157   5.420   7.075 -0.6982  0.1331 -0.5570
58644SOL     OW80742   0.230   5.986  10.700  0.0942  0.0644 -0.0520
58644SOL    HW180743   0.147   5.962  10.742 -0.0031 -0.9317 -0.7749
58644SOL    HW280744   0.254   6.068  10.741 -1.1906  0.3091  0.2732
58645SOL     OW80745   0.919   9.127  11.604 -0.4306  0.0408  0.1740
58645SOL    HW180746   0.858   9.131  11.531  1.6453  2.2178 -1.6029
58645SOL    HW280747   0.933   9.218  11.630  0.0601 -0.5702  2.2981
58646SOL     OW80748   7.471   8.691  11.682  0.1371  0.8179 -0.9262
58646SOL    HW180749   7.465   8.725  11.593 -0.5434  1.0232 -0.8025
58646SOL    HW280750   7.430   8.757  11.737 -0.7519  0.0457 -0.6271
58647SOL     OW80751   9.716   6.239   9.408  0.7323 -0.1142  0.1639
58647SOL    HW180752   9.698   6.161   9.356 -1.0339  0.0765  0.4328
58647SOL    HW280753   9.811   6.238   9.421  0.8009 -1.9512 -0.2239
58648SOL     OW80754  11.452  10.919   6.735  0.2850 -0.1309  0.0823
58648SOL    HW180755  11.517  10.986   6.715  0.2896  0.1132  0.9048
58648SOL    HW280756  11.376  10.968   6.767 -0.0263 -0.4625 -0.1406
58649SOL     OW80757   4.225   9.106   8.227 -0.8599 -0.0963 -0.0853
58649SOL    HW180758   4.264   9.106   8.314 -1.4340  1.2380  0.1977
58649SOL    HW280759   4.287   9.056   8.173  1.2208  1.8311  0.3622
58650SOL     OW80760   4.657   9.708   4.217  0.2039  0.2592  0.3218
58650SOL    HW180761   4.702   9.667   4.143 -0.4976  1.9542 -1.0969
58650SOL    HW280762   4.599   9.640   4.251  1.1953 -0.8206 -0.0821
58651SOL     OW80763   9.056   3.033  10.034  0.3914 -0.3537 -0.2514
58651SOL    HW180764   9.127   2.972  10.053 -0.4612 -1.3698 -0.2600
58651SOL    HW280765   8.981   3.000  10.084  0.0006  0.9052  0.0536
58652SOL     OW80766   2.092   9.708   4.711  0.1236 -0.2656  0.0671
58652SOL    HW180767   2.025   9.669   4.654  1.6058 -3.0074  0.0179
58652SOL    HW280768   2.043   9.767   4.768 -1.5859  1.7467 -3.1750
58653SOL     OW80769   4.619   2.717   0.944 -0.0612 -0.0604  0.7162
58653SOL    HW180770   4.592   2.809   0.936 -0.8420 -0.2502  1.1070
58653SOL    HW280771   4.546   2.674   0.988 -0.1416 -1.0801 -0.3552
58654SOL     OW80772   3.517   6.554  12.181  0.7075  0.3571 -0.2643
58654SOL    HW180773   3.606   6.519  12.165  1.2234  1.7210 -0.4999
58654SOL    HW280774   3.532   6.640  12.220 -0.4858  1.1952 -1.5708
58655SOL     OW80775   6.945   4.142  10.104 -0.2250  0.5034  0.5184
58655SOL    HW180776   6.918   4.143  10.012  0.7906  0.4210  0.2030
58655SOL    HW280777   6.904   4.220  10.142 -0.6853  0.5155  0.0086
58656SOL     OW80778   7.274   8.781   6.439 -0.7626  0.0022 -0.0459
58656SOL    HW180779   7.346   8.783   6.377  0.2869 -1.9390  1.0099
58656SOL    HW280780   7.275   8.868   6.480  2.9764 -0.8034  2.0302
58657SOL     OW80781   8.115   4.209   5.503 -0.2293 -0.1403 -0.1909
58657SOL    HW180782   8.096   4.298   5.472 -2.3248 -0.1986  0.8065
58657SOL    HW280783   8.186   4.221   5.566 -0.7446  0.8766  0.2183
58658SOL     OW80784   8.221   4.498   3.061 -0.1815 -0.7006  0.1981
58658SOL    HW180785   8.178   4.414   3.045 -0.9815 -0.8860  2.7966
58658SOL    HW280786   8.164   4.563   3.021  0.0069 -1.3016 -1.0933
58659SOL     OW80787   2.516   9.811   9.077  0.4304  0.5566  0.4146
58659SOL    HW180788   2.536   9.717   9.082 -0.4663  0.4048  1.3212
58659SOL    HW280789   2.423   9.815   9.055  0.9615  1.2645 -1.9703
58660SOL     OW80790   1.656  11.459  11.683 -0.3486  0.3302  0.0009
58660SOL    HW180791   1.727  11.522  11.698  0.3196 -0.7090  1.5016
58660SOL    HW280792   1.608  11.456  11.766 -0.2370 -1.2485  0.0551
58661SOL     OW80793  11.738   0.268   0.885 -0.0289  0.1597 -0.2937
58661SOL    HW180794  11.825   0.240   0.859  0.3244 -0.4190  1.3537
58661SOL    HW280795  11.700   0.191   0.928 -0.9303  0.7307 -0.0374
58662SOL     OW80796  10.139   3.297   4.844 -0.2215 -0.0297 -0.3794
58662SOL    HW180797  10.071   3.360   4.870 -0.6032 -0.4902 -0.2425
58662SOL    HW280798  10.091   3.227   4.800  0.1950 -0.2630 -0.4668
58663SOL     OW80799  11.635   1.362   7.707  0.1129 -0.1836 -0.8173
58663SOL    HW180800  11.697   1.314   7.762  0.7830 -0.1238 -1.4956
58663SOL    HW280801  11.629   1.448   7.747  2.8084  0.8512 -2.3311
58664SOL     OW80802   3.980   6.341   7.154 -0.0098  0.3185 -0.0158
58664SOL    HW180803   4.063   6.310   7.117 -0.0793  0.7587 -0.5502
58664SOL    HW280804   4.007   6.398   7.226  0.1274 -0.3671  0.4965
58665SOL     OW80805   2.277   7.693   4.923  0.4255  0.0962 -0.3102
58665SOL    HW180806   2.229   7.771   4.951  1.8751  0.5955  0.9410
58665SOL    HW280807   2.221   7.652   4.858 -2.6653 -0.4432  2.4602
58666SOL     OW80808   3.138   5.296   6.638 -0.1791  0.1518  0.3367
58666SOL    HW180809   3.218   5.344   6.658 -0.6556  1.4613 -0.6824
58666SOL    HW280810   3.092   5.289   6.722 -0.0852  1.5207  0.5260
58667SOL     OW80811   9.220   5.708   7.095 -0.3553  0.3429  0.0106
58667SOL    HW180812   9.205   5.748   7.180 -1.4513 -1.5111  0.7413
58667SOL    HW280813   9.218   5.781   7.033  1.5249  1.8829  1.6192
58668SOL     OW80814   1.006   9.676   1.441  0.0135  0.3231  0.6537
58668SOL    HW180815   1.046   9.741   1.382 -3.0135 -0.3448 -2.4470
58668SOL    HW280816   1.036   9.592   1.407 -1.8981 -0.0803 -0.1304
58669SOL     OW80817   8.856   8.832   5.637  0.3266  0.0511 -0.2318
58669SOL    HW180818   8.867   8.815   5.543 -1.7096 -1.6578 -0.2543
58669SOL    HW280819   8.812   8.753   5.670 -1.1849  1.5850  1.6665
58670SOL     OW80820   0.278   7.372   1.124 -0.5476 -0.0020 -0.5355
58670SOL    HW180821   0.339   7.419   1.181 -1.7061  1.1471 -0.2125
58670SOL    HW280822   0.335   7.319   1.068  0.6547 -0.7598  1.2948
58671SOL     OW80823   3.687   1.949   2.445  0.2014  1.1697 -0.0165
58671SOL    HW180824   3.599   1.916   2.464  0.9119 -0.5616  0.4468
58671SOL    HW280825   3.710   2.002   2.522  1.0251 -1.5575  1.7688
58672SOL     OW80826   3.760   5.395  11.396 -1.2037  0.0646 -0.0309
58672SOL    HW180827   3.670   5.364  11.407 -1.0871  0.1905  1.4572
58672SOL    HW280828   3.767   5.470  11.455 -0.8775  1.7517 -2.0922
58673SOL     OW80829   0.065   4.945   4.446 -0.6138  0.1399  0.1530
58673SOL    HW180830   0.089   4.872   4.390 -2.5460  0.6836 -1.5125
58673SOL    HW280831   0.124   4.939   4.521  0.1715 -2.2998 -0.5826
58674SOL     OW80832  10.438   7.447   0.964 -0.2362 -0.3183  0.0162
58674SOL    HW180833  10.495   7.396   0.906  0.1411  0.4483 -0.3024
58674SOL    HW280834  10.370   7.481   0.907  0.0067  0.2477  0.0551
58675SOL     OW80835   2.803   7.493   4.366 -0.0818 -0.1018  0.1780
58675SOL    HW180836   2.765   7.530   4.445  1.4963  0.3163  0.7899
58675SOL    HW280837   2.807   7.566   4.304 -0.5641 -0.2257 -0.0002
58676SOL     OW80838   9.335   5.813   4.648  0.1247  0.6602 -0.3693
58676SOL    HW180839   9.342   5.859   4.564 -0.2590  0.9322 -0.2536
58676SOL    HW280840   9.415   5.759   4.652  0.2962  0.8767 -0.7657
58677SOL     OW80841  12.270   9.542   3.440  0.2502  0.2055 -0.1276
58677SOL    HW180842  12.284   9.498   3.356  1.4990  2.4964 -1.2103
58677SOL    HW280843  12.357   9.547   3.479  0.1066  1.4023  0.0873
58678SOL     OW80844   1.469   1.051   0.270 -0.2664  0.3027  0.0898
58678SOL    HW180845   1.468   1.144   0.250 -0.4566  0.1746 -0.5310
58678SOL    HW280846   1.392   1.016   0.225 -1.7313  0.2668  2.4325
58679SOL     OW80847   3.566   5.553  10.850 -0.0918 -0.3508  0.4792
58679SOL    HW180848   3.479   5.582  10.878 -0.1491  1.2108 -1.1432
58679SOL    HW280849   3.626   5.604  10.904 -0.1894 -0.5322  0.7587
58680SOL     OW80850  10.427   7.494   6.801 -0.0522  0.4410  0.0954
58680SOL    HW180851  10.473   7.476   6.720 -0.1283 -2.3063  0.5767
58680SOL    HW280852  10.395   7.409   6.831 -0.0738  1.3347  2.9846
58681SOL     OW80853   3.832   8.251  10.283 -0.3389 -0.5259  0.1035
58681SOL    HW180854   3.857   8.164  10.250 -1.5320 -0.8610  0.0500
58681SOL    HW280855   3.795   8.233  10.370 -1.2595 -0.1642 -0.2075
58682SOL     OW80856   7.416   9.143  10.839 -0.2112 -0.0677 -1.0947
58682SOL    HW180857   7.389   9.088  10.765 -0.1935  3.1451 -3.7182
58682SOL    HW280858   7.337   9.194  10.860 -0.1976 -0.8849  1.1698
58683SOL     OW80859   2.985   8.483  10.385 -0.3560  0.3624  0.4501
58683SOL    HW180860   3.000   8.393  10.356  0.9645  1.1922 -1.6557
58683SOL    HW280861   3.070   8.513  10.416 -0.5438  1.1986  0.1859
58684SOL     OW80862  12.012   9.922   0.227  0.1239 -0.1630  0.2704
58684SOL    HW180863  12.025  10.002   0.278 -1.0164 -0.1768  0.6062
58684SOL    HW280864  11.994   9.854   0.292 -0.3216 -0.3930 -0.0832
58685SOL     OW80865   8.601   6.749   9.153 -0.2437  0.1672 -0.1985
58685SOL    HW180866   8.525   6.802   9.128  0.7369  0.9948 -1.5333
58685SOL    HW280867   8.677   6.800   9.124  0.7451 -2.3224 -2.3942
58686SOL     OW80868  10.882   4.663  11.380  0.1811  0.1938 -0.4756
58686SOL    HW180869  10.874   4.575  11.417 -1.2443  0.6522  0.4093
58686SOL    HW280870  10.799   4.678  11.336  0.2863  1.1974 -0.3707
58687SOL     OW80871   4.274   1.190   4.759  0.5491  0.3503  0.0642
58687SOL    HW180872   4.248   1.276   4.727 -0.2568  0.1745  0.2240
58687SOL    HW280873   4.246   1.189   4.850 -1.4008 -0.8229 -0.4733
58688SOL     OW80874   4.572  12.459  11.674 -0.1652  0.2660  0.1837
58688SOL    HW180875   4.658  12.464  11.632  0.6024  1.3620  1.7744
58688SOL    HW280876   4.513  12.504  11.613 -0.0829 -2.2098 -1.8619
58689SOL     OW80877   0.845   8.031  10.517 -0.2933  0.0354  0.2913
58689SOL    HW180878   0.769   8.061  10.468 -1.4450 -1.3792  1.1345
58689SOL    HW280879   0.896   7.980  10.454 -0.4394  0.3289 -0.0684
58690SOL     OW80880   5.028   2.724   7.851  0.7384 -0.0939  0.1165
58690SOL    HW180881   5.087   2.710   7.925 -0.0947  0.4294  0.9050
58690SOL    HW280882   4.984   2.806   7.871  1.3979  0.7333 -1.5932
58691SOL     OW80883   3.984   2.169   4.812 -0.0161 -0.2094  0.1220
58691SOL    HW180884   3.937   2.087   4.825 -0.9217  0.2927  0.1285
58691SOL    HW280885   4.047   2.172   4.884 -1.2509 -0.0388  1.2490
58692SOL     OW80886   3.515   0.716   8.886 -0.4069  0.1225  0.3211
58692SOL    HW180887   3.572   0.790   8.907  1.2515 -0.7561 -0.9137
58692SOL    HW280888   3.493   0.727   8.794 -3.3164  1.0930  1.0161
58693SOL     OW80889   1.330   2.656   5.979 -0.4332  0.1294 -0.2195
58693SOL    HW180890   1.316   2.750   5.968 -0.6879  0.0465 -0.6107
58693SOL    HW280891   1.303   2.638   6.069 -2.0124  0.1358 -0.6621
58694SOL     OW80892   9.608   4.941   3.232  0.2755  0.5461 -0.0122
58694SOL    HW180893   9.559   4.947   3.150 -0.8096  0.8861  0.6524
58694SOL    HW280894   9.677   4.877   3.214 -0.0605  0.4783 -1.1279
58695SOL     OW80895   9.594   8.608   6.578 -0.2788  0.7957 -0.0842
58695SOL    HW180896   9.548   8.528   6.552 -2.0876  1.7996 -0.1665
58695SOL    HW280897   9.648   8.630   6.502 -1.1025  0.5887 -0.7455
58696SOL     OW80898   2.942   7.937   1.846 -0.3400 -0.6009 -0.0656
58696SOL    HW180899   3.005   8.008   1.857 -0.9994 -0.2208  1.6990
58696SOL    HW280900   2.994   7.863   1.817  0.7345 -0.0067  0.2848
58697SOL     OW80901   3.212   6.867   6.914 -0.0223 -0.2331  0.0232
58697SOL    HW180902   3.297   6.890   6.952 -0.3736  0.4721  0.4024
58697SOL    HW280903   3.176   6.951   6.885 -0.8892 -0.4464  0.4857
58698SOL     OW80904  12.401  11.007   1.783  0.6211  0.2727 -0.4804
58698SOL    HW180905  12.328  10.953   1.815  1.0491  0.2431  0.4845
58698SOL    HW280906  12.437  11.048   1.862  1.1765  0.8849 -1.0361
58699SOL     OW80907   3.872   3.124   1.084  0.2976 -0.0970 -0.3745
58699SOL    HW180908   3.778   3.114   1.097  0.3386 -1.4515 -1.0314
58699SOL    HW280909   3.898   3.047   1.034  1.2620  1.7127 -2.8437
58700SOL     OW80910   7.871  10.948   0.344 -0.1906  0.1150  0.2449
58700SOL    HW180911   7.821  10.879   0.388 -0.2802 -0.5755 -0.8928
58700SOL    HW280912   7.887  10.914   0.256  0.5509  1.1761 -0.0572
58701SOL     OW80913   9.807  12.362   8.541 -0.3127 -0.0955 -0.2815
58701SOL    HW180914   9.885  12.315   8.514  0.8468  0.9221  1.1518
58701SOL    HW280915   9.781  12.321   8.624 -0.8269  0.0923 -0.3405
58702SOL     OW80916   5.778  10.350  11.798 -0.2086 -0.0870 -0.0397
58702SOL    HW180917   5.869  10.366  11.773 -0.0919  0.1101  0.4956
58702SOL    HW280918   5.764  10.257  11.781 -0.6088  0.3134 -2.3028
58703SOL     OW80919   9.292   9.753   0.552  0.0941  0.0810  0.0153
58703SOL    HW180920   9.249   9.668   0.545 -0.6399  0.5060 -0.6425
58703SOL    HW280921   9.313   9.778   0.462  1.4416  0.0331  0.2883
58704SOL     OW80922   9.107   7.337   5.665 -0.5117  0.1248 -0.1774
58704SOL    HW180923   9.164   7.265   5.640  0.1430  1.1592 -1.8278
58704SOL    HW280924   9.021   7.297   5.679  0.0088 -1.0628 -0.2918
58705SOL     OW80925   5.055   7.132   6.970  0.8636  0.2809  0.2573
58705SOL    HW180926   4.991   7.076   7.014 -1.8600  1.5328 -1.7890
58705SOL    HW280927   5.121   7.072   6.938 -0.4015 -1.3960  0.6182
58706SOL     OW80928   1.395   0.300   3.243  0.0822  0.1361 -0.0403
58706SOL    HW180929   1.478   0.336   3.213  0.0483  1.7282  1.6112
58706SOL    HW280930   1.418   0.215   3.280  0.8488  0.2529 -0.2218
58707SOL     OW80931   2.975   4.046   1.229  0.2167  0.0973  0.4987
58707SOL    HW180932   2.954   4.083   1.143  1.9210  0.0218  0.0200
58707SOL    HW280933   2.921   4.097   1.290 -1.9367 -0.6457 -0.6712
58708SOL     OW80934   8.584   4.614   3.421  0.0256 -0.2066 -0.0556
58708SOL    HW180935   8.520   4.564   3.371  0.6804 -1.2368  0.0970
58708SOL    HW280936   8.625   4.550   3.479 -1.0295  1.0277  2.1904
58709SOL     OW80937   5.881   7.968   8.435 -0.1077 -0.0929 -0.1432
58709SOL    HW180938   5.790   7.939   8.424 -1.1789  2.3803  1.3198
58709SOL    HW280939   5.878   8.030   8.508  2.4290  1.4848 -1.2240
58710SOL     OW80940   8.214  10.227   4.564 -0.4383  0.2635  0.4813
58710SOL    HW180941   8.185  10.313   4.594  0.1942 -0.0344  2.0460
58710SOL    HW280942   8.156  10.165   4.608 -0.7567 -0.1422 -0.4727
58711SOL     OW80943   5.634   3.238   1.195  0.0769 -0.0652  0.1782
58711SOL    HW180944   5.547   3.277   1.204 -0.8782 -1.4631 -2.2195
58711SOL    HW280945   5.693   3.313   1.185 -1.0066  0.8708  0.6480
58712SOL     OW80946  10.111  10.752   2.352 -0.0707 -0.3324 -0.0968
58712SOL    HW180947  10.110  10.814   2.425  0.2523 -0.4321 -0.0056
58712SOL    HW280948  10.028  10.767   2.307 -1.0887 -1.5045  1.3080
58713SOL     OW80949   8.631   0.897   1.344  0.6590  0.2803 -0.3112
58713SOL    HW180950   8.657   0.989   1.357  0.2180  0.1844  1.5953
58713SOL    HW280951   8.659   0.853   1.424 -0.7143 -0.8779 -0.4212
58714SOL     OW80952   9.004   2.872  12.514 -0.3643  0.1743  0.5592
58714SOL    HW180953   9.054   2.812  12.458 -4.2088 -2.1454 -0.8044
58714SOL    HW280954   9.005   2.956  12.467  1.5031 -0.0043  0.2241
58715SOL     OW80955  11.174   1.331  11.899  0.1438  0.4429  0.9958
58715SOL    HW180956  11.256   1.318  11.851 -0.3654 -1.3398  0.5430
58715SOL    HW280957  11.201   1.344  11.990  0.9742  1.3289  0.6437
58716SOL     OW80958   4.569   7.534   1.796 -0.2379  0.3699  0.0244
58716SOL    HW180959   4.501   7.556   1.860  1.6652  0.0713  2.2662
58716SOL    HW280960   4.610   7.618   1.775  1.8421  0.0918  2.5068
58717SOL     OW80961   6.691  12.059   6.957  0.6099  0.2190 -0.4046
58717SOL    HW180962   6.770  12.021   6.917 -0.3411 -0.3616 -1.8159
58717SOL    HW280963   6.696  12.152   6.935  0.4650  0.0272 -1.2841
58718SOL     OW80964  10.039  11.730   1.669 -0.8046  0.0127 -0.1994
58718SOL    HW180965  10.133  11.711   1.668 -0.6595  0.6913  0.0617
58718SOL    HW280966  10.021  11.759   1.758 -1.1651  0.3826 -0.3886
58719SOL     OW80967   0.539   0.858   1.506  1.3264 -0.1274  0.3981
58719SOL    HW180968   0.514   0.906   1.427  0.6560 -0.6871  0.2629
58719SOL    HW280969   0.604   0.914   1.549  2.9956 -0.5985 -1.4069
58720SOL     OW80970   4.350  11.001   6.986 -0.6157 -0.3867  0.0166
58720SOL    HW180971   4.319  10.978   7.073  0.8819 -0.6952  0.4939
58720SOL    HW280972   4.428  10.946   6.972  0.1134  0.8004 -0.8470
58721SOL     OW80973   5.400   9.558   8.230  0.0076 -0.4597 -0.0034
58721SOL    HW180974   5.388   9.487   8.293 -0.8945 -0.1068  0.2358
58721SOL    HW280975   5.459   9.619   8.274 -0.5166 -0.2773  0.4669
58722SOL     OW80976  12.017   2.714   3.190 -0.2323  0.2826  0.0527
58722SOL    HW180977  11.971   2.743   3.268 -2.1199 -0.4771 -0.7137
58722SOL    HW280978  12.085   2.780   3.176 -0.0654  0.6184  2.0989
58723SOL     OW80979   1.943   9.909   4.836  0.1370  0.4877 -0.3757
58723SOL    HW180980   1.857   9.882   4.870 -1.1370  1.8122 -2.2906
58723SOL    HW280981   1.971   9.979   4.896 -0.7015  0.8406 -0.3759
58724SOL     OW80982  12.363  10.773   8.010  0.1143  0.0145  0.0873
58724SOL    HW180983  12.288  10.751   8.066 -0.7485  1.3595 -0.4925
58724SOL    HW280984  12.334  10.750   7.922  0.4652  0.3320 -0.1126
58725SOL     OW80985   3.839   7.100   8.717 -0.0770  0.1593  0.0933
58725SOL    HW180986   3.793   7.031   8.670  0.3800 -0.3222  0.3489
58725SOL    HW280987   3.769   7.150   8.761 -0.3048 -3.2519  4.3114
58726SOL     OW80988   6.583   6.149   6.115 -0.5021  0.0318 -0.3148
58726SOL    HW180989   6.524   6.201   6.170 -1.8147 -1.0003 -0.6802
58726SOL    HW280990   6.618   6.082   6.174  0.5588  0.8168 -0.0309
58727SOL     OW80991   1.520   5.009   2.697 -0.3792 -0.1122 -0.5981
58727SOL    HW180992   1.489   5.086   2.649 -0.9706 -0.5188 -0.8857
58727SOL    HW280993   1.564   5.045   2.774 -0.3392  0.5225 -0.9086
58728SOL     OW80994   4.167  11.611   0.124  0.2728  0.6761 -0.1914
58728SOL    HW180995   4.076  11.586   0.111  1.0362 -1.3862 -2.2657
58728SOL    HW280996   4.217  11.534   0.098  2.6164  1.3353  2.0238
58729SOL     OW80997   8.934   3.732   8.414  0.2707 -0.0947 -0.1729
58729SOL    HW180998   8.885   3.709   8.493  1.3761 -0.1099  0.5135
58729SOL    HW280999   8.916   3.825   8.401 -0.6796 -0.3042 -0.4654
58730SOL     OW81000   5.699  12.193   1.926  0.4177  0.1160 -0.2184
58730SOL    HW181001   5.752  12.273   1.924  0.6434 -0.0488 -1.0606
58730SOL    HW281002   5.731  12.141   1.853  1.2558 -1.3935  1.1706
58731SOL     OW81003  12.597   2.403   3.310  0.0117  0.0048  0.1354
58731SOL    HW181004  12.556   2.317   3.301 -1.6533  0.8311 -0.6110
58731SOL    HW281005  12.553   2.443   3.385  2.4612 -0.6306  2.0754
58732SOL     OW81006  11.831  10.017   9.002 -0.4828 -0.2361  0.3094
58732SOL    HW181007  11.904   9.955   9.010  0.0354  0.3246  0.0098
58732SOL    HW281008  11.789  10.014   9.088  1.3671  1.2198  1.3507
58733SOL     OW81009   1.702   9.649   8.588  0.2350 -0.2827 -0.7235
58733SOL    HW181010   1.633   9.582   8.583 -0.5689  0.3532  1.0346
58733SOL    HW281011   1.779   9.601   8.620 -0.9120 -0.1170  2.7131
58734SOL     OW81012   2.376   7.574  12.258  0.2615 -0.0590  0.4197
58734SOL    HW181013   2.347   7.520  12.331  0.4703  1.8600  2.0158
58734SOL    HW281014   2.469   7.589  12.274  0.0697  1.3011  0.4424
58735SOL     OW81015   3.427   5.739   3.281 -0.0040  0.0594 -0.1679
58735SOL    HW181016   3.365   5.666   3.282 -0.7432  0.6691 -0.4604
58735SOL    HW281017   3.510   5.699   3.253 -0.2541 -0.7660  0.2307
58736SOL     OW81018   2.487   8.798   2.071  0.6179  0.3247  0.3772
58736SOL    HW181019   2.572   8.805   2.027 -0.1511  0.6296 -1.1076
58736SOL    HW281020   2.466   8.888   2.097  0.6785  0.2661  0.6380
58737SOL     OW81021  10.332   2.127  11.746  0.3333 -0.2866 -0.2322
58737SOL    HW181022  10.358   2.171  11.827  1.5984 -0.6006 -0.4458
58737SOL    HW281023  10.384   2.047  11.745 -1.0893 -1.2536 -0.4110
58738SOL     OW81024   2.165  10.021   7.287  0.0572  0.9865  0.0967
58738SOL    HW181025   2.179  10.110   7.321 -1.0778  1.3136 -0.2445
58738SOL    HW281026   2.208  10.022   7.201  0.8587  0.9004  0.4864
58739SOL     OW81027  12.510   5.402   0.452  0.2382  0.4405 -0.2336
58739SOL    HW181028  12.587   5.393   0.509  1.0651 -0.1451 -1.3921
58739SOL    HW281029  12.536   5.361   0.370 -1.0794  0.8626 -0.8983
58740SOL     OW81030  12.346  10.850  11.318 -0.3701 -0.0140  0.2048
58740SOL    HW181031  12.355  10.756  11.333  3.1851  0.2448  0.4205
58740SOL    HW281032  12.332  10.887  11.405  2.4497 -0.0689  0.7682
58741SOL     OW81033   5.058   9.871  12.566 -0.3035 -0.1664 -0.1094
58741SOL    HW181034   5.116   9.797  12.549  1.7140  1.3728 -0.2789
58741SOL    HW281035   5.096   9.914  12.643 -1.1970  0.9136 -0.2493
58742SOL     OW81036   9.046   4.132   4.050 -0.4586  0.2391 -0.7151
58742SOL    HW181037   9.042   4.226   4.028 -0.1352  0.5184  0.3559
58742SOL    HW281038   8.957   4.111   4.078 -0.2590  0.5268  0.1649
58743SOL     OW81039   9.644   3.772  10.958 -0.5424  0.3738  0.1679
58743SOL    HW181040   9.579   3.835  10.925  1.1572  1.7993 -0.6603
58743SOL    HW281041   9.625   3.691  10.910 -1.1944  0.9915 -0.6752
58744SOL     OW81042   4.156   1.343   9.119  0.2588 -0.0687  0.1085
58744SOL    HW181043   4.119   1.311   9.201  1.6259  0.0340  0.7981
58744SOL    HW281044   4.081   1.355   9.061 -0.7493  0.0266  1.4061
58745SOL     OW81045   5.072  11.787   5.861  0.0280 -0.1124  0.2148
58745SOL    HW181046   5.109  11.840   5.791  0.8818  2.3298  2.3525
58745SOL    HW281047   5.122  11.705   5.858  1.7876  0.9252 -0.4593
58746SOL     OW81048   5.295   8.737  10.164 -0.3705  0.1843 -0.1614
58746SOL    HW181049   5.337   8.665  10.211 -1.9386 -0.7276 -0.0987
58746SOL    HW281050   5.334   8.816  10.202  1.0101 -0.5985  0.1222
58747SOL     OW81051  12.035   9.511  10.607 -0.0080  0.0171 -0.2398
58747SOL    HW181052  12.109   9.568  10.631 -0.1419 -0.3482  1.1096
58747SOL    HW281053  12.002   9.548  10.526  1.3203  0.5176 -0.5869
58748SOL     OW81054   4.645   7.256   4.602  0.2787  0.2413  0.1548
58748SOL    HW181055   4.667   7.339   4.643  2.3711  0.0959 -0.5178
58748SOL    HW281056   4.684   7.262   4.514 -0.1042 -1.1894 -0.1385
58749SOL     OW81057   2.657   3.702   2.927 -0.0638  0.0039 -0.1003
58749SOL    HW181058   2.714   3.714   2.851  0.2792  1.7640  0.3727
58749SOL    HW281059   2.710   3.730   3.002 -0.8434 -0.3638  0.6112
58750SOL     OW81060   7.334   7.552   8.865  0.4682  0.0660 -0.5171
58750SOL    HW181061   7.406   7.587   8.813 -0.3898  1.7158 -0.6591
58750SOL    HW281062   7.256   7.571   8.813 -0.0863 -1.7001 -0.3702
58751SOL     OW81063   5.199   1.616  10.106 -0.1675 -0.2264 -0.1886
58751SOL    HW181064   5.226   1.549  10.169 -1.0856 -0.8986 -0.4755
58751SOL    HW281065   5.120   1.654  10.144 -1.7929 -1.8746 -1.6807
58752SOL     OW81066   9.520   1.132  10.742  0.2982  0.3717  0.2024
58752SOL    HW181067   9.543   1.075  10.815  0.2603 -4.3031 -2.9972
58752SOL    HW281068   9.605   1.160  10.706  0.3294  1.5932  1.1522
58753SOL     OW81069   6.951   7.851  12.456 -0.2061 -0.1227 -0.3316
58753SOL    HW181070   6.964   7.907  12.380 -0.5537 -0.3069 -0.5294
58753SOL    HW281071   6.858   7.829  12.454  0.3151 -2.4899 -1.5152
58754SOL     OW81072   6.299   3.055   5.689 -0.4028  0.3450  0.6444
58754SOL    HW181073   6.306   3.115   5.615 -1.0803 -0.2814  0.0639
58754SOL    HW281074   6.334   3.104   5.763 -1.5093  1.6890  0.3127
58755SOL     OW81075   0.607   6.657   9.467  0.1375  0.1221  0.1494
58755SOL    HW181076   0.545   6.594   9.431 -0.0460  0.6262 -0.4167
58755SOL    HW281077   0.609   6.728   9.404  0.0859  0.8497  0.9479
58756SOL     OW81078   9.917   5.279   3.461  0.3627 -0.6116  0.1189
58756SOL    HW181079   9.830   5.311   3.437  0.2348  0.1493  1.4507
58756SOL    HW281080   9.903   5.230   3.542  1.3623  0.9944  1.3444
58757SOL     OW81081   8.702   8.855  11.264 -0.2025 -0.1420 -0.2001
58757SOL    HW181082   8.645   8.906  11.206 -1.9171 -3.1453 -1.4240
58757SOL    HW281083   8.710   8.770  11.220  1.8324 -1.2137  2.0377
58758SOL     OW81084   9.187   7.707  12.421 -0.2822 -0.5318  0.0486
58758SOL    HW181085   9.092   7.704  12.432 -0.2950  0.2912  0.2226
58758SOL    HW281086   9.221   7.733  12.506  0.2610 -2.6621  0.5448
58759SOL     OW81087   9.290  11.556   8.957 -0.5324 -0.2823 -0.9138
58759SOL    HW181088   9.263  11.472   8.995  0.6193  1.0022  3.2507
58759SOL    HW281089   9.211  11.609   8.956 -0.6235 -0.4070 -0.4622
58760SOL     OW81090  10.734   3.821   8.418 -0.2013 -0.2996 -0.1177
58760SOL    HW181091  10.666   3.861   8.362 -1.6109 -0.4530  1.4184
58760SOL    HW281092  10.762   3.744   8.369 -0.4154  0.2948 -1.2285
58761SOL     OW81093   2.911   4.747   8.479  0.6492  0.5759 -0.5944
58761SOL    HW181094   2.866   4.707   8.405 -0.1475  3.0429 -1.5480
58761SOL    HW281095   2.995   4.701   8.484  0.0988 -0.6687 -2.0383
58762SOL     OW81096  11.796   1.931   5.338 -0.0766 -0.2221  0.3895
58762SOL    HW181097  11.755   2.006   5.382 -0.0442 -0.7767  1.3646
58762SOL    HW281098  11.733   1.907   5.270 -0.8839 -0.3788  1.1745
58763SOL     OW81099   9.693   5.671   1.943  0.4462 -0.3068 -0.2618
58763SOL    HW181100   9.636   5.747   1.928  1.1428  0.5679  1.3790
58763SOL    HW281101   9.633   5.596   1.938 -0.4673  0.4164 -0.6741
58764SOL     OW81102   1.168   7.234   4.768 -0.4569  0.6810  0.0362
58764SOL    HW181103   1.122   7.194   4.841 -1.6847  0.1958 -0.9561
58764SOL    HW281104   1.257   7.250   4.800 -0.1785 -1.9411  0.7882
58765SOL     OW81105   6.563   8.462  10.907 -0.5302 -0.2459 -0.3239
58765SOL    HW181106   6.598   8.376  10.883  2.6016  0.5686  0.8404
58765SOL    HW281107   6.518   8.447  10.990 -0.4595 -0.8551 -0.3888
58766SOL     OW81108  11.608   1.991   6.075 -0.6549 -0.5213 -0.5912
58766SOL    HW181109  11.602   1.897   6.056 -0.3408 -0.3816 -1.3892
58766SOL    HW281110  11.518   2.022   6.066 -0.5606 -0.5158 -1.5604
58767SOL     OW81111  11.546   7.322   6.509  0.3954 -0.4889  0.0169
58767SOL    HW181112  11.466   7.364   6.478 -0.0932 -1.1047  0.4246
58767SOL    HW281113  11.575   7.268   6.436  3.4068  3.6188 -2.2627
58768SOL     OW81114   2.555   7.421   5.834  0.8237 -0.0718 -0.5586
58768SOL    HW181115   2.487   7.472   5.878 -0.6260 -0.4257 -2.2964
58768SOL    HW281116   2.637   7.457   5.867 -0.1749  0.6223  1.3117
58769SOL     OW81117   6.979   1.996   6.926  0.1506  0.0096  0.0322
58769SOL    HW181118   6.894   1.990   6.882  0.0293  0.9142  0.1171
58769SOL    HW281119   7.035   2.040   6.862  0.9146 -1.6449 -0.5036
58770SOL     OW81120  10.044   3.098   1.154  0.5454 -0.4621  0.0486
58770SOL    HW181121  10.044   3.043   1.076 -1.5566  0.6126 -0.7867
58770SOL    HW281122   9.974   3.063   1.209  0.1625  0.4266  0.1627
58771SOL     OW81123   3.351   2.311   1.766 -0.4884 -0.0465 -0.2292
58771SOL    HW181124   3.372   2.384   1.709  1.2981 -0.5405 -0.2436
58771SOL    HW281125   3.377   2.340   1.854  1.8592 -1.2228 -0.4663
58772SOL     OW81126   4.696  10.156  10.236  0.0213  0.3399  0.2787
58772SOL    HW181127   4.620  10.101  10.217  1.1863 -0.6425 -1.9440
58772SOL    HW281128   4.659  10.240  10.264 -1.8291 -0.5417  0.6291
58773SOL     OW81129   7.309   5.117  11.974  0.5733  0.2271 -0.5158
58773SOL    HW181130   7.265   5.186  12.024  0.6321  0.2449 -0.4875
58773SOL    HW281131   7.353   5.064  12.041 -0.4673 -0.5592 -0.4416
58774SOL     OW81132   3.831   7.238   0.379 -0.3583  0.7170  0.0011
58774SOL    HW181133   3.759   7.232   0.442 -0.6656  2.1386 -0.1717
58774SOL    HW281134   3.803   7.184   0.305 -0.0123 -0.9297  1.0296
58775SOL     OW81135   5.558  12.196   2.411 -0.2960 -0.4416 -0.4387
58775SOL    HW181136   5.598  12.113   2.386  0.2174 -0.1567 -0.5717
58775SOL    HW281137   5.631  12.251   2.440 -0.7855 -0.5556  1.1528
58776SOL     OW81138  11.430   2.563   8.107 -0.1720 -0.2323 -0.2760
58776SOL    HW181139  11.488   2.632   8.076 -1.4187  0.5423 -0.9449
58776SOL    HW281140  11.419   2.581   8.200  0.2338 -0.0691 -0.2580
58777SOL     OW81141   5.726  11.721   6.535 -0.0491 -0.1346 -0.0409
58777SOL    HW181142   5.667  11.750   6.465 -0.0166  0.3547  0.1287
58777SOL    HW281143   5.779  11.652   6.495  0.9428  1.0942 -0.9323
58778SOL     OW81144   7.746   3.792   4.846 -0.0146  0.0305  0.2953
58778SOL    HW181145   7.824   3.752   4.807 -1.2845 -1.0111 -1.2918
58778SOL    HW281146   7.777   3.827   4.930  2.0290 -0.8150 -0.0397
58779SOL     OW81147  11.767  12.109   5.600 -0.6260 -0.3940  0.0406
58779SOL    HW181148  11.823  12.051   5.653  0.5284 -0.7295 -1.4567
58779SOL    HW281149  11.800  12.098   5.510 -1.9639  0.7800 -0.6333
58780SOL     OW81150   7.005  12.589   9.813 -0.2015  0.1971 -0.4380
58780SOL    HW181151   6.973  12.641   9.739 -0.7209 -0.8258 -0.9638
58780SOL    HW281152   7.095  12.618   9.826 -0.4272  1.1042 -0.8107
58781SOL     OW81153   6.520   9.720  12.333 -0.8690  0.3628  0.0967
58781SOL    HW181154   6.592   9.714  12.396 -1.4717 -0.2987  0.7410
58781SOL    HW281155   6.552   9.780  12.265 -0.4235  1.5811  1.3354
58782SOL     OW81156   0.826  11.948  12.055  0.3712 -0.2664  0.2307
58782SOL    HW181157   0.881  11.878  12.020 -0.2268 -0.3501 -0.5556
58782SOL    HW281158   0.736  11.919  12.038  0.1154  0.5912  0.0774
58783SOL     OW81159   9.755  10.510  12.203  0.2413  0.2369 -0.3696
58783SOL    HW181160   9.661  10.501  12.218  0.4886  0.5224  1.6383
58783SOL    HW281161   9.793  10.432  12.245  1.0534  1.4512  1.2577
58784SOL     OW81162   1.100   4.476   4.851  0.1073 -0.0263 -0.5622
58784SOL    HW181163   1.145   4.560   4.864  0.0507 -0.0807  0.0181
58784SOL    HW281164   1.032   4.475   4.918 -1.1493  0.3014 -1.7759
58785SOL     OW81165   5.831  10.437   4.596  0.0309 -0.0220 -0.7170
58785SOL    HW181166   5.779  10.372   4.550 -1.9775  0.6140  0.5582
58785SOL    HW281167   5.864  10.392   4.673 -0.1793  0.0974 -0.5587
58786SOL     OW81168   1.504   5.169   9.108 -0.0019 -0.4942 -0.3799
58786SOL    HW181169   1.418   5.145   9.074  0.1112 -0.7654 -0.4779
58786SOL    HW281170   1.504   5.140   9.199 -0.5045  0.7209  0.0380
58787SOL     OW81171   9.020   0.919   1.744  0.0191  0.6050 -0.0250
58787SOL    HW181172   8.988   0.935   1.656  1.6836  1.3478 -0.5401
58787SOL    HW281173   9.099   0.866   1.732 -0.0265  0.2549  1.0590
58788SOL     OW81174   3.016   0.367  10.552 -0.3863 -0.2425 -0.1600
58788SOL    HW181175   2.976   0.453  10.541 -1.3363 -0.3857  1.7791
58788SOL    HW281176   3.093   0.369  10.495 -0.4337  1.8415 -0.2277
58789SOL     OW81177  12.120  11.704   9.407  0.2613  0.0146  0.1404
58789SOL    HW181178  12.051  11.769   9.397  0.7240  0.4738 -0.1290
58789SOL    HW281179  12.181  11.743   9.470  0.2388 -0.4133  0.4288
58790SOL     OW81180   0.865   9.956   2.241  0.0999 -0.0471 -0.0735
58790SOL    HW181181   0.822   9.873   2.220  1.4203 -0.9606  0.7135
58790SOL    HW281182   0.846   9.970   2.334  1.7352 -0.6374  0.3752
58791SOL     OW81183  11.837  10.717   2.895  0.2208 -0.0361  0.7297
58791SOL    HW181184  11.822  10.690   2.985  1.5801  1.7671  1.5767
58791SOL    HW281185  11.895  10.650   2.859  1.1649  0.1716  1.8100
58792SOL     OW81186   9.172   7.031   3.960 -0.2938 -0.8867  0.2438
58792SOL    HW181187   9.083   7.030   3.924  0.1290 -0.3485 -0.8787
58792SOL    HW281188   9.170   7.099   4.027 -0.1168  1.0212 -1.5665
58793SOL     OW81189   3.233   7.522   2.216  0.2828  1.1521 -0.3768
58793SOL    HW181190   3.184   7.440   2.217 -1.9084  2.3416 -1.4592
58793SOL    HW281191   3.258   7.537   2.307 -2.8006  1.2012  0.5639
58794SOL     OW81192  11.510   8.763  10.928  0.8322  0.0344  0.0945
58794SOL    HW181193  11.476   8.685  10.884  1.3376 -0.8181  1.1753
58794SOL    HW281194  11.571   8.801  10.865 -0.0111  0.0240 -0.7605
58795SOL     OW81195   2.491  11.317   9.583 -0.2970  0.0010 -0.2750
58795SOL    HW181196   2.455  11.293   9.668 -1.2343  1.0307 -0.3438
58795SOL    HW281197   2.505  11.234   9.537 -0.5081 -0.5209  0.5945
58796SOL     OW81198   8.853   4.537   8.412 -0.1889  0.7101  0.5276
58796SOL    HW181199   8.824   4.534   8.321  0.5683 -1.9695  0.2801
58796SOL    HW281200   8.799   4.604   8.453 -0.1002  2.4562 -2.0054
58797SOL     OW81201   5.977  10.604  12.101  0.0493 -0.2737  0.2841
58797SOL    HW181202   6.002  10.615  12.009  0.0141 -1.0644  0.1733
58797SOL    HW281203   5.889  10.566  12.097 -0.6617  1.2420  0.6642
58798SOL     OW81204   8.222   9.668   1.527  0.9381 -0.0073 -0.2141
58798SOL    HW181205   8.198   9.658   1.435  0.1922 -2.3614  0.1479
58798SOL    HW281206   8.151   9.719   1.565  0.9310  0.4373 -0.8137
58799SOL     OW81207  10.029   0.528   6.359 -0.2080 -0.1945 -0.2769
58799SOL    HW181208  10.122   0.526   6.336 -0.1106 -0.0672  0.1100
58799SOL    HW281209  10.016   0.448   6.409  0.1260  0.7213  1.3318
58800SOL     OW81210  11.279   9.325   1.767 -0.0466  0.2719  0.4006
58800SOL    HW181211  11.233   9.370   1.838 -1.5069 -1.4941  0.6524
58800SOL    HW281212  11.255   9.373   1.688  0.2073  1.2325  0.9019
58801SOL     OW81213   5.986   8.386  10.155 -0.6284  0.1056 -0.4008
58801SOL    HW181214   5.980   8.471  10.112  0.7506  0.3980 -0.0723
58801SOL    HW281215   6.043   8.334  10.098 -0.2482 -0.0976  0.1570
58802SOL     OW81216  11.806   3.722   0.229  0.3740 -0.4362  0.2101
58802SOL    HW181217  11.795   3.816   0.244  1.2214 -0.3443  0.3264
58802SOL    HW281218  11.797   3.682   0.316 -1.5954 -0.6635 -0.0407
58803SOL     OW81219   5.755   9.705   9.103  0.2292  0.0269  0.4812
58803SOL    HW181220   5.811   9.650   9.158 -0.0393 -0.1733  0.5561
58803SOL    HW281221   5.669   9.701   9.145 -0.5707 -1.9890 -1.1977
58804SOL     OW81222   6.573  12.118   0.302 -0.2691 -0.2318 -0.1865
58804SOL    HW181223   6.485  12.142   0.330  0.4663  0.3816  1.7465
58804SOL    HW281224   6.582  12.155   0.215 -1.3987  1.0057  0.2023
58805SOL     OW81225  11.005   9.957  10.501 -0.4414 -0.4240 -0.1811
58805SOL    HW181226  10.922   9.924  10.468 -0.7263  0.5135 -0.4290
58805SOL    HW281227  11.025  10.033  10.446 -0.4159  0.5594  1.1362
58806SOL     OW81228   0.383   9.166   9.894 -0.3532 -0.8023  0.3698
58806SOL    HW181229   0.383   9.184   9.988  2.4336  1.4991  0.0753
58806SOL    HW281230   0.342   9.243   9.855  1.7721 -0.0149 -0.4250
58807SOL     OW81231  10.733   8.902   6.178  0.8012 -0.4667 -0.2721
58807SOL    HW181232  10.667   8.971   6.177  0.4322 -0.8020  0.2383
58807SOL    HW281233  10.685   8.822   6.201  1.4639 -0.6164  0.6823
58808SOL     OW81234  11.598   3.013   0.800 -0.4282  0.4422 -0.3473
58808SOL    HW181235  11.542   3.080   0.840 -1.0656 -0.5371  0.4731
58808SOL    HW281236  11.633   2.964   0.875 -1.3070 -1.1719 -0.9500
58809SOL     OW81237  12.347   3.068   1.782  0.2185  0.2827  0.3313
58809SOL    HW181238  12.341   3.123   1.859 -0.6721  1.1707 -0.3469
58809SOL    HW281239  12.440   3.049   1.772  0.2686 -0.5612  2.1007
58810SOL     OW81240   0.405   6.262   7.124 -0.5042 -0.0578 -0.0469
58810SOL    HW181241   0.377   6.303   7.042 -1.0726  0.5155  0.4248
58810SOL    HW281242   0.495   6.235   7.107  0.2007  2.1267 -0.1395
58811SOL     OW81243   2.654   5.053  11.622 -0.2465 -0.2611 -0.7257
58811SOL    HW181244   2.604   5.134  11.618  0.0981 -0.0775 -1.2866
58811SOL    HW281245   2.589   4.987  11.649 -0.1764  0.4851  1.4961
58812SOL     OW81246  12.478   1.831   2.091  0.5078  0.5641 -0.2698
58812SOL    HW181247  12.546   1.770   2.122 -0.6263 -0.0980  1.0356
58812SOL    HW281248  12.485   1.829   1.996  0.6035 -1.5243 -0.2598
58813SOL     OW81249  11.504   6.850   5.374  0.6790 -0.5017  0.7224
58813SOL    HW181250  11.543   6.764   5.395 -1.3091 -1.7281 -0.3456
58813SOL    HW281251  11.518   6.860   5.280 -0.5516 -0.4284  0.5418
58814SOL     OW81252   6.965   4.689  10.563 -0.4345  0.2331  0.0970
58814SOL    HW181253   7.057   4.667  10.552 -0.5645 -1.8038  2.1865
58814SOL    HW281254   6.958   4.780  10.534  1.7956 -0.1444 -1.9239
58815SOL     OW81255   5.897   2.980   0.816  0.2329 -0.1992  0.4514
58815SOL    HW181256   5.850   2.955   0.896 -1.0337 -0.8249 -0.4723
58815SOL    HW281257   5.949   2.903   0.794 -1.8251 -1.2517 -1.0411
58816SOL     OW81258   9.482   7.905   0.812 -0.1686  0.2927  0.2433
58816SOL    HW181259   9.550   7.854   0.856 -0.4237 -1.0278 -0.8360
58816SOL    HW281260   9.435   7.842   0.758 -1.7194  1.3381  0.2957
58817SOL     OW81261   5.463   9.921   8.805  0.2643  0.3629  0.3439
58817SOL    HW181262   5.440  10.010   8.778  1.2271  0.3710 -0.5393
58817SOL    HW281263   5.507   9.932   8.889  0.6627  0.7663  0.0886
58818SOL     OW81264   8.082  12.240   1.914 -0.3395 -0.5296 -0.4740
58818SOL    HW181265   8.113  12.167   1.967  0.5742 -0.2881 -0.6703
58818SOL    HW281266   8.112  12.318   1.960 -0.4921 -0.2952 -0.7679
58819SOL     OW81267   6.104  12.298   5.096  0.5247 -0.2831 -0.0722
58819SOL    HW181268   6.025  12.276   5.146  1.3332  0.5924  1.6676
58819SOL    HW281269   6.171  12.237   5.128  0.8283 -0.3346 -0.7880
58820SOL     OW81270   9.602  11.069  11.614  0.1014  0.0715 -0.0816
58820SOL    HW181271   9.595  11.113  11.530 -0.4567 -1.9121 -1.1420
58820SOL    HW281272   9.692  11.035  11.616  1.1174  2.5950  1.4982
58821SOL     OW81273   9.607  12.155   0.593  0.3455 -0.6066  0.4782
58821SOL    HW181274   9.637  12.142   0.503  0.9735 -0.4911  0.6699
58821SOL    HW281275   9.681  12.128   0.647 -0.2543 -1.2758  0.9777
58822SOL     OW81276   7.014   4.176   3.296  0.7136  0.2503  0.1779
58822SOL    HW181277   6.935   4.130   3.326 -0.0587  1.2914 -0.2080
58822SOL    HW281278   7.086   4.116   3.317 -0.2445 -1.0827 -0.1929
58823SOL     OW81279   1.330  11.327   8.115 -0.2164  0.1196  0.4228
58823SOL    HW181280   1.254  11.302   8.169 -1.1545  0.6266 -0.6125
58823SOL    HW281281   1.295  11.393   8.055  1.1063  0.4755  0.0303
58824SOL     OW81282   0.021   7.848   3.359  0.4483 -0.6228  0.2450
58824SOL    HW181283   0.033   7.824   3.451 -2.3558  0.2214  0.9030
58824SOL    HW281284   0.005   7.765   3.314  1.4612 -0.9986  0.5447
58825SOL     OW81285   8.296  12.422   2.426 -0.4116 -0.0097  0.6439
58825SOL    HW181286   8.271  12.432   2.518  0.4560 -1.1284  1.0216
58825SOL    HW281287   8.360  12.352   2.426  0.3605  0.6568 -0.6967
58826SOL     OW81288   1.571   0.096   1.594 -0.1456 -0.4953  0.4691
58826SOL    HW181289   1.580   0.151   1.517  1.9347 -0.5216  0.6522
58826SOL    HW281290   1.499   0.036   1.573  0.9404 -1.0879 -1.8119
58827SOL     OW81291   9.739   5.298  11.102  0.2199  0.6882  0.1059
58827SOL    HW181292   9.752   5.213  11.061 -0.4405  1.4936 -1.9027
58827SOL    HW281293   9.803   5.355  11.060 -0.4366  1.5394  0.2240
58828SOL     OW81294   7.220   6.917  10.742  0.0976 -0.6222 -0.4980
58828SOL    HW181295   7.173   6.998  10.722  0.7632 -0.7653 -2.8489
58828SOL    HW281296   7.309   6.946  10.763 -0.6378 -0.4440  2.9641
58829SOL     OW81297  10.719   0.866   3.421  0.1278  0.3255  0.3591
58829SOL    HW181298  10.807   0.847   3.389  0.0689  1.0298 -0.2466
58829SOL    HW281299  10.664   0.865   3.342  0.0987  2.7992  0.2649
58830SOL     OW81300   3.489   2.707   2.642 -0.2188  0.5265  0.2346
58830SOL    HW181301   3.422   2.638   2.644 -0.5468  0.8451  0.3861
58830SOL    HW281302   3.507   2.725   2.734  0.6378 -0.0883  0.2021
58831SOL     OW81303   2.507   0.399   0.571 -0.6353 -0.0054  0.7607
58831SOL    HW181304   2.500   0.406   0.666 -0.8253 -2.1996  0.9658
58831SOL    HW281305   2.574   0.463   0.547  1.2386 -1.0867  2.7204
58832SOL     OW81306   8.046   2.012   2.449 -0.3405 -0.0201  0.2239
58832SOL    HW181307   8.058   1.920   2.473  0.0722 -0.0939 -0.2496
58832SOL    HW281308   7.979   2.011   2.381 -1.7181  0.2163  1.5089
58833SOL     OW81309   3.568   5.845   8.384 -0.5929  0.1852 -0.1924
58833SOL    HW181310   3.595   5.917   8.327 -0.9020  1.4933  1.2357
58833SOL    HW281311   3.614   5.861   8.467 -1.3434 -0.7730  0.4469
58834SOL     OW81312   1.961  12.007  12.020  0.0051  0.3189 -0.1021
58834SOL    HW181313   1.868  12.028  12.009  0.0466  0.2544 -0.6202
58834SOL    HW281314   1.997  12.015  11.932  0.9444  2.4854  0.4231
58835SOL     OW81315   9.634  11.793   3.648  0.4056 -0.3262 -0.2552
58835SOL    HW181316   9.573  11.739   3.598 -0.3243  0.6432 -0.4358
58835SOL    HW281317   9.581  11.866   3.679  1.6424  0.9845 -1.1142
58836SOL     OW81318   4.719  12.440   3.965  0.3730  0.2011  0.4288
58836SOL    HW181319   4.647  12.388   3.928  0.0965  2.8099 -3.3007
58836SOL    HW281320   4.783  12.375   3.994 -1.0568 -2.2352 -1.4458
58837SOL     OW81321   9.949  10.976   9.618 -0.1606  0.2454  0.0807
58837SOL    HW181322   9.906  11.038   9.676 -1.4488 -1.0990  0.6098
58837SOL    HW281323   9.878  10.940   9.564  0.5312 -0.8400 -0.1396
58838SOL     OW81324   0.972  10.208   4.793 -0.6625  0.0737 -0.5334
58838SOL    HW181325   0.952  10.134   4.735  0.5437  0.8831 -2.0627
58838SOL    HW281326   1.064  10.228   4.776 -1.3198  2.8815 -1.3671
58839SOL     OW81327   8.713   8.710   7.115 -0.4738 -0.0933  0.0274
58839SOL    HW181328   8.763   8.691   7.035  0.3474  0.6463  0.3507
58839SOL    HW281329   8.650   8.776   7.088  0.0987  0.4842  0.0840
58840SOL     OW81330   5.312   5.268   2.649 -0.0303  0.0911 -0.3079
58840SOL    HW181331   5.336   5.248   2.739 -1.0715  2.5984  0.5897
58840SOL    HW281332   5.361   5.346   2.626 -2.4239  1.6288 -0.5907
58841SOL     OW81333  11.911  11.310   6.558  0.1423  0.0509 -0.2911
58841SOL    HW181334  11.844  11.346   6.616  0.3061  0.5970 -0.4336
58841SOL    HW281335  11.909  11.367   6.481  1.4001  0.6588  0.0885
58842SOL     OW81336   5.375   3.959  11.471  0.3668 -0.2661 -0.1954
58842SOL    HW181337   5.333   4.046  11.472  1.6793  0.4430 -1.8060
58842SOL    HW281338   5.376   3.932  11.563  1.2920  2.1202  0.5742
58843SOL     OW81339   0.034  10.114   8.768  0.0291 -0.4638  0.2310
58843SOL    HW181340   0.082  10.088   8.846 -0.6869 -0.0755  0.8113
58843SOL    HW281341  -0.036  10.050   8.759 -1.3584  0.8268  1.3100
58844SOL     OW81342   9.515   9.443  12.335 -0.2768 -0.2229 -0.6965
58844SOL    HW181343   9.494   9.390  12.412  1.3709  0.6603  0.4264
58844SOL    HW281344   9.458   9.409  12.266 -2.9832  0.0097  1.2699
58845SOL     OW81345   3.946  11.110   4.209  1.1200 -0.0662 -0.6341
58845SOL    HW181346   4.007  11.097   4.281 -0.3107 -1.0945  0.4646
58845SOL    HW281347   3.919  11.202   4.216  1.0534 -0.1397  0.0901
58846SOL     OW81348   6.443   8.368   5.658 -0.4240 -0.5524 -0.5654
58846SOL    HW181349   6.529   8.409   5.667 -1.0966  0.9624 -0.7889
58846SOL    HW281350   6.457   8.278   5.688  0.3705  0.6728  3.4109
58847SOL     OW81351  10.834   3.904   2.102 -0.1577 -0.0905  0.0695
58847SOL    HW181352  10.760   3.916   2.043 -0.7130 -0.2552  0.7284
58847SOL    HW281353  10.806   3.943   2.184  0.9589  0.9859 -0.0224
58848SOL     OW81354   5.925   7.477   6.322 -0.7565 -0.5147 -0.0780
58848SOL    HW181355   5.943   7.536   6.249 -0.6895 -2.7331 -1.9991
58848SOL    HW281356   5.977   7.512   6.395  1.8712  0.0207 -2.0407
58849SOL     OW81357   0.886   7.892   3.793 -0.2587  0.0188  0.3728
58849SOL    HW181358   0.892   7.862   3.703 -1.3319 -1.2334  0.6785
58849SOL    HW281359   0.951   7.840   3.840  0.5882  0.9627  0.2673
58850SOL     OW81360  12.124   6.856   5.980 -0.0594  0.0645 -0.0190
58850SOL    HW181361  12.082   6.774   5.955 -1.2484  0.4544  0.6508
58850SOL    HW281362  12.141   6.900   5.897  1.9289 -1.4512 -0.5028
58851SOL     OW81363   9.263   6.565   6.182  0.6170 -0.7106  0.0117
58851SOL    HW181364   9.173   6.548   6.211  0.8707 -1.6711  0.2467
58851SOL    HW281365   9.281   6.496   6.118  1.1120 -0.3752 -0.2189
58852SOL     OW81366   6.595   9.892   3.661 -0.4639 -0.0179  0.1405
58852SOL    HW181367   6.588   9.922   3.570  0.5664  0.5220  0.2273
58852SOL    HW281368   6.688   9.872   3.673 -0.5700  0.0183  1.1027
58853SOL     OW81369   8.438   2.538   1.246  0.1841  0.0485 -0.4901
58853SOL    HW181370   8.503   2.608   1.249 -0.3376  0.5583 -0.8937
58853SOL    HW281371   8.436   2.503   1.336  0.5050  0.4955 -0.3065
58854SOL     OW81372  11.097   8.744   2.911  0.2135 -0.1908  0.7924
58854SOL    HW181373  11.174   8.694   2.882 -0.5021  0.0245 -1.7021
58854SOL    HW281374  11.125   8.835   2.905 -0.2991 -0.0968 -0.4569
58855SOL     OW81375  11.875  12.318   2.226 -0.0502  0.5718  0.4932
58855SOL    HW181376  11.851  12.265   2.302 -0.2263 -0.2422 -0.1114
58855SOL    HW281377  11.794  12.330   2.178  0.0091  1.3227  0.5713
58856SOL     OW81378   3.599   3.229   1.885  0.1215  0.0351  0.1530
58856SOL    HW181379   3.592   3.321   1.910  0.4441 -0.5261  2.5419
58856SOL    HW281380   3.529   3.185   1.933 -0.2957 -0.9510 -1.2793
58857SOL     OW81381   4.067   6.480  12.176 -0.0242 -0.1899 -0.1579
58857SOL    HW181382   4.050   6.388  12.152  0.0181 -0.1819 -0.2190
58857SOL    HW281383   4.139   6.476  12.238  0.5522 -0.1351 -0.8126
58858SOL     OW81384   3.744  12.033   6.108  0.0927 -0.0274 -0.5832
58858SOL    HW181385   3.705  12.091   6.044 -0.6723  0.1223  0.0079
58858SOL    HW281386   3.705  11.947   6.091  1.6943 -0.5629 -1.8750
58859SOL     OW81387   7.664  10.479   2.351 -0.2661 -0.6414  0.2844
58859SOL    HW181388   7.717  10.400   2.359  2.6404  0.9280 -1.7615
58859SOL    HW281389   7.659  10.495   2.257  0.5481  2.3464  0.6464
58860SOL     OW81390   3.092  11.197   8.081 -0.1332  0.2228  0.9757
58860SOL    HW181391   3.066  11.165   7.994  0.7336  1.9754  0.0267
58860SOL    HW281392   3.124  11.119   8.126 -0.1283 -0.6402 -0.4460
58861SOL     OW81393   0.633  12.517   9.472 -0.1938  0.2094  0.8225
58861SOL    HW181394   0.687  12.484   9.400  0.7125  0.5749  1.3138
58861SOL    HW281395   0.566  12.570   9.429 -0.5948 -0.7949  0.1547
58862SOL     OW81396  11.992  10.964   3.616 -0.2216  0.1095  0.1046
58862SOL    HW181397  11.903  10.995   3.632 -0.7517 -0.9029 -0.8267
58862SOL    HW281398  11.991  10.872   3.642  0.5244  0.0678 -0.0001
58863SOL     OW81399  10.714   3.283   2.288  0.3753 -0.3198  0.2111
58863SOL    HW181400  10.756   3.345   2.347  0.2971  0.4822 -0.5585
58863SOL    HW281401  10.774   3.275   2.214 -0.1037 -0.3507 -0.1802
58864SOL     OW81402   2.313   3.659   4.943 -0.0571  0.4685 -0.1219
58864SOL    HW181403   2.297   3.753   4.929 -0.3992  0.2171 -1.5280
58864SOL    HW281404   2.304   3.620   4.857 -2.7991 -1.2915  0.8232
58865SOL     OW81405   1.956   7.676   9.018  0.0229 -0.2661  0.0644
58865SOL    HW181406   2.021   7.678   9.088 -0.8639  0.5756  0.9006
58865SOL    HW281407   1.880   7.633   9.056 -0.9025  1.2727  0.0511
58866SOL     OW81408   4.672   5.902   0.970 -0.1412 -0.3186 -0.1376
58866SOL    HW181409   4.714   5.816   0.966 -0.1609 -0.5698  2.6252
58866SOL    HW281410   4.716   5.946   1.043 -0.7147  1.7028 -0.9559
58867SOL     OW81411  10.447   1.682   0.405 -0.2671  0.0183 -0.2590
58867SOL    HW181412  10.490   1.764   0.429  1.5766 -1.2946  1.1591
58867SOL    HW281413  10.413   1.648   0.488 -1.5872 -0.3626 -0.9301
58868SOL     OW81414   5.760   9.758  10.118 -0.6037 -0.1456  0.8486
58868SOL    HW181415   5.741   9.665  10.134 -2.4049 -0.1779 -1.1590
58868SOL    HW281416   5.833   9.757  10.056 -1.7449 -0.2914 -0.5237
58869SOL     OW81417  12.148   3.530   4.224  0.4597  0.5167 -0.2351
58869SOL    HW181418  12.204   3.453   4.217  0.4722  0.4269  0.7524
58869SOL    HW281419  12.198   3.600   4.181  0.9642  0.2470 -0.0991
58870SOL     OW81420  12.111   4.092   1.806  0.0987  0.7623 -0.1654
58870SOL    HW181421  12.069   4.124   1.886  0.7787  0.3959  0.3496
58870SOL    HW281422  12.180   4.156   1.789  2.4077 -1.0604  1.6699
58871SOL     OW81423   5.726   8.396  10.491  0.5807  0.2830 -0.5831
58871SOL    HW181424   5.697   8.422  10.579 -1.2641  0.1380 -1.1134
58871SOL    HW281425   5.724   8.478  10.441 -0.7419 -0.0280 -1.0793
58872SOL     OW81426   0.982   3.788   1.211 -0.0493 -0.3277  0.0632
58872SOL    HW181427   0.932   3.837   1.277 -1.2114  0.5804 -1.4242
58872SOL    HW281428   1.069   3.779   1.248 -0.0654  2.0360  0.8357
58873SOL     OW81429   3.541   5.219   6.151  0.0517  0.0794  0.4713
58873SOL    HW181430   3.568   5.144   6.203 -1.5806  0.0505  1.3449
58873SOL    HW281431   3.537   5.186   6.061  0.9865 -0.4077  0.5977
58874SOL     OW81432   1.331   3.875   4.286  0.0079  0.2439  0.0918
58874SOL    HW181433   1.398   3.908   4.346  0.2433  0.2477 -0.1699
58874SOL    HW281434   1.255   3.931   4.301 -0.1716 -0.1983  0.8908
58875SOL     OW81435   9.328   8.613   3.467 -0.1267 -0.3276 -0.1576
58875SOL    HW181436   9.303   8.683   3.408  1.3510 -0.6926 -1.2806
58875SOL    HW281437   9.404   8.647   3.515  1.0853 -1.3557 -1.2508
58876SOL     OW81438   8.399   9.851   2.818  0.0594  0.2028 -0.0213
58876SOL    HW181439   8.384   9.851   2.723 -2.4623  0.8749  0.2940
58876SOL    HW281440   8.317   9.884   2.855  0.7546 -0.6146  2.4477
58877SOL     OW81441   6.210   5.115   5.389  0.0152 -0.1341  0.4816
58877SOL    HW181442   6.202   5.202   5.349  0.3452  0.0955  0.9068
58877SOL    HW281443   6.298   5.086   5.363 -0.0690 -0.3137  0.3968
58878SOL     OW81444   3.858   8.835  10.967 -0.4783  0.5692 -0.3823
58878SOL    HW181445   3.820   8.844  10.879 -2.3965  0.6001  0.3902
58878SOL    HW281446   3.892   8.923  10.987  0.3974  0.4456 -1.2551
58879SOL     OW81447   4.336   3.990   2.932 -0.3649  0.3922 -0.1000
58879SOL    HW181448   4.331   3.968   2.839 -0.1659  0.8817 -0.2271
58879SOL    HW281449   4.254   3.956   2.969 -0.5603  0.4243 -0.5020
58880SOL     OW81450   1.403   1.213  10.336  0.2122 -0.5844 -0.1272
58880SOL    HW181451   1.416   1.119  10.320 -0.0332 -1.2168  2.8246
58880SOL    HW281452   1.332   1.216  10.400  1.0864  1.5616  0.8075
58881SOL     OW81453   4.651  11.574  11.607 -0.6772  0.1466  0.6274
58881SOL    HW181454   4.736  11.531  11.610 -1.3640 -1.3652 -0.2078
58881SOL    HW281455   4.654  11.628  11.528 -0.4739  0.1587  0.6425
58882SOL     OW81456   7.928   0.060   0.600  0.0504  0.4406  0.0435
58882SOL    HW181457   7.989   0.035   0.530 -0.5603 -0.7416 -0.0963
58882SOL    HW281458   7.938  -0.009   0.666 -0.8642  0.4438  0.1919
58883SOL     OW81459   5.682   4.723   1.400 -0.1479 -0.7702  0.1368
58883SOL    HW181460   5.680   4.766   1.315 -1.3461  0.6368  0.8212
58883SOL    HW281461   5.668   4.630   1.381  0.9375 -0.6726 -1.2695
58884SOL     OW81462   1.957   0.883   8.359  0.0477  0.4168 -0.4265
58884SOL    HW181463   1.899   0.821   8.314  0.3223  1.2759 -2.0622
58884SOL    HW281464   1.902   0.920   8.429 -0.5908 -0.5481 -0.3923
58885SOL     OW81465  11.535   0.446  10.716 -0.1295  0.1686 -0.5981
58885SOL    HW181466  11.455   0.427  10.764  0.5895  0.8141  0.9173
58885SOL    HW281467  11.601   0.388  10.755  0.1608 -0.3910 -1.8527
58886SOL     OW81468  10.793   9.390   6.528 -0.2036  0.7473 -0.8320
58886SOL    HW181469  10.824   9.322   6.469  0.7130  0.4238 -0.0054
58886SOL    HW281470  10.860   9.395   6.597 -2.1778 -0.2781  1.2863
58887SOL     OW81471   6.895   0.007   0.946 -0.3625  0.1454 -0.2213
58887SOL    HW181472   6.820   0.034   1.000 -0.8734 -1.1637 -0.2531
58887SOL    HW281473   6.958   0.079   0.957  0.3304 -0.7884  3.5999
58888SOL     OW81474  12.290   3.748   8.343  0.2096  0.0003 -0.5355
58888SOL    HW181475  12.240   3.678   8.302  0.0696 -0.4080  0.3088
58888SOL    HW281476  12.276   3.824   8.287 -2.3518  0.2318  0.3194
58889SOL     OW81477  10.935   6.500   0.383  0.4984 -0.1940 -0.5061
58889SOL    HW181478  10.910   6.464   0.468  1.6423  0.0478 -0.0489
58889SOL    HW281479  11.030   6.488   0.379  0.2978 -1.6555 -2.4425
58890SOL     OW81480   5.090   7.910  10.549 -0.1495 -0.0828 -0.1074
58890SOL    HW181481   5.066   7.845  10.616 -0.6366 -1.1923 -1.3264
58890SOL    HW281482   5.007   7.938  10.512  0.1342  0.3331 -0.4333
58891SOL     OW81483  11.030  12.409   0.993  0.4958 -0.0494  0.3494
58891SOL    HW181484  11.006  12.317   0.986 -0.3513  0.2579 -1.4293
58891SOL    HW281485  11.086  12.414   1.071  0.0075 -1.9274  0.8669
58892SOL     OW81486   5.992  11.226   4.409  0.0530  0.4935  0.3276
58892SOL    HW181487   5.977  11.184   4.494  1.7499  0.3113  0.5654
58892SOL    HW281488   5.968  11.159   4.345 -2.4339  1.0421  0.5851
58893SOL     OW81489   9.538   8.056  10.176  1.0101 -0.2080 -0.0713
58893SOL    HW181490   9.476   8.096  10.237  1.7888 -0.7347  1.1021
58893SOL    HW281491   9.488   7.988  10.132 -0.3045  1.8556 -2.0006
58894SOL     OW81492  11.360   1.930   9.311  0.1175 -0.4185 -1.4053
58894SOL    HW181493  11.396   1.844   9.334 -0.9405 -0.2210  1.3467
58894SOL    HW281494  11.265   1.919   9.318 -0.0042  1.1646 -0.1050
58895SOL     OW81495   9.339   3.817   2.649 -0.2348 -0.0334 -0.2205
58895SOL    HW181496   9.342   3.912   2.664 -0.5371 -0.2467  1.4549
58895SOL    HW281497   9.249   3.799   2.625 -0.3034  0.0491 -0.0292
58896SOL     OW81498   7.477   9.917   4.240  0.5971 -0.2315 -0.3853
58896SOL    HW181499   7.478   9.958   4.154  1.2545  0.7256  0.0673
58896SOL    HW281500   7.536   9.842   4.232  0.3297 -0.3975 -0.8710
58897SOL     OW81501  11.154  10.771   3.107 -0.0973 -0.1252 -0.0209
58897SOL    HW181502  11.237  10.731   3.133 -0.4530 -1.0883 -0.3310
58897SOL    HW281503  11.093  10.750   3.177 -0.2827 -0.0978 -0.1712
58898SOL     OW81504   5.230   3.837   7.454 -0.0688 -0.6418  0.1336
58898SOL    HW181505   5.308   3.836   7.511  0.2263  1.6658 -0.1074
58898SOL    HW281506   5.231   3.752   7.410  1.7730 -1.0480  0.8521
58899SOL     OW81507  10.299   8.754   4.597  0.3909  0.3789  0.3009
58899SOL    HW181508  10.370   8.760   4.532  0.3599 -0.0516  0.2196
58899SOL    HW281509  10.325   8.814   4.667  0.6924  0.4438  0.1346
58900SOL     OW81510  10.799   1.008  10.722 -0.1830 -0.2127 -0.1891
58900SOL    HW181511  10.879   1.010  10.775 -1.4295  1.8412  1.7739
58900SOL    HW281512  10.750   0.933  10.756 -0.2136  0.0566  0.3732
58901SOL     OW81513   0.450   6.513   2.640 -0.0853  1.0255 -0.0452
58901SOL    HW181514   0.452   6.425   2.677 -0.2899  1.3673  0.8098
58901SOL    HW281515   0.527   6.557   2.677 -1.0408  1.8013  1.1121
58902SOL     OW81516   9.594   0.783   2.841 -0.3594 -0.2529 -0.1722
58902SOL    HW181517   9.528   0.716   2.855  1.2598 -1.7218  0.8853
58902SOL    HW281518   9.641   0.755   2.762  0.4555 -0.5183  0.3874
58903SOL     OW81519   9.756  10.507   3.180  0.3250 -0.6314 -0.1720
58903SOL    HW181520   9.760  10.414   3.157  0.2509 -0.4381 -1.0127
58903SOL    HW281521   9.736  10.551   3.097 -0.7875  0.0328  0.4190
58904SOL     OW81522   7.492   3.526  11.182 -0.4159 -0.1955  0.7394
58904SOL    HW181523   7.431   3.568  11.242  0.0495 -0.4158  1.3789
58904SOL    HW281524   7.574   3.573  11.193 -0.4327  0.0366 -0.0450
58905SOL     OW81525   4.649   0.724   1.303  0.4369 -0.7549  0.7789
58905SOL    HW181526   4.649   0.775   1.384 -0.6855 -0.3482  0.5452
58905SOL    HW281527   4.559   0.690   1.295 -0.0674  0.8415 -1.2785
58906SOL     OW81528  12.153   3.008  10.968  0.5223 -0.2704  0.3193
58906SOL    HW181529  12.113   3.093  10.986  1.1274  0.4338 -1.3873
58906SOL    HW281530  12.185   3.016  10.877  1.1254 -2.1094  0.3346
58907SOL     OW81531   9.984   6.105  11.707  0.2725 -0.0006 -0.1818
58907SOL    HW181532   9.976   6.171  11.776 -0.0465 -1.3697  1.1388
58907SOL    HW281533  10.038   6.036  11.746  1.5393 -0.0497 -1.9207
58908SOL     OW81534  10.789   9.084   2.490 -0.1971  0.0874  0.1199
58908SOL    HW181535  10.702   9.044   2.491 -0.3465  0.4028 -0.0497
58908SOL    HW281536  10.847   9.017   2.528 -0.5193 -0.1068  0.2755
58909SOL     OW81537   3.408   4.350   2.342 -0.2520 -0.4093  0.0935
58909SOL    HW181538   3.360   4.386   2.417  0.9921  2.1069 -0.2150
58909SOL    HW281539   3.340   4.308   2.289 -1.7272  0.7653  0.9492
58910SOL     OW81540   1.529   5.069   8.239  0.2614 -0.6554 -0.4353
58910SOL    HW181541   1.473   5.002   8.276  0.9017 -1.0155 -0.1003
58910SOL    HW281542   1.605   5.022   8.205  1.7399  0.0466  1.6979
58911SOL     OW81543   5.854   3.899   1.805  0.4125  0.6211  0.0516
58911SOL    HW181544   5.808   3.882   1.722  3.0866 -0.9148 -1.2726
58911SOL    HW281545   5.868   3.994   1.805 -0.3686  0.7594 -0.8035
58912SOL     OW81546   7.705   1.372   7.213 -0.4134  0.2160  0.0135
58912SOL    HW181547   7.736   1.433   7.146  0.1404  0.7314  0.7145
58912SOL    HW281548   7.635   1.420   7.258 -0.3716  0.1084  0.1956
58913SOL     OW81549   8.765   6.951   9.055 -0.2587  0.5156 -0.4451
58913SOL    HW181550   8.824   6.973   8.983  0.7478  1.4070  0.6030
58913SOL    HW281551   8.688   7.006   9.041 -0.4693  0.0105 -1.3282
58914SOL     OW81552   7.827   8.843   4.800  0.0127  0.2476 -0.1988
58914SOL    HW181553   7.889   8.900   4.847  0.2312  0.5702 -0.8718
58914SOL    HW281554   7.779   8.903   4.743 -0.5304 -0.0891 -0.0957
58915SOL     OW81555   7.602   4.930   9.769 -0.3933 -0.5064 -0.1309
58915SOL    HW181556   7.543   4.902   9.699 -1.9192 -0.7578  1.1958
58915SOL    HW281557   7.566   5.013   9.799 -0.9601 -1.3533  1.6599
58916SOL     OW81558  10.852   2.588  12.374  0.0498 -0.6691  0.1355
58916SOL    HW181559  10.781   2.525  12.360  0.7751 -1.3205 -0.7115
58916SOL    HW281560  10.909   2.546  12.438  0.8260 -1.1396 -0.8421
58917SOL     OW81561   3.209   2.351  10.226 -0.5418 -0.5166 -0.4863
58917SOL    HW181562   3.139   2.326  10.165  0.0285 -1.9876 -0.5843
58917SOL    HW281563   3.165   2.404  10.292 -1.8135 -1.5569 -0.4481
58918SOL     OW81564   8.886   9.040   9.892  0.4338  0.0117  0.0325
58918SOL    HW181565   8.830   9.103   9.937  1.2960  0.1027  1.0308
58918SOL    HW281566   8.838   8.957   9.896 -0.0803  0.3072 -0.0265
58919SOL     OW81567   9.121   0.315   1.604  0.1809 -0.8199  0.2994
58919SOL    HW181568   9.185   0.356   1.663 -0.1794 -0.5399  0.5031
58919SOL    HW281569   9.145   0.346   1.517  0.5678 -1.0390  0.3251
58920SOL     OW81570   2.278   7.896   2.631  0.3096 -0.6350  0.3260
58920SOL    HW181571   2.368   7.923   2.614 -0.4092  2.3489  0.8243
58920SOL    HW281572   2.230   7.916   2.550 -0.6949  1.9776  1.4707
58921SOL     OW81573   5.096   6.187   6.272  0.8958  0.4913 -0.1667
58921SOL    HW181574   5.075   6.135   6.195 -1.9229  0.5403  0.4786
58921SOL    HW281575   5.185   6.160   6.296  0.6389 -1.8450 -1.5672
58922SOL     OW81576   1.528   4.958   8.608  0.0820  0.3404  0.2612
58922SOL    HW181577   1.586   4.885   8.586  2.9278  2.2580  0.8268
58922SOL    HW281578   1.448   4.916   8.641  0.3905 -2.4577 -2.1370
58923SOL     OW81579   3.710   5.770   0.511 -0.3294  1.0847  0.4080
58923SOL    HW181580   3.724   5.768   0.416  0.3794 -0.8617  0.5179
58923SOL    HW281581   3.653   5.845   0.525 -1.0386  0.9774 -1.6440
58924SOL     OW81582   9.324   9.390   1.724  0.0578 -0.5417 -0.3516
58924SOL    HW181583   9.387   9.391   1.653  0.5722  1.2289  0.0779
58924SOL    HW281584   9.331   9.477   1.764 -1.2668 -0.9748  0.9282
58925SOL     OW81585   0.621  11.802   8.607 -0.0471 -0.1112  0.4112
58925SOL    HW181586   0.542  11.787   8.659 -1.0915  0.9437 -0.7843
58925SOL    HW281587   0.652  11.888   8.635  1.0215 -0.7618  1.2727
58926SOL     OW81588  10.413   5.608  12.300  0.1871  0.1461 -0.2620
58926SOL    HW181589  10.317   5.613  12.305  0.1353 -1.2428  0.6511
58926SOL    HW281590  10.440   5.695  12.270 -1.3779  0.4538 -0.8900
58927SOL     OW81591  10.710   7.016   1.085  0.0571  0.5364  0.0846
58927SOL    HW181592  10.687   7.084   1.021 -1.3240 -0.2568 -0.2989
58927SOL    HW281593  10.651   7.032   1.158 -1.4195 -1.1731 -0.6632
58928SOL     OW81594   1.107   1.484   8.026  0.7019 -0.2048 -0.2495
58928SOL    HW181595   1.162   1.450   8.096 -1.0746 -0.7135  0.9877
58928SOL    HW281596   1.133   1.575   8.016 -0.0991  0.3613  2.2755
58929SOL     OW81597   4.700   3.745   3.548  0.2978  0.2359  0.3205
58929SOL    HW181598   4.649   3.778   3.474 -1.1341 -1.6542  0.4027
58929SOL    HW281599   4.756   3.677   3.510  0.2215 -0.1169  0.8291
58930SOL     OW81600  12.521   4.300   2.532 -0.0866 -0.3720  0.3384
58930SOL    HW181601  12.603   4.258   2.510  0.0618  0.6111 -1.1224
58930SOL    HW281602  12.463   4.282   2.458 -0.5740  0.4835  0.4913
58931SOL     OW81603   4.874  12.476   6.613 -0.1337 -0.1263 -0.4384
58931SOL    HW181604   4.944  12.452   6.674 -1.1085 -2.6784 -0.2257
58931SOL    HW281605   4.796  12.484   6.668 -0.5641 -0.1111 -1.0426
58932SOL     OW81606   9.048   0.429   7.833 -0.0268  0.2030  0.4471
58932SOL    HW181607   8.960   0.392   7.821  0.6209 -1.8670  1.5086
58932SOL    HW281608   9.106   0.352   7.830  1.5962  1.3485  1.2254
58933SOL     OW81609   2.599  10.812  11.749 -0.0560 -0.8421  0.0981
58933SOL    HW181610   2.539  10.840  11.819 -0.8948 -0.6162 -0.6916
58933SOL    HW281611   2.547  10.819  11.669  1.3339  0.3411 -0.7559
58934SOL     OW81612  10.412   8.252  11.910  0.0208  0.2323  0.2871
58934SOL    HW181613  10.397   8.325  11.850 -0.4784  0.1259  0.2702
58934SOL    HW281614  10.479   8.283  11.970 -1.0074  1.1460  1.0015
58935SOL     OW81615  12.157   8.184   6.306 -0.1005  0.0977  0.3025
58935SOL    HW181616  12.106   8.261   6.330  0.6423  0.7093 -0.0404
58935SOL    HW281617  12.231   8.219   6.255 -0.2054 -0.9162 -0.5779
58936SOL     OW81618   1.434   2.421   0.655  0.4535 -0.4198 -0.6110
58936SOL    HW181619   1.362   2.442   0.596  0.0119 -1.8963 -0.6448
58936SOL    HW281620   1.415   2.471   0.735 -1.3557 -1.7629 -0.1424
58937SOL     OW81621   3.673   9.774   8.521  0.1451  0.3723  0.3224
58937SOL    HW181622   3.714   9.764   8.435 -0.0489  0.8298  0.1755
58937SOL    HW281623   3.580   9.759   8.505 -0.8149  5.4298 -0.5996
58938SOL     OW81624   7.084   4.055   4.664  0.6676 -0.3518 -0.6038
58938SOL    HW181625   7.053   4.020   4.581  0.1472 -0.1087 -0.5107
58938SOL    HW281626   7.028   4.130   4.682  0.9480 -0.2402 -0.1650
58939SOL     OW81627   7.583   2.645  11.793  0.4275 -0.0894 -0.6484
58939SOL    HW181628   7.654   2.584  11.816  0.6007  0.4528  0.3379
58939SOL    HW281629   7.533   2.600  11.725  0.7990 -1.1524 -0.2366
58940SOL     OW81630   4.351  10.851  11.360 -0.0007  0.2920 -0.1542
58940SOL    HW181631   4.283  10.819  11.420  0.5880  1.1808  1.0326
58940SOL    HW281632   4.406  10.775  11.344 -0.9921 -0.3207 -0.7478
58941SOL     OW81633   5.096   5.800  11.826  0.0596 -0.3537 -0.0124
58941SOL    HW181634   5.049   5.871  11.869  0.2514 -0.7448  0.8691
58941SOL    HW281635   5.188   5.826  11.830  0.0358 -0.1535 -0.6573
58942SOL     OW81636   3.561  11.560   5.097 -0.3295 -0.6776  0.2553
58942SOL    HW181637   3.526  11.648   5.104 -1.7716 -1.0628 -1.3286
58942SOL    HW281638   3.635  11.569   5.036 -0.5464 -0.5652  0.0041
58943SOL     OW81639   2.133  11.840   5.052  0.1225  0.0521 -0.1329
58943SOL    HW181640   2.060  11.862   4.994 -0.0539 -0.5598 -0.1424
58943SOL    HW281641   2.152  11.748   5.034  1.3736  0.3906 -0.6612
58944SOL     OW81642   2.200  12.432   9.432 -0.6649  0.4978  0.9581
58944SOL    HW181643   2.126  12.452   9.375  0.1103  1.4822  0.2474
58944SOL    HW281644   2.161  12.414   9.517 -1.9259 -1.7936 -0.0174
58945SOL     OW81645   4.406   2.007   5.646 -0.1409  0.0264  0.2091
58945SOL    HW181646   4.324   2.047   5.675 -1.1996  0.2422 -2.7301
58945SOL    HW281647   4.384   1.915   5.632  0.2923 -0.0472  0.0091
58946SOL     OW81648   9.095   9.305   1.625  0.1872  0.0089  0.3569
58946SOL    HW181649   9.186   9.324   1.645  0.5621 -0.6845 -0.6524
58946SOL    HW281650   9.045   9.359   1.687  1.2197  2.1083 -0.5321
58947SOL     OW81651   0.075   3.835   4.341 -0.0148  0.6225  0.4235
58947SOL    HW181652   0.090   3.929   4.336  2.1835  0.2876 -0.7352
58947SOL    HW281653   0.110   3.809   4.427 -1.9917  1.0141  1.3996
58948SOL     OW81654  11.794   0.800   6.892 -0.2780 -0.1780 -0.8117
58948SOL    HW181655  11.759   0.746   6.821  2.3854  0.5367 -2.8295
58948SOL    HW281656  11.816   0.884   6.851 -0.8708  1.1814  1.4346
58949SOL     OW81657  11.753   6.971   8.985 -0.0383 -0.8063  0.3330
58949SOL    HW181658  11.674   6.956   8.932 -0.5851  0.9469  0.5658
58949SOL    HW281659  11.823   6.982   8.921 -0.4297 -0.1246  0.0060
58950SOL     OW81660  11.951  12.618   8.432  0.2863  0.5411  0.4035
58950SOL    HW181661  11.865  12.578   8.421 -0.3786  1.6097  1.5148
58950SOL    HW281662  12.006  12.575   8.366 -1.1096 -0.0977 -0.3860
58951SOL     OW81663   5.614   2.508   0.303  0.1690  0.4196 -0.7113
58951SOL    HW181664   5.589   2.473   0.389 -0.9514  0.4218 -1.0170
58951SOL    HW281665   5.699   2.550   0.318  0.0937  0.2306  0.3431
58952SOL     OW81666  11.059   8.153   4.481  0.0092 -0.1458  0.2977
58952SOL    HW181667  11.060   8.237   4.526  1.2273 -0.0699  0.1565
58952SOL    HW281668  11.129   8.159   4.416 -0.3547 -1.0166 -0.1956
58953SOL     OW81669   9.570   0.301   2.296 -0.3934 -0.5651 -0.1068
58953SOL    HW181670   9.515   0.246   2.240 -0.4716 -0.0571 -0.5435
58953SOL    HW281671   9.613   0.240   2.355 -1.7520 -0.9506  0.5268
58954SOL     OW81672   2.069   8.546   6.206  0.2218  0.1231  0.0776
58954SOL    HW181673   2.110   8.615   6.154  0.8513 -1.1982 -1.2523
58954SOL    HW281674   1.995   8.517   6.153 -0.1059 -0.1615  0.6778
58955SOL     OW81675   4.974   1.685   7.630 -0.7740  0.5547  0.1892
58955SOL    HW181676   5.025   1.715   7.555 -1.9907 -1.1720 -1.4376
58955SOL    HW281677   5.038   1.650   7.692  0.1440 -0.0025 -1.0464
58956SOL     OW81678   7.979   6.542   4.781  0.0517  0.5908 -0.5151
58956SOL    HW181679   7.911   6.587   4.830  0.2669  0.6161 -0.2369
58956SOL    HW281680   8.009   6.606   4.717 -2.0814 -0.2883 -2.5073
58957SOL     OW81681  10.266   5.379   8.364 -0.0277  0.2928 -0.4864
58957SOL    HW181682  10.286   5.445   8.297  0.5780  0.4770 -0.1352
58957SOL    HW281683  10.171   5.372   8.362  0.0413 -0.8641 -2.4501
58958SOL     OW81684   1.117   3.487   7.784 -0.0654 -0.2793  0.0082
58958SOL    HW181685   1.085   3.552   7.721  2.4140  0.0669 -1.0127
58958SOL    HW281686   1.045   3.477   7.846 -1.2276  2.1134 -0.8086
58959SOL     OW81687   7.992   6.825   3.579  0.4785 -0.2936  0.5056
58959SOL    HW181688   7.942   6.814   3.660  1.7724  1.0711  1.5644
58959SOL    HW281689   8.070   6.771   3.591 -0.4091 -1.9499 -0.8788
58960SOL     OW81690   1.955   6.868   0.700  0.1547  0.6498  0.0194
58960SOL    HW181691   1.887   6.880   0.633 -2.8831 -3.3828  1.9836
58960SOL    HW281692   2.007   6.794   0.669 -1.2089 -1.1858  1.8619
58961SOL     OW81693  10.067   4.061   4.108 -0.0485 -0.2120  0.1849
58961SOL    HW181694  10.012   4.006   4.165 -0.5441  0.2928  0.2074
58961SOL    HW281695  10.153   4.021   4.111  0.2066  0.3731  2.1167
58962SOL     OW81696   7.259   7.437  10.310 -0.4676 -0.5982  0.1653
58962SOL    HW181697   7.191   7.498  10.281 -0.0584 -0.8109 -1.2786
58962SOL    HW281698   7.267   7.374  10.239  0.4782 -1.2145  0.7992
58963SOL     OW81699   5.169   8.099   3.337 -0.1804  0.7804 -0.2812
58963SOL    HW181700   5.116   8.110   3.416 -0.4819  1.5075 -0.5830
58963SOL    HW281701   5.252   8.143   3.358 -0.4851  1.5174 -0.5853
58964SOL     OW81702   3.839   8.591   9.673  0.0005  0.5991 -0.1437
58964SOL    HW181703   3.844   8.657   9.742  3.0364  0.0055  0.3464
58964SOL    HW281704   3.842   8.641   9.592  1.3667  1.1199  0.2156
58965SOL     OW81705   9.279   1.954   8.875 -0.1696 -0.1030 -0.0611
58965SOL    HW181706   9.363   1.929   8.836  0.1427  0.9720 -0.0935
58965SOL    HW281707   9.269   2.047   8.855  0.0559  0.5459  2.4739
58966SOL     OW81708   3.079   2.880   9.453  0.4079 -0.4393  0.6788
58966SOL    HW181709   3.091   2.913   9.542 -0.1347 -0.6481  0.8281
58966SOL    HW281710   3.138   2.805   9.447  0.8123 -0.1287  0.6997
58967SOL     OW81711   5.363   7.092  10.061 -0.8745  0.0137  0.2787
58967SOL    HW181712   5.420   7.044  10.001 -4.3153 -1.2168 -2.2835
58967SOL    HW281713   5.384   7.184  10.044  0.9839 -0.3809  0.1868
58968SOL     OW81714   5.217   5.233  10.675 -0.3421 -0.0619  0.2600
58968SOL    HW181715   5.134   5.189  10.659 -0.7357  0.7050  0.1114
58968SOL    HW281716   5.266   5.224  10.593 -0.4878 -0.0894  0.1763
58969SOL     OW81717   4.900   8.413   0.843 -0.2044 -0.6198  0.5732
58969SOL    HW181718   4.871   8.336   0.892  0.0581 -1.3685 -0.4102
58969SOL    HW281719   4.943   8.377   0.766 -0.8822  0.5260 -0.3766
58970SOL     OW81720   9.126   1.569  12.009  0.2188 -0.2658  0.1731
58970SOL    HW181721   9.116   1.663  11.995 -1.5803 -0.3321  0.6735
58970SOL    HW281722   9.213   1.558  12.046  1.1340  0.9971 -1.4925
58971SOL     OW81723   9.423   8.267   2.645 -0.1909 -0.7769 -0.3572
58971SOL    HW181724   9.413   8.190   2.590 -1.7772  0.7752 -2.4142
58971SOL    HW281725   9.511   8.299   2.628 -0.0831 -1.2542 -0.6917
58972SOL     OW81726   2.491  10.501  11.193 -0.6139  0.1803 -0.0484
58972SOL    HW181727   2.539  10.577  11.158  0.0158  0.8252  2.0989
58972SOL    HW281728   2.499  10.435  11.124  0.7760  1.3003 -1.0234
58973SOL     OW81729   9.302  10.526   6.077  0.5174 -0.1667 -0.1773
58973SOL    HW181730   9.334  10.545   5.989  0.7953 -0.2038 -0.0851
58973SOL    HW281731   9.358  10.455   6.108  1.1705  0.5994  0.4526
58974SOL     OW81732   6.251   8.649   7.403 -0.0292  0.2295 -0.0498
58974SOL    HW181733   6.201   8.649   7.485  0.7241 -0.1161  0.4183
58974SOL    HW281734   6.241   8.738   7.369  0.4939  0.6852  0.9437
58975SOL     OW81735   5.476   1.555   6.078 -0.0635 -0.2194  0.8650
58975SOL    HW181736   5.453   1.644   6.051 -1.1514 -1.0230 -1.0641
58975SOL    HW281737   5.565   1.542   6.045 -0.3577 -0.2392  0.0451
58976SOL     OW81738  12.408   9.913   4.361  0.4007  0.0286 -0.3893
58976SOL    HW181739  12.434   9.843   4.302  0.5295 -0.4689  0.2441
58976SOL    HW281740  12.354   9.870   4.427  0.7017  0.4757  0.1582
58977SOL     OW81741   5.205   4.237   3.524  0.4826  0.2332 -0.7564
58977SOL    HW181742   5.221   4.245   3.430  1.1174  0.2277 -0.6541
58977SOL    HW281743   5.109   4.232   3.532  0.4005  0.6764 -1.3656
58978SOL     OW81744   9.404   3.287   4.119  0.0028  0.2662  0.1376
58978SOL    HW181745   9.403   3.239   4.202  2.0149 -0.2275 -0.0770
58978SOL    HW281746   9.343   3.239   4.063  0.2815 -0.7236  0.6478
58979SOL     OW81747   8.566  10.433   4.236  0.2592 -0.0813  0.0888
58979SOL    HW181748   8.585  10.408   4.326 -0.4791  1.9533  0.8749
58979SOL    HW281749   8.565  10.529   4.237 -0.4543 -0.0121 -1.9298
58980SOL     OW81750   0.909   9.992   6.978  0.2387  0.5125  0.3390
58980SOL    HW181751   0.930  10.070   7.031  2.3874  0.6664 -0.6039
58980SOL    HW281752   0.852  10.025   6.908  1.1310  1.2770 -0.0546
58981SOL     OW81753  10.114   0.582   5.010  0.0004  0.4956 -0.2712
58981SOL    HW181754  10.174   0.572   5.083  0.3703 -1.4642 -0.7821
58981SOL    HW281755  10.045   0.639   5.043  0.6698  0.4563  1.2717
58982SOL     OW81756   8.636   1.386   3.678  0.2195 -0.0511  0.1000
58982SOL    HW181757   8.702   1.319   3.661  0.3343  0.3139 -0.9446
58982SOL    HW281758   8.651   1.412   3.769 -0.3793 -2.0482  0.8385
58983SOL     OW81759   9.093   8.967   6.892 -0.3434  0.2921  0.0170
58983SOL    HW181760   9.112   9.038   6.953  0.0970 -0.4005  0.7065
58983SOL    HW281761   9.156   8.979   6.821  0.0662  0.3064  0.3773
58984SOL     OW81762  11.216   9.802  12.221 -0.2625  0.1002 -0.3055
58984SOL    HW181763  11.258   9.883  12.247 -0.2927  0.4297 -1.2550
58984SOL    HW281764  11.213   9.750  12.301 -0.0763  0.9543  0.2691
58985SOL     OW81765   9.552   5.734   8.616 -0.2335  0.5792 -0.5431
58985SOL    HW181766   9.553   5.675   8.691 -0.2208  2.2354  0.8237
58985SOL    HW281767   9.493   5.692   8.554  2.4308 -2.6368 -1.2266
58986SOL     OW81768  12.082   9.603  10.328  0.3822 -0.1085  0.7158
58986SOL    HW181769  12.020   9.534  10.304  1.3105 -0.6824 -0.1072
58986SOL    HW281770  12.108   9.642  10.245 -0.2829  1.4068  1.1785
58987SOL     OW81771  12.127  10.854  10.903 -0.2969  0.0581  0.1185
58987SOL    HW181772  12.175  10.873  10.984 -0.3678 -0.2171  0.2266
58987SOL    HW281773  12.161  10.917  10.840 -0.4080  0.4343  0.4243
58988SOL     OW81774   7.563   4.510   8.984  0.2164  0.2302  0.4547
58988SOL    HW181775   7.503   4.442   8.953 -2.3928  2.8249 -0.6504
58988SOL    HW281776   7.562   4.501   9.080 -2.4027  0.4845  0.5051
58989SOL     OW81777  11.676   4.955   3.421  0.4524 -0.1730 -0.0805
58989SOL    HW181778  11.632   4.957   3.505 -0.2643  1.4062 -0.4571
58989SOL    HW281779  11.617   5.001   3.361  0.5927 -1.8860 -1.6513
58990SOL     OW81780  12.392  11.266  10.160 -0.0252  0.1428  0.6037
58990SOL    HW181781  12.451  11.213  10.212 -0.2690 -1.9805 -1.1419
58990SOL    HW281782  12.440  11.285  10.080 -0.4260  1.4864  0.6562
58991SOL     OW81783  11.489  11.358   1.608  0.4266 -0.1367 -0.3889
58991SOL    HW181784  11.442  11.441   1.610  0.6385  0.0014 -1.0393
58991SOL    HW281785  11.421  11.293   1.587 -0.0173 -0.3459  1.4745
58992SOL     OW81786   8.130   3.970   1.256  0.1824  0.1411  0.2170
58992SOL    HW181787   8.208   3.915   1.252 -0.4026 -0.7221  0.4281
58992SOL    HW281788   8.116   3.999   1.166  0.0561 -0.6963 -0.0418
58993SOL     OW81789   7.279   0.299   2.966  0.2889 -0.0569 -0.7707
58993SOL    HW181790   7.350   0.282   3.028  0.7647  0.7555 -1.0850
58993SOL    HW281791   7.224   0.364   3.011 -1.5082 -2.2545  0.4175
58994SOL     OW81792   9.455   9.095   3.900  0.5706 -0.4308 -0.0332
58994SOL    HW181793   9.534   9.117   3.850  0.5344  0.6612  0.3576
58994SOL    HW281794   9.477   9.014   3.946  1.9035  0.4427  0.9552
58995SOL     OW81795  10.909   8.222   6.712 -0.1497 -0.1310  0.5198
58995SOL    HW181796  10.816   8.213   6.733 -0.0609 -1.5058  0.4123
58995SOL    HW281797  10.943   8.132   6.714  1.0350  0.2834 -0.0979
58996SOL     OW81798   2.375   6.380   3.297  0.3850  0.3161 -0.5589
58996SOL    HW181799   2.430   6.385   3.375 -0.1669  0.3488 -0.1692
58996SOL    HW281800   2.298   6.432   3.318 -0.8001 -1.4666 -0.2768
58997SOL     OW81801  11.462   5.366   9.172 -0.0251 -0.0487  0.0019
58997SOL    HW181802  11.434   5.449   9.133 -1.3826 -0.7046 -0.4990
58997SOL    HW281803  11.549   5.384   9.208  0.3461  1.1676 -1.4147
58998SOL     OW81804   8.222  11.059   1.571  0.0196 -0.3927 -0.3070
58998SOL    HW181805   8.277  11.017   1.505 -0.5660 -1.7936  0.0437
58998SOL    HW281806   8.161  10.990   1.598 -1.7240  1.0036 -0.4757
58999SOL     OW81807   5.707   2.043   7.161  0.1388 -0.3333  0.0737
58999SOL    HW181808   5.717   2.046   7.066 -0.2129 -1.4645 -0.0068
58999SOL    HW281809   5.793   2.016   7.193  0.1994 -0.1502  0.0669
59000SOL     OW81810   6.733   4.610   4.845  0.1192 -0.2344 -0.3947
59000SOL    HW181811   6.777   4.567   4.919 -0.5387 -0.7267 -0.2787
59000SOL    HW281812   6.788   4.685   4.825 -0.4703  0.8146  1.5970
59001SOL     OW81813   1.713   4.956   7.680  0.2816  0.3819 -0.4734
59001SOL    HW181814   1.757   5.039   7.699  0.9307 -0.1202  0.2472
59001SOL    HW281815   1.627   4.964   7.721  0.6143  0.4143  0.2184
59002SOL     OW81816  12.165  10.457  11.497 -0.2401 -0.4168  0.7958
59002SOL    HW181817  12.122  10.541  11.513  0.3632  0.3007 -1.0481
59002SOL    HW281818  12.253  10.468  11.533 -1.1193 -1.4924  3.5479
59003SOL     OW81819  10.551   8.613   1.080 -0.6226  0.0764 -0.8828
59003SOL    HW181820  10.497   8.691   1.067  1.0380  1.3379 -0.4772
59003SOL    HW281821  10.512   8.570   1.157 -0.6780  1.3105 -0.1893
59004SOL     OW81822  12.260   5.134   8.946 -0.1964  0.0049  0.2722
59004SOL    HW181823  12.253   5.149   8.851  0.8857 -1.9759 -0.1515
59004SOL    HW281824  12.205   5.203   8.984 -1.9161 -0.0845 -1.8472
59005SOL     OW81825   0.744   2.594   9.361  0.1029  0.2174  0.4646
59005SOL    HW181826   0.793   2.645   9.297 -1.1375 -0.2966 -0.9519
59005SOL    HW281827   0.809   2.537   9.401  1.1657  1.5761  0.7517
59006SOL     OW81828   4.385  11.251   6.868  0.8815 -0.3371 -0.0300
59006SOL    HW181829   4.436  11.216   6.795  1.4434 -0.7887  0.5710
59006SOL    HW281830   4.364  11.174   6.921 -1.6931 -0.4001 -1.0080
59007SOL     OW81831   5.035   1.736   0.128  0.1735 -0.8385 -0.5013
59007SOL    HW181832   5.121   1.748   0.170  0.3367  0.9573 -1.2653
59007SOL    HW281833   4.996   1.662   0.175  0.3776  0.9539  2.8354
59008SOL     OW81834   5.262  11.221   9.265  0.2040  0.1210  0.4061
59008SOL    HW181835   5.287  11.313   9.270  1.2097 -0.1591  0.7775
59008SOL    HW281836   5.242  11.206   9.173 -0.8630  0.9326  0.4991
59009SOL     OW81837   9.990   3.866   0.593 -0.1555  0.1997  0.1077
59009SOL    HW181838  10.033   3.810   0.657 -0.7671 -0.0928  0.2687
59009SOL    HW281839   9.929   3.809   0.548 -1.1289  0.8162  0.5925
59010SOL     OW81840   6.004   5.191  12.097 -0.1336 -0.2067 -1.0036
59010SOL    HW181841   6.073   5.126  12.082 -1.3352 -1.4345 -1.5200
59010SOL    HW281842   5.953   5.191  12.016  0.0327  1.6857 -1.1512
59011SOL     OW81843   9.885   2.888   8.631 -0.1703  0.2345  0.3651
59011SOL    HW181844   9.976   2.916   8.619 -0.2169  0.5728  0.7577
59011SOL    HW281845   9.868   2.901   8.725 -1.2575  2.1940 -0.0291
59012SOL     OW81846   1.817   4.689   8.638 -0.1163  0.6246 -0.3054
59012SOL    HW181847   1.892   4.650   8.682  0.8769  3.2050  0.4630
59012SOL    HW281848   1.836   4.681   8.545 -0.7441 -2.0598 -0.2882
59013SOL     OW81849   2.346   2.752  10.228 -0.2574  0.0618 -0.0226
59013SOL    HW181850   2.401   2.804  10.287 -1.0862  0.8302  0.0898
59013SOL    HW281851   2.268   2.733  10.279 -0.2324 -0.7833 -0.2842
59014SOL     OW81852   0.435   5.272   3.221 -0.0554  0.3184 -0.2969
59014SOL    HW181853   0.345   5.264   3.189  0.1236 -1.5153 -0.4461
59014SOL    HW281854   0.430   5.337   3.291 -1.4508  0.4028 -0.4377
59015SOL     OW81855  12.219   2.363   5.327 -0.0547  0.4944  0.0123
59015SOL    HW181856  12.131   2.326   5.321  0.5790 -1.1888  0.2869
59015SOL    HW281857  12.215   2.444   5.277 -1.9456  0.8718  0.6791
59016SOL     OW81858   4.365   7.083  11.618 -0.4300 -0.1396  0.0796
59016SOL    HW181859   4.378   7.033  11.698 -1.6108  0.6489  0.8099
59016SOL    HW281860   4.357   7.018  11.549  2.0603 -0.7983  0.3211
59017SOL     OW81861   9.239   9.303   2.166 -0.3854  0.4933  0.5979
59017SOL    HW181862   9.228   9.211   2.192  1.8044 -0.1540 -0.4887
59017SOL    HW281863   9.295   9.299   2.088  0.3761  2.8025  0.9565
59018SOL     OW81864   3.877  12.161   9.779 -0.1856  0.0193 -0.0213
59018SOL    HW181865   3.793  12.203   9.792  0.5846  1.2598  1.1096
59018SOL    HW281866   3.906  12.191   9.692 -1.4089 -1.3933 -0.9786
59019SOL     OW81867  10.199  10.454   3.414 -0.7277 -0.1927  0.6120
59019SOL    HW181868  10.250  10.514   3.360 -0.1288  0.4725  1.8621
59019SOL    HW281869  10.117  10.500   3.430 -1.2733 -0.7652 -0.4250
59020SOL     OW81870  11.559   4.379  10.704  0.2514  0.1785 -0.0467
59020SOL    HW181871  11.575   4.342  10.791 -1.9655  0.5749  0.5839
59020SOL    HW281872  11.532   4.304  10.651  0.4746  0.1178 -0.0734
59021SOL     OW81873   3.805  11.462  12.025 -0.5116 -0.1856  0.1538
59021SOL    HW181874   3.766  11.375  12.030 -0.6986 -0.1569 -0.6576
59021SOL    HW281875   3.762  11.512  12.094  1.2864 -1.3569  2.2726
59022SOL     OW81876   1.979   1.604   9.755  0.1739  0.0231 -0.2192
59022SOL    HW181877   2.030   1.679   9.724 -0.4608  0.9561  0.8942
59022SOL    HW281878   2.012   1.589   9.844 -0.4647 -0.3026 -0.0325
59023SOL     OW81879  11.016   5.414   2.544  0.0794 -0.0388  0.6212
59023SOL    HW181880  11.028   5.480   2.476 -2.8723 -0.7193 -0.7096
59023SOL    HW281881  11.047   5.457   2.624  0.3314  2.1192 -0.5508
59024SOL     OW81882  11.425   8.183   9.233  0.3367  0.1262 -0.2383
59024SOL    HW181883  11.331   8.197   9.221  0.4257  0.8619 -0.1103
59024SOL    HW281884  11.440   8.095   9.198 -0.2450  0.3576 -1.1134
59025SOL     OW81885   3.852   9.642   1.596 -0.4331  0.9458  0.4642
59025SOL    HW181886   3.909   9.690   1.535 -0.3363  2.3917  1.6394
59025SOL    HW281887   3.906   9.633   1.675 -1.0663  0.3812  0.8314
59026SOL     OW81888   0.963   5.119   4.706 -0.2268 -0.1908 -0.0445
59026SOL    HW181889   1.011   5.067   4.642 -0.9661 -1.9028  0.7312
59026SOL    HW281890   0.872   5.093   4.695 -0.3549 -0.6897  1.7818
59027SOL     OW81891   3.675  12.011  10.576  0.2716  0.0589 -0.2550
59027SOL    HW181892   3.768  12.013  10.600  0.7330 -1.2349 -1.6922
59027SOL    HW281893   3.652  12.102  10.558  1.4810  0.3205 -0.5642
59028SOL     OW81894  11.726   2.926   1.870 -0.1876 -0.1077  0.6622
59028SOL    HW181895  11.764   2.992   1.928  1.1396  0.5934 -0.8971
59028SOL    HW281896  11.801   2.893   1.820 -1.2823 -0.5038 -0.7998
59029SOL     OW81897   5.723  11.201   8.211  0.2445 -0.6742  0.3687
59029SOL    HW181898   5.688  11.222   8.297 -1.2503 -2.1558  0.1814
59029SOL    HW281899   5.816  11.187   8.226 -0.2615 -2.7122  2.1560
59030SOL     OW81900  10.396  12.589   5.198 -0.6048  0.5078  0.3239
59030SOL    HW181901  10.415  12.582   5.292 -0.3039  1.3164  0.3288
59030SOL    HW281902  10.463  12.649   5.164  0.3811 -1.1064 -0.7356
59031SOL     OW81903   9.466   7.834   4.940 -0.0091 -0.1076  0.3427
59031SOL    HW181904   9.518   7.881   4.875 -1.5959  1.5837  0.2039
59031SOL    HW281905   9.379   7.827   4.901 -0.0179 -2.7133  0.6342
59032SOL     OW81906   9.998   1.035   1.188 -0.2111  0.5390 -0.1944
59032SOL    HW181907   9.968   1.109   1.239  2.1606  0.5661  1.3131
59032SOL    HW281908  10.009   0.964   1.251  3.3063  0.7241 -0.3936
59033SOL     OW81909   9.365   0.331   7.293  0.5286  0.7126 -0.2319
59033SOL    HW181910   9.386   0.375   7.375  1.3198  0.3647 -0.2387
59033SOL    HW281911   9.389   0.395   7.225 -1.2399  1.4702 -0.1899
59034SOL     OW81912   3.882   9.246   7.453  0.4119  0.1218 -0.6679
59034SOL    HW181913   3.927   9.264   7.535 -2.5516 -0.5906  1.2662
59034SOL    HW281914   3.874   9.332   7.411 -1.1711  1.1954  1.6092
59035SOL     OW81915   4.508   9.213   6.071 -0.3387  0.1237 -0.2308
59035SOL    HW181916   4.587   9.259   6.101 -1.1101  0.9274  0.6676
59035SOL    HW281917   4.458   9.280   6.023 -1.1140  0.0208  0.4097
59036SOL     OW81918   5.603   1.006   7.477  0.6170 -0.2613 -0.7608
59036SOL    HW181919   5.576   1.096   7.493 -0.1495 -0.5725 -0.2435
59036SOL    HW281920   5.551   0.977   7.402 -2.3552 -1.6100  1.6391
59037SOL     OW81921   8.687   5.255   9.825 -0.2524  0.3175 -0.0631
59037SOL    HW181922   8.764   5.286   9.873  0.1443  0.2963 -0.6636
59037SOL    HW281923   8.710   5.166   9.798  0.3797  1.0108 -1.9962
59038SOL     OW81924   3.894  12.182  10.431  0.4442 -0.2877 -0.0516
59038SOL    HW181925   3.822  12.240  10.456  0.8453  0.4072 -0.4963
59038SOL    HW281926   3.927  12.148  10.514 -0.4151 -0.6485  0.1584
59039SOL     OW81927   3.089   1.656  12.348  0.1334  0.0405 -0.2031
59039SOL    HW181928   3.097   1.564  12.322 -0.7966 -1.2031  3.3864
59039SOL    HW281929   3.168   1.672  12.400 -0.1051  1.0464 -0.1512
59040SOL     OW81930   9.163   6.421   3.692  0.0003 -0.0581 -0.1525
59040SOL    HW181931   9.219   6.377   3.756 -1.7428 -1.4059  0.5210
59040SOL    HW281932   9.111   6.483   3.743  0.0439  0.3504 -0.5954
59041SOL     OW81933  12.575   8.148   7.877 -0.2483 -0.8834  0.8811
59041SOL    HW181934  12.630   8.225   7.890 -1.1752 -0.4012  2.2562
59041SOL    HW281935  12.614   8.102   7.803  0.7974  0.4820  0.5492
59042SOL     OW81936  10.761   9.461  11.773 -0.2107 -0.1893 -0.2803
59042SOL    HW181937  10.835   9.416  11.813  0.1383 -1.4961 -2.2228
59042SOL    HW281938  10.784   9.553  11.774  0.8919 -0.4582  0.2265
59043SOL     OW81939   0.259  12.036  11.515  0.3233 -0.1378  0.0968
59043SOL    HW181940   0.194  12.085  11.567 -0.4067 -0.9624  0.0013
59043SOL    HW281941   0.303  12.102  11.463  0.4055  0.6015  1.0610
59044SOL     OW81942   4.572   0.219  11.833 -0.4184 -0.1225  0.0247
59044SOL    HW181943   4.640   0.192  11.771 -1.8233 -0.1649 -1.5791
59044SOL    HW281944   4.540   0.137  11.870 -0.9438 -0.2724 -0.7343
59045SOL     OW81945   4.862   0.418   4.485 -0.0119 -0.5230 -0.0552
59045SOL    HW181946   4.789   0.459   4.532 -1.3365 -0.3398 -2.1710
59045SOL    HW281947   4.940   0.455   4.527 -1.1249  1.0829  0.7455
59046SOL     OW81948   7.308   7.028   3.467  0.3507  0.1327 -0.2891
59046SOL    HW181949   7.343   7.044   3.555 -0.4075 -0.3610  0.1090
59046SOL    HW281950   7.330   7.107   3.418 -0.6583  1.1277  0.7955
59047SOL     OW81951   0.490   6.036   7.477  0.2150 -0.3121  0.0137
59047SOL    HW181952   0.440   6.026   7.558 -0.6519 -0.2232 -0.5030
59047SOL    HW281953   0.428   6.017   7.407  1.1776 -1.2632 -0.6150
59048SOL     OW81954   3.269   6.354   0.590  0.0872 -0.2602  0.1793
59048SOL    HW181955   3.228   6.389   0.669  0.7118  0.9382  0.0055
59048SOL    HW281956   3.356   6.394   0.589 -0.0117 -0.0374 -1.2396
59049SOL     OW81957   6.118  10.575   1.972 -0.0405 -0.1146  0.4653
59049SOL    HW181958   6.142  10.667   1.987  0.8431 -0.6476  2.6727
59049SOL    HW281959   6.164  10.527   2.041 -1.2712 -2.1198 -0.0468
59050SOL     OW81960   5.671   0.928   0.171  0.0119  0.5950  0.3779
59050SOL    HW181961   5.622   0.875   0.234 -0.0149  0.2516  0.0705
59050SOL    HW281962   5.740   0.969   0.224 -0.1736  0.5196  0.6813
59051SOL     OW81963  10.597  10.297  10.898  0.2390 -0.4664  0.2181
59051SOL    HW181964  10.534  10.272  10.966 -0.3568 -1.8082 -0.7710
59051SOL    HW281965  10.682  10.290  10.940 -0.1744 -0.3678  1.0920
59052SOL     OW81966   6.643   8.313   1.452  0.2562 -0.1457 -0.0434
59052SOL    HW181967   6.581   8.255   1.496 -0.5563  1.4891  1.0964
59052SOL    HW281968   6.599   8.398   1.452  1.7975  0.6778 -0.7648
59053SOL     OW81969   4.042  10.913  11.223 -0.3647 -0.3259  0.0901
59053SOL    HW181970   4.120  10.929  11.276 -0.2127 -1.2480  0.1469
59053SOL    HW281971   3.972  10.902  11.287 -0.3421 -0.5759  0.0709
59054SOL     OW81972   6.164   1.236  12.626  0.4483 -0.2090 -1.0484
59054SOL    HW181973   6.080   1.247  12.670  0.7281  0.4024 -0.6604
59054SOL    HW281974   6.208   1.321  12.635  1.1428 -0.5440 -1.1723
59055SOL     OW81975   3.115  10.076  11.033  0.0051  0.8044 -0.0363
59055SOL    HW181976   3.096  10.077  10.939 -0.1035  1.4152 -0.0145
59055SOL    HW281977   3.032  10.102  11.074 -0.2794 -0.5212  0.3026
59056SOL     OW81978   8.683  11.152   1.513 -0.1806 -0.1630 -0.1002
59056SOL    HW181979   8.744  11.198   1.455  0.0909 -0.2584  0.1036
59056SOL    HW281980   8.601  11.149   1.465 -0.6153  1.7784  0.4330
59057SOL     OW81981   7.474  10.600   9.869  0.3523  0.2549 -0.1128
59057SOL    HW181982   7.453  10.509   9.846 -0.3031  0.5866 -0.8551
59057SOL    HW281983   7.389  10.640   9.887  0.5885  0.8926 -0.4116
59058SOL     OW81984   1.844   8.802   7.126  0.9738 -0.1284 -0.9181
59058SOL    HW181985   1.833   8.764   7.039  2.1308  0.5841 -1.3866
59058SOL    HW281986   1.853   8.726   7.184  0.0901 -0.6086 -1.3765
59059SOL     OW81987   3.485   6.162   9.222 -0.1192 -0.2318  0.3158
59059SOL    HW181988   3.469   6.080   9.177  0.4535 -1.2985  1.9737
59059SOL    HW281989   3.457   6.146   9.312  2.5359  0.4462  1.3675
59060SOL     OW81990   2.216  11.430   6.922 -0.5422  0.7560  0.0825
59060SOL    HW181991   2.145  11.473   6.874 -0.8673 -0.3183 -0.4304
59060SOL    HW281992   2.191  11.337   6.925  0.8309  0.3554 -0.0903
59061SOL     OW81993   5.840  11.894   6.693 -0.4309 -0.3949  0.2381
59061SOL    HW181994   5.823  11.844   6.612 -0.8335  1.6256 -0.9970
59061SOL    HW281995   5.803  11.840   6.762  0.3367 -2.4180 -0.8476
59062SOL     OW81996   7.916  11.180   6.545 -0.4325 -0.5670  0.1321
59062SOL    HW181997   7.922  11.134   6.629  1.7523 -0.6819 -0.0343
59062SOL    HW281998   7.943  11.115   6.481  0.0248  0.1683 -0.4208
59063SOL     OW81999   8.177  11.566   6.886 -0.5611  0.0262 -0.6040
59063SOL    HW182000   8.122  11.644   6.880  0.4262  0.8551  0.5173
59063SOL    HW282001   8.205  11.563   6.978 -0.0468 -1.2876 -0.7722
59064SOL     OW82002  11.594  10.523   5.966 -0.1401  0.3745 -0.0553
59064SOL    HW182003  11.531  10.579   5.921  0.1440 -0.1407 -1.1231
59064SOL    HW282004  11.675  10.533   5.916  0.6761  1.0909  1.3465
59065SOL     OW82005   4.051   6.565   9.458  0.6794 -0.0733 -0.5002
59065SOL    HW182006   4.146   6.563   9.471  0.7697  0.8389 -0.9480
59065SOL    HW282007   4.040   6.584   9.365  0.0599  0.5141 -0.3189
59066SOL     OW82008  11.973   1.747   4.686 -0.0823 -0.0617  0.6657
59066SOL    HW182009  12.021   1.802   4.749  0.2009  1.2043 -0.5812
59066SOL    HW282010  12.042   1.706   4.634 -0.2527  1.7779 -1.1479
59067SOL     OW82011   6.415   8.356  11.123 -0.0955 -0.1104  0.4336
59067SOL    HW182012   6.329   8.386  11.152 -0.4917 -1.3271  0.5631
59067SOL    HW282013   6.411   8.260  11.130  1.2645 -0.1887  0.4360
59068SOL     OW82014   6.913   8.368   0.621 -0.4565 -0.4287  0.0871
59068SOL    HW182015   6.990   8.364   0.678  0.0001 -0.2615 -0.5083
59068SOL    HW282016   6.934   8.310   0.548 -0.4446  0.4380 -0.6160
59069SOL     OW82017   4.152   2.370   2.585  0.3400  0.3038  0.8307
59069SOL    HW182018   4.246   2.357   2.591  0.7602  0.0814 -3.5811
59069SOL    HW282019   4.139   2.464   2.603  1.3980  0.4069  1.0933
59070SOL     OW82020   7.615   9.138   5.732 -0.1204 -0.0108  0.4313
59070SOL    HW182021   7.680   9.136   5.662 -1.0979  0.1505 -0.5097
59070SOL    HW282022   7.538   9.095   5.695 -0.3682 -0.7208  1.7242
59071SOL     OW82023   4.793  11.678   8.612  0.0809 -0.2475  0.7943
59071SOL    HW182024   4.708  11.699   8.651 -0.4605  0.5935 -0.7537
59071SOL    HW282025   4.849  11.753   8.635 -0.6419  0.9581 -1.1389
59072SOL     OW82026   1.828   4.175   2.868 -0.3608  0.2417 -0.5715
59072SOL    HW182027   1.809   4.142   2.780 -0.1800  2.9726 -1.7247
59072SOL    HW282028   1.871   4.259   2.854  2.2972 -0.4729  2.1312
59073SOL     OW82029  11.231   0.642  11.158  0.5151  0.4696  0.1085
59073SOL    HW182030  11.257   0.728  11.191  0.9620  0.0611  0.8470
59073SOL    HW282031  11.294   0.581  11.196 -0.4611 -0.3333  0.5123
59074SOL     OW82032   7.878   7.801  12.489 -0.5105  0.7445 -0.2143
59074SOL    HW182033   7.863   7.782  12.396 -1.1367 -0.2412  0.0687
59074SOL    HW282034   7.803   7.762  12.533  0.1681  0.5281  0.7722
59075SOL     OW82035  12.203   7.685   0.361 -0.3420  0.7045  0.1421
59075SOL    HW182036  12.272   7.750   0.350 -1.3816  1.9380  0.7145
59075SOL    HW282037  12.163   7.706   0.445  0.8662 -2.2249  1.5809
59076SOL     OW82038   6.725   2.283   1.443 -0.0009 -0.4907  0.1890
59076SOL    HW182039   6.635   2.267   1.415  0.0677 -2.7132  0.9765
59076SOL    HW282040   6.774   2.209   1.408  0.8936 -1.0007  2.3313
59077SOL     OW82041   3.576   2.614   0.365 -0.4341 -0.0549 -0.1311
59077SOL    HW182042   3.652   2.670   0.381 -1.1048  0.9799 -0.4690
59077SOL    HW282043   3.590   2.581   0.276 -0.5925  0.4903 -0.3621
59078SOL     OW82044   4.789   5.338   6.506 -0.1322  0.6268  0.1546
59078SOL    HW182045   4.752   5.259   6.544  0.1895  0.2906 -0.2217
59078SOL    HW282046   4.793   5.321   6.412  2.6839 -0.1123  0.3257
59079SOL     OW82047   2.545   1.183  12.374  0.0250  0.2951 -0.2532
59079SOL    HW182048   2.508   1.240  12.306  0.4626 -1.6414 -2.2471
59079SOL    HW282049   2.472   1.167  12.433  0.3088  4.2650  1.5228
59080SOL     OW82050  11.622  10.443   3.156  0.2124  0.2574 -0.1602
59080SOL    HW182051  11.618  10.445   3.251 -0.3059  0.5377 -0.1881
59080SOL    HW282052  11.566  10.369   3.131  0.4820  0.0771 -0.2466
59081SOL     OW82053   9.772   2.223   1.882  0.1982 -0.3406  0.2986
59081SOL    HW182054   9.728   2.253   1.962 -1.3145 -1.1123 -0.2044
59081SOL    HW282055   9.812   2.140   1.907 -3.2248 -2.4174 -0.5201
59082SOL     OW82056   8.138  11.628   2.528 -0.3432 -0.2541 -0.0245
59082SOL    HW182057   8.097  11.601   2.446  0.0715 -2.1390  0.3430
59082SOL    HW282058   8.144  11.548   2.580  2.5970  0.1818  0.4766
59083SOL     OW82059  10.814   6.675   0.050 -0.0058 -0.1821 -0.3970
59083SOL    HW182060  10.812   6.589   0.091 -1.3183 -0.4813 -1.0177
59083SOL    HW282061  10.722   6.696   0.036  0.3502  0.6669 -1.5878
59084SOL     OW82062   0.323  11.533   0.953 -0.3258  0.0738  0.1608
59084SOL    HW182063   0.307  11.616   0.908  0.0869 -0.9295 -1.9982
59084SOL    HW282064   0.246  11.479   0.931  1.8320 -1.9681 -3.3196
59085SOL     OW82065   9.556  10.735   8.080  0.3694 -0.2676  0.2507
59085SOL    HW182066   9.589  10.702   7.996  0.6850  0.2942  0.1505
59085SOL    HW282067   9.584  10.826   8.083 -0.6713  0.0520  0.4407
59086SOL     OW82068  10.379   9.912   4.177 -0.0964  0.0431  0.2099
59086SOL    HW182069  10.367   9.891   4.270  1.5197  0.7031  0.5982
59086SOL    HW282070  10.366  10.007   4.173  0.1284  0.0586 -0.1908
59087SOL     OW82071  12.195   8.402   6.553 -0.2402  0.2577 -0.0528
59087SOL    HW182072  12.123   8.422   6.492  1.0159 -2.0703 -2.5248
59087SOL    HW282073  12.157   8.339   6.615 -1.5445  2.6802  1.7640
59088SOL     OW82074  12.010   2.298   0.468 -0.2354 -0.1700 -0.6104
59088SOL    HW182075  11.993   2.384   0.508 -1.8375 -0.9057  0.3636
59088SOL    HW282076  12.075   2.316   0.400  1.2647  1.4290  1.1363
59089SOL     OW82077   2.757  10.321   9.380 -0.3644  0.0950  0.3954
59089SOL    HW182078   2.742  10.258   9.450  0.1797  0.0101  0.4399
59089SOL    HW282079   2.765  10.405   9.424 -1.0343  0.1974  0.3403
59090SOL     OW82080  10.493   9.528   7.007 -0.5443  0.7791  0.6466
59090SOL    HW182081  10.535   9.482   6.935 -1.5743 -0.0445  0.5405
59090SOL    HW282082  10.546   9.507   7.084 -1.3921 -1.2704  0.7436
59091SOL     OW82083  11.360  12.426   9.533 -0.2689  0.4718 -0.4482
59091SOL    HW182084  11.433  12.442   9.472 -1.0129  2.2741 -0.9509
59091SOL    HW282085  11.285  12.408   9.476 -0.0619 -2.5846  0.0825
59092SOL     OW82086   1.733   7.087   7.336  0.3484  0.2005  0.3171
59092SOL    HW182087   1.686   7.013   7.299  2.4903 -1.0288 -0.0785
59092SOL    HW282088   1.678   7.117   7.409 -2.5235  0.8368 -1.9305
59093SOL     OW82089  10.255  11.986   2.432 -0.0817 -0.1683  0.5486
59093SOL    HW182090  10.178  12.000   2.376 -0.0277  0.1027  0.5420
59093SOL    HW282091  10.223  12.003   2.520 -0.2819 -1.0300  0.6556
59094SOL     OW82092   8.961   3.548   5.094 -0.3823  0.1998  0.0617
59094SOL    HW182093   8.879   3.571   5.137 -0.8063  0.2819 -0.7678
59094SOL    HW282094   8.936   3.480   5.031  0.0407  0.7793 -0.7462
59095SOL     OW82095   4.265   9.262   4.415  0.1094 -0.3357  0.0041
59095SOL    HW182096   4.287   9.169   4.414  2.2548  0.1177  0.2930
59095SOL    HW282097   4.259   9.285   4.507  1.7448  0.2278  0.0047
59096SOL     OW82098   4.054   5.472   9.182  0.1188 -0.1307 -0.0901
59096SOL    HW182099   4.017   5.391   9.216  0.4975 -0.0831  0.4488
59096SOL    HW282100   3.990   5.539   9.204 -0.3833 -0.3421 -0.8928
59097SOL     OW82101  11.024   9.823   2.904 -0.3335  0.2134  0.2872
59097SOL    HW182102  11.078   9.835   2.827 -1.1848  0.1002 -0.3393
59097SOL    HW282103  11.054   9.891   2.965 -0.4382  1.0607 -0.5881
59098SOL     OW82104   2.141   5.823   3.045  0.0905 -0.9676  0.4059
59098SOL    HW182105   2.192   5.812   2.964  0.4342 -0.1864  0.5086
59098SOL    HW282106   2.142   5.736   3.085  2.0538 -0.8158  0.8011
59099SOL     OW82107   0.839   8.627   0.958 -0.4390 -0.3654  0.3420
59099SOL    HW182108   0.819   8.539   0.926 -0.7062  0.0803 -0.7857
59099SOL    HW282109   0.772   8.682   0.918 -0.4123  0.3168  1.2266
59100SOL     OW82110   3.139   2.160   7.951 -0.2380 -0.1534 -0.3039
59100SOL    HW182111   3.153   2.214   7.873  0.2318 -1.1450 -0.9190
59100SOL    HW282112   3.213   2.099   7.951  0.9025  1.1011  2.0171
59101SOL     OW82113   3.866   7.301  10.252 -0.2164 -0.1570  0.1937
59101SOL    HW182114   3.844   7.208  10.265 -1.1049 -0.0200 -0.3028
59101SOL    HW282115   3.930   7.300  10.181  2.9459 -0.7129  2.7747
59102SOL     OW82116  12.025   0.459   9.067 -0.1214 -0.0137 -0.0320
59102SOL    HW182117  12.069   0.452   8.983  1.4267  0.6684  0.6780
59102SOL    HW282118  11.946   0.509   9.049  0.2759  0.2723 -1.0545
59103SOL     OW82119   3.275   9.655   5.265  0.2693  0.0322  0.3638
59103SOL    HW182120   3.181   9.655   5.285  0.4471  0.2148  1.2117
59103SOL    HW282121   3.305   9.568   5.292  0.0423 -0.6488 -1.4314
59104SOL     OW82122  10.683   7.348   6.154  0.2121 -0.4541  0.3405
59104SOL    HW182123  10.608   7.304   6.114  0.4332  0.0009 -0.5940
59104SOL    HW282124  10.702   7.420   6.095  0.1196  0.6622  1.6282
59105SOL     OW82125   5.013   6.167  12.192  0.3822  0.3579 -0.4032
59105SOL    HW182126   4.924   6.191  12.168  0.3257  1.2388  0.6249
59105SOL    HW282127   5.067   6.238  12.156  0.5774  0.2584 -0.3050
59106SOL     OW82128  11.894   1.179   4.752 -0.2246 -0.3874  0.2147
59106SOL    HW182129  11.971   1.122   4.762  0.1116  0.2018  1.1401
59106SOL    HW282130  11.846   1.142   4.678  1.9060  0.3098 -1.6235
59107SOL     OW82131   8.457   2.317   0.063  0.2679  0.4183 -0.4521
59107SOL    HW182132   8.438   2.408   0.041  1.4840  0.1709 -3.0329
59107SOL    HW282133   8.544   2.302   0.025  0.8715 -1.3419  1.4636
59108SOL     OW82134   3.820  10.396   6.457 -0.1603 -0.4817  0.2938
59108SOL    HW182135   3.894  10.424   6.511 -0.6340 -0.2740  0.8479
59108SOL    HW282136   3.764  10.346   6.517 -0.0060 -1.4523 -0.3446
59109SOL     OW82137   6.130   9.733   0.352  0.2119  0.3898  0.0957
59109SOL    HW182138   6.218   9.713   0.386  0.3340  1.1413  0.2227
59109SOL    HW282139   6.075   9.739   0.430  0.1545  0.4707  0.0483
59110SOL     OW82140   0.845   5.131   3.245 -0.4963  0.0921 -0.1188
59110SOL    HW182141   0.841   5.185   3.167 -1.7248  0.0795 -0.0883
59110SOL    HW282142   0.863   5.043   3.213  0.6743  0.3526 -0.2334
59111SOL     OW82143   6.971   8.577  10.133  0.1543 -0.6148  0.2040
59111SOL    HW182144   6.890   8.590  10.182  0.2624 -1.9042  0.7865
59111SOL    HW282145   6.943   8.544  10.048  0.0178  0.3313 -0.1230
59112SOL     OW82146   6.092   9.110   0.704  0.2521 -0.2990  1.0025
59112SOL    HW182147   6.125   9.178   0.644 -0.4671 -0.1772  0.7269
59112SOL    HW282148   6.010   9.146   0.737  0.1729 -0.7777  1.3358
59113SOL     OW82149   6.457   3.578   5.088 -0.1204 -0.3508 -0.1920
59113SOL    HW182150   6.362   3.584   5.095 -0.1124  2.0262 -1.3052
59113SOL    HW282151   6.474   3.577   4.994  0.9909 -0.2164 -0.0040
59114SOL     OW82152   6.500   5.221   3.829  0.0489  0.4001  0.3533
59114SOL    HW182153   6.406   5.218   3.808  0.0057  0.0310  0.5785
59114SOL    HW282154   6.532   5.134   3.804  0.6559  1.0353 -1.1796
59115SOL     OW82155  11.461  10.016   8.445  0.4400  0.5348 -0.0943
59115SOL    HW182156  11.379  10.013   8.395  0.3866 -0.9198  0.0366
59115SOL    HW282157  11.434  10.004   8.536  0.9439 -4.2436 -0.3043
59116SOL     OW82158   1.500  11.902   9.275 -0.5831 -0.0078 -0.0962
59116SOL    HW182159   1.504  11.909   9.371 -3.4907  0.9174  0.0749
59116SOL    HW282160   1.446  11.825   9.259  0.4153 -0.5283 -1.0332
59117SOL     OW82161   9.107  12.049   1.256 -0.0268  0.0051 -0.0901
59117SOL    HW182162   9.131  12.133   1.295  2.5497 -0.0313 -1.3244
59117SOL    HW282163   9.032  12.068   1.200 -1.5770  0.7425  2.1451
59118SOL     OW82164   6.182   1.467  12.242 -0.2450  0.1380 -0.3636
59118SOL    HW182165   6.246   1.449  12.311 -1.1582 -0.0441  0.4493
59118SOL    HW282166   6.235   1.496  12.167  0.7990 -0.2215  0.2191
59119SOL     OW82167   6.427   2.366   3.553  0.0623  0.0530 -0.1826
59119SOL    HW182168   6.364   2.298   3.577 -0.6175  0.0631 -1.7938
59119SOL    HW282169   6.504   2.318   3.523  0.0786  0.0111 -0.0733
59120SOL     OW82170   4.874   4.206  12.464  0.0250 -0.7484 -0.0558
59120SOL    HW182171   4.926   4.252  12.530 -0.4952  0.1064 -0.2198
59120SOL    HW282172   4.888   4.257  12.384 -1.1535 -0.4373 -0.0726
59121SOL     OW82173   0.937  10.137   0.588 -0.4182 -0.6274 -0.7383
59121SOL    HW182174   0.999  10.203   0.556 -0.1205 -0.1269  0.7752
59121SOL    HW282175   0.960  10.057   0.540  1.5325 -0.4980 -0.1062
59122SOL     OW82176   8.365   4.844   4.653  0.0713 -0.0249  0.2682
59122SOL    HW182177   8.432   4.863   4.718 -0.4172 -2.7724  1.7042
59122SOL    HW282178   8.384   4.755   4.624 -0.6740  0.5554 -2.2489
59123SOL     OW82179  11.157   6.813   4.124 -0.2434  0.5118  0.0161
59123SOL    HW182180  11.237   6.841   4.170 -0.2138 -0.1283  0.3701
59123SOL    HW282181  11.095   6.794   4.194 -0.1355 -0.6664 -0.1928
59124SOL     OW82182   3.466  11.982   4.668  0.3481  0.0181  0.1283
59124SOL    HW182183   3.502  12.059   4.712 -1.1531  0.8306 -0.0012
59124SOL    HW282184   3.441  11.924   4.740  0.6089  0.0587  0.2539
59125SOL     OW82185  10.728  12.398   6.405  0.0455 -0.2613  0.0195
59125SOL    HW182186  10.654  12.337   6.407 -0.6583  0.5647 -0.2635
59125SOL    HW282187  10.688  12.483   6.389  1.0411  0.2421  0.1562
59126SOL     OW82188   0.092   3.026   7.690 -0.1120 -0.8260  0.3738
59126SOL    HW182189   0.122   2.967   7.621 -1.0530 -1.7995  0.7802
59126SOL    HW282190   0.094   2.973   7.769  2.2052  0.6298  1.4019
59127SOL     OW82191   5.627   1.311  12.276 -0.7463  0.5271 -0.1830
59127SOL    HW182192   5.650   1.227  12.237 -2.1161  0.1044 -0.1397
59127SOL    HW282193   5.703   1.335  12.329  0.1096 -0.1192 -1.0902
59128SOL     OW82194  10.012   5.977   5.330 -0.6566  0.0207  0.1071
59128SOL    HW182195  10.053   5.962   5.415  0.8734 -0.6023 -0.7136
59128SOL    HW282196   9.993   6.071   5.329  2.3080  0.6968 -0.1181
59129SOL     OW82197   8.548   8.503  11.240 -0.1213 -0.0508 -0.0761
59129SOL    HW182198   8.499   8.535  11.316  1.0016 -0.4291  0.8223
59129SOL    HW282199   8.545   8.407  11.248  1.3426 -0.0823  0.3942
59130SOL     OW82200   9.122   0.625   4.889 -0.3204  0.6577 -0.4111
59130SOL    HW182201   9.073   0.706   4.877  0.0684  0.7098 -1.8814
59130SOL    HW282202   9.208   0.653   4.920  0.2188  0.9388 -2.0696
59131SOL     OW82203   6.926  10.736   3.546  0.4046 -0.2757 -0.0884
59131SOL    HW182204   6.860  10.671   3.572 -0.8445  0.5055 -1.2029
59131SOL    HW282205   6.948  10.713   3.455  1.5141 -0.3619  0.1763
59132SOL     OW82206   5.320   6.784  10.657  0.4899 -0.0124  0.1582
59132SOL    HW182207   5.381   6.800  10.729  0.0413  4.5651 -0.1644
59132SOL    HW282208   5.233   6.796  10.696 -0.0435 -2.1402 -0.2826
59133SOL     OW82209   4.884   2.827  10.259  0.0257 -0.0236 -0.3901
59133SOL    HW182210   4.826   2.886  10.307 -0.0470 -0.7699  0.4654
59133SOL    HW282211   4.889   2.748  10.313  0.5878 -0.5819 -1.2234
59134SOL     OW82212   0.083   5.670   0.784  0.4158  0.4877 -0.2890
59134SOL    HW182213   0.169   5.669   0.827  0.9058 -0.4762 -1.2422
59134SOL    HW282214   0.064   5.578   0.766 -1.0663  0.6523  0.3485
59135SOL     OW82215   7.724   8.166   4.294  0.1775  0.2210 -0.0478
59135SOL    HW182216   7.788   8.233   4.317  0.3313  0.3640 -0.8798
59135SOL    HW282217   7.658   8.172   4.363  0.2656  1.1249 -0.0306
59136SOL     OW82218   9.511   3.821  11.420 -0.4604 -0.1502 -0.2411
59136SOL    HW182219   9.456   3.891  11.385 -0.7271  1.6152  3.2522
59136SOL    HW282220   9.448   3.755  11.450 -0.4879  0.2255  0.5417
59137SOL     OW82221   0.198   8.077   0.559 -0.1499 -0.6092 -0.2845
59137SOL    HW182222   0.144   8.074   0.638  0.9640 -0.2399  0.5147
59137SOL    HW282223   0.153   8.139   0.502 -0.2884  0.1197  0.5963
59138SOL     OW82224   5.263   7.852  10.331  0.0305 -0.2417  0.0686
59138SOL    HW182225   5.200   7.870  10.401 -1.3688 -0.7123 -1.0128
59138SOL    HW282226   5.268   7.756  10.327 -0.1871 -0.2315 -0.6809
59139SOL     OW82227   2.203   2.862   2.274  0.0998  0.4367 -0.3597
59139SOL    HW182228   2.193   2.916   2.195  1.3588  1.0091 -0.1549
59139SOL    HW282229   2.191   2.772   2.243 -1.1528  0.7641 -0.8674
59140SOL     OW82230   6.762   0.934   4.104 -0.0509  0.0051 -0.1381
59140SOL    HW182231   6.761   1.023   4.070  0.3972 -0.7192 -2.1760
59140SOL    HW282232   6.853   0.920   4.132 -0.0200  0.0317 -0.2268
59141SOL     OW82233  10.266   6.970  10.042  0.2918  0.0086  0.3089
59141SOL    HW182234  10.340   6.911  10.026  1.1051  0.7695  1.1090
59141SOL    HW282235  10.305   7.058  10.034 -0.8468  0.4468 -0.6944
59142SOL     OW82236   3.531   7.076  12.302  0.1618 -0.1458 -0.1913
59142SOL    HW182237   3.597   7.146  12.303  0.1454 -0.0591 -1.7034
59142SOL    HW282238   3.505   7.070  12.210  1.4077 -3.3085 -0.4495
59143SOL     OW82239   1.229  11.103   7.810 -0.4187 -0.1921  0.1996
59143SOL    HW182240   1.296  11.053   7.855  0.6833 -1.7851 -2.9421
59143SOL    HW282241   1.262  11.193   7.808 -0.6677  0.0032  2.6892
59144SOL     OW82242   4.420   1.394   2.297  0.1508  0.4845 -0.0910
59144SOL    HW182243   4.489   1.460   2.291 -1.0040  1.6969 -0.9087
59144SOL    HW282244   4.360   1.416   2.226 -1.4044 -0.1014  0.9700
59145SOL     OW82245   1.750   6.929   9.603  0.0489  0.1777 -0.0557
59145SOL    HW182246   1.833   6.930   9.650 -0.3895 -1.1608  0.7835
59145SOL    HW282247   1.741   7.019   9.570  1.3601  0.5964  0.6361
59146SOL     OW82248  10.457  12.214   3.139  0.4295  0.0904 -0.1532
59146SOL    HW182249  10.476  12.120   3.149 -1.2159 -0.2044  0.4711
59146SOL    HW282250  10.417  12.221   3.053 -0.2955  0.0527  0.1713
59147SOL     OW82251   5.528   8.749   0.889  0.3358  0.4915 -0.2759
59147SOL    HW182252   5.537   8.681   0.957 -0.0825  2.4076  1.8232
59147SOL    HW282253   5.434   8.750   0.870 -0.1486  2.2865  1.8047
59148SOL     OW82254  10.232   2.081   4.035 -0.4707 -0.1279 -0.6796
59148SOL    HW182255  10.316   2.063   4.076 -1.0315 -0.3513  0.4176
59148SOL    HW282256  10.172   2.016   4.074 -0.9806 -0.5276 -2.0542
59149SOL     OW82257   8.887   8.122   5.945  0.3864  0.3666 -0.4997
59149SOL    HW182258   8.910   8.134   5.853 -0.7386 -0.6009 -0.9242
59149SOL    HW282259   8.904   8.208   5.985  1.6083  0.5892 -1.4284
59150SOL     OW82260   1.319   2.933   5.965 -0.5040 -0.1808 -0.6139
59150SOL    HW182261   1.280   2.973   5.887 -1.5343 -0.0577 -0.0519
59150SOL    HW282262   1.391   2.991   5.988  0.0341 -0.4045 -1.6673
59151SOL     OW82263   9.463   7.836   6.495  0.1174  0.2748  0.0178
59151SOL    HW182264   9.418   7.776   6.435  0.9904  0.2596 -0.6405
59151SOL    HW282265   9.393   7.881   6.541 -0.5629 -0.8759  0.1486
59152SOL     OW82266   2.669  11.896  12.480 -0.0540 -0.0028  0.0113
59152SOL    HW182267   2.648  11.890  12.387  1.4097  1.2199 -0.4172
59152SOL    HW282268   2.763  11.881  12.485  0.0606  0.9716  1.1752
59153SOL     OW82269   2.899   2.471   8.617  0.6073 -0.0628  0.3175
59153SOL    HW182270   2.903   2.562   8.589 -2.5775 -0.2241 -1.0881
59153SOL    HW282271   2.904   2.420   8.536  1.8262 -1.1402  1.0332
59154SOL     OW82272   7.514  12.151   8.457  0.3252  0.2872  0.6418
59154SOL    HW182273   7.487  12.204   8.532 -0.6895 -0.7537  1.0437
59154SOL    HW282274   7.462  12.071   8.465  1.1868 -0.3963 -0.4348
59155SOL     OW82275   7.701   3.911   3.222  0.2536 -0.0117  0.3753
59155SOL    HW182276   7.736   3.838   3.170 -0.7742  0.0776 -0.4733
59155SOL    HW282277   7.726   3.989   3.173  0.7535  0.1799  0.9240
59156SOL     OW82278   1.928   8.759  10.788 -0.3014 -0.4002 -0.5193
59156SOL    HW182279   1.840   8.731  10.764  0.2525 -0.4473 -2.6661
59156SOL    HW282280   1.919   8.793  10.877 -2.3629 -0.8969 -0.4986
59157SOL     OW82281   5.706  11.235   4.427 -0.4993  0.0140  0.2556
59157SOL    HW182282   5.660  11.153   4.406  2.3286 -1.6003 -0.0475
59157SOL    HW282283   5.798  11.212   4.426  0.5568  3.6292 -1.5539
59158SOL     OW82284  10.397   8.305   8.394  0.4929 -0.1875  0.0747
59158SOL    HW182285  10.339   8.238   8.430  2.3957 -2.6175 -1.0329
59158SOL    HW282286  10.474   8.302   8.451  1.0627  0.2319 -0.6621
59159SOL     OW82287   8.582  10.989   1.761  0.2253 -0.2413 -0.0246
59159SOL    HW182288   8.603  11.061   1.820 -2.0109  1.7795 -1.5093
59159SOL    HW282289   8.614  11.018   1.676 -1.0813 -0.7949 -0.7296
59160SOL     OW82290   8.782  11.022   5.082 -0.6625  0.2495  0.3309
59160SOL    HW182291   8.790  11.117   5.078 -1.5788  0.3369  0.2440
59160SOL    HW282292   8.821  10.991   5.001 -2.9324  0.7705 -1.0375
59161SOL     OW82293   5.921  11.578   2.997  0.8558 -0.0112 -0.3387
59161SOL    HW182294   5.863  11.597   3.071 -0.0982  0.3050 -1.1485
59161SOL    HW282295   6.006  11.612   3.025  0.2420  1.1964  0.1460
59162SOL     OW82296  10.975   2.998  12.386 -0.7649 -0.1693 -0.1926
59162SOL    HW182297  11.029   3.023  12.461 -0.5372  0.7525 -0.6451
59162SOL    HW282298  11.011   2.914  12.357  1.7449  1.2632 -1.6374
59163SOL     OW82299   2.731   6.047  11.057 -0.4526 -0.1352  0.1154
59163SOL    HW182300   2.664   6.109  11.084 -1.8740 -0.8423 -1.5495
59163SOL    HW282301   2.786   6.095  10.996 -1.0782 -0.2369 -0.5571
59164SOL     OW82302   2.472  10.834   1.549 -0.0376  0.3940  0.7124
59164SOL    HW182303   2.390  10.855   1.504  0.7544  0.5591 -0.6838
59164SOL    HW282304   2.515  10.919   1.563  2.1082  0.0942 -2.9161
59165SOL     OW82305   1.423  11.809   4.964 -0.3847  0.3646  0.0926
59165SOL    HW182306   1.338  11.768   4.979 -1.0697  2.3356  2.2008
59165SOL    HW282307   1.468  11.751   4.902 -2.6622 -1.5096  0.0874
59166SOL     OW82308  12.423   1.006   6.869  0.6077 -0.1505  0.1581
59166SOL    HW182309  12.383   1.053   6.797 -0.0121 -0.0770  0.5455
59166SOL    HW282310  12.367   1.025   6.945  1.9232  0.7964  0.9495
59167SOL     OW82311   0.141   4.946   2.198 -0.4690  0.2496 -0.4187
59167SOL    HW182312   0.173   4.902   2.277 -1.2409 -1.5295 -1.0326
59167SOL    HW282313   0.212   4.936   2.135 -0.5354  0.1264 -0.4742
59168SOL     OW82314  10.345  12.087   4.834  0.1597  0.4731  0.9469
59168SOL    HW182315  10.358  11.992   4.830 -0.5743  0.3779  0.7439
59168SOL    HW282316  10.250  12.098   4.838  0.0659  1.2800 -1.5701
59169SOL     OW82317   6.766   8.039   2.014  0.5918  0.1601  0.1952
59169SOL    HW182318   6.783   7.951   1.979 -2.6717 -0.6629  0.3767
59169SOL    HW282319   6.770   8.097   1.938  1.3486 -0.3477 -0.1648
59170SOL     OW82320   1.897   7.430   5.117  0.0576  1.1770  0.4843
59170SOL    HW182321   1.845   7.509   5.105 -0.0173  0.9593 -0.7554
59170SOL    HW282322   1.832   7.359   5.118  0.2203  1.0253  0.3504
59171SOL     OW82323   0.904  12.562   1.286  0.2455 -0.5562  0.3771
59171SOL    HW182324   0.839  12.621   1.248  1.4478  1.3424  1.0972
59171SOL    HW282325   0.940  12.514   1.211 -1.2656 -0.9343 -0.1320
59172SOL     OW82326   8.039   5.601   9.205  0.6854 -0.1831 -0.0314
59172SOL    HW182327   8.104   5.604   9.136  0.1421  2.8229 -0.5619
59172SOL    HW282328   7.955   5.614   9.160 -0.2601 -2.9897  0.7415
59173SOL     OW82329   4.687   2.330   1.425 -0.9924 -0.1318 -0.2582
59173SOL    HW182330   4.640   2.247   1.424 -0.1729 -0.6152  0.5634
59173SOL    HW282331   4.659   2.373   1.344 -0.6810 -1.6161 -1.1980
59174SOL     OW82332   5.009   0.154   5.289  0.4952  0.0998  0.1089
59174SOL    HW182333   4.984   0.177   5.379 -1.2816 -1.2223  0.0075
59174SOL    HW282334   4.944   0.089   5.262 -0.0297  1.6111 -2.7049
59175SOL     OW82335   6.533   8.753   9.302 -0.5085 -0.1777  0.4065
59175SOL    HW182336   6.454   8.724   9.256 -0.8401 -0.7123  1.2789
59175SOL    HW282337   6.558   8.677   9.356  0.4683  0.0646  0.3118
59176SOL     OW82338   0.309   8.412   4.946 -0.6995  0.0972  0.0369
59176SOL    HW182339   0.388   8.465   4.958  0.1703 -1.2548  0.6039
59176SOL    HW282340   0.342   8.327   4.916 -1.9046 -0.6158  0.6450
59177SOL     OW82341   2.293   8.474   5.613  0.3412 -0.1212  0.1332
59177SOL    HW182342   2.379   8.434   5.600  0.6702 -0.0806  1.9499
59177SOL    HW282343   2.250   8.466   5.528  1.5629 -1.5144 -0.3969
59178SOL     OW82344   4.345   2.120   4.047  0.4941 -0.0729  0.4037
59178SOL    HW182345   4.432   2.120   4.087  0.7490 -2.0259 -0.0377
59178SOL    HW282346   4.286   2.144   4.119  1.1295 -1.7496  1.5433
59179SOL     OW82347   0.994   0.464  11.819  0.1871  0.1896 -0.7035
59179SOL    HW182348   1.005   0.475  11.914 -1.0832 -0.6420 -0.4324
59179SOL    HW282349   1.047   0.534  11.780  0.6103  0.6355  0.6212
59180SOL     OW82350   2.713   9.406   7.282 -0.3361  0.3471 -0.1996
59180SOL    HW182351   2.685   9.321   7.315  1.7467 -0.8368 -1.2395
59180SOL    HW282352   2.745   9.388   7.193  2.2946  1.7185  0.3549
59181SOL     OW82353  10.080   6.613  12.348  0.5049  0.0668 -0.0905
59181SOL    HW182354  10.098   6.556  12.423  0.0000  2.0950  1.6498
59181SOL    HW282355  10.153   6.596  12.288  1.0191 -1.4858  0.9042
59182SOL     OW82356   2.132   8.529   1.980 -0.3155 -0.1882  0.2011
59182SOL    HW182357   2.059   8.482   1.941 -0.3518  0.9790 -1.2356
59182SOL    HW282358   2.166   8.470   2.048 -2.2392 -0.9638  0.5386
59183SOL     OW82359  10.202   2.343  11.497 -0.1581  0.3330  0.0625
59183SOL    HW182360  10.253   2.417  11.466 -1.9256  1.5631 -0.0116
59183SOL    HW282361  10.267   2.275  11.514  1.4779  1.7735 -0.1756
59184SOL     OW82362   3.608   8.786  11.557 -0.4103  0.0233 -0.1532
59184SOL    HW182363   3.678   8.786  11.622  1.1919  1.2566 -1.7983
59184SOL    HW282364   3.603   8.695  11.527  0.2566 -0.1375  0.2206
59185SOL     OW82365  11.482   1.261   2.474 -0.0692 -0.2688 -0.3975
59185SOL    HW182366  11.469   1.272   2.380  0.9705  0.3715 -0.4893
59185SOL    HW282367  11.577   1.253   2.484 -0.0548  0.8150  0.6894
59186SOL     OW82368   1.295  11.859   2.839 -0.4863  0.5116  0.3029
59186SOL    HW182369   1.388  11.841   2.852 -0.1247  1.3449 -0.9918
59186SOL    HW282370   1.257  11.853   2.926  1.0536  1.6747  1.0974
59187SOL     OW82371  12.404   4.625   1.832  0.2204  0.3032 -0.1883
59187SOL    HW182372  12.418   4.657   1.743 -0.7044  0.1373 -0.4048
59187SOL    HW282373  12.332   4.563   1.824  0.7638 -0.4381  0.5286
59188SOL     OW82374  12.634   1.280   2.610 -0.1562  0.4385  0.6138
59188SOL    HW182375  12.649   1.324   2.526  0.1767 -0.5102  0.1624
59188SOL    HW282376  12.697   1.319   2.670 -1.3068  2.1107  0.8195
59189SOL     OW82377  10.475   9.960  11.574 -0.2343 -0.0603 -0.5938
59189SOL    HW182378  10.523   9.995  11.650 -2.5914 -1.1992  1.5904
59189SOL    HW282379  10.542   9.921  11.519  1.4213 -1.7853  2.3735
59190SOL     OW82380   7.702   3.203  10.583 -0.1713  0.0125  0.4170
59190SOL    HW182381   7.746   3.255  10.651  0.5524 -1.6783  1.2950
59190SOL    HW282382   7.769   3.142  10.553 -0.5157  0.6457 -1.7795
59191SOL     OW82383   7.795   4.323   3.248 -0.7290 -0.5028  0.3899
59191SOL    HW182384   7.858   4.285   3.309 -1.6720 -0.4814  1.4092
59191SOL    HW282385   7.716   4.339   3.301 -1.7526 -0.9375 -0.9290
59192SOL     OW82386   3.560   6.043   8.178 -0.0620 -0.0254 -0.4644
59192SOL    HW182387   3.566   6.122   8.231  0.6015 -0.9457  0.8963
59192SOL    HW282388   3.466   6.030   8.165 -0.2395  0.2172  0.5183
59193SOL     OW82389   6.159  10.807   5.354 -0.2747  0.1074 -0.4080
59193SOL    HW182390   6.093  10.869   5.323  0.2461 -0.2587 -2.4293
59193SOL    HW282391   6.146  10.803   5.449 -3.0013  0.1893 -0.6992
59194SOL     OW82392   0.909  11.591  10.686 -0.1689  0.0094  0.2914
59194SOL    HW182393   0.838  11.614  10.626 -0.5051 -0.6805  0.4062
59194SOL    HW282394   0.980  11.562  10.629  0.1280  0.9796  0.1647
59195SOL     OW82395   8.226   4.774  10.060  0.3193  0.0343  0.2716
59195SOL    HW182396   8.260   4.829   9.989 -0.4173  1.4423  0.9589
59195SOL    HW282397   8.304   4.749  10.109  0.6898  0.4046 -0.1114
59196SOL     OW82398   5.720   1.808   4.274 -0.3652 -0.0329  0.0592
59196SOL    HW182399   5.776   1.855   4.336 -0.8024  1.4745 -0.6306
59196SOL    HW282400   5.751   1.835   4.188 -0.9259 -0.6763 -0.3570
59197SOL     OW82401   2.365   3.480   5.154 -0.8440  0.5118 -0.4044
59197SOL    HW182402   2.334   3.518   5.072 -0.2505  1.6764 -0.1075
59197SOL    HW282403   2.402   3.553   5.202 -1.3586 -0.1079  0.9975
59198SOL     OW82404  11.230   1.228   3.729  0.3923 -0.2730 -0.1157
59198SOL    HW182405  11.172   1.279   3.786  1.5712  0.3629  0.5515
59198SOL    HW282406  11.188   1.142   3.724 -0.4496  0.0716  0.6019
59199SOL     OW82407  12.028   1.226   5.892  0.0093 -0.0914 -0.7243
59199SOL    HW182408  11.951   1.197   5.844  0.1801  1.6266 -2.1339
59199SOL    HW282409  12.099   1.170   5.860 -0.4775 -1.0971 -0.0662
59200SOL     OW82410   5.480   7.309   7.204  0.0039  0.1797 -0.0411
59200SOL    HW182411   5.392   7.299   7.168 -0.2543  0.3343  0.5369
59200SOL    HW282412   5.489   7.403   7.219 -0.6825 -0.0769  2.2293
59201SOL     OW82413   5.820  10.188   3.816  0.4220  0.1893 -0.3653
59201SOL    HW182414   5.819  10.140   3.898  0.1303 -0.1105 -0.5386
59201SOL    HW282415   5.838  10.278   3.841  1.1250 -0.0351 -0.0495
59202SOL     OW82416   3.136   9.404  10.130 -0.5098  0.0526  0.3248
59202SOL    HW182417   3.172   9.352  10.202  1.4798 -0.7751 -1.1644
59202SOL    HW282418   3.064   9.350  10.096 -1.4595  0.4448  1.6301
59203SOL     OW82419   1.173   7.948   7.492  0.7061 -0.1368  0.6254
59203SOL    HW182420   1.128   7.932   7.575  3.8744 -0.0038  2.5375
59203SOL    HW282421   1.265   7.927   7.510  2.2182  3.3865 -1.7739
59204SOL     OW82422  10.084   4.193   1.963 -0.1356  0.7147  0.4912
59204SOL    HW182423  10.096   4.248   2.041 -0.9717 -0.3190  1.3980
59204SOL    HW282424  10.135   4.114   1.981 -1.0646  0.0781  0.4295
59205SOL     OW82425   1.428   1.479   2.654 -0.1947 -0.5382  0.3648
59205SOL    HW182426   1.341   1.502   2.689  0.8565  0.1864  2.7475
59205SOL    HW282427   1.425   1.506   2.563 -2.8006 -1.4647  0.0899
59206SOL     OW82428   5.993  11.717   3.738  0.1530 -0.0911 -0.4885
59206SOL    HW182429   6.077  11.756   3.714  0.6768  0.8237  2.4174
59206SOL    HW282430   5.941  11.720   3.657  2.0064  1.7083 -1.7159
59207SOL     OW82431  10.160   6.563  10.747 -0.0501 -0.0408  0.2309
59207SOL    HW182432  10.190   6.597  10.662  0.8197  2.1991  1.3541
59207SOL    HW282433  10.091   6.623  10.774 -0.6044 -0.9735  0.9339
59208SOL     OW82434   3.784   5.116   6.955 -0.3831  0.2237 -0.2084
59208SOL    HW182435   3.805   5.027   6.981 -1.1430  0.4211  1.1640
59208SOL    HW282436   3.695   5.110   6.918 -0.0788  0.2779 -0.9772
59209SOL     OW82437   9.265   6.882   5.489  0.0701 -0.4110 -0.2827
59209SOL    HW182438   9.281   6.908   5.580  0.1526  0.5907 -0.5697
59209SOL    HW282439   9.174   6.852   5.489 -0.4988  1.1793 -0.1789
59210SOL     OW82440  12.098   6.267   9.372 -0.2296  0.3615  0.0789
59210SOL    HW182441  12.006   6.270   9.399  0.0189  1.0701  0.8751
59210SOL    HW282442  12.096   6.291   9.279 -0.9785 -1.0344 -0.3014
59211SOL     OW82443   1.720  11.287   9.583 -0.3973  0.4121 -0.2733
59211SOL    HW182444   1.724  11.316   9.674 -0.5667  0.6970 -0.3530
59211SOL    HW282445   1.727  11.192   9.587  0.1097  0.4613  0.0007
59212SOL     OW82446   5.235   3.181   0.533  0.6267  0.3444 -0.1516
59212SOL    HW182447   5.320   3.140   0.521  0.0066 -1.3255  0.8330
59212SOL    HW282448   5.216   3.169   0.626 -1.1469 -0.2885 -0.5540
59213SOL     OW82449   0.551   6.387   3.906 -0.5643 -0.1211 -0.0363
59213SOL    HW182450   0.481   6.428   3.956 -0.6296  2.7901 -2.2495
59213SOL    HW282451   0.508   6.317   3.857 -1.5967  0.5739 -0.1528
59214SOL     OW82452   6.663   4.328   0.311  0.3340 -0.1486  0.0666
59214SOL    HW182453   6.647   4.246   0.265  1.2818 -0.9840  1.1680
59214SOL    HW282454   6.758   4.336   0.313  0.2689  0.5701  0.6512
59215SOL     OW82455   0.491   8.512   8.213 -0.2520  0.6234 -0.4985
59215SOL    HW182456   0.476   8.438   8.154  0.4813 -0.1724  0.2816
59215SOL    HW282457   0.583   8.534   8.201 -0.3507  1.1265 -0.3799
59216SOL     OW82458   5.877   3.401   5.202 -0.3321  0.2366  0.1462
59216SOL    HW182459   5.852   3.490   5.178  1.8544  0.3393 -2.1831
59216SOL    HW282460   5.956   3.411   5.254 -1.3903 -0.3207  1.9690
59217SOL     OW82461   4.793   5.521   2.420  0.5330  0.1527 -0.0486
59217SOL    HW182462   4.722   5.458   2.420  0.7692 -0.1348 -1.4639
59217SOL    HW282463   4.815   5.532   2.513 -0.1425 -1.1066  0.2818
59218SOL     OW82464  11.847   9.117   7.615  0.4225  0.0893 -0.1614
59218SOL    HW182465  11.914   9.167   7.569 -1.0947 -0.4022 -3.1695
59218SOL    HW282466  11.849   9.030   7.573 -1.3787 -0.2405  0.3597
59219SOL     OW82467   3.391   1.164   0.916 -0.1868  0.2375  1.2369
59219SOL    HW182468   3.407   1.209   0.999 -1.7778  0.2926  1.5452
59219SOL    HW282469   3.396   1.233   0.850 -0.0518  0.4006  1.4177
59220SOL     OW82470   5.139   8.461  11.999  0.0588 -0.0472  0.6567
59220SOL    HW182471   5.172   8.371  11.999 -0.4529 -0.2402  0.2854
59220SOL    HW282472   5.210   8.513  11.963  0.3228 -0.3199  0.7843
59221SOL     OW82473  12.183   5.293   1.559 -0.8454 -0.4527 -0.1071
59221SOL    HW182474  12.177   5.260   1.649 -1.2889  0.3389  0.1549
59221SOL    HW282475  12.277   5.297   1.542 -0.7634 -1.0240  0.1575
59222SOL     OW82476   6.106   4.692   3.776  0.1934 -0.6199  0.1824
59222SOL    HW182477   6.151   4.724   3.698 -0.4744  0.1652  0.1038
59222SOL    HW282478   6.032   4.642   3.743 -1.7172  2.0032  0.2382
59223SOL     OW82479   8.349  10.620  12.156  0.0381 -0.3735 -0.3308
59223SOL    HW182480   8.309  10.640  12.240 -0.9308  1.0244 -1.0813
59223SOL    HW282481   8.363  10.525  12.157 -1.1243 -0.5484  0.8842
59224SOL     OW82482   2.198   8.866   8.960  0.3937 -0.2486  0.0920
59224SOL    HW182483   2.190   8.923   9.036 -0.6422 -1.2722  0.7867
59224SOL    HW282484   2.115   8.817   8.958 -0.0044  0.3938 -2.2360
59225SOL     OW82485   3.265   1.182   1.200 -0.3664 -0.3980  0.4889
59225SOL    HW182486   3.340   1.237   1.177  0.1516 -1.0396  0.6126
59225SOL    HW282487   3.275   1.105   1.144 -0.6335 -0.7273  0.8969
59226SOL     OW82488   1.973   6.646   7.909 -0.4266  0.2013 -0.1010
59226SOL    HW182489   1.987   6.716   7.972 -0.9246 -1.1270  1.5394
59226SOL    HW282490   1.909   6.682   7.848 -2.4450  0.4347  2.0329
59227SOL     OW82491   4.220   7.285   4.193 -0.5680 -0.0041  0.0742
59227SOL    HW182492   4.204   7.246   4.279 -0.1283 -1.4669 -0.4708
59227SOL    HW282493   4.139   7.330   4.171 -1.0285 -0.4438  0.8350
59228SOL     OW82494   0.942   3.134   1.331  0.0804 -0.2641  0.5284
59228SOL    HW182495   0.955   3.225   1.359  0.4702 -0.0555 -0.3102
59228SOL    HW282496   0.982   3.082   1.401  0.4358  0.2248  0.6974
59229SOL     OW82497   8.469   2.986   1.299  0.0109 -0.4742 -0.2505
59229SOL    HW182498   8.383   2.982   1.258 -0.2746 -0.0517  0.3002
59229SOL    HW282499   8.509   2.901   1.280 -1.0221 -1.1590  0.5839
59230SOL     OW82500   4.794   0.117   2.281 -0.3869 -0.5786  0.2872
59230SOL    HW182501   4.797   0.102   2.375 -0.8636 -0.5404  0.3104
59230SOL    HW282502   4.847   0.046   2.244 -3.6881 -3.2936  0.2874
59231SOL     OW82503   4.608   5.282  12.509  0.6392  0.8434  0.0374
59231SOL    HW182504   4.591   5.287  12.603 -1.0075 -1.4450 -0.0560
59231SOL    HW282505   4.582   5.367  12.475  1.2063  1.6917  1.6249
59232SOL     OW82506  11.166   5.943   0.799 -0.2196 -0.5991 -0.1098
59232SOL    HW182507  11.234   5.882   0.773 -0.7244 -1.2494  0.0605
59232SOL    HW282508  11.187   6.025   0.754 -0.3373 -1.3077 -1.4720
59233SOL     OW82509   8.212   1.317   5.226 -0.3696  0.8494  0.3513
59233SOL    HW182510   8.256   1.278   5.301  1.2188  1.4667 -0.2249
59233SOL    HW282511   8.169   1.242   5.183 -0.9987  0.4384  1.6300
59234SOL     OW82512   0.734   7.434   7.778  0.1629  0.3561 -0.6314
59234SOL    HW182513   0.773   7.347   7.784 -0.5494  0.0344 -0.5240
59234SOL    HW282514   0.646   7.424   7.814  0.4867  1.4070  0.5186
59235SOL     OW82515   6.231   2.505  11.108 -0.4032  0.5040 -0.0439
59235SOL    HW182516   6.255   2.426  11.058 -0.2251 -0.3423  1.3334
59235SOL    HW282517   6.189   2.561  11.043 -3.5686 -2.0599 -0.5063
59236SOL     OW82518   4.557   4.610   2.085 -0.2961  0.1182  0.2789
59236SOL    HW182519   4.651   4.623   2.069 -0.2609  0.4500  0.7168
59236SOL    HW282520   4.545   4.636   2.177 -0.7776 -0.1292  0.2879
59237SOL     OW82521  11.139   6.375   5.813 -0.2581 -0.2207 -0.3737
59237SOL    HW182522  11.218   6.353   5.763  0.0807  0.6491 -0.2336
59237SOL    HW282523  11.152   6.333   5.898 -0.0244 -0.2225 -0.4095
59238SOL     OW82524  11.183   4.933  12.393  0.4658 -0.8197  0.5731
59238SOL    HW182525  11.123   4.904  12.325 -0.8757  1.8140  0.4903
59238SOL    HW282526  11.270   4.914  12.359 -0.2136 -0.9267 -1.2009
59239SOL     OW82527   7.566  11.391   6.762  0.3197  0.0951  0.6154
59239SOL    HW182528   7.494  11.418   6.819  0.1020  1.6127 -0.3402
59239SOL    HW282529   7.644  11.428   6.804  0.4305 -0.6131  1.0554
59240SOL     OW82530   8.823  11.167   6.543 -0.1206 -0.6325 -0.0997
59240SOL    HW182531   8.917  11.155   6.554 -0.2655 -1.8704 -0.0351
59240SOL    HW282532   8.804  11.132   6.455 -0.2175  1.5808 -1.0165
59241SOL     OW82533   6.520   2.039  11.702 -0.0840  0.7268 -0.6756
59241SOL    HW182534   6.457   2.094  11.654  0.6053  0.0209 -2.4673
59241SOL    HW282535   6.475   1.956  11.714 -0.2060  0.8595 -0.1859
59242SOL     OW82536  10.616   0.721   7.293 -0.5695 -0.2155 -0.4295
59242SOL    HW182537  10.593   0.805   7.333 -0.7818  0.5408 -2.0507
59242SOL    HW282538  10.551   0.710   7.222  0.8558 -0.6013 -1.7243
59243SOL     OW82539   5.045  12.227   8.248 -0.0681  0.1704  0.3316
59243SOL    HW182540   4.984  12.158   8.222  0.8002 -0.8128  0.8022
59243SOL    HW282541   5.071  12.268   8.166 -0.7869  0.1109  0.0664
59244SOL     OW82542   2.699   5.730   6.297 -0.5448  0.1984  0.5295
59244SOL    HW182543   2.667   5.640   6.312 -0.2688 -0.0411 -0.2628
59244SOL    HW282544   2.632   5.786   6.336 -2.9841 -0.2259 -2.6447
59245SOL     OW82545   9.757   3.391   0.309 -0.2493  0.6812  0.2656
59245SOL    HW182546   9.705   3.318   0.278  1.3119 -1.0053  1.3765
59245SOL    HW282547   9.729   3.405   0.400  2.5780 -1.7908  1.7016
59246SOL     OW82548  11.155   7.938   7.888  0.1012  0.0556  0.7332
59246SOL    HW182549  11.128   7.978   7.805  0.3535 -0.4542  0.3978
59246SOL    HW282550  11.117   7.994   7.955  0.1937  0.6803  0.2742
59247SOL     OW82551   0.487   2.153   9.971 -0.4470 -0.3996 -0.0980
59247SOL    HW182552   0.458   2.198  10.050 -0.1836 -1.7390  0.8010
59247SOL    HW282553   0.509   2.064  10.001 -0.6418 -1.0323 -1.7205
59248SOL     OW82554   2.454   4.173   8.197  0.3301 -0.1210 -0.4667
59248SOL    HW182555   2.542   4.141   8.176  0.6433  0.4568 -0.0724
59248SOL    HW282556   2.396   4.099   8.179  1.0917 -1.1142  0.9656
59249SOL     OW82557   9.387   0.533   8.254  0.0739  0.1843  0.2560
59249SOL    HW182558   9.451   0.599   8.226  1.0236 -0.1557  1.5118
59249SOL    HW282559   9.305   0.581   8.262  0.3031  0.7824 -0.7388
59250SOL     OW82560   6.015   3.117  11.920  0.3377  0.2919  0.4669
59250SOL    HW182561   6.062   3.055  11.864 -0.1182 -0.7150  1.1673
59250SOL    HW282562   5.987   3.186  11.860  0.8358 -0.1890 -0.3406
59251SOL     OW82563   1.731   8.558   7.679 -0.2814 -0.0730 -0.1703
59251SOL    HW182564   1.806   8.614   7.659 -0.0373 -0.1399  0.5373
59251SOL    HW282565   1.689   8.600   7.754 -1.1364  0.1315 -0.7441
59252SOL     OW82566   0.530   4.144   8.305 -0.0620 -0.4852 -0.0911
59252SOL    HW182567   0.556   4.054   8.325 -0.7861 -0.4410  1.1902
59252SOL    HW282568   0.568   4.196   8.376  1.9223  0.5257 -1.7918
59253SOL     OW82569   2.596  10.839   3.468  0.0381  0.1048  0.7740
59253SOL    HW182570   2.643  10.782   3.529  0.8187  0.8500  0.8917
59253SOL    HW282571   2.503  10.818   3.481  0.2155  0.0218  1.9920
59254SOL     OW82572   1.920  10.786   4.473  0.5982 -0.0877  0.4175
59254SOL    HW182573   1.889  10.828   4.553 -2.6552  0.4061 -0.9250
59254SOL    HW282574   2.014  10.778   4.484  0.2920  0.0195  4.2181
59255SOL     OW82575   5.008   1.833   4.243 -0.0789  0.4464 -0.1048
59255SOL    HW182576   4.954   1.884   4.182 -1.0218  0.2956  0.5660
59255SOL    HW282577   4.961   1.840   4.326  0.3600 -0.6065  0.2451
59256SOL     OW82578  12.573   9.407  10.857 -0.0671  0.2260 -0.3297
59256SOL    HW182579  12.555   9.458  10.778 -3.0225  0.6176  0.4998
59256SOL    HW282580  12.557   9.467  10.929 -2.0140 -1.3243  0.6195
59257SOL     OW82581   3.207  11.226  10.429 -0.4635 -0.0658  0.2419
59257SOL    HW182582   3.278  11.289  10.421  0.6462 -1.4912 -2.0200
59257SOL    HW282583   3.227  11.177  10.509 -0.2639  1.0992  0.9328
59258SOL     OW82584   9.174   6.335  10.323 -0.5207  0.2267 -0.1936
59258SOL    HW182585   9.143   6.281  10.396  3.4559 -0.8754  0.9428
59258SOL    HW282586   9.208   6.272  10.260  0.6115  1.2841 -0.6702
59259SOL     OW82587  10.861   6.400   8.199  0.2440  0.1438  0.4985
59259SOL    HW182588  10.884   6.487   8.234 -0.1490 -0.4108  2.2742
59259SOL    HW282589  10.944   6.353   8.196  0.4655  0.5798 -0.5132
59260SOL     OW82590   6.491   6.296   9.537  0.2861 -0.3500  0.0416
59260SOL    HW182591   6.545   6.372   9.558  1.7703 -1.0964 -0.8810
59260SOL    HW282592   6.421   6.330   9.481  1.2226  0.2766 -0.7682
59261SOL     OW82593   7.344   6.557   7.445  0.1421 -0.3639  1.0281
59261SOL    HW182594   7.400   6.581   7.372  0.3667  0.2600  1.3980
59261SOL    HW282595   7.356   6.462   7.454  0.2943 -0.4060  0.4124
59262SOL     OW82596   7.601  11.669   2.158 -0.4114  0.2418  0.1260
59262SOL    HW182597   7.510  11.693   2.139 -1.0572 -2.4107 -0.4893
59262SOL    HW282598   7.615  11.586   2.112  2.8731  1.3165 -1.1628
59263SOL     OW82599   8.679   5.292   3.648  0.5892 -0.0424  0.1450
59263SOL    HW182600   8.706   5.273   3.558 -0.3643  0.8318 -0.3419
59263SOL    HW282601   8.725   5.227   3.700  0.5583 -1.0723 -1.0532
59264SOL     OW82602  11.021  10.077   7.566  0.2979 -0.2952 -0.5067
59264SOL    HW182603  11.095  10.131   7.540  0.6559  0.2274  1.4414
59264SOL    HW282604  11.058   9.989   7.577  0.7136  0.0115  0.6880
59265SOL     OW82605   1.468   3.936   6.401  0.0138 -0.5664  0.6083
59265SOL    HW182606   1.412   4.004   6.364 -0.7665 -1.3740  0.2813
59265SOL    HW282607   1.409   3.881   6.452  0.4132 -1.6596 -0.0671
59266SOL     OW82608  10.014   3.101   9.995  0.6096 -0.6495 -0.6583
59266SOL    HW182609   9.980   3.152   9.921 -0.8854  3.1732  2.2979
59266SOL    HW282610  10.097   3.144  10.016  0.9537 -1.6002 -0.0233
59267SOL     OW82611  11.328   2.755   4.631 -0.0666 -0.3500 -0.5202
59267SOL    HW182612  11.391   2.754   4.559  0.8226 -0.0592  0.2385
59267SOL    HW282613  11.246   2.783   4.590  1.0070  2.4431 -1.0149
59268SOL     OW82614   8.316   5.788   9.953 -0.1703  0.8270  0.1135
59268SOL    HW182615   8.359   5.869   9.924  0.0983  0.3507 -0.8512
59268SOL    HW282616   8.344   5.722   9.890  0.0917 -0.1680  1.2310
59269SOL     OW82617   6.986  11.277   0.883 -0.0211 -0.1848  0.1238
59269SOL    HW182618   6.916  11.214   0.868  0.4077 -1.0337  1.4756
59269SOL    HW282619   6.968  11.312   0.970  0.9552 -0.0532  0.2824
59270SOL     OW82620  11.375   3.301   8.406  0.0520 -0.1630 -0.7513
59270SOL    HW182621  11.356   3.252   8.326 -0.1651  1.6695 -1.8878
59270SOL    HW282622  11.461   3.340   8.391 -0.0796  0.3731 -0.1641
59271SOL     OW82623   7.444   7.419  11.956 -0.0010  0.1839 -0.0530
59271SOL    HW182624   7.521   7.432  11.901 -1.4533 -0.9223 -2.5040
59271SOL    HW282625   7.474   7.361  12.026  2.8478  4.4470  2.7306
59272SOL     OW82626   2.151   9.048  11.811  0.3653  0.1496  0.8091
59272SOL    HW182627   2.080   9.081  11.867 -1.0671 -1.1898 -0.1232
59272SOL    HW282628   2.147   8.953  11.823  1.8519  0.0296  0.5086
59273SOL     OW82629   9.745   6.263   7.878 -0.5292  0.2010  0.3094
59273SOL    HW182630   9.798   6.306   7.811  2.1176 -2.3200  0.6409
59273SOL    HW282631   9.691   6.200   7.830  0.1263 -0.4178  0.3774
59274SOL     OW82632   4.946  11.845   7.788 -0.6581 -0.3616  0.4667
59274SOL    HW182633   4.997  11.913   7.832  1.8338 -2.9250  1.8823
59274SOL    HW282634   4.872  11.829   7.846 -0.6062  0.2976  0.7222
59275SOL     OW82635   6.510   9.204   7.062 -0.7477  0.4106  0.4152
59275SOL    HW182636   6.489   9.261   7.136  0.7329  1.1801  0.2685
59275SOL    HW282637   6.533   9.120   7.101 -0.8871  0.5344  0.7615
59276SOL     OW82638   9.977   7.096   9.343 -0.4601 -0.5380  0.5168
59276SOL    HW182639   9.903   7.039   9.366 -1.2974 -1.0198 -2.8272
59276SOL    HW282640   9.958   7.126   9.254  1.6195  2.3499  0.8933
59277SOL     OW82641   5.175  10.877  12.572 -0.2721  0.4184  0.0500
59277SOL    HW182642   5.152  10.948  12.632  0.1493  0.2158  0.4655
59277SOL    HW282643   5.234  10.916  12.509 -2.6710  1.2611 -1.8053
59278SOL     OW82644   9.369   0.148   9.661 -0.0439  0.1724 -0.0219
59278SOL    HW182645   9.375   0.240   9.685  1.3341  0.4600 -1.3350
59278SOL    HW282646   9.278   0.137   9.633 -0.4250  0.9259  0.8623
59279SOL     OW82647   9.589   6.059   6.192 -0.5229  0.7978  0.4758
59279SOL    HW182648   9.571   6.003   6.268  2.4092 -0.7779  0.1584
59279SOL    HW282649   9.535   6.022   6.122  1.1716 -1.6658  0.3346
59280SOL     OW82650   8.825  10.171   2.069  0.4697  0.0672 -0.7460
59280SOL    HW182651   8.850  10.109   2.137 -0.5950  0.9845  0.5364
59280SOL    HW282652   8.906  10.192   2.023  0.9455 -1.7472 -0.7823
59281SOL     OW82653   2.336   2.707   0.184  0.1629 -0.3893  0.2789
59281SOL    HW182654   2.418   2.712   0.134 -0.3917 -0.0263 -0.6158
59281SOL    HW282655   2.271   2.677   0.120 -1.0258  2.1949  0.1904
59282SOL     OW82656   0.869   6.198   1.265 -0.3717  0.4271  0.1812
59282SOL    HW182657   0.940   6.257   1.241 -0.8042  0.2156 -1.7641
59282SOL    HW282658   0.825   6.242   1.337  0.0524  1.8991 -0.4208
59283SOL     OW82659  11.291  10.480   6.078  0.6875 -0.2938 -0.1885
59283SOL    HW182660  11.241  10.402   6.099 -0.9231 -0.1283 -2.8421
59283SOL    HW282661  11.365  10.480   6.139 -0.1618 -2.9592  0.9568
59284SOL     OW82662   1.077   5.384   9.987 -0.6063 -0.0516 -0.5321
59284SOL    HW182663   1.017   5.416  10.054  0.4491 -2.1068  1.5505
59284SOL    HW282664   1.044   5.421   9.905 -2.7480  1.5002  0.9242
59285SOL     OW82665  11.610   0.270   6.653  0.0314 -0.1182  0.0162
59285SOL    HW182666  11.597   0.364   6.641  0.7628  0.0016  0.1283
59285SOL    HW282667  11.529   0.240   6.695 -0.4511  0.3515 -0.5483
59286SOL     OW82668   4.134   1.008  11.335  0.3429  0.6910 -0.2098
59286SOL    HW182669   4.158   1.098  11.316  0.8298  0.2219 -1.9471
59286SOL    HW282670   4.169   0.957  11.263 -0.0272 -0.8964  0.6698
59287SOL     OW82671   6.773  11.094   0.091 -0.2375  0.3484 -0.0505
59287SOL    HW182672   6.717  11.055   0.023 -0.9152 -1.1562  1.3022
59287SOL    HW282673   6.739  11.058   0.173  2.7237 -0.6801  0.8589
59288SOL     OW82674   8.483   3.048  11.295 -0.3016 -0.4660  0.1120
59288SOL    HW182675   8.572   3.083  11.287 -0.2640 -0.3556  0.9106
59288SOL    HW282676   8.447   3.093  11.371  0.1559 -3.0322  1.9705
59289SOL     OW82677   5.613   9.710   2.487  0.0371 -0.0703 -0.1837
59289SOL    HW182678   5.659   9.793   2.497 -0.0970 -0.0178  0.0029
59289SOL    HW282679   5.552   9.707   2.561  0.5501 -0.6660  0.2327
59290SOL     OW82680   2.453   0.622   6.677 -0.1612  0.5274  0.2892
59290SOL    HW182681   2.437   0.577   6.760 -0.1796  0.3961  0.2152
59290SOL    HW282682   2.540   0.660   6.687 -0.2033  0.5915  0.4041
59291SOL     OW82683  10.231   6.203   2.054  0.3255  0.6739 -0.0417
59291SOL    HW182684  10.196   6.157   2.130  0.3493  0.8963  0.1059
59291SOL    HW282685  10.196   6.292   2.061 -1.2866  0.1964 -1.3391
59292SOL     OW82686   6.948  12.007  11.195  0.2098  0.6124  0.5055
59292SOL    HW182687   6.989  11.925  11.220  0.5314  0.8326  0.7103
59292SOL    HW282688   6.965  12.014  11.100 -1.6377 -0.5652  0.0589
59293SOL     OW82689   0.598  11.140   7.932  0.1408  0.2557  0.3506
59293SOL    HW182690   0.538  11.213   7.916 -0.7071 -0.6123 -0.5648
59293SOL    HW282691   0.640  11.162   8.015 -0.9806  1.1889  0.7065
59294SOL     OW82692   3.248   9.923   5.132  0.1891 -0.2027  0.0085
59294SOL    HW182693   3.219   9.832   5.129 -1.6310  0.3158  0.8234
59294SOL    HW282694   3.289   9.931   5.218  1.4136 -0.5102 -0.5135
59295SOL     OW82695   8.230   3.142  11.483  0.0226  0.1335  0.2045
59295SOL    HW182696   8.279   3.224  11.473 -1.1103  0.9855  1.2644
59295SOL    HW282697   8.140   3.166  11.461 -0.2621 -0.9254  0.1976
59296SOL     OW82698   8.617   1.579   1.347 -0.1273  0.0918 -0.0265
59296SOL    HW182699   8.524   1.561   1.360 -0.0603  0.1513  0.5388
59296SOL    HW282700   8.618   1.647   1.280 -0.4829 -0.0283 -0.1605
59297SOL     OW82701  11.319   7.672   4.956 -0.1704 -0.3245  0.3466
59297SOL    HW182702  11.364   7.755   4.975 -1.8288  0.8979 -0.7233
59297SOL    HW282703  11.300   7.635   5.042 -0.8578  1.2729  0.9232
59298SOL     OW82704  10.760   3.537   4.453  0.4432 -0.1647  0.1865
59298SOL    HW182705  10.779   3.548   4.546 -1.2813  3.5326  0.2713
59298SOL    HW282706  10.846   3.542   4.410  1.0846 -0.0873  1.4458
59299SOL     OW82707   7.944   3.030   2.934 -0.5574  0.1988  0.2236
59299SOL    HW182708   8.000   2.989   3.001  0.7221  1.3441 -0.0721
59299SOL    HW282709   7.903   3.104   2.980 -0.3305  0.4842 -0.0222
59300SOL     OW82710   3.567   7.846  11.242  0.0463  0.1102  0.3395
59300SOL    HW182711   3.627   7.916  11.270  0.2512  0.5976 -1.2229
59300SOL    HW282712   3.613   7.802  11.170 -1.0765 -0.1079 -0.2765
59301SOL     OW82713  11.308   2.951   1.314 -0.3393 -0.4627  0.2668
59301SOL    HW182714  11.367   2.905   1.255  2.5768  0.3550  2.3130
59301SOL    HW282715  11.251   2.883   1.349  1.2630 -1.8418  0.3020
59302SOL     OW82716   5.031  11.582   2.145 -0.3896 -0.6688  0.0366
59302SOL    HW182717   4.998  11.492   2.148  2.2977 -1.7356  0.2703
59302SOL    HW282718   5.061  11.599   2.234  1.5057 -0.5543 -0.5880
59303SOL     OW82719   3.496   3.601   1.125 -0.0825  0.6307 -0.1099
59303SOL    HW182720   3.505   3.640   1.212  0.8745  2.2089 -0.8700
59303SOL    HW282721   3.586   3.574   1.102 -0.6279 -1.7238  0.1935
59304SOL     OW82722   5.445   3.750   2.794 -0.0682 -0.1280  0.2069
59304SOL    HW182723   5.448   3.688   2.721  0.5396 -0.5885  0.6122
59304SOL    HW282724   5.537   3.768   2.814 -0.2299  0.0226  0.8295
59305SOL     OW82725   8.246  10.665  11.090  0.3156  0.4087  0.6752
59305SOL    HW182726   8.305  10.644  11.163  1.4322 -1.9637 -0.7860
59305SOL    HW282727   8.296  10.642  11.012 -2.1113 -0.5635 -0.6791
59306SOL     OW82728   4.172   6.003   2.075 -0.0808 -0.0658  0.3650
59306SOL    HW182729   4.210   6.068   2.134  0.0441 -0.0060  0.2186
59306SOL    HW282730   4.124   5.944   2.133  0.0222  0.0056  0.5246
59307SOL     OW82731   7.281  12.615   9.893  0.5367 -0.1982 -0.4119
59307SOL    HW182732   7.323  12.533   9.870 -1.5964 -1.2793 -0.7384
59307SOL    HW282733   7.260  12.607   9.986 -0.3471 -0.3734 -0.6147
59308SOL     OW82734   1.592   5.542  12.389  0.0344 -0.1855 -0.3054
59308SOL    HW182735   1.684   5.544  12.362  0.7412  0.4739  1.8938
59308SOL    HW282736   1.560   5.630  12.374 -0.3238 -0.4576 -1.2262
59309SOL     OW82737   5.602   5.662   2.378 -0.1193 -0.4085 -0.1404
59309SOL    HW182738   5.639   5.686   2.293  0.5986  1.9866  0.7523
59309SOL    HW282739   5.666   5.604   2.417 -0.8273 -2.1872 -1.4924
59310SOL     OW82740  11.543  10.119  11.427 -0.1565 -0.3630 -0.3734
59310SOL    HW182741  11.598  10.105  11.505  0.0978  1.3694 -0.2036
59310SOL    HW282742  11.588  10.071  11.358 -0.6105 -2.2934  0.6018
59311SOL     OW82743   3.172   8.502   7.694 -0.1030  0.0383 -0.0861
59311SOL    HW182744   3.111   8.564   7.654 -0.4928 -0.4623 -0.2788
59311SOL    HW282745   3.181   8.431   7.630  0.4226 -0.0571  0.0856
59312SOL     OW82746  10.891  11.813   4.408 -0.1605 -0.3215  0.4452
59312SOL    HW182747  10.821  11.849   4.354 -1.8308 -2.0178  1.3561
59312SOL    HW282748  10.933  11.747   4.353 -0.9318 -1.0482  0.7088
59313SOL     OW82749   3.103   7.728   2.012 -0.7022  0.4896  0.8212
59313SOL    HW182750   3.049   7.800   2.042 -0.5478  0.9686 -0.0211
59313SOL    HW282751   3.096   7.730   1.917 -0.0471 -0.0946  0.7489
59314SOL     OW82752   9.945  12.366   2.434  0.5867 -0.5655 -0.3984
59314SOL    HW182753   9.958  12.426   2.360 -1.9187 -0.6570 -0.9964
59314SOL    HW282754   9.859  12.328   2.419 -0.1324 -0.3935  2.7408
59315SOL     OW82755   5.914   6.542   1.137 -0.5239 -0.0069  0.5317
59315SOL    HW182756   5.905   6.508   1.226  1.0520  0.7163  0.9941
59315SOL    HW282757   5.913   6.637   1.147 -0.3981  0.0798 -0.2252
59316SOL     OW82758  11.398   9.003   4.954 -0.0322 -0.3452  0.9089
59316SOL    HW182759  11.378   8.913   4.926 -1.3227  0.3356 -0.4785
59316SOL    HW282760  11.493   9.010   4.944 -0.2227 -0.5867 -2.2614
59317SOL     OW82761   6.045   4.012  12.043 -0.6022 -0.6931 -0.2407
59317SOL    HW182762   5.994   4.053  11.973 -0.1991 -0.0452 -0.1620
59317SOL    HW282763   6.052   3.920  12.017  0.0854 -0.3360 -1.3919
59318SOL     OW82764   2.644   4.841   1.986  0.6134  0.0827  0.0335
59318SOL    HW182765   2.612   4.858   2.075  2.0084  3.2078  0.0890
59318SOL    HW282766   2.739   4.836   1.996  0.8730  1.5315 -1.3519
59319SOL     OW82767  12.553   7.627   8.382  0.1932 -0.1707 -0.1177
59319SOL    HW182768  12.534   7.721   8.381 -0.2779 -0.1768 -3.7907
59319SOL    HW282769  12.648   7.622   8.372  0.4445 -0.1814  1.7856
59320SOL     OW82770   0.571   7.060   0.833  0.2119 -0.0185 -0.2041
59320SOL    HW182771   0.621   6.996   0.884 -0.6426  0.0433  0.7518
59320SOL    HW282772   0.506   7.007   0.786  0.9335 -0.0647 -1.1842
59321SOL     OW82773  11.349  10.194   1.708  0.0775  0.4202 -0.3142
59321SOL    HW182774  11.398  10.168   1.629  2.3276 -1.9007  1.6615
59321SOL    HW282775  11.270  10.140   1.706  0.8611 -0.7749 -0.2881
59322SOL     OW82776   8.119  11.194  11.959 -0.3463  0.4344 -0.2984
59322SOL    HW182777   8.053  11.224  12.021 -0.4451 -0.0094 -0.1890
59322SOL    HW282778   8.091  11.107  11.933  0.5803 -0.0603  0.3175
59323SOL     OW82779   1.294   4.980   9.383 -0.6230  0.5039 -0.1015
59323SOL    HW182780   1.325   4.903   9.431  1.7907  1.3052 -0.2429
59323SOL    HW282781   1.205   4.958   9.357 -0.3936 -1.7765  0.8344
59324SOL     OW82782   1.836   9.317   5.786 -0.1438  0.3031 -0.4153
59324SOL    HW182783   1.809   9.230   5.756 -2.2359  0.5158  0.6501
59324SOL    HW282784   1.811   9.375   5.715  1.5762  0.0440 -1.2802
59325SOL     OW82785   0.337   5.084   4.987  0.1178  0.5862  0.6923
59325SOL    HW182786   0.386   5.003   4.988  0.5712  0.8487 -0.0504
59325SOL    HW282787   0.352   5.122   5.074  1.6088  0.8740  0.3441
59326SOL     OW82788  10.034   1.805   2.636  0.7194 -0.1878 -0.4829
59326SOL    HW182789   9.951   1.777   2.675  1.2556 -0.3600  0.5642
59326SOL    HW282790  10.093   1.817   2.710  1.9013 -0.9390 -1.2610
59327SOL     OW82791  10.779  10.700  11.993  0.1268 -0.3382 -0.2382
59327SOL    HW182792  10.747  10.746  12.071  0.2854  0.2942 -0.5370
59327SOL    HW282793  10.836  10.631  12.027 -0.6844 -0.7864  0.2490
59328SOL     OW82794   4.837  10.638   0.646 -0.9053 -0.2233 -0.5796
59328SOL    HW182795   4.819  10.724   0.606 -1.5482 -0.6847 -1.3049
59328SOL    HW282796   4.911  10.604   0.595  0.0832  0.3563  0.4228
59329SOL     OW82797   6.294   4.375   2.693 -0.2014 -0.7769 -0.1688
59329SOL    HW182798   6.234   4.448   2.707 -0.1757 -0.8014  0.0671
59329SOL    HW282799   6.331   4.357   2.779  1.4896  0.3912 -0.6028
59330SOL     OW82800   5.007   3.133   2.749  0.6440 -0.7421  0.1115
59330SOL    HW182801   5.086   3.094   2.712  0.5753  0.9521 -2.0111
59330SOL    HW282802   4.946   3.137   2.676 -0.6728 -0.1190  1.2058
59331SOL     OW82803   1.119   4.010   4.778 -0.3263 -0.4459 -0.3735
59331SOL    HW182804   1.128   4.051   4.864 -1.4887 -1.8207  0.4493
59331SOL    HW282805   1.201   3.961   4.767 -0.3415 -0.6013  0.1551
59332SOL     OW82806   9.721   0.834  12.438  0.1611 -0.4107 -0.2859
59332SOL    HW182807   9.641   0.782  12.432  0.9958 -1.9102  1.0255
59332SOL    HW282808   9.736   0.864  12.348 -1.0983 -1.2663 -0.8152
59333SOL     OW82809  11.962   1.688   8.225 -0.2023  0.3806  0.2672
59333SOL    HW182810  12.050   1.700   8.263  0.3899  0.8343 -1.1975
59333SOL    HW282811  11.908   1.754   8.269 -0.2490 -0.9847  2.4024
59334SOL     OW82812   3.729   2.954   9.387  0.1010  0.0724  0.2211
59334SOL    HW182813   3.705   2.863   9.368 -0.0645  0.4907 -1.7776
59334SOL    HW282814   3.820   2.949   9.417 -0.1097 -0.8008  0.7539
59335SOL     OW82815  11.361   8.142   3.295 -0.2389  0.2951  0.3498
59335SOL    HW182816  11.413   8.206   3.342 -0.6667  0.6232  0.3797
59335SOL    HW282817  11.425   8.086   3.252  0.2759 -1.4777  3.1486
59336SOL     OW82818   7.600   6.821   8.968  0.1420 -0.0064 -0.3565
59336SOL    HW182819   7.635   6.753   9.025 -0.6121 -0.5495 -0.5307
59336SOL    HW282820   7.521   6.852   9.012 -0.5674 -0.5794 -1.1897
59337SOL     OW82821   6.254   0.146  11.517 -0.3411 -0.2802 -0.4754
59337SOL    HW182822   6.256   0.241  11.529 -0.1943 -0.2360 -0.8375
59337SOL    HW282823   6.295   0.110  11.596 -0.0225 -0.0258 -0.5233
59338SOL     OW82824  11.090   3.435   3.173  0.2611  0.4342  0.0887
59338SOL    HW182825  11.145   3.510   3.194  0.9630  0.0809 -0.4509
59338SOL    HW282826  11.092   3.431   3.077  0.0518 -0.1441  0.1090
59339SOL     OW82827  12.500   3.638   9.443 -0.2991  0.3385  0.2451
59339SOL    HW182828  12.547   3.669   9.365  0.7095 -0.2800  0.5808
59339SOL    HW282829  12.488   3.544   9.427 -1.4779  0.4889  0.1554
59340SOL     OW82830  12.135   2.511  10.652  0.0757 -0.4908  0.6741
59340SOL    HW182831  12.050   2.553  10.659  0.5409  0.3435  1.5017
59340SOL    HW282832  12.189   2.552  10.720  1.0443 -1.2337  0.3932
59341SOL     OW82833   4.751   4.830   6.024 -0.2414  0.1946 -0.3574
59341SOL    HW182834   4.704   4.788   5.952  0.5746 -1.1899 -0.1291
59341SOL    HW282835   4.796   4.758   6.068 -0.1569  1.1042  1.1161
59342SOL     OW82836  12.408   0.722  12.566 -0.2906 -0.2693  0.4888
59342SOL    HW182837  12.356   0.803  12.570 -2.5893 -1.6559  0.5805
59342SOL    HW282838  12.344   0.653  12.548  1.4798 -2.1889  1.0921
59343SOL     OW82839   0.260   6.496  12.017 -0.0681 -0.6845 -0.3051
59343SOL    HW182840   0.208   6.430  11.972 -0.0676 -0.7081 -0.2705
59343SOL    HW282841   0.327   6.521  11.954 -0.8489  0.2277 -0.8041
59344SOL     OW82842   9.685  10.319   7.987 -0.0468  0.3832 -0.0734
59344SOL    HW182843   9.602  10.285   7.953  0.3040 -1.4630  0.7675
59344SOL    HW282844   9.660  10.376   8.060 -0.5930 -2.2318  1.9290
59345SOL     OW82845  10.311   3.807   2.461 -0.1152  0.1711 -0.0507
59345SOL    HW182846  10.251   3.733   2.469  0.1633 -0.0297  0.1898
59345SOL    HW282847  10.361   3.806   2.543  2.1636 -1.3580 -1.3624
59346SOL     OW82848  12.455   2.522   2.402 -0.1923 -0.1938  0.3494
59346SOL    HW182849  12.440   2.470   2.323  1.9667  1.2630 -1.1175
59346SOL    HW282850  12.530   2.481   2.445  0.5829  0.7846 -0.0291
59347SOL     OW82851   7.110   0.259  11.475 -0.0113 -0.0263  0.2449
59347SOL    HW182852   7.028   0.283  11.519 -0.7560 -0.0344 -1.0887
59347SOL    HW282853   7.134   0.175  11.515 -0.4550  0.1422  0.8927
59348SOL     OW82854  12.075   4.499   6.477 -0.4622  0.1197  0.1881
59348SOL    HW182855  12.020   4.421   6.478 -1.2104  0.6310  0.1680
59348SOL    HW282856  12.142   4.482   6.544  1.2157 -1.7731 -1.8222
59349SOL     OW82857   3.546   4.761   8.147  0.0454  0.4367 -0.8980
59349SOL    HW182858   3.603   4.733   8.218 -0.2068  0.1379 -0.8124
59349SOL    HW282859   3.572   4.707   8.073 -0.0347  0.3985 -0.8978
59350SOL     OW82860   6.032  12.424   0.312  1.0148  0.6665 -0.5574
59350SOL    HW182861   6.040  12.488   0.242  2.3587 -0.4745 -1.4951
59350SOL    HW282862   6.119  12.385   0.320  0.5535 -0.1534  0.8508
59351SOL     OW82863   1.695   3.433   8.096  0.3673 -0.3912  0.7517
59351SOL    HW182864   1.641   3.363   8.060  1.1175 -1.0120  0.8059
59351SOL    HW282865   1.758   3.388   8.152  1.2298  0.2685  0.3308
59352SOL     OW82866   0.232   6.063  12.310  0.3178 -0.3825 -0.2235
59352SOL    HW182867   0.327   6.070  12.320  0.2399 -0.2316  0.4340
59352SOL    HW282868   0.212   6.120  12.235  0.8987 -1.4897 -1.2506
59353SOL     OW82869   9.810   1.132   5.467 -0.1448 -0.8332 -0.6086
59353SOL    HW182870   9.872   1.086   5.524 -0.9641  0.4197  1.3962
59353SOL    HW282871   9.812   1.223   5.497 -0.8381 -0.1691 -2.4262
59354SOL     OW82872   7.353   1.233  11.884  0.8713 -0.2474  0.7405
59354SOL    HW182873   7.322   1.289  11.955 -1.1823 -2.3093  1.5978
59354SOL    HW282874   7.291   1.247  11.813  1.4956 -0.0028  0.2328
59355SOL     OW82875   7.004   7.398   4.508 -0.2460  0.0772 -0.4377
59355SOL    HW182876   6.963   7.313   4.525  2.5039 -1.7617 -2.2204
59355SOL    HW282877   7.078   7.403   4.569 -0.1470  1.0573 -0.6097
59356SOL     OW82878   1.195   7.185   5.908 -0.3083 -0.0045 -0.3852
59356SOL    HW182879   1.238   7.271   5.911  0.1323 -0.1624 -1.5311
59356SOL    HW282880   1.258   7.129   5.863  0.0474 -1.3287  1.6413
59357SOL     OW82881   9.359   6.665   3.905 -0.0841 -1.0807  0.9446
59357SOL    HW182882   9.301   6.631   3.973 -0.0375 -0.6686  1.1975
59357SOL    HW282883   9.401   6.741   3.946 -0.0080 -0.8678  0.4762
59358SOL     OW82884  10.337   1.659   4.572 -0.1526 -0.0600  0.1911
59358SOL    HW182885  10.290   1.742   4.575 -0.1067 -0.0264  0.0373
59358SOL    HW282886  10.428   1.684   4.556 -0.2306 -0.1642 -0.4406
59359SOL     OW82887   7.592   3.455  10.468  0.2291 -0.2531 -0.3041
59359SOL    HW182888   7.671   3.507  10.479 -0.9002  1.3051  0.9497
59359SOL    HW282889   7.604   3.380  10.525  0.6063  0.2299  0.2615
59360SOL     OW82890   0.152   5.766   4.479  0.3732 -0.0247  0.0938
59360SOL    HW182891   0.166   5.833   4.545  0.9962 -0.3380  0.2891
59360SOL    HW282892   0.060   5.774   4.455  0.7846  1.9637 -1.0729
59361SOL     OW82893   7.974   5.519   3.881 -0.1781 -0.3376 -0.2452
59361SOL    HW182894   7.977   5.433   3.923  1.1345  0.0839  0.5771
59361SOL    HW282895   7.971   5.500   3.787 -0.4483 -1.2721 -0.0589
59362SOL     OW82896   2.952   3.987   1.794  0.2859 -0.4328 -0.0809
59362SOL    HW182897   3.037   4.027   1.780  0.8447 -2.2294 -2.6282
59362SOL    HW282898   2.889   4.055   1.771  1.0674  0.3277 -0.0152
59363SOL     OW82899   6.940   9.002   7.496 -0.3157  0.1797 -0.3098
59363SOL    HW182900   7.010   8.939   7.478 -1.0792 -0.8279  0.1514
59363SOL    HW282901   6.975   9.057   7.566  0.0639 -0.2450 -0.1591
59364SOL     OW82902   1.156   7.007  12.310 -0.0172 -0.2640  0.0631
59364SOL    HW182903   1.092   7.017  12.380  1.0486  2.9196  0.7334
59364SOL    HW282904   1.233   6.969  12.353 -0.7466 -2.3820 -0.3758
59365SOL     OW82905   7.783   4.667   4.979 -0.0292 -0.0332 -1.1450
59365SOL    HW182906   7.845   4.726   5.022  1.0993 -2.1635  0.3693
59365SOL    HW282907   7.712   4.657   5.042 -0.2151 -0.2768 -1.3892
59366SOL     OW82908   9.977   9.389   6.375 -0.4458 -0.3953  0.0746
59366SOL    HW182909  10.064   9.401   6.338 -1.4315 -1.3584 -2.8751
59366SOL    HW282910   9.928   9.466   6.348 -0.3249  0.7134  2.6984
59367SOL     OW82911  12.562   1.152  12.498 -0.9808  0.0758  0.0744
59367SOL    HW182912  12.497   1.219  12.520  0.2019  0.6959  1.9197
59367SOL    HW282913  12.596   1.123  12.582  1.5384  0.1813 -0.8340
59368SOL     OW82914  11.116  12.251   0.490 -0.2693 -0.4728  0.2422
59368SOL    HW182915  11.032  12.206   0.497  0.6446 -2.1230  1.1970
59368SOL    HW282916  11.180  12.181   0.474  0.6726  0.9378 -3.2401
59369SOL     OW82917   9.315   5.430   1.609 -0.0974 -0.2798 -0.0378
59369SOL    HW182918   9.397   5.384   1.626  0.9702  1.9377  1.3296
59369SOL    HW282919   9.253   5.393   1.671  0.7049 -0.0203  0.9537
59370SOL     OW82920   0.808   4.066   1.548 -0.5731  0.2651 -0.1802
59370SOL    HW182921   0.784   4.158   1.560  1.6458  1.3481 -2.7357
59370SOL    HW282922   0.873   4.048   1.616  0.2369  1.1864 -0.6864
59371SOL     OW82923  10.590   1.304   5.792 -0.0012  0.4475  0.4398
59371SOL    HW182924  10.636   1.234   5.745 -0.0721  0.8550 -0.2565
59371SOL    HW282925  10.603   1.381   5.737 -0.3258  0.8765  0.9609
59372SOL     OW82926   8.208   7.018   0.772 -0.2061 -0.1965 -0.0961
59372SOL    HW182927   8.250   7.009   0.687 -0.3224 -1.3559 -0.0512
59372SOL    HW282928   8.227   7.108   0.800 -0.1846  0.1940 -1.3388
59373SOL     OW82929  12.364   4.345  11.967 -0.2816  0.0074 -0.3847
59373SOL    HW182930  12.377   4.436  11.942 -0.4793  0.1349 -0.0362
59373SOL    HW282931  12.381   4.295  11.887  2.1310  0.1606 -0.0541
59374SOL     OW82932   6.829  11.053   7.609  0.0261  0.3937 -0.2490
59374SOL    HW182933   6.783  11.058   7.693 -1.9692  1.6374 -1.3499
59374SOL    HW282934   6.884  11.131   7.607 -1.0447  1.1601 -0.6820
59375SOL     OW82935   0.437   5.585   7.397  0.1891 -0.0667 -0.1040
59375SOL    HW182936   0.377   5.525   7.439 -0.5793  0.0559 -0.9805
59375SOL    HW282937   0.458   5.650   7.464 -1.1491  0.2361  0.0507
59376SOL     OW82938   4.198  10.803   6.840 -0.4639 -0.2235  0.2232
59376SOL    HW182939   4.178  10.733   6.902 -1.8110 -1.9642 -1.9851
59376SOL    HW282940   4.231  10.875   6.894 -0.0761 -2.1440  2.7356
59377SOL     OW82941   6.380  11.672   4.424  0.5387  0.1625 -0.3207
59377SOL    HW182942   6.472  11.697   4.416  0.7623 -0.3133  0.6050
59377SOL    HW282943   6.347  11.671   4.334  1.1776  1.2832 -0.5847
59378SOL     OW82944   4.343   3.363   5.720 -0.2587  0.3886  0.4222
59378SOL    HW182945   4.258   3.360   5.676 -0.3243  0.4441  0.5444
59378SOL    HW282946   4.340   3.442   5.773  0.0558  0.6494  0.0531
59379SOL     OW82947   3.167   3.216   7.874 -0.9506 -0.3367  0.0123
59379SOL    HW182948   3.229   3.273   7.828  0.3872 -0.0342  2.0836
59379SOL    HW282949   3.093   3.273   7.895 -1.2329 -0.2912 -1.0493
59380SOL     OW82950   5.247   0.089   7.880 -0.4452 -0.1976  0.7208
59380SOL    HW182951   5.317   0.153   7.869 -0.3655 -0.5930 -1.7438
59380SOL    HW282952   5.220   0.097   7.971  2.6432  0.1228  1.7018
59381SOL     OW82953   8.119   3.646   7.630 -0.4184  0.3713 -0.4343
59381SOL    HW182954   8.050   3.705   7.603 -0.4086 -0.2246 -1.8201
59381SOL    HW282955   8.197   3.677   7.584 -0.1817 -0.0938 -0.3554
59382SOL     OW82956   0.711   1.309   3.382 -0.2931  0.6274  0.9015
59382SOL    HW182957   0.697   1.390   3.332  1.8946 -0.0928 -1.0664
59382SOL    HW282958   0.750   1.338   3.464 -0.7965  1.6644  0.7834
59383SOL     OW82959   7.659   9.103   1.778  0.2031  0.6928 -0.1262
59383SOL    HW182960   7.637   9.027   1.725 -0.0899 -0.6041  1.7432
59383SOL    HW282961   7.631   9.080   1.867 -1.2854  3.5763  0.2989
59384SOL     OW82962   6.051   0.430  10.539  0.2048  1.2256  0.1174
59384SOL    HW182963   6.081   0.393  10.622 -1.5936 -1.0336 -0.1438
59384SOL    HW282964   5.958   0.447  10.554 -0.6520 -1.0750 -1.9489
59385SOL     OW82965   9.123   4.615   8.427 -0.0713  0.4458 -0.1673
59385SOL    HW182966   9.133   4.660   8.343 -2.3806 -0.8887 -1.2417
59385SOL    HW282967   9.036   4.575   8.423  0.5667 -1.3646  2.0393
59386SOL     OW82968  12.589   9.760   1.745  0.2046 -0.0791 -0.3780
59386SOL    HW182969  12.617   9.670   1.761  0.4341  0.1443  0.5624
59386SOL    HW282970  12.582   9.799   1.833 -3.9729 -0.3539 -0.3780
59387SOL     OW82971   7.277   8.241   4.934  0.4317 -0.3164  0.0088
59387SOL    HW182972   7.273   8.187   4.855  1.5942  0.6522 -0.7352
59387SOL    HW282973   7.370   8.257   4.948  0.3003 -0.9800  1.9555
59388SOL     OW82974   0.609  12.117   9.066  0.2671 -0.2180  0.1814
59388SOL    HW182975   0.518  12.092   9.049  0.6528 -3.5264  1.9666
59388SOL    HW282976   0.656  12.094   8.986 -0.1711 -0.6605  0.0468
59389SOL     OW82977   3.773   0.122  12.611  0.1426 -0.5764 -0.4129
59389SOL    HW182978   3.801   0.176  12.685 -0.0560 -1.7499  0.5448
59389SOL    HW282979   3.717   0.055  12.650  1.1122 -2.0313 -1.4351
59390SOL     OW82980  11.732   6.593  11.393  0.3586  0.4979 -0.0369
59390SOL    HW182981  11.713   6.686  11.406  1.0111  0.5282  0.7909
59390SOL    HW282982  11.763   6.563  11.478 -2.0491 -1.0498  0.3860
59391SOL     OW82983   4.327  10.768  10.778 -0.4886 -0.1165  0.0316
59391SOL    HW182984   4.345  10.678  10.751  0.2378 -0.4118  1.3735
59391SOL    HW282985   4.287  10.759  10.865 -1.9281  0.8065 -0.5157
59392SOL     OW82986   7.929  11.147   5.153  0.0222 -0.0392 -0.1042
59392SOL    HW182987   8.023  11.136   5.146  0.0472  0.4695 -0.6855
59392SOL    HW282988   7.893  11.091   5.083 -0.0795  0.1342 -0.1913
59393SOL     OW82989   1.655  12.326   2.034 -0.1288 -0.3891  0.3965
59393SOL    HW182990   1.627  12.378   2.109 -0.0311  0.2325  0.0061
59393SOL    HW282991   1.573  12.307   1.987 -0.0053  0.8455 -0.3693
59394SOL     OW82992   4.972   1.189   7.705 -0.2555 -0.0852 -0.3709
59394SOL    HW182993   5.056   1.143   7.700  0.9619  1.5135  2.7127
59394SOL    HW282994   4.924   1.143   7.774 -0.8207  0.5627 -0.3222
59395SOL     OW82995   5.595  12.329   8.070  0.2322  0.4933  0.0079
59395SOL    HW182996   5.645  12.343   8.150 -1.0102  2.3449  0.5194
59395SOL    HW282997   5.636  12.386   8.005  0.2971  0.1486 -0.2574
59396SOL     OW82998   9.495   8.438   5.910 -0.6468 -0.4234 -0.2021
59396SOL    HW182999   9.565   8.501   5.894 -0.4704 -0.6901 -0.4891
59396SOL    HW283000   9.540   8.360   5.942 -0.9587 -0.0000  1.3914
59397SOL     OW83001   7.563   4.214   4.859  0.1677  0.2901 -0.3271
59397SOL    HW183002   7.508   4.168   4.795  0.0075  0.8101 -0.5651
59397SOL    HW283003   7.514   4.208   4.941 -0.1181  0.5154 -0.4787
59398SOL     OW83004  11.524   6.915   9.298  0.1741  0.0940  0.5476
59398SOL    HW183005  11.487   6.984   9.353  0.2550 -0.6291  1.5223
59398SOL    HW283006  11.448   6.865   9.267  0.0735  0.8957 -0.5746
59399SOL     OW83007   0.860  11.067   0.093 -0.6620 -0.3403 -0.1830
59399SOL    HW183008   0.896  11.148   0.128 -0.0968 -0.5120 -0.3601
59399SOL    HW283009   0.934  11.007   0.089 -1.0256 -0.7952 -0.2766
59400SOL     OW83010  11.121   5.556   4.150 -0.1146 -0.1014  0.0161
59400SOL    HW183011  11.070   5.476   4.162  2.1692 -1.3475  2.6644
59400SOL    HW283012  11.171   5.540   4.070 -0.8933 -0.5902 -0.3867
59401SOL     OW83013   5.319   3.122   6.480 -0.0422 -0.3023 -0.6225
59401SOL    HW183014   5.328   3.121   6.385  0.3773  1.3286 -0.6413
59401SOL    HW283015   5.229   3.095   6.496  0.1552 -1.4998 -1.4172
59402SOL     OW83016   7.087   9.424   1.525 -0.0114 -0.1024 -0.2970
59402SOL    HW183017   7.060   9.503   1.478  0.0884 -0.2861 -0.6719
59402SOL    HW283018   7.097   9.451   1.616  1.0930  0.5841 -0.6054
59403SOL     OW83019   9.034   1.804  11.644 -0.3079  0.3881  0.0415
59403SOL    HW183020   9.075   1.830  11.562 -1.6089 -1.5886 -1.3287
59403SOL    HW283021   8.945   1.839  11.639 -1.2405 -1.8985 -0.6673
59404SOL     OW83022   1.252   1.570  10.153  0.1431  0.2525 -1.0872
59404SOL    HW183023   1.279   1.643  10.097  0.3026  0.5208 -0.6658
59404SOL    HW283024   1.317   1.502  10.136 -0.1405  0.1223 -1.6561
59405SOL     OW83025   6.440  12.380   5.947 -0.1626 -0.9172 -0.1899
59405SOL    HW183026   6.487  12.328   5.882 -0.4382 -1.9150  0.3984
59405SOL    HW283027   6.406  12.316   6.010 -0.6481 -0.0457  0.4578
59406SOL     OW83028   8.495   6.039   7.289 -0.1824 -0.1271 -0.3864
59406SOL    HW183029   8.505   6.027   7.383 -1.5758 -0.1639 -0.2187
59406SOL    HW283030   8.583   6.030   7.253  0.2567 -0.7921  0.8352
59407SOL     OW83031   1.465   2.657   4.071 -0.2619  0.1376 -0.1315
59407SOL    HW183032   1.393   2.717   4.049 -0.3389  1.5149  3.2397
59407SOL    HW283033   1.422   2.580   4.108 -0.1515  1.0777  2.1515
59408SOL     OW83034   9.153   4.302  10.027 -0.3901  0.3292  0.0968
59408SOL    HW183035   9.207   4.378  10.046  0.6772  0.0906 -1.7781
59408SOL    HW283036   9.099   4.329   9.952 -1.1342 -0.2569  0.4015
59409SOL     OW83037   9.420   0.817   8.874  0.2919 -0.1741  0.5058
59409SOL    HW183038   9.362   0.742   8.866 -1.7007  1.4335 -1.1970
59409SOL    HW283039   9.438   0.844   8.784 -0.0012  2.0592  1.0510
59410SOL     OW83040   1.941   3.336  11.457 -0.5540 -0.2105 -0.6228
59410SOL    HW183041   1.932   3.247  11.491 -0.4186  0.3990  1.0883
59410SOL    HW283042   2.032   3.360  11.476 -0.7664  0.5135 -0.5032
59411SOL     OW83043  11.039   9.911   9.909 -0.2176 -0.0946 -0.3722
59411SOL    HW183044  11.009   9.894   9.820 -0.7742  1.7790 -0.5798
59411SOL    HW283045  11.058  10.005   9.911  2.0330 -0.5094  0.8378
59412SOL     OW83046   9.660   5.719   7.345  0.0816 -0.0887  0.0189
59412SOL    HW183047   9.748   5.731   7.310  0.3839  0.7446  1.0373
59412SOL    HW283048   9.633   5.632   7.313  2.2685 -1.5054  1.7450
59413SOL     OW83049  12.041   4.904  10.612 -0.0612  0.0432 -0.0099
59413SOL    HW183050  11.945   4.906  10.605  0.0363  0.0047 -1.5587
59413SOL    HW283051  12.072   4.947  10.532  1.2359 -1.6506 -0.4713
59414SOL     OW83052   9.325   0.058   2.237 -0.2768 -0.6201  0.3914
59414SOL    HW183053   9.236   0.045   2.270 -0.0249  0.7631  1.7395
59414SOL    HW283054   9.322   0.028   2.146 -1.8467 -1.5516  0.7125
59415SOL     OW83055   6.610  11.617   9.070 -0.0631  0.4153  0.3289
59415SOL    HW183056   6.600  11.523   9.051 -2.2036  0.0618  2.5945
59415SOL    HW283057   6.530  11.656   9.035 -0.5399  0.8913  1.8805
59416SOL     OW83058   1.526   7.539   1.794 -0.0177 -0.2505  0.4923
59416SOL    HW183059   1.466   7.549   1.720 -0.8122  1.5486  1.3340
59416SOL    HW283060   1.612   7.531   1.753 -0.5678 -0.5590 -0.6528
59417SOL     OW83061   5.165   4.018   0.698  0.1057 -1.1365  0.4696
59417SOL    HW183062   5.123   4.085   0.751  0.7173 -1.3650  1.2748
59417SOL    HW283063   5.241   3.991   0.750 -0.1761 -2.5104  0.2053
59418SOL     OW83064   7.793  10.697   0.509  0.3292  0.5132 -0.1351
59418SOL    HW183065   7.770  10.715   0.600 -0.3452 -1.4696  0.1272
59418SOL    HW283066   7.878  10.652   0.515  1.1680  1.9493 -0.6526
59419SOL     OW83067   8.928   4.647   4.930  0.2887  0.0931 -1.1304
59419SOL    HW183068   8.932   4.738   4.902 -0.2872  0.4201 -0.2163
59419SOL    HW283069   9.006   4.635   4.984  0.3236  0.0720 -1.1858
59420SOL     OW83070   8.102   9.125   1.312  0.6968  0.2125  0.6799
59420SOL    HW183071   8.099   9.038   1.272 -0.6577  0.5553 -0.0146
59420SOL    HW283072   8.160   9.114   1.387 -0.3265 -1.5688  1.2713
59421SOL     OW83073  10.207   6.448   0.452 -0.4687  0.0612  0.4665
59421SOL    HW183074  10.121   6.441   0.409 -1.4916  2.9831  1.7513
59421SOL    HW283075  10.187   6.457   0.545  1.2931  0.0482  0.8827
59422SOL     OW83076   4.302  10.512   3.018  0.1528 -0.0636  0.7039
59422SOL    HW183077   4.342  10.451   3.080 -0.1780 -1.3604 -0.3346
59422SOL    HW283078   4.281  10.459   2.941  0.1778  1.4334 -0.3749
59423SOL     OW83079   4.511  12.034   2.274 -0.5910 -0.0799 -0.4328
59423SOL    HW183080   4.441  12.005   2.332 -0.9283 -0.3374 -0.9661
59423SOL    HW283081   4.586  11.979   2.299 -1.0655 -1.0153 -1.0413
59424SOL     OW83082   7.037   2.017   3.414  0.0939  0.4021  0.0822
59424SOL    HW183083   6.960   1.965   3.392 -0.6164  1.4287  0.1091
59424SOL    HW283084   7.106   1.983   3.357 -0.5305 -0.1082 -0.3817
59425SOL     OW83085   5.566  10.561   9.190 -0.4123 -0.5217  0.0000
59425SOL    HW183086   5.474  10.542   9.172 -0.3811 -0.0100 -0.7425
59425SOL    HW283087   5.585  10.516   9.272 -2.5809  2.9739  2.7324
59426SOL     OW83088   5.536   7.420   7.636 -0.2002  0.8434  0.4749
59426SOL    HW183089   5.547   7.338   7.685 -0.8039  0.3585 -0.1790
59426SOL    HW283090   5.441   7.430   7.627 -0.0963  0.8482 -0.7222
59427SOL     OW83091   6.824  12.533   9.129  0.1015  0.2993  0.4723
59427SOL    HW183092   6.768  12.552   9.054 -1.8715  0.3809  1.9049
59427SOL    HW283093   6.903  12.495   9.090 -0.6370  0.8131 -1.6633
59428SOL     OW83094   2.936   0.263   4.606 -0.0044 -0.1146  0.0250
59428SOL    HW183095   2.853   0.220   4.629 -0.4801  0.7716  0.0122
59428SOL    HW283096   2.910   0.347   4.569  0.9171  0.3448  0.3811
59429SOL     OW83097  10.897  11.550  11.395 -0.4552  0.6738  0.0537
59429SOL    HW183098  10.950  11.532  11.317  0.4413  1.8454  0.3681
59429SOL    HW283099  10.826  11.486  11.391  1.5294 -1.6645  0.1631
59430SOL     OW83100   0.831   2.399   6.208 -0.1661 -0.4476 -0.2682
59430SOL    HW183101   0.805   2.490   6.219 -1.0217 -0.7032 -0.0927
59430SOL    HW283102   0.858   2.393   6.116 -2.1448 -0.4841 -0.8977
59431SOL     OW83103   0.804   7.318   4.520 -0.3327 -0.0750 -0.1862
59431SOL    HW183104   0.859   7.381   4.566 -1.4064  1.2306 -0.6238
59431SOL    HW283105   0.773   7.259   4.589  1.8065 -1.0396  0.0229
59432SOL     OW83106   3.833   6.903   7.521  0.0019 -0.1190 -0.6612
59432SOL    HW183107   3.801   6.878   7.434  0.8181 -0.4786 -0.8629
59432SOL    HW283108   3.868   6.991   7.509 -2.0744  0.8385 -0.1430
59433SOL     OW83109   3.075  10.376   3.552  0.1807 -0.1217 -0.0262
59433SOL    HW183110   3.120  10.452   3.515  2.3697 -0.9402  0.7853
59433SOL    HW283111   2.992  10.371   3.505  0.5482  2.0001 -0.9843
59434SOL     OW83112  10.088   8.360   7.251 -0.2816  0.2987 -0.3754
59434SOL    HW183113  10.127   8.280   7.214  0.9561  1.2421 -1.2011
59434SOL    HW283114  10.025   8.388   7.184 -1.3027 -0.3825  0.2683
59435SOL     OW83115   1.141   9.538   7.694  0.2367  0.2510 -0.1440
59435SOL    HW183116   1.055   9.502   7.719 -0.3186  1.5116 -0.1378
59435SOL    HW283117   1.126   9.579   7.609  0.2931  2.1824  0.7085
59436SOL     OW83118   9.792   9.530   1.840 -0.0883 -0.0845 -0.4361
59436SOL    HW183119   9.833   9.582   1.771  1.1286 -0.5358 -0.0709
59436SOL    HW283120   9.769   9.448   1.797 -1.2478  0.4134 -0.8044
59437SOL     OW83121   8.433   6.113  11.449 -0.0148  0.0251  0.0452
59437SOL    HW183122   8.428   6.018  11.453  0.1055 -0.1345 -2.1975
59437SOL    HW283123   8.342   6.142  11.455 -0.2853 -0.4072 -1.5399
59438SOL     OW83124   2.445   9.528  10.286 -0.4917 -0.1496 -0.0785
59438SOL    HW183125   2.414   9.597  10.344 -1.4816 -0.0281 -0.7167
59438SOL    HW283126   2.483   9.462  10.344  0.9397  1.1513  0.5015
59439SOL     OW83127   8.768   4.908   4.007 -0.0256  1.1599  0.1464
59439SOL    HW183128   8.800   4.976   4.067  0.8673 -1.2580  2.6135
59439SOL    HW283129   8.832   4.906   3.936 -0.8721  3.8062 -0.8068
59440SOL     OW83130   4.089   4.708   1.940  0.3325  0.0904  0.2950
59440SOL    HW183131   4.181   4.680   1.934  0.6113  1.2909 -3.0281
59440SOL    HW283132   4.090   4.780   2.003  1.7573  0.3664 -0.0083
59441SOL     OW83133   4.445   4.534   2.495 -0.3342  0.2036  0.6444
59441SOL    HW183134   4.493   4.594   2.439  1.6886  0.1293  2.2061
59441SOL    HW283135   4.375   4.587   2.533  1.8616  1.9010  2.5930
59442SOL     OW83136  11.857   7.340   0.951  0.1209 -0.1165  0.0004
59442SOL    HW183137  11.837   7.347   1.044 -0.5745  1.9659 -0.2487
59442SOL    HW283138  11.933   7.398   0.939  0.8677 -1.1870 -0.5672
59443SOL     OW83139   5.981   2.268   3.739 -0.2144  0.5194 -0.5732
59443SOL    HW183140   5.962   2.349   3.691 -1.8683 -0.7658 -2.2835
59443SOL    HW283141   5.989   2.201   3.670 -1.5523 -1.2353  0.8627
59444SOL     OW83142  10.902  12.320   9.932 -0.1742 -0.4063 -0.2629
59444SOL    HW183143  10.915  12.404   9.889 -0.9796 -0.2586 -0.2496
59444SOL    HW283144  10.811  12.323   9.962  1.0128  0.5332  3.7891
59445SOL     OW83145  10.892   5.372   1.689  0.5341  0.7025  0.1508
59445SOL    HW183146  10.979   5.387   1.653  1.3450  0.9464  2.0464
59445SOL    HW283147  10.865   5.458   1.721  0.1736  0.3835  0.7246
59446SOL     OW83148  11.863   1.460   7.246  0.3043 -0.3053  0.1547
59446SOL    HW183149  11.800   1.423   7.308  0.7595 -0.1631  0.7069
59446SOL    HW283150  11.933   1.395   7.241  0.7813  0.1705  0.6057
59447SOL     OW83151   5.931   1.058   3.462  0.0071  0.1637  0.0248
59447SOL    HW183152   5.850   1.072   3.414 -0.8022  0.9249  1.5563
59447SOL    HW283153   5.998   1.049   3.394 -1.3114 -0.3229 -1.2623
59448SOL     OW83154   5.665   4.584   2.546  0.2273 -0.7338 -0.0373
59448SOL    HW183155   5.713   4.522   2.492 -1.4354  0.3356 -2.9705
59448SOL    HW283156   5.706   4.669   2.528 -0.4955 -0.3146  0.2412
59449SOL     OW83157   1.614   0.282  10.803  0.7952  0.3623 -0.2538
59449SOL    HW183158   1.614   0.192  10.835  2.1216  0.5555  0.3300
59449SOL    HW283159   1.541   0.324  10.849  0.4719 -0.2775 -0.1750
59450SOL     OW83160  12.401  10.055  10.382  0.4712  0.9793 -0.5811
59450SOL    HW183161  12.320  10.092  10.417  0.2864  0.6117 -0.6033
59450SOL    HW283162  12.384  10.048  10.288  0.4262  0.6616 -0.5514
59451SOL     OW83163   5.462  11.891   3.684  0.3353  0.2249  0.2541
59451SOL    HW183164   5.447  11.966   3.626 -1.5097 -0.8159 -0.7054
59451SOL    HW283165   5.433  11.922   3.770 -0.7219  0.5506 -0.1924
59452SOL     OW83166   4.271   7.198   0.289 -0.3298 -0.1216 -0.1996
59452SOL    HW183167   4.195   7.184   0.232 -1.0627 -1.3735  1.0263
59452SOL    HW283168   4.338   7.139   0.254  0.2555  1.2113 -1.4771
59453SOL     OW83169  10.648  11.881   8.581 -0.5738 -0.0981 -0.4792
59453SOL    HW183170  10.643  11.956   8.522  0.4702 -0.9988 -1.7833
59453SOL    HW283171  10.729  11.895   8.631 -1.7487  0.9555  1.2200
59454SOL     OW83172   0.163  12.267   1.098 -0.4263  0.3459 -0.2801
59454SOL    HW183173   0.142  12.261   1.005 -0.4134  0.3663 -0.2842
59454SOL    HW283174   0.094  12.216   1.141 -2.5650  3.2154  0.0076
59455SOL     OW83175  11.561   7.830  11.895 -0.0057  0.1409 -0.1267
59455SOL    HW183176  11.489   7.889  11.917  0.4571  0.0816  1.7165
59455SOL    HW283177  11.609   7.820  11.977 -0.0354 -2.7687 -0.3881
59456SOL     OW83178   0.552   1.681   0.138  0.0785  0.2091 -0.0473
59456SOL    HW183179   0.574   1.644   0.052 -0.3293 -0.4256  0.1215
59456SOL    HW283180   0.614   1.753   0.148  0.0020  0.4207 -0.9627
59457SOL     OW83181   0.384   4.725   4.473 -0.0715  0.0693  0.4454
59457SOL    HW183182   0.322   4.770   4.530  0.3710 -0.8161  1.6584
59457SOL    HW283183   0.470   4.752   4.505  0.1982  0.8785 -0.8923
59458SOL     OW83184   1.639   4.239   1.290  0.1973 -0.2861  0.3886
59458SOL    HW183185   1.704   4.186   1.335  0.4945  0.1575  0.4861
59458SOL    HW283186   1.675   4.328   1.292 -0.5821  0.0332  0.7887
59459SOL     OW83187   3.183   3.424   0.007 -0.1036 -0.7750  0.5720
59459SOL    HW183188   3.139   3.407  -0.076  0.1646  1.9615 -0.2317
59459SOL    HW283189   3.122   3.482   0.054  1.6584  1.4214  0.2957
59460SOL     OW83190   1.451   4.858   9.147  0.2525 -0.0481 -0.1165
59460SOL    HW183191   1.389   4.833   9.078 -0.3755 -0.0732  0.4405
59460SOL    HW283192   1.396   4.900   9.213  0.6936 -0.9763  0.8535
59461SOL     OW83193   2.310   2.571   6.940  0.0277 -0.3027 -0.1309
59461SOL    HW183194   2.334   2.614   7.023 -0.5392 -2.5909  1.3010
59461SOL    HW283195   2.375   2.502   6.929 -0.1744 -0.3140 -1.3902
59462SOL     OW83196  10.640  11.617   2.942 -0.0976  0.0230 -0.3407
59462SOL    HW183197  10.643  11.700   2.895  0.8497  0.5116  0.5538
59462SOL    HW283198  10.665  11.551   2.876  1.5384  0.7258 -0.4703
59463SOL     OW83199   6.985   0.392   7.408 -0.2306  0.2252  0.0065
59463SOL    HW183200   6.946   0.328   7.467 -1.6310  2.2502  1.3870
59463SOL    HW283201   6.991   0.472   7.459  3.7917  0.6795 -0.8433
59464SOL     OW83202   2.484   0.238   6.072  0.0604  0.1940  0.1531
59464SOL    HW183203   2.524   0.307   6.124  0.1526 -0.3926  0.8826
59464SOL    HW283204   2.559   0.189   6.037 -0.0017 -0.2631  0.6434
59465SOL     OW83205   2.750   3.563   7.979  0.6421  0.1529 -0.3020
59465SOL    HW183206   2.801   3.636   8.012  1.5114 -0.6986  0.2967
59465SOL    HW283207   2.815   3.496   7.958 -0.1418 -0.4826 -0.7453
59466SOL     OW83208   6.831  11.921   1.933  0.9571 -0.0721  0.2016
59466SOL    HW183209   6.837  11.964   2.018 -0.2318  0.7476 -0.1056
59466SOL    HW283210   6.836  11.992   1.870  0.4564 -0.5352 -0.3735
59467SOL     OW83211  11.977   8.775   9.202  0.0527  0.6706  0.0448
59467SOL    HW183212  11.970   8.822   9.119  0.2967  0.1381 -0.2814
59467SOL    HW283213  11.920   8.824   9.261  0.5633  1.5711 -0.1889
59468SOL     OW83214   8.067   6.618   0.885 -0.2376 -0.0014 -0.1807
59468SOL    HW183215   8.057   6.619   0.980 -1.5086 -0.5862 -0.2794
59468SOL    HW283216   8.047   6.527   0.860 -1.1849  0.4342 -1.0955
59469SOL     OW83217   9.205   4.689   3.188  0.3303  0.4196 -0.0679
59469SOL    HW183218   9.153   4.769   3.184  1.2828  1.1797  1.7508
59469SOL    HW283219   9.152   4.624   3.143 -2.4084  1.0526  1.9661
59470SOL     OW83220  12.561   3.829  11.275 -0.2269  0.6150 -0.3872
59470SOL    HW183221  12.508   3.818  11.196  0.0527  0.0965 -0.5064
59470SOL    HW283222  12.498   3.854  11.343 -0.7258 -0.6411 -0.3669
59471SOL     OW83223   2.914  10.951  12.433  0.0297 -0.1570  0.6256
59471SOL    HW183224   2.898  10.934  12.340  1.1550  0.0638  0.3699
59471SOL    HW283225   3.005  10.983  12.436 -0.3427  0.8663  1.6772
59472SOL     OW83226   7.886   5.683   8.950 -0.3119  0.4264 -0.7568
59472SOL    HW183227   7.908   5.595   8.920 -1.3129  0.2178 -0.9163
59472SOL    HW283228   7.796   5.696   8.922 -0.2293  1.4468 -0.5902
59473SOL     OW83229   6.223  11.445  12.613 -0.5751 -0.1617 -0.0979
59473SOL    HW183230   6.304  11.398  12.595  0.1511  0.7775  0.5597
59473SOL    HW283231   6.154  11.388  12.582  0.3922 -0.4084 -1.9339
59474SOL     OW83232   7.931   2.923  10.247  0.2717 -1.1672 -0.0274
59474SOL    HW183233   7.870   2.996  10.254 -1.6168 -2.5787 -0.8047
59474SOL    HW283234   7.986   2.929  10.326 -0.6197  0.3678  0.5129
59475SOL     OW83235   0.165   5.276   8.150 -0.1871  0.0206 -0.1355
59475SOL    HW183236   0.174   5.371   8.141 -0.3413  0.0270 -0.2317
59475SOL    HW283237   0.130   5.263   8.238  1.6171 -0.0591  0.5965
59476SOL     OW83238   3.599   5.981   4.041  0.1920  0.0685  0.9554
59476SOL    HW183239   3.678   6.016   4.000 -0.1273 -1.3112 -0.9583
59476SOL    HW283240   3.630   5.907   4.094  0.1217 -1.2072 -0.7073
59477SOL     OW83241   0.819  11.562  12.325  0.0877  0.2744  0.2501
59477SOL    HW183242   0.905  11.587  12.292 -0.0785  0.1044 -0.3415
59477SOL    HW283243   0.825  11.570  12.420  1.4108 -1.7779  0.3873
59478SOL     OW83244  11.483   2.345   0.197  0.2540 -0.0362 -0.1714
59478SOL    HW183245  11.565   2.368   0.241  0.9073 -0.1927 -1.2910
59478SOL    HW283246  11.431   2.301   0.265  0.6942  0.9266  0.8118
59479SOL     OW83247  12.648   9.165   0.176 -0.1900  0.0856  0.6596
59479SOL    HW183248  12.568   9.190   0.129  0.3332  0.4634 -0.0507
59479SOL    HW283249  12.626   9.177   0.268 -0.6284  1.1938  0.4253
59480SOL     OW83250   9.234   3.482   2.439  0.1236  0.7892 -0.1570
59480SOL    HW183251   9.194   3.473   2.525 -1.6213 -0.4338 -1.0154
59480SOL    HW283252   9.199   3.564   2.404 -0.4676  0.4867 -0.2989
59481SOL     OW83253   6.750   3.793   9.891 -0.2019 -0.5679  0.0288
59481SOL    HW183254   6.758   3.754   9.804  1.6851 -1.2695  0.4544
59481SOL    HW283255   6.672   3.847   9.887  0.7802  0.8307 -2.6724
59482SOL     OW83256   0.609   7.571   5.470 -0.2913 -0.0749 -0.2521
59482SOL    HW183257   0.632   7.518   5.394 -0.8781  0.0429 -0.5243
59482SOL    HW283258   0.556   7.513   5.525 -0.6421  0.1100 -0.3847
59483SOL     OW83259  11.100   3.189   5.861 -0.2650  0.1486  0.2896
59483SOL    HW183260  11.063   3.123   5.802 -1.0682  1.4551 -0.7417
59483SOL    HW283261  11.192   3.165   5.868 -0.3855 -0.6808 -0.6298
59484SOL     OW83262   6.291   9.999  11.431  0.8023  0.4147 -0.4480
59484SOL    HW183263   6.239  10.077  11.446  0.5218 -0.1422  1.8753
59484SOL    HW283264   6.246   9.953  11.360 -1.1132  0.6372  0.5597
59485SOL     OW83265   8.641   2.961   9.835 -0.2812  0.0901 -0.3208
59485SOL    HW183266   8.651   2.905   9.912  0.5750 -0.1602 -0.6034
59485SOL    HW283267   8.645   3.051   9.870  1.0322 -0.0072 -0.1600
59486SOL     OW83268  10.056   8.493   3.886  0.2144  0.3902 -0.5025
59486SOL    HW183269  10.006   8.518   3.808 -0.1814 -0.3165 -0.4918
59486SOL    HW283270  10.108   8.570   3.908  0.6790  0.4375 -1.7379
59487SOL     OW83271  10.848   7.420   7.130 -0.0280 -0.2623  0.2897
59487SOL    HW183272  10.914   7.361   7.167 -0.5063  0.3116  2.1811
59487SOL    HW283273  10.842   7.395   7.038  1.4670 -1.5763  0.5112
59488SOL     OW83274   3.730  11.723   9.490  0.3373 -0.6700  0.1429
59488SOL    HW183275   3.798  11.665   9.525  0.2680 -0.7083  0.2158
59488SOL    HW283276   3.722  11.697   9.398  1.6235  0.4844 -0.3238
59489SOL     OW83277  10.357  11.100  11.314 -0.5005 -0.0030 -0.1284
59489SOL    HW183278  10.314  11.168  11.262 -1.1244  0.7431  1.3032
59489SOL    HW283279  10.391  11.147  11.391  0.0661 -1.1290  0.3343
59490SOL     OW83280   4.115   5.721   8.152  0.6292  0.4798  0.3817
59490SOL    HW183281   4.185   5.687   8.208  0.6141  1.0138  0.7415
59490SOL    HW283282   4.049   5.652   8.149  2.2419 -1.0916 -2.0141
59491SOL     OW83283  12.371   4.377   5.104 -0.2023  0.6035  0.1825
59491SOL    HW183284  12.343   4.462   5.070  1.1874  1.6643  1.5434
59491SOL    HW283285  12.448   4.397   5.157  1.1510 -1.7122 -0.7415
59492SOL     OW83286   8.335   3.007   6.268 -0.1821 -0.1798 -0.0395
59492SOL    HW183287   8.379   3.067   6.207 -1.5001 -1.0230 -1.9439
59492SOL    HW283288   8.278   3.063   6.320 -0.7145  0.3708 -1.1650
59493SOL     OW83289   7.486  11.565  10.893 -0.3410 -0.2833 -0.1100
59493SOL    HW183290   7.429  11.625  10.844  0.7679 -0.2378 -1.3947
59493SOL    HW283291   7.549  11.622  10.937  1.9200 -0.4547 -2.8492
59494SOL     OW83292   8.833  11.478  11.661 -0.1850 -0.1794  0.0785
59494SOL    HW183293   8.779  11.537  11.712 -1.2592 -1.0320 -0.0245
59494SOL    HW283294   8.838  11.519  11.574 -0.5012  0.0144  0.1491
59495SOL     OW83295   9.693   9.984  12.403  0.1050 -0.4704 -0.2941
59495SOL    HW183296   9.598   9.997  12.397 -0.2537 -2.3087  0.6331
59495SOL    HW283297   9.730  10.052  12.346 -1.8926 -1.4838 -3.0287
59496SOL     OW83298   2.028  11.689   6.310 -0.1017  0.4407  0.1358
59496SOL    HW183299   2.079  11.675   6.231  2.4789 -1.3958  1.9646
59496SOL    HW283300   2.086  11.736   6.369 -0.9734 -0.4977  1.8354
59497SOL     OW83301   1.257   1.101  12.400  0.3582 -0.4228  0.0662
59497SOL    HW183302   1.278   1.154  12.478  2.3104  1.1287 -1.4265
59497SOL    HW283303   1.169   1.130  12.376  0.2423  0.0215  0.9609
59498SOL     OW83304   8.018   7.890   8.182  0.5886 -0.1560 -0.2985
59498SOL    HW183305   8.091   7.830   8.164  2.4280  2.3985 -2.1528
59498SOL    HW283306   7.975   7.902   8.098 -1.3737 -0.7826  0.5684
59499SOL     OW83307   5.999  12.574   2.502  0.2462  0.3132 -0.4582
59499SOL    HW183308   6.001  12.515   2.427  0.2194  1.0101 -1.0271
59499SOL    HW283309   6.059  12.645   2.478  0.1830  0.5778  0.1472
59500SOL     OW83310   7.184   6.762   3.776  0.3715 -0.1004 -0.0848
59500SOL    HW183311   7.277   6.755   3.796 -0.1693 -2.4291  2.1415
59500SOL    HW283312   7.149   6.821   3.843 -0.0435 -0.8143  0.3410
59501SOL     OW83313   7.166   0.244   1.891 -0.1385 -0.4254 -0.2390
59501SOL    HW183314   7.252   0.286   1.900 -1.1487  1.6120  0.6922
59501SOL    HW283315   7.184   0.151   1.899  2.0796 -0.1222 -0.9222
59502SOL     OW83316   4.216  10.486   7.190  0.1552 -0.1015  0.2084
59502SOL    HW183317   4.155  10.550   7.154  1.7753  1.6198  0.3761
59502SOL    HW283318   4.199  10.406   7.140 -1.6029  0.5547 -0.3243
59503SOL     OW83319   4.791   6.843  11.108  0.0155  0.5432 -0.0034
59503SOL    HW183320   4.794   6.871  11.017 -3.1460  0.6448 -0.1871
59503SOL    HW283321   4.754   6.918  11.156  0.8605  0.2055  1.2379
59504SOL     OW83322  12.176   5.412   4.712 -0.5264  0.5141  0.1227
59504SOL    HW183323  12.267   5.383   4.706 -0.6686  0.2183 -0.8039
59504SOL    HW283324  12.178   5.486   4.772 -0.0438 -1.0059  2.1233
59505SOL     OW83325   8.253   4.636   6.099 -0.5335 -0.0564  0.3014
59505SOL    HW183326   8.245   4.576   6.172  0.1809 -0.7027 -0.1352
59505SOL    HW283327   8.236   4.583   6.021 -1.7323  0.7145  0.0036
59506SOL     OW83328   9.768  10.341   6.009 -0.3195  0.5992 -0.3118
59506SOL    HW183329   9.687  10.293   6.024  0.3870 -1.1326 -1.6810
59506SOL    HW283330   9.830  10.306   6.073  0.0287  0.1061 -0.9102
59507SOL     OW83331   4.224   8.358   3.068 -0.1131  0.0256 -0.4132
59507SOL    HW183332   4.191   8.410   2.995 -0.7560  1.1217  0.6223
59507SOL    HW283333   4.318   8.375   3.068  0.1840 -1.3598 -2.0130
59508SOL     OW83334   6.665   0.479   8.633 -0.2238 -0.1676 -0.1155
59508SOL    HW183335   6.613   0.542   8.683  2.8433  0.2635  2.9104
59508SOL    HW283336   6.674   0.519   8.546 -1.1082  1.9280  0.6835
59509SOL     OW83337   5.407  11.600   2.008  0.4687  0.2029 -0.2088
59509SOL    HW183338   5.481  11.554   2.048 -0.1520  1.3779  2.5336
59509SOL    HW283339   5.330  11.553   2.039 -0.0385 -0.5443 -2.4109
59510SOL     OW83340   2.363  12.129   1.224  0.7682 -0.0423  0.3548
59510SOL    HW183341   2.322  12.207   1.187 -0.0163  0.5671  2.3435
59510SOL    HW283342   2.456  12.149   1.228  0.9607 -0.3606 -1.7268
59511SOL     OW83343   2.333   1.184   8.878  0.0404  0.2011  0.3993
59511SOL    HW183344   2.330   1.276   8.850 -0.6801  0.5288  1.5111
59511SOL    HW283345   2.259   1.143   8.833 -0.9203  0.6549  1.5099
59512SOL     OW83346   4.646  10.625   0.399  0.8258 -0.8561  0.5710
59512SOL    HW183347   4.708  10.554   0.412  1.4595 -0.0795  2.0088
59512SOL    HW283348   4.693  10.704   0.427 -0.0808  0.0519 -0.3542
59513SOL     OW83349   6.344   9.411   3.099  0.7256 -0.9746  0.2541
59513SOL    HW183350   6.253   9.443   3.094  0.4448 -1.8656 -0.5942
59513SOL    HW283351   6.392   9.465   3.036  0.4667 -1.5073 -0.4081
59514SOL     OW83352  10.113   2.282  10.741 -0.3239  0.5900  0.3600
59514SOL    HW183353  10.148   2.302  10.654 -0.1377  0.0922  0.3112
59514SOL    HW283354  10.117   2.364  10.788 -1.0687  1.0303 -0.3147
59515SOL     OW83355   7.718   5.078   1.430 -0.2956  0.8268 -0.3132
59515SOL    HW183356   7.675   5.156   1.396 -1.1729 -0.4015 -2.2330
59515SOL    HW283357   7.664   5.005   1.398  1.4771 -0.6444 -0.1363
59516SOL     OW83358   9.584   2.894   4.187 -0.3760 -0.0216  0.2424
59516SOL    HW183359   9.645   2.888   4.261  1.4165 -3.6873 -1.2881
59516SOL    HW283360   9.599   2.981   4.151  1.2308  0.5555  2.1202
59517SOL     OW83361  11.991  12.001  10.347  0.0533 -0.6440 -0.1220
59517SOL    HW183362  12.005  12.091  10.318 -1.1572 -0.1396  0.7500
59517SOL    HW283363  11.946  11.958  10.274 -0.7900 -0.0697  0.0367
59518SOL     OW83364   2.238   3.039  10.918 -0.4777 -0.4380  0.0481
59518SOL    HW183365   2.304   3.030  10.987  0.5925  0.6781 -0.8023
59518SOL    HW283366   2.285   3.075  10.843 -2.3970  2.5014  0.0746
59519SOL     OW83367   6.354   9.774   1.820 -0.1869  0.1365 -0.2117
59519SOL    HW183368   6.371   9.698   1.876  0.6202 -0.1807 -0.8636
59519SOL    HW283369   6.276   9.814   1.857  1.6326  1.3564  2.7005
59520SOL     OW83370   9.464   7.467   1.204  0.3411  0.5107  0.9369
59520SOL    HW183371   9.374   7.439   1.186 -0.2530  2.1090  1.2382
59520SOL    HW283372   9.518   7.391   1.180 -1.0887 -0.5711  0.9814
59521SOL     OW83373   2.236   5.229   1.863  0.0480 -0.3186 -0.2676
59521SOL    HW183374   2.318   5.191   1.894  1.0569  1.9149 -0.0022
59521SOL    HW283375   2.224   5.308   1.916 -2.2200 -0.5007 -0.4088
59522SOL     OW83376   5.628  12.193   9.159  0.1629  0.6186 -0.2798
59522SOL    HW183377   5.657  12.105   9.185 -0.8981  0.6893  1.2778
59522SOL    HW283378   5.616  12.187   9.065  3.3745  0.0775 -0.7648
59523SOL     OW83379   4.173   1.738   4.591  0.2530  0.5844 -0.2075
59523SOL    HW183380   4.123   1.662   4.560  0.9625 -0.6842  1.5973
59523SOL    HW283381   4.132   1.813   4.548 -1.0853 -0.7285 -1.3115
59524SOL     OW83382   0.222   6.519   7.696 -0.1876 -0.4623  0.0914
59524SOL    HW183383   0.202   6.468   7.618 -1.1838 -0.8208  0.5643
59524SOL    HW283384   0.268   6.457   7.753  0.4828 -0.2186 -0.1698
59525SOL     OW83385   2.701   3.268   7.593 -0.0047  0.3054 -0.2865
59525SOL    HW183386   2.718   3.244   7.684  2.7597 -0.2279 -0.8408
59525SOL    HW283387   2.760   3.342   7.576  2.7346 -2.1373 -2.6509
59526SOL     OW83388   1.462   2.737   2.608 -0.5408  0.2155 -0.1740
59526SOL    HW183389   1.373   2.704   2.597 -0.6174  0.4807 -0.3489
59526SOL    HW283390   1.504   2.673   2.666 -1.1284  0.5916  0.6818
59527SOL     OW83391   1.678   6.523   9.685  0.5992  0.0081  0.3189
59527SOL    HW183392   1.584   6.522   9.668  0.9267 -0.7396 -1.7248
59527SOL    HW283393   1.713   6.586   9.622  1.5194  0.0647  0.8581
59528SOL     OW83394   8.592   1.713   0.499 -1.2971 -0.5186 -0.0958
59528SOL    HW183395   8.526   1.759   0.447  0.3453  2.5697  0.3279
59528SOL    HW283396   8.667   1.704   0.440 -1.0075 -1.1929  0.3598
59529SOL     OW83397   8.672   2.529  11.755 -0.0556  0.0631  0.1011
59529SOL    HW183398   8.735   2.504  11.688 -0.6709  1.1887 -0.9452
59529SOL    HW283399   8.594   2.554  11.706 -0.5952  0.7226  1.2555
59530SOL     OW83400   0.695   6.857   4.695 -0.2459  0.2969 -0.2225
59530SOL    HW183401   0.692   6.848   4.600  0.1907  0.8819 -0.3007
59530SOL    HW283402   0.720   6.949   4.710 -1.9811  0.6898  0.4811
59531SOL     OW83403   2.229   1.723   0.318  0.1112  0.0867  0.0135
59531SOL    HW183404   2.314   1.705   0.358 -1.5949 -1.4711  3.2764
59531SOL    HW283405   2.186   1.638   0.313 -1.3283  0.8401 -1.5915
59532SOL     OW83406   3.051   7.718   9.663 -0.1142 -0.3086  0.2968
59532SOL    HW183407   3.043   7.813   9.655 -0.0391 -0.3782 -0.7149
59532SOL    HW283408   3.052   7.686   9.573 -1.4465 -1.3869  0.6336
59533SOL     OW83409   9.703   2.357  11.230  0.1402 -0.4196  0.5188
59533SOL    HW183410   9.743   2.390  11.311  2.5478 -0.5707 -0.5180
59533SOL    HW283411   9.733   2.419  11.163 -0.9262 -0.9133 -0.4319
59534SOL     OW83412   1.860   6.752   8.597 -0.5692 -0.2680  0.0624
59534SOL    HW183413   1.785   6.727   8.543  1.9869 -0.0287 -4.0729
59534SOL    HW283414   1.853   6.848   8.605 -0.8363 -0.2688 -0.1382
59535SOL     OW83415   4.283   6.102   2.570 -0.3498  0.1441 -0.0662
59535SOL    HW183416   4.206   6.070   2.617  0.5017 -0.3461  1.0409
59535SOL    HW283417   4.265   6.194   2.553 -1.0335  0.1168  0.4766
59536SOL     OW83418   3.686   4.073   5.146 -0.9078  0.4216 -0.9135
59536SOL    HW183419   3.665   4.016   5.071  0.0432 -1.8376  0.4143
59536SOL    HW283420   3.780   4.088   5.138 -0.6331 -0.5239  0.1973
59537SOL     OW83421   9.964  10.708  10.719 -0.0361 -0.2723 -0.2131
59537SOL    HW183422  10.010  10.767  10.779  0.2093 -0.9249  0.2487
59537SOL    HW283423  10.033  10.672  10.663 -0.4197  1.4721 -1.9371
59538SOL     OW83424   4.546   5.623   8.998 -0.8618 -0.4524  0.3266
59538SOL    HW183425   4.619   5.640   8.938 -0.2808  0.3805  1.2513
59538SOL    HW283426   4.485   5.695   8.981 -0.7307 -0.2586  0.6813
59539SOL     OW83427   0.861   7.508   5.057  0.3250 -0.6770  0.0365
59539SOL    HW183428   0.789   7.491   4.996 -0.1975  0.9036  0.1558
59539SOL    HW283429   0.940   7.482   5.009 -0.3124 -2.9748  0.1082
59540SOL     OW83430   9.204   9.794  11.787  0.3799  0.2585 -0.9998
59540SOL    HW183431   9.232   9.885  11.797  1.1779  0.0405 -1.1355
59540SOL    HW283432   9.179   9.786  11.695  1.0944  0.1397 -1.1888
59541SOL     OW83433   5.642   5.020   0.758  0.4657  0.2694  0.1044
59541SOL    HW183434   5.663   5.093   0.815 -0.1400  1.1327 -0.7552
59541SOL    HW283435   5.697   5.032   0.681  0.6207 -0.3819  0.1017
59542SOL     OW83436  11.997   0.221  11.467  0.0608  0.2978  0.4650
59542SOL    HW183437  12.078   0.183  11.433  0.2809  1.3930 -0.3103
59542SOL    HW283438  12.009   0.224  11.562 -0.3801 -2.4215  0.6610
59543SOL     OW83439  10.411  11.999   9.892  0.0623 -0.1567 -0.1055
59543SOL    HW183440  10.332  11.948   9.910  0.1469  0.2508  1.6074
59543SOL    HW283441  10.408  12.017   9.798 -1.7618 -0.3280 -0.1036
59544SOL     OW83442  10.020   6.688   2.046  0.7047 -0.2293 -0.3130
59544SOL    HW183443   9.952   6.753   2.028 -0.6588 -1.3693  0.4832
59544SOL    HW283444  10.088   6.737   2.092 -0.6166  0.5348  0.9227
59545SOL     OW83445   1.847   2.962  12.008 -0.8134  0.1017 -0.0064
59545SOL    HW183446   1.924   2.919  11.973  1.8461  2.3727  2.5582
59545SOL    HW283447   1.803   2.894  12.059  0.6460 -0.7761  0.1276
59546SOL     OW83448   6.072   9.226   7.300  0.4231  0.3794  0.4283
59546SOL    HW183449   6.144   9.189   7.352  1.2149  0.8584 -0.3118
59546SOL    HW283450   6.061   9.314   7.335  1.3109  0.8885 -0.5561
59547SOL     OW83451   8.529   0.337   2.838  0.1314 -0.1381 -0.3294
59547SOL    HW183452   8.584   0.292   2.774  1.0034 -0.7302  0.8198
59547SOL    HW283453   8.566   0.314   2.923 -1.7534 -0.3781  0.4786
59548SOL     OW83454  12.407   8.186   4.920 -0.2949  0.5545  0.3935
59548SOL    HW183455  12.395   8.146   5.006  1.4531 -1.2794 -0.1372
59548SOL    HW283456  12.360   8.128   4.860  1.4265 -0.2446 -0.2623
59549SOL     OW83457   6.506   7.601   8.365 -0.4428  0.1756 -0.5649
59549SOL    HW183458   6.574   7.585   8.431 -0.7596 -0.6210 -0.4260
59549SOL    HW283459   6.554   7.626   8.286 -0.0443  0.8123 -0.1282
59550SOL     OW83460   9.830   2.153   7.790  0.1588 -0.4456  0.1676
59550SOL    HW183461   9.905   2.210   7.770  0.5607 -0.7373  0.8147
59550SOL    HW283462   9.761   2.213   7.817  0.1958 -0.1808 -0.3223
59551SOL     OW83463   1.080   6.025  10.092 -0.5413 -0.4607 -0.2846
59551SOL    HW183464   1.050   6.028  10.182 -0.8726 -2.8124 -0.2513
59551SOL    HW283465   1.030   6.094  10.047 -3.1145 -1.6369  0.5929
59552SOL     OW83466   3.012   8.095   8.257 -0.8398 -0.2870 -0.1996
59552SOL    HW183467   3.070   8.136   8.321  0.1426  2.0688 -2.4273
59552SOL    HW283468   3.002   8.005   8.289  3.0219 -0.5058  1.0282
59553SOL     OW83469  11.683   2.385  11.706 -0.3657  0.7936 -0.4049
59553SOL    HW183470  11.632   2.380  11.625  0.4234 -1.2818 -0.8359
59553SOL    HW283471  11.770   2.411  11.677 -0.3319  1.0562 -0.0739
59554SOL     OW83472   1.231   7.351   7.260 -0.3624 -0.8088 -0.2883
59554SOL    HW183473   1.247   7.318   7.348  0.6160 -1.1107 -0.5685
59554SOL    HW283474   1.305   7.320   7.208  0.6495  1.8052 -0.5802
59555SOL     OW83475   9.302  10.786   7.423 -0.2259 -0.1399 -0.3305
59555SOL    HW183476   9.375  10.754   7.477 -0.1874  0.0257 -0.2825
59555SOL    HW283477   9.239  10.714   7.423 -1.0164  0.4708  1.3882
59556SOL     OW83478  10.613   4.280   5.136  0.5596 -0.2356 -0.7648
59556SOL    HW183479  10.689   4.285   5.193  1.1944  1.5219 -1.6745
59556SOL    HW283480  10.540   4.260   5.194  1.4786 -0.4160  0.3565
59557SOL     OW83481  11.907  12.523   3.264  0.7264  0.0382  0.3865
59557SOL    HW183482  11.816  12.549   3.278  0.8237  1.2286 -0.9185
59557SOL    HW283483  11.948  12.529   3.350 -0.1354  0.7340  0.7586
59558SOL     OW83484   8.535   8.294   6.089  0.3759 -0.0845 -0.3824
59558SOL    HW183485   8.508   8.263   6.002 -0.7111  0.1409 -0.1396
59558SOL    HW283486   8.612   8.349   6.072  0.1267  0.0223 -1.2115
59559SOL     OW83487   2.373   0.856   4.109  0.4349 -0.1673  0.2796
59559SOL    HW183488   2.366   0.794   4.036  0.4725 -1.5246  1.3841
59559SOL    HW283489   2.321   0.931   4.082  0.1322 -0.8096 -0.9853
59560SOL     OW83490   4.759   8.013   0.321  0.5924  0.0433 -0.5176
59560SOL    HW183491   4.717   7.956   0.256  2.2178 -0.9290 -0.7901
59560SOL    HW283492   4.747   8.101   0.288 -1.1898 -0.1932 -0.5777
59561SOL     OW83493  10.720   9.744   0.740  0.2460  0.2626  0.1226
59561SOL    HW183494  10.706   9.708   0.827  0.0033  1.5011  0.6192
59561SOL    HW283495  10.651   9.810   0.729 -1.2590 -1.5106 -1.9967
59562SOL     OW83496   1.442   9.282   8.104  0.1205 -0.3180 -0.2498
59562SOL    HW183497   1.361   9.334   8.111 -0.1575 -0.9418  1.8056
59562SOL    HW283498   1.415   9.194   8.130  1.5480 -0.4330  0.9371
59563SOL     OW83499  10.531   1.876   8.042 -0.0174 -0.0509  0.0595
59563SOL    HW183500  10.516   1.911   8.129  0.4585 -0.4598  0.3103
59563SOL    HW283501  10.448   1.888   7.996  0.6486  3.3773 -0.5751
59564SOL     OW83502  10.277   7.822   6.253  0.0676 -0.3508  0.1276
59564SOL    HW183503  10.346   7.759   6.234  1.0986  1.0165 -0.7846
59564SOL    HW283504  10.283   7.888   6.184 -0.5379  1.1164  1.3913
59565SOL     OW83505   3.474   8.376   3.504 -0.0712 -0.2818 -0.0024
59565SOL    HW183506   3.386   8.373   3.540  0.2523 -0.9524  0.7620
59565SOL    HW283507   3.526   8.319   3.561  1.0131  0.6621 -0.0064
59566SOL     OW83508   5.856  10.452   9.666 -0.6511  0.4620  0.0166
59566SOL    HW183509   5.941  10.495   9.652 -1.0585  0.9372 -1.0970
59566SOL    HW283510   5.798  10.523   9.694 -1.4818  0.8455 -2.4202
59567SOL     OW83511   7.666   6.236   6.129 -0.0173 -0.8688  0.5334
59567SOL    HW183512   7.716   6.313   6.154  0.9501 -1.2278 -0.2475
59567SOL    HW283513   7.594   6.233   6.192 -0.0381  0.6223  0.6183
59568SOL     OW83514   8.495   8.185   2.659  0.2698 -0.3668 -0.1272
59568SOL    HW183515   8.562   8.241   2.700 -0.5346  0.1190  0.5599
59568SOL    HW283516   8.418   8.197   2.714 -0.0622 -1.7917 -0.2597
59569SOL     OW83517   9.183   5.861  12.390  0.1741  0.1388  0.0027
59569SOL    HW183518   9.275   5.858  12.415  0.3187 -0.4431 -0.5560
59569SOL    HW283519   9.139   5.905  12.463  1.0128  1.2036 -0.1232
59570SOL     OW83520   5.900   7.131   8.394 -0.0118 -0.1683  0.0051
59570SOL    HW183521   5.851   7.172   8.324 -1.7082  0.7549  1.6285
59570SOL    HW283522   5.899   7.195   8.465 -0.2059 -1.8357  1.6083
59571SOL     OW83523   5.162   7.732   4.938 -0.3358 -0.2957  0.0614
59571SOL    HW183524   5.208   7.726   5.022 -2.0784  0.2824  1.1075
59571SOL    HW283525   5.215   7.680   4.878  1.1034 -0.5021  1.4522
59572SOL     OW83526  11.162   8.606   3.504  0.5173 -0.4475 -0.1658
59572SOL    HW183527  11.217   8.656   3.443  1.1231  0.4630  1.0945
59572SOL    HW283528  11.072   8.626   3.477  0.6487  2.8523  1.3640
59573SOL     OW83529   2.869   2.916   0.603 -0.4011 -0.0280 -0.0381
59573SOL    HW183530   2.925   2.965   0.543 -1.1093 -1.7183 -2.2113
59573SOL    HW283531   2.799   2.977   0.626 -0.6665  0.3566 -1.7600
59574SOL     OW83532   5.120   8.314   2.263  0.3888  0.3819 -0.2714
59574SOL    HW183533   5.164   8.244   2.313 -0.4853 -0.4854 -0.6834
59574SOL    HW283534   5.108   8.384   2.327  0.0995 -0.3642  0.5142
59575SOL     OW83535  10.553  10.900   5.530 -0.2013 -0.2290  0.1494
59575SOL    HW183536  10.645  10.919   5.544 -0.2103  1.1725 -1.4478
59575SOL    HW283537  10.549  10.864   5.441 -1.2174  0.0245  0.0815
59576SOL     OW83538   3.476   8.696  12.397  0.2960 -0.6032 -0.3560
59576SOL    HW183539   3.545   8.706  12.462  1.1736 -2.0760 -1.0206
59576SOL    HW283540   3.504   8.751  12.324  1.0945 -1.6431 -0.8568
59577SOL     OW83541  10.651   1.498  12.212  0.7524 -0.3097  0.0617
59577SOL    HW183542  10.566   1.531  12.186  1.5773  1.5800 -0.4176
59577SOL    HW283543  10.645   1.488  12.307  0.1504  0.2894  0.0888
59578SOL     OW83544   7.303   6.080  11.133  0.1653 -0.1330 -0.2943
59578SOL    HW183545   7.254   6.159  11.156  1.4622  0.4813  0.4769
59578SOL    HW283546   7.358   6.063  11.210  0.8311 -1.0545 -0.9506
59579SOL     OW83547   9.875   2.785   7.589 -0.5161 -0.0043  0.1592
59579SOL    HW183548   9.841   2.757   7.674 -0.6638 -0.3495 -0.0111
59579SOL    HW283549   9.952   2.838   7.610  1.0429 -2.2747  0.4224
59580SOL     OW83550  12.404   8.010   5.507  0.0423  0.5064  0.2898
59580SOL    HW183551  12.311   7.999   5.525  0.1366  0.9446  1.1115
59580SOL    HW283552  12.442   8.032   5.592  1.7083 -4.3225  1.1028
59581SOL     OW83553   2.401   7.677   9.043 -0.2105  0.1377 -0.0784
59581SOL    HW183554   2.448   7.753   9.006 -1.5454  0.7985 -0.4778
59581SOL    HW283555   2.377   7.625   8.966  2.8919 -2.1275  0.2878
59582SOL     OW83556   7.832  12.025   0.897  0.3866 -0.1358  0.2361
59582SOL    HW183557   7.925  12.007   0.909  0.8494 -0.1899 -2.8248
59582SOL    HW283558   7.788  11.957   0.948  2.0083 -0.6291  1.0331
59583SOL     OW83559   6.075   4.282  12.369  0.1097  0.5688 -0.1243
59583SOL    HW183560   6.073   4.332  12.287  1.8869 -0.3176 -0.7660
59583SOL    HW283561   6.109   4.344  12.434  4.7467 -0.2214 -1.4139
59584SOL     OW83562  12.147   9.822   2.381 -0.3618  0.2150  0.5890
59584SOL    HW183563  12.152   9.745   2.437 -1.9248  1.1305  2.0819
59584SOL    HW283564  12.097   9.793   2.305  1.2713 -0.8786 -0.1421
59585SOL     OW83565   8.557   2.289  11.409 -0.5465 -0.2127  0.1104
59585SOL    HW183566   8.595   2.313  11.324 -0.7577 -1.8350 -0.4823
59585SOL    HW283567   8.485   2.351  11.421 -0.5727 -0.0117 -0.9608
59586SOL     OW83568   2.557   9.958   1.057  0.8411 -0.2578 -0.5463
59586SOL    HW183569   2.502   9.922   1.126 -0.8462  1.0234 -1.1354
59586SOL    HW283570   2.642   9.917   1.070  0.1662 -1.1913  1.3405
59587SOL     OW83571   3.826   6.951  12.316 -0.1157  0.4938  0.2006
59587SOL    HW183572   3.918   6.948  12.342 -0.3800 -1.9000  1.0804
59587SOL    HW283573   3.778   6.922  12.393 -1.6835  2.1661 -0.0922
59588SOL     OW83574   2.065   6.590   4.605 -0.1571 -0.3441 -0.4329
59588SOL    HW183575   1.976   6.624   4.619 -0.7203 -1.1124 -1.8791
59588SOL    HW283576   2.080   6.601   4.511  0.0403 -3.0129 -0.7858
59589SOL     OW83577   1.126  11.332   9.750  0.0735 -0.7803 -0.4027
59589SOL    HW183578   1.193  11.303   9.688 -0.4685 -0.4736 -1.1494
59589SOL    HW283579   1.047  11.342   9.697 -0.7306 -1.7022  0.5642
59590SOL     OW83580   6.937   9.677  11.438 -0.1348  0.3496 -0.6015
59590SOL    HW183581   7.015   9.676  11.384  1.1362 -1.1646  1.1435
59590SOL    HW283582   6.875   9.618  11.394  1.1997 -1.5618 -0.0368
59591SOL     OW83583  12.096   0.153   2.359 -0.1469  0.0328 -0.0945
59591SOL    HW183584  12.086   0.058   2.364 -1.9920  0.2187  0.5262
59591SOL    HW283585  12.084   0.184   2.449  0.2132  0.8744 -0.3248
59592SOL     OW83586   1.474   3.360  11.316 -0.0797 -0.1748 -0.0516
59592SOL    HW183587   1.532   3.284  11.307 -1.1628 -1.0030 -0.2016
59592SOL    HW283588   1.387   3.323  11.323 -0.6947  1.0884 -0.7205
59593SOL     OW83589  12.605  11.354   3.240 -0.0287 -0.0753  0.2782
59593SOL    HW183590  12.551  11.403   3.178 -1.3733 -0.1245  1.3720
59593SOL    HW283591  12.567  11.373   3.325  1.1396 -0.8398  1.0000
59594SOL     OW83592   6.272   4.677   1.854  0.4245  0.5172  0.4126
59594SOL    HW183593   6.218   4.756   1.846  0.6453  0.7002  0.7082
59594SOL    HW283594   6.290   4.671   1.948 -0.5130 -0.5036  0.5452
59595SOL     OW83595   5.380  11.382  11.882  0.1839 -0.3031  0.0933
59595SOL    HW183596   5.360  11.409  11.971 -1.1713 -0.2557 -0.2050
59595SOL    HW283597   5.428  11.300  11.892  1.8580  0.7047  0.9052
59596SOL     OW83598  10.218   4.808   7.500  0.1508  0.1869 -0.0615
59596SOL    HW183599  10.151   4.857   7.546 -0.4238  0.4362 -1.1367
59596SOL    HW283600  10.209   4.718   7.533 -1.2656  0.0403 -0.7707
59597SOL     OW83601   3.201  11.639   4.665  0.3986 -0.6093 -0.0071
59597SOL    HW183602   3.262  11.627   4.738 -0.8724  1.5560  1.5118
59597SOL    HW283603   3.237  11.584   4.596  1.2410 -3.4707  2.4422
59598SOL     OW83604   7.676   4.524   1.422 -0.2245  0.0881  0.2828
59598SOL    HW183605   7.582   4.523   1.443 -0.1329 -0.8324  0.6475
59598SOL    HW283606   7.713   4.586   1.485 -0.7037  1.1323 -0.4218
59599SOL     OW83607   3.809   6.021  11.985  0.5196  0.5378  0.0919
59599SOL    HW183608   3.722   6.062  11.983 -0.1600 -0.8974 -0.4174
59599SOL    HW283609   3.850   6.049  11.903  1.0041  2.1383  0.8379
59600SOL     OW83610   5.642   9.324   3.946  0.5885  0.4604  0.2172
59600SOL    HW183611   5.562   9.276   3.922  0.7389 -0.2729  1.1339
59600SOL    HW283612   5.704   9.256   3.973  0.7818  1.1523  1.6159
59601SOL     OW83613   3.557   5.336   8.882  0.1875 -0.2754 -0.1677
59601SOL    HW183614   3.625   5.403   8.879 -0.0007  0.0429  1.6321
59601SOL    HW283615   3.488   5.374   8.937 -1.2407 -0.7995 -1.5170
59602SOL     OW83616   7.518   8.067   4.859 -0.2179 -0.1707 -0.4460
59602SOL    HW183617   7.586   8.034   4.801  0.4687 -1.4101  0.9810
59602SOL    HW283618   7.556   8.146   4.898 -0.9622  1.0763 -2.1548
59603SOL     OW83619   8.065  12.285  10.490  0.3680  0.2038 -0.2149
59603SOL    HW183620   8.032  12.208  10.536 -0.8224  0.5067 -0.5236
59603SOL    HW283621   7.989  12.342  10.480  0.9289  0.8247 -1.1957
59604SOL     OW83622   7.027   1.528   3.670  0.2657  0.1865 -0.2184
59604SOL    HW183623   7.108   1.545   3.717  0.7822  0.3609 -1.1537
59604SOL    HW283624   7.048   1.457   3.610 -0.2714  0.2321 -0.4681
59605SOL     OW83625   8.139   8.160   6.901 -0.4546  0.3896 -0.2067
59605SOL    HW183626   8.076   8.133   6.969 -3.0623  3.7868 -0.9823
59605SOL    HW283627   8.099   8.132   6.819  0.0887  0.8117 -0.6220
59606SOL     OW83628   4.416   0.464   4.785  0.4179 -0.1667 -0.3306
59606SOL    HW183629   4.332   0.500   4.759  0.4484  0.1428 -0.0131
59606SOL    HW283630   4.396   0.376   4.818 -0.0815  0.6505  1.6908
59607SOL     OW83631   1.939   7.483   9.374  0.0740  0.0749 -0.6139
59607SOL    HW183632   1.864   7.501   9.318 -0.0770 -1.0843 -0.8161
59607SOL    HW283633   1.953   7.564   9.422  0.2481  1.1209 -2.3571
59608SOL     OW83634   6.634   5.988  12.137  0.5952 -0.5027 -0.5577
59608SOL    HW183635   6.658   5.896  12.142  1.1968 -0.3115  0.3402
59608SOL    HW283636   6.648   6.012  12.046 -0.0365 -1.4234 -0.8979
59609SOL     OW83637   7.667   4.663   8.322 -0.2988 -0.3486  0.3182
59609SOL    HW183638   7.590   4.696   8.367  0.0530 -0.4985  1.0381
59609SOL    HW283639   7.723   4.740   8.310 -0.7726 -0.1385 -0.6725
59610SOL     OW83640   3.806  11.765   7.917 -0.1000 -0.4822  0.0227
59610SOL    HW183641   3.745  11.743   7.847  1.2904 -0.0284 -1.3767
59610SOL    HW283642   3.750  11.800   7.987 -1.3651  1.0975 -1.6712
59611SOL     OW83643  11.644   9.661   6.718  0.0621 -0.5228 -0.3854
59611SOL    HW183644  11.627   9.642   6.811  1.1514 -0.0653 -0.0762
59611SOL    HW283645  11.736   9.638   6.706  0.2055  0.3705 -1.0986
59612SOL     OW83646   3.830   3.189   2.080  0.4307  0.1153 -0.3207
59612SOL    HW183647   3.830   3.114   2.139  0.2206  0.6456  0.3632
59612SOL    HW283648   3.744   3.187   2.038  0.3525  0.0881 -0.1583
59613SOL     OW83649   1.879   0.551   3.073  0.0516  0.0987  0.7757
59613SOL    HW183650   1.869   0.597   2.989  0.8023 -0.2056  0.5144
59613SOL    HW283651   1.956   0.591   3.113 -0.3327  0.2769  1.3492
59614SOL     OW83652   2.025   3.838  12.218 -0.1011  0.0740 -0.3382
59614SOL    HW183653   2.027   3.892  12.298 -2.4571 -0.8738  0.4442
59614SOL    HW283654   2.012   3.901  12.147 -1.3838  0.6855  0.4101
59615SOL     OW83655  11.445   0.630   1.477  0.2868 -0.0651  0.2963
59615SOL    HW183656  11.382   0.671   1.417  0.2826 -0.4426  0.0389
59615SOL    HW283657  11.400   0.629   1.562  0.2843  0.4510  0.3059
59616SOL     OW83658   0.518   4.998   3.322  0.1682 -0.0599  0.7493
59616SOL    HW183659   0.538   4.989   3.415  0.4998 -1.2310  0.5748
59616SOL    HW283660   0.546   5.087   3.300  0.4952  0.0712  1.6629
59617SOL     OW83661   0.172   3.802   8.453  0.2713 -0.7352  0.0147
59617SOL    HW183662   0.098   3.757   8.411  0.3708 -2.7351  1.7804
59617SOL    HW283663   0.140   3.890   8.470 -1.3782 -1.2745 -0.1177
59618SOL     OW83664   3.485   6.679  10.166  0.1181  0.1063  0.2275
59618SOL    HW183665   3.574   6.645  10.175  0.2549 -0.0900 -1.5865
59618SOL    HW283666   3.433   6.628  10.228  1.5943  1.8043  3.1383
59619SOL     OW83667   9.959  10.160   9.250 -0.4412 -0.0422  0.0433
59619SOL    HW183668   9.980  10.123   9.165 -0.4963 -1.2276  0.5350
59619SOL    HW283669  10.038  10.147   9.303 -1.1590 -1.3472  0.8376
59620SOL     OW83670   7.556   1.601  11.802  0.2306 -0.3562 -0.0892
59620SOL    HW183671   7.466   1.587  11.773 -0.0543  0.1048  0.5633
59620SOL    HW283672   7.553   1.681  11.853  0.7386 -1.0831  1.1368
59621SOL     OW83673  10.915  10.983  11.573 -0.2017 -0.0858  0.6766
59621SOL    HW183674  10.841  11.041  11.589  0.8139  1.2454  0.7668
59621SOL    HW283675  10.908  10.916  11.640  0.0882  1.4780  2.3699
59622SOL     OW83676  12.081   7.378   4.680  0.3672  0.0792 -0.4181
59622SOL    HW183677  12.047   7.340   4.599  0.2933  0.6556 -0.6636
59622SOL    HW283678  12.087   7.304   4.741 -0.6181 -0.1592 -0.5994
59623SOL     OW83679   0.585   7.985   5.275 -0.5718 -0.3811  1.3002
59623SOL    HW183680   0.624   7.922   5.215  1.1119  1.0583  0.8194
59623SOL    HW283681   0.551   8.054   5.219  0.0825  0.4678  1.9196
59624SOL     OW83682   8.198   5.576   8.978  0.4882  0.2039 -0.6515
59624SOL    HW183683   8.292   5.579   8.960  0.6792  0.2957  0.2994
59624SOL    HW283684   8.162   5.518   8.911  1.4475 -1.0531 -0.1225
59625SOL     OW83685  10.611   1.832  12.558  0.2219 -0.2920  0.4297
59625SOL    HW183686  10.618   1.740  12.586  2.1835 -0.8548 -1.5875
59625SOL    HW283687  10.550   1.830  12.485  0.2928  0.0131  0.3620
59626SOL     OW83688   8.049   0.687   4.875 -0.0813 -1.3376 -0.1594
59626SOL    HW183689   8.001   0.664   4.795 -1.5584 -1.8703  0.8466
59626SOL    HW283690   8.033   0.781   4.886 -1.3906 -1.6164  0.4634
59627SOL     OW83691  11.613   6.866   2.872 -0.3376  0.2286  0.6255
59627SOL    HW183692  11.577   6.912   2.796  1.6297  1.5786  0.4328
59627SOL    HW283693  11.596   6.774   2.854 -1.7938  0.6572 -0.4093
59628SOL     OW83694   0.895   1.169   6.633  0.5913  0.0639  0.0594
59628SOL    HW183695   0.913   1.190   6.725  1.5132  0.1754 -0.1440
59628SOL    HW283696   0.880   1.074   6.633 -3.3432  0.4893  0.9412
59629SOL     OW83697   4.036   5.652  10.880  0.5770 -0.6861 -0.0366
59629SOL    HW183698   4.000   5.730  10.838  0.3643 -1.2379 -0.9106
59629SOL    HW283699   4.029   5.583  10.813  2.3381 -1.0577  0.0916
59630SOL     OW83700   6.931   2.904   5.869 -0.6217  0.2917 -0.2527
59630SOL    HW183701   6.900   2.895   5.959 -0.7768 -1.1797 -0.4372
59630SOL    HW283702   6.886   2.982   5.836 -0.4546  0.9290  0.9668
59631SOL     OW83703  10.622   9.580  11.231  0.0643  0.5225 -0.4263
59631SOL    HW183704  10.568   9.588  11.310 -0.0984  0.3681 -0.5193
59631SOL    HW283705  10.561   9.546  11.165  0.5885 -0.9865 -0.1790
59632SOL     OW83706   2.904   1.632   1.377  0.4189 -0.0987 -0.0272
59632SOL    HW183707   2.815   1.666   1.374  0.9342  1.2966 -0.3501
59632SOL    HW283708   2.925   1.627   1.471 -0.3340 -1.4256  0.0944
59633SOL     OW83709   6.327   2.009   0.988 -0.6003  0.1020  0.0944
59633SOL    HW183710   6.262   1.983   1.054 -0.7763 -0.0279 -0.1286
59633SOL    HW283711   6.371   1.927   0.966 -1.0482  0.0127 -0.4948
59634SOL     OW83712   7.430   6.958   2.815  0.3597 -0.7038 -0.1969
59634SOL    HW183713   7.457   7.014   2.743  1.5598 -1.0495 -0.0374
59634SOL    HW283714   7.410   6.873   2.774  3.5841 -1.7309  0.0816
59635SOL     OW83715   8.888   1.133   5.761  0.4633  0.7611 -0.0754
59635SOL    HW183716   8.856   1.191   5.829 -1.3078 -0.0522 -0.1568
59635SOL    HW283717   8.913   1.053   5.807 -2.6220 -0.5574 -0.4631
59636SOL     OW83718  10.896   1.911   7.234 -0.6929  0.1844 -0.3491
59636SOL    HW183719  10.810   1.869   7.230  0.1523 -2.1063  2.4520
59636SOL    HW283720  10.951   1.860   7.174 -0.5604 -0.3801  0.2441
59637SOL     OW83721   1.048  11.092   9.604 -0.1168  0.6169  0.3017
59637SOL    HW183722   1.135  11.131   9.607  0.0913  0.2595 -0.5769
59637SOL    HW283723   1.018  11.092   9.695  0.7748  0.7907  0.6078
59638SOL     OW83724  11.792   3.711  10.721 -0.0677 -0.3113 -0.4358
59638SOL    HW183725  11.714   3.711  10.778  0.3438  1.8132  0.2057
59638SOL    HW283726  11.806   3.618  10.701 -1.4362 -0.9591  1.2627
59639SOL     OW83727   9.365   5.987  10.974 -0.3363  0.2868  0.4027
59639SOL    HW183728   9.367   6.035  11.057  0.3029 -1.6085  1.5439
59639SOL    HW283729   9.454   5.998  10.939  0.4721 -1.6208  1.6718
59640SOL     OW83730   8.393  10.712   3.405 -0.1712 -0.1802  0.0057
59640SOL    HW183731   8.361  10.652   3.472  2.5930 -3.0906 -1.0544
59640SOL    HW283732   8.451  10.772   3.452 -0.2533 -0.5469  0.5809
59641SOL     OW83733   3.557   4.234   4.847 -0.0213  0.1796 -0.3638
59641SOL    HW183734   3.585   4.206   4.760  2.1746  0.9462  0.0086
59641SOL    HW283735   3.554   4.330   4.841 -2.1609  0.1611 -0.1913
59642SOL     OW83736   3.308   5.502   8.981  0.8403 -0.0333 -0.0445
59642SOL    HW183737   3.367   5.477   9.053  1.4238 -0.4166 -0.6463
59642SOL    HW283738   3.235   5.441   8.987  2.0464 -1.6863 -1.2414
59643SOL     OW83739   4.484   3.215   0.065 -0.1677 -0.2392  0.2285
59643SOL    HW183740   4.404   3.182   0.024  0.1333 -0.3655 -0.2718
59643SOL    HW283741   4.535   3.137   0.084 -0.5828 -0.2277  1.4584
59644SOL     OW83742   2.773   5.396   3.360 -0.9394 -0.0113 -0.2470
59644SOL    HW183743   2.839   5.459   3.387 -0.8018 -0.6696  1.0312
59644SOL    HW283744   2.818   5.338   3.299 -0.6685  0.2173 -0.2682
59645SOL     OW83745  11.466   4.202   1.593  0.4131 -0.0242 -0.8559
59645SOL    HW183746  11.529   4.225   1.525  1.2844  0.8572  0.1970
59645SOL    HW283747  11.520   4.186   1.671 -0.6564  0.8755  0.1050
59646SOL     OW83748  11.770   8.106   2.574  0.0669  0.1643  0.0419
59646SOL    HW183749  11.716   8.135   2.501 -0.7829 -0.1424  0.5278
59646SOL    HW283750  11.841   8.170   2.579  1.1499 -0.7716 -2.1381
59647SOL     OW83751   5.927   5.560  11.129 -0.2807 -0.1969  0.6266
59647SOL    HW183752   5.917   5.619  11.054  0.9827 -0.1721  0.4609
59647SOL    HW283753   5.881   5.481  11.103 -0.6371  0.1403  0.2012
59648SOL     OW83754   0.401   2.333   9.752  0.2571  0.2695 -0.1620
59648SOL    HW183755   0.483   2.344   9.704  0.0112 -0.2456 -0.7065
59648SOL    HW283756   0.425   2.275   9.825  0.1052 -0.9898 -1.0788
59649SOL     OW83757   7.523   5.318   5.551  0.5663  0.2324 -0.4668
59649SOL    HW183758   7.547   5.227   5.534 -0.0497  0.1119 -0.7492
59649SOL    HW283759   7.557   5.366   5.476  0.3555  0.1367 -0.6257
59650SOL     OW83760  10.528  12.109   3.869 -0.2900  0.3241  0.2259
59650SOL    HW183761  10.449  12.097   3.921 -0.6608 -0.6138 -0.5297
59650SOL    HW283762  10.500  12.163   3.794  0.4502  2.5263  1.4331
59651SOL     OW83763   2.107  12.519   8.201 -0.7972 -0.2888 -0.2732
59651SOL    HW183764   2.098  12.439   8.252 -1.1071 -2.0907 -2.9810
59651SOL    HW283765   2.031  12.572   8.226 -1.3878 -1.4635  0.5067
59652SOL     OW83766   0.383   0.130   5.625  0.4917 -0.1174  0.1267
59652SOL    HW183767   0.341   0.210   5.655 -1.0135 -0.1157 -1.8628
59652SOL    HW283768   0.464   0.159   5.583 -0.3756  0.4517 -1.1868
59653SOL     OW83769  11.548   0.977   3.873  0.0993 -0.6620  0.0628
59653SOL    HW183770  11.533   0.883   3.882 -2.6913 -0.1900  1.1857
59653SOL    HW283771  11.461   1.016   3.880  1.0396  1.9565 -1.5419
59654SOL     OW83772   0.698   0.181  10.241  0.2292 -0.4948 -0.5368
59654SOL    HW183773   0.713   0.209  10.151  0.8636  0.1455 -0.2495
59654SOL    HW283774   0.785   0.188  10.282 -0.2819  0.3942  0.4295
59655SOL     OW83775   8.447   6.826   5.860  0.1561 -0.3151  0.5646
59655SOL    HW183776   8.364   6.852   5.899 -0.5310 -1.5690  0.0073
59655SOL    HW283777   8.498   6.792   5.934  0.0455  0.1357  0.8527
59656SOL     OW83778   0.736   4.888   8.552 -0.0382 -0.3604 -0.4782
59656SOL    HW183779   0.698   4.958   8.498  1.7049 -0.1914 -1.5523
59656SOL    HW283780   0.781   4.831   8.490  2.3632  0.0365  0.7661
59657SOL     OW83781   0.202  10.898  11.023  0.0861 -0.4628  0.0117
59657SOL    HW183782   0.201  10.959  10.949  1.9671 -1.4251 -0.8799
59657SOL    HW283783   0.110  10.885  11.045 -0.5913 -0.7065 -2.6388
59658SOL     OW83784   1.994   7.308   2.546 -0.4649  0.4588  0.3961
59658SOL    HW183785   2.083   7.342   2.543 -0.3353  0.1141 -2.4627
59658SOL    HW283786   2.002   7.224   2.592  0.9200 -0.1042 -0.8100
59659SOL     OW83787   6.490  10.601   7.159  0.1382 -0.1137 -0.3678
59659SOL    HW183788   6.569  10.603   7.105  1.0194  0.6891  0.8801
59659SOL    HW283789   6.523  10.589   7.249 -1.1768 -0.0189  0.1488
59660SOL     OW83790   2.663   3.289   6.071 -0.4686 -0.2407 -0.0122
59660SOL    HW183791   2.574   3.268   6.098 -0.4659 -0.8219 -0.4454
59660SOL    HW283792   2.717   3.219   6.108 -0.2974 -0.3313 -0.4301
59661SOL     OW83793   9.019   2.730   2.424  0.5108  0.2382  0.0169
59661SOL    HW183794   8.991   2.771   2.506  0.6409 -1.4076  0.9401
59661SOL    HW283795   8.972   2.777   2.356  1.4010  2.5352  0.8881
59662SOL     OW83796   5.370   2.636   6.246 -0.1023 -0.4487 -0.1316
59662SOL    HW183797   5.409   2.598   6.325 -1.0411  1.0004  1.0825
59662SOL    HW283798   5.399   2.727   6.247  1.0415 -0.7371 -2.2783
59663SOL     OW83799   6.560   4.697   9.720  0.2207 -0.3377  0.1506
59663SOL    HW183800   6.468   4.713   9.699  0.0747  0.6270  1.4264
59663SOL    HW283801   6.592   4.781   9.754  1.5810 -0.6568 -0.2783
59664SOL     OW83802   2.507   4.729   8.118 -0.3151 -0.8789 -0.3724
59664SOL    HW183803   2.533   4.755   8.029  1.8444 -0.8360  0.2108
59664SOL    HW283804   2.468   4.643   8.107  1.2333 -1.5074 -1.2246
59665SOL     OW83805   6.040   1.957   0.493 -0.1685 -0.3656 -0.2610
59665SOL    HW183806   6.038   1.909   0.411 -0.3207 -0.2472 -0.3282
59665SOL    HW283807   6.124   1.935   0.533  0.2776  0.2533 -0.8508
59666SOL     OW83808   7.530   4.151   2.459 -0.0531 -0.1829 -0.0586
59666SOL    HW183809   7.602   4.198   2.502 -4.2095  3.6256  3.8233
59666SOL    HW283810   7.516   4.198   2.377  0.9344 -0.0473 -0.1588
59667SOL     OW83811   4.998   6.211   7.707  0.3941  0.4147 -0.0070
59667SOL    HW183812   5.017   6.142   7.771 -1.1423  2.1112  2.4742
59667SOL    HW283813   5.083   6.241   7.677  1.2757  0.4020  2.2956
59668SOL     OW83814   7.795  11.343   6.068  0.1440 -0.0039 -0.0042
59668SOL    HW183815   7.821  11.431   6.040 -0.7594 -0.0733 -1.1152
59668SOL    HW283816   7.852  11.324   6.143  0.1196  1.6664  0.4745
59669SOL     OW83817   3.616   3.621   3.176  0.3117 -0.7557  0.1523
59669SOL    HW183818   3.627   3.535   3.217  2.5895 -0.6368 -0.0787
59669SOL    HW283819   3.703   3.642   3.141 -0.9262  0.1824 -2.7155
59670SOL     OW83820   2.381  11.681   9.243 -0.2992 -0.6028  0.1378
59670SOL    HW183821   2.446  11.635   9.296 -1.1058 -2.1036 -0.1111
59670SOL    HW283822   2.301  11.678   9.296 -0.3501  0.6219  0.1517
59671SOL     OW83823  12.000  12.335  11.154 -0.1698  0.1494 -0.2359
59671SOL    HW183824  11.969  12.385  11.230 -1.7656  1.2477 -1.5157
59671SOL    HW283825  12.058  12.395  11.108 -1.3360  0.5392 -1.2691
59672SOL     OW83826   8.474   8.999   0.520  0.4844  0.5217 -0.2745
59672SOL    HW183827   8.503   9.014   0.431  3.5736 -0.0482  0.5335
59672SOL    HW283828   8.498   9.079   0.567  0.3214  0.2015  0.3667
59673SOL     OW83829  10.986   0.538   6.831  0.1762 -0.1335 -0.0356
59673SOL    HW183830  10.898   0.514   6.801  0.1284 -0.6378  0.4772
59673SOL    HW283831  11.017   0.460   6.877 -0.1576  0.9078  2.1094
59674SOL     OW83832   7.143   0.874   2.638 -0.2056  0.1033  0.1683
59674SOL    HW183833   7.195   0.942   2.593 -1.2610  1.6779  1.2182
59674SOL    HW283834   7.064   0.866   2.584 -0.3447  0.1451  0.3667
59675SOL     OW83835  12.515   7.111  10.956 -0.2610 -0.3675  0.5318
59675SOL    HW183836  12.603   7.144  10.939 -0.4351 -0.1247  0.1005
59675SOL    HW283837  12.511   7.102  11.052 -0.6520  2.0850  0.7961
59676SOL     OW83838   7.535  10.460   5.180  0.0700  0.0639 -0.3158
59676SOL    HW183839   7.457  10.483   5.230 -0.4563 -0.3716 -0.9227
59676SOL    HW283840   7.606  10.465   5.243 -0.4693  0.3088  0.2822
59677SOL     OW83841   2.477   2.036   4.235  0.5631  0.2524  0.0592
59677SOL    HW183842   2.485   1.994   4.320  2.8587 -1.1242 -0.7193
59677SOL    HW283843   2.453   2.127   4.254  0.3566 -0.1828  2.0937
59678SOL     OW83844  12.291   3.883   6.705  0.3294 -0.4741  0.4570
59678SOL    HW183845  12.238   3.853   6.779  0.0283  1.3208  1.0091
59678SOL    HW283846  12.256   3.969   6.683  0.6087 -0.8310 -1.6096
59679SOL     OW83847   7.370   1.459   8.351 -0.0670 -0.3317 -0.9022
59679SOL    HW183848   7.420   1.384   8.383  0.5364  0.8686  1.2094
59679SOL    HW283849   7.424   1.495   8.281  0.5232 -0.8292 -0.7143
59680SOL     OW83850   7.169   5.771  10.486 -0.1901 -0.0342  0.2559
59680SOL    HW183851   7.225   5.818  10.549  0.9110 -0.2567 -0.5318
59680SOL    HW283852   7.142   5.839  10.424  1.6456 -0.4128 -1.0564
59681SOL     OW83853  11.401   9.982   2.818 -0.0460 -0.4983  0.4176
59681SOL    HW183854  11.430  10.066   2.783 -0.5969  0.5901  2.4391
59681SOL    HW283855  11.337  10.004   2.885  0.7464 -2.4571  1.9263
59682SOL     OW83856   2.650   4.936   6.343 -0.1442 -0.2206  0.0490
59682SOL    HW183857   2.658   4.921   6.437 -2.1272 -0.3014  0.2534
59682SOL    HW283858   2.740   4.933   6.310  0.7135  1.0767  2.1086
59683SOL     OW83859   7.894   3.704   8.243  0.1625  0.3353  0.0972
59683SOL    HW183860   7.916   3.770   8.308  0.6964 -1.0234  1.3687
59683SOL    HW283861   7.917   3.621   8.285 -0.8722 -0.6919 -1.2673
59684SOL     OW83862  10.618   3.642   7.686  0.5288  0.0181  0.2752
59684SOL    HW183863  10.540   3.612   7.732  1.0432 -2.5976 -0.3736
59684SOL    HW283864  10.589   3.655   7.595  0.3323  1.5652  0.5299
59685SOL     OW83865   2.267   5.385   5.275 -0.4942 -0.0114 -0.1973
59685SOL    HW183866   2.302   5.463   5.231  0.6937 -1.6559 -2.3118
59685SOL    HW283867   2.318   5.379   5.356 -1.3520  1.9647  0.5651
59686SOL     OW83868   0.741   5.644  10.319  0.1838 -0.4179  0.1251
59686SOL    HW183869   0.771   5.630  10.409 -0.9168 -0.1975  0.5315
59686SOL    HW283870   0.691   5.726  10.322 -0.0888 -0.5436 -0.6333
59687SOL     OW83871  10.617   8.635   5.433  0.4572 -0.0032  0.0678
59687SOL    HW183872  10.540   8.654   5.380  1.4818  2.1362 -0.7548
59687SOL    HW283873  10.584   8.577   5.502 -1.8263  0.6133 -0.4110
59688SOL     OW83874  10.030   6.155   3.674 -0.0550  0.1584 -0.0891
59688SOL    HW183875  10.101   6.160   3.738 -1.3012  2.6569  1.2548
59688SOL    HW283876  10.052   6.220   3.607 -1.7896  2.3187  1.2803
59689SOL     OW83877   3.507   8.853   4.021  0.1746  0.0947  0.8140
59689SOL    HW183878   3.432   8.812   4.064 -0.9383  0.1497 -0.9776
59689SOL    HW283879   3.483   8.945   4.014  0.0017 -0.0394 -0.5441
59690SOL     OW83880  11.210   2.156   9.160 -0.0986  0.3023 -0.3637
59690SOL    HW183881  11.133   2.099   9.159  1.4462 -2.0258 -3.4974
59690SOL    HW283882  11.247   2.144   9.247 -0.8268 -2.1388 -0.3116
59691SOL     OW83883  10.879   6.531  12.338  0.0548  0.1065 -0.3104
59691SOL    HW183884  10.788   6.555  12.357 -0.1008  0.4192 -1.3909
59691SOL    HW283885  10.905   6.590  12.267 -0.0833 -2.3834 -2.5778
59692SOL     OW83886   4.638  11.068   9.609  0.1621 -0.0672 -0.0640
59692SOL    HW183887   4.635  10.980   9.648  2.8732  0.1024  0.7164
59692SOL    HW283888   4.549  11.083   9.578 -0.9816 -2.1239  1.9105
59693SOL     OW83889   9.362   7.102   7.447  0.4393  0.0676  0.0825
59693SOL    HW183890   9.374   7.143   7.362 -0.3974 -0.2749 -0.2090
59693SOL    HW283891   9.434   7.039   7.454 -0.1595 -0.7479 -0.8876
59694SOL     OW83892   9.056   4.617   7.982 -0.4371  0.1592  0.4997
59694SOL    HW183893   9.080   4.525   7.981 -0.0128  0.2672  0.7301
59694SOL    HW283894   8.960   4.617   7.991 -0.3452 -0.2416  1.5636
59695SOL     OW83895   3.775   6.568  11.261  0.4346 -0.6895 -0.0014
59695SOL    HW183896   3.705   6.633  11.265  1.6927  0.6356  1.4558
59695SOL    HW283897   3.728   6.484  11.258 -1.2272  0.2017 -2.3809
59696SOL     OW83898   6.649  10.449   3.818 -0.9997 -0.1830 -0.2930
59696SOL    HW183899   6.564  10.413   3.847 -1.5773  1.8977  0.8477
59696SOL    HW283900   6.665  10.522   3.878  2.2998 -1.3058  0.4012
59697SOL     OW83901   5.264   8.314   1.132  0.3967 -0.0246  0.2484
59697SOL    HW183902   5.302   8.358   1.056  0.3345 -2.0971 -1.0875
59697SOL    HW283903   5.210   8.380   1.174  1.4526  1.5443 -0.7679
59698SOL     OW83904   1.344  12.074   2.123  0.6163  0.4545  0.1247
59698SOL    HW183905   1.362  12.149   2.066  1.9795  0.4132  0.4618
59698SOL    HW283906   1.276  12.025   2.077 -1.6371  2.7950  0.7534
59699SOL     OW83907   9.341   8.485   7.888 -0.5819 -0.3572  0.0976
59699SOL    HW183908   9.247   8.501   7.880 -0.5432 -0.6855 -1.2168
59699SOL    HW283909   9.374   8.559   7.938 -1.1596  1.1624 -1.6631
59700SOL     OW83910   4.889   7.906   8.727  0.2940  0.0360 -0.7657
59700SOL    HW183911   4.959   7.852   8.765  1.2786 -0.5336 -3.1702
59700SOL    HW283912   4.934   7.963   8.665 -1.0562  1.8927 -0.1361
59701SOL     OW83913   1.526  10.829   1.574 -0.5929  0.2590 -0.2020
59701SOL    HW183914   1.521  10.902   1.636 -1.9857 -0.4133  0.5249
59701SOL    HW283915   1.439  10.790   1.577 -0.0864 -0.9882 -1.1403
59702SOL     OW83916   8.641   8.387   1.759  0.1450 -0.0734 -0.0593
59702SOL    HW183917   8.605   8.362   1.845  0.4247 -0.3436 -0.0189
59702SOL    HW283918   8.609   8.319   1.700  0.7123 -0.4053  0.0053
59703SOL     OW83919   7.005   7.781   9.726  0.0400 -0.0114  0.2708
59703SOL    HW183920   6.928   7.753   9.676  0.1118  1.1680 -0.5358
59703SOL    HW283921   7.058   7.702   9.733 -1.8042 -1.1989  1.9739
59704SOL     OW83922   0.466   7.545   5.155  0.4411  0.0097 -0.2957
59704SOL    HW183923   0.402   7.475   5.140  0.5846 -0.2571  0.3080
59704SOL    HW283924   0.532   7.505   5.211  0.5610  0.6089 -0.0060
59705SOL     OW83925   7.519   0.834   6.922 -0.4300 -0.6056 -0.0542
59705SOL    HW183926   7.543   0.749   6.887  0.0939 -0.9465  1.0950
59705SOL    HW283927   7.593   0.860   6.977 -0.7857  0.3682 -0.0125
59706SOL     OW83928   9.461   1.784   3.622  0.4428 -0.0548 -0.2736
59706SOL    HW183929   9.531   1.807   3.560  0.7897  1.4889  0.6229
59706SOL    HW283930   9.487   1.828   3.704 -1.2994  0.0888  0.2343
59707SOL     OW83931  10.514   1.566   6.733 -0.2940  0.1234  0.4406
59707SOL    HW183932  10.484   1.476   6.750  0.5327 -0.0531  0.9831
59707SOL    HW283933  10.440   1.607   6.687 -0.4415 -1.0169 -0.3987
59708SOL     OW83934  11.801   2.190   6.057 -0.1273 -0.1002 -0.2051
59708SOL    HW183935  11.806   2.235   6.142 -1.0691  0.5228 -0.4522
59708SOL    HW283936  11.732   2.125   6.069 -0.7015  0.4163 -0.6710
59709SOL     OW83937   8.118   9.224   6.485 -0.1291  0.4905  0.3598
59709SOL    HW183938   8.115   9.189   6.574  0.9809 -4.0095 -1.1070
59709SOL    HW283939   8.211   9.229   6.464 -0.3845  0.7685 -0.7798
59710SOL     OW83940   8.375   9.254   9.389 -0.1774  0.1048 -0.0168
59710SOL    HW183941   8.467   9.276   9.375  0.2753 -1.0880  0.9359
59710SOL    HW283942   8.357   9.284   9.479 -0.5056 -0.3166  0.0611
59711SOL     OW83943   6.233   6.372   4.234 -0.2748  0.0749  0.0339
59711SOL    HW183944   6.295   6.306   4.265  0.1315  0.3786 -0.1208
59711SOL    HW283945   6.207   6.341   4.148 -0.6230 -0.2414  0.2485
59712SOL     OW83946  10.218   0.685   1.150  0.0757 -0.3757  0.2922
59712SOL    HW183947  10.234   0.767   1.104 -0.5512 -1.4199 -1.8841
59712SOL    HW283948  10.206   0.712   1.242 -0.0326  1.9414 -0.3293
59713SOL     OW83949   3.047   1.019  11.708  0.3845 -0.1513 -0.2969
59713SOL    HW183950   2.953   1.016  11.726  0.1914  3.5467  0.2203
59713SOL    HW283951   3.053   1.065  11.624  1.6524  2.2059  0.9571
59714SOL     OW83952   3.834   7.901   1.219 -0.6055  0.0606 -0.0703
59714SOL    HW183953   3.797   7.818   1.188 -0.6727  0.5602 -1.3831
59714SOL    HW283954   3.769   7.933   1.282 -2.0751  0.5269 -1.7349
59715SOL     OW83955  11.342   9.463   1.075  0.4564 -0.3410  0.9742
59715SOL    HW183956  11.322   9.478   0.983 -2.4446 -1.9828  1.1954
59715SOL    HW283957  11.298   9.535   1.121  2.6737  1.0012  1.1018
59716SOL     OW83958   9.517  11.213   5.515  0.3981 -0.2845  0.0781
59716SOL    HW183959   9.470  11.162   5.581 -0.1478 -2.4835 -1.8743
59716SOL    HW283960   9.459  11.213   5.439  2.0852 -0.0675 -1.2621
59717SOL     OW83961   7.629   4.107   5.800  0.1980 -0.2723 -0.1721
59717SOL    HW183962   7.608   4.013   5.803 -1.4520  0.0408 -0.6735
59717SOL    HW283963   7.614   4.138   5.889 -1.8465 -0.0265 -0.5447
59718SOL     OW83964   5.539   6.155   2.203 -0.0686 -0.2588 -0.4091
59718SOL    HW183965   5.540   6.111   2.288 -0.3283 -0.4698 -0.5150
59718SOL    HW283966   5.632   6.160   2.178  0.0531  0.2838  0.1314
59719SOL     OW83967   7.520  10.403   0.614 -0.0521  0.4463 -0.1369
59719SOL    HW183968   7.494  10.485   0.572 -0.0149 -0.4513 -1.9810
59719SOL    HW283969   7.600  10.377   0.568 -0.8622 -1.3656 -0.5647
59720SOL     OW83970   3.833   0.099   5.876 -0.3874  0.6509  0.4508
59720SOL    HW183971   3.834   0.004   5.886  0.6028  0.7473  1.4508
59720SOL    HW283972   3.818   0.112   5.782  1.3399 -0.5539 -0.0667
59721SOL     OW83973   5.363   6.357   5.278 -0.5381  0.8121 -0.5216
59721SOL    HW183974   5.310   6.296   5.227  1.0409 -0.5951 -0.5616
59721SOL    HW283975   5.452   6.323   5.271 -0.0398  1.4197  1.9607
59722SOL     OW83976   5.593  10.741   0.263 -0.1532  0.1723 -0.2043
59722SOL    HW183977   5.534  10.804   0.302  1.0416  1.2081 -0.0071
59722SOL    HW283978   5.541  10.661   0.253 -1.9788  1.4510 -1.3614
59723SOL     OW83979   4.125   5.501   0.580 -0.2658 -0.4201  0.2012
59723SOL    HW183980   4.139   5.564   0.510  0.1341  0.8659  1.3933
59723SOL    HW283981   4.040   5.462   0.561 -0.0947 -0.1937 -1.0614
59724SOL     OW83982   3.350   5.815   4.587  0.5276  0.5310  0.2353
59724SOL    HW183983   3.263   5.779   4.603  1.1778 -0.4648  1.7730
59724SOL    HW283984   3.410   5.747   4.617  1.8345  1.6564  0.2835
59725SOL     OW83985   3.810   8.365   9.526  0.2989  0.0262  0.0720
59725SOL    HW183986   3.786   8.410   9.445  0.7456  1.2865  0.6133
59725SOL    HW283987   3.809   8.434   9.593 -0.2309 -1.0155  1.1845
59726SOL     OW83988   4.366   0.901   7.139  0.0563  0.1228  0.1590
59726SOL    HW183989   4.412   0.857   7.210  1.8705 -0.2179 -1.1496
59726SOL    HW283990   4.279   0.921   7.175  0.5325 -1.0059  2.0751
59727SOL     OW83991   3.003  10.836   7.107  0.2484 -0.5945  0.1651
59727SOL    HW183992   2.934  10.771   7.091  0.1241 -0.2762 -0.6838
59727SOL    HW283993   3.051  10.840   7.024 -0.0543  0.7398  0.0188
59728SOL     OW83994   3.196  12.290   8.132 -0.2271  0.2075  0.3558
59728SOL    HW183995   3.193  12.319   8.223  2.4577 -0.4118  0.7275
59728SOL    HW283996   3.259  12.218   8.132 -0.9045 -0.4507 -1.8424
59729SOL     OW83997   6.054   5.128   4.589  0.2987  0.2682 -0.1863
59729SOL    HW183998   5.974   5.168   4.556 -0.2473  0.3825  1.2189
59729SOL    HW283999   6.025   5.045   4.626  1.1967 -0.7846 -1.7067
59730SOL     OW84000   5.528   4.207  12.361 -0.0824 -0.4931 -0.3367
59730SOL    HW184001   5.481   4.150  12.300  0.9396 -0.6391 -1.0006
59730SOL    HW284002   5.614   4.220  12.321 -0.8944  3.1477 -1.2372
59731SOL     OW84003   8.054   4.527   1.712 -0.3457 -0.3000 -0.0928
59731SOL    HW184004   7.985   4.489   1.658 -0.5321 -0.0421 -0.0375
59731SOL    HW284005   8.129   4.468   1.700 -0.9698 -1.3277  0.8844
59732SOL     OW84006   3.665   7.328  12.396 -0.2987 -0.3620 -0.4519
59732SOL    HW184007   3.635   7.337  12.486  0.1853  1.1144 -0.4150
59732SOL    HW284008   3.627   7.402  12.349  2.8922  1.4383 -0.4672
59733SOL     OW84009   4.606   8.208  11.791  0.0376  0.2164 -0.1090
59733SOL    HW184010   4.668   8.237  11.724  1.1947 -0.3754  0.6833
59733SOL    HW284011   4.551   8.285  11.807  1.3811  1.1691  0.0819
59734SOL     OW84012   7.239  10.151   1.130 -0.3482 -0.2234 -0.4245
59734SOL    HW184013   7.185  10.185   1.059  0.7857  1.8375 -0.3574
59734SOL    HW284014   7.184  10.083   1.171 -1.9248  0.1553 -1.7955
59735SOL     OW84015   5.448  11.199   3.609  0.5933 -0.5057  0.4552
59735SOL    HW184016   5.491  11.153   3.536 -1.4300 -0.4859 -0.8300
59735SOL    HW284017   5.372  11.241   3.570  0.1716  0.6477  2.3667
59736SOL     OW84018   5.858   0.249   4.787 -0.6265  0.2939 -0.4587
59736SOL    HW184019   5.764   0.265   4.783 -0.6493 -0.0398 -2.8556
59736SOL    HW284020   5.868   0.179   4.852 -2.0975 -0.0265 -0.5445
59737SOL     OW84021   6.249   4.478   2.404 -0.3090 -0.2574 -0.2540
59737SOL    HW184022   6.161   4.449   2.384 -0.6341 -0.2830  1.0728
59737SOL    HW284023   6.261   4.455   2.497  1.7196 -1.8351 -0.8342
59738SOL     OW84024   0.068   7.494  10.091  0.0845  0.3563  0.8014
59738SOL    HW184025   0.040   7.569  10.039 -0.4025 -0.4261 -0.0944
59738SOL    HW284026   0.111   7.436  10.028  0.5538 -0.0697  1.5028
59739SOL     OW84027   3.937  11.533   3.695  0.2051 -0.1410  0.1736
59739SOL    HW184028   3.933  11.571   3.607  1.4507 -0.4783 -0.0543
59739SOL    HW284029   3.859  11.566   3.739  0.5320  1.5688 -0.4516
59740SOL     OW84030  10.360   9.443   5.461  0.3984 -0.0559  0.0444
59740SOL    HW184031  10.317   9.360   5.480 -1.7496  0.8229 -0.6952
59740SOL    HW284032  10.390   9.475   5.546 -2.9224  0.5535  1.1229
59741SOL     OW84033   2.716   4.255  12.212  0.3716  0.0641  0.0715
59741SOL    HW184034   2.674   4.336  12.240  1.1814  0.2228  0.8908
59741SOL    HW284035   2.667   4.186  12.257  1.5642  0.3064  1.8867
59742SOL     OW84036  11.377   6.527   5.928  0.2607 -0.1138  0.5723
59742SOL    HW184037  11.408   6.443   5.963  1.2962 -0.8524 -1.8582
59742SOL    HW284038  11.456   6.568   5.893 -0.1513  2.1487  2.0948
59743SOL     OW84039   3.007   6.767  11.316 -0.6018 -0.5415 -0.6417
59743SOL    HW184040   3.093   6.785  11.353  0.5764 -2.3944 -2.2741
59743SOL    HW284041   2.946   6.782  11.388  0.9177  2.0035  0.2317
59744SOL     OW84042  11.360   1.859   7.714 -0.2969  0.0267  0.4249
59744SOL    HW184043  11.405   1.804   7.778  1.3899  0.4227 -0.3530
59744SOL    HW284044  11.423   1.927   7.692 -1.0398  0.2531 -1.2057
59745SOL     OW84045   4.367   5.029  10.216 -0.7135 -0.4894  0.2231
59745SOL    HW184046   4.299   5.069  10.270 -0.1493  0.1239  0.4847
59745SOL    HW284047   4.332   5.032  10.127 -1.6935 -1.5931  0.5466
59746SOL     OW84048  10.652   6.654  10.138  0.2918 -0.4156  0.4022
59746SOL    HW184049  10.620   6.598  10.208  0.7761 -0.2290  0.7707
59746SOL    HW284050  10.722   6.705  10.177  2.4866 -2.2528 -0.8926
59747SOL     OW84051   0.483  11.765   3.320  0.0454  0.4502  0.2587
59747SOL    HW184052   0.488  11.713   3.400  1.3964  0.9082  0.4889
59747SOL    HW284053   0.561  11.819   3.321 -0.7870  1.7304 -0.5169
59748SOL     OW84054  11.343   1.595   3.778 -0.6929 -1.0686 -0.5783
59748SOL    HW184055  11.332   1.524   3.714  1.8948 -1.7269 -0.4133
59748SOL    HW284056  11.427   1.634   3.756 -1.0178  0.4985  0.7644
59749SOL     OW84057   9.560   0.534   6.820  0.1912  0.2426 -0.2727
59749SOL    HW184058   9.574   0.626   6.795 -0.0840  0.1717 -0.7127
59749SOL    HW284059   9.634   0.487   6.783  0.3278  0.2864 -0.0543
59750SOL     OW84060   8.307   7.761   6.677 -0.4846 -0.1728  0.1871
59750SOL    HW184061   8.293   7.682   6.624  1.5658 -0.1943 -0.3782
59750SOL    HW284062   8.332   7.728   6.764 -0.0943 -0.1479  0.0848
59751SOL     OW84063   7.828   3.377   5.604 -0.5835  0.6411 -0.0937
59751SOL    HW184064   7.850   3.423   5.523 -0.4827 -1.3414 -1.2521
59751SOL    HW284065   7.812   3.447   5.667 -0.6650  2.2653 -1.8088
59752SOL     OW84066  12.150   5.072  12.275 -0.1219  0.4668 -0.3080
59752SOL    HW184067  12.139   5.037  12.187 -0.0110 -0.2338 -0.0555
59752SOL    HW284068  12.111   5.159  12.272 -0.7809  0.1628 -0.8578
59753SOL     OW84069   9.315   8.018   7.770 -0.3536 -0.2229  0.0261
59753SOL    HW184070   9.323   7.967   7.850 -0.5513  1.2430  1.0145
59753SOL    HW284071   9.221   8.031   7.759 -0.2670  1.3073  0.7382
59754SOL     OW84072  10.419   2.961   3.473 -0.2179 -0.2544  0.0798
59754SOL    HW184073  10.468   2.992   3.550 -1.3535  0.8794  0.3829
59754SOL    HW284074  10.486   2.934   3.411  0.7362 -1.1781  1.4484
59755SOL     OW84075  11.756   2.873   3.835 -0.0325 -0.0517  0.2207
59755SOL    HW184076  11.723   2.813   3.768  1.5744  0.2443 -0.8945
59755SOL    HW284077  11.779   2.817   3.908  1.5950 -0.8650 -0.8628
59756SOL     OW84078   1.789  11.451   2.151  0.1363  0.3943 -0.1614
59756SOL    HW184079   1.762  11.519   2.212  1.0719  1.1024 -0.5245
59756SOL    HW284080   1.708  11.428   2.104 -1.1478 -1.7656  2.7959
59757SOL     OW84081  12.264   4.808   1.104  0.8471  0.9816 -0.0180
59757SOL    HW184082  12.266   4.868   1.178  1.1522  1.0987 -0.1241
59757SOL    HW284083  12.216   4.856   1.036 -0.3609  0.4874  0.4418
59758SOL     OW84084   6.543   9.948   3.394 -0.1300  0.2543  0.2980
59758SOL    HW184085   6.530   9.926   3.302  1.3912  0.4094  0.0216
59758SOL    HW284086   6.457   9.977   3.424 -1.0328 -1.3303 -0.6329
59759SOL     OW84087   5.739   3.439  12.576 -0.1556  0.2425  0.3770
59759SOL    HW184088   5.702   3.528  12.574  0.4837  0.5861 -3.2172
59759SOL    HW284089   5.711   3.400  12.493  1.2714 -2.1964  0.9610
59760SOL     OW84090  10.387   3.165   1.190 -0.5822  0.3685  0.2921
59760SOL    HW184091  10.375   3.097   1.123 -1.0347 -0.4684  1.1988
59760SOL    HW284092  10.341   3.241   1.156 -0.7280 -0.0168 -0.3897
59761SOL     OW84093   0.615  10.204   1.409 -0.8523  0.2566  0.6429
59761SOL    HW184094   0.666  10.262   1.352  1.1075  0.1431  2.1790
59761SOL    HW284095   0.575  10.262   1.474 -1.4815  0.1913  0.3190
59762SOL     OW84096  12.507  10.651   6.775  0.1720 -0.5165  0.3677
59762SOL    HW184097  12.434  10.709   6.797  0.6779  0.2304  0.1098
59762SOL    HW284098  12.577  10.675   6.836 -0.2605 -2.2525  1.6354
59763SOL     OW84099   0.280  10.023   5.821  0.4168  0.3273 -0.4673
59763SOL    HW184100   0.272  10.097   5.881  1.5699 -0.8254  1.1888
59763SOL    HW284101   0.191  10.005   5.793 -0.0112  1.5972 -0.0066
59764SOL     OW84102   0.176  11.359   5.179 -0.1122  0.6195 -0.0042
59764SOL    HW184103   0.193  11.265   5.186  1.5889  0.8403 -0.5464
59764SOL    HW284104   0.085  11.365   5.150 -0.5198 -0.8188  0.8697
59765SOL     OW84105   5.402   8.543  12.255 -0.2553  0.2006  0.4007
59765SOL    HW184106   5.342   8.487  12.304 -0.4954 -0.1084 -0.2330
59765SOL    HW284107   5.489   8.518  12.287 -0.4544  0.7565  1.4318
59766SOL     OW84108   6.146   9.141   9.905  0.5401  0.0100 -0.3028
59766SOL    HW184109   6.235   9.155   9.937 -0.0186  0.7716  0.9736
59766SOL    HW284110   6.155   9.070   9.840  2.6429  2.4825 -3.0116
59767SOL     OW84111   4.401  12.179   1.551  0.4868  0.3088  0.0878
59767SOL    HW184112   4.377  12.207   1.640 -1.3502  0.4523 -0.4121
59767SOL    HW284113   4.393  12.258   1.498 -0.5440 -0.2064 -0.5653
59768SOL     OW84114  12.068   6.599   8.824  0.3191 -0.2582 -0.2166
59768SOL    HW184115  11.973   6.587   8.821  0.2797  0.2736 -1.6323
59768SOL    HW284116  12.098   6.586   8.734  1.2068  2.3264 -0.3962
59769SOL     OW84117  11.455  11.316   0.053 -0.3252 -0.0299  0.0900
59769SOL    HW184118  11.432  11.232   0.091 -0.9216  0.2495  0.3564
59769SOL    HW284119  11.525  11.350   0.110 -1.0401  0.2734  0.8068
59770SOL     OW84120  12.498   0.695  12.213 -0.3330  0.4999  0.1798
59770SOL    HW184121  12.504   0.603  12.189  0.7480  0.7211 -0.4896
59770SOL    HW284122  12.425   0.700  12.274  0.7315 -1.1111  1.6738
59771SOL     OW84123   3.212   6.571   4.253 -0.0863  0.1200 -0.0699
59771SOL    HW184124   3.218   6.495   4.196  2.4947 -0.5540  0.9438
59771SOL    HW284125   3.119   6.583   4.268 -0.6327 -1.8962 -1.4663
59772SOL     OW84126   9.923   2.666   1.419  0.2340 -0.3292 -0.5107
59772SOL    HW184127   9.863   2.693   1.489  0.6651  0.7641 -0.5451
59772SOL    HW284128   9.981   2.602   1.461  0.7132  0.5790  0.2544
59773SOL     OW84129  11.961   7.817   5.101  0.1424  0.4787 -0.2154
59773SOL    HW184130  11.960   7.721   5.107 -1.5316  0.4911  0.4198
59773SOL    HW284131  11.960   7.847   5.192 -0.9530  1.0441 -0.3887
59774SOL     OW84132   9.638   6.866   0.670 -0.4755  0.4432 -0.3723
59774SOL    HW184133   9.625   6.774   0.691 -2.2472  0.7639  0.0571
59774SOL    HW284134   9.565   6.889   0.612  1.1777  1.0407 -2.3740
59775SOL     OW84135  12.296   7.828   3.926  0.4770  0.1099 -0.1724
59775SOL    HW184136  12.369   7.881   3.958  0.2062 -0.6523  1.8534
59775SOL    HW284137  12.321   7.804   3.836  3.1032 -0.7778  0.7015
59776SOL     OW84138   3.234   8.774   4.378  0.4643  0.8158  0.0225
59776SOL    HW184139   3.322   8.777   4.417 -0.1976 -0.5401  1.7490
59776SOL    HW284140   3.246   8.729   4.295  1.1690 -1.0267  1.0807
59777SOL     OW84141   1.287   4.308  10.993  0.1789  0.1452  0.1613
59777SOL    HW184142   1.226   4.243  10.960  0.9150 -1.3530  1.6055
59777SOL    HW284143   1.355   4.315  10.926  0.1226 -0.6331  0.0198
59778SOL     OW84144   7.052   3.118   4.253 -0.9668 -0.0123 -0.3938
59778SOL    HW184145   6.960   3.090   4.261  0.0367 -3.5942  0.4412
59778SOL    HW284146   7.081   3.083   4.169  0.2545 -1.3152  0.5082
59779SOL     OW84147   4.097  10.776   1.977 -0.0316  0.0403 -0.7460
59779SOL    HW184148   4.091  10.684   1.951 -0.3622  0.2733 -1.5058
59779SOL    HW284149   4.109  10.772   2.072 -1.4190 -0.7689 -0.5667
59780SOL     OW84150   0.762   5.454   6.530  0.1348 -0.5834  0.0316
59780SOL    HW184151   0.807   5.372   6.553  0.3311 -0.2246  0.9397
59780SOL    HW284152   0.687   5.457   6.589 -1.4657 -1.4592 -1.8383
59781SOL     OW84153  11.141   5.684   6.139  0.2428 -0.2376 -0.5415
59781SOL    HW184154  11.079   5.700   6.210  0.2511 -0.9120 -0.3763
59781SOL    HW284155  11.161   5.591   6.145  1.2207 -0.0449 -0.6349
59782SOL     OW84156   8.896   9.767   4.667  0.0972 -0.6044 -0.1722
59782SOL    HW184157   8.877   9.741   4.757  1.1968 -0.0202  0.2512
59782SOL    HW284158   8.877   9.861   4.664  0.0202 -0.6314 -0.5594
59783SOL     OW84159   4.420   0.032   1.415 -0.2563  0.5964  0.5377
59783SOL    HW184160   4.416   0.122   1.383 -1.4187 -0.2958 -2.1319
59783SOL    HW284161   4.410   0.039   1.510  0.5880  3.3033  0.5069
59784SOL     OW84162   9.587   7.927   7.731 -0.0546 -0.4429 -0.2689
59784SOL    HW184163   9.619   7.978   7.656 -0.0433  1.9733  1.2708
59784SOL    HW284164   9.493   7.943   7.733 -0.0917 -0.6775  0.1115
59785SOL     OW84165   6.788   9.127   3.361 -0.5447  0.2202  0.1905
59785SOL    HW184166   6.803   9.195   3.295  0.9543 -2.4942 -2.5040
59785SOL    HW284167   6.874   9.086   3.372 -1.2913 -0.9316  2.1597
59786SOL     OW84168   8.421   1.837  11.095 -0.0961 -0.6451  0.1221
59786SOL    HW184169   8.349   1.884  11.137  1.3654  2.2476 -0.3136
59786SOL    HW284170   8.495   1.849  11.155  0.4715 -1.9627 -0.2963
59787SOL     OW84171  12.612  10.151  10.553 -1.1437 -0.5560  0.0227
59787SOL    HW184172  12.701  10.130  10.525 -1.0941  0.0002 -0.2515
59787SOL    HW284173  12.557  10.128  10.478 -1.3029 -1.4024  0.3826
59788SOL     OW84174   5.323   3.205  11.364 -0.3376 -0.2431 -0.1135
59788SOL    HW184175   5.317   3.203  11.268  0.8792 -1.0970 -0.1845
59788SOL    HW284176   5.362   3.290  11.384 -1.6201  0.4224 -0.2797
59789SOL     OW84177   4.620   3.916  12.492  0.6673  0.1023  0.1120
59789SOL    HW184178   4.698   3.903  12.546  0.5212 -0.4137  0.1993
59789SOL    HW284179   4.646   3.984  12.429  0.2866  2.0215  1.9166
59790SOL     OW84180   8.859   3.536   3.749  0.4523  0.6839 -0.3509
59790SOL    HW184181   8.948   3.502   3.761  0.3319 -0.3990 -2.1754
59790SOL    HW284182   8.854   3.611   3.807  3.0059  1.5391 -1.1016
59791SOL     OW84183   7.394   8.226  11.033 -0.0094 -0.1794 -0.1367
59791SOL    HW184184   7.474   8.225  11.085  0.2904  0.7254 -0.5642
59791SOL    HW284185   7.325   8.202  11.095  0.4275  0.2217  0.5191
59792SOL     OW84186   7.140   5.107  11.219 -0.5715  0.0978 -0.0258
59792SOL    HW184187   7.089   5.188  11.227  0.3226  0.7419 -0.7653
59792SOL    HW284188   7.228   5.131  11.248 -0.4589 -0.7982  0.4110
59793SOL     OW84189   5.724   7.828   9.634 -0.5092  0.2883 -0.8575
59793SOL    HW184190   5.705   7.827   9.540 -0.8006 -3.5483 -0.9419
59793SOL    HW284191   5.652   7.879   9.672 -1.5777  0.1706 -2.5862
59794SOL     OW84192   9.549   1.454   0.490 -0.1970  0.0828 -0.2872
59794SOL    HW184193   9.515   1.441   0.578 -1.4087  0.1130 -0.7223
59794SOL    HW284194   9.568   1.366   0.458  0.3880  0.0838  0.0536
59795SOL     OW84195   8.157  11.752   4.659  0.3170 -0.5806  0.1398
59795SOL    HW184196   8.200  11.778   4.741  2.6795 -0.1261 -1.1760
59795SOL    HW284197   8.098  11.681   4.686 -1.3683  1.5588  2.7109
59796SOL     OW84198   6.134   3.866   5.858 -0.0403 -0.0661  0.3643
59796SOL    HW184199   6.048   3.831   5.835  0.6616 -1.6423  0.0276
59796SOL    HW284200   6.164   3.911   5.779  0.8139 -2.3665 -0.7106
59797SOL     OW84201  12.279   1.444   2.334 -0.1805 -0.6262  0.7348
59797SOL    HW184202  12.211   1.415   2.395 -0.3356 -0.5137  0.6164
59797SOL    HW284203  12.255   1.534   2.313  0.3577 -0.3728  1.1888
59798SOL     OW84204  10.159  11.185   8.796 -0.1365 -0.3239 -0.8825
59798SOL    HW184205  10.088  11.238   8.761 -0.5056  1.1299  1.7896
59798SOL    HW284206  10.227  11.249   8.819  0.5068 -1.2881 -0.0314
59799SOL     OW84207   9.623   4.635   6.867  1.0711  0.0589  0.1488
59799SOL    HW184208   9.613   4.607   6.958 -0.8251  0.5806  0.1541
59799SOL    HW284209   9.543   4.684   6.848  1.9425  0.9710 -1.4550
59800SOL     OW84210   6.491   4.944   7.283  0.0801  0.1936 -0.5134
59800SOL    HW184211   6.579   4.947   7.246 -0.3647 -1.6432 -1.9084
59800SOL    HW284212   6.461   4.855   7.266 -2.2545  0.9119 -0.5493
59801SOL     OW84213   5.229  10.691   4.500 -0.3079 -0.3513  0.4934
59801SOL    HW184214   5.268  10.684   4.587  1.6710 -0.8872 -0.4053
59801SOL    HW284215   5.150  10.744   4.514  0.2066 -0.0489  2.5286
59802SOL     OW84216  11.363  11.473   6.892  0.1958 -0.2377  0.1545
59802SOL    HW184217  11.310  11.396   6.913 -0.9867  0.1904 -1.1855
59802SOL    HW284218  11.353  11.530   6.969 -1.0487 -0.2964  0.0575
59803SOL     OW84219   6.660   3.000   1.575  0.3832  1.1340 -0.2239
59803SOL    HW184220   6.733   2.957   1.530 -0.3853 -2.1183  1.3615
59803SOL    HW284221   6.584   2.980   1.521  0.1016  1.0515  0.2010
59804SOL     OW84222   6.777  11.347   2.701  0.1849 -0.0057  0.2633
59804SOL    HW184223   6.802  11.439   2.694 -0.6929  0.3658  1.6719
59804SOL    HW284224   6.807  11.308   2.619  0.2404  1.5998 -0.5171
59805SOL     OW84225   0.024   5.937   2.137  0.2208 -0.4354 -0.1761
59805SOL    HW184226   0.040   5.858   2.084  1.1327 -1.1868  1.1824
59805SOL    HW284227   0.095   5.938   2.201  0.5220  1.7962 -0.4876
59806SOL     OW84228  10.775   7.479  10.523 -0.7909  0.0858 -0.1135
59806SOL    HW184229  10.815   7.486  10.436 -0.4987  0.0695  0.0185
59806SOL    HW284230  10.819   7.404  10.563  0.4858  1.2472  0.7793
59807SOL     OW84231   2.467   1.690   7.680 -0.1136 -0.1027  0.5124
59807SOL    HW184232   2.471   1.695   7.776 -3.7172  1.5333  0.7288
59807SOL    HW284233   2.509   1.771   7.651 -2.4496  1.3936  1.0203
59808SOL     OW84234   9.593   4.255   0.226  0.0960  0.4480 -0.5780
59808SOL    HW184235   9.652   4.314   0.274  0.7044  0.0548 -0.8306
59808SOL    HW284236   9.509   4.301   0.226  0.5588  1.3188 -0.7681
59809SOL     OW84237   0.970   7.710   0.676  0.3889 -0.3760  0.7405
59809SOL    HW184238   0.933   7.763   0.605  0.5601 -1.8310 -0.4979
59809SOL    HW284239   0.894   7.684   0.728  0.3274  1.2146  1.4919
59810SOL     OW84240   7.321   9.957  11.756  0.1187 -0.1664  0.4888
59810SOL    HW184241   7.350  10.033  11.806  1.0226 -1.6002  2.2893
59810SOL    HW284242   7.391   9.893  11.767 -0.8517 -1.4734 -0.5184
59811SOL     OW84243   3.044  10.040   5.653 -0.2246 -0.4191  0.0235
59811SOL    HW184244   3.100   9.983   5.706 -0.6586 -0.1804  0.7445
59811SOL    HW284245   3.086  10.126   5.660  0.1670 -0.5485 -0.6813
59812SOL     OW84246   4.875   1.471  10.061  0.9686 -0.8843  0.5070
59812SOL    HW184247   4.944   1.531  10.089  0.4597 -0.2013  0.3207
59812SOL    HW284248   4.919   1.410  10.002  1.4771 -0.6495  0.6407
59813SOL     OW84249   8.865   0.101   9.097 -0.0638 -0.2544  0.0063
59813SOL    HW184250   8.796   0.163   9.121 -0.1013 -0.4487  0.3959
59813SOL    HW284251   8.872   0.109   9.002  1.2002  1.7190  0.2125
59814SOL     OW84252   6.860  12.482   4.238  0.3903 -0.1140 -0.3483
59814SOL    HW184253   6.822  12.554   4.287  1.5470 -0.3025  0.8818
59814SOL    HW284254   6.810  12.405   4.265  1.0395 -0.2225  0.6073
59815SOL     OW84255  10.846   7.601   8.929 -0.7724 -0.0839  0.5560
59815SOL    HW184256  10.867   7.530   8.990  1.6193 -0.4821 -0.6053
59815SOL    HW284257  10.796   7.664   8.982 -1.8055 -1.9611  1.9688
59816SOL     OW84258  11.788   5.889  11.797  0.4551  0.1669 -0.4400
59816SOL    HW184259  11.753   5.959  11.743  0.2303  0.4471  0.0625
59816SOL    HW284260  11.722   5.819  11.791  0.7215 -0.0448 -1.0105
59817SOL     OW84261   7.446   7.404   2.516  0.3061 -0.4493 -0.6893
59817SOL    HW184262   7.471   7.438   2.430  0.8767 -1.3483 -0.8923
59817SOL    HW284263   7.377   7.340   2.498 -1.1600  0.9549 -0.2615
59818SOL     OW84264  10.828   5.827   3.804 -0.0519  0.5016  0.3698
59818SOL    HW184265  10.754   5.840   3.863  0.2159 -0.4504  0.9451
59818SOL    HW284266  10.892   5.892   3.832  0.7843 -1.0739  2.3701
59819SOL     OW84267   5.853   2.249  11.435 -0.3192 -0.3469 -0.5668
59819SOL    HW184268   5.903   2.262  11.515  0.5755 -0.6747 -1.0629
59819SOL    HW284269   5.887   2.315  11.374 -0.6379 -0.4348 -0.8462
59820SOL     OW84270   8.357  11.149   0.518 -0.1531 -0.8293 -0.0308
59820SOL    HW184271   8.282  11.183   0.470 -1.3947 -0.8863  1.7439
59820SOL    HW284272   8.360  11.056   0.495 -0.3711 -0.7398 -0.4289
59821SOL     OW84273   7.254   2.564   9.116  0.0035 -0.4153  0.2060
59821SOL    HW184274   7.347   2.551   9.136 -0.5786 -3.2038  1.5921
59821SOL    HW284275   7.219   2.475   9.109 -2.8185  0.5330  1.1245
59822SOL     OW84276   8.937   3.037   7.705 -0.9308  0.0083 -0.2535
59822SOL    HW184277   8.853   3.073   7.674 -1.1968 -1.1678 -0.9355
59822SOL    HW284278   8.983   3.113   7.740 -2.2551  0.6936  0.0829
59823SOL     OW84279  11.754   3.914   3.890 -0.5974  0.8698 -0.1826
59823SOL    HW184280  11.799   3.976   3.833 -1.2333  0.1078 -1.5595
59823SOL    HW284281  11.818   3.845   3.905 -0.3924  1.1235  0.1224
59824SOL     OW84282   8.633   4.210   1.626 -0.0014  0.8197 -0.7099
59824SOL    HW184283   8.656   4.218   1.718  1.3791 -0.7228 -0.8821
59824SOL    HW284284   8.717   4.208   1.580 -0.5991 -0.2915 -1.8065
59825SOL     OW84285  12.445   8.012  11.879  0.5226 -0.5496 -0.4708
59825SOL    HW184286  12.387   8.086  11.863  1.4946  0.1297 -1.0066
59825SOL    HW284287  12.414   7.944  11.820 -0.9189 -0.9027  0.6484
59826SOL     OW84288   7.000   9.874  10.797  0.2642  0.5685  0.5763
59826SOL    HW184289   7.087   9.901  10.768 -0.1591  0.5262 -0.8017
59826SOL    HW284290   6.967   9.819  10.726 -0.2924 -0.6837  1.7695
59827SOL     OW84291   8.677   4.923   7.373  0.1289 -0.3179 -0.3497
59827SOL    HW184292   8.623   4.998   7.346  0.6355  0.3199  0.3563
59827SOL    HW284293   8.669   4.861   7.301 -0.8685  0.1203 -0.6312
59828SOL     OW84294   4.311   0.123  12.200 -0.4813 -0.2156  0.2292
59828SOL    HW184295   4.243   0.061  12.175 -1.1201 -0.8068  3.0662
59828SOL    HW284296   4.392   0.071  12.202 -0.9589 -0.9591  2.2702
59829SOL     OW84297   0.835   5.106   6.335 -0.0383 -0.0088 -0.2470
59829SOL    HW184298   0.786   5.143   6.407 -0.0249  1.7806 -1.0946
59829SOL    HW284299   0.814   5.013   6.336 -1.8989  0.3878  0.5825
59830SOL     OW84300   7.475   8.907  12.381 -0.1462 -0.3108  0.1812
59830SOL    HW184301   7.497   8.943  12.467  0.2513 -0.1329  0.0059
59830SOL    HW284302   7.559   8.893  12.338 -0.3574 -0.0403 -0.3280
59831SOL     OW84303   3.993   3.138   5.375 -0.3149 -0.2747 -0.5970
59831SOL    HW184304   3.963   3.047   5.378 -0.4504 -0.2146  0.9447
59831SOL    HW284305   3.913   3.190   5.362 -0.8423 -0.1994  2.1821
59832SOL     OW84306   0.157   5.215   6.561  0.1685 -0.0354 -0.1568
59832SOL    HW184307   0.126   5.264   6.485  0.9219 -0.7249 -0.9131
59832SOL    HW284308   0.166   5.125   6.531  0.9624 -0.2237  0.5997
59833SOL     OW84309   8.872   5.043   7.085  0.5830 -0.2659  0.3915
59833SOL    HW184310   8.912   5.128   7.070 -0.8476  0.1093 -1.8243
59833SOL    HW284311   8.902   5.017   7.172  1.9310  1.9803  0.6762
59834SOL     OW84312   5.460   8.177   8.495 -0.3841 -0.2039  0.3967
59834SOL    HW184313   5.528   8.216   8.550 -0.0318  0.6765 -0.6180
59834SOL    HW284314   5.408   8.252   8.465 -1.3827 -0.8013  0.5919
59835SOL     OW84315   7.268   7.115   8.837 -0.6058  0.5252 -0.1987
59835SOL    HW184316   7.284   7.021   8.826  0.0721  0.8269 -2.2629
59835SOL    HW284317   7.246   7.125   8.929 -1.2799 -1.7436 -0.0487
59836SOL     OW84318   0.620  11.726  10.604 -0.1335 -0.3333  0.3639
59836SOL    HW184319   0.635  11.707  10.512 -0.6399 -1.1090  0.4321
59836SOL    HW284320   0.594  11.818  10.606 -0.4008 -0.3905 -0.2963
59837SOL     OW84321   8.749   3.812   4.970 -0.0387 -0.5243  0.0515
59837SOL    HW184322   8.826   3.867   4.954 -0.1312  0.4793  2.6906
59837SOL    HW284323   8.682   3.848   4.912  0.8191  0.0594 -0.6068
59838SOL     OW84324   5.349  12.425   0.673 -0.6171 -0.4751 -0.5712
59838SOL    HW184325   5.355  12.414   0.578  1.9240 -1.8950 -0.3277
59838SOL    HW284326   5.257  12.447   0.688 -1.2466 -0.8305 -3.2833
59839SOL     OW84327   5.323   8.007   4.921 -0.0042  0.2741  0.1777
59839SOL    HW184328   5.415   8.012   4.947  0.5298 -0.6613 -1.3838
59839SOL    HW284329   5.305   7.914   4.912 -1.1334  0.4401  0.4939
59840SOL     OW84330   2.952  10.663   0.349  0.2862 -0.2051 -0.0821
59840SOL    HW184331   3.046  10.660   0.330  0.3138  0.8384 -0.1544
59840SOL    HW284332   2.945  10.635   0.440  0.9122  1.7357  0.6251
59841SOL     OW84333   3.605   7.422  10.258  0.3968  0.7749 -0.1117
59841SOL    HW184334   3.567   7.336  10.242  0.0552  0.7982  0.5217
59841SOL    HW284335   3.700   7.407  10.256  0.3849 -0.1046  2.2781
59842SOL     OW84336  11.224  11.566   2.010  0.4862 -0.2610 -0.5373
59842SOL    HW184337  11.179  11.634   2.060 -1.2663 -0.4950 -1.6850
59842SOL    HW284338  11.278  11.520   2.074  0.9654  1.5661  0.4522
59843SOL     OW84339   5.745   5.586   9.658  0.2583 -0.6090 -0.2228
59843SOL    HW184340   5.683   5.656   9.678 -1.1816 -1.8425 -0.2750
59843SOL    HW284341   5.751   5.535   9.738  1.9176 -0.0214  0.0728
59844SOL     OW84342   4.995   9.565  12.270  0.3831 -0.4767 -0.4339
59844SOL    HW184343   4.971   9.476  12.242  1.6809 -0.7357 -0.8095
59844SOL    HW284344   5.090   9.567  12.263  0.6593 -0.0063  2.4709
59845SOL     OW84345  10.296   2.493   6.766  0.4738 -0.1312  0.0740
59845SOL    HW184346  10.281   2.460   6.678  0.6253  0.5430 -0.2092
59845SOL    HW284347  10.349   2.572   6.754 -0.5814  0.7033  0.6638
59846SOL     OW84348  11.181   3.560   1.119  0.4088 -0.2585 -1.2765
59846SOL    HW184349  11.181   3.472   1.081  0.0325 -0.2266 -1.3603
59846SOL    HW284350  11.106   3.603   1.077 -0.6284 -0.5343  0.2000
59847SOL     OW84351   7.213  12.647   9.498 -0.2918  0.2484  0.1837
59847SOL    HW184352   7.239  12.582   9.564  0.7639  1.0429  0.5604
59847SOL    HW284353   7.294  12.668   9.452 -1.0772 -0.6582 -1.7479
59848SOL     OW84354   5.090   2.072   8.958  0.0670  0.5549  0.5349
59848SOL    HW184355   5.143   2.005   8.999  0.3049  0.1527 -0.4107
59848SOL    HW284356   5.027   2.024   8.904  0.9095  1.0940 -0.9726
59849SOL     OW84357   6.028  10.597   1.178  0.3446 -0.2398  0.0289
59849SOL    HW184358   6.067  10.532   1.120 -1.0333 -0.5195 -0.6398
59849SOL    HW284359   5.983  10.547   1.245 -0.9393 -0.0411 -0.6327
59850SOL     OW84360   4.370   1.224   5.284  0.1285 -0.3776 -0.1237
59850SOL    HW184361   4.404   1.140   5.254 -0.3611 -1.1746  1.4191
59850SOL    HW284362   4.432   1.288   5.251  1.4217 -1.5090  0.0239
59851SOL     OW84363  10.073   6.015   1.182 -0.3529  0.8697  0.2766
59851SOL    HW184364   9.992   6.015   1.131 -0.2051  2.9706 -0.0417
59851SOL    HW284365  10.056   6.075   1.255  0.5590  0.4933  0.8261
59852SOL     OW84366   2.768   6.252  10.406  0.1341 -0.4626  0.2750
59852SOL    HW184367   2.698   6.293  10.458  0.2476  0.6846 -0.4425
59852SOL    HW284368   2.801   6.323  10.351  1.8555 -0.9954  0.5688
59853SOL     OW84369  12.324   7.618   8.832 -0.3367  0.4403  0.4254
59853SOL    HW184370  12.326   7.600   8.738  0.0727  1.4114  0.2278
59853SOL    HW284371  12.298   7.536   8.873 -0.5678  0.0248 -0.5461
59854SOL     OW84372   3.877  10.337   4.988 -0.0900  0.0062  0.0037
59854SOL    HW184373   3.802  10.357   5.044  0.2635  2.3234 -0.2262
59854SOL    HW284374   3.840  10.327   4.900 -0.3003 -0.4919  0.1474
59855SOL     OW84375   8.988   1.470   1.150 -0.0439 -0.1193 -0.3931
59855SOL    HW184376   8.911   1.416   1.169 -1.0532  1.2032 -0.5854
59855SOL    HW284377   8.968   1.513   1.067 -0.0355  1.8528  0.5733
59856SOL     OW84378   7.691   7.309  11.300 -0.2830  0.0610 -0.0261
59856SOL    HW184379   7.672   7.382  11.241 -0.3574  0.0502 -0.0166
59856SOL    HW284380   7.770   7.269  11.265 -0.3826 -0.0055 -0.1741
59857SOL     OW84381   1.073   9.870   9.074  0.1479  0.4113 -0.4432
59857SOL    HW184382   1.112   9.914   9.150  0.1589 -0.9510  0.3758
59857SOL    HW284383   1.041   9.941   9.019  0.6138  1.4514  0.5858
59858SOL     OW84384   0.485   0.042   3.524 -0.1508 -0.0762 -0.4572
59858SOL    HW184385   0.441   0.124   3.546  0.5463 -0.0906  1.0818
59858SOL    HW284386   0.417  -0.025   3.528 -0.2022  0.0421  0.9467
59859SOL     OW84387   3.803   7.784   0.693 -0.8882 -0.2827  0.3273
59859SOL    HW184388   3.880   7.743   0.732 -0.7769  0.1958  0.6126
59859SOL    HW284389   3.783   7.858   0.750  0.6108  1.8081 -1.6904
59860SOL     OW84390   6.704   3.320   5.972 -0.2651 -0.1850 -0.2417
59860SOL    HW184391   6.639   3.385   5.947  0.6139  0.4904 -0.8411
59860SOL    HW284392   6.656   3.237   5.974 -1.6334  0.5934  1.5429
59861SOL     OW84393   6.658   1.860   5.542  0.2885 -0.0962  0.2609
59861SOL    HW184394   6.738   1.821   5.578 -0.2135 -0.9958  0.4233
59861SOL    HW284395   6.689   1.913   5.468  0.7772 -2.8871 -1.6599
59862SOL     OW84396   5.578  10.254   2.166 -0.0518 -0.2315  0.1171
59862SOL    HW184397   5.663  10.296   2.158  0.5076 -1.2825  0.3129
59862SOL    HW284398   5.537  10.268   2.080  1.4414 -2.0085 -0.9779
59863SOL     OW84399  12.609   4.592   5.545  0.2559  0.6286  0.1164
59863SOL    HW184400  12.636   4.503   5.522  0.7231  0.6360  0.6157
59863SOL    HW284401  12.625   4.598   5.639  1.3402  1.6312 -0.1182
59864SOL     OW84402  10.700   5.735   4.689  0.3020 -0.2107 -0.1244
59864SOL    HW184403  10.634   5.714   4.623  0.7719  0.4513 -0.8212
59864SOL    HW284404  10.665   5.811   4.734 -0.5051 -1.2794  1.1145
59865SOL     OW84405   5.658   1.131  10.241 -0.3509  0.2087  0.0664
59865SOL    HW184406   5.728   1.196  10.242  1.0093 -1.1871  1.2116
59865SOL    HW284407   5.577   1.182  10.239  0.6723  1.8653 -2.1620
59866SOL     OW84408   6.195   2.156   7.715  0.1303  0.2392  0.5582
59866SOL    HW184409   6.119   2.192   7.668  0.2239  0.0610  0.2641
59866SOL    HW284410   6.157   2.113   7.792  0.1151  1.9618  1.5628
59867SOL     OW84411   2.469   8.138   5.976  0.8206 -0.2763 -0.3045
59867SOL    HW184412   2.495   8.211   5.920 -2.0724  1.9801  0.9964
59867SOL    HW284413   2.521   8.149   6.056  1.8914 -0.9330 -0.8986
59868SOL     OW84414  10.355   1.874   0.079 -0.2024  0.2217 -0.2149
59868SOL    HW184415  10.315   1.807   0.136  0.8089  0.0888  0.3511
59868SOL    HW284416  10.449   1.856   0.083 -0.0932  0.1973 -1.9491
59869SOL     OW84417  11.748   2.539  12.113 -0.1230 -0.0127 -0.0093
59869SOL    HW184418  11.686   2.478  12.073 -1.6501  0.6562  1.2351
59869SOL    HW284419  11.829   2.526  12.064 -1.2203 -0.9377 -1.7041
59870SOL     OW84420  11.712   7.312   5.890 -0.8505  0.1712 -0.1247
59870SOL    HW184421  11.731   7.224   5.923 -0.0901  0.3038 -0.1997
59870SOL    HW284422  11.794   7.360   5.900 -1.6717  1.3670  1.4219
59871SOL     OW84423   6.691  11.495   0.681  0.1060 -0.1872  0.1311
59871SOL    HW184424   6.695  11.571   0.624 -0.1028  0.1026  0.4968
59871SOL    HW284425   6.707  11.420   0.623 -0.6507  0.0565 -0.4076
59872SOL     OW84426   4.916   2.927   5.928 -0.3384 -0.6042 -0.3177
59872SOL    HW184427   4.820   2.923   5.928 -0.3363 -0.9962  0.5947
59872SOL    HW284428   4.943   2.835   5.924  0.0150 -0.4735 -1.1269
59873SOL     OW84429   7.484   3.577  11.869 -0.4664  0.0499  0.0933
59873SOL    HW184430   7.570   3.594  11.829 -0.1819 -1.2622  0.0932
59873SOL    HW284431   7.502   3.515  11.939 -1.1507  1.3404  1.4610
59874SOL     OW84432   2.182   2.533   7.563  0.0336  0.1054 -0.2817
59874SOL    HW184433   2.272   2.506   7.579 -0.3541 -0.0205  2.0774
59874SOL    HW284434   2.132   2.452   7.565 -0.2524  0.2712 -0.6192
59875SOL     OW84435   2.646  10.419   4.708  0.3029 -0.0197  0.1943
59875SOL    HW184436   2.700  10.480   4.759 -1.4481  1.0299  0.8672
59875SOL    HW284437   2.670  10.436   4.617  0.5515  0.9839  0.4354
59876SOL     OW84438   6.921   9.780   7.849  0.2466 -0.0404 -0.9405
59876SOL    HW184439   6.915   9.684   7.843 -0.8807  0.0198 -1.0036
59876SOL    HW284440   6.836   9.807   7.884  0.9118  0.8653  0.0357
59877SOL     OW84441   6.725  11.659   6.874 -0.4489  0.0671 -0.2702
59877SOL    HW184442   6.716  11.576   6.828 -0.1777  1.0823 -2.2583
59877SOL    HW284443   6.671  11.649   6.952 -0.6551 -1.8528 -0.6047
59878SOL     OW84444   2.479   9.445  12.485  0.3105 -0.4922 -0.8341
59878SOL    HW184445   2.539   9.406  12.421 -0.1080  0.5900 -1.9310
59878SOL    HW284446   2.516   9.531  12.503  1.6560 -1.5716  2.1669
59879SOL     OW84447   6.419   3.493   1.004 -0.3893  0.0791  0.1745
59879SOL    HW184448   6.340   3.447   1.032 -0.8396  1.2212  0.8663
59879SOL    HW284449   6.388   3.558   0.941 -0.1336  0.9839  0.9458
59880SOL     OW84450   8.577  12.365  12.006 -0.3718  0.0493 -0.8221
59880SOL    HW184451   8.534  12.362  11.921  1.5935 -3.7665 -1.9125
59880SOL    HW284452   8.508  12.343  12.069 -1.9957  3.5212 -1.1681
59881SOL     OW84453  12.046   7.021   9.956  0.0164  0.0734 -0.2273
59881SOL    HW184454  11.962   7.066   9.964  0.1652  0.4854 -0.9591
59881SOL    HW284455  12.100   7.057  10.026 -0.5254 -0.4579  0.4837
59882SOL     OW84456   9.933  11.490  10.430 -0.3361  0.2002  0.1517
59882SOL    HW184457  10.028  11.475  10.425 -0.4345 -0.3247 -3.4583
59882SOL    HW284458   9.923  11.585  10.429  0.1690  0.2531 -0.4846
59883SOL     OW84459   8.122   2.688   4.732 -0.3032 -0.7173  0.0279
59883SOL    HW184460   8.072   2.607   4.738 -0.2136 -0.6881  1.4870
59883SOL    HW284461   8.088   2.743   4.802 -0.3279  0.5035 -0.9168
59884SOL     OW84462   8.416   7.765   0.194 -0.1704  0.4884  0.0142
59884SOL    HW184463   8.424   7.851   0.153  1.7903  1.0776  1.5214
59884SOL    HW284464   8.362   7.781   0.272  1.4073  0.7012  1.1009
59885SOL     OW84465   1.276   6.414   1.813 -0.5121  0.6020  0.1460
59885SOL    HW184466   1.311   6.428   1.725 -0.0743  0.9971  0.3703
59885SOL    HW284467   1.197   6.363   1.801 -0.2357  0.3075 -0.4449
59886SOL     OW84468   9.847  10.102  11.694  0.7527 -0.4607  0.1696
59886SOL    HW184469   9.880  10.091  11.605  0.6085 -1.0303  0.1831
59886SOL    HW284470   9.901  10.172  11.731  1.3841 -0.8058 -0.0844
59887SOL     OW84471   2.026   8.465  11.351 -0.0366  0.0133 -0.3230
59887SOL    HW184472   2.087   8.452  11.278 -0.9607 -0.6810 -0.9963
59887SOL    HW284473   2.019   8.560  11.360 -0.0509  0.1137 -1.2594
59888SOL     OW84474   4.661  11.971  11.326  0.1206 -0.0437 -0.7349
59888SOL    HW184475   4.714  11.899  11.292 -1.0506 -1.5878  0.5271
59888SOL    HW284476   4.571  11.948  11.303 -0.4722 -0.0215  1.3392
59889SOL     OW84477   8.448   1.937   4.044 -0.4037  0.7518  0.0857
59889SOL    HW184478   8.453   1.874   4.115  0.5804  1.2316  0.4574
59889SOL    HW284479   8.419   1.886   3.968  1.5190 -0.4016  0.0747
59890SOL     OW84480   5.117  11.691   7.565  0.0402  0.1941  0.7807
59890SOL    HW184481   5.039  11.691   7.620  0.8498  0.4881  1.9750
59890SOL    HW284482   5.179  11.749   7.610  1.2126 -0.6171  0.2842
59891SOL     OW84483  10.258   4.928   7.144  0.2720  0.6140  0.1838
59891SOL    HW184484  10.202   4.948   7.219 -0.1717  0.8145 -0.1966
59891SOL    HW284485  10.212   4.858   7.097  0.7304  0.2262  0.2976
59892SOL     OW84486   0.773  12.446   3.814 -0.1299  0.4304  0.8100
59892SOL    HW184487   0.835  12.495   3.869  0.3712  1.5793 -0.7098
59892SOL    HW284488   0.736  12.512   3.756  1.9880 -1.1403 -2.6398
59893SOL     OW84489  11.949   7.084  12.575 -0.0010  0.8816 -0.2538
59893SOL    HW184490  11.993   7.163  12.543  1.6159 -0.1939 -0.8127
59893SOL    HW284491  11.971   7.017  12.510 -1.2482 -0.0561  0.2656
59894SOL     OW84492  11.418   2.027   4.479  0.6502 -0.6276  0.2158
59894SOL    HW184493  11.480   2.050   4.547  0.4404  2.2683 -0.4705
59894SOL    HW284494  11.333   2.030   4.521  0.6257 -0.1670  0.1334
59895SOL     OW84495  12.563  10.963   7.457  0.7892  0.0774 -0.0167
59895SOL    HW184496  12.552  10.879   7.501  0.1927  0.0756 -0.1690
59895SOL    HW284497  12.550  10.944   7.364  1.2160  0.2395 -0.1166
59896SOL     OW84498  10.514   8.133   8.211 -0.0505 -0.3975  0.0455
59896SOL    HW184499  10.484   8.045   8.231  0.2330  0.0739  2.9530
59896SOL    HW284500  10.490   8.185   8.288  1.7292  1.5767 -0.6315
59897SOL     OW84501  10.718   7.705   3.818 -0.0844  0.0208  0.3458
59897SOL    HW184502  10.740   7.685   3.728  0.4758 -1.3119  0.7610
59897SOL    HW284503  10.794   7.677   3.869 -0.4536  0.5999  1.2591
59898SOL     OW84504   1.098   9.903   4.245 -0.1818  0.1998  0.0862
59898SOL    HW184505   1.044   9.948   4.180  1.9118 -1.3209 -2.9414
59898SOL    HW284506   1.037   9.845   4.291 -1.5227  0.0337 -1.7926
59899SOL     OW84507  10.156   1.195   5.818 -0.4794 -0.4746 -0.6188
59899SOL    HW184508  10.074   1.163   5.853  0.6467 -1.2133  1.5318
59899SOL    HW284509  10.158   1.288   5.842 -0.7807 -0.3986 -0.8866
59900SOL     OW84510   2.017   6.695   5.972 -0.1762  0.1048  0.3149
59900SOL    HW184511   2.047   6.657   5.890  0.8528 -0.9613  1.1354
59900SOL    HW284512   1.922   6.687   5.969 -0.1290 -0.2233 -0.6229
59901SOL     OW84513   4.991   9.608   6.335 -0.4687  0.0051  0.4898
59901SOL    HW184514   5.026   9.519   6.339  0.6220  0.2906 -1.3575
59901SOL    HW284515   4.907   9.599   6.292  0.0675 -0.0470 -0.5669
59902SOL     OW84516  11.024   0.280   5.541  0.3032  0.1089  0.0165
59902SOL    HW184517  11.102   0.334   5.533 -0.2365  0.8916 -0.0777
59902SOL    HW284518  10.991   0.270   5.452  0.3539 -0.3167  0.0404
59903SOL     OW84519   3.058  11.810   1.318 -0.9564  0.5851 -0.1462
59903SOL    HW184520   3.047  11.715   1.311  1.8853  0.1330  0.5584
59903SOL    HW284521   3.079  11.838   1.229  0.6923  0.1361  0.0772
59904SOL     OW84522   3.508   0.582   2.834 -0.0783  0.2001  0.9261
59904SOL    HW184523   3.525   0.492   2.808 -0.5258  0.7841 -1.6304
59904SOL    HW284524   3.594   0.622   2.840  0.0892 -0.2298  1.4604
59905SOL     OW84525   1.612  10.397   8.419 -0.4879 -0.4074 -0.1035
59905SOL    HW184526   1.569  10.408   8.504  1.6520  2.0461  0.7922
59905SOL    HW284527   1.557  10.448   8.359 -0.6976 -0.1312  0.3120
59906SOL     OW84528   4.183   9.629  12.518  0.2890 -0.4481  0.4003
59906SOL    HW184529   4.169   9.551  12.571  0.2340  0.1862  1.3653
59906SOL    HW284530   4.212   9.597  12.433  3.7896 -1.4514  1.8014
59907SOL     OW84531   3.980   7.412   0.237 -0.5176  0.2595  0.3014
59907SOL    HW184532   3.995   7.361   0.158 -0.8278  0.4942  0.0890
59907SOL    HW284533   3.933   7.352   0.296 -1.8597  0.6343 -0.3582
59908SOL     OW84534   3.914  12.403  10.049  0.0011  0.3541  0.0578
59908SOL    HW184535   3.857  12.429  10.121  2.2974 -0.7516  2.4169
59908SOL    HW284536   3.877  12.320  10.018 -0.7386  0.6093  0.2289
59909SOL     OW84537   6.480   2.090   4.025 -0.2677  0.0125  0.2564
59909SOL    HW184538   6.390   2.122   4.020 -1.3187 -2.8175 -2.3107
59909SOL    HW284539   6.532   2.160   3.984 -1.1689  1.8073  2.0156
59910SOL     OW84540   9.519   0.805   1.901  0.3171  0.0224  0.4005
59910SOL    HW184541   9.609   0.777   1.919  0.0077  0.2267  2.5114
59910SOL    HW284542   9.519   0.827   1.808  2.7651  1.1842  0.6008
59911SOL     OW84543   8.640   2.788   3.386  0.2468 -0.0534 -0.3613
59911SOL    HW184544   8.721   2.813   3.430  0.5597  2.1234 -1.9923
59911SOL    HW284545   8.571   2.828   3.439  0.2060 -1.4019  0.6854
59912SOL     OW84546   3.776   7.757  12.191  0.3445 -0.0195  0.3890
59912SOL    HW184547   3.828   7.835  12.174 -0.9713  0.2787 -3.0155
59912SOL    HW284548   3.700   7.790  12.239  0.7196  0.4289  0.6912
59913SOL     OW84549   2.850  12.128   4.362 -0.2148 -0.4936  0.1849
59913SOL    HW184550   2.838  12.103   4.271 -3.7380 -3.8578  1.3025
59913SOL    HW284551   2.825  12.220   4.365  1.1481  0.0595 -2.3162
59914SOL     OW84552   9.231   2.495  11.136 -0.0464  0.2799 -0.4254
59914SOL    HW184553   9.207   2.451  11.054 -1.9174 -1.6291  1.0404
59914SOL    HW284554   9.326   2.492  11.137  0.0276  0.2718 -2.4785
59915SOL     OW84555  12.446   3.893   5.071  0.3289  0.2467 -0.6776
59915SOL    HW184556  12.436   3.952   4.996  0.1173  2.4310  0.9722
59915SOL    HW284557  12.357   3.863   5.090  0.1358  1.0969 -0.2292
59916SOL     OW84558   1.582   7.689  10.171 -0.5063  0.0516 -0.0029
59916SOL    HW184559   1.640   7.682  10.247 -0.9456 -2.5957  0.1736
59916SOL    HW284560   1.591   7.781  10.143  1.9677  0.3398  1.3899
59917SOL     OW84561   7.174   7.786   5.113  0.0905  0.7286  0.3951
59917SOL    HW184562   7.191   7.823   5.200 -2.2311 -0.2499  1.3442
59917SOL    HW284563   7.106   7.842   5.076  0.1610  0.3853 -0.2579
59918SOL     OW84564   4.049   3.339   7.708 -0.3383 -0.4935 -0.0328
59918SOL    HW184565   4.070   3.294   7.790 -0.6052 -0.3520  0.1148
59918SOL    HW284566   4.001   3.273   7.657 -1.8468  0.0051  0.6918
59919SOL     OW84567  10.352   3.002  11.436 -0.3459  0.0712  0.2221
59919SOL    HW184568  10.447   3.003  11.443 -0.2806  1.0464 -0.4842
59919SOL    HW284569  10.333   3.057  11.360 -1.4891  0.1893  0.5648
59920SOL     OW84570  12.170   0.750   5.897 -0.1167  0.2449  0.0823
59920SOL    HW184571  12.176   0.756   5.992 -0.2774 -2.0948  0.2944
59920SOL    HW284572  12.170   0.656   5.879 -0.9653  0.6183 -2.1767
59921SOL     OW84573  10.233  10.231  10.888  0.6236 -0.0918  0.5697
59921SOL    HW184574  10.231  10.253  10.795  1.5999  1.4682  0.8842
59921SOL    HW284575  10.141  10.236  10.915  0.5577  1.9584  0.1824
59922SOL     OW84576   2.236   4.602   0.317  0.2387 -0.0108 -0.5542
59922SOL    HW184577   2.287   4.646   0.249 -2.0085  0.7253 -1.8835
59922SOL    HW284578   2.194   4.674   0.365 -2.2960 -0.5401 -1.7914
59923SOL     OW84579  12.517   7.801   7.849 -0.1448 -1.0651 -0.2847
59923SOL    HW184580  12.586   7.736   7.838 -1.5045 -2.4175 -1.2147
59923SOL    HW284581  12.494   7.796   7.942  0.8368 -0.7656 -0.0192
59924SOL     OW84582  10.428   9.890   2.662  0.8380  0.3084 -0.0340
59924SOL    HW184583  10.497   9.955   2.653  0.0795  1.0176 -0.9369
59924SOL    HW284584  10.426   9.845   2.578  0.4819  0.0051  0.1318
59925SOL     OW84585   2.091   0.259   3.607 -0.5740  0.2318  0.0363
59925SOL    HW184586   2.038   0.275   3.686  0.0608 -0.7964  0.6999
59925SOL    HW284587   2.027   0.234   3.541 -0.9483 -1.1645  0.8790
59926SOL     OW84588  10.506   9.843   7.137  0.2545  0.0672 -0.5472
59926SOL    HW184589  10.590   9.805   7.164 -0.3107  0.9995  2.9580
59926SOL    HW284590  10.440   9.785   7.174 -0.6502  0.5254 -1.4152
59927SOL     OW84591   3.595   1.481   2.570 -0.3340  0.1751  0.6785
59927SOL    HW184592   3.529   1.551   2.572  0.1007  0.6363 -0.3847
59927SOL    HW284593   3.547   1.403   2.598 -1.6022  0.3136 -0.9426
59928SOL     OW84594   0.637   2.666   7.217  0.2068 -0.3930 -0.0166
59928SOL    HW184595   0.584   2.709   7.284 -0.7239 -1.7173  0.1333
59928SOL    HW284596   0.727   2.684   7.243 -0.1410  0.9041  0.3841
59929SOL     OW84597   4.440   9.133  10.346 -0.6423 -0.5108 -0.5297
59929SOL    HW184598   4.502   9.076  10.302  1.0556  2.0494 -1.6300
59929SOL    HW284599   4.447   9.217  10.302 -3.0936  0.6119  0.9542
59930SOL     OW84600   1.841   4.909   5.137 -0.2429  0.1493 -0.4232
59930SOL    HW184601   1.829   4.889   5.044 -1.2759  1.3119 -0.5553
59930SOL    HW284602   1.795   4.991   5.151 -3.1721 -1.6559  1.8456
59931SOL     OW84603   4.187   3.733   3.753 -0.1735 -0.5827 -0.1740
59931SOL    HW184604   4.184   3.650   3.706  1.2286 -0.6695 -0.1639
59931SOL    HW284605   4.262   3.780   3.716 -1.4700  1.1050 -0.8274
59932SOL     OW84606   6.611   4.505   1.113 -0.4798  0.0058 -0.2974
59932SOL    HW184607   6.611   4.422   1.065  0.5702  0.3309 -0.8819
59932SOL    HW284608   6.608   4.572   1.044 -0.5891  0.4655  0.1508
59933SOL     OW84609   3.358   5.682   9.870 -0.1932 -0.0861  0.7563
59933SOL    HW184610   3.283   5.736   9.846 -0.4124 -1.5838 -2.4372
59933SOL    HW284611   3.334   5.646   9.956 -1.0925  2.8120  1.8466
59934SOL     OW84612  10.466   1.888  11.787 -0.1717  0.0124  0.1997
59934SOL    HW184613  10.561   1.899  11.791  0.1703 -2.5318  2.2052
59934SOL    HW284614  10.450   1.851  11.699  0.7354  0.1652 -0.0414
59935SOL     OW84615   4.891   6.731  12.214  0.7421  0.0846  0.8564
59935SOL    HW184616   4.868   6.788  12.141 -2.2271 -0.4110  1.2778
59935SOL    HW284617   4.876   6.642  12.181  3.1899 -0.4085  0.9046
59936SOL     OW84618  10.267   8.482   8.777  0.2566  0.6912 -0.2095
59936SOL    HW184619  10.217   8.542   8.832 -0.3547  0.0084 -0.0061
59936SOL    HW284620  10.207   8.456   8.707 -0.9856 -2.8288  1.9002
59937SOL     OW84621   0.421   6.551  11.505 -0.1350  0.3242 -0.1158
59937SOL    HW184622   0.510   6.583  11.487  0.3455 -1.5761 -1.4603
59937SOL    HW284623   0.372   6.630  11.528  1.1574  1.9158 -2.3296
59938SOL     OW84624  10.306  12.005  11.002  0.3245 -0.1463  0.0930
59938SOL    HW184625  10.241  11.995  11.072  0.7722 -1.4577  0.3460
59938SOL    HW284626  10.258  12.046  10.930 -0.6211 -0.5143  0.4991
59939SOL     OW84627   7.991   9.196   3.769 -0.1103 -0.1985  0.2320
59939SOL    HW184628   7.952   9.119   3.729  1.0643  0.3749 -2.2148
59939SOL    HW284629   7.989   9.178   3.863 -1.1582 -2.5590 -0.1688
59940SOL     OW84630  12.234   9.858   3.973 -0.0019  0.9612  0.2875
59940SOL    HW184631  12.145   9.892   3.973 -0.3989 -0.0219  0.8286
59940SOL    HW284632  12.290   9.936   3.968 -0.8889  1.5286 -1.1313
59941SOL     OW84633   2.035   2.372  11.373 -0.0935  0.5948 -0.3316
59941SOL    HW184634   1.973   2.311  11.333  0.3132 -0.0397 -0.0154
59941SOL    HW284635   2.023   2.453  11.325  0.4203 -0.1638 -1.7937
59942SOL     OW84636  12.631  12.577   1.778 -0.4074  0.4433 -0.0969
59942SOL    HW184637  12.609  12.484   1.774 -1.3820  0.6979 -1.3193
59942SOL    HW284638  12.562  12.620   1.727  0.5704  1.7354 -0.3785
59943SOL     OW84639   0.420   0.627  11.210  0.2446 -0.3769 -0.1093
59943SOL    HW184640   0.437   0.543  11.254 -2.0859 -1.4698 -1.1424
59943SOL    HW284641   0.440   0.610  11.118 -0.6537  0.0619 -0.3912
59944SOL     OW84642   9.626   2.929   0.486 -0.1407 -0.1719  0.2965
59944SOL    HW184643   9.630   2.835   0.472 -1.1942 -0.2518  0.4100
59944SOL    HW284644   9.603   2.965   0.400  2.0901  0.1733 -0.1944
59945SOL     OW84645   1.314   7.128   6.222 -0.1433  0.2817 -0.3296
59945SOL    HW184646   1.369   7.123   6.144  0.2989  0.3030 -0.0201
59945SOL    HW284647   1.238   7.179   6.194 -0.5402 -0.6807 -1.0641
59946SOL     OW84648   0.195   2.164   3.422 -0.3856 -0.1438 -0.3932
59946SOL    HW184649   0.109   2.126   3.440 -0.1169 -0.3967  0.3818
59946SOL    HW284650   0.250   2.136   3.495  0.4820 -0.3582 -1.1027
59947SOL     OW84651  11.052   4.168   8.673 -0.1373 -0.2594 -0.0967
59947SOL    HW184652  11.036   4.137   8.585 -0.0358 -0.6040  0.0057
59947SOL    HW284653  11.058   4.263   8.664 -0.6825 -0.2495 -0.3685
59948SOL     OW84654  12.559  10.115   3.235 -0.1293 -0.0253 -0.0996
59948SOL    HW184655  12.590  10.180   3.172  1.6182 -0.3742  0.3266
59948SOL    HW284656  12.553  10.162   3.318 -0.6698  0.0207 -0.1656
59949SOL     OW84657  11.004   0.569   5.442  0.0786 -0.0637  0.0537
59949SOL    HW184658  10.959   0.506   5.387  1.6126 -0.3577 -0.9190
59949SOL    HW284659  11.084   0.590   5.395  0.3664  1.4098  1.1142
59950SOL     OW84660   3.780   8.939   0.857  0.4273 -0.2218 -0.3907
59950SOL    HW184661   3.804   9.021   0.813  0.7711 -0.4256 -0.5835
59950SOL    HW284662   3.738   8.886   0.789 -0.8159  0.2259 -0.0012
59951SOL     OW84663   0.136   1.678   5.897 -0.7321 -0.7513 -0.1065
59951SOL    HW184664   0.058   1.674   5.842 -0.5537  0.5053 -0.4688
59951SOL    HW284665   0.126   1.759   5.947 -0.0255 -0.9700  0.4028
59952SOL     OW84666   7.166   1.702   2.804 -0.4761 -0.1669  0.0797
59952SOL    HW184667   7.111   1.640   2.851  1.1623 -0.2676  1.9695
59952SOL    HW284668   7.195   1.764   2.871  1.2551  0.1968 -0.9600
59953SOL     OW84669   5.496   8.839   1.784 -0.1065 -0.5626  0.6232
59953SOL    HW184670   5.556   8.826   1.711 -1.1657 -1.4018 -0.1178
59953SOL    HW284671   5.549   8.885   1.850  1.2289 -0.9290 -0.1520
59954SOL     OW84672   7.372  12.468   2.605  0.9890  0.1791 -0.4099
59954SOL    HW184673   7.330  12.431   2.684  0.3437 -0.1727 -0.9055
59954SOL    HW284674   7.367  12.397   2.541 -0.3174  1.1360 -1.3954
59955SOL     OW84675   2.653   3.509   4.394 -0.2085 -0.2884  0.0344
59955SOL    HW184676   2.725   3.560   4.430  0.6430  0.5577 -2.6690
59955SOL    HW284677   2.589   3.575   4.365 -0.5277 -0.8849 -0.6554
59956SOL     OW84678   4.038   1.023   6.421  0.0488 -0.4812  0.4041
59956SOL    HW184679   4.033   0.990   6.331  0.0574 -0.0119  0.2271
59956SOL    HW284680   4.084   1.107   6.412  1.6006 -1.2236  1.0514
59957SOL     OW84681   9.158   0.414   6.580 -0.0930  0.4449 -0.4978
59957SOL    HW184682   9.179   0.422   6.673 -0.3476  0.3424 -0.4324
59957SOL    HW284683   9.158   0.320   6.563  0.4742  0.4825 -0.7203
59958SOL     OW84684   6.541   8.418   7.899  0.2712  0.2085  0.4128
59958SOL    HW184685   6.565   8.505   7.867 -0.4834  0.3785  0.2829
59958SOL    HW284686   6.608   8.397   7.964 -0.8045  1.8758  2.1571
59959SOL     OW84687  11.020   3.140  12.116 -0.2597  0.0021  0.0443
59959SOL    HW184688  10.975   3.124  12.200 -0.1608  0.3393  0.1636
59959SOL    HW284689  11.005   3.233  12.098 -2.0066 -0.4893 -1.3305
59960SOL     OW84690   3.273  12.483   9.688 -0.1197  0.2888 -0.0007
59960SOL    HW184691   3.273  12.556   9.626 -0.2291  0.8022  0.6011
59960SOL    HW284692   3.338  12.507   9.754  0.1270 -0.3419 -0.0089
59961SOL     OW84693   9.349   3.155   6.347  0.1338  0.3634 -0.0981
59961SOL    HW184694   9.406   3.121   6.416 -0.2651 -0.2068 -0.0397
59961SOL    HW284695   9.311   3.077   6.307 -2.6060  0.7318  1.5431
59962SOL     OW84696   5.238   9.816  11.762 -0.0439  0.3911  0.3689
59962SOL    HW184697   5.323   9.855  11.785 -0.0697  0.3110  0.6102
59962SOL    HW284698   5.178   9.850  11.828 -0.1485  0.2586  0.3427
59963SOL     OW84699   7.030  10.648   4.967 -0.4076  0.0482  0.2823
59963SOL    HW184700   7.075  10.680   4.888 -0.9953 -0.2633 -0.1873
59963SOL    HW284701   6.941  10.684   4.960 -1.0181 -1.4940 -0.1416
59964SOL     OW84702   4.116   2.168   7.442 -0.0085 -0.6989  0.1176
59964SOL    HW184703   4.157   2.249   7.412 -0.8930 -0.2768 -0.0018
59964SOL    HW284704   4.037   2.197   7.488  0.3935 -1.4306  1.3033
59965SOL     OW84705   1.201   3.790  11.668  0.0132  0.4142  0.3744
59965SOL    HW184706   1.253   3.833  11.736 -0.1871  0.0224  0.7782
59965SOL    HW284707   1.244   3.815  11.586  0.2368  0.9165  0.6384
59966SOL     OW84708   9.076   5.409   2.820 -0.0972  0.1627 -0.1568
59966SOL    HW184709   9.110   5.389   2.733 -0.5997 -0.9685 -0.1033
59966SOL    HW284710   8.988   5.444   2.804  0.3925  1.4484 -0.1827
59967SOL     OW84711   9.051   4.542  12.201  0.6506  0.4330  0.2571
59967SOL    HW184712   8.980   4.587  12.247  0.5701  0.4323  0.1342
59967SOL    HW284713   9.131   4.572  12.245  0.4930 -0.6780  1.3401
59968SOL     OW84714   9.445   4.395  10.745 -0.1133  0.3698  0.2296
59968SOL    HW184715   9.377   4.379  10.810 -0.1442  1.9081  0.6299
59968SOL    HW284716   9.519   4.429  10.796  0.3253  0.3813 -0.4013
59969SOL     OW84717   2.727   6.410   2.221  0.5139 -0.0902 -0.4045
59969SOL    HW184718   2.681   6.438   2.142 -0.9803  1.4161  0.9234
59969SOL    HW284719   2.659   6.410   2.289  2.3067  1.5619  1.5081
59970SOL     OW84720   8.196   3.282   7.984 -0.4400  0.4722 -0.5699
59970SOL    HW184721   8.221   3.372   8.001  1.3611 -0.0578 -0.2042
59970SOL    HW284722   8.157   3.252   8.066 -0.9517  0.8804 -0.6608
59971SOL     OW84723   6.131   7.769   2.455  0.3169  0.0169  0.7403
59971SOL    HW184724   6.124   7.846   2.399  1.8196 -1.0444 -1.0132
59971SOL    HW284725   6.222   7.770   2.486  0.3345 -0.9940  0.7572
59972SOL     OW84726   6.007  10.061   8.181  0.2868  0.2949 -0.0381
59972SOL    HW184727   6.091  10.035   8.144  0.5284  1.6831 -0.5241
59972SOL    HW284728   5.994  10.002   8.256  2.5241  1.1848  1.1281
59973SOL     OW84729  10.296  11.538   5.843  0.5797 -0.0682  0.0065
59973SOL    HW184730  10.298  11.443   5.841 -1.9574 -0.1769 -0.0733
59973SOL    HW284731  10.224  11.560   5.902  0.0978  1.7693 -1.1641
59974SOL     OW84732   7.491   0.645   7.836 -0.4219  0.1820 -0.1883
59974SOL    HW184733   7.575   0.685   7.815  0.9147 -2.5065 -0.2520
59974SOL    HW284734   7.513   0.561   7.876 -3.0760 -0.9352 -0.8646
59975SOL     OW84735   4.583   8.711   2.031 -0.0526  0.4718 -0.6086
59975SOL    HW184736   4.667   8.756   2.032  0.1207  0.1754 -1.3528
59975SOL    HW284737   4.557   8.709   1.939  0.1609 -1.3100 -0.6724
59976SOL     OW84738   3.830   6.530   0.796 -0.3161  0.3402 -0.2745
59976SOL    HW184739   3.799   6.580   0.721 -0.6030  0.8325  0.1624
59976SOL    HW284740   3.836   6.440   0.764 -1.0706  0.4300 -0.7041
59977SOL     OW84741   5.316   9.042  10.130  0.1720  0.1944 -0.1005
59977SOL    HW184742   5.349   9.112  10.074  1.7885 -2.3930 -2.6825
59977SOL    HW284743   5.271   8.983  10.070  0.5190 -1.9231  1.6020
59978SOL     OW84744   1.221   3.864   7.347 -0.2373 -0.6250 -0.0844
59978SOL    HW184745   1.268   3.932   7.396  1.2747 -1.2125 -0.6312
59978SOL    HW284746   1.271   3.784   7.363  0.2649 -0.8694 -2.4277
59979SOL     OW84747   1.613   2.296   9.543  0.8736 -0.1274  0.0084
59979SOL    HW184748   1.707   2.312   9.542  0.8747 -0.0709  0.8041
59979SOL    HW284749   1.589   2.290   9.450  1.5282  0.6029 -0.2218
59980SOL     OW84750  10.779   9.299  11.189 -0.1318  0.3139  0.2341
59980SOL    HW184751  10.867   9.268  11.210  0.0282  0.5732 -0.0392
59980SOL    HW284752  10.768   9.377  11.243 -0.2170  0.2459  0.3153
59981SOL     OW84753   2.302   3.782   0.894 -0.3224 -0.0567 -0.3980
59981SOL    HW184754   2.218   3.738   0.885 -0.6725  0.5531 -0.2014
59981SOL    HW284755   2.279   3.873   0.916  0.3779  0.1941 -0.6742
59982SOL     OW84756   6.484   4.662   4.753 -0.0516 -0.3303 -0.3748
59982SOL    HW184757   6.575   4.670   4.781 -0.3740 -1.1026  0.9818
59982SOL    HW284758   6.454   4.580   4.791 -1.9165  0.9070  1.0675
59983SOL     OW84759   6.647  11.783  11.966  0.2216 -0.0994 -0.1903
59983SOL    HW184760   6.629  11.708  11.910  2.7682 -0.8182 -0.1637
59983SOL    HW284761   6.644  11.747  12.055 -0.8342  0.3832 -0.0120
59984SOL     OW84762   7.631   3.011   2.906 -0.0015  0.3269 -0.6067
59984SOL    HW184763   7.722   3.029   2.932  0.0973 -0.6654 -0.2309
59984SOL    HW284764   7.613   3.076   2.837  1.0390  0.4357 -0.7993
59985SOL     OW84765  10.956   8.809   0.411 -0.1099 -0.5376  0.0565
59985SOL    HW184766  10.985   8.826   0.321 -0.2021 -0.7929 -0.0238
59985SOL    HW284767  11.015   8.860   0.466 -1.1372  1.0125 -0.2326
59986SOL     OW84768   6.897   6.814   9.428  0.0297 -0.1375  0.6628
59986SOL    HW184769   6.908   6.879   9.359  1.0671 -0.3847  0.5786
59986SOL    HW284770   6.846   6.858   9.495  0.1239  0.5304  0.3031
59987SOL     OW84771   7.867   7.385  11.052  0.3846 -0.0642 -0.5193
59987SOL    HW184772   7.886   7.296  11.082  4.0001 -0.1237 -2.3633
59987SOL    HW284773   7.777   7.381  11.019  0.6200 -3.2152 -1.0699
59988SOL     OW84774   3.050   7.320   4.991  0.3464  0.1976  0.9840
59988SOL    HW184775   2.970   7.300   5.040 -0.0253  0.9791  0.7004
59988SOL    HW284776   3.117   7.332   5.059  0.9740 -3.3267  1.1831
59989SOL     OW84777   2.204   7.168   8.424  0.6896 -0.2083 -0.4603
59989SOL    HW184778   2.270   7.156   8.356  1.2271 -1.1775  0.1944
59989SOL    HW284779   2.129   7.117   8.394  1.8388 -2.8625  0.8076
59990SOL     OW84780   0.109   5.241   4.649 -0.1799  0.0711  0.3862
59990SOL    HW184781   0.061   5.193   4.581  1.7291  0.0292 -1.0186
59990SOL    HW284782   0.145   5.318   4.603  0.0450  0.7631  1.6781
59991SOL     OW84783   4.970   6.968  10.049 -0.1554  0.5865  0.1347
59991SOL    HW184784   5.022   7.049  10.043 -0.3650  0.6715 -0.7193
59991SOL    HW284785   5.035   6.898  10.051  0.1062  0.8295  2.9848
59992SOL     OW84786   8.357   0.762  11.946  0.2307 -0.1603 -0.2229
59992SOL    HW184787   8.262   0.760  11.947  0.2035  0.6390  0.6904
59992SOL    HW284788   8.380   0.849  11.980  1.2777 -1.1738  1.9314
59993SOL     OW84789   6.596   3.969  10.266 -0.6968  0.2821 -0.1137
59993SOL    HW184790   6.676   4.005  10.304 -0.6358 -0.1256  0.1544
59993SOL    HW284791   6.625   3.893  10.216 -0.9562 -0.1222  0.3342
59994SOL     OW84792   4.543   3.486   4.454  0.2856  0.2780 -0.1422
59994SOL    HW184793   4.603   3.489   4.528  1.4991 -1.5427 -0.9814
59994SOL    HW284794   4.500   3.572   4.454  1.1308  0.7532  1.9091
59995SOL     OW84795   6.165  10.987   9.766 -0.1097 -0.0745 -0.7769
59995SOL    HW184796   6.226  10.994   9.693 -0.2380 -1.4558 -1.0268
59995SOL    HW284797   6.079  11.002   9.727  0.0640  3.2261 -0.2159
59996SOL     OW84798   7.649   6.457   6.332  0.0027 -0.0400  0.5734
59996SOL    HW184799   7.689   6.520   6.391  0.9560 -1.3047  1.3448
59996SOL    HW284800   7.566   6.496   6.307  0.8444  1.7998  0.4818
59997SOL     OW84801   0.426  12.434   8.143  0.1275  0.0154 -0.1094
59997SOL    HW184802   0.354  12.438   8.207 -0.2807 -0.8120 -0.4944
59997SOL    HW284803   0.482  12.507   8.166  0.1821 -0.4698  1.4438
59998SOL     OW84804   6.098   0.619   0.505  0.3172  0.1205 -0.2223
59998SOL    HW184805   6.087   0.601   0.598  1.9786  1.0652  0.1946
59998SOL    HW284806   6.085   0.534   0.462 -0.6745 -0.2842  0.8255
59999SOL     OW84807   3.308   5.906   0.255 -0.0900 -0.3310  0.1464
59999SOL    HW184808   3.219   5.910   0.219  0.4986 -0.1026 -1.3750
59999SOL    HW284809   3.323   5.812   0.271 -0.6542 -0.3562  0.5416
60000SOL     OW84810   1.360   9.214   8.691  0.0392 -0.3137  0.4706
60000SOL    HW184811   1.417   9.211   8.614 -0.7387 -1.1038 -0.0893
60000SOL    HW284812   1.327   9.125   8.700 -1.9148  0.3214  0.1585
60001SOL     OW84813  12.079   3.227   7.322  0.0130 -0.1345  0.3899
60001SOL    HW184814  12.154   3.212   7.380 -0.9067 -0.9529  1.4173
60001SOL    HW284815  12.081   3.153   7.261  0.0146 -0.1788  0.4436
60002SOL     OW84816   8.455   3.837  11.870 -0.0709  0.4943  0.1493
60002SOL    HW184817   8.546   3.849  11.896  0.1679  0.5882 -0.7057
60002SOL    HW284818   8.405   3.887  11.934  0.3064 -1.2881  1.9201
60003SOL     OW84819   0.683   4.846   2.427  0.1548  0.4960 -0.0966
60003SOL    HW184820   0.761   4.814   2.381  0.1496  1.4437 -0.7917
60003SOL    HW284821   0.705   4.838   2.520  1.6190  1.9925 -0.2644
60004SOL     OW84822   4.106   1.229   1.127  0.3293 -0.0557  0.2190
60004SOL    HW184823   4.194   1.251   1.095  1.1749 -1.0146  1.7968
60004SOL    HW284824   4.096   1.278   1.208  0.3127 -1.6523  1.2219
60005SOL     OW84825   0.636   6.061  10.136 -0.3078  0.0457 -0.1410
60005SOL    HW184826   0.639   6.116  10.214 -3.1055  0.7591 -0.4261
60005SOL    HW284827   0.650   6.123  10.064 -0.9157 -0.0357 -0.3338
60006SOL     OW84828  12.494   4.063  12.082 -0.3913  0.0815 -0.2093
60006SOL    HW184829  12.517   4.018  12.163  0.4264  3.9745  1.9731
60006SOL    HW284830  12.404   4.091  12.095  0.4227  2.6092  0.4388
60007SOL     OW84831   5.729   3.929  12.256 -0.4474  0.1845 -0.5523
60007SOL    HW184832   5.784   3.852  12.271  0.4375  1.3416  3.4921
60007SOL    HW284833   5.788   4.004  12.268 -2.1490  1.4623  0.4417
60008SOL     OW84834   4.509   9.481   8.123  0.3526 -0.3845  0.5299
60008SOL    HW184835   4.471   9.531   8.195  1.0549  0.4100  0.3571
60008SOL    HW284836   4.507   9.390   8.153 -2.5972 -0.5541  0.1381
60009SOL     OW84837   5.888  12.392  10.597 -0.0285 -0.4154  0.3706
60009SOL    HW184838   5.818  12.360  10.541 -1.0092 -0.2805  1.4793
60009SOL    HW284839   5.968  12.359  10.557 -0.7070 -0.4756 -0.9896
60010SOL     OW84840   0.007   7.505   9.049 -0.1420  0.3135 -0.7373
60010SOL    HW184841   0.008   7.447   8.973  1.0191 -0.8021  0.1060
60010SOL    HW284842  -0.042   7.457   9.116 -1.7849  1.5833 -0.9581
60011SOL     OW84843   3.338   9.764  11.959 -0.0123 -0.4328 -0.1522
60011SOL    HW184844   3.347   9.798  11.870 -0.4780 -0.0066 -0.0412
60011SOL    HW284845   3.406   9.809  12.009 -0.4237  0.1009 -0.0730
60012SOL     OW84846   0.939   9.483   3.514 -0.0759  0.5746 -0.2353
60012SOL    HW184847   0.937   9.388   3.506  0.1330  0.6611 -1.3816
60012SOL    HW284848   0.962   9.515   3.427  1.3832  1.6253  0.5010
60013SOL     OW84849  11.399  12.548   3.476  0.0801 -0.0073  0.0302
60013SOL    HW184850  11.436  12.630   3.511 -1.3101  0.3713  0.7025
60013SOL    HW284851  11.452  12.528   3.399  0.4967  1.4850 -0.0962
60014SOL     OW84852   9.944  11.363   5.715 -0.2357  0.1121  0.0387
60014SOL    HW184853   9.850  11.368   5.694  0.0284 -0.5245 -1.4112
60014SOL    HW284854   9.982  11.439   5.672 -0.2477  1.1007  1.7249
60015SOL     OW84855   3.977   1.973   8.757  0.1900  0.0607  0.0406
60015SOL    HW184856   3.902   1.938   8.708 -0.1157 -0.3473  0.7883
60015SOL    HW284857   3.988   1.914   8.831  0.4580  0.8278  0.6363
60016SOL     OW84858   3.204   2.306   8.603 -0.3356 -0.0996  0.3845
60016SOL    HW184859   3.114   2.290   8.632 -0.1760 -1.1091  0.3534
60016SOL    HW284860   3.201   2.292   8.508  0.5812 -4.0498  0.7515
60017SOL     OW84861   4.277   8.136  12.557 -0.4901  0.4137  0.1089
60017SOL    HW184862   4.224   8.058  12.541 -0.9265  0.3348  1.8075
60017SOL    HW284863   4.233   8.182  12.628 -0.4069  2.4047 -1.0561
60018SOL     OW84864   9.123   3.344   8.185 -0.5706 -1.1062  0.6557
60018SOL    HW184865   9.100   3.257   8.153 -1.5095 -1.3322  1.9117
60018SOL    HW284866   9.047   3.399   8.163 -0.1038 -0.6476  0.1319
60019SOL     OW84867   3.630   2.094   6.836 -1.0268 -0.5764  0.3288
60019SOL    HW184868   3.625   2.080   6.742  1.6597 -0.4440  0.0845
60019SOL    HW284869   3.553   2.146   6.858 -0.7822  0.9167 -2.0952
60020SOL     OW84870   1.806   4.596   4.885 -0.2580 -0.1077  0.2242
60020SOL    HW184871   1.809   4.683   4.845  0.2931 -0.3075 -0.1826
60020SOL    HW284872   1.865   4.543   4.831  2.1968  0.1059  2.4794
60021SOL     OW84873   6.382   4.872  12.450  0.2421  0.0944 -0.0973
60021SOL    HW184874   6.466   4.842  12.483  0.1852 -0.1408 -0.1684
60021SOL    HW284875   6.318   4.849  12.518  0.3529  1.0400  0.3492
60022SOL     OW84876   5.528   3.952   2.583 -0.1882 -0.1645  0.1879
60022SOL    HW184877   5.588   3.906   2.641  0.2730 -0.5257 -0.5502
60022SOL    HW284878   5.490   4.021   2.637  0.7745 -0.0284  0.7131
60023SOL     OW84879   4.319   7.364  12.192  0.4144  0.5470  0.0819
60023SOL    HW184880   4.239   7.412  12.170  0.0022  0.5950  1.5301
60023SOL    HW284881   4.293   7.307  12.265  1.3773 -0.4325 -0.3222
60024SOL     OW84882   7.040   5.344   8.224 -0.0375  0.0284  0.3789
60024SOL    HW184883   7.038   5.270   8.164 -0.6589  0.5914 -0.3125
60024SOL    HW284884   6.949   5.374   8.229 -0.1934 -0.6444  2.4232
60025SOL     OW84885   5.098   3.230   8.605 -0.2150 -0.5885 -0.3046
60025SOL    HW184886   5.009   3.260   8.585  0.1850  0.0933 -1.1087
60025SOL    HW284887   5.132   3.295   8.667 -0.0256 -0.4472 -0.5560
60026SOL     OW84888   2.198   7.116   2.220  0.7671  0.1752  0.2807
60026SOL    HW184889   2.261   7.158   2.162  1.4273  0.5562  1.2520
60026SOL    HW284890   2.115   7.160   2.201  0.7379 -0.3879 -1.0647
60027SOL     OW84891   7.551   7.303   3.781  0.9754 -0.5659 -0.2975
60027SOL    HW184892   7.640   7.334   3.767  0.2895  0.6706 -2.3543
60027SOL    HW284893   7.510   7.371   3.834  1.0834 -0.9248  0.2711
60028SOL     OW84894   8.740   7.804   8.114  0.0302 -0.0661  0.1946
60028SOL    HW184895   8.656   7.850   8.121 -1.7787 -2.8451 -1.2120
60028SOL    HW284896   8.781   7.818   8.199 -2.1745  0.8457  1.2023
60029SOL     OW84897   2.059   0.281   6.131  0.3028  0.2652  0.2785
60029SOL    HW184898   2.044   0.333   6.210  0.2897  1.5319 -0.5371
60029SOL    HW284899   1.983   0.223   6.126  0.4123  0.0201  1.3047
60030SOL     OW84900   0.717   1.267   6.924 -0.0429 -0.3541  0.8455
60030SOL    HW184901   0.651   1.299   6.862 -1.4960 -0.5663  2.2180
60030SOL    HW284902   0.741   1.343   6.976  1.0941 -0.2002  0.1285
60031SOL     OW84903  12.607   2.432   8.068 -0.8439 -0.2263 -0.2729
60031SOL    HW184904  12.544   2.416   7.997 -2.4504  0.4790  0.9252
60031SOL    HW284905  12.653   2.349   8.078 -1.3658 -0.6742 -1.3935
60032SOL     OW84906   1.640   1.353   4.195 -0.1354 -0.3247  0.2660
60032SOL    HW184907   1.609   1.385   4.110  0.1572 -1.1005 -0.1364
60032SOL    HW284908   1.572   1.294   4.225 -0.4058  0.2221  0.7472
60033SOL     OW84909   6.087   9.897   7.864  0.5430  0.1289 -0.0573
60033SOL    HW184910   6.171   9.921   7.826  0.7991 -0.0455  0.3848
60033SOL    HW284911   6.106   9.820   7.917 -0.0204 -0.2867 -0.4517
60034SOL     OW84912   7.415  11.644   3.154 -0.2233  0.1800  0.2921
60034SOL    HW184913   7.399  11.732   3.120  2.4322  1.5278  2.2112
60034SOL    HW284914   7.328  11.605   3.162 -1.2993  1.3518 -3.6099
60035SOL     OW84915  11.459   2.207   1.851  0.3480  0.4690 -0.4463
60035SOL    HW184916  11.474   2.231   1.942 -1.1943 -0.6981  0.1719
60035SOL    HW284917  11.451   2.291   1.805 -0.6272  1.1173  0.8337
60036SOL     OW84918  10.117   4.581   5.261 -0.5255  0.9362  0.6558
60036SOL    HW184919  10.162   4.575   5.177  1.0100  0.2729  1.4780
60036SOL    HW284920  10.042   4.522   5.253 -1.3282  2.0986 -0.7645
60037SOL     OW84921   2.338   0.571   6.925 -0.1028 -0.2949 -0.2142
60037SOL    HW184922   2.306   0.651   6.968 -0.1392 -0.7901  0.6957
60037SOL    HW284923   2.262   0.513   6.924 -0.1028 -0.2961 -0.9649
60038SOL     OW84924  11.820   2.175  12.229 -0.0163 -0.5576 -0.2372
60038SOL    HW184925  11.866   2.228  12.164  0.1554  1.3825  1.3750
60038SOL    HW284926  11.889   2.130  12.277  0.0104 -0.2773 -0.0061
60039SOL     OW84927   7.526  10.906   5.605  0.4433  0.1878 -0.5257
60039SOL    HW184928   7.476  10.862   5.674 -3.6884  3.4331 -1.0008
60039SOL    HW284929   7.604  10.940   5.649  0.7497 -2.3963  1.1266
60040SOL     OW84930  11.683   7.584   7.629  0.7438 -0.1384 -0.2588
60040SOL    HW184931  11.714   7.511   7.683 -0.2464 -0.5984 -0.2982
60040SOL    HW284932  11.750   7.652   7.641  1.4698 -0.8942  0.1002
60041SOL     OW84933   0.306   6.584   6.396  0.0883  0.2071  0.1060
60041SOL    HW184934   0.234   6.642   6.373  1.9579  2.3044 -0.9021
60041SOL    HW284935   0.266   6.514   6.447 -2.4030  2.1102  0.9456
60042SOL     OW84936   0.201   2.739  10.590  0.3089  0.3820 -0.2349
60042SOL    HW184937   0.149   2.717  10.512 -0.7816 -0.5025  0.6890
60042SOL    HW284938   0.181   2.668  10.651 -1.1322  2.4763  1.8898
60043SOL     OW84939   1.686   6.112   5.650 -0.2707  0.7673 -0.0210
60043SOL    HW184940   1.687   6.036   5.709 -1.0371  0.8265  0.0734
60043SOL    HW284941   1.662   6.186   5.707  2.0941  1.4128  0.2564
60044SOL     OW84942   7.509   2.707   7.796  0.1904 -0.7422 -0.8480
60044SOL    HW184943   7.453   2.760   7.740 -0.5550  0.2603  0.7866
60044SOL    HW284944   7.472   2.619   7.790  0.0373 -0.6207 -1.7932
60045SOL     OW84945   1.561  12.643   2.506  0.0260  0.1525  0.7702
60045SOL    HW184946   1.576  12.737   2.507  0.1791  0.1543 -0.5027
60045SOL    HW284947   1.648  12.604   2.499 -0.0363 -0.0934  1.2879
60046SOL     OW84948   6.832   1.338   4.753 -0.0292  1.3388  0.1158
60046SOL    HW184949   6.823   1.419   4.704  0.9259  0.4681 -1.5950
60046SOL    HW284950   6.784   1.273   4.701  0.3469  0.5439  0.7302
60047SOL     OW84951   6.140   5.673   5.325 -0.0514  1.0121  0.8558
60047SOL    HW184952   6.162   5.709   5.411 -1.3808  1.4347  1.0464
60047SOL    HW284953   6.200   5.717   5.264  1.1736  0.4164  1.5868
60048SOL     OW84954  12.419   7.794   9.495  0.1880  0.5066  0.4283
60048SOL    HW184955  12.427   7.792   9.400  0.7645 -0.7998  0.4826
60048SOL    HW284956  12.352   7.861   9.512  0.9803  1.6716 -0.8118
60049SOL     OW84957   9.671  10.498   8.198 -0.5927 -0.2200  0.2611
60049SOL    HW184958   9.658  10.593   8.188  0.3443 -0.0357  0.7326
60049SOL    HW284959   9.753  10.490   8.246 -1.3427 -1.2493  1.4337
60050SOL     OW84960   3.859  11.611   2.543  0.3839  0.4377 -0.5530
60050SOL    HW184961   3.885  11.578   2.457 -1.1142  1.0548 -1.2647
60050SOL    HW284962   3.886  11.703   2.544 -1.3563  0.9987 -1.1787
60051SOL     OW84963   7.259   8.396  11.391  0.6074  0.1494  0.2321
60051SOL    HW184964   7.188   8.333  11.402  0.4091  0.4953  1.0115
60051SOL    HW284965   7.223   8.479  11.423  1.0504  0.5365 -0.2466
60052SOL     OW84966  11.375   2.445   3.548 -0.3096  0.1508 -0.8431
60052SOL    HW184967  11.391   2.494   3.629 -1.1588  0.5310 -0.8881
60052SOL    HW284968  11.298   2.393   3.567  0.1840 -0.6597 -1.0331
60053SOL     OW84969   6.353   7.678   9.665 -0.2989  0.4503  0.5679
60053SOL    HW184970   6.343   7.599   9.719  0.8024  0.4429  0.7726
60053SOL    HW284971   6.270   7.684   9.617 -0.3271 -0.9467  0.3921
60054SOL     OW84972   5.373   5.883   6.907 -0.0413 -0.5453  0.0563
60054SOL    HW184973   5.432   5.919   6.841  1.6117 -2.0988  0.6117
60054SOL    HW284974   5.339   5.959   6.954  2.2457  0.3812  0.3059
60055SOL     OW84975   0.101   5.441   2.260  0.2215 -0.4846 -0.1204
60055SOL    HW184976   0.052   5.473   2.184  0.0368 -2.0881 -0.7247
60055SOL    HW284977   0.183   5.490   2.257 -0.8276  1.3701  0.2091
60056SOL     OW84978   1.352   4.738   8.671 -0.5803  0.2549  0.3542
60056SOL    HW184979   1.296   4.774   8.602 -1.7146 -0.6570  0.7722
60056SOL    HW284980   1.372   4.649   8.642 -0.2224  0.2086  0.7240
60057SOL     OW84981   6.283  10.775   2.946  0.2915 -0.2247  0.4577
60057SOL    HW184982   6.353  10.751   2.885 -0.2649  1.5452 -0.9899
60057SOL    HW284983   6.219  10.822   2.891 -1.8294 -1.3953  1.7949
60058SOL     OW84984   6.408   5.160   1.409 -0.5459  0.0019  0.5880
60058SOL    HW184985   6.399   5.072   1.446 -1.0916  0.4601  1.5724
60058SOL    HW284986   6.471   5.203   1.466 -0.8034  0.4684  0.5230
60059SOL     OW84987   1.255   1.630   4.208 -0.0400  0.1877 -0.3671
60059SOL    HW184988   1.205   1.708   4.184  1.1051  0.9312 -0.4037
60059SOL    HW284989   1.346   1.653   4.189  0.5188 -0.4734  1.3407
60060SOL     OW84990   6.129   6.422   5.604 -0.2365 -0.0886  0.6565
60060SOL    HW184991   6.038   6.449   5.615  0.0019  0.4392  1.4090
60060SOL    HW284992   6.176   6.503   5.585  0.1152 -0.3258  0.5093
60061SOL     OW84993   6.022   7.068   6.808 -0.0467  0.0463  0.2762
60061SOL    HW184994   5.991   6.995   6.755 -0.7985  0.6662 -0.1633
60061SOL    HW284995   5.977   7.057   6.892 -2.2859  1.4584 -0.6587
60062SOL     OW84996  11.107   6.708  12.554  0.2013 -0.2905 -0.2140
60062SOL    HW184997  11.198   6.730  12.577 -0.1812  0.3468  0.7299
60062SOL    HW284998  11.115   6.652  12.476  1.3714  0.2068 -0.4675
60063SOL     OW84999   0.993   6.442   2.110 -0.3414 -0.1319  0.6065
60063SOL    HW185000   0.904   6.409   2.096 -0.2100 -1.3952  2.4743
60063SOL    HW285001   1.045   6.365   2.132  1.2125  0.6107 -0.2852
60064SOL     OW85002   2.594   3.045   9.301  0.4862 -0.1311  0.2696
60064SOL    HW185003   2.644   3.034   9.221  0.0444  2.1735 -0.3895
60064SOL    HW285004   2.653   3.015   9.370  1.3893 -0.8532 -0.7804
60065SOL     OW85005   2.288   5.989   4.788  0.1546  0.2417  0.4741
60065SOL    HW185006   2.204   5.998   4.833 -0.0518  0.4930  0.0394
60065SOL    HW285007   2.295   5.896   4.767  0.8373 -0.1287  2.1566
60066SOL     OW85008   5.718   2.208   8.283 -0.0916  0.1093  0.1319
60066SOL    HW185009   5.665   2.210   8.203  0.8909  0.3730 -0.5213
60066SOL    HW285010   5.677   2.273   8.340 -0.8618 -0.1490 -0.1119
60067SOL     OW85011   7.639   7.861  11.011 -0.2347 -0.3671  0.0729
60067SOL    HW185012   7.621   7.801  10.938  0.0904  0.6667 -0.8804
60067SOL    HW285013   7.628   7.807  11.089 -0.6117 -1.5001 -0.7344
60068SOL     OW85014  10.676   3.037   1.599  0.0326  0.3645  0.2674
60068SOL    HW185015  10.769   3.052   1.586  0.1043 -0.8285 -0.7380
60068SOL    HW285016  10.634   3.073   1.521  0.0682 -2.8004 -1.3604
60069SOL     OW85017   8.180   9.692   6.415 -0.3411  0.0966 -0.2543
60069SOL    HW185018   8.205   9.672   6.325 -0.3702 -0.6012 -0.1118
60069SOL    HW285019   8.250   9.750   6.446  0.2149 -0.4878 -0.3980
60070SOL     OW85020   8.231   5.076  11.525 -0.4154  0.3783 -0.0369
60070SOL    HW185021   8.151   5.111  11.487  0.0838 -0.2203 -1.7522
60070SOL    HW285022   8.297   5.143  11.508 -0.8374  1.6962  2.9702
60071SOL     OW85023   6.804   3.570  10.569 -0.4897 -0.2596 -0.0925
60071SOL    HW185024   6.809   3.492  10.514  2.9464  0.4723 -1.0434
60071SOL    HW285025   6.788   3.642  10.507 -2.0275  0.0448  0.5945
60072SOL     OW85026   3.488  10.065   3.941 -0.2421  0.4216 -0.4775
60072SOL    HW185027   3.575  10.098   3.919 -0.0270  0.8493  0.9013
60072SOL    HW285028   3.497  10.029   4.030 -1.3786  0.1343 -0.4536
60073SOL     OW85029   2.797   5.921  12.629 -0.1479 -0.3850  0.0078
60073SOL    HW185030   2.850   5.949  12.703  0.7079 -0.3809 -0.5950
60073SOL    HW285031   2.729   5.866  12.667 -0.2305  0.3142  0.8895
60074SOL     OW85032  10.138  10.918   0.592  0.1782  0.1948 -0.2897
60074SOL    HW185033  10.192  10.847   0.626  1.0018  0.6869 -0.5306
60074SOL    HW285034  10.197  10.993   0.586 -0.5865  0.8092 -0.3713
60075SOL     OW85035   9.389   4.332   2.581 -0.2992  0.4470 -0.2970
60075SOL    HW185036   9.413   4.244   2.611  0.8819  0.9701  0.3407
60075SOL    HW285037   9.298   4.342   2.608 -0.0513 -0.0955  0.7764
60076SOL     OW85038   0.519   7.343   4.600  0.2143  0.8450  0.0563
60076SOL    HW185039   0.591   7.311   4.546  0.7028  2.6204 -0.4246
60076SOL    HW285040   0.441   7.330   4.546  0.7996  3.5020 -1.6309
60077SOL     OW85041   2.014   7.757   3.499 -0.1351  0.3581 -0.6112
60077SOL    HW185042   2.101   7.750   3.460  0.5008  2.1017  0.3838
60077SOL    HW285043   2.000   7.851   3.511 -2.6881  0.2200 -1.8452
60078SOL     OW85044   8.613   1.142   7.092  0.1340 -0.6359 -0.4746
60078SOL    HW185045   8.691   1.197   7.086 -0.0068 -0.2045  1.0472
60078SOL    HW285046   8.600   1.130   7.186 -1.7976 -0.4595 -0.6732
60079SOL     OW85047   7.783  10.437   3.789 -0.0818 -0.3937  0.7312
60079SOL    HW185048   7.834  10.422   3.709 -2.4035  1.4734 -1.2590
60079SOL    HW285049   7.725  10.360   3.794 -0.9475  0.1514 -0.3124
60080SOL     OW85050   9.532   6.661  11.199 -0.0123 -0.6404 -0.1101
60080SOL    HW185051   9.607   6.709  11.234 -0.2463 -1.2463  1.3231
60080SOL    HW285052   9.473   6.653  11.274 -2.1552  1.0025 -1.4957
60081SOL     OW85053  10.425   2.130   3.318 -0.7446  0.0378  0.7060
60081SOL    HW185054  10.342   2.114   3.363 -1.8491 -2.2788 -1.8511
60081SOL    HW285055  10.403   2.126   3.225  1.9083  1.5667 -0.0856
60082SOL     OW85056   5.730   0.454  11.619 -0.5602 -0.3055 -0.1472
60082SOL    HW185057   5.803   0.452  11.558 -0.4903 -2.1528 -0.0745
60082SOL    HW285058   5.735   0.540  11.660  2.5511 -0.8770  0.9750
60083SOL     OW85059   6.663   9.600   5.034  0.3079  0.2382  0.1845
60083SOL    HW185060   6.703   9.682   5.004 -1.4023  0.5670 -1.3116
60083SOL    HW285061   6.652   9.613   5.129  2.9911  0.4101  0.5534
60084SOL     OW85062   7.136  12.378   6.443 -0.3841  0.4804 -0.3779
60084SOL    HW185063   7.179  12.333   6.370  0.0158  1.2996 -0.6657
60084SOL    HW285064   7.112  12.308   6.504  0.3180 -0.1120 -0.7607
60085SOL     OW85065   1.013   0.359   3.719 -0.2472  0.0076 -0.1126
60085SOL    HW185066   1.008   0.355   3.623 -1.5828 -0.2265 -0.0573
60085SOL    HW285067   1.105   0.380   3.737  0.2189 -0.7300 -1.4168
60086SOL     OW85068   7.114  10.174   7.601  0.1491 -0.6188  0.3928
60086SOL    HW185069   7.103  10.126   7.683  1.1105 -2.5488 -0.5457
60086SOL    HW285070   7.025  10.201   7.577 -0.4112 -1.8103  1.0331
60087SOL     OW85071  11.452   6.621   8.600  0.4451 -0.5939  0.4841
60087SOL    HW185072  11.515   6.639   8.530  0.8145 -1.1352  0.6718
60087SOL    HW285073  11.440   6.527   8.598 -1.2460 -0.3856 -0.2892
60088SOL     OW85074   8.818   2.595  11.147  0.3634 -0.0786 -0.4176
60088SOL    HW185075   8.729   2.585  11.113  0.6606 -1.2338 -0.9178
60088SOL    HW285076   8.817   2.552  11.232  0.5764 -0.5776 -0.6648
60089SOL     OW85077   5.432  10.413   7.338  0.0108 -0.9167 -0.0710
60089SOL    HW185078   5.412  10.443   7.427  0.6372 -1.7763  0.3764
60089SOL    HW285079   5.349  10.421   7.290 -0.3950 -0.6853  0.6567
60090SOL     OW85080   2.716   4.372  12.538  0.2479  0.2035  0.0811
60090SOL    HW185081   2.796   4.367  12.589  0.2642  0.3745  0.0753
60090SOL    HW285082   2.683   4.283  12.536 -0.0669  0.2929  0.8873
60091SOL     OW85083   4.998   6.328   0.294 -0.4568 -0.1177 -0.1522
60091SOL    HW185084   4.913   6.368   0.277 -1.2713 -0.7944  2.0712
60091SOL    HW285085   4.979   6.236   0.311  0.8135 -0.4215 -0.2314
60092SOL     OW85086  10.965   7.925   1.104  0.4315  0.1596 -0.2284
60092SOL    HW185087  10.950   7.910   1.197 -1.4967 -0.3725 -0.5802
60092SOL    HW285088  10.930   8.012   1.087 -3.2789 -1.3203 -1.1733
60093SOL     OW85089   4.997   1.652   6.802  0.2695  0.3341 -0.1416
60093SOL    HW185090   4.976   1.736   6.763 -0.6525 -0.6508 -1.9023
60093SOL    HW285091   5.067   1.616   6.748 -0.5962 -0.7876 -0.5730
60094SOL     OW85092   7.661   9.340  12.146 -0.8462 -0.1300  0.3141
60094SOL    HW185093   7.626   9.391  12.219 -0.2716  2.0945 -0.8892
60094SOL    HW285094   7.616   9.374  12.069  0.9187 -0.1005 -0.7523
60095SOL     OW85095   7.880   8.874   2.365 -0.2978 -0.2960  0.4005
60095SOL    HW185096   7.941   8.842   2.299 -1.6779 -0.3834 -0.8739
60095SOL    HW285097   7.830   8.796   2.392 -1.8408  0.2402 -0.7544
60096SOL     OW85098   8.535   5.212   1.353 -0.2200 -0.1457 -0.1730
60096SOL    HW185099   8.584   5.250   1.279  0.9854 -1.2425  0.0168
60096SOL    HW285100   8.449   5.192   1.316  0.6730 -1.6048 -1.6178
60097SOL     OW85101   9.989   6.521   1.469 -0.2128  0.1962  0.2234
60097SOL    HW185102   9.903   6.563   1.478 -0.0095  0.4677  0.8987
60097SOL    HW285103  10.005   6.522   1.374 -2.0865 -2.1613 -0.2279
60098SOL     OW85104   2.435  10.572   9.889  0.4586  0.4090 -0.4084
60098SOL    HW185105   2.525  10.544   9.906  0.3432 -0.2003 -0.7503
60098SOL    HW285106   2.384  10.492   9.899  0.0585  0.5849 -0.9934
60099SOL     OW85107   0.320   7.711   7.888 -0.1808 -0.5047  0.5094
60099SOL    HW185108   0.399   7.761   7.908  0.8349 -1.5935 -0.6747
60099SOL    HW285109   0.297   7.737   7.799 -1.2974 -0.0508  0.9126
60100SOL     OW85110   7.129   4.234   6.080  0.9424  0.5372 -0.1130
60100SOL    HW185111   7.158   4.237   5.989  1.1721  1.2230 -0.0224
60100SOL    HW285112   7.048   4.182   6.078 -1.4250  3.9823 -1.3883
60101SOL     OW85113   1.521   4.759   4.094  0.5602  0.5471 -0.2127
60101SOL    HW185114   1.586   4.694   4.119  0.7136  0.6064 -0.4507
60101SOL    HW285115   1.491   4.731   4.007  0.0966  0.3893 -0.0082
60102SOL     OW85116   2.108   2.824   4.824  0.1028  0.1479  0.3108
60102SOL    HW185117   2.118   2.919   4.820 -0.0407  0.1637  0.3238
60102SOL    HW285118   2.187   2.790   4.784 -0.9951  0.2780 -2.1461
60103SOL     OW85119   6.105   3.630   6.196 -0.0263  0.1636  0.2829
60103SOL    HW185120   6.192   3.634   6.156 -0.8102  0.4513 -1.4687
60103SOL    HW285121   6.079   3.721   6.206 -0.8885  0.0893 -1.0186
60104SOL     OW85122   1.211   7.924   1.315  0.2769  0.6033 -0.3274
60104SOL    HW185123   1.175   7.878   1.392 -0.6984  0.1610 -1.0221
60104SOL    HW285124   1.257   7.999   1.352  1.8910 -0.8652  0.8585
60105SOL     OW85125  11.741  10.109   1.625 -0.3954  0.4617 -0.0602
60105SOL    HW185126  11.836  10.117   1.611 -0.5655  0.4361 -1.3152
60105SOL    HW285127  11.731  10.031   1.680  0.5197  2.3306  3.0233
60106SOL     OW85128   0.468   0.007   9.320 -0.0330  0.7668  0.1637
60106SOL    HW185129   0.407   0.053   9.377  0.0217  1.1065 -0.0493
60106SOL    HW285130   0.446   0.037   9.232 -0.1930  0.1585 -0.0114
60107SOL     OW85131  12.026   0.310   3.105 -0.0674  0.2185  0.4395
60107SOL    HW185132  11.962   0.252   3.146 -2.4693  2.0065 -0.4984
60107SOL    HW285133  11.974   0.384   3.073  2.1847  0.7760 -2.3611
60108SOL     OW85134   2.692   7.328   0.361 -0.4032 -0.1387 -0.0773
60108SOL    HW185135   2.643   7.247   0.346 -0.9784  0.2168 -0.1494
60108SOL    HW285136   2.706   7.364   0.273  0.7648 -0.6768 -0.1320
60109SOL     OW85137   0.287  10.230   2.532  0.0872 -0.3128 -0.3533
60109SOL    HW185138   0.296  10.240   2.627 -0.1660  0.0846 -0.3729
60109SOL    HW285139   0.212  10.284   2.509  0.7997  0.4557 -0.9371
60110SOL     OW85140   6.335  10.516   4.770  0.2820 -0.5164  0.6888
60110SOL    HW185141   6.263  10.513   4.833 -1.3302  2.1277 -0.7982
60110SOL    HW285142   6.389  10.590   4.799  0.8371 -0.7414  0.2497
60111SOL     OW85143   4.445  11.140   3.551  0.3654  0.3068  0.5379
60111SOL    HW185144   4.532  11.177   3.532 -0.6642  1.7052 -2.0695
60111SOL    HW285145   4.402  11.207   3.603  0.0830  0.7174 -0.2037
60112SOL     OW85146   4.532  11.335   2.260 -0.1965  0.2224  0.2104
60112SOL    HW185147   4.490  11.353   2.175 -0.6289 -0.1665  0.3329
60112SOL    HW285148   4.613  11.289   2.238 -0.2623  0.2063  0.0001
60113SOL     OW85149  12.122   4.985   9.798  0.1141 -0.3639  0.3809
60113SOL    HW185150  12.125   4.893   9.774 -0.5759 -0.7223  1.5760
60113SOL    HW285151  12.029   5.008   9.795  0.4343  0.9068 -1.9910
60114SOL     OW85152   8.720  10.754   8.292  0.1773 -0.1205  0.9916
60114SOL    HW185153   8.638  10.713   8.319 -0.3362  0.9507  1.0779
60114SOL    HW285154   8.788  10.696   8.327 -0.5342 -1.1321  0.7304
60115SOL     OW85155   3.359   3.519   0.254  0.5565 -0.4871  0.3267
60115SOL    HW185156   3.407   3.472   0.185 -0.0248  0.7267 -0.9739
60115SOL    HW285157   3.268   3.491   0.244  0.0806  1.2913 -0.9030
60116SOL     OW85158   4.356   1.224   0.980 -0.2877  0.4487  0.3621
60116SOL    HW185159   4.435   1.240   0.929 -0.3145  0.0022  0.1770
60116SOL    HW285160   4.284   1.254   0.923 -0.2721  0.5872  0.4151
60117SOL     OW85161   9.331  10.053   5.681 -0.0262  0.1239 -0.6119
60117SOL    HW185162   9.356  10.139   5.715 -1.4454 -0.4325  2.0581
60117SOL    HW285163   9.410  10.000   5.690 -0.4149 -0.1043  2.4190
60118SOL     OW85164   4.043  10.251  11.566  0.0559 -0.2202  0.6865
60118SOL    HW185165   3.991  10.312  11.619 -1.8080 -0.4500 -0.7569
60118SOL    HW285166   3.978  10.206  11.511  1.7047 -1.2802 -0.4912
60119SOL     OW85167   1.223   5.598   1.179 -0.0098 -0.4039 -0.8806
60119SOL    HW185168   1.285   5.656   1.134  0.5090  0.6132  1.0150
60119SOL    HW285169   1.153   5.657   1.207 -0.3678 -1.0197 -0.4787
60120SOL     OW85170   0.434  11.101  11.906  0.0330 -0.0619  0.1290
60120SOL    HW185171   0.393  11.134  11.826 -1.8009 -1.1725  0.5701
60120SOL    HW285172   0.409  11.164  11.973  0.5938  0.2375  0.0620
60121SOL     OW85173   4.653   4.661   7.720  0.1869  0.2960  0.4042
60121SOL    HW185174   4.733   4.712   7.732  1.8916 -2.1315  0.1375
60121SOL    HW285175   4.623   4.642   7.809  0.8181 -0.0695  0.5452
60122SOL     OW85176   5.795  10.378   3.468  0.7734 -0.1950  0.0747
60122SOL    HW185177   5.734  10.401   3.538  2.2444  0.5484  1.1704
60122SOL    HW285178   5.816  10.462   3.427  1.1485 -0.4332 -0.2277
60123SOL     OW85179   4.136   6.515   2.059  0.0070 -0.4633 -0.4187
60123SOL    HW185180   4.161   6.579   1.991  1.5985  0.2785  0.7927
60123SOL    HW285181   4.198   6.443   2.047 -1.4141 -1.5664 -1.4065
60124SOL     OW85182   8.236   2.168  10.172  0.1472  0.6635  0.5066
60124SOL    HW185183   8.281   2.252  10.161  2.3582 -0.7704 -2.5769
60124SOL    HW285184   8.258   2.140  10.261  0.9999  2.4111  0.8868
60125SOL     OW85185  10.773   2.303  11.518  0.2987  0.2153  0.5391
60125SOL    HW185186  10.784   2.396  11.539  0.2842  0.4195 -0.3091
60125SOL    HW285187  10.757   2.302  11.423  1.1451 -0.7250  0.3965
60126SOL     OW85188   0.767   2.712   6.236 -0.4041  0.3488 -0.4377
60126SOL    HW185189   0.743   2.710   6.328  0.2737  1.7299 -0.1946
60126SOL    HW285190   0.834   2.780   6.231  0.3265 -0.4302 -1.7795
60127SOL     OW85191   9.042   1.351   3.014 -0.7811  0.4224 -0.3129
60127SOL    HW185192   9.080   1.282   3.069 -0.8208  1.2616  0.7885
60127SOL    HW285193   9.079   1.432   3.048 -4.0128  1.3836  1.2980
60128SOL     OW85194  10.977  12.138   5.599 -0.5159  0.1230  0.0136
60128SOL    HW185195  11.023  12.061   5.633 -0.5573  0.0102 -0.1818
60128SOL    HW285196  10.938  12.108   5.517 -0.3667  0.4092 -0.1624
60129SOL     OW85197   5.381   1.534   7.841  0.4635 -0.0185 -0.3028
60129SOL    HW185198   5.343   1.514   7.755  1.1564 -0.0866 -0.6059
60129SOL    HW285199   5.382   1.630   7.844 -0.9283 -0.0106  0.2643
60130SOL     OW85200   0.351   2.846   7.980  0.7830  0.0045 -0.2261
60130SOL    HW185201   0.404   2.908   8.030  0.1555  0.9410 -0.6875
60130SOL    HW285202   0.362   2.872   7.889  0.3275 -0.4129 -0.4088
60131SOL     OW85203   8.839   5.887   8.543 -0.1071  0.1331  0.4232
60131SOL    HW185204   8.767   5.882   8.479  0.4774  1.0947 -0.3337
60131SOL    HW285205   8.858   5.981   8.550  0.1631  0.0009  1.6664
60132SOL     OW85206  12.496   0.727   8.094  0.0216  0.1150 -0.0912
60132SOL    HW185207  12.591   0.714   8.089 -0.0110 -1.7109  2.2609
60132SOL    HW285208  12.485   0.822   8.094  1.8564  0.3661 -0.0407
60133SOL     OW85209   6.601   9.781   5.953  0.0073  0.1714 -0.4043
60133SOL    HW185210   6.639   9.694   5.938 -1.1878 -0.3093 -0.7407
60133SOL    HW285211   6.639   9.809   6.036 -2.1077 -2.1450  1.4827
60134SOL     OW85212   9.454   3.353   3.266 -0.3828 -0.0570 -0.0075
60134SOL    HW185213   9.461   3.287   3.198  0.4520  0.9790 -0.9697
60134SOL    HW285214   9.542   3.390   3.273 -1.1022  1.8635 -0.4516
60135SOL     OW85215   8.288  12.011   8.147  0.3954 -0.3074 -0.6667
60135SOL    HW185216   8.360  11.993   8.207 -0.1990  0.0030  0.1544
60135SOL    HW285217   8.331  12.041   8.067  1.1594  0.7574  0.1087
60136SOL     OW85218   8.575   4.321  11.586  0.2599  0.2386  0.6108
60136SOL    HW185219   8.631   4.296  11.512 -1.0911 -0.9095 -0.0674
60136SOL    HW285220   8.586   4.249  11.649  0.1498  0.3929  0.8063
60137SOL     OW85221   7.508   0.408   4.682 -0.1087 -0.7549 -0.3547
60137SOL    HW185222   7.443   0.475   4.659  0.2188 -0.3181 -0.0462
60137SOL    HW285223   7.457   0.338   4.722 -0.2901  0.0861  0.9608
60138SOL     OW85224   8.079   9.239   2.877 -0.3014 -0.1658 -0.0609
60138SOL    HW185225   8.061   9.182   2.803 -0.5324 -0.6205  0.3346
60138SOL    HW285226   8.030   9.318   2.859 -2.4903 -1.2394  0.8135
60139SOL     OW85227   3.378   2.330   6.545 -0.0677 -0.2034 -0.1808
60139SOL    HW185228   3.469   2.309   6.522  0.1534  0.5702 -0.0605
60139SOL    HW285229   3.328   2.252   6.520  0.6894 -0.8100  0.1558
60140SOL     OW85230   6.612  10.914   1.767  0.4102 -0.2385 -0.0404
60140SOL    HW185231   6.662  10.993   1.789 -0.1033  0.1690 -0.3343
60140SOL    HW285232   6.540  10.913   1.831 -1.2092  1.0529 -1.7293
60141SOL     OW85233   2.952   3.618   3.816 -0.0062 -0.3050  0.3725
60141SOL    HW185234   2.983   3.649   3.731  3.2105 -2.6392  0.5046
60141SOL    HW285235   2.911   3.534   3.798  0.7779 -0.8558  1.0911
60142SOL     OW85236   5.923  11.056   3.235  0.2991  0.5874 -0.5578
60142SOL    HW185237   5.871  11.118   3.286 -0.6994 -0.0645 -0.7493
60142SOL    HW285238   5.943  11.102   3.154 -0.5072  0.6299 -0.7357
60143SOL     OW85239  12.570   2.907   8.016 -0.0896 -0.3410  0.1429
60143SOL    HW185240  12.622   2.827   8.005  0.6215  0.1659 -0.2823
60143SOL    HW285241  12.516   2.912   7.937  1.6080  0.8311 -1.0189
60144SOL     OW85242   4.603   4.053   7.779  0.5393  0.1167 -0.8117
60144SOL    HW185243   4.611   4.101   7.696  1.7156 -0.7310 -1.2149
60144SOL    HW285244   4.599   4.121   7.846  0.8199  0.7905 -1.4706
60145SOL     OW85245  10.259   4.916   9.594  0.3579 -0.4336 -0.3085
60145SOL    HW185246  10.336   4.972   9.602  1.1516 -1.6405  0.8559
60145SOL    HW285247  10.293   4.832   9.564 -0.7886 -0.4039 -1.8390
60146SOL     OW85248   0.648  11.323  12.326  0.3252 -0.5077  0.0540
60146SOL    HW185249   0.690  11.410  12.319 -0.0562 -0.4109 -1.5270
60146SOL    HW285250   0.572  11.338  12.381 -0.6709  0.5822 -1.5230
60147SOL     OW85251   6.111   6.644   0.064 -0.4456  0.3764 -0.1861
60147SOL    HW185252   6.181   6.680   0.119  0.7671 -1.5072 -0.4380
60147SOL    HW285253   6.049   6.605   0.127 -0.7426  1.0734 -0.0281
60148SOL     OW85254   2.997   2.484  11.592 -0.3157 -0.5389 -0.1858
60148SOL    HW185255   3.087   2.511  11.573  0.4307 -0.5976  2.7350
60148SOL    HW285256   2.999   2.388  11.585  0.0742 -0.5952  0.5838
60149SOL     OW85257   6.074  12.119   8.595  0.1919  0.0051 -0.4350
60149SOL    HW185258   6.072  12.173   8.516 -1.9800  1.6120  0.6171
60149SOL    HW285259   6.123  12.170   8.658  1.0785 -0.8438 -0.4094
60150SOL     OW85260   9.426   9.882   1.310 -0.1043 -0.0165  0.1258
60150SOL    HW185261   9.387   9.867   1.223  1.6830 -1.2216 -0.5318
60150SOL    HW285262   9.351   9.900   1.367 -1.5810 -1.5843 -1.1801
60151SOL     OW85263   6.970  10.414   7.016 -0.0066 -0.0453  0.0167
60151SOL    HW185264   7.024  10.488   7.045  0.4477 -0.6525  0.7608
60151SOL    HW285265   7.029  10.339   7.022 -0.5818 -0.5286 -0.3545
60152SOL     OW85266   1.509   5.440   9.417  0.3801  0.1623  0.4254
60152SOL    HW185267   1.589   5.483   9.387 -0.7562  1.8932 -0.2656
60152SOL    HW285268   1.521   5.348   9.395  1.6943  0.5762 -0.7122
60153SOL     OW85269   7.214   9.765   3.796  0.1809  0.2591 -0.2742
60153SOL    HW185270   7.249   9.785   3.883 -3.1654  3.2037  0.6555
60153SOL    HW285271   7.131   9.721   3.814 -1.1870  2.0523 -1.8518
60154SOL     OW85272   0.105   7.685   0.718  0.6208  0.0898  0.5743
60154SOL    HW185273   0.179   7.630   0.692  0.2984  0.4017 -1.1127
60154SOL    HW285274   0.086   7.739   0.641 -1.7180 -0.3890  0.7162
60155SOL     OW85275   5.443   7.734   0.736 -0.6587 -0.6009 -0.0345
60155SOL    HW185276   5.384   7.664   0.707 -0.5692 -0.9250  0.5451
60155SOL    HW285277   5.531   7.696   0.730 -0.2903  0.4086 -2.4808
60156SOL     OW85278   2.833   1.734   2.694 -0.2000  0.6842 -0.0912
60156SOL    HW185279   2.843   1.651   2.647  1.1720  0.2460  0.9009
60156SOL    HW285280   2.859   1.801   2.630  2.6768  0.0380  0.2389
60157SOL     OW85281   7.304   9.841   6.726 -0.0367 -0.0496  0.4270
60157SOL    HW185282   7.370   9.887   6.675  1.1233 -1.0408  0.9957
60157SOL    HW285283   7.258   9.911   6.774  0.5317  0.6575 -0.0340
60158SOL     OW85284   1.857   4.992   7.452 -0.3550 -0.1038 -0.5107
60158SOL    HW185285   1.918   4.923   7.475  2.1448  1.9155 -0.6507
60158SOL    HW285286   1.786   4.984   7.516 -0.3445 -2.9064 -0.7272
60159SOL     OW85287   5.228   3.976   4.417  0.1823  0.7420  0.2278
60159SOL    HW185288   5.176   4.044   4.375 -3.5260 -1.9744 -0.1033
60159SOL    HW285289   5.187   3.962   4.501  1.0073 -0.9025  0.4003
60160SOL     OW85290  11.189   8.979   2.759  0.0672 -0.4533 -0.0287
60160SOL    HW185291  11.185   8.898   2.708 -1.2484 -0.4195 -0.0122
60160SOL    HW285292  11.209   9.047   2.694  1.7832 -0.8394  0.0489
60161SOL     OW85293  12.541  11.583   2.410 -0.9748  0.4110  0.2850
60161SOL    HW185294  12.537  11.615   2.320  3.1461 -0.8023 -0.5241
60161SOL    HW285295  12.563  11.660   2.462  0.0731  0.5253 -0.3083
60162SOL     OW85296   5.336   8.163  10.252 -0.0670  0.2332 -0.4562
60162SOL    HW185297   5.309   8.255  10.243 -1.7063 -0.1339  0.3244
60162SOL    HW285298   5.254   8.115  10.261  0.7696 -0.7359  4.5104
60163SOL     OW85299   6.338   6.445   1.669 -0.2351 -0.4480  1.0134
60163SOL    HW185300   6.433   6.444   1.668 -0.1691  0.3617 -1.5839
60163SOL    HW285301   6.312   6.354   1.660  0.5067 -0.4384 -3.2640
60164SOL     OW85302  10.024   7.441   1.231  0.2059 -0.1045 -0.6409
60164SOL    HW185303   9.948   7.383   1.230 -0.2006  0.4235 -0.7730
60164SOL    HW285304  10.093   7.391   1.188  0.1973 -0.9369  0.2696
60165SOL     OW85305   5.751   1.232   6.489 -0.2267  0.4587 -0.4477
60165SOL    HW185306   5.743   1.270   6.402 -0.1907  1.9020  0.1471
60165SOL    HW285307   5.681   1.166   6.493  0.6315 -0.6096 -2.0218
60166SOL     OW85308   5.215  12.500   3.990  0.2073 -0.4281 -0.0931
60166SOL    HW185309   5.274  12.461   4.055  0.5719 -0.0186 -0.1718
60166SOL    HW285310   5.162  12.562   4.040 -0.1190 -0.7471 -0.0348
60167SOL     OW85311   2.859   1.561   7.239  0.1686  0.0215  0.2013
60167SOL    HW185312   2.899   1.521   7.316 -1.4834  0.0653  1.1179
60167SOL    HW285313   2.821   1.643   7.271 -1.5727 -0.5230 -0.3632
60168SOL     OW85314   1.998   2.471  10.299 -0.1550 -0.2846 -0.1060
60168SOL    HW185315   2.053   2.525  10.356  0.3779 -0.3537 -0.5469
60168SOL    HW285316   1.929   2.438  10.357 -1.5943  2.3097 -0.1876
60169SOL     OW85317   8.185   2.103   4.405 -0.5195  0.1861 -0.0306
60169SOL    HW185318   8.157   2.014   4.382 -1.0364  0.1948  0.5447
60169SOL    HW285319   8.264   2.117   4.353 -0.5876 -0.5063 -0.3351
60170SOL     OW85320   1.615   9.551   3.355 -0.0212  0.3229 -0.3442
60170SOL    HW185321   1.607   9.637   3.397 -1.8071 -0.6960  1.5417
60170SOL    HW285322   1.537   9.503   3.383  1.6641 -2.4581 -0.1122
60171SOL     OW85323   9.169   5.816   7.350  0.3653  0.2542  1.2187
60171SOL    HW185324   9.178   5.729   7.389 -0.7820 -0.3950  0.0904
60171SOL    HW285325   9.181   5.877   7.423 -1.0126 -0.9070  2.4680
60172SOL     OW85326   3.992   7.160   7.453  0.0902 -0.3186 -0.3796
60172SOL    HW185327   4.016   7.080   7.406  3.0308 -0.7084  1.5502
60172SOL    HW285328   4.075   7.200   7.477 -1.2824  2.9712 -0.5474
60173SOL     OW85329   5.957   4.983   2.664 -0.4087  0.6934 -0.0514
60173SOL    HW185330   5.955   4.963   2.758 -2.2897 -1.6608 -0.5022
60173SOL    HW285331   5.888   4.928   2.626  2.4536 -1.0961 -3.2933
60174SOL     OW85332   1.835   9.249  10.787 -0.3456  0.3218 -0.0800
60174SOL    HW185333   1.861   9.277  10.875 -0.7839 -0.3565  0.2727
60174SOL    HW285334   1.798   9.162  10.800  0.1187 -0.0225 -1.0231
60175SOL     OW85335  10.210   0.553  10.231  0.0288 -0.5444 -0.1472
60175SOL    HW185336  10.278   0.511  10.284 -0.8184 -1.3599  0.3288
60175SOL    HW285337  10.238   0.644  10.223 -0.4414 -0.0480  2.8211
60176SOL     OW85338  12.561  11.293   5.633  0.7038  0.1380  0.2501
60176SOL    HW185339  12.485  11.253   5.592  0.9284 -1.5766  1.4163
60176SOL    HW285340  12.553  11.271   5.726  2.0553  0.8760  0.5732
60177SOL     OW85341   7.513  10.110   1.514 -0.1116  0.2801  0.5548
60177SOL    HW185342   7.479  10.163   1.442  0.8739  0.5870  0.2908
60177SOL    HW285343   7.449  10.040   1.525  0.0039 -0.0971 -1.0032
60178SOL     OW85344   4.667   8.935  12.636  0.8498  0.1188 -0.1814
60178SOL    HW185345   4.687   8.922  12.729 -0.4353  1.6026  0.3435
60178SOL    HW285346   4.572   8.926  12.631  0.6978  1.8426 -1.0099
60179SOL     OW85347   7.062   3.920   1.222 -0.7640  0.1446  0.5054
60179SOL    HW185348   6.993   3.858   1.198 -1.4585  0.6840  1.0462
60179SOL    HW285349   7.045   3.997   1.169 -0.0947  0.0003  0.0684
60180SOL     OW85350   4.431   0.569  10.473 -0.2871  0.0872 -0.0500
60180SOL    HW185351   4.467   0.582  10.385 -1.9804  0.8739 -0.6762
60180SOL    HW285352   4.429   0.474  10.485  2.4286 -0.0186  0.2706
60181SOL     OW85353   4.281   0.949   4.337  0.4914 -0.2187  0.3881
60181SOL    HW185354   4.376   0.952   4.327  0.3161  0.8852 -1.6802
60181SOL    HW285355   4.259   1.028   4.387  0.5218  1.2012 -1.6761
60182SOL     OW85356   0.293   7.745   6.704  0.3545 -0.0395 -0.2998
60182SOL    HW185357   0.216   7.795   6.678  0.7605  1.6859  1.5358
60182SOL    HW285358   0.261   7.655   6.715 -1.4440  0.6488  0.5133
60183SOL     OW85359   1.251   8.885   9.086 -0.1440 -1.0264  0.8412
60183SOL    HW185360   1.259   8.843   9.172 -1.0400 -1.2041  0.8474
60183SOL    HW285361   1.235   8.978   9.106 -0.6828 -1.1239  0.8814
60184SOL     OW85362   7.872   1.973   3.281 -0.4570  0.3674 -1.3121
60184SOL    HW185363   7.883   2.025   3.201 -0.3503 -0.8790 -2.1469
60184SOL    HW285364   7.910   1.888   3.259  2.4772  0.8904  1.1224
60185SOL     OW85365   3.804   8.331   9.101 -0.4397 -0.0341  0.5015
60185SOL    HW185366   3.722   8.295   9.135  0.3021  0.0716  2.5272
60185SOL    HW285367   3.873   8.287   9.152  0.6974  1.0152 -0.0792
60186SOL     OW85368   8.598  10.085   7.120 -0.5861 -0.1459 -0.2921
60186SOL    HW185369   8.511  10.047   7.135 -1.1927  0.0536 -2.8603
60186SOL    HW285370   8.599  10.164   7.173 -1.8898 -0.2708 -0.0491
60187SOL     OW85371   8.595  11.471   4.591 -0.0166  0.2668 -0.3429
60187SOL    HW185372   8.626  11.386   4.622  1.2726  0.8571  0.0646
60187SOL    HW285373   8.657  11.496   4.523 -0.3587  0.8981 -0.4343
60188SOL     OW85374   6.830   2.568   7.343 -0.1918 -0.3047  0.3642
60188SOL    HW185375   6.795   2.644   7.298  0.0462  0.0861  0.8289
60188SOL    HW285376   6.906   2.601   7.391  0.4005 -1.0035 -0.0796
60189SOL     OW85377   1.478   0.714   4.408 -0.7296 -0.2710  0.7134
60189SOL    HW185378   1.507   0.649   4.472 -1.5834 -1.6615 -0.2558
60189SOL    HW285379   1.430   0.663   4.342  1.4198  0.8257 -1.9102
60190SOL     OW85380   3.574   4.404   4.002  0.1771 -0.0361 -0.2473
60190SOL    HW185381   3.533   4.449   4.076  2.3262  1.3365  0.1965
60190SOL    HW285382   3.501   4.381   3.945 -1.2557  1.8167  0.7104
60191SOL     OW85383  12.118  10.297   5.905  0.0611 -0.4220 -0.1540
60191SOL    HW185384  12.113  10.244   5.826 -0.6265  1.0143 -1.1248
60191SOL    HW285385  12.119  10.387   5.874  0.1855  0.1814  1.4683
60192SOL     OW85386   5.166  11.774   3.430 -0.0916 -0.4174 -0.3271
60192SOL    HW185387   5.080  11.762   3.471 -0.1466 -0.5219 -0.4690
60192SOL    HW285388   5.149  11.764   3.336 -0.0298  0.1916 -0.4050
60193SOL     OW85389   9.739   5.979   5.555 -0.2812 -0.0014  0.1289
60193SOL    HW185390   9.665   6.015   5.507  1.7519 -0.5790 -3.9016
60193SOL    HW285391   9.808   6.045   5.545  0.5394 -0.6042  1.5088
60194SOL     OW85392  10.045  11.333   8.509  0.1464 -0.0548 -0.3131
60194SOL    HW185393  10.140  11.321   8.506  0.1611 -0.1889  0.5249
60194SOL    HW285394  10.033  11.428   8.506  0.4325  0.1048  1.9735
60195SOL     OW85395   9.670   3.730  11.714 -0.4359  0.0624 -0.5620
60195SOL    HW185396   9.715   3.675  11.778 -0.1404  0.4128 -0.4711
60195SOL    HW285397   9.578   3.702  11.719 -0.3935  0.0038 -0.0766
60196SOL     OW85398   9.833   0.655   3.581  0.3243 -0.8153 -0.1622
60196SOL    HW185399   9.902   0.589   3.587  2.0258  0.8791 -0.2270
60196SOL    HW285400   9.813   0.661   3.487  0.4476 -0.9665 -0.1979
60197SOL     OW85401   5.109   0.389   7.636  0.4478  0.5296  0.0963
60197SOL    HW185402   5.133   0.464   7.691  0.6056  0.3095  0.3307
60197SOL    HW285403   5.024   0.361   7.670  0.7185  0.1558  0.4883
60198SOL     OW85404   5.054   1.997   7.600  0.0572 -0.4793  0.1025
60198SOL    HW185405   5.114   1.990   7.526  0.9491 -0.5558  0.8077
60198SOL    HW285406   5.096   1.944   7.669 -1.4209 -1.5270  0.2412
60199SOL     OW85407   8.635   6.412   5.369 -0.4736  0.0917 -0.5401
60199SOL    HW185408   8.585   6.435   5.291 -0.5284 -0.9528 -0.8269
60199SOL    HW285409   8.683   6.333   5.344 -0.7951 -0.4864  0.5998
60200SOL     OW85410   0.889   9.805   7.559  0.3141  0.6462 -0.1344
60200SOL    HW185411   0.895   9.875   7.494  0.2533  1.1770  0.4181
60200SOL    HW285412   0.937   9.839   7.635 -1.4050  0.9660  0.8685
60201SOL     OW85413   4.937   9.739  10.088  0.0024  0.1169  0.6674
60201SOL    HW185414   4.942   9.682  10.011  1.6645  0.3122  0.5945
60201SOL    HW285415   4.905   9.682  10.158 -1.7147 -0.0164 -0.1879
60202SOL     OW85416   1.454   4.946   5.351  0.0124  0.1283 -0.1445
60202SOL    HW185417   1.428   5.035   5.327  0.0907  0.4638  0.9822
60202SOL    HW285418   1.456   4.899   5.267  1.7259  1.6191 -1.0168
60203SOL     OW85419   2.182   0.125   3.903  0.3848 -0.1254  0.2173
60203SOL    HW185420   2.171   0.119   3.997  0.2293  0.8752  0.2784
60203SOL    HW285421   2.244   0.198   3.890  1.4914 -1.1401 -0.4004
60204SOL     OW85422   1.988  11.934  11.222 -0.0120  0.0458  0.1227
60204SOL    HW185423   2.045  11.891  11.157  1.0501 -0.8087  1.5679
60204SOL    HW285424   1.901  11.898  11.204 -0.1419  1.2488 -2.0123
60205SOL     OW85425   8.711  11.299   9.146 -0.5594 -0.1686  0.3107
60205SOL    HW185426   8.738  11.260   9.063 -0.4850  2.5038 -1.0199
60205SOL    HW285427   8.792  11.311   9.195 -0.4279 -0.3851  0.1464
60206SOL     OW85428   3.316  11.688   8.188  0.3786  0.2350  0.2594
60206SOL    HW185429   3.275  11.706   8.103  0.3016 -0.5764  0.1222
60206SOL    HW285430   3.300  11.768   8.239  1.4380  1.2121 -0.8667
60207SOL     OW85431  12.076   4.837  12.076 -0.6976 -0.0075 -0.9357
60207SOL    HW185432  12.095   4.913  12.020 -0.8693  0.0292 -0.9438
60207SOL    HW285433  11.993   4.858  12.118 -0.0876  0.4123  0.0988
60208SOL     OW85434   0.128   5.006   3.627 -0.0963 -0.1526  0.1763
60208SOL    HW185435   0.171   5.059   3.560 -0.6306 -0.7926 -0.7060
60208SOL    HW285436   0.153   4.916   3.605  0.2421 -0.3215  1.2359
60209SOL     OW85437   4.657   7.606   1.002  0.1875  0.1831 -0.0553
60209SOL    HW185438   4.619   7.583   1.086 -0.8129 -2.0601 -1.0620
60209SOL    HW285439   4.592   7.663   0.960 -0.2526 -0.3863 -0.1479
60210SOL     OW85440   8.701   3.576   0.996  0.2940  0.0019  0.8474
60210SOL    HW185441   8.739   3.663   0.978  0.6377 -0.1222  0.9671
60210SOL    HW285442   8.616   3.578   0.952  0.7359  0.0356 -0.0484
60211SOL     OW85443   1.420   0.022   1.373 -0.0643  0.1760  0.7773
60211SOL    HW185444   1.440   0.054   1.285  0.1589 -0.2712  0.6604
60211SOL    HW285445   1.327   0.038   1.384 -0.2218 -0.3068  0.2259
60212SOL     OW85446   6.396   8.407  12.272 -0.1533 -0.0329  0.3300
60212SOL    HW185447   6.307   8.433  12.298 -1.6006 -3.7735 -0.1711
60212SOL    HW285448   6.387   8.384  12.179  1.3852 -0.3026  0.2284
60213SOL     OW85449  12.398   9.146   7.209 -0.2121  0.1429  0.1239
60213SOL    HW185450  12.412   9.079   7.143  0.6511  0.3149  0.1258
60213SOL    HW285451  12.386   9.098   7.291  0.6762 -0.0093  0.1711
60214SOL     OW85452  11.604   2.225   4.330  0.1646 -0.3828  0.4969
60214SOL    HW185453  11.517   2.232   4.369  0.5078  0.0651  1.1962
60214SOL    HW285454  11.616   2.131   4.315 -0.4432 -0.4454  0.3807
60215SOL     OW85455   3.237   6.755   3.683 -0.4638  0.3562 -0.4131
60215SOL    HW185456   3.319   6.707   3.681 -0.5415  0.2327 -0.9315
60215SOL    HW285457   3.258   6.841   3.647 -0.7591 -0.0208 -1.5606
60216SOL     OW85458   1.396  10.909   0.138 -0.2737 -0.3187 -0.1118
60216SOL    HW185459   1.339  10.864   0.201 -1.4381 -0.4857 -1.2465
60216SOL    HW285460   1.422  10.990   0.182  0.5808 -1.3429  1.3562
60217SOL     OW85461   4.447   2.217  10.622 -0.8723 -0.4309  0.0056
60217SOL    HW185462   4.475   2.126  10.628 -3.5010 -1.3295  0.0547
60217SOL    HW285463   4.357   2.212  10.590 -2.2916  1.8940  3.1056
60218SOL     OW85464   2.916   2.584  11.843  0.0486  0.0952  0.4147
60218SOL    HW185465   2.839   2.632  11.813 -1.9532 -2.4205  1.2127
60218SOL    HW285466   2.949   2.540  11.765  0.0340  0.3062  0.2880
60219SOL     OW85467  11.963  11.620  10.441  0.2460 -0.1352 -0.0365
60219SOL    HW185468  11.882  11.661  10.470  0.2327 -0.4429  0.3689
60219SOL    HW285469  12.028  11.644  10.506  0.3948 -0.1948 -0.1611
60220SOL     OW85470   7.178   8.842   7.511 -0.8466  0.3022  0.6577
60220SOL    HW185471   7.245   8.878   7.569  1.3498  0.0712 -1.6045
60220SOL    HW285472   7.167   8.752   7.540  1.2128 -0.2140 -0.0508
60221SOL     OW85473   0.162   8.347   0.394  0.2566  0.1405  0.1719
60221SOL    HW185474   0.120   8.332   0.310 -0.0950 -0.6139  0.4675
60221SOL    HW285475   0.252   8.317   0.382 -0.0067 -0.7210  0.2844
60222SOL     OW85476   8.445   0.792   6.414 -0.1262  0.5372  0.1093
60222SOL    HW185477   8.452   0.847   6.337  5.0930 -0.1930 -0.3543
60222SOL    HW285478   8.495   0.838   6.482 -0.4208 -1.0427  1.4894
60223SOL     OW85479   5.615   3.459   1.820  0.0214 -0.4502  0.2800
60223SOL    HW185480   5.523   3.440   1.803  0.0500 -1.2562  0.9679
60223SOL    HW285481   5.613   3.529   1.886 -0.0847  0.2841 -0.4835
60224SOL     OW85482   7.600   3.888  11.362  0.2415  0.2254  0.4513
60224SOL    HW185483   7.618   3.981  11.349  2.4519  0.2785  3.1012
60224SOL    HW285484   7.516   3.886  11.408  0.8794  1.0259  1.6729
60225SOL     OW85485   0.612   9.797   4.022  0.3699 -0.3107 -0.0306
60225SOL    HW185486   0.645   9.804   3.932  2.0743  0.6218  0.6077
60225SOL    HW285487   0.537   9.856   4.024 -0.9457 -1.8490 -1.3242
60226SOL     OW85488   3.003   8.268   4.089 -0.4869 -0.6236  0.0753
60226SOL    HW185489   2.966   8.188   4.051 -2.3062  0.1939 -0.0225
60226SOL    HW285490   2.992   8.257   4.184 -1.8408 -0.0551  0.0182
60227SOL     OW85491  10.558   4.429   6.507 -0.0913 -0.0623 -0.6243
60227SOL    HW185492  10.475   4.383   6.499 -0.0375 -0.0778 -1.1424
60227SOL    HW285493  10.541   4.499   6.570  0.0677 -1.3362  0.8907
60228SOL     OW85494   1.305   8.570  11.586 -0.0120 -0.2445 -0.0817
60228SOL    HW185495   1.368   8.501  11.602 -0.0756 -0.6425 -1.4382
60228SOL    HW285496   1.358   8.648  11.567  0.0585 -0.0183  1.0050
60229SOL     OW85497   5.729   1.473   8.099 -0.0872 -0.7965 -0.3952
60229SOL    HW185498   5.638   1.457   8.125 -0.2231  0.7193  0.1509
60229SOL    HW285499   5.764   1.530   8.167  1.3152 -1.3942 -0.5663
60230SOL     OW85500   4.564   2.113   1.310 -0.1663 -0.3090 -0.0629
60230SOL    HW185501   4.556   2.052   1.236 -1.8167  0.4515 -0.5551
60230SOL    HW285502   4.574   2.199   1.269 -0.1417  0.0076  0.6026
60231SOL     OW85503  11.750   2.440   5.639  0.0903  0.1854 -0.3521
60231SOL    HW185504  11.788   2.423   5.726  0.1740 -0.7966 -0.5706
60231SOL    HW285505  11.792   2.521   5.610  0.2629  0.3791  0.4126
60232SOL     OW85506   5.333   4.018  10.372 -0.4308  0.3896  0.2532
60232SOL    HW185507   5.383   4.034  10.291 -0.0884  1.0977  0.5877
60232SOL    HW285508   5.242   4.037  10.348 -0.4720 -0.3745 -0.2210
60233SOL     OW85509   0.072   9.841   7.128 -0.1828 -0.1785 -0.4346
60233SOL    HW185510   0.007   9.900   7.090  0.0803  0.2292 -0.2531
60233SOL    HW285511   0.041   9.824   7.216  0.5168  0.9019  0.0444
60234SOL     OW85512  10.723   0.723  10.739 -0.0786 -0.3482 -0.1933
60234SOL    HW185513  10.772   0.685  10.812  2.0390  2.3978 -0.0351
60234SOL    HW285514  10.632   0.724  10.769  0.5636 -0.4117  1.9084
60235SOL     OW85515   2.484   7.392   9.788 -0.4215 -0.3225  0.0309
60235SOL    HW185516   2.434   7.470   9.766  0.9485  0.3627 -0.7809
60235SOL    HW285517   2.495   7.346   9.705  2.1693  0.7080 -0.3063
60236SOL     OW85518   4.807   4.659  12.134 -0.0217 -0.5648 -0.0966
60236SOL    HW185519   4.844   4.583  12.180 -1.0088 -1.6466 -1.0306
60236SOL    HW285520   4.713   4.652  12.149 -0.1719  0.1777 -0.6435
60237SOL     OW85521   0.326   3.018   5.387  0.2017  0.1715 -0.4236
60237SOL    HW185522   0.324   3.050   5.477  0.2810  0.2520 -0.4506
60237SOL    HW285523   0.235   3.020   5.358  0.1912  0.2571 -0.3844
60238SOL     OW85524   4.801   9.890   1.297  0.0532 -0.2178  0.2518
60238SOL    HW185525   4.819   9.860   1.208  0.6960 -0.7258  0.5450
60238SOL    HW285526   4.883   9.876   1.344  0.1391  1.3004  0.5908
60239SOL     OW85527   0.499   4.753  10.242 -0.1068  0.2603 -0.1245
60239SOL    HW185528   0.444   4.808  10.185 -0.6274  1.4927  1.4778
60239SOL    HW285529   0.505   4.803  10.323 -0.3390 -1.9300  1.3146
60240SOL     OW85530   1.682   9.461   5.617  0.0176 -0.1939 -0.2701
60240SOL    HW185531   1.606   9.451   5.560  2.2663 -0.7224 -3.4365
60240SOL    HW285532   1.684   9.554   5.638 -1.3286 -0.1270 -0.3766
60241SOL     OW85533  10.402   3.516   0.126 -0.4264 -0.7170 -0.2646
60241SOL    HW185534  10.436   3.477   0.046 -0.5698 -1.4742  0.0384
60241SOL    HW285535  10.479   3.528   0.182 -0.4007 -0.6684 -0.3095
60242SOL     OW85536   9.380   8.793  12.203 -0.8441  0.3749  0.1314
60242SOL    HW185537   9.367   8.885  12.178 -3.6247 -0.4685 -2.1038
60242SOL    HW285538   9.458   8.766  12.155  0.4348  1.6700  1.3661
60243SOL     OW85539   7.643   1.866   5.830  0.3422 -0.7442 -0.0902
60243SOL    HW185540   7.585   1.941   5.814 -0.0705 -1.4147 -1.9473
60243SOL    HW285541   7.665   1.873   5.923  1.7970  2.7300 -0.5085
60244SOL     OW85542   1.611   5.367  11.428 -0.1735 -0.3743  0.4341
60244SOL    HW185543   1.566   5.293  11.387  1.2551  0.4050 -2.8512
60244SOL    HW285544   1.702   5.339  11.434  0.1087  0.5514  0.6138
60245SOL     OW85545   7.136   4.730   5.648  0.4443 -0.2779 -0.4312
60245SOL    HW185546   7.225   4.700   5.668  0.9173  1.0262 -0.4888
60245SOL    HW285547   7.135   4.822   5.675 -0.5761  0.0122 -1.3956
60246SOL     OW85548   6.482   1.516   7.050  0.2509 -0.4709  0.4361
60246SOL    HW185549   6.470   1.519   7.145 -1.2223  0.9374  0.2423
60246SOL    HW285550   6.511   1.604   7.026 -1.9436  0.0007 -0.6973
60247SOL     OW85551  12.583   7.795   6.036  0.1923 -0.3242 -0.1933
60247SOL    HW185552  12.640   7.730   6.078 -0.0766  0.0690  0.8040
60247SOL    HW285553  12.570   7.862   6.103 -0.4793  0.1785 -0.8201
60248SOL     OW85554   7.225   9.440   1.151  0.0147  0.0724  0.4600
60248SOL    HW185555   7.189   9.374   1.210 -0.3310 -2.1501 -2.0375
60248SOL    HW285556   7.316   9.448   1.177  0.2432 -1.9516  0.4663
60249SOL     OW85557   8.429  10.565   2.737  0.5139  0.2582 -0.9554
60249SOL    HW185558   8.485  10.637   2.707  0.1632  0.3952 -1.2893
60249SOL    HW285559   8.400  10.522   2.656 -0.0204  0.3082 -0.7916
60250SOL     OW85560   5.600   7.986   6.975 -0.1662 -0.4841 -0.9672
60250SOL    HW185561   5.693   8.002   6.958  0.0947 -0.5757  0.2939
60250SOL    HW285562   5.598   7.941   7.060 -1.5330  2.2467  0.5705
60251SOL     OW85563   1.134   9.611  11.364  0.7695  0.5356 -0.3640
60251SOL    HW185564   1.081   9.564  11.299  0.0410  0.7170  0.1002
60251SOL    HW285565   1.081   9.686  11.390  1.7724  1.4137 -0.8077
60252SOL     OW85566   3.955   8.120   4.214 -0.4686 -0.1517 -0.4302
60252SOL    HW185567   4.037   8.094   4.257  0.8529  0.4698 -2.4474
60252SOL    HW285568   3.925   8.040   4.170  1.6815  0.5943 -3.6236
60253SOL     OW85569   8.754   0.831   3.944 -0.5148  0.0061 -0.3629
60253SOL    HW185570   8.804   0.772   3.888 -0.9000  1.2636 -2.1509
60253SOL    HW285571   8.711   0.774   4.008 -0.6077 -1.6036 -1.7937
60254SOL     OW85572   5.747   9.264   1.337 -0.0467 -0.1633 -0.9137
60254SOL    HW185573   5.765   9.335   1.398  1.5802 -1.4985  0.2564
60254SOL    HW285574   5.652   9.263   1.328 -0.1763  1.3797 -0.0272
60255SOL     OW85575   9.758   7.137   4.379  0.2541 -0.0772  0.1880
60255SOL    HW185576   9.748   7.052   4.336  0.5506 -1.2080  2.2241
60255SOL    HW285577   9.722   7.123   4.467  0.8156  1.7476  0.7389
60256SOL     OW85578   8.311   7.994   7.947  0.1400 -1.0835 -0.0565
60256SOL    HW185579   8.339   8.036   7.866 -2.5355  1.0925  0.0049
60256SOL    HW285580   8.255   7.921   7.918 -0.7968 -0.3216 -0.2029
60257SOL     OW85581   4.427   6.169   7.641 -0.3040  0.3141  0.0255
60257SOL    HW185582   4.423   6.257   7.678 -1.7611 -0.1545  1.0295
60257SOL    HW285583   4.385   6.176   7.555 -1.6259  0.3362  0.6632
60258SOL     OW85584   1.099  11.652   3.876 -0.2062 -0.1274  0.1290
60258SOL    HW185585   1.055  11.669   3.793 -1.6648 -1.2419  0.6307
60258SOL    HW285586   1.151  11.573   3.859  1.1213  0.8028 -0.2697
60259SOL     OW85587   5.305   6.677   9.735 -0.3477 -0.0462  0.0750
60259SOL    HW185588   5.304   6.683   9.830  0.5687  1.4855  0.0191
60259SOL    HW285589   5.396   6.661   9.712 -0.4703  0.1095 -0.5663
60260SOL     OW85590   6.427  10.929  10.626 -0.0108  0.2202  0.2006
60260SOL    HW185591   6.472  10.870  10.566 -0.6572  2.0664 -2.2597
60260SOL    HW285592   6.335  10.905  10.619 -0.0993  0.4917  0.4148
60261SOL     OW85593   7.566  10.416  12.070  0.4746  0.4013 -0.1782
60261SOL    HW185594   7.539  10.476  12.001  1.8109  2.3989  0.9275
60261SOL    HW285595   7.567  10.330  12.028  0.4988  1.4178 -2.4181
60262SOL     OW85596   6.264   6.449   7.075  0.1388 -0.2572 -0.2939
60262SOL    HW185597   6.312   6.377   7.115  0.6538 -0.6349 -1.5260
60262SOL    HW285598   6.242   6.508   7.147 -1.9803 -2.5516  1.0946
60263SOL     OW85599   8.959  10.283  10.746 -0.4226  0.2375  0.4364
60263SOL    HW185600   8.952  10.376  10.769  1.4685  0.5030  0.1688
60263SOL    HW285601   9.050  10.261  10.768 -0.3832 -1.1247 -0.9836
60264SOL     OW85602   4.086   9.460   5.816  0.9164 -0.1614 -0.1426
60264SOL    HW185603   4.044   9.374   5.815  0.6176 -0.0337  0.4072
60264SOL    HW285604   4.105   9.475   5.909  0.1985  0.7234 -0.1269
60265SOL     OW85605   8.367   1.355  10.811  0.1542 -0.2934  0.5169
60265SOL    HW185606   8.399   1.268  10.834  0.1003 -1.0496 -1.9640
60265SOL    HW285607   8.446   1.408  10.802  0.4261 -0.8801 -0.7980
60266SOL     OW85608   8.167   6.684   9.971 -0.4471 -0.1487  0.0609
60266SOL    HW185609   8.207   6.622   9.909 -1.3445  0.7561 -1.4959
60266SOL    HW285610   8.081   6.647   9.988 -0.2938 -0.2655  0.5840
60267SOL     OW85611  11.405  12.508  10.054  0.1438  0.0585  0.0392
60267SOL    HW185612  11.391  12.493   9.960 -0.6474  0.4892  0.0764
60267SOL    HW285613  11.336  12.570  10.078 -1.0405 -1.7024  1.3870
60268SOL     OW85614   1.540   3.792   8.984  0.2212 -0.0262 -0.1605
60268SOL    HW185615   1.543   3.789   8.888 -1.0350  1.1466 -0.2695
60268SOL    HW285616   1.580   3.876   9.007  1.1031 -0.5845  0.3990
60269SOL     OW85617   0.784   8.098   6.750  0.1724  0.1871  0.1660
60269SOL    HW185618   0.735   8.077   6.670  0.1043  0.0210  0.2514
60269SOL    HW285619   0.749   8.039   6.816  0.2593  0.2959  0.3093
60270SOL     OW85620  12.079   3.062   6.341  0.0250 -0.2206 -0.2830
60270SOL    HW185621  12.085   3.154   6.315 -0.3756  0.1944  1.0507
60270SOL    HW285622  11.985   3.042   6.339 -0.1681  0.2148  2.0672
60271SOL     OW85623   1.795  10.040   0.447  0.9220 -0.0391 -0.7028
60271SOL    HW185624   1.860  10.018   0.514  0.5367 -0.5610 -0.5024
60271SOL    HW285625   1.711  10.019   0.486  0.6363  0.4268 -1.0481
60272SOL     OW85626   0.542   8.021   9.423 -0.0861 -0.6264  0.0987
60272SOL    HW185627   0.464   7.976   9.390 -0.6847  0.1199  0.4543
60272SOL    HW285628   0.560   7.978   9.507 -0.7064 -0.1770  0.4770
60273SOL     OW85629   6.219   2.246   1.852  0.0307  0.0080 -0.2548
60273SOL    HW185630   6.176   2.307   1.792 -0.0503  0.2728  0.0706
60273SOL    HW285631   6.273   2.301   1.908 -0.6076 -0.1288  0.5245
60274SOL     OW85632   7.747  10.446   8.826 -0.1321 -0.5485 -0.3172
60274SOL    HW185633   7.719  10.466   8.915  0.7457 -0.7077  0.0066
60274SOL    HW285634   7.698  10.506   8.771 -0.0520  0.1434  0.3489
60275SOL     OW85635   4.173   4.714  11.281  0.3944 -0.0065 -0.2057
60275SOL    HW185636   4.135   4.794  11.318  0.9412  0.7085 -1.1438
60275SOL    HW285637   4.143   4.713  11.190 -1.1107 -1.8511  0.2531
60276SOL     OW85638   3.306   9.134   7.352 -0.0168 -0.9200  0.3089
60276SOL    HW185639   3.257   9.063   7.395 -0.3161 -1.3840 -0.7421
60276SOL    HW285640   3.395   9.100   7.343  0.0755 -0.7721  0.6811
60277SOL     OW85641   2.563  12.413  10.373 -0.0524  0.1256  0.0908
60277SOL    HW185642   2.554  12.471  10.449 -1.4078 -1.0738  0.9027
60277SOL    HW285643   2.622  12.460  10.314  0.6247  1.3243  1.6497
60278SOL     OW85644  11.856   2.245   1.060  0.1299  0.0059  0.4913
60278SOL    HW185645  11.911   2.277   1.132 -1.4671 -0.2326  1.8877
60278SOL    HW285646  11.818   2.163   1.093  0.6908 -1.0132 -1.3124
60279SOL     OW85647   7.542  12.441   5.427  1.3023  0.6985  0.1236
60279SOL    HW185648   7.553  12.374   5.494  2.3659  0.4403 -0.2900
60279SOL    HW285649   7.509  12.394   5.350 -0.2158  1.0422  0.5311
60280SOL     OW85650   1.283   7.900  10.731  0.1724  0.1070  0.5128
60280SOL    HW185651   1.377   7.920  10.727  0.0620  1.0639 -5.4701
60280SOL    HW285652   1.278   7.806  10.714  0.0146  0.1650  0.2412
60281SOL     OW85653   7.782   1.075   3.627  0.1219 -0.2380  0.3678
60281SOL    HW185654   7.708   1.095   3.684  0.4681  1.8292  0.1585
60281SOL    HW285655   7.746   1.020   3.558 -1.3398  1.1291  0.0063
60282SOL     OW85656   5.544   2.052   9.714  0.0455 -0.4069  0.1056
60282SOL    HW185657   5.610   2.083   9.776  0.0942  0.8598 -0.5311
60282SOL    HW285658   5.590   1.991   9.658  0.5662  0.1075 -0.0354
60283SOL     OW85659   5.975  12.064   3.453 -0.1551  0.5634 -0.2822
60283SOL    HW185660   5.930  12.007   3.515 -0.2134  1.4972  0.5671
60283SOL    HW285661   6.011  12.005   3.387 -1.1051 -0.3550 -0.0065
60284SOL     OW85662  12.542   4.761   5.359  0.0830  0.6080 -0.3869
60284SOL    HW185663  12.454   4.799   5.365  0.0181  0.2923  1.1037
60284SOL    HW285664  12.544   4.694   5.428  2.0555  1.8390  0.8686
60285SOL     OW85665   9.567   6.770   4.438  0.6087  0.2143 -0.1352
60285SOL    HW185666   9.602   6.795   4.353  0.6880  1.6463  0.2846
60285SOL    HW285667   9.472   6.767   4.426  0.6012  0.7055 -0.2050
60286SOL     OW85668   2.020   9.135   7.256 -0.0273  0.2966 -0.0377
60286SOL    HW185669   1.966   9.153   7.333  0.5341 -0.8003  0.6309
60286SOL    HW285670   2.070   9.216   7.242 -0.8199  0.8364  0.1624
60287SOL     OW85671  10.221   0.249   6.598  0.1086 -0.3316  0.0594
60287SOL    HW185672  10.171   0.189   6.543  0.6233 -1.5207  0.8418
60287SOL    HW285673  10.159   0.317   6.623 -0.1356  0.2558 -1.9646
60288SOL     OW85674  11.762   9.221  12.094  0.2031  0.0931  0.0938
60288SOL    HW185675  11.749   9.126  12.092 -0.4102  0.1875 -0.8366
60288SOL    HW285676  11.822   9.235  12.168 -0.0759 -0.9638  0.5385
60289SOL     OW85677   9.516   0.925  12.107  0.2764 -0.0975 -0.5725
60289SOL    HW185678   9.455   0.890  12.172  0.9750  0.8424  0.6129
60289SOL    HW285679   9.467   0.994  12.063  0.3931  0.4903  0.2077
60290SOL     OW85680   9.587   3.445   6.574  0.1656  0.2190  0.0254
60290SOL    HW185681   9.498   3.414   6.560  0.7085 -0.9039 -1.2073
60290SOL    HW285682   9.594   3.523   6.518  0.4386 -0.6607 -1.1997
60291SOL     OW85683   3.774   7.338   5.729 -0.1089 -0.4655  0.4704
60291SOL    HW185684   3.829   7.414   5.710  2.6696 -2.1648  1.0013
60291SOL    HW285685   3.836   7.265   5.732 -2.4905 -2.5884  1.0269
60292SOL     OW85686   1.999   1.001  11.657  0.5128 -0.0265 -0.2311
60292SOL    HW185687   1.917   1.037  11.623 -0.0839 -0.7487  0.4004
60292SOL    HW285688   1.990   0.907  11.647  0.7116 -0.2015  1.0388
60293SOL     OW85689   5.370   4.705  11.126 -0.5721  1.0451 -0.2924
60293SOL    HW185690   5.406   4.638  11.185 -1.9756  0.9323  0.4811
60293SOL    HW285691   5.424   4.783  11.143 -0.1507  0.6481  0.2297
60294SOL     OW85692   6.957   1.442   6.064  0.1006  0.5949 -0.4691
60294SOL    HW185693   6.968   1.367   6.004  1.0083  0.4217 -0.0990
60294SOL    HW285694   7.030   1.500   6.044  0.3980  0.5529  0.4466
60295SOL     OW85695  11.322   7.961   3.656  0.4127 -0.1368  0.4831
60295SOL    HW185696  11.410   7.970   3.619 -0.1785  0.5787 -0.8447
60295SOL    HW285697  11.282   8.047   3.645 -0.6640 -0.6148  0.4868
60296SOL     OW85698  10.480   7.768  11.426 -0.2162  0.2550 -0.4791
60296SOL    HW185699  10.471   7.779  11.521  0.5313  1.5619 -0.5382
60296SOL    HW285700  10.452   7.852  11.390  0.3683  0.0798 -1.3620
60297SOL     OW85701   5.327   4.024   7.270 -0.6249  0.6668  0.7220
60297SOL    HW185702   5.397   3.968   7.237 -1.4911  0.4659 -0.8667
60297SOL    HW285703   5.284   3.972   7.339 -2.2146 -1.2498 -1.5471
60298SOL     OW85704   8.019   1.144   3.184  0.4375 -1.1950  0.4212
60298SOL    HW185705   8.062   1.225   3.158 -1.4427 -0.3756 -0.3494
60298SOL    HW285706   7.984   1.161   3.271 -1.4016 -0.5240 -0.4050
60299SOL     OW85707   0.502   3.234  12.190 -0.0800 -0.2534  0.9910
60299SOL    HW185708   0.575   3.213  12.132  0.9981 -0.1628  2.2416
60299SOL    HW285709   0.463   3.313  12.153  0.3884 -0.3686  0.2320
60300SOL     OW85710   3.124   9.070  10.615  0.6305  0.7442  0.7564
60300SOL    HW185711   3.177   9.088  10.693 -1.2568 -0.8482  2.5215
60300SOL    HW285712   3.172   9.000  10.570 -0.3917 -1.5503  2.9750
60301SOL     OW85713  10.297  12.465   1.947  0.1235 -0.0578  0.0892
60301SOL    HW185714  10.239  12.520   1.894  0.1943 -0.1258 -0.0584
60301SOL    HW285715  10.239  12.397   1.983 -0.0925  0.4879  0.8013
60302SOL     OW85716   6.587   8.051   1.088 -0.1956 -0.3076 -0.1534
60302SOL    HW185717   6.591   8.036   1.183  0.7026  0.2765 -0.0817
60302SOL    HW285718   6.673   8.087   1.066 -1.2049  1.8925 -0.7754
60303SOL     OW85719   3.241   1.004  10.825 -0.4752  0.1064  0.0462
60303SOL    HW185720   3.255   0.984  10.732 -1.1466 -2.3013  0.3802
60303SOL    HW285721   3.279   1.091  10.837 -0.4765  0.5411 -2.4955
60304SOL     OW85722   7.536   9.703   2.890 -0.0258  0.1018  0.3613
60304SOL    HW185723   7.469   9.638   2.911 -0.6949  0.3329 -0.9834
60304SOL    HW285724   7.575   9.724   2.974 -1.6043 -0.0759  1.1737
60305SOL     OW85725   8.797   2.213   7.163  0.1258  0.7486  0.6470
60305SOL    HW185726   8.873   2.240   7.112  0.4091  1.1993  1.2885
60305SOL    HW285727   8.775   2.126   7.131 -1.2026  1.9148 -1.9433
60306SOL     OW85728   5.781   0.447  10.651  0.3751 -0.0700  0.5310
60306SOL    HW185729   5.763   0.521  10.709 -0.0431  0.2345  0.0129
60306SOL    HW285730   5.733   0.467  10.571 -2.1505 -2.2423  1.3581
60307SOL     OW85731   8.752  11.592  11.400  0.0717 -0.0055  0.1916
60307SOL    HW185732   8.670  11.637  11.422 -0.1059 -0.9512  1.5719
60307SOL    HW285733   8.780  11.632  11.318 -2.0385  0.0067 -0.5884
60308SOL     OW85734  12.426   0.628  11.306  0.1014  0.0594  0.1019
60308SOL    HW185735  12.515   0.641  11.271 -0.2261  1.0999 -0.3771
60308SOL    HW285736  12.390   0.716  11.314 -1.0657 -0.3735 -0.1664
60309SOL     OW85737   5.712   3.141  11.136 -0.3779  0.3017  0.2735
60309SOL    HW185738   5.662   3.221  11.121  0.7303  0.5617 -2.5032
60309SOL    HW285739   5.645   3.075  11.153 -1.4791  1.2996 -0.0333
60310SOL     OW85740   2.577   5.664   1.888  0.3392  0.2751 -0.1333
60310SOL    HW185741   2.621   5.660   1.804  0.8833 -0.2915  0.1764
60310SOL    HW285742   2.527   5.746   1.885  2.1649  1.4248 -0.1088
60311SOL     OW85743  10.952   8.038   7.629  0.2024 -0.0940 -0.3463
60311SOL    HW185744  10.946   8.127   7.664 -0.3322 -0.4391  0.4770
60311SOL    HW285745  10.874   8.027   7.575 -0.0360 -0.2503  0.0221
60312SOL     OW85746   2.145   4.753   8.746 -0.0254 -0.0874  0.3713
60312SOL    HW185747   2.219   4.808   8.772 -0.5829 -0.1848  2.2734
60312SOL    HW285748   2.071   4.813   8.741 -0.5007 -0.5068  1.8240
60313SOL     OW85749   2.014   3.796   0.084  0.1706 -0.1910  0.9201
60313SOL    HW185750   1.959   3.792   0.163 -1.0186 -3.7820  0.0796
60313SOL    HW285751   2.088   3.738   0.103  0.0971 -0.7507 -0.4204
60314SOL     OW85752   3.311   0.409   5.548  0.0263 -0.3842  0.7706
60314SOL    HW185753   3.226   0.368   5.532 -0.5106  0.1570  2.1325
60314SOL    HW285754   3.347   0.424   5.460 -1.6435  0.1279  0.1342
60315SOL     OW85755   1.031   7.578   0.347  0.5010 -0.1772 -0.8160
60315SOL    HW185756   0.971   7.524   0.297 -0.7213  0.8996 -0.5824
60315SOL    HW285757   0.976   7.648   0.383  2.1064  1.6763 -1.7422
60316SOL     OW85758  10.476   9.476   1.697  0.1144  0.1974 -0.1404
60316SOL    HW185759  10.412   9.548   1.703 -0.5171 -0.3532 -0.1363
60316SOL    HW285760  10.550   9.506   1.749 -0.4459  0.5376  0.4848
60317SOL     OW85761   7.290   2.616  11.922  0.0731  0.1167  0.2590
60317SOL    HW185762   7.282   2.655  12.009 -0.4694  0.8285 -0.1039
60317SOL    HW285763   7.383   2.627  11.899 -0.3289  2.5232 -0.4343
60318SOL     OW85764   5.948   5.841   9.601  0.5170 -0.3683 -0.1265
60318SOL    HW185765   5.945   5.910   9.535  1.5703 -1.5530 -1.4626
60318SOL    HW285766   5.959   5.760   9.551 -1.1767 -1.6025  1.3478
60319SOL     OW85767   3.737   3.803   5.628 -0.3090  0.8057 -0.4348
60319SOL    HW185768   3.667   3.789   5.691  0.9749  0.4317  0.9445
60319SOL    HW285769   3.692   3.808   5.543 -1.8854 -0.4919  0.2841
60320SOL     OW85770   1.524   4.721   8.122 -0.2848  0.0401 -0.4773
60320SOL    HW185771   1.528   4.636   8.080 -1.4699 -1.6916  2.5520
60320SOL    HW285772   1.481   4.778   8.058  1.6590 -1.2162 -3.0599
60321SOL     OW85773   5.162   1.730   7.383  0.3896 -0.1029  0.4385
60321SOL    HW185774   5.204   1.669   7.322  0.2715 -0.8909  1.1315
60321SOL    HW285775   5.179   1.816   7.345  1.3762 -0.4951 -0.0567
60322SOL     OW85776   1.272  11.532   8.773  0.3309 -0.0818 -0.0643
60322SOL    HW185777   1.357  11.557   8.810  0.3325 -0.4066  0.1551
60322SOL    HW285778   1.253  11.447   8.812  0.4014 -0.5022 -0.9248
60323SOL     OW85779  11.441   1.386   2.946  0.1326 -0.3231 -0.4786
60323SOL    HW185780  11.427   1.314   2.884  0.8169  0.6427 -1.8100
60323SOL    HW285781  11.409   1.463   2.900 -1.3081  0.1484  1.2339
60324SOL     OW85782   4.263  12.208   8.672  0.5229 -0.0851 -0.1790
60324SOL    HW185783   4.173  12.192   8.701  0.5033 -0.8248 -0.6370
60324SOL    HW285784   4.286  12.291   8.713 -0.7589  0.6828 -0.9391
60325SOL     OW85785  12.487   9.124   1.568 -0.0858  0.2146 -0.2395
60325SOL    HW185786  12.558   9.188   1.559  1.0268 -0.8220  0.8645
60325SOL    HW285787  12.452   9.140   1.656  1.2952 -1.7141  0.7212
60326SOL     OW85788   5.408   4.929  12.166  0.4354  0.1583 -0.7404
60326SOL    HW185789   5.423   4.948  12.074 -1.4202 -2.8273 -1.8191
60326SOL    HW285790   5.323   4.969  12.186 -0.4389 -1.4000 -1.1743
60327SOL     OW85791   8.516   2.238   9.428 -0.4318 -0.3175 -0.5201
60327SOL    HW185792   8.588   2.250   9.490 -1.5057  1.6366  0.4472
60327SOL    HW285793   8.503   2.143   9.425 -0.4002 -0.4940  2.3430
60328SOL     OW85794   6.106  10.298   4.196 -0.8541  0.1500  0.0811
60328SOL    HW185795   6.190  10.314   4.238 -0.1290 -2.2125 -0.3214
60328SOL    HW285796   6.119  10.323   4.105 -0.5209 -0.3271 -0.0083
60329SOL     OW85797   8.497   9.701   0.927  0.3385 -0.7115 -0.1669
60329SOL    HW185798   8.580   9.690   0.881  0.5610 -1.0207  0.3113
60329SOL    HW285799   8.450   9.619   0.913  0.0581 -0.4922 -0.5399
60330SOL     OW85800   4.680   3.790   5.196  0.0090  0.0592  0.1148
60330SOL    HW185801   4.762   3.748   5.169 -0.4291 -0.8180  0.1162
60330SOL    HW285802   4.613   3.724   5.178 -0.7429  0.9173 -0.2302
60331SOL     OW85803   0.571   9.438   9.833  0.6232  0.3647 -0.3683
60331SOL    HW185804   0.579   9.520   9.783 -0.8462 -0.0045 -1.2773
60331SOL    HW285805   0.493   9.450   9.886  0.6106 -0.3097 -0.2278
60332SOL     OW85806   7.806   0.393  11.322 -0.0159 -0.4056 -0.5466
60332SOL    HW185807   7.763   0.323  11.273 -0.5007 -0.1233 -0.5293
60332SOL    HW285808   7.899   0.368  11.325  0.1781  0.0174 -2.3492
60333SOL     OW85809   4.213   1.279  10.013  0.0678  0.0391  0.0513
60333SOL    HW185810   4.135   1.334  10.022 -0.0938 -0.4800  2.3697
60333SOL    HW285811   4.265   1.321   9.944 -2.4901  0.0577 -2.0242
60334SOL     OW85812  11.172   7.645   6.172  0.2284  0.4166  0.3927
60334SOL    HW185813  11.251   7.678   6.129 -0.9593 -1.0564 -3.2924
60334SOL    HW285814  11.202   7.570   6.223  1.3860  0.6038  0.0104
60335SOL     OW85815   3.540   0.242   0.211  0.2256  0.0547 -0.4883
60335SOL    HW185816   3.491   0.275   0.287  2.7074 -0.3017  1.4016
60335SOL    HW285817   3.601   0.178   0.249  1.4610 -0.2469 -2.8411
60336SOL     OW85818  10.106  12.137  11.923  0.5846  0.2942 -1.0349
60336SOL    HW185819  10.148  12.218  11.953 -0.3578  0.4827 -0.1779
60336SOL    HW285820  10.152  12.067  11.971  2.0772  0.1903 -2.5142
60337SOL     OW85821   8.878  12.112   4.273  0.4107 -0.5010  0.3150
60337SOL    HW185822   8.926  12.134   4.193  0.4943  1.2641  0.8128
60337SOL    HW285823   8.926  12.156   4.343 -0.0259 -1.4977  1.2751
60338SOL     OW85824   7.084   8.757  11.670  0.0720  0.0528 -0.0025
60338SOL    HW185825   7.134   8.819  11.723 -1.3683  0.8362  0.5031
60338SOL    HW285826   7.003   8.743  11.719  0.5437 -2.6573  0.1563
60339SOL     OW85827   8.465  10.456   2.997 -0.6693  0.3751  0.8213
60339SOL    HW185828   8.371  10.470   3.011 -1.5187 -2.3799 -1.2132
60339SOL    HW285829   8.480  10.481   2.906  0.4116  0.0505  0.8915
60340SOL     OW85830   1.762   7.299   6.450 -0.1606 -0.3003  0.0803
60340SOL    HW185831   1.712   7.328   6.527  1.7261  1.3975  0.7322
60340SOL    HW285832   1.747   7.204   6.447 -1.8679 -0.1219  1.3505
60341SOL     OW85833   2.342   6.131   3.397  0.1343 -0.4186 -0.7759
60341SOL    HW185834   2.362   6.044   3.361  0.8665 -0.1989 -0.9111
60341SOL    HW285835   2.400   6.190   3.350  2.4279 -0.3321  1.9277
60342SOL     OW85836  11.669   5.145   0.768  0.1507 -0.2073 -0.3457
60342SOL    HW185837  11.700   5.206   0.702  1.3141 -1.5254 -1.0928
60342SOL    HW285838  11.657   5.063   0.721 -1.6488 -0.5078  0.5618
60343SOL     OW85839  11.223   4.520   6.793 -0.1666 -0.6480 -0.0049
60343SOL    HW185840  11.254   4.574   6.866  1.4477 -1.7338  0.1479
60343SOL    HW285841  11.174   4.449   6.835 -1.6846  0.2525 -0.1708
60344SOL     OW85842   5.733   6.238   7.851 -0.1550 -0.8216 -0.0719
60344SOL    HW185843   5.641   6.265   7.844  0.1236  0.0471 -0.4060
60344SOL    HW285844   5.751   6.237   7.945 -0.1274  0.3295 -0.0518
60345SOL     OW85845  10.740  12.339   2.141 -0.2013 -0.0181 -0.2592
60345SOL    HW185846  10.814  12.326   2.081  0.5230 -1.0318  0.7963
60345SOL    HW285847  10.663  12.314   2.090  0.1398  1.2264 -1.4382
60346SOL     OW85848   8.863   4.038   8.391  0.5924  0.7173  0.2783
60346SOL    HW185849   8.796   4.091   8.348  1.9372  2.0368 -0.2863
60346SOL    HW285850   8.946   4.083   8.371  1.8159 -1.5867 -0.1960
60347SOL     OW85851  10.391  11.557   6.933 -0.3464 -0.3981  0.2810
60347SOL    HW185852  10.433  11.642   6.925  2.2113 -1.5145  0.9388
60347SOL    HW285853  10.370  11.532   6.843 -0.1381  0.4342 -0.0062
60348SOL     OW85854   1.508  12.573   8.722 -0.8979 -0.3615 -0.0513
60348SOL    HW185855   1.477  12.549   8.810 -0.6120 -1.1271 -0.1455
60348SOL    HW285856   1.468  12.508   8.664 -1.1870  0.2179 -0.5084
60349SOL     OW85857   9.121   1.020   4.128  0.0808  0.1643 -0.2746
60349SOL    HW185858   9.125   1.021   4.224 -1.9362  0.9214 -0.1490
60349SOL    HW285859   9.106   0.928   4.106 -3.3552  0.4224  0.4530
60350SOL     OW85860   8.042   0.465   0.997 -0.1271 -0.3285  0.3994
60350SOL    HW185861   8.095   0.423   0.929  0.5222  1.3369 -0.1790
60350SOL    HW285862   8.075   0.555   1.001 -1.3025  0.0807  1.7427
60351SOL     OW85863   6.500   6.763   8.688  0.0825 -0.0500  0.3213
60351SOL    HW185864   6.457   6.826   8.631 -0.3079  0.8229  1.5321
60351SOL    HW285865   6.461   6.678   8.665 -1.4068  0.5424  0.5258
60352SOL     OW85866   1.886  12.076  10.974 -0.8835 -0.2546  0.1971
60352SOL    HW185867   1.902  12.014  11.044  0.1636  0.7628  0.8864
60352SOL    HW285868   1.791  12.088  10.974 -0.8438  0.2629  1.9258
60353SOL     OW85869   6.202   1.807   4.231 -0.0419  0.1146 -0.3253
60353SOL    HW185870   6.162   1.836   4.149 -1.1508  0.6482  0.3783
60353SOL    HW285871   6.254   1.730   4.207  0.7791  1.0725 -1.7555
60354SOL     OW85872   9.691   7.751   6.639 -0.2344  0.0662  0.5246
60354SOL    HW185873   9.682   7.824   6.700 -2.2671 -0.6832  1.2042
60354SOL    HW285874   9.647   7.782   6.559  1.2236  0.5335 -0.1290
60355SOL     OW85875  10.585   9.811  12.438 -0.2700  0.2820  0.1948
60355SOL    HW185876  10.670   9.773  12.462 -0.5280 -1.7026 -1.7026
60355SOL    HW285877  10.524   9.738  12.444 -1.7428  1.5120  0.8028
60356SOL     OW85878   1.420   6.048   5.039  0.1348  0.0745  0.0705
60356SOL    HW185879   1.328   6.045   5.067  0.4337 -0.5681  1.0269
60356SOL    HW285880   1.433   5.965   4.992  0.3599 -0.0478  0.3527
60357SOL     OW85881   2.390   5.292   0.551 -0.6024 -0.1428  0.4337
60357SOL    HW185882   2.486   5.288   0.547 -0.6606 -1.7212 -0.3411
60357SOL    HW285883   2.361   5.239   0.477 -2.0865  0.7198  0.3667
60358SOL     OW85884   8.550   4.227   0.582  0.0982 -0.0039  0.1065
60358SOL    HW185885   8.555   4.276   0.499  1.5747 -0.4381 -0.0806
60358SOL    HW285886   8.630   4.251   0.628  0.5491 -1.7687  0.2814
60359SOL     OW85887   4.099   1.198   5.351  0.8010  0.3390 -0.0151
60359SOL    HW185888   4.191   1.182   5.332  0.2560 -1.4852 -1.3433
60359SOL    HW285889   4.060   1.111   5.356 -0.4449  0.9387  2.8917
60360SOL     OW85890   6.474   4.774   1.265  0.0712 -0.3169 -0.4620
60360SOL    HW185891   6.483   4.697   1.322  0.0844  0.5290  0.7222
60360SOL    HW285892   6.520   4.844   1.312 -2.1863  1.0793 -0.2129
60361SOL     OW85893   5.066  11.970   1.396  0.8934  0.3786  0.1727
60361SOL    HW185894   5.145  11.926   1.364  1.1158  0.6325  0.3633
60361SOL    HW285895   5.099  12.046   1.444  0.5188  0.6808 -0.0397
60362SOL     OW85896   6.515  11.476  12.277 -0.0483 -0.2614  0.2119
60362SOL    HW185897   6.564  11.435  12.206 -0.0644  1.5043 -0.8745
60362SOL    HW285898   6.574  11.471  12.352  0.3484 -1.3206 -0.1541
60363SOL     OW85899  10.260   9.186   8.251  0.4957  0.1278 -0.0400
60363SOL    HW185900  10.164   9.187   8.245  0.3681  1.2155  1.5955
60363SOL    HW285901  10.278   9.148   8.338  1.4796  1.3227  0.3046
60364SOL     OW85902   9.701   9.321   1.083  0.2177  0.1558  0.0141
60364SOL    HW185903   9.622   9.372   1.066  0.3935  0.6532  0.6460
60364SOL    HW285904   9.693   9.244   1.027 -0.6875  0.2299  0.0329
60365SOL     OW85905   9.176  11.935  12.620  0.1131  0.0977 -0.2728
60365SOL    HW185906   9.272  11.930  12.625  0.3036  1.8478 -1.6695
60365SOL    HW285907   9.155  11.903  12.533 -0.6309 -0.5496  0.1302
60366SOL     OW85908   4.863   4.883   8.304  0.1320  0.6984  0.0351
60366SOL    HW185909   4.824   4.799   8.327 -2.1780  1.5779 -0.4383
60366SOL    HW285910   4.791   4.934   8.268  1.7868  2.3907 -1.0467
60367SOL     OW85911   3.302   1.185   0.611 -0.6631  0.2802 -0.2178
60367SOL    HW185912   3.319   1.279   0.621 -2.3025  0.4578  1.3492
60367SOL    HW285913   3.224   1.169   0.664 -0.0043 -2.1131  0.1382
60368SOL     OW85914   6.098   5.909   2.805  0.6662  0.4081  0.3803
60368SOL    HW185915   6.179   5.857   2.801  1.0929  0.9342  1.4807
60368SOL    HW285916   6.044   5.876   2.733  0.3747 -2.4642  1.7516
60369SOL     OW85917   3.996   1.895   4.442 -0.1395  0.0872 -0.5309
60369SOL    HW185918   3.908   1.869   4.468  0.2030 -1.5290 -0.8475
60369SOL    HW285919   3.993   1.898   4.347 -0.1709  1.3409 -0.5077
60370SOL     OW85920   0.958   6.964   1.544 -0.0142 -0.1665  0.1331
60370SOL    HW185921   0.865   6.968   1.568 -0.1347 -0.0793 -0.3276
60370SOL    HW285922   0.963   7.015   1.462  0.5607  0.4203  0.5242
60371SOL     OW85923  10.326   0.290   8.080  0.0188 -0.1346 -0.5451
60371SOL    HW185924  10.315   0.197   8.059  0.9548 -0.1250 -1.1223
60371SOL    HW285925  10.360   0.329   8.000  0.0098  0.6328 -0.1839
60372SOL     OW85926  11.316  12.219   0.933  0.1420 -0.3328 -0.0998
60372SOL    HW185927  11.247  12.157   0.959  0.0264 -1.0423 -1.9500
60372SOL    HW285928  11.350  12.253   1.015 -2.2060 -0.1948  0.8883
60373SOL     OW85929   1.765   4.808   4.380  0.0223 -0.3174  0.3245
60373SOL    HW185930   1.799   4.742   4.441 -0.4458 -0.1386  0.7859
60373SOL    HW285931   1.715   4.757   4.316  0.3528 -0.4880  0.1992
60374SOL     OW85932   0.293   2.714   2.716  0.7597  0.0638  0.3370
60374SOL    HW185933   0.293   2.802   2.754 -0.4214 -0.5390  1.8519
60374SOL    HW285934   0.209   2.677   2.742  0.0315 -0.5962 -2.5406
60375SOL     OW85935   7.275   3.146  12.466  0.0872 -0.3881  0.2979
60375SOL    HW185936   7.195   3.198  12.472  0.4490  0.3537 -0.9987
60375SOL    HW285937   7.345   3.211  12.452  0.6493 -1.1548 -0.5597
60376SOL     OW85938   8.350  12.187   0.857 -0.3381 -1.0894  0.0702
60376SOL    HW185939   8.396  12.268   0.880 -0.1487 -0.0718 -3.3300
60376SOL    HW285940   8.395  12.119   0.907  0.4980  0.6855  1.8726
60377SOL     OW85941   1.464   6.050   8.011  0.2530 -0.2863 -0.1598
60377SOL    HW185942   1.385   6.049   7.957  0.0712  0.7466  0.0709
60377SOL    HW285943   1.528   6.001   7.959 -0.0492  0.3016 -1.1254
60378SOL     OW85944  11.558   8.079   8.083  0.0077  0.6539 -0.0033
60378SOL    HW185945  11.617   8.055   8.012  1.5667  0.4277  1.3161
60378SOL    HW285946  11.615   8.109   8.154 -1.4402  0.2114  1.4320
60379SOL     OW85947   8.226   8.512   5.068  0.0213  0.3864 -0.0911
60379SOL    HW185948   8.160   8.517   5.136  0.4986 -0.7094  0.4797
60379SOL    HW285949   8.296   8.569   5.098 -0.2501  0.8008 -0.2333
60380SOL     OW85950   9.137   9.154   8.794  0.4103  0.1433  0.0825
60380SOL    HW185951   9.155   9.077   8.740 -0.2735  0.7398 -1.0287
60380SOL    HW285952   9.055   9.133   8.839  0.8668 -0.2654  0.7425
60381SOL     OW85953   8.057   1.817   4.144 -0.1643 -0.3784  0.4069
60381SOL    HW185954   8.128   1.827   4.207 -0.4849  0.5669  0.6332
60381SOL    HW285955   8.100   1.810   4.059  0.1951  0.3606  0.5259
60382SOL     OW85956   7.556   7.560   8.698  0.2341 -0.1420 -0.2234
60382SOL    HW185957   7.608   7.604   8.631  0.5771  0.4014  0.3779
60382SOL    HW285958   7.620   7.511   8.749 -0.0494 -0.7156 -0.4155
60383SOL     OW85959  11.681   1.643  10.077 -0.5176 -0.2323  0.2755
60383SOL    HW185960  11.595   1.607  10.053 -1.2996  0.1253  2.3684
60383SOL    HW285961  11.664   1.698  10.153  1.1339  2.1963 -0.9873
60384SOL     OW85962   0.508   2.959   2.216  0.3009  0.1851 -0.1377
60384SOL    HW185963   0.540   2.881   2.171 -0.7772 -0.5964  0.4137
60384SOL    HW285964   0.514   2.936   2.309 -1.6363  0.0784 -0.0090
60385SOL     OW85965   9.333   0.654   3.105  0.3600  0.0862  0.0760
60385SOL    HW185966   9.419   0.613   3.098  1.4871  2.2786  0.2587
60385SOL    HW285967   9.321   0.668   3.199  0.2429  0.6221 -0.0147
60386SOL     OW85968  11.966   6.014   3.141 -0.2086  0.2588 -0.0137
60386SOL    HW185969  12.007   5.937   3.102  1.6249  0.2827  1.7305
60386SOL    HW285970  11.917   5.979   3.216 -2.7657  0.3533 -1.5117
60387SOL     OW85971   8.911   3.766   6.824  0.2553 -0.6292  0.3622
60387SOL    HW185972   8.909   3.811   6.739  1.3259  0.5400  0.9257
60387SOL    HW285973   8.999   3.729   6.829  1.1329  1.4551  1.9888
60388SOL     OW85974   7.742   9.421   3.083  0.3130  0.5933 -0.8531
60388SOL    HW185975   7.665   9.373   3.112  1.1499 -0.7543 -0.7971
60388SOL    HW285976   7.787   9.446   3.165 -0.0908  1.4383 -0.8827
60389SOL     OW85977   4.314  11.925  10.054  0.3363  0.6633  0.1004
60389SOL    HW185978   4.237  11.969  10.019 -0.2398 -0.5855 -0.2586
60389SOL    HW285979   4.349  11.875   9.981 -1.5365 -2.9068  1.4060
60390SOL     OW85980  10.416   2.168   3.632  0.1582 -0.0526  0.2263
60390SOL    HW185981  10.343   2.154   3.572 -2.1230 -2.5191  3.2236
60390SOL    HW285982  10.406   2.259   3.660  0.6407  0.8096 -2.1681
60391SOL     OW85983   2.170   2.717   8.370 -0.1828 -0.5482 -0.4652
60391SOL    HW185984   2.098   2.722   8.432 -0.7767  0.5901 -1.2234
60391SOL    HW285985   2.129   2.723   8.284  0.8064  0.2447 -0.9101
60392SOL     OW85986   9.018   1.946  10.943  0.3922  0.1075 -0.5398
60392SOL    HW185987   9.019   1.985  11.030 -1.4856  0.3012 -0.5467
60392SOL    HW285988   9.076   2.002  10.891  2.5322 -0.7391  0.8155
60393SOL     OW85989  11.491   8.639   9.486 -0.4942  0.5932 -0.2255
60393SOL    HW185990  11.396   8.631   9.497 -0.3329 -0.1951  0.7985
60393SOL    HW285991  11.502   8.706   9.419 -1.7543  2.1628  1.0515
60394SOL     OW85992  12.379   8.893   3.779  0.0187 -0.0875 -0.1514
60394SOL    HW185993  12.286   8.873   3.792 -0.2849  1.3662  0.1403
60394SOL    HW285994  12.415   8.815   3.737 -1.6107 -0.2008 -1.4660
60395SOL     OW85995   7.105   9.675   7.122 -0.3373  0.0490 -0.1636
60395SOL    HW185996   7.175   9.698   7.060 -0.8938  0.6282 -0.5931
60395SOL    HW285997   7.123   9.584   7.145  1.1947  0.5142  0.5971
60396SOL     OW85998   2.814   9.380   8.191 -0.3629 -0.5129 -0.6221
60396SOL    HW185999   2.785   9.472   8.199 -0.5975 -0.6599  0.3370
60396SOL    HW286000   2.732   9.331   8.186 -0.2330 -0.6466 -1.5207
60397SOL     OW86001   4.631   8.672  11.038 -0.1925 -0.5043 -0.4655
60397SOL    HW186002   4.677   8.753  11.018  0.4765 -0.9258 -0.6545
60397SOL    HW286003   4.554   8.699  11.088  0.6341  0.1407  0.4570
60398SOL     OW86004   8.895   0.721   4.254 -0.1800  0.2317  0.0882
60398SOL    HW186005   8.887   0.681   4.341  0.6933 -0.2289 -0.0316
60398SOL    HW286006   8.824   0.785   4.251  0.2538  0.8063  1.4311
60399SOL     OW86007   8.769  11.105  11.701 -0.1288 -0.2049 -0.1653
60399SOL    HW186008   8.836  11.172  11.697 -0.5603  0.1827 -1.3294
60399SOL    HW286009   8.790  11.045  11.630 -1.4375  0.3535 -1.0739
60400SOL     OW86010   4.415   0.844   2.289 -0.4316  0.3047 -0.2505
60400SOL    HW186011   4.351   0.786   2.330 -3.2097  2.1714 -1.6499
60400SOL    HW286012   4.364   0.917   2.255  2.4047  1.6565 -2.0443
60401SOL     OW86013   7.932   2.210   0.983 -0.1514  0.2050  0.5920
60401SOL    HW186014   7.872   2.145   0.948  0.4484 -0.5999  1.0360
60401SOL    HW286015   8.014   2.163   0.998  1.2557  1.6570 -1.8031
60402SOL     OW86016   7.408  10.224   6.628 -0.4622 -0.1346  1.4122
60402SOL    HW186017   7.466  10.291   6.662 -0.7378  0.1982  1.2341
60402SOL    HW286018   7.455  10.142   6.641 -0.3980  0.0263  2.2180
60403SOL     OW86019   4.958   7.396   3.703  0.1942 -0.1271  0.0395
60403SOL    HW186020   5.052   7.392   3.687  0.0157 -2.0912 -0.6952
60403SOL    HW286021   4.918   7.393   3.616 -0.5925 -1.8803  0.4287
60404SOL     OW86022   0.177  11.259   8.843  0.2751 -0.2185  0.6513
60404SOL    HW186023   0.110  11.314   8.884 -0.5090 -0.4267 -0.3361
60404SOL    HW286024   0.215  11.313   8.774  0.3770 -0.4812  0.4985
60405SOL     OW86025  11.951   5.780   5.194 -0.1143 -0.2758  0.3791
60405SOL    HW186026  12.044   5.800   5.186 -0.3882  1.2111  0.5997
60405SOL    HW286027  11.947   5.712   5.262  0.8779 -1.1645 -0.4167
60406SOL     OW86028  10.277   3.768   6.417  0.0256 -0.2265  0.4753
60406SOL    HW186029  10.315   3.796   6.334 -0.5480 -0.9002 -0.0232
60406SOL    HW286030  10.351   3.764   6.478  0.5083 -0.1329 -0.1043
60407SOL     OW86031  12.337  12.034   4.103 -0.6180  0.3338 -0.2059
60407SOL    HW186032  12.322  12.120   4.065 -0.3745  0.2338 -0.5289
60407SOL    HW286033  12.326  11.973   4.031  1.0535  0.2296 -0.4244
60408SOL     OW86034   7.407   3.621   7.462  0.4884  0.0926 -0.2554
60408SOL    HW186035   7.489   3.669   7.476  0.1577  0.8814 -0.9389
60408SOL    HW286036   7.382   3.643   7.372 -0.5223 -0.0741 -0.0214
60409SOL     OW86037  11.188   8.163  12.601  0.1828 -0.0736 -0.4269
60409SOL    HW186038  11.136   8.089  12.571 -2.2757  1.3994 -0.1451
60409SOL    HW286039  11.210   8.211  12.521  2.4976 -1.4316 -0.6983
60410SOL     OW86040   8.539   1.555   6.475  0.4794  0.0425 -0.0428
60410SOL    HW186041   8.559   1.646   6.496  0.6984 -0.0616  0.2009
60410SOL    HW286042   8.498   1.559   6.388  1.0970  0.3012 -0.3242
60411SOL     OW86043   9.417   6.623   6.744  0.1319  0.1386  0.0784
60411SOL    HW186044   9.457   6.590   6.663 -0.0549  0.6274 -0.2188
60411SOL    HW286045   9.361   6.695   6.715 -1.9030 -1.2588  0.3283
60412SOL     OW86046   9.201  10.215   1.310  0.3651 -0.3877 -0.2293
60412SOL    HW186047   9.196  10.143   1.247  0.1912  0.1806 -0.8870
60412SOL    HW286048   9.291  10.246   1.303  0.2547 -0.1118 -0.4457
60413SOL     OW86049   8.450  11.025   2.322  0.0367  0.0066  0.8098
60413SOL    HW186050   8.393  11.008   2.397 -0.4566 -0.7117  0.2870
60413SOL    HW286051   8.390  11.052   2.252  0.4331  0.1226  0.5115
60414SOL     OW86052   4.728  11.727  12.189  0.6533  0.5789  0.1594
60414SOL    HW186053   4.762  11.643  12.220  1.6175  0.7025 -0.4879
60414SOL    HW286054   4.702  11.774  12.268  1.7303  0.3388  0.6815
60415SOL     OW86055   2.195   9.161   4.848  0.4784  0.0442 -0.5079
60415SOL    HW186056   2.168   9.246   4.883  2.2724  0.1353  0.7543
60415SOL    HW286057   2.205   9.105   4.925 -0.8773 -1.4229 -1.3287
60416SOL     OW86058   3.353   9.984   8.523  0.6316 -0.3400  0.4184
60416SOL    HW186059   3.402   9.908   8.494 -0.4865 -0.3750 -1.5542
60416SOL    HW286060   3.364  10.048   8.452 -3.2915 -0.8928 -0.9045
60417SOL     OW86061   7.868  11.998   8.651  0.2451  0.2806  0.3870
60417SOL    HW186062   7.957  12.011   8.683  0.0050  1.4354  0.6167
60417SOL    HW286063   7.862  12.050   8.571 -0.4960  0.9816  0.8834
60418SOL     OW86064   0.755   8.602   5.451  0.7374 -0.3194  0.3931
60418SOL    HW186065   0.803   8.565   5.525 -0.1944 -0.6816  0.8318
60418SOL    HW286066   0.821   8.648   5.400  1.5090 -0.6276  1.0962
60419SOL     OW86067  10.606   0.916   1.966 -0.3941  0.0898 -0.0789
60419SOL    HW186068  10.618   0.881   2.054 -0.2656  0.9296  0.2476
60419SOL    HW286069  10.658   0.997   1.964  2.1254 -1.4245 -1.9098
60420SOL     OW86070   6.755   1.473   0.199  0.7723 -0.1685  1.1545
60420SOL    HW186071   6.779   1.383   0.221 -0.4884 -1.2326 -1.4112
60420SOL    HW286072   6.686   1.495   0.263  0.2293 -1.5014  1.0630
60421SOL     OW86073  11.216   4.247   3.367 -0.7216 -0.0255 -0.0608
60421SOL    HW186074  11.195   4.311   3.299 -1.2634  0.1736  0.2949
60421SOL    HW286075  11.230   4.299   3.446 -0.0201 -0.2509 -0.0286
60422SOL     OW86076   6.762   3.534   8.724 -0.7575  1.0641 -0.5614
60422SOL    HW186077   6.706   3.471   8.770 -1.5131  1.7008 -0.5929
60422SOL    HW286078   6.771   3.607   8.785  0.6714  0.6592 -0.2538
60423SOL     OW86079   0.616   6.572   7.919 -0.2362  0.3260 -0.0342
60423SOL    HW186080   0.548   6.507   7.898 -0.4489 -0.5649  2.9362
60423SOL    HW286081   0.697   6.534   7.884 -0.9243  0.3874 -1.7709
60424SOL     OW86082  10.656   0.265   8.961  0.3607  0.0089 -0.1064
60424SOL    HW186083  10.569   0.294   8.989  0.9702  0.2240  1.7561
60424SOL    HW286084  10.641   0.215   8.881 -1.5457 -0.4293  0.4819
60425SOL     OW86085  11.798   0.178   5.168  0.0194 -0.0090 -0.2292
60425SOL    HW186086  11.815   0.084   5.167  0.4744  0.0686 -1.7346
60425SOL    HW286087  11.727   0.191   5.105 -1.2386  0.4782  1.2124
60426SOL     OW86088   8.657  11.837   5.481 -0.4490 -0.6050 -0.4942
60426SOL    HW186089   8.582  11.858   5.537 -1.5538 -0.9167 -1.7919
60426SOL    HW286090   8.680  11.747   5.505 -0.4317 -0.4780 -0.0289
60427SOL     OW86091   7.971   9.403   6.122  0.1245  0.0056 -0.1526
60427SOL    HW186092   7.991   9.422   6.214  3.5302  2.3420 -1.1737
60427SOL    HW286093   7.906   9.469   6.097  0.8082  0.7719  0.0613
60428SOL     OW86094   4.012   6.537   6.595  0.3082  0.1665  0.2580
60428SOL    HW186095   3.963   6.619   6.599 -0.3502 -0.1912 -0.2455
60428SOL    HW286096   4.080   6.547   6.662 -0.3791  0.7231  0.9012
60429SOL     OW86097   4.598  11.635   4.174 -0.1163  0.7493  0.1506
60429SOL    HW186098   4.519  11.622   4.122  1.0848 -0.6761 -1.4451
60429SOL    HW286099   4.645  11.705   4.129  0.7046 -0.1696 -0.4691
60430SOL     OW86100   4.763  11.839   2.777  0.3718 -0.2342 -0.0778
60430SOL    HW186101   4.668  11.844   2.763  0.5082 -0.2908 -1.1150
60430SOL    HW286102   4.778  11.750   2.809 -0.1861  0.5214  2.5029
60431SOL     OW86103   9.471   7.563  12.134 -0.1854 -0.3917  0.1825
60431SOL    HW186104   9.529   7.517  12.195 -0.5212 -0.1797  0.6676
60431SOL    HW286105   9.393   7.584  12.185  0.1283  1.0919  0.1116
60432SOL     OW86106  10.244  10.874   5.918  0.1108 -0.0964  0.1321
60432SOL    HW186107  10.173  10.819   5.885  0.8900  0.1400 -2.1321
60432SOL    HW286108  10.213  10.905   6.003 -1.5540 -1.7145  0.1804
60433SOL     OW86109   6.448  10.651   4.494 -0.0828 -0.1037  0.4828
60433SOL    HW186110   6.528  10.601   4.476  0.4036  1.0305 -0.6442
60433SOL    HW286111   6.377  10.588   4.481  0.5562 -0.7519  0.0630
60434SOL     OW86112  12.526   3.550   2.525 -0.1523  0.0599 -0.0883
60434SOL    HW186113  12.474   3.475   2.555 -0.4804 -0.0789 -0.9580
60434SOL    HW286114  12.542   3.531   2.432  0.0387  0.9146 -0.2340
60435SOL     OW86115  12.027   3.191   7.710 -0.0015  0.1590  0.9009
60435SOL    HW186116  11.976   3.119   7.748 -1.6594  1.7426  1.8473
60435SOL    HW286117  11.962   3.259   7.692  1.6152  1.7391  0.7791
60436SOL     OW86118   0.229   9.053   4.103  0.3177 -0.6569 -0.2146
60436SOL    HW186119   0.214   8.993   4.030  0.2838 -1.8983  0.7781
60436SOL    HW286120   0.142   9.085   4.126  0.4821  1.1631 -1.8192
60437SOL     OW86121   1.110   7.962   9.835 -0.1547  0.2069  0.1528
60437SOL    HW186122   1.204   7.953   9.849 -0.3269 -0.5605  0.8907
60437SOL    HW286123   1.075   7.874   9.848 -1.2085  0.8204  1.7750
60438SOL     OW86124   6.769   6.562   2.662  0.0450 -0.2665 -0.2551
60438SOL    HW186125   6.764   6.586   2.755  1.0852  1.2609 -0.5567
60438SOL    HW286126   6.722   6.632   2.617  1.5544  0.2726 -1.0346
60439SOL     OW86127  10.652   4.577   6.888  0.0910  0.3748 -0.4142
60439SOL    HW186128  10.662   4.482   6.884  1.2905  0.4849 -0.4408
60439SOL    HW286129  10.733   4.611   6.849  0.5727  1.4059  1.3651
60440SOL     OW86130   5.540   9.306   0.081 -0.3829  0.0703  0.2483
60440SOL    HW186131   5.632   9.309   0.105 -0.6053  0.8463  1.0361
60440SOL    HW286132   5.523   9.388   0.036 -0.6312 -0.1845 -0.1326
60441SOL     OW86133  10.466   3.258  10.070 -0.0679  0.5317  0.0469
60441SOL    HW186134  10.392   3.315  10.093 -1.0609 -0.5354 -0.3459
60441SOL    HW286135  10.458   3.247   9.975  0.4905  0.2615  0.0313
60442SOL     OW86136  12.159   6.526   9.069  0.9011 -0.6247 -0.5478
60442SOL    HW186137  12.108   6.452   9.101  0.9415 -0.1866  0.5577
60442SOL    HW286138  12.115   6.552   8.988  1.1616 -2.1370 -1.2048
60443SOL     OW86139   0.865   8.648   0.551 -0.1894  0.0265  0.3236
60443SOL    HW186140   0.782   8.641   0.597 -0.6268  0.1959 -0.4261
60443SOL    HW286141   0.906   8.562   0.562 -1.3836 -0.7552 -0.9965
60444SOL     OW86142  11.269   4.180   9.226 -0.2850 -0.0769 -0.5316
60444SOL    HW186143  11.183   4.142   9.209  0.6867 -1.8777 -1.7448
60444SOL    HW286144  11.252   4.253   9.287 -2.5869 -0.6128 -0.4551
60445SOL     OW86145   4.002   2.119  11.117  1.1290  1.0291 -0.0053
60445SOL    HW186146   3.912   2.129  11.087  1.1783  1.9423  0.1252
60445SOL    HW286147   4.038   2.050  11.061  0.0643 -0.1042  0.6228
60446SOL     OW86148   3.512   7.792   5.361 -0.5017 -0.0343  0.0677
60446SOL    HW186149   3.515   7.697   5.353 -0.5996 -0.0364  0.0444
60446SOL    HW286150   3.601   7.821   5.342 -0.9485  0.0404 -2.2394
60447SOL     OW86151   1.374   5.707   0.997 -0.4718 -0.1874  0.5957
60447SOL    HW186152   1.446   5.719   0.935 -1.4488 -0.0121 -0.5298
60447SOL    HW286153   1.303   5.761   0.962 -1.9973 -2.2821  0.3200
60448SOL     OW86154  10.456   7.145  10.419  0.1877  0.3623  0.6832
60448SOL    HW186155  10.450   7.203  10.343 -0.4931 -1.9152 -1.1159
60448SOL    HW286156  10.485   7.202  10.491  1.8648  2.4421 -1.4744
60449SOL     OW86157   1.992  10.797   8.057  0.0447 -0.3882  0.7379
60449SOL    HW186158   1.898  10.783   8.052  0.2223 -1.4946  0.3942
60449SOL    HW286159   2.004  10.842   8.141 -0.7345 -0.6691  1.0107
60450SOL     OW86160   5.837   1.400   7.857  0.3755 -0.1111  0.3725
60450SOL    HW186161   5.877   1.480   7.825 -1.2507  0.8855  0.7300
60450SOL    HW286162   5.805   1.422   7.944  0.1202 -1.2332  0.5834
60451SOL     OW86163   2.991   0.067   8.372  0.0378  0.0413  0.3480
60451SOL    HW186164   2.924  -0.002   8.372  0.2738 -0.1886  0.6994
60451SOL    HW286165   2.956   0.133   8.431 -1.3005  1.3295 -1.7453
60452SOL     OW86166   7.495   0.363   8.582 -0.0370  0.0188  0.1364
60452SOL    HW186167   7.539   0.325   8.658  0.0663 -0.2067 -0.0342
60452SOL    HW286168   7.561   0.360   8.512 -0.3106 -0.2956 -0.1133
60453SOL     OW86169   3.959   4.571   0.010  0.6114  0.9530  0.5292
60453SOL    HW186170   3.893   4.517   0.053  1.2092  1.1393  1.7466
60453SOL    HW286171   3.922   4.592  -0.076 -1.1677  1.5330  1.3789
60454SOL     OW86172   7.513   6.686  10.763  0.1492  0.2828 -0.2476
60454SOL    HW186173   7.565   6.647  10.833  0.3826  1.2311  0.1229
60454SOL    HW286174   7.437   6.628  10.754  0.7965 -0.5849 -0.1476
60455SOL     OW86175   7.002   1.892   2.221 -0.1624  0.3936 -0.4239
60455SOL    HW186176   6.926   1.869   2.275  2.5136 -1.3022  3.0632
60455SOL    HW286177   6.998   1.832   2.147 -0.6579 -1.9346  1.3614
60456SOL     OW86178   4.488   7.528   0.529  0.4406 -0.1811 -0.0842
60456SOL    HW186179   4.562   7.492   0.480 -0.0863 -0.6691 -0.5434
60456SOL    HW286180   4.477   7.468   0.602 -0.1784 -0.7458 -0.6224
60457SOL     OW86181   8.772   7.733   5.243  0.0620 -0.0233 -0.2163
60457SOL    HW186182   8.810   7.650   5.271  2.1419  0.6286 -0.8820
60457SOL    HW286183   8.768   7.726   5.147  2.1514  1.3280 -0.4607
60458SOL     OW86184   8.144   4.527   7.580  0.2857 -0.1907 -0.0217
60458SOL    HW186185   8.186   4.522   7.666  0.8023  2.1705 -0.0751
60458SOL    HW286186   8.090   4.605   7.584 -0.2436 -0.4437 -1.6183
60459SOL     OW86187   0.462   6.782   3.879  0.2222 -0.0241 -0.1474
60459SOL    HW186188   0.375   6.817   3.901  0.5166  1.4284 -1.0934
60459SOL    HW286189   0.470   6.703   3.931 -1.4453  0.1149  0.3947
60460SOL     OW86190  11.179   4.807   3.747 -0.2913  0.1479 -0.4747
60460SOL    HW186191  11.206   4.889   3.706 -1.8342  0.6924 -0.4312
60460SOL    HW286192  11.093   4.787   3.710  0.0080 -1.4131 -0.4148
60461SOL     OW86193  10.459   2.278   5.605 -0.4603  0.3199 -0.0788
60461SOL    HW186194  10.459   2.373   5.613 -1.8619  0.2055  2.0162
60461SOL    HW286195  10.372   2.257   5.570 -0.1714 -0.1957 -0.4989
60462SOL     OW86196  12.132   7.822   2.333  0.4128 -0.6480  0.6674
60462SOL    HW186197  12.093   7.907   2.354 -1.5046 -0.9037 -1.4635
60462SOL    HW286198  12.207   7.842   2.277  1.6148 -0.2928  2.3347
60463SOL     OW86199   2.289  10.423   9.182 -0.0467 -0.6582  0.6600
60463SOL    HW186200   2.350  10.358   9.146 -0.1186 -2.2244  3.1501
60463SOL    HW286201   2.297  10.498   9.123  2.4542 -1.7152 -0.5106
60464SOL     OW86202   4.524  11.194   9.033  0.9933  0.3042  0.2637
60464SOL    HW186203   4.551  11.286   9.041  0.3757  0.3633  2.3135
60464SOL    HW286204   4.506  11.167   9.123 -2.8928 -0.5875 -0.6016
60465SOL     OW86205   0.389   9.209  10.172 -0.1499 -0.3471  0.5499
60465SOL    HW186206   0.324   9.169  10.229 -0.6817 -1.1877 -0.6077
60465SOL    HW286207   0.466   9.220  10.228 -0.5523 -1.4196  1.3523
60466SOL     OW86208  10.819   4.742   1.157 -0.6953  0.0537 -0.3223
60466SOL    HW186209  10.819   4.699   1.242 -0.8118 -0.6981 -0.6950
60466SOL    HW286210  10.726   4.759   1.140 -0.9585 -2.1546 -1.4443
60467SOL     OW86211  11.887  12.451   7.071 -0.5417 -0.1904 -0.7697
60467SOL    HW186212  11.951  12.523   7.076 -1.7513  0.8616  0.1434
60467SOL    HW286213  11.830  12.475   6.999 -1.4073  0.1823  0.0193
60468SOL     OW86214   1.388  11.036   0.578  0.1301 -0.3995  0.8139
60468SOL    HW186215   1.344  11.065   0.658  0.8592  1.2649  0.6372
60468SOL    HW286216   1.425  10.951   0.601  1.6925  0.7213  2.7930
60469SOL     OW86217   9.084   6.623   4.011 -0.4181 -0.2560 -0.2327
60469SOL    HW186218   9.022   6.695   4.021  1.5601  1.3588  1.3242
60469SOL    HW286219   9.102   6.594   4.101  0.8450 -0.8841 -0.6644
60470SOL     OW86220  10.321   3.567  10.739 -0.2798 -0.2758 -0.1550
60470SOL    HW186221  10.335   3.499  10.674 -0.9545  0.1942 -0.8007
60470SOL    HW286222  10.269   3.524  10.807  0.6339 -0.8350  0.2179
60471SOL     OW86223   4.694  12.418   5.430 -0.9111 -0.5538 -0.3444
60471SOL    HW186224   4.621  12.465   5.471 -0.2279  1.0577 -0.9013
60471SOL    HW286225   4.680  12.327   5.454 -1.4912  0.0906  2.0468
60472SOL     OW86226   9.317   5.294   0.033 -0.3145 -0.2629 -0.2721
60472SOL    HW186227   9.253   5.261  -0.029 -1.2614  0.1041  0.4690
60472SOL    HW286228   9.330   5.386   0.008  0.6418 -0.5829 -0.9881
60473SOL     OW86229   5.894   2.623   2.661  0.5274 -1.0955  0.2875
60473SOL    HW186230   5.866   2.714   2.664 -0.5594 -1.3578 -0.9569
60473SOL    HW286231   5.970   2.619   2.719  1.4246  0.8831 -0.6867
60474SOL     OW86232   4.844   7.940  12.169  0.1045 -0.1209 -0.5753
60474SOL    HW186233   4.874   7.870  12.111  0.7229  0.8064 -1.4074
60474SOL    HW286234   4.836   7.898  12.255  2.0125 -0.8669 -0.7101
60475SOL     OW86235   7.937   6.415   1.401  1.2417  0.0749  0.2196
60475SOL    HW186236   7.882   6.353   1.354  2.1108 -1.0026  0.5673
60475SOL    HW286237   7.875   6.474   1.445  0.3345 -1.4512  1.0740
60476SOL     OW86238   7.445   5.327   3.725  0.2141  0.4554  0.5438
60476SOL    HW186239   7.353   5.327   3.753  0.8692  0.2074  2.8702
60476SOL    HW286240   7.484   5.402   3.769  1.1723  0.4792 -0.3149
60477SOL     OW86241   5.124   4.695  11.077  0.1407 -0.6603 -0.3153
60477SOL    HW186242   5.071   4.739  11.144 -1.6861 -1.6196 -1.0719
60477SOL    HW286243   5.214   4.706  11.107 -0.5048  0.5794  1.2997
60478SOL     OW86244   1.138   6.186   4.817 -0.0039 -0.1907  0.3761
60478SOL    HW186245   1.116   6.131   4.893 -0.2249 -1.4407 -0.5706
60478SOL    HW286246   1.174   6.125   4.753 -0.6724  0.6947 -0.8785
60479SOL     OW86247  11.033   2.770   6.779 -0.2851  0.5723 -0.6242
60479SOL    HW186248  10.938   2.767   6.765 -0.3279 -0.1898 -0.2128
60479SOL    HW286249  11.057   2.861   6.759 -0.9029  0.4779 -1.9537
60480SOL     OW86250   1.708   4.961   5.522 -0.2520 -0.2028  0.0483
60480SOL    HW186251   1.628   4.994   5.479 -0.3974 -1.3622 -0.6083
60480SOL    HW286252   1.675   4.902   5.590  0.0484 -0.5940 -0.1484
60481SOL     OW86253   2.020   9.754   0.785  0.0611  0.3281  0.4309
60481SOL    HW186254   2.020   9.714   0.872  0.1162  2.0886  1.2869
60481SOL    HW286255   1.928   9.769   0.765 -0.1075 -1.7363 -0.6891
60482SOL     OW86256   8.421   0.120   6.894 -0.2949 -0.2754 -0.5073
60482SOL    HW186257   8.400   0.186   6.828  0.8478 -0.3690 -1.0022
60482SOL    HW286258   8.337   0.091   6.928 -0.8181  1.4642 -0.2466
60483SOL     OW86259   3.448   7.384   4.478  0.3910 -0.4315 -0.1351
60483SOL    HW186260   3.357   7.376   4.451  0.0097 -1.1773  1.2347
60483SOL    HW286261   3.470   7.297   4.512  0.6303  0.5095  2.3630
60484SOL     OW86262   7.498   7.521   4.518 -0.4664  0.3525  0.0518
60484SOL    HW186263   7.556   7.569   4.577 -0.3616  1.2753 -0.7880
60484SOL    HW286264   7.544   7.520   4.434 -1.8006  1.4168 -0.7256
60485SOL     OW86265   9.246   9.963   9.950  0.2095 -0.2814 -0.4300
60485SOL    HW186266   9.248   9.871   9.976 -1.2938 -1.2640 -3.2995
60485SOL    HW286267   9.314   9.971   9.883  0.0033  0.5703 -0.5499
60486SOL     OW86268   9.215   1.375   4.137 -0.3167  0.2319  0.0832
60486SOL    HW186269   9.235   1.343   4.049  1.6360 -0.0121  0.5717
60486SOL    HW286270   9.136   1.328   4.162 -2.5476  2.2355 -2.5117
60487SOL     OW86271   9.623   2.318  12.584 -0.2775  0.6874 -0.4163
60487SOL    HW186272   9.603   2.394  12.638 -1.3471 -0.5947  1.1108
60487SOL    HW286273   9.719   2.310  12.589 -0.3770  0.2178  1.9555
60488SOL     OW86274   9.855   8.854   6.353  0.4876 -0.5120 -0.3647
60488SOL    HW186275   9.898   8.896   6.279  1.7478 -0.5077  0.3375
60488SOL    HW286276   9.903   8.885   6.430  0.6740 -2.2571  0.2824
60489SOL     OW86277   9.358  11.165   3.388 -0.4749 -0.0319  0.7692
60489SOL    HW186278   9.375  11.220   3.312  0.9943 -2.1776 -0.5419
60489SOL    HW286279   9.273  11.124   3.370  0.2187 -1.1245 -0.1458
60490SOL     OW86280  10.744   5.658  10.219  0.2369  0.3048  0.2308
60490SOL    HW186281  10.674   5.615  10.269 -0.0894 -2.9181 -2.5997
60490SOL    HW286282  10.824   5.612  10.244  0.0982 -1.2266 -1.8262
60491SOL     OW86283   1.556   8.882   5.698  0.2451  0.2241 -0.4529
60491SOL    HW186284   1.542   8.975   5.713 -2.2083 -0.3208  1.2969
60491SOL    HW286285   1.541   8.871   5.604  1.7167  1.6954 -0.9157
60492SOL     OW86286   9.911   4.424   5.631 -0.1276  0.4003 -0.2973
60492SOL    HW186287   9.827   4.413   5.588 -1.2048  1.5094  1.3818
60492SOL    HW286288   9.938   4.513   5.609  0.5965  0.0702 -0.7841
60493SOL     OW86289   8.522   4.284   8.560  0.4585  0.5870 -0.1018
60493SOL    HW186290   8.432   4.267   8.533  0.4185  1.2014 -0.3636
60493SOL    HW286291   8.525   4.377   8.579  0.8311  0.4116  0.7321
60494SOL     OW86292   9.473   1.873   9.378 -0.7333  0.0547 -0.6281
60494SOL    HW186293   9.520   1.885   9.460  2.0247  0.8189 -2.2095
60494SOL    HW286294   9.485   1.781   9.356  1.3583  0.5197 -1.6903
60495SOL     OW86295   7.348  10.048   8.852 -0.2358  0.3186 -0.6429
60495SOL    HW186296   7.297  10.075   8.776 -0.1644 -0.4539 -0.9759
60495SOL    HW286297   7.423  10.001   8.814  0.2646  0.6900 -0.1279
60496SOL     OW86298   3.193   8.080  10.191  0.3735 -0.2180  0.2829
60496SOL    HW186299   3.275   8.044  10.225  0.6323 -1.0236 -1.1117
60496SOL    HW286300   3.146   8.004  10.156  0.1409  0.5269 -1.1239
60497SOL     OW86301  12.567   2.440   5.734 -0.6611 -0.3254  0.2824
60497SOL    HW186302  12.500   2.472   5.795 -1.9912 -2.0297 -0.2002
60497SOL    HW286303  12.540   2.351   5.714  1.7132 -1.0387 -0.0626
60498SOL     OW86304   2.622   6.860  11.679  0.2800 -0.3045  0.2881
60498SOL    HW186305   2.594   6.817  11.760  0.3770 -1.8999 -0.4767
60498SOL    HW286306   2.620   6.790  11.613  0.2762  0.9308 -1.0769
60499SOL     OW86307   8.400   4.420   6.219 -0.1204  0.0978 -0.3197
60499SOL    HW186308   8.453   4.443   6.143 -3.0340  0.9264 -2.2606
60499SOL    HW286309   8.443   4.463   6.293  1.3461  1.5163 -1.9220
60500SOL     OW86310  11.511   7.494   4.763 -0.0039 -0.2074  0.0156
60500SOL    HW186311  11.444   7.528   4.823  0.5241  0.7794  0.0765
60500SOL    HW286312  11.461   7.451   4.693 -0.6548 -0.5633  0.6880
60501SOL     OW86313   4.919   3.906   5.750  0.7054 -0.4629  0.1120
60501SOL    HW186314   4.859   3.872   5.684  1.5037 -1.1092 -0.2915
60501SOL    HW286315   4.864   3.959   5.807 -0.3809 -1.6029  0.1574
60502SOL     OW86316  11.773  10.188   3.021 -0.5947 -0.4952  0.3475
60502SOL    HW186317  11.757  10.231   3.105  1.3530 -0.3532  0.6908
60502SOL    HW286318  11.740  10.250   2.955  0.8218  0.9210  0.8988
60503SOL     OW86319   3.457   6.928   7.044 -0.2064 -0.2531  0.3937
60503SOL    HW186320   3.431   6.954   7.132 -3.3078 -0.4478 -0.3505
60503SOL    HW286321   3.502   6.844   7.056  0.3192  0.2084  1.8365
60504SOL     OW86322   1.728   1.543  12.323  0.3872 -0.8552 -0.3966
60504SOL    HW186323   1.787   1.580  12.257 -1.3127  0.5448 -1.2157
60504SOL    HW286324   1.726   1.450  12.303  1.1362 -0.6927 -1.3036
60505SOL     OW86325   6.013  11.218   9.652 -0.2011  0.2535 -0.0181
60505SOL    HW186326   6.062  11.203   9.571 -1.0410  1.9807 -0.8773
60505SOL    HW286327   5.922  11.203   9.629 -0.4920  1.1472  0.5124
60506SOL     OW86328   0.993  12.122   6.229  0.0139  0.1940 -0.0663
60506SOL    HW186329   0.998  12.028   6.244  0.0662  0.3205  0.7698
60506SOL    HW286330   0.920  12.133   6.168  0.8638 -0.4938 -1.2293
60507SOL     OW86331   8.094  11.059  10.654  0.6801 -0.1523 -0.5911
60507SOL    HW186332   8.127  10.985  10.705  0.2475  0.9854  1.4624
60507SOL    HW286333   8.000  11.063  10.673  0.7830  1.2224 -0.2027
60508SOL     OW86334  12.221   6.762   9.235  0.1755 -0.0046 -0.2110
60508SOL    HW186335  12.169   6.767   9.155 -0.8764  0.2949  0.4694
60508SOL    HW286336  12.156   6.749   9.304  0.9810  0.6999  0.6942
60509SOL     OW86337  10.518   4.090   6.563  0.2432 -0.2336  0.4558
60509SOL    HW186338  10.433   4.120   6.596  0.5622  1.3657 -0.0714
60509SOL    HW286339  10.552   4.033   6.632 -0.7913 -0.0690  1.1309
60510SOL     OW86340   6.776   9.837   4.466 -0.5605  0.1905 -0.0892
60510SOL    HW186341   6.782   9.925   4.503  0.4675  0.9095 -1.8253
60510SOL    HW286342   6.831   9.783   4.522 -2.1905  0.3125  1.7576
60511SOL     OW86343   0.261  11.457  11.996  0.0249  0.2090 -0.3024
60511SOL    HW186344   0.169  11.473  12.018  0.6009  1.3314  1.4785
60511SOL    HW286345   0.266  11.475  11.902 -1.5810  0.0484 -0.4470
60512SOL     OW86346  10.231   5.096   0.147 -0.7118 -0.5161 -0.0395
60512SOL    HW186347  10.298   5.056   0.091 -2.2124  0.0784 -2.4156
60512SOL    HW286348  10.260   5.187   0.157  0.6943 -1.1387  2.1035
60513SOL     OW86349   9.343   7.888   7.500 -0.2008  0.7365 -0.3974
60513SOL    HW186350   9.427   7.856   7.468 -1.1399 -2.4652 -0.1007
60513SOL    HW286351   9.364   7.938   7.578  1.4174 -2.9396  1.8064
60514SOL     OW86352  10.145   8.737   6.257 -0.2922 -0.5412 -0.0104
60514SOL    HW186353  10.185   8.821   6.235 -0.5667 -0.1154  1.0682
60514SOL    HW286354  10.219   8.679   6.276 -0.1396 -0.1654  0.5565
60515SOL     OW86355   6.831   2.395   9.177  0.0205  0.3905  0.4282
60515SOL    HW186356   6.824   2.427   9.267  1.8142  0.7919  0.4602
60515SOL    HW286357   6.743   2.408   9.141 -0.3949  1.4602  1.7148
60516SOL     OW86358   0.657  11.203  12.642 -0.1151 -0.3786 -0.2017
60516SOL    HW186359   0.679  11.225  12.552 -1.2443  1.3515 -0.1018
60516SOL    HW286360   0.734  11.156  12.675  0.3628 -0.9408 -2.0059
60517SOL     OW86361  10.661   2.078   4.038 -0.2671 -0.1633 -0.1199
60517SOL    HW186362  10.729   2.029   4.084  0.8689  1.1191 -0.3636
60517SOL    HW286363  10.581   2.029   4.054  0.3982 -0.7315  1.7145
60518SOL     OW86364   3.803   9.042   4.967 -0.3138 -0.3819  0.4854
60518SOL    HW186365   3.759   9.089   4.896 -0.2127 -0.5023  0.3429
60518SOL    HW286366   3.731   9.001   5.017 -0.3081 -1.9602 -0.7129
60519SOL     OW86367   5.036  10.993   5.360  0.0200  0.1488  0.4196
60519SOL    HW186368   5.056  10.903   5.333 -1.3420 -0.2128  0.5414
60519SOL    HW286369   4.960  10.985   5.417 -0.8858  1.4809 -0.5262
60520SOL     OW86370   4.092   5.041   2.398 -0.3221 -0.1827 -0.3509
60520SOL    HW186371   4.001   5.030   2.369 -0.1854  1.2495 -1.4851
60520SOL    HW286372   4.112   5.132   2.376  1.2249 -0.3222  0.3855
60521SOL     OW86373   4.447  11.230   5.161 -0.5983 -0.3545  0.2130
60521SOL    HW186374   4.381  11.278   5.211  0.5128 -0.6896  2.1366
60521SOL    HW286375   4.481  11.166   5.224  1.6382 -0.0933 -0.6538
60522SOL     OW86376  11.155   9.765  11.531  0.3726  1.0383 -0.2910
60522SOL    HW186377  11.114   9.679  11.535  1.4675  0.4689 -0.7392
60522SOL    HW286378  11.232   9.758  11.587  0.4442  1.7381 -0.2901
60523SOL     OW86379  10.502   3.727  11.975  0.5138 -0.2670  0.7641
60523SOL    HW186380  10.444   3.662  12.016 -2.0374  1.2181 -0.2294
60523SOL    HW286381  10.509   3.699  11.884  1.2189 -0.2949  0.8186
60524SOL     OW86382  11.145   5.091   6.127 -0.0943  0.5836  0.1557
60524SOL    HW186383  11.192   5.048   6.199  0.4424 -0.1694 -0.6243
60524SOL    HW286384  11.205   5.159   6.097 -0.3349  0.9229  0.4321
60525SOL     OW86385   8.240   8.288   8.301  0.4185 -0.1199  0.2404
60525SOL    HW186386   8.181   8.231   8.251  2.6095 -0.7023 -1.9229
60525SOL    HW286387   8.182   8.346   8.350 -2.0756  0.9464 -3.4838
60526SOL     OW86388   0.963   6.737  12.140 -0.5786 -0.4268 -0.4871
60526SOL    HW186389   1.042   6.782  12.171 -0.1181 -0.9353 -0.8775
60526SOL    HW286390   0.902   6.741  12.213  0.3322 -1.2541  0.3515
60527SOL     OW86391   2.200   6.993   9.367  0.2479  0.0102 -0.1423
60527SOL    HW186392   2.284   6.947   9.374  1.0231  1.6527  2.7016
60527SOL    HW286393   2.223   7.081   9.338 -0.5473  0.3688  0.3004
60528SOL     OW86394   7.498  10.166   5.118 -0.1316 -0.1660 -0.1905
60528SOL    HW186395   7.450  10.143   5.198  0.6489  1.6200  0.8529
60528SOL    HW286396   7.547  10.245   5.141  2.1947 -1.0822 -1.6461
60529SOL     OW86397   8.719   4.254   8.055  0.0866  0.4767 -0.3882
60529SOL    HW186398   8.646   4.225   8.109 -1.2082  0.0796 -2.2589
60529SOL    HW286399   8.785   4.185   8.066  0.1879  0.7726  1.2126
60530SOL     OW86400   8.386  11.146  12.040 -0.3160 -0.5279  0.5508
60530SOL    HW186401   8.383  11.130  12.135  0.9784  1.4600  0.9856
60530SOL    HW286402   8.294  11.160  12.015 -0.6344 -0.6515  1.5958
60531SOL     OW86403   9.531   3.294   9.983  0.5106  0.2193 -0.0013
60531SOL    HW186404   9.548   3.293   9.889  2.3800 -0.5598  0.3011
60531SOL    HW286405   9.557   3.207  10.013 -2.1789 -0.3425  0.9413
60532SOL     OW86406  12.176  12.610  10.418 -0.5576 -0.0958 -0.0208
60532SOL    HW186407  12.221  12.525  10.416  1.6228  0.9210  1.2246
60532SOL    HW286408  12.106  12.599  10.482 -1.1502 -1.2851 -0.8270
60533SOL     OW86409  11.265   2.639   6.824  0.3472  0.5595 -0.3538
60533SOL    HW186410  11.272   2.595   6.909  0.1253 -0.1985 -0.7243
60533SOL    HW286411  11.175   2.671   6.821 -0.6111 -1.9782 -1.5114
60534SOL     OW86412  11.060   6.081   9.946 -0.2194 -0.2676 -0.0633
60534SOL    HW186413  10.982   6.027   9.964  0.4736 -1.4953 -0.6453
60534SOL    HW286414  11.133   6.019   9.947  0.4709  0.4466 -1.9323
60535SOL     OW86415   0.008   8.907   7.392  0.0090  0.0300 -0.4779
60535SOL    HW186416  -0.012   8.815   7.405 -0.6082 -0.0320 -1.7556
60535SOL    HW286417   0.064   8.909   7.314  0.3527  0.7040 -0.2216
60536SOL     OW86418   0.594  12.342   6.051  0.2051 -0.7493  0.2400
60536SOL    HW186419   0.509  12.315   6.015  0.7189 -2.8275  0.4799
60536SOL    HW286420   0.596  12.303   6.138  1.4265 -0.7317  0.2348
60537SOL     OW86421   4.152   2.565  11.698  0.7858 -0.2578 -0.0502
60537SOL    HW186422   4.187   2.478  11.715  1.1778 -0.7477 -2.9450
60537SOL    HW286423   4.090   2.553  11.626  0.4212  1.7882 -0.1591
60538SOL     OW86424   7.794   0.598  12.117 -0.4072  0.4640  0.4248
60538SOL    HW186425   7.854   0.647  12.173  0.3725 -0.7463  0.6887
60538SOL    HW286426   7.720   0.577  12.175  0.1851 -0.3816  0.9101
60539SOL     OW86427   7.993   8.199  11.069 -0.2641  0.3357 -0.5418
60539SOL    HW186428   7.899   8.179  11.067 -0.5404  1.1552  1.4049
60539SOL    HW286429   8.007   8.236  11.157  2.3009 -1.8493  0.0985
60540SOL     OW86430  10.291  10.463   8.078  0.2032 -0.0488  0.0357
60540SOL    HW186431  10.279  10.527   8.007  2.3807 -0.2817 -0.6034
60540SOL    HW286432  10.361  10.500   8.131 -1.1463 -0.0704  1.9240
60541SOL     OW86433   7.725   8.148   1.736 -0.3173  0.4062  0.0518
60541SOL    HW186434   7.715   8.188   1.823 -1.2394  0.1725  0.0637
60541SOL    HW286435   7.636   8.147   1.700  0.3777  2.8899 -1.9825
60542SOL     OW86436   7.320  11.405   5.196 -0.0999 -0.0278  0.2521
60542SOL    HW186437   7.358  11.492   5.194  0.0458 -0.1068 -1.0006
60542SOL    HW286438   7.338  11.373   5.285  1.7788  0.3670  0.0507
60543SOL     OW86439   7.529   2.796  10.547 -0.3285 -0.0332 -0.1333
60543SOL    HW186440   7.523   2.775  10.454  2.4668  0.6466 -0.5563
60543SOL    HW286441   7.482   2.878  10.557 -0.0084  0.2902 -1.1380
60544SOL     OW86442   0.520   8.503   9.422  0.4418 -0.3584 -0.2902
60544SOL    HW186443   0.527   8.562   9.497  1.2784 -0.0653 -0.5833
60544SOL    HW286444   0.611   8.489   9.395  0.1612 -0.6412 -1.1052
60545SOL     OW86445   1.444   8.755   5.431  0.2701 -0.0726 -0.4991
60545SOL    HW186446   1.444   8.659   5.428 -1.7122 -0.0888 -1.9691
60545SOL    HW286447   1.528   8.780   5.393 -0.1226 -1.2565 -2.2786
60546SOL     OW86448   8.334   3.659   9.363  0.1517 -0.1130  0.0890
60546SOL    HW186449   8.424   3.671   9.392 -0.6780  2.1693  2.0799
60546SOL    HW286450   8.305   3.578   9.405  0.9232 -0.2841  0.2986
60547SOL     OW86451   8.359   3.410   2.235  0.2569 -0.4657  0.3735
60547SOL    HW186452   8.309   3.328   2.241 -0.2790 -0.0646  1.8381
60547SOL    HW286453   8.326   3.464   2.307  3.2501 -0.4081  1.8458
60548SOL     OW86454   7.835   0.725   8.345  0.8151 -0.1659  0.1392
60548SOL    HW186455   7.755   0.701   8.298 -0.3832  3.8679 -0.3179
60548SOL    HW286456   7.821   0.694   8.434 -2.2258  1.9103  0.5434
60549SOL     OW86457   7.962   2.551   1.584 -0.4027  0.0941  0.2775
60549SOL    HW186458   7.900   2.477   1.584 -1.2348  0.7752  0.9985
60549SOL    HW286459   7.958   2.585   1.673  1.7566 -0.4308  0.6422
60550SOL     OW86460   4.110  12.395   7.319 -0.0678 -0.2526 -0.3583
60550SOL    HW186461   4.177  12.462   7.324  0.0060 -0.3269 -0.3587
60550SOL    HW286462   4.132  12.344   7.241 -0.4214  0.0397 -0.6550
60551SOL     OW86463   9.996   8.166   1.155 -0.5688 -0.2761  0.2556
60551SOL    HW186464   9.916   8.217   1.141 -1.7601 -1.9626  0.7003
60551SOL    HW286465   9.983   8.086   1.104  1.2352 -0.2138 -0.3760
60552SOL     OW86466   4.529   5.892   3.559 -0.2973  0.2113  0.1013
60552SOL    HW186467   4.440   5.917   3.584 -0.0255 -0.7261  2.2763
60552SOL    HW286468   4.528   5.890   3.464 -2.0198  2.2095  0.0159
60553SOL     OW86469  11.703   8.202   1.360  0.2310 -0.3811 -0.5794
60553SOL    HW186470  11.618   8.167   1.388 -0.4693  2.0570  0.6407
60553SOL    HW286471  11.699   8.201   1.265 -1.2147 -0.2523 -0.5520
60554SOL     OW86472   5.080   8.544   0.537  0.2380  0.6520  0.2658
60554SOL    HW186473   5.083   8.472   0.600 -0.2903  1.0643  0.7791
60554SOL    HW286474   5.168   8.548   0.501  0.8669  1.0667  1.7417
60555SOL     OW86475   2.944   5.394   4.957 -0.0995  0.0009 -0.3911
60555SOL    HW186476   2.925   5.471   4.903  2.5696  0.5756 -0.6606
60555SOL    HW286477   2.933   5.425   5.047 -0.1347  0.3754 -0.5216
60556SOL     OW86478   7.311   1.959   5.496  0.0913 -0.2375  0.3146
60556SOL    HW186479   7.370   1.888   5.520  0.4007  0.0382  0.3727
60556SOL    HW286480   7.283   1.938   5.406 -0.1557 -0.6528  0.4837
60557SOL     OW86481   4.742   0.423   1.372 -0.0960 -0.0720 -0.4993
60557SOL    HW186482   4.812   0.487   1.386 -0.5611  0.0339  1.7640
60557SOL    HW286483   4.668   0.475   1.341  0.0273  0.2397 -0.2823
60558SOL     OW86484   8.298  11.501   7.114 -0.0236 -0.2061 -0.6385
60558SOL    HW186485   8.383  11.474   7.080 -0.2275  0.4569 -1.7212
60558SOL    HW286486   8.319  11.548   7.195  0.7715  1.0294 -1.5243
60559SOL     OW86487   5.798   9.746   9.521 -0.1871 -0.8310 -0.1128
60559SOL    HW186488   5.814   9.700   9.604 -0.0506 -0.0546  0.2978
60559SOL    HW286489   5.885   9.772   9.492 -0.3318 -0.1904  0.0286
60560SOL     OW86490   4.094   4.874   3.709 -0.2261 -0.2029  0.0579
60560SOL    HW186491   4.113   4.897   3.800 -0.6003  0.7349 -0.0896
60560SOL    HW286492   4.170   4.824   3.680 -0.9647 -2.3162  1.4973
60561SOL     OW86493   9.244  11.510   9.697 -0.4295  0.0307  0.2452
60561SOL    HW186494   9.309  11.572   9.664 -0.9318 -0.3813 -1.6338
60561SOL    HW286495   9.252  11.434   9.639 -2.0381 -0.3470  0.4803
60562SOL     OW86496   0.813   7.252  12.377 -0.0668 -0.2389  0.0612
60562SOL    HW186497   0.841   7.238  12.287 -1.0094  0.4295 -0.3507
60562SOL    HW286498   0.802   7.347  12.384 -0.4653 -0.3289  0.7332
60563SOL     OW86499   5.215  11.731   3.141  0.1335  0.0527 -0.0028
60563SOL    HW186500   5.163  11.657   3.109 -0.9226  0.4814  0.6617
60563SOL    HW286501   5.286  11.739   3.078  1.9240 -3.2546  1.3593
60564SOL     OW86502   5.786   2.423   8.988  0.4123  0.2347  0.5357
60564SOL    HW186503   5.728   2.364   9.036  0.1063 -0.5073 -0.7031
60564SOL    HW286504   5.874   2.400   9.017  0.5274 -2.4596 -1.5158
60565SOL     OW86505   1.846   9.060   2.682 -0.3536  0.1407 -0.5366
60565SOL    HW186506   1.876   8.988   2.738  0.8871  2.0943  1.4927
60565SOL    HW286507   1.802   9.120   2.743 -2.6814  0.4912 -2.3919
60566SOL     OW86508   7.488  10.398   7.033 -0.0654  0.1386 -0.8265
60566SOL    HW186509   7.428  10.392   7.107  1.3941  0.2200  0.4032
60566SOL    HW286510   7.482  10.312   6.991 -1.4556  0.3403 -1.0934
60567SOL     OW86511  11.814   3.106   3.985 -0.2047 -0.1330 -0.1255
60567SOL    HW186512  11.793   3.022   3.943 -0.0528 -0.1893 -0.0894
60567SOL    HW286513  11.735   3.129   4.033 -0.1892 -0.3414  0.0025
60568SOL     OW86514   4.763   8.462  11.185  0.1809 -0.0317 -0.0040
60568SOL    HW186515   4.714   8.491  11.108 -0.0854  1.0000  0.5396
60568SOL    HW286516   4.846   8.509  11.180  0.0963  0.1637  0.4264
60569SOL     OW86517   5.220  11.387   4.452 -0.3308  0.2428  0.0939
60569SOL    HW186518   5.207  11.297   4.421  0.9417  0.0324  0.1326
60569SOL    HW286519   5.132  11.425   4.451 -0.5937 -0.2632 -2.1806
60570SOL     OW86520  11.448  10.657   7.984  0.3989  0.1826 -0.1442
60570SOL    HW186521  11.418  10.631   8.071 -0.8647  1.6271 -0.1026
60570SOL    HW286522  11.484  10.577   7.946 -0.0232 -0.7305  1.2907
60571SOL     OW86523   1.185   1.524   6.184 -0.0794 -0.5960  1.1223
60571SOL    HW186524   1.161   1.616   6.173  1.3515 -0.2899  0.3692
60571SOL    HW286525   1.106   1.475   6.159 -0.5475  0.3998  0.6272
60572SOL     OW86526   9.914   6.595   2.307 -0.4454  0.3292 -0.0918
60572SOL    HW186527   9.957   6.657   2.366 -0.0314  1.1317 -1.2035
60572SOL    HW286528   9.941   6.623   2.220 -0.5215 -1.2239 -0.6395
60573SOL     OW86529   0.242   6.242  10.174  0.5433  0.3853  0.3364
60573SOL    HW186530   0.187   6.192  10.234  1.4662 -0.4265  0.5284
60573SOL    HW286531   0.322   6.191  10.166  0.9705  1.1554 -0.5462
60574SOL     OW86532   3.652   5.468   3.469 -0.2551  0.0874  0.3992
60574SOL    HW186533   3.690   5.493   3.384  0.3157 -0.6830  0.4121
60574SOL    HW286534   3.727   5.440   3.521 -0.5312  1.0844  1.3652
60575SOL     OW86535  12.202  10.402   2.948 -0.1549  0.2398  0.0138
60575SOL    HW186536  12.268  10.376   2.884  1.0797  0.6872  1.0715
60575SOL    HW286537  12.147  10.324   2.959  0.1712 -0.1324 -0.9043
60576SOL     OW86538   8.752  10.430   5.179  0.1848  0.9843  0.0672
60576SOL    HW186539   8.817  10.401   5.242 -1.6412  0.4578  1.8187
60576SOL    HW286540   8.700  10.495   5.226 -1.4337  0.3489 -0.7454
60577SOL     OW86541   3.904   0.865   9.979 -0.2484 -0.1785  0.5793
60577SOL    HW186542   3.861   0.788   9.941 -1.3580  0.9780 -0.6180
60577SOL    HW286543   3.893   0.933   9.913 -0.8375  1.5049  2.3175
60578SOL     OW86544  11.530   3.470  10.868 -0.2302  0.3048 -0.3807
60578SOL    HW186545  11.563   3.493  10.955 -0.3188  0.9907 -0.5161
60578SOL    HW286546  11.580   3.392  10.843 -1.3049 -0.8237  0.9096
60579SOL     OW86547  10.155   9.950   8.543 -0.5800  0.1614 -0.6667
60579SOL    HW186548  10.108   9.985   8.467  0.8794  2.4442 -0.6100
60579SOL    HW286549  10.247   9.955   8.519 -0.1817 -0.9015  0.5417
60580SOL     OW86550  11.622   8.574   9.124 -0.1194  0.4840  0.0694
60580SOL    HW186551  11.692   8.584   9.059  0.0211  0.0467  0.1445
60580SOL    HW286552  11.557   8.639   9.100  0.0468  0.4972 -0.3583
60581SOL     OW86553  12.488   4.037   1.277 -0.0056  0.1918  0.3520
60581SOL    HW186554  12.572   4.016   1.319  0.8220 -0.0743 -1.3371
60581SOL    HW286555  12.457   4.115   1.324  1.5669  0.7566  0.5383
60582SOL     OW86556   2.614   8.387   9.657  0.3230 -0.2124  0.1208
60582SOL    HW186557   2.646   8.452   9.595 -2.2669  1.5784  0.5265
60582SOL    HW286558   2.657   8.409   9.740 -0.6673  1.1520  0.2964
60583SOL     OW86559  11.008  10.609   1.054  0.3192  0.9823 -0.0790
60583SOL    HW186560  11.059  10.672   1.105  0.9973  0.8842 -0.6367
60583SOL    HW286561  11.071  10.566   0.998  0.3211 -1.9228  1.9374
60584SOL     OW86562   6.248   9.646  11.009 -0.3595 -0.9219 -0.6486
60584SOL    HW186563   6.262   9.657  10.915  0.0970  1.7974 -0.3581
60584SOL    HW286564   6.153   9.633  11.018 -0.6486  0.4490 -1.4149
60585SOL     OW86565   9.729  10.549   3.596  0.5164  0.2004 -0.0995
60585SOL    HW186566   9.734  10.494   3.674  0.8292 -0.1685 -0.3785
60585SOL    HW286567   9.721  10.638   3.630  0.6746  0.0442  0.3531
60586SOL     OW86568   9.876  11.384   8.967  0.4717  0.6595  0.3963
60586SOL    HW186569   9.864  11.472   8.932  2.3972  0.3977 -1.0946
60586SOL    HW286570   9.828  11.327   8.906  0.2014  0.5824  0.6826
60587SOL     OW86571  10.777   8.453   3.171  0.4174  0.6638 -0.6441
60587SOL    HW186572  10.724   8.484   3.244 -0.9418 -0.1578 -1.2525
60587SOL    HW286573  10.807   8.367   3.198 -0.3354  0.2333 -1.1705
60588SOL     OW86574   0.515   7.247   3.086 -0.0911  0.0033 -0.3204
60588SOL    HW186575   0.443   7.246   3.149 -0.1530  0.1435 -0.3888
60588SOL    HW286576   0.474   7.227   3.002 -0.0542  0.1047 -0.3633
60589SOL     OW86577  12.422  12.194   0.571 -0.1641 -0.2596  0.0339
60589SOL    HW186578  12.471  12.261   0.618 -0.7157 -0.0984  0.3963
60589SOL    HW286579  12.349  12.242   0.532  0.8756 -0.1859 -1.9358
60590SOL     OW86580  11.104   0.063   5.822 -0.3957 -0.6057  0.5496
60590SOL    HW186581  11.033   0.036   5.762 -0.1799 -0.6626  0.3200
60590SOL    HW286582  11.063   0.062   5.908 -0.8450 -0.0253  0.3461
60591SOL     OW86583   6.135   4.514  11.770  0.2913 -0.0185 -0.1235
60591SOL    HW186584   6.208   4.499  11.830 -0.2899  0.6360  0.7749
60591SOL    HW286585   6.098   4.598  11.798 -0.2196  0.1120 -1.1685
60592SOL     OW86586   5.769   8.819   9.874 -0.3682  0.4840  0.0083
60592SOL    HW186587   5.832   8.865   9.818 -0.0245  0.0174  0.0138
60592SOL    HW286588   5.811   8.736   9.895 -1.3991 -0.2745 -0.8182
60593SOL     OW86589  12.627   9.164   2.244 -0.5585  0.5063 -0.3503
60593SOL    HW186590  12.591   9.223   2.310  0.6706  1.0869 -0.1759
60593SOL    HW286591  12.684   9.105   2.292  0.2147  0.8255 -0.8542
60594SOL     OW86592   2.717   5.893   4.796  0.6169 -0.0804 -0.6298
60594SOL    HW186593   2.645   5.840   4.760  0.3801 -0.0931 -0.1571
60594SOL    HW286594   2.685   5.983   4.793  0.1955 -0.1756  0.4291
60595SOL     OW86595   1.557   1.177   8.416 -0.1878 -0.0073 -0.3475
60595SOL    HW186596   1.495   1.212   8.479 -0.1585 -0.9445  0.2128
60595SOL    HW286597   1.639   1.168   8.465  0.2058  0.5266 -0.8836
60596SOL     OW86598   1.378   2.600   0.850  0.4367 -0.0924 -0.7480
60596SOL    HW186599   1.439   2.674   0.846 -0.6092  0.7426 -2.8414
60596SOL    HW286600   1.297   2.637   0.883  0.8088 -1.0656  1.3864
60597SOL     OW86601   1.558   4.030   0.813  0.1040 -0.5148  0.2216
60597SOL    HW186602   1.465   4.007   0.804 -0.4609  0.8422  1.8243
60597SOL    HW286603   1.566   4.059   0.904  2.0474 -0.3068  0.0276
60598SOL     OW86604  10.975   5.496  10.577  0.2311  0.1630 -0.2603
60598SOL    HW186605  11.000   5.444  10.501 -0.8201 -0.3184 -0.3040
60598SOL    HW286606  11.057   5.518  10.620  0.8282  0.3311 -1.4614
60599SOL     OW86607   9.224   9.009  12.513 -0.3719  0.0151 -0.0815
60599SOL    HW186608   9.268   8.937  12.468  1.9878  0.7461  0.8878
60599SOL    HW286609   9.227   8.985  12.606  2.2214  2.0881  0.5005
60600SOL     OW86610   0.163   1.573   7.932 -0.0877 -0.3958  0.0136
60600SOL    HW186611   0.217   1.563   8.010 -0.8197  0.1267  0.6050
60600SOL    HW286612   0.084   1.521   7.950 -0.8320  0.7549  0.1857
60601SOL     OW86613   4.959   8.979   7.723  0.5795 -0.0154 -0.4434
60601SOL    HW186614   4.931   9.040   7.791 -0.8185 -0.1826 -0.8211
60601SOL    HW286615   4.976   8.897   7.768 -0.9716 -0.3091 -0.3413
60602SOL     OW86616   8.739  10.048   0.560  0.1806 -0.3321 -0.0369
60602SOL    HW186617   8.832  10.062   0.539  0.4373  1.3133  1.7949
60602SOL    HW286618   8.741   9.981   0.629  0.0687  0.0314  0.3240
60603SOL     OW86619   6.944   1.273  12.142 -0.5012  0.1800  0.5586
60603SOL    HW186620   6.944   1.252  12.236  3.8530 -1.0795  0.5042
60603SOL    HW286621   6.968   1.192  12.099 -0.3502  1.2431 -1.4768
60604SOL     OW86622   9.530   2.946  11.432 -0.1441  0.0469  0.5520
60604SOL    HW186623   9.461   2.953  11.498 -0.9535  3.1190 -0.4278
60604SOL    HW286624   9.551   3.037  11.410  1.4209 -0.8425 -2.0779
60605SOL     OW86625   6.352   1.082  11.067  0.0221 -0.3277  0.3210
60605SOL    HW186626   6.336   1.000  11.115 -1.0596 -0.9018 -0.9409
60605SOL    HW286627   6.387   1.054  10.983  0.3236  0.5679  0.1400
60606SOL     OW86628  12.352   2.524   2.681  0.2419  0.0764 -0.3632
60606SOL    HW186629  12.289   2.451   2.682 -0.3712  0.5926  0.5046
60606SOL    HW286630  12.321   2.582   2.611  0.6548 -0.4233 -0.9671
60607SOL     OW86631   7.247  11.824   6.767  0.0798  0.2703  0.5664
60607SOL    HW186632   7.213  11.735   6.781  0.8910  0.1568  2.0635
60607SOL    HW286633   7.231  11.841   6.674  0.5326 -1.7132  0.0628
60608SOL     OW86634   2.514   1.331   3.337 -0.4017 -0.4838 -0.0549
60608SOL    HW186635   2.470   1.373   3.263 -0.8682 -0.7633  0.0552
60608SOL    HW286636   2.598   1.302   3.302 -1.6034 -2.8998 -1.2487
60609SOL     OW86637   0.797   7.092   0.665 -0.2097  0.5190  0.3189
60609SOL    HW186638   0.830   7.003   0.672 -2.2791 -0.2704  0.7953
60609SOL    HW286639   0.702   7.082   0.664 -0.4830  2.6927 -0.1773
60610SOL     OW86640  12.505   6.863   8.915  0.4627  0.2887  0.2124
60610SOL    HW186641  12.540   6.876   9.004  0.9126 -0.4630  0.1582
60610SOL    HW286642  12.458   6.780   8.920  0.5198  0.2265 -0.2635
60611SOL     OW86643  11.116  10.676   7.172  0.2987  0.0113  0.3464
60611SOL    HW186644  11.143  10.767   7.185  1.5445  0.1535 -2.5055
60611SOL    HW286645  11.157  10.650   7.090 -3.0420 -1.9615 -0.8983
60612SOL     OW86646   3.164   4.458   7.410  0.1182 -0.0215  0.2291
60612SOL    HW186647   3.134   4.540   7.371 -1.1905 -1.0010 -0.9220
60612SOL    HW286648   3.221   4.419   7.344  0.1434 -0.3900  0.4647
60613SOL     OW86649   8.361   4.056   1.536 -0.2756  0.4550 -0.2972
60613SOL    HW186650   8.434   4.083   1.592  0.4624  1.3607 -1.6633
60613SOL    HW286651   8.366   4.113   1.459  0.8419 -2.8720 -2.9401
60614SOL     OW86652   9.854   5.392   2.507 -0.1296  0.7845  0.4985
60614SOL    HW186653   9.858   5.435   2.421  0.7292  0.3798  0.3196
60614SOL    HW286654   9.881   5.461   2.568  0.5212  0.7188  0.2946
60615SOL     OW86655  11.007  11.658   3.359  0.0535  0.2848  0.2332
60615SOL    HW186656  11.041  11.575   3.393  1.4061  0.2141 -1.1782
60615SOL    HW286657  10.966  11.634   3.275  0.8255  1.0869 -0.3887
60616SOL     OW86658   3.771   5.370   2.742  0.1487 -0.2115  0.0471
60616SOL    HW186659   3.837   5.440   2.747  0.5828 -0.6088 -0.0035
60616SOL    HW286660   3.821   5.293   2.717 -0.0723 -0.8724  1.5711
60617SOL     OW86661   4.677  11.458   9.250 -0.6950 -0.0626 -0.1925
60617SOL    HW186662   4.600  11.504   9.217  0.0967  1.1749 -0.3637
60617SOL    HW286663   4.693  11.496   9.337 -0.3763 -0.4461 -0.0764
60618SOL     OW86664   7.172   9.251   0.397  0.3466  0.1105  0.4098
60618SOL    HW186665   7.165   9.296   0.312 -0.9076 -0.3639  0.2394
60618SOL    HW286666   7.101   9.187   0.395  1.3806 -1.0816  1.1307
60619SOL     OW86667   0.578  12.590   0.932 -0.2671 -0.1921 -0.4870
60619SOL    HW186668   0.588  12.683   0.952 -2.0842  0.4684 -2.2491
60619SOL    HW286669   0.496  12.565   0.975 -0.5407 -0.5740 -1.2066
60620SOL     OW86670   3.475   4.129   5.758 -0.1237  0.1140 -0.1387
60620SOL    HW186671   3.522   4.118   5.840  1.5374  0.9246 -0.9369
60620SOL    HW286672   3.411   4.198   5.776  1.1462  1.2482  0.1333
60621SOL     OW86673   8.599   0.386   6.220  0.0944 -0.1566  0.3779
60621SOL    HW186674   8.686   0.350   6.235 -0.1957 -1.1181 -0.1017
60621SOL    HW286675   8.581   0.368   6.128  0.5728  2.7381 -0.3674
60622SOL     OW86676   2.437  10.055  10.553  1.0293  0.5918 -0.3821
60622SOL    HW186677   2.530  10.042  10.569  0.4163 -2.4653  1.4849
60622SOL    HW286678   2.410   9.978  10.503 -0.6800  0.8852  0.0329
60623SOL     OW86679  10.379   3.037   0.942 -0.1709 -0.1446 -0.0992
60623SOL    HW186680  10.405   2.956   0.897 -1.4896 -0.4148 -0.4321
60623SOL    HW286681  10.408   3.107   0.885  1.5126 -0.3377  0.4714
60624SOL     OW86682  11.692   1.792   4.568 -0.1526  0.3680  0.0800
60624SOL    HW186683  11.772   1.763   4.613 -0.2479 -2.1724 -1.2262
60624SOL    HW286684  11.621   1.768   4.628 -0.1761 -1.5404 -0.6544
60625SOL     OW86685   7.345   9.295   5.396 -0.2026  0.5120 -0.0643
60625SOL    HW186686   7.323   9.237   5.469 -3.8172  2.4072  0.5617
60625SOL    HW286687   7.307   9.253   5.319  0.4382  0.2769 -0.2583
60626SOL     OW86688   9.443   1.321   5.643  0.2588  0.2957  0.3565
60626SOL    HW186689   9.481   1.236   5.664 -2.1777 -0.6938  1.1639
60626SOL    HW286690   9.475   1.380   5.711  0.9550 -0.2748  0.5308
60627SOL     OW86691   3.174   8.453  11.519 -0.8679 -0.0413  0.2519
60627SOL    HW186692   3.083   8.437  11.492 -1.3949 -0.8247  2.3171
60627SOL    HW286693   3.174   8.542  11.552 -0.2735  0.8363 -1.9477
60628SOL     OW86694   1.821   9.007   1.011  0.2729 -0.5631  0.4751
60628SOL    HW186695   1.749   8.952   0.977  0.5875  1.0206 -3.2803
60628SOL    HW286696   1.890   8.944   1.033 -0.5053 -1.8654 -0.6163
60629SOL     OW86697  11.096   9.835   0.808  0.7687  0.3786  0.7246
60629SOL    HW186698  11.049   9.752   0.808 -0.3563  0.9911  0.5114
60629SOL    HW286699  11.030   9.900   0.834  1.3959  1.3140  0.0733
60630SOL     OW86700   0.744  10.791   4.970  0.2845 -0.3831  0.1224
60630SOL    HW186701   0.687  10.822   4.899  1.4332  0.2393 -0.5654
60630SOL    HW286702   0.815  10.855   4.973  1.0237 -1.2164  0.8625
60631SOL     OW86703   4.400   4.305   4.010  0.3317 -0.7205  0.1944
60631SOL    HW186704   4.342   4.375   3.977 -1.2893 -2.1622 -0.1825
60631SOL    HW286705   4.422   4.255   3.931 -3.5960 -4.2264  0.9739
60632SOL     OW86706   4.858   5.907   5.963  0.2411  0.1844  0.4150
60632SOL    HW186707   4.920   5.883   6.032  1.7737  0.9614 -0.6019
60632SOL    HW286708   4.912   5.957   5.900 -1.0949 -0.4367 -1.2963
60633SOL     OW86709   1.374   1.321  12.068 -0.1278 -0.0199  0.0871
60633SOL    HW186710   1.452   1.375  12.056 -0.6168  1.0440  1.5024
60633SOL    HW286711   1.332   1.356  12.147 -2.1175 -0.4764 -0.7143
60634SOL     OW86712   7.887  12.436   5.831  0.3019  0.6009 -0.3891
60634SOL    HW186713   7.840  12.518   5.813  1.1421  1.1146 -0.3131
60634SOL    HW286714   7.818  12.373   5.850 -0.3511  1.4456  0.1702
60635SOL     OW86715   4.885   3.006  11.009 -0.6337  0.4830 -0.9019
60635SOL    HW186716   4.948   2.959  11.063 -1.6809 -0.6090 -0.5953
60635SOL    HW286717   4.869   2.948  10.934 -2.8254 -0.2616  0.0571
60636SOL     OW86718   4.353  10.279   4.013  0.1115  0.3029 -0.0924
60636SOL    HW186719   4.369  10.188   4.037 -1.6611 -0.2633 -0.8859
60636SOL    HW286720   4.279  10.306   4.068 -0.4065  0.7405 -0.9760
60637SOL     OW86721  12.000   8.807   4.255 -0.4965  0.2038 -0.1620
60637SOL    HW186722  12.063   8.736   4.240  0.4541  1.3680 -2.1283
60637SOL    HW286723  11.915   8.767   4.239  0.0019 -0.5751 -0.9783
60638SOL     OW86724   7.114   4.789   4.252 -0.2584 -0.3362 -0.2031
60638SOL    HW186725   7.052   4.733   4.205 -0.4668 -0.6118  0.3837
60638SOL    HW286726   7.098   4.769   4.344 -0.1478  0.5007  0.0009
60639SOL     OW86727   6.262   1.191   7.786 -0.3453 -0.2039 -0.3387
60639SOL    HW186728   6.215   1.233   7.715 -0.8085  0.2703  0.2372
60639SOL    HW286729   6.228   1.232   7.865  0.8723 -0.0110  0.1076
60640SOL     OW86730   9.626  12.152   6.043 -0.5701 -0.1423 -0.0116
60640SOL    HW186731   9.632  12.229   6.100 -2.3495 -0.5022  0.7428
60640SOL    HW286732   9.685  12.088   6.082  0.7026  0.7186 -0.4764
60641SOL     OW86733  11.818   0.213   7.040 -0.1296  0.6141  0.0627
60641SOL    HW186734  11.789   0.303   7.022  0.6543  1.1617  1.3600
60641SOL    HW286735  11.893   0.224   7.099  1.0402 -0.8450 -1.0927
60642SOL     OW86736  11.481  12.441   4.467 -0.3113  0.0141 -0.1223
60642SOL    HW186737  11.575  12.455   4.455 -0.6459  2.4445 -0.5125
60642SOL    HW286738  11.470  12.346   4.461  1.8026 -0.2040 -2.6633
60643SOL     OW86739   0.196   1.806  11.617 -0.1080 -0.0153  0.2201
60643SOL    HW186740   0.250   1.832  11.691 -0.2545  0.2906  0.2220
60643SOL    HW286741   0.107   1.830  11.642 -0.4970 -1.9168  0.8811
60644SOL     OW86742   7.526   5.987   9.131  0.3159  0.3306  0.6610
60644SOL    HW186743   7.507   5.983   9.037  0.1332 -0.4129  0.7204
60644SOL    HW286744   7.573   6.069   9.143 -0.9542  1.1610  0.1499
60645SOL     OW86745   4.930   1.713  12.266 -0.3633 -1.0182  0.5026
60645SOL    HW186746   4.917   1.667  12.183  0.3758  0.0908 -0.2724
60645SOL    HW286747   4.977   1.793  12.241 -0.8631 -0.2622  1.8975
60646SOL     OW86748   3.256  12.067  10.202  0.0852  0.4870 -0.1660
60646SOL    HW186749   3.312  12.001  10.244  0.5396  0.4323 -0.8473
60646SOL    HW286750   3.173  12.022  10.187  0.4217  0.0279 -0.7126
60647SOL     OW86751   9.147   8.202  11.060  0.0896  0.3479  0.1994
60647SOL    HW186752   9.178   8.135  10.999  1.6220  2.4330 -1.4315
60647SOL    HW286753   9.076   8.159  11.108  0.2921 -2.0784 -1.4972
60648SOL     OW86754  10.585   8.780  10.284 -0.6031 -0.6251 -0.3838
60648SOL    HW186755  10.640   8.844  10.238 -0.1540 -1.5968 -1.2408
60648SOL    HW286756  10.501   8.824  10.295 -0.4655 -0.0610 -1.4325
60649SOL     OW86757   8.838   4.898   2.654 -0.1289  0.2278  0.0542
60649SOL    HW186758   8.798   4.955   2.720 -1.0208 -2.5840  2.1068
60649SOL    HW286759   8.769   4.884   2.589  0.1404  1.5047 -0.5421
60650SOL     OW86760   1.343   4.631   0.592  0.2271 -0.4714  0.0569
60650SOL    HW186761   1.433   4.661   0.608  0.7124 -2.7513  2.3506
60650SOL    HW286762   1.353   4.541   0.560 -1.2142 -0.6281 -0.0249
60651SOL     OW86763   1.615   4.290   0.372 -1.0210  0.3305  0.2307
60651SOL    HW186764   1.681   4.222   0.358 -0.3834  1.0717 -0.4515
60651SOL    HW286765   1.581   4.309   0.284 -1.9107  0.2011  0.5335
60652SOL     OW86766   2.982   5.714  10.341  0.1935  0.0579  0.1468
60652SOL    HW186767   2.933   5.702  10.260 -1.2151  0.5398  0.8900
60652SOL    HW286768   2.963   5.636  10.393  0.3015  0.1959  0.3940
60653SOL     OW86769   1.958   6.731  11.461  0.1333 -0.2524  0.0619
60653SOL    HW186770   2.000   6.717  11.546  1.0021 -1.5482 -0.5424
60653SOL    HW286771   1.866   6.745  11.482 -0.4916 -4.4793  1.1011
60654SOL     OW86772  10.661   3.365   8.504 -0.1914 -0.3842 -0.1260
60654SOL    HW186773  10.583   3.404   8.465 -1.1524 -1.0989  0.9816
60654SOL    HW286774  10.734   3.413   8.466 -1.1624  0.2306 -1.2886
60655SOL     OW86775   0.779   4.433   7.238 -0.6237  0.0929 -0.0479
60655SOL    HW186776   0.716   4.373   7.199  0.4173 -1.6804  0.8334
60655SOL    HW286777   0.848   4.442   7.172 -0.4261 -0.3107  0.0949
60656SOL     OW86778   9.395   9.762  10.350  0.1359 -1.2246  0.5113
60656SOL    HW186779   9.322   9.818  10.375  1.6575  1.1005  0.0040
60656SOL    HW286780   9.387   9.685  10.407 -3.6014 -1.9022 -0.6233
60657SOL     OW86781   1.461   8.150   5.173 -0.1513 -0.0733  0.9016
60657SOL    HW186782   1.534   8.189   5.125 -0.3033 -1.1873 -0.2959
60657SOL    HW286783   1.410   8.224   5.205  0.5266  0.7057  0.2033
60658SOL     OW86784   0.250   2.844   9.479 -0.1898 -0.0417  0.3565
60658SOL    HW186785   0.198   2.776   9.435 -0.8725  0.3682  0.5223
60658SOL    HW286786   0.339   2.808   9.481 -0.5202 -0.8885  0.3487
60659SOL     OW86787   4.780   2.929   6.490  0.2862  0.1218 -0.0064
60659SOL    HW186788   4.762   3.004   6.433  1.2139  0.6116  0.3202
60659SOL    HW286789   4.844   2.877   6.441  0.3828  0.0630  0.1831
60660SOL     OW86790   6.309   3.628   8.616 -0.0344  0.0883 -0.1780
60660SOL    HW186791   6.392   3.675   8.618 -0.4859  1.0751 -2.2192
60660SOL    HW286792   6.258   3.671   8.547 -1.1581 -2.2901 -0.9387
60661SOL     OW86793   3.173   8.836  12.430  0.4104 -0.7948  0.1464
60661SOL    HW186794   3.170   8.874  12.342  0.0881 -0.0515  0.4616
60661SOL    HW286795   3.258   8.792  12.435  1.4289  1.0626  0.2087
60662SOL     OW86796   0.180  10.671   9.675  0.4265 -0.1238  0.4648
60662SOL    HW186797   0.142  10.737   9.732  2.5312 -0.0156  1.8692
60662SOL    HW286798   0.273  10.668   9.700  0.5517 -3.1818  0.0798
60663SOL     OW86799   9.788   7.953   1.159  0.2315  0.4069  0.6918
60663SOL    HW186800   9.816   7.906   1.081 -0.0567 -0.9382  1.3627
60663SOL    HW286801   9.748   8.033   1.126  1.2459  0.4579 -0.4625
60664SOL     OW86802  11.115   2.492   1.969  1.1429 -0.0537  0.4416
60664SOL    HW186803  11.120   2.535   2.054 -1.8502 -1.4104  1.4280
60664SOL    HW286804  11.147   2.403   1.984 -0.9129 -0.8110  0.6350
60665SOL     OW86805   6.438   2.529  10.637 -0.0405  0.1277  0.4443
60665SOL    HW186806   6.522   2.488  10.655  1.6310  2.7815 -0.7323
60665SOL    HW286807   6.405   2.484  10.559  0.9264 -0.0792  0.1471
60666SOL     OW86808   4.052   7.208   1.702 -0.2251 -0.2182 -0.2033
60666SOL    HW186809   4.004   7.210   1.785  0.8931  1.6018  0.4574
60666SOL    HW286810   4.029   7.124   1.663 -1.9986 -0.4540  1.2180
60667SOL     OW86811   2.731   7.765  10.809 -0.2518  0.0097  0.0135
60667SOL    HW186812   2.749   7.672  10.822 -0.0976  0.1262  0.6883
60667SOL    HW286813   2.703   7.796  10.895 -1.6431  0.3016 -0.5242
60668SOL     OW86814   4.103   5.573   6.565 -0.3376 -0.1195  0.1888
60668SOL    HW186815   4.091   5.511   6.637  0.2365  0.2009  0.5774
60668SOL    HW286816   4.038   5.642   6.581 -0.8537 -0.5234 -0.1418
60669SOL     OW86817   2.671   1.861  11.722  0.6077 -0.0435 -0.6410
60669SOL    HW186818   2.652   1.889  11.632 -0.0058 -1.8720 -1.1105
60669SOL    HW286819   2.767   1.854  11.725  0.6398  0.1715 -1.1022
60670SOL     OW86820   2.154   3.327   2.499 -0.7259  0.3618  0.3043
60670SOL    HW186821   2.181   3.413   2.532  0.6663  0.2870 -0.5327
60670SOL    HW286822   2.221   3.305   2.434 -0.7352 -1.6022  0.8981
60671SOL     OW86823   1.312   3.925   9.085 -0.2901 -0.1169 -0.3921
60671SOL    HW186824   1.261   3.858   9.131 -0.4778 -1.2890 -2.2019
60671SOL    HW286825   1.392   3.881   9.059  1.3082  1.4555  1.6014
60672SOL     OW86826   8.766   7.121   2.264  0.6128  0.3246  0.7649
60672SOL    HW186827   8.793   7.050   2.322  1.0351  1.0006  1.4038
60672SOL    HW286828   8.810   7.102   2.181  2.3629  0.9195  1.5201
60673SOL     OW86829   4.107   3.555   6.001 -0.9172 -0.4354 -0.1977
60673SOL    HW186830   4.021   3.591   5.978 -0.9327 -0.9971 -1.0608
60673SOL    HW286831   4.087   3.483   6.062 -0.9067  0.7518  1.2540
60674SOL     OW86832  10.575   2.745  11.593  0.2733  0.3629  0.1677
60674SOL    HW186833  10.561   2.800  11.670 -0.8087  0.9677 -0.4339
60674SOL    HW286834  10.586   2.807  11.521 -0.9668 -0.1833 -0.5208
60675SOL     OW86835   3.609   1.165   3.209  0.2162 -0.3847 -0.0672
60675SOL    HW186836   3.681   1.220   3.178  0.2622 -0.7779 -0.6502
60675SOL    HW286837   3.575   1.213   3.285 -1.0712  1.5458 -1.7360
60676SOL     OW86838   1.427   2.153   3.628 -0.1106  0.4220  0.1698
60676SOL    HW186839   1.427   2.058   3.642  0.1486  0.5257  0.9651
60676SOL    HW286840   1.468   2.165   3.543 -0.1171 -0.1782  0.0773
60677SOL     OW86841   4.296   7.654   4.696 -0.0715 -0.2548  0.1956
60677SOL    HW186842   4.257   7.596   4.762  3.2985 -1.9625  0.9208
60677SOL    HW286843   4.390   7.643   4.707  0.7163  0.4584 -4.0207
60678SOL     OW86844   7.988   7.923   4.942  0.7900 -0.3294 -0.1316
60678SOL    HW186845   8.019   7.837   4.972  1.6107  0.1569  0.4322
60678SOL    HW286846   8.063   7.962   4.898 -0.5585 -1.3410 -3.7348
60679SOL     OW86847   5.009   1.314   3.498  0.1124  0.5129 -0.3484
60679SOL    HW186848   5.061   1.234   3.512  1.7875  1.4879 -0.6907
60679SOL    HW286849   4.964   1.328   3.581  0.2787 -0.4581 -0.0801
60680SOL     OW86850   8.613  11.906  12.600  0.1590  0.1562 -0.4480
60680SOL    HW186851   8.676  11.976  12.618  0.7313 -0.4845  0.0910
60680SOL    HW286852   8.618  11.893  12.505 -0.2688  1.1292 -0.6205
60681SOL     OW86853   7.807  10.478   1.687  0.5200  0.0647  0.1542
60681SOL    HW186854   7.718  10.513   1.687  0.6066  0.3692 -1.2156
60681SOL    HW286855   7.838  10.490   1.776  0.0196  2.1538  0.0977
60682SOL     OW86856   5.423   3.269   6.132 -0.1373 -0.0586  0.2636
60682SOL    HW186857   5.514   3.240   6.123 -0.8630 -2.0206 -1.3751
60682SOL    HW286858   5.430   3.353   6.178  2.3569 -1.0104  1.8699
60683SOL     OW86859   9.228   2.102   7.293  0.5745  0.2653 -0.2394
60683SOL    HW186860   9.258   2.146   7.372 -1.4608 -0.4911  1.0306
60683SOL    HW286861   9.254   2.161   7.222 -2.1092  3.7639  1.3475
60684SOL     OW86862  10.747   9.453   9.661 -0.0598  0.6283  0.0636
60684SOL    HW186863  10.802   9.525   9.692 -1.5616  1.9392 -0.2439
60684SOL    HW286864  10.692   9.431   9.736 -1.3675  1.5468 -0.5950
60685SOL     OW86865  12.162  10.130   2.524 -0.1302 -0.2404  0.1747
60685SOL    HW186866  12.217  10.100   2.597  0.8253  1.7842  0.3724
60685SOL    HW286867  12.210  10.104   2.446 -1.1172 -2.3488  0.2275
60686SOL     OW86868   9.174   2.037   5.448  0.1377 -0.6056 -0.5523
60686SOL    HW186869   9.189   1.991   5.365  0.2533 -2.1330  0.2858
60686SOL    HW286870   9.259   2.035   5.492 -0.1301 -0.5809 -0.0237
60687SOL     OW86871   6.390  11.339   2.609 -0.0284 -0.5661 -0.2942
60687SOL    HW186872   6.381  11.248   2.580 -1.9295 -1.2791  2.2075
60687SOL    HW286873   6.447  11.334   2.686  0.1565  0.4453 -0.3472
60688SOL     OW86874   0.347   2.776   8.630  0.0926  0.2382 -0.4471
60688SOL    HW186875   0.419   2.822   8.673 -0.4082  0.3005  0.3322
60688SOL    HW286876   0.389   2.702   8.586  0.8437  1.1459 -1.3279
60689SOL     OW86877   9.877   8.881   9.974 -0.3394  0.3662  0.8132
60689SOL    HW186878   9.839   8.882  10.061 -0.0389  1.0596  0.9478
60689SOL    HW286879   9.801   8.879   9.915 -0.5651  0.7845  1.0850
60690SOL     OW86880   4.759   4.750   3.101  0.2817 -0.0278 -0.2568
60690SOL    HW186881   4.669   4.782   3.095 -0.0337 -0.8664 -0.1279
60690SOL    HW286882   4.786   4.770   3.191 -0.8775 -2.5212  0.7383
60691SOL     OW86883   1.258   4.802   0.096  0.2081 -0.2200  0.0921
60691SOL    HW186884   1.233   4.717   0.131 -0.6764  0.6810  1.8201
60691SOL    HW286885   1.196   4.863   0.136  0.3878  1.1778 -1.6067
60692SOL     OW86886  10.967   0.906   0.362 -0.7221  0.4008 -0.1463
60692SOL    HW186887  10.965   0.810   0.365  1.1564  0.3388  0.6634
60692SOL    HW286888  10.876   0.932   0.380 -1.0723 -1.2196  0.6769
60693SOL     OW86889   5.204   2.100  10.093  0.0988  0.1667  0.0659
60693SOL    HW186890   5.123   2.049  10.095  0.3514 -0.3013 -1.0185
60693SOL    HW286891   5.235   2.092  10.003 -0.5279  3.3183 -0.5439
60694SOL     OW86892   3.423  11.746   9.396  0.6422 -0.0949  0.2261
60694SOL    HW186893   3.397  11.655   9.412  0.0621  0.0954  0.3948
60694SOL    HW286894   3.407  11.790   9.480  0.2157  0.3202 -0.0677
60695SOL     OW86895   7.577   7.385   1.324 -0.0222  0.4877 -0.0480
60695SOL    HW186896   7.609   7.463   1.368 -0.2586  1.2608 -1.1910
60695SOL    HW286897   7.484   7.401   1.309 -0.4240 -0.6696  1.0254
60696SOL     OW86898   2.670  10.057   8.614 -0.0465 -0.0137 -0.5447
60696SOL    HW186899   2.575  10.051   8.621 -0.1722 -0.0869 -2.1439
60696SOL    HW286900   2.687  10.148   8.592  0.4800  0.6952  2.3242
60697SOL     OW86901  10.646   6.907   4.637 -0.4447 -0.2593  0.0476
60697SOL    HW186902  10.607   6.875   4.719 -2.1224  0.3501 -0.4649
60697SOL    HW286903  10.734   6.870   4.637 -1.3258 -2.6085  0.7831
60698SOL     OW86904   6.747   9.272   5.298 -0.1490 -0.1690 -0.0101
60698SOL    HW186905   6.687   9.333   5.343  0.7800  1.2724 -0.6573
60698SOL    HW286906   6.823   9.268   5.355 -0.1374 -0.6115 -0.0563
60699SOL     OW86907  11.341   5.459   3.398  0.5117  0.0874  0.2364
60699SOL    HW186908  11.343   5.444   3.493  0.6658  1.2184  0.4316
60699SOL    HW286909  11.289   5.539   3.388  0.3261 -0.1363 -0.6574
60700SOL     OW86910  11.462   2.941   7.205  0.1005 -0.3082  0.0612
60700SOL    HW186911  11.482   2.859   7.160  0.7945 -0.5375  0.7674
60700SOL    HW286912  11.545   2.989   7.205 -0.4749  0.7147 -0.9827
60701SOL     OW86913  10.116   4.003   9.374  0.0237 -0.2981  0.1036
60701SOL    HW186914  10.156   4.061   9.438 -0.8378  1.1650 -0.6221
60701SOL    HW286915  10.030   3.983   9.410 -0.2022 -0.0149 -0.2637
60702SOL     OW86916   4.647  12.486   0.176 -0.6411  0.2171  0.5274
60702SOL    HW186917   4.590  12.499   0.100 -0.5933  0.2383  0.4953
60702SOL    HW286918   4.589  12.451   0.243 -0.2955 -1.7652 -0.1345
60703SOL     OW86919   1.988   9.737   2.614  0.1952 -0.0907 -0.6035
60703SOL    HW186920   1.957   9.827   2.611 -3.3129 -1.1531 -0.4316
60703SOL    HW286921   2.034   9.730   2.698 -1.3675  1.0446  0.4049
60704SOL     OW86922   2.174   5.031   9.131 -0.6218 -0.2189 -0.0819
60704SOL    HW186923   2.109   5.040   9.061 -0.4973  1.2508 -0.0571
60704SOL    HW286924   2.219   5.116   9.131 -0.1027 -0.4777  1.2797
60705SOL     OW86925   6.051   3.654   9.884  0.3066 -0.1406 -0.3453
60705SOL    HW186926   6.056   3.583   9.949  0.7915  0.7765  0.6622
60705SOL    HW286927   6.095   3.619   9.807  0.1694 -1.0885 -0.0073
60706SOL     OW86928  11.073   0.810   5.807 -0.4675 -0.1690 -0.0065
60706SOL    HW186929  11.155   0.851   5.835 -0.6203  0.3818 -0.3513
60706SOL    HW286930  11.081   0.803   5.712  0.0745 -2.0916  0.1458
60707SOL     OW86931   7.120   3.022   0.107  0.2742 -0.0090  0.4979
60707SOL    HW186932   7.071   3.027   0.189  1.0977  0.9477  0.9606
60707SOL    HW286933   7.096   3.102   0.060 -0.3478 -0.6491 -0.3003
60708SOL     OW86934   6.510   2.822  10.725 -0.6143  0.8119 -0.5570
60708SOL    HW186935   6.532   2.888  10.660 -1.9036  1.8035 -0.0072
60708SOL    HW286936   6.419   2.799  10.707 -0.3837 -0.3733 -0.3354
60709SOL     OW86937  10.561   9.827   7.500  0.5260 -0.3773  0.3413
60709SOL    HW186938  10.478   9.786   7.476  0.5075 -1.0534  1.5295
60709SOL    HW286939  10.536   9.909   7.542  0.4779 -0.4119  0.3792
60710SOL     OW86940   1.595   0.226   4.740  0.2277  0.1642  0.3035
60710SOL    HW186941   1.547   0.147   4.766 -0.1767  0.5589  0.7537
60710SOL    HW286942   1.544   0.299   4.774 -0.0365  0.6901 -1.1453
60711SOL     OW86943   1.960   7.913  10.548  0.2650 -0.2415 -0.3816
60711SOL    HW186944   2.030   7.849  10.536  0.7098  0.4359 -1.6329
60711SOL    HW286945   2.005   7.994  10.572 -0.3986 -0.7543  3.1126
60712SOL     OW86946   0.690  10.625   7.560  0.4822  0.1671  0.6315
60712SOL    HW186947   0.740  10.547   7.585 -0.1999 -0.3128  0.5217
60712SOL    HW286948   0.757  10.693   7.546  1.3638 -1.0916 -1.9372
60713SOL     OW86949   5.138   7.191   4.061  0.4311 -0.0891  0.3958
60713SOL    HW186950   5.193   7.162   3.989  2.2361 -1.7932  2.3025
60713SOL    HW286951   5.055   7.145   4.049  0.2583  0.6022 -1.2126
60714SOL     OW86952   0.225   0.220   4.619  1.0161  0.1125 -0.0845
60714SOL    HW186953   0.209   0.221   4.525 -2.0435 -2.6825  0.2062
60714SOL    HW286954   0.153   0.269   4.657  1.1286 -0.4227  0.8648
60715SOL     OW86955  10.794   6.960   1.360  0.4802 -0.4051  0.2291
60715SOL    HW186956  10.810   6.876   1.317  1.3888  0.0463 -0.3418
60715SOL    HW286957  10.877   7.007   1.354 -0.2299  0.8620 -0.1963
60716SOL     OW86958  10.868   2.566   8.522 -0.0967 -0.5884 -0.0575
60716SOL    HW186959  10.831   2.478   8.528 -0.2246 -0.4515  1.7177
60716SOL    HW286960  10.821   2.617   8.588  1.2592  0.3229  0.2529
60717SOL     OW86961   7.977   8.714  12.353 -0.1399  0.4195  0.2864
60717SOL    HW186962   7.954   8.701  12.445  0.5391  1.7212  0.6637
60717SOL    HW286963   7.963   8.808  12.338  1.2488  0.5224 -0.5015
60718SOL     OW86964   3.226   0.658  11.849 -0.3090 -0.3729  0.0935
60718SOL    HW186965   3.245   0.740  11.896 -0.9647  0.0156 -0.3035
60718SOL    HW286966   3.196   0.687  11.762 -0.8362 -1.0314  0.0538
60719SOL     OW86967   1.210   0.375   8.299 -0.1753  0.3518  0.0622
60719SOL    HW186968   1.284   0.432   8.276  0.1215  0.0964  0.3763
60719SOL    HW286969   1.212   0.371   8.395  0.9509 -1.6932 -0.0076
60720SOL     OW86970   8.258  10.587   6.173  0.8191 -0.6464 -0.2172
60720SOL    HW186971   8.209  10.612   6.094  1.8075  0.5412 -0.4809
60720SOL    HW286972   8.346  10.568   6.141  2.4162  3.6329  0.9503
60721SOL     OW86973  11.870   4.234   5.626 -0.2443  0.5462 -0.0607
60721SOL    HW186974  11.890   4.327   5.617 -0.6066  0.5532 -0.8900
60721SOL    HW286975  11.776   4.229   5.608 -0.2411  0.0286  0.0666
60722SOL     OW86976  10.109   6.426   1.991  0.1411 -0.4082  0.2327
60722SOL    HW186977  10.057   6.498   2.025 -0.5965 -1.7745  2.0973
60722SOL    HW286978  10.058   6.391   1.918  0.7096  1.1599 -0.9801
60723SOL     OW86979   5.934   4.958   5.590 -0.6631  0.8909  0.0211
60723SOL    HW186980   5.974   4.873   5.610 -0.9200  0.5529 -0.8212
60723SOL    HW286981   5.861   4.965   5.652 -0.1647  0.8559  0.6138
60724SOL     OW86982   1.248  12.038  12.292  0.0639 -0.1682  0.1756
60724SOL    HW186983   1.322  11.981  12.271  0.3035 -0.2463  1.1613
60724SOL    HW286984   1.287  12.111  12.340 -0.4730 -0.1194  0.5514
60725SOL     OW86985  12.608   5.531   4.331  0.1679  0.0795  0.9537
60725SOL    HW186986  12.527   5.502   4.289  1.1643 -0.4130 -0.7468
60725SOL    HW286987  12.593   5.624   4.351 -1.1432 -0.2421  1.5742
60726SOL     OW86988   4.834   1.183  11.435  0.1469 -0.2436 -0.3755
60726SOL    HW186989   4.820   1.140  11.519  1.0766  0.4494  0.1581
60726SOL    HW286990   4.929   1.183  11.423  0.2147  1.7179 -0.2804
60727SOL     OW86991   6.936   4.555   2.162 -0.2660  0.0984  0.7898
60727SOL    HW186992   6.946   4.480   2.221 -0.8325 -0.0070  0.7541
60727SOL    HW286993   6.942   4.517   2.074  0.8871  0.2967  0.7661
60728SOL     OW86994   0.695   3.585  11.289  0.4166 -0.3684 -0.1442
60728SOL    HW186995   0.689   3.556  11.197  0.6000  0.2162 -0.3427
60728SOL    HW286996   0.612   3.629  11.306 -0.4307 -2.1610  0.5751
60729SOL     OW86997   4.611   7.034   4.453  0.6524  0.4612 -0.6566
60729SOL    HW186998   4.644   7.089   4.382  1.6085  2.2175  1.0840
60729SOL    HW286999   4.599   7.093   4.527 -2.4040 -0.8674  0.1114
60730SOL     OW87000   3.493   3.831  12.283  0.6916  0.6204  0.0160
60730SOL    HW187001   3.449   3.910  12.250  0.9647  0.4954 -0.6720
60730SOL    HW287002   3.561   3.864  12.341 -0.4695  0.8068  1.3176
60731SOL     OW87003   8.611   9.509   3.042 -0.3503 -0.2084 -0.0638
60731SOL    HW187004   8.559   9.477   3.116 -0.0488 -2.1835 -0.6563
60731SOL    HW287005   8.698   9.523   3.079 -0.5847  0.3524  0.2935
60732SOL     OW87006  11.552   2.273  12.257 -0.2144 -0.4396 -0.3638
60732SOL    HW187007  11.648   2.265  12.254 -0.1842 -0.2980  0.1322
60732SOL    HW287008  11.525   2.267  12.165  0.3921  0.8921 -0.6655
60733SOL     OW87009  11.073   3.342  11.713 -0.0574  0.5577  0.1044
60733SOL    HW187010  11.137   3.288  11.760  0.6302 -1.1911 -2.6269
60733SOL    HW287011  10.990   3.297  11.724 -0.0223  0.5108  0.1749
60734SOL     OW87012   8.750  11.639   8.948 -0.4423 -0.6167  0.4101
60734SOL    HW187013   8.758  11.698   9.023 -1.1395  0.1901 -0.1380
60734SOL    HW287014   8.818  11.573   8.963  1.2299  1.0215  0.3870
60735SOL     OW87015  11.092  11.222  11.332 -0.7480  0.4591 -0.4746
60735SOL    HW187016  11.105  11.128  11.346 -1.9686  0.5104  1.5342
60735SOL    HW287017  11.012  11.227  11.280 -1.8730  0.3611  1.1694
60736SOL     OW87018   9.954   0.797   8.183 -0.3956  0.0998 -0.1017
60736SOL    HW187019   9.981   0.720   8.234  1.7092  2.1306  2.1741
60736SOL    HW287020  10.034   0.824   8.137 -1.0458  1.0258 -0.7191
60737SOL     OW87021   5.255   5.580   0.194 -0.4094  0.3888 -0.3338
60737SOL    HW187022   5.242   5.568   0.288 -0.7808  1.0757 -0.2948
60737SOL    HW287023   5.348   5.560   0.181  0.5673  3.5546  0.7615
60738SOL     OW87024   6.025  11.980   5.094 -0.6729  0.0251 -0.1053
60738SOL    HW187025   6.073  11.943   5.168 -0.7504 -1.4597 -0.7622
60738SOL    HW287026   5.937  11.996   5.128  0.1538  2.6291  1.0666
60739SOL     OW87027   1.942   6.664   5.689 -0.3645 -0.0848 -0.5405
60739SOL    HW187028   1.918   6.573   5.667  1.5733 -1.1806  1.4496
60739SOL    HW287029   2.017   6.683   5.634  0.7749 -0.6593  0.7494
60740SOL     OW87030   6.373   6.178   1.892  0.1323  0.1538 -0.2121
60740SOL    HW187031   6.380   6.267   1.924 -1.5177  0.3581 -0.3241
60740SOL    HW287032   6.367   6.187   1.796 -2.4070  0.1761 -0.1272
60741SOL     OW87033   8.717   8.025  10.309 -0.6671  0.2343 -0.0781
60741SOL    HW187034   8.687   8.035  10.219 -1.5799 -0.3935  0.1447
60741SOL    HW287035   8.650   8.068  10.362 -2.1631 -2.6383  0.5455
60742SOL     OW87036  11.455   3.600   9.938  0.5963 -0.9430  0.4582
60742SOL    HW187037  11.400   3.527   9.967 -0.2557 -0.2119  0.7009
60742SOL    HW287038  11.496   3.633  10.018 -1.8503  1.1531  0.9657
60743SOL     OW87039  11.400  12.359   1.147  0.2782 -0.0817  0.3625
60743SOL    HW187040  11.405  12.448   1.112 -0.0957 -0.0233  0.4462
60743SOL    HW287041  11.372  12.371   1.238 -0.2078 -0.3080  0.2447
60744SOL     OW87042   8.385  10.658  10.666  0.3602  1.0463  0.2275
60744SOL    HW187043   8.365  10.632  10.575  1.5848 -0.6336  0.3995
60744SOL    HW287044   8.460  10.717  10.658  0.6584  0.6619  0.1597
60745SOL     OW87045   2.556   2.659  10.670  0.7332 -0.3557  0.1265
60745SOL    HW187046   2.586   2.584  10.618  3.1293  1.6679 -1.6332
60745SOL    HW287047   2.634   2.712  10.684 -0.5581  1.0596  2.7484
60746SOL     OW87048   7.399   5.479   9.885 -0.5103  0.2912  0.7747
60746SOL    HW187049   7.357   5.447   9.805  2.5438  1.0246 -1.3498
60746SOL    HW287050   7.439   5.562   9.859  2.4638 -0.4895  2.3317
60747SOL     OW87051  11.557   9.654   6.988 -0.6611 -0.1332 -0.2306
60747SOL    HW187052  11.604   9.639   7.070 -0.4675 -0.3036 -0.3713
60747SOL    HW287053  11.466   9.666   7.014 -0.5616  0.0448  0.0305
60748SOL     OW87054   3.109   9.744   9.909 -0.4337  0.3553 -0.6418
60748SOL    HW187055   3.038   9.808   9.900 -0.6600 -0.0478 -1.7742
60748SOL    HW287056   3.103   9.689   9.832  2.4792  1.6798 -1.9882
60749SOL     OW87057   0.129   7.072  11.767 -0.5533  0.0730  0.2378
60749SOL    HW187058   0.214   7.028  11.761 -0.8318 -0.3882 -0.4214
60749SOL    HW287059   0.145   7.147  11.824  0.2915 -0.0211  0.1378
60750SOL     OW87060   4.835  12.608  10.838 -0.2041 -0.4397  0.8150
60750SOL    HW187061   4.858  12.548  10.909  0.9130 -1.1149 -0.0816
60750SOL    HW287062   4.901  12.592  10.771  0.0585  1.7161  0.4893
60751SOL     OW87063   0.686   8.822  12.336 -0.3885  0.0281  0.3464
60751SOL    HW187064   0.772   8.825  12.294 -1.4253  2.5251 -1.8894
60751SOL    HW287065   0.700   8.861  12.422  0.9224 -0.8142  0.5388
60752SOL     OW87066  10.583  10.532   1.820  0.0179 -0.6503  0.3419
60752SOL    HW187067  10.513  10.503   1.878 -0.0148  2.7478  2.2345
60752SOL    HW287068  10.542  10.597   1.763  1.4604  1.1484  1.2486
60753SOL     OW87069   2.960  12.437   8.151  0.0129  0.2682 -0.0237
60753SOL    HW187070   3.038  12.385   8.132  1.1659  1.5795  0.9227
60753SOL    HW287071   2.934  12.472   8.066  0.7883  0.2519 -0.2834
60754SOL     OW87072  10.244   4.195   9.502  0.0698  0.1173 -0.2701
60754SOL    HW187073  10.310   4.218   9.436  0.0288 -0.3484 -0.4782
60754SOL    HW287074  10.189   4.272   9.509  0.3748  0.3518 -0.4174
60755SOL     OW87075   1.638   1.958   9.540 -0.6063  0.2479 -0.4814
60755SOL    HW187076   1.656   1.870   9.506  0.2932 -0.0135  0.6397
60755SOL    HW287077   1.542   1.963   9.542 -0.6866 -0.1394 -1.9439
60756SOL     OW87078   0.907   3.618   9.783  0.8210  0.2505 -0.4644
60756SOL    HW187079   0.875   3.536   9.823 -0.7622  1.4362  0.8827
60756SOL    HW287080   0.974   3.649   9.844  2.0546 -0.4482 -1.4337
60757SOL     OW87081   9.460  12.595   3.189 -0.3800  0.1190 -0.6995
60757SOL    HW187082   9.395  12.613   3.121  0.1344  2.4611 -0.6392
60757SOL    HW287083   9.451  12.501   3.206 -2.7352  0.0875 -1.7101
60758SOL     OW87084   3.980  10.288   3.981  0.5601 -0.1794  0.0689
60758SOL    HW187085   4.039  10.279   3.906  1.7258  1.3505  0.7554
60758SOL    HW287086   3.983  10.381   4.003 -0.6788 -0.4043  1.2852
60759SOL     OW87087   5.180   2.508   3.698  0.2370 -0.4780  0.6352
60759SOL    HW187088   5.269   2.525   3.731  0.6453 -0.0111 -0.6529
60759SOL    HW287089   5.146   2.595   3.677  0.8766 -0.8552 -2.3189
60760SOL     OW87090   1.734   3.818   0.737  0.3024 -0.3097  0.3733
60760SOL    HW187091   1.695   3.735   0.763 -0.1746 -0.0916  0.3620
60760SOL    HW287092   1.671   3.885   0.764 -0.3852 -0.0920 -1.6005
60761SOL     OW87093  11.183   5.451   8.152  0.2154  0.1502  0.0495
60761SOL    HW187094  11.199   5.537   8.112 -2.7359  0.5360 -0.5993
60761SOL    HW287095  11.098   5.425   8.117 -0.4708 -1.5731  2.6975
60762SOL     OW87096  12.196   3.154  10.376  0.1761  0.1708  0.4526
60762SOL    HW187097  12.157   3.087  10.319  1.6294 -0.8156  0.5760
60762SOL    HW287098  12.235   3.216  10.315 -0.8731  0.7476  0.3436
60763SOL     OW87099   5.551   6.166   5.232  0.6521  0.4912  0.1390
60763SOL    HW187100   5.518   6.116   5.307  1.2626  1.0436  0.7904
60763SOL    HW287101   5.616   6.225   5.269  0.2940  1.4395 -0.6855
60764SOL     OW87102   7.543  11.078   1.356  0.1707  0.4236  0.1176
60764SOL    HW187103   7.540  11.147   1.290  0.8669  0.5034  0.1638
60764SOL    HW287104   7.454  11.075   1.392 -0.8596 -1.0376 -2.2666
60765SOL     OW87105   9.052   5.859   7.841 -0.3595 -0.3700 -0.0797
60765SOL    HW187106   9.081   5.888   7.927  0.6779  0.5219 -0.6897
60765SOL    HW287107   9.099   5.916   7.780 -0.7477 -1.2509 -1.2470
60766SOL     OW87108  11.426   5.555   1.567  0.7410  0.6565 -0.3735
60766SOL    HW187109  11.404   5.641   1.602  1.7298  0.8739 -0.2505
60766SOL    HW287110  11.499   5.525   1.621  0.0932 -0.4851 -0.0928
60767SOL     OW87111   6.450   2.745   8.411 -0.1414  0.1428  0.6626
60767SOL    HW187112   6.397   2.822   8.428  0.4844  0.7547 -0.0785
60767SOL    HW287113   6.534   2.764   8.453  0.4772  0.4728 -0.6869
60768SOL     OW87114   8.370  10.465  12.526 -0.3267 -0.4097  0.2073
60768SOL    HW187115   8.326  10.545  12.497  0.3284 -0.4013 -0.8118
60768SOL    HW287116   8.301  10.399  12.531 -1.2094  0.5568  2.6500
60769SOL     OW87117   6.622   0.233   8.811  0.3984 -0.1812  0.2876
60769SOL    HW187118   6.659   0.297   8.749  0.7300 -0.1270  0.5400
60769SOL    HW287119   6.554   0.282   8.857  1.1870  0.2236  1.0344
60770SOL     OW87120   4.826   6.207   7.485  0.6248  0.5003 -0.0378
60770SOL    HW187121   4.821   6.113   7.471  2.2333  0.4141 -0.1860
60770SOL    HW287122   4.892   6.218   7.554  0.3439  1.5024  0.0919
60771SOL     OW87123   9.184  12.071  10.133 -0.5794 -0.4350 -0.0947
60771SOL    HW187124   9.125  12.086  10.206 -0.2631 -0.7166  0.2225
60771SOL    HW287125   9.268  12.048  10.174 -0.3443 -0.3854 -0.5408
60772SOL     OW87126   0.969  11.448   4.128  0.3381 -0.2599 -0.0500
60772SOL    HW187127   0.990  11.540   4.115 -1.5820  0.0235 -1.4027
60772SOL    HW287128   1.024  11.402   4.065 -0.4517  0.1661 -1.0615
60773SOL     OW87129   8.020   1.765  11.400  0.2514 -0.0063  0.0545
60773SOL    HW187130   7.928   1.781  11.381  0.6809  0.8136 -1.5050
60773SOL    HW287131   8.022   1.680  11.444 -1.1385 -0.5514 -0.8906
60774SOL     OW87132   9.043   0.042   0.724 -0.3910  0.2413  0.2097
60774SOL    HW187133   9.063   0.091   0.645 -2.7214  1.5388  0.3412
60774SOL    HW287134   9.086   0.091   0.794  1.8155 -1.0018 -0.1899
60775SOL     OW87135   5.308   3.965  12.441 -0.3772  0.0253  0.2127
60775SOL    HW187136   5.252   4.014  12.501 -0.9927  0.6362 -0.8385
60775SOL    HW287137   5.274   3.985  12.354 -0.9796 -2.6541 -0.2763
60776SOL     OW87138   4.464   4.947   7.744 -0.3400 -0.1248  0.6555
60776SOL    HW187139   4.383   4.947   7.693  0.0940  1.6476 -0.0845
60776SOL    HW287140   4.529   4.985   7.686  0.1472  2.0995  2.5255
60777SOL     OW87141   1.350   7.838   4.042 -0.0869  0.0213 -0.0938
60777SOL    HW187142   1.399   7.841   3.961  1.0827  1.1546  0.6141
60777SOL    HW287143   1.395   7.773   4.096  1.4068  1.8473  0.9755
60778SOL     OW87144   1.491   7.562  11.421  0.0298 -0.2805  0.1508
60778SOL    HW187145   1.559   7.497  11.438  0.0513 -0.3440 -0.1768
60778SOL    HW287146   1.482   7.564  11.326 -0.0815  0.0823  0.1643
60779SOL     OW87147   2.344  11.929   6.026  0.6138  0.3129 -0.1146
60779SOL    HW187148   2.381  11.984   5.958  1.2493  0.7264  0.5504
60779SOL    HW287149   2.419  11.883   6.064 -0.0012 -1.7986 -1.3055
60780SOL     OW87150   4.933   3.697   4.205  0.2673  0.1071  0.1267
60780SOL    HW187151   4.887   3.620   4.238 -0.9219  1.2015  1.1384
60780SOL    HW287152   4.964   3.742   4.283  2.7109 -0.3333 -0.5212
60781SOL     OW87153   2.583   9.246   1.144  0.4854 -0.6189  0.6241
60781SOL    HW187154   2.579   9.195   1.225  0.6816 -3.2080 -0.8642
60781SOL    HW287155   2.675   9.242   1.117  0.2600 -0.6109 -0.1829
60782SOL     OW87156   2.050   0.911   0.646 -0.1568  1.0246  0.1480
60782SOL    HW187157   2.136   0.950   0.662  2.1209 -3.0873 -0.5450
60782SOL    HW287158   2.009   0.906   0.732  1.8571  0.0740  1.1303
60783SOL     OW87159   2.786   4.008  10.528 -0.5549  0.2617 -0.2783
60783SOL    HW187160   2.855   4.020  10.463 -0.5080  0.4932 -0.1862
60783SOL    HW287161   2.831   4.018  10.613 -0.6329  0.0521 -0.2105
60784SOL     OW87162   6.975   1.216   3.132 -0.1548 -0.4656  0.2325
60784SOL    HW187163   7.020   1.217   3.048  1.3952  0.1431  1.0180
60784SOL    HW287164   7.024   1.279   3.186 -2.0436  0.3391  1.1208
60785SOL     OW87165   7.291   8.318   7.038  0.2959  0.3523 -0.7838
60785SOL    HW187166   7.337   8.242   7.003 -0.4948 -0.3725 -0.2589
60785SOL    HW287167   7.357   8.362   7.093  1.0616  0.6305 -1.8921
60786SOL     OW87168   9.667   5.925   7.751 -0.6203  0.1226 -0.5828
60786SOL    HW187169   9.596   5.980   7.787 -1.0059 -0.7882  0.0778
60786SOL    HW287170   9.652   5.839   7.789  2.0644  0.3618  1.2869
60787SOL     OW87171   1.941   1.264   5.576 -0.3806  0.1948 -0.1898
60787SOL    HW187172   1.877   1.196   5.599 -1.6348  1.2428 -0.4525
60787SOL    HW287173   1.976   1.235   5.491  0.7942 -1.2609  0.7427
60788SOL     OW87174   8.006  10.727   8.151  0.0765  0.1744  0.5876
60788SOL    HW187175   8.019  10.726   8.056  2.6697 -0.8946  0.8788
60788SOL    HW287176   8.063  10.798   8.182 -1.4107  1.0968  1.3102
60789SOL     OW87177   3.061   8.517  11.825  0.4235 -0.1626  0.0952
60789SOL    HW187178   3.076   8.607  11.795 -0.2387 -0.1102 -0.0968
60789SOL    HW287179   3.115   8.509  11.903  0.5442  0.3827  0.0748
60790SOL     OW87180   8.268   4.661   2.746 -0.0768  0.7091 -0.3344
60790SOL    HW187181   8.232   4.683   2.660 -1.6916  1.7286  0.5454
60790SOL    HW287182   8.203   4.694   2.809  1.0076 -0.0748  1.2847
60791SOL     OW87183   7.714   3.737   0.858 -0.4835 -0.4358 -0.1955
60791SOL    HW187184   7.621   3.744   0.839 -0.2769  0.8834 -0.8021
60791SOL    HW287185   7.725   3.785   0.940 -0.5992 -2.1576  0.9038
60792SOL     OW87186  10.265   1.013   9.620 -0.2684 -0.8934  0.0745
60792SOL    HW187187  10.202   0.945   9.641 -0.2856 -0.3363  2.0472
60792SOL    HW287188  10.212   1.091   9.603 -0.1642 -0.6602  0.7826
60793SOL     OW87189   1.649   4.599   0.164 -0.0286 -0.2576  0.0567
60793SOL    HW187190   1.632   4.505   0.168  0.3688 -0.3105  2.8723
60793SOL    HW287191   1.723   4.607   0.103  0.7484 -1.9429  0.6925
60794SOL     OW87192  11.015   3.966   1.334  0.5078  0.9033  0.0475
60794SOL    HW187193  11.081   3.902   1.361  2.1739  2.4073 -0.2374
60794SOL    HW287194  11.017   3.964   1.238 -0.4087  0.4349  0.0354
60795SOL     OW87195   7.542   2.667   6.489  0.2301 -0.1331  0.1035
60795SOL    HW187196   7.545   2.736   6.555  0.8818 -0.5437  0.5149
60795SOL    HW287197   7.580   2.707   6.411  0.2594  0.0842  0.2282
60796SOL     OW87198  11.348  11.214  10.966 -0.4365 -0.3629 -0.4234
60796SOL    HW187199  11.353  11.307  10.942 -0.4522 -0.4487 -0.7633
60796SOL    HW287200  11.440  11.187  10.976 -0.4004 -0.5240 -1.1585
60797SOL     OW87201  12.308   1.401   2.031  0.7751 -0.3717 -0.6029
60797SOL    HW187202  12.297   1.412   2.125  0.9078 -0.7429 -0.5408
60797SOL    HW287203  12.238   1.341   2.006 -0.3665  1.0850 -1.0514
60798SOL     OW87204  11.890  10.482   2.342 -0.1613  0.3795 -0.5140
60798SOL    HW187205  11.798  10.493   2.318  0.2411  0.5363 -2.0462
60798SOL    HW287206  11.918  10.405   2.293  1.1197  1.6691 -1.8713
60799SOL     OW87207   3.904   3.073   3.433 -0.0197  0.1612  0.0748
60799SOL    HW187208   3.863   3.142   3.484  0.2796  0.4816 -0.1175
60799SOL    HW287209   3.885   3.095   3.342  0.8205  0.4816 -0.0385
60800SOL     OW87210   1.421   7.041   7.285  0.4868  0.7987 -0.2091
60800SOL    HW187211   1.329   7.020   7.302  0.7182  0.2931  0.4764
60800SOL    HW287212   1.420   7.129   7.248 -0.0257  2.5071  3.4498
60801SOL     OW87213   0.349   7.668   3.094  0.2368  0.4547 -0.0054
60801SOL    HW187214   0.306   7.753   3.105 -0.4542  0.2366 -0.8999
60801SOL    HW287215   0.280   7.604   3.114  0.2464  0.0984 -1.0712
60802SOL     OW87216  12.043   9.236  12.593  0.1416  0.0627  0.3721
60802SOL    HW187217  12.040   9.153  12.640 -0.2113  0.9771  2.0431
60802SOL    HW287218  11.963   9.236  12.540 -0.5651 -0.0883  1.4077
60803SOL     OW87219   4.979   6.864   3.473  0.4705 -0.0931 -0.3803
60803SOL    HW187220   4.902   6.863   3.529  2.3729  1.3089  2.4984
60803SOL    HW287221   4.982   6.776   3.435 -2.2548 -0.3118 -0.3037
60804SOL     OW87222  10.748   6.426   4.917  0.1944 -0.5181  0.2753
60804SOL    HW187223  10.708   6.507   4.947 -0.5450  0.6647 -3.3066
60804SOL    HW287224  10.713   6.359   4.975 -2.9713  1.1451  0.5143
60805SOL     OW87225   4.892   0.601   1.511  0.2322 -0.0928  0.0947
60805SOL    HW187226   4.963   0.626   1.452  0.4423 -2.6006 -0.8407
60805SOL    HW287227   4.836   0.679   1.516  1.8429  1.1942 -0.9469
60806SOL     OW87228   7.782   9.229   8.363  0.1039  0.1665  0.1021
60806SOL    HW187229   7.741   9.169   8.426 -1.6380 -0.4517 -1.5419
60806SOL    HW287230   7.734   9.311   8.372  1.4758  0.9048  1.2444
60807SOL     OW87231   9.717   6.886   4.230 -0.1448  0.8632  0.5773
60807SOL    HW187232   9.689   6.875   4.139  0.7615  1.4542  0.2235
60807SOL    HW287233   9.809   6.909   4.225  0.8959 -2.4564  1.7728
60808SOL     OW87234   6.482   3.678   8.836 -0.5825  0.1154 -0.3944
60808SOL    HW187235   6.471   3.587   8.861 -0.5733  0.2443  0.0914
60808SOL    HW287236   6.571   3.700   8.861 -0.5118  0.1976 -0.7104
60809SOL     OW87237   4.120  11.240   0.518 -0.0070  0.0504 -0.1456
60809SOL    HW187238   4.188  11.289   0.565  0.6098 -1.0093  0.1035
60809SOL    HW287239   4.147  11.243   0.426  1.2859 -1.6985  0.1246
60810SOL     OW87240   3.752   3.054   6.334  0.0270 -0.2747 -0.2849
60810SOL    HW187241   3.748   3.123   6.400  0.1719 -1.5595  1.1277
60810SOL    HW287242   3.669   3.061   6.287 -0.1943  0.4967  0.1931
60811SOL     OW87243   1.572   8.318   3.688  0.1601 -0.1521 -0.4855
60811SOL    HW187244   1.575   8.413   3.676 -0.4138 -0.1665 -0.7816
60811SOL    HW287245   1.531   8.286   3.608  2.4967 -0.8691 -1.4918
60812SOL     OW87246   0.567   9.554  11.775 -0.3569 -0.3136 -0.2007
60812SOL    HW187247   0.557   9.460  11.789  1.2738 -0.7169 -1.4482
60812SOL    HW287248   0.563   9.592  11.863 -0.8451 -1.5668  0.3402
60813SOL     OW87249   7.777  11.591   3.766  0.2084  0.3967 -0.3058
60813SOL    HW187250   7.814  11.535   3.834 -2.1701 -1.3038 -0.2810
60813SOL    HW287251   7.713  11.646   3.812 -0.5343  0.1012 -0.9740
60814SOL     OW87252   2.305   7.090   0.437 -0.5638 -0.0045  0.8464
60814SOL    HW187253   2.247   7.062   0.366 -2.8754  4.3028  0.6795
60814SOL    HW287254   2.288   7.027   0.508 -3.2810 -0.6441 -0.2445
60815SOL     OW87255   9.639  12.119   6.417  0.0995  0.1948  0.3912
60815SOL    HW187256   9.576  12.156   6.478  0.1635 -2.3755  2.1580
60815SOL    HW287257   9.588  12.058   6.364  0.8485 -1.0445  1.0593
60816SOL     OW87258   8.975   5.289   9.849 -0.4443  0.1600  0.4439
60816SOL    HW187259   8.958   5.348   9.776 -1.0613 -0.4075  0.1063
60816SOL    HW287260   8.961   5.201   9.812  2.0523 -0.3359  0.4742
60817SOL     OW87261   7.432   5.936   9.545  0.0516  0.2891  0.4803
60817SOL    HW187262   7.439   6.002   9.475 -1.6617 -0.3503 -0.3488
60817SOL    HW287263   7.398   5.858   9.501 -0.4683 -0.3203  1.9092
60818SOL     OW87264   5.294   9.355   5.239  0.4348  0.3294 -1.0622
60818SOL    HW187265   5.283   9.323   5.328 -1.9122 -0.8333 -1.7032
60818SOL    HW287266   5.361   9.298   5.201  0.9472  0.3908 -0.2820
60819SOL     OW87267  11.091  10.343   9.408  0.4534  0.1989  0.1497
60819SOL    HW187268  11.068  10.251   9.406 -1.5812  0.6513 -2.3196
60819SOL    HW287269  11.052  10.377   9.488 -0.6675 -0.6836 -0.0054
60820SOL     OW87270  10.679   6.360   5.324  0.3678 -0.0174 -0.3963
60820SOL    HW187271  10.682   6.311   5.406 -2.7849  0.0483 -0.1373
60820SOL    HW287272  10.682   6.452   5.350  1.2169  0.0011 -0.5248
60821SOL     OW87273   5.726   0.196  11.009 -0.0250  0.1684 -0.3342
60821SOL    HW187274   5.725   0.291  11.010  1.9779  0.2648 -1.7994
60821SOL    HW287275   5.747   0.173  10.919 -0.0896 -1.6690  0.0797
60822SOL     OW87276   2.808  12.504   0.417  0.0399  0.6408 -0.3831
60822SOL    HW187277   2.844  12.550   0.493 -0.7925  1.3336 -0.3977
60822SOL    HW287278   2.809  12.411   0.442  2.1533  0.5831 -0.5176
60823SOL     OW87279   3.977   6.659   1.258 -0.0052  0.0277 -0.2177
60823SOL    HW187280   4.045   6.592   1.271 -1.4768 -1.4594  0.1224
60823SOL    HW287281   3.927   6.629   1.183  0.3712  1.7370 -1.2229
60824SOL     OW87282   8.432   2.912   3.530  0.3554 -0.0988  0.3734
60824SOL    HW187283   8.394   2.851   3.593 -1.8770 -0.0419 -0.8103
60824SOL    HW287284   8.437   2.995   3.577 -1.0278 -0.1213  0.6073
60825SOL     OW87285  12.354   9.362   9.699  0.8808 -0.0515  0.4063
60825SOL    HW187286  12.443   9.385   9.674  0.4725  1.5238  0.3047
60825SOL    HW287287  12.361   9.333   9.790  1.2548  1.8934  1.0312
60826SOL     OW87288   5.764   5.682   8.683 -0.6772 -0.7136  0.5154
60826SOL    HW187289   5.849   5.722   8.663 -0.5734 -0.3839  1.5346
60826SOL    HW287290   5.729   5.657   8.598 -0.0661  0.1930 -0.0314
60827SOL     OW87291   1.381   2.703   2.198  0.3878 -0.1491  0.2558
60827SOL    HW187292   1.308   2.665   2.245  0.7413 -1.8743 -0.4954
60827SOL    HW287293   1.366   2.797   2.200 -1.8676 -0.4681  0.0713
60828SOL     OW87294   6.657   6.376  12.336  0.1283  0.0269  0.4573
60828SOL    HW187295   6.572   6.405  12.370  0.2752  0.3580  0.5359
60828SOL    HW287296   6.658   6.282  12.353 -0.3493 -0.0316  0.1919
60829SOL     OW87297   1.748   7.009   1.888  0.3645  0.1279  0.2549
60829SOL    HW187298   1.688   6.978   1.820  0.9800  1.7001 -1.0743
60829SOL    HW287299   1.744   7.104   1.881  2.2572  0.2772  0.8130
60830SOL     OW87300   8.723   4.039   1.366  0.0418  0.0593  0.0392
60830SOL    HW187301   8.699   3.967   1.424 -0.9369 -0.7714 -1.3127
60830SOL    HW287302   8.817   4.050   1.379  0.1389 -1.1942  0.5945
60831SOL     OW87303   5.302   5.132   9.239 -0.9904 -0.3322  0.4748
60831SOL    HW187304   5.301   5.215   9.190 -1.1329 -0.3237  0.4938
60831SOL    HW287305   5.232   5.141   9.302 -1.2020 -0.5910  0.2761
60832SOL     OW87306   6.560   2.536  10.046  0.0712  0.1790 -0.4970
60832SOL    HW187307   6.550   2.515  10.139 -1.3937  0.0730 -0.6630
60832SOL    HW287308   6.627   2.604  10.044  1.2397 -0.8738  0.4921
60833SOL     OW87309   9.221   0.443   2.406 -0.3649 -0.2444 -0.3627
60833SOL    HW187310   9.126   0.444   2.391 -0.4343 -1.1515 -0.0898
60833SOL    HW287311   9.247   0.353   2.384  0.2717 -0.2774  0.4694
60834SOL     OW87312   1.930   7.146   7.037 -0.1718 -0.8532 -0.0131
60834SOL    HW187313   2.006   7.124   6.983  0.3456 -2.0286  1.1278
60834SOL    HW287314   1.964   7.147   7.126 -1.3455 -0.6164  0.4431
60835SOL     OW87315   9.108   1.831   0.191 -0.3351 -0.1033 -0.3497
60835SOL    HW187316   9.020   1.868   0.200  0.5446  1.8705  0.7917
60835SOL    HW287317   9.098   1.762   0.126 -3.2736 -1.8051  1.6917
60836SOL     OW87318   9.849   7.137  10.146 -0.4834  0.0650 -0.1334
60836SOL    HW187319   9.811   7.051  10.125 -0.7439  0.0638  0.3486
60836SOL    HW287320   9.875   7.130  10.237  1.2821 -0.1582 -0.6178
60837SOL     OW87321   3.087  10.902   3.079 -0.4892  0.3058  0.4497
60837SOL    HW187322   3.046  10.877   2.997  0.6264  1.6005 -0.5554
60837SOL    HW287323   3.070  10.829   3.138  0.4204 -1.6308 -1.5434
60838SOL     OW87324   0.166   8.866  10.804  0.0478  0.0391 -0.2904
60838SOL    HW187325   0.236   8.827  10.856 -0.2149  0.4258  0.3705
60838SOL    HW287326   0.199   8.952  10.779 -0.3095  0.3589  0.3074
60839SOL     OW87327   1.485   4.553   9.276 -0.2208  0.4799 -0.1816
60839SOL    HW187328   1.447   4.573   9.361 -0.7766  2.6190 -0.8726
60839SOL    HW287329   1.561   4.611   9.269 -0.0446  0.1637 -1.0499
60840SOL     OW87330   4.871  12.320   3.267  0.0074  0.1283  0.2788
60840SOL    HW187331   4.925  12.249   3.302  2.3447 -0.1534 -3.3676
60840SOL    HW287332   4.924  12.398   3.280 -0.5055  0.4985  0.1630
60841SOL     OW87333   2.482   0.201   9.799 -0.0924  0.2133 -0.1620
60841SOL    HW187334   2.424   0.166   9.866  1.1477 -3.2856 -0.7008
60841SOL    HW287335   2.568   0.207   9.843  0.3535 -0.3914 -0.9310
60842SOL     OW87336  10.302  11.696   2.217 -0.5781 -0.4249  0.0691
60842SOL    HW187337  10.275  11.684   2.126 -0.7999  0.7883 -0.0427
60842SOL    HW287338  10.220  11.708   2.265 -0.4209  3.0397 -0.2360
60843SOL     OW87339   4.621  10.331   0.997 -0.4585 -0.0613 -0.0139
60843SOL    HW187340   4.532  10.315   0.966 -1.1015  0.7635  1.3115
60843SOL    HW287341   4.647  10.413   0.956  0.5040 -1.2633 -1.9772
60844SOL     OW87342   1.763   2.173   3.750 -0.3824  0.3378  0.1835
60844SOL    HW187343   1.717   2.146   3.830 -1.9386 -0.0378 -0.7899
60844SOL    HW287344   1.699   2.226   3.702 -0.0078 -0.6249 -1.4686
60845SOL     OW87345   6.714   1.268   5.757 -0.1854  0.0299 -0.1678
60845SOL    HW187346   6.788   1.290   5.700 -0.3780  0.6364 -0.1941
60845SOL    HW287347   6.652   1.340   5.744 -0.0867  0.3433  1.0639
60846SOL     OW87348   8.752  11.745   0.353  0.4621  0.1653  0.2261
60846SOL    HW187349   8.823  11.765   0.291  0.6115 -0.2462  0.2590
60846SOL    HW287350   8.737  11.827   0.399 -1.6015  1.3299 -2.2801
60847SOL     OW87351   6.526  11.631  11.218 -0.1256  0.3907  0.0035
60847SOL    HW187352   6.487  11.564  11.274 -2.2679  2.2417  0.8673
60847SOL    HW287353   6.470  11.708  11.229  0.7115  1.5713 -2.9179
60848SOL     OW87354   0.154   0.061  11.749  0.2746  0.8086  0.4522
60848SOL    HW187355   0.212   0.112  11.692 -1.2848  1.3001 -0.7539
60848SOL    HW287356   0.193   0.071  11.836  1.6920  1.5698 -0.2177
60849SOL     OW87357   9.285   8.126   8.919  0.2069 -0.5277  0.8281
60849SOL    HW187358   9.228   8.202   8.905  0.8124  0.0310  1.3389
60849SOL    HW287359   9.246   8.079   8.992 -0.6815 -1.2312 -0.0578
60850SOL     OW87360   0.539   7.292   1.575  0.2424 -0.3121  0.5682
60850SOL    HW187361   0.521   7.208   1.618  0.8124 -0.4684  0.5059
60850SOL    HW287362   0.634   7.303   1.581  0.1033  0.6434  1.1503
60851SOL     OW87363   3.003   5.524   4.211  0.9873 -0.0484  0.8463
60851SOL    HW187364   3.023   5.468   4.136  0.9296  1.0263  0.0037
60851SOL    HW287365   3.085   5.527   4.261  1.7038  0.9537 -0.3427
60852SOL     OW87366   7.403  11.136  10.250  0.2089  0.6713  0.7504
60852SOL    HW187367   7.443  11.052  10.229  3.1688  1.7508  1.5574
60852SOL    HW287368   7.380  11.174  10.165 -0.1342 -0.4545  0.3271
60853SOL     OW87369   1.617   1.765   6.762  0.3009  0.1625 -0.6290
60853SOL    HW187370   1.679   1.697   6.787  2.1242  1.5733 -1.0874
60853SOL    HW287371   1.580   1.735   6.679 -1.4072 -1.7557  0.7232
60854SOL     OW87372   0.834   7.808   6.236 -0.3442  0.2342 -1.1511
60854SOL    HW187373   0.877   7.816   6.322 -0.5449  1.3603 -1.1338
60854SOL    HW287374   0.779   7.886   6.230 -1.9053 -0.8394 -1.4533
60855SOL     OW87375   5.896   6.789   6.045 -0.2219  0.4105  0.1656
60855SOL    HW187376   5.906   6.703   6.005  1.5566  1.1240 -1.0413
60855SOL    HW287377   5.816   6.824   6.008  0.1911  0.1264 -1.0373
60856SOL     OW87378   0.593   0.787   1.087  0.0359 -0.3297 -0.0590
60856SOL    HW187379   0.670   0.757   1.135 -0.5773 -2.3642 -0.2790
60856SOL    HW287380   0.628   0.824   1.006  1.0147  2.4073  1.4932
60857SOL     OW87381   3.053   1.438   1.014 -0.4316 -0.2739  0.2492
60857SOL    HW187382   3.104   1.434   1.096  1.8347  2.1823 -0.8837
60857SOL    HW287383   2.974   1.486   1.038  0.9879  1.9767  0.7705
60858SOL     OW87384   0.538   4.293   6.666  0.0826  0.4938 -0.0771
60858SOL    HW187385   0.516   4.303   6.759  0.1537 -0.3336  0.0375
60858SOL    HW287386   0.454   4.293   6.621 -0.1632 -1.7211  0.2652
60859SOL     OW87387   8.506   8.696  10.340  0.2463 -0.1201  0.0114
60859SOL    HW187388   8.484   8.604  10.325  0.9728 -0.3980  0.5630
60859SOL    HW287389   8.422   8.742  10.337 -0.0822 -0.7335 -0.6903
60860SOL     OW87390  12.193   7.130  11.613  0.4435 -0.2934 -0.3997
60860SOL    HW187391  12.219   7.039  11.601  0.3295 -0.5471  1.0312
60860SOL    HW287392  12.251   7.163  11.682  1.5723  1.2290 -1.9825
60861SOL     OW87393  12.588  10.687   6.333  1.1612 -0.1495 -0.8053
60861SOL    HW187394  12.679  10.673   6.305  0.8048 -0.6539 -1.7605
60861SOL    HW287395  12.536  10.630   6.276  0.1496  0.9213 -0.9938
60862SOL     OW87396   2.057   2.665   0.478 -0.7198  0.0675  0.0677
60862SOL    HW187397   1.989   2.721   0.439 -2.1638 -0.2944  1.9316
60862SOL    HW287398   2.010   2.586   0.505  1.0172 -1.4537 -1.1673
60863SOL     OW87399   1.468   0.401   2.027  0.0429  0.2995 -0.0108
60863SOL    HW187400   1.445   0.398   2.120 -0.8416  0.4740 -0.2114
60863SOL    HW287401   1.401   0.456   1.988 -0.0584 -0.4156 -0.8790
60864SOL     OW87402   0.738   5.935  10.943  0.0485 -0.0731 -0.2683
60864SOL    HW187403   0.655   5.943  10.990 -0.5574  0.2559 -1.3763
60864SOL    HW287404   0.790   6.009  10.973 -0.4141  0.2560 -0.2816
60865SOL     OW87405   5.465   8.030   6.560  0.3678 -0.2104  0.0191
60865SOL    HW187406   5.446   8.124   6.564 -0.6370 -0.3890 -0.3309
60865SOL    HW287407   5.453   7.999   6.650  1.9379  0.1959  0.4129
60866SOL     OW87408   1.597   2.564   0.394  0.7869 -0.0835 -0.3712
60866SOL    HW187409   1.676   2.575   0.341  1.2779  0.2175  0.4033
60866SOL    HW287410   1.626   2.513   0.470 -0.4870 -2.9672 -1.6799
60867SOL     OW87411  11.622   2.931   8.959 -0.5052 -0.3199  0.0497
60867SOL    HW187412  11.660   2.860   9.011  0.7426  0.7112  0.6018
60867SOL    HW287413  11.571   2.982   9.022  0.7198  0.7269  0.2473
60868SOL     OW87414   4.855   8.644   8.906  0.0895  0.2056  0.8482
60868SOL    HW187415   4.826   8.569   8.958 -0.5250 -0.7377 -0.7832
60868SOL    HW287416   4.914   8.692   8.964 -1.2956 -0.2560  2.7359
60869SOL     OW87417  12.550   4.958   9.020 -0.6380  0.0038 -0.0359
60869SOL    HW187418  12.552   5.043   9.064 -1.5789 -0.2443  0.5204
60869SOL    HW287419  12.642   4.933   9.013 -0.4248  0.0457  1.8651
60870SOL     OW87420   6.173   6.113   6.524  0.1417  0.3271 -0.4111
60870SOL    HW187421   6.130   6.188   6.564 -2.7035 -1.2504 -0.2402
60870SOL    HW287422   6.154   6.122   6.430 -0.0970 -0.1055 -0.4056
60871SOL     OW87423   8.947   7.929   2.939  0.2861  0.3251  0.1536
60871SOL    HW187424   8.912   7.994   2.878  0.8179  1.8737  1.4461
60871SOL    HW287425   9.039   7.921   2.916 -0.1357 -1.4948 -1.2539
60872SOL     OW87426   9.003   9.271   3.886 -0.1414 -0.2210 -0.2249
60872SOL    HW187427   9.098   9.279   3.890  0.0097 -1.6934 -0.1112
60872SOL    HW287428   8.978   9.233   3.970 -1.1382  2.2929  0.7163
60873SOL     OW87429  11.256   0.106  12.546  0.3527 -0.4436 -0.6501
60873SOL    HW187430  11.162   0.090  12.547  0.1193  0.4533 -3.1111
60873SOL    HW287431  11.266   0.187  12.496  2.4545 -0.6637 -0.6519
60874SOL     OW87432   8.006   8.571   5.234  0.2094 -0.0499  0.5922
60874SOL    HW187433   8.013   8.659   5.198 -1.1249  0.3180  1.1674
60874SOL    HW287434   7.919   8.568   5.274  0.9080 -1.0311  2.1619
60875SOL     OW87435   2.869   4.961   0.124 -0.1300 -0.2170  0.4441
60875SOL    HW187436   2.941   4.926   0.071  0.0946 -1.6948  1.6664
60875SOL    HW287437   2.793   4.957   0.066  0.2266 -1.2676  0.0298
60876SOL     OW87438   7.397   7.219   4.288 -0.5387  0.3363 -1.0546
60876SOL    HW187439   7.465   7.253   4.229 -0.8723  3.1631  0.0373
60876SOL    HW287440   7.315   7.245   4.248 -0.9266 -1.1409 -1.2563
60877SOL     OW87441   2.871   1.237   2.336 -0.3880  0.1775  0.2484
60877SOL    HW187442   2.900   1.269   2.250  0.2583  1.0904  0.7945
60877SOL    HW287443   2.946   1.251   2.394 -0.5374 -1.1734  0.8021
60878SOL     OW87444   6.952   4.026   7.870 -0.4838 -0.2866 -0.1211
60878SOL    HW187445   6.995   3.946   7.902 -0.2870 -0.2541 -0.3032
60878SOL    HW287446   6.883   3.994   7.812 -0.1312 -0.3138 -0.5296
60879SOL     OW87447  10.228   9.701  11.105  0.1909 -0.3088 -0.3105
60879SOL    HW187448  10.147   9.657  11.079 -0.4423  0.3687  0.4417
60879SOL    HW287449  10.281   9.702  11.026 -0.0160 -1.8608 -0.5059
60880SOL     OW87450   3.081   1.412   3.188  0.0415 -0.2582 -0.1445
60880SOL    HW187451   3.163   1.397   3.237 -0.9938 -0.1582  1.7267
60880SOL    HW287452   3.110   1.435   3.100  2.0176 -0.7669  0.3066
60881SOL     OW87453   1.244   0.910   9.006 -0.0266 -0.0095 -0.0675
60881SOL    HW187454   1.252   1.001   8.975  0.1785 -0.9835 -3.2204
60881SOL    HW287455   1.150   0.894   9.006 -0.0236 -0.0367 -0.3433
60882SOL     OW87456   1.707   5.867   6.721 -0.2804  0.6411  0.3538
60882SOL    HW187457   1.635   5.805   6.736 -0.6329  0.8968 -0.2729
60882SOL    HW287458   1.694   5.898   6.632  0.3336  1.0577  0.4047
60883SOL     OW87459   2.119   1.347   1.492 -0.4302 -0.5079 -0.2605
60883SOL    HW187460   2.196   1.360   1.437 -0.6082 -0.4589 -0.4989
60883SOL    HW287461   2.104   1.432   1.533 -0.4040 -0.4965 -0.2747
60884SOL     OW87462  12.609   4.408   8.136 -0.0823  0.0680  0.0121
60884SOL    HW187463  12.561   4.419   8.218  1.0035 -0.7963  0.8028
60884SOL    HW287464  12.563   4.463   8.073 -1.1069  0.5351  1.1348
60885SOL     OW87465   6.642   4.279   4.855 -0.1593 -0.3655  0.2332
60885SOL    HW187466   6.549   4.294   4.839  0.0905 -1.4293 -2.7551
60885SOL    HW287467   6.645   4.196   4.902 -0.7093  0.2809  1.4776
60886SOL     OW87468   6.203   0.674   7.790 -0.1137 -0.6419 -0.5303
60886SOL    HW187469   6.267   0.689   7.860 -1.0079 -0.4715  0.2663
60886SOL    HW287470   6.167   0.760   7.773 -0.0951 -0.7316 -1.0192
60887SOL     OW87471   2.385   6.559  11.825  0.0778 -0.6447  0.3411
60887SOL    HW187472   2.328   6.636  11.823  0.2877 -0.4535 -2.2034
60887SOL    HW287473   2.377   6.526  11.914 -1.0969  1.5096  1.1285
60888SOL     OW87474  10.459   2.156   1.602  0.1296  0.5818 -0.0927
60888SOL    HW187475  10.535   2.186   1.652 -0.1557  1.1596  0.0056
60888SOL    HW287476  10.469   2.199   1.516  1.4650 -1.6303 -1.1310
60889SOL     OW87477   9.843  12.307   4.900 -0.1681 -0.2414  0.1350
60889SOL    HW187478   9.761  12.329   4.855  1.5395  0.3074 -3.0768
60889SOL    HW287479   9.846  12.211   4.899 -0.0167 -0.2474 -1.3721
60890SOL     OW87480   3.995   5.571   3.642  0.3087  0.0072 -0.4639
60890SOL    HW187481   4.086   5.551   3.665  0.6372  0.9574 -0.8926
60890SOL    HW287482   3.947   5.491   3.665  1.2899 -0.6220 -0.5141
60891SOL     OW87483   9.263  11.295   9.040 -0.2188  0.0770  0.2225
60891SOL    HW187484   9.306  11.213   9.013 -0.0324  1.2374 -3.5107
60891SOL    HW287485   9.186  11.266   9.089  1.3960 -2.1886  1.6799
60892SOL     OW87486   7.346   9.054   1.617  0.0271  0.1898  0.1076
60892SOL    HW187487   7.347   9.034   1.711  1.2014  0.8729  0.2583
60892SOL    HW287488   7.337   8.969   1.574  0.8280 -0.2684  0.8197
60893SOL     OW87489   2.760   5.988   5.809 -0.0461  0.1703 -0.4374
60893SOL    HW187490   2.665   5.981   5.818  0.0594 -1.5266 -0.4157
60893SOL    HW287491   2.796   5.936   5.881  0.8567 -1.3040 -1.8745
60894SOL     OW87492   1.571   0.691   9.678 -0.2765 -0.1784 -0.2804
60894SOL    HW187493   1.644   0.713   9.621 -0.0505 -2.0600 -0.7940
60894SOL    HW287494   1.499   0.671   9.619 -0.1623 -1.7429  0.0619
60895SOL     OW87495   8.364   7.291   9.169  0.3748  0.1230 -0.6263
60895SOL    HW187496   8.301   7.218   9.166  1.1650 -0.6333  0.6330
60895SOL    HW287497   8.313   7.367   9.140 -0.6010 -0.8219 -1.5011
60896SOL     OW87498   4.895  10.927   8.098  0.0997 -0.3079 -0.1514
60896SOL    HW187499   4.935  10.848   8.134  1.3014  0.3832  0.0824
60896SOL    HW287500   4.919  10.925   8.005  1.4361  0.5391  0.1593
60897SOL     OW87501   4.502   3.823   3.362 -0.0128  0.0616 -0.2396
60897SOL    HW187502   4.408   3.837   3.372 -0.2139 -0.5822 -1.1008
60897SOL    HW287503   4.509   3.748   3.303  1.0521  0.4860 -0.6833
60898SOL     OW87504   5.806   5.390   2.826 -0.2025 -0.6472 -0.2898
60898SOL    HW187505   5.751   5.397   2.904  0.0936  0.5108 -0.1787
60898SOL    HW287506   5.891   5.362   2.860 -0.2631 -0.8215 -0.2793
60899SOL     OW87507   9.916   4.529   8.220  0.1887  0.1729 -0.4326
60899SOL    HW187508   9.830   4.555   8.185  0.4034 -0.0207 -1.1138
60899SOL    HW287509   9.920   4.435   8.206  0.3699  0.1274 -0.0816
60900SOL     OW87510  11.548   5.468   4.546 -0.0563 -0.2587  0.1991
60900SOL    HW187511  11.544   5.463   4.450  0.0729  0.3699  0.1537
60900SOL    HW287512  11.508   5.553   4.567 -0.3801 -0.5385  0.7258
60901SOL     OW87513   4.073   1.241   5.843 -0.2741  0.0093 -0.6854
60901SOL    HW187514   4.061   1.151   5.872  0.5987  0.5454  1.5630
60901SOL    HW287515   4.038   1.243   5.754 -0.1014 -2.5823 -0.8784
60902SOL     OW87516   9.447   0.088   7.636 -0.2547 -0.4586  0.2352
60902SOL    HW187517   9.368   0.083   7.691  0.2605  1.9855  1.3224
60902SOL    HW287518   9.507   0.024   7.674 -1.9071 -3.0309 -1.1532
60903SOL     OW87519  11.995   7.714   6.838 -0.7827  0.0456 -0.1571
60903SOL    HW187520  11.965   7.799   6.807  0.5989  0.3826 -0.6374
60903SOL    HW287521  11.920   7.678   6.886 -1.5648  1.2899 -0.4032
60904SOL     OW87522   9.048   9.798   5.154  0.4240 -0.1321  0.4215
60904SOL    HW187523   9.049   9.713   5.199 -1.0703 -0.3762  0.0655
60904SOL    HW287524   9.006   9.857   5.217 -1.0988 -0.3301 -0.3523
60905SOL     OW87525   3.615   5.176  10.193 -0.2652  0.7142 -0.5034
60905SOL    HW187526   3.606   5.151  10.101  1.4478 -2.3488  0.0455
60905SOL    HW287527   3.568   5.108  10.241 -0.4788  1.8413  0.9558
60906SOL     OW87528   3.999  10.664   9.064  0.1293 -0.2704 -0.2009
60906SOL    HW187529   3.988  10.655   9.159 -0.2543  1.5170 -0.0390
60906SOL    HW287530   3.915  10.639   9.027  0.0161 -0.1940  0.0026
60907SOL     OW87531   1.410   0.906   9.220  0.0759 -0.0925 -0.1152
60907SOL    HW187532   1.359   0.946   9.290  0.2024 -0.1126 -0.0125
60907SOL    HW287533   1.351   0.907   9.144 -0.0540 -0.0561 -0.0140
60908SOL     OW87534  11.859   4.351   2.522  0.0180 -0.2633 -0.2860
60908SOL    HW187535  11.825   4.342   2.433  0.7510 -0.1250 -0.5858
60908SOL    HW287536  11.943   4.395   2.511  1.6012 -2.9317  0.1353
60909SOL     OW87537   6.817   7.100   1.218 -0.0070 -0.2179  0.2637
60909SOL    HW187538   6.819   7.020   1.165 -0.7381 -0.5240  0.6791
60909SOL    HW287539   6.898   7.145   1.197  1.6334 -2.2367  1.8247
60910SOL     OW87540   4.279   0.372   1.980 -0.0085 -0.6438 -0.1890
60910SOL    HW187541   4.347   0.440   1.979  1.0535 -1.6812 -0.5134
60910SOL    HW287542   4.259   0.361   2.073  1.5838 -1.5717  0.0825
60911SOL     OW87543  12.217  10.059   8.493 -0.7865 -0.2558  0.2011
60911SOL    HW187544  12.145  10.070   8.555 -2.0670 -0.9844 -1.0774
60911SOL    HW287545  12.291  10.106   8.532 -1.3551 -1.1703  2.5093
60912SOL     OW87546   5.229   4.677   8.321  0.5897  0.5000  0.3422
60912SOL    HW187547   5.289   4.603   8.314 -0.6717 -0.6250  0.8188
60912SOL    HW287548   5.276   4.743   8.372  1.2033 -0.5873  1.2134
60913SOL     OW87549   0.405   4.559   3.516  0.0676  0.0661 -0.0161
60913SOL    HW187550   0.397   4.489   3.451  0.0646  0.4625 -0.4461
60913SOL    HW287551   0.476   4.614   3.484  0.0811  0.2554  0.3305
60914SOL     OW87552   9.981   2.231   1.041  0.6175  0.4715 -0.0092
60914SOL    HW187553  10.013   2.175   0.970 -0.3848 -0.2183  0.0534
60914SOL    HW287554  10.059   2.262   1.085  1.1987 -1.1348  0.1338
60915SOL     OW87555   3.064   6.746   9.361 -0.4376  0.4684 -0.0858
60915SOL    HW187556   2.970   6.729   9.359 -0.8336  2.1438  1.4924
60915SOL    HW287557   3.096   6.714   9.277 -2.1760 -1.3369 -0.1395
60916SOL     OW87558  10.241   2.163   5.505  0.0070  0.0614 -0.2981
60916SOL    HW187559  10.164   2.176   5.450 -0.6164  0.5972  0.6688
60916SOL    HW287560  10.210   2.107   5.576  0.9657 -1.1590 -0.8141
60917SOL     OW87561   2.462  11.937  10.206 -0.6316  0.0271 -0.4436
60917SOL    HW187562   2.496  11.870  10.265 -0.5422  0.9568  0.6101
60917SOL    HW287563   2.417  11.888  10.137  0.6928 -1.1393 -0.5259
60918SOL     OW87564   0.592  11.956   3.642 -0.3311 -0.4212  0.4355
60918SOL    HW187565   0.634  11.879   3.682 -1.6548 -0.7396  1.2693
60918SOL    HW287566   0.626  11.957   3.553 -0.3743 -2.0659  0.3632
60919SOL     OW87567   2.162   4.516   3.647  0.2478 -0.3879 -0.3962
60919SOL    HW187568   2.079   4.491   3.687  0.0748 -1.9857 -1.6273
60919SOL    HW287569   2.152   4.493   3.555  1.1910  1.7003 -1.0728
60920SOL     OW87570   0.658   7.177   8.349 -0.8213  0.1496  1.0661
60920SOL    HW187571   0.718   7.186   8.275 -0.9140 -0.2205  0.9430
60920SOL    HW287572   0.594   7.248   8.336 -0.6720  0.2652  0.9507
60921SOL     OW87573   1.612   0.216   3.660 -0.1374 -0.1614  0.2347
60921SOL    HW187574   1.676   0.248   3.596  0.4072 -0.7030  0.5028
60921SOL    HW287575   1.606   0.286   3.725 -0.1165  0.0579  0.0056
60922SOL     OW87576   9.197   4.481   1.284  0.5531  0.1176 -0.4169
60922SOL    HW187577   9.147   4.512   1.209 -0.4126  3.2590  1.3156
60922SOL    HW287578   9.137   4.425   1.332  0.2158  0.3008 -0.6243
60923SOL     OW87579  10.406   4.654   4.114 -0.0158  0.4100  0.5028
60923SOL    HW187580  10.480   4.595   4.128 -0.6041 -0.8767 -1.4430
60923SOL    HW287581  10.434   4.712   4.044 -1.3987 -1.2439 -1.5232
60924SOL     OW87582   7.304   6.142  10.419  0.0259  0.5545  0.2896
60924SOL    HW187583   7.361   6.152  10.495 -1.5038  1.8419  1.3094
60924SOL    HW287584   7.229   6.093  10.450  1.4369 -3.1773 -1.5847
60925SOL     OW87585   4.509   8.642   4.227 -0.0297 -0.2491  0.2070
60925SOL    HW187586   4.415   8.627   4.230  0.0732 -1.3380 -1.0323
60925SOL    HW287587   4.543   8.568   4.177  1.2394  1.2443 -1.2383
60926SOL     OW87588   6.039   6.653   9.951 -0.2655  0.6691 -0.0940
60926SOL    HW187589   6.025   6.558   9.947 -0.9411  0.7619 -0.0012
60926SOL    HW287590   5.996   6.680  10.032 -0.7048  1.1612 -0.4887
60927SOL     OW87591  12.012   8.416  12.499 -0.1988  0.2937 -0.6458
60927SOL    HW187592  11.973   8.339  12.541 -1.1548  0.8135 -0.5499
60927SOL    HW287593  11.974   8.416  12.411 -1.6666  1.6586 -0.0669
60928SOL     OW87594   1.116   8.380   0.652 -0.3146 -0.0627 -0.2473
60928SOL    HW187595   1.141   8.398   0.561 -0.1461  1.2430  0.0372
60928SOL    HW287596   1.185   8.419   0.705 -0.8399 -0.0647  0.4590
60929SOL     OW87597   4.627  11.559  12.472  0.0178  0.2761  0.1081
60929SOL    HW187598   4.541  11.576  12.433 -0.7960 -0.9111  1.3114
60929SOL    HW287599   4.611  11.562  12.566  1.9770  3.2843  0.4860
60930SOL     OW87600   1.150  10.566   7.436  0.3048  0.6476 -0.6762
60930SOL    HW187601   1.083  10.627   7.468  1.5797  1.7855 -0.0661
60930SOL    HW287602   1.159  10.587   7.343  0.1324  0.8093 -0.6567
60931SOL     OW87603  10.556   1.634   8.848 -0.0566 -0.5725 -0.0362
60931SOL    HW187604  10.544   1.544   8.816 -0.2410 -0.4244 -0.3868
60931SOL    HW287605  10.553   1.625   8.943 -0.8564 -0.8363 -0.0729
60932SOL     OW87606   2.204   9.420   0.789 -0.1498 -0.0817  0.2290
60932SOL    HW187607   2.198   9.514   0.774 -1.1578 -0.2555 -0.5495
60932SOL    HW287608   2.228   9.384   0.703  1.2815 -0.4554  0.7607
60933SOL     OW87609   2.222   6.725   1.324 -0.3117 -0.5175  0.3379
60933SOL    HW187610   2.292   6.770   1.371  0.8355 -0.3035 -1.4671
60933SOL    HW287611   2.159   6.794   1.304 -0.2088 -0.3700  0.5141
60934SOL     OW87612  10.588   2.416  12.263 -0.0303  0.0127 -0.5081
60934SOL    HW187613  10.508   2.469  12.260 -0.1962 -0.0247  1.9210
60934SOL    HW287614  10.605   2.403  12.356  1.3028 -2.2799 -0.9988
60935SOL     OW87615   9.697  11.456   3.523  0.0127  0.3409  0.2043
60935SOL    HW187616   9.627  11.410   3.569 -0.4143  0.9332  0.1563
60935SOL    HW287617   9.652  11.504   3.453  0.3954  1.1321  0.4911
60936SOL     OW87618   3.786   5.856   6.340  0.1643  0.1518  0.2189
60936SOL    HW187619   3.750   5.944   6.331  0.2571  0.2033  0.3545
60936SOL    HW287620   3.868   5.859   6.290 -0.8088 -0.4309 -1.4776
60937SOL     OW87621   4.984  11.491  10.290 -0.2455  0.8978 -0.3417
60937SOL    HW187622   5.032  11.419  10.250 -2.7149  0.0027 -1.9163
60937SOL    HW287623   5.021  11.570  10.250  0.5693  0.3267 -0.7364
60938SOL     OW87624   2.431  11.913   3.666 -0.7991 -0.3581 -0.1554
60938SOL    HW187625   2.427  11.880   3.756 -2.0249 -0.4722 -0.2335
60938SOL    HW287626   2.425  12.008   3.674  1.8927 -0.1509  0.0209
60939SOL     OW87627   1.185   4.220   8.093  0.3934  0.3664 -0.0388
60939SOL    HW187628   1.233   4.272   8.157  1.3431 -2.6120  1.8752
60939SOL    HW287629   1.164   4.139   8.139 -1.2813 -0.8574 -2.7233
60940SOL     OW87630   2.069   0.479   9.376  0.5503  0.4383  0.2461
60940SOL    HW187631   2.017   0.471   9.296  0.2507 -0.2927  0.5099
60940SOL    HW287632   2.025   0.549   9.426 -2.1813 -2.2409  1.9182
60941SOL     OW87633   2.708   3.026   2.940  0.1657  0.2679 -0.2587
60941SOL    HW187634   2.710   3.087   2.867 -0.5336 -0.2280 -0.7034
60941SOL    HW287635   2.684   3.080   3.016  1.7661  0.9449 -0.2020
60942SOL     OW87636   1.720  10.181   6.988  0.1194  0.0932  0.6569
60942SOL    HW187637   1.625  10.174   7.003  0.1698 -0.4604  0.7614
60942SOL    HW287638   1.759  10.128   7.057  0.5436  0.8805  1.0347
60943SOL     OW87639   8.641  10.407   6.529 -0.3504 -0.4666 -0.5944
60943SOL    HW187640   8.728  10.440   6.506  0.3913  0.2421  2.6835
60943SOL    HW287641   8.588  10.486   6.539  0.1503 -0.3850  2.5543
60944SOL     OW87642  11.460   7.352  11.572 -0.2301 -0.7852 -0.4009
60944SOL    HW187643  11.473   7.330  11.480  2.9014  1.2951 -0.5968
60944SOL    HW287644  11.522   7.296  11.619  0.4840  0.3732  0.0760
60945SOL     OW87645   2.893   8.548   1.760 -0.8046  0.2754  0.0272
60945SOL    HW187646   2.910   8.454   1.768 -1.0515  0.3555  2.0008
60945SOL    HW287647   2.979   8.589   1.762 -0.5904  0.0625 -2.3052
60946SOL     OW87648   2.176   7.999   1.057  0.4015 -0.1465  0.8652
60946SOL    HW187649   2.265   7.965   1.067  0.8722  0.8800  0.3116
60946SOL    HW287650   2.119   7.929   1.090  1.0532 -2.9481 -3.2323
60947SOL     OW87651  11.488   1.992   6.880  0.5301 -0.5822  0.0956
60947SOL    HW187652  11.454   2.081   6.868 -0.0181 -0.8536 -0.4182
60947SOL    HW287653  11.537   1.996   6.962  1.8196  0.5792 -0.6759
60948SOL     OW87654  12.411   1.689  10.913  0.1836 -0.1622  0.1131
60948SOL    HW187655  12.420   1.620  10.979  1.2671  1.2810  1.5717
60948SOL    HW287656  12.323   1.724  10.927 -0.0459 -0.6670 -0.0451
60949SOL     OW87657   6.312   8.909   6.553  0.5669  0.2732  0.1303
60949SOL    HW187658   6.389   8.851   6.556  0.3278 -0.1871 -1.6604
60949SOL    HW287659   6.238   8.849   6.542  0.2869  0.8814 -1.4461
60950SOL     OW87660   3.984  12.516   1.005 -0.1250  0.1506  0.5087
60950SOL    HW187661   4.018  12.592   0.958  1.1719 -0.7933 -0.1042
60950SOL    HW287662   3.982  12.446   0.941 -1.7684 -0.2507  0.9437
60951SOL     OW87663   0.862   4.471   0.515 -0.6738  0.3938 -0.0866
60951SOL    HW187664   0.865   4.561   0.483  0.2505  0.1672 -0.6891
60951SOL    HW287665   0.888   4.478   0.607 -1.7773  0.8687  0.2012
60952SOL     OW87666   9.834  10.640  10.974 -0.2890  0.0149  0.0646
60952SOL    HW187667   9.914  10.592  10.954 -0.7172 -1.0389  0.8093
60952SOL    HW287668   9.814  10.688  10.893  1.1558  0.4124 -0.0804
60953SOL     OW87669   5.446   1.941   7.106 -0.3806  0.3849  0.5032
60953SOL    HW187670   5.487   1.865   7.147  0.5067 -0.9570 -2.6217
60953SOL    HW287671   5.513   2.010   7.108  0.4669 -0.3841 -0.6245
60954SOL     OW87672   1.767   7.921  11.605  0.8359 -0.0227  0.0293
60954SOL    HW187673   1.759   7.935  11.510 -0.4298  0.6826  0.2115
60954SOL    HW287674   1.854   7.954  11.627  1.2458 -0.4160 -0.9183
60955SOL     OW87675   0.982   4.629   2.836 -0.1568  0.1041  0.1837
60955SOL    HW187676   1.036   4.551   2.849  1.6723  1.1753 -0.5909
60955SOL    HW287677   0.926   4.608   2.762 -0.5750 -0.8985  0.7665
60956SOL     OW87678   1.610  12.458   2.276 -0.2127 -0.3747 -0.7960
60956SOL    HW187679   1.677  12.395   2.305 -0.4278 -0.3940 -0.3385
60956SOL    HW287680   1.593  12.512   2.353 -1.0897 -0.6958 -0.7504
60957SOL     OW87681   6.422   7.217  11.799  0.5447  0.0024  0.5755
60957SOL    HW187682   6.432   7.175  11.885  0.6175 -1.1417  0.0153
60957SOL    HW287683   6.384   7.150  11.743 -0.6303  1.1104 -0.0107
60958SOL     OW87684   4.643  12.423   7.487 -0.4299  0.3252  0.1400
60958SOL    HW187685   4.630  12.358   7.557  0.5024  0.4351  0.4254
60958SOL    HW287686   4.667  12.372   7.410  0.7274  0.3430  0.4731
60959SOL     OW87687   6.881   5.045   0.982 -0.0837 -0.2838  0.9258
60959SOL    HW187688   6.955   5.107   0.985  0.8327 -1.2280 -0.7494
60959SOL    HW287689   6.803   5.101   0.986  0.7106  0.9439  0.1973
60960SOL     OW87690  12.414   6.051   3.988  0.0379 -0.0345  0.3702
60960SOL    HW187691  12.482   6.053   4.055  1.2384 -1.4106 -0.7359
60960SOL    HW287692  12.419   6.137   3.946  0.5006  0.1933  0.8828
60961SOL     OW87693   7.120   5.009   0.218  0.4979 -0.1603 -0.2139
60961SOL    HW187694   7.202   5.010   0.269 -0.4073 -3.6149  1.6619
60961SOL    HW287695   7.136   4.945   0.149 -0.3995 -0.4523 -0.1626
60962SOL     OW87696   7.164   9.417   3.184 -0.0947  0.4414  0.0545
60962SOL    HW187697   7.259   9.424   3.197 -0.2658  1.9579  0.7098
60962SOL    HW287698   7.145   9.474   3.110 -0.4917  0.1085 -0.1047
60963SOL     OW87699   7.988   6.139   2.332 -0.4860 -0.1240  0.2849
60963SOL    HW187700   7.963   6.074   2.266 -2.0413  1.6385 -0.9740
60963SOL    HW287701   8.013   6.216   2.281 -1.6925  1.2774  1.7087
60964SOL     OW87702   6.995  10.537   1.932  0.3595  0.6751  0.2531
60964SOL    HW187703   6.944  10.460   1.905 -1.1232  1.8116 -0.3306
60964SOL    HW287704   7.061  10.547   1.864  1.1404 -0.5533  0.7830
60965SOL     OW87705   5.129   6.063   1.042 -0.0968  0.0321 -0.4395
60965SOL    HW187706   5.191   5.994   1.020  0.7200  0.4276  0.5474
60965SOL    HW287707   5.183   6.135   1.074 -1.0207  0.6580 -0.2295
60966SOL     OW87708   6.997   3.855   8.907 -0.2552 -0.3520 -0.0772
60966SOL    HW187709   6.939   3.802   8.853  0.5221 -1.4445  0.1352
60966SOL    HW287710   7.077   3.803   8.916 -0.2534 -0.0879  1.9018
60967SOL     OW87711   7.371  10.501   1.152  0.3112 -0.0670 -0.2337
60967SOL    HW187712   7.275  10.507   1.153  0.2485 -0.9136 -0.7262
60967SOL    HW287713   7.392  10.470   1.064  0.9842 -0.8002  0.1754
60968SOL     OW87714   0.370   0.064   2.244 -0.1253 -0.5084 -0.2647
60968SOL    HW187715   0.342   0.122   2.315  1.7653 -0.7724  0.7814
60968SOL    HW287716   0.292   0.054   2.189 -1.4554  0.3028  1.3600
60969SOL     OW87717   7.788   4.931   8.282 -0.0935 -0.0403  0.2799
60969SOL    HW187718   7.731   5.007   8.297  0.5347  0.3802  0.5505
60969SOL    HW287719   7.830   4.950   8.198  1.2142  0.6443  1.0697
60970SOL     OW87720  12.362   3.071   3.373 -0.7279 -0.0193  0.0237
60970SOL    HW187721  12.302   3.129   3.419  1.0199  1.2387  0.8132
60970SOL    HW287722  12.420   3.129   3.325  0.6648 -1.1103  0.3103
60971SOL     OW87723  10.870   0.909  11.576  0.0645  0.2252 -0.1930
60971SOL    HW187724  10.901   0.857  11.650  0.3748 -0.6798 -0.9344
60971SOL    HW287725  10.947   0.955  11.544 -0.2798  1.4571  0.6804
60972SOL     OW87726  11.155   6.629   3.930 -0.4201  0.3411 -0.0637
60972SOL    HW187727  11.157   6.694   4.000  2.5368 -2.4028  2.7100
60972SOL    HW287728  11.086   6.568   3.956  0.8926 -0.8539  0.7411
60973SOL     OW87729   4.249   6.583   5.533  0.6002  0.0349 -0.4396
60973SOL    HW187730   4.158   6.565   5.558 -0.0576  3.1785 -0.1912
60973SOL    HW287731   4.301   6.537   5.598 -0.6850 -3.0015 -1.3823
60974SOL     OW87732   0.638   6.765   8.996 -0.2447 -0.2026 -1.0542
60974SOL    HW187733   0.696   6.819   8.943  0.8910 -1.1642 -0.8306
60974SOL    HW287734   0.637   6.806   9.082  2.5019 -1.7169 -0.1649
60975SOL     OW87735   1.632   0.599   2.176 -0.5567 -0.2145 -0.7142
60975SOL    HW187736   1.624   0.568   2.267 -0.0778  0.9375 -0.2616
60975SOL    HW287737   1.610   0.692   2.181 -0.6115 -0.1659 -1.8074
60976SOL     OW87738   9.265   9.277   3.875  0.6783 -0.0201 -0.1630
60976SOL    HW187739   9.305   9.364   3.880  1.8934 -0.4443 -1.6958
60976SOL    HW287740   9.339   9.216   3.883 -0.2824 -0.9992  2.2368
60977SOL     OW87741   9.153  11.335   4.513  0.0146  0.2429 -0.1945
60977SOL    HW187742   9.136  11.307   4.423 -1.2791  0.3934 -0.0087
60977SOL    HW287743   9.156  11.430   4.508  2.2569  0.2087 -0.4493
60978SOL     OW87744  11.216  11.942  10.707  0.2048  0.8396  0.0929
60978SOL    HW187745  11.215  12.010  10.640  1.5514 -0.5175 -1.4038
60978SOL    HW287746  11.134  11.895  10.696  0.7213  0.1823 -1.1401
60979SOL     OW87747   1.339   2.594   6.525 -0.2913 -0.1822 -0.6219
60979SOL    HW187748   1.434   2.591   6.539 -0.3117  0.3951 -0.3404
60979SOL    HW287749   1.302   2.546   6.599 -0.3644  2.2847  1.0719
60980SOL     OW87750   4.975   2.681   7.129 -0.2098 -0.5684  0.2354
60980SOL    HW187751   5.049   2.629   7.097 -1.9114 -3.1899  0.2756
60980SOL    HW287752   4.944   2.729   7.052  0.5409 -0.6651 -0.1375
60981SOL     OW87753   5.565   7.399  10.363 -0.3799  0.0765 -0.2911
60981SOL    HW187754   5.656   7.371  10.351  0.3255  1.8384  0.6470
60981SOL    HW287755   5.542   7.366  10.450  0.0236  1.2258  0.2711
60982SOL     OW87756   5.113   3.071   4.855  0.8736 -0.4776  0.5564
60982SOL    HW187757   5.167   3.011   4.804  0.0760 -0.9062  0.2062
60982SOL    HW287758   5.160   3.081   4.938  1.6492 -0.5866  0.1429
60983SOL     OW87759   2.188   4.675   4.535 -0.4147 -0.1630  0.4076
60983SOL    HW187760   2.236   4.622   4.471  0.5409 -1.6066  2.2393
60983SOL    HW287761   2.100   4.638   4.536 -1.1404  1.3011 -1.6016
60984SOL     OW87762   1.796   7.555   1.307 -0.4153 -0.0896 -0.4523
60984SOL    HW187763   1.811   7.487   1.242 -0.2569  2.0889 -2.8351
60984SOL    HW287764   1.728   7.611   1.269 -0.9478  0.8175  1.6558
60985SOL     OW87765   4.769   4.426   7.061  0.1390 -0.2693 -0.3319
60985SOL    HW187766   4.742   4.406   7.151  0.1319  0.6066 -0.1278
60985SOL    HW287767   4.757   4.521   7.053  1.8986 -0.0436 -0.6585
60986SOL     OW87768   8.839  10.609  11.336 -0.2133  0.8441  0.1608
60986SOL    HW187769   8.927  10.593  11.370 -0.0138  0.7811 -0.3734
60986SOL    HW287770   8.780  10.586  11.409  0.1622 -0.2148  0.1445
60987SOL     OW87771   5.672   5.838  11.363 -0.1252  0.9812 -0.3136
60987SOL    HW187772   5.618   5.823  11.440  0.3437  0.7537 -0.0231
60987SOL    HW287773   5.626   5.791  11.293 -0.3701  0.8969 -0.1006
60988SOL     OW87774  11.442   6.228   3.570  0.1155  0.7842 -0.2917
60988SOL    HW187775  11.480   6.149   3.534 -1.6534  0.3311 -1.2943
60988SOL    HW287776  11.461   6.224   3.664  0.7711 -0.3905 -0.4679
60989SOL     OW87777   2.190   0.752   5.627  0.1127 -0.2023  0.0382
60989SOL    HW187778   2.118   0.692   5.644 -0.5756  0.2302 -1.2735
60989SOL    HW287779   2.269   0.698   5.637 -0.4870 -1.3453 -1.1551
60990SOL     OW87780   5.725   8.225   3.173  0.5881 -0.0834 -0.0821
60990SOL    HW187781   5.759   8.298   3.224  1.4796  0.8179 -1.8959
60990SOL    HW287782   5.801   8.170   3.156 -0.1613 -1.7915  1.7294
60991SOL     OW87783   5.505   2.454   8.199 -0.5696  0.0440  0.2791
60991SOL    HW187784   5.551   2.461   8.283 -0.6500 -0.6570  0.3885
60991SOL    HW287785   5.525   2.536   8.154  0.6506 -0.1680  0.3979
60992SOL     OW87786   3.512  11.605   2.610 -0.4824  0.1108  0.7448
60992SOL    HW187787   3.564  11.609   2.691  0.5344 -0.3033  0.1255
60992SOL    HW287788   3.538  11.523   2.569  0.9967  1.5105 -1.3044
60993SOL     OW87789   8.784   0.620   4.491  0.5908 -0.5069  0.1098
60993SOL    HW187790   8.702   0.590   4.450 -1.4625  1.4394  2.4656
60993SOL    HW287791   8.810   0.547   4.547 -0.5321 -0.5241  0.6381
60994SOL     OW87792   7.936   1.903   5.694 -0.0100  0.3645  0.6468
60994SOL    HW187793   7.874   1.833   5.673  1.1228 -0.3489 -0.4231
60994SOL    HW287794   7.884   1.983   5.686 -0.9077 -0.2329  0.1934
60995SOL     OW87795  10.092  10.572   2.119  0.1487  0.3601  0.6534
60995SOL    HW187796  10.080  10.621   2.200  2.2774 -0.8369  1.7596
60995SOL    HW287797  10.187  10.559   2.111 -0.1876 -2.2531 -0.3512
60996SOL     OW87798   3.490   8.416  10.197  0.0653  0.0533 -0.2880
60996SOL    HW187799   3.494   8.327  10.230  1.6885 -0.4921 -1.8182
60996SOL    HW287800   3.524   8.470  10.268 -1.4759 -0.4439  0.8681
60997SOL     OW87801  11.755   2.858  11.379  0.4368 -0.0347 -0.2992
60997SOL    HW187802  11.814   2.925  11.344  1.4350 -0.1384  1.0569
60997SOL    HW287803  11.810   2.809  11.440 -1.5151  1.1940  2.6879
60998SOL     OW87804   2.607   1.730   9.928 -0.3022 -0.3100  0.5607
60998SOL    HW187805   2.637   1.796   9.866 -0.9033 -0.6567 -0.1071
60998SOL    HW287806   2.533   1.771   9.973  0.9118  0.4207  1.9745
60999SOL     OW87807   2.957   9.997  10.545 -0.2903  0.0639  0.1254
60999SOL    HW187808   2.916   9.961  10.466  3.3725  0.9464 -2.4541
60999SOL    HW287809   3.042   9.952  10.550  0.1496  1.0116  2.8282
61000SOL     OW87810   3.567   7.282   0.515 -0.4318  0.6495  1.1199
61000SOL    HW187811   3.562   7.198   0.561  0.7101  0.5058  1.0035
61000SOL    HW287812   3.563   7.348   0.585 -0.7881  0.4909  1.2519
61001SOL     OW87813   5.350   8.673   1.522 -0.3632 -0.0246  0.2029
61001SOL    HW187814   5.259   8.642   1.524 -1.0081  1.7353  0.4033
61001SOL    HW287815   5.397   8.614   1.580 -1.6823 -0.1249  1.2224
61002SOL     OW87816   6.119   3.486   0.699 -0.1891  0.1243 -0.1472
61002SOL    HW187817   6.120   3.505   0.605  1.5749  0.6034 -0.0648
61002SOL    HW287818   6.095   3.393   0.704 -0.5424  0.1548 -1.0356
61003SOL     OW87819   8.355   0.483   1.120  0.3211 -0.0266 -0.6324
61003SOL    HW187820   8.313   0.428   1.187 -0.0657  0.2304 -0.6640
61003SOL    HW287821   8.443   0.499   1.155  0.1780 -0.0309 -0.2596
61004SOL     OW87822   7.739   0.551   5.348  0.3961  0.2215 -0.0976
61004SOL    HW187823   7.817   0.496   5.356  0.0576 -0.7077 -2.4074
61004SOL    HW287824   7.667   0.495   5.376  0.3331  0.3973  0.0945
61005SOL     OW87825   7.769   8.680   0.187  0.2661 -0.2154 -0.0881
61005SOL    HW187826   7.674   8.665   0.185  0.2443 -0.2955  0.9444
61005SOL    HW287827   7.806   8.597   0.218  0.8157 -0.6565 -1.7892
61006SOL     OW87828   1.987   5.894   3.550  0.3772 -0.6071 -0.2854
61006SOL    HW187829   1.945   5.809   3.540 -0.3445 -0.1695 -1.0118
61006SOL    HW287830   2.049   5.899   3.477 -0.0515 -0.2351 -0.6246
61007SOL     OW87831   9.565   8.984   6.745 -0.5775  0.3190 -0.7948
61007SOL    HW187832   9.624   9.033   6.803  0.7539 -0.6365 -1.2952
61007SOL    HW287833   9.596   9.006   6.656 -0.3494 -0.9366 -1.0379
61008SOL     OW87834  10.250   8.262   1.142  0.4079  0.1400  0.0856
61008SOL    HW187835  10.251   8.326   1.070  0.2211  0.6934  0.5723
61008SOL    HW287836  10.159   8.232   1.146  0.5919 -0.5259 -0.4548
61009SOL     OW87837  11.051  12.576  12.104  0.2365 -0.5468 -0.3864
61009SOL    HW187838  11.012  12.559  12.018 -0.0225 -2.4168  0.0527
61009SOL    HW287839  11.082  12.491  12.134  0.9730  0.1909  1.0754
61010SOL     OW87840   9.146   8.178   6.775  0.3055  0.1393 -0.0193
61010SOL    HW187841   9.122   8.137   6.858  0.0052 -0.8498 -0.5713
61010SOL    HW287842   9.069   8.228   6.750  0.1016 -0.2072 -0.0879
61011SOL     OW87843  12.181   7.452   6.413 -0.7625 -0.0050 -0.2979
61011SOL    HW187844  12.164   7.543   6.389  2.7360  0.3929 -1.7775
61011SOL    HW287845  12.206   7.410   6.331 -1.5783 -2.1479  0.4951
61012SOL     OW87846   2.935   5.347  11.562 -0.0243 -0.3079 -0.0194
61012SOL    HW187847   2.858   5.400  11.539 -0.2019  0.1009  1.4153
61012SOL    HW287848   3.003   5.377  11.502 -0.4885  0.6246 -0.1029
61013SOL     OW87849   0.444   4.330  11.117 -0.8089  0.7647 -0.1329
61013SOL    HW187850   0.460   4.414  11.158 -0.8324  1.2145 -1.0258
61013SOL    HW287851   0.530   4.290  11.108 -0.3869  2.0723 -2.5796
61014SOL     OW87852   8.983   6.140  12.163  0.1953 -0.4791 -0.1888
61014SOL    HW187853   9.012   6.053  12.193 -0.3749 -0.2787  0.9996
61014SOL    HW287854   9.064   6.191  12.157  0.5138 -1.0305 -0.7030
61015SOL     OW87855   1.015  10.821   6.646 -0.0303 -0.4690  0.4563
61015SOL    HW187856   1.071  10.797   6.572  0.6296  1.0197  0.4280
61015SOL    HW287857   0.938  10.765   6.637 -0.2783  0.1149 -1.7894
61016SOL     OW87858  11.665   4.699   6.385  0.1392 -0.5994 -0.0506
61016SOL    HW187859  11.724   4.692   6.461 -0.9210  1.2572  0.9921
61016SOL    HW287860  11.580   4.672   6.418 -0.7553  2.0531  0.0023
61017SOL     OW87861   2.080   8.609   4.253  0.3234 -0.2120 -0.4733
61017SOL    HW187862   2.112   8.529   4.211  0.9117  0.4483 -1.2980
61017SOL    HW287863   2.159   8.653   4.283  0.2646  1.4369 -2.5341
61018SOL     OW87864   9.467   1.295   0.100  0.6559 -0.4484 -0.2669
61018SOL    HW187865   9.498   1.371   0.050  3.1772 -0.4118  1.1883
61018SOL    HW287866   9.540   1.233   0.097  0.0259 -1.3422  1.4937
61019SOL     OW87867  10.632   5.915   8.079 -0.3759 -0.0304 -0.2481
61019SOL    HW187868  10.653   6.008   8.070  0.1094 -0.2353 -1.3826
61019SOL    HW287869  10.642   5.897   8.173  1.8531  0.5397 -0.3265
61020SOL     OW87870   8.921   3.796   0.190 -0.5894  0.5622  0.1117
61020SOL    HW187871   8.960   3.877   0.224 -0.6228  1.5557 -2.0155
61020SOL    HW287872   8.838   3.824   0.152 -0.7151 -0.5262 -0.4528
61021SOL     OW87873   5.581   2.868   5.333  0.4030 -1.0249 -0.2216
61021SOL    HW187874   5.590   2.940   5.271  1.8327  0.2623  1.3860
61021SOL    HW287875   5.600   2.907   5.418 -2.0330 -2.5837  1.1577
61022SOL     OW87876   2.461   3.292   2.783  0.4609 -0.5295  0.3879
61022SOL    HW187877   2.513   3.314   2.705 -0.3927  1.3121  0.2734
61022SOL    HW287878   2.511   3.330   2.856 -0.4719  0.9271  0.3146
61023SOL     OW87879   8.647   6.421   1.145 -0.0490  0.3156  0.1186
61023SOL    HW187880   8.649   6.506   1.100  0.7761 -0.6764 -1.8249
61023SOL    HW287881   8.556   6.393   1.140 -0.0767  0.4913 -0.3839
61024SOL     OW87882   7.672   8.939  12.210 -0.1668  0.6434  0.2011
61024SOL    HW187883   7.614   8.972  12.142 -0.5603 -0.2581  0.0792
61024SOL    HW287884   7.685   8.847  12.187  0.8206  0.6782  0.5705
61025SOL     OW87885   0.591   0.738  10.575 -0.1631  0.6367  0.1643
61025SOL    HW187886   0.546   0.769  10.497 -2.2969  0.8595  1.4214
61025SOL    HW287887   0.531   0.757  10.647  1.9176  0.8532  1.9491
61026SOL     OW87888  11.873  10.719   2.001  0.0823  0.5473  0.8332
61026SOL    HW187889  11.867  10.815   2.008 -3.8475  0.6804 -1.3935
61026SOL    HW287890  11.908  10.704   1.914 -3.4355  0.2119 -0.6788
61027SOL     OW87891   3.131   7.838  10.062 -0.2284 -0.3743  0.2457
61027SOL    HW187892   3.154   7.773  10.128  0.5804 -0.7244 -0.3619
61027SOL    HW287893   3.037   7.850  10.071 -0.1469 -0.4944  1.3859
61028SOL     OW87894  10.883   7.944   7.279  0.4037 -0.2110  0.0052
61028SOL    HW187895  10.899   7.850   7.288 -2.4260 -1.0967 -2.4632
61028SOL    HW287896  10.833   7.966   7.358  0.3848 -1.0034  0.2305
61029SOL     OW87897   9.513   5.216   4.198 -0.4905  0.4257  0.5223
61029SOL    HW187898   9.604   5.241   4.209 -0.7699  1.5040  0.5091
61029SOL    HW287899   9.515   5.123   4.177  0.5875  0.4014  0.7161
61030SOL     OW87900   6.937   4.467   8.621 -0.5058 -0.4244  0.0219
61030SOL    HW187901   6.880   4.450   8.546 -0.9619  1.3694 -0.0857
61030SOL    HW287902   7.025   4.449   8.590 -0.5785  1.2960 -1.3186
61031SOL     OW87903   0.844   7.770   8.621  0.1413 -0.0053 -0.5700
61031SOL    HW187904   0.923   7.757   8.674  1.0395  0.7127 -1.6651
61031SOL    HW287905   0.797   7.686   8.626  0.8397 -0.3537  0.3203
61032SOL     OW87906   3.780  11.970   2.486 -0.0567 -0.1546  0.4188
61032SOL    HW187907   3.805  12.059   2.461  0.4866  0.0623  1.6834
61032SOL    HW287908   3.816  11.915   2.416  1.3035  0.4430  0.6209
61033SOL     OW87909   9.060   2.423   8.453  0.8393  0.3571  0.3458
61033SOL    HW187910   9.016   2.465   8.527  1.0848  1.1538  0.0465
61033SOL    HW287911   9.023   2.335   8.450 -1.7553  1.3692 -0.6655
61034SOL     OW87912   4.123   3.066   9.368 -0.0666 -0.1537  0.0866
61034SOL    HW187913   4.112   3.116   9.449  1.7718 -1.7479  1.4259
61034SOL    HW287914   4.073   2.986   9.382 -1.8204  0.6137 -1.4517
61035SOL     OW87915   0.411   2.029   8.401 -0.2515  0.2306 -0.2775
61035SOL    HW187916   0.468   2.046   8.327 -0.8612  0.8687 -0.6181
61035SOL    HW287917   0.324   2.055   8.371 -0.7091 -0.6115  0.2632
61036SOL     OW87918   1.342   5.682   5.611  0.7745 -0.4005 -0.2950
61036SOL    HW187919   1.359   5.707   5.520 -0.5788 -1.4772 -0.8664
61036SOL    HW287920   1.285   5.751   5.645 -0.2578 -0.9661 -0.8539
61037SOL     OW87921   1.425   7.866   1.659  0.0585 -0.0933 -0.1395
61037SOL    HW187922   1.463   7.946   1.694  0.4166 -0.5798  0.6290
61037SOL    HW287923   1.364   7.837   1.726  0.6222 -0.9471  0.0242
61038SOL     OW87924  11.211   2.576   2.208  0.0411  0.3327  0.3008
61038SOL    HW187925  11.206   2.537   2.295 -0.2124 -0.9616 -0.2681
61038SOL    HW287926  11.277   2.645   2.216  0.4188 -0.1329  1.3732
61039SOL     OW87927   0.265   7.253   7.849 -0.2744  0.5616 -0.3849
61039SOL    HW187928   0.326   7.325   7.861 -1.0076  1.0567  0.4765
61039SOL    HW287929   0.317   7.183   7.810  1.2869  0.3409  1.9060
61040SOL     OW87930   9.799   2.614   5.166  0.1715  0.4486  0.1768
61040SOL    HW187931   9.709   2.639   5.187 -0.6782 -0.7823 -1.6976
61040SOL    HW287932   9.827   2.677   5.100 -0.5299 -0.9733 -1.5802
61041SOL     OW87933   9.312  11.451   4.805  0.1997  0.1887  0.2865
61041SOL    HW187934   9.267  11.502   4.737  0.9319 -1.1050 -1.2196
61041SOL    HW287935   9.241  11.420   4.862 -0.4586  1.0699 -0.0235
61042SOL     OW87936   2.650   5.641   7.404  0.4190  0.0345 -0.0336
61042SOL    HW187937   2.611   5.685   7.480 -0.9808 -1.7945  0.3920
61042SOL    HW287938   2.722   5.589   7.440  0.8019  0.4410 -0.2149
61043SOL     OW87939   5.948   7.699   7.889 -0.2291 -0.2152 -0.3104
61043SOL    HW187940   5.938   7.667   7.979 -0.6404 -1.7633 -0.8616
61043SOL    HW287941   5.859   7.699   7.853 -0.1151  0.7418 -0.6113
61044SOL     OW87942   9.495   8.822  10.237 -0.0318 -0.2077 -0.4820
61044SOL    HW187943   9.525   8.843  10.325  1.3074 -0.0913 -0.9285
61044SOL    HW287944   9.424   8.884  10.219 -0.7409 -0.6507  0.7279
61045SOL     OW87945  11.200   0.037   9.662 -0.2200 -0.2924 -0.3609
61045SOL    HW187946  11.222  -0.052   9.689  1.0053 -0.2880 -1.2745
61045SOL    HW287947  11.168   0.027   9.572 -2.1978 -0.0539  0.2718
61046SOL     OW87948   2.757   2.092   0.772  0.8197  0.1001  0.0208
61046SOL    HW187949   2.719   2.157   0.713  1.6206  0.7396  0.1869
61046SOL    HW287950   2.830   2.138   0.814  1.1770 -0.8003  0.4075
61047SOL     OW87951   9.224  10.644   1.531 -0.0394  0.0313  0.1920
61047SOL    HW187952   9.294  10.699   1.496  1.0064 -0.0662  2.0225
61047SOL    HW287953   9.162  10.706   1.569  0.6214  0.0097  1.3305
61048SOL     OW87954   2.300   8.982   6.770  0.1207 -0.1020  0.5286
61048SOL    HW187955   2.387   8.979   6.812  1.1429  0.3295 -1.4406
61048SOL    HW287956   2.240   9.006   6.841  1.7181  0.3520  1.7918
61049SOL     OW87957   7.242   5.881   8.472  0.0461  0.8683  0.1587
61049SOL    HW187958   7.337   5.887   8.470 -0.0507  2.7858 -1.3933
61049SOL    HW287959   7.212   5.972   8.469 -1.8392  0.2576 -1.1881
61050SOL     OW87960   2.421   0.085  10.030  0.4061 -0.4148 -0.9277
61050SOL    HW187961   2.510   0.055  10.049 -0.4024 -2.1495  0.5089
61050SOL    HW287962   2.391   0.124  10.112  0.1322  1.0391 -1.6824
61051SOL     OW87963   8.072  12.084   8.285 -0.7020 -0.1663 -0.6173
61051SOL    HW187964   8.149  12.037   8.251  0.0635  1.5929 -1.4327
61051SOL    HW287965   7.997  12.040   8.245  0.0734  0.2599 -2.6592
61052SOL     OW87966   6.060   6.662   7.252 -0.2499 -0.3046  0.0782
61052SOL    HW187967   6.116   6.641   7.327 -1.8621  0.5822  1.5946
61052SOL    HW287968   5.990   6.597   7.257 -0.4169 -0.1816 -0.6409
61053SOL     OW87969   5.444   6.092   5.479  0.2447  0.2560  0.6251
61053SOL    HW187970   5.349   6.081   5.479 -0.1533  2.9739 -0.3176
61053SOL    HW287971   5.460   6.163   5.542  1.3798  1.3586 -0.8487
61054SOL     OW87972   2.236   9.507  10.930  0.3177 -0.2866 -0.6936
61054SOL    HW187973   2.218   9.518  10.837  0.7328 -2.2171 -1.0558
61054SOL    HW287974   2.261   9.594  10.960 -2.1879  0.9239 -1.7976
61055SOL     OW87975   1.104   3.471  12.323 -0.2048  0.0759  0.1116
61055SOL    HW187976   1.050   3.416  12.379  1.2788  0.0799  1.6292
61055SOL    HW287977   1.042   3.531  12.282 -1.5119 -0.8815  0.6042
61056SOL     OW87978   1.357   0.892   8.589  0.3294  0.5806 -0.3012
61056SOL    HW187979   1.286   0.954   8.569 -0.4024  0.1870  1.0063
61056SOL    HW287980   1.418   0.942   8.643  0.6953  0.6917 -0.8012
61057SOL     OW87981   2.039  12.472   7.723  0.3909 -0.3085 -0.0514
61057SOL    HW187982   2.103  12.542   7.712  0.1254  0.0028  0.3798
61057SOL    HW287983   1.965  12.497   7.668  0.7974 -0.8677 -0.8632
61058SOL     OW87984   0.230   0.092  12.319 -0.4567  0.1769  0.6122
61058SOL    HW187985   0.299   0.069  12.255 -0.1922  0.2086  0.8844
61058SOL    HW287986   0.269   0.160  12.373 -0.8994  0.5794  0.4276
61059SOL     OW87987   6.440   0.557   0.246  0.6688  0.6586 -0.3501
61059SOL    HW187988   6.369   0.580   0.185  0.8532  1.2462 -0.3482
61059SOL    HW287989   6.492   0.492   0.198 -1.6285 -2.2535  0.8213
61060SOL     OW87990   3.850   4.844   6.981  0.2219 -1.0455  0.5559
61060SOL    HW187991   3.893   4.761   7.003  1.2436 -0.1584  2.1506
61060SOL    HW287992   3.761   4.835   7.015  0.2696 -1.5562  0.5534
61061SOL     OW87993   9.416   6.700  10.683 -0.0526  0.3204 -0.5852
61061SOL    HW187994   9.358   6.665  10.751  0.3153 -0.1962 -0.5335
61061SOL    HW287995   9.364   6.693  10.603  0.5079 -1.7116 -0.8279
61062SOL     OW87996   5.630   4.603   9.117  0.0967 -0.2829 -0.0321
61062SOL    HW187997   5.626   4.570   9.207  0.1012  0.6119  0.3034
61062SOL    HW287998   5.572   4.680   9.117  0.7495  0.2168 -0.5721
61063SOL     OW87999  12.424   9.175  10.900  0.1415  0.4682 -0.3842
61063SOL    HW188000  12.475   9.255  10.911 -0.2755  0.4458  3.0149
61063SOL    HW288001  12.486   9.104  10.915  0.2216  0.1633 -2.0038
61064SOL     OW88002  11.500   0.167   0.715 -0.0367 -0.4420 -0.2223
61064SOL    HW188003  11.582   0.137   0.754 -0.4254  0.4598  1.4247
61064SOL    HW288004  11.490   0.256   0.748 -1.5926 -0.4778 -0.5328
61065SOL     OW88005  11.886   6.677   6.637  0.0297  0.4460 -0.0899
61065SOL    HW188006  11.950   6.701   6.569  0.7147 -1.5427 -0.2047
61065SOL    HW288007  11.938   6.667   6.717  0.2015 -2.5481 -0.4665
61066SOL     OW88008   8.428   1.969   9.459  0.3269 -0.3937  0.2101
61066SOL    HW188009   8.452   1.923   9.379  0.6631 -1.8265  1.1036
61066SOL    HW288010   8.337   1.943   9.476 -0.0062  0.5219 -0.1069
61067SOL     OW88011   6.939   9.947   8.622 -0.0312  0.0237  0.1657
61067SOL    HW188012   6.924   9.853   8.617  0.9685 -0.1359 -0.1605
61067SOL    HW288013   6.981   9.960   8.707 -1.8027  0.4412  1.0157
61068SOL     OW88014   5.571   3.198   7.276  0.5352  0.0344 -0.1137
61068SOL    HW188015   5.550   3.108   7.303  1.0370 -0.3652 -1.0104
61068SOL    HW288016   5.653   3.217   7.320  1.2724 -0.5587 -1.1974
61069SOL     OW88017  12.366   5.539   3.417 -0.4414  0.1985  0.0672
61069SOL    HW188018  12.434   5.482   3.453 -1.4315 -0.8512  0.3594
61069SOL    HW288019  12.321   5.483   3.353  0.2810  1.5303 -1.6792
61070SOL     OW88020   0.260   8.486   9.707 -0.2096  0.2938  0.4335
61070SOL    HW188021   0.342   8.452   9.741 -0.0898 -0.8483 -0.8842
61070SOL    HW288022   0.226   8.543   9.776  1.6326  0.7324  1.0324
61071SOL     OW88023   9.188   3.848   8.855  0.4859 -0.9348 -0.3293
61071SOL    HW188024   9.120   3.853   8.788  0.6682  1.0671 -0.4332
61071SOL    HW288025   9.142   3.828   8.936  0.1197 -2.1404 -0.8027
61072SOL     OW88026  11.830  11.362  10.458  0.2439  0.8764  0.0727
61072SOL    HW188027  11.813  11.347  10.551 -1.4093  1.3975 -0.1053
61072SOL    HW288028  11.877  11.446  10.456 -0.0765  1.0707  0.4221
61073SOL     OW88029  11.438   1.447   1.737 -0.0088  0.4183 -0.4333
61073SOL    HW188030  11.389   1.461   1.818 -1.8114 -0.5544 -1.2989
61073SOL    HW288031  11.516   1.399   1.764 -0.7856 -0.2532  0.6798
61074SOL     OW88032   7.827   2.999   1.491 -0.1351  0.0537  0.5771
61074SOL    HW188033   7.824   2.912   1.452 -0.4256  0.0465  0.6196
61074SOL    HW288034   7.903   2.996   1.549  0.6713  0.2587 -0.4372
61075SOL     OW88035  11.087   1.511  12.479  0.3121  0.0638 -0.0502
61075SOL    HW188036  11.035   1.431  12.474  1.2091 -0.6531  1.3751
61075SOL    HW288037  11.025   1.582  12.461 -1.0444 -0.8034  1.0485
61076SOL     OW88038  10.544   3.029   5.021  0.2723  0.4070 -0.2123
61076SOL    HW188039  10.451   3.050   5.023  0.0463 -0.5193  1.9144
61076SOL    HW288040  10.581   3.071   5.098  1.6840  0.8690 -1.0864
61077SOL     OW88041   4.136   9.240   7.318  0.0095 -0.0233 -0.4006
61077SOL    HW188042   4.042   9.247   7.301  0.5993  2.6107 -3.5718
61077SOL    HW288043   4.152   9.296   7.394 -0.8828  0.0754 -0.2815
61078SOL     OW88044   1.804   3.556  11.386 -0.4335  0.1799  0.3742
61078SOL    HW188045   1.837   3.469  11.409 -1.0618  0.4274  2.3897
61078SOL    HW288046   1.848   3.577  11.304 -0.1659 -1.9731 -0.0970
61079SOL     OW88047  12.347   5.939   1.411 -0.2036  0.0021  0.4699
61079SOL    HW188048  12.438   5.951   1.384  0.2482 -0.8023  1.5710
61079SOL    HW288049  12.328   6.016   1.465 -0.2552  0.2722  0.0745
61080SOL     OW88050   1.515   7.039   0.149 -0.0409  0.2786 -0.8870
61080SOL    HW188051   1.604   7.051   0.116  0.3985 -0.9093 -0.1778
61080SOL    HW288052   1.502   7.113   0.208  0.6569  0.1961 -0.6204
61081SOL     OW88053   4.945   4.467   9.865  0.0914 -0.2408 -0.2995
61081SOL    HW188054   4.925   4.400   9.800  0.5297 -0.5467 -0.1255
61081SOL    HW288055   4.862   4.482   9.910  0.0266 -0.8064 -0.2158
61082SOL     OW88056   3.948   2.281   8.014 -0.3643  0.1357 -0.2551
61082SOL    HW188057   3.906   2.223   7.951  0.8040 -0.5318 -0.4502
61082SOL    HW288058   4.040   2.281   7.989 -0.2943  1.9076 -0.1102
61083SOL     OW88059  11.955   2.129  11.509  0.5862  0.1239  0.1980
61083SOL    HW188060  11.977   2.215  11.544  0.8170 -0.0144  0.3945
61083SOL    HW288061  12.039   2.089  11.488  0.6715 -1.0808  2.5386
61084SOL     OW88062   5.438   9.290  10.630  0.8279 -0.3883  0.1153
61084SOL    HW188063   5.524   9.295  10.589 -0.8550  1.1998 -3.7188
61084SOL    HW288064   5.426   9.375  10.673  0.3036  0.3830 -1.4924
61085SOL     OW88065   0.173   4.538  11.955 -0.2772  0.1048 -0.8016
61085SOL    HW188066   0.116   4.591  12.010  0.9676 -0.2817  0.9183
61085SOL    HW288067   0.139   4.449  11.963 -1.3444  0.3179 -2.3663
61086SOL     OW88068   2.954   3.433   5.078 -0.5556  0.7093  0.7305
61086SOL    HW188069   3.011   3.446   5.002 -1.2531  0.3807  0.1376
61086SOL    HW288070   2.961   3.514   5.128 -1.2533  1.5388 -0.4703
61087SOL     OW88071   5.829   9.067   6.047  0.3446 -0.0818 -0.0323
61087SOL    HW188072   5.768   8.994   6.059  0.1961  0.0198 -0.1680
61087SOL    HW288073   5.878   9.045   5.968  0.2443  0.0048 -0.1186
61088SOL     OW88074   5.783   1.699   4.816  0.2809 -0.5297  0.0333
61088SOL    HW188075   5.772   1.661   4.729 -0.7837 -0.1431 -0.0216
61088SOL    HW288076   5.856   1.760   4.808  1.5363 -1.9804 -0.0634
61089SOL     OW88077   6.860   1.654   5.250 -0.8259 -0.5179  0.0797
61089SOL    HW188078   6.933   1.662   5.188  0.0652 -0.5557  1.0991
61089SOL    HW288079   6.883   1.712   5.322 -1.8092 -0.5399  0.4213
61090SOL     OW88080  11.240  12.213   2.945 -0.3092 -0.0391 -0.2077
61090SOL    HW188081  11.303  12.236   3.013  1.0268  0.0061 -1.4324
61090SOL    HW288082  11.266  12.125   2.916 -0.6296  0.0915 -0.9239
61091SOL     OW88083  10.327   8.740   8.476  0.0619  0.0134  0.2729
61091SOL    HW188084  10.277   8.691   8.410 -0.8428 -0.0612  0.9880
61091SOL    HW288085  10.260   8.784   8.528  0.8086  0.9318  0.4918
61092SOL     OW88086   5.094   2.305  11.668  0.1247 -0.0173 -0.2417
61092SOL    HW188087   5.018   2.255  11.639  0.3743 -1.0897  0.9108
61092SOL    HW288088   5.072   2.334  11.756  0.7696  0.2724 -0.1709
61093SOL     OW88089   0.512   5.132  12.636 -0.2437  0.1348 -0.0134
61093SOL    HW188090   0.494   5.039  12.652 -1.3088  0.3040 -0.1672
61093SOL    HW288091   0.607   5.137  12.630 -0.0448 -0.6373  1.9258
61094SOL     OW88092   8.785  10.436   0.951  0.6686 -0.2330 -0.4922
61094SOL    HW188093   8.877  10.417   0.967  0.3717 -1.7270 -0.4478
61094SOL    HW288094   8.742  10.351   0.951 -0.4606  0.2718 -2.2233
61095SOL     OW88095   3.458   5.212   0.445 -0.1218 -0.0016  0.0915
61095SOL    HW188096   3.491   5.125   0.470  0.7116  0.1171 -0.5589
61095SOL    HW288097   3.365   5.197   0.426  0.1144 -0.8457 -0.4599
61096SOL     OW88098   9.528  11.019   1.108 -0.1898  0.6155  0.1538
61096SOL    HW188099   9.506  10.971   1.188  0.1731  0.6069  0.2510
61096SOL    HW288100   9.475  11.098   1.111 -0.8074  0.2125 -0.0142
61097SOL     OW88101   6.616   0.093  12.483  0.3269 -0.2021 -0.1183
61097SOL    HW188102   6.523   0.116  12.493  0.2822  0.0299 -0.9562
61097SOL    HW288103   6.620   0.049  12.398  1.3981  2.2663 -1.4575
61098SOL     OW88104   7.616   6.794   0.625 -0.0720  0.4539 -0.4211
61098SOL    HW188105   7.527   6.771   0.598 -0.1136  1.7886 -1.5179
61098SOL    HW288106   7.669   6.718   0.601 -0.7072  0.1786 -0.9656
61099SOL     OW88107   2.518  10.405   1.310 -0.1673  0.1382  0.3535
61099SOL    HW188108   2.606  10.370   1.302 -0.2040  0.0466  0.3484
61099SOL    HW288109   2.520  10.487   1.261 -0.4115 -0.4443 -0.6519
61100SOL     OW88110   5.072  12.482   1.575  0.0810  0.1333 -0.4687
61100SOL    HW188111   5.093  12.573   1.595 -0.0195 -0.1570  1.1451
61100SOL    HW288112   5.044  12.446   1.659 -2.7096 -0.6324 -1.6087
61101SOL     OW88113   2.909   9.312  10.638 -0.1767 -0.3494 -0.2385
61101SOL    HW188114   2.883   9.310  10.730 -1.2297 -1.0753 -0.5471
61101SOL    HW288115   2.979   9.378  10.635 -1.6385  1.3470  0.6915
61102SOL     OW88116  11.278   3.027   2.738  0.4540 -0.4517  0.3330
61102SOL    HW188117  11.228   2.958   2.781  0.1334 -0.2306  0.3115
61102SOL    HW288118  11.245   3.029   2.648 -2.6392  2.5950  1.3289
61103SOL     OW88119  10.406   6.321   3.194 -0.7340 -0.8155  0.1321
61103SOL    HW188120  10.452   6.247   3.232  0.4186  0.7888  2.0740
61103SOL    HW288121  10.445   6.332   3.107  1.8725 -0.2294  1.2641
61104SOL     OW88122   5.848   0.364   4.549 -0.0733 -0.3286  0.1359
61104SOL    HW188123   5.864   0.308   4.625  0.5190  0.7160  0.8077
61104SOL    HW288124   5.814   0.445   4.586 -1.2899 -0.3586 -0.8462
61105SOL     OW88125   7.941  12.570   1.535 -0.0637  0.4775 -0.7693
61105SOL    HW188126   7.911  12.480   1.553 -0.3670  0.6460 -0.4154
61105SOL    HW288127   7.860  12.621   1.528  0.1191  0.7881 -0.6268
61106SOL     OW88128   9.764   9.527  12.391 -0.1370 -0.2703 -0.2870
61106SOL    HW188129   9.790   9.483  12.472 -0.1409 -0.1116 -0.1978
61106SOL    HW288130   9.676   9.496  12.373 -1.3115  1.8282  1.3403
61107SOL     OW88131   2.088   2.004   8.741  0.0633  0.4067  0.4749
61107SOL    HW188132   1.992   2.004   8.743  0.0337  0.6711 -0.5491
61107SOL    HW288133   2.111   2.097   8.741  0.2976  0.3495 -0.0313
61108SOL     OW88134  11.259   2.888   5.267 -0.1957  0.4444  0.5746
61108SOL    HW188135  11.266   2.982   5.251  0.1334  0.1938 -0.8891
61108SOL    HW288136  11.348   2.855   5.252 -0.4907 -0.2079  0.2122
61109SOL     OW88137   8.470  10.364   4.633  0.0392 -0.1273  0.1266
61109SOL    HW188138   8.438  10.439   4.682  0.1782 -0.5083  0.8089
61109SOL    HW288139   8.392  10.311   4.617 -0.0185  0.0359 -0.1329
61110SOL     OW88140   1.013  12.511   3.507  0.2775 -0.4952 -0.1139
61110SOL    HW188141   1.034  12.556   3.589  1.3243 -3.6727  1.5363
61110SOL    HW288142   1.092  12.461   3.487 -0.7997 -1.6131 -1.7995
61111SOL     OW88143  10.883   1.017   5.291  0.1127  0.2800 -0.4235
61111SOL    HW188144  10.918   1.102   5.264 -0.6916  0.6818 -0.2441
61111SOL    HW288145  10.895   1.015   5.386 -2.2388  1.3602 -0.0344
61112SOL     OW88146   6.250   5.780   0.477 -0.2763 -0.1209  0.3764
61112SOL    HW188147   6.197   5.758   0.401 -1.6819 -1.3011  1.6231
61112SOL    HW288148   6.256   5.876   0.475 -1.6583 -0.0212 -0.3379
61113SOL     OW88149   9.440   1.383   9.450 -0.2898  0.1766 -0.1808
61113SOL    HW188150   9.500   1.424   9.512  0.1480 -0.0555 -0.4440
61113SOL    HW288151   9.378   1.333   9.504  1.2809 -1.6668  0.0223
61114SOL     OW88152   2.023   9.536   1.161 -0.1752  0.9154  0.6205
61114SOL    HW188153   2.081   9.472   1.119 -1.5729 -0.8344  1.2346
61114SOL    HW288154   2.055   9.621   1.131  0.2848 -0.1405 -2.1840
61115SOL     OW88155   7.023   2.716  11.837  0.5264  0.7159 -0.3258
61115SOL    HW188156   7.028   2.811  11.825 -0.6156  1.0274  1.3332
61115SOL    HW288157   7.114   2.690  11.855  0.4862  1.9586  1.9711
61116SOL     OW88158   1.454   6.409   3.442 -0.4357  0.0975 -0.1866
61116SOL    HW188159   1.370   6.437   3.478 -0.1685  0.4846  0.1517
61116SOL    HW288160   1.435   6.389   3.351 -0.7316  1.0122 -0.3428
61117SOL     OW88161   7.002  11.765  10.355 -0.0973 -0.5822  0.1302
61117SOL    HW188162   6.939  11.695  10.338 -2.4506  1.4468 -0.2252
61117SOL    HW288163   6.967  11.810  10.431 -0.4052  1.9519 -1.3917
61118SOL     OW88164  11.995   7.571   5.772  0.2081  1.3167 -0.3242
61118SOL    HW188165  11.957   7.532   5.693  0.6470 -1.3259  0.6872
61118SOL    HW288166  12.087   7.546   5.770  0.2927  1.4558  0.8625
61119SOL     OW88167   8.225   2.498   5.710 -0.1393  0.2896  0.4620
61119SOL    HW188168   8.248   2.407   5.725 -1.0404  0.3184  2.2864
61119SOL    HW288169   8.279   2.547   5.772 -0.8850  0.8368  0.6935
61120SOL     OW88170   7.766  11.565   2.950 -0.2594  0.1174  0.5791
61120SOL    HW188171   7.717  11.632   2.997 -1.1077 -0.1504  0.0981
61120SOL    HW288172   7.850  11.607   2.930 -0.7510  1.0250  0.3334
61121SOL     OW88173  10.825  10.038   8.095 -0.4846 -0.2779  0.5249
61121SOL    HW188174  10.917  10.046   8.069 -0.1629  1.2741  1.9279
61121SOL    HW288175  10.815   9.947   8.121  1.0041 -0.2034  1.4808
61122SOL     OW88176   0.576   6.108   7.949 -0.4459 -0.0058  0.4333
61122SOL    HW188177   0.510   6.175   7.935  1.4266  1.5717 -1.6707
61122SOL    HW288178   0.528   6.025   7.942 -1.9845  0.9843 -3.1250
61123SOL     OW88179   3.338  11.089  10.024 -0.0133 -0.0711  0.1046
61123SOL    HW188180   3.374  11.114   9.939  0.2801 -0.6077  0.0658
61123SOL    HW288181   3.292  11.006  10.007 -2.6406  1.3423 -0.1926
61124SOL     OW88182   5.502  11.734   9.754  0.5711  0.7098  0.3320
61124SOL    HW188183   5.563  11.674   9.711  0.9481  1.4869 -0.2515
61124SOL    HW288184   5.473  11.687   9.832 -1.8113 -1.6289 -1.7848
61125SOL     OW88185   8.107   5.621   5.991 -0.4957 -0.0135  0.2780
61125SOL    HW188186   8.094   5.599   6.084  2.4720  0.0299  0.7952
61125SOL    HW288187   8.139   5.711   5.992  0.6108 -0.3677 -0.6539
61126SOL     OW88188   5.370  12.088   3.504  0.4749  0.1405  0.4251
61126SOL    HW188189   5.367  12.053   3.415  0.8213 -1.1976  0.9152
61126SOL    HW288190   5.411  12.174   3.495  2.2386 -0.7398 -0.4989
61127SOL     OW88191   0.902   9.162   1.312  0.2083  0.1839  0.5218
61127SOL    HW188192   0.838   9.095   1.335  0.4490 -0.5309 -0.7753
61127SOL    HW288193   0.856   9.219   1.250  0.5165  0.2760  0.3773
61128SOL     OW88194   9.982   8.946   9.475 -0.3735  0.4288 -0.4512
61128SOL    HW188195   9.978   9.018   9.538 -1.0029 -0.1389  0.1851
61128SOL    HW288196  10.017   8.985   9.395 -1.3130  1.5934 -0.3216
61129SOL     OW88197   7.937   4.252   1.098 -0.3306  0.1337  0.4432
61129SOL    HW188198   7.951   4.335   1.054 -0.6515  0.6793  1.3491
61129SOL    HW288199   7.947   4.271   1.191  1.7154 -1.2667  0.5721
61130SOL     OW88200  10.006   7.865  11.987 -0.5459 -0.2465 -0.6178
61130SOL    HW188201   9.919   7.894  11.960 -1.4584 -3.2121 -1.2367
61130SOL    HW288202  10.052   7.848  11.904  1.0036  2.0674 -0.3245
61131SOL     OW88203   2.009   4.757   5.708  0.3615  0.0413 -0.5281
61131SOL    HW188204   2.098   4.748   5.673  1.0574  1.6793  0.6773
61131SOL    HW288205   1.986   4.849   5.693 -0.1668  0.2491  1.2880
61132SOL     OW88206   4.138   6.781   1.442 -0.2140  0.2147 -0.2774
61132SOL    HW188207   4.104   6.869   1.424 -0.0716  0.0919 -1.2167
61132SOL    HW288208   4.080   6.722   1.393  0.3989 -0.1184 -0.6171
61133SOL     OW88209   5.039   2.749   8.420  0.1883  0.4240 -0.5289
61133SOL    HW188210   5.103   2.740   8.349  0.4531  0.9840 -0.3717
61133SOL    HW288211   5.084   2.713   8.496  0.0587  0.1959 -0.5610
61134SOL     OW88212   4.042   4.231   8.567 -0.0101 -0.1257 -0.3709
61134SOL    HW188213   4.025   4.325   8.559  0.2023  0.0246  0.7995
61134SOL    HW288214   3.955   4.192   8.578  0.0509  0.2566  1.9305
61135SOL     OW88215   6.714   3.579   3.485 -0.3207  0.2800  0.6382
61135SOL    HW188216   6.793   3.537   3.519  0.6027 -0.6987 -2.3811
61135SOL    HW288217   6.642   3.521   3.511  0.4709 -1.0447 -0.0268
61136SOL     OW88218   7.124   9.804   4.416 -0.2866 -0.1507 -0.3733
61136SOL    HW188219   7.174   9.727   4.388  0.5015 -0.0788  0.7749
61136SOL    HW288220   7.064   9.771   4.483 -1.6980 -0.1961 -1.5913
61137SOL     OW88221   0.814   9.938   0.749 -0.6946 -0.2201 -0.5293
61137SOL    HW188222   0.845  10.021   0.713  0.9518 -0.9301 -0.8287
61137SOL    HW288223   0.799   9.956   0.842  0.0317  0.3025 -0.5105
61138SOL     OW88224  11.807  10.014   6.021  1.2513  0.2957 -0.2774
61138SOL    HW188225  11.874  10.046   6.081  0.9677  2.4625 -1.0177
61138SOL    HW288226  11.807  10.077   5.949 -1.9287  0.7155 -0.0522
61139SOL     OW88227   5.413   1.859  12.364  0.5961  0.1495  0.1419
61139SOL    HW188228   5.467   1.933  12.336 -0.0781  0.3927 -0.5588
61139SOL    HW288229   5.375   1.825  12.283 -0.0487 -0.2074  0.5871
61140SOL     OW88230   1.679   8.878  11.817  0.0001 -0.3162  0.4752
61140SOL    HW188231   1.644   8.792  11.796 -3.1954  1.3032 -1.7476
61140SOL    HW288232   1.681   8.925  11.734  1.6589  1.7679  1.5754
61141SOL     OW88233   1.247   8.041   8.293 -0.2675  0.5088  0.5745
61141SOL    HW188234   1.153   8.051   8.280 -0.4051 -0.0799  1.0744
61141SOL    HW288235   1.261   7.947   8.300  0.6862  0.4101 -1.7744
61142SOL     OW88236   2.950  10.157   6.773 -0.1713  0.2385  0.0052
61142SOL    HW188237   2.968  10.241   6.731  0.5159 -1.0856 -2.5600
61142SOL    HW288238   2.923  10.100   6.701 -1.2946 -1.5789  1.7733
61143SOL     OW88239   9.043   3.266  10.156 -0.2632  0.2325 -0.1779
61143SOL    HW188240   9.056   3.198  10.090  0.9088  1.1218 -0.8857
61143SOL    HW288241   8.965   3.237  10.204 -0.6055 -0.8918 -1.3458
61144SOL     OW88242  11.905   3.010   3.638 -0.3054 -0.0944 -0.0099
61144SOL    HW188243  11.961   2.945   3.595  0.9971  1.1083 -0.1960
61144SOL    HW288244  11.866   2.963   3.711 -0.3362 -1.4084 -0.8347
61145SOL     OW88245   5.025   2.088  11.430 -0.2402  0.5606  0.0911
61145SOL    HW188246   5.085   2.143  11.480 -0.0955 -0.9284  1.6840
61145SOL    HW288247   4.941   2.096  11.475 -0.3982  0.0712 -0.0999
61146SOL     OW88248   3.852   4.108  11.823 -0.6622 -0.9428  0.4133
61146SOL    HW188249   3.759   4.130  11.826 -0.6086 -0.8210  1.4672
61146SOL    HW288250   3.894   4.170  11.882 -0.0230 -1.5066  0.5689
61147SOL     OW88251   2.766   4.666   5.461 -0.0839  0.2763  0.2278
61147SOL    HW188252   2.847   4.621   5.482  0.1834  0.6453 -0.0036
61147SOL    HW288253   2.767   4.676   5.365  0.2709  1.5267  0.3472
61148SOL     OW88254   1.199   4.365  12.081  0.3369 -0.4176 -0.1780
61148SOL    HW188255   1.189   4.311  12.159 -2.7560 -2.1227 -1.5496
61148SOL    HW288256   1.190   4.455  12.111 -0.8508 -1.0449  1.4159
61149SOL     OW88257   4.567  11.467   5.369  0.1277  0.1627  0.2025
61149SOL    HW188258   4.635  11.422   5.319 -1.0058  0.6730 -1.9177
61149SOL    HW288259   4.614  11.513   5.438  2.0820  1.0995 -1.6305
61150SOL     OW88260  10.017  11.272   6.875 -0.3056  1.2586 -0.1384
61150SOL    HW188261  10.086  11.241   6.817  0.2920  1.0073  0.6950
61150SOL    HW288262  10.006  11.364   6.854 -1.2823  0.8041 -1.8284
61151SOL     OW88263   6.287   9.527  12.463 -0.2771  0.0382 -0.3424
61151SOL    HW188264   6.374   9.508  12.498  0.0036  1.8714  0.0800
61151SOL    HW288265   6.299   9.533  12.369 -0.1210 -0.5101 -0.3590
61152SOL     OW88266  12.589   9.260  11.744  0.2501  0.4895  0.2201
61152SOL    HW188267  12.634   9.199  11.802 -0.4126 -0.5767 -0.3645
61152SOL    HW288268  12.511   9.285  11.793 -0.6952 -0.9900 -0.4758
61153SOL     OW88269   3.319   6.074   4.721 -0.4218 -0.0207 -0.3020
61153SOL    HW188270   3.274   6.121   4.791  2.2194 -0.2374  1.7085
61153SOL    HW288271   3.372   6.008   4.767  0.0842 -1.3708 -2.6545
61154SOL     OW88272   4.658   3.597   7.204 -0.3027 -0.3223 -0.3426
61154SOL    HW188273   4.667   3.665   7.137  0.7222  0.1815  0.2830
61154SOL    HW288274   4.711   3.629   7.277 -2.4417 -0.1853  1.2627
61155SOL     OW88275   4.172  10.798   2.546 -0.3273 -0.4646 -0.4268
61155SOL    HW188276   4.171  10.768   2.637 -1.7211  1.5703  0.3041
61155SOL    HW288277   4.263  10.793   2.520  1.0245  3.1822  2.6713
61156SOL     OW88278   4.045   2.016   9.567 -0.1817  0.0070 -0.1126
61156SOL    HW188279   4.010   1.929   9.585  0.4817  0.0123  1.3700
61156SOL    HW288280   3.998   2.073   9.628  0.6921  0.3921  0.2150
61157SOL     OW88281   2.768   7.550   7.868  0.1256 -0.2386 -0.1285
61157SOL    HW188282   2.697   7.568   7.807 -0.0186  0.2502  0.1746
61157SOL    HW288283   2.736   7.480   7.924  0.4076 -0.9610 -0.8589
61158SOL     OW88284   4.966   1.327  10.827  0.0038 -0.4285 -0.1212
61158SOL    HW188285   4.910   1.358  10.756 -1.5822  1.1332  1.7100
61158SOL    HW288286   4.915   1.257  10.869  0.0892 -0.0811  0.5858
61159SOL     OW88287   9.194   4.375   2.338  0.3291  0.4962  0.7520
61159SOL    HW188288   9.145   4.298   2.309  2.6184 -0.1580 -1.8771
61159SOL    HW288289   9.184   4.376   2.433 -0.7005 -2.3971  0.7788
61160SOL     OW88290   3.993   2.666   8.453  0.6865  0.0995 -0.4097
61160SOL    HW188291   4.045   2.587   8.437  0.4028 -0.6298  1.8797
61160SOL    HW288292   3.906   2.645   8.418  0.9864 -0.0260 -1.0972
61161SOL     OW88293   6.525   3.838   8.141 -0.3165 -0.3532  0.1950
61161SOL    HW188294   6.463   3.779   8.098 -0.5047  0.9935 -1.4743
61161SOL    HW288295   6.611   3.809   8.111 -0.4404  0.5057 -1.0397
61162SOL     OW88296   3.288   8.094   7.767  0.2501  0.2535 -0.3953
61162SOL    HW188297   3.260   8.034   7.836  2.3865  0.2952  0.5744
61162SOL    HW288298   3.321   8.038   7.697  2.7839  0.1705  0.7409
61163SOL     OW88299  10.337   8.692   2.675  0.7545 -0.2760  0.0787
61163SOL    HW188300  10.389   8.663   2.750  0.7114  0.9178  0.5986
61163SOL    HW288301  10.261   8.736   2.714 -0.2379 -1.2561 -0.6705
61164SOL     OW88302   7.096   5.562   6.572  0.2637 -0.5935 -0.3492
61164SOL    HW188303   7.111   5.583   6.664 -0.2001 -0.0936 -0.3854
61164SOL    HW288304   7.184   5.554   6.535  0.5086  1.8922 -0.4559
61165SOL     OW88305  11.144   6.377  10.850  0.2240  0.7593 -0.3101
61165SOL    HW188306  11.097   6.321  10.788 -0.1456  0.7565 -0.0297
61165SOL    HW288307  11.135   6.333  10.934  1.6703  0.1801 -0.4318
61166SOL     OW88308  10.038   2.227   5.323  0.2734  0.1047 -0.1123
61166SOL    HW188309   9.980   2.301   5.305 -0.2700  0.2477  2.0023
61166SOL    HW288310   9.980   2.152   5.331  0.3873  0.1450  1.4300
61167SOL     OW88311   6.415   6.844   6.095  0.2389 -0.0944 -0.0007
61167SOL    HW188312   6.368   6.925   6.081 -0.3597 -0.6273 -1.2886
61167SOL    HW288313   6.498   6.855   6.047 -0.4497 -0.7312 -1.4206
61168SOL     OW88314   5.632   9.832   0.235  0.5219 -0.2142  0.4839
61168SOL    HW188315   5.573   9.859   0.306  0.4471  0.1859  0.2715
61168SOL    HW288316   5.624   9.901   0.170  1.1126 -0.2346  0.3851
61169SOL     OW88317   8.643   2.181   8.140 -0.1981  0.1042  0.0972
61169SOL    HW188318   8.647   2.201   8.234 -3.2570 -3.8571  1.3952
61169SOL    HW288319   8.724   2.134   8.122  1.8764  3.5210 -0.2363
61170SOL     OW88320   3.189   2.213   6.789  0.1981 -0.1551 -0.1464
61170SOL    HW188321   3.149   2.296   6.763 -0.1439  0.2207  1.4926
61170SOL    HW288322   3.195   2.163   6.707  3.2996  2.6175 -1.8425
61171SOL     OW88323   3.446   6.818   7.858 -0.7638 -0.4214 -0.8042
61171SOL    HW188324   3.479   6.861   7.779  0.9382 -0.6811 -0.2877
61171SOL    HW288325   3.482   6.729   7.853 -0.7161 -0.4694  0.2062
61172SOL     OW88326   7.675   0.428   8.149 -0.2908  0.0091  0.1143
61172SOL    HW188327   7.617   0.487   8.197  1.1059  0.1309  1.7572
61172SOL    HW288328   7.719   0.485   8.085 -1.5789 -0.0044 -0.8396
61173SOL     OW88329   0.772   7.690  11.344 -0.8683 -0.3008 -0.4471
61173SOL    HW188330   0.856   7.680  11.388 -1.6669 -0.9602  0.9862
61173SOL    HW288331   0.739   7.600  11.334 -1.4969 -0.0420 -0.7873
61174SOL     OW88332   5.915   6.879   7.238 -0.3517  0.3711 -0.4727
61174SOL    HW188333   5.846   6.828   7.279 -0.5942  0.9297 -0.1726
61174SOL    HW288334   5.991   6.820   7.236 -0.6177  0.0129 -0.1140
61175SOL     OW88335   0.700  10.137   3.042  0.2460  0.0168  0.3383
61175SOL    HW188336   0.645  10.108   2.969  2.6721 -1.8477 -0.8777
61175SOL    HW288337   0.648  10.117   3.120 -1.9016  0.9396 -0.7601
61176SOL     OW88338  12.547   8.329   8.272 -0.0371 -0.0341  0.1228
61176SOL    HW188339  12.621   8.360   8.218 -1.2039  1.1902 -0.8373
61176SOL    HW288340  12.516   8.408   8.316 -1.3945 -0.3480 -0.2511
61177SOL     OW88341   9.857   9.788   9.286 -0.2464  0.2955 -0.6103
61177SOL    HW188342   9.808   9.869   9.270 -2.7391 -1.1809 -0.8505
61177SOL    HW288343   9.853   9.776   9.380  0.8614  0.8439 -0.4747
61178SOL     OW88344   2.748   9.883  11.217 -0.5949  0.3833  0.4177
61178SOL    HW188345   2.809   9.884  11.291  0.8086  0.1536 -0.7030
61178SOL    HW288346   2.767   9.963  11.169 -0.2981 -0.2911 -0.6212
61179SOL     OW88347   7.352   5.669  11.417 -0.6232 -0.1203 -0.6215
61179SOL    HW188348   7.262   5.678  11.447 -0.9870  0.3567 -1.8058
61179SOL    HW288349   7.402   5.653  11.497 -1.6779  0.1299  0.1122
61180SOL     OW88350   0.763   5.383   5.324  0.4859  0.1678 -0.0975
61180SOL    HW188351   0.761   5.325   5.248 -0.6909 -1.1326  0.8778
61180SOL    HW288352   0.732   5.467   5.290 -0.5371 -0.5291 -0.9590
61181SOL     OW88353  10.840   5.869   2.993 -0.0438  0.7860  0.1230
61181SOL    HW188354  10.860   5.925   3.068  0.5683  2.1924 -1.0366
61181SOL    HW288355  10.745   5.871   2.987 -0.1780 -0.1610  1.4301
61182SOL     OW88356   0.456  12.644   1.257 -0.1809 -0.6152 -0.3934
61182SOL    HW188357   0.426  12.554   1.240  1.0843 -1.2687  0.6249
61182SOL    HW288358   0.510  12.636   1.336  1.9595  0.5911 -1.6449
61183SOL     OW88359   2.886   6.006   7.117 -0.0341 -0.1809 -0.0777
61183SOL    HW188360   2.909   5.976   7.029  1.2295 -0.0356  0.1863
61183SOL    HW288361   2.813   6.066   7.104  0.7161  0.5362 -1.1257
61184SOL     OW88362   1.268   9.270  10.653  0.4994 -0.7649 -1.0686
61184SOL    HW188363   1.336   9.313  10.705 -0.4414 -0.1713 -0.2998
61184SOL    HW288364   1.316   9.211  10.596  1.6088 -1.0444  0.1000
61185SOL     OW88365   8.242   4.595  12.287  0.1768  0.4037  0.3519
61185SOL    HW188366   8.301   4.533  12.244 -0.6389 -0.8053  0.9101
61185SOL    HW288367   8.171   4.609  12.224 -0.1595 -0.0550  0.6165
61186SOL     OW88368   1.328  12.587   5.945  0.0716 -0.2607  0.6989
61186SOL    HW188369   1.350  12.525   5.875  0.1829  0.2106  0.3125
61186SOL    HW288370   1.413  12.622   5.973 -0.0827  0.7299 -0.0233
61187SOL     OW88371  11.019  11.117   7.362  0.0488  0.5870 -0.4765
61187SOL    HW188372  10.981  11.187   7.414 -0.8790  0.4476 -0.9488
61187SOL    HW288373  11.031  11.044   7.424  0.0435  0.8080 -0.2150
61188SOL     OW88374   3.250   0.636   9.407 -0.0492 -0.2986  0.0223
61188SOL    HW188375   3.235   0.603   9.318 -0.5738 -0.7886  0.2904
61188SOL    HW288376   3.173   0.690   9.426 -0.4669 -1.0889  0.5930
61189SOL     OW88377   3.075   1.328   2.489 -0.0874 -0.5799  0.4729
61189SOL    HW188378   3.077   1.418   2.456 -1.9801 -0.4517  0.5916
61189SOL    HW288379   3.144   1.324   2.555  0.2403  0.6822  0.2231
61190SOL     OW88380   8.881  10.684   4.226  0.5087 -0.0686  0.1003
61190SOL    HW188381   8.793  10.721   4.227  1.4258  2.2669  0.4939
61190SOL    HW288382   8.876  10.609   4.285 -0.5627  1.7618  2.5146
61191SOL     OW88383   7.349   4.333   8.876  0.3185  0.3157 -0.0801
61191SOL    HW188384   7.414   4.263   8.870 -0.8470 -0.6802 -2.7683
61191SOL    HW288385   7.293   4.308   8.948  1.2393 -0.3009  0.4453
61192SOL     OW88386   7.484  11.583   7.893 -0.2236  0.2493  0.3496
61192SOL    HW188387   7.460  11.492   7.910  1.3723 -0.1586  0.5320
61192SOL    HW288388   7.496  11.622   7.980  0.2019  0.3271  0.2575
61193SOL     OW88389   9.249   6.591   4.277  0.5166 -0.5318  0.5005
61193SOL    HW188390   9.236   6.575   4.370 -1.8770  0.9091  0.5020
61193SOL    HW288391   9.295   6.674   4.272  3.9153 -2.2417  0.3383
61194SOL     OW88392   4.112   2.530  10.572 -0.2617 -0.2354 -0.0960
61194SOL    HW188393   4.158   2.529  10.655 -1.1724 -1.8357  0.4286
61194SOL    HW288394   4.037   2.588  10.587  0.6567  1.0937 -0.4630
61195SOL     OW88395   4.640   2.144   0.926 -0.1034 -0.4343 -0.0849
61195SOL    HW188396   4.598   2.079   0.983 -1.0655  0.7105  0.5485
61195SOL    HW288397   4.732   2.143   0.952 -0.2077 -1.1581  0.2809
61196SOL     OW88398  11.378   5.622   2.605 -0.3516  0.1636 -0.3225
61196SOL    HW188399  11.470   5.602   2.588 -0.5202  0.9033 -2.3802
61196SOL    HW288400  11.372   5.627   2.701  1.6720 -0.1816 -0.1289
61197SOL     OW88401   8.053   7.381   3.068  0.3826  0.3870 -0.0795
61197SOL    HW188402   7.995   7.331   3.010 -1.8911  1.5273  1.1359
61197SOL    HW288403   8.099   7.314   3.119 -0.6175 -0.5250 -0.3485
61198SOL     OW88404   5.626   7.977   0.634  0.0989  0.1140  0.4780
61198SOL    HW188405   5.561   7.915   0.603 -0.8891  1.6376 -0.6501
61198SOL    HW288406   5.575   8.049   0.672  0.9244  2.2743 -2.1645
61199SOL     OW88407   5.202   1.359   6.766  0.1809 -0.3555  0.6069
61199SOL    HW188408   5.290   1.321   6.771  0.6634  0.6161 -0.0899
61199SOL    HW288409   5.214   1.451   6.790 -0.5155 -0.0457 -0.1623
61200SOL     OW88410   5.027   7.342  10.720  0.4910  0.2690  0.1931
61200SOL    HW188411   5.016   7.268  10.660 -0.6561 -0.0002  0.7174
61200SOL    HW288412   5.094   7.396  10.678 -0.0626 -0.0578 -1.1813
61201SOL     OW88413   5.320   4.813   1.024  0.0208 -0.5591  0.3243
61201SOL    HW188414   5.359   4.837   1.108 -0.2561  0.7019  0.1237
61201SOL    HW288415   5.251   4.879   1.011 -0.0482 -0.8341 -0.8080
61202SOL     OW88416   9.063   0.440   7.482 -0.7118  0.1835 -0.4128
61202SOL    HW188417   9.025   0.526   7.462 -0.5031  0.0880 -1.2534
61202SOL    HW288418   9.144   0.438   7.431 -0.6289 -0.4450 -0.2556
61203SOL     OW88419   7.212   3.482  10.012 -0.9652 -0.4602 -0.3936
61203SOL    HW188420   7.269   3.465   9.936 -1.5320 -0.2594 -0.8681
61203SOL    HW288421   7.258   3.441  10.085 -0.9458 -1.6411 -1.0339
61204SOL     OW88422   7.728   9.157  12.349  0.1792 -0.0672 -0.2771
61204SOL    HW188423   7.751   9.072  12.310 -1.2808 -0.6011 -0.0584
61204SOL    HW288424   7.669   9.197  12.286 -1.1174 -0.3410  0.7018
61205SOL     OW88425   9.578   6.258  11.472 -0.2453 -0.3329 -0.5711
61205SOL    HW188426   9.663   6.299  11.482 -0.7261  0.5023  0.2448
61205SOL    HW288427   9.583   6.177  11.522  0.0926 -0.3276 -0.5987
61206SOL     OW88428  12.150   7.399  11.509  0.4557 -0.0806 -0.2282
61206SOL    HW188429  12.073   7.448  11.482  0.0810  0.4508  1.6583
61206SOL    HW288430  12.117   7.312  11.530  0.4979 -0.0694 -0.1156
61207SOL     OW88431  12.624   5.571   7.746  0.1866 -0.0796 -0.0564
61207SOL    HW188432  12.708   5.530   7.767  0.6906  0.5290 -0.8437
61207SOL    HW288433  12.597   5.531   7.663  1.0850  1.7039 -1.2747
61208SOL     OW88434   2.517   8.146  11.072 -0.7769 -0.1918  0.5829
61208SOL    HW188435   2.470   8.229  11.078  0.2995  0.6097 -1.1871
61208SOL    HW288436   2.610   8.170  11.073 -0.4411 -1.2690 -0.7061
61209SOL     OW88437   9.961   6.545   3.219  0.1547  0.2052 -0.6713
61209SOL    HW188438  10.024   6.494   3.270  0.8836  0.5561 -1.2039
61209SOL    HW288439   9.998   6.548   3.131 -0.1048  1.2651 -0.7552
61210SOL     OW88440  12.547  11.770  11.134 -0.2545  0.7949 -0.0310
61210SOL    HW188441  12.499  11.721  11.201 -0.3831 -0.0121 -0.6943
61210SOL    HW288442  12.484  11.832  11.098  0.2564  2.4239  1.7188
61211SOL     OW88443   7.661  12.253  11.885 -0.1978  0.1710 -0.0115
61211SOL    HW188444   7.594  12.224  11.823 -1.0405  0.3827  0.7897
61211SOL    HW288445   7.742  12.213  11.852 -0.6410  0.1901 -1.1856
61212SOL     OW88446  10.136   5.231  11.534 -0.1901 -0.2316 -0.4693
61212SOL    HW188447  10.184   5.256  11.455  0.7671  2.4334  0.8162
61212SOL    HW288448  10.052   5.275  11.525 -0.3010 -0.4067 -0.2783
61213SOL     OW88449  12.515  10.121  10.037  0.0800  0.1203  0.0790
61213SOL    HW188450  12.482  10.197   9.990  0.2749 -0.6672 -1.3805
61213SOL    HW288451  12.437  10.068  10.054 -0.0746  0.6719  1.2155
61214SOL     OW88452   5.567  11.083   0.950 -0.3105  0.1912  0.2608
61214SOL    HW188453   5.515  11.095   1.030 -0.2534 -0.7541  0.4532
61214SOL    HW288454   5.607  10.996   0.960  1.0232  0.7398 -0.0475
61215SOL     OW88455   3.363   6.004   2.369 -0.2004  0.1038  0.3221
61215SOL    HW188456   3.338   5.969   2.283  1.7987  1.1327 -0.7505
61215SOL    HW288457   3.284   6.050   2.400 -1.1579 -0.8225 -0.6512
61216SOL     OW88458   8.986   9.199   8.371 -0.0669 -0.3279 -0.2860
61216SOL    HW188459   9.056   9.215   8.307  0.3288  0.4892  0.3367
61216SOL    HW288460   8.930   9.134   8.329  0.4821 -0.2034 -1.2403
61217SOL     OW88461  10.323  11.989   4.295 -0.2108  0.0054 -0.1301
61217SOL    HW188462  10.398  12.047   4.309 -1.6557  1.8229  0.4912
61217SOL    HW288463  10.289  11.973   4.383 -0.1253 -1.4485 -0.3417
61218SOL     OW88464  10.039   9.709  12.163 -0.1516 -0.2271  0.6027
61218SOL    HW188465   9.958   9.711  12.213 -1.1199 -0.5272 -0.8751
61218SOL    HW288466  10.028   9.777  12.096  1.1072  0.1948  0.7845
61219SOL     OW88467   7.304   7.275   6.359  0.3181 -0.0567  0.0587
61219SOL    HW188468   7.253   7.228   6.294  0.6886  0.3903 -0.5629
61219SOL    HW288469   7.395   7.265   6.330  0.2778  3.5762 -1.8609
61220SOL     OW88470   1.516   7.707   4.243 -0.4821 -0.8213  0.2442
61220SOL    HW188471   1.502   7.753   4.325 -1.1390 -2.0754  0.8565
61220SOL    HW288472   1.494   7.616   4.262 -2.0564 -0.9167 -1.6754
61221SOL     OW88473   2.458   6.999  10.423 -0.1519  0.4499  0.2327
61221SOL    HW188474   2.541   7.008  10.377 -0.3145  1.5420  0.1389
61221SOL    HW288475   2.392   7.028  10.360 -0.8018 -1.9339 -0.2876
61222SOL     OW88476   7.729   8.196   3.898  0.3462 -0.0167  0.5654
61222SOL    HW188477   7.715   8.227   3.809 -2.1906 -0.6598  0.6875
61222SOL    HW288478   7.739   8.276   3.950 -2.3595  0.5800  0.2930
61223SOL     OW88479   1.841   6.173   1.852 -0.0006  0.3140 -0.3900
61223SOL    HW188480   1.896   6.223   1.792 -0.0521  0.5375 -0.2500
61223SOL    HW288481   1.888   6.091   1.865  0.6219  0.7685  0.2541
61224SOL     OW88482  10.052  12.312   1.005 -0.0165  0.0582  0.0123
61224SOL    HW188483  10.119  12.338   0.942  0.8821  1.1774  1.3625
61224SOL    HW288484   9.974  12.362   0.978 -0.1724 -0.8013 -1.2126
61225SOL     OW88485   2.179  11.656  12.541  0.1035  0.1168 -0.3185
61225SOL    HW188486   2.085  11.671  12.530 -0.1747 -2.1123 -1.5976
61225SOL    HW288487   2.212  11.641  12.452  0.9058 -2.7694  0.3588
61226SOL     OW88488   4.764   8.995   4.020 -0.0048  0.1648  0.1750
61226SOL    HW188489   4.826   8.928   4.049  0.7150  0.4373 -0.6787
61226SOL    HW288490   4.780   9.003   3.926  1.4002  2.9706  0.5480
61227SOL     OW88491   3.168   0.121   2.076  0.3592  0.3866  0.1288
61227SOL    HW188492   3.080   0.132   2.042 -0.3749 -1.3492  1.3735
61227SOL    HW288493   3.225   0.135   2.000 -0.9700  1.2096 -0.7536
61228SOL     OW88494   8.034   3.907   6.356  0.5033  0.4096 -0.4988
61228SOL    HW188495   7.994   3.990   6.331 -3.9405 -1.5448 -0.9627
61228SOL    HW288496   7.994   3.886   6.441  1.5603 -1.2194 -0.3476
61229SOL     OW88497  12.289  10.922   4.282 -0.1471  0.4611  0.2954
61229SOL    HW188498  12.203  10.950   4.312 -1.1519 -0.9617 -1.0720
61229SOL    HW288499  12.322  10.995   4.229 -1.4599  0.2470 -0.8729
61230SOL     OW88500  10.229   6.134   3.873  0.0988 -0.2390 -0.2154
61230SOL    HW188501  10.217   6.058   3.929 -3.5494  0.8227  0.7117
61230SOL    HW288502  10.204   6.208   3.929  2.8463  1.6679 -1.2843
61231SOL     OW88503   1.454   0.043   4.308 -0.1532  0.3602  0.3358
61231SOL    HW188504   1.431  -0.000   4.226 -2.2313  0.4826  0.8016
61231SOL    HW288505   1.444   0.137   4.289 -2.0911  0.3497  1.0590
61232SOL     OW88506  11.978   4.630   4.552  0.5187 -0.0985 -0.2292
61232SOL    HW188507  11.949   4.671   4.634 -0.0508 -0.0940 -0.4333
61232SOL    HW288508  11.951   4.691   4.484 -1.7306 -1.4782 -0.6793
61233SOL     OW88509   0.844   7.537   3.078  0.6135  0.0078 -0.1566
61233SOL    HW188510   0.776   7.573   3.134  0.5539 -0.5466  0.1294
61233SOL    HW288511   0.797   7.505   3.000  0.5345 -0.4253  0.0651
61234SOL     OW88512   7.947   3.651   9.162 -0.3879  0.2080 -0.3387
61234SOL    HW188513   7.922   3.580   9.222  1.4384 -0.0885  0.1186
61234SOL    HW288514   7.896   3.726   9.193 -1.1751 -0.4961  0.1497
61235SOL     OW88515   0.013   9.260   2.688  0.2130  0.1363  0.0254
61235SOL    HW188516   0.019   9.232   2.779 -1.3269  1.6814  0.6384
61235SOL    HW288517  -0.034   9.189   2.644  1.2120 -0.7445  0.3457
61236SOL     OW88518   4.537   1.733   2.087 -0.1139  0.2387 -0.3845
61236SOL    HW188519   4.556   1.798   2.019 -0.6136  0.5190 -0.2560
61236SOL    HW288520   4.538   1.650   2.040  1.0253  0.2705 -0.4598
61237SOL     OW88521   6.327  11.746   5.563 -0.1631 -0.1534  0.0180
61237SOL    HW188522   6.364  11.810   5.623 -1.2820 -0.2694  0.8849
61237SOL    HW288523   6.245  11.786   5.533 -0.3165 -0.6977 -0.3030
61238SOL     OW88524   4.809   5.270   0.098 -0.0134 -0.2506 -0.1334
61238SOL    HW188525   4.843   5.213   0.029 -1.5185 -2.3530  0.7408
61238SOL    HW288526   4.876   5.337   0.109  0.6577 -0.3186 -3.0142
61239SOL     OW88527   3.692   6.195   1.654  0.3746 -0.0520  0.0320
61239SOL    HW188528   3.759   6.260   1.631  0.9998 -0.0642  1.7244
61239SOL    HW288529   3.693   6.133   1.581  1.6585  0.3862 -0.3483
61240SOL     OW88530   8.884   9.384   6.907 -0.6856 -0.2419 -0.2719
61240SOL    HW188531   8.814   9.441   6.876  0.1387  1.3678  0.6693
61240SOL    HW288532   8.848   9.295   6.900 -2.5815  0.4894 -0.3653
61241SOL     OW88533   4.069   3.493   3.696  0.2145  0.2002 -0.2928
61241SOL    HW188534   4.139   3.429   3.692 -0.4833 -0.5585 -0.5950
61241SOL    HW288535   4.055   3.520   3.605 -1.0804 -1.0041 -0.4931
61242SOL     OW88536   5.920   6.499   6.443 -0.0920  0.0011  0.2139
61242SOL    HW188537   5.942   6.548   6.522 -0.7954 -1.7417  1.5392
61242SOL    HW288538   5.920   6.408   6.470  1.1860 -0.7961 -2.1882
61243SOL     OW88539   7.919   3.890  10.272  0.0951 -0.0618  0.1210
61243SOL    HW188540   7.852   3.948  10.308  0.7028  0.7515 -0.0245
61243SOL    HW288541   7.981   3.949  10.229  0.7004 -0.8274 -0.0758
61244SOL     OW88542   9.906   9.807   8.846 -0.9017  0.1226 -0.2511
61244SOL    HW188543   9.832   9.791   8.787 -0.7164 -2.4170  0.0633
61244SOL    HW288544   9.982   9.771   8.799 -0.4238 -0.1480  0.6976
61245SOL     OW88545   1.795   4.747  10.186  0.2800  0.3217  0.2508
61245SOL    HW188546   1.876   4.711  10.151  0.3266  0.0577  0.6196
61245SOL    HW288547   1.775   4.691  10.261  0.1390  0.8191  0.5902
61246SOL     OW88548   4.197   5.102  10.418 -0.5138  0.2398 -0.4487
61246SOL    HW188549   4.181   5.174  10.480  0.9049  0.5196 -0.3699
61246SOL    HW288550   4.190   5.023  10.471 -1.6162  0.3291 -0.4346
61247SOL     OW88551   8.861  11.882  11.669  0.2921 -0.6924  0.6881
61247SOL    HW188552   8.800  11.833  11.724 -1.6975 -0.1941 -0.9557
61247SOL    HW288553   8.900  11.947  11.728 -1.0960 -0.7497  1.7073
61248SOL     OW88554   4.403  12.184   4.233  0.2415 -0.1240  0.7069
61248SOL    HW188555   4.319  12.198   4.277  0.5509 -1.4480  1.8113
61248SOL    HW288556   4.468  12.222   4.292  0.5944 -1.1803  1.0337
61249SOL     OW88557   8.717   2.600   4.461 -0.1477  0.4998 -0.1126
61249SOL    HW188558   8.760   2.526   4.419  1.0818  0.5873  0.9258
61249SOL    HW288559   8.678   2.564   4.540  0.0020  0.8515  0.1258
61250SOL     OW88560  11.974   5.179   5.301  0.2444 -0.3372 -0.1409
61250SOL    HW188561  11.922   5.116   5.250  0.6285 -0.9224  0.1817
61250SOL    HW288562  11.910   5.243   5.331  0.1063  0.4378 -1.9459
61251SOL     OW88563  11.011   8.417   8.948 -0.4326  0.4226  0.0299
61251SOL    HW188564  11.016   8.349   8.882 -0.3747  0.3243  0.1360
61251SOL    HW288565  11.053   8.493   8.908  0.9720 -0.0676  0.5130
61252SOL     OW88566   9.904  12.354   5.143  0.5506 -0.4537  0.1569
61252SOL    HW188567   9.831  12.331   5.201 -0.7958  1.1709 -0.7911
61252SOL    HW288568   9.873  12.331   5.056  0.5340  1.6264 -0.4256
61253SOL     OW88569   3.692   6.824   1.520 -0.1542  0.3264 -0.4574
61253SOL    HW188570   3.630   6.793   1.586 -0.1316  0.4102 -0.3972
61253SOL    HW288571   3.674   6.769   1.444 -0.7683  0.7935 -0.6634
61254SOL     OW88572  12.555   4.780   1.982 -0.2628  0.1064 -1.0322
61254SOL    HW188573  12.532   4.763   2.073  1.2256 -1.1687 -0.8446
61254SOL    HW288574  12.509   4.712   1.933  0.6339 -0.5532 -0.9796
61255SOL     OW88575   7.912  10.564  10.364 -0.2399  0.2141 -0.2732
61255SOL    HW188576   7.837  10.624  10.364 -0.4724 -0.0224 -1.6816
61255SOL    HW288577   7.955  10.580  10.280 -0.7618 -2.0829 -1.0658
61256SOL     OW88578   7.918  10.848   8.840 -0.4294 -0.2737  0.6191
61256SOL    HW188579   7.944  10.764   8.878 -0.1386 -0.0557  0.9161
61256SOL    HW288580   7.988  10.908   8.867 -0.1020 -0.1601 -0.4541
61257SOL     OW88581   5.452   5.385   0.650 -0.3514  0.0209 -0.3073
61257SOL    HW188582   5.368   5.429   0.640 -0.1248  0.7204  0.7506
61257SOL    HW288583   5.514   5.454   0.672 -0.0827 -0.8444  1.8688
61258SOL     OW88584  11.444   9.165   3.616 -0.6399  0.2584  0.3545
61258SOL    HW188585  11.473   9.189   3.528  0.6686 -1.9568  0.1121
61258SOL    HW288586  11.442   9.069   3.616 -1.6068  0.2118  2.4433
61259SOL     OW88587   8.054   6.864   7.049 -0.6193  0.0037 -0.3582
61259SOL    HW188588   8.098   6.849   7.133 -2.4055  2.8010  1.2307
61259SOL    HW288589   7.969   6.822   7.058 -0.3186 -0.8931 -1.3951
61260SOL     OW88590   6.178   2.659   7.716 -0.5856 -0.3538  0.0714
61260SOL    HW188591   6.204   2.576   7.675  0.1719 -0.2913  0.4206
61260SOL    HW288592   6.159   2.717   7.642  1.7842  0.0898 -0.2592
61261SOL     OW88593   3.181   9.709   0.787 -0.3654  0.0675  0.3212
61261SOL    HW188594   3.144   9.700   0.699 -0.0541  0.1046  0.1853
61261SOL    HW288595   3.227   9.627   0.803  2.3752  1.2522 -0.8732
61262SOL     OW88596   6.838   6.981   6.907  0.2170  0.1937 -0.3914
61262SOL    HW188597   6.753   6.939   6.922  0.7977 -0.2200  2.2819
61262SOL    HW288598   6.823   7.073   6.931  0.5778  0.0540  0.3947
61263SOL     OW88599   6.007   8.797  11.770 -0.3009  0.4018  0.2342
61263SOL    HW188600   5.929   8.846  11.744 -0.9105 -0.3730  0.5653
61263SOL    HW288601   6.008   8.720  11.712 -1.3133 -1.0038  1.9866
61264SOL     OW88602   7.120   0.005   4.081  0.3731 -0.4112 -0.1443
61264SOL    HW188603   7.143  -0.088   4.087  1.7117 -0.0191  1.4448
61264SOL    HW288604   7.196   0.051   4.117 -0.4163  1.2924 -0.5590
61265SOL     OW88605  12.262   4.308   1.441 -0.0712  0.5222 -0.0951
61265SOL    HW188606  12.171   4.329   1.421 -0.7086 -0.8435  1.1783
61265SOL    HW288607  12.307   4.314   1.357 -1.3640  1.0259 -0.7865
61266SOL     OW88608   2.589  11.094   6.196  0.7984 -0.3503  0.1084
61266SOL    HW188609   2.641  11.151   6.252 -0.0024  0.1124  0.3876
61266SOL    HW288610   2.653  11.032   6.160  1.5282  0.1536  0.5052
61267SOL     OW88611   7.357   2.445   6.491  0.1576 -0.4895 -0.2818
61267SOL    HW188612   7.270   2.483   6.503 -0.1289 -1.5848  1.5708
61267SOL    HW288613   7.416   2.520   6.492 -0.7212  0.2342 -1.1163
61268SOL     OW88614  10.512   6.470  10.799 -0.7586  0.4703 -0.4138
61268SOL    HW188615  10.448   6.445  10.731 -0.5307  4.0328 -2.1567
61268SOL    HW288616  10.460   6.475  10.879 -1.9209 -0.0405 -1.0968
61269SOL     OW88617   5.031   9.703   1.465 -0.0008  0.4203  0.4941
61269SOL    HW188618   5.108   9.648   1.450 -0.5430 -0.6351  1.4426
61269SOL    HW288619   5.064   9.793   1.459  1.2734 -0.0112  0.7410
61270SOL     OW88620   7.201   6.368   4.153  0.2913 -0.3849  0.0380
61270SOL    HW188621   7.276   6.394   4.099  0.5924 -1.1639  0.0701
61270SOL    HW288622   7.221   6.405   4.239  0.9343 -1.0808  0.1984
61271SOL     OW88623  11.483   6.611   6.293  0.4737 -0.0970 -0.8087
61271SOL    HW188624  11.478   6.685   6.354  0.7305 -0.8692  0.1855
61271SOL    HW288625  11.554   6.557   6.327  1.1430 -0.1785 -2.2592
61272SOL     OW88626  11.084   4.937  10.590 -0.1208  0.3956  0.1823
61272SOL    HW188627  11.083   4.844  10.565  0.8705 -0.0019  1.5096
61272SOL    HW288628  11.113   4.937  10.681 -2.7289  1.8369  1.0988
61273SOL     OW88629   5.556   2.803   1.825  0.0722  0.1604 -0.2625
61273SOL    HW188630   5.524   2.847   1.746  0.9979 -0.0824 -0.7960
61273SOL    HW288631   5.639   2.847   1.844 -0.1355  0.1971  0.5602
61274SOL     OW88632  11.616   5.871  11.243  0.2019 -0.0309 -0.4325
61274SOL    HW188633  11.605   5.957  11.285  1.1205 -0.1157 -0.0020
61274SOL    HW288634  11.664   5.890  11.162  1.0473 -0.2122  0.0146
61275SOL     OW88635   1.498   1.700   1.758 -0.4621  0.3944 -0.4249
61275SOL    HW188636   1.472   1.625   1.812 -0.7413 -1.2117 -2.6592
61275SOL    HW288637   1.416   1.745   1.739 -0.3773  0.8936  0.3369
61276SOL     OW88638  11.468   3.087  12.589  0.2611  0.3803  0.0646
61276SOL    HW188639  11.410   3.015  12.566  0.2262 -0.2611  1.9686
61276SOL    HW288640  11.555   3.057  12.564  0.0149  0.5959 -1.1177
61277SOL     OW88641   5.455   8.421   4.356  0.1372 -0.3019  0.0898
61277SOL    HW188642   5.459   8.372   4.438 -2.7881  1.6457  1.6068
61277SOL    HW288643   5.539   8.465   4.350 -0.4503  1.6744  3.6763
61278SOL     OW88644   1.792   4.257  11.403  0.2733  0.1883 -0.2691
61278SOL    HW188645   1.752   4.343  11.392  1.2060  0.7470  0.5691
61278SOL    HW288646   1.759   4.225  11.487 -0.4731 -0.5113 -0.8130
61279SOL     OW88647   9.952   3.157  12.009 -0.0796  0.2344 -0.2434
61279SOL    HW188648  10.041   3.121  12.002  0.3855  0.4417  2.9988
61279SOL    HW288649   9.965   3.247  12.038 -1.3418  0.3469  0.0194
61280SOL     OW88650   0.208   3.371   6.441  0.4138 -0.2667  0.3267
61280SOL    HW188651   0.176   3.378   6.351  0.4329 -0.1578  0.3278
61280SOL    HW288652   0.204   3.461   6.475 -0.3262 -0.4289  0.6897
61281SOL     OW88653   4.156   4.911   3.965  0.2286  0.2416  0.2544
61281SOL    HW188654   4.132   4.830   4.010  0.7305 -1.3141 -2.1009
61281SOL    HW288655   4.243   4.933   3.999  0.3125 -0.5090  0.5385
61282SOL     OW88656   2.265   6.926   7.721  0.1415 -0.4156 -0.6687
61282SOL    HW188657   2.340   6.978   7.751 -0.5001 -0.6910  1.6083
61282SOL    HW288658   2.189   6.981   7.739 -0.4103 -1.3658 -0.0559
61283SOL     OW88659   8.089   9.534  12.576  0.3662  0.3756  0.0702
61283SOL    HW188660   8.018   9.474  12.553 -1.1846  2.4770 -1.0340
61283SOL    HW288661   8.048   9.596  12.638  1.4700  1.1281  0.0701
61284SOL     OW88662   6.205   2.013   5.570  0.5081 -0.5585  0.4668
61284SOL    HW188663   6.152   1.999   5.491 -0.4338 -0.6305  1.0979
61284SOL    HW288664   6.174   2.096   5.606  2.4319  0.6095 -0.3847
61285SOL     OW88665  10.675   8.022   0.293 -0.5051 -0.2600 -0.0986
61285SOL    HW188666  10.661   7.959   0.364 -1.1639 -0.9457 -0.8248
61285SOL    HW288667  10.767   8.049   0.303 -0.5402 -0.4746  0.9012
61286SOL     OW88668   7.533   9.270   9.697 -0.1295 -0.0818  0.3470
61286SOL    HW188669   7.567   9.255   9.785 -0.6362  0.1055  0.5771
61286SOL    HW288670   7.566   9.196   9.646  1.9612  0.8816  0.1676
61287SOL     OW88671   1.843   4.013   5.242 -0.0489  0.5978 -0.6976
61287SOL    HW188672   1.900   4.076   5.197 -0.0535  1.4618  0.4493
61287SOL    HW288673   1.832   4.050   5.329 -2.7110  0.6925 -0.9986
61288SOL     OW88674   7.854  12.435   5.517 -0.0568  0.2571 -0.4937
61288SOL    HW188675   7.768  12.407   5.550  0.2898 -0.0373  0.1842
61288SOL    HW288676   7.901  12.464   5.596  0.4921  0.3387 -0.8483
61289SOL     OW88677   9.228   8.329   4.923 -0.0404 -0.3245  0.2983
61289SOL    HW188678   9.282   8.407   4.923 -2.3128  1.3757 -0.9282
61289SOL    HW288679   9.210   8.312   5.015 -1.5184  2.1644  0.5534
61290SOL     OW88680  12.420   4.256   6.393  0.0232  0.0168 -0.0778
61290SOL    HW188681  12.345   4.197   6.398 -0.6335  0.6763 -1.4306
61290SOL    HW288682  12.390   4.328   6.338  2.3152 -0.7511 -2.5653
61291SOL     OW88683   5.037  12.117   6.123  0.2380 -0.3199 -0.6060
61291SOL    HW188684   5.061  12.024   6.119  0.8672 -0.3551  1.8974
61291SOL    HW288685   5.083  12.157   6.050  3.1241 -1.4244  0.4396
61292SOL     OW88686   1.528   8.078   0.302  0.0152  0.4934 -0.8746
61292SOL    HW188687   1.620   8.081   0.330  0.0267  5.5659 -0.5385
61292SOL    HW288688   1.532   8.065   0.208  0.6682 -3.4882 -0.4620
61293SOL     OW88689   2.928   6.152   9.812 -0.5987  0.1229 -0.0877
61293SOL    HW188690   2.946   6.152   9.718  0.4942  5.0839 -0.1818
61293SOL    HW288691   2.840   6.189   9.819 -0.3926  0.4612  0.8131
61294SOL     OW88692   8.650   6.364   7.871  0.1872  0.0189 -0.2677
61294SOL    HW188693   8.713   6.317   7.926 -0.5112 -0.6124  0.0165
61294SOL    HW288694   8.565   6.324   7.893 -0.3882  1.2044 -0.2514
61295SOL     OW88695   4.490   0.476   9.628  0.1297  0.3001  0.6051
61295SOL    HW188696   4.525   0.448   9.544  1.2791 -0.8437  1.4271
61295SOL    HW288697   4.395   0.467   9.619  0.1855  0.8506 -0.7705
61296SOL     OW88698   9.565  10.749   2.306 -0.4303  0.1437  0.0169
61296SOL    HW188699   9.582  10.667   2.260  0.1394  0.5875 -0.5748
61296SOL    HW288700   9.498  10.726   2.371 -0.6667 -0.6688 -0.4907
61297SOL     OW88701  12.333   3.401   0.391 -0.1139  0.4495  0.7273
61297SOL    HW188702  12.378   3.435   0.314  0.5353 -1.8637 -0.0071
61297SOL    HW288703  12.251   3.366   0.357  0.2423 -0.7171  0.9986
61298SOL     OW88704   1.095  12.531   6.074 -0.5305 -0.1656  0.3562
61298SOL    HW188705   1.099  12.439   6.100  0.7282 -1.0156 -2.3652
61298SOL    HW288706   1.175  12.544   6.022 -0.9113  2.3419  0.2782
61299SOL     OW88707   7.658   6.526   0.770  0.4089 -0.2309  0.5237
61299SOL    HW188708   7.705   6.499   0.849 -0.0344 -0.1286  0.8231
61299SOL    HW288709   7.566   6.522   0.794  0.3203  2.3789  0.8872
61300SOL     OW88710   0.050   7.727   5.548 -0.5658 -0.8088  0.1271
61300SOL    HW188711   0.134   7.710   5.504  1.4711  3.1332  1.9050
61300SOL    HW288712   0.031   7.646   5.595  1.2220 -2.4870 -1.8070
61301SOL     OW88713   2.916   1.817  11.873 -0.6543 -0.2317  0.2593
61301SOL    HW188714   2.924   1.723  11.854  1.4076 -0.3331  1.3298
61301SOL    HW288715   2.845   1.822  11.937 -0.7944 -1.0719  0.1855
61302SOL     OW88716   9.487   1.164   4.084 -0.1147 -0.1242  0.0152
61302SOL    HW188717   9.484   1.069   4.095 -1.6125 -0.1215 -0.0807
61302SOL    HW288718   9.407   1.195   4.128  0.7043  1.1552  0.6541
61303SOL     OW88719   1.796  10.873  11.238 -0.1920 -0.3327 -0.1704
61303SOL    HW188720   1.884  10.902  11.262 -0.4891  0.8369 -0.3962
61303SOL    HW288721   1.778  10.799  11.296  0.1695  0.6748  1.3077
61304SOL     OW88722   9.089   2.317  11.299 -0.6554  0.1343  0.6536
61304SOL    HW188723   9.160   2.364  11.254 -1.8223  1.6684  0.3183
61304SOL    HW288724   9.134   2.256  11.357  0.9596  1.1966  0.6007
61305SOL     OW88725   8.227   9.944   8.145 -0.4541 -0.3580 -0.6801
61305SOL    HW188726   8.209   9.880   8.214 -0.3223  0.3814  0.0465
61305SOL    HW288727   8.149   9.940   8.088 -0.9194 -0.4010 -0.0477
61306SOL     OW88728   9.671   9.529   2.618  0.5594 -0.2688 -0.5304
61306SOL    HW188729   9.666   9.528   2.714 -2.9255  0.4565 -0.5735
61306SOL    HW288730   9.708   9.615   2.597  1.2542 -0.3911  0.1543
61307SOL     OW88731  12.245   8.771   1.135  0.0755 -0.2642 -0.2886
61307SOL    HW188732  12.261   8.865   1.127  1.6679 -0.4933 -0.1258
61307SOL    HW288733  12.314   8.739   1.193 -0.6591 -1.4829 -0.0468
61308SOL     OW88734   0.621   2.098  11.485 -0.2036  0.1599 -0.0994
61308SOL    HW188735   0.670   2.179  11.489  0.5932 -0.2339 -1.3435
61308SOL    HW288736   0.529   2.124  11.496 -0.0999  1.4139 -1.8023
61309SOL     OW88737  10.352   6.665   5.346  0.2308 -0.3731 -0.4766
61309SOL    HW188738  10.437   6.703   5.368 -1.1611  2.6854  0.1074
61309SOL    HW288739  10.335   6.602   5.416  0.5067  1.6394  1.5256
61310SOL     OW88740   5.579   9.538   2.822  0.0009 -0.0154 -0.8149
61310SOL    HW188741   5.538   9.605   2.768  0.1138  2.7853  2.2676
61310SOL    HW288742   5.574   9.573   2.911 -0.3597 -4.3691  1.1313
61311SOL     OW88743   0.019   9.809   7.397  0.2026 -0.0153  0.3874
61311SOL    HW188744   0.083   9.840   7.461  0.5924  0.2861 -0.1397
61311SOL    HW288745  -0.064   9.809   7.444  0.2606  1.4506  0.5266
61312SOL     OW88746   8.666   0.652  11.019 -0.2562 -0.0308  0.4394
61312SOL    HW188747   8.618   0.687  11.093  0.9738  0.4968  1.0075
61312SOL    HW288748   8.601   0.646  10.949 -1.3291 -0.1277  1.4164
61313SOL     OW88749   2.538  10.694   9.588  0.1530 -0.1517  0.2163
61313SOL    HW188750   2.614  10.752   9.594  0.5337 -0.7497  1.5754
61313SOL    HW288751   2.475  10.731   9.650 -0.4433  0.0035 -0.4704
61314SOL     OW88752   7.476   9.692   8.930  0.1865  0.4152 -0.1124
61314SOL    HW188753   7.518   9.762   8.981 -1.1199  2.1748 -1.3230
61314SOL    HW288754   7.384   9.694   8.957 -0.0003 -0.3714 -0.6602
61315SOL     OW88755  10.376   3.852   6.134  0.0489 -0.2189  0.1820
61315SOL    HW188756  10.294   3.865   6.085  0.3217  0.7195 -0.0456
61315SOL    HW288757  10.427   3.932   6.117  0.3470 -0.0838  1.6346
61316SOL     OW88758   3.438  11.129   1.490 -0.3602 -0.3735  0.1964
61316SOL    HW188759   3.433  11.070   1.415 -1.2488 -0.4424  0.2921
61316SOL    HW288760   3.531  11.137   1.509 -0.1991 -1.2981 -0.1709
61317SOL     OW88761   5.681  11.116   0.671 -0.1981 -0.1594  0.0171
61317SOL    HW188762   5.662  11.132   0.764  1.2033 -0.0133  0.3072
61317SOL    HW288763   5.637  11.033   0.651 -0.1841 -0.3942  0.9193
61318SOL     OW88764   3.331   6.677   2.388  0.3852 -0.2024  0.0139
61318SOL    HW188765   3.322   6.644   2.298  0.2267 -0.1696  0.0176
61318SOL    HW288766   3.420   6.712   2.392 -0.0590  1.0604 -0.5456
61319SOL     OW88767   3.172   2.217   0.515 -0.7561  0.7157 -0.2921
61319SOL    HW188768   3.235   2.145   0.511 -0.1682  1.2699 -3.1819
61319SOL    HW288769   3.225   2.294   0.538 -1.1310  0.5374  1.2882
61320SOL     OW88770   7.058  10.200   8.822 -0.3664 -0.3969  0.2968
61320SOL    HW188771   6.983  10.242   8.780 -0.8142  0.2201  1.6316
61320SOL    HW288772   7.121  10.186   8.752 -0.9852  0.7995 -0.5269
61321SOL     OW88773   7.559   6.767  10.170 -0.0499  0.4256  0.4321
61321SOL    HW188774   7.627   6.791  10.107 -0.5237  1.0628  0.1512
61321SOL    HW288775   7.600   6.702  10.226 -0.3426 -2.1069 -2.0587
61322SOL     OW88776   7.295   5.840   5.639 -0.3649  0.2727 -0.2506
61322SOL    HW188777   7.334   5.897   5.706 -2.1677  1.8685 -0.4528
61322SOL    HW288778   7.359   5.838   5.569  1.0124 -0.4010  0.9653
61323SOL     OW88779   4.152  12.334   4.581 -0.3963 -0.0190  0.2959
61323SOL    HW188780   4.156  12.348   4.676  2.6272  1.6753  0.0369
61323SOL    HW288781   4.178  12.418   4.543  0.7887 -1.3116 -1.9484
61324SOL     OW88782  11.658   0.641  10.046  0.4741  0.3742 -0.0665
61324SOL    HW188783  11.646   0.735  10.035 -2.3800  0.1136  0.2443
61324SOL    HW288784  11.671   0.628  10.140 -2.0916  0.2590  0.3244
61325SOL     OW88785   1.168   4.444   2.136 -0.5825  0.7947  0.0336
61325SOL    HW188786   1.085   4.468   2.094 -0.4339 -0.5646 -1.1206
61325SOL    HW288787   1.154   4.355   2.166 -0.2142  1.2796  1.7526
61326SOL     OW88788   9.661   4.487  10.889  0.3794  0.3263  0.1073
61326SOL    HW188789   9.738   4.446  10.849 -0.6303 -2.8029  1.0807
61326SOL    HW288790   9.672   4.471  10.983 -0.0102  2.5517  0.5687
61327SOL     OW88791   7.700   9.974   8.146 -0.5971  0.0921 -0.2469
61327SOL    HW188792   7.696  10.006   8.236  0.8485 -1.7667  0.5479
61327SOL    HW288793   7.760   9.899   8.150 -2.1246 -1.3533 -2.3792
61328SOL     OW88794   6.280   3.592   3.759  0.1159  0.3682  0.0528
61328SOL    HW188795   6.360   3.606   3.810 -0.9238 -0.4915  2.0588
61328SOL    HW288796   6.221   3.660   3.789  0.3652  1.6365 -2.1689
61329SOL     OW88797   1.613   5.595   6.017 -0.3756 -0.2554 -0.6007
61329SOL    HW188798   1.560   5.572   5.941 -0.4271 -0.1177 -0.6067
61329SOL    HW288799   1.596   5.526   6.081  1.0098 -1.3615 -1.3545
61330SOL     OW88800   6.157   6.571   2.122 -0.3065 -0.4133  0.0787
61330SOL    HW188801   6.124   6.618   2.199 -0.1376  0.5719 -0.4408
61330SOL    HW288802   6.089   6.583   2.056 -0.3790 -1.1245  0.0173
61331SOL     OW88803   3.450   4.804  10.753  0.8278 -1.1824 -0.3461
61331SOL    HW188804   3.509   4.878  10.765 -1.8319  1.0054  0.1745
61331SOL    HW288805   3.383   4.815  10.820 -1.3829 -2.2439 -2.2158
61332SOL     OW88806  12.303  12.485  11.888  0.1175 -0.0062  0.2631
61332SOL    HW188807  12.388  12.518  11.858 -0.2177  1.4122  0.8129
61332SOL    HW288808  12.256  12.464  11.807  0.7263 -0.1357 -0.0661
61333SOL     OW88809   7.163   2.439   7.965  0.0592 -0.4965  0.0102
61333SOL    HW188810   7.146   2.503   7.896 -2.3556  0.9590  1.7930
61333SOL    HW288811   7.087   2.381   7.963  0.4391 -1.0366  0.8082
61334SOL     OW88812   8.375   1.683   0.711 -0.0363  0.0442  0.0262
61334SOL    HW188813   8.379   1.764   0.761 -0.6250 -1.3702  2.5919
61334SOL    HW288814   8.445   1.689   0.647  0.0677  2.4386  0.3012
61335SOL     OW88815   5.023   5.561   3.580 -0.1061 -0.1589  0.1602
61335SOL    HW188816   5.111   5.594   3.563 -0.1512  0.0911  0.4018
61335SOL    HW288817   5.030   5.467   3.566  0.1007 -0.0893 -0.2173
61336SOL     OW88818   0.940   3.903   5.510 -0.9932 -0.2960  0.6932
61336SOL    HW188819   1.002   3.833   5.531  0.1749  0.5617  0.2250
61336SOL    HW288820   0.991   3.966   5.458 -2.4871  0.0306 -0.4581
61337SOL     OW88821   6.932  12.052  11.469 -0.3927 -0.3413  0.6233
61337SOL    HW188822   6.934  12.009  11.383 -0.7604 -0.7774  0.8285
61337SOL    HW288823   6.917  12.144  11.449 -1.4067 -0.5710  0.2528
61338SOL     OW88824   0.731   3.394   2.637 -0.1433  0.3089 -0.5112
61338SOL    HW188825   0.683   3.327   2.589  1.6000 -1.0054 -0.5231
61338SOL    HW288826   0.815   3.353   2.658  0.1365  1.7303  1.4276
61339SOL     OW88827   8.884  11.174   3.549 -0.0474 -0.0304 -0.2450
61339SOL    HW188828   8.912  11.124   3.626  0.1759  0.4211 -0.0259
61339SOL    HW288829   8.788  11.172   3.553 -0.0384  0.0909  0.1217
61340SOL     OW88830   2.078   3.876   1.903 -0.0529  0.1710  0.2671
61340SOL    HW188831   1.992   3.898   1.867 -0.1880  0.6986  0.8911
61340SOL    HW288832   2.060   3.842   1.991  0.1699 -2.3360 -0.5757
61341SOL     OW88833   9.014   9.788   9.430  0.1974  0.3361  0.2907
61341SOL    HW188834   8.943   9.725   9.432 -1.6139  2.2280 -0.7368
61341SOL    HW288835   8.987   9.859   9.488 -0.0191  2.2469 -1.9650
61342SOL     OW88836   7.783   0.033  12.490 -0.9219  0.1725  0.7647
61342SOL    HW188837   7.707  -0.021  12.469 -1.7734  0.1456  3.5109
61342SOL    HW288838   7.858  -0.025  12.477 -1.6051 -0.7497  0.8326
61343SOL     OW88839   3.255   5.695   1.600 -0.4681 -0.0650 -0.8716
61343SOL    HW188840   3.310   5.720   1.674 -1.8118 -0.6954  0.4016
61343SOL    HW288841   3.286   5.749   1.528  2.8470 -1.4557 -0.6727
61344SOL     OW88842   7.305   4.001  10.808 -0.0718 -0.2639  0.0855
61344SOL    HW188843   7.240   4.045  10.862 -0.1572 -0.7576  0.3855
61344SOL    HW288844   7.388   4.043  10.831 -0.5819  2.5637 -2.4936
61345SOL     OW88845   4.030   1.472   7.595  0.0468  0.1865 -0.1271
61345SOL    HW188846   4.081   1.470   7.676  0.6182 -0.2395 -0.4916
61345SOL    HW288847   3.986   1.557   7.596  0.3236  0.3277  0.4602
61346SOL     OW88848   0.619  10.422   0.345 -0.1959 -0.3000  0.2989
61346SOL    HW188849   0.594  10.366   0.419 -0.2336 -0.9730 -0.2173
61346SOL    HW288850   0.644  10.361   0.276  0.4651  0.3369 -0.0329
61347SOL     OW88851   8.522   0.820   2.670 -0.1765 -0.3754  0.3581
61347SOL    HW188852   8.446   0.818   2.612 -0.2186  1.5033  0.2991
61347SOL    HW288853   8.597   0.811   2.611 -0.2155  1.5790 -0.0353
61348SOL     OW88854   2.817   1.556   1.082  0.3259  0.3493  0.9245
61348SOL    HW188855   2.792   1.593   0.997 -2.5580 -1.0162  1.0534
61348SOL    HW288856   2.805   1.628   1.143 -1.5499  0.2908  0.6726
61349SOL     OW88857   7.866  12.334   6.549 -0.0332  0.2596  0.0875
61349SOL    HW188858   7.918  12.407   6.584 -1.0316  1.3376 -0.5784
61349SOL    HW288859   7.796  12.377   6.500 -1.2920 -1.1531  0.5929
61350SOL     OW88860   2.018   2.799   4.014 -0.3326 -0.0269 -0.0549
61350SOL    HW188861   1.968   2.880   4.005 -1.7529 -0.8282  0.3112
61350SOL    HW288862   2.071   2.794   3.934  0.5219  1.7283  0.3582
61351SOL     OW88863   6.211  10.753   4.673  0.0735  0.1842  0.1946
61351SOL    HW188864   6.260  10.678   4.706  0.0799  0.6480  1.2946
61351SOL    HW288865   6.136  10.715   4.628  0.7302 -0.4990 -0.3531
61352SOL     OW88866   9.002   6.177   8.823  0.6657  0.4318 -0.1643
61352SOL    HW188867   8.909   6.199   8.822  0.5104 -0.1931 -0.0849
61352SOL    HW288868   9.046   6.256   8.793  0.0838  0.6085 -0.5702
61353SOL     OW88869  11.674   1.961   0.286 -0.3461 -0.3692 -0.0538
61353SOL    HW188870  11.724   1.936   0.209 -1.2739  0.6602 -1.0279
61353SOL    HW288871  11.720   2.036   0.322 -2.3608  2.1679 -2.3607
61354SOL     OW88872   9.373   1.033   0.426  0.0621  0.4050 -0.1607
61354SOL    HW188873   9.290   1.079   0.433 -0.2722 -0.0960 -0.7184
61354SOL    HW288874   9.365   0.960   0.487  0.0704  0.3340 -0.2432
61355SOL     OW88875  10.877   7.081   3.871 -0.0144 -0.0977  0.3264
61355SOL    HW188876  10.845   7.156   3.821 -1.0410  0.4368  1.6941
61355SOL    HW288877  10.847   7.005   3.822 -1.1135  0.4049  0.1837
61356SOL     OW88878   4.674   7.785   1.274 -0.0680  0.0993  0.6796
61356SOL    HW188879   4.741   7.776   1.206  1.4341  0.0670  2.0977
61356SOL    HW288880   4.631   7.699   1.276 -1.1220  0.5525 -1.1822
61357SOL     OW88881   7.836  12.298   2.537 -0.0572 -0.3871 -0.1632
61357SOL    HW188882   7.908  12.337   2.488 -0.0342  0.1089  0.2590
61357SOL    HW288883   7.837  12.206   2.512 -0.7519  0.0346 -1.9841
61358SOL     OW88884   8.080   2.931   3.559 -0.7097 -0.1143 -0.8775
61358SOL    HW188885   8.058   2.843   3.589  2.0120 -0.4180  0.5773
61358SOL    HW288886   8.103   2.978   3.639  1.9646  0.5717 -1.9473
61359SOL     OW88887   2.102   3.442   3.600  0.3877 -0.0957  0.4547
61359SOL    HW188888   2.161   3.507   3.639  2.5129 -1.7613  0.1899
61359SOL    HW288889   2.083   3.381   3.672 -0.6203  0.1265  0.3914
61360SOL     OW88890   0.750  10.281   4.967  0.1289 -0.5270  0.0340
61360SOL    HW188891   0.761  10.375   4.950 -1.5675 -0.4809 -1.0634
61360SOL    HW288892   0.812  10.238   4.908  0.2969 -0.1182 -0.0932
61361SOL     OW88893  10.827   2.667  11.912  0.4217  0.0686 -0.7148
61361SOL    HW188894  10.847   2.760  11.926  0.0302 -0.0179  0.5327
61361SOL    HW288895  10.752   2.650  11.969  0.4251 -0.9906 -1.0141
61362SOL     OW88896   1.412   3.345   7.573  0.3466  0.2914  0.4277
61362SOL    HW188897   1.318   3.334   7.591  0.7891 -3.0688  1.3372
61362SOL    HW288898   1.442   3.404   7.642 -0.8804  0.3931  0.9099
61363SOL     OW88899   7.797   8.432   4.849  0.3520 -0.0256  0.3400
61363SOL    HW188900   7.773   8.410   4.759 -1.7787  0.8763  0.6188
61363SOL    HW288901   7.856   8.507   4.840 -1.4359  1.3638 -0.2986
61364SOL     OW88902   8.020   7.376  10.837 -0.0914 -0.4337  0.5132
61364SOL    HW188903   7.958   7.416  10.898  1.5601  0.4003  1.7523
61364SOL    HW288904   7.999   7.283  10.838 -1.4372 -0.1491  0.7070
61365SOL     OW88905  10.162   4.613  10.248 -0.4206 -0.0483  0.1535
61365SOL    HW188906  10.123   4.682  10.195 -2.3025 -1.3305 -0.1965
61365SOL    HW288907  10.119   4.533  10.221  0.8733 -1.2287  1.3727
61366SOL     OW88908  11.174  10.672   5.663 -0.1320  0.1178 -0.6291
61366SOL    HW188909  11.208  10.621   5.590  0.1169  0.6931 -0.9202
61366SOL    HW288910  11.079  10.658   5.660 -0.2113  0.7673 -1.5551
61367SOL     OW88911   7.111   3.759   6.491  0.8437  0.7815  0.5535
61367SOL    HW188912   7.182   3.730   6.433 -0.1099 -0.5693  0.0041
61367SOL    HW288913   7.049   3.801   6.432  1.6470  2.9938  1.1840
61368SOL     OW88914   1.478   7.544   5.948 -0.1352 -0.1043 -0.4014
61368SOL    HW188915   1.502   7.628   5.988  3.4591  0.3270 -2.9642
61368SOL    HW288916   1.520   7.478   6.004  1.7999  0.2470 -1.3878
61369SOL     OW88917   3.789   3.506  11.234  0.4112 -0.0640 -0.2385
61369SOL    HW188918   3.727   3.558  11.184 -0.2004 -0.4762  0.0668
61369SOL    HW288919   3.822   3.440  11.173  0.9011  0.4368 -0.5231
61370SOL     OW88920   2.095   8.364   4.920 -0.5030 -0.0728 -0.1109
61370SOL    HW188921   2.073   8.417   4.997 -0.9067 -2.2682  1.3782
61370SOL    HW288922   2.104   8.428   4.849  0.3086  2.1115  1.8047
61371SOL     OW88923   7.925   9.655   4.455  0.2328  0.0528 -0.1464
61371SOL    HW188924   7.877   9.621   4.380  0.6355 -1.3341  0.1947
61371SOL    HW288925   7.871   9.630   4.531  1.0647 -0.8078  0.1826
61372SOL     OW88926   9.635   2.829  10.525  0.7957 -0.3900  0.3239
61372SOL    HW188927   9.717   2.781  10.536  0.6215 -1.1805 -1.4841
61372SOL    HW288928   9.567   2.765  10.545  0.5513  0.5764  2.9907
61373SOL     OW88929   5.372  12.330  10.161  0.4693 -0.2909  0.3312
61373SOL    HW188930   5.454  12.320  10.113 -0.6330 -0.4945 -1.5910
61373SOL    HW288931   5.348  12.422  10.149 -0.6210 -0.7100 -0.9464
61374SOL     OW88932   8.117  10.625   7.020 -0.4895  0.1358  0.0128
61374SOL    HW188933   8.054  10.576   6.967  1.2811 -0.7484 -1.3586
61374SOL    HW288934   8.076  10.711   7.032 -1.0105  0.3600 -2.7819
61375SOL     OW88935  11.711   8.255  12.090 -0.4472  0.0149 -0.0009
61375SOL    HW188936  11.753   8.179  12.051  0.1066 -0.6238  1.7136
61375SOL    HW288937  11.646   8.284  12.025 -1.8204 -2.9156 -0.0799
61376SOL     OW88938   0.833   3.893  10.068  0.2703  0.1116  0.1441
61376SOL    HW188939   0.783   3.927   9.993  2.4178 -2.3639 -2.6891
61376SOL    HW288940   0.777   3.824  10.103 -0.4540  0.8078  0.3911
61377SOL     OW88941   4.893   8.862  10.207 -0.3295 -0.1488 -0.2206
61377SOL    HW188942   4.961   8.795  10.201 -0.5926 -0.7874  2.4902
61377SOL    HW288943   4.940   8.945  10.204  0.3624 -0.5391 -0.4057
61378SOL     OW88944   3.445   0.679   8.581  0.4646 -0.6432 -0.2823
61378SOL    HW188945   3.410   0.599   8.542  0.6656 -0.9906  0.2412
61378SOL    HW288946   3.511   0.709   8.519  0.3744 -0.8716 -0.4904
61379SOL     OW88947  11.188   6.896  12.249  0.0979  0.0715  0.0868
61379SOL    HW188948  11.132   6.877  12.324 -1.9442 -0.5796 -1.5001
61379SOL    HW288949  11.208   6.989  12.258  0.7087 -0.1838  1.8993
61380SOL     OW88950   6.841   5.593   8.486 -0.3387 -0.0498  0.2013
61380SOL    HW188951   6.818   5.503   8.508 -0.9598  0.3073  1.0323
61380SOL    HW288952   6.857   5.635   8.570  0.6760  0.4372 -0.2148
61381SOL     OW88953   6.462  10.571   2.446 -0.0930  0.1405  0.2021
61381SOL    HW188954   6.504  10.553   2.363  2.6345  0.9055  1.3123
61381SOL    HW288955   6.460  10.486   2.491  0.1160  0.0681  0.0739
61382SOL     OW88956   3.747   4.486  11.389 -0.0311  0.5117 -0.2449
61382SOL    HW188957   3.694   4.411  11.415 -0.7039  0.7311 -0.9370
61382SOL    HW288958   3.727   4.553  11.455 -1.2392  0.8545 -0.9177
61383SOL     OW88959  11.435  12.294   7.085  0.0841 -0.3410 -0.4229
61383SOL    HW188960  11.354  12.341   7.065  1.7336  2.0253 -2.1442
61383SOL    HW288961  11.470  12.338   7.162 -0.0754 -1.0926  0.0814
61384SOL     OW88962   9.961   4.921  12.504  0.0080  0.1731 -0.8412
61384SOL    HW188963  10.003   4.864  12.569  0.9464  0.5376 -1.1138
61384SOL    HW288964   9.876   4.879  12.487 -0.1600 -0.0468  0.4459
61385SOL     OW88965   2.237   5.822   6.385  0.4659 -0.2338  0.0951
61385SOL    HW188966   2.226   5.729   6.405 -0.5203  0.1915  1.6947
61385SOL    HW288967   2.152   5.850   6.351  0.5875  0.2105  0.1531
61386SOL     OW88968   1.049  12.476  11.781  0.2527 -0.1600 -0.4941
61386SOL    HW188969   0.983  12.518  11.725 -0.4444 -1.6785 -0.8597
61386SOL    HW288970   1.127  12.471  11.726  0.6970  1.5972 -0.0785
61387SOL     OW88971   2.035   1.531   7.042 -1.0453  0.4471  0.5958
61387SOL    HW188972   2.021   1.571   7.128 -0.2952  2.4274 -0.1302
61387SOL    HW288973   2.125   1.553   7.020 -0.7059 -1.4205 -0.0451
61388SOL     OW88974   1.309   0.136   3.661  0.6814  0.2782  0.0419
61388SOL    HW188975   1.264   0.092   3.589 -0.1782 -1.4182  1.5259
61388SOL    HW288976   1.402   0.122   3.644  0.4564 -1.0449 -0.2169
61389SOL     OW88977   5.288  10.937  11.159  0.2980 -0.3317 -0.2718
61389SOL    HW188978   5.351  10.892  11.214  1.4549 -0.9660 -2.0189
61389SOL    HW288979   5.256  11.009  11.212  0.8690 -1.2774  1.4271
61390SOL     OW88980   9.625   7.767   0.577  0.1682  0.1101  0.0820
61390SOL    HW188981   9.687   7.696   0.589  0.0095 -0.2701 -1.2420
61390SOL    HW288982   9.540   7.728   0.598  0.2859  0.4973  1.3995
61391SOL     OW88983   2.797   4.851   1.754  0.3080 -0.2556  0.0891
61391SOL    HW188984   2.862   4.867   1.685  0.8215  1.2704  0.8621
61391SOL    HW288985   2.850   4.841   1.833 -0.2931 -1.6414  0.3357
61392SOL     OW88986   7.128  11.268   6.821 -0.5043 -0.0405 -0.1443
61392SOL    HW188987   7.120  11.235   6.732 -1.1010 -0.7286  0.1510
61392SOL    HW288988   7.083  11.202   6.875  1.2365 -0.4621  0.8549
61393SOL     OW88989   4.593  11.915   6.954  0.6697  0.9045  0.5383
61393SOL    HW188990   4.555  11.865   6.882 -0.0399 -0.1683  1.6310
61393SOL    HW288991   4.646  11.982   6.911 -0.0637  0.5465 -0.9827
61394SOL     OW88992   2.881   3.729   1.675 -0.6006  0.5701  0.2876
61394SOL    HW188993   2.891   3.815   1.717  0.5253 -0.0116  1.2698
61394SOL    HW288994   2.967   3.689   1.681 -1.2391 -0.8608  0.3519
61395SOL     OW88995   9.884  10.488   9.501 -0.0229 -0.1503  0.1331
61395SOL    HW188996   9.944  10.428   9.545 -0.2248 -0.8334 -0.5032
61395SOL    HW288997   9.797  10.451   9.516 -0.4001  1.2354  1.6928
61396SOL     OW88998   6.333   9.412   0.388  0.0687  0.0717  0.7250
61396SOL    HW188999   6.333   9.317   0.398 -0.4360 -0.0893 -0.6243
61396SOL    HW289000   6.369   9.427   0.301 -0.9601  1.0479  0.4379
61397SOL     OW89001  11.695   6.521   2.513 -0.3140  0.2043 -0.2566
61397SOL    HW189002  11.636   6.486   2.447 -1.1850  0.0605  0.5681
61397SOL    HW289003  11.645   6.515   2.595  0.3854  1.2396  0.2631
61398SOL     OW89004   5.809   5.733   3.412 -0.3631 -0.1802  0.3745
61398SOL    HW189005   5.775   5.646   3.393  0.1737 -0.0893 -1.1221
61398SOL    HW289006   5.902   5.728   3.391 -0.0385  0.4000  1.5651
61399SOL     OW89007   9.828   4.324   8.980  0.0166  0.2389 -0.5721
61399SOL    HW189008   9.891   4.343   8.910 -0.6944 -0.8159 -1.5398
61399SOL    HW289009   9.879   4.280   9.048  0.8540  1.8815 -0.0966
61400SOL     OW89010   4.364  10.352  12.342 -0.2819 -0.0581  0.2777
61400SOL    HW189011   4.426  10.415  12.305 -0.7570  1.5026  1.9964
61400SOL    HW289012   4.369  10.276  12.284  2.6210  0.3207 -0.1095
61401SOL     OW89013   7.640  11.287   4.706  0.3704  0.1478  0.3630
61401SOL    HW189014   7.644  11.221   4.637  2.0851  1.6433 -1.0685
61401SOL    HW289015   7.652  11.237   4.787  0.2109 -1.4420 -0.5507
61402SOL     OW89016   8.241   7.278   2.177  0.2260  0.2072  0.0390
61402SOL    HW189017   8.169   7.220   2.153  1.1245 -1.0060  0.1956
61402SOL    HW289018   8.261   7.254   2.268  1.3752 -0.0695 -0.2752
61403SOL     OW89019   3.897   7.681   1.681  0.0010  0.0890  0.0239
61403SOL    HW189020   3.921   7.605   1.734 -1.0173  0.2985  0.8135
61403SOL    HW289021   3.980   7.727   1.666  0.9036 -2.0235 -1.8827
61404SOL     OW89022   6.510   9.975   6.861  0.4580  0.3097  0.3544
61404SOL    HW189023   6.493  10.059   6.904  2.1639  0.6259  0.4807
61404SOL    HW289024   6.604   9.975   6.844  0.0728 -0.3894 -2.2102
61405SOL     OW89025   7.919   9.242   5.080 -0.1939  0.1217  0.6623
61405SOL    HW189026   7.981   9.308   5.112 -1.0220  1.3902 -0.2585
61405SOL    HW289027   7.839   9.290   5.063 -0.6052 -0.9830 -0.7357
61406SOL     OW89028   2.336   8.840   1.382 -0.5848 -0.1302 -0.3290
61406SOL    HW189029   2.363   8.749   1.395 -0.3806 -0.1071 -0.5772
61406SOL    HW289030   2.352   8.882   1.466  0.4620 -0.0466 -0.5505
61407SOL     OW89031   0.942   6.547   3.035 -0.3258  0.1498  0.1062
61407SOL    HW189032   0.911   6.477   2.977 -0.0974 -0.2041  0.4025
61407SOL    HW289033   0.862   6.580   3.077 -0.1724 -2.6409  2.9807
61408SOL     OW89034   5.321   8.770   3.768 -0.3334 -0.6116 -0.9615
61408SOL    HW189035   5.412   8.795   3.782 -0.9804  0.3151  2.5426
61408SOL    HW289036   5.286   8.836   3.709  0.8271  0.0376 -0.9426
61409SOL     OW89037   0.367   1.080   1.663 -0.2531 -0.0332  0.1995
61409SOL    HW189038   0.458   1.092   1.691  0.2244 -0.7484 -0.9882
61409SOL    HW289039   0.338   1.168   1.638  0.9938 -0.1357 -1.8823
61410SOL     OW89040   1.685   3.689   3.920  0.1783  0.4187  0.2131
61410SOL    HW189041   1.753   3.733   3.970  2.4930 -1.2738 -1.2089
61410SOL    HW289042   1.708   3.596   3.927 -2.1896 -0.2376 -0.1117
61411SOL     OW89043  10.714   6.615   8.496  0.0534 -0.0471  0.2186
61411SOL    HW189044  10.636   6.561   8.481  0.2850 -0.7756  1.4857
61411SOL    HW289045  10.774   6.592   8.426 -1.7369  2.3499 -2.3261
61412SOL     OW89046   5.011   0.238   4.349  0.4829  0.1294  0.9880
61412SOL    HW189047   4.958   0.309   4.386 -1.1301 -0.2410 -0.4648
61412SOL    HW289048   4.959   0.159   4.367 -0.1530 -0.1106 -1.5451
61413SOL     OW89049   4.664   5.115   3.074 -0.2074 -0.3219  0.4897
61413SOL    HW189050   4.590   5.162   3.036  1.2101  1.4497 -0.2336
61413SOL    HW289051   4.628   5.074   3.152 -1.5949  1.9409  1.1530
61414SOL     OW89052   6.922   0.834   8.405  0.1928 -0.3852 -0.2355
61414SOL    HW189053   6.943   0.877   8.322  1.6022  0.7349  0.6573
61414SOL    HW289054   6.935   0.902   8.471 -2.3685 -0.7966  0.8230
61415SOL     OW89055  11.635   3.847   6.237  0.0398 -0.2034  0.2768
61415SOL    HW189056  11.724   3.842   6.273 -0.0431 -0.4282  0.4528
61415SOL    HW289057  11.646   3.882   6.149  0.2651  0.1719  0.4521
61416SOL     OW89058   7.165   7.072   5.263  0.7818 -0.5942  0.1376
61416SOL    HW189059   7.199   6.986   5.239  0.9443 -0.2540 -0.9071
61416SOL    HW289060   7.085   7.082   5.210 -1.0173 -1.3881  2.5461
61417SOL     OW89061   1.288  10.844   9.781 -0.1460 -0.2972  0.1790
61417SOL    HW189062   1.297  10.823   9.873 -1.6682  0.3639  0.5095
61417SOL    HW289063   1.214  10.904   9.777 -1.7930 -2.3051 -1.7596
61418SOL     OW89064   5.238   1.575   9.022 -0.0111  0.0514  0.6816
61418SOL    HW189065   5.165   1.545   9.076 -0.2625 -0.0246  0.3056
61418SOL    HW289066   5.252   1.504   8.959 -1.7279  1.3618 -1.3221
61419SOL     OW89067   0.597   6.633   5.673  0.2382 -0.3662  0.3903
61419SOL    HW189068   0.636   6.668   5.753  0.0928 -1.5667  1.0178
61419SOL    HW289069   0.519   6.586   5.703  0.4334 -1.2304 -0.3948
61420SOL     OW89070   9.934   6.580   8.295 -0.4435  0.1545  0.2920
61420SOL    HW189071   9.899   6.499   8.332 -0.8682 -1.0228 -2.4447
61420SOL    HW289072   9.900   6.649   8.352 -2.0176 -1.4059  1.3468
61421SOL     OW89073  10.898   7.007   7.425  0.5654 -0.0347 -0.2621
61421SOL    HW189074  10.919   7.013   7.332  0.2972 -1.1138 -0.4125
61421SOL    HW289075  10.938   6.925   7.453  1.6440  0.8420  0.8676
61422SOL     OW89076  10.914   0.352   8.933 -0.0830 -0.2457  0.3134
61422SOL    HW189077  10.964   0.283   8.890 -1.3552 -0.1763 -1.3829
61422SOL    HW289078  10.827   0.315   8.944 -0.1617  0.2713  1.5560
61423SOL     OW89079   0.519   7.231   2.572 -0.0151  0.1205 -0.2893
61423SOL    HW189080   0.449   7.280   2.530 -1.2629 -1.2876  0.0495
61423SOL    HW289081   0.577   7.205   2.501  0.7978  2.1959 -0.4509
61424SOL     OW89082   5.417   1.833   3.147 -0.0699 -0.5180 -0.0927
61424SOL    HW189083   5.455   1.902   3.203  0.3178 -1.0377  0.2939
61424SOL    HW289084   5.483   1.818   3.080 -0.0799 -0.6291 -0.0776
61425SOL     OW89085   0.069   6.544   3.551  0.1138  0.4337  0.3341
61425SOL    HW189086   0.071   6.587   3.465 -1.6354 -0.1178 -0.0233
61425SOL    HW289087   0.157   6.557   3.586  0.3513  2.2004 -0.7834
61426SOL     OW89088  11.216  10.376   8.348 -0.1249  0.0929 -0.4011
61426SOL    HW189089  11.302  10.374   8.308 -0.1298 -0.1061 -0.4005
61426SOL    HW289090  11.155  10.386   8.275 -0.2362 -1.6916 -0.5981
61427SOL     OW89091  10.146   5.687   5.289  0.1241 -0.1644 -0.3739
61427SOL    HW189092  10.069   5.643   5.327 -0.3991  0.7678 -0.3363
61427SOL    HW289093  10.115   5.775   5.268  1.2369  0.2729 -0.2096
61428SOL     OW89094   1.596   4.189   4.354 -0.1140  0.2480  0.7289
61428SOL    HW189095   1.534   4.143   4.410  1.7371 -3.2710  0.1715
61428SOL    HW289096   1.556   4.187   4.267  0.6017 -1.9222  0.3908
61429SOL     OW89097   4.471   6.499   7.184 -0.7693  0.1147  0.6538
61429SOL    HW189098   4.531   6.461   7.120 -1.6362 -1.3307  0.6741
61429SOL    HW289099   4.523   6.504   7.265 -0.5413 -0.7469  0.5703
61430SOL     OW89100   5.851   6.542  10.505  0.0601 -0.3240 -0.4635
61430SOL    HW189101   5.902   6.513  10.429  0.4198 -0.5884 -0.1259
61430SOL    HW289102   5.908   6.525  10.580 -0.3603 -0.2279 -0.1176
61431SOL     OW89103   5.644   1.714   8.460 -0.3635  0.6905  0.9254
61431SOL    HW189104   5.578   1.688   8.524 -0.4543 -0.8993  0.2251
61431SOL    HW289105   5.635   1.809   8.454 -0.7216  0.8103  2.8375
61432SOL     OW89106   2.373   6.226   4.719  0.1010  0.0782 -0.1535
61432SOL    HW189107   2.338   6.138   4.728 -1.8389  0.8617  0.5558
61432SOL    HW289108   2.432   6.221   4.643 -1.1284 -1.4657 -1.0584
61433SOL     OW89109   9.173   1.081  11.289 -0.3950  0.3442  0.0883
61433SOL    HW189110   9.159   1.137  11.366  1.1578  0.9055  0.0026
61433SOL    HW289111   9.130   1.128  11.217  0.1662  1.0226  0.1830
61434SOL     OW89112   9.578   1.591  11.685 -0.0812  0.0087  0.0320
61434SOL    HW189113   9.610   1.577  11.596 -0.5893 -1.1118  0.0052
61434SOL    HW289114   9.493   1.548  11.687  0.9533 -2.2292  1.7227
61435SOL     OW89115  10.246  12.016  11.451  0.6014 -0.3633 -0.1885
61435SOL    HW189116  10.204  12.056  11.375 -1.3127  0.0160  1.0023
61435SOL    HW289117  10.273  11.929  11.420  0.7269  0.1327 -1.5493
61436SOL     OW89118   2.655   1.133   1.109  0.2638  0.0940  0.0344
61436SOL    HW189119   2.713   1.082   1.165  1.2940 -1.8229 -2.5459
61436SOL    HW289120   2.711   1.201   1.071  0.6827 -1.0992 -1.6316
61437SOL     OW89121   4.004   1.647   9.200  0.0075 -0.8173 -0.5201
61437SOL    HW189122   4.097   1.654   9.222 -0.7010 -1.4820  3.4890
61437SOL    HW289123   3.975   1.569   9.248 -2.8401  0.0067 -0.7677
61438SOL     OW89124   8.058   7.639   9.359  0.1510 -0.2278  0.2301
61438SOL    HW189125   8.033   7.728   9.381 -1.1526 -0.3732 -0.5381
61438SOL    HW289126   8.085   7.600   9.442 -1.4405  0.2061  0.9965
61439SOL     OW89127   3.152   2.750   3.972 -0.2463  0.2666  0.4194
61439SOL    HW189128   3.245   2.727   3.965  0.4923  2.4290  1.9245
61439SOL    HW289129   3.106   2.666   3.976  1.8324 -0.8974  1.6118
61440SOL     OW89130   4.142   0.668   9.812  0.5214 -0.0148  0.0744
61440SOL    HW189131   4.076   0.608   9.779  1.3782 -2.1300  1.9489
61440SOL    HW289132   4.153   0.733   9.742 -1.2179 -1.4046 -1.5869
61441SOL     OW89133   0.470  11.758   8.876 -0.4504 -0.2410  0.1271
61441SOL    HW189134   0.437  11.789   8.961  0.0156  0.6594 -0.0138
61441SOL    HW289135   0.392  11.743   8.823 -0.6828  0.6750  0.2075
61442SOL     OW89136   6.973   0.941   0.322  0.1344 -0.0696 -0.1196
61442SOL    HW189137   7.008   0.857   0.353  1.4910  0.8803  1.0695
61442SOL    HW289138   7.039   0.973   0.260  0.1910  0.6253  0.2881
61443SOL     OW89139   6.020  10.195   1.243 -0.6238 -0.3513 -0.1110
61443SOL    HW189140   6.099  10.245   1.220 -0.5939 -0.3059  0.0888
61443SOL    HW289141   6.008  10.135   1.170 -0.1305 -0.6898  0.0816
61444SOL     OW89142   0.125   3.475   2.713  0.1334 -0.1115  0.3669
61444SOL    HW189143   0.131   3.411   2.642 -0.0861  0.0491  0.1987
61444SOL    HW289144   0.078   3.430   2.783 -1.8447  0.4918 -0.5024
61445SOL     OW89145   1.660   0.152   0.625  0.0612 -0.1937  0.0274
61445SOL    HW189146   1.634   0.066   0.660  0.0813  0.4983  1.8729
61445SOL    HW289147   1.700   0.132   0.541  1.6567 -2.2146  1.1693
61446SOL     OW89148   1.895   5.548  11.699 -0.5070  0.1649 -0.2139
61446SOL    HW189149   1.885   5.535  11.604 -1.5345 -1.6690  0.1071
61446SOL    HW289150   1.811   5.521  11.736 -0.6478  2.2474  1.1352
61447SOL     OW89151   2.679   6.866   4.330  0.5543  0.1449 -0.4077
61447SOL    HW189152   2.608   6.802   4.335 -0.4968  1.2839 -0.5386
61447SOL    HW289153   2.758   6.812   4.321 -0.1512 -1.1839  0.8327
61448SOL     OW89154  10.824   3.896   3.024  0.0746 -0.2273  0.6605
61448SOL    HW189155  10.749   3.842   3.048 -0.2232 -0.4699 -0.7048
61448SOL    HW289156  10.896   3.865   3.079  0.0701 -2.4522 -0.4764
61449SOL     OW89157   8.082   8.705   6.864  0.3376 -0.5254  0.0712
61449SOL    HW189158   8.096   8.668   6.776  1.2567 -0.2231  0.0811
61449SOL    HW289159   8.093   8.631   6.923  2.3238 -0.2498  0.1010
61450SOL     OW89160   9.382  11.073   5.752 -0.2565 -0.2343  0.2889
61450SOL    HW189161   9.361  11.003   5.690  1.3887 -0.1707 -0.3729
61450SOL    HW289162   9.369  11.033   5.838 -1.5968 -0.6255 -0.0673
61451SOL     OW89163  10.032   7.085   6.960  0.2483 -0.3730  0.7340
61451SOL    HW189164   9.963   7.023   6.984 -0.7264  0.1378 -0.6100
61451SOL    HW289165   9.987   7.169   6.951  1.0199 -0.0405 -0.2528
61452SOL     OW89166  11.711   9.419   8.933  0.3217  0.0468 -0.3345
61452SOL    HW189167  11.789   9.410   8.988  0.4874 -0.5752 -0.6711
61452SOL    HW289168  11.725   9.502   8.887  0.4546  0.2851  0.1203
61453SOL     OW89169  11.484   9.547   4.436 -0.1460 -0.5016 -0.6528
61453SOL    HW189170  11.399   9.518   4.468 -0.3261 -0.9809 -1.5279
61453SOL    HW289171  11.522   9.470   4.393  1.3939 -0.7282  1.0053
61454SOL     OW89172   8.681   5.702   2.716 -0.7942 -0.7133  0.0813
61454SOL    HW189173   8.606   5.683   2.772 -1.5569 -0.6833 -0.9132
61454SOL    HW289174   8.671   5.794   2.692  0.7954 -0.0277  1.7342
61455SOL     OW89175   1.249   6.047   9.515 -0.4884 -0.1831  0.1387
61455SOL    HW189176   1.235   6.118   9.578 -4.0454 -1.5241  1.0450
61455SOL    HW289177   1.221   6.084   9.431 -2.5535 -0.4934  0.6478
61456SOL     OW89178   3.053   1.302  11.154  0.0466  0.1385  0.2191
61456SOL    HW189179   3.001   1.347  11.222  0.6931 -0.1900  0.9500
61456SOL    HW289180   3.027   1.344  11.072  0.3341  1.5726  0.8381
61457SOL     OW89181  10.877   7.938   6.673 -0.0293 -0.1744  0.4582
61457SOL    HW189182  10.821   7.877   6.721  1.5683 -2.6500 -0.5960
61457SOL    HW289183  10.887   7.897   6.587  0.9213  1.7682 -0.4067
61458SOL     OW89184  11.474   2.518  12.377 -0.3542  0.0120  0.1653
61458SOL    HW189185  11.522   2.456  12.322 -1.0896  1.1078 -1.8364
61458SOL    HW289186  11.435   2.465  12.445 -0.3754 -1.6246 -1.0545
61459SOL     OW89187   8.874   5.569   4.451  0.1327  0.5534  0.1874
61459SOL    HW189188   8.919   5.621   4.518 -0.3445  1.2989 -0.0516
61459SOL    HW289189   8.796   5.621   4.430  1.0516  1.1396 -2.0626
61460SOL     OW89190   4.445   6.942  11.358 -0.1037 -0.3168 -0.2197
61460SOL    HW189191   4.493   6.973  11.282  1.3671 -0.0663  0.7884
61460SOL    HW289192   4.356   6.927  11.325  0.2377  0.7718 -1.7287
61461SOL     OW89193   1.163  10.084   5.252 -0.5391  0.2866  0.0797
61461SOL    HW189194   1.071  10.061   5.263 -0.4357 -0.3549 -0.3661
61461SOL    HW289195   1.174  10.094   5.158 -0.3424  1.1894  0.1932
61462SOL     OW89196   4.970   9.184  11.781 -0.0665  0.3129  1.2920
61462SOL    HW189197   4.965   9.267  11.733  0.9102  1.3098  2.8367
61462SOL    HW289198   4.882   9.170  11.814 -0.7850 -0.4243 -0.7381
61463SOL     OW89199   9.732   9.569   0.498  0.0879 -0.5011 -0.0042
61463SOL    HW189200   9.720   9.592   0.405 -0.2275  0.1220  0.1895
61463SOL    HW289201   9.741   9.473   0.497  1.5218 -0.4070 -0.8393
61464SOL     OW89202   1.204   2.905   7.283 -0.3861  0.1673  0.1098
61464SOL    HW189203   1.158   2.882   7.202 -1.2606 -0.4008  0.7421
61464SOL    HW289204   1.295   2.883   7.266 -0.9324 -2.4890  0.1465
61465SOL     OW89205   5.452   1.651   2.178  0.3404 -0.0016  0.3634
61465SOL    HW189206   5.488   1.624   2.094 -0.1300 -0.3128  0.2625
61465SOL    HW289207   5.501   1.730   2.200  0.5118  0.0467 -0.1730
61466SOL     OW89208   6.161  11.646   3.082 -0.6009 -0.1448 -0.3759
61466SOL    HW189209   6.241  11.668   3.131 -0.6280  0.2838 -0.5254
61466SOL    HW289210   6.193  11.594   3.008 -0.4230  0.3181 -0.6262
61467SOL     OW89211   4.301  12.554  10.941  0.1203 -0.0271 -0.5664
61467SOL    HW189212   4.329  12.646  10.945  4.8175 -1.2780  0.1181
61467SOL    HW289213   4.226  12.550  11.001 -0.2889  3.2828 -0.6390
61468SOL     OW89214  11.639   3.708   2.152  0.5689  0.2121  0.8846
61468SOL    HW189215  11.692   3.773   2.105 -0.1955 -0.3512 -0.8314
61468SOL    HW289216  11.692   3.629   2.151  0.6744  0.2755  1.2529
61469SOL     OW89217   7.170   1.016   0.137 -0.0928 -0.0901  0.2704
61469SOL    HW189218   7.206   1.104   0.125  0.5282 -0.2925  0.6068
61469SOL    HW289219   7.199   0.968   0.059 -0.6719  0.0759 -0.0524
61470SOL     OW89220   9.006   2.554   8.707 -0.2555  0.0424 -0.1399
61470SOL    HW189221   9.033   2.501   8.782  1.0237 -1.2719 -1.4711
61470SOL    HW289222   9.066   2.629   8.708 -0.7267  0.4163  0.5639
61471SOL     OW89223   5.850   6.774   1.874 -0.3987  0.1299 -0.1895
61471SOL    HW189224   5.778   6.829   1.843 -0.0965  0.8387  0.3225
61471SOL    HW289225   5.917   6.781   1.806 -0.2199  0.6971  0.0358
61472SOL     OW89226   7.971   4.080   7.468  0.2757  0.1736 -0.2177
61472SOL    HW189227   7.941   4.098   7.379 -2.2328  0.7228  0.6737
61472SOL    HW289228   7.903   4.116   7.524  0.8348 -1.8395  1.9078
61473SOL     OW89229   5.098   9.283   4.350 -0.2709 -0.2759 -0.3824
61473SOL    HW189230   5.190   9.299   4.334 -0.0559 -0.5977  0.4661
61473SOL    HW289231   5.052   9.336   4.285  0.5164 -0.5821 -1.2114
61474SOL     OW89232   5.415   5.687  10.957  0.1158 -0.5091 -0.0648
61474SOL    HW189233   5.345   5.636  10.916 -1.2531  0.9531  0.3487
61474SOL    HW289234   5.388   5.779  10.946  2.4504  0.1798 -0.7471
61475SOL     OW89235  12.098   6.194   0.786 -0.2671 -0.3439 -0.1130
61475SOL    HW189236  12.030   6.127   0.778 -2.4563  1.8637 -1.2302
61475SOL    HW289237  12.158   6.176   0.713  0.3169 -2.1591  0.7358
61476SOL     OW89238   1.634  10.344  10.411  0.0351 -0.0910  0.1778
61476SOL    HW189239   1.597  10.313  10.494  0.2225 -1.4738 -0.2371
61476SOL    HW289240   1.676  10.267  10.373 -1.3364  0.1135 -1.9246
61477SOL     OW89241   9.537   1.338   8.216  0.1023 -0.4084 -0.4242
61477SOL    HW189242   9.585   1.397   8.274  1.3578  0.2110 -2.0480
61477SOL    HW289243   9.569   1.358   8.128 -1.8543 -1.2258 -1.3787
61478SOL     OW89244   2.585   2.886  11.978 -0.2946  1.3137  0.4544
61478SOL    HW189245   2.562   2.966  11.931 -1.7566  0.2573 -0.7248
61478SOL    HW289246   2.502   2.840  11.989  0.8448 -1.6694 -1.9884
61479SOL     OW89247  12.145   8.004  11.587 -0.0041 -0.4703  0.1078
61479SOL    HW189248  12.237   7.996  11.559 -0.0388 -2.1277  0.3425
61479SOL    HW289249  12.120   8.093  11.562  1.3253 -0.3705 -1.0043
61480SOL     OW89250   7.611   8.635   8.035 -0.4073 -0.1634  0.6195
61480SOL    HW189251   7.653   8.653   8.119 -1.7393  2.4821  0.8106
61480SOL    HW289252   7.519   8.620   8.056 -0.6152 -0.2787 -0.3012
61481SOL     OW89253   8.156   0.671  10.705  0.4551  0.0575 -0.5638
61481SOL    HW189254   8.078   0.668  10.648 -0.2827  0.1646  0.4109
61481SOL    HW289255   8.229   0.679  10.644 -0.3108  0.1964 -1.5039
61482SOL     OW89256   5.329   6.217   3.873 -0.2087  0.3931 -0.0739
61482SOL    HW189257   5.238   6.240   3.858 -0.6221 -0.0204  1.6460
61482SOL    HW289258   5.328   6.158   3.948  1.4008 -0.3450 -0.5770
61483SOL     OW89259   6.516   8.053   0.111 -0.2112 -0.1723  0.1103
61483SOL    HW189260   6.571   8.131   0.097 -1.7538  1.4541  2.3462
61483SOL    HW289261   6.447   8.060   0.046  0.5070 -0.5331 -0.7005
61484SOL     OW89262  11.400   6.183  10.853  0.0522 -0.3789  0.2685
61484SOL    HW189263  11.471   6.233  10.893 -1.6225 -0.5889  3.8480
61484SOL    HW289264  11.322   6.237  10.865 -1.0784 -1.9151  0.1790
61485SOL     OW89265   8.206   9.237  10.709  0.3677  0.3552 -0.1470
61485SOL    HW189266   8.301   9.236  10.721  0.7150  2.3016 -1.9798
61485SOL    HW289267   8.181   9.145  10.704  2.2431 -0.1960 -0.1265
61486SOL     OW89268   8.010   9.980   5.171  0.1598 -0.1669  0.3890
61486SOL    HW189269   8.025   9.915   5.102 -1.1424 -0.3582  0.2641
61486SOL    HW289270   7.915   9.985   5.179  0.2433  1.4558  0.6589
61487SOL     OW89271   1.225   7.655   6.669 -0.1017  0.0288 -0.0773
61487SOL    HW189272   1.317   7.675   6.651  0.0983  0.0448  0.9165
61487SOL    HW289273   1.228   7.577   6.724 -0.7234 -0.4104 -0.6510
61488SOL     OW89274   3.639   7.532   3.583 -0.2574  0.2988 -0.3860
61488SOL    HW189275   3.700   7.460   3.565  1.4725  1.6402 -0.1812
61488SOL    HW289276   3.566   7.491   3.629  0.9377 -1.2444  0.2247
61489SOL     OW89277   4.312   7.653   7.615 -0.1907  0.0611  0.3423
61489SOL    HW189278   4.393   7.660   7.563 -0.0897  0.5550  0.5580
61489SOL    HW289279   4.275   7.569   7.590  0.0391  0.1335 -0.2715
61490SOL     OW89280   1.080  12.571  12.036 -0.1581 -0.7316 -0.1201
61490SOL    HW189281   1.099  12.534  11.951 -1.8328 -1.4154 -0.2381
61490SOL    HW289282   0.996  12.616  12.024  0.9307  1.6227  0.4665
61491SOL     OW89283   6.200  10.757   5.066 -0.1862  0.1060 -0.5653
61491SOL    HW189284   6.212  10.756   5.161  0.2347 -1.0176 -0.6127
61491SOL    HW289285   6.162  10.843   5.048  1.6579  1.2066  0.3762
61492SOL     OW89286   6.114  10.930   9.180  0.2987  0.1813  0.5438
61492SOL    HW189287   6.094  11.000   9.242  0.1696  0.0251  0.6804
61492SOL    HW289288   6.207  10.911   9.195  1.0891  2.1570 -1.3552
61493SOL     OW89289   8.170   1.120   1.839 -0.8338  0.3293 -0.3924
61493SOL    HW189290   8.167   1.051   1.905  1.3189 -2.1255 -2.6295
61493SOL    HW289291   8.113   1.089   1.769 -0.1165  0.9789 -1.2850
61494SOL     OW89292   6.340   9.948   7.753  0.4129  0.1066 -0.1378
61494SOL    HW189293   6.429   9.926   7.728  0.1397 -0.1539 -0.9247
61494SOL    HW289294   6.303   9.991   7.675  0.0725  0.8609  0.4217
61495SOL     OW89295  11.685   8.405   2.528  0.8496 -0.0800 -0.2076
61495SOL    HW189296  11.623   8.346   2.485  1.3237 -1.6467  1.1545
61495SOL    HW289297  11.631   8.479   2.558  0.1863  0.0491 -1.6201
61496SOL     OW89298   9.133   7.823   9.609  0.7760 -0.3210 -0.3659
61496SOL    HW189299   9.187   7.888   9.564  0.5479  1.0825  1.2939
61496SOL    HW289300   9.060   7.873   9.645  0.5649 -1.5079  0.9204
61497SOL     OW89301  10.572  10.617   5.621 -0.2980 -0.5096 -0.8952
61497SOL    HW189302  10.606  10.651   5.704 -0.6413 -1.7175 -0.2282
61497SOL    HW289303  10.542  10.694   5.573  2.2740  0.4818 -1.0299
61498SOL     OW89304   0.071   5.541   8.467 -0.0080 -0.1932 -0.1433
61498SOL    HW189305   0.124   5.557   8.545 -0.0611 -0.4140 -0.0613
61498SOL    HW289306   0.059   5.446   8.465  1.2151 -0.3608 -1.2165
61499SOL     OW89307   6.696   6.428  12.036 -0.0118 -0.1890  0.3924
61499SOL    HW189308   6.700   6.467  12.123  0.3638 -0.8302  0.6692
61499SOL    HW289309   6.756   6.354  12.040  1.3206  0.7607 -0.9277
61500SOL     OW89310   4.418  12.539   0.837 -0.0863  0.1851 -0.1991
61500SOL    HW189311   4.492  12.598   0.827  0.8615 -1.0676 -0.8553
61500SOL    HW289312   4.375  12.568   0.918  0.8505  1.2162 -0.0518
61501SOL     OW89313  11.402   1.764   1.560 -0.2616 -0.4412 -0.1200
61501SOL    HW189314  11.426   1.675   1.587  1.1797 -0.5221 -1.4610
61501SOL    HW289315  11.482   1.798   1.518 -1.8091  0.1552 -2.8522
61502SOL     OW89316   4.375   9.919   6.837 -0.4651  0.7147 -0.5734
61502SOL    HW189317   4.371   9.846   6.776  0.7012  0.0783  0.0776
61502SOL    HW289318   4.423   9.987   6.789  2.2520 -0.4801  0.2180
61503SOL     OW89319   3.672   3.414   8.307  0.3551 -0.2860 -0.1166
61503SOL    HW189320   3.716   3.329   8.309 -0.9004 -1.0122 -1.4808
61503SOL    HW289321   3.590   3.399   8.356 -0.0276  0.0313 -0.6469
61504SOL     OW89322   0.778  11.512   7.467 -0.4228 -0.3612  0.2910
61504SOL    HW189323   0.696  11.520   7.418 -1.4743  0.0453  2.0418
61504SOL    HW289324   0.830  11.449   7.416 -1.2758  0.3295 -1.5418
61505SOL     OW89325  12.040   6.913   7.958  0.3547  0.3221  0.2536
61505SOL    HW189326  12.111   6.858   7.925 -1.0754 -2.0737  0.8538
61505SOL    HW289327  12.007   6.865   8.034 -1.3939  1.7313  0.4434
61506SOL     OW89328   2.608   4.830   7.893 -0.5964 -0.3491  0.3866
61506SOL    HW189329   2.591   4.803   7.803  0.4983 -0.8936  0.3237
61506SOL    HW289330   2.629   4.923   7.887  1.7606 -0.8653 -0.2726
61507SOL     OW89331   0.829   9.982  12.503 -0.0054 -0.4433 -0.4642
61507SOL    HW189332   0.783   9.900  12.522 -0.3881 -0.1838 -0.2608
61507SOL    HW289333   0.760  10.042  12.474 -0.2287  0.7062  2.1275
61508SOL     OW89334   0.530   1.444   0.322 -0.8750 -0.3617  0.3099
61508SOL    HW189335   0.481   1.492   0.389  1.2796 -0.0944  1.8141
61508SOL    HW289336   0.589   1.510   0.284  0.0056 -1.1512  0.2752
61509SOL     OW89337  10.985   9.010   7.586  0.5027 -0.5196 -0.0483
61509SOL    HW189338  10.903   8.980   7.547  0.6240 -0.4419 -0.3626
61509SOL    HW289339  10.975   9.105   7.591  0.5646 -0.5124 -0.0672
61510SOL     OW89340   1.125   1.938   2.994  0.1007 -0.3235  0.0112
61510SOL    HW189341   1.165   1.853   3.008  0.4597 -0.2844 -0.7535
61510SOL    HW289342   1.147   1.988   3.073 -1.9393 -1.5963  1.4899
61511SOL     OW89343   9.771  12.560   1.613  0.4276 -0.0505  0.2069
61511SOL    HW189344   9.827  12.637   1.622  2.0354 -1.2121  0.8104
61511SOL    HW289345   9.786  12.529   1.524  0.6230 -0.2568  0.3090
61512SOL     OW89346  10.972   5.408   7.982 -0.0972 -0.2420  0.5450
61512SOL    HW189347  10.954   5.393   7.889  3.9596  1.3823 -0.7472
61512SOL    HW289348  10.928   5.491   8.002  0.5213  0.3708 -0.5359
61513SOL     OW89349   4.342   4.481  10.955 -0.0078 -0.2810  0.6362
61513SOL    HW189350   4.425   4.517  10.986  0.5974 -2.2812  1.4476
61513SOL    HW289351   4.281   4.497  11.027 -0.7198  2.1937 -0.3816
61514SOL     OW89352  10.442   6.295   2.448 -0.2406 -0.2411 -0.0607
61514SOL    HW189353  10.537   6.299   2.439 -0.3392  1.3459 -0.7235
61514SOL    HW289354  10.409   6.341   2.371 -1.5721 -1.1482 -0.0698
61515SOL     OW89355  11.292   0.247   7.947  0.1158  1.0689  0.0208
61515SOL    HW189356  11.222   0.309   7.927  0.5751  1.6012  0.0274
61515SOL    HW289357  11.364   0.302   7.979  0.2031  0.4458  0.9333
61516SOL     OW89358   0.676   2.501  12.157  0.7179  0.0032  0.4147
61516SOL    HW189359   0.647   2.459  12.238  3.4869 -2.2331  0.3886
61516SOL    HW289360   0.667   2.433  12.090  2.6589  0.3123 -0.2301
61517SOL     OW89361   7.194   5.040   9.525 -0.5568 -0.4399  0.1114
61517SOL    HW189362   7.098   5.035   9.519 -0.6327 -1.1125  1.4680
61517SOL    HW289363   7.221   5.086   9.446 -2.1233  1.1956  0.4580
61518SOL     OW89364  12.620   3.151   1.382  0.3663  0.4252 -0.0320
61518SOL    HW189365  12.615   3.111   1.468  1.2799  0.3381 -0.0092
61518SOL    HW289366  12.656   3.083   1.325 -2.2393 -0.2635 -0.9958
61519SOL     OW89367   4.803   0.845   9.258 -0.3130  0.1673  0.3624
61519SOL    HW189368   4.872   0.882   9.203 -2.3774 -0.8464 -3.3035
61519SOL    HW289369   4.846   0.780   9.312  1.8104  0.5879 -0.7360
61520SOL     OW89370   3.734   7.703   9.885  0.3292 -0.2436  0.8102
61520SOL    HW189371   3.775   7.715   9.971 -1.3048 -0.4298  1.6594
61520SOL    HW289372   3.680   7.781   9.873  0.5827 -0.2023 -0.0639
61521SOL     OW89373   4.662  12.436  12.067  0.1665 -0.5445 -0.0078
61521SOL    HW189374   4.665  12.469  12.157  0.2274 -0.9903  0.1565
61521SOL    HW289375   4.753  12.429  12.041  0.1331  0.5326 -0.4636
61522SOL     OW89376   0.057   0.215   0.089  1.0834 -0.3529  0.4328
61522SOL    HW189377   0.059   0.267   0.170 -0.3118  0.0572  0.2268
61522SOL    HW289378   0.147   0.217   0.057  0.8868  3.1293 -0.3142
61523SOL     OW89379   5.689  11.495  11.019  0.0926  0.5242 -0.4475
61523SOL    HW189380   5.738  11.560  10.968 -0.0893  1.5162  0.6094
61523SOL    HW289381   5.754  11.454  11.075  0.1100  0.1671 -0.7238
61524SOL     OW89382   3.274   9.660  10.154  0.1375 -0.3558 -0.5147
61524SOL    HW189383   3.248   9.691  10.068  1.6820 -0.1101 -0.9380
61524SOL    HW289384   3.239   9.571  10.160 -0.3527 -0.2131 -1.2122
61525SOL     OW89385   1.872   4.464  10.042  0.4903  0.0400 -0.2398
61525SOL    HW189386   1.910   4.439   9.957  1.1211 -3.1194  0.8360
61525SOL    HW289387   1.944   4.507  10.088  1.9099 -2.8219  0.4783
61526SOL     OW89388   8.287   0.272   7.820 -0.7475  0.0335 -0.0427
61526SOL    HW189389   8.286   0.363   7.847 -1.3777  0.1340 -0.3784
61526SOL    HW289390   8.194   0.247   7.818 -0.6438 -0.3098 -0.9496
61527SOL     OW89391   4.557   4.209   6.594 -0.1406  0.1893 -0.4034
61527SOL    HW189392   4.543   4.290   6.545 -0.3429  0.7812  0.5967
61527SOL    HW289393   4.522   4.228   6.681 -1.4130 -1.4281 -0.5344
61528SOL     OW89394   6.070   0.573  12.016  0.3817  0.1313 -0.2032
61528SOL    HW189395   6.109   0.658  11.994  2.8671 -0.9781 -0.4237
61528SOL    HW289396   5.978   0.592  12.034  0.9737  2.9325  0.2433
61529SOL     OW89397   2.498   8.958   6.976  0.5788  0.2307 -0.4045
61529SOL    HW189398   2.437   8.892   7.011  0.8568  0.2151  0.0677
61529SOL    HW289399   2.489   9.033   7.035  3.1778 -0.8309  1.5707
61530SOL     OW89400  12.505   9.402   7.248  0.0972 -0.4036  0.9431
61530SOL    HW189401  12.558   9.387   7.326 -0.2002 -1.2900  0.9860
61530SOL    HW289402  12.461   9.318   7.232  0.4351 -0.3561 -0.3851
61531SOL     OW89403   4.511   0.076   6.853  0.0539  0.6787 -0.4364
61531SOL    HW189404   4.571   0.002   6.845  1.9950  1.9178  1.5667
61531SOL    HW289405   4.441   0.057   6.790  1.5758 -1.7462 -1.5449
61532SOL     OW89406   2.468   3.857   4.119 -0.2219  0.4219 -0.5250
61532SOL    HW189407   2.538   3.921   4.105  1.0064 -1.1289 -1.8617
61532SOL    HW289408   2.495   3.809   4.197  0.4185 -0.4077 -1.2421
61533SOL     OW89409   5.145  11.900   2.463 -0.0784  0.4411  0.5227
61533SOL    HW189410   5.204  11.975   2.474 -0.5791  0.7125  1.4368
61533SOL    HW289411   5.070  11.921   2.518 -0.6432 -0.3054  0.0440
61534SOL     OW89412   1.804   3.113   9.856 -0.2280 -0.1001 -0.1224
61534SOL    HW189413   1.716   3.076   9.864 -0.9441  0.6629 -3.1820
61534SOL    HW289414   1.797   3.199   9.897 -0.0889 -1.0774  2.0652
61535SOL     OW89415   6.818   8.743   1.798 -0.1607 -0.2785 -0.5773
61535SOL    HW189416   6.904   8.755   1.757 -0.6252  0.3175 -1.3881
61535SOL    HW289417   6.774   8.827   1.788 -0.1323  0.0643  1.5757
61536SOL     OW89418   3.593   2.012   8.502 -0.0702  0.0193  0.4328
61536SOL    HW189419   3.676   1.964   8.498  0.3877  0.8061 -3.2227
61536SOL    HW289420   3.603   2.071   8.576  1.6220 -1.5543  1.5626
61537SOL     OW89421   3.701   9.853   2.389  0.1667 -0.4936 -0.2308
61537SOL    HW189422   3.707   9.889   2.301  0.8774 -1.4526 -0.5968
61537SOL    HW289423   3.621   9.890   2.425 -0.1749 -0.1505 -1.3108
61538SOL     OW89424  12.327   0.069   2.068 -0.4447 -0.4976  0.3391
61538SOL    HW189425  12.348   0.128   2.141 -0.8811 -0.4018  0.3878
61538SOL    HW289426  12.376  -0.011   2.087 -0.1889 -0.3053  0.4956
61539SOL     OW89427   5.351  12.350   1.584  0.6342 -0.1913  0.0467
61539SOL    HW189428   5.329  12.443   1.581 -2.5337 -0.8617 -0.9754
61539SOL    HW289429   5.436  12.344   1.540 -0.0677  1.9984 -1.8301
61540SOL     OW89430   7.899   2.958   5.440  0.3411  0.0162  0.1071
61540SOL    HW189431   7.991   2.952   5.467  0.4306  0.0775 -0.1819
61540SOL    HW289432   7.852   2.905   5.505  0.7691 -1.4190 -0.7122
61541SOL     OW89433  12.521   4.767   3.964 -0.2299  0.4955 -0.0563
61541SOL    HW189434  12.510   4.674   3.945 -0.0382  0.9692 -2.9282
61541SOL    HW289435  12.596   4.794   3.911  0.1409  2.1758  1.2438
61542SOL     OW89436   3.429   8.346   1.408 -0.1721  0.0662 -0.0292
61542SOL    HW189437   3.469   8.410   1.350 -0.5804  1.9644  1.6781
61542SOL    HW289438   3.489   8.271   1.406  0.5560  0.6526 -1.7148
61543SOL     OW89439   9.573   3.731   4.475  0.5746 -1.0666 -0.4094
61543SOL    HW189440   9.629   3.808   4.483 -1.5258  0.5237 -0.0656
61543SOL    HW289441   9.578   3.688   4.560 -1.0786  0.8246  0.7052
61544SOL     OW89442  10.734  11.833   4.640  0.5350  0.3389  0.4211
61544SOL    HW189443  10.798  11.839   4.569  0.4509  1.0338  0.3972
61544SOL    HW289444  10.677  11.909   4.627 -0.4751 -0.4074  0.2679
61545SOL     OW89445   8.253   9.525   4.997  0.3262 -0.1479 -0.0463
61545SOL    HW189446   8.326   9.464   5.009  1.9125  1.4952 -0.7487
61545SOL    HW289447   8.277   9.601   5.051 -0.1180  1.0160 -1.4267
61546SOL     OW89448   1.042   0.063   1.957  0.2137 -0.3404 -0.1624
61546SOL    HW189449   1.105   0.004   1.999 -1.2292  0.4268  3.4150
61546SOL    HW289450   1.082   0.149   1.962 -0.8886  0.0993  1.8219
61547SOL     OW89451   4.153  11.849   4.863 -0.2069  0.0811  0.3136
61547SOL    HW189452   4.137  11.836   4.956  1.4266 -1.5615  0.4186
61547SOL    HW289453   4.247  11.866   4.857 -0.0275 -1.1470 -1.1103
61548SOL     OW89454   1.952  11.539   1.920 -0.4577  0.5452 -0.2652
61548SOL    HW189455   1.926  11.467   1.862 -0.1019 -0.1117  0.3835
61548SOL    HW289456   1.893  11.532   1.995  1.1671 -0.6346  0.9779
61549SOL     OW89457  11.910  12.126  12.647  0.1234 -0.3031 -0.3089
61549SOL    HW189458  11.980  12.086  12.699 -0.4391 -1.0952 -0.1360
61549SOL    HW289459  11.831  12.115  12.700 -0.1127  0.7317 -0.4277
61550SOL     OW89460   9.957   2.053   2.524  0.1109 -0.3935 -0.4526
61550SOL    HW189461  10.009   2.119   2.570 -0.1966 -1.0417  0.8925
61550SOL    HW289462   9.977   1.971   2.570 -0.8445 -0.9278 -0.9587
61551SOL     OW89463   8.431   1.764   8.265  0.2407  0.1829  0.0634
61551SOL    HW189464   8.463   1.695   8.206  2.3432  0.7647  0.4377
61551SOL    HW289465   8.408   1.836   8.207  0.0474 -0.0871 -0.1982
61552SOL     OW89466   8.632   2.945   4.967 -0.2321 -0.0692  0.0446
61552SOL    HW189467   8.571   3.002   5.014  0.9021  0.8542  0.4695
61552SOL    HW289468   8.578   2.874   4.932 -1.3538  0.0724  1.4099
61553SOL     OW89469   4.520  10.843   3.535 -0.1149  0.0096  0.1683
61553SOL    HW189470   4.450  10.800   3.585  0.7559 -0.5362  0.9368
61553SOL    HW289471   4.525  10.931   3.572 -1.1128  0.4319 -0.6293
61554SOL     OW89472   8.610  10.705   4.241 -0.3546  0.0832 -0.2941
61554SOL    HW189473   8.568  10.737   4.321 -1.2226 -0.9666 -0.3043
61554SOL    HW289474   8.557  10.743   4.170 -0.6307 -0.3524 -0.3265
61555SOL     OW89475  10.995   1.005   0.676  0.4464  0.2712 -0.1490
61555SOL    HW189476  10.996   1.011   0.580  0.4497  0.2367 -0.1512
61555SOL    HW289477  11.087   1.007   0.701  0.4318  0.6468 -0.1222
61556SOL     OW89478   6.917   0.374   8.625  0.0894  0.4731  0.1726
61556SOL    HW189479   6.980   0.390   8.555 -1.8559 -2.0370 -2.4147
61556SOL    HW289480   6.849   0.440   8.612 -0.3135 -0.0457 -0.4251
61557SOL     OW89481   2.488   5.843   4.394 -0.1911  0.6168  0.5390
61557SOL    HW189482   2.539   5.802   4.323 -0.3659  0.9520  0.2219
61557SOL    HW289483   2.502   5.937   4.383  0.5169  0.6422  1.4968
61558SOL     OW89484  10.656   9.067   7.327 -0.2753  0.0551  0.0238
61558SOL    HW189485  10.592   8.997   7.328  0.4784 -0.6768 -0.7947
61558SOL    HW289486  10.693   9.068   7.415 -0.3958 -0.4901  0.0818
61559SOL     OW89487   9.845   6.860   1.950  0.7034 -0.5149 -0.1180
61559SOL    HW189488   9.801   6.914   2.016 -0.3589 -2.0829  0.5238
61559SOL    HW289489   9.848   6.915   1.872 -1.5566  0.0245  0.1080
61560SOL     OW89490   0.559   9.914   4.749  0.4114 -0.3178  0.4890
61560SOL    HW189491   0.554   9.827   4.710  0.0282 -0.3216  0.5428
61560SOL    HW289492   0.652   9.926   4.768  0.4769 -0.6860  0.4154
61561SOL     OW89493   8.490   1.692   4.224  0.3279  0.5098 -0.1136
61561SOL    HW189494   8.552   1.707   4.295 -0.2544  1.3735  0.2322
61561SOL    HW289495   8.513   1.606   4.189 -0.0970 -0.4562  1.8510
61562SOL     OW89496  11.621   0.871   0.706  0.0093 -0.6289 -0.4784
61562SOL    HW189497  11.584   0.804   0.649 -1.0822 -0.2945 -0.1740
61562SOL    HW289498  11.650   0.941   0.647 -2.4241  0.3715 -0.5914
61563SOL     OW89499   0.170   1.916   2.139 -0.5509 -0.1285  0.6024
61563SOL    HW189500   0.188   1.829   2.177 -1.0601 -0.7627 -0.5636
61563SOL    HW289501   0.089   1.944   2.183 -1.1398 -0.8612  0.0250
61564SOL     OW89502   7.548  12.342  10.723  0.8738  0.3702  0.5271
61564SOL    HW189503   7.559  12.421  10.670  0.5565  0.2641  0.3027
61564SOL    HW289504   7.492  12.285  10.671  0.9742  0.0571  0.7550
61565SOL     OW89505  12.617   8.483   4.707 -0.4066 -0.3581 -0.6644
61565SOL    HW189506  12.539   8.534   4.731 -0.4396 -0.8747  0.3697
61565SOL    HW289507  12.615   8.482   4.612 -1.6851 -0.3760 -0.6636
61566SOL     OW89508   7.820   1.224   9.811  0.3645  0.7301 -0.3285
61566SOL    HW189509   7.825   1.223   9.715 -0.6864 -2.4265 -0.4776
61566SOL    HW289510   7.909   1.245   9.839  1.2166 -0.3440 -2.0372
61567SOL     OW89511   7.412   8.433   1.648  0.7411  0.3302 -0.1350
61567SOL    HW189512   7.482   8.482   1.692  0.1469  0.4376  0.7205
61567SOL    HW289513   7.347   8.418   1.717  0.1539 -0.2068 -0.7973
61568SOL     OW89514   6.334   4.752   7.932  0.2074  0.1753  0.4156
61568SOL    HW189515   6.389   4.731   7.857  1.9114 -1.6742  2.0491
61568SOL    HW289516   6.338   4.673   7.987 -2.8615  0.5705  1.3742
61569SOL     OW89517   0.041   8.342  10.247  0.3608 -0.7423  0.2838
61569SOL    HW189518  -0.017   8.379  10.314  0.6539 -1.4541  0.9404
61569SOL    HW289519   0.129   8.354  10.282  0.5210 -1.0826  0.0089
61570SOL     OW89520  10.580   6.147   0.290  0.5203  0.6744 -0.1054
61570SOL    HW189521  10.507   6.201   0.321  0.6250 -0.3866  2.2458
61570SOL    HW289522  10.658   6.190   0.327  0.7109 -0.2883  0.6742
61571SOL     OW89523   0.407   9.738  11.428  0.4568  0.8867  0.0451
61571SOL    HW189524   0.362   9.687  11.495  0.9167  0.9397  0.3965
61571SOL    HW289525   0.477   9.680  11.397 -0.5617  0.3399 -1.3468
61572SOL     OW89526  11.402  11.778  11.444 -0.6450 -0.2639  0.7034
61572SOL    HW189527  11.314  11.759  11.476 -1.2438  0.3381 -0.4996
61572SOL    HW289528  11.413  11.720  11.368 -0.1011 -0.1640  0.7025
61573SOL     OW89529   1.844   3.154  12.255  0.3233  0.2200 -0.6602
61573SOL    HW189530   1.847   3.077  12.197 -1.2107  1.3684 -2.3612
61573SOL    HW289531   1.752   3.164  12.276  0.3219  2.2684 -1.4635
61574SOL     OW89532   7.407  11.416   2.034 -0.4589 -0.2546  0.2962
61574SOL    HW189533   7.496  11.381   2.030 -0.6980 -0.8956  0.4248
61574SOL    HW289534   7.415  11.497   2.085 -0.2790 -1.4683  2.3246
61575SOL     OW89535  12.156   5.807   9.684 -0.4248 -0.2741  0.4227
61575SOL    HW189536  12.221   5.790   9.616  0.0707 -2.6986  1.3721
61575SOL    HW289537  12.083   5.847   9.639  1.0016  0.8148 -1.0083
61576SOL     OW89538  11.601   3.899  10.958  0.0298  0.3625 -0.0587
61576SOL    HW189539  11.682   3.916  11.007 -0.9342  1.2348  1.3247
61576SOL    HW289540  11.623   3.917  10.867  1.6842 -0.5239  0.1339
61577SOL     OW89541   0.645   1.451   9.418 -0.0586  0.2016 -0.3823
61577SOL    HW189542   0.690   1.444   9.502 -0.4554 -0.8288 -0.2322
61577SOL    HW289543   0.715   1.466   9.354  0.3924 -0.3054 -0.0211
61578SOL     OW89544   9.849  10.926  10.563  1.3397 -0.1214 -0.1255
61578SOL    HW189545   9.754  10.940  10.568  1.4801  0.9927 -0.3673
61578SOL    HW289546   9.867  10.862  10.631  0.3432 -0.7408 -0.4169
61579SOL     OW89547   6.119   9.298  11.615  0.3281 -0.1538  0.8175
61579SOL    HW189548   6.152   9.367  11.557 -0.5749 -0.4472 -0.0690
61579SOL    HW289549   6.193   9.278  11.673  0.7461  1.2364  0.8047
61580SOL     OW89550   9.066   2.983   9.053 -0.3777  0.6781  0.7597
61580SOL    HW189551   9.120   2.938   8.988  0.9046  0.7793  1.7360
61580SOL    HW289552   8.981   2.938   9.048  0.8201 -1.9205  1.6818
61581SOL     OW89553  10.870   2.891  12.043  0.0325 -0.2018 -0.0085
61581SOL    HW189554  10.781   2.924  12.037 -0.2195 -1.0077 -0.7081
61581SOL    HW289555  10.921   2.966  12.076 -1.1421 -0.1754  1.9010
61582SOL     OW89556   7.736   3.150  10.254  0.0091  0.1023  0.4291
61582SOL    HW189557   7.736   3.245  10.243 -0.3221  0.1477  0.8128
61582SOL    HW289558   7.647   3.129  10.284  0.4950 -0.1643  1.7385
61583SOL     OW89559   4.297   0.275  10.055  0.1040 -0.4674 -0.2094
61583SOL    HW189560   4.378   0.318  10.027  1.1853 -2.1132  0.2887
61583SOL    HW289561   4.256   0.339  10.114  0.8489  0.5193 -0.7194
61584SOL     OW89562  11.090  10.585   1.905 -0.4174  0.4634  0.2085
61584SOL    HW189563  11.095  10.536   1.823  2.1508 -0.0943  0.6060
61584SOL    HW289564  10.997  10.587   1.927 -1.1327  0.3904 -2.5467
61585SOL     OW89565   2.857   8.697   3.324 -0.7068 -0.2423  0.3704
61585SOL    HW189566   2.895   8.693   3.236 -0.0730  0.7036  0.5769
61585SOL    HW289567   2.763   8.692   3.310 -0.7941  2.5237 -0.6205
61586SOL     OW89568   4.604   2.403  12.423  0.4960  0.6768 -0.7265
61586SOL    HW189569   4.596   2.460  12.347 -0.4098 -1.0717 -2.0278
61586SOL    HW289570   4.559   2.322  12.397  1.8365 -0.6954  0.9495
61587SOL     OW89571   7.630   2.653  11.082 -0.6677  0.0340 -0.1742
61587SOL    HW189572   7.633   2.692  10.995 -0.0101 -0.6630 -0.4746
61587SOL    HW289573   7.700   2.698  11.130  0.0023 -0.6630 -0.4802
61588SOL     OW89574   2.691   0.516   8.719 -0.0773 -0.4037  0.2298
61588SOL    HW189575   2.779   0.541   8.748  0.6712 -3.3129  0.7517
61588SOL    HW289576   2.643   0.500   8.800 -1.3149  1.5504 -0.0356
61589SOL     OW89577   8.303  11.802   8.417 -0.1995 -0.1307  0.4495
61589SOL    HW189578   8.294  11.843   8.330 -0.5860 -0.0190  0.5399
61589SOL    HW289579   8.375  11.740   8.407  0.8127  1.0066  0.4655
61590SOL     OW89580  10.905  10.368   7.700 -0.1739 -0.0135  0.5600
61590SOL    HW189581  10.918  10.275   7.719  1.4484 -0.0441 -0.5402
61590SOL    HW289582  10.817  10.372   7.661  0.3980 -1.3823 -1.0179
61591SOL     OW89583   3.133   9.160   9.931 -0.0197  0.0803 -0.0371
61591SOL    HW189584   3.198   9.123   9.989  1.1961 -0.2865 -1.5686
61591SOL    HW289585   3.073   9.087   9.912  0.5506 -0.2657 -0.5487
61592SOL     OW89586   5.204   7.152   3.822  0.0855 -0.2266 -0.0962
61592SOL    HW189587   5.202   7.103   3.740 -0.0864  3.3090 -2.3913
61592SOL    HW289588   5.274   7.216   3.811 -0.4125  0.8451  2.2528
61593SOL     OW89589   2.468   9.522   1.117 -0.1058  0.7186  0.1294
61593SOL    HW189590   2.491   9.560   1.201 -0.4113  1.2185 -0.0069
61593SOL    HW289591   2.471   9.427   1.132 -1.2949  0.7999  1.0250
61594SOL     OW89592   7.779   1.809  11.619  1.0317 -0.5561  0.3522
61594SOL    HW189593   7.771   1.715  11.632 -0.1907 -0.7467 -1.4106
61594SOL    HW289594   7.771   1.821  11.524  2.0725  1.2541  0.4527
61595SOL     OW89595   4.652   3.405   8.717 -0.3450  0.1604 -0.0401
61595SOL    HW189596   4.570   3.438   8.753  0.4174  0.4597  1.5293
61595SOL    HW289597   4.641   3.309   8.717 -0.3740  0.1533  1.0097
61596SOL     OW89598  12.519   7.170   5.931 -0.5070  0.8937 -0.0596
61596SOL    HW189599  12.538   7.258   5.963  2.5120 -0.0811  1.2174
61596SOL    HW289600  12.567   7.164   5.848 -0.4301  0.3911  0.0177
61597SOL     OW89601   8.959   9.239   1.967  0.5208 -0.4960  0.1243
61597SOL    HW189602   8.879   9.255   1.918  0.2705  0.7051  0.8883
61597SOL    HW289603   8.966   9.313   2.027  1.6356 -1.1343  0.8222
61598SOL     OW89604   7.030   4.507   4.487  0.8901 -0.1428 -0.3997
61598SOL    HW189605   7.065   4.535   4.572  0.9099 -0.1207 -0.4151
61598SOL    HW289606   6.942   4.545   4.484  0.8602 -0.2094 -0.3555
61599SOL     OW89607   5.821   1.684   0.329 -0.1950 -0.3257  0.1181
61599SOL    HW189608   5.905   1.687   0.283 -0.0644 -1.6094  0.2381
61599SOL    HW289609   5.807   1.774   0.359  0.0153  0.3975 -1.8501
61600SOL     OW89610   2.168   6.922   3.438  0.2082 -0.7590 -0.4937
61600SOL    HW189611   2.248   6.871   3.425  0.7294  0.7259 -4.8457
61600SOL    HW289612   2.098   6.856   3.438  1.2070 -1.9201  1.5402
61601SOL     OW89613   1.092   7.428  12.148  0.4402  0.2382  0.0233
61601SOL    HW189614   1.168   7.376  12.176  0.1792 -0.7249 -0.9957
61601SOL    HW289615   1.029   7.363  12.117 -0.0013  1.1418 -1.0435
61602SOL     OW89616   7.061   6.193   4.001  0.3327 -0.0820 -0.1523
61602SOL    HW189617   7.107   6.237   4.072 -0.3352 -0.9740  0.8714
61602SOL    HW289618   7.129   6.172   3.937  1.0451  0.2295  0.4969
61603SOL     OW89619  10.953   9.589   9.770 -0.0198 -0.2127  0.5910
61603SOL    HW189620  11.031   9.621   9.816  0.0250 -1.1030  1.1613
61603SOL    HW289621  10.987   9.538   9.697 -0.0925  0.7613 -0.1492
61604SOL     OW89622   5.393  12.158   8.101  0.6106  0.8686  0.5479
61604SOL    HW189623   5.438  12.241   8.082  0.3693  0.5810 -1.4290
61604SOL    HW289624   5.411  12.143   8.194  2.4057  2.0761  0.4557
61605SOL     OW89625   9.773  11.957   6.158  0.1202 -0.2147  0.4609
61605SOL    HW189626   9.856  11.953   6.109  0.0733  2.2540  0.0666
61605SOL    HW289627   9.793  11.912   6.240  1.3685 -1.0406 -0.2447
61606SOL     OW89628   7.907  10.402   0.683 -0.0526  0.3550  0.0399
61606SOL    HW189629   7.949  10.468   0.628  1.0238  0.2212  0.6825
61606SOL    HW289630   7.909  10.439   0.771  0.5651 -0.5269  0.4041
61607SOL     OW89631   0.445   8.073   6.254  0.2077 -0.2479  0.4898
61607SOL    HW189632   0.425   8.113   6.339 -2.4154 -0.0275 -0.1291
61607SOL    HW289633   0.360   8.045   6.221  1.0105  0.5657 -2.5186
61608SOL     OW89634   6.522   6.676  11.134 -0.6388  0.4789  0.0117
61608SOL    HW189635   6.466   6.730  11.079 -1.8509 -1.8549 -1.2198
61608SOL    HW289636   6.466   6.651  11.208 -1.5416 -2.1521 -1.4003
61609SOL     OW89637   3.675  11.338   4.131 -0.1090  0.0421 -0.2350
61609SOL    HW189638   3.733  11.324   4.057 -0.1494 -0.8912 -0.0970
61609SOL    HW289639   3.698  11.425   4.164  0.5498  0.0658 -0.7595
61610SOL     OW89640   7.004  10.282   8.104  0.3385  0.1140 -0.0108
61610SOL    HW189641   6.961  10.345   8.161 -1.0105 -0.0067 -0.8559
61610SOL    HW289642   7.011  10.327   8.020 -0.6532 -0.8585 -0.6292
61611SOL     OW89643   1.154   8.154  10.605  0.0499 -0.0405 -0.0381
61611SOL    HW189644   1.075   8.169  10.658  0.4189 -0.3090  0.5951
61611SOL    HW289645   1.121   8.139  10.517 -0.6726 -0.9388  0.3642
61612SOL     OW89646  11.687   4.492   4.574  0.9116 -0.3495 -0.1352
61612SOL    HW189647  11.641   4.408   4.578 -0.4773  0.3829 -0.3952
61612SOL    HW289648  11.696   4.519   4.665 -1.6583  0.7965 -0.1578
61613SOL     OW89649   5.027   6.564   5.205 -0.2488 -0.6463  0.0845
61613SOL    HW189650   5.114   6.584   5.242 -0.0467  1.1235 -1.1925
61613SOL    HW289651   4.983   6.649   5.200 -1.6570 -1.3651 -0.2942
61614SOL     OW89652   9.306   3.648  10.578 -0.2493 -0.1686 -0.2516
61614SOL    HW189653   9.365   3.585  10.537  1.6633  0.9179  0.7177
61614SOL    HW289654   9.283   3.709  10.508  0.5115 -0.0839 -0.4284
61615SOL     OW89655   4.249   6.139  10.036 -0.1919 -0.4689  0.4795
61615SOL    HW189656   4.308   6.149   9.962 -0.1002  0.4468  0.6634
61615SOL    HW289657   4.298   6.173  10.111 -1.0893  0.7218  0.5642
61616SOL     OW89658   1.985   6.394   8.050  0.2088  0.3545  0.1002
61616SOL    HW189659   2.063   6.344   8.073 -0.2291 -0.3898  0.0138
61616SOL    HW289660   2.018   6.470   8.001  0.7623 -0.9455 -1.6386
61617SOL     OW89661   0.286  11.838   3.169 -0.0979 -0.0889  0.0385
61617SOL    HW189662   0.358  11.806   3.223 -0.6617 -1.6360 -0.0835
61617SOL    HW289663   0.260  11.763   3.116 -1.3816  0.6230 -0.3920
61618SOL     OW89664   4.664   5.404   5.007 -0.1831  0.3784 -0.4654
61618SOL    HW189665   4.689   5.384   5.097  1.1509  0.2161 -0.8460
61618SOL    HW289666   4.569   5.418   5.011  0.0143  1.6038  1.1863
61619SOL     OW89667   0.761  11.198   7.732 -0.2052  0.0974 -0.5078
61619SOL    HW189668   0.700  11.172   7.801 -0.3419  0.4802 -0.4791
61619SOL    HW289669   0.713  11.181   7.651 -0.1088 -0.1959 -0.5021
61620SOL     OW89670   7.627   7.565   7.425  0.1077 -0.4953  0.1959
61620SOL    HW189671   7.594   7.485   7.466  0.9898 -0.4607  1.0126
61620SOL    HW289672   7.671   7.612   7.496 -0.1048  0.5610 -0.3432
61621SOL     OW89673   3.238  12.433   2.704  0.3317  0.1277 -0.2782
61621SOL    HW189674   3.147  12.446   2.731  0.6555  0.4067  0.7610
61621SOL    HW289675   3.281  12.396   2.782  1.3907  1.2488 -0.2923
61622SOL     OW89676   6.922  12.344   5.187 -0.3105 -0.1418  0.2248
61622SOL    HW189677   6.953  12.288   5.258 -2.0699  0.2637  1.3890
61622SOL    HW289678   6.973  12.425   5.197 -0.1691 -0.2851  0.7111
61623SOL     OW89679   9.720   3.441   3.365  0.4976 -0.5171 -0.7092
61623SOL    HW189680   9.761   3.358   3.391  0.6334 -0.1294  0.3595
61623SOL    HW289681   9.792   3.493   3.329  0.7160 -0.3198 -0.0121
61624SOL     OW89682  10.317  10.490   0.688  0.2737 -0.4218  0.7628
61624SOL    HW189683  10.226  10.498   0.714  0.0649  1.4237 -0.3917
61624SOL    HW289684  10.318  10.420   0.622 -0.0243 -1.4771  1.8413
61625SOL     OW89685   3.641   4.729   8.417 -0.1366 -0.1367 -0.3356
61625SOL    HW189686   3.677   4.755   8.502  1.2996  1.1035 -1.2465
61625SOL    HW289687   3.718   4.700   8.367 -1.1074 -1.8735 -0.8755
61626SOL     OW89688   6.067  11.625   9.136 -0.1402  0.3514 -0.0803
61626SOL    HW189689   5.990  11.666   9.176 -0.2481  1.1924 -1.1160
61626SOL    HW289690   6.085  11.678   9.059  0.3131 -0.9932 -0.9282
61627SOL     OW89691  11.590  11.944   9.710  0.0089 -0.6492 -1.0719
61627SOL    HW189692  11.515  11.890   9.688 -0.4282  0.6068 -2.8674
61627SOL    HW289693  11.586  12.018   9.650  0.5818  1.4034  1.2153
61628SOL     OW89694   8.339   9.697  10.581  0.1316 -0.1482 -0.3238
61628SOL    HW189695   8.288   9.777  10.564  0.1275 -0.1098 -0.1362
61628SOL    HW289696   8.396   9.721  10.653 -0.5946 -0.6256  0.4281
61629SOL     OW89697   5.975   3.564   5.783 -0.0450 -0.1654  0.4060
61629SOL    HW189698   5.925   3.631   5.828 -1.3464 -2.1875  2.1741
61629SOL    HW289699   6.053   3.551   5.837 -1.1840 -1.9822  1.7212
61630SOL     OW89700   3.842   2.725   1.601 -0.2861  0.8624  0.3699
61630SOL    HW189701   3.876   2.748   1.514 -0.2840 -0.2630  0.0591
61630SOL    HW289702   3.800   2.806   1.631 -2.4409  0.6568 -1.7383
61631SOL     OW89703  10.696   9.023   7.622 -0.0011  0.4085  0.3670
61631SOL    HW189704  10.610   9.055   7.651  1.0374  2.0154  1.8881
61631SOL    HW289705  10.754   9.099   7.631  1.8819 -1.0096  0.8041
61632SOL     OW89706   8.620  12.398   4.108  0.3352  0.2355  0.0750
61632SOL    HW189707   8.535  12.430   4.137 -0.8426  0.0274 -2.7980
61632SOL    HW289708   8.678  12.474   4.117 -1.0728  1.5579 -1.3881
61633SOL     OW89709  11.307   0.591  10.336 -0.0503 -0.2688 -0.4745
61633SOL    HW189710  11.325   0.670  10.387  0.3377 -1.2938  1.0279
61633SOL    HW289711  11.288   0.624  10.248  1.4114  1.4233 -0.2288
61634SOL     OW89712   5.032   4.632   3.078  0.4681  0.6872 -0.3817
61634SOL    HW189713   4.951   4.665   3.117 -0.0234 -0.7620 -0.1511
61634SOL    HW289714   5.022   4.652   2.984  0.9647  2.7382 -0.0611
61635SOL     OW89715   8.421   4.871  10.847  0.6717  0.2586 -0.1246
61635SOL    HW189716   8.497   4.920  10.876  1.3095 -0.1073 -1.1271
61635SOL    HW289717   8.348   4.908  10.896  1.0864  2.3281 -0.9607
61636SOL     OW89718   0.705   3.596   1.594  0.0266  0.4217 -0.2717
61636SOL    HW189719   0.651   3.580   1.516 -0.0122  1.7077 -0.5428
61636SOL    HW289720   0.729   3.688   1.587  0.1595  0.5194  1.1606
61637SOL     OW89721  10.066   2.501   2.177 -0.1718  0.0728 -0.1650
61637SOL    HW189722  10.058   2.588   2.136  0.2533  0.2431  0.1022
61637SOL    HW289723  10.060   2.440   2.104 -1.4006  0.2765 -0.2631
61638SOL     OW89724   4.626   3.731   4.787 -0.1153  0.1570  0.0740
61638SOL    HW189725   4.542   3.695   4.757 -0.1132 -1.0217  1.3608
61638SOL    HW289726   4.629   3.819   4.749 -1.4499 -0.1535 -0.8522
61639SOL     OW89727   8.556   3.620   5.826  0.1464 -0.2373 -0.2389
61639SOL    HW189728   8.555   3.525   5.842  0.9254 -0.1501  0.3935
61639SOL    HW289729   8.482   3.653   5.877 -0.4900 -0.5727 -0.9369
61640SOL     OW89730   5.813   2.456   9.757 -0.1582 -0.7425  0.1440
61640SOL    HW189731   5.865   2.378   9.738  1.8846  0.8207 -1.0379
61640SOL    HW289732   5.808   2.459   9.853  0.9236 -1.5612  0.2369
61641SOL     OW89733   6.099  12.180   5.475  0.7952  0.3760 -0.4773
61641SOL    HW189734   6.080  12.161   5.567  1.7615  1.0673 -0.1248
61641SOL    HW289735   6.135  12.099   5.440 -0.1350 -0.0767 -0.4207
61642SOL     OW89736   4.364   9.701   6.047 -0.1386  0.1225 -0.2732
61642SOL    HW189737   4.281   9.703   6.094 -0.8519  1.2431 -1.4944
61642SOL    HW289738   4.355   9.769   5.980  0.5631 -1.7843 -2.4397
61643SOL     OW89739   3.181   4.713   5.263  0.8052  0.0453  0.1873
61643SOL    HW189740   3.137   4.689   5.345 -0.7981 -0.6634 -0.8354
61643SOL    HW289741   3.124   4.779   5.224  0.9249 -0.4726 -0.9080
61644SOL     OW89742   8.170   3.403   9.828  0.2441 -0.0222 -0.1057
61644SOL    HW189743   8.165   3.339   9.899 -0.2475 -0.2306 -0.3222
61644SOL    HW289744   8.213   3.479   9.867 -0.6216  0.1159  0.5976
61645SOL     OW89745   1.374  10.293   6.829 -0.5706 -0.8763  0.1741
61645SOL    HW189746   1.420  10.281   6.912  1.6413 -0.3986 -0.9153
61645SOL    HW289747   1.378  10.207   6.787  0.3622 -0.5795 -0.3862
61646SOL     OW89748  10.913   6.821   5.474  0.1971  0.1693 -0.3395
61646SOL    HW189749  10.831   6.868   5.457  0.4403  0.5723 -0.4103
61646SOL    HW289750  10.900   6.780   5.560 -0.4048 -0.4872 -0.7366
61647SOL     OW89751   7.525  12.093   8.044 -0.3942 -0.1038 -0.8042
61647SOL    HW189752   7.575  12.148   7.983 -0.6338  0.5141 -0.4495
61647SOL    HW289753   7.591  12.043   8.091 -0.0352  1.1325  0.0751
61648SOL     OW89754   8.487   9.340   8.023  0.7583 -0.4424  0.3404
61648SOL    HW189755   8.443   9.420   8.049  0.6157 -0.0603 -0.9744
61648SOL    HW289756   8.580   9.356   8.042  0.7366  0.0651  0.0181
61649SOL     OW89757   3.524   6.948  11.490 -0.1826 -0.3560  0.2568
61649SOL    HW189758   3.491   6.996  11.565 -2.3584 -0.4483 -0.5542
61649SOL    HW289759   3.608   6.911  11.519 -0.3552  0.6588  2.1689
61650SOL     OW89760   5.338   0.680   0.577 -0.4233 -0.1591 -0.2480
61650SOL    HW189761   5.313   0.773   0.576 -1.3044 -0.3895 -0.3829
61650SOL    HW289762   5.426   0.679   0.617 -1.0388  0.5908  1.2010
61651SOL     OW89763   7.678   1.554   1.367  0.1233 -0.3049 -0.5116
61651SOL    HW189764   7.709   1.559   1.457  0.1318 -3.1223 -0.2661
61651SOL    HW289765   7.741   1.606   1.317  0.8144  0.3053  0.9316
61652SOL     OW89766   6.856   3.712   0.213  0.2695 -0.0541  0.2315
61652SOL    HW189767   6.936   3.756   0.187 -0.0336  0.4838  0.2005
61652SOL    HW289768   6.828   3.757   0.293 -0.4145  0.2778 -0.1811
61653SOL     OW89769   0.036   4.551   7.745  0.0648  0.6196 -0.1703
61653SOL    HW189770   0.003   4.474   7.790 -1.4465  2.0739  1.3667
61653SOL    HW289771   0.129   4.532   7.728  0.1617 -0.8148  1.7450
61654SOL     OW89772   6.729   4.772   8.789  0.0235 -0.4153 -0.0426
61654SOL    HW189773   6.664   4.777   8.719 -1.7070 -0.7199  1.4668
61654SOL    HW289774   6.799   4.830   8.761 -0.9217 -0.0012 -1.6977
61655SOL     OW89775   3.473  11.497   0.829  0.0048 -0.4012  0.1695
61655SOL    HW189776   3.556  11.493   0.784 -0.0279 -0.5665  0.1254
61655SOL    HW289777   3.496  11.505   0.922  0.0697 -1.8695  0.2910
61656SOL     OW89778   5.109  11.343  11.297  0.4152  0.0666 -0.0673
61656SOL    HW189779   5.014  11.334  11.297  0.3821  0.2148  1.1520
61656SOL    HW289780   5.125  11.424  11.346  1.1471  0.3510 -0.7641
61657SOL     OW89781   6.236  11.767  10.831 -0.1525 -0.2362  0.4208
61657SOL    HW189782   6.207  11.706  10.899 -0.1125 -0.6831  0.0419
61657SOL    HW289783   6.199  11.852  10.856 -2.4542 -0.9300 -0.4612
61658SOL     OW89784   0.483   2.154   1.341  0.4741 -0.2643  0.3769
61658SOL    HW189785   0.527   2.218   1.286 -1.2378 -0.9550 -1.9151
61658SOL    HW289786   0.554   2.098   1.374  1.6444  0.8345 -0.2166
61659SOL     OW89787   2.275   6.265   6.319 -0.0215 -0.4114  1.0535
61659SOL    HW189788   2.219   6.311   6.381  0.4077  0.2608  0.9577
61659SOL    HW289789   2.247   6.297   6.233  1.0613  0.6008  1.0459
61660SOL     OW89790   4.063   2.590   3.862 -0.1591  0.2450 -0.2618
61660SOL    HW189791   3.970   2.612   3.850  0.0752  0.8023 -1.1736
61660SOL    HW289792   4.066   2.495   3.858 -0.8366  0.1564  0.9283
61661SOL     OW89793   8.714   1.268   0.121  0.0853  0.0947  0.5256
61661SOL    HW189794   8.775   1.316   0.066  0.2760  2.4564  2.5770
61661SOL    HW289795   8.634   1.321   0.120 -0.7489 -1.1186  0.5834
61662SOL     OW89796   2.062   7.452   0.065 -0.2473 -0.4691  0.4485
61662SOL    HW189797   2.055   7.370   0.113 -0.5905 -0.3889  0.5354
61662SOL    HW289798   2.053   7.426  -0.027 -3.1087 -0.2541  0.5767
61663SOL     OW89799   9.244  11.085   0.939 -0.0005 -0.6686  0.3855
61663SOL    HW189800   9.313  11.127   0.887  0.1542  0.3036  1.3330
61663SOL    HW289801   9.227  11.147   1.010 -1.1519 -1.3543  0.7335
61664SOL     OW89802   7.995   1.696   7.122  0.2749 -0.1258  0.3205
61664SOL    HW189803   7.971   1.603   7.121  2.4573 -0.7621 -1.5626
61664SOL    HW289804   7.930   1.738   7.065  1.2289 -1.1384 -1.6014
61665SOL     OW89805   6.806   1.401   0.935  0.4567 -0.2169  0.1118
61665SOL    HW189806   6.782   1.400   0.842  2.1433  0.4149 -0.3743
61665SOL    HW289807   6.902   1.397   0.935  0.6475  2.2696  1.7277
61666SOL     OW89808   0.007   8.278   9.587 -0.7117 -0.3421 -0.1183
61666SOL    HW189809   0.102   8.289   9.577 -0.7712  0.5087  0.1755
61666SOL    HW289810  -0.023   8.249   9.501 -0.2079 -0.4873 -0.2490
61667SOL     OW89811   1.628   5.298   3.335  0.4762  0.3731  0.0677
61667SOL    HW189812   1.587   5.337   3.412 -0.8648 -2.8020  1.1375
61667SOL    HW289813   1.720   5.288   3.359  0.4720  1.2149  0.4560
61668SOL     OW89814   4.931   4.205   5.642 -0.3819 -0.1012  0.8094
61668SOL    HW189815   4.908   4.189   5.550 -1.9873 -0.2002  1.1892
61668SOL    HW289816   5.019   4.169   5.651 -0.4992 -0.8136 -0.5037
61669SOL     OW89817  11.205   8.678   9.489  0.1980 -0.7168  0.1549
61669SOL    HW189818  11.120   8.640   9.509  0.1136 -0.3153  0.5591
61669SOL    HW289819  11.189   8.736   9.414 -0.0919  0.1424  0.8658
61670SOL     OW89820   1.774  11.713   0.867 -0.4936 -0.4811 -0.0859
61670SOL    HW189821   1.758  11.628   0.908  1.2040  0.3009  2.4753
61670SOL    HW289822   1.869  11.718   0.860 -0.5878  1.0418 -0.5607
61671SOL     OW89823   5.753   8.047   6.503  0.2936  0.4679 -0.3238
61671SOL    HW189824   5.659   8.036   6.520  0.2305  1.5543  0.1413
61671SOL    HW289825   5.776   8.128   6.548  1.9270 -0.8468  1.3349
61672SOL     OW89826  10.265   5.868   9.597 -0.0759  0.5651 -0.1333
61672SOL    HW189827  10.314   5.889   9.517 -1.0389  0.1715 -0.8507
61672SOL    HW289828  10.184   5.919   9.590  0.4987  1.7347  1.3726
61673SOL     OW89829   6.883   5.210   0.720 -0.4292  1.0502 -0.3366
61673SOL    HW189830   6.805   5.240   0.766  0.9746  3.2792  0.7018
61673SOL    HW289831   6.954   5.216   0.784  0.7112 -0.5668 -1.3551
61674SOL     OW89832   5.314   6.835   5.531  0.1385 -0.3608 -0.5475
61674SOL    HW189833   5.298   6.928   5.545  0.6495 -0.0376 -1.9227
61674SOL    HW289834   5.300   6.822   5.437 -0.2777 -1.7566 -0.3252
61675SOL     OW89835   3.843   9.658   0.348  0.3677 -0.0255  0.2475
61675SOL    HW189836   3.786   9.582   0.360 -0.9943  1.1302  1.3974
61675SOL    HW289837   3.799   9.711   0.281  2.2212 -1.0318 -1.9118
61676SOL     OW89838  11.415   3.971   6.401 -0.2854  0.5666 -0.4359
61676SOL    HW189839  11.494   3.956   6.349  0.6469  0.8348  0.8318
61676SOL    HW289840  11.404   3.890   6.451 -0.2958  0.8416  0.0186
61677SOL     OW89841   8.411  10.319  10.373  0.8073 -0.4414  0.4308
61677SOL    HW189842   8.490  10.347  10.327 -0.7179 -1.7528 -3.3031
61677SOL    HW289843   8.352  10.394  10.368  0.7523 -0.4745  0.5613
61678SOL     OW89844   5.964   6.451   8.707 -0.4265  0.1236 -0.0281
61678SOL    HW189845   6.003   6.389   8.646  0.3261  0.1262  0.4393
61678SOL    HW289846   5.939   6.526   8.652 -1.2071 -0.5163 -0.5696
61679SOL     OW89847  12.477  10.254   0.024  0.2263 -0.2189  0.1510
61679SOL    HW189848  12.386  10.235   0.048  0.7698 -0.8374  1.8007
61679SOL    HW289849  12.479  10.350   0.015 -0.5012 -0.1624  0.4615
61680SOL     OW89850   1.710   6.596   7.222 -0.1501  0.2963 -0.5051
61680SOL    HW189851   1.774   6.608   7.152  1.5787  0.5522  1.0320
61680SOL    HW289852   1.689   6.684   7.251  0.9966  0.1643  0.8367
61681SOL     OW89853   8.381   8.512   9.781 -0.1060 -0.0074  0.4199
61681SOL    HW189854   8.294   8.476   9.766 -0.2191  0.5922 -0.4249
61681SOL    HW289855   8.398   8.568   9.705  1.3968 -0.8428  0.0922
61682SOL     OW89856   7.607   4.966   5.802 -0.9892  0.1931  0.0580
61682SOL    HW189857   7.612   4.899   5.870 -0.1352  1.6856  1.5471
61682SOL    HW289858   7.514   4.985   5.794 -1.1159 -0.1100  0.7097
61683SOL     OW89859   0.809   6.096   2.409  0.2267 -0.0947  0.3859
61683SOL    HW189860   0.873   6.101   2.480 -0.0381  0.9687  0.5644
61683SOL    HW289861   0.769   6.183   2.406 -0.1193 -0.2743 -0.7387
61684SOL     OW89862   9.248   8.477   2.650 -0.0167  0.1030 -0.0641
61684SOL    HW189863   9.213   8.473   2.739 -1.7635 -0.2809 -0.7168
61684SOL    HW289864   9.327   8.422   2.653  1.3090  1.9376  1.7489
61685SOL     OW89865  10.831   6.620  11.801 -0.5374  0.5176  0.1633
61685SOL    HW189866  10.887   6.652  11.872 -1.1551  0.1867  0.8196
61685SOL    HW289867  10.874   6.541  11.770  0.9319  1.8552 -1.3771
61686SOL     OW89868   2.614   6.830   2.617  0.2437  0.4058  0.4421
61686SOL    HW189869   2.687   6.847   2.676 -0.7648  1.2318  1.5132
61686SOL    HW289870   2.606   6.910   2.565  0.8427 -0.1457 -0.5122
61687SOL     OW89871  10.782  11.871   2.730  0.5081 -0.3093  0.7349
61687SOL    HW189872  10.876  11.890   2.736  0.9590 -1.4099 -1.5678
61687SOL    HW289873  10.764  11.869   2.636 -1.2532 -2.7371  1.0369
61688SOL     OW89874   1.438   1.885   3.643 -0.1508  0.1008  0.0194
61688SOL    HW189875   1.530   1.865   3.659 -0.0266  0.9693  0.4650
61688SOL    HW289876   1.423   1.863   3.552  0.7873  0.9635 -0.3605
61689SOL     OW89877  11.868   6.913   4.304  0.6220  0.3105 -0.3182
61689SOL    HW189878  11.803   6.927   4.235 -0.8119 -1.1606  0.6506
61689SOL    HW289879  11.886   6.819   4.301 -0.5131 -0.0511  2.1421
61690SOL     OW89880   6.834  10.546  10.797 -0.4083 -0.0372 -0.3693
61690SOL    HW189881   6.836  10.547  10.893 -0.0414  1.3757 -0.3680
61690SOL    HW289882   6.924  10.564  10.771 -0.6842  0.4987 -0.9747
61691SOL     OW89883   3.502  10.221   2.746  1.0428 -0.5007 -0.2454
61691SOL    HW189884   3.476  10.155   2.810  3.0760 -0.8737  0.2900
61691SOL    HW289885   3.452  10.202   2.668 -0.6004 -0.8068  0.8444
61692SOL     OW89886   3.413  10.556   6.679  0.3861  0.2315 -0.1371
61692SOL    HW189887   3.388  10.530   6.590  0.3794 -2.2430  0.5036
61692SOL    HW289888   3.348  10.513   6.735  2.9118 -2.1078  1.2738
61693SOL     OW89889   2.970  11.004   3.939 -0.3981  0.5820  0.3228
61693SOL    HW189890   3.035  10.941   3.910  0.2745  1.3173  0.2050
61693SOL    HW289891   2.912  11.015   3.864 -1.2969 -0.8520  0.7704
61694SOL     OW89892  10.627  10.005   9.873  0.1652  0.1162 -0.8472
61694SOL    HW189893  10.552  10.063   9.861 -0.4133 -0.6691 -1.0801
61694SOL    HW289894  10.621   9.943   9.801 -1.3784 -2.5410  1.4121
61695SOL     OW89895  12.282   8.284   8.970  0.0858 -0.4651 -0.6168
61695SOL    HW189896  12.233   8.340   9.030 -0.6507 -1.8983  0.1699
61695SOL    HW289897  12.217   8.256   8.905  0.8497  0.9916 -2.0912
61696SOL     OW89898   7.692   3.178   8.543  0.0328 -0.0337  0.1096
61696SOL    HW189899   7.599   3.180   8.522  0.0480 -0.5670 -0.0210
61696SOL    HW289900   7.709   3.262   8.585 -0.0004  1.1032 -2.0167
61697SOL     OW89901   7.633   8.039   1.141 -0.3279  0.6398  0.2269
61697SOL    HW189902   7.674   8.039   1.227  0.3905  0.3531 -0.1105
61697SOL    HW289903   7.701   8.069   1.081 -0.7481  0.6150 -0.2741
61698SOL     OW89904   7.287  11.911   0.272  0.1375  0.2230 -0.0375
61698SOL    HW189905   7.292  11.863   0.189  1.4449  0.9737 -0.4320
61698SOL    HW289906   7.375  11.948   0.283 -0.1738  0.5806  1.4196
61699SOL     OW89907   1.273   9.017   9.598  0.0569  0.0757  0.1244
61699SOL    HW189908   1.348   9.075   9.613 -1.4879  1.6100  2.5338
61699SOL    HW289909   1.204   9.074   9.566 -0.7824 -0.8843  0.1730
61700SOL     OW89910   9.056   8.123   1.286  0.0916 -0.6559  0.7569
61700SOL    HW189911   9.087   8.109   1.197 -0.9206  1.3604  0.0162
61700SOL    HW289912   9.133   8.150   1.335  0.5456 -1.1792  0.3399
61701SOL     OW89913   9.225   0.783   5.503 -0.1424 -0.5187  0.3781
61701SOL    HW189914   9.282   0.846   5.460 -0.8859 -1.1398 -1.6499
61701SOL    HW289915   9.151   0.835   5.535 -0.9682 -0.3000 -1.6618
61702SOL     OW89916   6.280   7.746   0.723 -0.0337  0.1706 -0.1329
61702SOL    HW189917   6.279   7.753   0.818 -1.9233 -0.6774 -0.0489
61702SOL    HW289918   6.198   7.786   0.695  0.1457 -0.2657 -1.3475
61703SOL     OW89919  12.359   8.099   9.733  0.2128  0.3233 -0.1835
61703SOL    HW189920  12.404   8.084   9.650  0.7960 -2.4038  0.5483
61703SOL    HW289921  12.314   8.183   9.720  2.0943  1.1023 -2.4192
61704SOL     OW89922   4.094   1.533   0.875 -0.1527 -0.0532  0.6288
61704SOL    HW189923   4.134   1.457   0.832 -0.8203 -0.7518  1.1990
61704SOL    HW289924   4.116   1.607   0.819  2.1906 -0.3388  1.0536
61705SOL     OW89925   0.489   4.331   4.641  0.7216 -0.2520 -0.2276
61705SOL    HW189926   0.571   4.286   4.620  0.5845 -0.4276 -0.3877
61705SOL    HW289927   0.463   4.297   4.727  0.6258 -0.4665 -0.3416
61706SOL     OW89928   1.092   2.284   8.283  0.0426 -0.1503 -0.1624
61706SOL    HW189929   1.022   2.275   8.348 -1.5293 -0.6537 -1.8426
61706SOL    HW289930   1.129   2.371   8.300 -0.1505 -0.3674  1.5244
61707SOL     OW89931   0.079   0.298  11.035 -0.2176  0.3902  0.2227
61707SOL    HW189932   0.051   0.372  11.090  0.6430  0.0553  1.1310
61707SOL    HW289933   0.132   0.338  10.966 -1.9499  0.9103 -0.8982
61708SOL     OW89934   9.180   7.972   9.105 -0.5077 -0.0847  0.0739
61708SOL    HW189935   9.172   7.982   9.200 -2.0220 -0.0209 -0.0303
61708SOL    HW289936   9.118   7.903   9.083  0.1789 -0.4404 -0.8244
61709SOL     OW89937   1.817  11.450   6.128 -0.4361 -0.3637  0.9702
61709SOL    HW189938   1.765  11.530   6.127 -0.2525 -0.2470  0.5741
61709SOL    HW289939   1.877  11.459   6.053 -0.7805 -1.1095  0.5950
61710SOL     OW89940  10.535   8.455   4.135  0.4639 -0.1885  0.0489
61710SOL    HW189941  10.560   8.539   4.098 -2.4354  1.3024  1.1098
61710SOL    HW289942  10.616   8.405   4.141  2.2126  2.3399 -1.0782
61711SOL     OW89943   8.216   9.738   6.128 -0.1471 -0.0110 -0.3736
61711SOL    HW189944   8.129   9.779   6.125 -0.8426 -1.4693 -1.8987
61711SOL    HW289945   8.266   9.783   6.059  0.3559  0.8544  0.5297
61712SOL     OW89946  10.783  11.602   7.663  0.5764 -0.2973 -0.3086
61712SOL    HW189947  10.725  11.554   7.722  1.9125  0.9247  2.1908
61712SOL    HW289948  10.727  11.667   7.622 -0.3347 -0.9263 -0.0935
61713SOL     OW89949   8.852   1.661   9.564 -0.4152 -0.1160  0.3494
61713SOL    HW189950   8.769   1.616   9.583 -0.1369 -0.3953  0.9168
61713SOL    HW289951   8.836   1.705   9.480 -1.4697  0.6382  0.9193
61714SOL     OW89952   1.699   1.184   5.489  0.1122  0.0386 -0.2169
61714SOL    HW189953   1.740   1.137   5.416  1.2257 -0.3399  0.6135
61714SOL    HW289954   1.729   1.274   5.480  1.4592 -0.2998  0.5675
61715SOL     OW89955   8.071   9.665   9.914  0.1223 -0.2424 -0.3734
61715SOL    HW189956   8.135   9.596   9.933 -0.9836 -1.1951 -0.0179
61715SOL    HW289957   8.032   9.687   9.999  0.2218  0.5914 -0.5313
61716SOL     OW89958   0.788   0.007   9.154 -0.9486  0.1850  0.0246
61716SOL    HW189959   0.812   0.067   9.083 -1.7896 -0.6966 -1.0327
61716SOL    HW289960   0.858   0.018   9.218  0.2038  0.5256 -1.2325
61717SOL     OW89961   2.053   5.903  10.292  0.0433  0.6300  0.2014
61717SOL    HW189962   2.079   5.879  10.381 -0.3937  1.1708  0.4867
61717SOL    HW289963   1.957   5.908  10.296 -0.1095 -0.9906 -0.7381
61718SOL     OW89964  12.512   5.355   3.627  0.4027 -0.1782  0.1203
61718SOL    HW189965  12.589   5.411   3.616  0.3305 -0.1462 -0.2004
61718SOL    HW289966  12.548   5.266   3.623  0.5785 -0.1651  1.0260
61719SOL     OW89967   3.487  10.316   3.262 -0.1297 -0.1209 -0.1052
61719SOL    HW189968   3.562  10.341   3.209 -0.2709 -0.5663 -0.5206
61719SOL    HW289969   3.501  10.360   3.346  0.3839  0.1241 -0.3155
61720SOL     OW89970   2.460   1.264  10.448 -0.5652  0.6437  0.2272
61720SOL    HW189971   2.472   1.215  10.529 -1.0599  1.2813  0.7036
61720SOL    HW289972   2.447   1.355  10.477 -0.8349  0.8648 -0.5572
61721SOL     OW89973   8.656   7.465   6.620 -0.1537  0.4304  0.6002
61721SOL    HW189974   8.652   7.525   6.694  0.7726 -1.7259  2.5300
61721SOL    HW289975   8.606   7.389   6.649  0.3994 -0.5503 -0.9174
61722SOL     OW89976   8.719   9.703  10.602 -0.0287  0.1037 -0.7914
61722SOL    HW189977   8.666   9.627  10.629  2.3310 -1.1641  0.6258
61722SOL    HW289978   8.707   9.767  10.671 -0.1434  0.0496 -0.7608
61723SOL     OW89979  11.428   4.376   3.105 -0.5207  0.1804 -0.4871
61723SOL    HW189980  11.418   4.335   3.019 -0.2328 -0.4191 -0.2393
61723SOL    HW289981  11.338   4.401   3.130 -0.4664  1.5951 -1.5406
61724SOL     OW89982   3.514   9.884   0.120  0.2410 -0.5329 -0.4807
61724SOL    HW189983   3.501   9.789   0.123 -1.6783 -0.2988  1.2443
61724SOL    HW289984   3.597   9.898   0.167 -0.2947 -1.2887  0.7617
61725SOL     OW89985   2.368   3.570   5.514 -0.6898  0.6481 -0.4727
61725SOL    HW189986   2.457   3.595   5.540 -0.1807 -0.7352 -0.8093
61725SOL    HW289987   2.351   3.489   5.563 -1.9209  1.0962 -0.1215
61726SOL     OW89988   8.540   6.500   8.863 -0.0417 -0.4274  0.2449
61726SOL    HW189989   8.608   6.437   8.839  0.0263  0.1859 -1.2325
61726SOL    HW289990   8.564   6.581   8.817 -2.1626 -0.4125 -0.9579
61727SOL     OW89991  10.669   9.393   0.431 -0.2636  0.0164  0.2226
61727SOL    HW189992  10.611   9.324   0.463 -0.4215 -0.1198 -0.3381
61727SOL    HW289993  10.625   9.428   0.354 -1.7182  2.9045  2.1993
61728SOL     OW89994   1.909   5.307   2.292 -0.6121  0.5181 -0.6057
61728SOL    HW189995   1.888   5.228   2.341  0.7975 -0.0053 -0.8065
61728SOL    HW289996   1.851   5.374   2.329 -1.0827 -0.3599  0.2881
61729SOL     OW89997  12.169   0.431   4.653 -0.3033  0.0093 -0.6132
61729SOL    HW189998  12.195   0.387   4.734 -0.7017  0.3680 -0.2834
61729SOL    HW289999  12.083   0.468   4.672 -0.4362  0.0348 -1.2268
61730SOL     OW90000   1.463  10.570   9.270  0.6078  0.6083  0.6849
61730SOL    HW190001   1.508  10.631   9.212  1.1956 -0.5814 -0.1252
61730SOL    HW290002   1.514  10.489   9.266 -2.2837 -1.2982 -1.3505
61731SOL     OW90003   2.056   7.126  12.433  0.2543 -0.5273 -0.3116
61731SOL    HW190004   1.970   7.167  12.439  0.3300  0.1336 -2.8100
61731SOL    HW290005   2.048   7.046  12.485 -1.2470  0.4306  1.0409
61732SOL     OW90006   0.889   7.017   6.022  0.0782  0.3300 -0.1961
61732SOL    HW190007   0.803   6.978   6.008  0.7046 -1.6992  1.3052
61732SOL    HW290008   0.946   6.944   6.043  1.7853  1.8476  0.7192
61733SOL     OW90009   3.294   0.202   1.819  0.3142  0.1463  0.2100
61733SOL    HW190010   3.353   0.274   1.796 -1.2773  1.1782 -0.8793
61733SOL    HW290011   3.211   0.245   1.842 -0.7760 -1.3277 -0.7553
61734SOL     OW90012  11.890  10.679  10.475  0.0180  0.8255  0.2796
61734SOL    HW190013  11.964  10.621  10.496 -0.8057  0.2077  1.6442
61734SOL    HW290014  11.831  10.624  10.423  1.0149  1.6826 -1.8873
61735SOL     OW90015   5.315   7.425   5.049  0.0607 -0.1128 -0.5796
61735SOL    HW190016   5.295   7.352   4.991  2.5387 -0.2493 -1.3607
61735SOL    HW290017   5.338   7.497   4.991 -0.6533  0.7914  0.2132
61736SOL     OW90018   7.701   1.572  12.284 -0.2163 -0.0025 -0.7131
61736SOL    HW190019   7.777   1.535  12.240 -2.3678 -4.3687 -1.2827
61736SOL    HW290020   7.672   1.504  12.344 -3.2721  1.7344  0.0323
61737SOL     OW90021   8.365   0.085  11.924 -0.2736 -0.4601 -0.0514
61737SOL    HW190022   8.280   0.041  11.924  0.9077 -2.9464 -0.2800
61737SOL    HW290023   8.352   0.164  11.976 -2.3866 -1.4862  1.0879
61738SOL     OW90024  12.614   7.313   8.766 -0.2630  0.1213 -0.6447
61738SOL    HW190025  12.664   7.235   8.744  0.8654  1.2922 -2.4480
61738SOL    HW290026  12.526   7.280   8.787  0.5252 -1.7169 -0.0081
61739SOL     OW90027   1.797   6.849   0.475  0.0067  0.6600  0.0971
61739SOL    HW190028   1.749   6.801   0.407  0.1409  0.2849  0.2649
61739SOL    HW290029   1.889   6.840   0.450 -0.0538  2.5682 -1.0122
61740SOL     OW90030  10.518   8.179   7.496  0.1742  0.4845 -0.5623
61740SOL    HW190031  10.563   8.240   7.554 -0.0447 -0.1958  0.3331
61740SOL    HW290032  10.431   8.167   7.535 -0.3797  0.8570 -1.6249
61741SOL     OW90033   2.359  10.486   8.916 -0.0705  0.1121 -0.2108
61741SOL    HW190034   2.394  10.564   8.959  1.7569 -0.6053 -0.3345
61741SOL    HW290035   2.425  10.462   8.851 -1.3036 -0.6839 -1.2223
61742SOL     OW90036   2.409   3.651   0.659 -0.3416  0.0452 -0.2603
61742SOL    HW190037   2.383   3.700   0.737  0.7317  0.7686 -0.3288
61742SOL    HW290038   2.424   3.562   0.690 -0.0503  0.2999  0.3364
61743SOL     OW90039   2.475   1.592   6.397  0.2209 -0.1533  0.3128
61743SOL    HW190040   2.520   1.630   6.473 -0.0331 -1.2330  1.0356
61743SOL    HW290041   2.523   1.625   6.321  1.3767 -0.1693  1.0041
61744SOL     OW90042   6.191   9.117  10.548 -0.5468  0.7770  0.3604
61744SOL    HW190043   6.169   9.039  10.599  0.0306  0.8885  0.7879
61744SOL    HW290044   6.280   9.140  10.575 -0.5450  1.3305 -0.0824
61745SOL     OW90045   7.192  10.565   0.088 -0.4595  0.2929 -0.1623
61745SOL    HW190046   7.237  10.644   0.059 -1.5963  1.2933  0.6901
61745SOL    HW290047   7.172  10.518   0.007  1.3797  0.1924 -0.6030
61746SOL     OW90048   3.859  10.453   5.779  0.3743  0.3013  0.3450
61746SOL    HW190049   3.894  10.377   5.825  1.8450  1.4597  1.2393
61746SOL    HW290050   3.764  10.448   5.793  0.3679 -1.6020 -0.0568
61747SOL     OW90051   0.173   0.897   8.361 -0.2682 -0.1026 -0.2772
61747SOL    HW190052   0.223   0.855   8.431  0.6046 -1.1657 -1.4717
61747SOL    HW290053   0.085   0.862   8.369  0.1999 -1.4396 -0.6222
61748SOL     OW90054   0.093   2.332   8.915 -0.0697 -0.8430  0.3833
61748SOL    HW190055   0.087   2.420   8.954 -0.6431  0.1987 -1.9004
61748SOL    HW290056   0.043   2.277   8.975  0.2755  0.3667  1.8726
61749SOL     OW90057   7.769   9.711   9.676 -0.6798 -0.2855 -0.6069
61749SOL    HW190058   7.715   9.641   9.639  1.5129 -1.7657 -1.1857
61749SOL    HW290059   7.728   9.730   9.761 -1.3108 -2.3187 -0.3988
61750SOL     OW90060  11.516  10.806   2.302  0.1959  0.2313  0.3263
61750SOL    HW190061  11.588  10.866   2.285 -0.4360  0.8643 -0.1815
61750SOL    HW290062  11.555  10.719   2.297  0.9744  0.5739  0.3327
61751SOL     OW90063   4.988   4.500  10.315  0.6133  0.2067  0.6443
61751SOL    HW190064   4.917   4.439  10.296 -0.0340  1.3365 -0.7815
61751SOL    HW290065   5.066   4.457  10.281  0.2134  0.0210 -0.0612
61752SOL     OW90066   9.041   6.621   6.556 -0.2596  0.0455  0.2231
61752SOL    HW190067   9.127   6.659   6.571 -0.6710  0.8840  0.5141
61752SOL    HW290068   9.058   6.527   6.545  0.6141  0.1073  0.9445
61753SOL     OW90069  10.447   7.095   1.235  0.3782  0.0755 -0.2777
61753SOL    HW190070  10.391   7.058   1.167  0.3192  0.2415 -0.3202
61753SOL    HW290071  10.392   7.097   1.313  0.2985  0.3185 -0.3409
61754SOL     OW90072  11.185   8.018   1.452  0.0002 -0.4022 -0.3400
61754SOL    HW190073  11.188   7.944   1.512  2.0215  1.2451  1.8068
61754SOL    HW290074  11.273   8.020   1.413  0.1455  1.0620 -0.0023
61755SOL     OW90075   1.957   7.051   8.731  0.1576  0.2096  0.3615
61755SOL    HW190076   1.985   6.984   8.793  1.1415 -1.2517 -1.5647
61755SOL    HW290077   2.035   7.104   8.716 -0.1907  0.8208  0.6700
61756SOL     OW90078  10.467   5.874  11.539 -0.4390  0.1425 -0.0352
61756SOL    HW190079  10.545   5.822  11.519 -0.8068  0.2895 -2.0558
61756SOL    HW290080  10.394   5.812  11.530 -0.9102  0.9629 -2.7531
61757SOL     OW90081   7.645   0.990   9.278 -0.3147 -0.0298 -0.4901
61757SOL    HW190082   7.584   1.046   9.231 -0.1971  1.9169  1.5211
61757SOL    HW290083   7.722   0.984   9.221 -0.8269  0.8235 -1.2934
61758SOL     OW90084   9.908   4.858   5.636  0.1521  0.3862 -0.1752
61758SOL    HW190085   9.906   4.799   5.560  2.2531  1.2558 -0.9888
61758SOL    HW290086   9.818   4.889   5.645  0.1142  1.7396 -3.5774
61759SOL     OW90087   2.923   1.455   4.963 -0.1327  0.0791 -0.3455
61759SOL    HW190088   2.861   1.384   4.949 -0.2823  0.0573  0.3527
61759SOL    HW290089   2.914   1.476   5.056  0.4635  0.4911 -0.3742
61760SOL     OW90090   1.152   7.312   3.871  0.1883 -0.0504 -0.2893
61760SOL    HW190091   1.070   7.336   3.828 -0.4469 -0.2546  0.7678
61760SOL    HW290092   1.128   7.243   3.933  1.2658 -0.5446 -0.3917
61761SOL     OW90093   2.937  12.367  10.147  0.1096  0.3412 -0.3013
61761SOL    HW190094   2.966  12.368  10.239  0.3944  0.8087 -0.3940
61761SOL    HW290095   2.891  12.449  10.136  1.6311  1.1356 -1.0661
61762SOL     OW90096  10.147   9.089  12.473  0.4049  0.1945  0.4477
61762SOL    HW190097  10.143   9.176  12.511 -0.3556  0.2540  0.2513
61762SOL    HW290098  10.081   9.038  12.521  0.7892 -0.2520  0.5126
61763SOL     OW90099   7.048   1.105   2.239 -0.2572  0.2131 -0.7135
61763SOL    HW190100   7.042   1.194   2.204  0.5904  0.4110 -0.3833
61763SOL    HW290101   7.090   1.054   2.170  3.7415  1.1269  0.7427
61764SOL     OW90102   0.368  11.859  11.859  0.4937 -0.8784  0.3523
61764SOL    HW190103   0.278  11.830  11.877  0.2284 -0.8640 -0.8640
61764SOL    HW290104   0.388  11.824  11.772  0.6895  1.3046 -0.5515
61765SOL     OW90105   1.552   6.816   3.256  0.1905  0.3301 -0.1345
61765SOL    HW190106   1.580   6.815   3.348 -0.1976  0.3750 -0.0155
61765SOL    HW290107   1.504   6.734   3.245 -0.2748  0.6018 -0.1366
61766SOL     OW90108  11.690  11.868   1.592 -0.3119  0.5344 -0.1036
61766SOL    HW190109  11.740  11.948   1.609  0.9901  0.0574 -1.4584
61766SOL    HW290110  11.747  11.797   1.620 -1.0736  0.0365  0.2134
61767SOL     OW90111   2.698   9.770   8.765 -0.1328  0.3041  0.4054
61767SOL    HW190112   2.661   9.851   8.730  0.4692  0.2865 -0.3075
61767SOL    HW290113   2.744   9.730   8.691  0.3796 -0.2138  0.9816
61768SOL     OW90114   4.609  11.637   7.370 -0.0195  0.2599 -0.1588
61768SOL    HW190115   4.619  11.605   7.281 -1.1667 -0.0189 -0.1989
61768SOL    HW290116   4.520  11.671   7.373  1.3639  4.5260 -0.4636
61769SOL     OW90117   6.051   4.575   2.106 -0.2675 -0.3781 -0.1250
61769SOL    HW190118   5.996   4.539   2.176  0.1025  0.4544  0.6196
61769SOL    HW290119   6.015   4.662   2.089  0.4499 -0.0510 -0.0290
61770SOL     OW90120  10.202  10.327  11.558  0.3036 -0.0003  0.3928
61770SOL    HW190121  10.191  10.258  11.492 -2.6844 -0.0107  0.7483
61770SOL    HW290122  10.241  10.400  11.510 -2.4090  0.2509 -1.6845
61771SOL     OW90123   1.385   7.361   2.363 -0.0264  0.3368  0.3940
61771SOL    HW190124   1.431   7.444   2.354  0.9742 -0.2635 -0.3246
61771SOL    HW290125   1.423   7.305   2.295 -1.5527 -0.3258  0.0340
61772SOL     OW90126   0.033   4.798  11.088 -0.0850 -0.4025  0.2554
61772SOL    HW190127   0.036   4.710  11.051  0.0682 -0.8140  1.2346
61772SOL    HW290128   0.063   4.855  11.017 -0.1780 -1.1332 -0.3813
61773SOL     OW90129  12.516   9.782   1.476 -0.6575 -0.3641 -0.1034
61773SOL    HW190130  12.421   9.781   1.489 -0.6829 -0.1648 -0.2651
61773SOL    HW290131  12.552   9.764   1.563 -0.8390 -0.0867  0.0339
61774SOL     OW90132  10.076   3.763   9.095 -0.5555  0.1520  0.0366
61774SOL    HW190133  10.093   3.832   9.030 -0.4722  1.0862  1.0311
61774SOL    HW290134   9.999   3.794   9.143 -1.0672 -0.8922 -0.0935
61775SOL     OW90135   8.690   3.416   9.447  0.2865 -0.3005  0.1094
61775SOL    HW190136   8.644   3.390   9.367 -0.5054 -0.0602  0.4753
61775SOL    HW290137   8.685   3.339   9.504  0.7700 -0.4403 -0.0341
61776SOL     OW90138  10.366   1.835   7.803  0.7234 -0.6005 -0.1375
61776SOL    HW190139  10.313   1.769   7.847  1.6744 -0.9167  0.5829
61776SOL    HW290140  10.378   1.802   7.715 -0.0502 -0.6486 -0.2304
61777SOL     OW90141   9.021  12.531   7.682  0.0228  0.7581  0.4092
61777SOL    HW190142   8.978  12.475   7.617 -3.8421  1.0700  2.4604
61777SOL    HW290143   8.995  12.620   7.657  2.3059  1.3427 -0.1299
61778SOL     OW90144   4.865   8.533   6.233 -0.4364  0.1184  0.1114
61778SOL    HW190145   4.952   8.552   6.270 -0.6829  0.9058  0.2919
61778SOL    HW290146   4.883   8.472   6.161  0.0991 -1.0555  1.1932
61779SOL     OW90147   2.212  12.319   4.083  0.2484  0.4260  0.5789
61779SOL    HW190148   2.200  12.226   4.064 -1.8331  0.4140  1.6336
61779SOL    HW290149   2.182  12.363   4.003  3.0620  0.2364 -0.6858
61780SOL     OW90150  11.224   6.007   0.326 -0.5282 -0.2523  0.0786
61780SOL    HW190151  11.312   6.032   0.299 -0.2956 -0.4604  0.6415
61780SOL    HW290152  11.215   5.916   0.299 -0.6031 -0.2065 -0.0530
61781SOL     OW90153  10.271   6.713   3.618  0.2919 -0.2780 -0.5885
61781SOL    HW190154  10.346   6.764   3.588 -0.0718  0.6398  0.0169
61781SOL    HW290155  10.270   6.725   3.713  0.0792 -1.2706 -0.4517
61782SOL     OW90156   8.258  11.718   8.071  0.3251 -0.5645 -0.2233
61782SOL    HW190157   8.291  11.806   8.087 -0.0654 -0.3776 -0.4278
61782SOL    HW290158   8.334  11.661   8.082  1.1440  0.0070 -2.4475
61783SOL     OW90159   6.409   5.661  11.019 -0.2528  0.0265 -0.0071
61783SOL    HW190160   6.402   5.730  10.953  0.4360  3.1044  2.9015
61783SOL    HW290161   6.469   5.597  10.979  2.7807  3.2864 -1.2819
61784SOL     OW90162   3.157  12.210   6.695 -0.8524  0.2844 -0.3603
61784SOL    HW190163   3.187  12.200   6.786 -1.1672 -0.7124 -0.3560
61784SOL    HW290164   3.070  12.250   6.703  0.0038  2.2742 -0.3362
61785SOL     OW90165  10.047   2.613  11.962  0.0531  0.0129 -0.6387
61785SOL    HW190166  10.096   2.547  11.912  0.4754  1.3156 -2.0032
61785SOL    HW290167  10.102   2.631  12.038  1.0825  0.4805 -1.4722
61786SOL     OW90168   9.151   9.681   2.089  0.0605 -0.3190  0.2113
61786SOL    HW190169   9.146   9.693   1.994  0.3682 -0.7651  0.1377
61786SOL    HW290170   9.117   9.593   2.104 -4.5027  1.3051  0.9830
61787SOL     OW90171   7.419  11.628  11.398 -0.2633  0.0331  0.1622
61787SOL    HW190172   7.425  11.550  11.453 -0.6359  0.0211  0.1910
61787SOL    HW290173   7.366  11.601  11.323  0.6081 -0.0716 -0.4250
61788SOL     OW90174  12.060   7.572   0.123  0.1593  0.0734  0.1453
61788SOL    HW190175  12.107   7.602   0.200 -1.0685  0.3668  0.8001
61788SOL    HW290176  12.052   7.650   0.068  0.9492 -0.1141 -0.2458
61789SOL     OW90177   3.732   3.348  12.337 -0.0419 -0.6095 -0.4317
61789SOL    HW190178   3.769   3.372  12.252 -0.8906  0.6841 -0.4602
61789SOL    HW290179   3.658   3.291  12.316 -0.4530 -0.0258 -0.5938
61790SOL     OW90180   1.456   5.361   3.557  0.1249  0.0593 -0.2592
61790SOL    HW190181   1.394   5.434   3.560  0.0319 -0.0226 -0.1444
61790SOL    HW290182   1.412   5.291   3.606  0.5219  0.1698  0.2629
61791SOL     OW90183   0.275   8.739   6.902 -0.0683  0.1292 -0.1781
61791SOL    HW190184   0.304   8.816   6.951  0.2728 -0.9968  1.4305
61791SOL    HW290185   0.235   8.776   6.823 -1.7119  2.0740  1.4415
61792SOL     OW90186   0.552  11.603  11.774 -0.1428  0.6486 -0.2757
61792SOL    HW190187   0.581  11.596  11.865 -2.6170  1.3191  0.6235
61792SOL    HW290188   0.592  11.527  11.731  1.2575  0.4405  1.2921
61793SOL     OW90189   1.937   5.914   0.360  0.2768 -0.1194  0.2602
61793SOL    HW190190   1.973   5.827   0.380  0.4239  0.0028  0.5388
61793SOL    HW290191   1.992   5.974   0.410 -0.2249  0.0869  0.5696
61794SOL     OW90192  11.485  11.551  10.975  0.1818 -0.0993  0.1295
61794SOL    HW190193  11.507  11.552  10.882  1.5856  0.8488  0.4413
61794SOL    HW290194  11.414  11.615  10.983 -0.1251 -0.3786 -0.3199
61795SOL     OW90195   8.734   5.648  12.524 -0.4712  0.2492 -0.2623
61795SOL    HW190196   8.801   5.630  12.458  1.4606 -2.5350  2.1975
61795SOL    HW290197   8.770   5.719  12.576 -0.1298 -0.1815  0.1009
61796SOL     OW90198  12.485  10.450   0.508  0.0747 -0.4460  0.0332
61796SOL    HW190199  12.489  10.483   0.598  1.3508 -0.1823 -0.1013
61796SOL    HW290200  12.487  10.355   0.516 -1.3747 -0.4834  0.3247
61797SOL     OW90201  10.118  11.034  11.740  0.2909 -0.0477 -0.4085
61797SOL    HW190202  10.140  11.125  11.720  1.5216 -0.4992 -1.2832
61797SOL    HW290203  10.185  10.983  11.693 -1.0675 -1.4364 -0.9008
61798SOL     OW90204  10.274   1.051  11.433  0.2321  0.1808 -0.1223
61798SOL    HW190205  10.251   1.047  11.340 -0.4589  2.0070 -0.0808
61798SOL    HW290206  10.190   1.049  11.479  0.5326  0.0378  0.4275
61799SOL     OW90207   7.518  10.582  11.834  0.5721  0.2173  0.3489
61799SOL    HW190208   7.505  10.540  11.749 -1.1420  0.9369  0.2062
61799SOL    HW290209   7.597  10.634  11.823  1.9744 -1.8340  0.1118
61800SOL     OW90210   1.535   3.863   3.763  0.3976 -0.1134 -0.2349
61800SOL    HW190211   1.447   3.831   3.744 -0.9589  2.1953  1.5952
61800SOL    HW290212   1.572   3.799   3.823 -0.1801 -0.8826 -0.6872
61801SOL     OW90213  11.943   3.703   3.955  0.3897 -0.7561  0.1369
61801SOL    HW190214  11.958   3.622   3.908  0.8141 -0.1743 -0.7536
61801SOL    HW290215  12.015   3.761   3.929 -1.4138  0.9040 -1.5440
61802SOL     OW90216  10.373   5.006  12.443  0.0777  0.7303  0.1445
61802SOL    HW190217  10.445   4.992  12.382  0.7585  1.3093  0.7928
61802SOL    HW290218  10.415   5.029  12.526 -0.7792 -1.2005  1.1885
61803SOL     OW90219   5.313   7.143   0.211  0.2954 -0.2928 -0.5210
61803SOL    HW190220   5.258   7.198   0.267  0.0558 -0.2416 -0.8031
61803SOL    HW290221   5.368   7.206   0.162 -0.4740 -0.2525 -1.3652
61804SOL     OW90222  11.315  10.559  11.680  0.7275  0.0888  0.3263
61804SOL    HW190223  11.252  10.493  11.651  1.1916  0.2680 -1.1348
61804SOL    HW290224  11.264  10.639  11.691  0.8524  0.5806 -2.1214
61805SOL     OW90225  10.211  12.028   8.273 -0.1680  0.4679 -0.5243
61805SOL    HW190226  10.284  11.967   8.283 -0.5877  0.2993  2.3211
61805SOL    HW290227  10.244  12.094   8.212  1.2869 -1.1195 -1.5590
61806SOL     OW90228   2.434   5.622   5.452 -0.0859 -0.4466  0.2399
61806SOL    HW190229   2.375   5.659   5.518  0.8131 -1.0070  1.4049
61806SOL    HW290230   2.503   5.688   5.442 -1.1681  0.4765 -1.5623
61807SOL     OW90231   4.101   4.265   2.712 -0.0680  0.6363  0.1448
61807SOL    HW190232   4.176   4.310   2.750 -0.6705  0.9282  1.0326
61807SOL    HW290233   4.046   4.243   2.787 -0.8986  0.4849 -0.4900
61808SOL     OW90234   4.385  12.404   9.348  0.1692 -0.2422  0.0407
61808SOL    HW190235   4.380  12.329   9.406  1.4313 -1.2965 -1.1443
61808SOL    HW290236   4.458  12.384   9.289  0.0551  1.5722 -0.7817
61809SOL     OW90237   3.718   3.623   2.226 -0.4446 -0.0683  0.3250
61809SOL    HW190238   3.731   3.666   2.310 -0.1508  1.3419 -0.4098
61809SOL    HW290239   3.654   3.554   2.244 -1.5896  1.2035  1.3990
61810SOL     OW90240  12.364  11.190  10.793 -0.0393  0.4989  0.0850
61810SOL    HW190241  12.311  11.180  10.714 -0.0454 -0.8024  0.2398
61810SOL    HW290242  12.406  11.105  10.806  1.6150  1.3007  0.3263
61811SOL     OW90243  10.835   5.442  11.506 -0.0695 -0.1821 -0.3046
61811SOL    HW190244  10.785   5.380  11.452 -0.0994  0.6116 -1.2106
61811SOL    HW290245  10.922   5.402  11.512  0.3578  0.3656 -2.1579
61812SOL     OW90246   9.879   8.171   2.501 -0.1026  0.4471 -0.0913
61812SOL    HW190247   9.838   8.117   2.433  0.4828 -1.3528  0.9068
61812SOL    HW290248   9.964   8.195   2.464  0.6035 -1.2944  0.2844
61813SOL     OW90249   6.370   7.880  10.197 -0.1979 -0.2999  0.3447
61813SOL    HW190250   6.332   7.804  10.240 -1.5430  0.0150 -0.2282
61813SOL    HW290251   6.415   7.844  10.121 -0.0733 -0.6126  0.5655
61814SOL     OW90252   8.928   4.381   4.438  0.3627 -0.4251  0.5086
61814SOL    HW190253   9.009   4.345   4.476  0.8784 -0.2005 -0.3411
61814SOL    HW290254   8.948   4.474   4.423  0.1714 -0.5087 -0.2904
61815SOL     OW90255   2.025   5.637  12.047  0.3942 -0.1484  0.3496
61815SOL    HW190256   2.096   5.631  12.111  1.0860 -0.5354 -0.4286
61815SOL    HW290257   2.052   5.579  11.976  0.4029  1.4285 -0.9903
61816SOL     OW90258  11.535   2.742   6.045  0.4705 -0.1299  0.2959
61816SOL    HW190259  11.500   2.659   6.013 -0.7556  0.7299 -0.7015
61816SOL    HW290260  11.629   2.728   6.052  0.1993 -1.8418  0.9468
61817SOL     OW90261   0.543  11.370   4.364 -0.3586 -0.1955  0.1381
61817SOL    HW190262   0.632  11.391   4.391  0.2033 -2.4055  0.1294
61817SOL    HW290263   0.540  11.393   4.271  0.7303 -1.5966 -0.2668
61818SOL     OW90264   3.553   3.904   9.587  0.4178  0.3013  0.7002
61818SOL    HW190265   3.555   3.960   9.509 -1.6661 -0.1852  0.2553
61818SOL    HW290266   3.627   3.845   9.576 -0.1785 -0.1486 -1.2297
61819SOL     OW90267   7.124   4.116   8.884  0.1979 -0.4438 -0.4428
61819SOL    HW190268   7.064   4.042   8.879  0.0981 -0.4554  0.6393
61819SOL    HW290269   7.068   4.190   8.907  0.3481 -0.0975 -1.1711
61820SOL     OW90270   5.076   5.300   6.451  0.5297 -0.1459 -0.8432
61820SOL    HW190271   4.999   5.332   6.497  1.5131  0.2182  0.6194
61820SOL    HW290272   5.103   5.223   6.501  2.1507  0.7851 -0.2300
61821SOL     OW90273   1.898   3.356   9.083  0.6638 -0.2359 -0.1748
61821SOL    HW190274   1.879   3.333   9.174  0.3544  1.7329  0.3104
61821SOL    HW290275   1.992   3.377   9.082  0.4167  0.9650  0.0115
61822SOL     OW90276   8.116   2.262   3.767 -0.3137 -0.3433  0.3949
61822SOL    HW190277   8.189   2.324   3.763 -0.3575 -0.2663  0.7063
61822SOL    HW290278   8.040   2.316   3.788 -0.3686 -0.4862  0.5662
61823SOL     OW90279   7.697   1.066   5.037 -0.3823 -0.3682 -0.0899
61823SOL    HW190280   7.763   1.002   5.065 -2.2059 -2.5101 -0.4498
61823SOL    HW290281   7.640   1.076   5.113 -0.3969  0.4738 -0.2063
61824SOL     OW90282   6.870   4.453   4.001  0.2565 -0.1224 -0.0022
61824SOL    HW190283   6.890   4.542   3.974  2.3922 -0.3657  0.6199
61824SOL    HW290284   6.854   4.460   4.096  3.2668 -0.7255  0.6416
61825SOL     OW90285   5.029   4.759   9.215  0.4209 -0.2179 -0.2637
61825SOL    HW190286   5.085   4.808   9.155 -0.6648  1.8155  0.2673
61825SOL    HW290287   4.970   4.710   9.158  1.1851 -0.4994 -0.8300
61826SOL     OW90288   2.805   5.290  10.852  0.3634 -0.5354  0.3172
61826SOL    HW190289   2.787   5.354  10.922 -1.9030  0.1937 -0.8525
61826SOL    HW290290   2.734   5.227  10.858  0.2483 -0.5744 -1.2058
61827SOL     OW90291   4.613   3.288   9.258  0.2756  0.2622 -0.0698
61827SOL    HW190292   4.599   3.383   9.248 -0.3040 -0.0264 -3.0022
61827SOL    HW290293   4.525   3.251   9.251  0.5723 -0.5329  0.3639
61828SOL     OW90294   2.423   5.141   6.114 -0.6186 -0.2926  0.2128
61828SOL    HW190295   2.456   5.171   6.029 -1.2401 -0.9566 -0.2691
61828SOL    HW290296   2.351   5.200   6.133 -1.0766 -0.7168 -0.1719
61829SOL     OW90297   1.781  10.509  12.502 -0.5637  0.1639 -0.1746
61829SOL    HW190298   1.823  10.595  12.513  0.4660  0.1490 -3.1268
61829SOL    HW290299   1.842  10.448  12.544  1.4127  0.4104 -2.4373
61830SOL     OW90300  11.516   9.834   8.122 -0.2359  0.1912  0.5627
61830SOL    HW190301  11.499   9.756   8.174 -3.6567  0.8252  0.5884
61830SOL    HW290302  11.488   9.811   8.033 -1.3905  1.3649  0.5877
61831SOL     OW90303   2.407   1.887   3.090 -0.4663  0.1781 -0.3889
61831SOL    HW190304   2.462   1.856   3.019  1.1217  1.9453  0.0052
61831SOL    HW290305   2.346   1.948   3.049  0.4674  1.2189 -0.2673
61832SOL     OW90306   2.664   9.605  12.604 -0.2560 -0.1103  0.7929
61832SOL    HW190307   2.744   9.569  12.642  2.1387  2.6922 -1.0599
61832SOL    HW290308   2.673   9.700  12.615 -2.3062  0.4301 -1.2856
61833SOL     OW90309   8.803   5.911   1.768 -0.3328  0.6770 -0.4374
61833SOL    HW190310   8.858   5.948   1.836 -0.3401  0.6117 -0.3959
61833SOL    HW290311   8.751   5.844   1.813 -0.9458  1.2212 -0.3351
61834SOL     OW90312   7.221   0.828   8.979  0.2533 -0.0555 -0.5399
61834SOL    HW190313   7.232   0.855   9.070 -0.4038 -0.9323 -0.1855
61834SOL    HW290314   7.235   0.907   8.928 -0.0502  0.5910  0.3683
61835SOL     OW90315   2.265   9.711   9.360  0.3315 -0.5107 -0.3310
61835SOL    HW190316   2.191   9.716   9.421  0.4939 -0.9774 -0.0898
61835SOL    HW290317   2.294   9.620   9.365  0.4945 -0.4989 -0.9346
61836SOL     OW90318   8.763   5.252   5.637  0.1717 -0.6321 -0.1690
61836SOL    HW190319   8.808   5.304   5.570  0.5591 -0.1183  0.4856
61836SOL    HW290320   8.834   5.205   5.681 -0.1855 -1.8645 -0.8640
61837SOL     OW90321   8.675   9.982   8.642  0.3341  0.1551 -0.0078
61837SOL    HW190322   8.729   9.939   8.708  0.5027  0.1942 -0.1200
61837SOL    HW290323   8.721   9.967   8.559 -0.7612 -1.3648 -0.3769
61838SOL     OW90324  10.287   8.640  12.580 -0.1478  0.4190 -0.3903
61838SOL    HW190325  10.348   8.713  12.573  1.0177 -0.1301  2.5628
61838SOL    HW290326  10.341   8.566  12.607 -1.7654 -0.7351 -0.1619
61839SOL     OW90327   0.642  11.473   4.116 -0.1162 -0.2733  0.1609
61839SOL    HW190328   0.609  11.548   4.067 -1.5110 -0.4922  0.7163
61839SOL    HW290329   0.732  11.496   4.139  0.4993 -0.0665 -2.2555
61840SOL     OW90330   2.892   2.918  12.117  0.2311  0.2099  0.2964
61840SOL    HW190331   2.971   2.881  12.157 -0.2978  0.2128  1.3747
61840SOL    HW290332   2.820   2.878  12.166 -0.4760 -0.3330 -1.1333
61841SOL     OW90333   5.533  10.633   0.967  0.3655  0.1657  0.7102
61841SOL    HW190334   5.445  10.638   1.004 -0.0933  1.5969 -0.4914
61841SOL    HW290335   5.578  10.710   1.003  0.4536  0.6140 -0.3357
61842SOL     OW90336  11.892   8.870   2.455 -0.3888 -0.2198  0.3009
61842SOL    HW190337  11.806   8.852   2.417  0.4293 -0.6818 -1.4103
61842SOL    HW290338  11.955   8.842   2.388  1.0915  0.7200  1.2316
61843SOL     OW90339   0.742   5.296   9.987  0.0370  0.5253 -0.3843
61843SOL    HW190340   0.679   5.236  10.026 -0.5582  0.6072 -1.2065
61843SOL    HW290341   0.782   5.246   9.916  1.1495  0.3595  0.3334
61844SOL     OW90342  12.610   1.420   3.403 -0.6327 -0.4101 -0.1454
61844SOL    HW190343  12.578   1.506   3.378  0.7378 -0.1687 -1.2342
61844SOL    HW290344  12.705   1.432   3.414 -0.3736 -1.8116 -0.5757
61845SOL     OW90345   4.694   5.067   2.805  0.0528 -0.9629  0.6916
61845SOL    HW190346   4.706   5.086   2.898 -1.1542 -0.0227  0.6738
61845SOL    HW290347   4.630   4.996   2.803 -0.1269 -0.7989  0.5723
61846SOL     OW90348   5.078   1.037   1.774 -0.5347  0.0463 -0.1977
61846SOL    HW190349   5.075   0.971   1.705  1.3235  0.8045 -1.0696
61846SOL    HW290350   5.104   0.989   1.852  2.4266 -0.0870 -1.1720
61847SOL     OW90351   9.621   2.093  11.212  0.0993 -0.1333 -0.3964
61847SOL    HW190352   9.538   2.110  11.168 -0.6918 -1.4645  0.5029
61847SOL    HW290353   9.655   2.179  11.234 -1.4806  0.4158  0.0035
61848SOL     OW90354   0.298   0.509   5.031 -0.5256 -0.3600  0.0796
61848SOL    HW190355   0.332   0.589   5.070  0.0717 -0.5388 -0.0707
61848SOL    HW290356   0.243   0.471   5.100 -0.2358 -0.1885  0.4098
61849SOL     OW90357  10.419   3.292   7.449 -0.6518 -0.0505  0.2518
61849SOL    HW190358  10.339   3.338   7.472  0.1389  0.7941  1.4129
61849SOL    HW290359  10.468   3.285   7.531  0.9013  0.3332 -0.5930
61850SOL     OW90360   2.565   4.490   8.752 -0.6167 -0.1303 -0.7740
61850SOL    HW190361   2.650   4.534   8.756 -0.1098 -1.1628  0.4126
61850SOL    HW290362   2.520   4.515   8.833 -1.0366 -0.3971 -0.9212
61851SOL     OW90363   3.548   4.774   0.737  0.7364 -0.6984  0.2993
61851SOL    HW190364   3.631   4.726   0.734 -0.0268 -2.0323 -1.2817
61851SOL    HW290365   3.573   4.866   0.743  2.3559 -1.0575 -0.4562
61852SOL     OW90366   6.757   9.957   6.742 -0.4802  0.0910  0.2109
61852SOL    HW190367   6.804  10.041   6.744  0.0615 -0.1072 -1.9549
61852SOL    HW290368   6.699   9.963   6.666 -3.1562 -0.1674  2.0888
61853SOL     OW90369   8.637   0.141   9.361  0.5145 -0.0056 -0.7673
61853SOL    HW190370   8.552   0.101   9.346  1.2073 -1.5932 -0.6971
61853SOL    HW290371   8.658   0.119   9.452  1.0542  0.2367 -0.8282
61854SOL     OW90372  10.980   4.048   4.196  0.2416 -0.0452 -0.2156
61854SOL    HW190373  10.985   3.960   4.158  1.3402 -0.8168  1.6020
61854SOL    HW290374  11.056   4.053   4.254 -0.2671  1.8105  0.3360
61855SOL     OW90375   4.850  10.030   2.854 -0.0844  0.3904  0.6320
61855SOL    HW190376   4.804  10.065   2.930 -0.7390  0.1451  0.3531
61855SOL    HW290377   4.781  10.009   2.791  0.5147  1.7204 -0.5157
61856SOL     OW90378   8.822  11.684   9.640 -0.2135 -0.2288  0.8032
61856SOL    HW190379   8.738  11.642   9.652 -1.3640  1.5970 -0.3547
61856SOL    HW290380   8.804  11.758   9.582  2.3124 -0.1959 -0.0734
61857SOL     OW90381   2.810   4.343  11.223 -0.2494 -0.6161 -0.1149
61857SOL    HW190382   2.759   4.305  11.295  0.4316 -0.4515  0.4603
61857SOL    HW290383   2.901   4.328  11.247 -0.0069 -1.7855 -1.6046
61858SOL     OW90384   5.685  11.625  12.229  0.1843 -0.0043 -0.0453
61858SOL    HW190385   5.753  11.678  12.272  0.8108 -0.6813 -0.1704
61858SOL    HW290386   5.722  11.605  12.143 -0.1267 -0.4793 -0.0701
61859SOL     OW90387  11.928   4.156   3.870 -0.3661  0.3440 -0.5318
61859SOL    HW190388  11.888   4.235   3.835 -0.8751  0.1864 -0.3268
61859SOL    HW290389  11.934   4.172   3.964  0.4590  0.5378 -0.6176
61860SOL     OW90390   3.638   5.515   0.272  0.3649  0.0140  0.3966
61860SOL    HW190391   3.602   5.437   0.229  0.2167  0.3281 -0.0527
61860SOL    HW290392   3.697   5.553   0.207 -1.1807  1.4721 -0.2198
61861SOL     OW90393   9.225   3.779   5.846 -0.1276  0.0956  0.3332
61861SOL    HW190394   9.195   3.689   5.847  0.4317 -0.1392 -1.0358
61861SOL    HW290395   9.162   3.827   5.900  0.6980 -1.4154  2.8063
61862SOL     OW90396   6.675   1.636   2.689  0.2150  0.7569 -0.2901
61862SOL    HW190397   6.704   1.551   2.655  1.9537  0.0596  2.6387
61862SOL    HW290398   6.620   1.615   2.765  0.0729  2.2591  0.0644
61863SOL     OW90399   0.081   1.217   2.131 -0.1870  0.3600 -0.2315
61863SOL    HW190400   0.015   1.199   2.065 -1.4051 -1.3206  1.3451
61863SOL    HW290401   0.050   1.295   2.176  0.1078  0.8888 -0.9138
61864SOL     OW90402   4.556   4.846   0.199 -0.1728 -0.3198  0.0719
61864SOL    HW190403   4.558   4.780   0.129  1.3490  0.3618 -0.5869
61864SOL    HW290404   4.642   4.887   0.195 -1.6846  3.0758 -0.8504
61865SOL     OW90405   1.919   9.628   4.535 -0.0193  0.7024  0.2808
61865SOL    HW190406   1.902   9.639   4.441 -0.6380  0.1175  0.3219
61865SOL    HW290407   1.861   9.693   4.577 -0.6176  0.1564  0.3125
61866SOL     OW90408   9.581   6.497  10.935  0.1449 -0.0403 -0.0089
61866SOL    HW190409   9.622   6.418  10.970  0.6431  0.0272 -0.4169
61866SOL    HW290410   9.560   6.549  11.013  1.4130  0.1953  0.2037
61867SOL     OW90411  11.175   6.506   0.857 -0.0649  0.7878  0.4870
61867SOL    HW190412  11.183   6.553   0.773  1.0272 -0.0906  0.0657
61867SOL    HW290413  11.263   6.471   0.873 -0.6018 -0.2551  1.2899
61868SOL     OW90414   4.868   8.745   2.502  0.1502 -0.2290  0.4815
61868SOL    HW190415   4.941   8.758   2.563  0.1723 -0.1568  0.4400
61868SOL    HW290416   4.910   8.716   2.421  0.1568  0.0884  0.3712
61869SOL     OW90417   2.471   5.967  11.452  0.7413  0.2274  0.5293
61869SOL    HW190418   2.553   6.010  11.429  1.0469 -0.9344 -0.6276
61869SOL    HW290419   2.488   5.930  11.539  1.5107 -0.1784  0.2141
61870SOL     OW90420  12.277   3.300   6.582  0.0594 -0.0347  0.5197
61870SOL    HW190421  12.194   3.340   6.608 -0.8292 -0.6444 -1.2419
61870SOL    HW290422  12.267   3.282   6.488  1.6823 -1.3195  0.5471
61871SOL     OW90423   2.193   4.953  12.348  0.0345 -0.2487 -0.3670
61871SOL    HW190424   2.275   4.925  12.309  0.1609  0.2107 -0.4303
61871SOL    HW290425   2.136   4.971  12.274 -0.2128 -0.8195 -0.3223
61872SOL     OW90426   3.982   8.222   2.538  0.1636 -0.1050  0.5101
61872SOL    HW190427   4.073   8.209   2.509  0.1412  1.2549 -0.2705
61872SOL    HW290428   3.975   8.170   2.618  0.9553 -2.0471 -0.6178
61873SOL     OW90429   8.839   1.866   0.733 -0.8979  0.5409 -0.1709
61873SOL    HW190430   8.877   1.907   0.811 -2.4032 -0.1468  0.9659
61873SOL    HW290431   8.760   1.917   0.716 -2.4494 -1.3928  0.8745
61874SOL     OW90432   3.511   0.540   0.578 -0.1251 -0.4865 -0.1069
61874SOL    HW190433   3.492   0.620   0.627  0.8417 -1.1560  1.4764
61874SOL    HW290434   3.428   0.493   0.574 -0.1336 -0.6557  1.4301
61875SOL     OW90435   9.893   2.813   0.648 -0.0035 -0.0464  0.0820
61875SOL    HW190436   9.815   2.861   0.619  0.2322 -0.4631 -1.3501
61875SOL    HW290437   9.859   2.729   0.679 -0.4136  0.9482  2.5572
61876SOL     OW90438   9.594   4.278   4.000  0.0781 -0.4727 -0.1418
61876SOL    HW190439   9.633   4.341   4.061  0.8243 -2.0493  1.0696
61876SOL    HW290440   9.657   4.272   3.928 -0.8405  1.4512 -1.2110
61877SOL     OW90441   0.315  10.549   1.394 -0.6685  0.0529 -0.2278
61877SOL    HW190442   0.245  10.607   1.362  0.0007  1.1860  0.3203
61877SOL    HW290443   0.339  10.497   1.317 -1.5392  0.2258 -0.6376
61878SOL     OW90444   8.268   9.864  10.979  0.2431  0.0087  0.1200
61878SOL    HW190445   8.284   9.927  10.908 -1.8945  2.2181  1.4280
61878SOL    HW290446   8.173   9.854  10.981  0.3940 -1.5622  1.4237
61879SOL     OW90447  10.837   2.296   2.407  0.5562 -0.3475  0.0223
61879SOL    HW190448  10.858   2.227   2.344  0.3234 -0.4501  0.0568
61879SOL    HW290449  10.827   2.250   2.490  2.0152 -0.0762  0.3730
61880SOL     OW90450   6.015  11.282  12.559 -0.3594  0.0882  0.2734
61880SOL    HW190451   5.952  11.315  12.623 -2.2055  0.7332 -1.7514
61880SOL    HW290452   5.968  11.285  12.475  2.5066  1.0672 -1.4424
61881SOL     OW90453   2.191   4.898  11.209 -0.0023  0.2651  0.0388
61881SOL    HW190454   2.231   4.819  11.245  0.4674 -0.5118 -2.0266
61881SOL    HW290455   2.108   4.907  11.256 -0.0693 -1.4714  0.3039
61882SOL     OW90456   4.085  10.160  11.153 -0.3469  0.1675 -0.0211
61882SOL    HW190457   4.150  10.213  11.106 -1.4586  1.3387 -0.2731
61882SOL    HW290458   4.136  10.086  11.187  0.5830 -0.6592 -2.8879
61883SOL     OW90459   6.110   9.360   1.457  0.3092 -0.1722  0.5229
61883SOL    HW190460   6.042   9.302   1.422  0.2395  0.4344 -0.4040
61883SOL    HW290461   6.163   9.305   1.514  0.2110 -1.1344 -0.2918
61884SOL     OW90462  10.398   7.032   6.710 -0.0173  0.5034  0.0122
61884SOL    HW190463  10.332   7.012   6.776  0.8349 -2.2027  0.1670
61884SOL    HW290464  10.473   7.064   6.760  0.3421 -0.7703  0.3255
61885SOL     OW90465   8.576   3.943   7.313 -0.0214  0.0702  0.0764
61885SOL    HW190466   8.494   3.970   7.355 -0.5589  0.9585 -1.4853
61885SOL    HW290467   8.549   3.900   7.232  0.9952 -1.6540  0.6059
61886SOL     OW90468   9.036   5.762   8.230  0.1418  0.3817  0.4366
61886SOL    HW190469   8.998   5.675   8.234  1.5380 -0.3061 -0.5110
61886SOL    HW290470   9.055   5.784   8.321  2.0372 -1.3644  0.5146
61887SOL     OW90471   3.647   0.589   1.304  0.5612  0.2322  0.7798
61887SOL    HW190472   3.690   0.505   1.294  1.0069  0.4951  0.4148
61887SOL    HW290473   3.645   0.625   1.215 -2.3774 -0.7058  0.3438
61888SOL     OW90474   5.654   7.610   5.449  0.7566 -0.5614  0.3963
61888SOL    HW190475   5.678   7.687   5.398 -0.6694 -0.5922 -0.3465
61888SOL    HW290476   5.592   7.563   5.395 -1.8373  0.0594  2.5850
61889SOL     OW90477   7.442   3.949   4.479 -0.3474  0.7405 -0.1492
61889SOL    HW190478   7.526   3.966   4.522  0.6879 -0.2217 -1.6681
61889SOL    HW290479   7.428   3.855   4.490 -0.8486  0.7701 -0.5325
61890SOL     OW90480  10.726   1.629   6.549 -0.6279 -0.0348 -0.2785
61890SOL    HW190481  10.784   1.556   6.568  0.5542  1.2980  1.6033
61890SOL    HW290482  10.663   1.629   6.621 -2.9844 -1.3797 -2.2158
61891SOL     OW90483   5.196   9.051  10.382 -0.6160  0.1856  0.2876
61891SOL    HW190484   5.272   9.047  10.324 -0.9506  3.1756 -0.5117
61891SOL    HW290485   5.232   9.080  10.466 -0.8217  1.3134 -0.0090
61892SOL     OW90486   7.512   5.908   5.129 -0.4622  0.4454  0.0861
61892SOL    HW190487   7.603   5.938   5.136 -0.4688  0.4978 -0.0519
61892SOL    HW290488   7.464   5.984   5.098 -0.1133 -0.2866 -2.5085
61893SOL     OW90489   8.544   4.775   5.817  0.2591  0.0447  0.2897
61893SOL    HW190490   8.538   4.766   5.721 -0.7582 -0.5950  0.3878
61893SOL    HW290491   8.592   4.697   5.845  3.2524  1.6956  0.0939
61894SOL     OW90492   6.054   0.687   6.363  0.3389  0.1579 -0.1498
61894SOL    HW190493   6.048   0.664   6.271  1.3610  1.0218 -0.4499
61894SOL    HW290494   6.008   0.771   6.370  1.1059  0.5747 -0.0679
61895SOL     OW90495   5.273   9.392   2.247 -0.0971  0.0389 -0.2108
61895SOL    HW190496   5.279   9.411   2.340  1.5566  1.8048 -0.5902
61895SOL    HW290497   5.269   9.479   2.205 -2.1381 -0.7149 -1.7442
61896SOL     OW90498  10.046   8.936   3.187  0.3586  0.0793  0.0711
61896SOL    HW190499   9.989   8.992   3.135 -0.0104 -0.0795  0.2980
61896SOL    HW290500  10.133   8.971   3.174  0.1563  0.5694  0.0361
61897SOL     OW90501  12.502   4.374   2.062  0.1806 -0.2696 -0.0288
61897SOL    HW190502  12.518   4.461   2.099 -0.7239 -0.5591  1.1055
61897SOL    HW290503  12.407   4.364   2.066  0.0414 -0.4466 -2.2176
61898SOL     OW90504   8.416   4.229   7.705  0.1956  0.4104 -0.4564
61898SOL    HW190505   8.340   4.183   7.669  0.4578  1.1344 -1.9922
61898SOL    HW290506   8.488   4.166   7.697  0.0579  0.2326 -0.3127
61899SOL     OW90507   0.943  11.310   2.996  0.7446  0.1843 -0.2903
61899SOL    HW190508   0.997  11.231   2.990  1.1755  0.3807  0.8198
61899SOL    HW290509   0.999  11.374   3.038 -0.0700  0.6514  0.1103
61900SOL     OW90510   0.952   6.383   4.872  0.4383  0.1566 -0.3398
61900SOL    HW190511   0.982   6.400   4.961 -0.1794 -1.2588  0.1697
61900SOL    HW290512   0.997   6.301   4.847 -0.0102  0.1085 -1.0228
61901SOL     OW90513  10.661   8.270   5.711 -0.4918 -0.0963  0.4367
61901SOL    HW190514  10.640   8.211   5.783  0.5149  0.9837  1.6729
61901SOL    HW290515  10.746   8.308   5.736  0.0022  0.1406 -1.4353
61902SOL     OW90516   0.598   3.717   2.404  0.2673  0.0267 -0.2755
61902SOL    HW190517   0.678   3.665   2.399 -0.4315 -1.3492  1.6572
61902SOL    HW290518   0.530   3.654   2.431 -0.8505  1.7099  1.0633
61903SOL     OW90519   0.250   3.414   8.957 -0.1916  0.1779 -0.0300
61903SOL    HW190520   0.220   3.496   8.995  0.8446  1.0491 -1.0080
61903SOL    HW290521   0.247   3.351   9.029 -1.2097  1.0145  0.6766
61904SOL     OW90522   5.792   9.750   3.901 -0.0665  0.2933 -0.2825
61904SOL    HW190523   5.886   9.763   3.900 -0.1805  1.1335 -0.3529
61904SOL    HW290524   5.765   9.777   3.989 -0.2661  0.2292 -0.3231
61905SOL     OW90525   6.443   3.805  10.728  0.2557 -0.0107 -0.0023
61905SOL    HW190526   6.387   3.845  10.794 -0.4102 -0.2757 -0.3917
61905SOL    HW290527   6.421   3.851  10.647  0.8946  0.1532 -0.0883
61906SOL     OW90528  11.149   2.721   7.761  0.8722  0.5502  0.1736
61906SOL    HW190529  11.082   2.665   7.800  0.0820  0.4176 -1.3022
61906SOL    HW290530  11.127   2.809   7.792  0.1283  0.4814 -0.1299
61907SOL     OW90531   9.489   9.973   4.776 -0.1726  0.1968 -0.2824
61907SOL    HW190532   9.400   9.980   4.743 -0.2515  2.1240  0.2412
61907SOL    HW290533   9.480   9.974   4.871  0.4345  1.3166 -0.2202
61908SOL     OW90534   3.719  10.203   8.938 -0.2393  0.3279  0.0779
61908SOL    HW190535   3.813  10.218   8.930 -0.4192  1.3744 -0.2819
61908SOL    HW290536   3.699  10.138   8.870  0.4454 -1.0052  1.1236
61909SOL     OW90537   3.711  11.084  10.378 -0.0025 -0.6839 -0.0239
61909SOL    HW190538   3.617  11.090  10.364  0.1207 -1.3936 -1.3234
61909SOL    HW290539   3.734  10.995  10.352  0.9866 -0.6239  0.5794
61910SOL     OW90540   9.643  10.040   7.295 -0.2474  0.5946 -0.3083
61910SOL    HW190541   9.629   9.959   7.344  0.8151  1.1563  0.9755
61910SOL    HW290542   9.652  10.011   7.204  1.5028 -0.8961  0.2913
61911SOL     OW90543   2.109   0.410   5.893 -0.3276 -0.0479  0.1280
61911SOL    HW190544   2.184   0.459   5.924  0.2650 -0.1132 -1.1327
61911SOL    HW290545   2.081   0.357   5.968  0.3914  0.5535  0.8294
61912SOL     OW90546  11.102  10.076   2.632  0.6269 -0.4746  0.3841
61912SOL    HW190547  11.155   9.998   2.645  1.6986  0.2325  0.4284
61912SOL    HW290548  11.155  10.132   2.575  0.0736  0.3956  0.6931
61913SOL     OW90549  11.295   5.268   3.218 -0.1922 -0.6440 -0.0837
61913SOL    HW190550  11.310   5.333   3.286 -1.0296  1.5132 -1.8359
61913SOL    HW290551  11.375   5.270   3.165 -0.8533  0.2452 -1.0945
61914SOL     OW90552   9.418   2.423   6.012  0.3296  0.3993  0.1289
61914SOL    HW190553   9.376   2.471   5.940  0.2227 -0.7052 -0.5594
61914SOL    HW290554   9.474   2.488   6.055 -1.5758  1.7651  0.6875
61915SOL     OW90555   8.783  11.136   5.424  0.2448  0.3210 -0.2064
61915SOL    HW190556   8.712  11.144   5.489 -0.4240  0.2516 -0.9185
61915SOL    HW290557   8.848  11.201   5.452 -0.2024  0.5528  0.3231
61916SOL     OW90558   3.924   6.269   9.357  0.2582 -0.3386 -0.0091
61916SOL    HW190559   3.829   6.282   9.362  0.3634  1.1892 -1.0486
61916SOL    HW290560   3.957   6.352   9.321  2.1630 -0.2799  1.7044
61917SOL     OW90561   7.152   3.648   5.570  0.3743  0.4694  0.4033
61917SOL    HW190562   7.077   3.696   5.535 -0.6324 -2.2416 -1.4675
61917SOL    HW290563   7.180   3.591   5.499  2.3613 -0.7183  2.0200
61918SOL     OW90564   2.551   4.644  10.242 -0.1977  0.0520 -0.1855
61918SOL    HW190565   2.492   4.607  10.177 -0.1302 -2.3508  1.0054
61918SOL    HW290566   2.497   4.656  10.320  0.3950 -0.1958  0.2783
61919SOL     OW90567   0.679  11.162   5.882 -0.1408 -0.2285  0.2055
61919SOL    HW190568   0.700  11.252   5.854 -1.3409  0.0753  0.2342
61919SOL    HW290569   0.671  11.168   5.977 -2.9218  0.2705  0.0145
61920SOL     OW90570   4.155   2.493   0.574 -0.7594  0.1251  0.0366
61920SOL    HW190571   4.163   2.450   0.489  1.0594  1.3567 -0.4818
61920SOL    HW290572   4.133   2.423   0.634 -1.7214 -0.8463 -1.3845
61921SOL     OW90573   5.285  12.039   9.007 -0.0818 -0.0661 -0.7397
61921SOL    HW190574   5.320  12.042   9.096  1.1261  0.0471 -1.2004
61921SOL    HW290575   5.222  11.968   9.008 -0.0359 -0.1024  0.1913
61922SOL     OW90576   7.235   3.594   6.149  0.4906  0.4890  0.0796
61922SOL    HW190577   7.195   3.519   6.105  0.5231  1.0174 -0.8757
61922SOL    HW290578   7.293   3.632   6.083 -0.2324  1.9094  0.2268
61923SOL     OW90579   5.107   1.538   1.744 -0.4348  0.0912  0.0919
61923SOL    HW190580   5.089   1.548   1.838  1.4486  1.0476  0.3913
61923SOL    HW290581   5.074   1.451   1.723 -0.5946 -0.2806  1.7307
61924SOL     OW90582   9.471   5.770  12.425 -0.3421 -0.3400  0.0308
61924SOL    HW190583   9.502   5.768  12.335 -0.5161 -1.7174 -0.0251
61924SOL    HW290584   9.546   5.744  12.477  0.2034  1.8984  0.4697
61925SOL     OW90585   8.429   3.941   1.212  0.0648  0.3160 -0.0665
61925SOL    HW190586   8.497   3.983   1.159  0.6205 -1.5345 -0.9200
61925SOL    HW290587   8.379   3.888   1.149  0.3937 -1.5117  1.1444
61926SOL     OW90588  10.154   7.500   0.640 -0.0125 -0.0768 -0.3557
61926SOL    HW190589  10.242   7.516   0.676  0.6520 -0.8309 -1.5832
61926SOL    HW290590  10.115   7.587   0.634  1.1147  0.4207 -0.9007
61927SOL     OW90591   5.237   2.778   3.171 -0.1433  0.0018 -0.3661
61927SOL    HW190592   5.170   2.835   3.134  0.9520  0.9818 -0.8879
61927SOL    HW290593   5.312   2.786   3.112  1.3560  0.9607  1.5393
61928SOL     OW90594   0.711   4.329   9.549 -0.7086  0.7861 -0.7317
61928SOL    HW190595   0.751   4.251   9.588 -0.2229  1.1534 -0.4685
61928SOL    HW290596   0.675   4.377   9.623  0.0974  1.4225 -0.7308
61929SOL     OW90597   2.287   9.630   9.759 -0.0157  0.6212 -0.1668
61929SOL    HW190598   2.275   9.560   9.695  2.4778 -1.0814  1.0540
61929SOL    HW290599   2.210   9.626   9.815  0.3521 -1.6493  0.2557
61930SOL     OW90600   2.251   3.237   4.096 -0.1783  0.6135 -0.9780
61930SOL    HW190601   2.338   3.206   4.072  0.0164  0.3969 -0.0266
61930SOL    HW290602   2.216   3.170   4.154 -0.1478  1.6631  0.2933
61931SOL     OW90603   2.312   6.426  10.712  0.3818 -0.8357 -0.2976
61931SOL    HW190604   2.378   6.458  10.774  0.7942  0.9634 -1.5970
61931SOL    HW290605   2.271   6.352  10.757  0.5629  0.4793  2.1901
61932SOL     OW90606   8.444   5.981   0.883 -0.0089 -0.0220  0.1140
61932SOL    HW190607   8.506   5.922   0.839 -0.4071 -1.0419  0.8939
61932SOL    HW290608   8.396   5.925   0.943  1.9531  1.6311  3.5043
61933SOL     OW90609   8.679   4.978  11.967 -0.3855 -0.2182  0.0252
61933SOL    HW190610   8.676   5.053  12.026  0.4649 -0.9262  1.0141
61933SOL    HW290611   8.705   5.015  11.883 -1.6220  0.8144  0.0664
61934SOL     OW90612   7.477  11.544   1.395  0.4453 -0.7532 -0.2826
61934SOL    HW190613   7.384  11.561   1.408  0.6401  0.6116 -0.4952
61934SOL    HW290614   7.503  11.490   1.469 -0.5464 -1.2977 -0.3185
61935SOL     OW90615   6.581   5.596   3.845  0.0884 -0.5696  0.1197
61935SOL    HW190616   6.630   5.563   3.920  1.3278  1.3515  0.2032
61935SOL    HW290617   6.642   5.591   3.772  0.6286  2.0458  0.2711
61936SOL     OW90618   0.551   9.294  11.430  0.2032 -0.7554  0.6005
61936SOL    HW190619   0.561   9.388  11.414  0.4520 -0.4757  2.2989
61936SOL    HW290620   0.595   9.253  11.355  0.1357  0.4559 -0.1422
61937SOL     OW90621  10.463   5.577   4.107 -0.4665 -0.4544 -0.2012
61937SOL    HW190622  10.426   5.659   4.137  0.0511 -0.6511  1.0312
61937SOL    HW290623  10.388   5.525   4.079 -0.7634  0.5679 -1.3975
61938SOL     OW90624   3.949  10.976   4.690 -0.1454  0.0793  0.6594
61938SOL    HW190625   3.968  10.935   4.775  1.4239  1.5863  1.0861
61938SOL    HW290626   3.995  10.921   4.627 -0.3279 -0.3656  0.9057
61939SOL     OW90627  11.179   3.989   6.239 -0.9331 -0.1782 -0.3112
61939SOL    HW190628  11.248   3.997   6.305 -1.7320 -0.0348  0.5361
61939SOL    HW290629  11.127   4.068   6.250 -0.9495 -0.0484 -1.2836
61940SOL     OW90630   7.585  12.502  12.406  0.1807 -0.1002  0.1130
61940SOL    HW190631   7.601  12.421  12.454 -3.8505 -0.0085  1.9601
61940SOL    HW290632   7.555  12.474  12.320  1.6594 -0.4048 -0.3354
61941SOL     OW90633  12.109   4.834   2.126 -0.0257 -0.3511 -0.7870
61941SOL    HW190634  12.155   4.853   2.208 -0.1476 -0.3094 -0.7280
61941SOL    HW290635  12.042   4.770   2.150 -0.8286  0.5393 -0.6243
61942SOL     OW90636   9.789   2.214  12.039 -0.1179 -0.3080 -0.1341
61942SOL    HW190637   9.884   2.206  12.036  0.0566 -0.1931  2.6296
61942SOL    HW290638   9.757   2.141  11.986  1.4953 -0.6029 -0.7438
61943SOL     OW90639  10.444   0.514   3.387  0.0058  0.1365 -0.2544
61943SOL    HW190640  10.399   0.593   3.416 -0.5030 -0.2528  0.0375
61943SOL    HW290641  10.413   0.501   3.297 -2.5427 -1.5403  0.7338
61944SOL     OW90642  11.835   9.717  11.188 -0.7762  0.4375  0.0186
61944SOL    HW190643  11.872   9.757  11.267 -3.1863 -1.2451  2.1835
61944SOL    HW290644  11.743   9.745  11.188 -1.0008 -0.1703 -1.8536
61945SOL     OW90645   8.860   7.159  12.614 -0.1639 -0.2083 -0.1412
61945SOL    HW190646   8.779   7.165  12.564  0.5879 -0.3680 -1.4124
61945SOL    HW290647   8.853   7.075  12.660 -1.0786  0.1710  0.4379
61946SOL     OW90648  10.232   1.223   2.451  0.3228 -0.1051  0.3401
61946SOL    HW190649  10.231   1.273   2.370  0.6617 -1.3071 -0.4445
61946SOL    HW290650  10.313   1.172   2.446  0.6429  0.2315  1.7191
61947SOL     OW90651   6.909   6.206   6.286  0.4271 -0.4810  0.4133
61947SOL    HW190652   6.903   6.234   6.194 -0.3512  1.6826  1.0554
61947SOL    HW290653   6.906   6.110   6.282  0.6771 -0.4552 -1.8220
61948SOL     OW90654   2.700   1.539   3.061 -0.3183 -0.3700 -0.4335
61948SOL    HW190655   2.763   1.610   3.049  0.0305 -0.7975 -1.1503
61948SOL    HW290656   2.629   1.579   3.112  1.0170 -0.1817  1.3488
61949SOL     OW90657   4.816   2.559  10.013  0.1952  0.5356 -0.0878
61949SOL    HW190658   4.894   2.508   9.990 -0.3556 -1.4165  2.0219
61949SOL    HW290659   4.850   2.635  10.061  0.8318 -1.3585  2.6684
61950SOL     OW90660   8.441   7.596  10.253  0.1280  0.2220  0.3309
61950SOL    HW190661   8.411   7.515  10.213 -1.1340  1.1676 -0.7319
61950SOL    HW290662   8.423   7.584  10.346 -0.6176 -0.4831  0.1093
61951SOL     OW90663   1.194   9.911   0.462 -0.4937  0.0168 -0.0732
61951SOL    HW190664   1.184   9.941   0.553 -0.4141 -0.5081  0.1096
61951SOL    HW290665   1.105   9.902   0.430 -0.5278 -0.1372  0.0650
61952SOL     OW90666   9.456  10.333   7.615 -0.2034 -0.0949  0.4212
61952SOL    HW190667   9.514  10.258   7.624 -2.7724 -2.2858  0.0089
61952SOL    HW290668   9.399  10.330   7.692 -1.3906  0.4151 -0.3912
61953SOL     OW90669   4.286   3.118   4.887  0.0549  0.0335  0.6526
61953SOL    HW190670   4.329   3.141   4.805 -3.8965  2.0367 -1.1233
61953SOL    HW290671   4.267   3.203   4.928 -0.6770 -0.8229  2.1673
61954SOL     OW90672   2.386   9.046   0.745  0.1354  0.4182  0.0894
61954SOL    HW190673   2.379   9.092   0.829 -1.2294 -0.1401  0.3080
61954SOL    HW290674   2.440   9.104   0.691  0.3715  1.1655  1.0898
61955SOL     OW90675   0.630   5.851   5.024  0.1123 -0.3977 -0.4127
61955SOL    HW190676   0.667   5.920   4.969  1.4198  0.7709  1.8147
61955SOL    HW290677   0.698   5.783   5.026 -0.6193 -1.2022 -1.5106
61956SOL     OW90678  12.617   5.958   1.425  0.2899  0.6482  0.3165
61956SOL    HW190679  12.713   5.953   1.424  0.2208 -1.3495 -0.1094
61956SOL    HW290680  12.592   5.913   1.506 -0.3240  0.5474  0.0754
61957SOL     OW90681  10.161   0.975   7.842  0.0552 -0.6584 -0.1113
61957SOL    HW190682  10.102   1.049   7.855  0.8246 -0.2135  0.9881
61957SOL    HW290683  10.240   1.014   7.805 -0.3042 -1.2496 -1.5828
61958SOL     OW90684   5.859   5.282   4.525  0.1395  0.1990 -0.2657
61958SOL    HW190685   5.835   5.291   4.433 -2.0122 -0.5154  0.1607
61958SOL    HW290686   5.779   5.249   4.568  1.8681 -2.2926  1.3691
61959SOL     OW90687   7.667   8.491   1.399  0.0558 -0.1370 -0.2832
61959SOL    HW190688   7.719   8.484   1.319  0.2353  0.9294 -0.2792
61959SOL    HW290689   7.702   8.423   1.457 -0.0456 -0.8856 -1.0824
61960SOL     OW90690  10.451  10.045  11.223 -0.4484 -0.2019 -0.1377
61960SOL    HW190691  10.522   9.992  11.187  1.4197  0.0349  2.8608
61960SOL    HW290692  10.475  10.135  11.200 -2.4022 -0.2967 -3.1884
61961SOL     OW90693  10.791   9.020   6.821 -0.4919 -0.2917 -0.8230
61961SOL    HW190694  10.799   9.105   6.863 -1.1700 -1.1772  1.2040
61961SOL    HW290695  10.866   9.016   6.762  1.4788  0.3951  1.4654
61962SOL     OW90696   9.048   7.416   0.626  0.2479  0.3177  0.1810
61962SOL    HW190697   9.088   7.367   0.554 -0.5134  0.2896 -0.2358
61962SOL    HW290698   8.957   7.387   0.626  0.0885  0.8174  0.7333
61963SOL     OW90699   8.337  10.736   7.925 -0.5381  0.7049  0.4521
61963SOL    HW190700   8.373  10.825   7.918 -1.0297  0.9379  0.7955
61963SOL    HW290701   8.243  10.746   7.909 -0.6455  0.2960  0.7895
61964SOL     OW90702   6.407  11.964   5.282 -0.2869 -0.0231 -0.0564
61964SOL    HW190703   6.454  11.885   5.257 -1.2758 -0.3587 -0.9715
61964SOL    HW290704   6.318  11.934   5.302  0.2230  0.3664  3.2182
61965SOL     OW90705   3.881   6.885   0.448  0.0893 -0.1404  0.1104
61965SOL    HW190706   3.901   6.891   0.354 -3.0529 -1.3306 -0.7711
61965SOL    HW290707   3.966   6.871   0.490  1.4003 -1.9696 -2.8160
61966SOL     OW90708   5.901   8.124   1.511  0.4217 -0.1302 -0.3056
61966SOL    HW190709   5.949   8.191   1.561 -0.2909  0.2179 -0.0779
61966SOL    HW290710   5.958   8.047   1.513  0.8435  0.1908  0.1968
61967SOL     OW90711   4.404   3.450  10.591  0.4399 -0.0198 -0.1296
61967SOL    HW190712   4.404   3.356  10.571 -0.2375  0.3708 -2.2586
61967SOL    HW290713   4.496   3.476  10.587  0.5026 -0.3430 -1.0288
61968SOL     OW90714  10.565   7.547  11.636 -0.2425  0.4082 -0.1534
61968SOL    HW190715  10.536   7.638  11.631  0.2792  0.6428  0.8196
61968SOL    HW290716  10.521   7.503  11.563 -1.4747  1.1733  0.1066
61969SOL     OW90717  11.674   8.840  10.002 -0.2163  0.1124 -0.4202
61969SOL    HW190718  11.727   8.785   9.945  0.9155  0.1262  0.5781
61969SOL    HW290719  11.696   8.929   9.976  1.4459  0.1680  0.9397
61970SOL     OW90720   1.624   4.281   7.789 -0.3553 -0.3265  0.0616
61970SOL    HW190721   1.656   4.371   7.785  2.1202 -1.1411 -0.0359
61970SOL    HW290722   1.587   4.272   7.877  0.1230  0.5433  0.3624
61971SOL     OW90723   9.912  10.896   3.318 -0.3980 -0.1740  0.6326
61971SOL    HW190724   9.920  10.967   3.382 -1.0994  0.2283  0.2900
61971SOL    HW290725   9.959  10.823   3.357  0.9595  0.6906  0.6837
61972SOL     OW90726   1.873  11.752   2.498  0.6623 -0.1079 -0.0837
61972SOL    HW190727   1.857  11.748   2.592  2.3697 -0.1990  0.2470
61972SOL    HW290728   1.946  11.691   2.484  1.5812  1.1796 -1.1792
61973SOL     OW90729  12.254  11.650   2.942 -0.1726  0.3289  0.0039
61973SOL    HW190730  12.284  11.725   2.994  1.8961 -0.6149  0.2620
61973SOL    HW290731  12.180  11.614   2.992  0.2022  0.9119  1.0140
61974SOL     OW90732  11.072   9.471  11.162 -0.0842 -0.4434  0.3332
61974SOL    HW190733  11.103   9.491  11.073 -1.3042  1.0762  0.2019
61974SOL    HW290734  10.978   9.456  11.152 -0.3264  0.1944  1.4069
61975SOL     OW90735   2.331  10.688   3.258 -0.1393 -0.7208  0.1771
61975SOL    HW190736   2.337  10.701   3.353  0.6166  1.3795 -0.1111
61975SOL    HW290737   2.409  10.637   3.236 -0.2531 -1.1107  0.6426
61976SOL     OW90738   4.101   5.396   6.796 -0.4119  0.3701  0.2564
61976SOL    HW190739   4.046   5.446   6.856 -0.4294 -0.6930  1.1527
61976SOL    HW290740   4.041   5.334   6.755  0.0001 -0.4113  0.8150
61977SOL     OW90741   3.271   9.301   5.209 -0.3387  0.3683  0.5107
61977SOL    HW190742   3.206   9.260   5.267  1.2210 -0.7395  1.5501
61977SOL    HW290743   3.231   9.296   5.122 -1.0245 -1.6961  0.8825
61978SOL     OW90744   2.765   9.404   5.562 -0.6037 -0.2352  0.4770
61978SOL    HW190745   2.814   9.341   5.614  1.0657  0.7092  0.0988
61978SOL    HW290746   2.720   9.351   5.496  2.0205 -0.9644 -0.8398
61979SOL     OW90747   7.372   5.299   2.843 -0.3548  1.1913 -0.0304
61979SOL    HW190748   7.320   5.244   2.784  0.5543  0.0290  0.2302
61979SOL    HW290749   7.325   5.295   2.926 -0.1295  0.5350  0.0728
61980SOL     OW90750   6.114   9.416   9.527  0.2405  0.3111 -0.1790
61980SOL    HW190751   6.120   9.423   9.622 -0.3637  1.3968 -0.2105
61980SOL    HW290752   6.022   9.398   9.510  0.1666  1.0622 -0.6078
61981SOL     OW90753  11.093   5.301  11.190  0.4991  0.1248 -0.2475
61981SOL    HW190754  11.160   5.357  11.230 -0.3954  1.4247 -0.4857
61981SOL    HW290755  11.114   5.303  11.096 -0.7707  1.9276 -0.5642
61982SOL     OW90756  11.880   5.833   4.303 -0.3271  0.2791 -0.8720
61982SOL    HW190757  11.835   5.783   4.371 -0.1681  0.4564 -0.6321
61982SOL    HW290758  11.869   5.925   4.330 -1.8440  0.4916 -2.0459
61983SOL     OW90759   1.026   4.675   3.824  0.5129 -0.3675  0.0640
61983SOL    HW190760   1.008   4.740   3.893 -0.3104 -0.2200 -0.2810
61983SOL    HW290761   1.056   4.728   3.750 -3.7461  0.1267 -1.5461
61984SOL     OW90762   2.941   0.236   0.405  0.1908  0.7811 -0.3512
61984SOL    HW190763   2.999   0.239   0.330  0.1895 -0.3835 -0.4142
61984SOL    HW290764   2.854   0.256   0.369  0.3436  1.2449 -0.4725
61985SOL     OW90765   7.157  11.807  12.432  0.2754  0.4891  0.0276
61985SOL    HW190766   7.120  11.826  12.519  0.3734 -0.9821  0.4139
61985SOL    HW290767   7.163  11.893  12.390 -0.8223  1.1015  1.0512
61986SOL     OW90768   2.037   3.465   6.479 -0.5181 -0.2652 -0.1165
61986SOL    HW190769   1.982   3.540   6.500 -0.5223  0.3176 -2.0337
61986SOL    HW290770   1.977   3.402   6.438 -0.2594 -0.7383  0.2240
61987SOL     OW90771  10.393   0.094   5.968  0.1081  0.0862  0.2461
61987SOL    HW190772  10.356   0.180   5.952  0.6178  0.6269  1.8000
61987SOL    HW290773  10.487   0.104   5.950 -0.1489 -0.8162 -1.9517
61988SOL     OW90774   7.823   6.426  11.056  0.3285 -0.1498  0.4261
61988SOL    HW190775   7.796   6.407  10.967  0.3971 -0.3341  0.4447
61988SOL    HW290776   7.741   6.423  11.107  0.3639 -0.5522  0.4561
61989SOL     OW90777   7.388   1.889   3.821 -0.9782 -0.1771  0.2659
61989SOL    HW190778   7.480   1.897   3.793 -0.1782 -0.1626  2.6629
61989SOL    HW290779   7.341   1.950   3.765  0.6159  0.4496 -0.4682
61990SOL     OW90780  11.898  10.259   6.673 -0.1250 -0.3679  0.0416
61990SOL    HW190781  11.919  10.349   6.696  0.9942 -0.5839 -0.0741
61990SOL    HW290782  11.811  10.264   6.631 -0.1308  0.6231  0.1551
61991SOL     OW90783   3.013   6.478  11.644  0.0512  0.4718 -0.2463
61991SOL    HW190784   2.974   6.559  11.677  1.6207  1.2552 -0.2250
61991SOL    HW290785   3.085   6.507  11.587  1.4020 -0.8811  0.6744
61992SOL     OW90786   5.206   6.206   3.089  0.1611  0.2260  0.0099
61992SOL    HW190787   5.227   6.298   3.107  0.9880 -0.1738  1.1989
61992SOL    HW290788   5.279   6.157   3.125 -0.8008 -0.9737  0.4035
61993SOL     OW90789   5.324   9.604   0.499  0.3610 -0.0336 -0.1431
61993SOL    HW190790   5.287   9.670   0.441 -2.3194 -1.7554 -0.5345
61993SOL    HW290791   5.286   9.623   0.585  0.3763 -0.4492 -0.0407
61994SOL     OW90792   5.329   4.498  10.182  0.1342 -0.3760  0.5977
61994SOL    HW190793   5.280   4.426  10.221  0.5631 -1.8489 -1.4341
61994SOL    HW290794   5.295   4.505  10.093  0.9382  1.1703  0.3778
61995SOL     OW90795   7.153   7.177   7.124  0.0837  0.1698 -0.1356
61995SOL    HW190796   7.198   7.218   7.198  0.1102 -1.9171  1.0622
61995SOL    HW290797   7.060   7.187   7.144  0.0546  0.8261 -0.5486
61996SOL     OW90798   9.867   1.248   1.785  0.4876  0.5203  0.2863
61996SOL    HW190799   9.937   1.311   1.768  0.0068  1.0913  0.3782
61996SOL    HW290800   9.795   1.301   1.818 -0.5768  0.1738 -1.3870
61997SOL     OW90801   4.907   3.933   1.536 -0.8405  0.5623 -0.3922
61997SOL    HW190802   4.951   3.925   1.621  0.3393 -1.3759 -1.1268
61997SOL    HW290803   4.972   3.972   1.478 -0.8772 -0.1459 -0.9220
61998SOL     OW90804  12.421   5.185   3.293  0.4511  0.4230  0.0657
61998SOL    HW190805  12.475   5.164   3.370  0.5479  0.2306 -0.0535
61998SOL    HW290806  12.334   5.152   3.316  0.5627  0.0442 -0.0498
61999SOL     OW90807   4.362   7.741   0.302  0.0163  0.1057  0.2168
61999SOL    HW190808   4.374   7.789   0.385 -2.3794 -0.8483  1.2088
61999SOL    HW290809   4.403   7.656   0.318  1.8226  0.7722 -0.5650
62000SOL     OW90810   9.805   9.091   2.439 -0.8972 -0.1061 -0.2098
62000SOL    HW190811   9.722   9.046   2.433 -1.2348  0.7076 -3.2578
62000SOL    HW290812   9.833   9.103   2.348  2.1017  0.4851  0.6660
62001SOL     OW90813   2.904   8.754   2.187  0.4355 -0.0164 -0.2049
62001SOL    HW190814   2.887   8.660   2.180 -1.1123  0.2450 -0.5396
62001SOL    HW290815   2.834   8.786   2.244  2.4774  0.5837  2.1429
62002SOL     OW90816   3.393   0.857   2.593  0.4167  0.0575  0.2402
62002SOL    HW190817   3.297   0.853   2.593  0.3557  1.0661  0.0496
62002SOL    HW290818   3.421   0.771   2.563 -0.5157  0.6303 -2.5945
62003SOL     OW90819   6.301   7.540   7.909 -0.0437  0.0203 -0.4568
62003SOL    HW190820   6.289   7.609   7.974 -0.7766 -0.6847  0.1812
62003SOL    HW290821   6.255   7.464   7.946  1.2205 -0.9831 -0.8674
62004SOL     OW90822   6.105   5.273  11.211 -0.2405  0.3017  0.4892
62004SOL    HW190823   6.030   5.214  11.218 -1.2279  1.4414 -0.1347
62004SOL    HW290824   6.134   5.265  11.121 -1.2816  1.7775 -0.0176
62005SOL     OW90825   9.296   8.997   6.712  0.0947 -0.2572  0.4390
62005SOL    HW190826   9.292   9.083   6.671  0.7182  0.1330  1.1622
62005SOL    HW290827   9.389   8.983   6.731  0.3342 -2.1188 -1.7402
62006SOL     OW90828   2.357   0.755   3.178  0.2878  0.3734 -0.3371
62006SOL    HW190829   2.361   0.842   3.138  0.1321  0.1384 -0.8692
62006SOL    HW290830   2.419   0.760   3.251 -1.0082  1.4891  0.7472
62007SOL     OW90831   9.976   4.450   2.155 -0.2676  0.5290  0.3914
62007SOL    HW190832  10.029   4.488   2.224 -0.7302  0.0467  1.0360
62007SOL    HW290833   9.963   4.359   2.183  0.8122 -0.1078 -1.0978
62008SOL     OW90834  11.912   6.219   5.868  0.2956  0.2481 -0.3729
62008SOL    HW190835  11.943   6.128   5.863  1.6760  0.6902 -0.0626
62008SOL    HW290836  11.891   6.242   5.777 -0.8466 -0.6163 -0.3642
62009SOL     OW90837   5.075   9.734   3.997  0.2944  0.3435  0.0874
62009SOL    HW190838   5.116   9.648   3.989 -0.5756  0.0039 -1.0765
62009SOL    HW290839   5.134   9.793   3.950  0.1762  0.1026 -0.3814
62010SOL     OW90840   9.110   1.134   3.878  0.2712  0.3018 -0.3986
62010SOL    HW190841   9.083   1.106   3.965 -0.5463  0.6396 -0.5373
62010SOL    HW290842   9.033   1.178   3.841  0.7432  0.5482 -1.1227
62011SOL     OW90843   6.876   5.092   3.649  0.4257  0.0149 -0.1476
62011SOL    HW190844   6.869   5.125   3.560  0.8162  2.0177  0.4928
62011SOL    HW290845   6.970   5.088   3.666  0.3667 -0.8687  0.0054
62012SOL     OW90846   8.670   5.509   7.047  0.3802 -0.2602 -0.1092
62012SOL    HW190847   8.592   5.562   7.031  0.6488 -0.2942 -1.6349
62012SOL    HW290848   8.653   5.426   7.003  1.0535 -0.4629  0.0032
62013SOL     OW90849  10.957   1.113  11.020  0.8941 -0.2839  0.1005
62013SOL    HW190850  10.990   1.051  10.955  3.1658 -0.7092  1.5504
62013SOL    HW290851  11.027   1.177  11.030  0.6747 -0.2824  2.1502
62014SOL     OW90852   4.234   4.647   7.050 -0.2817 -0.0112  0.0743
62014SOL    HW190853   4.148   4.606   7.052 -0.8877  1.2236 -0.3877
62014SOL    HW290854   4.248   4.679   7.139  0.4845 -1.7385  0.6246
62015SOL     OW90855   0.089  11.844   9.482 -0.0568  0.2920  0.0931
62015SOL    HW190856   0.033  11.892   9.421 -1.2877 -1.3101 -0.1015
62015SOL    HW290857   0.030  11.818   9.553  1.0217  0.7851  1.2029
62016SOL     OW90858   4.470   8.649  12.435  0.3381 -0.4580 -0.5729
62016SOL    HW190859   4.425   8.574  12.395  0.7107 -0.4776 -0.9597
62016SOL    HW290860   4.525   8.610  12.502  0.5252 -0.5325 -0.7685
62017SOL     OW90861   3.001  10.232   8.461  0.4837 -0.3193  0.4009
62017SOL    HW190862   2.937  10.297   8.488 -0.0048 -0.7864  0.3711
62017SOL    HW290863   3.081  10.283   8.444  0.3697  0.1672  1.2565
62018SOL     OW90864   3.788   4.717   9.100  0.1067 -0.1356 -0.1585
62018SOL    HW190865   3.730   4.792   9.084 -0.4691 -0.6505 -0.5571
62018SOL    HW290866   3.860   4.752   9.152 -0.5174  0.5466  0.2647
62019SOL     OW90867  11.690   3.136   9.792  0.3432 -0.0423 -0.4945
62019SOL    HW190868  11.699   3.128   9.887  0.6091 -0.0939 -0.5218
62019SOL    HW290869  11.735   3.217   9.770 -1.8243  1.2938 -0.2984
62020SOL     OW90870   6.915   3.618   0.670 -0.2844  0.5226 -0.1054
62020SOL    HW190871   6.822   3.614   0.695 -0.3220  1.0855 -0.1537
62020SOL    HW290872   6.954   3.680   0.732  0.1898 -0.1745  0.3098
62021SOL     OW90873  11.299   4.909   1.536  0.2312 -0.6252 -0.0207
62021SOL    HW190874  11.390   4.937   1.526  0.2370 -0.7866 -0.4267
62021SOL    HW290875  11.276   4.937   1.625  0.6305 -0.4570  0.0362
62022SOL     OW90876   2.165   4.968   4.659  0.3175 -0.0277 -0.1251
62022SOL    HW190877   2.174   4.884   4.613  0.4997  0.9697 -2.0205
62022SOL    HW290878   2.242   5.018   4.633  0.2049  0.7480  0.9644
62023SOL     OW90879  12.574   1.435   1.981 -0.5528 -0.1674  0.1858
62023SOL    HW190880  12.593   1.387   1.901  0.8589  1.9156 -0.8001
62023SOL    HW290881  12.478   1.434   1.987 -0.6848 -0.4253 -1.4800
62024SOL     OW90882   9.401  10.444  11.263  0.4216 -0.5443  0.3788
62024SOL    HW190883   9.319  10.488  11.283  1.0474  0.4071  0.9283
62024SOL    HW290884   9.389  10.354  11.295 -0.8721 -0.8140 -0.7629
62025SOL     OW90885   2.587   2.798   6.725  0.2807 -0.3503 -0.1129
62025SOL    HW190886   2.522   2.728   6.729 -0.7518  0.4188 -2.0219
62025SOL    HW290887   2.607   2.818   6.817  1.0361 -3.4576  0.4814
62026SOL     OW90888  10.903   7.668   7.234  0.0105 -0.2681 -0.0147
62026SOL    HW190889  10.865   7.583   7.209 -2.0529  0.1041  1.5981
62026SOL    HW290890  10.969   7.646   7.299 -1.0855 -0.6353  1.0162
62027SOL     OW90891  12.013  12.285  11.694 -0.5754  0.2778  0.2869
62027SOL    HW190892  12.088  12.262  11.640 -1.3005 -1.8685  0.1081
62027SOL    HW290893  12.020  12.380  11.706  1.2926  0.3452 -0.9841
62028SOL     OW90894   9.164   2.470   4.232 -0.4378  0.1956  0.5772
62028SOL    HW190895   9.225   2.397   4.240 -0.0354  0.4006 -0.4577
62028SOL    HW290896   9.216   2.548   4.252 -0.7354  0.2484  1.1644
62029SOL     OW90897   3.567  11.856   9.171  0.6229 -0.0234 -0.6624
62029SOL    HW190898   3.569  11.950   9.187  0.5670 -0.1871  0.3501
62029SOL    HW290899   3.525  11.819   9.249  2.2118 -1.0516 -0.2447
62030SOL     OW90900   8.880   1.548   1.462  0.4858 -0.4362 -0.1695
62030SOL    HW190901   8.919   1.465   1.433 -1.0941 -1.2157 -0.1680
62030SOL    HW290902   8.797   1.553   1.414 -0.2114  0.3163  1.0612
62031SOL     OW90903   4.227  12.162  11.206 -0.6326  0.2780  0.0724
62031SOL    HW190904   4.296  12.171  11.272 -1.3143  0.0516  0.8322
62031SOL    HW290905   4.147  12.189  11.251 -1.5503 -2.3826  0.1804
62032SOL     OW90906   5.266   3.939   0.942 -0.0028 -0.1168  0.1750
62032SOL    HW190907   5.286   3.847   0.926 -2.0788 -1.0179  2.1140
62032SOL    HW290908   5.194   3.937   1.005  0.7162  2.8618  1.2763
62033SOL     OW90909   8.438   9.961   9.852 -0.2819 -0.2410 -0.0940
62033SOL    HW190910   8.344   9.947   9.837 -0.3546  0.5471 -0.4433
62033SOL    HW290911   8.446   9.966   9.947 -1.0793  2.5099 -0.0770
62034SOL     OW90912   9.935   1.272   7.072 -0.7292  0.0753 -0.3413
62034SOL    HW190913   9.973   1.306   6.991  1.3074 -1.2032 -0.0079
62034SOL    HW290914   9.910   1.182   7.052  1.4016 -0.8647  0.7884
62035SOL     OW90915   7.652  11.424  11.895 -0.2715 -0.3762  0.0087
62035SOL    HW190916   7.587  11.494  11.894  1.2421  1.1119  0.6603
62035SOL    HW290917   7.717  11.451  11.830  0.1441 -1.3883 -0.0125
62036SOL     OW90918   2.868   5.115   7.026  1.0563 -0.7109 -0.6996
62036SOL    HW190919   2.787   5.065   7.033 -0.5305  1.8249  0.5852
62036SOL    HW290920   2.918   5.093   7.105 -0.9421  1.6671  1.4092
62037SOL     OW90921   4.111  10.721   2.264 -0.4278 -0.4148 -0.1740
62037SOL    HW190922   4.064  10.641   2.288 -0.7525 -0.3238 -0.4895
62037SOL    HW290923   4.178  10.731   2.331 -1.5197  0.0135  0.8839
62038SOL     OW90924   5.986   2.145   4.450  0.2407  0.0257  0.3736
62038SOL    HW190925   6.061   2.125   4.394  1.3897  2.2315  1.0283
62038SOL    HW290926   5.977   2.240   4.447 -3.8620 -0.1989 -1.2878
62039SOL     OW90927   0.692   1.944   7.820  0.0662  0.1169 -0.0638
62039SOL    HW190928   0.662   1.987   7.740  1.1738  1.1521  0.0398
62039SOL    HW290929   0.765   1.889   7.791  0.7214  0.7918  0.2714
62040SOL     OW90930   7.439   4.846  10.074  0.0079 -0.2654  0.1428
62040SOL    HW190931   7.502   4.913  10.098  0.9647 -0.4510 -1.7134
62040SOL    HW290932   7.367   4.893  10.034  0.6140 -0.3143 -1.0274
62041SOL     OW90933  12.014   0.546   7.076 -0.4883  0.9749  0.2660
62041SOL    HW190934  12.014   0.526   7.170  2.0927  2.8455  0.7945
62041SOL    HW290935  12.004   0.641   7.072 -0.7457  0.9018 -1.3778
62042SOL     OW90936  12.059   8.269  11.556  0.3881 -0.3601 -0.5711
62042SOL    HW190937  12.085   8.361  11.558  1.3797 -0.6110  1.7767
62042SOL    HW290938  11.963   8.271  11.560  0.2990  0.5392 -2.1957
62043SOL     OW90939   8.922   0.789  10.931  0.1047 -0.7077 -0.2169
62043SOL    HW190940   8.912   0.694  10.941 -0.0352 -0.5549  1.3654
62043SOL    HW290941   9.016   0.802  10.919  0.2662 -0.9912  0.6471
62044SOL     OW90942   4.205   6.988  12.023 -0.0734 -0.3978 -0.2375
62044SOL    HW190943   4.127   7.044  12.026  0.5035  0.4128 -0.0542
62044SOL    HW290944   4.265   7.027  12.088  0.0548 -1.6671  0.4269
62045SOL     OW90945   4.463   9.991   1.750 -0.0128  0.3893  0.0338
62045SOL    HW190946   4.385  10.002   1.696  0.6308 -0.1302 -1.0296
62045SOL    HW290947   4.518  10.067   1.730 -0.2124  0.7367  0.7556
62046SOL     OW90948   9.393   1.154   8.436  0.2825  0.2095 -0.1469
62046SOL    HW190949   9.309   1.159   8.390 -0.3769  0.1191  0.9877
62046SOL    HW290950   9.446   1.224   8.398 -0.3748  0.3776 -0.7669
62047SOL     OW90951   3.722   0.130  10.907  0.2537  0.9727 -0.0022
62047SOL    HW190952   3.797   0.160  10.959  2.0533  0.7586 -2.3210
62047SOL    HW290953   3.677   0.068  10.964  2.0518  0.8125  1.3328
62048SOL     OW90954   7.081   7.394   2.374 -0.0943  0.1308 -0.2472
62048SOL    HW190955   7.029   7.414   2.452 -0.3467 -1.3940  0.0022
62048SOL    HW290956   7.140   7.324   2.402  0.2058 -0.0390 -1.2698
62049SOL     OW90957   6.877   3.970  10.732  0.0735  0.1114 -0.0028
62049SOL    HW190958   6.921   4.029  10.670  1.0418  0.1367  0.6807
62049SOL    HW290959   6.926   3.888  10.725 -1.7398 -0.9185 -1.5234
62050SOL     OW90960   2.211   0.763  10.228  0.4359 -0.2371  0.0705
62050SOL    HW190961   2.118   0.760  10.251  0.4353 -1.6988 -0.0563
62050SOL    HW290962   2.211   0.793  10.136 -0.0554 -2.1572 -0.5909
62051SOL     OW90963   4.509  10.649  12.454  0.1079  0.3998 -0.1181
62051SOL    HW190964   4.557  10.601  12.387  0.4752 -3.0146  2.3433
62051SOL    HW290965   4.573  10.711  12.489  1.0628 -0.3978 -0.4150
62052SOL     OW90966   0.525   6.303   4.433 -0.0379  0.2260 -0.4370
62052SOL    HW190967   0.549   6.223   4.481  0.4358  1.0958  0.8278
62052SOL    HW290968   0.600   6.361   4.444 -0.3008  0.7949 -1.5104
62053SOL     OW90969  10.062   7.841   7.261 -0.2102  0.3749 -0.0503
62053SOL    HW190970  10.085   7.848   7.169  0.9109  1.7424  0.3074
62053SOL    HW290971  10.142   7.809   7.304 -1.1363 -1.6844  0.3018
62054SOL     OW90972   7.352   8.050   9.684 -0.0736  0.0939 -0.1891
62054SOL    HW190973   7.286   8.071   9.751 -0.8814 -2.3386 -0.1249
62054SOL    HW290974   7.302   8.009   9.614  1.3156 -1.5686 -0.2577
62055SOL     OW90975   8.512   3.591   7.275  0.5132 -0.0615  0.3642
62055SOL    HW190976   8.516   3.554   7.187  0.3714 -0.1895  0.4129
62055SOL    HW290977   8.550   3.679   7.265 -2.0240  1.0549 -0.4146
62056SOL     OW90978   6.070   7.816  12.282 -0.7517  0.5059  0.1247
62056SOL    HW190979   6.113   7.811  12.368  0.4336 -1.4891 -0.5095
62056SOL    HW290980   6.142   7.828  12.220 -1.1528 -1.6430 -0.8598
62057SOL     OW90981  11.914   5.585   5.009 -0.1338  0.1106 -0.3546
62057SOL    HW190982  11.961   5.521   5.062  0.2940 -0.6879 -1.6510
62057SOL    HW290983  11.911   5.664   5.064  0.9622 -0.4393  0.5377
62058SOL     OW90984   9.302   3.649   7.289  0.5073  0.6615  0.2261
62058SOL    HW190985   9.355   3.641   7.369  0.2757  0.0983  0.3322
62058SOL    HW290986   9.290   3.559   7.260  2.6550  0.9690 -1.8491
62059SOL     OW90987   4.912   8.630   6.627  0.1839  0.0033 -0.4426
62059SOL    HW190988   4.890   8.657   6.538 -0.8148  0.5989 -0.0426
62059SOL    HW290989   4.942   8.711   6.669 -0.1257 -0.1005 -0.0162
62060SOL     OW90990   2.865   2.146  10.117  0.3249  0.0879 -0.1488
62060SOL    HW190991   2.902   2.224  10.075 -0.7167  0.6855  0.0135
62060SOL    HW290992   2.789   2.178  10.165 -1.0872 -1.2656 -1.3740
62061SOL     OW90993   1.939   4.139  10.621 -0.4909  0.1454 -0.2254
62061SOL    HW190994   1.869   4.156  10.558  0.0352  3.5000 -0.1329
62061SOL    HW290995   1.902   4.167  10.705  0.8087  1.7857 -0.1503
62062SOL     OW90996   5.827  10.996   5.597  0.2622 -0.6114 -0.0758
62062SOL    HW190997   5.882  10.985   5.520  0.0088  0.4514 -0.4302
62062SOL    HW290998   5.740  11.016   5.562 -0.3790 -2.3100  0.4738
62063SOL     OW90999   9.880   9.913   6.089  0.0389  0.2239  0.4154
62063SOL    HW191000   9.789   9.910   6.120 -1.0893 -0.2571 -2.5645
62063SOL    HW291001   9.879   9.980   6.020  2.3542  1.3095  1.3385
62064SOL     OW91002   9.943   4.861   8.496 -0.1242  0.1501  0.1228
62064SOL    HW191003   9.887   4.893   8.566 -2.1242  0.9293 -1.7055
62064SOL    HW291004   9.940   4.766   8.504 -1.4229  0.1879  0.3101
62065SOL     OW91005   8.103  12.539   8.581 -0.3450 -0.7351 -0.3408
62065SOL    HW191006   8.063  12.471   8.527 -0.6989 -0.1091 -0.8933
62065SOL    HW291007   8.072  12.621   8.542  1.8201 -0.1977 -1.0866
62066SOL     OW91008  10.167  12.460   3.484  0.4744 -0.4325 -0.2476
62066SOL    HW191009  10.162  12.373   3.445  1.4324 -0.6981  0.1744
62066SOL    HW291010  10.219  12.511   3.423 -0.9062  0.1368 -0.9723
62067SOL     OW91011   6.721   7.109   8.778 -0.0178 -0.5503 -0.2608
62067SOL    HW191012   6.804   7.155   8.782  0.0228 -0.6950  0.6451
62067SOL    HW291013   6.676   7.147   8.703  0.5069  0.1215 -0.2377
62068SOL     OW91014   4.888   6.015   6.968  0.6043 -0.3645 -0.2044
62068SOL    HW191015   4.862   6.079   7.035 -0.0591 -0.6786 -0.1607
62068SOL    HW291016   4.928   6.068   6.899  0.2419  0.0767 -0.0801
62069SOL     OW91017   0.833   2.414   0.330 -0.5142 -0.1071  0.0159
62069SOL    HW191018   0.902   2.473   0.360  0.2189  0.0639 -1.9202
62069SOL    HW291019   0.759   2.433   0.388  0.3408  1.2902  0.7031
62070SOL     OW91020   1.293   5.847   2.674 -0.5533  0.0435  0.6482
62070SOL    HW191021   1.262   5.829   2.585 -1.4867 -0.7567  1.1048
62070SOL    HW291022   1.385   5.823   2.673 -0.4830  0.3241 -0.1773
62071SOL     OW91023   0.766   8.437   8.517 -0.4287  0.5418 -0.0310
62071SOL    HW191024   0.741   8.476   8.601  0.0307 -1.5970  1.1773
62071SOL    HW291025   0.846   8.482   8.492 -0.5610  1.1926  0.6915
62072SOL     OW91026  10.338  11.705  12.421  0.2480 -0.6177 -0.2443
62072SOL    HW191027  10.365  11.614  12.412 -0.1355 -0.6368 -1.3239
62072SOL    HW291028  10.419  11.755  12.420  0.3413 -0.7003 -3.1245
62073SOL     OW91029  10.701   0.009  12.151  0.1262 -0.1254  0.6196
62073SOL    HW191030  10.613   0.037  12.127  1.3080  1.7349 -2.0235
62073SOL    HW291031  10.704  -0.084  12.127 -0.7621  0.1195 -0.5506
62074SOL     OW91032   7.132   6.935   4.424  0.1482 -0.2565  0.0451
62074SOL    HW191033   7.201   6.913   4.487  1.4103  1.1319 -0.7940
62074SOL    HW291034   7.106   7.024   4.446 -0.5031 -0.3167 -0.4392
62075SOL     OW91035   8.685   7.319   7.649  0.1048  0.4035 -0.1345
62075SOL    HW191036   8.693   7.308   7.744  1.3799 -0.4643 -0.3102
62075SOL    HW291037   8.600   7.283   7.627  0.4080 -0.7496  0.5178
62076SOL     OW91038  11.337  11.857  10.457  0.2571 -0.0292  0.3385
62076SOL    HW191039  11.322  11.879  10.549 -2.4143  0.0331 -0.0570
62076SOL    HW291040  11.320  11.763  10.452 -1.4747  0.2980 -0.3998
62077SOL     OW91041   2.824  11.986   4.862  0.4255  0.2662 -0.3454
62077SOL    HW191042   2.870  12.035   4.794  1.4413  2.5575  1.7798
62077SOL    HW291043   2.731  11.998   4.843  0.6894  1.3417 -1.0382
62078SOL     OW91044  10.129   6.658   2.649 -0.1287  0.6140 -0.5202
62078SOL    HW191045  10.066   6.598   2.609 -0.2999  0.3410  0.1602
62078SOL    HW291046  10.212   6.610   2.648 -0.0422  0.7638 -0.9090
62079SOL     OW91047   0.783   6.369   2.398 -0.8624  0.0930 -0.1936
62079SOL    HW191048   0.872   6.373   2.431 -0.1679  1.6573 -2.0628
62079SOL    HW291049   0.758   6.460   2.385 -2.3638 -0.3498 -0.6519
62080SOL     OW91050   0.829   5.181  12.559  0.4166  0.1979 -0.1116
62080SOL    HW191051   0.814   5.258  12.613 -0.9060 -0.4217  0.4557
62080SOL    HW291052   0.883   5.124  12.614 -0.4700 -0.1993  0.3763
62081SOL     OW91053  11.466   9.713   9.965  0.0912 -0.3880  0.4682
62081SOL    HW191054  11.494   9.630  10.004  0.5875 -0.0131  0.9210
62081SOL    HW291055  11.379   9.729  10.002 -1.1700 -1.9633 -1.5571
62082SOL     OW91056   9.287  12.568  10.257 -0.3566  0.8007  0.1330
62082SOL    HW191057   9.198  12.571  10.293 -1.1437 -0.3439 -1.5794
62082SOL    HW291058   9.341  12.534  10.328 -1.4017  0.9371  1.0074
62083SOL     OW91059   9.639   8.443   6.157  0.0657 -0.3925 -0.1702
62083SOL    HW191060   9.618   8.519   6.211 -0.6070 -0.0401 -0.9229
62083SOL    HW291061   9.730   8.422   6.180  0.6551  1.3412 -0.7806
62084SOL     OW91062   8.023  12.335   8.385 -0.6711  0.3588 -0.2241
62084SOL    HW191063   8.045  12.254   8.338  1.1116  0.3571  0.5394
62084SOL    HW291064   7.958  12.378   8.329 -0.4816 -0.8384 -1.4185
62085SOL     OW91065   8.603   2.584   7.464 -0.0471 -0.5619 -0.1047
62085SOL    HW191066   8.598   2.626   7.378  2.4890 -1.1243 -0.6014
62085SOL    HW291067   8.697   2.575   7.482 -0.4637 -0.3076  2.8258
62086SOL     OW91068   8.055   0.702   1.926  0.3509  0.1863  0.0388
62086SOL    HW191069   7.986   0.687   1.990  0.7544  0.2199  0.4943
62086SOL    HW291070   8.034   0.786   1.886 -2.1675 -1.5883 -2.8334
62087SOL     OW91071   9.121   5.067  10.082  0.5988  0.0494 -0.0681
62087SOL    HW191072   9.100   5.029   9.997  1.7143 -0.5215 -0.0993
62087SOL    HW291073   9.035   5.082  10.123  0.0451  0.5742 -1.3775
62088SOL     OW91074  11.603   7.115   6.705  0.1800 -0.4033  0.0078
62088SOL    HW191075  11.649   7.100   6.622 -0.9536 -1.5532 -0.4469
62088SOL    HW291076  11.547   7.190   6.688  0.2628 -0.3739 -0.1353
62089SOL     OW91077   2.468   6.329   0.053  0.5592  0.0174 -0.5888
62089SOL    HW191078   2.555   6.361   0.074  1.9409 -2.0448 -2.7233
62089SOL    HW291079   2.419   6.339   0.135  2.7004  1.3581  0.6384
62090SOL     OW91080   0.005   2.278  11.145 -0.1595 -0.2004 -0.4547
62090SOL    HW191081   0.047   2.264  11.060  0.8853 -1.4383  0.2452
62090SOL    HW291082   0.077   2.283  11.207 -0.9709 -0.6825  0.5494
62091SOL     OW91083   8.961   9.395   3.066 -0.2688  0.0427 -0.5385
62091SOL    HW191084   8.968   9.460   3.136 -0.7956  0.7415 -1.1271
62091SOL    HW291085   8.962   9.311   3.112  1.7949  0.3784  0.1397
62092SOL     OW91086   4.451   5.659   1.429  0.2624  0.2764 -0.2015
62092SOL    HW191087   4.421   5.728   1.489 -1.2321  0.4335 -1.0660
62092SOL    HW291088   4.537   5.689   1.400  1.1518  0.0777  2.0075
62093SOL     OW91089   9.182   4.681  10.941  0.2643  0.1246  0.3232
62093SOL    HW191090   9.163   4.775  10.930 -2.2910 -0.5716 -3.0290
62093SOL    HW291091   9.268   4.669  10.903 -0.8273  0.7140 -2.5526
62094SOL     OW91092   9.714  10.226   6.438  0.1386  0.0398 -0.6904
62094SOL    HW191093   9.652  10.299   6.448  1.3712  1.0597 -0.2059
62094SOL    HW291094   9.704  10.176   6.519  0.4206  0.5935 -0.3049
62095SOL     OW91095   7.998   6.170   9.459 -0.2028 -0.6475 -0.1572
62095SOL    HW191096   7.985   6.205   9.370 -0.4126 -1.4422 -0.4427
62095SOL    HW291097   7.918   6.119   9.476 -0.0576 -0.6890  0.3984
62096SOL     OW91098   1.587   2.182   0.036  0.1422  0.2180 -0.1035
62096SOL    HW191099   1.615   2.090   0.035 -2.2464 -0.5851 -0.0076
62096SOL    HW291100   1.556   2.198  -0.054 -1.5327  0.1761  0.4298
62097SOL     OW91101   6.147  12.048   7.781  0.3087  0.2154 -0.0168
62097SOL    HW191102   6.125  12.033   7.873 -0.3155  0.6047 -0.0941
62097SOL    HW291103   6.228  11.998   7.767 -0.5567 -1.3077  0.2588
62098SOL     OW91104   9.999  11.212   6.429 -0.6220  0.0568  0.1680
62098SOL    HW191105   9.931  11.205   6.496 -0.6895 -1.5388 -0.0133
62098SOL    HW291106   9.960  11.170   6.352 -0.2196  1.0823 -0.6031
62099SOL     OW91107   1.745  11.366   3.517 -0.4124  0.1040 -0.8343
62099SOL    HW191108   1.666  11.419   3.503 -0.9703 -0.7854 -1.1401
62099SOL    HW291109   1.808  11.428   3.553 -1.4439  0.7063  0.0200
62100SOL     OW91110  10.276   8.813   9.496 -0.9099 -0.1793  0.0008
62100SOL    HW191111  10.233   8.878   9.439 -1.7150  1.2467  2.1214
62100SOL    HW291112  10.277   8.854   9.582  0.1674 -2.3204  1.0723
62101SOL     OW91113   4.007  10.876   6.633  0.4265  0.0750 -0.2228
62101SOL    HW191114   4.069  10.816   6.675 -0.1848 -0.5007 -0.1381
62101SOL    HW291115   4.008  10.954   6.690  1.0261  0.0551 -0.1944
62102SOL     OW91116  10.679   6.314   3.449  0.0163  0.9735 -0.0533
62102SOL    HW191117  10.622   6.391   3.445 -0.9935  0.2398 -0.1705
62102SOL    HW291118  10.768   6.350   3.446 -0.4297  2.1468  0.1750
62103SOL     OW91119   0.944   2.104   7.217 -0.4013 -0.0624 -0.2631
62103SOL    HW191120   0.871   2.113   7.156 -1.9003 -0.3761  1.3918
62103SOL    HW291121   0.930   2.018   7.258  0.9202 -0.1367  0.0910
62104SOL     OW91122   8.150   7.410   8.792 -0.4007  0.5307  0.5262
62104SOL    HW191123   8.064   7.436   8.759  0.0781  1.0402 -0.3769
62104SOL    HW291124   8.174   7.480   8.853  0.4738  1.8251 -1.1939
62105SOL     OW91125  10.740   2.947   2.436 -0.3788 -0.1435  0.0585
62105SOL    HW191126  10.666   3.008   2.425 -1.0984 -1.2223 -1.4559
62105SOL    HW291127  10.770   2.931   2.346 -0.2272 -2.0258  0.4189
62106SOL     OW91128   3.806   8.183   4.456 -0.1161  0.2795 -0.0101
62106SOL    HW191129   3.854   8.146   4.381  0.9258  0.7083  0.4189
62106SOL    HW291130   3.826   8.277   4.453 -1.3312  0.5501 -0.0837
62107SOL     OW91131   7.905   4.780   1.637 -0.7980  0.4612 -0.3305
62107SOL    HW191132   7.927   4.691   1.664 -0.1279  0.7652  0.1696
62107SOL    HW291133   7.891   4.774   1.543  0.1715 -0.0028 -0.4565
62108SOL     OW91134   1.827   1.525   9.337 -0.4523  0.0954  0.0083
62108SOL    HW191135   1.766   1.543   9.265 -1.1803 -0.2320  0.5408
62108SOL    HW291136   1.877   1.607   9.347 -0.3304  0.1395 -0.8733
62109SOL     OW91137   0.552  12.428   0.484 -0.3830  0.1806 -0.2085
62109SOL    HW191138   0.520  12.475   0.561  1.2554  0.0213  0.6158
62109SOL    HW291139   0.637  12.393   0.511  0.0720 -0.1757 -1.9855
62110SOL     OW91140   3.458   3.476   9.476 -0.0639 -0.0570  0.1572
62110SOL    HW191141   3.495   3.429   9.551  0.8294  0.5170  0.0941
62110SOL    HW291142   3.425   3.558   9.512  0.1916  0.1349 -0.0357
62111SOL     OW91143   6.070  11.384   6.189  0.1151 -0.3969 -0.0999
62111SOL    HW191144   6.132  11.324   6.231  2.2381 -0.4701 -3.0299
62111SOL    HW291145   6.095  11.471   6.221  0.7817 -0.5641 -0.1496
62112SOL     OW91146  10.990  10.181   9.905  0.0741  0.1263  0.1470
62112SOL    HW191147  11.078  10.210   9.882 -0.2391  0.0655 -1.1992
62112SOL    HW291148  10.955  10.251   9.960 -0.6609  2.4146 -2.9834
62113SOL     OW91149   6.937  10.588   8.646 -1.0280 -0.0234  0.4011
62113SOL    HW191150   7.020  10.558   8.609 -0.6855  1.7917 -0.4374
62113SOL    HW291151   6.940  10.683   8.637 -2.9567  0.1286  0.8968
62114SOL     OW91152   1.442   9.796   4.659 -0.3695 -0.5462 -0.5425
62114SOL    HW191153   1.461   9.804   4.566 -0.2318  0.4384 -0.4363
62114SOL    HW291154   1.365   9.850   4.673  0.9238  1.1912  0.3063
62115SOL     OW91155  10.902   1.987  11.402 -0.0713 -0.2782  0.1980
62115SOL    HW191156  10.901   2.075  11.363 -1.0052 -0.9889 -1.4671
62115SOL    HW291157  10.848   1.995  11.480 -1.2109  0.3694 -0.6157
62116SOL     OW91158  10.199   4.259   7.788 -0.5097  0.5649 -0.0052
62116SOL    HW191159  10.132   4.311   7.743 -0.8679 -0.7484 -1.0531
62116SOL    HW291160  10.182   4.169   7.760  1.4638  0.1569  0.0068
62117SOL     OW91161   9.188   7.983   3.600  0.2313 -0.6677 -0.0558
62117SOL    HW191162   9.102   7.985   3.558  0.7832 -0.1337 -1.2052
62117SOL    HW291163   9.174   8.024   3.685 -0.2353  1.3845 -1.0673
62118SOL     OW91164   6.988  10.588   8.935  0.5089 -0.4485 -0.3283
62118SOL    HW191165   6.965  10.575   8.843 -0.9163 -0.2518 -0.0175
62118SOL    HW291166   6.934  10.525   8.983  1.5928 -0.8930  0.3516
62119SOL     OW91167   0.897   8.881   6.645 -0.4312 -0.4507 -0.0708
62119SOL    HW191168   0.964   8.828   6.689  2.8434  1.6523 -2.1254
62119SOL    HW291169   0.827   8.818   6.626  0.9495 -2.8601  2.0725
62120SOL     OW91170   3.498  11.081   4.718  0.4788  0.0371 -0.5406
62120SOL    HW191171   3.524  11.170   4.695 -1.4074  0.7049 -0.2488
62120SOL    HW291172   3.407  11.089   4.748  1.2785 -1.4257  2.7561
62121SOL     OW91173  10.611  10.403   6.661  0.6707 -0.0723 -0.1982
62121SOL    HW191174  10.705  10.391   6.646  0.9605  1.9608 -0.2611
62121SOL    HW291175  10.575  10.425   6.575 -0.0352 -1.5044 -0.3132
62122SOL     OW91176   2.460   8.253  12.373  0.2550 -0.3105  0.2152
62122SOL    HW191177   2.538   8.217  12.330  0.7547  1.6213 -0.6180
62122SOL    HW291178   2.394   8.184  12.364  1.2237 -1.1290 -1.0374
62123SOL     OW91179   6.126   1.257   7.028 -0.2299  0.0209  0.3209
62123SOL    HW191180   6.110   1.282   6.937  0.3066 -1.9230 -0.3524
62123SOL    HW291181   6.118   1.339   7.077  0.0736  1.2284 -1.5417
62124SOL     OW91182   3.519   7.024   6.176 -0.3840  0.6040 -0.0604
62124SOL    HW191183   3.556   7.110   6.195  1.5793  0.0268 -1.0405
62124SOL    HW291184   3.569   6.964   6.232 -1.1108 -0.0071 -0.0558
62125SOL     OW91185   0.469   0.067  10.385  0.0989  0.2640  0.3101
62125SOL    HW191186   0.543   0.091  10.329 -1.1809 -0.5306 -1.8742
62125SOL    HW291187   0.506   0.006  10.449  1.6851  1.4197  0.5651
62126SOL     OW91188   8.984   4.510  11.156  0.2910 -0.4134 -0.1739
62126SOL    HW191189   9.002   4.490  11.065  0.5162  0.8540 -0.4274
62126SOL    HW291190   9.034   4.590  11.174  0.2570 -0.6392  1.0613
62127SOL     OW91191  11.021   7.698   2.832 -0.5828 -0.3239  0.1109
62127SOL    HW191192  10.997   7.609   2.855  0.8442 -0.7106  0.1756
62127SOL    HW291193  11.087   7.723   2.897 -1.0119  0.7972  0.1291
62128SOL     OW91194   3.984   2.603   7.643  0.1685 -0.9870 -0.1148
62128SOL    HW191195   4.034   2.595   7.724  0.6934  0.2063 -0.3041
62128SOL    HW291196   3.895   2.576   7.668  0.3198 -0.6477  0.8564
62129SOL     OW91197   5.535  10.219   5.957  0.0436 -0.3465  0.1683
62129SOL    HW191198   5.484  10.259   6.027  0.6071  0.7358 -0.0260
62129SOL    HW291199   5.492  10.135   5.941 -0.9821  0.0453  0.7906
62130SOL     OW91200   9.219   3.148   5.800 -0.1681  0.3444  0.3079
62130SOL    HW191201   9.125   3.162   5.785 -0.5674 -1.1139  1.2546
62130SOL    HW291202   9.243   3.081   5.736 -0.0962 -0.2538  0.9481
62131SOL     OW91203   0.043   5.827   2.948  0.0182 -0.1286 -0.0400
62131SOL    HW191204   0.109   5.764   2.977 -0.1591  0.8891  2.9713
62131SOL    HW291205  -0.003   5.851   3.029 -1.7423  1.7731 -1.5198
62132SOL     OW91206   9.782   3.877   9.977  0.4607 -0.2857 -0.8043
62132SOL    HW191207   9.744   3.803  10.023  1.3579 -1.0092 -1.1805
62132SOL    HW291208   9.806   3.939  10.046 -2.3282  0.6943 -0.6219
62133SOL     OW91209  12.247   9.646   6.098 -0.4730  0.0205  0.3276
62133SOL    HW191210  12.285   9.727   6.132 -0.8321  0.9433 -1.3764
62133SOL    HW291211  12.172   9.674   6.045 -0.1472 -1.3397 -0.9360
62134SOL     OW91212  10.860   8.183   5.942 -0.6071  0.2026 -0.0684
62134SOL    HW191213  10.803   8.158   6.015  0.3144  0.5797  0.8036
62134SOL    HW291214  10.901   8.101   5.915  0.1166  0.2706  0.7861
62135SOL     OW91215   3.831  12.173   8.438 -0.1503  0.0624  0.3569
62135SOL    HW191216   3.873  12.155   8.522  0.2353  2.2689  0.7014
62135SOL    HW291217   3.760  12.234   8.459  0.0687  0.7949 -0.9352
62136SOL     OW91218   6.242   6.575   7.428  0.3521 -0.3299 -0.2064
62136SOL    HW191219   6.227   6.505   7.492 -0.9635  0.4547  0.3788
62136SOL    HW291220   6.322   6.618   7.457  0.5411 -0.8754  0.0865
62137SOL     OW91221   5.445  12.332   4.118  0.0268 -0.4034 -0.0106
62137SOL    HW191222   5.467  12.297   4.204  0.3135  1.0235  0.5190
62137SOL    HW291223   5.530  12.354   4.079 -0.2135  1.3208  0.3896
62138SOL     OW91224   3.867   4.264   5.381 -0.7652 -0.0640  0.0763
62138SOL    HW191225   3.959   4.238   5.389 -0.6520  0.1146 -0.5856
62138SOL    HW291226   3.821   4.210   5.445 -0.1666  0.0147  0.5814
62139SOL     OW91227  12.070   1.563  12.339 -0.4837  0.4437 -0.5684
62139SOL    HW191228  12.160   1.591  12.326  0.3268 -1.1816  1.1014
62139SOL    HW291229  12.045   1.521  12.257 -0.6465  3.0148 -1.9502
62140SOL     OW91230   1.781   2.961   9.112 -0.2873  0.1118  0.3091
62140SOL    HW191231   1.779   3.017   9.035  0.7009  0.2276  0.3571
62140SOL    HW291232   1.712   2.995   9.169 -1.8269 -0.6820 -0.9840
62141SOL     OW91233  11.211   4.733   5.157 -0.3091  0.0870 -0.6253
62141SOL    HW191234  11.284   4.682   5.123 -0.1330 -0.1671  0.1000
62141SOL    HW291235  11.201   4.702   5.247 -1.3969  0.0143 -0.7532
62142SOL     OW91236  10.665   5.130   4.261 -0.3147 -0.3790  0.1443
62142SOL    HW191237  10.698   5.050   4.301 -4.9922 -2.5123  0.4032
62142SOL    HW291238  10.647   5.106   4.170  0.6987  1.2930 -0.5442
62143SOL     OW91239   0.839   7.348   2.464  0.4837  0.2063  0.1673
62143SOL    HW191240   0.931   7.330   2.484  0.3849  0.5934  1.0014
62143SOL    HW291241   0.799   7.261   2.459  0.5914  0.0697  1.3516
62144SOL     OW91242   1.353   7.403   4.080  0.4605  0.3024  0.2780
62144SOL    HW191243   1.282   7.379   4.020 -0.6155 -0.1591  1.6688
62144SOL    HW291244   1.388   7.319   4.110  0.2196  0.5058  1.1562
62145SOL     OW91245   9.488   4.089   3.208  0.8472  0.0832  0.5774
62145SOL    HW191246   9.401   4.085   3.167  0.6330  0.2081  1.0096
62145SOL    HW291247   9.504   4.000   3.237  1.5904 -0.3151 -0.9589
62146SOL     OW91248  12.419   2.057   7.863  0.4120  0.3060 -0.2302
62146SOL    HW191249  12.399   2.074   7.955 -1.1311  1.8317 -0.7996
62146SOL    HW291250  12.498   2.108   7.846 -0.3623  1.5521 -0.2019
62147SOL     OW91251   7.334  12.557   0.284 -0.3228 -0.0403  0.5155
62147SOL    HW191252   7.245  12.580   0.255  0.0046 -0.4099 -0.8795
62147SOL    HW291253   7.326  12.466   0.314 -0.6039  0.2461  1.3423
62148SOL     OW91254   1.332   4.535   3.485 -0.6523  0.2551 -0.6586
62148SOL    HW191255   1.304   4.536   3.577 -1.2350  0.6992 -0.8346
62148SOL    HW291256   1.422   4.566   3.487 -0.3772 -0.5558 -0.1474
62149SOL     OW91257   5.888   0.560   3.276  0.4618 -0.2042  0.9664
62149SOL    HW191258   5.833   0.639   3.277  1.1098  0.2599  0.9430
62149SOL    HW291259   5.973   0.591   3.245  0.1758 -1.2867 -1.0791
62150SOL     OW91260   2.487   7.561   0.026  0.1140 -0.3236  0.3049
62150SOL    HW191261   2.471   7.548  -0.067  1.7366 -0.5225  0.0275
62150SOL    HW291262   2.526   7.649   0.032 -0.4544 -0.1008  0.8657
62151SOL     OW91263   9.173   8.928   8.625  0.1947 -0.1982  0.4097
62151SOL    HW191264   9.147   8.842   8.591  0.9975 -0.2395 -0.1189
62151SOL    HW291265   9.189   8.981   8.547 -0.4903  0.5055  0.7332
62152SOL     OW91266   7.877   3.450   5.971  0.2733  0.0920 -0.0738
62152SOL    HW191267   7.935   3.489   6.037 -1.4305  0.3912  1.2941
62152SOL    HW291268   7.900   3.357   5.970  0.4730  0.1272  0.7834
62153SOL     OW91269   7.177   3.707   1.793  0.4515 -0.1535  0.6992
62153SOL    HW191270   7.105   3.767   1.813  0.6707  0.4624 -0.2949
62153SOL    HW291271   7.220   3.693   1.877 -1.4753 -1.4158  1.5544
62154SOL     OW91272  10.119   9.590   1.060  0.1447  0.2403  0.2989
62154SOL    HW191273  10.125   9.599   1.155  0.4556  1.7965  0.1610
62154SOL    HW291274  10.191   9.531   1.037  0.7764  0.7390  0.9429
62155SOL     OW91275  10.690   4.601   5.265  0.2701  0.0015 -0.0239
62155SOL    HW191276  10.600   4.594   5.235  0.6455 -1.1177 -0.9684
62155SOL    HW291277  10.716   4.690   5.245 -1.1733  0.9365  1.9394
62156SOL     OW91278   7.280  10.297  10.520  0.1148  0.2842 -0.1834
62156SOL    HW191279   7.257  10.287  10.612  0.8346 -0.2793 -0.0534
62156SOL    HW291280   7.335  10.376  10.517  1.6977 -0.7515  0.2026
62157SOL     OW91281   3.217   9.679  12.301 -0.3531 -0.2927  0.2213
62157SOL    HW191282   3.299   9.646  12.262 -0.2351  0.3237 -0.0699
62157SOL    HW291283   3.158   9.689  12.226  0.2621  2.0587 -0.0181
62158SOL     OW91284   7.442   2.522   7.030  0.6003 -0.0819  0.2683
62158SOL    HW191285   7.451   2.617   7.037 -0.8766  0.0310  0.9613
62158SOL    HW291286   7.462   2.503   6.939 -2.4929  1.3656 -0.8373
62159SOL     OW91287   9.251   0.270   6.984 -0.1886 -0.0142 -0.0607
62159SOL    HW191288   9.183   0.207   7.007  0.9126 -0.8862  0.9417
62159SOL    HW291289   9.250   0.335   7.055 -2.1504  1.8978 -1.6941
62160SOL     OW91290  11.545   1.078   6.028  0.0158  0.2721  0.0152
62160SOL    HW191291  11.451   1.096   6.019 -0.3287 -0.4803  1.7835
62160SOL    HW291292  11.581   1.159   6.064  0.1778  0.7690 -1.2071
62161SOL     OW91293   1.237  12.591   0.274  0.3336 -0.1917 -0.0901
62161SOL    HW191294   1.147  12.608   0.247  0.0195 -2.3983 -0.6518
62161SOL    HW291295   1.237  12.606   0.369  0.4851  3.8298 -0.5588
62162SOL     OW91296   1.366  10.391   6.032  0.0122  0.4084 -0.4586
62162SOL    HW191297   1.336  10.432   6.113 -0.2153  1.5806 -1.1088
62162SOL    HW291298   1.460  10.378   6.046 -0.4063 -1.6335  0.8941
62163SOL     OW91299   9.391   2.079   4.029  0.2259 -0.2610  0.0741
62163SOL    HW191300   9.309   2.030   4.018  0.2085 -0.7510  1.9646
62163SOL    HW291301   9.448   2.048   3.959 -0.5737 -1.3166 -0.1282
62164SOL     OW91302   1.214  10.625   3.836 -0.3256  0.0538  0.4945
62164SOL    HW191303   1.199  10.546   3.785  0.3085 -0.4990  1.1382
62164SOL    HW291304   1.183  10.696   3.780  0.8097 -0.4801 -0.8699
62165SOL     OW91305  12.008   9.450   4.405  0.2726  0.1569 -0.6320
62165SOL    HW191306  11.916   9.447   4.379 -0.2591  0.2342  1.1636
62165SOL    HW291307  12.049   9.508   4.340 -0.5463 -1.2762 -2.5202
62166SOL     OW91308   4.181  10.495   9.012  0.5111 -0.2501 -0.0777
62166SOL    HW191309   4.199  10.483   9.105  2.0719 -1.3613 -0.4831
62166SOL    HW291310   4.123  10.571   9.009  0.7371  0.0579  1.7711
62167SOL     OW91311  12.259   7.285   5.004  0.0127  0.2549 -0.1848
62167SOL    HW191312  12.237   7.378   4.997 -0.5805  0.3211  1.7275
62167SOL    HW291313  12.176   7.240   4.989  0.4260 -0.0207 -1.7292
62168SOL     OW91314   2.445   0.940  10.097 -0.3943  0.2164  0.1333
62168SOL    HW191315   2.425   0.899  10.013 -4.7188  1.1537  0.4961
62168SOL    HW291316   2.470   1.030  10.074 -0.3951  0.1321 -0.1984
62169SOL     OW91317   1.855   1.693  12.536  0.1706 -0.4698 -0.6220
62169SOL    HW191318   1.825   1.642  12.460 -0.5487 -1.0736  0.0460
62169SOL    HW291319   1.929   1.744  12.503 -0.8061  0.1064 -2.0139
62170SOL     OW91320   1.599  12.293   4.313  0.2712 -0.1918 -0.5138
62170SOL    HW191321   1.692  12.274   4.300  0.2098 -1.2935  0.5138
62170SOL    HW291322   1.560  12.208   4.333 -0.5335  0.5792  1.3533
62171SOL     OW91323   5.447  10.254   6.714 -0.3164 -0.1377 -0.7847
62171SOL    HW191324   5.439  10.321   6.647 -0.2821  0.2454 -0.4095
62171SOL    HW291325   5.478  10.177   6.667  0.6998  0.4132 -1.0504
62172SOL     OW91326  10.684   6.760   7.193  0.2151 -0.0970  0.7114
62172SOL    HW191327  10.659   6.766   7.100  0.1206 -1.1079  0.6606
62172SOL    HW291328  10.632   6.687   7.227 -0.3150  0.7330  1.7603
62173SOL     OW91329   5.438   5.487   9.828  0.0483  0.4269 -0.4551
62173SOL    HW191330   5.450   5.575   9.866  2.7229 -0.2567  0.5084
62173SOL    HW291331   5.349   5.488   9.794 -0.1568  3.3776 -0.1087
62174SOL     OW91332   8.925   7.441   1.669 -0.2522 -0.2049 -0.0751
62174SOL    HW191333   8.959   7.499   1.601  0.5367  2.0449  2.0579
62174SOL    HW291334   8.860   7.387   1.624  1.6302 -0.2593 -2.9710
62175SOL     OW91335   1.077   3.425  10.528  0.5770 -0.2486 -0.2153
62175SOL    HW191336   1.103   3.388  10.613  2.8173  2.4574  0.4096
62175SOL    HW291337   1.130   3.378  10.464 -0.2101 -1.4264 -0.0504
62176SOL     OW91338   6.251   6.562  11.612 -0.3513 -0.5738  0.1393
62176SOL    HW191339   6.196   6.617  11.668  1.1024 -0.4193  1.4923
62176SOL    HW291340   6.203   6.480  11.602 -0.8715 -0.4055  1.1924
62177SOL     OW91341   0.965  12.499   0.796  0.4491  0.4351  0.3044
62177SOL    HW191342   1.035  12.466   0.741  2.1583  1.7558  1.5856
62177SOL    HW291343   0.998  12.489   0.885 -1.8956 -0.8921  1.1154
62178SOL     OW91344   0.948   9.639   3.739  0.0584  0.2066  0.0736
62178SOL    HW191345   1.042   9.624   3.744 -0.2668 -2.2889 -0.2909
62178SOL    HW291346   0.919   9.591   3.661 -1.3085  2.2896 -0.7970
62179SOL     OW91347   3.253   4.600   2.979  0.2577  0.0215  0.3799
62179SOL    HW191348   3.194   4.674   2.993  0.5410  0.2636  0.2957
62179SOL    HW291349   3.217   4.555   2.902  0.7285  0.7151 -0.2560
62180SOL     OW91350  11.100   2.763   0.350  0.0037  0.4770  0.0799
62180SOL    HW191351  11.175   2.812   0.384  0.4480  0.6974 -1.1869
62180SOL    HW291352  11.104   2.679   0.396  0.5300  0.7995  0.6414
62181SOL     OW91353   6.964   7.371   3.688  0.4689  0.5354  0.5462
62181SOL    HW191354   6.932   7.295   3.639  1.5860  0.1921  0.3338
62181SOL    HW291355   6.911   7.371   3.768 -0.2605  0.1551  0.0828
62182SOL     OW91356   4.495   3.383   9.727 -0.0851  0.0648 -0.2271
62182SOL    HW191357   4.518   3.430   9.807 -1.8725  0.5577  0.0232
62182SOL    HW291358   4.494   3.450   9.659  1.0755 -0.2920 -0.6218
62183SOL     OW91359  11.284   4.867   4.526 -0.3208  0.0522  0.0790
62183SOL    HW191360  11.299   4.888   4.434  1.2469 -1.4639 -0.0567
62183SOL    HW291361  11.367   4.888   4.569 -0.2607 -1.3656  0.7140
62184SOL     OW91362   0.395   6.278   2.749 -0.3424 -0.5283 -0.3171
62184SOL    HW191363   0.416   6.246   2.661  1.9870 -0.6594  0.2107
62184SOL    HW291364   0.371   6.199   2.798 -0.0057 -0.6976 -0.4207
62185SOL     OW91365  12.194   2.507   1.100  0.2259  0.3467 -0.2514
62185SOL    HW191366  12.211   2.416   1.079 -2.9810 -0.7486  1.1402
62185SOL    HW291367  12.257   2.529   1.169  2.0378 -0.2258 -1.6463
62186SOL     OW91368   3.507   0.206   3.438 -0.6488 -0.2499 -0.6980
62186SOL    HW191369   3.582   0.254   3.402 -1.4595  0.7935 -1.0685
62186SOL    HW291370   3.467   0.163   3.362 -1.7441  1.0894 -0.9263
62187SOL     OW91371   8.584  12.592  11.813  0.4945 -0.3041  0.2487
62187SOL    HW191372   8.658  12.635  11.856  0.3224 -0.3039  0.5531
62187SOL    HW291373   8.507  12.629  11.857  0.3392 -0.8258  0.4199
62188SOL     OW91374   8.928   3.901  11.126 -0.3723  0.6323  0.4021
62188SOL    HW191375   8.833   3.892  11.116 -0.3078  0.8124 -0.5014
62188SOL    HW291376   8.940   3.942  11.211 -0.9250 -2.8902  2.3753
62189SOL     OW91377   6.163  11.346   5.737 -0.4129 -0.7419  0.1165
62189SOL    HW191378   6.168  11.426   5.788  2.3026 -1.4926  1.1786
62189SOL    HW291379   6.164  11.275   5.802  1.7754 -1.6796 -0.8298
62190SOL     OW91380   4.824   5.486  11.061 -0.3792  0.1585 -0.4737
62190SOL    HW191381   4.799   5.576  11.081  0.0944 -0.4121  3.3016
62190SOL    HW291382   4.742   5.437  11.067 -0.2648  0.0103 -0.0878
62191SOL     OW91383   6.260   2.567   7.005  0.1845  0.2288 -0.4745
62191SOL    HW191384   6.230   2.502   6.942  0.9652 -0.1300 -0.4928
62191SOL    HW291385   6.241   2.651   6.964 -0.6815  0.0188 -0.5258
62192SOL     OW91386  10.391  10.138   0.296  0.4675 -0.1357 -0.0284
62192SOL    HW191387  10.435  10.059   0.263  0.3906 -2.0438  3.8468
62192SOL    HW291388  10.299  10.113   0.301  0.4483  0.1460  1.2510
62193SOL     OW91389   5.312   3.666   3.538  0.2021  0.2872 -0.3227
62193SOL    HW191390   5.219   3.681   3.557  0.9560  3.5257  1.4706
62193SOL    HW291391   5.340   3.602   3.603 -0.4536  0.3846  0.0653
62194SOL     OW91392   8.345   7.125  12.217 -0.3789 -0.4659 -0.0014
62194SOL    HW191393   8.403   7.064  12.170 -0.2136 -1.2272  1.1610
62194SOL    HW291394   8.313   7.076  12.292 -5.5085 -1.4014 -2.3838
62195SOL     OW91395   4.700   4.068   8.264  0.3774  0.0786  0.7443
62195SOL    HW191396   4.649   4.097   8.189 -3.0153  0.0397  2.8266
62195SOL    HW291397   4.753   3.996   8.230 -0.1313  0.7898 -1.8130
62196SOL     OW91398   5.687  12.214  12.056 -0.2052  0.4261 -0.1237
62196SOL    HW191399   5.740  12.154  12.109 -0.1763  1.3809  0.9404
62196SOL    HW291400   5.741  12.232  11.979  0.3063  0.0887  0.1531
62197SOL     OW91401   1.885   5.997  10.016 -0.4186 -0.0944 -0.4001
62197SOL    HW191402   1.843   5.912  10.032  0.9321 -0.4273  1.7159
62197SOL    HW291403   1.816   6.050   9.975 -1.9110 -1.5654  0.0788
62198SOL     OW91404   0.442   4.851   5.240 -0.6684 -0.4593 -0.2946
62198SOL    HW191405   0.449   4.845   5.145  1.7808  0.1990 -0.2226
62198SOL    HW291406   0.426   4.761   5.269  0.1742 -0.9193 -1.2303
62199SOL     OW91407  11.126  11.109   6.042  0.0460  0.1220  0.0090
62199SOL    HW191408  11.117  11.160   6.123 -0.7462 -1.2208  0.8202
62199SOL    HW291409  11.113  11.172   5.972 -0.2558  1.1481  0.9504
62200SOL     OW91410   6.555   2.618   6.985 -1.0039  0.2049 -0.5165
62200SOL    HW191411   6.527   2.707   7.006 -0.3834  0.2543  0.1570
62200SOL    HW291412   6.643   2.629   6.949 -1.1883 -0.0815 -1.0627
62201SOL     OW91413   9.223   2.305   3.879  0.2217  0.2793  0.3789
62201SOL    HW191414   9.242   2.253   3.957  0.6598  0.0497  0.1193
62201SOL    HW291415   9.291   2.372   3.877 -0.5666  1.1328  0.9315
62202SOL     OW91416   7.392   8.021   9.110 -0.5250 -0.5232 -0.0269
62202SOL    HW191417   7.374   8.111   9.137  0.0590  0.0152 -1.3629
62202SOL    HW291418   7.318   7.971   9.144 -1.4469  0.6547 -0.2438
62203SOL     OW91419   1.709   8.592  10.585 -0.1885  0.0776  0.5538
62203SOL    HW191420   1.665   8.648  10.521 -1.2100 -0.6154  0.6305
62203SOL    HW291421   1.658   8.601  10.665 -1.4143 -2.2284  0.1075
62204SOL     OW91422   1.524  11.134   7.308  0.0587 -0.5860  0.1051
62204SOL    HW191423   1.499  11.126   7.400  1.1519 -1.1877  0.3590
62204SOL    HW291424   1.562  11.221   7.300 -0.9998 -0.1116 -0.0344
62205SOL     OW91425   4.268   8.232  12.188 -0.0909 -0.5018 -0.1397
62205SOL    HW191426   4.275   8.212  12.095  0.4859 -0.2672 -0.1498
62205SOL    HW291427   4.219   8.314  12.191 -1.4288 -1.2688 -0.1549
62206SOL     OW91428   5.040   1.294   1.690  0.1444 -0.3622  0.2881
62206SOL    HW191429   4.948   1.289   1.665  0.5998 -0.0075 -1.6410
62206SOL    HW291430   5.068   1.203   1.698 -0.3997 -0.4707  1.0637
62207SOL     OW91431   1.771  11.697   5.774  0.0593  0.3667 -0.1308
62207SOL    HW191432   1.724  11.742   5.845 -0.7485 -0.5762 -0.0330
62207SOL    HW291433   1.769  11.758   5.701  1.8737  1.8147  0.9560
62208SOL     OW91434   7.672   2.487   9.142 -0.2073  0.4452 -0.0577
62208SOL    HW191435   7.734   2.557   9.120 -0.5683  0.6136 -0.5854
62208SOL    HW291436   7.726   2.414   9.171  0.1904  0.8617  0.2495
62209SOL     OW91437   6.668   1.823  10.541 -0.3994 -0.3502  0.6085
62209SOL    HW191438   6.587   1.821  10.592 -2.0287  1.5014 -1.6524
62209SOL    HW291439   6.689   1.916  10.532  1.3262 -0.7499  0.1530
62210SOL     OW91440   1.533  11.027   1.040  0.4822  0.1219 -0.0001
62210SOL    HW191441   1.527  11.020   1.136 -1.7272  0.3810 -0.0612
62210SOL    HW291442   1.516  11.119   1.022 -0.8835 -0.2357 -0.6949
62211SOL     OW91443   1.033  12.340   5.489 -0.1457 -0.4734 -0.4728
62211SOL    HW191444   1.002  12.254   5.518 -0.2790 -0.4879 -0.6574
62211SOL    HW291445   1.122  12.324   5.457  0.3810 -0.2825  0.8261
62212SOL     OW91446   8.328   5.832   9.013  0.5705 -0.3802 -0.6371
62212SOL    HW191447   8.246   5.869   9.045  1.6494  2.0456 -0.4260
62212SOL    HW291448   8.318   5.828   8.918  0.1560 -0.1809 -0.6011
62213SOL     OW91449   7.131   9.186   5.194 -0.5790  0.1951 -0.0296
62213SOL    HW191450   7.063   9.120   5.206 -0.8284  0.0477 -1.9428
62213SOL    HW291451   7.103   9.235   5.117  0.2039  1.7953  0.6636
62214SOL     OW91452   6.049   2.132   8.615  0.2818 -0.5306  0.5723
62214SOL    HW191453   6.051   2.197   8.685 -1.6730 -1.3919  1.4950
62214SOL    HW291454   6.020   2.181   8.538 -0.7940 -0.1983  1.1699
62215SOL     OW91455   4.669   8.262   4.584 -0.0027  0.7261  0.0250
62215SOL    HW191456   4.587   8.223   4.554 -0.4852  2.3562 -0.9509
62215SOL    HW291457   4.683   8.336   4.524  0.3599  2.5982  2.2618
62216SOL     OW91458   0.614   1.290   4.721 -0.0927 -0.0428 -0.2845
62216SOL    HW191459   0.623   1.372   4.671  0.6963 -0.1060 -0.2681
62216SOL    HW291460   0.522   1.266   4.713  0.0494 -0.1384 -1.8549
62217SOL     OW91461   6.503  11.264   1.792  0.1193  0.3412  0.1003
62217SOL    HW191462   6.519  11.308   1.709 -0.4052 -1.0061 -0.7545
62217SOL    HW291463   6.589  11.233   1.819  0.1337 -0.1930 -0.5305
62218SOL     OW91464   8.334   0.248   3.208  0.2649  0.5262  0.2416
62218SOL    HW191465   8.259   0.230   3.266 -0.4534  0.8079 -0.5745
62218SOL    HW291466   8.397   0.180   3.230 -2.2608 -3.1606 -2.5874
62219SOL     OW91467   6.969  11.142  11.743 -0.4575  0.7208  0.0177
62219SOL    HW191468   6.931  11.074  11.800 -0.4587  0.2608 -0.5201
62219SOL    HW291469   6.934  11.122  11.656  1.1728  0.1586 -0.5311
62220SOL     OW91470  12.551   5.264   2.622  0.1464  0.0455 -0.4637
62220SOL    HW191471  12.636   5.257   2.581  1.6805  2.0994  2.0331
62220SOL    HW291472  12.560   5.217   2.705 -1.8260 -1.3469 -0.9625
62221SOL     OW91473  11.141  10.989   3.479 -0.1617 -0.2374  0.2996
62221SOL    HW191474  11.215  10.956   3.428  1.3934 -0.5933  2.6414
62221SOL    HW291475  11.175  11.068   3.521 -0.8670 -0.7551  1.9118
62222SOL     OW91476   8.391   7.322   8.727  0.0521  0.2154  0.1523
62222SOL    HW191477   8.309   7.366   8.752  0.7873  1.0205  1.2460
62222SOL    HW291478   8.411   7.357   8.640 -0.0660  1.0572  0.4557
62223SOL     OW91479   9.604   7.618   8.316 -0.0556  0.2234  0.4575
62223SOL    HW191480   9.614   7.598   8.223  0.1126  3.5344 -0.3672
62223SOL    HW291481   9.693   7.617   8.351  0.0011  0.0689  0.3058
62224SOL     OW91482   1.768   0.977  12.381  0.0684  0.2587 -0.3507
62224SOL    HW191483   1.836   0.909  12.374  0.8207  0.9991 -0.3587
62224SOL    HW291484   1.686   0.928  12.378  0.5816 -0.6102 -0.9237
62225SOL     OW91485   7.680   7.679  12.624  0.5059  0.2903 -0.5756
62225SOL    HW191486   7.621   7.604  12.630  1.7276 -0.5848  3.2541
62225SOL    HW291487   7.622   7.756  12.626 -0.6032 -0.5323 -0.3077
62226SOL     OW91488   5.234   5.563   5.410  0.2744  0.4679 -0.0384
62226SOL    HW191489   5.276   5.501   5.352  1.3473  1.0481  0.0992
62226SOL    HW291490   5.202   5.510   5.483  2.9117  0.2867  1.0628
62227SOL     OW91491   0.743   1.869  11.994 -0.3056  0.2340 -0.3312
62227SOL    HW191492   0.738   1.811  12.070  0.3134 -0.2051 -0.6233
62227SOL    HW291493   0.760   1.811  11.920 -1.2423  0.6135 -0.8724
62228SOL     OW91494   1.007   0.406   1.643  0.4821  0.1707  0.7135
62228SOL    HW191495   1.026   0.411   1.550  1.1847  0.7201  0.8783
62228SOL    HW291496   0.989   0.497   1.669 -0.3767 -0.0649  0.9780
62229SOL     OW91497   9.262   6.524   0.746  0.3298  0.4742  0.1822
62229SOL    HW191498   9.316   6.544   0.669  0.8832  0.1514  0.4797
62229SOL    HW291499   9.244   6.430   0.739  0.1155  0.5070  0.2813
62230SOL     OW91500  11.422  12.497   2.758  0.1969  0.1920  0.5185
62230SOL    HW191501  11.393  12.588   2.767  1.5244  0.8046 -1.0223
62230SOL    HW291502  11.340  12.446   2.756 -0.6469  1.5226 -0.3276
62231SOL     OW91503   2.491   5.845   3.967 -0.1820  1.0645  0.0812
62231SOL    HW191504   2.414   5.817   4.017 -0.1877  1.6689  0.4325
62231SOL    HW291505   2.497   5.783   3.895  0.4819 -0.5402  1.4562
62232SOL     OW91506   0.705   6.540  12.092 -0.4488  0.3149 -0.0800
62232SOL    HW191507   0.786   6.585  12.116 -0.7948  0.4904  0.7715
62232SOL    HW291508   0.655   6.534  12.173 -0.7524 -0.9144 -0.3318
62233SOL     OW91509  10.786  12.566   1.977  0.8368 -0.2239 -0.8038
62233SOL    HW191510  10.700  12.565   2.020  0.9088  0.1581 -0.6431
62233SOL    HW291511  10.776  12.508   1.902  0.3024  0.1668 -1.0400
62234SOL     OW91512   5.604  11.228   7.196 -0.3164  0.4274 -0.3055
62234SOL    HW191513   5.627  11.139   7.170 -1.8660 -0.2216  0.4311
62234SOL    HW291514   5.514  11.240   7.164 -0.6829  1.1589  0.9096
62235SOL     OW91515   9.511   9.473   0.280  0.8975  0.1541  0.2749
62235SOL    HW191516   9.473   9.386   0.264  2.3291 -0.3055 -0.8111
62235SOL    HW291517   9.453   9.533   0.232 -0.3355 -0.1218  1.3648
62236SOL     OW91518  11.115   7.010   1.249  0.6344 -0.4110  0.1524
62236SOL    HW191519  11.079   7.081   1.303 -0.9807 -1.1634  0.1238
62236SOL    HW291520  11.153   6.949   1.312 -2.5671 -2.0443  0.7325
62237SOL     OW91521  12.148   0.092   8.174 -0.0482 -0.1033  0.0536
62237SOL    HW191522  12.123   0.004   8.146 -1.3967  0.2749 -0.0151
62237SOL    HW291523  12.132   0.093   8.268 -2.8308  0.8927 -0.3449
62238SOL     OW91524   1.172   2.933   5.107  0.4128 -0.3279  0.3414
62238SOL    HW191525   1.077   2.918   5.102  0.1028  1.7169 -1.4257
62238SOL    HW291526   1.207   2.888   5.031  0.7613 -0.3978  0.5418
62239SOL     OW91527   6.376   7.870   5.320 -0.9048 -0.2084 -0.2243
62239SOL    HW191528   6.285   7.841   5.309 -1.2304  0.8678 -0.4466
62239SOL    HW291529   6.408   7.820   5.395 -1.5332 -0.9331 -0.4251
62240SOL     OW91530   5.978   1.590  11.291  0.1303  0.0243 -0.0207
62240SOL    HW191531   5.988   1.642  11.211  0.0140 -0.5313 -0.4024
62240SOL    HW291532   6.055   1.611  11.344  2.0759 -2.1709 -1.7490
62241SOL     OW91533   4.707   3.443  10.296  0.4647 -0.1490  0.2149
62241SOL    HW191534   4.802   3.442  10.291  0.6104  2.1149  1.0422
62241SOL    HW291535   4.687   3.407  10.383  0.4682 -1.5126 -0.3248
62242SOL     OW91536  11.694   9.408   4.073 -0.2479 -0.0677  0.4320
62242SOL    HW191537  11.629   9.407   4.144  0.4821  0.4574  1.1252
62242SOL    HW291538  11.658   9.469   4.009 -0.5510  0.0489  0.7072
62243SOL     OW91539   5.860   4.205   1.813 -0.1566 -0.1382 -0.7684
62243SOL    HW191540   5.780   4.255   1.830  0.6138  1.0557 -0.5152
62243SOL    HW291541   5.923   4.237   1.878  0.4885 -1.1524 -0.8749
62244SOL     OW91542   5.541   1.609   3.375  0.0033 -0.7369  0.4759
62244SOL    HW191543   5.582   1.547   3.315 -1.1263 -1.2122  0.1551
62244SOL    HW291544   5.561   1.695   3.339 -0.4918 -1.0114 -0.4883
62245SOL     OW91545  10.989  12.101   5.116 -0.5636 -0.4614 -0.0929
62245SOL    HW191546  11.078  12.075   5.091 -0.0223  0.6111  0.6196
62245SOL    HW291547  10.932  12.048   5.061  0.5407 -0.2973 -1.4432
62246SOL     OW91548   9.412   2.055  12.014 -0.1195 -0.1808  0.9028
62246SOL    HW191549   9.451   2.049  12.102  1.4789  1.0316  0.3159
62246SOL    HW291550   9.430   1.970  11.974  3.4727  0.8023  0.0986
62247SOL     OW91551  12.424   5.296   1.395 -0.1482  0.0431  0.3332
62247SOL    HW191552  12.484   5.277   1.467 -1.5938  1.1175  1.9321
62247SOL    HW291553  12.439   5.389   1.376  0.0477 -0.1734 -0.6118
62248SOL     OW91554   5.398   1.504   6.974 -0.2644  0.3242  0.4143
62248SOL    HW191555   5.427   1.422   6.933 -2.5903 -0.2483 -0.1912
62248SOL    HW291556   5.403   1.569   6.904 -0.7663  0.1561  0.2240
62249SOL     OW91557   4.244   7.386  11.191  0.1154  0.5068  0.4217
62249SOL    HW191558   4.164   7.337  11.173  1.6310 -1.8569 -0.3761
62249SOL    HW291559   4.241   7.405  11.285 -1.8981  1.5154  0.1816
62250SOL     OW91560   2.546   4.065   0.575  0.4198  0.2796  0.2573
62250SOL    HW191561   2.590   3.983   0.597  2.5114  1.6611  1.6099
62250SOL    HW291562   2.576   4.086   0.486  2.1006  0.8663  0.9136
62251SOL     OW91563   0.398   0.296  10.607 -0.6940 -0.4761  0.0160
62251SOL    HW191564   0.475   0.288  10.551  0.4288  0.4468  1.3371
62251SOL    HW291565   0.329   0.328  10.549 -0.1537 -1.5294 -1.2412
62252SOL     OW91566   0.675   3.257   1.284  0.3102  0.3049  0.3261
62252SOL    HW191567   0.725   3.201   1.344 -0.4469  0.2563  0.9210
62252SOL    HW291568   0.685   3.345   1.319  1.8833  0.6556 -0.8676
62253SOL     OW91569   2.840  10.059   9.491  0.6318  0.4417 -0.2014
62253SOL    HW191570   2.755  10.016   9.475  0.3488  0.1734  1.7653
62253SOL    HW291571   2.903   9.987   9.494  1.0562  0.6782 -2.1224
62254SOL     OW91572  12.346   4.869   3.593 -0.0683  0.0011  0.1537
62254SOL    HW191573  12.284   4.893   3.524  0.6450  2.1400  0.1868
62254SOL    HW291574  12.412   4.816   3.549 -0.6482 -0.2829 -0.3865
62255SOL     OW91575   6.495   2.395   9.492  0.6800  0.4654 -0.5812
62255SOL    HW191576   6.453   2.386   9.407  0.4600  1.4134 -0.5888
62255SOL    HW291577   6.463   2.479   9.526  0.9154  0.1967  0.3476
62256SOL     OW91578   6.730   2.567   5.106  0.1994 -0.1450 -0.7390
62256SOL    HW191579   6.652   2.516   5.085  0.1055  0.4183 -1.8366
62256SOL    HW291580   6.699   2.657   5.113  0.6548  0.0016 -0.5398
62257SOL     OW91581  12.534  10.725   8.219  0.3425  0.3356  0.5993
62257SOL    HW191582  12.484  10.758   8.144 -0.7744  1.1773  1.6715
62257SOL    HW291583  12.468  10.710   8.286  1.5276  1.4675  2.0774
62258SOL     OW91584   9.129   5.134   0.333 -0.5346  0.2642  0.0469
62258SOL    HW191585   9.222   5.125   0.313 -0.4356 -2.4782  1.2820
62258SOL    HW291586   9.127   5.157   0.426 -1.1047 -0.4579  0.2166
62259SOL     OW91587   7.219  11.160  10.442 -0.8053  0.2678  0.3744
62259SOL    HW191588   7.156  11.228  10.417  1.7133  2.7618  0.2181
62259SOL    HW291589   7.278  11.153  10.367 -2.2800 -4.0281 -0.6590
62260SOL     OW91590  11.034   1.270   5.928 -0.0422  0.4356  0.2190
62260SOL    HW191591  11.015   1.288   5.836  3.0585  0.8839 -0.4188
62260SOL    HW291592  11.012   1.351   5.973 -0.4027  0.6312 -0.2962
62261SOL     OW91593   9.901   8.445   0.031 -0.2452  0.3965 -0.4480
62261SOL    HW191594   9.822   8.477   0.074 -0.0169  1.7088 -0.9342
62261SOL    HW291595   9.875   8.363  -0.010 -1.7626  1.4491 -1.7367
62262SOL     OW91596   0.409   3.211   2.158 -0.2333 -0.2009  0.4322
62262SOL    HW191597   0.423   3.121   2.185  0.5373 -0.4396 -0.6937
62262SOL    HW291598   0.327   3.208   2.108  1.2734 -0.9434 -2.2387
62263SOL     OW91599   4.445  12.099  10.480 -0.1073  0.0739 -0.6490
62263SOL    HW191600   4.459  12.027  10.542  0.6727  0.5741 -0.2314
62263SOL    HW291601   4.419  12.173  10.534  2.8698  1.1969 -0.5500
62264SOL     OW91602   6.151   4.704   9.419 -0.2184  0.0255 -0.8016
62264SOL    HW191603   6.191   4.774   9.367 -0.5184  0.2303 -0.7607
62264SOL    HW291604   6.095   4.658   9.357  0.8699 -0.9148 -1.1145
62265SOL     OW91605  11.935   2.107   7.107  0.4123  0.0532 -0.3982
62265SOL    HW191606  11.950   2.043   7.177 -0.0357  0.3561 -0.0252
62265SOL    HW291607  11.841   2.125   7.111  0.6237  1.1679 -0.1268
62266SOL     OW91608   4.780   3.153  11.778 -0.0987  0.0056  0.1104
62266SOL    HW191609   4.698   3.193  11.804 -0.0901 -0.2452  0.5257
62266SOL    HW291610   4.813   3.209  11.707 -0.7433 -0.0367 -0.2258
62267SOL     OW91611   1.308   7.437  10.332  0.1345  0.6105 -0.4317
62267SOL    HW191612   1.240   7.497  10.363 -0.1015  0.2032 -0.1478
62267SOL    HW291613   1.274   7.350  10.353 -0.3444  0.2648 -2.4409
62268SOL     OW91614   7.546   2.831   8.608  0.2490  0.4240  0.2682
62268SOL    HW191615   7.554   2.751   8.660 -0.8915  0.6852  0.8894
62268SOL    HW291616   7.534   2.900   8.673 -0.2880  0.8831 -0.3118
62269SOL     OW91617   2.422   3.735  10.495 -0.7077 -0.3982 -0.3742
62269SOL    HW191618   2.394   3.745  10.404 -0.4687 -0.1623 -0.4235
62269SOL    HW291619   2.398   3.818  10.537  1.2628  0.4405 -0.7778
62270SOL     OW91620   9.136   9.455  12.624  0.2689  0.1875  0.7531
62270SOL    HW191621   9.117   9.535  12.575 -3.9148 -0.1386  1.4684
62270SOL    HW291622   9.134   9.385  12.559 -2.3555  0.0957  0.8047
62271SOL     OW91623   1.732   8.351   9.134  0.7944  0.0044  0.0910
62271SOL    HW191624   1.759   8.327   9.045  1.5513  1.7891 -0.2119
62271SOL    HW291625   1.803   8.318   9.189  1.6008  1.0713 -0.2668
62272SOL     OW91626  12.263  11.073   7.487 -0.0582 -0.0485 -0.3805
62272SOL    HW191627  12.348  11.100   7.452  0.5200 -1.5694 -0.2124
62272SOL    HW291628  12.259  11.114   7.574  0.5225  0.0016 -0.3761
62273SOL     OW91629  11.719   6.004  12.576 -0.4378  0.3521 -0.3756
62273SOL    HW191630  11.727   5.909  12.587 -0.5444  0.1298 -1.9398
62273SOL    HW291631  11.633   6.015  12.535 -0.6494  1.1818  0.2819
62274SOL     OW91632   1.596   6.923   5.421  0.2832  0.3075  0.2783
62274SOL    HW191633   1.629   6.863   5.488  0.8848 -0.2065 -0.4700
62274SOL    HW291634   1.663   6.923   5.353 -0.2848  0.8830 -0.2946
62275SOL     OW91635   8.217   5.812   7.904  0.1084 -0.3477  0.5280
62275SOL    HW191636   8.201   5.898   7.943 -0.0275  0.1015 -0.4988
62275SOL    HW291637   8.306   5.818   7.868 -0.7522  0.2315 -1.6839
62276SOL     OW91638   7.134   7.159   4.646 -0.4077 -0.1408  0.0614
62276SOL    HW191639   7.197   7.092   4.673  0.2709  0.3063 -0.4025
62276SOL    HW291640   7.141   7.227   4.713  0.4901  0.4653 -0.6241
62277SOL     OW91641   6.630   3.465   9.585 -0.6605  0.2170  0.0275
62277SOL    HW191642   6.548   3.462   9.536 -0.8975 -1.2809  0.4818
62277SOL    HW291643   6.668   3.551   9.563 -1.7856  0.4566 -1.0721
62278SOL     OW91644   1.952   9.257   0.480  0.1710  0.2210 -0.2462
62278SOL    HW191645   1.939   9.168   0.513 -0.0418 -0.1453 -1.2735
62278SOL    HW291646   1.980   9.244   0.389  2.0169  1.1458  0.1506
62279SOL     OW91647   1.411  11.532  10.475 -0.0663  0.0749  0.3200
62279SOL    HW191648   1.454  11.566  10.397  0.3593  2.8553  1.6518
62279SOL    HW291649   1.478  11.534  10.543 -1.3476  1.2329  1.6154
62280SOL     OW91650   6.694   1.172   7.385 -0.0225  0.7386 -0.4141
62280SOL    HW191651   6.753   1.217   7.445 -0.1698 -0.0603  0.3337
62280SOL    HW291652   6.743   1.166   7.303  1.6684 -1.4696  0.6614
62281SOL     OW91653   2.519   8.175   3.572  0.5415 -0.2067 -0.3845
62281SOL    HW191654   2.541   8.082   3.564 -0.7721 -0.5951  0.2413
62281SOL    HW291655   2.477   8.196   3.489 -0.6447 -0.6268  0.0843
62282SOL     OW91656   9.307   1.654   4.653 -0.0817 -0.3000 -0.0651
62282SOL    HW191657   9.383   1.603   4.682  0.4348  0.3950 -0.1743
62282SOL    HW291658   9.234   1.592   4.656  0.6899 -1.2882 -1.0355
62283SOL     OW91659   9.856  10.200   9.860  0.1865 -0.5731  0.5905
62283SOL    HW191660   9.827  10.133   9.923 -1.2170 -1.4742 -0.9278
62283SOL    HW291661   9.845  10.158   9.774 -1.8457  1.9381 -0.5271
62284SOL     OW91662  12.006  12.060  12.372 -0.2356  0.2386  0.2254
62284SOL    HW191663  11.943  11.988  12.367  0.8317 -0.6269 -1.8190
62284SOL    HW291664  12.012  12.080  12.465 -2.6903 -0.3684  0.5885
62285SOL     OW91665   3.742   2.193   3.691 -0.0936 -0.1829  0.1237
62285SOL    HW191666   3.648   2.211   3.691 -0.2963 -1.1746  0.3252
62285SOL    HW291667   3.769   2.210   3.781  0.1120  0.9799 -0.1416
62286SOL     OW91668   0.773   1.657  11.847  0.3603  0.0399 -0.2894
62286SOL    HW191669   0.821   1.641  11.765 -0.2831 -0.7677 -0.5244
62286SOL    HW291670   0.796   1.582  11.902  3.0338  1.9342  1.3966
62287SOL     OW91671   4.349   2.594   6.079 -0.5432 -0.1936  0.2385
62287SOL    HW191672   4.313   2.635   6.000  0.3273 -1.3473 -0.7917
62287SOL    HW291673   4.273   2.582   6.136 -0.6948  4.2233  1.3487
62288SOL     OW91674   2.541   8.524   3.508  1.1123 -0.4082  0.3488
62288SOL    HW191675   2.460   8.545   3.462  2.9879  0.6077 -2.7857
62288SOL    HW291676   2.538   8.578   3.587 -0.6153  0.7235 -0.4246
62289SOL     OW91677  12.437   4.660   7.739 -0.6759 -0.4351  0.2145
62289SOL    HW191678  12.524   4.621   7.742 -0.4526  0.0470  0.1166
62289SOL    HW291679  12.449   4.748   7.774 -0.7739  0.2826 -1.4758
62290SOL     OW91680  10.892   1.760   5.190  0.4552 -0.1151  0.0791
62290SOL    HW191681  10.825   1.715   5.138 -0.3259  1.0671  0.0299
62290SOL    HW291682  10.936   1.818   5.127  1.2626 -0.5813  0.1998
62291SOL     OW91683  11.251   7.609   2.430  0.3943  0.0430  0.0090
62291SOL    HW191684  11.236   7.587   2.338 -0.0629  0.2444  0.0316
62291SOL    HW291685  11.163   7.619   2.467  0.5708  1.3413  0.1334
62292SOL     OW91686   5.596   8.492  11.986  0.3760 -0.6373 -0.0669
62292SOL    HW191687   5.676   8.467  12.033  1.0251 -2.3144 -1.8929
62292SOL    HW291688   5.622   8.492  11.894 -1.6487 -0.9028 -0.6816
62293SOL     OW91689   0.989   6.582   4.233  0.0618  0.4351 -0.0614
62293SOL    HW191690   0.894   6.574   4.240  0.0435  0.1416 -0.6194
62293SOL    HW291691   1.019   6.495   4.209  0.5228  0.4150  0.5468
62294SOL     OW91692   2.797   9.093  11.087  0.3514  0.3539 -0.0996
62294SOL    HW191693   2.750   9.021  11.046  0.2572 -0.6019  1.5926
62294SOL    HW291694   2.730   9.159  11.104  0.3190  0.5771 -1.0618
62295SOL     OW91695   0.020   3.475   7.587  0.1890 -0.4570  0.6232
62295SOL    HW191696  -0.026   3.554   7.559  1.2569  0.0194  0.1594
62295SOL    HW291697  -0.049   3.416   7.616 -0.7830 -0.1346 -0.9341
62296SOL     OW91698   8.884   2.172   3.226  0.4748 -0.3780 -0.4858
62296SOL    HW191699   8.914   2.103   3.167 -1.2554 -2.5554  1.0192
62296SOL    HW291700   8.889   2.133   3.313 -0.2826  1.5332  0.4766
62297SOL     OW91701   3.433   2.496   7.031  0.4995 -0.5291 -0.4601
62297SOL    HW191702   3.480   2.510   7.113 -0.7074 -1.4844  0.4108
62297SOL    HW291703   3.383   2.576   7.018  0.4069 -0.5249 -0.0773
62298SOL     OW91704   4.313  12.079   2.840  0.2221 -0.1070 -0.2026
62298SOL    HW191705   4.252  12.019   2.797  0.8197 -0.1566 -1.0042
62298SOL    HW291706   4.302  12.061   2.934 -1.4516  0.3484 -0.2835
62299SOL     OW91707   8.864   1.302   6.763 -0.1812  0.2051  0.2905
62299SOL    HW191708   8.883   1.209   6.760  0.0838  0.2649  0.0695
62299SOL    HW291709   8.809   1.318   6.686  1.2735  0.5588 -0.7025
62300SOL     OW91710   9.007   7.054   1.434 -0.6121  0.2702 -0.3859
62300SOL    HW191711   9.024   7.094   1.349 -2.9622  0.1716 -0.9835
62300SOL    HW291712   9.029   6.961   1.422  1.3323  0.6453 -0.1025
62301SOL     OW91713  10.158   5.865  10.260  0.3079  0.1718  0.5347
62301SOL    HW191714  10.200   5.807  10.196 -1.0646  0.3619 -0.5701
62301SOL    HW291715  10.126   5.806  10.329 -0.6309 -0.3388 -0.3285
62302SOL     OW91716   8.822   8.996   2.613 -0.4244 -0.8273 -0.1051
62302SOL    HW191717   8.732   8.990   2.581 -0.5832 -0.6552  0.3095
62302SOL    HW291718   8.855   9.079   2.579 -0.6900 -0.5046  0.4255
62303SOL     OW91719  10.566   5.144   2.541 -0.1139  0.1641  0.5312
62303SOL    HW191720  10.532   5.214   2.596  1.4111  0.6323  0.9406
62303SOL    HW291721  10.599   5.190   2.463 -0.8509 -0.3264 -0.0814
62304SOL     OW91722   4.124  10.905   3.338  0.1756 -0.2447 -0.3235
62304SOL    HW191723   4.098  10.993   3.365 -1.5650 -0.7258 -0.3015
62304SOL    HW291724   4.121  10.853   3.419  1.6404 -0.2500 -0.2484
62305SOL     OW91725   1.879   4.488   5.171  0.2381  0.1189 -0.2444
62305SOL    HW191726   1.933   4.534   5.236  1.2494 -0.8723 -0.3354
62305SOL    HW291727   1.883   4.543   5.093  0.7266  0.3117 -0.0899
62306SOL     OW91728   8.147   6.791   8.356  0.3030 -0.5073 -0.1431
62306SOL    HW191729   8.064   6.753   8.328  0.9025 -0.6519 -1.8596
62306SOL    HW291730   8.137   6.804   8.450 -1.6019 -0.6510 -0.2834
62307SOL     OW91731   9.943   6.713   7.130  0.1072  0.1514  0.0900
62307SOL    HW191732   9.898   6.629   7.125  1.6993 -0.7443  0.3536
62307SOL    HW291733   9.872   6.778   7.132 -1.1184 -1.0798 -1.5391
62308SOL     OW91734  10.784   2.049   9.804  0.2640 -0.6366 -0.6224
62308SOL    HW191735  10.791   1.961   9.840 -2.0509 -0.4210  0.5283
62308SOL    HW291736  10.715   2.043   9.738  0.1282  0.2808 -0.5842
62309SOL     OW91737   1.821   5.906   7.936  0.0621 -0.0615  0.5278
62309SOL    HW191738   1.797   5.864   7.854  1.9868 -1.5224  0.6443
62309SOL    HW291739   1.766   5.864   8.002 -1.5094  1.1383  0.0176
62310SOL     OW91740   7.652   7.727   9.387  0.3736 -0.2162  0.1310
62310SOL    HW191741   7.687   7.706   9.301  0.4632 -3.1433  0.7807
62310SOL    HW291742   7.726   7.766   9.434  1.4202 -1.9560 -0.0007
62311SOL     OW91743   8.971   5.283   7.068 -0.0771  0.4719 -0.1229
62311SOL    HW191744   8.932   5.340   7.002  0.5087 -0.7094 -1.5509
62311SOL    HW291745   9.031   5.340   7.116  0.1743  1.1654 -1.2213
62312SOL     OW91746   5.925   6.261   3.271 -0.1631 -0.1939 -0.0906
62312SOL    HW191747   5.959   6.297   3.352  1.9620 -0.1771 -0.9277
62312SOL    HW291748   5.954   6.322   3.203 -1.5398 -0.4130 -0.9283
62313SOL     OW91749   9.979   6.445   2.541 -0.6483  0.4390  0.5333
62313SOL    HW191750   9.941   6.460   2.455  0.1696 -0.1273  0.0602
62313SOL    HW291751  10.057   6.392   2.524 -0.4584  0.3484  1.6169
62314SOL     OW91752   7.298   7.576  12.126  0.9464  0.6187  0.4769
62314SOL    HW191753   7.339   7.514  12.066  1.0910 -0.1916  1.3666
62314SOL    HW291754   7.225   7.613  12.077 -0.4424 -1.8115  0.5434
62315SOL     OW91755   7.161   1.559  10.629  0.1467  0.0220  0.7815
62315SOL    HW191756   7.070   1.589  10.625 -0.4022 -1.6123  0.1582
62315SOL    HW291757   7.155   1.464  10.640  1.7351 -0.3281 -0.7866
62316SOL     OW91758   4.412  10.619   8.776 -0.5242  0.2841  0.2925
62316SOL    HW191759   4.377  10.636   8.688  0.0312  0.9148  0.1867
62316SOL    HW291760   4.504  10.641   8.769 -1.0506  3.5318  1.8569
62317SOL     OW91761   5.748   3.656   1.615  0.2387 -0.2639  0.0731
62317SOL    HW191762   5.658   3.687   1.624  0.5545  0.5345  0.6346
62317SOL    HW291763   5.744   3.588   1.548 -0.6077  0.4857 -0.6476
62318SOL     OW91764  10.430   0.777   5.829 -0.2895 -0.1757  0.4881
62318SOL    HW191765  10.454   0.862   5.866  1.4305  0.5329 -1.9829
62318SOL    HW291766  10.485   0.714   5.875  1.1207  0.5568 -0.1417
62319SOL     OW91767   3.057  10.483   1.284  0.3862  0.1654 -0.0845
62319SOL    HW191768   3.077  10.520   1.198 -1.0693  1.0788 -0.0587
62319SOL    HW291769   3.098  10.542   1.346  0.7068 -0.0108 -0.1288
62320SOL     OW91770   4.163   0.390   3.787  0.1904 -0.1657  0.5030
62320SOL    HW191771   4.104   0.458   3.818  0.4595  0.0599  0.5233
62320SOL    HW291772   4.109   0.337   3.728  0.0113  0.1328  0.3937
62321SOL     OW91773   6.147   9.645   3.039 -0.1095  0.5690  0.5691
62321SOL    HW191774   6.055   9.659   3.018  0.3301  1.6446 -0.8548
62321SOL    HW291775   6.148   9.627   3.132 -1.6292  2.1272  0.9428
62322SOL     OW91776   0.838   0.252   6.463 -0.1005  0.6375  0.4748
62322SOL    HW191777   0.930   0.277   6.468  0.0057  0.0555  2.1851
62322SOL    HW291778   0.832   0.195   6.387  0.5237  2.2766 -0.8474
62323SOL     OW91779   7.496   9.947  10.753 -0.4753  0.0287 -0.7369
62323SOL    HW191780   7.491  10.032  10.798 -1.4661 -0.3526 -0.0901
62323SOL    HW291781   7.405   9.927  10.730 -0.8802 -2.4913  2.2891
62324SOL     OW91782   6.211   3.259  11.076 -0.4661 -0.0393  0.2206
62324SOL    HW191783   6.230   3.295  10.989 -0.1007  0.5431  0.5331
62324SOL    HW291784   6.182   3.335  11.127 -0.3435 -0.3178  0.7048
62325SOL     OW91785   1.742   5.164   2.838  0.3071  0.4081 -0.1276
62325SOL    HW191786   1.682   5.210   2.897  0.3266  0.8447 -0.4400
62325SOL    HW291787   1.769   5.231   2.775 -0.3790 -0.2394 -1.1395
62326SOL     OW91788   9.579  12.291   4.226  0.2137  0.1858  0.0115
62326SOL    HW191789   9.616  12.376   4.250  0.9608  0.2844 -1.4298
62326SOL    HW291790   9.485  12.308   4.215 -0.1324  0.2052  2.4035
62327SOL     OW91791   9.000  11.674   5.491 -0.0551  0.4603  0.1862
62327SOL    HW191792   8.923  11.644   5.539  0.3367 -0.1858  0.4195
62327SOL    HW291793   9.048  11.594   5.470  0.7612  0.8861  0.4041
62328SOL     OW91794   2.871   3.249  10.618  0.3726 -0.2081 -0.1423
62328SOL    HW191795   2.898   3.294  10.698 -0.2907 -0.4013  0.1975
62328SOL    HW291796   2.953   3.229  10.573  0.6976  0.9489 -0.0857
62329SOL     OW91797   6.794   7.519   8.064  0.5423 -0.0083 -0.0243
62329SOL    HW191798   6.750   7.457   8.006 -1.1334 -0.4077  1.5701
62329SOL    HW291799   6.729   7.589   8.077  1.5329  0.9217  0.0276
62330SOL     OW91800   0.566   7.974   0.967  0.2414  0.0374 -0.4698
62330SOL    HW191801   0.502   8.045   0.963  1.3442  1.1403  0.5148
62330SOL    HW291802   0.538   7.912   0.900 -1.9406  0.3956  0.0344
62331SOL     OW91803   3.285   5.797   1.347  0.2823  0.3441 -0.1345
62331SOL    HW191804   3.211   5.850   1.317  0.4625  0.3450 -0.5958
62331SOL    HW291805   3.338   5.857   1.399 -0.8017 -0.0331  1.4838
62332SOL     OW91806   6.270   9.130   6.022 -0.4593 -0.1966 -0.2706
62332SOL    HW191807   6.321   9.192   5.970 -1.6418  1.1854  0.1346
62332SOL    HW291808   6.284   9.046   5.980  3.0004 -0.1401  0.4693
62333SOL     OW91809   9.422  12.475  10.492  0.0417 -0.1551  0.1097
62333SOL    HW191810   9.409  12.380  10.483  1.3551 -0.4691  1.1437
62333SOL    HW291811   9.395  12.494  10.582 -1.2102  0.6642 -0.4156
62334SOL     OW91812  12.437  12.549   3.004 -0.1493  0.5556  0.2096
62334SOL    HW191813  12.489  12.616   3.049 -2.0187  0.5523  2.5652
62334SOL    HW291814  12.459  12.467   3.048 -0.6386  0.2229 -0.1490
62335SOL     OW91815  10.715   0.078  12.559  0.0563 -0.4188  0.2585
62335SOL    HW191816  10.700   0.170  12.581  0.2087 -0.5956  1.1320
62335SOL    HW291817  10.629   0.038  12.565  0.3075 -0.7475  1.9373
62336SOL     OW91818  11.010   1.487   7.259 -1.1593 -0.2122  0.1860
62336SOL    HW191819  11.044   1.575   7.241 -1.0196 -0.0786  1.0418
62336SOL    HW291820  10.925   1.485   7.214 -0.7466  0.0197 -0.6198
62337SOL     OW91821   2.564   6.434   9.575 -0.2592  0.0727 -0.0390
62337SOL    HW191822   2.504   6.504   9.550 -1.3818 -1.4325 -1.8279
62337SOL    HW291823   2.622   6.424   9.500  0.4310 -0.3479  0.5415
62338SOL     OW91824   9.343   5.462  11.824 -0.0769 -0.0413  0.1696
62338SOL    HW191825   9.316   5.399  11.891 -2.3597  1.1647  0.4749
62338SOL    HW291826   9.338   5.414  11.742 -1.1065 -0.4798  0.4756
62339SOL     OW91827   2.987   1.365   1.886 -0.0911  0.1954 -0.0196
62339SOL    HW191828   2.897   1.346   1.914 -0.1511  0.9038  0.2802
62339SOL    HW291829   2.993   1.326   1.798 -0.0343 -1.6640  0.7635
62340SOL     OW91830   7.964   2.903   4.148  0.3775 -0.0421  0.1217
62340SOL    HW191831   8.056   2.913   4.173  1.0894  1.4758 -2.6563
62340SOL    HW291832   7.926   2.990   4.157 -0.3320 -0.2930 -0.3221
62341SOL     OW91833   7.729   8.611   9.612  0.5924  0.2534  0.3210
62341SOL    HW191834   7.722   8.531   9.663  0.4343  0.3134  0.3948
62341SOL    HW291835   7.638   8.642   9.604  0.6490  0.4035  0.2602
62342SOL     OW91836   1.297   5.692   0.598  0.1801 -0.2299  0.4474
62342SOL    HW191837   1.385   5.692   0.560 -0.1348 -1.9438 -0.4211
62342SOL    HW291838   1.291   5.775   0.645  1.9958  0.2498 -0.0635
62343SOL     OW91839   7.334   5.214   5.782  0.4255 -0.0739 -0.4735
62343SOL    HW191840   7.285   5.136   5.810  0.9138 -0.0008  0.6493
62343SOL    HW291841   7.353   5.261   5.864 -0.5709  1.6636 -1.1799
62344SOL     OW91842   7.182   3.325   6.068 -0.0809 -0.0217 -0.1306
62344SOL    HW191843   7.253   3.265   6.090  0.6235  1.2243  1.1497
62344SOL    HW291844   7.154   3.299   5.980  0.0273 -2.3675  0.4666
62345SOL     OW91845   1.437   6.417   8.682 -0.6282  0.1364  0.3752
62345SOL    HW191846   1.434   6.385   8.772  0.9209  0.2543  0.4971
62345SOL    HW291847   1.368   6.368   8.636 -0.7132 -0.7027  1.3733
62346SOL     OW91848   0.594   9.238  11.094  0.7888 -0.4344 -0.7692
62346SOL    HW191849   0.550   9.322  11.101  1.3414 -0.1278 -0.8669
62346SOL    HW291850   0.686   9.260  11.081  0.9861 -1.0559 -0.4957
62347SOL     OW91851  10.204   7.127   4.872 -0.6001  0.0621  0.2206
62347SOL    HW191852  10.139   7.107   4.804 -0.2315 -0.4693  0.0150
62347SOL    HW291853  10.158   7.184   4.933 -1.0109  0.3671 -0.3570
62348SOL     OW91854  11.510   6.046   3.014  0.2278  0.2389 -0.0437
62348SOL    HW191855  11.501   6.139   2.995 -0.2646 -0.1970 -2.1914
62348SOL    HW291856  11.483   6.037   3.105  0.0913  2.1542  0.1435
62349SOL     OW91857   3.614   4.720   3.613 -0.3221 -0.2450  0.2525
62349SOL    HW191858   3.631   4.694   3.703 -0.5768  1.5929  0.8674
62349SOL    HW291859   3.605   4.815   3.616 -0.7186 -0.1720 -1.6550
62350SOL     OW91860   2.810  10.580   5.777 -0.3306 -0.1646  0.3583
62350SOL    HW191861   2.809  10.673   5.753  0.5098  0.1790  1.5672
62350SOL    HW291862   2.766  10.577   5.862  2.1767 -0.3911  1.7500
62351SOL     OW91863   3.116  11.603  12.145 -0.4511 -0.2264 -0.1622
62351SOL    HW191864   3.093  11.523  12.193 -1.1462 -0.1038 -0.2718
62351SOL    HW291865   3.203  11.586  12.110 -0.3619 -0.7182  0.2798
62352SOL     OW91866   7.375   7.207  11.033 -0.0329 -0.0706 -0.1673
62352SOL    HW191867   7.359   7.117  11.061  2.1821 -0.0505  1.4168
62352SOL    HW291868   7.367   7.204  10.938 -1.0234 -1.7027 -0.0706
62353SOL     OW91869   9.054   5.252   3.275  0.1468 -0.3956  0.3376
62353SOL    HW191870   9.050   5.339   3.315 -0.5798  0.3420 -1.2491
62353SOL    HW291871   9.100   5.198   3.339  0.6308  1.1630  1.3516
62354SOL     OW91872   7.163   2.279   9.364 -0.0468 -0.3910 -0.4616
62354SOL    HW191873   7.133   2.346   9.425  1.7028 -0.8858  1.0524
62354SOL    HW291874   7.102   2.283   9.291 -2.9514 -0.5084  1.7851
62355SOL     OW91875   9.909  10.294   7.802  0.0480 -0.2188 -0.4054
62355SOL    HW191876   9.893  10.204   7.773  2.9121 -0.7727 -0.5979
62355SOL    HW291877   9.850  10.307   7.876 -1.0702 -1.9098 -0.9448
62356SOL     OW91878   9.927   0.257   6.154  0.2742  0.2555 -0.1165
62356SOL    HW191879   9.908   0.186   6.093  0.6165 -1.0974  1.2680
62356SOL    HW291880   9.842   0.293   6.178  0.0599 -0.0289 -0.4516
62357SOL     OW91881   4.864   3.897   6.730 -0.3488  0.0111  0.0031
62357SOL    HW191882   4.893   3.987   6.740  2.9888 -0.8794 -0.1945
62357SOL    HW291883   4.851   3.886   6.636  0.3450  0.0239 -0.0987
62358SOL     OW91884  12.559   6.425   5.717  0.4753 -0.2259  0.2839
62358SOL    HW191885  12.561   6.486   5.791 -0.3117  1.0994 -0.7194
62358SOL    HW291886  12.476   6.444   5.673  0.9577 -0.9085 -0.9815
62359SOL     OW91887   0.332  11.860   9.119  0.4159 -0.4921 -0.5440
62359SOL    HW191888   0.346  11.951   9.091 -0.8263  0.5227  1.8020
62359SOL    HW291889   0.332  11.865   9.214 -1.1972 -2.7053 -0.3680
62360SOL     OW91890  11.222  10.599   6.517 -0.5710  0.0643  0.2250
62360SOL    HW191891  11.260  10.673   6.469  0.4774  0.2685  1.3143
62360SOL    HW291892  11.171  10.552   6.451  2.9160 -1.2167 -1.8708
62361SOL     OW91893   5.493   8.619   5.217 -0.0254 -0.5003  0.0858
62361SOL    HW191894   5.456   8.553   5.158 -0.5107 -0.3415  0.2142
62361SOL    HW291895   5.450   8.701   5.192  1.4157  0.0019 -0.8590
62362SOL     OW91896   5.912   6.851   8.362 -0.2346  0.5873  1.1702
62362SOL    HW191897   5.891   6.940   8.392  0.4727  1.0292  0.3877
62362SOL    HW291898   6.005   6.854   8.341 -0.4525 -0.0157  0.0251
62363SOL     OW91899   3.529  11.938  12.582  0.8336  0.2547  0.0042
62363SOL    HW191900   3.463  11.880  12.543 -0.2195  1.6078 -0.3262
62363SOL    HW291901   3.537  12.011  12.520  1.8927  0.6268  0.5467
62364SOL     OW91902  12.474   0.153   2.656  0.0894  0.2489  0.5574
62364SOL    HW191903  12.409   0.082   2.657 -0.3537  0.6358 -0.1919
62364SOL    HW291904  12.558   0.107   2.663 -0.1434 -0.4378 -0.6748
62365SOL     OW91905   0.480   2.613   6.706  0.3750 -0.3947  0.5607
62365SOL    HW191906   0.467   2.631   6.799  2.3369 -1.1434  1.0132
62365SOL    HW291907   0.548   2.674   6.679  0.0736 -0.4290 -0.2954
62366SOL     OW91908   6.882   5.696   3.875 -0.6381  0.2524  0.2617
62366SOL    HW191909   6.927   5.671   3.956 -1.4193  0.9454  0.9329
62366SOL    HW291910   6.818   5.761   3.903 -0.6346  0.8203 -0.9885
62367SOL     OW91911   7.466   6.644   9.907  0.3227 -0.1969  0.7708
62367SOL    HW191912   7.415   6.677   9.981  0.5956 -2.1889  1.9324
62367SOL    HW291913   7.517   6.571   9.944  0.3969 -1.3320 -1.3930
62368SOL     OW91914   4.403   5.958   7.081 -0.0051  0.0884 -0.2690
62368SOL    HW191915   4.457   6.000   7.014  0.2517 -0.0401 -0.1440
62368SOL    HW291916   4.445   5.981   7.164  0.0243 -0.2474 -0.1882
62369SOL     OW91917  11.808   7.395   5.595  0.1211  0.6630  0.0106
62369SOL    HW191918  11.720   7.405   5.633 -0.1522 -0.1243 -0.4021
62369SOL    HW291919  11.794   7.345   5.514  1.1365 -0.9955  0.8032
62370SOL     OW91920   4.927   0.754  11.694 -0.0871 -0.1644 -0.5359
62370SOL    HW191921   4.928   0.669  11.651 -0.6093 -1.0190  1.0561
62370SOL    HW291922   4.834   0.775  11.704  0.0340  0.8048 -1.2789
62371SOL     OW91923   3.313   9.925   9.817 -0.1409 -0.5156 -0.4628
62371SOL    HW191924   3.320  10.003   9.873  0.5138 -1.1497  0.3606
62371SOL    HW291925   3.266   9.861   9.871  1.0897 -1.3628 -0.3573
62372SOL     OW91926  12.426   0.514   0.368 -0.0608 -0.1271  0.4246
62372SOL    HW191927  12.413   0.603   0.336  0.4952  0.0382  0.6393
62372SOL    HW291928  12.343   0.489   0.407 -0.1452  0.3929  0.5866
62373SOL     OW91929   6.581   3.389  11.542  0.1777 -0.1499 -0.1734
62373SOL    HW191930   6.543   3.391  11.454 -0.2702 -1.0987 -0.0066
62373SOL    HW291931   6.665   3.344  11.531 -0.6575 -1.8733  0.1525
62374SOL     OW91932   9.706   1.507  11.913  0.5001  0.1998  0.3952
62374SOL    HW191933   9.676   1.532  11.826  2.5811 -1.4617 -0.8831
62374SOL    HW291934   9.676   1.417  11.925  1.7912 -0.2291  0.5857
62375SOL     OW91935  10.274  11.052   2.269  0.3489  0.0645 -0.2881
62375SOL    HW191936  10.300  11.048   2.361 -0.4556 -0.3462 -0.0697
62375SOL    HW291937  10.179  11.063   2.271  0.3806  0.5657 -1.0716
62376SOL     OW91938  11.506   2.957   2.545 -0.9833  0.5538  0.3253
62376SOL    HW191939  11.490   3.021   2.614 -0.2325 -0.2209  1.2479
62376SOL    HW291940  11.490   2.872   2.587  0.9335 -0.0153  0.0026
62377SOL     OW91941   1.202   2.811   8.048  0.2670  0.2024  0.6991
62377SOL    HW191942   1.186   2.731   7.998  2.1014 -0.5370  1.2028
62377SOL    HW291943   1.118   2.855   8.050 -0.4684 -1.0184 -0.8092
62378SOL     OW91944   1.782   0.395   3.497 -0.5831 -0.3568  0.0650
62378SOL    HW191945   1.722   0.458   3.458  0.6951 -0.3508 -2.0640
62378SOL    HW291946   1.868   0.438   3.494  0.3404 -2.1391 -1.5500
62379SOL     OW91947   4.945   4.145   2.593 -0.6255 -0.1523  0.7621
62379SOL    HW191948   5.013   4.103   2.645 -0.6315  0.6181  1.4075
62379SOL    HW291949   4.940   4.092   2.513  0.9475 -0.0444  0.5635
62380SOL     OW91950   0.264  11.770  11.560  0.5455 -0.0472  0.6094
62380SOL    HW191951   0.279  11.863  11.540 -0.1203  0.4945  2.4516
62380SOL    HW291952   0.169  11.759  11.552  0.5842 -0.4869  0.7597
62381SOL     OW91953   1.618   5.593   3.599 -0.2968  0.2882 -0.3102
62381SOL    HW191954   1.576   5.644   3.668  0.6928 -1.4250  1.6252
62381SOL    HW291955   1.583   5.505   3.608  1.3467 -0.4410 -0.6860
62382SOL     OW91956   8.431   8.509   3.767 -0.2368 -0.4805  0.0985
62382SOL    HW191957   8.371   8.435   3.769 -0.6442 -0.1658  2.3308
62382SOL    HW291958   8.435   8.535   3.675 -2.4121 -1.4038 -0.3088
62383SOL     OW91959   0.959   0.721   3.850 -0.3980 -0.7224  0.3924
62383SOL    HW191960   0.943   0.779   3.924  0.6676 -0.2925  0.3088
62383SOL    HW291961   1.027   0.766   3.799  0.7612 -2.2128  0.5361
62384SOL     OW91962  11.779   7.884   4.902 -0.3253  0.1344 -0.5909
62384SOL    HW191963  11.851   7.893   4.965  0.3183  0.6511 -1.3864
62384SOL    HW291964  11.822   7.874   4.817 -1.1924  0.1357 -1.0384
62385SOL     OW91965   7.058   8.638  11.978 -0.0324 -0.6085  0.0330
62385SOL    HW191966   7.069   8.576  12.050  0.5787 -0.8727 -0.2832
62385SOL    HW291967   6.981   8.690  12.002  0.4390 -0.3941  1.0806
62386SOL     OW91968   1.256   7.872   6.997  0.0541  0.3251  0.4832
62386SOL    HW191969   1.230   7.870   7.090  0.4808 -0.7555  0.5932
62386SOL    HW291970   1.308   7.792   6.985  0.8630  0.9736 -0.4453
62387SOL     OW91971   7.084   1.970   4.770  0.1911  0.2508 -0.5172
62387SOL    HW191972   7.080   1.920   4.689 -1.2089 -0.4387 -0.0600
62387SOL    HW291973   7.031   2.048   4.754 -1.3138 -0.5756  0.1325
62388SOL     OW91974   9.910   6.888   0.693  0.0471 -0.2306 -0.2408
62388SOL    HW191975   9.815   6.881   0.697  0.0378  0.0213  0.0268
62388SOL    HW291976   9.929   6.971   0.736  0.3754 -0.1938 -0.4530
62389SOL     OW91977   9.108  11.013   1.954 -0.0263 -0.1837  0.2469
62389SOL    HW191978   9.138  10.945   2.016  0.8570 -1.0924 -1.1234
62389SOL    HW291979   9.139  11.095   1.993  1.1214 -0.7916  0.6887
62390SOL     OW91980   4.949   8.391   7.614 -0.0464 -0.0959  0.2203
62390SOL    HW191981   4.937   8.322   7.679  1.9254 -1.4159 -0.7267
62390SOL    HW291982   5.035   8.428   7.635 -1.2274  2.4474  0.9740
62391SOL     OW91983   8.336  11.807   7.092  0.1404  0.5635 -0.0389
62391SOL    HW191984   8.265  11.853   7.137 -1.4187 -1.1169 -0.6958
62391SOL    HW291985   8.363  11.739   7.155 -0.9443 -0.7454 -0.9338
62392SOL     OW91986   6.493  11.116   4.637 -0.6389 -0.0983  0.5439
62392SOL    HW191987   6.508  11.103   4.543 -0.9829  0.8386  0.3564
62392SOL    HW291988   6.403  11.086   4.651 -0.9635  0.7864  0.3669
62393SOL     OW91989   6.439   1.971   4.731 -0.7353  0.7404 -0.1910
62393SOL    HW191990   6.496   2.047   4.729 -1.6910  1.4794 -2.3699
62393SOL    HW291991   6.498   1.896   4.720  0.1851  1.1188  1.7860
62394SOL     OW91992   0.480   1.464   1.898 -0.1155  0.1433 -0.6542
62394SOL    HW191993   0.504   1.556   1.904  0.3850 -0.0146 -0.1668
62394SOL    HW291994   0.392   1.460   1.936 -0.2273  0.4554 -0.8825
62395SOL     OW91995   0.889   0.096   8.678  0.4403 -0.3066  0.8144
62395SOL    HW191996   0.970   0.130   8.640  0.9943  0.5123  2.5790
62395SOL    HW291997   0.916   0.019   8.727 -0.1136 -0.8912  0.2121
62396SOL     OW91998   4.831   2.242   8.765  0.0434  0.1488 -0.0794
62396SOL    HW191999   4.859   2.302   8.835 -0.4867  0.6103 -0.2536
62396SOL    HW292000   4.737   2.229   8.781  0.1655 -0.6866 -0.0137
62397SOL     OW92001   3.367   4.707   0.925  0.0297 -0.4243 -0.0617
62397SOL    HW192002   3.375   4.651   1.002 -1.7957 -2.1863 -1.0397
62397SOL    HW292003   3.455   4.709   0.887  1.4254  1.9665  2.9150
62398SOL     OW92004   5.806   7.884  12.190  0.2906  0.8792 -0.3028
62398SOL    HW192005   5.878   7.860  12.248  1.6040  1.8248 -1.4743
62398SOL    HW292006   5.813   7.979  12.180  0.0490  0.7635 -1.8896
62399SOL     OW92007   0.390   1.492  11.632 -0.5848 -0.3299  0.3855
62399SOL    HW192008   0.372   1.549  11.557 -1.2943  1.1790  1.6318
62399SOL    HW292009   0.485   1.490  11.638 -0.5386  0.6769  0.2410
62400SOL     OW92010   1.149  12.415   6.525  0.2722  0.0394 -0.3377
62400SOL    HW192011   1.066  12.373   6.504  0.1483 -0.2718  0.7016
62400SOL    HW292012   1.215  12.353   6.493  0.1154  0.2830 -1.1574
62401SOL     OW92013  11.236   2.110   7.189  0.4400  0.3477  0.0438
62401SOL    HW192014  11.283   2.175   7.137  0.0464  0.2921 -0.3885
62401SOL    HW292015  11.143   2.133   7.178  0.2306 -0.7937 -0.8392
62402SOL     OW92016   6.743   2.443   5.390  0.8198 -0.3311 -0.1686
62402SOL    HW192017   6.761   2.496   5.313  1.2214 -0.1763  0.0302
62402SOL    HW292018   6.778   2.356   5.368  0.7189 -0.3499 -0.2538
62403SOL     OW92019   9.869  12.404   8.009  0.7796  0.6284  0.3488
62403SOL    HW192020   9.832  12.492   8.000 -1.8412 -0.2409  1.8067
62403SOL    HW292021   9.834  12.372   8.092  0.4650 -2.3493 -0.8345
62404SOL     OW92022   9.036   8.804  10.856  0.1344 -0.1218 -0.1145
62404SOL    HW192023   8.979   8.729  10.838 -1.8555  1.0690  0.7686
62404SOL    HW292024   8.975   8.878  10.862  1.1872  0.7106  4.4722
62405SOL     OW92025  12.483   6.977   3.189  0.0611  0.0485 -0.3049
62405SOL    HW192026  12.439   7.055   3.153  1.1294  1.2987  0.9587
62405SOL    HW292027  12.521   6.934   3.112  0.5606  1.5102 -0.9249
62406SOL     OW92028   8.644  11.205   8.203  0.2765  0.3893 -0.4568
62406SOL    HW192029   8.609  11.226   8.289  0.4802 -1.1894  0.0497
62406SOL    HW292030   8.738  11.194   8.217  0.0876 -1.6173 -0.4645
62407SOL     OW92031  12.233   2.458   3.936  0.1066 -0.3546  0.6653
62407SOL    HW192032  12.166   2.477   4.002 -2.5918  0.4475 -2.1185
62407SOL    HW292033  12.248   2.542   3.892  0.1900 -1.2792 -1.1427
62408SOL     OW92034   9.285   6.839   5.759 -0.5870  0.0950  0.0077
62408SOL    HW192035   9.297   6.908   5.825 -0.3741 -0.1189  0.1954
62408SOL    HW292036   9.202   6.797   5.782 -0.3828 -0.1534  0.3030
62409SOL     OW92037   6.071   2.403   6.858 -0.0641  0.5079 -0.5785
62409SOL    HW192038   6.079   2.423   6.765 -0.4716  0.2737 -0.6640
62409SOL    HW292039   5.982   2.370   6.868 -0.1701  0.9332 -0.0343
62410SOL     OW92040   3.389   2.457   9.578 -0.2416 -0.2920 -0.0563
62410SOL    HW192041   3.332   2.388   9.614  0.0279 -0.6453 -0.3027
62410SOL    HW292042   3.472   2.413   9.560  0.1590  0.2471  0.4250
62411SOL     OW92043   1.509  10.784   0.517  0.5895 -0.4033 -0.3161
62411SOL    HW192044   1.475  10.697   0.537  0.5305 -0.1956  0.4903
62411SOL    HW292045   1.594  10.768   0.476  1.2503 -0.8191  1.1456
62412SOL     OW92046   4.199   7.892   3.518  0.1285 -0.8243 -0.0754
62412SOL    HW192047   4.123   7.948   3.533  0.5270  0.4405 -2.3584
62412SOL    HW292048   4.273   7.943   3.551  0.3663 -0.4691 -1.1342
62413SOL     OW92049  11.547  11.040   3.714  0.0285 -0.2414 -0.3357
62413SOL    HW192050  11.486  11.096   3.762 -0.0955 -1.8052  1.4149
62413SOL    HW292051  11.632  11.082   3.726 -0.2484  0.3031 -0.2218
62414SOL     OW92052   1.416   9.013  12.049  0.0591  0.2243  0.4076
62414SOL    HW192053   1.398   8.919  12.046  2.6350 -0.3560  1.2184
62414SOL    HW292054   1.431   9.037  11.957 -4.2109  0.7835 -0.3846
62415SOL     OW92055   0.449   2.078   5.514  0.2623 -0.1994 -0.1127
62415SOL    HW192056   0.445   2.004   5.453  2.1834  1.3472 -2.2916
62415SOL    HW292057   0.479   2.040   5.596  0.6537 -1.9347 -1.0025
62416SOL     OW92058  10.993   8.650   1.136 -0.0814 -0.6271  0.2459
62416SOL    HW192059  10.980   8.589   1.209  1.8937  0.4137  1.5685
62416SOL    HW292060  11.049   8.718   1.173 -1.5199  1.5695 -1.4042
62417SOL     OW92061  12.090   4.888   5.157 -0.0215 -0.0351 -0.2938
62417SOL    HW192062  12.065   4.805   5.198  0.6123  0.1331  0.4440
62417SOL    HW292063  12.015   4.910   5.102 -0.4175 -0.8331 -0.0960
62418SOL     OW92064   9.312   4.886   5.793 -0.2061 -0.1077 -0.0990
62418SOL    HW192065   9.247   4.931   5.847 -1.2659 -0.2483 -1.2103
62418SOL    HW292066   9.392   4.936   5.806 -1.4176  2.4361 -1.5976
62419SOL     OW92067   2.150   4.585   5.946 -0.7454  0.5070 -0.1746
62419SOL    HW192068   2.204   4.658   5.976 -0.1389 -0.1597  0.3831
62419SOL    HW292069   2.066   4.625   5.922  0.2665  1.6932 -1.9117
62420SOL     OW92070   0.603   6.715   8.472  0.0556 -0.2061  0.1612
62420SOL    HW192071   0.534   6.655   8.445  0.8285 -0.6928 -0.8178
62420SOL    HW292072   0.568   6.760   8.549 -0.8992 -1.2392  0.3511
62421SOL     OW92073  11.772   3.036  10.920 -0.6923  0.4368 -0.3115
62421SOL    HW192074  11.795   3.046  10.827 -0.7983 -1.2182 -0.5522
62421SOL    HW292075  11.678   3.021  10.920 -0.4371 -1.4301 -0.1519
62422SOL     OW92076  12.163   9.189   5.828 -0.5435  0.1706  0.6113
62422SOL    HW192077  12.226   9.118   5.838 -0.9881 -0.1855  0.9215
62422SOL    HW292078  12.080   9.146   5.807 -0.4175  0.7094 -1.1379
62423SOL     OW92079   5.092  10.584  11.595 -0.1088  0.1996  0.3849
62423SOL    HW192080   5.095  10.674  11.564  0.4448 -0.0327 -0.2521
62423SOL    HW292081   5.024  10.584  11.663  0.2448  1.1934  0.7445
62424SOL     OW92082  11.735   6.666   1.400  0.9079  0.4023 -0.7126
62424SOL    HW192083  11.808   6.707   1.448  0.6654 -1.5942  1.6011
62424SOL    HW292084  11.776   6.594   1.352  0.6568  0.1345 -0.5285
62425SOL     OW92085   9.973  10.681  12.138  0.1178  0.0254 -0.2165
62425SOL    HW192086   9.948  10.754  12.082  0.8943  0.8594  0.4829
62425SOL    HW292087   9.890  10.644  12.168 -0.2907  0.1749 -1.1235
62426SOL     OW92088   3.550   3.357   4.599  0.0833  0.5063 -0.4934
62426SOL    HW192089   3.643   3.360   4.577  0.0870 -0.4101 -0.6425
62426SOL    HW292090   3.532   3.265   4.615 -0.7824  0.6876 -0.3653
62427SOL     OW92091   3.190   3.807   2.421 -0.1766  0.1513 -0.2320
62427SOL    HW192092   3.193   3.752   2.342  0.4108  1.2525 -1.0057
62427SOL    HW292093   3.241   3.884   2.398 -0.5661  0.8026  1.0075
62428SOL     OW92094   7.811   7.742  10.172 -0.1748 -0.3612  0.0469
62428SOL    HW192095   7.865   7.789  10.109 -0.1902 -0.3978  0.0061
62428SOL    HW292096   7.744   7.699  10.120 -0.1911 -0.3870  0.0892
62429SOL     OW92097  11.347   0.944   8.892 -0.0984 -0.1977 -0.2029
62429SOL    HW192098  11.275   0.883   8.876  1.6134 -2.2071 -0.6572
62429SOL    HW292099  11.363   0.938   8.986  0.0052 -0.3660 -0.2316
62430SOL     OW92100  11.443   6.633   1.497 -0.1848 -0.2785 -0.1472
62430SOL    HW192101  11.401   6.694   1.558  0.2229  0.8527 -0.9537
62430SOL    HW292102  11.536   6.653   1.503 -0.2842  1.3084 -2.5722
62431SOL     OW92103   3.777  11.616   7.476 -0.3848  0.0479  0.2693
62431SOL    HW192104   3.852  11.592   7.529 -1.0131  1.2444  1.7612
62431SOL    HW292105   3.806  11.691   7.425 -0.2686 -0.1220  0.0829
62432SOL     OW92106  11.381   1.015  11.475 -0.2475 -0.5135  0.1813
62432SOL    HW192107  11.408   1.103  11.448  0.6857 -0.5401  0.9821
62432SOL    HW292108  11.362   1.023  11.568  1.1272 -1.4369  0.5636
62433SOL     OW92109   2.477   8.185   2.375 -0.0688 -0.0005 -0.1689
62433SOL    HW192110   2.408   8.152   2.317  0.8258  0.5030 -1.5631
62433SOL    HW292111   2.458   8.144   2.460 -2.1205  0.1873 -0.4742
62434SOL     OW92112   2.322   6.441   7.005  0.1077  0.3153 -0.4415
62434SOL    HW192113   2.408   6.466   7.037  0.2354  0.9399 -1.2354
62434SOL    HW292114   2.294   6.370   7.062  0.6364  0.9029  0.5586
62435SOL     OW92115   7.504   4.990   3.894  0.5825 -0.2857 -0.0731
62435SOL    HW192116   7.415   5.011   3.922  0.9937  1.9893 -0.3483
62435SOL    HW292117   7.494   4.910   3.842 -1.0769 -0.8804  1.0627
62436SOL     OW92118   2.546   1.860   2.855 -0.9360 -0.0364  0.5678
62436SOL    HW192119   2.637   1.889   2.849 -0.9471 -0.0909  0.0673
62436SOL    HW292120   2.498   1.924   2.803 -1.0690 -0.4918  0.1245
62437SOL     OW92121   2.246   7.154   3.562 -0.0208 -0.1667  0.3245
62437SOL    HW192122   2.190   7.226   3.533 -1.5671 -1.1163  0.8642
62437SOL    HW292123   2.212   7.077   3.516  1.2003 -0.6955  0.2578
62438SOL     OW92124   0.920   3.141   2.218 -0.2856 -0.2124 -0.2960
62438SOL    HW192125   0.905   3.092   2.299 -0.0677  0.6779  0.3003
62438SOL    HW292126   1.012   3.167   2.222 -0.5018  0.6046 -0.3812
62439SOL     OW92127   6.850   3.678   5.475  0.3614  0.0240 -0.3641
62439SOL    HW192128   6.826   3.663   5.566 -0.2624  0.1433 -0.5074
62439SOL    HW292129   6.844   3.591   5.434 -1.0514  0.2556 -0.6803
62440SOL     OW92130   8.369   9.941   8.814 -0.1537  0.0057  0.2178
62440SOL    HW192131   8.323   9.857   8.812  0.1705 -0.1873 -2.0182
62440SOL    HW292132   8.427   9.938   8.737  2.4067  0.8944  1.9887
62441SOL     OW92133   0.154   5.569   9.582  0.2912  0.0769 -0.0783
62441SOL    HW192134   0.109   5.526   9.655 -1.1559 -1.0953 -1.5677
62441SOL    HW292135   0.238   5.525   9.575  1.2959  1.5021  2.0181
62442SOL     OW92136   0.138   4.642   5.267 -0.4182 -0.0446 -0.6078
62442SOL    HW192137   0.124   4.593   5.186 -1.4423 -0.7901 -0.0041
62442SOL    HW292138   0.050   4.660   5.300 -0.0536  1.5745 -0.4135
62443SOL     OW92139   7.536   4.807   6.825  0.3991  0.3895  0.4023
62443SOL    HW192140   7.592   4.849   6.759 -2.5824  2.2130 -1.1841
62443SOL    HW292141   7.502   4.879   6.877 -0.2949 -0.6862  1.4932
62444SOL     OW92142   5.159   0.043   0.818 -0.1473 -0.0960  0.2993
62444SOL    HW192143   5.118  -0.038   0.789 -1.6332  0.9565 -0.6804
62444SOL    HW292144   5.097   0.081   0.880  0.4649  0.3823  0.6360
62445SOL     OW92145   4.624   7.280  12.534  0.0504 -0.1928  0.2844
62445SOL    HW192146   4.663   7.259  12.618  0.0454  0.3136  0.4161
62445SOL    HW292147   4.550   7.337  12.555  1.5790  2.1061 -0.2027
62446SOL     OW92148   1.245   3.229  11.361  0.2116 -0.1402  0.1744
62446SOL    HW192149   1.217   3.170  11.291  2.7934 -0.3484 -0.7996
62446SOL    HW292150   1.247   3.174  11.439 -2.1191 -0.0535  0.3717
62447SOL     OW92151   6.650  12.007   9.087 -0.1610 -0.0502  0.0912
62447SOL    HW192152   6.661  12.014   8.992 -0.9177  0.7934  0.0510
62447SOL    HW292153   6.604  12.087   9.112  1.1214  0.3309  1.3607
62448SOL     OW92154   5.924   3.945   4.781 -0.2961  0.2634  0.2495
62448SOL    HW192155   5.945   4.021   4.835  0.1079  0.9873 -0.8832
62448SOL    HW292156   5.991   3.945   4.712 -2.3669  1.0620 -1.9081
62449SOL     OW92157  10.237   2.426   7.318 -0.1016  0.2501  0.0646
62449SOL    HW192158  10.325   2.462   7.327 -0.6266  1.4768  0.4097
62449SOL    HW292159  10.224   2.420   7.223  1.0604 -1.7841 -0.0188
62450SOL     OW92160   4.032   5.269   7.635 -0.6575 -0.3701 -0.3186
62450SOL    HW192161   4.000   5.227   7.555 -0.8236  0.9368 -0.9654
62450SOL    HW292162   4.056   5.357   7.607 -0.6585  0.0872  1.0712
62451SOL     OW92163   0.676   9.069   3.898  0.7062 -0.1853 -0.0068
62451SOL    HW192164   0.611   9.045   3.833  0.8300  0.3142 -0.3200
62451SOL    HW292165   0.682   8.993   3.956  0.4619 -0.5589 -0.4706
62452SOL     OW92166  10.265   2.827  10.959 -0.1283  0.3296  0.3039
62452SOL    HW192167  10.195   2.841  10.895  0.1837  0.9684  0.0890
62452SOL    HW292168  10.257   2.901  11.019  0.5647  0.5872  0.0842
62453SOL     OW92169   7.945  12.448  11.415 -0.1793 -0.1834  0.7458
62453SOL    HW192170   7.993  12.523  11.449  1.0636 -0.8607  0.5158
62453SOL    HW292171   7.996  12.372  11.441 -0.6777 -0.8806 -0.2278
62454SOL     OW92172   9.858   9.156   4.111  0.4747  0.5241 -0.3660
62454SOL    HW192173   9.829   9.237   4.068 -0.3066  0.5892  0.2635
62454SOL    HW292174   9.887   9.184   4.198 -0.2609  0.0721  0.0353
62455SOL     OW92175   2.701   1.078   7.059 -0.1450 -0.4851  0.2989
62455SOL    HW192176   2.630   1.026   7.099 -0.5823  0.9970  1.5331
62455SOL    HW292177   2.733   1.134   7.130  0.8751  0.3550 -0.7830
62456SOL     OW92178   6.720  10.747   2.362  0.7004 -0.0702 -0.1644
62456SOL    HW192179   6.679  10.719   2.280  0.1422 -1.2154  0.4734
62456SOL    HW292180   6.663  10.816   2.395 -0.4854 -1.2831  0.4466
62457SOL     OW92181   2.404  11.612  11.622 -0.5073 -0.3162 -0.1577
62457SOL    HW192182   2.416  11.581  11.712  1.1977  0.4061 -0.1038
62457SOL    HW292183   2.315  11.645  11.620 -0.6640 -0.5811  1.1924
62458SOL     OW92184   4.351   5.554   7.976 -0.8806  0.1324  0.3370
62458SOL    HW192185   4.269   5.529   7.932 -0.2251 -1.5153 -0.0092
62458SOL    HW292186   4.369   5.482   8.036  0.2583  0.5249  0.4936
62459SOL     OW92187   5.994   2.566  11.666  0.7568 -0.1261  0.5351
62459SOL    HW192188   5.911   2.599  11.631 -0.0065 -1.9752  0.4464
62459SOL    HW292189   6.061   2.614  11.618 -0.2815 -0.1303 -0.9950
62460SOL     OW92190   4.662   3.123   6.285  0.6071  0.4527 -0.0365
62460SOL    HW192191   4.719   3.143   6.211 -0.5814  3.3719 -0.2996
62460SOL    HW292192   4.581   3.172   6.268 -0.4089 -0.2331  2.3089
62461SOL     OW92193   4.549   0.964   8.187 -0.1300 -0.4271  0.9568
62461SOL    HW192194   4.556   1.042   8.132  0.3996  0.0659  1.7029
62461SOL    HW292195   4.563   0.891   8.128  0.2483  0.0842  0.4093
62462SOL     OW92196   6.188   0.759   9.850 -0.0228 -0.0661 -0.0440
62462SOL    HW192197   6.200   0.738   9.943  2.5014 -0.6632 -0.4506
62462SOL    HW292198   6.095   0.744   9.834 -0.9057  1.6377  2.7493
62463SOL     OW92199   3.266  12.558   6.663 -0.0620 -0.0249  0.3452
62463SOL    HW192200   3.287  12.483   6.607  0.0833  1.4579 -1.7147
62463SOL    HW292201   3.324  12.627   6.633 -2.7197  2.0131 -0.4745
62464SOL     OW92202   6.882   5.374   4.180 -0.2916 -0.2173 -0.5344
62464SOL    HW192203   6.839   5.306   4.232 -0.2362 -0.4167 -0.7445
62464SOL    HW292204   6.813   5.438   4.164  0.5132  1.7185  2.8066
62465SOL     OW92205   6.982   0.269  11.190 -0.6426  0.4029 -0.2685
62465SOL    HW192206   6.927   0.343  11.164  2.6168  2.8173 -1.0219
62465SOL    HW292207   6.997   0.283  11.284  0.6688  1.3396 -0.5767
62466SOL     OW92208  10.446  10.399   0.244  0.3326  0.4968  0.2170
62466SOL    HW192209  10.435  10.306   0.263 -0.3994  0.9147  2.0504
62466SOL    HW292210  10.482  10.401   0.156  0.4256 -1.5232  0.1571
62467SOL     OW92211   7.520   4.259  10.301 -0.1217 -0.4658  0.0712
62467SOL    HW192212   7.542   4.287  10.213 -1.1131  0.5190  0.1204
62467SOL    HW292213   7.428   4.282  10.312 -0.0487 -0.6852  1.3229
62468SOL     OW92214   5.583  12.422   0.794  0.0017 -0.1921  0.0787
62468SOL    HW192215   5.610  12.435   0.703  0.7713 -0.7757  0.2066
62468SOL    HW292216   5.488  12.428   0.792  0.0562  0.6921 -0.6131
62469SOL     OW92217  12.110   3.506   8.187 -0.3020  0.1864 -0.7391
62469SOL    HW192218  12.084   3.417   8.164 -0.1636 -0.0956  0.1468
62469SOL    HW292219  12.058   3.527   8.265 -1.6460  1.5524 -1.9448
62470SOL     OW92220   9.424   6.145  11.962 -0.0271  0.0319 -0.7075
62470SOL    HW192221   9.428   6.240  11.975 -1.1703 -0.2149  2.2282
62470SOL    HW292222   9.331   6.123  11.971  0.5109 -1.6435  1.9256
62471SOL     OW92223   9.610   2.783   4.851 -0.0013 -0.2846  0.1129
62471SOL    HW192224   9.626   2.693   4.878 -2.5579 -0.4771  1.2572
62471SOL    HW292225   9.564   2.823   4.925 -1.8995  0.9501 -1.6162
62472SOL     OW92226  11.817   3.291   1.889  1.1618  0.2735  0.0482
62472SOL    HW192227  11.814   3.214   1.946  0.9964  1.1701  1.2972
62472SOL    HW292228  11.893   3.276   1.833 -0.3713 -2.0246 -1.5782
62473SOL     OW92229   3.106   2.920  11.737 -0.3403 -0.3050 -0.5586
62473SOL    HW192230   3.199   2.905  11.720 -0.2141  0.4803 -0.6081
62473SOL    HW292231   3.061   2.869  11.669  0.0847  0.1206 -1.1797
62474SOL     OW92232  10.323   0.641  11.284  0.0923 -0.0865  0.1174
62474SOL    HW192233  10.325   0.736  11.300  0.6190  0.6293 -3.2517
62474SOL    HW292234  10.416   0.616  11.280 -0.0454 -0.7900  1.0349
62475SOL     OW92235   8.304  12.526   6.730  0.2058 -0.0235  0.2229
62475SOL    HW192236   8.259  12.604   6.697  1.5697 -0.0904 -1.9217
62475SOL    HW292237   8.396  12.550   6.731  0.4108 -0.7091  2.2700
62476SOL     OW92238   1.224  10.833   5.165  0.2545  0.2042  0.1840
62476SOL    HW192239   1.263  10.885   5.095 -0.7274  0.7953  0.0591
62476SOL    HW292240   1.253  10.876   5.246 -0.5312  0.9424  0.0815
62477SOL     OW92241   8.040   5.397   4.169 -0.0153  0.2877  0.0088
62477SOL    HW192242   7.987   5.469   4.206  0.1577  0.5863 -0.3197
62477SOL    HW292243   7.982   5.355   4.105 -0.2249 -0.0670  0.4237
62478SOL     OW92244   5.786  11.607  11.943  0.3514  0.2809 -0.3973
62478SOL    HW192245   5.770  11.643  11.856 -0.4535  1.8557  0.3580
62478SOL    HW292246   5.749  11.519  11.940 -2.2979  1.3372 -0.8064
62479SOL     OW92247   0.118   6.768  11.116  0.0293 -0.4101 -0.5033
62479SOL    HW192248   0.122   6.696  11.179 -0.2918 -0.3219 -0.3811
62479SOL    HW292249   0.175   6.835  11.153 -2.3620  0.8267  1.2078
62480SOL     OW92250   2.346   5.045   1.074  0.3163 -0.0639  1.0345
62480SOL    HW192251   2.283   4.976   1.096  0.1594 -0.1896  0.2216
62480SOL    HW292252   2.413   5.001   1.023 -1.4073  0.8585 -2.3610
62481SOL     OW92253   2.826   0.019   6.173  0.0088 -0.1723  0.3176
62481SOL    HW192254   2.764  -0.054   6.167  0.7462 -0.8271  0.5574
62481SOL    HW292255   2.807   0.072   6.095 -0.9820 -0.2549  0.4935
62482SOL     OW92256   6.660   7.235  10.373 -0.0932 -0.0303 -0.5365
62482SOL    HW192257   6.683   7.142  10.377 -0.2698 -0.0862 -0.7618
62482SOL    HW292258   6.701   7.266  10.292 -0.4368 -0.0298 -0.7133
62483SOL     OW92259   0.352   8.576  10.762 -0.1009  0.2593  0.2281
62483SOL    HW192260   0.318   8.608  10.679 -0.8993 -2.5301 -0.6429
62483SOL    HW292261   0.274   8.567  10.817  0.1183  0.0112  0.5011
62484SOL     OW92262   6.626   3.887   4.766 -0.2701  0.4046  0.1823
62484SOL    HW192263   6.578   3.910   4.846 -1.1019  3.0640 -0.9787
62484SOL    HW292264   6.718   3.899   4.790 -0.4881  0.7896  0.8630
62485SOL     OW92265   9.685  10.108   6.672  0.4777  0.3441  0.5985
62485SOL    HW192266   9.641  10.183   6.712  0.8706  0.1331  1.4501
62485SOL    HW292267   9.751  10.083   6.736  0.6020 -0.4921  0.1492
62486SOL     OW92268   7.080   0.494   4.744 -0.8322  0.0067 -0.8620
62486SOL    HW192269   7.082   0.408   4.786 -1.0687 -0.6362 -2.1188
62486SOL    HW292270   6.986   0.513   4.734 -0.8092 -0.5139 -2.3547
62487SOL     OW92271   7.269  11.823   2.397 -0.2433 -0.1849  0.2693
62487SOL    HW192272   7.267  11.732   2.427  0.1492 -0.6406 -1.0192
62487SOL    HW292273   7.320  11.869   2.464  0.8407 -1.2176  0.1787
62488SOL     OW92274   3.289   0.267   7.254 -0.3457  0.1422 -0.1791
62488SOL    HW192275   3.313   0.359   7.243 -0.1886 -0.0741 -1.9980
62488SOL    HW292276   3.258   0.240   7.168 -0.1028 -1.6018  0.2395
62489SOL     OW92277   4.397   0.982  12.243 -0.5663  0.2120 -0.6652
62489SOL    HW192278   4.387   0.893  12.210  0.5358  0.4140 -1.6478
62489SOL    HW292279   4.312   1.004  12.281 -0.4726 -1.7238  0.8116
62490SOL     OW92280   8.432   9.476   0.073  0.0215 -0.4791 -0.2776
62490SOL    HW192281   8.385   9.521   0.003 -0.3279 -0.3430  0.0467
62490SOL    HW292282   8.371   9.473   0.146  0.2802 -0.8849 -0.0734
62491SOL     OW92283   3.231   3.295  12.188 -0.0481  0.0312 -0.2883
62491SOL    HW192284   3.191   3.224  12.238 -0.4393  0.4789  0.0421
62491SOL    HW292285   3.325   3.287  12.207 -0.0519 -0.5847 -0.5028
62492SOL     OW92286   7.551  10.630   0.158 -0.3805  0.1315  0.3707
62492SOL    HW192287   7.594  10.545   0.150  1.4364  1.1262 -1.5708
62492SOL    HW292288   7.486  10.631   0.087 -1.5242 -0.2036  1.3867
62493SOL     OW92289   8.169   3.188  11.978 -0.1739 -0.1966 -0.5021
62493SOL    HW192290   8.219   3.211  12.056 -0.4916  1.8086 -0.8414
62493SOL    HW292291   8.202   3.247  11.910 -0.7503 -1.0698 -1.5666
62494SOL     OW92292   4.044   9.443   7.929 -0.2749  0.4728 -0.2232
62494SOL    HW192293   4.106   9.423   7.999 -1.0487  0.0372  0.3491
62494SOL    HW292294   4.016   9.533   7.946 -3.2202 -0.7276  2.2549
62495SOL     OW92295   4.789   1.322  10.453 -0.1876 -0.4375 -0.1013
62495SOL    HW192296   4.740   1.346  10.374 -1.0635 -0.8480  0.2966
62495SOL    HW292297   4.778   1.398  10.511  0.9902  0.1333 -0.5958
62496SOL     OW92298   6.127   7.983   2.723  0.3658  0.3702 -0.0917
62496SOL    HW192299   6.220   8.004   2.712  0.4025  0.1342 -0.2235
62496SOL    HW292300   6.085   8.069   2.732  0.5042  0.5086 -0.7547
62497SOL     OW92301   5.535  10.816  12.461  0.0082  0.4600 -0.4508
62497SOL    HW192302   5.470  10.877  12.426 -0.0817  0.0749 -0.9660
62497SOL    HW292303   5.618  10.848  12.428 -0.0266  0.3742 -0.6237
62498SOL     OW92304  12.569  10.139  12.442 -0.4728  0.2006 -0.4601
62498SOL    HW192305  12.641  10.179  12.392 -1.8235  2.4038 -0.7335
62498SOL    HW292306  12.559  10.194  12.519 -0.6436 -1.2149  0.5632
62499SOL     OW92307   9.299   8.783   3.756  0.4715 -0.3510  0.5774
62499SOL    HW192308   9.261   8.777   3.843 -1.1046  0.4278 -0.0293
62499SOL    HW292309   9.251   8.720   3.704  0.1800  0.4500 -0.1420
62500SOL     OW92310   6.030  11.964   2.665  0.1246 -0.7354  0.2643
62500SOL    HW192311   6.082  11.957   2.744 -0.7372  0.3829  0.9618
62500SOL    HW292312   5.980  11.882   2.661  2.1866 -2.0154 -0.6585
62501SOL     OW92313   6.705   6.865  10.047  0.6503 -0.2869  0.1396
62501SOL    HW192314   6.729   6.773  10.044 -0.0200 -0.4426 -1.0055
62501SOL    HW292315   6.616   6.868  10.012  0.3505  0.7082  0.9185
62502SOL     OW92316   9.077  10.019   1.841 -0.1866  0.2603  0.4931
62502SOL    HW192317   9.128   9.961   1.784 -1.0466  0.0155 -0.0496
62502SOL    HW292318   8.992   9.975   1.850 -0.6658  1.1672  0.5134
62503SOL     OW92319   1.947  11.467   0.449 -0.0706  0.4508  0.1081
62503SOL    HW192320   1.868  11.446   0.399  0.9917 -0.1716 -1.3523
62503SOL    HW292321   1.980  11.548   0.410 -0.6463  1.4447  1.5635
62504SOL     OW92322   3.738   9.956  12.574 -0.1306  0.1704  0.0901
62504SOL    HW192323   3.664   9.903  12.604 -0.3291 -0.0435 -0.7446
62504SOL    HW292324   3.813   9.896  12.576 -0.1730  0.1153  0.0136
62505SOL     OW92325   9.200   0.967   1.412 -0.0355  0.3872 -0.2244
62505SOL    HW192326   9.253   1.013   1.346 -0.5130  1.7131  0.2831
62505SOL    HW292327   9.249   0.887   1.431  0.4416  0.2968 -1.7034
62506SOL     OW92328   9.536   5.928   8.059 -0.1048  0.2946  0.7996
62506SOL    HW192329   9.476   5.858   8.033 -0.8216  1.0227  0.4475
62506SOL    HW292330   9.621   5.886   8.064 -0.3839 -0.4217 -0.2441
62507SOL     OW92331  10.944   5.358   8.949  0.3701 -0.1649  0.1060
62507SOL    HW192332  11.018   5.335   8.893  0.4845  1.1646 -0.3216
62507SOL    HW292333  10.867   5.330   8.899  0.4821  0.8157 -0.6498
62508SOL     OW92334  11.928   2.818   5.303 -0.1250  0.0622 -0.3123
62508SOL    HW192335  11.899   2.906   5.328 -0.7025 -0.6537  1.6723
62508SOL    HW292336  11.919   2.817   5.208 -0.3081  2.0795 -0.3642
62509SOL     OW92337   3.554   3.180   6.127 -0.2144  0.5931  0.0645
62509SOL    HW192338   3.485   3.153   6.066  0.3200  0.5271 -0.5180
62509SOL    HW292339   3.536   3.272   6.145 -0.6459  0.4878  0.1810
62510SOL     OW92340   9.703   5.552  10.929 -0.2686  1.2726 -0.0807
62510SOL    HW192341   9.728   5.554  10.836  1.5126 -0.4426  0.3090
62510SOL    HW292342   9.615   5.514  10.929  0.1483  0.2739 -1.0025
62511SOL     OW92343   3.192   7.569   4.259 -0.1665 -0.0589 -0.2025
62511SOL    HW192344   3.267   7.616   4.223 -0.7804  0.0112 -1.4413
62511SOL    HW292345   3.147   7.533   4.183 -0.3968 -1.6421  0.6281
62512SOL     OW92346   7.206   6.556  12.064  0.1693  0.6168 -0.2619
62512SOL    HW192347   7.153   6.541  12.142  1.9232 -0.2758  0.8248
62512SOL    HW292348   7.239   6.645  12.075 -2.4182  1.8947 -1.8441
62513SOL     OW92349  11.278   3.235   4.465 -0.8152 -0.2909  0.1838
62513SOL    HW192350  11.363   3.279   4.471 -0.7889 -0.4378  1.1166
62513SOL    HW292351  11.299   3.150   4.426 -0.9290  0.6213 -2.0188
62514SOL     OW92352   8.021   7.941  10.287 -0.5346 -0.1215  0.2716
62514SOL    HW192353   7.977   7.965  10.205  1.3524 -0.6127 -0.9306
62514SOL    HW292354   8.015   7.846  10.290  1.0327 -0.2604 -0.2905
62515SOL     OW92355   2.815   4.941   2.283 -0.8526 -0.1684 -0.1121
62515SOL    HW192356   2.740   4.925   2.341  0.1690 -1.0010  1.0502
62515SOL    HW292357   2.862   4.857   2.283  0.4685  0.5578 -0.2022
62516SOL     OW92358   1.342   1.227   6.610 -0.4717 -0.1517  0.2018
62516SOL    HW192359   1.343   1.307   6.661  2.5681 -1.4998  2.5490
62516SOL    HW292360   1.356   1.255   6.520  0.4160  1.9407  0.9470
62517SOL     OW92361   9.094   7.049   9.872 -0.0425 -0.7071  0.4404
62517SOL    HW192362   9.189   7.050   9.872  0.0387  2.4624  0.5543
62517SOL    HW292363   9.070   7.091   9.955 -1.5280 -1.0391  0.2115
62518SOL     OW92364   6.984   4.062   4.367 -0.5026  0.0902 -0.0825
62518SOL    HW192365   6.890   4.059   4.384 -0.2782  1.1461  1.5450
62518SOL    HW292366   6.996   4.005   4.291 -2.5518  0.5359 -0.8069
62519SOL     OW92367   0.551   9.301   8.413  0.2033 -0.0567  0.0238
62519SOL    HW192368   0.525   9.231   8.353  0.8466  1.5935 -2.3117
62519SOL    HW292369   0.468   9.335   8.447 -0.3664  0.3298 -1.6204
62520SOL     OW92370   7.429   4.599   9.959  0.1414 -0.1503  0.1403
62520SOL    HW192371   7.484   4.607   9.881 -1.8504  0.6108 -1.2873
62520SOL    HW292372   7.414   4.689   9.987  0.7067 -0.4137  1.3316
62521SOL     OW92373   6.744   4.849   6.015 -0.4917 -0.2021 -0.2115
62521SOL    HW192374   6.757   4.920   6.077 -0.8168  0.0518 -0.4316
62521SOL    HW292375   6.831   4.815   5.998 -0.1117  1.3167 -1.5036
62522SOL     OW92376   7.426   6.941  11.302 -0.8086  0.3198  0.4752
62522SOL    HW192377   7.385   6.922  11.218  0.4795  1.6038 -0.4884
62522SOL    HW292378   7.402   7.031  11.321  1.2879  1.0417 -0.0124
62523SOL     OW92379   2.127   1.374   4.490 -0.3586 -0.7775  0.3432
62523SOL    HW192380   2.150   1.289   4.528  0.4892 -1.2156 -1.0638
62523SOL    HW292381   2.037   1.363   4.461 -0.1991 -1.2751  0.0081
62524SOL     OW92382   1.010   5.660   3.537  0.2227 -0.0130  0.0355
62524SOL    HW192383   1.104   5.668   3.520  0.3748  0.2121  0.9277
62524SOL    HW292384   0.969   5.698   3.460  0.8210 -2.0484 -1.3778
62525SOL     OW92385   0.567   8.808   1.615 -0.1170 -0.1397  0.0015
62525SOL    HW192386   0.549   8.883   1.672  0.6069 -0.7394  1.0809
62525SOL    HW292387   0.661   8.815   1.595 -0.0337 -0.7503  0.1325
62526SOL     OW92388   0.474   4.477   7.413  0.4752 -0.3160 -0.1988
62526SOL    HW192389   0.438   4.530   7.342  0.2967 -0.7131 -0.4111
62526SOL    HW292390   0.567   4.471   7.393  0.3456 -0.8433 -0.6833
62527SOL     OW92391  11.649   6.693   4.786  0.2511  0.5595  0.0304
62527SOL    HW192392  11.713   6.761   4.803 -1.1803  1.7433  0.8608
62527SOL    HW292393  11.620   6.709   4.696  1.5024 -0.3634 -0.5793
62528SOL     OW92394   7.229   4.646  10.552 -0.7329  0.0619  0.7411
62528SOL    HW192395   7.283   4.577  10.590 -1.2363 -0.4608  0.5289
62528SOL    HW292396   7.279   4.679  10.478 -1.3708 -1.5117 -0.4436
62529SOL     OW92397  11.371   8.484   2.429 -0.0713 -0.2240  0.1375
62529SOL    HW192398  11.380   8.534   2.348 -0.2441 -1.4197 -0.6611
62529SOL    HW292399  11.433   8.524   2.490  1.1873 -0.2371 -1.0876
62530SOL     OW92400   5.844   4.672   6.080  0.3737 -0.0292  0.9810
62530SOL    HW192401   5.799   4.607   6.026  0.5157  1.0146 -0.4515
62530SOL    HW292402   5.774   4.715   6.129  0.2477 -1.0186  1.6872
62531SOL     OW92403   4.329   6.359   0.215 -0.5744 -0.0593  0.0456
62531SOL    HW192404   4.295   6.270   0.217 -0.2550 -0.1797  1.8441
62531SOL    HW292405   4.271   6.406   0.154 -1.4156 -1.2180 -0.0683
62532SOL     OW92406   2.123   5.533   4.807 -0.0650 -0.3065 -0.0513
62532SOL    HW192407   2.102   5.602   4.744  0.2467 -0.0625  0.1021
62532SOL    HW292408   2.040   5.511   4.848 -0.1303  0.1705  0.0831
62533SOL     OW92409   9.039   3.103   5.223  0.7532 -0.3804  0.2495
62533SOL    HW192410   8.979   3.077   5.153 -0.2475  0.8860  0.5942
62533SOL    HW292411   9.097   3.027   5.234  0.2871 -0.9971 -1.2318
62534SOL     OW92412   0.573   4.076  10.038  0.3921 -0.0628 -0.1619
62534SOL    HW192413   0.542   3.986  10.031 -1.0882  0.4642 -0.7613
62534SOL    HW292414   0.545   4.105  10.125 -0.5599  0.3220 -0.5911
62535SOL     OW92415   3.163   8.560   5.931 -0.0527  0.2327  0.3695
62535SOL    HW192416   3.122   8.645   5.919  1.0054  0.7314  0.1664
62535SOL    HW292417   3.216   8.570   6.010 -1.7325 -0.9745  1.7548
62536SOL     OW92418   2.632   7.819   8.040  0.5591  0.1059 -0.3184
62536SOL    HW192419   2.694   7.759   8.083  0.7569  0.3076 -0.3207
62536SOL    HW292420   2.637   7.899   8.091 -0.1142 -0.0608  0.0075
62537SOL     OW92421   7.994   4.727  10.864  0.2494  0.0202  0.4857
62537SOL    HW192422   8.066   4.746  10.803 -0.8331 -0.4558 -1.0031
62537SOL    HW292423   7.987   4.631  10.863 -1.6870  0.1089 -1.0252
62538SOL     OW92424   6.955   4.765   3.317  0.0090 -0.5434  0.1570
62538SOL    HW192425   6.879   4.806   3.357 -0.7479 -0.8624 -0.9123
62538SOL    HW292426   6.961   4.806   3.230  0.7758 -0.8619  0.0501
62539SOL     OW92427  12.043   9.572   4.792 -0.3595  0.3828 -0.4200
62539SOL    HW192428  12.120   9.628   4.808 -0.9013  0.9430  0.3408
62539SOL    HW292429  12.060   9.493   4.842  0.6045 -0.3423 -1.8351
62540SOL     OW92430   2.950  11.741   0.428 -0.0993  0.4957  0.2949
62540SOL    HW192431   3.032  11.782   0.456  0.4017 -0.8724  0.8982
62540SOL    HW292432   2.888  11.763   0.497  0.2233  0.0641  0.7263
62541SOL     OW92433   0.951   5.722  11.165 -0.0849 -0.1412 -0.0524
62541SOL    HW192434   0.995   5.673  11.234 -2.3810 -1.4112  0.6099
62541SOL    HW292435   0.983   5.683  11.083 -0.2799 -1.3320  0.4178
62542SOL     OW92436   0.968  11.351   7.704  0.4636 -0.7365  0.2593
62542SOL    HW192437   0.918  11.269   7.709  0.2726 -0.6046  0.5300
62542SOL    HW292438   0.944  11.399   7.783  1.2762 -0.8102  0.5558
62543SOL     OW92439   6.372   4.838   0.653 -0.2874  0.6480 -0.1977
62543SOL    HW192440   6.417   4.760   0.623  0.6897  1.1773 -0.1434
62543SOL    HW292441   6.334   4.814   0.738  0.7188  0.4774  0.2149
62544SOL     OW92442  11.325   1.682  12.278  0.0171  0.6422 -0.2744
62544SOL    HW192443  11.320   1.609  12.340  0.0760  0.9805  0.1331
62544SOL    HW292444  11.262   1.746  12.312  0.6565  1.1841 -0.0958
62545SOL     OW92445   1.891  10.905   7.691 -0.3585 -0.0065  0.6292
62545SOL    HW192446   1.824  10.972   7.675  0.4480  0.7641  0.3533
62545SOL    HW292447   1.941  10.938   7.765  0.3756 -0.0325  0.1595
62546SOL     OW92448  11.287  11.953   1.293 -0.0087 -0.5678  0.0026
62546SOL    HW192449  11.360  11.922   1.346  0.0658  0.4910  0.5420
62546SOL    HW292450  11.224  11.987   1.357 -0.4840 -0.4446 -0.5249
62547SOL     OW92451  12.497   2.756   2.563 -0.6243 -0.2865 -0.0198
62547SOL    HW192452  12.501   2.685   2.627  0.9615 -1.3175 -1.1979
62547SOL    HW292453  12.496   2.712   2.479 -0.8940  1.0895 -0.7616
62548SOL     OW92454   2.347   0.164  10.272 -0.0902  0.5793  0.2392
62548SOL    HW192455   2.348   0.136  10.363 -1.7122  0.1057  0.1514
62548SOL    HW292456   2.269   0.219  10.265  0.1253  0.7702 -0.8193
62549SOL     OW92457  10.228   2.289   9.831  0.1159  0.3412  0.2129
62549SOL    HW192458  10.211   2.348   9.758 -1.0285  0.6405  0.7068
62549SOL    HW292459  10.188   2.206   9.803  1.1882 -0.0482 -0.2196
62550SOL     OW92460  10.547   0.877   7.617 -0.9206 -0.4083  0.5831
62550SOL    HW192461  10.633   0.918   7.622 -0.4466 -1.4983  1.8831
62550SOL    HW292462  10.489   0.934   7.667 -1.3246  1.0829 -1.4444
62551SOL     OW92463   6.322   4.479   9.417 -0.4936  0.1266 -0.5739
62551SOL    HW192464   6.263   4.555   9.413 -0.3139  0.2908 -0.1477
62551SOL    HW292465   6.372   4.484   9.336  0.3489  1.1503 -0.0181
62552SOL     OW92466   2.629   6.029   9.189  0.4386 -0.3307 -0.5052
62552SOL    HW192467   2.685   5.957   9.160  1.0249 -1.5726  3.1064
62552SOL    HW292468   2.684   6.107   9.180  1.4101 -0.9895 -0.4464
62553SOL     OW92469   6.880   5.419  12.112 -0.1047 -0.1482 -0.0630
62553SOL    HW192470   6.828   5.413  12.031  0.2870 -0.6844 -0.2773
62553SOL    HW292471   6.909   5.510  12.114 -2.0451  0.5078  0.6924
62554SOL     OW92472   9.977   9.432  11.930 -0.0805 -0.0130 -0.1580
62554SOL    HW192473  10.040   9.446  12.000 -0.3077  3.4586 -0.4789
62554SOL    HW292474   9.896   9.406  11.975  0.7227 -1.4929  0.4897
62555SOL     OW92475  12.169   0.420   7.989 -0.5416  0.2980 -0.0107
62555SOL    HW192476  12.226   0.457   8.057 -1.3108  0.4077  0.5821
62555SOL    HW292477  12.221   0.349   7.951  0.2294  0.7875  0.0997
62556SOL     OW92478   3.388   1.391  11.520  0.8107 -0.3687  0.3438
62556SOL    HW192479   3.427   1.304  11.532  0.3825 -0.7178 -0.7051
62556SOL    HW292480   3.385   1.428  11.608 -0.3458 -2.0099  1.0496
62557SOL     OW92481   4.844   6.613  10.531 -0.3109  0.1172 -0.0817
62557SOL    HW192482   4.759   6.572  10.515 -0.4472 -0.4218  1.7548
62557SOL    HW292483   4.845   6.630  10.626  1.3817  0.6591 -0.1618
62558SOL     OW92484   1.898  10.336   2.592  0.0773 -0.1915  0.2538
62558SOL    HW192485   1.858  10.404   2.539 -0.8395 -0.6157  0.3830
62558SOL    HW292486   1.829  10.309   2.653 -0.3502 -2.8329 -1.2820
62559SOL     OW92487  12.166   4.008   6.432  0.3922  0.9626  0.0041
62559SOL    HW192488  12.134   4.015   6.522  1.2281  0.1490  0.3794
62559SOL    HW292489  12.245   3.955   6.439  0.6057  1.1043 -1.1845
62560SOL     OW92490   3.945   2.277   7.629 -0.3416  0.0646 -0.6733
62560SOL    HW192491   3.927   2.212   7.696 -0.3669 -1.5434 -2.1832
62560SOL    HW292492   3.919   2.360   7.669  1.4403 -0.5378  2.0014
62561SOL     OW92493  11.405  10.103   4.740 -0.2801 -0.6389 -0.0047
62561SOL    HW192494  11.469  10.040   4.774  0.0209 -0.3208  0.0293
62561SOL    HW292495  11.332  10.049   4.709  0.4719 -1.0859 -1.0655
62562SOL     OW92496   6.730   7.191   7.081  0.4361 -0.4844 -0.0999
62562SOL    HW192497   6.794   7.204   7.152 -0.0559  0.1733  0.2273
62562SOL    HW292498   6.748   7.261   7.019 -0.6021  0.3023  0.4692
62563SOL     OW92499   9.126   8.962  11.726  0.0559 -0.2893 -0.0236
62563SOL    HW192500   9.104   9.028  11.792  0.1857  0.9196 -1.1622
62563SOL    HW292501   9.207   8.922  11.758  1.1230  1.5369 -0.2939
62564SOL     OW92502   4.124   0.025   1.227 -0.3787  0.7645 -0.4435
62564SOL    HW192503   4.052   0.069   1.183  0.8244  1.4664 -1.8162
62564SOL    HW292504   4.178   0.096   1.262  1.4262  0.4961 -2.4197
62565SOL     OW92505  10.040  11.006   6.946 -0.2708  0.4447  0.5187
62565SOL    HW192506  10.004  11.086   6.908 -0.6615 -0.2465 -0.6302
62565SOL    HW292507  10.114  11.035   6.999 -0.5097  1.5701  0.2599
62566SOL     OW92508   7.625  12.252  11.574 -0.0754 -0.0457 -0.5619
62566SOL    HW192509   7.697  12.190  11.579 -0.2618 -0.3687 -1.5562
62566SOL    HW292510   7.665  12.334  11.547  0.4023  0.7404  2.2115
62567SOL     OW92511  12.262  11.028   9.285 -0.4348 -0.3380 -0.3924
62567SOL    HW192512  12.197  11.029   9.214 -1.1977 -0.8915  0.2726
62567SOL    HW292513  12.268  10.936   9.310 -1.6124  0.0316  1.5151
62568SOL     OW92514   4.270   6.714   9.847  0.2395  0.0137 -0.4628
62568SOL    HW192515   4.221   6.652   9.794  1.2698 -1.6063  0.3708
62568SOL    HW292516   4.336   6.750   9.788  0.8408 -1.1378 -0.5119
62569SOL     OW92517   8.722   3.088   7.993 -0.5839  0.0009  0.2162
62569SOL    HW192518   8.732   3.168   7.942  0.8544 -0.6969 -0.6552
62569SOL    HW292519   8.812   3.063   8.017 -0.9334 -1.6932 -0.0945
62570SOL     OW92520   3.045   7.733   0.972  0.1427  0.0330  0.5569
62570SOL    HW192521   2.966   7.765   0.928  1.1620  0.2091 -1.2342
62570SOL    HW292522   3.058   7.795   1.043 -0.4799  0.9187 -0.0672
62571SOL     OW92523   9.461  12.044  10.184  0.6065  0.1382 -0.3941
62571SOL    HW192524   9.497  11.988  10.253  0.0400  1.4748  1.0482
62571SOL    HW292525   9.526  12.113  10.174 -0.0532  0.8167 -0.0556
62572SOL     OW92526   6.156  10.689   0.552  0.3862  0.8189  0.5467
62572SOL    HW192527   6.216  10.713   0.622 -0.8344  1.2552  1.4612
62572SOL    HW292528   6.078  10.741   0.567 -1.0622 -1.2503  0.6218
62573SOL     OW92529   2.029   0.872   5.284 -0.3535 -0.2983 -0.0784
62573SOL    HW192530   1.959   0.935   5.269 -1.3783 -1.6950 -1.4774
62573SOL    HW292531   1.988   0.803   5.336  0.1424 -0.8327 -0.3818
62574SOL     OW92532   3.149  10.128   7.375 -0.1520 -0.0717  0.0125
62574SOL    HW192533   3.059  10.104   7.351 -0.4751  0.9452  0.1574
62574SOL    HW292534   3.139  10.184   7.451  0.6131  0.0536  0.0274
62575SOL     OW92535  10.122   0.924   3.653  0.5636 -0.2569 -0.0926
62575SOL    HW192536  10.130   1.007   3.701 -0.7842 -2.1243  3.8138
62575SOL    HW292537  10.028   0.904   3.656  0.8991 -2.0889 -0.6407
62576SOL     OW92538  10.457   4.346   7.869 -0.2952 -0.2592  0.0377
62576SOL    HW192539  10.418   4.432   7.888  0.0112 -0.4904  1.8473
62576SOL    HW292540  10.386   4.297   7.828 -0.8314  0.4910  0.0491
62577SOL     OW92541   8.788   0.609   9.585  0.5739 -0.5455 -0.0780
62577SOL    HW192542   8.730   0.532   9.579 -1.2290  0.7893 -0.6626
62577SOL    HW292543   8.784   0.649   9.498 -0.5331  1.5506  0.8587
62578SOL     OW92544   4.686   5.720   1.313  0.1463  0.4535 -0.1760
62578SOL    HW192545   4.771   5.716   1.355 -0.3404 -1.0373  0.7525
62578SOL    HW292546   4.687   5.649   1.249 -1.2778 -1.4719  1.7440
62579SOL     OW92547   0.092   1.908   6.030  0.0333  0.4596 -0.4983
62579SOL    HW192548   0.018   1.956   5.995 -1.4672 -0.7238  0.8800
62579SOL    HW292549   0.156   1.975   6.055 -1.0632  1.5763 -0.6508
62580SOL     OW92550  10.759   2.250   8.507  0.1721 -0.5905  0.3457
62580SOL    HW192551  10.765   2.156   8.488 -0.1582 -0.3519 -1.0301
62580SOL    HW292552  10.666   2.269   8.506  0.2707 -0.1049 -0.1762
62581SOL     OW92553   5.150  10.602   2.506  0.6795  0.6706  0.2976
62581SOL    HW192554   5.123  10.630   2.418  0.7022 -0.2891 -0.0321
62581SOL    HW292555   5.070  10.605   2.558  0.5759  0.8325  0.1297
62582SOL     OW92556   9.126   1.206   0.385  0.2526  0.5007  0.7598
62582SOL    HW192557   9.149   1.208   0.292  1.5222  2.0678  1.0641
62582SOL    HW292558   9.038   1.244   0.388 -1.1241 -2.3872 -0.0624
62583SOL     OW92559   9.364   9.417   4.776 -0.2351 -0.5716  0.3492
62583SOL    HW192560   9.299   9.475   4.815 -1.2190 -0.7739 -0.9130
62583SOL    HW292561   9.448   9.450   4.808 -0.7709  1.4388 -0.1843
62584SOL     OW92562   1.661   9.095   4.348 -0.3440  0.6405  0.2134
62584SOL    HW192563   1.573   9.109   4.315 -0.4280  1.0536  0.6049
62584SOL    HW292564   1.692   9.017   4.303 -0.5820  1.0005 -0.5851
62585SOL     OW92565   9.786   0.865   9.700  0.1204  0.4007 -0.4892
62585SOL    HW192566   9.744   0.931   9.644 -0.7852  0.4909  0.2637
62585SOL    HW292567   9.798   0.789   9.643 -2.3323 -0.1126 -0.4450
62586SOL     OW92568  11.008   9.101   1.768  0.6746 -0.1924 -0.3385
62586SOL    HW192569  11.008   9.188   1.727 -4.1575  0.9059  1.3703
62586SOL    HW292570  11.011   9.118   1.862 -2.0283 -1.6603  0.0994
62587SOL     OW92571   5.411   0.265   7.151 -0.5120  0.1107  0.0158
62587SOL    HW192572   5.434   0.218   7.231 -0.9333  1.2411  0.8278
62587SOL    HW292573   5.450   0.351   7.162  1.3269 -0.3718 -2.0123
62588SOL     OW92574   5.789   2.697   6.020 -0.2995  0.2301  0.8622
62588SOL    HW192575   5.830   2.747   5.950  0.4694 -0.2684  0.9449
62588SOL    HW292576   5.858   2.639   6.052 -1.4452 -1.6433  0.0707
62589SOL     OW92577   4.670  12.304  11.161  0.0913  0.6191 -0.2230
62589SOL    HW192578   4.658  12.231  11.099 -0.6028  0.9964 -0.5451
62589SOL    HW292579   4.745  12.352  11.127 -0.1328  0.6810 -0.6345
62590SOL     OW92580  10.705   2.036   2.416 -0.4484  0.1546 -0.7074
62590SOL    HW192581  10.653   2.006   2.492 -0.2007  0.3908 -0.4429
62590SOL    HW292582  10.661   2.116   2.388 -0.3449  0.2464 -0.6076
62591SOL     OW92583   1.778   4.175  10.325  0.1691  0.1801 -0.1395
62591SOL    HW192584   1.735   4.257  10.299 -1.4540 -1.2901 -2.6078
62591SOL    HW292585   1.706   4.121  10.360  1.1523 -0.3427  1.1509
62592SOL     OW92586   6.037   1.882   2.302 -0.1311 -0.0705  0.4444
62592SOL    HW192587   6.111   1.882   2.362  0.0113 -0.1934  0.2715
62592SOL    HW292588   6.044   1.799   2.255 -0.6789 -0.3184  0.7912
62593SOL     OW92589  11.760  11.889   6.332 -0.0539 -0.3539 -0.2020
62593SOL    HW192590  11.705  11.841   6.271  1.3495  0.4607 -2.2224
62593SOL    HW292591  11.788  11.824   6.396 -0.6458 -1.5187 -1.0929
62594SOL     OW92592  10.851   4.161   3.085  0.0840  0.2194 -0.0131
62594SOL    HW192593  10.800   4.147   3.165  0.0576 -0.3352 -0.1191
62594SOL    HW292594  10.862   4.073   3.049  2.3782  0.1192  0.7851
62595SOL     OW92595   8.119  10.416   8.582  0.0664  0.0391 -0.7251
62595SOL    HW192596   8.027  10.390   8.584  0.5262 -1.7590 -1.4795
62595SOL    HW292597   8.166  10.339   8.612  1.3698  0.8083 -0.7284
62596SOL     OW92598  10.625   5.010   0.933 -0.2231 -0.6387 -0.2643
62596SOL    HW192599  10.611   4.963   1.015  1.1248 -1.9048 -0.7208
62596SOL    HW292600  10.720   5.008   0.920 -0.3000  0.6684 -1.2153
62597SOL     OW92601   7.288  10.743  10.308  0.1340 -0.1498 -0.1906
62597SOL    HW192602   7.343  10.766  10.233 -0.7546  0.5252 -0.6489
62597SOL    HW292603   7.202  10.779  10.287 -0.4005 -0.8896  0.6749
62598SOL     OW92604   4.482   6.237   4.696  0.1960  0.2852  0.1020
62598SOL    HW192605   4.441   6.205   4.777 -0.6510  1.0319 -0.0184
62598SOL    HW292606   4.410   6.277   4.647  0.9309  0.9456 -0.4628
62599SOL     OW92607   6.294   0.606   5.748 -0.7093  0.1111 -0.4071
62599SOL    HW192608   6.346   0.641   5.675 -0.1645  1.9181  0.7885
62599SOL    HW292609   6.359   0.570   5.808 -0.9504  0.9478  0.3627
62600SOL     OW92610   7.299   9.178   6.285  0.4655  0.2208 -0.0491
62600SOL    HW192611   7.369   9.236   6.315 -0.4501  2.3318 -1.7862
62600SOL    HW292612   7.228   9.191   6.348  0.5794  0.3109  0.0607
62601SOL     OW92613  11.057   4.545   9.976  0.1286  0.4312 -0.5552
62601SOL    HW192614  11.040   4.604   9.903  0.8434 -1.3768 -2.2939
62601SOL    HW292615  11.106   4.472   9.937  2.0720  0.1726  2.0509
62602SOL     OW92616   2.226   9.329   3.089  0.1772  0.1518 -0.3729
62602SOL    HW192617   2.320   9.347   3.081  0.4780 -0.8249  0.6577
62602SOL    HW292618   2.222   9.244   3.134 -1.1458 -1.2735 -2.9251
62603SOL     OW92619   9.457   6.629   5.667  0.4318  0.0425  0.0224
62603SOL    HW192620   9.406   6.707   5.688 -0.4504 -1.2407  3.2592
62603SOL    HW292621   9.543   6.662   5.640  0.5687  2.1773  2.6754
62604SOL     OW92622   6.781   8.473   9.652 -0.3239  0.4054 -0.4330
62604SOL    HW192623   6.792   8.380   9.629 -1.1124 -0.4617  2.4006
62604SOL    HW292624   6.867   8.500   9.684 -0.5420  0.1459  0.3787
62605SOL     OW92625  11.673   8.470   8.800 -0.0711 -0.2020 -0.2681
62605SOL    HW192626  11.751   8.414   8.799 -1.0083 -1.5213 -1.4561
62605SOL    HW292627  11.703   8.551   8.842  1.5120 -1.2837  0.8075
62606SOL     OW92628   8.297   0.182   5.561  0.0661  0.4348  0.3315
62606SOL    HW192629   8.378   0.134   5.542 -0.0857  1.3952 -3.6675
62606SOL    HW292630   8.229   0.115   5.560  0.4375  0.0492  0.3603
62607SOL     OW92631  11.390   6.297   3.016 -0.0474 -0.5059  0.3022
62607SOL    HW192632  11.448   6.338   3.080 -0.9211  2.1609 -0.5210
62607SOL    HW292633  11.308   6.283   3.063 -0.1626 -0.1042  0.2190
62608SOL     OW92634   6.074   3.641   0.099 -0.0940 -0.2452  0.1846
62608SOL    HW192635   6.157   3.613   0.060  0.9230  1.0590  1.3143
62608SOL    HW292636   6.075   3.603   0.187 -0.4978  0.1411  0.3602
62609SOL     OW92637   9.629  10.249   4.710 -0.5676 -0.3399  0.2591
62609SOL    HW192638   9.619  10.344   4.711 -0.4889 -0.3233  1.9746
62609SOL    HW292639   9.543  10.216   4.683 -0.5519  0.1968 -0.4880
62610SOL     OW92640   1.433  10.286  12.184 -0.0204  0.0519 -0.0599
62610SOL    HW192641   1.499  10.233  12.229  1.0005  1.7108  0.4995
62610SOL    HW292642   1.405  10.233  12.110  2.5236 -0.4152 -0.7746
62611SOL     OW92643   7.322  12.368   6.244 -1.1147 -0.1995 -0.8074
62611SOL    HW192644   7.351  12.367   6.153 -1.5133 -1.2129 -0.9349
62611SOL    HW292645   7.386  12.315   6.291 -0.7231  0.5924 -0.4290
62612SOL     OW92646   2.856   3.562   2.490 -0.0392  0.3569  0.4541
62612SOL    HW192647   2.763   3.565   2.465  0.2440 -0.9400 -0.9263
62612SOL    HW292648   2.899   3.621   2.429  0.2358 -0.2737  0.0279
62613SOL     OW92649   0.036  11.618  10.191 -0.4629  0.1783 -0.7498
62613SOL    HW192650   0.108  11.589  10.247 -0.6710 -2.7671 -1.8163
62613SOL    HW292651  -0.011  11.684  10.243 -0.3323 -1.9623  2.3142
62614SOL     OW92652   5.258   7.391   0.476  0.2922 -0.1832 -0.1557
62614SOL    HW192653   5.348   7.370   0.448  0.1811 -0.3799 -0.3745
62614SOL    HW292654   5.236   7.471   0.429  0.4553  0.0217  0.1163
62615SOL     OW92655   8.851  10.150  10.948 -0.0936  0.1837 -0.1855
62615SOL    HW192656   8.868  10.202  10.870 -1.3477 -0.1473 -0.6987
62615SOL    HW292657   8.757  10.132  10.946  0.1217 -1.2179  0.5212
62616SOL     OW92658   9.725   2.507   2.825  0.1001  0.1908  0.4958
62616SOL    HW192659   9.732   2.594   2.786  0.4355  0.2295  0.6400
62616SOL    HW292660   9.634   2.500   2.853  0.1032  0.5443  0.5946
62617SOL     OW92661   5.916   6.843   6.693  0.2954  0.1483  0.1187
62617SOL    HW192662   5.960   6.772   6.739 -0.1755 -0.7364 -0.7467
62617SOL    HW292663   5.830   6.807   6.670  0.4861  0.5563 -1.3702
62618SOL     OW92664   4.985   0.839   0.954  0.0867  0.3328 -0.3020
62618SOL    HW192665   4.925   0.806   0.887 -0.3883  1.1047 -0.2750
62618SOL    HW292666   4.928   0.864   1.027  0.5509  0.0121  0.1757
62619SOL     OW92667  10.074   7.315   6.622  0.3904  0.7438 -0.0600
62619SOL    HW192668  10.165   7.294   6.603  0.5708  1.7194 -0.3383
62619SOL    HW292669  10.023   7.249   6.575  0.9468  0.2775 -0.0124
62620SOL     OW92670   5.841   6.416   5.164 -0.0499  0.0897 -0.0154
62620SOL    HW192671   5.913   6.398   5.104  0.0950 -0.3088  0.2670
62620SOL    HW292672   5.762   6.407   5.111  0.0665 -0.4873 -0.1028
62621SOL     OW92673   3.455   0.804   1.275 -0.6158  0.8855  0.0088
62621SOL    HW192674   3.516   0.868   1.239 -0.1372  2.4202  3.1682
62621SOL    HW292675   3.510   0.730   1.301 -0.9826 -0.2952 -2.3555
62622SOL     OW92676   2.146   1.583   3.851  0.1103  0.3655 -0.1490
62622SOL    HW192677   2.149   1.525   3.775 -0.2141  1.0856 -0.7265
62622SOL    HW292678   2.205   1.542   3.915 -0.9317 -1.1584 -0.1167
62623SOL     OW92679   3.674   9.872  10.429 -0.1606  0.2392  0.1202
62623SOL    HW192680   3.611   9.942  10.446 -0.0901  0.0230  1.3243
62623SOL    HW292681   3.759   9.916  10.431 -0.1588  0.2306  0.2551
62624SOL     OW92682   7.363  10.847   9.511 -0.8960  0.4610  0.1861
62624SOL    HW192683   7.297  10.888   9.455 -1.6469 -0.1573  0.6019
62624SOL    HW292684   7.360  10.896   9.593 -1.3956 -0.0591  0.4822
62625SOL     OW92685   1.574   0.967   4.387  0.2321 -0.1824 -0.2282
62625SOL    HW192686   1.546   0.875   4.396  1.5824 -0.4977  1.3119
62625SOL    HW292687   1.640   0.965   4.318 -1.0333 -0.0287 -1.4723
62626SOL     OW92688   8.535   5.589   1.828  0.2134  0.3536  0.1887
62626SOL    HW192689   8.462   5.564   1.884  0.3648  1.4213  0.8971
62626SOL    HW292690   8.494   5.633   1.753  0.0906  0.1930  0.1614
62627SOL     OW92691   7.062  11.999   7.954 -0.1122 -0.5813  0.0365
62627SOL    HW192692   7.017  12.079   7.981 -1.3611 -0.4019 -2.2871
62627SOL    HW292693   7.130  12.030   7.893  1.9777 -1.0322  2.0016
62628SOL     OW92694   4.305   6.050   8.822 -0.4767  0.1835  0.1252
62628SOL    HW192695   4.311   6.145   8.833 -1.6478  0.0390  2.8974
62628SOL    HW292696   4.367   6.030   8.752 -2.5053  3.2983 -2.9175
62629SOL     OW92697  12.212   3.484  11.879 -0.0336  0.0942  0.0274
62629SOL    HW192698  12.279   3.520  11.821 -1.7179  0.6975 -1.6417
62629SOL    HW292699  12.182   3.559  11.930  0.2578 -0.0863  0.4670
62630SOL     OW92700   8.830   4.510   6.206 -0.5085 -0.3940 -0.3888
62630SOL    HW192701   8.773   4.515   6.284 -0.9439 -2.0219 -0.5515
62630SOL    HW292702   8.918   4.503   6.242 -0.6422 -0.3907 -0.0465
62631SOL     OW92703  11.130   2.846   2.864 -0.3778  0.2273 -0.1714
62631SOL    HW192704  11.099   2.859   2.954  0.8202  0.7533  0.1843
62631SOL    HW292705  11.148   2.752   2.858 -0.8397  0.1234  0.0087
62632SOL     OW92706   4.783   3.320  10.979 -0.4766  0.4695  0.4701
62632SOL    HW192707   4.734   3.254  11.028  1.0407 -1.5603 -0.5606
62632SOL    HW292708   4.716   3.378  10.943 -1.8708 -0.3896  1.5775
62633SOL     OW92709   3.433   0.135   6.814  0.3642  0.2498 -0.5792
62633SOL    HW192710   3.453   0.228   6.821 -2.0538  0.7719  0.2911
62633SOL    HW292711   3.411   0.122   6.722 -0.2924  0.8008 -0.5106
62634SOL     OW92712  10.857   9.592  11.390  0.5214  0.0109 -0.0944
62634SOL    HW192713  10.772   9.574  11.352  0.4538 -1.2370  0.6008
62634SOL    HW292714  10.887   9.671  11.345 -0.7446  0.1501 -0.7404
62635SOL     OW92715   0.504   5.673   5.418  0.1396 -0.4030  0.2226
62635SOL    HW192716   0.527   5.660   5.510 -0.8206 -2.7573  0.1963
62635SOL    HW292717   0.408   5.676   5.417  0.1607  1.6502 -0.5172
62636SOL     OW92718   4.186  11.852   2.751  0.1244 -0.2616  0.6991
62636SOL    HW192719   4.185  11.794   2.675 -2.3592  0.0458  0.4448
62636SOL    HW292720   4.129  11.810   2.815  1.0662  0.1917  1.8977
62637SOL     OW92721  11.656   8.982   4.898 -0.0228  0.0329 -0.0759
62637SOL    HW192722  11.698   8.959   4.815  1.8539 -0.6353  1.0141
62637SOL    HW292723  11.721   8.963   4.965 -1.7968 -0.2928  1.6644
62638SOL     OW92724   5.544   9.544  12.595  0.0768 -0.4298 -0.0510
62638SOL    HW192725   5.501   9.574  12.514  1.3454 -1.4007 -1.1428
62638SOL    HW292726   5.592   9.620  12.626 -1.3233  0.2819  0.4434
62639SOL     OW92727  12.348   1.864  10.522 -0.1288 -0.0611  0.1913
62639SOL    HW192728  12.330   1.953  10.553 -1.3284 -0.5489  0.9640
62639SOL    HW292729  12.324   1.865  10.430  2.0378  1.0031 -0.4388
62640SOL     OW92730   8.314   1.508   2.718  0.0374  0.3413 -0.2583
62640SOL    HW192731   8.237   1.453   2.734  1.2347 -1.6587 -0.9324
62640SOL    HW292732   8.329   1.501   2.624  0.3691  1.6853 -0.3230
62641SOL     OW92733  10.326  10.442   7.541 -0.0997 -0.0563 -0.3126
62641SOL    HW192734  10.337  10.525   7.495  1.2501 -0.4691 -0.7723
62641SOL    HW292735  10.353  10.375   7.478  1.9485 -0.6337  1.0558
62642SOL     OW92736   0.828   2.691   5.334 -0.6612  0.4303  0.6171
62642SOL    HW192737   0.788   2.613   5.295 -2.7674  1.5838  0.3473
62642SOL    HW292738   0.757   2.735   5.379  0.0962  2.9545 -0.4520
62643SOL     OW92739  12.497   8.994   9.704 -0.2190 -0.2173  0.6035
62643SOL    HW192740  12.530   8.926   9.763  0.1042 -1.4597 -0.9078
62643SOL    HW292741  12.411   8.961   9.676 -0.0772 -0.0058 -0.1098
62644SOL     OW92742   7.169   5.486   7.675 -0.2608  0.1249 -0.2983
62644SOL    HW192743   7.138   5.575   7.690 -0.4637 -0.1727  1.1864
62644SOL    HW292744   7.243   5.475   7.734  1.0205 -0.0825 -1.8709
62645SOL     OW92745   7.760  12.185  10.851  0.3729 -0.2304  0.0086
62645SOL    HW192746   7.785  12.240  10.925  0.7039  0.3161 -0.5004
62645SOL    HW292747   7.675  12.220  10.822  1.0470  0.6672 -0.9358
62646SOL     OW92748   3.169   8.353   1.598  0.1563 -0.3544 -0.3721
62646SOL    HW192749   3.206   8.276   1.555  0.1027 -1.1993  1.0379
62646SOL    HW292750   3.081   8.326   1.625 -0.1889  0.4924 -0.5881
62647SOL     OW92751  11.716   0.445   9.604 -0.0031  0.2481  0.0998
62647SOL    HW192752  11.672   0.432   9.688  1.4855  0.7764  1.0067
62647SOL    HW292753  11.756   0.361   9.584 -0.8936 -0.0654 -0.4358
62648SOL     OW92754   1.128  10.322  11.405  0.0392 -0.0888  0.1145
62648SOL    HW192755   1.083  10.364  11.478 -1.8142 -1.7443  0.0099
62648SOL    HW292756   1.059  10.272  11.360  1.0600  0.9441 -2.8498
62649SOL     OW92757   8.878   4.875   1.681 -0.3118  0.1656 -0.2319
62649SOL    HW192758   8.929   4.813   1.630  0.7851 -1.2040  2.3169
62649SOL    HW292759   8.786   4.853   1.663  0.0552 -0.6831 -1.1031
62650SOL     OW92760   8.336   3.400   6.772 -0.1240 -0.8477 -0.1199
62650SOL    HW192761   8.412   3.354   6.736  0.4404  0.6344 -0.9026
62650SOL    HW292762   8.270   3.395   6.703  0.4894  0.8221 -0.8845
62651SOL     OW92763   6.980   7.180   2.033 -0.0208 -0.7537  0.0692
62651SOL    HW192764   6.889   7.198   2.057 -0.1500 -1.0772 -0.1585
62651SOL    HW292765   7.001   7.099   2.080  0.2921 -0.4412  0.4674
62652SOL     OW92766   5.835   1.985   3.268  0.2055  0.5441  0.0945
62652SOL    HW192767   5.777   2.055   3.236  0.7233  1.2449  0.6432
62652SOL    HW292768   5.917   1.998   3.220  0.3530  0.4165  0.3074
62653SOL     OW92769   6.908   2.864   9.580 -0.0372 -0.5069 -0.0653
62653SOL    HW192770   6.890   2.954   9.552  0.6293 -0.1489  0.6385
62653SOL    HW292771   6.892   2.811   9.502 -0.4583  0.2149 -0.4799
62654SOL     OW92772   5.419  11.628  11.255 -0.0312  0.0748  0.1863
62654SOL    HW192773   5.469  11.609  11.175  1.5919  0.1074  1.1618
62654SOL    HW292774   5.457  11.710  11.288  0.7378 -0.9946  2.0782
62655SOL     OW92775   5.146   0.367   0.244 -0.1725  0.0622  0.1062
62655SOL    HW192776   5.115   0.399   0.329 -1.2722 -2.2635  0.6705
62655SOL    HW292777   5.234   0.404   0.236 -0.8712  2.1746  1.1695
62656SOL     OW92778   9.109   7.368   6.851  0.0177 -0.6806 -0.5442
62656SOL    HW192779   9.060   7.295   6.888 -0.8627  0.2239  0.1337
62656SOL    HW292780   9.043   7.419   6.803  0.8401 -0.9627 -2.0520
62657SOL     OW92781  12.090   5.322  10.560  0.1742  0.2235  0.1032
62657SOL    HW192782  12.073   5.264  10.485  1.1211  1.1583 -0.8825
62657SOL    HW292783  12.063   5.409  10.529  0.8236  0.6661  0.7552
62658SOL     OW92784   5.972   0.081  11.404 -0.0148  0.4162 -0.2011
62658SOL    HW192785   6.003   0.132  11.479 -3.8795  1.4891  0.8805
62658SOL    HW292786   5.989  -0.010  11.428  0.0812  0.8101  1.3565
62659SOL     OW92787   1.186   6.375   5.811  0.0516  0.4695 -0.2788
62659SOL    HW192788   1.151   6.463   5.826  1.5250  1.0942 -0.4035
62659SOL    HW292789   1.236   6.356   5.890 -2.3784 -1.3729  0.9350
62660SOL     OW92790   0.015   8.135   8.958  0.1930 -0.1986 -0.2607
62660SOL    HW192791   0.097   8.180   8.940  0.1897 -0.4982 -1.0834
62660SOL    HW292792  -0.050   8.179   8.903  0.1377 -1.0156 -0.8818
62661SOL     OW92793   0.774  11.937   9.207 -0.1000 -0.3882 -0.3527
62661SOL    HW192794   0.750  11.931   9.299  1.2026  0.7602  0.0981
62661SOL    HW292795   0.718  12.006   9.171 -0.8180 -1.0403 -0.5157
62662SOL     OW92796   1.386   3.668   8.048  0.4338 -0.3365 -0.5404
62662SOL    HW192797   1.412   3.703   7.963  0.8591  0.5693 -0.0476
62662SOL    HW292798   1.448   3.707   8.110  0.9138 -1.9161  0.0474
62663SOL     OW92799   0.804   4.150   1.890 -0.6828  0.0446 -0.0233
62663SOL    HW192800   0.720   4.110   1.914  0.0412 -1.1868  0.5355
62663SOL    HW292801   0.844   4.088   1.830  0.8212 -0.5349  1.4866
62664SOL     OW92802  11.527   2.907   4.119  0.0827 -0.4048 -0.3992
62664SOL    HW192803  11.551   2.999   4.123 -0.9810 -0.0233 -1.9949
62664SOL    HW292804  11.611   2.860   4.117  0.6795  0.2961  3.0286
62665SOL     OW92805   1.160   2.030   0.146  0.2814  0.3832  0.2292
62665SOL    HW192806   1.107   2.099   0.185 -0.1854 -0.2690  0.7829
62665SOL    HW292807   1.103   1.953   0.147  1.3850 -0.4555  1.2791
62666SOL     OW92808   3.183  10.718   8.508 -0.0455  0.2095 -0.0642
62666SOL    HW192809   3.126  10.761   8.444  0.8960  0.7877 -0.5373
62666SOL    HW292810   3.190  10.628   8.477  1.3762  0.7731 -1.5018
62667SOL     OW92811   0.789   4.953   5.572  0.1258 -0.5666  0.5115
62667SOL    HW192812   0.748   4.922   5.492 -0.5415 -1.8973  1.3314
62667SOL    HW292813   0.881   4.966   5.548 -0.3197  0.3542 -0.7903
62668SOL     OW92814   8.024   5.351   3.346 -0.2597  0.2711 -0.2588
62668SOL    HW192815   7.996   5.260   3.337  0.3448  0.1358 -0.8415
62668SOL    HW292816   8.117   5.345   3.369  0.1829  0.7411 -1.7804
62669SOL     OW92817   4.719   1.726   8.781 -0.3136 -0.9069 -0.0104
62669SOL    HW192818   4.626   1.745   8.793 -0.5266 -2.2563  0.6458
62669SOL    HW292819   4.724   1.630   8.780  0.9739 -0.8489 -0.8599
62670SOL     OW92820   7.095   0.760   2.232 -0.0077  0.1799 -0.5608
62670SOL    HW192821   7.087   0.673   2.193 -0.7980  0.4288 -0.9591
62670SOL    HW292822   7.149   0.809   2.170  0.6187 -0.0724 -0.2337
62671SOL     OW92823   4.402  10.435   6.166  0.1336 -0.0637 -0.4841
62671SOL    HW192824   4.388  10.366   6.101 -1.1827  0.9436 -1.3179
62671SOL    HW292825   4.411  10.515   6.114 -1.4720  0.8471  0.5660
62672SOL     OW92826   3.472   4.495   8.667 -0.4870 -0.2290  0.1210
62672SOL    HW192827   3.461   4.508   8.573  2.1638 -1.6848 -0.4774
62672SOL    HW292828   3.524   4.569   8.696  0.5568 -0.8881 -0.0246
62673SOL     OW92829   2.809   2.784   2.975 -0.0807  0.7105 -0.7027
62673SOL    HW192830   2.778   2.874   2.962 -0.7458  0.6338  0.2375
62673SOL    HW292831   2.808   2.772   3.069 -1.4139 -0.7575 -0.8620
62674SOL     OW92832   6.399   1.796   3.785 -0.3449  0.2788 -0.0957
62674SOL    HW192833   6.472   1.835   3.832 -0.8542  1.4732 -0.2585
62674SOL    HW292834   6.427   1.795   3.693 -1.0608  2.1553 -0.3960
62675SOL     OW92835   9.425  10.130   0.489  0.2847  0.0863 -0.1779
62675SOL    HW192836   9.381  10.104   0.569  0.7742 -0.1825  0.0120
62675SOL    HW292837   9.372  10.201   0.454  0.6728  0.9757  0.9723
62676SOL     OW92838  10.441   5.503  11.151 -0.2912  0.2671 -0.3827
62676SOL    HW192839  10.493   5.550  11.216  0.3907 -1.6105  0.4957
62676SOL    HW292840  10.408   5.571  11.093  0.8783  1.7842  0.6588
62677SOL     OW92841   4.261   0.587   0.779  0.7086 -0.3468 -0.5804
62677SOL    HW192842   4.291   0.667   0.823  0.0920  0.1440 -1.0282
62677SOL    HW292843   4.296   0.594   0.691 -0.4203  0.0814 -1.0152
62678SOL     OW92844   3.842   6.730   0.983 -0.3432  0.2568 -0.0251
62678SOL    HW192845   3.875   6.672   0.915  1.5999  2.4398 -1.0856
62678SOL    HW292846   3.753   6.751   0.955 -0.3749 -0.6681 -0.6589
62679SOL     OW92847   7.190   3.137   9.997 -0.4145 -0.7979 -0.0603
62679SOL    HW192848   7.113   3.140  10.053 -1.0841 -0.1059 -1.0087
62679SOL    HW292849   7.171   3.070   9.932  0.4043 -1.6704  0.5590
62680SOL     OW92850   0.852   8.584   4.397  0.1197 -0.2800 -0.1354
62680SOL    HW192851   0.828   8.514   4.457 -1.4727  1.3542  1.2692
62680SOL    HW292852   0.894   8.650   4.452 -0.1633  0.6827 -1.0308
62681SOL     OW92853   4.389   8.730   0.222 -0.2056 -0.0101 -0.4242
62681SOL    HW192854   4.401   8.804   0.282 -0.5996  0.7321 -1.2416
62681SOL    HW292855   4.312   8.753   0.170 -0.2196 -0.9120 -0.8187
62682SOL     OW92856   7.744   0.079  11.267  0.0181 -0.2338 -0.1260
62682SOL    HW192857   7.714   0.148  11.208 -0.6253 -0.0878  0.3583
62682SOL    HW292858   7.664   0.041  11.303  0.3292 -1.6867 -0.8824
62683SOL     OW92859  11.874   6.377   5.345 -0.1695 -0.5774  0.1502
62683SOL    HW192860  11.953   6.331   5.317  1.0716  1.8866 -0.7080
62683SOL    HW292861  11.906   6.456   5.389 -2.1207  0.7679 -0.6978
62684SOL     OW92862   9.553   7.722   9.265 -0.2056  0.0094  0.2419
62684SOL    HW192863   9.640   7.702   9.231 -0.5583 -1.9957  0.4418
62684SOL    HW292864   9.501   7.744   9.187  0.3036  0.6318  0.0675
62685SOL     OW92865   8.723   4.968   4.549  0.5032  0.2361  0.0204
62685SOL    HW192866   8.650   5.026   4.570 -0.6898 -1.3994  0.6366
62685SOL    HW292867   8.686   4.880   4.556  2.0849 -0.6037 -1.4676
62686SOL     OW92868  11.974   1.343   6.541 -0.3617 -0.3505 -0.4964
62686SOL    HW192869  11.917   1.417   6.518 -0.8061 -0.0207  1.5004
62686SOL    HW292870  12.037   1.379   6.603  1.5559 -0.9243 -1.9970
62687SOL     OW92871   1.971   6.765  10.673  0.2932 -0.2660  0.3351
62687SOL    HW192872   1.914   6.759  10.750 -0.3737 -1.6848 -0.2291
62687SOL    HW292873   1.983   6.674  10.645  0.7718  0.1973 -1.0591
62688SOL     OW92874   1.117   4.582   3.341  0.2294 -0.2664 -0.6128
62688SOL    HW192875   1.207   4.567   3.368  0.3870 -1.5507 -1.7263
62688SOL    HW292876   1.064   4.531   3.402 -0.0255  2.5615  1.7286
62689SOL     OW92877   9.037   1.127   7.148 -0.1372 -0.0002 -0.4376
62689SOL    HW192878   8.951   1.168   7.150 -0.3876 -0.5029 -0.6926
62689SOL    HW292879   9.084   1.172   7.078  0.6513  1.8940  1.2145
62690SOL     OW92880   1.233   6.282   8.564 -0.0823 -0.2708 -0.1627
62690SOL    HW192881   1.174   6.212   8.594  1.3601 -0.8924  1.4003
62690SOL    HW292882   1.248   6.263   8.472 -0.2524 -1.6457  0.0699
62691SOL     OW92883   2.401  10.300   5.728 -0.6784 -0.2810  0.1516
62691SOL    HW192884   2.455  10.354   5.671 -0.8767 -0.3226 -0.0809
62691SOL    HW292885   2.416  10.335   5.816 -0.7388  0.0977  0.0152
62692SOL     OW92886   0.136  11.376   1.511  0.2607 -0.5238 -0.3064
62692SOL    HW192887   0.150  11.412   1.599  1.0424  0.0113 -0.6396
62692SOL    HW292888   0.070  11.432   1.471  1.3824  0.4994 -0.7789
62693SOL     OW92889   3.702   3.607   5.126  0.5864 -0.2641  0.1330
62693SOL    HW192890   3.636   3.539   5.138 -0.9151  1.0770 -0.1837
62693SOL    HW292891   3.761   3.571   5.061  0.5236 -1.7336  0.8425
62694SOL     OW92892   0.638   8.581   3.117  0.1492  0.0792  0.6576
62694SOL    HW192893   0.576   8.623   3.059 -0.9006 -2.1198  0.0669
62694SOL    HW292894   0.593   8.576   3.202  0.2852  0.1934  0.7366
62695SOL     OW92895  11.071   7.178   3.051 -0.2765 -0.4224  0.5038
62695SOL    HW192896  11.161   7.182   3.083 -0.8324  1.4378  2.0185
62695SOL    HW292897  11.054   7.267   3.018 -1.1851 -1.0898 -0.9315
62696SOL     OW92898   1.341   1.441   2.110  0.1835  0.5249 -0.7934
62696SOL    HW192899   1.314   1.506   2.046  2.3418  2.2093 -0.1103
62696SOL    HW292900   1.437   1.439   2.104  0.2489 -2.2370 -0.4007
62697SOL     OW92901   5.736  12.440   1.362  0.0465 -0.1697  0.8623
62697SOL    HW192902   5.648  12.450   1.326 -0.3096 -1.0917  1.4325
62697SOL    HW292903   5.778  12.525   1.349 -1.0287  0.3741  0.8510
62698SOL     OW92904   9.403   2.487  12.163 -0.1049  0.0172  0.1156
62698SOL    HW192905   9.333   2.455  12.106  0.0134  0.8234 -0.5085
62698SOL    HW292906   9.446   2.408  12.196  0.8708 -0.5259 -2.2293
62699SOL     OW92907  10.288   0.216   3.305 -0.1629  0.1903  0.4065
62699SOL    HW192908  10.270   0.306   3.331 -1.2895 -0.1543  0.9050
62699SOL    HW292909  10.364   0.222   3.248 -0.6562  1.5281 -0.1494
62700SOL     OW92910   7.239   7.616   9.996 -1.0377 -0.0237 -0.2818
62700SOL    HW192911   7.180   7.610  10.072  0.9540 -0.0531  1.3458
62700SOL    HW292912   7.250   7.710   9.982  0.9427  0.0871  1.4926
62701SOL     OW92913  10.030   1.507   4.210 -0.1038  0.1425 -0.3235
62701SOL    HW192914   9.996   1.420   4.232  0.1739 -0.1307 -0.9498
62701SOL    HW292915  10.035   1.507   4.114 -1.3632  1.3361 -0.4147
62702SOL     OW92916   3.517   9.708   9.664 -0.2097 -0.3207  0.2067
62702SOL    HW192917   3.578   9.651   9.711 -0.7892 -1.0167  0.1450
62702SOL    HW292918   3.479   9.764   9.732  0.3681  0.0021  0.2683
62703SOL     OW92919   1.378   0.542   4.185  0.7186  0.7237 -0.2755
62703SOL    HW192920   1.288   0.536   4.218  1.1927  2.9890  1.7366
62703SOL    HW292921   1.374   0.604   4.113  0.7504  1.3890  0.2857
62704SOL     OW92922   4.160   7.230   2.239  0.0657 -0.7408  0.3950
62704SOL    HW192923   4.087   7.212   2.298 -1.2624  0.5832 -0.7613
62704SOL    HW292924   4.143   7.318   2.206  1.6953 -0.7689 -0.6430
62705SOL     OW92925   8.355   5.321   1.025 -0.3851  0.2812  0.0941
62705SOL    HW192926   8.408   5.397   1.049 -0.8242  0.7627 -0.4313
62705SOL    HW292927   8.274   5.330   1.075 -0.2159 -0.1370  0.4479
62706SOL     OW92928   8.961   1.648   5.955  0.6670 -0.0927 -0.2591
62706SOL    HW192929   9.017   1.649   6.032 -0.9295  0.3085  0.9306
62706SOL    HW292930   8.913   1.565   5.961 -2.3631  1.6176  1.4218
62707SOL     OW92931   4.678  11.182   0.627 -0.6430  0.1501  0.1661
62707SOL    HW192932   4.602  11.129   0.603 -0.1371 -0.2024 -0.7097
62707SOL    HW292933   4.750  11.120   0.632 -0.3245  0.5435  0.5868
62708SOL     OW92934   8.112   7.698   7.166 -0.4699  0.1795  0.1015
62708SOL    HW192935   8.153   7.769   7.214 -0.0322  0.2792 -0.4041
62708SOL    HW292936   8.034   7.677   7.216  0.0150  0.2196  0.8991
62709SOL     OW92937   0.974   7.881  12.026  0.1116  0.2600  0.2319
62709SOL    HW192938   0.981   7.817  12.098  1.0743 -0.9679 -0.9007
62709SOL    HW292939   0.988   7.966  12.068 -0.1094 -0.3608  1.6189
62710SOL     OW92940  11.308  12.624   3.017 -0.4383  0.4808 -0.1167
62710SOL    HW192941  11.381  12.563   3.032  0.2932  1.2265 -0.5637
62710SOL    HW292942  11.248  12.607   3.090  0.7811  0.7207  0.9954
62711SOL     OW92943   7.456   1.601   8.643 -0.7641 -0.1137  0.0028
62711SOL    HW192944   7.426   1.511   8.645 -1.3228  0.0523 -0.6602
62711SOL    HW292945   7.377   1.653   8.630 -0.7578  0.6591  2.4301
62712SOL     OW92946   8.857   5.538   4.784  0.0967 -0.1783 -0.5928
62712SOL    HW192947   8.882   5.470   4.721 -0.1576  0.6930 -1.6540
62712SOL    HW292948   8.769   5.513   4.812  2.0180 -3.6290  3.6425
62713SOL     OW92949   5.762  12.008   2.115  0.4015 -0.7033  0.1453
62713SOL    HW192950   5.722  12.072   2.056  0.3087 -1.0446 -0.1678
62713SOL    HW292951   5.821  12.059   2.170 -2.4838  0.3487  2.5764
62714SOL     OW92952   2.973   2.546   7.904  0.1570 -0.0431 -0.6632
62714SOL    HW192953   2.966   2.641   7.905 -0.7742 -0.0962 -0.7174
62714SOL    HW292954   3.023   2.524   7.982  0.5883  0.5053 -0.7821
62715SOL     OW92955   0.896   1.201  10.436  0.1446  0.2080  0.4790
62715SOL    HW192956   0.828   1.242  10.489  1.1561  0.7530  1.3760
62715SOL    HW292957   0.913   1.263  10.365  0.2666  0.4324  0.7046
62716SOL     OW92958   3.810  12.465  12.275 -0.3909 -0.7922  0.3974
62716SOL    HW192959   3.775  12.400  12.214 -0.4390  0.6792 -1.2017
62716SOL    HW292960   3.859  12.413  12.339 -0.3767 -2.3973 -0.8483
62717SOL     OW92961   6.758   0.919   5.601  0.2899 -0.0447 -0.7394
62717SOL    HW192962   6.741   0.934   5.508 -0.6087  0.5731 -0.4865
62717SOL    HW292963   6.838   0.969   5.619  0.8805 -0.7514 -1.3297
62718SOL     OW92964   9.834   5.396   4.141 -0.2009 -0.2985 -0.2073
62718SOL    HW192965   9.752   5.445   4.140  0.8538  1.9136  3.1520
62718SOL    HW292966   9.895   5.450   4.090  0.3869  0.9226  1.6596
62719SOL     OW92967  10.097  12.636   1.254 -0.3958  0.1869  0.4433
62719SOL    HW192968  10.138  12.716   1.287 -0.3045  0.2117  0.2712
62719SOL    HW292969  10.115  12.570   1.321 -0.6003  0.3460  0.6563
62720SOL     OW92970   7.893   4.080   2.253 -0.1217  0.0211 -0.0812
62720SOL    HW192971   7.904   4.172   2.274  1.5467 -0.1677 -0.0489
62720SOL    HW292972   7.830   4.080   2.180  1.8423  1.4103 -1.8864
62721SOL     OW92973   0.803   4.398   1.304  0.2649  0.2248 -0.3841
62721SOL    HW192974   0.774   4.325   1.248 -0.1458 -0.4294  0.6475
62721SOL    HW292975   0.744   4.470   1.282  0.4691  0.1572 -1.1896
62722SOL     OW92976   2.071   3.187   4.949 -0.2306 -0.5820  0.4243
62722SOL    HW192977   2.139   3.178   5.016  0.8374 -0.4831 -0.6133
62722SOL    HW292978   2.116   3.169   4.867 -1.6256 -1.1397 -0.2384
62723SOL     OW92979   7.700   3.261   9.199 -0.4292 -0.3492 -0.1593
62723SOL    HW192980   7.782   3.286   9.243 -1.6650  0.2294  1.9545
62723SOL    HW292981   7.694   3.166   9.211 -0.9570 -0.1446  1.3730
62724SOL     OW92982   1.324   4.234   7.291  0.2251 -0.4676 -0.8775
62724SOL    HW192983   1.284   4.320   7.293 -1.1455 -1.0641 -1.2751
62724SOL    HW292984   1.304   4.195   7.376 -2.9004 -1.9418 -2.1212
62725SOL     OW92985   1.905   0.810   8.811 -0.2153 -0.7124 -0.2755
62725SOL    HW192986   1.907   0.716   8.830  1.7529 -0.3639  1.8125
62725SOL    HW292987   1.867   0.849   8.890  0.1411  0.3098 -0.5907
62726SOL     OW92988   0.407  12.343   9.228 -0.1069 -0.6772  0.0904
62726SOL    HW192989   0.467  12.280   9.268 -0.0471 -0.8682 -0.3024
62726SOL    HW292990   0.405  12.416   9.290 -2.5185 -2.2743  2.0976
62727SOL     OW92991   4.114  11.370  10.248  0.7207 -0.1208 -0.2595
62727SOL    HW192992   4.195  11.320  10.257 -0.3192 -2.1607 -1.4616
62727SOL    HW292993   4.094  11.366  10.154 -1.9246 -1.6594  0.2724
62728SOL     OW92994  11.686   6.949   4.120  0.2911  0.3043  0.2619
62728SOL    HW192995  11.651   7.037   4.129  1.1799  0.8230 -1.1114
62728SOL    HW292996  11.622   6.903   4.065  0.1929  0.2943  0.3821
62729SOL     OW92997   5.395  12.394  12.172  0.6717  0.1723 -0.5571
62729SOL    HW192998   5.437  12.411  12.256 -1.0664 -0.9432  0.6108
62729SOL    HW292999   5.461  12.417  12.107  1.5467  2.6331  1.0307
62730SOL     OW93000  12.213   5.713   8.108 -0.7848 -0.2384  0.1027
62730SOL    HW193001  12.179   5.644   8.164  0.8948 -1.3882 -0.2385
62730SOL    HW293002  12.280   5.671   8.054  0.0961  1.5818 -0.3204
62731SOL     OW93003  11.215   9.194  10.970 -0.0631  0.3314  0.1107
62731SOL    HW193004  11.223   9.289  10.970 -1.0639  0.4356  0.4296
62731SOL    HW293005  11.180   9.173  10.884  0.8961  0.1684 -0.2462
62732SOL     OW93006   1.736   3.783  12.354  0.7236 -0.1228  0.5934
62732SOL    HW193007   1.668   3.751  12.295  0.9846  0.2573  0.0702
62732SOL    HW293008   1.748   3.713  12.418  0.9866 -0.8913 -0.2752
62733SOL     OW93009   3.356   4.061   8.140 -0.2241  0.0710 -0.0542
62733SOL    HW193010   3.334   3.981   8.091  0.9986 -0.1789 -0.2311
62733SOL    HW293011   3.312   4.050   8.225 -2.6205  0.6489 -1.1484
62734SOL     OW93012   0.795   2.219   6.692 -0.0908 -0.4572 -0.0198
62734SOL    HW193013   0.831   2.258   6.612  0.2719 -0.1065  0.3066
62734SOL    HW293014   0.702   2.244   6.691 -0.2238 -0.9689 -0.6325
62735SOL     OW93015   7.333   5.993   3.447  0.2216 -0.2611 -0.1707
62735SOL    HW193016   7.404   5.938   3.415 -0.3824 -1.0331 -0.1957
62735SOL    HW293017   7.341   5.989   3.542  0.2984 -0.2246 -0.1752
62736SOL     OW93018  10.105   9.207   6.963 -0.2099  0.3408 -0.4602
62736SOL    HW193019  10.200   9.206   6.951 -0.3866  0.9018 -2.1627
62736SOL    HW293020  10.070   9.162   6.886 -1.3935  1.7586 -0.8042
62737SOL     OW93021  10.426   2.957  10.663  0.1286  0.0389 -0.3020
62737SOL    HW193022  10.378   3.037  10.640  0.1211 -0.0131 -0.4663
62737SOL    HW293023  10.365   2.907  10.717  1.2198  1.6183  2.6740
62738SOL     OW93024  12.012  11.251  10.965 -0.5861 -0.1651  0.2949
62738SOL    HW193025  12.052  11.281  11.047 -0.7813 -0.4891  0.5135
62738SOL    HW293026  12.053  11.304  10.897  0.0265 -0.3157  0.5401
62739SOL     OW93027  12.336  11.582   2.679  0.3972 -0.0067  0.9653
62739SOL    HW193028  12.298  11.601   2.764  1.4414 -1.1651  1.7201
62739SOL    HW293029  12.342  11.668   2.636 -0.1563  0.5898  2.0392
62740SOL     OW93030  11.220   2.383   6.228  0.6071  0.1050  0.3092
62740SOL    HW193031  11.202   2.420   6.314  1.9325  4.0006 -0.8325
62740SOL    HW293032  11.150   2.417   6.172  0.0698 -1.9057 -0.3356
62741SOL     OW93033   5.202   3.758   1.699  0.3274 -0.3036 -0.3196
62741SOL    HW193034   5.132   3.819   1.720 -0.4438 -1.3886  0.3608
62741SOL    HW293035   5.272   3.779   1.761 -0.7657 -1.4825  1.3916
62742SOL     OW93036   2.141   1.128   1.630  0.3300 -0.1749  0.0452
62742SOL    HW193037   2.121   1.204   1.575  1.2746  0.8695  1.0900
62742SOL    HW293038   2.235   1.115   1.620  0.2215 -1.0546  0.0838
62743SOL     OW93039   4.305   0.485   4.410 -0.0645  0.1861  0.0520
62743SOL    HW193040   4.264   0.571   4.401 -1.0612 -0.1694  0.9878
62743SOL    HW293041   4.232   0.423   4.402  0.5480 -0.5524  0.0350
62744SOL     OW93042   6.822   6.825  10.710  0.1872  0.4579 -0.6649
62744SOL    HW193043   6.755   6.768  10.748  0.1772  0.1947 -1.0789
62744SOL    HW293044   6.795   6.914  10.736  1.5848  0.1756  2.2060
62745SOL     OW93045   6.620   1.070   9.047  0.1962  0.2732  0.1130
62745SOL    HW193046   6.526   1.057   9.034  0.2006 -0.6888  0.9527
62745SOL    HW293047   6.641   1.017   9.123  1.3582  0.7796  0.1564
62746SOL     OW93048   8.427   9.481   3.680 -0.0215  0.2839  0.2495
62746SOL    HW193049   8.432   9.465   3.774  0.2421  0.1665  0.2166
62746SOL    HW293050   8.338   9.455   3.655  0.0443 -0.0811  0.3924
62747SOL     OW93051   0.601   4.956   0.632 -0.2168 -0.5326  0.3747
62747SOL    HW193052   0.684   4.909   0.623  1.0410  1.3749  1.3164
62747SOL    HW293053   0.607   5.001   0.716 -1.2647  1.3878 -0.4884
62748SOL     OW93054  12.064  10.308   0.926 -0.4166  0.0350 -0.4848
62748SOL    HW193055  11.988  10.282   0.978  0.9950 -1.4151  0.9439
62748SOL    HW293056  12.139  10.289   0.982  0.9934  2.6897 -1.2995
62749SOL     OW93057   0.021  12.301   9.625 -0.1835 -0.0686  0.3526
62749SOL    HW193058   0.108  12.338   9.610 -0.5855  0.2310 -1.5707
62749SOL    HW293059  -0.037  12.377   9.630 -0.4097 -0.2848  1.0384
62750SOL     OW93060   7.531   3.725   5.618 -0.0488 -0.0737  0.0071
62750SOL    HW193061   7.607   3.759   5.666  0.1149 -0.1104 -0.2232
62750SOL    HW293062   7.456   3.767   5.658  0.1297  0.3076 -0.0585
62751SOL     OW93063  11.123   5.873   9.212 -0.0154  0.4090  0.1668
62751SOL    HW193064  11.156   5.814   9.279 -0.6880  0.0657  0.2014
62751SOL    HW293065  11.031   5.886   9.234 -0.0553  0.8951 -0.2569
62752SOL     OW93066   4.683   6.315   1.193  0.8566 -0.1573 -0.6084
62752SOL    HW193067   4.607   6.260   1.172  0.5401 -0.4091  1.1013
62752SOL    HW293068   4.649   6.382   1.252  2.0611 -0.6339  0.6707
62753SOL     OW93069  11.164   2.192  11.704 -0.1040 -0.1915  1.2298
62753SOL    HW193070  11.239   2.151  11.661 -0.4500  0.6204 -0.1988
62753SOL    HW293071  11.175   2.285  11.688 -1.5283 -0.0722  0.8163
62754SOL     OW93072   0.469  12.530   5.413  0.2883 -0.3636  0.2536
62754SOL    HW193073   0.476  12.569   5.326  1.6217 -3.4115 -1.1400
62754SOL    HW293074   0.539  12.571   5.463  0.4932  0.3170 -0.5536
62755SOL     OW93075   4.005   8.966   2.183 -0.4104  0.0963  0.3489
62755SOL    HW193076   3.988   8.899   2.117  0.5421 -0.2390  0.4356
62755SOL    HW293077   4.096   8.990   2.171 -0.5493  0.8886  0.7764
62756SOL     OW93078   3.295   2.529   2.592 -1.1918 -0.6500  0.0400
62756SOL    HW193079   3.277   2.468   2.521 -2.6169  1.5725 -1.6355
62756SOL    HW293080   3.208   2.554   2.624 -0.8499  2.2514 -0.9781
62757SOL     OW93081  10.970  10.227  12.368 -0.2017 -0.0609  1.0192
62757SOL    HW193082  10.962  10.157  12.432  0.9803 -1.8512 -0.6509
62757SOL    HW293083  10.941  10.187  12.286  1.2340  1.1302 -0.1338
62758SOL     OW93084   7.705   1.598   8.857 -0.5870  0.0029  0.0956
62758SOL    HW193085   7.658   1.613   8.775 -0.5967 -0.6055 -0.0182
62758SOL    HW293086   7.716   1.685   8.895 -1.5531  0.1817 -0.0183
62759SOL     OW93087  10.874   3.584   1.917 -0.1577 -0.5024  0.3090
62759SOL    HW193088  10.803   3.521   1.905  0.1718 -0.6773 -0.8547
62759SOL    HW293089  10.875   3.636   1.837  1.7461 -1.2606 -0.2165
62760SOL     OW93090   8.629   6.089   5.360 -0.2980  0.7011  0.3714
62760SOL    HW193091   8.594   6.001   5.375  1.1003 -0.2100 -1.2698
62760SOL    HW293092   8.641   6.125   5.447 -0.1716 -1.0707  1.1343
62761SOL     OW93093  12.484   1.234  11.672 -0.2147  0.6872  0.1998
62761SOL    HW193094  12.556   1.200  11.618  1.7068  0.4967  2.6857
62761SOL    HW293095  12.424   1.160  11.682 -0.1712  0.4822 -0.9270
62762SOL     OW93096  10.788   5.316   2.832 -0.0203  0.1446 -0.8618
62762SOL    HW193097  10.733   5.274   2.898  2.4749 -1.8112  0.1574
62762SOL    HW293098  10.809   5.246   2.770  1.5713  0.6949 -0.9993
62763SOL     OW93099   9.697   9.159   9.654 -0.2590  0.0140 -0.0756
62763SOL    HW193100   9.776   9.122   9.613 -0.1579 -0.3020  0.3931
62763SOL    HW293101   9.727   9.240   9.694 -0.0025 -0.4489  0.7042
62764SOL     OW93102   4.054   7.452  12.309 -0.0742 -0.2805  0.3257
62764SOL    HW193103   4.005   7.372  12.290 -0.5632  0.2434 -0.7446
62764SOL    HW293104   4.078   7.486  12.222  0.3316  0.5933  0.7731
62765SOL     OW93105   8.303   6.906   7.511 -0.4118 -0.3164 -0.0642
62765SOL    HW193106   8.334   6.894   7.601 -1.5933  0.5774  0.4923
62765SOL    HW293107   8.382   6.907   7.458  0.3915  0.2776  1.1027
62766SOL     OW93108  11.533   2.568   8.505 -0.0878 -0.2292  0.0901
62766SOL    HW193109  11.492   2.629   8.444  0.6949  0.5826  0.3571
62766SOL    HW293110  11.462   2.543   8.565 -0.1646  1.4106  0.7547
62767SOL     OW93111  11.354   1.349   1.501  0.0504 -0.8760  0.3203
62767SOL    HW193112  11.383   1.372   1.590 -1.1242  0.5118  0.3752
62767SOL    HW293113  11.266   1.386   1.494  0.5223 -0.0020 -1.7866
62768SOL     OW93114   5.777  11.262   5.293  0.6667 -0.1726  0.1543
62768SOL    HW193115   5.774  11.280   5.386  0.7651 -0.9799  0.3250
62768SOL    HW293116   5.835  11.186   5.285  2.6201  1.3245 -0.8052
62769SOL     OW93117   4.151   0.344   0.121  0.2577  0.4800 -0.1800
62769SOL    HW193118   4.096   0.394   0.060  0.4775 -0.3185 -1.0708
62769SOL    HW293119   4.089   0.304   0.182  0.1027  2.0353  0.7197
62770SOL     OW93120   5.682   1.607   7.411  0.4320 -0.6668  0.2142
62770SOL    HW193121   5.712   1.517   7.411  1.1075 -0.4492  0.2463
62770SOL    HW293122   5.704   1.640   7.498  2.6577  0.3024 -0.6342
62771SOL     OW93123   2.965   7.587   2.947 -0.1967 -0.1639 -0.7676
62771SOL    HW193124   2.951   7.602   2.853 -0.0398 -1.8493 -1.0887
62771SOL    HW293125   2.905   7.516   2.969  0.2506 -0.2348  0.2769
62772SOL     OW93126   8.601   9.902   3.235  0.1998 -0.0299 -0.2724
62772SOL    HW193127   8.542   9.857   3.174  2.1770 -1.1171 -1.5297
62772SOL    HW293128   8.646   9.831   3.281  0.3739  0.7627  0.8102
62773SOL     OW93129   1.391  10.157  10.389 -0.1298 -0.1167 -0.3852
62773SOL    HW193130   1.360  10.209  10.463  1.1403  0.3245 -0.1550
62773SOL    HW293131   1.397  10.219  10.317  1.1582  0.0305 -0.1724
62774SOL     OW93132  12.414   8.167   9.448  0.1409  0.0722  0.3255
62774SOL    HW193133  12.417   8.260   9.423 -0.3118  0.3045  1.1174
62774SOL    HW293134  12.405   8.121   9.364  0.2810  0.7419 -0.0698
62775SOL     OW93135   7.903   5.906   6.780  0.5967  0.7235  0.2518
62775SOL    HW193136   7.880   5.993   6.814  0.9628  1.1194 -0.4878
62775SOL    HW293137   7.890   5.913   6.685 -1.6523 -0.7411  0.3855
62776SOL     OW93138   1.400   4.473   8.686  0.0767 -0.0791 -0.0381
62776SOL    HW193139   1.459   4.523   8.743 -0.3368  1.1345 -0.6346
62776SOL    HW293140   1.337   4.433   8.745  0.3384  0.2151  0.4476
62777SOL     OW93141   8.932   2.872   0.114 -0.6640  0.7877  0.6676
62777SOL    HW193142   8.840   2.879   0.091 -0.8194  0.4623  1.1676
62777SOL    HW293143   8.978   2.864   0.030 -1.1378  0.4142  0.4444
62778SOL     OW93144   5.621   8.575   4.666  0.4757 -0.0759  0.3851
62778SOL    HW193145   5.674   8.591   4.588 -1.5352 -0.0774 -1.0637
62778SOL    HW293146   5.630   8.480   4.681  1.7926  0.1053  0.9110
62779SOL     OW93147   1.110   5.015   7.936  0.2560  0.2997  0.5646
62779SOL    HW193148   1.168   5.054   7.870 -0.1986 -0.0631 -0.0654
62779SOL    HW293149   1.044   4.968   7.885 -2.0034  2.5738  1.1441
62780SOL     OW93150  10.451   0.079  11.275 -0.3347  0.1121  0.2955
62780SOL    HW193151  10.423   0.046  11.189 -1.4900  0.7171  0.4248
62780SOL    HW293152  10.376   0.063  11.332 -0.5934  2.0850  0.5789
62781SOL     OW93153  12.165   5.571   5.963  0.1641  0.0458 -0.8312
62781SOL    HW193154  12.259   5.566   5.979  0.2833  2.8393 -0.2212
62781SOL    HW293155  12.157   5.624   5.884 -0.9026 -1.5169 -1.8366
62782SOL     OW93156   0.190   3.122   0.797 -0.5576  0.0005 -0.0340
62782SOL    HW193157   0.253   3.059   0.832 -2.7192 -1.3558  1.6810
62782SOL    HW293158   0.165   3.176   0.872 -0.2332  1.6539 -1.0572
62783SOL     OW93159   8.901   8.097   2.024 -0.5555  0.6502  0.5059
62783SOL    HW193160   8.885   8.113   1.931 -0.9092  1.0514  0.6310
62783SOL    HW293161   8.814   8.080   2.061 -0.2605 -1.0318  0.4950
62784SOL     OW93162   4.521   4.194   1.275 -0.5456  0.6870  0.2255
62784SOL    HW193163   4.560   4.278   1.252 -0.2373  0.2474 -0.9195
62784SOL    HW293164   4.543   4.136   1.202 -2.6482  0.2136 -0.0987
62785SOL     OW93165   0.406  11.206  11.651 -0.0895 -0.1451 -0.4728
62785SOL    HW193166   0.376  11.296  11.638 -0.0674  0.3648  2.3987
62785SOL    HW293167   0.330  11.153  11.628 -1.1991  0.8207  0.7554
62786SOL     OW93168   0.335   7.380   6.243  0.1814  0.4191 -0.3288
62786SOL    HW193169   0.346   7.339   6.328 -1.5719 -2.2378 -1.2726
62786SOL    HW293170   0.381   7.464   6.251  3.3383 -1.3267  1.9858
62787SOL     OW93171  11.061   2.865   9.626  0.6484  0.1184 -0.2648
62787SOL    HW193172  11.093   2.954   9.643  0.1435  0.0047  1.4502
62787SOL    HW293173  11.012   2.842   9.705 -1.8387 -0.5265 -1.8789
62788SOL     OW93174   4.407   5.531   0.194  0.3062  0.7884 -0.3496
62788SOL    HW193175   4.425   5.452   0.143 -0.3841  1.2056 -1.2835
62788SOL    HW293176   4.389   5.500   0.283  1.1847  0.0102 -0.4361
62789SOL     OW93177   9.631   2.329   7.947 -0.0049 -0.2336 -0.0855
62789SOL    HW193178   9.647   2.416   7.911  0.1270 -0.3887 -0.4153
62789SOL    HW293179   9.562   2.341   8.012  0.1468  0.1464  0.0074
62790SOL     OW93180   3.607   9.405   0.941 -0.2864  0.4365  0.1766
62790SOL    HW193181   3.681   9.359   0.980 -1.1074 -1.2827 -0.2130
62790SOL    HW293182   3.536   9.341   0.941 -0.9441  1.0546 -2.1171
62791SOL     OW93183  11.387   6.915   4.273  0.0304  0.2175  0.1283
62791SOL    HW193184  11.346   7.001   4.269 -3.2566 -1.1778  0.5397
62791SOL    HW293185  11.428   6.904   4.187 -1.8509  1.1605 -0.9528
62792SOL     OW93186   5.584   8.681  10.835  0.4346 -0.8439 -0.5947
62792SOL    HW193187   5.572   8.600  10.784 -0.2997 -0.1390 -1.5774
62792SOL    HW293188   5.670   8.670  10.876  1.2943 -1.2458 -2.3828
62793SOL     OW93189   8.207   5.155   3.150 -0.4503 -0.0998  0.3093
62793SOL    HW193190   8.266   5.204   3.207 -1.3485  0.3718  0.8747
62793SOL    HW293191   8.133   5.133   3.207 -1.2580  0.1743 -0.6041
62794SOL     OW93192   6.784   3.927  11.956  0.2851 -0.1892 -0.6102
62794SOL    HW193193   6.748   3.889  12.036  0.1760  1.8890  0.3906
62794SOL    HW293194   6.765   4.020  11.963  2.4529  0.4146 -1.9037
62795SOL     OW93195   3.864   6.836   3.614 -0.2009 -0.7329  0.4332
62795SOL    HW193196   3.878   6.830   3.520  0.7621  1.1151  0.4084
62795SOL    HW293197   3.934   6.784   3.653 -0.7648 -1.7278  0.1408
62796SOL     OW93198  11.730  11.775   8.066 -0.3837 -0.3482 -0.5659
62796SOL    HW193199  11.647  11.746   8.103 -0.2573 -0.7619 -0.6021
62796SOL    HW293200  11.790  11.775   8.141 -0.5507  0.5003 -0.4249
62797SOL     OW93201   5.913   6.877   3.097  0.1487  0.1730  0.3312
62797SOL    HW193202   5.888   6.790   3.130  0.1409  0.2936  0.6438
62797SOL    HW293203   6.004   6.888   3.125  1.2016 -1.0068 -2.3145
62798SOL     OW93204   0.656   5.957   6.016  0.2542 -0.0623 -0.2582
62798SOL    HW193205   0.654   5.873   5.971  0.2077  0.5680 -1.4730
62798SOL    HW293206   0.749   5.974   6.031  0.3573  0.2961 -1.2469
62799SOL     OW93207   9.712  10.593   7.053 -0.3789 -0.0578  0.3863
62799SOL    HW193208   9.800  10.628   7.040 -0.1816 -0.5880  0.2781
62799SOL    HW293209   9.657  10.643   6.993  0.0255 -0.4341 -0.3017
62800SOL     OW93210  10.641   1.382  11.336  0.0776 -0.3841 -0.2326
62800SOL    HW193211  10.664   1.364  11.245  1.6778 -0.0628  0.0830
62800SOL    HW293212  10.610   1.298  11.370 -0.0370 -0.6265 -0.9150
62801SOL     OW93213   7.020   5.034   2.511 -0.0849 -0.0391 -0.1605
62801SOL    HW193214   7.087   5.023   2.443  0.3160 -0.8561  0.3558
62801SOL    HW293215   6.988   4.946   2.529 -0.5765  0.2290  0.3277
62802SOL     OW93216   7.024   5.032   5.662 -0.0264  0.2786 -0.0878
62802SOL    HW193217   6.947   5.045   5.607  0.8275 -0.6102 -1.5742
62802SOL    HW293218   7.092   5.086   5.622 -0.0127  1.5322  1.5670
62803SOL     OW93219   5.793   1.694   7.629  0.2972 -0.5601  0.0894
62803SOL    HW193220   5.741   1.717   7.706 -0.6577  0.4323 -0.8119
62803SOL    HW293221   5.864   1.640   7.663  0.5208  0.7279  1.8325
62804SOL     OW93222   9.207   1.641   7.184 -0.0982  0.6776 -0.2764
62804SOL    HW193223   9.251   1.567   7.228 -0.1557  1.2338  0.7503
62804SOL    HW293224   9.243   1.718   7.227  0.8824  1.3346 -2.1728
62805SOL     OW93225  11.128   7.277   4.658 -0.0741  0.5854 -0.0396
62805SOL    HW193226  11.142   7.220   4.733  0.5206  0.1044 -0.5040
62805SOL    HW293227  11.050   7.241   4.615  0.3622  0.0422 -0.3920
62806SOL     OW93228   8.149  10.629   9.980  0.4387 -0.1092  0.0317
62806SOL    HW193229   8.227  10.620  10.034 -0.3830  0.4404  1.3744
62806SOL    HW293230   8.082  10.578  10.024  0.2316 -1.3221 -1.5892
62807SOL     OW93231  10.719   8.582   1.283 -0.1221  0.2171 -0.2779
62807SOL    HW193232  10.737   8.673   1.261 -2.3544  0.5515 -1.0245
62807SOL    HW293233  10.661   8.552   1.212 -0.7688 -1.2654  0.8295
62808SOL     OW93234  10.896   2.326   6.249  0.2209  0.2226 -0.0352
62808SOL    HW193235  10.866   2.395   6.191 -1.1133  4.1290  4.5880
62808SOL    HW293236  10.988   2.346   6.265  1.3713 -2.4390 -2.4898
62809SOL     OW93237  11.568  10.751   2.953 -0.1639  0.0416  0.2332
62809SOL    HW193238  11.660  10.739   2.931 -0.4546  0.6067 -1.3584
62809SOL    HW293239  11.564  10.838   2.993 -0.0483  0.0858  0.1480
62810SOL     OW93240   0.595  10.695  12.304  0.2142  0.0825 -0.0028
62810SOL    HW193241   0.527  10.628  12.305 -0.0240  0.3213  0.0061
62810SOL    HW293242   0.609  10.714  12.211 -1.1816  1.4711  0.0157
62811SOL     OW93243   4.234   3.895   6.062 -0.4516  0.0387  0.1119
62811SOL    HW193244   4.327   3.915   6.048 -0.4807 -0.2809 -0.5513
62811SOL    HW293245   4.189   3.940   5.991 -0.7238 -0.5419 -0.0831
62812SOL     OW93246   9.310   8.458  11.667  0.5252 -0.3378 -0.8352
62812SOL    HW193247   9.355   8.526  11.618  2.7169 -1.8933 -1.1308
62812SOL    HW293248   9.237   8.432  11.610  1.2691 -0.0754 -1.9375
62813SOL     OW93249  12.128   7.394  12.198 -0.6922 -0.0463  0.1718
62813SOL    HW193250  12.167   7.392  12.110 -1.4413 -0.8061 -0.1603
62813SOL    HW293251  12.143   7.305  12.232  2.9460  1.1848  2.3590
62814SOL     OW93252   1.332   7.449   3.722 -0.0703 -0.2861 -0.5758
62814SOL    HW193253   1.406   7.406   3.765 -0.7217  0.6799  1.6834
62814SOL    HW293254   1.257   7.428   3.778 -0.6380  2.5695 -0.1163
62815SOL     OW93255   6.854   4.983  12.193 -0.2230  0.8594 -0.0559
62815SOL    HW193256   6.885   4.991  12.283  0.2032 -0.9537 -0.0026
62815SOL    HW293257   6.759   4.978  12.201 -0.0986 -1.3639  0.5254
62816SOL     OW93258  10.532  10.597  11.036 -0.0632 -0.0572  0.4477
62816SOL    HW193259  10.627  10.609  11.037  0.1706 -1.5130 -0.6351
62816SOL    HW293260  10.502  10.644  10.959 -0.0609 -0.5120  0.1637
62817SOL     OW93261   7.476   0.064   0.448 -0.0380 -0.2573 -0.2226
62817SOL    HW193262   7.511   0.113   0.374  1.7296 -0.5628  0.3611
62817SOL    HW293263   7.432  -0.012   0.409  0.8129 -0.3822 -0.9705
62818SOL     OW93264   0.474   2.226  11.765 -0.3138  0.1442 -0.0737
62818SOL    HW193265   0.426   2.169  11.705  0.7578 -0.0388 -0.7827
62818SOL    HW293266   0.527   2.167  11.818 -3.0424  0.0521  2.8640
62819SOL     OW93267  11.864  11.991  10.594 -0.4442  0.2319  0.3252
62819SOL    HW193268  11.948  11.951  10.618 -0.9731 -0.9969  0.1600
62819SOL    HW293269  11.876  12.019  10.503  0.7773  2.8107  1.1594
62820SOL     OW93270   5.530   7.532   1.615 -0.2913  0.8043 -0.3954
62820SOL    HW193271   5.558   7.453   1.661 -0.1725  1.0744  0.0038
62820SOL    HW293272   5.611   7.570   1.582 -0.1860  1.4517  0.5425
62821SOL     OW93273  12.445   5.500   3.953  0.3206  0.1663 -0.3050
62821SOL    HW193274  12.401   5.499   4.039  0.7435  1.2990 -0.0590
62821SOL    HW293275  12.489   5.416   3.948 -2.3938 -1.3340 -0.8580
62822SOL     OW93276   5.659   1.386  10.465  0.5991 -0.3124 -0.9856
62822SOL    HW193277   5.608   1.421  10.392  0.5274  0.2547 -0.6625
62822SOL    HW293278   5.662   1.457  10.529 -0.3223 -1.1994  0.0772
62823SOL     OW93279   5.719   8.239   8.627 -0.6180  0.0366 -0.2704
62823SOL    HW193280   5.766   8.313   8.664  2.8284 -1.4849 -1.1664
62823SOL    HW293281   5.748   8.164   8.678 -0.3747 -1.2591 -2.1797
62824SOL     OW93282   0.621   9.203   5.957 -0.4845 -0.0393 -0.4027
62824SOL    HW193283   0.574   9.257   6.020  0.0211 -0.2104  0.1317
62824SOL    HW293284   0.695   9.256   5.929 -0.3884 -0.1806 -0.4203
62825SOL     OW93285   6.329   8.024   6.308 -0.3226 -0.3720 -0.3770
62825SOL    HW193286   6.419   8.056   6.307  0.0538 -1.2549  1.3290
62825SOL    HW293287   6.279   8.090   6.259  1.0478  0.7598 -0.3107
62826SOL     OW93288  11.964   7.555  10.789  0.5730 -0.4584 -0.3354
62826SOL    HW193289  11.887   7.611  10.792  0.4740 -0.5019 -1.5022
62826SOL    HW293290  12.034   7.613  10.757  0.7176 -0.7229 -0.5072
62827SOL     OW93291   1.835   3.575   0.961 -0.2366 -0.5730  0.5424
62827SOL    HW193292   1.810   3.539   1.047 -0.3897 -1.7252  0.0394
62827SOL    HW293293   1.795   3.515   0.898  1.5858 -0.9695 -0.3122
62828SOL     OW93294   3.304   8.385   2.146 -0.1305  0.5000 -0.1253
62828SOL    HW193295   3.240   8.403   2.077 -1.4328  0.8048  1.1132
62828SOL    HW293296   3.260   8.324   2.204  1.1438 -0.1592  0.1730
62829SOL     OW93297   2.049   7.309   1.467  0.2380  0.1350  0.0005
62829SOL    HW193298   1.977   7.255   1.501 -0.5667  2.0827  1.5643
62829SOL    HW293299   2.122   7.292   1.527 -0.1892  1.1449  0.8373
62830SOL     OW93300   1.569   2.140   7.235 -0.1513 -0.4594 -0.1121
62830SOL    HW193301   1.512   2.189   7.176  1.3108  1.2669 -0.1856
62830SOL    HW293302   1.593   2.204   7.303  0.8391 -1.4255  0.4827
62831SOL     OW93303   2.434   2.736  12.377 -0.0547 -0.2155  0.2262
62831SOL    HW193304   2.384   2.662  12.414 -1.3125  1.2512  1.6195
62831SOL    HW293305   2.498   2.757  12.445 -0.2284  0.4800  0.1743
62832SOL     OW93306   8.924   3.328   4.165  0.4383 -0.8295 -0.2134
62832SOL    HW193307   8.951   3.272   4.238 -2.1676 -1.1775  0.5879
62832SOL    HW293308   8.836   3.299   4.143  0.3729  0.6330 -2.1702
62833SOL     OW93309  11.197   3.595   4.426 -0.3183  0.1244  0.2273
62833SOL    HW193310  11.185   3.549   4.343 -1.8487  0.8747  0.0044
62833SOL    HW293311  11.212   3.526   4.490 -0.2042 -0.5216 -0.4820
62834SOL     OW93312   6.832   4.847   0.089  0.5207  0.0394 -0.7269
62834SOL    HW193313   6.895   4.777   0.107  1.4534  0.3262 -2.5755
62834SOL    HW293314   6.877   4.904   0.026 -1.1538  0.9025 -1.2131
62835SOL     OW93315  11.887   2.469   9.244 -0.0951 -0.2367 -0.1724
62835SOL    HW193316  11.847   2.548   9.209 -1.6380 -0.7586  0.3257
62835SOL    HW293317  11.878   2.477   9.339  1.5849 -0.0902  0.0033
62836SOL     OW93318   1.762   9.941   4.286  0.0749 -0.0759 -0.4278
62836SOL    HW193319   1.739   9.872   4.348  1.6705  0.0392  0.3565
62836SOL    HW293320   1.712  10.017   4.314 -0.8278 -0.5939 -0.6001
62837SOL     OW93321   6.155   2.653   4.316  0.3544  0.7088 -0.1676
62837SOL    HW193322   6.117   2.698   4.240 -2.8790  0.1385  0.9787
62837SOL    HW293323   6.123   2.703   4.392  1.4293 -0.2105  0.9284
62838SOL     OW93324   8.414  11.135   6.589  0.0451 -0.6534  0.5533
62838SOL    HW193325   8.483  11.090   6.637  1.4029  0.0165 -0.7080
62838SOL    HW293326   8.444  11.226   6.583  0.7503 -0.9874 -2.8651
62839SOL     OW93327   2.826   1.976   7.101 -0.0978 -0.0737 -0.6187
62839SOL    HW193328   2.907   2.018   7.131 -1.4801  2.4007 -0.0558
62839SOL    HW293329   2.821   1.895   7.152  0.8591  0.8816  1.1114
62840SOL     OW93330   7.619  10.116   0.069  0.8803 -1.3799 -0.0210
62840SOL    HW193331   7.561  10.040   0.076  0.3411 -1.0919 -1.1732
62840SOL    HW293332   7.706  10.081   0.088  0.3898 -1.8523  1.5549
62841SOL     OW93333   0.599   8.583  10.864 -0.1025 -0.0917  0.2920
62841SOL    HW193334   0.566   8.623  10.944 -0.3490 -3.0004  1.8090
62841SOL    HW293335   0.522   8.571  10.809 -0.1345  0.8725  0.1266
62842SOL     OW93336   0.798   2.750   9.123 -0.4928 -0.3691  0.2970
62842SOL    HW193337   0.872   2.758   9.063 -0.2452 -1.0067  0.5054
62842SOL    HW293338   0.772   2.840   9.140 -0.5840 -0.1800 -0.7753
62843SOL     OW93339   5.437  10.901   5.719  0.3950 -0.0435  0.3822
62843SOL    HW193340   5.347  10.878   5.744  0.0044  0.6501 -0.3135
62843SOL    HW293341   5.473  10.822   5.680  0.0100 -0.2735  0.4940
62844SOL     OW93342   0.992   8.260   5.302  0.2348  0.0939  0.5681
62844SOL    HW193343   1.018   8.351   5.288 -0.5613  0.3312  0.5877
62844SOL    HW293344   0.920   8.266   5.366  0.1496 -0.5443  0.5306
62845SOL     OW93345  11.149   7.051   4.856  0.0288  0.5923 -0.0789
62845SOL    HW193346  11.240   7.022   4.850  0.3003  1.2478  0.6689
62845SOL    HW293347  11.098   6.976   4.825  0.8341  0.3556 -0.8932
62846SOL     OW93348   6.769   7.251   3.458 -0.3469 -0.0157  0.2917
62846SOL    HW193349   6.680   7.286   3.462 -0.0020  1.2491 -1.6275
62846SOL    HW293350   6.791   7.251   3.365  1.5040 -0.7385  0.6818
62847SOL     OW93351   1.949  10.613   0.200  0.3258 -0.9805 -0.2573
62847SOL    HW193352   2.019  10.605   0.266 -0.6506 -0.6902  0.8565
62847SOL    HW293353   1.958  10.534   0.146  3.9801  0.8292 -2.7159
62848SOL     OW93354   6.827   1.682   1.750 -0.3080  0.8013 -0.5335
62848SOL    HW193355   6.818   1.631   1.670  0.1951  0.1882 -0.2108
62848SOL    HW293356   6.839   1.772   1.721  0.5935  0.4865 -1.1719
62849SOL     OW93357   0.472   8.722   5.803  0.6402 -0.0766  0.8311
62849SOL    HW193358   0.539   8.790   5.810  1.4538 -0.7482 -0.0956
62849SOL    HW293359   0.465   8.704   5.709 -0.9249  0.0368  0.8895
62850SOL     OW93360   3.557   5.835   7.011  0.1243 -0.0484  0.1642
62850SOL    HW193361   3.477   5.866   6.968  0.2296  0.7816  0.5501
62850SOL    HW293362   3.533   5.750   7.047  0.0041 -0.7384 -1.4406
62851SOL     OW93363  10.700   0.686   1.389  0.7615 -0.2323 -0.1314
62851SOL    HW193364  10.723   0.684   1.482 -0.1333 -3.3373  0.1354
62851SOL    HW293365  10.780   0.659   1.343  0.8562  0.1073 -0.1672
62852SOL     OW93366  11.036   0.597  10.092  0.7106 -0.0630 -0.5086
62852SOL    HW193367  11.045   0.504  10.073 -0.0396 -0.0087 -1.1979
62852SOL    HW293368  11.125   0.632  10.079  1.3292 -0.8961  1.1972
62853SOL     OW93369   5.578   1.141   7.942  1.0050  0.1822  0.2434
62853SOL    HW193370   5.523   1.098   7.877 -2.7631 -0.1171  3.3179
62853SOL    HW293371   5.547   1.232   7.944  2.2041  0.6112  0.5672
62854SOL     OW93372   5.564   6.563  12.162 -0.1157  0.6665  0.5669
62854SOL    HW193373   5.507   6.575  12.238 -0.2395 -0.4195  0.6679
62854SOL    HW293374   5.625   6.636  12.166 -1.4548  1.8291  0.4822
62855SOL     OW93375   8.467   8.840  12.144  0.3797 -0.5834 -0.1403
62855SOL    HW193376   8.399   8.885  12.094 -0.3222 -0.4816  0.8786
62855SOL    HW293377   8.486   8.761  12.093 -1.9983 -1.6965  0.5397
62856SOL     OW93378   2.562   6.228   6.313 -0.1404  0.4285  0.8649
62856SOL    HW193379   2.571   6.236   6.218  1.3854 -0.7919  0.8732
62856SOL    HW293380   2.471   6.250   6.330 -1.6943 -3.3628 -1.3779
62857SOL     OW93381  10.349   6.770   4.544 -0.0325  0.0163 -0.3012
62857SOL    HW193382  10.311   6.845   4.500  0.0574  0.7250  0.7873
62857SOL    HW293383  10.314   6.774   4.633  1.8342  0.1582  0.4688
62858SOL     OW93384   0.328   5.338  10.880 -0.2893 -0.2393 -0.4439
62858SOL    HW193385   0.391   5.345  10.952  1.1148 -2.8015 -1.2861
62858SOL    HW293386   0.338   5.419  10.831  3.0028 -0.8212 -0.9839
62859SOL     OW93387   3.886  11.195   1.265  0.2947 -0.5012 -0.1247
62859SOL    HW193388   3.856  11.113   1.228  0.1549 -0.2197 -0.6407
62859SOL    HW293389   3.829  11.262   1.227  0.1973 -0.1956  0.5316
62860SOL     OW93390   7.518   5.892   5.452 -0.5864  0.4809  0.1676
62860SOL    HW193391   7.474   5.962   5.405 -1.6498  1.0979  2.0045
62860SOL    HW293392   7.609   5.920   5.458 -0.4667  0.4878 -1.2637
62861SOL     OW93393  12.428   5.329   2.193  0.2818 -0.1444  0.2645
62861SOL    HW193394  12.493   5.400   2.193  0.3337 -0.1860 -0.1538
62861SOL    HW293395  12.375   5.345   2.271  0.7253 -0.0458  0.5517
62862SOL     OW93396  12.041   3.769   6.793  0.1138  0.6091  0.1486
62862SOL    HW193397  11.951   3.736   6.792  0.5572 -0.6745  1.1409
62862SOL    HW293398  12.049   3.815   6.877 -0.1082  2.2153 -0.6722
62863SOL     OW93399   0.957   8.988   3.829  0.3578  0.3615  0.0076
62863SOL    HW193400   0.893   8.952   3.890 -0.1808 -0.9431 -1.2490
62863SOL    HW293401   0.931   9.079   3.817 -0.5217  0.1775  0.4650
62864SOL     OW93402   2.813   7.899   2.641 -0.2848  0.0310  0.0778
62864SOL    HW193403   2.757   7.885   2.564 -0.4506 -1.3245  0.4285
62864SOL    HW293404   2.886   7.837   2.629  0.4612  0.8397  0.2991
62865SOL     OW93405   6.360   1.512   1.208  0.5622  0.3730  0.0388
62865SOL    HW193406   6.414   1.455   1.152  0.4643 -0.1852  0.5073
62865SOL    HW293407   6.422   1.549   1.271  0.4916  0.1343  0.2520
62866SOL     OW93408  12.354   9.698  11.629 -0.1092  0.1842  0.3041
62866SOL    HW193409  12.328   9.691  11.537 -0.8289  1.7228  0.3571
62866SOL    HW293410  12.447   9.718  11.626 -0.0787 -0.0001 -0.0833
62867SOL     OW93411   7.828  11.428   8.252 -0.0944 -0.3988  0.2940
62867SOL    HW193412   7.734  11.412   8.241  0.3722 -1.9822 -2.0720
62867SOL    HW293413   7.855  11.364   8.318 -0.2216 -2.0783 -1.1952
62868SOL     OW93414   2.008   9.917  11.662 -0.1528  0.1410 -0.2040
62868SOL    HW193415   1.995  10.012  11.662  1.1864  0.3524 -0.6849
62868SOL    HW293416   1.950   9.884  11.593  0.4068  0.7951 -1.0123
62869SOL     OW93417   6.965  11.556   7.013 -0.0828 -0.3410  0.1849
62869SOL    HW193418   6.886  11.602   6.984 -0.3277  0.4807  1.9970
62869SOL    HW293419   7.031  11.579   6.947 -1.1362 -0.3975 -0.9266
62870SOL     OW93420   7.066   1.607   9.029  0.0388  0.6771  0.7260
62870SOL    HW193421   7.069   1.700   9.008  0.8328  0.0688 -2.4594
62870SOL    HW293422   7.158   1.583   9.042 -0.0301  0.1010  0.1783
62871SOL     OW93423   0.916  10.345   8.968 -0.2635  0.5495 -0.0572
62871SOL    HW193424   0.886  10.346   9.059  1.2444  0.9575  0.4607
62871SOL    HW293425   0.895  10.432   8.935  1.1077  1.1595  0.5907
62872SOL     OW93426   1.959   9.191   7.531 -0.2186 -0.0699 -0.4781
62872SOL    HW193427   2.054   9.200   7.542 -0.3282 -0.4406  1.0121
62872SOL    HW293428   1.928   9.166   7.618 -1.6745 -0.0655 -0.9826
62873SOL     OW93429   3.481   3.597   6.822 -0.8938 -0.5836 -0.2829
62873SOL    HW193430   3.441   3.569   6.905 -3.6345  1.7932 -0.6237
62873SOL    HW293431   3.421   3.563   6.755  0.7684 -1.6473 -1.2968
62874SOL     OW93432   3.748   8.650  12.191 -0.1195  0.0585 -0.5566
62874SOL    HW193433   3.818   8.653  12.256 -1.1473  1.7957  0.5479
62874SOL    HW293434   3.692   8.578  12.219 -0.6438  0.8968  0.6399
62875SOL     OW93435   2.927   0.472   6.516 -1.0841  0.0372  0.2340
62875SOL    HW193436   2.876   0.411   6.462  0.7013 -1.6578  0.3308
62875SOL    HW293437   2.994   0.506   6.457 -1.5260  1.2747  0.4197
62876SOL     OW93438   3.329   9.717  10.422  0.0522 -0.6678 -0.1864
62876SOL    HW193439   3.422   9.727  10.403  0.2438 -1.7573  0.1281
62876SOL    HW293440   3.294   9.672  10.346  0.0420 -1.4246  0.2581
62877SOL     OW93441   0.230  10.201   9.433  0.3574  0.4219  0.2332
62877SOL    HW193442   0.174  10.127   9.409  0.1732  0.6062  0.0892
62877SOL    HW293443   0.318  10.165   9.433  0.3378  0.3644 -0.5179
62878SOL     OW93444   7.452   1.866   0.966 -0.2505  0.1740 -0.7831
62878SOL    HW193445   7.423   1.774   0.961  1.0925 -0.2728 -0.7608
62878SOL    HW293446   7.520   1.866   1.034 -1.7918  1.6382  0.8597
62879SOL     OW93447  12.101   6.513   4.194  0.1163 -0.0051 -0.3604
62879SOL    HW193448  12.015   6.541   4.161 -1.3134 -1.8887  1.4945
62879SOL    HW293449  12.092   6.418   4.205  2.4327 -0.2287 -0.0286
62880SOL     OW93450  11.761   9.322   9.350 -0.6263  0.1210 -0.0117
62880SOL    HW193451  11.683   9.374   9.329 -1.3004 -0.7659  0.2192
62880SOL    HW293452  11.781   9.344   9.440 -1.3894 -0.5795  0.3470
62881SOL     OW93453   5.585  12.564   6.370 -0.4304  0.7518 -0.1583
62881SOL    HW193454   5.545  12.646   6.399 -1.8545  0.7744 -1.9923
62881SOL    HW293455   5.659  12.552   6.429 -0.3091  3.2264  0.3329
62882SOL     OW93456   3.336   5.538  10.114  0.2489  0.6515  0.1269
62882SOL    HW193457   3.292   5.527  10.197 -0.3004  0.7033 -0.1529
62882SOL    HW293458   3.425   5.567  10.137  0.0995  0.6696  0.6861
62883SOL     OW93459   6.063   1.595   8.013  0.3801  0.4945 -0.0249
62883SOL    HW193460   6.014   1.591   8.095  0.4756 -4.4066  0.0838
62883SOL    HW293461   6.131   1.661   8.029 -0.1854  0.4196  3.4742
62884SOL     OW93462   6.035   4.184   0.503  0.1396  0.9884 -0.3341
62884SOL    HW193463   6.130   4.175   0.515 -0.0112  0.4275  0.5673
62884SOL    HW293464   6.022   4.171   0.409  0.8382 -0.2709 -0.2919
62885SOL     OW93465  12.640   2.037   8.688 -0.4884 -0.1642  0.2640
62885SOL    HW193466  12.570   2.027   8.752 -0.3442 -0.4235  0.3818
62885SOL    HW293467  12.631   2.127   8.657  0.9847  0.8573  2.5125
62886SOL     OW93468   5.130  12.088   8.459 -0.5001 -0.4090  0.0047
62886SOL    HW193469   5.225  12.091   8.449 -0.4631 -0.8154  0.2187
62886SOL    HW293470   5.097  12.155   8.399 -0.1102 -0.6109 -0.4401
62887SOL     OW93471   9.869   6.283   1.254 -0.0360 -0.0065 -0.2222
62887SOL    HW193472   9.875   6.378   1.242  0.9324 -0.0559 -0.1664
62887SOL    HW293473   9.937   6.262   1.318 -1.9713 -0.3852  1.8268
62888SOL     OW93474   6.268  11.903   0.981 -0.1251 -0.2458  0.5465
62888SOL    HW193475   6.362  11.889   0.972 -0.0865  0.7970 -1.0280
62888SOL    HW293476   6.228  11.825   0.943  0.0926 -0.6278  1.0927
62889SOL     OW93477   6.873   5.780   9.553 -0.1447 -0.2344  0.5795
62889SOL    HW193478   6.861   5.690   9.584  0.6407 -0.9631 -1.1017
62889SOL    HW293479   6.830   5.834   9.619 -1.9122 -1.9165  0.8967
62890SOL     OW93480   3.776  11.192  11.912 -0.2274  1.2369  0.0127
62890SOL    HW193481   3.850  11.239  11.872  0.8883  0.0024  0.5328
62890SOL    HW293482   3.817  11.136  11.978 -1.6047  0.1960  0.0272
62891SOL     OW93483   6.031   5.631   8.964  0.6927 -0.0752  0.0470
62891SOL    HW193484   6.046   5.715   9.007  2.6974  0.3973 -1.4362
62891SOL    HW293485   5.939   5.611   8.983  0.3314  2.1315  0.9525
62892SOL     OW93486  12.279   6.020  10.459  0.1688 -0.0074 -0.8326
62892SOL    HW193487  12.304   6.072  10.382  1.2920 -0.0417 -0.4997
62892SOL    HW293488  12.208   5.963  10.428 -2.3023  2.7950 -0.8467
62893SOL     OW93489   6.738   1.797   8.497  0.2650  0.3876 -0.0539
62893SOL    HW193490   6.715   1.790   8.590  0.2567 -1.5181 -0.1579
62893SOL    HW293491   6.764   1.708   8.472 -0.1923  0.7550 -1.9908
62894SOL     OW93492   7.521   2.185  11.184  0.1326  0.0799  0.1052
62894SOL    HW193493   7.489   2.226  11.103  0.4216 -1.0162 -0.5789
62894SOL    HW293494   7.572   2.110  11.154 -0.6999 -1.0101  1.3349
62895SOL     OW93495  12.491   8.363   0.238  0.0210  0.0136  0.3323
62895SOL    HW193496  12.549   8.435   0.216 -1.3035  1.0585  0.1495
62895SOL    HW293497  12.407   8.385   0.196 -0.8278 -0.8995  1.4623
62896SOL     OW93498   7.736  12.535   6.972  0.4915 -0.2541 -0.0182
62896SOL    HW193499   7.713  12.625   6.997  2.2101  0.4507 -0.8145
62896SOL    HW293500   7.707  12.527   6.882 -1.4397 -1.2023  0.6476
62897SOL     OW93501   1.654   6.639   0.042 -0.1265  0.1242  0.6847
62897SOL    HW193502   1.691   6.668  -0.041 -1.4417 -1.4912 -0.5318
62897SOL    HW293503   1.704   6.561   0.064 -1.9159 -1.4296 -0.4066
62898SOL     OW93504   2.526   6.563   8.728  0.3178  0.5731 -0.7566
62898SOL    HW193505   2.574   6.518   8.658  0.4624  1.7974 -1.4696
62898SOL    HW293506   2.439   6.523   8.726  0.1677  0.9199 -1.9736
62899SOL     OW93507   7.239   2.712   6.927 -0.5120 -0.0192  0.4695
62899SOL    HW193508   7.240   2.730   6.833  0.4041  1.4385  0.7216
62899SOL    HW293509   7.204   2.793   6.966  0.8753  0.1144  1.4965
62900SOL     OW93510   2.497   5.689  11.930 -0.0369  0.1220  0.2989
62900SOL    HW193511   2.588   5.704  11.952 -0.1863 -0.5723  1.4591
62900SOL    HW293512   2.489   5.594  11.921 -0.4767  0.2300 -0.6187
62901SOL     OW93513   5.532   8.001   1.480  0.1171 -0.2549 -0.1945
62901SOL    HW193514   5.452   7.982   1.430 -1.2605 -0.6987  2.0282
62901SOL    HW293515   5.519   7.955   1.562  2.0656  0.8477  0.7817
62902SOL     OW93516   3.303  10.376   2.053 -0.4345 -0.0387 -0.4175
62902SOL    HW193517   3.240  10.319   2.009 -0.2782  0.6611 -1.6189
62902SOL    HW293518   3.362  10.404   1.983  0.6396  0.0842  0.5048
62903SOL     OW93519   9.824  10.642   7.643  0.4063  0.1161 -0.3428
62903SOL    HW193520   9.906  10.595   7.658 -0.0553 -0.0544  2.0192
62903SOL    HW293521   9.842  10.699   7.568  2.6721  0.0406  0.0760
62904SOL     OW93522   3.023   3.789   0.389  0.1756 -0.3815 -0.1996
62904SOL    HW193523   3.115   3.776   0.413 -0.3171 -2.2185  0.8547
62904SOL    HW293524   3.007   3.882   0.406  1.3850 -0.4045  1.2912
62905SOL     OW93525   7.760   8.830   3.052  0.2242 -0.0071  0.5484
62905SOL    HW193526   7.786   8.778   2.976  0.7953 -0.1606  0.8423
62905SOL    HW293527   7.792   8.918   3.033  0.3843 -0.0501  0.6210
62906SOL     OW93528   4.977  11.288   1.773  0.8169 -0.0611  0.0826
62906SOL    HW193529   4.972  11.196   1.799  0.8658 -0.1975 -0.3950
62906SOL    HW293530   4.924  11.294   1.694 -0.4151  0.6310  0.9237
62907SOL     OW93531   7.709  11.075  11.704 -0.4449 -0.3315  0.5128
62907SOL    HW193532   7.720  11.002  11.764  1.3477 -0.6993 -0.1925
62907SOL    HW293533   7.795  11.119  11.704 -0.5832  0.0089 -1.2889
62908SOL     OW93534   5.870   1.353   5.586  0.4859 -0.1031 -1.0059
62908SOL    HW193535   5.964   1.365   5.597  0.4873 -0.1277 -0.9930
62908SOL    HW293536   5.841   1.432   5.540  0.0791  1.1735  1.2963
62909SOL     OW93537   0.078   4.022   6.563  0.0087  0.3209 -0.8586
62909SOL    HW193538   0.144   3.963   6.526  0.7323 -0.4605  1.4693
62909SOL    HW293539   0.023   3.964   6.616  0.2104  1.5911  0.7917
62910SOL     OW93540   7.956   1.475   8.628 -0.2355 -0.0340  0.2706
62910SOL    HW193541   7.900   1.514   8.561 -1.7250 -2.6588 -0.1489
62910SOL    HW293542   7.897   1.422   8.681  1.1900  0.6358  2.6753
62911SOL     OW93543   9.115  12.304  10.002 -0.1571  0.1425  0.1697
62911SOL    HW193544   9.198  12.352  10.003 -0.9149  1.6345 -1.5913
62911SOL    HW293545   9.131  12.227  10.056  2.5147  0.1384 -0.4770
62912SOL     OW93546   5.590  11.566   5.770  0.0457  0.3632 -0.2734
62912SOL    HW193547   5.611  11.563   5.864  0.0526 -0.2865 -0.2925
62912SOL    HW293548   5.591  11.659   5.749 -1.3618  0.6259  0.6817
62913SOL     OW93549   0.848   3.439  10.974  0.2672  0.2815  0.2055
62913SOL    HW193550   0.806   3.522  10.995  1.7421  1.1040 -0.0042
62913SOL    HW293551   0.820   3.420  10.884 -1.5003 -0.3936  0.8483
62914SOL     OW93552   6.098   9.833   1.896 -0.3922  0.3018 -0.0283
62914SOL    HW193553   6.054   9.858   1.815 -0.3534  0.8046  0.1004
62914SOL    HW293554   6.089   9.910   1.953  0.6275  0.4106  0.0081
62915SOL     OW93555  11.295   5.354   2.221  0.0499  0.1647  0.2040
62915SOL    HW193556  11.249   5.410   2.158  2.2419 -0.9025 -2.5805
62915SOL    HW293557  11.369   5.408   2.251  1.9233 -0.8688 -2.1676
62916SOL     OW93558  10.971  11.519   5.692 -0.0618 -0.6183  0.3468
62916SOL    HW193559  11.050  11.572   5.676 -0.5955  0.1696  0.2685
62916SOL    HW293560  10.901  11.568   5.649 -0.6149 -1.2668  0.5031
62917SOL     OW93561  10.551   5.517   7.007 -0.5196  0.1217 -0.3379
62917SOL    HW193562  10.619   5.583   6.994 -1.9031  1.9877  1.1357
62917SOL    HW293563  10.486   5.561   7.062 -3.2083 -1.3606 -2.1200
62918SOL     OW93564   5.544   9.991   2.877 -0.2261  0.2378 -0.3664
62918SOL    HW193565   5.452  10.001   2.901  0.2081 -1.0931  2.2205
62918SOL    HW293566   5.589  10.060   2.925  0.3064 -0.1942 -0.2314
62919SOL     OW93567  10.285   0.668   1.525  0.4248 -0.2626 -0.1182
62919SOL    HW193568  10.302   0.640   1.614 -0.1073 -2.2664 -0.5911
62919SOL    HW293569  10.245   0.755   1.534 -2.6615 -1.7016  1.8672
62920SOL     OW93570   9.382   9.112   7.082  0.2693 -0.0746  0.0269
62920SOL    HW193571   9.335   9.096   7.000  0.0039 -1.1561  0.3791
62920SOL    HW293572   9.314   9.142   7.142  0.3368  0.0153  0.0586
62921SOL     OW93573  10.781   2.966   7.117  0.1434 -0.1861  0.4020
62921SOL    HW193574  10.867   3.004   7.098 -1.0754  3.1300  0.8683
62921SOL    HW293575  10.796   2.872   7.115  2.7886 -0.0212 -4.4206
62922SOL     OW93576   8.229   1.883   9.814 -0.0749 -0.1236 -0.3652
62922SOL    HW193577   8.188   1.968   9.833  0.3293  0.0994 -0.4909
62922SOL    HW293578   8.195   1.859   9.728 -1.8947 -1.1231  0.5599
62923SOL     OW93579   8.169  11.108   5.604  0.2256 -0.4246  0.2568
62923SOL    HW193580   8.089  11.160   5.614 -0.8879 -2.3470  2.2638
62923SOL    HW293581   8.233  11.170   5.570 -1.4708  1.7943  0.8314
62924SOL     OW93582   9.017   4.240   1.851  0.1191  0.7732 -0.2524
62924SOL    HW193583   8.997   4.175   1.918 -0.9922  0.1202 -1.1761
62924SOL    HW293584   8.948   4.306   1.860  0.2753  0.9568 -0.4000
62925SOL     OW93585   7.459  10.872  11.416 -0.4611  0.3750 -0.1315
62925SOL    HW193586   7.548  10.891  11.385  0.1705 -1.9024  0.1088
62925SOL    HW293587   7.463  10.883  11.511  0.2704 -2.0317  0.1672
62926SOL     OW93588   9.667   2.710  11.860  0.0244 -0.2036  0.1802
62926SOL    HW193589   9.579   2.731  11.829 -0.1232  0.4617  0.9944
62926SOL    HW293590   9.664   2.617  11.882 -0.0271 -0.5501 -1.2040
62927SOL     OW93591   3.069   4.297   6.362  0.2445 -0.4020  0.4287
62927SOL    HW193592   3.093   4.279   6.271  1.8266 -0.1063  0.7684
62927SOL    HW293593   3.152   4.303   6.409 -0.5530 -0.9313  1.9847
62928SOL     OW93594   1.390   4.659   4.821  0.4283  0.3472 -0.1499
62928SOL    HW193595   1.471   4.711   4.820  0.9143 -0.3770 -0.9592
62928SOL    HW293596   1.419   4.571   4.844  0.2604 -0.4322 -2.5896
62929SOL     OW93597   7.363   6.620   5.296 -0.3813  0.3282  0.0649
62929SOL    HW193598   7.375   6.588   5.207  2.9362 -1.0727  0.8586
62929SOL    HW293599   7.326   6.545   5.344  2.0174 -0.5347  0.7079
62930SOL     OW93600   6.047   7.855   5.008 -0.1730  0.0360 -0.5070
62930SOL    HW193601   6.020   7.926   4.950  0.0903 -0.0015 -0.6745
62930SOL    HW293602   5.984   7.785   4.990 -0.5992  0.3179 -0.1475
62931SOL     OW93603  11.295   8.644  11.905 -0.0556  0.2653 -0.0130
62931SOL    HW193604  11.326   8.595  11.981 -2.4466 -0.2333  0.7333
62931SOL    HW293605  11.355   8.718  11.897  1.6442 -0.9550  0.8854
62932SOL     OW93606   2.580  10.686   6.971  0.1315 -0.1853  0.3925
62932SOL    HW193607   2.665  10.662   7.007  0.9103  0.2847 -1.0517
62932SOL    HW293608   2.539  10.738   7.040  0.6422 -1.1288  1.4419
62933SOL     OW93609   8.909  12.429   9.557  0.2161  0.1458  0.2924
62933SOL    HW193610   9.002  12.418   9.539 -0.0571 -1.9278 -0.1242
62933SOL    HW293611   8.865  12.403   9.475 -0.7523  0.1276  0.7974
62934SOL     OW93612   6.347   3.739   6.103  0.4091 -0.3410  0.4348
62934SOL    HW193613   6.417   3.778   6.156 -0.0535 -0.6753  1.3024
62934SOL    HW293614   6.380   3.743   6.013  1.1973  0.2474  0.7400
62935SOL     OW93615   0.910   0.001   2.234 -0.1445 -0.0904 -0.1297
62935SOL    HW193616   0.911  -0.053   2.313  0.6565 -0.1851 -0.2005
62935SOL    HW293617   0.963   0.078   2.257  1.1702 -0.7141 -0.9862
62936SOL     OW93618   5.821  12.451  11.900 -0.1117 -0.3659  0.4786
62936SOL    HW193619   5.910  12.468  11.869  0.1610  0.3753  1.6250
62936SOL    HW293620   5.779  12.405  11.827  0.7636  0.5488 -0.6411
62937SOL     OW93621   8.995   8.303   0.049  0.0724  0.6487  0.0321
62937SOL    HW193622   9.026   8.276  -0.038  1.5013 -0.1751  0.7629
62937SOL    HW293623   9.032   8.391   0.061 -0.7626  1.0814 -0.4858
62938SOL     OW93624   7.503   5.710   9.729  0.1762 -0.1802 -0.0310
62938SOL    HW193625   7.576   5.734   9.671 -0.6563 -1.1127 -1.5303
62938SOL    HW293626   7.427   5.705   9.671 -0.9229 -0.1427  1.3384
62939SOL     OW93627   2.705   5.735   0.150 -0.6075  0.4283 -1.3106
62939SOL    HW193628   2.741   5.647   0.156 -0.1222  0.5464 -2.3510
62939SOL    HW293629   2.623   5.724   0.103 -1.1861  0.3747 -0.3216
62940SOL     OW93630  10.815   6.418   3.784 -0.0138  0.2190 -0.0347
62940SOL    HW193631  10.770   6.334   3.776 -1.1393  0.7904  0.1655
62940SOL    HW293632  10.859   6.429   3.700  0.7616 -0.9052  0.2008
62941SOL     OW93633   9.736   7.736   4.630  0.1739  0.1962  0.5379
62941SOL    HW193634   9.711   7.673   4.698 -1.0486  1.0728  0.9432
62941SOL    HW293635   9.766   7.682   4.557  2.2512 -0.7613  2.0113
62942SOL     OW93636  11.074   3.911   1.890  0.1342 -0.2539  0.0275
62942SOL    HW193637  10.979   3.911   1.897  0.1330 -0.5987  0.0705
62942SOL    HW293638  11.095   3.822   1.861  0.4920 -0.4208  0.7838
62943SOL     OW93639  12.488   7.838   4.832  0.6836 -0.3849 -0.1052
62943SOL    HW193640  12.409   7.838   4.887  0.3510 -0.5941 -0.5760
62943SOL    HW293641  12.485   7.754   4.786  1.5571 -0.7079  0.3962
62944SOL     OW93642  11.610   8.291   4.005 -0.2756 -0.0350  0.3471
62944SOL    HW193643  11.582   8.264   3.917  0.5787 -0.3890  0.1833
62944SOL    HW293644  11.677   8.228   4.030 -0.0570  0.4465  0.9968
62945SOL     OW93645   4.171   0.814   9.589  0.4259 -1.1909  0.3461
62945SOL    HW193646   4.088   0.861   9.581  0.4519 -0.9598  1.2974
62945SOL    HW293647   4.204   0.808   9.499 -0.6345 -1.3259 -0.0488
62946SOL     OW93648   6.965   4.836   3.931 -0.1775 -0.5347 -0.3831
62946SOL    HW193649   6.897   4.904   3.932  0.9159  0.6708  2.5381
62946SOL    HW293650   6.952   4.786   4.011  2.6635  0.1460  0.6411
62947SOL     OW93651   2.779   9.864   6.387 -0.4452 -0.6484 -0.8700
62947SOL    HW193652   2.753   9.861   6.295 -2.9430 -0.9845 -0.2292
62947SOL    HW293653   2.723   9.799   6.430 -1.4340  1.4606  1.3203
62948SOL     OW93654  11.951   3.384   3.461  0.2146 -0.5052  0.0146
62948SOL    HW193655  11.906   3.385   3.546  1.1319  0.8389  0.5177
62948SOL    HW293656  11.916   3.459   3.414 -0.4679 -1.3851 -0.9314
62949SOL     OW93657  12.592  10.282  11.602  0.3388 -0.7512 -0.8011
62949SOL    HW193658  12.561  10.193  11.616 -1.4757 -0.1001 -0.3320
62949SOL    HW293659  12.512  10.334  11.591  1.3664  0.6470 -2.2050
62950SOL     OW93660   8.577   5.601   4.051 -0.3447 -0.0705  0.3956
62950SOL    HW193661   8.573   5.664   3.979  1.0183  0.2589  0.5908
62950SOL    HW293662   8.601   5.518   4.010  0.0851  0.0420  0.4118
62951SOL     OW93663   4.939   4.565   0.741 -0.1358 -0.4956 -0.1105
62951SOL    HW193664   5.021   4.546   0.695 -0.8036 -1.3701 -0.9830
62951SOL    HW293665   4.871   4.556   0.674 -0.9419  0.4225  0.5481
62952SOL     OW93666   9.236  10.091  12.109  0.1460  0.4932 -0.1335
62952SOL    HW193667   9.300  10.123  12.173 -1.4423  1.4564  1.0471
62952SOL    HW293668   9.199  10.171  12.071 -1.1354 -0.0085  0.0315
62953SOL     OW93669   6.800   5.461   5.605 -0.3439 -0.0723 -0.0935
62953SOL    HW193670   6.744   5.406   5.661 -0.4028 -0.4339 -0.5008
62953SOL    HW293671   6.773   5.550   5.625 -0.2330 -0.1846  0.5961
62954SOL     OW93672   5.861   7.669   1.258  0.3147  0.2175  0.5356
62954SOL    HW193673   5.811   7.744   1.287 -1.1543  0.7398 -2.9087
62954SOL    HW293674   5.850   7.604   1.328 -1.7355  1.7569  1.7340
62955SOL     OW93675   2.815  11.640   9.154  0.1553  0.7859 -0.2464
62955SOL    HW193676   2.755  11.646   9.228  1.0530  0.6307  0.5132
62955SOL    HW293677   2.901  11.627   9.194  0.3834 -1.5986 -1.3715
62956SOL     OW93678   2.058   6.528   7.274 -0.0854 -0.2865 -0.2671
62956SOL    HW193679   2.030   6.609   7.318  1.7498  0.9123 -1.1719
62956SOL    HW293680   1.995   6.462   7.303  0.3203  0.6655  3.2015
62957SOL     OW93681   2.507   1.637   2.671  0.1152  0.2384  0.6557
62957SOL    HW193682   2.539   1.707   2.729 -1.8175 -0.6439  2.9367
62957SOL    HW293683   2.488   1.564   2.730 -2.8409 -0.4215 -0.9320
62958SOL     OW93684   2.948   8.333   6.891 -0.7005 -0.6966  0.1861
62958SOL    HW193685   3.007   8.383   6.834 -0.3530 -0.1642  0.9915
62958SOL    HW293686   2.880   8.300   6.832 -1.3000  1.2710 -0.3102
62959SOL     OW93687   5.602   8.088   2.188 -0.2927 -0.1741 -0.0042
62959SOL    HW193688   5.660   8.015   2.167 -1.2506 -1.5636  1.8550
62959SOL    HW293689   5.593   8.137   2.106 -0.3467 -2.6615 -1.5704
62960SOL     OW93690   1.076  12.028   1.990  0.0808 -0.0079 -0.1836
62960SOL    HW193691   1.053  12.069   1.907 -0.8437  1.7119  0.8615
62960SOL    HW293692   0.996  12.032   2.042  1.1917  0.9487  1.5531
62961SOL     OW93693   3.295   8.231  11.934  0.1873 -0.1418  0.0595
62961SOL    HW193694   3.352   8.221  12.010  1.7052 -0.5579 -1.0850
62961SOL    HW293695   3.287   8.326  11.923 -2.3798  0.0213  2.3538
62962SOL     OW93696  12.458   9.471  11.120  0.4298  0.4518 -0.2566
62962SOL    HW193697  12.504   9.529  11.182  0.7229  1.6764 -1.5706
62962SOL    HW293698  12.395   9.424  11.174  0.8572  1.2905  1.0253
62963SOL     OW93699   4.550   2.646   1.735 -0.4459 -0.0100  0.1500
62963SOL    HW193700   4.587   2.735   1.737 -1.5557  0.4630  0.3422
62963SOL    HW293701   4.623   2.589   1.759  0.2776  0.8520  0.0481
62964SOL     OW93702   2.920   7.978   3.107 -0.3997 -0.3675  0.0787
62964SOL    HW193703   2.923   8.003   3.015  0.6416 -1.1158 -0.1145
62964SOL    HW293704   2.836   8.010   3.139 -1.5885 -1.6707 -1.5912
62965SOL     OW93705   0.302   9.151   3.607 -0.0271 -0.2904  0.2582
62965SOL    HW193706   0.369   9.110   3.551  0.7040  0.2003  0.7475
62965SOL    HW293707   0.352   9.184   3.682 -0.5149  1.8825 -0.3229
62966SOL     OW93708   2.761   2.296   8.125 -0.5335  0.6250 -0.0887
62966SOL    HW193709   2.746   2.373   8.071 -2.1405  0.3674 -0.0488
62966SOL    HW293710   2.677   2.251   8.128  0.4323 -1.3595 -0.4314
62967SOL     OW93711   8.820   9.924   1.909 -0.0400  0.3918 -0.3660
62967SOL    HW193712   8.825   9.846   1.965 -0.1919  0.8237  0.2637
62967SOL    HW293713   8.776   9.990   1.964 -1.0419  0.5450 -1.3137
62968SOL     OW93714   2.627  10.273  10.568  0.0529 -0.2715  0.0391
62968SOL    HW193715   2.671  10.337  10.512  0.7175  0.9187  1.7978
62968SOL    HW293716   2.546  10.252  10.522 -0.5653  2.4560 -0.2964
62969SOL     OW93717  12.136   1.097   3.172 -0.4065 -0.5255  0.5331
62969SOL    HW193718  12.139   1.055   3.086 -0.1541  1.0605 -0.2784
62969SOL    HW293719  12.110   1.027   3.232 -1.1859 -1.5459 -0.9159
62970SOL     OW93720   5.552  10.556   6.169 -0.0414  0.2037 -0.2670
62970SOL    HW193721   5.560  10.590   6.258  2.0769 -0.4160 -0.1782
62970SOL    HW293722   5.484  10.489   6.176 -2.1048  2.2161  0.1740
62971SOL     OW93723   4.045   0.236   9.952  0.1495 -0.4499 -0.3254
62971SOL    HW193724   4.137   0.261   9.960 -0.4082  1.2418  1.5147
62971SOL    HW293725   4.038   0.153   9.998  0.6262 -0.2524  0.1083
62972SOL     OW93726   5.537   9.853   3.685 -0.5252 -0.0575 -0.2251
62972SOL    HW193727   5.584   9.931   3.654 -0.9945  1.0653  1.7085
62972SOL    HW293728   5.455   9.855   3.637 -0.2367  0.2319 -0.7189
62973SOL     OW93729  10.089  10.827  11.343 -0.4862  0.8121  0.0243
62973SOL    HW193730  10.117  10.795  11.257 -1.0229 -1.7624  0.7151
62973SOL    HW293731   9.994  10.823  11.340 -0.5672  2.1639  0.2713
62974SOL     OW93732  10.283  10.205   4.880 -0.0020  0.1426  0.5426
62974SOL    HW193733  10.350  10.240   4.822 -0.6904  0.9071  0.1889
62974SOL    HW293734  10.201  10.241   4.846 -0.5410 -0.4175  1.2333
62975SOL     OW93735   7.013   8.850   2.016  0.1255  0.0532  0.0810
62975SOL    HW193736   7.012   8.943   1.990  0.0423 -0.2083 -0.8958
62975SOL    HW293737   7.087   8.843   2.077 -0.1877  0.8620  0.5760
62976SOL     OW93738  11.177   7.808   1.884  0.3167  0.0334  0.5375
62976SOL    HW193739  11.112   7.821   1.953 -0.4835 -2.1632  0.2953
62976SOL    HW293740  11.227   7.889   1.882 -1.8241  1.4557  1.3588
62977SOL     OW93741   1.882  11.570   8.231  0.4691  0.2284 -0.0646
62977SOL    HW193742   1.951  11.511   8.199  0.9699 -0.7562  2.5882
62977SOL    HW293743   1.817  11.570   8.161  2.1218 -0.5643 -1.7123
62978SOL     OW93744   7.356   2.692  12.174  0.7908  0.6319 -0.0289
62978SOL    HW193745   7.317   2.742  12.245  1.0541  2.5618 -1.1744
62978SOL    HW293746   7.409   2.625  12.217 -0.0633  0.9451  1.5563
62979SOL     OW93747   9.996  11.510   7.533  0.2318 -0.1800 -0.1811
62979SOL    HW193748   9.981  11.603   7.512  0.6385  0.2380  1.2651
62979SOL    HW293749  10.034  11.511   7.621 -1.4173 -1.8258  0.6182
62980SOL     OW93750   9.084   5.508   3.386  0.0050 -0.1376  0.1148
62980SOL    HW193751   9.058   5.600   3.380  1.9076  0.4069 -0.7709
62980SOL    HW293752   9.136   5.493   3.307 -0.2359 -1.9739  0.2739
62981SOL     OW93753   4.843   7.534   4.314 -0.0574  0.1255  0.2209
62981SOL    HW193754   4.905   7.517   4.243  0.8257  0.3992  0.9188
62981SOL    HW293755   4.865   7.469   4.381 -0.4120  0.3354  0.5470
62982SOL     OW93756  10.710   5.520   4.852  0.4297  0.3414  0.0949
62982SOL    HW193757  10.715   5.604   4.807  2.2026 -0.9546 -2.3882
62982SOL    HW293758  10.794   5.478   4.834 -0.5020 -2.1159  0.9739
62983SOL     OW93759   8.048   2.473   6.276 -0.6344  0.0678  0.1992
62983SOL    HW193760   8.090   2.452   6.193 -0.5872 -2.1789  0.7303
62983SOL    HW293761   7.956   2.452   6.262 -0.7340  0.2804  0.5247
62984SOL     OW93762   9.444   4.089  11.961  0.2593  0.1330 -0.1636
62984SOL    HW193763   9.502   4.109  11.888  1.4852 -2.6603 -0.0886
62984SOL    HW293764   9.502   4.075  12.035 -0.2816 -3.2583 -0.1937
62985SOL     OW93765   0.093   7.683   9.381  0.0109  0.4488 -0.0795
62985SOL    HW193766   0.056   7.620   9.443  0.2113  1.3143  0.9604
62985SOL    HW293767   0.017   7.718   9.334 -0.1004 -0.5381 -0.6445
62986SOL     OW93768   3.844  10.393   7.703  0.2413  0.0899  0.1251
62986SOL    HW193769   3.756  10.425   7.687  0.1336 -0.4611 -0.4222
62986SOL    HW293770   3.882  10.455   7.765 -0.7412 -0.0100  0.8451
62987SOL     OW93771   5.855   0.713  11.358  0.0767 -0.3438  0.2797
62987SOL    HW193772   5.894   0.653  11.422 -0.4977 -1.4732 -0.3962
62987SOL    HW293773   5.776   0.667  11.328 -2.0130  1.9708  1.8487
62988SOL     OW93774  10.537   7.378   3.900 -0.0139 -0.0239  0.0792
62988SOL    HW193775  10.554   7.438   3.972  0.6502  0.4104 -0.4215
62988SOL    HW293776  10.510   7.435   3.827  2.0219 -0.1300 -0.8385
62989SOL     OW93777   4.259   2.007   3.103  0.2241 -0.2885  0.5519
62989SOL    HW193778   4.334   2.018   3.045 -0.1391  0.6104  0.2386
62989SOL    HW293779   4.206   2.086   3.090  0.1799 -0.0167  2.1696
62990SOL     OW93780  10.705  10.810   9.202 -0.2059 -0.6958  0.0616
62990SOL    HW193781  10.660  10.788   9.120 -0.2956 -2.5881  0.5633
62990SOL    HW293782  10.666  10.893   9.229 -0.5324 -0.2819 -1.5410
62991SOL     OW93783   7.006   8.231   2.673 -0.1275 -0.2163 -0.5553
62991SOL    HW193784   7.047   8.309   2.638 -0.0149  0.0669  0.1943
62991SOL    HW293785   6.980   8.181   2.595  0.9632 -0.0620 -1.0397
62992SOL     OW93786   5.321  11.242   8.969  0.0580 -0.3188 -0.8424
62992SOL    HW193787   5.415  11.230   8.956  0.1451  0.6345 -1.1611
62992SOL    HW293788   5.294  11.298   8.896 -0.0243  2.7019  1.3435
62993SOL     OW93789   4.269   6.010  10.895  0.3469 -0.2986  0.0556
62993SOL    HW193790   4.271   6.087  10.952  1.8560 -0.8862  0.8223
62993SOL    HW293791   4.279   5.935  10.954 -1.2791 -1.1397 -0.6568
62994SOL     OW93792   2.277   8.753   4.860  0.3878  0.1469  0.0586
62994SOL    HW193793   2.230   8.822   4.906 -2.8633 -1.7347 -0.0891
62994SOL    HW293794   2.208   8.691   4.835  2.8353 -2.0403 -1.7477
62995SOL     OW93795   1.271   3.911  10.588 -0.5607  0.5047 -0.0210
62995SOL    HW193796   1.359   3.950  10.590 -0.4604  0.2608  0.2437
62995SOL    HW293797   1.282   3.823  10.623 -0.7691  0.1889 -0.7259
62996SOL     OW93798   5.457   1.916  10.741  0.0935 -0.4034 -0.1705
62996SOL    HW193799   5.437   1.826  10.766 -0.0102 -0.1570  0.6393
62996SOL    HW293800   5.380   1.966  10.768  0.2762 -0.0202 -0.3529
62997SOL     OW93801   5.482   9.427  11.111 -0.2834  0.4106 -0.2536
62997SOL    HW193802   5.443   9.345  11.080  1.2764  0.5819 -2.9504
62997SOL    HW293803   5.566   9.401  11.147 -0.7016  0.6284  0.9399
62998SOL     OW93804   7.136   2.317   1.027  0.2624 -0.0785  0.0123
62998SOL    HW193805   7.091   2.367   0.960  0.7315 -0.2166 -0.4164
62998SOL    HW293806   7.217   2.288   0.985  1.4925  1.4457  1.2065
62999SOL     OW93807  11.142   4.626   4.746 -0.6018  0.1460 -0.1610
62999SOL    HW193808  11.165   4.591   4.660  0.0806  1.5494 -0.5821
62999SOL    HW293809  11.047   4.619   4.751 -0.7823  1.2210 -1.5861
63000SOL     OW93810   0.174  11.709  11.179  0.2592 -0.2881  0.4291
63000SOL    HW193811   0.173  11.614  11.192 -0.8685 -0.6872 -2.0842
63000SOL    HW293812   0.084  11.732  11.156  0.4782  1.4453  1.1149
63001SOL     OW93813  12.231  10.485   6.521 -0.4492 -0.2426 -0.1581
63001SOL    HW193814  12.200  10.572   6.547  1.1981  0.0436  0.9699
63001SOL    HW293815  12.199  10.426   6.590 -2.1092 -0.7022 -1.2413
63002SOL     OW93816   7.958   4.160   0.731  0.1438 -1.3440  0.6673
63002SOL    HW193817   7.894   4.092   0.754 -0.9145 -0.1545  1.4404
63002SOL    HW293818   8.041   4.114   0.725 -0.4696 -2.6446  1.5757
63003SOL     OW93819   6.870   4.050   5.622  0.8114  0.3686 -0.1295
63003SOL    HW193820   6.789   4.016   5.586  0.3483  1.5504 -0.2268
63003SOL    HW293821   6.864   4.032   5.716  0.9126 -0.4613 -0.2705
63004SOL     OW93822   9.627   9.665  11.016 -0.2906  0.1673  0.8065
63004SOL    HW193823   9.578   9.598  10.968  1.3608 -0.6902  0.2259
63004SOL    HW293824   9.578   9.746  11.002 -3.8573 -1.1855  3.6476
63005SOL     OW93825   6.522   5.340  12.486  0.0718  0.5823  0.4498
63005SOL    HW193826   6.573   5.323  12.406 -0.3861  0.3252  0.2085
63005SOL    HW293827   6.431   5.333  12.458 -0.0907 -0.2175  1.1410
63006SOL     OW93828   5.884   4.758   9.113 -0.1603 -0.0196 -0.3428
63006SOL    HW193829   5.797   4.729   9.089 -0.4884  0.7636 -0.1304
63006SOL    HW293830   5.881   4.772   9.207  0.0644  0.4289 -0.3963
63007SOL     OW93831   1.485   3.081   7.396  0.0375  0.0524  0.1142
63007SOL    HW193832   1.548   3.088   7.468 -0.3277 -0.7261  0.5215
63007SOL    HW293833   1.402   3.057   7.438  0.0764 -1.5509 -0.6465
63008SOL     OW93834  10.226   5.874  12.593  0.0712 -0.3807 -0.1156
63008SOL    HW193835  10.210   5.887  12.686  1.3470  1.2602 -0.0791
63008SOL    HW293836  10.266   5.787  12.587  2.7888  0.6788  1.2826
63009SOL     OW93837   3.111   4.638   5.554  0.3500 -0.0186  0.0654
63009SOL    HW193838   3.116   4.636   5.650 -1.2687  0.6191  0.1912
63009SOL    HW293839   3.085   4.549   5.530  0.3133 -0.0604  0.2525
63010SOL     OW93840  10.395   2.317   4.520 -0.1245  0.0432  0.7354
63010SOL    HW193841  10.375   2.260   4.445 -0.3982  0.1555  0.7216
63010SOL    HW293842  10.384   2.261   4.597 -0.2020  0.0273  0.7124
63011SOL     OW93843  12.055   0.531   4.930 -0.3590 -0.5718  0.5424
63011SOL    HW193844  12.149   0.536   4.947  0.0074 -0.8564 -1.2198
63011SOL    HW293845  12.020   0.480   5.003  1.4556 -3.8947 -0.7030
63012SOL     OW93846   1.880  11.551   9.718 -0.2236  0.1775 -0.2888
63012SOL    HW193847   1.820  11.494   9.767 -1.2313  2.0500  0.7773
63012SOL    HW293848   1.860  11.640   9.749 -0.1179  1.3821 -3.2841
63013SOL     OW93849   8.792   6.526   8.385  0.1563  0.3701 -0.0923
63013SOL    HW193850   8.758   6.436   8.391  0.3827  0.0658 -2.3293
63013SOL    HW293851   8.887   6.516   8.392  0.1263  0.5692  0.6678
63014SOL     OW93852   5.699   5.707   7.239  0.6433 -0.0266  0.4629
63014SOL    HW193853   5.777   5.704   7.184 -0.5006 -0.8548 -1.1995
63014SOL    HW293854   5.684   5.800   7.254 -0.7728  0.5652 -3.4001
63015SOL     OW93855   8.037   1.254   4.701  0.0538 -0.5949 -0.0775
63015SOL    HW193856   7.952   1.232   4.738  0.4232 -0.1154  1.0942
63015SOL    HW293857   8.100   1.208   4.757  0.5616 -1.6268 -1.4149
63016SOL     OW93858   3.928   7.171   2.523  0.5688 -0.2867  0.0830
63016SOL    HW193859   4.011   7.157   2.568  1.6762  0.6013 -1.5931
63016SOL    HW293860   3.870   7.102   2.558  2.1867 -1.3405  0.7997
63017SOL     OW93861   2.675   6.482   5.172  0.0785 -0.2759  0.1662
63017SOL    HW193862   2.666   6.461   5.265 -0.9152 -0.3279  0.0631
63017SOL    HW293863   2.765   6.457   5.151 -0.1928 -1.8608  0.7123
63018SOL     OW93864   8.172  12.418   3.766  0.5062  0.3706  0.0320
63018SOL    HW193865   8.231  12.345   3.783  0.1142 -0.2223 -1.0349
63018SOL    HW293866   8.121  12.427   3.846 -0.0342 -1.1041 -0.1183
63019SOL     OW93867   1.449   0.518   7.422 -0.9224 -0.0034  0.2561
63019SOL    HW193868   1.518   0.565   7.468 -0.6304  0.4131 -0.5980
63019SOL    HW293869   1.495   0.452   7.370 -1.1299  0.5671 -0.6587
63020SOL     OW93870  10.918  10.068   0.902  0.6545 -0.3120  0.1057
63020SOL    HW193871  10.841  10.038   0.853  1.1189 -0.9754 -0.2311
63020SOL    HW293872  10.956  10.136   0.847  1.2686 -1.1692 -0.5614
63021SOL     OW93873   1.333   2.463   7.197  0.2313 -0.2018  0.4606
63021SOL    HW193874   1.396   2.414   7.144 -0.7987 -0.0310 -0.9562
63021SOL    HW293875   1.266   2.491   7.136  0.5867  2.7248  1.2637
63022SOL     OW93876  12.633   6.791   3.686  0.1182 -0.1467  0.0244
63022SOL    HW193877  12.643   6.697   3.673 -0.7560 -0.1563 -0.6353
63022SOL    HW293878  12.548   6.812   3.647 -1.3687  0.3210  3.2255
63023SOL     OW93879   1.605  12.585   3.640 -0.3392 -0.1457 -0.0993
63023SOL    HW193880   1.673  12.585   3.573 -1.7384 -2.8465 -1.6622
63023SOL    HW293881   1.582  12.677   3.651  1.9835  0.6259 -1.1368
63024SOL     OW93882   6.425   4.748   0.365  0.2430  0.4475 -0.1919
63024SOL    HW193883   6.379   4.673   0.328  0.9175  0.3772 -0.9001
63024SOL    HW293884   6.358   4.795   0.415 -0.3084 -0.3197 -0.2017
63025SOL     OW93885   6.158   6.872   9.860 -0.2381 -0.0266 -0.0094
63025SOL    HW193886   6.100   6.797   9.876 -0.6222  0.3476  0.3961
63025SOL    HW293887   6.194   6.894   9.946  0.8347 -0.5091 -0.3210
63026SOL     OW93888   0.821   4.378   2.647 -0.4089  0.4978 -0.3321
63026SOL    HW193889   0.915   4.368   2.630 -0.1985  0.2400  0.9026
63026SOL    HW293890   0.781   4.304   2.602  0.4038 -1.7595  2.3825
63027SOL     OW93891   7.063   2.946   4.578 -0.1205 -0.4148  0.6471
63027SOL    HW193892   7.104   2.907   4.501  1.2515  0.4979  0.8749
63027SOL    HW293893   6.995   2.884   4.604  0.6881 -1.6684 -0.1591
63028SOL     OW93894   5.941   7.074   2.876  0.4953  0.5440 -0.0105
63028SOL    HW193895   5.981   6.997   2.917  0.5071  1.3068  1.4689
63028SOL    HW293896   5.871   7.038   2.822  0.7942 -0.5408  0.2893
63029SOL     OW93897   6.658   2.888  10.969  0.7682 -0.1274  0.5709
63029SOL    HW193898   6.604   2.849  10.900 -1.8805  1.8519  1.3308
63029SOL    HW293899   6.695   2.966  10.928  0.0187  0.4969  1.0495
63030SOL     OW93900  12.602   4.192   1.655  0.9294  0.1304  0.0106
63030SOL    HW193901  12.507   4.207   1.658  0.9209  0.0353  0.2910
63030SOL    HW293902  12.627   4.183   1.747  0.9510 -1.4356 -0.1255
63031SOL     OW93903   8.509   7.692  12.428 -0.3941 -0.0006 -0.7009
63031SOL    HW193904   8.538   7.783  12.431 -0.7563  0.1382 -1.2136
63031SOL    HW293905   8.520   7.660  12.518  1.0780  0.1144 -0.8186
63032SOL     OW93906   9.032   0.019   4.555  0.1411  0.2123  0.0601
63032SOL    HW193907   8.996  -0.069   4.553  2.4186 -0.8161  0.9254
63032SOL    HW293908   8.981   0.065   4.622 -0.7961 -0.5649 -0.1120
63033SOL     OW93909  10.742   7.530   5.968  0.4299  0.1227  0.3902
63033SOL    HW193910  10.682   7.547   5.896  0.2367 -2.8805 -0.3147
63033SOL    HW293911  10.796   7.609   5.975 -1.0175  1.3532 -1.5296
63034SOL     OW93912  10.314  10.238   2.639  0.0064 -0.1908 -0.0548
63034SOL    HW193913  10.353  10.187   2.567 -1.6859  0.1625 -1.2838
63034SOL    HW293914  10.354  10.201   2.718  1.2647 -1.1975 -1.0968
63035SOL     OW93915   6.895   1.836  10.885  0.0638  0.9706 -0.5398
63035SOL    HW193916   6.834   1.854  10.956 -0.5411 -1.5075 -0.3311
63035SOL    HW293917   6.980   1.863  10.918 -0.2416  0.0923  1.0788
63036SOL     OW93918   0.010   9.286   7.474  0.6088  0.2604  0.0317
63036SOL    HW193919   0.063   9.365   7.463  1.7513 -0.5574 -0.6185
63036SOL    HW293920  -0.015   9.285   7.566  3.8817 -0.5727  1.0464
63037SOL     OW93921   2.080   7.653   2.271 -0.0625 -0.3998  0.1171
63037SOL    HW193922   2.159   7.607   2.246  1.5386  3.0628 -2.0115
63037SOL    HW293923   2.028   7.657   2.190 -0.4940  0.8038  0.4308
63038SOL     OW93924  12.645   6.452   1.320  0.1473  0.1574 -0.6612
63038SOL    HW193925  12.712   6.467   1.253  1.0345 -0.1238  0.1414
63038SOL    HW293926  12.639   6.535   1.367  0.0079  0.1533 -0.6725
63039SOL     OW93927   6.300   0.169   8.854  0.0743 -0.1471  0.9062
63039SOL    HW193928   6.323   0.104   8.921 -1.0239  0.1999  1.6375
63039SOL    HW293929   6.226   0.130   8.807 -0.6964  0.6210  1.4498
63040SOL     OW93930   6.403   8.693   6.238  0.0898 -0.9148  0.0016
63040SOL    HW193931   6.498   8.704   6.239  0.0084 -0.1690  1.2489
63040SOL    HW293932   6.369   8.776   6.269 -0.9738 -1.2678 -0.1887
63041SOL     OW93933  11.523  10.082   6.907 -0.2921  0.1722  0.1637
63041SOL    HW193934  11.444  10.125   6.876 -1.0957 -1.9034 -0.8284
63041SOL    HW293935  11.544  10.017   6.839  0.9605 -0.8546  1.4596
63042SOL     OW93936  11.289   3.824   7.840  0.2324 -0.4713 -0.0855
63042SOL    HW193937  11.350   3.898   7.843  0.1765 -0.3793 -0.8699
63042SOL    HW293938  11.233   3.835   7.917  0.4718  0.0874  0.0127
63043SOL     OW93939   1.370   3.570   8.417  0.3294 -0.3871  0.0323
63043SOL    HW193940   1.364   3.595   8.510  0.2601 -0.7861  0.1381
63043SOL    HW293941   1.333   3.482   8.414  0.6322 -0.5020 -0.3228
63044SOL     OW93942  10.402   3.585   1.123  0.0391 -0.5459  0.2806
63044SOL    HW193943  10.353   3.556   1.200 -1.7493 -0.8149 -0.9023
63044SOL    HW293944  10.344   3.648   1.080  1.2996  0.1159 -0.4945
63045SOL     OW93945  10.430   6.597   6.878  0.1985 -0.3664 -0.0328
63045SOL    HW193946  10.399   6.609   6.789  3.2554 -1.0698 -1.3036
63045SOL    HW293947  10.501   6.660   6.888 -0.4516  0.1333  2.1860
63046SOL     OW93948   6.722   1.671   9.898  0.1092 -0.1666  0.0131
63046SOL    HW193949   6.736   1.714   9.982  1.6339 -0.8424  0.1434
63046SOL    HW293950   6.646   1.614   9.913 -0.0026  0.1572  0.7450
63047SOL     OW93951   2.476   8.189   1.965 -0.1648 -1.0516  0.2885
63047SOL    HW193952   2.387   8.204   1.935 -0.5163 -1.1254  1.2549
63047SOL    HW293953   2.528   8.256   1.921 -0.9305 -0.0944  0.7937
63048SOL     OW93954  10.275  11.310   4.268  0.6362  0.4864  0.3109
63048SOL    HW193955  10.286  11.402   4.294  1.4825  0.4765  0.0447
63048SOL    HW293956  10.327  11.302   4.188 -0.1195 -0.0245 -0.1443
63049SOL     OW93957   8.929   8.634   6.264 -0.5809 -0.0007  0.3780
63049SOL    HW193958   8.994   8.569   6.290 -1.1790 -1.1094 -0.7722
63049SOL    HW293959   8.979   8.703   6.221 -0.1192 -0.7509 -0.3187
63050SOL     OW93960   0.983   6.624   5.088  0.3533  0.0373 -0.1844
63050SOL    HW193961   1.069   6.642   5.049 -0.0387 -1.8788 -2.1037
63050SOL    HW293962   0.920   6.649   5.022 -0.4515 -0.9356  0.1786
63051SOL     OW93963  12.320   9.575   1.891 -0.4585  0.2362  0.5673
63051SOL    HW193964  12.293   9.648   1.834 -0.6333  0.8343  1.3985
63051SOL    HW293965  12.346   9.506   1.830 -2.6704  0.0788 -0.2734
63052SOL     OW93966   7.379   5.552   8.958  0.4476  0.2732  0.0373
63052SOL    HW193967   7.450   5.494   8.984  0.7383  0.4229 -0.4041
63052SOL    HW293968   7.409   5.591   8.876  0.3810  1.2653  0.4724
63053SOL     OW93969   4.316   4.710   3.305 -0.7648 -0.1617 -0.3935
63053SOL    HW193970   4.232   4.751   3.323 -0.6928 -0.9456  2.0376
63053SOL    HW293971   4.371   4.734   3.379 -0.2617 -3.2995  0.3857
63054SOL     OW93972   3.253   5.707   4.977 -0.0470 -0.6679  0.0443
63054SOL    HW193973   3.293   5.792   4.957 -2.7006  1.2840  2.0875
63054SOL    HW293974   3.326   5.647   4.986  2.2448  2.0622  1.2903
63055SOL     OW93975  11.866  10.896   6.030 -0.3662 -0.0502  0.1225
63055SOL    HW193976  11.948  10.871   6.073 -0.2766  0.1227  0.0513
63055SOL    HW293977  11.832  10.813   5.995  1.6961  0.3517 -3.2205
63056SOL     OW93978   7.461   7.323   5.433  0.0235  0.0611  0.0928
63056SOL    HW193979   7.386   7.381   5.447 -0.5101  0.1407 -2.4825
63056SOL    HW293980   7.436   7.241   5.476  0.3538  1.3334  2.8926
63057SOL     OW93981   7.263  12.623   2.287 -0.0205  0.0940  0.1563
63057SOL    HW193982   7.201  12.694   2.308 -1.5233 -0.6592 -1.4645
63057SOL    HW293983   7.211  12.543   2.293  1.2259 -0.7302  0.3050
63058SOL     OW93984   2.055   7.105   6.216 -0.3670  0.3883  0.0332
63058SOL    HW193985   1.996   7.180   6.217  2.6436  3.0244  2.4474
63058SOL    HW293986   2.019   7.045   6.282 -2.9156 -0.5467 -2.0580
63059SOL     OW93987   7.773   7.177   3.166 -0.1234 -0.4963 -0.2846
63059SOL    HW193988   7.802   7.201   3.079  2.4801 -0.2303  0.5845
63059SOL    HW293989   7.850   7.187   3.221 -2.1005  1.2209  2.4468
63060SOL     OW93990   1.719   4.682   6.829 -0.2574  0.2254 -0.4204
63060SOL    HW193991   1.788   4.647   6.885 -1.0093  0.3956  0.6353
63060SOL    HW293992   1.709   4.616   6.760 -0.4754 -0.8123  0.5855
63061SOL     OW93993   0.234   0.969  10.364 -0.4576  0.8213  0.3674
63061SOL    HW193994   0.141   0.992  10.360 -1.1899 -1.4498  2.3592
63061SOL    HW293995   0.266   1.013  10.443  0.7256  3.0767 -1.2410
63062SOL     OW93996   7.034   4.127   2.057  0.0297 -0.2609  0.1913
63062SOL    HW193997   7.061   4.219   2.060  0.0943 -0.1897 -1.4239
63062SOL    HW293998   7.103   4.080   2.103  1.2222  0.2831 -0.9556
63063SOL     OW93999   6.670  11.519  12.482  0.0357 -0.0313  0.2153
63063SOL    HW194000   6.745  11.572  12.454 -0.2552 -0.4358 -1.4207
63063SOL    HW294001   6.708  11.443  12.525  0.5554 -0.0942 -0.3534
63064SOL     OW94002   1.234   7.764   1.067 -0.3758 -0.2680  0.0668
63064SOL    HW194003   1.143   7.735   1.065  0.4301 -3.1745 -1.7975
63064SOL    HW294004   1.272   7.717   1.141 -0.0654 -0.3115 -0.1170
63065SOL     OW94005   8.194   6.823   7.251  0.0916  0.1871  0.0332
63065SOL    HW194006   8.219   6.868   7.332 -0.8095 -0.9259  0.9717
63065SOL    HW294007   8.275   6.816   7.202  0.6458  0.9693  0.7946
63066SOL     OW94008   6.139   3.480   4.744  0.5152 -0.6494  0.1585
63066SOL    HW194009   6.063   3.454   4.693 -0.6337  0.1719  1.3783
63066SOL    HW294010   6.174   3.557   4.698  0.9469 -1.3560 -0.7040
63067SOL     OW94011   7.902   3.025   2.543  0.2562 -0.2905  0.3790
63067SOL    HW194012   7.881   2.973   2.465 -0.3230  0.0777  0.2813
63067SOL    HW294013   7.818   3.032   2.589  0.3264  0.5806  0.3731
63068SOL     OW94014   3.341  11.492   9.461  0.9108  0.2540 -0.5245
63068SOL    HW194015   3.275  11.423   9.468  1.7442 -0.5148 -0.1185
63068SOL    HW294016   3.298  11.570   9.494 -0.9073  0.5617 -3.2642
63069SOL     OW94017  11.440   9.669   5.374  0.2755 -0.0786  0.0388
63069SOL    HW194018  11.395   9.642   5.454 -0.1296  0.1110 -0.1223
63069SOL    HW294019  11.392   9.624   5.304  1.8592 -1.9020  0.0254
63070SOL     OW94020   2.214   3.394   1.160  0.5006  0.6549 -0.7592
63070SOL    HW194021   2.258   3.310   1.173 -1.1474 -0.0283  0.8070
63070SOL    HW294022   2.126   3.371   1.131  0.8112  1.9588 -2.8946
63071SOL     OW94023   5.059   6.529  11.471 -0.3543  0.0394  0.1175
63071SOL    HW194024   4.976   6.481  11.474 -0.8715  0.6471 -2.3161
63071SOL    HW294025   5.053   6.592  11.542 -1.2795 -0.9712  0.9713
63072SOL     OW94026   2.928   7.482   7.349 -0.3151  0.0567 -0.0142
63072SOL    HW194027   2.893   7.569   7.327  1.3090  0.8090  0.2527
63072SOL    HW294028   3.023   7.492   7.343 -0.0861 -2.6008 -3.2957
63073SOL     OW94029   1.706  10.139   8.506  0.1877  0.4370 -0.1432
63073SOL    HW194030   1.678  10.230   8.495 -1.7448 -0.0394  0.3947
63073SOL    HW294031   1.668  10.113   8.591  0.2646 -1.0100 -0.5282
63074SOL     OW94032   6.635   2.561   2.038  0.4224 -0.4871 -0.0551
63074SOL    HW194033   6.638   2.592   1.947 -0.5681 -0.9099 -0.2501
63074SOL    HW294034   6.556   2.506   2.041 -0.0685  0.2602  1.2797
63075SOL     OW94035   3.484   4.966   7.719  0.7671 -0.6500 -0.6422
63075SOL    HW194036   3.428   4.936   7.791 -1.0302 -1.3239 -2.2403
63075SOL    HW294037   3.566   4.991   7.761 -0.7183  0.4023  1.8161
63076SOL     OW94038   5.420   7.894   6.329  0.1258  0.9072 -0.5319
63076SOL    HW194039   5.432   7.807   6.367  1.0793  0.9532 -0.7008
63076SOL    HW294040   5.428   7.954   6.403 -0.5250  0.8607 -0.4164
63077SOL     OW94041   7.979  11.256   9.434  0.2834  0.1239  0.0929
63077SOL    HW194042   7.887  11.238   9.451 -0.7712  3.0553 -1.8238
63077SOL    HW294043   7.984  11.271   9.340  2.7391  0.1007  0.1598
63078SOL     OW94044  11.980   7.712   8.730  0.3054  0.2158  0.2479
63078SOL    HW194045  11.891   7.697   8.699  0.7022  0.3317 -1.0469
63078SOL    HW294046  11.970   7.754   8.815 -0.8617 -0.3896  0.4301
63079SOL     OW94047   4.204  10.995   0.669  0.1666 -0.0525 -0.4062
63079SOL    HW194048   4.157  11.076   0.653 -0.8525 -0.2488  1.3739
63079SOL    HW294049   4.283  11.002   0.615 -0.0811  1.9279 -0.5724
63080SOL     OW94050   3.990  11.247  11.749 -0.1156 -0.1766  0.4005
63080SOL    HW194051   4.052  11.178  11.771 -0.8228 -1.0094 -0.1612
63080SOL    HW294052   4.038  11.328  11.766  1.4592 -0.7861 -0.8986
63081SOL     OW94053   5.316   5.113   2.175 -0.5262 -0.7444 -0.0392
63081SOL    HW194054   5.307   5.208   2.165 -0.6016 -0.8341 -0.9153
63081SOL    HW294055   5.368   5.102   2.255 -0.2957  0.0401 -0.0733
63082SOL     OW94056  11.019   2.285   7.420  0.2124 -0.0686  0.3323
63082SOL    HW194057  10.958   2.307   7.490 -0.8447 -1.4610 -0.1121
63082SOL    HW294058  11.105   2.291   7.461 -0.1696  1.8923  0.9881
63083SOL     OW94059   5.327   1.168   5.002  0.0798  0.0390 -0.0644
63083SOL    HW194060   5.313   1.260   4.984 -2.2711 -0.5563 -1.5976
63083SOL    HW294061   5.382   1.137   4.930  1.9514  0.4413  1.1204
63084SOL     OW94062   3.983   6.726   4.662  0.2797  0.1477 -0.3820
63084SOL    HW194063   4.074   6.729   4.633  0.3048  2.3906 -0.2443
63084SOL    HW294064   3.988   6.708   4.755  0.6616  1.1763 -0.1885
63085SOL     OW94065  12.038   0.802   2.839  0.1087  0.0367 -0.1459
63085SOL    HW194066  11.991   0.802   2.756  1.3219  1.3651 -0.8863
63085SOL    HW294067  12.064   0.893   2.852  1.3161 -0.4167  0.8840
63086SOL     OW94068   0.242   5.446  12.414  0.4992 -0.0679  0.4121
63086SOL    HW194069   0.324   5.402  12.390 -0.2464 -0.6717 -1.1230
63086SOL    HW294070   0.240   5.524  12.359 -1.0262 -1.2428 -1.3054
63087SOL     OW94071   7.404   9.448   0.243  0.1206  0.4190  0.0514
63087SOL    HW194072   7.309   9.447   0.249  0.2008  0.1655  1.8381
63087SOL    HW294073   7.433   9.495   0.322  1.4622  0.9066 -0.6957
63088SOL     OW94074   2.504   5.569   9.156 -0.2412 -0.2249 -0.0596
63088SOL    HW194075   2.468   5.514   9.225 -0.0101 -1.3159 -0.7724
63088SOL    HW294076   2.437   5.635   9.140 -0.0105  0.4839  1.6642
63089SOL     OW94077   7.076  11.237   3.027 -0.0753 -0.2500 -0.0983
63089SOL    HW194078   7.126  11.260   2.948 -0.0697 -0.9045 -0.2888
63089SOL    HW294079   6.989  11.272   3.011  0.1179  0.2477 -0.0833
63090SOL     OW94080   5.957   2.209   1.715  0.3481 -0.0638 -0.6706
63090SOL    HW194081   5.929   2.266   1.786  0.3829 -0.3147 -0.4561
63090SOL    HW294082   6.014   2.265   1.661  2.2034 -0.4777  0.7468
63091SOL     OW94083   8.593   7.189  12.522 -0.2812  0.0479 -0.2358
63091SOL    HW194084   8.535   7.251  12.478  1.1830  0.1594 -2.1623
63091SOL    HW294085   8.555   7.103  12.504 -0.9524  0.2146  0.3189
63092SOL     OW94086   7.648   8.380  10.230  0.3169  0.2250  0.0091
63092SOL    HW194087   7.727   8.355  10.182  0.9774  0.1276  1.1182
63092SOL    HW294088   7.627   8.303  10.283 -0.2205  0.4418  0.1134
63093SOL     OW94089   9.804   7.453   2.026  0.5184 -0.1703  0.3346
63093SOL    HW194090   9.844   7.518   1.968  2.6611 -1.2728  0.4510
63093SOL    HW294091   9.732   7.416   1.975  0.1453  1.3125 -0.2522
63094SOL     OW94092   5.357   7.487   2.839 -0.1488  0.2467 -0.1001
63094SOL    HW194093   5.346   7.549   2.911 -1.4943  1.1560 -1.0497
63094SOL    HW294094   5.272   7.446   2.829  0.5967 -1.4519  0.1915
63095SOL     OW94095   8.929   6.374   3.961 -1.0013 -0.0612  0.5463
63095SOL    HW194096   9.008   6.422   3.984  0.1070 -1.2412 -0.5984
63095SOL    HW294097   8.863   6.441   3.946  0.0875  1.0199  0.4429
63096SOL     OW94098   7.715   0.048   4.769 -0.3048  0.3168 -0.2732
63096SOL    HW194099   7.732   0.139   4.746  2.1468 -0.3094 -1.2709
63096SOL    HW294100   7.671   0.012   4.692 -1.1599  0.5900  0.0718
63097SOL     OW94101   9.360   0.048  12.363 -0.5016  0.5008  0.2988
63097SOL    HW194102   9.453   0.061  12.382 -0.1884 -1.7199  0.6238
63097SOL    HW294103   9.357   0.028  12.270 -0.2809 -1.6530  0.6834
63098SOL     OW94104  10.605  11.208   4.517 -0.4849  0.2614 -0.0580
63098SOL    HW194105  10.620  11.288   4.465 -0.5893  0.9937  1.0099
63098SOL    HW294106  10.511  11.209   4.534 -0.6885 -0.7321 -1.0299
63099SOL     OW94107   6.543   1.988   1.281 -0.2351 -0.2074 -0.4166
63099SOL    HW194108   6.463   1.938   1.264 -0.0265 -0.8837  0.4656
63099SOL    HW294109   6.519   2.050   1.350 -0.5530  1.1071 -1.6715
63100SOL     OW94110   8.763   1.325  12.192  0.1703  0.2385  0.6589
63100SOL    HW194111   8.727   1.353  12.107 -0.6973  0.7704  1.1832
63100SOL    HW294112   8.734   1.393  12.253  2.5882  1.0045  1.0285
63101SOL     OW94113   8.018   7.125   2.133  0.0511  0.3145  0.1227
63101SOL    HW194114   8.013   7.042   2.085 -0.6920  0.4755 -0.0951
63101SOL    HW294115   7.956   7.182   2.089  1.7651  1.5663 -0.7904
63102SOL     OW94116   6.278   6.994   0.734  0.1901 -0.1426  0.3535
63102SOL    HW194117   6.315   6.917   0.778 -1.0320 -0.4644  0.8357
63102SOL    HW294118   6.350   7.025   0.678  1.0435 -1.0201  0.9147
63103SOL     OW94119   5.149   4.773   2.381  0.2527  0.1714 -0.2827
63103SOL    HW194120   5.201   4.816   2.449 -1.1445  0.8867  0.3526
63103SOL    HW294121   5.210   4.710   2.342  1.8022  1.4416 -0.0230
63104SOL     OW94122   5.769   7.511   7.524  0.1035 -0.5086  0.4621
63104SOL    HW194123   5.685   7.474   7.552  0.6394 -1.4222  0.8738
63104SOL    HW294124   5.828   7.495   7.597  1.1127 -1.4824 -0.5330
63105SOL     OW94125   4.008  11.387  12.217 -0.3496  0.1523  0.1423
63105SOL    HW194126   3.988  11.452  12.151  0.2618  0.4612  0.2546
63105SOL    HW294127   4.102  11.370  12.206 -0.3679 -0.2210  0.5441
63106SOL     OW94128   1.841   4.994   7.169  0.1234 -0.8391 -0.2944
63106SOL    HW194129   1.900   4.924   7.143  1.0625 -0.4616  0.7535
63106SOL    HW294130   1.812   4.970   7.257 -2.1052 -1.5239 -1.1270
63107SOL     OW94131   4.047   2.242   6.306  0.4620  0.2163  0.1625
63107SOL    HW194132   4.046   2.197   6.391 -2.4598  0.0241  0.1288
63107SOL    HW294133   4.089   2.326   6.324  1.1790 -0.3818  1.4562
63108SOL     OW94134   6.008   2.600   3.124  0.7130  0.3734 -0.1218
63108SOL    HW194135   5.951   2.525   3.141  0.3807  0.7220  0.3358
63108SOL    HW294136   6.033   2.591   3.032 -0.3833  0.4151 -0.4359
63109SOL     OW94137   5.654   6.959   6.295  0.0202  0.0071  0.0804
63109SOL    HW194138   5.616   6.904   6.227  1.0381 -0.4235 -0.1573
63109SOL    HW294139   5.747   6.938   6.294  0.3526  1.3682  0.3352
63110SOL     OW94140   1.145   4.659   1.308  0.1411 -0.1857 -0.2785
63110SOL    HW194141   1.070   4.718   1.297 -0.2065 -0.5731  0.0038
63110SOL    HW294142   1.153   4.615   1.223  0.1039 -0.0756 -0.3394
63111SOL     OW94143   1.803   8.584  12.047 -0.3858  0.0419  0.6060
63111SOL    HW194144   1.886   8.541  12.027  0.0746  1.4306 -0.6717
63111SOL    HW294145   1.826   8.657  12.103 -0.6195  0.8807 -0.3600
63112SOL     OW94146   8.330   5.676   0.211 -0.7256 -0.0191 -0.2696
63112SOL    HW194147   8.249   5.726   0.216 -0.8422  0.0632 -2.3132
63112SOL    HW294148   8.326   5.617   0.286 -2.7430 -0.1335 -0.4155
63113SOL     OW94149   7.817   1.428   3.211 -0.2522 -0.1388 -0.1150
63113SOL    HW194150   7.825   1.418   3.117 -1.0956  0.1269 -0.2253
63113SOL    HW294151   7.820   1.338   3.245 -1.0367 -0.3244 -0.5001
63114SOL     OW94152   9.152   8.684  12.062  0.3839  0.2373 -0.7709
63114SOL    HW194153   9.187   8.746  12.127 -0.0506 -0.7294  0.4337
63114SOL    HW294154   9.230   8.643  12.024  0.6341  0.1573 -0.1873
63115SOL     OW94155   4.478   8.784   1.780  0.0084 -0.6376  0.5334
63115SOL    HW194156   4.572   8.803   1.780  0.0663 -0.4935 -2.3263
63115SOL    HW294157   4.437   8.863   1.813  0.8118  0.3332 -0.6990
63116SOL     OW94158   5.380   2.434  11.161 -0.0192  0.1843 -0.0071
63116SOL    HW194159   5.298   2.398  11.128 -0.2974  2.7731 -2.4773
63116SOL    HW294160   5.356   2.476  11.243 -0.9452  0.0333 -0.1892
63117SOL     OW94161   3.155  12.079   7.908  0.2700  0.2959  0.0803
63117SOL    HW194162   3.237  12.102   7.952  1.3063 -0.4408 -1.3872
63117SOL    HW294163   3.087  12.097   7.973  1.7438 -1.1820  2.1441
63118SOL     OW94164   9.655  11.583  10.142 -0.6111 -0.0195  0.1854
63118SOL    HW194165   9.736  11.624  10.175 -1.2440  0.4420  1.2384
63118SOL    HW294166   9.590  11.601  10.211 -1.7961  0.2634 -0.9702
63119SOL     OW94167   7.565  10.133  11.089 -0.7163  0.8340  0.0368
63119SOL    HW194168   7.629  10.159  11.155 -0.3249 -0.0681  0.0238
63119SOL    HW294169   7.500  10.081  11.136 -0.7873  0.7375 -0.1632
63120SOL     OW94170   9.170   8.945   0.130  0.0408 -0.2179 -0.3589
63120SOL    HW194171   9.211   8.923   0.214 -0.1004  2.5933  0.5744
63120SOL    HW294172   9.100   9.006   0.154 -0.0798  0.5531 -2.4956
63121SOL     OW94173  11.529   2.189   4.946  0.0973 -0.4083 -0.4905
63121SOL    HW194174  11.484   2.247   5.008 -0.7977  0.7400 -2.1440
63121SOL    HW294175  11.491   2.103   4.963  1.5429 -0.6155  2.0911
63122SOL     OW94176  10.883   0.519   6.049  0.3037  0.2005  0.1813
63122SOL    HW194177  10.806   0.560   6.089 -0.4797 -0.7362 -0.3315
63122SOL    HW294178  10.853   0.490   5.963  0.9741 -0.9558  0.3180
63123SOL     OW94179   6.661   7.688   6.625 -0.4533 -0.0815  0.2581
63123SOL    HW194180   6.746   7.645   6.635 -0.8506 -1.0917 -0.4547
63123SOL    HW294181   6.614   7.632   6.563 -1.5002  0.6669  0.3570
63124SOL     OW94182   1.243   9.071   1.055  0.1349  0.3637 -0.4925
63124SOL    HW194183   1.157   9.030   1.063  0.3416 -0.4467 -2.0568
63124SOL    HW294184   1.243   9.140   1.121 -2.2851  1.3994 -1.4640
63125SOL     OW94185   4.764   4.734   4.810 -0.1114 -0.3255 -0.2381
63125SOL    HW194186   4.794   4.673   4.743  0.5776 -0.9641  0.6287
63125SOL    HW294187   4.821   4.811   4.801 -1.8812  0.8752 -2.2725
63126SOL     OW94188   2.336  11.343   3.917  0.1940  0.1059 -0.1726
63126SOL    HW194189   2.380  11.261   3.893 -0.8366 -0.4512 -0.2140
63126SOL    HW294190   2.283  11.366   3.840  0.7111  0.9854 -0.2791
63127SOL     OW94191  12.612   2.315   8.617 -0.4611  0.2377 -0.2645
63127SOL    HW194192  12.579   2.393   8.573  0.2859  0.3760 -0.5851
63127SOL    HW294193  12.650   2.347   8.699  0.6657  0.3438 -0.8068
63128SOL     OW94194   3.709   5.516   9.076 -0.2050  0.0001  0.1542
63128SOL    HW194195   3.748   5.546   9.157 -3.8708  1.1672  1.6505
63128SOL    HW294196   3.690   5.595   9.026 -0.6403 -0.5071 -0.5195
63129SOL     OW94197   0.769   6.054   8.438  0.1864  0.1795  0.0271
63129SOL    HW194198   0.757   5.993   8.365 -0.2776  1.0209 -0.6047
63129SOL    HW294199   0.861   6.080   8.433  0.8038 -1.5290  1.1685
63130SOL     OW94200   1.676   5.568  10.671  0.4240 -0.2575 -0.4521
63130SOL    HW194201   1.646   5.482  10.699  0.6848 -0.5378 -1.0089
63130SOL    HW294202   1.616   5.629  10.713  0.1489 -0.7167 -0.1637
63131SOL     OW94203   4.222   3.787   5.403 -0.0249 -0.4725  0.4940
63131SOL    HW194204   4.189   3.800   5.314 -0.0568  2.2752  0.7923
63131SOL    HW294205   4.299   3.731   5.393  0.9032  1.0224 -1.5343
63132SOL     OW94206  11.792   9.302   8.190  0.6650 -0.3196  0.4843
63132SOL    HW194207  11.825   9.392   8.181  0.8720 -0.2163  2.0643
63132SOL    HW294208  11.852   9.249   8.138  1.8604  0.1977  1.3008
63133SOL     OW94209   5.856   6.954   2.101 -0.0198 -0.3795  0.5753
63133SOL    HW194210   5.835   6.885   2.038  0.1559  0.6104 -0.5819
63133SOL    HW294211   5.773   6.969   2.148 -0.8172  0.4849 -1.0256
63134SOL     OW94212  12.436   8.517  11.097 -0.3299 -0.1645  0.5264
63134SOL    HW194213  12.470   8.569  11.170 -0.5874  0.6989  0.0429
63134SOL    HW294214  12.499   8.446  11.086  0.3490  0.3855  0.8159
63135SOL     OW94215   3.642   0.561   1.003  0.2447 -0.0364  0.5491
63135SOL    HW194216   3.620   0.468   1.010  0.2133  0.0553  2.3417
63135SOL    HW294217   3.705   0.567   0.932 -2.3873 -0.8912 -2.0175
63136SOL     OW94218   6.843   9.601  11.712  0.0478  0.1153 -0.1144
63136SOL    HW194219   6.868   9.647  11.792 -0.5148  0.8915 -0.3677
63136SOL    HW294220   6.887   9.649  11.642 -0.9953  0.6375 -0.4349
63137SOL     OW94221  10.649  10.206   4.243 -0.4309  0.3010  0.2863
63137SOL    HW194222  10.698  10.149   4.301  1.2001  0.8083 -0.5357
63137SOL    HW294223  10.710  10.276   4.220 -1.5637  1.0105 -0.7244
63138SOL     OW94224   3.246  11.716  12.546 -0.0971  0.0558 -0.1225
63138SOL    HW194225   3.166  11.691  12.593  0.2173 -2.2391 -0.6897
63138SOL    HW294226   3.214  11.752  12.463 -0.5672  0.8008  0.3737
63139SOL     OW94227   6.356   3.894   2.235  0.2410  0.1442  0.7434
63139SOL    HW194228   6.426   3.941   2.280  0.1066  0.2184  0.8767
63139SOL    HW294229   6.277   3.944   2.256  0.2197  0.3586  0.1781
63140SOL     OW94230   9.871   2.882   0.256  0.3864  0.6978  0.3081
63140SOL    HW194231   9.790   2.914   0.216  0.3975  2.5742  1.6789
63140SOL    HW294232   9.883   2.937   0.334  1.6945 -1.1568  1.4935
63141SOL     OW94233   8.916   2.572   3.457 -0.4109  0.3356  0.4979
63141SOL    HW194234   8.870   2.655   3.474 -1.2222 -0.0426  0.1964
63141SOL    HW294235   8.972   2.590   3.382  1.0617  1.2141  1.7341
63142SOL     OW94236   8.475   8.839   2.966  0.4693  0.3580 -0.0708
63142SOL    HW194237   8.514   8.925   2.947  2.0752 -0.5428 -1.0041
63142SOL    HW294238   8.457   8.801   2.880  1.0522 -0.7986  0.2994
63143SOL     OW94239   5.544   9.009   0.975 -0.2073 -0.5623 -0.4581
63143SOL    HW194240   5.545   8.928   0.924 -0.8083 -0.6216 -0.3831
63143SOL    HW294241   5.573   8.983   1.063 -1.4839 -0.9216 -0.1261
63144SOL     OW94242   0.983   2.961   8.116  0.4313  0.5410  0.2794
63144SOL    HW194243   1.010   3.033   8.173  0.6188  0.6318  0.0781
63144SOL    HW294244   0.972   3.002   8.030  0.7735  0.2879  0.1101
63145SOL     OW94245   8.342   5.693   6.392 -0.4186 -0.2301 -0.0173
63145SOL    HW194246   8.357   5.784   6.365  0.2845 -0.2453  0.2900
63145SOL    HW294247   8.275   5.699   6.460  0.2638  0.1609  0.6325
63146SOL     OW94248   2.053   4.664   3.858 -0.0765 -0.3601 -0.4589
63146SOL    HW194249   2.005   4.747   3.860  1.4996  0.5849 -0.4482
63146SOL    HW294250   2.025   4.618   3.937  0.6523  1.1299  0.7055
63147SOL     OW94251  11.770   4.947   0.286 -0.1403 -0.0613 -0.2456
63147SOL    HW194252  11.790   4.855   0.267  1.1557  0.0371  0.5235
63147SOL    HW294253  11.796   4.958   0.377 -1.1545  0.8533 -0.0415
63148SOL     OW94254  12.333   9.778   5.309 -0.1094 -0.0541  0.1022
63148SOL    HW194255  12.387   9.826   5.245  0.2793 -2.3888 -1.4560
63148SOL    HW294256  12.245   9.814   5.298  0.1946  0.4127 -0.9149
63149SOL     OW94257  12.004  10.602   3.506 -0.0108 -1.0392 -0.0062
63149SOL    HW194258  11.925  10.640   3.544  0.9590 -0.5755  1.7107
63149SOL    HW294259  11.979  10.574   3.419 -1.5527  0.8753 -0.2422
63150SOL     OW94260  11.062   4.397   5.377 -0.0766 -0.8646  0.2016
63150SOL    HW194261  11.030   4.481   5.410  0.1325 -0.1781 -1.2482
63150SOL    HW294262  11.138   4.420   5.323  0.0888 -2.0117 -0.0783
63151SOL     OW94263  10.601   3.697   6.086  0.2903 -0.4525 -0.0105
63151SOL    HW194264  10.676   3.731   6.135 -0.0966 -2.0515  1.8396
63151SOL    HW294265  10.525   3.736   6.129 -0.0102 -0.2090 -0.7447
63152SOL     OW94266   1.279   2.982   4.307 -0.0124  0.3670  0.7042
63152SOL    HW194267   1.241   2.940   4.230 -0.1408  1.5997  0.0739
63152SOL    HW294268   1.229   3.062   4.318  1.9005  1.6981  0.2579
63153SOL     OW94269   2.578   4.560   0.068  0.1148 -0.2673 -0.1040
63153SOL    HW194270   2.625   4.588   0.147  1.5072 -1.0770 -0.6068
63153SOL    HW294271   2.634   4.493   0.030 -1.3147 -1.0227 -0.9439
63154SOL     OW94272   7.856   7.245   1.026 -0.2154  0.0638 -0.0238
63154SOL    HW194273   7.866   7.316   1.089  0.4388  0.0510 -0.1127
63154SOL    HW294274   7.789   7.277   0.965 -0.0663  0.5202  0.0490
63155SOL     OW94275   7.262   6.002   9.223  0.2491  0.1833  0.1999
63155SOL    HW194276   7.187   5.965   9.175  0.8055  0.1610 -0.6609
63155SOL    HW294277   7.338   5.955   9.189  0.7299  0.6300  0.6413
63156SOL     OW94278   5.012   6.962   0.387 -0.3908 -0.4870  0.0047
63156SOL    HW194279   5.045   6.908   0.315  0.4060  1.1711 -0.9253
63156SOL    HW294280   5.086   6.973   0.445 -0.5129 -0.3157  0.1294
63157SOL     OW94281   2.307   6.664   7.532  0.0624 -0.1288  0.1815
63157SOL    HW194282   2.266   6.747   7.556 -0.0567  0.0949 -0.7663
63157SOL    HW294283   2.250   6.597   7.570 -1.5233  0.1581 -1.5344
63158SOL     OW94284   9.632   9.593   9.245 -0.2579  0.3481 -0.1356
63158SOL    HW194285   9.640   9.687   9.262 -1.7012  0.4132  0.3169
63158SOL    HW294286   9.538   9.579   9.234 -0.0460 -1.0345 -0.3163
63159SOL     OW94287   1.418  10.245  10.140 -0.4469  0.1852 -0.0930
63159SOL    HW194288   1.410  10.315  10.074 -0.7306 -0.7683 -1.0948
63159SOL    HW294289   1.503  10.204  10.122 -0.3707  0.1291  0.3650
63160SOL     OW94290  11.735  12.156   2.424 -0.4025  0.0045  0.0404
63160SOL    HW194291  11.642  12.179   2.420 -0.6694 -1.1642 -0.8448
63160SOL    HW294292  11.737  12.072   2.468  0.4081  0.7756  1.5565
63161SOL     OW94293  11.991   2.837   9.040 -0.0105 -0.2183  0.9389
63161SOL    HW194294  12.002   2.852   9.134 -0.0643  0.5529  0.8282
63161SOL    HW294295  12.079   2.847   9.004  0.4132 -2.5778  1.1515
63162SOL     OW94296   0.345   6.777   7.764  0.4356 -0.6002  0.3563
63162SOL    HW194297   0.363   6.763   7.857  2.0258 -1.3672 -0.0213
63162SOL    HW294298   0.308   6.693   7.734 -0.0184 -0.3758  0.2861
63163SOL     OW94299   2.834  11.985   1.733  0.3122  0.1988  0.1199
63163SOL    HW194300   2.779  11.924   1.682 -0.0413  0.8223 -0.2550
63163SOL    HW294301   2.916  11.937   1.747  0.3896 -0.0136 -0.9829
63164SOL     OW94302   7.706   6.257   1.375  0.2218  0.1948 -0.6947
63164SOL    HW194303   7.697   6.218   1.288  0.9596  1.7976 -1.5335
63164SOL    HW294304   7.623   6.302   1.390 -0.0911 -0.4805 -0.3319
63165SOL     OW94305   0.023   0.164   5.788 -0.0965 -0.1574  0.3756
63165SOL    HW194306   0.063   0.250   5.776 -1.2444  0.3127 -0.2696
63165SOL    HW294307  -0.064   0.183   5.824  0.9788 -1.2246  3.9690
63166SOL     OW94308   8.287   4.981   4.943  0.0557  0.7662 -0.1645
63166SOL    HW194309   8.246   4.999   4.859  0.2845  0.6538 -0.2990
63166SOL    HW294310   8.356   5.047   4.951  1.1688 -0.2784 -0.8437
63167SOL     OW94311   7.238  10.376  10.081  0.5061  0.4211 -0.0996
63167SOL    HW194312   7.215  10.352   9.991 -0.1907 -1.1114  0.4490
63167SOL    HW294313   7.308  10.315  10.104 -0.1172  0.0093  0.7604
63168SOL     OW94314   8.172   3.788   9.198 -0.3650 -0.3017  0.3796
63168SOL    HW194315   8.092   3.734   9.193 -1.9778  1.8457  1.3917
63168SOL    HW294316   8.229   3.741   9.258 -0.9385 -1.7663 -0.1760
63169SOL     OW94317   6.823   2.217   4.846 -0.3485 -0.0216 -0.3020
63169SOL    HW194318   6.863   2.302   4.862 -0.9710  0.0132  1.2561
63169SOL    HW294319   6.884   2.155   4.887  1.1423 -0.5953 -3.1200
63170SOL     OW94320  10.008  11.804   8.846 -0.3853 -0.1120 -0.6851
63170SOL    HW194321  10.005  11.887   8.800 -0.2160  0.3911  0.1874
63170SOL    HW294322  10.096  11.800   8.883 -1.2222  0.6690  1.6396
63171SOL     OW94323   8.723   5.056   2.235  0.1437 -0.7621 -0.5426
63171SOL    HW194324   8.741   4.969   2.268  0.5733 -1.6437 -2.8719
63171SOL    HW294325   8.776   5.063   2.155 -2.0819  0.4651 -2.0396
63172SOL     OW94326   2.614   9.382  10.506 -0.0524  0.1566  0.1714
63172SOL    HW194327   2.638   9.379  10.598 -0.3543  0.6260  0.2711
63172SOL    HW294328   2.687   9.427  10.463  0.3507 -0.5652  0.0868
63173SOL     OW94329  12.359   9.163   7.784 -0.2796 -0.2259  0.4955
63173SOL    HW194330  12.427   9.211   7.737 -1.1143  0.7563  0.2633
63173SOL    HW294331  12.400   9.139   7.867 -0.3587  2.5012  1.4167
63174SOL     OW94332   4.942   3.511   4.630 -0.1414 -0.0971  0.0152
63174SOL    HW194333   4.859   3.465   4.617 -0.5262  0.8430 -1.0996
63174SOL    HW294334   5.004   3.442   4.651 -0.8856 -1.0294 -0.7114
63175SOL     OW94335   4.088   5.816   3.173  0.2222 -0.3212  0.4089
63175SOL    HW194336   4.015   5.869   3.140  0.5770 -0.4239 -0.5671
63175SOL    HW294337   4.137   5.876   3.229  1.3259  0.8121 -1.6514
63176SOL     OW94338   4.018   6.450   9.966  0.2596 -0.1511 -0.2160
63176SOL    HW194339   3.968   6.515   9.916  0.1754  0.6965  0.9153
63176SOL    HW294340   3.995   6.366   9.927  0.4308  0.4943 -1.7797
63177SOL     OW94341  12.625   2.123  10.267 -0.5739 -0.3236 -0.0843
63177SOL    HW194342  12.690   2.118  10.337  0.0694  0.2636 -0.6207
63177SOL    HW294343  12.543   2.146  10.311 -0.3824 -0.8452  0.5722
63178SOL     OW94344   7.345   6.165   1.138  0.2200 -0.0652  0.0821
63178SOL    HW194345   7.292   6.087   1.153  1.0278 -1.0373 -1.8156
63178SOL    HW294346   7.435   6.132   1.138  0.5750  0.8966 -0.6068
63179SOL     OW94347   9.788   4.208   4.637  0.6021  0.6789  0.8276
63179SOL    HW194348   9.710   4.236   4.589  0.0848 -1.3541  0.3631
63179SOL    HW294349   9.860   4.229   4.577 -0.0178 -1.6224 -0.8794
63180SOL     OW94350   9.594   6.615   0.733 -0.0065  0.4042  0.0956
63180SOL    HW194351   9.571   6.561   0.658  0.1248  1.1104 -0.4685
63180SOL    HW294352   9.559   6.568   0.809  2.5830 -1.9538 -0.0154
63181SOL     OW94353   1.094   7.693   7.677  0.4521  0.2554 -0.1543
63181SOL    HW194354   1.009   7.720   7.712  0.5548 -0.5659  0.7713
63181SOL    HW294355   1.150   7.685   7.754  1.3896  0.8347 -0.7616
63182SOL     OW94356   4.637   6.599   9.504  0.3425 -0.4524  0.0336
63182SOL    HW194357   4.590   6.600   9.420 -1.2997 -2.8689  0.8012
63182SOL    HW294358   4.664   6.690   9.518  0.0172  0.1708 -2.7127
63183SOL     OW94359  12.473   0.691   3.487  0.1989  0.5938 -0.0345
63183SOL    HW194360  12.529   0.614   3.490  1.1512  1.2998  0.7858
63183SOL    HW294361  12.389   0.660   3.522  0.6746  0.0124  0.6225
63184SOL     OW94362   4.350   0.694  12.246 -0.3715 -0.2751 -0.8301
63184SOL    HW194363   4.306   0.626  12.298 -0.2663 -0.1766 -0.6114
63184SOL    HW294364   4.377   0.649  12.166  1.1975 -0.9389  0.0168
63185SOL     OW94365   4.264   3.142  10.144  0.0015 -0.0625  0.2322
63185SOL    HW194366   4.268   3.070  10.081 -0.0069  1.6824 -1.8898
63185SOL    HW294367   4.198   3.114  10.208 -1.6665 -1.0260 -1.7774
63186SOL     OW94368   2.394   4.984   5.751 -0.0116  0.7856  0.8258
63186SOL    HW194369   2.334   4.957   5.682  0.2100 -0.6430  1.1556
63186SOL    HW294370   2.341   5.041   5.807 -0.1705  2.0260 -0.5276
63187SOL     OW94371   9.618   4.589   7.130 -0.8748 -0.0177 -0.2480
63187SOL    HW194372   9.684   4.645   7.169  0.9830 -0.6710 -2.2727
63187SOL    HW294373   9.582   4.539   7.203  0.8932  0.3383  0.9159
63188SOL     OW94374   1.265   1.190   3.069 -0.3339 -0.3806  0.5848
63188SOL    HW194375   1.174   1.175   3.096 -1.2728  0.5955 -1.7201
63188SOL    HW294376   1.258   1.214   2.976  2.3130 -0.4373  0.3025
63189SOL     OW94377   4.690   8.248   5.813  0.0301  0.0424 -0.0537
63189SOL    HW194378   4.613   8.258   5.868  0.3582 -0.9006  0.5961
63189SOL    HW294379   4.656   8.233   5.725 -0.5109  0.1242  0.1419
63190SOL     OW94380   6.479   2.244   8.627  0.0156  0.1665  0.0229
63190SOL    HW194381   6.524   2.225   8.709  0.7908  0.4213 -0.3353
63190SOL    HW294382   6.546   2.285   8.572 -1.0496  2.1134  0.0673
63191SOL     OW94383   8.737   6.134   2.829 -0.0773  0.5744 -0.3446
63191SOL    HW194384   8.709   6.184   2.752 -2.8428  0.3090  0.4016
63191SOL    HW294385   8.661   6.134   2.887  1.4259 -0.5256  1.7464
63192SOL     OW94386  12.600   5.876   0.276  0.7690 -0.5598  0.4520
63192SOL    HW194387  12.615   5.965   0.308  0.3964 -0.6392  0.8573
63192SOL    HW294388  12.594   5.823   0.356  1.4260 -1.0193  0.2012
63193SOL     OW94389  10.436   3.555   3.789  0.2030 -0.2674  0.8110
63193SOL    HW194390  10.487   3.631   3.815  1.5543 -0.7987 -0.1879
63193SOL    HW294391  10.436   3.558   3.693  1.1028 -2.0448  0.7298
63194SOL     OW94392  11.125   1.723   7.173 -0.0712 -0.3182  0.4411
63194SOL    HW194393  11.129   1.770   7.256  1.2929  0.5031 -0.0568
63194SOL    HW294394  11.181   1.774   7.114 -1.3463 -0.6314 -1.1092
63195SOL     OW94395   5.505   1.078   9.679 -0.2587  0.1164 -0.2319
63195SOL    HW194396   5.492   1.119   9.594 -1.8616 -0.8698 -0.4978
63195SOL    HW294397   5.559   1.001   9.661 -2.6132 -1.4945 -0.8287
63196SOL     OW94398   4.007   1.799   3.787  0.3057 -0.3295  0.5772
63196SOL    HW194399   3.919   1.761   3.796 -0.7997  2.3311  2.8940
63196SOL    HW294400   4.047   1.786   3.873  1.5134  0.0319  0.0912
63197SOL     OW94401   9.451  11.690  11.210 -0.4604 -0.1377 -0.0244
63197SOL    HW194402   9.477  11.695  11.118  1.8567 -0.6851  0.5635
63197SOL    HW294403   9.461  11.780  11.242 -0.4961 -0.1059 -0.1024
63198SOL     OW94404   4.584   6.848   0.912 -0.4375  0.1151  0.8995
63198SOL    HW194405   4.593   6.938   0.943  0.1593  0.1805  0.5737
63198SOL    HW294406   4.571   6.857   0.817  1.8317 -0.1703  0.4811
63199SOL     OW94407   4.739   0.734  10.336  0.5351 -0.2564  0.1141
63199SOL    HW194408   4.786   0.763  10.258  0.7617 -0.2370  0.2547
63199SOL    HW294409   4.654   0.706  10.304 -0.3816  2.2118  0.1859
63200SOL     OW94410   1.088   0.315   8.690  0.3739 -0.2615 -0.2270
63200SOL    HW194411   1.048   0.380   8.632  1.4717  1.0114  0.3778
63200SOL    HW294412   1.138   0.258   8.631  1.4546  0.9991 -0.5816
63201SOL     OW94413   8.965  10.329   5.319 -0.3385 -0.5015 -0.2934
63201SOL    HW194414   9.051  10.289   5.329 -0.1038  0.2564  1.0460
63201SOL    HW294415   8.933  10.340   5.409 -1.3820  0.1737 -0.7211
63202SOL     OW94416   6.482   5.659  10.410 -0.2116 -0.4179  0.5398
63202SOL    HW194417   6.447   5.725  10.469  0.7416  0.1999  0.4491
63202SOL    HW294418   6.532   5.601  10.466 -1.6660 -1.5368  0.7279
63203SOL     OW94419   1.584  11.430   0.032  0.6070 -0.4526  0.1794
63203SOL    HW194420   1.669  11.457   0.067  0.7984  1.0842 -1.3796
63203SOL    HW294421   1.588  11.450  -0.061 -1.6032 -0.0085  0.1244
63204SOL     OW94422  11.207  10.153  10.448 -0.1751  0.5207  0.1966
63204SOL    HW194423  11.281  10.210  10.428  0.4724  0.1897  1.5761
63204SOL    HW294424  11.212  10.138  10.542  0.9730 -3.5357 -0.3253
63205SOL     OW94425   7.246   2.883   0.768 -0.1273  0.1505 -0.2610
63205SOL    HW194426   7.178   2.875   0.701 -0.6540  1.2190  0.1109
63205SOL    HW294427   7.197   2.885   0.851  0.4661 -0.4681  0.1079
63206SOL     OW94428  10.470   1.490  11.597 -0.2850 -0.1543 -0.0858
63206SOL    HW194429  10.565   1.502  11.595 -0.0666 -1.7487 -0.5403
63206SOL    HW294430  10.456   1.406  11.553 -2.0277  0.7543 -1.3871
63207SOL     OW94431  11.528   9.305   0.518  0.4670  0.4545  0.3068
63207SOL    HW194432  11.499   9.309   0.427 -0.8502 -1.5677  0.5578
63207SOL    HW294433  11.579   9.224   0.523 -0.7009 -0.2534  1.6345
63208SOL     OW94434   6.034   0.898   0.491  0.3709  0.0817 -0.6445
63208SOL    HW194435   6.084   0.816   0.494  0.7839  0.0312 -4.3672
63208SOL    HW294436   6.099   0.965   0.470  0.0532  1.5095  2.4445
63209SOL     OW94437   1.903   1.772   0.767  0.7424  0.4110 -0.5532
63209SOL    HW194438   1.874   1.763   0.858  1.0331  2.1675 -0.2487
63209SOL    HW294439   1.945   1.688   0.746 -1.4396 -0.9497  0.1000
63210SOL     OW94440  11.478   8.978   6.591  0.0794  0.6052  0.2359
63210SOL    HW194441  11.505   9.019   6.673  1.1966 -0.7017  0.5582
63210SOL    HW294442  11.451   8.890   6.616  1.7608 -0.3024 -0.9198
63211SOL     OW94443  11.335   2.956   3.141  0.4692  0.6262  0.2453
63211SOL    HW194444  11.429   2.963   3.158  0.4853 -0.5567  0.7719
63211SOL    HW294445  11.302   3.045   3.153  1.6844  1.2939 -1.1157
63212SOL     OW94446   3.033  11.907   2.445  1.1430  0.2803 -0.1617
63212SOL    HW194447   2.990  11.900   2.360 -1.0636 -1.2078  0.9836
63212SOL    HW294448   3.045  12.001   2.458 -2.0876  0.8579 -0.4826
63213SOL     OW94449   1.224   6.118  12.640 -0.3157  0.3192 -0.0227
63213SOL    HW194450   1.218   6.178  12.566 -2.1570  2.0193  1.3942
63213SOL    HW294451   1.150   6.057  12.627  0.9971 -1.1462 -0.9685
63214SOL     OW94452   7.989  10.360  11.151  0.1209  0.1058  0.2895
63214SOL    HW194453   7.984  10.433  11.212 -0.2933  1.1305 -0.9148
63214SOL    HW294454   7.913  10.371  11.094  1.4916  0.3179 -1.6058
63215SOL     OW94455  10.096   5.912  12.312  0.1974  0.4873 -0.4479
63215SOL    HW194456  10.114   5.878  12.399 -0.5637 -0.1024 -0.5033
63215SOL    HW294457  10.084   6.006  12.324  1.3494  0.5974 -0.1219
63216SOL     OW94458   1.909   5.762  12.304  0.0374  0.4351  0.3140
63216SOL    HW194459   1.946   5.747  12.391  0.6547 -0.7518 -0.1331
63216SOL    HW294460   1.982   5.793  12.251 -0.1772  0.4851  0.0456
63217SOL     OW94461  10.150  12.131   7.766 -0.0454 -0.5911 -0.2114
63217SOL    HW194462  10.110  12.212   7.796  0.8608  0.0908 -0.7989
63217SOL    HW294463  10.129  12.126   7.672 -0.2818 -1.1493 -0.1359
63218SOL     OW94464  12.353  10.379   8.835 -0.2976 -0.8110 -0.3681
63218SOL    HW194465  12.383  10.445   8.773 -1.4275 -0.2145 -0.3070
63218SOL    HW294466  12.391  10.406   8.919 -0.0522 -0.7372 -0.5010
63219SOL     OW94467  11.446   8.287   5.393  0.1607  0.5027  0.0245
63219SOL    HW194468  11.410   8.342   5.324  0.0641 -0.7421 -0.9755
63219SOL    HW294469  11.390   8.209   5.393  1.3909 -0.4095  0.0936
63220SOL     OW94470   1.664  11.839   4.083  0.1869 -0.4953 -0.0444
63220SOL    HW194471   1.746  11.841   4.133  0.7524 -1.1711 -0.9066
63220SOL    HW294472   1.647  11.930   4.060 -0.2690 -0.1118  1.6235
63221SOL     OW94473   8.248   7.922   9.891 -0.2732  0.5284  0.7325
63221SOL    HW194474   8.311   7.870   9.840 -1.3641 -3.0337  2.6922
63221SOL    HW294475   8.297   7.952   9.967 -0.3036  0.0162  0.9541
63222SOL     OW94476   0.209   4.508   8.098 -0.3469  0.6561 -0.9209
63222SOL    HW194477   0.278   4.452   8.064  2.0620  1.1623  2.5818
63222SOL    HW294478   0.130   4.454   8.096  1.0180 -1.4285 -1.3008
63223SOL     OW94479   3.840   9.281  10.543  0.0152  0.2584  0.2887
63223SOL    HW194480   3.929   9.248  10.554  0.5807  1.6628  0.1095
63223SOL    HW294481   3.851   9.371  10.512 -1.4721 -0.0645 -1.3404
63224SOL     OW94482   2.191   8.408   5.382 -0.2284 -0.0236  0.1853
63224SOL    HW194483   2.155   8.420   5.295  1.1769 -2.6949 -0.8980
63224SOL    HW294484   2.193   8.313   5.394  0.9505  0.2194  2.5539
63225SOL     OW94485   3.197   6.491   2.544 -0.1675  0.0342 -0.1393
63225SOL    HW194486   3.136   6.533   2.604  0.8625  1.6466 -0.1538
63225SOL    HW294487   3.239   6.563   2.498  0.4487 -1.1000 -1.4293
63226SOL     OW94488   4.022   7.189  11.071 -0.3537 -0.0459  0.3569
63226SOL    HW194489   3.970   7.110  11.054  0.2360 -0.4728  0.4730
63226SOL    HW294490   4.106   7.171  11.028 -0.2166  0.5215  0.3868
63227SOL     OW94491  10.668   2.447   1.217  0.3825 -0.5328 -0.0593
63227SOL    HW194492  10.707   2.501   1.285 -0.1429  1.4180 -1.2270
63227SOL    HW294493  10.579   2.430   1.248  1.2054 -2.7503  1.3602
63228SOL     OW94494   9.088   9.285  10.537  0.8786 -0.4215 -0.2912
63228SOL    HW194495   9.162   9.315  10.589  1.5281 -0.3896 -1.2116
63228SOL    HW294496   9.041   9.365  10.514 -0.5750 -0.5642  1.8810
63229SOL     OW94497   5.067   5.625   2.115  0.1373 -0.1694 -0.1486
63229SOL    HW194498   5.044   5.544   2.160 -0.6179  1.2438  2.1968
63229SOL    HW294499   4.987   5.678   2.120  0.7667  0.9259 -1.1836
63230SOL     OW94500   5.702   1.564   9.376 -0.2040 -0.1555  0.2047
63230SOL    HW194501   5.763   1.516   9.430 -0.3557  1.2737  1.7203
63230SOL    HW294502   5.685   1.645   9.424 -2.2647  0.0833 -0.7836
63231SOL     OW94503  12.449   5.662   7.963  0.1887 -0.1302 -0.0057
63231SOL    HW194504  12.459   5.595   8.031  1.4007 -0.3522 -0.3794
63231SOL    HW294505  12.515   5.640   7.897  0.6271  1.4472 -0.1290
63232SOL     OW94506   5.070   2.706  10.042  0.5577 -0.0382 -0.2769
63232SOL    HW194507   5.132   2.663   9.984 -0.9451  0.6064 -2.5216
63232SOL    HW294508   5.061   2.795  10.007 -1.5891 -0.1090 -0.0848
63233SOL     OW94509   7.774   2.607   6.798 -0.0080  0.1151  0.1908
63233SOL    HW194510   7.692   2.562   6.819 -1.4833  2.0240 -1.0418
63233SOL    HW294511   7.837   2.574   6.861 -2.4696  0.7050  3.2104
63234SOL     OW94512  12.321   0.633   4.975 -0.7452  0.2165  0.4340
63234SOL    HW194513  12.376   0.705   5.007 -0.9001  0.0335  1.1380
63234SOL    HW294514  12.377   0.556   4.980 -0.4382  0.3479 -0.7373
63235SOL     OW94515   0.253   1.789   3.127 -0.0829 -0.1180 -0.1722
63235SOL    HW194516   0.316   1.842   3.077 -0.4134 -0.2093 -0.6984
63235SOL    HW294517   0.222   1.848   3.195  0.4260 -0.0096 -0.0246
63236SOL     OW94518   6.347   8.618   0.427 -0.1936  0.1291  0.3528
63236SOL    HW194519   6.262   8.575   0.414 -0.2929  0.5589 -0.4916
63236SOL    HW294520   6.410   8.545   0.430 -0.5919 -0.1978  1.1152
63237SOL     OW94521  10.769   1.702   2.361  0.5250 -0.4410  0.3988
63237SOL    HW194522  10.799   1.779   2.313 -0.9753 -0.2294 -0.2283
63237SOL    HW294523  10.753   1.734   2.450 -1.0712  0.2280 -0.1101
63238SOL     OW94524   7.592   9.011   6.888  0.5876 -0.4133 -0.2000
63238SOL    HW194525   7.583   8.962   6.806 -0.4005  2.1303 -1.7436
63238SOL    HW294526   7.502   9.036   6.911  1.0579  0.7567  0.4366
63239SOL     OW94527   1.965   7.265   2.188 -0.3573  0.0868 -1.0666
63239SOL    HW194528   1.912   7.314   2.125  1.5199  1.7369 -1.4656
63239SOL    HW294529   1.920   7.277   2.272 -0.7267  1.2807 -1.4171
63240SOL     OW94530   7.516   2.933   5.479 -0.2582  0.0537 -0.0567
63240SOL    HW194531   7.560   3.011   5.512 -0.0972 -1.1621  2.9890
63240SOL    HW294532   7.423   2.949   5.496 -0.1053 -0.9120  1.9832
63241SOL     OW94533  10.489   5.089   7.533  0.3818 -0.5698  1.0308
63241SOL    HW194534  10.511   5.012   7.482  0.6356 -0.5545  1.1108
63241SOL    HW294535  10.535   5.161   7.489  0.4581 -0.5291  1.1733
63242SOL     OW94536   2.594   1.035   0.857 -0.1499  0.2966 -0.1537
63242SOL    HW194537   2.535   1.098   0.816 -0.6661 -0.2345 -0.2387
63242SOL    HW294538   2.621   1.076   0.939  0.9028  1.3884 -1.0007
63243SOL     OW94539  10.306  10.627   8.943 -0.1746 -0.0916  0.4645
63243SOL    HW194540  10.366  10.614   9.016  0.5280  1.2807  0.1730
63243SOL    HW294541  10.224  10.586   8.971  0.4048 -0.5285  1.5634
63244SOL     OW94542   2.509   3.906   4.728  0.5432 -0.0257  0.0116
63244SOL    HW194543   2.531   3.913   4.635 -0.1702  1.0665 -0.1029
63244SOL    HW294544   2.549   3.983   4.768 -1.3960  0.9998  0.1066
63245SOL     OW94545   6.264   8.226   4.198  0.1539  0.1986 -0.3640
63245SOL    HW194546   6.278   8.231   4.292  0.0169  0.0161 -0.3332
63245SOL    HW294547   6.303   8.142   4.172 -2.0341 -0.9938 -0.0553
63246SOL     OW94548  12.223   6.039   7.504 -0.2806  0.2112  0.1158
63246SOL    HW194549  12.195   6.086   7.583 -0.8849  1.8756 -1.0368
63246SOL    HW294550  12.318   6.047   7.504 -0.2815  0.2478  0.6466
63247SOL     OW94551   0.430  10.322   5.691  0.3459 -0.0657 -0.0484
63247SOL    HW194552   0.417  10.284   5.605  0.2917 -0.6879  0.2332
63247SOL    HW294553   0.498  10.388   5.678  0.4109 -0.2285 -0.5437
63248SOL     OW94554   2.627   0.144   0.058 -0.7328  0.2606 -0.7358
63248SOL    HW194555   2.649   0.207  -0.011 -0.1095  0.2245 -0.5831
63248SOL    HW294556   2.648   0.058   0.019  0.7940  0.3082 -0.1111
63249SOL     OW94557   5.456  11.592   1.065 -0.0938 -0.0946  0.1108
63249SOL    HW194558   5.494  11.510   1.035 -1.2381 -0.4022 -0.5630
63249SOL    HW294559   5.531  11.650   1.079  0.6282 -0.6967 -1.0929
63250SOL     OW94560   3.026   3.419  12.401  0.3045 -0.5606 -0.4199
63250SOL    HW194561   3.068   3.486  12.347  1.1459 -1.1081 -0.4728
63250SOL    HW294562   2.933   3.424  12.378 -0.0488  2.0931  1.2061
63251SOL     OW94563   3.638   2.547   1.732 -0.2969  0.0368 -0.4806
63251SOL    HW194564   3.546   2.572   1.719 -0.1004  1.3023  0.4093
63251SOL    HW294565   3.688   2.616   1.688  0.2461  0.3153  0.5568
63252SOL     OW94566  12.576   6.853   2.617  0.1882 -0.0427 -0.1900
63252SOL    HW194567  12.501   6.793   2.617  0.6596 -0.6389 -0.2839
63252SOL    HW294568  12.621   6.834   2.700 -0.7981  1.6352  0.7815
63253SOL     OW94569   5.558   2.228   5.390  0.6349 -0.0873  0.2305
63253SOL    HW194570   5.652   2.235   5.371  0.5967 -0.5978 -0.1700
63253SOL    HW294571   5.551   2.152   5.449  0.6363  0.8750  1.5185
63254SOL     OW94572  12.517   6.570  12.381 -0.4556 -0.2623  0.4767
63254SOL    HW194573  12.550   6.659  12.382 -1.5582  0.1674  1.3809
63254SOL    HW294574  12.553   6.530  12.460 -0.0861 -0.5774  0.1524
63255SOL     OW94575  10.223   2.296   2.659 -0.4955  0.2417 -0.2199
63255SOL    HW194576  10.272   2.291   2.577 -0.6254 -0.7499 -0.2513
63255SOL    HW294577  10.132   2.280   2.633 -0.2533 -2.4485  0.3771
63256SOL     OW94578  10.569   5.898   5.779 -0.2255  0.6519 -0.1047
63256SOL    HW194579  10.505   5.899   5.708 -0.5328 -1.5615  0.0868
63256SOL    HW294580  10.559   5.812   5.819  0.1222  1.7160  2.4672
63257SOL     OW94581   9.799   6.365  10.077 -0.3939  0.3138  0.3956
63257SOL    HW194582   9.757   6.422  10.142  0.3632  1.8675 -0.4240
63257SOL    HW294583   9.726   6.329  10.026 -0.8940  0.4463  1.0015
63258SOL     OW94584   1.270   5.039   6.464 -0.8959  0.0151  0.2503
63258SOL    HW194585   1.205   5.065   6.399 -1.6987  0.6017  1.2587
63258SOL    HW294586   1.354   5.049   6.419 -1.3524  1.5509 -0.3359
63259SOL     OW94587  10.226   5.036  10.942  0.1072 -0.5037  0.1186
63259SOL    HW194588  10.169   5.112  10.954 -1.0116 -1.4406  1.0082
63259SOL    HW294589  10.200   4.999  10.858  1.0488  0.3852 -0.5925
63260SOL     OW94590  10.702  11.440   2.744  0.0050  0.5645 -0.5627
63260SOL    HW194591  10.682  11.347   2.737  0.1736  0.5591 -1.0088
63260SOL    HW294592  10.711  11.470   2.654 -1.0885  1.2482 -0.4569
63261SOL     OW94593   5.308   2.293   7.318  0.4066 -0.0651 -0.0420
63261SOL    HW194594   5.246   2.307   7.389  0.8260 -2.0640  0.7573
63261SOL    HW294595   5.254   2.262   7.245  0.1408  0.8834 -0.2771
63262SOL     OW94596  10.319   3.598  11.269  0.6039  0.3640  0.0543
63262SOL    HW194597  10.335   3.631  11.358 -0.8705  0.8131  0.1808
63262SOL    HW294598  10.315   3.677  11.215  0.1867  0.1803 -0.1829
63263SOL     OW94599   0.380   7.412   7.632 -0.4890 -0.5759 -0.3094
63263SOL    HW194600   0.433   7.445   7.705 -0.0830  0.1717 -0.9390
63263SOL    HW294601   0.375   7.485   7.571 -1.6288 -0.8815 -0.6052
63264SOL     OW94602   9.099   8.824   8.999  0.4418 -0.2315  0.5558
63264SOL    HW194603   9.058   8.755   8.948 -0.3619  0.2313  0.5691
63264SOL    HW294604   9.090   8.796   9.090 -0.4223  0.1661  0.6020
63265SOL     OW94605   8.597   3.603   8.700 -0.4391  0.0987 -0.1642
63265SOL    HW194606   8.540   3.626   8.774  0.4596  1.0871  0.2482
63265SOL    HW294607   8.606   3.508   8.704 -1.5333 -0.0047  0.1407
63266SOL     OW94608   5.751   3.328   7.663 -0.4838  0.8286 -0.3231
63266SOL    HW194609   5.777   3.257   7.723 -1.9777  0.0102 -0.5886
63266SOL    HW294610   5.659   3.345   7.685 -0.5661  1.6821 -1.2647
63267SOL     OW94611   7.189   4.202  10.975 -0.0062 -0.3439 -0.1259
63267SOL    HW194612   7.255   4.261  11.013 -1.4144  1.2029  0.0330
63267SOL    HW294613   7.118   4.201  11.039 -1.1930  0.0356 -1.3956
63268SOL     OW94614   6.979   6.274   1.368 -0.1437  0.2769  0.0468
63268SOL    HW194615   6.959   6.360   1.330 -0.6103  0.8602  1.5650
63268SOL    HW294616   7.071   6.279   1.392  0.1303 -0.0638 -0.8888
63269SOL     OW94617   8.734   8.182   7.862  0.0149 -0.4263 -0.0360
63269SOL    HW194618   8.739   8.089   7.838 -1.2112 -0.6914  0.6881
63269SOL    HW294619   8.651   8.212   7.825 -0.9051 -0.3167  1.9866
63270SOL     OW94620   4.914   2.447   7.788 -0.7094  0.3646 -0.0540
63270SOL    HW194621   4.952   2.362   7.766 -1.2636  0.1382 -0.1421
63270SOL    HW294622   4.983   2.492   7.837  0.1505  0.4451 -1.2941
63271SOL     OW94623   4.776   8.362   0.226  0.4390  0.1377 -0.2496
63271SOL    HW194624   4.709   8.395   0.166  1.2565  1.6160 -0.3814
63271SOL    HW294625   4.727   8.333   0.303 -0.4039  0.6839 -0.5678
63272SOL     OW94626  10.779   2.254   3.837  0.0312 -0.0000  0.1980
63272SOL    HW194627  10.746   2.179   3.886  1.6389 -2.0353 -1.6788
63272SOL    HW294628  10.830   2.304   3.901  0.5730 -1.5667  1.0285
63273SOL     OW94629   4.566   9.221   8.134  0.1259 -0.3001  0.1279
63273SOL    HW194630   4.514   9.141   8.132 -1.3888  0.5915  1.2353
63273SOL    HW294631   4.616   9.216   8.215 -0.5553  0.1990  0.5891
63274SOL     OW94632   7.895  10.090   7.422  0.2476  0.8906  0.1998
63274SOL    HW194633   7.959  10.132   7.480  0.9903 -0.4620  0.3850
63274SOL    HW294634   7.870  10.159   7.360  2.2089  1.3421 -0.1481
63275SOL     OW94635   7.044   0.029   7.490 -0.6098  0.6225  0.0453
63275SOL    HW194636   7.102  -0.027   7.438  0.1107  1.1256  0.2900
63275SOL    HW294637   7.094   0.048   7.569 -0.4960  2.2480 -0.3735
63276SOL     OW94638  10.573  11.185   9.504  0.0403  0.0100 -0.5199
63276SOL    HW194639  10.656  11.232   9.494  0.4567 -0.5562  0.1653
63276SOL    HW294640  10.573  11.156   9.595 -0.4175 -0.9027 -0.7948
63277SOL     OW94641   2.721  12.382   4.368 -0.4705 -0.3698  0.2871
63277SOL    HW194642   2.647  12.323   4.388 -2.5156  1.5245 -1.2065
63277SOL    HW294643   2.741  12.424   4.452 -0.0453 -1.9515  1.0258
63278SOL     OW94644   7.397  11.246  10.016 -0.5972 -0.9512 -0.0539
63278SOL    HW194645   7.345  11.317   9.977  1.6137  1.0618  0.4036
63278SOL    HW294646   7.425  11.193   9.941 -0.4819 -0.0466 -0.6669
63279SOL     OW94647   9.263   3.917   1.692  0.7937 -0.1633  0.2289
63279SOL    HW194648   9.277   3.864   1.770 -1.1814 -0.0392  0.7206
63279SOL    HW294649   9.288   3.859   1.619 -1.6496 -1.9960  0.7186
63280SOL     OW94650   2.268   7.235   7.544  0.3073  0.7246  0.0639
63280SOL    HW194651   2.214   7.158   7.565 -0.7346  1.3275 -0.3217
63280SOL    HW294652   2.308   7.259   7.628 -0.7580  0.8080  0.5661
63281SOL     OW94653  12.062   4.819   7.950  0.1919  0.3087 -0.8197
63281SOL    HW194654  12.144   4.822   7.900  0.7189 -1.0810 -0.0924
63281SOL    HW294655  12.053   4.907   7.986  1.0581  0.6499 -1.3983
63282SOL     OW94656   8.094   3.327  11.715 -0.1573  0.2950  0.3987
63282SOL    HW194657   8.188   3.310  11.705  0.5086  2.7280  1.7617
63282SOL    HW294658   8.054   3.284  11.640  1.8949 -1.8063  0.3992
63283SOL     OW94659   2.244   3.521   2.709 -0.3532  0.1349  0.0055
63283SOL    HW194660   2.259   3.615   2.724  0.1468  0.0603 -0.0102
63283SOL    HW294661   2.314   3.478   2.758 -0.5766 -0.2320  0.0020
63284SOL     OW94662   7.572   2.190   7.302  0.1953  0.2388  0.4706
63284SOL    HW194663   7.642   2.150   7.352  0.7857  0.4955 -0.1258
63284SOL    HW294664   7.566   2.280   7.335  1.2127  0.6962 -0.5134
63285SOL     OW94665   9.828   3.212   8.807  0.3368 -0.2540 -0.3232
63285SOL    HW194666   9.876   3.260   8.740  2.9783 -0.8792  0.9699
63285SOL    HW294667   9.824   3.272   8.882  0.0701 -0.6147 -0.0448
63286SOL     OW94668   3.900   5.826   3.504 -0.3237 -0.2897  0.3676
63286SOL    HW194669   3.960   5.751   3.508 -1.8250 -1.5110  1.5013
63286SOL    HW294670   3.928   5.882   3.577  0.9897  0.4606 -0.6609
63287SOL     OW94671  11.052  10.652   1.531  0.5953 -0.1266 -0.4291
63287SOL    HW194672  11.098  10.574   1.499  1.4538  0.2318 -0.0817
63287SOL    HW294673  11.119  10.703   1.575 -0.2775  0.0762  0.7143
63288SOL     OW94674   2.573   5.873  11.686 -0.2139  0.2216 -0.3970
63288SOL    HW194675   2.538   5.871  11.775  0.6275 -0.0744 -0.0656
63288SOL    HW294676   2.597   5.782  11.668 -0.7768  0.1958 -1.0973
63289SOL     OW94677   5.066   6.208  11.734 -0.0277 -0.5502  0.5320
63289SOL    HW194678   5.084   6.202  11.640  0.7245 -1.0037  0.7007
63289SOL    HW294679   5.148   6.238  11.772  0.0124 -1.4315  1.1682
63290SOL     OW94680   0.363   3.460   0.532 -0.2713 -0.9376  0.0105
63290SOL    HW194681   0.428   3.519   0.493 -1.3509  1.1457  1.2333
63290SOL    HW294682   0.280   3.488   0.495 -1.2059  0.4737  2.9401
63291SOL     OW94683   0.230   4.966   9.344 -0.2338  0.1096 -0.0335
63291SOL    HW194684   0.305   4.957   9.402 -0.3982  2.6992  0.6810
63291SOL    HW294685   0.269   4.980   9.257  0.1317  1.1433  0.2827
63292SOL     OW94686   4.698   7.289   1.967  0.2016 -0.1971 -0.2376
63292SOL    HW194687   4.696   7.282   2.062  0.3412 -1.7189 -0.3225
63292SOL    HW294688   4.612   7.325   1.944 -0.0169 -0.2719  0.4386
63293SOL     OW94689  10.071   0.212   0.379 -0.0643  0.1346  0.2374
63293SOL    HW194690  10.001   0.225   0.315 -0.3498 -0.3692  0.4428
63293SOL    HW294691  10.142   0.172   0.329 -0.5228 -0.8636  0.3544
63294SOL     OW94692   1.744   4.944   8.767  0.2281  0.4360  0.2231
63294SOL    HW194693   1.797   4.937   8.688 -0.3116  1.0149 -0.2124
63294SOL    HW294694   1.670   5.000   8.740 -0.2707  0.1472  0.9728
63295SOL     OW94695   8.145   5.212   6.508 -0.0045 -0.3071  0.8345
63295SOL    HW194696   8.222   5.157   6.496 -2.6255 -3.9930 -0.9248
63295SOL    HW294697   8.115   5.231   6.419 -1.5406  0.4609  1.4698
63296SOL     OW94698   8.590   2.258   8.604 -0.0387  0.0833 -0.1834
63296SOL    HW194699   8.601   2.177   8.655  1.0980 -0.2836 -0.9576
63296SOL    HW294700   8.589   2.229   8.513  2.6332  1.0729 -0.6198
63297SOL     OW94701   6.009   5.278  10.925 -0.6614  0.2651  0.3838
63297SOL    HW194702   5.916   5.294  10.940 -0.4020  1.5908  0.6873
63297SOL    HW294703   6.028   5.320  10.841  0.0799  1.8222  1.2858
63298SOL     OW94704   8.876   1.912   9.713 -0.1771  0.2110  0.5140
63298SOL    HW194705   8.966   1.940   9.724 -0.0357 -0.4030  0.9882
63298SOL    HW294706   8.881   1.839   9.651 -0.7324  2.2939 -2.1955
63299SOL     OW94707  10.109   0.671  10.466 -0.2001  0.5074 -0.3354
63299SOL    HW194708  10.054   0.597  10.492  0.6413 -0.1347 -0.3380
63299SOL    HW294709  10.161   0.637  10.393  0.9221  0.7866  0.3249
63300SOL     OW94710   4.657   4.117  12.286  0.5594 -0.7422  0.7799
63300SOL    HW194711   4.737   4.152  12.247  1.8192 -2.3626  1.8333
63300SOL    HW294712   4.621   4.190  12.337  1.2523  0.0474  0.1575
63301SOL     OW94713   7.688   3.916   4.602  0.2203  0.1323 -0.2761
63301SOL    HW194714   7.663   3.883   4.689  0.7080  1.0990  0.2410
63301SOL    HW294715   7.732   3.841   4.561  0.5625 -0.1411  0.5571
63302SOL     OW94716   0.386   6.578   5.869  0.1884  0.6348 -0.3377
63302SOL    HW194717   0.431   6.509   5.917 -0.2760  0.4567 -0.1522
63302SOL    HW294718   0.344   6.533   5.796 -1.1540  0.5139  0.4876
63303SOL     OW94719  11.535   7.733   6.599  0.1610 -0.3427  0.4126
63303SOL    HW194720  11.552   7.649   6.641  0.2483 -0.3811  0.3022
63303SOL    HW294721  11.461   7.769   6.647  0.2798 -0.3719  0.6173
63304SOL     OW94722   5.315   3.352   8.252  0.3048 -0.0187 -0.0139
63304SOL    HW194723   5.235   3.314   8.218  2.0432 -2.5454 -1.5667
63304SOL    HW294724   5.320   3.320   8.342 -1.0336  1.3069  0.5844
63305SOL     OW94725   4.809   9.138   6.620  0.3570  0.3435 -0.2984
63305SOL    HW194726   4.745   9.119   6.551  0.3589 -0.3958 -0.1056
63305SOL    HW294727   4.767   9.205   6.674  0.0437  0.3780 -0.5843
63306SOL     OW94728   2.906   4.637   2.545  0.1052  0.0591  0.0224
63306SOL    HW194729   2.885   4.648   2.452 -0.6762 -0.7862  0.0802
63306SOL    HW294730   2.828   4.669   2.591  1.5375  3.1781  0.5560
63307SOL     OW94731   7.289   2.646   7.332 -0.8043 -0.3981 -0.1232
63307SOL    HW194732   7.344   2.594   7.390 -0.0049 -0.3313 -0.8001
63307SOL    HW294733   7.346   2.668   7.258 -1.5040  0.3582 -0.4568
63308SOL     OW94734   8.166   0.343  10.551 -0.3058 -0.2981 -0.6759
63308SOL    HW194735   8.121   0.300  10.625 -1.3653 -0.3682 -1.3438
63308SOL    HW294736   8.096   0.364  10.490  0.3265  1.4163 -0.8639
63309SOL     OW94737  11.800   6.440   9.210 -0.5042  0.2628 -0.4566
63309SOL    HW194738  11.732   6.499   9.178 -0.9097  0.6291  0.9925
63309SOL    HW294739  11.779   6.429   9.303  1.0333 -0.1643 -0.1439
63310SOL     OW94740   9.599  11.202   4.574 -0.2518 -0.2871 -0.1697
63310SOL    HW194741   9.658  11.171   4.505 -0.0279  1.7207 -0.9583
63310SOL    HW294742   9.651  11.199   4.654 -0.4108 -2.3411 -0.0961
63311SOL     OW94743   1.074   4.624  12.130  0.1618 -0.0917 -0.6663
63311SOL    HW194744   1.049   4.711  12.162  1.0441  0.1358 -0.5718
63311SOL    HW294745   0.995   4.571  12.142  0.3258  0.0659  1.6270
63312SOL     OW94746   4.362  10.554  12.045 -0.4718 -0.4459 -0.2859
63312SOL    HW194747   4.334  10.564  11.954 -0.0386 -3.1095 -0.7877
63312SOL    HW294748   4.446  10.600  12.049 -0.9286  0.4846 -0.9414
63313SOL     OW94749   8.484   7.817   3.349  0.6648 -0.1354 -0.1511
63313SOL    HW194750   8.452   7.885   3.289  2.2092  3.6717  2.8439
63313SOL    HW294751   8.417   7.811   3.417  1.4992  0.0874  0.7221
63314SOL     OW94752   5.174   0.518  11.123  0.2649  0.5496  0.9654
63314SOL    HW194753   5.137   0.551  11.041  2.1670 -1.6463 -0.9243
63314SOL    HW294754   5.268   0.517  11.109  0.6348 -0.2261  3.0700
63315SOL     OW94755   0.046   1.080   1.091  0.2441  0.1722  0.2833
63315SOL    HW194756   0.135   1.045   1.079  0.2473 -0.0107  0.8192
63315SOL    HW294757   0.053   1.137   1.167  0.5484  2.4798 -1.3703
63316SOL     OW94758   9.495   0.894   6.153  0.5583 -0.0252 -0.3895
63316SOL    HW194759   9.480   0.800   6.146  0.6864 -0.1271  0.6397
63316SOL    HW294760   9.413   0.933   6.122  0.5194 -0.4638 -0.8650
63317SOL     OW94761   1.664  12.442   1.487  0.3962  0.0202  0.1425
63317SOL    HW194762   1.645  12.525   1.443  1.1674 -0.9922 -2.2646
63317SOL    HW294763   1.581  12.394   1.483  0.9503 -0.8991 -2.3080
63318SOL     OW94764   2.713   3.301   8.289 -0.1478 -0.0759  0.0671
63318SOL    HW194765   2.625   3.319   8.257  0.4742  1.2628 -0.9921
63318SOL    HW294766   2.727   3.368   8.357  1.1444  1.7868 -1.9240
63319SOL     OW94767   1.073  10.393   0.245  0.3304  0.2516  0.0255
63319SOL    HW194768   1.110  10.342   0.173 -0.7682  1.5575 -1.5370
63319SOL    HW294769   1.010  10.451   0.203 -1.2638  0.2082  2.2193
63320SOL     OW94770   3.068   5.105   7.473  0.3667  0.1158 -0.0658
63320SOL    HW194771   2.991   5.083   7.524 -0.5028  1.7339 -0.6063
63320SOL    HW294772   3.080   5.199   7.486  2.0649 -0.0274 -0.2647
63321SOL     OW94773   5.279   3.383   0.174 -0.8035 -0.2425  0.1286
63321SOL    HW194774   5.311   3.378   0.083  0.7887  3.8979  0.2696
63321SOL    HW294775   5.339   3.326   0.222  0.1547 -0.2750 -1.0389
63322SOL     OW94776   5.220   9.012   5.860 -0.0941 -0.1894  0.7207
63322SOL    HW194777   5.307   8.987   5.891  0.4159  0.3570 -0.2195
63322SOL    HW294778   5.230   9.020   5.765 -0.9545  0.7449  0.6968
63323SOL     OW94779   9.024   2.046  11.186 -0.0945 -0.2817  0.2066
63323SOL    HW194780   9.085   2.046  11.260 -0.3049  0.2838  0.3870
63323SOL    HW294781   8.938   2.055  11.226 -0.1559  0.8339 -0.1366
63324SOL     OW94782   7.919   2.459   3.575  0.2232 -0.3804  0.8605
63324SOL    HW194783   7.949   2.467   3.485 -1.3424  0.9836  0.4066
63324SOL    HW294784   7.897   2.366   3.585  1.3844 -0.7487  0.1977
63325SOL     OW94785   9.590  12.210   1.222  0.1044  0.3065  0.1465
63325SOL    HW194786   9.545  12.209   1.138  1.9267 -1.2355 -0.8717
63325SOL    HW294787   9.673  12.255   1.205  1.2801 -1.5580  0.6060
63326SOL     OW94788   7.969  10.558  12.599 -0.4349  0.1559 -0.1686
63326SOL    HW194789   8.000  10.532  12.686  0.9851  0.6974 -0.4966
63326SOL    HW294790   7.887  10.510  12.588 -0.1561 -0.6563  1.0793
63327SOL     OW94791   8.670  10.413  10.267  0.2106 -0.3071  0.5247
63327SOL    HW194792   8.680  10.451  10.180  0.0422  1.8588  1.3879
63327SOL    HW294793   8.738  10.456  10.320 -0.7013 -0.3983  1.8099
63328SOL     OW94794   5.101   8.896   5.644  0.2650  0.3493  0.1089
63328SOL    HW194795   5.044   8.972   5.661 -0.5904  0.0861 -1.3613
63328SOL    HW294796   5.049   8.821   5.672  1.2492  0.2791  1.8939
63329SOL     OW94797   0.486   6.144   2.507  0.6348 -0.0016 -0.0396
63329SOL    HW194798   0.491   6.061   2.553 -0.7994 -1.2508 -2.0093
63329SOL    HW294799   0.483   6.121   2.414 -3.3150  1.9193 -0.6105
63330SOL     OW94800   3.398   6.114   6.827 -0.2923  0.5076  0.1987
63330SOL    HW194801   3.487   6.101   6.796 -0.1929 -0.3940  0.8151
63330SOL    HW294802   3.359   6.026   6.827 -0.6408  0.6360  1.5067
63331SOL     OW94803   3.581  10.464   4.131 -0.4682  0.1066  0.0187
63331SOL    HW194804   3.501  10.498   4.091 -1.9958  0.1256  2.8617
63331SOL    HW294805   3.645  10.534   4.120 -1.0580  0.4513 -1.5212
63332SOL     OW94806  12.265   6.631   9.671  0.2005 -0.1622 -0.1419
63332SOL    HW194807  12.191   6.671   9.718  0.5129  1.0513 -0.6426
63332SOL    HW294808  12.259   6.538   9.692 -1.7791 -0.1733 -0.5691
63333SOL     OW94809   2.843  11.238   6.327  0.0077  0.3247  0.1654
63333SOL    HW194810   2.907  11.167   6.319  0.7236  0.9833 -0.0958
63333SOL    HW294811   2.880  11.309   6.275 -0.2517  1.2041  1.1659
63334SOL     OW94812   0.937   2.262   4.337  0.5356 -0.0202  0.2467
63334SOL    HW194813   0.965   2.297   4.421  1.9738  1.1697 -0.6823
63334SOL    HW294814   0.894   2.179   4.358 -0.9161  1.1775  2.3127
63335SOL     OW94815   1.445  12.454  10.723  0.1455 -0.0730  0.0262
63335SOL    HW194816   1.383  12.382  10.716  0.6440 -0.4229 -0.9143
63335SOL    HW294817   1.415  12.504  10.799 -1.9707  0.4020 -1.0231
63336SOL     OW94818   8.481   3.265   4.594 -0.0411  0.2189  0.0584
63336SOL    HW194819   8.540   3.337   4.619 -1.3695  1.6760 -0.8337
63336SOL    HW294820   8.448   3.231   4.677  0.7736  0.4818  0.5020
63337SOL     OW94821   5.154  11.964  10.779 -0.2064 -0.4605 -0.9011
63337SOL    HW194822   5.194  11.877  10.778 -1.0070 -0.8934  1.1918
63337SOL    HW294823   5.221  12.021  10.817 -0.3428 -0.5088 -0.5913
63338SOL     OW94824   4.977   7.706   2.388  0.3635  0.2038 -0.5997
63338SOL    HW194825   4.975   7.675   2.297  2.2726 -1.6457 -0.0849
63338SOL    HW294826   4.946   7.631   2.439  1.2032  0.5386  0.4231
63339SOL     OW94827   0.621   7.534   2.535 -0.6138 -0.0315 -0.3529
63339SOL    HW194828   0.697   7.589   2.555 -0.6390  0.3343 -1.1892
63339SOL    HW294829   0.658   7.451   2.506 -0.5674 -0.3378  0.5676
63340SOL     OW94830   7.600   2.914   8.020 -0.3363 -0.2666  0.7949
63340SOL    HW194831   7.600   2.842   7.956 -0.2364 -0.3272  0.8622
63340SOL    HW294832   7.524   2.897   8.075 -0.1347 -0.4970  1.0066
63341SOL     OW94833   0.241   5.800   3.178 -0.1228  0.0575 -0.0505
63341SOL    HW194834   0.275   5.887   3.157  0.1177  0.1592  0.7165
63341SOL    HW294835   0.207   5.809   3.267  0.8988 -0.9150  0.4686
63342SOL     OW94836   5.515  11.193   6.256  0.1558  0.1466 -0.2397
63342SOL    HW194837   5.525  11.230   6.343  2.1502 -2.4363  0.7614
63342SOL    HW294838   5.422  11.203   6.235 -0.4748  0.3732  2.3892
63343SOL     OW94839   0.198  11.035  11.596  0.2705 -0.1816 -0.0885
63343SOL    HW194840   0.104  11.051  11.605 -0.0072 -1.6752 -0.1306
63343SOL    HW294841   0.205  10.942  11.576  1.7238  0.0603 -0.8640
63344SOL     OW94842   1.944   3.353   4.630 -1.3294  0.1653  0.2427
63344SOL    HW194843   1.894   3.272   4.641  1.1792 -1.3030  1.7935
63344SOL    HW294844   1.923   3.404   4.709  0.5870 -1.1177  1.6883
63345SOL     OW94845   0.792   0.576   1.008  0.2652 -0.0465  0.2331
63345SOL    HW194846   0.731   0.530   0.951 -1.2577  1.3028  0.7023
63345SOL    HW294847   0.855   0.617   0.948 -0.8995  0.7775 -0.4661
63346SOL     OW94848   4.795  10.212  11.320 -0.5411  0.1135 -0.0436
63346SOL    HW194849   4.847  10.269  11.264 -2.8927  2.1778 -0.3002
63346SOL    HW294850   4.762  10.144  11.261  1.3066 -0.9002  0.0192
63347SOL     OW94851   1.913   0.948   7.691 -0.3385 -0.2934  0.6992
63347SOL    HW194852   1.884   0.968   7.602  2.2580 -1.3474 -0.4884
63347SOL    HW294853   1.834   0.923   7.738 -2.2373  2.9540 -0.4541
63348SOL     OW94854   6.069  11.796   2.166  0.1037  0.1663 -0.1391
63348SOL    HW194855   6.061  11.840   2.081  3.4757 -0.2534 -0.8270
63348SOL    HW294856   6.043  11.863   2.230 -0.9652  1.0161 -1.4044
63349SOL     OW94857   4.372   9.912   5.852  0.8597  0.0115 -0.5337
63349SOL    HW194858   4.468   9.916   5.849  0.9250 -0.5481  0.2635
63349SOL    HW294859   4.346   9.885   5.764  1.5201 -0.9510 -0.4548
63350SOL     OW94860   3.631  12.297  10.468  0.1758 -0.5538 -0.0002
63350SOL    HW194861   3.633  12.356  10.392 -1.6076  0.4531  0.6642
63350SOL    HW294862   3.656  12.352  10.542  1.4782 -1.4250  0.2371
63351SOL     OW94863   7.566   0.640   4.100 -0.3683 -0.1279 -0.1572
63351SOL    HW194864   7.622   0.687   4.039 -1.1090  0.0709 -0.7029
63351SOL    HW294865   7.625   0.611   4.170  0.5073 -0.4572 -1.0151
63352SOL     OW94866   5.670   4.155   6.947  0.2943  0.3193 -0.1454
63352SOL    HW194867   5.687   4.248   6.936  0.1843  0.4688  0.8695
63352SOL    HW294868   5.576   4.145   6.936  0.3251  0.2945 -0.4090
63353SOL     OW94869   3.424   4.571   8.408  0.0195  0.4488 -0.1336
63353SOL    HW194870   3.483   4.645   8.395 -1.7433  1.9995  0.2259
63353SOL    HW294871   3.450   4.507   8.341 -0.2323  2.5887 -2.4251
63354SOL     OW94872   2.940   7.997   6.822 -0.2940 -0.3240 -0.2496
63354SOL    HW194873   2.966   7.912   6.787  0.5820 -0.8357  1.4982
63354SOL    HW294874   3.022   8.041   6.842 -0.7470  0.6961 -0.5909
63355SOL     OW94875   5.445   1.461  11.899  0.1716  0.1940 -0.3057
63355SOL    HW194876   5.474   1.498  11.815  1.0808  0.7282  0.2298
63355SOL    HW294877   5.361   1.504  11.916 -1.4040 -1.9061 -2.2311
63356SOL     OW94878  11.748   8.120   3.413  0.2277 -0.3251 -0.5467
63356SOL    HW194879  11.750   8.191   3.349  1.2202 -0.3062 -0.4999
63356SOL    HW294880  11.812   8.145   3.480 -0.3049 -0.6723  0.1155
63357SOL     OW94881   8.709   3.515  11.838  0.0241 -0.2731  0.5539
63357SOL    HW194882   8.617   3.543  11.835  0.2935  0.6021  0.0897
63357SOL    HW294883   8.721   3.463  11.759 -0.0673 -0.3757  0.6073
63358SOL     OW94884   6.381   0.966   4.914 -0.1057 -0.1711  0.2579
63358SOL    HW194885   6.393   0.969   5.009  0.6873  0.4567  0.1520
63358SOL    HW294886   6.290   0.941   4.902  0.0716 -1.3663  1.1745
63359SOL     OW94887  12.573   6.343   9.708  0.4064 -0.2231  0.5468
63359SOL    HW194888  12.586   6.285   9.633  0.1463 -0.8640  0.9813
63359SOL    HW294889  12.645   6.322   9.767  1.1134  0.9038  0.1092
63360SOL     OW94890   4.160  10.508  12.249 -0.3908  0.4760 -0.2268
63360SOL    HW194891   4.204  10.556  12.179 -0.8391  0.3326 -0.6122
63360SOL    HW294892   4.229  10.455  12.288 -0.0995  0.6853 -0.4500
63361SOL     OW94893   8.067  12.349   4.322  0.7988 -0.1066 -0.2117
63361SOL    HW194894   8.086  12.269   4.273  0.6619 -0.2021 -0.1095
63361SOL    HW294895   8.061  12.321   4.413 -1.6405 -0.4189 -0.4059
63362SOL     OW94896   4.974   2.638   3.899 -0.1472 -0.2637 -0.0410
63362SOL    HW194897   4.997   2.710   3.959  0.2598 -0.5051  0.1010
63362SOL    HW294898   5.009   2.665   3.814  1.2839 -0.9125  0.3047
63363SOL     OW94899  12.621   5.133   9.641  0.2451  0.5483 -0.2636
63363SOL    HW194900  12.535   5.093   9.629 -0.2083  0.7604  1.9505
63363SOL    HW294901  12.669   5.111   9.560 -2.1738  1.3030 -2.0017
63364SOL     OW94902   0.085   5.617   8.911  0.1457  0.2389  0.4925
63364SOL    HW194903   0.055   5.707   8.901  0.0044  0.1943  0.5178
63364SOL    HW294904   0.179   5.621   8.891 -0.2435  0.0282 -1.5441
63365SOL     OW94905   2.588  10.185   5.331  0.2690  0.4991 -0.1703
63365SOL    HW194906   2.529  10.148   5.396  1.4011 -0.7584  0.1837
63365SOL    HW294907   2.539  10.182   5.249  0.2331 -1.6785 -0.1265
63366SOL     OW94908  12.119   5.356  10.107 -0.5910 -0.0045  0.4992
63366SOL    HW194909  12.129   5.280  10.163 -0.0494  0.9438  1.7349
63366SOL    HW294910  12.142   5.430  10.162 -2.4423  1.2129 -0.2311
63367SOL     OW94911   9.373  10.778   5.624 -0.2226  0.5629  0.8945
63367SOL    HW194912   9.454  10.728   5.627 -1.3344 -1.6470 -1.6554
63367SOL    HW294913   9.385  10.839   5.551 -1.1203 -0.4140 -0.1081
63368SOL     OW94914   6.735   7.365   5.999  0.3281 -0.2607 -0.2033
63368SOL    HW194915   6.826   7.358   5.969  0.9544  0.6104  1.3582
63368SOL    HW294916   6.742   7.375   6.094 -1.3214  1.3318 -0.1986
63369SOL     OW94917   0.629   9.032   0.785 -0.0066 -0.4440  0.1504
63369SOL    HW194918   0.701   9.054   0.844  0.9277  1.1987 -1.4838
63369SOL    HW294919   0.553   9.075   0.823  0.3548 -0.2773  0.6963
63370SOL     OW94920   9.305   7.002   9.172  0.7478  0.4600 -0.5612
63370SOL    HW194921   9.220   7.029   9.138  0.8351  1.1763 -0.2323
63370SOL    HW294922   9.339   6.943   9.105 -0.4430 -0.6611 -0.2136
63371SOL     OW94923   4.403   1.780   1.628  0.0306  1.0823 -0.1804
63371SOL    HW194924   4.319   1.738   1.613  0.4511 -0.0052  0.3982
63371SOL    HW294925   4.385   1.848   1.693 -0.4256  0.9342 -0.1527
63372SOL     OW94926   9.017  10.349   7.180  0.6557 -0.1004  0.4152
63372SOL    HW194927   9.030  10.384   7.268  1.6160  0.8321 -0.0757
63372SOL    HW294928   9.005  10.426   7.125 -0.1366 -0.6847 -0.2552
63373SOL     OW94929  12.537   1.689   6.472 -0.1133 -0.2809 -0.1281
63373SOL    HW194930  12.596   1.728   6.408  1.5928 -0.9962  0.9389
63373SOL    HW294931  12.593   1.635   6.527 -1.8606 -1.4438  0.6199
63374SOL     OW94932   8.080   7.351   0.463 -0.1019  0.4764  0.4268
63374SOL    HW194933   7.996   7.374   0.501  1.3223  2.9599  2.3750
63374SOL    HW294934   8.095   7.416   0.394  0.5229  0.5140  0.5861
63375SOL     OW94935   4.530   2.455   7.146 -1.1036  0.0797 -0.1709
63375SOL    HW194936   4.625   2.468   7.143 -0.8941 -0.2619  2.6310
63375SOL    HW294937   4.514   2.382   7.087  0.1654  0.9662 -1.6898
63376SOL     OW94938   9.234   6.808   6.662 -0.2378 -0.4596 -0.4578
63376SOL    HW194939   9.268   6.888   6.622 -1.0567  0.3452  0.3987
63376SOL    HW294940   9.180   6.839   6.734 -1.4532 -1.7696 -0.7768
63377SOL     OW94941   1.013   3.667   9.338  0.8697  1.0029  0.2119
63377SOL    HW194942   1.039   3.583   9.375 -1.0944  0.0145 -0.4881
63377SOL    HW294943   0.938   3.694   9.390  0.5397  1.5483 -0.5265
63378SOL     OW94944   1.754   4.458  11.845 -0.1782 -0.4133  0.0580
63378SOL    HW194945   1.685   4.422  11.901  0.5885 -0.9782  0.6775
63378SOL    HW294946   1.736   4.552  11.840  0.0128 -0.2651  1.6980
63379SOL     OW94947   6.131   0.860   4.943 -0.2700 -0.3165  0.1588
63379SOL    HW194948   6.054   0.916   4.935 -0.9010 -1.0861  0.7406
63379SOL    HW294949   6.096   0.772   4.953  0.6963 -0.7124  0.1418
63380SOL     OW94950   4.868   2.325   9.447  0.1900  0.0682 -0.7168
63380SOL    HW194951   4.865   2.385   9.522  0.5400 -0.1658 -0.5096
63380SOL    HW294952   4.954   2.342   9.407  0.0763  0.0683 -0.9592
63381SOL     OW94953   2.112  10.827  10.231  0.3271  0.0693 -0.0698
63381SOL    HW194954   2.093  10.846  10.140  0.4797  0.6382  0.0159
63381SOL    HW294955   2.047  10.877  10.280  0.1992 -0.2912  0.1345
63382SOL     OW94956   9.978   4.084   3.269  0.1516  0.0410  0.1233
63382SOL    HW194957  10.029   4.090   3.189 -1.1898  1.6712 -0.6863
63382SOL    HW294958  10.017   4.149   3.328  1.0059 -1.0097  0.7597
63383SOL     OW94959  10.555   0.809   6.900 -0.0659 -0.2875  0.0474
63383SOL    HW194960  10.619   0.792   6.830  1.2156 -1.7834  1.4987
63383SOL    HW294961  10.554   0.728   6.951 -0.8552  0.8133  1.8651
63384SOL     OW94962   7.747   5.720   9.227 -0.2947 -0.1448 -0.0927
63384SOL    HW194963   7.722   5.738   9.136 -1.2290  2.4750  0.5977
63384SOL    HW294964   7.816   5.783   9.246 -1.1980  0.4247  1.4654
63385SOL     OW94965   6.190   6.012   4.211  1.0224 -0.0049  0.1027
63385SOL    HW194966   6.144   6.082   4.258  0.3580 -0.5586  0.2991
63385SOL    HW294967   6.155   6.016   4.122  0.3101 -0.6432  0.3357
63386SOL     OW94968  12.452   6.810  10.735 -0.8170 -0.6566  0.7466
63386SOL    HW194969  12.472   6.809  10.829  0.8380 -0.5867  0.4234
63386SOL    HW294970  12.476   6.898  10.707  0.4914 -1.2446 -0.0754
63387SOL     OW94971   9.714   0.551   9.220  0.5180 -0.3654  0.0777
63387SOL    HW194972   9.656   0.545   9.296 -0.0172  0.4894 -0.2416
63387SOL    HW294973   9.663   0.601   9.156  1.4311 -0.0339 -0.3986
63388SOL     OW94974   4.289   9.831   5.603  0.6125 -0.1023 -0.1171
63388SOL    HW194975   4.248   9.904   5.557 -0.0463 -1.5990 -2.0614
63388SOL    HW294976   4.218   9.790   5.652  0.6632 -0.2840 -0.1931
63389SOL     OW94977   9.063   7.344  10.637  0.3557  0.0750  0.3388
63389SOL    HW194978   9.047   7.437  10.626  2.8070  0.4754 -0.3501
63389SOL    HW294979   9.128   7.322  10.570 -0.2573 -2.1644  0.3972
63390SOL     OW94980   7.212   0.325   7.299 -0.9780 -0.2078 -0.0558
63390SOL    HW194981   7.221   0.372   7.217 -1.6994  0.3301  0.1678
63390SOL    HW294982   7.125   0.347   7.331 -0.2547  0.6360  1.4835
63391SOL     OW94983  12.512   1.333   1.013 -0.1672 -0.0817 -0.0127
63391SOL    HW194984  12.603   1.307   1.025 -0.7220 -1.6161  1.3272
63391SOL    HW294985  12.499   1.406   1.073  0.0758 -0.1540  0.1277
63392SOL     OW94986  10.599   7.278   4.329 -0.1959  0.0508 -0.6863
63392SOL    HW194987  10.557   7.302   4.412  2.6081 -2.6854  1.8189
63392SOL    HW294988  10.568   7.189   4.312  0.6011 -0.0605 -1.6335
63393SOL     OW94989   6.927   1.930  11.776  0.1415  0.2345 -0.4627
63393SOL    HW194990   7.022   1.923  11.767  0.4800  1.6067  1.3934
63393SOL    HW294991   6.904   1.865  11.842 -0.1939  0.0216 -0.7856
63394SOL     OW94992   7.950   9.791   6.171  0.4444 -0.0940  0.6017
63394SOL    HW194993   7.924   9.851   6.101  0.5961  1.1557  1.5830
63394SOL    HW294994   7.869   9.746   6.195  0.4854 -0.9117 -0.6967
63395SOL     OW94995   3.964  11.553   0.899 -0.1289 -0.1922 -0.0226
63395SOL    HW194996   3.930  11.636   0.866  0.5507  0.0448 -0.1441
63395SOL    HW294997   3.958  11.493   0.824  1.9329  0.4935 -0.7823
63396SOL     OW94998   6.816   9.839   2.632 -0.2051  1.0539 -0.2013
63396SOL    HW194999   6.841   9.924   2.667  1.7236  0.3269  0.3039
63396SOL    HW295000   6.800   9.785   2.710  0.5783  0.4087 -0.4761
63397SOL     OW95001  11.642   9.733   9.092  0.0867 -0.0530 -0.3725
63397SOL    HW195002  11.579   9.791   9.050 -0.6616  0.3383  1.2179
63397SOL    HW295003  11.715   9.728   9.030  0.3606  2.8982 -0.4630
63398SOL     OW95004  10.813   4.091   7.963  0.3382  0.0260  0.2355
63398SOL    HW195005  10.873   4.073   8.035 -0.1710  3.0196  1.5805
63398SOL    HW295006  10.730   4.114   8.005  0.0114  1.8561 -1.2176
63399SOL     OW95007  10.222   3.242   8.575  0.4333 -0.0666  0.0522
63399SOL    HW195008  10.241   3.314   8.636  1.2551  0.1003 -0.3824
63399SOL    HW295009  10.169   3.283   8.507  0.7707  0.1074 -0.1142
63400SOL     OW95010   0.049  12.255   2.010 -0.2892 -0.2038 -0.1419
63400SOL    HW195011   0.018  12.185   2.068 -0.9020 -0.3421 -0.6328
63400SOL    HW295012  -0.025  12.316   2.005  0.0249  0.1733 -0.2072
63401SOL     OW95013   8.837   7.949   7.283  0.0756  0.8867  0.6316
63401SOL    HW195014   8.841   8.043   7.264  0.1045  0.9783  1.0811
63401SOL    HW295015   8.925   7.926   7.312  0.1730  0.6344  0.1518
63402SOL     OW95016  11.777   4.004  12.390 -0.0067 -0.0163 -0.8017
63402SOL    HW195017  11.735   4.019  12.474  0.8443 -0.3311 -0.2992
63402SOL    HW295018  11.810   4.090  12.363 -2.0693  0.5069 -1.8522
63403SOL     OW95019  10.043   7.312   4.505 -0.8591 -0.2948  0.0274
63403SOL    HW195020  10.121   7.367   4.507 -0.6054 -0.6646  0.7255
63403SOL    HW295021   9.970   7.373   4.514 -0.6453  0.0268 -0.3709
63404SOL     OW95022   1.393   0.892  11.331 -0.0329 -0.1891  0.4261
63404SOL    HW195023   1.431   0.938  11.257  0.9239 -0.7333  0.5618
63404SOL    HW295024   1.367   0.962  11.392  0.2325  0.2088  0.0851
63405SOL     OW95025   1.391   1.250  10.045  1.2165  0.0002  0.1963
63405SOL    HW195026   1.415   1.209  10.129  0.4077 -0.7964  0.0496
63405SOL    HW295027   1.373   1.176   9.987 -0.3371  0.5625 -0.0574
63406SOL     OW95028   4.234   8.445   3.865 -0.0160  0.0490 -0.4775
63406SOL    HW195029   4.190   8.453   3.949 -1.0915 -1.7142 -0.8238
63406SOL    HW295030   4.322   8.414   3.886 -0.7608 -1.8740 -0.0527
63407SOL     OW95031   5.850   7.422   2.811  0.2532 -0.2416 -0.3909
63407SOL    HW195032   5.858   7.504   2.858  1.6084 -0.5655 -0.0157
63407SOL    HW295033   5.763   7.390   2.833  0.5208  0.0435  1.2257
63408SOL     OW95034   5.967   6.678   9.299  0.1611  0.4584  0.2110
63408SOL    HW195035   5.955   6.583   9.299  1.1786  0.2697 -2.1005
63408SOL    HW295036   5.918   6.709   9.223  0.0510  1.7609  0.7897
63409SOL     OW95037   8.881   9.428   5.546 -0.5627  0.0322  0.5538
63409SOL    HW195038   8.860   9.502   5.604 -0.4043 -0.9235  1.8744
63409SOL    HW295039   8.975   9.435   5.530 -0.6566  0.4597  0.1587
63410SOL     OW95040  11.149   7.516   2.210  0.1680 -0.0188 -0.6217
63410SOL    HW195041  11.197   7.436   2.235  2.1034  1.2920  0.1294
63410SOL    HW295042  11.170   7.528   2.117  0.8986  0.2484 -0.4330
63411SOL     OW95043   6.766  10.718   5.677 -0.2797  0.1259 -0.0330
63411SOL    HW195044   6.789  10.790   5.735  1.0427 -1.1278  1.1048
63411SOL    HW295045   6.849  10.674   5.660 -0.9147 -0.5648 -1.4832
63412SOL     OW95046   9.919   1.032   2.232 -0.1706 -0.9218  0.4289
63412SOL    HW195047  10.006   1.062   2.256  0.0389 -0.9916 -0.2154
63412SOL    HW295048   9.901   1.076   2.148 -1.0504 -0.3461  0.9058
63413SOL     OW95049   6.439   3.263   7.514 -0.5733  0.1166 -0.0920
63413SOL    HW195050   6.367   3.318   7.483 -1.1488 -0.6647 -0.1734
63413SOL    HW295051   6.472   3.220   7.435 -0.2049  0.2394 -0.0095
63414SOL     OW95052   2.003  11.111   4.645 -0.8294 -0.0271  0.2829
63414SOL    HW195053   1.981  11.104   4.738 -0.8611 -2.2574  0.1586
63414SOL    HW295054   1.999  11.021   4.612 -0.8439  0.6992 -1.9002
63415SOL     OW95055   9.542   2.462   1.942  0.1333 -0.4181 -0.0668
63415SOL    HW195056   9.524   2.377   1.903 -0.1798 -0.5030  0.2506
63415SOL    HW295057   9.532   2.524   1.870 -2.4091 -0.3574  0.2444
63416SOL     OW95058   9.928  10.059   3.821  0.4657  0.0653 -0.2530
63416SOL    HW195059   9.879  10.085   3.743 -2.1125 -1.7666  0.6188
63416SOL    HW295060  10.011  10.025   3.787  0.6449  1.9712 -1.9049
63417SOL     OW95061   7.667  10.579   6.131 -0.4452  0.0268 -0.1441
63417SOL    HW195062   7.695  10.632   6.056  0.8014 -0.6979 -0.2029
63417SOL    HW295063   7.621  10.641   6.188  0.0625  0.9469 -0.7182
63418SOL     OW95064   4.841   6.194   6.028  0.4228 -0.2789  0.6002
63418SOL    HW195065   4.909   6.208   5.962 -1.3717 -1.7212 -1.6963
63418SOL    HW295066   4.864   6.110   6.069 -1.3013 -2.2724 -2.1663
63419SOL     OW95067   5.177   2.305  11.043 -0.4967 -0.2694  0.2178
63419SOL    HW195068   5.169   2.369  10.972  0.4865  0.5520  0.8205
63419SOL    HW295069   5.086   2.280  11.062 -0.7772 -0.4673 -1.2745
63420SOL     OW95070  12.348   6.198   2.083  0.0581 -0.1361  0.2362
63420SOL    HW195071  12.337   6.290   2.058 -0.3391 -0.0057  0.8484
63420SOL    HW295072  12.359   6.151   2.000  0.3159  0.4678 -0.0773
63421SOL     OW95073   3.819  11.252  10.104  0.0288 -0.3659 -0.9508
63421SOL    HW195074   3.748  11.222  10.162 -1.7322  0.1711 -2.7295
63421SOL    HW295075   3.828  11.345  10.124  1.8439 -0.8456  0.8249
63422SOL     OW95076   4.570   7.522   1.272 -0.1855 -0.7857 -0.2547
63422SOL    HW195077   4.540   7.434   1.246  0.4354 -1.2515  0.5416
63422SOL    HW295078   4.555   7.524   1.367 -1.2610  0.4085 -0.4310
63423SOL     OW95079  10.518  10.947  11.835 -1.0054 -0.0621  0.7093
63423SOL    HW195080  10.482  10.859  11.845 -0.0525 -0.5635 -0.0834
63423SOL    HW295081  10.534  10.977  11.924 -4.6207  0.7552  1.2096
63424SOL     OW95082   0.589   4.974  10.746 -0.1624 -0.0344  0.0219
63424SOL    HW195083   0.583   5.014  10.833 -1.1444 -0.8323  0.3402
63424SOL    HW295084   0.564   4.883  10.760  1.0296 -0.5215 -0.8726
63425SOL     OW95085   8.704   5.599   6.718  0.0914  0.8490 -0.7660
63425SOL    HW195086   8.681   5.656   6.791  1.7778 -0.5581  0.9608
63425SOL    HW295087   8.798   5.611   6.705 -0.3344  2.0570 -3.6924
63426SOL     OW95088   4.759   8.551   1.236 -0.5892 -0.3074 -0.1313
63426SOL    HW195089   4.682   8.582   1.188 -0.6763  1.7619  1.1985
63426SOL    HW295090   4.730   8.471   1.279 -2.1171  0.5444  0.5191
63427SOL     OW95091   9.375   8.294   0.329  0.4162  0.1961  0.4075
63427SOL    HW195092   9.411   8.336   0.251  1.3894  1.2761  1.3969
63427SOL    HW295093   9.424   8.212   0.336  0.0568 -0.0910 -0.3061
63428SOL     OW95094   8.654   9.264   3.925  0.3641  0.1499  0.2200
63428SOL    HW195095   8.712   9.275   4.000 -0.2836  0.9069  0.6118
63428SOL    HW295096   8.701   9.202   3.868  2.2718  1.8587 -0.2034
63429SOL     OW95097   5.870  11.129   6.210  0.2352  0.0952  0.4962
63429SOL    HW195098   5.900  11.160   6.295  0.2750  0.0913  0.4836
63429SOL    HW295099   5.796  11.071   6.230  0.1781  0.1755  0.5216
63430SOL     OW95100   2.831  11.257   9.259 -0.4243 -0.3757  0.2406
63430SOL    HW195101   2.859  11.345   9.234  0.3135 -0.4050  0.9058
63430SOL    HW295102   2.821  11.262   9.354 -0.1327 -1.0755  0.3138
63431SOL     OW95103  11.344   1.554   2.391 -0.5489 -0.2380  0.0933
63431SOL    HW195104  11.412   1.546   2.459 -0.5247  1.0875  0.2527
63431SOL    HW295105  11.392   1.542   2.309  0.2711  2.3771  0.0994
63432SOL     OW95106   8.801   4.409   7.779  0.4874  0.5526 -0.2098
63432SOL    HW195107   8.746   4.368   7.846  0.5157 -0.3062 -0.6986
63432SOL    HW295108   8.742   4.418   7.703  1.1430 -0.9492 -0.9516
63433SOL     OW95109   3.918  10.615   9.332 -0.0234 -0.1986 -0.2615
63433SOL    HW195110   3.869  10.672   9.390  0.2778 -1.4700  1.2911
63433SOL    HW295111   3.977  10.566   9.389  2.6515  0.7923 -1.9474
63434SOL     OW95112   7.030   2.569   1.388  0.1416 -0.1175  0.1751
63434SOL    HW195113   7.106   2.621   1.362  0.1821  1.0614  2.4692
63434SOL    HW295114   6.986   2.549   1.305  1.7333  1.0394 -1.0153
63435SOL     OW95115   4.762   4.345   7.901  0.0442  0.2301 -0.6650
63435SOL    HW195116   4.735   4.425   7.948 -1.9990 -1.5116  1.4137
63435SOL    HW295117   4.682   4.316   7.856  0.8267 -0.5135 -1.6216
63436SOL     OW95118   9.665   0.656   8.942 -0.4076 -0.2382 -0.6013
63436SOL    HW195119   9.601   0.679   8.874  1.6765 -0.1483 -2.6592
63436SOL    HW295120   9.731   0.604   8.896  2.0724  1.3933  0.8725
63437SOL     OW95121   3.175  11.379   1.085  0.3926  0.4180  0.3678
63437SOL    HW195122   3.082  11.370   1.062  0.3630  0.7898  0.3327
63437SOL    HW295123   3.189  11.314   1.153  0.1355  0.2698  0.2813
63438SOL     OW95124   4.578  12.373   9.983  0.1007 -0.0049  0.5120
63438SOL    HW195125   4.499  12.422   9.960  0.8542  0.7378 -0.5978
63438SOL    HW295126   4.585  12.382  10.078 -0.9814  0.1734  0.5897
63439SOL     OW95127  11.659  12.326   8.936 -0.5222 -0.4378  0.2983
63439SOL    HW195128  11.682  12.233   8.948  1.9732  0.0068 -0.5241
63439SOL    HW295129  11.571  12.333   8.974 -1.1026 -3.2778 -0.2416
63440SOL     OW95130   2.221   2.642   6.471  0.5316 -0.1104  0.2489
63440SOL    HW195131   2.307   2.618   6.437  0.1422 -2.1108  0.5447
63440SOL    HW295132   2.239   2.678   6.558  1.2229  1.6582 -0.5753
63441SOL     OW95133   0.179   1.177   3.109  0.1181 -0.1603  0.2664
63441SOL    HW195134   0.233   1.216   3.177 -1.2171  1.5604  0.3889
63441SOL    HW295135   0.090   1.178   3.145 -0.3376 -0.9454 -0.7775
63442SOL     OW95136   1.317   3.097  10.207 -0.1414 -0.1977  0.0206
63442SOL    HW195137   1.405   3.074  10.176 -0.1288 -0.2638  0.1063
63442SOL    HW295138   1.312   3.060  10.295  0.0711  0.5678  0.3661
63443SOL     OW95139   4.901  11.260   5.545  0.2237  0.2957  0.3669
63443SOL    HW195140   4.829  11.197   5.533 -1.7585  2.4084  0.4627
63443SOL    HW295141   4.980  11.206   5.545 -1.1613 -1.9630 -1.7784
63444SOL     OW95142  10.645   7.909   3.536  0.5954  0.2515 -0.3333
63444SOL    HW195143  10.662   7.835   3.477  0.2584  1.3099 -1.8281
63444SOL    HW295144  10.587   7.874   3.603 -1.2951 -0.3754 -2.1906
63445SOL     OW95145  12.565   4.079  10.433 -0.7735 -0.2842 -0.2216
63445SOL    HW195146  12.621   4.103  10.358  0.8224  2.7267  1.7093
63445SOL    HW295147  12.488   4.135  10.424 -0.6914 -0.0941  0.2408
63446SOL     OW95148   2.760   2.348  10.690  0.1592  0.0063  0.1714
63446SOL    HW195149   2.825   2.408  10.654  0.6234 -1.0545 -0.8180
63446SOL    HW295150   2.782   2.342  10.783  1.6544 -0.5224 -0.1900
63447SOL     OW95151   2.708   0.149   7.455 -0.1329 -0.2183 -0.3557
63447SOL    HW195152   2.717   0.168   7.548 -0.2839  1.8955 -0.7250
63447SOL    HW295153   2.631   0.199   7.427  1.0300  0.7688 -1.9896
63448SOL     OW95154  11.022   6.142   3.675  0.4505  1.1222  0.0100
63448SOL    HW195155  10.999   6.100   3.758  0.5427 -0.5832 -0.7929
63448SOL    HW295156  10.967   6.098   3.610  2.6854  0.0670 -1.3072
63449SOL     OW95157   8.843   9.721   7.360 -0.1340  0.6590  0.2156
63449SOL    HW195158   8.915   9.750   7.304  0.5476 -0.9829  0.2077
63449SOL    HW295159   8.764   9.736   7.307  0.4062  0.2444 -0.7236
63450SOL     OW95160  12.047   8.330  10.079  0.3214  0.1905 -0.3087
63450SOL    HW195161  11.990   8.400  10.108  0.8097  0.1619  0.7500
63450SOL    HW295162  12.006   8.250  10.110  0.4527  0.1019 -0.3583
63451SOL     OW95163   5.926   4.533   0.337  0.4337  0.3248  0.2743
63451SOL    HW195164   5.929   4.622   0.302  0.8275 -0.1000 -0.8390
63451SOL    HW295165   5.943   4.477   0.261 -1.4595 -0.7892  0.6023
63452SOL     OW95166   7.615   5.072   4.677  0.1025 -0.0752 -0.0726
63452SOL    HW195167   7.687   5.014   4.651 -0.2952 -0.4341 -0.3737
63452SOL    HW295168   7.654   5.159   4.676 -0.0904  0.0532 -2.6697
63453SOL     OW95169  11.024  12.293  10.188  0.1429 -0.0434  0.2230
63453SOL    HW195170  10.981  12.274  10.104 -1.0760  0.4875  0.6983
63453SOL    HW295171  10.953  12.323  10.245  1.0027 -0.0843  1.3556
63454SOL     OW95172   7.524   4.112   8.899 -0.0651 -0.3864 -0.1100
63454SOL    HW195173   7.561   4.043   8.954  0.1871 -0.8188 -0.8201
63454SOL    HW295174   7.559   4.096   8.812 -0.8926 -0.0231 -0.5220
63455SOL     OW95175  11.502  10.125   1.519 -0.5247  0.0037 -0.2211
63455SOL    HW195176  11.590  10.111   1.555 -0.6957  1.3217  0.7893
63455SOL    HW295177  11.514  10.194   1.454 -0.7888  0.1515 -0.1147
63456SOL     OW95178   3.406   4.672  10.276 -0.0517 -0.7771 -0.2120
63456SOL    HW195179   3.379   4.733  10.344  0.3689 -1.1151  0.2687
63456SOL    HW295180   3.497   4.695  10.259  0.5023 -2.0417  0.8569
63457SOL     OW95181   0.773  12.413   7.985  0.2387  0.5780 -0.5699
63457SOL    HW195182   0.845  12.397   7.925 -0.1370  1.2309 -1.2228
63457SOL    HW295183   0.732  12.494   7.952 -0.8411  0.1713 -0.2779
63458SOL     OW95184   5.496   3.204  10.352  0.6456 -0.4632 -0.1754
63458SOL    HW195185   5.526   3.294  10.368 -1.2958 -0.0829  1.9714
63458SOL    HW295186   5.430   3.213  10.283  1.1801 -0.4112 -0.6855
63459SOL     OW95187   1.062   5.198   6.760 -0.0269 -0.1823 -0.2255
63459SOL    HW195188   1.122   5.205   6.834  0.4153  2.3676 -0.7338
63459SOL    HW295189   1.118   5.194   6.683 -0.4932 -0.0047 -0.5817
63460SOL     OW95190   9.369  12.003   6.063 -0.5588  0.2138  0.0903
63460SOL    HW195191   9.282  12.040   6.051 -0.3982  0.1111 -1.6974
63460SOL    HW295192   9.429  12.075   6.045 -0.2762 -0.1696 -0.5562
63461SOL     OW95193   8.683   8.107   9.996  0.0573  0.6059 -0.0865
63461SOL    HW195194   8.651   8.090   9.908 -0.6930 -1.2239  0.4951
63461SOL    HW295195   8.666   8.200  10.010 -0.6936  0.7115 -1.5008
63462SOL     OW95196   5.777   5.932   9.811 -0.4481  0.0999  0.1278
63462SOL    HW195197   5.833   5.884   9.749  0.3074  1.0455  0.0561
63462SOL    HW295198   5.690   5.894   9.798 -0.1408 -0.2913 -0.9275
63463SOL     OW95199  11.854   4.856   1.747 -0.0315 -0.9337 -0.0234
63463SOL    HW195200  11.798   4.865   1.824 -1.5144  0.7668 -1.2274
63463SOL    HW295201  11.943   4.865   1.781 -0.6021 -1.0304  1.5745
63464SOL     OW95202  10.888  10.489   3.733 -0.4430  0.4898  0.2445
63464SOL    HW195203  10.846  10.569   3.762 -0.0130  0.7120  0.2669
63464SOL    HW295204  10.861  10.423   3.796 -2.0475  0.2586 -0.6500
63465SOL     OW95205   0.501   5.530   1.197 -0.1482 -0.0434  0.1135
63465SOL    HW195206   0.475   5.619   1.176 -2.0869  0.6340  4.3056
63465SOL    HW295207   0.421   5.478   1.183  0.2519 -0.6521  0.0485
63466SOL     OW95208   6.723   1.813  10.162  0.5947 -0.4297 -0.2551
63466SOL    HW195209   6.657   1.859  10.214  1.8926  0.4261  0.7021
63466SOL    HW295210   6.765   1.754  10.225  1.3458 -0.3031 -0.6293
63467SOL     OW95211  11.677  10.248   2.074  0.1109  0.3532  0.8370
63467SOL    HW195212  11.637  10.335   2.069 -0.6235  0.1366  2.4270
63467SOL    HW295213  11.765  10.264   2.110  0.6601  0.5920 -0.5418
63468SOL     OW95214   7.337  10.096   8.176 -0.2939  0.0127  0.9466
63468SOL    HW195215   7.343  10.049   8.093 -2.5540 -0.9218  1.2341
63468SOL    HW295216   7.285  10.174   8.155 -1.2754 -0.4672  1.5540
63469SOL     OW95217   7.500   1.060   0.982 -0.1389 -0.7133 -0.0574
63469SOL    HW195218   7.412   1.046   1.018 -0.1034 -1.0065 -0.0879
63469SOL    HW295219   7.542   1.119   1.045 -0.3098 -0.6795  0.0269
63470SOL     OW95220   9.671  12.583   0.623  0.0510 -0.5490  0.0448
63470SOL    HW195221   9.710  12.642   0.559  0.3657 -0.9605 -0.1495
63470SOL    HW295222   9.726  12.504   0.619 -0.0401 -0.6492  0.6802
63471SOL     OW95223   3.876  10.168   1.250 -0.1548  0.2139  0.1244
63471SOL    HW195224   3.937  10.138   1.183 -2.2709  0.4742 -2.1072
63471SOL    HW295225   3.875  10.263   1.240  0.0094  0.3158  1.0256
63472SOL     OW95226   1.403   0.507   0.300 -0.2842 -0.1582  0.1156
63472SOL    HW195227   1.316   0.512   0.259 -0.2380  0.3631  0.0694
63472SOL    HW295228   1.404   0.423   0.345  0.0573 -1.2808 -1.8812
63473SOL     OW95229   6.849   5.775   2.867  0.2694  0.4289 -0.6061
63473SOL    HW195230   6.830   5.868   2.857 -0.8443  0.2254 -0.5370
63473SOL    HW295231   6.763   5.734   2.876  0.7997 -0.3983  1.1266
63474SOL     OW95232   7.908   5.318  11.720 -0.1209  0.0638  0.2649
63474SOL    HW195233   7.973   5.324  11.651 -0.5147 -1.1489 -0.2338
63474SOL    HW295234   7.913   5.228  11.751 -0.6208  0.3261  1.1477
63475SOL     OW95235   2.907   1.696   4.787  0.3624  0.0852 -0.3308
63475SOL    HW195236   2.940   1.626   4.844  0.9637 -0.6514 -1.5393
63475SOL    HW295237   2.857   1.651   4.720 -1.4498  1.0474  0.3021
63476SOL     OW95238   0.787  11.857   5.987 -0.2972 -0.2599  0.0895
63476SOL    HW195239   0.729  11.781   5.982  0.3168 -0.6927 -0.7167
63476SOL    HW295240   0.806  11.879   5.896  1.4669 -0.6556  0.3137
63477SOL     OW95241  11.340  12.428   8.598 -0.5248  0.2165 -0.6258
63477SOL    HW195242  11.424  12.383   8.612 -0.2824  1.2312  1.4972
63477SOL    HW295243  11.276  12.377   8.646 -0.7937  0.4984 -0.6785
63478SOL     OW95244   4.434  10.606   5.153  0.3361  0.1356 -0.5505
63478SOL    HW195245   4.468  10.625   5.065 -2.2197  0.4133 -1.5759
63478SOL    HW295246   4.391  10.687   5.180  0.9740  0.0053  0.9461
63479SOL     OW95247   1.776   1.083   2.009  0.5294  0.2951  0.1127
63479SOL    HW195248   1.707   1.107   2.071  0.8001 -0.3113  0.6643
63479SOL    HW295249   1.762   1.140   1.933 -0.5251  0.2242  0.2478
63480SOL     OW95250  11.942  10.804   6.787  0.0954  0.2285  0.2816
63480SOL    HW195251  11.993  10.785   6.708  1.2330  1.4134  0.6783
63480SOL    HW295252  11.851  10.788   6.762  0.2742  1.9756 -1.7570
63481SOL     OW95253   0.544   6.771  10.201  0.3550 -0.0121  0.1327
63481SOL    HW195254   0.501   6.857  10.196  2.0077  0.8367 -0.1867
63481SOL    HW295255   0.587   6.761  10.117  0.2431 -1.1455  0.1995
63482SOL     OW95256   9.862  10.995  11.609  0.7748  0.3084 -0.2452
63482SOL    HW195257   9.890  10.930  11.546  1.4199 -0.4544  0.7887
63482SOL    HW295258   9.940  11.013  11.662 -0.0643 -0.1072  1.1906
63483SOL     OW95259   8.108  11.643   0.351 -0.5964 -0.6522  0.1519
63483SOL    HW195260   8.058  11.565   0.328  2.0025 -2.5705  0.6365
63483SOL    HW295261   8.122  11.636   0.445 -0.2802  0.4083  0.1987
63484SOL     OW95262   7.509   7.973   7.615 -0.0689  0.2227  0.4620
63484SOL    HW195263   7.460   8.033   7.671  0.7196  0.1618  1.2344
63484SOL    HW295264   7.443   7.911   7.583 -0.8079  1.2451 -0.0135
63485SOL     OW95265   5.105   9.599   8.855  0.1401  0.0637 -0.1933
63485SOL    HW195266   5.159   9.676   8.869  1.3728 -0.5079 -1.5929
63485SOL    HW295267   5.161   9.525   8.878 -0.5880 -0.4799 -0.1160
63486SOL     OW95268   8.361  10.587  11.333 -0.0219 -0.3351 -0.2156
63486SOL    HW195269   8.392  10.496  11.333  1.0656  0.0082 -1.0195
63486SOL    HW295270   8.280  10.585  11.382  0.7312 -1.4971  1.0362
63487SOL     OW95271   1.771   7.249   0.703  0.5166 -0.6189  0.4971
63487SOL    HW195272   1.709   7.209   0.764  1.1078 -1.6344  0.4565
63487SOL    HW295273   1.738   7.225   0.616 -1.9954  3.2230  0.1438
63488SOL     OW95274   1.591   9.697   8.275 -0.0113 -0.5954  0.0077
63488SOL    HW195275   1.611   9.604   8.260  1.9788  0.0387 -1.6821
63488SOL    HW295276   1.561   9.729   8.191  0.5213  0.5718  0.2461
63489SOL     OW95277   1.891   3.167   4.349  0.4288 -1.0408 -0.9532
63489SOL    HW195278   1.878   3.129   4.436  0.3250 -1.5907 -1.2089
63489SOL    HW295279   1.804   3.190   4.319  0.5770  0.4925 -0.3247
63490SOL     OW95280   8.353   4.883   9.508  0.0667 -0.0850  0.6126
63490SOL    HW195281   8.338   4.977   9.511  0.2116  0.0063 -0.8180
63490SOL    HW295282   8.281   4.849   9.455  0.3692 -0.7029  0.5909
63491SOL     OW95283   7.733   5.144   1.952 -0.0901 -0.4323  0.4248
63491SOL    HW195284   7.690   5.218   1.910  2.0219  0.9632  0.5600
63491SOL    HW295285   7.790   5.108   1.883  0.2570 -0.7787  0.8858
63492SOL     OW95286  11.196   3.201   8.703  0.4386 -0.1420  0.1655
63492SOL    HW195287  11.276   3.185   8.653 -0.2635 -2.4759 -0.3349
63492SOL    HW295288  11.203   3.145   8.780 -0.1966  0.5460  0.7471
63493SOL     OW95289   3.388   8.110   6.586  0.2530  0.3260 -0.4471
63493SOL    HW195290   3.388   8.030   6.534 -0.8107  0.7631 -1.1281
63493SOL    HW295291   3.382   8.079   6.677  0.3940 -0.3736 -0.6704
63494SOL     OW95292   6.059   8.025   8.696 -0.3341 -0.2708 -0.4430
63494SOL    HW195293   6.100   8.004   8.612 -1.4557  0.4338 -1.1811
63494SOL    HW295294   6.092   8.112   8.718  0.2254 -0.5931  0.0319
63495SOL     OW95295   3.869   9.513   2.071  0.3211  0.4101  0.2070
63495SOL    HW195296   3.926   9.441   2.098 -2.7750 -2.0397  0.7595
63495SOL    HW295297   3.876   9.577   2.142  1.3891 -0.4006  0.8660
63496SOL     OW95298   9.418   6.126   4.396  0.0211 -0.4920 -0.1867
63496SOL    HW195299   9.506   6.097   4.375  0.1136  1.1148 -2.3380
63496SOL    HW295300   9.361   6.054   4.369  0.5575 -0.8012 -0.4888
63497SOL     OW95301   7.993  10.058   2.048  0.5964 -0.0343 -0.0934
63497SOL    HW195302   8.035  10.116   2.112 -1.4743  1.2355  0.2205
63497SOL    HW295303   8.057  10.049   1.978  2.1260  0.2180  1.2076
63498SOL     OW95304   5.745   4.082   8.148 -0.5499 -0.3539  0.3893
63498SOL    HW195305   5.703   4.015   8.094  0.6423 -1.0162  0.2513
63498SOL    HW295306   5.811   4.122   8.091 -0.8889  0.5779  0.6379
63499SOL     OW95307  10.054  12.247  12.635 -0.3248  0.1464 -0.1658
63499SOL    HW195308  10.071  12.165  12.680 -0.6589  0.2860  0.2181
63499SOL    HW295309  10.120  12.308  12.670  1.0972 -0.4030 -1.7412
63500SOL     OW95310   5.233   9.818   8.891  0.2847 -0.1852 -0.0523
63500SOL    HW195311   5.312   9.813   8.838 -0.3513  0.5611 -1.0981
63500SOL    HW295312   5.222   9.912   8.909 -0.6434 -0.2247 -0.3674
63501SOL     OW95313   9.722   0.324   5.085 -0.6330 -0.4032 -0.0977
63501SOL    HW195314   9.640   0.315   5.038  0.1892 -0.6893 -1.5400
63501SOL    HW295315   9.734   0.240   5.129 -0.3533 -0.9427 -1.1822
63502SOL     OW95316   5.122   0.682   5.439 -0.4374 -0.0710 -0.6600
63502SOL    HW195317   5.092   0.596   5.409 -0.4142  0.0203 -0.9446
63502SOL    HW295318   5.194   0.662   5.499 -1.3757 -0.3101  0.4224
63503SOL     OW95319  10.865   6.202   5.193 -0.0937  0.2304 -0.2213
63503SOL    HW195320  10.822   6.121   5.221 -0.3598  0.2892 -0.4488
63503SOL    HW295321  10.823   6.271   5.245  0.2448  0.2023  0.0866
63504SOL     OW95322   5.641  12.066   7.124 -0.0792  0.2356 -0.4966
63504SOL    HW195323   5.668  11.982   7.161  3.1539  0.7181 -1.4318
63504SOL    HW295324   5.594  12.043   7.044  1.0754 -0.7375 -0.9265
63505SOL     OW95325   8.478   8.840   6.898 -0.1121  0.1142  0.0755
63505SOL    HW195326   8.553   8.793   6.862 -0.0315  1.2732 -1.3657
63505SOL    HW295327   8.516   8.920   6.936 -0.5388  0.3172  0.0765
63506SOL     OW95328   7.133   4.774   4.648 -0.3066  0.1522 -0.1937
63506SOL    HW195329   7.165   4.840   4.586  0.7095  0.2978  0.4583
63506SOL    HW295330   7.065   4.820   4.698 -1.2156 -0.0048 -1.2570
63507SOL     OW95331   6.925   7.127  11.753 -0.0746 -0.3657 -0.6351
63507SOL    HW195332   6.855   7.189  11.772 -1.7166 -1.9116 -1.3774
63507SOL    HW295333   6.953   7.095  11.839 -2.0671 -1.5708 -0.3639
63508SOL     OW95334  10.635   3.018  12.063  0.4720  0.1029 -0.3887
63508SOL    HW195335  10.641   3.113  12.053 -1.7049  0.6219  2.1004
63508SOL    HW295336  10.609   3.005  12.154  0.9323 -2.9314 -0.5829
63509SOL     OW95337  11.678  11.233   9.161  0.6807  0.3013  0.1985
63509SOL    HW195338  11.593  11.269   9.133  1.6973  1.0491 -2.1867
63509SOL    HW295339  11.742  11.298   9.134  2.2199 -1.3468 -0.3377
63510SOL     OW95340   0.682  11.920   2.264 -0.1224  0.0926 -0.5542
63510SOL    HW195341   0.774  11.946   2.261 -0.3768  1.0283 -0.6104
63510SOL    HW295342   0.640  11.988   2.316 -0.8482 -0.1163 -0.8608
63511SOL     OW95343   9.690   2.889   2.539 -0.0904 -0.0340  0.0696
63511SOL    HW195344   9.640   2.960   2.500  0.0083  0.3004  0.5351
63511SOL    HW295345   9.764   2.876   2.480 -0.2080  0.1237 -0.1140
63512SOL     OW95346   7.075   6.474   3.342  0.4497  0.4793  0.3590
63512SOL    HW195347   7.131   6.500   3.416  0.5857  2.2751 -0.3235
63512SOL    HW295348   7.098   6.536   3.273 -2.7196  1.6506  0.2083
63513SOL     OW95349   6.618   0.104   3.338  0.1630  0.2769 -0.5360
63513SOL    HW195350   6.572   0.113   3.255  0.5335  0.8442 -0.6893
63513SOL    HW295351   6.708   0.082   3.314  0.2309  0.2675 -0.2789
63514SOL     OW95352  10.073   9.547  11.390  0.2419 -0.5479  0.0112
63514SOL    HW195353  10.024   9.562  11.309  0.8790 -1.4799 -0.5735
63514SOL    HW295354  10.077   9.451  11.398 -0.8145 -0.4946  1.7832
63515SOL     OW95355   5.562   5.193   1.456 -0.7507 -0.2738 -0.4525
63515SOL    HW195356   5.605   5.137   1.391  0.7479  0.6066 -0.2520
63515SOL    HW295357   5.499   5.244   1.405  0.1984  0.1977 -1.1947
63516SOL     OW95358   9.808  12.078  12.051  0.3673 -0.3874  0.2674
63516SOL    HW195359   9.745  12.064  11.980  0.3582 -0.8887  0.3726
63516SOL    HW295360   9.884  12.117  12.008 -0.1176  0.5037  0.1816
63517SOL     OW95361   7.828   8.534  10.361  0.6184 -0.4768 -0.0901
63517SOL    HW195362   7.741   8.506  10.335  0.0272  0.3994  0.8812
63517SOL    HW295363   7.880   8.453  10.364 -0.4562 -1.1613  0.4399
63518SOL     OW95364   0.336  11.312  10.911  0.1330  0.6969 -0.6580
63518SOL    HW195365   0.279  11.367  10.857 -2.7008  0.3661  1.7384
63518SOL    HW295366   0.314  11.222  10.886 -0.9956  0.5522  0.7449
63519SOL     OW95367   0.149   2.213   0.927  0.3616 -0.6426 -0.1155
63519SOL    HW195368   0.235   2.226   0.887  0.3736 -0.3134  0.0152
63519SOL    HW295369   0.168   2.166   1.009  0.3997 -0.7257 -0.1715
63520SOL     OW95370   7.452   0.201   3.761 -0.0692  0.0220 -0.2414
63520SOL    HW195371   7.465   0.257   3.684  0.2466 -0.1527 -0.3181
63520SOL    HW295372   7.540   0.186   3.795  0.0754 -1.8902 -1.2709
63521SOL     OW95373   7.412   4.148   6.950 -0.2645  0.5421  0.9506
63521SOL    HW195374   7.355   4.158   6.875  0.3421  0.1753  0.4299
63521SOL    HW295375   7.389   4.220   7.008 -0.3740  1.1315  0.1828
63522SOL     OW95376   0.012   5.915   5.465 -0.2183 -0.2755 -0.3970
63522SOL    HW195377   0.093   5.919   5.516 -0.4093  0.6006 -0.1514
63522SOL    HW295378   0.036   5.868   5.385  0.8604  1.0578 -0.8966
63523SOL     OW95379   9.059  12.495   4.045  0.1538  0.1153  0.3733
63523SOL    HW195380   9.108  12.413   4.052 -0.3370 -0.3157 -0.9986
63523SOL    HW295381   9.091  12.547   4.118  0.5456 -1.2552  1.2240
63524SOL     OW95382  11.630   5.042   1.185 -0.2873 -0.2855  0.2716
63524SOL    HW195383  11.630   5.135   1.208 -0.8505  0.5466 -2.6504
63524SOL    HW295384  11.720   5.013   1.203 -0.0224  0.8850  0.9471
63525SOL     OW95385   7.573   7.816   8.873 -0.2792 -0.2773  0.4817
63525SOL    HW195386   7.523   7.871   8.934 -1.3071 -0.1527 -0.4492
63525SOL    HW295387   7.524   7.821   8.791  0.3969 -1.4494 -0.0083
63526SOL     OW95388   7.288   9.324   9.559 -0.1823  0.8060  0.0603
63526SOL    HW195389   7.376   9.307   9.593 -0.0212  0.5078 -0.4931
63526SOL    HW295390   7.235   9.254   9.597 -0.0587  0.6445 -0.0569
63527SOL     OW95391   1.049  10.007   5.499 -0.3431  0.0732  0.4864
63527SOL    HW195392   0.983  10.043   5.558 -1.2127 -2.4331  1.1750
63527SOL    HW295393   0.999   9.969   5.427  0.5481  0.5919 -0.4358
63528SOL     OW95394   1.139   9.444   2.815  0.3127 -0.0205 -0.1377
63528SOL    HW195395   1.224   9.468   2.779  2.4087 -1.1499  3.4911
63528SOL    HW295396   1.151   9.355   2.847 -1.4873  0.4945  2.3331
63529SOL     OW95397   3.417   9.074   1.192  0.1188 -0.5439 -0.0623
63529SOL    HW195398   3.324   9.078   1.216 -0.5699  2.0337 -2.5940
63529SOL    HW295399   3.455   9.152   1.232  1.3697 -1.7844  1.2884
63530SOL     OW95400   3.643   7.402  11.163 -0.0624  0.4766 -0.3548
63530SOL    HW195401   3.680   7.414  11.076  2.0670  0.7033  0.5259
63530SOL    HW295402   3.549   7.417  11.151 -0.1452 -1.3517 -2.9567
63531SOL     OW95403   6.335  12.597  10.290 -0.4340  0.4937  0.0151
63531SOL    HW195404   6.359  12.504  10.293  1.6135  0.9820  2.1079
63531SOL    HW295405   6.375  12.630  10.209  2.4641  0.3306  1.2690
63532SOL     OW95406  11.175   8.776   2.592 -0.4007 -0.1903  0.3312
63532SOL    HW195407  11.176   8.681   2.608  0.2925  0.0616  2.0084
63532SOL    HW295408  11.265   8.804   2.609  0.3148  0.3445 -3.4558
63533SOL     OW95409   9.358   1.937   8.207 -0.3660 -0.2340  0.1015
63533SOL    HW195410   9.343   2.031   8.220 -0.9002 -0.3327  0.2352
63533SOL    HW295411   9.449   1.923   8.234 -0.1524  0.3163 -0.3195
63534SOL     OW95412   3.849   7.010   8.125 -0.2550  0.2364  0.4540
63534SOL    HW195413   3.923   7.040   8.072 -0.3211  0.3220  0.4106
63534SOL    HW295414   3.884   6.938   8.177 -0.3570 -0.3044 -0.2077
63535SOL     OW95415   1.236  11.493   0.797  0.1322  0.1249  0.1038
63535SOL    HW195416   1.164  11.430   0.802  0.7332 -0.4692  2.6996
63535SOL    HW295417   1.309  11.450   0.841  0.8301  2.3211  1.2442
63536SOL     OW95418  10.024   6.894  11.410 -0.7371 -0.0805  0.1173
63536SOL    HW195419   9.960   6.845  11.358 -0.3491 -0.0395 -0.4112
63536SOL    HW295420  10.062   6.829  11.469 -1.1796 -0.1295  0.3517
63537SOL     OW95421   1.597  12.310  12.249  0.6645 -0.1321 -0.4182
63537SOL    HW195422   1.536  12.357  12.191 -0.6497 -0.5280  0.5822
63537SOL    HW295423   1.677  12.362  12.247 -0.0065  0.9146 -1.0926
63538SOL     OW95424   2.438   6.205   9.504 -0.0790 -0.1255 -0.2439
63538SOL    HW195425   2.436   6.128   9.561  4.1765 -2.3293 -2.5404
63538SOL    HW295426   2.476   6.274   9.557 -0.6477 -0.6405  0.8663
63539SOL     OW95427   9.768   5.440   4.690 -0.1832  0.1688 -0.3523
63539SOL    HW195428   9.824   5.407   4.760 -0.8446 -0.4882 -0.1238
63539SOL    HW295429   9.681   5.407   4.711 -0.6748  1.2197 -0.6742
63540SOL     OW95430   5.810   6.185   2.135  0.4376  0.3721 -0.0948
63540SOL    HW195431   5.799   6.187   2.040 -2.4281 -2.5872 -0.0016
63540SOL    HW295432   5.887   6.131   2.149 -1.0478 -2.1728 -0.8806
63541SOL     OW95433   5.051   5.576   9.975 -0.0871 -0.2757 -0.5106
63541SOL    HW195434   5.100   5.528   9.908 -0.6657  0.2353 -1.3190
63541SOL    HW295435   4.976   5.614   9.927  0.0464  0.9526  0.2152
63542SOL     OW95436   7.769   3.125   5.703 -0.4671  0.3529 -0.1634
63542SOL    HW195437   7.804   3.211   5.681 -0.4870 -0.0257 -1.8788
63542SOL    HW295438   7.846   3.073   5.727 -0.2188  0.3720 -0.8867
63543SOL     OW95439   5.929   0.500   1.611  0.0026 -0.1327  0.3519
63543SOL    HW195440   5.919   0.562   1.539 -1.7423  0.1436  0.8066
63543SOL    HW295441   5.972   0.551   1.680  0.0295  0.1047  0.1623
63544SOL     OW95442  10.569   0.305   2.709  0.2218  0.7292  0.3379
63544SOL    HW195443  10.528   0.225   2.742 -0.8714  1.0176 -0.2622
63544SOL    HW295444  10.605   0.279   2.624 -1.8982  1.3121 -0.8052
63545SOL     OW95445   1.312  11.866   6.313 -0.3668 -0.3716  0.3297
63545SOL    HW195446   1.392  11.901   6.351  0.1537 -0.6104 -0.5378
63545SOL    HW295447   1.298  11.918   6.234 -0.8288 -0.6319  0.2371
63546SOL     OW95448   7.395   4.953   2.828  0.7811 -0.4475 -0.3315
63546SOL    HW195449   7.445   4.953   2.910 -1.9419  1.0036  1.4803
63546SOL    HW295450   7.409   5.041   2.793 -0.3360 -0.0604  0.1463
63547SOL     OW95451   5.815   3.928   3.043  0.0573 -0.6272  0.6189
63547SOL    HW195452   5.877   3.855   3.037 -1.2952 -1.6907 -1.9844
63547SOL    HW295453   5.839   3.986   2.971 -0.4097  0.2511  1.1559
63548SOL     OW95454   6.505   5.405   5.988 -0.0378 -0.9086  0.5419
63548SOL    HW195455   6.463   5.438   6.068 -0.7347  0.5048 -0.3753
63548SOL    HW295456   6.482   5.468   5.921  2.2142 -0.9729 -0.3789
63549SOL     OW95457   1.601   6.573   6.622 -0.2390  0.0651  0.3712
63549SOL    HW195458   1.588   6.591   6.715  0.5124 -2.1382  0.9428
63549SOL    HW295459   1.696   6.563   6.613 -0.2979  0.3416 -0.6723
63550SOL     OW95460   9.577   4.907   2.051 -0.6873  0.2325  0.6065
63550SOL    HW195461   9.670   4.900   2.032 -1.1101 -1.0686 -1.3244
63550SOL    HW295462   9.569   4.888   2.144  0.7984 -1.7869  0.3858
63551SOL     OW95463  10.140   5.353  12.207 -0.3574 -0.3090 -0.2214
63551SOL    HW195464  10.071   5.343  12.142 -0.0041  2.2660 -1.0917
63551SOL    HW295465  10.199   5.280  12.190 -3.4705 -3.5858  1.5698
63552SOL     OW95466   0.250   9.431   1.907 -0.0941 -0.5449 -0.0694
63552SOL    HW195467   0.180   9.403   1.965  0.4650 -1.5467  0.1345
63552SOL    HW295468   0.312   9.476   1.964 -0.8557  0.9728 -0.3528
63553SOL     OW95469   8.989   1.098   6.272  0.0085  0.0608 -0.2023
63553SOL    HW195470   8.966   1.005   6.282  0.6835 -0.0236  0.6446
63553SOL    HW295471   8.919   1.134   6.217 -0.0611 -1.0292 -0.8637
63554SOL     OW95472  10.040  11.668   6.290 -0.0839  0.5490 -0.2234
63554SOL    HW195473   9.974  11.616   6.336 -0.2828  0.8910 -0.1254
63554SOL    HW295474  10.059  11.741   6.349 -0.0103  0.7435 -0.4865
63555SOL     OW95475  11.544   9.581   9.490  0.3223 -0.1972  0.3204
63555SOL    HW195476  11.481   9.536   9.545  0.1154  0.2174  0.4274
63555SOL    HW295477  11.493   9.610   9.414  1.2452 -3.8683 -1.9520
63556SOL     OW95478   8.110  11.888   7.263 -0.3196 -0.1543  0.1547
63556SOL    HW195479   8.093  11.981   7.281 -0.1187 -0.3022  1.1765
63556SOL    HW295480   8.061  11.841   7.331  1.5569 -0.6946  1.2166
63557SOL     OW95481   4.921   8.767   4.663  0.2681 -0.3265  0.3379
63557SOL    HW195482   5.014   8.766   4.640  0.6220  0.7487  1.6298
63557SOL    HW295483   4.906   8.685   4.710  0.5341 -0.5446  0.0449
63558SOL     OW95484   9.002   6.057   2.840 -0.6924 -0.0849  0.1520
63558SOL    HW195485   8.910   6.085   2.840 -0.2787  1.3960 -0.4012
63558SOL    HW295486   9.050   6.131   2.876  0.0493 -1.9522  3.3796
63559SOL     OW95487   1.833   4.380   0.974  0.3905  0.0691 -0.0890
63559SOL    HW195488   1.829   4.383   1.070  1.3363 -0.8165 -0.0037
63559SOL    HW295489   1.839   4.287   0.953 -3.7386 -0.1228 -1.2282
63560SOL     OW95490   5.526  10.485   7.819  0.4640 -0.6449  0.0603
63560SOL    HW195491   5.553  10.574   7.798  0.1764 -0.6083 -0.1726
63560SOL    HW295492   5.606  10.440   7.845  0.7051 -0.4697 -0.3686
63561SOL     OW95493   3.479   1.471   4.863  0.0612  0.4458 -0.3074
63561SOL    HW195494   3.555   1.413   4.862 -0.0707  0.2540  0.3224
63561SOL    HW295495   3.516   1.559   4.860  0.3048  0.3474 -0.2387
63562SOL     OW95496   9.388   1.010   3.868 -0.5038  0.1894 -0.2918
63562SOL    HW195497   9.301   1.045   3.889 -0.1743  0.5371  0.5516
63562SOL    HW295498   9.421   1.068   3.799 -1.3675 -0.6068 -1.4025
63563SOL     OW95499   4.947   5.960   2.036 -0.6444  0.1775  0.0442
63563SOL    HW195500   4.998   6.025   1.990 -0.2095  0.4425  0.8769
63563SOL    HW295501   4.857   5.973   2.005 -0.2688 -0.1123 -1.2213
63564SOL     OW95502  11.575   8.548  12.493  0.1335  0.0326  0.2019
63564SOL    HW195503  11.612   8.478  12.546 -1.4923 -0.9563  0.0900
63564SOL    HW295504  11.559   8.507  12.407 -0.4146  0.6567 -0.0025
63565SOL     OW95505   7.973   1.266   1.285 -0.2255 -0.1581  0.0629
63565SOL    HW195506   7.958   1.357   1.311 -0.1028  0.0572 -0.6120
63565SOL    HW295507   8.061   1.267   1.246  0.1778 -0.7558  0.9343
63566SOL     OW95508   1.096   1.906   3.483 -0.1348  0.4695 -0.3922
63566SOL    HW195509   1.177   1.866   3.516 -0.9268 -0.3142  0.6597
63566SOL    HW295510   1.120   1.941   3.397  1.5132  0.9273  0.2156
63567SOL     OW95511   8.558   5.556   9.350 -0.4073 -0.0952 -0.5665
63567SOL    HW195512   8.592   5.512   9.428  1.0117  0.8112 -0.6369
63567SOL    HW295513   8.538   5.485   9.289  0.7948 -0.7095 -0.2771
63568SOL     OW95514   1.616   8.066   4.199 -0.4142 -0.1148 -0.1717
63568SOL    HW195515   1.575   8.121   4.132  0.1010 -0.6131 -0.9143
63568SOL    HW295516   1.552   8.064   4.270  0.4005  3.1449  0.8182
63569SOL     OW95517   0.620   4.768  11.735  0.0226  0.5319 -0.0361
63569SOL    HW195518   0.591   4.743  11.823 -0.9824  1.3938 -0.1125
63569SOL    HW295519   0.695   4.826  11.750 -0.2600  0.8224  0.2545
63570SOL     OW95520   8.195   6.197  11.407  0.0785  0.5317  0.1302
63570SOL    HW195521   8.147   6.114  11.398  1.8510 -0.4135 -1.4197
63570SOL    HW295522   8.163   6.251  11.334  2.0121 -0.5228 -1.6134
63571SOL     OW95523   0.976   3.464   5.651  0.0926  0.0926  0.6452
63571SOL    HW195524   0.997   3.444   5.743 -0.2005 -1.7189  0.3406
63571SOL    HW295525   0.888   3.429   5.638 -0.7634  2.2209  0.2149
63572SOL     OW95526  11.195   6.774   2.557 -0.3824  0.1407  0.0017
63572SOL    HW195527  11.195   6.839   2.628 -1.3625 -0.0176  0.1575
63572SOL    HW295528  11.105   6.772   2.526 -1.2796 -3.5391  2.2367
63573SOL     OW95529   8.478   2.659   2.320 -0.1468  0.4551  0.6957
63573SOL    HW195530   8.485   2.571   2.357 -1.6820  0.2685  0.6207
63573SOL    HW295531   8.568   2.691   2.315  0.3392 -0.6903  1.7282
63574SOL     OW95532   4.253   5.088   8.412 -0.6469 -0.1420 -0.2677
63574SOL    HW195533   4.161   5.102   8.389 -1.1721 -0.2661  1.6063
63574SOL    HW295534   4.259   4.995   8.433  0.3607 -0.5501 -2.1313
63575SOL     OW95535   7.763   6.362   7.476 -0.2368 -0.2026 -0.0667
63575SOL    HW195536   7.809   6.290   7.520  1.2936  0.5856 -0.3250
63575SOL    HW295537   7.693   6.386   7.537  0.5868 -0.4740  1.0300
63576SOL     OW95538   4.958  10.107  12.402  0.4129  0.6693  0.7101
63576SOL    HW195539   4.950  10.060  12.319 -0.2828  2.1539 -0.0907
63576SOL    HW295540   5.027  10.061  12.449 -0.6929 -1.5935  0.2660
63577SOL     OW95541   4.995   7.419   7.058  0.0179  0.3115  0.0499
63577SOL    HW195542   4.971   7.333   7.091  1.0637 -0.6527 -1.5915
63577SOL    HW295543   5.090   7.425   7.069  0.2157  0.4859 -1.4686
63578SOL     OW95544   1.189   2.453   7.680  0.5504  0.3786 -0.0039
63578SOL    HW195545   1.115   2.399   7.653  1.3824 -0.5043 -0.5697
63578SOL    HW295546   1.149   2.526   7.727 -0.5663 -1.5085  2.1903
63579SOL     OW95547   8.599   0.754   1.968 -0.0099  0.0518 -0.6271
63579SOL    HW195548   8.547   0.774   1.890  0.8301  0.4984 -1.0826
63579SOL    HW295549   8.632   0.839   1.998  0.1425 -0.1811 -0.1190
63580SOL     OW95550  12.044   8.089   3.403  0.4247 -0.5612 -0.0847
63580SOL    HW195551  12.126   8.108   3.357  0.2408 -0.5360 -0.4037
63580SOL    HW295552  12.001   8.023   3.349  0.0389 -0.2672 -0.1442
63581SOL     OW95553   0.947   5.725   8.566 -0.5487  1.0618 -0.0139
63581SOL    HW195554   0.983   5.731   8.654  1.3925  1.1314 -0.7693
63581SOL    HW295555   0.874   5.663   8.574 -1.2188  2.0313  1.8482
63582SOL     OW95556   2.610   8.035   9.220  0.5686  0.7737 -0.3106
63582SOL    HW195557   2.597   7.985   9.301 -0.9588  2.4386  0.5322
63582SOL    HW295558   2.652   8.116   9.249  2.1736  0.4431 -1.5398
63583SOL     OW95559   1.563   7.373   8.005  0.4334 -0.1657  0.0007
63583SOL    HW195560   1.602   7.310   7.945 -0.7623  0.7948 -1.8907
63583SOL    HW295561   1.619   7.451   7.997 -1.9040  1.4257 -3.1681
63584SOL     OW95562   2.246  10.029   9.497 -0.1947 -0.3468  0.8269
63584SOL    HW195563   2.204   9.942   9.494  0.1614 -0.5081  0.3553
63584SOL    HW295564   2.329  10.016   9.451 -0.3991  0.3893  0.2456
63585SOL     OW95565   3.503   9.325   8.523 -0.1502 -0.1687  0.0907
63585SOL    HW195566   3.538   9.238   8.505 -1.2874 -0.8600  1.0631
63585SOL    HW295567   3.459   9.316   8.608  0.2142  1.5020  0.4837
63586SOL     OW95568  12.334   8.091   5.836  0.2555 -0.2403  0.0159
63586SOL    HW195569  12.411   8.035   5.832 -0.0012 -0.7626  1.7849
63586SOL    HW295570  12.286   8.060   5.912 -2.0172 -0.3122 -1.3471
63587SOL     OW95571  12.611   2.217   1.249 -0.0556 -0.2773 -0.0004
63587SOL    HW195572  12.696   2.198   1.209  0.0562  0.2894 -0.0353
63587SOL    HW295573  12.631   2.273   1.323 -0.5012  0.8883 -0.7311
63588SOL     OW95574   8.408   9.047   3.553 -0.0508 -0.0572  0.4060
63588SOL    HW195575   8.420   9.137   3.525 -0.3661 -0.1649 -0.0933
63588SOL    HW295576   8.324   9.046   3.598  0.1455 -0.0187  0.7735
63589SOL     OW95577   3.321   9.581   1.158  0.5559 -0.8686 -0.0172
63589SOL    HW195578   3.341   9.635   1.235 -0.6913  0.6707 -0.7347
63589SOL    HW295579   3.226   9.578   1.155  0.6002 -2.5251 -0.4373
63590SOL     OW95580   2.550   0.574   9.745 -0.0793 -0.2951  0.2508
63590SOL    HW195581   2.573   0.668   9.745 -0.5654 -0.1749  0.1367
63590SOL    HW295582   2.632   0.530   9.770  0.1665  0.1558  0.2622
63591SOL     OW95583   7.612   4.770   1.634 -0.2426 -0.0946  0.4504
63591SOL    HW195584   7.611   4.826   1.711  1.2834  0.3228  0.2116
63591SOL    HW295585   7.640   4.684   1.666 -0.1833 -0.0735  0.4553
63592SOL     OW95586   5.432   4.086   7.774 -0.0716  0.2965 -0.6165
63592SOL    HW195587   5.506   4.140   7.747  0.4509 -0.5345 -0.8867
63592SOL    HW295588   5.358   4.119   7.724 -0.7039  3.3249  1.9683
63593SOL     OW95589   4.468   3.264  11.266 -0.0481  0.7645 -0.5252
63593SOL    HW195590   4.462   3.198  11.335 -1.5147  1.0231 -0.3705
63593SOL    HW295591   4.402   3.237  11.201  0.6806  1.0214 -1.3939
63594SOL     OW95592  11.660  11.579   5.407 -0.1711  0.1409  0.0919
63594SOL    HW195593  11.695  11.663   5.378  0.3624 -0.4116 -0.9147
63594SOL    HW295594  11.601  11.552   5.337  0.7946 -1.0038 -0.3244
63595SOL     OW95595   1.369  11.929   7.449  0.5258  0.6360 -0.1217
63595SOL    HW195596   1.349  11.952   7.359  0.3067 -1.9294 -0.7967
63595SOL    HW295597   1.284  11.929   7.493  0.5052  0.8851 -0.1603
63596SOL     OW95598   0.783   2.266   5.730 -0.0754  0.1192 -0.2830
63596SOL    HW195599   0.691   2.256   5.752  0.6590 -1.5371  2.5822
63596SOL    HW295600   0.803   2.190   5.676  0.0315 -0.7181  0.8936
63597SOL     OW95601   0.546   0.884   2.207  0.6927  0.2547 -0.1341
63597SOL    HW195602   0.483   0.924   2.267  0.8417  1.7757 -0.9475
63597SOL    HW295603   0.589   0.816   2.260 -0.5828  0.1806  0.8644
63598SOL     OW95604   9.996   8.410   6.014  0.1540  0.1869 -0.8979
63598SOL    HW195605  10.075   8.404   6.067 -0.1938 -0.5604 -0.4503
63598SOL    HW295606   9.973   8.503   6.015 -0.9603 -0.0284  1.9344
63599SOL     OW95607   1.750   9.268   8.361  0.2432  0.5876  0.2590
63599SOL    HW195608   1.788   9.252   8.274 -1.0069 -0.5923 -0.1122
63599SOL    HW295609   1.826   9.271   8.420  1.1217  1.5148 -0.8631
63600SOL     OW95610   0.247   3.498  11.340 -0.2433 -0.1111 -0.2020
63600SOL    HW195611   0.300   3.573  11.314  1.4149 -1.1864 -0.0880
63600SOL    HW295612   0.185   3.487  11.268  1.6579 -0.5837 -1.8731
63601SOL     OW95613  10.994  11.893   6.829 -0.0823  0.2805 -0.4729
63601SOL    HW195614  11.043  11.829   6.881 -0.4061  0.6125  0.2598
63601SOL    HW295615  10.923  11.843   6.789 -0.5105  0.2221  0.3312
63602SOL     OW95616  12.277   7.805   4.538  0.1682  0.2882 -0.2162
63602SOL    HW195617  12.238   7.726   4.575 -0.2015  0.3786 -0.4082
63602SOL    HW295618  12.359   7.775   4.498 -0.4582 -0.1738 -1.1781
63603SOL     OW95619   4.162  10.196  12.025  0.1139  0.4766 -0.5152
63603SOL    HW195620   4.203  10.202  11.939  0.2868  0.6365 -0.4198
63603SOL    HW295621   4.234  10.205  12.088  0.1155 -0.5303 -0.3561
63604SOL     OW95622   5.828  12.478   6.442 -0.3016 -0.4623  0.3606
63604SOL    HW195623   5.836  12.383   6.451  0.7408 -0.5514 -1.1794
63604SOL    HW295624   5.862  12.497   6.355 -0.1409  1.3742  0.7799
63605SOL     OW95625   3.509   5.431   5.470  0.1632 -0.1660  0.2550
63605SOL    HW195626   3.439   5.366   5.461 -0.0378  0.0560  0.1949
63605SOL    HW295627   3.496   5.492   5.397  0.2159  0.0649  0.4346
63606SOL     OW95628  10.078  12.052   4.844  0.3297 -0.3441  0.6238
63606SOL    HW195629  10.057  11.965   4.812  0.3993 -0.5572  1.1475
63606SOL    HW295630  10.096  12.040   4.938  0.4582  0.2093  0.6758
63607SOL     OW95631   3.915  10.463   6.881  0.4622  0.1028 -0.5574
63607SOL    HW195632   3.864  10.384   6.898  1.7173 -0.5611  0.1888
63607SOL    HW295633   3.858  10.515   6.824 -0.9902 -0.6756  0.1064
63608SOL     OW95634   3.779   0.597   9.114  0.0409 -0.0258 -0.0742
63608SOL    HW195635   3.734   0.655   9.053 -0.2213 -0.6941 -0.5250
63608SOL    HW295636   3.709   0.560   9.167  0.2868  0.7284  0.8040
63609SOL     OW95637   9.957  10.802   5.886 -0.1091  0.4684 -0.3622
63609SOL    HW195638   9.912  10.718   5.874  1.3241 -0.5412  0.9073
63609SOL    HW295639   9.900  10.851   5.946 -0.9972  0.4621 -1.1773
63610SOL     OW95640  11.993   5.113  11.629 -0.0403 -0.5412 -0.0116
63610SOL    HW195641  11.910   5.136  11.671 -0.7009  0.6157 -1.8328
63610SOL    HW295642  12.016   5.190  11.577  2.0756 -0.9384  0.2500
63611SOL     OW95643   4.379  11.625  10.542 -0.3165  0.2320  0.0171
63611SOL    HW195644   4.313  11.612  10.610 -1.6339  2.7619 -0.6853
63611SOL    HW295645   4.438  11.691  10.578 -0.3865  0.7750 -0.8316
63612SOL     OW95646   5.202  11.480   8.359 -0.1636  0.4077 -0.2861
63612SOL    HW195647   5.128  11.515   8.408  0.4985  1.0505  0.2877
63612SOL    HW295648   5.163  11.430   8.288 -1.1468  2.5635 -1.3225
63613SOL     OW95649  12.282   3.261  12.461 -0.5349 -0.0105 -0.5350
63613SOL    HW195650  12.374   3.288  12.467 -0.2754 -0.7393 -1.0837
63613SOL    HW295651  12.248   3.310  12.386 -0.3640 -0.3558 -0.8426
63614SOL     OW95652   7.553   8.110   7.997 -0.7517  0.0688 -0.4585
63614SOL    HW195653   7.635   8.126   8.042  0.3069 -1.3560 -1.7652
63614SOL    HW295654   7.562   8.156   7.913 -1.7889  0.8732 -0.1509
63615SOL     OW95655   6.685   6.750  11.386  0.5778 -0.3117 -0.1554
63615SOL    HW195656   6.667   6.843  11.371 -0.1168 -0.2829  0.7695
63615SOL    HW295657   6.678   6.710  11.299 -0.1025  0.3494 -0.4151
63616SOL     OW95658  10.139  11.320  11.626  0.2161  0.2276  0.2378
63616SOL    HW195659  10.094  11.401  11.650  0.8846  0.8987 -0.7091
63616SOL    HW295660  10.098  11.292  11.544  0.7175  0.1890 -0.0011
63617SOL     OW95661   4.755   3.128   3.793 -0.3225  0.3439 -0.5413
63617SOL    HW195662   4.723   3.143   3.882 -0.2605  0.7699 -0.5912
63617SOL    HW295663   4.693   3.064   3.756 -0.9760  0.9801 -0.5573
63618SOL     OW95664   0.973   7.400   7.991 -0.3352 -0.5083 -0.5706
63618SOL    HW195665   0.988   7.450   7.910 -1.8096 -0.5012 -0.8746
63618SOL    HW295666   1.003   7.459   8.060  0.8838 -0.4842 -1.0859
63619SOL     OW95667   2.247  10.934   6.516  0.1747 -0.4928 -0.1807
63619SOL    HW195668   2.297  10.856   6.491  1.5753 -0.6828  2.7491
63619SOL    HW295669   2.272  10.950   6.607 -1.3031  2.4608 -0.1707
63620SOL     OW95670   2.915   0.617   0.350  0.6163  0.1672 -0.5385
63620SOL    HW195671   2.962   0.580   0.276  0.9541  1.0308 -0.7622
63620SOL    HW295672   2.955   0.702   0.365 -1.0325  1.0512 -0.9022
63621SOL     OW95673  10.733  10.192   3.625  0.7458  0.1330  0.5664
63621SOL    HW195674  10.660  10.253   3.642 -1.2505 -1.9636 -0.0529
63621SOL    HW295675  10.807  10.232   3.670 -0.9892  1.9021  2.0762
63622SOL     OW95676   8.792   7.231   1.506  0.0483 -0.4167  0.0891
63622SOL    HW195677   8.862   7.168   1.488  0.2972 -0.0460 -0.2522
63622SOL    HW295678   8.715   7.195   1.461  0.3270 -0.2036 -0.5773
63623SOL     OW95679   8.758   2.194   0.936 -0.1962 -0.2192 -0.1265
63623SOL    HW195680   8.850   2.171   0.949 -0.4041 -0.3511  1.1653
63623SOL    HW295681   8.760   2.264   0.870  0.9377  0.7636  0.9159
63624SOL     OW95682   2.288  10.255   1.205 -0.6754  0.0422  0.3029
63624SOL    HW195683   2.319  10.213   1.125  0.5170 -1.1308  1.3135
63624SOL    HW295684   2.366  10.296   1.242 -1.6491  2.5152 -0.2199
63625SOL     OW95685   2.608  12.399   6.849 -0.1463  0.5850  0.1333
63625SOL    HW195686   2.600  12.487   6.885  0.3925  0.9928 -0.7011
63625SOL    HW295687   2.701  12.388   6.832 -0.5184  1.2961 -3.1109
63626SOL     OW95688   3.470   5.084   8.922  0.3777 -0.0230  0.6444
63626SOL    HW195689   3.544   5.023   8.918  1.5590  1.4041 -0.4395
63626SOL    HW295690   3.510   5.171   8.923 -1.2914  0.8058 -0.1009
63627SOL     OW95691   1.480   6.970   3.041 -0.5043 -0.3347  0.0152
63627SOL    HW195692   1.485   6.925   3.125  0.7396  1.6235  1.0394
63627SOL    HW295693   1.550   6.930   2.989  0.4953  0.2660  0.8643
63628SOL     OW95694   1.158   7.795   7.261  0.9292  0.2137 -0.6873
63628SOL    HW195695   1.151   7.706   7.296  0.1592  0.7067  0.4717
63628SOL    HW295696   1.148   7.852   7.337  0.2582  1.3221 -1.5671
63629SOL     OW95697   6.974   1.291   8.084  0.0032 -0.3357 -0.2853
63629SOL    HW195698   7.055   1.308   8.036 -0.7457  0.2495 -1.4036
63629SOL    HW295699   6.905   1.316   8.022 -1.0201 -0.5667  0.7413
63630SOL     OW95700   3.401   6.547   7.172 -0.1114 -0.1919  0.8960
63630SOL    HW195701   3.309   6.522   7.165  0.0488 -1.1625  1.9656
63630SOL    HW295702   3.434   6.543   7.082 -1.5561  2.0777  0.1755
63631SOL     OW95703   4.977   6.566   3.926  0.3041 -0.4129  0.2746
63631SOL    HW195704   5.010   6.498   3.866  0.0624 -0.5147  0.2544
63631SOL    HW295705   4.924   6.518   3.989  0.4993 -0.2944  0.5286
63632SOL     OW95706  11.672   3.836  11.982 -0.1308  0.3232 -0.3347
63632SOL    HW195707  11.672   3.892  11.905  0.7456  0.5399 -0.1821
63632SOL    HW295708  11.607   3.768  11.961 -2.3948  2.2113  0.1227
63633SOL     OW95709   1.687   1.146   1.524 -0.6366 -0.0097  0.1190
63633SOL    HW195710   1.602   1.147   1.567 -1.3143  1.3709 -1.1265
63633SOL    HW295711   1.686   1.067   1.470 -0.4360 -0.8676  1.3274
63634SOL     OW95712   1.331   3.981   5.805 -0.0941  0.2362 -0.1949
63634SOL    HW195713   1.253   3.988   5.860  0.0094 -0.1560  0.0083
63634SOL    HW295714   1.300   4.004   5.718 -1.5985 -4.2635 -1.1174
63635SOL     OW95715   4.170   6.557  10.375 -0.2812  0.2550  0.4339
63635SOL    HW195716   4.191   6.540  10.283  0.0649 -0.7112  0.6860
63635SOL    HW295717   4.075   6.553  10.380 -0.5036  2.8122 -0.3563
63636SOL     OW95718   9.008   5.514  12.023 -0.2768  0.1872  0.1264
63636SOL    HW195719   9.082   5.474  12.069 -0.8635  1.6422  2.4940
63636SOL    HW295720   8.955   5.439  11.993  1.3383 -0.8367 -0.2767
63637SOL     OW95721   1.167   6.399  11.322  0.4965  0.7136  0.0717
63637SOL    HW195722   1.094   6.454  11.293  0.7142  1.3707  0.7364
63637SOL    HW295723   1.155   6.390  11.417 -0.6158 -2.0023 -0.2446
63638SOL     OW95724   2.387   0.168  10.685 -0.3095 -0.0433  0.1481
63638SOL    HW195725   2.405   0.118  10.765 -0.8109 -1.2313 -0.4588
63638SOL    HW295726   2.345   0.106  10.626 -1.4705  1.2334 -0.4489
63639SOL     OW95727   7.704   7.729  11.440  0.3127  0.4952 -0.5095
63639SOL    HW195728   7.673   7.808  11.483 -0.4152  0.1289 -0.3294
63639SOL    HW295729   7.779   7.757  11.388  1.1275  0.9676  0.8774
63640SOL     OW95730   0.795   3.984   8.138 -0.3102 -0.2082 -0.2281
63640SOL    HW195731   0.738   3.945   8.072  0.7426 -3.3469  0.5251
63640SOL    HW295732   0.744   3.978   8.219 -0.2064  0.1844 -0.1337
63641SOL     OW95733   2.074   0.902   6.833 -0.3614 -0.2371  0.9529
63641SOL    HW195734   2.129   0.862   6.767 -1.1681  0.6902 -0.3411
63641SOL    HW295735   2.076   0.842   6.907 -2.4910 -3.3725 -1.2752
63642SOL     OW95736   6.003   7.588   3.494  0.3114 -0.0855 -0.3811
63642SOL    HW195737   6.022   7.553   3.581 -1.2172  0.9816  0.4216
63642SOL    HW295738   6.064   7.661   3.484 -0.8710  1.1342  0.7388
63643SOL     OW95739   5.886   8.838   1.931  0.6182  0.4620 -1.0109
63643SOL    HW195740   5.881   8.764   1.870  0.1887  0.0137 -0.4434
63643SOL    HW295741   5.973   8.876   1.916  1.1374 -0.6130 -0.7954
63644SOL     OW95742  11.500   6.304   9.286  0.4347  0.7813  0.3448
63644SOL    HW195743  11.533   6.219   9.314  1.7486  0.7959 -1.0612
63644SOL    HW295744  11.409   6.288   9.263 -0.7417  0.7261  4.2773
63645SOL     OW95745   4.126  11.586   9.036 -0.0118  0.6068 -0.0661
63645SOL    HW195746   4.094  11.543   8.957  0.3667  0.3610 -0.0897
63645SOL    HW295747   4.078  11.544   9.108  0.2941  0.1976 -0.0963
63646SOL     OW95748   7.174   7.135   8.021 -0.0742 -0.4145  0.4518
63646SOL    HW195749   7.225   7.154   7.942  0.9657 -1.0582  0.9384
63646SOL    HW295750   7.240   7.124   8.090 -0.9712  0.3843  1.4749
63647SOL     OW95751   5.314   9.092  11.280  0.3362 -0.2166 -0.2992
63647SOL    HW195752   5.393   9.082  11.333 -0.3948  0.6706  1.0347
63647SOL    HW295753   5.344   9.129  11.198  1.4997 -1.5241 -0.4962
63648SOL     OW95754  10.432   0.138  12.183 -0.5486 -0.1263  0.1952
63648SOL    HW195755  10.341   0.162  12.200 -1.4047 -2.0171 -1.3298
63648SOL    HW295756  10.471   0.217  12.147 -1.7587  0.5332  0.2644
63649SOL     OW95757   7.182   5.053   2.275 -0.0284 -0.1787 -0.2976
63649SOL    HW195758   7.224   5.055   2.189  1.2063  0.0716  0.2839
63649SOL    HW295759   7.094   5.086   2.260 -0.0258 -0.7136 -1.5639
63650SOL     OW95760  12.177   2.916   5.861 -0.8854  0.4475  0.1938
63650SOL    HW195761  12.200   2.903   5.953  2.0360  0.7489 -0.3898
63650SOL    HW295762  12.262   2.920   5.816 -2.2047  1.2040 -2.3923
63651SOL     OW95763   4.329   2.690   5.489 -0.1882  0.3849 -0.4149
63651SOL    HW195764   4.396   2.724   5.431 -1.6291  0.2830 -2.2247
63651SOL    HW295765   4.352   2.598   5.503  0.7648  0.6935  0.0900
63652SOL     OW95766   5.022   4.181   7.411  0.6939 -0.5267  0.0545
63652SOL    HW195767   4.978   4.171   7.326 -1.5203 -1.0541  1.1956
63652SOL    HW295768   4.962   4.142   7.474  1.1977  1.9133  2.2067
63653SOL     OW95769  10.056   7.759  10.022  0.2565 -0.2418 -0.4266
63653SOL    HW195770   9.962   7.780  10.024  0.5623  1.1847  0.0558
63653SOL    HW295771  10.086   7.796   9.939  0.8577  1.5630  0.5502
63654SOL     OW95772   1.537  10.551   5.024 -0.0694  0.2267  0.5452
63654SOL    HW195773   1.490  10.635   5.018 -1.1328 -0.4003 -0.2839
63654SOL    HW295774   1.607  10.559   4.959 -0.7919  0.1084 -0.2661
63655SOL     OW95775   8.990   5.776   0.727  0.1560 -0.2526  0.2937
63655SOL    HW195776   9.008   5.703   0.786 -0.1583 -0.8009 -0.2824
63655SOL    HW295777   8.952   5.844   0.784  0.7621 -0.3972  0.8916
63656SOL     OW95778   6.340   1.282   2.158 -0.1465  0.2006 -0.0946
63656SOL    HW195779   6.286   1.296   2.236 -1.1105  1.2664 -0.9240
63656SOL    HW295780   6.391   1.203   2.178 -3.9392 -2.5614 -0.2792
63657SOL     OW95781  11.249  10.741   8.561 -0.4055  0.7225 -0.4403
63657SOL    HW195782  11.273  10.700   8.644  0.1742  0.0459 -0.9327
63657SOL    HW295783  11.271  10.833   8.573 -1.3023  0.8297  0.5192
63658SOL     OW95784   9.671  11.331   5.294 -0.2388  0.4997 -0.0148
63658SOL    HW195785   9.629  11.304   5.376  1.4565  0.4761  0.9032
63658SOL    HW295786   9.607  11.309   5.226 -1.2518 -0.5153  1.1921
63659SOL     OW95787   7.013   8.726   0.021 -0.3924  0.2768  0.2049
63659SOL    HW195788   7.031   8.789  -0.049 -0.0245 -1.3685 -1.2285
63659SOL    HW295789   7.022   8.640  -0.020 -0.2595 -0.7549  2.2514
63660SOL     OW95790   6.008   0.438   7.647 -0.4785 -0.1583  0.0178
63660SOL    HW195791   5.983   0.474   7.562 -2.6629 -1.7938 -0.1086
63660SOL    HW295792   6.069   0.502   7.683  0.1639  0.8031 -2.5633
63661SOL     OW95793   4.091   5.189   9.673 -0.1908  0.2354 -0.7472
63661SOL    HW195794   4.148   5.179   9.749 -1.2275 -0.2135 -0.0141
63661SOL    HW295795   4.080   5.284   9.664 -1.5847  0.2631  0.8506
63662SOL     OW95796   4.554   6.226   6.553  0.5537 -0.3566 -0.1703
63662SOL    HW195797   4.463   6.241   6.578  0.2882  0.1535 -1.3858
63662SOL    HW295798   4.554   6.140   6.511  0.3798  0.1787 -1.3001
63663SOL     OW95799   3.477   2.244   0.739  0.4700 -0.2062 -0.2094
63663SOL    HW195800   3.520   2.329   0.753  1.6914 -0.8720  0.2487
63663SOL    HW295801   3.483   2.229   0.644 -0.7448  0.7100 -0.4475
63664SOL     OW95802   5.612   8.523   5.451 -0.0680 -0.0836  0.6085
63664SOL    HW195803   5.708   8.526   5.446 -0.1210  0.0296 -0.4342
63664SOL    HW295804   5.582   8.550   5.365 -1.0193 -1.3806  0.5024
63665SOL     OW95805   2.078   7.369  12.263 -0.2586 -0.2325 -0.4303
63665SOL    HW195806   2.076   7.447  12.207 -0.6147  0.1814  0.1454
63665SOL    HW295807   2.028   7.303  12.215 -0.2267 -0.0045 -0.7788
63666SOL     OW95808   7.084   6.874   6.370  0.3727  0.0381  0.1994
63666SOL    HW195809   7.147   6.802   6.374  1.4082  0.8964 -0.1067
63666SOL    HW295810   6.999   6.831   6.367  1.0186 -1.2512 -2.1089
63667SOL     OW95811   0.416   3.674   9.360 -0.8902  0.7518  0.2380
63667SOL    HW195812   0.337   3.690   9.411 -0.5853  0.2447  0.8858
63667SOL    HW295813   0.384   3.642   9.276 -1.3718  0.1520  0.6393
63668SOL     OW95814   4.643  12.432   0.994  0.2933  0.7214  0.1139
63668SOL    HW195815   4.704  12.478   1.052 -0.6720  0.4980  1.3557
63668SOL    HW295816   4.572  12.495   0.979 -0.1010  0.3230  0.2656
63669SOL     OW95817  12.320   0.083   6.279 -0.6567  0.0983 -1.0535
63669SOL    HW195818  12.309   0.005   6.333 -1.2135  0.8143 -0.0991
63669SOL    HW295819  12.267   0.150   6.323 -0.5351  0.8939 -2.0930
63670SOL     OW95820  10.368   6.685   0.294 -0.1731  0.5220  0.0571
63670SOL    HW195821  10.286   6.688   0.344 -0.1855 -0.4846  0.1238
63670SOL    HW295822  10.397   6.776   0.289 -1.7017  1.0001 -0.6358
63671SOL     OW95823   3.081   3.849   5.715 -0.0947  0.0209 -0.0604
63671SOL    HW195824   3.079   3.754   5.727 -1.3647 -0.1909 -1.5831
63671SOL    HW295825   3.137   3.862   5.638 -0.7456  0.4048 -0.4757
63672SOL     OW95826  12.098   9.925   5.299 -0.0504  0.2178 -0.5607
63672SOL    HW195827  12.041   9.881   5.363 -0.5699 -0.2398 -1.3201
63672SOL    HW295828  12.070  10.016   5.301  0.1771  0.2801  0.1180
63673SOL     OW95829   5.493   4.060  12.143 -0.4004  0.3185  0.3407
63673SOL    HW195830   5.490   4.066  12.047  0.1658  1.5526  0.3809
63673SOL    HW295831   5.571   4.009  12.162 -0.1691  0.5961  0.1486
63674SOL     OW95832   8.720   5.674   0.230 -0.4694  0.1980  0.1024
63674SOL    HW195833   8.653   5.736   0.259  0.7720  1.3461  0.5635
63674SOL    HW295834   8.752   5.710   0.147 -0.4768 -0.3999 -0.1664
63675SOL     OW95835   0.921   9.608   2.857  0.5346 -0.6072  0.5010
63675SOL    HW195836   0.988   9.548   2.824 -0.2693 -0.8901 -0.6629
63675SOL    HW295837   0.959   9.695   2.845  0.7250 -0.7696 -0.1184
63676SOL     OW95838   0.359  10.298   1.914 -0.0999 -0.1343 -0.2630
63676SOL    HW195839   0.292  10.234   1.939  0.2259  0.1233  1.4596
63676SOL    HW295840   0.332  10.379   1.957  0.3712  0.4486 -1.0457
63677SOL     OW95841   5.612   5.233   5.452 -0.1052  0.8844  0.4135
63677SOL    HW195842   5.684   5.288   5.484 -0.9023  1.4451  1.3271
63677SOL    HW295843   5.535   5.291   5.455 -0.3520  0.7848 -2.0223
63678SOL     OW95844   2.957   5.968  11.198 -0.2769  0.0617 -1.0321
63678SOL    HW195845   2.956   6.037  11.264 -2.0484 -1.6523  0.9100
63678SOL    HW295846   2.876   5.981  11.148 -2.0412 -1.9452  1.0458
63679SOL     OW95847   6.332   9.925  11.132 -0.1833  0.0919 -0.3843
63679SOL    HW195848   6.292   9.862  11.073  0.5221 -1.3280  0.5990
63679SOL    HW295849   6.363   9.873  11.206  0.3562  1.6054  0.5054
63680SOL     OW95850   4.612   8.720   7.338  0.7102  1.4504 -0.2582
63680SOL    HW195851   4.572   8.677   7.262 -1.1398  1.3127  0.7261
63680SOL    HW295852   4.672   8.655   7.374 -0.3065  0.5308 -0.1652
63681SOL     OW95853  11.815   8.502  10.848 -0.3931  0.1471 -0.1053
63681SOL    HW195854  11.801   8.476  10.939  0.4450 -0.3257 -0.1036
63681SOL    HW295855  11.822   8.598  10.852 -0.2621  0.1238  0.3440
63682SOL     OW95856   2.022   3.944   7.146  0.0096 -0.0489  0.5108
63682SOL    HW195857   1.953   3.969   7.084 -0.0763  0.0147  0.6316
63682SOL    HW295858   2.103   3.954   7.096 -0.1188 -0.8514  0.1275
63683SOL     OW95859   4.510   3.755  10.645 -0.0433 -0.3612 -0.0472
63683SOL    HW195860   4.497   3.849  10.660  0.1869 -0.4361  0.6636
63683SOL    HW295861   4.468   3.738  10.561  0.5365  0.5204 -0.5299
63684SOL     OW95862  11.528   1.136  12.185  0.5640  0.1540 -0.0086
63684SOL    HW195863  11.534   1.192  12.108 -1.1383 -0.1549 -0.3915
63684SOL    HW295864  11.612   1.090  12.188  1.4138  1.5999 -0.5327
63685SOL     OW95865   6.101   6.092   7.095 -0.3197 -0.9094  0.2341
63685SOL    HW195866   6.065   6.022   7.041  0.7485 -1.7093  0.5309
63685SOL    HW295867   6.143   6.151   7.033  0.2571 -1.4380  0.1080
63686SOL     OW95868   8.105  11.401   8.706  0.2940  0.1421  0.5225
63686SOL    HW195869   8.168  11.344   8.750 -0.2364 -2.1753 -1.5482
63686SOL    HW295870   8.149  11.428   8.626  0.0452  1.6855  0.8675
63687SOL     OW95871  12.379   1.337   7.411 -0.0321 -0.1927 -0.2882
63687SOL    HW195872  12.303   1.394   7.395 -0.1928 -0.8183 -2.0803
63687SOL    HW295873  12.437   1.388   7.466 -0.7551  1.1927 -0.7726
63688SOL     OW95874   7.281   8.672   7.326 -0.6422  0.1283  0.1271
63688SOL    HW195875   7.194   8.638   7.304 -0.2724 -1.4596  0.9732
63688SOL    HW295876   7.267   8.720   7.408 -0.9827  1.1681 -0.5287
63689SOL     OW95877   4.191   0.567   5.756 -0.1211  0.1175  0.1395
63689SOL    HW195878   4.231   0.485   5.730  0.2268 -0.2729  1.7733
63689SOL    HW295879   4.145   0.547   5.837 -0.6993  1.3573  0.1489
63690SOL     OW95880  11.266  12.545   6.063  0.0361 -0.7493 -0.7942
63690SOL    HW195881  11.303  12.470   6.109 -0.5753 -0.9758 -0.6640
63690SOL    HW295882  11.186  12.512   6.023 -1.2325  0.2322  0.7800
63691SOL     OW95883   9.707   9.371   3.999 -0.0747  0.0311  0.5681
63691SOL    HW195884   9.758   9.450   3.982  1.0929 -0.3810  1.9022
63691SOL    HW295885   9.631   9.402   4.048  1.1853  0.2109  2.5239
63692SOL     OW95886   2.205  10.375   4.576  0.3792  0.0527  0.4288
63692SOL    HW195887   2.274  10.401   4.515  0.5034  0.2533  0.6562
63692SOL    HW295888   2.132  10.349   4.519  0.7679 -0.5221  0.1800
63693SOL     OW95889   8.070   5.948  11.651  0.0556 -0.2191  0.5806
63693SOL    HW195890   8.146   5.998  11.683  0.5429 -1.0259  0.7023
63693SOL    HW295891   8.105   5.892  11.582 -0.6330  0.1327 -0.0698
63694SOL     OW95892   7.321   8.286   8.046  0.2239 -0.4274  0.3509
63694SOL    HW195893   7.264   8.208   8.046  2.3249 -2.0645 -0.7875
63694SOL    HW295894   7.390   8.265   8.108  0.8330  0.5249  0.0099
63695SOL     OW95895   7.587   5.211   0.018  0.0344 -0.2695  0.9704
63695SOL    HW195896   7.495   5.194  -0.003  0.1172 -0.4533  0.7520
63695SOL    HW295897   7.627   5.232  -0.066  0.2746 -0.5738  1.0097
63696SOL     OW95898   2.848   7.752   7.346 -0.3496 -0.3855  0.1044
63696SOL    HW195899   2.915   7.804   7.300  0.1275 -0.9150  0.1847
63696SOL    HW295900   2.767   7.772   7.301 -0.1810  0.4559  0.1521
63697SOL     OW95901   0.053   8.414   7.856  0.0266 -0.4733  0.0259
63697SOL    HW195902   0.033   8.506   7.876  0.3054 -0.2019 -0.8996
63697SOL    HW295903   0.031   8.404   7.764  0.3959 -1.2342  0.0106
63698SOL     OW95904   6.077   7.385   1.212 -0.1207 -0.4019 -0.1168
63698SOL    HW195905   6.122   7.318   1.160 -1.5631 -0.4543 -1.4012
63698SOL    HW295906   6.039   7.444   1.146 -1.2092  0.0855  0.9100
63699SOL     OW95907  10.818   1.253   2.273 -0.2073  0.2866  0.0283
63699SOL    HW195908  10.814   1.315   2.346 -0.6743 -0.2996  0.5161
63699SOL    HW295909  10.912   1.241   2.256 -0.0821  0.1111  0.8138
63700SOL     OW95910   2.974   6.142   8.704 -0.3388  0.5482 -0.3430
63700SOL    HW195911   2.909   6.197   8.747  0.3536 -0.1962  1.8213
63700SOL    HW295912   2.952   6.053   8.731 -0.4589 -0.1254 -2.4400
63701SOL     OW95913   1.735   7.332   4.067 -0.1827 -0.1560 -0.0404
63701SOL    HW195914   1.802   7.350   4.133  1.1506 -2.1072 -0.7662
63701SOL    HW295915   1.711   7.241   4.081 -0.3801 -0.4100 -1.8087
63702SOL     OW95916   9.534   7.287   3.757 -0.2395  0.0659  0.5379
63702SOL    HW195917   9.493   7.370   3.779  0.8878  0.4280  1.3578
63702SOL    HW295918   9.461   7.228   3.738 -1.0694  1.0627  0.5562
63703SOL     OW95919   8.472   4.544   8.572  0.2163  0.1653  0.1964
63703SOL    HW195920   8.541   4.605   8.547 -0.1626  0.4331 -0.1965
63703SOL    HW295921   8.404   4.556   8.506  0.3560 -1.0494 -0.1973
63704SOL     OW95922  12.320   8.023   4.698  0.2858  0.1633  0.0464
63704SOL    HW195923  12.334   7.955   4.632  0.6834 -0.5441  0.8360
63704SOL    HW295924  12.299   7.975   4.778  0.5297  0.9737  0.6161
63705SOL     OW95925   6.172   9.261   0.025  0.4007 -0.1639  0.3867
63705SOL    HW195926   6.125   9.340  -0.001 -0.3523 -1.3166 -2.0727
63705SOL    HW295927   6.108   9.210   0.075 -0.1552 -0.5753 -0.7200
63706SOL     OW95928  11.122   1.885   3.002  0.0180 -0.5789  0.0413
63706SOL    HW195929  11.101   1.813   3.061 -1.2508 -1.1629 -1.0657
63706SOL    HW295930  11.043   1.939   3.001  0.4194  0.0163 -0.2890
63707SOL     OW95931  12.308   7.858  10.761  0.6635 -0.1702  0.1775
63707SOL    HW195932  12.307   7.762  10.759  1.1306 -0.1808  0.4259
63707SOL    HW295933  12.383   7.882  10.706  1.6166  0.0026  1.5126
63708SOL     OW95934   7.484  10.298   9.828  0.5842 -0.1166  0.0903
63708SOL    HW195935   7.579  10.299   9.836  0.7000  0.7495 -1.1029
63708SOL    HW295936   7.468  10.269   9.739 -0.3772 -2.7283  1.0299
63709SOL     OW95937  12.508   6.577   9.856 -0.0991  0.1583 -0.1889
63709SOL    HW195938  12.534   6.494   9.815  0.1428  0.1138  0.0493
63709SOL    HW295939  12.462   6.624   9.787  1.9222  0.8917 -1.1398
63710SOL     OW95940  12.276   2.020  10.027  0.3497  0.0323 -0.0230
63710SOL    HW195941  12.251   2.043   9.937  2.0053  1.5366 -0.1397
63710SOL    HW295942  12.241   2.092  10.080 -1.0984 -1.1225  0.6470
63711SOL     OW95943  11.665  12.064   7.249 -0.1674 -0.7690 -0.2890
63711SOL    HW195944  11.606  12.107   7.187  0.6327  0.7636 -0.0542
63711SOL    HW295945  11.753  12.085   7.216  0.2819  0.1429  1.3536
63712SOL     OW95946   6.993   5.485   7.212  0.4587  0.1085  0.3038
63712SOL    HW195947   6.916   5.542   7.208  0.8385  0.5577 -0.7104
63712SOL    HW295948   7.065   5.543   7.238  0.6884 -0.0727  0.0724
63713SOL     OW95949   6.428  11.278   5.141 -0.1944  0.1192 -0.3514
63713SOL    HW195950   6.485  11.354   5.126 -0.4911  0.7036  1.2805
63713SOL    HW295951   6.427  11.268   5.236 -0.4672 -1.7204 -0.5218
63714SOL     OW95952   6.174   3.070   2.005  0.0635 -0.6958  0.0199
63714SOL    HW195953   6.155   3.110   1.921  0.9675 -0.4654 -0.0827
63714SOL    HW295954   6.234   2.997   1.985 -0.8281 -1.5310  0.3080
63715SOL     OW95955   2.351  10.590   2.100  0.0680 -0.6553 -0.1329
63715SOL    HW195956   2.408  10.632   2.165 -1.3273 -0.2912  0.9140
63715SOL    HW295957   2.404  10.585   2.021  0.8315  1.6417  0.1678
63716SOL     OW95958   2.982  10.664  10.166  0.5584 -0.0055 -0.0118
63716SOL    HW195959   2.941  10.739  10.208 -1.2123 -0.3573 -1.0113
63716SOL    HW295960   2.988  10.688  10.073 -3.1727 -2.2076 -1.0515
63717SOL     OW95961   1.666   0.585  12.495 -0.6135  0.3888 -0.1963
63717SOL    HW195962   1.734   0.556  12.557  0.2997  1.4555 -0.6666
63717SOL    HW295963   1.594   0.615  12.550 -0.0168  0.8348  0.3556
63718SOL     OW95964   7.136   4.474   4.157 -0.5627  0.5486 -0.3044
63718SOL    HW195965   7.054   4.492   4.203 -0.5967  2.4748 -1.0271
63718SOL    HW295966   7.195   4.441   4.224 -2.1296 -1.6653  0.0857
63719SOL     OW95967  11.381   8.401  11.315 -0.2276  0.2889 -0.4656
63719SOL    HW195968  11.448   8.365  11.258 -0.4151  0.5017 -0.8260
63719SOL    HW295969  11.339   8.469  11.262 -0.3866  0.5033 -0.0653
63720SOL     OW95970   1.483   8.574   2.632 -0.3427  0.2067  0.4712
63720SOL    HW195971   1.469   8.623   2.551  1.1643 -1.1307 -0.6782
63720SOL    HW295972   1.400   8.530   2.649 -0.0228 -1.4789 -1.8102
63721SOL     OW95973   8.838  10.379   5.824  0.2075 -0.0601  0.7630
63721SOL    HW195974   8.749  10.390   5.791  0.6959 -0.6171 -0.7977
63721SOL    HW295975   8.854  10.459   5.875 -1.0577  0.1824  0.8200
63722SOL     OW95976   7.844   4.636   5.873  0.0699 -0.1055  0.3691
63722SOL    HW195977   7.911   4.661   5.810 -1.0474  2.0410 -0.0618
63722SOL    HW295978   7.852   4.699   5.944 -0.9555 -0.3074  0.6878
63723SOL     OW95979  11.526   3.144   8.639 -0.3579  0.4296 -0.0368
63723SOL    HW195980  11.576   3.084   8.694 -0.6095  1.1737  1.0501
63723SOL    HW295981  11.592   3.194   8.592 -0.1382 -1.3636 -1.7849
63724SOL     OW95982  10.071  12.309  11.416  0.9272  0.3227 -0.2711
63724SOL    HW195983  10.136  12.243  11.442  1.2692  0.7254 -0.0935
63724SOL    HW295984  10.079  12.314  11.321  1.1291  0.3441 -0.2543
63725SOL     OW95985   5.431  10.011   1.082  0.0532 -0.4148  0.1813
63725SOL    HW195986   5.400   9.951   1.149 -0.1334 -1.8464 -1.1210
63725SOL    HW295987   5.518  10.037   1.111 -1.3797  2.0374  2.8569
63726SOL     OW95988   0.257   6.701   0.632  0.4618  0.2797 -0.1618
63726SOL    HW195989   0.306   6.634   0.680  0.6846 -0.7001 -1.6839
63726SOL    HW295990   0.176   6.712   0.681  1.1736  0.1934  1.0836
63727SOL     OW95991   7.863   9.620   1.371 -0.5534  0.3756  0.5014
63727SOL    HW195992   7.877   9.655   1.459 -3.4688  0.1625  1.1847
63727SOL    HW295993   7.873   9.525   1.381 -0.4023  0.3928  0.5062
63728SOL     OW95994   2.876   9.238  11.988 -0.1737 -0.2359  0.4541
63728SOL    HW195995   2.957   9.273  12.024  0.0652 -0.3463  0.0307
63728SOL    HW295996   2.846   9.175  12.053 -0.3820  0.4315  1.0188
63729SOL     OW95997   5.122   2.975   6.876 -0.0098 -0.0394 -0.5440
63729SOL    HW195998   5.145   2.987   6.969 -2.3314  2.1963 -0.1419
63729SOL    HW295999   5.194   2.923   6.840  1.9466  0.6359  2.0701
63730SOL     OW96000  11.192   5.755  10.605  0.0397  0.5781  0.6520
63730SOL    HW196001  11.255   5.816  10.643  0.7981 -0.6982  1.5154
63730SOL    HW296002  11.226   5.668  10.628 -1.0395 -0.1748 -0.4821
63731SOL     OW96003  11.166   8.901   2.140  0.5659  0.1208 -0.0719
63731SOL    HW196004  11.093   8.947   2.180 -0.4696  0.4122 -2.1494
63731SOL    HW296005  11.133   8.811   2.127  0.7045  0.1451 -0.6318
63732SOL     OW96006   3.317   5.656  10.869  0.3898  0.3002 -0.1133
63732SOL    HW196007   3.285   5.669  10.779 -3.1936 -0.8986  0.8427
63732SOL    HW296008   3.294   5.737  10.914  1.9173  0.7796 -0.1283
63733SOL     OW96009  12.148   0.683  11.796  0.5791 -0.0256  0.5313
63733SOL    HW196010  12.199   0.756  11.760  0.4401 -0.0434  0.2975
63733SOL    HW296011  12.184   0.670  11.884 -0.3541  1.2761  1.1439
63734SOL     OW96012   9.474   7.811   9.772  0.2076 -0.3147 -0.6188
63734SOL    HW196013   9.441   7.812   9.683  1.2920  0.3135 -1.0377
63734SOL    HW296014   9.500   7.721   9.788 -1.7036 -0.8452 -0.2490
63735SOL     OW96015   8.676  10.665   4.663  0.3398 -0.2002 -0.1035
63735SOL    HW196016   8.622  10.590   4.689  0.0841  0.5791  1.7813
63735SOL    HW296017   8.628  10.741   4.694  1.4454  0.6436 -0.4110
63736SOL     OW96018   2.691   8.613   5.350 -0.0344  0.3214 -0.9007
63736SOL    HW196019   2.690   8.617   5.254 -1.1240  2.5103 -0.8610
63736SOL    HW296020   2.665   8.523   5.371 -1.6044  0.3020 -2.6676
63737SOL     OW96021   0.727   1.293   2.418 -0.3664  0.2108 -0.1952
63737SOL    HW196022   0.652   1.292   2.359  0.1112 -0.8376 -0.8119
63737SOL    HW296023   0.791   1.236   2.376 -0.0137 -0.5641  1.3156
63738SOL     OW96024   9.825   9.069   8.716  0.0558 -0.2924 -0.4338
63738SOL    HW196025   9.737   9.029   8.715  0.3879 -1.0372 -0.6860
63738SOL    HW296026   9.853   9.064   8.807  0.7416 -2.1242 -0.7109
63739SOL     OW96027   0.131   9.763   2.055 -0.1357  0.4767 -0.0926
63739SOL    HW196028   0.103   9.835   2.110 -0.0814 -0.3965  1.1174
63739SOL    HW296029   0.049   9.721   2.028 -0.1312  0.2500  0.2383
63740SOL     OW96030   2.311  10.400  11.429 -0.7049  0.6338 -0.5152
63740SOL    HW196031   2.237  10.434  11.379 -0.8424 -0.7629 -1.3391
63740SOL    HW296032   2.388  10.441  11.390 -0.6411 -1.6212 -3.1315
63741SOL     OW96033  11.176  11.043  10.143 -0.1062 -0.1016  0.0245
63741SOL    HW196034  11.229  11.123  10.151  0.6641 -0.5571 -0.3454
63741SOL    HW296035  11.200  10.991  10.220  2.0268 -1.4533 -1.4515
63742SOL     OW96036  10.374   3.408   5.156  0.3999  0.0772 -0.0189
63742SOL    HW196037  10.423   3.343   5.205  1.7505  0.4375 -0.8354
63742SOL    HW296038  10.440   3.457   5.107 -0.6950  1.1744 -0.4809
63743SOL     OW96039   4.656   9.658   5.318 -0.4201  0.9448  0.0003
63743SOL    HW196040   4.643   9.739   5.268 -0.7638  0.5519 -0.5571
63743SOL    HW296041   4.694   9.597   5.255  2.5783  1.4867  1.0964
63744SOL     OW96042   6.300   5.005   6.796 -0.5164  0.4773  0.2650
63744SOL    HW196043   6.337   5.064   6.731 -1.0000  0.2029 -0.2656
63744SOL    HW296044   6.376   4.959   6.833 -0.1393  1.4205  0.6911
63745SOL     OW96045   6.898   7.091  11.332 -0.4487  0.6936  0.4773
63745SOL    HW196046   6.921   7.151  11.262 -1.4604  1.6153  0.9069
63745SOL    HW296047   6.933   7.006  11.304  0.1999  1.2906 -0.5627
63746SOL     OW96048   3.318   3.450   4.991  0.0871 -0.4103 -0.6518
63746SOL    HW196049   3.263   3.527   4.979  1.5841  0.9234  0.5876
63746SOL    HW296050   3.318   3.407   4.906 -2.3567 -0.1722 -0.8546
63747SOL     OW96051   0.399   5.724   6.708  0.2510  0.1998  0.1189
63747SOL    HW196052   0.341   5.669   6.759  0.5970  0.7334  1.1138
63747SOL    HW296053   0.485   5.684   6.718  0.0748 -0.6244 -1.3957
63748SOL     OW96054   9.509   6.803   7.970  0.5136 -0.4378 -0.3373
63748SOL    HW196055   9.584   6.743   7.965  0.2075 -0.7934 -0.7748
63748SOL    HW296056   9.436   6.753   7.932  0.1212  0.0063 -0.1758
63749SOL     OW96057   6.230   4.133   8.933 -0.4019  0.7399  0.3366
63749SOL    HW196058   6.287   4.202   8.965 -0.5072  1.0614 -0.1645
63749SOL    HW296059   6.218   4.153   8.840 -0.1370 -0.1518  0.0986
63750SOL     OW96060   2.930   7.550   2.333  0.4162  0.1348  0.0646
63750SOL    HW196061   2.898   7.617   2.273  0.5480 -2.0751 -2.7151
63750SOL    HW296062   2.977   7.598   2.401  0.6094  2.8027 -1.8182
63751SOL     OW96063   4.847  10.592  11.311 -0.1488  0.1263  0.1295
63751SOL    HW196064   4.873  10.506  11.279 -0.4395  0.9570 -2.5451
63751SOL    HW296065   4.916  10.617  11.373  1.6386 -0.7214 -1.4174
63752SOL     OW96066   1.768   6.729   8.176 -0.1852  0.3000 -0.1776
63752SOL    HW196067   1.848   6.682   8.197 -0.1356 -0.1612 -1.3181
63752SOL    HW296068   1.734   6.758   8.261 -0.3441 -1.9844  0.6145
63753SOL     OW96069   6.810  11.773  12.457  0.3136 -0.5361 -0.0450
63753SOL    HW196070   6.720  11.803  12.470 -0.1243 -1.9158  0.2598
63753SOL    HW296071   6.846  11.767  12.546  0.5248 -0.5155 -0.1291
63754SOL     OW96072   1.349   2.953   3.628  0.3657  0.1541  1.0299
63754SOL    HW196073   1.405   2.876   3.623 -0.8025 -0.7665  1.6677
63754SOL    HW296074   1.277   2.934   3.568  0.0678  0.7514  1.1919
63755SOL     OW96075   1.411   7.326  11.262 -0.7757  0.0982  0.5056
63755SOL    HW196076   1.454   7.402  11.220 -0.3915 -0.5386 -0.2823
63755SOL    HW296077   1.374   7.277  11.189  1.1794 -1.8377  0.7219
63756SOL     OW96078  11.914   4.224  12.311 -0.1751  0.0519  0.1797
63756SOL    HW196079  11.999   4.181  12.317  0.2905  1.0879  2.2301
63756SOL    HW296080  11.913   4.264  12.224  1.4012 -0.0824  0.0674
63757SOL     OW96081   8.952  12.216   9.763  0.2699 -0.9789  0.0205
63757SOL    HW196082   8.998  12.224   9.847  1.2248 -0.8147 -0.5093
63757SOL    HW296083   8.944  12.305   9.731 -0.8632 -0.9574  0.3274
63758SOL     OW96084   3.565   4.699   1.399  0.4135  0.5231  0.4720
63758SOL    HW196085   3.640   4.708   1.341  0.1651 -0.4215 -0.0253
63758SOL    HW296086   3.599   4.720   1.486  1.1672  0.4521  0.2005
63759SOL     OW96087   8.181   2.430   2.640  0.1575 -0.1859 -0.2068
63759SOL    HW196088   8.168   2.394   2.553 -0.4968  0.8095 -0.5488
63759SOL    HW296089   8.154   2.360   2.700  2.1723 -1.4727 -0.7289
63760SOL     OW96090  12.279   2.658  10.848  0.3621 -0.5722  0.3454
63760SOL    HW196091  12.372   2.672  10.864  0.3831 -0.1333 -0.1430
63760SOL    HW296092  12.235   2.718  10.909  0.3872 -0.9672  0.7617
63761SOL     OW96093   1.572   4.555   3.256 -0.6540 -0.2589  0.1091
63761SOL    HW196094   1.523   4.625   3.214 -0.6624 -0.0430  0.4802
63761SOL    HW296095   1.519   4.476   3.241 -0.7945 -0.1361 -0.0408
63762SOL     OW96096  11.039   9.572   0.902 -0.3236  0.3517  0.5932
63762SOL    HW196097  11.007   9.484   0.920 -0.0962 -0.1092 -1.0455
63762SOL    HW296098  11.114   9.558   0.844 -1.8450  1.6780 -1.8490
63763SOL     OW96099   9.252   9.541   6.308 -0.2608 -0.3257 -0.0137
63763SOL    HW196100   9.303   9.608   6.263  1.2260 -2.5445 -1.8568
63763SOL    HW296101   9.253   9.568   6.400  1.0170  1.6927 -0.5617
63764SOL     OW96102   9.615   2.457  10.779  0.0834 -0.3741  0.5209
63764SOL    HW196103   9.678   2.449  10.708 -0.6463  0.3125 -0.2259
63764SOL    HW296104   9.579   2.369  10.790 -2.7723  0.1737 -2.7866
63765SOL     OW96105   5.228   2.556   9.891  0.0037 -0.1916 -0.3891
63765SOL    HW196106   5.210   2.571   9.798  2.3984  0.7712 -0.7454
63765SOL    HW296107   5.323   2.547   9.897 -0.2249 -2.3315  1.7071
63766SOL     OW96108   2.414   0.562   5.649 -1.0672 -0.0078  0.0733
63766SOL    HW196109   2.410   0.474   5.612  0.8534  0.5371 -1.6082
63766SOL    HW296110   2.470   0.553   5.726  1.1143  0.0684 -1.4169
63767SOL     OW96111   1.876  11.304   1.795  0.0474 -0.0041 -0.0872
63767SOL    HW196112   1.876  11.305   1.700 -0.6802  0.0624 -0.0855
63767SOL    HW296113   1.969  11.302   1.819  0.2438  0.6109 -0.7847
63768SOL     OW96114   6.008   6.212   5.772 -0.0774 -0.1463 -0.1087
63768SOL    HW196115   6.058   6.287   5.740  0.4429 -0.3397  0.2257
63768SOL    HW296116   5.984   6.164   5.693  1.1388 -0.5810 -0.2348
63769SOL     OW96117   1.966  10.849   0.469 -0.4505 -0.2189 -0.6298
63769SOL    HW196118   1.875  10.834   0.497 -0.1848  0.9445  1.0092
63769SOL    HW296119   2.009  10.764   0.480 -0.7080 -0.1424  1.3255
63770SOL     OW96120   1.779  12.594  11.107  0.2743  0.0956  0.0519
63770SOL    HW196121   1.842  12.634  11.166  2.6347 -0.4326 -1.9333
63770SOL    HW296122   1.826  12.518  11.071 -1.8752 -0.9047 -0.7910
63771SOL     OW96123  10.308   3.082   0.680 -0.0524  0.1936 -0.8550
63771SOL    HW196124  10.345   2.994   0.682 -0.1885  0.0532 -2.7155
63771SOL    HW296125  10.225   3.072   0.634 -1.5398  0.8309  1.5722
63772SOL     OW96126   6.245   6.651  10.456  0.2296 -0.0733 -0.4929
63772SOL    HW196127   6.223   6.568  10.414  0.5014  0.3486 -1.4910
63772SOL    HW296128   6.286   6.703  10.387  0.6956  0.6390  0.3017
63773SOL     OW96129   0.068   7.523   5.859 -0.6226  0.2132  0.0095
63773SOL    HW196130   0.158   7.509   5.887 -0.3445  2.5764  0.5006
63773SOL    HW296131   0.014   7.497   5.934 -0.5952 -3.1164 -0.9474
63774SOL     OW96132   3.537   7.376   0.780  0.3177 -0.1432  0.2451
63774SOL    HW196133   3.472   7.446   0.769 -0.7089 -1.0452  0.4058
63774SOL    HW296134   3.621   7.417   0.759 -0.1390  1.3975  1.2800
63775SOL     OW96135   5.221   5.362   1.184  0.2162  0.0174  0.0920
63775SOL    HW196136   5.312   5.335   1.177  0.3357  0.5253 -0.4088
63775SOL    HW296137   5.172   5.280   1.189  0.3617 -0.4915 -3.6597
63776SOL     OW96138  11.545   1.575   6.690 -0.1896 -0.3444 -0.3498
63776SOL    HW196139  11.542   1.627   6.610  1.8035  0.2724 -0.0817
63776SOL    HW296140  11.594   1.629   6.752  2.2885 -2.6069 -0.1559
63777SOL     OW96141   1.480   7.684   9.820 -0.4301 -0.5217  0.3869
63777SOL    HW196142   1.448   7.606   9.865 -0.9047 -0.7202 -0.2775
63777SOL    HW296143   1.563   7.705   9.864 -0.6348 -0.9992  1.0125
63778SOL     OW96144   1.237   8.349   3.747 -0.1382  0.1235  0.6385
63778SOL    HW196145   1.325   8.312   3.753 -0.5019 -0.8254  0.3202
63778SOL    HW296146   1.181   8.282   3.787 -0.8810  0.0802 -0.4458
63779SOL     OW96147   4.256  11.300  11.235 -0.2532 -0.0839  0.1142
63779SOL    HW196148   4.192  11.304  11.164 -1.4176 -3.1402  0.8655
63779SOL    HW296149   4.203  11.302  11.315  0.8376  0.2279  0.8514
63780SOL     OW96150  11.445   2.924   1.928 -0.0247 -0.6964 -0.6355
63780SOL    HW196151  11.398   2.955   2.005 -0.2569 -2.6812  0.0959
63780SOL    HW296152  11.480   3.003   1.887  0.3442  0.4086  1.6440
63781SOL     OW96153   1.874   5.252   6.735 -0.5807  0.0228  0.4490
63781SOL    HW196154   1.838   5.164   6.718 -0.4053 -0.2602  1.4714
63781SOL    HW296155   1.883   5.256   6.830  2.0232  0.1137  0.2567
63782SOL     OW96156   7.642   0.385   7.567 -0.2218  0.0152 -0.4842
63782SOL    HW196157   7.647   0.290   7.577 -1.4731  0.1688  2.3178
63782SOL    HW296158   7.731   0.415   7.586 -0.0747 -0.5166 -0.3020
63783SOL     OW96159   3.296   0.929   4.056 -0.4500  0.5046 -0.3928
63783SOL    HW196160   3.259   1.009   4.018 -1.0408  1.6209  2.2991
63783SOL    HW296161   3.222   0.869   4.063 -0.4501  0.4890 -0.5252
63784SOL     OW96162   6.445  12.236   6.585 -0.4119  0.0571  0.1571
63784SOL    HW196163   6.490  12.308   6.629  1.0339 -0.9043  0.3397
63784SOL    HW296164   6.473  12.158   6.632 -0.1121 -0.8360 -1.4192
63785SOL     OW96165  10.609   3.770   4.447  0.0774 -0.5206  0.1047
63785SOL    HW196166  10.645   3.685   4.422  0.7721  0.5967 -3.0924
63785SOL    HW296167  10.540   3.787   4.382  0.6132  1.7456  0.0421
63786SOL     OW96168   5.796   4.953  10.724 -0.3749  0.8851 -0.2578
63786SOL    HW196169   5.762   4.865  10.741  0.4519  0.3333 -1.2666
63786SOL    HW296170   5.879   4.937  10.677 -0.2482  2.2000 -0.5104
63787SOL     OW96171   4.377   6.060  11.269  0.0152 -0.1643 -0.0017
63787SOL    HW196172   4.285   6.045  11.295  0.0584 -0.6214 -0.0946
63787SOL    HW296173   4.403   5.977  11.228 -0.3552  0.8375 -2.4168
63788SOL     OW96174  11.634   2.015  10.776 -0.4270  0.2542  0.5289
63788SOL    HW196175  11.699   2.041  10.710 -0.5066 -0.3728  0.1979
63788SOL    HW296176  11.569   2.086  10.775  1.3135  2.0143  2.3828
63789SOL     OW96177   5.157   6.927  11.525 -0.0794  0.2335  0.4055
63789SOL    HW196178   5.190   6.927  11.614 -0.8356 -0.1916  0.6996
63789SOL    HW296179   5.100   7.004  11.520 -0.4238 -0.0151  0.4455
63790SOL     OW96180   5.929  10.042   4.784  0.0732 -0.2924 -0.0953
63790SOL    HW196181   5.890  10.007   4.704 -0.1488  0.9885 -0.5618
63790SOL    HW296182   5.879  10.000   4.854 -2.6081  1.6805 -0.6699
63791SOL     OW96183  11.530   2.108   9.233  0.0614  0.2609  0.2359
63791SOL    HW196184  11.476   2.031   9.249  0.3664  0.1622  0.8228
63791SOL    HW296185  11.604   2.076   9.183 -0.3203  0.3639 -0.4128
63792SOL     OW96186  11.439   4.490   6.105  0.4480  0.0090  0.0219
63792SOL    HW196187  11.359   4.445   6.131 -1.2168  1.3832 -2.3509
63792SOL    HW296188  11.509   4.444   6.152 -1.3631 -3.2788 -0.2030
63793SOL     OW96189  12.294  12.099   7.439  0.3592 -0.1321  0.6485
63793SOL    HW196190  12.237  12.046   7.494  0.8501 -1.7087 -0.3002
63793SOL    HW296191  12.371  12.045   7.423  0.8825  0.8486 -0.3845
63794SOL     OW96192   6.012   9.503   1.824 -0.1714 -0.1424 -0.0492
63794SOL    HW196193   6.013   9.509   1.728  1.1493  0.2581 -0.0232
63794SOL    HW296194   6.047   9.587   1.854  0.8359 -0.8349  0.7523
63795SOL     OW96195   3.534   6.254  10.307  0.6437  0.8820 -0.4069
63795SOL    HW196196   3.592   6.305  10.250  1.4679  0.7210  0.2544
63795SOL    HW296197   3.466   6.220  10.249  1.0588  1.3141 -1.1564
63796SOL     OW96198   6.267  10.033   7.488  0.7891 -0.4822  0.8248
63796SOL    HW196199   6.331  10.102   7.474  0.3704 -0.3017 -0.3561
63796SOL    HW296200   6.307   9.955   7.449  2.1784 -1.5119  3.9515
63797SOL     OW96201   1.799   2.298   2.456  0.5056 -0.4688 -0.0763
63797SOL    HW196202   1.829   2.222   2.407 -0.7946 -0.6063 -0.6880
63797SOL    HW296203   1.838   2.373   2.410 -0.1314 -0.6383 -0.9203
63798SOL     OW96204   8.656   4.103   6.613 -0.2790  0.4428  0.5284
63798SOL    HW196205   8.708   4.026   6.592 -1.1192 -0.3279  1.2307
63798SOL    HW296206   8.616   4.084   6.697 -0.3068  1.7558  0.8389
63799SOL     OW96207   1.397  11.452   0.218 -0.0475  0.3790 -0.1146
63799SOL    HW196208   1.464  11.432   0.153  1.7731  0.1612  1.7219
63799SOL    HW296209   1.412  11.543   0.241 -1.8168  0.9929 -1.2009
63800SOL     OW96210  11.114   9.071  11.709  0.0198  0.2737  0.1878
63800SOL    HW196211  11.021   9.052  11.694  0.1923 -1.0070  0.6544
63800SOL    HW296212  11.114   9.135  11.780 -0.5172  0.8604 -0.3170
63801SOL     OW96213   1.180  10.467   5.855 -0.6044 -0.0845  0.2098
63801SOL    HW196214   1.235  10.531   5.809  0.8114 -0.5743  1.1405
63801SOL    HW296215   1.236  10.434   5.925 -2.2627 -0.2999  1.4911
63802SOL     OW96216   7.079   2.040   2.776  0.4331 -0.0242  0.7589
63802SOL    HW196217   7.123   1.996   2.849 -0.2450 -1.5968  0.2628
63802SOL    HW296218   6.998   1.991   2.763  0.8465 -0.2557 -1.4728
63803SOL     OW96219   6.785   7.472   9.590 -0.4690  0.5739  0.2005
63803SOL    HW196220   6.771   7.405   9.656 -0.0562 -1.1596 -1.3859
63803SOL    HW296221   6.699   7.481   9.547 -0.3066  0.3981 -0.1665
63804SOL     OW96222   0.646   5.858   9.939 -0.8279  0.1772  0.5769
63804SOL    HW196223   0.611   5.776   9.973 -1.4581  0.0612 -0.3294
63804SOL    HW296224   0.613   5.925   9.999  1.1271 -0.3415  2.3969
63805SOL     OW96225   5.970   2.641   6.436  0.0275  0.2427  0.4935
63805SOL    HW196226   5.932   2.714   6.389  2.7051  0.9868 -0.6902
63805SOL    HW296227   6.065   2.654   6.430  0.6241 -3.0015  0.7217
63806SOL     OW96228   4.961   9.961  10.793 -0.6470  0.3182 -0.1880
63806SOL    HW196229   4.865   9.961  10.796 -0.6258  0.1298  0.8506
63806SOL    HW296230   4.986   9.877  10.830 -0.0571  1.0473  1.1437
63807SOL     OW96231   4.294   7.085   2.012  0.0860 -0.6908 -0.1743
63807SOL    HW196232   4.332   7.148   1.951 -2.9433  0.3849 -1.0904
63807SOL    HW296233   4.263   7.139   2.086 -0.1846 -1.4523  0.2775
63808SOL     OW96234   1.655   3.778   6.277  0.4143  0.0091 -0.3459
63808SOL    HW196235   1.571   3.812   6.307 -1.3625 -0.8127 -3.9191
63808SOL    HW296236   1.646   3.683   6.282  1.9147 -0.1134  0.9629
63809SOL     OW96237  10.959   5.212   4.597  0.5563  0.6848  0.1077
63809SOL    HW196238  11.039   5.196   4.648  0.3042 -0.2421  0.2391
63809SOL    HW296239  10.982   5.184   4.508 -0.3878 -2.1974  0.6630
63810SOL     OW96240   3.569   7.314   6.197  0.6082  0.1422 -0.0514
63810SOL    HW196241   3.556   7.362   6.279  0.9785 -0.3539  0.2955
63810SOL    HW296242   3.638   7.363   6.151  0.0721  0.6956 -0.2908
63811SOL     OW96243   5.082  12.419   2.560 -0.4730  0.5287 -0.3735
63811SOL    HW196244   5.109  12.397   2.649  2.0488  0.7571 -1.0248
63811SOL    HW296245   5.055  12.335   2.522 -0.5790  0.2711  0.2613
63812SOL     OW96246   0.973   2.869   6.259  0.4096  0.2502 -0.3378
63812SOL    HW196247   1.028   2.936   6.217 -0.2299  1.3116  0.4474
63812SOL    HW296248   1.036   2.812   6.304  0.9153  1.4914  0.6152
63813SOL     OW96249   8.893   3.455   0.394  0.4340  0.3066  0.7453
63813SOL    HW196250   8.936   3.376   0.426 -0.3056 -0.5472 -0.2887
63813SOL    HW296251   8.857   3.496   0.472  0.7029 -0.4630  1.2894
63814SOL     OW96252  11.791  10.540   9.767 -0.1337 -0.0614  0.2472
63814SOL    HW196253  11.723  10.475   9.749  0.5953 -0.4135 -1.4723
63814SOL    HW296254  11.816  10.525   9.858 -1.7440 -0.4928  0.6406
63815SOL     OW96255   6.090   6.530   2.973  0.4843  0.3954  0.5587
63815SOL    HW196256   6.052   6.444   2.952 -0.0044  0.4492  1.2022
63815SOL    HW296257   6.170   6.510   3.021  0.6945  0.2932  0.1683
63816SOL     OW96258   6.602   0.600   2.363  0.3378 -0.4540  0.0721
63816SOL    HW196259   6.634   0.599   2.272  0.9719 -1.5498  0.2788
63816SOL    HW296260   6.679   0.625   2.415 -0.6440  2.7442  0.1591
63817SOL     OW96261  10.762   2.412   6.844 -0.4877 -0.1232  0.0313
63817SOL    HW196262  10.721   2.325   6.847 -1.0159  0.1360  0.5583
63817SOL    HW296263  10.790   2.421   6.753  1.0581 -1.4989  0.3139
63818SOL     OW96264   4.060   3.753   6.574  0.2884 -0.7934  0.5342
63818SOL    HW196265   3.972   3.763   6.610  0.1759 -0.6344  0.2186
63818SOL    HW296266   4.066   3.819   6.505  0.1956 -1.6144 -0.3012
63819SOL     OW96267  12.333   1.334  10.781 -0.3538 -0.7107  0.1643
63819SOL    HW196268  12.307   1.332  10.689 -0.4562 -1.3409  0.2015
63819SOL    HW296269  12.351   1.243  10.803  2.3967 -0.2702  0.0203
63820SOL     OW96270   0.177   3.904   5.461  0.4122 -0.3270  0.1842
63820SOL    HW196271   0.103   3.843   5.468  0.6688 -0.6340  0.2624
63820SOL    HW296272   0.176   3.932   5.369 -0.1497  0.1216  0.3218
63821SOL     OW96273   5.177   2.370  10.189 -0.5035  0.1291  0.0178
63821SOL    HW196274   5.124   2.396  10.113 -1.4542 -1.8092 -0.0425
63821SOL    HW296275   5.186   2.276  10.180  0.9522  0.1157  1.3555
63822SOL     OW96276   3.664   9.142   8.793 -0.1929  0.0670  0.0140
63822SOL    HW196277   3.609   9.165   8.868 -0.1587 -0.8446  0.3318
63822SOL    HW296278   3.603   9.105   8.729 -0.1965  0.6893 -0.3596
63823SOL     OW96279   4.035   1.554   9.762  0.1893  0.1767  0.0723
63823SOL    HW196280   3.979   1.494   9.713 -0.9241 -0.0650  1.5612
63823SOL    HW296281   4.024   1.638   9.718 -2.2683  0.4010  0.9254
63824SOL     OW96282   0.495  11.294   8.926 -0.2162 -0.2762 -0.3085
63824SOL    HW196283   0.585  11.329   8.928 -0.1270 -0.5136 -0.0808
63824SOL    HW296284   0.468  11.293   9.018  0.8846 -3.5936  0.0906
63825SOL     OW96285   7.448   4.525   2.441 -0.0878 -0.1219  0.5244
63825SOL    HW196286   7.378   4.497   2.500  0.5231 -0.6939  0.9925
63825SOL    HW296287   7.403   4.564   2.366 -0.9008 -0.5075  0.8102
63826SOL     OW96288   7.576   5.636   0.334  0.3141 -0.3285 -0.5280
63826SOL    HW196289   7.530   5.661   0.414 -1.7235  1.2204 -2.0680
63826SOL    HW296290   7.548   5.546   0.317 -2.4801  0.6369 -1.5381
63827SOL     OW96291   2.293  11.070  12.022  0.1533 -0.0556  0.1444
63827SOL    HW196292   2.332  11.052  12.108  0.5449  1.7874  0.3970
63827SOL    HW296293   2.363  11.111  11.972 -0.9430  1.8056  0.0494
63828SOL     OW96294   8.129   2.530   7.554  0.5006 -0.9602  0.1214
63828SOL    HW196295   8.041   2.509   7.585 -0.6654  0.1198 -2.2114
63828SOL    HW296296   8.175   2.563   7.631 -0.9822 -1.9358  1.4755
63829SOL     OW96297   8.534   2.913   0.591  0.5222 -0.7520  0.1435
63829SOL    HW196298   8.493   2.970   0.656 -0.8307 -0.6902 -0.7245
63829SOL    HW296299   8.593   2.970   0.543  0.8883 -0.6084  0.7473
63830SOL     OW96300   9.601   8.431   9.999 -0.1675  0.1081 -0.4455
63830SOL    HW196301   9.522   8.441  10.052 -0.5558  1.0465 -1.1669
63830SOL    HW296302   9.672   8.428  10.062 -0.6192  1.1695  0.1299
63831SOL     OW96303   7.770   5.103   3.056  0.0140 -0.5893 -0.3386
63831SOL    HW196304   7.803   5.156   2.983  0.8323 -1.0784 -0.3366
63831SOL    HW296305   7.829   5.124   3.129  0.5671 -1.7365 -0.4309
63832SOL     OW96306  11.645   6.816   6.878  0.5382  0.1706  0.1930
63832SOL    HW196307  11.662   6.735   6.926 -0.6415  0.7559  1.6922
63832SOL    HW296308  11.638   6.789   6.787 -0.6226 -1.5478  0.7464
63833SOL     OW96309   2.155   7.291   9.350 -0.3576 -0.0250  0.2558
63833SOL    HW196310   2.132   7.263   9.261  1.7648  1.3114 -0.7883
63833SOL    HW296311   2.088   7.356   9.372 -0.7155 -0.1196 -0.5074
63834SOL     OW96312   2.293   7.918   8.810  0.1358  0.1219 -0.1069
63834SOL    HW196313   2.219   7.944   8.865 -0.1534  1.7063 -1.1774
63834SOL    HW296314   2.370   7.928   8.866 -0.4067 -1.7288  1.0832
63835SOL     OW96315   6.477   3.632  11.718  0.1020  0.3302 -0.2907
63835SOL    HW196316   6.462   3.692  11.645 -0.3790  1.2586  0.5542
63835SOL    HW296317   6.452   3.546  11.683  1.0719  0.5494 -1.6003
63836SOL     OW96318  11.509   0.944   1.215 -0.4223 -0.0818  0.1870
63836SOL    HW196319  11.524   0.986   1.130  0.9914  1.0107  0.9277
63836SOL    HW296320  11.507   1.016   1.278  1.2482 -0.9955  1.3989
63837SOL     OW96321   3.220   8.058   2.703 -0.1011  0.5016  0.2053
63837SOL    HW196322   3.155   8.036   2.635 -0.9373  0.9881  0.8377
63837SOL    HW296323   3.196   8.002   2.777  0.1090  0.8058  0.5000
63838SOL     OW96324   4.794   1.737   2.551  0.1595 -0.3535  0.2284
63838SOL    HW196325   4.815   1.830   2.547 -0.2670 -0.2605  0.0584
63838SOL    HW296326   4.872   1.693   2.515  0.6199 -0.1056  0.9091
63839SOL     OW96327   8.382   0.538   6.341  0.2291  0.0743 -0.1807
63839SOL    HW196328   8.461   0.501   6.301  1.7259  0.0021  2.5468
63839SOL    HW296329   8.408   0.627   6.366 -1.1663  0.6733 -0.7635
63840SOL     OW96330   7.789   9.919  11.983 -0.3097  0.5721  0.1683
63840SOL    HW196331   7.845   9.884  11.913 -0.1878  0.8660  0.1185
63840SOL    HW296332   7.711   9.864  11.980 -0.4935  0.8620 -0.4969
63841SOL     OW96333   5.607   0.563  12.125  0.4678  0.1157 -0.2121
63841SOL    HW196334   5.702   0.566  12.113  0.6953  3.8672  1.0342
63841SOL    HW296335   5.595   0.538  12.216 -0.0647 -4.0165 -1.2486
63842SOL     OW96336   0.109   3.142  12.138  0.2280 -0.1739 -0.2797
63842SOL    HW196337   0.090   3.052  12.110  0.1944  0.0734 -1.0918
63842SOL    HW296338   0.169   3.175  12.070  0.5979  0.2662  0.2562
63843SOL     OW96339  10.513   6.271   4.597 -0.2545  0.4156 -0.2902
63843SOL    HW196340  10.495   6.204   4.531  0.5633  0.0637 -0.1708
63843SOL    HW296341  10.580   6.232   4.653 -0.5989  0.8893  0.4801
63844SOL     OW96342   7.268  11.410   0.870  0.0251  0.2897  0.2650
63844SOL    HW196343   7.213  11.332   0.859  0.4369 -0.0822  0.8395
63844SOL    HW296344   7.321  11.413   0.790 -1.0206  0.8223 -0.4372
63845SOL     OW96345   1.649   2.329   2.149 -0.4334 -0.3498  0.5049
63845SOL    HW196346   1.606   2.374   2.222 -1.1722  1.0778 -0.7533
63845SOL    HW296347   1.584   2.330   2.079  0.8457 -0.1886 -0.7146
63846SOL     OW96348  10.533   8.597   9.155 -0.7145  0.1230  0.1983
63846SOL    HW196349  10.622   8.621   9.127 -0.0992 -0.8359  1.2221
63846SOL    HW296350  10.476   8.655   9.106  0.4617  0.5085 -0.7705
63847SOL     OW96351   5.913   5.072   6.619 -0.1004  0.3300  0.2993
63847SOL    HW196352   5.843   5.008   6.613  0.6193 -0.3921 -0.6887
63847SOL    HW296353   5.993   5.024   6.595  0.3275  1.7981 -1.5560
63848SOL     OW96354   4.413   4.078  12.121 -0.0816 -0.0204 -0.3594
63848SOL    HW196355   4.482   4.096  12.185 -1.2169  1.5942  0.5038
63848SOL    HW296356   4.392   4.164  12.084 -1.2841 -0.5445 -0.9590
63849SOL     OW96357   5.572   2.870  10.701  0.1612 -0.1747 -0.0040
63849SOL    HW196358   5.639   2.826  10.753 -0.0931 -1.0832 -0.4219
63849SOL    HW296359   5.524   2.924  10.764  1.0106  0.1636  0.3699
63850SOL     OW96360   3.754   5.038   4.203  0.4952  0.5798  0.0733
63850SOL    HW196361   3.848   5.018   4.197  0.3422  0.2062 -2.3720
63850SOL    HW296362   3.739   5.059   4.295  2.7888 -0.2778  0.7094
63851SOL     OW96363  12.268   1.279   8.354  0.3049 -0.0487 -0.4371
63851SOL    HW196364  12.276   1.323   8.269 -2.3324  1.5476  0.0149
63851SOL    HW296365  12.277   1.350   8.418 -1.1168 -0.6436  0.4554
63852SOL     OW96366   9.189   9.996   8.861  0.6711 -0.4741  0.0524
63852SOL    HW196367   9.215  10.044   8.783  1.4829  0.2128  0.7205
63852SOL    HW296368   9.209  10.056   8.934 -0.4510 -0.9330  0.7572
63853SOL     OW96369  10.789   6.311   6.828  0.4443 -0.0044 -0.0057
63853SOL    HW196370  10.774   6.403   6.803  1.2365  0.6045  1.6177
63853SOL    HW296371  10.884   6.302   6.824  0.4682 -0.3466  1.1781
63854SOL     OW96372   4.469   0.567   1.971  0.0657  0.1404 -0.1513
63854SOL    HW196373   4.547   0.522   2.002 -0.7465 -0.7712  0.6030
63854SOL    HW296374   4.491   0.660   1.978  1.2938 -0.1092 -0.5220
63855SOL     OW96375   7.908   5.630   6.939 -0.4571 -0.0945  0.4224
63855SOL    HW196376   7.917   5.694   6.868 -2.5227 -0.6787 -0.4552
63855SOL    HW296377   7.958   5.667   7.011  2.9255 -0.1396 -1.6977
63856SOL     OW96378   7.858   9.386   5.328 -0.3414 -0.1002 -0.4841
63856SOL    HW196379   7.787   9.432   5.282 -0.5391 -1.7408 -1.9706
63856SOL    HW296380   7.938   9.413   5.282 -0.1527  0.6171  0.2419
63857SOL     OW96381  12.199   8.584  11.439 -0.3071 -0.0957 -0.3991
63857SOL    HW196382  12.110   8.564  11.410  0.0537 -1.0382 -0.8998
63857SOL    HW296383  12.233   8.646  11.374 -0.5112  0.0565 -0.3578
63858SOL     OW96384   1.523   1.403  11.797 -0.4559  0.5784 -0.9455
63858SOL    HW196385   1.509   1.479  11.853  0.3584  1.6656 -2.1711
63858SOL    HW296386   1.597   1.357  11.836 -0.4841  0.8255 -0.6000
63859SOL     OW96387   6.888   3.896   4.844  0.3273  1.0940 -0.1248
63859SOL    HW196388   6.978   3.925   4.825  0.0800  1.5705 -0.5974
63859SOL    HW296389   6.863   3.945   4.922  1.0273 -0.2093  0.9753
63860SOL     OW96390   8.203   1.474   6.218 -0.2258  0.1647 -0.3835
63860SOL    HW196391   8.110   1.488   6.231 -0.5348 -2.1719  0.4135
63860SOL    HW296392   8.243   1.560   6.230 -2.1811  1.0350  0.1602
63861SOL     OW96393   6.703  12.528   2.595  0.3183 -0.1637  0.1059
63861SOL    HW196394   6.655  12.446   2.582  0.3907 -0.1629 -0.1550
63861SOL    HW296395   6.734  12.552   2.508  0.0218  0.3106  0.1312
63862SOL     OW96396  11.486   5.819   9.265 -1.0451  0.4428 -0.1230
63862SOL    HW196397  11.571   5.818   9.221  0.1490  1.6901  1.9760
63862SOL    HW296398  11.489   5.896   9.321 -3.0629 -0.2240  1.0156
63863SOL     OW96399   6.001   6.168   2.352 -0.1152 -0.2591  0.4720
63863SOL    HW196400   6.052   6.214   2.285 -0.6115  0.5092  0.6069
63863SOL    HW296401   6.058   6.168   2.429  0.3565 -0.9232  0.1271
63864SOL     OW96402  11.722   1.396  12.178  0.2056 -0.4873  0.7861
63864SOL    HW196403  11.687   1.430  12.096 -0.9088 -0.3861  1.2932
63864SOL    HW296404  11.809   1.363  12.155  0.8274  1.5229  0.0198
63865SOL     OW96405   1.158   9.308  10.302  0.1512  0.2810  0.2071
63865SOL    HW196406   1.183   9.217  10.318  0.3505  0.2924 -0.0277
63865SOL    HW296407   1.236   9.358  10.327  0.1856  0.3563 -0.0534
63866SOL     OW96408   9.213   3.523   6.219 -0.5194 -0.3172  0.0704
63866SOL    HW196409   9.161   3.590   6.173  1.2108  1.2381  0.2628
63866SOL    HW296410   9.240   3.567   6.300  0.2610 -1.4337  0.4270
63867SOL     OW96411   9.359   6.589   0.219  0.0693 -0.0185  0.3655
63867SOL    HW196412   9.405   6.667   0.189 -0.5809  0.1403 -0.2433
63867SOL    HW296413   9.391   6.518   0.163 -0.6765  0.1601 -0.3061
63868SOL     OW96414   5.973   7.304   9.179 -0.0905 -0.3278 -0.0456
63868SOL    HW196415   6.063   7.285   9.151  0.9798  0.2315  2.6447
63868SOL    HW296416   5.924   7.226   9.155  1.6471 -1.6430  0.4635
63869SOL     OW96417   0.732   4.470   2.199 -0.6028 -0.1466  0.3943
63869SOL    HW196418   0.653   4.515   2.169 -1.0024 -0.2111  1.2995
63869SOL    HW296419   0.707   4.433   2.284 -0.3037 -2.1609 -0.3513
63870SOL     OW96420   9.071  10.151   0.716 -0.5591  0.2439  0.2182
63870SOL    HW196421   9.021  10.069   0.709  0.2550 -0.3345  0.8628
63870SOL    HW296422   9.163  10.123   0.715 -0.2498  1.2360 -0.4124
63871SOL     OW96423   7.652   0.560   2.177 -0.3747  0.0600  0.0181
63871SOL    HW196424   7.609   0.616   2.112  0.1586 -0.0879 -0.4631
63871SOL    HW296425   7.605   0.477   2.171 -1.4737  0.5843  1.0600
63872SOL     OW96426   0.197  10.419   5.012 -0.1599 -0.4841 -0.1174
63872SOL    HW196427   0.250  10.341   5.027  0.3687 -0.3612 -1.2053
63872SOL    HW296428   0.138  10.424   5.087  1.2379 -0.7369  1.0222
63873SOL     OW96429   5.079   3.721   4.468 -0.2726  0.1637  0.2016
63873SOL    HW196430   5.159   3.691   4.511 -0.6628  0.9875  1.5768
63873SOL    HW296431   5.013   3.657   4.494 -0.3785  0.3100  0.2881
63874SOL     OW96432   0.119   1.041   3.777 -0.1850  0.3705  0.4713
63874SOL    HW196433   0.144   1.129   3.748  3.1066 -1.0387 -1.5658
63874SOL    HW296434   0.200   0.990   3.770 -1.6287 -2.5237  2.9708
63875SOL     OW96435   1.395   4.430   5.747  0.5741 -0.4965 -0.4008
63875SOL    HW196436   1.439   4.415   5.831  0.3246  0.3550 -0.1093
63875SOL    HW296437   1.443   4.375   5.685 -0.7908 -3.1322  0.7139
63876SOL     OW96438   7.446   6.421   3.211 -0.0300  0.4159 -0.1109
63876SOL    HW196439   7.439   6.392   3.302 -1.7619  1.9661  0.3040
63876SOL    HW296440   7.493   6.504   3.216 -2.5305  1.9289 -0.2309
63877SOL     OW96441   2.093   3.784   9.187 -0.1604 -0.0526 -0.3795
63877SOL    HW196442   2.039   3.845   9.237  1.2136  0.0573  1.0578
63877SOL    HW296443   2.139   3.733   9.253 -0.5898 -2.0889 -1.5393
63878SOL     OW96444  10.234  10.356   1.060 -0.1135 -0.2204  0.2005
63878SOL    HW196445  10.206  10.285   1.118 -3.0112  0.8037  0.2182
63878SOL    HW296446  10.186  10.341   0.978 -0.4831  1.4708  0.0665
63879SOL     OW96447   8.384   4.032   9.302  0.0595  0.4849 -0.4086
63879SOL    HW196448   8.340   4.021   9.217 -2.1550  0.1725  0.6972
63879SOL    HW296449   8.463   3.979   9.295 -0.9512 -0.9691 -1.6966
63880SOL     OW96450  12.043   7.718   0.825  0.6582  0.1303  0.8842
63880SOL    HW196451  12.075   7.678   0.906 -1.0693 -0.2244  1.4313
63880SOL    HW296452  12.078   7.807   0.826  2.2861 -0.4831  1.0186
63881SOL     OW96453   1.391   8.818   2.835  0.0383 -0.8773  0.1203
63881SOL    HW196454   1.440   8.768   2.769 -0.1028  1.5557 -1.9986
63881SOL    HW296455   1.457   8.852   2.894  0.6248 -0.1365 -0.9237
63882SOL     OW96456   8.422   2.668   3.072  0.0666 -0.2286 -0.0297
63882SOL    HW196457   8.381   2.739   3.121 -0.0190  0.7240 -1.4332
63882SOL    HW296458   8.456   2.710   2.993  2.1410 -1.3142  0.2275
63883SOL     OW96459   6.114  11.849   6.230  0.1908 -0.6684 -0.0023
63883SOL    HW196460   6.020  11.855   6.245  0.6067  0.2256  2.8245
63883SOL    HW296461   6.134  11.923   6.172 -0.9568 -1.6552 -1.7441
63884SOL     OW96462   7.715   8.074   6.391 -0.3435 -0.4259 -0.0346
63884SOL    HW196463   7.737   8.041   6.478 -0.7431 -1.1572 -0.2051
63884SOL    HW296464   7.751   8.163   6.389 -0.9765 -0.1166  1.1446
63885SOL     OW96465   4.004   4.631   9.705  0.5446  0.7839 -0.0752
63885SOL    HW196466   3.917   4.663   9.681  0.1010 -1.0565 -1.1411
63885SOL    HW296467   4.064   4.692   9.664 -0.2527  1.1580 -0.7126
63886SOL     OW96468  12.640   2.833   3.970 -0.3658  0.2724 -0.0647
63886SOL    HW196469  12.612   2.755   4.017  1.6880  0.7042  2.0798
63886SOL    HW296470  12.603   2.906   4.020 -0.1608  0.7317 -0.5671
63887SOL     OW96471  10.410   5.368   9.791 -0.0601  0.1508  0.4220
63887SOL    HW196472  10.502   5.373   9.817  0.3135 -0.7010 -0.6368
63887SOL    HW296473  10.401   5.434   9.723  0.3282 -1.1083 -0.9206
63888SOL     OW96474   0.978  10.825  11.564  0.3026 -0.2945  0.7449
63888SOL    HW196475   1.014  10.826  11.653  1.3707 -0.0880  0.3220
63888SOL    HW296476   1.042  10.776  11.513  0.1198  0.3156 -0.0815
63889SOL     OW96477   0.498   3.403   7.170  0.1231  0.2842  0.2902
63889SOL    HW196478   0.405   3.383   7.181  0.4468 -1.8270 -0.3636
63889SOL    HW296479   0.536   3.322   7.137  2.1913  1.1432  0.4239
63890SOL     OW96480   2.782   9.777   2.436 -0.0366 -0.0213  0.7512
63890SOL    HW196481   2.875   9.778   2.414 -0.1819 -0.0174  0.1286
63890SOL    HW296482   2.760   9.869   2.453  0.4247 -0.1863  2.4609
63891SOL     OW96483   0.719   1.831   3.389  0.7841 -0.1318  0.1621
63891SOL    HW196484   0.754   1.874   3.466 -3.0269  0.7745  1.6394
63891SOL    HW296485   0.685   1.902   3.334  1.0502 -0.9091 -1.0474
63892SOL     OW96486  11.743   2.592   4.383  0.0192  0.0943 -0.0644
63892SOL    HW196487  11.784   2.549   4.458 -0.0617 -0.4068 -0.3021
63892SOL    HW296488  11.771   2.541   4.308  0.8259  1.1173 -0.4870
63893SOL     OW96489  11.582   1.233  11.497 -0.2215  0.4138 -0.3790
63893SOL    HW196490  11.616   1.319  11.471 -0.6751  0.6770 -0.1153
63893SOL    HW296491  11.660   1.177  11.502 -0.0041  0.6426 -1.1825
63894SOL     OW96492   4.785   3.399   1.760  0.0576  0.0715  0.3794
63894SOL    HW196493   4.788   3.352   1.843 -0.4884  0.9464  0.9176
63894SOL    HW296494   4.844   3.474   1.772 -1.3798  1.2157  0.6587
63895SOL     OW96495   1.080   1.507   9.582  0.2232 -0.2064 -0.1036
63895SOL    HW196496   1.149   1.513   9.649  0.8731 -4.3596 -0.1581
63895SOL    HW296497   1.121   1.541   9.503  1.3509 -0.3213  0.4035
63896SOL     OW96498   8.813   8.069   0.391 -0.4724 -0.0101 -0.3058
63896SOL    HW196499   8.834   8.028   0.307  0.7013 -0.8479  0.3598
63896SOL    HW296500   8.898   8.096   0.426 -1.1028  1.9936 -0.1776
63897SOL     OW96501   8.142   0.482   4.496  0.6314  0.1150 -0.1895
63897SOL    HW196502   8.155   0.404   4.550  0.7659  1.6119  2.0900
63897SOL    HW296503   8.230   0.515   4.480  0.5404  0.2328 -0.4513
63898SOL     OW96504   4.879   8.936   2.916 -0.0849  0.8209  0.0107
63898SOL    HW196505   4.879   8.859   2.859 -2.0684  1.3355 -0.7678
63898SOL    HW296506   4.937   8.998   2.872 -0.8477  0.8581 -0.9858
63899SOL     OW96507   7.745   8.016   7.266 -0.2455 -0.4149 -0.1682
63899SOL    HW196508   7.758   7.993   7.358  1.4189 -1.9689 -0.7361
63899SOL    HW296509   7.650   8.022   7.256 -0.4758 -0.5942  1.5415
63900SOL     OW96510   1.296   0.043  11.691  0.4575  0.3464  0.2126
63900SOL    HW196511   1.260   0.129  11.713  0.7415  0.1579  1.5392
63900SOL    HW296512   1.296   0.040  11.596  0.2874  1.7553  0.1473
63901SOL     OW96513   5.768   5.781   9.121 -0.1287 -0.3341  0.2684
63901SOL    HW196514   5.721   5.760   9.202  0.4523 -1.0243  0.4396
63901SOL    HW296515   5.760   5.702   9.067  2.9273 -1.5339  1.3115
63902SOL     OW96516   7.841   3.617   7.308  0.3122 -0.1622  0.1075
63902SOL    HW196517   7.846   3.549   7.241  1.1396 -1.0104  1.0039
63902SOL    HW296518   7.789   3.577   7.378  0.5202  0.2535  0.4994
63903SOL     OW96519  10.930   6.389   3.315  0.3214 -0.4202  0.1527
63903SOL    HW196520  11.004   6.387   3.254  1.1896  1.2446  1.0774
63903SOL    HW296521  10.864   6.441   3.270 -0.4093 -2.0791 -0.7601
63904SOL     OW96522  11.950   0.430   4.152  0.0413 -0.0231 -0.3140
63904SOL    HW196523  12.021   0.430   4.216 -0.1490 -1.8843 -0.0307
63904SOL    HW296524  11.979   0.368   4.085 -1.6852 -1.6008  0.3089
63905SOL     OW96525   6.200   0.192   2.548  0.6474 -0.1932  0.2475
63905SOL    HW196526   6.267   0.258   2.567 -1.6824  2.6268 -0.7214
63905SOL    HW296527   6.144   0.192   2.625  0.3446 -0.7112  0.0300
63906SOL     OW96528  12.538  11.702   7.600  0.1502  0.5067 -0.0450
63906SOL    HW196529  12.612  11.761   7.611  0.1668  0.4014  0.4047
63906SOL    HW296530  12.481  11.746   7.536  1.6463 -0.3939 -2.1128
63907SOL     OW96531  11.750   4.920  12.638 -0.3956  1.1738  0.3819
63907SOL    HW196532  11.756   4.972  12.718 -2.4182  0.3869  1.1161
63907SOL    HW296533  11.756   4.830  12.668  2.1730  0.8700 -0.7818
63908SOL     OW96534   0.739  10.005  11.918  0.3641  0.4358 -0.0403
63908SOL    HW196535   0.694   9.974  11.997  1.4101  0.2741  0.5055
63908SOL    HW296536   0.739  10.100  11.927  2.9023  0.3920  1.6060
63909SOL     OW96537  10.971  11.533   8.890  0.0472 -0.3662  0.3070
63909SOL    HW196538  10.979  11.597   8.962 -1.8740  0.0234  0.2265
63909SOL    HW296539  10.968  11.448   8.934 -1.5809 -0.1037  0.7706
63910SOL     OW96540   9.267  11.697   2.029 -0.0923 -0.7063  0.6655
63910SOL    HW196541   9.207  11.632   1.992 -0.1396 -0.2512 -0.0681
63910SOL    HW296542   9.210  11.757   2.077 -0.3161  0.0608 -0.5137
63911SOL     OW96543   4.602   2.932   1.739 -0.2861  0.0524 -0.1045
63911SOL    HW196544   4.521   2.978   1.720 -0.1436 -0.1792 -1.3737
63911SOL    HW296545   4.655   2.995   1.789 -0.8255  0.5779 -0.1934
63912SOL     OW96546   7.751  10.915   9.085 -0.2132  0.1758  0.1677
63912SOL    HW196547   7.794  10.868   9.013 -0.5720 -0.3735  0.3116
63912SOL    HW296548   7.687  10.853   9.120 -1.3217  1.0868 -0.2150
63913SOL     OW96549   6.640   2.826   4.369  0.6828  0.0534 -0.1400
63913SOL    HW196550   6.681   2.911   4.387  2.0773 -0.6255  0.0728
63913SOL    HW296551   6.674   2.768   4.437 -0.2219 -0.6877 -0.3017
63914SOL     OW96552   5.759  10.617   0.698 -0.3456  0.1806  0.4242
63914SOL    HW196553   5.721  10.676   0.633 -2.0497 -0.8963  0.4141
63914SOL    HW296554   5.698  10.620   0.771  0.6724  0.0502  1.3003
63915SOL     OW96555   4.956   7.743   4.615  0.1322  0.5251 -0.4630
63915SOL    HW196556   4.974   7.826   4.658  0.2417  0.6048 -0.6646
63915SOL    HW296557   4.972   7.677   4.684  1.9730  0.5373 -0.8312
63916SOL     OW96558   5.744   5.682   8.009  0.4360  0.0887  0.5715
63916SOL    HW196559   5.730   5.606   8.066 -0.0775  0.3156  0.7625
63916SOL    HW296560   5.656   5.715   7.992  0.5145 -0.4663 -1.0498
63917SOL     OW96561  11.116   4.283   4.766  0.0209 -0.4171  0.4150
63917SOL    HW196562  11.040   4.291   4.824 -0.4646 -0.8220 -0.1498
63917SOL    HW296563  11.097   4.205   4.713  0.3187  0.1094 -0.4888
63918SOL     OW96564   3.978   6.974   0.205  0.4401  0.6446 -0.1374
63918SOL    HW196565   4.020   7.044   0.156 -1.4712  0.9722 -1.4023
63918SOL    HW296566   4.028   6.895   0.182 -0.7712  0.6632 -3.2151
63919SOL     OW96567   0.939   2.962   0.324  0.3930  0.5577  0.0026
63919SOL    HW196568   0.894   2.934   0.244  0.8919  1.1450 -0.4884
63919SOL    HW296569   0.956   2.880   0.371 -1.1575  0.3036  0.2047
63920SOL     OW96570  10.115   2.286  12.514 -0.1669 -0.1024 -0.0542
63920SOL    HW196571  10.030   2.243  12.523 -0.0186 -0.1877  1.1096
63920SOL    HW296572  10.109   2.363  12.570  1.0708 -1.0118  1.4258
63921SOL     OW96573  10.268   7.979   2.323  0.4525 -0.2371 -0.4310
63921SOL    HW196574  10.336   8.007   2.261  0.9447  1.2260  0.7106
63921SOL    HW296575  10.315   7.930   2.390  0.1260 -0.6111 -0.4705
63922SOL     OW96576   6.896   1.744   6.629 -0.1030  1.0458 -0.1022
63922SOL    HW196577   6.872   1.836   6.617 -0.8129  1.0690  1.3306
63922SOL    HW296578   6.892   1.707   6.541 -0.8670  2.1455 -0.5535
63923SOL     OW96579   5.517  11.955   6.891  0.0048 -0.3477 -0.2201
63923SOL    HW196580   5.546  11.863   6.893 -0.9951 -0.6793  1.6664
63923SOL    HW296581   5.430  11.952   6.852  0.8410  0.1343 -2.2320
63924SOL     OW96582   6.279   4.163   2.007 -0.3447  0.4949 -0.1901
63924SOL    HW196583   6.234   4.082   1.982 -0.2590 -0.0153  1.2538
63924SOL    HW296584   6.362   4.134   2.043  0.5515  1.3546 -1.4657
63925SOL     OW96585   2.008   8.785   0.702 -0.2863 -0.3064  0.3369
63925SOL    HW196586   1.921   8.758   0.675 -0.2424 -0.0030 -0.1097
63925SOL    HW296587   2.032   8.723   0.771 -0.7943 -0.4772  0.3624
63926SOL     OW96588   2.819  12.586   5.189  0.4081  0.2076  0.2777
63926SOL    HW196589   2.797  12.539   5.108  0.6123 -0.6652  0.7082
63926SOL    HW296590   2.887  12.532   5.230 -1.5501 -0.8779  2.3457
63927SOL     OW96591   4.516   5.219   0.689 -0.0315  0.2251  0.7469
63927SOL    HW196592   4.473   5.134   0.673  0.2677  0.3319 -0.8105
63927SOL    HW296593   4.449   5.271   0.734 -0.5690 -0.5096  0.8233
63928SOL     OW96594   2.909   1.904   7.910 -0.1088 -0.1687 -0.1813
63928SOL    HW196595   2.878   1.992   7.930  0.9259 -0.3009  2.3179
63928SOL    HW296596   2.839   1.846   7.940  0.6240 -0.2867  1.4033
63929SOL     OW96597   1.365   8.193   2.667 -0.0044  0.2029 -0.2897
63929SOL    HW196598   1.274   8.220   2.652  0.2882  0.3173 -2.1403
63929SOL    HW296599   1.407   8.205   2.582  1.2024 -1.9825 -0.0619
63930SOL     OW96600   2.723   9.030   6.027  0.0649  0.0080 -0.0814
63930SOL    HW196601   2.714   9.109   5.973 -2.3188  0.3177  0.6213
63930SOL    HW296602   2.706   9.061   6.116 -0.8499 -1.2529  0.2091
63931SOL     OW96603   2.652   1.480   9.793  0.6513 -0.2488 -0.0958
63931SOL    HW196604   2.563   1.445   9.783  1.1543 -1.6443  0.0295
63931SOL    HW296605   2.645   1.542   9.866 -0.2607 -0.2073 -0.2072
63932SOL     OW96606   0.101   1.948   7.030 -0.3706 -0.1597  0.2275
63932SOL    HW196607   0.058   2.034   7.025  0.5717  0.2818 -0.5668
63932SOL    HW296608   0.036   1.891   7.071 -1.5503  0.5914 -0.5411
63933SOL     OW96609   0.709   4.122   5.376  0.2371 -0.0567  0.2839
63933SOL    HW196610   0.729   4.029   5.385 -0.4683 -0.3443 -0.9865
63933SOL    HW296611   0.785   4.166   5.415  1.8285 -1.1502 -1.4286
63934SOL     OW96612  10.036  12.145   2.268 -0.2018 -0.2188 -0.4820
63934SOL    HW196613   9.970  12.103   2.323 -0.8670 -1.1555 -1.9424
63934SOL    HW296614   9.987  12.213   2.221  0.2789  0.3185 -0.2196
63935SOL     OW96615  10.511   3.092   4.029 -0.2902  0.2315 -0.3874
63935SOL    HW196616  10.492   3.143   3.951 -2.1819 -0.2679 -0.2899
63935SOL    HW296617  10.598   3.055   4.013 -0.2686  0.8659 -1.8442
63936SOL     OW96618   1.740   6.060   3.329 -0.1630  0.6140 -0.0551
63936SOL    HW196619   1.673   6.097   3.387  0.8979  0.8210  1.0800
63936SOL    HW296620   1.798   6.011   3.387 -2.0905 -4.0078 -1.5441
63937SOL     OW96621  12.536   2.641   4.185  0.4209  0.1007 -0.0909
63937SOL    HW196622  12.528   2.552   4.152  0.9977  0.5199 -1.4621
63937SOL    HW296623  12.461   2.688   4.147  2.0447  1.0124 -2.4400
63938SOL     OW96624   2.686   6.170   7.038  0.0527  0.1119 -0.2722
63938SOL    HW196625   2.683   6.266   7.034 -0.4757  0.0799 -0.9748
63938SOL    HW296626   2.685   6.143   6.946  0.5170 -0.5647 -0.0854
63939SOL     OW96627   5.443   6.297   3.358 -0.4233 -0.0425 -0.4211
63939SOL    HW196628   5.413   6.256   3.439 -0.8915  1.6895  0.3194
63939SOL    HW296629   5.528   6.335   3.380 -0.5858  0.4988 -0.7109
63940SOL     OW96630   0.078  10.214   1.125 -0.3297  0.1057  0.5234
63940SOL    HW196631   0.062  10.128   1.087  1.6380 -0.3126  0.5065
63940SOL    HW296632   0.138  10.197   1.198  0.1497  1.4680  0.4787
63941SOL     OW96633  12.343   9.826   9.835  0.8693 -0.0274 -0.2732
63941SOL    HW196634  12.413   9.781   9.788  0.3963 -1.6586  0.4921
63941SOL    HW296635  12.276   9.759   9.848  0.5005  0.6468  1.7162
63942SOL     OW96636   1.734  12.099  12.307  0.2864  0.3075  0.1785
63942SOL    HW196637   1.718  12.093  12.401 -1.1304 -0.1530 -0.0702
63942SOL    HW296638   1.688  12.179  12.280  3.9294  2.7524  0.4606
63943SOL     OW96639   6.078   8.137   0.303  0.0734 -0.2373 -0.0758
63943SOL    HW196640   5.988   8.136   0.334  0.2481 -2.3383  0.4994
63943SOL    HW296641   6.093   8.049   0.268  1.9827 -0.0145  0.0666
63944SOL     OW96642   7.451   8.452  10.507  0.3770 -0.1386  0.6937
63944SOL    HW196643   7.431   8.407  10.425  1.4469  1.5387 -0.5376
63944SOL    HW296644   7.473   8.381  10.568  2.2054 -1.3176 -1.2068
63945SOL     OW96645  10.819  12.289   8.715 -0.1358  0.0517  0.3142
63945SOL    HW196646  10.814  12.198   8.744  1.1684 -0.4319 -0.8370
63945SOL    HW296647  10.763  12.293   8.638  1.5020 -0.3905 -0.9627
63946SOL     OW96648   5.175  10.597   1.656  0.2681  0.4801  0.2054
63946SOL    HW196649   5.211  10.518   1.616  0.4217  1.3704 -1.5017
63946SOL    HW296650   5.247  10.660   1.652  0.3903  0.5316  2.2195
63947SOL     OW96651   9.527   3.525  10.463  0.0206  0.3182 -0.4491
63947SOL    HW196652   9.603   3.582  10.471  0.4564 -0.2499 -0.5378
63947SOL    HW296653   9.563   3.438  10.448 -0.6218 -0.1328  0.5528
63948SOL     OW96654   5.032  10.887   9.071 -0.0982  0.0948  0.2998
63948SOL    HW196655   4.976  10.959   9.042 -0.3201 -0.3735 -0.4812
63948SOL    HW296656   4.976  10.809   9.065  0.1330 -0.1460  1.1451
63949SOL     OW96657  10.087   8.387   8.587  0.4064  0.6564 -0.4992
63949SOL    HW196658  10.009   8.381   8.643  0.2195 -0.0026 -0.8141
63949SOL    HW296659  10.113   8.296   8.574 -0.0883  0.7273 -2.2104
63950SOL     OW96660   9.726   1.361  10.913 -0.5569  0.6348 -0.0873
63950SOL    HW196661   9.773   1.372  10.995  0.0959  2.7524 -0.6798
63950SOL    HW296662   9.691   1.448  10.893  1.3321  0.8398 -3.2285
63951SOL     OW96663   2.759  11.157   0.139  0.1276  0.0327 -0.2573
63951SOL    HW196664   2.808  11.131   0.217 -0.2970 -0.1541 -0.0493
63951SOL    HW296665   2.709  11.078   0.115 -0.8933  0.5242  0.1696
63952SOL     OW96666  11.734   0.539  11.446  0.5207  0.0732 -0.3079
63952SOL    HW196667  11.826   0.563  11.459  0.4425  0.2120  0.0020
63952SOL    HW296668  11.712   0.578  11.361  0.5641  0.6088 -0.0827
63953SOL     OW96669   5.444   2.887  11.452  0.1681 -0.6375  0.2685
63953SOL    HW196670   5.494   2.814  11.487  0.1650 -0.0001  1.6645
63953SOL    HW296671   5.451   2.956  11.518 -2.3541 -0.4473  0.4683
63954SOL     OW96672   9.785   0.089   9.527 -0.3034  0.4804  0.2273
63954SOL    HW196673   9.718   0.027   9.499  0.7033 -1.1085  1.1396
63954SOL    HW296674   9.819   0.051   9.608  1.7468  1.1667 -0.2585
63955SOL     OW96675   5.836   9.305  12.547  0.2586  0.5388  0.2968
63955SOL    HW196676   5.803   9.385  12.589 -0.4705  0.6731 -0.5061
63955SOL    HW296677   5.836   9.240  12.617 -2.4572  0.3358  0.2171
63956SOL     OW96678   5.632   4.533  10.584 -0.1056  0.0321  0.6788
63956SOL    HW196679   5.706   4.581  10.548 -0.3549  0.0355  0.1577
63956SOL    HW296680   5.661   4.442  10.589 -0.1722 -0.0193  0.1712
63957SOL     OW96681  11.499   3.633   4.582  0.1269 -0.5150 -0.0723
63957SOL    HW196682  11.537   3.718   4.599 -0.8667 -0.7479  4.8918
63957SOL    HW296683  11.427   3.651   4.522 -0.8787  2.5164  1.7869
63958SOL     OW96684   9.527   3.617   1.231 -0.5008 -0.4620 -0.2963
63958SOL    HW196685   9.590   3.556   1.193  1.8002  0.5987  1.5870
63958SOL    HW296686   9.506   3.678   1.161 -0.5487 -1.6389 -1.3353
63959SOL     OW96687  12.308   5.935   2.435 -0.0722  0.2151  0.1589
63959SOL    HW196688  12.284   6.003   2.498 -1.1020 -0.6858  0.7546
63959SOL    HW296689  12.394   5.905   2.465 -0.7166 -0.4732  1.3915
63960SOL     OW96690   3.919   2.593   1.143  0.3635  0.0348 -0.6087
63960SOL    HW196691   3.904   2.577   1.050 -2.2077  0.7691 -0.4023
63960SOL    HW296692   3.860   2.533   1.188  0.3028  0.8823  0.4912
63961SOL     OW96693   4.770   4.945   3.726  0.3875 -0.1577 -0.6524
63961SOL    HW196694   4.843   5.004   3.747 -0.5391  1.2862 -1.3481
63961SOL    HW296695   4.794   4.908   3.641 -0.3295  1.4324 -1.5776
63962SOL     OW96696  11.793   8.681   1.178 -0.4336  0.0843 -0.3476
63962SOL    HW196697  11.768   8.636   1.259  1.5079 -1.2330 -0.3989
63962SOL    HW296698  11.816   8.770   1.207  0.4920 -0.4432  0.6406
63963SOL     OW96699   9.254   0.126   5.044  0.0826  0.7475  0.1878
63963SOL    HW196700   9.209   0.065   4.985  3.0621 -0.5382 -0.9711
63963SOL    HW296701   9.252   0.210   4.998  0.9235  0.1360 -1.0232
63964SOL     OW96702   3.115  11.777   2.685 -0.5850  0.1510 -0.3527
63964SOL    HW196703   3.075  11.805   2.603  0.1641 -0.2693 -0.8755
63964SOL    HW296704   3.195  11.830   2.691 -0.5588  0.0691  0.0346
63965SOL     OW96705   5.690  10.463   5.366  0.4233 -0.1243  0.1825
63965SOL    HW196706   5.756  10.405   5.330 -0.0057 -1.5314  1.5860
63965SOL    HW296707   5.725  10.551   5.352 -0.4985 -0.2775 -5.3051
63966SOL     OW96708   9.017   7.033   8.824 -0.0161  0.3998  0.5479
63966SOL    HW196709   8.973   7.093   8.763  1.7796  0.1848 -1.0229
63966SOL    HW296710   9.007   6.947   8.785  2.9902  0.4974 -0.6933
63967SOL     OW96711   5.292   0.151   6.120 -0.2062  0.9819 -0.5020
63967SOL    HW196712   5.293   0.068   6.072 -2.1086  1.5453 -1.6497
63967SOL    HW296713   5.384   0.173   6.131  0.3756  0.3843 -3.2344
63968SOL     OW96714   1.787   2.909   6.931  0.0901  0.0179  0.0492
63968SOL    HW196715   1.858   2.973   6.920  0.8720 -0.8592 -0.1249
63968SOL    HW296716   1.713   2.946   6.882  0.6788  0.5627 -0.4400
63969SOL     OW96717  11.385   1.297   3.361  0.1793 -0.7941 -0.3258
63969SOL    HW196718  11.467   1.295   3.312 -0.0512 -0.8759 -0.7131
63969SOL    HW296719  11.412   1.304   3.452  0.6217 -0.9787 -0.4395
63970SOL     OW96720   5.097  11.439   9.471 -0.5351  0.1445  0.6457
63970SOL    HW196721   5.164  11.462   9.536 -0.5973 -0.5239  0.9608
63970SOL    HW296722   5.105  11.506   9.403 -1.1401  1.4547  1.8176
63971SOL     OW96723   9.734   3.009  12.357  0.2647  0.6530  0.4604
63971SOL    HW196724   9.821   3.043  12.337  0.2004  0.4638 -0.1667
63971SOL    HW296725   9.676   3.054  12.296  0.2948 -1.1672 -0.9980
63972SOL     OW96726   3.699   6.388  10.102 -0.2673 -0.1199 -0.1338
63972SOL    HW196727   3.698   6.481  10.124  0.0072 -0.4741  1.4573
63972SOL    HW296728   3.675   6.385  10.009  0.4353  1.5828 -0.4065
63973SOL     OW96729  12.577   1.089   7.143 -0.1545 -0.2772  0.3894
63973SOL    HW196730  12.577   1.129   7.230 -0.0967  0.0055  0.2599
63973SOL    HW296731  12.519   1.145   7.091  0.8041  0.2857 -0.0915
63974SOL     OW96732   4.069   0.319   7.457  0.1931  0.0637 -0.6986
63974SOL    HW196733   4.074   0.398   7.404  0.4043 -0.2333 -1.1363
63974SOL    HW296734   4.157   0.281   7.452  0.1457 -0.1007 -0.3386
63975SOL     OW96735   3.961   9.226   3.675  0.3647 -0.1028 -0.2759
63975SOL    HW196736   3.980   9.153   3.617  0.2506 -0.8883  0.6605
63975SOL    HW296737   3.965   9.303   3.619  0.4253 -0.8306 -1.2826
63976SOL     OW96738   8.805   2.646  10.473 -0.4658 -0.2453  0.1721
63976SOL    HW196739   8.730   2.680  10.423  1.5456  1.5249 -1.8316
63976SOL    HW296740   8.853   2.591  10.410  1.9200  1.7150  0.1577
63977SOL     OW96741  11.461   5.623  11.240  0.0342  0.5284  0.1030
63977SOL    HW196742  11.547   5.588  11.220  0.1451  1.4270 -1.0935
63977SOL    HW296743  11.479   5.707  11.284 -0.2330  0.5940  0.0906
63978SOL     OW96744   7.214  11.793   2.769 -0.2773  0.1252  0.3038
63978SOL    HW196745   7.139  11.832   2.814 -0.9839 -0.1142 -0.6274
63978SOL    HW296746   7.188  11.702   2.755  0.5180 -0.1589  0.6712
63979SOL     OW96747   1.163   1.770   8.107  0.1102 -0.0654  0.3905
63979SOL    HW196748   1.140   1.853   8.149  1.8143  0.1888  0.9031
63979SOL    HW296749   1.250   1.750   8.141  0.0210 -1.7113 -0.2836
63980SOL     OW96750  11.546  10.049   1.917 -0.7912 -0.4288 -0.5155
63980SOL    HW196751  11.615  10.099   1.961 -0.3528 -1.8291  0.4651
63980SOL    HW296752  11.523  10.102   1.841  1.2575  0.1828 -0.7830
63981SOL     OW96753  11.978   8.683  12.194 -0.2673 -0.8083 -0.1947
63981SOL    HW196754  11.910   8.662  12.130 -1.2979 -2.1738  1.2653
63981SOL    HW296755  11.956   8.630  12.270  0.8097  0.9026  1.3819
63982SOL     OW96756  12.447   6.058   3.370  0.0182 -0.2403  0.0225
63982SOL    HW196757  12.425   6.032   3.281  0.1474  0.2976 -0.1742
63982SOL    HW296758  12.424   5.983   3.424 -1.0327 -0.1906 -0.3395
63983SOL     OW96759   2.015   3.953   6.400 -0.0371 -0.0510  0.0557
63983SOL    HW196760   1.932   3.986   6.434  0.6503  0.8287  0.9307
63983SOL    HW296761   2.054   4.028   6.356 -0.2349 -0.7881 -1.4465
63984SOL     OW96762  12.591   3.488   4.437 -0.6827  0.3829  0.2444
63984SOL    HW196763  12.535   3.410   4.436 -0.6516  0.3515 -0.9465
63984SOL    HW296764  12.545   3.550   4.381  0.0486  0.6641 -0.0517
63985SOL     OW96765   1.988   1.213   1.190  0.0168 -0.8170  0.0344
63985SOL    HW196766   1.926   1.253   1.252  0.8872  0.2459  0.2514
63985SOL    HW296767   1.932   1.180   1.119 -0.7888  0.8922 -0.2074
63986SOL     OW96768   3.570   6.099   1.283  0.2903 -0.1758 -0.4110
63986SOL    HW196769   3.659   6.076   1.309  0.1389  0.4149  0.6853
63986SOL    HW296770   3.578   6.186   1.245  0.0462  0.3209  0.6417
63987SOL     OW96771   1.687   2.299  12.079  0.4829 -0.1211 -0.0398
63987SOL    HW196772   1.677   2.297  12.175  0.5037  1.5695  0.0318
63987SOL    HW296773   1.617   2.358  12.050 -0.7881 -2.1531 -1.2855
63988SOL     OW96774  12.535  11.800   9.661 -0.2132  0.1399 -0.6100
63988SOL    HW196775  12.442  11.822   9.670  0.0026  0.5807  0.7618
63988SOL    HW296776  12.581  11.872   9.703  0.8429  0.6627 -2.5775
63989SOL     OW96777   2.559   4.330   9.913 -0.5010  0.0321  0.4001
63989SOL    HW196778   2.577   4.406   9.858  2.3793 -0.9568 -0.2158
63989SOL    HW296779   2.513   4.269   9.855 -0.1071  0.1364 -0.0299
63990SOL     OW96780   6.411  10.080   1.561  0.2525  0.8619 -0.3714
63990SOL    HW196781   6.447   9.991   1.556 -0.1615  0.6815 -0.1366
63990SOL    HW296782   6.386  10.090   1.653 -0.5234  0.9029 -0.5861
63991SOL     OW96783   7.365   5.210   1.310 -0.2164 -0.1943 -0.1407
63991SOL    HW196784   7.366   5.283   1.248  0.8061  0.5123  0.6532
63991SOL    HW296785   7.340   5.134   1.258 -0.9394  0.6484 -1.0723
63992SOL     OW96786   0.321   9.766   6.112 -0.0314  0.2894 -0.4073
63992SOL    HW196787   0.397   9.818   6.087  0.2332 -0.3637 -0.9475
63992SOL    HW296788   0.352   9.710   6.183 -0.2956  0.7719  0.1100
63993SOL     OW96789   7.313   3.293   6.481 -0.0603  0.5622 -0.0632
63993SOL    HW196790   7.291   3.209   6.441  0.4413  1.1911 -1.7207
63993SOL    HW296791   7.408   3.296   6.480  0.0102  0.2900  1.8946
63994SOL     OW96792  10.236   1.169   4.168 -0.2192  0.3656 -0.4512
63994SOL    HW196793  10.291   1.190   4.243 -2.0137 -0.9015  1.3608
63994SOL    HW296794  10.157   1.222   4.181 -1.0066 -0.6858 -0.8046
63995SOL     OW96795   0.480  11.107   4.454  0.2654  0.0576 -0.2856
63995SOL    HW196796   0.513  11.196   4.470 -1.0350  0.6243 -0.6327
63995SOL    HW296797   0.387  11.112   4.476  0.0207 -1.0346 -1.0101
63996SOL     OW96798   9.664   8.480   3.711 -0.0392  0.0188 -0.4942
63996SOL    HW196799   9.619   8.534   3.646 -0.0078  0.6329 -0.0098
63996SOL    HW296800   9.599   8.467   3.780  1.0815  2.6137  1.1948
63997SOL     OW96801   9.099   2.290   3.033 -0.0892  0.0979  0.2165
63997SOL    HW196802   9.090   2.375   2.990 -0.5008  0.2218  0.5340
63997SOL    HW296803   9.009   2.258   3.040  0.1282 -0.7017 -0.5627
63998SOL     OW96804   9.025   1.938   1.425 -0.0761  0.2963  0.2406
63998SOL    HW196805   8.983   1.853   1.412 -0.6804  0.4703  1.0322
63998SOL    HW296806   9.116   1.917   1.447 -0.3387 -0.1722  0.9101
63999SOL     OW96807  10.917   5.209   8.506 -0.1797  0.0555  0.6960
63999SOL    HW196808  10.930   5.281   8.569  0.1653 -0.1233  0.8307
63999SOL    HW296809  10.877   5.139   8.558  0.5356 -0.2617  0.8236
64000SOL     OW96810   0.810   9.720  12.276 -0.8131  0.4136 -0.0135
64000SOL    HW196811   0.887   9.673  12.307 -0.3511  0.6834 -0.7321
64000SOL    HW296812   0.752   9.724  12.352 -1.1908 -1.9412 -0.0884
64001SOL     OW96813   8.500   3.112   0.802 -0.4766 -0.4268  0.2321
64001SOL    HW196814   8.571   3.065   0.844 -0.9896  0.4226  2.1392
64001SOL    HW296815   8.532   3.202   0.794 -1.4468  0.0604  1.5037
64002SOL     OW96816   1.601   3.676   2.962  0.1919 -0.0613 -0.4959
64002SOL    HW196817   1.682   3.714   2.929  0.8622 -1.5377 -0.6157
64002SOL    HW296818   1.612   3.581   2.950 -0.5176 -0.4798  1.7597
64003SOL     OW96819   9.949   1.539   5.882  0.3579  0.3295  0.2253
64003SOL    HW196820   9.916   1.504   5.964  1.6212  0.4656  0.8092
64003SOL    HW296821  10.042   1.516   5.881  1.0524  2.8263  0.2221
64004SOL     OW96822   8.808   2.503   6.513  0.5845 -0.1028  0.0563
64004SOL    HW196823   8.838   2.594   6.503 -0.1950  0.0775 -0.8227
64004SOL    HW296824   8.727   2.499   6.462 -0.7481 -0.6432  2.1036
64005SOL     OW96825   4.957   4.010   2.005 -0.2707  0.3667  0.0778
64005SOL    HW196826   5.028   4.048   2.057 -0.1235 -0.5628  0.5825
64005SOL    HW296827   4.887   4.075   2.007 -0.0416  0.5873  0.9601
64006SOL     OW96828   8.785  11.875   3.129  0.0087 -0.2466 -0.3760
64006SOL    HW196829   8.813  11.789   3.160  0.9877  1.1460  3.0737
64006SOL    HW296830   8.866  11.926   3.125 -0.8669  1.2834  0.5406
64007SOL     OW96831   0.984   9.377   0.596  0.3707 -0.1861  0.2099
64007SOL    HW196832   1.008   9.290   0.565 -0.6096  0.2813 -2.0482
64007SOL    HW296833   0.896   9.366   0.632  0.4666 -0.2308  0.4316
64008SOL     OW96834   3.868   9.074   5.351  0.1033  0.0336 -0.2513
64008SOL    HW196835   3.945   9.115   5.391 -0.1904  2.3226 -1.8316
64008SOL    HW296836   3.795   9.099   5.408  0.0503  1.0205 -0.7333
64009SOL     OW96837   9.747   3.240   2.016  0.0494  0.4528 -0.7561
64009SOL    HW196838   9.678   3.280   2.068  0.9089  2.0055 -0.7636
64009SOL    HW296839   9.759   3.299   1.942  1.8608  0.5891 -0.3896
64010SOL     OW96840  11.663   9.784   0.111  0.1935  0.0798  0.3334
64010SOL    HW196841  11.604   9.815   0.043  0.0120  0.2095  0.5513
64010SOL    HW296842  11.626   9.700   0.139  0.9462 -0.5911 -0.5929
64011SOL     OW96843  11.582   0.686  10.577 -0.4821 -0.4274 -0.4862
64011SOL    HW196844  11.556   0.609  10.628 -0.7690  1.7628  2.9882
64011SOL    HW296845  11.528   0.757  10.612  1.9499  1.9894 -1.2747
64012SOL     OW96846   7.396   8.367   3.644 -0.2862 -0.7312 -0.6035
64012SOL    HW196847   7.399   8.310   3.721 -0.3884  0.9329  0.6810
64012SOL    HW296848   7.482   8.358   3.605  0.7392  0.3820  1.2428
64013SOL     OW96849  10.916   1.499   0.469 -0.2644  0.1499 -0.0980
64013SOL    HW196850  10.917   1.522   0.561 -0.2792 -0.6835  0.1221
64013SOL    HW296851  10.844   1.550   0.432 -1.1746 -0.5428  0.6500
64014SOL     OW96852   1.441   9.005   2.509  0.2453 -0.1312 -0.1279
64014SOL    HW196853   1.464   9.069   2.576  0.6850  0.3348 -0.7057
64014SOL    HW296854   1.351   8.981   2.528 -0.3014  1.4568 -0.5172
64015SOL     OW96855  10.031   6.271   9.536 -0.1840 -0.5772  0.2364
64015SOL    HW196856  10.121   6.246   9.555 -0.2968 -0.6748  0.6411
64015SOL    HW296857  10.031   6.290   9.442  1.0072  2.4641  0.7335
64016SOL     OW96858   0.085  12.620  10.734  0.5311 -0.4100  0.8017
64016SOL    HW196859   0.111  12.553  10.798  1.5713 -0.7094  0.0891
64016SOL    HW296860   0.040  12.570  10.666  3.8021 -0.9319 -1.1935
64017SOL     OW96861  10.095  11.645   6.037 -0.0917 -0.2705  0.2108
64017SOL    HW196862  10.067  11.646   6.129  1.3674 -2.3833  0.7392
64017SOL    HW296863  10.076  11.734   6.006 -1.3984  0.2545  2.2885
64018SOL     OW96864   1.501   5.615   4.070  0.0527  0.2116 -0.2472
64018SOL    HW196865   1.525   5.659   4.151  0.4580  0.3271 -0.4253
64018SOL    HW296866   1.585   5.598   4.026  0.0890 -2.4931  0.7049
64019SOL     OW96867   2.366   7.400   4.349  0.1839 -0.0689  0.8181
64019SOL    HW196868   2.411   7.317   4.336  0.0684 -0.1436  0.8907
64019SOL    HW296869   2.393   7.454   4.274 -0.2121 -0.3805  0.4455
64020SOL     OW96870   8.433   8.047   6.299  0.6107 -0.3632  0.2055
64020SOL    HW196871   8.455   7.961   6.263 -1.3685 -0.9145  0.1890
64020SOL    HW296872   8.463   8.109   6.232  0.7765 -1.1171 -0.4344
64021SOL     OW96873   7.753   6.603   0.430 -0.2497  0.3474 -0.2611
64021SOL    HW196874   7.703   6.604   0.348 -1.2586 -0.5843  0.3167
64021SOL    HW296875   7.825   6.664   0.414 -1.0510  1.0394 -1.4477
64022SOL     OW96876   4.498   2.891  11.924 -0.2711  0.2560  0.0709
64022SOL    HW196877   4.446   2.850  11.855  0.0365  1.1249 -0.7040
64022SOL    HW296878   4.453   2.974  11.941  1.1997  1.3512 -1.1113
64023SOL     OW96879   5.547   9.724   1.695  0.3045 -0.3171 -0.1841
64023SOL    HW196880   5.537   9.629   1.698  0.7183 -0.3338  1.2299
64023SOL    HW296881   5.476   9.758   1.750  1.4102  0.0654  1.0652
64024SOL     OW96882  11.378   6.721  12.547  0.0332  0.2756 -0.1790
64024SOL    HW196883  11.399   6.814  12.560 -0.1119  0.4088 -0.8516
64024SOL    HW296884  11.461   6.675  12.563 -0.6409  0.1260  3.7931
64025SOL     OW96885   7.535   1.065  10.824 -0.3585  0.4955 -0.2834
64025SOL    HW196886   7.447   1.073  10.787 -1.4738  1.7745  2.3735
64025SOL    HW296887   7.585   1.136  10.782 -0.9856  0.6259 -0.8261
64026SOL     OW96888   8.532   3.168   2.147  0.1902  0.3456  0.5946
64026SOL    HW196889   8.507   3.230   2.078 -0.2589  0.4902  0.8770
64026SOL    HW296890   8.627   3.159   2.139  0.2572  1.0592  0.5413
64027SOL     OW96891  10.533   3.269   7.698 -0.0341 -0.6108  0.3044
64027SOL    HW196892  10.615   3.244   7.655  0.7527  0.9070  0.8075
64027SOL    HW296893  10.561   3.324   7.771 -1.4667 -0.9684  1.1462
64028SOL     OW96894  10.654   8.606   9.973  0.1190  0.2394 -0.5362
64028SOL    HW196895  10.608   8.690   9.970  0.8535  0.7035  0.5957
64028SOL    HW296896  10.743   8.628  10.001  0.3850 -0.8861 -0.4450
64029SOL     OW96897   3.661   7.862   4.469  0.2525  0.6549  0.0886
64029SOL    HW196898   3.626   7.951   4.465  2.1247  1.6172  2.6195
64029SOL    HW296899   3.755   7.873   4.452  1.1523 -0.2269  3.7000
64030SOL     OW96900   0.305   4.322   1.570 -0.2030  0.2136  0.2742
64030SOL    HW196901   0.223   4.367   1.591  0.2009  0.8029  0.6198
64030SOL    HW296902   0.317   4.258   1.640 -0.0230  0.5971  0.5945
64031SOL     OW96903   4.253   1.856   4.248 -0.0418  0.3539 -0.1988
64031SOL    HW196904   4.300   1.787   4.294  2.2741  1.1056 -1.3282
64031SOL    HW296905   4.300   1.936   4.270 -1.6425  1.3780 -0.3002
64032SOL     OW96906  11.006   3.031   9.361  0.1142 -0.1662  0.7026
64032SOL    HW196907  11.029   3.003   9.272 -0.5892  0.9317  0.1617
64032SOL    HW296908  11.018   2.952   9.414 -2.1929 -1.6658 -0.8351
64033SOL     OW96909   8.685   3.246   2.819  0.3575 -0.4153 -0.2740
64033SOL    HW196910   8.727   3.202   2.745  0.1214 -1.5788  0.2559
64033SOL    HW296911   8.631   3.178   2.859 -0.8627  0.6572 -0.0552
64034SOL     OW96912   2.843   8.288   6.573  0.2986  0.2611  0.5304
64034SOL    HW196913   2.879   8.260   6.489  0.3463  0.1576  0.5859
64034SOL    HW296914   2.749   8.269   6.567  0.2612  0.4761  0.4080
64035SOL     OW96915   7.482   7.247   4.539  0.5003  0.0890 -0.2330
64035SOL    HW196916   7.454   7.241   4.448 -0.4569  0.2183  0.0353
64035SOL    HW296917   7.485   7.341   4.556  2.8951  0.1639 -0.7589
64036SOL     OW96918   0.747  10.258   8.731  0.0434 -0.2593 -0.1506
64036SOL    HW196919   0.775  10.283   8.819  0.5280 -0.6640 -0.1877
64036SOL    HW296920   0.781  10.170   8.719  1.1149  0.2773 -1.2339
64037SOL     OW96921   6.747  10.199  11.469 -0.0324  0.0414  0.1041
64037SOL    HW196922   6.674  10.209  11.530 -0.4732  0.2994 -0.4663
64037SOL    HW296923   6.769  10.106  11.474  0.9233  0.3091  1.7783
64038SOL     OW96924   1.335   5.662   7.633 -0.1940 -0.2422  0.0333
64038SOL    HW196925   1.409   5.642   7.576  0.8051 -0.3664  1.3170
64038SOL    HW296926   1.262   5.613   7.596  0.0271  0.8167 -1.9700
64039SOL     OW96927   8.424  10.056   1.425 -0.1651 -0.5832 -0.4864
64039SOL    HW196928   8.429  10.145   1.389  0.4690  0.2206  1.4555
64039SOL    HW296929   8.502  10.047   1.479 -0.7220 -1.9670  0.1453
64040SOL     OW96930   0.256   3.839   3.648 -0.1293  0.2972 -0.0334
64040SOL    HW196931   0.253   3.747   3.622 -0.7313 -0.4143  2.2823
64040SOL    HW296932   0.287   3.837   3.738 -0.2106  2.3821  0.0888
64041SOL     OW96933   7.825   1.317   6.041  0.4534 -0.4330  0.1065
64041SOL    HW196934   7.734   1.343   6.054 -0.0484 -1.7655 -0.4955
64041SOL    HW296935   7.876   1.387   6.081 -0.8231  0.5331  0.1252
64042SOL     OW96936   0.456  11.116   6.409 -0.0179 -0.0889  0.1605
64042SOL    HW196937   0.461  11.180   6.480 -0.2228  0.8792 -0.6740
64042SOL    HW296938   0.408  11.043   6.446  3.5003 -1.5169  2.3827
64043SOL     OW96939   9.984   9.894   6.637 -0.0795  0.2248 -0.3675
64043SOL    HW196940   9.941   9.904   6.552  0.9141  1.9893 -0.7187
64043SOL    HW296941  10.065   9.848   6.617  0.2954  0.9031 -0.4501
64044SOL     OW96942  12.198   7.956   6.763 -0.1514  0.0055  0.1308
64044SOL    HW196943  12.103   7.955   6.759 -0.4004  0.8927  3.0376
64044SOL    HW296944  12.217   7.964   6.857  2.7875 -0.2078 -0.3644
64045SOL     OW96945   8.311   8.821   2.020 -0.1243  0.1479 -0.3906
64045SOL    HW196946   8.277   8.897   1.973 -0.7777  0.2959  0.2865
64045SOL    HW296947   8.261   8.747   1.986 -1.1848  0.3717  0.6336
64046SOL     OW96948   0.625   9.023   9.078  0.1833  0.8484 -0.1840
64046SOL    HW196949   0.602   9.115   9.064 -0.7494  0.6173 -0.2134
64046SOL    HW296950   0.655   9.020   9.169 -1.0938  0.9412  0.2598
64047SOL     OW96951   9.692   7.706   5.865  0.2246  0.6937  0.4682
64047SOL    HW196952   9.631   7.779   5.855  1.4065  1.6790  0.2846
64047SOL    HW296953   9.778   7.747   5.874  0.9867 -0.6917 -0.1540
64048SOL     OW96954   5.111   8.692   1.123 -0.1682 -0.2532 -0.4072
64048SOL    HW196955   5.113   8.597   1.128 -1.8886 -0.3590 -1.2491
64048SOL    HW296956   5.203   8.718   1.134  0.8665 -2.1693 -3.3574
64049SOL     OW96957  11.799  11.154   6.928 -0.2116 -0.2637  0.3142
64049SOL    HW196958  11.754  11.208   6.994  0.0893 -0.0925  0.3832
64049SOL    HW296959  11.875  11.119   6.973  1.1396  1.4857 -0.4608
64050SOL     OW96960  12.435   2.503   5.042  0.3893  0.2980  0.0981
64050SOL    HW196961  12.371   2.453   5.093 -0.2882  1.9840  0.9728
64050SOL    HW296962  12.516   2.497   5.093  0.4630 -0.3546 -0.0892
64051SOL     OW96963   9.910   8.742   0.176 -0.7693  0.1966  0.1877
64051SOL    HW196964   9.989   8.689   0.175  1.3594  3.1122 -2.2343
64051SOL    HW296965   9.900   8.768   0.268  0.6490 -0.7896  0.6495
64052SOL     OW96966   3.650   5.185   2.400  0.6614 -0.2167  0.2080
64052SOL    HW196967   3.571   5.228   2.433 -0.3647 -0.2779 -1.9869
64052SOL    HW296968   3.652   5.206   2.307  2.8346 -0.8776  0.0471
64053SOL     OW96969   5.724   1.276  10.854 -1.0723  0.2212 -0.5692
64053SOL    HW196970   5.723   1.225  10.935 -0.0302 -1.7901 -1.7605
64053SOL    HW296971   5.655   1.238  10.800 -1.7499  1.5378 -0.6728
64054SOL     OW96972  10.928  11.116   5.428  0.0317  0.2494 -0.0384
64054SOL    HW196973  10.984  11.152   5.496 -0.0903 -0.9682  0.7310
64054SOL    HW296974  10.948  11.168   5.350 -0.1653  1.9794  1.0139
64055SOL     OW96975  10.600   5.436   3.197 -0.3314 -0.4045 -0.3298
64055SOL    HW196976  10.529   5.469   3.142  0.3476  0.2696 -0.8277
64055SOL    HW296977  10.679   5.468   3.155  0.1819  1.4751  1.8318
64056SOL     OW96978  10.365   8.813   0.272 -0.7141 -0.3450 -0.6073
64056SOL    HW196979  10.334   8.870   0.202  1.7365  1.7512 -0.1636
64056SOL    HW296980  10.292   8.753   0.290 -3.3597  2.4149 -1.3789
64057SOL     OW96981  12.639   7.612   3.242  0.0058 -0.0941  0.0563
64057SOL    HW196982  12.651   7.629   3.148  0.5495 -0.8387 -0.0102
64057SOL    HW296983  12.631   7.517   3.248  0.3098 -0.0705  0.8108
64058SOL     OW96984   9.479   6.566   8.333 -0.2140  0.1954 -0.4778
64058SOL    HW196985   9.516   6.653   8.318 -1.1531  1.1080  1.8910
64058SOL    HW296986   9.404   6.582   8.391 -0.2079 -2.2189  0.3102
64059SOL     OW96987  11.517  10.450   7.255 -0.0035  0.4569  0.5338
64059SOL    HW196988  11.546  10.365   7.289 -1.0956 -0.7606 -1.3849
64059SOL    HW296989  11.421  10.446   7.259 -0.0888  2.2876  1.8728
64060SOL     OW96990   5.181   8.497   7.698  0.5474 -0.2040  0.3393
64060SOL    HW196991   5.240   8.438   7.744  2.2711 -0.4656 -2.0257
64060SOL    HW296992   5.239   8.554   7.647 -1.0960  2.6257  1.3841
64061SOL     OW96993   7.552   2.433   3.601  0.4991  0.6491 -0.0627
64061SOL    HW196994   7.614   2.413   3.531  3.4604  2.3525  1.8806
64061SOL    HW296995   7.591   2.396   3.680 -1.5602  0.8427  1.1325
64062SOL     OW96996   5.565   8.924   9.115  0.3810  0.2392 -0.2877
64062SOL    HW196997   5.578   8.839   9.073  0.7989  1.1141 -2.0470
64062SOL    HW296998   5.636   8.979   9.080  0.0727  1.3486  0.7340
64063SOL     OW96999   5.154   1.989   6.666 -0.0005 -0.2639  0.3488
64063SOL    HW197000   5.185   2.063   6.613 -1.8543  1.9878  2.2179
64063SOL    HW297001   5.203   1.996   6.748  1.9420 -2.9806 -0.4282
64064SOL     OW97002   3.951   2.297   0.728  0.2454  0.2164  0.4602
64064SOL    HW197003   3.993   2.226   0.681 -0.0479 -2.3449  3.6845
64064SOL    HW297004   3.909   2.255   0.803 -1.7023  3.5808  1.4822
64065SOL     OW97005   5.606  10.442   9.422  0.2226  0.2904  0.3340
64065SOL    HW197006   5.634  10.511   9.483  2.3736 -0.1529 -0.0739
64065SOL    HW297007   5.647  10.362   9.455 -0.7678 -0.4697 -0.2143
64066SOL     OW97008   7.411   9.809   5.943  0.0711  0.4056  0.4804
64066SOL    HW197009   7.506   9.819   5.938  0.1481  0.1129  1.2419
64066SOL    HW297010   7.392   9.803   6.037 -0.4515 -1.8446  0.2868
64067SOL     OW97011   3.098   7.265   0.403 -0.6865  0.5405  0.4768
64067SOL    HW197012   3.006   7.247   0.423 -0.5643 -0.2646  0.3447
64067SOL    HW297013   3.147   7.205   0.459 -0.3259 -1.7407 -2.0875
64068SOL     OW97014   2.012   5.490   2.797 -0.3929  0.3074  0.2246
64068SOL    HW197015   2.081   5.520   2.856  1.5106 -0.0655 -1.6936
64068SOL    HW297016   2.022   5.394   2.794  0.4062  0.3997 -1.6055
64069SOL     OW97017   3.759   2.754   2.885  0.3042 -0.2165 -0.2623
64069SOL    HW197018   3.671   2.738   2.919  0.7686 -0.7108  0.7421
64069SOL    HW297019   3.813   2.763   2.963  1.3874 -1.3034 -0.8525
64070SOL     OW97020  10.866   7.016   9.188 -0.4580 -0.1700 -0.3137
64070SOL    HW197021  10.856   7.082   9.120 -0.4211  0.4500  0.2704
64070SOL    HW297022  10.815   6.941   9.157 -0.2486  0.0207 -1.1231
64071SOL     OW97023   4.326   8.509   7.760 -0.7292 -0.1583  0.1661
64071SOL    HW197024   4.357   8.429   7.717 -0.6625 -0.5287  0.9017
64071SOL    HW297025   4.404   8.564   7.767 -0.1286 -1.1915  2.2437
64072SOL     OW97026   1.867   3.473   9.555  0.0431  0.6466 -0.4612
64072SOL    HW197027   1.901   3.498   9.641  1.2105 -1.9675 -0.0685
64072SOL    HW297028   1.772   3.480   9.564  0.1527  0.5802  0.9904
64073SOL     OW97029   4.471   2.327  10.155  0.1436 -0.5877  0.4270
64073SOL    HW197030   4.406   2.273  10.111 -1.9474  1.9707  0.0985
64073SOL    HW297031   4.435   2.345  10.241  1.8452 -1.4517  1.3737
64074SOL     OW97032   6.625   1.778   4.149 -0.1019  0.4315 -0.1026
64074SOL    HW197033   6.594   1.865   4.175  1.3599  0.8940  0.2071
64074SOL    HW297034   6.650   1.788   4.057 -2.1161 -0.3142 -0.7818
64075SOL     OW97035   7.213  11.808  11.055  0.2304 -0.1915  0.3268
64075SOL    HW197036   7.206  11.735  10.993  0.2795 -0.5607  0.7513
64075SOL    HW297037   7.176  11.774  11.137  3.1352 -0.8463  1.4790
64076SOL     OW97038   0.289   3.791   3.964  0.5020 -0.5103  0.0532
64076SOL    HW197039   0.357   3.836   4.015 -0.7506  0.6291  0.7899
64076SOL    HW297040   0.326   3.704   3.946  1.8287 -0.1969  1.1087
64077SOL     OW97041   0.979   7.259   1.863  0.3200 -0.4932  0.0146
64077SOL    HW197042   0.912   7.310   1.908 -0.5480 -0.3140 -1.4348
64077SOL    HW297043   0.938   7.174   1.847  0.4381 -0.4015 -0.8275
64078SOL     OW97044   4.428   8.049   0.739  1.0598 -0.0155 -0.3125
64078SOL    HW197045   4.486   7.975   0.724  1.8274  0.5120 -0.0100
64078SOL    HW297046   4.378   8.058   0.657  0.7760 -1.0058 -0.2616
64079SOL     OW97047  10.229   9.516   2.983 -0.4890  0.4304  0.0997
64079SOL    HW197048  10.228   9.431   2.939  1.9505  0.6625 -0.5896
64079SOL    HW297049  10.191   9.577   2.919 -2.3665 -0.1102  0.6478
64080SOL     OW97050  10.056  11.738   2.297 -0.3431  0.3850  0.3685
64080SOL    HW197051  10.044  11.744   2.392 -0.3232  0.5159  0.3635
64080SOL    HW297052   9.968  11.742   2.261 -0.3518  0.3255  0.3825
64081SOL     OW97053  12.329   6.487   5.550  0.3492 -0.2586  0.2048
64081SOL    HW197054  12.342   6.581   5.562  1.1644 -0.1490 -1.2811
64081SOL    HW297055  12.234   6.475   5.548  0.2337  0.4358  0.9446
64082SOL     OW97056   1.091  12.475   9.997 -0.5370  0.3295 -0.3562
64082SOL    HW197057   1.158  12.434  10.051 -1.0161  0.8406  0.6580
64082SOL    HW297058   1.008  12.440  10.031 -0.8317  0.3153 -1.0669
64083SOL     OW97059   8.795   9.519  12.506 -0.3012  0.2719 -0.3352
64083SOL    HW197060   8.888   9.539  12.512 -0.2215 -0.2551  0.4177
64083SOL    HW297061   8.757   9.558  12.585 -0.4801 -0.7300  0.0818
64084SOL     OW97062   8.636   6.146   6.534 -0.5928  0.4234  0.1389
64084SOL    HW197063   8.670   6.095   6.460 -0.6236 -0.7530  0.9019
64084SOL    HW297064   8.651   6.089   6.610 -1.0122  1.4004  0.9676
64085SOL     OW97065   5.682  11.478   0.254 -0.1043  0.7752 -0.3941
64085SOL    HW197066   5.630  11.552   0.224  0.8611  1.3273 -0.7452
64085SOL    HW297067   5.622  11.427   0.308 -0.9285  1.5349 -0.5681
64086SOL     OW97068   7.101   9.998   9.501  0.0938 -0.1443  0.0738
64086SOL    HW197069   7.188  10.004   9.461 -0.3802 -0.8221 -1.1036
64086SOL    HW297070   7.056  10.076   9.470  0.4912  0.6064  1.2918
64087SOL     OW97071  12.260   8.245   7.327  0.6772 -0.4797  0.3107
64087SOL    HW197072  12.265   8.323   7.383  0.4112 -0.4198  0.2529
64087SOL    HW297073  12.340   8.197   7.346 -0.2743 -1.4347  2.1968
64088SOL     OW97074  11.584  12.377   6.032 -0.4906  0.4366 -0.7128
64088SOL    HW197075  11.497  12.339   6.034 -1.4642  2.5828  0.4222
64088SOL    HW297076  11.573  12.466   6.064  1.8443  1.3597 -2.1816
64089SOL     OW97077  11.917  10.258   0.250  0.1413  0.3337  0.3582
64089SOL    HW197078  11.889  10.315   0.178 -1.3166 -2.2845 -1.3109
64089SOL    HW297079  11.995  10.214   0.217 -0.1808 -0.4382  0.6120
64090SOL     OW97080   6.313   9.428   8.608  0.3518  0.1472  0.0310
64090SOL    HW197081   6.296   9.413   8.701 -0.0267 -0.4228 -0.1226
64090SOL    HW297082   6.227   9.446   8.570  0.0801 -2.1446 -0.6377
64091SOL     OW97083  10.191   4.364   0.905 -0.1938  0.2472 -0.6797
64091SOL    HW197084  10.229   4.442   0.945  0.3306  0.1485 -0.9866
64091SOL    HW297085  10.113   4.345   0.959 -0.1372  0.7842 -0.4080
64092SOL     OW97086  10.645   5.741   1.609  0.1084 -0.3283  0.2186
64092SOL    HW197087  10.684   5.665   1.653 -1.8014 -0.8998  1.0121
64092SOL    HW297088  10.705   5.813   1.629  1.4541 -1.4080  0.2543
64093SOL     OW97089   3.264   1.421   9.650 -0.5379  0.3693 -0.3066
64093SOL    HW197090   3.280   1.338   9.695  0.5818  0.7066 -0.0614
64093SOL    HW297091   3.293   1.488   9.712 -0.4643  0.9014 -0.9035
64094SOL     OW97092  11.549   3.789   2.581 -0.0236  0.4477 -0.5448
64094SOL    HW197093  11.582   3.740   2.656 -2.4465 -0.3835  0.0587
64094SOL    HW297094  11.627   3.827   2.540  1.6940 -1.8802  0.4103
64095SOL     OW97095  10.805   5.069   0.655 -0.5850 -0.1555  0.2300
64095SOL    HW197096  10.860   5.075   0.577  0.5433  1.6387  1.0998
64095SOL    HW297097  10.858   5.022   0.719 -1.4533 -1.4992  0.0026
64096SOL     OW97098   3.835  10.915   5.022  0.1985  0.2859  0.4586
64096SOL    HW197099   3.860  11.007   5.012 -1.9969  0.8001 -1.3042
64096SOL    HW297100   3.770  10.901   4.952  0.0801 -2.4642  1.0189
64097SOL     OW97101   3.547   7.590  12.276 -0.1797 -0.0533  0.1698
64097SOL    HW197102   3.512   7.521  12.221  0.7085 -1.6480  1.5253
64097SOL    HW297103   3.531   7.671  12.227 -0.1119 -1.3161 -2.0113
64098SOL     OW97104   9.777   2.773   9.218 -0.1286 -0.0257 -0.0047
64098SOL    HW197105   9.800   2.864   9.196  0.6996 -0.6460 -1.9790
64098SOL    HW297106   9.861   2.726   9.215 -0.9987 -1.7072 -3.8605
64099SOL     OW97107   2.497   9.508  11.062 -0.1274  0.1316  0.8140
64099SOL    HW197108   2.499   9.587  11.115  1.2767 -0.2001  1.2906
64099SOL    HW297109   2.488   9.539  10.972 -1.6903  0.7306  1.1363
64100SOL     OW97110   5.746   6.258   8.648 -0.1747 -0.2937 -0.5263
64100SOL    HW197111   5.777   6.349   8.654 -0.6468 -0.1731  0.3017
64100SOL    HW297112   5.650   6.266   8.652 -0.1981 -0.8590  0.0807
64101SOL     OW97113   3.818   3.869   7.385  0.3190 -0.1714  0.3663
64101SOL    HW197114   3.892   3.840   7.331  0.4458  1.3767 -0.3491
64101SOL    HW297115   3.753   3.800   7.374  0.8206 -0.4899 -0.7772
64102SOL     OW97116   3.117   9.364   5.001  0.1116 -0.7660  0.6530
64102SOL    HW197117   3.054   9.293   4.989 -0.3926 -0.3018  0.5371
64102SOL    HW297118   3.070   9.430   5.051  0.1541  0.0394 -0.3408
64103SOL     OW97119  10.230   4.778   3.216 -0.2427 -0.1692 -0.0685
64103SOL    HW197120  10.270   4.837   3.152  0.8111 -0.2890  0.4602
64103SOL    HW297121  10.291   4.704   3.222 -0.9657 -0.7666  0.1381
64104SOL     OW97122   1.781   5.748   2.392  0.7413 -0.1293 -0.0326
64104SOL    HW197123   1.862   5.792   2.418  0.3116  0.0233  1.1092
64104SOL    HW297124   1.717   5.818   2.383 -0.3301 -0.5279  3.2370
64105SOL     OW97125   0.655  10.810   6.061  0.3597 -0.0845  0.0763
64105SOL    HW197126   0.587  10.858   6.015  3.0668  1.2995 -2.8835
64105SOL    HW297127   0.645  10.720   6.031 -0.0834  0.1208 -0.4081
64106SOL     OW97128   9.867   1.629  10.270 -0.7027 -0.2199  0.0686
64106SOL    HW197129   9.877   1.669  10.356  1.1234 -0.4691  0.0120
64106SOL    HW297130   9.899   1.539  10.282 -0.6959 -0.3401 -0.8004
64107SOL     OW97131   6.753   6.954   5.217  0.2121 -0.1401  0.3276
64107SOL    HW197132   6.707   6.971   5.136 -2.1833 -0.7059  1.4720
64107SOL    HW297133   6.807   6.877   5.199  1.4107  1.0170 -1.2754
64108SOL     OW97134   8.275   8.892   4.393  0.5472  0.4233  0.5984
64108SOL    HW197135   8.185   8.880   4.425 -1.4903  2.4168 -3.5399
64108SOL    HW297136   8.279   8.984   4.369  2.6630 -0.2374 -2.0131
64109SOL     OW97137   3.099   4.921  12.572  0.0746 -0.0216 -0.3456
64109SOL    HW197138   3.091   4.861  12.497  0.3913  0.1208 -0.4953
64109SOL    HW297139   3.177   4.973  12.553  0.7642 -0.6778  0.5821
64110SOL     OW97140  10.683   9.478  12.122 -0.3958 -0.2470  0.0442
64110SOL    HW197141  10.619   9.540  12.089 -0.1261  0.7144  1.2578
64110SOL    HW297142  10.767   9.510  12.089 -0.2128  0.2842  0.9836
64111SOL     OW97143   3.519   1.986  10.966  0.2325 -0.3832  0.4132
64111SOL    HW197144   3.430   1.955  10.984  0.9115 -1.8550  1.3630
64111SOL    HW297145   3.565   1.909  10.933  2.2012 -0.7381  3.6113
64112SOL     OW97146   6.931   8.525   4.091 -0.5906  0.1567  0.1827
64112SOL    HW197147   6.967   8.524   4.180 -0.7886 -0.5989  0.2664
64112SOL    HW297148   6.853   8.471   4.097 -1.2268  1.0178 -0.2083
64113SOL     OW97149   8.041   0.239   3.133 -0.3367  0.3168 -0.4320
64113SOL    HW197150   7.972   0.278   3.080 -1.3572  0.9967  1.2889
64113SOL    HW297151   7.995   0.195   3.204  0.9363 -1.2946 -0.5390
64114SOL     OW97152   2.461   7.901   0.212 -0.7602 -0.6646  0.0588
64114SOL    HW197153   2.448   7.861   0.298 -0.4339 -1.0418 -0.0586
64114SOL    HW297154   2.541   7.859   0.178  0.1722  0.8066  0.3319
64115SOL     OW97155   6.557   5.290   5.757  1.0130  0.4139  0.0330
64115SOL    HW197156   6.545   5.317   5.848 -0.4705 -0.5791  0.1648
64115SOL    HW297157   6.591   5.201   5.762 -0.2755 -0.1212 -0.3517
64116SOL     OW97158  11.756  10.877   4.630  0.5860 -0.3497  0.2198
64116SOL    HW197159  11.791  10.820   4.562  1.4725 -0.6582  0.9232
64116SOL    HW297160  11.710  10.946   4.582  0.2411 -1.1644 -0.6593
64117SOL     OW97161  12.091   2.458   4.192 -0.2754  0.1699 -0.5525
64117SOL    HW197162  12.002   2.429   4.177 -0.8303  1.1066  0.7508
64117SOL    HW297163  12.084   2.551   4.213  0.7987 -0.0865  1.1803
64118SOL     OW97164   7.646  10.950   4.747 -0.6358  0.5846  0.4441
64118SOL    HW197165   7.586  10.880   4.773 -1.7693  0.9890 -0.9103
64118SOL    HW297166   7.606  10.987   4.668  0.2095  2.3999  0.8119
64119SOL     OW97167   9.876   9.631   7.098 -0.4942 -0.2504 -0.0690
64119SOL    HW197168   9.934   9.695   7.058 -1.0659 -0.9820 -2.1807
64119SOL    HW297169   9.920   9.547   7.084 -1.6852 -0.7333 -1.0808
64120SOL     OW97170   9.616   3.567  10.744  0.2441  0.5070  0.5246
64120SOL    HW197171   9.662   3.483  10.740 -0.8021 -0.0842 -3.2164
64120SOL    HW297172   9.669   3.626  10.690  0.7442  2.2662  2.7602
64121SOL     OW97173   0.926   3.250   7.851 -0.0203  0.0893 -0.0423
64121SOL    HW197174   0.926   3.188   7.779  0.8503 -0.1713  0.1701
64121SOL    HW297175   1.015   3.246   7.886 -0.3446  0.4309  0.8531
64122SOL     OW97176   6.485  10.085  12.293 -0.3257 -0.1172  0.4196
64122SOL    HW197177   6.393  10.062  12.289 -0.7079  1.1520  1.1124
64122SOL    HW297178   6.485  10.180  12.310  1.1059  0.1730 -0.9932
64123SOL     OW97179  12.481   4.033  10.899 -0.0680  0.3258 -0.0928
64123SOL    HW197180  12.424   4.049  10.824 -0.7869 -1.2819  0.0706
64123SOL    HW297181  12.550   3.977  10.865 -1.3270 -1.8488  0.7577
64124SOL     OW97182  12.599   9.658  12.615 -0.0819 -0.2497 -0.0454
64124SOL    HW197183  12.641   9.606  12.684 -0.6735  0.5151  0.9239
64124SOL    HW297184  12.577   9.594  12.547  0.3730 -1.0567  0.5466
64125SOL     OW97185   1.616   7.818   5.163 -0.2961 -0.1420 -0.1143
64125SOL    HW197186   1.652   7.738   5.202 -0.4446  0.1366  0.6137
64125SOL    HW297187   1.564   7.788   5.089  0.8034 -0.6092 -0.7209
64126SOL     OW97188   1.923  11.687   7.020  0.1258 -0.5615 -0.1345
64126SOL    HW197189   1.828  11.693   7.030  0.3171  0.5585  1.3239
64126SOL    HW297190   1.958  11.701   7.108  1.6830  0.1515 -0.8173
64127SOL     OW97191  11.755  10.650   0.026  0.0699 -0.2775  0.3979
64127SOL    HW197192  11.743  10.683  -0.063 -1.3921 -0.6397  0.4425
64127SOL    HW297193  11.756  10.728   0.081  0.1767 -0.1040  0.1498
64128SOL     OW97194   1.831   1.810   5.282  0.7984 -0.4352 -0.2963
64128SOL    HW197195   1.863   1.844   5.366  0.5412  0.3814 -0.5232
64128SOL    HW297196   1.742   1.845   5.274  0.6146 -0.9717 -0.6494
64129SOL     OW97197   4.222   2.844   4.690  0.3310 -0.0957 -0.0884
64129SOL    HW197198   4.231   2.760   4.646  1.2813  0.2007 -0.4863
64129SOL    HW297199   4.250   2.828   4.780  0.3388 -0.2442 -0.1180
64130SOL     OW97200   7.628   9.295   9.964  0.0618 -0.5769  0.0369
64130SOL    HW197201   7.642   9.325  10.053  0.2843  0.7516 -0.4303
64130SOL    HW297202   7.716   9.285   9.928 -0.0311 -0.9168 -0.1024
64131SOL     OW97203   3.210   8.073  11.437  0.2767  0.1677 -0.0494
64131SOL    HW197204   3.289   8.077  11.382 -0.6824  1.4464 -1.3959
64131SOL    HW297205   3.232   8.126  11.513  1.0900 -0.3796  0.1152
64132SOL     OW97206  10.542   6.312   5.054 -1.0209  0.2521  0.0766
64132SOL    HW197207  10.580   6.271   5.131 -1.2507  2.0672  1.2211
64132SOL    HW297208  10.486   6.245   5.016 -0.7888 -0.7280  1.4155
64133SOL     OW97209   4.447   2.830   3.224  0.0076 -1.4918  0.0559
64133SOL    HW197210   4.405   2.846   3.308 -1.9818 -1.0977 -0.9359
64133SOL    HW297211   4.521   2.890   3.221 -1.0513 -0.0959  0.7420
64134SOL     OW97212   7.128   3.678   8.267 -0.4228 -0.4854  0.0686
64134SOL    HW197213   7.121   3.583   8.258 -0.7297 -0.3747 -1.1567
64134SOL    HW297214   7.220   3.697   8.251  0.0099 -0.7054  2.0617
64135SOL     OW97215   9.756   0.350   4.048 -0.0952  0.4955  0.4090
64135SOL    HW197216   9.754   0.365   3.954  1.2807  0.1858  0.3037
64135SOL    HW297217   9.823   0.282   4.060 -1.5001 -0.7563  1.4538
64136SOL     OW97218   2.295   5.045   7.309 -0.2078  0.2108 -0.4302
64136SOL    HW197219   2.388   5.068   7.302 -0.0168 -0.5346 -0.4237
64136SOL    HW297220   2.277   4.994   7.230 -0.2651 -0.7993  0.2213
64137SOL     OW97221   7.729   4.495   7.561 -0.4612  0.8592 -0.2533
64137SOL    HW197222   7.664   4.438   7.601  0.7426  0.1417  0.7955
64137SOL    HW297223   7.742   4.565   7.626  1.0178  0.0563  0.3722
64138SOL     OW97224  10.676   7.138   7.546  0.7742  0.0168 -0.0324
64138SOL    HW197225  10.631   7.093   7.618 -0.7048  2.2523  0.5358
64138SOL    HW297226  10.751   7.082   7.527 -1.3348 -3.1059  0.0614
64139SOL     OW97227   4.547   6.720  10.975  0.7016  0.1865 -0.1751
64139SOL    HW197228   4.626   6.727  11.029  0.0762  0.4764  0.7284
64139SOL    HW297229   4.497   6.799  10.995  0.6842  0.5570 -1.5823
64140SOL     OW97230   3.190  10.617  12.369  0.2397  0.4739 -0.3084
64140SOL    HW197231   3.107  10.591  12.329  0.2412 -0.7838  0.4619
64140SOL    HW297232   3.255  10.558  12.330  0.4135 -0.0257  0.6956
64141SOL     OW97233   9.638   8.148   8.149 -0.8926  0.0309 -0.1712
64141SOL    HW197234   9.548   8.165   8.175 -2.0202 -0.4608 -3.3641
64141SOL    HW297235   9.661   8.221   8.092 -0.2138 -1.1459 -1.4432
64142SOL     OW97236  11.029   0.317  10.081 -0.1620 -0.6202 -0.1797
64142SOL    HW197237  10.962   0.253  10.107  0.2509 -1.1830 -0.4712
64142SOL    HW297238  11.066   0.281  10.001  0.3575 -0.2111 -0.1257
64143SOL     OW97239   5.157  11.009   5.036  0.1214  0.4092  0.3486
64143SOL    HW197240   5.214  11.036   4.963 -2.4383  1.3203 -1.4786
64143SOL    HW297241   5.168  11.078   5.102  0.7908  0.8009 -0.1547
64144SOL     OW97242   3.617   9.600   4.446 -0.4608  0.2059 -0.4693
64144SOL    HW197243   3.578   9.671   4.496  1.7134  1.2144 -0.0880
64144SOL    HW297244   3.706   9.631   4.425 -0.2256 -1.4600 -2.2662
64145SOL     OW97245   4.817   5.994   4.103 -0.0507 -0.6291  0.2786
64145SOL    HW197246   4.804   6.041   4.185 -1.3900  0.5267 -0.5472
64145SOL    HW297247   4.866   5.916   4.127  3.1246  1.5770  1.6126
64146SOL     OW97248   4.205   5.757   1.774 -0.4599 -0.2378 -0.2046
64146SOL    HW197249   4.155   5.713   1.705  0.7140  1.3816 -2.2168
64146SOL    HW297250   4.271   5.693   1.800 -0.2073 -0.5079 -1.4354
64147SOL     OW97251   7.296   3.358   4.690 -0.1698 -0.0237 -0.2273
64147SOL    HW197252   7.247   3.308   4.624 -1.3190  0.2500  0.3802
64147SOL    HW297253   7.229   3.407   4.737  0.5014 -0.7650  1.6245
64148SOL     OW97254   0.029   3.902   1.839  0.4398 -0.5806  0.0609
64148SOL    HW197255   0.040   3.982   1.787  1.5424  0.1114  1.2837
64148SOL    HW297256   0.110   3.895   1.890  0.0546 -2.0872  0.5244
64149SOL     OW97257  12.566   8.206  10.719  0.1503  0.4975  0.5992
64149SOL    HW197258  12.552   8.113  10.701 -2.2092  0.8978  0.0064
64149SOL    HW297259  12.632   8.233  10.655  0.5230 -0.6692  0.4706
64150SOL     OW97260   3.710   9.443   2.817 -0.5289  0.0989  0.0133
64150SOL    HW197261   3.729   9.491   2.736 -0.3226 -0.7555 -0.4475
64150SOL    HW297262   3.770   9.369   2.817 -2.7121 -1.8104 -0.7338
64151SOL     OW97263   0.439   1.828  12.004  0.1089  0.6789  0.0011
64151SOL    HW197264   0.362   1.771  12.000 -0.1383  0.7613  2.3427
64151SOL    HW297265   0.470   1.832  11.914 -0.2195 -2.6472 -0.3852
64152SOL     OW97266   4.780   1.279   5.519 -0.2669  0.1053 -0.0451
64152SOL    HW197267   4.753   1.369   5.540  0.7016  0.5834 -0.7597
64152SOL    HW297268   4.870   1.288   5.486 -0.1323 -1.1370 -0.0635
64153SOL     OW97269  11.315   1.692   9.915 -0.0284 -0.1025  0.3581
64153SOL    HW197270  11.300   1.644   9.834 -0.0379 -0.9327  0.8365
64153SOL    HW297271  11.371   1.635   9.967  1.4655  1.1876  0.2375
64154SOL     OW97272   2.129  11.117  10.751 -0.2263 -0.5329 -0.4893
64154SOL    HW197273   2.089  11.109  10.838  0.0176  0.4797 -0.2729
64154SOL    HW297274   2.071  11.067  10.694 -1.4986  0.4236 -0.0914
64155SOL     OW97275   8.008   5.050   0.448 -0.2894 -0.8524 -0.4663
64155SOL    HW197276   8.026   4.978   0.508  1.4157 -1.1956 -1.3166
64155SOL    HW297277   7.963   5.009   0.374  0.4425 -1.0185 -0.8293
64156SOL     OW97278   7.818   1.686   1.163 -0.0509 -0.9021  0.0465
64156SOL    HW197279   7.801   1.780   1.154 -0.3915 -1.0063 -0.4470
64156SOL    HW297280   7.798   1.650   1.076 -0.1927 -1.4696  0.3144
64157SOL     OW97281   0.652   6.751   9.955  0.4221  0.3457 -0.1476
64157SOL    HW197282   0.730   6.741   9.901  1.0688  1.9112  0.4194
64157SOL    HW297283   0.621   6.840   9.935 -0.1624  0.4114  0.9680
64158SOL     OW97284  12.170   0.151   2.919 -0.0440 -0.4484  0.2440
64158SOL    HW197285  12.130   0.226   2.963 -0.5983  0.4096 -1.6093
64158SOL    HW297286  12.264   0.170   2.922 -0.1505  0.1374  0.1324
64159SOL     OW97287   7.163  11.506   1.801 -0.1434  0.3292  0.3769
64159SOL    HW197288   7.143  11.472   1.888  1.2846 -0.3317  0.4720
64159SOL    HW297289   7.081  11.547   1.771 -1.1689 -0.9936  1.2909
64160SOL     OW97290   4.462  11.817   5.664 -0.1918  0.2423  0.2910
64160SOL    HW197291   4.446  11.756   5.736  2.4056  0.6203  1.3147
64160SOL    HW297292   4.408  11.893   5.684  0.9183  0.5852  2.2533
64161SOL     OW97293   1.742  10.629   5.642 -0.1131  0.1046  0.4171
64161SOL    HW197294   1.731  10.539   5.672  0.6849  0.0619  0.6094
64161SOL    HW297295   1.806  10.622   5.570  0.6640  0.6106  1.0354
64162SOL     OW97296  10.620   6.244   6.496  0.7872 -0.0029  0.5475
64162SOL    HW197297  10.586   6.155   6.505 -0.3554  0.5075  1.4495
64162SOL    HW297298  10.545   6.296   6.467  1.7659  0.4578 -1.3260
64163SOL     OW97299   6.678   8.485   1.147 -0.5306  0.2037  0.2523
64163SOL    HW197300   6.724   8.556   1.102 -1.8251  0.0793 -1.3511
64163SOL    HW297301   6.599   8.471   1.095 -0.9473 -1.5435  1.2910
64164SOL     OW97302   1.507  11.251  10.615  0.2644  0.1041 -0.2828
64164SOL    HW197303   1.506  11.263  10.520  1.7403  0.1753 -0.3226
64164SOL    HW297304   1.594  11.282  10.642 -0.3319  0.6067  1.1702
64165SOL     OW97305  11.531   0.542   6.620  0.3521 -0.3625  0.0293
64165SOL    HW197306  11.452   0.548   6.566 -0.2228  0.6211  0.9489
64165SOL    HW297307  11.602   0.566   6.561 -0.1672 -0.1287 -0.5152
64166SOL     OW97308   4.066   9.994  11.718  0.5156 -0.4250 -0.2006
64166SOL    HW197309   4.154  10.024  11.740  0.8494 -1.8546  0.5174
64166SOL    HW297310   4.008  10.054  11.764  1.1607 -1.0166  1.4582
64167SOL     OW97311  11.112   2.748   9.358 -0.0982 -0.8683  0.3944
64167SOL    HW197312  11.112   2.652   9.358  1.4708 -0.8983 -0.0062
64167SOL    HW297313  11.093   2.773   9.448  0.9419 -1.5964  0.8317
64168SOL     OW97314   4.345   5.006   1.718  0.0448 -0.1264  0.0555
64168SOL    HW197315   4.263   4.958   1.707 -0.1109  0.1791 -0.1362
64168SOL    HW297316   4.376   5.022   1.629  0.7137 -0.9095  0.1360
64169SOL     OW97317   9.960   6.676  10.951  0.1496 -0.5052  0.3610
64169SOL    HW197318   9.951   6.598  11.007  0.1675 -0.0189  1.0541
64169SOL    HW297319  10.041   6.717  10.981 -0.9406  0.9272  1.4598
64170SOL     OW97320   9.000   8.670   0.193  0.4389  0.9141 -0.4488
64170SOL    HW197321   8.956   8.737   0.141 -2.5777  0.9694  1.8618
64170SOL    HW297322   9.089   8.703   0.205  0.1899  2.5440 -2.5934
64171SOL     OW97323  10.573  10.652   3.660 -0.0325  0.4486  0.1025
64171SOL    HW197324  10.519  10.715   3.611 -0.1098 -0.9963 -1.7484
64171SOL    HW297325  10.658  10.655   3.616  0.4868  0.4892  1.0971
64172SOL     OW97326   2.760   9.009   3.129  0.4139 -0.2870  0.0007
64172SOL    HW197327   2.718   9.083   3.173  1.6861  0.4722 -0.0227
64172SOL    HW297328   2.700   8.935   3.143  0.5586  0.0123  2.6286
64173SOL     OW97329   8.394  10.886   0.451  0.0342 -0.4754 -0.5611
64173SOL    HW197330   8.473  10.909   0.402  0.5590  1.6998  1.1748
64173SOL    HW297331   8.396  10.790   0.455  0.8427 -0.6727 -3.2349
64174SOL     OW97332   7.807   7.927   6.016  0.4826  0.0258  0.5401
64174SOL    HW197333   7.771   7.859   6.073  1.7328 -0.2184  1.0880
64174SOL    HW297334   7.849   7.879   5.945 -0.2809  0.3012 -0.0997
64175SOL     OW97335   9.879   0.390   7.471  0.2535  0.3756 -1.1042
64175SOL    HW197336   9.873   0.393   7.566  1.7617 -0.9781 -0.9494
64175SOL    HW297337   9.803   0.442   7.442 -0.7012  0.1482  0.7959
64176SOL     OW97338   0.999  10.982   3.113 -0.4236 -0.0771 -0.2266
64176SOL    HW197339   0.911  11.009   3.140 -0.2198  1.8266 -1.2848
64176SOL    HW297340   1.052  10.990   3.192 -0.8734  0.3662  0.0343
64177SOL     OW97341   7.001   8.984   8.284  0.2377  0.7888  0.5288
64177SOL    HW197342   7.029   8.978   8.375 -0.7577  0.5161  0.8307
64177SOL    HW297343   7.040   8.907   8.242  1.2598  1.2770  0.5535
64178SOL     OW97344   7.803   2.860   1.845  0.5052 -0.2218 -0.2601
64178SOL    HW197345   7.869   2.923   1.877 -0.3127 -0.5391  2.2738
64178SOL    HW297346   7.722   2.910   1.844  0.2577 -0.6310 -0.4103
64179SOL     OW97347   4.431  11.141   6.221 -0.5164  0.2630  0.0560
64179SOL    HW197348   4.403  11.119   6.133  0.0962  2.9854 -0.8949
64179SOL    HW297349   4.516  11.097   6.230 -0.5995 -0.0667 -0.6977
64180SOL     OW97350   8.795  11.307  11.981 -0.0719 -0.2891 -0.0056
64180SOL    HW197351   8.822  11.216  11.993  0.5828 -0.0163  0.6782
64180SOL    HW297352   8.877  11.357  11.980 -0.4622  0.3761  0.3855
64181SOL     OW97353   9.995   6.886   4.558 -0.3132 -0.1053 -0.2284
64181SOL    HW197354   9.965   6.948   4.624 -0.5213 -0.3811 -0.0616
64181SOL    HW297355  10.027   6.811   4.608  4.3796  1.6379 -0.1231
64182SOL     OW97356   8.844   6.234   1.197  0.2423  0.0436  0.3658
64182SOL    HW197357   8.789   6.156   1.203  0.1846  0.2042  3.1695
64182SOL    HW297358   8.792   6.297   1.147 -0.2999 -1.2032 -0.7049
64183SOL     OW97359   3.802   1.816   8.604 -0.0226  0.5491  0.5506
64183SOL    HW197360   3.885   1.774   8.585  0.5736  1.3711  1.2659
64183SOL    HW297361   3.751   1.750   8.650 -0.1478 -0.2743 -0.7090
64184SOL     OW97362   4.113   1.775   6.557  0.0757 -0.4594 -0.0786
64184SOL    HW197363   4.133   1.731   6.640  0.9597  2.4593  1.4032
64184SOL    HW297364   4.018   1.775   6.552  0.0447 -1.7882  0.2645
64185SOL     OW97365   1.180   4.603   5.846  0.3135  0.2340  0.0518
64185SOL    HW197366   1.141   4.652   5.774  2.5604  0.6692 -0.9575
64185SOL    HW297367   1.259   4.564   5.808  0.5847 -1.0721  1.8191
64186SOL     OW97368   3.746   8.341   5.402  0.0848  0.3178 -0.3751
64186SOL    HW197369   3.766   8.268   5.460  1.2875  1.1415  0.3176
64186SOL    HW297370   3.698   8.403   5.456  0.2163  0.6040 -0.5801
64187SOL     OW97371   4.281   5.612  12.400 -0.1962 -0.4306 -0.5297
64187SOL    HW197372   4.376   5.608  12.404 -0.2779 -1.6175  1.2846
64187SOL    HW297373   4.251   5.541  12.456 -2.1646 -0.1508 -1.1418
64188SOL     OW97374   3.122   6.025   4.521 -0.2247 -0.0689 -0.5208
64188SOL    HW197375   3.211   6.029   4.555 -0.1085 -0.8497 -0.7171
64188SOL    HW297376   3.120   5.946   4.467 -1.2928 -0.5879  0.2402
64189SOL     OW97377   3.791   1.198   1.159  0.0312  0.0408 -0.3031
64189SOL    HW197378   3.835   1.283   1.162  0.4785 -0.1917 -0.1641
64189SOL    HW297379   3.713   1.209   1.214  0.1540  0.3226 -0.1852
64190SOL     OW97380   6.706   4.590  11.624  0.6540 -0.6174  0.3890
64190SOL    HW197381   6.756   4.669  11.642  1.4187 -1.0686  0.2579
64190SOL    HW297382   6.636   4.590  11.690  0.7115  0.1088  0.4523
64191SOL     OW97383  12.128  11.101   2.686 -0.3374  0.0727  0.0868
64191SOL    HW197384  12.127  11.036   2.757  1.6259 -0.7821 -0.5813
64191SOL    HW297385  12.051  11.154   2.701 -0.4336 -0.6016  2.3929
64192SOL     OW97386   8.769   1.721  12.257 -0.3023  0.3605 -0.1963
64192SOL    HW197387   8.698   1.672  12.297 -1.8544  1.5001 -1.4531
64192SOL    HW297388   8.752   1.717  12.163 -1.2019  4.1487 -0.3524
64193SOL     OW97389   2.267   3.523   1.450  0.4412 -0.1433  0.1071
64193SOL    HW197390   2.357   3.495   1.468  0.1621 -0.5109  0.9751
64193SOL    HW297391   2.258   3.515   1.355  1.3945  0.1201 -0.0154
64194SOL     OW97392   0.057   4.043   8.179  0.2000 -0.2734  0.5486
64194SOL    HW197393  -0.029   4.060   8.218 -0.5241  0.1065 -1.1051
64194SOL    HW297394   0.052   3.952   8.149 -0.6159  0.4774 -1.7977
64195SOL     OW97395   2.566  11.022   9.714  0.1563  0.2140 -0.2355
64195SOL    HW197396   2.625  11.011   9.639 -0.2497 -1.4419 -0.3333
64195SOL    HW297397   2.500  10.954   9.703 -1.4986  1.6863  0.1719
64196SOL     OW97398   6.035   1.463   5.850 -0.0757 -0.3165 -0.1044
64196SOL    HW197399   6.006   1.439   5.938  0.2073 -0.6217 -0.0929
64196SOL    HW297400   6.074   1.383   5.815  0.7040  0.0727 -0.1390
64197SOL     OW97401   1.200   1.696   3.127  0.6823  0.0930  0.0664
64197SOL    HW197402   1.135   1.627   3.118  1.1224 -0.5538  1.5024
64197SOL    HW297403   1.182   1.735   3.213  3.1434 -1.1989  1.2735
64198SOL     OW97404   9.362   4.512   9.758 -0.1359  0.0459  0.5857
64198SOL    HW197405   9.285   4.560   9.786 -0.2397  1.8045 -2.3098
64198SOL    HW297406   9.432   4.579   9.755  1.0119 -1.0763  1.1560
64199SOL     OW97407   1.382   4.270   7.658 -0.6024  0.2205  0.1929
64199SOL    HW197408   1.365   4.363   7.646  0.0905  0.5590  1.5883
64199SOL    HW297409   1.467   4.266   7.701 -0.5317 -1.0707 -0.0069
64200SOL     OW97410   4.345   0.104   9.684 -0.7008  0.5113  0.2863
64200SOL    HW197411   4.344   0.071   9.595  1.1940  1.7418 -0.2545
64200SOL    HW297412   4.438   0.110   9.707 -0.9596  3.4484  1.0401
64201SOL     OW97413  11.424   4.552  11.075  0.7437 -0.0563 -0.1326
64201SOL    HW197414  11.470   4.530  10.994  1.6210 -0.5652  0.4907
64201SOL    HW297415  11.467   4.632  11.106  0.5723  0.0006 -0.0398
64202SOL     OW97416   7.322  11.303   2.823 -0.2291 -0.2074  0.2875
64202SOL    HW197417   7.319  11.216   2.783  0.5194 -0.4364  0.6978
64202SOL    HW297418   7.399  11.299   2.880 -0.6971  0.4440  0.9710
64203SOL     OW97419   8.611   9.670   5.094  0.4550  0.1653  0.2246
64203SOL    HW197420   8.519   9.661   5.120  0.9176  1.5241  2.6132
64203SOL    HW297421   8.660   9.639   5.170  2.0133 -0.0643 -0.8301
64204SOL     OW97422   4.153   3.059  11.635  0.3046 -0.5744 -0.3941
64204SOL    HW197423   4.114   3.141  11.664  0.2271 -0.0901 -1.7747
64204SOL    HW297424   4.235   3.084  11.594 -0.9195 -0.7883 -3.2302
64205SOL     OW97425  10.878   1.130   9.024 -0.2525 -0.0777 -0.4347
64205SOL    HW197426  10.961   1.147   8.979 -0.2104 -1.2871 -0.8315
64205SOL    HW297427  10.895   1.055   9.080 -1.6808 -1.9159 -2.3132
64206SOL     OW97428   3.496  12.238  11.251  0.2938 -0.0265 -0.5546
64206SOL    HW197429   3.462  12.302  11.313 -1.2611 -0.7613 -0.5930
64206SOL    HW297430   3.577  12.276  11.218 -1.1482  2.4917 -1.4680
64207SOL     OW97431   2.342   2.801   3.921  0.7377  0.2718 -0.2551
64207SOL    HW197432   2.372   2.723   3.874 -0.3058 -0.0434 -0.4263
64207SOL    HW297433   2.254   2.779   3.952  1.5407  0.2980  2.2855
64208SOL     OW97434   9.967   7.557   3.562 -0.3234 -0.3967  0.0215
64208SOL    HW197435   9.900   7.555   3.630  0.1802 -1.7546  0.5100
64208SOL    HW297436  10.004   7.468   3.562  0.3847 -0.1274 -1.3229
64209SOL     OW97437   8.967   6.227   3.249  0.0092  0.5604  0.5932
64209SOL    HW197438   9.036   6.252   3.311  0.6962 -1.0682  0.5298
64209SOL    HW297439   8.963   6.301   3.188 -0.4191  2.0221  2.3045
64210SOL     OW97440   5.690   2.068   6.096  0.7827  0.2577 -0.3345
64210SOL    HW197441   5.597   2.044   6.091  0.5454  0.7518  1.2836
64210SOL    HW297442   5.715   2.084   6.005 -0.6224 -0.2118 -0.8336
64211SOL     OW97443   8.190   4.890  11.745 -0.1549 -0.2087 -0.0090
64211SOL    HW197444   8.215   4.965  11.692 -2.4075  1.7084  1.4378
64211SOL    HW297445   8.264   4.875  11.803  0.7313  0.2281 -0.9988
64212SOL     OW97446   8.884   4.414   7.462  0.8589 -0.4253  0.0809
64212SOL    HW197447   8.800   4.404   7.506  0.7090  0.0299 -0.0884
64212SOL    HW297448   8.873   4.370   7.377  0.5558  0.2315 -0.2273
64213SOL     OW97449   6.498   6.436   8.987  0.1317  0.7228  0.2595
64213SOL    HW197450   6.427   6.399   8.935 -0.2596  1.8777 -0.0440
64213SOL    HW297451   6.455   6.497   9.047  0.9007  1.8283 -0.2762
64214SOL     OW97452  12.079   6.469   0.701 -0.1912 -0.1949 -0.0454
64214SOL    HW197453  12.073   6.387   0.748  1.8735 -0.5323 -0.2731
64214SOL    HW297454  11.996   6.476   0.654 -1.0488 -1.3342  1.2268
64215SOL     OW97455   7.211  12.635   1.919  0.2382  0.1716  0.4279
64215SOL    HW197456   7.173  12.594   1.996 -0.2202  1.1512  0.7445
64215SOL    HW297457   7.235  12.562   1.862 -0.0158 -0.5402  1.2099
64216SOL     OW97458   1.981   0.305   3.115  0.0764  0.1097 -0.6107
64216SOL    HW197459   1.978   0.244   3.042 -1.5314  0.6654 -1.0365
64216SOL    HW297460   1.930   0.380   3.086  0.0559  0.6682  0.7900
64217SOL     OW97461   3.742   9.153   8.497  0.1527  0.1903  0.6542
64217SOL    HW197462   3.812   9.191   8.551 -0.9023  1.8995  0.8710
64217SOL    HW297463   3.786   9.128   8.416  1.0868  0.8856  0.9269
64218SOL     OW97464   9.443   9.245   7.491 -0.2238 -0.0998 -0.1333
64218SOL    HW197465   9.450   9.308   7.563  0.5539 -1.5182  1.0920
64218SOL    HW297466   9.515   9.184   7.506 -1.5070 -1.8120 -0.7176
64219SOL     OW97467   2.027   0.625   7.964  0.1306 -0.6308  0.5240
64219SOL    HW197468   1.987   0.705   7.999 -0.2779 -0.5874 -0.0351
64219SOL    HW297469   2.071   0.586   8.039 -1.5352 -1.0435  1.3256
64220SOL     OW97470  10.177   3.590   7.266 -0.2904  0.4371  0.3048
64220SOL    HW197471  10.257   3.632   7.233 -0.7158 -0.0185 -1.3662
64220SOL    HW297472  10.202   3.499   7.279 -0.5898  0.2545 -0.4005
64221SOL     OW97473   6.057  10.996   5.008  0.0242  0.1144 -0.1512
64221SOL    HW197474   6.004  10.947   4.945 -1.5706  1.4291  0.1123
64221SOL    HW297475   6.008  10.988   5.090  1.4983 -0.6350  0.6873
64222SOL     OW97476   9.947   9.646   9.081  0.5720  0.0506 -0.1269
64222SOL    HW197477   9.913   9.693   9.157  0.1459 -0.1582 -0.1859
64222SOL    HW297478   9.933   9.705   9.008  1.2287  0.3636 -0.0101
64223SOL     OW97479   6.254   6.182  10.799  0.0752 -0.1015 -0.3583
64223SOL    HW197480   6.227   6.245  10.866 -1.4115 -1.6377  0.5523
64223SOL    HW297481   6.348   6.199  10.787  0.1305  0.9534  1.3050
64224SOL     OW97482  10.698  10.736   4.711  0.0437 -0.2666 -0.1489
64224SOL    HW197483  10.650  10.819   4.709 -1.6525 -1.1388 -4.0310
64224SOL    HW297484  10.788  10.760   4.688 -0.0600  0.6464  0.3362
64225SOL     OW97485   0.431   2.319   4.048 -0.0739  0.3862 -0.2022
64225SOL    HW197486   0.436   2.335   3.954  0.0215  1.2886 -0.0531
64225SOL    HW297487   0.508   2.363   4.084  0.0851 -0.2605  0.2599
64226SOL     OW97488   9.439  11.401   6.756  0.2421 -0.8116  0.2664
64226SOL    HW197489   9.375  11.405   6.685  0.2984 -0.5923  0.2249
64226SOL    HW297490   9.410  11.468   6.818  0.8727 -0.1583 -0.1315
64227SOL     OW97491   5.391  10.420   8.529  0.0531 -0.3389 -0.8224
64227SOL    HW197492   5.344  10.402   8.448  1.9443  2.4342 -2.7090
64227SOL    HW297493   5.482  10.395   8.511  0.7411  1.4200 -0.0198
64228SOL     OW97494   4.548   0.116   8.865 -0.0231 -0.0549  0.0509
64228SOL    HW197495   4.596   0.106   8.947 -0.7035  2.0219  0.7727
64228SOL    HW297496   4.605   0.169   8.809  1.7808 -3.8709 -2.1235
64229SOL     OW97497   2.592   9.652   7.306 -0.0581  0.1198 -0.0659
64229SOL    HW197498   2.646   9.575   7.291  0.1029  0.2202 -0.0008
64229SOL    HW297499   2.502   9.619   7.306  0.0942 -0.4529  2.1750
64230SOL     OW97500   9.192  12.186   1.717 -0.2459 -0.5491 -0.0681
64230SOL    HW197501   9.101  12.210   1.736 -0.4009 -2.4782  2.0795
64230SOL    HW297502   9.235  12.269   1.698 -1.6485  0.9478  2.6385
64231SOL     OW97503   8.159  10.450   8.205  0.2138  0.2228 -0.6381
64231SOL    HW197504   8.175  10.523   8.264 -4.4778 -0.2781  1.7642
64231SOL    HW297505   8.230  10.389   8.221  2.2331  2.5866  0.0273
64232SOL     OW97506   4.462   7.148   1.574  0.2588  0.2221  0.3206
64232SOL    HW197507   4.409   7.161   1.495  1.3572 -1.0161 -0.6603
64232SOL    HW297508   4.417   7.077   1.621  1.9906 -2.2309 -1.4914
64233SOL     OW97509   7.862   5.317   9.310  0.0187 -0.2370 -0.4710
64233SOL    HW197510   7.809   5.392   9.339  0.1825 -0.8591  1.5720
64233SOL    HW297511   7.890   5.341   9.221 -2.5258  0.7099 -1.1000
64234SOL     OW97512   7.759   6.372   4.787  0.1004  0.2627  0.0651
64234SOL    HW197513   7.840   6.421   4.778 -0.8055  2.0650  1.1858
64234SOL    HW297514   7.767   6.300   4.724  2.2800  0.7407 -0.2687
64235SOL     OW97515   0.957  10.879  12.425 -0.3754  0.0789  0.1085
64235SOL    HW197516   0.952  10.835  12.340  2.4189  0.6865 -0.4566
64235SOL    HW297517   0.873  10.859  12.467 -1.9634 -0.0251 -2.8682
64236SOL     OW97518   1.247   7.169  10.501  0.3789  0.0434 -0.1541
64236SOL    HW197519   1.334   7.129  10.510  0.7476  0.5915 -1.0968
64236SOL    HW297520   1.230   7.209  10.586  1.1902  0.1833 -0.0459
64237SOL     OW97521   3.048   0.135   6.298 -0.3047 -0.1753 -0.1754
64237SOL    HW197522   2.982   0.097   6.240 -1.2060  0.9836  0.0468
64237SOL    HW297523   3.022   0.105   6.385 -0.3085 -0.0368 -0.1289
64238SOL     OW97524  12.578   6.783   1.877  0.1713  0.2380 -0.4480
64238SOL    HW197525  12.633   6.707   1.860 -1.0785 -0.1501 -3.1789
64238SOL    HW297526  12.490   6.756   1.852 -1.0685  1.3569  2.2806
64239SOL     OW97527   4.582   6.028  10.953  0.6385  0.4065 -0.2900
64239SOL    HW197528   4.562   6.118  10.978 -0.2918  0.9223 -2.6123
64239SOL    HW297529   4.612   6.034  10.862 -0.1238 -1.6626 -0.7457
64240SOL     OW97530   9.689   0.482  10.052  0.2295 -0.0848 -0.5960
64240SOL    HW197531   9.672   0.396  10.091  0.1181 -1.3840 -3.2556
64240SOL    HW297532   9.758   0.520  10.106 -1.7027 -0.5400  2.3847
64241SOL     OW97533   8.934   2.743   7.223 -0.0525  0.1595 -0.4802
64241SOL    HW197534   8.905   2.718   7.310 -0.9243  0.6847 -0.6087
64241SOL    HW297535   8.910   2.668   7.168 -1.1655  0.5598 -0.5754
64242SOL     OW97536  10.155   7.748  11.775 -0.1659  0.4925  0.0675
64242SOL    HW197537  10.063   7.740  11.751 -0.4701  2.7056  0.3273
64242SOL    HW297538  10.173   7.669  11.826 -1.7413 -0.2593 -0.4739
64243SOL     OW97539   7.304   0.074   7.139 -0.3003  0.5903 -0.3116
64243SOL    HW197540   7.391   0.066   7.178 -0.8383 -1.1613  0.6878
64243SOL    HW297541   7.256   0.131   7.199  0.2337  1.8236 -1.0394
64244SOL     OW97542  11.443   4.201   8.970 -0.2213  0.1620 -0.3795
64244SOL    HW197543  11.376   4.211   9.037  1.0923  0.4940  0.9525
64244SOL    HW297544  11.449   4.288   8.929  1.4372  1.0681  1.5875
64245SOL     OW97545  11.113   7.971  11.192  0.5908  0.2585 -0.2900
64245SOL    HW197546  11.053   7.986  11.119  0.4487  2.2495  0.1752
64245SOL    HW297547  11.098   8.045  11.251  0.9702 -1.0993  1.5815
64246SOL     OW97548  10.279  11.563   6.467 -0.3902 -0.4452  0.0471
64246SOL    HW197549  10.228  11.636   6.504 -2.1304 -1.9167  0.7226
64246SOL    HW297550  10.224  11.529   6.396  0.4642 -1.0154 -0.3580
64247SOL     OW97551  10.860  11.811   9.412 -0.0397  0.9554 -0.8204
64247SOL    HW197552  10.936  11.866   9.398 -0.3225  1.6506  0.2191
64247SOL    HW297553  10.786  11.871   9.413 -0.3719  0.5624  0.1612
64248SOL     OW97554   4.955   2.496   6.047 -0.3094 -0.3584 -0.3634
64248SOL    HW197555   4.989   2.575   6.005  0.2015  0.1616  0.9488
64248SOL    HW297556   4.863   2.493   6.023 -0.0173 -0.1388 -1.5571
64249SOL     OW97557  11.931   8.759   3.408 -0.3496  0.2513 -0.2538
64249SOL    HW197558  11.963   8.712   3.332 -0.2301  0.9526 -0.6398
64249SOL    HW297559  11.849   8.799   3.380 -0.9629 -0.5393  0.3689
64250SOL     OW97560   7.788   6.793   3.077  0.2324 -0.6435 -0.1846
64250SOL    HW197561   7.764   6.817   3.167 -0.0148 -0.7029 -0.2343
64250SOL    HW297562   7.763   6.869   3.025  0.6862 -0.4744 -0.1570
64251SOL     OW97563   9.850   0.041  12.205 -0.3830  0.0155 -0.3319
64251SOL    HW197564   9.797   0.114  12.171  1.1589  0.6596 -1.4744
64251SOL    HW297565   9.911   0.082  12.266 -0.7969 -0.6334  0.5356
64252SOL     OW97566   7.709   7.492   4.330  0.3652  0.3975 -0.8131
64252SOL    HW197567   7.795   7.476   4.369 -0.1945 -3.1638 -0.6929
64252SOL    HW297568   7.716   7.579   4.290  3.9133  0.3508 -0.5671
64253SOL     OW97569   9.407   2.891   6.765  0.1497  0.0546  0.2656
64253SOL    HW197570   9.485   2.839   6.746  1.0092  0.9215  1.2854
64253SOL    HW297571   9.435   2.951   6.834 -1.3353  0.6097  0.4101
64254SOL     OW97572  11.810  11.125   3.805 -0.4289 -0.1094 -0.2485
64254SOL    HW197573  11.865  11.068   3.859 -0.1428 -1.2514 -1.6776
64254SOL    HW297574  11.855  11.210   3.806  0.1971 -0.4406  0.3400
64255SOL     OW97575   5.805   9.547  11.250 -0.3371 -0.4092  0.5132
64255SOL    HW197576   5.795   9.454  11.268  1.0869 -0.5763  0.5467
64255SOL    HW297577   5.844   9.550  11.162 -0.1199  0.1377  0.6244
64256SOL     OW97578  10.261   5.612   3.388  0.5873 -0.3689  0.3411
64256SOL    HW197579  10.171   5.584   3.405  0.2762  1.1032  1.3939
64256SOL    HW297580  10.307   5.594   3.470  0.3737  1.9844  1.0680
64257SOL     OW97581   6.120   4.237   7.627  0.2422  0.2319  0.0504
64257SOL    HW197582   6.082   4.207   7.544 -0.5205 -0.5319  0.6448
64257SOL    HW297583   6.128   4.332   7.618 -1.0636  0.3161 -0.4240
64258SOL     OW97584  11.415   6.880  11.050 -0.1037  0.0695  0.6610
64258SOL    HW197585  11.359   6.826  10.995 -0.0334  0.5565  0.0948
64258SOL    HW297586  11.502   6.840  11.043  0.7796  2.1378 -2.5801
64259SOL     OW97587  11.319  12.037  11.020  0.0403 -0.2611  0.2263
64259SOL    HW197588  11.230  12.032  10.984  0.8036 -1.5427 -1.6356
64259SOL    HW297589  11.338  12.130  11.025 -0.6094 -0.0029 -1.5304
64260SOL     OW97590   5.466   7.997  11.202 -0.0186 -0.0051  0.1926
64260SOL    HW197591   5.470   8.038  11.116  1.5591 -0.4025  0.0427
64260SOL    HW297592   5.436   8.066  11.261  2.1865  1.3134 -0.1157
64261SOL     OW97593   0.088   8.504   3.629  0.4338 -0.1203 -0.2777
64261SOL    HW197594   0.032   8.441   3.674  1.3658 -0.9796 -0.3082
64261SOL    HW297595   0.137   8.452   3.565  0.3350  0.8241 -1.1468
64262SOL     OW97596   5.837  12.016   7.926  0.1598  0.2266 -0.3917
64262SOL    HW197597   5.836  12.107   7.896 -1.0084  0.8361  1.3253
64262SOL    HW297598   5.746  11.988   7.920 -0.0992  0.2986  2.1035
64263SOL     OW97599   9.686   0.139   5.414 -0.2421  0.3100 -0.0874
64263SOL    HW197600   9.719   0.227   5.430 -2.3564  1.0915  0.2891
64263SOL    HW297601   9.642   0.115   5.495  1.9002 -1.9329  0.5392
64264SOL     OW97602  11.047   5.996   4.671  0.0465 -0.3125  0.3683
64264SOL    HW197603  11.008   5.909   4.662  1.2806 -1.0913  2.0907
64264SOL    HW297604  11.053   6.028   4.581 -2.1914 -1.1665 -0.1742
64265SOL     OW97605   5.998   3.463   3.122  0.5624  0.1219 -0.1516
64265SOL    HW197606   5.964   3.483   3.209  2.2475 -0.1395  0.6147
64265SOL    HW297607   6.009   3.368   3.121  0.8035  0.1506 -0.5440
64266SOL     OW97608   5.533   5.490   4.404 -0.4184  0.4152 -0.1141
64266SOL    HW197609   5.448   5.504   4.444 -0.5732  0.8071 -0.5643
64266SOL    HW297610   5.517   5.501   4.310 -0.0936 -0.6239 -0.3017
64267SOL     OW97611  10.232  12.017   3.216  0.4359  0.2972  0.3636
64267SOL    HW197612  10.184  11.935   3.208  1.6189 -0.2862 -1.2230
64267SOL    HW297613  10.315  12.001   3.172  1.6486  1.6358  2.0394
64268SOL     OW97614   3.808   4.681   0.793  0.4560  0.5613  0.1902
64268SOL    HW197615   3.866   4.731   0.851  0.3976 -0.1370  0.8660
64268SOL    HW297616   3.791   4.600   0.841  0.7800 -0.2341 -1.0066
64269SOL     OW97617  10.383  12.180   1.040 -0.1271  0.4999  0.6152
64269SOL    HW197618  10.321  12.176   1.112  1.0205  1.0721  1.6832
64269SOL    HW297619  10.455  12.235   1.073  1.1392 -0.4689 -0.3894
64270SOL     OW97620   5.962  11.486   9.552  0.8605 -0.8020  0.2077
64270SOL    HW197621   5.983  11.395   9.533 -0.0183 -0.7651 -1.0523
64270SOL    HW297622   5.890  11.482   9.614 -1.9751 -1.1113 -2.8409
64271SOL     OW97623   1.409  11.824   3.903  0.9415 -0.1874 -0.0259
64271SOL    HW197624   1.396  11.738   3.863  0.1183  0.1133 -0.4399
64271SOL    HW297625   1.502  11.827   3.924  0.9421 -1.2681  0.2076
64272SOL     OW97626  10.169   2.958   4.038  0.5178 -0.8691 -0.1266
64272SOL    HW197627  10.237   2.937   4.102  1.3226 -0.0472 -0.6777
64272SOL    HW297628  10.123   3.033   4.076  0.2457 -1.1134  0.0215
64273SOL     OW97629   8.967  12.350   0.618  0.5335  0.1218 -0.0396
64273SOL    HW197630   8.935  12.325   0.704  1.7878 -0.2576  0.3262
64273SOL    HW297631   8.903  12.312   0.557 -0.2259  0.1889  0.6995
64274SOL     OW97632   6.938   1.786   1.279  0.0579  0.7541  0.3876
64274SOL    HW197633   6.937   1.802   1.185 -1.3526  1.1138  0.4417
64274SOL    HW297634   6.976   1.698   1.288  0.4029  0.8039 -0.4890
64275SOL     OW97635   7.060  10.345  12.237 -0.3926 -0.3789 -0.6936
64275SOL    HW197636   7.086  10.273  12.295  0.3476 -0.4929 -1.1454
64275SOL    HW297637   7.006  10.303  12.170 -0.7115 -0.3566 -0.4526
64276SOL     OW97638  10.310   8.079   0.057  0.3641  0.2048 -0.1871
64276SOL    HW197639  10.269   8.154   0.013  0.0904  0.9877  1.3282
64276SOL    HW297640  10.398   8.075   0.021  0.3650  1.2266 -0.3257
64277SOL     OW97641   5.652  12.441   8.378 -0.5752  0.3305  0.2411
64277SOL    HW197642   5.719  12.469   8.316 -0.1738 -2.1000 -0.5067
64277SOL    HW297643   5.576  12.497   8.358  0.0875  0.7347 -1.2888
64278SOL     OW97644   2.134   8.005   6.737 -0.5353  0.6329  0.1832
64278SOL    HW197645   2.192   8.029   6.809  0.0026 -0.2597  0.0663
64278SOL    HW297646   2.188   7.949   6.681 -0.9307  1.3354 -0.9357
64279SOL     OW97647   7.181  11.624   0.423  0.1413 -0.0044  0.2924
64279SOL    HW197648   7.146  11.575   0.498  1.7387  0.3332  1.3060
64279SOL    HW297649   7.181  11.715   0.451 -0.3177  0.2816 -0.5806
64280SOL     OW97650  10.379   1.489   1.733 -0.1738  0.5779  0.7803
64280SOL    HW197651  10.433   1.541   1.674 -0.8188  2.5400  1.8466
64280SOL    HW297652  10.416   1.504   1.820 -1.6509  0.9781  1.3701
64281SOL     OW97653  11.068   2.012   3.688  0.5053 -0.1707 -0.2338
64281SOL    HW197654  10.977   2.023   3.659 -0.0920 -1.4191  1.0742
64281SOL    HW297655  11.091   1.923   3.663  0.5430 -0.6888  1.5376
64282SOL     OW97656   1.306   1.642  10.855 -0.4740  0.1830 -0.2739
64282SOL    HW197657   1.398   1.655  10.877 -0.0294 -1.4234 -1.0060
64282SOL    HW297658   1.258   1.696  10.918  0.9408  0.5110  0.5607
64283SOL     OW97659  12.242   1.808   9.470  0.3323 -0.1775  0.4716
64283SOL    HW197660  12.248   1.853   9.554  1.6906  0.2388  0.1641
64283SOL    HW297661  12.262   1.717   9.491 -0.8111 -0.3711  0.8210
64284SOL     OW97662   5.646   8.736  10.144  0.4452  0.0473  0.0995
64284SOL    HW197663   5.692   8.798  10.087  0.4260 -0.7134 -0.7581
64284SOL    HW297664   5.595   8.682  10.084  0.0779 -0.4829  0.8813
64285SOL     OW97665  10.763   7.635  12.307  0.0551 -0.0909  0.5534
64285SOL    HW197666  10.831   7.621  12.373 -0.1715 -1.3235  0.5510
64285SOL    HW297667  10.691   7.674  12.356  0.4754  0.4963  0.7118
64286SOL     OW97668  11.031   9.499   6.048 -0.1492 -0.1597  0.2581
64286SOL    HW197669  11.031   9.593   6.029  1.1315 -0.1392  0.2948
64286SOL    HW297670  10.939   9.478   6.064 -0.6588  0.7877 -1.2323
64287SOL     OW97671   6.621   3.394   9.265 -1.1617 -0.2032  0.0817
64287SOL    HW197672   6.652   3.415   9.177 -0.0523 -0.0562  0.4894
64287SOL    HW297673   6.671   3.451   9.323  0.1167 -2.1558  1.0217
64288SOL     OW97674  10.893   8.204   3.257 -0.2160  0.2839  0.1784
64288SOL    HW197675  10.833   8.195   3.331  0.0417  0.7804  0.4605
64288SOL    HW297676  10.969   8.249   3.295  0.8188 -1.3067  0.1045
64289SOL     OW97677   4.016  12.498   3.435  0.4378 -0.3126 -0.2993
64289SOL    HW197678   4.006  12.417   3.485 -0.2091 -0.5513 -0.8035
64289SOL    HW297679   3.950  12.557   3.471  2.6602  1.0136  1.9744
64290SOL     OW97680   5.753   9.011   5.443 -1.0120  0.0550  0.2675
64290SOL    HW197681   5.814   9.015   5.516  0.6344  0.2909 -1.0721
64290SOL    HW297682   5.771   9.090   5.392 -4.3492  1.6207  1.2215
64291SOL     OW97683   5.730   0.689   3.579  0.5749  0.1545 -1.1642
64291SOL    HW197684   5.728   0.703   3.484 -0.1577 -0.2005 -1.2094
64291SOL    HW297685   5.770   0.603   3.590 -0.9042 -0.5627 -1.2555
64292SOL     OW97686   8.914   8.252   9.713 -0.1329 -0.4507 -0.1542
64292SOL    HW197687   9.006   8.278   9.715  0.1240 -1.3671  0.3765
64292SOL    HW297688   8.880   8.291   9.632  1.0146 -1.0373 -0.9466
64293SOL     OW97689   3.897   7.524   6.851 -0.0746  0.0185  0.0361
64293SOL    HW197690   3.938   7.511   6.937 -3.4105 -0.0467  1.7559
64293SOL    HW297691   3.903   7.619   6.837 -0.4918  0.1927  0.9162
64294SOL     OW97692  10.542   1.067   0.192 -0.0871  0.1421 -0.3444
64294SOL    HW197693  10.581   1.026   0.269 -0.0863 -1.1657 -1.0089
64294SOL    HW297694  10.598   1.039   0.119 -0.7510  0.4189 -0.9716
64295SOL     OW97695  10.493   1.989   9.282  0.0700  0.8075  0.3192
64295SOL    HW197696  10.507   2.081   9.306  1.3933  0.3643  1.4131
64295SOL    HW297697  10.550   1.974   9.207 -0.8775  1.1026 -0.4838
64296SOL     OW97698  11.546   5.849   4.208 -0.5262 -0.3686  0.9040
64296SOL    HW197699  11.458   5.813   4.199 -1.0666  0.6320  2.0452
64296SOL    HW297700  11.569   5.835   4.300 -0.6306  1.8733  1.3143
64297SOL     OW97701   1.746   3.573   9.850  0.2537  0.6748 -0.2775
64297SOL    HW197702   1.721   3.611   9.934 -1.7846  1.0769 -0.9872
64297SOL    HW297703   1.736   3.645   9.788  0.8997  0.1635 -0.9904
64298SOL     OW97704   9.422   6.833  11.808  0.3326 -0.5911  0.1485
64298SOL    HW197705   9.379   6.758  11.767 -0.8488  0.6743 -1.0165
64298SOL    HW297706   9.508   6.800  11.833  1.1533 -1.5436 -3.3145
64299SOL     OW97707  10.934   8.669   3.399  0.0783  0.2282 -0.1444
64299SOL    HW197708  10.848   8.628   3.399 -0.0742  0.5518 -0.0368
64299SOL    HW297709  10.957   8.678   3.307 -0.1367  0.4315 -0.1767
64300SOL     OW97710   6.718   7.639   3.272  0.0414  0.1459  0.6420
64300SOL    HW197711   6.795   7.695   3.263 -1.0972  1.9536  1.7299
64300SOL    HW297712   6.715   7.591   3.189  2.3863 -0.0994  0.6135
64301SOL     OW97713   4.593   9.588   3.217  0.4328  0.2746  0.2301
64301SOL    HW197714   4.592   9.581   3.122 -1.0411  0.1280  0.2316
64301SOL    HW297715   4.632   9.506   3.247  0.7698  0.2604 -0.2371
64302SOL     OW97716   5.214   1.901   9.108  0.1257  0.5035  0.2914
64302SOL    HW197717   5.179   1.815   9.132 -1.8068  1.2452  0.3362
64302SOL    HW297718   5.298   1.907   9.153  0.1585 -1.2382  0.5088
64303SOL     OW97719   9.611  10.456   4.376  0.2525 -0.2988 -0.4879
64303SOL    HW197720   9.632  10.468   4.284 -0.2285  0.9528 -0.4535
64303SOL    HW297721   9.613  10.361   4.389  0.2653 -0.4909 -1.7938
64304SOL     OW97722   8.708   0.475   8.314  0.3683 -0.3524 -0.4195
64304SOL    HW197723   8.617   0.477   8.285  0.5334  0.1328 -0.9169
64304SOL    HW297724   8.756   0.437   8.239  0.3773 -2.0523  0.4007
64305SOL     OW97725   8.343  10.882   5.562  0.1237 -0.2955 -0.0598
64305SOL    HW197726   8.329  10.968   5.602  1.7931  0.3793 -0.8643
64305SOL    HW297727   8.327  10.819   5.633 -0.6227  0.6865  0.6631
64306SOL     OW97728   4.578  10.196  11.692  0.1309  0.1495  0.5614
64306SOL    HW197729   4.498  10.231  11.732 -0.8720 -0.7332 -0.5911
64306SOL    HW297730   4.584  10.107  11.727 -0.4202 -0.4167 -0.7283
64307SOL     OW97731   3.420  11.200   9.769  0.1080 -0.0218 -0.2946
64307SOL    HW197732   3.514  11.204   9.754  0.1061 -1.2982 -0.7347
64307SOL    HW297733   3.397  11.289   9.796  1.3446  0.4438 -0.6802
64308SOL     OW97734   0.811  11.114  12.356  0.0375  0.3339 -0.3552
64308SOL    HW197735   0.879  11.175  12.386  0.6181  0.0143 -0.9743
64308SOL    HW297736   0.744  11.171  12.318  1.1981  0.5914 -2.1796
64309SOL     OW97737   0.892   8.855   7.088  0.0231 -0.3966 -0.1628
64309SOL    HW197738   0.922   8.933   7.042 -2.3393  1.0559  0.5746
64309SOL    HW297739   0.798   8.870   7.101 -0.4314 -3.2057  0.3646
64310SOL     OW97740   5.259   9.075   6.664 -0.3166  0.0785  0.4909
64310SOL    HW197741   5.206   9.152   6.643  1.1911  1.0107 -0.1080
64310SOL    HW297742   5.267   9.028   6.581 -0.2922 -0.1022  0.5967
64311SOL     OW97743   5.949   7.466   8.949  0.4487  0.4498 -0.5195
64311SOL    HW197744   5.989   7.401   8.892  1.2210  1.6314 -1.3901
64311SOL    HW297745   6.007   7.471   9.025 -1.1345 -1.8827  0.9755
64312SOL     OW97746   1.955  11.902  11.599  0.6073  0.3120 -0.1745
64312SOL    HW197747   1.893  11.831  11.614 -0.4097  1.3236  0.5655
64312SOL    HW297748   1.911  11.960  11.537  0.7325  1.0992  0.4465
64313SOL     OW97749   9.646   4.491   1.947 -0.2708  0.0177 -0.0823
64313SOL    HW197750   9.691   4.532   2.021  2.3866 -0.8956 -1.0358
64313SOL    HW297751   9.610   4.410   1.983  0.4717 -0.1282  0.3687
64314SOL     OW97752  11.661  10.554   5.679 -0.1175 -0.0820 -0.6644
64314SOL    HW197753  11.641  10.506   5.598 -2.9004  1.1451 -0.8343
64314SOL    HW297754  11.655  10.646   5.653  0.2349  0.3290  0.6632
64315SOL     OW97755   2.837   3.199   4.819  0.4841 -0.7603 -0.1950
64315SOL    HW197756   2.897   3.263   4.780 -0.0410  1.2903  2.1123
64315SOL    HW297757   2.761   3.199   4.761  1.1823 -0.5828 -1.1310
64316SOL     OW97758  10.930   4.003   0.756  0.2068 -0.3058  0.0039
64316SOL    HW197759  10.975   3.921   0.775  0.8375 -0.0401 -0.2946
64316SOL    HW297760  10.964   4.029   0.670 -0.9176 -0.3625 -0.4708
64317SOL     OW97761   6.775   1.624  10.376 -0.3565  0.5355 -0.1754
64317SOL    HW197762   6.741   1.537  10.400  2.6641 -0.7181 -0.0169
64317SOL    HW297763   6.737   1.683  10.442 -1.8865 -0.7651  0.1754
64318SOL     OW97764   5.043  12.331   9.682 -0.2301  0.4977  0.1403
64318SOL    HW197765   5.051  12.251   9.631  0.7361  1.5651 -1.5022
64318SOL    HW297766   4.951  12.356   9.673 -0.4949 -0.3308  0.5163
64319SOL     OW97767  10.692   7.237   9.665  0.1921 -0.1607  0.0391
64319SOL    HW197768  10.771   7.201   9.705  0.7993  1.0828  0.0070
64319SOL    HW297769  10.712   7.240   9.571  0.9525  2.0580  0.2169
64320SOL     OW97770   1.340   6.047   7.113  0.5266 -0.1667  0.2605
64320SOL    HW197771   1.289   6.027   7.191 -0.5157 -0.9986 -0.6151
64320SOL    HW297772   1.294   6.004   7.042  2.0313 -0.2911 -0.6810
64321SOL     OW97773   7.135   8.608   2.492  0.3303  0.1413  0.1629
64321SOL    HW197774   7.218   8.604   2.539  0.5241 -0.8031 -0.2384
64321SOL    HW297775   7.153   8.665   2.417  0.2773  0.8945  0.7121
64322SOL     OW97776   7.575   3.512   9.161 -0.1636  0.4182  0.0751
64322SOL    HW197777   7.583   3.416   9.165 -1.0573  0.3249 -0.1698
64322SOL    HW297778   7.605   3.534   9.072 -1.1398  0.2227 -0.3196
64323SOL     OW97779   5.459  10.852  11.617  0.3881 -0.4546 -0.4282
64323SOL    HW197780   5.433  10.770  11.658  1.3308 -0.0623  1.0294
64323SOL    HW297781   5.434  10.919  11.680  0.0037  0.3686 -1.4160
64324SOL     OW97782   6.465   6.035   7.322  0.3706 -0.4367  0.3439
64324SOL    HW197783   6.436   5.944   7.320 -0.1252 -0.3643  2.2478
64324SOL    HW297784   6.559   6.029   7.337  0.5390 -0.6151 -0.6744
64325SOL     OW97785   6.862   5.862   0.171 -0.7236 -0.0087  0.2839
64325SOL    HW197786   6.771   5.887   0.160 -0.5868  0.4121  0.0927
64325SOL    HW297787   6.859   5.786   0.229 -1.3043 -0.8738 -0.8402
64326SOL     OW97788   8.852   0.982   8.697  0.9098  0.4958 -0.2413
64326SOL    HW197789   8.853   0.978   8.793 -2.2136 -1.8611 -0.1686
64326SOL    HW297790   8.825   1.072   8.677 -1.3763  0.2273  1.2747
64327SOL     OW97791   6.258   0.077   1.615 -0.8005  0.0726  0.1662
64327SOL    HW197792   6.229   0.052   1.527 -2.2661 -0.0036  0.6477
64327SOL    HW297793   6.354   0.072   1.610 -0.8911 -1.9783 -0.8282
64328SOL     OW97794   9.131   2.917  11.350  0.3926  0.5535 -0.0213
64328SOL    HW197795   9.151   2.918  11.257 -0.4997 -1.0447 -0.2687
64328SOL    HW297796   9.048   2.869  11.357  0.2680  0.9190  1.5682
64329SOL     OW97797   7.132   4.359  11.670 -0.3655 -0.3581 -0.6535
64329SOL    HW197798   7.040   4.374  11.691  0.0675 -1.0510  2.0546
64329SOL    HW297799   7.153   4.430  11.609 -2.2809  0.8110 -0.0749
64330SOL     OW97800  10.155   2.284   8.049 -0.5245  0.3226 -0.6331
64330SOL    HW197801  10.146   2.250   7.960 -1.4755  2.0162 -1.2329
64330SOL    HW297802  10.069   2.271   8.088 -1.0189  2.1856 -0.9849
64331SOL     OW97803   5.699   7.519   9.289 -0.4630 -0.1906 -0.4577
64331SOL    HW197804   5.712   7.474   9.372 -0.9108 -0.9478 -0.7921
64331SOL    HW297805   5.710   7.451   9.222  0.2128  0.4721 -1.0370
64332SOL     OW97806  12.516  10.152   9.462 -0.0765 -0.4688  0.3054
64332SOL    HW197807  12.433  10.106   9.461 -0.2465 -0.2477  1.6438
64332SOL    HW297808  12.575  10.094   9.510 -0.7044  1.2415  3.4418
64333SOL     OW97809   4.873   7.287   9.675  0.4374  0.6801 -0.0988
64333SOL    HW197810   4.839   7.361   9.624 -0.4965  0.3443  0.0137
64333SOL    HW297811   4.967   7.286   9.657  0.0247  0.0542 -2.4870
64334SOL     OW97812   7.186   4.096   3.891  0.5556  0.4592  0.0620
64334SOL    HW197813   7.144   4.169   3.935  0.5871  0.6932 -0.2871
64334SOL    HW297814   7.265   4.133   3.852  0.4696  0.2916 -0.2861
64335SOL     OW97815   8.715  11.389   9.641 -0.6645  0.1534 -0.4989
64335SOL    HW197816   8.632  11.356   9.607 -0.4837  0.1549 -0.9392
64335SOL    HW297817   8.748  11.448   9.573 -0.7282  0.8422  0.0510
64336SOL     OW97818   9.522   3.650   8.704 -0.4380 -0.5222 -0.6077
64336SOL    HW197819   9.610   3.671   8.736 -0.6517  0.0910 -0.4117
64336SOL    HW297820   9.476   3.733   8.705 -1.3345 -1.0091  0.2440
64337SOL     OW97821  11.878   5.041  12.450 -0.5461  0.5568 -0.1830
64337SOL    HW197822  11.953   5.080  12.496 -0.3369 -0.2557  0.1844
64337SOL    HW297823  11.831   4.992  12.518 -2.1829  2.1340 -0.1166
64338SOL     OW97824  10.353  10.205   3.358 -0.5347 -0.5396 -0.3951
64338SOL    HW197825  10.413  10.177   3.289 -1.7404 -0.7516 -1.3880
64338SOL    HW297826  10.354  10.301   3.352  0.2923 -0.5066  0.1240
64339SOL     OW97827   7.162   4.573   3.080  0.4866 -0.0464  0.1960
64339SOL    HW197828   7.168   4.538   3.169 -0.8455 -0.8379  0.0043
64339SOL    HW297829   7.088   4.634   3.085  0.2145 -0.3232 -0.4325
64340SOL     OW97830   3.486  10.790   0.523 -0.2775 -0.0215  0.2007
64340SOL    HW197831   3.512  10.846   0.596 -3.0813  1.4965  0.1611
64340SOL    HW297832   3.430  10.846   0.469 -0.7011 -1.9887 -1.5270
64341SOL     OW97833   1.883   1.688   3.909 -0.5326 -0.2810  0.0128
64341SOL    HW197834   1.978   1.683   3.900 -0.3790 -0.9725  1.6204
64341SOL    HW297835   1.852   1.600   3.885 -0.5016 -0.8046  1.7076
64342SOL     OW97836   1.978   7.799   1.084  0.0493  0.9112 -0.0452
64342SOL    HW197837   1.928   7.814   1.165 -1.1158  1.3216 -0.8093
64342SOL    HW297838   1.915   7.757   1.025  0.2987  2.3587 -1.3874
64343SOL     OW97839  10.649  10.057   2.616  0.1265 -0.0969 -0.2836
64343SOL    HW197840  10.661  10.135   2.561  1.1350 -0.6948 -0.9544
64343SOL    HW297841  10.718  10.063   2.681  0.3052 -0.5024 -0.4337
64344SOL     OW97842   1.626   3.849  10.653  0.0990  0.3224  0.0184
64344SOL    HW197843   1.589   3.875  10.738  1.0398  0.5859  0.3569
64344SOL    HW297844   1.720   3.841  10.669  0.2524  0.1046 -0.9360
64345SOL     OW97845  12.354   0.488   5.600 -0.6316 -0.2407  0.4405
64345SOL    HW197846  12.317   0.534   5.525  0.6887  2.5758  1.3566
64345SOL    HW297847  12.281   0.480   5.662 -0.7080  1.6296  0.6507
64346SOL     OW97848  11.414  10.698   3.161 -0.6208  0.4270  0.7149
64346SOL    HW197849  11.481  10.718   3.096  1.4683 -0.4018  2.4950
64346SOL    HW297850  11.417  10.603   3.171 -2.6362  0.2712  0.3148
64347SOL     OW97851   9.850   2.257   0.251  0.3478 -0.2564 -0.0366
64347SOL    HW197852   9.891   2.302   0.324  2.0325  2.7339 -2.5532
64347SOL    HW297853   9.918   2.198   0.218  0.8275  0.7732 -0.9964
64348SOL     OW97854  10.809   4.897   4.328  0.0029 -0.8752 -0.4941
64348SOL    HW197855  10.872   4.882   4.399 -0.6959  2.2636  0.9502
64348SOL    HW297856  10.863   4.910   4.251  1.3486  2.1011  0.7760
64349SOL     OW97857  12.564   5.831   2.419  0.6330  0.6835 -1.0369
64349SOL    HW197858  12.646   5.818   2.371  0.9563 -0.3707 -0.2318
64349SOL    HW297859  12.526   5.744   2.425  1.2427  0.5219  1.7124
64350SOL     OW97860   8.151   1.651   8.688 -0.1191  0.0127  0.3127
64350SOL    HW197861   8.080   1.596   8.657 -0.3120 -0.1178  0.9584
64350SOL    HW297862   8.214   1.589   8.725  1.7838 -0.1792 -2.8817
64351SOL     OW97863   5.122   4.165   2.141 -0.0446 -0.6688  0.2647
64351SOL    HW197864   5.153   4.232   2.081 -0.6839  0.5929  1.2951
64351SOL    HW297865   5.174   4.178   2.221 -0.6051 -0.9785  0.6910
64352SOL     OW97866   6.231  10.591   7.186  0.2061  0.3525  0.9733
64352SOL    HW197867   6.217  10.686   7.182 -0.4716  0.2924  1.7086
64352SOL    HW297868   6.324  10.580   7.167  0.0784  1.0816 -0.1457
64353SOL     OW97869   9.026   8.899   1.365  0.6107  0.2932  0.5731
64353SOL    HW197870   8.992   8.988   1.372 -0.0054  0.1369 -0.1786
64353SOL    HW297871   8.950   8.844   1.382  0.6493 -0.0730 -0.3623
64354SOL     OW97872  12.481   3.502   6.562 -0.6829 -0.4678  0.4050
64354SOL    HW197873  12.486   3.483   6.468  1.0606  0.5906  0.2440
64354SOL    HW297874  12.423   3.434   6.597  0.1609 -2.0646 -1.1238
64355SOL     OW97875   8.816   4.049   7.329 -0.2882  0.0866 -0.0629
64355SOL    HW197876   8.812   4.051   7.424 -1.7004  0.4229 -0.1095
64355SOL    HW297877   8.731   4.015   7.302 -0.5889  1.6468 -1.2428
64356SOL     OW97878  12.528   2.425   3.899 -0.2079 -0.2410  0.0495
64356SOL    HW197879  12.433   2.426   3.905 -0.3078 -0.6206 -1.1952
64356SOL    HW297880  12.555   2.365   3.968 -1.0105 -1.6853 -0.8444
64357SOL     OW97881   0.414  10.581   2.767 -0.6261  0.2061  0.1098
64357SOL    HW197882   0.379  10.668   2.783  0.8450  0.9391 -0.5027
64357SOL    HW297883   0.507  10.588   2.789 -0.2101 -0.8404 -1.1750
64358SOL     OW97884  12.293   0.609   1.434 -0.3604  0.1072 -0.5044
64358SOL    HW197885  12.262   0.560   1.358  1.2507  0.0911 -1.1783
64358SOL    HW297886  12.237   0.687   1.437  0.0837  0.5224 -2.2136
64359SOL     OW97887   1.321   2.949   2.826 -0.5159 -0.0553 -0.5333
64359SOL    HW197888   1.298   2.904   2.744 -1.1698 -3.2114  1.2321
64359SOL    HW297889   1.389   3.011   2.800  0.8082 -2.3811 -3.1725
64360SOL     OW97890   6.146   7.687   4.139  0.2086  0.2043 -0.6409
64360SOL    HW197891   6.092   7.748   4.190  0.9819  0.6225 -0.3165
64360SOL    HW297892   6.163   7.614   4.198 -0.8566 -0.4367 -1.0820
64361SOL     OW97893  11.948   3.653   2.858 -0.0754 -0.0470 -0.2867
64361SOL    HW197894  11.903   3.595   2.796 -0.0924  0.1375 -0.4484
64361SOL    HW297895  12.023   3.602   2.889 -0.3498 -0.3257 -0.0771
64362SOL     OW97896   5.425  10.739  10.297 -0.2702 -0.1528 -0.2842
64362SOL    HW197897   5.421  10.754  10.391  0.7139  0.7571 -0.3585
64362SOL    HW297898   5.518  10.730  10.278 -0.2163  2.0115 -1.4606
64363SOL     OW97899  10.810   2.934  10.607  0.3630 -0.2185  0.2654
64363SOL    HW197900  10.780   3.024  10.593  1.0376  0.3644  2.2504
64363SOL    HW297901  10.877   2.920  10.539  0.0435  0.6655 -0.2422
64364SOL     OW97902   5.548   2.905   7.354 -0.4830 -0.1536  0.3472
64364SOL    HW197903   5.638   2.881   7.376 -0.8219 -0.1174  1.8529
64364SOL    HW297904   5.529   2.854   7.275  1.2235  0.7078 -0.6770
64365SOL     OW97905   5.128   9.435   3.943  0.6229 -0.3008 -0.0334
64365SOL    HW197906   5.172   9.479   3.870 -0.3019 -0.9193 -0.9942
64365SOL    HW297907   5.195   9.431   4.012  1.6251  0.0107 -0.9488
64366SOL     OW97908   6.765  10.157   5.206 -0.4109 -0.0744  0.1124
64366SOL    HW197909   6.800  10.214   5.138  0.9905 -0.7923  0.1814
64366SOL    HW297910   6.831  10.088   5.216 -2.1847 -1.9150 -0.2081
64367SOL     OW97911   4.935  10.635   9.056 -0.1824  0.3242  0.3593
64367SOL    HW197912   4.962  10.545   9.073 -3.2449 -0.6960  0.4643
64367SOL    HW297913   4.960  10.650   8.964 -1.7863 -1.6020 -0.4799
64368SOL     OW97914   8.074   5.593  10.192 -0.1910  0.2338 -0.3859
64368SOL    HW197915   8.055   5.672  10.243  0.4523 -0.2762  0.6554
64368SOL    HW297916   8.016   5.526  10.229  1.5258 -0.5944  0.8934
64369SOL     OW97917   0.131   0.708   8.054 -0.0076  0.5579 -0.2852
64369SOL    HW197918   0.165   0.714   7.965  0.9939 -1.3790 -0.0904
64369SOL    HW297919   0.201   0.743   8.110  0.6807 -1.0619 -0.0757
64370SOL     OW97920   2.088  11.168   6.929 -0.2225 -0.0720 -0.1236
64370SOL    HW197921   2.062  11.161   6.838 -1.8287 -0.6691  0.3537
64370SOL    HW297922   2.121  11.081   6.951  0.8220  0.2617 -0.3010
64371SOL     OW97923   7.183   6.928   1.975  0.0863 -0.0527  0.5011
64371SOL    HW197924   7.165   7.020   1.994  0.1868  0.0621  0.0682
64371SOL    HW297925   7.101   6.895   1.938  0.5516  0.3296 -0.9684
64372SOL     OW97926   8.107  12.420   2.615 -0.7609 -0.2016 -0.2572
64372SOL    HW197927   8.071  12.505   2.641 -1.7392 -0.6447 -0.1044
64372SOL    HW297928   8.085  12.362   2.688 -0.0673 -0.5780 -0.3452
64373SOL     OW97929   4.944   4.955   8.643  0.3237 -0.7467  0.4889
64373SOL    HW197930   4.975   4.985   8.729 -1.8430 -1.5040  1.6222
64373SOL    HW297931   5.013   4.898   8.611  2.0151  1.0009  0.8493
64374SOL     OW97932   0.821   7.251   6.170  0.1437  0.2900  0.8635
64374SOL    HW197933   0.775   7.219   6.248 -1.3632 -1.0048 -0.4997
64374SOL    HW297934   0.826   7.176   6.112 -3.8350  2.3517 -2.6339
64375SOL     OW97935   7.832  11.470   2.617 -0.0553  0.0818 -0.0217
64375SOL    HW197936   7.926  11.483   2.635 -0.2050  0.2140  0.6975
64375SOL    HW297937   7.823  11.376   2.605  0.2357  0.1107 -0.5261
64376SOL     OW97938  12.076   0.619   3.033  0.3931  0.1651 -0.5632
64376SOL    HW197939  12.063   0.683   2.963 -0.2094  1.3477  0.5774
64376SOL    HW297940  11.987   0.594   3.059  0.4792  1.6567  1.4213
64377SOL     OW97941  10.374   8.530   4.883  0.3103  0.0377  0.3677
64377SOL    HW197942  10.287   8.558   4.913  1.6786  1.2356  3.6554
64377SOL    HW297943  10.434   8.595   4.921  2.5073  2.0860 -5.4322
64378SOL     OW97944   0.159   6.196   4.721 -0.2818 -0.7456  0.1941
64378SOL    HW197945   0.201   6.167   4.802  2.5759  1.8993 -0.1426
64378SOL    HW297946   0.066   6.199   4.742  0.1648 -1.9539  2.7528
64379SOL     OW97947   2.129   6.928   9.962  0.1864 -0.3348  0.4616
64379SOL    HW197948   2.123   6.846   9.914 -2.6164 -0.0933  0.2275
64379SOL    HW297949   2.115   6.903  10.053  0.1062 -0.2053  0.4849
64380SOL     OW97950   7.152   8.749   8.237  0.1001 -0.3977  0.4375
64380SOL    HW197951   7.237   8.784   8.209 -0.4364  0.5090 -0.1063
64380SOL    HW297952   7.174   8.674   8.292  1.2537 -0.1234  0.3755
64381SOL     OW97953   1.067   2.637   3.941 -1.0242  0.1007  0.1936
64381SOL    HW197954   0.999   2.636   3.873 -1.1571  0.8616  0.3096
64381SOL    HW297955   1.035   2.576   4.007 -2.2968  1.4661  0.9076
64382SOL     OW97956   6.447   5.003   9.945 -0.5353 -0.0960  0.1953
64382SOL    HW197957   6.365   4.954   9.940 -1.4790  1.3081  1.0844
64382SOL    HW297958   6.438   5.071   9.877 -0.6795  0.8304  1.1173
64383SOL     OW97959   2.642   9.174   3.308  0.3880  0.1584  0.0422
64383SOL    HW197960   2.638   9.211   3.396  0.7273  0.9800 -0.2792
64383SOL    HW297961   2.550   9.155   3.287  0.4342 -1.4998  1.1530
64384SOL     OW97962   9.964   2.730   2.065 -0.6592  0.5467 -0.6462
64384SOL    HW197963   9.939   2.821   2.056  1.8157  1.5000  0.9276
64384SOL    HW297964  10.056   2.728   2.037 -0.2014 -1.1163  0.8209
64385SOL     OW97965  11.972  10.999   9.541 -0.5168  0.4775  0.2618
64385SOL    HW197966  11.993  10.915   9.501 -0.3527  0.3554  0.6017
64385SOL    HW297967  11.878  10.993   9.559 -0.7488  0.8163 -0.7640
64386SOL     OW97968   7.312   5.176   6.626 -0.5206  0.3787  0.1362
64386SOL    HW197969   7.322   5.082   6.641 -0.2371  0.5512  1.1042
64386SOL    HW297970   7.218   5.189   6.621 -0.5919  0.1329  0.6908
64387SOL     OW97971   1.748   3.074   2.328  0.2079 -0.1743  0.3567
64387SOL    HW197972   1.660   3.072   2.365 -0.3735 -1.2961 -0.9816
64387SOL    HW297973   1.801   3.119   2.394 -1.4330  0.8926  1.0145
64388SOL     OW97974   6.013   9.582   7.166 -0.1768  0.0643  0.3389
64388SOL    HW197975   6.040   9.503   7.118 -1.6817 -1.3193  1.6460
64388SOL    HW297976   6.035   9.563   7.257  0.4971  1.6710  0.5426
64389SOL     OW97977   1.868   3.032   3.045  0.3423 -0.3745  0.5088
64389SOL    HW197978   1.946   3.002   2.999  0.0127 -1.1275  0.4384
64389SOL    HW297979   1.902   3.091   3.113  0.9416 -0.4317  0.2655
64390SOL     OW97980   7.736   8.864   9.744 -0.4202  0.1945  0.1526
64390SOL    HW197981   7.750   8.777   9.707  1.8689  0.0904  1.1123
64390SOL    HW297982   7.678   8.850   9.818 -3.0015  0.0656 -1.7401
64391SOL     OW97983   8.477   2.081   7.648 -0.3481  0.2186  0.1495
64391SOL    HW197984   8.423   2.114   7.575  0.1737  2.0646  0.5447
64391SOL    HW297985   8.547   2.032   7.605 -0.6284  0.4117 -0.5439
64392SOL     OW97986   1.831   8.224   3.917  0.2969 -0.2396 -0.0000
64392SOL    HW197987   1.889   8.250   3.846 -1.1140  0.0062 -1.1166
64392SOL    HW297988   1.762   8.173   3.873 -0.0324 -0.9999  1.3530
64393SOL     OW97989   8.323   4.084   7.311  0.3111 -0.0949  0.2873
64393SOL    HW197990   8.344   4.164   7.262  0.8892  0.5261  1.5066
64393SOL    HW297991   8.260   4.113   7.378 -2.3137 -1.3608 -1.4292
64394SOL     OW97992   8.833  11.803   7.251  0.3244  0.0370 -0.4550
64394SOL    HW197993   8.783  11.885   7.244 -0.5286 -0.4246 -0.0051
64394SOL    HW297994   8.923  11.830   7.264 -0.3447  1.0000  3.0371
64395SOL     OW97995   8.896   8.128   2.726 -0.0140 -0.0787 -0.0549
64395SOL    HW197996   8.816   8.180   2.737 -0.9377 -0.8518 -2.5514
64395SOL    HW297997   8.953   8.181   2.671  0.3666 -0.3929  0.0287
64396SOL     OW97998   2.767  11.843   6.279  0.2882  0.8654  0.0262
64396SOL    HW197999   2.854  11.821   6.312 -0.6283  0.6871  2.4913
64396SOL    HW298000   2.752  11.932   6.309 -1.5951 -0.1840  2.5689
64397SOL     OW98001  12.286   1.793   5.082  0.1293  0.2025  1.1251
64397SOL    HW198002  12.199   1.786   5.043  0.3087 -0.7149  0.8623
64397SOL    HW298003  12.344   1.752   5.019  0.7147  0.5220  1.4453
64398SOL     OW98004   8.314   4.404   2.477  0.8299 -0.2239  0.7719
64398SOL    HW198005   8.323   4.453   2.395  2.8019 -1.1644  0.3660
64398SOL    HW298006   8.384   4.436   2.532  1.9502 -2.2508  0.6294
64399SOL     OW98007   6.572   7.586   0.781  0.1621 -0.0722  0.0963
64399SOL    HW198008   6.487   7.584   0.738  0.6991  0.9944 -1.0555
64399SOL    HW298009   6.635   7.569   0.711  0.8714 -2.0626  1.1237
64400SOL     OW98010   4.456   9.883   1.981  0.1941  0.5648  0.4968
64400SOL    HW198011   4.447   9.953   2.046 -6.0011  0.2306  0.6486
64400SOL    HW298012   4.464   9.928   1.897 -0.3027  1.3654  0.8663
64401SOL     OW98013  11.113   5.905   2.590  0.1965  0.1554 -0.0231
64401SOL    HW198014  11.100   5.811   2.584  0.8034  0.0058  0.8033
64401SOL    HW298015  11.059   5.932   2.665 -1.8998  0.8734 -1.6987
64402SOL     OW98016   0.031   2.184   8.109  0.5474 -0.4934 -0.3794
64402SOL    HW198017   0.111   2.172   8.058  1.2038 -1.7335  0.8673
64402SOL    HW298018   0.012   2.098   8.146  0.8875  0.5529  2.5141
64403SOL     OW98019   2.808   5.208   4.313  0.0916  0.1276  0.6434
64403SOL    HW198020   2.809   5.125   4.361  2.3743 -0.2530  0.0743
64403SOL    HW298021   2.777   5.272   4.377  0.2038 -0.8362  1.7079
64404SOL     OW98022   3.839   2.010   3.178  0.0050  0.4949  0.3540
64404SOL    HW198023   3.832   2.005   3.082 -3.3274 -0.7288  0.5230
64404SOL    HW298024   3.779   2.080   3.202  0.1798  0.2363  1.5884
64405SOL     OW98025   5.437  11.711   7.247 -0.0589 -0.1229 -0.1403
64405SOL    HW198026   5.397  11.662   7.319 -0.8039 -0.4134 -0.7466
64405SOL    HW298027   5.368  11.718   7.181  0.7058 -0.1276 -0.9604
64406SOL     OW98028   1.690   3.242  10.411  0.6824 -0.0756  0.0676
64406SOL    HW198029   1.713   3.214  10.323  1.7511  1.0057 -0.0204
64406SOL    HW298030   1.757   3.306  10.434  0.3515 -0.2493  1.6226
64407SOL     OW98031   1.324   6.251   3.202 -0.3020  0.4401 -0.6044
64407SOL    HW198032   1.318   6.315   3.132 -1.5794  0.1817 -0.7425
64407SOL    HW298033   1.242   6.202   3.198  0.4787 -0.9594 -0.2640
64408SOL     OW98034  10.509   5.483   9.363 -0.3820 -0.0190 -0.1577
64408SOL    HW198035  10.536   5.508   9.275 -0.3586  0.0095 -0.1427
64408SOL    HW298036  10.418   5.510   9.369 -0.4368 -0.1855 -0.2354
64409SOL     OW98037   3.401   3.808   8.027 -0.6095  0.4499  0.0812
64409SOL    HW198038   3.393   3.758   8.109 -1.9743  1.3965  0.5447
64409SOL    HW298039   3.320   3.790   7.980 -0.4599  1.0497 -0.4152
64410SOL     OW98040   4.646   5.051  10.165 -0.0782  0.5896 -0.2151
64410SOL    HW198041   4.552   5.063  10.170 -0.0593  0.6328  0.0618
64410SOL    HW298042   4.667   5.058  10.072  0.0957  3.9276 -0.0172
64411SOL     OW98043  11.251  11.283   7.861 -0.2827 -0.1516  0.2974
64411SOL    HW198044  11.309  11.252   7.791  1.1084  0.1525  1.2667
64411SOL    HW298045  11.170  11.307   7.817  0.3251 -0.6127 -1.1114
64412SOL     OW98046  12.043   9.017   7.092 -0.1193  0.2826 -0.5688
64412SOL    HW198047  12.045   9.007   7.187 -1.8260 -1.0016 -0.6316
64412SOL    HW298048  12.135   9.032   7.068  0.5140 -0.5216  1.1688
64413SOL     OW98049   7.307   3.340   7.785 -0.0389  0.1269 -0.5472
64413SOL    HW198050   7.281   3.283   7.712  1.0275 -1.6012  0.3386
64413SOL    HW298051   7.368   3.286   7.836 -1.2258  1.0342  1.9937
64414SOL     OW98052  12.404   6.748  10.053  0.5859 -0.3788  0.5510
64414SOL    HW198053  12.456   6.714   9.981  0.1417  1.0518 -0.4822
64414SOL    HW298054  12.317   6.712  10.039  0.9715 -1.8664  1.6529
64415SOL     OW98055  10.886   8.057   2.299  0.3534  0.2172 -0.5241
64415SOL    HW198056  10.908   7.981   2.352  1.2935 -0.2737 -1.5851
64415SOL    HW298057  10.956   8.120   2.316  1.5981 -0.5692 -2.3608
64416SOL     OW98058   5.736   5.995   7.315 -0.7172  0.7029 -0.0931
64416SOL    HW198059   5.764   6.083   7.339 -0.3154  0.2547  1.1796
64416SOL    HW298060   5.665   5.975   7.376  0.6116 -0.6331  1.1185
64417SOL     OW98061  12.508   9.927  10.710  0.2866  0.6373  0.4693
64417SOL    HW198062  12.422   9.935  10.750 -0.7305 -0.4852 -1.3535
64417SOL    HW298063  12.528  10.016  10.680 -0.9070  0.6622 -0.3287
64418SOL     OW98064   7.740   2.820   7.683  0.4239 -0.1443  0.5832
64418SOL    HW198065   7.662   2.771   7.711  0.4074 -0.9082 -0.6742
64418SOL    HW298066   7.804   2.807   7.753  0.7996 -2.9408 -0.1560
64419SOL     OW98067   7.522   3.540   2.161  0.5022  0.3146  0.2051
64419SOL    HW198068   7.542   3.597   2.086  0.5396 -0.7649 -0.6243
64419SOL    HW298069   7.581   3.571   2.230 -0.0672  1.8233  0.0627
64420SOL     OW98070   1.449   3.434  10.717  0.1727 -0.1573  0.2157
64420SOL    HW198071   1.414   3.378  10.647 -1.4237  1.1940 -0.1202
64420SOL    HW298072   1.453   3.521  10.679  1.6606  0.1928  1.0598
64421SOL     OW98073  11.543   5.036   4.917  0.4282  0.5747 -0.1708
64421SOL    HW198074  11.502   4.954   4.946  0.7085  0.7346  0.7021
64421SOL    HW298075  11.636   5.022   4.930  0.7252  0.1732 -2.2635
64422SOL     OW98076   9.382  12.488   7.503 -0.3806 -0.1687  0.1629
64422SOL    HW198077   9.337  12.507   7.421 -0.9135 -0.1282  0.4665
64422SOL    HW298078   9.431  12.568   7.522  2.3230 -1.2107 -1.7542
64423SOL     OW98079  11.339   4.915   6.312 -0.1373 -0.0422  0.1649
64423SOL    HW198080  11.364   4.841   6.256 -1.2359 -0.1500 -0.2120
64423SOL    HW298081  11.271   4.878   6.370 -0.7437  0.6798 -0.0725
64424SOL     OW98082   6.645   6.840   5.977 -0.1609 -0.2564 -0.2780
64424SOL    HW198083   6.661   6.833   5.883 -0.5951  0.1244 -0.3827
64424SOL    HW298084   6.701   6.912   6.005  0.3949 -0.7352 -0.1385
64425SOL     OW98085  10.326   6.116   5.704  0.3185  0.1943  0.1935
64425SOL    HW198086  10.243   6.076   5.679  0.4606  0.2031 -0.3081
64425SOL    HW298087  10.343   6.083   5.792  0.3432 -0.7056 -0.1379
64426SOL     OW98088   1.865   9.968   2.641  0.2940 -0.2721  0.0700
64426SOL    HW198089   1.851  10.061   2.621  2.9312  0.5001  1.2751
64426SOL    HW298090   1.815   9.953   2.721 -1.6235 -0.4684 -1.0947
64427SOL     OW98091   7.315   9.511   7.480 -0.3489 -0.2602  0.3224
64427SOL    HW198092   7.386   9.450   7.500 -0.7212 -0.7791  0.0989
64427SOL    HW298093   7.336   9.544   7.393 -0.4244 -0.4760  0.2226
64428SOL     OW98094   4.672   0.880   8.441 -0.1386  0.3083 -0.0301
64428SOL    HW198095   4.644   0.937   8.369 -0.3082  1.5773  0.9949
64428SOL    HW298096   4.763   0.906   8.457 -0.7694  1.6644  1.6540
64429SOL     OW98097   6.725   4.586  12.345 -0.0427  0.1969  0.5823
64429SOL    HW198098   6.817   4.560  12.348 -0.1938 -0.3404  0.6531
64429SOL    HW298099   6.682   4.518  12.293 -0.3109  0.7335  0.0922
64430SOL     OW98100   7.960   8.477   5.835  0.0524  0.6847  0.3959
64430SOL    HW198101   7.926   8.559   5.801  0.2345 -0.1131 -1.9188
64430SOL    HW298102   8.015   8.502   5.909  2.3345  3.0062 -1.8606
64431SOL     OW98103   3.326   8.630  10.843  0.0544  0.9362  0.5659
64431SOL    HW198104   3.359   8.651  10.755 -0.6757  1.4080  0.3940
64431SOL    HW298105   3.358   8.701  10.898  1.9620 -0.2436  1.0552
64432SOL     OW98106  11.871   3.690  11.671  0.4524  0.0038  0.2877
64432SOL    HW198107  11.828   3.618  11.716  0.9616 -0.6525 -0.2590
64432SOL    HW298108  11.920   3.649  11.600  1.6325  0.7597  0.6199
64433SOL     OW98109   1.693  12.620   1.202  0.0570  0.9799  0.1810
64433SOL    HW198110   1.743  12.673   1.263 -0.8582  0.6601  1.2365
64433SOL    HW298111   1.702  12.665   1.118 -0.3767  2.5998  0.9623
64434SOL     OW98112   4.545   4.100   5.616  0.4186  0.0114 -0.3164
64434SOL    HW198113   4.572   4.034   5.552  2.3627 -0.4442  0.8768
64434SOL    HW298114   4.531   4.050   5.696  0.1059  0.8305  0.1444
64435SOL     OW98115   0.631   0.722  11.630  0.2482  0.1502  0.1447
64435SOL    HW198116   0.657   0.760  11.715  0.5816 -0.7307  0.4492
64435SOL    HW298117   0.543   0.688  11.645 -0.1558  1.0084 -0.2041
64436SOL     OW98118  10.708   7.173   8.037 -0.6528 -0.4973 -0.6516
64436SOL    HW198119  10.742   7.252   8.080  0.3132 -1.0006 -0.4749
64436SOL    HW298120  10.615   7.172   8.060 -0.1497 -0.8453  1.6029
64437SOL     OW98121   8.478  11.230   4.912 -0.1986 -0.2341  0.7936
64437SOL    HW198122   8.559  11.242   4.862  0.0585  0.1435  1.2896
64437SOL    HW298123   8.463  11.136   4.910 -0.6936 -0.1527 -0.7684
64438SOL     OW98124   2.262   2.887   3.088 -0.0199  0.1857 -0.5230
64438SOL    HW198125   2.239   2.963   3.034  0.7353  0.3238 -0.6680
64438SOL    HW298126   2.319   2.923   3.156  0.0038 -0.1826 -0.3501
64439SOL     OW98127  11.228   7.314   9.284  0.3317 -0.2480 -0.1434
64439SOL    HW198128  11.262   7.249   9.223  0.9046 -1.2435  1.1782
64439SOL    HW298129  11.196   7.263   9.358  1.7445  0.9577  1.3947
64440SOL     OW98130   4.430   5.225   2.974 -0.0568 -0.4671  0.3970
64440SOL    HW198131   4.381   5.270   3.044 -1.1185 -0.2330 -0.4585
64440SOL    HW298132   4.371   5.229   2.898  0.6065 -1.6908 -0.2102
64441SOL     OW98133   7.847  10.325   7.801  0.0337 -0.1354  0.4289
64441SOL    HW198134   7.939  10.302   7.789  0.2667 -0.1492  2.0803
64441SOL    HW298135   7.824  10.371   7.720  1.7723  0.7547  0.3756
64442SOL     OW98136   8.490  11.128  11.464  0.6407 -0.0059  0.1526
64442SOL    HW198137   8.534  11.203  11.503  3.5370 -0.2442 -2.2695
64442SOL    HW298138   8.427  11.167  11.403  1.5153  0.4986 -0.4555
64443SOL     OW98139   9.515   5.919  10.355 -0.3921  0.1109  0.5251
64443SOL    HW198140   9.452   5.882  10.417 -0.6677 -1.3042 -0.5543
64443SOL    HW298141   9.503   5.868  10.275  0.6709  1.2152 -0.3796
64444SOL     OW98142   0.907   3.320   9.789 -0.2968 -0.3947 -0.1502
64444SOL    HW198143   0.987   3.324   9.736  0.9643  0.9915  1.7359
64444SOL    HW298144   0.899   3.227   9.811  2.1743 -0.3214  1.4912
64445SOL     OW98145  12.636   4.838   8.592 -0.1004 -0.0100  0.3155
64445SOL    HW198146  12.571   4.880   8.648  0.5753  1.3806  0.1088
64445SOL    HW298147  12.719   4.851   8.638  0.3531  0.4288 -0.6052
64446SOL     OW98148   0.965   2.308   9.749  0.5609  0.4822 -0.5563
64446SOL    HW198149   0.966   2.251   9.825  0.9883  0.2216 -0.7507
64446SOL    HW298150   0.890   2.366   9.762 -0.6729 -0.9770 -0.9963
64447SOL     OW98151   3.190   4.697  12.412  0.1688 -0.4708 -0.0614
64447SOL    HW198152   3.181   4.698  12.317  0.4292  0.9418 -0.0972
64447SOL    HW298153   3.121   4.637  12.442 -0.5785 -0.1537 -1.0783
64448SOL     OW98154   4.577   0.860  11.703 -0.2031  0.2433  0.0748
64448SOL    HW198155   4.553   0.865  11.610  1.5548 -2.6503 -0.6855
64448SOL    HW298156   4.512   0.800  11.741 -0.0261  0.2175  0.3376
64449SOL     OW98157   1.596   5.812   2.661  0.0024 -0.6031 -0.0342
64449SOL    HW198158   1.574   5.750   2.730 -0.6734  0.7618  1.0217
64449SOL    HW298159   1.676   5.776   2.621  0.2160 -1.5969  1.2328
64450SOL     OW98160   8.753   5.539  10.861 -0.2132  0.1230 -0.7152
64450SOL    HW198161   8.727   5.624  10.827 -1.3265  0.1419  0.1383
64450SOL    HW298162   8.837   5.556  10.905 -0.4176  0.7719 -0.5675
64451SOL     OW98163   9.631  11.706   0.012 -0.3456 -0.1630  0.0490
64451SOL    HW198164   9.541  11.738   0.008 -0.5650 -0.7645  0.1045
64451SOL    HW298165   9.677  11.755  -0.056 -0.5365  0.6846  0.5119
64452SOL     OW98166   7.939   0.557   7.067  0.1856  0.0063  0.0540
64452SOL    HW198167   7.884   0.498   7.016  0.9770  1.0438 -2.1320
64452SOL    HW298168   8.020   0.508   7.080  0.2489 -0.0013 -0.3440
64453SOL     OW98169   7.418   8.708   8.775  0.1034 -0.3934 -0.5119
64453SOL    HW198170   7.451   8.793   8.805  1.0081 -1.0322  0.3423
64453SOL    HW298171   7.402   8.721   8.681 -1.0427  1.1005 -0.1462
64454SOL     OW98172   2.106   0.074   8.519 -0.1364  0.0093 -0.2021
64454SOL    HW198173   2.013   0.070   8.495 -0.5299  1.3132  0.9690
64454SOL    HW298174   2.128  -0.015   8.545 -0.8144 -0.5042 -1.3052
64455SOL     OW98175   7.287   9.801   0.269 -0.0436  0.4738  0.0191
64455SOL    HW198176   7.278   9.848   0.186 -0.0069  1.0361  0.3246
64455SOL    HW298177   7.218   9.735   0.266  0.0281  0.4156 -0.5038
64456SOL     OW98178   8.034   7.346  10.563  0.0395 -0.7707  0.1331
64456SOL    HW198179   7.971   7.409  10.527  0.7229 -0.4447 -0.5351
64456SOL    HW298180   8.067   7.388  10.642 -1.7533 -1.6554  1.4246
64457SOL     OW98181  11.942   4.170  10.142  0.2611  0.6408  0.1815
64457SOL    HW198182  11.903   4.100  10.090 -0.8545  0.9086  0.6233
64457SOL    HW298183  12.025   4.134  10.172  0.6273  0.2459 -1.2319
64458SOL     OW98184  12.366   7.945   7.027 -0.1861 -0.3745  0.1890
64458SOL    HW198185  12.404   7.899   7.102 -0.3518  0.7489  0.9821
64458SOL    HW298186  12.291   7.992   7.062  0.1301  0.7182 -0.5247
64459SOL     OW98187   7.401  12.120   1.629  0.3504  0.8365 -0.0192
64459SOL    HW198188   7.418  12.091   1.718  0.0866  1.4848  0.2505
64459SOL    HW298189   7.352  12.202   1.639  0.8097  1.2150 -0.7553
64460SOL     OW98190   2.367   5.889   2.536 -0.1873  0.2773 -0.2651
64460SOL    HW198191   2.391   5.894   2.443  1.3289  0.0567  0.0895
64460SOL    HW298192   2.445   5.853   2.579 -1.2616 -0.7107  0.9472
64461SOL     OW98193   8.770   5.295   6.027 -0.5698  0.5386 -0.3715
64461SOL    HW198194   8.694   5.259   5.982 -0.1169 -0.0221 -0.7052
64461SOL    HW298195   8.837   5.301   5.959 -0.3285  1.0673 -0.0891
64462SOL     OW98196   5.782   7.646   3.881 -0.0989 -0.2740 -0.4697
64462SOL    HW198197   5.818   7.576   3.935 -4.9178 -1.1894  2.1916
64462SOL    HW298198   5.763   7.605   3.797 -1.6527 -1.9838  0.6290
64463SOL     OW98199   8.085   9.609   1.820 -0.4008  0.4167 -0.1466
64463SOL    HW198200   8.047   9.541   1.877 -0.1136  0.8641  0.5936
64463SOL    HW298201   8.140   9.661   1.879 -1.9224  2.3279 -0.3217
64464SOL     OW98202   6.209  12.103   9.742 -0.2359 -0.5952  0.4619
64464SOL    HW198203   6.114  12.108   9.740 -0.2520 -0.9352 -0.7755
64464SOL    HW298204   6.229  12.012   9.719  0.3827 -0.3568  0.0025
64465SOL     OW98205  10.787   4.520   8.308  0.0287  0.3081  0.1758
64465SOL    HW198206  10.864   4.467   8.287  0.0160  1.3546 -3.0410
64465SOL    HW298207  10.820   4.588   8.366  1.1916 -0.1705  0.1112
64466SOL     OW98208  10.373  10.267   2.126 -0.4172 -0.3126 -0.0674
64466SOL    HW198209  10.284  10.235   2.110 -0.3721 -0.0172 -0.9701
64466SOL    HW298210  10.369  10.361   2.111 -0.1777 -0.1281  0.9393
64467SOL     OW98211  10.543   7.345   0.020  0.4985 -0.1640 -0.5805
64467SOL    HW198212  10.545   7.365  -0.074  2.2102 -0.2114 -0.5793
64467SOL    HW298213  10.612   7.280   0.032 -0.6535 -1.2404  0.5019
64468SOL     OW98214  12.633  10.412   5.202 -0.5261 -0.6318 -0.3471
64468SOL    HW198215  12.681  10.350   5.257  0.4435  1.8717  1.8448
64468SOL    HW298216  12.541  10.390   5.215 -0.2937 -0.5158  1.9008
64469SOL     OW98217  11.841   0.182   3.327  0.4339  0.4055  0.2990
64469SOL    HW198218  11.935   0.163   3.331  0.5969  0.9222 -0.6184
64469SOL    HW298219  11.831   0.261   3.380  1.0765  2.1327 -1.9543
64470SOL     OW98220   9.483   2.515  11.168 -0.4310 -0.4493 -0.4456
64470SOL    HW198221   9.466   2.608  11.152 -2.0588 -0.8172 -1.1221
64470SOL    HW298222   9.577   2.509  11.180 -0.3352  1.3441 -0.0138
64471SOL     OW98223   9.871   6.348   4.728 -0.3425  0.0496 -0.4059
64471SOL    HW198224   9.955   6.313   4.754 -0.0684  1.9278  1.5482
64471SOL    HW298225   9.891   6.410   4.658 -0.4378 -1.1487 -1.5402
64472SOL     OW98226   2.188   6.113  12.378  0.0423  0.1956  0.0641
64472SOL    HW198227   2.282   6.134  12.383  0.2922 -1.1226  2.2738
64472SOL    HW298228   2.150   6.156  12.454 -0.4839 -2.0863  1.1780
64473SOL     OW98229   4.191   3.853   0.565  0.3282  0.8826  0.0254
64473SOL    HW198230   4.219   3.846   0.656  1.9130  1.2731 -0.3989
64473SOL    HW298231   4.272   3.864   0.515 -0.4462  0.0012 -1.5166
64474SOL     OW98232   4.201   1.847   0.284 -0.1327 -0.0690 -0.1274
64474SOL    HW198233   4.278   1.791   0.297 -0.5879 -0.9804 -1.2091
64474SOL    HW298234   4.235   1.936   0.287  0.8432 -0.4397  0.1530
64475SOL     OW98235  11.431   1.952   0.482 -0.3385 -0.1475  0.1369
64475SOL    HW198236  11.495   2.002   0.531 -0.3556  1.0654 -1.0404
64475SOL    HW298237  11.368   1.922   0.549 -0.1349  1.0832  0.9085
64476SOL     OW98238   7.248   1.100   2.547 -0.2724  0.6429  0.1674
64476SOL    HW198239   7.297   1.149   2.481 -0.8117  2.7901  1.2883
64476SOL    HW298240   7.159   1.096   2.513 -0.1770  0.1872 -0.0390
64477SOL     OW98241   9.696   4.108   9.574 -0.7963  0.0343 -0.1120
64477SOL    HW198242   9.616   4.056   9.582 -1.9143  1.1635 -2.8293
64477SOL    HW298243   9.667   4.190   9.534  1.7043  0.5007 -1.1186
64478SOL     OW98244   6.137   2.919   6.572  0.6026  0.2556 -0.1161
64478SOL    HW198245   6.197   2.993   6.570  0.9540 -0.0063  0.3724
64478SOL    HW298246   6.175   2.856   6.511 -0.1364  0.7958 -1.1593
64479SOL     OW98247   6.804   6.259   6.546 -0.8180  0.0767 -0.0785
64479SOL    HW198248   6.753   6.179   6.561  1.5060 -1.5749 -0.3932
64479SOL    HW298249   6.840   6.248   6.457  1.7271  0.0671  0.8557
64480SOL     OW98250   1.436   8.565  10.955 -0.2156 -0.2747  0.2322
64480SOL    HW198251   1.449   8.562  11.050 -0.7086  3.4405  0.5698
64480SOL    HW298252   1.342   8.578  10.944 -0.6969 -3.7620 -1.0553
64481SOL     OW98253   7.385   1.183   2.784  0.7806 -0.1906 -0.4964
64481SOL    HW198254   7.466   1.218   2.748  1.1649 -1.1211 -0.5499
64481SOL    HW298255   7.340   1.145   2.709  0.5378 -0.1527 -0.3715
64482SOL     OW98256  11.871   0.662   8.817 -0.0822  0.6011  0.7037
64482SOL    HW198257  11.783   0.638   8.844  0.0675 -0.0237  0.6498
64482SOL    HW298258  11.863   0.753   8.786 -0.6199  0.6834  1.0736
64483SOL     OW98259  12.533   5.309  11.725  0.5851  0.2042 -0.0868
64483SOL    HW198260  12.584   5.311  11.644  1.2536 -0.9298  0.2900
64483SOL    HW298261  12.517   5.217  11.742 -0.5081  0.4771  0.5025
64484SOL     OW98262   9.994   0.254  11.839  0.6515  0.7186 -0.2258
64484SOL    HW198263  10.041   0.174  11.813  0.6097  0.9527 -1.0446
64484SOL    HW298264  10.045   0.325  11.800  1.0156  1.1424  0.9868
64485SOL     OW98265   2.583   3.508   5.911 -0.3178  0.1235 -0.2370
64485SOL    HW198266   2.597   3.426   5.958 -1.2141 -0.7324 -1.3812
64485SOL    HW298267   2.664   3.557   5.922  0.5597 -1.2864 -0.2188
64486SOL     OW98268  10.619   6.602  11.154  0.1961 -0.2440 -0.0781
64486SOL    HW198269  10.552   6.609  11.222  0.8979 -0.2765  0.6308
64486SOL    HW298270  10.698   6.639  11.194  0.8363 -1.0462 -0.5697
64487SOL     OW98271   1.025  11.636  11.584  0.1026 -0.0087  0.2246
64487SOL    HW198272   0.968  11.684  11.644 -1.1470 -0.6359 -0.4285
64487SOL    HW298273   1.091  11.700  11.556 -1.0533  1.1057 -0.0100
64488SOL     OW98274  11.402   0.940   9.200 -0.4276  0.5031 -0.2716
64488SOL    HW198275  11.452   0.939   9.281  0.9597  1.1464 -1.0781
64488SOL    HW298276  11.356   1.025   9.201  0.3079  0.9124 -0.5630
64489SOL     OW98277   2.207   9.619  11.571 -0.0294  0.1865  0.0334
64489SOL    HW198278   2.225   9.545  11.629  1.3545  0.0173 -0.5821
64489SOL    HW298279   2.193   9.693  11.631  0.2575 -0.2194  0.6083
64490SOL     OW98280  10.168   9.795   3.692 -0.0052 -0.3166  0.8931
64490SOL    HW198281  10.199   9.858   3.756 -0.8545 -1.1120  2.1398
64490SOL    HW298282  10.087   9.834   3.657  0.3799  0.0488  0.3918
64491SOL     OW98283   6.338   0.624   1.329 -0.3341 -0.0189 -0.5380
64491SOL    HW198284   6.316   0.583   1.413 -0.7841 -0.3238 -0.7976
64491SOL    HW298285   6.307   0.561   1.264  0.8123 -0.1950 -0.9360
64492SOL     OW98286   8.152   7.565   0.281  0.1972 -0.7227  0.7719
64492SOL    HW198287   8.073   7.608   0.248  0.0609  0.0196  1.9919
64492SOL    HW298288   8.204   7.548   0.203  0.6020  2.3989  0.2122
64493SOL     OW98289   9.576   1.599  10.176  0.0774 -0.0364 -0.1990
64493SOL    HW198290   9.669   1.584  10.195 -0.2633 -1.5787  0.4609
64493SOL    HW298291   9.572   1.603  10.080  0.8533  0.2308 -0.2292
64494SOL     OW98292   1.501   9.190   7.842 -0.5598 -0.4870  0.0168
64494SOL    HW198293   1.505   9.097   7.863  0.9808  0.0776  2.7195
64494SOL    HW298294   1.494   9.233   7.927  4.6086  2.0865 -0.4649
64495SOL     OW98295   6.794   3.761  12.311 -0.3774  0.0207 -0.2835
64495SOL    HW198296   6.769   3.704  12.384  1.2845 -0.1331  0.1945
64495SOL    HW298297   6.711   3.778  12.266 -1.1579 -1.4738  0.4832
64496SOL     OW98298   1.221   3.335  11.792  0.3053 -0.2380 -0.6916
64496SOL    HW198299   1.316   3.341  11.805  0.0552 -0.0943  1.5909
64496SOL    HW298300   1.196   3.423  11.763  0.7285  0.1575  0.0875
64497SOL     OW98301  11.075   9.155  10.016  0.4459 -0.0396 -0.2765
64497SOL    HW198302  11.094   9.249  10.024  0.6612 -0.2238  2.0542
64497SOL    HW298303  11.121   9.128   9.936  0.2438  1.8527 -1.0893
64498SOL     OW98304   1.332   8.449   9.596  0.1193  0.2669  0.0482
64498SOL    HW198305   1.342   8.358   9.626  2.7049  1.1062  2.0765
64498SOL    HW298306   1.278   8.490   9.663 -0.7080  0.3508 -0.6559
64499SOL     OW98307  12.648  11.754   5.751 -0.3318  0.0433 -0.0845
64499SOL    HW198308  12.653  11.660   5.767 -1.3929  0.0039  0.1053
64499SOL    HW298309  12.739  11.783   5.747  0.0091 -0.8209  0.8875
64500SOL     OW98310   5.293   2.872   2.089 -0.3653 -0.0417 -0.4524
64500SOL    HW198311   5.262   2.820   2.015 -0.8883 -1.4668  0.7355
64500SOL    HW298312   5.363   2.926   2.052 -0.3535 -0.9971 -1.9052
64501SOL     OW98313  11.839   9.697  11.899 -0.2689  0.3213 -0.2758
64501SOL    HW198314  11.836   9.632  11.969 -0.4862  1.0006  0.3595
64501SOL    HW298315  11.911   9.670  11.843  0.4729  0.2506  0.6976
64502SOL     OW98316  11.760   4.007   0.867 -0.1671 -0.1566  0.1197
64502SOL    HW198317  11.787   4.083   0.918 -3.9942  1.5718 -0.0561
64502SOL    HW298318  11.777   4.032   0.777  2.4125 -1.3534  0.1960
64503SOL     OW98319  12.128   3.844   5.594  0.5231 -0.8387 -0.3135
64503SOL    HW198320  12.186   3.885   5.657 -1.1887 -0.9753  1.4295
64503SOL    HW298321  12.090   3.917   5.544  0.8899 -0.6310 -0.2874
64504SOL     OW98322   2.674   6.834   1.270  0.0054  0.5364 -0.4626
64504SOL    HW198323   2.748   6.843   1.330 -0.9771  2.4167  0.5775
64504SOL    HW298324   2.713   6.807   1.187  1.6457 -0.1227  0.4780
64505SOL     OW98325   9.499   4.073  12.248 -0.1916 -0.0518 -0.1132
64505SOL    HW198326   9.587   4.037  12.254 -0.2278 -0.0098  0.6731
64505SOL    HW298327   9.470   4.082  12.338 -0.7200  0.6344 -0.3456
64506SOL     OW98328  10.999   9.813  11.276  0.0010  0.2468  0.4684
64506SOL    HW198329  11.076   9.839  11.225  0.0367  0.1531  0.4750
64506SOL    HW298330  11.031   9.808  11.366 -0.0148  0.2087  0.4708
64507SOL     OW98331  11.653   4.186   1.797  0.3182  0.9099 -0.2905
64507SOL    HW198332  11.699   4.133   1.732 -1.0166 -0.1396 -0.4269
64507SOL    HW298333  11.720   4.243   1.834  1.3276  0.7283 -1.7779
64508SOL     OW98334   0.850   4.708   7.733 -0.1675 -0.0404  0.0607
64508SOL    HW198335   0.839   4.728   7.825 -0.8077  2.2654 -0.4652
64508SOL    HW298336   0.944   4.718   7.717 -0.0093 -0.7381  0.4919
64509SOL     OW98337   2.282   3.396   0.782 -0.5470 -0.3066 -0.4974
64509SOL    HW198338   2.248   3.336   0.716 -1.0001 -1.9324  1.1186
64509SOL    HW298339   2.207   3.452   0.805 -0.3401  0.3737 -1.4609
64510SOL     OW98340   1.210   6.359  11.592 -0.0397 -0.3420  0.4365
64510SOL    HW198341   1.237   6.284  11.539  1.9722  1.1325 -0.7910
64510SOL    HW298342   1.267   6.356  11.669 -0.1890 -0.2808  0.5485
64511SOL     OW98343   2.946   9.027   0.521  0.5690  0.7188 -0.2710
64511SOL    HW198344   2.884   8.992   0.585  1.5715  1.2247  1.0214
64511SOL    HW298345   2.927   8.979   0.440 -0.3293 -0.3608  0.5510
64512SOL     OW98346   9.065   0.319   3.342 -0.5464  0.5378  0.4612
64512SOL    HW198347   9.007   0.276   3.405  0.8012 -0.7085  0.9235
64512SOL    HW298348   9.042   0.411   3.345 -0.3866  0.5412  2.9641
64513SOL     OW98349   3.524   2.960   7.018 -0.1956 -0.3309  0.0648
64513SOL    HW198350   3.555   3.026   7.080 -3.3630  0.0671  1.4335
64513SOL    HW298351   3.507   3.009   6.938 -0.6236  0.1454  0.4365
64514SOL     OW98352   5.331  11.150   1.978  0.0758  0.1547 -0.2305
64514SOL    HW198353   5.427  11.148   1.976  0.1346  0.3933  1.0226
64514SOL    HW298354   5.309  11.242   1.962  0.0822  0.1759 -0.1214
64515SOL     OW98355   1.193  10.935  12.265  0.4102  0.1473  0.2164
64515SOL    HW198356   1.189  10.846  12.229  0.3648 -0.1996  1.0661
64515SOL    HW298357   1.133  10.934  12.339  1.9773  0.2444  1.5659
64516SOL     OW98358  11.380   9.546   8.513  0.0641 -0.1685  0.8633
64516SOL    HW198359  11.313   9.515   8.452 -0.2541  0.0381  1.1009
64516SOL    HW298360  11.356   9.637   8.530  0.7993  0.1083  0.4308
64517SOL     OW98361   2.658  10.067  11.609  0.1660 -0.1345  0.1045
64517SOL    HW198362   2.605  10.101  11.537 -0.4289 -2.4440 -0.6524
64517SOL    HW298363   2.596  10.016  11.662  0.6747  1.2010  2.0910
64518SOL     OW98364   2.244   6.719   2.395  0.1472 -0.0093  0.2493
64518SOL    HW198365   2.283   6.805   2.381 -1.0742  0.6459  0.6837
64518SOL    HW298366   2.184   6.707   2.322  0.0510 -0.3322  0.3763
64519SOL     OW98367   3.148   4.632  11.560 -0.3079 -0.0394  0.1749
64519SOL    HW198368   3.113   4.626  11.649 -0.0772  0.0203  0.2710
64519SOL    HW298369   3.094   4.699  11.518 -0.1017  0.2886  0.4242
64520SOL     OW98370  10.208   3.553   1.620  0.1402 -0.1513  0.5618
64520SOL    HW198371  10.128   3.598   1.593 -0.2959 -0.5305  1.1895
64520SOL    HW298372  10.243   3.608   1.690  0.3424 -0.0676  0.3938
64521SOL     OW98373   8.390   8.382   5.445  0.8542 -0.1838 -0.1380
64521SOL    HW198374   8.434   8.323   5.506  0.9492 -1.3952 -1.3177
64521SOL    HW298375   8.333   8.436   5.500 -1.4426 -3.2922  0.8371
64522SOL     OW98376  11.541   3.327   6.311 -0.4624  0.3396 -0.1392
64522SOL    HW198377  11.598   3.403   6.296  0.0765  0.0075  0.2328
64522SOL    HW298378  11.574   3.287   6.391 -1.4132  0.3202  0.2471
64523SOL     OW98379   2.774   4.164   8.855 -0.0958  0.2805 -0.3015
64523SOL    HW198380   2.798   4.121   8.937 -0.1226 -0.8643 -0.8776
64523SOL    HW298381   2.730   4.096   8.804 -0.1494  0.9993 -1.2372
64524SOL     OW98382   4.637  10.885   2.274 -0.1493 -0.1059  0.0536
64524SOL    HW198383   4.632  10.961   2.216  1.4923 -0.1859 -0.2401
64524SOL    HW298384   4.688  10.821   2.225 -0.4907 -0.9585  0.7845
64525SOL     OW98385   1.002  10.615   2.893  0.1514 -0.7600  0.3889
64525SOL    HW198386   0.999  10.704   2.858  3.8453  0.0811  1.7594
64525SOL    HW298387   0.954  10.620   2.976  0.8661  0.1900  0.7701
64526SOL     OW98388  10.948   6.369   0.865  0.2606  0.8072  0.4783
64526SOL    HW198389  11.033   6.411   0.857  0.3494  0.4526 -0.6242
64526SOL    HW298390  10.948   6.331   0.953  0.6213  2.0957  1.0620
64527SOL     OW98391   4.055   8.150   6.290 -0.1396 -0.1132  0.2268
64527SOL    HW198392   4.091   8.192   6.368  1.4996  0.0250 -0.5557
64527SOL    HW298393   4.003   8.219   6.248 -0.6325 -0.0451  0.9359
64528SOL     OW98394   5.244  12.087   7.858  0.8776 -0.5465  0.0730
64528SOL    HW198395   5.151  12.091   7.878  0.6860 -2.8973 -0.0904
64528SOL    HW298396   5.287  12.113   7.939  0.0684 -1.6611  0.8875
64529SOL     OW98397   8.557  11.389  11.591 -0.3793 -0.6118 -0.1191
64529SOL    HW198398   8.568  11.374  11.684 -0.5750 -2.4026 -0.3445
64529SOL    HW298399   8.621  11.456  11.569 -1.0592  0.6380  1.4732
64530SOL     OW98400   3.456   6.365   9.559  0.2706 -0.3298 -0.1892
64530SOL    HW198401   3.394   6.308   9.512  1.1814 -2.0523  0.6137
64530SOL    HW298402   3.455   6.333   9.649  0.2842  1.4246  0.4624
64531SOL     OW98403   7.045   2.576   0.591  0.0072  0.4538 -0.0704
64531SOL    HW198404   7.015   2.667   0.592 -1.4851  0.0010  0.1370
64531SOL    HW298405   7.055   2.555   0.498  0.0591  0.7494 -0.1322
64532SOL     OW98406  10.393   5.171   8.495 -0.4527 -0.0688 -0.3418
64532SOL    HW198407  10.440   5.149   8.415 -0.8612 -0.7943 -0.3864
64532SOL    HW298408  10.337   5.245   8.471 -0.3643 -0.1004 -0.6493
64533SOL     OW98409   4.999  10.548   2.960  0.6000 -0.1569 -0.2103
64533SOL    HW198410   4.945  10.542   2.881 -0.0387  1.7840  0.0302
64533SOL    HW298411   4.978  10.633   2.997 -0.1430 -1.5293  2.8300
64534SOL     OW98412   4.372   3.458   0.085  0.1160 -0.4245  0.0899
64534SOL    HW198413   4.283   3.438   0.054  0.6585 -1.1851 -1.0458
64534SOL    HW298414   4.419   3.375   0.078  0.7001 -0.2464  1.5414
64535SOL     OW98415   9.412   8.548  10.312 -0.2054 -0.1123  0.1287
64535SOL    HW198416   9.401   8.634  10.271  0.0499 -0.5637 -0.9308
64535SOL    HW298417   9.323   8.513  10.318 -0.5426  0.9423  2.2732
64536SOL     OW98418  10.081   6.896   7.697 -0.0790  0.4591 -0.1532
64536SOL    HW198419  10.137   6.836   7.746 -1.4410 -0.6597  0.0974
64536SOL    HW298420  10.008   6.914   7.756 -0.1529  1.6750 -0.5758
64537SOL     OW98421   5.399   3.324   5.319  0.0697 -0.2167 -0.0573
64537SOL    HW198422   5.346   3.350   5.244  0.8115  1.7975  0.0643
64537SOL    HW298423   5.486   3.307   5.282 -0.3948 -2.8074 -0.1479
64538SOL     OW98424   7.022  11.936  10.144 -0.1474  0.4527  0.5655
64538SOL    HW198425   7.010  11.883  10.222  1.6003 -2.8898 -1.1972
64538SOL    HW298426   7.045  11.873  10.075  3.7135  3.5325 -1.4347
64539SOL     OW98427  10.491   6.362   5.861  0.1490  0.5088 -0.1477
64539SOL    HW198428  10.402   6.333   5.877 -0.2248  1.6295 -0.1221
64539SOL    HW298429  10.546   6.286   5.882 -0.8574 -0.5961 -1.3102
64540SOL     OW98430   9.634   6.823   1.379 -0.1081 -0.4293  0.1688
64540SOL    HW198431   9.554   6.872   1.357  0.1020  0.3065  0.9858
64540SOL    HW298432   9.699   6.891   1.398  0.0388 -1.0031  1.8705
64541SOL     OW98433   1.741   1.140   9.977  0.0726  0.1017 -0.4585
64541SOL    HW198434   1.695   1.186   9.907  2.2532  0.7322 -1.5388
64541SOL    HW298435   1.716   1.187  10.057 -1.7436 -0.0811 -0.8763
64542SOL     OW98436  11.671   3.000   5.488  0.8972 -0.0815  0.0174
64542SOL    HW198437  11.760   2.966   5.481  1.5606  1.5528  0.2321
64542SOL    HW298438  11.649   3.026   5.399  0.9495  0.2801  0.1103
64543SOL     OW98439  10.783   9.313   1.280  0.2797  0.0861 -0.7026
64543SOL    HW198440  10.762   9.298   1.372 -1.6597  0.4377 -1.0307
64543SOL    HW298441  10.708   9.363   1.246  0.1610 -1.3928 -2.8360
64544SOL     OW98442   0.768   1.894   1.053 -0.0187  0.5615  0.1816
64544SOL    HW198443   0.699   1.845   1.098  0.6068 -0.7738 -0.2477
64544SOL    HW298444   0.786   1.842   0.974  1.6093  0.7807  0.3868
64545SOL     OW98445   9.317   7.205   1.988 -0.3412  0.0263  0.2519
64545SOL    HW198446   9.241   7.250   1.950 -0.6654  0.5506  1.4907
64545SOL    HW298447   9.374   7.275   2.017  1.7013 -0.2876 -2.5754
64546SOL     OW98448  11.028   7.748   9.175  0.1377 -0.4117  0.3952
64546SOL    HW198449  11.003   7.816   9.237 -1.8021 -0.1078 -0.6536
64546SOL    HW298450  11.080   7.686   9.226  0.0505  0.7038  1.8803
64547SOL     OW98451   2.741   5.652  10.062  0.1269  0.2684  0.5293
64547SOL    HW198452   2.689   5.686   9.990 -1.7213 -2.8088  0.2565
64547SOL    HW298453   2.773   5.567  10.031  0.7687 -0.3543  2.6999
64548SOL     OW98454   6.189   0.328   1.532  0.0014 -0.0183  0.6750
64548SOL    HW198455   6.264   0.294   1.583  0.8643  1.6010  0.5388
64548SOL    HW298456   6.176   0.417   1.565  0.0637  0.7912 -1.3742
64549SOL     OW98457   1.756  12.319   9.177  0.1996  0.1430 -0.1177
64549SOL    HW198458   1.727  12.278   9.258  0.8631 -1.5000 -0.6674
64549SOL    HW298459   1.759  12.412   9.196 -0.9331 -0.0891  1.3334
64550SOL     OW98460   1.779   9.953   5.035  0.1873 -0.5536 -0.2168
64550SOL    HW198461   1.785  10.019   5.104  1.9370 -1.4790  0.5763
64550SOL    HW298462   1.686   9.929   5.034  0.3008 -1.5801  2.9282
64551SOL     OW98463   4.457   0.971   3.832 -0.0945 -0.5100 -0.2675
64551SOL    HW198464   4.382   1.003   3.782  0.5390  0.2707 -0.7522
64551SOL    HW298465   4.433   0.985   3.923 -0.7443 -0.7373 -0.4021
64552SOL     OW98466   9.443   1.102   1.262  0.2257 -0.4924 -0.1701
64552SOL    HW198467   9.506   1.162   1.221 -1.0726  3.2454  2.7683
64552SOL    HW298468   9.494   1.053   1.326  0.8268 -0.5927 -0.7103
64553SOL     OW98469   9.650   8.224   5.622  0.4466  0.4390  0.1641
64553SOL    HW198470   9.721   8.201   5.682 -0.1872  1.3699  1.3145
64553SOL    HW298471   9.691   8.285   5.560  0.6021  1.2877  1.0611
64554SOL     OW98472   7.313  11.639   4.355 -0.0079  0.4579  0.4444
64554SOL    HW198473   7.259  11.598   4.289  0.4030 -0.8195  0.8726
64554SOL    HW298474   7.268  11.622   4.438 -0.5573  2.1008  0.5246
64555SOL     OW98475   9.478   6.430  12.017  0.1624  0.0615  0.5241
64555SOL    HW198476   9.530   6.482  12.078 -0.4688  0.7850  0.4661
64555SOL    HW298477   9.539   6.406  11.947  0.4534  0.7679  0.5307
64556SOL     OW98478   7.975  10.637   4.588 -0.2594  0.4349 -0.1383
64556SOL    HW198479   7.917  10.564   4.568 -0.3997  0.6348 -0.4712
64556SOL    HW298480   7.918  10.714   4.589 -0.3107  0.4002  1.3236
64557SOL     OW98481  12.332   7.195   4.526 -0.2269  0.3878  0.1144
64557SOL    HW198482  12.390   7.120   4.534 -1.1191 -0.3764 -0.4000
64557SOL    HW298483  12.244   7.158   4.517 -0.6169  1.4518 -0.8734
64558SOL     OW98484   9.828   4.622  12.615  0.0020 -0.2972  0.1158
64558SOL    HW198485   9.904   4.567  12.598  1.4006  1.3639  0.6838
64558SOL    HW298486   9.774   4.615  12.536  1.9982  0.4484 -1.3896
64559SOL     OW98487  11.015   4.684   9.715  0.6407 -0.4723 -0.0306
64559SOL    HW198488  10.959   4.625   9.664 -0.7909  1.3772 -0.6874
64559SOL    HW298489  11.059   4.738   9.649  1.4082 -0.3116  0.5934
64560SOL     OW98490  10.821   1.423   6.930 -0.6943 -0.0764 -0.0973
64560SOL    HW198491  10.858   1.488   6.870 -0.2757 -0.3109 -0.0992
64560SOL    HW298492  10.759   1.473   6.983  0.1412  0.4911  0.3826
64561SOL     OW98493   9.889  10.796   1.096  0.1017 -0.6323 -0.3091
64561SOL    HW198494   9.810  10.816   1.046 -0.6200 -1.9007  0.2850
64561SOL    HW298495   9.909  10.705   1.073  2.5790  0.2198 -2.0140
64562SOL     OW98496   0.521   9.155   9.425 -0.2864 -0.1094  0.0713
64562SOL    HW198497   0.508   9.219   9.495  1.9605  0.3992  0.1166
64562SOL    HW298498   0.434   9.117   9.410 -1.0331  0.4969  2.4062
64563SOL     OW98499  10.548   2.341   0.955 -0.3366  0.0103 -0.2142
64563SOL    HW198500  10.599   2.346   1.036 -1.0724  0.9532  0.1990
64563SOL    HW298501  10.599   2.392   0.892 -0.7667  0.9818  0.2063
64564SOL     OW98502   2.286  10.290  10.598  0.3528  0.1702 -0.2773
64564SOL    HW198503   2.339  10.211  10.592 -1.5071 -0.9875 -2.8234
64564SOL    HW298504   2.276  10.304  10.693  2.5631 -1.2841  0.2571
64565SOL     OW98505   3.767   0.203  12.368 -0.0349  0.5062 -0.0899
64565SOL    HW198506   3.672   0.217  12.361 -0.1349 -0.2601 -0.4346
64565SOL    HW298507   3.780   0.165  12.455  0.1147  1.7459  0.4471
64566SOL     OW98508   7.015  11.473   5.142  0.6032 -0.0689  0.9048
64566SOL    HW198509   6.970  11.414   5.203  1.7722 -2.1086 -0.1030
64566SOL    HW298510   6.979  11.451   5.057  1.8498 -0.1363  0.3753
64567SOL     OW98511  10.737   1.001   1.384  0.3868  0.0867 -0.1893
64567SOL    HW198512  10.817   0.981   1.432  0.5698 -2.1672 -1.2887
64567SOL    HW298513  10.667   0.989   1.448  0.7926 -0.2901  0.1939
64568SOL     OW98514   0.036   3.128   5.198  0.3103  0.1127  0.1639
64568SOL    HW198515  -0.015   3.187   5.144 -0.8552 -0.2646  0.8213
64568SOL    HW298516   0.087   3.075   5.136  1.0244  1.4643 -0.4431
64569SOL     OW98517   0.645   7.715   7.715 -0.0244  0.1521 -0.4312
64569SOL    HW198518   0.678   7.631   7.747  0.9578  0.4284 -0.6832
64569SOL    HW298519   0.674   7.778   7.780 -2.6428  0.0686  0.9371
64570SOL     OW98520   7.944   9.131   4.039  0.2905  0.0065  0.3544
64570SOL    HW198521   8.038   9.126   4.057  0.6426  1.2535 -0.9343
64570SOL    HW298522   7.923   9.047   3.998  0.6113 -0.6632  1.5044
64571SOL     OW98523   7.943   7.496   3.413 -0.1124 -0.2396 -0.2332
64571SOL    HW198524   7.952   7.579   3.460  0.7139 -0.7998  0.6273
64571SOL    HW298525   7.893   7.519   3.334 -2.1621  0.5815  1.2230
64572SOL     OW98526  10.633  12.019  11.798  0.1253 -0.1639  0.3852
64572SOL    HW198527  10.550  12.060  11.772  0.7121  0.3127 -0.8436
64572SOL    HW298528  10.618  11.925  11.785 -0.0581 -0.0373 -0.3612
64573SOL     OW98529   1.621   5.345  11.783  0.7431 -0.1394 -0.2490
64573SOL    HW198530   1.553   5.346  11.717  0.6162  1.3467 -0.1167
64573SOL    HW298531   1.575   5.348  11.866  0.9513  0.9856 -0.1601
64574SOL     OW98532   5.693   7.033   3.206 -0.1386 -0.0481 -0.1133
64574SOL    HW198533   5.692   7.120   3.168  0.9805  0.7725  1.6264
64574SOL    HW298534   5.753   6.983   3.150 -0.2869  0.4602 -0.7375
64575SOL     OW98535   5.806   1.603   5.474 -0.2982  0.9785  0.0212
64575SOL    HW198536   5.818   1.636   5.563 -0.9390  0.7661  0.1872
64575SOL    HW298537   5.750   1.668   5.432  0.1710  1.1847 -0.2948
64576SOL     OW98538   9.750   3.526  12.432 -0.1520  0.2563 -1.0207
64576SOL    HW198539   9.822   3.588  12.427  0.8097 -0.7393 -0.1919
64576SOL    HW298540   9.788   3.448  12.473 -1.4399 -0.6865 -1.5234
64577SOL     OW98541  12.639   6.849   4.188  0.0518  0.3511  0.3566
64577SOL    HW198542  12.701   6.903   4.237  0.5464 -0.7239  0.9436
64577SOL    HW298543  12.653   6.760   4.220 -0.7964 -0.1326 -0.5373
64578SOL     OW98544   7.508   2.652   2.405  0.8507  0.0170  0.4776
64578SOL    HW198545   7.542   2.710   2.337  0.5875 -1.1373 -0.6814
64578SOL    HW298546   7.439   2.703   2.448  1.5457  1.0377  0.4213
64579SOL     OW98547   1.292   7.412   4.539  0.3311 -0.0149  0.6234
64579SOL    HW198548   1.233   7.389   4.612 -1.4154  1.0877 -0.3713
64579SOL    HW298549   1.240   7.395   4.460  0.5918  2.8026 -0.2529
64580SOL     OW98550   1.629   6.347   7.554  0.3646 -0.1674 -0.3909
64580SOL    HW198551   1.723   6.365   7.563  0.0883  0.7775  0.9024
64580SOL    HW298552   1.619   6.255   7.577  0.8664 -0.0387  0.3653
64581SOL     OW98553   6.666   6.227   7.536  0.5156 -0.4196  0.4265
64581SOL    HW198554   6.753   6.245   7.573  0.9372  1.9541 -1.4713
64581SOL    HW298555   6.680   6.153   7.478  1.4231  0.2129 -0.1990
64582SOL     OW98556   7.928   5.541   1.480  0.2910 -0.4727  0.4117
64582SOL    HW198557   7.999   5.535   1.544 -0.0641 -1.7911  0.7077
64582SOL    HW298558   7.941   5.465   1.423  0.0303  0.1491 -0.5042
64583SOL     OW98559   1.452   4.924   4.573  0.0550 -0.4949  0.0733
64583SOL    HW198560   1.393   4.993   4.604  2.2027  1.8088 -0.6036
64583SOL    HW298561   1.419   4.902   4.485  0.5514  1.2972 -0.6054
64584SOL     OW98562   6.936   9.001   5.256  0.2531  0.1337  0.0010
64584SOL    HW198563   6.972   8.915   5.234  0.0915  0.1245 -0.2356
64584SOL    HW298564   6.843   8.985   5.270  0.5753 -0.1426  2.2591
64585SOL     OW98565   6.743  10.140   1.329  0.9760  0.3845 -0.4982
64585SOL    HW198566   6.818  10.196   1.346  1.3048 -0.1003 -0.3391
64585SOL    HW298567   6.729  10.093   1.412 -0.7700  1.9330  0.1703
64586SOL     OW98568   3.627  10.743   6.425 -0.2519  0.1180  0.1003
64586SOL    HW198569   3.615  10.776   6.514 -4.3629 -2.4413  0.7457
64586SOL    HW298570   3.559  10.785   6.374 -0.0712 -0.9228 -1.0497
64587SOL     OW98571  12.120  12.280  10.201 -0.7336 -0.1952  0.3660
64587SOL    HW198572  12.118  12.295  10.296 -0.0560  0.1713  0.3327
64587SOL    HW298573  12.212  12.260  10.182 -0.4573  1.6401 -0.4855
64588SOL     OW98574   3.466   2.966   9.531 -0.3278  0.1749 -0.2402
64588SOL    HW198575   3.477   2.882   9.576  0.2252  1.1806  1.6270
64588SOL    HW298576   3.542   2.974   9.473 -0.0302 -0.3136  0.0822
64589SOL     OW98577   5.627   3.574  12.259  0.4428  0.4814 -0.2515
64589SOL    HW198578   5.605   3.485  12.287  1.0221  0.1030 -0.9595
64589SOL    HW298579   5.548   3.625  12.276 -1.0135 -0.7966 -2.6078
64590SOL     OW98580   6.775  10.616   9.981  0.2094  0.0427 -0.0525
64590SOL    HW198581   6.820  10.538  10.012  0.2885  1.1139  2.8805
64590SOL    HW298582   6.846  10.678   9.961  0.1297  0.4605  0.9062
64591SOL     OW98583  10.141   4.455   6.884 -0.3215  0.3341 -0.3428
64591SOL    HW198584  10.074   4.392   6.855  0.2118 -0.6603  0.4934
64591SOL    HW298585  10.184   4.411   6.957  2.7173 -0.0075 -2.1756
64592SOL     OW98586  11.052   9.340   7.370  0.3009  0.6576  0.2360
64592SOL    HW198587  11.011   9.425   7.356  0.1419  0.5680  0.1549
64592SOL    HW298588  11.005   9.281   7.311 -1.0050  0.0810  1.7868
64593SOL     OW98589   2.456   7.633   0.965 -0.3365 -0.0956  0.3899
64593SOL    HW198590   2.464   7.724   0.993 -0.0912  0.1868 -0.5464
64593SOL    HW298591   2.479   7.581   1.042  0.3866  0.6433  0.6759
64594SOL     OW98592   3.281   7.127   5.314 -0.6394  0.1411  0.6554
64594SOL    HW198593   3.373   7.127   5.342 -0.2390 -2.9660 -0.2779
64594SOL    HW298594   3.232   7.099   5.392 -0.2661 -2.0317  0.1830
64595SOL     OW98595  11.535   2.300   7.586  0.3680  0.1160  0.4485
64595SOL    HW198596  11.581   2.382   7.569  0.0657  0.1274 -0.3508
64595SOL    HW298597  11.542   2.289   7.681  1.9824  0.1288  0.3688
64596SOL     OW98598  10.456   7.724   4.665 -0.4823  0.7999  0.3197
64596SOL    HW198599  10.384   7.680   4.709 -1.0700  0.6601 -0.7432
64596SOL    HW298600  10.478   7.667   4.591 -1.1663  2.1761 -1.0060
64597SOL     OW98601   7.864  10.924   5.357  0.2822  0.7089 -0.0339
64597SOL    HW198602   7.769  10.923   5.345  0.5248 -0.4987 -2.4704
64597SOL    HW298603   7.889  11.015   5.342 -0.4627  0.9894  0.3953
64598SOL     OW98604   4.383  10.516   4.204 -1.0073  0.1108  0.2604
64598SOL    HW198605   4.447  10.587   4.212 -1.8358  0.8950  0.0485
64598SOL    HW298606   4.372  10.504   4.110  0.1318 -1.2497  0.2595
64599SOL     OW98607   6.903   2.415   4.044  0.1955 -0.2853 -0.2753
64599SOL    HW198608   6.947   2.497   4.021  1.8114 -1.0880 -0.1600
64599SOL    HW298609   6.973   2.350   4.047 -0.9200 -1.4932  0.5571
64600SOL     OW98610   1.492  11.302   0.976 -0.3485 -0.4344 -0.1055
64600SOL    HW198611   1.533  11.347   0.902 -0.4933  0.0909  0.1372
64600SOL    HW298612   1.441  11.369   1.021 -0.5645 -0.8359  0.2581
64601SOL     OW98613   6.054   6.811   2.569  0.2570 -0.0891  0.4226
64601SOL    HW198614   6.095   6.739   2.617  1.5818  1.0006  0.9956
64601SOL    HW298615   5.998   6.854   2.633  1.4684  0.9264  0.8438
64602SOL     OW98616   9.753   7.889   7.180 -0.2472  0.3128 -0.3448
64602SOL    HW198617   9.716   7.830   7.246 -0.6742 -0.9650 -1.6544
64602SOL    HW298618   9.832   7.924   7.221  0.1430 -1.3596  0.4449
64603SOL     OW98619   5.280   8.191   9.495 -0.4560  0.4968 -0.2785
64603SOL    HW198620   5.310   8.111   9.537 -0.6025  1.0642  0.9289
64603SOL    HW298621   5.338   8.260   9.529 -0.3424  0.9229 -1.2797
64604SOL     OW98622   8.476   8.089   3.234 -0.1261  0.1977  0.3873
64604SOL    HW198623   8.529   8.037   3.173 -1.2735 -1.0534  0.3903
64604SOL    HW298624   8.539   8.141   3.284  1.2280 -2.1599  1.2803
64605SOL     OW98625   1.961   3.888   3.455  0.1686  0.7108 -1.3087
64605SOL    HW198626   1.888   3.928   3.407  0.5260  1.9461 -0.8653
64605SOL    HW298627   1.932   3.887   3.546  0.0703 -0.2935 -1.3448
64606SOL     OW98628   5.339  11.169   2.848 -1.0088 -0.1818 -0.3981
64606SOL    HW198629   5.266  11.170   2.910 -0.6765  1.6059 -0.0058
64606SOL    HW298630   5.393  11.244   2.872  0.6036 -1.0440 -1.1376
64607SOL     OW98631  12.473   8.259   6.395 -0.2424 -0.3222  0.1862
64607SOL    HW198632  12.416   8.238   6.469 -0.9033 -0.7899 -0.4383
64607SOL    HW298633  12.562   8.242   6.427 -0.5304 -0.6986  0.8088
64608SOL     OW98634   3.350   1.971   7.997  0.9148  0.3899  0.4124
64608SOL    HW198635   3.282   1.903   8.001  1.7827 -0.6551 -1.4439
64608SOL    HW298636   3.366   1.993   8.089  0.0163 -1.3184  1.0411
64609SOL     OW98637   5.073   4.369   2.494  0.0979 -0.0617 -0.1099
64609SOL    HW198638   5.020   4.310   2.547 -0.4348  0.6321  0.1301
64609SOL    HW298639   5.153   4.318   2.476 -0.9578 -1.4261 -1.1727
64610SOL     OW98640   5.686   7.857  11.501  0.2740 -0.2050  0.4221
64610SOL    HW198641   5.598   7.892  11.508 -0.8941 -2.5479 -1.2127
64610SOL    HW298642   5.720   7.894  11.419  1.1888  1.3260  1.4417
64611SOL     OW98643  11.059   2.098   0.538  0.1581  0.0696  0.5806
64611SOL    HW198644  10.990   2.164   0.532  0.0539 -0.1859 -2.6827
64611SOL    HW298645  11.138   2.143   0.508  0.2672 -0.9963 -0.8259
64612SOL     OW98646   2.692   3.132  12.105 -0.1881  0.5213  0.4318
64612SOL    HW198647   2.761   3.065  12.103  1.2098  1.8557  1.5018
64612SOL    HW298648   2.717   3.194  12.036 -0.9605  0.4261  0.0630
64613SOL     OW98649   4.204   3.394   6.980  0.3049  0.2818 -0.2203
64613SOL    HW198650   4.287   3.436   6.959  0.3503  1.2614  1.6645
64613SOL    HW298651   4.227   3.326   7.044 -0.4272  1.2728  1.1396
64614SOL     OW98652   2.420  11.999  11.061  0.1463  0.2342  0.0069
64614SOL    HW198653   2.337  11.952  11.050 -0.2230  0.6203  0.9609
64614SOL    HW298654   2.395  12.081  11.105  0.9174  0.8060 -0.5923
64615SOL     OW98655  12.490   4.011   7.827 -0.1795  0.0264  0.3297
64615SOL    HW198656  12.585   4.005   7.824 -0.1813 -0.1719  0.6320
64615SOL    HW298657  12.470   4.101   7.801  0.1851  0.5973  1.8904
64616SOL     OW98658  12.039  10.216   3.043  0.1381  0.0698  0.5427
64616SOL    HW198659  12.037  10.306   3.077  1.9727  0.1402  0.5887
64616SOL    HW298660  11.948  10.187   3.045 -0.3949  1.6827  1.1891
64617SOL     OW98661   6.851  12.126   5.870 -0.2544  0.5218 -0.5120
64617SOL    HW198662   6.799  12.061   5.917 -0.7113 -1.1351 -3.1290
64617SOL    HW298663   6.939  12.118   5.907 -0.6048 -0.6259  0.1071
64618SOL     OW98664   2.997   5.414   1.322 -0.4496  0.3765  0.1831
64618SOL    HW198665   3.089   5.438   1.327 -0.4577  0.4688 -0.1059
64618SOL    HW298666   2.970   5.405   1.413  0.6763 -2.8583  0.3471
64619SOL     OW98667   7.272   8.641   1.136  0.1590  0.2747  0.5041
64619SOL    HW198668   7.346   8.702   1.140  2.5410 -2.3594 -0.4386
64619SOL    HW298669   7.290   8.577   1.205  0.0130 -1.6518 -1.1652
64620SOL     OW98670   5.304   8.455   7.218  0.0701 -0.3877 -0.4321
64620SOL    HW198671   5.324   8.392   7.286 -0.0477 -0.0100 -0.0455
64620SOL    HW298672   5.356   8.427   7.143  1.7444  0.3322  0.4179
64621SOL     OW98673  10.342   7.269   1.815 -0.3459 -0.4034 -0.0710
64621SOL    HW198674  10.389   7.209   1.757  0.7868 -1.9130  2.2364
64621SOL    HW298675  10.375   7.356   1.790  1.8211 -1.1923 -0.2381
64622SOL     OW98676   4.353   7.035   9.233 -0.2447  0.3307 -0.5879
64622SOL    HW198677   4.264   7.026   9.197 -0.2416 -2.7493 -0.0855
64622SOL    HW298678   4.404   6.968   9.187  1.2679  0.4729  0.7979
64623SOL     OW98679  11.270   9.810   8.583 -0.2410  0.1247 -0.3152
64623SOL    HW198680  11.197   9.793   8.642  0.3347  0.8032  0.6131
64623SOL    HW298681  11.322   9.877   8.627  1.0100 -0.4293 -0.9061
64624SOL     OW98682   7.181   1.964   8.179  0.1935 -0.0535  0.2376
64624SOL    HW198683   7.212   1.923   8.099 -2.7574  0.8412 -1.5248
64624SOL    HW298684   7.136   1.894   8.227 -0.2129 -0.0646 -0.1519
64625SOL     OW98685   1.442   6.410   2.973 -0.2745 -0.0674 -0.3303
64625SOL    HW198686   1.513   6.350   2.994 -1.5458 -0.9356  1.8965
64625SOL    HW298687   1.430   6.403   2.879  1.5854 -0.9958 -0.5372
64626SOL     OW98688   1.260   8.228   6.603  0.5767  0.3381  0.0812
64626SOL    HW198689   1.244   8.198   6.692  0.6839 -0.3920 -0.1420
64626SOL    HW298690   1.340   8.184   6.576  1.1833  1.4380  0.0209
64627SOL     OW98691  10.456   8.098  11.675 -0.1587 -0.1079 -0.2434
64627SOL    HW198692  10.489   8.187  11.664 -1.3836  0.4159  0.1329
64627SOL    HW298693  10.432   8.093  11.768 -2.8768  0.1964 -0.8601
64628SOL     OW98694   1.774   4.065   6.426  0.5375 -0.2704 -0.7463
64628SOL    HW198695   1.678   4.057   6.418  0.4877  0.7299 -1.1969
64628SOL    HW298696   1.799   4.122   6.354  1.8034 -2.6204 -2.2755
64629SOL     OW98697   7.957   3.366   1.457 -0.0854  0.0839  0.4098
64629SOL    HW198698   8.004   3.353   1.540 -0.0799 -0.2127  0.3615
64629SOL    HW298699   8.012   3.425   1.406  0.4177 -0.5575  0.2023
64630SOL     OW98700  10.873   3.514  11.462 -0.0623 -0.2787  0.2005
64630SOL    HW198701  10.856   3.539  11.553  0.1376 -1.7580  0.6666
64630SOL    HW298702  10.966   3.536  11.448  0.4154 -1.6708  0.9523
64631SOL     OW98703   3.738  10.161   7.354 -0.8715  0.0590  0.5025
64631SOL    HW198704   3.714  10.143   7.445  1.7805  0.2141  1.3053
64631SOL    HW298705   3.664  10.211   7.319 -2.5699 -1.1687  2.1096
64632SOL     OW98706   8.046   6.567   6.373  0.4728 -0.1179 -0.1787
64632SOL    HW198707   8.126   6.566   6.426 -0.1819  1.3758  0.8910
64632SOL    HW298708   7.984   6.512   6.422  0.3743 -0.0573 -0.2345
64633SOL     OW98709   9.668  12.546   7.709 -0.1788  0.2787 -0.9379
64633SOL    HW198710   9.669  12.563   7.803  0.4362  1.3617 -1.1197
64633SOL    HW298711   9.752  12.506   7.690  0.5875  1.9752 -1.3213
64634SOL     OW98712   1.532   8.553   0.449  1.0648  0.9625 -0.5634
64634SOL    HW198713   1.495   8.633   0.486  2.4384  1.7721 -0.8913
64634SOL    HW298714   1.590   8.583   0.379  0.2120 -0.4203 -1.9478
64635SOL     OW98715  10.011   5.835  11.026  0.1676 -0.2527 -0.0395
64635SOL    HW198716  10.067   5.829  11.103  0.8761 -0.1146 -0.5372
64635SOL    HW298717   9.924   5.852  11.061  0.4608 -0.3232  0.7362
64636SOL     OW98718   6.780   3.761   3.909 -0.2760  0.0920 -0.5428
64636SOL    HW198719   6.812   3.698   3.844 -1.9355  0.2586 -1.5984
64636SOL    HW298720   6.845   3.831   3.910 -1.7810  1.8786 -4.7458
64637SOL     OW98721  10.823   7.172   8.979  0.8203 -0.0075  0.3231
64637SOL    HW198722  10.771   7.136   8.907 -1.4256  0.1554  1.7704
64637SOL    HW298723  10.793   7.262   8.988  3.4458  1.0238 -0.6037
64638SOL     OW98724   5.994   2.769   0.680 -0.4940  0.1766 -0.2333
64638SOL    HW198725   6.050   2.731   0.747  0.8321 -1.9618 -2.4071
64638SOL    HW298726   5.919   2.709   0.674 -1.2009  0.9991  0.0770
64639SOL     OW98727   0.363   7.042  10.950  0.3164  0.3262  0.5779
64639SOL    HW198728   0.391   7.127  10.917  0.8021  0.4556  1.3128
64639SOL    HW298729   0.277   7.028  10.910  0.4565  0.9233  0.0498
64640SOL     OW98730   7.418   3.158   6.057  0.0088 -0.2416  0.9367
64640SOL    HW198731   7.457   3.232   6.010 -0.2643  0.4684  1.8021
64640SOL    HW298732   7.477   3.085   6.038 -0.5682 -0.2253 -1.2180
64641SOL     OW98733   3.969  10.132   0.488  0.0491 -0.2300 -0.2874
64641SOL    HW198734   3.951  10.122   0.394  0.3464 -0.3441 -0.3332
64641SOL    HW298735   3.910  10.069   0.530  1.1933 -1.5092 -0.5132
64642SOL     OW98736   6.782   6.755   8.621 -0.5041 -0.4498  0.1805
64642SOL    HW198737   6.865   6.708   8.631 -0.2965 -0.7374 -2.2807
64642SOL    HW298738   6.750   6.766   8.711  2.3470 -0.0191  1.2653
64643SOL     OW98739  11.709   4.423   1.043 -0.6298  0.1531 -0.2391
64643SOL    HW198740  11.734   4.504   0.997  0.3145 -1.4984 -2.8677
64643SOL    HW298741  11.627   4.397   1.002 -0.2640 -0.8633 -0.3607
64644SOL     OW98742   6.564   0.995   4.366  0.1146 -0.0260  0.9238
64644SOL    HW198743   6.520   1.080   4.372 -1.1862 -0.5585 -0.5508
64644SOL    HW298744   6.649   1.014   4.328 -0.1554  0.6264  0.6342
64645SOL     OW98745   5.499   1.084   8.339 -0.2507  0.7789 -0.0003
64645SOL    HW198746   5.536   1.144   8.403  0.2008  0.4917  0.0173
64645SOL    HW298747   5.467   1.010   8.391  1.5154 -0.1794 -0.1897
64646SOL     OW98748   1.984  11.897   4.174  0.5638 -0.1618  0.0691
64646SOL    HW198749   2.049  11.917   4.242 -0.4102  1.3567  0.6121
64646SOL    HW298750   1.981  11.977   4.121  0.1751 -0.7570 -0.8206
64647SOL     OW98751  10.290   8.094   7.872  0.1929 -0.1597 -0.3253
64647SOL    HW198752  10.330   8.008   7.855  0.9445  0.0154  0.4511
64647SOL    HW298753  10.356   8.141   7.923 -0.7202  0.4158  0.3687
64648SOL     OW98754   4.276  12.272   1.999  0.2618 -0.2579 -0.2474
64648SOL    HW198755   4.280  12.277   1.903 -0.0695 -0.8837 -0.2986
64648SOL    HW298756   4.342  12.334   2.029 -1.2844  1.8043 -0.8476
64649SOL     OW98757  10.660   7.987   7.144 -0.1088  0.1156 -0.1613
64649SOL    HW198758  10.731   7.968   7.206 -0.7637  0.6411  0.7920
64649SOL    HW298759  10.617   7.903   7.131 -0.6696  0.1934  1.0383
64650SOL     OW98760   8.959  11.480   9.080  0.2338  0.1036 -0.9886
64650SOL    HW198761   8.993  11.392   9.065  0.5552  0.2101 -0.9049
64650SOL    HW298762   9.005  11.510   9.158 -0.8955 -0.1807 -0.1863
64651SOL     OW98763   5.499  10.967   3.166 -0.2812  0.1477  0.0603
64651SOL    HW198764   5.552  10.909   3.111  0.4528  0.0560  0.8575
64651SOL    HW298765   5.536  11.054   3.151 -0.6217  0.2485 -0.2202
64652SOL     OW98766   4.265   3.132   5.201 -0.1376 -0.1676 -0.2757
64652SOL    HW198767   4.176   3.152   5.230  0.3238  1.2140  0.2857
64652SOL    HW298768   4.302   3.217   5.178  1.3716 -0.5776  0.4985
64653SOL     OW98769   5.296  10.376   1.527 -0.0338  0.2267  0.5383
64653SOL    HW198770   5.376  10.368   1.475  0.4700 -0.5708  1.4098
64653SOL    HW298771   5.306  10.312   1.598 -1.5818 -0.1093  0.4997
64654SOL     OW98772  10.776   0.155   5.694  0.2074  0.0799  0.4051
64654SOL    HW198773  10.839   0.205   5.641  1.1060  0.3526  1.6893
64654SOL    HW298774  10.744   0.087   5.635  1.7969 -0.1421 -0.2708
64655SOL     OW98775   2.624   5.015   5.554 -0.3396 -0.1614  0.3730
64655SOL    HW198776   2.551   4.964   5.589  0.4418 -3.0654 -1.8471
64655SOL    HW298777   2.690   5.012   5.624 -0.9343 -0.7973  0.9284
64656SOL     OW98778   0.125  12.563  12.546  0.1948 -0.3195  0.1750
64656SOL    HW198779   0.182  12.573  12.622 -0.1464  0.2393  0.3645
64656SOL    HW298780   0.161  12.624  12.481  1.1432 -1.5764 -0.5249
64657SOL     OW98781   6.898  10.764   4.548  0.1336  0.5467  0.1158
64657SOL    HW198782   6.921  10.756   4.455 -0.0852 -0.5216  0.1428
64657SOL    HW298783   6.943  10.691   4.590 -0.9722  0.1306  0.6195
64658SOL     OW98784   6.583   6.885   9.163 -0.0210  0.2761 -0.1255
64658SOL    HW198785   6.510   6.912   9.106  0.2563 -0.3828 -0.8031
64658SOL    HW298786   6.546   6.886   9.251 -0.5872  0.8573 -0.3605
64659SOL     OW98787   1.424   4.943   3.047 -0.2014 -0.0139  0.1069
64659SOL    HW198788   1.418   4.973   3.137 -0.4052 -1.3509  0.5597
64659SOL    HW298789   1.354   4.990   3.001  0.1384  0.9413  0.5477
64660SOL     OW98790   5.516  12.344   1.195 -0.2368  0.3854 -0.3132
64660SOL    HW198791   5.581  12.404   1.158  0.6153 -0.5273 -0.3553
64660SOL    HW298792   5.569  12.273   1.233 -1.0431  1.1701  2.5261
64661SOL     OW98793   8.719   5.794  11.516  0.0962 -0.1075  0.5000
64661SOL    HW198794   8.636   5.841  11.508 -0.4598 -0.3552  3.5840
64661SOL    HW298795   8.785   5.856  11.486 -0.9878  1.1108  0.5436
64662SOL     OW98796   8.666  12.300   1.073  0.0159 -0.3337 -0.5519
64662SOL    HW198797   8.652  12.309   0.979 -1.6282  1.7689 -0.1719
64662SOL    HW298798   8.579  12.285   1.110  0.6331 -1.1790  0.6529
64663SOL     OW98799   9.519   7.244   4.057 -0.4790 -0.0342  0.0281
64663SOL    HW198800   9.613   7.230   4.050 -0.1794  1.5715  0.3631
64663SOL    HW298801   9.482   7.195   3.984  0.8681  1.3903 -1.7107
64664SOL     OW98802   3.786  12.365   7.712  0.2895  0.5430 -0.2304
64664SOL    HW198803   3.859  12.311   7.682  1.0359  1.6320 -0.4365
64664SOL    HW298804   3.714  12.303   7.724  0.3849 -0.1750 -2.7753
64665SOL     OW98805   5.375  10.768   1.589  0.1060 -0.0419  0.0299
64665SOL    HW198806   5.379  10.863   1.593 -0.7471 -0.0233  1.0826
64665SOL    HW298807   5.457  10.738   1.628  0.3903  0.2612 -0.3369
64666SOL     OW98808   8.290   9.903   4.960 -0.4997 -0.0224 -0.1806
64666SOL    HW198809   8.351   9.968   4.925 -0.2595  0.1194  0.5047
64666SOL    HW298810   8.246   9.868   4.882  1.9372 -1.6676 -0.9524
64667SOL     OW98811   1.123   4.736   5.141  0.0321  0.5436  0.1435
64667SOL    HW198812   1.028   4.737   5.148  0.0478 -0.3726  0.5801
64667SOL    HW298813   1.154   4.767   5.226  0.1190 -0.6444  0.5729
64668SOL     OW98814   1.721   3.927   4.984 -0.1373 -0.3953  0.1046
64668SOL    HW198815   1.719   4.005   5.040 -1.8584 -0.1523 -0.2291
64668SOL    HW298816   1.812   3.900   4.983  0.1354  0.3547  1.9649
64669SOL     OW98817   7.556  10.253   3.701 -0.2227 -0.6153  0.1487
64669SOL    HW198818   7.465  10.280   3.692 -0.3239 -0.9757  0.0761
64669SOL    HW298819   7.602  10.296   3.629 -0.2864 -0.2138  0.3476
64670SOL     OW98820   5.581   3.059   7.713  0.0353 -0.2940 -0.2172
64670SOL    HW198821   5.506   3.002   7.695  0.2180 -0.5521 -0.1614
64670SOL    HW298822   5.657   3.007   7.686  0.2860 -0.5292  0.9154
64671SOL     OW98823   2.227   9.037   6.299 -0.0046 -0.2575 -0.2795
64671SOL    HW198824   2.168   8.968   6.327  0.2901 -0.6046 -0.5122
64671SOL    HW298825   2.301   9.033   6.360 -0.3898  0.4282  0.2538
64672SOL     OW98826   8.097   0.795   7.420  0.2752  0.5838 -0.2233
64672SOL    HW198827   8.176   0.761   7.377  0.9145  3.3977 -1.5422
64672SOL    HW298828   8.025   0.756   7.372  0.9719  1.4637 -2.0927
64673SOL     OW98829   1.918   6.599   7.039  0.4965 -0.2325 -0.1925
64673SOL    HW198830   1.993   6.551   7.075  0.6839 -0.0452 -0.3270
64673SOL    HW298831   1.938   6.691   7.057  0.5468 -0.1442 -0.6891
64674SOL     OW98832   5.540   5.787   0.167 -0.0433  0.0527  0.2265
64674SOL    HW198833   5.614   5.837   0.132 -0.0427  0.7029  1.1059
64674SOL    HW298834   5.479   5.853   0.198 -0.1345 -0.4738  1.2257
64675SOL     OW98835   9.511   7.877   2.555  0.0065  0.2901  0.9808
64675SOL    HW198836   9.579   7.872   2.623 -0.5314 -1.2761  1.4436
64675SOL    HW298837   9.440   7.823   2.589 -0.3291 -0.4295 -0.7828
64676SOL     OW98838  11.305   6.051   5.034 -0.2942  0.3123  0.3031
64676SOL    HW198839  11.214   6.072   5.016 -0.1006  0.3880 -0.6713
64676SOL    HW298840  11.322   6.088   5.120 -0.6583  2.0288 -0.3204
64677SOL     OW98841   5.840  10.555   6.423  0.1822 -0.3397  0.1167
64677SOL    HW198842   5.750  10.586   6.436  0.2230  0.1623 -0.7661
64677SOL    HW298843   5.842  10.524   6.333  1.2596  0.9042 -0.3093
64678SOL     OW98844  12.440   2.497   8.856  0.1546  0.1600  0.5662
64678SOL    HW198845  12.474   2.544   8.780  1.5450  1.4150  1.8903
64678SOL    HW298846  12.397   2.565   8.908 -1.5185 -0.8249  0.5586
64679SOL     OW98847   4.191   6.771  12.603 -0.3541  0.1250  0.3031
64679SOL    HW198848   4.107   6.733  12.578 -0.4764  1.1526 -0.9391
64679SOL    HW298849   4.197   6.852  12.554  1.9983 -0.5844 -0.7576
64680SOL     OW98850   3.592   2.921   9.970 -0.0335 -0.0070 -0.5095
64680SOL    HW198851   3.588   2.826   9.986 -0.3216 -0.0394 -0.7560
64680SOL    HW298852   3.644   2.955  10.042  0.0176 -0.3473 -0.3812
64681SOL     OW98853   0.498  11.554   7.017 -0.5746 -0.2572  0.5681
64681SOL    HW198854   0.443  11.622   6.979  0.3689 -0.1219 -0.5947
64681SOL    HW298855   0.505  11.488   6.949  2.0958  0.5244 -0.0204
64682SOL     OW98856   6.812   0.312   4.612 -0.0690  0.0897  0.4820
64682SOL    HW198857   6.872   0.247   4.576 -1.1694 -0.6848 -0.0154
64682SOL    HW298858   6.820   0.388   4.553  0.0115 -0.2136  0.1016
64683SOL     OW98859  10.154   8.099   6.898 -0.2401  0.9480 -0.1197
64683SOL    HW198860  10.097   8.022   6.907 -0.2691  0.9667 -0.1388
64683SOL    HW298861  10.193   8.110   6.985 -0.5254  1.1349 -0.0135
64684SOL     OW98862   9.097   8.375  11.451 -0.3843 -0.0563  0.3504
64684SOL    HW198863   9.072   8.450  11.397 -1.9587 -0.9566 -0.2379
64684SOL    HW298864   9.030   8.371  11.519 -2.1097 -2.6096 -1.3341
64685SOL     OW98865   6.686   1.323   8.340 -0.2937 -0.1887  0.1004
64685SOL    HW198866   6.704   1.245   8.393 -3.1022 -0.1093  1.3561
64685SOL    HW298867   6.628   1.292   8.271 -0.4764  0.5821 -0.0983
64686SOL     OW98868   6.479   7.965  11.557  0.2958  0.7650 -0.2270
64686SOL    HW198869   6.522   8.051  11.559  0.1555  0.8422 -0.4488
64686SOL    HW298870   6.399   7.980  11.507 -1.2574  1.2057  2.1952
64687SOL     OW98871  10.943   4.695   6.081 -0.3230  0.2433 -0.0680
64687SOL    HW198872  10.917   4.676   6.171  0.2619 -0.0801  0.0336
64687SOL    HW298873  10.979   4.612   6.049  1.7227  0.9800  0.1795
64688SOL     OW98874  11.957   8.133   1.393 -0.2390 -0.5925 -0.4196
64688SOL    HW198875  11.977   8.187   1.469  0.9031  0.6522 -1.5503
64688SOL    HW298876  11.871   8.165   1.363 -0.6938 -1.0912  0.3212
64689SOL     OW98877  10.285   3.958   7.102  0.1891  0.2493  0.5409
64689SOL    HW198878  10.270   3.916   7.018 -0.9157  0.7851  0.4489
64689SOL    HW298879  10.285   3.886   7.166 -0.2538 -0.0314  0.2276
64690SOL     OW98880   7.769   8.064   6.902 -0.1422  0.6687 -0.2105
64690SOL    HW198881   7.844   8.023   6.945 -1.0400 -1.0018 -0.1705
64690SOL    HW298882   7.694   8.010   6.927 -1.4410  2.5171  0.0463
64691SOL     OW98883   6.616   9.506   5.678 -0.8001  0.0393 -0.0940
64691SOL    HW198884   6.689   9.531   5.734 -0.6464  1.7333 -0.9693
64691SOL    HW298885   6.543   9.560   5.709 -1.5287 -1.1644  0.3509
64692SOL     OW98886   3.027   1.699   6.483 -0.0637  0.2450 -0.3267
64692SOL    HW198887   3.111   1.712   6.527  0.4082  1.4522 -1.5076
64692SOL    HW298888   2.961   1.714   6.551  0.6610 -1.2347  0.7422
64693SOL     OW98889  12.518   4.971   0.170 -0.6889  0.1949 -0.4133
64693SOL    HW198890  12.526   5.019   0.088 -0.0315 -0.3365 -0.6681
64693SOL    HW298891  12.594   4.913   0.172 -2.4900 -2.4063 -1.1556
64694SOL     OW98892  11.106   9.664   9.434  0.3441  0.2156 -0.2456
64694SOL    HW198893  11.052   9.593   9.399  0.0450  0.3571 -0.0801
64694SOL    HW298894  11.118   9.724   9.360 -1.5786  1.2988  0.2313
64695SOL     OW98895   9.947   1.866   9.793  0.2270  0.2260 -0.0250
64695SOL    HW198896   9.943   1.903   9.704 -0.6569 -0.2227 -0.1839
64695SOL    HW298897   9.904   1.781   9.785 -1.1176  0.7577  1.1018
64696SOL     OW98898   6.934   6.015   8.701 -0.0567 -0.6111  0.2579
64696SOL    HW198899   6.937   6.104   8.737 -0.6082 -1.2524  2.0275
64696SOL    HW298900   6.901   6.026   8.612 -0.4672  0.9296  0.5662
64697SOL     OW98901   1.279   2.036   0.808 -0.2001  0.4712 -0.3925
64697SOL    HW198902   1.277   2.020   0.903  2.0252  1.5395 -0.1074
64697SOL    HW298903   1.231   2.118   0.797 -0.1015  0.5655 -0.1336
64698SOL     OW98904   0.858   3.289   1.927 -0.5389  0.0587  0.1732
64698SOL    HW198905   0.787   3.349   1.948 -1.4524 -1.1395  0.6201
64698SOL    HW298906   0.828   3.204   1.959  0.3207 -0.8204 -1.2491
64699SOL     OW98907   4.307   4.683  10.311  0.1981  0.5232 -0.0348
64699SOL    HW198908   4.247   4.734  10.258 -0.2930 -0.1080 -0.1049
64699SOL    HW298909   4.353   4.747  10.365 -2.2323  0.8836  1.7530
64700SOL     OW98910   3.626  11.318  12.211 -0.4113  0.7648 -0.1935
64700SOL    HW198911   3.609  11.412  12.206 -0.4290  0.7076 -2.0990
64700SOL    HW298912   3.546  11.277  12.177 -0.4477  0.0382  0.7123
64701SOL     OW98913   3.038   0.668   0.789  0.5954  0.2340  0.6895
64701SOL    HW198914   2.963   0.645   0.734  1.1560  1.6340 -0.7437
64701SOL    HW298915   3.005   0.735   0.849  0.4632  0.1665  0.6905
64702SOL     OW98916   9.028   8.364  12.427 -0.0670 -0.0428  0.4374
64702SOL    HW198917   9.082   8.326  12.358 -0.7288 -0.7736  0.3011
64702SOL    HW298918   8.950   8.395  12.381  0.6862  2.0159  0.4624
64703SOL     OW98919   6.080  10.280  12.393  0.8565 -0.1620 -0.3281
64703SOL    HW198920   6.093  10.304  12.301  1.1433 -0.3353 -0.3331
64703SOL    HW298921   6.141  10.336  12.441 -2.2536  3.1809  0.1935
64704SOL     OW98922   1.969   5.544   8.968  0.2315  0.4944 -1.3530
64704SOL    HW198923   1.929   5.458   8.952  0.0211  0.2432  0.3404
64704SOL    HW298924   2.008   5.568   8.884  1.9850 -2.1476 -1.4303
64705SOL     OW98925   7.017   1.264   1.829  0.7660 -0.1908  1.0777
64705SOL    HW198926   7.081   1.202   1.864  0.1149 -0.9933  0.8948
64705SOL    HW298927   6.939   1.211   1.813  0.9079  0.1954 -1.2504
64706SOL     OW98928   1.004   7.535  12.562  0.6677 -0.0647  0.5044
64706SOL    HW198929   0.922   7.582  12.573 -0.4504 -1.6224 -0.6686
64706SOL    HW298930   0.982   7.444  12.584  1.4009 -0.9709 -2.1568
64707SOL     OW98931   5.507   9.626   9.188  0.1954  0.0293  0.1457
64707SOL    HW198932   5.521   9.549   9.134  0.5957 -0.6423  1.1747
64707SOL    HW298933   5.470   9.592   9.270 -2.2269  1.1992 -0.3816
64708SOL     OW98934   5.845   2.133  10.809 -0.5185 -0.3064 -0.4086
64708SOL    HW198935   5.853   2.223  10.777  0.5481 -0.5213 -0.8103
64708SOL    HW298936   5.751   2.116  10.810 -0.6629  0.2540 -1.9194
64709SOL     OW98937   0.720   3.921   4.453 -0.0631  0.6261  0.1175
64709SOL    HW198938   0.724   3.859   4.380 -0.1356  0.9150 -0.1373
64709SOL    HW298939   0.630   3.917   4.484 -0.3142  1.2756 -0.4995
64710SOL     OW98940  11.146   9.235   1.426  0.0451  0.5206  0.0771
64710SOL    HW198941  11.173   9.153   1.467 -1.3775  0.4087  0.8466
64710SOL    HW298942  11.218   9.295   1.443  0.3622 -0.0929  0.9815
64711SOL     OW98943   4.679   1.771  12.556  0.0765 -0.1313  0.3684
64711SOL    HW198944   4.754   1.712  12.556 -0.2788 -0.5903  0.7688
64711SOL    HW298945   4.691   1.825  12.477  0.6371 -0.4306  0.2429
64712SOL     OW98946   8.092   6.737   4.957  0.6442 -0.3362  0.4944
64712SOL    HW198947   8.053   6.789   5.027  1.5581 -0.1932  0.9122
64712SOL    HW298948   8.096   6.797   4.882  1.9975  0.3222  1.0692
64713SOL     OW98949   1.848   3.401   2.342 -0.5675 -0.4196  0.3579
64713SOL    HW198950   1.754   3.395   2.358 -0.4108 -1.1501  1.1163
64713SOL    HW298951   1.886   3.329   2.394  0.1960 -1.7574 -1.9197
64714SOL     OW98952   8.371   8.400  11.023  0.2480  0.1367 -0.9309
64714SOL    HW198953   8.417   8.477  11.055  1.7850 -0.6842 -1.0638
64714SOL    HW298954   8.391   8.398  10.929 -0.7422  0.1880 -1.1638
64715SOL     OW98955   2.295   3.957  10.577 -0.3665 -0.6083  0.2265
64715SOL    HW198956   2.279   3.945  10.671  2.2038 -2.4314  0.5392
64715SOL    HW298957   2.294   4.052  10.565 -0.4642 -0.3171  2.1661
64716SOL     OW98958  11.177   9.643   7.985  0.1710  0.5528 -0.6012
64716SOL    HW198959  11.153   9.702   8.057 -1.4051 -0.5077 -0.2328
64716SOL    HW298960  11.257   9.600   8.016  0.4674  1.3433 -0.2248
64717SOL     OW98961   9.506   7.816   1.445 -0.3816 -0.2035  0.0612
64717SOL    HW198962   9.435   7.878   1.431 -0.4924 -0.6548 -1.5931
64717SOL    HW298963   9.488   7.777   1.531 -1.3602  0.6622  0.2640
64718SOL     OW98964   9.816   4.911   1.683  0.3101  0.0413 -0.4080
64718SOL    HW198965   9.796   4.823   1.713  0.1675  0.0858 -0.3702
64718SOL    HW298966   9.827   4.962   1.764 -1.0244  0.3778 -0.4132
64719SOL     OW98967   0.694   9.418   1.836 -0.0985 -0.1097 -0.4080
64719SOL    HW198968   0.640   9.371   1.772 -1.9551  2.4283 -0.8690
64719SOL    HW298969   0.680   9.510   1.816  0.3294  0.7689  2.7950
64720SOL     OW98970   1.176   2.929   9.621 -0.4502 -0.1311  0.4395
64720SOL    HW198971   1.138   2.844   9.646 -1.7578  0.5945  1.0154
64720SOL    HW298972   1.138   2.991   9.683  0.1397  0.9570 -0.2604
64721SOL     OW98973   3.144  11.535   6.159 -0.3189  0.3484  0.2190
64721SOL    HW198974   3.149  11.618   6.111  0.9592  0.1965  0.0554
64721SOL    HW298975   3.053  11.508   6.149 -0.2443  0.6006 -1.6909
64722SOL     OW98976   9.959  11.175   0.804 -0.4126 -0.0127 -0.2068
64722SOL    HW198977   9.868  11.180   0.776 -0.7755 -1.6774  0.5706
64722SOL    HW298978   9.998  11.110   0.744  0.2937  0.7616 -0.5965
64723SOL     OW98979   7.832   3.897   4.194 -0.4988  0.0268 -0.1286
64723SOL    HW198980   7.895   3.934   4.133 -0.9207  2.4728  0.8093
64723SOL    HW298981   7.751   3.945   4.177 -0.8735  0.1030  1.6954
64724SOL     OW98982   7.831   4.244   9.628  0.5675 -0.1540 -0.1772
64724SOL    HW198983   7.802   4.330   9.595  1.5187 -0.3410 -1.6010
64724SOL    HW298984   7.890   4.265   9.700  0.0956  0.3462  0.0749
64725SOL     OW98985   6.987   2.965  12.089  0.4502 -0.6408 -0.0978
64725SOL    HW198986   6.987   3.002  12.001  0.2716 -0.7023 -0.1245
64725SOL    HW298987   7.038   3.027  12.141  0.0215 -0.2674 -0.1115
64726SOL     OW98988   5.826   9.535  10.762 -0.6854 -0.8793  0.5775
64726SOL    HW198989   5.783   9.452  10.742 -0.2241 -1.7150  2.7860
64726SOL    HW298990   5.756   9.600  10.755 -1.1489 -1.4924 -0.7624
64727SOL     OW98991   5.586   2.930   9.613  0.7638 -0.1386 -1.0083
64727SOL    HW198992   5.647   2.939   9.687 -1.8753  1.4395  1.1484
64727SOL    HW298993   5.589   2.837   9.591  0.8815 -0.8969  1.8275
64728SOL     OW98994   3.916   7.112  12.572  0.0401 -0.2444  0.1405
64728SOL    HW198995   3.910   7.139  12.481  0.3862 -0.2069  0.1252
64728SOL    HW298996   3.835   7.065  12.590  0.6811 -1.7201 -0.6647
64729SOL     OW98997   8.447   2.818   9.687 -0.7336 -0.6649  0.3122
64729SOL    HW198998   8.520   2.868   9.725 -0.8103  0.1767 -0.6061
64729SOL    HW298999   8.476   2.726   9.692  0.2673 -0.3672  0.2295
64730SOL     OW99000   2.809   9.937   5.647  0.0516  0.4804 -0.3865
64730SOL    HW199001   2.752   9.981   5.711  0.0287  0.4859 -0.4107
64730SOL    HW299002   2.892   9.984   5.652  0.5518 -0.4482  0.7363
64731SOL     OW99003  10.105   9.035  10.481  0.0989  0.2456  0.0771
64731SOL    HW199004  10.136   9.035  10.571  1.7430 -1.2462 -0.4223
64731SOL    HW299005  10.027   8.980  10.483  0.2341  0.0627  0.5702
64732SOL     OW99006   3.944   9.199   2.300 -0.1622 -0.1293 -0.1940
64732SOL    HW199007   3.957   9.122   2.245  0.5436 -0.0324 -0.1639
64732SOL    HW299008   3.937   9.164   2.389  0.2239 -0.1554 -0.1725
64733SOL     OW99009   3.769   5.999  11.201 -0.4957 -0.3512  0.4757
64733SOL    HW199010   3.839   5.936  11.218  0.6286  0.6118 -0.3768
64733SOL    HW299011   3.803   6.082  11.234 -1.5256  0.0201  0.6498
64734SOL     OW99012   3.868   5.368  12.337  0.0540 -0.2337 -0.4625
64734SOL    HW199013   3.853   5.447  12.390  0.7028 -0.3947 -0.0339
64734SOL    HW299014   3.797   5.308  12.362  0.9408 -0.7035  0.9882
64735SOL     OW99015  10.458   4.648   0.427  0.7495 -0.7599 -0.2194
64735SOL    HW199016  10.398   4.651   0.352 -1.2489  0.0516  1.3273
64735SOL    HW299017  10.438   4.565   0.471 -0.5256  0.2645  1.2427
64736SOL     OW99018  11.069  10.022   5.037 -0.2538  0.0971  0.0335
64736SOL    HW199019  11.033   9.951   4.983 -1.0156  1.8274 -1.8330
64736SOL    HW299020  11.159  10.032   5.008  0.5273 -1.3807  1.7307
64737SOL     OW99021   1.811   9.875   4.590 -0.0186 -0.5857 -0.1015
64737SOL    HW199022   1.840   9.896   4.678 -1.4767 -1.0305  0.5068
64737SOL    HW299023   1.766   9.954   4.559  0.5262 -0.4147 -0.4757
64738SOL     OW99024   3.402   0.647   9.762  0.4772  0.1620  0.0131
64738SOL    HW199025   3.340   0.581   9.793  0.9322 -0.1301  0.3058
64738SOL    HW299026   3.399   0.639   9.667  1.1720 -0.8919  0.0611
64739SOL     OW99027  10.012   3.465   9.970 -0.3343  0.1540  0.0011
64739SOL    HW199028   9.929   3.434  10.006 -0.2018  1.6439  1.7294
64739SOL    HW299029  10.006   3.447   9.876 -3.1793  1.4529 -0.1480
64740SOL     OW99030  10.089   5.551   6.588  0.4673  0.3313  0.2653
64740SOL    HW199031  10.087   5.479   6.651 -2.8098  0.8577  0.9823
64740SOL    HW299032  10.106   5.629   6.640 -1.8675  0.7180  0.5744
64741SOL     OW99033   9.550   0.324   7.553 -0.4421  0.3734 -0.0433
64741SOL    HW199034   9.627   0.289   7.597 -0.7809 -0.8446 -0.3505
64741SOL    HW299035   9.481   0.260   7.573 -1.5232  1.7002  0.6637
64742SOL     OW99036   7.570   0.261   0.272 -0.4594 -0.0931  0.0948
64742SOL    HW199037   7.563   0.354   0.294  1.0245  0.1000 -0.1238
64742SOL    HW299038   7.663   0.248   0.252 -0.7681 -1.4726 -0.5805
64743SOL     OW99039   4.126   1.843   8.519 -0.1682 -0.3596  0.3425
64743SOL    HW199040   4.196   1.900   8.550 -0.3516  1.8510 -2.8182
64743SOL    HW299041   4.051   1.901   8.509 -0.9809 -1.5899 -1.0366
64744SOL     OW99042   4.143   4.192   0.583 -0.2578 -0.4581  0.0285
64744SOL    HW199043   4.078   4.261   0.567 -0.6489 -0.5298  1.1852
64744SOL    HW299044   4.163   4.157   0.496  0.3646  1.4617 -0.6463
64745SOL     OW99045   7.824   5.887   1.746  0.0133 -0.0229  0.5489
64745SOL    HW199046   7.734   5.893   1.777  0.0423  0.0236  0.6252
64745SOL    HW299047   7.841   5.970   1.703  0.4532  0.5152  1.7146
64746SOL     OW99048   5.704   2.420   3.909  0.0972  0.0418  0.7395
64746SOL    HW199049   5.675   2.494   3.855  0.7933 -0.1673  0.0566
64746SOL    HW299050   5.722   2.458   3.995  1.4252  0.8779  0.1269
64747SOL     OW99051   9.581   7.901   8.371  0.1378 -0.0787  0.3981
64747SOL    HW199052   9.599   7.962   8.300 -0.9682 -0.1809 -0.0035
64747SOL    HW299053   9.590   7.814   8.331 -2.1655 -0.1412 -0.1385
64748SOL     OW99054   8.518   6.842   5.209 -0.0307  0.5283  0.2308
64748SOL    HW199055   8.496   6.921   5.160 -1.6199 -0.7205 -1.2038
64748SOL    HW299056   8.434   6.804   5.232  0.6869 -0.9675  0.5078
64749SOL     OW99057   0.739   9.844   3.772  0.7806 -0.2485  0.2522
64749SOL    HW199058   0.810   9.781   3.788  1.8000  0.7505 -0.2501
64749SOL    HW299059   0.773   9.903   3.705 -0.2574  0.6999  0.5230
64750SOL     OW99060   9.752  12.212   5.342  0.1513  0.0888 -0.4793
64750SOL    HW199061   9.844  12.186   5.338  0.3192  0.5823  0.1546
64750SOL    HW299062   9.720  12.173   5.423 -0.5369 -1.1344 -1.3025
64751SOL     OW99063  10.883   1.545   1.042 -0.3063 -0.3593  0.4240
64751SOL    HW199064  10.912   1.636   1.048  0.6678 -0.7220  1.3070
64751SOL    HW299065  10.789   1.552   1.024  0.0847  0.8235 -1.5085
64752SOL     OW99066   6.891  10.792   9.518  0.2006  0.1317  0.5906
64752SOL    HW199067   6.896  10.739   9.438  0.1859  0.8127  0.1193
64752SOL    HW299068   6.872  10.730   9.588 -1.8541 -0.2436 -0.2213
64753SOL     OW99069   0.837   2.564   4.480  0.3867 -0.2457  0.6125
64753SOL    HW199070   0.918   2.532   4.521  0.0099 -0.3628  1.2739
64753SOL    HW299071   0.773   2.495   4.497 -0.2126  0.4728  1.3037
64754SOL     OW99072  12.139  12.610   1.413 -0.0995  0.7084 -0.3836
64754SOL    HW199073  12.084  12.688   1.405 -0.1883  0.6111 -0.7589
64754SOL    HW299074  12.199  12.615   1.338 -1.1982 -0.4307 -1.3867
64755SOL     OW99075  10.960  12.461   4.082 -0.1158 -0.8873 -0.2190
64755SOL    HW199076  10.968  12.550   4.046  0.8221 -0.7333  0.3319
64755SOL    HW299077  10.866  12.442   4.078 -0.2777 -0.0462 -0.7519
64756SOL     OW99078   8.072   0.716   8.215  0.6257  0.2760 -0.3412
64756SOL    HW199079   8.122   0.786   8.258  0.1483  1.6133 -1.8683
64756SOL    HW299080   7.986   0.720   8.257  0.6086  0.6047 -0.3992
64757SOL     OW99081   6.545  10.011   7.193  0.3414  0.0887 -0.3720
64757SOL    HW199082   6.497   9.982   7.271 -1.0684 -1.1134 -1.6364
64757SOL    HW299083   6.615   9.947   7.182  1.9056  1.4351  1.0465
64758SOL     OW99084   4.553   0.201   2.145 -0.3714  0.2604 -0.4115
64758SOL    HW199085   4.561   0.152   2.063 -0.7782 -0.0275 -0.2825
64758SOL    HW299086   4.635   0.185   2.191 -0.0803  0.5396 -0.8235
64759SOL     OW99087  12.465   9.882   5.546 -0.3325  0.3590 -0.6057
64759SOL    HW199088  12.432   9.863   5.459 -1.2044  0.2642 -0.2583
64759SOL    HW299089  12.390   9.871   5.604  0.2930  0.1653  0.1955
64760SOL     OW99090  10.327   0.891  12.312  0.0096 -0.0905  0.1790
64760SOL    HW199091  10.319   0.959  12.246 -0.6648  1.1914  1.5074
64760SOL    HW299092  10.241   0.850  12.316  0.0975 -0.2794  0.1359
64761SOL     OW99093   7.074   9.214  11.579  0.7568 -0.3571 -0.5524
64761SOL    HW199094   7.075   9.119  11.572  0.6773 -0.2950 -1.6466
64761SOL    HW299095   7.090   9.232  11.672  0.8491 -1.4267 -0.3504
64762SOL     OW99096   3.693   6.530   0.327 -0.1150  0.3938 -0.0290
64762SOL    HW199097   3.683   6.457   0.267  0.6406 -0.3728  0.7521
64762SOL    HW299098   3.785   6.526   0.355 -0.0086  1.7508 -0.1126
64763SOL     OW99099   5.838  10.630   5.896 -0.1628  0.1160  0.0004
64763SOL    HW199100   5.787  10.712   5.896  0.8962  0.8109 -0.9595
64763SOL    HW299101   5.778  10.566   5.858 -0.8370  0.5627  0.2790
64764SOL     OW99102   4.364   9.630  11.706 -0.0750 -0.4792 -0.3250
64764SOL    HW199103   4.410   9.651  11.787  0.0382  0.5626 -0.6401
64764SOL    HW299104   4.434   9.615  11.642 -0.1434  0.5599 -0.6700
64765SOL     OW99105   5.472   7.577   7.192 -0.2015 -0.4364  0.2873
64765SOL    HW199106   5.394   7.622   7.224 -1.3113 -1.7113 -0.4840
64765SOL    HW299107   5.546   7.626   7.229 -1.3266  1.5561  0.0318
64766SOL     OW99108   3.935  12.258   6.933  0.2228 -0.1038  0.4458
64766SOL    HW199109   3.944  12.184   6.873 -0.4467  0.6989 -0.7022
64766SOL    HW299110   4.023  12.296   6.937  0.2547 -0.0935 -0.1614
64767SOL     OW99111   0.676  11.728   1.752 -0.1996  0.5668 -0.3890
64767SOL    HW199112   0.683  11.764   1.664 -1.2693 -0.0198 -0.7302
64767SOL    HW299113   0.622  11.650   1.742  1.1157 -0.4952  0.5202
64768SOL     OW99114   0.135   4.190   2.518  0.1019  0.1102 -0.0083
64768SOL    HW199115   0.199   4.190   2.589 -1.6936 -1.2254  1.7216
64768SOL    HW299116   0.140   4.102   2.482  0.0742  0.3827 -0.6934
64769SOL     OW99117   2.610   1.930   7.635  0.2814  0.2982  0.4479
64769SOL    HW199118   2.606   2.025   7.637 -0.9118  0.2805  3.1476
64769SOL    HW299119   2.677   1.910   7.570 -0.4152  2.9054 -1.2215
64770SOL     OW99120   3.057  12.192   9.998 -0.1990  0.5095  0.2343
64770SOL    HW199121   3.146  12.227   9.992 -0.6016  1.5392  0.1829
64770SOL    HW299122   3.012  12.249  10.060 -1.2107  0.8512 -0.7735
64771SOL     OW99123   7.581  10.360  11.603 -0.3685  0.7369  0.4456
64771SOL    HW199124   7.660  10.306  11.604 -0.4963  0.5052 -0.7266
64771SOL    HW299125   7.513  10.302  11.569 -0.2363  1.9291 -2.1178
64772SOL     OW99126  12.382   5.977  10.006  0.1047 -0.4643 -0.1495
64772SOL    HW199127  12.465   5.930   9.993  0.2319 -0.3865  0.3908
64772SOL    HW299128  12.408   6.066  10.031 -0.1195  0.2841 -2.3761
64773SOL     OW99129   9.128   3.169  12.595  0.1298 -0.4283 -0.1644
64773SOL    HW199130   9.166   3.150  12.509  0.7422  0.7423 -0.1766
64773SOL    HW299131   9.176   3.114  12.656  0.8506 -0.0361 -0.3727
64774SOL     OW99132  11.017   2.705   5.959  0.3090  0.3693 -0.5098
64774SOL    HW199133  11.105   2.731   5.930  1.0881  0.8109  2.0105
64774SOL    HW299134  10.977   2.785   5.991 -0.1973 -0.1850  0.2865
64775SOL     OW99135   7.834  11.742   3.270 -0.0761 -0.6718  0.0987
64775SOL    HW199136   7.807  11.658   3.308  2.7927 -2.0405 -0.6276
64775SOL    HW299137   7.870  11.791   3.344 -0.9752 -0.4016  0.3688
64776SOL     OW99138   2.898   8.684   1.504 -0.3571 -0.2159 -0.2311
64776SOL    HW199139   2.992   8.670   1.497 -0.3071  0.2249 -0.4832
64776SOL    HW299140   2.876   8.657   1.593  0.2259  0.8459  0.2572
64777SOL     OW99141  11.002   3.834   2.771 -0.5749 -0.5147  0.0479
64777SOL    HW199142  10.935   3.879   2.719 -0.0663  0.1837 -0.0148
64777SOL    HW299143  11.020   3.894   2.844  0.7155 -0.2225 -0.4892
64778SOL     OW99144   3.603   3.270   1.564  0.0481  0.5117 -0.0206
64778SOL    HW199145   3.581   3.256   1.657 -0.5276 -1.7362 -0.4394
64778SOL    HW299146   3.673   3.207   1.547  0.4267  1.1928 -1.0339
64779SOL     OW99147   6.371   1.685   0.310 -0.2658 -0.0470 -0.2443
64779SOL    HW199148   6.375   1.771   0.267 -0.9538  0.2498  0.2668
64779SOL    HW299149   6.400   1.701   0.400  0.2239 -0.4796 -0.3190
64780SOL     OW99150  11.284   7.153   3.253  0.3427  0.0507 -0.0126
64780SOL    HW199151  11.282   7.192   3.341 -0.6735  1.0319 -0.4528
64780SOL    HW299152  11.377   7.131   3.240  0.7005  0.9092  0.8774
64781SOL     OW99153  10.032   5.374   0.300 -0.0992 -0.6431 -0.0027
64781SOL    HW199154  10.096   5.335   0.359 -0.2938 -1.2287 -0.1719
64781SOL    HW299155   9.947   5.346   0.335 -0.3243  0.9711  0.8287
64782SOL     OW99156   9.644   3.234   3.969  0.5689  0.4841  0.9028
64782SOL    HW199157   9.629   3.220   3.876  2.4110  1.2982  0.4346
64782SOL    HW299158   9.558   3.253   4.005 -0.4272 -1.5085 -0.2901
64783SOL     OW99159   5.584   1.094   0.500 -0.4282  0.5710 -0.5842
64783SOL    HW199160   5.596   0.999   0.498  0.9928  0.7048  0.1716
64783SOL    HW299161   5.519   1.112   0.432 -0.2786 -0.8812 -1.1347
64784SOL     OW99162   5.339  11.588   6.406 -0.4969 -0.3767 -0.7280
64784SOL    HW199163   5.257  11.577   6.357 -1.4020 -1.1049  0.8808
64784SOL    HW299164   5.317  11.649   6.476  0.1375 -1.1445  0.1601
64785SOL     OW99165   5.996   0.588   3.999 -0.4573 -0.3276  0.1896
64785SOL    HW199166   6.065   0.640   3.956 -0.2838 -0.3042  0.4942
64785SOL    HW299167   6.023   0.584   4.091 -1.2216  0.2726  0.4541
64786SOL     OW99168  10.020   4.313   4.204 -0.4016 -0.1104  0.1471
64786SOL    HW199169  10.054   4.227   4.179  1.3354  0.1789  1.3106
64786SOL    HW299170  10.015   4.310   4.300 -2.9909  0.1797  0.0965
64787SOL     OW99171   9.586   7.253   2.988  0.2893 -0.2291  0.8761
64787SOL    HW199172   9.527   7.304   2.933  0.2658 -1.2260 -0.0559
64787SOL    HW299173   9.536   7.236   3.067  0.1723  0.8731  1.0647
64788SOL     OW99174   6.667   5.606   0.746 -0.8574  0.3486 -0.1745
64788SOL    HW199175   6.752   5.596   0.703 -0.7395  0.5673  0.0075
64788SOL    HW299176   6.604   5.591   0.676 -0.6726 -0.1519 -0.2383
64789SOL     OW99177   1.578   4.024  10.448  0.5408 -0.7559  0.0036
64789SOL    HW199178   1.568   4.088  10.518  0.6452 -2.8275  2.0140
64789SOL    HW299179   1.619   3.948  10.489 -1.0705 -2.7888 -1.8349
64790SOL     OW99180   1.508   8.685   1.372  0.8495 -0.2599  0.1573
64790SOL    HW199181   1.421   8.664   1.406  0.5263  2.1217  0.9386
64790SOL    HW299182   1.543   8.600   1.344 -2.3053 -1.1577 -1.6636
64791SOL     OW99183   3.908   5.774   5.754 -0.1428 -0.0814 -0.4683
64791SOL    HW199184   3.931   5.865   5.735 -0.8116  0.0920 -0.4776
64791SOL    HW299185   3.971   5.722   5.705  0.9049  0.3805  0.3704
64792SOL     OW99186   8.048   2.955   7.732 -0.3491  0.0654  0.3081
64792SOL    HW199187   8.129   3.002   7.754  0.3288 -1.3167  0.9289
64792SOL    HW299188   8.018   2.919   7.816 -0.8558 -0.5659 -0.1398
64793SOL     OW99189   0.116  11.114   8.584  0.1260 -0.3792  0.2665
64793SOL    HW199190   0.121  11.094   8.677  0.5595 -0.3754  0.2465
64793SOL    HW299191   0.165  11.044   8.541 -0.0169 -0.3460  0.0421
64794SOL     OW99192  12.490   7.421   6.318  0.3977  0.4328  0.0838
64794SOL    HW199193  12.484   7.372   6.400  0.9569 -0.1811 -0.2254
64794SOL    HW299194  12.494   7.513   6.344 -0.4970  0.3065  0.6837
64795SOL     OW99195  12.141   7.528   7.114  0.0928 -0.1608  0.0813
64795SOL    HW199196  12.059   7.495   7.150  0.4512 -0.5498  0.5650
64795SOL    HW299197  12.149   7.486   7.028 -0.9607  1.0737 -0.6482
64796SOL     OW99198   3.373  10.997  11.968 -0.2205  0.0490  0.4830
64796SOL    HW199199   3.443  10.933  11.981  0.0631 -0.1620 -1.6883
64796SOL    HW299200   3.360  11.000  11.873 -2.6350  0.6662  0.7604
64797SOL     OW99201   7.514   0.082   8.719 -0.3066 -0.1996 -0.5864
64797SOL    HW199202   7.531   0.135   8.797 -0.8376 -1.0281  0.1190
64797SOL    HW299203   7.591   0.093   8.664  0.3605 -0.1112  0.3533
64798SOL     OW99204   1.684   1.606   9.128 -0.2962  0.4748  0.1504
64798SOL    HW199205   1.595   1.615   9.161 -0.2159  1.3582  0.1506
64798SOL    HW299206   1.714   1.696   9.115  0.4260  0.1779 -0.3066
64799SOL     OW99207   5.522  11.016   8.073  0.1503  0.0138 -0.0886
64799SOL    HW199208   5.440  11.062   8.091 -0.4057 -1.2071  0.6201
64799SOL    HW299209   5.590  11.074   8.106 -0.4127  1.0720 -0.7446
64800SOL     OW99210   0.587   6.441  12.336 -0.6912  0.5228  0.6326
64800SOL    HW199211   0.674   6.429  12.373  0.0031 -0.8363 -1.2753
64800SOL    HW299212   0.561   6.530  12.363  0.8793  0.6161  1.9724
64801SOL     OW99213   2.352   4.607   6.608 -0.1383  0.1778  0.1542
64801SOL    HW199214   2.424   4.665   6.634 -0.9920  1.0519  0.6353
64801SOL    HW299215   2.390   4.519   6.612  1.0006  0.6365  0.0447
64802SOL     OW99216   3.946   0.447  12.595  0.5613  0.2014 -0.5532
64802SOL    HW199217   3.935   0.488  12.509  0.6167 -1.6768 -1.5238
64802SOL    HW299218   3.859   0.450  12.635  0.4968  0.9426 -0.7363
64803SOL     OW99219   2.902   3.794   8.021  0.1605  0.2375 -0.9316
64803SOL    HW199220   2.844   3.848   8.076 -0.9598 -0.2066 -1.6296
64803SOL    HW299221   2.955   3.857   7.973  0.0041  0.6702 -0.5479
64804SOL     OW99222   6.249  11.347   4.256 -0.7447 -0.1084 -0.3064
64804SOL    HW199223   6.296  11.286   4.200 -1.5942 -0.4665 -0.6458
64804SOL    HW299224   6.163  11.307   4.268 -0.3174 -0.4803  1.9801
64805SOL     OW99225   4.141   9.788   1.567 -0.1324  0.1632  0.4645
64805SOL    HW199226   4.189   9.705   1.566 -0.4735 -0.0512 -1.5310
64805SOL    HW299227   4.207   9.854   1.545 -0.0317  0.3551  1.2806
64806SOL     OW99228   3.071   9.307   3.395 -0.3860  0.3984  0.7210
64806SOL    HW199229   3.034   9.226   3.430 -0.6287  0.5882  0.9065
64806SOL    HW299230   2.995   9.357   3.365 -0.1328 -0.1549 -0.9305
64807SOL     OW99231  10.375   0.440  12.342  0.2197  0.3782 -0.9416
64807SOL    HW199232  10.463   0.437  12.304 -0.0236  0.8499 -1.5508
64807SOL    HW299233  10.320   0.480  12.275 -0.5875 -0.4601 -0.8099
64808SOL     OW99234   6.946   0.942  10.963 -0.1563 -0.3983 -0.8641
64808SOL    HW199235   6.912   0.852  10.961  0.7263 -0.7397 -0.9017
64808SOL    HW299236   6.868   0.997  10.971 -0.5765 -1.2595  1.9214
64809SOL     OW99237  12.079  11.585  12.230  0.7311  0.7634 -0.0532
64809SOL    HW199238  12.118  11.573  12.316  2.0524  1.5126 -0.5095
64809SOL    HW299239  12.101  11.675  12.206 -0.7531  1.0048 -0.6277
64810SOL     OW99240   5.080   8.921   1.000  0.2593  0.0003 -0.2825
64810SOL    HW199241   4.987   8.916   0.978  0.2582  0.9313 -0.5074
64810SOL    HW299242   5.099   8.836   1.041 -0.6326 -0.2791 -0.4199
64811SOL     OW99243   7.579   2.954  12.443  0.1347 -0.0787 -0.5674
64811SOL    HW199244   7.502   2.928  12.393 -0.2850  1.0507 -0.5480
64811SOL    HW299245   7.653   2.937  12.384 -0.1452 -0.9423 -0.6792
64812SOL     OW99246  12.084   6.980   6.346  0.3639 -0.3830 -0.0043
64812SOL    HW199247  12.109   6.896   6.386  0.7558  1.0576  3.0615
64812SOL    HW299248  12.152   6.998   6.281  1.7469 -1.2233  1.1649
64813SOL     OW99249   1.717   3.439   2.676  0.4794 -0.2908 -0.3974
64813SOL    HW199250   1.682   3.414   2.761 -1.4379 -0.6303 -1.2199
64813SOL    HW299251   1.805   3.470   2.694  0.7271 -1.8811  1.4861
64814SOL     OW99252   7.131  10.425   3.466 -0.0866  0.3204  0.3684
64814SOL    HW199253   7.077  10.357   3.425 -0.4160  0.7758  0.0233
64814SOL    HW299254   7.121  10.501   3.408  1.2243  0.3078  0.1050
64815SOL     OW99255   7.248   0.910   3.571 -0.0687 -0.0505 -0.2469
64815SOL    HW199256   7.242   0.866   3.656  0.1879  1.6683  0.7129
64815SOL    HW299257   7.169   0.883   3.524  0.3146 -1.8716  0.0870
64816SOL     OW99258  11.208  10.020   7.055 -0.0923 -0.0440  0.0452
64816SOL    HW199259  11.243  10.029   6.966 -3.0955 -1.4268 -1.4131
64816SOL    HW299260  11.159  10.100   7.070 -2.7424 -1.3192 -1.1986
64817SOL     OW99261   1.734   6.109   9.405 -0.3691 -0.3699 -0.0358
64817SOL    HW199262   1.655   6.129   9.355 -0.5048 -2.9551 -0.9709
64817SOL    HW299263   1.705   6.052   9.476  0.4367  0.0109  0.6282
64818SOL     OW99264  10.253   6.845   2.831 -0.2961 -0.6775  0.2128
64818SOL    HW199265  10.206   6.929   2.832  1.1655  0.1988  1.9236
64818SOL    HW299266  10.215   6.797   2.757 -2.6174  0.6525  0.4186
64819SOL     OW99267   9.862   6.416  12.383  0.0609  0.1220 -0.0067
64819SOL    HW199268   9.896   6.469  12.311 -1.4834 -1.4545 -2.0320
64819SOL    HW299269   9.940   6.380  12.426  1.0043  0.2992 -1.5156
64820SOL     OW99270   1.061   8.816  10.776  0.3466 -0.3229 -0.1325
64820SOL    HW199271   1.068   8.803  10.681 -0.0303 -2.5263  0.1039
64820SOL    HW299272   1.070   8.728  10.813  0.4818  0.4984  1.8935
64821SOL     OW99273   6.190   6.319   8.137 -0.1904  0.5270  0.5943
64821SOL    HW199274   6.123   6.364   8.087  0.3025  2.6646  1.7192
64821SOL    HW299275   6.273   6.351   8.100  0.2370 -1.2700 -0.0922
64822SOL     OW99276   6.044   1.956   9.265 -0.3084 -0.0043 -0.1170
64822SOL    HW199277   6.136   1.962   9.289 -0.1086  2.8475 -1.1628
64822SOL    HW299278   6.038   2.000   9.179 -2.7374  0.7240  0.3233
64823SOL     OW99279   3.658   4.508  12.550 -0.1582 -0.1246 -0.0372
64823SOL    HW199280   3.592   4.466  12.496  0.3278  0.4386 -1.1124
64823SOL    HW299281   3.729   4.529  12.489  1.6455 -1.9738  1.3141
64824SOL     OW99282   4.315   8.439   8.080  0.1152 -0.9831  0.1238
64824SOL    HW199283   4.327   8.370   8.146  1.3444 -0.8137  0.0974
64824SOL    HW299284   4.298   8.391   7.999 -0.7040 -1.2067  0.4179
64825SOL     OW99285  10.451  12.123   3.460 -0.1884 -0.1093  0.4389
64825SOL    HW199286  10.387  12.052   3.467 -0.4886  0.2239  1.1905
64825SOL    HW299287  10.528  12.082   3.420 -0.9357 -0.4586 -0.7100
64826SOL     OW99288   2.671   8.209   8.827 -0.2395  0.0319 -0.0657
64826SOL    HW199289   2.761   8.177   8.834 -0.4241 -0.1721  2.1355
64826SOL    HW299290   2.678   8.304   8.838 -0.3110 -0.0227  0.4810
64827SOL     OW99291  11.182   1.807   4.323 -0.4833  0.0090  0.2156
64827SOL    HW199292  11.264   1.759   4.332  0.1557  1.3042  1.7536
64827SOL    HW299293  11.116   1.749   4.362 -0.0706 -0.4745  0.1973
64828SOL     OW99294  11.599  10.406   3.484  0.2754  0.1549 -0.4046
64828SOL    HW199295  11.667  10.382   3.548  0.6879  0.2386 -0.8086
64828SOL    HW299296  11.517  10.376   3.524  0.5661 -0.0812  0.0203
64829SOL     OW99297   6.759   2.204  10.157  0.1829  0.1111  0.0590
64829SOL    HW199298   6.851   2.213  10.181  0.6521 -0.2846 -1.4944
64829SOL    HW299299   6.714   2.271  10.208  1.5638  1.4640 -0.4242
64830SOL     OW99300  11.130   3.698   5.314  0.0477 -0.2253 -0.0299
64830SOL    HW199301  11.191   3.626   5.330  1.0837  0.2340 -1.6363
64830SOL    HW299302  11.106   3.688   5.222  0.4625  1.6486 -0.3893
64831SOL     OW99303   7.039   8.103   7.274  0.4488  0.2304 -0.5703
64831SOL    HW199304   7.095   8.026   7.266  0.8427  0.6048 -1.5576
64831SOL    HW299305   7.067   8.144   7.356  2.1593  0.8036 -1.3841
64832SOL     OW99306   7.185  10.138  11.166 -0.1954 -0.1383 -0.2272
64832SOL    HW199307   7.148  10.108  11.249  0.3848  0.7937  0.3796
64832SOL    HW299308   7.164  10.068  11.104 -1.4339 -0.4318  0.4869
64833SOL     OW99309  10.140   7.825   9.776  0.5917  0.2101 -0.1699
64833SOL    HW199310  10.131   7.900   9.716  1.1195  1.3780  1.1494
64833SOL    HW299311  10.143   7.749   9.719 -2.7174  0.8732 -1.4965
64834SOL     OW99312   1.777   0.623   0.117 -0.2143  0.0172 -0.3689
64834SOL    HW199313   1.848   0.618   0.181 -0.2339  1.0410 -0.2558
64834SOL    HW299314   1.729   0.702   0.140 -1.7959 -0.9976 -0.0414
64835SOL     OW99315   9.412   9.249  12.494  0.2830  0.3138  0.6131
64835SOL    HW199316   9.367   9.167  12.476 -0.7643  0.7282  1.2363
64835SOL    HW299317   9.467   9.231  12.570  0.6445 -0.0081  0.2780
64836SOL     OW99318   2.993   6.978   4.321 -0.0840  0.1557 -0.2923
64836SOL    HW199319   3.082   6.955   4.347  0.1679  0.5554 -0.7977
64836SOL    HW299320   3.004   7.041   4.250 -0.7435 -1.1667 -1.6419
64837SOL     OW99321   5.494   7.425  11.446  0.9442  0.3043  0.5615
64837SOL    HW199322   5.509   7.458  11.357  0.8691 -0.4055  0.2752
64837SOL    HW299323   5.444   7.494  11.489  0.2882  0.3217 -0.1963
64838SOL     OW99324  11.203   2.475  11.703 -0.5515 -0.2878  0.1107
64838SOL    HW199325  11.161   2.491  11.788 -0.5563 -1.2847  0.3090
64838SOL    HW299326  11.269   2.544  11.695 -1.5620  0.7218  0.2319
64839SOL     OW99327   9.808   3.778   1.749  0.3319 -0.4537 -0.7467
64839SOL    HW199328   9.726   3.818   1.720 -0.3466 -1.5144 -0.3644
64839SOL    HW299329   9.866   3.852   1.767 -1.9711  0.6555  3.2494
64840SOL     OW99330  11.826   9.258  10.905  0.2846  0.0321  0.1135
64840SOL    HW199331  11.912   9.270  10.946  0.4611 -1.5686  0.2453
64840SOL    HW299332  11.775   9.208  10.969 -0.0363 -0.8841 -0.8366
64841SOL     OW99333   0.259   4.284   5.328  0.2045  0.0980 -0.1710
64841SOL    HW199334   0.309   4.209   5.297 -0.9109 -0.1687 -1.4243
64841SOL    HW299335   0.184   4.246   5.373 -0.0713  0.4550 -0.3229
64842SOL     OW99336  11.755   0.480   4.458  0.4279 -0.3609 -0.7855
64842SOL    HW199337  11.787   0.509   4.543  1.3280  0.2729 -1.3259
64842SOL    HW299338  11.675   0.431   4.478  0.8341 -0.5558  0.4510
64843SOL     OW99339   6.944   0.882  12.570  0.7561  0.4803 -0.8089
64843SOL    HW199340   6.963   0.802  12.521 -0.2369 -0.7685  0.7521
64843SOL    HW299341   7.024   0.899  12.620  0.2576 -0.8189  0.5001
64844SOL     OW99342   3.079   9.602   1.927  0.0447 -0.5664 -0.3995
64844SOL    HW199343   3.118   9.674   1.977 -1.0789  0.7552 -1.3532
64844SOL    HW299344   3.101   9.623   1.836 -2.6551  0.1403 -0.9641
64845SOL     OW99345   0.799   9.201   4.085  0.0111  0.3836 -1.1003
64845SOL    HW199346   0.791   9.162   3.998  2.2628 -2.7239 -0.1029
64845SOL    HW299347   0.793   9.127   4.145  0.8342  2.1226  1.2767
64846SOL     OW99348   9.454   8.844   4.097 -0.4227  0.3937 -0.0286
64846SOL    HW199349   9.538   8.797   4.099 -0.0576  0.8505 -2.2889
64846SOL    HW299350   9.467   8.917   4.157 -0.2564 -1.1090  1.8832
64847SOL     OW99351   1.711   7.260   4.514  0.0464 -0.1031  0.3620
64847SOL    HW199352   1.631   7.206   4.515 -0.2286  0.2985  0.2022
64847SOL    HW299353   1.682   7.346   4.545  0.1461  0.4217 -0.9419
64848SOL     OW99354   2.363   2.239   9.736 -0.4446 -0.9336  0.7226
64848SOL    HW199355   2.440   2.238   9.678 -0.3344 -0.3300  0.8531
64848SOL    HW299356   2.393   2.198   9.816 -0.4763 -1.3935  0.4993
64849SOL     OW99357   2.414   4.288   8.941 -0.6729  0.0582  0.2579
64849SOL    HW199358   2.388   4.380   8.935 -1.4808 -0.2125 -0.4807
64849SOL    HW299359   2.332   4.239   8.937 -0.3365 -0.6742  1.6507
64850SOL     OW99360   1.577   4.496   2.819 -0.5836 -0.7061  0.1173
64850SOL    HW199361   1.503   4.522   2.764  0.1649  0.6328 -0.2983
64850SOL    HW299362   1.571   4.553   2.896 -0.4343 -1.1328  0.4485
64851SOL     OW99363   0.693   5.652  11.175  0.5504  0.1774 -0.4516
64851SOL    HW199364   0.684   5.559  11.193  3.3958 -0.1871 -0.4181
64851SOL    HW299365   0.787   5.665  11.163  0.3503  3.2403  0.5005
64852SOL     OW99366   2.411   0.656  12.184  0.6240 -0.1122  0.3350
64852SOL    HW199367   2.380   0.622  12.268  1.2459  0.4713  0.8104
64852SOL    HW299368   2.461   0.735  12.207  2.5349 -1.0516 -0.3673
64853SOL     OW99369   2.281  10.450   0.089  0.1777 -0.2806  0.1405
64853SOL    HW199370   2.251  10.447  -0.002 -0.1762  0.6608  0.2211
64853SOL    HW299371   2.372  10.477   0.083  0.1085 -0.0605  0.0746
64854SOL     OW99372   2.300   5.322   9.078 -0.1891 -0.2319 -0.4908
64854SOL    HW199373   2.306   5.355   8.988  1.0629 -0.0433 -0.3618
64854SOL    HW299374   2.381   5.273   9.091  0.8760  1.8545  1.3367
64855SOL     OW99375  12.440   0.873   5.008 -0.3613  0.1266  0.3988
64855SOL    HW199376  12.381   0.948   4.996 -0.8889 -0.4143 -0.5660
64855SOL    HW299377  12.508   0.886   4.942 -0.8022 -0.5605 -0.2020
64856SOL     OW99378   8.737   0.199  10.053  0.1759 -0.0296  0.0408
64856SOL    HW199379   8.784   0.279  10.075 -0.0340  0.5338 -1.4478
64856SOL    HW299380   8.805   0.136  10.031  0.3179  0.0008  0.3989
64857SOL     OW99381  10.626   1.968   0.244  0.6588  0.6596  0.0770
64857SOL    HW199382  10.568   1.947   0.317 -0.6284  2.4530 -0.3592
64857SOL    HW299383  10.694   2.023   0.283  0.0603  1.4873 -0.0305
64858SOL     OW99384   6.410  10.706  12.484 -0.2529 -0.1067  0.3426
64858SOL    HW199385   6.365  10.784  12.453  2.7557  0.8828 -2.0058
64858SOL    HW299386   6.432  10.726  12.575 -1.3950  0.8338  0.4407
64859SOL     OW99387   7.477  12.450   3.413  0.1993  0.3121  0.1783
64859SOL    HW199388   7.569  12.474   3.401 -0.0589  0.4356 -1.8920
64859SOL    HW299389   7.480  12.358   3.440  0.9396  0.3656  0.2975
64860SOL     OW99390  12.216   0.966   1.619  1.0246 -0.3886 -0.3061
64860SOL    HW199391  12.227   1.010   1.535  0.5634  1.1139  0.3980
64860SOL    HW299392  12.306   0.949   1.649  1.2709  1.4627  0.1003
64861SOL     OW99393   7.782   4.314   8.070 -0.0301  0.1429 -0.5084
64861SOL    HW199394   7.852   4.286   8.128 -0.5837  1.1765  0.7063
64861SOL    HW299395   7.802   4.406   8.050  0.4946 -0.3553 -2.5043
64862SOL     OW99396   0.435  12.620  12.193  0.3466 -0.8963 -1.2666
64862SOL    HW199397   0.526  12.648  12.185  0.5238  0.1906  2.3800
64862SOL    HW299398   0.437  12.551  12.260 -1.5671 -0.2610 -0.4814
64863SOL     OW99399   4.130   3.751   2.580 -0.6598 -0.4535  0.0754
64863SOL    HW199400   4.216   3.792   2.585 -0.6904 -0.2500 -0.9677
64863SOL    HW299401   4.142   3.675   2.523 -1.3056 -0.0676 -0.5851
64864SOL     OW99402   1.930   1.108   2.487  0.3049  0.6309  0.1486
64864SOL    HW199403   1.877   1.032   2.464 -1.8334  1.9814  0.3476
64864SOL    HW299404   1.994   1.074   2.550 -1.7549 -0.7242  1.6618
64865SOL     OW99405   8.232   8.927   6.819 -0.4788 -0.0915 -0.4009
64865SOL    HW199406   8.165   8.859   6.828  0.5264 -1.4716 -2.5001
64865SOL    HW299407   8.308   8.892   6.866 -0.9571  1.1886  1.4330
64866SOL     OW99408   8.997  10.876  12.554  0.4291 -0.2447  0.2079
64866SOL    HW199409   8.967  10.946  12.497  0.4442  0.4447  1.0228
64866SOL    HW299410   8.950  10.890  12.637  1.4802 -0.3341  0.8462
64867SOL     OW99411  10.976   7.499  10.025 -0.4043  0.4367  0.5646
64867SOL    HW199412  10.931   7.414  10.020 -0.2248  0.3641  0.1575
64867SOL    HW299413  11.063   7.482   9.988 -0.0108  0.5620  1.4089
64868SOL     OW99414   2.639   4.526  12.334 -0.2179 -0.3850  0.7972
64868SOL    HW199415   2.663   4.484  12.416 -0.4834 -1.0125  0.5568
64868SOL    HW299416   2.548   4.501  12.320 -0.0503 -0.6308  0.1043
64869SOL     OW99417   5.454   6.861   3.193  0.0111  0.0001 -0.5085
64869SOL    HW199418   5.530   6.914   3.216 -1.3039  2.2548 -1.1109
64869SOL    HW299419   5.442   6.875   3.099 -1.8693  0.7008 -0.1962
64870SOL     OW99420   3.152   8.950   4.965 -0.0172  0.2966  0.4655
64870SOL    HW199421   3.163   9.001   5.046 -0.7084  0.2055  0.6161
64870SOL    HW299422   3.079   8.992   4.920  1.0730  1.0598 -0.6713
64871SOL     OW99423  11.859   4.383   3.722  0.2661 -0.2248 -0.4521
64871SOL    HW199424  11.766   4.361   3.732  0.8141 -2.7613 -0.0376
64871SOL    HW299425  11.875   4.380   3.628  0.2425 -1.5232 -0.4371
64872SOL     OW99426   4.104  11.881   9.017 -0.7824  0.3576  0.1239
64872SOL    HW199427   4.033  11.902   8.956 -2.1423 -0.1489  1.4722
64872SOL    HW299428   4.080  11.796   9.053  0.7868 -0.0581  0.2602
64873SOL     OW99429   4.324  10.273   5.944 -0.1828 -0.1415 -0.1757
64873SOL    HW199430   4.279  10.333   5.884  0.9459  0.3186 -0.6082
64873SOL    HW299431   4.266  10.199   5.953 -0.7675  0.1793 -1.1635
64874SOL     OW99432   7.391  10.702   8.338 -0.6550  0.7188 -0.0692
64874SOL    HW199433   7.332  10.645   8.286 -0.6918 -0.0188  0.7587
64874SOL    HW299434   7.479  10.668   8.319 -0.6402  0.6921  0.0446
64875SOL     OW99435  12.263   8.424   7.544 -0.5517  0.1322 -0.8344
64875SOL    HW199436  12.257   8.355   7.610 -2.4371  0.1005 -0.9684
64875SOL    HW299437  12.311   8.495   7.588  1.7112 -1.3194 -0.8145
64876SOL     OW99438   0.376   7.810  10.590  0.3174  0.4123 -0.2724
64876SOL    HW199439   0.445   7.790  10.527  0.0720 -0.3137 -0.3230
64876SOL    HW299440   0.383   7.741  10.656  0.3545  0.9713  0.3186
64877SOL     OW99441   8.372   2.686   0.977 -0.1546  0.0911 -0.5348
64877SOL    HW199442   8.320   2.620   0.931 -1.5030  0.2481  0.6799
64877SOL    HW299443   8.307   2.738   1.024  1.0954  0.4541  0.8568
64878SOL     OW99444   7.770   9.922   7.132 -0.3130 -0.7468 -0.2385
64878SOL    HW199445   7.784  10.011   7.163 -1.1090 -0.8561  0.4681
64878SOL    HW299446   7.834   9.869   7.181 -1.9415 -1.0054  1.7419
64879SOL     OW99447  10.713  11.799   7.962 -0.1709  0.5420 -0.2590
64879SOL    HW199448  10.634  11.745   7.957 -0.3377  0.7955 -0.3827
64879SOL    HW299449  10.783  11.737   7.983 -0.7424  0.5975  2.1212
64880SOL     OW99450   9.133  10.844   5.736  0.0444 -0.9394 -0.1223
64880SOL    HW199451   9.074  10.839   5.661 -0.8232 -1.0475  0.5470
64880SOL    HW299452   9.210  10.794   5.709 -0.4933 -1.4717 -0.7227
64881SOL     OW99453   1.888  10.361  11.856 -0.1957  0.7200  0.1205
64881SOL    HW199454   1.959  10.425  11.863  0.0616  0.6409 -1.4590
64881SOL    HW299455   1.821  10.404  11.804 -0.3773  0.0009 -0.2519
64882SOL     OW99456   4.408   0.431  11.189  0.1731  0.3904  0.2748
64882SOL    HW199457   4.385   0.503  11.247 -0.0813  0.5648 -0.0367
64882SOL    HW299458   4.401   0.353  11.244  1.1387  0.6600  0.7987
64883SOL     OW99459   3.187  11.820  12.316  0.4493 -0.1484  0.3980
64883SOL    HW199460   3.245  11.866  12.256 -0.6321 -0.3316 -0.8578
64883SOL    HW299461   3.159  11.742  12.267  1.2308 -1.4922  1.9863
64884SOL     OW99462   6.784   8.990   6.366 -0.1089 -0.0540 -0.0360
64884SOL    HW199463   6.813   8.934   6.294 -2.9775  0.1948 -1.4981
64884SOL    HW299464   6.766   9.074   6.325 -2.6168 -0.1418  0.7606
64885SOL     OW99465   9.751   5.334   7.527  0.0798 -0.5146 -0.2941
64885SOL    HW199466   9.728   5.243   7.545 -1.0609 -0.2979 -0.5704
64885SOL    HW299467   9.740   5.343   7.432 -1.0052  0.2063 -0.1215
64886SOL     OW99468  11.929   3.010   4.209  0.3355  0.0582 -0.0393
64886SOL    HW199469  11.905   3.071   4.278  2.8858  1.1939 -0.0292
64886SOL    HW299470  11.894   3.049   4.129 -0.0932  0.2788  0.2528
64887SOL     OW99471   7.658   3.595   9.928 -0.9189  0.0487  0.0662
64887SOL    HW199472   7.722   3.524   9.923 -1.9081 -0.9461  0.9096
64887SOL    HW299473   7.697   3.659   9.989 -1.9361 -1.9706  3.0766
64888SOL     OW99474   7.259   5.312  10.032 -0.4728 -0.3518 -0.6237
64888SOL    HW199475   7.315   5.381   9.999 -0.0538  0.9811  2.5119
64888SOL    HW299476   7.172   5.353  10.040 -0.2220 -0.1009  1.2521
64889SOL     OW99477   6.606   7.772  10.891  0.0992  0.1058 -0.0665
64889SOL    HW199478   6.525   7.723  10.902 -0.8463  0.9953 -2.5150
64889SOL    HW299479   6.668   7.709  10.853 -0.3455  0.1455 -0.8719
64890SOL     OW99480   8.383  10.288   8.229 -0.1958  0.0526  0.2722
64890SOL    HW199481   8.464  10.337   8.246 -0.4077  0.8711 -0.9609
64890SOL    HW299482   8.398  10.244   8.146 -0.1083 -1.8629  1.2466
64891SOL     OW99483   1.190   0.719   1.525  0.3026 -0.0710  0.1936
64891SOL    HW199484   1.278   0.705   1.562 -1.0157 -1.6101  3.0661
64891SOL    HW299485   1.190   0.667   1.445  1.9752 -0.1023  0.1639
64892SOL     OW99486   9.350  12.104   7.381  0.1114  0.0847 -0.3728
64892SOL    HW199487   9.305  12.164   7.441 -2.4330 -1.8366 -0.1814
64892SOL    HW299488   9.433  12.085   7.424 -0.9514  0.0327  1.7925
64893SOL     OW99489   7.469   7.369   7.559 -0.1900  0.1700  0.0741
64893SOL    HW199490   7.511   7.311   7.622 -1.6006 -0.6056  0.3343
64893SOL    HW299491   7.379   7.377   7.590 -1.1802 -0.9542 -2.3252
64894SOL     OW99492   9.771   1.873  10.169 -0.4784  0.6850 -0.9411
64894SOL    HW199493   9.797   1.783  10.188 -1.0343  0.9807  1.5171
64894SOL    HW299494   9.851   1.924  10.182  0.0103  0.5166 -3.0164
64895SOL     OW99495   9.794   3.000   1.230 -0.0430  0.3021 -0.0655
64895SOL    HW199496   9.788   3.061   1.157  0.8984 -0.3251 -0.6874
64895SOL    HW299497   9.751   2.920   1.198 -1.1366  0.5648  0.6844
64896SOL     OW99498  11.386   7.021   5.983  0.6267 -0.0776 -0.0172
64896SOL    HW199499  11.416   7.099   6.030  1.3216  0.3581 -1.1474
64896SOL    HW299500  11.427   6.948   6.030  1.6929  0.3774 -0.2272
64897SOL     OW99501   1.582   5.753  12.037 -0.1436 -0.4255  0.0076
64897SOL    HW199502   1.550   5.751  11.946 -0.2229  0.6289 -0.0035
64897SOL    HW299503   1.677   5.764  12.028 -0.0971 -0.7876  0.0534
64898SOL     OW99504   5.469   4.285   7.951 -0.6734 -0.1348 -0.0399
64898SOL    HW199505   5.428   4.203   7.923 -0.8274 -0.2968  0.6214
64898SOL    HW299506   5.409   4.320   8.017  0.1612 -0.2991  0.8367
64899SOL     OW99507   2.636   7.961   5.354 -0.0701 -0.3982 -0.5604
64899SOL    HW199508   2.644   7.881   5.303  2.0028 -0.2525 -0.5600
64899SOL    HW299509   2.640   7.933   5.445  1.3466 -0.2959 -0.5607
64900SOL     OW99510   4.599   2.712   3.705  0.2968 -0.2953 -0.1285
64900SOL    HW199511   4.615   2.664   3.786  0.4771 -1.6464 -0.9293
64900SOL    HW299512   4.577   2.800   3.734 -1.5389 -1.1826  1.5135
64901SOL     OW99513   3.385  10.042  10.274  0.8810 -0.0950  0.2071
64901SOL    HW199514   3.451  10.047  10.343  0.1975  0.6325  0.8316
64901SOL    HW299515   3.302  10.036  10.320  0.3215  1.4340 -0.5131
64902SOL     OW99516  12.143   4.275   8.105  0.5402  0.3795 -0.2855
64902SOL    HW199517  12.163   4.227   8.184  2.4323  0.1014 -0.8863
64902SOL    HW299518  12.119   4.208   8.041  2.0658  0.2753 -0.7963
64903SOL     OW99519   3.068   7.315   9.753  0.1296  0.0940 -0.2860
64903SOL    HW199520   3.078   7.249   9.821 -1.2519  1.1894  1.0558
64903SOL    HW299521   2.974   7.322   9.739  0.3802 -1.4380 -3.7771
64904SOL     OW99522   5.759   1.956   0.420  0.1496  0.1329 -0.1840
64904SOL    HW199523   5.837   1.972   0.474  0.5227  0.5035 -0.8277
64904SOL    HW299524   5.745   2.038   0.373 -0.6886  0.0979 -0.0058
64905SOL     OW99525   3.864   6.683   2.535  0.4680 -0.1370  0.0956
64905SOL    HW199526   3.893   6.614   2.475 -1.0795  0.6102 -1.5633
64905SOL    HW299527   3.781   6.650   2.571  1.0502 -0.2833  1.3852
64906SOL     OW99528   4.155   0.222   3.095  0.2094 -0.0751  0.3215
64906SOL    HW199529   4.191   0.232   3.183  0.2657  1.7133  0.1416
64906SOL    HW299530   4.220   0.261   3.038  0.0253 -0.9331 -0.4875
64907SOL     OW99531   6.010   4.680   5.001 -0.1372 -0.1772  0.4941
64907SOL    HW199532   6.002   4.698   5.094 -0.7961 -0.0902  0.4265
64907SOL    HW299533   6.035   4.588   4.996 -2.4558 -0.8800  0.7188
64908SOL     OW99534   7.804   3.437  10.229  0.0554  0.2070  0.2277
64908SOL    HW199535   7.829   3.523  10.196 -0.4448  0.0050 -0.6872
64908SOL    HW299536   7.714   3.425  10.200 -0.4235  0.0201  1.6774
64909SOL     OW99537  10.330   1.155   9.338 -0.3528 -0.2602 -0.2097
64909SOL    HW199538  10.411   1.137   9.289  0.4315 -0.5437  1.1335
64909SOL    HW299539  10.283   1.072   9.337 -1.0321  0.1101 -1.6618
64910SOL     OW99540   8.362   4.510   9.199  0.1906  0.0377  0.2771
64910SOL    HW199541   8.397   4.591   9.237  0.7808 -0.1930  0.2272
64910SOL    HW299542   8.396   4.441   9.255 -0.1585 -0.1913  0.2063
64911SOL     OW99543   3.465   7.598   0.483  0.1575 -0.4019  0.3498
64911SOL    HW199544   3.463   7.693   0.496  1.5710 -0.4989  1.6414
64911SOL    HW299545   3.553   7.580   0.450 -0.3922 -1.1913 -0.7572
64912SOL     OW99546   5.912   1.280   1.022 -0.8509 -0.4799  0.3109
64912SOL    HW199547   5.933   1.361   1.067 -2.5603 -0.1557  0.6092
64912SOL    HW299548   5.980   1.270   0.955  0.0113  0.5924  1.0051
64913SOL     OW99549  10.922   1.185   0.152  0.0860  0.0520 -0.2272
64913SOL    HW199550  10.889   1.273   0.164  1.4259  0.3454  1.8369
64913SOL    HW299551  10.925   1.147   0.240 -0.2526 -1.9878 -1.0210
64914SOL     OW99552   2.958   0.813   3.884 -0.1438  0.0271  0.2819
64914SOL    HW199553   2.938   0.906   3.870  0.5145  0.4907  2.1202
64914SOL    HW299554   2.935   0.771   3.801 -0.9851  1.7392 -0.4089
64915SOL     OW99555   6.118   3.522   9.640 -0.3526  0.0718  0.1437
64915SOL    HW199556   6.116   3.441   9.692  0.7865  0.7683  1.3253
64915SOL    HW299557   6.200   3.516   9.591  0.2321  0.9203  0.9741
64916SOL     OW99558   0.121   6.103   4.418  0.1592 -0.5317 -0.1261
64916SOL    HW199559   0.055   6.092   4.487 -1.3828 -1.9015 -1.7421
64916SOL    HW299560   0.193   6.147   4.462 -1.5287  0.4116  1.8984
64917SOL     OW99561   1.200   2.237   1.378  0.2922 -0.4130  0.5299
64917SOL    HW199562   1.158   2.322   1.392  2.1768  0.9958 -1.5505
64917SOL    HW299563   1.228   2.210   1.465 -0.4923  1.0183  1.2771
64918SOL     OW99564   2.706   2.860   3.344  0.2332  0.5905 -0.1165
64918SOL    HW199565   2.669   2.773   3.330  0.8884  0.3267 -0.2178
64918SOL    HW299566   2.663   2.892   3.423 -1.0024  0.7226 -0.8091
64919SOL     OW99567   8.601  10.255   3.125  0.3924  0.0595  0.0357
64919SOL    HW199568   8.540  10.184   3.103  1.6702 -0.8928 -0.5624
64919SOL    HW299569   8.559  10.334   3.091 -1.6959 -0.1593  1.8950
64920SOL     OW99570   1.750   9.207  10.350 -0.2334  0.2787  0.1775
64920SOL    HW199571   1.735   9.113  10.352 -1.0825  0.3893  2.9878
64920SOL    HW299572   1.668   9.244  10.319 -1.0338  0.1745  2.0274
64921SOL     OW99573   8.066   7.030   4.506  0.6660 -0.4176  0.4530
64921SOL    HW199574   8.094   7.110   4.461  2.0351 -1.5171 -0.7524
64921SOL    HW299575   8.058   6.965   4.437  0.7011 -1.6238  1.5447
64922SOL     OW99576   3.190  10.016   7.982  0.0761 -0.2255  0.1122
64922SOL    HW199577   3.185  10.100   8.028 -2.5717 -0.8758  1.1913
64922SOL    HW299578   3.153  10.033   7.896 -0.6870 -0.3236  0.4171
64923SOL     OW99579   2.748   0.472   4.498 -0.4036 -0.4483 -0.7164
64923SOL    HW199580   2.660   0.487   4.533 -0.8279 -1.7112 -1.2081
64923SOL    HW299581   2.765   0.549   4.444 -0.6768  0.4199  0.3800
64924SOL     OW99582   9.284   6.142  10.158 -0.8119  0.1602 -0.2845
64924SOL    HW199583   9.360   6.088  10.177 -0.5908  0.9180  1.1226
64924SOL    HW299584   9.221   6.082  10.119  0.8685 -0.2875 -2.5557
64925SOL     OW99585  10.020   5.463   8.150 -0.5506  0.5540 -0.4078
64925SOL    HW199586   9.965   5.513   8.210 -0.2161  0.8381 -0.3366
64925SOL    HW299587  10.092   5.522   8.127 -1.3290  0.8982 -2.0869
64926SOL     OW99588   7.441  11.816   9.414 -0.1201  0.2184  0.6399
64926SOL    HW199589   7.415  11.789   9.503  0.7079 -2.4742  0.1469
64926SOL    HW299590   7.515  11.760   9.393  0.6603  1.8604 -1.2269
64927SOL     OW99591   2.724  11.927   1.109  0.3877 -0.1154 -0.4598
64927SOL    HW199592   2.726  11.833   1.092 -0.0777  0.1927 -2.4029
64927SOL    HW299593   2.652  11.939   1.171 -1.1278 -0.8012 -2.0110
64928SOL     OW99594   1.397  10.968   9.473  0.7136  0.1912 -0.0675
64928SOL    HW199595   1.400  10.876   9.499  0.2465  0.3981  0.7524
64928SOL    HW299596   1.441  10.971   9.388  0.0507 -0.9202 -0.4689
64929SOL     OW99597   9.597   2.635   5.373  0.3393 -0.1986  0.1742
64929SOL    HW199598   9.668   2.650   5.435  0.8283  1.4270 -0.7039
64929SOL    HW299599   9.572   2.544   5.386  1.7185 -0.4428  1.3874
64930SOL     OW99600   5.493   9.345   9.034  0.4902  0.0999 -0.0449
64930SOL    HW199601   5.494   9.387   8.948 -1.6212 -2.2176 -1.3192
64930SOL    HW299602   5.581   9.307   9.043  0.4141 -0.5956 -1.7513
64931SOL     OW99603  11.518  12.376  10.533  0.1725 -0.0537 -0.2171
64931SOL    HW199604  11.496  12.434  10.460 -1.5292  0.4406  0.6414
64931SOL    HW299605  11.560  12.433  10.597 -0.9418  0.1554  0.3643
64932SOL     OW99606   8.058   9.561   2.316 -0.0651 -0.4979 -0.3434
64932SOL    HW199607   8.031   9.597   2.401  1.2186 -0.9975  0.3161
64932SOL    HW299608   8.064   9.636   2.258 -0.9720 -0.1508  0.0078
64933SOL     OW99609   9.290   5.485   0.608 -0.3457 -0.9472  0.0026
64933SOL    HW199610   9.229   5.464   0.679 -0.8204  0.9495  0.2089
64933SOL    HW299611   9.284   5.409   0.549  0.0738 -2.5703  1.9412
64934SOL     OW99612   6.342   5.735  12.141  0.5700 -1.1147  0.2476
64934SOL    HW199613   6.349   5.830  12.128  1.0867 -1.0776  0.7477
64934SOL    HW299614   6.253   5.722  12.175 -0.0283 -0.9817 -1.1644
64935SOL     OW99615  10.034   4.817   9.476 -0.4797 -0.2913  0.0227
64935SOL    HW199616   9.972   4.888   9.488  0.1885  0.4983 -0.9709
64935SOL    HW299617  10.118   4.853   9.507 -0.1558 -0.6798 -0.3908
64936SOL     OW99618   1.940   1.692   9.006  0.4892 -0.4260  0.5403
64936SOL    HW199619   1.900   1.763   8.956  0.5614  0.4008  1.6214
64936SOL    HW299620   1.922   1.613   8.955  0.1806  0.3369 -0.5485
64937SOL     OW99621   5.307   2.724  10.800  0.1629 -0.1002  0.2398
64937SOL    HW199622   5.243   2.794  10.794 -0.9832 -1.0841  0.6353
64937SOL    HW299623   5.387   2.761  10.764 -0.2831  1.5624  0.8770
64938SOL     OW99624   1.489   3.949   3.127  0.2719 -0.1277  0.3959
64938SOL    HW199625   1.544   4.020   3.095  1.9281 -1.0120  1.1898
64938SOL    HW299626   1.462   3.903   3.047 -0.0886  0.8420 -0.0605
64939SOL     OW99627   5.133   0.663  10.496 -0.3342 -0.3680  0.3297
64939SOL    HW199628   5.227   0.645  10.495 -0.2054 -0.0468 -2.7106
64939SOL    HW299629   5.092   0.577  10.492 -0.2076 -0.5062  1.6027
64940SOL     OW99630  11.812  10.293   1.011 -0.1765  0.6239 -0.6024
64940SOL    HW199631  11.795  10.387   1.016 -1.8000  0.3745 -0.9195
64940SOL    HW299632  11.764  10.263   0.934 -0.7799 -0.6742  0.2402
64941SOL     OW99633   1.102  11.852   3.259  0.6080 -0.3845  0.4560
64941SOL    HW199634   1.110  11.803   3.340 -0.4626  0.0831  0.8634
64941SOL    HW299635   1.016  11.829   3.224 -0.8846  2.6504  1.7164
64942SOL     OW99636  10.223   5.266  10.246 -0.3692  0.3135  0.1100
64942SOL    HW199637  10.304   5.290  10.202 -0.2468  0.6459  0.5141
64942SOL    HW299638  10.194   5.186  10.202 -0.0026  0.3860 -0.2589
64943SOL     OW99639  12.569   5.546  12.221  0.6376  0.1687 -0.0186
64943SOL    HW199640  12.596   5.496  12.144 -0.1182  1.5223 -1.2232
64943SOL    HW299641  12.643   5.605  12.238  0.2256  0.8969 -0.6608
64944SOL     OW99642   2.894  10.175   8.071 -0.9569  0.3510 -0.0536
64944SOL    HW199643   2.981  10.214   8.057  0.6585 -2.5968  0.8866
64944SOL    HW299644   2.892  10.153   8.164 -1.7733 -1.5865 -0.4809
64945SOL     OW99645   9.220   8.472   0.472 -0.2228 -0.0320 -0.3762
64945SOL    HW199646   9.258   8.504   0.553 -0.9429  0.1993 -0.1185
64945SOL    HW299647   9.280   8.403   0.442 -0.0272 -0.2151  0.4261
64946SOL     OW99648   4.697   7.201   3.735 -0.2170 -0.0422  0.4894
64946SOL    HW199649   4.761   7.271   3.721 -0.4409  0.4366  1.7266
64946SOL    HW299650   4.633   7.213   3.664 -1.5243  2.5053  1.9633
64947SOL     OW99651   1.381   4.600   6.494  0.4723  0.3019 -0.3160
64947SOL    HW199652   1.373   4.613   6.589  1.2323  0.6109 -0.2832
64947SOL    HW299653   1.333   4.673   6.456 -0.3279 -0.1408 -0.1838
64948SOL     OW99654   9.910   5.377   2.842 -0.0561 -0.3881 -0.0674
64948SOL    HW199655   9.944   5.462   2.816 -0.9177 -0.1426 -0.4176
64948SOL    HW299656   9.943   5.363   2.930 -0.8256  0.8184  0.4346
64949SOL     OW99657   7.852   1.518   6.997 -0.5159  0.2439  0.0211
64949SOL    HW199658   7.825   1.597   6.950 -1.0197 -0.6151 -1.1654
64949SOL    HW299659   7.916   1.476   6.940  0.5878  0.3355  1.1391
64950SOL     OW99660   2.830   2.006   0.187 -0.2024  0.1334  0.1577
64950SOL    HW199661   2.835   2.043   0.099  0.1410  0.4501  0.3102
64950SOL    HW299662   2.772   2.064   0.235  0.5792  0.6691  0.4844
64951SOL     OW99663   2.868  11.145   0.998  0.2908  0.1788  0.9019
64951SOL    HW199664   2.922  11.066   1.000 -0.4572 -0.5340 -1.8682
64951SOL    HW299665   2.779  11.112   0.983 -0.0777  1.5062  0.0189
64952SOL     OW99666   7.716   8.235   7.794  0.6029  0.2772  0.9494
64952SOL    HW199667   7.644   8.277   7.747 -2.4744 -3.3479  1.9301
64952SOL    HW299668   7.793   8.251   7.740 -1.9089 -0.1971 -3.2094
64953SOL     OW99669   0.266   5.876   9.960  0.2571 -0.1837  0.5933
64953SOL    HW199670   0.252   5.878   9.865  0.8939 -1.4779  0.4527
64953SOL    HW299671   0.337   5.813   9.973  0.1645 -0.0462  1.9308
64954SOL     OW99672  12.339   6.622   0.403  0.7441 -0.3767 -0.0825
64954SOL    HW199673  12.377   6.552   0.457  2.2385  0.9097  0.5933
64954SOL    HW299674  12.407   6.644   0.340  0.3080  0.4832 -0.2689
64955SOL     OW99675   4.472   3.640   2.453  0.0372 -0.1201  0.9895
64955SOL    HW199676   4.535   3.579   2.414 -0.0217  0.7758 -0.5836
64955SOL    HW299677   4.409   3.583   2.497 -0.3474 -1.2839 -0.9011
64956SOL     OW99678   9.668   1.356   6.340  0.4047 -0.4400 -0.1048
64956SOL    HW199679   9.699   1.372   6.429 -0.9397 -1.3656  0.5669
64956SOL    HW299680   9.696   1.266   6.321 -1.4492 -1.1768  0.3922
64957SOL     OW99681  10.515   3.784   9.381  0.1371 -0.1018  0.5468
64957SOL    HW199682  10.567   3.736   9.317 -0.5984 -1.4779  0.9468
64957SOL    HW299683  10.448   3.829   9.330  0.3805 -0.0971  0.2341
64958SOL     OW99684  10.247   8.807  10.145 -0.2879  0.2948  0.0410
64958SOL    HW199685  10.291   8.811  10.059 -0.3012 -0.2140  0.0103
64958SOL    HW299686  10.184   8.879  10.143  1.2472  1.7227  0.4800
64959SOL     OW99687  12.548   2.158   1.756 -0.3837  0.0518  0.2513
64959SOL    HW199688  12.629   2.161   1.705 -0.2129 -0.6921  0.4703
64959SOL    HW299689  12.481   2.191   1.696 -0.3846 -1.8442 -0.8668
64960SOL     OW99690   4.399   0.089   1.681 -0.7318  0.5859 -0.1598
64960SOL    HW199691   4.464   0.123   1.743  0.1366 -0.4864 -0.4493
64960SOL    HW299692   4.315   0.122   1.714 -0.4399 -0.8158  2.2448
64961SOL     OW99693   7.317   1.637   3.357 -0.7496  0.1764 -0.1606
64961SOL    HW199694   7.402   1.618   3.316  0.8209  3.9235  0.8669
64961SOL    HW299695   7.309   1.572   3.426  0.3445 -1.4119 -1.4416
64962SOL     OW99696  10.746  12.469   1.731 -0.2534 -0.3626 -0.3614
64962SOL    HW199697  10.800  12.391   1.745  0.0034  0.1781  2.1318
64962SOL    HW299698  10.658  12.435   1.717 -0.0842 -1.1140  0.3210
64963SOL     OW99699   5.110   4.467   3.936  0.1437 -0.6506 -0.3866
64963SOL    HW199700   5.030   4.424   3.905  0.1916 -0.8124 -0.2871
64963SOL    HW299701   5.163   4.478   3.858 -1.0858  1.8863 -0.9514
64964SOL     OW99702   2.701   6.033   1.077 -0.5100 -0.0780 -0.6721
64964SOL    HW199703   2.654   6.089   1.016 -0.6672  1.2000  0.5552
64964SOL    HW299704   2.744   5.967   1.023 -1.4262  0.4232 -2.0467
64965SOL     OW99705   5.612   9.638   1.171 -0.0039 -0.6363 -0.0223
64965SOL    HW199706   5.573   9.658   1.256 -0.3040 -0.1188 -0.2729
64965SOL    HW299707   5.665   9.715   1.150  0.5979 -1.0381 -0.0072
64966SOL     OW99708   6.398   9.406  11.648 -0.2456  0.3339 -0.3410
64966SOL    HW199709   6.469   9.468  11.629 -0.1855  0.3728 -0.0030
64966SOL    HW299710   6.326   9.461  11.678  0.2231  0.1708  1.1980
64967SOL     OW99711   4.836   6.618   2.739  0.6286  0.4349  0.0468
64967SOL    HW199712   4.878   6.639   2.656 -0.4526  0.0534 -0.6300
64967SOL    HW299713   4.825   6.523   2.737 -1.1628  0.5983 -0.3018
64968SOL     OW99714   8.839  11.083  12.371 -0.0748  0.0680  0.1212
64968SOL    HW199715   8.789  11.065  12.451  2.5657 -1.3227  1.5891
64968SOL    HW299716   8.899  11.154  12.395  0.4698 -0.0700 -0.7643
64969SOL     OW99717   8.858   1.286   0.399 -0.6180 -0.1187  0.2153
64969SOL    HW199718   8.781   1.292   0.342 -0.2297  0.6006 -0.2447
64969SOL    HW299719   8.882   1.377   0.415  0.7975 -0.3452 -0.5327
64970SOL     OW99720   2.258  12.150   9.684 -0.4301 -0.1924  0.6076
64970SOL    HW199721   2.318  12.146   9.758 -0.8475 -0.7310  0.9205
64970SOL    HW299722   2.276  12.070   9.634 -1.4354 -0.7690  1.1396
64971SOL     OW99723  11.837   7.358   8.069 -0.1884  0.4357 -0.0917
64971SOL    HW199724  11.809   7.383   8.157  2.2594 -0.8130  1.1394
64971SOL    HW299725  11.806   7.268   8.059 -0.1174  0.4402 -0.3506
64972SOL     OW99726   8.749   7.968   1.055 -0.1248 -0.7778  0.3473
64972SOL    HW199727   8.755   7.923   0.971 -1.9256 -1.6956  0.6339
64972SOL    HW299728   8.672   8.024   1.047 -0.8270 -1.5077  1.6214
64973SOL     OW99729   6.989   9.302   4.983 -0.1210  0.4698 -0.0422
64973SOL    HW199730   6.894   9.297   4.970 -0.3459  1.7210  0.9095
64973SOL    HW299731   7.026   9.264   4.903 -1.4137  0.7035 -0.7924
64974SOL     OW99732   0.745   8.213   0.158 -0.0283  0.8602  0.3478
64974SOL    HW199733   0.661   8.181   0.126 -0.8064  0.7891  2.3069
64974SOL    HW299734   0.726   8.302   0.190  0.0673  0.0816  2.7593
64975SOL     OW99735   1.198   8.712   1.167 -0.0800 -0.6474  0.0490
64975SOL    HW199736   1.279   8.763   1.164  0.2184 -1.0441  0.8879
64975SOL    HW299737   1.173   8.700   1.076  1.3787 -1.3928 -0.2814
64976SOL     OW99738  10.331   6.332   1.686 -0.4542  0.4286  0.2823
64976SOL    HW199739  10.264   6.396   1.662 -1.1955  0.0177  1.2219
64976SOL    HW299740  10.372   6.368   1.765 -0.2476  0.1812  0.2902
64977SOL     OW99741   8.075   5.767   9.749 -0.2748  0.0337  0.2290
64977SOL    HW199742   8.067   5.862   9.747  0.5214  0.1078 -1.6340
64977SOL    HW299743   8.149   5.750   9.808 -0.4281  0.5495  0.5763
64978SOL     OW99744   4.029   2.958   0.573  0.2826  0.0245 -0.1170
64978SOL    HW199745   4.044   3.002   0.489 -0.6418 -0.5382 -0.5859
64978SOL    HW299746   4.016   3.030   0.635  1.1835  0.4502 -0.4036
64979SOL     OW99747  10.824   0.644   1.653 -0.4244 -0.3863  0.3747
64979SOL    HW199748  10.848   0.729   1.691  0.6340 -0.2466 -0.5450
64979SOL    HW299749  10.837   0.581   1.723  1.3364 -0.1172  0.3212
64980SOL     OW99750   5.681  11.795   2.987  0.3882  0.1051  0.3845
64980SOL    HW199751   5.643  11.841   2.912  0.9008  0.5597  0.3976
64980SOL    HW299752   5.689  11.861   3.055 -0.1271 -0.3236  0.8650
64981SOL     OW99753  10.963   8.142   1.583  0.3247 -0.0632 -0.8008
64981SOL    HW199754  11.043   8.115   1.537  1.6977 -0.0421  1.4324
64981SOL    HW299755  10.936   8.065   1.633 -0.4963  0.2263 -0.7805
64982SOL     OW99756   6.047   0.601   9.071  0.1937 -0.5622 -0.1514
64982SOL    HW199757   6.049   0.511   9.039 -0.1802 -0.9442  0.8560
64982SOL    HW299758   6.105   0.649   9.013  0.6865 -1.5326 -0.4725
64983SOL     OW99759   4.415   3.348   5.975  0.4307  0.3554 -0.5672
64983SOL    HW199760   4.404   3.309   5.889 -1.8562 -0.3582 -0.0058
64983SOL    HW299761   4.362   3.427   5.973 -2.7315 -1.5200  1.2342
64984SOL     OW99762   9.855  10.798   1.985  0.6812  0.1161 -0.7001
64984SOL    HW199763   9.928  10.787   1.924  0.5372 -0.3893 -0.7890
64984SOL    HW299764   9.777  10.796   1.930  0.5964  0.6785 -0.6071
64985SOL     OW99765  11.799   4.474   8.259  0.0444  0.3273 -0.0532
64985SOL    HW199766  11.798   4.488   8.353  0.8136 -1.9471  0.3592
64985SOL    HW299767  11.869   4.531   8.227  1.1262 -0.3276  1.0658
64986SOL     OW99768  12.040  11.228  12.286  0.2280  0.0933 -0.0256
64986SOL    HW199769  11.955  11.237  12.243 -0.1701 -1.3462  0.4106
64986SOL    HW299770  12.024  11.252  12.377  0.1189 -0.8872  0.2153
64987SOL     OW99771   4.830   9.196  11.520  0.2621  0.5449 -0.1854
64987SOL    HW199772   4.894   9.266  11.516 -1.7434  2.5110 -0.0839
64987SOL    HW299773   4.765   9.219  11.453 -0.2111 -1.5087 -0.5015
64988SOL     OW99774   7.076  11.114   6.536 -0.2829  0.1869  0.1082
64988SOL    HW199775   7.029  11.050   6.483 -2.1935 -0.3322  2.2364
64988SOL    HW299776   7.082  11.192   6.481 -1.8051 -0.4507 -1.0263
64989SOL     OW99777   3.238  11.413   1.753 -0.2557  0.6232 -0.2926
64989SOL    HW199778   3.203  11.442   1.837 -1.8167  0.3439 -0.8056
64989SOL    HW299779   3.253  11.319   1.765  0.4626  0.7718 -0.0245
64990SOL     OW99780  11.293  10.991   8.373  0.1282  0.3584 -0.4655
64990SOL    HW199781  11.373  10.953   8.409  0.1544  1.6797  0.9567
64990SOL    HW299782  11.292  11.081   8.404 -0.8256  1.0390 -2.2867
64991SOL     OW99783   3.977   8.195   4.893  0.5289 -0.5845  0.1332
64991SOL    HW199784   3.954   8.247   4.969  0.1189 -0.6683  0.0670
64991SOL    HW299785   4.053   8.239   4.855 -0.6963  0.8267 -0.7787
64992SOL     OW99786   2.411   0.265   1.990  0.2007 -0.1995  0.2891
64992SOL    HW199787   2.329   0.222   1.967  0.4592 -0.7560  0.3982
64992SOL    HW299788   2.462   0.198   2.036 -0.2068  0.8073  2.2889
64993SOL     OW99789   9.982   5.352  10.337 -0.0792  0.2699 -0.3572
64993SOL    HW199790   9.982   5.409  10.261  0.7647  0.4241 -0.2488
64993SOL    HW299791  10.061   5.299  10.328 -0.1610  0.0394  0.2224
64994SOL     OW99792   5.474   0.138   7.412 -0.5857 -0.3686 -0.1217
64994SOL    HW199793   5.468   0.076   7.485  0.4400 -0.0647  0.2403
64994SOL    HW299794   5.430   0.217   7.444  0.9944  0.2305  0.7208
64995SOL     OW99795   1.015   7.383   8.656 -0.3631  0.6873 -0.3098
64995SOL    HW199796   1.092   7.363   8.602 -0.6815 -0.9106 -0.2298
64995SOL    HW299797   0.964   7.302   8.655 -1.5786  1.4131  0.4267
64996SOL     OW99798   0.470  11.336   1.908  0.1284 -0.6544 -0.0961
64996SOL    HW199799   0.513  11.389   1.976  1.0697 -0.3481 -0.9181
64996SOL    HW299800   0.406  11.283   1.957 -1.8741  2.2022  0.6387
64997SOL     OW99801   5.958   6.138  12.190  0.5905 -0.4743  0.2707
64997SOL    HW199802   5.882   6.079  12.194 -0.4591  0.8061 -0.0246
64997SOL    HW299803   5.974   6.162  12.282 -0.9604  1.1656  0.1623
64998SOL     OW99804   0.688  11.795   2.606  0.1121  0.4157 -0.5093
64998SOL    HW199805   0.604  11.839   2.592 -0.9869 -1.5936 -0.5543
64998SOL    HW299806   0.672  11.735   2.678  1.4221 -0.2578 -0.7532
64999SOL     OW99807   4.196  10.041   1.932 -0.0107  0.5546 -0.8944
64999SOL    HW199808   4.263  10.089   1.981 -0.0402 -0.3777  0.0921
64999SOL    HW299809   4.232   9.954   1.920 -0.8525  0.1763 -0.7711
65000SOL     OW99810  11.052   0.722   7.528 -0.8113 -0.4065 -0.2638
65000SOL    HW199811  10.972   0.730   7.476 -0.1019  0.1362 -1.3145
65000SOL    HW299812  11.104   0.656   7.481 -0.1839  0.0534 -0.2225
65001SOL     OW99813   7.448   1.884   9.770 -0.0658 -0.7638  0.2051
65001SOL    HW199814   7.481   1.795   9.770  0.8279 -0.5818 -3.1474
65001SOL    HW299815   7.524   1.939   9.750 -1.3890  0.0984 -3.2791
65002SOL     OW99816   4.646   8.896   8.305  0.6152 -0.1728 -0.5301
65002SOL    HW199817   4.708   8.886   8.233  1.9079 -0.5064  0.5784
65002SOL    HW299818   4.631   8.806   8.336  1.4280  0.0849  0.6817
65003SOL     OW99819   8.130   6.627  11.015  0.3480  0.8041  0.1253
65003SOL    HW199820   8.091   6.602  11.098  0.1493  0.0574 -0.1862
65003SOL    HW299821   8.193   6.558  10.996  1.1944  1.5298  0.1836
65004SOL     OW99822   0.024  11.848  12.462  0.0822  0.7194 -0.5327
65004SOL    HW199823   0.034  11.930  12.509 -2.3100  0.6513  0.2262
65004SOL    HW299824   0.013  11.875  12.370 -0.4019  1.2298 -0.3309
65005SOL     OW99825  11.011   0.851  12.498  0.0186 -0.3319 -0.0457
65005SOL    HW199826  11.024   0.827  12.406  2.3658 -1.9396  0.6018
65005SOL    HW299827  11.086   0.812  12.543  0.3027  2.4976  2.2107
65006SOL     OW99828   5.740   5.686   4.489 -0.4740  0.5432 -0.0112
65006SOL    HW199829   5.650   5.652   4.483  0.1249 -0.9083 -1.8245
65006SOL    HW299830   5.731   5.779   4.470 -1.5114  0.2016 -1.4627
65007SOL     OW99831  11.411   2.257   0.861  0.0054 -0.4866  0.3691
65007SOL    HW199832  11.408   2.320   0.933 -0.5089 -0.9466  0.7584
65007SOL    HW299833  11.366   2.180   0.895  0.8764 -1.1745  0.0001
65008SOL     OW99834   3.036  10.533   9.102 -0.6085 -0.2342 -0.2803
65008SOL    HW199835   2.959  10.589   9.096  1.1511  2.6511  1.4043
65008SOL    HW299836   3.078  10.539   9.016 -0.9063  0.3648 -0.3863
65009SOL     OW99837   7.441   6.699   9.408  0.3886 -0.1892 -0.0722
65009SOL    HW199838   7.427   6.617   9.457 -1.1372 -0.8660 -1.5501
65009SOL    HW299839   7.533   6.696   9.382  1.0188 -0.2232  1.9319
65010SOL     OW99840   2.433   9.250   6.001 -0.1456 -0.3044 -0.1200
65010SOL    HW199841   2.433   9.288   5.913  0.6972 -0.6204 -0.2592
65010SOL    HW299842   2.342   9.224   6.015 -0.8516  2.0479  0.1191
65011SOL     OW99843   6.821  11.845   3.738  1.0668  0.0867 -0.5005
65011SOL    HW199844   6.868  11.797   3.806  2.1886  1.9341  0.0890
65011SOL    HW299845   6.757  11.782   3.704  1.1926 -1.2067  1.5167
65012SOL     OW99846   3.555   9.866   4.144 -0.3306 -0.0493  0.0343
65012SOL    HW199847   3.477   9.812   4.134  0.3597 -1.4533  1.6663
65012SOL    HW299848   3.620   9.825   4.087 -0.6317  0.8468 -0.9757
65013SOL     OW99849   6.771   0.823   3.624  0.3019 -0.5922 -0.1058
65013SOL    HW199850   6.770   0.906   3.672  2.1235  0.4281 -1.6888
65013SOL    HW299851   6.681   0.810   3.595 -0.4637 -0.3334  2.0063
65014SOL     OW99852   5.759  12.326   4.981 -0.0179 -0.3644 -0.0828
65014SOL    HW199853   5.772  12.377   5.060 -0.6079  2.7084 -1.7914
65014SOL    HW299854   5.835  12.347   4.926  1.6832 -4.3650  0.4452
65015SOL     OW99855  10.667   6.057  11.406  0.3608  0.2921 -0.0421
65015SOL    HW199856  10.614   5.989  11.448  1.1054 -0.8437 -0.8663
65015SOL    HW299857  10.707   6.012  11.331  1.1115  1.5759 -0.4290
65016SOL     OW99858   1.141   5.736   7.282 -0.0741  0.0848  0.0463
65016SOL    HW199859   1.237   5.732   7.282 -0.0917 -0.8709  0.9449
65016SOL    HW299860   1.121   5.811   7.338  0.1395  0.7985 -0.8060
65017SOL     OW99861   8.219   0.139  11.288 -0.5628  0.2087  0.4516
65017SOL    HW199862   8.182   0.059  11.250  0.0958  0.2345 -0.2642
65017SOL    HW299863   8.288   0.108  11.347  0.1332  0.2597 -0.3175
65018SOL     OW99864   0.967  10.920   5.063  0.0029  0.4598 -0.4442
65018SOL    HW199865   1.039  10.872   5.104 -0.3086 -0.1606 -0.6256
65018SOL    HW299866   0.930  10.973   5.135  0.4057  0.5063 -0.2681
65019SOL     OW99867   6.572   8.165   2.388  0.3299  0.4022 -0.2853
65019SOL    HW199868   6.662   8.172   2.355  1.0970 -0.9126  1.3540
65019SOL    HW299869   6.529   8.105   2.326  1.0922 -0.2933 -0.1661
65020SOL     OW99870   2.804   8.731   3.685 -0.4591  0.0211 -0.3497
65020SOL    HW199871   2.841   8.819   3.677 -0.7303  0.1528 -0.1780
65020SOL    HW299872   2.877   8.677   3.713 -0.4372  0.3110  0.1580
65021SOL     OW99873   3.746   0.641   9.398  0.3777  0.6160  0.3657
65021SOL    HW199874   3.795   0.698   9.339  0.5849 -1.1439 -1.2643
65021SOL    HW299875   3.812   0.581   9.434 -0.1472 -0.1016  0.1697
65022SOL     OW99876   6.818   0.630   0.095  0.1633 -0.2157  0.2489
65022SOL    HW199877   6.828   0.713   0.048  0.1738 -0.3357  0.0373
65022SOL    HW299878   6.896   0.580   0.070 -0.6267 -0.9152 -0.9114
65023SOL     OW99879   2.759   7.459  12.065 -0.1277 -0.1651 -0.0256
65023SOL    HW199880   2.768   7.522  11.994 -0.1816 -1.6046 -1.3722
65023SOL    HW299881   2.697   7.394  12.031 -1.3590 -0.0985  1.9540
65024SOL     OW99882   7.718   0.816   9.512  0.1163 -0.2444  0.6869
65024SOL    HW199883   7.793   0.844   9.564 -0.9213  3.2461  0.5820
65024SOL    HW299884   7.720   0.872   9.434 -1.4017 -1.5938 -0.4131
65025SOL     OW99885  10.547   8.403   9.635  0.1217  0.2772  0.1749
65025SOL    HW199886  10.556   8.362   9.549 -0.5789  1.1571 -0.3468
65025SOL    HW299887  10.476   8.467   9.623 -1.9872 -1.5140  2.1408
65026SOL     OW99888   1.560  11.929   7.102 -0.0858 -0.4506  0.2926
65026SOL    HW199889   1.614  11.860   7.142 -0.6262 -0.1594  1.5777
65026SOL    HW299890   1.496  11.881   7.048  0.3396 -0.8818  0.1585
65027SOL     OW99891  10.919   7.986  11.017 -0.5703 -0.1490  0.2359
65027SOL    HW199892  10.827   7.967  10.999 -0.1095 -3.1808  0.5404
65027SOL    HW299893  10.966   7.948  10.943  0.5515 -0.9737  1.3312
65028SOL     OW99894   7.786   7.649   3.216 -0.1569 -0.3983  0.4820
65028SOL    HW199895   7.744   7.566   3.195  2.5376 -1.7524  0.0347
65028SOL    HW299896   7.825   7.678   3.133  1.7996 -0.4777  1.3233
65029SOL     OW99897   2.460   8.857  10.453  0.5262 -0.1836  0.1635
65029SOL    HW199898   2.478   8.948  10.431 -0.1323  0.2523  1.3870
65029SOL    HW299899   2.528   8.834  10.517  1.3857 -0.9289 -0.9520
65030SOL     OW99900   8.978   2.848   0.908 -0.0299 -0.4807 -0.0745
65030SOL    HW199901   8.992   2.935   0.870 -0.8174 -0.0117  0.6947
65030SOL    HW299902   8.938   2.864   0.993 -1.2190 -1.6207 -0.3776
65031SOL     OW99903   3.359   7.562   8.913 -0.5192 -0.0691  0.2099
65031SOL    HW199904   3.284   7.582   8.969 -2.7981 -0.0151 -2.6095
65031SOL    HW299905   3.354   7.628   8.843  1.7256 -0.5644 -0.4929
65032SOL     OW99906   0.123   2.523   1.749  0.3901 -0.2906  0.3895
65032SOL    HW199907   0.141   2.433   1.720 -1.3201 -0.9284  1.1735
65032SOL    HW299908   0.069   2.512   1.827  1.9585  1.4310  1.7968
65033SOL     OW99909   5.912   1.697  10.472 -0.1097 -0.0980  0.0748
65033SOL    HW199910   5.826   1.681  10.433  0.2129 -1.7974 -0.0030
65033SOL    HW299911   5.895   1.761  10.541 -1.1841  0.6706 -0.8689
65034SOL     OW99912   1.105   7.033   7.958  0.5243 -0.5550  0.2205
65034SOL    HW199913   1.163   7.086   8.013 -0.7131  0.7429  0.3559
65034SOL    HW299914   1.038   7.000   8.018 -2.2280  2.7947 -0.6299
65035SOL     OW99915   9.872   9.158   2.167 -0.0887  0.3135 -0.2451
65035SOL    HW199916   9.796   9.216   2.161  0.5728  1.0783 -1.8159
65035SOL    HW299917   9.889   9.132   2.077 -0.8579 -3.0567  0.4745
65036SOL     OW99918  12.247   5.909   5.378 -0.0722  0.3353 -0.4864
65036SOL    HW199919  12.305   5.962   5.433  0.0669 -0.2479 -0.0603
65036SOL    HW299920  12.264   5.939   5.289 -1.9809  2.9470 -0.0756
65037SOL     OW99921   8.089   8.994  12.339  0.1165  1.0213  0.0906
65037SOL    HW199922   8.061   8.974  12.249  0.7042 -2.4247  0.5533
65037SOL    HW299923   8.177   9.030  12.328  0.0547  0.9555 -0.7319
65038SOL     OW99924   5.784   3.623  11.130  0.0254  0.2151 -0.5520
65038SOL    HW199925   5.806   3.678  11.205  2.0395 -1.3840  0.1312
65038SOL    HW299926   5.712   3.567  11.161  0.1258  0.2903 -0.1837
65039SOL     OW99927   0.461   3.428   2.847  0.6994 -0.1697  0.2342
65039SOL    HW199928   0.547   3.456   2.815 -0.2471 -0.5924 -3.0717
65039SOL    HW299929   0.426   3.506   2.890  1.6684  0.8670 -0.7807
65040SOL     OW99930  10.160   3.570   3.837 -0.2579 -0.4367  0.6871
65040SOL    HW199931  10.126   3.483   3.856 -0.4462 -0.0870  2.0223
65040SOL    HW299932  10.255   3.559   3.840 -0.2540 -0.8062 -0.2386
65041SOL     OW99933   7.239   3.064   7.914 -0.2443 -0.0217  0.0773
65041SOL    HW199934   7.167   3.127   7.910  1.0228  1.4895 -0.5504
65041SOL    HW299935   7.303   3.105   7.973 -0.0116 -1.4474  0.8382
65042SOL     OW99936   9.423  11.530  10.327  0.1011  0.2493  0.1740
65042SOL    HW199937   9.357  11.571  10.271  1.4553  1.2380 -0.7777
65042SOL    HW299938   9.375  11.501  10.404 -1.6208 -0.0714 -0.9668
65043SOL     OW99939  10.634   2.092   4.481 -0.0861 -0.3122  0.5411
65043SOL    HW199940  10.704   2.027   4.480  0.8665  0.6322 -1.9982
65043SOL    HW299941  10.566   2.054   4.426 -1.5379 -1.0619  2.7008
65044SOL     OW99942   9.679   7.138   9.656 -0.2586 -0.6637  0.0563
65044SOL    HW199943   9.758   7.189   9.675 -1.0205  0.3532  0.5700
65044SOL    HW299944   9.692   7.106   9.566  1.7174 -2.4064  0.8613
65045SOL     OW99945  10.818   8.911   8.049  0.2988  0.5100 -0.1217
65045SOL    HW199946  10.796   8.969   8.122  0.5963  2.0851 -1.2288
65045SOL    HW299947  10.900   8.869   8.076 -0.3183  0.0055  1.0191
65046SOL     OW99948   0.618   5.057   2.089 -0.3694  0.3518  0.0157
65046SOL    HW199949   0.678   4.984   2.072 -0.5572  0.0895  0.4711
65046SOL    HW299950   0.536   5.030   2.047 -0.6939 -0.0878  0.9066
65047SOL     OW99951   6.994   9.559   6.287 -0.1913  0.3901 -0.2065
65047SOL    HW199952   6.977   9.563   6.381  0.9676 -0.8831  0.0824
65047SOL    HW299953   7.081   9.597   6.277  0.2202 -0.6112 -0.5811
65048SOL     OW99954   7.059   3.760  12.516  0.1115 -0.1388 -0.0932
65048SOL    HW199955   7.135   3.750  12.459  0.5187  0.8311  0.2538
65048SOL    HW299956   6.992   3.799  12.460  1.3647  3.4399  0.6284
65049SOL     OW99957   5.769   7.729  10.096 -1.2925 -0.5905  0.0595
65049SOL    HW199958   5.683   7.690  10.114 -2.0573 -0.7749 -3.2347
65049SOL    HW299959   5.752   7.823  10.096 -1.3186 -0.5960  0.2333
65050SOL     OW99960  11.895   3.744   9.210  0.1609  0.4025 -0.5672
65050SOL    HW199961  11.929   3.797   9.138 -1.8252  0.2542 -1.6720
65050SOL    HW299962  11.929   3.786   9.289  0.8209  1.7105 -1.5169
65051SOL     OW99963   7.736   3.579   0.146  0.3587  0.5502  0.2906
65051SOL    HW199964   7.824   3.565   0.181  0.2913 -1.2111 -0.1189
65051SOL    HW299965   7.713   3.495   0.105 -1.3269  1.1171 -0.0153
65052SOL     OW99966   0.597   0.382  11.859 -0.0150  0.2936 -0.3624
65052SOL    HW199967   0.528   0.440  11.826  0.5118  1.0629 -0.1390
65052SOL    HW299968   0.673   0.402  11.804  0.2168 -0.0875 -0.1837
65053SOL     OW99969   6.218   5.356  10.218 -0.1607 -0.0395 -0.1583
65053SOL    HW199970   6.256   5.321  10.299 -0.8486  1.2069  0.7347
65053SOL    HW299971   6.284   5.418  10.186 -0.8786  1.2609  0.7736
65054SOL     OW99972   4.166   6.334  11.273 -0.0285  0.3169 -0.0336
65054SOL    HW199973   4.151   6.312  11.181  0.3462  1.0277 -0.2758
65054SOL    HW299974   4.122   6.419  11.284 -1.0058 -0.2631  0.7373
65055SOL     OW99975   5.840   9.618   0.839 -0.5421 -0.3914 -0.0471
65055SOL    HW199976   5.771   9.658   0.786  0.8839 -0.1514 -1.7943
65055SOL    HW299977   5.916   9.674   0.827 -0.0444 -0.5337  2.0202
65056SOL     OW99978   1.334   4.388  12.381 -0.0622 -0.3792 -0.3679
65056SOL    HW199979   1.293   4.301  12.379 -0.5760 -0.1831  0.6525
65056SOL    HW299980   1.261   4.448  12.399  0.4800  0.1178  0.2030
65057SOL     OW99981  12.594   8.476   4.422  0.7654 -0.3751 -0.0937
65057SOL    HW199982  12.551   8.404   4.376  0.7820 -0.3042 -0.2200
65057SOL    HW299983  12.630   8.531   4.352  0.5581 -0.1253 -0.0050
65058SOL     OW99984   1.736   8.057   8.250  0.1281  0.1347 -0.0237
65058SOL    HW199985   1.687   8.008   8.184 -0.5913  0.5727  0.1734
65058SOL    HW299986   1.716   8.013   8.333 -1.6500  1.5314  0.3644
65059SOL     OW99987   8.801   8.826   9.040 -0.2354  0.2227 -0.0679
65059SOL    HW199988   8.728   8.774   9.006  1.6334 -1.0406 -2.4750
65059SOL    HW299989   8.841   8.866   8.962  0.9542  1.8497  1.2899
65060SOL     OW99990   6.765   4.788   7.961 -0.5130  0.3068  0.2460
65060SOL    HW199991   6.797   4.865   8.008 -0.5943  0.3638  0.2079
65060SOL    HW299992   6.674   4.809   7.939  0.1287  1.2043 -1.8496
65061SOL     OW99993   5.393   5.098   7.544 -0.9566 -0.7347 -0.4463
65061SOL    HW199994   5.413   5.173   7.600  1.5116 -2.4630  1.1487
65061SOL    HW299995   5.309   5.121   7.504 -1.2583  2.0048  1.4567
65062SOL     OW99996   1.715   3.594   1.510  0.2689  0.2760  0.4912
65062SOL    HW199997   1.810   3.578   1.503  0.1438 -0.7832  1.0050
65062SOL    HW299998   1.681   3.515   1.552 -1.1185 -0.1567 -1.3524
65063SOL     OW99999   8.309   8.364   6.901 -0.1917  0.1997 -0.7144
65063SOL    HW1    0   8.264   8.448   6.894 -0.3194  0.1077 -1.0060
65063SOL    HW2    1   8.243   8.304   6.937 -0.1838  0.1586 -0.7675
65064SOL     OW    2  12.529   4.105   9.937 -0.3788  0.3667  0.0198
65064SOL    HW1    3  12.533   4.019   9.978  1.0157  0.5397  0.2766
65064SOL    HW2    4  12.620   4.135   9.933 -0.7298  1.3765 -1.0339
65065SOL     OW    5   7.381   5.984  11.677  0.5674 -0.0928  0.3636
65065SOL    HW1    6   7.351   6.030  11.755  1.0506  0.1045  0.4370
65065SOL    HW2    7   7.356   5.893  11.692 -0.1629  0.0953  0.3340
65066SOL     OW    8   6.001   0.073   8.506  0.0615  0.1902  0.2664
65066SOL    HW1    9   5.998  -0.015   8.545  1.2988 -0.0857 -0.2146
65066SOL    HW2   10   5.996   0.057   8.412 -1.1901  0.7412  0.2292
65067SOL     OW   11   4.073   3.780   3.309 -0.7488 -0.2294 -0.5388
65067SOL    HW1   12   4.040   3.823   3.231  0.1230  2.5591  0.5055
65067SOL    HW2   13   3.998   3.775   3.368 -0.6615  0.6760 -0.3487
65068SOL     OW   14   1.421   7.632   7.005  0.1948 -0.1960  0.0933
65068SOL    HW1   15   1.397   7.626   7.098  0.4499  0.3944  0.1995
65068SOL    HW2   16   1.382   7.554   6.966  0.1662 -0.5030  0.7142
65069SOL     OW   17   6.665   6.060   3.700  0.5393 -0.6360  0.3804
65069SOL    HW1   18   6.595   6.118   3.730 -0.0700 -1.3062  0.2767
65069SOL    HW2   19   6.633   5.972   3.718  0.0029 -1.1177 -2.3835
65070SOL     OW   20   2.325   4.942   3.045  0.0658  0.2748  0.0483
65070SOL    HW1   21   2.390   4.892   2.996 -1.2844 -1.8271  0.2390
65070SOL    HW2   22   2.254   4.879   3.061 -0.9191  1.7648  1.9799
65071SOL     OW   23   1.830   7.322   9.988  0.4596 -0.3632 -0.1131
65071SOL    HW1   24   1.758   7.342   9.928  1.9174  1.1063 -1.4730
65071SOL    HW2   25   1.909   7.347   9.940  1.7856 -0.3162  1.9600
65072SOL     OW   26   4.583   3.298   4.266  0.1636 -0.5078 -0.3385
65072SOL    HW1   27   4.505   3.246   4.284  0.0671 -0.2928 -0.1304
65072SOL    HW2   28   4.590   3.358   4.341 -0.1539  0.2869 -0.9251
65073SOL     OW   29   1.329   3.672   9.576 -0.2560  0.4116  0.1425
65073SOL    HW1   30   1.377   3.635   9.502 -1.3111  0.1934 -0.4522
65073SOL    HW2   31   1.292   3.597   9.622  0.5046  0.5371  0.9844
65074SOL     OW   32   6.404  10.312   3.882 -0.1004 -0.1168 -0.1428
65074SOL    HW1   33   6.448  10.311   3.966 -0.4602 -0.4779  0.0480
65074SOL    HW2   34   6.324  10.364   3.897 -0.0861 -0.0463 -0.3017
65075SOL     OW   35   2.694  12.083   0.339 -0.1959  0.3224  0.1946
65075SOL    HW1   36   2.659  12.102   0.252 -1.0777 -1.1232  0.2090
65075SOL    HW2   37   2.672  11.991   0.355 -1.2329  0.8917  2.4815
65076SOL     OW   38   1.469   0.864   6.706 -0.2969 -0.7056 -0.1444
65076SOL    HW1   39   1.381   0.865   6.743 -0.7784  0.7635 -1.2206
65076SOL    HW2   40   1.511   0.941   6.744  0.2419 -0.9266 -0.2865
65077SOL     OW   41  12.601   7.262  11.489 -0.3826  0.2123 -0.1593
65077SOL    HW1   42  12.541   7.215  11.548 -2.0383 -2.1054 -3.3627
65077SOL    HW2   43  12.568   7.352  11.489 -1.4661 -0.1516  1.0280
65078SOL     OW   44  11.723   7.217   8.709  0.2172 -0.1079  1.2163
65078SOL    HW1   45  11.788   7.165   8.661  0.6914 -0.2436  1.9932
65078SOL    HW2   46  11.771   7.254   8.783 -0.1699  1.2469  0.8319
65079SOL     OW   47  12.149   1.500   2.688  0.0322  0.2856  0.2600
65079SOL    HW1   48  12.123   1.414   2.719  0.0122  0.2367  0.1111
65079SOL    HW2   49  12.075   1.529   2.634  0.1849  0.2498  0.0318
65080SOL     OW   50   5.549   1.898   2.208  0.0022  0.4038  0.5364
65080SOL    HW1   51   5.537   1.982   2.164 -0.0966 -0.0942 -0.4194
65080SOL    HW2   52   5.635   1.904   2.249  1.0203  0.1767 -1.4283
65081SOL     OW   53   5.078   8.199  12.245  0.1595 -0.1227  0.4244
65081SOL    HW1   54   5.048   8.120  12.290  2.2077 -2.0817 -1.4004
65081SOL    HW2   55   5.155   8.171  12.196  0.2026  2.7192 -1.3705
65082SOL     OW   56   6.063   2.358   8.738  0.1438  0.1122  0.1843
65082SOL    HW1   57   6.096   2.447   8.725  1.2250 -0.5097 -1.9109
65082SOL    HW2   58   6.026   2.358   8.826 -3.0876  3.5937 -0.9382
65083SOL     OW   59  11.448  12.117   9.904  0.3186 -0.0333  0.3577
65083SOL    HW1   60  11.488  12.032   9.887 -2.5069 -1.7798  1.6175
65083SOL    HW2   61  11.355  12.097   9.917 -0.3632  3.1911  1.2917
65084SOL     OW   62   1.010   7.058   3.570  0.1494  0.4909  0.1082
65084SOL    HW1   63   1.024   7.034   3.478  1.7170 -2.1933  0.9166
65084SOL    HW2   64   0.917   7.040   3.586 -0.1234  0.9180 -0.9340
65085SOL     OW   65   9.620   6.446   8.035  0.2959 -0.2037 -0.5825
65085SOL    HW1   66   9.668   6.525   8.060 -1.1682  0.4401  0.3329
65085SOL    HW2   67   9.676   6.404   7.970  2.1331  0.4501  0.4873
65086SOL     OW   68  11.291   8.412   1.459  0.3455  0.3121 -0.0765
65086SOL    HW1   69  11.224   8.417   1.392  1.1993  0.2352 -0.9512
65086SOL    HW2   70  11.244   8.430   1.541 -0.3716  2.3105 -0.8730
65087SOL     OW   71   1.715   8.515   5.262  0.0571  0.1184 -0.3693
65087SOL    HW1   72   1.696   8.605   5.238  0.4692  0.5038  0.6958
65087SOL    HW2   73   1.651   8.494   5.329  1.1443  0.2672  0.7472
65088SOL     OW   74   4.024  11.455   9.242  0.6471  0.4617 -0.5940
65088SOL    HW1   75   3.976  11.483   9.320 -1.6736 -1.1706 -1.3393
65088SOL    HW2   76   4.036  11.361   9.254  4.1477  0.8337 -0.2784
65089SOL     OW   77   9.193  10.510  12.169  0.7786 -0.8395  0.0842
65089SOL    HW1   78   9.178  10.461  12.250 -0.1774 -2.6657 -1.1408
65089SOL    HW2   79   9.257  10.577  12.194  0.1071 -0.9709  2.4667
65090SOL     OW   80   7.917  11.080  10.863 -0.3205 -0.5445  0.6123
65090SOL    HW1   81   7.933  10.992  10.898 -0.2716 -0.0920  1.7592
65090SOL    HW2   82   7.926  11.138  10.938  0.1464  0.5065 -0.2350
65091SOL     OW   83  11.561   7.186   7.499 -0.3291  0.6939 -0.1639
65091SOL    HW1   84  11.495   7.241   7.542  0.1231  0.8623  0.3243
65091SOL    HW2   85  11.557   7.102   7.546 -0.3418  0.6346 -0.2708
65092SOL     OW   86   1.113   4.500   6.439  0.2449 -0.1224  0.4365
65092SOL    HW1   87   1.144   4.575   6.491  2.0077 -0.7655  0.3853
65092SOL    HW2   88   1.172   4.497   6.364  0.3079 -1.6432  0.5179
65093SOL     OW   89   5.432   1.506   8.301 -0.2280 -0.0687 -0.0122
65093SOL    HW1   90   5.373   1.577   8.325  1.2797  2.7052 -3.4284
65093SOL    HW2   91   5.499   1.506   8.369 -2.1363 -0.8621  1.9937
65094SOL     OW   92   4.054  12.119   2.157 -0.3964 -0.4972 -0.1871
65094SOL    HW1   93   4.094  12.124   2.244 -2.5198 -1.8827  0.9568
65094SOL    HW2   94   4.126  12.138   2.097  1.3540 -0.3391  1.8123
65095SOL     OW   95   1.657   7.797   8.174 -0.5073 -0.6784  0.6529
65095SOL    HW1   96   1.731   7.772   8.118 -0.5645  0.1077  0.2125
65095SOL    HW2   97   1.646   7.723   8.234  0.8311 -0.6891  0.9246
65096SOL     OW   98   9.192   7.364   1.451 -0.5456 -0.4339 -0.1245
65096SOL    HW1   99   9.237   7.436   1.495 -0.3654 -0.5274 -0.1543
65096SOL    HW2  100   9.155   7.404   1.372  0.3488 -0.5747 -0.6227
65097SOL     OW  101  11.683  11.096   6.676  0.2658  0.1090 -0.1727
65097SOL    HW1  102  11.759  11.087   6.733  0.3388  2.5077  0.1973
65097SOL    HW2  103  11.678  11.189   6.656 -1.3329 -0.2784 -1.9460
65098SOL     OW  104  12.615  10.806   6.965 -0.1803  0.1791 -0.0848
65098SOL    HW1  105  12.656  10.792   7.050  2.3847  0.8963 -1.1180
65098SOL    HW2  106  12.533  10.853   6.985  1.1020  1.7199  1.9121
65099SOL     OW  107   9.509  11.669  12.238  0.7504 -0.1600 -0.2023
65099SOL    HW1  108   9.542  11.647  12.151  1.0919 -0.4854  0.0075
65099SOL    HW2  109   9.535  11.595  12.293 -1.5733 -1.1821 -0.3143
65100SOL     OW  110   8.129   4.373   6.240  0.3465 -0.5108 -0.1034
65100SOL    HW1  111   8.123   4.354   6.146  0.3976 -2.4803  0.2459
65100SOL    HW2  112   8.223   4.377   6.258  0.3424  0.9655 -0.3081
65101SOL     OW  113  10.049   6.734   5.072  0.0395 -0.3039 -0.1231
65101SOL    HW1  114   9.997   6.719   5.152  0.0893  1.8526  0.3889
65101SOL    HW2  115  10.007   6.810   5.031  2.9825  1.8696  0.5609
65102SOL     OW  116  11.307   2.846   8.713 -0.0252  0.4110  0.5466
65102SOL    HW1  117  11.267   2.791   8.646  1.4562  0.1757 -0.1909
65102SOL    HW2  118  11.391   2.805   8.731  1.2386  2.5005 -0.1925
65103SOL     OW  119   4.484   7.220  10.292  0.2215  0.9738 -0.2155
65103SOL    HW1  120   4.566   7.193  10.251  1.4025 -0.9413  2.9461
65103SOL    HW2  121   4.509   7.294  10.348 -0.3285  0.8211  0.2385
65104SOL     OW  122   9.047  11.860   4.852  0.0758  0.0807 -0.0245
65104SOL    HW1  123   8.962  11.893   4.881 -0.8242 -2.3123  0.3166
65104SOL    HW2  124   9.111  11.921   4.888 -1.4822  2.0977 -0.5188
65105SOL     OW  125   5.193   2.097   5.082 -0.0754 -0.3030 -0.1791
65105SOL    HW1  126   5.165   2.147   5.005  1.6555 -1.2111 -1.4755
65105SOL    HW2  127   5.132   2.122   5.151 -1.2614  1.0742 -1.6629
65106SOL     OW  128  11.118   8.637   8.794  0.2221 -0.2575 -0.0038
65106SOL    HW1  129  11.203   8.676   8.775 -1.1493  1.9758 -2.2158
65106SOL    HW2  130  11.069   8.645   8.712 -2.0041 -1.8492  1.0548
65107SOL     OW  131  11.422   8.250  10.170 -0.1657  0.7416  0.0488
65107SOL    HW1  132  11.502   8.286  10.131 -0.3130  1.7048  0.6053
65107SOL    HW2  133  11.433   8.263  10.264 -0.3111 -0.5205  0.2502
65108SOL     OW  134   5.587   4.901  11.087  0.2405 -0.1892  0.5548
65108SOL    HW1  135   5.588   4.950  11.005 -0.5120  0.8218  1.1276
65108SOL    HW2  136   5.672   4.916  11.126 -0.0189  0.7488  0.7687
65109SOL     OW  137   4.170  12.040   0.636 -0.0958 -0.3330 -0.2454
65109SOL    HW1  138   4.156  12.097   0.711 -1.7700 -1.5422  0.4249
65109SOL    HW2  139   4.146  12.093   0.560 -0.0818  0.3406  0.2172
65110SOL     OW  140   6.618   2.733   6.403  0.4489  0.1258  0.0720
65110SOL    HW1  141   6.583   2.817   6.433  0.6816 -0.3785  1.9024
65110SOL    HW2  142   6.547   2.695   6.350 -0.0309  1.0492  0.0350
65111SOL     OW  143   3.567   7.119   0.820  0.7254  0.1083 -0.7836
65111SOL    HW1  144   3.482   7.088   0.851  0.9665 -0.0434 -0.2701
65111SOL    HW2  145   3.560   7.214   0.822  0.4832  0.0949 -0.9767
65112SOL     OW  146   7.922   7.934   5.529 -1.2303 -0.5276 -0.5976
65112SOL    HW1  147   7.837   7.894   5.513 -1.7850 -0.0247  0.9782
65112SOL    HW2  148   7.956   7.890   5.607 -0.6039  0.1294 -0.4859
65113SOL     OW  149  12.141  12.118   5.434 -0.0878  0.0496 -0.6575
65113SOL    HW1  150  12.150  12.123   5.338  0.4145  0.6966 -0.5860
65113SOL    HW2  151  12.187  12.196   5.466  1.2131 -1.0227  0.2005
65114SOL     OW  152   3.567   1.879  12.140 -0.4180  0.4605 -0.0380
65114SOL    HW1  153   3.660   1.884  12.118 -0.7006  0.2979 -1.3762
65114SOL    HW2  154   3.525   1.941  12.080 -1.5226 -1.8115 -1.7661
65115SOL     OW  155   8.858   7.695   7.905  0.2093  0.0280  0.5961
65115SOL    HW1  156   8.826   7.724   7.990  1.7643  0.7153  0.9914
65115SOL    HW2  157   8.952   7.682   7.918  0.3776 -0.4322 -0.8635
65116SOL     OW  158   5.270   7.938   4.013 -0.1524 -0.3836  0.1968
65116SOL    HW1  159   5.260   7.915   4.105 -1.9441  0.2455  0.2055
65116SOL    HW2  160   5.260   7.856   3.966 -1.4080 -0.4183  0.4836
65117SOL     OW  161   4.853   2.288   4.882  0.1988  0.0770  0.2197
65117SOL    HW1  162   4.806   2.209   4.908  2.0659 -2.1794 -2.6077
65117SOL    HW2  163   4.790   2.339   4.832 -0.6697 -0.2672  0.9461
65118SOL     OW  164   7.699   8.308   8.941  0.6449  0.7276 -0.2883
65118SOL    HW1  165   7.740   8.349   9.017  1.8546 -1.5922  0.4318
65118SOL    HW2  166   7.614   8.352   8.933  0.7243  1.4666  2.0565
65119SOL     OW  167  12.379   1.944   9.680 -0.4733 -0.2064  0.2150
65119SOL    HW1  168  12.348   2.027   9.713 -0.7374 -0.6992  1.2370
65119SOL    HW2  169  12.434   1.967   9.605 -1.7089  0.7838 -0.4120
65120SOL     OW  170   6.174   8.724   9.470  0.1868  0.6964 -0.2225
65120SOL    HW1  171   6.090   8.756   9.437  0.1336  0.1441 -0.6188
65120SOL    HW2  172   6.200   8.789   9.536 -0.7834  0.6148  0.2552
65121SOL     OW  173   0.557  12.036   6.487 -0.5221  0.2743 -0.5781
65121SOL    HW1  174   0.543  11.953   6.533 -0.3903 -0.2630 -1.4900
65121SOL    HW2  175   0.574  12.011   6.396 -1.0381  1.3321 -0.9807
65122SOL     OW  176   2.194   4.995   4.942 -0.2224 -0.2889 -0.4108
65122SOL    HW1  177   2.237   4.997   4.856  1.5568  0.5442  0.4281
65122SOL    HW2  178   2.174   5.087   4.961  1.1423 -0.2110  0.8345
65123SOL     OW  179   4.310   0.678   5.504  0.4702  0.6403  0.5383
65123SOL    HW1  180   4.313   0.773   5.513 -0.6931  0.6543  0.8443
65123SOL    HW2  181   4.245   0.649   5.568 -1.0189 -0.1098 -1.2196
65124SOL     OW  182   1.749   7.469  10.214  0.0714  0.1095 -0.1618
65124SOL    HW1  183   1.787   7.425  10.138  0.7437  0.9589 -0.3341
65124SOL    HW2  184   1.715   7.552  10.180  2.4220  1.5806  0.7947
65125SOL     OW  185  10.256   3.007  12.316 -0.0982  0.2148 -0.1525
65125SOL    HW1  186  10.284   3.053  12.237  0.2965 -0.9273 -0.7082
65125SOL    HW2  187  10.261   3.073  12.386  0.1809  1.0677 -0.9605
65126SOL     OW  188   4.866  11.771  11.314  0.2504 -0.1807  1.4443
65126SOL    HW1  189   4.894  11.805  11.398 -0.1663 -0.6610  1.7859
65126SOL    HW2  190   4.808  11.698  11.336 -1.5923  1.0244  0.7695
65127SOL     OW  191   9.127   0.178  12.473 -0.4452  0.8194  0.2979
65127SOL    HW1  192   9.057   0.129  12.429 -1.3383 -1.3446  3.6672
65127SOL    HW2  193   9.203   0.120  12.470 -0.3559  0.8856  1.0091
65128SOL     OW  194  12.415   0.606   7.019  0.1808  0.2472 -0.1820
65128SOL    HW1  195  12.320   0.594   7.022  0.2647 -0.7592 -0.9120
65128SOL    HW2  196  12.431   0.684   7.071 -1.1608  1.0748 -0.9536
65129SOL     OW  197   4.833   8.873   0.896 -0.1476  0.4571 -0.0063
65129SOL    HW1  198   4.750   8.893   0.852  1.5726  1.8264 -2.8929
65129SOL    HW2  199   4.880   8.817   0.835  1.1572 -0.1952  1.5172
65130SOL     OW  200   7.251   4.087   2.506 -0.3982  0.3012  0.1656
65130SOL    HW1  201   7.338   4.127   2.502 -1.0230  1.6644 -0.0817
65130SOL    HW2  202   7.269   3.995   2.526  1.6489 -1.3527 -6.5838
65131SOL     OW  203   5.238   0.443   6.982 -0.8158  0.3465  0.3789
65131SOL    HW1  204   5.226   0.535   7.006 -0.0822  0.4391  0.4210
65131SOL    HW2  205   5.283   0.404   7.057 -2.5066 -0.4312  1.0345
65132SOL     OW  206   0.027  11.658   6.553 -0.2573  0.1728  0.0557
65132SOL    HW1  207   0.048  11.646   6.645  0.4585  0.7066 -0.0318
65132SOL    HW2  208   0.019  11.753   6.542 -0.2428  0.1202 -0.4558
65133SOL     OW  209   6.683   0.887  11.122  0.2052  0.0010  0.0303
65133SOL    HW1  210   6.657   0.908  11.033  0.0562  0.3821  0.1608
65133SOL    HW2  211   6.638   0.804  11.141 -2.1952  1.3641  0.7749
65134SOL     OW  212  12.157  12.182   5.146  0.0038 -0.3026  0.3724
65134SOL    HW1  213  12.120  12.215   5.065  1.9500  0.3971 -0.2819
65134SOL    HW2  214  12.134  12.089   5.147  1.8267 -0.8762 -2.1480
65135SOL     OW  215   5.484  10.814   8.534  0.2594 -0.0882  0.7529
65135SOL    HW1  216   5.402  10.854   8.503  0.7177 -0.1870 -0.6203
65135SOL    HW2  217   5.455  10.746   8.595 -0.7021 -0.3865 -0.0145
65136SOL     OW  218   1.639   0.788   3.129  0.1755  0.3091  0.1600
65136SOL    HW1  219   1.620   0.816   3.039  0.3783 -0.6101 -0.1754
65136SOL    HW2  220   1.668   0.868   3.173  1.2602  0.5324 -0.9210
65137SOL     OW  221   3.749   1.615   9.754 -0.2882  0.7306 -0.2698
65137SOL    HW1  222   3.808   1.540   9.747 -0.1145  0.8706 -0.3300
65137SOL    HW2  223   3.748   1.635   9.848  1.0339  1.7202 -0.4298
65138SOL     OW  224   4.849   6.775   5.191 -0.0018  0.0835  0.0456
65138SOL    HW1  225   4.798   6.728   5.257  0.0243 -1.3834 -0.9293
65138SOL    HW2  226   4.804   6.757   5.108  1.3860 -0.2472 -0.6722
65139SOL     OW  227   6.094   9.479   0.493  0.0180 -0.1857  0.0387
65139SOL    HW1  228   6.158   9.470   0.422 -0.0247 -3.7748  0.2882
65139SOL    HW2  229   6.026   9.415   0.472 -2.4205  1.9305  0.9845
65140SOL     OW  230   2.318   3.567   2.360  0.6636  0.5209 -0.2087
65140SOL    HW1  231   2.238   3.545   2.313  1.2692 -1.5725 -0.3457
65140SOL    HW2  232   2.289   3.625   2.431 -1.4183 -2.1111  1.2774
65141SOL     OW  233  11.077   2.751   1.608  0.0982 -0.2678  0.1782
65141SOL    HW1  234  11.113   2.809   1.675 -0.5936  0.9607 -0.4775
65141SOL    HW2  235  11.058   2.669   1.654 -1.4173  0.9014  1.7871
65142SOL     OW  236  12.288   2.882   6.150 -0.2894  0.8268 -0.1330
65142SOL    HW1  237  12.201   2.850   6.174  0.7013 -2.3829 -0.3280
65142SOL    HW2  238  12.346   2.842   6.215  1.4381 -0.5157 -2.3617
65143SOL     OW  239  12.575   6.930   6.077  0.0338  0.3347  0.3309
65143SOL    HW1  240  12.573   7.023   6.055 -0.4726  0.5678  1.3058
65143SOL    HW2  241  12.603   6.887   5.996  2.8164  1.5316  0.5308
65144SOL     OW  242   4.461   6.248   3.456 -0.1772 -0.3708  0.3802
65144SOL    HW1  243   4.465   6.207   3.542  0.2141  0.8877  0.9951
65144SOL    HW2  244   4.550   6.281   3.441 -0.8964  1.9587  0.8178
65145SOL     OW  245   4.380   7.307   2.514  0.2553 -0.1988  0.1687
65145SOL    HW1  246   4.347   7.347   2.434  0.3924 -0.4304 -0.0032
65145SOL    HW2  247   4.340   7.358   2.585 -0.4566 -0.4528 -0.0400
65146SOL     OW  248   7.028   6.126   0.221 -0.0475  0.2969 -0.2375
65146SOL    HW1  249   7.095   6.179   0.263  1.7767 -1.9725 -0.0890
65146SOL    HW2  250   6.980   6.084   0.293  1.1629 -1.3143 -0.3226
65147SOL     OW  251   8.110   9.407   5.175 -0.1905 -0.0752 -0.0089
65147SOL    HW1  252   8.165   9.449   5.109 -1.2104  0.2008 -0.7037
65147SOL    HW2  253   8.172   9.371   5.238  0.7480  1.9771  0.3193
65148SOL     OW  254   6.204   9.309   1.967  0.1300  1.0032 -0.2513
65148SOL    HW1  255   6.118   9.346   1.948 -0.6652 -0.7463 -0.3364
65148SOL    HW2  256   6.184   9.223   2.005  1.8095  1.3960  1.7187
65149SOL     OW  257   2.295  10.509   5.409  0.1427  0.4066  0.1675
65149SOL    HW1  258   2.285  10.604   5.401 -1.0087  0.2772 -0.2149
65149SOL    HW2  259   2.387  10.496   5.430  0.1545  1.6590  1.0307
65150SOL     OW  260   9.053  10.654   2.760  0.4931  0.3382 -0.1340
65150SOL    HW1  261   9.100  10.623   2.682 -2.1673  0.2143 -1.8075
65150SOL    HW2  262   8.992  10.584   2.781 -0.6082  1.4460  0.4807
65151SOL     OW  263   4.437   8.318   0.098 -0.1711  0.3348 -0.5173
65151SOL    HW1  264   4.452   8.233   0.138 -0.8342 -0.3078 -1.5707
65151SOL    HW2  265   4.373   8.361   0.154  0.8617  0.5357  0.5334
65152SOL     OW  266   9.187   3.858   1.358 -0.5844  0.4022  0.3477
65152SOL    HW1  267   9.179   3.856   1.262  1.6948 -0.7022  0.1186
65152SOL    HW2  268   9.097   3.844   1.389 -1.4034  0.9042 -1.6004
65153SOL     OW  269  10.503   1.800   1.074  0.1480 -0.3434 -0.1274
65153SOL    HW1  270  10.443   1.811   1.000  2.0069 -0.8090 -1.7695
65153SOL    HW2  271  10.559   1.878   1.071  0.9190 -0.8765  0.1216
65154SOL     OW  272  11.602  10.822   5.638 -0.0244  0.1312  0.4906
65154SOL    HW1  273  11.564  10.838   5.724 -1.3843  1.1223 -0.2412
65154SOL    HW2  274  11.625  10.910   5.605  0.3791 -0.2164 -0.1776
65155SOL     OW  275  12.053  12.129   1.784  0.2254  0.4486 -0.4950
65155SOL    HW1  276  12.069  12.190   1.856  2.1265  0.4187 -0.8246
65155SOL    HW2  277  11.962  12.103   1.793  0.4062  0.4628  1.9072
65156SOL     OW  278   9.087   9.573   3.504  0.0927  0.0662 -0.1012
65156SOL    HW1  279   9.101   9.629   3.580  1.5062 -3.0428  2.1429
65156SOL    HW2  280   9.153   9.504   3.511 -0.7004 -1.2481 -3.3561
65157SOL     OW  281   0.996   0.215   4.046  0.3142 -0.0776  0.1210
65157SOL    HW1  282   1.085   0.203   4.012  0.2541 -0.9696  0.2552
65157SOL    HW2  283   0.979   0.309   4.036  1.3910  0.1615  0.3908
65158SOL     OW  284   5.164   2.575  12.490  0.2930 -0.4409  0.2530
65158SOL    HW1  285   5.242   2.631  12.496  0.3799 -0.6476  1.4233
65158SOL    HW2  286   5.154   2.541  12.579 -1.4696  0.0444  0.2657
65159SOL     OW  287   0.344   1.855   1.640 -0.2795 -0.0508  0.1519
65159SOL    HW1  288   0.407   1.784   1.649 -0.3822 -0.1287  0.2528
65159SOL    HW2  289   0.308   1.866   1.728 -1.0338 -0.5864 -0.0844
65160SOL     OW  290   4.814   2.571  11.821 -0.0672  0.3425  0.3058
65160SOL    HW1  291   4.864   2.565  11.902 -0.5142 -0.0270  0.5593
65160SOL    HW2  292   4.794   2.665  11.811  1.7629  0.6912 -0.4802
65161SOL     OW  293   8.926   5.835   6.030  0.5874 -0.2347 -0.2179
65161SOL    HW1  294   8.889   5.747   6.023  0.7899 -0.5361  1.8936
65161SOL    HW2  295   8.955   5.842   6.121  0.4814  2.0591 -0.2940
65162SOL     OW  296   3.385   6.477   1.929 -0.0618  0.3056 -0.1256
65162SOL    HW1  297   3.339   6.500   1.848  1.1475 -1.0266 -1.2422
65162SOL    HW2  298   3.351   6.538   1.994 -0.7298  1.7410 -1.7433
65163SOL     OW  299  12.060   1.703   9.093 -0.0160 -0.0480  0.2822
65163SOL    HW1  300  12.012   1.783   9.072 -1.3592 -0.8320  0.2732
65163SOL    HW2  301  11.992   1.637   9.104  0.8887 -0.6601  2.7225
65164SOL     OW  302   1.873   7.647  11.894  0.5317 -0.4789  0.1945
65164SOL    HW1  303   1.865   7.638  11.799  2.2108  0.1041 -0.0393
65164SOL    HW2  304   1.788   7.681  11.922  0.4262  0.5446 -1.2699
65165SOL     OW  305   1.947   0.998  10.550 -0.6548 -0.1401  0.1462
65165SOL    HW1  306   2.024   1.041  10.586 -0.6872 -0.6135  0.8148
65165SOL    HW2  307   1.960   0.999  10.455  0.0466  0.0190  0.2395
65166SOL     OW  308   4.355   7.094   4.040 -0.5144  0.4514 -0.7314
65166SOL    HW1  309   4.308   7.017   4.071  0.5936  0.8158  2.1353
65166SOL    HW2  310   4.311   7.168   4.082  0.1620  1.1400 -1.1936
65167SOL     OW  311   3.040  11.210   2.764  0.1237 -0.1638  0.1862
65167SOL    HW1  312   3.128  11.175   2.750 -0.0762 -0.0903 -1.4602
65167SOL    HW2  313   3.014  11.176   2.850  1.2010 -1.3600  0.0751
65168SOL     OW  314   8.575  10.252   3.453 -0.1004  0.0561 -0.5591
65168SOL    HW1  315   8.497  10.228   3.504  0.1547  0.0748 -0.1548
65168SOL    HW2  316   8.543  10.312   3.386  0.0539  2.8668  1.7047
65169SOL     OW  317  11.302   4.845   4.862 -0.1927 -0.4582 -0.1486
65169SOL    HW1  318  11.316   4.776   4.927  0.6279  0.3936  0.6227
65169SOL    HW2  319  11.273   4.799   4.783 -0.5590 -1.5848  0.6103
65170SOL     OW  320   9.697  10.261  12.319 -0.2030 -0.6566 -0.2793
65170SOL    HW1  321   9.615  10.287  12.276  1.5366  4.0565 -1.3457
65170SOL    HW2  322   9.753  10.230  12.248  0.3237  0.2956 -0.2906
65171SOL     OW  323   9.256   3.037   0.144 -0.3592  0.1655  0.1093
65171SOL    HW1  324   9.261   3.082   0.229 -1.5635 -1.6611  1.2329
65171SOL    HW2  325   9.328   2.974   0.147  1.4562  2.0329 -1.5407
65172SOL     OW  326  12.628   1.567   1.413  0.0541  0.4762  0.1510
65172SOL    HW1  327  12.671   1.618   1.346  1.0544  0.0980  0.4929
65172SOL    HW2  328  12.656   1.477   1.398 -1.6937 -0.0181 -0.4520
65173SOL     OW  329   6.946   1.680   4.886 -0.5028  0.5060 -0.4018
65173SOL    HW1  330   6.946   1.739   4.810  0.2109 -0.6064 -1.3040
65173SOL    HW2  331   7.008   1.611   4.862 -1.8546 -1.0030  0.2954
65174SOL     OW  332   1.223   4.693   9.813 -0.3136 -0.4853 -0.5397
65174SOL    HW1  333   1.302   4.702   9.866 -0.5648 -0.3539 -0.1813
65174SOL    HW2  334   1.155   4.737   9.864 -0.1172  1.6274 -1.9853
65175SOL     OW  335   7.770  12.201   2.960 -0.0414  0.6593  0.3816
65175SOL    HW1  336   7.823  12.196   3.039  1.4974 -1.6125 -0.6523
65175SOL    HW2  337   7.756  12.109   2.936 -2.3102  1.2551 -0.8135
65176SOL     OW  338   6.575   7.287   2.438 -0.4407 -0.0132  0.2732
65176SOL    HW1  339   6.597   7.256   2.350  4.3860 -2.9956  2.0704
65176SOL    HW2  340   6.510   7.224   2.470  1.3464 -1.9991  0.2624
65177SOL     OW  341   5.888   2.550  12.317 -0.6606 -0.2745  0.6735
65177SOL    HW1  342   5.883   2.513  12.405 -0.8464 -0.1629  0.7106
65177SOL    HW2  343   5.834   2.491  12.263 -3.1452  1.3517  1.2161
65178SOL     OW  344   0.322   0.732  10.038  0.0111 -0.3549  0.3553
65178SOL    HW1  345   0.383   0.698  10.104 -1.0838 -1.8628  0.6500
65178SOL    HW2  346   0.300   0.656   9.984 -1.3032  0.2359  0.0150
65179SOL     OW  347   3.254  11.921   8.310 -0.0633  0.0298  0.0074
65179SOL    HW1  348   3.275  11.932   8.403  2.1859  1.6891 -0.6288
65179SOL    HW2  349   3.176  11.975   8.297  0.3777  0.8558  0.6801
65180SOL     OW  350  11.685   6.816  12.011  0.0009  0.0840  0.4529
65180SOL    HW1  351  11.699   6.722  12.019 -0.6789 -0.0801 -0.2779
65180SOL    HW2  352  11.693   6.834  11.917  1.7660  1.0210  0.7374
65181SOL     OW  353  12.087  11.754   0.324  0.8005  0.9115  0.8450
65181SOL    HW1  354  12.048  11.777   0.408 -1.8263 -1.2852  0.3669
65181SOL    HW2  355  12.123  11.666   0.337 -0.4098  0.1728 -0.4818
65182SOL     OW  356   9.030   4.401  11.579  0.3278  0.0877 -0.3515
65182SOL    HW1  357   8.960   4.365  11.524  0.0245  0.0839  0.0341
65182SOL    HW2  358   9.105   4.408  11.520  0.6238 -1.8731 -0.2756
65183SOL     OW  359  12.316   4.174   4.953 -0.2390  0.0155 -0.0992
65183SOL    HW1  360  12.348   4.250   5.001 -1.2235 -1.7447  3.7145
65183SOL    HW2  361  12.389   4.151   4.895  1.7855  1.3765  1.7187
65184SOL     OW  362   7.644   1.331   8.487  0.6883  0.1163  0.3375
65184SOL    HW1  363   7.606   1.255   8.442 -2.1393  0.6643  1.5860
65184SOL    HW2  364   7.702   1.293   8.553  1.5556 -0.8168 -0.9104
65185SOL     OW  365   1.884   6.406   6.069  0.2753  0.2343  0.2080
65185SOL    HW1  366   1.969   6.442   6.091  1.7632 -2.7308 -0.2246
65185SOL    HW2  367   1.845   6.382   6.153  0.4510  0.3404  0.3199
65186SOL     OW  368   2.289   2.008   4.482 -0.4071 -0.3021  0.2110
65186SOL    HW1  369   2.343   1.935   4.513  1.2212 -0.4982 -2.6466
65186SOL    HW2  370   2.344   2.086   4.495  0.7995 -0.5045 -2.7318
65187SOL     OW  371   3.581   0.174   4.230  0.0190 -0.0255 -0.0114
65187SOL    HW1  372   3.496   0.136   4.206  0.9309 -0.7059 -2.5656
65187SOL    HW2  373   3.629   0.177   4.147  1.1428  3.9407  0.5856
65188SOL     OW  374   6.275   2.766  10.556  0.1523  0.3841  0.1707
65188SOL    HW1  375   6.282   2.676  10.587  0.5940  0.5466  0.5488
65188SOL    HW2  376   6.196   2.767  10.503 -0.5170  0.0618  1.1449
65189SOL     OW  377   8.445   0.801   9.461  0.5380 -0.1637  0.3503
65189SOL    HW1  378   8.430   0.718   9.506  0.1615  0.8855  2.3095
65189SOL    HW2  379   8.387   0.798   9.385 -0.2035 -1.3027  0.9279
65190SOL     OW  380   4.187   4.975  11.697 -0.2777  0.0954  0.1804
65190SOL    HW1  381   4.232   5.005  11.618  0.1743 -0.8214  0.0835
65190SOL    HW2  382   4.137   5.052  11.726 -1.7303  0.0141 -1.8859
65191SOL     OW  383   9.359  11.059   0.267  0.6159  0.3079  0.2474
65191SOL    HW1  384   9.322  11.050   0.179  0.1408  1.5885  0.2870
65191SOL    HW2  385   9.382  11.151   0.274 -0.4015  0.4813  1.8552
65192SOL     OW  386  10.973   8.378   4.172  0.0332 -0.4546  0.1033
65192SOL    HW1  387  11.002   8.347   4.086  1.3132 -1.2821  0.7963
65192SOL    HW2  388  10.891   8.331   4.188  0.6826 -1.6507  0.0608
65193SOL     OW  389   3.524  11.008   1.197  0.1433  0.7283  0.1916
65193SOL    HW1  390   3.596  11.060   1.161  0.3034  0.0438 -0.5078
65193SOL    HW2  391   3.451  11.026   1.137  0.4238 -0.4598 -0.5377
65194SOL     OW  392   9.479   1.596   1.279  0.4537 -0.1315 -0.8076
65194SOL    HW1  393   9.573   1.610   1.268  0.9158 -2.2360  0.1073
65194SOL    HW2  394   9.472   1.512   1.322 -1.9584 -1.1511 -2.9344
65195SOL     OW  395   1.237   3.835   5.301 -0.0949  0.6973 -0.0638
65195SOL    HW1  396   1.165   3.797   5.352 -0.6061  1.7163 -0.0078
65195SOL    HW2  397   1.311   3.838   5.362 -0.9928  2.9146  1.0210
65196SOL     OW  398   8.990  12.336   6.283  0.8166  0.0775  0.3133
65196SOL    HW1  399   8.974  12.246   6.311 -0.1263  0.5079  1.2297
65196SOL    HW2  400   8.933  12.389   6.338 -0.1067  1.0888 -1.5175
65197SOL     OW  401  10.454   5.097  11.348 -0.3500  0.3843  0.0697
65197SOL    HW1  402  10.429   5.038  11.420  1.2817 -1.0745 -0.4712
65197SOL    HW2  403  10.454   5.040  11.270  0.0318  1.4154 -0.7010
65198SOL     OW  404   1.428  11.286   2.451  0.1907 -0.2487 -0.3796
65198SOL    HW1  405   1.358  11.340   2.488  1.3411  0.2356  1.2200
65198SOL    HW2  406   1.476  11.345   2.393 -0.0955 -0.2773 -0.6436
65199SOL     OW  407   6.248   1.351   3.520  0.5687 -0.4327  0.1298
65199SOL    HW1  408   6.214   1.299   3.592  0.5200  0.9843  1.1666
65199SOL    HW2  409   6.183   1.341   3.451  0.2944 -1.2884  0.4984
65200SOL     OW  410   0.611   3.980  11.574  0.3108 -0.2038 -0.8503
65200SOL    HW1  411   0.582   4.028  11.496  1.4812  0.7203 -0.7375
65200SOL    HW2  412   0.551   4.008  11.643  0.3681  0.3472 -1.0183
65201SOL     OW  413  11.879  11.280  10.018  0.0153  0.4950 -0.0243
65201SOL    HW1  414  11.852  11.253   9.930  1.5477  0.8548 -0.6474
65201SOL    HW2  415  11.914  11.369  10.006 -0.6838  0.9624  1.1501
65202SOL     OW  416   6.941   2.164   7.737 -0.2940 -0.4738 -0.4172
65202SOL    HW1  417   6.894   2.151   7.655 -1.1012 -0.3914  0.0194
65202SOL    HW2  418   6.959   2.075   7.769 -0.6011 -0.5067 -0.3356
65203SOL     OW  419   8.633   8.070   2.136  0.6362  0.4423 -0.7493
65203SOL    HW1  420   8.661   8.078   2.227 -0.0507  0.2274 -0.5227
65203SOL    HW2  421   8.623   7.976   2.121  1.0046  0.4581 -1.1272
65204SOL     OW  422   2.373   1.224   0.759  0.5049  0.0332  0.2146
65204SOL    HW1  423   2.365   1.294   0.825  0.3754 -0.9716  1.3000
65204SOL    HW2  424   2.369   1.270   0.675 -1.7966  1.1286  0.8415
65205SOL     OW  425   6.347   7.775   6.277  0.3538  0.8592  0.4007
65205SOL    HW1  426   6.289   7.726   6.335 -0.4635  0.3071 -0.8390
65205SOL    HW2  427   6.329   7.867   6.296 -1.6093  0.7133 -0.5756
65206SOL     OW  428  11.036  10.970   1.686 -1.1478  0.2251  0.1241
65206SOL    HW1  429  11.110  10.917   1.717  0.2427  1.8294 -0.2802
65206SOL    HW2  430  10.961  10.937   1.734 -0.0863 -1.1943  0.8809
65207SOL     OW  431   2.029   9.692   7.980 -0.2519 -0.4136 -0.1354
65207SOL    HW1  432   1.986   9.694   7.894 -0.7913 -0.2506  0.1367
65207SOL    HW2  433   1.991   9.616   8.025 -0.6920  0.0742  0.3262
65208SOL     OW  434   6.009   5.387  12.288 -0.4670 -0.1923 -0.0854
65208SOL    HW1  435   5.989   5.344  12.371 -0.4843 -0.3959 -0.1944
65208SOL    HW2  436   6.025   5.315  12.227  0.7559 -0.0456  0.0344
65209SOL     OW  437  11.628  11.353   2.425  0.0595 -0.2842 -0.0839
65209SOL    HW1  438  11.570  11.411   2.473  1.6769  0.9553  0.4361
65209SOL    HW2  439  11.600  11.265   2.450 -0.5260  0.3097  1.4286
65210SOL     OW  440   3.174   7.601   7.287 -0.3069 -0.0698 -0.1630
65210SOL    HW1  441   3.199   7.664   7.219 -0.7797  0.1657 -0.1232
65210SOL    HW2  442   3.253   7.590   7.339 -0.7302  2.0135  1.0349
65211SOL     OW  443  12.241   7.900   4.927 -0.5165 -0.1052  0.1345
65211SOL    HW1  444  12.147   7.906   4.913 -0.6891  1.5367  1.6893
65211SOL    HW2  445  12.252   7.898   5.022  1.0467  0.6644  0.0111
65212SOL     OW  446   9.574   8.231   3.546  0.2522  0.2343 -0.1980
65212SOL    HW1  447   9.508   8.266   3.606  0.1086  2.0086 -1.3159
65212SOL    HW2  448   9.580   8.296   3.477  2.7019 -0.2231 -0.4976
65213SOL     OW  449  11.309   1.267   7.978 -0.3047 -0.3518 -0.5206
65213SOL    HW1  450  11.223   1.304   7.955 -1.1338 -1.8501  0.0288
65213SOL    HW2  451  11.307   1.178   7.942  1.2571 -0.2122 -0.9958
65214SOL     OW  452   9.535   0.197   4.849 -0.2476  0.0694 -0.1063
65214SOL    HW1  453   9.613   0.206   4.794  0.8341 -1.7943  1.0127
65214SOL    HW2  454   9.474   0.263   4.816  0.9562  0.0880 -2.4721
65215SOL     OW  455   2.336   0.017   3.691  0.0605 -0.0960  0.1930
65215SOL    HW1  456   2.279   0.074   3.743  0.9432  1.9304 -0.9562
65215SOL    HW2  457   2.416   0.010   3.743 -1.0342 -2.7747  1.7094
65216SOL     OW  458  11.373  12.024   3.341 -0.6243  0.5578  0.0227
65216SOL    HW1  459  11.394  11.932   3.324  1.2705  0.8557  0.4451
65216SOL    HW2  460  11.294  12.022   3.394 -0.4049 -0.8611  0.3324
65217SOL     OW  461   8.195   0.760  12.470 -0.5846  0.4938 -0.0110
65217SOL    HW1  462   8.141   0.840  12.477  0.2943  1.0138  1.4151
65217SOL    HW2  463   8.135   0.693  12.438 -1.1351  1.9145 -2.1389
65218SOL     OW  464   0.907   5.699   9.486 -0.4179 -0.2826 -0.0860
65218SOL    HW1  465   0.928   5.756   9.411 -0.8087 -1.4208 -1.1044
65218SOL    HW2  466   0.947   5.741   9.561 -0.1104  0.9677 -0.9262
65219SOL     OW  467   1.537   6.129   4.053 -0.0834  0.3991 -0.4987
65219SOL    HW1  468   1.614   6.179   4.027  0.1339 -0.2298 -1.1115
65219SOL    HW2  469   1.572   6.047   4.089 -0.4615 -0.3127 -1.6816
65220SOL     OW  470   0.339   2.231   9.287 -0.5768  0.3323 -0.0116
65220SOL    HW1  471   0.412   2.290   9.269 -0.9988  0.7822 -0.2928
65220SOL    HW2  472   0.371   2.144   9.263 -1.2355  0.9179 -3.4301
65221SOL     OW  473  11.094   8.857   8.038 -0.5445 -0.5282  0.5596
65221SOL    HW1  474  11.107   8.898   7.952 -0.5173 -0.7026  0.4801
65221SOL    HW2  475  11.172   8.883   8.089 -1.3815  1.0392  1.1136
65222SOL     OW  476   6.865   0.723   4.576  0.1064  0.6959 -0.1372
65222SOL    HW1  477   6.959   0.724   4.560  0.7887  0.1024  3.1171
65222SOL    HW2  478   6.844   0.811   4.608 -0.2788  0.5957 -0.0991
65223SOL     OW  479   8.915   9.261   9.205 -0.2184 -0.0539 -0.7589
65223SOL    HW1  480   8.908   9.180   9.255  0.1403 -0.5694 -1.5375
65223SOL    HW2  481   8.986   9.309   9.247  0.8087 -0.9602 -1.4241
65224SOL     OW  482   7.234   0.772  11.126 -0.4555  0.3004 -0.1505
65224SOL    HW1  483   7.235   0.783  11.221  1.3105  1.1264 -0.2204
65224SOL    HW2  484   7.227   0.861  11.092 -0.5555  0.0490 -0.7992
65225SOL     OW  485   0.229  10.076   3.023 -0.1405  0.0318  0.2083
65225SOL    HW1  486   0.313  10.062   3.066  0.4820 -3.4885 -1.8190
65225SOL    HW2  487   0.166  10.029   3.077  0.3678 -2.8916 -1.5377
65226SOL     OW  488   8.998   4.029  10.644  0.0744  0.2123  0.0494
65226SOL    HW1  489   8.914   4.061  10.676  0.2560 -1.4383  2.4867
65226SOL    HW2  490   9.020   3.957  10.703  2.1271 -0.9117 -1.9193
65227SOL     OW  491   5.967   0.095   0.954  0.6161 -0.0474 -0.2275
65227SOL    HW1  492   5.878   0.108   0.920  0.3585 -0.5710  0.2299
65227SOL    HW2  493   5.991   0.007   0.923  1.2119  0.3298 -0.8555
65228SOL     OW  494   7.965   4.754   1.349 -0.5343  0.1266 -0.0487
65228SOL    HW1  495   7.902   4.766   1.278 -0.8387  1.8085  0.4438
65228SOL    HW2  496   8.014   4.836   1.351  1.3711 -0.9658 -0.1095
65229SOL     OW  497   4.151   8.856   9.651  0.3273  0.2485  0.6288
65229SOL    HW1  498   4.233   8.882   9.611  0.6328 -0.1506  0.9797
65229SOL    HW2  499   4.117   8.936   9.691  0.0878  0.6170 -0.2866
65230SOL     OW  500   9.635   7.064   1.560 -0.2337  0.2505 -0.4914
65230SOL    HW1  501   9.587   7.005   1.618 -0.3445  1.1239  0.3251
65230SOL    HW2  502   9.567   7.117   1.518 -0.1548 -0.3825 -1.4493
65231SOL     OW  503   8.795   6.531   8.693  0.0853  0.6213 -0.4571
65231SOL    HW1  504   8.766   6.536   8.601 -1.3380 -0.7280 -0.1150
65231SOL    HW2  505   8.871   6.589   8.696 -0.6079  1.7388 -2.1933
65232SOL     OW  506   4.743   2.326   8.219 -0.0291  0.1944 -1.1970
65232SOL    HW1  507   4.781   2.239   8.205  0.4893 -0.0032  1.0011
65232SOL    HW2  508   4.800   2.385   8.171  0.6938 -0.5225 -1.2499
65233SOL     OW  509   0.212   0.750  11.391 -0.1803  1.0656 -0.3570
65233SOL    HW1  510   0.129   0.767  11.347  0.4931  2.0590 -1.2561
65233SOL    HW2  511   0.275   0.734  11.321  0.6708  1.5783  0.2677
65234SOL     OW  512  11.549   1.723   5.996  0.7429 -0.1307 -0.3149
65234SOL    HW1  513  11.502   1.729   5.913  0.1996  0.7489  0.0360
65234SOL    HW2  514  11.482   1.696   6.059  0.7875  0.6897  0.1032
65235SOL     OW  515  12.314   1.133   4.970 -0.1627 -0.2307  0.4093
65235SOL    HW1  516  12.230   1.170   4.942 -0.4556 -0.8712  0.4248
65235SOL    HW2  517  12.328   1.169   5.057 -0.2179  0.2101  0.2362
65236SOL     OW  518   4.574   5.052  10.625  0.1012 -0.0676  0.1510
65236SOL    HW1  519   4.587   4.979  10.565  0.1772 -0.4196  0.5993
65236SOL    HW2  520   4.497   5.028  10.677  1.8785 -1.2365  2.3887
65237SOL     OW  521   8.632   0.878   4.941  0.0361  0.0957  0.1154
65237SOL    HW1  522   8.658   0.968   4.922  2.9009 -0.4998  0.8321
65237SOL    HW2  523   8.667   0.826   4.869 -2.0490 -0.4654 -0.5740
65238SOL     OW  524  10.326   4.406   1.475  0.5331 -0.5122 -0.4977
65238SOL    HW1  525  10.241   4.433   1.511  0.8683 -1.2214  0.8921
65238SOL    HW2  526  10.317   4.311   1.462  1.1166 -0.6011 -0.2852
65239SOL     OW  527   8.943   2.296   7.712 -0.0365  0.3759  0.2843
65239SOL    HW1  528   9.013   2.295   7.647 -0.5155  0.8805 -0.2562
65239SOL    HW2  529   8.865   2.320   7.663 -0.2021  1.9761  1.2373
65240SOL     OW  530   4.688  10.572   0.876  0.2926 -0.2661  0.1683
65240SOL    HW1  531   4.603  10.614   0.862  0.1834 -0.5371  0.0043
65240SOL    HW2  532   4.744  10.607   0.806 -0.2177 -1.5264 -0.9230
65241SOL     OW  533  11.811   4.393   6.096  0.2377 -0.0068 -0.0001
65241SOL    HW1  534  11.853   4.307   6.102 -0.8407 -0.7063 -1.7129
65241SOL    HW2  535  11.736   4.387   6.156 -0.4989 -0.7030 -0.9601
65242SOL     OW  536   3.476   6.495   1.019 -0.4878 -0.1989  0.6101
65242SOL    HW1  537   3.508   6.569   0.968  2.0724  0.4522  2.9351
65242SOL    HW2  538   3.479   6.421   0.958  0.8473  0.8429 -0.6453
65243SOL     OW  539   3.344   5.132   9.530  0.4288  0.0639  0.1102
65243SOL    HW1  540   3.411   5.092   9.584  0.6597  1.1674  0.6832
65243SOL    HW2  541   3.369   5.111   9.440 -0.4844 -2.6144  0.3920
65244SOL     OW  542   8.243   7.986   1.328  0.3330  0.5964  0.2464
65244SOL    HW1  543   8.270   7.924   1.260  1.3037 -0.9464  1.9433
65244SOL    HW2  544   8.325   8.025   1.359  0.1913 -0.4782  2.1030
65245SOL     OW  545   7.625   7.189   0.359 -0.4525 -0.1013 -0.3377
65245SOL    HW1  546   7.669   7.215   0.278 -0.8221  0.8292 -0.2525
65245SOL    HW2  547   7.645   7.260   0.420 -0.6214 -0.5374  0.2232
65246SOL     OW  548   2.205   8.810  10.460  0.1058 -0.2309 -0.4577
65246SOL    HW1  549   2.298   8.831  10.466  0.2703 -0.6420 -1.4454
65246SOL    HW2  550   2.164   8.891  10.432 -0.0702  0.4088  1.4927
65247SOL     OW  551   3.288   6.185   0.275 -0.5291 -0.0405 -0.4968
65247SOL    HW1  552   3.298   6.192   0.370  0.0153 -2.1876 -0.3381
65247SOL    HW2  553   3.272   6.092   0.260  1.7097 -0.1621 -2.6848
65248SOL     OW  554   9.569  11.489   1.935  0.3985 -0.0493 -0.1031
65248SOL    HW1  555   9.511  11.430   1.985 -2.2588  3.2095  0.9941
65248SOL    HW2  556   9.511  11.532   1.872  2.3733  0.9190 -1.3318
65249SOL     OW  557   8.830   3.225   0.743  0.2317  0.1707 -0.6212
65249SOL    HW1  558   8.798   3.168   0.814  1.0675  0.7619  0.2600
65249SOL    HW2  559   8.814   3.175   0.663  2.5657 -2.1180  0.2147
65250SOL     OW  560   9.407   5.816   9.835 -0.0608  0.2674 -0.4213
65250SOL    HW1  561   9.492   5.859   9.844 -0.6970  1.3026  1.3866
65250SOL    HW2  562   9.349   5.885   9.803 -0.1617 -0.5653 -2.1321
65251SOL     OW  563  10.528   3.907   0.612  0.2841 -0.2704 -0.5456
65251SOL    HW1  564  10.572   3.940   0.534 -0.1497 -1.4026 -1.2762
65251SOL    HW2  565  10.600   3.886   0.673  0.6097  3.5415  0.6891
65252SOL     OW  566   8.239   6.091  10.383  0.0954  0.3703 -0.1385
65252SOL    HW1  567   8.169   6.037  10.421  0.6470 -0.3779 -0.1696
65252SOL    HW2  568   8.248   6.164  10.444 -0.6129  0.4016 -0.0577
65253SOL     OW  569   9.084   5.232   1.912 -0.6119 -0.2326  0.3055
65253SOL    HW1  570   9.052   5.207   1.825 -0.0126 -0.5744  0.1768
65253SOL    HW2  571   9.111   5.149   1.952 -1.4903 -0.1696  1.0832
65254SOL     OW  572   6.255   0.856   1.617  0.3407 -0.1925 -0.1038
65254SOL    HW1  573   6.282   0.910   1.692  0.7363 -0.7017  0.1288
65254SOL    HW2  574   6.161   0.848   1.626  0.4006 -0.3638  0.4195
65255SOL     OW  575   7.209   8.614   4.034 -0.0080  0.2356 -0.7268
65255SOL    HW1  576   7.143   8.546   4.019  0.9648 -0.6079 -1.3079
65255SOL    HW2  577   7.199   8.674   3.960 -0.3837  0.3316 -0.6013
65256SOL     OW  578  10.310   1.563   6.305  0.0958 -0.7390  0.0995
65256SOL    HW1  579  10.352   1.569   6.219  0.4939 -1.4576  0.2308
65256SOL    HW2  580  10.353   1.488   6.347  0.4090  0.0454  1.2009
65257SOL     OW  581   3.193   0.334   4.104  0.0849 -0.6541 -0.3570
65257SOL    HW1  582   3.150   0.358   4.186  0.4177 -2.4692  0.4027
65257SOL    HW2  583   3.122   0.323   4.041 -0.1591  0.9531 -0.4119
65258SOL     OW  584  12.030   1.747  10.904 -0.0699  0.1294  0.5144
65258SOL    HW1  585  12.054   1.657  10.929  0.1322  0.3351  1.0852
65258SOL    HW2  586  12.055   1.800  10.980  0.4416  0.7668 -0.0864
65259SOL     OW  587   7.796   3.219   0.755  0.1137 -0.3276 -0.2452
65259SOL    HW1  588   7.789   3.136   0.707 -0.2028 -0.6208  0.3047
65259SOL    HW2  589   7.769   3.198   0.844 -0.7043  0.5231 -0.2801
65260SOL     OW  590   1.689   0.454   8.835 -0.1147  0.4329 -0.0121
65260SOL    HW1  591   1.681   0.391   8.763  2.3857  2.0397 -1.8777
65260SOL    HW2  592   1.736   0.406   8.903  2.4672  0.4047 -1.7063
65261SOL     OW  593   1.105   2.912   1.764 -0.2119 -0.2714  0.4232
65261SOL    HW1  594   1.052   2.849   1.716 -0.1135  1.2264 -1.7896
65261SOL    HW2  595   1.070   2.910   1.853 -1.7291 -1.7473 -0.1623
65262SOL     OW  596   2.669   7.490   2.452  0.0840 -0.0043 -0.1852
65262SOL    HW1  597   2.604   7.427   2.421  0.8967 -0.9326 -0.0609
65262SOL    HW2  598   2.736   7.492   2.383  0.9303 -0.6193  0.5789
65263SOL     OW  599   1.475   9.609   6.150  0.3304 -0.2990  0.1967
65263SOL    HW1  600   1.427   9.554   6.088  0.6074 -0.8514  0.4595
65263SOL    HW2  601   1.500   9.549   6.220  1.6346 -0.0947 -0.0593
65264SOL     OW  602   2.662   4.208  10.136 -0.2441  0.0636 -0.8491
65264SOL    HW1  603   2.629   4.271  10.071 -1.4069 -0.6044 -0.9319
65264SOL    HW2  604   2.590   4.197  10.197  0.3908 -0.2760 -0.1442
65265SOL     OW  605   9.178   3.857  10.218  0.1577  0.2046  0.0106
65265SOL    HW1  606   9.262   3.811  10.224 -0.5200 -0.9221  1.5891
65265SOL    HW2  607   9.199   3.941  10.178  2.3315  0.6376  1.8913
65266SOL     OW  608   5.044   0.190   5.611  0.0814 -0.4759 -0.1034
65266SOL    HW1  609   5.005   0.114   5.567 -0.0134  0.7698 -2.3174
65266SOL    HW2  610   4.982   0.261   5.596  1.2790  0.5917 -0.1941
65267SOL     OW  611   1.913   3.035   8.836  0.3852 -0.2129 -0.5566
65267SOL    HW1  612   1.875   3.123   8.841 -0.2355 -0.4073 -1.6196
65267SOL    HW2  613   1.838   2.977   8.832  0.7841 -0.8615  0.6894
65268SOL     OW  614   7.162  12.163   4.992 -0.3739 -0.4585 -0.2183
65268SOL    HW1  615   7.254  12.137   4.993 -0.2463 -0.1414  2.5398
65268SOL    HW2  616   7.164  12.257   4.975 -0.1770 -0.4321 -0.0522
65269SOL     OW  617   2.298   6.460   2.497  0.2462 -0.4683  0.3659
65269SOL    HW1  618   2.280   6.547   2.462  0.6428 -0.3124  0.5356
65269SOL    HW2  619   2.239   6.451   2.572  0.8553  0.0446  0.9285
65270SOL     OW  620  12.087   7.959  11.858  0.1916 -0.1586 -0.1712
65270SOL    HW1  621  12.141   7.972  11.780  0.7195 -1.2492 -0.0083
65270SOL    HW2  622  12.002   7.933  11.824  0.3343 -0.3347 -0.3979
65271SOL     OW  623   3.911   4.228   4.671 -0.1687 -0.2633 -0.3468
65271SOL    HW1  624   3.818   4.212   4.656 -0.3142 -1.3257  1.3620
65271SOL    HW2  625   3.937   4.159   4.733  1.3624  0.9824  0.4674
65272SOL     OW  626  12.536  10.715   7.238  0.1298  0.0953  0.9404
65272SOL    HW1  627  12.624  10.747   7.256  0.7563 -1.9437  1.7406
65272SOL    HW2  628  12.549  10.632   7.191 -1.3557 -0.1388  0.8824
65273NA      NA  629  11.218   3.758   2.366  0.7007  0.3341 -0.5508
65274NA      NA  630  11.838   4.545   3.905 -0.2576  0.5748 -0.1051
65275NA      NA  631   3.972   1.994  11.388  0.0470  0.2019 -0.2155
65276NA      NA  632   5.316   6.906  11.346 -0.0203  0.5312  0.3350
65277NA      NA  633  11.508   9.263   1.687 -0.3733 -0.1980  0.4827
65278NA      NA  634  11.519  12.597   7.870  0.5965 -0.2028 -0.1892
65279NA      NA  635  10.121   6.076  10.251  0.1897  0.2916 -0.2918
65280NA      NA  636   6.059   1.790  10.914 -0.0359 -0.7010 -0.4492
65281NA      NA  637   0.710   0.271   9.562  0.1261  0.0386 -0.4911
65282NA      NA  638   4.672   8.078  12.133  0.1371 -0.1081 -0.3220
65283NA      NA  639  10.348   2.293   8.160  0.3910  0.1808  0.2659
65284NA      NA  640   0.491   3.377   7.961  0.0823 -0.1213 -0.2225
65285NA      NA  641   0.267   9.070   6.194  0.3395 -0.1828  0.3430
65286NA      NA  642   7.262   0.419   6.890  0.3386 -0.3053  0.1850
65287NA      NA  643   4.845  11.042   9.622 -0.8403 -0.2626 -0.6764
65288NA      NA  644   9.287   9.464   8.515  0.0466  0.1695  0.3252
65289NA      NA  645   5.201   2.458  11.528  0.2815  0.0286 -0.3440
65290NA      NA  646   7.128   9.185   0.807 -0.5962 -0.4781  0.1237
65291NA      NA  647   7.436   6.390   2.819  0.2701 -0.2892  0.6089
65292NA      NA  648  10.831  12.039   3.252 -0.0321 -0.1375  0.1406
65293NA      NA  649   5.013   7.454   6.360 -0.2031  0.0952  0.1060
65294NA      NA  650   2.033   4.854   0.599  0.2001  0.4904 -0.1358
65295NA      NA  651   7.262   3.906  10.175 -0.2286  0.0808  0.5197
65296NA      NA  652   1.873   3.342  12.154 -0.1052 -0.3128 -0.4533
65297NA      NA  653   1.377   6.131   0.131 -0.0537  0.4304  0.4583
65298NA      NA  654  12.181   3.024   0.893  0.3624  0.1095  0.1681
65299NA      NA  655   2.040   6.322   9.297 -0.5709  0.0796 -0.0531
65300NA      NA  656   6.824   3.402   1.719  0.1888 -0.0546  0.0555
65301NA      NA  657  10.917   6.821  12.574  0.2334 -0.0041  0.1775
65302NA      NA  658   2.680   3.631   1.660 -0.3801  0.1065  0.4255
65303NA      NA  659   7.736   5.202   0.753 -0.2715  0.1392  0.3985
65304NA      NA  660  11.370   5.665  10.179  0.3181 -0.2431 -0.3685
65305NA      NA  661  11.019   6.743   3.511 -0.1913  0.2174 -0.4384
65306NA      NA  662   6.980  10.250   2.231  0.2996  0.0912  0.1278
65307NA      NA  663   8.415   6.733   1.169 -0.1703  0.2628  0.1997
65308NA      NA  664   6.759   3.116   2.862  0.0217  0.4917 -0.3252
65309NA      NA  665   2.170   4.514   7.589 -0.0514  0.6619 -0.1000
65310NA      NA  666  12.620   3.912   3.689  0.3398 -0.3517  0.5744
65311NA      NA  667   9.493   4.861  12.534  0.4224  0.1997 -0.1863
65312NA      NA  668  11.127  12.481   6.943 -0.0824  0.5106 -0.7426
65313NA      NA  669  10.419   5.402   1.029  0.1647 -0.0649  0.1020
65314NA      NA  670   7.849   8.288   5.834 -0.2271 -0.1036 -0.4159
65315NA      NA  671   0.480   5.332   0.355  0.3046 -0.2078  0.2168
65316NA      NA  672   2.131   0.440   4.717  0.1156  0.0538 -0.1948
65317NA      NA  673   8.655   0.789   5.658 -0.3835  0.1653 -0.5801
65318NA      NA  674  11.470   1.891   0.277  0.0125  0.1842  0.4946
65319NA      NA  675  11.600   2.761   1.891  0.0727  0.2744  0.3425
65320NA      NA  676   8.700   6.617   8.212 -0.3242 -0.3958  0.1087
65321NA      NA  677   2.595   4.361   8.588 -0.0634 -0.0561 -0.1399
65322NA      NA  678  12.175  11.345   9.596  0.1360  0.1497  0.1965
65323NA      NA  679   9.887   1.147   0.717 -0.0162 -0.2006 -0.5332
65324NA      NA  680   9.378   3.736   4.342 -0.5877 -0.1647 -0.1663
65325NA      NA  681   7.205  10.302  11.896  0.1047  0.6236 -0.1458
65326NA      NA  682   4.114   4.347  11.571  0.1375  0.2389  0.3010
65327NA      NA  683   6.690   6.728   3.688 -0.4643 -0.2036  0.0212
65328NA      NA  684  12.412   8.630  12.340  0.1706  0.1053  0.5067
65329NA      NA  685   3.731   4.492  10.224 -0.2489 -0.2666  0.4305
65330NA      NA  686   8.588   4.223   6.448 -0.4152  0.0210 -0.9191
65331NA      NA  687  11.183   6.431   4.740 -0.1451  0.3443 -0.4289
65332NA      NA  688   8.464   2.210   3.389  0.1287 -0.4179 -0.0892
65333NA      NA  689   2.925   9.105  10.537 -0.0689 -0.0948 -0.1090
65334NA      NA  690  11.867   5.718  12.241  0.3456  0.0191  0.0940
65335NA      NA  691   6.103   8.976   1.362  0.0774  0.0130  0.0356
65336NA      NA  692  11.170   7.594  11.705  0.8599  0.5363  0.1682
65337NA      NA  693   4.181   8.003  10.381  0.1231 -0.0773 -0.6206
65338NA      NA  694   7.290   5.350   5.612  0.2022  0.2605 -0.4250
65339NA      NA  695   6.971   6.692   7.924 -0.1907  0.3548  0.1064
65340NA      NA  696  11.743   5.068   6.036  0.0242  0.3593  0.0902
65341NA      NA  697   0.147   4.213  11.244  0.0137  0.1168  0.3072
65342NA      NA  698  10.718   7.365   7.630 -0.0577  0.0077  0.4940
65343NA      NA  699   6.106   1.541   9.536  0.6037 -0.1511  0.1901
65344NA      NA  700   3.177   5.620   2.362 -0.4108 -0.3362  0.0027
65345NA      NA  701   1.926   0.772   0.512  0.1993 -0.0790  0.5925
65346NA      NA  702  11.895  12.115  11.782  0.3065 -0.2397  0.3193
65347NA      NA  703   2.050   6.116   6.805  0.2242  0.5298  0.2524
65348NA      NA  704   5.682   9.681   3.738  0.0511 -0.4398 -0.1118
65349NA      NA  705   7.608   7.815   2.948 -0.4986 -0.0639  0.8270
65350NA      NA  706   0.917   8.329   6.011 -0.3855  0.5351  0.2445
65351NA      NA  707  11.710   6.424  12.645  0.1945 -0.0486  0.0584
65352NA      NA  708  12.178   4.201   2.770 -0.0971 -0.4905  0.0974
65353NA      NA  709   6.587   6.513  11.865 -0.1387  0.0254  0.7010
65354NA      NA  710   9.069   4.362  11.779  0.4629  0.1280 -0.4342
65355NA      NA  711  12.486   6.145   2.754 -0.1435  0.2598 -0.1537
65356NA      NA  712   9.396  12.134   0.593 -0.2737  0.2341  0.2570
65357NA      NA  713  10.921   1.413  11.535  0.2245 -0.2275 -0.1146
65358NA      NA  714  11.668   3.610   0.836 -0.4036  0.4125 -0.1059
65359NA      NA  715   3.630   9.987   5.642 -0.3527 -0.3648 -0.0540
65360NA      NA  716   8.971  12.604   9.203 -0.3447 -0.0322  0.0109
65361NA      NA  717  10.377  12.396   5.128 -0.1985  0.0105  0.2188
65362NA      NA  718   6.776   9.115  11.426 -0.3866 -0.0863 -0.2986
65363NA      NA  719  11.263  12.384   3.535  0.1355 -0.2502  0.5738
65364NA      NA  720   1.679   0.437   2.044  0.0105 -0.6666  0.1917
65365NA      NA  721   6.353  10.313   0.360 -0.4221  0.3679 -0.0838
65366NA      NA  722   9.158   3.768  12.064  0.5559 -0.1720 -0.4914
65367NA      NA  723   5.128   4.478   3.177  0.1872 -0.4706 -0.8155
65368NA      NA  724   4.554   2.560   7.954  0.1454 -0.2498  0.4346
65369NA      NA  725  10.581   2.693   7.343  0.1039 -0.6214 -0.0382
65370NA      NA  726   9.319   9.214  11.475 -0.5512 -0.9546 -0.5146
65371NA      NA  727   4.694  12.176  11.374 -0.6195 -0.2410  0.2456
65372NA      NA  728   6.437   2.481   7.094  0.0806  0.2639  0.0188
65373NA      NA  729   3.333   0.525  10.675  0.2310  0.1090 -0.1964
65374NA      NA  730   0.618  10.828  11.131  0.0327  0.5306 -0.1300
65375NA      NA  731   7.241   1.069   7.433 -0.1457  0.6314 -0.5399
65376NA      NA  732   2.573   9.303  11.374  0.3060  0.3443  0.1434
65377NA      NA  733   7.794   9.791   1.227  0.1386 -0.4523  0.4711
65378NA      NA  734   7.293  12.000  11.085  0.1589 -0.3090  0.1276
65379NA      NA  735   6.959   2.529  11.753  0.4396  0.0405  0.9388
65380NA      NA  736   7.955   9.534  11.429  0.0100 -0.2668 -0.1047
65381NA      NA  737   5.062   4.847  10.206  0.8864  0.1191  0.6220
65382NA      NA  738   9.874   6.839   9.885  0.5935  0.0067 -0.1372
65383NA      NA  739   0.495   6.336   8.881  0.0101 -0.1126  0.3018
65384NA      NA  740   6.764  10.185  11.862 -0.1371 -0.1286 -0.5488
65385NA      NA  741   6.601   8.502  12.307  0.4724  0.4554 -0.1431
65386NA      NA  742  11.737   4.427   0.536  0.1791 -0.0763  0.5795
65387NA      NA  743  12.146   8.542   3.129  0.1052  0.4079 -0.3087
65388NA      NA  744   6.233   4.275   0.951  0.4510  0.5089  0.2096
65389NA      NA  745   6.457   8.469   2.686 -0.4064  0.3201  0.3033
65390NA      NA  746   9.358   2.199  11.873  0.0678 -0.0008  0.2383
65391NA      NA  747   8.960   8.794  12.080 -0.2503  0.2160 -0.2153
65392NA      NA  748   6.135   9.678  12.522 -0.5706  0.6693 -0.1872
65393NA      NA  749   8.482   8.585   3.971  0.2899 -0.0270  0.0063
65394NA      NA  750   7.854   0.475   1.098  0.0098 -0.3214 -0.5714
65395NA      NA  751   3.080   5.123  10.165 -0.1165 -0.2095  0.2037
65396NA      NA  752   9.913   8.440   4.061 -0.1250  0.3140  0.0443
65397NA      NA  753   7.027   4.767  10.978 -0.0209 -0.2921  0.8597
65398NA      NA  754   9.102   4.572   2.824  0.1458  0.0673 -0.6213
65399NA      NA  755  11.513   8.385   9.173 -0.1893  0.0363  0.3416
65400NA      NA  756   8.507  10.236   6.474  0.1588 -0.0576 -0.2751
65401NA      NA  757   6.297   8.226   3.238  0.2735 -0.0158 -0.0066
65402NA      NA  758  11.337   1.114   6.807  0.8978  0.4680 -0.3411
65403NA      NA  759   8.226   0.150   3.030 -0.1428  0.2573 -0.4759
65404NA      NA  760   0.756   2.141  10.484 -0.0586  0.1685 -0.3222
65405NA      NA  761   4.990   4.804   7.360 -0.2466 -0.1051 -0.1906
65406NA      NA  762   2.211   4.706   3.706 -0.5335  0.2580  0.3598
65407NA      NA  763   7.222   2.505   6.974  0.2419 -0.3128  0.0648
65408NA      NA  764   1.361   3.835   3.296 -0.0049  0.4279 -0.1898
65409NA      NA  765   1.790  12.505   3.903  0.1367 -0.8685  0.2682
65410NA      NA  766   5.992   6.832   8.950 -0.2792 -0.5086 -0.1749
65411NA      NA  767  10.759   4.834   9.775  0.4913  0.4318  0.0533
65412NA      NA  768   9.801  11.833   4.649  0.2028  0.2131 -0.4253
65413NA      NA  769  11.244  12.441  12.475  0.0755  0.4558 -0.3062
65414NA      NA  770   1.974   7.273   0.801 -0.0389 -0.3749 -0.3511
65415NA      NA  771   4.107   2.735   0.583  0.0083 -0.7424 -0.2683
65416NA      NA  772   7.614   3.113   0.230 -0.1713 -0.1759  0.0801
65417NA      NA  773   5.970   8.692   0.666  0.3367  0.2506 -0.2503
65418NA      NA  774   8.077  11.807  10.353 -0.4004  0.4990  0.0908
65419NA      NA  775  11.742   0.623   0.358  0.8370  0.2534  0.0258
65420NA      NA  776   1.782   2.544   4.391  0.6309  0.6367  0.1974
65421NA      NA  777   7.422   5.727   5.108  0.4853  0.0392 -0.1095
65422NA      NA  778   3.330  10.064   9.363 -0.7727 -0.3946 -0.4742
65423NA      NA  779  11.899   9.595   2.821 -0.1632  0.2692  0.0160
65424NA      NA  780   4.716   1.661   9.715 -0.5012 -0.2631 -0.0602
65425NA      NA  781  11.038   6.328  11.883  0.1368 -0.3397 -0.4579
65426NA      NA  782   8.624   2.333   7.977 -0.2644 -0.1661 -0.4549
65427NA      NA  783   6.720   8.007   7.885  0.6568  0.5490  0.2376
65428NA      NA  784   8.800   8.629   7.313 -0.2744  0.0110  0.5008
65429NA      NA  785  11.717   7.498   4.714 -0.1877  0.2038  0.1936
65430NA      NA  786   4.267  12.104  10.970  0.2016  0.2919 -0.2268
65431NA      NA  787  10.194   3.559   0.205 -0.8095 -0.4858  0.7426
65432NA      NA  788   4.721   4.435   8.789 -0.0142 -0.3083  0.6593
65433NA      NA  789   8.815  12.106   2.181 -0.0243  0.2047  0.1356
65434NA      NA  790   2.090  11.130  11.955  0.3652  0.0801  0.0692
65435NA      NA  791  12.121   5.990   3.661  0.4254  0.1182 -0.2800
65436NA      NA  792   8.262   1.145   6.415  0.2547  0.1153 -0.0240
65437NA      NA  793   7.976   5.417   6.858  0.1222  0.1722 -0.0669
65438NA      NA  794   1.442   0.172  10.344  0.0034 -0.0691  0.0946
65439NA      NA  795  12.030   2.484  11.383  0.6944 -0.1859 -0.1563
65440NA      NA  796   0.814   0.010   2.050  0.1741 -0.0187 -0.5736
65441NA      NA  797   6.642   2.920   8.896  0.1587 -0.0315 -0.6639
65442NA      NA  798  12.626  11.470  10.712 -0.0241  0.4663 -0.6135
65443NA      NA  799   9.040   6.826  10.853 -0.3767  0.1598  0.0101
65444NA      NA  800  10.251  10.842   7.364  0.1500  0.5765 -0.1261
65445NA      NA  801   7.670   2.997   7.511  0.2377  0.1437  0.3321
65446NA      NA  802   9.414   7.551   8.372 -0.3421 -0.1302 -0.0975
65447NA      NA  803   8.152  10.560  11.987 -0.1513 -0.2626 -0.2821
65448NA      NA  804   9.052   0.320   8.546 -0.0018 -0.4719 -0.1907
65449NA      NA  805   0.352   5.055   6.098  0.2464  0.6257  0.2757
65450NA      NA  806   4.450   1.025  10.536 -0.4061  0.1700 -0.3893
65451NA      NA  807  12.029  12.539   0.125 -0.1505 -0.0555 -0.0369
65452NA      NA  808   4.822   7.985   5.117 -0.0266 -0.1094  0.3181
65453NA      NA  809  12.627   0.709   1.281 -0.1682  0.2608  0.2055
65454NA      NA  810  10.432  11.007   2.147 -0.4683 -0.1602 -0.3617
65455NA      NA  811   7.659   2.490   4.566 -0.0868  0.2721 -0.4533
65456NA      NA  812   9.202   5.317   3.883  0.1022 -0.0506 -0.3750
65457NA      NA  813   9.030   4.274  10.265  0.2892 -0.3528  0.0167
65458NA      NA  814  10.622   9.123  11.194 -0.1095  0.6283 -0.0940
65459NA      NA  815   3.264   6.724   9.734  0.2264  0.2144  0.0459
65460CL      CL  816   5.420   1.864   6.039  0.2792  0.0599 -0.1523
65461CL      CL  817   5.762   0.592   1.114 -0.6953 -0.0237 -0.1219
65462CL      CL  818   6.404   0.132   5.090 -0.3249  0.1006  0.5417
65463CL      CL  819  11.520   3.812   6.854 -0.3658 -0.3481  0.3680
65464CL      CL  820   6.261   9.134   7.767  0.0621  0.0049 -0.0578
65465CL      CL  821   2.401  10.264   3.804 -0.4796 -0.2598 -0.2288
65466CL      CL  822   1.384   2.424   8.564 -0.0270  0.1796 -0.0212
65467CL      CL  823   0.878   5.920   4.563  0.3259 -0.1941 -0.3322
65468CL      CL  824   3.969  12.253  11.370 -0.1070  0.2628  0.1852
65469CL      CL  825   0.882   9.976   5.237 -0.1247 -0.0506 -0.0496
65470CL      CL  826   2.011   5.686   8.691  0.2109  0.0236  0.0088
65471CL      CL  827   6.422   2.642   6.171  0.3240 -0.1666 -0.1159
65472CL      CL  828   3.165   0.633   6.410 -0.2476  0.0247 -0.2107
65473CL      CL  829  11.802   5.788   9.299 -0.0595 -0.3761  0.0047
65474CL      CL  830   3.125   2.281   9.716 -0.3998 -0.0589 -0.4098
65475CL      CL  831   2.059   0.605   7.302  0.0977  0.6622  0.1416
65476CL      CL  832   5.809   0.885   6.319  0.5103  0.0313  0.0330
65477CL      CL  833   2.034  11.689   3.037  0.3716 -0.0010  0.2108
65478CL      CL  834   3.878   8.493   4.460  0.0450  0.0812  0.0508
65479CL      CL  835   7.511   9.383   3.269 -0.0101  0.0602  0.1873
65480CL      CL  836   4.936  11.430   3.212 -0.2197 -0.1054 -0.0610
65481CL      CL  837   5.648   8.507   3.884  0.0200 -0.3569  0.2542
65482CL      CL  838   1.114   4.638   0.991  0.2894  0.4036  0.2155
65483CL      CL  839   9.381   6.961   1.248  0.1321  0.0443  0.5474
65484CL      CL  840   4.205   8.847   3.326  0.1061 -0.2228 -0.6431
65485CL      CL  841   5.102  12.152   4.863 -0.0820 -0.4111  0.3123
65486CL      CL  842   2.098   1.335   8.639 -0.4233  0.0849 -0.8288
65487CL      CL  843   1.278   9.010   5.963 -0.0789 -0.1535  0.0546
65488CL      CL  844   4.005  10.580   4.003 -0.0610 -0.1440 -0.2129
65489CL      CL  845   3.230  10.438   8.379 -0.0197  0.2855 -0.1270
65490CL      CL  846   7.109   5.251   0.950 -0.1813 -0.1794 -0.1491
65491CL      CL  847   3.954  11.986  10.676 -0.0800 -0.0619  0.3142
65492CL      CL  848  12.005   4.196   2.075  0.1156  0.2041  0.0361
65493CL      CL  849   5.934   8.950  11.132 -0.0264 -0.1164 -0.3042
65494CL      CL  850   3.868   6.335   4.475  0.1014  0.1127  0.0350
65495CL      CL  851   3.830   0.925   9.292  0.5591 -0.2603  0.2269
65496CL      CL  852   5.486   1.220   6.815 -0.6160  0.3437  0.1088
65497CL      CL  853   2.251  11.867   7.897 -0.0481 -0.0159 -0.0438
65498CL      CL  854   6.428   9.789   7.403  0.3157 -0.0722  0.0637
65499CL      CL  855   7.158   9.176   6.797  0.1172 -0.1837 -0.0002
65500CL      CL  856   0.581   8.548   4.977 -0.1019  0.1079  0.3667
65501CL      CL  857   4.636  10.438   7.022 -0.0589 -0.0154 -0.2217
65502CL      CL  858   1.835   8.737   3.115 -0.5205  0.0801 -0.2345
65503CL      CL  859   4.297   9.520   2.332  0.1669  0.1147  0.1986
65504CL      CL  860   4.806   4.813   3.409 -0.2391  0.0067 -0.0163
65505CL      CL  861   6.306  12.274  10.214 -0.1427  0.1384 -0.2921
65506CL      CL  862   5.934  10.992   5.316 -0.2028  0.3020 -0.1353
65507CL      CL  863   9.537   4.850  12.281  0.2063  0.1499 -0.5751
65508CL      CL  864   2.672   7.826  10.346  0.0431 -0.4312  0.1338
65509CL      CL  865   6.949  12.299   8.036 -0.2081  0.0697  0.0658
65510CL      CL  866  11.831   6.658   3.220  0.3828  0.1216 -0.2335
65511CL      CL  867   3.827   0.286   3.349 -0.0612 -0.3971  0.0893
65512CL      CL  868   1.316  11.973   5.518  0.3429 -0.1093  0.0234
65513CL      CL  869   2.175   9.057   3.289 -0.1178 -0.2865  0.0461
65514CL      CL  870   3.341   5.301  12.336 -0.1994  0.4274 -0.0100
65515CL      CL  871  12.046   6.485  11.837 -0.1899 -0.0824 -0.0351
65516CL      CL  872   0.403   3.049   4.404 -0.3258 -0.3022  0.0897
65517CL      CL  873   2.830  12.069   4.046  0.1418 -0.1473 -0.2110
65518CL      CL  874  11.577   3.313   7.395  0.0766 -0.4214  0.0168
65519CL      CL  875   3.047   6.704   5.457  0.0598  0.1433 -0.4707
65520CL      CL  876   4.283   7.114   1.303  0.2670 -0.1537 -0.2618
65521CL      CL  877   3.966   0.787   4.868  0.3394  0.1285  0.2378
65522CL      CL  878   3.918   8.311   7.883  0.5926 -0.2620  0.2645
65523CL      CL  879   8.532  10.444   5.761 -0.1329  0.0651 -0.3137
65524CL      CL  880  11.716  10.962   4.124 -0.2650 -0.1547  0.0744
65525CL      CL  881   0.207   8.218  11.677  0.3905 -0.2177 -0.2341
65526CL      CL  882   0.070   1.256   1.361 -0.1676  0.1345  0.4178
65527CL      CL  883   7.070   9.196  11.918  0.0782 -0.1500  0.6122
65528CL      CL  884   8.795   1.770   0.242  0.1983  0.3971  0.3838
65529CL      CL  885   4.536   8.430   3.992 -0.1915  0.3197 -0.0820
65530CL      CL  886   6.752   4.071   3.412  0.0523  0.6391  0.1353
65531CL      CL  887   4.097  11.866   1.460 -0.5457 -0.0835 -0.0427
65532CL      CL  888   6.551   9.055   1.300 -0.1549  0.2098  0.1621
65533CL      CL  889  11.727   2.662   4.787  0.0193  0.0765  0.2724
65534CL      CL  890   2.847  10.565   7.089 -0.1334  0.2380  0.0080
65535CL      CL  891   4.092   1.431   4.450 -0.0879 -0.0067  0.1112
65536CL      CL  892   4.335  10.644   8.465  0.1115  0.0719  0.0990
65537CL      CL  893   2.974   3.688   3.512 -0.0496 -0.0517  0.3100
65538CL      CL  894  10.029   6.251   9.221 -0.2992  0.2671  0.3146
65539CL      CL  895   1.417  11.510   3.824  0.0676  0.3069 -0.2140
65540CL      CL  896   2.411   7.282   2.075 -0.1191 -0.1183  0.0038
65541CL      CL  897   5.915   6.969   8.759 -0.4265 -0.1727  0.0043
65542CL      CL  898   1.293   5.728   4.575 -0.5786 -0.1610  0.0574
65543CL      CL  899   0.834   5.660  12.234  0.2241  0.3684 -0.0228
65544CL      CL  900  11.999  12.480   7.945  0.0989 -0.0710 -0.0988
65545CL      CL  901   3.968   9.060   2.566 -0.1282  0.1278 -0.2485
65546CL      CL  902   4.445   1.883  10.622 -0.4678 -0.0835  0.5734
65547CL      CL  903  12.060  12.266   4.874 -0.4642 -0.3039  0.2380
65548CL      CL  904   6.082  10.432  11.832 -0.2511 -0.2309 -0.2638
65549CL      CL  905   6.609   8.945   7.236 -0.1313  0.2815 -0.1377
65550CL      CL  906   8.425   3.592   0.884 -0.0659  0.4108  0.0208
65551CL      CL  907   4.367   4.596   5.746  0.1842  0.1388  0.0640
65552CL      CL  908   1.495   0.911   2.255  0.1359 -0.3021  0.1910
65553CL      CL  909   2.196   9.740   6.308  0.1457  0.0196 -0.1626
65554CL      CL  910  12.396   3.971   4.046  0.1088  0.1229 -0.1890
65555CL      CL  911   4.331  11.279   3.781 -0.2311  0.2989  0.1581
65556CL      CL  912   8.508   1.539   9.204 -0.2987 -0.4205 -0.3230
65557CL      CL  913  12.439   2.002   6.009  0.1959 -0.1239  0.1354
65558CL      CL  914   6.047   0.213   2.840  0.0716  0.3461 -0.0796
65559CL      CL  915   3.172  11.002   9.320  0.1486  0.0322  0.2259
65560CL      CL  916   4.920   8.182   5.061 -0.1616 -0.6125  0.5771
65561CL      CL  917   0.002   1.775   3.951  0.3968  0.4416  0.1120
65562CL      CL  918   4.076  12.154   6.616 -0.2069  0.4503  0.1349
65563CL      CL  919   7.690  12.227   5.932  0.1870 -0.0339 -0.1347
65564CL      CL  920   8.814   5.168   8.207  0.3501 -0.1775  0.3340
65565CL      CL  921   3.154  10.886   6.569 -0.4238  0.3631  0.2689
65566CL      CL  922   2.891  10.672   2.330  0.0957 -0.1730  0.1022
65567CL      CL  923  11.111   9.472   2.006 -0.3307  0.3574 -0.1693
65568CL      CL  924   2.806   2.829  10.541  0.0894 -0.0867  0.1915
65569CL      CL  925   4.099   9.720   8.453 -0.1404  0.0798  0.1487
65570CL      CL  926   0.693   1.740   4.685 -0.0753 -0.1142 -0.2734
65571CL      CL  927   2.258   2.317   5.821 -0.1884 -0.1869  0.0841
65572CL      CL  928   0.447   6.634   0.962 -0.2802  0.1169 -0.0030
65573CL      CL  929   1.498   1.651   6.489  0.0671 -0.1875 -0.3207
65574CL      CL  930  11.101   0.300   6.970 -0.3794  0.2582  0.1453
65575CL      CL  931   5.237   1.290   8.841  0.2398  0.4820 -0.2510
65576CL      CL  932   3.589   8.625  10.380 -0.4472  0.1185  0.2302
65577CL      CL  933   7.358   8.408   0.518  0.2356 -0.4629  0.0484
65578CL      CL  934   6.133  11.887   5.369 -0.0955 -0.0110  0.2378
65579CL      CL  935   9.319   9.600   9.177  0.2471  0.1040 -0.3499
65580CL      CL  936   5.358   0.264   9.504  0.0170  0.0029  0.3599
65581CL      CL  937   2.854   0.876   2.735  0.3821  0.3488 -0.0977
65582CL      CL  938   5.642   1.067   3.349 -0.0781 -0.2557  0.2506
65583CL      CL  939   3.765   1.955  11.290  0.0732  0.0287 -0.0244
65584CL      CL  940   2.384   9.302   9.038 -0.2012 -0.0803 -0.0053
65585CL      CL  941   0.141   3.214   1.979 -0.0413 -0.0976 -0.2704
65586CL      CL  942   4.645   9.344   6.780  0.0975  0.0804 -0.5966
65587CL      CL  943   6.471   3.094   5.999 -0.2429 -0.3068  0.0843
65588CL      CL  944   0.465   7.896   2.685  0.1336 -0.4111 -0.2154
65589CL      CL  945   9.179   2.905   8.391  0.4538  0.2961 -0.0355
65590CL      CL  946   1.465   7.489   5.168 -0.0082 -0.2187 -0.2445
65591CL      CL  947   2.566   8.876   7.870 -0.1769 -0.3948  0.3048
65592CL      CL  948   3.819   5.325   3.723 -0.0217  0.2081 -0.1127
65593CL      CL  949   1.076  11.580   3.460  0.4929  0.4069 -0.1475
65594CL      CL  950   4.745   7.384   0.462 -0.2696  0.0104 -0.2378
65595CL      CL  951   1.953   7.022   1.571  0.2171 -0.0739 -0.5079
65596CL      CL  952   8.608  12.576   2.125 -0.2530  0.0929  0.2954
65597CL      CL  953   1.865  12.584   2.500  0.0207  0.4297 -0.1506
65598CL      CL  954   4.233   0.301   1.312  0.1114 -0.2368  0.0403
65599CL      CL  955   8.481   1.374   7.924  0.0008 -0.3675 -0.0481
65600CL      CL  956   7.396  10.832   1.913 -0.4828  0.0399 -0.0373
65601CL      CL  957   1.120  10.180   7.756 -0.2912  0.3712  0.0702
65602CL      CL  958   5.332  10.344   6.198  0.2508  0.5616 -0.0315
65603CL      CL  959   6.160   8.937   1.808 -0.3344  0.3534  0.2154
65604CL      CL  960   7.859   7.801   2.955  0.1432 -0.1242  0.1805
65605CL      CL  961   8.381   0.052   9.770  0.0959  0.1990 -0.2063
65606CL      CL  962   8.114  10.256   5.509  0.2866  0.0656 -0.5109
65607CL      CL  963   1.255   1.332   5.155  0.0574  0.2816  0.1815
65608CL      CL  964   2.008   2.350   4.771  0.1452  0.0911 -0.4502
65609CL      CL  965   7.787   2.830   6.368  0.0829  0.3972  0.1712
65610CL      CL  966   1.207   2.063   3.256 -0.0210  0.1353 -0.1231
65611CL      CL  967   2.762   1.827   7.371 -0.2474  0.0516  0.0466
65612CL      CL  968   3.975   6.532   9.142 -0.3092  0.9383 -0.3421
65613CL      CL  969  12.581   0.318   4.170  0.1009  0.2078 -0.4273
65614CL      CL  970  10.374   9.300  10.783 -0.3219  0.1942 -0.0377
65615CL      CL  971   2.935  12.525   2.747  0.0052 -0.1814  0.0875
65616CL      CL  972  10.889   0.198   4.852  0.1954 -0.1755  0.2004
65617CL      CL  973   1.145  11.678   5.080 -0.1318 -0.1505 -0.1773
65618CL      CL  974  11.336   1.430  10.760  0.1050  0.1304  0.1388
65619CL      CL  975   1.875  10.849   4.784  0.2305 -0.0490  0.5271
65620CL      CL  976  11.982  10.260   2.164 -0.0702 -0.5805 -0.1819
65621CL      CL  977   3.764   9.422   6.459  0.2432  0.0024 -0.5046
65622CL      CL  978   3.701  12.104   1.253 -0.4026  0.1197  0.2421
65623CL      CL  979   7.778   0.357   6.904 -0.0358  0.5263  0.0368
65624CL      CL  980   1.277   7.393   6.837 -0.1081 -0.1959 -0.3858
65625CL      CL  981   0.942   1.637  11.589 -0.0630 -0.1542  0.3598
65626CL      CL  982   7.197   0.823   4.503 -0.1925 -0.0777 -0.1288
65627CL      CL  983  10.619  10.972   2.301  0.1017 -0.0511  0.0756
65628CL      CL  984   4.291   0.837   7.926  0.2098  0.3280  0.3330
65629CL      CL  985  12.205  10.578   5.707 -0.1666 -0.1748  0.5622
65630CL      CL  986   0.461  10.120   3.256  0.0752 -0.0447  0.1574
65631CL      CL  987   5.726   7.558   5.926  0.0445 -0.1723  0.6326
65632CL      CL  988  12.638   9.110   2.965  0.2814  0.1078  0.1203
65633CL      CL  989   3.196   9.098   9.157  0.6138  0.0695  0.3605
65634CL      CL  990   1.412  12.647   4.851 -0.2564 -0.2958  0.7086
65635CL      CL  991   1.562  11.742   2.957  0.2045  0.1032  0.2274
65636CL      CL  992   2.326   4.713  10.452 -0.0671 -0.2175  0.3600
65637CL      CL  993  11.802   2.637   6.914 -0.3037  0.1886  0.4617
65638CL      CL  994   4.751  10.973   5.541 -0.4762 -0.3466 -0.2028
65639CL      CL  995   3.702   1.615  10.074 -0.0116 -0.0845  0.0144
65640CL      CL  996  12.401   3.364  11.260  0.1102 -0.0003  0.2086
65641CL      CL  997  10.405   1.125   3.379  0.3041  0.0060 -0.4387
65642CL      CL  998   6.763   7.605   0.204  0.1641  0.0513 -0.4981
65643CL      CL  999   1.663   1.311   6.992  0.1967 -0.2539 -0.2925
65644CL      CL 1000  10.707   5.160  11.012 -0.1374 -0.1340 -0.0958
65645CL      CL 1001   5.348   8.747   2.836 -0.0139  0.2866 -0.0017
65646CL      CL 1002   2.961  10.053   2.983  0.0925 -0.2484 -0.2359
65647CL      CL 1003  12.362   9.925   6.184  0.0190 -0.6508  0.0883
65648CL      CL 1004  11.794   9.012   2.033  0.5327  0.3724 -0.1130
65649CL      CL 1005  11.815   4.926   5.035  0.1909 -0.2029 -0.3199
65650CL      CL 1006  12.029  11.866   3.485 -0.2250  0.2353  0.0007
65651CL      CL 1007   1.424   0.799   5.004  0.2262 -0.2999 -0.1800
65652CL      CL 1008   2.168   7.146   6.838  0.2263 -0.1873 -0.1676
65653CL      CL 1009   6.988  10.221  11.946  0.0623  0.1444  0.0503
65654CL      CL 1010   9.135   9.988   8.378 -0.0318  0.0886  0.0265
65655CL      CL 1011   7.740  10.960  11.330 -0.0060 -0.1437 -0.3180
65656CL      CL 1012   7.452  11.690   5.167 -0.0877 -0.1658  0.1420
65657CL      CL 1013   0.634   9.712  12.560  0.2173  0.2247 -0.4062
65658CL      CL 1014  11.099  11.956   9.216 -0.0024  0.0260 -0.2612
65659CL      CL 1015   4.652   0.400   8.080 -0.3114 -0.3536 -0.4757
65660CL      CL 1016   1.874   3.240   6.334  0.0639  0.5963  0.1707
65661CL      CL 1017   0.422  10.630   7.065 -0.4084  0.1126  0.4956
65662CL      CL 1018   3.401   1.400   3.301  0.0563 -0.2894  0.0081
65663CL      CL 1019  12.030  10.661  12.016 -0.0605 -0.3594 -0.0637
65664CL      CL 1020   0.264  12.450   8.380  0.0135  0.1837  0.1261
65665CL      CL 1021  10.990   6.140  12.025 -0.1454  0.3368  0.1727
65666CL      CL 1022   0.421   5.200   5.915  0.4348 -0.1844 -0.7255
65667CL      CL 1023   9.024   6.725   8.708 -0.0077 -0.1359  0.1762
65668CL      CL 1024  11.681   7.698   8.858 -0.2599 -0.0536 -0.5286
65669CL      CL 1025   3.602   9.407   6.010 -0.0990  0.1199  0.2340
65670CL      CL 1026  11.041   7.478   0.519  0.1921 -0.1459  0.7131
65671CL      CL 1027   1.181   9.699   7.182  0.0531 -0.2225  0.2905
65672CL      CL 1028   1.628   0.424   2.492 -0.2912 -0.0030  0.2570
65673CL      CL 1029  12.055  11.667   5.029 -0.1542  0.4370  0.0032
65674CL      CL 1030   2.261   2.072   8.316  0.5003  0.1007  0.0220
65675CL      CL 1031   3.910   2.847   5.330  0.0944 -0.1496  0.1954
65676CL      CL 1032   1.929   9.855   9.782  0.0949  0.0568 -0.4849
65677CL      CL 1033   0.125   3.676  10.105 -0.4275 -0.2707  0.3499
65678CL      CL 1034   3.333   8.202   8.922 -0.2174 -0.0369 -0.1032
65679CL      CL 1035   6.219  12.074   6.040 -0.2056 -0.0267  0.0276
65680CL      CL 1036  10.086   3.506  12.255 -0.0449  0.4961  0.1525
65681CL      CL 1037   2.118   9.410   5.039 -0.2242  0.1490 -0.3549
65682CL      CL 1038   5.778  11.271   3.407 -0.1186  0.1828 -0.1835
65683CL      CL 1039   8.620   4.458   6.449 -0.0914 -0.0870  0.3130
65684CL      CL 1040   5.701   8.618   4.344  0.2304 -0.1421 -0.0553
65685CL      CL 1041   6.689  11.029   7.901  0.1798  0.1705 -0.1196
65686CL      CL 1042   2.174   6.406   0.545  0.2582 -0.1356 -0.0131
65687CL      CL 1043   5.293   9.501   3.705  0.0196  0.1836  0.3796
65688CL      CL 1044   3.481   1.880   6.523  0.1101 -0.0613 -0.0531
65689CL      CL 1045  12.292  10.183  10.804  0.2963 -0.0909  0.2029
65690CL      CL 1046   2.333  10.097  10.936 -0.0434 -0.3245 -0.1740
65691CL      CL 1047   9.102   4.371   2.674  0.0943  0.0914  0.4151
65692CL      CL 1048   2.286   4.366   4.754  0.1213  0.0525 -0.0521
65693CL      CL 1049   9.369   0.346   6.184 -0.6093  0.2387  0.0227
65694CL      CL 1050   5.750  11.468   9.763 -0.0677  0.4195  0.3417
65695CL      CL 1051   9.865   1.510   7.760  0.2815 -0.1150 -0.4038
65696CL      CL 1052  11.984   5.639  10.520 -0.3283  0.1028  0.3106
65697CL      CL 1053   0.742  11.255   8.178 -0.2806 -0.0283  0.2852
65698CL      CL 1054   7.192   9.134   5.602  0.1460  0.0278 -0.1575
65699CL      CL 1055  10.782  11.868  12.207  0.0934 -0.2455  0.4012
65700CL      CL 1056   4.835  10.594   4.695  0.0445  0.1168 -0.0200
65701CL      CL 1057   4.456   0.449   7.409  0.2392 -0.4587 -0.0345
65702CL      CL 1058   9.581   8.938   2.348 -0.0352  0.4943 -0.0401
65703CL      CL 1059   2.380  10.715   6.356 -0.2099  0.5019  0.0331
65704CL      CL 1060   5.439   0.819   7.233 -0.0740 -0.4397  0.2044
65705CL      CL 1061   3.332  10.167   2.466  0.2759 -0.1696 -0.0200
65706CL      CL 1062   4.877   4.339  12.167 -0.0657  0.2641  0.5234
65707CL      CL 1063   1.762   0.165   6.213  0.1465  0.1215 -0.0259
65708CL      CL 1064   2.555   9.591   3.109  0.4035 -0.0116 -0.0065
65709CL      CL 1065   5.603   8.657   8.703 -0.0610 -0.3193 -0.0667
65710CL      CL 1066   4.296   0.188   4.890  0.1185 -0.1444  0.3237
65711CL      CL 1067   1.169  10.841   3.648 -0.1455 -0.6482  0.0420
65712CL      CL 1068   0.116   8.410   5.796  0.0477  0.0815  0.2788
65713CL      CL 1069   7.407  10.180  11.967 -0.1839 -0.1277 -0.4578
65714CL      CL 1070   0.257   8.487   3.205 -0.2465 -0.2203  0.2633
65715CL      CL 1071  12.345  10.320   3.739 -0.5252  0.3466 -0.2324
65716CL      CL 1072   4.428   2.691   7.781 -0.3456 -0.0715 -0.1728
65717CL      CL 1073   2.820   0.969   1.995  0.2065 -0.2590 -0.2601
65718CL      CL 1074   9.217   2.853   5.235 -0.1776  0.1830  0.0687
65719CL      CL 1075   0.465   0.862   3.260 -0.4229  0.3057 -0.6373
65720CL      CL 1076   5.449   7.634   4.535 -0.6236 -0.2627  0.0412
65721CL      CL 1077   1.045   8.288   2.558 -0.0988  0.3408 -0.0589
65722CL      CL 1078   4.120   8.391   6.513  0.5537  0.4733 -0.2842
65723CL      CL 1079   1.344  11.772   6.938  0.3257  0.1654  0.3823
65724CL      CL 1080   5.371   0.629   3.242  0.3432  0.1040  0.1069
65725CL      CL 1081   6.088   4.746  12.622 -0.1667 -0.4036 -0.6354
65726CL      CL 1082  11.425  12.614   9.117 -0.1088  0.5152 -0.2012
65727CL      CL 1083   6.629  10.679   4.043 -0.2124  0.0285 -0.4138
65728CL      CL 1084   7.026  10.637   3.283  0.0410  0.0430 -0.1394
65729CL      CL 1085   1.350   0.371   9.291  0.0963 -0.4042 -0.1853
65730CL      CL 1086   5.971  10.093   0.959 -0.1268  0.5627 -0.4938
65731CL      CL 1087  11.028   0.571   3.868  0.2073  0.5758  0.4278
65732CL      CL 1088   2.710  11.753   1.571  0.1466 -0.0011  0.0505
65733CL      CL 1089   0.701   3.836   6.229 -0.5619 -0.0295  0.3982
65734CL      CL 1090   1.913   1.892   5.622  0.0875 -0.0183  0.0452
65735CL      CL 1091   2.580   7.280   3.829  0.3860 -0.0602 -0.0505
65736CL      CL 1092   5.229   0.775   4.829 -0.4118  0.1745  0.4223
65737CL      CL 1093   3.119   4.688   7.197 -0.0587 -0.3951 -0.5785
65738CL      CL 1094  10.939   2.720  10.201  0.3253 -0.2669 -0.1048
65739CL      CL 1095   2.138   1.024   2.756  0.5696  0.2724 -0.3494
65740CL      CL 1096   6.926   9.477   4.104 -0.2349 -0.2005 -0.2728
65741CL      CL 1097   2.806   1.467   4.566  0.3756 -0.0624 -0.2487
65742CL      CL 1098   7.180   1.938   5.206 -0.1414  0.0503  0.3241
65743CL      CL 1099   0.735  12.081   8.726 -0.0909  0.1390  0.3184
65744CL      CL 1100   7.342  10.995   9.770  0.0117  0.0523 -0.2286
65745CL      CL 1101   8.110   4.991   1.293  0.1066  0.0318 -0.0097
65746CL      CL 1102   7.719   6.997   4.790 -0.1661 -0.3376  0.3240
65747CL      CL 1103   6.873  11.253   5.311  0.2121 -0.1661  0.5015
65748CL      CL 1104  11.344   2.626   1.259  0.3767  0.1250  0.0434
65749CL      CL 1105   9.014   3.883  11.889  0.0791 -0.1095 -0.2818
65750CL      CL 1106   4.439   7.485   6.407 -0.0561  0.1678 -0.2180
65751CL      CL 1107   1.652  10.137   4.508  0.2906 -0.2119 -0.0977
65752CL      CL 1108   1.990   0.051   4.989 -0.1010 -0.1221  0.5622
65753CL      CL 1109  10.957   2.096   1.426  0.3588 -0.4069 -0.0040
65754CL      CL 1110   5.873   9.890   6.555  0.1777 -0.0235  0.0674
65755CL      CL 1111   5.257   6.420   7.747  0.4621 -0.0128  0.5026
65756CL      CL 1112   5.724   1.185   4.644 -0.4651 -0.4216  0.2725
65757CL      CL 1113   0.450  12.235  11.342  0.0468  0.4961  0.0785
65758CL      CL 1114   2.914   8.238   1.745  0.3094 -0.1221  0.0845
65759CL      CL 1115   5.855  11.736   3.455 -0.1431  0.2436 -0.0236
65760CL      CL 1116   7.704   8.682   2.069 -0.3851  0.1101 -0.3814
65761CL      CL 1117   6.622   7.916   7.661  0.0735 -0.3048  0.1970
65762CL      CL 1118   2.338   8.262   2.978  0.3489  0.3175 -0.2794
65763CL      CL 1119   2.510   8.097   6.696  0.4496  0.7066 -0.2038
65764CL      CL 1120   7.892   8.909   3.771 -0.3947  0.1314 -0.1379
65765CL      CL 1121   3.329   1.344   2.685  0.0690  0.1587  0.0537
65766CL      CL 1122   3.599  12.255   5.941 -0.0672  0.1604  0.1697
65767CL      CL 1123   5.238   7.711   7.316  0.3662 -0.0040  0.4925
65768CL      CL 1124   6.591   9.946   6.488 -0.3904  0.4776 -0.3914
65769CL      CL 1125   4.733   9.550  10.270  0.0826 -0.3224  0.0917
65770CL      CL 1126   6.355   4.376   4.792  0.2526 -0.2997  0.0757
65771CL      CL 1127   3.230   1.230   4.006  0.1762  0.2899  0.1575
65772CL      CL 1128   1.287   2.364   6.757  0.2359  0.4791 -0.0588
65773CL      CL 1129   2.253   0.238  11.172 -0.4478  0.1155  0.0805
65774CL      CL 1130   5.497   8.662   8.225 -0.1248 -0.1906 -0.2050
65775CL      CL 1131   6.590   3.389   8.919  0.0682 -0.3169  0.4743
65776CL      CL 1132   8.261   3.360   2.997  0.6345  0.0559 -0.2608
65777CL      CL 1133   4.468  11.087   1.861  0.0538  0.0841 -0.2123
65778CL      CL 1134   1.906   8.061   2.335  0.0804 -0.0342 -0.0012
65779CL      CL 1135   5.623   1.860   9.480 -0.1460 -0.0547  0.0409
65780CL      CL 1136   0.393   6.351   7.910  0.0864 -0.3378  0.3450
65781CL      CL 1137  12.322  12.623   1.179  0.4749  0.3756 -0.1142
65782CL      CL 1138   4.885   7.835   9.220  0.1669 -0.0017  0.2929
65783CL      CL 1139  12.227   0.067   0.163 -0.1007  0.4744  0.1022
65784CL      CL 1140   3.862   9.722   8.028  0.1854 -0.2821  0.1217
65785CL      CL 1141   4.039  11.714   3.189  0.0637  0.0720  0.0148
65786CL      CL 1142   5.052  10.644  12.038 -0.1739  0.0318  0.0786
65787CL      CL 1143   5.925  10.035   2.282  0.1333 -0.1474  0.3183
65788CL      CL 1144   5.443   7.978   9.655 -0.0016 -0.4889  0.0505
65789CL      CL 1145   0.355   2.619   7.724  0.3069 -0.0804 -0.1946
65790CL      CL 1146   1.536  11.464   7.261 -0.4332 -0.0643  0.0578
65791CL      CL 1147  11.395   8.456  12.145 -0.3292 -0.0029  0.1249
65792CL      CL 1148   6.942   6.237   7.674 -0.1073 -0.1565 -0.2734
65793CL      CL 1149   5.388  10.472   4.124 -0.1639 -0.1968  0.3089
65794CL      CL 1150   6.232   2.177  10.668  0.0439  0.2762 -0.4270
65795CL      CL 1151   0.143  11.325  10.655 -0.2831  0.3491  0.2176
65796CL      CL 1152   8.079   4.778   7.950  0.4141 -0.0492 -0.1597
65797CL      CL 1153   9.517  11.616   6.371  0.2096 -0.5267 -0.0118
65798CL      CL 1154   7.945   6.271   9.136 -0.0060  0.1294  0.0120
65799CL      CL 1155   6.122  11.161   9.384 -0.0273  0.5113 -0.1748
65800CL      CL 1156   4.019   4.538   8.539  0.0081  0.0020  0.1055
65801CL      CL 1157   6.474   2.321   2.803 -0.3067  0.1234  0.0947
65802CL      CL 1158   4.653  12.433   6.811 -0.0339 -0.0415  0.4225
65803CL      CL 1159  11.199  10.034   3.075  0.4141 -0.6403  0.3831
65804CL      CL 1160  11.994   2.415  11.612  0.0171 -0.0066  0.0369
65805CL      CL 1161  10.163  11.919   5.636  0.2529 -0.0794 -0.1960
65806CL      CL 1162   5.515  10.691   6.444 -0.0458  0.0387 -0.0485
65807CL      CL 1163   2.628  12.634   2.412 -0.2247 -0.1235  0.3915
65808CL      CL 1164   7.868   6.753   8.201  0.1908 -0.0164 -0.2217
65809CL      CL 1165   0.032   7.417  12.321  0.1979  0.2376  0.1738
65810CL      CL 1166  12.459  11.587   4.788 -0.0565 -0.4622 -0.2492
65811CL      CL 1167   6.363   6.407  12.507 -0.2294  0.1701 -0.0725
65812CL      CL 1168   6.195   7.809  12.562  0.2011 -0.2450  0.3608
65813CL      CL 1169   1.024   4.509   7.048  0.3582 -0.3406  0.0645
65814CL      CL 1170   2.147  11.826   6.597  0.4977  0.5562  0.3534
65815CL      CL 1171   5.141   0.514   6.278  0.3240 -0.0109 -0.0823
65816CL      CL 1172   4.153   1.342   6.332 -0.1845 -0.0679 -0.2800
65817CL      CL 1173   0.072  11.506   4.410  0.0736 -0.0131  0.1649
65818CL      CL 1174   9.145   7.677   8.023 -0.4329  0.1826  0.1441
65819CL      CL 1175   7.445   3.416  12.435  0.3039 -0.1019 -0.0426
65820CL      CL 1176   2.746   4.062   8.128  0.0944  0.2938  0.0963
65821CL      CL 1177   1.893  12.305   3.786  0.2662 -0.2870  0.0201
65822CL      CL 1178   4.734   6.574   9.080  0.0704  0.0929 -0.1963
65823CL      CL 1179   0.744  11.378   3.713 -0.3927 -0.0972 -0.0189
65824CL      CL 1180   3.313   0.644   4.475 -0.0968  0.1950 -0.5421
65825CL      CL 1181   9.292  12.374   4.206  0.2341 -0.2725 -0.0230
65826CL      CL 1182   1.201   7.641   2.875 -0.1841 -0.3249  0.2360
65827CL      CL 1183  11.178   7.392   9.816 -0.0994 -0.4990  0.0680
65828CL      CL 1184   5.060   9.675  10.866 -0.4435  0.1151 -0.4699
65829CL      CL 1185   4.647   8.987  11.135  0.3326  0.4111  0.1922
65830CL      CL 1186   5.049  12.448   1.886  0.6428 -0.2166  0.5687
65831CL      CL 1187   2.567   9.239   8.274  0.1401  0.2535 -0.2250
65832CL      CL 1188   1.235   6.129   9.091  0.3598 -0.1170 -0.0918
65833CL      CL 1189   6.504   0.419   5.959  0.4889 -0.3622 -0.3149
65834CL      CL 1190   4.640  12.375   7.836  0.0135  0.3411 -0.0513
65835CL      CL 1191  10.484   9.502   5.757 -0.0852  0.1725 -0.0037
65836CL      CL 1192  10.443  10.853   1.947 -0.0063  0.2185  0.1183
65837CL      CL 1193   0.838  10.119   5.747 -0.4811  0.1983  0.1246
65838CL      CL 1194  12.411  11.817   6.900  0.1699 -0.2426  0.2127
65839CL      CL 1195   5.218  10.427   5.198 -0.1917  0.1884 -0.0759
65840CL      CL 1196   5.907  10.324   5.173  0.2211 -0.3094  0.1630
65841CL      CL 1197  12.412   9.228   1.840  0.0208 -0.1012 -0.1408
65842CL      CL 1198   4.945   9.835   2.118 -0.3330 -0.4334 -0.2429
65843CL      CL 1199   3.225  10.848   2.620  0.3283  0.0146 -0.5018
65844CL      CL 1200   8.861   8.731   7.502  0.1163 -0.1060 -0.1132
65845CL      CL 1201   4.118   3.112   0.050 -0.4826  0.2560  0.1863
65846CL      CL 1202   7.347  10.856   7.438 -0.1417  0.3910  0.7471
65847CL      CL 1203  11.247   5.512  10.056 -0.1239  0.1711  0.2765
65848CL      CL 1204   1.352  12.562   3.984  0.7475 -0.2862  0.5610
65849CL      CL 1205  12.116   0.429   5.765  0.2254 -0.4078 -0.0244
65850CL      CL 1206   8.632  11.282   5.650 -0.0045 -0.3846  0.2797
65851CL      CL 1207   7.735  10.797  11.849 -0.4075  0.2471  0.1598
65852CL      CL 1208   0.203   0.576   5.508  0.2387 -0.1668  0.0805
65853CL      CL 1209   0.375   9.522   6.401 -0.2644 -0.3000  0.2711
65854CL      CL 1210   6.213   3.929   1.603  0.2047  0.0940  0.0150
65855CL      CL 1211   3.710   1.166   5.572 -0.3086  0.2856  0.0428
65856CL      CL 1212   6.733   1.581   4.529  0.0030 -0.0512  0.1066
65857CL      CL 1213   2.390   0.879   9.788  0.2984  0.4849  0.1547
65858CL      CL 1214   2.659   1.693   6.633 -0.4799  0.1938  0.2602
65859CL      CL 1215   2.499  12.203   4.485 -0.0414  0.1041 -0.2261
65860CL      CL 1216   2.454   4.827  11.559 -0.0612  0.2344 -0.0456
65861CL      CL 1217   8.665  11.868   2.640 -0.1570  0.1025  0.1474
65862CL      CL 1218  11.678   4.149   9.731 -0.0169 -0.2626 -0.4680
65863CL      CL 1219   4.182  11.953   5.177 -0.3580  0.0942  0.3232
65864CL      CL 1220  12.029   7.110   4.864  0.3794 -0.3499  0.2514
65865CL      CL 1221   3.260  11.035   6.163  0.4383 -0.1199 -0.1272
65866CL      CL 1222  10.519   1.928   0.571  0.0922 -0.0851 -0.1161
65867CL      CL 1223   5.155  11.013   3.424  0.0117  0.3691 -0.0704
65868CL      CL 1224   3.607   2.397   5.464  0.0784  0.0499 -0.2275
65869CL      CL 1225   5.844   2.078   5.778 -0.2287 -0.0752  0.3264
65870CL      CL 1226   8.499   5.815   4.892 -0.0299 -0.1065  0.3387
65871CL      CL 1227   1.163  10.839   2.482 -0.2492 -0.1521  0.0844
65872CL      CL 1228   5.888   4.227   4.975  0.4282  0.1430 -0.2195
65873CL      CL 1229   1.690   8.840   8.039  0.2371 -0.0598  0.0039
65874CL      CL 1230   4.975   7.765   9.697  0.0695  0.3747 -0.0120
65875CL      CL 1231   6.249   8.919   9.701  0.2567 -0.2081  0.3363
65876CL      CL 1232   1.032   9.881   2.912  0.0106 -0.3629 -0.0495
65877CL      CL 1233  11.963   3.737   1.912 -0.5525  0.1386  0.0473
65878CL      CL 1234   7.272  12.417   1.699 -0.1995  0.0312 -0.0047
65879CL      CL 1235   6.890   7.863   7.996  0.2645 -0.0828  0.1942
65880CL      CL 1236   9.736   0.221   1.299 -0.0345  0.0047  0.0032
65881CL      CL 1237   0.762   1.076   7.908  0.0797  0.1005  0.6424
65882CL      CL 1238   3.817   7.672   5.698 -0.2736 -0.2658  0.2604
65883CL      CL 1239   9.723   0.618   5.931  0.3494 -0.0284 -0.1479
65884CL      CL 1240   3.591   2.028   4.315 -0.0183 -0.0255 -0.0332
65885CL      CL 1241   2.949  10.846   8.361 -0.0071 -0.3600  0.0338
65886CL      CL 1242   2.962  11.915   7.250  0.1047  0.0284 -0.0549
65887CL      CL 1243   4.773  11.058   4.494 -0.6304 -0.0895  0.1545
65888CL      CL 1244  10.028   4.982   4.262 -0.2398  0.1299  0.2200
65889CL      CL 1245   2.777   9.529   5.974  0.1407  0.0216 -0.5130
65890CL      CL 1246   2.080   0.396   6.442 -0.2528  0.0189  0.0530
65891CL      CL 1247   8.818   1.363   5.984 -0.2207  0.3938 -0.1408
65892CL      CL 1248   1.644   0.883   7.838 -0.4219  0.2239 -0.3306
65893CL      CL 1249  10.323   1.555   7.211  0.2005 -0.3746 -0.1845
65894CL      CL 1250   7.665   1.316  10.642 -0.2510 -0.3808 -0.0638
65895CL      CL 1251   0.213   2.336  11.387  0.0665 -0.3346  0.0906
65896CL      CL 1252   2.383   2.123   1.118  0.0391 -0.4106 -0.0037
65897CL      CL 1253   3.826   5.635   9.337 -0.2268 -0.2263  0.3255
65898CL      CL 1254   4.255   7.313   7.530  0.4922  0.6413  0.0554
65899CL      CL 1255   5.878   4.440   2.324  0.3176  0.0471  0.1519
65900CL      CL 1256   4.077   1.465   1.364 -0.5533  0.3588  0.1421
  12.64801  12.64801  12.64801
